INSANE! Membrane UpperLeaflet>DPPC:POPC:DOPC:PAPC:DAPC:POPE:DOPE:PAPE:DGPE:DAPE:DPSM:POSM:PNSM:DPGS:DBGS:PNGS:DPG1:DPG3:PXSU:PNSU:CHOL=46.0:30.0:97.0:8.0:7.0:29.0:29.0:8.0:12.0:21.0:14.0:11.0:6.0:70.0:26.0:26.0:18.0:18.0:14.0:24.0:402.0 LowerLeaflet>DPPC:POPC:DOPC:PAPC:DAPC:POPE:DOPE:PAPE:DGPE:DAPE:PAPS:DAPS:PRPS:DPSM:POSM:PNSM:POPI:PAPI:CHOL=30.0:20.0:65.0:6.0:5.0:69.0:69.0:20.0:28.0:49.0:6.0:4.0:40.0:6.0:5.0:2.0:52.0:14.0:422.0
295908
    1DPPC   NC3    1  25.907  15.623   5.948  0.0199 -0.0155  0.0326
    1DPPC   PO4    2  25.608  15.913   5.942  0.2183 -0.3926 -0.0386
    1DPPC   GL1    3  25.244  15.878   5.868  0.2546 -0.0980 -0.1582
    1DPPC   GL2    4  25.072  15.476   5.948 -0.0528 -0.3657 -0.2399
    1DPPC   C1A    5  24.926  15.776   5.601 -0.1265 -0.1253  0.0253
    1DPPC   C2A    6  24.578  15.726   5.312  0.0841  0.0357 -0.0234
    1DPPC   C3A    7  24.295  15.411   5.249 -0.1839  0.0270  0.0803
    1DPPC   C4A    8  24.259  15.069   4.894 -0.3399 -0.1176  0.0786
    1DPPC   C1B    9  24.748  15.374   5.838 -0.0705  0.4146  0.3130
    1DPPC   C2B   10  24.486  15.240   5.685 -0.0487 -0.0415 -0.0419
    1DPPC   C3B   11  24.123  15.020   5.550 -0.0181 -0.2585  0.2538
    1DPPC   C4B   12  23.543  14.997   5.511 -0.1003  0.1801 -0.1116
    2DPPC   NC3   13  11.862  31.551  21.011 -0.1469 -0.1448 -0.1601
    2DPPC   PO4   14  11.686  31.973  21.008 -0.3273  0.1129 -0.2913
    2DPPC   GL1   15  11.285  31.709  20.811  0.1909  0.1989 -0.0631
    2DPPC   GL2   16  11.066  31.862  20.648  0.2939 -0.0499 -0.0289
    2DPPC   C1A   17  11.038  31.311  20.597 -0.3347 -0.0856  0.2095
    2DPPC   C2A   18  10.999  31.221  20.103 -0.1510  0.1598 -0.3029
    2DPPC   C3A   19  11.291  31.214  19.788 -0.0116 -0.0034 -0.2509
    2DPPC   C4A   20  11.340  30.934  19.504 -0.1972  0.0184 -0.0646
    2DPPC   C1B   21  11.018  31.739  20.317 -0.1650 -0.0866  0.4450
    2DPPC   C2B   22  10.878  31.642  19.882  0.0783 -0.2159 -0.1073
    2DPPC   C3B   23  10.876  31.282  19.564  0.4125 -0.0028  0.1410
    2DPPC   C4B   24  10.717  31.002  19.371  0.1190 -0.0330  0.0909
    3DPPC   NC3   25  16.474  16.397  18.480  0.0872  0.1011 -0.1194
    3DPPC   PO4   26  16.512  16.861  18.416  0.0023  0.0966 -0.0955
    3DPPC   GL1   27  16.224  17.072  18.349 -0.1786  0.0985  0.0842
    3DPPC   GL2   28  15.973  17.002  18.219  0.1417 -0.0691 -0.1521
    3DPPC   C1A   29  16.195  17.437  18.161 -0.0476 -0.2296 -0.2695
    3DPPC   C2A   30  16.109  17.614  17.753 -0.0623  0.0980  0.1182
    3DPPC   C3A   31  15.943  17.767  17.434 -0.1249 -0.0068 -0.0236
    3DPPC   C4A   32  15.734  17.632  16.974  0.2637  0.0744  0.0574
    3DPPC   C1B   33  15.699  17.280  18.103 -0.0381  0.0607 -0.0900
    3DPPC   C2B   34  15.592  17.390  17.696  0.0204 -0.1882  0.2648
    3DPPC   C3B   35  15.300  17.690  17.387  0.1737  0.2993 -0.0791
    3DPPC   C4B   36  15.372  18.042  17.053  0.2813 -0.1618 -0.0116
    4DPPC   NC3   37  13.511  18.038  20.309 -0.0583  0.0646 -0.1791
    4DPPC   PO4   38  13.443  18.475  20.444 -0.3501 -0.0239  0.0391
    4DPPC   GL1   39  13.508  18.618  20.057  0.0633 -0.1157 -0.2284
    4DPPC   GL2   40  13.834  18.673  19.968 -0.0416 -0.0160  0.0312
    4DPPC   C1A   41  13.510  18.670  19.575  0.0344  0.1635  0.0468
    4DPPC   C2A   42  13.650  18.557  19.153 -0.0086  0.0776  0.0213
    4DPPC   C3A   43  13.722  18.565  18.679  0.2394 -0.1305 -0.0038
    4DPPC   C4A   44  13.888  18.712  18.212 -0.1869  0.0584  0.1791
    4DPPC   C1B   45  13.827  19.042  19.684  0.0869  0.1527 -0.0271
    4DPPC   C2B   46  13.647  19.111  19.316 -0.0315 -0.2199 -0.0534
    4DPPC   C3B   47  13.701  18.991  18.910  0.1044 -0.1265  0.1673
    4DPPC   C4B   48  13.835  19.101  18.460 -0.0481 -0.0653  0.0329
    5DPPC   NC3   49  21.290  28.023  13.754 -0.0819  0.3697  0.2051
    5DPPC   PO4   50  21.119  27.878  14.099  0.0022  0.1405  0.0908
    5DPPC   GL1   51  20.725  27.881  13.855  0.0658  0.3257  0.0190
    5DPPC   GL2   52  20.614  28.006  13.548  0.3835  0.1642  0.1678
    5DPPC   C1A   53  20.415  27.576  13.951 -0.3389  0.3226 -0.1705
    5DPPC   C2A   54  20.164  27.433  13.657  0.1562  0.0859 -0.1698
    5DPPC   C3A   55  19.852  27.563  13.423  0.1751  0.3013  0.0836
    5DPPC   C4A   56  19.425  27.429  13.391 -0.0236  0.0015 -0.0007
    5DPPC   C1B   57  20.316  27.788  13.331  0.1581 -0.2918  0.4239
    5DPPC   C2B   58  20.035  27.896  13.003 -0.1969 -0.3735  0.1562
    5DPPC   C3B   59  19.673  28.141  12.789  0.2131 -0.1869  0.1251
    5DPPC   C4B   60  19.319  28.202  12.542  0.3964  0.0329  0.1022
    6DPPC   NC3   61   3.441   8.844  15.147 -0.1185 -0.0592 -0.5738
    6DPPC   PO4   62   3.363   9.194  14.787 -0.0540  0.0001  0.1811
    6DPPC   GL1   63   3.750   9.156  14.755  0.0104  0.2829 -0.2301
    6DPPC   GL2   64   3.996   9.012  14.852  0.2023  0.2095  0.0851
    6DPPC   C1A   65   4.156   9.391  14.477  0.2275 -0.1963  0.1580
    6DPPC   C2A   66   4.612   9.195  14.334 -0.0888 -0.2454 -0.0484
    6DPPC   C3A   67   5.082   9.105  14.190  0.0137  0.2301 -0.0623
    6DPPC   C4A   68   5.467   8.978  14.137  0.1491  0.3507  0.0691
    6DPPC   C1B   69   4.367   8.898  14.615  0.1027 -0.1966  0.0651
    6DPPC   C2B   70   4.691   8.717  14.304  0.1241 -0.0338  0.0414
    6DPPC   C3B   71   5.082   8.528  14.047 -0.1794  0.0282 -0.0249
    6DPPC   C4B   72   5.296   8.703  13.681  0.0762  0.1228  0.0873
    7DPPC   NC3   73   1.848  17.970  11.344  0.0668 -0.3467 -0.2986
    7DPPC   PO4   74   2.307  17.873  11.485 -0.1598 -0.0119 -0.1188
    7DPPC   GL1   75   2.689  17.780  11.189  0.1267 -0.1751  0.0741
    7DPPC   GL2   76   2.905  17.941  11.338 -0.1178  0.0791  0.0090
    7DPPC   C1A   77   2.949  17.437  11.243  0.1400  0.1644 -0.1242
    7DPPC   C2A   78   3.314  17.396  11.044 -0.0361  0.0218  0.1692
    7DPPC   C3A   79   3.624  17.304  10.909  0.1639  0.3171  0.4251
    7DPPC   C4A   80   3.856  17.282  10.666  0.0288  0.1937  0.0735
    7DPPC   C1B   81   3.349  17.783  11.394  0.1728  0.1811  0.0078
    7DPPC   C2B   82   3.689  17.688  11.226 -0.0381  0.0571 -0.0822
    7DPPC   C3B   83   4.001  17.405  11.236 -0.3424  0.1618  0.0512
    7DPPC   C4B   84   4.063  17.024  11.026 -0.0986  0.3202 -0.0773
    8DPPC   NC3   85  26.151   6.834  10.691  0.1152  0.1344  0.0425
    8DPPC   PO4   86  25.820   6.736  10.723  0.1786  0.1096 -0.1265
    8DPPC   GL1   87  25.375   6.840  10.561  0.1501 -0.1968  0.0462
    8DPPC   GL2   88  25.229   6.601  10.609  0.1749  0.2145 -0.0648
    8DPPC   C1A   89  24.914   6.914  10.420  0.0912  0.1154 -0.2248
    8DPPC   C2A   90  24.592   6.812  10.252 -0.1033 -0.1855 -0.0193
    8DPPC   C3A   91  24.145   6.820  10.069 -0.1221  0.1708  0.1495
    8DPPC   C4A   92  23.919   7.129   9.954 -0.2324 -0.1175 -0.2151
    8DPPC   C1B   93  24.881   6.374  10.333 -0.0787  0.3291  0.1625
    8DPPC   C2B   94  24.600   6.342  10.024 -0.0926 -0.0911  0.1246
    8DPPC   C3B   95  24.213   6.415   9.838 -0.0050  0.0318  0.0064
    8DPPC   C4B   96  24.097   6.684   9.580  0.1151 -0.1836  0.2307
    9DPPC   NC3   97  25.752  19.938   7.989  0.2830 -0.2111 -0.0088
    9DPPC   PO4   98  25.520  20.192   7.550 -0.0568 -0.0362  0.1222
    9DPPC   GL1   99  25.040  20.147   7.562  0.0461 -0.1817  0.1137
    9DPPC   GL2  100  24.856  20.253   7.851 -0.1468 -0.2862  0.0514
    9DPPC   C1A  101  24.671  20.100   7.338 -0.2642 -0.3049  0.1138
    9DPPC   C2A  102  24.311  20.192   7.145  0.4433 -0.4970 -0.2756
    9DPPC   C3A  103  24.044  20.467   7.109  0.3194  0.1718 -0.2044
    9DPPC   C4A  104  23.627  20.730   7.049 -0.0628  0.1135  0.0414
    9DPPC   C1B  105  24.427  20.327   7.708 -0.1067  0.0720 -0.0086
    9DPPC   C2B  106  24.120  20.579   7.651 -0.2503  0.1393  0.1719
    9DPPC   C3B  107  23.693  20.475   7.509  0.0361 -0.0112  0.3152
    9DPPC   C4B  108  23.374  20.137   7.469  0.1641 -0.0935  0.0853
   10DPPC   NC3  109  18.873  31.866  15.065  0.1832  0.0339 -0.0626
   10DPPC   PO4  110  18.595  31.563  15.258 -0.0026 -0.3111  0.2190
   10DPPC   GL1  111  18.124  31.371  15.274  0.1642 -0.0923  0.1347
   10DPPC   GL2  112  18.226  31.192  15.065 -0.0880 -0.0635 -0.1022
   10DPPC   C1A  113  17.727  31.346  15.122  0.1733  0.1680  0.0463
   10DPPC   C2A  114  17.254  31.286  14.900  0.2199 -0.2714 -0.2524
   10DPPC   C3A  115  16.767  31.168  15.021  0.1911  0.1901  0.0542
   10DPPC   C4A  116  16.383  31.355  14.815  0.0021 -0.0312 -0.1114
   10DPPC   C1B  117  17.904  30.955  14.839  0.2429 -0.0874  0.1706
   10DPPC   C2B  118  17.587  30.860  14.678  0.1380 -0.0527  0.2033
   10DPPC   C3B  119  17.420  30.478  14.519  0.1625  0.0917 -0.1727
   10DPPC   C4B  120  17.463  30.086  14.499  0.2743  0.0193 -0.0659
   11DPPC   NC3  121  25.353  34.409  10.754 -0.0932 -0.3428  0.2481
   11DPPC   PO4  122  24.944  34.279  10.907 -0.1251 -0.4497 -0.1678
   11DPPC   GL1  123  24.627  34.100  10.709 -0.3059  0.0331  0.3265
   11DPPC   GL2  124  24.395  34.312  10.544 -0.0646 -0.0915  0.0679
   11DPPC   C1A  125  24.625  33.895  10.368 -0.0337  0.0800 -0.2166
   11DPPC   C2A  126  24.523  33.591  10.080 -0.1957  0.3737 -0.1790
   11DPPC   C3A  127  24.510  33.459   9.725  0.1898 -0.0678  0.1824
   11DPPC   C4A  128  24.222  33.294   9.387 -0.2117  0.3958  0.0013
   11DPPC   C1B  129  24.523  34.328  10.078 -0.0885 -0.0060 -0.2671
   11DPPC   C2B  130  24.443  34.122   9.772  0.0212 -0.1377  0.2811
   11DPPC   C3B  131  24.074  33.936   9.506 -0.0462  0.1800  0.1281
   11DPPC   C4B  132  23.768  34.044   9.363 -0.3002 -0.1631  0.0399
   12DPPC   NC3  133  27.782  15.262   4.494 -0.0298 -0.0410 -0.2592
   12DPPC   PO4  134  27.665  15.573   4.224  0.1030  0.1389 -0.0602
   12DPPC   GL1  135  27.718  15.651   3.795  0.1419 -0.1485 -0.0787
   12DPPC   GL2  136  27.855  15.980   3.792 -0.0999 -0.1422  0.1439
   12DPPC   C1A  137  27.659  15.460   3.451  0.1503  0.2315  0.2001
   12DPPC   C2A  138  27.662  15.316   3.018  0.1546  0.1398 -0.0919
   12DPPC   C3A  139  27.376  15.220   2.740 -0.3660  0.1172  0.0091
   12DPPC   C4A  140  27.047  14.961   2.820 -0.0247  0.0397  0.1241
   12DPPC   C1B  141  27.976  15.840   3.316  0.3453  0.0291  0.0194
   12DPPC   C2B  142  27.882  15.714   2.855  0.0830  0.2254 -0.1863
   12DPPC   C3B  143  27.795  15.412   2.480  0.0654  0.2504 -0.1734
   12DPPC   C4B  144  27.889  15.456   2.012  0.0147  0.1614 -0.0169
   13DPPC   NC3  145   8.542  16.675  18.516  0.2277  0.2084 -0.1260
   13DPPC   PO4  146   8.605  16.790  18.163 -0.1356 -0.0752  0.2033
   13DPPC   GL1  147   8.493  16.858  17.759  0.3109 -0.0737  0.1594
   13DPPC   GL2  148   8.356  16.921  17.691  0.0427  0.1340 -0.0160
   13DPPC   C1A  149   8.634  16.821  17.334  0.4215 -0.2002 -0.1354
   13DPPC   C2A  150   8.572  17.041  16.943  0.3313 -0.0698 -0.1592
   13DPPC   C3A  151   8.715  17.263  16.584 -0.0051 -0.0800  0.0713
   13DPPC   C4A  152   8.790  17.457  16.200  0.3632 -0.0874 -0.1532
   13DPPC   C1B  153   8.368  17.299  17.353  0.2448 -0.2825  0.2231
   13DPPC   C2B  154   8.369  17.555  16.992  0.0474  0.2016 -0.0135
   13DPPC   C3B  155   8.426  17.785  16.623 -0.3282 -0.0645 -0.0191
   13DPPC   C4B  156   8.391  17.761  16.215 -0.2146 -0.1871 -0.0407
   14DPPC   NC3  157  23.469   8.467  13.910 -0.2729  0.0102 -0.2471
   14DPPC   PO4  158  23.234   8.794  13.965 -0.1105 -0.0856 -0.0000
   14DPPC   GL1  159  23.029   8.731  13.568 -0.1557  0.3967 -0.1725
   14DPPC   GL2  160  22.738   8.612  13.583 -0.2895  0.1862 -0.0167
   14DPPC   C1A  161  22.963   8.575  13.140 -0.0297  0.0293  0.0175
   14DPPC   C2A  162  22.826   8.401  12.721 -0.2180  0.0950 -0.5341
   14DPPC   C3A  163  22.719   8.318  12.333  0.3135 -0.2728 -0.0253
   14DPPC   C4A  164  22.721   8.288  11.932  0.2546 -0.3656 -0.1102
   14DPPC   C1B  165  22.478   8.265  13.851 -0.0437  0.1690  0.1289
   14DPPC   C2B  166  22.227   8.020  13.605  0.0002  0.1064 -0.0630
   14DPPC   C3B  167  21.933   7.783  13.458  0.4395 -0.4333 -0.2164
   14DPPC   C4B  168  21.443   7.728  13.423 -0.0222  0.1490  0.3033
   15DPPC   NC3  169  13.561   8.045  19.016 -0.2039 -0.0363 -0.0961
   15DPPC   PO4  170  13.248   7.968  18.761  0.0100  0.2187 -0.2977
   15DPPC   GL1  171  13.010   7.885  18.397 -0.0296  0.3666 -0.1535
   15DPPC   GL2  172  13.079   8.206  18.274  0.0652  0.2137 -0.1061
   15DPPC   C1A  173  12.958   7.805  17.979 -0.0943 -0.0829  0.2140
   15DPPC   C2A  174  13.006   7.793  17.597 -0.0866  0.3936  0.0458
   15DPPC   C3A  175  12.724   7.784  17.356  0.0454  0.2103 -0.1635
   15DPPC   C4A  176  12.483   7.498  17.112  0.0132 -0.2765  0.1404
   15DPPC   C1B  177  13.069   8.277  17.811  0.2276 -0.2037 -0.0063
   15DPPC   C2B  178  12.862   8.260  17.302 -0.2721  0.0572  0.0217
   15DPPC   C3B  179  12.660   8.452  16.905 -0.3751 -0.4005  0.1131
   15DPPC   C4B  180  12.491   8.244  16.572 -0.0515  0.0126  0.3811
   16DPPC   NC3  181   0.500  12.310   9.709  0.0897 -0.0771  0.4246
   16DPPC   PO4  182   0.653  12.788   9.873  0.2053  0.0786 -0.0308
   16DPPC   GL1  183   0.776  12.730   9.476 -0.3161 -0.2300 -0.2506
   16DPPC   GL2  184   0.990  12.934   9.324  0.0282  0.0946  0.0641
   16DPPC   C1A  185   0.912  12.451   9.106 -0.0147  0.0447  0.0074
   16DPPC   C2A  186   1.222  12.365   8.933 -0.3920  0.2618 -0.2444
   16DPPC   C3A  187   1.703  12.399   8.781 -0.1634 -0.1951 -0.1675
   16DPPC   C4A  188   2.085  12.701   8.651  0.1518  0.1283 -0.1645
   16DPPC   C1B  189   1.371  12.765   9.349  0.2532  0.0654  0.0071
   16DPPC   C2B  190   1.714  12.721   9.140 -0.2358 -0.1198  0.1560
   16DPPC   C3B  191   2.062  12.592   9.126  0.0748 -0.1204 -0.0985
   16DPPC   C4B  192   2.479  12.587   9.066  0.4588 -0.1792 -0.4146
   17DPPC   NC3  193   1.166   3.828  13.337 -0.1812  0.3106  0.4296
   17DPPC   PO4  194   0.719   3.749  13.372  0.2465 -0.1758 -0.0559
   17DPPC   GL1  195   0.897   3.760  12.908 -0.1200  0.0251 -0.2237
   17DPPC   GL2  196   1.138   3.982  12.866  0.0671  0.0869  0.0234
   17DPPC   C1A  197   0.885   3.657  12.503  0.1114 -0.3419  0.3542
   17DPPC   C2A  198   1.127   3.502  12.138  0.1524  0.0705 -0.2536
   17DPPC   C3A  199   1.418   3.405  11.905  0.0524  0.0749 -0.0025
   17DPPC   C4A  200   1.549   3.276  11.560 -0.2460 -0.2482 -0.0351
   17DPPC   C1B  201   1.330   3.809  12.500  0.1666 -0.0053 -0.4007
   17DPPC   C2B  202   1.687   3.686  12.240  0.1560  0.2204  0.1860
   17DPPC   C3B  203   1.966   3.548  11.917  0.0390  0.1948 -0.5002
   17DPPC   C4B  204   2.020   3.205  11.710 -0.1091  0.2733 -0.0719
   18DPPC   NC3  205  30.729   0.812  11.551 -0.1059 -0.0496 -0.1904
   18DPPC   PO4  206  30.804   0.440  11.380  0.0837  0.3593 -0.0026
   18DPPC   GL1  207  31.019   0.489  11.050 -0.0287 -0.3804  0.1262
   18DPPC   GL2  208  31.115   0.696  11.069  0.1731 -0.0216 -0.0376
   18DPPC   C1A  209  31.323   0.400  10.741  0.1634 -0.0193  0.0323
   18DPPC   C2A  210  31.565   0.455  10.510  0.2123 -0.2561 -0.2445
   18DPPC   C3A  211  31.742   0.586  10.080  0.1055 -0.2430 -0.0741
   18DPPC   C4A  212  31.790   0.579   9.627  0.0648  0.0218  0.1347
   18DPPC   C1B  213  31.397   0.983  10.929 -0.2553 -0.2986  0.0872
   18DPPC   C2B  214  31.692   1.199  10.719  0.2281 -0.1182  0.0407
   18DPPC   C3B  215  31.981   1.242  10.393  0.0524  0.0003  0.2219
   18DPPC   C4B  216  32.329   1.508  10.271  0.5193  0.1683 -0.0591
   19DPPC   NC3  217  26.026  10.411   8.655 -0.2455  0.0991  0.0857
   19DPPC   PO4  218  26.123  10.303   8.231 -0.2299  0.0953 -0.1748
   19DPPC   GL1  219  25.871  10.014   7.989  0.2045 -0.1146  0.1430
   19DPPC   GL2  220  25.812   9.764   8.228 -0.0653 -0.3591 -0.0368
   19DPPC   C1A  221  25.754   9.795   7.611 -0.0619 -0.2116  0.2850
   19DPPC   C2A  222  25.664   9.943   7.297 -0.0754  0.3873  0.2565
   19DPPC   C3A  223  25.312   9.763   7.101 -0.0130  0.1682 -0.1021
   19DPPC   C4A  224  24.834   9.804   6.853 -0.1672 -0.1086 -0.0772
   19DPPC   C1B  225  25.396   9.691   7.875  0.0856 -0.0251  0.0955
   19DPPC   C2B  226  25.140   9.729   7.599 -0.2480  0.1594  0.1278
   19DPPC   C3B  227  24.851   9.614   7.289  0.2198 -0.1203  0.2796
   19DPPC   C4B  228  24.496   9.510   7.136 -0.0668 -0.2857 -0.0114
   20DPPC   NC3  229  26.321  32.495  10.558  0.2625 -0.0944 -0.1961
   20DPPC   PO4  230  26.339  32.194  10.182 -0.0613  0.1581 -0.3333
   20DPPC   GL1  231  26.380  32.442   9.867  0.0222 -0.0456  0.0233
   20DPPC   GL2  232  26.166  32.376   9.598 -0.2853  0.1784  0.1059
   20DPPC   C1A  233  26.523  32.814   9.520 -0.0338  0.0915 -0.0971
   20DPPC   C2A  234  26.480  32.907   9.084 -0.0501  0.0809  0.1208
   20DPPC   C3A  235  26.366  32.864   8.654 -0.1365  0.2793 -0.0367
   20DPPC   C4A  236  26.210  32.799   8.211  0.0447  0.1196 -0.2008
   20DPPC   C1B  237  26.135  32.551   9.113 -0.1871 -0.1350 -0.2095
   20DPPC   C2B  238  26.040  32.409   8.794  0.2660  0.1936  0.0461
   20DPPC   C3B  239  26.302  32.343   8.444 -0.1318  0.1929 -0.3818
   20DPPC   C4B  240  26.624  32.410   8.061  0.4005  0.3915  0.0053
   21DPPC   NC3  241  20.699  14.540  15.822 -0.2343 -0.0366  0.0404
   21DPPC   PO4  242  20.612  14.399  15.510  0.0648 -0.3081 -0.2200
   21DPPC   GL1  243  20.187  14.614  15.515 -0.1801 -0.1372  0.3678
   21DPPC   GL2  244  19.951  14.544  15.716 -0.2846  0.0125 -0.1385
   21DPPC   C1A  245  20.112  14.919  15.301  0.0195 -0.1358  0.0423
   21DPPC   C2A  246  19.877  15.107  15.089  0.2886 -0.0553 -0.1708
   21DPPC   C3A  247  19.528  15.097  14.725 -0.0554 -0.1621 -0.2275
   21DPPC   C4A  248  19.137  14.928  14.621 -0.2853 -0.1695  0.2049
   21DPPC   C1B  249  19.668  14.616  15.385 -0.1359  0.2192  0.0740
   21DPPC   C2B  250  19.398  14.656  15.093  0.2443  0.1337 -0.1157
   21DPPC   C3B  251  19.246  14.414  14.715 -0.0053 -0.0968  0.0964
   21DPPC   C4B  252  18.825  14.541  14.580 -0.1065 -0.0071  0.2649
   22DPPC   NC3  253  14.215  15.669  19.354  0.0211 -0.0608  0.2812
   22DPPC   PO4  254  14.226  15.938  19.013  0.3299  0.0579 -0.1379
   22DPPC   GL1  255  14.410  15.876  18.538  0.0915  0.1250 -0.1472
   22DPPC   GL2  256  14.720  16.016  18.575 -0.2006  0.0101  0.3020
   22DPPC   C1A  257  14.387  16.184  18.189  0.2919  0.0815 -0.1602
   22DPPC   C2A  258  14.236  16.502  17.884 -0.0082 -0.1094 -0.0541
   22DPPC   C3A  259  14.015  16.479  17.554 -0.0563  0.3388 -0.1147
   22DPPC   C4A  260  14.078  16.355  17.122  0.3756 -0.3978 -0.0126
   22DPPC   C1B  261  14.380  16.543  18.527  0.2496  0.1332 -0.1079
   22DPPC   C2B  262  14.233  16.907  18.680 -0.1130  0.2273  0.1314
   22DPPC   C3B  263  14.172  17.291  18.952 -0.0464 -0.0815  0.0353
   22DPPC   C4B  264  14.236  17.533  19.316 -0.1254 -0.2031  0.0078
   23DPPC   NC3  265  32.771  15.033   5.590  0.3699 -0.6380  0.0281
   23DPPC   PO4  266  33.010  14.691   5.529 -0.1537  0.2758  0.0116
   23DPPC   GL1  267  32.973  14.437   5.083  0.3468 -0.2451  0.3256
   23DPPC   GL2  268  33.189  14.343   5.045 -0.0263 -0.2480 -0.4488
   23DPPC   C1A  269  32.796  14.485   4.648  0.0578  0.1487  0.3111
   23DPPC   C2A  270  32.784  14.715   4.287 -0.0232 -0.0303 -0.2717
   23DPPC   C3A  271  33.199  14.695   3.976 -0.0078  0.0340 -0.1771
   23DPPC   C4A  272  33.605  14.464   3.842  0.2458 -0.0264 -0.1547
   23DPPC   C1B  273  33.508  14.321   4.624  0.0131 -0.1891  0.0544
   23DPPC   C2B  274  33.698  14.112   4.356 -0.1843  0.1711  0.0935
   23DPPC   C3B  275  33.757  13.991   4.000  0.1065  0.1572 -0.0588
   23DPPC   C4B  276  33.774  13.761   3.763  0.6315  0.4948  0.0081
   24DPPC   NC3  277  20.564   5.361  15.928  0.2966 -0.1613  0.1509
   24DPPC   PO4  278  20.371   5.820  16.093  0.1195  0.1425  0.1490
   24DPPC   GL1  279  20.282   5.793  15.762 -0.0540 -0.2059 -0.1872
   24DPPC   GL2  280  20.634   5.789  15.689  0.0054 -0.2291  0.0174
   24DPPC   C1A  281  20.017   5.896  15.560 -0.0520 -0.1193  0.1296
   24DPPC   C2A  282  19.970   6.196  15.226 -0.0933 -0.3581 -0.2226
   24DPPC   C3A  283  19.748   6.204  14.894 -0.0247  0.0011  0.0997
   24DPPC   C4A  284  19.376   6.138  14.499 -0.3288  0.4583 -0.3341
   24DPPC   C1B  285  20.583   5.849  15.285  0.1657 -0.2071  0.2437
   24DPPC   C2B  286  20.726   6.046  14.894  0.2095  0.1558  0.0435
   24DPPC   C3B  287  20.568   6.232  14.464 -0.0984 -0.1253 -0.1982
   24DPPC   C4B  288  20.424   6.379  14.106 -0.5769  0.2456 -0.0799
   25DPPC   NC3  289  23.690   0.709  12.271 -0.1146  0.2422  0.1287
   25DPPC   PO4  290  23.574   1.066  11.994  0.1158 -0.0423  0.0666
   25DPPC   GL1  291  23.257   1.225  11.775 -0.0566 -0.0210  0.3079
   25DPPC   GL2  292  23.043   1.312  11.807 -0.0382 -0.0917  0.1938
   25DPPC   C1A  293  23.219   1.322  11.344 -0.1138  0.1438  0.2480
   25DPPC   C2A  294  23.302   1.245  10.960  0.4546 -0.0774 -0.0191
   25DPPC   C3A  295  23.161   1.163  10.578  0.0720  0.0589  0.3105
   25DPPC   C4A  296  23.234   1.041  10.083  0.3568  0.0136  0.0468
   25DPPC   C1B  297  22.714   1.334  11.554 -0.2432  0.1444 -0.4201
   25DPPC   C2B  298  22.469   1.473  11.219 -0.0726 -0.2088  0.0900
   25DPPC   C3B  299  22.238   1.746  11.136  0.0108 -0.1075 -0.1984
   25DPPC   C4B  300  21.812   1.795  11.080 -0.2636 -0.1693  0.0738
   26DPPC   NC3  301  11.213  30.813  21.453 -0.1259  0.3536 -0.0357
   26DPPC   PO4  302  11.564  31.026  21.375 -0.1075  0.3341 -0.0359
   26DPPC   GL1  303  11.470  30.778  21.038  0.2619 -0.2293  0.0831
   26DPPC   GL2  304  11.711  30.763  20.851  0.2076 -0.0314 -0.0178
   26DPPC   C1A  305  11.537  30.330  20.913 -0.0892  0.0721 -0.0267
   26DPPC   C2A  306  11.488  30.072  20.630  0.2902  0.4121  0.2333
   26DPPC   C3A  307  11.496  29.827  20.326  0.0303 -0.1956 -0.1868
   26DPPC   C4A  308  11.311  29.757  19.961 -0.0786 -0.1728  0.0989
   26DPPC   C1B  309  11.672  30.628  20.444 -0.0387  0.3888  0.1138
   26DPPC   C2B  310  11.765  30.269  20.225  0.0478  0.0492 -0.0698
   26DPPC   C3B  311  11.973  29.972  19.932  0.2359  0.0328 -0.1134
   26DPPC   C4B  312  12.239  29.708  19.980 -0.3549 -0.0737  0.0677
   27DPPC   NC3  313  26.139   5.377  11.034 -0.2865 -0.0270  0.3592
   27DPPC   PO4  314  25.945   5.431  10.615  0.0721  0.1786  0.3032
   27DPPC   GL1  315  25.856   5.371  10.181  0.0355  0.1753 -0.2642
   27DPPC   GL2  316  25.939   5.604  10.031 -0.2078  0.1312  0.2610
   27DPPC   C1A  317  25.678   5.226   9.876  0.1154 -0.1867 -0.0492
   27DPPC   C2A  318  25.418   5.169   9.659  0.0967 -0.0835  0.1194
   27DPPC   C3A  319  25.074   5.106   9.457 -0.1491 -0.4728  0.1023
   27DPPC   C4A  320  24.794   5.300   9.082 -0.0980 -0.2327 -0.2153
   27DPPC   C1B  321  25.808   5.676   9.587 -0.1040  0.4437  0.3197
   27DPPC   C2B  322  25.430   5.515   9.308 -0.1605 -0.0357  0.1267
   27DPPC   C3B  323  25.271   5.462   8.889  0.0031 -0.1670  0.2109
   27DPPC   C4B  324  25.251   5.164   8.618 -0.1187  0.2671 -0.1319
   28DPPC   NC3  325   4.280  17.950  15.982 -0.1325  0.3814 -0.0712
   28DPPC   PO4  326   4.284  17.481  15.955  0.1021  0.1579 -0.0762
   28DPPC   GL1  327   4.708  17.416  15.914 -0.2752  0.4528 -0.0575
   28DPPC   GL2  328   4.709  17.336  15.656  0.1882 -0.0903 -0.1280
   28DPPC   C1A  329   5.139  17.431  16.021 -0.1749  0.1694 -0.1564
   28DPPC   C2A  330   5.541  17.396  15.783 -0.0713 -0.0687  0.0981
   28DPPC   C3A  331   5.990  17.352  15.591 -0.0641  0.0848  0.3635
   28DPPC   C4A  332   6.326  17.374  15.299 -0.2263 -0.1640 -0.2385
   28DPPC   C1B  333   5.117  17.583  15.573  0.1626  0.0155 -0.3493
   28DPPC   C2B  334   5.520  17.686  15.359 -0.1422  0.5627 -0.2905
   28DPPC   C3B  335   5.974  17.684  15.125  0.2826  0.1874  0.1901
   28DPPC   C4B  336   6.393  17.809  14.973 -0.1029 -0.1460 -0.3112
   29DPPC   NC3  337  25.180  13.216   9.080  0.0916  0.1828 -0.1025
   29DPPC   PO4  338  24.824  12.900   9.179 -0.2148 -0.1117  0.1236
   29DPPC   GL1  339  24.484  12.666   8.856 -0.0113  0.0440  0.3096
   29DPPC   GL2  340  24.507  12.431   9.166 -0.0752  0.0377  0.0454
   29DPPC   C1A  341  24.103  12.597   8.771  0.2630  0.0477 -0.1526
   29DPPC   C2A  342  23.713  12.553   8.625  0.0139  0.1570  0.1739
   29DPPC   C3A  343  23.349  12.369   8.449  0.0953 -0.1862  0.0227
   29DPPC   C4A  344  23.007  12.141   8.422  0.0153  0.0711 -0.2484
   29DPPC   C1B  345  24.184  12.209   9.236 -0.1551 -0.0751  0.0441
   29DPPC   C2B  346  23.792  12.318   9.103 -0.0077 -0.1813  0.0044
   29DPPC   C3B  347  23.394  12.134   8.910 -0.0609  0.0498  0.2987
   29DPPC   C4B  348  22.983  11.998   8.851  0.0293  0.0215 -0.1446
   30DPPC   NC3  349  24.051  23.816  11.713 -0.0594 -0.1185  0.1802
   30DPPC   PO4  350  23.818  23.519  11.900  0.1342 -0.4716 -0.0951
   30DPPC   GL1  351  23.653  23.651  11.463 -0.1374  0.0993 -0.0178
   30DPPC   GL2  352  23.707  23.442  11.215 -0.0511  0.0820 -0.0162
   30DPPC   C1A  353  23.226  23.369  11.282 -0.0557 -0.0046 -0.1200
   30DPPC   C2A  354  22.797  23.435  11.188 -0.0483 -0.1995  0.2050
   30DPPC   C3A  355  22.379  23.726  11.066 -0.1109 -0.0843 -0.0099
   30DPPC   C4A  356  22.015  23.801  10.869  0.1241 -0.0260  0.3893
   30DPPC   C1B  357  23.495  23.206  10.943  0.0548 -0.1205 -0.1510
   30DPPC   C2B  358  23.073  23.152  10.811  0.1335 -0.3512 -0.0966
   30DPPC   C3B  359  22.632  23.170  10.722 -0.1451 -0.1994  0.4600
   30DPPC   C4B  360  22.317  23.482  10.655  0.0726  0.1056 -0.2997
   31DPPC   NC3  361  23.129  20.129  12.609  0.1051  0.2292 -0.0830
   31DPPC   PO4  362  22.913  19.888  12.925  0.1594  0.1678  0.2585
   31DPPC   GL1  363  22.548  20.070  12.798 -0.0034 -0.2633 -0.0601
   31DPPC   GL2  364  22.431  20.391  12.972  0.2680 -0.2933  0.0193
   31DPPC   C1A  365  22.136  20.190  12.460 -0.5511 -0.0249  0.1374
   31DPPC   C2A  366  21.786  20.128  12.308 -0.3423  0.0933 -0.0359
   31DPPC   C3A  367  21.568  20.228  12.078 -0.0722  0.0966 -0.0029
   31DPPC   C4A  368  21.451  20.564  11.785  0.2268 -0.2674 -0.2054
   31DPPC   C1B  369  22.240  20.604  12.759  0.1963  0.0960  0.0249
   31DPPC   C2B  370  21.961  20.682  12.552 -0.0889 -0.3259  0.0254
   31DPPC   C3B  371  21.655  20.613  12.311  0.0468 -0.0948  0.0378
   31DPPC   C4B  372  21.291  20.846  12.204  0.3366  0.3889  0.3247
   32DPPC   NC3  373   4.991  23.228  19.891 -0.3965  0.0856  0.1342
   32DPPC   PO4  374   5.222  22.854  19.896 -0.0698  0.0318  0.0605
   32DPPC   GL1  375   5.544  23.125  19.752 -0.1097  0.1043 -0.1187
   32DPPC   GL2  376   5.815  23.127  19.792 -0.1434  0.2308  0.0677
   32DPPC   C1A  377   5.705  23.323  19.328  0.1975  0.0574 -0.0822
   32DPPC   C2A  378   5.982  23.530  19.310 -0.1268 -0.1358 -0.0098
   32DPPC   C3A  379   6.178  23.766  18.982  0.0531 -0.0796  0.1082
   32DPPC   C4A  380   6.270  24.080  18.666  0.0225 -0.2314 -0.4638
   32DPPC   C1B  381   6.207  23.273  19.668  0.1271 -0.1452 -0.1397
   32DPPC   C2B  382   6.407  23.676  19.538 -0.0693  0.0397  0.0285
   32DPPC   C3B  383   6.633  23.765  19.144  0.0068 -0.2199 -0.0283
   32DPPC   C4B  384   6.653  23.760  18.731 -0.0229 -0.2557 -0.1334
   33DPPC   NC3  385  24.590  12.294  11.344 -0.0241 -0.0975 -0.0237
   33DPPC   PO4  386  24.143  12.379  11.476  0.0463 -0.0135 -0.2218
   33DPPC   GL1  387  23.955  12.151  11.136  0.0273 -0.1773  0.3319
   33DPPC   GL2  388  23.790  12.447  10.998  0.0326 -0.0223  0.1046
   33DPPC   C1A  389  23.795  11.879  10.906 -0.1597  0.1468 -0.2063
   33DPPC   C2A  390  23.412  11.737  10.826 -0.1397  0.0430 -0.1179
   33DPPC   C3A  391  23.060  11.725  10.544 -0.1384 -0.0964 -0.1596
   33DPPC   C4A  392  22.588  11.604  10.475 -0.3044  0.0934 -0.1681
   33DPPC   C1B  393  23.417  12.264  10.984 -0.1009 -0.2961  0.2952
   33DPPC   C2B  394  23.152  12.367  10.739  0.0850  0.0755  0.3051
   33DPPC   C3B  395  22.909  12.476  10.296  0.0154  0.1017 -0.1091
   33DPPC   C4B  396  22.405  12.533  10.123 -0.2496  0.0726 -0.0298
   34DPPC   NC3  397  25.661   5.762  10.801 -0.0726 -0.0883 -0.0528
   34DPPC   PO4  398  25.836   5.963  10.362 -0.0326  0.2137 -0.2384
   34DPPC   GL1  399  25.594   5.993   9.934  0.2002 -0.0655 -0.1526
   34DPPC   GL2  400  25.496   6.292   9.828  0.0686  0.0906 -0.1086
   34DPPC   C1A  401  25.365   5.919   9.575  0.1474 -0.0326 -0.2904
   34DPPC   C2A  402  25.002   5.778   9.155 -0.1095  0.0963  0.2891
   34DPPC   C3A  403  24.675   5.794   8.920 -0.0423 -0.2086 -0.0171
   34DPPC   C4A  404  24.378   5.503   8.706  0.3854  0.4023 -0.2241
   34DPPC   C1B  405  25.283   6.411   9.484  0.0556  0.2845 -0.0701
   34DPPC   C2B  406  24.991   6.384   9.218  0.0433  0.4903 -0.1123
   34DPPC   C3B  407  24.805   6.371   8.900 -0.0298  0.1866 -0.3445
   34DPPC   C4B  408  24.573   6.333   8.468 -0.0365 -0.1347 -0.0706
   35DPPC   NC3  409   4.721  33.011  19.212 -0.0981 -0.0895  0.5789
   35DPPC   PO4  410   4.845  33.165  18.816  0.1157  0.1190 -0.1236
   35DPPC   GL1  411   4.961  32.804  18.490 -0.0041  0.2117  0.0562
   35DPPC   GL2  412   4.924  32.474  18.559 -0.0458 -0.1916  0.1973
   35DPPC   C1A  413   5.064  32.833  18.095 -0.2802  0.0254  0.1846
   35DPPC   C2A  414   5.410  32.696  17.872 -0.1172 -0.0433 -0.2309
   35DPPC   C3A  415   5.671  32.565  17.678 -0.5031  0.1036  0.0073
   35DPPC   C4A  416   5.585  32.704  17.215 -0.4133  0.1342 -0.2061
   35DPPC   C1B  417   5.194  32.351  18.211 -0.1891 -0.1150 -0.0428
   35DPPC   C2B  418   5.369  32.229  17.876 -0.0873  0.2379 -0.2503
   35DPPC   C3B  419   5.585  32.193  17.393  0.0778 -0.0191 -0.3990
   35DPPC   C4B  420   5.641  31.833  17.117 -0.1675 -0.2743  0.1367
   36DPPC   NC3  421  24.769  13.823  10.093 -0.3202 -0.1676  0.1058
   36DPPC   PO4  422  24.633  13.427  10.243 -0.0789  0.0233  0.2933
   36DPPC   GL1  423  24.231  13.673  10.077 -0.1587 -0.0519  0.0199
   36DPPC   GL2  424  23.959  13.770  10.306 -0.3183 -0.3133 -0.0777
   36DPPC   C1A  425  24.081  13.668   9.675  0.1864  0.2425  0.2354
   36DPPC   C2A  426  23.667  13.553   9.517  0.0017  0.0630 -0.1626
   36DPPC   C3A  427  23.315  13.336   9.407 -0.2328  0.2232 -0.2171
   36DPPC   C4A  428  22.842  13.326   9.478  0.1256 -0.2513  0.2255
   36DPPC   C1B  429  23.660  14.076  10.387 -0.1325 -0.2334  0.1568
   36DPPC   C2B  430  23.231  13.996  10.335  0.2133 -0.4286 -0.0899
   36DPPC   C3B  431  22.896  13.865  10.264 -0.1293  0.0677  0.4284
   36DPPC   C4B  432  22.526  13.845  10.074  0.1152 -0.1217 -0.3305
   37DPPC   NC3  433  19.272  20.287  18.490 -0.0579  0.0893  0.2817
   37DPPC   PO4  434  18.870  20.580  18.590 -0.0376 -0.0634  0.0648
   37DPPC   GL1  435  18.734  20.730  18.185  0.0114 -0.2404  0.1617
   37DPPC   GL2  436  18.734  20.489  17.938 -0.0731 -0.0574 -0.0530
   37DPPC   C1A  437  18.525  20.952  17.909  0.0681  0.2610  0.1013
   37DPPC   C2A  438  18.301  21.355  17.731  0.1270  0.0793  0.0193
   37DPPC   C3A  439  17.865  21.456  17.617  0.3955 -0.2279  0.2017
   37DPPC   C4A  440  17.523  21.747  17.516  0.2825 -0.0534 -0.1701
   37DPPC   C1B  441  18.381  20.455  17.726  0.3217  0.1355 -0.2008
   37DPPC   C2B  442  17.980  20.477  17.520  0.2492 -0.0889  0.0976
   37DPPC   C3B  443  17.532  20.643  17.340 -0.1512  0.0248 -0.1598
   37DPPC   C4B  444  17.070  20.697  17.535 -0.1689  0.1272 -0.1322
   38DPPC   NC3  445  17.373  18.378  18.457 -0.0245  0.1232  0.1220
   38DPPC   PO4  446  17.040  18.612  18.643 -0.2938  0.1427 -0.1392
   38DPPC   GL1  447  16.700  18.865  18.434 -0.3164 -0.2732  0.2167
   38DPPC   GL2  448  16.644  19.056  18.640  0.1456 -0.0600  0.1461
   38DPPC   C1A  449  16.641  18.902  17.991  0.2482  0.2174  0.2417
   38DPPC   C2A  450  16.577  18.979  17.586 -0.0582  0.0262  0.1489
   38DPPC   C3A  451  16.415  18.990  17.215  0.0669 -0.0562  0.1678
   38DPPC   C4A  452  16.263  19.024  16.864  0.1491 -0.2282 -0.0334
   38DPPC   C1B  453  16.484  19.255  18.391  0.2225 -0.2377  0.0373
   38DPPC   C2B  454  16.289  19.424  18.241 -0.0643  0.1066  0.2650
   38DPPC   C3B  455  16.090  19.417  17.825 -0.1734 -0.0594  0.1663
   38DPPC   C4B  456  16.096  19.432  17.276  0.0306  0.1642  0.1844
   39DPPC   NC3  457   0.481  31.094  15.321  0.2418 -0.0925 -0.2277
   39DPPC   PO4  458   0.742  30.974  15.521  0.0044  0.1567 -0.2752
   39DPPC   GL1  459   0.876  31.342  15.277  0.0341  0.1940  0.1718
   39DPPC   GL2  460   0.564  31.396  14.927  0.0649  0.1582 -0.1060
   39DPPC   C1A  461   1.150  31.387  14.926 -0.0488  0.1999  0.2413
   39DPPC   C2A  462   1.453  31.407  14.512  0.1050  0.2386 -0.1203
   39DPPC   C3A  463   1.583  31.484  14.039 -0.0218  0.0874 -0.1811
   39DPPC   C4A  464   1.970  31.770  13.921  0.1644 -0.1379  0.2432
   39DPPC   C1B  465   0.722  31.667  14.624  0.3088  0.1161 -0.1655
   39DPPC   C2B  466   0.888  31.694  14.289 -0.1066  0.3514 -0.1059
   39DPPC   C3B  467   1.023  31.959  13.971 -0.0258 -0.0503  0.0414
   39DPPC   C4B  468   1.059  32.262  13.604  0.5620 -0.0332 -0.3059
   40DPPC   NC3  469  12.215   0.396  19.728 -0.2187 -0.1069 -0.3400
   40DPPC   PO4  470  12.231   0.809  19.645 -0.2594  0.0740  0.0880
   40DPPC   GL1  471  11.991   0.638  19.306 -0.0108 -0.1650  0.1241
   40DPPC   GL2  472  12.063   0.315  19.246  0.3027  0.1289  0.0088
   40DPPC   C1A  473  11.847   0.652  18.918  0.1876  0.0489  0.0034
   40DPPC   C2A  474  11.784   0.556  18.486  0.0357  0.1183 -0.1607
   40DPPC   C3A  475  11.636   0.252  18.204  0.0598  0.1646 -0.1662
   40DPPC   C4A  476  11.793   0.027  17.818 -0.1870 -0.0798 -0.2993
   40DPPC   C1B  477  12.278   0.349  18.831 -0.1344 -0.2765 -0.0391
   40DPPC   C2B  478  12.111   0.136  18.461 -0.1583 -0.0039 -0.2561
   40DPPC   C3B  479  12.119  35.247  18.151 -0.0284 -0.3031  0.0931
   40DPPC   C4B  480  12.439  34.886  17.985 -0.0268  0.0305  0.0188
   41DPPC   NC3  481  19.539  27.860  17.724  0.0221  0.2725  0.3282
   41DPPC   PO4  482  19.374  28.262  17.580  0.0960  0.1145 -0.2470
   41DPPC   GL1  483  18.952  28.184  17.611  0.0351 -0.0165 -0.2479
   41DPPC   GL2  484  18.757  28.282  17.889 -0.1902  0.1195  0.3404
   41DPPC   C1A  485  18.701  27.758  17.502  0.0928  0.2043 -0.1115
   41DPPC   C2A  486  18.276  27.541  17.371  0.1533  0.0558  0.1972
   41DPPC   C3A  487  18.083  27.232  17.114  0.1179  0.2649  0.0124
   41DPPC   C4A  488  17.711  26.891  17.219 -0.2246 -0.2313  0.0253
   41DPPC   C1B  489  18.243  28.356  18.034  0.2699 -0.1850 -0.1857
   41DPPC   C2B  490  17.813  28.344  18.375  0.0283  0.1814 -0.0482
   41DPPC   C3B  491  17.372  28.553  18.295  0.1471  0.1009 -0.0957
   41DPPC   C4B  492  16.981  28.332  18.288  0.0125 -0.2307 -0.0327
   42DPPC   NC3  493  17.601  31.520  17.141 -0.0738 -0.1750  0.1414
   42DPPC   PO4  494  17.529  31.832  17.591 -0.1459  0.2057 -0.2563
   42DPPC   GL1  495  17.172  32.060  17.622 -0.2096 -0.1549 -0.0305
   42DPPC   GL2  496  16.988  31.921  17.805  0.1402  0.0253  0.1171
   42DPPC   C1A  497  16.792  31.976  17.317 -0.0438  0.1084  0.0930
   42DPPC   C2A  498  16.433  31.872  17.113  0.0189  0.0022  0.1658
   42DPPC   C3A  499  15.975  31.778  16.959  0.0645  0.1039 -0.2185
   42DPPC   C4A  500  15.626  31.739  17.011 -0.0010 -0.0959 -0.0421
   42DPPC   C1B  501  16.621  31.956  17.781 -0.1173 -0.1323 -0.0643
   42DPPC   C2B  502  16.228  31.801  17.981  0.3732  0.1039 -0.1394
   42DPPC   C3B  503  15.880  32.122  17.971  0.2157 -0.0718  0.5156
   42DPPC   C4B  504  15.483  32.107  17.991  0.1477  0.0907 -0.1428
   43DPPC   NC3  505  24.766  32.987  10.603 -0.2740 -0.0065  0.0796
   43DPPC   PO4  506  24.787  32.568  10.389  0.0975  0.0465  0.0352
   43DPPC   GL1  507  24.484  32.794  10.119  0.1456 -0.1397  0.0321
   43DPPC   GL2  508  24.492  33.106  10.242 -0.2844 -0.3145 -0.2763
   43DPPC   C1A  509  24.480  32.860   9.605  0.4051  0.1169  0.1097
   43DPPC   C2A  510  24.578  32.884   9.098 -0.0447 -0.0213  0.0078
   43DPPC   C3A  511  24.584  32.770   8.658  0.2328  0.2062  0.2828
   43DPPC   C4A  512  24.745  33.061   8.370 -0.4530 -0.2101 -0.1417
   43DPPC   C1B  513  24.123  33.325  10.026  0.0939  0.1913  0.0708
   43DPPC   C2B  514  23.919  33.477   9.782  0.0167 -0.0718  0.1141
   43DPPC   C3B  515  23.782  33.499   9.363 -0.2272 -0.2414  0.1893
   43DPPC   C4B  516  23.636  33.422   9.010  0.0303 -0.2673 -0.1176
   44DPPC   NC3  517  20.214  13.615  16.636 -0.1377  0.1591 -0.1995
   44DPPC   PO4  518  19.929  13.895  16.359 -0.0569 -0.1713  0.2638
   44DPPC   GL1  519  19.820  13.983  15.951  0.0619  0.0272 -0.1527
   44DPPC   GL2  520  19.510  13.853  15.880  0.1607  0.1983 -0.1060
   44DPPC   C1A  521  19.432  14.257  15.716 -0.3066 -0.0795  0.0998
   44DPPC   C2A  522  19.108  14.496  15.444 -0.2334  0.0094 -0.0239
   44DPPC   C3A  523  18.885  14.735  15.070  0.0595  0.2124  0.1292
   44DPPC   C4A  524  18.418  14.962  14.995 -0.0411 -0.1469 -0.1143
   44DPPC   C1B  525  19.226  13.765  15.668 -0.0104 -0.0164  0.2874
   44DPPC   C2B  526  18.924  13.701  15.318 -0.0467 -0.2748 -0.1636
   44DPPC   C3B  527  18.653  13.750  15.046  0.3468  0.2948 -0.4866
   44DPPC   C4B  528  18.374  13.875  14.802  0.3113  0.0283  0.1238
   45DPPC   NC3  529  18.624   5.798  16.625 -0.1564 -0.1934  0.0102
   45DPPC   PO4  530  18.402   5.983  16.930  0.0022  0.3276  0.0841
   45DPPC   GL1  531  18.355   6.171  16.534  0.1559 -0.1785 -0.2563
   45DPPC   GL2  532  17.963   6.229  16.523  0.0889 -0.0310 -0.0935
   45DPPC   C1A  533  18.309   6.284  16.083 -0.1607  0.0964 -0.1363
   45DPPC   C2A  534  18.179   6.543  15.692 -0.2328  0.3024 -0.2537
   45DPPC   C3A  535  18.358   6.855  15.533  0.2297 -0.2013  0.1421
   45DPPC   C4A  536  18.725   6.974  15.521 -0.0239 -0.0383 -0.0010
   45DPPC   C1B  537  17.826   6.466  16.104 -0.0743  0.1598  0.0201
   45DPPC   C2B  538  17.672   6.508  15.712 -0.1127  0.2713 -0.1867
   45DPPC   C3B  539  17.835   6.632  15.329  0.0816  0.1152 -0.2727
   45DPPC   C4B  540  18.221   6.363  15.242 -0.3192 -0.0671 -0.0710
   46DPPC   NC3  541  10.478  25.295  21.671  0.2892 -0.2951 -0.4032
   46DPPC   PO4  542  10.268  24.927  21.724  0.1408 -0.0709  0.0643
   46DPPC   GL1  543  10.332  25.105  21.260 -0.3277  0.0441 -0.1873
   46DPPC   GL2  544  10.566  24.923  21.134 -0.2153  0.3035 -0.1277
   46DPPC   C1A  545  10.462  25.374  20.927  0.1970  0.0488  0.0195
   46DPPC   C2A  546  10.527  25.411  20.507 -0.0996 -0.0260  0.2249
   46DPPC   C3A  547  10.344  25.365  20.062  0.0090 -0.3489  0.0345
   46DPPC   C4A  548  10.317  25.256  19.613 -0.1427  0.3027  0.0265
   46DPPC   C1B  549  10.746  25.023  20.763  0.2632  0.1624  0.0726
   46DPPC   C2B  550  10.993  25.203  20.626  0.1218 -0.0855  0.1398
   46DPPC   C3B  551  11.185  25.483  20.312  0.0079 -0.5562  0.2000
   46DPPC   C4B  552  11.360  25.229  19.993  0.1970 -0.3682 -0.1889
   47DPPC   NC3  553   0.744  15.266   9.789 -0.2220 -0.0409  0.3768
   47DPPC   PO4  554   1.251  15.238  10.012  0.2911  0.0506  0.0496
   47DPPC   GL1  555   1.699  15.160   9.989  0.3334 -0.1377 -0.1361
   47DPPC   GL2  556   1.851  14.842  10.071 -0.1787 -0.0790  0.2588
   47DPPC   C1A  557   2.050  15.231   9.852  0.0128 -0.2938 -0.1081
   47DPPC   C2A  558   2.372  15.109   9.739  0.1800  0.0850 -0.0447
   47DPPC   C3A  559   2.687  15.080   9.569  0.0456  0.1720 -0.2566
   47DPPC   C4A  560   2.879  15.033   9.085 -0.0377  0.1477 -0.1628
   47DPPC   C1B  561   2.229  14.907  10.182 -0.0804 -0.1249 -0.3423
   47DPPC   C2B  562   2.695  14.828  10.053 -0.0243  0.1175 -0.1747
   47DPPC   C3B  563   3.021  14.761   9.823  0.1498  0.1357 -0.2889
   47DPPC   C4B  564   3.243  14.974   9.498  0.1007  0.0375 -0.0255
   48DPPC   NC3  565   9.858  24.091  22.016  0.1100  0.2448  0.3647
   48DPPC   PO4  566  10.253  24.002  21.884  0.0374 -0.1391 -0.3243
   48DPPC   GL1  567  10.209  23.981  21.396 -0.2451 -0.0323 -0.1506
   48DPPC   GL2  568  10.000  24.155  21.259  0.0927  0.0277  0.0739
   48DPPC   C1A  569  10.318  23.939  20.955 -0.0633  0.0160 -0.0336
   48DPPC   C2A  570  10.450  23.904  20.582 -0.0318 -0.1552 -0.4956
   48DPPC   C3A  571  10.280  23.920  20.187  0.4070  0.2348  0.0048
   48DPPC   C4A  572  10.392  24.141  19.859 -0.1084  0.1035 -0.1991
   48DPPC   C1B  573  10.053  24.311  20.869  0.2538 -0.1571 -0.1799
   48DPPC   C2B  574  10.178  24.377  20.503  0.0130  0.1127 -0.5300
   48DPPC   C3B  575  10.006  24.417  20.094  0.0818  0.0693  0.2216
   48DPPC   C4B  576   9.789  24.494  19.808  0.1616 -0.0621  0.0793
   49POPC   NC3  577  14.786  30.345  20.689  0.2255 -0.0522  0.0320
   49POPC   PO4  578  14.916  30.561  20.313 -0.1305 -0.0344  0.2393
   49POPC   GL1  579  14.959  30.515  19.901  0.2878 -0.2313 -0.2806
   49POPC   GL2  580  14.629  30.588  19.829  0.0097 -0.0624 -0.2634
   49POPC   C1A  581  14.904  30.514  19.394  0.4474  0.0165 -0.1725
   49POPC   D2A  582  14.806  30.197  19.079 -0.0138 -0.1458 -0.0512
   49POPC   C3A  583  14.699  30.250  18.663  0.0315  0.4441 -0.3068
   49POPC   C4A  584  14.821  30.224  18.190 -0.0909 -0.1400 -0.2545
   49POPC   C1B  585  14.441  30.481  19.442 -0.1705  0.1514 -0.0236
   49POPC   C2B  586  14.341  30.387  19.055 -0.1728  0.3325 -0.3191
   49POPC   C3B  587  14.083  30.413  18.715 -0.2033 -0.2577 -0.1289
   49POPC   C4B  588  13.951  30.046  18.417 -0.3864 -0.1177 -0.4210
   50POPC   NC3  589   7.013  17.704  18.306 -0.0237 -0.0094  0.3162
   50POPC   PO4  590   6.962  17.810  17.899 -0.0959  0.0171 -0.0350
   50POPC   GL1  591   6.856  18.236  17.720 -0.0084  0.3503  0.0538
   50POPC   GL2  592   6.579  18.319  17.608  0.1120  0.2635  0.0852
   50POPC   C1A  593   7.317  18.464  17.707 -0.1761 -0.0040  0.1518
   50POPC   D2A  594   7.680  18.303  17.443 -0.2030 -0.0588 -0.2619
   50POPC   C3A  595   8.064  18.620  17.288  0.1368  0.1826  0.1869
   50POPC   C4A  596   8.357  18.874  17.321  0.0085 -0.0932  0.2368
   50POPC   C1B  597   6.813  18.504  17.236 -0.2300 -0.0309  0.1652
   50POPC   C2B  598   6.667  18.770  16.892 -0.3319  0.1449  0.3111
   50POPC   C3B  599   6.244  18.863  16.800  0.0568 -0.0395  0.1603
   50POPC   C4B  600   6.081  18.489  16.660  0.1751  0.0002  0.1136
   51POPC   NC3  601   2.461  18.967  10.184  0.4752  0.2180 -0.1667
   51POPC   PO4  602   2.784  19.206  10.364 -0.0215 -0.2407 -0.0207
   51POPC   GL1  603   3.137  19.194  10.053 -0.1981  0.2613  0.3487
   51POPC   GL2  604   2.975  18.957   9.901  0.0741 -0.4114 -0.0405
   51POPC   C1A  605   3.547  19.028   9.858 -0.0779  0.1270  0.2149
   51POPC   D2A  606   3.945  18.987   9.797  0.0862 -0.1837  0.2959
   51POPC   C3A  607   4.252  19.199   9.454  0.1004  0.1876 -0.4615
   51POPC   C4A  608   4.624  19.073   9.247  0.3737  0.2690  0.0159
   51POPC   C1B  609   3.148  19.204   9.572 -0.3806 -0.0867  0.0747
   51POPC   C2B  610   3.518  19.038   9.305 -0.3547  0.0037  0.2190
   51POPC   C3B  611   3.850  19.260   9.128 -0.0754  0.0313  0.0622
   51POPC   C4B  612   4.063  19.718   8.910 -0.0151 -0.0614  0.0005
   52POPC   NC3  613  33.848  27.255  11.789  0.2654 -0.0378 -0.1549
   52POPC   PO4  614  34.186  27.153  11.437  0.0999 -0.0959  0.1161
   52POPC   GL1  615  34.598  27.203  11.317 -0.2213 -0.1536 -0.3405
   52POPC   GL2  616  34.552  27.021  10.999 -0.0947 -0.0508 -0.0040
   52POPC   C1A  617  34.878  27.379  11.040  0.2621 -0.1158 -0.1096
   52POPC   D2A  618  35.216  27.606  10.878 -0.2459 -0.0996  0.1718
   52POPC   C3A  619   0.213  27.587  10.916 -0.0077 -0.0475  0.1507
   52POPC   C4A  620   0.718  27.432  10.937  0.1106  0.0396 -0.0616
   52POPC   C1B  621  34.737  27.032  10.691  0.4532 -0.1394 -0.0836
   52POPC   C2B  622  35.076  27.130  10.557  0.1928  0.0092  0.1766
   52POPC   C3B  623   0.025  27.399  10.378 -0.4040 -0.0114 -0.1201
   52POPC   C4B  624   0.517  27.481  10.460 -0.0015  0.4180  0.1916
   53POPC   NC3  625   2.461   5.832  14.805 -0.4029  0.0956  0.0252
   53POPC   PO4  626   2.850   6.000  14.750 -0.0376 -0.1013  0.3617
   53POPC   GL1  627   3.093   5.792  14.473 -0.0523 -0.1160 -0.1579
   53POPC   GL2  628   3.149   5.441  14.394 -0.0401  0.1385 -0.0623
   53POPC   C1A  629   3.520   5.624  14.198  0.0138  0.0010  0.1256
   53POPC   D2A  630   3.905   5.753  14.129 -0.5032  0.2413  0.0980
   53POPC   C3A  631   4.306   5.490  13.886  0.2736 -0.1965 -0.4440
   53POPC   C4A  632   4.537   5.537  13.576 -0.1693  0.0177 -0.0587
   53POPC   C1B  633   3.508   5.384  14.584 -0.0577 -0.0742  0.2468
   53POPC   C2B  634   3.917   5.435  14.526 -0.1808  0.1835  0.1931
   53POPC   C3B  635   4.235   5.232  14.272 -0.1272  0.0629  0.0570
   53POPC   C4B  636   4.551   4.992  13.843 -0.2582  0.2513 -0.1620
   54POPC   NC3  637  15.824  15.111  18.317  0.0881 -0.1724  0.0170
   54POPC   PO4  638  16.292  15.242  18.204 -0.2033  0.0934 -0.0796
   54POPC   GL1  639  15.965  15.201  17.814  0.0844  0.0108  0.0348
   54POPC   GL2  640  15.751  15.465  17.931 -0.2433 -0.0562  0.0944
   54POPC   C1A  641  15.776  15.149  17.354  0.0366 -0.2238 -0.1877
   54POPC   D2A  642  15.636  14.992  17.022  0.0358  0.0684 -0.0336
   54POPC   C3A  643  15.516  15.291  16.716 -0.0227 -0.0913  0.0210
   54POPC   C4A  644  15.332  15.298  16.302  0.4653 -0.2448 -0.2568
   54POPC   C1B  645  15.549  15.642  17.612  0.0928 -0.1664 -0.2903
   54POPC   C2B  646  15.333  15.823  17.187 -0.0126 -0.2734 -0.0110
   54POPC   C3B  647  15.217  16.022  16.896 -0.0044  0.0958  0.0912
   54POPC   C4B  648  14.849  16.307  17.041  0.2177 -0.0141  0.3218
   55POPC   NC3  649   9.013  12.438  18.580  0.2399 -0.0800 -0.2794
   55POPC   PO4  650   8.902  12.243  18.298 -0.1907 -0.1738 -0.3328
   55POPC   GL1  651   9.035  12.165  17.853  0.1705 -0.2810  0.0007
   55POPC   GL2  652   8.764  12.061  17.835  0.4757  0.0285 -0.0325
   55POPC   C1A  653   8.808  12.308  17.411  0.1449 -0.1377  0.0216
   55POPC   D2A  654   8.724  12.315  17.065  0.3298 -0.2940 -0.0876
   55POPC   C3A  655   8.876  12.606  16.807  0.1868 -0.2008  0.0814
   55POPC   C4A  656   9.144  12.589  16.427  0.2674  0.2177  0.2648
   55POPC   C1B  657   9.050  11.845  17.498 -0.2181 -0.0293  0.1843
   55POPC   C2B  658   9.196  11.559  17.333 -0.4292 -0.0561  0.2674
   55POPC   C3B  659   9.291  11.443  16.957 -0.2012 -0.0683  0.1089
   55POPC   C4B  660   9.338  11.532  16.620 -0.1106  0.0618  0.1716
   56POPC   NC3  661   2.890   0.317  16.825 -0.0002 -0.0252  0.2061
   56POPC   PO4  662   2.928  35.331  16.964  0.1832 -0.1640  0.1189
   56POPC   GL1  663   3.080  35.062  16.755 -0.3347  0.1222  0.0417
   56POPC   GL2  664   3.374  35.019  16.911 -0.0600 -0.3202 -0.2636
   56POPC   C1A  665   2.948  34.870  16.318 -0.1262 -0.0515  0.2181
   56POPC   D2A  666   2.750  34.907  15.962 -0.1222  0.3695 -0.0589
   56POPC   C3A  667   3.140  34.845  15.688  0.2650 -0.2534 -0.1250
   56POPC   C4A  668   3.683  34.893  15.713  0.1257 -0.4168  0.0953
   56POPC   C1B  669   3.643  35.266  16.677 -0.0900  0.0838  0.2084
   56POPC   C2B  670   3.894  35.212  16.250  0.1750  0.0254 -0.2350
   56POPC   C3B  671   4.186  35.219  15.855  0.2118  0.0784  0.1940
   56POPC   C4B  672   4.517  35.261  15.684 -0.0727 -0.1127  0.0998
   57POPC   NC3  673  33.683  21.391   5.991  0.1724  0.1760 -0.0982
   57POPC   PO4  674  33.736  21.626   6.357 -0.0647  0.1882 -0.0396
   57POPC   GL1  675  34.136  21.735   6.252  0.0670  0.1774 -0.0072
   57POPC   GL2  676  34.152  21.604   5.987 -0.0067  0.0286 -0.0272
   57POPC   C1A  677  34.525  21.668   6.353  0.1131  0.0931  0.1072
   57POPC   D2A  678  34.926  21.853   6.316 -0.3331  0.0276 -0.1111
   57POPC   C3A  679  35.079  21.913   5.959  0.0324 -0.0979  0.1652
   57POPC   C4A  680  35.329  22.102   5.604  0.0801 -0.1232 -0.1591
   57POPC   C1B  681  34.587  21.839   5.894 -0.1012 -0.0484 -0.1077
   57POPC   C2B  682  34.680  22.037   5.655 -0.0578 -0.1307  0.0834
   57POPC   C3B  683  34.881  22.019   5.326  0.2464 -0.1987  0.1934
   57POPC   C4B  684  35.272  22.132   5.118  0.2735  0.1406 -0.0940
   58POPC   NC3  685  25.291  33.516  10.634  0.2851  0.0031 -0.4231
   58POPC   PO4  686  25.198  33.183  10.549 -0.0799 -0.1846  0.1031
   58POPC   GL1  687  25.412  33.210  10.101 -0.1094 -0.1739 -0.1939
   58POPC   GL2  688  25.678  32.925  10.157  0.2262 -0.2468  0.1970
   58POPC   C1A  689  25.413  33.479   9.679 -0.1763 -0.0337  0.2325
   58POPC   D2A  690  25.319  33.660   9.153  0.0531  0.1565 -0.0043
   58POPC   C3A  691  25.020  33.863   9.020 -0.1659 -0.0397 -0.0046
   58POPC   C4A  692  24.698  34.219   9.134  0.0628 -0.1444 -0.1136
   58POPC   C1B  693  25.484  33.031   9.636 -0.0048 -0.2169 -0.2256
   58POPC   C2B  694  25.358  33.181   9.255 -0.0345 -0.3331  0.1279
   58POPC   C3B  695  25.368  33.298   8.835 -0.1082  0.3787 -0.0149
   58POPC   C4B  696  25.318  33.202   8.410 -0.0709 -0.2401  0.0035
   59POPC   NC3  697   7.284  13.851  17.312  0.3729 -0.2228 -0.2362
   59POPC   PO4  698   7.246  14.282  17.375 -0.2910 -0.1868 -0.0335
   59POPC   GL1  699   7.634  14.283  17.280  0.2062 -0.1919  0.0567
   59POPC   GL2  700   7.614  14.551  17.136 -0.0717  0.0228  0.0483
   59POPC   C1A  701   8.066  14.087  17.159 -0.2975 -0.0504 -0.4953
   59POPC   D2A  702   8.147  13.613  16.952  0.0150  0.4841  0.4166
   59POPC   C3A  703   8.287  13.566  16.563 -0.1773 -0.0692 -0.3081
   59POPC   C4A  704   8.528  13.460  16.192 -0.0844  0.3093 -0.1528
   59POPC   C1B  705   7.907  14.433  16.827  0.1758 -0.1195 -0.0045
   59POPC   C2B  706   8.122  14.463  16.411  0.0545 -0.3613 -0.0093
   59POPC   C3B  707   8.450  14.390  16.133 -0.1126 -0.0200  0.1358
   59POPC   C4B  708   8.648  14.712  15.878 -0.0089 -0.2438 -0.1680
   60POPC   NC3  709   4.327  11.545  14.640  0.1785  0.2217 -0.1100
   60POPC   PO4  710   4.169  11.955  14.559 -0.0982  0.2375  0.2482
   60POPC   GL1  711   4.451  11.885  14.210 -0.0714  0.3236  0.3955
   60POPC   GL2  712   4.626  12.155  14.338  0.1718 -0.3105  0.0528
   60POPC   C1A  713   4.596  11.734  13.826 -0.2166  0.2344 -0.0151
   60POPC   D2A  714   4.905  11.497  13.792 -0.1034  0.1071 -0.1073
   60POPC   C3A  715   5.177  11.467  13.414  0.1672  0.0118 -0.2749
   60POPC   C4A  716   5.410  11.814  13.281  0.1618  0.2183  0.1684
   60POPC   C1B  717   4.934  12.089  13.968  0.3063  0.2015  0.0153
   60POPC   C2B  718   5.167  12.102  13.566 -0.2676  0.0225  0.3837
   60POPC   C3B  719   5.329  12.381  13.333  0.0415  0.0502 -0.0749
   60POPC   C4B  720   5.326  12.282  12.933  0.0218  0.1740  0.5464
   61POPC   NC3  721  20.286  14.274  16.057 -0.1633 -0.2848 -0.0894
   61POPC   PO4  722  20.297  14.724  16.106  0.1457 -0.4785 -0.1854
   61POPC   GL1  723  19.853  14.691  16.201 -0.1860  0.0596  0.0891
   61POPC   GL2  724  19.574  14.470  16.132  0.1559 -0.0347 -0.4116
   61POPC   C1A  725  19.549  15.005  16.315  0.1595 -0.0927 -0.2815
   61POPC   D2A  726  19.124  14.956  16.333  0.0072  0.0573 -0.1201
   61POPC   C3A  727  19.183  15.362  16.170  0.2840  0.1857  0.2325
   61POPC   C4A  728  19.376  15.683  15.816  0.3070  0.1046 -0.1778
   61POPC   C1B  729  19.285  14.749  15.917  0.0113  0.2609  0.1113
   61POPC   C2B  730  18.854  14.774  15.776  0.0094 -0.2751 -0.0985
   61POPC   C3B  731  18.601  14.683  15.521 -0.2191 -0.3472  0.2933
   61POPC   C4B  732  18.195  14.650  15.388 -0.2179  0.0033 -0.2390
   62POPC   NC3  733  27.446  32.322  10.180 -0.1745  0.0649 -0.2519
   62POPC   PO4  734  27.155  32.130  10.002 -0.4770  0.2528 -0.0116
   62POPC   GL1  735  27.353  32.250   9.678  0.0484 -0.0046 -0.1014
   62POPC   GL2  736  27.681  32.216   9.718 -0.0460  0.0521 -0.1663
   62POPC   C1A  737  27.232  32.310   9.250  0.0771 -0.0855  0.1218
   62POPC   D2A  738  27.184  32.288   8.776 -0.4054 -0.0982 -0.1028
   62POPC   C3A  739  27.543  32.206   8.417  0.0055 -0.2206 -0.1932
   62POPC   C4A  740  27.569  32.296   8.099  0.1734 -0.1179  0.1123
   62POPC   C1B  741  27.786  32.149   9.335  0.0587 -0.0866 -0.1193
   62POPC   C2B  742  28.019  32.086   8.900  0.3255 -0.2819 -0.2101
   62POPC   C3B  743  28.037  32.110   8.503  0.0818 -0.3096 -0.0957
   62POPC   C4B  744  28.156  32.369   8.209  0.0583 -0.0641  0.0156
   63POPC   NC3  745   3.819   8.891  15.743 -0.0030 -0.1801 -0.0528
   63POPC   PO4  746   4.123   8.737  16.083  0.0309 -0.0665 -0.2262
   63POPC   GL1  747   4.401   8.743  15.766 -0.1748  0.0256 -0.1293
   63POPC   GL2  748   4.658   8.660  15.835  0.1651  0.0664  0.1208
   63POPC   C1A  749   4.514   8.465  15.410  0.2091 -0.1903  0.1265
   63POPC   D2A  750   4.618   8.184  15.139  0.1220 -0.1791 -0.0415
   63POPC   C3A  751   4.710   8.457  14.795 -0.3925  0.0575  0.1483
   63POPC   C4A  752   4.917   8.330  14.477  0.2284  0.3604  0.3174
   63POPC   C1B  753   4.962   8.565  15.531  0.2498  0.0741  0.1485
   63POPC   C2B  754   5.026   8.459  15.152 -0.1010 -0.3109  0.2589
   63POPC   C3B  755   4.952   7.952  14.872 -0.4117 -0.0034  0.1796
   63POPC   C4B  756   4.717   7.576  14.741 -0.2827  0.0566 -0.3008
   64POPC   NC3  757  15.474  35.360  18.776  0.5257  0.3714  0.3163
   64POPC   PO4  758  15.002  35.267  18.732  0.2409 -0.1946 -0.0361
   64POPC   GL1  759  14.692  35.065  18.394 -0.0577  0.1519  0.1862
   64POPC   GL2  760  14.852  35.066  18.064  0.3404 -0.0197 -0.6142
   64POPC   C1A  761  14.398  35.240  18.162  0.1693 -0.1707  0.3435
   64POPC   D2A  762  14.075  35.372  17.835 -0.1513  0.2827  0.0865
   64POPC   C3A  763  13.934  35.013  17.633  0.2558 -0.0247 -0.2281
   64POPC   C4A  764  13.769  34.724  17.344 -0.0276 -0.1990  0.0504
   64POPC   C1B  765  14.547  34.911  17.813  0.2741 -0.0757  0.1685
   64POPC   C2B  766  14.318  34.708  17.476  0.1265 -0.0414  0.2012
   64POPC   C3B  767  14.103  34.399  17.353 -0.0929 -0.1273 -0.0913
   64POPC   C4B  768  14.182  33.904  17.183 -0.1449  0.0982  0.0766
   65POPC   NC3  769  25.507  27.623   9.226 -0.4343 -0.2997 -0.2678
   65POPC   PO4  770  25.828  27.486   8.860  0.2072 -0.0048 -0.1018
   65POPC   GL1  771  25.548  27.604   8.673 -0.0866  0.1539  0.0387
   65POPC   GL2  772  25.538  27.911   8.809 -0.1480 -0.3367  0.0584
   65POPC   C1A  773  25.598  27.818   8.286  0.0602  0.1569 -0.2010
   65POPC   D2A  774  25.700  27.798   7.944  0.2057 -0.3486 -0.0738
   65POPC   C3A  775  25.337  27.890   7.681 -0.0039 -0.2812 -0.0954
   65POPC   C4A  776  25.001  28.010   7.402  0.2274  0.2302  0.0713
   65POPC   C1B  777  25.376  28.245   8.534 -0.2665 -0.0913 -0.1863
   65POPC   C2B  778  25.254  28.268   8.069  0.0521 -0.2737  0.1879
   65POPC   C3B  779  24.924  28.274   7.777 -0.1665  0.1016 -0.0242
   65POPC   C4B  780  24.425  28.336   7.718  0.0321  0.2433  0.3984
   66POPC   NC3  781   0.226  34.705  15.843  0.2389 -0.2504  0.5471
   66POPC   PO4  782   0.461  34.753  15.426  0.1870  0.0754 -0.1648
   66POPC   GL1  783   0.874  34.826  15.099  0.0765 -0.2694  0.0374
   66POPC   GL2  784   1.182  34.832  15.212 -0.1337  0.1118 -0.0112
   66POPC   C1A  785   1.017  34.728  14.712  0.2503 -0.1527  0.1104
   66POPC   D2A  786   1.094  34.863  14.270 -0.0514 -0.1662 -0.1091
   66POPC   C3A  787   1.127  34.630  14.085 -0.0798 -0.0994 -0.0674
   66POPC   C4A  788   1.426  34.499  13.792  0.2052 -0.0757  0.0500
   66POPC   C1B  789   1.656  34.846  15.090  0.0853 -0.2699 -0.4167
   66POPC   C2B  790   1.932  34.637  14.894 -0.1039  0.1193  0.0207
   66POPC   C3B  791   2.091  34.733  14.520  0.2855 -0.0626  0.0090
   66POPC   C4B  792   2.226  34.863  14.159 -0.1234  0.0870  0.3501
   67POPC   NC3  793   5.028   0.142  19.468  0.1345 -0.1858  0.1547
   67POPC   PO4  794   5.344  35.333  19.201 -0.2123 -0.0850  0.0419
   67POPC   GL1  795   5.468  35.336  18.756 -0.0525 -0.3687 -0.2264
   67POPC   GL2  796   5.624  35.226  18.629  0.1851 -0.0520  0.1125
   67POPC   C1A  797   5.567   0.215  18.314 -0.4162  0.2471  0.2094
   67POPC   D2A  798   5.575   0.228  17.904 -0.1172  0.1987  0.3313
   67POPC   C3A  799   5.470   0.077  17.464 -0.1953  0.2267 -0.1208
   67POPC   C4A  800   5.463  35.141  17.281 -0.0076 -0.3148  0.1955
   67POPC   C1B  801   5.839  34.898  18.386 -0.1388  0.0174 -0.0630
   67POPC   C2B  802   6.066  34.680  18.114 -0.0545 -0.2310 -0.1735
   67POPC   C3B  803   6.505  34.593  18.005 -0.0036  0.1155  0.1354
   67POPC   C4B  804   6.740  34.717  17.520 -0.0246 -0.0584 -0.0943
   68POPC   NC3  805  14.218  10.314  19.054  0.0205 -0.3244  0.0640
   68POPC   PO4  806  13.936  10.061  19.036 -0.2394  0.0931 -0.0357
   68POPC   GL1  807  13.720  10.128  18.571 -0.3483  0.2606  0.3634
   68POPC   GL2  808  13.759  10.317  18.356 -0.1441  0.1732  0.0783
   68POPC   C1A  809  13.274  10.254  18.324  0.0343 -0.1626 -0.3228
   68POPC   D2A  810  13.048  10.533  18.046  0.1406 -0.1961  0.0006
   68POPC   C3A  811  13.100  10.637  17.585 -0.2658  0.0095 -0.0444
   68POPC   C4A  812  13.286  10.708  17.203 -0.0168  0.0487  0.0551
   68POPC   C1B  813  13.464  10.336  17.856  0.0861  0.0064 -0.0107
   68POPC   C2B  814  13.327  10.230  17.391 -0.1596  0.0131 -0.2959
   68POPC   C3B  815  13.095  10.294  16.991  0.1046 -0.0294  0.0387
   68POPC   C4B  816  12.688  10.450  17.113 -0.2167 -0.0485  0.1897
   69POPC   NC3  817  31.817  10.181   6.931  0.4417  0.0646 -0.0739
   69POPC   PO4  818  32.105  10.356   6.814  0.2246  0.1497 -0.0738
   69POPC   GL1  819  32.200  10.258   6.256  0.2625  0.0438  0.2577
   69POPC   GL2  820  32.326  10.393   5.912 -0.0735 -0.0998 -0.2275
   69POPC   C1A  821  32.413   9.876   5.919 -0.0188 -0.1793  0.0873
   69POPC   D2A  822  32.610   9.521   5.722  0.1192 -0.0212 -0.0565
   69POPC   C3A  823  32.804   9.495   5.333  0.1062  0.1724 -0.0978
   69POPC   C4A  824  32.786   9.714   4.866  0.0718  0.0143  0.1531
   69POPC   C1B  825  32.592  10.244   5.562 -0.1773 -0.0117 -0.0363
   69POPC   C2B  826  32.858  10.115   5.330 -0.2979  0.0316 -0.1039
   69POPC   C3B  827  33.201   9.828   5.261 -0.2061  0.1970  0.5549
   69POPC   C4B  828  33.542   9.580   5.394  0.2097 -0.2483  0.1781
   70POPC   NC3  829  25.761  11.173   8.425  0.0392 -0.0883  0.0593
   70POPC   PO4  830  25.677  10.727   8.432 -0.1503  0.1595  0.2697
   70POPC   GL1  831  25.384  10.379   8.374  0.1940 -0.0862 -0.0257
   70POPC   GL2  832  25.629  10.144   8.530 -0.1314  0.1280  0.1830
   70POPC   C1A  833  25.151  10.114   8.045 -0.3871 -0.1428  0.5467
   70POPC   D2A  834  24.781   9.945   7.880  0.3021  0.0153  0.1247
   70POPC   C3A  835  24.424   9.723   7.957 -0.2104  0.0132  0.0919
   70POPC   C4A  836  24.049   9.528   7.824 -0.2298  0.1332  0.2567
   70POPC   C1B  837  25.317   9.841   8.401 -0.3980  0.3312 -0.2023
   70POPC   C2B  838  24.977   9.607   8.218 -0.2381 -0.1252 -0.0316
   70POPC   C3B  839  24.584   9.314   8.172  0.0940  0.0770  0.1063
   70POPC   C4B  840  24.197   9.170   8.106 -0.0517  0.2259  0.0456
   71POPC   NC3  841  14.660  11.682  19.074  0.0142  0.1302  0.4440
   71POPC   PO4  842  15.168  11.593  19.167  0.0002  0.2333  0.0776
   71POPC   GL1  843  15.214  11.552  18.776 -0.4076  0.0760 -0.1398
   71POPC   GL2  844  15.458  11.428  18.696 -0.0050  0.1540  0.0125
   71POPC   C1A  845  14.926  11.536  18.485 -0.1140  0.0743  0.0189
   71POPC   D2A  846  14.592  11.727  18.190 -0.0326 -0.1347  0.1262
   71POPC   C3A  847  14.367  11.744  17.747 -0.1728 -0.0757 -0.2554
   71POPC   C4A  848  14.388  11.724  17.340 -0.0398  0.2196  0.0856
   71POPC   C1B  849  15.387  11.636  18.330 -0.0900 -0.1837  0.1135
   71POPC   C2B  850  15.134  11.845  17.956 -0.0236  0.0650  0.0124
   71POPC   C3B  851  14.732  12.089  17.847 -0.3114  0.2100  0.0911
   71POPC   C4B  852  14.596  12.171  17.454  0.0890 -0.0154  0.0468
   72POPC   NC3  853  17.377  28.102  20.551 -0.1022 -0.0640  0.1081
   72POPC   PO4  854  17.436  27.738  20.373  0.2749  0.0734 -0.1262
   72POPC   GL1  855  17.097  27.668  20.016 -0.1926 -0.0124  0.1204
   72POPC   GL2  856  16.831  27.622  19.972  0.1388  0.0562  0.3087
   72POPC   C1A  857  17.092  27.923  19.602 -0.0947 -0.1880  0.1154
   72POPC   D2A  858  17.180  28.001  19.213 -0.3110  0.0139 -0.0205
   72POPC   C3A  859  16.952  28.191  19.159 -0.0269  0.1017  0.1702
   72POPC   C4A  860  16.979  28.478  18.833 -0.1285 -0.2558  0.0577
   72POPC   C1B  861  16.706  27.540  19.601  0.3268 -0.0003 -0.2508
   72POPC   C2B  862  16.451  27.519  19.231 -0.0782 -0.2270  0.3223
   72POPC   C3B  863  16.173  27.308  19.027 -0.0522  0.1897  0.4607
   72POPC   C4B  864  15.889  27.068  19.021  0.3493 -0.3234  0.0765
   73POPC   NC3  865  10.933  28.026  21.777 -0.2032  0.0816 -0.1016
   73POPC   PO4  866  10.746  27.713  21.512  0.4823 -0.0685 -0.0076
   73POPC   GL1  867  11.005  27.863  21.337 -0.3340 -0.0955  0.2182
   73POPC   GL2  868  10.799  28.007  21.047  0.0485  0.0918  0.1899
   73POPC   C1A  869  11.366  27.993  21.149 -0.2289 -0.1654  0.0599
   73POPC   D2A  870  11.693  27.910  20.792 -0.1848  0.0781 -0.1236
   73POPC   C3A  871  12.044  28.013  20.656  0.0529  0.1470  0.0398
   73POPC   C4A  872  12.237  27.976  20.226  0.2410 -0.1940 -0.1329
   73POPC   C1B  873  10.966  27.684  20.854  0.1373 -0.1682  0.0062
   73POPC   C2B  874  11.290  27.729  20.589  0.0252  0.0804  0.0014
   73POPC   C3B  875  11.659  27.724  20.374  0.0910 -0.1584  0.1136
   73POPC   C4B  876  11.776  27.784  20.007 -0.3661 -0.2867  0.0326
   74POPC   NC3  877   5.563  21.233  19.611 -0.3194 -0.2136  0.0260
   74POPC   PO4  878   6.075  21.343  19.520 -0.1989 -0.1981  0.1602
   74POPC   GL1  879   6.468  21.392  19.303 -0.2023 -0.0680 -0.0428
   74POPC   GL2  880   6.760  21.484  19.479 -0.0037  0.1143 -0.2011
   74POPC   C1A  881   6.697  21.274  18.939 -0.0206 -0.0662 -0.0668
   74POPC   D2A  882   6.594  21.299  18.610  0.0451  0.2302  0.0680
   74POPC   C3A  883   6.868  21.424  18.138  0.0078 -0.1270 -0.2941
   74POPC   C4A  884   6.634  21.362  17.697 -0.0754  0.0146 -0.1809
   74POPC   C1B  885   6.872  21.757  19.269 -0.1026  0.1315 -0.0031
   74POPC   C2B  886   7.158  21.693  18.964  0.0965 -0.1500 -0.1798
   74POPC   C3B  887   7.076  21.484  18.647 -0.1296  0.4701  0.0613
   74POPC   C4B  888   7.053  21.079  18.600 -0.0626 -0.2621  0.2872
   75POPC   NC3  889  17.827  11.271  18.040  0.2600 -0.1644 -0.0679
   75POPC   PO4  890  17.987  10.838  17.969 -0.0561 -0.0612 -0.1373
   75POPC   GL1  891  17.693  10.725  17.822  0.1377 -0.0612  0.2814
   75POPC   GL2  892  17.588  10.951  17.699  0.1672  0.1233 -0.2095
   75POPC   C1A  893  17.588  10.399  17.582  0.0433 -0.0378 -0.1851
   75POPC   D2A  894  17.248  10.337  17.378  0.0990  0.0451 -0.0959
   75POPC   C3A  895  16.939  10.462  17.488 -0.0535 -0.1979  0.0069
   75POPC   C4A  896  16.581  10.513  17.243  0.0154  0.1990  0.1321
   75POPC   C1B  897  17.187  10.849  17.381 -0.3652 -0.0112  0.2041
   75POPC   C2B  898  16.950  10.703  16.994  0.0762  0.1924  0.0012
   75POPC   C3B  899  16.858  10.857  16.620 -0.0769  0.2018 -0.0198
   75POPC   C4B  900  16.498  10.673  16.243 -0.3616 -0.2681  0.0643
   76POPC   NC3  901  32.478   9.024   9.141 -0.3228  0.1407 -0.1655
   76POPC   PO4  902  32.410   9.090   8.784  0.0256 -0.2120 -0.0437
   76POPC   GL1  903  32.419   8.679   8.731  0.2403  0.3227  0.2156
   76POPC   GL2  904  32.556   8.519   8.958 -0.1419  0.1706 -0.1064
   76POPC   C1A  905  32.324   8.471   8.404  0.1763  0.0159  0.1025
   76POPC   D2A  906  32.604   8.126   8.308 -0.2347 -0.0650  0.2520
   76POPC   C3A  907  32.563   8.026   7.868 -0.2122  0.0950  0.0871
   76POPC   C4A  908  32.874   7.962   7.572  0.1676 -0.1329  0.0007
   76POPC   C1B  909  32.874   8.482   8.568 -0.2615  0.2386 -0.0010
   76POPC   C2B  910  33.089   8.344   8.297  0.1749 -0.2102 -0.0008
   76POPC   C3B  911  33.007   8.027   8.048  0.1963 -0.1677  0.3167
   76POPC   C4B  912  33.253   7.618   7.932  0.0738 -0.0585  0.1305
   77POPC   NC3  913  18.737  24.790  19.715  0.1308 -0.1598  0.1848
   77POPC   PO4  914  18.339  24.695  19.777 -0.0392  0.0737  0.1036
   77POPC   GL1  915  18.007  24.517  19.643 -0.0579  0.0499 -0.1076
   77POPC   GL2  916  17.638  24.621  19.802 -0.1176 -0.1268  0.0892
   77POPC   C1A  917  17.713  24.438  19.277 -0.2383 -0.1587 -0.0273
   77POPC   D2A  918  17.737  24.093  18.984 -0.3057 -0.2558 -0.0161
   77POPC   C3A  919  17.268  23.970  18.867  0.2224 -0.1955  0.1508
   77POPC   C4A  920  17.075  23.791  18.480 -0.1346 -0.0625 -0.6019
   77POPC   C1B  921  17.215  24.549  19.357 -0.1873 -0.0372  0.0543
   77POPC   C2B  922  17.150  24.474  18.922 -0.0197 -0.3309  0.0444
   77POPC   C3B  923  16.918  24.313  18.596  0.0585 -0.1252  0.4225
   77POPC   C4B  924  16.889  24.515  18.233 -0.3025 -0.1002  0.2178
   78POPC   NC3  925  24.688  14.322   8.531 -0.0944  0.0530 -0.1026
   78POPC   PO4  926  24.381  14.055   8.514  0.2699  0.0875 -0.0322
   78POPC   GL1  927  23.938  14.023   8.410 -0.0542  0.0267 -0.1548
   78POPC   GL2  928  23.799  14.321   8.549 -0.0973 -0.1821 -0.1191
   78POPC   C1A  929  23.595  13.950   8.165 -0.0251  0.0639  0.1584
   78POPC   D2A  930  23.409  14.061   7.805  0.3403  0.3969 -0.1730
   78POPC   C3A  931  23.230  13.848   7.419  0.0896 -0.0663  0.0045
   78POPC   C4A  932  23.048  13.903   6.919  0.3773 -0.1210  0.1379
   78POPC   C1B  933  23.368  14.352   8.302  0.0652  0.3338  0.1467
   78POPC   C2B  934  23.040  14.054   8.181 -0.1381 -0.4425  0.2007
   78POPC   C3B  935  22.893  13.718   7.887  0.1276 -0.0806 -0.1261
   78POPC   C4B  936  22.749  13.826   7.411 -0.0749  0.0104 -0.0098
   79POPC   NC3  937  24.417  14.688  10.465 -0.3031  0.0420 -0.3276
   79POPC   PO4  938  24.178  14.802  10.851 -0.1176 -0.1828 -0.1782
   79POPC   GL1  939  23.834  14.475  11.027 -0.1299 -0.1150 -0.0414
   79POPC   GL2  940  23.847  14.275  10.820  0.0624 -0.0287  0.0088
   79POPC   C1A  941  23.754  14.086  11.252  0.0455  0.1440 -0.2827
   79POPC   D2A  942  23.428  13.920  11.357  0.2459 -0.0383  0.2064
   79POPC   C3A  943  23.105  13.750  11.120  0.2842  0.0994 -0.1753
   79POPC   C4A  944  23.036  13.804  10.760  0.1316  0.0238  0.2505
   79POPC   C1B  945  23.525  13.888  10.855 -0.2488 -0.4380  0.2533
   79POPC   C2B  946  23.473  13.660  10.554  0.0901 -0.2180 -0.1402
   79POPC   C3B  947  23.284  13.482  10.301 -0.0826  0.1626  0.0120
   79POPC   C4B  948  23.247  13.259   9.873  0.1160 -0.0192  0.0166
   80DOPC   NC3  949  17.118  33.540  17.293 -0.0036 -0.1032 -0.3273
   80DOPC   PO4  950  16.802  33.733  17.134  0.1856  0.0944 -0.0622
   80DOPC   GL1  951  16.614  33.594  16.738 -0.1249  0.2198  0.0261
   80DOPC   GL2  952  16.450  33.796  16.599 -0.0667  0.5907 -0.0393
   80DOPC   C1A  953  16.512  33.188  16.592  0.0528 -0.3950 -0.2246
   80DOPC   D2A  954  16.212  33.118  16.463  0.1438 -0.0229 -0.2127
   80DOPC   C3A  955  16.184  32.776  16.213 -0.2624  0.2016 -0.1014
   80DOPC   C4A  956  15.926  32.568  15.981  0.0448 -0.2355  0.0455
   80DOPC   C1B  957  16.125  33.612  16.529  0.1337 -0.0234 -0.0223
   80DOPC   D2B  958  15.872  33.445  16.230  0.0302  0.0163 -0.0573
   80DOPC   C3B  959  15.888  33.119  16.073  0.2886 -0.2665  0.3896
   80DOPC   C4B  960  15.783  32.908  15.664  0.1239 -0.0952 -0.0769
   81DOPC   NC3  961   2.533  25.220  17.799 -0.0232  0.1533 -0.1287
   81DOPC   PO4  962   2.586  25.289  17.412  0.1165 -0.2552  0.0513
   81DOPC   GL1  963   2.679  25.704  17.297  0.1756  0.0900 -0.1737
   81DOPC   GL2  964   2.625  25.751  17.008  0.2464  0.0627 -0.2923
   81DOPC   C1A  965   2.964  26.040  17.290 -0.1069  0.0888  0.1565
   81DOPC   D2A  966   3.225  26.166  16.990 -0.0411  0.0356  0.0795
   81DOPC   C3A  967   3.612  26.039  16.794  0.1521  0.1696  0.1378
   81DOPC   C4A  968   4.128  26.290  16.690  0.0729 -0.1430 -0.0352
   81DOPC   C1B  969   2.591  25.543  16.511 -0.1778  0.0886 -0.3045
   81DOPC   D2B  970   2.220  25.624  16.162 -0.0299  0.3021 -0.0359
   81DOPC   C3B  971   2.343  25.836  15.781  0.0146 -0.3019  0.1384
   81DOPC   C4B  972   2.487  26.178  15.582  0.0966  0.1222  0.1693
   82DOPC   NC3  973   3.690   9.581  15.093 -0.0094  0.1209 -0.2271
   82DOPC   PO4  974   4.125   9.655  15.003 -0.2182  0.1350  0.1325
   82DOPC   GL1  975   4.482   9.882  14.691  0.0013 -0.1446  0.0790
   82DOPC   GL2  976   4.500  10.228  14.517  0.0241 -0.2346 -0.2686
   82DOPC   C1A  977   4.795   9.648  14.493 -0.5178 -0.2612  0.3165
   82DOPC   D2A  978   5.134   9.509  14.566 -0.1766  0.1404  0.1594
   82DOPC   C3A  979   5.378   9.504  14.276  0.1676  0.2566  0.2501
   82DOPC   C4A  980   5.799   9.648  14.241 -0.2545  0.0844 -0.1342
   82DOPC   C1B  981   4.843  10.069  14.260 -0.5247  0.0972 -0.0184
   82DOPC   D2B  982   5.200   9.990  14.148 -0.2035  0.1659  0.0067
   82DOPC   C3B  983   5.572  10.114  14.059 -0.1667 -0.1988 -0.0168
   82DOPC   C4B  984   5.908  10.230  13.958  0.3005  0.1559  0.3327
   83DOPC   NC3  985  23.458  31.937  11.774  0.2358  0.3234 -0.2192
   83DOPC   PO4  986  23.274  31.992  11.326 -0.1483 -0.2303 -0.1172
   83DOPC   GL1  987  23.235  32.254  11.102 -0.1325  0.1463 -0.2435
   83DOPC   GL2  988  23.283  32.220  10.824  0.1590  0.0878 -0.0481
   83DOPC   C1A  989  22.842  32.346  10.910  0.1821 -0.2641  0.0728
   83DOPC   D2A  990  22.642  32.294  10.558  0.0157 -0.1635  0.4960
   83DOPC   C3A  991  22.669  32.377  10.197  0.2189 -0.0427 -0.0487
   83DOPC   C4A  992  22.352  32.237   9.971  0.2672 -0.3682  0.2076
   83DOPC   C1B  993  23.126  32.360  10.477 -0.0890  0.1474 -0.0429
   83DOPC   D2B  994  23.163  32.169  10.126 -0.4228 -0.2176 -0.1659
   83DOPC   C3B  995  23.148  32.161   9.755  0.0789 -0.0426  0.2811
   83DOPC   C4B  996  23.208  32.276   9.341  0.1053 -0.4332 -0.2546
   84DOPC   NC3  997  23.299  26.567  11.575  0.0085  0.0011 -0.0256
   84DOPC   PO4  998  23.694  26.238  11.735 -0.1886 -0.4385 -0.0500
   84DOPC   GL1  999  23.325  25.999  11.658 -0.3537 -0.0300 -0.3294
   84DOPC   GL2 1000  23.106  26.152  11.862  0.0178  0.0248 -0.0285
   84DOPC   C1A 1001  22.967  25.722  11.725 -0.4003  0.0668 -0.3690
   84DOPC   D2A 1002  22.917  25.300  11.467 -0.0963  0.1792 -0.1236
   84DOPC   C3A 1003  22.602  25.087  11.315  0.3305  0.2772  0.1388
   84DOPC   C4A 1004  22.328  25.126  10.871  0.1003  0.1362  0.0576
   84DOPC   C1B 1005  22.676  26.106  11.746 -0.0405 -0.0482 -0.2563
   84DOPC   D2B 1006  22.589  25.713  11.442 -0.0427 -0.0061 -0.2312
   84DOPC   C3B 1007  22.307  25.540  11.183  0.0512 -0.0792 -0.0471
   84DOPC   C4B 1008  21.896  25.322  11.254 -0.3092 -0.0926 -0.4372
   85DOPC   NC3 1009   9.846  14.656  18.260 -0.0306 -0.1285 -0.0628
   85DOPC   PO4 1010   9.490  14.629  18.103 -0.4316 -0.0191  0.1705
   85DOPC   GL1 1011   9.243  14.751  17.802  0.2282  0.2628 -0.4337
   85DOPC   GL2 1012   9.052  14.596  17.668  0.0055  0.1049  0.3577
   85DOPC   C1A 1013   9.112  15.025  17.464 -0.1403  0.3603  0.1371
   85DOPC   D2A 1014   8.974  15.167  16.996  0.0774  0.1403  0.1054
   85DOPC   C3A 1015   9.043  15.058  16.566  0.1777  0.0459 -0.0880
   85DOPC   C4A 1016   9.007  14.925  16.182  0.4170  0.0392 -0.1624
   85DOPC   C1B 1017   8.945  14.618  17.281 -0.2445 -0.0719 -0.0295
   85DOPC   D2B 1018   8.781  14.731  16.835  0.0456  0.3468  0.3163
   85DOPC   C3B 1019   8.733  14.574  16.501 -0.2028 -0.2139 -0.0383
   85DOPC   C4B 1020   8.943  14.419  16.121  0.1525 -0.2110  0.0538
   86DOPC   NC3 1021  33.388  25.121   9.540 -0.0009  0.1706  0.0988
   86DOPC   PO4 1022  33.713  25.280   9.777 -0.0996  0.0156  0.1780
   86DOPC   GL1 1023  34.215  25.413   9.570  0.4987  0.2374  0.0606
   86DOPC   GL2 1024  34.551  25.370   9.813  0.2981  0.3822  0.1664
   86DOPC   C1A 1025  34.555  25.718   9.417  0.0099  0.0836  0.0357
   86DOPC   D2A 1026  34.910  25.952   9.348 -0.0994  0.0801  0.1409
   86DOPC   C3A 1027  35.177  25.864   9.018  0.1649  0.3159  0.1754
   86DOPC   C4A 1028   0.188  25.567   8.996  0.3662 -0.0465  0.3601
   86DOPC   C1B 1029  34.888  25.375   9.525  0.0772  0.1170  0.0960
   86DOPC   D2B 1030  35.111  25.366   9.191  0.0499 -0.1755  0.0906
   86DOPC   C3B 1031  35.193  25.416   8.728  0.1487 -0.0612  0.0686
   86DOPC   C4B 1032  34.880  25.368   8.391  0.3504  0.2285 -0.0723
   87DOPC   NC3 1033  16.053   4.959  17.209  0.0492 -0.0218 -0.4939
   87DOPC   PO4 1034  15.820   5.291  17.339  0.2322 -0.0647 -0.0632
   87DOPC   GL1 1035  15.585   4.996  17.116 -0.1267 -0.2249  0.0031
   87DOPC   GL2 1036  15.279   5.150  17.175 -0.0027  0.1830  0.0402
   87DOPC   C1A 1037  15.483   4.699  16.804  0.1433  0.0085 -0.3579
   87DOPC   D2A 1038  15.291   4.576  16.399  0.1046 -0.3016  0.1652
   87DOPC   C3A 1039  15.184   4.754  16.091  0.3557  0.0331 -0.1320
   87DOPC   C4A 1040  15.212   4.726  15.705 -0.2447 -0.0899 -0.0769
   87DOPC   C1B 1041  15.201   5.346  16.801  0.0414 -0.0576 -0.0745
   87DOPC   D2B 1042  15.163   5.677  16.524 -0.0590  0.0010  0.0037
   87DOPC   C3B 1043  14.985   5.846  16.151  0.0396 -0.2558  0.0406
   87DOPC   C4B 1044  14.885   5.779  15.726 -0.2241  0.1169  0.4341
   88DOPC   NC3 1045   2.783  33.155  17.823  0.0195 -0.0222 -0.0760
   88DOPC   PO4 1046   3.026  32.880  17.814  0.3965  0.2554  0.0457
   88DOPC   GL1 1047   3.469  32.886  17.602  0.2350 -0.0342 -0.1730
   88DOPC   GL2 1048   3.756  32.811  17.786  0.4013 -0.1835 -0.4881
   88DOPC   C1A 1049   3.742  32.535  17.339 -0.2018 -0.0227  0.1992
   88DOPC   D2A 1050   4.273  32.380  17.460  0.0151 -0.1069 -0.0946
   88DOPC   C3A 1051   4.431  32.159  17.079 -0.1403  0.1697 -0.2600
   88DOPC   C4A 1052   4.635  31.899  16.823  0.1270  0.1242 -0.1209
   88DOPC   C1B 1053   4.045  32.513  17.939 -0.2501 -0.0911 -0.0651
   88DOPC   D2B 1054   4.301  32.147  17.918  0.1537 -0.1076 -0.0383
   88DOPC   C3B 1055   4.538  31.994  17.563  0.1534 -0.1098  0.2552
   88DOPC   C4B 1056   4.833  32.260  17.311 -0.1740  0.1499  0.5560
   89DOPC   NC3 1057  31.357   2.514  11.353  0.1168  0.1775  0.2571
   89DOPC   PO4 1058  31.776   2.652  11.489 -0.0361 -0.1391  0.0636
   89DOPC   GL1 1059  32.087   2.600  11.247  0.3314 -0.0949 -0.0790
   89DOPC   GL2 1060  32.045   2.710  11.059  0.0969  0.0471 -0.1688
   89DOPC   C1A 1061  32.299   2.270  11.084 -0.1766  0.0460 -0.0653
   89DOPC   D2A 1062  32.362   2.067  10.764  0.0806  0.0327  0.0642
   89DOPC   C3A 1063  32.487   1.946  10.387 -0.1653  0.4112  0.3296
   89DOPC   C4A 1064  32.592   2.200   9.966  0.1331  0.1283 -0.3031
   89DOPC   C1B 1065  32.056   2.606  10.664  0.1634 -0.2753  0.2942
   89DOPC   D2B 1066  32.134   2.267  10.395  0.1365  0.1847 -0.0602
   89DOPC   C3B 1067  32.148   2.426   9.929  0.0091  0.2179  0.1741
   89DOPC   C4B 1068  31.962   2.745   9.615 -0.0587 -0.0343  0.0188
   90DOPC   NC3 1069  29.213   1.769  10.984 -0.4239  0.0748  0.0086
   90DOPC   PO4 1070  29.385   1.737  10.583  0.2869  0.0946  0.0352
   90DOPC   GL1 1071  29.495   2.035  10.195  0.0386 -0.1591 -0.1423
   90DOPC   GL2 1072  29.613   2.375  10.294  0.3254 -0.0928  0.2266
   90DOPC   C1A 1073  29.638   2.052   9.714 -0.1283 -0.0331  0.1465
   90DOPC   D2A 1074  29.701   2.308   9.347  0.3827 -0.0515 -0.0524
   90DOPC   C3A 1075  29.510   2.256   8.948 -0.2055  0.1579 -0.0682
   90DOPC   C4A 1076  29.409   2.553   8.667  0.1184 -0.3095  0.1201
   90DOPC   C1B 1077  29.867   2.511   9.912 -0.3534 -0.1209 -0.1262
   90DOPC   D2B 1078  30.102   2.682   9.512 -0.2816 -0.2667  0.4189
   90DOPC   C3B 1079  29.969   2.628   9.128  0.0095 -0.0829 -0.1596
   90DOPC   C4B 1080  29.948   2.534   8.674 -0.0355 -0.1056  0.1392
   91DOPC   NC3 1081   9.011  27.332  21.152 -0.0253 -0.2713 -0.0238
   91DOPC   PO4 1082   9.270  27.696  21.076  0.3270 -0.0964  0.0704
   91DOPC   GL1 1083   9.645  27.803  20.742 -0.0345 -0.2217  0.2008
   91DOPC   GL2 1084   9.791  27.720  20.978 -0.1143 -0.2737  0.2818
   91DOPC   C1A 1085   9.689  27.661  20.415 -0.2510 -0.0475  0.0104
   91DOPC   D2A 1086   9.748  27.660  20.004  0.1599  0.0795  0.1988
   91DOPC   C3A 1087  10.140  27.681  19.775 -0.0189 -0.0420  0.0833
   91DOPC   C4A 1088  10.431  27.773  19.407 -0.1885  0.1484 -0.1065
   91DOPC   C1B 1089  10.177  27.690  20.732 -0.0307  0.1011 -0.1691
   91DOPC   D2B 1090  10.185  27.492  20.337 -0.1151 -0.0881 -0.1628
   91DOPC   C3B 1091  10.422  27.423  20.078  0.0429  0.2055  0.3189
   91DOPC   C4B 1092  10.808  27.338  19.859  0.2999 -0.1045 -0.0521
   92DOPC   NC3 1093  29.567  26.914   7.811  0.0342  0.0383 -0.1028
   92DOPC   PO4 1094  29.244  26.567   7.711 -0.0896 -0.1076 -0.0994
   92DOPC   GL1 1095  29.456  26.780   7.371  0.0618  0.4752  0.2270
   92DOPC   GL2 1096  29.520  26.712   7.112  0.2119 -0.0038  0.3118
   92DOPC   C1A 1097  29.824  27.127   7.267  0.2631 -0.2955  0.3477
   92DOPC   D2A 1098  30.064  27.360   7.044  0.0021  0.0422  0.0996
   92DOPC   C3A 1099  29.901  27.723   6.785  0.3229 -0.1007  0.1570
   92DOPC   C4A 1100  30.058  28.133   6.668  0.0283 -0.0400  0.0023
   92DOPC   C1B 1101  29.623  27.033   6.771 -0.0533 -0.3024  0.1003
   92DOPC   D2B 1102  29.897  27.294   6.442  0.0304 -0.1571  0.0543
   92DOPC   C3B 1103  29.862  27.610   6.213 -0.0322 -0.2279 -0.3575
   92DOPC   C4B 1104  29.569  27.916   6.261  0.0813 -0.0176 -0.1700
   93DOPC   NC3 1105  22.635  24.733  14.355  0.0889 -0.1049 -0.0202
   93DOPC   PO4 1106  22.459  24.701  13.995 -0.0566  0.0145  0.2062
   93DOPC   GL1 1107  22.042  24.769  13.907  0.0409  0.1309  0.2131
   93DOPC   GL2 1108  21.914  25.023  13.815 -0.1470 -0.3054  0.4561
   93DOPC   C1A 1109  21.799  24.514  13.681  0.1876 -0.0795 -0.1876
   93DOPC   D2A 1110  21.369  24.475  13.583 -0.0175 -0.0154 -0.0865
   93DOPC   C3A 1111  21.253  24.773  13.373 -0.1377 -0.0329 -0.0660
   93DOPC   C4A 1112  20.865  24.949  13.182  0.3226 -0.1381  0.4056
   93DOPC   C1B 1113  21.491  25.171  13.544  0.0305 -0.0933  0.4078
   93DOPC   D2B 1114  21.401  25.568  13.621  0.1393 -0.2671  0.1892
   93DOPC   C3B 1115  21.137  25.713  13.782  0.0262  0.0193  0.2532
   93DOPC   C4B 1116  20.843  25.794  14.108 -0.0975 -0.2521 -0.0038
   94DOPC   NC3 1117   3.823  27.546  18.922  0.1131  0.0079  0.0491
   94DOPC   PO4 1118   3.936  27.868  19.208  0.1273  0.1676  0.0602
   94DOPC   GL1 1119   4.024  28.146  18.780  0.5580  0.2631 -0.0214
   94DOPC   GL2 1120   4.329  28.299  18.982 -0.2534 -0.0524  0.1998
   94DOPC   C1A 1121   4.233  28.491  18.456  0.0842 -0.4771 -0.4012
   94DOPC   D2A 1122   4.615  28.540  18.030  0.1448 -0.0155  0.1737
   94DOPC   C3A 1123   5.007  28.396  18.124  0.2151  0.0242  0.1133
   94DOPC   C4A 1124   5.247  28.481  18.561  0.0917  0.1393 -0.2601
   94DOPC   C1B 1125   4.453  27.978  18.710  0.0695 -0.1666 -0.3352
   94DOPC   D2B 1126   4.654  27.578  18.626 -0.2563  0.1065 -0.0481
   94DOPC   C3B 1127   5.036  27.606  18.356  0.4172  0.3184 -0.0435
   94DOPC   C4B 1128   5.533  27.544  18.312  0.0121  0.0146 -0.1021
   95DOPC   NC3 1129  19.647  27.048  18.515  0.2241  0.2473  0.3430
   95DOPC   PO4 1130  19.511  26.961  18.093 -0.1479  0.1094 -0.1667
   95DOPC   GL1 1131  19.127  27.027  18.016 -0.0662 -0.1414  0.3192
   95DOPC   GL2 1132  19.006  26.856  18.265  0.2320 -0.0378 -0.1327
   95DOPC   C1A 1133  18.758  26.884  17.869  0.0197 -0.1928  0.1385
   95DOPC   D2A 1134  18.569  26.635  17.665 -0.1823 -0.2481 -0.0550
   95DOPC   C3A 1135  18.387  26.348  17.727 -0.2377  0.1382 -0.0569
   95DOPC   C4A 1136  18.205  26.037  17.482  0.1443  0.3720  0.0306
   95DOPC   C1B 1137  18.560  26.532  18.237 -0.1140 -0.0323 -0.2052
   95DOPC   D2B 1138  18.141  26.367  18.229  0.0245  0.1025  0.0558
   95DOPC   C3B 1139  17.961  26.232  17.867 -0.0252 -0.1845 -0.1511
   95DOPC   C4B 1140  17.625  26.088  17.633  0.0614  0.0043  0.0363
   96DOPC   NC3 1141   5.412  22.672  19.385 -0.2138  0.1373  0.1242
   96DOPC   PO4 1142   5.314  22.237  19.180 -0.0594 -0.1015 -0.1154
   96DOPC   GL1 1143   5.687  22.312  19.069  0.0142  0.1894  0.1180
   96DOPC   GL2 1144   5.825  22.467  19.250 -0.2102 -0.0813 -0.0450
   96DOPC   C1A 1145   6.050  22.219  18.736 -0.0546  0.0916  0.3520
   96DOPC   D2A 1146   6.308  22.397  18.430  0.3692  0.1244 -0.2550
   96DOPC   C3A 1147   6.411  22.235  18.155 -0.0419 -0.0097 -0.1680
   96DOPC   C4A 1148   6.407  21.978  17.894 -0.1781 -0.3135 -0.0111
   96DOPC   C1B 1149   6.165  22.658  18.894  0.0757 -0.1264 -0.0555
   96DOPC   D2B 1150   6.104  23.030  18.629 -0.0128  0.1491  0.2054
   96DOPC   C3B 1151   6.272  22.920  18.272  0.2142  0.0257 -0.3730
   96DOPC   C4B 1152   6.576  23.059  18.072  0.0510  0.2265  0.0668
   97DOPC   NC3 1153  23.132  22.947  13.635 -0.1542  0.0717 -0.1853
   97DOPC   PO4 1154  23.029  23.373  13.684 -0.0362  0.0684 -0.1208
   97DOPC   GL1 1155  22.556  23.354  13.691 -0.0010  0.2824 -0.1205
   97DOPC   GL2 1156  22.295  23.059  13.789 -0.2424  0.0432 -0.1993
   97DOPC   C1A 1157  22.185  23.446  13.459 -0.2034  0.3014  0.3809
   97DOPC   D2A 1158  21.695  23.478  13.498  0.0692 -0.0999  0.0234
   97DOPC   C3A 1159  21.715  23.583  13.906 -0.2531  0.0932  0.0451
   97DOPC   C4A 1160  21.789  23.527  14.369  0.0224  0.1340 -0.1019
   97DOPC   C1B 1161  21.917  23.057  13.741 -0.0713 -0.1489 -0.0583
   97DOPC   D2B 1162  21.665  22.809  13.451  0.2817  0.1281 -0.2266
   97DOPC   C3B 1163  21.283  22.829  13.438 -0.1748  0.0207 -0.0524
   97DOPC   C4B 1164  21.045  23.227  13.417 -0.0601 -0.0314 -0.1755
   98DOPC   NC3 1165  19.770  10.401  17.124  0.0381  0.1253 -0.0284
   98DOPC   PO4 1166  19.365  10.099  17.248 -0.1846 -0.1215  0.3802
   98DOPC   GL1 1167  19.130   9.751  17.219  0.1531  0.0291 -0.0777
   98DOPC   GL2 1168  18.832   9.860  17.262  0.0419 -0.0051 -0.0898
   98DOPC   C1A 1169  19.004   9.611  16.838 -0.1242 -0.4284 -0.0635
   98DOPC   D2A 1170  18.663   9.468  16.567 -0.2901  0.1050  0.0015
   98DOPC   C3A 1171  18.489   9.211  16.391 -0.2020  0.1224 -0.0167
   98DOPC   C4A 1172  18.079   9.297  16.127 -0.0188  0.0620  0.1254
   98DOPC   C1B 1173  18.408   9.953  16.931  0.1524  0.4182  0.1396
   98DOPC   D2B 1174  18.058   9.735  16.750 -0.0013  0.0813  0.1474
   98DOPC   C3B 1175  18.040   9.742  16.305 -0.2233 -0.0576  0.0895
   98DOPC   C4B 1176  17.647   9.839  16.049 -0.1473  0.0690  0.2413
   99DOPC   NC3 1177   3.227  18.664  14.020 -0.0003 -0.0412  0.4290
   99DOPC   PO4 1178   3.386  18.194  13.885  0.1256 -0.1755  0.1417
   99DOPC   GL1 1179   3.679  18.014  13.896 -0.0979  0.1728  0.2209
   99DOPC   GL2 1180   3.774  17.844  14.086  0.2962  0.1768  0.1743
   99DOPC   C1A 1181   3.899  17.780  13.555  0.1667 -0.1386 -0.0935
   99DOPC   D2A 1182   3.862  17.487  13.238 -0.0620  0.2781  0.3678
   99DOPC   C3A 1183   4.238  17.390  13.034  0.2257  0.2620 -0.2454
   99DOPC   C4A 1184   4.639  17.562  12.943  0.0729  0.1461  0.1427
   99DOPC   C1B 1185   4.204  17.864  13.954  0.3007  0.1250 -0.2216
   99DOPC   D2B 1186   4.622  17.824  13.703 -0.1572  0.0707 -0.2663
   99DOPC   C3B 1187   5.009  17.960  13.937 -0.2697  0.0279 -0.0063
   99DOPC   C4B 1188   5.303  18.182  13.963 -0.2165  0.3466 -0.2585
  100DOPC   NC3 1189  32.914  13.236   5.563  0.2767 -0.4251 -0.0630
  100DOPC   PO4 1190  33.190  13.404   5.779  0.2173  0.2635 -0.0951
  100DOPC   GL1 1191  33.411  13.053   5.639 -0.2023  0.3475 -0.5454
  100DOPC   GL2 1192  33.292  12.920   5.449  0.2518 -0.0144  0.1586
  100DOPC   C1A 1193  33.755  12.873   5.319  0.0618 -0.1276 -0.1718
  100DOPC   D2A 1194  34.118  12.750   5.011  0.0428 -0.1459  0.3276
  100DOPC   C3A 1195  34.483  12.678   4.779 -0.0687 -0.1713 -0.0347
  100DOPC   C4A 1196  34.528  12.564   4.382 -0.0686  0.2387  0.2228
  100DOPC   C1B 1197  33.296  12.976   5.060 -0.0182  0.0234 -0.0719
  100DOPC   D2B 1198  33.644  12.762   4.819  0.2731  0.1129 -0.2485
  100DOPC   C3B 1199  33.907  12.627   4.439  0.1130 -0.2092 -0.1550
  100DOPC   C4B 1200  34.079  12.629   4.086  0.1423 -0.1353  0.3901
  101DOPC   NC3 1201   5.566  11.121  16.419  0.0037  0.0032  0.1893
  101DOPC   PO4 1202   5.504  11.520  16.153 -0.0829  0.1412  0.0930
  101DOPC   GL1 1203   5.750  11.329  15.844 -0.0338  0.0311  0.1035
  101DOPC   GL2 1204   5.613  11.179  15.636 -0.0909  0.1044  0.1878
  101DOPC   C1A 1205   6.055  11.323  15.507  0.0229  0.2782  0.4562
  101DOPC   D2A 1206   6.374  11.545  15.345 -0.0798 -0.1912  0.0808
  101DOPC   C3A 1207   6.537  11.606  14.964  0.0288 -0.1626  0.0503
  101DOPC   C4A 1208   6.618  11.785  14.612  0.1828  0.1401 -0.2217
  101DOPC   C1B 1209   5.668  11.094  15.280 -0.1504 -0.0283 -0.0249
  101DOPC   D2B 1210   5.715  10.775  14.910 -0.0999  0.0111 -0.1231
  101DOPC   C3B 1211   6.036  10.918  14.676 -0.2883  0.3092  0.0638
  101DOPC   C4B 1212   6.449  10.716  14.551 -0.1966 -0.1626  0.0653
  102DOPC   NC3 1213  28.931  26.249   7.526 -0.1217 -0.1423 -0.1436
  102DOPC   PO4 1214  29.098  25.867   7.318  0.0907  0.0376  0.0236
  102DOPC   GL1 1215  28.754  25.911   7.004  0.1934 -0.0253  0.2971
  102DOPC   GL2 1216  28.655  26.297   7.057  0.1028 -0.0092  0.3005
  102DOPC   C1A 1217  28.612  26.058   6.574 -0.1944 -0.1650  0.1352
  102DOPC   D2A 1218  28.592  26.342   6.111  0.1018 -0.1936  0.4311
  102DOPC   C3A 1219  28.375  26.572   5.891 -0.0693 -0.1978 -0.1356
  102DOPC   C4A 1220  28.134  26.548   5.481 -0.0069 -0.0102 -0.1226
  102DOPC   C1B 1221  28.720  26.552   6.666  0.2424  0.0178 -0.2736
  102DOPC   D2B 1222  28.655  26.790   6.337  0.3295  0.0419 -0.1010
  102DOPC   C3B 1223  28.472  27.041   6.115 -0.0007  0.1693 -0.0411
  102DOPC   C4B 1224  28.371  27.369   5.991  0.2449  0.2877  0.0443
  103DOPC   NC3 1225   6.725  26.229  21.200 -0.4369  0.0628 -0.3244
  103DOPC   PO4 1226   6.525  26.078  20.811 -0.0869  0.0230  0.2650
  103DOPC   GL1 1227   6.753  25.963  20.476 -0.0400 -0.5096  0.0737
  103DOPC   GL2 1228   7.079  26.025  20.509 -0.2270  0.2096  0.1309
  103DOPC   C1A 1229   6.982  25.704  20.054  0.2197  0.0094  0.0425
  103DOPC   D2A 1230   7.304  25.834  19.891 -0.0769  0.0784 -0.1179
  103DOPC   C3A 1231   7.258  26.218  19.715 -0.0554 -0.0256  0.1880
  103DOPC   C4A 1232   7.353  26.445  19.342 -0.1518  0.0374  0.0530
  103DOPC   C1B 1233   7.153  26.460  20.277 -0.0511 -0.1834 -0.2001
  103DOPC   D2B 1234   6.889  26.693  19.956 -0.3368  0.6420 -0.2525
  103DOPC   C3B 1235   6.531  26.836  19.980  0.0253 -0.1480 -0.1700
  103DOPC   C4B 1236   6.193  26.866  20.262 -0.0788  0.0629 -0.0554
  104DOPC   NC3 1237   0.012  17.571   7.043  0.2263  0.3175  0.1369
  104DOPC   PO4 1238  35.274  17.220   6.837  0.0628 -0.0071 -0.0239
  104DOPC   GL1 1239   0.243  17.191   6.644 -0.0466  0.0699 -0.1722
  104DOPC   GL2 1240   0.308  17.006   6.386  0.2655  0.0853 -0.2881
  104DOPC   C1A 1241   0.692  17.221   6.575 -0.5010 -0.1016  0.2693
  104DOPC   D2A 1242   1.022  17.153   6.270  0.0320 -0.4846  0.1269
  104DOPC   C3A 1243   1.164  16.749   6.144 -0.2643 -0.0031  0.0473
  104DOPC   C4A 1244   1.459  16.560   5.750 -0.2319 -0.0537  0.1638
  104DOPC   C1B 1245   0.615  16.915   6.111 -0.0050 -0.0984  0.3158
  104DOPC   D2B 1246   0.911  17.004   5.812  0.0828 -0.0924 -0.1325
  104DOPC   C3B 1247   1.279  17.130   5.794  0.2256  0.3387  0.2537
  104DOPC   C4B 1248   1.692  17.121   5.833  0.1130  0.1370  0.0376
  105DOPC   NC3 1249  31.227   8.426   9.484  0.2778  0.1274  0.3440
  105DOPC   PO4 1250  31.445   7.878   9.462 -0.2599  0.0913 -0.1311
  105DOPC   GL1 1251  31.702   7.529   9.341  0.0429  0.1250  0.1378
  105DOPC   GL2 1252  31.942   7.458   9.233  0.4738 -0.1512 -0.3622
  105DOPC   C1A 1253  31.611   7.062   9.109  0.1187 -0.1372 -0.0839
  105DOPC   D2A 1254  31.607   6.752   8.807 -0.3016  0.1116 -0.0940
  105DOPC   C3A 1255  31.728   6.728   8.319 -0.0806 -0.1776  0.2739
  105DOPC   C4A 1256  31.778   6.593   7.899 -0.0637 -0.0007  0.2229
  105DOPC   C1B 1257  31.888   7.545   8.754  0.2182 -0.0440 -0.2338
  105DOPC   D2B 1258  31.842   7.738   8.351 -0.0579  0.2067  0.1327
  105DOPC   C3B 1259  31.509   7.511   8.238  0.4937  0.0657 -0.0895
  105DOPC   C4B 1260  31.057   7.469   8.357 -0.0775 -0.2372  0.0723
  106DOPC   NC3 1261  26.336  20.946   6.750 -0.2032 -0.0938 -0.1244
  106DOPC   PO4 1262  26.081  20.980   6.318 -0.1471  0.0132  0.0240
  106DOPC   GL1 1263  25.576  20.877   6.201 -0.1398  0.1500  0.0725
  106DOPC   GL2 1264  25.665  20.506   6.310 -0.3376 -0.3797 -0.1925
  106DOPC   C1A 1265  25.218  21.102   6.237 -0.0006 -0.0126  0.0667
  106DOPC   D2A 1266  24.842  21.347   6.179 -0.2030  0.4768 -0.2066
  106DOPC   C3A 1267  24.414  21.407   6.372 -0.0984  0.3578  0.0815
  106DOPC   C4A 1268  24.021  21.260   6.494  0.2253  0.3247 -0.0212
  106DOPC   C1B 1269  25.252  20.563   6.245 -0.0838 -0.1869 -0.1575
  106DOPC   D2B 1270  24.805  20.643   6.276 -0.0465  0.0237  0.0482
  106DOPC   C3B 1271  24.829  20.934   6.523  0.2228  0.0340 -0.2920
  106DOPC   C4B 1272  24.516  21.126   6.772 -0.0380 -0.0590  0.1351
  107DOPC   NC3 1273  28.297   0.915  10.493  0.0245  0.1954  0.0050
  107DOPC   PO4 1274  28.530   1.188  10.229  0.2655 -0.1356  0.1388
  107DOPC   GL1 1275  28.585   1.583   9.997 -0.2515  0.0292 -0.0505
  107DOPC   GL2 1276  28.231   1.762   9.910  0.0450  0.0412 -0.1601
  107DOPC   C1A 1277  28.736   1.789   9.718 -0.2308  0.2124 -0.0956
  107DOPC   D2A 1278  28.721   1.825   9.295 -0.0867  0.2154  0.3277
  107DOPC   C3A 1279  28.866   1.968   8.937 -0.0452  0.4951  0.0510
  107DOPC   C4A 1280  29.033   2.124   8.729  0.4776 -0.1931 -0.2630
  107DOPC   C1B 1281  28.255   1.869   9.495 -0.0792 -0.0033 -0.4219
  107DOPC   D2B 1282  28.066   1.889   9.061  0.0539  0.2287 -0.0809
  107DOPC   C3B 1283  28.148   2.207   8.778 -0.2390  0.2827 -0.4130
  107DOPC   C4B 1284  27.861   2.589   8.639 -0.2673  0.1107 -0.1160
  108DOPC   NC3 1285   9.115   5.140  19.326 -0.1085  0.0104  0.1137
  108DOPC   PO4 1286   9.399   5.268  18.986  0.1453 -0.1898  0.1817
  108DOPC   GL1 1287   9.290   5.447  18.537  0.0776  0.2019  0.3140
  108DOPC   GL2 1288   9.123   5.652  18.413 -0.1339  0.0668 -0.2352
  108DOPC   C1A 1289   9.310   5.321  18.177  0.1672 -0.0178 -0.0030
  108DOPC   D2A 1290   9.247   5.347  17.836  0.0523  0.2793 -0.1716
  108DOPC   C3A 1291   9.141   5.205  17.434  0.0035 -0.1546  0.1149
  108DOPC   C4A 1292   9.248   4.920  16.983  0.0024 -0.0888 -0.2153
  108DOPC   C1B 1293   8.961   5.683  18.051 -0.0765 -0.2845 -0.0675
  108DOPC   D2B 1294   8.931   5.659  17.570  0.1745 -0.0280 -0.0718
  108DOPC   C3B 1295   8.766   5.473  17.225 -0.1194 -0.1037 -0.0013
  108DOPC   C4B 1296   8.795   5.793  16.895 -0.0880  0.1454 -0.2958
  109DOPC   NC3 1297   1.022  34.617  16.150 -0.0164 -0.2308  0.2697
  109DOPC   PO4 1298   1.038  34.707  15.681  0.0206 -0.0524 -0.1960
  109DOPC   GL1 1299   1.404  34.583  15.538  0.2618  0.0527 -0.0582
  109DOPC   GL2 1300   1.848  34.674  15.618 -0.0528  0.2299  0.1620
  109DOPC   C1A 1301   1.460  34.379  15.179 -0.1341 -0.1163 -0.1938
  109DOPC   D2A 1302   1.395  34.390  14.874  0.0981  0.0884  0.0892
  109DOPC   C3A 1303   1.765  34.244  14.631 -0.0581  0.1849 -0.3441
  109DOPC   C4A 1304   2.123  33.882  14.460 -0.3407  0.1079 -0.1686
  109DOPC   C1B 1305   2.006  34.517  15.352 -0.2499  0.1247  0.1317
  109DOPC   D2B 1306   2.341  34.360  14.996  0.0305 -0.0583 -0.0497
  109DOPC   C3B 1307   2.345  34.295  14.621  0.0049 -0.1368 -0.2428
  109DOPC   C4B 1308   2.490  34.407  14.324 -0.1026 -0.0761 -0.3368
  110DOPC   NC3 1309  24.274  25.950  10.992  0.0845  0.0370 -0.0132
  110DOPC   PO4 1310  23.967  26.170  10.988  0.1670 -0.1077  0.0325
  110DOPC   GL1 1311  23.813  25.816  10.695  0.2513 -0.1794  0.1475
  110DOPC   GL2 1312  24.051  25.864  10.508 -0.0697 -0.2495  0.1826
  110DOPC   C1A 1313  23.529  25.617  10.465 -0.1739  0.1022  0.0953
  110DOPC   D2A 1314  23.448  25.541  10.106  0.2504 -0.3507  0.1529
  110DOPC   C3A 1315  23.649  25.137  10.007 -0.0454 -0.1326  0.1429
  110DOPC   C4A 1316  23.974  24.981   9.704  0.0201  0.0320 -0.2844
  110DOPC   C1B 1317  23.853  25.937  10.135 -0.2656  0.2671 -0.1348
  110DOPC   D2B 1318  23.570  25.986   9.761  0.0466  0.2033  0.0961
  110DOPC   C3B 1319  23.160  25.939   9.736 -0.1444  0.1246 -0.0115
  110DOPC   C4B 1320  22.763  25.801   9.715  0.0748 -0.2356  0.2331
  111DOPC   NC3 1321  29.824   6.955   8.848  0.3286  0.1166  0.0772
  111DOPC   PO4 1322  29.512   6.860   8.641 -0.0323  0.2011 -0.1427
  111DOPC   GL1 1323  29.890   6.946   8.331 -0.0919  0.2398 -0.2635
  111DOPC   GL2 1324  30.281   6.969   8.463  0.2314  0.0499 -0.0545
  111DOPC   C1A 1325  30.178   6.696   8.097 -0.2544 -0.3491  0.0227
  111DOPC   D2A 1326  30.349   6.627   7.759  0.1759  0.0400  0.1872
  111DOPC   C3A 1327  30.241   6.328   7.542 -0.0268  0.1330  0.3120
  111DOPC   C4A 1328  30.563   6.068   7.381 -0.2068  0.1526 -0.1013
  111DOPC   C1B 1329  30.696   7.035   8.195 -0.1192 -0.2924  0.2304
  111DOPC   D2B 1330  31.019   6.953   7.918 -0.1374  0.1140  0.1745
  111DOPC   C3B 1331  31.457   7.006   7.918 -0.0523  0.0101  0.1546
  111DOPC   C4B 1332  31.753   7.234   7.805 -0.2500  0.0422 -0.1167
  112DOPC   NC3 1333   3.890   4.065  17.405 -0.2242 -0.1622 -0.3382
  112DOPC   PO4 1334   3.971   4.004  16.986 -0.5531  0.1574 -0.2262
  112DOPC   GL1 1335   4.178   3.973  16.560 -0.1154  0.0775  0.3424
  112DOPC   GL2 1336   4.287   3.745  16.395 -0.0465  0.2163 -0.2373
  112DOPC   C1A 1337   4.550   4.093  16.335 -0.1948 -0.1164  0.3350
  112DOPC   D2A 1338   4.716   4.327  15.921  0.0562 -0.0113  0.4557
  112DOPC   C3A 1339   5.180   4.313  15.819 -0.0096  0.0805  0.0226
  112DOPC   C4A 1340   5.404   4.001  15.719  0.1759 -0.1885  0.0555
  112DOPC   C1B 1341   4.647   3.608  16.207 -0.1328  0.0422  0.0845
  112DOPC   D2B 1342   4.813   3.252  16.075  0.2198 -0.1260  0.2794
  112DOPC   C3B 1343   4.925   3.215  15.603 -0.0944  0.1656 -0.1265
  112DOPC   C4B 1344   4.882   3.346  15.186  0.4020 -0.0629 -0.1677
  113DOPC   NC3 1345   9.219  10.536  18.428  0.3140 -0.1693 -0.1920
  113DOPC   PO4 1346   9.024  10.737  18.103  0.0956  0.2083  0.2858
  113DOPC   GL1 1347   9.175  10.409  17.917 -0.1015  0.1330  0.0774
  113DOPC   GL2 1348   9.068  10.175  17.845  0.0436 -0.2389 -0.0049
  113DOPC   C1A 1349   9.341  10.294  17.467  0.1308 -0.1056 -0.1506
  113DOPC   D2A 1350   9.551  10.330  17.090 -0.1197 -0.3900  0.2676
  113DOPC   C3A 1351   9.598  10.473  16.595  0.0445 -0.0179 -0.1113
  113DOPC   C4A 1352   9.679  10.429  16.195 -0.0942  0.1512 -0.0683
  113DOPC   C1B 1353   8.963  10.003  17.427  0.1432  0.2288 -0.0525
  113DOPC   D2B 1354   9.155  10.045  17.039 -0.2096 -0.0325 -0.0788
  113DOPC   C3B 1355   9.056   9.714  16.775 -0.3316  0.2312 -0.1746
  113DOPC   C4B 1356   8.876   9.378  16.528  0.1011 -0.0373  0.1011
  114DOPC   NC3 1357   1.027  14.857   9.924  0.0193 -0.0120  0.0547
  114DOPC   PO4 1358   0.903  14.668   9.511 -0.0363 -0.0407  0.1581
  114DOPC   GL1 1359   1.187  14.356   9.493  0.2775  0.1926  0.0420
  114DOPC   GL2 1360   1.244  14.081   9.377  0.1429 -0.1243 -0.0092
  114DOPC   C1A 1361   1.688  14.319   9.257 -0.1844 -0.0889 -0.2783
  114DOPC   D2A 1362   2.183  14.218   9.191 -0.4391 -0.0047 -0.0670
  114DOPC   C3A 1363   2.333  14.107   8.728 -0.1669 -0.2142  0.1020
  114DOPC   C4A 1364   2.713  14.251   8.399  0.0390 -0.0003  0.1648
  114DOPC   C1B 1365   1.430  13.844   9.170 -0.2490 -0.0122 -0.1807
  114DOPC   D2B 1366   1.747  13.930   9.006 -0.0593  0.0109  0.1178
  114DOPC   C3B 1367   2.073  13.679   8.899 -0.0590 -0.0327 -0.1052
  114DOPC   C4B 1368   2.416  13.407   8.655  0.2626  0.0867  0.3045
  115DOPC   NC3 1369  30.439  20.773   3.790  0.1055 -0.5244  0.0869
  115DOPC   PO4 1370  30.079  20.837   3.598 -0.2580  0.1070 -0.2074
  115DOPC   GL1 1371  29.921  20.737   3.261 -0.1650  0.4757 -0.1816
  115DOPC   GL2 1372  29.654  20.867   3.301 -0.1325  0.1364 -0.2695
  115DOPC   C1A 1373  29.965  20.960   2.835 -0.3191 -0.0980 -0.1535
  115DOPC   D2A 1374  30.033  21.224   2.582  0.1471  0.1024 -0.0589
  115DOPC   C3A 1375  30.059  21.237   2.214 -0.2382 -0.0962  0.0032
  115DOPC   C4A 1376  29.915  21.547   1.877  0.0822  0.2328 -0.0290
  115DOPC   C1B 1377  29.532  20.946   2.986 -0.0299 -0.1488 -0.1639
  115DOPC   D2B 1378  29.488  20.836   2.534 -0.1778 -0.2514 -0.0827
  115DOPC   C3B 1379  29.728  20.868   2.130 -0.1705  0.0727 -0.1278
  115DOPC   C4B 1380  29.603  20.548   1.782 -0.2058 -0.2374  0.2267
  116DOPC   NC3 1381  28.826  24.167   5.974  0.0169 -0.2734  0.2252
  116DOPC   PO4 1382  28.464  24.068   5.962 -0.1598 -0.1126 -0.0281
  116DOPC   GL1 1383  28.407  24.436   5.770 -0.1566 -0.1042 -0.1229
  116DOPC   GL2 1384  28.613  24.474   5.593 -0.0262  0.1464 -0.0630
  116DOPC   C1A 1385  27.991  24.700   5.677  0.0569 -0.3562 -0.0675
  116DOPC   D2A 1386  27.941  24.945   5.350 -0.1025 -0.2357 -0.1556
  116DOPC   C3A 1387  27.601  25.035   5.049 -0.1014  0.0243 -0.0274
  116DOPC   C4A 1388  27.355  25.230   4.746  0.3792  0.0251  0.0653
  116DOPC   C1B 1389  28.449  24.910   5.433  0.0766 -0.4234  0.0064
  116DOPC   D2B 1390  28.364  25.252   5.180 -0.0715  0.2472 -0.1151
  116DOPC   C3B 1391  28.491  25.322   4.742 -0.0552 -0.2313 -0.0438
  116DOPC   C4B 1392  28.415  25.096   4.393  0.0707  0.2396 -0.2024
  117DOPC   NC3 1393  33.541  33.113  13.021  0.0476  0.1828  0.0644
  117DOPC   PO4 1394  33.616  33.041  12.597 -0.1157 -0.0297 -0.1371
  117DOPC   GL1 1395  33.686  32.859  12.291  0.0744  0.0417  0.2480
  117DOPC   GL2 1396  33.996  32.779  12.345 -0.0298 -0.1157  0.2245
  117DOPC   C1A 1397  33.871  32.892  11.852 -0.1086 -0.4872 -0.0572
  117DOPC   D2A 1398  34.194  33.063  11.559  0.0662  0.3107 -0.0176
  117DOPC   C3A 1399  34.199  33.168  11.164 -0.3702 -0.1925  0.2025
  117DOPC   C4A 1400  34.258  32.936  10.744  0.1689  0.0316 -0.0011
  117DOPC   C1B 1401  34.268  32.491  12.416 -0.0805 -0.0650 -0.0937
  117DOPC   D2B 1402  34.570  32.332  12.204  0.3835  0.1968 -0.0951
  117DOPC   C3B 1403  34.905  32.495  11.988  0.1131 -0.1611  0.0068
  117DOPC   C4B 1404  35.003  32.803  11.636  0.0714  0.0374  0.0684
  118DOPC   NC3 1405  15.106  33.392  20.087  0.1874  0.3781  0.3801
  118DOPC   PO4 1406  15.240  33.148  19.797  0.1018 -0.0666  0.0679
  118DOPC   GL1 1407  15.130  33.380  19.520  0.0429  0.1970  0.3343
  118DOPC   GL2 1408  15.341  33.355  19.286 -0.0122  0.2325  0.0495
  118DOPC   C1A 1409  14.778  33.531  19.302 -0.0035 -0.4097 -0.2974
  118DOPC   D2A 1410  14.435  33.416  19.330 -0.1183  0.0026  0.1591
  118DOPC   C3A 1411  14.292  33.437  19.019 -0.3323  0.0066 -0.1021
  118DOPC   C4A 1412  14.178  33.768  18.707  0.0580  0.0967 -0.0769
  118DOPC   C1B 1413  15.141  33.393  18.940  0.3888 -0.1024 -0.0735
  118DOPC   D2B 1414  15.226  33.313  18.571  0.3067  0.4052 -0.0577
  118DOPC   C3B 1415  15.088  33.037  18.117 -0.1212  0.0586 -0.1816
  118DOPC   C4B 1416  14.863  32.751  17.796  0.0737  0.0098 -0.0890
  119DOPC   NC3 1417  11.464  26.406  22.579 -0.1676  0.0723 -0.0631
  119DOPC   PO4 1418  11.826  26.506  22.181  0.1019  0.1188 -0.3417
  119DOPC   GL1 1419  11.857  26.459  21.773  0.4920 -0.2048 -0.3552
  119DOPC   GL2 1420  11.743  26.190  21.751  0.1665  0.0224 -0.0808
  119DOPC   C1A 1421  12.002  26.365  21.382  0.1706 -0.3461  0.0125
  119DOPC   D2A 1422  12.272  26.334  20.988  0.2674  0.3939 -0.1517
  119DOPC   C3A 1423  12.113  26.330  20.592  0.0535  0.2053  0.2430
  119DOPC   C4A 1424  11.697  26.336  20.389 -0.1609 -0.1339 -0.0994
  119DOPC   C1B 1425  11.729  25.931  21.400 -0.0563  0.0072 -0.0449
  119DOPC   D2B 1426  11.614  25.725  21.147 -0.2468  0.3347  0.4309
  119DOPC   C3B 1427  11.769  25.633  20.786 -0.0278 -0.0527 -0.1624
  119DOPC   C4B 1428  11.969  25.804  20.368 -0.0062 -0.0848 -0.1449
  120DOPC   NC3 1429   9.884  13.427  18.592 -0.0291  0.2101  0.1795
  120DOPC   PO4 1430   9.763  13.344  18.138 -0.1945  0.0981 -0.0262
  120DOPC   GL1 1431   9.774  13.487  17.756 -0.2839 -0.0516 -0.0677
  120DOPC   GL2 1432   9.848  13.785  17.699 -0.1245  0.0663  0.2900
  120DOPC   C1A 1433   9.634  13.380  17.398 -0.1044  0.0613  0.0739
  120DOPC   D2A 1434   9.628  13.195  17.001  0.3323  0.0077  0.0417
  120DOPC   C3A 1435   9.705  13.281  16.592 -0.0550  0.2181 -0.2129
  120DOPC   C4A 1436   9.787  13.358  16.187 -0.1065 -0.1058 -0.1468
  120DOPC   C1B 1437   9.965  13.741  17.229 -0.0427 -0.2974  0.1206
  120DOPC   D2B 1438   9.773  13.680  16.899 -0.0576 -0.0343 -0.0340
  120DOPC   C3B 1439   9.990  13.759  16.454 -0.1433 -0.1111  0.0594
  120DOPC   C4B 1440  10.138  13.705  16.050 -0.1689 -0.3124 -0.3394
  121DOPC   NC3 1441  24.860  18.621   9.046  0.0107 -0.0602 -0.3419
  121DOPC   PO4 1442  24.568  18.975   8.959  0.2127 -0.0690  0.3909
  121DOPC   GL1 1443  24.214  18.945   8.928 -0.0279 -0.1782 -0.1878
  121DOPC   GL2 1444  24.225  18.618   8.872  0.0516 -0.3488  0.3267
  121DOPC   C1A 1445  23.887  19.078   8.672  0.1562  0.1336 -0.0419
  121DOPC   D2A 1446  23.756  19.280   8.305  0.1209  0.1153  0.1287
  121DOPC   C3A 1447  23.337  19.417   8.184  0.1416  0.1150 -0.0236
  121DOPC   C4A 1448  22.953  19.280   8.030 -0.2001  0.2456 -0.0470
  121DOPC   C1B 1449  23.906  18.469   8.595 -0.3044  0.1653  0.1156
  121DOPC   D2B 1450  23.591  18.210   8.217  0.0935  0.1142  0.2071
  121DOPC   C3B 1451  23.156  18.313   8.282 -0.1497 -0.1135 -0.0112
  121DOPC   C4B 1452  22.936  18.743   8.205 -0.2038 -0.1625 -0.0812
  122DOPC   NC3 1453   2.443  18.786  11.135 -0.3884  0.2468 -0.1385
  122DOPC   PO4 1454   2.588  18.613  10.742 -0.0985  0.0852 -0.0568
  122DOPC   GL1 1455   3.042  18.630  10.637  0.2069  0.0889 -0.0109
  122DOPC   GL2 1456   2.938  18.742  10.317  0.0186 -0.0782 -0.1830
  122DOPC   C1A 1457   3.499  18.467  10.579  0.2387  0.1448  0.0440
  122DOPC   D2A 1458   3.856  18.395  10.436  0.0621  0.0191  0.1412
  122DOPC   C3A 1459   4.161  18.191  10.422 -0.0506 -0.0777  0.6397
  122DOPC   C4A 1460   4.506  18.295  10.625 -0.2341 -0.1599  0.1815
  122DOPC   C1B 1461   3.416  18.662  10.166  0.3425 -0.0529  0.2614
  122DOPC   D2B 1462   3.723  18.552   9.746  0.0847 -0.4970 -0.0093
  122DOPC   C3B 1463   4.142  18.441   9.573 -0.0509  0.0300 -0.2180
  122DOPC   C4B 1464   4.459  18.165   9.779  0.0092  0.1174 -0.0904
  123DOPC   NC3 1465  24.341  28.158  10.243 -0.0338 -0.1327  0.1365
  123DOPC   PO4 1466  24.270  28.465   9.860  0.0504  0.1145 -0.0346
  123DOPC   GL1 1467  23.862  28.325   9.591 -0.1849  0.0731  0.1852
  123DOPC   GL2 1468  24.087  28.229   9.287  0.0395 -0.1811  0.2692
  123DOPC   C1A 1469  23.604  28.308   9.344 -0.0919  0.0492 -0.0314
  123DOPC   D2A 1470  23.635  28.327   8.919  0.0239  0.1835  0.2662
  123DOPC   C3A 1471  23.429  28.554   8.479 -0.3479 -0.0420 -0.0133
  123DOPC   C4A 1472  23.053  28.393   8.306 -0.0970  0.2051 -0.3372
  123DOPC   C1B 1473  24.113  28.243   8.877  0.0026 -0.1251 -0.0249
  123DOPC   D2B 1474  23.954  28.301   8.536  0.0087 -0.0212  0.0832
  123DOPC   C3B 1475  23.608  28.105   8.491 -0.1500 -0.0848  0.1618
  123DOPC   C4B 1476  23.251  28.091   8.712  0.0619 -0.0714  0.0765
  124DOPC   NC3 1477  18.548  28.794  18.575 -0.0127  0.2520 -0.2724
  124DOPC   PO4 1478  18.197  28.945  18.762 -0.0148  0.1396  0.2602
  124DOPC   GL1 1479  18.011  28.777  18.351  0.0218  0.0447  0.2080
  124DOPC   GL2 1480  17.998  29.146  18.259 -0.4799  0.0887  0.1749
  124DOPC   C1A 1481  17.771  28.636  18.003 -0.0801  0.0407  0.0299
  124DOPC   D2A 1482  17.650  28.305  17.924  0.5141 -0.1376 -0.2505
  124DOPC   C3A 1483  17.335  28.062  18.063 -0.1023 -0.0044 -0.1947
  124DOPC   C4A 1484  17.226  27.627  18.004 -0.1799 -0.0506 -0.0416
  124DOPC   C1B 1485  17.577  29.039  18.275 -0.0706  0.1667  0.1148
  124DOPC   D2B 1486  17.248  29.053  18.448 -0.2012  0.2599 -0.1426
  124DOPC   C3B 1487  16.966  28.812  18.202 -0.1720  0.0240  0.2281
  124DOPC   C4B 1488  16.754  28.688  17.824  0.1800  0.3632 -0.1127
  125DOPC   NC3 1489   6.195  23.513  20.627  0.3842  0.4152 -0.2826
  125DOPC   PO4 1490   6.421  23.575  20.993 -0.0480  0.2094  0.0843
  125DOPC   GL1 1491   6.775  23.422  20.971 -0.2698  0.1096 -0.1800
  125DOPC   GL2 1492   7.078  23.283  21.132 -0.0892  0.6027 -0.1389
  125DOPC   C1A 1493   7.006  23.374  20.563 -0.0472 -0.0748 -0.0292
  125DOPC   D2A 1494   7.095  23.535  20.236  0.0504 -0.1462 -0.0220
  125DOPC   C3A 1495   7.365  23.662  19.947  0.1692  0.0791 -0.1768
  125DOPC   C4A 1496   7.470  23.713  19.583  0.1662 -0.2067  0.0470
  125DOPC   C1B 1497   7.421  22.987  20.829 -0.0704 -0.1323  0.2476
  125DOPC   D2B 1498   7.532  22.926  20.411 -0.0443  0.2072  0.1543
  125DOPC   C3B 1499   7.721  22.599  20.412 -0.0903 -0.1781  0.1671
  125DOPC   C4B 1500   7.908  22.470  20.062  0.0158 -0.2310  0.1330
  126DOPC   NC3 1501  29.623   3.289  10.605  0.0800  0.0419  0.0223
  126DOPC   PO4 1502  29.217   3.146  10.392  0.4635  0.0412  0.1375
  126DOPC   GL1 1503  29.096   3.471  10.275  0.0524 -0.2674  0.2229
  126DOPC   GL2 1504  28.790   3.303  10.137 -0.0326  0.0448  0.0627
  126DOPC   C1A 1505  29.070   3.629   9.823  0.2458 -0.4229  0.0110
  126DOPC   D2A 1506  29.070   3.456   9.369  0.0192 -0.0586 -0.1276
  126DOPC   C3A 1507  28.876   3.688   9.071  0.2710 -0.0949  0.1032
  126DOPC   C4A 1508  29.187   3.831   8.713 -0.2764  0.0206 -0.2283
  126DOPC   C1B 1509  28.953   3.139   9.707 -0.2376  0.2975  0.2147
  126DOPC   D2B 1510  29.095   2.870   9.414  0.1244  0.0642  0.2996
  126DOPC   C3B 1511  29.145   3.136   9.018 -0.0164 -0.3101  0.1800
  126DOPC   C4B 1512  29.420   3.067   8.659 -0.1910  0.0553  0.2406
  127DOPC   NC3 1513  15.799   1.506  16.718  0.1541  0.0600 -0.0656
  127DOPC   PO4 1514  15.845   2.021  16.714  0.1020  0.0599 -0.1399
  127DOPC   GL1 1515  15.449   1.953  16.503 -0.2101  0.2879  0.2229
  127DOPC   GL2 1516  15.268   2.144  16.567 -0.1417  0.1763  0.0112
  127DOPC   C1A 1517  15.383   1.839  16.174  0.1035  0.0579  0.2379
  127DOPC   D2A 1518  15.201   1.930  15.789  0.0065 -0.0894 -0.0373
  127DOPC   C3A 1519  15.274   2.064  15.381  0.3079  0.0844  0.0379
  127DOPC   C4A 1520  15.301   2.266  14.963  0.0225 -0.1510 -0.2179
  127DOPC   C1B 1521  15.043   2.215  16.168 -0.0338 -0.0681  0.0613
  127DOPC   D2B 1522  14.861   2.203  15.711 -0.0946  0.0528  0.3156
  127DOPC   C3B 1523  14.814   1.874  15.453 -0.0354  0.0001  0.1575
  127DOPC   C4B 1524  14.997   1.774  15.014 -0.1428  0.1239  0.0448
  128DOPC   NC3 1525  27.539  10.280   6.385 -0.1575  0.1511  0.3120
  128DOPC   PO4 1526  27.564   9.934   6.335  0.2766  0.0469 -0.1085
  128DOPC   GL1 1527  27.497   9.742   6.018 -0.2371 -0.2463  0.0949
  128DOPC   GL2 1528  27.714   9.491   5.977  0.0092  0.5488 -0.2006
  128DOPC   C1A 1529  27.269   9.417   5.686 -0.0571 -0.0839 -0.1126
  128DOPC   D2A 1530  27.088   9.214   5.388 -0.0612  0.0647 -0.1092
  128DOPC   C3A 1531  27.310   8.932   5.221 -0.2116  0.0888 -0.1624
  128DOPC   C4A 1532  27.285   8.477   5.168 -0.1941 -0.2847 -0.2755
  128DOPC   C1B 1533  27.729   9.189   5.715  0.0445  0.0963 -0.0447
  128DOPC   D2B 1534  27.680   9.226   5.278 -0.0552  0.3249 -0.0726
  128DOPC   C3B 1535  27.343   9.480   5.117 -0.2825  0.3461 -0.0327
  128DOPC   C4B 1536  26.939   9.591   5.029 -0.0929 -0.0444  0.1112
  129DOPC   NC3 1537  23.860  17.349  11.028 -0.0130 -0.1970  0.3610
  129DOPC   PO4 1538  23.968  17.715  10.704  0.0057 -0.3058 -0.1895
  129DOPC   GL1 1539  23.629  17.808  10.671  0.2513  0.0031  0.1209
  129DOPC   GL2 1540  23.529  18.071  10.501  0.0456  0.0857 -0.1837
  129DOPC   C1A 1541  23.182  17.701  10.626  0.2972 -0.2978 -0.1086
  129DOPC   D2A 1542  22.753  17.392  10.751 -0.0937 -0.1581  0.1676
  129DOPC   C3A 1543  22.707  17.067  10.478  0.2740 -0.0177  0.0995
  129DOPC   C4A 1544  22.392  16.573  10.509 -0.2497 -0.0803 -0.2990
  129DOPC   C1B 1545  23.281  18.077  10.915  0.2466 -0.1160 -0.1953
  129DOPC   D2B 1546  22.984  18.326  11.096 -0.0591 -0.0066  0.2263
  129DOPC   C3B 1547  22.547  18.141  11.174  0.1290  0.1780  0.1965
  129DOPC   C4B 1548  22.071  18.140  11.074 -0.2365 -0.0990 -0.0838
  130DOPC   NC3 1549  25.297   7.666  12.198 -0.1920 -0.0529 -0.1943
  130DOPC   PO4 1550  25.048   7.689  11.820  0.1079 -0.1547  0.0414
  130DOPC   GL1 1551  24.706   7.842  11.670 -0.2380 -0.2716 -0.2882
  130DOPC   GL2 1552  24.630   7.615  11.437  0.0959  0.3367 -0.1842
  130DOPC   C1A 1553  24.229   7.872  11.561 -0.0290  0.2464 -0.3855
  130DOPC   D2A 1554  23.883   7.683  11.427 -0.0632  0.1875 -0.1738
  130DOPC   C3A 1555  23.729   7.639  11.058 -0.0769 -0.3881  0.3085
  130DOPC   C4A 1556  23.789   7.679  10.695 -0.0719  0.0435  0.0005
  130DOPC   C1B 1557  24.279   7.663  11.124  0.0513  0.2100  0.0506
  130DOPC   D2B 1558  24.092   7.321  10.877  0.3842 -0.4938  0.1962
  130DOPC   C3B 1559  23.751   7.233  10.526 -0.1628  0.1401  0.0205
  130DOPC   C4B 1560  23.443   7.121  10.197  0.2064  0.1996 -0.1401
  131DOPC   NC3 1561  17.911   2.585  15.771  0.0333  0.0775 -0.0532
  131DOPC   PO4 1562  18.184   2.949  15.785  0.0682 -0.2007 -0.0462
  131DOPC   GL1 1563  18.372   3.060  15.504 -0.2729  0.0051  0.1557
  131DOPC   GL2 1564  18.211   3.138  15.303 -0.1322  0.2130  0.3902
  131DOPC   C1A 1565  18.659   3.414  15.373 -0.0019 -0.1484 -0.2763
  131DOPC   D2A 1566  18.931   3.681  15.139  0.0375  0.0654  0.1056
  131DOPC   C3A 1567  18.812   3.853  14.799  0.1017 -0.1159 -0.2184
  131DOPC   C4A 1568  18.623   4.157  14.574 -0.1299 -0.0223  0.1293
  131DOPC   C1B 1569  18.095   3.342  14.957  0.0803 -0.2354 -0.0315
  131DOPC   D2B 1570  17.979   3.631  14.924 -0.1146 -0.0275 -0.2293
  131DOPC   C3B 1571  18.149   3.851  14.584 -0.1622  0.0275  0.0422
  131DOPC   C4B 1572  18.324   3.940  14.264 -0.1628  0.1768  0.3746
  132DOPC   NC3 1573  19.163   3.083  16.191  0.2626 -0.0190  0.1930
  132DOPC   PO4 1574  19.218   2.956  15.702  0.1476  0.0937  0.0622
  132DOPC   GL1 1575  19.168   3.219  15.343  0.3553 -0.2144 -0.0374
  132DOPC   GL2 1576  19.402   3.471  15.281  0.0915  0.1280 -0.3942
  132DOPC   C1A 1577  19.136   3.263  14.871 -0.4699  0.1848 -0.1588
  132DOPC   D2A 1578  19.077   3.509  14.583  0.4061  0.0371 -0.1113
  132DOPC   C3A 1579  18.857   3.573  14.296  0.1643 -0.0550 -0.0724
  132DOPC   C4A 1580  18.688   3.771  13.985  0.1205  0.2096 -0.0592
  132DOPC   C1B 1581  19.573   3.589  14.872  0.2397 -0.1703 -0.2714
  132DOPC   D2B 1582  19.920   3.880  14.847  0.2384 -0.1263  0.1280
  132DOPC   C3B 1583  19.773   4.244  14.685 -0.1774 -0.0269  0.1396
  132DOPC   C4B 1584  19.652   4.479  14.312 -0.0029 -0.0674 -0.0153
  133DOPC   NC3 1585  10.248  19.531  21.392 -0.0567  0.0431  0.2012
  133DOPC   PO4 1586  10.131  19.456  20.995  0.0927 -0.1293  0.0262
  133DOPC   GL1 1587  10.270  19.449  20.532  0.1812 -0.1231  0.0678
  133DOPC   GL2 1588   9.994  19.342  20.295  0.6670 -0.0035 -0.1733
  133DOPC   C1A 1589  10.305  19.834  20.159 -0.1822 -0.2447 -0.0224
  133DOPC   D2A 1590  10.354  20.330  20.229 -0.0816 -0.3244  0.0084
  133DOPC   C3A 1591  10.024  20.682  20.053  0.0683  0.3636  0.0590
  133DOPC   C4A 1592   9.708  21.010  19.964  0.0783 -0.0177 -0.0879
  133DOPC   C1B 1593   9.801  19.759  20.348 -0.0106  0.2316 -0.1248
  133DOPC   D2B 1594   9.872  20.185  20.092 -0.2613 -0.0030 -0.0973
  133DOPC   C3B 1595  10.131  20.271  19.762  0.2385  0.1820  0.0411
  133DOPC   C4B 1596  10.233  20.370  19.351 -0.1885  0.3921  0.0738
  134DOPC   NC3 1597   3.282  18.435  13.320 -0.0692 -0.0023  0.3377
  134DOPC   PO4 1598   3.430  18.799  13.554 -0.0806 -0.0888  0.0653
  134DOPC   GL1 1599   3.894  18.957  13.516  0.0957 -0.0776  0.0664
  134DOPC   GL2 1600   3.968  18.991  13.752  0.1195 -0.1783  0.1397
  134DOPC   C1A 1601   4.147  18.877  13.156  0.0005  0.1122  0.0607
  134DOPC   D2A 1602   4.506  18.680  12.931 -0.1666 -0.2002 -0.4174
  134DOPC   C3A 1603   4.831  18.852  12.634  0.2308 -0.0755  0.5519
  134DOPC   C4A 1604   5.225  18.851  12.513  0.4531 -0.0013  0.2565
  134DOPC   C1B 1605   4.358  18.915  13.575 -0.3134  0.2391 -0.3466
  134DOPC   D2B 1606   4.839  18.885  13.374 -0.0672  0.0075  0.1678
  134DOPC   C3B 1607   5.098  19.121  13.542  0.0926 -0.1731 -0.0714
  134DOPC   C4B 1608   5.464  19.200  13.676  0.1833  0.2629 -0.1110
  135DOPC   NC3 1609  33.754  26.891  13.045 -0.0952  0.0965 -0.0461
  135DOPC   PO4 1610  34.184  26.947  13.103  0.0163 -0.0271  0.0886
  135DOPC   GL1 1611  34.561  27.200  13.191  0.0666  0.1107  0.0940
  135DOPC   GL2 1612  34.868  26.998  13.214  0.0163  0.1636  0.3001
  135DOPC   C1A 1613  34.849  27.517  13.184 -0.2628  0.1292  0.2047
  135DOPC   D2A 1614  35.237  27.450  13.346  0.0970  0.2061 -0.0050
  135DOPC   C3A 1615   0.007  27.346  13.617 -0.0096 -0.0372  0.0551
  135DOPC   C4A 1616  35.379  27.106  13.891 -0.1688 -0.1505  0.2511
  135DOPC   C1B 1617  35.137  26.935  13.022  0.0019  0.1099  0.0413
  135DOPC   D2B 1618   0.170  27.100  12.935 -0.0824  0.1605 -0.1834
  135DOPC   C3B 1619   0.290  27.383  13.177 -0.1184 -0.0853 -0.1315
  135DOPC   C4B 1620   0.507  27.435  13.477  0.1757  0.2089  0.1608
  136DOPC   NC3 1621  34.455  24.785  11.106  0.1195  0.4346 -0.2820
  136DOPC   PO4 1622  34.844  24.824  11.376 -0.3059 -0.1846 -0.0412
  136DOPC   GL1 1623  35.074  25.098  11.030 -0.0783  0.1996 -0.2465
  136DOPC   GL2 1624  35.121  25.065  10.755 -0.1019  0.0179 -0.3737
  136DOPC   C1A 1625  35.118  25.392  11.306  0.3117  0.0702 -0.0858
  136DOPC   D2A 1626   0.051  25.708  11.387 -0.2351 -0.1466  0.1892
  136DOPC   C3A 1627   0.039  26.102  11.366 -0.0761  0.2933 -0.0005
  136DOPC   C4A 1628  35.194  26.351  11.180 -0.0302 -0.1267 -0.0389
  136DOPC   C1B 1629  35.332  25.476  10.842  0.0825 -0.1231  0.2038
  136DOPC   D2B 1630   0.403  25.402  10.686  0.2251 -0.1395 -0.0181
  136DOPC   C3B 1631   0.732  25.715  10.801  0.0419  0.0531  0.2916
  136DOPC   C4B 1632   0.699  25.986  11.023 -0.0975 -0.1683 -0.2629
  137DOPC   NC3 1633   9.119  29.830  21.345  0.2730 -0.1108  0.0241
  137DOPC   PO4 1634   9.414  29.662  20.973  0.1706 -0.0252 -0.0314
  137DOPC   GL1 1635   9.747  29.436  20.764  0.3142  0.3956 -0.1560
  137DOPC   GL2 1636   9.764  29.090  20.871  0.1999 -0.1883  0.1952
  137DOPC   C1A 1637   9.909  29.309  20.377  0.3965  0.0119  0.1237
  137DOPC   D2A 1638  10.202  29.139  20.088  0.0162 -0.2349  0.2169
  137DOPC   C3A 1639  10.533  29.150  20.279  0.0614  0.0452 -0.0744
  137DOPC   C4A 1640  10.914  29.199  20.512  0.1023  0.1451  0.0438
  137DOPC   C1B 1641   9.632  28.916  20.447 -0.0197 -0.0978 -0.0520
  137DOPC   D2B 1642   9.741  29.036  20.057  0.1230 -0.1579 -0.0528
  137DOPC   C3B 1643   9.682  29.085  19.628 -0.1200  0.0626 -0.0523
  137DOPC   C4B 1644   9.563  29.015  19.156 -0.0832  0.3152 -0.2004
  138DOPC   NC3 1645  33.445  26.365  10.522  0.2036  0.1434  0.3171
  138DOPC   PO4 1646  33.696  26.438  10.934  0.3864 -0.0593 -0.2456
  138DOPC   GL1 1647  33.887  26.747  10.645 -0.0705 -0.0155  0.0815
  138DOPC   GL2 1648  33.680  26.742  10.402 -0.1413  0.0380  0.0516
  138DOPC   C1A 1649  34.280  26.933  10.394  0.0219 -0.1845  0.0263
  138DOPC   D2A 1650  34.453  27.339  10.308  0.4393 -0.0208 -0.2603
  138DOPC   C3A 1651  34.499  27.598   9.909  0.0157 -0.0440 -0.0935
  138DOPC   C4A 1652  34.380  27.677   9.537  0.1996  0.1734  0.1736
  138DOPC   C1B 1653  33.817  26.975  10.156 -0.0135  0.1002 -0.1221
  138DOPC   D2B 1654  33.713  27.168   9.804  0.3272 -0.0601  0.3270
  138DOPC   C3B 1655  33.963  27.512   9.858 -0.0889 -0.1876 -0.3560
  138DOPC   C4B 1656  34.025  27.942   9.710  0.3150 -0.0458  0.3083
  139DOPC   NC3 1657  25.771  10.583   7.931 -0.0274 -0.2432  0.1339
  139DOPC   PO4 1658  25.768  11.118   7.932 -0.0628  0.1786  0.0593
  139DOPC   GL1 1659  25.429  11.061   7.702 -0.0906  0.1649 -0.1067
  139DOPC   GL2 1660  25.408  10.772   7.413  0.0458 -0.3688  0.2111
  139DOPC   C1A 1661  24.974  11.034   7.496  0.4788  0.0567 -0.0454
  139DOPC   D2A 1662  24.497  10.928   7.352  0.0778  0.0148  0.0140
  139DOPC   C3A 1663  24.447  11.119   6.958 -0.0802 -0.0961 -0.1572
  139DOPC   C4A 1664  24.101  11.280   6.667  0.3650  0.4718  0.2034
  139DOPC   C1B 1665  25.023  10.691   7.193  0.0699  0.1543 -0.0485
  139DOPC   D2B 1666  24.633  10.589   7.026 -0.1453  0.1368 -0.0872
  139DOPC   C3B 1667  24.464  10.132   7.137 -0.3841 -0.0138 -0.1964
  139DOPC   C4B 1668  24.435   9.906   7.509  0.1206  0.0281  0.3773
  140DOPC   NC3 1669   6.159   1.257  19.126  0.2522  0.1212 -0.1072
  140DOPC   PO4 1670   6.291   1.354  18.663  0.3237 -0.1430  0.2551
  140DOPC   GL1 1671   6.290   1.089  18.264 -0.0496 -0.0834 -0.1611
  140DOPC   GL2 1672   6.333   0.775  18.390  0.4225  0.0598 -0.0317
  140DOPC   C1A 1673   6.605   1.092  17.838  0.0397  0.0632 -0.2686
  140DOPC   D2A 1674   6.893   1.119  17.425  0.2170  0.0052  0.2661
  140DOPC   C3A 1675   6.846   0.811  17.164 -0.0627 -0.1139 -0.1237
  140DOPC   C4A 1676   7.153   0.609  17.042 -0.3126 -0.1683 -0.1796
  140DOPC   C1B 1677   6.388   0.669  18.011 -0.2354  0.1852 -0.0448
  140DOPC   D2B 1678   6.612   0.498  17.682  0.2229 -0.1206 -0.0343
  140DOPC   C3B 1679   6.972   0.331  17.448  0.1337 -0.0002 -0.0196
  140DOPC   C4B 1680   7.340   0.192  17.349 -0.2581  0.0439  0.0838
  141DOPC   NC3 1681   0.387  11.493   9.967 -0.0768  0.1168 -0.1506
  141DOPC   PO4 1682   0.223  11.887   9.780  0.2456 -0.1547 -0.1566
  141DOPC   GL1 1683   0.645  11.806   9.645 -0.0529  0.0675 -0.2546
  141DOPC   GL2 1684   0.835  11.933   9.951  0.2082 -0.0579 -0.2846
  141DOPC   C1A 1685   0.974  11.920   9.304 -0.5141  0.0954 -0.0378
  141DOPC   D2A 1686   1.318  11.889   8.944 -0.1293 -0.2641  0.3267
  141DOPC   C3A 1687   1.623  11.605   8.961  0.0485  0.0212  0.0881
  141DOPC   C4A 1688   1.922  11.259   8.951 -0.0988  0.0370 -0.1505
  141DOPC   C1B 1689   1.238  11.832   9.718 -0.0826 -0.1218  0.0265
  141DOPC   D2B 1690   1.410  11.640   9.396 -0.1995 -0.2859  0.1235
  141DOPC   C3B 1691   1.812  11.540   9.435 -0.0022  0.1132  0.1034
  141DOPC   C4B 1692   2.264  11.657   9.360  0.0671 -0.2846 -0.0266
  142DOPC   NC3 1693  12.430  18.528  20.989  0.0837 -0.0110 -0.3530
  142DOPC   PO4 1694  12.323  18.760  20.676  0.2452 -0.0494 -0.2077
  142DOPC   GL1 1695  12.583  18.864  20.292  0.1493 -0.0071  0.0540
  142DOPC   GL2 1696  12.350  18.910  20.095  0.4475 -0.0188  0.0206
  142DOPC   C1A 1697  12.892  19.140  20.056  0.0126 -0.0154 -0.0430
  142DOPC   D2A 1698  13.097  19.469  20.103  0.0921  0.2541  0.1128
  142DOPC   C3A 1699  13.124  19.823  20.371  0.3472  0.1230  0.0103
  142DOPC   C4A 1700  13.470  19.997  20.597  0.1894 -0.2950  0.1727
  142DOPC   C1B 1701  12.494  19.097  19.697  0.0703  0.0300  0.3762
  142DOPC   D2B 1702  12.576  19.322  19.276  0.1540  0.0525 -0.1634
  142DOPC   C3B 1703  12.687  19.783  19.384  0.1309  0.1637 -0.0091
  142DOPC   C4B 1704  12.691  20.224  19.592  0.1323  0.0754  0.1578
  143DOPC   NC3 1705  11.256  18.402  20.361 -0.2455  0.0939  0.2370
  143DOPC   PO4 1706  11.540  18.819  20.353 -0.1509  0.1734 -0.0598
  143DOPC   GL1 1707  11.441  19.128  20.074  0.1386  0.1205 -0.2369
  143DOPC   GL2 1708  11.656  19.350  20.222  0.2997  0.0806 -0.0675
  143DOPC   C1A 1709  11.191  19.279  19.710 -0.2734  0.0928  0.1141
  143DOPC   D2A 1710  11.030  19.622  19.566  0.0539  0.2788 -0.1351
  143DOPC   C3A 1711  10.896  19.601  19.086  0.1246 -0.3475  0.0695
  143DOPC   C4A 1712  10.767  19.418  18.754  0.2330  0.0368 -0.0196
  143DOPC   C1B 1713  11.962  19.525  19.931 -0.2584 -0.0983 -0.0918
  143DOPC   D2B 1714  12.289  19.556  19.660 -0.2702  0.1673  0.2164
  143DOPC   C3B 1715  12.119  19.473  19.310 -0.3611 -0.0300  0.0613
  143DOPC   C4B 1716  11.793  19.617  18.977  0.1423 -0.0076 -0.0095
  144DOPC   NC3 1717   6.709  30.768  20.525  0.0530 -0.0893  0.1250
  144DOPC   PO4 1718   6.919  30.353  20.476 -0.0344 -0.1920 -0.1466
  144DOPC   GL1 1719   7.108  30.283  20.120  0.1105 -0.1332  0.1047
  144DOPC   GL2 1720   7.389  30.444  20.247 -0.0504  0.2863  0.1131
  144DOPC   C1A 1721   7.118  29.908  19.877 -0.0808 -0.2228  0.0652
  144DOPC   D2A 1722   7.152  29.765  19.491 -0.2183  0.3747 -0.0509
  144DOPC   C3A 1723   7.097  29.870  19.140 -0.0041 -0.0013  0.0436
  144DOPC   C4A 1724   7.227  29.957  18.692 -0.2110 -0.0370  0.0398
  144DOPC   C1B 1725   7.461  30.402  19.854  0.0835 -0.2215 -0.1570
  144DOPC   D2B 1726   7.713  30.561  19.597  0.4062  0.0880 -0.0623
  144DOPC   C3B 1727   7.943  30.477  19.339  0.3224 -0.1818 -0.1677
  144DOPC   C4B 1728   8.008  30.602  18.961 -0.0494  0.1602 -0.0762
  145DOPC   NC3 1729  14.597   7.934  18.618  0.3684 -0.2127  0.1137
  145DOPC   PO4 1730  14.567   8.207  18.255  0.2176  0.2595 -0.3105
  145DOPC   GL1 1731  14.575   8.118  17.750 -0.0886  0.1910 -0.2211
  145DOPC   GL2 1732  14.639   8.388  17.501  0.1441  0.3853  0.0254
  145DOPC   C1A 1733  14.427   7.988  17.270 -0.3188 -0.1928 -0.1475
  145DOPC   D2A 1734  14.203   8.096  16.865  0.2705  0.1017 -0.0991
  145DOPC   C3A 1735  13.777   7.927  16.787 -0.3789 -0.5433  0.0900
  145DOPC   C4A 1736  13.359   7.943  16.739 -0.2077  0.0714  0.2927
  145DOPC   C1B 1737  14.478   8.546  17.105 -0.1766 -0.0675 -0.0416
  145DOPC   D2B 1738  14.378   8.489  16.672  0.1031  0.0775 -0.1801
  145DOPC   C3B 1739  14.317   8.792  16.540  0.1710 -0.0148  0.1190
  145DOPC   C4B 1740  13.953   9.075  16.649  0.2024 -0.0203  0.1445
  146DOPC   NC3 1741   0.042   2.935  13.262  0.0483  0.0323  0.1436
  146DOPC   PO4 1742   0.371   2.575  13.384  0.2049 -0.0570  0.0220
  146DOPC   GL1 1743   0.549   2.236  13.179  0.0664  0.2050 -0.1812
  146DOPC   GL2 1744   0.491   1.945  13.154 -0.1849 -0.0749  0.3435
  146DOPC   C1A 1745   0.925   2.138  13.085 -0.1351 -0.1453 -0.0093
  146DOPC   D2A 1746   1.231   1.961  12.905 -0.1266 -0.3896  0.1334
  146DOPC   C3A 1747   1.672   1.803  13.034  0.0873 -0.0395 -0.2619
  146DOPC   C4A 1748   1.961   1.507  12.838  0.1394 -0.1201 -0.1097
  146DOPC   C1B 1749   0.789   1.594  12.980 -0.0635 -0.1978 -0.0335
  146DOPC   D2B 1750   0.954   1.538  12.651  0.1310  0.1679  0.1046
  146DOPC   C3B 1751   1.429   1.575  12.642  0.1410 -0.1669  0.1291
  146DOPC   C4B 1752   1.712   1.589  12.410 -0.0589  0.0684  0.0066
  147DOPC   NC3 1753  32.358   1.200  11.790  0.1859  0.2140  0.0522
  147DOPC   PO4 1754  32.632   1.059  12.045 -0.0174 -0.2902 -0.2764
  147DOPC   GL1 1755  32.903   1.055  11.681 -0.1137  0.2845 -0.0500
  147DOPC   GL2 1756  33.308   0.812  11.716  0.0058 -0.0803  0.1145
  147DOPC   C1A 1757  33.099   0.743  11.320  0.1697 -0.0817  0.5957
  147DOPC   D2A 1758  33.359   0.678  11.059 -0.1001  0.2660 -0.1286
  147DOPC   C3A 1759  33.140   0.489  10.649 -0.1327 -0.1234  0.1735
  147DOPC   C4A 1760  32.942   0.370  10.296  0.1330 -0.0461  0.1561
  147DOPC   C1B 1761  33.682   0.705  11.466  0.1466  0.2594  0.2265
  147DOPC   D2B 1762  33.847   0.865  11.057 -0.0097 -0.0363 -0.1457
  147DOPC   C3B 1763  34.110   0.887  10.862 -0.0735  0.0865  0.0746
  147DOPC   C4B 1764  34.422   0.564  10.890 -0.0108  0.0726  0.0839
  148DOPC   NC3 1765   0.058   7.059  11.589  0.1142 -0.2187  0.0241
  148DOPC   PO4 1766   0.388   6.710  11.620  0.0326 -0.1090  0.2934
  148DOPC   GL1 1767   0.479   6.758  11.192  0.0625 -0.0506  0.0464
  148DOPC   GL2 1768   0.247   6.833  11.073 -0.0163 -0.0930  0.0187
  148DOPC   C1A 1769   0.796   6.662  10.934  0.2371 -0.3565 -0.1059
  148DOPC   D2A 1770   1.158   6.653  10.691 -0.3366 -0.1360  0.1704
  148DOPC   C3A 1771   1.143   6.502  10.284 -0.1746  0.1251  0.1481
  148DOPC   C4A 1772   1.211   6.455   9.878 -0.0403 -0.1440 -0.0083
  148DOPC   C1B 1773   0.344   6.801  10.656  0.0968 -0.0215 -0.0267
  148DOPC   D2B 1774   0.554   6.780  10.250  0.1245 -0.0770  0.0970
  148DOPC   C3B 1775   0.705   6.473   9.988 -0.2667 -0.2948  0.1238
  148DOPC   C4B 1776   0.648   6.030   9.868 -0.0827 -0.2140  0.0853
  149DOPC   NC3 1777   1.312  30.323  17.180 -0.2294  0.2948  0.0476
  149DOPC   PO4 1778   1.546  30.564  16.986 -0.0918  0.1706 -0.2849
  149DOPC   GL1 1779   1.630  30.272  16.725 -0.0571  0.1778  0.1309
  149DOPC   GL2 1780   1.488  30.230  16.347  0.1162  0.0409  0.0046
  149DOPC   C1A 1781   2.045  30.247  16.605  0.0780 -0.0618 -0.0798
  149DOPC   D2A 1782   2.339  30.206  16.242 -0.0181 -0.0813  0.0718
  149DOPC   C3A 1783   2.497  30.565  16.136 -0.0015  0.3216 -0.0915
  149DOPC   C4A 1784   2.743  30.754  15.735  0.3814  0.3843  0.2723
  149DOPC   C1B 1785   1.855  30.198  16.105  0.0802  0.0240  0.2262
  149DOPC   D2B 1786   2.016  30.253  15.683  0.0732  0.0053 -0.4038
  149DOPC   C3B 1787   2.455  30.439  15.519 -0.1742 -0.1748  0.4410
  149DOPC   C4B 1788   2.615  30.772  15.228 -0.0339  0.1825  0.0676
  150DOPC   NC3 1789  16.442  27.851  20.851 -0.3696  0.2239 -0.2845
  150DOPC   PO4 1790  16.223  28.170  20.837  0.1331 -0.0969 -0.0829
  150DOPC   GL1 1791  16.056  27.990  20.389 -0.1152  0.3044 -0.0416
  150DOPC   GL2 1792  16.039  28.283  20.287 -0.1869 -0.0852 -0.2034
  150DOPC   C1A 1793  15.977  27.709  20.102  0.2137  0.3440  0.1630
  150DOPC   D2A 1794  15.762  27.408  19.982 -0.5288 -0.0534 -0.1445
  150DOPC   C3A 1795  15.515  27.170  20.063  0.2809 -0.0041 -0.2861
  150DOPC   C4A 1796  15.089  26.879  19.840  0.2985 -0.0852  0.0139
  150DOPC   C1B 1797  15.729  28.153  20.031  0.1935  0.1937  0.2304
  150DOPC   D2B 1798  15.612  27.796  19.751 -0.0917 -0.2156  0.1791
  150DOPC   C3B 1799  15.174  27.465  19.824 -0.2898  0.2506  0.0435
  150DOPC   C4B 1800  14.814  27.269  19.883  0.2103 -0.2125 -0.0840
  151DOPC   NC3 1801  33.038  31.849  12.138 -0.0400 -0.2489  0.1213
  151DOPC   PO4 1802  33.328  32.091  12.336  0.2190 -0.0235  0.1384
  151DOPC   GL1 1803  33.605  32.131  12.118 -0.0019  0.1114 -0.1972
  151DOPC   GL2 1804  33.827  32.382  12.174  0.1677 -0.1157 -0.1381
  151DOPC   C1A 1805  33.821  31.940  11.777  0.1715  0.0471 -0.1759
  151DOPC   D2A 1806  34.074  32.033  11.325  0.1149  0.1171 -0.1954
  151DOPC   C3A 1807  34.250  31.887  11.018  0.2391 -0.0666  0.3138
  151DOPC   C4A 1808  34.657  31.983  10.700 -0.1418 -0.0491 -0.0081
  151DOPC   C1B 1809  34.140  32.346  11.904 -0.1627 -0.0608 -0.0283
  151DOPC   D2B 1810  34.440  32.170  11.728 -0.1222 -0.0916 -0.0934
  151DOPC   C3B 1811  34.777  32.035  11.787  0.1654 -0.3032  0.0516
  151DOPC   C4B 1812  35.029  31.731  11.820 -0.0611 -0.1178 -0.2143
  152DOPC   NC3 1813  18.063  33.859  16.043  0.0570  0.0862  0.1372
  152DOPC   PO4 1814  17.727  33.716  15.873 -0.3574 -0.0071  0.0137
  152DOPC   GL1 1815  17.272  33.710  15.781 -0.0270  0.1211  0.2484
  152DOPC   GL2 1816  17.294  33.984  15.528 -0.1475 -0.1251 -0.0255
  152DOPC   C1A 1817  16.898  33.465  15.737 -0.2786 -0.0856 -0.3443
  152DOPC   D2A 1818  16.744  33.221  15.583  0.1487  0.0323 -0.1362
  152DOPC   C3A 1819  16.381  33.237  15.347  0.0988 -0.2040  0.0083
  152DOPC   C4A 1820  15.894  33.299  15.343 -0.1401  0.3997 -0.3615
  152DOPC   C1B 1821  17.187  33.634  15.291  0.3108  0.2929 -0.1869
  152DOPC   D2B 1822  16.880  33.332  15.133 -0.3663  0.4216  0.3804
  152DOPC   C3B 1823  16.585  33.538  14.758  0.0401 -0.0937 -0.3497
  152DOPC   C4B 1824  16.235  33.637  14.592  0.0453  0.1374 -0.2683
  153DOPC   NC3 1825   0.787   1.147  14.791  0.3821  0.0481  0.0871
  153DOPC   PO4 1826   1.121   0.782  14.746  0.1304 -0.0271  0.1660
  153DOPC   GL1 1827   1.209   0.573  14.391  0.3790 -0.0499 -0.0276
  153DOPC   GL2 1828   1.003   0.375  14.167 -0.0760 -0.1072  0.1847
  153DOPC   C1A 1829   1.595   0.453  14.169  0.1062  0.1853 -0.0114
  153DOPC   D2A 1830   1.775   0.358  13.774  0.1271  0.2166 -0.1037
  153DOPC   C3A 1831   1.590   0.103  13.634  0.2068  0.0283  0.2065
  153DOPC   C4A 1832   1.347  35.033  13.672  0.2767 -0.1110  0.0398
  153DOPC   C1B 1833   1.207   0.020  13.903 -0.1040  0.1419 -0.2212
  153DOPC   D2B 1834   1.144  35.382  13.413 -0.2302 -0.0625 -0.1707
  153DOPC   C3B 1835   0.928  35.148  13.221 -0.0707  0.1753  0.1174
  153DOPC   C4B 1836   0.484  34.994  13.095  0.0832  0.0990 -0.2734
  154DOPC   NC3 1837   3.315  17.768  14.388  0.0626 -0.1140  0.2339
  154DOPC   PO4 1838   3.306  17.347  14.266 -0.0936  0.2326  0.3312
  154DOPC   GL1 1839   3.825  17.446  14.326  0.4801  0.1947 -0.2363
  154DOPC   GL2 1840   3.739  17.594  14.601 -0.1185 -0.1359  0.0658
  154DOPC   C1A 1841   4.344  17.411  14.184 -0.0435 -0.1437  0.3257
  154DOPC   D2A 1842   4.722  17.570  14.089  0.1542 -0.0660 -0.3121
  154DOPC   C3A 1843   4.908  17.441  13.808 -0.0192  0.1778  0.2716
  154DOPC   C4A 1844   5.243  17.509  13.445 -0.0264  0.0057  0.2693
  154DOPC   C1B 1845   4.133  17.831  14.477  0.0967 -0.0949  0.1046
  154DOPC   D2B 1846   4.568  17.928  14.364 -0.1810  0.1151 -0.0054
  154DOPC   C3B 1847   4.850  18.267  14.300 -0.0104  0.0082 -0.1679
  154DOPC   C4B 1848   5.110  18.548  14.291 -0.2899  0.1367 -0.3463
  155DOPC   NC3 1849  23.866  18.251  12.438  0.0867  0.0294  0.0392
  155DOPC   PO4 1850  23.664  18.140  12.115  0.0406  0.0213  0.1903
  155DOPC   GL1 1851  23.354  18.265  11.843  0.3004  0.0316  0.0852
  155DOPC   GL2 1852  23.176  18.340  11.975  0.0286  0.0480  0.1474
  155DOPC   C1A 1853  23.268  18.788  11.851 -0.4104  0.1950 -0.0202
  155DOPC   D2A 1854  22.917  19.009  11.752  0.1055  0.5010 -0.1209
  155DOPC   C3A 1855  22.452  19.066  11.637  0.0952  0.1973  0.0452
  155DOPC   C4A 1856  22.009  19.143  11.521  0.1881 -0.1287 -0.1222
  155DOPC   C1B 1857  22.963  18.508  11.569 -0.3317 -0.1714  0.3007
  155DOPC   D2B 1858  22.682  18.578  11.464  0.0156 -0.0105 -0.3071
  155DOPC   C3B 1859  22.472  18.589  10.977  0.1753 -0.2340 -0.2312
  155DOPC   C4B 1860  22.034  18.684  10.778  0.1283  0.2112 -0.0262
  156DOPC   NC3 1861  23.071  28.324  11.539 -0.2419 -0.0401 -0.3619
  156DOPC   PO4 1862  22.714  28.395  11.595 -0.1384 -0.1198 -0.0143
  156DOPC   GL1 1863  22.604  28.268  11.221 -0.1748 -0.3647 -0.1872
  156DOPC   GL2 1864  22.491  28.418  11.021  0.0646  0.0146  0.0841
  156DOPC   C1A 1865  22.525  27.916  11.004  0.0708 -0.0043  0.0031
  156DOPC   D2A 1866  22.437  27.660  10.692 -0.0997  0.1862 -0.0479
  156DOPC   C3A 1867  22.059  27.628  10.558  0.3579 -0.1145 -0.1163
  156DOPC   C4A 1868  21.667  27.869  10.385  0.2494 -0.0249  0.1680
  156DOPC   C1B 1869  22.253  28.585  10.722  0.2557 -0.0634  0.2379
  156DOPC   D2B 1870  21.934  28.484  10.411  0.2169  0.3620 -0.0002
  156DOPC   C3B 1871  21.538  28.293  10.560  0.0092 -0.2176 -0.0865
  156DOPC   C4B 1872  21.315  28.015  10.674 -0.1439 -0.1599 -0.3258
  157DOPC   NC3 1873   9.467  32.450  20.789  0.2866 -0.0745  0.2760
  157DOPC   PO4 1874   9.925  32.710  20.731  0.2126 -0.0732 -0.2333
  157DOPC   GL1 1875   9.824  32.742  20.389 -0.1366 -0.2485 -0.1797
  157DOPC   GL2 1876  10.197  32.775  20.293  0.2811  0.0342  0.0155
  157DOPC   C1A 1877   9.592  32.549  20.059  0.2784  0.2324  0.1228
  157DOPC   D2A 1878   9.326  32.512  19.712  0.3389 -0.0770 -0.1356
  157DOPC   C3A 1879   9.213  32.534  19.339  0.1966  0.0675 -0.0241
  157DOPC   C4A 1880   8.902  32.464  19.058  0.5534  0.1954 -0.1267
  157DOPC   C1B 1881  10.074  32.683  19.947  0.0367 -0.1720  0.2093
  157DOPC   D2B 1882   9.856  32.559  19.611 -0.0920  0.2831  0.3853
  157DOPC   C3B 1883  10.098  32.242  19.425 -0.1261 -0.2393  0.0531
  157DOPC   C4B 1884  10.388  32.056  19.186  0.1040  0.2357 -0.0442
  158DOPC   NC3 1885   5.401   1.119  18.625  0.0032 -0.1034  0.2160
  158DOPC   PO4 1886   5.451   1.632  18.378 -0.1766  0.0917 -0.1286
  158DOPC   GL1 1887   5.544   1.448  18.041 -0.2147  0.3266 -0.1797
  158DOPC   GL2 1888   5.809   1.306  18.044  0.1909  0.2183  0.0197
  158DOPC   C1A 1889   5.717   1.288  17.532  0.1525  0.0463 -0.1778
  158DOPC   D2A 1890   5.865   1.174  17.276  0.1246 -0.3153  0.0041
  158DOPC   C3A 1891   5.718   1.324  16.893  0.2257 -0.0022 -0.1643
  158DOPC   C4A 1892   5.594   1.681  16.718  0.2735  0.2823 -0.0438
  158DOPC   C1B 1893   6.079   1.051  17.773 -0.3316 -0.0669 -0.0459
  158DOPC   D2B 1894   6.356   0.906  17.473  0.2091 -0.3389  0.1842
  158DOPC   C3B 1895   6.349   0.910  16.992  0.0817 -0.0209 -0.0149
  158DOPC   C4B 1896   6.042   1.011  16.678  0.1048  0.1939 -0.1268
  159DOPC   NC3 1897  27.765  13.938   5.159  0.3607  0.1618 -0.3103
  159DOPC   PO4 1898  27.492  14.165   5.123  0.0175  0.1710 -0.3241
  159DOPC   GL1 1899  27.165  13.977   5.054 -0.0353  0.1806  0.3667
  159DOPC   GL2 1900  26.852  14.105   5.113 -0.0985  0.1840 -0.4223
  159DOPC   C1A 1901  26.994  13.790   4.724  0.0756 -0.0208 -0.0194
  159DOPC   D2A 1902  26.728  13.619   4.546 -0.1196  0.2156  0.2235
  159DOPC   C3A 1903  26.631  13.560   4.199 -0.0070 -0.0618 -0.1826
  159DOPC   C4A 1904  26.353  13.551   3.871 -0.1790  0.1354  0.2383
  159DOPC   C1B 1905  26.752  13.644   5.128  0.3139  0.2325 -0.0916
  159DOPC   D2B 1906  26.581  13.232   4.910  0.0961 -0.1954 -0.0831
  159DOPC   C3B 1907  26.416  13.249   4.595 -0.3521  0.1066  0.2012
  159DOPC   C4B 1908  26.303  13.208   4.242  0.1593  0.3485  0.0686
  160DOPC   NC3 1909   3.469  27.965  19.026  0.0837 -0.1453  0.0273
  160DOPC   PO4 1910   3.382  28.023  18.536  0.1919  0.2039 -0.2347
  160DOPC   GL1 1911   3.713  27.955  18.279 -0.0550 -0.4420 -0.0569
  160DOPC   GL2 1912   3.797  28.332  18.306  0.1141  0.1805 -0.2274
  160DOPC   C1A 1913   3.939  28.016  17.905  0.1878 -0.0320 -0.2988
  160DOPC   D2A 1914   4.232  28.220  17.737  0.4842  0.1630 -0.1658
  160DOPC   C3A 1915   4.507  28.060  17.420 -0.2148  0.1144  0.0104
  160DOPC   C4A 1916   4.725  28.294  17.134 -0.0543  0.0512  0.1683
  160DOPC   C1B 1917   3.791  28.503  17.941  0.1252 -0.1117  0.1150
  160DOPC   D2B 1918   4.175  28.718  17.692  0.3431 -0.2665  0.2142
  160DOPC   C3B 1919   4.518  28.587  17.505  0.0344 -0.0775 -0.0107
  160DOPC   C4B 1920   4.873  28.391  17.606  0.3205 -0.4188 -0.1420
  161DOPC   NC3 1921  23.165  11.515  12.985  0.0592 -0.1291 -0.1380
  161DOPC   PO4 1922  23.192  11.902  12.699 -0.0698  0.1127 -0.1088
  161DOPC   GL1 1923  23.151  11.540  12.378  0.3781 -0.1724 -0.0090
  161DOPC   GL2 1924  23.119  11.300  12.509  0.0828 -0.0228 -0.2719
  161DOPC   C1A 1925  22.825  11.515  12.098  0.0613 -0.0226  0.2484
  161DOPC   D2A 1926  22.464  11.357  11.881  0.3635  0.2954  0.0432
  161DOPC   C3A 1927  21.987  11.548  11.784 -0.0999  0.1163 -0.0521
  161DOPC   C4A 1928  21.724  11.834  12.033  0.4704 -0.1470 -0.1045
  161DOPC   C1B 1929  23.019  11.053  12.184 -0.0199 -0.2707 -0.0840
  161DOPC   D2B 1930  22.911  11.203  11.726 -0.4656  0.0662 -0.1452
  161DOPC   C3B 1931  22.552  11.141  11.416  0.0158 -0.3474 -0.2914
  161DOPC   C4B 1932  22.113  11.096  11.554  0.0682  0.2033  0.2246
  162DOPC   NC3 1933  22.000   6.742  15.658 -0.0892 -0.0097  0.0261
  162DOPC   PO4 1934  21.702   6.966  15.596 -0.0349 -0.0855 -0.0136
  162DOPC   GL1 1935  21.478   7.054  15.234 -0.0158  0.4957  0.1308
  162DOPC   GL2 1936  21.256   6.882  15.163 -0.1914  0.2928 -0.1228
  162DOPC   C1A 1937  21.409   7.312  14.839 -0.3658  0.3373 -0.2385
  162DOPC   D2A 1938  21.322   7.311  14.409 -0.0177  0.0195 -0.1002
  162DOPC   C3A 1939  21.080   7.202  14.063 -0.1644  0.1224 -0.2020
  162DOPC   C4A 1940  20.821   7.182  13.713  0.1535  0.0663 -0.1619
  162DOPC   C1B 1941  20.961   7.102  14.866  0.4706 -0.1474 -0.3613
  162DOPC   D2B 1942  20.818   7.234  14.504 -0.2891 -0.2062 -0.1151
  162DOPC   C3B 1943  20.646   7.479  14.149  0.1248 -0.2305  0.4498
  162DOPC   C4B 1944  20.424   7.715  13.859  0.1234  0.0827 -0.0877
  163DOPC   NC3 1945  18.752  12.277  17.832 -0.0643 -0.2683  0.0071
  163DOPC   PO4 1946  18.457  12.340  17.498  0.1060  0.0891 -0.1503
  163DOPC   GL1 1947  18.319  12.146  17.070  0.2465  0.0318  0.0280
  163DOPC   GL2 1948  18.385  11.832  17.018  0.3335 -0.0688  0.1128
  163DOPC   C1A 1949  18.128  11.973  16.629  0.0374  0.1242  0.2707
  163DOPC   D2A 1950  17.710  11.816  16.621 -0.0872 -0.1389  0.1651
  163DOPC   C3A 1951  17.472  11.567  16.462 -0.1692  0.2376 -0.0693
  163DOPC   C4A 1952  17.207  11.248  16.354 -0.2107  0.0532  0.2275
  163DOPC   C1B 1953  18.565  11.746  16.580  0.3561 -0.0757 -0.1057
  163DOPC   D2B 1954  18.433  11.760  16.163 -0.1474 -0.0226  0.0356
  163DOPC   C3B 1955  18.305  12.142  15.978 -0.0948 -0.0728 -0.2805
  163DOPC   C4B 1956  18.201  12.416  15.751 -0.1177  0.2159  0.2925
  164DOPC   NC3 1957  13.135  13.357  18.704  0.1017 -0.0383 -0.0249
  164DOPC   PO4 1958  13.331  13.138  18.990  0.1531  0.2743 -0.3655
  164DOPC   GL1 1959  13.596  13.145  18.616  0.0252 -0.1360 -0.0825
  164DOPC   GL2 1960  13.472  13.246  18.282  0.3931  0.1299 -0.1173
  164DOPC   C1A 1961  13.958  13.192  18.217 -0.0510  0.1327  0.0939
  164DOPC   D2A 1962  13.973  13.318  17.816 -0.1475  0.2890  0.2113
  164DOPC   C3A 1963  14.390  13.268  17.663  0.0118  0.0715 -0.2252
  164DOPC   C4A 1964  14.730  13.131  17.343  0.2533 -0.2289  0.3667
  164DOPC   C1B 1965  13.470  13.407  17.879  0.0099 -0.2464  0.4108
  164DOPC   D2B 1966  13.498  13.413  17.500  0.0137 -0.1739  0.1426
  164DOPC   C3B 1967  13.851  13.349  17.272 -0.3879  0.1137 -0.1902
  164DOPC   C4B 1968  14.280  13.291  17.115 -0.0563 -0.1042  0.1156
  165DOPC   NC3 1969  14.851   0.761  18.439 -0.2190  0.2622 -0.0381
  165DOPC   PO4 1970  14.484   1.059  18.388  0.0620 -0.2521  0.0397
  165DOPC   GL1 1971  14.161   0.850  18.110 -0.1058 -0.3794 -0.2504
  165DOPC   GL2 1972  14.163   0.905  17.844 -0.0542 -0.2292  0.0387
  165DOPC   C1A 1973  13.920   0.426  17.988 -0.0813  0.0767  0.2111
  165DOPC   D2A 1974  13.527   0.212  18.063 -0.1036 -0.0181  0.1680
  165DOPC   C3A 1975  13.482  35.310  17.748  0.0917 -0.0396 -0.3073
  165DOPC   C4A 1976  13.366  34.907  17.569 -0.0984 -0.0253  0.0468
  165DOPC   C1B 1977  13.820   0.800  17.593  0.3813  0.1785 -0.3041
  165DOPC   D2B 1978  13.447   0.505  17.595 -0.3809 -0.0477  0.0088
  165DOPC   C3B 1979  13.263   0.229  17.315  0.0169 -0.2707 -0.1033
  165DOPC   C4B 1980  12.949   0.247  17.058  0.2469  0.0381  0.3151
  166DOPC   NC3 1981  17.350  31.777  18.119  0.0978 -0.5175 -0.0159
  166DOPC   PO4 1982  17.153  31.520  18.433  0.0882 -0.1444  0.1177
  166DOPC   GL1 1983  16.854  31.194  18.560  0.1005  0.1316 -0.0522
  166DOPC   GL2 1984  16.828  31.008  18.271  0.2995  0.3756 -0.1324
  166DOPC   C1A 1985  16.402  31.005  18.560  0.3302  0.4783  0.3075
  166DOPC   D2A 1986  16.074  30.798  18.389 -0.1421 -0.1868  0.1008
  166DOPC   C3A 1987  15.885  30.602  17.967 -0.1167 -0.0903 -0.3675
  166DOPC   C4A 1988  15.790  30.654  17.589  0.3104 -0.0796 -0.1811
  166DOPC   C1B 1989  16.559  30.809  18.052 -0.1868 -0.2805 -0.3986
  166DOPC   D2B 1990  16.314  30.774  17.767  0.1503  0.2196  0.1373
  166DOPC   C3B 1991  16.307  30.402  17.867  0.1073 -0.4120 -0.1247
  166DOPC   C4B 1992  16.254  30.031  17.871 -0.0104 -0.0411 -0.0462
  167DOPC   NC3 1993  16.640  26.989  21.215 -0.0318 -0.0032 -0.1773
  167DOPC   PO4 1994  16.663  26.902  20.717 -0.0814  0.1584 -0.1870
  167DOPC   GL1 1995  16.424  27.115  20.308 -0.0458  0.0947  0.0127
  167DOPC   GL2 1996  16.447  27.526  20.351  0.0210 -0.0910  0.2284
  167DOPC   C1A 1997  16.167  27.008  19.961  0.1875 -0.1314  0.3410
  167DOPC   D2A 1998  15.870  26.967  19.626  0.1313  0.0773  0.1107
  167DOPC   C3A 1999  15.884  26.553  19.362 -0.0146 -0.1102  0.1004
  167DOPC   C4A 2000  15.801  26.223  19.040  0.0218 -0.0096 -0.1831
  167DOPC   C1B 2001  16.375  27.466  19.964  0.1220 -0.0479  0.0058
  167DOPC   D2B 2002  16.178  27.356  19.563  0.0295 -0.3376 -0.1749
  167DOPC   C3B 2003  15.743  27.364  19.463 -0.2629 -0.2896  0.0245
  167DOPC   C4B 2004  15.407  27.133  19.544 -0.1284 -0.0485  0.0526
  168DOPC   NC3 2005  29.860  32.845  10.647 -0.0142  0.0119  0.1489
  168DOPC   PO4 2006  29.807  33.192  10.439 -0.2762 -0.0381 -0.0634
  168DOPC   GL1 2007  30.028  32.995  10.159 -0.3216  0.1751 -0.0330
  168DOPC   GL2 2008  29.880  32.910   9.912 -0.2620 -0.2297  0.0548
  168DOPC   C1A 2009  30.351  32.619  10.105 -0.0139 -0.0166 -0.0093
  168DOPC   D2A 2010  30.546  32.454   9.778  0.1299 -0.2359 -0.0154
  168DOPC   C3A 2011  30.672  32.625   9.424 -0.0187 -0.0931 -0.0814
  168DOPC   C4A 2012  30.799  32.658   8.983 -0.1539  0.0963  0.0631
  168DOPC   C1B 2013  30.196  32.867   9.633 -0.2427  0.1289 -0.1951
  168DOPC   D2B 2014  30.303  32.912   9.197 -0.6967  0.3024  0.0932
  168DOPC   C3B 2015  30.466  33.049   8.872 -0.0595  0.2757  0.1225
  168DOPC   C4B 2016  30.467  33.101   8.426 -0.0053  0.0880  0.2131
  169DOPC   NC3 2017  19.971  21.293  17.836  0.0158  0.2210 -0.1942
  169DOPC   PO4 2018  19.945  21.001  17.561  0.0768  0.2696  0.0265
  169DOPC   GL1 2019  19.646  21.189  17.403  0.1427  0.1041 -0.2406
  169DOPC   GL2 2020  19.451  20.989  17.455 -0.1399  0.2463  0.1596
  169DOPC   C1A 2021  19.541  21.303  17.030  0.1339 -0.2246 -0.1684
  169DOPC   D2A 2022  19.455  21.335  16.577  0.0052 -0.0799 -0.0844
  169DOPC   C3A 2023  19.068  21.320  16.603  0.0497 -0.1748 -0.0555
  169DOPC   C4A 2024  18.653  21.353  16.761  0.3029  0.1534 -0.1477
  169DOPC   C1B 2025  19.117  21.108  17.185  0.2742 -0.3235 -0.0087
  169DOPC   D2B 2026  18.736  20.822  16.952  0.1317  0.0442 -0.4599
  169DOPC   C3B 2027  18.436  20.698  16.606  0.1562 -0.1124 -0.0119
  169DOPC   C4B 2028  18.083  20.861  16.346  0.2278  0.1900 -0.2372
  170DOPC   NC3 2029   2.049  14.558  11.448 -0.2179 -0.0613  0.3292
  170DOPC   PO4 2030   1.890  14.721  11.017 -0.0998  0.1353 -0.1272
  170DOPC   GL1 2031   2.442  14.733  11.161  0.3885 -0.1570  0.1280
  170DOPC   GL2 2032   2.562  14.508  11.334  0.1390  0.1445 -0.0248
  170DOPC   C1A 2033   2.771  14.877  11.019  0.1460 -0.0907  0.0488
  170DOPC   D2A 2034   3.197  14.804  10.891  0.0358  0.0517  0.3302
  170DOPC   C3A 2035   3.539  14.669  11.184  0.0199  0.0721  0.4388
  170DOPC   C4A 2036   3.653  14.725  11.599 -0.0304 -0.2582  0.1557
  170DOPC   C1B 2037   2.715  14.312  11.023  0.0038 -0.0492  0.0379
  170DOPC   D2B 2038   2.854  14.024  10.707 -0.0042  0.1193  0.2459
  170DOPC   C3B 2039   3.109  13.924  10.268  0.0642 -0.1676 -0.1624
  170DOPC   C4B 2040   3.287  13.715   9.901  0.5023  0.1949  0.0739
  171DOPC   NC3 2041   5.192  19.267  17.430 -0.2429  0.0366  0.1219
  171DOPC   PO4 2042   5.318  18.844  17.254 -0.2403 -0.1063 -0.0505
  171DOPC   GL1 2043   5.686  18.908  17.220  0.1436  0.0448 -0.1027
  171DOPC   GL2 2044   5.688  18.737  16.916  0.0580  0.1540  0.0268
  171DOPC   C1A 2045   6.110  19.091  17.171 -0.0070  0.0392 -0.2723
  171DOPC   D2A 2046   6.445  19.260  16.940 -0.1616  0.2159  0.2178
  171DOPC   C3A 2047   6.743  19.301  16.673  0.2413  0.3592 -0.2901
  171DOPC   C4A 2048   6.923  19.177  16.226  0.1594 -0.0341 -0.0262
  171DOPC   C1B 2049   5.682  18.771  16.530 -0.1403 -0.2484  0.0337
  171DOPC   D2B 2050   5.983  18.810  16.281  0.0064  0.0930 -0.1377
  171DOPC   C3B 2051   6.131  19.029  15.935 -0.0982 -0.1865  0.2230
  171DOPC   C4B 2052   5.874  19.029  15.639 -0.2229 -0.0887  0.2023
  172DOPC   NC3 2053  33.144  16.974   5.364  0.0426  0.1427 -0.2736
  172DOPC   PO4 2054  33.620  17.194   5.192 -0.1522 -0.1837 -0.0616
  172DOPC   GL1 2055  33.776  17.261   4.831 -0.1138 -0.0540 -0.0608
  172DOPC   GL2 2056  33.567  17.507   4.751 -0.3781  0.0015  0.0104
  172DOPC   C1A 2057  33.939  17.318   4.435  0.1232  0.0142  0.1339
  172DOPC   D2A 2058  33.924  17.130   4.061 -0.0241  0.2485 -0.1362
  172DOPC   C3A 2059  33.903  17.152   3.645 -0.1152 -0.0052 -0.0397
  172DOPC   C4A 2060  33.491  16.995   3.476 -0.2001  0.1005  0.1800
  172DOPC   C1B 2061  33.655  17.734   4.336  0.0982  0.1399 -0.4014
  172DOPC   D2B 2062  33.860  17.593   4.002 -0.0498 -0.1705  0.3464
  172DOPC   C3B 2063  33.654  17.662   3.633  0.1191  0.0902 -0.0256
  172DOPC   C4B 2064  33.369  17.782   3.421 -0.1483  0.0991 -0.0145
  173DOPC   NC3 2065   6.591  12.404  16.386  0.2703 -0.1776 -0.1740
  173DOPC   PO4 2066   6.509  12.877  16.440 -0.1371  0.1546 -0.1295
  173DOPC   GL1 2067   6.709  13.156  16.103 -0.1427  0.1430 -0.2032
  173DOPC   GL2 2068   6.514  13.201  15.810  0.1272  0.1527 -0.0983
  173DOPC   C1A 2069   6.987  13.157  15.709 -0.0761  0.3118  0.2116
  173DOPC   D2A 2070   7.144  13.060  15.310  0.0490  0.0951 -0.3083
  173DOPC   C3A 2071   7.578  13.264  15.007 -0.0661 -0.2978  0.1198
  173DOPC   C4A 2072   7.911  13.262  14.818 -0.2061  0.1607 -0.0091
  173DOPC   C1B 2073   6.668  13.230  15.315 -0.2507 -0.3573 -0.1561
  173DOPC   D2B 2074   6.826  13.290  14.975  0.1151  0.2278  0.3057
  173DOPC   C3B 2075   7.117  13.081  14.724 -0.0048  0.0497  0.4436
  173DOPC   C4B 2076   7.487  13.213  14.434  0.0474  0.2180 -0.2145
  174DOPC   NC3 2077   1.859  33.588  16.350 -0.1332 -0.0784  0.0081
  174DOPC   PO4 2078   1.581  33.165  16.232 -0.0417 -0.0886  0.0621
  174DOPC   GL1 2079   1.779  32.821  15.993 -0.1544  0.0801  0.0635
  174DOPC   GL2 2080   1.735  32.482  15.987 -0.2741 -0.1477  0.2230
  174DOPC   C1A 2081   2.073  32.733  15.629 -0.0193 -0.0612  0.1417
  174DOPC   D2A 2082   2.280  32.673  15.303  0.2499 -0.4106  0.0709
  174DOPC   C3A 2083   2.599  32.698  15.089 -0.1147 -0.1156  0.1733
  174DOPC   C4A 2084   3.062  32.798  15.073 -0.0273 -0.1088 -0.0435
  174DOPC   C1B 2085   2.157  32.269  15.870 -0.3514  0.5611  0.0617
  174DOPC   D2B 2086   2.457  32.111  16.093 -0.1803  0.0501  0.0587
  174DOPC   C3B 2087   2.762  31.921  15.743 -0.0003  0.1878  0.0167
  174DOPC   C4B 2088   2.825  31.747  15.330  0.0511  0.3087 -0.0520
  175DOPC   NC3 2089  19.068  28.652  17.737  0.0909  0.1296  0.0431
  175DOPC   PO4 2090  19.229  28.679  17.263 -0.0632  0.0627  0.1202
  175DOPC   GL1 2091  19.069  28.367  17.139 -0.1044  0.1229  0.0480
  175DOPC   GL2 2092  19.213  27.918  17.232 -0.1819  0.0683 -0.5326
  175DOPC   C1A 2093  18.730  28.110  17.118  0.3098  0.0771 -0.3933
  175DOPC   D2A 2094  18.314  27.948  16.996  0.2296  0.0491  0.0821
  175DOPC   C3A 2095  18.075  27.675  16.940 -0.3061 -0.1242  0.0060
  175DOPC   C4A 2096  17.764  27.377  16.771  0.1856 -0.1534 -0.2236
  175DOPC   C1B 2097  18.981  27.592  17.066  0.1167 -0.2558  0.1042
  175DOPC   D2B 2098  18.566  27.460  16.973 -0.1313 -0.1330  0.2043
  175DOPC   C3B 2099  18.335  27.320  16.606 -0.0429  0.3013  0.2306
  175DOPC   C4B 2100  18.406  26.870  16.461  0.1303 -0.2339  0.3109
  176DOPC   NC3 2101  24.194  31.180  11.017  0.0157  0.0010  0.0073
  176DOPC   PO4 2102  23.857  31.343  11.107 -0.1266  0.0153 -0.0377
  176DOPC   GL1 2103  23.632  31.252  10.818  0.0086 -0.1400 -0.2734
  176DOPC   GL2 2104  23.364  31.314  10.757  0.0072  0.0946  0.2261
  176DOPC   C1A 2105  23.580  31.086  10.343  0.1408  0.2705 -0.1384
  176DOPC   D2A 2106  23.203  31.160  10.138 -0.2114  0.1868  0.0388
  176DOPC   C3A 2107  22.961  31.116   9.687  0.3576 -0.0446 -0.0911
  176DOPC   C4A 2108  22.887  31.104   9.276  0.1100 -0.4490  0.0326
  176DOPC   C1B 2109  22.980  31.352  10.634 -0.0898 -0.1971 -0.1907
  176DOPC   D2B 2110  22.632  31.401  10.209  0.0222  0.3901  0.4209
  176DOPC   C3B 2111  22.359  31.151  10.022 -0.0747 -0.1544  0.2069
  176DOPC   C4B 2112  21.894  30.921  10.000 -0.0633  0.1121  0.2989
  177DOPC   NC3 2113   5.621  11.788  15.750 -0.0236  0.3506 -0.0536
  177DOPC   PO4 2114   5.220  11.674  15.520 -0.0289 -0.1730  0.2165
  177DOPC   GL1 2115   5.174  11.310  15.377  0.0855  0.3511 -0.1636
  177DOPC   GL2 2116   4.955  11.263  15.083 -0.0285  0.4192  0.1395
  177DOPC   C1A 2117   5.226  10.853  15.310 -0.0347  0.0922  0.1473
  177DOPC   D2A 2118   5.227  10.572  15.122  0.1517  0.5032  0.1594
  177DOPC   C3A 2119   5.498  10.342  14.924 -0.0912 -0.2373 -0.2617
  177DOPC   C4A 2120   5.868  10.334  14.664 -0.0465  0.1007  0.4886
  177DOPC   C1B 2121   5.352  11.142  14.876  0.2244 -0.1528 -0.1817
  177DOPC   D2B 2122   5.539  11.044  14.487  0.0022  0.1685  0.1894
  177DOPC   C3B 2123   5.819  11.123  14.200 -0.1248 -0.0666 -0.0212
  177DOPC   C4B 2124   6.310  11.087  14.289  0.4860 -0.3641  0.0017
  178DOPC   NC3 2125   1.143  27.262  16.331 -0.0121  0.2336  0.2386
  178DOPC   PO4 2126   1.257  26.937  16.340  0.0754 -0.1739 -0.2060
  178DOPC   GL1 2127   1.625  26.662  16.218  0.2366  0.1262 -0.1809
  178DOPC   GL2 2128   1.592  26.491  15.959  0.0843 -0.1975  0.1249
  178DOPC   C1A 2129   1.886  26.870  15.900 -0.0779 -0.0328  0.2003
  178DOPC   D2A 2130   2.235  27.041  15.617 -0.2216 -0.3214 -0.0385
  178DOPC   C3A 2131   2.200  26.988  15.144 -0.1640  0.0441  0.2464
  178DOPC   C4A 2132   2.402  27.141  14.772  0.0051  0.0045  0.0453
  178DOPC   C1B 2133   1.433  26.280  15.663  0.0937 -0.3082  0.0202
  178DOPC   D2B 2134   1.528  26.063  15.264  0.1143  0.2257 -0.1740
  178DOPC   C3B 2135   1.607  26.226  14.887 -0.1833 -0.3462 -0.0671
  178DOPC   C4B 2136   1.882  26.307  14.705  0.2122  0.1093  0.3343
  179DOPC   NC3 2137   6.377  15.707  17.145  0.0416 -0.1212  0.0450
  179DOPC   PO4 2138   6.631  15.428  16.958 -0.0465  0.0908  0.1310
  179DOPC   GL1 2139   6.823  15.508  16.588 -0.0910  0.0070  0.1412
  179DOPC   GL2 2140   7.102  15.366  16.680  0.0563 -0.2840 -0.1701
  179DOPC   C1A 2141   7.090  15.411  16.167  0.0685 -0.2268 -0.2835
  179DOPC   D2A 2142   7.319  15.398  15.822 -0.0964 -0.0927 -0.1499
  179DOPC   C3A 2143   7.135  15.270  15.429 -0.3760 -0.2134  0.1979
  179DOPC   C4A 2144   6.959  15.101  15.034 -0.1414  0.1917 -0.0941
  179DOPC   C1B 2145   7.429  15.234  16.473  0.1068 -0.0403 -0.1323
  179DOPC   D2B 2146   7.666  15.336  16.148  0.0154  0.1587 -0.0146
  179DOPC   C3B 2147   7.768  15.579  15.706 -0.2120 -0.0736  0.0793
  179DOPC   C4B 2148   8.181  15.743  15.616 -0.0956 -0.1292 -0.2255
  180DOPC   NC3 2149  27.920   2.385  10.291  0.1028  0.2723  0.3628
  180DOPC   PO4 2150  27.552   2.167  10.416 -0.0568  0.0158 -0.0759
  180DOPC   GL1 2151  27.523   2.328   9.976  0.3448 -0.0724  0.1020
  180DOPC   GL2 2152  27.301   2.074   9.874 -0.0187  0.0890  0.0443
  180DOPC   C1A 2153  27.595   2.335   9.526 -0.3407 -0.2261 -0.1281
  180DOPC   D2A 2154  27.630   2.319   9.049  0.0564  0.1787 -0.2739
  180DOPC   C3A 2155  27.577   1.967   8.857 -0.3086  0.0280  0.0741
  180DOPC   C4A 2156  27.822   1.818   8.516  0.1817 -0.1311  0.0422
  180DOPC   C1B 2157  27.194   1.999   9.422 -0.0731 -0.0415 -0.1500
  180DOPC   D2B 2158  27.061   1.914   8.978  0.3709  0.2166 -0.4015
  180DOPC   C3B 2159  27.110   1.927   8.606 -0.0135  0.2525  0.1106
  180DOPC   C4B 2160  27.238   2.027   8.128 -0.0548 -0.1525  0.0809
  181PAPC   NC3 2161   4.271  19.269  16.515 -0.0192 -0.0907  0.1567
  181PAPC   PO4 2162   4.125  19.017  16.095  0.2127 -0.4454  0.3504
  181PAPC   GL1 2163   4.502  18.852  16.166  0.0769  0.0378 -0.1778
  181PAPC   GL2 2164   4.647  18.680  15.935 -0.0474 -0.2597  0.1961
  181PAPC   D1A 2165   4.875  18.956  16.471  0.3344 -0.0741  0.3310
  181PAPC   D2A 2166   5.092  18.935  16.133 -0.2934 -0.0360 -0.5320
  181PAPC   D3A 2167   5.296  19.251  16.291  0.0612  0.0126 -0.1289
  181PAPC   D4A 2168   5.634  19.099  16.031  0.1305  0.2474  0.0854
  181PAPC   C5A 2169   5.470  18.792  15.805  0.3828 -0.2385 -0.0669
  181PAPC   C1B 2170   4.903  18.910  15.734 -0.1186  0.2612  0.0706
  181PAPC   C2B 2171   5.273  19.281  15.759 -0.4624  0.1449  0.1657
  181PAPC   C3B 2172   5.548  19.456  15.546 -0.0996 -0.0946  0.1445
  181PAPC   C4B 2173   6.004  19.534  15.790 -0.2725 -0.2106 -0.1144
  182PAPC   NC3 2174   2.045  30.636  17.127  0.0796 -0.0436 -0.1012
  182PAPC   PO4 2175   1.927  30.964  17.224 -0.2521  0.0619 -0.1466
  182PAPC   GL1 2176   1.913  30.910  16.775  0.0384  0.1336 -0.3774
  182PAPC   GL2 2177   1.948  31.289  16.717 -0.1647 -0.2639  0.1589
  182PAPC   D1A 2178   1.801  30.918  16.365 -0.0813  0.2572 -0.1043
  182PAPC   D2A 2179   2.034  30.605  16.304  0.1656  0.0266  0.2904
  182PAPC   D3A 2180   2.306  30.661  16.641 -0.1179 -0.1613 -0.3978
  182PAPC   D4A 2181   2.324  30.988  16.410 -0.0109 -0.0285  0.3033
  182PAPC   C5A 2182   2.552  31.084  16.022  0.0971 -0.3870 -0.0031
  182PAPC   C1B 2183   2.384  31.404  16.801 -0.0839 -0.0715  0.1284
  182PAPC   C2B 2184   2.757  31.285  16.680 -0.1166 -0.3006  0.0570
  182PAPC   C3B 2185   3.163  31.340  16.441  0.1819  0.1325 -0.1916
  182PAPC   C4B 2186   3.512  31.315  16.229  0.0433 -0.1085  0.4351
  183PAPC   NC3 2187  33.944   6.884  11.347  0.3914  0.1769 -0.1650
  183PAPC   PO4 2188  33.811   7.133  11.001 -0.1400 -0.1174 -0.1599
  183PAPC   GL1 2189  33.939   7.116  10.568  0.3929 -0.0300 -0.1521
  183PAPC   GL2 2190  33.612   7.118  10.528 -0.0163  0.1966  0.0333
  183PAPC   D1A 2191  34.073   7.290  10.208  0.1100 -0.0556  0.1222
  183PAPC   D2A 2192  34.419   7.419  10.497 -0.1114 -0.4216  0.1034
  183PAPC   D3A 2193  34.705   7.224  10.765  0.0775  0.1801  0.0925
  183PAPC   D4A 2194  34.601   6.817  10.555  0.1022 -0.0224 -0.2880
  183PAPC   C5A 2195  34.196   6.653  10.520  0.1076 -0.5602 -0.0403
  183PAPC   C1B 2196  33.738   6.772  10.293  0.0990 -0.0278  0.2936
  183PAPC   C2B 2197  33.879   6.351  10.239  0.0733  0.0569 -0.0174
  183PAPC   C3B 2198  33.777   6.106   9.814 -0.3339 -0.1390 -0.0543
  183PAPC   C4B 2199  33.882   5.797   9.551  0.1861  0.1323 -0.2397
  184PAPC   NC3 2200   6.953   7.205  18.527  0.0480 -0.1435  0.0357
  184PAPC   PO4 2201   7.003   6.776  18.242 -0.0059 -0.1129  0.2484
  184PAPC   GL1 2202   7.181   6.565  17.937  0.0384 -0.1177  0.2534
  184PAPC   GL2 2203   7.441   6.604  17.775 -0.3251  0.1313  0.3981
  184PAPC   D1A 2204   6.945   6.442  17.560 -0.0657 -0.0851 -0.3489
  184PAPC   D2A 2205   6.740   6.335  17.178  0.0735 -0.0936  0.1947
  184PAPC   D3A 2206   6.297   6.413  17.137 -0.1017 -0.0535 -0.2268
  184PAPC   D4A 2207   6.127   6.158  17.281 -0.0287 -0.1430 -0.0635
  184PAPC   C5A 2208   5.702   6.108  17.064  0.2092 -0.2155  0.1137
  184PAPC   C1B 2209   7.788   6.582  17.477  0.0212  0.1117  0.0142
  184PAPC   C2B 2210   7.878   6.466  17.109 -0.1490 -0.0288  0.1054
  184PAPC   C3B 2211   7.938   6.525  16.622  0.2848 -0.2603  0.3007
  184PAPC   C4B 2212   8.088   6.454  16.177  0.2825  0.1937 -0.3634
  185PAPC   NC3 2213  10.552   2.217  20.160  0.0162 -0.0712 -0.3367
  185PAPC   PO4 2214  10.251   1.985  20.103  0.1291  0.0504 -0.0405
  185PAPC   GL1 2215  10.221   1.793  19.733  0.3591  0.0716  0.0682
  185PAPC   GL2 2216  10.311   1.580  19.718  0.1360  0.0967  0.0485
  185PAPC   D1A 2217  10.057   1.821  19.325  0.1061 -0.1985  0.2174
  185PAPC   D2A 2218   9.887   2.090  19.196 -0.1468  0.2547 -0.3479
  185PAPC   D3A 2219  10.058   2.195  18.761  0.0147  0.0251  0.1979
  185PAPC   D4A 2220  10.298   1.978  18.932  0.0985  0.2233 -0.1803
  185PAPC   C5A 2221  10.757   1.884  18.764 -0.1782  0.1711 -0.0066
  185PAPC   C1B 2222  10.639   1.219  19.564 -0.1115 -0.1243 -0.2202
  185PAPC   C2B 2223  10.802   1.097  19.232  0.1003 -0.2633 -0.1298
  185PAPC   C3B 2224  11.116   0.948  18.895 -0.0478 -0.2670 -0.0313
  185PAPC   C4B 2225  11.499   1.000  18.673  0.1009  0.1928  0.1549
  186PAPC   NC3 2226  19.188  25.392  19.005 -0.0829 -0.1167  0.1949
  186PAPC   PO4 2227  19.407  25.167  18.839  0.2573 -0.1219 -0.1355
  186PAPC   GL1 2228  19.013  25.305  18.546  0.1631  0.1652  0.1287
  186PAPC   GL2 2229  18.845  25.531  18.690 -0.1107  0.1541  0.2378
  186PAPC   D1A 2230  19.078  25.200  18.076 -0.3645 -0.0438  0.1438
  186PAPC   D2A 2231  19.420  25.452  17.980  0.2061 -0.1689 -0.2390
  186PAPC   D3A 2232  19.274  25.283  17.507  0.3641  0.0013 -0.1733
  186PAPC   D4A 2233  18.812  25.401  17.302 -0.2617  0.0112 -0.0485
  186PAPC   C5A 2234  18.516  25.095  17.089 -0.1177  0.3370  0.0159
  186PAPC   C1B 2235  18.420  25.653  18.577  0.0321 -0.1133  0.0571
  186PAPC   C2B 2236  18.002  25.757  18.226 -0.0930 -0.2905  0.1786
  186PAPC   C3B 2237  17.503  25.584  18.303 -0.0019  0.0810  0.2755
  186PAPC   C4B 2238  17.120  25.776  18.410  0.0918  0.0999 -0.2504
  187PAPC   NC3 2239   5.574  24.164  20.999  0.2083  0.3791  0.0345
  187PAPC   PO4 2240   5.848  23.906  20.585  0.0638  0.1482 -0.0233
  187PAPC   GL1 2241   6.110  24.008  20.229  0.2136  0.1604  0.1217
  187PAPC   GL2 2242   6.001  23.909  19.970  0.1919  0.0645  0.1062
  187PAPC   D1A 2243   6.510  23.841  20.075  0.0034 -0.0198 -0.2319
  187PAPC   D2A 2244   6.614  23.631  20.380 -0.1013  0.2812 -0.3219
  187PAPC   D3A 2245   6.870  23.866  20.719 -0.0905 -0.1766 -0.2480
  187PAPC   D4A 2246   7.262  23.918  20.587 -0.0525  0.1221 -0.2032
  187PAPC   C5A 2247   7.343  24.282  20.381 -0.1826 -0.2783  0.1086
  187PAPC   C1B 2248   5.944  24.005  19.389  0.2283  0.1284  0.1450
  187PAPC   C2B 2249   6.284  24.213  19.160  0.1822  0.0727  0.5274
  187PAPC   C3B 2250   6.419  24.563  18.856 -0.1657 -0.0686 -0.1889
  187PAPC   C4B 2251   6.273  24.585  18.440 -0.0959 -0.1876 -0.1492
  188PAPC   NC3 2252  10.926  20.510  22.262 -0.0669  0.3957  0.0033
  188PAPC   PO4 2253  11.287  20.673  22.084  0.0828  0.1034 -0.1880
  188PAPC   GL1 2254  10.999  20.737  21.789 -0.1621  0.0307  0.1587
  188PAPC   GL2 2255  11.054  20.919  21.471 -0.1065 -0.1413 -0.1744
  188PAPC   D1A 2256  10.535  20.657  21.644 -0.2072 -0.2891 -0.0889
  188PAPC   D2A 2257  10.321  20.839  21.305  0.0133 -0.1674  0.2607
  188PAPC   D3A 2258  10.681  21.082  21.042  0.0958 -0.1601  0.0336
  188PAPC   D4A 2259  10.694  21.192  20.589 -0.0016 -0.0382  0.2982
  188PAPC   C5A 2260  10.750  21.611  20.479 -0.0470  0.0751 -0.4410
  188PAPC   C1B 2261  11.120  20.854  21.064 -0.0531 -0.2126 -0.0108
  188PAPC   C2B 2262  11.120  21.192  20.790  0.1547  0.0005 -0.0795
  188PAPC   C3B 2263  11.210  21.361  20.354  0.2580  0.0517  0.1743
  188PAPC   C4B 2264  11.197  21.577  19.885 -0.1455  0.0449 -0.2316
  189DAPC   NC3 2265  13.242  34.988  20.247  0.0059 -0.0322  0.1122
  189DAPC   PO4 2266  13.395  34.568  20.095 -0.2580  0.0336 -0.1906
  189DAPC   GL1 2267  13.166  34.438  19.685 -0.2474 -0.1240  0.0154
  189DAPC   GL2 2268  13.338  34.633  19.502 -0.2642 -0.2589 -0.2649
  189DAPC   D1A 2269  12.758  34.502  19.415 -0.0865 -0.3856 -0.2304
  189DAPC   D2A 2270  12.247  34.540  19.528 -0.0856 -0.1874  0.3395
  189DAPC   D3A 2271  12.391  34.843  19.233 -0.0282 -0.2220 -0.0701
  189DAPC   D4A 2272  12.447  34.479  18.962 -0.0152 -0.0359  0.0184
  189DAPC   C5A 2273  12.349  34.111  19.330  0.2585 -0.1046 -0.1819
  189DAPC   D1B 2274  13.362  34.888  19.093 -0.1831  0.3085 -0.2974
  189DAPC   D2B 2275  13.376  34.498  19.001  0.2422 -0.1764 -0.0607
  189DAPC   D3B 2276  12.970  34.460  18.903  0.1046 -0.3020  0.1988
  189DAPC   D4B 2277  12.810  34.188  18.770  0.0055 -0.2302  0.2398
  189DAPC   C5B 2278  12.801  33.809  18.608  0.2924 -0.1500 -0.0614
  190DAPC   NC3 2279   6.742  31.691  20.417 -0.0061 -0.0627  0.2893
  190DAPC   PO4 2280   6.448  32.035  20.179 -0.4804  0.2476  0.2975
  190DAPC   GL1 2281   6.581  32.328  19.832 -0.1040  0.0303  0.0613
  190DAPC   GL2 2282   6.892  32.600  19.922  0.1164  0.0025 -0.0314
  190DAPC   D1A 2283   6.999  32.228  19.505  0.1785 -0.0971  0.0026
  190DAPC   D2A 2284   7.407  32.155  19.252 -0.1806 -0.1480 -0.3028
  190DAPC   D3A 2285   7.074  31.849  19.141  0.3182  0.0117  0.4267
  190DAPC   D4A 2286   7.240  31.941  18.717 -0.2248 -0.3420  0.0298
  190DAPC   C5A 2287   7.500  31.841  18.395 -0.0107 -0.0535 -0.0709
  190DAPC   D1B 2288   7.212  32.450  20.163  0.2403  0.2280  0.3131
  190DAPC   D2B 2289   7.415  32.057  19.916  0.0667  0.1131 -0.1832
  190DAPC   D3B 2290   7.857  31.972  20.203  0.1224 -0.0125  0.0409
  190DAPC   D4B 2291   7.949  32.061  19.850  0.1489 -0.4563  0.0618
  190DAPC   C5B 2292   7.635  32.421  19.751 -0.2100 -0.0472  0.0606
  191DAPC   NC3 2293   4.537   8.944  17.257 -0.1853  0.0198  0.0848
  191DAPC   PO4 2294   4.751   8.786  17.035  0.1086  0.1225  0.0441
  191DAPC   GL1 2295   4.925   8.744  16.611 -0.2672  0.2545 -0.0146
  191DAPC   GL2 2296   5.041   8.449  16.528  0.3171 -0.1985 -0.3275
  191DAPC   D1A 2297   5.090   8.618  16.058  0.1714 -0.2116 -0.1314
  191DAPC   D2A 2298   4.947   8.227  16.045 -0.0217  0.0634  0.0826
  191DAPC   D3A 2299   5.136   8.168  15.709  0.1427 -0.1928  0.1138
  191DAPC   D4A 2300   5.544   8.290  15.819  0.1181  0.1073  0.0125
  191DAPC   C5A 2301   5.874   8.109  15.606 -0.0200 -0.0132 -0.0954
  191DAPC   D1B 2302   5.399   8.239  16.344  0.3679 -0.0072 -0.1868
  191DAPC   D2B 2303   5.629   7.887  16.458 -0.0760  0.2367  0.0065
  191DAPC   D3B 2304   5.647   8.283  16.782 -0.2059 -0.2496  0.1218
  191DAPC   D4B 2305   5.891   8.271  16.419  0.3265  0.1558 -0.4014
  191DAPC   C5B 2306   6.198   7.946  16.461  0.1218  0.1388  0.0266
  192DAPC   NC3 2307  28.619  14.701   4.270  0.2299  0.0557 -0.3537
  192DAPC   PO4 2308  29.040  14.561   4.144 -0.0806  0.1261  0.1608
  192DAPC   GL1 2309  28.807  14.616   3.717 -0.1334  0.1971  0.0925
  192DAPC   GL2 2310  28.607  14.900   3.564 -0.0451  0.1325  0.2630
  192DAPC   D1A 2311  28.759  14.450   3.313  0.0119  0.2149 -0.2205
  192DAPC   D2A 2312  28.642  14.074   3.072 -0.2516 -0.2804  0.1274
  192DAPC   D3A 2313  28.652  14.164   2.679 -0.0795 -0.1346  0.1497
  192DAPC   D4A 2314  28.955  13.945   2.676 -0.0029  0.1212  0.2366
  192DAPC   C5A 2315  29.224  13.759   2.952 -0.3694  0.1276 -0.2718
  192DAPC   D1B 2316  28.734  14.911   3.144  0.0731  0.0383 -0.1081
  192DAPC   D2B 2317  28.797  14.637   2.797 -0.0037 -0.1759 -0.2274
  192DAPC   D3B 2318  28.733  14.996   2.576  0.1758 -0.2415  0.1941
  192DAPC   D4B 2319  28.927  14.639   2.282 -0.0435  0.2669 -0.0743
  192DAPC   C5B 2320  29.315  14.366   2.188  0.1965 -0.0772  0.0945
  193DAPC   NC3 2321  15.362  27.923  21.842  0.0641  0.0478 -0.0178
  193DAPC   PO4 2322  15.135  27.681  21.464 -0.1013  0.0182  0.2681
  193DAPC   GL1 2323  14.920  27.846  21.067  0.1161 -0.0746  0.0284
  193DAPC   GL2 2324  15.165  28.002  21.073 -0.0230 -0.1427 -0.0678
  193DAPC   D1A 2325  14.754  27.940  20.645  0.1463 -0.0470  0.0114
  193DAPC   D2A 2326  14.439  27.933  20.246 -0.0594  0.0651 -0.1372
  193DAPC   D3A 2327  14.199  27.734  20.499  0.0396  0.0912  0.1395
  193DAPC   D4A 2328  14.313  28.053  20.778 -0.1281  0.2536 -0.0518
  193DAPC   C5A 2329  14.149  28.494  20.940 -0.0844 -0.0605 -0.1675
  193DAPC   D1B 2330  15.253  27.969  20.664  0.1258 -0.0180 -0.0652
  193DAPC   D2B 2331  15.572  27.583  20.406 -0.2374 -0.0744  0.0626
  193DAPC   D3B 2332  15.407  27.815  20.203  0.2007  0.1070 -0.0830
  193DAPC   D4B 2333  15.196  28.197  20.224 -0.0521 -0.0507 -0.1131
  193DAPC   C5B 2334  14.835  28.402  20.362  0.0487  0.1577 -0.2403
  194DAPC   NC3 2335  35.156  24.262  13.387  0.0958 -0.3320 -0.1920
  194DAPC   PO4 2336  35.343  23.866  13.610  0.1749 -0.0707  0.1444
  194DAPC   GL1 2337   0.267  24.207  13.701  0.0042  0.0967  0.0005
  194DAPC   GL2 2338   0.332  24.518  13.470  0.1977  0.2309 -0.1334
  194DAPC   D1A 2339   0.690  24.350  13.720 -0.0098  0.2213  0.0078
  194DAPC   D2A 2340   0.440  24.579  14.020 -0.2131 -0.2870 -0.2556
  194DAPC   D3A 2341   0.561  24.942  13.694  0.1076  0.0202  0.1118
  194DAPC   D4A 2342   0.860  24.793  13.464 -0.0519 -0.1697  0.1307
  194DAPC   C5A 2343   0.801  24.442  13.271 -0.1042 -0.1647  0.0251
  194DAPC   D1B 2344   0.252  24.801  13.052  0.0788  0.0494 -0.1787
  194DAPC   D2B 2345   0.475  25.214  13.230  0.0330 -0.1195  0.1270
  194DAPC   D3B 2346   0.137  25.066  13.470 -0.0333  0.0700 -0.1105
  194DAPC   D4B 2347   0.042  25.241  13.049  0.1925 -0.1466  0.1170
  194DAPC   C5B 2348   0.217  25.567  12.880 -0.3161  0.1816 -0.0124
  195DAPC   NC3 2349  25.948  29.832  10.240 -0.0831 -0.1799  0.1648
  195DAPC   PO4 2350  26.143  30.278  10.112  0.0580  0.1122 -0.0257
  195DAPC   GL1 2351  26.381  30.084   9.875 -0.1319  0.0759 -0.0513
  195DAPC   GL2 2352  26.145  29.891   9.736 -0.0247  0.0448 -0.0457
  195DAPC   D1A 2353  26.777  30.098   9.709 -0.2876  0.0821 -0.0463
  195DAPC   D2A 2354  26.617  30.579   9.706  0.3306 -0.0758  0.3846
  195DAPC   D3A 2355  26.508  30.483   9.204  0.1716 -0.0551  0.1492
  195DAPC   D4A 2356  26.850  30.419   9.206  0.1382 -0.0928  0.0880
  195DAPC   C5A 2357  27.194  30.194   9.023 -0.0029 -0.1533  0.0650
  195DAPC   D1B 2358  25.837  29.778   9.404  0.0565 -0.0215 -0.0808
  195DAPC   D2B 2359  26.157  30.129   9.230 -0.1799  0.1455 -0.1115
  195DAPC   D3B 2360  26.232  30.341   8.834 -0.1717 -0.2133  0.0251
  195DAPC   D4B 2361  26.227  30.638   8.545  0.0790  0.2779 -0.2250
  195DAPC   C5B 2362  26.034  30.655   8.202  0.2419  0.0014 -0.0329
  196POPE   NH3 2363  31.362  34.091  11.717 -0.2329 -0.0018  0.1092
  196POPE   PO4 2364  30.912  33.937  11.494 -0.1180  0.3463  0.0798
  196POPE   GL1 2365  31.204  34.159  11.238 -0.0447 -0.0995 -0.4166
  196POPE   GL2 2366  31.305  34.461  11.341 -0.2348  0.2203 -0.1860
  196POPE   C1A 2367  31.364  34.315  10.875  0.1393 -0.1581  0.1644
  196POPE   D2A 2368  31.512  34.274  10.549  0.3734  0.3125  0.3022
  196POPE   C3A 2369  31.857  34.214  10.219 -0.2097 -0.1216  0.0272
  196POPE   C4A 2370  32.144  34.213   9.876  0.4253  0.2068 -0.2253
  196POPE   C1B 2371  31.453  34.802  11.073  0.0028  0.1381  0.0783
  196POPE   C2B 2372  31.606  34.767  10.668  0.0452  0.1838 -0.0421
  196POPE   C3B 2373  31.806  34.747  10.266 -0.4805  0.0990 -0.0096
  196POPE   C4B 2374  31.933  34.757   9.859 -0.3389  0.2652 -0.3516
  197POPE   NH3 2375  26.486   0.871  10.754 -0.1689  0.2494  0.0715
  197POPE   PO4 2376  26.059   0.714  10.895  0.2430  0.4571  0.1190
  197POPE   GL1 2377  25.992   0.904  10.456 -0.1435  0.2560 -0.0373
  197POPE   GL2 2378  26.262   0.932  10.274 -0.0999  0.0849  0.0262
  197POPE   C1A 2379  25.815   0.956  10.056 -0.2967  0.2240  0.1252
  197POPE   D2A 2380  25.788   0.827   9.641  0.0831 -0.1286 -0.1680
  197POPE   C3A 2381  26.106   0.781   9.309 -0.0104 -0.2499  0.0114
  197POPE   C4A 2382  26.195   0.693   8.894 -0.1910  0.2833 -0.0985
  197POPE   C1B 2383  26.269   0.888   9.809 -0.0183  0.2650 -0.2513
  197POPE   C2B 2384  26.481   1.067   9.330 -0.0857  0.2470 -0.1036
  197POPE   C3B 2385  26.651   0.927   8.961  0.0775  0.0197  0.0599
  197POPE   C4B 2386  26.826   0.681   8.688 -0.0063 -0.3266 -0.0807
  198POPE   NH3 2387  29.568   5.109  10.077 -0.0274  0.1237  0.0530
  198POPE   PO4 2388  30.014   4.896  10.035 -0.2409 -0.1187  0.0698
  198POPE   GL1 2389  30.015   4.558   9.726  0.1155 -0.0749 -0.1560
  198POPE   GL2 2390  30.249   4.424   9.810 -0.4548 -0.1623 -0.2557
  198POPE   C1A 2391  30.021   4.196   9.409 -0.2253  0.3586  0.0101
  198POPE   D2A 2392  30.181   3.932   9.065  0.1664 -0.2044 -0.0573
  198POPE   C3A 2393  30.514   4.082   8.685 -0.2242 -0.0321  0.2001
  198POPE   C4A 2394  30.779   3.893   8.318 -0.0616 -0.0134  0.0143
  198POPE   C1B 2395  30.549   4.174   9.369  0.0767 -0.0969  0.0157
  198POPE   C2B 2396  30.717   3.937   9.099 -0.1698 -0.0280 -0.1637
  198POPE   C3B 2397  30.642   3.545   8.872  0.1980 -0.2707  0.1020
  198POPE   C4B 2398  30.412   3.220   8.764 -0.2108 -0.0109  0.1894
  199POPE   NH3 2399  22.718  24.222  13.329  0.0784 -0.1173  0.2971
  199POPE   PO4 2400  22.336  24.430  13.463 -0.0185 -0.2277  0.0120
  199POPE   GL1 2401  22.053  24.730  13.277  0.3479  0.0500  0.2977
  199POPE   GL2 2402  21.681  24.617  13.197  0.0257 -0.3329 -0.0597
  199POPE   C1A 2403  21.821  25.072  13.170 -0.1499 -0.3577 -0.1112
  199POPE   D2A 2404  21.442  25.110  13.034  0.3999 -0.1335 -0.1342
  199POPE   C3A 2405  21.179  25.342  13.171 -0.2661 -0.0962  0.0687
  199POPE   C4A 2406  20.962  25.327  13.485  0.2447 -0.1169  0.0828
  199POPE   C1B 2407  21.361  24.633  12.885  0.2066  0.0157 -0.2062
  199POPE   C2B 2408  21.091  24.606  12.612 -0.3643  0.1629 -0.1945
  199POPE   C3B 2409  20.933  24.812  12.209 -0.1345  0.5388 -0.0515
  199POPE   C4B 2410  21.029  24.830  11.738 -0.2181  0.2761 -0.0288
  200POPE   NH3 2411   3.170  23.336  17.911  0.0437  0.2564 -0.2647
  200POPE   PO4 2412   3.443  23.519  17.838 -0.1242 -0.1455 -0.0100
  200POPE   GL1 2413   3.907  23.583  17.776 -0.1659 -0.0902  0.0024
  200POPE   GL2 2414   3.922  23.875  17.715  0.2253 -0.1418  0.2004
  200POPE   C1A 2415   4.377  23.558  17.724  0.0089  0.0587  0.1256
  200POPE   D2A 2416   4.758  23.425  17.558 -0.2255 -0.1178  0.0657
  200POPE   C3A 2417   5.166  23.570  17.576 -0.0368  0.0042  0.1904
  200POPE   C4A 2418   5.634  23.545  17.758  0.0685  0.0475 -0.0239
  200POPE   C1B 2419   4.143  24.172  17.547  0.2583  0.1936  0.1801
  200POPE   C2B 2420   4.355  24.514  17.477  0.3384  0.0205  0.2369
  200POPE   C3B 2421   4.739  24.497  17.356  0.1334  0.2618 -0.0374
  200POPE   C4B 2422   5.124  24.371  17.469 -0.1542  0.0349 -0.1014
  201POPE   NH3 2423  21.832  15.288  14.657 -0.0345  0.1276 -0.1439
  201POPE   PO4 2424  21.617  15.637  14.763 -0.1195 -0.0609 -0.1083
  201POPE   GL1 2425  21.548  15.927  14.409  0.0292 -0.0582 -0.1434
  201POPE   GL2 2426  21.195  15.819  14.495  0.0784  0.0112  0.1603
  201POPE   C1A 2427  21.282  16.106  14.127  0.0892 -0.2491 -0.2016
  201POPE   D2A 2428  20.992  16.197  13.725 -0.1998 -0.1985 -0.0937
  201POPE   C3A 2429  20.953  16.394  13.405  0.4485 -0.4558  0.2457
  201POPE   C4A 2430  20.702  16.307  13.013  0.0489 -0.5850 -0.2624
  201POPE   C1B 2431  20.805  16.056  14.197 -0.1291 -0.0629 -0.2952
  201POPE   C2B 2432  20.523  16.178  13.873  0.1936 -0.0447  0.0211
  201POPE   C3B 2433  20.399  15.905  13.497  0.1727  0.0393  0.4234
  201POPE   C4B 2434  20.204  15.945  13.060 -0.1812 -0.0932 -0.2197
  202POPE   NH3 2435   3.347  23.697  15.827  0.1336 -0.1401 -0.3478
  202POPE   PO4 2436   3.376  23.787  15.494 -0.1018  0.1255  0.1004
  202POPE   GL1 2437   3.573  24.108  15.699  0.0923 -0.2433  0.2080
  202POPE   GL2 2438   3.484  24.295  15.560  0.0737 -0.2152  0.2227
  202POPE   C1A 2439   3.998  24.380  15.608 -0.0947 -0.6206 -0.2745
  202POPE   D2A 2440   4.246  24.619  15.450  0.1861  0.3120  0.2879
  202POPE   C3A 2441   4.316  24.971  15.163 -0.1247  0.4402  0.0740
  202POPE   C4A 2442   4.582  24.969  14.816  0.1547 -0.0012  0.0713
  202POPE   C1B 2443   3.672  24.579  15.259  0.1515  0.2022  0.0002
  202POPE   C2B 2444   3.887  24.804  15.044  0.0946 -0.2553 -0.1346
  202POPE   C3B 2445   3.953  25.150  14.887 -0.0360 -0.1555 -0.0688
  202POPE   C4B 2446   3.992  25.479  14.804  0.0446  0.2239 -0.1190
  203POPE   NH3 2447  10.822  32.345  20.916  0.2118  0.1785 -0.2181
  203POPE   PO4 2448  10.604  31.992  21.002  0.0800  0.0427 -0.3717
  203POPE   GL1 2449  10.598  32.036  20.540  0.2522 -0.0466 -0.0904
  203POPE   GL2 2450  10.604  32.354  20.468 -0.0681  0.0318  0.2969
  203POPE   C1A 2451  10.550  31.876  20.162  0.2720 -0.1844 -0.0676
  203POPE   D2A 2452  10.395  31.982  19.841 -0.2226 -0.5699  0.2053
  203POPE   C3A 2453  10.492  31.742  19.604 -0.2322 -0.2401  0.0590
  203POPE   C4A 2454  10.724  31.734  19.252 -0.1199  0.0163 -0.0760
  203POPE   C1B 2455  10.478  32.414  20.057 -0.2976 -0.0896  0.1283
  203POPE   C2B 2456  10.408  32.569  19.602  0.0470 -0.1181 -0.2219
  203POPE   C3B 2457  10.416  32.599  19.152 -0.1505 -0.0803 -0.1806
  203POPE   C4B 2458  10.724  32.616  18.714  0.3715  0.0909 -0.1444
  204POPE   NH3 2459  24.034   1.415  12.038 -0.2518  0.1218 -0.1857
  204POPE   PO4 2460  24.372   1.352  11.690 -0.0767 -0.1221  0.2469
  204POPE   GL1 2461  24.121   1.609  11.418 -0.1411  0.0563 -0.1466
  204POPE   GL2 2462  24.061   1.925  11.490  0.1832  0.1415 -0.1571
  204POPE   C1A 2463  24.165   1.748  11.018  0.0346 -0.2011  0.2133
  204POPE   D2A 2464  24.264   1.764  10.579  0.1140  0.0031 -0.5124
  204POPE   C3A 2465  24.180   1.648  10.181  0.0346  0.1690  0.0178
  204POPE   C4A 2466  23.821   1.686   9.902 -0.1982 -0.0666  0.1726
  204POPE   C1B 2467  23.828   2.112  11.077 -0.1106  0.1400  0.1500
  204POPE   C2B 2468  23.843   2.018  10.665 -0.1393 -0.2680 -0.1116
  204POPE   C3B 2469  23.868   2.060  10.311  0.1781  0.3151  0.3346
  204POPE   C4B 2470  23.580   2.063  10.097 -0.1715 -0.2229 -0.1456
  205POPE   NH3 2471   0.242  26.261  14.286  0.1252  0.1069 -0.3272
  205POPE   PO4 2472  35.363  25.900  14.160 -0.1363  0.0951  0.1601
  205POPE   GL1 2473   0.221  26.040  13.774 -0.1086 -0.1750 -0.0327
  205POPE   GL2 2474  35.383  26.139  13.514  0.2328  0.1035  0.0442
  205POPE   C1A 2475   0.596  25.948  13.525  0.1472  0.4720  0.1051
  205POPE   D2A 2476   0.927  25.838  13.259  0.1357  0.1749 -0.0960
  205POPE   C3A 2477   0.798  25.549  12.949 -0.0775  0.0407  0.1180
  205POPE   C4A 2478   1.048  25.412  12.597  0.1894 -0.2467 -0.1029
  205POPE   C1B 2479   0.340  26.363  13.401  0.3695 -0.0407 -0.2048
  205POPE   C2B 2480   0.675  26.361  13.151  0.0192 -0.0149  0.1562
  205POPE   C3B 2481   0.840  26.567  12.810  0.3222  0.2935  0.0365
  205POPE   C4B 2482   1.139  26.762  12.549 -0.2901  0.1064  0.0955
  206POPE   NH3 2483  30.668   9.340   7.202  0.1182  0.0964  0.0499
  206POPE   PO4 2484  30.633   9.522   6.823  0.1028 -0.0063  0.3681
  206POPE   GL1 2485  31.046   9.384   6.677 -0.0069  0.0597 -0.0604
  206POPE   GL2 2486  31.225   9.334   6.838  0.3464 -0.0597  0.1053
  206POPE   C1A 2487  31.145   9.159   6.354 -0.2699 -0.1610  0.0621
  206POPE   D2A 2488  31.280   9.011   6.002 -0.0429 -0.0315  0.3875
  206POPE   C3A 2489  31.359   9.164   5.568 -0.1508  0.0562 -0.0990
  206POPE   C4A 2490  31.192   8.986   5.177  0.0004 -0.2150  0.2885
  206POPE   C1B 2491  31.532   9.117   6.688 -0.0064 -0.0134 -0.2799
  206POPE   C2B 2492  31.945   8.979   6.520  0.0753  0.0403 -0.3276
  206POPE   C3B 2493  32.171   8.504   6.628 -0.1477  0.1408 -0.0684
  206POPE   C4B 2494  32.191   8.251   7.033 -0.0501  0.0538  0.1352
  207POPE   NH3 2495  16.162  34.691  18.259  0.2692 -0.1198 -0.0008
  207POPE   PO4 2496  16.145  34.575  17.769  0.0541  0.3238  0.0224
  207POPE   GL1 2497  15.797  34.773  17.618 -0.1120 -0.0412 -0.1352
  207POPE   GL2 2498  15.580  34.935  17.827 -0.1641 -0.0070 -0.1141
  207POPE   C1A 2499  15.306  34.652  17.458 -0.0247 -0.3246 -0.1657
  207POPE   D2A 2500  14.821  34.507  17.572 -0.1495 -0.1090 -0.0549
  207POPE   C3A 2501  14.613  34.302  17.220  0.0124 -0.0636 -0.0832
  207POPE   C4A 2502  14.635  33.869  16.976 -0.0485 -0.1120  0.1281
  207POPE   C1B 2503  15.190  34.620  17.912  0.1172 -0.1292 -0.0471
  207POPE   C2B 2504  14.719  34.456  18.109 -0.3206  0.1628  0.3052
  207POPE   C3B 2505  14.433  34.205  17.786  0.0146  0.0878 -0.2980
  207POPE   C4B 2506  14.474  33.859  17.596 -0.2076  0.0831  0.1234
  208POPE   NH3 2507  14.456  20.454  21.364 -0.2004  0.3177 -0.1205
  208POPE   PO4 2508  14.224  20.455  21.108  0.2807  0.1129 -0.3820
  208POPE   GL1 2509  14.337  20.583  20.695 -0.1605 -0.0318 -0.0022
  208POPE   GL2 2510  14.149  20.796  20.693  0.0005 -0.0769 -0.3771
  208POPE   C1A 2511  14.358  20.367  20.267  0.0830  0.0924  0.1492
  208POPE   D2A 2512  14.345  20.112  19.976  0.0149 -0.1401  0.1801
  208POPE   C3A 2513  14.013  19.897  19.721  0.2043  0.0786 -0.0612
  208POPE   C4A 2514  13.976  19.520  19.583 -0.1920  0.0897 -0.0333
  208POPE   C1B 2515  14.098  20.807  20.236 -0.1828 -0.3749 -0.0316
  208POPE   C2B 2516  13.962  20.975  19.870  0.0064 -0.2789  0.2814
  208POPE   C3B 2517  13.783  21.117  19.514 -0.0716 -0.0320  0.1622
  208POPE   C4B 2518  13.343  20.852  19.416 -0.0431 -0.0281  0.2311
  209POPE   NH3 2519  22.169  27.322  12.665  0.1241 -0.0285 -0.0236
  209POPE   PO4 2520  22.002  26.937  12.924 -0.0685  0.0667 -0.1252
  209POPE   GL1 2521  21.707  26.965  12.655  0.0839 -0.1365  0.2267
  209POPE   GL2 2522  21.883  26.960  12.398  0.0119  0.0365  0.0475
  209POPE   C1A 2523  21.403  26.765  12.454 -0.2136  0.0517  0.1181
  209POPE   D2A 2524  21.193  26.611  12.206  0.1184 -0.0270 -0.0605
  209POPE   C3A 2525  20.836  26.729  12.169 -0.1312  0.2076  0.1131
  209POPE   C4A 2526  20.502  26.889  11.946 -0.2885 -0.1322 -0.0118
  209POPE   C1B 2527  21.743  26.807  12.015 -0.0852 -0.0166  0.2191
  209POPE   C2B 2528  21.465  26.681  11.770 -0.2161 -0.0189 -0.2759
  209POPE   C3B 2529  21.170  26.781  11.527  0.0727  0.1365 -0.1709
  209POPE   C4B 2530  21.031  26.772  11.076 -0.3869 -0.0840  0.3045
  210POPE   NH3 2531  11.428   8.693  18.807 -0.2922  0.2957 -0.0066
  210POPE   PO4 2532  11.598   9.077  19.085 -0.0790  0.2949  0.0715
  210POPE   GL1 2533  11.404   9.252  18.739  0.0772 -0.0269 -0.1636
  210POPE   GL2 2534  11.116   9.155  18.847  0.3257 -0.0294  0.0126
  210POPE   C1A 2535  11.546   9.490  18.421  0.0960  0.1249 -0.2717
  210POPE   D2A 2536  11.641   9.778  18.156  0.1066 -0.1881 -0.0523
  210POPE   C3A 2537  11.544  10.126  17.999  0.3145  0.2526 -0.0200
  210POPE   C4A 2538  11.618  10.492  17.968 -0.0042  0.0778 -0.0484
  210POPE   C1B 2539  10.962   9.411  18.453 -0.0533  0.0308 -0.1340
  210POPE   C2B 2540  11.170   9.295  18.026 -0.0137 -0.0604 -0.1620
  210POPE   C3B 2541  11.485   9.540  17.799  0.0101 -0.1071  0.0496
  210POPE   C4B 2542  11.562   9.392  17.365 -0.0147  0.1770 -0.0887
  211POPE   NH3 2543   3.775   4.407  17.080  0.1427  0.2012  0.1131
  211POPE   PO4 2544   4.041   4.422  16.683  0.2837  0.0109  0.0664
  211POPE   GL1 2545   4.343   4.527  16.526 -0.1522  0.1081 -0.2503
  211POPE   GL2 2546   4.152   4.783  16.264  0.0852 -0.0628 -0.0690
  211POPE   C1A 2547   4.826   4.441  16.517  0.1029 -0.5299  0.2196
  211POPE   D2A 2548   5.058   4.312  16.338  0.3116  0.1956  0.2023
  211POPE   C3A 2549   5.037   3.931  16.091  0.3293  0.3369  0.0126
  211POPE   C4A 2550   5.203   3.609  15.906 -0.0792  0.3777 -0.0407
  211POPE   C1B 2551   4.580   4.753  16.162  0.0605  0.1505  0.0225
  211POPE   C2B 2552   4.979   4.763  15.951 -0.2940  0.2009 -0.4259
  211POPE   C3B 2553   5.304   4.928  15.741  0.1002 -0.2409 -0.0759
  211POPE   C4B 2554   5.545   4.808  15.376  0.0934 -0.2596 -0.0669
  212POPE   NH3 2555  13.485   0.895  18.566  0.3326  0.0126  0.0499
  212POPE   PO4 2556  13.110   0.900  18.586 -0.3451 -0.0931  0.1645
  212POPE   GL1 2557  13.188   0.567  18.226  0.1410  0.0934  0.2089
  212POPE   GL2 2558  13.170   0.262  18.454  0.0180 -0.2067  0.2659
  212POPE   C1A 2559  13.093   0.252  17.836  0.0502 -0.3012  0.0490
  212POPE   D2A 2560  12.922  35.304  17.533  0.0294 -0.0600  0.0088
  212POPE   C3A 2561  12.499  35.300  17.180  0.0662  0.0830 -0.3449
  212POPE   C4A 2562  12.365  35.014  16.945  0.0350  0.0048  0.1283
  212POPE   C1B 2563  13.110  35.229  18.188  0.1693  0.0510  0.0931
  212POPE   C2B 2564  12.914  34.970  17.939 -0.3735 -0.1635 -0.0479
  212POPE   C3B 2565  12.795  34.795  17.510  0.0376 -0.0671 -0.0266
  212POPE   C4B 2566  13.116  34.529  17.301 -0.4859 -0.4417  0.1745
  213POPE   NH3 2567  17.410  24.080  20.650  0.2249 -0.0881 -0.1445
  213POPE   PO4 2568  17.785  24.209  20.478 -0.1021  0.0177 -0.0447
  213POPE   GL1 2569  17.394  24.342  20.244 -0.1646  0.0213 -0.1628
  213POPE   GL2 2570  17.199  24.463  20.387  0.2077  0.0328 -0.0002
  213POPE   C1A 2571  17.252  24.340  19.812 -0.0425  0.1627 -0.2964
  213POPE   D2A 2572  16.864  24.288  19.613 -0.0324  0.1158  0.1062
  213POPE   C3A 2573  16.715  24.412  19.185  0.3258  0.1685 -0.0507
  213POPE   C4A 2574  16.520  24.770  19.145  0.0776  0.1399  0.0598
  213POPE   C1B 2575  16.900  24.242  20.131 -0.0504 -0.0440  0.3005
  213POPE   C2B 2576  16.662  23.988  19.950 -0.2879 -0.0792 -0.0636
  213POPE   C3B 2577  16.391  24.167  19.562 -0.0882 -0.0968 -0.1574
  213POPE   C4B 2578  16.255  24.154  19.096  0.0880 -0.1414 -0.0121
  214POPE   NH3 2579   3.723   4.843  16.496  0.1664  0.1111  0.0427
  214POPE   PO4 2580   3.329   5.070  16.200 -0.0094  0.1072 -0.2969
  214POPE   GL1 2581   3.783   5.158  16.089  0.1523  0.2220  0.3396
  214POPE   GL2 2582   3.787   5.125  15.724  0.1922  0.0115  0.1719
  214POPE   C1A 2583   4.227   5.267  16.116  0.3423 -0.0633  0.0849
  214POPE   D2A 2584   4.567   5.174  15.855 -0.1243  0.3171  0.2561
  214POPE   C3A 2585   4.916   5.263  16.032 -0.2521 -0.1401 -0.1157
  214POPE   C4A 2586   5.208   5.507  16.100  0.0815 -0.1218 -0.0560
  214POPE   C1B 2587   4.203   4.869  15.753 -0.0567 -0.0240 -0.3794
  214POPE   C2B 2588   4.589   4.798  15.578 -0.0947 -0.0523  0.0499
  214POPE   C3B 2589   4.942   4.602  15.480  0.0923 -0.1308 -0.1429
  214POPE   C4B 2590   5.223   4.391  15.298 -0.1475 -0.1194  0.3405
  215POPE   NH3 2591   1.764  12.274  12.063  0.0581  0.0288  0.2014
  215POPE   PO4 2592   1.746  12.747  12.093 -0.1385  0.1352  0.1094
  215POPE   GL1 2593   2.206  12.530  12.000  0.0595 -0.1310  0.1018
  215POPE   GL2 2594   2.174  12.350  11.782 -0.0150 -0.1344  0.1514
  215POPE   C1A 2595   2.624  12.503  11.955  0.1955  0.0507  0.0026
  215POPE   D2A 2596   2.979  12.397  11.762  0.1814 -0.0617 -0.1140
  215POPE   C3A 2597   3.430  12.511  11.845 -0.0153 -0.2792  0.3213
  215POPE   C4A 2598   3.783  12.527  11.622  0.3312  0.0350  0.0376
  215POPE   C1B 2599   2.478  12.342  11.531 -0.1433 -0.3923  0.2964
  215POPE   C2B 2600   2.876  12.261  11.283  0.0551  0.0983 -0.0123
  215POPE   C3B 2601   3.026  11.948  10.927 -0.1048  0.2762 -0.0575
  215POPE   C4B 2602   3.294  11.921  10.644 -0.1425  0.2075 -0.3758
  216POPE   NH3 2603   4.012  13.182  15.092 -0.1069  0.0016 -0.1792
  216POPE   PO4 2604   3.809  13.214  14.689  0.1336  0.0588  0.0758
  216POPE   GL1 2605   3.942  13.207  14.446 -0.1567 -0.2552  0.0009
  216POPE   GL2 2606   3.743  13.174  14.187 -0.0129  0.4334  0.2051
  216POPE   C1A 2607   4.281  13.549  14.320  0.0421  0.0188  0.0035
  216POPE   D2A 2608   4.602  13.900  14.369  0.0782  0.0845 -0.0305
  216POPE   C3A 2609   4.902  13.970  14.071 -0.1211 -0.0647 -0.0254
  216POPE   C4A 2610   5.116  14.115  13.668 -0.0913 -0.0007 -0.3663
  216POPE   C1B 2611   3.961  13.095  13.954  0.1660  0.2376 -0.2973
  216POPE   C2B 2612   4.179  13.386  13.846 -0.0437  0.0226 -0.3090
  216POPE   C3B 2613   4.560  13.585  13.866  0.0239  0.1186  0.0771
  216POPE   C4B 2614   4.543  13.950  13.671  0.2915  0.3136  0.0406
  217POPE   NH3 2615   9.800   1.992  19.741  0.0465 -0.1741 -0.1475
  217POPE   PO4 2616   9.850   1.543  19.930  0.1170  0.1187 -0.1145
  217POPE   GL1 2617   9.755   1.477  19.560 -0.2008 -0.1543 -0.0912
  217POPE   GL2 2618   9.426   1.443  19.517  0.2077  0.1170 -0.0704
  217POPE   C1A 2619   9.883   1.196  19.112 -0.3820  0.0193  0.0084
  217POPE   D2A 2620   9.854   0.957  18.793 -0.1611  0.0357  0.1441
  217POPE   C3A 2621  10.161   0.803  18.562 -0.1229 -0.2024  0.1273
  217POPE   C4A 2622  10.323   0.622  18.268 -0.2447  0.1393 -0.1972
  217POPE   C1B 2623   9.351   1.247  19.082 -0.2102  0.1854  0.2661
  217POPE   C2B 2624   9.513   1.333  18.749 -0.0653 -0.0598 -0.1626
  217POPE   C3B 2625   9.862   1.258  18.411 -0.1137  0.1869 -0.0010
  217POPE   C4B 2626   9.721   1.426  17.998 -0.1418 -0.0621 -0.0362
  218POPE   NH3 2627  15.952  28.562  20.705 -0.2562 -0.0833 -0.0442
  218POPE   PO4 2628  15.858  28.890  20.950 -0.0707 -0.0410  0.0782
  218POPE   GL1 2629  15.561  28.796  20.490 -0.0099 -0.1600 -0.0657
  218POPE   GL2 2630  15.167  28.727  20.352 -0.0078 -0.0462 -0.0045
  218POPE   C1A 2631  15.669  28.637  20.112 -0.1205 -0.2759  0.1277
  218POPE   D2A 2632  15.501  28.493  19.695 -0.1866  0.1598 -0.1686
  218POPE   C3A 2633  15.424  28.651  19.338  0.1397 -0.1150  0.3429
  218POPE   C4A 2634  15.226  28.683  18.803 -0.0566  0.0175  0.0850
  218POPE   C1B 2635  15.101  28.614  19.946 -0.0448  0.0246 -0.2563
  218POPE   C2B 2636  14.998  28.682  19.588 -0.0293  0.2968 -0.0690
  218POPE   C3B 2637  14.591  28.550  19.482 -0.1975  0.0051  0.0256
  218POPE   C4B 2638  14.172  28.343  19.638  0.1206 -0.0954  0.0639
  219POPE   NH3 2639  23.666  19.559  11.570 -0.2680 -0.0813  0.2214
  219POPE   PO4 2640  23.713  19.290  11.213  0.0976  0.1520 -0.2175
  219POPE   GL1 2641  23.341  19.393  10.946  0.2800 -0.1938 -0.1377
  219POPE   GL2 2642  23.067  19.305  11.041  0.1009 -0.3333 -0.0750
  219POPE   C1A 2643  23.065  19.614  10.666  0.1660  0.1426 -0.1873
  219POPE   D2A 2644  22.573  19.659  10.527  0.1431  0.1878 -0.3006
  219POPE   C3A 2645  22.370  19.977  10.337 -0.0372 -0.0419 -0.1581
  219POPE   C4A 2646  22.122  20.222  10.082 -0.2635 -0.3542 -0.1890
  219POPE   C1B 2647  22.693  19.617  10.994 -0.1930 -0.0406  0.0541
  219POPE   C2B 2648  22.296  19.545  10.987 -0.4084 -0.1391  0.2555
  219POPE   C3B 2649  22.086  19.771  10.834  0.0468  0.0221 -0.1317
  219POPE   C4B 2650  21.941  20.089  10.628 -0.0358 -0.3061  0.0651
  220POPE   NH3 2651  13.254   1.606  18.386 -0.1047 -0.1148 -0.0858
  220POPE   PO4 2652  13.550   1.313  18.298 -0.3930  0.1385 -0.1777
  220POPE   GL1 2653  13.217   1.149  18.144  0.0067  0.0619 -0.1959
  220POPE   GL2 2654  12.943   1.253  18.150 -0.0843 -0.0521 -0.1764
  220POPE   C1A 2655  12.948   0.868  17.802 -0.0267 -0.0699  0.0009
  220POPE   D2A 2656  12.856   0.481  17.452 -0.3196 -0.1707 -0.2228
  220POPE   C3A 2657  12.484   0.499  17.211  0.2354  0.2358 -0.0078
  220POPE   C4A 2658  12.139   0.238  17.256 -0.0630 -0.2741 -0.1554
  220POPE   C1B 2659  12.498   1.029  18.028  0.2297  0.2620 -0.1764
  220POPE   C2B 2660  12.411   0.843  17.620 -0.2407  0.1192  0.2555
  220POPE   C3B 2661  12.155   0.820  17.248  0.2582  0.0322  0.0252
  220POPE   C4B 2662  11.828   0.794  17.117 -0.0380  0.0764  0.0380
  221POPE   NH3 2663  23.690  28.697   9.984 -0.0594  0.2193 -0.1899
  221POPE   PO4 2664  23.341  28.799  10.108 -0.2143  0.0419  0.0179
  221POPE   GL1 2665  23.041  28.927   9.763 -0.1591 -0.3027 -0.0531
  221POPE   GL2 2666  22.904  28.675   9.684 -0.0151 -0.0674  0.0115
  221POPE   C1A 2667  22.893  29.007   9.321 -0.0325 -0.0507 -0.1680
  221POPE   D2A 2668  22.738  29.076   9.116 -0.0715 -0.0024 -0.1932
  221POPE   C3A 2669  22.873  28.955   8.734  0.3616 -0.1676  0.3978
  221POPE   C4A 2670  23.236  29.019   8.530 -0.0278 -0.2246 -0.1962
  221POPE   C1B 2671  22.501  28.578   9.356  0.2231  0.2422 -0.0524
  221POPE   C2B 2672  22.472  28.613   8.939 -0.0061 -0.2151 -0.0235
  221POPE   C3B 2673  22.420  28.685   8.520 -0.1564  0.0146 -0.0957
  221POPE   C4B 2674  22.535  29.047   8.398  0.3269 -0.0450 -0.2035
  222POPE   NH3 2675  13.477  24.315  21.906 -0.0211  0.1437 -0.0510
  222POPE   PO4 2676  13.771  24.584  21.647 -0.3188 -0.0150 -0.0664
  222POPE   GL1 2677  13.930  24.517  21.338 -0.0110 -0.0174  0.0254
  222POPE   GL2 2678  14.180  24.745  21.195  0.1618  0.1438 -0.1261
  222POPE   C1A 2679  13.910  24.405  20.886  0.2630 -0.1597 -0.0005
  222POPE   D2A 2680  13.990  24.458  20.453 -0.3353  0.0823  0.0516
  222POPE   C3A 2681  13.647  24.508  20.139 -0.0973 -0.0901  0.1275
  222POPE   C4A 2682  13.348  24.912  20.216 -0.2169  0.2977  0.2511
  222POPE   C1B 2683  14.140  24.844  20.756  0.0679  0.2397 -0.0143
  222POPE   C2B 2684  14.012  24.951  20.345  0.0938 -0.0674  0.1185
  222POPE   C3B 2685  13.788  25.101  20.082 -0.1886  0.1285 -0.1955
  222POPE   C4B 2686  14.058  25.256  19.627  0.0996 -0.1747 -0.0838
  223POPE   NH3 2687  28.276  16.495   4.282 -0.1206  0.2454 -0.1946
  223POPE   PO4 2688  28.442  16.466   3.895 -0.1207 -0.0228 -0.1130
  223POPE   GL1 2689  28.623  16.419   3.541  0.1583 -0.0069 -0.0601
  223POPE   GL2 2690  28.893  16.484   3.590 -0.0551  0.2792  0.1808
  223POPE   C1A 2691  28.504  16.391   3.094 -0.3607  0.0081  0.0143
  223POPE   D2A 2692  28.339  16.662   2.858 -0.1239 -0.1189  0.1190
  223POPE   C3A 2693  28.032  16.686   2.573  0.0797 -0.0831  0.2834
  223POPE   C4A 2694  27.863  16.438   2.270 -0.2445 -0.0189 -0.0366
  223POPE   C1B 2695  29.016  16.457   3.222  0.2519  0.0865 -0.3581
  223POPE   C2B 2696  28.994  16.487   2.811 -0.1198  0.1334  0.1751
  223POPE   C3B 2697  28.643  16.280   2.558 -0.4826  0.1267  0.1025
  223POPE   C4B 2698  28.269  16.262   2.472 -0.0453  0.1334  0.0725
  224POPE   NH3 2699   3.315   4.996  15.638  0.0691 -0.0692  0.0052
  224POPE   PO4 2700   3.072   5.364  15.482 -0.0271  0.1697  0.2508
  224POPE   GL1 2701   3.516   5.511  15.281  0.1901  0.1094  0.0134
  224POPE   GL2 2702   3.687   5.891  15.259  0.0256  0.1262  0.1571
  224POPE   C1A 2703   3.821   5.448  15.027 -0.1871 -0.1350 -0.0053
  224POPE   D2A 2704   4.306   5.469  14.840 -0.0678 -0.0951 -0.1776
  224POPE   C3A 2705   4.309   5.710  14.446  0.1574 -0.2885 -0.0834
  224POPE   C4A 2706   4.457   5.996  14.162  0.3218  0.1050  0.4092
  224POPE   C1B 2707   4.049   5.890  15.043 -0.0114 -0.1446 -0.0310
  224POPE   C2B 2708   4.320   6.095  14.711  0.0552 -0.0062 -0.2055
  224POPE   C3B 2709   4.738   6.023  14.630 -0.0794  0.2963 -0.0635
  224POPE   C4B 2710   5.031   5.692  14.594  0.1391 -0.1416 -0.0057
  225POPE   NH3 2711  22.262  26.520  13.127  0.2900  0.0734 -0.1678
  225POPE   PO4 2712  22.502  26.279  13.228  0.0808  0.3795  0.0719
  225POPE   GL1 2713  22.233  26.103  12.866 -0.1260 -0.0061 -0.0528
  225POPE   GL2 2714  21.963  26.107  12.941  0.1877 -0.1649  0.1848
  225POPE   C1A 2715  22.208  25.898  12.507  0.1627 -0.2304  0.0174
  225POPE   D2A 2716  22.024  25.640  12.278 -0.2410  0.0030  0.2579
  225POPE   C3A 2717  21.770  25.713  11.957 -0.2337 -0.2693  0.1194
  225POPE   C4A 2718  21.601  25.673  11.609  0.0631 -0.0491 -0.0177
  225POPE   C1B 2719  21.678  25.909  12.603 -0.0271 -0.0379  0.0399
  225POPE   C2B 2720  21.453  25.681  12.288  0.2073  0.0576  0.3624
  225POPE   C3B 2721  21.230  25.728  11.962 -0.0766 -0.1312 -0.1699
  225POPE   C4B 2722  21.182  25.928  11.534  0.2924 -0.2654  0.0217
  226DOPE   NH3 2723  17.990   3.473  16.189  0.0021  0.1456 -0.0501
  226DOPE   PO4 2724  17.874   3.861  16.504 -0.3214  0.1976 -0.1174
  226DOPE   GL1 2725  17.711   3.984  16.128 -0.2711 -0.0861 -0.0405
  226DOPE   GL2 2726  17.543   3.817  15.958  0.2069  0.5117 -0.1093
  226DOPE   C1A 2727  17.314   4.303  15.980  0.3700  0.0737 -0.0663
  226DOPE   D2A 2728  17.111   4.387  15.673 -0.0204  0.3459 -0.0565
  226DOPE   C3A 2729  17.107   4.670  15.381 -0.1523  0.3289  0.1044
  226DOPE   C4A 2730  17.125   4.758  15.027 -0.2197 -0.3742  0.0721
  226DOPE   C1B 2731  17.532   4.015  15.615  0.0814  0.1118  0.1085
  226DOPE   D2B 2732  17.354   4.227  15.269 -0.1166 -0.0255  0.1965
  226DOPE   C3B 2733  17.279   4.121  14.812 -0.0522 -0.2970 -0.0428
  226DOPE   C4B 2734  17.096   4.352  14.516 -0.0322 -0.1278  0.0454
  227DOPE   NH3 2735   5.420   2.105  18.044 -0.1165 -0.0158 -0.1923
  227DOPE   PO4 2736   5.801   1.914  18.137 -0.0986  0.0996 -0.2516
  227DOPE   GL1 2737   6.063   2.142  17.874  0.1686 -0.0914  0.4352
  227DOPE   GL2 2738   6.354   2.015  17.874  0.1350 -0.0090  0.1200
  227DOPE   C1A 2739   6.278   2.109  17.421 -0.2586  0.0127 -0.0161
  227DOPE   D2A 2740   6.719   2.045  17.345 -0.1879 -0.0531 -0.1158
  227DOPE   C3A 2741   7.048   2.115  17.012  0.2938  0.1402 -0.0961
  227DOPE   C4A 2742   7.461   2.027  17.059 -0.1227 -0.0330  0.3077
  227DOPE   C1B 2743   6.763   1.845  17.888  0.0138 -0.1420  0.1936
  227DOPE   D2B 2744   6.939   1.530  17.729 -0.1096  0.1658 -0.1022
  227DOPE   C3B 2745   6.898   1.609  17.383 -0.3335  0.1520 -0.1169
  227DOPE   C4B 2746   7.128   1.621  16.907  0.2458  0.1394 -0.0106
  228DOPE   NH3 2747   6.891  28.137  20.719 -0.1030  0.0910  0.0600
  228DOPE   PO4 2748   7.158  27.880  20.797 -0.1560 -0.2523 -0.0432
  228DOPE   GL1 2749   7.258  28.039  20.377  0.1620 -0.0565  0.1630
  228DOPE   GL2 2750   7.585  27.764  20.423  0.0154  0.1488 -0.1555
  228DOPE   C1A 2751   7.402  28.035  20.023 -0.1982 -0.0567 -0.1443
  228DOPE   D2A 2752   7.425  27.789  19.684 -0.0327 -0.1118 -0.1343
  228DOPE   C3A 2753   7.420  27.845  19.283 -0.1555  0.0517 -0.2691
  228DOPE   C4A 2754   7.500  27.688  18.905 -0.1412  0.1845  0.3478
  228DOPE   C1B 2755   7.832  27.831  19.999  0.0517  0.2887  0.1132
  228DOPE   D2B 2756   7.914  27.848  19.518 -0.0497  0.0842  0.0425
  228DOPE   C3B 2757   8.074  27.442  19.255  0.1060 -0.0450 -0.2745
  228DOPE   C4B 2758   8.245  27.305  18.933 -0.1653  0.0731 -0.1839
  229DOPE   NH3 2759  17.788  32.051  16.313 -0.0014 -0.2073 -0.1355
  229DOPE   PO4 2760  18.117  32.421  16.115 -0.0214  0.4196  0.1064
  229DOPE   GL1 2761  17.772  32.535  15.984 -0.2104 -0.3253 -0.0266
  229DOPE   GL2 2762  17.762  32.888  15.837  0.2521 -0.2016 -0.3627
  229DOPE   C1A 2763  17.432  32.589  15.687 -0.1633  0.0087  0.3316
  229DOPE   D2A 2764  17.055  32.842  15.472  0.0437  0.0385  0.3940
  229DOPE   C3A 2765  16.691  32.835  15.282  0.2558  0.2326  0.0962
  229DOPE   C4A 2766  16.445  33.100  14.903  0.0769  0.1126 -0.0446
  229DOPE   C1B 2767  17.575  33.192  15.624  0.2233  0.2105 -0.1891
  229DOPE   D2B 2768  17.590  33.273  15.195 -0.3753 -0.0306  0.1498
  229DOPE   C3B 2769  17.279  33.124  14.946  0.0531 -0.2123  0.2040
  229DOPE   C4B 2770  16.899  33.139  14.628  0.0597  0.0608  0.0585
  230DOPE   NH3 2771   7.913  34.943  20.030 -0.4657  0.0034  0.1051
  230DOPE   PO4 2772   8.061  35.277  19.948 -0.2414 -0.1694  0.0630
  230DOPE   GL1 2773   8.236  35.309  19.628  0.0391  0.3033 -0.1133
  230DOPE   GL2 2774   8.159   0.062  19.315  0.1368 -0.0620 -0.2259
  230DOPE   C1A 2775   8.353  34.984  19.276 -0.0191 -0.2119  0.2311
  230DOPE   D2A 2776   8.625  34.851  19.030  0.1296  0.1603  0.2312
  230DOPE   C3A 2777   8.684  34.523  18.795 -0.2494  0.0334 -0.0445
  230DOPE   C4A 2778   8.847  34.253  18.689  0.0678  0.1146 -0.2859
  230DOPE   C1B 2779   8.517   0.150  19.280 -0.1172  0.0712  0.0045
  230DOPE   D2B 2780   8.918  35.245  19.216  0.1236  0.0028  0.0315
  230DOPE   C3B 2781   8.907  35.179  18.776 -0.1422  0.0093  0.0397
  230DOPE   C4B 2782   8.704  35.315  18.411  0.2010  0.1097  0.2242
  231DOPE   NH3 2783  10.957   6.692  19.710  0.0875  0.1708 -0.2837
  231DOPE   PO4 2784  11.131   6.921  19.300 -0.0678 -0.2380 -0.2616
  231DOPE   GL1 2785  11.034   6.799  18.886 -0.1007 -0.0622  0.1314
  231DOPE   GL2 2786  10.700   6.635  18.801  0.0874 -0.2080 -0.1751
  231DOPE   C1A 2787  11.078   7.065  18.520 -0.2078  0.0175  0.0948
  231DOPE   D2A 2788  11.207   7.385  18.301  0.1138  0.2430  0.0894
  231DOPE   C3A 2789  11.195   7.524  17.900 -0.1672 -0.0130 -0.2375
  231DOPE   C4A 2790  11.397   7.872  17.747 -0.1326 -0.1999  0.1771
  231DOPE   C1B 2791  10.577   6.881  18.401  0.0047  0.0325  0.3055
  231DOPE   D2B 2792  10.505   6.920  17.895  0.0627  0.2770  0.2418
  231DOPE   C3B 2793  10.105   7.000  17.829 -0.3292 -0.3021  0.2859
  231DOPE   C4B 2794  10.020   7.123  17.355  0.0551 -0.1131 -0.3259
  232DOPE   NH3 2795  15.487  10.336  18.616  0.0251  0.1340  0.3211
  232DOPE   PO4 2796  15.741  10.150  18.297 -0.0962 -0.0983  0.1266
  232DOPE   GL1 2797  15.364  10.272  18.104  0.2187 -0.1303 -0.1923
  232DOPE   GL2 2798  15.238  10.435  17.922  0.0373 -0.0421 -0.1683
  232DOPE   C1A 2799  15.263   9.969  17.724 -0.2257 -0.3245 -0.3294
  232DOPE   D2A 2800  14.914  10.112  17.352 -0.0655  0.0380  0.1739
  232DOPE   C3A 2801  14.868   9.955  16.991  0.1657  0.4314  0.1038
  232DOPE   C4A 2802  15.129  10.063  16.675  0.1232 -0.0982  0.2219
  232DOPE   C1B 2803  15.333  10.445  17.450  0.1053 -0.1565  0.0866
  232DOPE   D2B 2804  15.575  10.592  17.225 -0.1201  0.2471 -0.2473
  232DOPE   C3B 2805  15.754  10.435  16.884 -0.1109  0.3749 -0.0278
  232DOPE   C4B 2806  15.946  10.580  16.559  0.0843 -0.0813 -0.1487
  233DOPE   NH3 2807  24.887  20.500   8.637 -0.3806 -0.1458  0.0917
  233DOPE   PO4 2808  24.928  20.949   8.693 -0.1095 -0.1224  0.3272
  233DOPE   GL1 2809  24.495  20.853   8.695  0.1731 -0.1330  0.0947
  233DOPE   GL2 2810  24.439  20.572   8.347  0.0557 -0.0250 -0.2659
  233DOPE   C1A 2811  23.993  20.953   8.589 -0.0436  0.0654 -0.2324
  233DOPE   D2A 2812  23.582  20.944   8.464 -0.1757 -0.3101 -0.2700
  233DOPE   C3A 2813  23.278  20.821   8.080 -0.0575 -0.1497 -0.4858
  233DOPE   C4A 2814  22.951  20.752   7.802  0.3037 -0.0378 -0.0681
  233DOPE   C1B 2815  24.068  20.682   8.213 -0.0761 -0.2047 -0.1315
  233DOPE   D2B 2816  23.719  20.804   7.876 -0.2384 -0.0396  0.1845
  233DOPE   C3B 2817  23.859  20.996   7.488 -0.0875  0.2901 -0.4545
  233DOPE   C4B 2818  23.799  21.196   7.073 -0.2557  0.0385  0.1243
  234DOPE   NH3 2819   9.065  31.384  20.687  0.0071  0.2499 -0.1952
  234DOPE   PO4 2820   8.780  31.177  20.670 -0.1175 -0.0440 -0.1802
  234DOPE   GL1 2821   8.661  31.284  20.323  0.0088 -0.0591 -0.1262
  234DOPE   GL2 2822   8.913  31.331  20.248 -0.0101  0.1512 -0.1358
  234DOPE   C1A 2823   8.506  31.456  19.886  0.0305  0.2082  0.0422
  234DOPE   D2A 2824   8.248  31.447  19.459  0.4324 -0.1521 -0.0128
  234DOPE   C3A 2825   7.923  31.416  19.169  0.3972 -0.0059  0.3336
  234DOPE   C4A 2826   7.707  31.698  18.801 -0.1118  0.3010 -0.1161
  234DOPE   C1B 2827   8.923  31.187  19.904 -0.0964  0.0520  0.0781
  234DOPE   D2B 2828   8.814  31.201  19.467 -0.1661 -0.1575 -0.0115
  234DOPE   C3B 2829   8.799  31.605  19.296 -0.2007 -0.1135 -0.3830
  234DOPE   C4B 2830   8.885  31.970  19.046  0.2041 -0.0387 -0.2201
  235DOPE   NH3 2831  34.231   1.869  13.152  0.0280  0.0420 -0.2082
  235DOPE   PO4 2832  34.008   1.656  12.992  0.1012 -0.1349  0.0941
  235DOPE   GL1 2833  34.162   1.439  12.621  0.1383  0.0941 -0.0481
  235DOPE   GL2 2834  34.304   1.290  12.366 -0.1331 -0.2773 -0.0797
  235DOPE   C1A 2835  34.210   1.779  12.281  0.2508 -0.1076 -0.0023
  235DOPE   D2A 2836  34.371   1.700  11.911  0.2894 -0.2236  0.1627
  235DOPE   C3A 2837  34.748   1.511  11.553 -0.0568  0.0808 -0.0342
  235DOPE   C4A 2838  34.836   1.444  11.093  0.1168 -0.3731 -0.0967
  235DOPE   C1B 2839  34.508   1.190  11.931 -0.2803  0.3731  0.0586
  235DOPE   D2B 2840  34.824   1.008  11.697 -0.1072  0.1827 -0.1706
  235DOPE   C3B 2841  35.121   1.230  11.475  0.0438  0.1349 -0.0466
  235DOPE   C4B 2842   0.204   1.113  11.365 -0.0898  0.0955  0.3078
  236DOPE   NH3 2843  11.014  18.842  20.461 -0.0860 -0.0058 -0.0546
  236DOPE   PO4 2844  10.620  18.812  20.380 -0.0987 -0.2968  0.1883
  236DOPE   GL1 2845  10.820  18.644  20.033  0.0028  0.1637 -0.1852
  236DOPE   GL2 2846  11.176  18.705  19.990 -0.1295  0.2639 -0.2729
  236DOPE   C1A 2847  10.804  18.732  19.633  0.0663 -0.1821 -0.1636
  236DOPE   D2A 2848  10.683  19.098  19.386  0.0606 -0.2461  0.0688
  236DOPE   C3A 2849  10.527  19.411  19.399 -0.0050 -0.0876 -0.3069
  236DOPE   C4A 2850  10.490  19.886  19.256 -0.2043  0.1351 -0.2491
  236DOPE   C1B 2851  11.373  18.799  19.628 -0.0459 -0.1724  0.0873
  236DOPE   D2B 2852  11.499  18.920  19.281 -0.0623 -0.0365 -0.0590
  236DOPE   C3B 2853  11.917  19.039  18.988  0.1118  0.1583 -0.4143
  236DOPE   C4B 2854  12.150  19.355  18.797  0.3751 -0.2260  0.1382
  237DOPE   NH3 2855  11.578  32.718  20.877  0.2610  0.0152 -0.3227
  237DOPE   PO4 2856  11.319  32.345  20.802 -0.0659 -0.3615  0.0118
  237DOPE   GL1 2857  11.449  31.980  20.406 -0.0872  0.0365  0.0814
  237DOPE   GL2 2858  11.579  32.157  20.162  0.0609 -0.3559  0.1230
  237DOPE   C1A 2859  11.446  31.482  20.202 -0.2312  0.0188 -0.1149
  237DOPE   D2A 2860  11.355  31.008  20.342  0.2539  0.2126  0.1266
  237DOPE   C3A 2861  11.353  30.770  19.962  0.1655 -0.1698  0.1405
  237DOPE   C4A 2862  11.566  30.330  19.749 -0.1960 -0.1691  0.0524
  237DOPE   C1B 2863  11.310  31.857  19.849  0.1469 -0.2201 -0.0862
  237DOPE   D2B 2864  11.170  31.653  19.461 -0.3305 -0.1655  0.0370
  237DOPE   C3B 2865  11.257  31.840  19.087 -0.2639 -0.2004  0.0457
  237DOPE   C4B 2866  11.181  31.817  18.685  0.0782 -0.0214 -0.1158
  238DOPE   NH3 2867  12.192  21.486  21.779  0.0794  0.0052 -0.2404
  238DOPE   PO4 2868  12.588  21.499  21.577 -0.1462 -0.2512 -0.2378
  238DOPE   GL1 2869  12.280  21.708  21.319 -0.0898 -0.2066  0.0244
  238DOPE   GL2 2870  11.985  21.751  21.365  0.1236 -0.1172  0.2267
  238DOPE   C1A 2871  12.171  21.765  20.956  0.0585  0.2279 -0.0048
  238DOPE   D2A 2872  12.240  21.945  20.668 -0.3224  0.1265  0.1414
  238DOPE   C3A 2873  11.980  21.770  20.373 -0.0862 -0.1565  0.1551
  238DOPE   C4A 2874  11.634  21.766  20.152 -0.2545  0.1346 -0.0519
  238DOPE   C1B 2875  11.672  21.649  21.065  0.2948 -0.3673 -0.0050
  238DOPE   D2B 2876  11.551  21.625  20.619 -0.2451 -0.1169  0.1076
  238DOPE   C3B 2877  11.201  21.834  20.413  0.1693 -0.0664  0.2006
  238DOPE   C4B 2878  10.891  21.919  20.154  0.2677  0.2709 -0.3557
  239DOPE   NH3 2879  23.634  16.784  11.027 -0.2111  0.0450 -0.1795
  239DOPE   PO4 2880  23.876  16.891  11.375  0.1317 -0.0535 -0.0682
  239DOPE   GL1 2881  23.452  17.216  11.304 -0.1626 -0.0445 -0.1334
  239DOPE   GL2 2882  23.367  17.390  10.964 -0.2159  0.1911 -0.0452
  239DOPE   C1A 2883  23.088  17.387  11.485 -0.0995 -0.1824  0.0828
  239DOPE   D2A 2884  22.735  17.459  11.309 -0.2218  0.0474  0.1861
  239DOPE   C3A 2885  22.867  17.794  11.054  0.2905  0.0168  0.1120
  239DOPE   C4A 2886  22.731  18.013  10.666  0.1224 -0.1632 -0.0853
  239DOPE   C1B 2887  23.247  17.206  10.661  0.0236  0.0703  0.1432
  239DOPE   D2B 2888  23.360  16.756  10.602  0.0397  0.0205  0.2315
  239DOPE   C3B 2889  22.964  16.492  10.548  0.4719  0.0532  0.0970
  239DOPE   C4B 2890  22.757  16.162  10.661 -0.1574  0.0077 -0.2852
  240DOPE   NH3 2891   2.873  21.996  12.392  0.0707 -0.1784  0.1444
  240DOPE   PO4 2892   2.585  22.217  12.204  0.0230  0.1088 -0.0515
  240DOPE   GL1 2893   2.850  22.532  12.317  0.0743  0.1026  0.4504
  240DOPE   GL2 2894   2.592  22.797  12.312 -0.0854  0.0460 -0.3689
  240DOPE   C1A 2895   3.194  22.718  12.026  0.0231 -0.3509 -0.0498
  240DOPE   D2A 2896   3.573  22.846  11.794  0.0752  0.0744 -0.0377
  240DOPE   C3A 2897   3.731  23.275  11.873  0.1621  0.0786 -0.0039
  240DOPE   C4A 2898   3.833  23.584  12.174  0.0430 -0.3082  0.0249
  240DOPE   C1B 2899   2.823  23.086  12.138 -0.3618 -0.1316  0.1552
  240DOPE   D2B 2900   3.189  23.303  12.106  0.1954 -0.3735 -0.2533
  240DOPE   C3B 2901   3.365  23.653  11.935 -0.1472 -0.3364 -0.1248
  240DOPE   C4B 2902   3.630  24.025  11.992  0.0038 -0.1164  0.0385
  241DOPE   NH3 2903  12.135  32.886  20.948 -0.2700  0.2437  0.2368
  241DOPE   PO4 2904  12.320  32.473  20.663  0.0848  0.1362 -0.0026
  241DOPE   GL1 2905  12.437  32.515  20.264 -0.0553 -0.0037 -0.1839
  241DOPE   GL2 2906  12.650  32.330  20.203  0.0102 -0.3119  0.3080
  241DOPE   C1A 2907  12.481  32.638  19.805 -0.1585  0.1928 -0.2114
  241DOPE   D2A 2908  12.333  32.737  19.441 -0.2320  0.0994  0.1770
  241DOPE   C3A 2909  12.423  32.541  19.030  0.3271 -0.2166 -0.0057
  241DOPE   C4A 2910  12.616  32.465  18.692 -0.4652 -0.4028  0.0711
  241DOPE   C1B 2911  12.546  32.168  19.834  0.2162 -0.2120 -0.2278
  241DOPE   D2B 2912  12.517  32.240  19.419 -0.2280  0.2861 -0.0218
  241DOPE   C3B 2913  12.567  32.008  19.071 -0.0773 -0.1738 -0.2028
  241DOPE   C4B 2914  12.862  32.063  18.761  0.3195 -0.0561 -0.0932
  242DOPE   NH3 2915  34.912  10.569   9.890 -0.1298 -0.2450  0.2100
  242DOPE   PO4 2916  35.068  10.127   9.829 -0.1580  0.1772 -0.2138
  242DOPE   GL1 2917   0.120  10.008   9.756 -0.4075  0.1046 -0.0319
  242DOPE   GL2 2918   0.268  10.219   9.875 -0.0352  0.1430 -0.4243
  242DOPE   C1A 2919   0.454  10.001   9.454 -0.0366  0.4250 -0.4457
  242DOPE   D2A 2920   0.718   9.779   9.177  0.1226 -0.0680 -0.0123
  242DOPE   C3A 2921   1.249   9.852   9.218 -0.1245 -0.1003 -0.0430
  242DOPE   C4A 2922   1.661   9.934   9.110  0.2039  0.4608  0.0703
  242DOPE   C1B 2923   0.458  10.475   9.635 -0.2107  0.1624  0.1333
  242DOPE   D2B 2924   0.697  10.499   9.254  0.0767 -0.2252 -0.1066
  242DOPE   C3B 2925   1.109  10.370   9.027 -0.0504 -0.2803  0.0687
  242DOPE   C4B 2926   1.188  10.237   8.673  0.0232 -0.1829 -0.0363
  243DOPE   NH3 2927   6.029   2.982  18.398 -0.2779 -0.0876  0.3385
  243DOPE   PO4 2928   6.036   3.454  18.325  0.0905 -0.0350 -0.2442
  243DOPE   GL1 2929   6.308   3.187  17.988  0.0414 -0.0604  0.2158
  243DOPE   GL2 2930   6.621   3.050  17.943 -0.0271  0.1565 -0.0658
  243DOPE   C1A 2931   6.446   3.225  17.475  0.2764 -0.0313  0.0447
  243DOPE   D2A 2932   6.271   3.482  17.154 -0.3299  0.1509 -0.2096
  243DOPE   C3A 2933   6.488   3.750  16.772  0.2182 -0.0934 -0.1141
  243DOPE   C4A 2934   6.402   3.769  16.340  0.1824 -0.0499 -0.2404
  243DOPE   C1B 2935   6.882   3.017  17.620  0.3010  0.1171  0.0522
  243DOPE   D2B 2936   7.051   3.163  17.272 -0.2682 -0.0427 -0.3227
  243DOPE   C3B 2937   6.758   3.297  16.922 -0.2615 -0.1061  0.3375
  243DOPE   C4B 2938   6.372   3.292  16.670  0.2080 -0.0447 -0.4236
  244DOPE   NH3 2939  28.588   0.243  10.884 -0.0300  0.2919 -0.2376
  244DOPE   PO4 2940  28.723   0.231  10.467  0.0443 -0.1836 -0.3353
  244DOPE   GL1 2941  28.768   0.365  10.092  0.1691 -0.0301  0.0045
  244DOPE   GL2 2942  28.642   0.772  10.065  0.0047  0.2617  0.0148
  244DOPE   C1A 2943  28.885   0.421   9.688 -0.2082  0.0880 -0.0809
  244DOPE   D2A 2944  29.251   0.435   9.404 -0.0872 -0.1823  0.1034
  244DOPE   C3A 2945  29.206   0.075   9.066 -0.0702 -0.0562  0.1254
  244DOPE   C4A 2946  29.308  35.216   8.707  0.0839 -0.2071  0.0310
  244DOPE   C1B 2947  28.602   0.915   9.616  0.3608  0.0276 -0.1883
  244DOPE   D2B 2948  28.815   0.847   9.339  0.0678 -0.1532 -0.0825
  244DOPE   C3B 2949  28.902   1.024   8.983 -0.1409  0.0804  0.2781
  244DOPE   C4B 2950  29.062   0.896   8.589  0.2455  0.0916  0.4111
  245DOPE   NH3 2951   3.510  21.890  15.814  0.0738  0.1933  0.1041
  245DOPE   PO4 2952   3.360  21.657  15.440 -0.1062 -0.0249  0.2584
  245DOPE   GL1 2953   3.651  21.996  15.278  0.1104  0.2603  0.0317
  245DOPE   GL2 2954   3.910  21.698  15.467  0.3454 -0.5247  0.0019
  245DOPE   C1A 2955   4.018  22.209  15.084 -0.1010 -0.2990 -0.1104
  245DOPE   D2A 2956   4.278  22.256  14.682 -0.0228 -0.2361 -0.0540
  245DOPE   C3A 2957   4.735  22.320  14.683 -0.1685 -0.2448 -0.0021
  245DOPE   C4A 2958   5.024  22.573  14.493 -0.2816  0.3209 -0.0213
  245DOPE   C1B 2959   4.298  21.852  15.392 -0.2388  0.1097 -0.0830
  245DOPE   D2B 2960   4.462  21.547  15.272 -0.0695  0.1724 -0.0412
  245DOPE   C3B 2961   4.790  21.515  15.155 -0.0179  0.1855  0.2480
  245DOPE   C4B 2962   5.180  21.542  15.034  0.0584 -0.4104 -0.0048
  246DOPE   NH3 2963  16.445  20.057  19.977  0.2135 -0.1833 -0.1048
  246DOPE   PO4 2964  16.011  19.981  20.174  0.2706 -0.1895 -0.1765
  246DOPE   GL1 2965  15.788  20.171  19.987 -0.0786  0.1313 -0.1502
  246DOPE   GL2 2966  15.507  20.325  20.191 -0.1132  0.1283 -0.2878
  246DOPE   C1A 2967  15.771  20.222  19.583  0.0704  0.3051 -0.1663
  246DOPE   D2A 2968  15.675  20.442  19.198 -0.1694 -0.0085  0.0649
  246DOPE   C3A 2969  15.459  20.481  18.910  0.1673  0.1053  0.0147
  246DOPE   C4A 2970  15.217  20.539  18.544  0.0784 -0.0650 -0.2110
  246DOPE   C1B 2971  15.310  20.610  19.960 -0.4035 -0.3071 -0.1008
  246DOPE   D2B 2972  15.445  20.858  19.542  0.0383 -0.1983  0.0571
  246DOPE   C3B 2973  15.204  21.176  19.224  0.1250 -0.0155  0.0511
  246DOPE   C4B 2974  15.244  20.997  18.773  0.0949  0.0855 -0.1214
  247DOPE   NH3 2975  22.075  28.285  12.242 -0.0531 -0.0343  0.2393
  247DOPE   PO4 2976  22.295  28.120  11.892 -0.1524 -0.1367 -0.0592
  247DOPE   GL1 2977  21.914  27.879  11.771  0.0581  0.0208 -0.2512
  247DOPE   GL2 2978  21.706  28.011  11.945 -0.0688  0.3816  0.1178
  247DOPE   C1A 2979  21.458  27.675  11.701  0.3199 -0.1389  0.0622
  247DOPE   D2A 2980  21.220  27.411  11.506  0.1619  0.1727 -0.2311
  247DOPE   C3A 2981  20.829  27.631  11.374  0.1031 -0.1130  0.1800
  247DOPE   C4A 2982  20.379  27.875  11.427  0.0548  0.0642  0.0773
  247DOPE   C1B 2983  21.487  27.701  12.183  0.0924 -0.0193  0.1818
  247DOPE   D2B 2984  21.092  27.652  12.208  0.0438  0.0481  0.0654
  247DOPE   C3B 2985  20.853  27.605  11.893 -0.0315  0.2398  0.3204
  247DOPE   C4B 2986  20.534  27.359  11.648  0.1062 -0.2648 -0.2473
  248DOPE   NH3 2987  22.473  22.141  14.736 -0.0179  0.3737 -0.0902
  248DOPE   PO4 2988  22.165  22.302  14.964 -0.0537 -0.3587  0.0175
  248DOPE   GL1 2989  21.818  22.435  14.717 -0.1444 -0.0313 -0.0936
  248DOPE   GL2 2990  21.806  22.708  14.407  0.2018 -0.1710  0.0011
  248DOPE   C1A 2991  21.573  22.275  14.412  0.0121 -0.2127  0.0368
  248DOPE   D2A 2992  21.256  22.070  14.264 -0.0346  0.2643  0.2345
  248DOPE   C3A 2993  21.053  22.110  13.974 -0.1390 -0.1376  0.1226
  248DOPE   C4A 2994  20.829  21.939  13.434 -0.0008  0.1530  0.0536
  248DOPE   C1B 2995  21.602  23.029  14.237 -0.1723 -0.2685  0.0754
  248DOPE   D2B 2996  21.284  23.153  13.850 -0.1080 -0.0713 -0.3411
  248DOPE   C3B 2997  20.907  23.072  13.966 -0.2972  0.1416 -0.1990
  248DOPE   C4B 2998  20.526  23.124  14.157 -0.4137 -0.0328 -0.0525
  249DOPE   NH3 2999   3.061  31.416  18.056 -0.1793 -0.0033  0.1740
  249DOPE   PO4 3000   2.758  31.592  17.987  0.2520  0.0387  0.3044
  249DOPE   GL1 3001   2.905  31.452  17.574 -0.1089 -0.1037 -0.0787
  249DOPE   GL2 3002   2.734  31.524  17.205 -0.2292 -0.1624  0.1105
  249DOPE   C1A 3003   3.226  31.620  17.412  0.1172  0.0130 -0.1081
  249DOPE   D2A 3004   3.449  31.782  17.151 -0.2194  0.1604 -0.2381
  249DOPE   C3A 3005   3.560  32.087  17.361  0.1459  0.0879  0.1641
  249DOPE   C4A 3006   3.665  32.256  17.774 -0.0917 -0.1483 -0.1574
  249DOPE   C1B 3007   3.114  31.574  16.900  0.0071  0.1463  0.1608
  249DOPE   D2B 3008   3.435  31.681  16.675 -0.2287 -0.2392 -0.2446
  249DOPE   C3B 3009   3.820  31.790  16.831  0.0648 -0.0627  0.0631
  249DOPE   C4B 3010   4.210  32.012  16.639 -0.0708  0.1847 -0.1058
  250DOPE   NH3 3011  22.607  22.233  13.810  0.2448  0.2460 -0.0349
  250DOPE   PO4 3012  22.586  22.181  13.302  0.0280  0.0926 -0.1134
  250DOPE   GL1 3013  22.202  22.195  13.363 -0.0386  0.0587 -0.0905
  250DOPE   GL2 3014  22.070  22.082  13.084 -0.1801  0.0962  0.1389
  250DOPE   C1A 3015  21.798  22.348  13.470  0.0391 -0.1696  0.3623
  250DOPE   D2A 3016  21.343  22.327  13.500  0.1272  0.0805 -0.1108
  250DOPE   C3A 3017  20.890  22.468  13.423  0.0358 -0.1975 -0.2789
  250DOPE   C4A 3018  20.672  22.896  13.441 -0.0885  0.4576 -0.1015
  250DOPE   C1B 3019  21.578  22.036  12.992 -0.1233  0.5303  0.0993
  250DOPE   D2B 3020  21.277  21.910  12.745 -0.0048 -0.0082 -0.3097
  250DOPE   C3B 3021  21.137  22.155  12.418 -0.0926 -0.1406  0.0747
  250DOPE   C4B 3022  21.185  22.375  12.074 -0.1291 -0.0642 -0.0506
  251DOPE   NH3 3023  32.629   8.646   9.928 -0.3966 -0.2767 -0.0946
  251DOPE   PO4 3024  32.302   8.298   9.922 -0.1497  0.0795 -0.1340
  251DOPE   GL1 3025  32.389   8.021   9.628  0.0989  0.2118  0.0205
  251DOPE   GL2 3026  32.335   7.697   9.553  0.1463  0.0184  0.1436
  251DOPE   C1A 3027  32.553   8.043   9.175  0.2804  0.3122  0.0589
  251DOPE   D2A 3028  32.728   8.077   8.764 -0.0736  0.1173 -0.0159
  251DOPE   C3A 3029  32.893   7.795   8.522  0.4552 -0.1366 -0.0226
  251DOPE   C4A 3030  32.995   7.360   8.428  0.1393 -0.0158 -0.1003
  251DOPE   C1B 3031  32.409   7.562   9.120  0.1432  0.0296 -0.0583
  251DOPE   D2B 3032  32.651   7.346   8.799 -0.1329 -0.4450  0.4613
  251DOPE   C3B 3033  32.591   7.058   8.592  0.3646 -0.0426 -0.1104
  251DOPE   C4B 3034  32.597   7.094   8.114 -0.0479 -0.0080  0.1685
  252DOPE   NH3 3035   4.803   6.267  17.235  0.0611  0.1202  0.0440
  252DOPE   PO4 3036   4.894   6.327  16.827  0.0367 -0.2711 -0.0934
  252DOPE   GL1 3037   5.245   6.135  16.757  0.0705 -0.0910 -0.0159
  252DOPE   GL2 3038   5.251   5.955  16.582  0.2483  0.0271  0.3144
  252DOPE   C1A 3039   5.646   6.222  16.546 -0.2778 -0.6238 -0.0848
  252DOPE   D2A 3040   5.991   6.116  16.371 -0.0251  0.0117  0.1274
  252DOPE   C3A 3041   6.315   6.286  16.192 -0.0230 -0.0203  0.0071
  252DOPE   C4A 3042   6.774   6.387  15.976  0.1947 -0.0643 -0.0423
  252DOPE   C1B 3043   5.541   5.821  16.256 -0.2653 -0.2588 -0.0365
  252DOPE   D2B 3044   5.947   5.599  16.115 -0.0771 -0.0811 -0.1632
  252DOPE   C3B 3045   6.331   5.783  16.161  0.2980  0.0585  0.2109
  252DOPE   C4B 3046   6.653   5.932  16.153  0.1347  0.0655  0.1474
  253DOPE   NH3 3047  22.418  11.568  14.000  0.2260 -0.0952 -0.0376
  253DOPE   PO4 3048  22.240  11.469  14.369  0.0461 -0.0220 -0.0259
  253DOPE   GL1 3049  21.888  11.290  14.068  0.0624 -0.1204 -0.3919
  253DOPE   GL2 3050  21.952  11.421  13.747 -0.0305 -0.0297 -0.2377
  253DOPE   C1A 3051  21.528  11.071  14.066 -0.0088  0.0509  0.0093
  253DOPE   D2A 3052  21.210  10.803  14.074  0.2678  0.0984  0.0611
  253DOPE   C3A 3053  20.913  10.823  13.752 -0.1347 -0.1528 -0.1264
  253DOPE   C4A 3054  20.718  10.677  13.386  0.0834  0.0321  0.3046
  253DOPE   C1B 3055  21.626  11.424  13.396 -0.0111  0.1843 -0.2608
  253DOPE   D2B 3056  21.413  11.387  13.010 -0.0459 -0.0468 -0.1792
  253DOPE   C3B 3057  21.219  11.674  12.823  0.2467  0.0417  0.0480
  253DOPE   C4B 3058  21.019  11.983  13.065 -0.0212  0.3532  0.1974
  254DOPE   NH3 3059  33.288   8.733   9.437  0.1752 -0.3268 -0.1370
  254DOPE   PO4 3060  32.882   8.737   9.328 -0.0622 -0.0715  0.2053
  254DOPE   GL1 3061  33.114   8.335   9.076 -0.0232 -0.5197 -0.1425
  254DOPE   GL2 3062  33.213   8.200   9.358  0.3810 -0.0158 -0.1257
  254DOPE   C1A 3063  33.228   8.151   8.718 -0.0744 -0.3053 -0.0937
  254DOPE   D2A 3064  33.332   7.930   8.340 -0.2987 -0.0144 -0.0072
  254DOPE   C3A 3065  33.745   7.919   8.216  0.3604 -0.0135  0.0487
  254DOPE   C4A 3066  34.013   8.255   8.045  0.0310  0.1012  0.2645
  254DOPE   C1B 3067  33.516   8.022   9.123  0.1654 -0.1384 -0.0137
  254DOPE   D2B 3068  33.740   7.945   8.683  0.0888  0.1762 -0.0829
  254DOPE   C3B 3069  34.056   7.655   8.489  0.0905  0.1327 -0.3297
  254DOPE   C4B 3070  34.096   7.230   8.428 -0.3005  0.0044 -0.1466
  255DOPE   NH3 3071  30.086   1.282  11.238  0.0671 -0.0605  0.1533
  255DOPE   PO4 3072  30.485   1.267  11.310  0.2390 -0.1504  0.2449
  255DOPE   GL1 3073  30.809   1.209  11.114 -0.0575  0.2167 -0.2297
  255DOPE   GL2 3074  31.038   1.181  11.325  0.0426  0.0598 -0.1002
  255DOPE   C1A 3075  31.015   1.309  10.680  0.1684  0.2045  0.1186
  255DOPE   D2A 3076  31.328   1.330  10.419 -0.3124  0.0125  0.1531
  255DOPE   C3A 3077  31.548   1.132  10.127  0.2802 -0.2351 -0.3505
  255DOPE   C4A 3078  31.980   1.062   9.937  0.0462 -0.0302  0.0390
  255DOPE   C1B 3079  31.552   1.090  11.404  0.0917  0.0673 -0.1355
  255DOPE   D2B 3080  31.919   0.999  11.277 -0.0969 -0.1474 -0.0963
  255DOPE   C3B 3081  32.204   1.038  10.884  0.0091 -0.0799  0.0450
  255DOPE   C4B 3082  32.548   1.074  10.617 -0.0669 -0.4101  0.0311
  256PAPE   NH3 3083  31.748   3.103  11.260 -0.5057 -0.3072 -0.0229
  256PAPE   PO4 3084  32.018   3.393  11.249  0.1187  0.1274 -0.1749
  256PAPE   GL1 3085  31.957   3.342  10.832 -0.1738  0.1674 -0.1053
  256PAPE   GL2 3086  31.877   3.066  10.701 -0.1319  0.0519  0.0718
  256PAPE   D1A 3087  32.057   3.379  10.367  0.1982  0.3537 -0.0642
  256PAPE   D2A 3088  32.463   3.739  10.431 -0.3483 -0.0416  0.1010
  256PAPE   D3A 3089  32.818   3.804  10.213  0.1156 -0.0323 -0.0464
  256PAPE   D4A 3090  32.765   3.866   9.830  0.0704 -0.0156  0.4854
  256PAPE   C5A 3091  32.782   4.184   9.525 -0.4592 -0.1957 -0.0050
  256PAPE   C1B 3092  32.013   2.923  10.240 -0.1424 -0.4133  0.1843
  256PAPE   C2B 3093  32.270   2.921   9.947  0.2658  0.1484  0.2297
  256PAPE   C3B 3094  32.300   3.076   9.560  0.0643  0.2092  0.1215
  256PAPE   C4B 3095  32.325   3.431   9.354 -0.0399 -0.1754 -0.2070
  257PAPE   NH3 3096  18.056   6.329  17.000  0.0940 -0.3003 -0.1363
  257PAPE   PO4 3097  18.220   6.680  17.263  0.0101 -0.3178 -0.0271
  257PAPE   GL1 3098  18.369   6.977  17.059  0.0489  0.0101  0.1547
  257PAPE   GL2 3099  18.352   7.215  17.106 -0.3978 -0.1452  0.1327
  257PAPE   D1A 3100  18.771   6.860  16.893 -0.2259  0.0909 -0.0421
  257PAPE   D2A 3101  18.870   6.640  16.487 -0.0300  0.0486 -0.1552
  257PAPE   D3A 3102  19.223   6.783  16.699  0.1941 -0.1584 -0.2023
  257PAPE   D4A 3103  19.222   6.890  16.272 -0.1916  0.2183  0.0730
  257PAPE   C5A 3104  18.967   6.875  15.984 -0.0015  0.1726  0.1015
  257PAPE   C1B 3105  17.943   7.296  16.787 -0.1463  0.3956  0.1399
  257PAPE   C2B 3106  17.693   7.302  16.492 -0.0270  0.2468 -0.0045
  257PAPE   C3B 3107  17.594   7.432  16.041 -0.0042 -0.2152  0.0049
  257PAPE   C4B 3108  17.814   7.577  15.578  0.1285  0.2923 -0.0693
  258PAPE   NH3 3109  27.614  35.213  11.034 -0.1283 -0.0130  0.3771
  258PAPE   PO4 3110  27.215  35.329  10.783 -0.0680  0.2755 -0.1342
  258PAPE   GL1 3111  27.235   0.250  10.468 -0.1286 -0.0661  0.0432
  258PAPE   GL2 3112  27.057   0.002  10.268  0.0257 -0.1133 -0.0853
  258PAPE   D1A 3113  27.573   0.464  10.163  0.1000 -0.2070  0.0715
  258PAPE   D2A 3114  27.483   0.105   9.943  0.0215  0.0908  0.4945
  258PAPE   D3A 3115  27.347   0.430   9.726  0.0063  0.2744 -0.2278
  258PAPE   D4A 3116  27.214   0.774   9.948  0.0933  0.1008  0.1464
  258PAPE   C5A 3117  27.086   1.260  10.102 -0.1513  0.0856 -0.4133
  258PAPE   C1B 3118  27.011   0.026   9.800  0.0593  0.0201  0.1038
  258PAPE   C2B 3119  26.937   0.095   9.324  0.5778  0.1499 -0.0083
  258PAPE   C3B 3120  26.750   0.030   8.879  0.2459  0.0506  0.1336
  258PAPE   C4B 3121  26.472  35.248   8.553 -0.1047 -0.2651 -0.0930
  259PAPE   NH3 3122   5.956  19.304  18.537  0.0216 -0.1123 -0.3132
  259PAPE   PO4 3123   6.349  19.151  18.780 -0.2075 -0.1997  0.1003
  259PAPE   GL1 3124   6.496  19.500  18.677 -0.0460 -0.1313  0.0469
  259PAPE   GL2 3125   6.420  19.508  18.381  0.2291  0.3606 -0.0631
  259PAPE   D1A 3126   6.921  19.809  18.770 -0.0567 -0.1402  0.0173
  259PAPE   D2A 3127   7.072  19.629  19.262 -0.2670  0.0255  0.0542
  259PAPE   D3A 3128   7.440  19.656  19.515 -0.0341 -0.2004  0.0172
  259PAPE   D4A 3129   7.832  19.674  19.160 -0.1152  0.2576  0.4544
  259PAPE   C5A 3130   7.871  19.913  18.671 -0.0164 -0.2482  0.0184
  259PAPE   C1B 3131   6.732  19.833  18.304 -0.0384  0.0518  0.1831
  259PAPE   C2B 3132   6.928  20.071  18.200 -0.2244 -0.2236  0.1776
  259PAPE   C3B 3133   7.243  20.125  17.815  0.1440 -0.0362 -0.2621
  259PAPE   C4B 3134   7.606  20.178  17.622  0.1046 -0.1051  0.2094
  260PAPE   NH3 3135  29.868  28.755   9.596 -0.0631 -0.0950  0.2995
  260PAPE   PO4 3136  29.783  29.143   9.808 -0.1068  0.1133 -0.1823
  260PAPE   GL1 3137  29.934  29.222   9.342 -0.3620 -0.0678 -0.0854
  260PAPE   GL2 3138  29.817  29.465   9.230 -0.1132  0.4767  0.2352
  260PAPE   D1A 3139  30.038  29.214   8.867  0.0292  0.0733 -0.0325
  260PAPE   D2A 3140  29.829  28.886   9.008  0.1511 -0.0957  0.4656
  260PAPE   D3A 3141  29.602  28.689   8.755 -0.0011 -0.5233  0.0329
  260PAPE   D4A 3142  29.764  28.835   8.293  0.1641  0.0189 -0.0825
  260PAPE   C5A 3143  29.921  28.717   7.914 -0.1944  0.1081 -0.0946
  260PAPE   C1B 3144  29.983  29.727   8.879  0.0537 -0.0419 -0.0557
  260PAPE   C2B 3145  30.173  29.947   8.541  0.2763 -0.3468  0.1590
  260PAPE   C3B 3146  30.342  30.211   8.209 -0.2953 -0.0735 -0.2663
  260PAPE   C4B 3147  30.292  30.540   7.815  0.0783 -0.1075 -0.0729
  261PAPE   NH3 3148   5.790  15.618  16.967  0.0996 -0.0560 -0.2877
  261PAPE   PO4 3149   5.500  15.323  16.635  0.1235 -0.0979  0.0913
  261PAPE   GL1 3150   5.711  15.142  16.180 -0.1532  0.2092  0.4376
  261PAPE   GL2 3151   5.737  15.368  15.915  0.0062  0.1354 -0.0365
  261PAPE   D1A 3152   5.794  14.742  15.996 -0.4513  0.1950 -0.1684
  261PAPE   D2A 3153   6.201  14.557  15.980  0.2015 -0.2300 -0.0566
  261PAPE   D3A 3154   6.057  14.386  15.712  0.1783  0.3720  0.1215
  261PAPE   D4A 3155   6.488  14.300  15.577 -0.1540 -0.2802 -0.2008
  261PAPE   C5A 3156   6.629  14.369  15.295  0.0516  0.3071  0.1115
  261PAPE   C1B 3157   5.516  15.423  15.450 -0.0507 -0.0331 -0.0804
  261PAPE   C2B 3158   5.492  15.366  15.067  0.4801  0.0159 -0.0576
  261PAPE   C3B 3159   5.760  15.576  14.806 -0.0534 -0.1354 -0.1780
  261PAPE   C4B 3160   5.978  15.602  14.414 -0.1675  0.4001 -0.0560
  262PAPE   NH3 3161   3.203   7.304  16.002  0.0220  0.0507 -0.0551
  262PAPE   PO4 3162   3.326   7.601  15.680 -0.1956  0.0878 -0.2006
  262PAPE   GL1 3163   3.687   7.601  15.457 -0.0671  0.1878 -0.3528
  262PAPE   GL2 3164   3.772   7.267  15.590 -0.0726  0.1709  0.0509
  262PAPE   D1A 3165   3.767   7.882  15.175 -0.0599  0.0598  0.1556
  262PAPE   D2A 3166   4.057   8.248  15.432 -0.1450  0.3559 -0.1881
  262PAPE   D3A 3167   3.962   8.656  15.322  0.2327  0.1435  0.0524
  262PAPE   D4A 3168   3.771   8.544  14.929 -0.0807 -0.1128  0.0688
  262PAPE   C5A 3169   3.476   8.279  14.853 -0.0343  0.0009  0.2015
  262PAPE   C1B 3170   3.962   7.381  15.144 -0.1659 -0.2528  0.1188
  262PAPE   C2B 3171   4.235   7.778  15.090 -0.2451 -0.0711 -0.2148
  262PAPE   C3B 3172   4.441   7.964  14.714 -0.2727 -0.0126  0.0597
  262PAPE   C4B 3173   4.628   7.906  14.354  0.1050 -0.2684  0.0554
  263PAPE   NH3 3174   6.222   2.695  19.146  0.0100  0.1185  0.1150
  263PAPE   PO4 3175   6.295   2.650  18.679  0.2917 -0.0641 -0.0163
  263PAPE   GL1 3176   6.518   2.668  18.230  0.0055 -0.1154 -0.1855
  263PAPE   GL2 3177   6.629   2.396  18.061  0.2524  0.1388  0.1960
  263PAPE   D1A 3178   7.026   2.699  18.039 -0.0822 -0.4128 -0.2434
  263PAPE   D2A 3179   7.324   2.894  18.332  0.1881  0.2949 -0.3306
  263PAPE   D3A 3180   7.610   2.648  18.022  0.0760  0.1178  0.0057
  263PAPE   D4A 3181   7.433   2.723  17.705  0.4516 -0.1499  0.1641
  263PAPE   C5A 3182   7.554   2.429  17.382  0.3284 -0.2512  0.1630
  263PAPE   C1B 3183   6.826   2.326  17.734 -0.1257 -0.1449 -0.0641
  263PAPE   C2B 3184   7.075   2.441  17.454 -0.2566  0.2392 -0.0721
  263PAPE   C3B 3185   7.272   2.615  17.045 -0.0197 -0.2600  0.1605
  263PAPE   C4B 3186   7.486   2.615  16.655 -0.2604  0.0812 -0.0405
  264DGPE   NH3 3187  28.939  25.458   7.030  0.0175  0.1297  0.1687
  264DGPE   PO4 3188  29.358  25.562   6.797 -0.0202  0.4828 -0.2389
  264DGPE   GL1 3189  29.228  26.040   6.854 -0.2443 -0.1306  0.1687
  264DGPE   GL2 3190  29.150  26.283   7.007 -0.2550  0.0082  0.1714
  264DGPE   C1A 3191  29.138  26.122   6.413  0.0153  0.2247 -0.1821
  264DGPE   C2A 3192  29.118  26.266   6.027 -0.2742 -0.1844  0.0091
  264DGPE   D3A 3193  29.325  26.379   5.681  0.0731  0.3473 -0.0796
  264DGPE   C4A 3194  29.632  26.590   5.463  0.1509  0.0476  0.2436
  264DGPE   C5A 3195  29.995  26.658   5.719  0.0591 -0.0171 -0.1142
  264DGPE   C1B 3196  29.221  26.559   6.622  0.0430  0.1723  0.0536
  264DGPE   C2B 3197  29.149  26.719   6.231  0.0733 -0.2260 -0.1580
  264DGPE   D3B 3198  28.884  26.706   5.867  0.0283 -0.0347 -0.1524
  264DGPE   C4B 3199  28.730  26.383   5.629 -0.0354  0.1181 -0.0221
  264DGPE   C5B 3200  28.528  26.191   5.326  0.0294 -0.2420  0.1180
  265DGPE   NH3 3201   9.007  17.516  18.836 -0.1267 -0.3168  0.0936
  265DGPE   PO4 3202   8.888  17.599  19.144 -0.0744 -0.2671  0.0557
  265DGPE   GL1 3203   9.246  17.954  18.953 -0.0628 -0.2882 -0.1137
  265DGPE   GL2 3204   9.054  18.147  18.907  0.0828  0.0848 -0.1645
  265DGPE   C1A 3205   9.584  18.151  18.663  0.0438 -0.1899 -0.0832
  265DGPE   C2A 3206   9.592  18.400  18.309 -0.2429  0.0102  0.2467
  265DGPE   D3A 3207   9.763  18.713  18.038 -0.0450 -0.3713 -0.4417
  265DGPE   C4A 3208  10.263  18.698  17.871 -0.2464 -0.0998 -0.1360
  265DGPE   C5A 3209  10.631  18.734  17.601 -0.1394 -0.3938 -0.4074
  265DGPE   C1B 3210   9.117  18.458  18.519  0.0464  0.1563 -0.2605
  265DGPE   C2B 3211   9.239  18.704  18.137  0.0351 -0.1258  0.2749
  265DGPE   D3B 3212   9.409  18.780  17.742 -0.0680  0.3561  0.0132
  265DGPE   C4B 3213   9.785  19.020  17.602  0.0970  0.3032 -0.1595
  265DGPE   C5B 3214   9.932  19.434  17.555 -0.1192 -0.3489 -0.0192
  266DGPE   NH3 3215  25.596  22.673   8.282  0.1315 -0.1913 -0.0913
  266DGPE   PO4 3216  25.089  22.761   8.294 -0.0041  0.0540  0.0425
  266DGPE   GL1 3217  24.888  22.391   8.362  0.1467  0.2093  0.4148
  266DGPE   GL2 3218  24.986  22.241   8.160  0.1150  0.0667  0.3184
  266DGPE   C1A 3219  24.486  22.236   8.133  0.0417  0.2527 -0.1940
  266DGPE   C2A 3220  24.100  22.332   8.022 -0.0668 -0.2310  0.1187
  266DGPE   D3A 3221  23.705  22.408   7.826 -0.3182 -0.2839 -0.2068
  266DGPE   C4A 3222  23.400  22.666   7.879  0.0907 -0.2477  0.0438
  266DGPE   C5A 3223  23.117  23.004   7.617 -0.0816 -0.1814  0.0264
  266DGPE   C1B 3224  24.814  21.877   8.072  0.0909  0.1440  0.3058
  266DGPE   C2B 3225  24.719  21.496   7.862  0.1096  0.5059  0.1832
  266DGPE   D3B 3226  24.927  21.101   7.717 -0.0360  0.0368 -0.0948
  266DGPE   C4B 3227  25.313  21.116   7.377  0.0135 -0.1632 -0.1335
  266DGPE   C5B 3228  25.524  20.903   7.125 -0.1906 -0.0622  0.0552
  267DGPE   NH3 3229  13.448  12.412  19.234  0.3191 -0.2167 -0.0702
  267DGPE   PO4 3230  13.773  12.604  19.481 -0.1628  0.2287  0.3689
  267DGPE   GL1 3231  13.956  12.437  19.050  0.1548  0.2341  0.0536
  267DGPE   GL2 3232  13.680  12.147  18.909 -0.4854 -0.0630 -0.2154
  267DGPE   C1A 3233  14.114  12.553  18.632 -0.1060  0.0371  0.2197
  267DGPE   C2A 3234  14.230  12.641  18.193 -0.1255  0.0473 -0.0134
  267DGPE   D3A 3235  14.213  12.810  17.794 -0.1803 -0.0760 -0.0745
  267DGPE   C4A 3236  14.471  12.757  17.446 -0.0730 -0.3162  0.0534
  267DGPE   C5A 3237  14.833  12.549  17.134 -0.1687 -0.0466 -0.0104
  267DGPE   C1B 3238  13.675  12.156  18.561 -0.2478  0.0930 -0.3368
  267DGPE   C2B 3239  13.855  12.274  18.154  0.0107  0.4150 -0.0099
  267DGPE   D3B 3240  13.739  12.318  17.768  0.0849  0.1928  0.0753
  267DGPE   C4B 3241  14.029  12.152  17.376 -0.1209  0.0972  0.2742
  267DGPE   C5B 3242  13.970  11.843  17.094  0.0583  0.2885  0.2412
  268DGPE   NH3 3243  18.602  17.257  18.083  0.0037  0.0968 -0.2249
  268DGPE   PO4 3244  18.683  17.028  17.820 -0.3231  0.1003  0.2933
  268DGPE   GL1 3245  18.438  16.887  17.504  0.3107  0.1457 -0.1718
  268DGPE   GL2 3246  18.614  17.107  17.168  0.0077 -0.3024  0.3154
  268DGPE   C1A 3247  18.152  16.835  17.155 -0.1041  0.2399  0.1706
  268DGPE   C2A 3248  17.899  17.137  16.776  0.0777 -0.0168 -0.0194
  268DGPE   D3A 3249  17.793  17.242  16.358 -0.1096 -0.4350 -0.1910
  268DGPE   C4A 3250  17.699  17.116  15.868 -0.0217 -0.3741  0.0350
  268DGPE   C5A 3251  17.983  17.086  15.568  0.3851 -0.0053 -0.0025
  268DGPE   C1B 3252  18.347  17.346  16.887  0.0127 -0.0932 -0.0428
  268DGPE   C2B 3253  18.159  17.506  16.621 -0.0972 -0.2105 -0.1517
  268DGPE   D3B 3254  17.684  17.655  16.668  0.0485 -0.1589 -0.1037
  268DGPE   C4B 3255  17.634  17.731  16.254  0.2806 -0.3170 -0.1546
  268DGPE   C5B 3256  17.425  17.803  15.903  0.3316 -0.1122  0.1698
  269DGPE   NH3 3257   6.032  30.012  20.437  0.1659  0.0439 -0.1299
  269DGPE   PO4 3258   6.433  29.970  20.733  0.0414 -0.1498 -0.0121
  269DGPE   GL1 3259   6.596  29.935  20.304  0.1974 -0.0964 -0.1327
  269DGPE   GL2 3260   6.764  29.648  20.171  0.0018  0.0253  0.0623
  269DGPE   C1A 3261   6.633  30.151  19.861 -0.1706  0.1684  0.0462
  269DGPE   C2A 3262   6.794  30.085  19.451  0.1662  0.2667 -0.0730
  269DGPE   D3A 3263   6.571  30.007  19.154  0.0777  0.0390 -0.1147
  269DGPE   C4A 3264   6.732  29.762  18.771 -0.0575 -0.2981 -0.1778
  269DGPE   C5A 3265   6.902  29.442  18.444  0.0589  0.0384 -0.2388
  269DGPE   C1B 3266   6.977  29.409  19.909  0.2076  0.0684  0.2436
  269DGPE   C2B 3267   7.199  29.278  19.678 -0.2428  0.0266  0.0507
  269DGPE   D3B 3268   7.561  29.257  19.492  0.0896  0.0732  0.0318
  269DGPE   C4B 3269   7.526  29.568  19.089 -0.2236 -0.0368 -0.2220
  269DGPE   C5B 3270   7.420  29.560  18.473  0.0410  0.2454 -0.0369
  270DGPE   NH3 3271   1.476   5.382  13.127 -0.0701 -0.0288  0.2192
  270DGPE   PO4 3272   1.763   5.095  13.295 -0.1172  0.1607  0.3138
  270DGPE   GL1 3273   2.095   4.796  13.185 -0.0353  0.0076 -0.2605
  270DGPE   GL2 3274   2.313   4.599  13.411  0.0278 -0.0392 -0.5130
  270DGPE   C1A 3275   2.222   4.581  12.951 -0.0370 -0.1215  0.1041
  270DGPE   C2A 3276   2.623   4.449  12.757 -0.0319  0.3169  0.2778
  270DGPE   D3A 3277   2.901   4.305  12.372  0.0122  0.2872  0.2362
  270DGPE   C4A 3278   3.419   4.268  12.304  0.2446 -0.0133 -0.1526
  270DGPE   C5A 3279   3.831   4.387  11.964  0.2091 -0.1843 -0.0107
  270DGPE   C1B 3280   2.624   4.357  13.295 -0.0631  0.0029 -0.3030
  270DGPE   C2B 3281   3.014   4.279  13.017 -0.0170 -0.0038 -0.1287
  270DGPE   D3B 3282   3.174   4.052  12.674  0.0151  0.1229 -0.2338
  270DGPE   C4B 3283   3.444   3.623  12.653  0.0174  0.1147  0.3051
  270DGPE   C5B 3284   3.698   3.219  12.817  0.1359  0.0699 -0.0408
  271DGPE   NH3 3285   0.527  25.555  14.729  0.0221  0.2285  0.1124
  271DGPE   PO4 3286   0.306  25.957  14.723 -0.1899 -0.2220  0.2368
  271DGPE   GL1 3287   0.711  26.071  14.628  0.0589  0.1950  0.1646
  271DGPE   GL2 3288   0.775  26.369  14.426 -0.0228  0.0438 -0.1993
  271DGPE   C1A 3289   1.043  25.916  14.318  0.0430  0.0120  0.0788
  271DGPE   C2A 3290   1.384  26.095  14.112 -0.0062 -0.3864 -0.0480
  271DGPE   D3A 3291   1.676  26.255  13.944  0.0747 -0.3512  0.0301
  271DGPE   C4A 3292   2.015  26.521  14.146 -0.1905 -0.0088  0.1093
  271DGPE   C5A 3293   2.304  26.678  14.480  0.2413 -0.1202 -0.2162
  271DGPE   C1B 3294   0.983  26.655  14.092 -0.0687  0.1655 -0.2182
  271DGPE   C2B 3295   1.309  26.571  13.806  0.1374 -0.1597  0.3426
  271DGPE   D3B 3296   1.685  26.773  13.831  0.1070 -0.1840  0.0441
  271DGPE   C4B 3297   1.883  27.008  14.222  0.2748 -0.2796 -0.0601
  271DGPE   C5B 3298   1.885  26.837  14.672 -0.1518  0.0515 -0.1634
  272DGPE   NH3 3299  25.424  10.481   9.708 -0.2889  0.0652  0.1154
  272DGPE   PO4 3300  25.512  10.219   9.407  0.1410  0.0030 -0.2869
  272DGPE   GL1 3301  25.111  10.208   9.251  0.1717 -0.6428  0.2031
  272DGPE   GL2 3302  25.038   9.857   9.325 -0.1921 -0.1054 -0.1005
  272DGPE   C1A 3303  24.705  10.273   9.131 -0.1845 -0.2538  0.0280
  272DGPE   C2A 3304  24.259  10.348   9.196  0.4041  0.1216 -0.2863
  272DGPE   D3A 3305  23.872  10.260   9.308 -0.1153 -0.1445  0.0235
  272DGPE   C4A 3306  23.702  10.408   9.607 -0.0576 -0.0144  0.0332
  272DGPE   C5A 3307  23.400  10.154   9.927  0.0208  0.1567 -0.3409
  272DGPE   C1B 3308  24.693   9.754   9.134  0.4320 -0.2263 -0.3445
  272DGPE   C2B 3309  24.301   9.766   8.995  0.1041  0.6145 -0.0314
  272DGPE   D3B 3310  23.955   9.906   8.985  0.0660  0.0044  0.1332
  272DGPE   C4B 3311  23.880  10.140   8.773 -0.0948  0.2525 -0.0766
  272DGPE   C5B 3312  23.931  10.287   8.329  0.0524  0.1800  0.1297
  273DGPE   NH3 3313  24.305  16.857   9.305  0.0411  0.0768  0.1068
  273DGPE   PO4 3314  24.177  17.209   9.128  0.3543 -0.0252 -0.0159
  273DGPE   GL1 3315  23.754  17.152   8.922  0.0409  0.0064 -0.2520
  273DGPE   GL2 3316  23.744  17.329   8.657  0.1226  0.1177  0.1544
  273DGPE   C1A 3317  23.431  17.196   9.209  0.4640 -0.3035 -0.0648
  273DGPE   C2A 3318  23.048  17.045   9.084  0.2099 -0.2434  0.1126
  273DGPE   D3A 3319  22.588  17.092   9.138 -0.0024  0.0271  0.2718
  273DGPE   C4A 3320  22.279  17.289   8.908 -0.0733 -0.3125 -0.0672
  273DGPE   C5A 3321  21.767  17.411   8.721  0.0237  0.1545 -0.1740
  273DGPE   C1B 3322  23.286  17.187   8.701 -0.1087 -0.0770 -0.0965
  273DGPE   C2B 3323  22.834  17.138   8.610  0.1107 -0.3600  0.2029
  273DGPE   D3B 3324  22.422  17.138   8.419  0.3151  0.0746 -0.1199
  273DGPE   C4B 3325  22.168  17.442   8.378 -0.0967 -0.0917  0.0127
  273DGPE   C5B 3326  22.238  17.958   8.369 -0.0501 -0.2078 -0.2893
  274DGPE   NH3 3327  32.241   6.335  10.691 -0.0216  0.0557 -0.1855
  274DGPE   PO4 3328  32.241   5.669  10.683 -0.1623 -0.3187  0.1644
  274DGPE   GL1 3329  32.030   5.543  10.317  0.1523 -0.2025  0.2102
  274DGPE   GL2 3330  31.792   5.541  10.072 -0.0454  0.0488 -0.1208
  274DGPE   C1A 3331  32.217   5.264  10.030 -0.0624 -0.1918 -0.0219
  274DGPE   C2A 3332  32.319   5.127   9.758  0.1005  0.0898  0.2319
  274DGPE   D3A 3333  32.434   5.070   9.367  0.2086  0.0368 -0.2306
  274DGPE   C4A 3334  32.812   4.982   9.260 -0.1395 -0.1983  0.0164
  274DGPE   C5A 3335  33.204   5.197   9.151  0.1132 -0.0495  0.3018
  274DGPE   C1B 3336  32.004   5.554   9.642  0.0074 -0.0661 -0.0104
  274DGPE   C2B 3337  32.163   5.461   9.292 -0.1630 -0.1003 -0.3017
  274DGPE   D3B 3338  32.385   5.339   8.960  0.1301  0.4530  0.1282
  274DGPE   C4B 3339  32.587   5.574   8.686  0.2637 -0.0898 -0.3237
  274DGPE   C5B 3340  33.045   5.813   8.559 -0.0021 -0.4076 -0.0182
  275DGPE   NH3 3341  22.392   7.239  14.835  0.0259  0.0507  0.2945
  275DGPE   PO4 3342  22.179   7.631  15.053 -0.0398  0.2601 -0.1084
  275DGPE   GL1 3343  21.772   7.749  14.917 -0.2804 -0.0432  0.2075
  275DGPE   GL2 3344  21.565   7.934  15.069  0.3551 -0.0417  0.0213
  275DGPE   C1A 3345  21.456   7.756  14.613 -0.1128  0.0238  0.1083
  275DGPE   C2A 3346  21.088   7.800  14.343 -0.0526 -0.1476  0.2509
  275DGPE   D3A 3347  20.751   7.961  14.135 -0.2327  0.1260  0.0892
  275DGPE   C4A 3348  20.742   8.352  13.869  0.0141  0.5818  0.2816
  275DGPE   C5A 3349  20.452   8.650  13.651  0.0290 -0.0995 -0.0195
  275DGPE   C1B 3350  21.221   8.158  14.800  0.0906  0.1348 -0.0782
  275DGPE   C2B 3351  20.873   8.140  14.588  0.2014  0.1017  0.0248
  275DGPE   D3B 3352  20.545   8.364  14.465  0.0185 -0.3628  0.1008
  275DGPE   C4B 3353  20.366   8.605  14.299  0.0981  0.0380 -0.1458
  275DGPE   C5B 3354  20.055   8.785  13.978  0.0239  0.3378  0.1109
  276DAPE   NH3 3355  24.505  19.328   9.413  0.0932  0.0214  0.3082
  276DAPE   PO4 3356  24.741  19.813   9.343 -0.1095 -0.1936  0.0723
  276DAPE   GL1 3357  24.303  19.770   9.277  0.0830 -0.0471 -0.0438
  276DAPE   GL2 3358  24.164  20.039   9.167  0.1840 -0.0036  0.0391
  276DAPE   D1A 3359  24.178  19.468   8.895 -0.1139 -0.3277 -0.0269
  276DAPE   D2A 3360  24.192  19.477   8.460  0.2699  0.2181 -0.1351
  276DAPE   D3A 3361  24.225  19.210   8.102  0.0422  0.0105 -0.2221
  276DAPE   D4A 3362  24.211  19.492   7.867  0.1719  0.1146  0.3346
  276DAPE   C5A 3363  23.728  19.665   7.830 -0.1547  0.1934 -0.0860
  276DAPE   D1B 3364  23.733  20.069   9.101  0.0698 -0.0329 -0.2286
  276DAPE   D2B 3365  23.431  19.954   8.799 -0.3673  0.1659  0.1593
  276DAPE   D3B 3366  23.605  19.553   8.818 -0.2132 -0.2027 -0.0186
  276DAPE   D4B 3367  23.178  19.570   8.619  0.3474  0.2309  0.0771
  276DAPE   C5B 3368  22.924  19.707   8.353 -0.1227 -0.2046 -0.0984
  277DAPE   NH3 3369   0.167  26.474  15.549 -0.0714 -0.0994 -0.0489
  277DAPE   PO4 3370   0.003  26.601  15.243  0.1106  0.2048  0.0023
  277DAPE   GL1 3371   0.406  26.612  15.122  0.1706 -0.2602 -0.1151
  277DAPE   GL2 3372   0.384  26.546  14.825  0.0062 -0.0512 -0.0083
  277DAPE   D1A 3373   0.852  26.690  15.345  0.1085  0.3038 -0.2519
  277DAPE   D2A 3374   0.919  26.531  14.917  0.1638 -0.1711  0.1824
  277DAPE   D3A 3375   1.097  26.227  14.961 -0.2310 -0.0060 -0.0653
  277DAPE   D4A 3376   1.290  26.327  14.550 -0.0828 -0.1028 -0.0085
  277DAPE   C5A 3377   1.580  26.566  14.347  0.0567 -0.0911  0.1391
  277DAPE   D1B 3378   0.642  26.909  14.714  0.2355  0.0927  0.2831
  277DAPE   D2B 3379   0.793  27.024  14.991 -0.1818  0.2059 -0.1236
  277DAPE   D3B 3380   1.199  27.194  14.877 -0.2041 -0.2451 -0.1009
  277DAPE   D4B 3381   1.555  27.191  14.624  0.0995 -0.2649 -0.0560
  277DAPE   C5B 3382   1.860  27.379  14.869  0.2682 -0.1895 -0.3915
  278DAPE   NH3 3383  16.827   6.228  17.619  0.0306 -0.0404 -0.2621
  278DAPE   PO4 3384  16.522   6.569  17.495 -0.0032 -0.0865  0.2622
  278DAPE   GL1 3385  16.773   6.437  17.089  0.0946 -0.2222 -0.0800
  278DAPE   GL2 3386  16.453   6.325  16.902  0.0692  0.1396 -0.0306
  278DAPE   D1A 3387  17.118   6.246  17.043 -0.1832  0.0780 -0.0569
  278DAPE   D2A 3388  17.101   6.015  16.695  0.4064  0.1851 -0.0371
  278DAPE   D3A 3389  16.708   6.082  16.464  0.0565  0.2011 -0.1366
  278DAPE   D4A 3390  16.351   5.779  16.620  0.0863  0.0340 -0.1692
  278DAPE   C5A 3391  16.507   5.742  16.917 -0.3427 -0.1192 -0.1735
  278DAPE   D1B 3392  16.104   6.113  16.828 -0.0620 -0.1190  0.0137
  278DAPE   D2B 3393  15.980   6.575  16.772  0.2962 -0.2143 -0.1605
  278DAPE   D3B 3394  16.267   6.453  16.459  0.0462 -0.6148  0.1067
  278DAPE   D4B 3395  16.244   6.086  16.211 -0.0323 -0.0821 -0.1373
  278DAPE   C5B 3396  16.090   6.041  15.750 -0.1162 -0.1092 -0.1291
  279DAPE   NH3 3397  13.668  24.679  22.365  0.0207 -0.1341 -0.0348
  279DAPE   PO4 3398  13.387  24.814  22.176  0.3768  0.2628 -0.1886
  279DAPE   GL1 3399  13.169  24.746  21.906  0.5591  0.0360 -0.0044
  279DAPE   GL2 3400  12.988  24.945  21.756 -0.1010 -0.0962  0.1777
  279DAPE   D1A 3401  12.967  24.467  21.615  0.0716 -0.2523  0.1225
  279DAPE   D2A 3402  12.596  24.397  21.397 -0.2706  0.0849  0.0413
  279DAPE   D3A 3403  12.714  24.307  20.987 -0.0637 -0.3363 -0.1956
  279DAPE   D4A 3404  13.084  24.132  21.210 -0.1724 -0.2600 -0.2251
  279DAPE   C5A 3405  13.113  23.723  21.125 -0.0764 -0.2562 -0.3443
  279DAPE   D1B 3406  13.333  24.857  21.461 -0.3318  0.4922 -0.0547
  279DAPE   D2B 3407  13.449  24.523  21.220 -0.1797  0.0435  0.0839
  279DAPE   D3B 3408  13.486  24.082  21.423  0.2022 -0.0271  0.4021
  279DAPE   D4B 3409  13.650  24.003  21.100  0.0430 -0.3755  0.1318
  279DAPE   C5B 3410  13.514  23.711  20.865  0.0544 -0.0475 -0.1248
  280DAPE   NH3 3411  10.367  21.025  21.909  0.1010 -0.0478  0.0127
  280DAPE   PO4 3412  10.090  20.625  21.941  0.5884  0.0543  0.1040
  280DAPE   GL1 3413   9.853  20.785  21.612 -0.0477  0.0996 -0.0348
  280DAPE   GL2 3414   9.642  21.072  21.491 -0.0746 -0.2164  0.0820
  280DAPE   D1A 3415   9.719  20.596  21.253 -0.1554  0.3684 -0.1294
  280DAPE   D2A 3416   9.432  20.240  21.220 -0.1530  0.0430 -0.3551
  280DAPE   D3A 3417   9.260  20.556  20.890 -0.2593  0.0784  0.2509
  280DAPE   D4A 3418   9.153  20.179  20.770 -0.3073 -0.1222 -0.0610
  280DAPE   C5A 3419   9.357  19.885  20.757  0.2952 -0.1582 -0.2534
  280DAPE   D1B 3420   9.855  21.339  21.215  0.5296 -0.1416 -0.1754
  280DAPE   D2B 3421   9.932  20.936  20.962  0.0265 -0.0530 -0.0174
  280DAPE   D3B 3422   9.491  21.019  21.034 -0.1584  0.0542 -0.0332
  280DAPE   D4B 3423   9.459  21.008  20.655 -0.0429  0.0697 -0.0519
  280DAPE   C5B 3424   9.767  20.965  20.435  0.0804 -0.3053  0.0764
  281DAPE   NH3 3425  32.478  28.403  11.218  0.1746  0.0011  0.1483
  281DAPE   PO4 3426  32.242  28.741  11.027  0.2563  0.1483 -0.1800
  281DAPE   GL1 3427  32.513  28.797  10.870 -0.1278  0.2012  0.1847
  281DAPE   GL2 3428  32.736  28.893  11.012  0.2882 -0.2241  0.0089
  281DAPE   D1A 3429  32.799  28.736  10.557  0.1178 -0.0414  0.1995
  281DAPE   D2A 3430  32.894  29.220  10.636  0.1698 -0.1452 -0.0417
  281DAPE   D3A 3431  32.756  29.506  10.480  0.1585  0.0957 -0.0543
  281DAPE   D4A 3432  32.555  29.461  10.903  0.4726 -0.2080 -0.1083
  281DAPE   C5A 3433  32.823  29.528  11.227  0.0600  0.2049  0.0773
  281DAPE   D1B 3434  33.115  28.915  10.981 -0.2134 -0.0170 -0.4961
  281DAPE   D2B 3435  33.261  29.273  11.052  0.2873  0.0667  0.1827
  281DAPE   D3B 3436  33.270  29.521  10.726  0.0768 -0.2217  0.0007
  281DAPE   D4B 3437  33.268  29.329  10.294  0.0759  0.2237  0.3456
  281DAPE   C5B 3438  33.178  28.921  10.309 -0.1381 -0.0483  0.1695
  282DAPE   NH3 3439  18.676  22.820  19.425  0.1214 -0.4620  0.1800
  282DAPE   PO4 3440  18.597  23.256  19.479 -0.2115  0.0467 -0.0168
  282DAPE   GL1 3441  18.411  23.534  19.218 -0.3477  0.0787  0.1652
  282DAPE   GL2 3442  18.524  23.445  18.873  0.1503 -0.1729  0.0959
  282DAPE   D1A 3443  18.125  23.814  19.115 -0.0140 -0.0589  0.1832
  282DAPE   D2A 3444  18.208  23.778  18.780  0.0787 -0.0454  0.0746
  282DAPE   D3A 3445  18.150  24.179  18.769 -0.1208  0.3622  0.0665
  282DAPE   D4A 3446  17.842  24.132  18.504  0.0629  0.1967  0.1443
  282DAPE   C5A 3447  17.968  24.231  17.963  0.1185 -0.0327  0.1348
  282DAPE   D1B 3448  18.564  23.608  18.425 -0.1901  0.3439 -0.1739
  282DAPE   D2B 3449  18.628  23.955  18.650  0.1368  0.1120 -0.0529
  282DAPE   D3B 3450  18.962  24.110  18.465  0.0711 -0.2804 -0.0179
  282DAPE   D4B 3451  18.961  23.974  18.112  0.0444  0.2151  0.0305
  282DAPE   C5B 3452  18.619  23.903  17.803 -0.0676 -0.2273  0.0103
  283DAPE   NH3 3453  34.203  26.654  11.136 -0.1011  0.0233 -0.2791
  283DAPE   PO4 3454  34.244  26.411  11.482  0.0117  0.0358  0.1494
  283DAPE   GL1 3455  34.596  26.339  11.291 -0.1682 -0.1466  0.0247
  283DAPE   GL2 3456  34.483  26.132  11.016 -0.0659  0.0652 -0.1351
  283DAPE   D1A 3457  34.801  26.533  10.859 -0.0616 -0.1421  0.4153
  283DAPE   D2A 3458  34.455  26.504  10.642 -0.3620  0.0012 -0.0431
  283DAPE   D3A 3459  34.956  26.666  10.426  0.3062  0.2422 -0.0545
  283DAPE   D4A 3460  35.313  26.690  10.701  0.0441 -0.0572  0.0372
  283DAPE   C5A 3461   0.254  26.687  10.981  0.1686  0.0676  0.0459
  283DAPE   D1B 3462  34.464  25.956  10.631  0.1214  0.2254  0.0083
  283DAPE   D2B 3463  34.817  26.168  10.463 -0.0884 -0.4561  0.4092
  283DAPE   D3B 3464  35.261  26.246  10.423 -0.1212 -0.2067  0.0887
  283DAPE   D4B 3465   0.208  25.802  10.512 -0.0462 -0.5876  0.2159
  283DAPE   C5B 3466   0.591  25.879  10.356 -0.2715  0.2051 -0.1580
  284DAPE   NH3 3467  20.785  12.737  16.160 -0.0334  0.3626  0.1405
  284DAPE   PO4 3468  20.543  12.729  16.582 -0.0723  0.1892  0.2562
  284DAPE   GL1 3469  20.204  12.607  16.345  0.2050 -0.0873 -0.1061
  284DAPE   GL2 3470  20.323  12.485  16.136 -0.2773  0.0097 -0.0267
  284DAPE   D1A 3471  19.916  12.246  16.153 -0.5130  0.0871 -0.0781
  284DAPE   D2A 3472  20.052  12.335  15.737 -0.0852 -0.2796  0.2902
  284DAPE   D3A 3473  19.797  12.151  15.375 -0.1017  0.2964 -0.1852
  284DAPE   D4A 3474  19.357  12.103  15.488 -0.3818 -0.2007  0.2318
  284DAPE   C5A 3475  19.068  12.399  15.275 -0.0869  0.2912  0.0948
  284DAPE   D1B 3476  20.393  12.781  15.816  0.2066 -0.1088  0.0907
  284DAPE   D2B 3477  20.339  13.095  15.469  0.0760 -0.1023 -0.1673
  284DAPE   D3B 3478  20.695  12.891  15.285  0.0299 -0.1030 -0.0362
  284DAPE   D4B 3479  20.424  12.547  15.402  0.2995 -0.2253  0.2662
  284DAPE   C5B 3480  20.339  12.140  15.284 -0.1069 -0.1808  0.1918
  285DAPE   NH3 3481   1.350  32.142  16.028  0.3939  0.0374 -0.0136
  285DAPE   PO4 3482   0.946  32.041  16.039 -0.0829  0.0752 -0.1567
  285DAPE   GL1 3483   0.992  31.810  15.621 -0.1889  0.1065 -0.0086
  285DAPE   GL2 3484   1.342  31.719  15.714 -0.1764 -0.3417  0.4932
  285DAPE   D1A 3485   0.988  31.795  15.128  0.0799  0.1121  0.1894
  285DAPE   D2A 3486   0.868  32.192  15.116 -0.0287  0.1035 -0.0742
  285DAPE   D3A 3487   1.240  32.325  14.891 -0.0305 -0.1138 -0.0796
  285DAPE   D4A 3488   1.606  32.349  14.559 -0.0469 -0.1782  0.0778
  285DAPE   C5A 3489   1.785  32.473  14.207  0.0008 -0.2067 -0.2562
  285DAPE   D1B 3490   1.395  31.483  15.400  0.0716 -0.0578  0.2469
  285DAPE   D2B 3491   1.241  31.105  15.649  0.4333  0.1318 -0.0424
  285DAPE   D3B 3492   1.370  30.920  15.190  0.0061 -0.4422  0.4108
  285DAPE   D4B 3493   1.294  30.827  14.769  0.3006  0.0541 -0.2621
  285DAPE   C5B 3494   1.495  30.535  14.374 -0.0147 -0.1178 -0.1411
  286DAPE   NH3 3495  22.011   8.696  15.519  0.3351  0.1775  0.2146
  286DAPE   PO4 3496  21.689   8.818  15.830  0.0387 -0.0211  0.1392
  286DAPE   GL1 3497  21.577   9.018  15.431  0.1608 -0.0733 -0.1471
  286DAPE   GL2 3498  21.236   9.025  15.451 -0.3010 -0.0935  0.1229
  286DAPE   D1A 3499  21.630   9.364  15.066  0.0999 -0.4655  0.0069
  286DAPE   D2A 3500  21.408   9.830  14.965  0.1216  0.1508  0.0724
  286DAPE   D3A 3501  21.211   9.877  15.402 -0.1546 -0.4414  0.1913
  286DAPE   D4A 3502  21.086   9.474  15.064 -0.2705  0.3220 -0.0163
  286DAPE   C5A 3503  20.794   9.483  14.767 -0.0959  0.0222 -0.3446
  286DAPE   D1B 3504  20.806   9.042  15.294 -0.0356 -0.1409 -0.0631
  286DAPE   D2B 3505  20.741   8.946  15.695 -0.1708 -0.0736  0.2788
  286DAPE   D3B 3506  20.333   8.928  15.437 -0.2285  0.1498 -0.0168
  286DAPE   D4B 3507  20.185   8.826  15.090 -0.0625  0.0934  0.1166
  286DAPE   C5B 3508  19.999   9.082  14.797 -0.1298  0.2582 -0.0291
  287DAPE   NH3 3509   9.567   9.643  19.096 -0.0849  0.0633 -0.1609
  287DAPE   PO4 3510   9.267   9.953  18.775 -0.1573  0.0973 -0.0039
  287DAPE   GL1 3511   9.455  10.110  18.400 -0.0470  0.0738 -0.3801
  287DAPE   GL2 3512   9.767  10.310  18.401 -0.0075 -0.0929 -0.0194
  287DAPE   D1A 3513   9.617  10.173  17.941  0.0051 -0.0006  0.0863
  287DAPE   D2A 3514   9.702  10.574  17.752  0.0090 -0.1727 -0.0557
  287DAPE   D3A 3515  10.255  10.784  17.693  0.0511  0.2791  0.3481
  287DAPE   D4A 3516  10.502  10.582  17.993  0.2172  0.0843 -0.1098
  287DAPE   C5A 3517  10.561  10.221  18.167 -0.0557  0.0054  0.1154
  287DAPE   D1B 3518  10.115  10.028  18.556  0.0989  0.1375 -0.1228
  287DAPE   D2B 3519  10.619   9.968  18.624 -0.2472 -0.1432  0.0418
  287DAPE   D3B 3520  10.636  10.458  18.567  0.0470  0.0326 -0.3961
  287DAPE   D4B 3521  11.030  10.372  18.722 -0.2066 -0.3136 -0.1116
  287DAPE   C5B 3522  11.393  10.391  18.437 -0.2087 -0.2015  0.5662
  288DAPE   NH3 3523  14.946  21.615  21.091 -0.2307 -0.1548  0.2138
  288DAPE   PO4 3524  14.704  21.385  21.358 -0.2806  0.1070  0.0615
  288DAPE   GL1 3525  14.682  21.844  21.492 -0.0791  0.4045  0.0070
  288DAPE   GL2 3526  14.423  22.044  21.428 -0.2099  0.0381 -0.3285
  288DAPE   D1A 3527  14.878  22.230  21.423  0.0441  0.1091 -0.2605
  288DAPE   D2A 3528  14.654  22.571  21.484  0.1344  0.0052 -0.0782
  288DAPE   D3A 3529  14.896  22.791  21.384 -0.2515 -0.2098  0.2021
  288DAPE   D4A 3530  14.943  23.230  21.191  0.1211 -0.0974 -0.2276
  288DAPE   C5A 3531  14.984  23.523  20.956  0.0210 -0.0590  0.3470
  288DAPE   D1B 3532  14.104  22.151  21.171  0.0345  0.0128  0.1008
  288DAPE   D2B 3533  14.291  22.561  21.129  0.1759 -0.0563  0.0422
  288DAPE   D3B 3534  14.698  22.549  20.999  0.1607  0.1829  0.2027
  288DAPE   D4B 3535  14.541  22.142  20.906  0.2122 -0.0576 -0.2492
  288DAPE   C5B 3536  14.549  21.946  20.490 -0.0087  0.0165  0.2530
  289DAPE   NH3 3537  31.969   4.156  11.291  0.2313  0.1747 -0.0166
  289DAPE   PO4 3538  31.781   4.613  11.295  0.0036  0.2703 -0.1500
  289DAPE   GL1 3539  31.827   4.630  10.854  0.0071  0.0182 -0.0266
  289DAPE   GL2 3540  31.848   4.356  10.590 -0.3004 -0.1841  0.0895
  289DAPE   D1A 3541  32.122   4.757  10.491 -0.1243 -0.2566 -0.0998
  289DAPE   D2A 3542  32.295   4.439  10.748 -0.1909 -0.0346 -0.2671
  289DAPE   D3A 3543  32.271   4.187  10.454 -0.0094  0.1808  0.0930
  289DAPE   D4A 3544  32.504   4.263  10.030 -0.2489 -0.0423  0.2014
  289DAPE   C5A 3545  32.974   4.288  10.078 -0.1736  0.0272 -0.1462
  289DAPE   D1B 3546  31.933   3.868  10.642  0.2094 -0.1103 -0.0044
  289DAPE   D2B 3547  32.256   4.027  10.941 -0.3967 -0.1401 -0.1802
  289DAPE   D3B 3548  32.525   3.975  11.341  0.1665 -0.2743  0.0446
  289DAPE   D4B 3549  32.729   4.267  11.074  0.4206  0.1074 -0.1952
  289DAPE   C5B 3550  32.730   4.133  10.672  0.2263  0.2624  0.1157
  290DAPE   NH3 3551  10.325  35.114  20.609  0.1858  0.0836 -0.2237
  290DAPE   PO4 3552  10.225   0.246  20.423  0.0366  0.1276  0.2052
  290DAPE   GL1 3553  10.323   0.172  20.072 -0.0355  0.2062  0.0947
  290DAPE   GL2 3554  10.338   0.426  19.918  0.0962 -0.2864 -0.3269
  290DAPE   D1A 3555  10.175   0.019  19.649 -0.2263 -0.2345 -0.3569
  290DAPE   D2A 3556   9.810  35.233  19.822  0.0877 -0.1979  0.2688
  290DAPE   D3A 3557  10.056  34.930  19.576 -0.3985  0.2288 -0.3816
  290DAPE   D4A 3558   9.924  35.123  19.150  0.3110  0.3731  0.2163
  290DAPE   C5A 3559   9.967   0.099  18.913  0.0855 -0.2040 -0.1349
  290DAPE   D1B 3560  10.125   0.467  19.480  0.1241  0.2580  0.1992
  290DAPE   D2B 3561   9.762   0.213  19.373  0.1312  0.2105 -0.0256
  290DAPE   D3B 3562   9.715   0.389  19.763 -0.0848 -0.1338  0.0866
  290DAPE   D4B 3563   9.311   0.671  19.719  0.1020 -0.0346 -0.1209
  290DAPE   C5B 3564   9.113   0.912  19.420  0.1090  0.1173 -0.1481
  291DAPE   NH3 3565   0.304   8.999  10.729  0.0000  0.1483 -0.4745
  291DAPE   PO4 3566  35.197   8.807  10.737 -0.0183  0.1494  0.0221
  291DAPE   GL1 3567  34.985   8.531  10.635 -0.0582 -0.2048  0.2237
  291DAPE   GL2 3568  34.626   8.511  10.483 -0.2841  0.1289  0.0578
  291DAPE   D1A 3569  34.914   8.118  10.541 -0.1697 -0.0630 -0.0371
  291DAPE   D2A 3570  35.007   8.058  10.065 -0.0582  0.1491  0.1287
  291DAPE   D3A 3571  34.953   7.656  10.390 -0.2889  0.1588 -0.1101
  291DAPE   D4A 3572  34.891   7.222  10.324 -0.1928 -0.0048 -0.5322
  291DAPE   C5A 3573  34.821   6.861   9.903  0.0971 -0.1020 -0.2865
  291DAPE   D1B 3574  34.610   8.339  10.149  0.1156  0.2959 -0.0232
  291DAPE   D2B 3575  34.501   7.891  10.192  0.0136  0.0036 -0.1187
  291DAPE   D3B 3576  34.797   7.580   9.944 -0.0652  0.0789 -0.0194
  291DAPE   D4B 3577  35.184   7.681   9.748  0.0663  0.0775  0.0627
  291DAPE   C5B 3578  35.245   7.514   9.348  0.0975  0.1006  0.1209
  292DAPE   NH3 3579   1.922  15.120  12.968  0.1626  0.1659  0.0495
  292DAPE   PO4 3580   1.937  14.738  12.672  0.0447  0.1219  0.0328
  292DAPE   GL1 3581   2.265  14.628  12.352 -0.0246  0.3095 -0.1158
  292DAPE   GL2 3582   2.317  14.319  12.333 -0.2124  0.4169 -0.0512
  292DAPE   D1A 3583   2.508  14.863  12.109 -0.2799  0.3897 -0.1208
  292DAPE   D2A 3584   2.597  14.481  11.863  0.4621 -0.1197 -0.0222
  292DAPE   D3A 3585   3.033  14.661  11.947 -0.1390 -0.2306  0.2665
  292DAPE   D4A 3586   3.396  14.663  12.127  0.3823  0.1132  0.3419
  292DAPE   C5A 3587   3.623  14.467  12.008 -0.3685  0.0300  0.0217
  292DAPE   D1B 3588   2.508  13.958  12.525 -0.1372  0.4876  0.0630
  292DAPE   D2B 3589   2.763  14.123  12.139 -0.2987  0.0083  0.3341
  292DAPE   D3B 3590   3.089  13.791  12.192  0.1177  0.0447  0.1131
  292DAPE   D4B 3591   3.592  14.009  12.185  0.1069  0.0473 -0.1746
  292DAPE   C5B 3592   3.846  13.958  11.829  0.0739 -0.3508  0.4144
  293DAPE   NH3 3593  18.387  27.975  19.287 -0.1719 -0.2224 -0.0332
  293DAPE   PO4 3594  18.073  27.899  19.571  0.1633 -0.0615 -0.0830
  293DAPE   GL1 3595  18.064  27.576  19.285 -0.0520  0.1007  0.0535
  293DAPE   GL2 3596  18.003  27.265  19.424 -0.1232  0.2866 -0.0544
  293DAPE   D1A 3597  18.058  27.319  18.935 -0.0062  0.0118  0.1594
  293DAPE   D2A 3598  17.765  27.029  18.966  0.1493  0.0486 -0.1675
  293DAPE   D3A 3599  18.187  26.918  18.748 -0.6204  0.0492  0.0973
  293DAPE   D4A 3600  18.276  26.487  18.730  0.0425  0.2757  0.1828
  293DAPE   C5A 3601  18.059  26.127  18.680  0.2180 -0.2561 -0.2534
  293DAPE   D1B 3602  17.587  27.285  19.395  0.1355 -0.4700  0.1985
  293DAPE   D2B 3603  17.624  27.648  19.600  0.4121 -0.1951 -0.0517
  293DAPE   D3B 3604  17.589  27.705  19.140  0.2131  0.2407 -0.3861
  293DAPE   D4B 3605  17.527  27.422  18.889 -0.2739  0.0613 -0.3259
  293DAPE   C5B 3606  17.049  27.288  18.792 -0.2639  0.2167  0.0366
  294DAPE   NH3 3607  15.265  23.592  22.276  0.0056 -0.4271  0.0040
  294DAPE   PO4 3608  15.179  23.300  22.012  0.3202  0.0882  0.0916
  294DAPE   GL1 3609  15.153  23.335  21.619 -0.3167 -0.1345 -0.1867
  294DAPE   GL2 3610  15.375  23.268  21.438  0.0066 -0.3671  0.1108
  294DAPE   D1A 3611  15.281  23.749  21.331  0.0095  0.0190  0.0457
  294DAPE   D2A 3612  15.465  23.595  21.018  0.0663 -0.0680 -0.2044
  294DAPE   D3A 3613  15.387  23.491  20.542 -0.0208  0.0332 -0.4349
  294DAPE   D4A 3614  15.401  23.893  20.587 -0.0911 -0.0860 -0.1946
  294DAPE   C5A 3615  15.221  24.041  20.219 -0.0298 -0.1938  0.0730
  294DAPE   D1B 3616  15.417  23.102  21.040  0.2429  0.1340  0.0915
  294DAPE   D2B 3617  15.141  22.735  20.915 -0.1182 -0.1525  0.0678
  294DAPE   D3B 3618  14.914  22.821  20.477 -0.0545  0.3187  0.3380
  294DAPE   D4B 3619  15.035  23.227  20.377 -0.1829 -0.1073 -0.2660
  294DAPE   C5B 3620  15.176  23.521  20.008 -0.2441  0.3488  0.2135
  295DAPE   NH3 3621  19.289   8.817  17.962 -0.3126  0.1220  0.0974
  295DAPE   PO4 3622  19.289   9.077  17.787  0.3625 -0.1326  0.1371
  295DAPE   GL1 3623  19.124   8.840  17.427  0.0192  0.0610  0.1250
  295DAPE   GL2 3624  18.737   8.884  17.288  0.3380  0.1319  0.1142
  295DAPE   D1A 3625  19.334   8.643  17.045 -0.2985 -0.2054 -0.2030
  295DAPE   D2A 3626  19.028   8.771  16.819 -0.0985  0.1844  0.1143
  295DAPE   D3A 3627  19.051   9.155  16.994 -0.1050  0.2269  0.0129
  295DAPE   D4A 3628  18.667   9.105  16.847 -0.0470 -0.1643 -0.1038
  295DAPE   C5A 3629  18.313   8.933  17.048 -0.0558  0.1145 -0.0503
  295DAPE   D1B 3630  18.377   8.736  17.539  0.4407  0.0714 -0.2660
  295DAPE   D2B 3631  18.279   8.349  17.433 -0.1478 -0.2592  0.1672
  295DAPE   D3B 3632  18.741   8.379  17.462 -0.3038 -0.0035  0.0352
  295DAPE   D4B 3633  18.588   8.518  17.055  0.0704 -0.3465  0.2562
  295DAPE   C5B 3634  18.700   8.219  16.800 -0.1103 -0.3446  0.2820
  296DAPE   NH3 3635  20.467  21.852  17.375  0.0045  0.3395  0.3903
  296DAPE   PO4 3636  20.425  21.380  17.577  0.2428 -0.2208  0.0371
  296DAPE   GL1 3637  20.309  21.175  17.133  0.3020  0.0090  0.0772
  296DAPE   GL2 3638  20.617  21.254  16.992  0.0377  0.1634  0.0132
  296DAPE   D1A 3639  19.975  20.985  16.901 -0.4879  0.2368  0.1807
  296DAPE   D2A 3640  20.277  21.238  16.630  0.0396 -0.0208  0.0894
  296DAPE   D3A 3641  20.572  21.018  16.577 -0.1347  0.2933 -0.2033
  296DAPE   D4A 3642  20.156  20.733  16.527 -0.0883  0.1939  0.2484
  296DAPE   C5A 3643  19.772  20.948  16.430  0.6355  0.2375  0.2618
  296DAPE   D1B 3644  20.381  21.671  16.907  0.1046  0.0051  0.0262
  296DAPE   D2B 3645  20.733  21.592  16.564  0.1639 -0.0857 -0.0262
  296DAPE   D3B 3646  20.534  21.367  16.243  0.1539  0.2795 -0.3586
  296DAPE   D4B 3647  20.431  21.709  16.049  0.1075 -0.3657 -0.0937
  296DAPE   C5B 3648  20.378  21.944  16.434 -0.1841  0.1037  0.0607
  297DAPE   NH3 3649   6.930   1.695  19.179  0.2905  0.0686  0.2886
  297DAPE   PO4 3650   6.624   1.367  19.158 -0.3492 -0.1438  0.2590
  297DAPE   GL1 3651   6.945   1.184  19.015  0.0257 -0.2673 -0.1646
  297DAPE   GL2 3652   6.967   1.262  18.727  0.2435 -0.1251  0.0330
  297DAPE   D1A 3653   7.370   0.988  18.918  0.0460  0.2644 -0.0672
  297DAPE   D2A 3654   7.476   0.605  18.741  0.0807 -0.3261  0.2843
  297DAPE   D3A 3655   7.829   0.342  18.552  0.0006 -0.1355  0.3592
  297DAPE   D4A 3656   7.669   0.159  18.153  0.0278  0.0767  0.1969
  297DAPE   C5A 3657   7.735   0.415  17.789 -0.1754  0.2056 -0.0360
  297DAPE   D1B 3658   7.127   0.880  18.540  0.0310  0.0221  0.1797
  297DAPE   D2B 3659   7.414   0.598  18.260  0.1349  0.1818  0.1302
  297DAPE   D3B 3660   7.853   0.786  18.118  0.0257  0.1997  0.3979
  297DAPE   D4B 3661   7.870   1.056  17.822  0.4296 -0.1478 -0.0372
  297DAPE   C5B 3662   8.253   1.231  17.730 -0.0418  0.2062 -0.2922
  298DPSM   NC3 3663  24.244  17.563  10.237  0.1177  0.0737 -0.1339
  298DPSM   PO4 3664  24.016  17.256  10.046  0.0543 -0.1939 -0.0657
  298DPSM   AM1 3665  23.874  17.123   9.785  0.2894  0.0157 -0.1398
  298DPSM   AM2 3666  23.892  17.326   9.532  0.2824  0.0151 -0.2529
  298DPSM   T1A 3667  23.438  17.006   9.688 -0.0627 -0.1654 -0.1677
  298DPSM   C2A 3668  23.071  17.075   9.543 -0.0281  0.0077 -0.0500
  298DPSM   C3A 3669  22.713  17.046   9.634  0.0839  0.4661 -0.2339
  298DPSM   C1B 3670  23.508  17.552   9.685  0.0481  0.1875 -0.1077
  298DPSM   C2B 3671  23.162  17.590   9.703 -0.0203 -0.1102 -0.1479
  298DPSM   C3B 3672  22.681  17.592   9.557  0.2140  0.1273  0.1468
  298DPSM   C4B 3673  22.280  17.667   9.254  0.0312 -0.1237 -0.3434
  299DPSM   NC3 3674   4.881  28.514  20.094  0.2559  0.2425 -0.0054
  299DPSM   PO4 3675   5.191  28.785  19.870 -0.0969  0.1465  0.1324
  299DPSM   AM1 3676   5.217  28.407  19.724  0.2913 -0.0899 -0.0470
  299DPSM   AM2 3677   5.183  28.095  19.754  0.0441 -0.1221 -0.0381
  299DPSM   T1A 3678   5.584  28.145  19.421 -0.3431 -0.3249 -0.0827
  299DPSM   C2A 3679   5.934  27.970  19.246  0.1000 -0.2869 -0.2240
  299DPSM   C3A 3680   6.062  27.810  18.740  0.1502 -0.1460  0.2132
  299DPSM   C1B 3681   5.652  28.198  19.895  0.0403  0.1790  0.2117
  299DPSM   C2B 3682   6.094  28.253  19.914  0.0555  0.2279  0.6049
  299DPSM   C3B 3683   6.359  27.993  19.891  0.5096  0.0967  0.2293
  299DPSM   C4B 3684   6.331  27.674  19.597 -0.0621 -0.1359  0.2897
  300DPSM   NC3 3685  22.315   5.953  15.455 -0.2065 -0.1443  0.2086
  300DPSM   PO4 3686  22.020   6.216  15.289  0.0026  0.1029  0.1094
  300DPSM   AM1 3687  21.636   6.140  15.101 -0.0436  0.2490  0.0530
  300DPSM   AM2 3688  21.507   6.463  15.283 -0.1754  0.2900  0.2793
  300DPSM   T1A 3689  21.639   6.236  14.668 -0.3095 -0.0065 -0.1466
  300DPSM   C2A 3690  21.689   6.338  14.341 -0.0390 -0.1228  0.2937
  300DPSM   C3A 3691  21.519   6.239  14.083  0.0899  0.3671 -0.1610
  300DPSM   C1B 3692  21.103   6.464  14.999  0.0643 -0.1803 -0.2290
  300DPSM   C2B 3693  20.738   6.622  14.863  0.2013 -0.1102  0.1663
  300DPSM   C3B 3694  20.414   6.771  14.593  0.1021 -0.1262 -0.0424
  300DPSM   C4B 3695  20.177   6.825  14.208  0.0689  0.3209 -0.0771
  301DPSM   NC3 3696  16.608   3.645  16.774 -0.0651  0.0917 -0.2421
  301DPSM   PO4 3697  16.275   3.339  16.822 -0.0536 -0.2183  0.0237
  301DPSM   AM1 3698  16.087   3.655  16.616 -0.0704  0.0377 -0.1181
  301DPSM   AM2 3699  15.732   3.717  16.688 -0.1059 -0.3070  0.0890
  301DPSM   T1A 3700  15.986   3.638  16.230 -0.4228  0.1825  0.0799
  301DPSM   C2A 3701  15.973   3.886  15.922  0.1033  0.2066  0.1097
  301DPSM   C3A 3702  16.046   3.978  15.449 -0.0372 -0.1891 -0.3523
  301DPSM   C1B 3703  15.544   3.864  16.275  0.0410  0.1924 -0.0298
  301DPSM   C2B 3704  15.205   4.053  16.183 -0.0379  0.0308 -0.1772
  301DPSM   C3B 3705  15.121   4.115  15.728 -0.1109 -0.1128  0.1090
  301DPSM   C4B 3706  15.209   4.373  15.339 -0.1516  0.1628  0.0027
  302DPSM   NC3 3707   2.863  20.379  13.763  0.2658  0.1557 -0.0975
  302DPSM   PO4 3708   3.132  20.159  14.047 -0.1079  0.4222 -0.2624
  302DPSM   AM1 3709   3.608  20.125  13.931 -0.1387  0.1144 -0.0613
  302DPSM   AM2 3710   3.645  20.061  13.639  0.1305 -0.1895 -0.3316
  302DPSM   T1A 3711   3.820  20.586  13.862 -0.0260  0.0095  0.1592
  302DPSM   C2A 3712   4.104  20.925  14.025  0.0725 -0.1031  0.0957
  302DPSM   C3A 3713   4.559  21.043  13.879 -0.0396 -0.4429  0.1386
  302DPSM   C1B 3714   4.094  20.130  13.715  0.0325  0.1538 -0.0930
  302DPSM   C2B 3715   4.415  20.279  13.680  0.5170  0.1297 -0.0107
  302DPSM   C3B 3716   4.834  20.280  13.559 -0.3504  0.0971 -0.2307
  302DPSM   C4B 3717   5.280  20.122  13.717  0.1351  0.0799 -0.1239
  303DPSM   NC3 3718  25.457  14.280   7.910  0.1381  0.0119  0.4128
  303DPSM   PO4 3719  25.165  13.902   7.969 -0.0761 -0.0620  0.0265
  303DPSM   AM1 3720  24.785  14.190   7.959  0.0666 -0.0951  0.0841
  303DPSM   AM2 3721  24.993  14.336   7.751 -0.0422 -0.1278  0.1738
  303DPSM   T1A 3722  24.394  14.009   8.039 -0.2647  0.1725 -0.2633
  303DPSM   C2A 3723  23.945  13.802   7.790  0.4522 -0.1572  0.0281
  303DPSM   C3A 3724  23.614  13.595   7.596  0.4289  0.2532 -0.0270
  303DPSM   C1B 3725  24.622  14.103   7.522  0.0691 -0.0249 -0.2035
  303DPSM   C2B 3726  24.239  14.082   7.461  0.0671  0.0037 -0.4619
  303DPSM   C3B 3727  23.932  13.922   7.291 -0.3537  0.0073  0.2769
  303DPSM   C4B 3728  23.589  14.057   7.123 -0.0893  0.1813 -0.0785
  304DPSM   NC3 3729  35.025  22.364   8.604 -0.4585 -0.1402 -0.1966
  304DPSM   PO4 3730  35.377  22.505   8.667 -0.0885  0.0087 -0.4395
  304DPSM   AM1 3731   0.436  22.510   8.601  0.0336 -0.5022 -0.1115
  304DPSM   AM2 3732   0.620  22.453   8.812  0.1213 -0.2229  0.0699
  304DPSM   T1A 3733   0.664  22.755   8.287  0.2829 -0.0731 -0.0528
  304DPSM   C2A 3734   0.896  23.082   8.060 -0.0132  0.1195 -0.3452
  304DPSM   C3A 3735   1.012  23.362   7.975  0.2234  0.0025  0.3863
  304DPSM   C1B 3736   0.954  22.698   8.659  0.3192  0.3191 -0.1209
  304DPSM   C2B 3737   1.152  22.968   8.493  0.2412  0.0173 -0.2410
  304DPSM   C3B 3738   1.336  23.421   8.345 -0.0142  0.3501  0.0429
  304DPSM   C4B 3739   1.287  23.793   8.075  0.1340  0.0495 -0.2832
  305DPSM   NC3 3740  17.173  21.218  20.466 -0.0341 -0.1330  0.1857
  305DPSM   PO4 3741  17.361  21.619  20.227 -0.1904  0.2597  0.0781
  305DPSM   AM1 3742  17.326  21.746  19.733  0.2140  0.3308 -0.2056
  305DPSM   AM2 3743  17.567  21.650  19.571  0.0472 -0.1587 -0.1908
  305DPSM   T1A 3744  17.067  21.723  19.336  0.1191  0.0162  0.1846
  305DPSM   C2A 3745  16.672  21.655  19.037  0.0228 -0.1150 -0.1292
  305DPSM   C3A 3746  16.288  21.611  18.868 -0.1703  0.1491  0.2602
  305DPSM   C1B 3747  17.569  21.664  19.171  0.0463 -0.6006 -0.2030
  305DPSM   C2B 3748  17.299  21.598  18.903 -0.1911  0.0590 -0.2728
  305DPSM   C3B 3749  17.076  21.614  18.641  0.3285  0.0265 -0.0375
  305DPSM   C4B 3750  16.733  21.447  18.438  0.1906  0.2040  0.1745
  306DPSM   NC3 3751   0.039  28.287  15.420  0.1877  0.0685 -0.1753
  306DPSM   PO4 3752   0.380  28.270  15.659 -0.1248 -0.0160 -0.0147
  306DPSM   AM1 3753   0.680  28.055  15.839  0.0505 -0.2792 -0.0185
  306DPSM   AM2 3754   1.044  28.212  15.965  0.1375 -0.0127  0.3612
  306DPSM   T1A 3755   1.112  27.812  15.703 -0.2169  0.2596 -0.0144
  306DPSM   C2A 3756   1.592  27.717  15.775 -0.0688  0.0176  0.4792
  306DPSM   C3A 3757   1.875  27.896  15.645 -0.1524  0.0275 -0.0096
  306DPSM   C1B 3758   1.483  28.176  15.651 -0.1208  0.0520 -0.0989
  306DPSM   C2B 3759   1.694  28.207  15.311 -0.1029  0.2734 -0.0668
  306DPSM   C3B 3760   1.953  28.340  15.050 -0.1212 -0.0675 -0.2288
  306DPSM   C4B 3761   2.031  28.578  14.566  0.3865  0.0026  0.0812
  307DPSM   NC3 3762   8.612  25.516  21.752  0.1246 -0.0808 -0.0291
  307DPSM   PO4 3763   8.675  25.882  21.452  0.2431 -0.0890 -0.0620
  307DPSM   AM1 3764   8.736  26.082  21.038  0.1100  0.0740  0.1883
  307DPSM   AM2 3765   8.951  26.334  21.186 -0.2319 -0.0368 -0.0238
  307DPSM   T1A 3766   8.629  26.131  20.533 -0.0949  0.1418 -0.3311
  307DPSM   C2A 3767   8.513  25.994  20.097 -0.0859  0.2080  0.0653
  307DPSM   C3A 3768   8.218  25.861  19.848  0.0482  0.2084 -0.0179
  307DPSM   C1B 3769   9.056  26.318  20.776 -0.0809  0.0136 -0.2038
  307DPSM   C2B 3770   9.223  26.265  20.420 -0.0326  0.1808  0.0730
  307DPSM   C3B 3771   9.029  26.079  20.036  0.0535 -0.2563  0.0730
  307DPSM   C4B 3772   9.109  25.729  19.753 -0.0829 -0.3751  0.2916
  308DPSM   NC3 3773   7.389   7.744  17.886  0.0380 -0.0553 -0.1602
  308DPSM   PO4 3774   7.045   7.967  18.029 -0.1757  0.0124 -0.1264
  308DPSM   AM1 3775   7.300   8.220  17.756  0.0998 -0.0553  0.1630
  308DPSM   AM2 3776   7.701   8.208  17.841  0.0187 -0.1867  0.0815
  308DPSM   T1A 3777   7.269   8.411  17.430 -0.5136  0.1812 -0.0644
  308DPSM   C2A 3778   7.554   8.490  17.062  0.1239  0.2880 -0.2192
  308DPSM   C3A 3779   7.713   8.700  16.727  0.0929 -0.0343  0.0410
  308DPSM   C1B 3780   7.808   8.548  17.512 -0.0148  0.0334  0.0368
  308DPSM   C2B 3781   7.680   8.928  17.231  0.3803 -0.0177 -0.1458
  308DPSM   C3B 3782   7.944   9.098  16.841 -0.0136 -0.4587 -0.0748
  308DPSM   C4B 3783   8.167   9.346  16.404 -0.3343 -0.1448 -0.2930
  309DPSM   NC3 3784   1.629  35.245  16.726  0.1232  0.0382 -0.0350
  309DPSM   PO4 3785   1.765  35.244  16.270  0.0973  0.2350 -0.0537
  309DPSM   AM1 3786   2.168   0.010  16.149  0.2664 -0.0122  0.1149
  309DPSM   AM2 3787   2.228   0.316  16.081 -0.1872 -0.0663  0.0659
  309DPSM   T1A 3788   2.572  35.335  16.070  0.1020  0.3087 -0.0708
  309DPSM   C2A 3789   3.045  35.341  15.904  0.1653  0.2540  0.2488
  309DPSM   C3A 3790   3.345  35.109  16.057  0.1227  0.3537  0.1335
  309DPSM   C1B 3791   2.351   0.122  15.677 -0.1480 -0.2754  0.2014
  309DPSM   C2B 3792   2.666  35.174  15.560 -0.3677 -0.0779  0.1907
  309DPSM   C3B 3793   2.910  35.063  15.228 -0.0360  0.0531  0.0991
  309DPSM   C4B 3794   3.035  35.094  14.774  0.1506 -0.0263  0.2328
  310DPSM   NC3 3795  20.247   9.206  16.597 -0.0927  0.0380  0.0974
  310DPSM   PO4 3796  20.053   9.571  16.900 -0.2417 -0.2922 -0.4026
  310DPSM   AM1 3797  19.797   9.653  16.476  0.0863 -0.0488 -0.0158
  310DPSM   AM2 3798  19.868   9.428  16.284  0.1830 -0.2500  0.1973
  310DPSM   T1A 3799  19.739   9.868  16.084 -0.2707 -0.0944  0.0822
  310DPSM   C2A 3800  19.595   9.787  15.705  0.1990 -0.0043  0.1993
  310DPSM   C3A 3801  19.224   9.577  15.530 -0.0121 -0.0719  0.1114
  310DPSM   C1B 3802  19.635   9.407  16.018 -0.3177  0.1580  0.1201
  310DPSM   C2B 3803  19.371   9.172  15.812 -0.2225 -0.1105  0.1425
  310DPSM   C3B 3804  19.374   9.097  15.399 -0.2958  0.2902  0.3742
  310DPSM   C4B 3805  19.206   9.007  15.013  0.1453  0.2199 -0.1912
  311DPSM   NC3 3806  33.166  19.214   4.855 -0.0889 -0.1816 -0.0782
  311DPSM   PO4 3807  33.239  19.618   4.926 -0.1353 -0.1302 -0.1731
  311DPSM   AM1 3808  33.301  19.868   4.590  0.2400  0.0375 -0.1475
  311DPSM   AM2 3809  32.939  19.930   4.446  0.0347 -0.2481  0.0778
  311DPSM   T1A 3810  33.560  20.086   4.202  0.2651 -0.0512 -0.0379
  311DPSM   C2A 3811  33.824  20.173   3.791 -0.0353 -0.0856 -0.3913
  311DPSM   C3A 3812  34.147  20.309   3.532 -0.2051  0.2404  0.5110
  311DPSM   C1B 3813  33.106  20.116   4.026  0.1182  0.5489 -0.2995
  311DPSM   C2B 3814  33.354  20.234   3.657 -0.1728 -0.1753 -0.1012
  311DPSM   C3B 3815  33.443  20.575   3.378  0.0611 -0.0255 -0.0455
  311DPSM   C4B 3816  33.432  20.641   3.053 -0.0833  0.1255 -0.1175
  312POSM   NC3 3817  32.513  10.548   6.952 -0.3729 -0.0824  0.2093
  312POSM   PO4 3818  32.997  10.706   7.163 -0.1984 -0.3412 -0.0005
  312POSM   AM1 3819  33.022  10.660   6.742 -0.6013  0.0144 -0.1942
  312POSM   AM2 3820  32.967  10.338   6.773 -0.0759  0.1059  0.1916
  312POSM   T1A 3821  33.239  10.469   6.303  0.2376  0.1679 -0.0188
  312POSM   C2A 3822  33.443  10.358   6.052  0.4215  0.0486 -0.2012
  312POSM   C3A 3823  33.771  10.449   5.633 -0.1809  0.2010 -0.0633
  312POSM   C1B 3824  33.202   9.985   6.475  0.0579  0.0141  0.0142
  312POSM   D2B 3825  33.570   9.880   6.204  0.2400 -0.1060  0.0371
  312POSM   C3B 3826  33.617   9.529   5.885 -0.1786  0.1965  0.1588
  312POSM   C4B 3827  34.009   9.287   5.912  0.0347  0.1792 -0.0349
  313POSM   NC3 3828   3.135   3.903  16.692 -0.1174 -0.2211 -0.0836
  313POSM   PO4 3829   3.246   4.014  16.229 -0.2080 -0.3942 -0.0608
  313POSM   AM1 3830   3.609   4.158  15.955  0.3503  0.0027 -0.2881
  313POSM   AM2 3831   3.504   4.308  15.627  0.1742  0.2663 -0.1567
  313POSM   T1A 3832   3.823   3.901  15.554  0.0169 -0.0322  0.1796
  313POSM   C2A 3833   4.195   3.752  15.358 -0.3609  0.1737 -0.1848
  313POSM   C3A 3834   4.472   3.878  15.065  0.1619  0.0738  0.1936
  313POSM   C1B 3835   3.765   4.253  15.218  0.0060  0.1961 -0.0229
  313POSM   D2B 3836   4.122   4.203  14.842 -0.0149  0.1722 -0.2277
  313POSM   C3B 3837   4.502   4.078  14.506  0.0249  0.3237 -0.1173
  313POSM   C4B 3838   4.765   3.848  14.226 -0.3668 -0.0500  0.0226
  314POSM   NC3 3839   2.591  27.408  17.829 -0.0562 -0.4190 -0.0019
  314POSM   PO4 3840   2.979  27.277  18.040  0.1235 -0.0369  0.0956
  314POSM   AM1 3841   3.063  27.340  17.635  0.1477 -0.1148 -0.0112
  314POSM   AM2 3842   3.018  27.678  17.669  0.3256 -0.2858  0.0528
  314POSM   T1A 3843   3.434  27.380  17.281  0.1607  0.4700  0.1596
  314POSM   C2A 3844   3.913  27.356  17.343 -0.1255 -0.0362  0.0699
  314POSM   C3A 3845   4.352  27.169  17.422  0.2325  0.1748 -0.1904
  314POSM   C1B 3846   3.176  27.813  17.249 -0.0966 -0.2114  0.0235
  314POSM   D2B 3847   3.234  27.891  16.884  0.3434  0.0280  0.0779
  314POSM   C3B 3848   3.653  27.746  16.826 -0.1331 -0.0080 -0.1584
  314POSM   C4B 3849   4.016  27.900  16.583  0.1107 -0.1634 -0.2539
  315POSM   NC3 3850   9.360  25.907  21.986 -0.3200 -0.3075  0.0766
  315POSM   PO4 3851   9.025  25.632  22.023 -0.0145 -0.1299 -0.3655
  315POSM   AM1 3852   9.109  25.704  21.589  0.0329  0.2988 -0.2621
  315POSM   AM2 3853   8.972  25.506  21.367 -0.0093  0.3169  0.0601
  315POSM   T1A 3854   9.535  25.682  21.307 -0.0756 -0.1219 -0.0200
  315POSM   C2A 3855   9.839  25.539  21.067 -0.2885 -0.0826  0.3513
  315POSM   C3A 3856  10.035  25.457  20.687 -0.1787  0.1609  0.0964
  315POSM   C1B 3857   9.097  25.765  20.978  0.0256  0.3546 -0.1547
  315POSM   D2B 3858   9.060  25.820  20.597 -0.1876 -0.2202  0.1292
  315POSM   C3B 3859   9.213  25.691  20.283  0.0383  0.0060  0.0196
  315POSM   C4B 3860   9.374  25.261  20.054 -0.1688  0.0878 -0.0014
  316POSM   NC3 3861  25.328   5.871  12.164  0.2635  0.0024  0.1519
  316POSM   PO4 3862  25.375   5.894  11.723 -0.2587 -0.2895  0.3726
  316POSM   AM1 3863  25.011   5.853  11.468 -0.0793  0.2623  0.0689
  316POSM   AM2 3864  24.707   5.783  11.564  0.0932  0.1813  0.1195
  316POSM   T1A 3865  24.847   6.048  11.049  0.3374  0.3860 -0.1193
  316POSM   C2A 3866  24.654   6.169  10.733  0.1621  0.0711 -0.0148
  316POSM   C3A 3867  24.294   6.055  10.725 -0.0715  0.2511  0.0611
  316POSM   C1B 3868  24.393   6.044  11.269  0.0845 -0.4179  0.1564
  316POSM   D2B 3869  23.965   6.213  11.061 -0.1179 -0.3060 -0.1713
  316POSM   C3B 3870  23.718   6.284  10.675 -0.0284 -0.2796 -0.2381
  316POSM   C4B 3871  23.403   6.426  10.601 -0.0715 -0.1279 -0.0443
  317POSM   NC3 3872  27.247  18.877   5.020  0.0360  0.0933 -0.2001
  317POSM   PO4 3873  27.072  18.577   4.685  0.0165 -0.0449  0.0357
  317POSM   AM1 3874  26.848  18.188   4.467  0.1661  0.0117  0.1581
  317POSM   AM2 3875  26.620  18.013   4.741  0.0503  0.0014 -0.1196
  317POSM   T1A 3876  26.833  18.164   4.050  0.0977  0.0712 -0.2350
  317POSM   C2A 3877  26.679  18.066   3.661  0.0387  0.2850 -0.3178
  317POSM   C3A 3878  26.451  17.931   3.364 -0.0381 -0.0123 -0.2201
  317POSM   C1B 3879  26.282  17.914   4.385 -0.1009 -0.0543  0.0852
  317POSM   D2B 3880  26.285  18.073   3.989  0.3444 -0.0950  0.0242
  317POSM   C3B 3881  26.040  18.057   3.622  0.0466  0.0130  0.2521
  317POSM   C4B 3882  25.723  18.111   3.271  0.0456  0.0755 -0.0215
  318POSM   NC3 3883  32.974  25.774  10.118  0.1652 -0.0244  0.0378
  318POSM   PO4 3884  33.327  25.785   9.887  0.1847  0.1698  0.2844
  318POSM   AM1 3885  33.328  25.787   9.353 -0.3417 -0.3627 -0.0173
  318POSM   AM2 3886  33.072  25.890   9.162 -0.0966  0.1943  0.1200
  318POSM   T1A 3887  33.596  25.957   9.001  0.0274  0.1290 -0.0161
  318POSM   C2A 3888  33.980  26.078   8.794 -0.0962 -0.4152 -0.0169
  318POSM   C3A 3889  34.322  25.963   8.533 -0.4614 -0.0933  0.2697
  318POSM   C1B 3890  33.187  26.248   9.203  0.2798  0.1316  0.0391
  318POSM   D2B 3891  33.469  26.432   8.858  0.1029 -0.1512  0.1724
  318POSM   C3B 3892  33.724  26.450   8.630  0.0726  0.2278 -0.1270
  318POSM   C4B 3893  33.822  26.693   8.260 -0.1023 -0.1008  0.0098
  319POSM   NC3 3894  15.424   9.233  18.313 -0.0943 -0.0637  0.0941
  319POSM   PO4 3895  15.228   8.979  18.108  0.0969 -0.0633  0.0571
  319POSM   AM1 3896  15.418   9.038  17.774  0.2512 -0.0129  0.0704
  319POSM   AM2 3897  15.586   9.356  17.846  0.2588  0.2169  0.1963
  319POSM   T1A 3898  15.443   9.019  17.324  0.0734  0.0567  0.3217
  319POSM   C2A 3899  15.460   9.005  16.887 -0.1477  0.1117 -0.0780
  319POSM   C3A 3900  15.590   9.139  16.442 -0.2410 -0.2856  0.1520
  319POSM   C1B 3901  15.736   9.463  17.494  0.1589  0.0428 -0.1401
  319POSM   D2B 3902  15.897   9.539  17.033  0.3283 -0.0188 -0.2289
  319POSM   C3B 3903  16.306   9.547  16.861 -0.1688  0.2212  0.0459
  319POSM   C4B 3904  16.745   9.444  16.779 -0.0814 -0.2974 -0.2790
  320POSM   NC3 3905   6.062   9.173  17.656  0.4165  0.0103  0.0306
  320POSM   PO4 3906   6.387   9.566  17.702 -0.2740  0.2691 -0.0233
  320POSM   AM1 3907   6.667   9.471  17.383 -0.2917 -0.0231  0.3041
  320POSM   AM2 3908   6.593   9.164  17.342 -0.0298 -0.0528  0.0668
  320POSM   T1A 3909   6.957   9.584  16.976 -0.1434 -0.0525 -0.2417
  320POSM   C2A 3910   6.945   9.506  16.543 -0.3377 -0.1905 -0.3677
  320POSM   C3A 3911   7.265   9.623  16.278  0.0419  0.1374  0.2596
  320POSM   C1B 3912   6.582   9.271  16.859 -0.1097  0.0099  0.2014
  320POSM   D2B 3913   6.663   8.974  16.459  0.0030 -0.0204 -0.2401
  320POSM   C3B 3914   6.992   9.198  16.193 -0.4647  0.2686  0.1769
  320POSM   C4B 3915   7.145   8.915  15.839 -0.0363 -0.2881 -0.0442
  321POSM   NC3 3916  16.351   2.819  16.749  0.0769  0.0636  0.0716
  321POSM   PO4 3917  16.613   2.591  16.436 -0.0789 -0.4027  0.2643
  321POSM   AM1 3918  16.388   2.489  16.022  0.0765 -0.2480  0.1740
  321POSM   AM2 3919  16.175   2.179  16.029  0.1918  0.1058 -0.0434
  321POSM   T1A 3920  16.320   2.661  15.719 -0.1588 -0.1021  0.1369
  321POSM   C2A 3921  16.144   2.775  15.320  0.2176 -0.1474 -0.0766
  321POSM   C3A 3922  15.995   2.928  14.912 -0.0328  0.0081 -0.2143
  321POSM   C1B 3923  15.974   2.347  15.666 -0.1060 -0.1822 -0.0154
  321POSM   D2B 3924  15.741   2.334  15.347  0.0935 -0.0187 -0.2522
  321POSM   C3B 3925  15.652   2.574  15.164  0.0304  0.0156  0.0345
  321POSM   C4B 3926  15.409   2.774  15.025 -0.3056  0.0474 -0.0183
  322POSM   NC3 3927  22.013  19.658  15.142  0.1705 -0.2515  0.4204
  322POSM   PO4 3928  21.762  20.027  15.306  0.1505  0.0440  0.1827
  322POSM   AM1 3929  21.532  20.207  15.094 -0.1876 -0.0534  0.1316
  322POSM   AM2 3930  21.641  20.502  15.081 -0.1805  0.1215 -0.3068
  322POSM   T1A 3931  21.202  20.313  14.976 -0.1392 -0.1312  0.2108
  322POSM   C2A 3932  20.857  20.270  14.722 -0.0036 -0.0293  0.1106
  322POSM   C3A 3933  20.417  20.324  14.434  0.1438 -0.1882  0.3411
  322POSM   C1B 3934  21.354  20.765  14.830  0.1773  0.0157 -0.3321
  322POSM   D2B 3935  20.977  20.749  14.585  0.1649  0.0776 -0.3327
  322POSM   C3B 3936  20.585  20.786  14.350 -0.1425  0.0438 -0.3870
  322POSM   C4B 3937  20.439  20.561  14.026 -0.1228  0.0872 -0.1185
  323PNSM   NC3 3938  31.144  26.499   8.840 -0.3615  0.1697 -0.2371
  323PNSM   PO4 3939  31.449  26.278   8.574 -0.5031 -0.0096  0.2815
  323PNSM   AM1 3940  31.437  26.698   8.415 -0.1988 -0.1231 -0.0889
  323PNSM   AM2 3941  31.148  26.834   8.482  0.0963  0.0152 -0.0795
  323PNSM   T1A 3942  31.600  27.055   8.159 -0.0734 -0.0821 -0.0688
  323PNSM   C2A 3943  31.686  27.400   7.947 -0.1937  0.3077 -0.3089
  323PNSM   C3A 3944  31.470  27.843   7.778  0.0823 -0.0791  0.0451
  323PNSM   C1B 3945  31.344  27.326   8.488 -0.2633  0.0861  0.1777
  323PNSM   C2B 3946  31.669  27.576   8.393  0.0407 -0.0908 -0.0577
  323PNSM   C3B 3947  31.899  27.905   8.331  0.2149  0.1837 -0.1285
  323PNSM   D4B 3948  32.100  28.151   8.071 -0.0327  0.1601  0.5333
  323PNSM   C5B 3949  32.436  28.372   8.069  0.0089 -0.1943  0.1595
  323PNSM   C6B 3950  32.827  28.601   8.142 -0.1510 -0.1564  0.1579
  324PNSM   NC3 3951  11.158  29.886  21.728 -0.0240  0.4667  0.0588
  324PNSM   PO4 3952  11.304  29.354  21.773 -0.2242 -0.0241  0.1236
  324PNSM   AM1 3953  11.376  29.334  21.327 -0.3373  0.0672  0.0063
  324PNSM   AM2 3954  11.364  29.659  21.246  0.1467  0.0128  0.0727
  324PNSM   T1A 3955  11.103  29.379  20.927  0.0707 -0.0129 -0.0694
  324PNSM   C2A 3956  10.694  29.483  20.846  0.1001  0.0147 -0.2327
  324PNSM   C3A 3957  10.301  29.456  20.742  0.3399 -0.0407 -0.1122
  324PNSM   C1B 3958  11.487  29.653  20.842 -0.0235 -0.0568  0.2043
  324PNSM   C2B 3959  11.380  29.343  20.388 -0.2186 -0.0549 -0.0419
  324PNSM   C3B 3960  11.364  29.246  19.910  0.3035 -0.1683 -0.1796
  324PNSM   D4B 3961  11.463  29.034  19.597  0.0269  0.0037 -0.0462
  324PNSM   C5B 3962  11.698  28.671  19.590 -0.2373  0.3209  0.2247
  324PNSM   C6B 3963  12.083  28.639  19.405  0.2799 -0.2468  0.0546
  325PNSM   NC3 3964  19.581  28.320  17.148  0.0279 -0.1271 -0.4135
  325PNSM   PO4 3965  19.697  28.409  16.736  0.0670 -0.1462  0.1737
  325PNSM   AM1 3966  19.311  28.475  16.672  0.1033 -0.1628 -0.0808
  325PNSM   AM2 3967  19.164  28.750  16.769 -0.3470 -0.1423 -0.1824
  325PNSM   T1A 3968  19.114  28.407  16.338  0.0613 -0.0067 -0.0750
  325PNSM   C2A 3969  18.864  28.234  16.175  0.2263  0.0817  0.2878
  325PNSM   C3A 3970  18.543  28.100  15.958  0.1876 -0.0584 -0.1608
  325PNSM   C1B 3971  18.759  28.516  16.720 -0.2092  0.0297  0.0692
  325PNSM   C2B 3972  18.440  28.409  16.721 -0.0126  0.2383 -0.0027
  325PNSM   C3B 3973  18.157  28.206  16.349  0.0306  0.0741  0.0167
  325PNSM   D4B 3974  18.016  27.945  15.976  0.0515  0.2942 -0.3301
  325PNSM   C5B 3975  17.910  27.531  15.861  0.1113 -0.0641 -0.3217
  325PNSM   C6B 3976  17.903  26.956  15.761  0.0416 -0.0092  0.0425
  326PNSM   NC3 3977  23.669  11.940  12.412 -0.1126  0.0620 -0.1336
  326PNSM   PO4 3978  23.848  12.244  12.041  0.2548 -0.0550 -0.0016
  326PNSM   AM1 3979  23.640  12.243  11.629 -0.1434  0.0065 -0.1250
  326PNSM   AM2 3980  23.572  12.627  11.452 -0.1851 -0.1867  0.1735
  326PNSM   T1A 3981  23.535  11.953  11.349 -0.0486  0.2324  0.0323
  326PNSM   C2A 3982  23.364  11.558  11.346 -0.2168  0.1781 -0.0561
  326PNSM   C3A 3983  22.996  11.270  11.248  0.0097  0.2162  0.0232
  326PNSM   C1B 3984  23.204  12.380  11.565 -0.1218  0.1290  0.1391
  326PNSM   C2B 3985  23.053  11.966  11.152  0.1058 -0.1566 -0.2142
  326PNSM   C3B 3986  22.886  11.675  11.026  0.2339  0.0808  0.0942
  326PNSM   D4B 3987  22.863  11.246  10.652  0.0768  0.1483 -0.1822
  326PNSM   C5B 3988  23.049  11.254  10.247  0.2688  0.2530 -0.2785
  326PNSM   C6B 3989  23.033  11.140   9.797  0.0920  0.4278  0.1936
  327PNSM   NC3 3990  13.149   9.594  19.161  0.2198 -0.1738 -0.0275
  327PNSM   PO4 3991  12.809   9.793  19.163 -0.0593 -0.1522 -0.2124
  327PNSM   AM1 3992  12.737   9.826  18.720  0.0069 -0.2193  0.2474
  327PNSM   AM2 3993  12.415   9.607  18.808 -0.0722  0.2036  0.1079
  327PNSM   T1A 3994  12.773  10.139  18.432 -0.2440  0.3194  0.2268
  327PNSM   C2A 3995  12.789  10.139  17.962  0.1697  0.3698 -0.0918
  327PNSM   C3A 3996  12.818  10.267  17.577 -0.0268  0.1087 -0.1539
  327PNSM   C1B 3997  12.509   9.515  18.445  0.2742  0.0114 -0.1935
  327PNSM   C2B 3998  12.464   9.779  18.154 -0.0479 -0.1915  0.3266
  327PNSM   C3B 3999  12.463   9.769  17.614  0.1005  0.0382  0.1920
  327PNSM   D4B 4000  12.382  10.064  17.277  0.0534  0.0156 -0.0393
  327PNSM   C5B 4001  12.058   9.930  17.032 -0.3571 -0.0061  0.2806
  327PNSM   C6B 4002  11.694   9.678  16.955 -0.2381  0.1435  0.1658
  328PNSM   NC3 4003  27.843  25.008   6.809 -0.0412  0.1969 -0.0763
  328PNSM   PO4 4004  28.340  24.919   6.883 -0.2096  0.1985 -0.0584
  328PNSM   AM1 4005  28.178  25.011   6.456  0.1065  0.4069  0.2233
  328PNSM   AM2 4006  27.960  24.941   6.292  0.2018  0.1183  0.2988
  328PNSM   T1A 4007  28.241  25.456   6.276 -0.1149 -0.0571  0.1732
  328PNSM   C2A 4008  28.272  25.744   5.907 -0.1332 -0.0355 -0.3533
  328PNSM   C3A 4009  28.208  26.056   5.685  0.0385  0.1880  0.1501
  328PNSM   C1B 4010  27.776  25.242   5.999  0.0187  0.3158  0.4215
  328PNSM   C2B 4011  27.631  25.398   5.677 -0.0359 -0.2113 -0.1639
  328PNSM   C3B 4012  27.716  25.469   5.269  0.0922 -0.0887  0.0052
  328PNSM   D4B 4013  27.974  25.318   4.894 -0.1228  0.0435 -0.3475
  328PNSM   C5B 4014  28.098  25.561   4.567 -0.1034  0.0175 -0.1986
  328PNSM   C6B 4015  27.996  25.760   4.191 -0.0200  0.1805  0.2287
  329DPGS    C1 4016  19.970  30.589  14.584  0.1267 -0.0790  0.1715
  329DPGS    C2 4017  20.190  30.433  14.715  0.1694 -0.0892  0.0880
  329DPGS    C3 4018  19.938  30.294  14.631  0.0973 -0.0621  0.2580
  329DPGS   AM1 4019  19.660  30.595  14.235 -0.1332  0.0692 -0.1701
  329DPGS   AM2 4020  19.518  30.457  14.407 -0.0981 -0.0848 -0.1957
  329DPGS   D1A 4021  19.656  30.543  13.947  0.2520 -0.0142  0.2985
  329DPGS   C2A 4022  19.388  30.393  13.701 -0.1081 -0.5383  0.0270
  329DPGS   C3A 4023  19.149  30.201  13.465 -0.2606  0.1523 -0.0757
  329DPGS   C4A 4024  18.889  29.943  13.083  0.0458 -0.1418 -0.1581
  329DPGS   C1B 4025  19.276  30.211  14.346  0.2547  0.0505 -0.1133
  329DPGS   C2B 4026  19.052  30.134  14.000  0.3295 -0.1894 -0.2741
  329DPGS   C3B 4027  18.764  29.972  13.953 -0.4797  0.2266  0.1141
  329DPGS   C4B 4028  18.410  29.833  13.674  0.0517 -0.0834  0.1590
  330DPGS    C1 4029  11.737  25.066  22.163 -0.0941  0.0008  0.1035
  330DPGS    C2 4030  11.964  25.242  22.077 -0.1489  0.0085 -0.0274
  330DPGS    C3 4031  11.972  25.106  22.345  0.0483 -0.0595 -0.0667
  330DPGS   AM1 4032  12.028  24.849  21.813 -0.1196 -0.1041  0.0930
  330DPGS   AM2 4033  11.855  24.650  21.811 -0.0536 -0.1220 -0.0271
  330DPGS   D1A 4034  12.217  24.918  21.611 -0.3091  0.2159  0.0174
  330DPGS   C2A 4035  12.406  24.837  21.186  0.0111 -0.3966 -0.0806
  330DPGS   C3A 4036  12.528  24.745  20.749  0.2260 -0.1539 -0.1682
  330DPGS   C4A 4037  12.272  24.724  20.463 -0.3697 -0.1608  0.0628
  330DPGS   C1B 4038  11.656  24.530  21.520 -0.0628  0.3998  0.1092
  330DPGS   C2B 4039  11.559  24.405  21.157  0.0414  0.0455 -0.1381
  330DPGS   C3B 4040  11.746  24.470  20.676 -0.1827  0.0614  0.3111
  330DPGS   C4B 4041  11.654  24.536  20.361 -0.0160 -0.1533  0.1743
  331DPGS    C1 4042  32.502  22.979   5.398  0.0043  0.0260 -0.1799
  331DPGS    C2 4043  32.267  22.859   5.257 -0.0705  0.0604 -0.0862
  331DPGS    C3 4044  32.242  22.943   5.543 -0.0344  0.3466 -0.1654
  331DPGS   AM1 4045  32.347  23.340   5.132  0.2273  0.0875 -0.3724
  331DPGS   AM2 4046  32.489  23.472   5.318 -0.0457  0.0874 -0.1930
  331DPGS   D1A 4047  32.357  23.438   4.847  0.0610  0.4929  0.0487
  331DPGS   C2A 4048  32.517  23.767   4.653 -0.1229  0.2249 -0.0637
  331DPGS   C3A 4049  32.680  23.932   4.293 -0.3534 -0.1810  0.0632
  331DPGS   C4A 4050  32.754  24.243   3.886  0.1369  0.0249  0.0929
  331DPGS   C1B 4051  32.693  23.742   5.168  0.0594  0.1115  0.4084
  331DPGS   C2B 4052  32.958  24.000   4.832  0.0401  0.0576  0.1966
  331DPGS   C3B 4053  33.055  24.202   4.413  0.0356  0.2136 -0.2351
  331DPGS   C4B 4054  33.223  24.083   3.950 -0.0854  0.2636 -0.3922
  332DPGS    C1 4055   0.653  20.484   7.765  0.1384 -0.1321 -0.1305
  332DPGS    C2 4056   0.600  20.190   7.738  0.6620 -0.2393 -0.0530
  332DPGS    C3 4057   0.650  20.310   8.009 -0.1247  0.0318 -0.0147
  332DPGS   AM1 4058   1.035  20.734   7.961  0.2318 -0.2078  0.2374
  332DPGS   AM2 4059   1.167  20.507   8.023  0.0680  0.2144 -0.1465
  332DPGS   D1A 4060   1.018  21.010   7.857  0.3888  0.2317 -0.2908
  332DPGS   C2A 4061   1.194  21.337   7.679  0.2569  0.0955  0.1871
  332DPGS   C3A 4062   1.492  21.545   7.396  0.1399 -0.0539  0.0907
  332DPGS   C4A 4063   1.708  21.793   7.030 -0.0404  0.2719 -0.0364
  332DPGS   C1B 4064   1.443  20.381   7.844 -0.1058  0.1241  0.1556
  332DPGS   C2B 4065   1.775  20.572   7.575 -0.3632 -0.1347 -0.4232
  332DPGS   C3B 4066   2.212  20.527   7.533 -0.1198  0.0575  0.1367
  332DPGS   C4B 4067   2.663  20.632   7.410  0.0723  0.0836 -0.1329
  333DPGS    C1 4068  32.328  25.119   8.443 -0.0369  0.1278 -0.0583
  333DPGS    C2 4069  32.278  24.823   8.449  0.0258  0.1139 -0.2086
  333DPGS    C3 4070  32.537  24.933   8.553  0.0464  0.1058 -0.2513
  333DPGS   AM1 4071  32.730  25.420   8.307  0.0440  0.2832  0.1022
  333DPGS   AM2 4072  32.846  25.268   8.099  0.0926  0.3534  0.0086
  333DPGS   D1A 4073  32.887  25.669   8.317 -0.1068 -0.0265  0.0295
  333DPGS   C2A 4074  33.164  25.851   8.005 -0.1006 -0.0535 -0.0096
  333DPGS   C3A 4075  33.404  26.066   7.757 -0.2393 -0.0717 -0.0445
  333DPGS   C4A 4076  33.775  26.285   7.549 -0.0149 -0.0500 -0.0699
  333DPGS   C1B 4077  33.176  25.357   7.994  0.2420  0.0920  0.3172
  333DPGS   C2B 4078  33.537  25.592   7.751 -0.0352  0.0585 -0.0884
  333DPGS   C3B 4079  33.843  25.837   7.716 -0.0113  0.0579 -0.2503
  333DPGS   C4B 4080  34.215  26.164   7.728  0.2714  0.0557 -0.2975
  334DPGS    C1 4081  28.214  21.906   4.327 -0.1174  0.0776 -0.1596
  334DPGS    C2 4082  28.194  21.785   4.601 -0.0496 -0.0035 -0.1903
  334DPGS    C3 4083  28.299  22.064   4.568  0.2614 -0.1159 -0.1632
  334DPGS   AM1 4084  27.855  22.247   4.230  0.2922  0.0092 -0.2275
  334DPGS   AM2 4085  28.085  22.289   4.055 -0.2620  0.0264 -0.0717
  334DPGS   D1A 4086  27.578  22.316   4.165 -0.0768  0.0533  0.3579
  334DPGS   C2A 4087  27.227  22.496   3.956  0.1437  0.0057 -0.2802
  334DPGS   C3A 4088  27.058  22.744   3.714  0.0849  0.0835 -0.2543
  334DPGS   C4A 4089  26.772  22.799   3.359 -0.2833 -0.0447  0.0218
  334DPGS   C1B 4090  28.128  22.399   3.707 -0.0182 -0.5798  0.0251
  334DPGS   C2B 4091  28.007  22.580   3.388 -0.1974 -0.0235  0.3757
  334DPGS   C3B 4092  27.613  22.692   3.175  0.2538  0.2766 -0.1680
  334DPGS   C4B 4093  27.210  22.820   3.205 -0.2421 -0.5084  0.0522
  335DPGS    C1 4094  32.938  18.523   4.801  0.0583  0.0807  0.1569
  335DPGS    C2 4095  33.027  18.361   5.037 -0.1424 -0.0391  0.1508
  335DPGS    C3 4096  33.165  18.329   4.773  0.0195  0.0247  0.2268
  335DPGS   AM1 4097  33.169  18.835   4.500  0.0451  0.1227 -0.0416
  335DPGS   AM2 4098  33.083  18.630   4.314  0.0929 -0.1909 -0.0983
  335DPGS   D1A 4099  33.345  19.011   4.351  0.1711  0.0366 -0.2600
  335DPGS   C2A 4100  33.546  19.068   3.998 -0.1415 -0.0126  0.1392
  335DPGS   C3A 4101  33.679  19.106   3.565 -0.3578  0.0007 -0.0199
  335DPGS   C4A 4102  34.089  19.160   3.340  0.2036 -0.2424  0.0233
  335DPGS   C1B 4103  33.325  18.539   4.051  0.0818  0.0134  0.4346
  335DPGS   C2B 4104  33.451  18.643   3.653  0.1514  0.0738  0.3184
  335DPGS   C3B 4105  33.309  18.741   3.292 -0.0691 -0.1828  0.0906
  335DPGS   C4B 4106  33.160  18.990   3.017 -0.1600  0.0869 -0.1345
  336DPGS    C1 4107  14.059   8.087  18.749 -0.0572 -0.0584 -0.1237
  336DPGS    C2 4108  14.147   8.248  18.987 -0.1242 -0.0691 -0.0916
  336DPGS    C3 4109  14.277   8.291  18.720 -0.1327  0.0287 -0.0797
  336DPGS   AM1 4110  14.132   7.970  18.284 -0.2296  0.4311  0.2219
  336DPGS   AM2 4111  14.105   7.731  18.435  0.0349  0.0463  0.1576
  336DPGS   D1A 4112  14.123   7.972  17.976 -0.1616 -0.0208  0.1935
  336DPGS   C2A 4113  14.137   7.897  17.629 -0.2167 -0.1746  0.1241
  336DPGS   C3A 4114  14.018   7.704  17.208 -0.0692 -0.0303 -0.1304
  336DPGS   C4A 4115  14.035   7.390  17.000  0.0622  0.2333 -0.3447
  336DPGS   C1B 4116  13.962   7.423  18.265 -0.1756 -0.1666 -0.0254
  336DPGS   C2B 4117  13.857   7.505  17.821 -0.1606  0.0067  0.1462
  336DPGS   C3B 4118  13.657   7.438  17.380  0.0670  0.2751  0.0528
  336DPGS   C4B 4119  13.567   7.547  16.971 -0.1786 -0.1760  0.2280
  337DPGS    C1 4120  28.295  13.488   4.556  0.0483 -0.0547 -0.1067
  337DPGS    C2 4121  28.585  13.525   4.486  0.0484 -0.0046 -0.0796
  337DPGS    C3 4122  28.480  13.252   4.555  0.1462  0.0200  0.1708
  337DPGS   AM1 4123  28.309  13.447   4.062 -0.0992 -0.0762 -0.2281
  337DPGS   AM2 4124  28.134  13.261   4.168 -0.2006 -0.1689 -0.0803
  337DPGS   D1A 4125  28.284  13.678   3.862 -0.1188 -0.1586 -0.2259
  337DPGS   C2A 4126  28.213  13.639   3.434 -0.0413  0.1618  0.0864
  337DPGS   C3A 4127  27.898  13.649   3.092  0.0805 -0.3001  0.0403
  337DPGS   C4A 4128  27.501  13.537   2.846  0.1498  0.0916 -0.2047
  337DPGS   C1B 4129  27.934  13.026   3.972  0.4767 -0.0086 -0.2645
  337DPGS   C2B 4130  27.774  12.867   3.594  0.2146 -0.0738  0.0508
  337DPGS   C3B 4131  27.401  12.726   3.413 -0.2334 -0.0276 -0.1163
  337DPGS   C4B 4132  27.204  12.270   3.165 -0.3779  0.0361 -0.1832
  338DPGS    C1 4133   3.611  24.397  17.048 -0.5941  0.0155 -0.0691
  338DPGS    C2 4134   3.630  24.202  17.275 -0.2372  0.2217  0.0826
  338DPGS    C3 4135   3.508  24.117  17.015  0.1115 -0.2717  0.0729
  338DPGS   AM1 4136   3.645  24.436  16.565 -0.5097  0.1860  0.1303
  338DPGS   AM2 4137   3.461  24.614  16.457 -0.1929 -0.3053  0.1237
  338DPGS   D1A 4138   3.896  24.583  16.580 -0.2491  0.1656  0.2786
  338DPGS   C2A 4139   4.283  24.558  16.450 -0.0182  0.0506 -0.1737
  338DPGS   C3A 4140   4.668  24.643  16.211  0.0950 -0.2262 -0.1686
  338DPGS   C4A 4141   5.155  24.668  16.092 -0.4957  0.1631  0.0201
  338DPGS   C1B 4142   3.531  24.934  16.277 -0.2554 -0.0733 -0.4817
  338DPGS   C2B 4143   3.861  25.244  16.131  0.2004 -0.3887 -0.0926
  338DPGS   C3B 4144   4.282  25.491  16.010 -0.0783 -0.0057 -0.1968
  338DPGS   C4B 4145   4.626  25.680  15.934 -0.0890 -0.0097  0.3354
  339DPGS    C1 4146  34.797  30.279  14.239 -0.0146 -0.1773 -0.0836
  339DPGS    C2 4147  34.623  30.424  14.042  0.4137  0.1548 -0.2269
  339DPGS    C3 4148  34.647  30.525  14.324 -0.1494 -0.2834 -0.0124
  339DPGS   AM1 4149  35.092  30.546  13.956  0.2512  0.1166 -0.0669
  339DPGS   AM2 4150  35.193  30.534  14.205 -0.0299  0.1789 -0.0636
  339DPGS   D1A 4151  35.284  30.599  13.744 -0.0233  0.3013  0.0026
  339DPGS   C2A 4152   0.272  30.672  13.649  0.3035  0.2079 -0.0927
  339DPGS   C3A 4153   0.661  30.829  13.598  0.0389  0.1058  0.1767
  339DPGS   C4A 4154   0.802  31.126  13.455 -0.0597  0.0313 -0.1011
  339DPGS   C1B 4155   0.145  30.650  14.231  0.2382 -0.0666  0.2342
  339DPGS   C2B 4156   0.507  30.900  14.050  0.1852 -0.2498 -0.4373
  339DPGS   C3B 4157   0.711  31.291  13.968 -0.1040  0.0124 -0.0868
  339DPGS   C4B 4158   1.073  31.405  13.881  0.3976 -0.0687 -0.2889
  340DPGS    C1 4159  27.690   5.857   9.249 -0.1182  0.0616  0.0257
  340DPGS    C2 4160  27.518   6.065   9.379 -0.1320  0.0616  0.0083
  340DPGS    C3 4161  27.816   6.077   9.410 -0.1421 -0.0036  0.1333
  340DPGS   AM1 4162  27.937   6.016   8.847 -0.1971 -0.3310  0.2484
  340DPGS   AM2 4163  28.145   5.958   9.016  0.0920 -0.1866 -0.3112
  340DPGS   D1A 4164  27.865   5.897   8.588 -0.0074  0.0753 -0.1643
  340DPGS   C2A 4165  27.721   5.713   8.297 -0.0009  0.0391 -0.1972
  340DPGS   C3A 4166  27.747   5.417   7.959  0.0838  0.2023 -0.1533
  340DPGS   C4A 4167  27.354   5.318   7.729 -0.2505  0.1677  0.0912
  340DPGS   C1B 4168  28.317   5.656   8.952 -0.3226  0.1002 -0.1091
  340DPGS   C2B 4169  28.217   5.520   8.526 -0.2370  0.2636 -0.0598
  340DPGS   C3B 4170  28.181   5.230   8.183  0.0401 -0.2318  0.2723
  340DPGS   C4B 4171  28.402   4.946   7.897 -0.1784 -0.1946 -0.1265
  341DPGS    C1 4172   3.095  26.721  18.238 -0.1176 -0.0092  0.0299
  341DPGS    C2 4173   3.072  26.423  18.264  0.1251 -0.0312  0.0027
  341DPGS    C3 4174   2.825  26.593  18.259 -0.0057 -0.2109  0.2604
  341DPGS   AM1 4175   3.141  26.550  17.793  0.1533 -0.0003 -0.3365
  341DPGS   AM2 4176   3.127  26.817  17.757  0.0613  0.3282  0.0006
  341DPGS   D1A 4177   3.328  26.401  17.642 -0.1628  0.0282 -0.0987
  341DPGS   C2A 4178   3.568  26.458  17.194 -0.0137 -0.0999  0.3605
  341DPGS   C3A 4179   3.646  26.519  16.818  0.3502 -0.0542  0.2153
  341DPGS   C4A 4180   3.893  26.776  16.705 -0.2243 -0.1925 -0.2988
  341DPGS   C1B 4181   3.208  26.915  17.429  0.1128 -0.1103  0.0548
  341DPGS   C2B 4182   3.569  26.984  17.099  0.2909  0.0852 -0.0294
  341DPGS   C3B 4183   3.791  27.233  16.744  0.0341 -0.0395  0.0848
  341DPGS   C4B 4184   4.083  27.479  16.868 -0.3431  0.1044 -0.0698
  342DPGS    C1 4185  27.666  23.277   5.795 -0.1428 -0.0554  0.3274
  342DPGS    C2 4186  27.942  23.366   5.871 -0.0574 -0.0632  0.0357
  342DPGS    C3 4187  27.902  23.106   5.727 -0.2088 -0.0194 -0.0024
  342DPGS   AM1 4188  27.874  23.609   5.409  0.0266  0.1284 -0.2867
  342DPGS   AM2 4189  27.646  23.461   5.384  0.3125 -0.2412 -0.1434
  342DPGS   D1A 4190  27.833  23.908   5.337 -0.3073  0.0430  0.2055
  342DPGS   C2A 4191  27.760  24.105   4.877  0.0670 -0.0191 -0.0612
  342DPGS   C3A 4192  27.771  24.478   4.527 -0.2621 -0.1575 -0.2364
  342DPGS   C4A 4193  27.384  24.619   4.080 -0.3680  0.2333 -0.0824
  342DPGS   C1B 4194  27.448  23.561   5.119 -0.1318 -0.1326 -0.1221
  342DPGS   C2B 4195  27.346  23.819   4.861  0.0279  0.1111 -0.1965
  342DPGS   C3B 4196  27.319  24.100   4.597 -0.0513 -0.2095  0.0904
  342DPGS   C4B 4197  27.112  24.327   4.383 -0.1008  0.1261 -0.0889
  343DPGS    C1 4198  31.933  19.990   4.409  0.2158 -0.0867  0.1182
  343DPGS    C2 4199  31.888  19.841   4.666 -0.2004 -0.1340  0.0226
  343DPGS    C3 4200  31.831  20.135   4.651 -0.0018 -0.0938  0.0319
  343DPGS   AM1 4201  31.677  20.313   4.101 -0.3304  0.1414  0.2964
  343DPGS   AM2 4202  31.898  20.451   4.061  0.2351  0.1508  0.0188
  343DPGS   D1A 4203  31.443  20.249   3.927  0.1449 -0.0736  0.3267
  343DPGS   C2A 4204  31.295  20.372   3.545  0.0363 -0.2380 -0.1619
  343DPGS   C3A 4205  31.257  20.226   3.121  0.0202 -0.2076  0.0875
  343DPGS   C4A 4206  31.500  20.273   2.783 -0.0805 -0.3140 -0.0661
  343DPGS   C1B 4207  32.107  20.452   3.768 -0.1324  0.0492  0.0849
  343DPGS   C2B 4208  32.249  20.556   3.374  0.0082  0.0962 -0.3142
  343DPGS   C3B 4209  32.520  20.640   3.015 -0.1585  0.3377  0.0096
  343DPGS   C4B 4210  32.493  20.562   2.672  0.2365  0.0453  0.4094
  344DPGS    C1 4211  32.770  24.188   7.812  0.0415 -0.2222  0.0675
  344DPGS    C2 4212  33.065  24.154   7.773  0.0694  0.2350 -0.1432
  344DPGS    C3 4213  32.880  24.139   7.537 -0.1099 -0.3361  0.0264
  344DPGS   AM1 4214  32.939  24.646   7.821  0.4457 -0.3183  0.2067
  344DPGS   AM2 4215  32.798  24.666   7.596  0.4006 -0.3973 -0.0353
  344DPGS   D1A 4216  33.114  24.837   7.909 -0.2317 -0.0072  0.4313
  344DPGS   C2A 4217  33.339  25.136   7.601 -0.1402  0.2605  0.0997
  344DPGS   C3A 4218  33.522  25.157   7.369 -0.1342 -0.1919 -0.0925
  344DPGS   C4A 4219  33.757  25.489   7.326  0.3329  0.2155  0.1978
  344DPGS   C1B 4220  32.938  24.780   7.267 -0.0512  0.0191 -0.1597
  344DPGS   C2B 4221  33.157  25.099   7.024  0.0830  0.0783 -0.0946
  344DPGS   C3B 4222  33.507  25.284   6.836  0.1253  0.1220  0.1873
  344DPGS   C4B 4223  33.491  25.552   6.653 -0.0812  0.0886  0.3007
  345DPGS    C1 4224  21.214  15.529  15.432  0.0866  0.2860 -0.1987
  345DPGS    C2 4225  21.419  15.444  15.230 -0.0742  0.0578 -0.2680
  345DPGS    C3 4226  21.171  15.280  15.270 -0.0329  0.0880  0.1323
  345DPGS   AM1 4227  20.730  15.653  15.346 -0.0577 -0.3549 -0.0546
  345DPGS   AM2 4228  20.712  15.397  15.425 -0.1771 -0.0492  0.2866
  345DPGS   D1A 4229  20.485  15.785  15.299  0.1669  0.0467  0.3702
  345DPGS   C2A 4230  20.095  15.763  15.018 -0.1326 -0.0142 -0.2202
  345DPGS   C3A 4231  19.807  15.881  14.749  0.1406 -0.1873 -0.0436
  345DPGS   C4A 4232  19.524  15.718  14.473  0.0727  0.2318  0.1528
  345DPGS   C1B 4233  20.531  15.195  15.155  0.1339  0.1650 -0.2303
  345DPGS   C2B 4234  20.275  15.338  14.978  0.2352 -0.2041 -0.1341
  345DPGS   C3B 4235  19.956  15.428  14.654  0.1028 -0.1669 -0.0886
  345DPGS   C4B 4236  19.777  15.285  14.314  0.1341 -0.2740  0.2768
  346DPGS    C1 4237  28.752  25.162   6.378  0.0177 -0.3299 -0.1242
  346DPGS    C2 4238  28.639  25.230   6.648  0.1485  0.1097 -0.1764
  346DPGS    C3 4239  28.717  24.948   6.585  0.0143 -0.0150  0.2065
  346DPGS   AM1 4240  28.679  24.877   6.004  0.0116  0.1179  0.1804
  346DPGS   AM2 4241  28.415  24.938   6.014 -0.1366  0.0823  0.2038
  346DPGS   D1A 4242  28.862  24.922   5.793  0.3029 -0.0629  0.0076
  346DPGS   C2A 4243  28.960  25.007   5.399 -0.2154  0.3611  0.1036
  346DPGS   C3A 4244  29.181  25.154   5.081 -0.2642  0.0568 -0.1785
  346DPGS   C4A 4245  29.031  25.198   4.687 -0.2663 -0.2655  0.0272
  346DPGS   C1B 4246  28.206  25.184   5.834  0.1075 -0.1745 -0.0964
  346DPGS   C2B 4247  28.098  25.449   5.549 -0.3608  0.1816 -0.1393
  346DPGS   C3B 4248  28.211  25.745   5.146 -0.2813  0.0746  0.2203
  346DPGS   C4B 4249  28.414  25.952   4.796  0.0655  0.2270  0.0520
  347DPGS    C1 4250  35.050  12.067   7.913  0.1893  0.1019 -0.2251
  347DPGS    C2 4251  35.146  11.794   7.991 -0.1682  0.0316 -0.0195
  347DPGS    C3 4252  35.162  12.021   8.187 -0.0620  0.1105 -0.1192
  347DPGS   AM1 4253   0.086  12.159   7.720  0.1795 -0.2004 -0.1100
  347DPGS   AM2 4254   0.046  11.912   7.606  0.2292 -0.0429  0.3121
  347DPGS   D1A 4255   0.317  12.309   7.669  0.2166 -0.0111  0.0127
  347DPGS   C2A 4256   0.661  12.286   7.498  0.0037  0.0845 -0.2786
  347DPGS   C3A 4257   1.033  12.075   7.399 -0.0062 -0.2023 -0.0768
  347DPGS   C4A 4258   1.242  12.095   7.043  0.0918  0.0429  0.1275
  347DPGS   C1B 4259   0.256  11.661   7.437  0.0013 -0.1819  0.3147
  347DPGS   C2B 4260   0.643  11.517   7.278  0.0919  0.5775 -0.0170
  347DPGS   C3B 4261   1.120  11.492   7.170 -0.0782  0.0879  0.1028
  347DPGS   C4B 4262   1.342  11.364   6.747  0.0914 -0.1526  0.0378
  348DPGS    C1 4263  19.382  12.208  16.546 -0.0314  0.0033 -0.2908
  348DPGS    C2 4264  19.645  12.062  16.559 -0.0641 -0.0216  0.1631
  348DPGS    C3 4265  19.637  12.360  16.591 -0.0910 -0.0203  0.1444
  348DPGS   AM1 4266  19.436  12.264  16.077  0.1955  0.2459 -0.1367
  348DPGS   AM2 4267  19.439  11.994  16.090 -0.2017 -0.1057 -0.0930
  348DPGS   D1A 4268  19.492  12.447  15.837 -0.0545 -0.0604  0.0629
  348DPGS   C2A 4269  19.502  12.605  15.446  0.1109  0.0633 -0.0638
  348DPGS   C3A 4270  19.984  12.616  15.284 -0.1124 -0.2414 -0.2475
  348DPGS   C4A 4271  20.246  12.824  14.993  0.2760  0.2609  0.1125
  348DPGS   C1B 4272  19.248  11.729  15.920  0.4270  0.1931  0.2618
  348DPGS   C2B 4273  18.851  11.508  15.714 -0.0247  0.1412 -0.3921
  348DPGS   C3B 4274  18.445  11.468  15.726  0.3840 -0.1646  0.1311
  348DPGS   C4B 4275  18.031  11.216  15.714 -0.1677  0.0308  0.1081
  349DPGS    C1 4276  29.535  34.180  10.683  0.0885  0.0530 -0.0258
  349DPGS    C2 4277  29.656  34.441  10.596  0.0853  0.0722  0.0276
  349DPGS    C3 4278  29.453  34.305  10.423 -0.0162  0.1750  0.0652
  349DPGS   AM1 4279  29.973  34.042  10.495  0.1415 -0.0425 -0.1324
  349DPGS   AM2 4280  30.108  34.265  10.559 -0.0941 -0.1566 -0.0020
  349DPGS   D1A 4281  30.046  33.884  10.239 -0.2810 -0.1853 -0.0939
  349DPGS   C2A 4282  30.212  33.837   9.919  0.1247 -0.4734 -0.1005
  349DPGS   C3A 4283  30.263  33.721   9.571  0.0635 -0.0815  0.0252
  349DPGS   C4A 4284  30.555  33.634   9.253  0.1131 -0.0689 -0.1585
  349DPGS   C1B 4285  30.138  34.582  10.355  0.0418  0.3812 -0.2488
  349DPGS   C2B 4286  30.154  34.796  10.009  0.0418 -0.0242 -0.0032
  349DPGS   C3B 4287  30.366  34.795   9.614 -0.0487  0.0320  0.0534
  349DPGS   C4B 4288  30.393  34.594   9.235 -0.1490  0.3754 -0.1375
  350DPGS    C1 4289   1.870  24.437  15.164 -0.1475 -0.0704 -0.0924
  350DPGS    C2 4290   1.927  24.158  15.069  0.0451 -0.0717  0.0237
  350DPGS    C3 4291   2.034  24.393  14.917  0.0751 -0.0662  0.0535
  350DPGS   AM1 4292   1.982  24.904  15.132  0.1141 -0.3067 -0.1848
  350DPGS   AM2 4293   1.788  24.863  14.941  0.4183 -0.1983 -0.0417
  350DPGS   D1A 4294   2.210  25.114  15.149 -0.0869  0.0039  0.2031
  350DPGS   C2A 4295   2.507  25.349  14.996  0.1943 -0.2448  0.3017
  350DPGS   C3A 4296   2.789  25.571  14.790  0.1165 -0.1106 -0.0349
  350DPGS   C4A 4297   3.163  25.706  14.633 -0.1726 -0.2422  0.2117
  350DPGS   C1B 4298   1.806  25.083  14.634 -0.0257  0.1361 -0.0003
  350DPGS   C2B 4299   2.095  25.239  14.462  0.0671  0.2474 -0.1156
  350DPGS   C3B 4300   2.431  25.594  14.382  0.0771  0.1875 -0.0037
  350DPGS   C4B 4301   2.725  25.882  14.385  0.0709 -0.0805  0.1745
  351DPGS    C1 4302  30.311  12.783   4.420  0.1136 -0.2546 -0.0812
  351DPGS    C2 4303  30.306  12.843   4.714 -0.3248  0.0598 -0.1472
  351DPGS    C3 4304  30.565  12.853   4.563 -0.1142  0.0048  0.2046
  351DPGS   AM1 4305  30.480  12.949   4.006 -0.0036  0.0241  0.0008
  351DPGS   AM2 4306  30.358  12.726   3.917 -0.1129  0.1898  0.0522
  351DPGS   D1A 4307  30.639  13.119   3.834  0.0798 -0.1537  0.3822
  351DPGS   C2A 4308  30.644  13.313   3.500 -0.0013  0.1488  0.2434
  351DPGS   C3A 4309  30.940  13.255   3.208 -0.3271 -0.0959 -0.0955
  351DPGS   C4A 4310  30.983  13.260   2.866  0.1918  0.0840  0.0189
  351DPGS   C1B 4311  30.419  12.520   3.612 -0.1587  0.3054 -0.0698
  351DPGS   C2B 4312  30.357  12.184   3.336  0.0621  0.1681 -0.1035
  351DPGS   C3B 4313  30.163  11.838   3.082 -0.3198  0.1591 -0.0170
  351DPGS   C4B 4314  29.929  11.676   2.690  0.0362 -0.0685 -0.0570
  352DPGS    C1 4315  11.861  12.366  18.436  0.0560  0.0541  0.0264
  352DPGS    C2 4316  11.659  12.578  18.370  0.0514  0.0737  0.1044
  352DPGS    C3 4317  11.943  12.654  18.428  0.0989  0.0391 -0.0815
  352DPGS   AM1 4318  11.989  12.310  17.970  0.2829 -0.1358 -0.0333
  352DPGS   AM2 4319  12.133  12.133  18.103 -0.0647 -0.2201 -0.1235
  352DPGS   D1A 4320  11.912  12.368  17.711 -0.0673  0.4724  0.2510
  352DPGS   C2A 4321  11.913  12.306  17.337  0.0095 -0.0059  0.1968
  352DPGS   C3A 4322  11.853  12.150  16.961 -0.0720  0.0337 -0.2846
  352DPGS   C4A 4323  11.592  12.340  16.651 -0.0727 -0.2977  0.0401
  352DPGS   C1B 4324  12.324  11.839  18.034 -0.1192 -0.0237 -0.2535
  352DPGS   C2B 4325  12.565  11.763  17.687 -0.2190 -0.1400 -0.2249
  352DPGS   C3B 4326  12.705  11.937  17.242  0.2244  0.2259  0.0329
  352DPGS   C4B 4327  12.879  12.265  16.869 -0.0050  0.2852  0.2749
  353DPGS    C1 4328  21.140   0.008  13.055 -0.4053 -0.0266  0.0024
  353DPGS    C2 4329  21.279  35.279  13.295  0.0931  0.0293 -0.2537
  353DPGS    C3 4330  21.059   0.094  13.331 -0.0503 -0.1970  0.1627
  353DPGS   AM1 4331  20.700   0.237  12.913  0.1889  0.1161  0.1900
  353DPGS   AM2 4332  20.896   0.410  12.896  0.0542  0.3070 -0.0918
  353DPGS   D1A 4333  20.499   0.194  12.721 -0.5001  0.1814  0.0258
  353DPGS   C2A 4334  20.464   0.267  12.259 -0.0753 -0.0704 -0.0488
  353DPGS   C3A 4335  20.365   0.231  11.937 -0.0321 -0.2423  0.1983
  353DPGS   C4A 4336  20.279   0.209  11.493  0.4692  0.1459 -0.0231
  353DPGS   C1B 4337  21.024   0.651  12.644 -0.1493  0.1575  0.1040
  353DPGS   C2B 4338  21.013   0.824  12.279  0.2906 -0.0088 -0.1660
  353DPGS   C3B 4339  20.935   0.953  11.830  0.1322 -0.1741  0.5774
  353DPGS   C4B 4340  20.743   1.040  11.495  0.1026  0.0003 -0.2139
  354DPGS    C1 4341  26.184  26.868   8.689 -0.0323  0.0089  0.1796
  354DPGS    C2 4342  25.926  26.717   8.661  0.0880 -0.1858  0.1128
  354DPGS    C3 4343  25.925  26.997   8.768 -0.2135  0.0144 -0.3961
  354DPGS   AM1 4344  26.070  26.849   8.214 -0.0242 -0.1841  0.2277
  354DPGS   AM2 4345  26.277  27.015   8.161 -0.0820 -0.0804  0.4437
  354DPGS   D1A 4346  25.819  26.826   8.033  0.2137  0.0531  0.0207
  354DPGS   C2A 4347  25.535  26.918   7.794 -0.0478  0.0035 -0.1731
  354DPGS   C3A 4348  25.388  27.099   7.394 -0.0613  0.0407  0.3941
  354DPGS   C4A 4349  25.627  27.045   6.970 -0.2349 -0.3636  0.0223
  354DPGS   C1B 4350  26.271  27.259   7.869 -0.1172 -0.0781  0.3168
  354DPGS   C2B 4351  26.099  27.531   7.696  0.1275  0.0226 -0.1044
  354DPGS   C3B 4352  26.267  27.902   7.449  0.2880  0.2046 -0.0459
  354DPGS   C4B 4353  26.240  28.241   7.178 -0.0240 -0.2982  0.0625
  355DPGS    C1 4354  32.391  18.036   4.907 -0.0111  0.0231 -0.1237
  355DPGS    C2 4355  32.510  18.311   4.886  0.1606 -0.0519 -0.1410
  355DPGS    C3 4356  32.681  18.079   4.970 -0.0504 -0.1042  0.1538
  355DPGS   AM1 4357  32.533  17.788   4.484  0.0648 -0.0305  0.0218
  355DPGS   AM2 4358  32.481  17.588   4.672  0.2247 -0.0005  0.1003
  355DPGS   D1A 4359  32.546  17.727   4.198  0.2154  0.0297  0.3118
  355DPGS   C2A 4360  32.466  17.518   3.787 -0.2257 -0.1849  0.1598
  355DPGS   C3A 4361  32.625  17.719   3.466 -0.0377 -0.2236  0.0409
  355DPGS   C4A 4362  32.803  17.928   3.126  0.2753 -0.1852 -0.3371
  355DPGS   C1B 4363  32.773  17.410   4.800 -0.0077  0.4076  0.0412
  355DPGS   C2B 4364  33.127  17.323   4.606 -0.2713 -0.3070  0.0675
  355DPGS   C3B 4365  33.415  17.285   4.352  0.2871 -0.0118  0.1415
  355DPGS   C4B 4366  33.478  17.240   3.907  0.0136 -0.2011  0.0015
  356DPGS    C1 4367  30.739  10.639   6.041 -0.1301  0.0508  0.1771
  356DPGS    C2 4368  30.999  10.787   6.059 -0.1881  0.1500  0.2084
  356DPGS    C3 4369  30.903  10.683   5.794 -0.1209  0.1207  0.1954
  356DPGS   AM1 4370  30.893  10.154   6.014 -0.0555 -0.0594 -0.0513
  356DPGS   AM2 4371  31.085  10.263   6.152 -0.2214 -0.0661  0.0863
  356DPGS   D1A 4372  30.868   9.918   5.906  0.0147  0.2639  0.2030
  356DPGS   C2A 4373  30.961   9.641   5.686  0.3097  0.2264  0.0410
  356DPGS   C3A 4374  31.061   9.423   5.269  0.1513 -0.0069 -0.2542
  356DPGS   C4A 4375  31.179   9.284   4.757  0.2819  0.1129 -0.1356
  356DPGS   C1B 4376  31.377  10.069   6.232 -0.2467 -0.1801  0.1477
  356DPGS   C2B 4377  31.837   9.788   6.040  0.1710 -0.0996  0.0526
  356DPGS   C3B 4378  32.122   9.541   5.664  0.2880  0.0176 -0.0630
  356DPGS   C4B 4379  32.351   9.225   5.389  0.0939 -0.0239 -0.1974
  357DPGS    C1 4380  26.585  26.191   8.056 -0.1045  0.0685 -0.1408
  357DPGS    C2 4381  26.551  26.089   7.776  0.2462  0.0252 -0.1698
  357DPGS    C3 4382  26.782  26.268   7.844  0.0601  0.1852  0.0518
  357DPGS   AM1 4383  26.287  26.573   7.817 -0.1384 -0.3803  0.0281
  357DPGS   AM2 4384  26.140  26.335   7.869  0.1667 -0.1157  0.1707
  357DPGS   D1A 4385  26.168  26.768   7.653  0.0695 -0.0724 -0.3800
  357DPGS   C2A 4386  25.933  26.934   7.358 -0.1718 -0.2510 -0.6770
  357DPGS   C3A 4387  25.927  27.328   7.251 -0.0398  0.1569  0.1237
  357DPGS   C4A 4388  25.892  27.724   7.111  0.2911 -0.1307  0.4356
  357DPGS   C1B 4389  25.796  26.334   7.738 -0.1322 -0.1883  0.0231
  357DPGS   C2B 4390  25.461  26.453   7.521  0.0652 -0.0890 -0.3374
  357DPGS   C3B 4391  25.059  26.728   7.514 -0.0237 -0.1848 -0.1463
  357DPGS   C4B 4392  24.919  26.950   7.157  0.1858  0.3133  0.1468
  358DPGS    C1 4393  27.034  25.131   7.144 -0.2856 -0.1750 -0.1268
  358DPGS    C2 4394  26.920  25.179   7.417 -0.0049 -0.0239 -0.0336
  358DPGS    C3 4395  26.786  25.297   7.176 -0.1468  0.0003  0.0564
  358DPGS   AM1 4396  26.997  25.094   6.700 -0.2442  0.0005 -0.0058
  358DPGS   AM2 4397  27.082  25.351   6.703  0.0168  0.0101 -0.3187
  358DPGS   D1A 4398  26.921  24.951   6.469 -0.2017  0.1550 -0.3500
  358DPGS   C2A 4399  26.773  25.265   6.169 -0.1975 -0.0452 -0.0858
  358DPGS   C3A 4400  26.564  25.463   5.775  0.1593  0.5389  0.0545
  358DPGS   C4A 4401  26.139  25.550   5.739 -0.2644  0.3602 -0.1782
  358DPGS   C1B 4402  26.979  25.629   6.492  0.4183 -0.2018  0.4319
  358DPGS   C2B 4403  26.899  25.930   6.208  0.2516  0.0451  0.2030
  358DPGS   C3B 4404  26.731  25.927   5.781  0.4393 -0.0239 -0.0286
  358DPGS   C4B 4405  26.396  25.927   5.455 -0.2361 -0.0462  0.0981
  359DPGS    C1 4406   2.688  20.156  10.611 -0.1186 -0.0799  0.0740
  359DPGS    C2 4407   2.634  20.436  10.705 -0.1545 -0.0857  0.0705
  359DPGS    C3 4408   2.804  20.390  10.462 -0.0727 -0.0702  0.1247
  359DPGS   AM1 4409   2.983  19.848  10.373 -0.1526  0.3072 -0.0078
  359DPGS   AM2 4410   3.158  19.932  10.558 -0.1073 -0.2758  0.0830
  359DPGS   D1A 4411   2.978  19.677  10.154  0.0985 -0.1597 -0.1664
  359DPGS   C2A 4412   3.353  19.573   9.831 -0.3251 -0.1795  0.3371
  359DPGS   C3A 4413   3.696  19.512   9.583  0.1012  0.2312  0.1047
  359DPGS   C4A 4414   4.056  19.656   9.499 -0.1150 -0.1925  0.1294
  359DPGS   C1B 4415   3.528  20.002  10.512 -0.0728 -0.1549 -0.1626
  359DPGS   C2B 4416   3.894  20.031  10.378  0.1274  0.3905  0.2157
  359DPGS   C3B 4417   4.200  20.045  10.108 -0.0095  0.0687  0.1310
  359DPGS   C4B 4418   4.506  20.367   9.951 -0.1174  0.0909  0.0931
  360DPGS    C1 4419  29.436   7.396   8.110  0.1734 -0.1300  0.0348
  360DPGS    C2 4420  29.261   7.227   8.286  0.0302  0.0235  0.0409
  360DPGS    C3 4421  29.545   7.282   8.366  0.0809 -0.2200  0.0344
  360DPGS   AM1 4422  29.901   7.238   7.920 -0.0268  0.1356  0.0111
  360DPGS   AM2 4423  29.733   7.045   7.854 -0.1180  0.0659  0.1518
  360DPGS   D1A 4424  30.183   7.164   7.804 -0.0131 -0.1534 -0.2052
  360DPGS   C2A 4425  30.574   7.080   7.671 -0.2443 -0.0831  0.0265
  360DPGS   C3A 4426  30.781   6.771   7.527 -0.1332 -0.2401 -0.0285
  360DPGS   C4A 4427  30.863   6.425   7.275 -0.2966 -0.1814  0.1130
  360DPGS   C1B 4428  29.840   6.794   7.622 -0.1631  0.2232  0.1114
  360DPGS   C2B 4429  29.763   6.511   7.437  0.0175  0.1531 -0.0625
  360DPGS   C3B 4430  29.833   6.273   7.110 -0.1720  0.1037  0.1872
  360DPGS   C4B 4431  29.612   6.069   6.751  0.2011  0.0439  0.1395
  361DPGS    C1 4432  23.507  18.362  11.227 -0.2224  0.2143 -0.1085
  361DPGS    C2 4433  23.427  18.534  11.460  0.1649  0.0629  0.1406
  361DPGS    C3 4434  23.696  18.570  11.333  0.0474 -0.0158 -0.1340
  361DPGS   AM1 4435  23.257  18.762  11.009 -0.0858  0.0980  0.1557
  361DPGS   AM2 4436  23.337  18.610  10.810  0.0455 -0.0234  0.0042
  361DPGS   D1A 4437  23.012  18.856  11.133 -0.0398 -0.1659  0.1374
  361DPGS   C2A 4438  22.623  19.062  11.130 -0.1950 -0.1381  0.2146
  361DPGS   C3A 4439  22.183  19.071  11.040  0.1723  0.1755  0.0920
  361DPGS   C4A 4440  21.863  19.274  10.851 -0.0442  0.0266 -0.3792
  361DPGS   C1B 4441  23.106  18.404  10.613  0.0836 -0.1596  0.0754
  361DPGS   C2B 4442  22.779  18.489  10.500  0.0813 -0.0991 -0.0263
  361DPGS   C3B 4443  22.329  18.602  10.268  0.1555 -0.2297  0.1995
  361DPGS   C4B 4444  21.910  18.616  10.163  0.0626  0.1724  0.0166
  362DPGS    C1 4445   3.780  30.754  18.961  0.0708  0.2359  0.0252
  362DPGS    C2 4446   3.917  30.977  19.107  0.2972  0.0181  0.1488
  362DPGS    C3 4447   4.033  30.700  19.113 -0.0892 -0.1466  0.1622
  362DPGS   AM1 4448   4.020  30.792  18.539  0.0432 -0.2147  0.2701
  362DPGS   AM2 4449   4.016  30.511  18.589 -0.1837 -0.1011 -0.2726
  362DPGS   D1A 4450   4.079  30.965  18.307  0.1534  0.1254  0.1054
  362DPGS   C2A 4451   4.249  31.054  17.931  0.0919 -0.2825  0.1211
  362DPGS   C3A 4452   4.633  30.848  17.827  0.3027 -0.3761  0.5070
  362DPGS   C4A 4453   4.907  30.977  17.459 -0.1641 -0.1526  0.0625
  362DPGS   C1B 4454   4.155  30.207  18.418 -0.1378  0.1479 -0.0994
  362DPGS   C2B 4455   4.372  29.971  18.207  0.2748 -0.2109 -0.1790
  362DPGS   C3B 4456   4.816  29.899  18.121  0.0729  0.2342 -0.2932
  362DPGS   C4B 4457   5.157  29.704  17.982 -0.1537 -0.0488 -0.2585
  363DPGS    C1 4458  26.310   5.118  10.429  0.1582 -0.1026  0.0088
  363DPGS    C2 4459  26.579   5.189  10.317  0.1476 -0.2998 -0.1446
  363DPGS    C3 4460  26.346   5.373  10.276  0.3004 -0.0341  0.1546
  363DPGS   AM1 4461  26.101   4.958   9.994  0.0919  0.0152 -0.0414
  363DPGS   AM2 4462  26.360   4.879   9.929 -0.0388  0.1902  0.0222
  363DPGS   D1A 4463  25.907   4.765  10.033  0.0694  0.1218  0.0166
  363DPGS   C2A 4464  25.619   4.707   9.792  0.0247  0.0586 -0.0704
  363DPGS   C3A 4465  25.284   4.665   9.481  0.2519  0.3191 -0.2040
  363DPGS   C4A 4466  24.856   4.650   9.444  0.1499  0.0677  0.1363
  363DPGS   C1B 4467  26.507   4.825   9.612  0.0693 -0.0405  0.5499
  363DPGS   C2B 4468  26.560   4.491   9.497 -0.0008 -0.3974  0.0914
  363DPGS   C3B 4469  26.342   4.256   9.153 -0.1841 -0.1414  0.4571
  363DPGS   C4B 4470  26.400   4.240   8.726  0.0987 -0.0125  0.1554
  364DPGS    C1 4471  31.330  24.609   6.503 -0.1095  0.1240 -0.1299
  364DPGS    C2 4472  31.104  24.547   6.691  0.1783 -0.2174  0.1099
  364DPGS    C3 4473  31.354  24.679   6.794  0.1031  0.1349 -0.1493
  364DPGS   AM1 4474  31.022  24.989   6.424 -0.0279  0.3948 -0.0808
  364DPGS   AM2 4475  31.206  25.032   6.268 -0.0385 -0.1431  0.1567
  364DPGS   D1A 4476  30.780  25.088   6.439 -0.1968 -0.1695  0.1883
  364DPGS   C2A 4477  30.781  25.410   6.158  0.0761  0.0951  0.0363
  364DPGS   C3A 4478  30.932  25.748   5.877 -0.1086  0.1058 -0.2438
  364DPGS   C4A 4479  30.825  26.069   5.709  0.2984 -0.0599  0.0290
  364DPGS   C1B 4480  31.230  25.314   6.009  0.0520 -0.0575 -0.0223
  364DPGS   C2B 4481  31.364  25.594   5.683  0.0729  0.0905 -0.2660
  364DPGS   C3B 4482  31.594  25.658   5.280  0.1080  0.0786 -0.0344
  364DPGS   C4B 4483  31.571  25.835   4.828  0.0740  0.3045 -0.2383
  365DPGS    C1 4484  29.852  17.912   3.946  0.1173  0.1206 -0.0890
  365DPGS    C2 4485  30.127  18.011   4.015 -0.0431  0.3333  0.2583
  365DPGS    C3 4486  30.054  17.724   4.064  0.1507  0.2491  0.0598
  365DPGS   AM1 4487  30.052  17.942   3.518  0.0810  0.0743  0.2383
  365DPGS   AM2 4488  29.791  17.937   3.475 -0.2233 -0.1848 -0.0173
  365DPGS   D1A 4489  30.273  17.893   3.314  0.2407  0.0389  0.4292
  365DPGS   C2A 4490  30.438  17.965   2.853  0.1721  0.1231 -0.1853
  365DPGS   C3A 4491  30.417  18.063   2.435  0.0057  0.1742 -0.0367
  365DPGS   C4A 4492  30.342  18.144   2.005  0.2036  0.2353 -0.0311
  365DPGS   C1B 4493  29.672  17.895   3.147 -0.0042  0.1710  0.2838
  365DPGS   C2B 4494  29.765  17.910   2.775 -0.1081  0.1025  0.3619
  365DPGS   C3B 4495  29.567  17.725   2.437 -0.0295 -0.0587 -0.3110
  365DPGS   C4B 4496  29.687  17.361   2.396  0.1720  0.3583  0.0433
  366DPGS    C1 4497   7.252  30.828  20.600 -0.2789  0.0806 -0.0612
  366DPGS    C2 4498   7.480  30.702  20.749 -0.2794 -0.0215 -0.1464
  366DPGS    C3 4499   7.349  30.949  20.857 -0.3061 -0.1179  0.0435
  366DPGS   AM1 4500   7.620  31.076  20.370  0.1695  0.3338  0.0586
  366DPGS   AM2 4501   7.729  30.828  20.343 -0.2377 -0.2366  0.1667
  366DPGS   D1A 4502   7.611  31.274  20.170 -0.0762 -0.2508  0.1726
  366DPGS   C2A 4503   7.425  31.596  20.028 -0.2046 -0.1575  0.0328
  366DPGS   C3A 4504   7.363  31.702  19.544  0.1467  0.1804 -0.2272
  366DPGS   C4A 4505   7.438  31.559  19.197  0.0178  0.0103 -0.3564
  366DPGS   C1B 4506   7.973  30.648  20.126  0.1564  0.2306 -0.3460
  366DPGS   C2B 4507   8.062  30.332  19.902 -0.3580  0.1343  0.0640
  366DPGS   C3B 4508   8.318  30.078  19.680  0.0656 -0.2364 -0.2626
  366DPGS   C4B 4509   8.331  29.945  19.220  0.2886 -0.3885  0.2808
  367DPGS    C1 4510  20.637   7.761  16.447 -0.0939 -0.3391 -0.1232
  367DPGS    C2 4511  20.867   7.685  16.269 -0.0674 -0.2423 -0.1298
  367DPGS    C3 4512  20.655   7.873  16.169  0.0031 -0.1050 -0.0239
  367DPGS   AM1 4513  20.140   7.752  16.385  0.4620 -0.0758 -0.0279
  367DPGS   AM2 4514  20.166   7.547  16.232  0.0927  0.2541 -0.0629
  367DPGS   D1A 4515  19.933   7.959  16.471 -0.0567  0.1775  0.1667
  367DPGS   C2A 4516  19.446   7.977  16.463 -0.0291  0.3319 -0.1094
  367DPGS   C3A 4517  19.247   8.079  16.095  0.3110 -0.2574  0.0001
  367DPGS   C4A 4518  19.039   8.099  15.725 -0.0774  0.1341  0.1090
  367DPGS   C1B 4519  20.308   7.589  15.890  0.1258 -0.0465 -0.1258
  367DPGS   C2B 4520  20.058   7.810  15.587 -0.0479 -0.1976  0.4498
  367DPGS   C3B 4521  19.811   7.772  15.200  0.0920  0.1268  0.2450
  367DPGS   C4B 4522  19.416   8.096  15.052  0.2276 -0.4677  0.1331
  368DPGS    C1 4523  29.042  21.435   3.982  0.2462  0.2680 -0.0291
  368DPGS    C2 4524  29.046  21.375   4.276  0.2971  0.1668 -0.0505
  368DPGS    C3 4525  29.240  21.239   4.092  0.1620  0.1122 -0.1538
  368DPGS   AM1 4526  29.192  21.347   3.528 -0.0891  0.0102 -0.0222
  368DPGS   AM2 4527  29.239  21.076   3.564  0.1252  0.1719  0.0540
  368DPGS   D1A 4528  29.310  21.490   3.322  0.2166  0.0124 -0.1567
  368DPGS   C2A 4529  29.178  21.654   2.890 -0.0656  0.2793 -0.1473
  368DPGS   C3A 4530  28.876  21.643   2.600  0.0683  0.3326 -0.1772
  368DPGS   C4A 4531  28.761  21.751   2.164  0.1858  0.0321 -0.2017
  368DPGS   C1B 4532  29.123  20.758   3.371 -0.1488  0.1441 -0.2626
  368DPGS   C2B 4533  29.195  20.529   2.996 -0.1329  0.1541 -0.0131
  368DPGS   C3B 4534  29.175  20.402   2.635 -0.2922  0.0898  0.0253
  368DPGS   C4B 4535  29.313  20.533   2.177 -0.0576 -0.0608 -0.0178
  369DPGS    C1 4536  28.718  21.779   4.205 -0.1244  0.1937  0.2996
  369DPGS    C2 4537  28.710  21.788   4.504 -0.1621 -0.2110  0.3132
  369DPGS    C3 4538  28.607  21.547   4.359 -0.0870 -0.0428 -0.0241
  369DPGS   AM1 4539  28.600  21.594   3.785  0.2492 -0.1623  0.2141
  369DPGS   AM2 4540  28.349  21.658   3.875 -0.3016  0.1038  0.1554
  369DPGS   D1A 4541  28.758  21.595   3.538 -0.1967  0.3102 -0.1686
  369DPGS   C2A 4542  28.702  21.666   3.121 -0.2367  0.0999  0.2139
  369DPGS   C3A 4543  28.404  21.781   2.701  0.2809 -0.2657 -0.1798
  369DPGS   C4A 4544  28.188  21.749   2.278  0.0956 -0.0133 -0.1664
  369DPGS   C1B 4545  28.089  21.888   3.727 -0.0091  0.1445 -0.1623
  369DPGS   C2B 4546  27.939  22.083   3.354 -0.0038  0.1848  0.0348
  369DPGS   C3B 4547  27.933  22.250   3.005 -0.1745  0.2632 -0.1607
  369DPGS   C4B 4548  27.973  22.620   2.875  0.2244  0.0250 -0.2204
  370DPGS    C1 4549  26.232  11.766   6.739 -0.2232  0.1781 -0.1923
  370DPGS    C2 4550  26.394  11.654   6.512  0.0951 -0.0399  0.1372
  370DPGS    C3 4551  26.278  11.470   6.719 -0.3154  0.1443  0.0755
  370DPGS   AM1 4552  25.906  11.647   6.331  0.1219 -0.0894  0.2683
  370DPGS   AM2 4553  25.763  11.743   6.533  0.3559  0.1380 -0.0745
  370DPGS   D1A 4554  25.773  11.425   6.169  0.3626 -0.3304  0.0587
  370DPGS   C2A 4555  25.867  11.123   5.897  0.0959 -0.2377  0.0304
  370DPGS   C3A 4556  25.726  10.918   5.483 -0.0743 -0.1603  0.0786
  370DPGS   C4A 4557  25.449  10.641   5.348  0.0283  0.1898 -0.1774
  370DPGS   C1B 4558  25.467  11.961   6.492 -0.0356 -0.0846  0.1523
  370DPGS   C2B 4559  25.128  12.071   6.310  0.2002 -0.0228  0.0837
  370DPGS   C3B 4560  24.746  12.006   6.082 -0.0805 -0.0195  0.1699
  370DPGS   C4B 4561  24.503  11.743   5.939 -0.2089 -0.1398 -0.2957
  371DPGS    C1 4562  16.453  18.336  18.763 -0.1311  0.1518 -0.0236
  371DPGS    C2 4563  16.633  18.383  18.999  0.0964 -0.1692 -0.1296
  371DPGS    C3 4564  16.524  18.616  18.844  0.0346  0.0399  0.2232
  371DPGS   AM1 4565  16.733  18.390  18.341  0.0271  0.0412 -0.1303
  371DPGS   AM2 4566  16.856  18.157  18.414 -0.1218  0.0999  0.1544
  371DPGS   D1A 4567  16.632  18.382  18.060 -0.0042 -0.1147 -0.0422
  371DPGS   C2A 4568  16.422  18.527  17.753 -0.0568  0.2264 -0.1698
  371DPGS   C3A 4569  16.255  18.556  17.380 -0.0746  0.1875 -0.1340
  371DPGS   C4A 4570  16.007  18.650  17.112  0.0344 -0.1759 -0.1576
  371DPGS   C1B 4571  16.861  17.837  18.234 -0.0651  0.0214  0.1774
  371DPGS   C2B 4572  16.686  17.561  17.948  0.0177  0.1325 -0.0764
  371DPGS   C3B 4573  16.580  17.419  17.584  0.1426 -0.0622  0.1427
  371DPGS   C4B 4574  16.329  17.452  17.239  0.3084  0.2588 -0.3082
  372DPGS    C1 4575  28.172   7.154   8.384  0.1075  0.0563  0.1237
  372DPGS    C2 4576  27.930   7.148   8.561  0.0660 -0.1476  0.0613
  372DPGS    C3 4577  28.013   6.901   8.412 -0.0613  0.0942 -0.4194
  372DPGS   AM1 4578  28.268   7.044   7.901 -0.1006 -0.1169 -0.0944
  372DPGS   AM2 4579  28.047   7.199   7.825 -0.1438  0.1309  0.1675
  372DPGS   D1A 4580  28.328   6.833   7.719  0.1396  0.3148 -0.0931
  372DPGS   C2A 4581  28.429   6.430   7.458 -0.0208 -0.0789  0.2581
  372DPGS   C3A 4582  28.382   6.148   7.098  0.1174  0.2436 -0.4049
  372DPGS   C4A 4583  28.469   5.989   6.784 -0.2697  0.0926  0.1290
  372DPGS   C1B 4584  27.784   7.208   7.575 -0.1560  0.2575  0.1984
  372DPGS   C2B 4585  27.700   6.939   7.262 -0.1399 -0.0110  0.0019
  372DPGS   C3B 4586  27.693   6.762   6.865 -0.0586 -0.4207  0.5063
  372DPGS   C4B 4587  27.754   6.619   6.479 -0.1062 -0.0084 -0.0279
  373DPGS    C1 4588  14.200   3.169  17.044  0.0365 -0.2796  0.0740
  373DPGS    C2 4589  14.115   3.440  16.947 -0.1149 -0.2995  0.1495
  373DPGS    C3 4590  14.324   3.286  16.797 -0.0128 -0.1322  0.1183
  373DPGS   AM1 4591  13.789   3.143  16.773 -0.0811 -0.0547  0.0204
  373DPGS   AM2 4592  13.842   2.898  16.856 -0.0030 -0.0862  0.1014
  373DPGS   D1A 4593  13.571   3.178  16.564  0.1719 -0.0575  0.0337
  373DPGS   C2A 4594  13.256   3.197  16.283 -0.1945 -0.1062  0.2311
  373DPGS   C3A 4595  13.086   3.346  15.884  0.0134 -0.0446 -0.1752
  373DPGS   C4A 4596  13.144   3.557  15.547  0.0236  0.1289  0.0887
  373DPGS   C1B 4597  13.710   2.632  16.651 -0.0231 -0.0434  0.0508
  373DPGS   C2B 4598  13.552   2.476  16.349  0.0350  0.0012  0.0687
  373DPGS   C3B 4599  13.329   2.295  15.949 -0.2320 -0.2199  0.4854
  373DPGS   C4B 4600  12.966   2.313  15.857 -0.0035 -0.1788 -0.1826
  374DPGS    C1 4601  21.637  27.669  12.857  0.3133 -0.1158 -0.2355
  374DPGS    C2 4602  21.759  27.402  12.919  0.0701 -0.1946 -0.0899
  374DPGS    C3 4603  21.648  27.457  12.645  0.2898 -0.1762 -0.1760
  374DPGS   AM1 4604  21.213  27.828  12.676 -0.2016 -0.0800  0.0556
  374DPGS   AM2 4605  21.157  27.553  12.744  0.1330  0.1596 -0.1267
  374DPGS   D1A 4606  21.027  27.994  12.578  0.0593 -0.2507  0.1878
  374DPGS   C2A 4607  20.580  27.817  12.260 -0.0258  0.0551 -0.0133
  374DPGS   C3A 4608  20.382  27.758  11.939  0.3190  0.0708 -0.0287
  374DPGS   C4A 4609  20.026  28.021  11.775  0.0945  0.0502  0.2816
  374DPGS   C1B 4610  21.002  27.274  12.584 -0.1131  0.2772 -0.2690
  374DPGS   C2B 4611  20.803  27.232  12.306  0.0641  0.0752 -0.0611
  374DPGS   C3B 4612  20.306  27.325  12.088 -0.0008  0.0839 -0.0584
  374DPGS   C4B 4613  20.055  27.039  12.001  0.0403  0.0190 -0.0695
  375DPGS    C1 4614  28.493  17.578   3.888 -0.0930  0.1220  0.0079
  375DPGS    C2 4615  28.657  17.744   4.076 -0.0309  0.2821 -0.1858
  375DPGS    C3 4616  28.367  17.697   4.133  0.0348  0.1598  0.0556
  375DPGS   AM1 4617  28.282  17.868   3.598 -0.1074 -0.2192  0.1441
  375DPGS   AM2 4618  28.522  17.983   3.581  0.0778  0.3114 -0.0585
  375DPGS   D1A 4619  28.160  17.760   3.358 -0.1958 -0.1427 -0.0242
  375DPGS   C2A 4620  27.973  17.834   3.023  0.0967 -0.2489 -0.0447
  375DPGS   C3A 4621  27.866  17.796   2.677  0.0706  0.4169  0.0635
  375DPGS   C4A 4622  27.650  17.767   2.434 -0.1115  0.4005 -0.2621
  375DPGS   C1B 4623  28.737  17.916   3.296 -0.3535  0.0350  0.0434
  375DPGS   C2B 4624  28.501  17.862   3.025 -0.0957 -0.2096  0.3165
  375DPGS   C3B 4625  28.404  17.774   2.626 -0.1509  0.0550 -0.0681
  375DPGS   C4B 4626  28.192  17.634   2.308 -0.3454  0.3800  0.2578
  376DPGS    C1 4627  31.412  20.762   4.013 -0.1294  0.2762 -0.0517
  376DPGS    C2 4628  31.289  20.606   4.237  0.3598  0.1668  0.1486
  376DPGS    C3 4629  31.299  20.905   4.251 -0.0299  0.1872  0.0502
  376DPGS   AM1 4630  31.686  21.142   3.895 -0.1628 -0.3441  0.0408
  376DPGS   AM2 4631  31.923  20.989   3.899  0.2732 -0.2037  0.0178
  376DPGS   D1A 4632  31.592  21.184   3.620  0.2800  0.4713 -0.2157
  376DPGS   C2A 4633  31.725  21.331   3.335 -0.3423 -0.0580  0.3162
  376DPGS   C3A 4634  31.893  21.290   2.981  0.1803  0.0874 -0.1177
  376DPGS   C4A 4635  31.997  21.463   2.662 -0.0219 -0.3070  0.4973
  376DPGS   C1B 4636  32.090  21.019   3.592  0.2383 -0.2438 -0.0510
  376DPGS   C2B 4637  32.272  21.164   3.358 -0.2899  0.3754 -0.5714
  376DPGS   C3B 4638  32.398  21.075   2.969 -0.0714 -0.0778 -0.1116
  376DPGS   C4B 4639  32.353  21.021   2.656  0.0225  0.2577 -0.2293
  377DPGS    C1 4640   2.087  23.612  14.562 -0.0917 -0.2923 -0.0174
  377DPGS    C2 4641   1.999  23.794  14.783 -0.1089 -0.1410 -0.1480
  377DPGS    C3 4642   2.262  23.650  14.803 -0.0438 -0.0156 -0.0946
  377DPGS   AM1 4643   2.184  24.135  14.515  0.1524  0.0697 -0.0877
  377DPGS   AM2 4644   2.144  24.028  14.265  0.2240 -0.1976 -0.1286
  377DPGS   D1A 4645   2.392  24.332  14.516  0.0622 -0.0658  0.0321
  377DPGS   C2A 4646   2.778  24.631  14.450  0.4106 -0.0143 -0.1887
  377DPGS   C3A 4647   3.075  24.835  14.351 -0.2830  0.0531  0.1274
  377DPGS   C4A 4648   3.400  25.045  14.123 -0.2084 -0.0703 -0.2080
  377DPGS   C1B 4649   2.167  24.207  13.940 -0.1242 -0.1895  0.0134
  377DPGS   C2B 4650   2.387  24.362  13.649  0.0340  0.0025 -0.0744
  377DPGS   C3B 4651   2.672  24.680  13.483  0.1005 -0.0853 -0.1588
  377DPGS   C4B 4652   3.107  24.860  13.288 -0.1631  0.0337 -0.2462
  378DPGS    C1 4653   3.305  22.290  14.786 -0.0630 -0.0381  0.0056
  378DPGS    C2 4654   3.160  22.269  15.047 -0.3010  0.0537 -0.1180
  378DPGS    C3 4655   3.208  22.538  14.924  0.0226  0.0280 -0.0522
  378DPGS   AM1 4656   3.386  22.677  14.403  0.0556  0.0995 -0.3733
  378DPGS   AM2 4657   3.533  22.458  14.427  0.1730 -0.0806  0.0815
  378DPGS   D1A 4658   3.405  22.841  14.165  0.1371  0.1420 -0.0476
  378DPGS   C2A 4659   3.668  23.002  13.850  0.1034  0.1269  0.0363
  378DPGS   C3A 4660   3.997  23.290  13.715 -0.2210 -0.2080 -0.0075
  378DPGS   C4A 4661   4.349  23.387  13.518  0.1469 -0.1948 -0.0672
  378DPGS   C1B 4662   3.901  22.370  14.371  0.1424 -0.0123 -0.0906
  378DPGS   C2B 4663   4.273  22.492  14.281 -0.0737 -0.0537  0.2514
  378DPGS   C3B 4664   4.740  22.539  14.132 -0.1801 -0.2454  0.2194
  378DPGS   C4B 4665   4.942  22.732  13.835 -0.0035 -0.3084 -0.1112
  379DPGS    C1 4666  21.311  28.351  12.751 -0.0892 -0.0669 -0.0262
  379DPGS    C2 4667  21.381  28.637  12.807  0.0162 -0.0240 -0.3615
  379DPGS    C3 4668  21.143  28.512  12.941  0.1361  0.1326  0.0063
  379DPGS   AM1 4669  20.943  28.544  12.382  0.1157 -0.1929 -0.0197
  379DPGS   AM2 4670  21.144  28.641  12.221 -0.0760  0.2249 -0.1562
  379DPGS   D1A 4671  20.678  28.631  12.319  0.1889  0.2275 -0.3592
  379DPGS   C2A 4672  20.314  28.585  12.104 -0.1994  0.0624 -0.1120
  379DPGS   C3A 4673  19.857  28.510  12.042  0.2559  0.2380 -0.0291
  379DPGS   C4A 4674  19.460  28.567  11.866 -0.1069  0.0780  0.1675
  379DPGS   C1B 4675  21.001  28.732  11.907 -0.0738 -0.1258 -0.0721
  379DPGS   C2B 4676  20.643  28.757  11.720  0.1535 -0.0916 -0.0569
  379DPGS   C3B 4677  20.360  28.836  11.289 -0.1263  0.0768  0.0504
  379DPGS   C4B 4678  19.955  28.859  11.138 -0.1687 -0.2137  0.1620
  380DPGS    C1 4679   1.686  21.944   9.687  0.0710 -0.0535 -0.1803
  380DPGS    C2 4680   1.637  21.655   9.622 -0.0377 -0.0100 -0.2915
  380DPGS    C3 4681   1.481  21.789   9.841  0.1171 -0.0746 -0.1401
  380DPGS   AM1 4682   1.361  21.868   9.281  0.1233 -0.3334 -0.0992
  380DPGS   AM2 4683   1.225  22.052   9.431  0.0032 -0.2744 -0.1876
  380DPGS   D1A 4684   1.485  21.870   9.035 -0.2065  0.0264  0.1339
  380DPGS   C2A 4685   1.694  21.972   8.745  0.2555  0.0242 -0.2217
  380DPGS   C3A 4686   1.944  22.170   8.524  0.3431  0.1670 -0.0090
  380DPGS   C4A 4687   2.185  22.408   8.293  0.0914  0.1217  0.0075
  380DPGS   C1B 4688   1.124  22.385   9.356  0.0154 -0.0378 -0.0202
  380DPGS   C2B 4689   1.472  22.651   9.377  0.0245 -0.2937  0.2613
  380DPGS   C3B 4690   1.626  23.053   9.257 -0.1614 -0.0992  0.0042
  380DPGS   C4B 4691   1.913  23.392   9.136 -0.1159  0.0762  0.0667
  381DPGS    C1 4692  23.867  15.092  10.507  0.1443  0.0540  0.1755
  381DPGS    C2 4693  24.046  14.926  10.332 -0.0296 -0.1008  0.1427
  381DPGS    C3 4694  23.891  15.155  10.215  0.0538 -0.0417  0.1471
  381DPGS   AM1 4695  23.429  14.900  10.415 -0.2103  0.3101 -0.1454
  381DPGS   AM2 4696  23.576  14.701  10.524  0.3804  0.0852 -0.0344
  381DPGS   D1A 4697  23.176  14.942  10.339  0.1673  0.1755  0.1255
  381DPGS   C2A 4698  22.770  14.804  10.327 -0.0522 -0.2837 -0.3529
  381DPGS   C3A 4699  22.400  14.844  10.542  0.5046  0.1472 -0.0053
  381DPGS   C4A 4700  22.128  15.071  10.655  0.1878 -0.3672 -0.0147
  381DPGS   C1B 4701  23.375  14.383  10.602  0.0488  0.2142  0.0391
  381DPGS   C2B 4702  22.954  14.315  10.564 -0.3873 -0.0007  0.0496
  381DPGS   C3B 4703  22.561  14.339  10.426  0.2477 -0.2589 -0.2835
  381DPGS   C4B 4704  22.122  14.391  10.496  0.1210  0.0680 -0.1996
  382DPGS    C1 4705  26.764  20.383   4.652 -0.0080 -0.0642  0.0807
  382DPGS    C2 4706  26.981  20.260   4.486  0.0170  0.1389 -0.0389
  382DPGS    C3 4707  26.696  20.250   4.392  0.0371  0.2946 -0.1175
  382DPGS   AM1 4708  26.392  20.715   4.534  0.2766  0.0405 -0.0150
  382DPGS   AM2 4709  26.214  20.511   4.613  0.0019 -0.1893 -0.0286
  382DPGS   D1A 4710  26.315  21.004   4.484 -0.3241 -0.1263  0.1688
  382DPGS   C2A 4711  26.138  21.313   4.294  0.0176  0.3665  0.1252
  382DPGS   C3A 4712  25.918  21.655   4.159 -0.1788  0.0039  0.2112
  382DPGS   C4A 4713  25.460  21.953   4.175  0.1001  0.0616 -0.0029
  382DPGS   C1B 4714  25.887  20.425   4.473 -0.0309  0.0614  0.3131
  382DPGS   C2B 4715  25.664  20.442   4.081  0.2849  0.0861 -0.0843
  382DPGS   C3B 4716  25.554  20.168   3.784 -0.1431 -0.1645  0.0659
  382DPGS   C4B 4717  25.436  19.711   3.990 -0.0127  0.2805  0.0683
  383DPGS    C1 4718  34.086  18.558   5.387 -0.2694 -0.2395  0.0959
  383DPGS    C2 4719  33.928  18.602   5.136 -0.0127  0.1488 -0.0013
  383DPGS    C3 4720  33.813  18.682   5.402 -0.1875 -0.0433 -0.0182
  383DPGS   AM1 4721  34.209  19.021   5.141 -0.1127 -0.1269  0.1512
  383DPGS   AM2 4722  34.293  19.023   5.381  0.2222 -0.0526  0.0117
  383DPGS   D1A 4723  34.216  18.960   4.858  0.1390  0.1778 -0.2591
  383DPGS   C2A 4724  34.476  19.002   4.536  0.0220  0.0476 -0.2057
  383DPGS   C3A 4725  34.540  18.973   4.131 -0.1106  0.0229  0.3112
  383DPGS   C4A 4726  34.516  18.944   3.662  0.1667  0.1508  0.2267
  383DPGS   C1B 4727  34.599  19.094   5.543  0.0818 -0.1012  0.1641
  383DPGS   C2B 4728  34.939  19.321   5.292  0.0332  0.1150 -0.0091
  383DPGS   C3B 4729  35.305  19.420   5.012 -0.1414 -0.0935  0.2604
  383DPGS   C4B 4730  35.293  19.649   4.641  0.2242  0.2826 -0.0511
  384DPGS    C1 4731   0.596   5.320  12.579  0.2231  0.1266 -0.0030
  384DPGS    C2 4732   0.774   5.144  12.744  0.0661 -0.1583 -0.1349
  384DPGS    C3 4733   0.478   5.098  12.742  0.0300  0.0698 -0.2183
  384DPGS   AM1 4734   0.731   5.012  12.225 -0.1095  0.2720 -0.2236
  384DPGS   AM2 4735   0.498   5.122  12.117  0.1464  0.0424 -0.2657
  384DPGS   D1A 4736   0.985   4.866  12.136  0.0952  0.1655  0.0575
  384DPGS   C2A 4737   1.252   4.737  11.805  0.0276  0.1593 -0.0626
  384DPGS   C3A 4738   1.261   4.491  11.498 -0.2306  0.0503  0.0611
  384DPGS   C4A 4739   1.222   4.080  11.286  0.0499 -0.0198  0.1595
  384DPGS   C1B 4740   0.473   5.310  11.796  0.1537 -0.0242 -0.0720
  384DPGS   C2B 4741   0.361   5.135  11.345 -0.0845  0.1188  0.2596
  384DPGS   C3B 4742   0.460   4.941  11.046  0.2997  0.3462 -0.2986
  384DPGS   C4B 4743   0.767   4.847  10.751  0.3139 -0.0587 -0.0958
  385DPGS    C1 4744  29.301  23.073   5.117  0.2173  0.2695  0.4109
  385DPGS    C2 4745  29.156  22.992   5.367 -0.0980 -0.0263  0.1362
  385DPGS    C3 4746  29.009  23.134   5.148  0.1250  0.0384  0.0266
  385DPGS   AM1 4747  29.171  23.299   4.606 -0.0631 -0.2783 -0.0492
  385DPGS   AM2 4748  29.298  23.488   4.754 -0.0623 -0.3149 -0.1168
  385DPGS   D1A 4749  28.986  23.375   4.381  0.0514  0.2439  0.0985
  385DPGS   C2A 4750  28.714  23.470   4.234 -0.2922  0.1425 -0.2326
  385DPGS   C3A 4751  28.552  23.747   3.985  0.0234 -0.2576 -0.1045
  385DPGS   C4A 4752  28.488  23.992   3.631 -0.2833 -0.0329  0.0760
  385DPGS   C1B 4753  29.271  23.843   4.681  0.0269  0.0299  0.1413
  385DPGS   C2B 4754  29.223  24.065   4.236 -0.2754 -0.2936 -0.1904
  385DPGS   C3B 4755  29.292  24.267   3.987  0.1938  0.1777  0.0472
  385DPGS   C4B 4756  29.090  24.655   3.773  0.0924 -0.1199  0.1743
  386DPGS    C1 4757   7.385  33.674  20.001  0.0180 -0.2014  0.0445
  386DPGS    C2 4758   7.132  33.522  20.055 -0.1029 -0.1559 -0.3785
  386DPGS    C3 4759   7.119  33.803  19.951  0.1219  0.0097  0.0279
  386DPGS   AM1 4760   7.599  33.881  19.639  0.1457 -0.0024  0.2988
  386DPGS   AM2 4761   7.754  33.967  19.827  0.0122 -0.1337 -0.0175
  386DPGS   D1A 4762   7.583  33.797  19.343 -0.1308  0.0474  0.3443
  386DPGS   C2A 4763   7.721  33.815  18.942  0.1423 -0.2815  0.0230
  386DPGS   C3A 4764   7.891  33.838  18.593  0.2874 -0.1265 -0.2301
  386DPGS   C4A 4765   7.820  33.915  18.128 -0.2099  0.3891  0.2784
  386DPGS   C1B 4766   8.108  34.077  19.772  0.0780  0.2244  0.2062
  386DPGS   C2B 4767   8.449  34.034  19.498 -0.1079 -0.1259 -0.1800
  386DPGS   C3B 4768   8.679  33.911  19.291  0.1735  0.1199 -0.2471
  386DPGS   C4B 4769   8.962  33.915  19.169  0.1388  0.1267 -0.1018
  387DPGS    C1 4770  34.375  22.990   7.907 -0.0498  0.0740 -0.1133
  387DPGS    C2 4771  34.252  22.733   7.814 -0.2009  0.1246 -0.0547
  387DPGS    C3 4772  34.496  22.728   7.989 -0.1542  0.0229 -0.1219
  387DPGS   AM1 4773  34.839  23.191   7.911  0.0437 -0.2568 -0.4438
  387DPGS   AM2 4774  34.758  23.190   7.658  0.1021 -0.2602 -0.2133
  387DPGS   D1A 4775  35.086  23.296   8.005  0.3139 -0.4180  0.1031
  387DPGS   C2A 4776  35.378  23.621   7.852 -0.0437  0.1913  0.0505
  387DPGS   C3A 4777   0.341  23.807   7.613  0.1156 -0.1236 -0.1835
  387DPGS   C4A 4778   0.486  24.066   7.215  0.3167  0.3701 -0.0570
  387DPGS   C1B 4779  34.906  23.459   7.453 -0.1063  0.0354  0.2368
  387DPGS   C2B 4780  35.179  23.731   7.264 -0.0506  0.2100  0.1176
  387DPGS   C3B 4781  35.360  24.024   6.967 -0.2983 -0.0041  0.1593
  387DPGS   C4B 4782   0.137  24.385   7.005 -0.1893  0.0804 -0.1224
  388DPGS    C1 4783  32.989  23.415   6.679  0.1479  0.1190  0.1651
  388DPGS    C2 4784  33.112  23.434   6.952  0.0491  0.1104  0.2102
  388DPGS    C3 4785  33.003  23.680   6.820  0.1797  0.1309  0.1398
  388DPGS   AM1 4786  33.398  23.534   6.431  0.3739 -0.2047  0.2668
  388DPGS   AM2 4787  33.546  23.530   6.655  0.1461  0.2137 -0.1453
  388DPGS   D1A 4788  33.478  23.620   6.171 -0.0807 -0.0135 -0.0378
  388DPGS   C2A 4789  33.813  23.883   5.990 -0.1296  0.1430  0.0793
  388DPGS   C3A 4790  34.094  24.119   5.801  0.0436  0.1477  0.0085
  388DPGS   C4A 4791  34.240  24.362   5.402  0.0872 -0.1413 -0.1256
  388DPGS   C1B 4792  33.835  23.753   6.724 -0.1956  0.2307 -0.0353
  388DPGS   C2B 4793  34.098  23.897   6.496 -0.1276 -0.2285 -0.0535
  388DPGS   C3B 4794  34.329  24.129   6.282 -0.2149  0.1741  0.1845
  388DPGS   C4B 4795  34.598  24.271   6.000  0.4107 -0.0939 -0.1401
  389DPGS    C1 4796   1.642  22.044  10.220 -0.0114  0.0446  0.2053
  389DPGS    C2 4797   1.366  22.030  10.337 -0.0489 -0.1222  0.0993
  389DPGS    C3 4798   1.521  22.287  10.348 -0.3299  0.0591 -0.1139
  389DPGS   AM1 4799   1.931  22.296   9.926 -0.2284 -0.0051  0.1436
  389DPGS   AM2 4800   2.097  22.126  10.079 -0.0767  0.1463  0.1200
  389DPGS   D1A 4801   1.877  22.439   9.675 -0.1284  0.0030  0.0182
  389DPGS   C2A 4802   2.150  22.445   9.340  0.2786  0.3386 -0.2212
  389DPGS   C3A 4803   2.449  22.585   9.088  0.0926  0.0695 -0.2013
  389DPGS   C4A 4804   2.769  22.967   8.909 -0.0874  0.1901  0.1944
  389DPGS   C1B 4805   2.398  22.280  10.195 -0.1585 -0.2415 -0.0864
  389DPGS   C2B 4806   2.760  22.607  10.154 -0.1657 -0.2378 -0.3743
  389DPGS   C3B 4807   3.081  22.918  10.002  0.1393  0.3105 -0.2459
  389DPGS   C4B 4808   3.256  23.335  10.057 -0.0405 -0.2682 -0.1696
  390DPGS    C1 4809  16.292   1.626  16.410 -0.0201  0.1444 -0.0423
  390DPGS    C2 4810  16.405   1.536  16.147  0.0360  0.0682  0.0078
  390DPGS    C3 4811  16.469   1.810  16.252  0.1545  0.0343  0.0242
  390DPGS   AM1 4812  15.907   1.762  16.129 -0.1614  0.0208  0.2159
  390DPGS   AM2 4813  15.918   1.491  16.148 -0.0014 -0.0426  0.4204
  390DPGS   D1A 4814  15.798   1.892  15.901  0.1038  0.2170 -0.4043
  390DPGS   C2A 4815  15.635   1.701  15.622  0.0760  0.0757 -0.0330
  390DPGS   C3A 4816  15.415   1.553  15.272  0.0131 -0.0257 -0.0448
  390DPGS   C4A 4817  15.296   1.473  14.825 -0.1782  0.1483  0.1517
  390DPGS   C1B 4818  15.759   1.266  15.891 -0.0568  0.3243 -0.2770
  390DPGS   C2B 4819  15.593   1.108  15.515  0.0904  0.2450 -0.1461
  390DPGS   C3B 4820  15.363   1.054  15.150  0.0358  0.0371 -0.1317
  390DPGS   C4B 4821  15.032   0.797  15.030 -0.1678  0.4676 -0.0540
  391DPGS    C1 4822   2.820   4.397  14.944  0.1220 -0.3262 -0.1113
  391DPGS    C2 4823   2.663   4.571  14.756  0.1520 -0.0827  0.0867
  391DPGS    C3 4824   2.710   4.282  14.689  0.0028 -0.0449 -0.1885
  391DPGS   AM1 4825   3.247   4.477  14.765  0.4080 -0.0223 -0.1509
  391DPGS   AM2 4826   3.175   4.723  14.703 -0.3382  0.1530  0.2546
  391DPGS   D1A 4827   3.501   4.398  14.621  0.2931 -0.1286 -0.2099
  391DPGS   C2A 4828   3.837   4.353  14.353 -0.0291  0.1505  0.0540
  391DPGS   C3A 4829   4.142   4.313  14.133 -0.1821  0.1168  0.1904
  391DPGS   C4A 4830   4.231   4.301  13.773  0.0712  0.0353  0.0369
  391DPGS   C1B 4831   3.312   4.940  14.443 -0.4135 -0.1915 -0.0427
  391DPGS   C2B 4832   3.674   5.071  14.217 -0.0707  0.0222  0.0696
  391DPGS   C3B 4833   3.883   5.265  13.957 -0.0164  0.0364 -0.0577
  391DPGS   C4B 4834   4.082   5.278  13.513 -0.1702  0.3947  0.0809
  392DPGS    C1 4835   2.607  20.256   9.991  0.1770 -0.0012  0.1172
  392DPGS    C2 4836   2.390  20.217  10.194 -0.0691  0.0126 -0.1394
  392DPGS    C3 4837   2.564  19.986  10.115 -0.1862 -0.0719 -0.1525
  392DPGS   AM1 4838   3.103  20.101   9.935  0.1033 -0.1179  0.0198
  392DPGS   AM2 4839   3.054  20.223   9.704  0.1410  0.1749  0.1174
  392DPGS   D1A 4840   3.355  20.000  10.041 -0.1866 -0.0611 -0.0206
  392DPGS   C2A 4841   3.774  19.916   9.886  0.2145 -0.0283  0.0964
  392DPGS   C3A 4842   3.981  20.116   9.514 -0.0748 -0.1286  0.1526
  392DPGS   C4A 4843   4.199  20.187   9.093  0.3438  0.0630 -0.0703
  392DPGS   C1B 4844   3.363  20.228   9.474 -0.0560 -0.2853  0.0574
  392DPGS   C2B 4845   3.713  20.542   9.406  0.0485  0.2187 -0.0694
  392DPGS   C3B 4846   4.235  20.588   9.312 -0.0935 -0.0317  0.0487
  392DPGS   C4B 4847   4.539  20.801   9.389  0.2890 -0.0619 -0.0643
  393DPGS    C1 4848  34.104  23.396   8.612  0.0139  0.1781  0.0595
  393DPGS    C2 4849  33.892  23.190   8.557  0.0526  0.0933  0.2221
  393DPGS    C3 4850  34.110  23.239   8.356 -0.1848  0.2627  0.0016
  393DPGS   AM1 4851  34.542  23.602   8.430 -0.1192  0.1029  0.1840
  393DPGS   AM2 4852  34.340  23.768   8.402 -0.0971 -0.0422  0.2399
  393DPGS   D1A 4853  34.798  23.504   8.389  0.0450 -0.0646  0.0473
  393DPGS   C2A 4854  35.165  23.706   8.357 -0.1407  0.0238 -0.4805
  393DPGS   C3A 4855   0.103  23.991   8.151 -0.0778 -0.2234  0.2586
  393DPGS   C4A 4856   0.319  24.346   8.078  0.0946  0.3887  0.3668
  393DPGS   C1B 4857  34.363  24.073   8.209  0.1480  0.1650  0.0674
  393DPGS   C2B 4858  34.641  24.320   8.012 -0.3613  0.1105  0.0556
  393DPGS   C3B 4859  34.938  24.454   7.866 -0.1078 -0.0823 -0.1292
  393DPGS   C4B 4860  35.317  24.595   7.865 -0.1293 -0.0064  0.1502
  394DPGS    C1 4861  25.715  26.188   8.445  0.1674  0.1070  0.2768
  394DPGS    C2 4862  25.806  26.343   8.204 -0.0309 -0.2900 -0.0601
  394DPGS    C3 4863  25.605  26.463   8.393  0.0643 -0.0084 -0.1344
  394DPGS   AM1 4864  25.227  26.065   8.461 -0.2743  0.1903 -0.0984
  394DPGS   AM2 4865  25.283  26.075   8.212  0.1754 -0.2803  0.0312
  394DPGS   D1A 4866  24.934  26.016   8.555 -0.2971  0.2313 -0.0107
  394DPGS   C2A 4867  24.531  26.114   8.451 -0.1886 -0.1341 -0.1149
  394DPGS   C3A 4868  24.241  26.325   8.251 -0.4627  0.0282  0.1018
  394DPGS   C4A 4869  23.923  26.444   7.967 -0.0624 -0.0921 -0.1548
  394DPGS   C1B 4870  25.200  26.365   8.003 -0.0469 -0.1892 -0.1019
  394DPGS   C2B 4871  24.825  26.451   7.842  0.0558  0.0957  0.0589
  394DPGS   C3B 4872  24.534  26.583   7.614 -0.2418 -0.2049 -0.1200
  394DPGS   C4B 4873  24.453  27.043   7.411 -0.1351 -0.0219  0.2689
  395DPGS    C1 4874  23.887  19.232  10.682 -0.2370  0.0317 -0.2539
  395DPGS    C2 4875  23.956  18.945  10.732 -0.0921  0.1021 -0.0445
  395DPGS    C3 4876  23.674  19.040  10.767 -0.0899  0.0407  0.1476
  395DPGS   AM1 4877  23.576  19.395  10.327 -0.1509 -0.4759 -0.2139
  395DPGS   AM2 4878  23.612  19.605  10.498 -0.1766 -0.0782  0.0148
  395DPGS   D1A 4879  23.316  19.414  10.195  0.1800 -0.0445 -0.2025
  395DPGS   C2A 4880  22.839  19.379  10.185 -0.1449  0.1482  0.3223
  395DPGS   C3A 4881  22.415  19.384  10.172  0.2976  0.2527 -0.2116
  395DPGS   C4A 4882  22.066  19.524  10.423 -0.2228  0.2786  0.1205
  395DPGS   C1B 4883  23.417  19.894  10.461  0.0437  0.2195 -0.1800
  395DPGS   C2B 4884  22.976  19.882  10.263  0.1030  0.1235  0.0962
  395DPGS   C3B 4885  22.671  19.790   9.999 -0.4020  0.0049  0.0946
  395DPGS   C4B 4886  22.312  19.800   9.765  0.1272  0.1048 -0.1175
  396DPGS    C1 4887  10.095  13.010  18.092  0.3588 -0.0093 -0.1266
  396DPGS    C2 4888  10.184  13.180  18.322  0.3053 -0.0745 -0.0579
  396DPGS    C3 4889  10.351  12.946  18.236  0.3141 -0.0631 -0.0711
  396DPGS   AM1 4890  10.232  12.664  17.753 -0.1287  0.1857 -0.0192
  396DPGS   AM2 4891  10.067  12.508  17.892  0.0007 -0.1197  0.0182
  396DPGS   D1A 4892  10.278  12.668  17.463  0.0730  0.0568 -0.1268
  396DPGS   C2A 4893  10.509  12.789  17.204 -0.1313  0.2218 -0.0045
  396DPGS   C3A 4894  10.617  12.848  16.820  0.0416  0.1109 -0.0216
  396DPGS   C4A 4895  10.830  12.798  16.444 -0.2141  0.1630 -0.0272
  396DPGS   C1B 4896   9.882  12.247  17.722 -0.0661 -0.0434 -0.0654
  396DPGS   C2B 4897   9.823  12.327  17.351 -0.1015 -0.1268 -0.2217
  396DPGS   C3B 4898   9.827  12.278  16.790 -0.0817  0.0445 -0.1698
  396DPGS   C4B 4899   9.626  12.367  16.436  0.1246  0.0439 -0.1838
  397DPGS    C1 4900  15.139   1.883  16.988 -0.0657 -0.0033  0.0109
  397DPGS    C2 4901  15.356   2.007  17.154 -0.1424 -0.0666  0.1592
  397DPGS    C3 4902  15.426   1.808  16.940 -0.0538 -0.0793  0.1999
  397DPGS   AM1 4903  15.028   1.699  16.560  0.1014 -0.2589  0.3912
  397DPGS   AM2 4904  14.986   1.463  16.635 -0.0027 -0.2881  0.1981
  397DPGS   D1A 4905  14.878   1.776  16.321  0.1179 -0.0490 -0.1113
  397DPGS   C2A 4906  14.605   1.722  15.895 -0.0407 -0.0656  0.0449
  397DPGS   C3A 4907  14.353   1.697  15.539  0.3163 -0.1254  0.0592
  397DPGS   C4A 4908  14.371   1.474  15.203  0.1904 -0.1631  0.0819
  397DPGS   C1B 4909  14.823   1.207  16.463  0.0050  0.0279 -0.3129
  397DPGS   C2B 4910  14.556   0.760  16.324 -0.1417 -0.2777 -0.3455
  397DPGS   C3B 4911  14.329   0.438  16.307 -0.0072  0.0090  0.1565
  397DPGS   C4B 4912  14.264  35.350  16.160 -0.1810  0.1763 -0.1777
  398DPGS    C1 4913  25.256  24.545   8.556 -0.1194 -0.1356 -0.0333
  398DPGS    C2 4914  25.278  24.357   8.789 -0.0656 -0.2156 -0.1025
  398DPGS    C3 4915  25.110  24.282   8.551 -0.0889 -0.1515 -0.1063
  398DPGS   AM1 4916  25.139  24.548   8.038 -0.0618 -0.1399  0.2700
  398DPGS   AM2 4917  24.965  24.738   8.105  0.3455 -0.1775 -0.2255
  398DPGS   D1A 4918  25.126  24.466   7.756 -0.2655  0.0444 -0.6847
  398DPGS   C2A 4919  24.778  24.597   7.465  0.3174  0.0404  0.3370
  398DPGS   C3A 4920  24.444  24.781   7.212  0.2400  0.0402  0.0359
  398DPGS   C4A 4921  24.048  24.880   6.975  0.2367 -0.0873  0.1147
  398DPGS   C1B 4922  24.673  24.841   7.911 -0.0776  0.2935  0.2460
  398DPGS   C2B 4923  24.375  25.006   7.725  0.1498  0.0115  0.0883
  398DPGS   C3B 4924  24.062  25.162   7.612  0.0980 -0.1216 -0.1132
  398DPGS   C4B 4925  23.874  25.205   7.311 -0.2260 -0.0831  0.0378
  399DPGS    C1 4926  32.294  23.735   5.746 -0.3712  0.0708  0.1048
  399DPGS    C2 4927  32.185  23.465   5.675  0.1229 -0.1247  0.0689
  399DPGS    C3 4928  32.105  23.596   5.933 -0.1701 -0.2726  0.0561
  399DPGS   AM1 4929  32.311  24.147   6.017 -0.2110 -0.1953 -0.3153
  399DPGS   AM2 4930  32.575  24.121   6.020  0.1388 -0.1597  0.0206
  399DPGS   D1A 4931  32.250  24.427   5.946 -0.0326  0.0546 -0.0803
  399DPGS   C2A 4932  32.440  24.718   5.637 -0.0036 -0.0885  0.0401
  399DPGS   C3A 4933  32.433  25.021   5.228 -0.0183 -0.2656 -0.3378
  399DPGS   C4A 4934  32.370  25.520   5.213 -0.0658 -0.0948 -0.0586
  399DPGS   C1B 4935  32.817  24.369   5.857  0.1436  0.2307 -0.0839
  399DPGS   C2B 4936  33.050  24.578   5.535 -0.2687  0.0397  0.2274
  399DPGS   C3B 4937  33.371  24.790   5.360 -0.4153 -0.1775  0.0189
  399DPGS   C4B 4938  33.658  25.117   5.466  0.1620  0.2799  0.2182
  400DPGS    C1 4939  21.667  13.713  14.055  0.0723  0.0006 -0.1863
  400DPGS    C2 4940  21.811  13.925  14.210 -0.0006 -0.0960  0.0156
  400DPGS    C3 4941  21.953  13.672  14.136  0.0143 -0.0775 -0.0190
  400DPGS   AM1 4942  21.687  13.283  13.792 -0.1189  0.2316  0.0261
  400DPGS   AM2 4943  21.488  13.206  13.921  0.1512 -0.1332  0.0857
  400DPGS   D1A 4944  21.789  13.316  13.555  0.3277  0.2568  0.3261
  400DPGS   C2A 4945  21.619  13.407  13.233  0.1046 -0.0224 -0.0798
  400DPGS   C3A 4946  21.324  13.430  12.857 -0.2138  0.4050  0.2904
  400DPGS   C4A 4947  20.991  13.637  12.701  0.3833 -0.1276  0.1870
  400DPGS   C1B 4948  21.182  13.072  13.767  0.0495  0.4591  0.0134
  400DPGS   C2B 4949  20.887  12.825  13.663  0.0507  0.0923 -0.2827
  400DPGS   C3B 4950  20.457  12.870  13.515  0.0949 -0.0004 -0.0597
  400DPGS   C4B 4951  20.001  12.729  13.569  0.0232  0.0441 -0.0303
  401DPGS    C1 4952  31.708  23.595   5.627 -0.0547 -0.0227  0.0060
  401DPGS    C2 4953  31.480  23.780   5.686 -0.0096  0.0055  0.0917
  401DPGS    C3 4954  31.481  23.621   5.432  0.0643  0.2990 -0.0940
  401DPGS   AM1 4955  32.018  23.819   5.347 -0.0929  0.1929 -0.1502
  401DPGS   AM2 4956  31.972  24.009   5.541  0.0022  0.0057  0.0006
  401DPGS   D1A 4957  32.171  23.878   5.112 -0.0909 -0.1101 -0.0898
  401DPGS   C2A 4958  32.366  24.106   4.895 -0.2044 -0.2498  0.0235
  401DPGS   C3A 4959  32.519  24.260   4.626 -0.1310 -0.1124  0.1918
  401DPGS   C4A 4960  32.684  24.607   4.366 -0.1235 -0.1638 -0.3995
  401DPGS   C1B 4961  31.981  24.391   5.494 -0.0202 -0.0227  0.2946
  401DPGS   C2B 4962  32.139  24.561   5.104 -0.3602 -0.3331  0.0170
  401DPGS   C3B 4963  32.346  24.720   4.859  0.3151  0.0666  0.2260
  401DPGS   C4B 4964  32.450  25.142   4.624 -0.0676 -0.1091  0.2051
  402DBGS    C1 4965  12.739  16.073  18.835 -0.2126 -0.0491 -0.0688
  402DBGS    C2 4966  12.526  16.035  19.043 -0.1208 -0.0121  0.0325
  402DBGS    C3 4967  12.518  16.274  18.863 -0.1903 -0.0347  0.0057
  402DBGS   AM1 4968  12.605  15.923  18.428 -0.0046  0.0712 -0.1080
  402DBGS   AM2 4969  12.624  16.178  18.350  0.2317  0.0283 -0.2316
  402DBGS   T1A 4970  12.706  15.766  18.254  0.1695 -0.1000  0.5224
  402DBGS   C2A 4971  12.690  15.824  17.849 -0.0311  0.2191 -0.3358
  402DBGS   C3A 4972  12.465  15.969  17.521  0.0320  0.0333 -0.0387
  402DBGS   C4A 4973  12.542  16.296  17.141 -0.0057  0.2451 -0.2178
  402DBGS   C5A 4974  12.644  16.212  16.733  0.0846 -0.1766 -0.2475
  402DBGS   C1B 4975  12.525  16.314  17.998  0.1083 -0.3408  0.0573
  402DBGS   C2B 4976  12.511  16.503  17.612  0.0659  0.0569  0.1605
  402DBGS   C3B 4977  12.592  16.798  17.273  0.2176 -0.0163  0.0459
  402DBGS   C4B 4978  12.556  17.089  17.046 -0.2266 -0.1954 -0.0712
  402DBGS   C5B 4979  12.773  17.487  16.747 -0.3224 -0.1230  0.0188
  403DBGS    C1 4980  28.301  19.970   4.059  0.1978  0.1445 -0.0356
  403DBGS    C2 4981  28.258  20.243   3.944 -0.1195  0.0274 -0.2016
  403DBGS    C3 4982  28.042  20.037   3.924  0.0700 -0.1968  0.0358
  403DBGS   AM1 4983  28.492  19.817   3.633  0.0259  0.0312 -0.0300
  403DBGS   AM2 4984  28.588  20.060   3.599 -0.2913  0.3215 -0.3577
  403DBGS   T1A 4985  28.341  19.712   3.408 -0.0828 -0.0759  0.0472
  403DBGS   C2A 4986  28.430  19.672   2.915 -0.1657  0.3105 -0.2821
  403DBGS   C3A 4987  28.446  19.808   2.590 -0.2995 -0.3138  0.1851
  403DBGS   C4A 4988  28.405  19.908   2.185 -0.0257 -0.1246  0.0064
  403DBGS   C5A 4989  28.446  19.945   1.827 -0.2187  0.0958 -0.1118
  403DBGS   C1B 4990  28.755  20.174   3.279  0.1033  0.3035  0.2087
  403DBGS   C2B 4991  28.786  20.127   2.846 -0.4219 -0.0493  0.1521
  403DBGS   C3B 4992  28.785  20.154   2.363  0.1387 -0.1045 -0.0224
  403DBGS   C4B 4993  28.907  20.301   1.974  0.3847  0.3091 -0.2405
  403DBGS   C5B 4994  28.617  20.435   1.633 -0.2519 -0.2817  0.0195
  404DBGS    C1 4995   2.620  28.897  18.008 -0.2031  0.0580 -0.1494
  404DBGS    C2 4996   2.467  29.134  18.109 -0.3061 -0.0530 -0.0424
  404DBGS    C3 4997   2.724  29.055  18.241 -0.2544  0.0189 -0.0998
  404DBGS   AM1 4998   2.929  29.178  17.712  0.3983 -0.4138 -0.2757
  404DBGS   AM2 4999   2.959  28.917  17.617  0.1689  0.2854 -0.0810
  404DBGS   T1A 5000   3.039  29.363  17.541  0.0717 -0.1126 -0.4876
  404DBGS   C2A 5001   3.357  29.465  17.211 -0.1864 -0.1910  0.2601
  404DBGS   C3A 5002   3.613  29.602  16.829 -0.0268  0.0718 -0.0169
  404DBGS   C4A 5003   3.648  29.897  16.456  0.0099 -0.1086  0.3754
  404DBGS   C5A 5004   3.520  29.994  16.134 -0.0636  0.0225  0.0932
  404DBGS   C1B 5005   3.136  28.756  17.345  0.1085  0.1218 -0.0024
  404DBGS   C2B 5006   3.379  28.756  17.016 -0.3744 -0.0079 -0.0457
  404DBGS   C3B 5007   3.660  28.805  16.719 -0.0337 -0.1536  0.2052
  404DBGS   C4B 5008   4.103  28.925  16.524 -0.0857 -0.1695  0.1661
  404DBGS   C5B 5009   4.522  29.218  16.471  0.2513 -0.2978  0.0554
  405DBGS    C1 5010   1.226  14.239  10.456 -0.2049 -0.2532 -0.4928
  405DBGS    C2 5011   1.051  14.176  10.692 -0.1098  0.0451 -0.3406
  405DBGS    C3 5012   1.154  13.954  10.519  0.3316 -0.2376  0.2648
  405DBGS   AM1 5013   1.608  14.137  10.199  0.1887  0.1325  0.1673
  405DBGS   AM2 5014   1.622  14.304   9.979 -0.3492 -0.0832 -0.0808
  405DBGS   T1A 5015   1.876  14.023  10.228 -0.2107  0.1331 -0.2325
  405DBGS   C2A 5016   2.144  13.923   9.909  0.0171 -0.1606  0.4096
  405DBGS   C3A 5017   2.465  13.968   9.625 -0.2862  0.2654 -0.1778
  405DBGS   C4A 5018   2.659  14.085   9.246 -0.0657 -0.1010  0.2199
  405DBGS   C5A 5019   2.892  13.937   8.981  0.0234 -0.2214  0.3138
  405DBGS   C1B 5020   1.907  14.367   9.724  0.1775 -0.1315 -0.0964
  405DBGS   C2B 5021   2.303  14.551   9.751 -0.1970 -0.0821  0.1278
  405DBGS   C3B 5022   2.603  14.572   9.479 -0.0228 -0.2552  0.2801
  405DBGS   C4B 5023   3.014  14.598   9.232  0.1005 -0.0037 -0.3720
  405DBGS   C5B 5024   3.322  14.261   9.077 -0.1169  0.0823  0.2610
  406DBGS    C1 5025  23.363  33.977  11.700 -0.2039 -0.2916  0.2089
  406DBGS    C2 5026  23.111  33.906  11.846 -0.0471 -0.1205  0.5689
  406DBGS    C3 5027  23.272  34.144  11.932 -0.0454  0.0914  0.0004
  406DBGS   AM1 5028  23.059  34.288  11.422 -0.4205 -0.2998  0.1105
  406DBGS   AM2 5029  23.309  34.314  11.347  0.0100  0.1620 -0.2949
  406DBGS   T1A 5030  22.909  34.076  11.260  0.0975 -0.3420 -0.1477
  406DBGS   C2A 5031  22.709  34.025  10.871  0.1671 -0.2707 -0.1440
  406DBGS   C3A 5032  22.512  34.035  10.517 -0.0108 -0.1343 -0.0262
  406DBGS   C4A 5033  22.582  33.995  10.050 -0.0131  0.0067 -0.1843
  406DBGS   C5A 5034  22.815  34.200   9.707  0.0047 -0.2069  0.2942
  406DBGS   C1B 5035  23.463  34.309  11.009  0.5050 -0.0717  0.1676
  406DBGS   C2B 5036  23.423  34.496  10.590 -0.2310  0.0717  0.1064
  406DBGS   C3B 5037  23.318  34.441  10.237 -0.1068 -0.0478 -0.0913
  406DBGS   C4B 5038  23.257  34.339   9.936  0.0621 -0.2229 -0.1804
  406DBGS   C5B 5039  23.406  34.284   9.577  0.0456 -0.2633  0.0575
  407DBGS    C1 5040  13.338   1.599  17.872  0.0099 -0.0414 -0.1920
  407DBGS    C2 5041  13.619   1.689  17.924  0.1186 -0.2769 -0.3613
  407DBGS    C3 5042  13.395   1.889  17.920  0.2243 -0.1392  0.1660
  407DBGS   AM1 5043  13.302   1.685  17.407 -0.2944 -0.0941 -0.2716
  407DBGS   AM2 5044  13.541   1.539  17.402  0.2974  0.0888 -0.2838
  407DBGS   T1A 5045  13.016   1.598  17.337 -0.2228  0.1704 -0.0713
  407DBGS   C2A 5046  12.838   1.426  17.023 -0.0615 -0.3094 -0.2415
  407DBGS   C3A 5047  13.066   1.162  16.721 -0.3185  0.1718  0.3880
  407DBGS   C4A 5048  12.950   0.963  16.350  0.0026  0.1899  0.3903
  407DBGS   C5A 5049  12.559   0.969  16.155 -0.1223  0.0107 -0.1572
  407DBGS   C1B 5050  13.661   1.294  17.131  0.1042  0.1349  0.0484
  407DBGS   C2B 5051  13.539   1.066  16.778  0.2634  0.0920 -0.3700
  407DBGS   C3B 5052  13.470   0.946  16.376 -0.1909 -0.0751  0.0952
  407DBGS   C4B 5053  13.334   0.881  15.947  0.0337 -0.1518  0.1865
  407DBGS   C5B 5054  13.472   0.576  15.848 -0.0807 -0.1755 -0.4149
  408DBGS    C1 5055   3.192  18.918  12.909 -0.3987 -0.2359  0.0101
  408DBGS    C2 5056   3.209  19.195  13.023 -0.1706 -0.1379 -0.2561
  408DBGS    C3 5057   3.111  18.969  13.194  0.0381  0.0300  0.0927
  408DBGS   AM1 5058   3.675  18.940  13.017 -0.2705  0.1356  0.1269
  408DBGS   AM2 5059   3.644  18.694  13.091  0.0238 -0.0291  0.2306
  408DBGS   T1A 5060   3.837  19.161  12.946  0.2759  0.0414 -0.0146
  408DBGS   C2A 5061   4.182  19.206  12.750 -0.1257 -0.0622  0.0643
  408DBGS   C3A 5062   4.503  19.306  12.564 -0.2082 -0.1470 -0.0731
  408DBGS   C4A 5063   4.902  19.360  12.478 -0.2205 -0.0829 -0.1678
  408DBGS   C5A 5064   5.127  19.702  12.407  0.0138 -0.0628  0.0232
  408DBGS   C1B 5065   3.921  18.436  13.033 -0.1775 -0.2510  0.0017
  408DBGS   C2B 5066   4.241  18.315  12.800 -0.2144  0.2509  0.0907
  408DBGS   C3B 5067   4.521  18.111  12.895  0.4433  0.0904 -0.2204
  408DBGS   C4B 5068   4.988  17.973  12.775  0.1512  0.0340  0.2306
  408DBGS   C5B 5069   5.323  17.829  13.056  0.1318  0.1288 -0.1878
  409DBGS    C1 5070   1.751  14.101  10.971 -0.1687  0.1112  0.3788
  409DBGS    C2 5071   1.638  14.030  10.702  0.0560 -0.0351  0.3214
  409DBGS    C3 5072   1.749  13.815  10.879  0.0220  0.0766  0.4800
  409DBGS   AM1 5073   2.252  14.066  10.931  0.1103  0.0264  0.0402
  409DBGS   AM2 5074   2.194  14.058  10.653 -0.0298  0.1757 -0.2047
  409DBGS   T1A 5075   2.483  13.905  11.019  0.0430  0.4383  0.1377
  409DBGS   C2A 5076   2.957  13.894  11.191 -0.0106  0.1008  0.2398
  409DBGS   C3A 5077   3.316  13.654  11.106 -0.1317 -0.0000 -0.0190
  409DBGS   C4A 5078   3.750  13.502  11.179 -0.0429  0.1853  0.0576
  409DBGS   C5A 5079   3.960  13.231  11.262 -0.0913  0.0017 -0.0878
  409DBGS   C1B 5080   2.361  13.890  10.396  0.1182  0.0498 -0.1122
  409DBGS   C2B 5081   2.608  13.640  10.080  0.1058 -0.1270  0.1560
  409DBGS   C3B 5082   2.793  13.576   9.729  0.1852  0.2460  0.0875
  409DBGS   C4B 5083   2.904  13.552   9.296 -0.0771 -0.0371 -0.0681
  409DBGS   C5B 5084   2.811  13.354   8.886  0.2558  0.0033 -0.0241
  410DBGS    C1 5085  33.773  14.535   5.950 -0.3087 -0.0367  0.1184
  410DBGS    C2 5086  34.035  14.523   6.095 -0.2945  0.0720  0.1032
  410DBGS    C3 5087  33.795  14.385   6.209 -0.1949 -0.1622  0.0367
  410DBGS   AM1 5088  34.082  14.120   5.802  0.2569 -0.2730  0.1661
  410DBGS   AM2 5089  33.914  14.189   5.605  0.0706 -0.3084 -0.2891
  410DBGS   T1A 5090  34.332  14.027   5.765 -0.1418 -0.2541 -0.0164
  410DBGS   C2A 5091  34.596  13.859   5.536 -0.2063  0.1633 -0.2158
  410DBGS   C3A 5092  34.790  13.721   5.252 -0.1659  0.0568  0.0330
  410DBGS   C4A 5093  34.876  13.667   4.930 -0.2319 -0.2722 -0.0960
  410DBGS   C5A 5094  35.006  13.818   4.528 -0.0950 -0.1109 -0.0772
  410DBGS   C1B 5095  33.949  14.343   5.267 -0.1254 -0.1005  0.1119
  410DBGS   C2B 5096  34.252  14.255   4.897 -0.0987  0.0022 -0.1183
  410DBGS   C3B 5097  34.614  14.113   4.645 -0.1530 -0.1924 -0.1294
  410DBGS   C4B 5098  34.715  13.971   4.128 -0.2239 -0.0631  0.0856
  410DBGS   C5B 5099  34.704  13.689   3.845 -0.4924  0.2727 -0.1352
  411DBGS    C1 5100  32.404  20.030   4.611 -0.0939 -0.2224 -0.1059
  411DBGS    C2 5101  32.583  20.024   4.852 -0.0365  0.1070 -0.1376
  411DBGS    C3 5102  32.353  19.832   4.831  0.0036  0.0252  0.1425
  411DBGS   AM1 5103  32.505  19.617   4.309  0.4304 -0.1353  0.1860
  411DBGS   AM2 5104  32.237  19.588   4.270  0.0422 -0.1376  0.3033
  411DBGS   T1A 5105  32.718  19.661   4.108 -0.0725 -0.1294 -0.0391
  411DBGS   C2A 5106  32.936  19.774   3.731  0.1680 -0.0139  0.0927
  411DBGS   C3A 5107  33.160  19.878   3.376  0.3092 -0.0296  0.2231
  411DBGS   C4A 5108  33.530  20.019   3.194  0.1786 -0.1706 -0.1127
  411DBGS   C5A 5109  33.881  20.248   3.049  0.2463  0.1748 -0.2934
  411DBGS   C1B 5110  32.118  19.622   3.934  0.0935  0.0963 -0.0214
  411DBGS   C2B 5111  32.037  19.614   3.496 -0.1556  0.0923  0.1331
  411DBGS   C3B 5112  32.127  19.490   3.132 -0.1065  0.0912 -0.0808
  411DBGS   C4B 5113  32.317  19.205   2.895 -0.1719 -0.1536  0.0880
  411DBGS   C5B 5114  32.236  19.039   2.423  0.0015 -0.4583  0.3655
  412DBGS    C1 5115   1.650  20.623   9.642  0.0527  0.1356  0.0492
  412DBGS    C2 5116   1.401  20.582   9.804 -0.0084 -0.1165 -0.1059
  412DBGS    C3 5117   1.385  20.594   9.505  0.1637 -0.1123 -0.1153
  412DBGS   AM1 5118   1.832  20.356   9.264 -0.0702  0.1393 -0.1592
  412DBGS   AM2 5119   1.824  20.584   9.077 -0.1978  0.0545 -0.2128
  412DBGS   T1A 5120   2.039  20.154   9.261 -0.0146 -0.0567 -0.0410
  412DBGS   C2A 5121   2.370  20.163   8.948 -0.0552 -0.1400 -0.0153
  412DBGS   C3A 5122   2.575  20.367   8.571  0.1184 -0.1233 -0.0523
  412DBGS   C4A 5123   2.619  20.531   8.131  0.1072 -0.1421 -0.4368
  412DBGS   C5A 5124   2.824  20.238   7.814  0.3049  0.0882 -0.0455
  412DBGS   C1B 5125   2.111  20.549   8.856 -0.0008 -0.2576  0.0446
  412DBGS   C2B 5126   2.373  20.804   8.663  0.2473  0.1264 -0.1605
  412DBGS   C3B 5127   2.464  21.035   8.399  0.2886  0.1466 -0.1455
  412DBGS   C4B 5128   2.601  21.378   8.093  0.0075  0.1388  0.0639
  412DBGS   C5B 5129   2.697  21.753   7.967  0.3518 -0.0954  0.1969
  413DBGS    C1 5130  20.436  17.223  15.962  0.1639  0.1076 -0.1208
  413DBGS    C2 5131  20.704  17.162  15.842  0.0170 -0.1226 -0.3375
  413DBGS    C3 5132  20.618  17.023  16.093  0.1148 -0.0212 -0.2475
  413DBGS   AM1 5133  20.060  16.919  16.085 -0.1562  0.3433 -0.1990
  413DBGS   AM2 5134  19.978  17.171  16.138  0.0968 -0.0304 -0.2100
  413DBGS   T1A 5135  19.947  16.724  15.912  0.2265 -0.1944 -0.0242
  413DBGS   C2A 5136  19.688  16.463  15.639  0.1886  0.1178  0.0891
  413DBGS   C3A 5137  19.480  16.591  15.383  0.0533 -0.0950 -0.1549
  413DBGS   C4A 5138  19.145  16.481  15.084 -0.1326 -0.0204 -0.0588
  413DBGS   C5A 5139  18.898  16.270  14.717 -0.1809 -0.1923 -0.1777
  413DBGS   C1B 5140  19.693  17.304  15.942 -0.1545  0.1779  0.0391
  413DBGS   C2B 5141  19.549  17.649  15.787  0.1758 -0.0554 -0.3284
  413DBGS   C3B 5142  19.154  17.818  15.808 -0.0013 -0.2825  0.1969
  413DBGS   C4B 5143  18.737  17.850  15.643  0.0017 -0.0466 -0.1191
  413DBGS   C5B 5144  18.396  17.798  15.374  0.1323  0.0532 -0.0085
  414DBGS    C1 5145  21.090  30.114  13.131 -0.1224 -0.0602  0.0336
  414DBGS    C2 5146  21.146  29.880  12.951 -0.2388  0.0447 -0.1410
  414DBGS    C3 5147  21.070  29.834  13.238  0.3113 -0.1128 -0.0150
  414DBGS   AM1 5148  20.665  29.978  12.861  0.2771  0.0086 -0.0896
  414DBGS   AM2 5149  20.617  29.947  13.124  0.0549 -0.0735 -0.3671
  414DBGS   T1A 5150  20.573  29.865  12.622  0.2298  0.1158  0.2272
  414DBGS   C2A 5151  20.198  29.866  12.403 -0.3668  0.1503 -0.5215
  414DBGS   C3A 5152  19.872  29.773  12.186 -0.1246  0.0494  0.1378
  414DBGS   C4A 5153  19.434  29.796  12.005  0.0944 -0.2671  0.0498
  414DBGS   C5A 5154  19.188  29.529  11.835 -0.0195 -0.0736 -0.0897
  414DBGS   C1B 5155  20.396  29.733  13.313  0.1468 -0.2712  0.0367
  414DBGS   C2B 5156  20.073  29.683  13.313  0.1881  0.1353  0.0547
  414DBGS   C3B 5157  19.684  29.537  13.063 -0.0917  0.1246  0.0258
  414DBGS   C4B 5158  19.439  29.552  12.787 -0.1740 -0.2091 -0.0798
  414DBGS   C5B 5159  18.985  29.400  12.738  0.1396 -0.0105 -0.6159
  415DBGS    C1 5160  27.032  34.613  10.260  0.0364  0.0101  0.1261
  415DBGS    C2 5161  27.318  34.655  10.341  0.0591  0.1916 -0.0446
  415DBGS    C3 5162  27.109  34.855  10.420  0.0182  0.1773 -0.1140
  415DBGS   AM1 5163  26.583  34.897  10.208 -0.2002 -0.0093 -0.3160
  415DBGS   AM2 5164  26.775  34.972  10.030  0.0194  0.2285 -0.2357
  415DBGS   T1A 5165  26.305  34.897  10.057  0.0517  0.0447  0.1063
  415DBGS   C2A 5166  26.074  35.046   9.734  0.0020  0.1274  0.0170
  415DBGS   C3A 5167  26.005  35.144   9.342  0.0189  0.2616  0.4055
  415DBGS   C4A 5168  25.844  35.078   8.898 -0.0656  0.1285  0.0910
  415DBGS   C5A 5169  25.714  34.853   8.620  0.1169  0.3185  0.0075
  415DBGS   C1B 5170  26.888  34.759   9.754  0.1802  0.2956  0.2812
  415DBGS   C2B 5171  26.943  34.656   9.325  0.0616 -0.3120  0.0251
  415DBGS   C3B 5172  26.755  34.414   9.026 -0.3090 -0.1403  0.1618
  415DBGS   C4B 5173  26.713  34.474   8.652  0.2409 -0.2912 -0.1436
  415DBGS   C5B 5174  26.672  34.765   8.342 -0.1179  0.1791  0.0358
  416DBGS    C1 5175   1.094  20.632   8.620 -0.1794  0.3206 -0.0812
  416DBGS    C2 5176   0.888  20.549   8.418 -0.2235  0.2374 -0.0025
  416DBGS    C3 5177   1.003  20.826   8.410 -0.0496  0.1590 -0.2888
  416DBGS   AM1 5178   1.522  20.875   8.696 -0.0216  0.0135  0.3248
  416DBGS   AM2 5179   1.329  21.058   8.760 -0.1469 -0.2189  0.1959
  416DBGS   T1A 5180   1.788  20.837   8.577 -0.0309  0.1961 -0.1628
  416DBGS   C2A 5181   1.864  21.197   8.270 -0.3632  0.0677  0.2288
  416DBGS   C3A 5182   2.121  21.375   8.042 -0.1585  0.0455  0.1424
  416DBGS   C4A 5183   2.270  21.582   7.771 -0.1038  0.3976 -0.3463
  416DBGS   C5A 5184   2.718  21.460   7.555 -0.4854 -0.1430 -0.1991
  416DBGS   C1B 5185   1.199  21.313   8.512 -0.2779  0.1145 -0.0849
  416DBGS   C2B 5186   1.447  21.469   8.113 -0.1706  0.1900  0.0383
  416DBGS   C3B 5187   1.755  21.686   7.815 -0.0446  0.2305  0.2003
  416DBGS   C4B 5188   1.875  21.930   7.531 -0.0548 -0.0986 -0.0966
  416DBGS   C5B 5189   2.159  22.076   7.201  0.1677  0.0305  0.1669
  417DBGS    C1 5190   2.460  22.678  13.944  0.0456  0.0562  0.0399
  417DBGS    C2 5191   2.649  22.446  13.941 -0.2633 -0.2011  0.2105
  417DBGS    C3 5192   2.403  22.442  13.768 -0.1319  0.1187  0.0114
  417DBGS   AM1 5193   2.750  22.851  13.585  0.1347  0.1178 -0.1464
  417DBGS   AM2 5194   2.631  23.064  13.642 -0.0229 -0.1274  0.1167
  417DBGS   T1A 5195   3.016  22.880  13.455 -0.1488 -0.0155 -0.1806
  417DBGS   C2A 5196   3.315  23.174  13.355  0.1077  0.1441 -0.3444
  417DBGS   C3A 5197   3.744  23.385  13.294 -0.2055  0.0343  0.1107
  417DBGS   C4A 5198   4.106  23.488  13.134 -0.1105 -0.0741  0.0359
  417DBGS   C5A 5199   4.475  23.452  13.000  0.0788 -0.1539 -0.4670
  417DBGS   C1B 5200   2.775  23.409  13.702 -0.0974  0.1034  0.2515
  417DBGS   C2B 5201   3.106  23.754  13.487  0.3202 -0.1952  0.0221
  417DBGS   C3B 5202   3.382  23.735  13.256  0.0189 -0.1479 -0.2382
  417DBGS   C4B 5203   3.668  23.950  13.029 -0.0224 -0.4134 -0.1332
  417DBGS   C5B 5204   4.111  24.003  13.098  0.1222  0.1334 -0.1690
  418DBGS    C1 5205   3.793  22.344  15.853  0.1871 -0.1296  0.0315
  418DBGS    C2 5206   3.810  22.372  15.555 -0.2595 -0.1928 -0.0040
  418DBGS    C3 5207   4.005  22.196  15.700  0.1418  0.0640 -0.2218
  418DBGS   AM1 5208   4.170  22.590  16.070 -0.0889 -0.1822  0.1427
  418DBGS   AM2 5209   4.161  22.653  15.803 -0.2880  0.2482 -0.0418
  418DBGS   T1A 5210   4.429  22.590  16.247 -0.1502 -0.1909 -0.0125
  418DBGS   C2A 5211   4.717  22.398  16.378  0.1294 -0.1428 -0.1606
  418DBGS   C3A 5212   5.113  22.375  16.525 -0.0691 -0.1216  0.1211
  418DBGS   C4A 5213   5.418  22.345  16.723  0.1166  0.1461 -0.1428
  418DBGS   C5A 5214   5.428  22.237  17.140 -0.2331  0.0655  0.2697
  418DBGS   C1B 5215   4.386  22.911  15.700 -0.0205 -0.1153 -0.1439
  418DBGS   C2B 5216   4.683  23.066  15.543 -0.0598 -0.3055 -0.4657
  418DBGS   C3B 5217   5.009  23.120  15.333 -0.1440 -0.2458  0.3516
  418DBGS   C4B 5218   5.466  23.161  15.203 -0.1125 -0.2555  0.1721
  418DBGS   C5B 5219   5.905  23.067  15.385 -0.4788  0.0486  0.1884
  419DBGS    C1 5220  29.682  30.148  10.108  0.0009 -0.1649  0.2189
  419DBGS    C2 5221  29.915  30.040   9.953 -0.2432  0.0225 -0.2901
  419DBGS    C3 5222  29.646  29.909   9.929 -0.2819  0.0498 -0.0160
  419DBGS   AM1 5223  29.697  30.446   9.704  0.1166  0.0025 -0.1491
  419DBGS   AM2 5224  29.473  30.284   9.628 -0.3909 -0.3364  0.1649
  419DBGS   T1A 5225  29.896  30.563   9.522 -0.0017 -0.1185  0.1572
  419DBGS   C2A 5226  30.199  30.656   9.169  0.0843  0.0746 -0.0957
  419DBGS   C3A 5227  30.600  30.834   8.935  0.1352 -0.4325 -0.1200
  419DBGS   C4A 5228  30.865  30.976   8.480 -0.1138  0.1772  0.2411
  419DBGS   C5A 5229  31.017  31.000   8.097  0.0595 -0.1586  0.0469
  419DBGS   C1B 5230  29.347  30.297   9.278 -0.2377  0.0498 -0.2175
  419DBGS   C2B 5231  29.203  30.575   9.178  0.2320  0.0564  0.0210
  419DBGS   C3B 5232  29.101  30.823   8.852  0.3571  0.1756  0.2156
  419DBGS   C4B 5233  29.395  31.142   8.649  0.1129  0.1996 -0.2174
  419DBGS   C5B 5234  29.491  31.313   8.304  0.2581  0.1931 -0.2382
  420DBGS    C1 5235  31.334  16.940   4.666 -0.0378 -0.0477 -0.4094
  420DBGS    C2 5236  31.567  16.881   4.846 -0.0974 -0.0858 -0.3445
  420DBGS    C3 5237  31.428  17.147   4.862 -0.2260 -0.1610 -0.1972
  420DBGS   AM1 5238  31.590  17.207   4.299  0.3313  0.1906 -0.3315
  420DBGS   AM2 5239  31.664  16.955   4.312  0.0787 -0.0639 -0.0253
  420DBGS   T1A 5240  31.549  17.444   4.115 -0.1646  0.0239 -0.0949
  420DBGS   C2A 5241  31.550  17.509   3.769  0.0807 -0.0517  0.2149
  420DBGS   C3A 5242  31.693  17.479   3.379 -0.1091 -0.1677  0.2268
  420DBGS   C4A 5243  31.799  17.452   2.990 -0.1991 -0.1017  0.0273
  420DBGS   C5A 5244  32.062  17.613   2.738 -0.1243 -0.1457 -0.0483
  420DBGS   C1B 5245  31.800  16.698   4.058 -0.3035  0.0182 -0.0192
  420DBGS   C2B 5246  31.889  16.461   3.718 -0.0428  0.2048 -0.1251
  420DBGS   C3B 5247  31.875  16.609   3.341  0.2545  0.2482 -0.1051
  420DBGS   C4B 5248  31.845  16.302   3.036  0.0681 -0.0370 -0.0104
  420DBGS   C5B 5249  31.928  15.890   2.775  0.1497 -0.2283 -0.1791
  421DBGS    C1 5250  19.577  22.223  18.009 -0.0764 -0.1281 -0.1513
  421DBGS    C2 5251  19.742  22.376  17.811 -0.1673  0.1013 -0.0517
  421DBGS    C3 5252  19.833  22.107  17.906 -0.0030  0.0953 -0.2244
  421DBGS   AM1 5253  19.411  22.133  17.542  0.2230 -0.1775  0.1929
  421DBGS   AM2 5254  19.173  22.116  17.682  0.2244 -0.0063 -0.1947
  421DBGS   T1A 5255  19.400  22.261  17.277 -0.2298 -0.3708 -0.1233
  421DBGS   C2A 5256  19.149  22.227  16.931  0.0470 -0.0224 -0.2641
  421DBGS   C3A 5257  18.750  22.326  16.770  0.0795 -0.0425 -0.0277
  421DBGS   C4A 5258  18.403  22.632  16.800 -0.3415  0.4766 -0.0784
  421DBGS   C5A 5259  18.035  22.736  16.875  0.1461  0.0716 -0.0659
  421DBGS   C1B 5260  18.904  21.964  17.542  0.2733 -0.2940 -0.0372
  421DBGS   C2B 5261  18.746  21.981  17.135 -0.0267 -0.2457  0.1258
  421DBGS   C3B 5262  18.417  21.823  16.942 -0.0752  0.0324  0.1299
  421DBGS   C4B 5263  18.096  21.619  16.765 -0.0582 -0.1004 -0.0488
  421DBGS   C5B 5264  18.083  21.465  16.307 -0.0355  0.0885 -0.1663
  422DBGS    C1 5265  33.907  33.932  13.092  0.0013 -0.1271  0.0563
  422DBGS    C2 5266  33.968  34.183  13.245 -0.0625 -0.1588  0.1356
  422DBGS    C3 5267  33.878  33.937  13.391 -0.0327 -0.2192  0.0548
  422DBGS   AM1 5268  34.375  33.779  13.117 -0.0163 -0.1027 -0.2271
  422DBGS   AM2 5269  34.231  33.576  12.969  0.1764 -0.1259 -0.3680
  422DBGS   T1A 5270  34.479  33.985  12.980 -0.0393 -0.2160 -0.2875
  422DBGS   C2A 5271  34.696  33.973  12.672  0.2533  0.3913 -0.2852
  422DBGS   C3A 5272  34.967  33.942  12.367  0.0762 -0.0061 -0.0534
  422DBGS   C4A 5273  35.312  33.920  12.069  0.1754 -0.0565  0.0763
  422DBGS   C5A 5274   0.399  33.992  12.262  0.1361 -0.0710 -0.1536
  422DBGS   C1B 5275  34.231  33.582  12.594  0.2706 -0.0049  0.0259
  422DBGS   C2B 5276  34.486  33.628  12.354 -0.2628  0.0378  0.1046
  422DBGS   C3B 5277  34.817  33.520  12.155 -0.0877 -0.2136 -0.1198
  422DBGS   C4B 5278  35.079  33.515  11.742  0.0916  0.1945  0.0795
  422DBGS   C5B 5279  35.165  33.365  11.353  0.0399  0.0551  0.1438
  423DBGS    C1 5280  22.579  15.453  13.130 -0.0621  0.1277  0.1184
  423DBGS    C2 5281  22.820  15.631  13.136  0.0588 -0.0313  0.0457
  423DBGS    C3 5282  22.571  15.720  12.994  0.0680  0.1404  0.1350
  423DBGS   AM1 5283  22.221  15.288  12.828  0.2705  0.2122  0.0133
  423DBGS   AM2 5284  22.411  15.150  12.682 -0.0918 -0.3201 -0.0818
  423DBGS   T1A 5285  21.944  15.244  12.719  0.1603  0.3366 -0.2605
  423DBGS   C2A 5286  21.462  15.276  12.556  0.1633 -0.0266 -0.1604
  423DBGS   C3A 5287  20.998  15.172  12.488 -0.0358 -0.0558 -0.5710
  423DBGS   C4A 5288  20.553  15.071  12.649  0.2643 -0.0308 -0.0724
  423DBGS   C5A 5289  20.297  14.629  12.741  0.0784  0.0036 -0.0923
  423DBGS   C1B 5290  22.551  15.249  12.352  0.1506  0.0749 -0.1408
  423DBGS   C2B 5291  22.464  15.498  11.980 -0.1538 -0.0208 -0.1213
  423DBGS   C3B 5292  22.059  15.366  11.841 -0.1166  0.2525  0.1744
  423DBGS   C4B 5293  21.558  15.479  11.690 -0.0828  0.1605  0.1741
  423DBGS   C5B 5294  21.336  15.197  11.547 -0.0642  0.1164  0.1793
  424DBGS    C1 5295  15.126   8.533  18.392  0.1102 -0.1506  0.0462
  424DBGS    C2 5296  15.264   8.742  18.557  0.1387 -0.0477 -0.1062
  424DBGS    C3 5297  15.424   8.562  18.378  0.1176 -0.2233  0.0491
  424DBGS   AM1 5298  15.117   8.418  17.937 -0.0319 -0.0540 -0.0376
  424DBGS   AM2 5299  14.998   8.199  18.017 -0.1353  0.1903  0.1089
  424DBGS   T1A 5300  15.033   8.594  17.735 -0.1726 -0.1737  0.4895
  424DBGS   C2A 5301  14.971   8.727  17.210  0.3336  0.4005  0.2349
  424DBGS   C3A 5302  14.795   8.740  16.778 -0.0421  0.1521  0.0047
  424DBGS   C4A 5303  14.799   8.882  16.480 -0.0116  0.1967 -0.1676
  424DBGS   C5A 5304  14.930   8.880  16.108  0.1366 -0.0305  0.0351
  424DBGS   C1B 5305  15.036   7.866  17.898  0.2798  0.0723 -0.0789
  424DBGS   C2B 5306  14.764   7.658  17.620  0.2254 -0.0050 -0.1609
  424DBGS   C3B 5307  14.525   7.478  17.301 -0.0464 -0.1499 -0.2188
  424DBGS   C4B 5308  14.630   7.256  16.983 -0.1487 -0.2512  0.1238
  424DBGS   C5B 5309  14.351   7.151  16.671  0.0137  0.1561 -0.1449
  425DBGS    C1 5310  30.977  11.733   5.107  0.0570  0.0691 -0.2923
  425DBGS    C2 5311  31.092  11.920   4.903  0.3320 -0.0312 -0.2309
  425DBGS    C3 5312  31.219  11.897   5.173 -0.0656  0.1440 -0.0253
  425DBGS   AM1 5313  31.248  11.457   4.803 -0.1041  0.3720 -0.0879
  425DBGS   AM2 5314  31.176  11.286   4.982 -0.1613  0.3686  0.2610
  425DBGS   T1A 5315  31.297  11.382   4.543 -0.2599 -0.1000 -0.1837
  425DBGS   C2A 5316  31.450  11.227   4.210 -0.0366 -0.0603 -0.0289
  425DBGS   C3A 5317  31.383  11.082   3.746  0.1386  0.4282 -0.0444
  425DBGS   C4A 5318  31.366  11.018   3.295 -0.0861  0.0649  0.3013
  425DBGS   C5A 5319  31.351  11.317   2.927 -0.0775 -0.1596  0.5272
  425DBGS   C1B 5320  31.205  10.942   4.878 -0.1469  0.0394  0.1785
  425DBGS   C2B 5321  31.392  10.839   4.632 -0.2215  0.0313  0.1778
  425DBGS   C3B 5322  31.548  10.698   4.259 -0.0778 -0.1529 -0.0394
  425DBGS   C4B 5323  31.913  10.487   4.098 -0.1499  0.3579  0.0586
  425DBGS   C5B 5324  32.146  10.143   4.187 -0.1378  0.0605  0.1028
  426DBGS    C1 5325  30.361  23.544   5.276  0.1580  0.0237  0.0131
  426DBGS    C2 5326  30.254  23.472   5.546  0.0251  0.0094 -0.0433
  426DBGS    C3 5327  30.169  23.316   5.305  0.3453 -0.1451 -0.0585
  426DBGS   AM1 5328  30.350  23.411   4.787  0.2156 -0.1736  0.3312
  426DBGS   AM2 5329  30.104  23.512   4.815 -0.2643 -0.0461 -0.3315
  426DBGS   T1A 5330  30.527  23.555   4.600  0.0871 -0.0510  0.3461
  426DBGS   C2A 5331  30.556  23.837   4.326 -0.0593 -0.2084 -0.0729
  426DBGS   C3A 5332  30.582  24.067   3.961 -0.0028  0.0912 -0.0805
  426DBGS   C4A 5333  30.649  24.050   3.501  0.2525  0.0613 -0.1837
  426DBGS   C5A 5334  30.848  23.803   3.140 -0.2206  0.1614 -0.1050
  426DBGS   C1B 5335  29.948  23.722   4.550  0.1663 -0.2124  0.0527
  426DBGS   C2B 5336  30.097  23.960   4.181  0.0965  0.1098  0.0030
  426DBGS   C3B 5337  29.831  24.246   4.054 -0.2639  0.2289 -0.1001
  426DBGS   C4B 5338  29.744  24.476   3.722 -0.3732  0.1414 -0.1167
  426DBGS   C5B 5339  29.470  24.841   3.471 -0.1981  0.1909 -0.0713
  427DBGS    C1 5340  27.820   2.840  10.473 -0.3975  0.1797 -0.0651
  427DBGS    C2 5341  27.920   3.118  10.526 -0.0798  0.0667 -0.0628
  427DBGS    C3 5342  27.634   3.074  10.447 -0.1434  0.3893 -0.0199
  427DBGS   AM1 5343  27.732   2.777   9.968 -0.0545  0.0732 -0.4238
  427DBGS   AM2 5344  27.986   2.861   9.997 -0.1126 -0.4265 -0.0651
  427DBGS   T1A 5345  27.612   2.784   9.706  0.1869  0.3940  0.0692
  427DBGS   C2A 5346  27.532   2.895   9.308  0.0932  0.1515 -0.1381
  427DBGS   C3A 5347  27.391   2.761   8.824  0.0757  0.1485  0.2564
  427DBGS   C4A 5348  27.452   2.908   8.397 -0.0940  0.2286 -0.0943
  427DBGS   C5A 5349  27.196   2.987   7.998 -0.1962  0.0717 -0.2757
  427DBGS   C1B 5350  28.299   2.863   9.806 -0.0549  0.2507  0.1309
  427DBGS   C2B 5351  28.434   3.116   9.502 -0.1884  0.1065 -0.0384
  427DBGS   C3B 5352  28.553   3.346   9.168 -0.2100 -0.0876 -0.4808
  427DBGS   C4B 5353  28.690   3.275   8.796  0.1249 -0.0987 -0.0573
  427DBGS   C5B 5354  29.009   3.363   8.605  0.1210  0.0418  0.0355
  428DBGS    C1 5355   2.787  10.554  13.259 -0.1379  0.0249  0.0310
  428DBGS    C2 5356   2.801  10.276  13.371  0.0347 -0.0561 -0.1891
  428DBGS    C3 5357   2.806  10.512  13.556  0.0368 -0.1950 -0.0101
  428DBGS   AM1 5358   3.248  10.502  13.167 -0.0042  0.0143  0.0459
  428DBGS   AM2 5359   3.163  10.369  12.965 -0.1402 -0.2142 -0.0243
  428DBGS   T1A 5360   3.548  10.557  13.211  0.1951  0.1460 -0.1136
  428DBGS   C2A 5361   3.924  10.575  12.957 -0.0325 -0.1529  0.3345
  428DBGS   C3A 5362   4.175  10.495  12.662  0.2363 -0.0354  0.2041
  428DBGS   C4A 5363   4.482  10.513  12.235  0.1619 -0.2199  0.1591
  428DBGS   C5A 5364   4.740  10.769  12.146 -0.0018  0.0710 -0.1853
  428DBGS   C1B 5365   3.348  10.388  12.644 -0.0397  0.2938  0.0445
  428DBGS   C2B 5366   3.799  10.326  12.438  0.2846  0.0163 -0.0691
  428DBGS   C3B 5367   4.073  10.283  12.131 -0.0071 -0.0216 -0.0065
  428DBGS   C4B 5368   4.058   9.932  11.768 -0.2256 -0.0818  0.1382
  428DBGS   C5B 5369   4.314   9.971  11.335 -0.0954  0.3122  0.0331
  429PNGS    C1 5370  23.026  30.806  11.541  0.0817  0.2144 -0.1089
  429PNGS    C2 5371  23.008  30.506  11.535 -0.4392  0.2459 -0.4362
  429PNGS    C3 5372  23.264  30.643  11.457 -0.1879 -0.1112 -0.2525
  429PNGS   AM1 5373  22.802  30.703  11.098 -0.1363 -0.3339  0.0451
  429PNGS   AM2 5374  22.648  30.507  11.220 -0.3276 -0.1953  0.1309
  429PNGS   T1A 5375  22.783  30.882  10.875 -0.0653 -0.1419  0.0262
  429PNGS   C2A 5376  22.538  30.980  10.543 -0.0030  0.0786 -0.1002
  429PNGS   C3A 5377  22.145  30.924  10.422  0.1583 -0.0711  0.0108
  429PNGS   C4A 5378  21.675  30.722  10.478  0.3139  0.2207 -0.3814
  429PNGS   C1B 5379  22.329  30.307  11.177  0.0649  0.0408  0.1032
  429PNGS   C2B 5380  22.151  30.076  10.811  0.0555  0.0342  0.1551
  429PNGS   C3B 5381  21.841  30.053  10.565  0.3253  0.2733 -0.0195
  429PNGS   D4B 5382  21.525  30.019  10.513 -0.0980 -0.1178 -0.2761
  429PNGS   C5B 5383  21.086  30.350  10.370  0.2335  0.2356 -0.3414
  429PNGS   C6B 5384  20.813  30.756  10.449 -0.3314 -0.1364  0.0853
  430PNGS    C1 5385   9.002  11.703  18.027  0.1869 -0.0886  0.0216
  430PNGS    C2 5386   8.767  11.566  18.153 -0.1325  0.3212 -0.1190
  430PNGS    C3 5387   8.947  11.739  18.319 -0.0112  0.1193 -0.0394
  430PNGS   AM1 5388   9.457  11.887  18.131  0.0980 -0.3737  0.0501
  430PNGS   AM2 5389   9.469  11.603  18.105  0.0816 -0.1658 -0.1061
  430PNGS   T1A 5390   9.471  11.976  17.846 -0.1030 -0.0237 -0.0921
  430PNGS   C2A 5391   9.584  11.866  17.425 -0.3166 -0.0007  0.0079
  430PNGS   C3A 5392   9.612  11.822  17.023 -0.4192  0.2554  0.1766
  430PNGS   C4A 5393   9.715  11.835  16.428  0.3508 -0.0984 -0.1926
  430PNGS   C1B 5394   9.503  11.443  17.784  0.2940 -0.0321 -0.1877
  430PNGS   C2B 5395   9.666  11.413  17.260 -0.1295  0.4233  0.3973
  430PNGS   C3B 5396   9.772  11.438  16.738 -0.4192  0.0459  0.2931
  430PNGS   D4B 5397   9.604  11.381  16.254 -0.2092 -0.0268 -0.0777
  430PNGS   C5B 5398   9.199  11.179  16.287 -0.0874 -0.0699 -0.1745
  430PNGS   C6B 5399   8.818  11.065  16.197  0.0010  0.0887  0.0528
  431PNGS    C1 5400   0.150   8.512  10.976 -0.0171  0.1515 -0.2515
  431PNGS    C2 5401   0.229   8.222  10.982  0.3384  0.2502  0.1742
  431PNGS    C3 5402  35.331   8.300  10.921  0.2445 -0.1840  0.0403
  431PNGS   AM1 5403   0.348   8.448  10.516  0.1158 -0.0559  0.0263
  431PNGS   AM2 5404   0.124   8.560  10.387  0.1538  0.1233 -0.0020
  431PNGS   T1A 5405   0.517   8.263  10.398 -0.1260  0.0104 -0.2057
  431PNGS   C2A 5406   0.767   8.086  10.117 -0.2140 -0.1675  0.2492
  431PNGS   C3A 5407   1.025   7.768   9.848  0.2669 -0.0061 -0.0246
  431PNGS   C4A 5408   1.295   7.791   9.520 -0.0713  0.2431 -0.2163
  431PNGS   C1B 5409  35.329   8.466  10.053  0.0587  0.0559 -0.0859
  431PNGS   C2B 5410  35.368   8.232   9.768  0.3547  0.2032 -0.1175
  431PNGS   C3B 5411   0.144   8.021   9.344 -0.0825  0.1764  0.1256
  431PNGS   D4B 5412   0.375   7.560   9.171 -0.1383  0.3402 -0.0312
  431PNGS   C5B 5413   0.530   7.309   8.842  0.3363 -0.0435  0.1514
  431PNGS   C6B 5414   0.421   7.074   8.522 -0.3490  0.1767 -0.3729
  432PNGS    C1 5415  19.887  19.854  17.339  0.0537  0.0380 -0.0787
  432PNGS    C2 5416  20.006  20.110  17.238  0.2508  0.0173  0.0979
  432PNGS    C3 5417  20.144  19.849  17.185  0.0745 -0.0482 -0.0414
  432PNGS   AM1 5418  19.675  19.776  16.895 -0.2957  0.1806 -0.0614
  432PNGS   AM2 5419  19.448  19.735  17.019  0.1027 -0.3725  0.0360
  432PNGS   T1A 5420  19.650  19.760  16.618  0.0921  0.2497  0.2358
  432PNGS   C2A 5421  19.377  19.540  16.370 -0.0691  0.0267 -0.0895
  432PNGS   C3A 5422  19.068  19.431  16.087 -0.1080 -0.0952  0.0569
  432PNGS   C4A 5423  18.595  19.362  15.973 -0.0208 -0.1200 -0.0430
  432PNGS   C1B 5424  19.147  19.672  16.818  0.2126 -0.3308  0.0655
  432PNGS   C2B 5425  18.885  19.844  16.423 -0.2319 -0.0349  0.2924
  432PNGS   C3B 5426  18.578  19.834  16.147  0.1266  0.3873  0.0761
  432PNGS   D4B 5427  18.219  19.708  16.032 -0.0237  0.1851  0.2612
  432PNGS   C5B 5428  18.221  19.495  15.705 -0.0040  0.2087 -0.1675
  432PNGS   C6B 5429  18.425  19.314  15.411 -0.3690  0.1628  0.0022
  433PNGS    C1 5430   1.468  29.079  17.111  0.1334  0.0194  0.0957
  433PNGS    C2 5431   1.735  28.946  17.141 -0.0038 -0.1875  0.4307
  433PNGS    C3 5432   1.505  28.795  17.023  0.0594  0.0364  0.0113
  433PNGS   AM1 5433   1.776  29.248  16.775 -0.1685  0.0948  0.2670
  433PNGS   AM2 5434   1.654  29.124  16.535 -0.0188 -0.1197 -0.0177
  433PNGS   T1A 5435   2.042  29.340  16.668 -0.1488 -0.0389  0.0981
  433PNGS   C2A 5436   2.284  29.177  16.330  0.4332 -0.2089  0.0774
  433PNGS   C3A 5437   2.621  29.084  15.938  0.2014 -0.2756  0.0165
  433PNGS   C4A 5438   3.051  29.028  15.760 -0.1765 -0.0400 -0.3424
  433PNGS   C1B 5439   1.821  29.112  16.199 -0.2729  0.0802 -0.1286
  433PNGS   C2B 5440   2.071  29.161  15.928  0.3493 -0.3890 -0.1563
  433PNGS   C3B 5441   2.107  29.184  15.455 -0.1632  0.2063  0.2350
  433PNGS   D4B 5442   2.290  29.549  15.261  0.0822 -0.3049  0.1814
  433PNGS   C5B 5443   2.368  29.943  15.532 -0.1745  0.2399  0.1781
  433PNGS   C6B 5444   2.556  30.039  15.854 -0.1600 -0.0710 -0.1201
  434PNGS    C1 5445   2.050  11.003  12.712  0.3377 -0.3158  0.2698
  434PNGS    C2 5446   2.012  10.706  12.708 -0.0750 -0.2638 -0.0017
  434PNGS    C3 5447   1.790  10.884  12.802  0.1596 -0.0386  0.1321
  434PNGS   AM1 5448   1.952  10.898  12.233  0.1986 -0.0059 -0.0343
  434PNGS   AM2 5449   1.974  11.167  12.245  0.1348 -0.0841  0.2304
  434PNGS   T1A 5450   2.086  10.660  12.095  0.1493 -0.0589 -0.1706
  434PNGS   C2A 5451   2.377  10.420  11.810  0.0213  0.0683  0.0693
  434PNGS   C3A 5452   2.650  10.335  11.525  0.0163  0.2471  0.0245
  434PNGS   C4A 5453   2.881  10.341  11.169 -0.2069 -0.0369  0.1099
  434PNGS   C1B 5454   2.244  11.355  12.095 -0.0008 -0.2679 -0.1686
  434PNGS   C2B 5455   2.736  11.370  12.205  0.0646  0.2621 -0.0203
  434PNGS   C3B 5456   3.141  11.265  11.948 -0.0725 -0.0625 -0.0492
  434PNGS   D4B 5457   3.349  11.435  11.590 -0.1317  0.2322  0.0723
  434PNGS   C5B 5458   3.392  11.221  11.271 -0.2576 -0.0231 -0.0807
  434PNGS   C6B 5459   3.135  10.897  11.217  0.2457 -0.1101  0.3017
  435PNGS    C1 5460   3.631  34.534  17.715 -0.1087  0.1176 -0.0781
  435PNGS    C2 5461   3.506  34.274  17.796  0.0888  0.0626  0.0514
  435PNGS    C3 5462   3.422  34.408  17.541 -0.0524 -0.1017  0.0108
  435PNGS   AM1 5463   3.924  34.123  17.581  0.2735 -0.1027 -0.2324
  435PNGS   AM2 5464   3.744  34.100  17.388  0.1344  0.0219 -0.1673
  435PNGS   T1A 5465   4.202  34.109  17.477 -0.0415  0.0592 -0.0857
  435PNGS   C2A 5466   4.423  34.038  17.047  0.4671  0.1456  0.2496
  435PNGS   C3A 5467   4.643  34.250  16.730 -0.2034 -0.1418  0.1015
  435PNGS   C4A 5468   4.735  34.147  16.369  0.1582 -0.0196 -0.0565
  435PNGS   C1B 5469   3.895  34.148  17.052  0.0801  0.0875  0.0088
  435PNGS   C2B 5470   4.132  34.390  16.793  0.0440  0.2060 -0.2584
  435PNGS   C3B 5471   4.267  34.444  16.368 -0.1374 -0.0567  0.2331
  435PNGS   D4B 5472   4.488  34.417  16.042 -0.3446 -0.0968 -0.0992
  435PNGS   C5B 5473   4.525  34.669  15.658  0.1183  0.0352 -0.0873
  435PNGS   C6B 5474   4.764  34.949  15.361  0.0855  0.0895  0.1790
  436PNGS    C1 5475   4.131  26.669  19.353  0.0406  0.0031 -0.1471
  436PNGS    C2 5476   4.172  26.928  19.499 -0.0171 -0.1568  0.1567
  436PNGS    C3 5477   4.409  26.767  19.408  0.0201 -0.1211  0.1903
  436PNGS   AM1 5478   4.321  26.588  18.902 -0.0006  0.0481  0.2827
  436PNGS   AM2 5479   4.526  26.462  18.991  0.0539  0.0993  0.2344
  436PNGS   T1A 5480   4.246  26.610  18.632  0.0915  0.0502 -0.4570
  436PNGS   C2A 5481   4.546  26.664  18.249  0.2643  0.0422  0.0903
  436PNGS   C3A 5482   4.838  26.536  17.886  0.1151 -0.0010  0.0491
  436PNGS   C4A 5483   5.066  26.320  17.716 -0.1352 -0.1620 -0.2577
  436PNGS   C1B 5484   4.876  26.496  18.863 -0.0623 -0.0290 -0.0411
  436PNGS   C2B 5485   5.211  26.334  18.833  0.0470 -0.0322  0.2610
  436PNGS   C3B 5486   5.680  26.256  18.718  0.2892 -0.4395  0.0782
  436PNGS   D4B 5487   5.884  26.506  18.467  0.0330  0.2033 -0.2202
  436PNGS   C5B 5488   6.000  26.869  18.712  0.3165 -0.2388  0.2098
  436PNGS   C6B 5489   5.739  26.989  19.064 -0.3592 -0.0598 -0.4620
  437PNGS    C1 5490  25.697  11.986   7.027 -0.3144  0.0004 -0.0376
  437PNGS    C2 5491  25.617  11.800   7.249  0.0564  0.0233  0.1193
  437PNGS    C3 5492  25.604  12.097   7.290  0.1758  0.0271  0.1298
  437PNGS   AM1 5493  25.271  12.253   6.857  0.0525 -0.0341 -0.0013
  437PNGS   AM2 5494  25.339  12.426   6.666  0.0230  0.1768 -0.0507
  437PNGS   T1A 5495  24.982  12.180   6.841 -0.3040  0.3827  0.0076
  437PNGS   C2A 5496  24.616  12.178   6.606  0.0032  0.0758 -0.2891
  437PNGS   C3A 5497  24.333  12.116   6.305  0.0767 -0.2022  0.0239
  437PNGS   C4A 5498  23.993  12.203   6.257 -0.2948  0.0191 -0.0118
  437PNGS   C1B 5499  25.041  12.546   6.456 -0.0110 -0.0037 -0.4025
  437PNGS   C2B 5500  24.721  12.517   6.184  0.3382 -0.0201  0.0219
  437PNGS   C3B 5501  24.255  12.586   5.934 -0.0791  0.1951  0.0906
  437PNGS   D4B 5502  23.816  12.527   5.837 -0.0999  0.4530  0.1759
  437PNGS   C5B 5503  23.566  12.376   6.116  0.0473  0.1514 -0.0499
  437PNGS   C6B 5504  23.478  12.229   6.503 -0.1230 -0.1981 -0.2945
  438PNGS    C1 5505  27.823  21.435   4.712  0.0106 -0.1723 -0.0587
  438PNGS    C2 5506  27.818  21.156   4.822 -0.0686 -0.1528 -0.0129
  438PNGS    C3 5507  27.620  21.238   4.613 -0.0842 -0.1129  0.0175
  438PNGS   AM1 5508  27.709  21.743   4.351 -0.2156 -0.0512  0.1960
  438PNGS   AM2 5509  27.701  21.919   4.550 -0.0765  0.2977  0.2635
  438PNGS   T1A 5510  27.725  21.762   4.070 -0.0624  0.2916  0.1044
  438PNGS   C2A 5511  27.584  22.061   3.733  0.0481  0.0934  0.2333
  438PNGS   C3A 5512  27.414  22.401   3.501  0.1945 -0.0016  0.1777
  438PNGS   C4A 5513  27.057  22.356   3.350  0.0349 -0.0267 -0.2082
  438PNGS   C1B 5514  27.450  22.199   4.602 -0.2392  0.0657  0.0802
  438PNGS   C2B 5515  27.107  22.443   4.409  0.0628  0.0828  0.1857
  438PNGS   C3B 5516  26.742  22.489   4.043  0.2036  0.2278 -0.1955
  438PNGS   D4B 5517  26.477  22.624   3.722  0.0135 -0.1464  0.1145
  438PNGS   C5B 5518  26.132  22.407   3.630  0.0299  0.0692 -0.0222
  438PNGS   C6B 5519  25.685  22.329   3.588 -0.3067 -0.0436  0.3797
  439PNGS    C1 5520  30.586  23.851   5.569 -0.0539 -0.2986 -0.0238
  439PNGS    C2 5521  30.560  23.991   5.833 -0.1081 -0.0266 -0.1705
  439PNGS    C3 5522  30.831  23.940   5.716 -0.0934  0.1175 -0.2003
  439PNGS   AM1 5523  30.593  24.149   5.226  0.2501  0.4986 -0.0801
  439PNGS   AM2 5524  30.698  23.927   5.098 -0.1503 -0.0000 -0.0351
  439PNGS   T1A 5525  30.603  24.384   5.048 -0.0908 -0.2098  0.1187
  439PNGS   C2A 5526  30.788  24.628   4.668 -0.1151 -0.2190  0.1865
  439PNGS   C3A 5527  30.956  24.909   4.445 -0.2374  0.1370 -0.0669
  439PNGS   C4A 5528  31.295  25.182   4.465  0.1433  0.0080  0.0455
  439PNGS   C1B 5529  30.807  23.986   4.751  0.2243  0.1202  0.1277
  439PNGS   C2B 5530  30.936  24.202   4.360 -0.1161 -0.0872  0.0922
  439PNGS   C3B 5531  30.897  24.509   4.141  0.0562 -0.2603 -0.2894
  439PNGS   D4B 5532  30.727  24.584   3.760  0.1448  0.2278 -0.0860
  439PNGS   C5B 5533  30.267  24.491   3.784  0.2160 -0.0539 -0.0313
  439PNGS   C6B 5534  30.141  24.107   3.638  0.1465  0.0639  0.0564
  440PNGS    C1 5535  27.330  16.079   4.580 -0.3307  0.0013 -0.1042
  440PNGS    C2 5536  27.163  16.209   4.792 -0.1321  0.1789 -0.0552
  440PNGS    C3 5537  27.423  16.332   4.710  0.0389 -0.1642 -0.0398
  440PNGS   AM1 5538  27.191  16.388   4.182 -0.0199 -0.1704 -0.0115
  440PNGS   AM2 5539  27.439  16.358   4.077 -0.0866 -0.0699 -0.0381
  440PNGS   T1A 5540  26.932  16.401   4.088  0.1771 -0.0621 -0.0492
  440PNGS   C2A 5541  26.758  16.524   3.861 -0.4918  0.4498  0.1488
  440PNGS   C3A 5542  26.494  16.511   3.516 -0.4130  0.0048  0.1377
  440PNGS   C4A 5543  26.048  16.502   3.280 -0.5184 -0.5291 -0.3685
  440PNGS   C1B 5544  27.502  16.275   3.738 -0.2574 -0.1585  0.0797
  440PNGS   C2B 5545  27.482  16.054   3.438 -0.4654 -0.3380 -0.1799
  440PNGS   C3B 5546  27.460  15.797   3.181  0.0244  0.1031  0.0586
  440PNGS   D4B 5547  27.297  15.725   2.718 -0.0664 -0.3893 -0.1796
  440PNGS   C5B 5548  27.009  15.923   2.538 -0.0351 -0.1521  0.0141
  440PNGS   C6B 5549  26.876  16.470   2.455 -0.2758 -0.1434  0.1206
  441PNGS    C1 5550  17.680  16.982  18.047  0.1781 -0.2716 -0.1497
  441PNGS    C2 5551  17.676  16.869  18.325  0.0212 -0.1221 -0.0902
  441PNGS    C3 5552  17.418  16.940  18.188  0.1178  0.1521 -0.1312
  441PNGS   AM1 5553  17.493  17.199  17.664 -0.2453  0.2827 -0.4070
  441PNGS   AM2 5554  17.669  17.393  17.725 -0.1950 -0.1416  0.0433
  441PNGS   T1A 5555  17.330  17.250  17.406 -0.0745  0.1306  0.0985
  441PNGS   C2A 5556  17.130  17.211  17.049  0.1858  0.1854  0.0574
  441PNGS   C3A 5557  16.915  17.108  16.649  0.1431  0.1292  0.1096
  441PNGS   C4A 5558  16.979  16.782  16.330  0.1763 -0.2335  0.0739
  441PNGS   C1B 5559  17.620  17.749  17.610 -0.2145  0.1335  0.0743
  441PNGS   C2B 5560  17.317  18.050  17.395 -0.0452  0.2541 -0.1011
  441PNGS   C3B 5561  17.058  17.988  17.092 -0.3417 -0.1188 -0.1045
  441PNGS   D4B 5562  16.677  18.048  16.877 -0.1469  0.0867 -0.1114
  441PNGS   C5B 5563  16.466  18.002  16.473  0.3375 -0.2046 -0.0569
  441PNGS   C6B 5564  16.083  18.120  16.284  0.2094 -0.0679 -0.0158
  442PNGS    C1 5565   2.110  17.392  10.383 -0.0822  0.2428 -0.0633
  442PNGS    C2 5566   2.186  17.312  10.662  0.0663 -0.1042 -0.2016
  442PNGS    C3 5567   2.168  17.602  10.590  0.4202 -0.0120  0.0641
  442PNGS   AM1 5568   2.577  17.431  10.240 -0.1014 -0.4233 -0.0653
  442PNGS   AM2 5569   2.514  17.181  10.267  0.0681  0.0727  0.2281
  442PNGS   T1A 5570   2.808  17.547  10.103 -0.2928 -0.0595 -0.3066
  442PNGS   C2A 5571   3.193  17.415   9.805  0.0269 -0.0211 -0.1755
  442PNGS   C3A 5572   3.390  17.297   9.438 -0.2127 -0.1993  0.0674
  442PNGS   C4A 5573   3.622  17.679   9.207  0.1539 -0.1845  0.1750
  442PNGS   C1B 5574   2.698  16.879  10.204 -0.2916 -0.0522 -0.3893
  442PNGS   C2B 5575   3.034  17.026  10.117  0.1263 -0.0578 -0.0719
  442PNGS   C3B 5576   3.320  16.936   9.976  0.2747 -0.0559  0.1421
  442PNGS   D4B 5577   3.668  16.842   9.656  0.1970  0.0868  0.1427
  442PNGS   C5B 5578   3.662  16.457   9.310 -0.0993  0.2078 -0.1941
  442PNGS   C6B 5579   3.723  16.130   8.963 -0.0518  0.0324  0.3237
  443PNGS    C1 5580   2.851  18.930  11.512  0.0184  0.1475  0.0445
  443PNGS    C2 5581   2.629  19.131  11.536 -0.0215  0.1325 -0.1880
  443PNGS    C3 5582   2.894  19.212  11.421  0.0914  0.1470  0.0777
  443PNGS   AM1 5583   3.267  18.803  11.309 -0.2739  0.0990  0.0739
  443PNGS   AM2 5584   3.404  19.004  11.432  0.0176 -0.1621  0.0949
  443PNGS   T1A 5585   3.389  18.687  11.090 -0.2700  0.1314  0.0644
  443PNGS   C2A 5586   3.740  18.734  10.961  0.2314  0.4885 -0.2060
  443PNGS   C3A 5587   4.096  18.726  10.796  0.0533 -0.1890  0.3523
  443PNGS   C4A 5588   4.540  18.734  10.788  0.3207 -0.0306  0.3136
  443PNGS   C1B 5589   3.740  19.088  11.434 -0.2861 -0.1036  0.1441
  443PNGS   C2B 5590   4.096  19.150  11.285 -0.2817 -0.0888 -0.2408
  443PNGS   C3B 5591   4.585  19.136  11.146  0.3232 -0.1465 -0.1048
  443PNGS   D4B 5592   4.886  19.356  10.914  0.0050 -0.2517 -0.0464
  443PNGS   C5B 5593   4.973  18.996  10.719 -0.1793 -0.2130  0.0918
  443PNGS   C6B 5594   5.013  18.562  10.843  0.2755 -0.0680 -0.0138
  444PNGS    C1 5595   1.289  15.175   9.526 -0.0476  0.0903 -0.0243
  444PNGS    C2 5596   1.027  15.156   9.380  0.1345 -0.0998 -0.3313
  444PNGS    C3 5597   1.155  15.424   9.424 -0.1550  0.0034 -0.0969
  444PNGS   AM1 5598   1.714  15.385   9.509 -0.0902 -0.0420 -0.0127
  444PNGS   AM2 5599   1.775  15.637   9.588 -0.0758 -0.1127  0.1726
  444PNGS   T1A 5600   1.877  15.284   9.286 -0.0637  0.1362 -0.0480
  444PNGS   C2A 5601   2.357  15.262   9.111 -0.1625  0.0602 -0.0781
  444PNGS   C3A 5602   2.756  15.508   9.026 -0.0943 -0.0920  0.0394
  444PNGS   C4A 5603   3.165  15.810   8.882  0.0494  0.1459 -0.0735
  444PNGS   C1B 5604   1.976  15.858   9.396  0.1823  0.1229  0.0992
  444PNGS   C2B 5605   2.340  15.777   9.195  0.0427 -0.2971 -0.2684
  444PNGS   C3B 5606   2.710  15.917   8.772  0.0246  0.1076  0.2139
  444PNGS   D4B 5607   2.987  16.234   8.819  0.0034  0.1954 -0.1599
  444PNGS   C5B 5608   2.630  16.490   8.760  0.0372  0.1208  0.1791
  444PNGS   C6B 5609   2.631  16.783   8.734  0.1026  0.0523 -0.1235
  445PNGS    C1 5610   4.981  15.150  16.115  0.1108 -0.1198 -0.2315
  445PNGS    C2 5611   4.772  15.001  15.959 -0.1669 -0.0438  0.0631
  445PNGS    C3 5612   4.693  15.234  16.131  0.1888  0.1027  0.0319
  445PNGS   AM1 5613   4.967  15.300  15.638 -0.0684 -0.5202 -0.0204
  445PNGS   AM2 5614   5.013  15.516  15.799 -0.0422 -0.0758 -0.1707
  445PNGS   T1A 5615   5.062  15.184  15.396  0.1382 -0.2149 -0.0662
  445PNGS   C2A 5616   5.088  15.146  14.923 -0.1357 -0.3334  0.0281
  445PNGS   C3A 5617   5.427  15.101  14.678 -0.1450  0.1740  0.2619
  445PNGS   C4A 5618   5.753  15.135  14.407  0.0673  0.1095  0.1219
  445PNGS   C1B 5619   5.227  15.802  15.675 -0.1307 -0.0264 -0.0783
  445PNGS   C2B 5620   5.405  16.104  15.508  0.1876  0.0978 -0.0095
  445PNGS   C3B 5621   5.424  16.471  15.181 -0.0118  0.1352 -0.0866
  445PNGS   D4B 5622   5.647  16.496  14.856  0.3007 -0.0248  0.1363
  445PNGS   C5B 5623   5.921  16.566  14.921 -0.1957  0.1036 -0.0224
  445PNGS   C6B 5624   6.270  16.798  14.819  0.0559  0.1970  0.0167
  446PNGS    C1 5625   0.345  18.811   7.774 -0.3385 -0.2566  0.0238
  446PNGS    C2 5626   0.275  18.746   8.059  0.1384 -0.5041  0.0888
  446PNGS    C3 5627   0.398  19.011   7.992 -0.0813 -0.4000  0.0954
  446PNGS   AM1 5628   0.685  19.011   7.470 -0.0831  0.5630 -0.3314
  446PNGS   AM2 5629   0.780  18.760   7.494 -0.1102 -0.0230  0.1107
  446PNGS   T1A 5630   0.743  19.192   7.261 -0.0164 -0.0967 -0.4611
  446PNGS   C2A 5631   0.958  19.278   6.806 -0.0480  0.0585 -0.3197
  446PNGS   C3A 5632   1.208  19.395   6.585  0.0625 -0.0113  0.2663
  446PNGS   C4A 5633   1.444  19.255   6.212 -0.0576  0.0057  0.0784
  446PNGS   C1B 5634   1.015  18.572   7.285  0.0283 -0.0943  0.2545
  446PNGS   C2B 5635   1.484  18.533   6.996  0.5332 -0.0962  0.0016
  446PNGS   C3B 5636   1.739  18.195   6.884  0.1177  0.1736  0.2436
  446PNGS   D4B 5637   2.020  17.856   6.887 -0.2553  0.1269  0.0241
  446PNGS   C5B 5638   2.412  17.607   6.670 -0.0752  0.1547  0.1459
  446PNGS   C6B 5639   2.766  17.334   6.458 -0.0823 -0.2991 -0.0892
  447PNGS    C1 5640  31.749  19.406   4.439 -0.0658 -0.0800  0.1711
  447PNGS    C2 5641  31.642  19.404   4.720 -0.2026  0.1265  0.1218
  447PNGS    C3 5642  31.454  19.383   4.487 -0.0798 -0.1671  0.0464
  447PNGS   AM1 5643  31.604  19.539   3.940 -0.0705 -0.0051 -0.0715
  447PNGS   AM2 5644  31.678  19.790   4.007  0.0131 -0.1803 -0.1606
  447PNGS   T1A 5645  31.583  19.433   3.688  0.0073  0.1594  0.0110
  447PNGS   C2A 5646  31.690  19.329   3.277 -0.2005  0.0314 -0.1521
  447PNGS   C3A 5647  31.842  19.199   2.821 -0.1233  0.1924 -0.1104
  447PNGS   C4A 5648  31.780  19.156   2.414  0.0819  0.1855 -0.2024
  447PNGS   C1B 5649  31.856  19.990   3.739  0.1814 -0.1463  0.2699
  447PNGS   C2B 5650  31.995  20.124   3.359 -0.1647 -0.1983  0.0290
  447PNGS   C3B 5651  32.142  20.225   2.918  0.3286  0.2075 -0.2079
  447PNGS   D4B 5652  31.920  20.027   2.629 -0.3888  0.1783  0.1466
  447PNGS   C5B 5653  31.776  19.874   2.268 -0.0235  0.0993 -0.0258
  447PNGS   C6B 5654  31.525  19.559   2.199 -0.2133 -0.1777 -0.1332
  448PNGS    C1 5655  33.405  20.180   5.570 -0.5157  0.0734 -0.1081
  448PNGS    C2 5656  33.449  20.038   5.310  0.1182  0.0348  0.0127
  448PNGS    C3 5657  33.624  19.977   5.546 -0.2083  0.3426  0.3411
  448PNGS   AM1 5658  33.682  20.552   5.482  0.0803  0.3020 -0.2927
  448PNGS   AM2 5659  33.503  20.609   5.281  0.1991  0.2961  0.1120
  448PNGS   T1A 5660  33.955  20.669   5.442  0.2425 -0.0399  0.3201
  448PNGS   C2A 5661  34.179  20.953   5.247 -0.1112  0.1604 -0.1382
  448PNGS   C3A 5662  34.517  21.108   5.345  0.0494 -0.0726  0.0101
  448PNGS   C4A 5663  34.902  21.217   5.102  0.2625 -0.1654 -0.2845
  448PNGS   C1B 5664  33.646  20.746   4.982  0.2207  0.1158 -0.2123
  448PNGS   C2B 5665  34.082  20.839   4.809  0.0507  0.1337  0.2697
  448PNGS   C3B 5666  34.536  20.910   4.863 -0.0667  0.2248  0.1453
  448PNGS   D4B 5667  34.852  20.864   4.692 -0.1412  0.1280 -0.1923
  448PNGS   C5B 5668  34.913  20.861   4.237  0.0039 -0.1619 -0.0017
  448PNGS   C6B 5669  34.800  20.890   3.732  0.3041 -0.2228 -0.2541
  449PNGS    C1 5670  32.700  22.606   5.152  0.0210 -0.2466  0.1306
  449PNGS    C2 5671  32.782  22.555   5.436  0.0102 -0.1569  0.1504
  449PNGS    C3 5672  32.535  22.425   5.326 -0.1468  0.0380  0.2709
  449PNGS   AM1 5673  32.721  22.198   4.840 -0.2929 -0.2278 -0.3765
  449PNGS   AM2 5674  32.506  22.331   4.745  0.1275  0.2356  0.0451
  449PNGS   T1A 5675  32.954  22.252   4.642 -0.2833 -0.0247  0.0206
  449PNGS   C2A 5676  33.195  22.378   4.431  0.1119  0.0528 -0.0806
  449PNGS   C3A 5677  33.275  22.537   4.042 -0.3003 -0.1600  0.2381
  449PNGS   C4A 5678  33.142  22.821   3.683  0.1836  0.0302 -0.3080
  449PNGS   C1B 5679  32.548  22.518   4.427  0.4979 -0.0102 -0.3058
  449PNGS   C2B 5680  32.829  22.775   4.105 -0.1440 -0.0029  0.0541
  449PNGS   C3B 5681  32.699  23.075   3.902  0.0387  0.0506 -0.1241
  449PNGS   D4B 5682  32.594  23.427   3.696 -0.0718  0.2026  0.1774
  449PNGS   C5B 5683  32.615  23.578   3.310 -0.0817 -0.0481  0.2011
  449PNGS   C6B 5684  32.352  23.559   2.948 -0.0700  0.1883  0.1665
  450PNGS    C1 5685  30.992  21.788   4.349  0.0940  0.0929  0.1907
  450PNGS    C2 5686  30.700  21.742   4.402  0.0552  0.1338  0.0159
  450PNGS    C3 5687  30.792  21.820   4.127  0.2695 -0.2269 -0.0182
  450PNGS   AM1 5688  31.327  21.744   3.993 -0.0421  0.0733 -0.1365
  450PNGS   AM2 5689  31.313  22.029   3.982 -0.0560  0.1333  0.1679
  450PNGS   T1A 5690  31.469  21.618   3.783 -0.4819  0.2395 -0.0090
  450PNGS   C2A 5691  31.660  21.806   3.457  0.1837 -0.2384 -0.2314
  450PNGS   C3A 5692  31.791  21.830   3.108  0.0255 -0.1604 -0.1254
  450PNGS   C4A 5693  31.966  21.967   2.686 -0.0931 -0.1727 -0.0658
  450PNGS   C1B 5694  31.484  22.244   3.709 -0.0361  0.1365 -0.0379
  450PNGS   C2B 5695  31.533  22.267   3.320 -0.0170 -0.1276  0.1113
  450PNGS   C3B 5696  31.554  22.174   2.816 -0.0642  0.1896 -0.1629
  450PNGS   D4B 5697  31.388  22.292   2.519  0.4267  0.0867 -0.2252
  450PNGS   C5B 5698  31.344  22.662   2.323 -0.0339 -0.0383 -0.4251
  450PNGS   C6B 5699  31.433  23.141   2.258 -0.1025  0.0761 -0.0077
  451PNGS    C1 5700  31.511  33.580  11.869  0.1820 -0.0782 -0.2086
  451PNGS    C2 5701  31.372  33.336  11.765 -0.0603 -0.0230 -0.0157
  451PNGS    C3 5702  31.252  33.607  11.720  0.2511  0.0695 -0.3026
  451PNGS   AM1 5703  31.745  33.594  11.436 -0.0327 -0.1217 -0.0242
  451PNGS   AM2 5704  31.608  33.839  11.355  0.1503  0.1602 -0.1332
  451PNGS   T1A 5705  31.905  33.449  11.254  0.2711 -0.1525  0.0766
  451PNGS   C2A 5706  32.037  33.481  10.863 -0.0210 -0.3150  0.1527
  451PNGS   C3A 5707  32.274  33.538  10.506 -0.0519 -0.1372  0.1654
  451PNGS   C4A 5708  32.502  33.310  10.185  0.0670 -0.2413  0.0722
  451PNGS   C1B 5709  31.555  33.921  11.011  0.0740 -0.0066 -0.2808
  451PNGS   C2B 5710  31.773  33.869  10.642 -0.0397 -0.0840  0.0310
  451PNGS   C3B 5711  31.906  33.731  10.240 -0.1986 -0.1762 -0.1678
  451PNGS   D4B 5712  32.142  33.543   9.847 -0.2439 -0.3511  0.1103
  451PNGS   C5B 5713  32.069  33.189   9.699  0.1853  0.2403  0.0493
  451PNGS   C6B 5714  32.227  32.777   9.802  0.3322 -0.1235  0.2230
  452PNGS    C1 5715  26.748  15.307   4.891  0.1321 -0.0186  0.1418
  452PNGS    C2 5716  26.901  15.561   4.850 -0.0020  0.0475  0.0469
  452PNGS    C3 5717  26.655  15.561   5.021 -0.0374 -0.0053 -0.0042
  452PNGS   AM1 5718  26.457  15.454   4.499 -0.0481 -0.3846  0.0140
  452PNGS   AM2 5719  26.684  15.505   4.367 -0.0332  0.1247  0.0570
  452PNGS   T1A 5720  26.184  15.351   4.439 -0.0344  0.0098  0.0798
  452PNGS   C2A 5721  25.876  15.346   4.063 -0.2447 -0.1109 -0.0635
  452PNGS   C3A 5722  25.729  15.351   3.712  0.1863  0.1170  0.1057
  452PNGS   C4A 5723  25.397  15.116   3.578  0.2564 -0.2940 -0.3151
  452PNGS   C1B 5724  26.750  15.573   4.009  0.1120  0.0983  0.0675
  452PNGS   C2B 5725  26.588  15.615   3.584 -0.0158  0.3646 -0.0740
  452PNGS   C3B 5726  26.446  15.610   3.243 -0.4647  0.1666 -0.5434
  452PNGS   D4B 5727  26.279  15.809   2.920 -0.0219 -0.3765 -0.0856
  452PNGS   C5B 5728  26.246  15.614   2.559 -0.0191  0.2008  0.0283
  452PNGS   C6B 5729  26.383  15.337   2.265 -0.2118 -0.0962 -0.2102
  453PNGS    C1 5730  32.462  13.403   5.466 -0.0875 -0.2632  0.4902
  453PNGS    C2 5731  32.245  13.529   5.631 -0.0666  0.2681  0.1239
  453PNGS    C3 5732  32.465  13.699   5.518  0.1740 -0.1625 -0.0645
  453PNGS   AM1 5733  32.593  13.556   4.985 -0.0288 -0.2026 -0.0403
  453PNGS   AM2 5734  32.826  13.519   5.128  0.0605 -0.0061  0.1218
  453PNGS   T1A 5735  32.486  13.614   4.717 -0.0321  0.0745  0.0766
  453PNGS   C2A 5736  32.514  13.644   4.188 -0.0718 -0.0361 -0.1948
  453PNGS   C3A 5737  32.570  13.735   3.776  0.2296 -0.0812  0.1832
  453PNGS   C4A 5738  32.459  13.820   3.294  0.1409  0.1253  0.1813
  453PNGS   C1B 5739  33.151  13.391   4.978 -0.1252 -0.3114 -0.0798
  453PNGS   C2B 5740  33.344  13.259   4.653 -0.1332  0.1691  0.0620
  453PNGS   C3B 5741  33.675  13.057   4.405 -0.1348 -0.2450 -0.0482
  453PNGS   D4B 5742  33.553  12.754   4.105 -0.0309  0.0320 -0.1040
  453PNGS   C5B 5743  33.315  12.814   3.789  0.0196 -0.3423 -0.0523
  453PNGS   C6B 5744  33.339  12.855   3.276 -0.4288  0.0794 -0.0273
  454PNGS    C1 5745  33.732  33.529  12.715 -0.1044 -0.0050 -0.0739
  454PNGS    C2 5746  33.459  33.507  12.592 -0.1294  0.0207 -0.0224
  454PNGS    C3 5747  33.615  33.762  12.567 -0.1359  0.0269  0.0023
  454PNGS   AM1 5748  33.729  33.360  12.186  0.5580  0.2359  0.0818
  454PNGS   AM2 5749  33.968  33.361  12.323 -0.0841  0.5076 -0.1288
  454PNGS   T1A 5750  33.722  33.408  11.886 -0.2249  0.0398 -0.2593
  454PNGS   C2A 5751  33.879  33.507  11.491 -0.1078 -0.0437 -0.0362
  454PNGS   C3A 5752  33.970  33.585  11.123 -0.1187  0.0112 -0.1791
  454PNGS   C4A 5753  34.338  33.639  11.040 -0.0821  0.0077  0.0422
  454PNGS   C1B 5754  34.252  33.186  12.150  0.1483  0.1835 -0.1312
  454PNGS   C2B 5755  34.367  32.783  11.953  0.0589  0.1603  0.1907
  454PNGS   C3B 5756  34.555  32.652  11.582 -0.5071 -0.0693 -0.0324
  454PNGS   D4B 5757  34.569  32.250  11.254 -0.0057 -0.3993 -0.4243
  454PNGS   C5B 5758  34.763  31.910  11.253 -0.2524 -0.1083 -0.3049
  454PNGS   C6B 5759  34.824  31.595  11.009 -0.0513  0.0207 -0.0362
  455PNGS    C1 5760   3.490  19.608  13.456 -0.0670  0.2021 -0.2550
  455PNGS    C2 5761   3.628  19.417  13.270 -0.0411 -0.1279  0.0972
  455PNGS    C3 5762   3.457  19.312  13.493 -0.0884  0.2641  0.2489
  455PNGS   AM1 5763   3.792  19.599  13.848  0.1560 -0.2459  0.1984
  455PNGS   AM2 5764   3.972  19.525  13.645 -0.1889 -0.0752 -0.2467
  455PNGS   T1A 5765   3.847  19.711  14.102  0.0627  0.1170  0.2062
  455PNGS   C2A 5766   4.002  20.005  14.272  0.1894 -0.0055  0.0400
  455PNGS   C3A 5767   4.153  20.140  14.622  0.1092 -0.0439 -0.1751
  455PNGS   C4A 5768   4.201  20.227  14.956 -0.0271  0.0863 -0.2495
  455PNGS   C1B 5769   4.280  19.357  13.711 -0.0156 -0.0549 -0.4093
  455PNGS   C2B 5770   4.689  19.360  13.602 -0.3662  0.1571 -0.0146
  455PNGS   C3B 5771   5.117  19.576  13.789 -0.3875  0.0471  0.0283
  455PNGS   D4B 5772   5.298  19.713  14.204 -0.0317 -0.1150  0.2858
  455PNGS   C5B 5773   5.580  19.856  14.480 -0.0128  0.2654 -0.1947
  455PNGS   C6B 5774   5.776  20.162  14.657  0.2751 -0.2497 -0.3066
  456DPG1   GM1 5775  31.287  22.035   4.648 -0.1036  0.2101 -0.1085
  456DPG1   GM2 5776  31.121  22.012   4.984  0.0190  0.0133 -0.0603
  456DPG1   GM3 5777  31.478  22.047   4.917  0.0166  0.0405 -0.1856
  456DPG1   GM4 5778  31.469  22.017   5.266  0.2934 -0.2244 -0.2227
  456DPG1   GM5 5779  31.742  22.191   5.037 -0.0189  0.1833 -0.2916
  456DPG1   GM6 5780  31.704  22.112   5.342  0.1330 -0.0839  0.1066
  456DPG1   GM7 5781  31.870  21.890   5.515 -0.2635 -0.0825 -0.2434
  456DPG1   GM8 5782  32.140  22.150   5.154  0.2253 -0.6134 -0.2668
  456DPG1   GM9 5783  32.161  21.888   5.369 -0.1272 -0.1462 -0.0731
  456DPG1  GM10 5784  32.195  21.702   5.680  0.1512 -0.0440 -0.0412
  456DPG1  GM11 5785  32.348  22.062   5.628 -0.0713  0.0582  0.0049
  456DPG1  GM12 5786  32.435  21.815   5.717  0.0807  0.0809  0.0377
  456DPG1  GM13 5787  31.698  22.185   5.696  0.0692 -0.0066 -0.0078
  456DPG1  GM14 5788  31.497  22.466   5.637 -0.0210 -0.0908 -0.1025
  456DPG1  GM15 5789  31.818  22.459   5.459  0.0912  0.0711  0.0925
  456DPG1  GM16 5790  31.660  22.741   5.532  0.1234 -0.0302 -0.2768
  456DPG1  GM17 5791  32.075  22.458   5.521  0.0279 -0.1495  0.1155
  456DPG1   AM1 5792  31.075  22.360   4.336  0.0405  0.1544  0.3813
  456DPG1   AM2 5793  31.456  22.371   4.295  0.1210 -0.0056  0.1483
  456DPG1   T1A 5794  30.932  22.273   3.862 -0.0429  0.1987  0.0466
  456DPG1   C2A 5795  30.995  22.428   3.376  0.2195  0.1702 -0.0155
  456DPG1   C3A 5796  31.149  22.489   2.985  0.1958 -0.1814 -0.2402
  456DPG1   C1B 5797  31.695  22.547   4.061  0.3630  0.1686  0.0843
  456DPG1   C2B 5798  31.874  22.644   3.628 -0.1226  0.2172 -0.0788
  456DPG1   C3B 5799  32.066  22.856   3.260 -0.1685 -0.2372 -0.1708
  456DPG1   C4B 5800  32.088  22.963   2.752 -0.0242 -0.1968 -0.0212
  457DPG1   GM1 5801  21.942  18.343  14.281 -0.0490  0.1432 -0.2471
  457DPG1   GM2 5802  21.642  18.435  14.487 -0.0375 -0.1453 -0.0979
  457DPG1   GM3 5803  21.817  18.198  14.550  0.2571 -0.1404 -0.2546
  457DPG1   GM4 5804  21.563  18.203  14.787 -0.2998 -0.1587 -0.2985
  457DPG1   GM5 5805  21.906  18.005  14.801 -0.3246 -0.1791  0.0983
  457DPG1   GM6 5806  21.634  18.019  14.964 -0.2711  0.0865 -0.0519
  457DPG1   GM7 5807  21.420  17.775  14.990  0.1272  0.1523 -0.0710
  457DPG1   GM8 5808  21.929  17.680  15.047  0.1035 -0.0890 -0.2590
  457DPG1   GM9 5809  21.632  17.525  15.085 -0.1843  0.0672  0.0170
  457DPG1  GM10 5810  21.320  17.541  15.272 -0.2266 -0.1777 -0.0306
  457DPG1  GM11 5811  21.637  17.647  15.483 -0.1333  0.2427 -0.3732
  457DPG1  GM12 5812  21.437  17.427  15.484 -0.2639 -0.0036  0.0851
  457DPG1  GM13 5813  21.454  18.067  15.271 -0.0290  0.2934 -0.0693
  457DPG1  GM14 5814  21.486  18.415  15.263  0.2648  0.2677 -0.0834
  457DPG1  GM15 5815  21.799  18.227  15.300  0.0973  0.0082  0.0322
  457DPG1  GM16 5816  21.721  18.601  15.407 -0.1460  0.1958  0.0319
  457DPG1  GM17 5817  21.944  18.060  15.436  0.1395 -0.0514  0.1558
  457DPG1   AM1 5818  21.870  18.347  13.808  0.1747 -0.2066  0.3273
  457DPG1   AM2 5819  21.499  18.259  13.897  0.0202 -0.0855 -0.0231
  457DPG1   T1A 5820  21.711  18.309  13.350 -0.1904 -0.2117 -0.1322
  457DPG1   C2A 5821  21.358  18.298  13.205  0.0023 -0.0031 -0.2608
  457DPG1   C3A 5822  21.105  18.338  12.993 -0.4097  0.0897 -0.0669
  457DPG1   C1B 5823  21.197  18.355  13.730  0.2583  0.4087 -0.2134
  457DPG1   C2B 5824  20.920  18.306  13.468 -0.3256  0.1589  0.1184
  457DPG1   C3B 5825  20.481  18.419  13.439 -0.3633  0.0152  0.2111
  457DPG1   C4B 5826  20.025  18.649  13.313 -0.3230  0.2037  0.0674
  458DPG1   GM1 5827  28.742  21.134   3.712 -0.0652 -0.0027 -0.0283
  458DPG1   GM2 5828  28.658  21.134   4.078  0.0753  0.0679  0.0043
  458DPG1   GM3 5829  28.882  20.951   3.948 -0.1527 -0.1794 -0.1125
  458DPG1   GM4 5830  28.881  20.816   4.266 -0.0209 -0.0652 -0.1192
  458DPG1   GM5 5831  29.188  20.763   4.021  0.0342  0.2669 -0.1235
  458DPG1   GM6 5832  29.100  20.668   4.289  0.1571  0.1802 -0.2203
  458DPG1   GM7 5833  29.047  20.366   4.430 -0.1670 -0.0759  0.0522
  458DPG1   GM8 5834  29.452  20.386   4.102 -0.1334 -0.2582  0.0817
  458DPG1   GM9 5835  29.270  20.195   4.262  0.0283 -0.0473  0.0207
  458DPG1  GM10 5836  29.232  19.999   4.566  0.1318  0.0477  0.0951
  458DPG1  GM11 5837  29.581  19.955   4.388  0.0072 -0.1652 -0.0992
  458DPG1  GM12 5838  29.382  19.796   4.478 -0.0025 -0.0349  0.0555
  458DPG1  GM13 5839  29.161  20.627   4.637  0.0258 -0.0716  0.3080
  458DPG1  GM14 5840  29.142  20.977   4.625 -0.1219 -0.0808  0.2371
  458DPG1  GM15 5841  29.410  20.824   4.426  0.0434  0.0002  0.3948
  458DPG1  GM16 5842  29.425  21.172   4.584 -0.3825 -0.2018 -0.3302
  458DPG1  GM17 5843  29.619  20.672   4.460  0.2181 -0.0836 -0.1882
  458DPG1   AM1 5844  28.334  20.995   3.530  0.0107 -0.1392 -0.1732
  458DPG1   AM2 5845  28.155  21.164   3.781 -0.1644  0.0100 -0.1477
  458DPG1   T1A 5846  27.976  21.145   3.281  0.2124  0.1348  0.0799
  458DPG1   C2A 5847  27.853  20.987   3.025 -0.0515  0.2700 -0.0116
  458DPG1   C3A 5848  27.618  21.137   2.763 -0.1707 -0.2682  0.0539
  458DPG1   C1B 5849  27.890  21.414   3.711 -0.1108 -0.0507  0.0040
  458DPG1   C2B 5850  27.709  21.611   3.454  0.0585 -0.2475  0.2705
  458DPG1   C3B 5851  27.495  21.902   3.179  0.0298  0.1935  0.0859
  458DPG1   C4B 5852  27.277  22.317   2.885  0.1196 -0.1886  0.2028
  459DPG1   GM1 5853  25.161  25.186   8.222  0.0898  0.1636 -0.1882
  459DPG1   GM2 5854  25.494  25.297   8.354  0.1197  0.1047 -0.2142
  459DPG1   GM3 5855  25.420  25.005   8.319 -0.1649 -0.1173 -0.0232
  459DPG1   GM4 5856  25.729  24.945   8.466 -0.1667 -0.0941  0.0597
  459DPG1   GM5 5857  25.544  24.722   8.196 -0.3500  0.0169  0.0928
  459DPG1   GM6 5858  25.770  24.696   8.383 -0.1935 -0.0695 -0.0282
  459DPG1   GM7 5859  25.753  24.449   8.611 -0.4632  0.0975  0.2054
  459DPG1   GM8 5860  25.567  24.348   8.135  0.0120  0.2349 -0.0127
  459DPG1   GM9 5861  25.614  24.219   8.413 -0.1806  0.0373  0.0860
  459DPG1  GM10 5862  25.767  24.116   8.727 -0.1548  0.0115  0.0653
  459DPG1  GM11 5863  25.837  23.978   8.364  0.2058 -0.0685  0.1633
  459DPG1  GM12 5864  25.775  23.872   8.616 -0.2740  0.0241  0.0277
  459DPG1  GM13 5865  26.094  24.576   8.476  0.0012  0.2092  0.1343
  459DPG1  GM14 5866  26.209  24.887   8.364  0.1209  0.0571 -0.1716
  459DPG1  GM15 5867  26.076  24.664   8.105 -0.2207 -0.0398  0.0848
  459DPG1  GM16 5868  26.346  24.839   8.088  0.4211 -0.0243  0.2602
  459DPG1  GM17 5869  26.067  24.397   8.001 -0.1733 -0.0156 -0.2061
  459DPG1   AM1 5870  25.085  25.633   8.181  0.0744  0.0370 -0.0861
  459DPG1   AM2 5871  25.239  25.517   7.878 -0.1093  0.1871 -0.0191
  459DPG1   T1A 5872  24.796  25.959   8.008  0.3089  0.0263  0.2869
  459DPG1   C2A 5873  24.457  26.096   7.821 -0.1983  0.0265  0.0641
  459DPG1   C3A 5874  24.201  26.241   7.466  0.2010  0.0961  0.1741
  459DPG1   C1B 5875  25.116  25.523   7.548  0.1853  0.0839 -0.2350
  459DPG1   C2B 5876  24.795  25.664   7.269  0.2690  0.0328  0.1977
  459DPG1   C3B 5877  24.420  25.950   6.967  0.2970  0.0638 -0.0843
  459DPG1   C4B 5878  24.099  26.105   6.600 -0.0995  0.0676  0.0602
  460DPG1   GM1 5879  33.462  21.013   5.646 -0.2292 -0.0852 -0.2314
  460DPG1   GM2 5880  33.406  21.157   5.304 -0.1025  0.1379 -0.1593
  460DPG1   GM3 5881  33.186  20.993   5.466 -0.1215  0.0086 -0.4084
  460DPG1   GM4 5882  33.017  21.144   5.222 -0.1369 -0.2660 -0.3446
  460DPG1   GM5 5883  32.800  21.015   5.528  0.0343  0.0423 -0.0898
  460DPG1   GM6 5884  32.752  21.127   5.227 -0.1430 -0.1250 -0.0787
  460DPG1   GM7 5885  32.608  20.987   4.989 -0.0402  0.3871  0.0060
  460DPG1   GM8 5886  32.413  20.847   5.452 -0.1111 -0.0325 -0.1480
  460DPG1   GM9 5887  32.383  20.786   5.154  0.4422  0.0453 -0.1764
  460DPG1  GM10 5888  32.271  20.858   4.815  0.0199  0.0353 -0.0425
  460DPG1  GM11 5889  32.048  20.961   5.124  0.0686  0.4152 -0.1314
  460DPG1  GM12 5890  32.011  20.829   4.871 -0.0625 -0.0819 -0.4717
  460DPG1  GM13 5891  32.686  21.364   4.935 -0.1234 -0.1154  0.2328
  460DPG1  GM14 5892  32.917  21.573   5.095 -0.2410  0.1695  0.0325
  460DPG1  GM15 5893  32.599  21.521   5.271 -0.1666  0.0671  0.1366
  460DPG1  GM16 5894  32.750  21.850   5.243  0.2153 -0.4300 -0.2249
  460DPG1  GM17 5895  32.359  21.413   5.311  0.3369  0.1368  0.0898
  460DPG1   AM1 5896  33.869  21.163   5.526  0.1744  0.1112  0.1629
  460DPG1   AM2 5897  34.057  20.987   5.814  0.0078  0.1042 -0.1976
  460DPG1   T1A 5898  34.243  21.472   5.544  0.0676  0.0923 -0.3416
  460DPG1   C2A 5899  34.545  21.678   5.267 -0.0308  0.0582 -0.0775
  460DPG1   C3A 5900  34.877  21.697   4.930 -0.0726  0.4044 -0.5285
  460DPG1   C1B 5901  34.398  20.839   5.741 -0.1373 -0.2445 -0.1550
  460DPG1   C2B 5902  34.768  20.813   5.591 -0.1026  0.1848  0.3651
  460DPG1   C3B 5903  35.158  20.864   5.356  0.3448 -0.0809  0.1156
  460DPG1   C4B 5904   0.074  21.167   5.283 -0.2595 -0.1717 -0.0438
  461DPG1   GM1 5905  34.042  13.082   6.238 -0.2181 -0.1156  0.1297
  461DPG1   GM2 5906  33.865  13.213   6.542  0.0485 -0.0938  0.2766
  461DPG1   GM3 5907  33.850  13.351   6.231  0.1949  0.1765 -0.2896
  461DPG1   GM4 5908  33.660  13.571   6.430  0.1087 -0.0367 -0.2479
  461DPG1   GM5 5909  33.608  13.536   6.038  0.0542 -0.0541 -0.2393
  461DPG1   GM6 5910  33.494  13.716   6.282 -0.0581  0.2965  0.2530
  461DPG1   GM7 5911  33.474  14.031   6.297  0.1075 -0.0953  0.1315
  461DPG1   GM8 5912  33.447  13.835   5.815 -0.1219 -0.1970  0.1850
  461DPG1   GM9 5913  33.462  14.133   5.970 -0.0522 -0.1199 -0.0269
  461DPG1  GM10 5914  33.291  14.341   6.215  0.0442 -0.1075  0.0303
  461DPG1  GM11 5915  33.094  14.262   5.882  0.0717 -0.2540  0.0488
  461DPG1  GM12 5916  33.236  14.522   6.025  0.3016  0.2157  0.2584
  461DPG1  GM13 5917  33.262  13.811   6.537  0.1527 -0.1333 -0.0057
  461DPG1  GM14 5918  33.198  13.469   6.577 -0.1097 -0.0809  0.0313
  461DPG1  GM15 5919  33.097  13.615   6.255 -0.1610 -0.0004  0.0838
  461DPG1  GM16 5920  32.941  13.387   6.379 -0.1506  0.4174 -0.1438
  461DPG1  GM17 5921  33.051  13.828   6.094  0.0596  0.0377 -0.2797
  461DPG1   AM1 5922  34.367  12.832   6.439 -0.1233  0.1956 -0.2326
  461DPG1   AM2 5923  34.172  12.574   6.336  0.1352  0.0274 -0.5077
  461DPG1   T1A 5924  34.709  12.648   6.155  0.1150  0.3090  0.1358
  461DPG1   C2A 5925  34.974  12.492   5.961 -0.4194 -0.0869  0.1089
  461DPG1   C3A 5926  35.375  12.585   5.613 -0.0491  0.1546  0.1643
  461DPG1   C1B 5927  34.234  12.330   6.055 -0.0294  0.0356 -0.0099
  461DPG1   C2B 5928  34.542  12.291   5.794 -0.1452  0.0550  0.1221
  461DPG1   C3B 5929  34.861  12.234   5.558 -0.1523  0.1490 -0.3049
  461DPG1   C4B 5930  35.274  12.046   5.751  0.0581 -0.1048  0.2106
  462DPG1   GM1 5931  30.920  24.295   6.061 -0.0976 -0.0086  0.2356
  462DPG1   GM2 5932  31.183  24.027   6.060 -0.0395  0.0487  0.0213
  462DPG1   GM3 5933  31.115  24.225   6.318  0.0179  0.1601  0.1949
  462DPG1   GM4 5934  31.412  24.080   6.436 -0.1288  0.0130 -0.3128
  462DPG1   GM5 5935  31.079  24.061   6.650  0.0214 -0.1025 -0.0873
  462DPG1   GM6 5936  31.381  24.026   6.694  0.2358  0.2349 -0.2181
  462DPG1   GM7 5937  31.508  24.222   6.890 -0.0849  0.0708  0.1993
  462DPG1   GM8 5938  31.058  23.991   7.016 -0.2013  0.0520 -0.2455
  462DPG1   GM9 5939  31.258  24.225   7.101 -0.0572 -0.1579  0.2831
  462DPG1  GM10 5940  31.538  24.375   7.279 -0.0539  0.1771 -0.0013
  462DPG1  GM11 5941  31.366  24.063   7.449  0.0729  0.2005  0.1709
  462DPG1  GM12 5942  31.393  24.355   7.504  0.2668  0.0432  0.1966
  462DPG1  GM13 5943  31.710  23.935   6.794 -0.0757  0.2079 -0.0523
  462DPG1  GM14 5944  31.670  23.700   6.538 -0.1052  0.2137 -0.0531
  462DPG1  GM15 5945  31.451  23.658   6.829  0.1694 -0.0002  0.1248
  462DPG1  GM16 5946  31.607  23.395   6.662  0.1727  0.0942 -0.0742
  462DPG1  GM17 5947  31.393  23.654   7.084 -0.1644 -0.1135 -0.1248
  462DPG1   AM1 5948  31.004  24.424   5.610 -0.1181 -0.0492 -0.2406
  462DPG1   AM2 5949  30.649  24.454   5.650  0.0435 -0.4676  0.1335
  462DPG1   T1A 5950  30.991  24.739   5.276 -0.1052  0.0185  0.0437
  462DPG1   C2A 5951  30.944  25.011   4.955  0.1782 -0.2919 -0.0785
  462DPG1   C3A 5952  30.641  25.280   4.796 -0.0595 -0.3182 -0.0485
  462DPG1   C1B 5953  30.418  24.651   5.437  0.0593  0.1538  0.0984
  462DPG1   C2B 5954  30.363  24.812   5.085 -0.2609  0.2313 -0.2022
  462DPG1   C3B 5955  30.363  24.890   4.759  0.3114 -0.1110  0.1170
  462DPG1   C4B 5956  30.262  25.160   4.413 -0.0221  0.0423  0.1322
  463DPG1   GM1 5957  29.266  24.761   6.024 -0.1383 -0.0167  0.1563
  463DPG1   GM2 5958  29.401  24.583   6.325 -0.0589 -0.1272  0.0557
  463DPG1   GM3 5959  29.132  24.763   6.326 -0.2260  0.3558  0.1181
  463DPG1   GM4 5960  29.090  24.583   6.624 -0.0838  0.0349  0.0287
  463DPG1   GM5 5961  28.869  24.545   6.297  0.1382  0.2469 -0.1483
  463DPG1   GM6 5962  28.869  24.442   6.591 -0.0355 -0.1045  0.2936
  463DPG1   GM7 5963  28.636  24.503   6.784  0.0341 -0.1797 -0.0213
  463DPG1   GM8 5964  28.523  24.442   6.279  0.0825  0.3787 -0.1034
  463DPG1   GM9 5965  28.386  24.534   6.576 -0.1046  0.2082  0.2391
  463DPG1  GM10 5966  28.262  24.426   6.901 -0.0960  0.0645  0.1951
  463DPG1  GM11 5967  28.022  24.368   6.594  0.1124 -0.0597  0.0545
  463DPG1  GM12 5968  28.019  24.518   6.835 -0.0881 -0.0058  0.0688
  463DPG1  GM13 5969  28.883  24.229   6.890 -0.2776 -0.0196 -0.1896
  463DPG1  GM14 5970  29.124  24.075   6.687 -0.0369  0.2638 -0.1230
  463DPG1  GM15 5971  28.778  24.060   6.565  0.0194 -0.1019 -0.2444
  463DPG1  GM16 5972  29.005  23.806   6.526  0.0623  0.0011 -0.1515
  463DPG1  GM17 5973  28.515  24.028   6.601 -0.0131 -0.2265 -0.1167
  463DPG1   AM1 5974  29.164  24.432   5.737 -0.1355  0.0973 -0.2704
  463DPG1   AM2 5975  29.527  24.391   5.798 -0.2163  0.0767  0.2900
  463DPG1   T1A 5976  29.084  24.415   5.315  0.2625 -0.1730 -0.0871
  463DPG1   C2A 5977  28.936  24.660   5.085  0.0797 -0.1535  0.1489
  463DPG1   C3A 5978  28.698  24.918   4.941 -0.1342 -0.3242  0.2685
  463DPG1   C1B 5979  29.839  24.579   5.723  0.0196  0.1640 -0.0701
  463DPG1   C2B 5980  30.124  24.774   5.801 -0.0340  0.0818  0.3379
  463DPG1   C3B 5981  30.184  25.078   5.491 -0.1000 -0.0103  0.2847
  463DPG1   C4B 5982  30.396  25.325   5.204 -0.0874 -0.0076 -0.2250
  464DPG1   GM1 5983   9.404   2.886  19.340  0.1882 -0.3393 -0.0327
  464DPG1   GM2 5984   9.740   2.987  19.208  0.0081 -0.0835 -0.3029
  464DPG1   GM3 5985   9.648   3.001  19.530  0.0250  0.0145 -0.0320
  464DPG1   GM4 5986   9.972   3.107  19.518  0.0877 -0.0837 -0.1265
  464DPG1   GM5 5987   9.824   2.824  19.753  0.0742 -0.0997 -0.1544
  464DPG1   GM6 5988  10.082   3.014  19.741 -0.0617 -0.2039 -0.1025
  464DPG1   GM7 5989  10.098   3.250  19.940 -0.0574 -0.1048  0.1333
  464DPG1   GM8 5990   9.953   2.803  20.166 -0.3388 -0.0536  0.0553
  464DPG1   GM9 5991  10.028   3.079  20.219 -0.1751  0.1822 -0.0701
  464DPG1  GM10 5992  10.241   3.374  20.221 -0.1778  0.1842  0.2385
  464DPG1  GM11 5993  10.370   3.052  20.410  0.0907  0.3018  0.2575
  464DPG1  GM12 5994  10.304   3.333  20.478  0.0062  0.1095  0.1818
  464DPG1  GM13 5995  10.420   3.175  19.756 -0.0883 -0.0513  0.0508
  464DPG1  GM14 5996  10.482   2.992  19.465 -0.2142 -0.0784  0.0407
  464DPG1  GM15 5997  10.420   2.795  19.768 -0.0874 -0.0502  0.0849
  464DPG1  GM16 5998  10.561   2.684  19.552 -0.2394 -0.1098 -0.2044
  464DPG1  GM17 5999  10.442   2.769  20.036 -0.2446  0.1541  0.0885
  464DPG1   AM1 6000   9.282   2.556  18.978 -0.0810 -0.0185 -0.3353
  464DPG1   AM2 6001   9.381   2.842  18.819 -0.1204 -0.4089  0.3026
  464DPG1   T1A 6002   9.082   2.474  18.581 -0.1194  0.1141  0.1895
  464DPG1   C2A 6003   9.357   2.516  18.207  0.0162 -0.1258 -0.0959
  464DPG1   C3A 6004   9.469   2.404  17.781  0.1001  0.3538  0.1565
  464DPG1   C1B 6005   9.332   2.978  18.468  0.0511 -0.1728  0.2732
  464DPG1   C2B 6006   9.517   3.289  18.171  0.1047  0.1594  0.0073
  464DPG1   C3B 6007   9.415   3.372  17.721  0.1646 -0.1148 -0.3342
  464DPG1   C4B 6008   9.507   3.474  17.367  0.1313 -0.2421  0.0931
  465DPG1   GM1 6009  21.455  13.165  14.991 -0.1530  0.4154  0.2802
  465DPG1   GM2 6010  21.522  13.295  14.646  0.0583 -0.2085  0.0784
  465DPG1   GM3 6011  21.723  13.341  14.911 -0.1058  0.0736 -0.3448
  465DPG1   GM4 6012  21.866  13.553  14.692 -0.0118 -0.0299  0.0357
  465DPG1   GM5 6013  21.984  13.511  15.067  0.2179  0.3019  0.0037
  465DPG1   GM6 6014  21.985  13.728  14.852  0.1666 -0.0700 -0.0520
  465DPG1   GM7 6015  21.829  13.997  14.848 -0.1313 -0.1374 -0.2784
  465DPG1   GM8 6016  22.027  13.843  15.305 -0.2339  0.0661 -0.1650
  465DPG1   GM9 6017  21.886  14.096  15.171  0.2149 -0.1048 -0.2286
  465DPG1  GM10 6018  21.854  14.413  14.995  0.1429  0.0182  0.0046
  465DPG1  GM11 6019  22.148  14.369  15.255  0.1543  0.1283  0.0107
  465DPG1  GM12 6020  21.930  14.571  15.198  0.0637 -0.0926  0.1210
  465DPG1  GM13 6021  22.105  13.948  14.603 -0.2307 -0.1175 -0.3490
  465DPG1  GM14 6022  22.326  13.697  14.500 -0.1062 -0.1565  0.0065
  465DPG1  GM15 6023  22.369  13.817  14.844 -0.2955  0.2113 -0.0953
  465DPG1  GM16 6024  22.614  13.725  14.641 -0.0419 -0.1775  0.0671
  465DPG1  GM17 6025  22.393  14.010  15.034 -0.2433  0.4995 -0.0353
  465DPG1   AM1 6026  21.073  12.945  14.856  0.1486  0.2033 -0.0275
  465DPG1   AM2 6027  20.951  13.267  14.767  0.2515 -0.4783 -0.0270
  465DPG1   T1A 6028  20.641  12.914  14.732 -0.1806  0.0050  0.2557
  465DPG1   C2A 6029  20.261  12.840  14.470  0.0121  0.1234 -0.0885
  465DPG1   C3A 6030  19.830  12.855  14.650  0.2113  0.0605  0.0445
  465DPG1   C1B 6031  20.674  13.358  14.522  0.1838  0.2123 -0.1902
  465DPG1   C2B 6032  20.344  13.386  14.231 -0.0191  0.1459 -0.1326
  465DPG1   C3B 6033  19.918  13.472  14.067  0.1795 -0.2463 -0.0442
  465DPG1   C4B 6034  19.614  13.348  13.828  0.0766  0.0281 -0.0827
  466DPG1   GM1 6035  31.820  24.863   6.970  0.3499  0.1097  0.1347
  466DPG1   GM2 6036  31.565  25.043   7.178  0.2378 -0.0416  0.1287
  466DPG1   GM3 6037  31.769  24.810   7.292  0.1858  0.0446  0.0980
  466DPG1   GM4 6038  31.524  24.837   7.551 -0.1044 -0.0516  0.0578
  466DPG1   GM5 6039  31.910  24.812   7.632 -0.0704  0.0358 -0.0742
  466DPG1   GM6 6040  31.648  24.802   7.782  0.0549 -0.1829 -0.0468
  466DPG1   GM7 6041  31.540  24.535   7.905 -0.2183 -0.1062  0.2421
  466DPG1   GM8 6042  32.044  24.613   8.010 -0.2309  0.2387  0.0550
  466DPG1   GM9 6043  31.791  24.465   8.091 -0.0243  0.0097 -0.0607
  466DPG1  GM10 6044  31.496  24.384   8.289 -0.0462  0.1374 -0.0409
  466DPG1  GM11 6045  31.783  24.623   8.418 -0.0146  0.0489  0.0536
  466DPG1  GM12 6046  31.656  24.378   8.504 -0.0321  0.2648 -0.0475
  466DPG1  GM13 6047  31.391  24.860   8.029  0.0333  0.1850  0.0334
  466DPG1  GM14 6048  31.311  25.186   7.929  0.2534  0.1499 -0.2634
  466DPG1  GM15 6049  31.654  25.135   8.051  0.2567  0.0043 -0.3324
  466DPG1  GM16 6050  31.423  25.388   8.123  0.2426  0.0519  0.1546
  466DPG1  GM17 6051  31.817  25.042   8.229 -0.0828 -0.0002 -0.1592
  466DPG1   AM1 6052  31.596  25.064   6.600  0.2988 -0.0815 -0.2299
  466DPG1   AM2 6053  31.857  25.287   6.594  0.4188 -0.1854 -0.2943
  466DPG1   T1A 6054  31.654  24.974   6.173 -0.0580 -0.0023 -0.1119
  466DPG1   C2A 6055  31.682  25.224   5.806  0.2041  0.0555 -0.0279
  466DPG1   C3A 6056  31.938  25.513   5.592  0.0222  0.3477 -0.3363
  466DPG1   C1B 6057  32.068  25.471   6.335  0.3546 -0.1943 -0.0630
  466DPG1   C2B 6058  32.250  25.790   5.995  0.3344  0.3159  0.0101
  466DPG1   C3B 6059  32.209  25.996   5.591  0.1161 -0.0286 -0.2031
  466DPG1   C4B 6060  32.140  26.340   5.348  0.0880 -0.2164 -0.0075
  467DPG1   GM1 6061   0.192  15.105   7.539 -0.0260 -0.1614  0.1058
  467DPG1   GM2 6062  35.303  14.851   7.568  0.1709 -0.4092 -0.1711
  467DPG1   GM3 6063  35.256  15.152   7.478  0.0363  0.4194  0.1936
  467DPG1   GM4 6064  34.925  15.070   7.583 -0.1601 -0.0457 -0.1309
  467DPG1   GM5 6065  35.033  15.423   7.438 -0.0437 -0.0772 -0.1206
  467DPG1   GM6 6066  34.786  15.296   7.588  0.1458  0.1471 -0.1802
  467DPG1   GM7 6067  34.732  15.399   7.876  0.0263 -0.2175 -0.0079
  467DPG1   GM8 6068  34.840  15.760   7.516 -0.1209 -0.2467 -0.0816
  467DPG1   GM9 6069  34.743  15.732   7.833  0.0683  0.0287 -0.1394
  467DPG1  GM10 6070  34.485  15.637   8.071  0.1018  0.0390 -0.0987
  467DPG1  GM11 6071  34.380  15.862   7.764 -0.4990  0.0985  0.1425
  467DPG1  GM12 6072  34.341  15.862   8.050  0.0138  0.0177  0.2465
  467DPG1  GM13 6073  34.430  15.239   7.680 -0.1136  0.0453 -0.0569
  467DPG1  GM14 6074  34.476  15.005   7.424  0.0887  0.0856 -0.0583
  467DPG1  GM15 6075  34.500  15.357   7.324  0.1797  0.1013  0.0174
  467DPG1  GM16 6076  34.302  15.133   7.150  0.1222 -0.0397  0.0695
  467DPG1  GM17 6077  34.427  15.624   7.352  0.2214 -0.0262 -0.1486
  467DPG1   AM1 6078   0.489  14.775   7.680 -0.0350  0.1561  0.1157
  467DPG1   AM2 6079   0.594  14.900   7.368  0.1084  0.0485  0.3000
  467DPG1   T1A 6080   0.947  14.613   7.609  0.2075 -0.2279 -0.0464
  467DPG1   C2A 6081   1.323  14.526   7.388 -0.1042 -0.7902 -0.0774
  467DPG1   C3A 6082   1.705  14.385   7.121 -0.2350 -0.1890 -0.0975
  467DPG1   C1B 6083   0.921  14.873   7.200 -0.0496 -0.1453  0.0325
  467DPG1   C2B 6084   1.232  14.678   6.945  0.0417  0.0542  0.0049
  467DPG1   C3B 6085   1.553  14.413   6.685  0.0502 -0.1768  0.2861
  467DPG1   C4B 6086   1.831  14.134   6.640 -0.4991  0.0363 -0.2132
  468DPG1   GM1 6087   2.088  29.103  17.491  0.1546  0.1616 -0.0005
  468DPG1   GM2 6088   2.448  29.159  17.579  0.1746  0.0207  0.0090
  468DPG1   GM3 6089   2.241  29.359  17.632 -0.0099  0.2425  0.0333
  468DPG1   GM4 6090   2.526  29.516  17.737  0.0074  0.1664 -0.1302
  468DPG1   GM5 6091   2.175  29.530  17.920  0.0100  0.1422 -0.1234
  468DPG1   GM6 6092   2.448  29.696  17.916  0.0925 -0.0652  0.1440
  468DPG1   GM7 6093   2.493  29.990  17.814 -0.0225  0.1190  0.2672
  468DPG1   GM8 6094   2.052  29.896  18.074 -0.0472 -0.1774  0.1196
  468DPG1   GM9 6095   2.237  30.156  17.961 -0.2984 -0.0638 -0.2734
  468DPG1  GM10 6096   2.523  30.380  17.931 -0.0782 -0.3073 -0.0138
  468DPG1  GM11 6097   2.395  30.280  18.292 -0.0278 -0.2630  0.0163
  468DPG1  GM12 6098   2.430  30.542  18.123  0.0867  0.2079 -0.3610
  468DPG1  GM13 6099   2.789  29.805  17.999 -0.1671 -0.0798 -0.2107
  468DPG1  GM14 6100   2.897  29.487  18.098  0.0772  0.0290 -0.1242
  468DPG1  GM15 6101   2.623  29.632  18.296  0.2443  0.0455  0.0971
  468DPG1  GM16 6102   2.868  29.502  18.425  0.1923  0.2015 -0.2917
  468DPG1  GM17 6103   2.444  29.807  18.380 -0.4977 -0.1536 -0.0832
  468DPG1   AM1 6104   2.240  28.704  17.268  0.1118 -0.2673  0.0979
  468DPG1   AM2 6105   2.258  28.975  17.032 -0.1817 -0.0143 -0.2170
  468DPG1   T1A 6106   2.441  28.507  16.869  0.0908 -0.2147 -0.0484
  468DPG1   C2A 6107   2.647  28.494  16.450  0.1345 -0.3978  0.0331
  468DPG1   C3A 6108   2.850  28.559  16.065 -0.1364 -0.5291 -0.1277
  468DPG1   C1B 6109   2.485  28.981  16.745 -0.0777 -0.0860  0.0778
  468DPG1   C2B 6110   2.854  28.947  16.409  0.0364  0.1068  0.2310
  468DPG1   C3B 6111   3.173  28.985  16.205  0.0070  0.1357 -0.3963
  468DPG1   C4B 6112   3.660  28.930  16.279 -0.1518 -0.0477  0.0848
  469DPG1   GM1 6113   3.502  24.083  18.219 -0.1660 -0.4146  0.0287
  469DPG1   GM2 6114   3.573  24.227  17.880 -0.3147 -0.2002  0.0873
  469DPG1   GM3 6115   3.344  23.973  17.951 -0.1600 -0.1191 -0.0986
  469DPG1   GM4 6116   3.331  23.993  17.604  0.0718  0.0050 -0.1904
  469DPG1   GM5 6117   3.046  23.856  17.843  0.0585  0.1017 -0.1508
  469DPG1   GM6 6118   3.104  23.872  17.540 -0.1438  0.0634  0.4251
  469DPG1   GM7 6119   3.139  23.597  17.393  0.3359 -0.1162 -0.0879
  469DPG1   GM8 6120   2.739  23.580  17.726  0.2953  0.1494 -0.1215
  469DPG1   GM9 6121   2.879  23.424  17.504 -0.1680  0.0152  0.0064
  469DPG1  GM10 6122   2.969  23.375  17.155  0.1410 -0.2389  0.1203
  469DPG1  GM11 6123   2.580  23.354  17.219  0.1320 -0.0428  0.1315
  469DPG1  GM12 6124   2.817  23.156  17.181  0.1896 -0.3028 -0.1254
  469DPG1  GM13 6125   3.058  23.924  17.174 -0.0851 -0.0642 -0.2154
  469DPG1  GM14 6126   3.054  24.261  17.271 -0.0302 -0.0659 -0.2076
  469DPG1  GM15 6127   2.771  24.057  17.387  0.0234 -0.0621 -0.0696
  469DPG1  GM16 6128   2.755  24.362  17.356  0.1266 -0.0588  0.1355
  469DPG1  GM17 6129   2.576  23.871  17.376  0.2582 -0.1005 -0.1401
  469DPG1   AM1 6130   3.822  24.396  18.305  0.0705 -0.2733  0.1356
  469DPG1   AM2 6131   3.983  24.097  18.162 -0.1793  0.0096 -0.0860
  469DPG1   T1A 6132   4.141  24.728  18.483  0.0641  0.0635 -0.2915
  469DPG1   C2A 6133   4.321  25.100  18.670 -0.1897  0.3721 -0.0108
  469DPG1   C3A 6134   4.450  25.346  18.909 -0.0079  0.2892  0.0510
  469DPG1   C1B 6135   4.306  24.041  17.970 -0.4218  0.0592 -0.0777
  469DPG1   C2B 6136   4.667  24.231  17.813 -0.2070 -0.0411 -0.2347
  469DPG1   C3B 6137   4.844  24.732  17.806  0.1689 -0.1170  0.1299
  469DPG1   C4B 6138   5.101  24.852  17.622  0.2032 -0.0889  0.0445
  470DPG1   GM1 6139  33.678  22.905   6.983 -0.1010  0.1475  0.4745
  470DPG1   GM2 6140  33.424  23.068   6.760  0.0833 -0.1529  0.0357
  470DPG1   GM3 6141  33.350  22.864   6.986 -0.0681 -0.1304  0.4355
  470DPG1   GM4 6142  33.034  22.911   6.881 -0.0050 -0.3230 -0.0699
  470DPG1   GM5 6143  33.151  22.976   7.254  0.3156  0.0178 -0.2262
  470DPG1   GM6 6144  32.892  22.912   7.105 -0.0226  0.1023 -0.0795
  470DPG1   GM7 6145  32.779  22.605   7.149 -0.3738  0.0633 -0.0067
  470DPG1   GM8 6146  32.958  22.867   7.563 -0.0887  0.0112 -0.0958
  470DPG1   GM9 6147  32.793  22.594   7.489  0.1839 -0.1254  0.0789
  470DPG1  GM10 6148  32.511  22.371   7.431 -0.0929  0.2302  0.0446
  470DPG1  GM11 6149  32.425  22.745   7.525  0.0080  0.2237  0.1617
  470DPG1  GM12 6150  32.411  22.479   7.655 -0.2196 -0.0320  0.1160
  470DPG1  GM13 6151  32.541  22.891   7.018 -0.1456  0.1154  0.1352
  470DPG1  GM14 6152  32.600  23.162   6.805  0.0260 -0.1684 -0.1842
  470DPG1  GM15 6153  32.654  23.224   7.163  0.0646  0.2165 -0.2548
  470DPG1  GM16 6154  32.556  23.463   6.929 -0.1208  0.0277 -0.0030
  470DPG1  GM17 6155  32.608  23.189   7.441 -0.2122 -0.0159 -0.0540
  470DPG1   AM1 6156  33.972  23.298   6.875  0.2720 -0.2364 -0.0349
  470DPG1   AM2 6157  34.203  23.046   6.914 -0.2359  0.3206 -0.0374
  470DPG1   T1A 6158  34.373  23.512   6.848  0.1962 -0.0452 -0.2271
  470DPG1   C2A 6159  34.683  23.680   6.590  0.1051 -0.1272  0.1517
  470DPG1   C3A 6160  34.790  23.985   6.370 -0.2714 -0.0604  0.0343
  470DPG1   C1B 6161  34.509  22.986   6.704  0.0957  0.0014 -0.0400
  470DPG1   C2B 6162  34.785  23.209   6.462 -0.6485  0.0194  0.0656
  470DPG1   C3B 6163  35.095  23.392   6.263  0.0195 -0.0815 -0.2178
  470DPG1   C4B 6164   0.042  23.470   5.881  0.2766 -0.1617  0.2278
  471DPG1   GM1 6165   2.052  19.744   8.924  0.1198 -0.1187 -0.0815
  471DPG1   GM2 6166   1.772  19.502   8.980  0.0866 -0.0534  0.0365
  471DPG1   GM3 6167   1.886  19.659   9.196  0.1706 -0.2520 -0.0922
  471DPG1   GM4 6168   1.597  19.504   9.330 -0.2002  0.0303 -0.0954
  471DPG1   GM5 6169   1.603  19.892   9.253 -0.3486  0.0639  0.0591
  471DPG1   GM6 6170   1.458  19.698   9.445 -0.1682  0.0377 -0.0694
  471DPG1   GM7 6171   1.526  19.658   9.747 -0.3234  0.1515  0.1900
  471DPG1   GM8 6172   1.562  20.155   9.594 -0.0374  0.0656 -0.0255
  471DPG1   GM9 6173   1.577  19.984   9.858  0.1601  0.0378 -0.0383
  471DPG1  GM10 6174   1.393  19.805  10.116 -0.0131  0.1372 -0.0924
  471DPG1  GM11 6175   1.223  20.151  10.031 -0.2914  0.0188 -0.0241
  471DPG1  GM12 6176   1.396  20.043  10.239  0.1054  0.0569  0.0621
  471DPG1  GM13 6177   1.184  19.529   9.631 -0.0981  0.3086  0.0520
  471DPG1  GM14 6178   1.018  19.486   9.326 -0.0445  0.3219  0.0208
  471DPG1  GM15 6179   1.093  19.833   9.420 -0.3245  0.3379  0.1905
  471DPG1  GM16 6180   0.804  19.735   9.274 -0.0808  0.0442 -0.1336
  471DPG1  GM17 6181   1.133  20.020   9.572  0.1102 -0.1604 -0.1462
  471DPG1   AM1 6182   1.891  19.684   8.509 -0.3100  0.0737 -0.0122
  471DPG1   AM2 6183   2.051  19.359   8.539  0.2031  0.0358  0.3854
  471DPG1   T1A 6184   2.117  19.706   8.061 -0.1298  0.1425  0.0835
  471DPG1   C2A 6185   2.435  19.688   7.754  0.0775 -0.1288 -0.0239
  471DPG1   C3A 6186   2.741  19.630   7.490 -0.2243 -0.1544 -0.0922
  471DPG1   C1B 6187   2.237  19.202   8.253  0.1238 -0.0964  0.0946
  471DPG1   C2B 6188   2.402  19.251   7.990  0.0227  0.3766 -0.1106
  471DPG1   C3B 6189   2.643  19.162   7.627 -0.0221 -0.0770  0.2162
  471DPG1   C4B 6190   2.994  19.247   7.462 -0.0015 -0.2540  0.0632
  472DPG1   GM1 6191  29.404  19.112   3.768 -0.1549  0.0601 -0.1656
  472DPG1   GM2 6192  29.511  19.001   4.110 -0.0003 -0.1056 -0.2672
  472DPG1   GM3 6193  29.288  18.880   3.971 -0.0774  0.0109 -0.1773
  472DPG1   GM4 6194  29.257  18.745   4.286  0.0922 -0.1150  0.0549
  472DPG1   GM5 6195  29.018  18.683   3.976  0.1762  0.0161 -0.0369
  472DPG1   GM6 6196  29.006  18.659   4.277  0.0061  0.1282  0.0957
  472DPG1   GM7 6197  28.846  18.794   4.487 -0.1887 -0.4329 -0.0715
  472DPG1   GM8 6198  28.536  18.686   4.082 -0.2907  0.0912 -0.1376
  472DPG1   GM9 6199  28.522  18.778   4.363 -0.1304  0.3214  0.1905
  472DPG1  GM10 6200  28.496  18.782   4.726  0.0776  0.2080  0.2075
  472DPG1  GM11 6201  28.462  18.417   4.580  0.0158  0.3336 -0.0971
  472DPG1  GM12 6202  28.332  18.574   4.771  0.0703  0.1251 -0.1867
  472DPG1  GM13 6203  28.966  18.459   4.578 -0.1538 -0.1532 -0.0675
  472DPG1  GM14 6204  29.276  18.324   4.489 -0.0386  0.2675 -0.3212
  472DPG1  GM15 6205  28.995  18.236   4.271 -0.0852 -0.0515 -0.1355
  472DPG1  GM16 6206  29.244  18.026   4.319  0.1824 -0.1002 -0.0713
  472DPG1  GM17 6207  28.744  18.194   4.212 -0.0871 -0.1970 -0.0647
  472DPG1   AM1 6208  29.711  19.504   3.762  0.0008 -0.4296 -0.1917
  472DPG1   AM2 6209  29.890  19.299   3.586 -0.1514  0.1340 -0.0058
  472DPG1   T1A 6210  29.777  19.821   3.428 -0.0079 -0.0656 -0.2140
  472DPG1   C2A 6211  29.852  19.867   2.976 -0.0995  0.2395  0.1177
  472DPG1   C3A 6212  29.944  19.866   2.526 -0.0895  0.0990 -0.1720
  472DPG1   C1B 6213  29.957  19.336   3.213 -0.0708 -0.2167 -0.1781
  472DPG1   C2B 6214  29.913  19.388   2.839 -0.1095 -0.0831 -0.2596
  472DPG1   C3B 6215  29.960  19.339   2.445 -0.1070 -0.1231  0.2016
  472DPG1   C4B 6216  30.042  19.646   2.097  0.0988 -0.1704  0.0561
  473DPG1   GM1 6217  34.316  34.578  13.577 -0.4202 -0.2564  0.0961
  473DPG1   GM2 6218  34.453  34.256  13.441 -0.0201  0.1408 -0.4641
  473DPG1   GM3 6219  34.265  34.275  13.696 -0.1004 -0.3108  0.0980
  473DPG1   GM4 6220  34.277  33.933  13.615 -0.2136 -0.1441 -0.1826
  473DPG1   GM5 6221  34.010  34.071  13.874  0.0173  0.0513 -0.0469
  473DPG1   GM6 6222  34.160  33.803  13.815 -0.0352  0.1971  0.1518
  473DPG1   GM7 6223  34.346  33.678  14.026  0.0009 -0.1792  0.0277
  473DPG1   GM8 6224  33.948  33.928  14.250  0.0122 -0.1731  0.0388
  473DPG1   GM9 6225  34.191  33.752  14.321 -0.0192 -0.0123 -0.1861
  473DPG1  GM10 6226  34.321  33.415  14.363  0.0618  0.0492  0.0719
  473DPG1  GM11 6227  33.940  33.481  14.443 -0.0150 -0.2538 -0.0375
  473DPG1  GM12 6228  34.160  33.340  14.563 -0.0413 -0.0820 -0.0595
  473DPG1  GM13 6229  34.247  33.449  13.767 -0.0545 -0.2536 -0.0059
  473DPG1  GM14 6230  34.086  33.491  13.459 -0.1339 -0.4079  0.0145
  473DPG1  GM15 6231  33.876  33.532  13.757 -0.0136 -0.0591  0.0533
  473DPG1  GM16 6232  33.774  33.398  13.467 -0.0462  0.2013 -0.0264
  473DPG1  GM17 6233  33.793  33.452  13.949 -0.1122 -0.3570 -0.4007
  473DPG1   AM1 6234  34.691  34.815  13.451  0.2063  0.1210  0.1067
  473DPG1   AM2 6235  34.826  34.786  13.789  0.0434 -0.3915  0.0053
  473DPG1   T1A 6236  35.062  34.750  13.122  0.0644 -0.2821 -0.3330
  473DPG1   C2A 6237  35.287  34.769  12.751 -0.4761 -0.4928 -0.2440
  473DPG1   C3A 6238   0.371  34.636  12.639 -0.0428  0.5187 -0.1141
  473DPG1   C1B 6239  35.129  34.606  13.901 -0.2225 -0.1566 -0.1538
  473DPG1   C2B 6240   0.032  34.629  13.548 -0.2187 -0.0923 -0.2554
  473DPG1   C3B 6241   0.232  34.625  13.177 -0.1850 -0.1853  0.1685
  473DPG1   C4B 6242   0.699  34.508  13.140 -0.2578 -0.0010 -0.0923
  474DPG3   GM1 6243  31.001  23.529   5.405  0.0277  0.0505 -0.1043
  474DPG3   GM2 6244  30.865  23.413   5.076  0.2096 -0.1296 -0.1171
  474DPG3   GM3 6245  30.821  23.253   5.378 -0.2677  0.2198  0.1041
  474DPG3   GM4 6246  30.660  23.064   5.115  0.1214 -0.0416 -0.0175
  474DPG3   GM5 6247  30.576  23.101   5.500 -0.2079  0.1269 -0.1037
  474DPG3   GM6 6248  30.519  22.887   5.253 -0.0086  0.2621  0.2446
  474DPG3  GM13 6249  30.328  22.650   4.997  0.1769  0.0049  0.0329
  474DPG3  GM14 6250  30.175  22.954   4.914 -0.0766 -0.1428 -0.0483
  474DPG3  GM15 6251  30.107  22.828   5.252  0.1526 -0.0342  0.0395
  474DPG3  GM16 6252  29.890  22.963   5.047  0.0421 -0.1020 -0.2906
  474DPG3  GM17 6253  30.050  22.598   5.411 -0.4168  0.0164 -0.3574
  474DPG3   AM1 6254  31.163  23.978   5.263  0.1364 -0.3583  0.0844
  474DPG3   AM2 6255  31.202  23.767   4.981 -0.0678  0.3869 -0.5112
  474DPG3   T1A 6256  31.122  24.328   4.967 -0.1474  0.2144  0.2905
  474DPG3   C2A 6257  31.283  24.490   4.545 -0.1632  0.0840 -0.2327
  474DPG3   C3A 6258  31.322  24.785   4.156  0.1899  0.1125  0.1485
  474DPG3   C1B 6259  31.351  23.886   4.686  0.1298  0.1249 -0.3065
  474DPG3   C2B 6260  31.479  24.084   4.280 -0.1151 -0.2574 -0.1906
  474DPG3   C3B 6261  31.625  24.387   4.021  0.4873  0.4944 -0.1567
  474DPG3   C4B 6262  31.835  24.651   3.756 -0.0558  0.0455  0.0325
  475DPG3   GM1 6263   9.261  16.107  18.208 -0.1907  0.1304 -0.1199
  475DPG3   GM2 6264   9.085  16.027  18.529 -0.0245 -0.0974 -0.0844
  475DPG3   GM3 6265   9.376  15.938  18.467 -0.1617  0.0440 -0.1885
  475DPG3   GM4 6266   9.253  15.798  18.770 -0.0785  0.2097  0.2513
  475DPG3   GM5 6267   9.594  15.984  18.693 -0.0264 -0.1710 -0.4864
  475DPG3   GM6 6268   9.475  15.786  18.915  0.1687 -0.0536 -0.1376
  475DPG3  GM13 6269   9.385  15.626  19.217  0.1243  0.1691 -0.0507
  475DPG3  GM14 6270   9.165  15.895  19.257 -0.0741  0.0167 -0.1075
  475DPG3  GM15 6271   9.522  15.981  19.241 -0.1134  0.2454  0.1955
  475DPG3  GM16 6272   9.359  16.143  19.412  0.0377 -0.0614  0.1533
  475DPG3  GM17 6273   9.788  15.926  19.290 -0.0058  0.1244 -0.0416
  475DPG3   AM1 6274   8.986  16.132  17.792 -0.2445 -0.1021 -0.5011
  475DPG3   AM2 6275   9.107  16.514  17.730 -0.0948  0.1907  0.1068
  475DPG3   T1A 6276   8.842  15.696  17.643  0.0824  0.3443  0.0384
  475DPG3   C2A 6277   8.747  15.353  17.468 -0.2318 -0.0046 -0.4072
  475DPG3   C3A 6278   8.611  14.943  17.251  0.1868  0.0003  0.3201
  475DPG3   C1B 6279   9.146  16.700  17.420  0.2184 -0.2481 -0.5062
  475DPG3   C2B 6280   9.047  16.808  17.055 -0.3094  0.1511 -0.0018
  475DPG3   C3B 6281   9.168  17.029  16.738 -0.1479 -0.2457 -0.1008
  475DPG3   C4B 6282   9.213  17.149  16.316 -0.1131 -0.2531 -0.3469
  476DPG3   GM1 6283   0.411  15.897   8.270 -0.0060 -0.1493  0.0411
  476DPG3   GM2 6284   0.623  16.164   8.113 -0.0174 -0.2380 -0.1268
  476DPG3   GM3 6285   0.375  16.010   7.962 -0.0500 -0.1465  0.0472
  476DPG3   GM4 6286   0.458  16.203   7.681  0.0042  0.0302  0.0136
  476DPG3   GM5 6287   0.105  16.220   7.859  0.0013  0.1002  0.0018
  476DPG3   GM6 6288   0.230  16.260   7.559  0.0787  0.0973 -0.0954
  476DPG3  GM13 6289   0.321  16.418   7.259 -0.0250 -0.1433 -0.0168
  476DPG3  GM14 6290   0.505  16.646   7.451 -0.0729  0.0180 -0.1608
  476DPG3  GM15 6291   0.142  16.649   7.503 -0.0602 -0.1233 -0.0612
  476DPG3  GM16 6292   0.308  16.893   7.534 -0.0639  0.1096 -0.3066
  476DPG3  GM17 6293  35.266  16.628   7.473 -0.0713  0.0313 -0.0790
  476DPG3   AM1 6294   0.807  15.800   8.452 -0.2204  0.0302 -0.1963
  476DPG3   AM2 6295   0.781  15.512   8.227 -0.0674  0.1123  0.2466
  476DPG3   T1A 6296   1.110  15.916   8.137  0.2075  0.0263  0.1586
  476DPG3   C2A 6297   1.480  15.735   7.951  0.0042 -0.4632 -0.0149
  476DPG3   C3A 6298   1.923  15.613   7.798  0.4928  0.1403  0.0162
  476DPG3   C1B 6299   1.010  15.250   8.173  0.1047  0.1090  0.2867
  476DPG3   C2B 6300   1.397  15.207   7.942  0.2204 -0.0772 -0.1486
  476DPG3   C3B 6301   1.817  15.092   7.874 -0.3430 -0.0142 -0.2889
  476DPG3   C4B 6302   2.257  15.011   7.623  0.1408  0.0834  0.2471
  477DPG3   GM1 6303  14.125  21.248  21.371 -0.2888 -0.0151 -0.1016
  477DPG3   GM2 6304  13.977  21.588  21.430  0.0310  0.0499  0.3617
  477DPG3   GM3 6305  14.204  21.471  21.601 -0.0835 -0.0346 -0.1514
  477DPG3   GM4 6306  14.183  21.728  21.824  0.1357  0.2570  0.1786
  477DPG3   GM5 6307  14.510  21.504  21.818 -0.0602 -0.0243 -0.3480
  477DPG3   GM6 6308  14.374  21.711  22.008  0.2169 -0.0850  0.0664
  477DPG3  GM13 6309  14.284  21.989  22.249 -0.0052 -0.2354 -0.0437
  477DPG3  GM14 6310  14.265  22.164  21.947 -0.0323  0.0977  0.1484
  477DPG3  GM15 6311  14.598  22.040  22.038 -0.0203  0.0141 -0.0073
  477DPG3  GM16 6312  14.562  22.291  21.863 -0.1167 -0.3145 -0.2758
  477DPG3  GM17 6313  14.775  21.954  22.227 -0.2203 -0.3051  0.0937
  477DPG3   AM1 6314  14.100  21.208  20.919  0.0486 -0.1151 -0.0003
  477DPG3   AM2 6315  14.448  21.219  20.847  0.0233  0.0608  0.0226
  477DPG3   T1A 6316  13.990  21.370  20.481  0.0270  0.1334 -0.2122
  477DPG3   C2A 6317  13.824  21.522  19.988 -0.1080  0.1617 -0.0377
  477DPG3   C3A 6318  13.518  21.632  19.826 -0.0024  0.0144 -0.0058
  477DPG3   C1B 6319  14.508  21.419  20.537  0.5371 -0.3129  0.2970
  477DPG3   C2B 6320  14.267  21.652  20.175  0.0626 -0.2397  0.0678
  477DPG3   C3B 6321  13.994  21.980  19.921  0.1260 -0.0889  0.1251
  477DPG3   C4B 6322  14.185  22.248  19.650  0.0810  0.0136 -0.0780
  478DPG3   GM1 6323   2.958  11.251  13.517  0.3277 -0.2364  0.1208
  478DPG3   GM2 6324   2.767  11.072  13.248  0.0320 -0.0239  0.1857
  478DPG3   GM3 6325   2.689  11.069  13.573  0.1425  0.0181  0.0678
  478DPG3   GM4 6326   2.434  10.871  13.446 -0.1888  0.1183 -0.0921
  478DPG3   GM5 6327   2.436  11.139  13.737  0.0048  0.0600 -0.0395
  478DPG3   GM6 6328   2.274  10.880  13.657  0.0723  0.1508  0.1069
  478DPG3  GM13 6329   2.004  10.647  13.552  0.0196  0.0946  0.0189
  478DPG3  GM14 6330   2.004  10.817  13.247 -0.1891 -0.0156 -0.0436
  478DPG3  GM15 6331   1.876  11.005  13.535 -0.3853 -0.0531 -0.1055
  478DPG3  GM16 6332   1.774  11.042  13.266  0.2257  0.1835  0.1202
  478DPG3  GM17 6333   1.800  11.048  13.798  0.3401  0.1626  0.3040
  478DPG3   AM1 6334   3.291  11.612  13.539  0.0317  0.0612 -0.0942
  478DPG3   AM2 6335   3.046  11.817  13.397  0.0936  0.0928 -0.3732
  478DPG3   T1A 6336   3.664  11.851  13.431 -0.1545 -0.0617  0.1893
  478DPG3   C2A 6337   3.827  11.915  13.066 -0.0890 -0.1743 -0.0350
  478DPG3   C3A 6338   3.964  11.846  12.698  0.0969 -0.1161  0.2127
  478DPG3   C1B 6339   3.054  12.180  13.312  0.1846  0.2831 -0.3549
  478DPG3   C2B 6340   3.210  12.508  12.993  0.1852 -0.1821 -0.2756
  478DPG3   C3B 6341   3.371  12.645  12.647  0.0082 -0.0175  0.1046
  478DPG3   C4B 6342   3.640  12.567  12.353 -0.0142 -0.1981  0.3363
  479DPG3   GM1 6343   3.735  22.852  16.124  0.0548  0.1859 -0.0312
  479DPG3   GM2 6344   3.725  22.860  15.749  0.0073 -0.1387 -0.0384
  479DPG3   GM3 6345   3.478  22.772  15.932  0.0051  0.0853  0.0769
  479DPG3   GM4 6346   3.324  22.687  15.638 -0.0131  0.4439 -0.0458
  479DPG3   GM5 6347   3.117  22.852  15.932 -0.2242 -0.3243  0.2492
  479DPG3   GM6 6348   3.071  22.642  15.702  0.0574  0.2258  0.0867
  479DPG3  GM13 6349   2.877  22.538  15.418 -0.1105 -0.0175  0.1508
  479DPG3  GM14 6350   2.997  22.848  15.310 -0.0517 -0.1098 -0.0512
  479DPG3  GM15 6351   2.791  22.854  15.614  0.0860  0.1054  0.0403
  479DPG3  GM16 6352   2.790  23.111  15.314 -0.3057  0.1513  0.5540
  479DPG3  GM17 6353   2.551  22.765  15.716 -0.0884 -0.2360  0.1724
  479DPG3   AM1 6354   4.160  23.028  16.222 -0.0661 -0.0259  0.1309
  479DPG3   AM2 6355   4.048  23.207  15.903 -0.3500 -0.2155  0.0647
  479DPG3   T1A 6356   4.569  23.108  16.083 -0.3908  0.0632 -0.1507
  479DPG3   C2A 6357   4.871  22.818  16.062  0.0985 -0.5704  0.3016
  479DPG3   C3A 6358   5.204  22.591  16.071  0.0497 -0.1004 -0.2749
  479DPG3   C1B 6359   4.301  23.384  15.699  0.0432  0.0185  0.1477
  479DPG3   C2B 6360   4.546  23.532  15.388  0.2087 -0.1851  0.1268
  479DPG3   C3B 6361   4.893  23.757  15.346  0.2015 -0.2984 -0.0020
  479DPG3   C4B 6362   5.039  24.239  15.362  0.1058  0.1714  0.2604
  480DPG3   GM1 6363  34.483  18.056   5.792  0.2118 -0.1033  0.0062
  480DPG3   GM2 6364  34.574  18.420   5.805  0.3468 -0.1421  0.1529
  480DPG3   GM3 6365  34.270  18.308   5.808  0.1659 -0.1427  0.0198
  480DPG3   GM4 6366  34.232  18.650   5.840  0.0966 -0.1929 -0.0478
  480DPG3   GM5 6367  33.964  18.398   5.984  0.0194  0.0017  0.1516
  480DPG3   GM6 6368  33.974  18.706   5.862  0.0989 -0.2328  0.0776
  480DPG3  GM13 6369  33.927  19.058   5.785 -0.1387  0.1037 -0.0688
  480DPG3  GM14 6370  34.142  19.092   6.059 -0.2719  0.1113  0.0352
  480DPG3  GM15 6371  33.820  18.927   6.127 -0.2260 -0.0591 -0.1579
  480DPG3  GM16 6372  33.937  19.148   6.337  0.3258 -0.1951  0.1302
  480DPG3  GM17 6373  33.521  18.948   6.106 -0.1087  0.3027  0.3434
  480DPG3   AM1 6374  34.861  17.875   5.563 -0.2242  0.0805  0.2753
  480DPG3   AM2 6375  34.993  18.153   5.723  0.1274 -0.1204  0.0137
  480DPG3   T1A 6376  35.325  18.003   5.408 -0.4153  0.3957  0.0448
  480DPG3   C2A 6377   0.214  18.102   5.100  0.0183 -0.0863 -0.2754
  480DPG3   C3A 6378   0.291  18.178   4.688 -0.1404  0.4237  0.0987
  480DPG3   C1B 6379  35.222  18.428   5.654 -0.0537  0.0878  0.1571
  480DPG3   C2B 6380   0.022  18.522   5.294 -0.0023 -0.2326  0.0645
  480DPG3   C3B 6381   0.237  18.610   5.001  0.1411  0.3926 -0.1039
  480DPG3   C4B 6382   0.420  18.993   5.015 -0.0892 -0.1850  0.1922
  481DPG3   GM1 6383  20.997  17.897  15.312 -0.0623  0.1433 -0.1799
  481DPG3   GM2 6384  20.790  17.660  15.516 -0.2499  0.0343 -0.4939
  481DPG3   GM3 6385  21.085  17.755  15.597  0.2788 -0.1960 -0.4483
  481DPG3   GM4 6386  21.102  17.508  15.836 -0.0941  0.0440 -0.0327
  481DPG3   GM5 6387  21.274  17.865  15.846  0.0648 -0.0299 -0.1103
  481DPG3   GM6 6388  21.315  17.591  15.970 -0.2031  0.0003  0.1699
  481DPG3  GM13 6389  21.320  17.372  16.263  0.1486  0.3465 -0.2631
  481DPG3  GM14 6390  20.971  17.370  16.248  0.1389  0.0593 -0.0488
  481DPG3  GM15 6391  21.128  17.700  16.283 -0.1039  0.1995 -0.2643
  481DPG3  GM16 6392  20.862  17.612  16.453 -0.1395 -0.1113 -0.1814
  481DPG3  GM17 6393  21.295  17.866  16.386  0.2413 -0.0485 -0.1845
  481DPG3   AM1 6394  20.669  17.730  14.974 -0.0672 -0.1369  0.1748
  481DPG3   AM2 6395  20.410  17.804  15.200  0.0994  0.1511  0.0527
  481DPG3   T1A 6396  20.235  17.686  14.771 -0.0614 -0.0105 -0.0517
  481DPG3   C2A 6397  19.821  17.717  14.644 -0.0261  0.3122 -0.3103
  481DPG3   C3A 6398  19.420  17.730  14.405 -0.0635  0.0767 -0.1940
  481DPG3   C1B 6399  20.101  17.977  15.150 -0.1182  0.0072 -0.5406
  481DPG3   C2B 6400  19.878  17.901  15.051  0.0716  0.0809  0.2594
  481DPG3   C3B 6401  19.447  17.965  14.894 -0.1426  0.3669  0.3387
  481DPG3   C4B 6402  19.199  18.174  14.531 -0.0480  0.3436 -0.0702
  482DPG3   GM1 6403  31.068  18.896   4.216  0.0989 -0.3260 -0.1772
  482DPG3   GM2 6404  31.323  19.139   4.086  0.1405 -0.3156 -0.0764
  482DPG3   GM3 6405  31.029  19.221   4.170  0.1309 -0.2979 -0.0084
  482DPG3   GM4 6406  31.138  19.549   4.108  0.0416  0.1099 -0.0035
  482DPG3   GM5 6407  30.931  19.416   4.418  0.0083 -0.0469 -0.0925
  482DPG3   GM6 6408  31.007  19.703   4.279  0.3641  0.4198 -0.0301
  482DPG3  GM13 6409  31.170  20.028   4.291 -0.0867  0.0666  0.1563
  482DPG3  GM14 6410  31.430  19.857   4.451 -0.0485 -0.0277 -0.0058
  482DPG3  GM15 6411  31.111  19.867   4.631 -0.0855 -0.3765 -0.0489
  482DPG3  GM16 6412  31.415  19.904   4.788  0.2909 -0.2136 -0.0623
  482DPG3  GM17 6413  30.949  20.012   4.776  0.0119 -0.0594 -0.3588
  482DPG3   AM1 6414  31.342  18.599   4.068  0.1257  0.0403 -0.0182
  482DPG3   AM2 6415  31.086  18.434   3.874  0.0749  0.0002  0.2196
  482DPG3   T1A 6416  31.603  18.524   3.686  0.0841  0.0576 -0.1276
  482DPG3   C2A 6417  31.608  18.468   3.381 -0.1332  0.3416  0.0511
  482DPG3   C3A 6418  31.731  18.374   2.921  0.0505 -0.1014 -0.1518
  482DPG3   C1B 6419  31.132  18.472   3.501 -0.2720 -0.2285  0.1967
  482DPG3   C2B 6420  31.154  18.407   3.071 -0.2682 -0.1147  0.0143
  482DPG3   C3B 6421  31.244  18.253   2.671  0.0812 -0.4384 -0.2258
  482DPG3   C4B 6422  30.950  18.172   2.453 -0.0476 -0.1653  0.0750
  483DPG3   GM1 6423  12.365   2.582  18.242 -0.0474  0.0823 -0.1738
  483DPG3   GM2 6424  12.659   2.524  18.468 -0.4137 -0.2832  0.2200
  483DPG3   GM3 6425  12.526   2.296  18.272  0.1221  0.1921 -0.0201
  483DPG3   GM4 6426  12.725   2.120  18.494  0.0108  0.2778  0.0179
  483DPG3   GM5 6427  12.882   2.192  18.137  0.2346  0.0889  0.0767
  483DPG3   GM6 6428  12.955   2.032  18.396  0.0113  0.1711  0.1137
  483DPG3  GM13 6429  13.156   1.941  18.696 -0.2722 -0.1267 -0.1130
  483DPG3  GM14 6430  13.056   2.266  18.778  0.1097 -0.0215 -0.0544
  483DPG3  GM15 6431  13.298   2.238  18.503  0.0841 -0.2555 -0.0533
  483DPG3  GM16 6432  13.357   2.386  18.823 -0.1062  0.2091  0.1614
  483DPG3  GM17 6433  13.494   2.098  18.362  0.1683 -0.2182 -0.0652
  483DPG3   AM1 6434  11.945   2.715  18.433 -0.2536  0.2389 -0.0795
  483DPG3   AM2 6435  11.863   2.417  18.232  0.0679 -0.3297  0.0812
  483DPG3   T1A 6436  11.801   2.986  18.088  0.1748  0.2220  0.2749
  483DPG3   C2A 6437  11.523   3.263  17.992  0.1611  0.1516 -0.1436
  483DPG3   C3A 6438  11.444   3.312  17.603  0.2483 -0.1243 -0.0984
  483DPG3   C1B 6439  11.668   2.450  17.939 -0.1703  0.1107  0.2914
  483DPG3   C2B 6440  11.282   2.396  17.704 -0.1615 -0.0748  0.0544
  483DPG3   C3B 6441  11.138   2.267  17.279 -0.1034  0.2183 -0.0714
  483DPG3   C4B 6442  11.334   2.066  16.929 -0.3488  0.0587  0.1265
  484DPG3   GM1 6443  31.575  21.624   4.595 -0.1170  0.0151 -0.1091
  484DPG3   GM2 6444  31.376  21.408   4.362 -0.2605  0.2262 -0.1837
  484DPG3   GM3 6445  31.262  21.528   4.637 -0.0931 -0.1289 -0.2609
  484DPG3   GM4 6446  31.021  21.298   4.530  0.2449 -0.1076 -0.0827
  484DPG3   GM5 6447  30.971  21.578   4.806  0.2619 -0.2229  0.0383
  484DPG3   GM6 6448  30.828  21.320   4.711  0.1391 -0.1369 -0.1917
  484DPG3  GM13 6449  30.592  21.084   4.601  0.0562 -0.0005 -0.2335
  484DPG3  GM14 6450  30.533  21.258   4.303  0.4585  0.2830 -0.1518
  484DPG3  GM15 6451  30.433  21.430   4.611 -0.2153 -0.1269 -0.1323
  484DPG3  GM16 6452  30.230  21.410   4.374  0.2512  0.0108 -0.1094
  484DPG3  GM17 6453  30.300  21.382   4.856  0.2987  0.2105  0.1418
  484DPG3   AM1 6454  31.728  21.896   4.245  0.4584 -0.2488  0.0265
  484DPG3   AM2 6455  31.798  21.566   4.136 -0.5509 -0.1821 -0.5442
  484DPG3   T1A 6456  31.873  22.016   3.833 -0.0036 -0.3393 -0.0980
  484DPG3   C2A 6457  32.089  22.114   3.529  0.0307 -0.1744 -0.1293
  484DPG3   C3A 6458  31.964  22.339   3.186 -0.0828  0.2504  0.0137
  484DPG3   C1B 6459  31.996  21.518   3.815 -0.4249 -0.1315 -0.1011
  484DPG3   C2B 6460  32.096  21.612   3.418 -0.1482 -0.0401  0.0225
  484DPG3   C3B 6461  32.280  21.641   3.046  0.2725 -0.0700 -0.2775
  484DPG3   C4B 6462  32.674  21.839   2.732 -0.0078  0.2963 -0.0463
  485DPG3   GM1 6463  35.290   5.885  11.569  0.0388 -0.0297  0.1186
  485DPG3   GM2 6464   0.211   5.692  11.667 -0.0259 -0.0092  0.3666
  485DPG3   GM3 6465  35.343   5.754  11.867 -0.0928 -0.3152  0.0177
  485DPG3   GM4 6466   0.111   5.530  12.075 -0.1158 -0.0026 -0.1250
  485DPG3   GM5 6467  35.113   5.622  12.034 -0.0605  0.3289  0.0864
  485DPG3   GM6 6468  35.313   5.518  12.266 -0.1557 -0.1151 -0.1699
  485DPG3  GM13 6469   0.073   5.294  12.498 -0.0720 -0.0128  0.4777
  485DPG3  GM14 6470   0.023   5.083  12.224  0.2944  0.2418  0.2109
  485DPG3  GM15 6471  35.105   5.223  12.375  0.0781 -0.0748  0.0758
  485DPG3  GM16 6472  35.108   4.957  12.259  0.3474  0.0727  0.0046
  485DPG3  GM17 6473  34.972   5.273  12.599  0.0747  0.2095  0.0636
  485DPG3   AM1 6474  35.288   6.054  11.148  0.1933  0.3102 -0.1523
  485DPG3   AM2 6475   0.212   6.226  11.173 -0.2068  0.1999  0.1964
  485DPG3   T1A 6476   0.089   5.891  10.784 -0.2335 -0.0034 -0.2315
  485DPG3   C2A 6477   0.481   5.869  10.435  0.0224 -0.1394 -0.0382
  485DPG3   C3A 6478   0.386   5.621  10.131  0.0743  0.0927  0.0978
  485DPG3   C1B 6479   0.441   6.320  10.893 -0.2560 -0.5247  0.0489
  485DPG3   C2B 6480   0.732   6.304  10.473 -0.0679  0.2021  0.0176
  485DPG3   C3B 6481   0.963   6.020  10.239 -0.0812 -0.1719 -0.0474
  485DPG3   C4B 6482   1.329   5.984   9.947  0.0386 -0.1511  0.2561
  486DPG3   GM1 6483  27.324  21.642   4.816 -0.2435  0.3148  0.0325
  486DPG3   GM2 6484  27.116  21.417   5.032 -0.1178  0.1830  0.0174
  486DPG3   GM3 6485  27.420  21.408   5.028 -0.2001  0.0510 -0.2749
  486DPG3   GM4 6486  27.363  21.227   5.321  0.1243 -0.2546 -0.0431
  486DPG3   GM5 6487  27.711  21.402   5.250  0.0111 -0.0047  0.0117
  486DPG3   GM6 6488  27.602  21.180   5.426  0.0828  0.1318  0.2350
  486DPG3  GM13 6489  27.564  21.014   5.738 -0.0613 -0.2057  0.2703
  486DPG3  GM14 6490  27.374  21.302   5.798 -0.0225 -0.1408  0.0856
  486DPG3  GM15 6491  27.735  21.354   5.758 -0.0273 -0.2031 -0.0381
  486DPG3  GM16 6492  27.570  21.534   5.955  0.1485  0.1687 -0.0922
  486DPG3  GM17 6493  28.000  21.302   5.848  0.0994 -0.1668  0.2070
  486DPG3   AM1 6494  27.119  21.546   4.402  0.0476 -0.2089  0.2072
  486DPG3   AM2 6495  26.918  21.849   4.518 -0.3583 -0.3165 -0.1354
  486DPG3   T1A 6496  26.895  21.538   4.000 -0.2218  0.0159 -0.5058
  486DPG3   C2A 6497  26.606  21.502   3.598 -0.0929 -0.0940 -0.0798
  486DPG3   C3A 6498  26.421  21.574   3.269  0.1280  0.3530  0.0985
  486DPG3   C1B 6499  26.700  22.091   4.372  0.0175 -0.0940 -0.0136
  486DPG3   C2B 6500  26.289  22.238   4.198 -0.0409 -0.3111  0.1031
  486DPG3   C3B 6501  25.930  22.067   3.961 -0.2153 -0.0321  0.1928
  486DPG3   C4B 6502  25.592  21.849   3.742  0.2308 -0.1609 -0.0970
  487DPG3   GM1 6503   3.167  20.471  12.119 -0.2820 -0.0920 -0.1536
  487DPG3   GM2 6504   3.340  20.800  12.169 -0.2922 -0.0874 -0.1463
  487DPG3   GM3 6505   3.033  20.759  12.208 -0.1568 -0.0102 -0.2279
  487DPG3   GM4 6506   3.094  21.108  12.252 -0.1091  0.0307 -0.0614
  487DPG3   GM5 6507   2.847  20.894  12.477  0.0026 -0.0414 -0.0069
  487DPG3   GM6 6508   2.871  21.205  12.358  0.0168  0.0229  0.2140
  487DPG3  GM13 6509   2.943  21.544  12.424  0.0285  0.1788 -0.1583
  487DPG3  GM14 6510   3.196  21.471  12.654 -0.0430  0.3204 -0.0337
  487DPG3  GM15 6511   2.857  21.371  12.752 -0.1147  0.6442  0.0542
  487DPG3  GM16 6512   3.097  21.435  12.953 -0.2302  0.1238 -0.2201
  487DPG3  GM17 6513   2.569  21.346  12.753  0.0587  0.0117 -0.1507
  487DPG3   AM1 6514   3.361  20.344  11.730  0.1496 -0.2483  0.1566
  487DPG3   AM2 6515   3.536  20.164  11.960  0.1863 -0.2176  0.1817
  487DPG3   T1A 6516   3.806  20.441  11.540  0.1015 -0.1826  0.1614
  487DPG3   C2A 6517   4.330  20.440  11.537 -0.1100 -0.0807 -0.1165
  487DPG3   C3A 6518   4.668  20.719  11.374  0.1118  0.0827  0.2021
  487DPG3   C1B 6519   3.882  20.256  12.010 -0.0224  0.1175 -0.1601
  487DPG3   C2B 6520   4.323  20.198  12.053 -0.1610  0.0867  0.0533
  487DPG3   C3B 6521   4.654  20.229  11.839 -0.1883 -0.1086  0.2952
  487DPG3   C4B 6522   5.013  20.490  11.668  0.1875 -0.2557  0.1129
  488DPG3   GM1 6523  32.885  23.044   5.854 -0.2028  0.2159 -0.4155
  488DPG3   GM2 6524  32.596  23.271   5.781 -0.2133  0.3808  0.1173
  488DPG3   GM3 6525  32.589  23.011   5.996  0.0938 -0.2246  0.1237
  488DPG3   GM4 6526  32.263  23.131   6.037 -0.1348 -0.0778  0.0003
  488DPG3   GM5 6527  32.459  22.850   6.237 -0.1870  0.0834  0.2814
  488DPG3   GM6 6528  32.165  22.948   6.202  0.0065 -0.2726 -0.1289
  488DPG3  GM13 6529  31.846  23.066   6.338  0.3606 -0.0903 -0.0768
  488DPG3  GM14 6530  32.041  23.355   6.370 -0.0760  0.1718  0.2730
  488DPG3  GM15 6531  32.136  23.073   6.586  0.2301  0.1171  0.0704
  488DPG3  GM16 6532  32.141  23.397   6.661 -0.0291 -0.0018  0.0474
  488DPG3  GM17 6533  32.117  22.857   6.764  0.2257  0.1284 -0.0317
  488DPG3   AM1 6534  33.062  22.973   5.431  0.1259 -0.0320  0.3241
  488DPG3   AM2 6535  32.947  23.336   5.400  0.2510  0.2147  0.3794
  488DPG3   T1A 6536  33.251  23.029   5.012  0.2393  0.0309  0.1020
  488DPG3   C2A 6537  33.512  23.238   4.751  0.0604 -0.0261 -0.1140
  488DPG3   C3A 6538  33.762  23.428   4.512 -0.1434  0.0858 -0.0018
  488DPG3   C1B 6539  33.193  23.602   5.308 -0.0171  0.0967 -0.0633
  488DPG3   C2B 6540  33.481  23.801   5.041 -0.0150 -0.1188  0.3734
  488DPG3   C3B 6541  33.759  23.861   4.777  0.0836  0.1795  0.1555
  488DPG3   C4B 6542  34.109  23.798   4.578  0.0603 -0.2774  0.0601
  489DPG3   GM1 6543  31.852  18.939   4.700  0.0712  0.0835 -0.2533
  489DPG3   GM2 6544  31.619  18.881   4.411  0.1726  0.0337 -0.3253
  489DPG3   GM3 6545  31.532  18.860   4.726  0.0763  0.0563 -0.2711
  489DPG3   GM4 6546  31.208  18.809   4.613  0.0065  0.0079  0.0779
  489DPG3   GM5 6547  31.267  18.978   4.967  0.2027  0.2328 -0.0601
  489DPG3   GM6 6548  31.042  18.792   4.818  0.0503  0.0412  0.1165
  489DPG3  GM13 6549  30.746  18.664   4.661 -0.0956  0.0317 -0.1974
  489DPG3  GM14 6550  30.739  19.002   4.570  0.0226  0.0883 -0.0011
  489DPG3  GM15 6551  30.692  18.932   4.927 -0.0106 -0.1037 -0.0426
  489DPG3  GM16 6552  30.503  19.164   4.693 -0.0783 -0.2348  0.0849
  489DPG3  GM17 6553  30.572  18.805   5.138 -0.0470  0.1670  0.1620
  489DPG3   AM1 6554  32.212  18.660   4.613 -0.0715  0.0187  0.0086
  489DPG3   AM2 6555  32.059  18.657   4.295  0.0065 -0.3079  0.0114
  489DPG3   T1A 6556  32.565  18.696   4.304 -0.2699 -0.1066  0.0349
  489DPG3   C2A 6557  32.710  18.706   3.956 -0.1051  0.0010  0.1758
  489DPG3   C3A 6558  32.939  18.718   3.595  0.0207  0.0097  0.0018
  489DPG3   C1B 6559  32.209  18.670   3.962 -0.0825  0.2014  0.4693
  489DPG3   C2B 6560  32.481  18.859   3.594  0.0505 -0.1232  0.0349
  489DPG3   C3B 6561  32.627  18.900   3.174 -0.1111  0.1100  0.0623
  489DPG3   C4B 6562  32.621  18.852   2.689  0.2849 -0.0309  0.0504
  490DPG3   GM1 6563  29.236  22.502   4.315  0.1564  0.0634 -0.0709
  490DPG3   GM2 6564  29.202  22.343   4.653  0.1165 -0.2287 -0.2101
  490DPG3   GM3 6565  29.432  22.271   4.447  0.0015  0.0886  0.2078
  490DPG3   GM4 6566  29.514  22.090   4.731 -0.2486  0.2025 -0.1995
  490DPG3   GM5 6567  29.805  22.220   4.496  0.0545 -0.1671 -0.0342
  490DPG3   GM6 6568  29.752  21.976   4.702 -0.2968  0.0728 -0.0920
  490DPG3  GM13 6569  29.818  21.801   5.011 -0.0988  0.1746 -0.1577
  490DPG3  GM14 6570  29.878  22.113   5.156  0.0199  0.0310  0.1064
  490DPG3  GM15 6571  30.099  22.021   4.878  0.0968  0.1093  0.1416
  490DPG3  GM16 6572  30.239  22.163   5.155 -0.1642 -0.1310 -0.2772
  490DPG3  GM17 6573  30.276  21.860   4.735  0.1399  0.3371 -0.1642
  490DPG3   AM1 6574  29.334  22.946   4.254 -0.2355 -0.1276 -0.0266
  490DPG3   AM2 6575  29.412  22.762   3.941 -0.1414  0.0147  0.2035
  490DPG3   T1A 6576  29.242  23.313   3.994  0.1087  0.0285 -0.1924
  490DPG3   C2A 6577  29.090  23.665   3.961 -0.0055 -0.1222  0.1309
  490DPG3   C3A 6578  28.971  23.907   3.656  0.0426 -0.0333  0.1981
  490DPG3   C1B 6579  29.457  22.902   3.609  0.1634 -0.0652 -0.0441
  490DPG3   C2B 6580  29.181  23.100   3.266 -0.1604 -0.1604 -0.0131
  490DPG3   C3B 6581  28.706  22.988   3.197  0.1003 -0.0598 -0.1025
  490DPG3   C4B 6582  28.404  22.677   3.132 -0.0059 -0.1795  0.2255
  491DPG3   GM1 6583  11.432  13.016  18.314  0.0065 -0.1379  0.0958
  491DPG3   GM2 6584  11.234  12.826  18.569 -0.0660 -0.0583  0.0992
  491DPG3   GM3 6585  11.259  13.140  18.567  0.2022  0.2032  0.0665
  491DPG3   GM4 6586  11.074  13.057  18.848 -0.0597 -0.1682  0.1933
  491DPG3   GM5 6587  10.988  13.369  18.620  0.2586 -0.1211  0.1357
  491DPG3   GM6 6588  10.922  13.262  18.921  0.1225  0.0269  0.0345
  491DPG3  GM13 6589  10.646  13.103  19.094 -0.0860 -0.2191  0.0391
  491DPG3  GM14 6590  10.665  12.821  18.888 -0.0083 -0.1592 -0.0361
  491DPG3  GM15 6591  10.541  13.127  18.728  0.2937 -0.0481 -0.0615
  491DPG3  GM16 6592  10.380  12.823  18.704  0.1391  0.0177  0.0575
  491DPG3  GM17 6593  10.374  13.366  18.763  0.0400  0.0491 -0.2096
  491DPG3   AM1 6594  11.368  12.689  17.963 -0.0279 -0.5312  0.2176
  491DPG3   AM2 6595  11.660  12.794  17.774  0.1101 -0.2251  0.1293
  491DPG3   T1A 6596  11.356  12.478  17.559  0.0325  0.2885 -0.2361
  491DPG3   C2A 6597  11.381  12.286  17.136  0.0523  0.2681  0.1387
  491DPG3   C3A 6598  11.409  11.907  16.837 -0.1291  0.0044 -0.1085
  491DPG3   C1B 6599  11.720  12.784  17.407 -0.1354  0.3173  0.1177
  491DPG3   C2B 6600  11.753  12.622  17.029 -0.1735 -0.0966  0.3147
  491DPG3   C3B 6601  12.096  12.611  16.750 -0.4906  0.0921  0.1700
  491DPG3   C4B 6602  12.276  12.687  16.374 -0.2132  0.2356 -0.0317
  492PXSU    S1 6603  32.118  23.873   6.394  0.1462 -0.1604 -0.4659
  492PXSU    C1 6604  32.200  23.829   6.914 -0.1269 -0.2567 -0.2087
  492PXSU    C2 6605  32.201  23.957   6.643 -0.1595 -0.0200 -0.0974
  492PXSU    C3 6606  32.429  24.005   6.833 -0.1395 -0.1803 -0.0804
  492PXSU   AM1 6607  32.576  24.262   6.550 -0.3297 -0.0799  0.0863
  492PXSU   AM2 6608  32.829  24.088   6.573  0.0625 -0.0246  0.1056
  492PXSU   T1A 6609  32.540  24.572   6.270  0.2260  0.0621 -0.4257
  492PXSU   C2A 6610  32.783  24.879   6.026 -0.0839 -0.2034  0.0996
  492PXSU   C3A 6611  33.083  25.274   5.845  0.2427  0.3218 -0.0136
  492PXSU   C1B 6612  33.071  24.368   6.331 -0.0546 -0.1555  0.0566
  492PXSU   C2B 6613  33.217  24.595   6.045 -0.0172 -0.2782  0.2524
  492PXSU   C3B 6614  33.498  24.778   5.906 -0.3819 -0.1076  0.0995
  492PXSU   C4B 6615  33.893  24.920   5.917  0.0329 -0.1348 -0.1166
  492PXSU   C5B 6616  34.283  25.151   5.737  0.3298  0.1284  0.3338
  492PXSU   C6B 6617  34.713  25.140   5.724  0.2797  0.1072  0.3531
  493PXSU    S1 6618  30.663  22.161   4.633  0.0364 -0.1298  0.1134
  493PXSU    C1 6619  30.776  22.410   5.099  0.0673  0.2067  0.1391
  493PXSU    C2 6620  30.759  22.312   4.816 -0.0679 -0.2903  0.3148
  493PXSU    C3 6621  30.832  22.598   4.871  0.0561 -0.2136 -0.2164
  493PXSU   AM1 6622  30.639  22.901   4.651 -0.1491 -0.0959 -0.0447
  493PXSU   AM2 6623  30.691  22.687   4.443  0.0238 -0.0306 -0.0326
  493PXSU   T1A 6624  30.627  23.158   4.319 -0.3489  0.4706 -0.2686
  493PXSU   C2A 6625  30.714  23.389   3.978  0.0366  0.2708  0.2705
  493PXSU   C3A 6626  30.759  23.482   3.588  0.0515  0.0981 -0.0412
  493PXSU   C1B 6627  30.733  22.751   3.991 -0.0828 -0.0171  0.2651
  493PXSU   C2B 6628  30.889  22.973   3.672  0.2680  0.1806 -0.2419
  493PXSU   C3B 6629  30.859  22.873   3.224 -0.0015  0.2157 -0.0093
  493PXSU   C4B 6630  30.721  22.728   2.823  0.1191 -0.2466 -0.0964
  493PXSU   C5B 6631  30.954  22.922   2.455  0.1160 -0.3715  0.3921
  493PXSU   C6B 6632  31.023  23.407   2.356 -0.1008  0.2914  0.0789
  494PXSU    S1 6633  15.679  15.844  18.740 -0.1073 -0.0165  0.1347
  494PXSU    C1 6634  16.012  16.041  18.372  0.3019 -0.0774  0.3454
  494PXSU    C2 6635  15.815  15.879  18.530 -0.2622  0.1608 -0.0970
  494PXSU    C3 6636  15.924  15.772  18.272 -0.0095  0.1429  0.0155
  494PXSU   AM1 6637  15.625  15.942  18.007 -0.2023 -0.0171  0.0854
  494PXSU   AM2 6638  15.405  15.637  18.251  0.3506  0.1966 -0.0733
  494PXSU   T1A 6639  15.440  16.135  17.648 -0.0513  0.1556  0.1398
  494PXSU   C2A 6640  15.273  16.310  17.315  0.0884 -0.4243 -0.2901
  494PXSU   C3A 6641  15.238  16.540  16.899 -0.3138  0.0472  0.2710
  494PXSU   C1B 6642  15.170  15.571  17.914 -0.2788  0.2663  0.1200
  494PXSU   C2B 6643  15.077  15.776  17.603 -0.2662 -0.1781 -0.0360
  494PXSU   C3B 6644  14.814  15.759  17.312  0.0329  0.2590 -0.0700
  494PXSU   C4B 6645  14.729  15.755  16.953 -0.1554  0.2140  0.1043
  494PXSU   C5B 6646  14.758  16.010  16.612  0.0392 -0.2378  0.3557
  494PXSU   C6B 6647  14.470  16.345  16.696 -0.3823  0.1471 -0.0883
  495PXSU    S1 6648   2.492  21.063  10.918  0.2296 -0.1645  0.2129
  495PXSU    C1 6649   2.776  21.031  10.486 -0.2258 -0.1681  0.1421
  495PXSU    C2 6650   2.668  20.967  10.758 -0.0708 -0.0437  0.2336
  495PXSU    C3 6651   2.916  20.830  10.659 -0.0716 -0.0169  0.1941
  495PXSU   AM1 6652   3.169  20.615  10.936 -0.3380  0.0613 -0.0697
  495PXSU   AM2 6653   3.219  20.414  10.753 -0.0839  0.2011  0.1603
  495PXSU   T1A 6654   3.561  20.661  11.135  0.0861 -0.0436  0.0824
  495PXSU   C2A 6655   4.064  20.675  11.109 -0.2426 -0.2427 -0.1565
  495PXSU   C3A 6656   4.453  20.859  10.945  0.1705 -0.0526 -0.1493
  495PXSU   C1B 6657   3.735  20.425  10.743  0.2627  0.0925  0.0171
  495PXSU   C2B 6658   4.197  20.552  10.628  0.0679  0.1208  0.1425
  495PXSU   C3B 6659   4.550  20.876  10.416  0.1392  0.2434  0.1172
  495PXSU   C4B 6660   4.889  20.673  10.329 -0.3987 -0.2743  0.0686
  495PXSU   C5B 6661   5.192  20.558  10.418 -0.0368 -0.0474  0.1340
  495PXSU   C6B 6662   5.297  20.165  10.538  0.0725  0.0164  0.2603
  496PXSU    S1 6663  31.710  22.820   5.076 -0.0348  0.2026  0.1278
  496PXSU    C1 6664  31.296  22.499   5.091  0.2076  0.0055  0.0841
  496PXSU    C2 6665  31.537  22.656   5.006  0.1909 -0.0017  0.0221
  496PXSU    C3 6666  31.360  22.529   4.800  0.1511 -0.0216  0.0686
  496PXSU   AM1 6667  31.430  22.872   4.565  0.1301  0.3957  0.0805
  496PXSU   AM2 6668  31.203  22.860   4.464 -0.1402 -0.0589  0.0557
  496PXSU   T1A 6669  31.604  23.069   4.157 -0.0694 -0.0209 -0.0822
  496PXSU   C2A 6670  31.718  23.227   3.842  0.0146 -0.3186 -0.3301
  496PXSU   C3A 6671  31.661  23.494   3.538  0.1462  0.3156 -0.1674
  496PXSU   C1B 6672  31.112  23.124   4.164  0.3749 -0.2252 -0.2391
  496PXSU   C2B 6673  31.208  23.334   3.829  0.0778  0.0866  0.2603
  496PXSU   C3B 6674  31.153  23.426   3.346  0.0774 -0.0323 -0.1898
  496PXSU   C4B 6675  31.379  23.679   2.950  0.1528 -0.0461 -0.1215
  496PXSU   C5B 6676  31.470  23.563   2.516 -0.3457  0.1240  0.1950
  496PXSU   C6B 6677  31.640  23.808   2.189  0.2238  0.0069 -0.0987
  497PXSU    S1 6678  31.711  20.645   4.486 -0.0088 -0.3404 -0.1700
  497PXSU    C1 6679  31.788  21.157   4.385 -0.0935 -0.1510  0.1356
  497PXSU    C2 6680  31.794  20.858   4.356 -0.0160 -0.1338 -0.0338
  497PXSU    C3 6681  32.050  21.013   4.364 -0.0627 -0.0440 -0.2421
  497PXSU   AM1 6682  32.346  20.802   4.149 -0.2527 -0.0737 -0.1929
  497PXSU   AM2 6683  32.536  20.907   4.435 -0.3231 -0.2024 -0.1926
  497PXSU   T1A 6684  32.474  20.835   3.735  0.4624 -0.1992 -0.1949
  497PXSU   C2A 6685  32.660  20.903   3.404 -0.1309  0.0742  0.2577
  497PXSU   C3A 6686  33.021  20.969   3.114 -0.2716  0.1591 -0.1782
  497PXSU   C1B 6687  32.810  20.928   4.235  0.2479  0.1297  0.1726
  497PXSU   C2B 6688  32.926  21.034   3.901  0.0030  0.0367 -0.3025
  497PXSU   C3B 6689  33.179  21.078   3.632  0.2002  0.2310 -0.0812
  497PXSU   C4B 6690  33.551  21.098   3.502  0.0627  0.3826 -0.0248
  497PXSU   C5B 6691  33.779  21.428   3.376 -0.2239 -0.2253 -0.0373
  497PXSU   C6B 6692  34.067  21.447   3.002  0.3867  0.1349 -0.1593
  498PXSU    S1 6693  12.375   4.449  18.491  0.0228  0.0288  0.1306
  498PXSU    C1 6694  12.843   4.409  18.782  0.0198  0.0350  0.1087
  498PXSU    C2 6695  12.588   4.494  18.648  0.2577  0.0673 -0.3355
  498PXSU    C3 6696  12.824   4.680  18.654  0.2854  0.0239  0.0404
  498PXSU   AM1 6697  12.548   4.948  18.446  0.1202  0.1377  0.1606
  498PXSU   AM2 6698  12.870   5.057  18.352  0.2120  0.2446  0.4727
  498PXSU   T1A 6699  12.296   5.010  18.066  0.2247 -0.1450 -0.0022
  498PXSU   C2A 6700  12.245   5.084  17.645 -0.2113  0.1416 -0.0016
  498PXSU   C3A 6701  12.534   5.146  17.232  0.0176  0.0474 -0.0233
  498PXSU   C1B 6702  12.722   5.197  17.982 -0.1554  0.1821 -0.4382
  498PXSU   C2B 6703  12.911   5.248  17.603 -0.0213 -0.1608  0.0662
  498PXSU   C3B 6704  12.818   5.528  17.286 -0.2590  0.3479  0.1477
  498PXSU   C4B 6705  12.526   5.741  17.235  0.0678  0.2670  0.0271
  498PXSU   C5B 6706  12.416   6.101  17.064  0.3385  0.0899  0.2862
  498PXSU   C6B 6707  12.322   6.517  16.956  0.3735  0.1680  0.1420
  499PXSU    S1 6708   5.799  22.119  20.072  0.0855  0.3785 -0.1549
  499PXSU    C1 6709   5.929  22.554  20.315 -0.2313 -0.1238 -0.0079
  499PXSU    C2 6710   5.949  22.294  20.167  0.0886 -0.1154  0.0191
  499PXSU    C3 6711   6.194  22.416  20.291 -0.0027  0.3419 -0.2368
  499PXSU   AM1 6712   6.481  22.319  19.999 -0.0181  0.1719 -0.1452
  499PXSU   AM2 6713   6.769  22.108  20.077 -0.2822 -0.2572 -0.0766
  499PXSU   T1A 6714   6.861  22.515  19.816  0.0585  0.4206  0.0940
  499PXSU   C2A 6715   7.137  22.749  19.527  0.2203 -0.2583 -0.0448
  499PXSU   C3A 6716   7.450  22.762  19.354 -0.0041  0.1259 -0.0572
  499PXSU   C1B 6717   6.825  22.041  19.635  0.0362  0.3761  0.0148
  499PXSU   C2B 6718   7.065  22.191  19.366  0.1828  0.2142  0.1502
  499PXSU   C3B 6719   7.232  22.413  19.071  0.0107 -0.0453 -0.1919
  499PXSU   C4B 6720   7.583  22.484  18.838 -0.0809 -0.1717 -0.0991
  499PXSU   C5B 6721   7.521  22.420  18.400  0.4831 -0.1496  0.1840
  499PXSU   C6B 6722   7.639  22.144  18.161  0.2562  0.0651 -0.1686
  500PXSU    S1 6723  35.230  15.187   7.946  0.2162  0.0962  0.0581
  500PXSU    C1 6724  35.233  15.744   7.893  0.0579 -0.1650  0.1501
  500PXSU    C2 6725  35.217  15.450   7.947  0.2913 -0.1024  0.5804
  500PXSU    C3 6726   0.065  15.609   8.048  0.1574  0.2353  0.3668
  500PXSU   AM1 6727   0.402  15.529   7.866 -0.0356  0.0167 -0.6058
  500PXSU   AM2 6728   0.416  15.269   8.000 -0.1130  0.2746  0.0106
  500PXSU   T1A 6729   0.749  15.685   7.765  0.0982 -0.0838 -0.1946
  500PXSU   C2A 6730   1.045  15.583   7.724 -0.0246 -0.2262  0.1984
  500PXSU   C3A 6731   1.536  15.461   7.534  0.0875 -0.1618 -0.3053
  500PXSU   C1B 6732   0.796  15.113   7.747  0.2075  0.0434  0.2348
  500PXSU   C2B 6733   1.134  15.042   7.583  0.0151 -0.0613 -0.2214
  500PXSU   C3B 6734   1.518  14.973   7.422  0.0917 -0.0112  0.0774
  500PXSU   C4B 6735   1.846  14.859   7.158 -0.1467  0.2152 -0.1319
  500PXSU   C5B 6736   2.075  14.626   6.852 -0.0299 -0.0145  0.0094
  500PXSU   C6B 6737   2.381  14.314   6.855 -0.3047  0.0676  0.2013
  501PXSU    S1 6738   1.011  20.096   8.760  0.0618 -0.1486 -0.4244
  501PXSU    C1 6739   1.319  19.695   8.862 -0.0224 -0.0516 -0.0075
  501PXSU    C2 6740   1.218  19.977   8.864  0.2071  0.0319 -0.0108
  501PXSU    C3 6741   1.468  19.908   8.714  0.1072 -0.1901 -0.0779
  501PXSU   AM1 6742   1.712  20.255   8.658 -0.0759 -0.1309  0.1858
  501PXSU   AM2 6743   1.481  20.398   8.402 -0.4531  0.2126 -0.1536
  501PXSU   T1A 6744   2.109  20.136   8.509  0.1487  0.0749 -0.0824
  501PXSU   C2A 6745   2.409  20.109   8.179 -0.0830 -0.1660 -0.2672
  501PXSU   C3A 6746   2.943  20.087   8.276 -0.0849 -0.1314 -0.3315
  501PXSU   C1B 6747   1.888  20.582   8.124  0.0824  0.1300  0.0365
  501PXSU   C2B 6748   2.163  20.671   8.106 -0.0187 -0.1349  0.1350
  501PXSU   C3B 6749   2.366  20.933   7.873 -0.1561 -0.0637 -0.0001
  501PXSU   C4B 6750   2.713  20.961   7.856  0.0301  0.2089 -0.0723
  501PXSU   C5B 6751   3.030  20.673   7.919  0.0689  0.1048  0.0689
  501PXSU   C6B 6752   3.326  20.315   8.002  0.0806  0.0034 -0.3476
  502PXSU    S1 6753  25.714  24.618   7.731  0.1507 -0.0901 -0.1674
  502PXSU    C1 6754  26.173  24.736   7.610  0.0867 -0.0372 -0.2934
  502PXSU    C2 6755  25.874  24.728   7.590  0.0624 -0.1039  0.0634
  502PXSU    C3 6756  26.025  24.965   7.484 -0.1393  0.0624  0.1449
  502PXSU   AM1 6757  25.774  25.022   7.131 -0.0518 -0.0540 -0.2532
  502PXSU   AM2 6758  25.939  25.353   7.207 -0.0184 -0.1873 -0.0130
  502PXSU   T1A 6759  25.573  25.174   6.786  0.2125 -0.0082 -0.0740
  502PXSU   C2A 6760  25.394  25.442   6.541  0.0740  0.0287 -0.1098
  502PXSU   C3A 6761  25.051  25.742   6.296  0.1312  0.1374  0.0602
  502PXSU   C1B 6762  25.699  25.668   6.891  0.1837  0.0083 -0.3296
  502PXSU   C2B 6763  25.438  25.977   6.571 -0.1296  0.1081 -0.0049
  502PXSU   C3B 6764  25.021  26.199   6.466 -0.0025  0.0526 -0.0808
  502PXSU   C4B 6765  24.543  26.335   6.641 -0.1229  0.2026 -0.0325
  502PXSU   C5B 6766  24.112  26.464   6.987 -0.3366  0.1472 -0.0874
  502PXSU   C6B 6767  24.061  26.685   7.416  0.0381  0.4087  0.1725
  503PXSU    S1 6768  22.190  13.028  13.848  0.2219 -0.0586  0.2218
  503PXSU    C1 6769  22.303  12.478  13.918  0.1818  0.1712 -0.0486
  503PXSU    C2 6770  22.197  12.753  13.863 -0.2653  0.0020 -0.0544
  503PXSU    C3 6771  22.269  12.571  13.635 -0.0928  0.0657 -0.0517
  503PXSU   AM1 6772  22.097  12.451  13.267  0.2960  0.1792 -0.1280
  503PXSU   AM2 6773  22.335  12.572  13.116  0.1821  0.1713 -0.1176
  503PXSU   T1A 6774  21.635  12.519  13.131 -0.1363 -0.0968  0.0195
  503PXSU   C2A 6775  21.262  12.523  12.913 -0.1387 -0.0584  0.1044
  503PXSU   C3A 6776  20.856  12.328  12.713 -0.0628  0.3111  0.1879
  503PXSU   C1B 6777  21.966  12.642  12.775 -0.0749 -0.0067 -0.4226
  503PXSU   C2B 6778  21.598  12.517  12.576 -0.1585 -0.0215  0.1378
  503PXSU   C3B 6779  21.570  12.383  12.083 -0.1346 -0.0978  0.2353
  503PXSU   C4B 6780  21.365  12.046  11.792  0.0755 -0.1471 -0.0775
  503PXSU   C5B 6781  21.279  11.883  11.361 -0.1039 -0.0470  0.2820
  503PXSU   C6B 6782  21.211  11.781  11.059 -0.0262 -0.2185  0.0894
  504PXSU    S1 6783  33.882  12.221   6.913  0.0776  0.1486  0.0760
  504PXSU    C1 6784  34.089  11.915   7.273  0.2479  0.0089 -0.1385
  504PXSU    C2 6785  34.064  12.043   7.003  0.0467 -0.0115 -0.1298
  504PXSU    C3 6786  34.315  12.078   7.162  0.1468  0.0429 -0.2986
  504PXSU   AM1 6787  34.710  12.014   7.011 -0.0265 -0.2456 -0.0821
  504PXSU   AM2 6788  34.797  12.305   7.068 -0.2996  0.2330 -0.0108
  504PXSU   T1A 6789  34.808  11.648   6.820 -0.1565  0.3301 -0.2131
  504PXSU   C2A 6790  35.024  11.471   6.575 -0.3563  0.3311 -0.2062
  504PXSU   C3A 6791  35.374  11.468   6.501  0.2355 -0.1262 -0.1850
  504PXSU   C1B 6792  35.149  12.085   6.835 -0.1267  0.1464  0.1823
  504PXSU   C2B 6793  35.370  12.010   6.597 -0.3382 -0.0372 -0.1649
  504PXSU   C3B 6794   0.315  11.888   6.520 -0.3938  0.0216  0.1776
  504PXSU   C4B 6795   0.547  11.580   6.342 -0.3631 -0.1150 -0.1594
  504PXSU   C5B 6796   0.502  11.243   6.233 -0.2361 -0.1519  0.0858
  504PXSU   C6B 6797   0.686  10.901   6.017 -0.0741  0.1304  0.3091
  505PXSU    S1 6798  29.254  23.940   5.693 -0.0634 -0.0041 -0.0050
  505PXSU    C1 6799  29.237  23.463   5.580 -0.2267  0.0009 -0.0610
  505PXSU    C2 6800  29.254  23.754   5.509  0.0931 -0.0340 -0.1341
  505PXSU    C3 6801  29.256  23.546   5.293  0.0757 -0.0990 -0.0719
  505PXSU   AM1 6802  29.023  23.868   5.105  0.1005  0.0036  0.1178
  505PXSU   AM2 6803  28.859  23.612   4.997  0.3000  0.1945 -0.0937
  505PXSU   T1A 6804  28.719  24.175   4.949 -0.1553 -0.2450 -0.0285
  505PXSU   C2A 6805  28.573  24.543   4.696 -0.2239 -0.1938 -0.1615
  505PXSU   C3A 6806  28.351  24.621   4.356 -0.2205 -0.0689 -0.0266
  505PXSU   C1B 6807  28.752  23.735   4.679 -0.0229  0.2962 -0.1379
  505PXSU   C2B 6808  28.744  23.984   4.396  0.2107  0.0172  0.0079
  505PXSU   C3B 6809  28.710  24.226   4.037  0.0949  0.3869 -0.1004
  505PXSU   C4B 6810  28.622  24.505   3.881 -0.0596 -0.0778  0.0315
  505PXSU   C5B 6811  28.287  24.783   3.904 -0.1735 -0.1114  0.1803
  505PXSU   C6B 6812  27.995  24.930   3.660  0.0714  0.1716 -0.0191
  506PNSU    S1 6813  27.876  23.576   6.313  0.0196  0.1173 -0.2044
  506PNSU    C1 6814  28.118  24.018   6.311 -0.0530  0.0525 -0.1797
  506PNSU    C2 6815  28.018  23.761   6.193 -0.1451  0.1589 -0.3364
  506PNSU    C3 6816  27.929  24.023   6.078  0.0514  0.2601 -0.2611
  506PNSU   AM1 6817  27.634  23.868   5.813 -0.1382  0.0061  0.0935
  506PNSU   AM2 6818  27.901  24.186   5.730 -0.0038 -0.1008 -0.0355
  506PNSU   T1A 6819  27.379  23.975   5.570 -0.2464 -0.0386 -0.1488
  506PNSU   C2A 6820  27.285  24.197   5.214 -0.2191 -0.1498  0.2794
  506PNSU   C3A 6821  26.967  24.353   4.885  0.1532 -0.3823  0.0148
  506PNSU   C1B 6822  27.699  24.464   5.350  0.1058  0.0239  0.2230
  506PNSU   C2B 6823  27.476  24.578   4.945 -0.1711  0.1889  0.2372
  506PNSU   C3B 6824  27.277  24.756   4.594 -0.1317  0.0800  0.3503
  506PNSU   D4B 6825  27.405  25.087   4.284 -0.2713  0.0241  0.1760
  506PNSU   C5B 6826  27.603  25.392   4.364  0.0130 -0.0276 -0.0848
  506PNSU   C6B 6827  27.510  25.767   4.475  0.4554 -0.3396  0.0037
  507PNSU    S1 6828  11.233  14.777  18.306  0.5411  0.1341  0.0962
  507PNSU    C1 6829  11.091  14.285  18.117 -0.0565  0.0649  0.0626
  507PNSU    C2 6830  11.212  14.520  18.258 -0.4655  0.1703  0.2439
  507PNSU    C3 6831  11.182  14.524  17.960  0.0557  0.1041  0.1861
  507PNSU   AM1 6832  11.183  14.928  17.824 -0.2170 -0.0612 -0.3214
  507PNSU   AM2 6833  11.231  14.657  17.749  0.0358  0.2363  0.2544
  507PNSU   T1A 6834  11.089  15.263  17.594  0.1019 -0.1011 -0.1773
  507PNSU   C2A 6835  11.067  15.487  17.107  0.2417 -0.0004  0.0971
  507PNSU   C3A 6836  11.173  15.520  16.706 -0.2996 -0.2892 -0.0784
  507PNSU   C1B 6837  11.385  14.843  17.414  0.0847  0.2213 -0.0221
  507PNSU   C2B 6838  11.198  15.033  17.032 -0.1205  0.1377 -0.1887
  507PNSU   C3B 6839  11.147  14.996  16.637 -0.0659  0.0800  0.1060
  507PNSU   D4B 6840  10.954  15.324  16.350  0.1813  0.0222  0.2409
  507PNSU   C5B 6841  11.300  15.693  16.164 -0.3920  0.0448 -0.0351
  507PNSU   C6B 6842  11.682  15.844  16.036  0.2161 -0.0444 -0.1138
  508PNSU    S1 6843   3.147  23.056  14.829  0.0055 -0.2483  0.0503
  508PNSU    C1 6844   3.255  23.407  15.247  0.0563 -0.0980  0.0122
  508PNSU    C2 6845   3.218  23.195  15.039  0.0028  0.0818 -0.1640
  508PNSU    C3 6846   3.472  23.355  15.047  0.0584 -0.0137 -0.0083
  508PNSU   AM1 6847   3.865  23.230  14.940  0.1463  0.2039  0.0601
  508PNSU   AM2 6848   3.646  23.450  14.929  0.1849  0.2372 -0.1970
  508PNSU   T1A 6849   4.115  23.244  14.698  0.0934  0.0849 -0.1595
  508PNSU   C2A 6850   4.533  23.526  14.491  0.3425 -0.1027  0.2555
  508PNSU   C3A 6851   4.899  23.576  14.489 -0.1953  0.3158  0.2785
  508PNSU   C1B 6852   3.700  23.782  14.761  0.0131 -0.0258  0.2488
  508PNSU   C2B 6853   4.051  23.864  14.559  0.0192 -0.1451 -0.1590
  508PNSU   C3B 6854   4.454  24.007  14.425 -0.1545  0.0624  0.0680
  508PNSU   D4B 6855   4.883  24.106  14.265 -0.2141 -0.2368  0.0116
  508PNSU   C5B 6856   4.784  24.161  13.847  0.0986  0.3988 -0.3171
  508PNSU   C6B 6857   5.082  24.206  13.623 -0.1287 -0.1000 -0.4444
  509PNSU    S1 6858  29.771  21.317   4.220  0.1592  0.0740  0.2573
  509PNSU    C1 6859  29.675  20.867   3.906  0.2357  0.0190  0.2084
  509PNSU    C2 6860  29.712  21.091   4.101  0.3561  0.1215  0.0685
  509PNSU    C3 6861  29.712  21.147   3.806  0.2255 -0.0398  0.0374
  509PNSU   AM1 6862  29.568  21.548   3.793  0.3755  0.0181  0.1398
  509PNSU   AM2 6863  29.711  21.273   3.583  0.0083  0.1304  0.0599
  509PNSU   T1A 6864  29.623  21.806   3.483 -0.0212  0.3608 -0.3373
  509PNSU   C2A 6865  29.591  21.908   3.063  0.0892  0.2389  0.0002
  509PNSU   C3A 6866  29.420  22.209   2.705  0.0807 -0.1916  0.1646
  509PNSU   C1B 6867  29.763  21.347   3.213  0.3419 -0.0242  0.0819
  509PNSU   C2B 6868  29.591  21.399   2.816  0.0194 -0.0435 -0.2273
  509PNSU   C3B 6869  29.571  21.324   2.368 -0.1086 -0.3255  0.2465
  509PNSU   D4B 6870  29.478  21.311   2.006 -0.0298 -0.0090 -0.0401
  509PNSU   C5B 6871  29.262  21.042   1.665  0.3106  0.0958  0.1503
  509PNSU   C6B 6872  29.107  21.183   1.177  0.0856 -0.0811  0.1933
  510PNSU    S1 6873   3.659  23.415  16.108 -0.1189  0.1415 -0.2104
  510PNSU    C1 6874   3.365  23.200  15.689 -0.2262  0.0728  0.0415
  510PNSU    C2 6875   3.547  23.278  15.915 -0.1233 -0.2747  0.0808
  510PNSU    C3 6876   3.636  23.316  15.631 -0.1216 -0.1406  0.0992
  510PNSU   AM1 6877   3.859  23.672  15.700 -0.1987 -0.0684 -0.0239
  510PNSU   AM2 6878   3.779  23.383  15.471 -0.2532 -0.2233 -0.0343
  510PNSU   T1A 6879   4.254  23.890  15.504  0.2039 -0.1618 -0.2612
  510PNSU   C2A 6880   4.530  24.266  15.379  0.0575  0.0543 -0.0287
  510PNSU   C3A 6881   4.725  24.604  15.192  0.0420 -0.2816 -0.3125
  510PNSU   C1B 6882   4.079  23.512  15.271  0.3627 -0.0882  0.0135
  510PNSU   C2B 6883   4.258  23.768  15.033 -0.2537 -0.1072  0.0140
  510PNSU   C3B 6884   4.624  23.958  14.968  0.0024 -0.0188 -0.0383
  510PNSU   D4B 6885   5.018  24.037  14.879 -0.0626  0.0304  0.0610
  510PNSU   C5B 6886   5.069  24.474  14.855 -0.1117 -0.2118 -0.0765
  510PNSU   C6B 6887   5.129  24.808  14.981 -0.0325  0.2469  0.0907
  511PNSU    S1 6888   2.153   5.682  14.372  0.0530 -0.0326 -0.1665
  511PNSU    C1 6889   2.076   5.203  14.159 -0.0637 -0.0091 -0.1194
  511PNSU    C2 6890   2.153   5.491  14.193  0.1163 -0.0540 -0.1439
  511PNSU    C3 6891   2.338   5.301  14.051  0.0176 -0.1913 -0.0896
  511PNSU   AM1 6892   2.683   5.430  13.837 -0.0070  0.1077  0.0472
  511PNSU   AM2 6893   2.587   5.285  14.118 -0.3100  0.1674  0.0584
  511PNSU   T1A 6894   2.982   5.266  13.535 -0.3975 -0.2414 -0.0705
  511PNSU   C2A 6895   3.373   5.265  13.339 -0.1444 -0.0690  0.0773
  511PNSU   C3A 6896   3.721   5.406  13.115 -0.1479 -0.1972 -0.1474
  511PNSU   C1B 6897   3.025   5.121  13.992  0.0672  0.1921  0.2036
  511PNSU   C2B 6898   3.393   5.210  13.822  0.0466  0.1752 -0.2205
  511PNSU   C3B 6899   3.706   4.985  13.636  0.0460  0.1303  0.1111
  511PNSU   D4B 6900   4.250   4.858  13.375 -0.1084 -0.0624 -0.1363
  511PNSU   C5B 6901   4.606   5.135  13.307 -0.0641  0.0909 -0.1612
  511PNSU   C6B 6902   4.855   5.490  13.212  0.0183 -0.0320 -0.0529
  512PNSU    S1 6903  12.097  13.580  18.810 -0.1216 -0.1783 -0.0117
  512PNSU    C1 6904  11.946  13.833  18.421 -0.0761 -0.0896 -0.1660
  512PNSU    C2 6905  12.082  13.599  18.549  0.1363  0.1183 -0.0079
  512PNSU    C3 6906  12.095  13.636  18.252 -0.1720 -0.2450 -0.0697
  512PNSU   AM1 6907  12.362  13.304  18.229  0.1908  0.0643 -0.4036
  512PNSU   AM2 6908  12.217  13.607  18.073  0.0168  0.0139 -0.0790
  512PNSU   T1A 6909  12.568  13.160  17.988 -0.2198  0.0926  0.0204
  512PNSU   C2A 6910  12.701  13.147  17.550 -0.2013 -0.3175 -0.3076
  512PNSU   C3A 6911  12.844  13.057  17.089 -0.0776  0.0952  0.0698
  512PNSU   C1B 6912  12.312  13.503  17.643 -0.0582  0.0281  0.1952
  512PNSU   C2B 6913  12.469  13.460  17.237  0.0935 -0.0624  0.0352
  512PNSU   C3B 6914  12.619  13.524  16.882 -0.2840 -0.1797  0.1153
  512PNSU   D4B 6915  12.884  13.452  16.655  0.3456  0.0630  0.1391
  512PNSU   C5B 6916  12.912  13.211  16.313  0.0621  0.0857  0.1768
  512PNSU   C6B 6917  12.602  12.945  16.116 -0.3159 -0.1991  0.2363
  513PNSU    S1 6918  32.622  20.530   4.817  0.0790  0.0762  0.1090
  513PNSU    C1 6919  32.860  20.596   5.305  0.0585  0.1282 -0.0563
  513PNSU    C2 6920  32.780  20.521   5.026  0.1626 -0.3237  0.0311
  513PNSU    C3 6921  33.018  20.697   5.070  0.0370 -0.0990 -0.1702
  513PNSU   AM1 6922  32.965  20.867   4.684  0.0743  0.1380 -0.0716
  513PNSU   AM2 6923  33.184  20.771   4.903  0.1988 -0.4885  0.0303
  513PNSU   T1A 6924  33.233  21.196   4.273  0.0632 -0.2222  0.0442
  513PNSU   C2A 6925  33.543  21.314   4.015 -0.2482 -0.1279 -0.4006
  513PNSU   C3A 6926  33.835  21.705   3.861 -0.2585  0.1546 -0.0834
  513PNSU   C1B 6927  33.479  21.047   4.643 -0.0065  0.1094 -0.1825
  513PNSU   C2B 6928  33.848  21.179   4.416  0.0270  0.1718 -0.0834
  513PNSU   C3B 6929  34.008  21.088   4.055  0.1131  0.1697  0.3177
  513PNSU   D4B 6930  34.215  21.320   3.717  0.1476 -0.0268 -0.2722
  513PNSU   C5B 6931  34.359  21.760   3.738  0.1801 -0.1800  0.2351
  513PNSU   C6B 6932  34.530  21.931   3.992  0.0651  0.2096  0.4376
  514PNSU    S1 6933   1.748  29.636  17.200 -0.1144 -0.2537  0.0653
  514PNSU    C1 6934   2.010  29.876  17.592  0.1683  0.0101 -0.0297
  514PNSU    C2 6935   1.934  29.677  17.380 -0.1602  0.0513  0.0466
  514PNSU    C3 6936   2.219  29.765  17.408 -0.1056  0.0062 -0.3434
  514PNSU   AM1 6937   2.384  29.437  17.192  0.1651 -0.1119  0.0357
  514PNSU   AM2 6938   2.456  29.802  17.319  0.1234 -0.0856 -0.1652
  514PNSU   T1A 6939   2.695  29.160  17.172  0.1150  0.0691  0.2370
  514PNSU   C2A 6940   2.971  29.125  16.906  0.1705  0.0610  0.2683
  514PNSU   C3A 6941   3.332  29.172  16.752 -0.4405 -0.0092  0.0742
  514PNSU   C1B 6942   2.822  29.699  17.121  0.2012 -0.0354 -0.0811
  514PNSU   C2B 6943   3.120  29.694  16.782  0.0243 -0.0525  0.0301
  514PNSU   C3B 6944   3.243  29.532  16.418 -0.4653  0.0145 -0.0302
  514PNSU   D4B 6945   3.609  29.449  16.090 -0.0124  0.0677 -0.2846
  514PNSU   C5B 6946   4.073  29.241  16.057 -0.0506 -0.0407 -0.1764
  514PNSU   C6B 6947   4.459  29.044  16.040  0.2674  0.0942 -0.2198
  515PNSU    S1 6948   9.544  17.756  20.050 -0.1220 -0.1483 -0.2107
  515PNSU    C1 6949   9.502  17.835  19.555  0.2034  0.0628  0.0003
  515PNSU    C2 6950   9.636  17.848  19.823  0.1223  0.2255  0.0329
  515PNSU    C3 6951   9.782  17.939  19.578  0.2489 -0.0583  0.0018
  515PNSU   AM1 6952   9.868  18.352  19.635 -0.0081 -0.0284  0.1753
  515PNSU   AM2 6953   9.929  18.112  19.512 -0.1009  0.2365  0.2623
  515PNSU   T1A 6954  10.102  18.691  19.529 -0.1440 -0.1885  0.0154
  515PNSU   C2A 6955  10.083  19.039  19.425 -0.0465  0.0384 -0.1366
  515PNSU   C3A 6956  10.001  19.499  19.370  0.4547 -0.0111  0.1249
  515PNSU   C1B 6957  10.225  18.279  19.216 -0.0736 -0.0868 -0.0039
  515PNSU   C2B 6958  10.504  18.573  19.229 -0.1626  0.0958 -0.2920
  515PNSU   C3B 6959  10.636  18.904  18.933 -0.2857  0.0834 -0.1494
  515PNSU   D4B 6960  10.619  18.917  18.523  0.3819  0.2918 -0.1034
  515PNSU   C5B 6961  10.286  19.298  18.364 -0.1984  0.0089  0.2474
  515PNSU   C6B 6962  10.187  19.664  18.461 -0.3367  0.1962  0.0917
  516PNSU    S1 6963  26.976  25.855   8.053  0.1238  0.0515 -0.0858
  516PNSU    C1 6964  26.695  25.422   7.845  0.0095 -0.0410  0.0399
  516PNSU    C2 6965  26.814  25.676   7.950  0.3241 -0.1369 -0.0772
  516PNSU    C3 6966  26.739  25.654   7.661  0.0829 -0.1010 -0.0187
  516PNSU   AM1 6967  26.961  25.962   7.467 -0.1066 -0.1139 -0.2590
  516PNSU   AM2 6968  26.729  25.736   7.459  0.1586  0.0477  0.0457
  516PNSU   T1A 6969  27.050  26.258   7.194  0.0160 -0.0305  0.3192
  516PNSU   C2A 6970  26.829  26.488   6.859  0.0683  0.0530 -0.1970
  516PNSU   C3A 6971  26.639  26.656   6.564  0.1839 -0.0467 -0.3763
  516PNSU   C1B 6972  26.540  26.047   7.180 -0.1000  0.3834  0.2779
  516PNSU   C2B 6973  26.383  26.329   6.932  0.0641 -0.1627  0.1027
  516PNSU   C3B 6974  26.110  26.568   6.576 -0.0774 -0.1156 -0.1456
  516PNSU   D4B 6975  26.288  26.779   6.203 -0.0340 -0.2815 -0.2944
  516PNSU   C5B 6976  26.655  27.068   6.182 -0.0371 -0.0796  0.0134
  516PNSU   C6B 6977  26.972  27.175   6.216 -0.0670  0.1068  0.2912
  517PNSU    S1 6978   0.141  20.993   7.794  0.2028 -0.0298 -0.1046
  517PNSU    C1 6979  35.038  21.156   7.709 -0.0156 -0.2764  0.0618
  517PNSU    C2 6980  35.328  21.164   7.787 -0.0405 -0.2963  0.1563
  517PNSU    C3 6981  35.225  21.346   7.571 -0.0187 -0.0764  0.3289
  517PNSU   AM1 6982   0.201  21.259   7.362 -0.1956 -0.2959  0.1109
  517PNSU   AM2 6983   0.119  21.555   7.496  0.0790 -0.3102  0.1977
  517PNSU   T1A 6984   0.381  21.342   6.967  0.3008  0.1193 -0.1221
  517PNSU   C2A 6985   0.611  21.561   6.661  0.0607  0.2491 -0.0696
  517PNSU   C3A 6986   0.789  21.620   6.251 -0.1021  0.1207  0.1011
  517PNSU   C1B 6987   0.308  21.776   7.167  0.0265 -0.0074 -0.3966
  517PNSU   C2B 6988   0.523  22.000   6.899 -0.0503 -0.0690  0.0351
  517PNSU   C3B 6989   0.631  22.279   6.719 -0.0904 -0.2434  0.0472
  517PNSU   D4B 6990   0.837  22.470   6.396 -0.0348 -0.0140 -0.0232
  517PNSU   C5B 6991   1.209  22.465   6.517 -0.1365  0.0998 -0.1318
  517PNSU   C6B 6992   1.514  22.561   6.757  0.2571  0.0368 -0.0532
  518PNSU    S1 6993   2.150  30.335  17.525 -0.2304  0.0050  0.2759
  518PNSU    C1 6994   2.248  30.857  17.702  0.0694  0.0992 -0.1193
  518PNSU    C2 6995   2.181  30.574  17.627  0.2422 -0.0519  0.2780
  518PNSU    C3 6996   2.430  30.703  17.521  0.0818  0.0097 -0.0311
  518PNSU   AM1 6997   2.654  30.346  17.454 -0.0417 -0.0907  0.0891
  518PNSU   AM2 6998   2.707  30.680  17.575  0.2081  0.2245 -0.0881
  518PNSU   T1A 6999   2.769  30.222  16.965 -0.0301  0.4526  0.0299
  518PNSU   C2A 7000   2.933  30.115  16.519 -0.0406  0.2596  0.1980
  518PNSU   C3A 7001   2.957  30.054  16.130  0.0991  0.2787  0.3362
  518PNSU   C1B 7002   3.037  30.528  17.232  0.0337  0.1110 -0.0223
  518PNSU   C2B 7003   3.222  30.549  16.786 -0.0060 -0.1978  0.1913
  518PNSU   C3B 7004   3.365  30.395  16.336  0.1355 -0.1705 -0.3380
  518PNSU   D4B 7005   3.228  30.504  15.987  0.0067  0.2191 -0.3116
  518PNSU   C5B 7006   3.003  30.264  15.647  0.1937 -0.1802  0.3301
  518PNSU   C6B 7007   2.866  29.962  15.473 -0.2423  0.2034  0.1189
  519PNSU    S1 7008  24.601  18.303   8.148  0.0265 -0.1233 -0.0964
  519PNSU    C1 7009  24.130  18.231   7.922 -0.1832 -0.0055  0.2873
  519PNSU    C2 7010  24.374  18.366   8.032 -0.0684 -0.0703  0.1141
  519PNSU    C3 7011  24.256  18.458   7.772 -0.1786 -0.0939  0.1558
  519PNSU   AM1 7012  24.301  18.882   7.778  0.2712 -0.1357 -0.0899
  519PNSU   AM2 7013  24.242  18.583   7.531  0.2028  0.1803  0.1941
  519PNSU   T1A 7014  23.842  19.041   7.764  0.2467  0.0940 -0.2386
  519PNSU   C2A 7015  23.409  19.295   7.641  0.1297 -0.0176 -0.0373
  519PNSU   C3A 7016  22.971  19.421   7.541  0.0630  0.2699 -0.0571
  519PNSU   C1B 7017  23.773  18.560   7.664  0.0827 -0.4328 -0.1587
  519PNSU   C2B 7018  23.333  18.816   7.820 -0.1817 -0.0550  0.1746
  519PNSU   C3B 7019  22.981  18.901   7.617  0.1175 -0.2315  0.0543
  519PNSU   D4B 7020  22.545  19.067   7.751  0.0785  0.0501  0.3422
  519PNSU   C5B 7021  22.507  19.608   7.806  0.1032  0.0085 -0.2167
  519PNSU   C6B 7022  22.266  19.801   8.099  0.0802 -0.1889  0.0565
  520PNSU    S1 7023  12.418  14.580  18.464  0.1389 -0.0811  0.0855
  520PNSU    C1 7024  12.651  14.903  18.780  0.1066 -0.0914  0.1527
  520PNSU    C2 7025  12.458  14.818  18.566  0.2668 -0.0632 -0.0048
  520PNSU    C3 7026  12.592  15.085  18.549  0.1046  0.0371  0.2539
  520PNSU   AM1 7027  12.903  15.172  18.270 -0.1938  0.1439 -0.0481
  520PNSU   AM2 7028  12.651  15.270  18.431  0.0627 -0.1902  0.1050
  520PNSU   T1A 7029  13.134  15.499  17.983  0.2869 -0.0672  0.2254
  520PNSU   C2A 7030  13.278  15.846  17.764 -0.3096 -0.1706 -0.2868
  520PNSU   C3A 7031  13.385  16.010  17.394  0.2750 -0.0412  0.0814
  520PNSU   C1B 7032  12.416  15.460  17.990  0.1499 -0.1738  0.0203
  520PNSU   C2B 7033  12.277  15.552  17.710 -0.1049 -0.3116  0.1994
  520PNSU   C3B 7034  12.073  15.544  17.291  0.0228  0.1640 -0.2403
  520PNSU   D4B 7035  11.993  15.633  16.872  0.0845 -0.0126  0.0283
  520PNSU   C5B 7036  11.904  15.941  16.525  0.0031 -0.1677 -0.2446
  520PNSU   C6B 7037  12.112  16.308  16.665  0.0815 -0.3044  0.3555
  521PNSU    S1 7038   3.097  23.698  16.255  0.3010  0.0742 -0.0235
  521PNSU    C1 7039   3.163  24.065  16.663  0.0052 -0.0862  0.0516
  521PNSU    C2 7040   3.078  23.876  16.446 -0.0709  0.1316 -0.1098
  521PNSU    C3 7041   3.295  24.076  16.394  0.2120 -0.1031  0.1520
  521PNSU   AM1 7042   3.641  23.931  16.192  0.1594  0.3127 -0.2462
  521PNSU   AM2 7043   3.426  24.167  16.195  0.0174 -0.1724  0.1086
  521PNSU   T1A 7044   3.985  24.119  15.988 -0.0584  0.1607  0.1564
  521PNSU   C2A 7045   4.376  24.334  15.975 -0.3340 -0.3126  0.3842
  521PNSU   C3A 7046   4.914  24.400  15.832 -0.0363 -0.2452  0.0656
  521PNSU   C1B 7047   3.596  24.451  16.065  0.1653  0.0600 -0.2402
  521PNSU   C2B 7048   3.909  24.667  16.110  0.2457 -0.1594 -0.1283
  521PNSU   C3B 7049   4.295  24.884  15.933  0.0764 -0.1737  0.0556
  521PNSU   D4B 7050   4.620  24.767  15.710 -0.2035  0.0321  0.0593
  521PNSU   C5B 7051   5.056  24.949  15.691  0.0053  0.1095 -0.2491
  521PNSU   C6B 7052   5.230  24.680  15.436  0.0721 -0.1216 -0.1747
  522PNSU    S1 7053  26.967  24.575   6.847  0.0719 -0.0713  0.0288
  522PNSU    C1 7054  27.474  24.746   6.943  0.1009 -0.2053 -0.0004
  522PNSU    C2 7055  27.227  24.598   6.859  0.0831 -0.0953 -0.1424
  522PNSU    C3 7056  27.463  24.614   6.674  0.1042  0.0076 -0.1067
  522PNSU   AM1 7057  27.237  24.578   6.315 -0.0088 -0.4896  0.0093
  522PNSU   AM2 7058  27.626  24.608   6.445 -0.0779 -0.1031 -0.0234
  522PNSU   T1A 7059  27.098  24.866   6.019 -0.1069  0.6673  0.2861
  522PNSU   C2A 7060  26.966  25.042   5.716 -0.2157 -0.6143 -0.1559
  522PNSU   C3A 7061  26.747  25.124   5.450  0.2038  0.1619  0.3860
  522PNSU   C1B 7062  27.596  24.765   6.013  0.1991 -0.1296 -0.0751
  522PNSU   C2B 7063  27.500  24.928   5.540 -0.1381  0.2790  0.1592
  522PNSU   C3B 7064  27.294  25.202   5.416  0.0490 -0.2596  0.0932
  522PNSU   D4B 7065  27.144  25.356   5.178 -0.2045 -0.2145 -0.4332
  522PNSU   C5B 7066  26.788  25.562   5.257 -0.1089 -0.1481  0.0335
  522PNSU   C6B 7067  26.362  25.467   5.153  0.3323 -0.1437 -0.1014
  523PNSU    S1 7068  24.158  15.676   9.320  0.1891  0.2457  0.1771
  523PNSU    C1 7069  24.263  15.720   9.856  0.1150  0.0321  0.1656
  523PNSU    C2 7070  24.154  15.667   9.582  0.1729 -0.0982  0.1674
  523PNSU    C3 7071  24.006  15.568   9.823  0.0945  0.0622  0.1861
  523PNSU   AM1 7072  23.754  15.388   9.531  0.2949  0.2721 -0.1195
  523PNSU   AM2 7073  23.832  15.449   9.840  0.0596  0.1383  0.0438
  523PNSU   T1A 7074  23.286  15.333   9.577  0.0916  0.0494 -0.0988
  523PNSU   C2A 7075  22.946  15.283   9.533  0.1931 -0.0807  0.0070
  523PNSU   C3A 7076  22.552  15.308   9.481 -0.0385  0.2476  0.0748
  523PNSU   C1B 7077  23.375  15.365  10.017 -0.0263 -0.2372 -0.0502
  523PNSU   C2B 7078  22.944  15.253  10.020  0.0269 -0.2605 -0.0507
  523PNSU   C3B 7079  22.523  15.169  10.016  0.2164  0.2202  0.0315
  523PNSU   D4B 7080  21.999  15.111   9.926  0.3562 -0.0638  0.0834
  523PNSU   C5B 7081  21.776  15.368   9.650 -0.0169  0.1346 -0.0014
  523PNSU   C6B 7082  21.736  15.832   9.814 -0.0534 -0.0592  0.0762
  524PNSU    S1 7083  10.259  14.449  18.103 -0.1349  0.4584  0.0779
  524PNSU    C1 7084  10.688  14.222  17.853 -0.2680  0.0040 -0.0596
  524PNSU    C2 7085  10.475  14.404  17.963 -0.1048  0.0051  0.2609
  524PNSU    C3 7086  10.703  14.518  17.804 -0.1021  0.0589  0.3034
  524PNSU   AM1 7087  10.413  14.734  17.578 -0.0780 -0.2761 -0.0548
  524PNSU   AM2 7088  10.716  14.761  17.720  0.2111  0.3994 -0.3007
  524PNSU   T1A 7089  10.334  14.810  17.153 -0.2816 -0.0827  0.2702
  524PNSU   C2A 7090  10.276  14.766  16.692  0.0533  0.3505 -0.0936
  524PNSU   C3A 7091  10.388  15.051  16.314  0.0736 -0.0911  0.1203
  524PNSU   C1B 7092  10.846  14.886  17.376  0.1955 -0.2034  0.0380
  524PNSU   C2B 7093  10.734  14.841  16.884  0.0530 -0.1316  0.0076
  524PNSU   C3B 7094  10.776  14.803  16.389  0.0021 -0.1643  0.1236
  524PNSU   D4B 7095  10.692  14.888  15.941 -0.1903  0.1398  0.1358
  524PNSU   C5B 7096  10.547  14.492  15.732  0.1561  0.1254  0.1246
  524PNSU   C6B 7097  10.099  14.401  15.676  0.2291  0.0587  0.3092
  525PNSU    S1 7098  34.055  17.847   5.857  0.3234  0.0804  0.0768
  525PNSU    C1 7099  33.805  18.175   5.543  0.0591 -0.0684  0.2315
  525PNSU    C2 7100  34.002  17.965   5.629  0.2059 -0.0019  0.0612
  525PNSU    C3 7101  34.022  18.087   5.355 -0.2227 -0.1724 -0.0503
  525PNSU   AM1 7102  34.438  18.166   5.310 -0.2756 -0.0433 -0.3194
  525PNSU   AM2 7103  34.108  18.093   5.142  0.0115  0.0921 -0.1493
  525PNSU   T1A 7104  34.774  18.496   5.344 -0.0737  0.0255  0.3038
  525PNSU   C2A 7105  35.035  18.858   5.482 -0.1257  0.0934 -0.0261
  525PNSU   C3A 7106  35.367  19.017   5.227 -0.2626 -0.3499 -0.0461
  525PNSU   C1B 7107  34.357  18.091   4.854  0.1197  0.2426  0.1684
  525PNSU   C2B 7108  34.672  18.249   4.676  0.3338  0.0815  0.2086
  525PNSU   C3B 7109  34.767  18.538   4.364 -0.0031 -0.0308 -0.1837
  525PNSU   D4B 7110  34.973  18.621   3.994 -0.1240  0.0118  0.0956
  525PNSU   C5B 7111  35.325  18.500   3.844  0.3088 -0.2082  0.1325
  525PNSU   C6B 7112   0.348  18.664   3.831  0.0773  0.0269 -0.0639
  526PNSU    S1 7113  29.394  22.818   4.733 -0.2320 -0.1313  0.1990
  526PNSU    C1 7114  29.844  22.526   4.863  0.0164  0.3393  0.0321
  526PNSU    C2 7115  29.597  22.654   4.750  0.0586  0.1732 -0.2522
  526PNSU    C3 7116  29.863  22.696   4.616  0.1471  0.1638 -0.0802
  526PNSU   AM1 7117  29.794  22.603   4.206  0.3868  0.0153 -0.0876
  526PNSU   AM2 7118  29.788  22.796   4.338 -0.2126 -0.1228  0.2885
  526PNSU   T1A 7119  29.919  22.587   3.720 -0.0616 -0.0447 -0.0663
  526PNSU   C2A 7120  29.816  22.823   3.275 -0.1515 -0.1227 -0.2871
  526PNSU   C3A 7121  29.687  23.082   3.012  0.0844 -0.0038 -0.3431
  526PNSU   C1B 7122  29.752  23.073   3.976  0.3069 -0.3472 -0.0357
  526PNSU   C2B 7123  29.664  23.300   3.518 -0.2375  0.1378 -0.3827
  526PNSU   C3B 7124  29.807  23.492   3.288 -0.0477  0.0556  0.1291
  526PNSU   D4B 7125  29.847  23.971   3.186 -0.0435  0.0208  0.1740
  526PNSU   C5B 7126  30.035  24.050   2.854 -0.1452  0.1139  0.2502
  526PNSU   C6B 7127  30.075  24.420   2.730 -0.0590 -0.0745  0.0321
  527PNSU    S1 7128  27.435  17.473   4.252 -0.0484 -0.0711 -0.1831
  527PNSU    C1 7129  27.785  17.164   4.501  0.1372  0.0074 -0.3434
  527PNSU    C2 7130  27.526  17.274   4.396  0.0751 -0.1132 -0.3182
  527PNSU    C3 7131  27.636  17.016   4.287 -0.0383 -0.2898 -0.0213
  527PNSU   AM1 7132  27.692  17.019   3.865 -0.0948 -0.2930 -0.0288
  527PNSU   AM2 7133  27.549  16.881   4.021  0.1448  0.0098 -0.0525
  527PNSU   T1A 7134  27.745  16.738   3.594  0.0198 -0.1941  0.0768
  527PNSU   C2A 7135  27.477  16.544   3.287  0.1973  0.0515  0.0586
  527PNSU   C3A 7136  27.218  16.285   3.026  0.0640 -0.2577 -0.0312
  527PNSU   C1B 7137  27.286  16.723   3.805 -0.4567 -0.0076  0.1841
  527PNSU   C2B 7138  26.978  16.668   3.412 -0.1432 -0.0621  0.0808
  527PNSU   C3B 7139  26.808  16.571   3.041 -0.0551 -0.0384  0.1519
  527PNSU   D4B 7140  26.550  16.777   2.716  0.0544 -0.3807  0.0928
  527PNSU   C5B 7141  26.131  17.030   2.631 -0.3228  0.2069  0.2326
  527PNSU   C6B 7142  25.950  17.424   2.745  0.0155 -0.2447  0.0150
  528PNSU    S1 7143  31.317  23.199   5.639  0.0727 -0.1474 -0.0270
  528PNSU    C1 7144  31.051  22.828   5.409 -0.1499  0.1697 -0.0270
  528PNSU    C2 7145  31.254  23.048   5.434  0.0640 -0.0139 -0.1236
  528PNSU    C3 7146  31.162  22.959   5.163 -0.0158 -0.0494 -0.0851
  528PNSU   AM1 7147  31.435  23.220   4.965 -0.1013  0.0509 -0.0720
  528PNSU   AM2 7148  31.118  23.006   4.963 -0.1661 -0.0486 -0.3779
  528PNSU   T1A 7149  31.443  23.370   4.540  0.2163  0.1046  0.0265
  528PNSU   C2A 7150  31.497  23.601   4.166 -0.1867  0.1321  0.0792
  528PNSU   C3A 7151  31.701  23.874   3.863 -0.0346 -0.1774  0.2347
  528PNSU   C1B 7152  30.996  23.310   4.639 -0.0081  0.0499 -0.1909
  528PNSU   C2B 7153  31.034  23.571   4.379 -0.7081  0.3050  0.0150
  528PNSU   C3B 7154  31.076  23.846   4.014  0.1737  0.0914 -0.2068
  528PNSU   D4B 7155  31.223  24.168   3.877  0.1531  0.0564  0.0500
  528PNSU   C5B 7156  31.053  24.365   3.417  0.2390 -0.1223  0.0586
  528PNSU   C6B 7157  31.080  24.298   3.013  0.0354  0.1841  0.1781
  529PNSU    S1 7158  33.150  21.184   5.995 -0.2393  0.0341  0.0362
  529PNSU    C1 7159  32.856  21.523   5.696 -0.0957  0.1951  0.0466
  529PNSU    C2 7160  33.079  21.365   5.819 -0.1866  0.0712  0.0533
  529PNSU    C3 7161  33.123  21.508   5.559 -0.0820  0.0948  0.0836
  529PNSU   AM1 7162  33.533  21.620   5.564 -0.0225 -0.1130 -0.0641
  529PNSU   AM2 7163  33.284  21.657   5.388  0.1083  0.3737  0.2278
  529PNSU   T1A 7164  33.843  21.806   5.229  0.2496 -0.0276  0.1812
  529PNSU   C2A 7165  34.130  21.910   4.847  0.0406  0.1139  0.1835
  529PNSU   C3A 7166  34.282  21.886   4.535 -0.0335  0.2082  0.2442
  529PNSU   C1B 7167  33.434  21.644   5.007 -0.2484  0.0166 -0.0299
  529PNSU   C2B 7168  33.554  21.551   4.594  0.0701  0.1926  0.0814
  529PNSU   C3B 7169  33.871  21.666   4.417  0.1008  0.3155  0.1584
  529PNSU   D4B 7170  34.283  21.537   4.185 -0.2618 -0.0111 -0.2690
  529PNSU   C5B 7171  34.438  21.216   4.119  0.3375 -0.3605  0.1494
  529PNSU   C6B 7172  34.474  20.923   4.357  0.0501 -0.1929  0.3282
  530PNSU    S1 7173  32.730  23.852   7.164 -0.1364 -0.1517 -0.0334
  530PNSU    C1 7174  33.009  23.445   7.420 -0.0635 -0.1674 -0.1642
  530PNSU    C2 7175  32.891  23.685   7.284 -0.0751 -0.1217 -0.0749
  530PNSU    C3 7176  33.151  23.708   7.432 -0.1101 -0.1490 -0.0086
  530PNSU   AM1 7177  33.411  23.825   7.115  0.0422  0.1268  0.2145
  530PNSU   AM2 7178  33.330  23.901   7.417  0.0972  0.4340  0.0202
  530PNSU   T1A 7179  33.663  24.148   6.946  0.0124 -0.0102  0.1489
  530PNSU   C2A 7180  33.945  24.584   6.836  0.0722 -0.2076 -0.0522
  530PNSU   C3A 7181  34.328  24.951   6.746 -0.4250  0.0529  0.0388
  530PNSU   C1B 7182  33.338  24.400   7.394 -0.0674 -0.0032 -0.2301
  530PNSU   C2B 7183  33.670  24.650   7.228 -0.2907  0.0607  0.1199
  530PNSU   C3B 7184  33.881  25.024   7.078 -0.1688  0.0969 -0.2045
  530PNSU   D4B 7185  33.990  25.486   6.880 -0.0649 -0.1008  0.0750
  530PNSU   C5B 7186  34.411  25.483   6.617  0.0265  0.3219  0.2211
  530PNSU   C6B 7187  34.824  25.703   6.696 -0.0729 -0.3498 -0.0544
  531CHOL   ROH 7188  33.446  28.501  11.156  0.0869 -0.3342 -0.1588
  531CHOL    R1 7189  33.613  28.635  10.971 -0.0637 -0.2926 -0.2660
  531CHOL    R2 7190  33.517  28.741  10.734 -0.3032 -0.0428 -0.0625
  531CHOL    R3 7191  33.633  28.969  10.827 -0.0404 -0.1897 -0.0249
  531CHOL    R4 7192  33.564  29.028  10.548 -0.4051  0.0954  0.1237
  531CHOL    R5 7193  33.760  29.051  10.642 -0.2583 -0.0994 -0.1352
  531CHOL    C1 7194  33.701  29.410  10.527 -0.2187  0.0384  0.2672
  531CHOL    C2 7195  33.632  29.657  10.285 -0.1475 -0.0095 -0.1607
  532CHOL   ROH 7196  32.116  17.414   4.308  0.2289  0.1465 -0.0169
  532CHOL    R1 7197  32.128  17.249   4.079  0.1057  0.0528  0.0436
  532CHOL    R2 7198  31.902  17.168   3.942  0.0392  0.0954  0.1265
  532CHOL    R3 7199  32.032  17.274   3.728  0.0359 -0.0411  0.0559
  532CHOL    R4 7200  31.881  17.049   3.618 -0.0076 -0.0786  0.1933
  532CHOL    R5 7201  32.095  17.084   3.596 -0.0050 -0.1228  0.1541
  532CHOL    C1 7202  31.991  17.079   3.229 -0.0384 -0.3085  0.1659
  532CHOL    C2 7203  32.175  17.165   2.847  0.2296  0.0365 -0.0585
  533CHOL   ROH 7204   6.051  13.906  15.814 -0.0535  0.3322  0.0446
  533CHOL    R1 7205   6.078  13.868  15.535  0.0839  0.1657  0.0800
  533CHOL    R2 7206   5.964  14.038  15.350  0.0404 -0.0350 -0.0779
  533CHOL    R3 7207   6.218  14.053  15.255  0.0683  0.0762  0.0129
  533CHOL    R4 7208   6.054  14.182  15.049  0.0775 -0.0378 -0.0683
  533CHOL    R5 7209   6.195  14.019  15.019  0.1706  0.0269  0.0092
  533CHOL    C1 7210   6.345  14.280  14.784  0.1253  0.0650  0.0225
  533CHOL    C2 7211   6.539  14.415  14.440  0.1188  0.2017  0.1070
  534CHOL   ROH 7212  18.716  30.562  11.112 -0.2236  0.1181  0.0080
  534CHOL    R1 7213  18.826  30.493  11.364 -0.0393  0.0502 -0.0901
  534CHOL    R2 7214  19.061  30.602  11.459 -0.1043  0.2207 -0.1207
  534CHOL    R3 7215  18.907  30.665  11.674 -0.0725 -0.0848 -0.0059
  534CHOL    R4 7216  19.182  30.695  11.769 -0.0593  0.2375 -0.1434
  534CHOL    R5 7217  19.026  30.575  11.861  0.1501 -0.0151 -0.1128
  534CHOL    C1 7218  19.109  30.809  12.151 -0.0038 -0.0396 -0.0489
  534CHOL    C2 7219  19.370  30.988  12.415  0.1906 -0.2008  0.1670
  535CHOL   ROH 7220   6.821  10.916  16.384  0.0238  0.0829  0.1883
  535CHOL    R1 7221   6.943  11.063  16.175 -0.0204  0.0813  0.1614
  535CHOL    R2 7222   7.203  11.019  16.094  0.0030  0.1648  0.1895
  535CHOL    R3 7223   7.088  10.989  15.850  0.0308  0.0605  0.1888
  535CHOL    R4 7224   7.376  10.996  15.796  0.0246  0.3691  0.1854
  535CHOL    R5 7225   7.224  11.122  15.704 -0.1104  0.2156  0.1965
  535CHOL    C1 7226   7.369  10.954  15.393  0.0631  0.3902  0.1823
  535CHOL    C2 7227   7.466  11.163  15.076 -0.0588 -0.0105  0.1556
  536CHOL   ROH 7228  33.111  32.772  10.174 -0.0155  0.0562 -0.1221
  536CHOL    R1 7229  33.093  33.039  10.081 -0.0141  0.1022  0.0072
  536CHOL    R2 7230  33.162  33.112   9.824  0.0633  0.2398  0.0671
  536CHOL    R3 7231  32.911  33.216   9.820  0.0524  0.2143  0.0364
  536CHOL    R4 7232  33.044  33.335   9.588 -0.0217  0.0000 -0.1199
  536CHOL    R5 7233  32.942  33.443   9.748  0.0137  0.1480 -0.1938
  536CHOL    C1 7234  32.740  33.564   9.447 -0.0822 -0.1632 -0.2578
  536CHOL    C2 7235  32.333  33.694   9.389  0.0676  0.1641  0.1092
  537CHOL   ROH 7236  20.855  30.722   8.467 -0.2059 -0.0529 -0.0664
  537CHOL    R1 7237  21.104  30.600   8.523 -0.1619  0.0494 -0.0355
  537CHOL    R2 7238  21.290  30.713   8.693 -0.2480  0.1037  0.0265
  537CHOL    R3 7239  21.275  30.472   8.818 -0.1685  0.0740 -0.0215
  537CHOL    R4 7240  21.433  30.640   8.999 -0.1875  0.0732 -0.0093
  537CHOL    R5 7241  21.490  30.445   8.921 -0.1488  0.1059 -0.0573
  537CHOL    C1 7242  21.502  30.371   9.295 -0.0774  0.0274 -0.0752
  537CHOL    C2 7243  21.782  30.393   9.684 -0.0311  0.0705 -0.3776
  538CHOL   ROH 7244  22.009  10.646   7.744 -0.0651  0.0721  0.1179
  538CHOL    R1 7245  22.221  10.544   7.901 -0.0368 -0.1405 -0.0561
  538CHOL    R2 7246  22.450  10.435   7.790 -0.0280  0.0659 -0.2453
  538CHOL    R3 7247  22.575  10.618   7.948 -0.0445 -0.1577  0.0295
  538CHOL    R4 7248  22.784  10.426   7.875  0.0019  0.0408 -0.3652
  538CHOL    R5 7249  22.730  10.488   8.077  0.0423 -0.3237 -0.2391
  538CHOL    C1 7250  23.097  10.592   8.073  0.0039 -0.1837 -0.1768
  538CHOL    C2 7251  23.495  10.508   8.142  0.0556  0.1261  0.1131
  539CHOL   ROH 7252  18.226   5.835  13.196 -0.0208 -0.2120 -0.0160
  539CHOL    R1 7253  18.255   5.647  13.405  0.0513 -0.2819 -0.0886
  539CHOL    R2 7254  18.484   5.496  13.439  0.1520 -0.1292 -0.0825
  539CHOL    R3 7255  18.477   5.600  13.690 -0.0035 -0.2424 -0.0395
  539CHOL    R4 7256  18.731   5.454  13.677  0.2201  0.1503 -0.1021
  539CHOL    R5 7257  18.575   5.430  13.827  0.2575 -0.1498 -0.1101
  539CHOL    C1 7258  18.868   5.527  14.052  0.1139  0.2068 -0.0732
  539CHOL    C2 7259  18.811   5.289  14.413  0.2711  0.0990 -0.1937
  540CHOL   ROH 7260   0.056  27.757   8.155 -0.1208  0.2390  0.2575
  540CHOL    R1 7261  35.361  27.525   8.296 -0.1250  0.0000 -0.1296
  540CHOL    R2 7262  35.178  27.533   8.502  0.1376 -0.2860  0.1179
  540CHOL    R3 7263  35.051  27.344   8.353 -0.1977  0.1237 -0.1278
  540CHOL    R4 7264  34.916  27.337   8.614  0.1286 -0.3208  0.0385
  540CHOL    R5 7265  35.004  27.168   8.508 -0.1320 -0.1726 -0.4373
  540CHOL    C1 7266  34.644  27.045   8.539 -0.1899  0.0436 -0.2381
  540CHOL    C2 7267  34.244  27.034   8.478  0.0691  0.3836  0.1788
  541CHOL   ROH 7268  25.097  27.724   8.853  0.0124  0.1573  0.0450
  541CHOL    R1 7269  25.007  27.870   8.628 -0.1196  0.0614  0.0360
  541CHOL    R2 7270  25.095  27.818   8.372 -0.1324  0.0731  0.0305
  541CHOL    R3 7271  24.829  27.796   8.319 -0.1283 -0.1032  0.0795
  541CHOL    R4 7272  24.955  27.827   8.056 -0.1987  0.0330  0.0584
  541CHOL    R5 7273  24.792  27.947   8.137 -0.2680 -0.0942  0.1129
  541CHOL    C1 7274  24.625  27.811   7.822 -0.2334 -0.1559  0.1206
  541CHOL    C2 7275  24.262  27.888   7.671  0.2626  0.0859  0.2309
  542CHOL   ROH 7276   3.348  10.876   8.196  0.1523  0.0171  0.0499
  542CHOL    R1 7277   3.214  11.034   8.389 -0.0432 -0.0058 -0.0649
  542CHOL    R2 7278   2.939  11.041   8.410 -0.0559 -0.3119 -0.0883
  542CHOL    R3 7279   2.989  10.973   8.669  0.0087 -0.0795 -0.0393
  542CHOL    R4 7280   2.710  11.065   8.668 -0.0166 -0.1603 -0.0674
  542CHOL    R5 7281   2.870  11.138   8.797 -0.0152 -0.0057 -0.1567
  542CHOL    C1 7282   2.624  11.016   9.061  0.0669  0.1461 -0.0094
  542CHOL    C2 7283   2.401  10.685   9.308 -0.3425  0.0102  0.0326
  543CHOL   ROH 7284   3.701  15.998   6.938  0.0284  0.2361 -0.0647
  543CHOL    R1 7285   3.430  16.051   6.999 -0.0334  0.1543 -0.2638
  543CHOL    R2 7286   3.221  15.943   6.855  0.0990 -0.2149 -0.1843
  543CHOL    R3 7287   3.139  15.857   7.099  0.0536  0.1163 -0.0804
  543CHOL    R4 7288   2.897  15.851   6.932  0.1421 -0.3820 -0.2007
  543CHOL    R5 7289   2.920  15.952   7.124 -0.0483 -0.0381 -0.3529
  543CHOL    C1 7290   2.631  15.717   7.207  0.1245 -0.1683 -0.1128
  543CHOL    C2 7291   2.279  15.591   6.921  0.4666 -0.4793  0.0805
  544CHOL   ROH 7292  32.460  19.161   3.980  0.0022  0.0820 -0.0379
  544CHOL    R1 7293  32.415  19.296   3.735  0.0282  0.0938 -0.0363
  544CHOL    R2 7294  32.601  19.468   3.624  0.1279 -0.0615 -0.1127
  544CHOL    R3 7295  32.572  19.306   3.406 -0.0683 -0.0606 -0.0882
  544CHOL    R4 7296  32.756  19.517   3.319 -0.1785 -0.0364 -0.2671
  544CHOL    R5 7297  32.571  19.457   3.220 -0.2712 -0.0566 -0.0853
  544CHOL    C1 7298  32.819  19.395   2.938 -0.5423 -0.0209 -0.3340
  544CHOL    C2 7299  33.015  19.455   2.572 -0.0438  0.1131 -0.0970
  545CHOL   ROH 7300   5.019  31.990  14.541 -0.0360 -0.0107 -0.1176
  545CHOL    R1 7301   4.976  31.833  14.773  0.0302  0.0704 -0.0501
  545CHOL    R2 7302   5.058  31.913  15.024 -0.0355  0.2307 -0.0782
  545CHOL    R3 7303   4.798  31.871  15.088 -0.0181  0.1163 -0.0829
  545CHOL    R4 7304   4.924  31.951  15.340 -0.0104 -0.0536 -0.0329
  545CHOL    R5 7305   4.806  31.771  15.306  0.0295 -0.0551 -0.1627
  545CHOL    C1 7306   4.602  31.932  15.585  0.0204 -0.3266 -0.0108
  545CHOL    C2 7307   4.334  31.956  15.782 -0.2947  0.0953  0.0581
  546CHOL   ROH 7308  23.136   9.851   5.988  0.0998 -0.0260 -0.0658
  546CHOL    R1 7309  23.298  10.071   6.061  0.0364  0.0130 -0.0414
  546CHOL    R2 7310  23.377  10.119   6.321  0.0819 -0.0341 -0.0468
  546CHOL    R3 7311  23.626  10.119   6.212  0.0555  0.0899 -0.1071
  546CHOL    R4 7312  23.664  10.218   6.485  0.1129 -0.1629 -0.0219
  546CHOL    R5 7313  23.730  10.316   6.301  0.0601  0.0157  0.0527
  546CHOL    C1 7314  24.066  10.277   6.478  0.1057 -0.1218 -0.0639
  546CHOL    C2 7315  24.241  10.202   6.664  0.0657  0.3061  0.1800
  547CHOL   ROH 7316   9.430  26.200  21.032  0.0140  0.2495 -0.0505
  547CHOL    R1 7317   9.556  26.154  20.783 -0.1508  0.2396 -0.1326
  547CHOL    R2 7318   9.714  25.933  20.734 -0.0008  0.3500 -0.1561
  547CHOL    R3 7319   9.545  25.898  20.524 -0.1456  0.1073 -0.0024
  547CHOL    R4 7320   9.805  25.805  20.426 -0.1547  0.2514 -0.1610
  547CHOL    R5 7321   9.676  25.954  20.332 -0.3435  0.1028 -0.1396
  547CHOL    C1 7322   9.699  25.698  20.050 -0.3804 -0.0337 -0.0195
  547CHOL    C2 7323   9.943  25.626  19.863  0.3410  0.1914 -0.0003
  548CHOL   ROH 7324   0.146  23.478   3.676  0.1867  0.0695  0.0346
  548CHOL    R1 7325   0.132  23.508   3.957 -0.0098  0.0500  0.0282
  548CHOL    R2 7326   0.298  23.679   4.096 -0.0338 -0.0401  0.1679
  548CHOL    R3 7327   0.063  23.778   4.191 -0.0593  0.0608  0.0013
  548CHOL    R4 7328   0.255  23.821   4.409 -0.1933 -0.0238  0.1389
  548CHOL    R5 7329   0.063  23.718   4.423 -0.2492  0.0584  0.0019
  548CHOL    C1 7330   0.010  23.996   4.679 -0.3100  0.0801 -0.0343
  548CHOL    C2 7331  35.142  24.113   4.970  0.0009  0.0841  0.0529
  549CHOL   ROH 7332  12.307   6.554  15.214 -0.1613  0.2280  0.2657
  549CHOL    R1 7333  12.507   6.481  15.400 -0.0180  0.0831  0.0571
  549CHOL    R2 7334  12.497   6.554  15.667  0.3565  0.1656  0.0521
  549CHOL    R3 7335  12.525   6.287  15.708  0.1430  0.1483  0.0896
  549CHOL    R4 7336  12.547   6.406  15.975  0.3827  0.1823  0.0558
  549CHOL    R5 7337  12.689   6.270  15.881  0.2170  0.0384  0.0097
  549CHOL    C1 7338  12.602   6.069  16.193  0.1976  0.1758  0.0931
  549CHOL    C2 7339  12.579   6.226  16.608 -0.0802  0.3822  0.0727
  550CHOL   ROH 7340   9.494  18.277  19.257 -0.0311  0.1489 -0.1059
  550CHOL    R1 7341   9.749  18.371  19.178 -0.0241  0.0965 -0.1469
  550CHOL    R2 7342   9.791  18.504  18.939 -0.0582  0.1991 -0.0974
  550CHOL    R3 7343   9.899  18.693  19.101  0.0637  0.0809 -0.0405
  550CHOL    R4 7344   9.960  18.784  18.829 -0.1276  0.2720 -0.0191
  550CHOL    R5 7345  10.103  18.755  18.991 -0.0128  0.1518 -0.1413
  550CHOL    C1 7346  10.161  19.125  18.916 -0.0535  0.2039  0.0800
  550CHOL    C2 7347  10.200  19.500  18.924  0.1738 -0.0247  0.1089
  551CHOL   ROH 7348   8.565  26.582  20.879  0.1440  0.3836 -0.1911
  551CHOL    R1 7349   8.586  26.706  20.626  0.0523  0.3454 -0.2174
  551CHOL    R2 7350   8.742  26.602  20.422  0.0597  0.3705 -0.2236
  551CHOL    R3 7351   8.510  26.617  20.281  0.0301  0.2522 -0.1888
  551CHOL    R4 7352   8.697  26.480  20.102 -0.0574 -0.0563 -0.0488
  551CHOL    R5 7353   8.580  26.658  20.056 -0.0105 -0.0795 -0.2653
  551CHOL    C1 7354   8.453  26.424  19.783 -0.1533 -0.4161  0.0856
  551CHOL    C2 7355   8.383  26.540  19.495  0.1673 -0.2753  0.1180
  552CHOL   ROH 7356  22.302  20.382  13.461  0.3475  0.0239 -0.4023
  552CHOL    R1 7357  22.037  20.399  13.365  0.2317 -0.1404 -0.1183
  552CHOL    R2 7358  21.961  20.576  13.167 -0.1586  0.0396  0.1824
  552CHOL    R3 7359  21.867  20.352  13.047 -0.0269  0.0902 -0.0158
  552CHOL    R4 7360  21.688  20.566  12.955 -0.0448  0.0916  0.0328
  552CHOL    R5 7361  21.629  20.378  13.049 -0.0355  0.0120 -0.1229
  552CHOL    C1 7362  21.441  20.348  12.719  0.1453  0.1689 -0.2402
  552CHOL    C2 7363  21.109  20.244  12.849  0.4452  0.2377  0.1651
  553CHOL   ROH 7364   3.397  21.957  11.568 -0.0778 -0.0496 -0.0596
  553CHOL    R1 7365   3.655  21.970  11.452 -0.0702 -0.0481 -0.0430
  553CHOL    R2 7366   3.768  22.207  11.368 -0.1251 -0.0652 -0.1676
  553CHOL    R3 7367   3.973  22.129  11.529 -0.1195  0.0809 -0.1036
  553CHOL    R4 7368   4.104  22.257  11.300 -0.1269 -0.1398 -0.2321
  553CHOL    R5 7369   4.144  22.057  11.378 -0.1297 -0.0681 -0.0449
  553CHOL    C1 7370   4.491  22.212  11.413 -0.1228 -0.0464 -0.2096
  553CHOL    C2 7371   4.701  21.993  11.348  0.1192 -0.0618 -0.0382
  554CHOL   ROH 7372  16.276   9.794  17.819  0.1816 -0.1793 -0.0383
  554CHOL    R1 7373  16.150   9.901  17.590  0.0450 -0.1129  0.0675
  554CHOL    R2 7374  16.273  10.085  17.424 -0.0744 -0.0234  0.0782
  554CHOL    R3 7375  16.211   9.904  17.231 -0.1363  0.0417  0.0368
  554CHOL    R4 7376  16.288  10.146  17.085 -0.1492  0.0821  0.0937
  554CHOL    R5 7377  16.102  10.034  17.061 -0.1654  0.1054  0.1026
  554CHOL    C1 7378  16.238  10.013  16.705 -0.2507  0.2048  0.0640
  554CHOL    C2 7379  16.250  10.245  16.384  0.0433 -0.0167 -0.0515
  555CHOL   ROH 7380  16.372   9.565  14.244 -0.0385 -0.0136 -0.1350
  555CHOL    R1 7381  16.441   9.478  14.504  0.0029 -0.0414 -0.1554
  555CHOL    R2 7382  16.406   9.635  14.728  0.0746 -0.0507 -0.1375
  555CHOL    R3 7383  16.266   9.420  14.818  0.0602 -0.0350 -0.1224
  555CHOL    R4 7384  16.370   9.548  15.061  0.2457 -0.1464 -0.1439
  555CHOL    R5 7385  16.395   9.339  15.003  0.1451 -0.1354 -0.2254
  555CHOL    C1 7386  16.219   9.295  15.339  0.3317 -0.1871 -0.1335
  555CHOL    C2 7387  16.562   9.383  15.451  0.3801 -0.0010 -0.3370
  556CHOL   ROH 7388  29.500  23.117   0.835 -0.0677 -0.1685 -0.0470
  556CHOL    R1 7389  29.520  23.127   1.117  0.2611 -0.0479 -0.0718
  556CHOL    R2 7390  29.350  22.985   1.283  0.0725  0.4763  0.1947
  556CHOL    R3 7391  29.583  22.890   1.386 -0.0480 -0.0549 -0.0031
  556CHOL    R4 7392  29.390  22.868   1.606  0.1245  0.5791  0.2259
  556CHOL    R5 7393  29.583  22.968   1.613  0.3962  0.0933 -0.0492
  556CHOL    C1 7394  29.632  22.711   1.891  0.0414  0.1400  0.0584
  556CHOL    C2 7395  29.498  22.456   2.153 -0.1148 -0.0871 -0.1955
  557CHOL   ROH 7396  17.041  23.093  16.076  0.0064  0.1744  0.0377
  557CHOL    R1 7397  17.133  22.944  16.299 -0.2226  0.0311  0.0381
  557CHOL    R2 7398  17.398  22.936  16.373 -0.2382 -0.3384  0.0700
  557CHOL    R3 7399  17.300  23.016  16.614 -0.1608 -0.2199  0.0628
  557CHOL    R4 7400  17.485  22.797  16.677 -0.4530 -0.4618  0.0757
  557CHOL    R5 7401  17.276  22.813  16.738 -0.4389 -0.1926  0.0536
  557CHOL    C1 7402  17.443  22.790  17.080 -0.5054 -0.4228  0.0717
  557CHOL    C2 7403  17.510  22.535  17.200  0.3894  0.1452 -0.3424
  558CHOL   ROH 7404  21.279  34.253  12.128 -0.1316 -0.0963  0.0548
  558CHOL    R1 7405  21.077  34.322  11.943 -0.0681 -0.0847 -0.0111
  558CHOL    R2 7406  21.131  34.445  11.702  0.0057  0.0205  0.0590
  558CHOL    R3 7407  20.991  34.236  11.600  0.1112  0.0180 -0.0824
  558CHOL    R4 7408  20.999  34.433  11.382 -0.0881  0.2182  0.0892
  558CHOL    R5 7409  20.821  34.338  11.465  0.0006  0.0271  0.0628
  558CHOL    C1 7410  20.791  34.229  11.101 -0.0437  0.3311 -0.0257
  558CHOL    C2 7411  20.810  34.273  10.712 -0.2817 -0.1444 -0.1410
  559CHOL   ROH 7412   7.831  16.758  16.904  0.0764 -0.0035  0.2362
  559CHOL    R1 7413   8.023  16.665  16.719  0.0952  0.0111  0.2491
  559CHOL    R2 7414   8.027  16.747  16.455  0.0104 -0.1081  0.2116
  559CHOL    R3 7415   8.285  16.813  16.512 -0.0130  0.0518  0.1390
  559CHOL    R4 7416   8.259  16.860  16.224 -0.0496 -0.2270  0.0927
  559CHOL    R5 7417   8.409  16.736  16.322  0.0076 -0.0750  0.2014
  559CHOL    C1 7418   8.635  16.986  16.144 -0.1065 -0.1465 -0.0448
  559CHOL    C2 7419   8.879  17.094  15.838  0.0382  0.0905 -0.0400
  560CHOL   ROH 7420  13.701   9.673  18.421 -0.0760  0.0956 -0.1632
  560CHOL    R1 7421  13.516   9.799  18.248 -0.0511  0.0466 -0.2258
  560CHOL    R2 7422  13.562   9.829  17.977 -0.0529 -0.1123 -0.2442
  560CHOL    R3 7423  13.321   9.705  17.955 -0.0840 -0.0655 -0.1684
  560CHOL    R4 7424  13.365   9.831  17.694 -0.0829 -0.1778 -0.2235
  560CHOL    R5 7425  13.190   9.855  17.822 -0.0638 -0.0868 -0.2131
  560CHOL    C1 7426  13.023   9.716  17.508 -0.1295 -0.1721 -0.1412
  560CHOL    C2 7427  13.065   9.723  17.203  0.0323  0.0380  0.0697
  561CHOL   ROH 7428  18.044  20.272  13.935  0.0325 -0.1195 -0.1250
  561CHOL    R1 7429  18.291  20.174  14.032 -0.0153 -0.0971  0.0205
  561CHOL    R2 7430  18.502  20.341  14.095  0.0379 -0.0997 -0.1528
  561CHOL    R3 7431  18.490  20.212  14.335 -0.0373  0.1882  0.0006
  561CHOL    R4 7432  18.751  20.346  14.335  0.1101 -0.0895 -0.2271
  561CHOL    R5 7433  18.713  20.134  14.372 -0.1095 -0.0103  0.0276
  561CHOL    C1 7434  18.884  20.228  14.700  0.0811  0.1866 -0.1264
  561CHOL    C2 7435  19.157  20.069  14.891 -0.1452  0.0047  0.1389
  562CHOL   ROH 7436   0.734  12.871   8.922 -0.0580 -0.1703 -0.0021
  562CHOL    R1 7437   0.972  12.987   8.821 -0.0815 -0.1880 -0.0778
  562CHOL    R2 7438   1.222  12.883   8.874 -0.0693 -0.1760 -0.1142
  562CHOL    R3 7439   1.245  12.883   8.603 -0.1295 -0.2275 -0.1194
  562CHOL    R4 7440   1.520  12.858   8.701 -0.0770  0.1109 -0.1714
  562CHOL    R5 7441   1.445  13.007   8.560 -0.2771 -0.0123 -0.1979
  562CHOL    C1 7442   1.714  12.843   8.345 -0.1382  0.2296 -0.2097
  562CHOL    C2 7443   1.920  12.593   8.143  0.0341  0.0497  0.3271
  563CHOL   ROH 7444   9.714   1.035  19.770 -0.0647  0.1164 -0.2067
  563CHOL    R1 7445   9.658   0.958  19.504 -0.0990 -0.0770 -0.1440
  563CHOL    R2 7446   9.808   0.770  19.368 -0.0813 -0.1313 -0.0467
  563CHOL    R3 7447   9.567   0.651  19.331 -0.0595 -0.2164  0.0788
  563CHOL    R4 7448   9.721   0.584  19.090 -0.2220  0.0007 -0.0919
  563CHOL    R5 7449   9.523   0.676  19.096 -0.2612 -0.0899  0.1270
  563CHOL    C1 7450   9.443   0.363  18.894 -0.2833 -0.0024 -0.0005
  563CHOL    C2 7451   9.343   0.126  18.601 -0.1232  0.0498 -0.2434
  564CHOL   ROH 7452  24.637  22.226   8.807  0.0199  0.0402  0.2287
  564CHOL    R1 7453  24.450  22.420   8.721  0.0576 -0.0809 -0.1326
  564CHOL    R2 7454  24.264  22.370   8.523 -0.0783 -0.4761  0.0916
  564CHOL    R3 7455  24.088  22.454   8.713  0.0677  0.0597 -0.0026
  564CHOL    R4 7456  23.926  22.422   8.470 -0.1085 -0.5714  0.1893
  564CHOL    R5 7457  23.939  22.600   8.595  0.0071 -0.2314 -0.2940
  564CHOL    C1 7458  23.565  22.531   8.617  0.0108 -0.1231  0.1578
  564CHOL    C2 7459  23.399  22.830   8.528  0.0232 -0.1766 -0.1151
  565CHOL   ROH 7460  18.848  25.768  12.081 -0.0887  0.1666 -0.4035
  565CHOL    R1 7461  18.992  26.002  12.152 -0.0700  0.0801 -0.1516
  565CHOL    R2 7462  19.116  26.031  12.397 -0.0186 -0.2168 -0.1394
  565CHOL    R3 7463  19.335  26.083  12.243 -0.0494 -0.0364 -0.1225
  565CHOL    R4 7464  19.423  26.134  12.518 -0.0174 -0.2821 -0.0873
  565CHOL    R5 7465  19.438  26.271  12.349 -0.0639 -0.1198  0.0399
  565CHOL    C1 7466  19.806  26.244  12.445 -0.0453 -0.1510 -0.0411
  565CHOL    C2 7467  19.785  26.342  12.860  0.4523 -0.2345 -0.2360
  566CHOL   ROH 7468  31.025  10.257   5.547 -0.0205 -0.0346  0.1220
  566CHOL    R1 7469  31.144  10.047   5.399  0.2464  0.0886  0.1578
  566CHOL    R2 7470  31.035   9.951   5.164  0.3093 -0.1623  0.2281
  566CHOL    R3 7471  31.282  10.005   5.065  0.1968  0.1781  0.1261
  566CHOL    R4 7472  31.162   9.821   4.870  0.4501 -0.1615  0.2890
  566CHOL    R5 7473  31.355   9.797   4.970  0.5177  0.2290  0.2566
  566CHOL    C1 7474  31.468   9.796   4.606  0.4261  0.1582  0.2286
  566CHOL    C2 7475  31.823   9.781   4.359 -0.0140 -0.0875  0.3428
  567CHOL   ROH 7476  26.763  19.085   0.613 -0.0574 -0.1662 -0.1705
  567CHOL    R1 7477  27.001  19.067   0.765 -0.0648  0.0313 -0.1340
  567CHOL    R2 7478  27.093  19.275   0.922 -0.2820  0.0943 -0.0870
  567CHOL    R3 7479  27.092  19.085   1.117 -0.1393  0.0634 -0.1164
  567CHOL    R4 7480  27.232  19.313   1.237  0.0341  0.0093 -0.2145
  567CHOL    R5 7481  27.305  19.108   1.224 -0.0284 -0.0063 -0.3194
  567CHOL    C1 7482  27.312  19.157   1.602  0.3522 -0.0689 -0.3163
  567CHOL    C2 7483  27.160  19.131   1.926  0.1814 -0.1982 -0.2386
  568CHOL   ROH 7484   0.955   8.572  11.328  0.0099  0.1360  0.1788
  568CHOL    R1 7485   1.153   8.659  11.146 -0.0323  0.0399  0.0855
  568CHOL    R2 7486   1.367   8.501  11.072 -0.0245  0.0159  0.1530
  568CHOL    R3 7487   1.278   8.554  10.820 -0.0770 -0.1623  0.1331
  568CHOL    R4 7488   1.562   8.489  10.787 -0.0005  0.1614  0.1632
  568CHOL    R5 7489   1.461   8.669  10.716 -0.2080  0.0210  0.1061
  568CHOL    C1 7490   1.593   8.533  10.385 -0.0359  0.0784  0.1509
  568CHOL    C2 7491   1.863   8.736  10.156  0.1279 -0.0326  0.0059
  569CHOL   ROH 7492  30.663   9.304   6.299  0.0365  0.0512  0.0302
  569CHOL    R1 7493  30.631   9.211   6.034 -0.0109  0.0550  0.0344
  569CHOL    R2 7494  30.843   9.184   5.859 -0.0355  0.0155  0.0096
  569CHOL    R3 7495  30.750   8.930   5.836 -0.0841  0.0323  0.0227
  569CHOL    R4 7496  30.841   9.000   5.566 -0.0364 -0.0135  0.0280
  569CHOL    R5 7497  30.644   8.925   5.621 -0.0580  0.0320  0.0104
  569CHOL    C1 7498  30.753   8.654   5.374 -0.0826 -0.0146  0.0511
  569CHOL    C2 7499  30.664   8.487   5.001  0.0522  0.1616  0.1751
  570CHOL   ROH 7500   8.467  33.167  16.658 -0.0982 -0.0807 -0.0338
  570CHOL    R1 7501   8.437  33.091  16.929 -0.0738 -0.0126 -0.0122
  570CHOL    R2 7502   8.402  33.275  17.131 -0.1374  0.0342 -0.0662
  570CHOL    R3 7503   8.182  33.125  17.186 -0.0866 -0.0251 -0.0232
  570CHOL    R4 7504   8.246  33.257  17.440 -0.2146  0.1831 -0.0961
  570CHOL    R5 7505   8.219  33.043  17.408 -0.1116  0.1472  0.0458
  570CHOL    C1 7506   7.949  33.106  17.670 -0.2122  0.2134 -0.0729
  570CHOL    C2 7507   7.626  33.165  17.869 -0.2613  0.0299 -0.1336
  571CHOL   ROH 7508   8.448  29.684  20.528 -0.1423  0.2152 -0.0304
  571CHOL    R1 7509   8.565  29.761  20.282 -0.0621  0.1451 -0.0145
  571CHOL    R2 7510   8.738  29.597  20.142 -0.0515  0.0868  0.0663
  571CHOL    R3 7511   8.562  29.641  19.939  0.0114  0.0753  0.0091
  571CHOL    R4 7512   8.812  29.563  19.806  0.0815  0.1629  0.0877
  571CHOL    R5 7513   8.695  29.743  19.767  0.0487  0.1392  0.0750
  571CHOL    C1 7514   8.690  29.584  19.420  0.2181  0.1961  0.0460
  571CHOL    C2 7515   8.522  29.522  19.063  0.1189 -0.0299 -0.2139
  572CHOL   ROH 7516  19.375   9.530  12.737 -0.1560  0.2127 -0.0121
  572CHOL    R1 7517  19.415   9.510  13.017 -0.0692  0.0187 -0.0374
  572CHOL    R2 7518  19.619   9.360  13.128  0.0655  0.0721 -0.2096
  572CHOL    R3 7519  19.679   9.594  13.253 -0.0657  0.0164 -0.0409
  572CHOL    R4 7520  19.836   9.391  13.395  0.1961  0.0272 -0.3099
  572CHOL    R5 7521  19.698   9.534  13.484  0.1219 -0.1702 -0.1030
  572CHOL    C1 7522  20.019   9.628  13.668  0.1487 -0.0512 -0.2098
  572CHOL    C2 7523  20.144   9.584  13.997 -0.0988 -0.0413  0.1423
  573CHOL   ROH 7524   2.992   4.145  14.258  0.0053  0.1927 -0.0280
  573CHOL    R1 7525   3.267   4.178  14.200  0.0532 -0.0366  0.0644
  573CHOL    R2 7526   3.432   3.965  14.138 -0.1437 -0.1562 -0.0593
  573CHOL    R3 7527   3.487   4.113  13.917  0.0565 -0.0386  0.0677
  573CHOL    R4 7528   3.661   3.878  13.894  0.0124 -0.0696  0.0549
  573CHOL    R5 7529   3.723   4.086  13.885  0.0736 -0.0798  0.2240
  573CHOL    C1 7530   3.846   3.966  13.544  0.2911  0.0912  0.2406
  573CHOL    C2 7531   3.989   4.066  13.218 -0.0848  0.2752 -0.0575
  574CHOL   ROH 7532   3.528  24.873  16.894  0.1955 -0.0713  0.2889
  574CHOL    R1 7533   3.699  25.059  16.767  0.0210 -0.1503 -0.0660
  574CHOL    R2 7534   3.962  25.095  16.843  0.0162  0.1733 -0.1968
  574CHOL    R3 7535   4.012  25.045  16.580 -0.0211 -0.2236 -0.1320
  574CHOL    R4 7536   4.264  25.153  16.685 -0.1640  0.4454 -0.4463
  574CHOL    R5 7537   4.153  25.226  16.511 -0.3884 -0.0799 -0.5354
  574CHOL    C1 7538   4.486  25.140  16.346 -0.3041  0.2310 -0.5313
  574CHOL    C2 7539   4.777  25.212  16.085  0.0813  0.1196 -0.1369
  575CHOL   ROH 7540  23.789  35.255   8.142 -0.0684  0.1300  0.2509
  575CHOL    R1 7541  24.040  35.231   8.270  0.0010 -0.0969  0.0743
  575CHOL    R2 7542  24.096  35.351   8.512  0.2809 -0.1418  0.0334
  575CHOL    R3 7543  24.165  35.098   8.585  0.1025 -0.2050 -0.0107
  575CHOL    R4 7544  24.246  35.266   8.812  0.3439 -0.2811 -0.0377
  575CHOL    R5 7545  24.372  35.125   8.702  0.1789 -0.3826 -0.1019
  575CHOL    C1 7546  24.399  34.979   9.054  0.2135 -0.4218 -0.1207
  575CHOL    C2 7547  24.433  34.925   9.422  0.2412 -0.0360  0.1569
  576CHOL   ROH 7548  19.040  27.356  10.485 -0.0488 -0.1346  0.2181
  576CHOL    R1 7549  19.311  27.282  10.519  0.0244  0.0912  0.1364
  576CHOL    R2 7550  19.509  27.465  10.577 -0.1388  0.2341  0.2490
  576CHOL    R3 7551  19.558  27.298  10.785  0.0364  0.1269  0.1231
  576CHOL    R4 7552  19.795  27.470  10.770 -0.0084  0.1835  0.0584
  576CHOL    R5 7553  19.793  27.252  10.770  0.0362  0.1822 -0.0615
  576CHOL    C1 7554  20.008  27.315  11.079  0.2321  0.0527 -0.1707
  576CHOL    C2 7555  20.361  27.439  11.171  0.1935 -0.0354 -0.3291
  577CHOL   ROH 7556  21.249   8.495  10.796 -0.1461 -0.1110  0.0133
  577CHOL    R1 7557  21.452   8.405  10.972 -0.0322  0.0731 -0.0221
  577CHOL    R2 7558  21.625   8.578  11.101 -0.3102  0.2484  0.1207
  577CHOL    R3 7559  21.536   8.449  11.324 -0.1484 -0.0422  0.0208
  577CHOL    R4 7560  21.804   8.543  11.394 -0.1366 -0.0448 -0.0176
  577CHOL    R5 7561  21.730   8.339  11.410 -0.0660 -0.0878 -0.2172
  577CHOL    C1 7562  21.825   8.403  11.774  0.1169 -0.4884 -0.1917
  577CHOL    C2 7563  22.152   8.350  12.073 -0.2771 -0.1106  0.1054
  578CHOL   ROH 7564  24.318  20.911   9.249 -0.1376 -0.1766 -0.0437
  578CHOL    R1 7565  24.075  21.055   9.264 -0.1015 -0.1154 -0.0461
  578CHOL    R2 7566  23.948  21.156   9.040 -0.1053 -0.1365 -0.0535
  578CHOL    R3 7567  23.736  21.016   9.136 -0.1269 -0.0639  0.0053
  578CHOL    R4 7568  23.626  21.176   8.916 -0.1171 -0.0835 -0.0139
  578CHOL    R5 7569  23.552  21.168   9.122 -0.0914 -0.0217 -0.0022
  578CHOL    C1 7570  23.239  21.055   8.934 -0.1446  0.0151  0.0642
  578CHOL    C2 7571  22.990  20.851   8.905 -0.0252  0.1019 -0.0933
  579CHOL   ROH 7572  10.642   8.979  15.490  0.3573 -0.0273  0.0514
  579CHOL    R1 7573  10.651   9.045  15.765  0.1563 -0.0856  0.0730
  579CHOL    R2 7574  10.423   9.084  15.916  0.0442 -0.1180 -0.0840
  579CHOL    R3 7575  10.536   8.896  16.077 -0.0717 -0.1524 -0.0428
  579CHOL    R4 7576  10.377   9.062  16.258  0.0788  0.0185 -0.0706
  579CHOL    R5 7577  10.588   9.013  16.279  0.0445 -0.1311 -0.0866
  579CHOL    C1 7578  10.456   8.873  16.608 -0.0099  0.0655 -0.0239
  579CHOL    C2 7579  10.472   8.795  16.903 -0.2718  0.3558 -0.2459
  580CHOL   ROH 7580   6.545   5.638  17.539  0.0444  0.0717  0.0637
  580CHOL    R1 7581   6.644   5.433  17.371  0.0701 -0.0223  0.1925
  580CHOL    R2 7582   6.513   5.354  17.141  0.1998 -0.0240  0.1198
  580CHOL    R3 7583   6.753   5.405  17.025  0.3092 -0.1714  0.2789
  580CHOL    R4 7584   6.620   5.219  16.841  0.1033  0.3039 -0.0645
  580CHOL    R5 7585   6.819   5.196  16.928  0.0465 -0.1129 -0.0359
  580CHOL    C1 7586   6.909   5.189  16.557  0.1497  0.3565 -0.0220
  580CHOL    C2 7587   7.183   4.840  16.402  0.3549  0.0678  0.0360
  581CHOL   ROH 7588  24.839  30.036   6.005 -0.0525  0.1737 -0.0762
  581CHOL    R1 7589  24.827  29.836   6.205 -0.0673  0.1022 -0.1487
  581CHOL    R2 7590  25.024  29.645   6.236 -0.0007  0.1797 -0.1138
  581CHOL    R3 7591  25.029  29.737   6.492 -0.1700  0.0936 -0.0782
  581CHOL    R4 7592  25.125  29.461   6.511  0.4107  0.2762 -0.1958
  581CHOL    R5 7593  24.961  29.550   6.624  0.2304 -0.1057 -0.1446
  581CHOL    C1 7594  25.188  29.440   6.910  0.4912  0.2511 -0.2102
  581CHOL    C2 7595  25.303  29.226   7.161  0.3721  0.0731  0.0608
  582CHOL   ROH 7596  31.666  16.494   4.542 -0.1485 -0.1179 -0.0434
  582CHOL    R1 7597  31.715  16.252   4.403 -0.0376 -0.0334 -0.1532
  582CHOL    R2 7598  31.548  16.158   4.205 -0.1289 -0.1446 -0.0250
  582CHOL    R3 7599  31.777  16.153   4.058 -0.2566  0.1209 -0.2378
  582CHOL    R4 7600  31.584  15.999   3.900 -0.1398 -0.3865  0.0986
  582CHOL    R5 7601  31.782  15.933   3.963  0.0435  0.0302 -0.0211
  582CHOL    C1 7602  31.820  15.902   3.585 -0.2655 -0.2780 -0.0291
  582CHOL    C2 7603  32.066  15.722   3.300  0.1609  0.2269  0.4810
  583CHOL   ROH 7604  24.487   8.413   5.657  0.3102 -0.0179 -0.2005
  583CHOL    R1 7605  24.705   8.482   5.824  0.3477 -0.3011 -0.1296
  583CHOL    R2 7606  24.672   8.603   6.070  0.4341  0.0887 -0.3062
  583CHOL    R3 7607  24.822   8.393   6.157 -0.0993 -0.1499  0.0717
  583CHOL    R4 7608  24.826   8.585   6.379  0.5236  0.3349 -0.3350
  583CHOL    R5 7609  24.999   8.495   6.282  0.2426 -0.3578 -0.2312
  583CHOL    C1 7610  25.056   8.378   6.641  0.0752  0.2546  0.0030
  583CHOL    C2 7611  25.075   8.142   6.930  0.0656 -0.0059 -0.1601
  584CHOL   ROH 7612   9.313  30.724  20.870  0.0430  0.2415 -0.0546
  584CHOL    R1 7613   9.145  30.612  20.671  0.0036  0.1993  0.0027
  584CHOL    R2 7614   8.985  30.767  20.508  0.0176  0.1679 -0.0396
  584CHOL    R3 7615   9.113  30.632  20.309 -0.0271  0.0704 -0.0024
  584CHOL    R4 7616   8.905  30.787  20.172  0.2409  0.3683 -0.0824
  584CHOL    R5 7617   8.939  30.572  20.156 -0.0121  0.3290 -0.1253
  584CHOL    C1 7618   8.979  30.672  19.790  0.3289  0.3927 -0.0729
  584CHOL    C2 7619   8.928  30.693  19.440 -0.0425  0.2789 -0.0545
  585CHOL   ROH 7620   7.601   2.181  18.575 -0.0511  0.2889 -0.0592
  585CHOL    R1 7621   7.635   2.250  18.303  0.0462  0.1806 -0.0744
  585CHOL    R2 7622   7.873   2.208  18.168  0.0490 -0.0058 -0.0127
  585CHOL    R3 7623   7.713   2.075  17.993  0.0041  0.0343 -0.0021
  585CHOL    R4 7624   7.950   2.147  17.836 -0.1203  0.2379 -0.0988
  585CHOL    R5 7625   7.742   2.190  17.785 -0.1702  0.1794  0.0523
  585CHOL    C1 7626   7.844   1.986  17.480 -0.2610  0.4175 -0.1391
  585CHOL    C2 7627   7.942   2.040  17.219  0.1025  0.2891 -0.1619
  586CHOL   ROH 7628   5.363  13.899  11.010  0.2466 -0.1215 -0.2055
  586CHOL    R1 7629   5.177  13.739  11.151  0.0267  0.1361 -0.2001
  586CHOL    R2 7630   4.915  13.708  11.069  0.1357  0.0404 -0.5166
  586CHOL    R3 7631   4.976  13.443  11.082  0.0833  0.0488  0.0039
  586CHOL    R4 7632   4.683  13.452  11.078  0.0857  0.0844 -0.5519
  586CHOL    R5 7633   4.808  13.351  11.225 -0.1954  0.2919 -0.1601
  586CHOL    C1 7634   4.605  13.055  11.095  0.0074  0.1180 -0.0839
  586CHOL    C2 7635   4.281  12.865  11.096 -0.0920 -0.1637  0.0407
  587CHOL   ROH 7636  25.547   3.459   6.994  0.2528 -0.1883  0.0101
  587CHOL    R1 7637  25.641   3.584   7.230  0.0174  0.0972 -0.0438
  587CHOL    R2 7638  25.475   3.721   7.402 -0.2833 -0.3146  0.0008
  587CHOL    R3 7639  25.582   3.553   7.587  0.2359 -0.0135 -0.0165
  587CHOL    R4 7640  25.511   3.794   7.738 -0.4528 -0.2164 -0.0020
  587CHOL    R5 7641  25.706   3.697   7.733 -0.1608  0.3500 -0.0295
  587CHOL    C1 7642  25.632   3.680   8.107 -0.0639  0.1234 -0.0200
  587CHOL    C2 7643  25.591   3.733   8.494 -0.3029  0.2535 -0.0645
  588CHOL   ROH 7644   1.803  33.478  15.860 -0.0144 -0.3342 -0.0879
  588CHOL    R1 7645   1.909  33.532  15.603  0.1250  0.0095  0.0387
  588CHOL    R2 7646   2.169  33.615  15.564  0.2314 -0.2035  0.2694
  588CHOL    R3 7647   2.177  33.402  15.395  0.0483  0.0838 -0.1063
  588CHOL    R4 7648   2.417  33.558  15.330  0.3179 -0.1366  0.3448
  588CHOL    R5 7649   2.263  33.493  15.190  0.3219  0.3300  0.1135
  588CHOL    C1 7650   2.569  33.326  15.034  0.1964  0.1722  0.0359
  588CHOL    C2 7651   2.742  33.114  14.771  0.1129  0.1862  0.0515
  589CHOL   ROH 7652  11.288  18.705  15.583  0.0037  0.0122 -0.0842
  589CHOL    R1 7653  11.173  18.500  15.741  0.0100 -0.0105 -0.1089
  589CHOL    R2 7654  11.291  18.407  15.973 -0.0017 -0.0149 -0.1034
  589CHOL    R3 7655  11.049  18.466  16.081 -0.0175 -0.0460 -0.1228
  589CHOL    R4 7656  11.145  18.235  16.235 -0.0256 -0.0654 -0.1503
  589CHOL    R5 7657  10.953  18.252  16.133 -0.0131 -0.0580 -0.1699
  589CHOL    C1 7658  10.832  18.190  16.489 -0.0541 -0.1245 -0.1956
  589CHOL    C2 7659  10.742  18.254  16.822 -0.1473  0.0280 -0.3473
  590CHOL   ROH 7660  15.355  12.881  15.275 -0.2068  0.1289  0.0260
  590CHOL    R1 7661  15.260  12.904  15.541 -0.0465  0.2085  0.0763
  590CHOL    R2 7662  15.341  12.734  15.743 -0.0100  0.2006  0.0526
  590CHOL    R3 7663  15.406  12.966  15.869  0.1659  0.1885 -0.0126
  590CHOL    R4 7664  15.413  12.762  16.080 -0.1137  0.2583  0.0708
  590CHOL    R5 7665  15.300  12.949  16.083  0.0636  0.3718 -0.0454
  590CHOL    C1 7666  15.515  12.996  16.394 -0.0090  0.2802  0.0200
  590CHOL    C2 7667  15.213  12.788  16.614 -0.1967 -0.0058 -0.1654
  591CHOL   ROH 7668  15.079   5.929  17.144  0.1076 -0.3373 -0.2870
  591CHOL    R1 7669  15.102   6.019  16.877  0.0580 -0.1812 -0.2394
  591CHOL    R2 7670  14.884   6.045  16.709  0.0359 -0.1566 -0.2073
  591CHOL    R3 7671  14.977   6.299  16.681 -0.0461 -0.1108 -0.0739
  591CHOL    R4 7672  14.819   6.250  16.439  0.0459 -0.0682 -0.1431
  591CHOL    R5 7673  15.026   6.319  16.447  0.0193  0.0031 -0.0509
  591CHOL    C1 7674  14.868   6.608  16.254 -0.0255  0.0263  0.0201
  591CHOL    C2 7675  14.681   6.689  15.866  0.0461  0.1037 -0.2227
  592CHOL   ROH 7676  34.963  28.418   7.913  0.0589 -0.0809  0.1814
  592CHOL    R1 7677  34.728  28.400   8.070  0.0744 -0.1125  0.2013
  592CHOL    R2 7678  34.526  28.220   8.016  0.0287 -0.0383  0.1297
  592CHOL    R3 7679  34.566  28.148   8.275  0.0427 -0.1863  0.0869
  592CHOL    R4 7680  34.289  28.071   8.218 -0.1228  0.2998  0.2047
  592CHOL    R5 7681  34.358  28.196   8.383  0.1770  0.1352  0.2098
  592CHOL    C1 7682  34.188  27.916   8.579 -0.1969  0.3579  0.2081
  592CHOL    C2 7683  33.943  27.904   8.842  0.0877  0.2937 -0.2267
  593CHOL   ROH 7684  24.531  23.101   9.183  0.0268 -0.0312  0.0432
  593CHOL    R1 7685  24.256  23.147   9.234  0.0385  0.0473  0.0362
  593CHOL    R2 7686  24.148  23.400   9.249  0.0810  0.0761 -0.1237
  593CHOL    R3 7687  23.978  23.304   9.059  0.0501 -0.0230 -0.0459
  593CHOL    R4 7688  23.853  23.553   9.152 -0.0616 -0.1049  0.0234
  593CHOL    R5 7689  23.760  23.356   9.144  0.0572 -0.1635  0.0608
  593CHOL    C1 7690  23.522  23.551   8.918 -0.1739 -0.3035  0.1820
  593CHOL    C2 7691  23.216  23.846   9.034  0.1571 -0.0270  0.2535
  594CHOL   ROH 7692  34.091  27.717  11.857  0.2101  0.1195 -0.0067
  594CHOL    R1 7693  34.373  27.735  11.849  0.2190 -0.0496 -0.1087
  594CHOL    R2 7694  34.526  27.595  11.667  0.0555  0.0167 -0.2990
  594CHOL    R3 7695  34.625  27.841  11.608  0.1827  0.0087 -0.1199
  594CHOL    R4 7696  34.773  27.658  11.433 -0.0603  0.0811 -0.4034
  594CHOL    R5 7697  34.858  27.804  11.570  0.1331 -0.1137 -0.3149
  594CHOL    C1 7698  35.009  27.927  11.242 -0.0069  0.1112 -0.2959
  594CHOL    C2 7699  35.248  28.133  10.973  0.0844  0.2112  0.1966
  595CHOL   ROH 7700  25.124  24.802   3.624 -0.0557 -0.0241 -0.0302
  595CHOL    R1 7701  25.366  24.867   3.755 -0.0641 -0.0717  0.0088
  595CHOL    R2 7702  25.384  25.070   3.942 -0.0574 -0.0849  0.0217
  595CHOL    R3 7703  25.488  24.873   4.098 -0.1134 -0.1099  0.0271
  595CHOL    R4 7704  25.621  25.117   4.189  0.0849 -0.1690 -0.0976
  595CHOL    R5 7705  25.718  24.933   4.125 -0.0618 -0.2493 -0.0929
  595CHOL    C1 7706  25.857  24.960   4.479  0.1149 -0.2419 -0.1620
  595CHOL    C2 7707  26.260  24.765   4.596  0.0642  0.1868 -0.2425
  596CHOL   ROH 7708   4.750  18.101  15.882  0.0781  0.0905 -0.0712
  596CHOL    R1 7709   4.930  18.180  15.678  0.0679  0.0122 -0.1104
  596CHOL    R2 7710   5.148  18.343  15.727  0.0755  0.0215 -0.1816
  596CHOL    R3 7711   5.285  18.140  15.608  0.0626 -0.0243 -0.1192
  596CHOL    R4 7712   5.477  18.361  15.624  0.1596 -0.1183  0.0609
  596CHOL    R5 7713   5.423  18.249  15.445  0.2340 -0.0597 -0.0007
  596CHOL    C1 7714   5.798  18.181  15.453  0.1966 -0.2429  0.2605
  596CHOL    C2 7715   6.225  18.149  15.320 -0.0826  0.2122  0.1523
  597CHOL   ROH 7716  18.305  18.544  13.422 -0.0140 -0.0227 -0.2375
  597CHOL    R1 7717  18.555  18.413  13.399 -0.0433 -0.1305  0.0425
  597CHOL    R2 7718  18.774  18.530  13.279 -0.0181 -0.4374 -0.2196
  597CHOL    R3 7719  18.895  18.470  13.515 -0.0292  0.0476 -0.0855
  597CHOL    R4 7720  19.114  18.481  13.320 -0.0099 -0.2659 -0.0812
  597CHOL    R5 7721  19.069  18.316  13.455  0.0206 -0.0210  0.2313
  597CHOL    C1 7722  19.425  18.396  13.565 -0.0150  0.2889  0.1253
  597CHOL    C2 7723  19.793  18.284  13.666  0.0353  0.0653 -0.2295
  598CHOL   ROH 7724  26.505  15.100   4.131 -0.1115 -0.0997  0.0569
  598CHOL    R1 7725  26.439  15.156   3.862 -0.0425 -0.2071  0.0173
  598CHOL    R2 7726  26.368  14.958   3.682 -0.1544 -0.2616  0.1209
  598CHOL    R3 7727  26.148  15.114   3.647 -0.0455 -0.1326  0.0071
  598CHOL    R4 7728  26.150  14.935   3.415  0.0841  0.0060 -0.0998
  598CHOL    R5 7729  26.140  15.153   3.411  0.1955  0.0145  0.0210
  598CHOL    C1 7730  25.817  15.068   3.226  0.3250  0.2831 -0.3351
  598CHOL    C2 7731  25.536  15.100   3.026 -0.0550  0.2000 -0.0629
  599CHOL   ROH 7732  28.946   4.910   9.053  0.0943  0.1346 -0.0068
  599CHOL    R1 7733  29.072   4.762   8.847 -0.0071 -0.0558  0.0669
  599CHOL    R2 7734  29.001   4.502   8.786 -0.2669  0.0003  0.1208
  599CHOL    R3 7735  28.969   4.603   8.536 -0.0946 -0.0336  0.0846
  599CHOL    R4 7736  28.999   4.314   8.496 -0.2230 -0.0554  0.1564
  599CHOL    R5 7737  29.115   4.471   8.399 -0.0963 -0.1346  0.1810
  599CHOL    C1 7738  28.968   4.299   8.092 -0.0352 -0.1195  0.1433
  599CHOL    C2 7739  28.712   4.247   7.812 -0.3184  0.3238  0.0204
  600CHOL   ROH 7740  27.223  10.561   6.027 -0.0039  0.0085  0.0530
  600CHOL    R1 7741  27.025  10.510   5.831  0.0917  0.0725 -0.0612
  600CHOL    R2 7742  27.077  10.527   5.560  0.2544  0.0514 -0.0346
  600CHOL    R3 7743  26.978  10.274   5.558  0.1708  0.0846 -0.0848
  600CHOL    R4 7744  26.954  10.365   5.281 -0.0051  0.2218 -0.0207
  600CHOL    R5 7745  26.794  10.283   5.404  0.0614  0.2153  0.0554
  600CHOL    C1 7746  26.789  10.033   5.116 -0.2342  0.3523 -0.0597
  600CHOL    C2 7747  26.492   9.926   4.914 -0.1049  0.0855  0.0988
  601CHOL   ROH 7748   0.452  27.344   7.889 -0.1186 -0.0396 -0.0405
  601CHOL    R1 7749   0.337  27.128   8.031 -0.0749 -0.0671 -0.0467
  601CHOL    R2 7750   0.283  27.140   8.302  0.0390 -0.1315 -0.0208
  601CHOL    R3 7751   0.033  27.070   8.223  0.0009 -0.0932  0.0657
  601CHOL    R4 7752   0.077  26.921   8.472  0.1674 -0.3099 -0.0920
  601CHOL    R5 7753   0.015  26.838   8.280  0.0644 -0.1465 -0.1300
  601CHOL    C1 7754  35.106  26.728   8.497  0.2068 -0.3773 -0.0523
  601CHOL    C2 7755  34.740  26.565   8.477 -0.1677 -0.0304  0.0777
  602CHOL   ROH 7756  19.236   7.688  16.783  0.2251  0.1048 -0.0409
  602CHOL    R1 7757  18.988   7.721  16.651  0.1768 -0.1455 -0.0154
  602CHOL    R2 7758  18.941   7.926  16.472 -0.1579  0.0104  0.2447
  602CHOL    R3 7759  18.870   7.723  16.306  0.2026  0.0986 -0.0242
  602CHOL    R4 7760  18.748   7.961  16.188 -0.1045  0.0607  0.2146
  602CHOL    R5 7761  18.646   7.775  16.240  0.1484 -0.1531 -0.0422
  602CHOL    C1 7762  18.569   7.790  15.867  0.2648  0.1727 -0.0549
  602CHOL    C2 7763  18.535   7.806  15.529 -0.0106  0.2828 -0.1770
  603CHOL   ROH 7764   6.835   4.423  14.324  0.0407 -0.0659 -0.0370
  603CHOL    R1 7765   6.640   4.317  14.499  0.0832 -0.0672  0.0095
  603CHOL    R2 7766   6.587   4.428  14.747  0.1080 -0.0385  0.0022
  603CHOL    R3 7767   6.332   4.435  14.654  0.0919 -0.0869  0.0417
  603CHOL    R4 7768   6.306   4.472  14.943  0.1395  0.0485  0.0281
  603CHOL    R5 7769   6.204   4.323  14.822  0.1218 -0.0101  0.1154
  603CHOL    C1 7770   5.903   4.505  14.969  0.1429  0.0537  0.0803
  603CHOL    C2 7771   5.728   4.345  15.156 -0.2336 -0.3470  0.0726
  604CHOL   ROH 7772  34.042   9.952   7.824  0.1836  0.1161 -0.0508
  604CHOL    R1 7773  34.040   9.674   7.880  0.0877  0.1427  0.0796
  604CHOL    R2 7774  34.183   9.491   7.730 -0.1801 -0.0074  0.0039
  604CHOL    R3 7775  34.284   9.421   7.973  0.0488  0.0477 -0.0743
  604CHOL    R4 7776  34.369   9.207   7.792 -0.2518 -0.0724 -0.0793
  604CHOL    R5 7777  34.262   9.183   7.980 -0.0610  0.0604  0.0499
  604CHOL    C1 7778  34.573   8.975   8.055 -0.0780 -0.0586 -0.2011
  604CHOL    C2 7779  34.731   8.795   8.018  0.1890  0.1634  0.2441
  605CHOL   ROH 7780  21.777   1.188  12.429 -0.0279 -0.1438 -0.1718
  605CHOL    R1 7781  21.791   1.233  12.150 -0.0338 -0.0787 -0.1618
  605CHOL    R2 7782  21.567   1.234  11.988 -0.0277 -0.1375 -0.1722
  605CHOL    R3 7783  21.660   1.478  11.915 -0.1257 -0.0827 -0.1148
  605CHOL    R4 7784  21.443   1.422  11.726 -0.0164 -0.1830 -0.2102
  605CHOL    R5 7785  21.648   1.477  11.676 -0.0242 -0.0714 -0.1200
  605CHOL    C1 7786  21.458   1.761  11.505 -0.1017 -0.1580 -0.1787
  605CHOL    C2 7787  21.500   2.041  11.334  0.2299 -0.1684 -0.0402
  606CHOL   ROH 7788  30.440  34.889  10.562  0.2588 -0.0702  0.0732
  606CHOL    R1 7789  30.624  34.931  10.352  0.1059 -0.0263 -0.0534
  606CHOL    R2 7790  30.768  34.725  10.237  0.1046  0.0139 -0.1248
  606CHOL    R3 7791  30.661  34.822  10.007 -0.0813 -0.0498 -0.0663
  606CHOL    R4 7792  30.872  34.638   9.919  0.0139  0.1118 -0.1816
  606CHOL    R5 7793  30.849  34.847   9.860 -0.1705  0.0992 -0.1572
  606CHOL    C1 7794  30.832  34.679   9.518 -0.2136  0.1084 -0.1598
  606CHOL    C2 7795  30.762  34.999   9.337  0.1224 -0.2214  0.0658
  607CHOL   ROH 7796   9.483   2.365  15.526  0.1398 -0.1379 -0.0648
  607CHOL    R1 7797   9.578   2.428  15.785  0.1246 -0.0311 -0.0851
  607CHOL    R2 7798   9.427   2.569  15.969  0.0249 -0.1554 -0.0719
  607CHOL    R3 7799   9.480   2.355  16.128  0.2473 -0.0957 -0.0632
  607CHOL    R4 7800   9.460   2.582  16.312 -0.0675 -0.1192 -0.0641
  607CHOL    R5 7801   9.626   2.441  16.297  0.1070  0.0793 -0.0294
  607CHOL    C1 7802   9.529   2.389  16.662  0.0874 -0.0420 -0.0518
  607CHOL    C2 7803   9.476   2.635  16.931 -0.0389  0.1278  0.2035
  608CHOL   ROH 7804  27.139   8.517   6.766 -0.1595 -0.0708  0.0625
  608CHOL    R1 7805  27.068   8.335   6.561 -0.2363 -0.0622  0.0813
  608CHOL    R2 7806  26.815   8.328   6.449 -0.1657  0.2123 -0.1018
  608CHOL    R3 7807  26.952   8.358   6.216  0.0447 -0.0493 -0.0133
  608CHOL    R4 7808  26.684   8.271   6.134  0.0296  0.1491 -0.1723
  608CHOL    R5 7809  26.873   8.179   6.078 -0.0101 -0.0578  0.0298
  608CHOL    C1 7810  26.737   8.265   5.733  0.3406 -0.1331 -0.1305
  608CHOL    C2 7811  26.680   7.996   5.545 -0.0803 -0.0728  0.1033
  609CHOL   ROH 7812  26.195  20.866   1.387  0.4316  0.2126  0.0075
  609CHOL    R1 7813  26.366  20.871   1.613  0.2508  0.1266  0.1472
  609CHOL    R2 7814  26.271  20.898   1.871  0.0484  0.0852  0.0775
  609CHOL    R3 7815  26.413  20.671   1.913 -0.0304  0.0473  0.1404
  609CHOL    R4 7816  26.421  20.812   2.170  0.2840  0.2668  0.0132
  609CHOL    R5 7817  26.592  20.739   2.057  0.1408  0.0803 -0.0855
  609CHOL    C1 7818  26.642  20.548   2.384  0.3476  0.3370  0.0347
  609CHOL    C2 7819  26.717  20.244   2.607  0.0599 -0.1086  0.0383
  610CHOL   ROH 7820  20.167  28.676  14.066  0.1413 -0.3608  0.0922
  610CHOL    R1 7821  19.959  28.487  14.037  0.0074 -0.2331  0.2122
  610CHOL    R2 7822  19.697  28.542  14.104  0.0165  0.0550  0.0126
  610CHOL    R3 7823  19.648  28.462  13.849  0.0841 -0.2124  0.0809
  610CHOL    R4 7824  19.415  28.370  14.002 -0.1495  0.2996  0.0510
  610CHOL    R5 7825  19.543  28.248  13.873 -0.2211 -0.0437  0.2927
  610CHOL    C1 7826  19.205  28.195  13.702 -0.1819  0.1911  0.1373
  610CHOL    C2 7827  19.027  27.894  13.953  0.2550 -0.2318 -0.1342
  611CHOL   ROH 7828   1.709  20.837   3.954  0.1712  0.1210  0.1317
  611CHOL    R1 7829   1.556  20.857   4.192 -0.0687  0.1768 -0.0257
  611CHOL    R2 7830   1.280  20.842   4.193 -0.0444 -0.3899 -0.2392
  611CHOL    R3 7831   1.323  20.645   4.375  0.2131 -0.0237  0.1058
  611CHOL    R4 7832   1.062  20.756   4.447 -0.1266 -0.4978 -0.3455
  611CHOL    R5 7833   1.233  20.731   4.579 -0.2042  0.0887 -0.1180
  611CHOL    C1 7834   0.976  20.520   4.765  0.0674 -0.2163 -0.0836
  611CHOL    C2 7835   0.905  20.682   5.043 -0.0352 -0.1484 -0.2257
  612CHOL   ROH 7836  16.595  25.575  15.933 -0.0461 -0.0186 -0.0702
  612CHOL    R1 7837  16.842  25.712  15.928 -0.0290 -0.0513 -0.1191
  612CHOL    R2 7838  16.905  25.913  16.106 -0.0265  0.0429 -0.2252
  612CHOL    R3 7839  17.124  25.759  16.153 -0.0500  0.0433 -0.1128
  612CHOL    R4 7840  17.215  26.035  16.197  0.0093  0.0675 -0.3794
  612CHOL    R5 7841  17.306  25.887  16.065 -0.0370 -0.0736 -0.2562
  612CHOL    C1 7842  17.602  25.961  16.294  0.0085  0.0821 -0.3631
  612CHOL    C2 7843  17.988  26.141  16.400  0.0131 -0.0603  0.2555
  613CHOL   ROH 7844  29.559   5.574   9.138 -0.1596  0.0329 -0.0366
  613CHOL    R1 7845  29.524   5.387   8.928 -0.1461 -0.1111  0.0881
  613CHOL    R2 7846  29.605   5.438   8.669 -0.4435 -0.1467 -0.0132
  613CHOL    R3 7847  29.739   5.204   8.699 -0.1506  0.0173 -0.0198
  613CHOL    R4 7848  29.725   5.245   8.409 -0.5184 -0.1680 -0.0325
  613CHOL    R5 7849  29.662   5.067   8.518 -0.2031 -0.1762  0.1461
  613CHOL    C1 7850  29.921   4.912   8.285 -0.2876 -0.0264 -0.0500
  613CHOL    C2 7851  29.965   4.873   7.964  0.1463  0.1696 -0.1266
  614CHOL   ROH 7852  34.556   9.364   5.630  0.0433 -0.2710  0.3559
  614CHOL    R1 7853  34.387   9.576   5.709  0.0408 -0.2066  0.1785
  614CHOL    R2 7854  34.274   9.751   5.527  0.1766 -0.2552  0.0473
  614CHOL    R3 7855  34.042   9.676   5.648  0.0940 -0.1616 -0.0522
  614CHOL    R4 7856  33.987   9.944   5.542  0.2594 -0.1231 -0.0456
  614CHOL    R5 7857  33.959   9.878   5.747  0.1484 -0.1331 -0.0632
  614CHOL    C1 7858  33.603   9.986   5.663  0.2316  0.0414 -0.1931
  614CHOL    C2 7859  33.255  10.246   5.554  0.2230 -0.1685  0.2199
  615CHOL   ROH 7860  21.551  15.417  14.248 -0.1264  0.1991  0.0562
  615CHOL    R1 7861  21.342  15.567  14.133  0.1493  0.4304 -0.1508
  615CHOL    R2 7862  21.362  15.683  13.883  0.2688 -0.1778 -0.4341
  615CHOL    R3 7863  21.132  15.545  13.836 -0.0859  0.2383  0.0281
  615CHOL    R4 7864  21.162  15.723  13.604  0.3517 -0.5644 -0.5507
  615CHOL    R5 7865  20.987  15.706  13.733  0.3094  0.2864 -0.4725
  615CHOL    C1 7866  20.830  15.616  13.397  0.0672 -0.3989 -0.1852
  615CHOL    C2 7867  20.711  15.812  13.117  0.2574 -0.1570  0.3933
  616CHOL   ROH 7868   9.834  25.044  21.073  0.1943 -0.3389  0.0286
  616CHOL    R1 7869   9.961  24.893  20.870  0.0374 -0.1608 -0.2050
  616CHOL    R2 7870   9.991  24.987  20.612  0.0542  0.1709 -0.0872
  616CHOL    R3 7871  10.253  24.931  20.656  0.0216 -0.0895 -0.2130
  616CHOL    R4 7872  10.243  25.026  20.379  0.0319  0.2409 -0.0992
  616CHOL    R5 7873  10.330  24.839  20.449 -0.0999  0.0898 -0.3376
  616CHOL    C1 7874  10.636  24.997  20.285 -0.0119  0.0367 -0.2245
  616CHOL    C2 7875  10.869  25.206  20.082  0.4178 -0.1735 -0.1236
  617CHOL   ROH 7876   7.906   1.598  15.649  0.0662 -0.1219 -0.0180
  617CHOL    R1 7877   7.987   1.597  15.921  0.2803  0.0317 -0.0803
  617CHOL    R2 7878   8.124   1.808  16.035 -0.0198  0.2923 -0.1909
  617CHOL    R3 7879   7.922   1.798  16.217  0.1343 -0.0841 -0.0333
  617CHOL    R4 7880   8.106   2.002  16.320 -0.2048  0.3235 -0.2235
  617CHOL    R5 7881   8.031   1.828  16.428  0.2365  0.1902 -0.1232
  617CHOL    C1 7882   7.905   2.107  16.657 -0.1676 -0.0117 -0.0952
  617CHOL    C2 7883   7.812   2.302  16.849 -0.2273  0.0703 -0.1052
  618CHOL   ROH 7884  34.604  34.733   9.499  0.0762  0.0009 -0.0105
  618CHOL    R1 7885  34.367  34.777   9.646  0.0793 -0.0175  0.0005
  618CHOL    R2 7886  34.307  34.639   9.878  0.1249  0.0116  0.0304
  618CHOL    R3 7887  34.281  34.889   9.982  0.0853  0.0260 -0.0126
  618CHOL    R4 7888  34.213  34.708  10.203 -0.2983  0.0595 -0.0984
  618CHOL    R5 7889  34.091  34.873  10.128 -0.1255  0.1106 -0.2733
  618CHOL    C1 7890  34.134  34.983  10.490 -0.5815  0.1007 -0.2136
  618CHOL    C2 7891  33.877  34.986  10.782  0.2224  0.0808 -0.2398
  619CHOL   ROH 7892   4.348  28.141  14.613  0.0960  0.1324  0.0149
  619CHOL    R1 7893   4.120  28.153  14.780  0.0677  0.3902 -0.0415
  619CHOL    R2 7894   4.062  27.960  14.968 -0.4384  0.2124 -0.3694
  619CHOL    R3 7895   4.053  28.172  15.137 -0.0005 -0.0327 -0.0294
  619CHOL    R4 7896   3.885  27.969  15.265 -0.5103  0.1400 -0.4098
  619CHOL    R5 7897   3.828  28.174  15.219 -0.0261  0.3521 -0.0999
  619CHOL    C1 7898   3.774  28.173  15.597 -0.1411 -0.1320 -0.1141
  619CHOL    C2 7899   3.539  28.189  15.871  0.0860  0.2850  0.1658
  620CHOL   ROH 7900   6.809  19.082  18.959  0.1980  0.1300  0.0676
  620CHOL    R1 7901   6.972  19.251  18.802  0.2605 -0.1129 -0.1337
  620CHOL    R2 7902   7.117  19.160  18.585 -0.1452 -0.3296 -0.3181
  620CHOL    R3 7903   6.986  19.360  18.455 -0.0113 -0.1292 -0.1500
  620CHOL    R4 7904   7.242  19.335  18.315 -0.1800 -0.4452 -0.4097
  620CHOL    R5 7905   7.157  19.517  18.400  0.1454 -0.3458 -0.2897
  620CHOL    C1 7906   7.192  19.625  18.035 -0.0745 -0.3244 -0.3054
  620CHOL    C2 7907   7.513  19.738  17.907  0.1927 -0.1431 -0.0683
  621CHOL   ROH 7908   4.029   4.273  16.184 -0.1153  0.2320 -0.0205
  621CHOL    R1 7909   4.169   4.200  15.950 -0.2483  0.0007 -0.0314
  621CHOL    R2 7910   4.074   4.256  15.696 -0.1619  0.1869 -0.0307
  621CHOL    R3 7911   4.317   4.373  15.666  0.0450 -0.2343 -0.0217
  621CHOL    R4 7912   4.235   4.299  15.394 -0.2933  0.3492 -0.0776
  621CHOL    R5 7913   4.423   4.246  15.492 -0.3235 -0.1666 -0.2953
  621CHOL    C1 7914   4.558   4.434  15.189 -0.1755  0.0484 -0.0960
  621CHOL    C2 7915   4.795   4.205  14.898  0.0307  0.1244  0.3349
  622CHOL   ROH 7916  31.193  24.651   2.154  0.0009  0.0641  0.0023
  622CHOL    R1 7917  30.962  24.610   2.312  0.0025  0.0809  0.0087
  622CHOL    R2 7918  30.813  24.377   2.300 -0.0973  0.1495 -0.0919
  622CHOL    R3 7919  30.855  24.374   2.568 -0.0657 -0.0051 -0.0983
  622CHOL    R4 7920  30.603  24.230   2.531 -0.1001  0.0683 -0.1464
  622CHOL    R5 7921  30.637  24.400   2.663 -0.0488 -0.0107 -0.0583
  622CHOL    C1 7922  30.520  24.141   2.918 -0.0730 -0.1239 -0.1842
  622CHOL    C2 7923  30.256  24.290   3.206 -0.2753 -0.1008 -0.1393
  623CHOL   ROH 7924  19.929  16.053  10.555 -0.1831 -0.1817  0.1719
  623CHOL    R1 7925  20.209  16.018  10.578 -0.1503  0.0166  0.0829
  623CHOL    R2 7926  20.359  16.141  10.775 -0.2283 -0.1427  0.2414
  623CHOL    R3 7927  20.440  15.887  10.828 -0.0083 -0.1550 -0.1354
  623CHOL    R4 7928  20.653  16.057  10.936 -0.2876 -0.1099  0.3679
  623CHOL    R5 7929  20.677  15.893  10.795  0.0208  0.1607  0.0922
  623CHOL    C1 7930  20.900  15.770  11.079 -0.1154 -0.1023  0.0874
  623CHOL    C2 7931  20.942  15.658  11.419  0.0550  0.0277  0.0644
  624CHOL   ROH 7932  22.468   7.373   8.545 -0.0632 -0.0022 -0.0029
  624CHOL    R1 7933  22.723   7.343   8.425 -0.0393 -0.0669  0.0637
  624CHOL    R2 7934  22.913   7.543   8.429 -0.0163 -0.0898  0.0516
  624CHOL    R3 7935  23.070   7.348   8.536 -0.0634 -0.0790  0.1414
  624CHOL    R4 7936  23.259   7.553   8.444 -0.0080 -0.2113 -0.0494
  624CHOL    R5 7937  23.262   7.341   8.392 -0.1043 -0.2489  0.0924
  624CHOL    C1 7938  23.606   7.375   8.552 -0.0477 -0.2715 -0.0239
  624CHOL    C2 7939  23.974   7.567   8.321  0.2989 -0.2793 -0.1311
  625CHOL   ROH 7940   3.833  26.827  12.884  0.1476 -0.0983  0.1614
  625CHOL    R1 7941   3.642  26.620  12.914  0.0885 -0.0397  0.1920
  625CHOL    R2 7942   3.621  26.409  12.736 -0.0659  0.0144  0.1441
  625CHOL    R3 7943   3.649  26.259  12.961 -0.0160 -0.0548  0.0920
  625CHOL    R4 7944   3.499  26.089  12.775 -0.4480  0.1686  0.2309
  625CHOL    R5 7945   3.441  26.141  12.979 -0.1545  0.2165  0.3035
  625CHOL    C1 7946   3.453  25.761  13.009 -0.6236  0.1933  0.2326
  625CHOL    C2 7947   3.350  25.483  13.223  0.2300  0.0313 -0.0239
  626CHOL   ROH 7948  32.802  31.957  11.454  0.0832  0.0513  0.1141
  626CHOL    R1 7949  33.026  31.967  11.281 -0.0404 -0.0824 -0.0566
  626CHOL    R2 7950  33.009  31.909  11.011 -0.3065  0.0608 -0.0720
  626CHOL    R3 7951  33.123  32.154  10.985 -0.0922 -0.0353 -0.0437
  626CHOL    R4 7952  33.165  32.024  10.725 -0.1835 -0.0515 -0.0500
  626CHOL    R5 7953  33.318  32.114  10.851 -0.1156 -0.1934 -0.0302
  626CHOL    C1 7954  33.364  32.321  10.533  0.0895 -0.2071 -0.0104
  626CHOL    C2 7955  33.639  32.365  10.227 -0.1463 -0.0378  0.0496
  627CHOL   ROH 7956  32.254  24.983   6.741  0.0057  0.1639  0.1295
  627CHOL    R1 7957  32.483  25.132   6.667  0.0378  0.1329  0.1647
  627CHOL    R2 7958  32.590  25.123   6.412  0.1944 -0.0355  0.2345
  627CHOL    R3 7959  32.562  25.393   6.426  0.1590 -0.0280  0.0287
  627CHOL    R4 7960  32.771  25.350   6.225  0.1518 -0.1535  0.0492
  627CHOL    R5 7961  32.785  25.477   6.401  0.1457 -0.0162 -0.0497
  627CHOL    C1 7962  32.850  25.735   6.128  0.0936 -0.2151 -0.2519
  627CHOL    C2 7963  33.044  25.913   6.252  0.2020  0.0792  0.1142
  628CHOL   ROH 7964   7.131   9.181  17.179 -0.2694  0.1676 -0.2092
  628CHOL    R1 7965   7.345   9.159  16.994 -0.1868  0.2127 -0.1198
  628CHOL    R2 7966   7.329   9.005  16.766  0.0281  0.0192 -0.0060
  628CHOL    R3 7967   7.399   9.237  16.643 -0.1364 -0.0132 -0.1627
  628CHOL    R4 7968   7.459   9.028  16.446  0.1811 -0.1224  0.0458
  628CHOL    R5 7969   7.596   9.181  16.518 -0.0108  0.0767 -0.0069
  628CHOL    C1 7970   7.600   9.259  16.145  0.1159 -0.2352 -0.0714
  628CHOL    C2 7971   7.517   9.225  15.783 -0.1798 -0.2121 -0.0217
  629CHOL   ROH 7972  21.830  20.352   6.202 -0.2526 -0.1715  0.1483
  629CHOL    R1 7973  21.911  20.083   6.233 -0.2289 -0.1507  0.2753
  629CHOL    R2 7974  22.143  19.983   6.120 -0.3529 -0.2468  0.1031
  629CHOL    R3 7975  22.196  19.907   6.375 -0.0800 -0.0453  0.1088
  629CHOL    R4 7976  22.361  19.730   6.209 -0.5417 -0.4303  0.0488
  629CHOL    R5 7977  22.219  19.669   6.362 -0.4007 -0.0906  0.3224
  629CHOL    C1 7978  22.538  19.511   6.500 -0.3958 -0.3476  0.0227
  629CHOL    C2 7979  22.832  19.520   6.851 -0.0840  0.1352  0.0830
  630CHOL   ROH 7980  24.702  22.535   7.850 -0.0426  0.0365  0.1866
  630CHOL    R1 7981  24.522  22.566   7.634 -0.0341  0.2619  0.2108
  630CHOL    R2 7982  24.348  22.367   7.555  0.2123  0.2109 -0.2244
  630CHOL    R3 7983  24.162  22.562   7.587 -0.0214 -0.0651  0.1332
  630CHOL    R4 7984  24.053  22.388   7.377  0.2979  0.3136 -0.3550
  630CHOL    R5 7985  24.081  22.604   7.365  0.0700  0.3799  0.1807
  630CHOL    C1 7986  23.706  22.583   7.303  0.1284  0.1136 -0.0952
  630CHOL    C2 7987  23.306  22.559   7.402 -0.0601  0.2051  0.1419
  631CHOL   ROH 7988   7.520  21.185  20.429  0.1973 -0.0837 -0.0172
  631CHOL    R1 7989   7.614  21.340  20.211  0.1686 -0.0608 -0.0139
  631CHOL    R2 7990   7.516  21.591  20.153  0.1575 -0.0567  0.0221
  631CHOL    R3 7991   7.778  21.662  20.167  0.1580 -0.0545 -0.0027
  631CHOL    R4 7992   7.673  21.808  19.935  0.1632 -0.1457 -0.0626
  631CHOL    R5 7993   7.847  21.676  19.938  0.1616 -0.1467 -0.0071
  631CHOL    C1 7994   8.011  22.000  19.821  0.1669 -0.1955 -0.1346
  631CHOL    C2 7995   8.284  22.326  19.709 -0.1948  0.2450  0.1054
  632CHOL   ROH 7996  25.211  31.112   9.548  0.2501 -0.1555 -0.2487
  632CHOL    R1 7997  25.088  31.278   9.354  0.2281 -0.0755 -0.1669
  632CHOL    R2 7998  25.121  31.238   9.082 -0.0354 -0.1410 -0.1909
  632CHOL    R3 7999  24.849  31.235   9.082 -0.0401  0.0937  0.0405
  632CHOL    R4 8000  24.922  31.425   8.871 -0.0477 -0.2523 -0.2792
  632CHOL    R5 8001  24.787  31.463   9.039  0.1223  0.0912 -0.2151
  632CHOL    C1 8002  24.550  31.531   8.748 -0.0588 -0.0977 -0.1135
  632CHOL    C2 8003  24.204  31.601   8.895 -0.0017 -0.1730 -0.0078
  633CHOL   ROH 8004   1.001  25.737  14.893 -0.0303 -0.1635 -0.0779
  633CHOL    R1 8005   1.272  25.771  14.820 -0.0392 -0.0380 -0.0530
  633CHOL    R2 8006   1.408  25.589  14.663  0.0856 -0.0201  0.0342
  633CHOL    R3 8007   1.460  25.808  14.511 -0.0174 -0.0477 -0.0408
  633CHOL    R4 8008   1.693  25.634  14.472 -0.0286 -0.0397 -0.1422
  633CHOL    R5 8009   1.696  25.843  14.535 -0.0052 -0.0275 -0.1861
  633CHOL    C1 8010   1.908  25.866  14.218 -0.1918 -0.0769 -0.3154
  633CHOL    C2 8011   2.190  26.099  14.355  0.1506 -0.3659  0.1595
  634CHOL   ROH 8012  29.466   6.760   8.136  0.0062 -0.0123  0.0483
  634CHOL    R1 8013  29.540   6.557   7.954  0.0324 -0.0315  0.0805
  634CHOL    R2 8014  29.771   6.408   7.983  0.0511  0.0007  0.1052
  634CHOL    R3 8015  29.599   6.198   7.968  0.0762 -0.0220  0.1370
  634CHOL    R4 8016  29.852   6.095   7.861  0.0198  0.0643 -0.0788
  634CHOL    R5 8017  29.657   6.088   7.763 -0.0456  0.0718  0.0521
  634CHOL    C1 8018  29.737   5.715   7.775  0.0255  0.0801 -0.1564
  634CHOL    C2 8019  29.623   5.308   7.784  0.1477  0.0131  0.0693
  635CHOL   ROH 8020  16.513  16.745  14.588  0.0601  0.3593  0.0572
  635CHOL    R1 8021  16.573  16.615  14.832  0.0029  0.1760 -0.0253
  635CHOL    R2 8022  16.831  16.590  14.928 -0.0183  0.1052  0.0189
  635CHOL    R3 8023  16.725  16.706  15.150 -0.0733 -0.0611  0.0794
  635CHOL    R4 8024  16.972  16.580  15.243  0.0038  0.0389  0.0067
  635CHOL    R5 8025  16.773  16.551  15.326  0.0252 -0.1154  0.0041
  635CHOL    C1 8026  16.955  16.682  15.635 -0.0350 -0.1559  0.0563
  635CHOL    C2 8027  17.240  16.893  15.780  0.0071 -0.2658  0.0121
  636CHOL   ROH 8028  16.407   8.780  17.519  0.1406  0.0089  0.1595
  636CHOL    R1 8029  16.460   8.913  17.274  0.0841 -0.0245  0.1289
  636CHOL    R2 8030  16.622   8.805  17.079  0.0792 -0.0284  0.1280
  636CHOL    R3 8031  16.405   8.848  16.921  0.0511 -0.0976  0.1476
  636CHOL    R4 8032  16.631   8.959  16.770  0.0229 -0.1452  0.0677
  636CHOL    R5 8033  16.446   9.062  16.822  0.0265 -0.1328  0.0597
  636CHOL    C1 8034  16.432   9.089  16.441 -0.0365 -0.2784  0.0509
  636CHOL    C2 8035  16.756   9.172  16.302  0.0059 -0.0574  0.0817
  637CHOL   ROH 8036   9.785  29.578  17.633 -0.1469 -0.2683 -0.1101
  637CHOL    R1 8037   9.627  29.458  17.834  0.1000 -0.3263  0.0519
  637CHOL    R2 8038   9.728  29.388  18.082  0.2640  0.1570  0.1269
  637CHOL    R3 8039   9.523  29.541  18.173 -0.0123 -0.1135 -0.0345
  637CHOL    R4 8040   9.629  29.409  18.412  0.2184  0.3162  0.1038
  637CHOL    R5 8041   9.422  29.408  18.345  0.2189 -0.1205  0.0965
  637CHOL    C1 8042   9.379  29.564  18.691 -0.0678  0.1553 -0.0614
  637CHOL    C2 8043   9.113  29.451  19.010 -0.0565  0.0378  0.1374
  638CHOL   ROH 8044  22.142   3.294  10.335  0.1105  0.0458 -0.0449
  638CHOL    R1 8045  22.017   3.072  10.459  0.1139  0.1037  0.0624
  638CHOL    R2 8046  21.960   2.838  10.323 -0.1052  0.1272  0.1129
  638CHOL    R3 8047  22.102   2.724  10.525  0.0130  0.0664 -0.0036
  638CHOL    R4 8048  22.019   2.499  10.356 -0.1348  0.1118  0.0077
  638CHOL    R5 8049  21.986   2.519  10.571  0.0116  0.0754  0.0340
  638CHOL    C1 8050  22.186   2.195  10.564 -0.0413  0.0458 -0.1628
  638CHOL    C2 8051  21.947   1.882  10.614 -0.1665 -0.0807  0.1266
  639CHOL   ROH 8052   7.253  25.786  17.240  0.2418 -0.0235  0.0524
  639CHOL    R1 8053   7.100  25.885  17.456  0.0902 -0.0675 -0.0338
  639CHOL    R2 8054   6.828  25.841  17.479  0.0776 -0.0854 -0.2246
  639CHOL    R3 8055   6.896  25.743  17.723 -0.0825 -0.1219 -0.1936
  639CHOL    R4 8056   6.636  25.870  17.764  0.0424  0.1652 -0.2722
  639CHOL    R5 8057   6.818  25.908  17.878  0.0587 -0.0124 -0.2369
  639CHOL    C1 8058   6.588  25.795  18.160 -0.1283  0.2772 -0.2707
  639CHOL    C2 8059   6.432  25.876  18.513 -0.0762  0.0384  0.0524
  640CHOL   ROH 8060  20.493  27.555   8.501 -0.2077  0.6588  0.0777
  640CHOL    R1 8061  20.716  27.480   8.657 -0.1596  0.3967 -0.1140
  640CHOL    R2 8062  20.970  27.454   8.551 -0.2412  0.3051 -0.2888
  640CHOL    R3 8063  21.035  27.627   8.751 -0.0034  0.1176 -0.2016
  640CHOL    R4 8064  21.263  27.442   8.735 -0.0690  0.0654 -0.5736
  640CHOL    R5 8065  21.147  27.491   8.913  0.1127 -0.0525 -0.4216
  640CHOL    C1 8066  21.494  27.598   9.029  0.2538 -0.2503 -0.6582
  640CHOL    C2 8067  21.746  27.505   9.162  0.2235 -0.0322  0.0430
  641CHOL   ROH 8068   1.847  17.053   3.696  0.0986  0.1550  0.0714
  641CHOL    R1 8069   1.741  17.227   3.892  0.0628  0.2171 -0.0028
  641CHOL    R2 8070   1.589  17.448   3.828 -0.0566  0.1094 -0.0934
  641CHOL    R3 8071   1.411  17.335   3.999  0.0368  0.1220  0.0128
  641CHOL    R4 8072   1.341  17.620   3.996 -0.1261  0.0811 -0.1665
  641CHOL    R5 8073   1.383  17.498   4.172 -0.0265  0.2224 -0.0916
  641CHOL    C1 8074   1.029  17.615   4.255 -0.0789  0.0765 -0.1094
  641CHOL    C2 8075   0.695  17.463   4.327  0.2115 -0.1684  0.0092
  642CHOL   ROH 8076  33.781  14.547   3.338  0.4029  0.0170 -0.1136
  642CHOL    R1 8077  34.008  14.389   3.398  0.4562  0.1944  0.1673
  642CHOL    R2 8078  34.109  14.364   3.653 -0.0735 -0.0302  0.3644
  642CHOL    R3 8079  34.080  14.098   3.605  0.3270 -0.0018 -0.0606
  642CHOL    R4 8080  34.214  14.112   3.865 -0.0465 -0.2058  0.1440
  642CHOL    R5 8081  34.281  14.000   3.691  0.3342  0.1281  0.0700
  642CHOL    C1 8082  34.248  13.715   3.943  0.3440 -0.2813 -0.3833
  642CHOL    C2 8083  34.084  13.580   4.160 -0.0824  0.2343  0.1393
  643CHOL   ROH 8084  14.242  32.975  14.932 -0.2856  0.3825  0.0007
  643CHOL    R1 8085  14.437  33.039  15.127 -0.1358  0.0317 -0.0315
  643CHOL    R2 8086  14.707  33.050  15.070 -0.1770  0.0706 -0.2039
  643CHOL    R3 8087  14.687  33.299  15.176 -0.0507 -0.0939  0.2141
  643CHOL    R4 8088  14.974  33.261  15.129 -0.1322  0.1213 -0.5684
  643CHOL    R5 8089  14.880  33.319  15.317  0.3012 -0.2041 -0.2354
  643CHOL    C1 8090  15.111  33.618  15.264  0.0120 -0.0039 -0.3882
  643CHOL    C2 8091  15.487  33.607  15.127  0.0374 -0.0566 -0.0229
  644CHOL   ROH 8092  26.643  33.278  10.006 -0.1884 -0.2110  0.1345
  644CHOL    R1 8093  26.459  33.289   9.791 -0.0288 -0.0587  0.0048
  644CHOL    R2 8094  26.453  33.498   9.611  0.1890  0.0067  0.0728
  644CHOL    R3 8095  26.478  33.299   9.428  0.2375  0.0609  0.0204
  644CHOL    R4 8096  26.400  33.535   9.272  0.2222  0.0923  0.0765
  644CHOL    R5 8097  26.301  33.341   9.272  0.2497  0.0793  0.0117
  644CHOL    C1 8098  26.391  33.370   8.902  0.2872  0.1937  0.0298
  644CHOL    C2 8099  26.269  33.687   8.653 -0.0712  0.0994 -0.0255
  645CHOL   ROH 8100   0.832  34.293  14.845  0.0889  0.2471  0.0133
  645CHOL    R1 8101   0.935  34.191  14.603  0.0006  0.0153  0.0723
  645CHOL    R2 8102   1.110  34.332  14.444 -0.1818 -0.0681 -0.2092
  645CHOL    R3 8103   1.262  34.108  14.468 -0.0322  0.0516 -0.0295
  645CHOL    R4 8104   1.402  34.273  14.269 -0.2614 -0.1110 -0.3277
  645CHOL    R5 8105   1.340  34.065  14.245 -0.1537 -0.1797 -0.0277
  645CHOL    C1 8106   1.715  34.028  14.189 -0.1674 -0.0238 -0.2280
  645CHOL    C2 8107   2.001  34.284  14.182 -0.1942  0.1914 -0.0459
  646CHOL   ROH 8108  12.578  18.526  15.796 -0.1235 -0.1216 -0.0712
  646CHOL    R1 8109  12.536  18.562  16.074  0.0208 -0.0860 -0.0538
  646CHOL    R2 8110  12.314  18.463  16.204 -0.0337  0.1427  0.0265
  646CHOL    R3 8111  12.501  18.348  16.366 -0.0924 -0.0593 -0.0470
  646CHOL    R4 8112  12.245  18.296  16.499 -0.0778  0.4986  0.2201
  646CHOL    R5 8113  12.421  18.390  16.588  0.1698  0.2621 -0.0069
  646CHOL    C1 8114  12.379  18.092  16.823 -0.1584  0.5163  0.2641
  646CHOL    C2 8115  12.273  18.015  17.300  0.1227  0.0770  0.0256
  647CHOL   ROH 8116  18.589  21.409  13.722  0.0713 -0.0822 -0.0645
  647CHOL    R1 8117  18.766  21.250  13.876  0.2010 -0.0992 -0.2293
  647CHOL    R2 8118  19.034  21.223  13.814  0.2515  0.2803 -0.1915
  647CHOL    R3 8119  19.069  21.305  14.071  0.0846 -0.0296 -0.0674
  647CHOL    R4 8120  19.303  21.138  14.014  0.2018  0.1692 -0.1721
  647CHOL    R5 8121  19.165  21.116  14.181  0.1335 -0.1202 -0.2646
  647CHOL    C1 8122  19.492  21.166  14.372  0.0163 -0.1868 -0.0445
  647CHOL    C2 8123  19.576  20.891  14.582  0.0434  0.2550 -0.0479
  648CHOL   ROH 8124  27.125  23.020   1.173  0.1143 -0.0140 -0.0284
  648CHOL    R1 8125  27.184  22.846   1.389  0.1230  0.1528  0.1048
  648CHOL    R2 8126  27.222  22.575   1.355 -0.1293  0.0842  0.3504
  648CHOL    R3 8127  27.457  22.624   1.482  0.0047  0.0171  0.1302
  648CHOL    R4 8128  27.384  22.352   1.564  0.0843 -0.0198  0.0765
  648CHOL    R5 8129  27.433  22.519   1.696  0.2253 -0.0843  0.1065
  648CHOL    C1 8130  27.699  22.268   1.805  0.3344 -0.1432 -0.2898
  648CHOL    C2 8131  27.730  21.900   2.120 -0.1038 -0.1618  0.2186
  649CHOL   ROH 8132   4.855  17.117   8.466 -0.0024  0.0327 -0.1191
  649CHOL    R1 8133   4.709  17.233   8.680 -0.1002 -0.1329 -0.0955
  649CHOL    R2 8134   4.487  17.112   8.791  0.0117 -0.3517 -0.1075
  649CHOL    R3 8135   4.626  17.142   9.022 -0.0079 -0.2640 -0.1072
  649CHOL    R4 8136   4.344  17.143   9.104 -0.0119 -0.3481 -0.1187
  649CHOL    R5 8137   4.493  17.295   9.151 -0.0663 -0.2878 -0.1385
  649CHOL    C1 8138   4.391  17.190   9.504 -0.0441 -0.2633 -0.1249
  649CHOL    C2 8139   4.143  17.089   9.744 -0.0467 -0.2363  0.1488
  650CHOL   ROH 8140  21.873   9.576   9.418 -0.0519  0.3087  0.1596
  650CHOL    R1 8141  22.139   9.499   9.477 -0.0666  0.2483  0.1488
  650CHOL    R2 8142  22.352   9.558   9.311 -0.0871  0.0241  0.0377
  650CHOL    R3 8143  22.456   9.667   9.537  0.0183  0.1702 -0.0807
  650CHOL    R4 8144  22.685   9.640   9.355 -0.0301 -0.1358 -0.0925
  650CHOL    R5 8145  22.671   9.564   9.558 -0.0414  0.0611 -0.0211
  650CHOL    C1 8146  22.977   9.790   9.593  0.1021 -0.0915 -0.2794
  650CHOL    C2 8147  23.203   9.683   9.826 -0.4049 -0.2359 -0.0566
  651CHOL   ROH 8148  18.192  21.247  13.958  0.2811  0.1001 -0.1105
  651CHOL    R1 8149  18.402  21.340  14.124  0.0668  0.0517  0.1909
  651CHOL    R2 8150  18.420  21.273  14.392 -0.0161 -0.4249  0.0824
  651CHOL    R3 8151  18.669  21.191  14.321  0.1298  0.0129  0.0752
  651CHOL    R4 8152  18.680  21.218  14.613 -0.0576 -0.4412  0.1268
  651CHOL    R5 8153  18.815  21.310  14.468 -0.1003 -0.0319  0.3421
  651CHOL    C1 8154  19.066  21.109  14.674  0.0557 -0.0395  0.1459
  651CHOL    C2 8155  19.320  21.003  14.998 -0.2019  0.1470 -0.0234
  652CHOL   ROH 8156  16.654  13.552  14.134 -0.1065 -0.1503  0.0006
  652CHOL    R1 8157  16.730  13.675  14.377 -0.2069 -0.1738  0.0443
  652CHOL    R2 8158  16.783  13.530  14.607 -0.0747 -0.2136 -0.0095
  652CHOL    R3 8159  17.018  13.666  14.599 -0.1927 -0.0060  0.0325
  652CHOL    R4 8160  17.036  13.500  14.840 -0.0576 -0.0455 -0.0064
  652CHOL    R5 8161  17.065  13.716  14.829 -0.2453 -0.0173  0.0448
  652CHOL    C1 8162  17.404  13.611  14.969 -0.1579  0.2474  0.0348
  652CHOL    C2 8163  17.585  13.267  15.170 -0.0535  0.1037  0.0672
  653CHOL   ROH 8164   3.450  26.521  13.279 -0.0796  0.1066 -0.1342
  653CHOL    R1 8165   3.176  26.460  13.239 -0.0797  0.0006  0.0289
  653CHOL    R2 8166   3.011  26.380  13.445  0.0397  0.0740  0.1536
  653CHOL    R3 8167   2.857  26.586  13.359 -0.0627 -0.0237  0.1006
  653CHOL    R4 8168   2.668  26.401  13.486  0.0478 -0.0175  0.2747
  653CHOL    R5 8169   2.654  26.482  13.284 -0.0578 -0.1318  0.2353
  653CHOL    C1 8170   2.324  26.607  13.428 -0.0437 -0.1625  0.2952
  653CHOL    C2 8171   2.036  26.371  13.652  0.0466 -0.4493  0.0917
  654CHOL   ROH 8172  20.250  25.718  10.031  0.1042  0.3289 -0.0735
  654CHOL    R1 8173  20.275  25.695  10.312 -0.0639  0.1572 -0.0712
  654CHOL    R2 8174  20.520  25.680  10.439 -0.1425 -0.1089  0.0530
  654CHOL    R3 8175  20.424  25.891  10.581 -0.0487 -0.1064  0.1140
  654CHOL    R4 8176  20.614  25.760  10.762  0.0992 -0.0816 -0.0233
  654CHOL    R5 8177  20.406  25.808  10.805  0.1286 -0.0933  0.1334
  654CHOL    C1 8178  20.578  26.005  11.083  0.3286 -0.0635 -0.0104
  654CHOL    C2 8179  20.606  26.084  11.518 -0.5281 -0.3556 -0.3513
  655CHOL   ROH 8180  25.923  32.102   9.940 -0.0493 -0.1820  0.0286
  655CHOL    R1 8181  25.883  31.975   9.690 -0.1684 -0.1299  0.0206
  655CHOL    R2 8182  25.664  32.028   9.530 -0.1107  0.0999  0.0141
  655CHOL    R3 8183  25.854  32.079   9.342 -0.0508 -0.0814  0.0254
  655CHOL    R4 8184  25.618  31.999   9.189 -0.1198  0.1554  0.0106
  655CHOL    R5 8185  25.818  31.912   9.174 -0.2039 -0.0402  0.0193
  655CHOL    C1 8186  25.769  32.029   8.814 -0.0683  0.0170  0.0193
  655CHOL    C2 8187  25.900  31.991   8.557  0.1576 -0.0060 -0.0897
  656CHOL   ROH 8188  24.660  23.393   8.898 -0.3089 -0.2743  0.3282
  656CHOL    R1 8189  24.378  23.420   8.888 -0.2840 -0.0711  0.0988
  656CHOL    R2 8190  24.252  23.665   8.872 -0.0938  0.0173 -0.0690
  656CHOL    R3 8191  24.133  23.553   8.655 -0.0034  0.0449 -0.1331
  656CHOL    R4 8192  23.996  23.810   8.692 -0.1120 -0.0221 -0.0750
  656CHOL    R5 8193  23.902  23.614   8.677 -0.0317 -0.0532 -0.1622
  656CHOL    C1 8194  23.734  23.790   8.382 -0.0377 -0.0190 -0.1384
  656CHOL    C2 8195  23.477  23.928   8.601 -0.1218 -0.3092 -0.2662
  657CHOL   ROH 8196  33.905  27.700  11.475  0.0137 -0.1328 -0.1643
  657CHOL    R1 8197  34.173  27.785  11.447 -0.0355  0.0320 -0.1437
  657CHOL    R2 8198  34.338  27.696  11.243  0.0829  0.0103 -0.0386
  657CHOL    R3 8199  34.370  27.961  11.196 -0.0852  0.0024 -0.2037
  657CHOL    R4 8200  34.578  27.831  11.035  0.1717  0.0456  0.0865
  657CHOL    R5 8201  34.607  27.991  11.181 -0.0919  0.1787 -0.0017
  657CHOL    C1 8202  34.748  28.160  10.869  0.0655  0.0592  0.0042
  657CHOL    C2 8203  34.930  28.425  10.735 -0.1386  0.1149  0.0431
  658CHOL   ROH 8204  34.811  32.979  13.652 -0.0904 -0.1869  0.2500
  658CHOL    R1 8205  35.014  32.888  13.478 -0.2106 -0.0870  0.0546
  658CHOL    R2 8206  35.263  33.007  13.465 -0.2160 -0.0826 -0.0452
  658CHOL    R3 8207  35.351  32.754  13.513 -0.1887 -0.1129 -0.2549
  658CHOL    R4 8208   0.148  32.860  13.308 -0.0913  0.1381 -0.0391
  658CHOL    R5 8209   0.034  32.674  13.297 -0.0441  0.1232 -0.2980
  658CHOL    C1 8210   0.388  32.537  13.261  0.0070  0.2377 -0.2323
  658CHOL    C2 8211   0.782  32.356  13.219  0.2709 -0.0969 -0.3462
  659CHOL   ROH 8212   0.462   9.362  10.114  0.1605 -0.0153  0.1022
  659CHOL    R1 8213   0.675   9.288   9.943  0.0190 -0.0586 -0.0565
  659CHOL    R2 8214   0.833   9.067   9.990  0.1186  0.0073 -0.0800
  659CHOL    R3 8215   0.760   9.000   9.737 -0.1038 -0.1538  0.0247
  659CHOL    R4 8216   1.019   8.867   9.777  0.0382  0.0509 -0.1913
  659CHOL    R5 8217   0.966   9.001   9.614 -0.2337 -0.0566 -0.1946
  659CHOL    C1 8218   1.058   8.688   9.416 -0.2174 -0.0751 -0.1579
  659CHOL    C2 8219   1.418   8.474   9.215  0.3217 -0.0930  0.1335
  660CHOL   ROH 8220   3.740  15.429   6.818 -0.0893  0.0179 -0.1459
  660CHOL    R1 8221   3.487  15.509   6.914 -0.0680 -0.0319 -0.0465
  660CHOL    R2 8222   3.251  15.440   6.789 -0.1027 -0.0555  0.0299
  660CHOL    R3 8223   3.185  15.345   7.035  0.0007 -0.0925  0.0435
  660CHOL    R4 8224   2.931  15.354   6.888 -0.0645 -0.0485  0.1590
  660CHOL    R5 8225   2.972  15.445   7.082  0.0291 -0.0849  0.1561
  660CHOL    C1 8226   2.683  15.216   7.177  0.0548 -0.0794  0.2470
  660CHOL    C2 8227   2.331  14.988   7.113  0.2949  0.2297  0.0471
  661CHOL   ROH 8228  26.255  11.809   5.988  0.1821  0.0233 -0.1175
  661CHOL    R1 8229  26.102  11.620   5.843  0.1455  0.0467 -0.1096
  661CHOL    R2 8230  25.875  11.689   5.702  0.0949  0.0654 -0.0191
  661CHOL    R3 8231  26.005  11.569   5.496  0.0342  0.1191 -0.0890
  661CHOL    R4 8232  25.720  11.544   5.429  0.0130  0.0765  0.0210
  661CHOL    R5 8233  25.866  11.382   5.439  0.0462  0.1022 -0.0612
  661CHOL    C1 8234  25.752  11.346   5.076 -0.0921  0.1335 -0.0212
  661CHOL    C2 8235  25.576  11.077   4.830  0.0718 -0.0222 -0.3191
  662CHOL   ROH 8236  12.152  12.808  18.008 -0.3601 -0.0272 -0.0195
  662CHOL    R1 8237  12.295  12.811  17.764 -0.2280 -0.1101  0.0561
  662CHOL    R2 8238  12.187  12.718  17.527 -0.1655 -0.0246 -0.0067
  662CHOL    R3 8239  12.256  12.965  17.436  0.0492 -0.0655  0.0424
  662CHOL    R4 8240  12.202  12.809  17.194 -0.0436  0.0166  0.0099
  662CHOL    R5 8241  12.383  12.922  17.238  0.0429 -0.1380  0.0542
  662CHOL    C1 8242  12.275  13.093  16.915  0.2291  0.0018  0.0656
  662CHOL    C2 8243  12.493  13.116  16.581  0.3323 -0.0641 -0.2702
  663CHOL   ROH 8244  20.744   6.551  11.500 -0.0587  0.3628  0.0183
  663CHOL    R1 8245  20.807   6.677  11.745  0.0910  0.2108  0.0581
  663CHOL    R2 8246  20.693   6.600  11.985 -0.0093  0.2773  0.0293
  663CHOL    R3 8247  20.953   6.578  12.063 -0.0376 -0.0660  0.0335
  663CHOL    R4 8248  20.805   6.632  12.311  0.0546  0.4128 -0.0055
  663CHOL    R5 8249  20.977   6.743  12.236  0.2337  0.0660 -0.1245
  663CHOL    C1 8250  21.113   6.630  12.574  0.0659  0.1693 -0.0217
  663CHOL    C2 8251  21.240   6.582  12.830 -0.1331 -0.0996  0.0003
  664CHOL   ROH 8252  15.749  31.621  18.817 -0.2246  0.3018  0.1824
  664CHOL    R1 8253  15.546  31.732  18.655 -0.2296  0.0511  0.0143
  664CHOL    R2 8254  15.427  31.592  18.449 -0.1285 -0.2166  0.1355
  664CHOL    R3 8255  15.198  31.657  18.579 -0.1836 -0.1636  0.0124
  664CHOL    R4 8256  15.161  31.761  18.307  0.0397 -0.0397  0.0290
  664CHOL    R5 8257  15.140  31.873  18.493 -0.0295 -0.1030  0.0591
  664CHOL    C1 8258  14.790  31.921  18.347  0.0858  0.1139 -0.1486
  664CHOL    C2 8259  14.447  31.891  18.227 -0.0275  0.0536 -0.1593
  665CHOL   ROH 8260  33.749  21.250   5.027 -0.0767  0.1554 -0.2565
  665CHOL    R1 8261  33.964  21.375   4.891  0.1579  0.1400  0.0930
  665CHOL    R2 8262  34.223  21.371   4.986  0.1407 -0.5483  0.1257
  665CHOL    R3 8263  34.277  21.271   4.739  0.0008 -0.0147 -0.1287
  665CHOL    R4 8264  34.524  21.406   4.820  0.1385 -0.4196  0.1497
  665CHOL    R5 8265  34.413  21.439   4.635  0.1282  0.1169  0.2411
  665CHOL    C1 8266  34.751  21.334   4.492  0.0065  0.1563 -0.0749
  665CHOL    C2 8267  35.062  21.342   4.614  0.0015  0.2172 -0.3380
  666CHOL   ROH 8268  29.415  34.805   6.984  0.0960 -0.0442 -0.0955
  666CHOL    R1 8269  29.391  34.863   7.261 -0.0366 -0.0103 -0.1135
  666CHOL    R2 8270  29.246  34.704   7.433  0.0413 -0.0986 -0.1272
  666CHOL    R3 8271  29.479  34.698   7.573  0.0043  0.1225 -0.0551
  666CHOL    R4 8272  29.275  34.611   7.765  0.0071  0.0751 -0.0753
  666CHOL    R5 8273  29.418  34.773   7.793 -0.1099  0.1835 -0.1076
  666CHOL    C1 8274  29.510  34.551   8.089 -0.0479  0.3828  0.0226
  666CHOL    C2 8275  29.492  34.251   8.361  0.0578  0.1491 -0.0947
  667CHOL   ROH 8276  28.608  25.409   5.911 -0.0561 -0.1693 -0.0937
  667CHOL    R1 8277  28.638  25.372   5.631  0.1732 -0.2443 -0.0600
  667CHOL    R2 8278  28.570  25.566   5.448 -0.0547 -0.4425 -0.1868
  667CHOL    R3 8279  28.826  25.530   5.362  0.0628 -0.0406 -0.0185
  667CHOL    R4 8280  28.691  25.662   5.138 -0.0732 -0.4904 -0.2093
  667CHOL    R5 8281  28.804  25.476   5.130  0.2829 -0.2905  0.0158
  667CHOL    C1 8282  29.001  25.684   4.878  0.0255 -0.1410 -0.0645
  667CHOL    C2 8283  28.827  25.703   4.584  0.1594 -0.0154  0.0802
  668CHOL   ROH 8284  24.315  27.742   9.245 -0.0792 -0.0079  0.1045
  668CHOL    R1 8285  24.033  27.713   9.240 -0.0723 -0.0679  0.0738
  668CHOL    R2 8286  23.875  27.830   9.047 -0.0717 -0.1379  0.0325
  668CHOL    R3 8287  23.785  27.576   9.012 -0.0153 -0.1629  0.0682
  668CHOL    R4 8288  23.589  27.744   8.873 -0.0170 -0.2289 -0.0128
  668CHOL    R5 8289  23.547  27.595   9.026 -0.0225 -0.2045  0.0113
  668CHOL    C1 8290  23.339  27.456   8.738  0.0676 -0.3061 -0.0057
  668CHOL    C2 8291  23.334  27.267   8.317  0.0098 -0.3796 -0.1945
  669CHOL   ROH 8292  13.723  16.845  15.329 -0.1347 -0.0255  0.0505
  669CHOL    R1 8293  13.627  16.814  15.593 -0.1441 -0.0998  0.0383
  669CHOL    R2 8294  13.563  16.568  15.700  0.0242 -0.1487  0.0274
  669CHOL    R3 8295  13.735  16.644  15.896 -0.0555 -0.0241  0.0494
  669CHOL    R4 8296  13.522  16.499  16.036 -0.0157 -0.0992  0.0328
  669CHOL    R5 8297  13.593  16.700  16.081 -0.1235 -0.0546  0.0069
  669CHOL    C1 8298  13.661  16.530  16.416 -0.1139  0.0466  0.0567
  669CHOL    C2 8299  13.742  16.551  16.814 -0.2926  0.1508 -0.0059
  670CHOL   ROH 8300   3.364  21.884  12.531  0.1560 -0.1302 -0.2315
  670CHOL    R1 8301   3.556  22.060  12.422  0.1611 -0.1371 -0.2333
  670CHOL    R2 8302   3.740  22.195  12.577 -0.0183  0.0761 -0.2058
  670CHOL    R3 8303   3.919  22.081  12.408  0.1636  0.0130  0.0274
  670CHOL    R4 8304   4.067  22.300  12.536 -0.1326  0.4082 -0.2901
  670CHOL    R5 8305   4.046  22.265  12.322 -0.0386  0.0294 -0.2424
  670CHOL    C1 8306   4.426  22.252  12.354 -0.0282  0.5423 -0.1203
  670CHOL    C2 8307   4.782  22.162  12.409 -0.5701  0.0079  0.1716
  671CHOL   ROH 8308  14.383  30.834  15.975  0.1575  0.2693 -0.0556
  671CHOL    R1 8309  14.573  30.802  16.182 -0.0031  0.2789  0.0956
  671CHOL    R2 8310  14.845  30.791  16.133  0.0136 -0.1429  0.2616
  671CHOL    R3 8311  14.853  30.993  16.316  0.1734  0.0822  0.0109
  671CHOL    R4 8312  15.134  30.935  16.256  0.1365 -0.3778  0.2510
  671CHOL    R5 8313  15.042  30.941  16.454  0.0211 -0.0013  0.1917
  671CHOL    C1 8314  15.310  31.208  16.499  0.3580 -0.3034  0.0093
  671CHOL    C2 8315  15.540  31.351  16.712  0.0084 -0.1218  0.0691
  672CHOL   ROH 8316  33.361  30.508  12.305  0.0164  0.1907  0.1114
  672CHOL    R1 8317  33.433  30.747  12.171  0.0793  0.1028 -0.0124
  672CHOL    R2 8318  33.612  30.751  11.960 -0.0023 -0.0679 -0.0869
  672CHOL    R3 8319  33.408  30.878  11.832  0.0068 -0.0203 -0.0548
  672CHOL    R4 8320  33.638  30.907  11.653  0.0164  0.0395 -0.0313
  672CHOL    R5 8321  33.512  31.068  11.729  0.0153  0.0145  0.0174
  672CHOL    C1 8322  33.462  31.116  11.353  0.0368  0.1469  0.0313
  672CHOL    C2 8323  33.699  31.242  10.975 -0.1144 -0.2059  0.0253
  673CHOL   ROH 8324  24.084  25.442   9.816  0.0469  0.0018  0.1090
  673CHOL    R1 8325  23.903  25.544   9.625  0.0456  0.0326  0.1270
  673CHOL    R2 8326  23.731  25.382   9.481  0.1188  0.0440  0.0259
  673CHOL    R3 8327  23.542  25.551   9.579  0.0505 -0.0597  0.0730
  673CHOL    R4 8328  23.453  25.490   9.306  0.1438  0.0845  0.0107
  673CHOL    R5 8329  23.482  25.689   9.392  0.0721  0.0395  0.1390
  673CHOL    C1 8330  23.114  25.711   9.296  0.0944  0.0108  0.0461
  673CHOL    C2 8331  22.750  25.461   9.275 -0.0467  0.0969 -0.1211
  674CHOL   ROH 8332   6.507  20.104  18.711 -0.0542  0.0230  0.2121
  674CHOL    R1 8333   6.683  20.326  18.717 -0.2774  0.2140 -0.1051
  674CHOL    R2 8334   6.957  20.299  18.700 -0.2268  0.4333  0.2882
  674CHOL    R3 8335   6.930  20.475  18.495 -0.1588 -0.0795 -0.1719
  674CHOL    R4 8336   7.219  20.454  18.537 -0.1862  0.3487  0.2724
  674CHOL    R5 8337   7.101  20.638  18.532 -0.3970  0.2106 -0.3202
  674CHOL    C1 8338   7.345  20.710  18.249 -0.0987 -0.1819 -0.1688
  674CHOL    C2 8339   7.370  21.113  18.220 -0.1899  0.1422 -0.0186
  675CHOL   ROH 8340  20.689  28.416  12.804  0.1313 -0.0859 -0.1040
  675CHOL    R1 8341  20.547  28.279  12.601  0.0483  0.1942 -0.2371
  675CHOL    R2 8342  20.358  28.085  12.657  0.2420 -0.0516 -0.4292
  675CHOL    R3 8343  20.199  28.242  12.501 -0.0171  0.1306  0.0088
  675CHOL    R4 8344  20.059  27.984  12.516  0.2651 -0.0586 -0.4738
  675CHOL    R5 8345  20.114  28.092  12.334  0.0444  0.4047 -0.2739
  675CHOL    C1 8346  19.736  28.072  12.288  0.0357  0.1080 -0.0886
  675CHOL    C2 8347  19.461  28.076  12.038  0.1188 -0.1015  0.0275
  676CHOL   ROH 8348  32.534  31.787   7.840  0.1429  0.0523  0.1544
  676CHOL    R1 8349  32.362  31.888   8.041  0.0801  0.0963  0.0788
  676CHOL    R2 8350  32.155  31.740   8.147  0.0227  0.1323  0.0202
  676CHOL    R3 8351  32.275  31.801   8.383 -0.0567  0.1466  0.0569
  676CHOL    R4 8352  31.992  31.766   8.451 -0.0738  0.1221 -0.0305
  676CHOL    R5 8353  32.116  31.939   8.497 -0.1041  0.1331  0.0057
  676CHOL    C1 8354  32.010  31.837   8.849 -0.2043  0.1291 -0.0257
  676CHOL    C2 8355  32.088  31.845   9.247 -0.1052  0.0619 -0.2383
  677CHOL   ROH 8356  17.091  29.438  18.706 -0.0713  0.1988  0.0808
  677CHOL    R1 8357  16.880  29.448  18.518  0.0305  0.1081 -0.0381
  677CHOL    R2 8358  16.868  29.280  18.299  0.0869 -0.0781  0.1022
  677CHOL    R3 8359  16.622  29.221  18.398  0.0141  0.0933  0.0244
  677CHOL    R4 8360  16.596  29.185  18.108  0.1940 -0.2863  0.0511
  677CHOL    R5 8361  16.470  29.309  18.236  0.1314 -0.0956 -0.1919
  677CHOL    C1 8362  16.206  29.075  18.090  0.1875 -0.2471 -0.0518
  677CHOL    C2 8363  16.247  28.701  17.930 -0.1399 -0.0174  0.2906
  678CHOL   ROH 8364  14.647  25.228  21.207  0.1749  0.0976 -0.0559
  678CHOL    R1 8365  14.409  25.245  21.055  0.0844  0.1890  0.0959
  678CHOL    R2 8366  14.315  25.484  20.952  0.2106  0.1968 -0.0041
  678CHOL    R3 8367  14.317  25.346  20.718 -0.0628  0.0323  0.0885
  678CHOL    R4 8368  14.132  25.569  20.672  0.1968  0.2331  0.0160
  678CHOL    R5 8369  14.090  25.358  20.640 -0.0829  0.2626  0.1787
  678CHOL    C1 8370  14.027  25.490  20.288 -0.0677  0.0996  0.1143
  678CHOL    C2 8371  13.815  25.615  20.129  0.0294 -0.1068  0.0684
  679CHOL   ROH 8372   0.540  17.732   6.915  0.0100  0.1528 -0.0270
  679CHOL    R1 8373   0.665  17.809   6.673  0.1123  0.1846  0.0357
  679CHOL    R2 8374   0.937  17.852   6.654  0.1621 -0.0981  0.0887
  679CHOL    R3 8375   0.920  17.671   6.452 -0.0196  0.0597 -0.0394
  679CHOL    R4 8376   1.201  17.753   6.454  0.1062 -0.3542  0.1395
  679CHOL    R5 8377   1.066  17.756   6.283  0.1814 -0.0408  0.0806
  679CHOL    C1 8378   1.338  17.525   6.148 -0.0970 -0.3544  0.0489
  679CHOL    C2 8379   1.726  17.582   6.059 -0.1492  0.1624 -0.1659
  680CHOL   ROH 8380  13.124  33.465  15.854 -0.1615 -0.0069  0.1424
  680CHOL    R1 8381  13.264  33.580  16.071 -0.1378  0.0843  0.0790
  680CHOL    R2 8382  13.361  33.430  16.282 -0.0532  0.1637  0.0970
  680CHOL    R3 8383  13.596  33.550  16.218 -0.0965  0.2017  0.0096
  680CHOL    R4 8384  13.617  33.496  16.505  0.0660  0.0999 -0.0208
  680CHOL    R5 8385  13.646  33.688  16.407 -0.0007  0.1373  0.0317
  680CHOL    C1 8386  13.987  33.647  16.574  0.0949  0.0989 -0.1713
  680CHOL    C2 8387  14.372  33.776  16.526 -0.1235 -0.1400  0.3148
  681CHOL   ROH 8388  10.214  14.605  14.441  0.3242  0.0744  0.0606
  681CHOL    R1 8389  10.171  14.690  14.707  0.1075  0.1544  0.0019
  681CHOL    R2 8390  10.286  14.562  14.924 -0.1152  0.1818  0.1388
  681CHOL    R3 8391  10.376  14.812  14.982 -0.1052  0.1748  0.1527
  681CHOL    R4 8392  10.343  14.682  15.243  0.0873  0.0939  0.1365
  681CHOL    R5 8393  10.258  14.873  15.181  0.0228  0.1020  0.2516
  681CHOL    C1 8394  10.461  14.987  15.483  0.2145  0.0363  0.1482
  681CHOL    C2 8395  10.682  15.237  15.542  0.1677 -0.0013 -0.2649
  682CHOL   ROH 8396  19.859   6.882  12.347 -0.0163  0.1437 -0.0840
  682CHOL    R1 8397  20.040   6.987  12.538 -0.0284  0.1247 -0.0620
  682CHOL    R2 8398  19.981   6.999  12.808 -0.0131  0.0221 -0.0538
  682CHOL    R3 8399  20.215   6.863  12.832  0.0212  0.0699 -0.1145
  682CHOL    R4 8400  20.146   6.942  13.106  0.0921  0.0837 -0.1000
  682CHOL    R5 8401  20.335   6.980  13.004  0.0528  0.1104 -0.1637
  682CHOL    C1 8402  20.462   6.780  13.303  0.1862  0.1644 -0.1839
  682CHOL    C2 8403  20.400   6.931  13.762 -0.1724 -0.2478 -0.0851
  683CHOL   ROH 8404   3.207  24.580   8.340 -0.1981  0.0743  0.0118
  683CHOL    R1 8405   3.232  24.316   8.243 -0.0474  0.0601  0.0873
  683CHOL    R2 8406   3.353  24.114   8.388 -0.1397  0.1161  0.2422
  683CHOL    R3 8407   3.118  23.985   8.344 -0.0700  0.0554  0.0456
  683CHOL    R4 8408   3.306  23.773   8.418 -0.0942  0.1123  0.2750
  683CHOL    R5 8409   3.182  23.780   8.239  0.0756  0.0448  0.1532
  683CHOL    C1 8410   3.059  23.453   8.393 -0.0022  0.0534  0.1095
  683CHOL    C2 8411   2.829  23.132   8.292  0.0103 -0.3335  0.1227
  684CHOL   ROH 8412  30.529  13.871   3.765 -0.0124  0.0892  0.0285
  684CHOL    R1 8413  30.603  13.771   3.511 -0.0963  0.0841  0.0057
  684CHOL    R2 8414  30.514  13.883   3.275 -0.0151  0.2031  0.0315
  684CHOL    R3 8415  30.780  13.896   3.219 -0.0054  0.0080  0.0277
  684CHOL    R4 8416  30.649  13.885   2.957 -0.0315  0.3126  0.0249
  684CHOL    R5 8417  30.808  13.753   3.028 -0.1431  0.1194 -0.0771
  684CHOL    C1 8418  30.977  13.898   2.718 -0.0317  0.1933  0.0176
  684CHOL    C2 8419  31.041  13.730   2.369 -0.1080 -0.0755  0.1769
  685CHOL   ROH 8420  33.305  23.971   6.607  0.2171 -0.0883 -0.1484
  685CHOL    R1 8421  33.526  24.064   6.457  0.1850  0.0538 -0.1080
  685CHOL    R2 8422  33.519  24.301   6.314  0.1036  0.1145 -0.0040
  685CHOL    R3 8423  33.742  24.357   6.459  0.0846  0.1270  0.0199
  685CHOL    R4 8424  33.767  24.522   6.218  0.0717  0.1747  0.0510
  685CHOL    R5 8425  33.915  24.382   6.295  0.0912  0.1865  0.0351
  685CHOL    C1 8426  34.120  24.703   6.298  0.0348  0.2219  0.1055
  685CHOL    C2 8427  34.265  25.052   6.253 -0.1984 -0.3284 -0.2083
  686CHOL   ROH 8428   8.749  11.810  15.465  0.1047 -0.1742  0.0865
  686CHOL    R1 8429   8.726  12.053  15.608  0.0796 -0.0140 -0.1874
  686CHOL    R2 8430   8.864  12.102  15.842 -0.1822  0.1319 -0.0618
  686CHOL    R3 8431   8.948  12.323  15.709  0.1276 -0.0553 -0.1815
  686CHOL    R4 8432   8.928  12.408  15.989 -0.5239  0.3395 -0.3373
  686CHOL    R5 8433   8.834  12.505  15.817 -0.1283  0.1008 -0.6955
  686CHOL    C1 8434   9.044  12.794  15.949 -0.4322  0.2845 -0.6108
  686CHOL    C2 8435   9.025  13.112  15.817  0.2433  0.0193 -0.2057
  687CHOL   ROH 8436  12.453  33.240  19.678  0.0491  0.0121  0.1744
  687CHOL    R1 8437  12.234  33.282  19.503 -0.1487 -0.0450  0.4059
  687CHOL    R2 8438  12.231  33.189  19.244 -0.1666  0.4178  0.2354
  687CHOL    R3 8439  11.996  33.075  19.322  0.0785 -0.1288  0.2007
  687CHOL    R4 8440  11.948  33.163  19.046 -0.2471  0.2487  0.3716
  687CHOL    R5 8441  11.827  33.212  19.221 -0.2283 -0.2533  0.5339
  687CHOL    C1 8442  11.563  33.041  19.005 -0.0639 -0.3619  0.4179
  687CHOL    C2 8443  11.275  33.221  19.217  0.0526 -0.0201 -0.0196
  688CHOL   ROH 8444   9.707   4.270  18.756 -0.2114 -0.0438  0.0245
  688CHOL    R1 8445   9.519   4.191  18.559 -0.2417  0.1291 -0.0174
  688CHOL    R2 8446   9.375   4.373  18.409  0.0324  0.2638 -0.1197
  688CHOL    R3 8447   9.479   4.233  18.200 -0.0653  0.0754 -0.0441
  688CHOL    R4 8448   9.299   4.430  18.077  0.1878  0.2363 -0.1602
  688CHOL    R5 8449   9.297   4.214  18.045 -0.0455  0.2268 -0.0870
  688CHOL    C1 8450   9.352   4.332  17.687  0.1863  0.0433 -0.1130
  688CHOL    C2 8451   9.065   4.119  17.415 -0.2521  0.2877  0.2239
  689CHOL   ROH 8452  20.264   9.735  11.791 -0.1164  0.1261 -0.0654
  689CHOL    R1 8453  20.514   9.735  11.923 -0.1448  0.2440 -0.0109
  689CHOL    R2 8454  20.597   9.941  12.087 -0.3810  0.1683  0.2023
  689CHOL    R3 8455  20.633   9.741  12.267 -0.2256  0.0324  0.0221
  689CHOL    R4 8456  20.840   9.938  12.332 -0.0443 -0.0998 -0.1277
  689CHOL    R5 8457  20.871   9.726  12.292 -0.1928 -0.0906 -0.3116
  689CHOL    C1 8458  21.015   9.748  12.644  0.2977 -0.3837 -0.4893
  689CHOL    C2 8459  21.209   9.537  12.846  0.0692 -0.4529 -0.0428
  690CHOL   ROH 8460  10.007  34.215  17.227  0.1880  0.0312  0.0173
  690CHOL    R1 8461   9.949  34.202  17.504  0.2573 -0.0820  0.0269
  690CHOL    R2 8462  10.138  34.252  17.698  0.2224  0.1712 -0.0056
  690CHOL    R3 8463   9.954  34.432  17.786 -0.0218 -0.1009  0.0501
  690CHOL    R4 8464  10.174  34.449  17.980  0.1991  0.5089 -0.2346
  690CHOL    R5 8465   9.963  34.414  18.025  0.3155  0.1381  0.0612
  690CHOL    C1 8466  10.021  34.732  18.227 -0.0438  0.4497 -0.3154
  690CHOL    C2 8467  10.014  34.945  18.515  0.3171 -0.0104 -0.0240
  691CHOL   ROH 8468  34.118  20.164   5.514 -0.0719  0.2330 -0.0425
  691CHOL    R1 8469  34.261  20.274   5.296 -0.0259  0.3618  0.0519
  691CHOL    R2 8470  34.416  20.501   5.320  0.2312  0.1653  0.2993
  691CHOL    R3 8471  34.610  20.341   5.217  0.0227  0.0857  0.0248
  691CHOL    R4 8472  34.711  20.614   5.180  0.2583  0.0309  0.2467
  691CHOL    R5 8473  34.691  20.461   5.026  0.0259  0.2054  0.1004
  691CHOL    C1 8474  35.066  20.530   5.002  0.0785 -0.1224 -0.0417
  691CHOL    C2 8475   0.003  20.554   4.853 -0.0254 -0.2638  0.2290
  692CHOL   ROH 8476  10.171  22.162  18.267  0.0284 -0.2900  0.0040
  692CHOL    R1 8477  10.110  21.954  18.449  0.0594 -0.3183 -0.0177
  692CHOL    R2 8478  10.190  21.960  18.713  0.0537 -0.3313 -0.0158
  692CHOL    R3 8479   9.926  21.922  18.761  0.0592 -0.3795 -0.0243
  692CHOL    R4 8480  10.057  21.864  19.017  0.0507 -0.2457  0.0103
  692CHOL    R5 8481   9.919  21.734  18.910  0.0936 -0.3233  0.0492
  692CHOL    C1 8482   9.730  21.772  19.239  0.0542 -0.2416  0.0170
  692CHOL    C2 8483   9.632  21.797  19.685 -0.1027  0.2947 -0.1472
  693CHOL   ROH 8484  28.942  25.384   2.288  0.0967  0.1043  0.1100
  693CHOL    R1 8485  28.971  25.315   2.561  0.1059  0.0431  0.0937
  693CHOL    R2 8486  28.811  25.126   2.684 -0.0551  0.1937  0.1189
  693CHOL    R3 8487  29.050  25.014   2.750 -0.1501 -0.0623  0.0354
  693CHOL    R4 8488  28.855  24.882   2.925 -0.2323  0.1366  0.0937
  693CHOL    R5 8489  29.038  24.984   2.988 -0.1036 -0.0591  0.0380
  693CHOL    C1 8490  29.105  24.636   3.128 -0.4248 -0.1376  0.0007
  693CHOL    C2 8491  28.966  24.355   3.387  0.2230 -0.1794 -0.1112
  694CHOL   ROH 8492  19.698  10.952  15.916 -0.1293  0.0951  0.0710
  694CHOL    R1 8493  19.634  10.744  15.735  0.0368  0.0222  0.0947
  694CHOL    R2 8494  19.374  10.667  15.683  0.0934 -0.1316  0.0356
  694CHOL    R3 8495  19.446  10.713  15.425  0.1422 -0.1449  0.0467
  694CHOL    R4 8496  19.192  10.568  15.406  0.1102 -0.0848  0.0077
  694CHOL    R5 8497  19.379  10.514  15.308  0.1123 -0.1276  0.0342
  694CHOL    C1 8498  19.154  10.552  15.003  0.1657 -0.0698  0.0019
  694CHOL    C2 8499  18.927  10.454  14.717 -0.1041  0.0827  0.2192
  695CHOL   ROH 8500  30.171  23.089   4.461 -0.1990 -0.0089 -0.1926
  695CHOL    R1 8501  30.088  23.281   4.270 -0.1097  0.0875 -0.1360
  695CHOL    R2 8502  30.259  23.471   4.166 -0.0554  0.1301  0.0257
  695CHOL    R3 8503  30.177  23.369   3.928  0.0386  0.2463 -0.0570
  695CHOL    R4 8504  30.289  23.632   3.861  0.1019  0.2594  0.1085
  695CHOL    R5 8505  30.091  23.558   3.809  0.1171  0.3086 -0.0133
  695CHOL    C1 8506  30.229  23.629   3.461  0.2815  0.4431  0.0790
  695CHOL    C2 8507  30.326  23.742   3.167  0.2573  0.0788  0.2579
  696CHOL   ROH 8508  15.847  13.138  14.814 -0.0168 -0.0904  0.0153
  696CHOL    R1 8509  15.871  13.213  15.086 -0.0385 -0.0540  0.0072
  696CHOL    R2 8510  16.113  13.213  15.219 -0.0495 -0.0364  0.0269
  696CHOL    R3 8511  16.046  13.470  15.275 -0.0536 -0.0289 -0.0131
  696CHOL    R4 8512  16.197  13.380  15.509 -0.1648 -0.0316  0.0579
  696CHOL    R5 8513  15.998  13.470  15.510 -0.1580 -0.0157 -0.0338
  696CHOL    C1 8514  16.184  13.720  15.731 -0.2360 -0.0218  0.0387
  696CHOL    C2 8515  16.280  13.942  16.042 -0.1710  0.2503 -0.0714
  697CHOL   ROH 8516  28.249  14.568   3.831  0.0397 -0.3638 -0.0613
  697CHOL    R1 8517  28.283  14.499   3.559  0.0267 -0.1883 -0.1081
  697CHOL    R2 8518  28.085  14.535   3.370 -0.0022 -0.1207 -0.0635
  697CHOL    R3 8519  28.279  14.673   3.239 -0.0506  0.0072 -0.0020
  697CHOL    R4 8520  28.113  14.558   3.026  0.1293 -0.1595 -0.0556
  697CHOL    R5 8521  28.329  14.537   3.047  0.1373  0.0112  0.0425
  697CHOL    C1 8522  28.312  14.700   2.703  0.1605 -0.0621  0.0066
  697CHOL    C2 8523  28.426  14.498   2.416 -0.1308 -0.2411 -0.0097
  698CHOL   ROH 8524  26.519   9.843   7.074 -0.0503  0.1038  0.0523
  698CHOL    R1 8525  26.342   9.878   6.856 -0.0143  0.0203  0.0096
  698CHOL    R2 8526  26.347   9.716   6.633  0.0216 -0.0662  0.0738
  698CHOL    R3 8527  26.083   9.682   6.691  0.0114 -0.0421  0.0427
  698CHOL    R4 8528  26.106   9.612   6.407  0.0195  0.0605  0.0173
  698CHOL    R5 8529  25.969   9.757   6.495  0.0385  0.0522  0.0623
  698CHOL    C1 8530  25.719   9.520   6.331  0.0090  0.1569 -0.0449
  698CHOL    C2 8531  25.363   9.691   6.205  0.0124 -0.1523 -0.0705
  699CHOL   ROH 8532   9.451  12.436  17.674  0.2661  0.0346  0.0426
  699CHOL    R1 8533   9.285  12.349  17.462  0.0653 -0.0670  0.2398
  699CHOL    R2 8534   9.302  12.453  17.207 -0.3341 -0.0230  0.2277
  699CHOL    R3 8535   9.332  12.192  17.137 -0.2223  0.0073  0.1611
  699CHOL    R4 8536   9.265  12.329  16.886  0.0680  0.0996  0.1312
  699CHOL    R5 8537   9.163  12.156  16.970 -0.0179  0.0552 -0.0601
  699CHOL    C1 8538   9.271  12.012  16.634  0.4072  0.1994  0.0118
  699CHOL    C2 8539   9.145  11.956  16.321  0.2417 -0.2348  0.2849
  700CHOL   ROH 8540  17.033  10.402  14.590 -0.1901  0.0574  0.1585
  700CHOL    R1 8541  17.137  10.265  14.814 -0.0309  0.1180  0.1225
  700CHOL    R2 8542  17.408  10.227  14.853  0.0055  0.2632  0.0203
  700CHOL    R3 8543  17.357  10.343  15.094  0.0345  0.2424  0.0364
  700CHOL    R4 8544  17.643  10.276  15.102 -0.0008  0.0930  0.0604
  700CHOL    R5 8545  17.492  10.220  15.249 -0.0490  0.1423  0.0298
  700CHOL    C1 8546  17.732  10.414  15.472  0.0234 -0.0257  0.0991
  700CHOL    C2 8547  17.780  10.408  15.809 -0.6037  0.0572  0.1572
  701CHOL   ROH 8548  16.614  24.644  16.771  0.0809 -0.0406 -0.2174
  701CHOL    R1 8549  16.886  24.698  16.827  0.0710 -0.0414 -0.1677
  701CHOL    R2 8550  16.971  24.802  17.068  0.0376 -0.1276 -0.1199
  701CHOL    R3 8551  17.135  24.585  17.067  0.0544 -0.1145 -0.1852
  701CHOL    R4 8552  17.257  24.769  17.259  0.0961 -0.1190 -0.2054
  701CHOL    R5 8553  17.355  24.677  17.088  0.0536 -0.0978 -0.2420
  701CHOL    C1 8554  17.578  24.547  17.369  0.1460 -0.1019 -0.3165
  701CHOL    C2 8555  17.916  24.473  17.444 -0.2136 -0.0794  0.0102
  702CHOL   ROH 8556   4.138  27.712  18.371  0.0529 -0.3586  0.0428
  702CHOL    R1 8557   4.324  27.798  18.176  0.0323 -0.3599  0.0221
  702CHOL    R2 8558   4.443  28.047  18.184 -0.0701 -0.3070 -0.0676
  702CHOL    R3 8559   4.672  27.902  18.171 -0.0097 -0.2188  0.0079
  702CHOL    R4 8560   4.683  28.081  17.938 -0.0813 -0.3319 -0.0822
  702CHOL    R5 8561   4.705  27.864  17.936  0.0087 -0.3239  0.0275
  702CHOL    C1 8562   5.039  27.965  17.783 -0.0311 -0.2633 -0.0194
  702CHOL    C2 8563   5.295  28.185  17.765 -0.2279  0.1220  0.0780
  703CHOL   ROH 8564   7.431  34.557  15.729 -0.0759  0.1174  0.0108
  703CHOL    R1 8565   7.402  34.592  16.008  0.0079  0.3986 -0.0135
  703CHOL    R2 8566   7.255  34.798  16.118 -0.3438  0.2473 -0.1876
  703CHOL    R3 8567   7.127  34.596  16.247  0.1241  0.1442  0.1262
  703CHOL    R4 8568   7.072  34.834  16.409 -0.2667  0.2380 -0.1381
  703CHOL    R5 8569   7.157  34.646  16.480  0.1470  0.4879  0.0521
  703CHOL    C1 8570   6.846  34.665  16.700  0.2175  0.1353  0.1852
  703CHOL    C2 8571   6.984  34.949  16.929 -0.0868  0.0910 -0.3985
  704CHOL   ROH 8572  34.017   4.696  10.753  0.0439 -0.0013  0.3348
  704CHOL    R1 8573  34.216   4.515  10.666  0.0362 -0.0208  0.3573
  704CHOL    R2 8574  34.278   4.479  10.399 -0.0815 -0.1772  0.3502
  704CHOL    R3 8575  34.531   4.534  10.485 -0.0505 -0.0786  0.1991
  704CHOL    R4 8576  34.567   4.392  10.231 -0.1472 -0.0974  0.1948
  704CHOL    R5 8577  34.658   4.341  10.423 -0.0187 -0.0425  0.1501
  704CHOL    C1 8578  34.972   4.392  10.213 -0.1570  0.0417 -0.0376
  704CHOL    C2 8579  35.055   4.342   9.939  0.0306  0.4889 -0.2549
  705CHOL   ROH 8580  16.490  30.781  15.132 -0.0183  0.0739  0.0459
  705CHOL    R1 8581  16.539  30.753  14.855  0.0631  0.0479  0.0628
  705CHOL    R2 8582  16.357  30.834  14.663  0.0905 -0.0327  0.0035
  705CHOL    R3 8583  16.569  30.975  14.568  0.0742  0.0156  0.0383
  705CHOL    R4 8584  16.395  30.937  14.335  0.0711  0.0639  0.0313
  705CHOL    R5 8585  16.607  30.886  14.349  0.0771  0.0811  0.0116
  705CHOL    C1 8586  16.617  31.130  14.055  0.0446  0.1653  0.0800
  705CHOL    C2 8587  17.029  31.177  13.854 -0.1218  0.0412  0.2120
  706CHOL   ROH 8588   2.660  24.104   6.465 -0.1679  0.0219 -0.0388
  706CHOL    R1 8589   2.601  23.844   6.560 -0.1584  0.0801  0.1282
  706CHOL    R2 8590   2.442  23.799   6.782 -0.4492  0.2084 -0.0518
  706CHOL    R3 8591   2.302  23.642   6.609 -0.1193 -0.0360 -0.1027
  706CHOL    R4 8592   2.325  23.482   6.854 -0.3242  0.1884  0.0660
  706CHOL    R5 8593   2.382  23.421   6.653 -0.0206  0.0542  0.1896
  706CHOL    C1 8594   2.125  23.151   6.734  0.0583 -0.0525  0.0869
  706CHOL    C2 8595   2.349  22.846   6.697 -0.0330  0.0656 -0.1812
  707CHOL   ROH 8596  31.195  19.823   3.751  0.0446 -0.1235 -0.0278
  707CHOL    R1 8597  31.294  19.884   3.492 -0.0811 -0.0690 -0.0633
  707CHOL    R2 8598  31.547  19.813   3.409 -0.0738  0.0623 -0.1567
  707CHOL    R3 8599  31.413  19.697   3.204 -0.0897 -0.0043 -0.1089
  707CHOL    R4 8600  31.677  19.761   3.094 -0.1221  0.0233 -0.1701
  707CHOL    R5 8601  31.484  19.819   3.010 -0.1482 -0.0303 -0.1467
  707CHOL    C1 8602  31.627  19.621   2.716 -0.1657 -0.0628 -0.1331
  707CHOL    C2 8603  32.025  19.538   2.533  0.0806 -0.0346  0.2962
  708CHOL   ROH 8604  27.554  11.850   1.692  0.0121  0.2543 -0.1723
  708CHOL    R1 8605  27.526  11.944   1.958  0.0921  0.2101 -0.1484
  708CHOL    R2 8606  27.653  11.824   2.172 -0.0163  0.0425 -0.1785
  708CHOL    R3 8607  27.746  12.076   2.216  0.2060 -0.0507 -0.1104
  708CHOL    R4 8608  27.751  11.947   2.480 -0.3056  0.0018 -0.0679
  708CHOL    R5 8609  27.655  12.137   2.429 -0.0256  0.1002 -0.2487
  708CHOL    C1 8610  27.896  12.255   2.700 -0.2654 -0.1095  0.0603
  708CHOL    C2 8611  28.215  12.272   2.786  0.2680 -0.2008 -0.1708
  709CHOL   ROH 8612  33.713   2.183  11.660 -0.0913  0.1478 -0.1671
  709CHOL    R1 8613  33.803   2.161  11.393 -0.0919  0.3157 -0.1821
  709CHOL    R2 8614  34.013   2.310  11.293  0.2348  0.0212  0.0524
  709CHOL    R3 8615  34.111   2.066  11.224 -0.2524 -0.0972 -0.2495
  709CHOL    R4 8616  34.163   2.236  10.991  0.5241  0.2293  0.1440
  709CHOL    R5 8617  34.059   2.045  10.991  0.0500  0.4720 -0.3788
  709CHOL    C1 8618  34.344   1.965  10.750  0.2350  0.2393 -0.0861
  709CHOL    C2 8619  34.530   2.190  10.491  0.1027 -0.1136  0.3589
  710CHOL   ROH 8620  11.095  32.354  20.374 -0.0817  0.0187  0.0452
  710CHOL    R1 8621  11.110  32.227  20.121 -0.0516  0.0782  0.0170
  710CHOL    R2 8622  10.886  32.173  19.968 -0.0441  0.0059  0.0322
  710CHOL    R3 8623  11.023  32.311  19.778 -0.1304  0.1101  0.0444
  710CHOL    R4 8624  10.808  32.176  19.631 -0.2165  0.2159  0.0732
  710CHOL    R5 8625  11.021  32.166  19.587 -0.2399  0.2251 -0.0423
  710CHOL    C1 8626  10.891  32.307  19.257 -0.3980  0.4355  0.1083
  710CHOL    C2 8627  10.823  32.153  18.904  0.0031 -0.2513 -0.1489
  711CHOL   ROH 8628   4.833  25.297  11.866  0.0759  0.0372 -0.1625
  711CHOL    R1 8629   4.814  25.067  12.030  0.2874 -0.0160 -0.2103
  711CHOL    R2 8630   4.576  24.930  12.067  0.2823  0.1065  0.2331
  711CHOL    R3 8631   4.723  24.717  11.985 -0.0086  0.0530 -0.1620
  711CHOL    R4 8632   4.488  24.600  12.115  0.2090  0.1381  0.3184
  711CHOL    R5 8633   4.696  24.555  12.160  0.2892  0.0111 -0.1533
  711CHOL    C1 8634   4.574  24.207  12.065 -0.1067  0.1065 -0.0028
  711CHOL    C2 8635   4.521  24.020  11.849  0.1127  0.0195 -0.0564
  712CHOL   ROH 8636   1.883  26.265   8.414 -0.0164  0.0845  0.2393
  712CHOL    R1 8637   1.809  25.993   8.437 -0.0707  0.0887  0.1082
  712CHOL    R2 8638   1.845  25.849   8.670  0.0065 -0.0598 -0.0007
  712CHOL    R3 8639   1.580  25.798   8.642 -0.0198  0.0158  0.0984
  712CHOL    R4 8640   1.683  25.571   8.796 -0.0763  0.1328  0.3242
  712CHOL    R5 8641   1.567  25.561   8.611 -0.1144 -0.0164  0.3496
  712CHOL    C1 8642   1.338  25.362   8.843 -0.1492  0.3157  0.6064
  712CHOL    C2 8643   1.248  25.066   8.953 -0.1539 -0.1332  0.2249
  713CHOL   ROH 8644  22.075   8.518   9.293 -0.1035  0.0927  0.0654
  713CHOL    R1 8645  22.318   8.613   9.401 -0.0862  0.0099  0.0997
  713CHOL    R2 8646  22.498   8.448   9.532 -0.1436 -0.0582  0.0938
  713CHOL    R3 8647  22.673   8.549   9.350 -0.0993 -0.0834  0.1224
  713CHOL    R4 8648  22.842   8.435   9.561 -0.1511  0.0458  0.2335
  713CHOL    R5 8649  22.851   8.639   9.483 -0.1753  0.0169  0.1568
  713CHOL    C1 8650  23.207   8.523   9.408 -0.1141  0.0825  0.3418
  713CHOL    C2 8651  23.502   8.560   9.531 -0.2919 -0.0841 -0.2073
  714CHOL   ROH 8652  24.421  14.620   2.371  0.0180  0.3739 -0.1844
  714CHOL    R1 8653  24.308  14.705   2.617 -0.0162  0.2377 -0.1523
  714CHOL    R2 8654  24.343  14.566   2.853 -0.0159  0.1278 -0.2172
  714CHOL    R3 8655  24.432  14.806   2.944 -0.0595  0.0972 -0.0920
  714CHOL    R4 8656  24.398  14.643   3.185  0.2144 -0.1191 -0.1967
  714CHOL    R5 8657  24.313  14.840   3.149  0.0879 -0.1293  0.0340
  714CHOL    C1 8658  24.514  14.913   3.464  0.3073 -0.2916 -0.0673
  714CHOL    C2 8659  24.568  14.500   3.668  0.0768  0.0903  0.0201
  715CHOL   ROH 8660  23.180  19.833  11.876 -0.0482 -0.1322  0.0831
  715CHOL    R1 8661  22.931  19.921  11.774 -0.0919 -0.3050  0.0382
  715CHOL    R2 8662  22.910  20.118  11.582 -0.2083 -0.0165  0.3397
  715CHOL    R3 8663  22.765  19.929  11.451  0.1459 -0.0061 -0.0786
  715CHOL    R4 8664  22.679  20.184  11.333 -0.1659  0.0763  0.3240
  715CHOL    R5 8665  22.550  20.030  11.420  0.0114 -0.2714 -0.0193
  715CHOL    C1 8666  22.408  20.045  11.066  0.1920  0.1397 -0.0779
  715CHOL    C2 8667  22.041  20.118  11.286  0.0523  0.3119  0.0716
  716CHOL   ROH 8668  21.944  20.518  14.701 -0.2747  0.0342  0.0626
  716CHOL    R1 8669  21.711  20.619  14.577 -0.1892  0.0607 -0.0792
  716CHOL    R2 8670  21.719  20.806  14.374 -0.0401 -0.0521 -0.1770
  716CHOL    R3 8671  21.568  20.622  14.243 -0.0637 -0.0630 -0.1343
  716CHOL    R4 8672  21.488  20.879  14.127 -0.2163 -0.0561 -0.0143
  716CHOL    R5 8673  21.356  20.729  14.213 -0.1158 -0.1213  0.0265
  716CHOL    C1 8674  21.212  20.749  13.861 -0.3408 -0.0687  0.1205
  716CHOL    C2 8675  21.111  21.017  13.650  0.1579 -0.3346  0.3106
  717CHOL   ROH 8676  31.354  33.405  11.181  0.2321  0.2102 -0.1079
  717CHOL    R1 8677  31.531  33.366  10.964  0.1184 -0.1129 -0.1458
  717CHOL    R2 8678  31.486  33.178  10.767 -0.3254  0.0427 -0.1968
  717CHOL    R3 8679  31.514  33.392  10.601  0.1197  0.0360 -0.1363
  717CHOL    R4 8680  31.602  33.161  10.442 -0.3162 -0.1045 -0.1865
  717CHOL    R5 8681  31.714  33.345  10.477  0.0475 -0.3311 -0.1230
  717CHOL    C1 8682  31.696  33.352  10.096  0.1070 -0.1962 -0.1238
  717CHOL    C2 8683  31.675  32.989   9.881 -0.0994 -0.0126  0.2322
  718CHOL   ROH 8684  14.601  13.584  15.319  0.0326  0.1387  0.0626
  718CHOL    R1 8685  14.673  13.658  15.582  0.1529 -0.0374  0.0800
  718CHOL    R2 8686  14.485  13.713  15.778  0.2401  0.1776  0.1035
  718CHOL    R3 8687  14.623  13.524  15.917 -0.0220 -0.0605  0.0456
  718CHOL    R4 8688  14.447  13.650  16.116  0.1710  0.1458  0.0898
  718CHOL    R5 8689  14.663  13.626  16.131  0.1402 -0.1720  0.0694
  718CHOL    C1 8690  14.554  13.436  16.443 -0.1155 -0.0963  0.0275
  718CHOL    C2 8691  14.579  13.407  16.744  0.1746 -0.0595 -0.0582
  719CHOL   ROH 8692  12.364  15.213  15.591  0.1101  0.1121  0.1204
  719CHOL    R1 8693  12.174  15.279  15.791  0.0154  0.0196  0.0613
  719CHOL    R2 8694  11.925  15.383  15.731  0.0435  0.0479 -0.0083
  719CHOL    R3 8695  11.838  15.173  15.880 -0.0278 -0.0217 -0.1472
  719CHOL    R4 8696  11.627  15.376  15.906 -0.0141 -0.0133 -0.1086
  719CHOL    R5 8697  11.731  15.275  16.069 -0.0783 -0.1104 -0.1278
  719CHOL    C1 8698  11.371  15.176  16.147 -0.1144 -0.1144 -0.2976
  719CHOL    C2 8699  11.241  14.790  16.210 -0.1295  0.1495 -0.1229
  720CHOL   ROH 8700   3.885  17.445   6.788  0.2678  0.0817  0.0748
  720CHOL    R1 8701   3.677  17.602   6.898  0.2552  0.0536  0.0899
  720CHOL    R2 8702   3.494  17.501   7.078  0.1713 -0.0203 -0.0394
  720CHOL    R3 8703   3.576  17.712   7.230  0.1499 -0.1235  0.1176
  720CHOL    R4 8704   3.287  17.691   7.280  0.1489 -0.1949  0.1038
  720CHOL    R5 8705   3.395  17.869   7.215  0.1300 -0.1318  0.2344
  720CHOL    C1 8706   3.243  17.999   7.539  0.1158 -0.3928  0.3346
  720CHOL    C2 8707   2.836  18.091   7.545  0.2040 -0.0732  0.1012
  721CHOL   ROH 8708   6.491   4.445  13.988 -0.0313 -0.0416  0.2843
  721CHOL    R1 8709   6.320   4.458  14.214 -0.0663  0.0517  0.2529
  721CHOL    R2 8710   6.254   4.696  14.336 -0.1578  0.1107  0.0891
  721CHOL    R3 8711   6.000   4.610  14.294 -0.1253  0.0042  0.1106
  721CHOL    R4 8712   5.985   4.766  14.542 -0.2107  0.1813 -0.0031
  721CHOL    R5 8713   5.917   4.561  14.514 -0.1450  0.1388  0.1343
  721CHOL    C1 8714   5.590   4.725  14.623 -0.2110  0.1225 -0.0366
  721CHOL    C2 8715   5.422   4.505  14.802 -0.0971 -0.0026 -0.1559
  722CHOL   ROH 8716  25.692  30.959   6.367 -0.1863 -0.1884 -0.0832
  722CHOL    R1 8717  25.715  30.843   6.624 -0.1423 -0.1238 -0.0577
  722CHOL    R2 8718  25.853  30.964   6.831 -0.1289 -0.0586 -0.1032
  722CHOL    R3 8719  25.618  30.931   6.964 -0.1098 -0.0514 -0.0675
  722CHOL    R4 8720  25.826  30.894   7.168 -0.0830 -0.0380 -0.0952
  722CHOL    R5 8721  25.664  30.756   7.121 -0.0881 -0.0404 -0.0632
  722CHOL    C1 8722  25.591  30.822   7.490 -0.0376 -0.0189 -0.0570
  722CHOL    C2 8723  25.822  30.748   7.757 -0.2101 -0.1382  0.0575
  723CHOL   ROH 8724   5.316  34.851  18.518 -0.3820  0.1682 -0.0776
  723CHOL    R1 8725   5.303  34.907  18.241 -0.1007  0.4417 -0.0376
  723CHOL    R2 8726   5.461  35.100  18.121  0.3782  0.2220  0.2266
  723CHOL    R3 8727   5.532  34.894  17.958  0.0438  0.2125  0.0890
  723CHOL    R4 8728   5.679  35.125  17.853  0.3578  0.0641  0.1942
  723CHOL    R5 8729   5.548  34.993  17.740  0.1388  0.3197  0.1438
  723CHOL    C1 8730   5.872  34.947  17.545  0.0320 -0.0370  0.0464
  723CHOL    C2 8731   6.185  34.849  17.273  0.0373 -0.1907  0.2040
  724CHOL   ROH 8732  26.177  31.079   8.722  0.0315 -0.1939 -0.2000
  724CHOL    R1 8733  25.932  31.115   8.586  0.0179 -0.0456 -0.1361
  724CHOL    R2 8734  25.892  31.319   8.403  0.0627  0.0351 -0.0560
  724CHOL    R3 8735  25.818  31.114   8.240 -0.0553  0.1229 -0.1133
  724CHOL    R4 8736  25.750  31.357   8.091 -0.0439  0.2043  0.0127
  724CHOL    R5 8737  25.616  31.191   8.137 -0.0731  0.2224 -0.0061
  724CHOL    C1 8738  25.598  31.188   7.756 -0.2164  0.3849 -0.0013
  724CHOL    C2 8739  25.408  31.533   7.684 -0.2668  0.5143 -0.0550
  725CHOL   ROH 8740   2.076  26.618  11.166 -0.0326  0.0093 -0.1617
  725CHOL    R1 8741   1.865  26.430  11.165  0.0442 -0.0803  0.0952
  725CHOL    R2 8742   1.758  26.325  11.397  0.0605  0.2212  0.2419
  725CHOL    R3 8743   1.524  26.413  11.291  0.0365 -0.0310  0.0803
  725CHOL    R4 8744   1.444  26.244  11.517  0.0805  0.3141  0.3580
  725CHOL    R5 8745   1.376  26.227  11.310  0.0974 -0.0500  0.3808
  725CHOL    C1 8746   1.041  26.280  11.487  0.0697  0.1318  0.2739
  725CHOL    C2 8747   1.026  25.968  11.639 -0.0665  0.2618  0.1889
  726CHOL   ROH 8748  31.023  29.410   6.229 -0.0694 -0.1859 -0.0603
  726CHOL    R1 8749  30.865  29.228   6.377  0.0206 -0.0938  0.1507
  726CHOL    R2 8750  30.906  29.180   6.646  0.1073  0.1632  0.1837
  726CHOL    R3 8751  30.643  29.243   6.665  0.0954  0.1079  0.1990
  726CHOL    R4 8752  30.680  29.024   6.856  0.1413  0.0723  0.1532
  726CHOL    R5 8753  30.533  29.033   6.695  0.1377  0.0780  0.1549
  726CHOL    C1 8754  30.301  28.993   6.995  0.1499 -0.0326  0.1499
  726CHOL    C2 8755  30.363  28.646   7.157  0.2118 -0.2079 -0.0505
  727CHOL   ROH 8756  34.379  23.469   7.946  0.0733  0.0040  0.3363
  727CHOL    R1 8757  34.522  23.703   7.879 -0.0141  0.0153  0.1840
  727CHOL    R2 8758  34.742  23.789   8.023  0.0420  0.1126  0.0406
  727CHOL    R3 8759  34.862  23.786   7.779 -0.0854  0.0595 -0.0221
  727CHOL    R4 8760  35.027  23.967   7.941  0.0340  0.0465 -0.1330
  727CHOL    R5 8761  34.937  24.011   7.747 -0.0587  0.0401 -0.0904
  727CHOL    C1 8762  35.305  24.068   7.664 -0.0916 -0.0417 -0.2931
  727CHOL    C2 8763   0.182  24.304   7.544  0.0753  0.1432  0.0272
  728CHOL   ROH 8764  29.855  30.486   5.980  0.0073 -0.1842 -0.1117
  728CHOL    R1 8765  29.769  30.309   6.183  0.1579 -0.1162  0.0133
  728CHOL    R2 8766  29.882  30.306   6.435  0.1049  0.2150  0.0443
  728CHOL    R3 8767  29.624  30.338   6.516  0.0492 -0.0054 -0.0437
  728CHOL    R4 8768  29.760  30.221   6.748  0.1205  0.3189  0.0786
  728CHOL    R5 8769  29.579  30.145   6.651  0.2256  0.0486  0.0910
  728CHOL    C1 8770  29.447  30.202   7.005  0.0769  0.1731  0.0160
  728CHOL    C2 8771  29.514  30.085   7.453  0.0962  0.0991 -0.0242
  729CHOL   ROH 8772   8.647  10.503  14.585  0.0228  0.0173  0.0031
  729CHOL    R1 8773   8.493  10.418  14.807  0.0957 -0.0387  0.0321
  729CHOL    R2 8774   8.589  10.427  15.066  0.1339  0.0151  0.0157
  729CHOL    R3 8775   8.361  10.569  15.111  0.0792 -0.0813  0.0461
  729CHOL    R4 8776   8.418  10.436  15.367  0.4006  0.2694  0.1622
  729CHOL    R5 8777   8.231  10.428  15.255  0.3025  0.0055  0.3394
  729CHOL    C1 8778   8.105  10.574  15.584  0.5047  0.3270  0.2760
  729CHOL    C2 8779   8.096  10.550  15.951  0.5470  0.2402  0.0243
  730CHOL   ROH 8780  22.460  18.139  13.157 -0.0625  0.0558 -0.0620
  730CHOL    R1 8781  22.198  18.247  13.152  0.0011  0.2115 -0.0472
  730CHOL    R2 8782  22.128  18.457  12.987  0.0503  0.0780 -0.2401
  730CHOL    R3 8783  21.933  18.286  12.905 -0.0984  0.1075  0.0417
  730CHOL    R4 8784  21.880  18.535  12.759  0.1154 -0.0801 -0.3658
  730CHOL    R5 8785  21.739  18.423  12.882  0.0193  0.2403 -0.1801
  730CHOL    C1 8786  21.553  18.419  12.549  0.0141 -0.1451 -0.1746
  730CHOL    C2 8787  21.595  18.757  12.339  0.2833  0.0733 -0.1396
  731CHOL   ROH 8788   1.841  31.201  11.131 -0.1548  0.1512  0.1506
  731CHOL    R1 8789   1.585  31.099  11.069 -0.1229  0.1026  0.0968
  731CHOL    R2 8790   1.427  30.971  11.256 -0.0762 -0.0613  0.0262
  731CHOL    R3 8791   1.243  31.156  11.181 -0.1385 -0.0763  0.1416
  731CHOL    R4 8792   1.091  30.959  11.337 -0.0884 -0.2674 -0.0507
  731CHOL    R5 8793   1.046  31.029  11.135 -0.0762 -0.1207 -0.0028
  731CHOL    C1 8794   0.723  31.127  11.314 -0.1540 -0.4012  0.0131
  731CHOL    C2 8795   0.555  31.154  11.615  0.1641  0.1126 -0.0147
  732CHOL   ROH 8796  25.776   1.255  10.858 -0.2713  0.0342  0.1819
  732CHOL    R1 8797  25.683   1.393  10.629  0.0200  0.0806  0.0906
  732CHOL    R2 8798  25.836   1.420  10.400  0.1550 -0.2235  0.1431
  732CHOL    R3 8799  25.616   1.313  10.281  0.0487  0.0437  0.0932
  732CHOL    R4 8800  25.771   1.431  10.061  0.2312 -0.1196  0.1314
  732CHOL    R5 8801  25.561   1.469  10.107  0.2647  0.1246  0.0948
  732CHOL    C1 8802  25.527   1.336   9.751  0.1761  0.1918  0.0778
  732CHOL    C2 8803  25.349   1.245   9.341 -0.1273  0.3971 -0.0970
  733CHOL   ROH 8804  18.860  17.358  12.388 -0.1764  0.0188 -0.0764
  733CHOL    R1 8805  19.083  17.451  12.535 -0.1200 -0.1312 -0.0666
  733CHOL    R2 8806  19.065  17.521  12.802 -0.1190  0.0191 -0.1075
  733CHOL    R3 8807  19.269  17.344  12.829 -0.3022 -0.1726  0.0355
  733CHOL    R4 8808  19.318  17.545  13.037 -0.1209 -0.0771 -0.0952
  733CHOL    R5 8809  19.459  17.479  12.884 -0.1692 -0.3262 -0.0369
  733CHOL    C1 8810  19.657  17.391  13.198 -0.2940 -0.3132  0.0463
  733CHOL    C2 8811  19.798  17.077  13.439  0.0991 -0.1590 -0.1427
  734CHOL   ROH 8812  14.611  28.927  17.040  0.0053  0.2079 -0.0138
  734CHOL    R1 8813  14.711  29.190  17.063  0.1899  0.1310  0.0797
  734CHOL    R2 8814  14.625  29.365  17.259 -0.0151  0.2657 -0.1265
  734CHOL    R3 8815  14.891  29.384  17.313 -0.0907  0.0543  0.3436
  734CHOL    R4 8816  14.781  29.646  17.387  0.0242  0.2331 -0.1028
  734CHOL    R5 8817  14.948  29.609  17.252  0.2406 -0.0566  0.2361
  734CHOL    C1 8818  15.121  29.827  17.513 -0.0236  0.0155  0.3531
  734CHOL    C2 8819  15.399  29.961  17.612  0.0351 -0.0974  0.0821
  735CHOL   ROH 8820   6.860  27.874  17.015 -0.1819 -0.1517  0.0331
  735CHOL    R1 8821   6.801  27.789  17.279 -0.1093  0.0750  0.1232
  735CHOL    R2 8822   6.748  27.966  17.483 -0.3994  0.2433 -0.0958
  735CHOL    R3 8823   6.521  27.818  17.510 -0.1950 -0.0501  0.0359
  735CHOL    R4 8824   6.546  27.962  17.764 -0.4436  0.2895 -0.1266
  735CHOL    R5 8825   6.523  27.746  17.738 -0.1326  0.2228  0.1232
  735CHOL    C1 8826   6.216  27.820  17.952 -0.2775  0.0411 -0.0209
  735CHOL    C2 8827   5.912  27.854  18.195  0.0400  0.5017 -0.0755
  736CHOL   ROH 8828  13.991   3.032  13.259 -0.0527 -0.0756 -0.0363
  736CHOL    R1 8829  14.130   2.892  13.462 -0.0171 -0.0112 -0.0158
  736CHOL    R2 8830  14.348   2.999  13.593 -0.0572  0.0728 -0.0142
  736CHOL    R3 8831  14.203   2.941  13.815 -0.0508  0.0469 -0.0172
  736CHOL    R4 8832  14.482   2.929  13.904 -0.0484 -0.0179 -0.0383
  736CHOL    R5 8833  14.331   2.773  13.929 -0.0710  0.0016 -0.0628
  736CHOL    C1 8834  14.423   2.834  14.294 -0.0375 -0.0950 -0.0553
  736CHOL    C2 8835  14.694   2.631  14.339 -0.2393 -0.0345 -0.0524
  737CHOL   ROH 8836   8.227  34.729  16.443  0.2003 -0.3038 -0.0063
  737CHOL    R1 8837   8.137  34.886  16.660 -0.2143 -0.2800 -0.1913
  737CHOL    R2 8838   7.904  34.830  16.798 -0.0062 -0.8098 -0.0456
  737CHOL    R3 8839   8.069  34.835  17.014  0.0572 -0.0125 -0.0991
  737CHOL    R4 8840   7.799  34.825  17.127  0.1137 -0.8675 -0.0084
  737CHOL    R5 8841   7.954  34.971  17.174 -0.3818 -0.2605 -0.1970
  737CHOL    C1 8842   7.892  34.827  17.521  0.2430 -0.1530 -0.0359
  737CHOL    C2 8843   7.628  34.841  17.864  0.1021 -0.0211  0.2787
  738CHOL   ROH 8844   1.377   2.156  10.355 -0.0734  0.0354 -0.1382
  738CHOL    R1 8845   1.361   2.342  10.568  0.0688  0.0323 -0.1242
  738CHOL    R2 8846   1.178   2.317  10.773  0.1004  0.1155 -0.0849
  738CHOL    R3 8847   1.399   2.333  10.929  0.1434 -0.0077 -0.1329
  738CHOL    R4 8848   1.177   2.404  11.107  0.2342  0.2329 -0.1145
  738CHOL    R5 8849   1.358   2.521  11.072  0.3218  0.0758 -0.1900
  738CHOL    C1 8850   1.385   2.469  11.449  0.3525  0.1855 -0.1769
  738CHOL    C2 8851   1.125   2.171  11.547 -0.0372  0.3326 -0.1171
  739CHOL   ROH 8852   4.835   2.260  17.340 -0.0141 -0.1523  0.0499
  739CHOL    R1 8853   4.976   2.179  17.109 -0.0446 -0.1246  0.0214
  739CHOL    R2 8854   4.926   2.285  16.859 -0.0433 -0.0589  0.0491
  739CHOL    R3 8855   5.193   2.337  16.862 -0.0338 -0.1070  0.0423
  739CHOL    R4 8856   5.123   2.325  16.578 -0.0717  0.0527  0.0448
  739CHOL    R5 8857   5.280   2.211  16.678 -0.0787 -0.0265 -0.0340
  739CHOL    C1 8858   5.489   2.396  16.417 -0.0794  0.0724  0.0354
  739CHOL    C2 8859   5.599   2.555  16.044 -0.0245 -0.0542  0.1490
  740CHOL   ROH 8860  34.919  28.286  13.335  0.0232 -0.0244 -0.1719
  740CHOL    R1 8861  35.038  28.045  13.248 -0.0454 -0.0647 -0.1557
  740CHOL    R2 8862  35.039  27.966  12.984 -0.0383 -0.0670 -0.1571
  740CHOL    R3 8863  35.308  27.949  13.023 -0.0497 -0.1533 -0.1218
  740CHOL    R4 8864  35.263  27.827  12.760 -0.0572 -0.1953 -0.0968
  740CHOL    R5 8865  35.368  27.737  12.929 -0.1102 -0.1936 -0.0662
  740CHOL    C1 8866   0.260  27.729  12.667 -0.0797 -0.3506 -0.0286
  740CHOL    C2 8867   0.464  27.438  12.714  0.0831 -0.0936  0.0639
  741CHOL   ROH 8868   3.120  31.332  13.351  0.1770  0.1851  0.0903
  741CHOL    R1 8869   2.987  31.459  13.566  0.2526  0.2295  0.1111
  741CHOL    R2 8870   2.881  31.318  13.779  0.0658  0.2458  0.0298
  741CHOL    R3 8871   3.033  31.489  13.926  0.2013  0.0371  0.1344
  741CHOL    R4 8872   2.814  31.412  14.105 -0.0663  0.3868 -0.0369
  741CHOL    R5 8873   2.875  31.615  14.054  0.2815  0.2918 -0.0138
  741CHOL    C1 8874   2.919  31.627  14.433 -0.0161  0.2727  0.0223
  741CHOL    C2 8875   2.967  31.684  14.845 -0.0303  0.1169  0.3365
  742CHOL   ROH 8876   4.016   2.789  15.845 -0.1325  0.1833 -0.1727
  742CHOL    R1 8877   4.160   2.879  15.619 -0.0139  0.0753 -0.1410
  742CHOL    R2 8878   4.434   2.852  15.596 -0.0159 -0.0450 -0.0387
  742CHOL    R3 8879   4.371   2.730  15.362  0.0145 -0.0679 -0.0347
  742CHOL    R4 8880   4.645   2.827  15.324 -0.0282  0.0407 -0.0560
  742CHOL    R5 8881   4.474   2.866  15.194 -0.0534 -0.0263 -0.0418
  742CHOL    C1 8882   4.708   2.698  14.945 -0.0069  0.0690 -0.0624
  742CHOL    C2 8883   4.857   2.517  14.633 -0.3533 -0.0019 -0.1023
  743CHOL   ROH 8884   8.179  11.782  13.616 -0.0882 -0.4029  0.0924
  743CHOL    R1 8885   8.022  11.942  13.789 -0.1861 -0.1903 -0.1891
  743CHOL    R2 8886   7.747  11.956  13.771 -0.2080 -0.5079 -0.1221
  743CHOL    R3 8887   7.759  11.888  14.034 -0.0412  0.0596  0.0253
  743CHOL    R4 8888   7.504  12.031  14.005 -0.2439 -0.3366 -0.2137
  743CHOL    R5 8889   7.663  12.076  14.148 -0.2598  0.1791 -0.3442
  743CHOL    C1 8890   7.374  12.011  14.388 -0.1082  0.2959 -0.1285
  743CHOL    C2 8891   7.006  11.855  14.381  0.1558  0.1532  0.1414
  744CHOL   ROH 8892  30.550  15.524   3.654  0.1618 -0.0825  0.0741
  744CHOL    R1 8893  30.592  15.454   3.383  0.2918 -0.0010  0.0724
  744CHOL    R2 8894  30.832  15.351   3.291  0.2257 -0.2971  0.2250
  744CHOL    R3 8895  30.673  15.151   3.198  0.0154 -0.0228 -0.0146
  744CHOL    R4 8896  30.895  15.164   3.007  0.1202 -0.1431  0.0991
  744CHOL    R5 8897  30.683  15.173   2.959  0.1514  0.1629  0.0076
  744CHOL    C1 8898  30.783  14.867   2.755 -0.1391  0.2039 -0.1991
  744CHOL    C2 8899  31.094  14.868   2.525  0.2666  0.0574  0.0175
  745CHOL   ROH 8900  22.740  21.567  12.730 -0.0322 -0.0180  0.1597
  745CHOL    R1 8901  22.482  21.459  12.773 -0.0404  0.0023  0.1637
  745CHOL    R2 8902  22.269  21.611  12.860 -0.0346  0.0254  0.1366
  745CHOL    R3 8903  22.148  21.510  12.639 -0.0318  0.0046  0.1446
  745CHOL    R4 8904  21.938  21.664  12.776  0.0391  0.2487 -0.0171
  745CHOL    R5 8905  21.926  21.455  12.712 -0.1057  0.2234  0.0907
  745CHOL    C1 8906  21.632  21.600  12.518  0.0848  0.3595 -0.0991
  745CHOL    C2 8907  21.316  21.667  12.319 -0.1169 -0.0382  0.0646
  746CHOL   ROH 8908   4.264  11.086   9.932  0.2070  0.1254 -0.0963
  746CHOL    R1 8909   4.106  11.309   9.857  0.0954  0.1044  0.0761
  746CHOL    R2 8910   3.919  11.421  10.026  0.1356 -0.0341  0.2140
  746CHOL    R3 8911   4.057  11.650   9.975  0.0332  0.0363  0.2496
  746CHOL    R4 8912   3.786  11.740  10.040 -0.0609 -0.1088  0.0607
  746CHOL    R5 8913   3.900  11.790   9.860  0.0212 -0.0817  0.1206
  746CHOL    C1 8914   3.838  12.140   9.998 -0.2714 -0.0862  0.0046
  746CHOL    C2 8915   3.752  12.280  10.403  0.0173 -0.0447 -0.0506
  747CHOL   ROH 8916  11.905  19.974  16.591 -0.0828  0.1120  0.3104
  747CHOL    R1 8917  12.029  19.720  16.614 -0.1525  0.0732  0.2653
  747CHOL    R2 8918  12.292  19.676  16.540 -0.2443 -0.0486  0.0060
  747CHOL    R3 8919  12.313  19.580  16.793 -0.0161  0.0290  0.0169
  747CHOL    R4 8920  12.393  19.356  16.622 -0.4122 -0.1024  0.0023
  747CHOL    R5 8921  12.240  19.353  16.777 -0.2268  0.0841  0.1905
  747CHOL    C1 8922  12.472  19.079  16.908 -0.2957 -0.0616  0.0103
  747CHOL    C2 8923  12.709  18.661  16.890 -0.1988  0.2568  0.3757
  748CHOL   ROH 8924   0.350  12.486   8.235 -0.1066 -0.1233 -0.0403
  748CHOL    R1 8925   0.621  12.408   8.220 -0.1480 -0.2742 -0.0078
  748CHOL    R2 8926   0.702  12.173   8.099 -0.2403 -0.1884 -0.2364
  748CHOL    R3 8927   0.863  12.340   7.957 -0.0734 -0.1265  0.0218
  748CHOL    R4 8928   1.007  12.084   7.962 -0.2437 -0.2310 -0.2163
  748CHOL    R5 8929   1.085  12.279   8.023 -0.1393 -0.3501  0.0422
  748CHOL    C1 8930   1.335  12.189   7.749 -0.0891 -0.1977  0.0375
  748CHOL    C2 8931   1.567  12.067   7.424 -0.1370 -0.3057 -0.1806
  749CHOL   ROH 8932  19.035   2.701  14.810 -0.1137  0.0662  0.1196
  749CHOL    R1 8933  18.885   2.878  14.649 -0.2281 -0.0002  0.1530
  749CHOL    R2 8934  19.000   3.032  14.450 -0.2933  0.2597  0.3149
  749CHOL    R3 8935  18.810   2.915  14.295 -0.0758  0.1430  0.1344
  749CHOL    R4 8936  18.926   3.123  14.125 -0.1469  0.3205  0.2984
  749CHOL    R5 8937  18.715   3.095  14.170 -0.1558  0.1058  0.1393
  749CHOL    C1 8938  18.705   3.066  13.790  0.1423  0.2464  0.1193
  749CHOL    C2 8939  18.416   2.857  13.603  0.0163  0.0092  0.1675
  750CHOL   ROH 8940  30.076   5.193   5.539 -0.1136 -0.1334 -0.0077
  750CHOL    R1 8941  29.901   5.365   5.680 -0.0311 -0.1127  0.0698
  750CHOL    R2 8942  29.752   5.560   5.554 -0.0874 -0.1179  0.1313
  750CHOL    R3 8943  29.544   5.437   5.678 -0.0294 -0.0950  0.2525
  750CHOL    R4 8944  29.421   5.659   5.530 -0.1492 -0.3659 -0.0637
  750CHOL    R5 8945  29.399   5.616   5.743 -0.1616 -0.1034 -0.0096
  750CHOL    C1 8946  29.034   5.600   5.634 -0.1305 -0.4888 -0.0637
  750CHOL    C2 8947  28.833   5.484   5.521  0.2767 -0.2108 -0.1836
  751CHOL   ROH 8948  26.358  31.941   9.659  0.2611 -0.1467 -0.0032
  751CHOL    R1 8949  26.351  31.883   9.382  0.1938 -0.1753  0.0045
  751CHOL    R2 8950  26.313  32.078   9.191 -0.0946 -0.2280  0.0064
  751CHOL    R3 8951  26.544  31.976   9.088 -0.0360  0.0001 -0.0915
  751CHOL    R4 8952  26.402  32.088   8.857 -0.2289 -0.1038 -0.0259
  751CHOL    R5 8953  26.479  31.885   8.876 -0.0303 -0.0357 -0.0787
  751CHOL    C1 8954  26.670  31.999   8.566 -0.2516  0.1825 -0.1367
  751CHOL    C2 8955  26.602  31.883   8.166  0.2690 -0.2406 -0.3171
  752CHOL   ROH 8956  21.338  27.112  12.964  0.0716  0.1034  0.0827
  752CHOL    R1 8957  21.231  26.858  12.901 -0.0298  0.1143  0.2080
  752CHOL    R2 8958  20.965  26.794  12.940 -0.0770  0.2712  0.1502
  752CHOL    R3 8959  20.976  26.726  12.677 -0.0105  0.0952  0.1977
  752CHOL    R4 8960  20.780  26.542  12.792 -0.2054  0.3212  0.2254
  752CHOL    R5 8961  20.956  26.488  12.676 -0.1951  0.1102  0.3390
  752CHOL    C1 8962  20.683  26.332  12.460 -0.2174  0.1850  0.3137
  752CHOL    C2 8963  20.648  25.914  12.525 -0.0490 -0.0013 -0.0065
  753CHOL   ROH 8964  12.523  16.686  18.466  0.2000 -0.1012 -0.2039
  753CHOL    R1 8965  12.507  16.953  18.373  0.0656 -0.0513 -0.0389
  753CHOL    R2 8966  12.724  17.087  18.268  0.0175  0.1507  0.1188
  753CHOL    R3 8967  12.557  17.127  18.058  0.0638  0.1825  0.0883
  753CHOL    R4 8968  12.821  17.206  17.959  0.0784  0.2489  0.1753
  753CHOL    R5 8969  12.639  17.326  17.953  0.0609  0.2237  0.1625
  753CHOL    C1 8970  12.721  17.312  17.581  0.1571  0.3361  0.1793
  753CHOL    C2 8971  12.868  17.455  17.196 -0.0082 -0.2143 -0.0751
  754CHOL   ROH 8972  11.032  17.712  15.276  0.0245  0.1055  0.0549
  754CHOL    R1 8973  11.019  17.536  15.498  0.0854  0.0240 -0.0056
  754CHOL    R2 8974  10.812  17.542  15.680  0.2285  0.0813  0.1577
  754CHOL    R3 8975  10.792  17.278  15.618  0.0150  0.1185  0.0641
  754CHOL    R4 8976  10.725  17.293  15.903  0.2989  0.0366  0.1350
  754CHOL    R5 8977  10.876  17.165  15.812  0.1362 -0.0132 -0.0652
  754CHOL    C1 8978  10.655  16.900  15.975  0.1392  0.0455  0.0342
  754CHOL    C2 8979  10.907  16.773  16.195  0.0863  0.0840  0.1294
  755CHOL   ROH 8980  22.498   9.416   6.727 -0.0065 -0.3016  0.0930
  755CHOL    R1 8981  22.738   9.514   6.839 -0.0893 -0.0270  0.0340
  755CHOL    R2 8982  22.746   9.646   7.082 -0.1635 -0.1307  0.0938
  755CHOL    R3 8983  22.931   9.457   7.142  0.1221  0.0906 -0.0777
  755CHOL    R4 8984  22.973   9.668   7.341 -0.0832  0.0499  0.0086
  755CHOL    R5 8985  23.124   9.582   7.209 -0.0193  0.3206 -0.0973
  755CHOL    C1 8986  23.280   9.503   7.548  0.2314  0.3630 -0.2019
  755CHOL    C2 8987  23.602   9.670   7.611  0.2527  0.1399 -0.0486
  756CHOL   ROH 8988  25.164   8.746  10.474 -0.1468 -0.1657  0.0196
  756CHOL    R1 8989  24.929   8.857  10.363 -0.0811 -0.0278  0.0181
  756CHOL    R2 8990  24.811   8.756  10.134 -0.1550  0.0232  0.0344
  756CHOL    R3 8991  24.590   8.743  10.293 -0.1577  0.1801  0.0448
  756CHOL    R4 8992  24.491   8.689  10.022 -0.1423 -0.1505  0.1013
  756CHOL    R5 8993  24.416   8.840  10.160 -0.1665  0.0034 -0.0765
  756CHOL    C1 8994  24.098   8.637  10.106 -0.1379 -0.1039  0.1500
  756CHOL    C2 8995  23.907   8.559   9.828  0.1685  0.0653 -0.2537
  757CHOL   ROH 8996  15.403  14.032  18.535  0.0724  0.1304 -0.0558
  757CHOL    R1 8997  15.273  14.035  18.283  0.1575  0.0562 -0.1011
  757CHOL    R2 8998  15.397  13.954  18.050  0.1987 -0.1231 -0.0171
  757CHOL    R3 8999  15.180  13.790  18.030  0.1321 -0.0366 -0.0021
  757CHOL    R4 9000  15.266  13.834  17.754  0.0278  0.0644 -0.0183
  757CHOL    R5 9001  15.066  13.867  17.834  0.0741  0.0974  0.0830
  757CHOL    C1 9002  14.987  13.611  17.562 -0.1343  0.2548 -0.0052
  757CHOL    C2 9003  15.076  13.559  17.279 -0.0053  0.2638 -0.0350
  758CHOL   ROH 9004  19.479  10.860  11.317 -0.0871  0.1205  0.1511
  758CHOL    R1 9005  19.665  10.826  11.528 -0.0517  0.3075  0.1508
  758CHOL    R2 9006  19.886  10.662  11.506 -0.2175  0.0523  0.3608
  758CHOL    R3 9007  20.020  10.887  11.580  0.0265  0.0557 -0.0736
  758CHOL    R4 9008  20.201  10.667  11.648 -0.2264 -0.0180  0.3830
  758CHOL    R5 9009  20.133  10.825  11.782 -0.0645  0.3287  0.0644
  758CHOL    C1 9010  20.510  10.880  11.800 -0.0022 -0.0560 -0.0121
  758CHOL    C2 9011  20.583  10.757  12.050 -0.4154  0.1763 -0.1164
  759CHOL   ROH 9012   3.194  13.696   6.380  0.0411 -0.1481 -0.0783
  759CHOL    R1 9013   2.954  13.807   6.479  0.1252 -0.0373  0.0009
  759CHOL    R2 9014   2.714  13.788   6.344  0.0264 -0.1243  0.1892
  759CHOL    R3 9015   2.627  13.684   6.580  0.1817  0.0837  0.3410
  759CHOL    R4 9016   2.394  13.824   6.470 -0.0616 -0.5054  0.0812
  759CHOL    R5 9017   2.480  13.851   6.668 -0.1362 -0.0379  0.0557
  759CHOL    C1 9018   2.126  13.747   6.764  0.0329 -0.5319  0.1608
  759CHOL    C2 9019   1.762  13.676   6.695 -0.0886 -0.2919  0.1655
  760CHOL   ROH 9020   0.440  26.119   6.146 -0.1782 -0.0247  0.1057
  760CHOL    R1 9021   0.324  25.903   6.288 -0.2474 -0.0227  0.0523
  760CHOL    R2 9022   0.065  25.818   6.243 -0.1806 -0.1100 -0.1691
  760CHOL    R3 9023   0.185  25.577   6.205 -0.0741 -0.0855  0.0051
  760CHOL    R4 9024  35.315  25.514   6.337 -0.1835 -0.1245 -0.2185
  760CHOL    R5 9025   0.129  25.452   6.402 -0.2242 -0.0509 -0.0141
  760CHOL    C1 9026  35.350  25.111   6.357 -0.0847 -0.1097 -0.0837
  760CHOL    C2 9027  35.147  24.835   6.487  0.3069 -0.0525 -0.0670
  761CHOL   ROH 9028  28.738   6.162   8.238  0.3820  0.1115 -0.1516
  761CHOL    R1 9029  28.680   5.969   8.040  0.3311 -0.0334  0.0030
  761CHOL    R2 9030  28.597   6.037   7.785  0.0338 -0.2240  0.0460
  761CHOL    R3 9031  28.808   5.882   7.710  0.0768 -0.1073 -0.0770
  761CHOL    R4 9032  28.613   5.854   7.493 -0.0462 -0.2356  0.0489
  761CHOL    R5 9033  28.707   5.692   7.605  0.1196 -0.1738  0.0010
  761CHOL    C1 9034  28.819   5.602   7.251 -0.0525 -0.1327 -0.0649
  761CHOL    C2 9035  28.687   5.549   6.920 -0.2875 -0.1693 -0.1185
  762CHOL   ROH 9036  19.327  32.336  13.927  0.1335  0.0507 -0.2718
  762CHOL    R1 9037  19.061  32.295  13.837  0.1032 -0.0721 -0.1282
  762CHOL    R2 9038  18.964  32.409  13.605 -0.1314  0.0324  0.0210
  762CHOL    R3 9039  18.901  32.152  13.543  0.0132  0.0336 -0.1306
  762CHOL    R4 9040  18.852  32.303  13.296 -0.1221  0.1610 -0.0272
  762CHOL    R5 9041  18.711  32.171  13.398 -0.0242  0.0111 -0.0849
  762CHOL    C1 9042  18.727  31.999  13.058  0.0194  0.2370 -0.1977
  762CHOL    C2 9043  18.888  31.731  12.820  0.0261 -0.1906  0.0765
  763CHOL   ROH 9044  30.781  27.652   4.543 -0.2528  0.2325  0.0695
  763CHOL    R1 9045  30.781  27.520   4.794 -0.1699  0.2258  0.0655
  763CHOL    R2 9046  30.558  27.508   4.956 -0.1475  0.1228  0.0858
  763CHOL    R3 9047  30.605  27.241   4.946 -0.0311  0.1432  0.0767
  763CHOL    R4 9048  30.374  27.270   5.125 -0.3120  0.0061 -0.2512
  763CHOL    R5 9049  30.561  27.165   5.169 -0.3325  0.0641 -0.0060
  763CHOL    C1 9050  30.312  26.879   5.215 -0.2986 -0.0430 -0.4558
  763CHOL    C2 9051  30.183  26.559   5.227  0.1269 -0.0994 -0.0679
  764CHOL   ROH 9052  19.200  23.500  17.876 -0.0857  0.0539 -0.0777
  764CHOL    R1 9053  18.958  23.568  17.746 -0.1066  0.0479 -0.0420
  764CHOL    R2 9054  18.913  23.515  17.479 -0.1447  0.0444 -0.0343
  764CHOL    R3 9055  18.691  23.389  17.573 -0.1289  0.0411 -0.0008
  764CHOL    R4 9056  18.638  23.429  17.288 -0.1503 -0.0051 -0.0042
  764CHOL    R5 9057  18.510  23.490  17.453 -0.1446  0.0095 -0.0042
  764CHOL    C1 9058  18.270  23.260  17.266 -0.1384 -0.0373  0.0451
  764CHOL    C2 9059  18.209  23.263  16.917  0.2321  0.2344 -0.2178
  765CHOL   ROH 9060   2.628  27.147  17.233  0.2352  0.0403  0.1662
  765CHOL    R1 9061   2.867  27.282  17.164  0.1719  0.0486 -0.0397
  765CHOL    R2 9062   3.072  27.159  17.025  0.0892  0.0336 -0.1504
  765CHOL    R3 9063   3.042  27.370  16.857 -0.0535 -0.0171 -0.1882
  765CHOL    R4 9064   3.261  27.213  16.741  0.1387  0.1772 -0.0902
  765CHOL    R5 9065   3.265  27.426  16.790 -0.0824  0.1884 -0.1160
  765CHOL    C1 9066   3.343  27.443  16.417  0.0334  0.2132 -0.0909
  765CHOL    C2 9067   3.798  27.549  16.352 -0.4213  0.1082 -0.0307
  766CHOL   ROH 9068  27.454  25.069   6.432 -0.0596 -0.0588 -0.0446
  766CHOL    R1 9069  27.268  25.206   6.267 -0.0748 -0.0769 -0.0423
  766CHOL    R2 9070  27.292  25.474   6.208 -0.1473 -0.0561  0.0256
  766CHOL    R3 9071  27.277  25.386   5.951 -0.0793  0.0016  0.0016
  766CHOL    R4 9072  27.232  25.675   5.933 -0.5342 -0.0572  0.1060
  766CHOL    R5 9073  27.104  25.518   5.853 -0.3145 -0.2342  0.0916
  766CHOL    C1 9074  27.184  25.709   5.532 -0.6952 -0.0041  0.1306
  766CHOL    C2 9075  27.050  26.061   5.441 -0.0470  0.2993  0.0585
  767CHOL   ROH 9076  24.563  24.472   4.505 -0.1370 -0.1483  0.0717
  767CHOL    R1 9077  24.547  24.327   4.747  0.0271 -0.3813 -0.0554
  767CHOL    R2 9078  24.709  24.110   4.801  0.5352 -0.0205 -0.0967
  767CHOL    R3 9079  24.770  24.251   5.025 -0.0064 -0.0375  0.0677
  767CHOL    R4 9080  24.786  23.970   5.108  0.6241 -0.0710 -0.1420
  767CHOL    R5 9081  24.668  24.127   5.203  0.1476 -0.4337 -0.1144
  767CHOL    C1 9082  24.888  24.022   5.497  0.1674 -0.1166 -0.0140
  767CHOL    C2 9083  24.963  23.831   5.874  0.4537  0.2550  0.0675
  768CHOL   ROH 9084   6.171  11.541  11.242 -0.0122 -0.0297 -0.1718
  768CHOL    R1 9085   6.002  11.576  11.466 -0.0741  0.2009 -0.2526
  768CHOL    R2 9086   5.727  11.586  11.446 -0.0855 -0.1207 -0.3051
  768CHOL    R3 9087   5.738  11.387  11.631  0.1026  0.2196  0.0549
  768CHOL    R4 9088   5.457  11.472  11.629 -0.0531 -0.2946 -0.3654
  768CHOL    R5 9089   5.588  11.459  11.803 -0.1929  0.2486 -0.2131
  768CHOL    C1 9090   5.311  11.219  11.910  0.1422 -0.0761 -0.0626
  768CHOL    C2 9091   4.912  11.127  11.922 -0.0052 -0.0792  0.1092
  769CHOL   ROH 9092  25.682  19.861   5.019 -0.1794 -0.2051 -0.0558
  769CHOL    R1 9093  25.471  19.898   4.835 -0.0830 -0.1133 -0.1480
  769CHOL    R2 9094  25.215  19.807   4.881 -0.0918 -0.1980 -0.3576
  769CHOL    R3 9095  25.148  20.066   4.832 -0.1151 -0.1749 -0.2079
  769CHOL    R4 9096  24.897  19.917   4.800 -0.1289 -0.1614 -0.1668
  769CHOL    R5 9097  24.987  20.053   4.655 -0.1928 -0.0938 -0.1435
  769CHOL    C1 9098  24.650  20.224   4.706 -0.1717 -0.1185  0.0851
  769CHOL    C2 9099  24.427  20.567   4.610  0.2632 -0.2514  0.2420
  770CHOL   ROH 9100  19.750  33.768  12.881 -0.0725  0.2621  0.0872
  770CHOL    R1 9101  19.656  33.877  12.638 -0.0593  0.1888  0.0495
  770CHOL    R2 9102  19.822  33.920  12.421 -0.0526  0.1024  0.0371
  770CHOL    R3 9103  19.638  33.770  12.290 -0.0639  0.0754  0.0846
  770CHOL    R4 9104  19.763  33.932  12.081 -0.1135  0.0645  0.0462
  770CHOL    R5 9105  19.550  33.916  12.122 -0.1045  0.0515  0.0855
  770CHOL    C1 9106  19.556  33.798  11.760 -0.1594  0.0160  0.0964
  770CHOL    C2 9107  19.312  33.807  11.477  0.0174 -0.2114  0.1792
  771CHOL   ROH 9108   4.380  31.800  14.096 -0.0500 -0.1552 -0.0402
  771CHOL    R1 9109   4.123  31.888  14.174  0.0339  0.1287 -0.0759
  771CHOL    R2 9110   3.984  31.774  14.384 -0.2424  0.0830 -0.2805
  771CHOL    R3 9111   3.971  32.030  14.472  0.0850  0.0033  0.0104
  771CHOL    R4 9112   3.817  31.876  14.668 -0.2734 -0.0010 -0.2685
  771CHOL    R5 9113   3.749  32.052  14.559  0.0585  0.2323 -0.1095
  771CHOL    C1 9114   3.707  32.176  14.917  0.0159 -0.1251  0.0118
  771CHOL    C2 9115   3.469  32.515  14.921  0.4761  0.4406  0.1091
  772CHOL   ROH 9116  23.712  29.805   6.515 -0.1487 -0.0153 -0.1056
  772CHOL    R1 9117  23.663  29.627   6.730 -0.0422 -0.0198 -0.0847
  772CHOL    R2 9118  23.584  29.365   6.691 -0.1024 -0.0092 -0.0501
  772CHOL    R3 9119  23.800  29.310   6.846 -0.0131 -0.0443 -0.1862
  772CHOL    R4 9120  23.612  29.090   6.899 -0.1043  0.1036  0.0997
  772CHOL    R5 9121  23.706  29.219   7.047  0.0919  0.1385 -0.0553
  772CHOL    C1 9122  23.831  28.879   7.166 -0.0214  0.1366  0.0592
  772CHOL    C2 9123  23.740  28.685   7.463 -0.4556  0.2144 -0.0732
  773CHOL   ROH 9124  23.828  24.212  10.936  0.0029 -0.2319 -0.0664
  773CHOL    R1 9125  23.699  24.199  10.684 -0.1833 -0.0145  0.0170
  773CHOL    R2 9126  23.657  23.961  10.550 -0.1551  0.1153 -0.2198
  773CHOL    R3 9127  23.398  24.046  10.549 -0.2052 -0.0226  0.0718
  773CHOL    R4 9128  23.407  23.830  10.350 -0.2319  0.2003 -0.1805
  773CHOL    R5 9129  23.333  24.033  10.318 -0.3695  0.1995  0.1019
  773CHOL    C1 9130  23.020  23.834  10.231 -0.3238  0.1201  0.1162
  773CHOL    C2 9131  22.891  23.686   9.941 -0.1602 -0.1294 -0.3947
  774CHOL   ROH 9132   6.689  21.262  12.488 -0.0725  0.1429 -0.0280
  774CHOL    R1 9133   6.443  21.215  12.620 -0.0699  0.0765 -0.0467
  774CHOL    R2 9134   6.298  21.417  12.741 -0.0573  0.0130  0.0751
  774CHOL    R3 9135   6.098  21.323  12.583 -0.0667  0.1127  0.0275
  774CHOL    R4 9136   5.962  21.472  12.796 -0.0573 -0.0778  0.1682
  774CHOL    R5 9137   5.923  21.266  12.737 -0.0370 -0.0360  0.0068
  774CHOL    C1 9138   5.577  21.416  12.681 -0.0660 -0.0372  0.1779
  774CHOL    C2 9139   5.396  21.663  12.980 -0.3277 -0.1100 -0.0164
  775CHOL   ROH 9140   3.924   8.285   9.526  0.2170 -0.1568 -0.1004
  775CHOL    R1 9141   3.670   8.263   9.649  0.2455 -0.3054 -0.0667
  775CHOL    R2 9142   3.626   8.107   9.873  0.4276 -0.1195  0.1012
  775CHOL    R3 9143   3.527   8.339   9.975  0.1791 -0.1168 -0.1388
  775CHOL    R4 9144   3.417   8.128  10.147  0.3889 -0.0603  0.0672
  775CHOL    R5 9145   3.304   8.283  10.043  0.2324 -0.2816 -0.0975
  775CHOL    C1 9146   3.202   8.357  10.403  0.1331 -0.0233 -0.1779
  775CHOL    C2 9147   2.867   8.230  10.623  0.2204 -0.1424 -0.1608
  776CHOL   ROH 9148  23.642  14.495  11.521  0.0732 -0.1566  0.0079
  776CHOL    R1 9149  23.412  14.525  11.360  0.1701 -0.0674 -0.1145
  776CHOL    R2 9150  23.353  14.356  11.149  0.1168 -0.1623 -0.0229
  776CHOL    R3 9151  23.116  14.328  11.280  0.0328  0.1325 -0.1073
  776CHOL    R4 9152  23.060  14.245  11.004  0.1656 -0.3166 -0.0044
  776CHOL    R5 9153  22.952  14.395  11.119  0.1453 -0.0854 -0.3177
  776CHOL    C1 9154  22.667  14.153  11.042  0.1156 -0.1296 -0.0724
  776CHOL    C2 9155  22.372  13.992  10.678  0.0940  0.0912 -0.0910
  777CHOL   ROH 9156   3.523   9.132   9.053 -0.0668 -0.2029 -0.1228
  777CHOL    R1 9157   3.337   9.260   9.223  0.1964 -0.1650  0.1393
  777CHOL    R2 9158   3.069   9.193   9.229  0.0792  0.2833  0.0911
  777CHOL    R3 9159   3.116   9.162   9.495  0.0979 -0.2415  0.0322
  777CHOL    R4 9160   2.825   9.196   9.474  0.1701  0.5796  0.1806
  777CHOL    R5 9161   2.960   9.311   9.600  0.5348  0.0301  0.3095
  777CHOL    C1 9162   2.727   9.168   9.866  0.2406  0.2599  0.1772
  777CHOL    C2 9163   2.427   8.998  10.274  0.1740 -0.0658 -0.1077
  778CHOL   ROH 9164  10.314  29.887  17.921  0.2391  0.0690 -0.0647
  778CHOL    R1 9165  10.405  29.997  18.165  0.0059  0.0505  0.0322
  778CHOL    R2 9166  10.238  30.131  18.339 -0.2217 -0.2186  0.0217
  778CHOL    R3 9167  10.335  29.951  18.519 -0.1062 -0.2000 -0.0212
  778CHOL    R4 9168  10.323  30.205  18.666 -0.2205 -0.2293  0.0240
  778CHOL    R5 9169  10.497  30.075  18.645 -0.1542 -0.1362 -0.0200
  778CHOL    C1 9170  10.464  30.079  19.025 -0.1114 -0.2184 -0.0150
  778CHOL    C2 9171  10.742  30.038  19.265  0.0505 -0.0736  0.4985
  779CHOL   ROH 9172   2.765  28.440  13.411 -0.2064  0.0527 -0.0886
  779CHOL    R1 9173   2.660  28.209  13.537 -0.2298  0.0906 -0.0382
  779CHOL    R2 9174   2.770  28.102  13.767 -0.1629  0.0553 -0.0860
  779CHOL    R3 9175   2.516  28.128  13.861 -0.1120  0.1450  0.0284
  779CHOL    R4 9176   2.613  27.876  13.976 -0.1514  0.1062 -0.0219
  779CHOL    R5 9177   2.430  27.904  13.861 -0.1930  0.1757  0.0606
  779CHOL    C1 9178   2.284  27.768  14.186 -0.0969  0.2204  0.1225
  779CHOL    C2 9179   1.941  27.597  14.365  0.2067  0.2998 -0.1375
  780CHOL   ROH 9180  20.616   8.886  11.501 -0.0155  0.0534  0.1244
  780CHOL    R1 9181  20.816   8.762  11.659  0.0965  0.2045  0.1024
  780CHOL    R2 9182  20.932   8.887  11.876 -0.2102  0.1695  0.2900
  780CHOL    R3 9183  20.854   8.661  12.006  0.0697 -0.0878  0.0216
  780CHOL    R4 9184  21.047   8.788  12.187 -0.3006  0.0895  0.2983
  780CHOL    R5 9185  21.053   8.583  12.114  0.1175  0.1610  0.1164
  780CHOL    C1 9186  21.040   8.519  12.490 -0.0907 -0.1987  0.0511
  780CHOL    C2 9187  21.004   8.554  12.872 -0.0598 -0.2965  0.1694
  781CHOL   ROH 9188   4.429  22.783  16.775  0.0386  0.2072 -0.0188
  781CHOL    R1 9189   4.634  22.905  16.622  0.0947  0.0500 -0.0700
  781CHOL    R2 9190   4.872  22.990  16.734  0.0773  0.1129 -0.0801
  781CHOL    R3 9191   4.981  22.833  16.541  0.1064 -0.0663  0.0808
  781CHOL    R4 9192   5.209  22.978  16.657  0.0886  0.0425 -0.0196
  781CHOL    R5 9193   5.155  22.968  16.446  0.1197 -0.1539 -0.0193
  781CHOL    C1 9194   5.508  22.823  16.431  0.1227 -0.1672  0.1667
  781CHOL    C2 9195   5.937  22.764  16.604 -0.0609  0.1411  0.0633
  782CHOL   ROH 9196  11.394  11.867  14.923 -0.0288 -0.2245  0.0615
  782CHOL    R1 9197  11.485  11.689  15.123  0.2313 -0.0854  0.0703
  782CHOL    R2 9198  11.676  11.759  15.310  0.0886  0.2226  0.1055
  782CHOL    R3 9199  11.487  11.678  15.487  0.1876 -0.0940  0.0699
  782CHOL    R4 9200  11.729  11.717  15.649  0.0860  0.3424  0.1208
  782CHOL    R5 9201  11.605  11.537  15.640  0.4003  0.1244  0.1083
  782CHOL    C1 9202  11.581  11.617  16.013  0.1773  0.1150  0.0964
  782CHOL    C2 9203  11.572  11.474  16.356 -0.0044 -0.1134 -0.0342
  783CHOL   ROH 9204  34.056  18.537   4.675  0.0157  0.2711 -0.1448
  783CHOL    R1 9205  34.237  18.548   4.458  0.0629  0.1587 -0.1117
  783CHOL    R2 9206  34.296  18.328   4.302 -0.0145  0.1123 -0.0763
  783CHOL    R3 9207  34.222  18.492   4.098  0.1032  0.1265 -0.1082
  783CHOL    R4 9208  34.379  18.279   3.970  0.0450  0.0507 -0.0524
  783CHOL    R5 9209  34.412  18.494   3.952  0.1396  0.0349 -0.0625
  783CHOL    C1 9210  34.358  18.405   3.585  0.1914  0.0280 -0.0684
  783CHOL    C2 9211  34.755  18.534   3.465 -0.0732  0.0087 -0.0595
  784CHOL   ROH 9212  30.902  33.885  10.948  0.1027 -0.3990  0.1400
  784CHOL    R1 9213  31.061  33.944  10.721 -0.0908 -0.2552  0.0404
  784CHOL    R2 9214  31.272  33.784  10.642  0.0076 -0.0640 -0.0870
  784CHOL    R3 9215  31.139  33.783  10.404 -0.1384 -0.1886 -0.0059
  784CHOL    R4 9216  31.419  33.732  10.333 -0.1219  0.1305 -0.1829
  784CHOL    R5 9217  31.291  33.888  10.251 -0.3475 -0.0031 -0.0897
  784CHOL    C1 9218  31.381  33.701   9.931 -0.3348  0.1265 -0.1625
  784CHOL    C2 9219  31.653  33.903   9.839 -0.3873  0.1567  0.2256
  785CHOL   ROH 9220   2.635  24.207  14.141 -0.0149  0.0001 -0.1420
  785CHOL    R1 9221   2.794  24.325  13.939  0.1451 -0.1719 -0.1176
  785CHOL    R2 9222   2.836  24.598  13.923 -0.0564 -0.1593 -0.4670
  785CHOL    R3 9223   3.098  24.525  13.925  0.0036  0.0517 -0.0272
  785CHOL    R4 9224   3.092  24.778  13.777  0.0070 -0.0914 -0.2750
  785CHOL    R5 9225   3.179  24.590  13.709  0.2565 -0.0874  0.0238
  785CHOL    C1 9226   3.487  24.815  13.693  0.1001  0.1457  0.2497
  785CHOL    C2 9227   3.561  25.056  13.431 -0.2189  0.0826 -0.1169
  786CHOL   ROH 9228  22.970  34.458  10.932  0.2430 -0.0398 -0.0977
  786CHOL    R1 9229  22.954  34.536  10.661  0.1078  0.0271 -0.0706
  786CHOL    R2 9230  22.916  34.355  10.455  0.1034  0.0669 -0.1038
  786CHOL    R3 9231  22.707  34.517  10.394  0.0141 -0.0019  0.0175
  786CHOL    R4 9232  22.800  34.415  10.136 -0.1865 -0.0771 -0.0273
  786CHOL    R5 9233  22.772  34.624  10.190 -0.1848 -0.0622 -0.0801
  786CHOL    C1 9234  22.536  34.602   9.892 -0.4389 -0.2246  0.1313
  786CHOL    C2 9235  22.277  34.707   9.703 -0.2372 -0.1961  0.4578
  787CHOL   ROH 9236   4.105  18.935  15.198 -0.1211  0.0995 -0.1087
  787CHOL    R1 9237   4.183  19.042  14.948  0.0136  0.0433 -0.0912
  787CHOL    R2 9238   4.354  19.258  14.925  0.0844 -0.0094 -0.0495
  787CHOL    R3 9239   4.494  19.088  14.765  0.1029 -0.0701  0.0307
  787CHOL    R4 9240   4.554  19.356  14.660  0.1577 -0.1036 -0.0293
  787CHOL    R5 9241   4.478  19.186  14.546  0.1646 -0.1274 -0.0006
  787CHOL    C1 9242   4.801  19.254  14.356  0.2177 -0.2154  0.0576
  787CHOL    C2 9243   4.747  19.431  14.086  0.1307  0.1413 -0.2402
  788CHOL   ROH 9244  15.687  10.603  18.117  0.1474 -0.1163  0.0180
  788CHOL    R1 9245  15.711  10.682  17.847  0.0908 -0.0661  0.0273
  788CHOL    R2 9246  15.520  10.837  17.719 -0.0096 -0.1675  0.0516
  788CHOL    R3 9247  15.733  10.996  17.664 -0.1099 -0.0278  0.0679
  788CHOL    R4 9248  15.531  11.071  17.465 -0.1198 -0.2031  0.0141
  788CHOL    R5 9249  15.736  11.010  17.425 -0.0701 -0.0658  0.0669
  788CHOL    C1 9250  15.737  11.357  17.265 -0.2782 -0.0925  0.0078
  788CHOL    C2 9251  15.831  11.779  17.197  0.0865  0.2951 -0.1968
  789CHOL   ROH 9252  24.422   4.339   7.582 -0.1587 -0.2852  0.1592
  789CHOL    R1 9253  24.414   4.471   7.833 -0.2010 -0.1412  0.0828
  789CHOL    R2 9254  24.487   4.347   8.068 -0.1316  0.0288  0.1522
  789CHOL    R3 9255  24.653   4.561   8.092 -0.2238  0.1160  0.0156
  789CHOL    R4 9256  24.603   4.475   8.368  0.1272  0.0283  0.0537
  789CHOL    R5 9257  24.575   4.676   8.287 -0.0734  0.0303  0.1270
  789CHOL    C1 9258  24.826   4.751   8.564  0.1914  0.1098 -0.1320
  789CHOL    C2 9259  24.728   5.114   8.647 -0.1081  0.1254 -0.0530
  790CHOL   ROH 9260  35.268  21.498   7.066  0.2382 -0.1247 -0.0558
  790CHOL    R1 9261  35.367  21.534   6.803  0.1465 -0.1451 -0.0937
  790CHOL    R2 9262  35.322  21.765   6.658  0.0365 -0.1840 -0.1227
  790CHOL    R3 9263   0.208  21.765   6.636  0.0296 -0.1125 -0.2066
  790CHOL    R4 9264   0.115  21.932   6.413 -0.0765 -0.0238 -0.0965
  790CHOL    R5 9265   0.248  21.760   6.400 -0.0421  0.0124 -0.2221
  790CHOL    C1 9266   0.473  22.030   6.249 -0.1490  0.1364 -0.1599
  790CHOL    C2 9267   0.323  22.111   5.935 -0.2965 -0.1122  0.2189
  791CHOL   ROH 9268  20.978  20.296  15.496 -0.0473 -0.0046  0.3593
  791CHOL    R1 9269  20.836  20.204  15.269  0.0626  0.0639  0.2626
  791CHOL    R2 9270  20.589  20.082  15.288  0.1188 -0.0721  0.1178
  791CHOL    R3 9271  20.516  20.275  15.112  0.0712  0.0002  0.2162
  791CHOL    R4 9272  20.283  20.098  15.129  0.1364 -0.1003  0.0805
  791CHOL    R5 9273  20.386  20.159  14.947  0.1410  0.0427  0.1304
  791CHOL    C1 9274  20.035  20.289  14.871  0.1022 -0.0495  0.1509
  791CHOL    C2 9275  19.808  20.483  14.738 -0.1819  0.1618 -0.4741
  792CHOL   ROH 9276   3.115   6.670  14.016  0.0752 -0.0590 -0.1329
  792CHOL    R1 9277   3.379   6.759  13.963 -0.0051  0.1225 -0.2319
  792CHOL    R2 9278   3.602   6.612  14.032  0.1377  0.4938  0.1191
  792CHOL    R3 9279   3.663   6.641  13.768  0.1751  0.0466  0.0740
  792CHOL    R4 9280   3.923   6.622  13.903  0.1577  0.3656  0.1588
  792CHOL    R5 9281   3.858   6.780  13.767  0.1318  0.1083 -0.1356
  792CHOL    C1 9282   4.167   6.655  13.581  0.2046 -0.1288  0.1395
  792CHOL    C2 9283   4.499   6.534  13.419 -0.1392 -0.1673  0.1012
  793CHOL   ROH 9284  28.359  21.218   3.011 -0.3738 -0.0408 -0.0146
  793CHOL    R1 9285  28.539  21.257   2.796 -0.2552  0.1486  0.1177
  793CHOL    R2 9286  28.535  21.101   2.568  0.0679  0.1524  0.1076
  793CHOL    R3 9287  28.515  21.342   2.443 -0.0826  0.1378  0.1025
  793CHOL    R4 9288  28.503  21.144   2.227 -0.2186  0.1152  0.1286
  793CHOL    R5 9289  28.639  21.314   2.240 -0.2407  0.1446  0.0030
  793CHOL    C1 9290  28.465  21.395   1.910 -0.5266  0.0797  0.1360
  793CHOL    C2 9291  28.540  21.422   1.497 -0.0631  0.1378  0.1206
  794CHOL   ROH 9292   2.803  17.070  11.557 -0.1356  0.2324 -0.2627
  794CHOL    R1 9293   2.912  16.882  11.376  0.0462  0.1053 -0.0253
  794CHOL    R2 9294   2.833  16.868  11.111  0.0286 -0.3328 -0.0004
  794CHOL    R3 9295   3.100  16.894  11.064 -0.0036 -0.1065 -0.0636
  794CHOL    R4 9296   3.004  16.712  10.854  0.1122 -0.2411 -0.0007
  794CHOL    R5 9297   3.169  16.676  10.993  0.1754 -0.0624 -0.0276
  794CHOL    C1 9298   3.353  16.646  10.660  0.1306  0.0251 -0.0601
  794CHOL    C2 9299   3.543  16.553  10.287  0.2989  0.0227 -0.2811
  795CHOL   ROH 9300   6.506  18.093  13.050  0.0467 -0.0702 -0.0382
  795CHOL    R1 9301   6.259  18.079  13.188  0.0700 -0.0719  0.0029
  795CHOL    R2 9302   6.221  17.918  13.409  0.1616  0.0641  0.1174
  795CHOL    R3 9303   6.140  18.150  13.525  0.0855  0.1116 -0.0294
  795CHOL    R4 9304   6.032  17.940  13.698  0.0895  0.1802  0.0619
  795CHOL    R5 9305   5.920  18.103  13.606  0.0753  0.1081 -0.0551
  795CHOL    C1 9306   5.846  18.171  13.974 -0.0241  0.2922 -0.1083
  795CHOL    C2 9307   5.687  17.910  14.235  0.0693  0.1036  0.0834
  796CHOL   ROH 9308   4.646  18.844   7.444  0.1034 -0.1927  0.0927
  796CHOL    R1 9309   4.431  18.758   7.607  0.0036 -0.1471 -0.0145
  796CHOL    R2 9310   4.198  18.903   7.634  0.0113 -0.1088 -0.1495
  796CHOL    R3 9311   4.082  18.669   7.557  0.0156 -0.0968 -0.1933
  796CHOL    R4 9312   3.857  18.845   7.626  0.0127 -0.1171 -0.1502
  796CHOL    R5 9313   3.894  18.645   7.704  0.0211 -0.1320 -0.1920
  796CHOL    C1 9314   3.550  18.592   7.549  0.0177 -0.1107 -0.1916
  796CHOL    C2 9315   3.310  18.427   7.760  0.0547 -0.2195 -0.0396
  797CHOL   ROH 9316  19.164  30.308  14.847  0.1692 -0.2248 -0.1291
  797CHOL    R1 9317  18.947  30.137  14.783  0.0446 -0.1028 -0.0376
  797CHOL    R2 9318  18.717  30.229  14.661  0.0744  0.0146 -0.0067
  797CHOL    R3 9319  18.773  30.034  14.480 -0.0910 -0.0656  0.0278
  797CHOL    R4 9320  18.481  30.026  14.510 -0.0782  0.0460  0.1880
  797CHOL    R5 9321  18.619  29.858  14.533 -0.1247  0.0053  0.1696
  797CHOL    C1 9322  18.397  29.724  14.253 -0.3227 -0.0113  0.3339
  797CHOL    C2 9323  18.131  29.395  14.264  0.1121  0.1381 -0.0381
  798CHOL   ROH 9324  25.465   8.755   8.412 -0.0360 -0.0336 -0.0613
  798CHOL    R1 9325  25.248   8.663   8.255 -0.0559 -0.0593 -0.0187
  798CHOL    R2 9326  25.048   8.831   8.165 -0.0113 -0.0555 -0.1092
  798CHOL    R3 9327  25.115   8.728   7.922 -0.0325 -0.1971 -0.0553
  798CHOL    R4 9328  24.831   8.798   7.898  0.0456  0.0924 -0.1742
  798CHOL    R5 9329  24.922   8.604   7.855 -0.1400 -0.0160 -0.0855
  798CHOL    C1 9330  24.769   8.682   7.514  0.0586  0.0457 -0.1615
  798CHOL    C2 9331  24.643   8.861   7.236 -0.1585  0.0325  0.3138
  799CHOL   ROH 9332  16.188  21.236  17.662 -0.0833  0.0714 -0.1337
  799CHOL    R1 9333  16.038  21.471  17.712 -0.0912  0.0536 -0.0740
  799CHOL    R2 9334  15.807  21.470  17.863 -0.1420 -0.0086 -0.1507
  799CHOL    R3 9335  15.937  21.663  18.004 -0.1810 -0.0795 -0.0168
  799CHOL    R4 9336  15.654  21.702  18.068 -0.2214  0.0429 -0.2684
  799CHOL    R5 9337  15.792  21.853  17.992 -0.0848 -0.0126 -0.1316
  799CHOL    C1 9338  15.686  22.019  18.319 -0.3041  0.0064 -0.2116
  799CHOL    C2 9339  15.812  22.288  18.582  0.2780 -0.1934 -0.2477
  800CHOL   ROH 9340  27.835  13.671   4.251 -0.0371  0.4331 -0.3475
  800CHOL    R1 9341  27.758  13.641   3.981 -0.1194  0.2282 -0.3015
  800CHOL    R2 9342  27.884  13.463   3.810  0.0685  0.3609 -0.3019
  800CHOL    R3 9343  27.631  13.372   3.771  0.1864 -0.0363 -0.1530
  800CHOL    R4 9344  27.761  13.344   3.510  0.0366  0.3078 -0.2676
  800CHOL    R5 9345  27.573  13.447   3.551 -0.1049 -0.0192 -0.0733
  800CHOL    C1 9346  27.451  13.189   3.299  0.1284 -0.0957 -0.1081
  800CHOL    C2 9347  27.471  13.040   3.010 -0.1679 -0.1787  0.2056
  801CHOL   ROH 9348  28.397  23.730   5.188 -0.0006 -0.1159 -0.0471
  801CHOL    R1 9349  28.230  23.819   4.977 -0.0172  0.0801  0.0484
  801CHOL    R2 9350  28.252  24.071   4.867  0.1701  0.0797  0.0826
  801CHOL    R3 9351  28.275  23.933   4.634 -0.0732  0.0973  0.0470
  801CHOL    R4 9352  28.219  24.209   4.552  0.3866  0.2151  0.1172
  801CHOL    R5 9353  28.109  24.030   4.491  0.0820  0.4122  0.0773
  801CHOL    C1 9354  28.220  24.158   4.149  0.2838  0.3103  0.1040
  801CHOL    C2 9355  27.997  24.352   4.067  0.0213 -0.0289 -0.2056
  802CHOL   ROH 9356  35.184  29.699   9.194  0.0435 -0.1021 -0.0987
  802CHOL    R1 9357  35.122  29.521   9.405  0.0793 -0.0002 -0.0014
  802CHOL    R2 9358  35.086  29.606   9.666  0.0338  0.1385 -0.0511
  802CHOL    R3 9359  34.848  29.476   9.641  0.0746  0.0562  0.0026
  802CHOL    R4 9360  34.914  29.457   9.926  0.1442  0.0757 -0.0146
  802CHOL    R5 9361  34.865  29.292   9.793  0.1717  0.0608 -0.0038
  802CHOL    C1 9362  34.591  29.249  10.055  0.2459 -0.0387  0.0572
  802CHOL    C2 9363  34.590  29.000  10.321  0.1573 -0.0534  0.0986
  803CHOL   ROH 9364  34.538  26.822  11.630 -0.0965 -0.2550  0.0330
  803CHOL    R1 9365  34.815  26.851  11.576 -0.1064 -0.2396 -0.0078
  803CHOL    R2 9366  34.936  26.738  11.355 -0.1731 -0.0557 -0.1405
  803CHOL    R3 9367  35.018  26.994  11.310 -0.1540 -0.0240  0.0694
  803CHOL    R4 9368  35.181  26.830  11.129 -0.1236  0.1068 -0.0218
  803CHOL    R5 9369  35.255  26.974  11.275 -0.1484 -0.0059  0.1026
  803CHOL    C1 9370   0.016  27.123  10.956 -0.0780  0.2310  0.2440
  803CHOL    C2 9371   0.287  27.077  10.694  0.1646  0.3799  0.2128
  804CHOL   ROH 9372  23.363  31.863  10.503 -0.1210 -0.0788 -0.0098
  804CHOL    R1 9373  23.349  31.685  10.283 -0.1806 -0.0605 -0.0210
  804CHOL    R2 9374  23.111  31.625  10.156 -0.1774  0.1637 -0.1362
  804CHOL    R3 9375  23.247  31.703   9.934  0.0026  0.0437 -0.0698
  804CHOL    R4 9376  23.012  31.560   9.831 -0.0107  0.1450 -0.1839
  804CHOL    R5 9377  23.221  31.521   9.781  0.0011  0.0237 -0.0463
  804CHOL    C1 9378  23.082  31.597   9.434  0.2555  0.0224 -0.1493
  804CHOL    C2 9379  22.731  31.715   9.276 -0.0882  0.1684 -0.1013
  805CHOL   ROH 9380  26.253   5.367   9.760  0.0252  0.1584  0.0349
  805CHOL    R1 9381  26.151   5.244   9.527  0.0332  0.1921  0.0135
  805CHOL    R2 9382  25.971   5.034   9.537  0.0812  0.1496 -0.0217
  805CHOL    R3 9383  25.823   5.196   9.375  0.0311  0.1555  0.0298
  805CHOL    R4 9384  25.697   4.932   9.353  0.0607  0.1425  0.0126
  805CHOL    R5 9385  25.767   5.058   9.188  0.0145  0.1768  0.0189
  805CHOL    C1 9386  25.399   5.025   9.094  0.0014  0.1440  0.0811
  805CHOL    C2 9387  25.098   4.865   8.974 -0.2655 -0.0667  0.0681
  806CHOL   ROH 9388  20.220  30.168  13.296  0.1695 -0.1651 -0.1564
  806CHOL    R1 9389  20.135  30.159  13.026  0.0664 -0.0828 -0.1269
  806CHOL    R2 9390  20.047  29.927  12.905 -0.0025 -0.0411 -0.1571
  806CHOL    R3 9391  19.829  30.079  12.847 -0.0097 -0.0033 -0.0328
  806CHOL    R4 9392  19.800  29.840  12.678 -0.2031 -0.0469  0.0615
  806CHOL    R5 9393  19.796  30.048  12.612 -0.2020 -0.0662  0.0019
  806CHOL    C1 9394  19.452  29.933  12.492 -0.3264 -0.0146  0.3054
  806CHOL    C2 9395  19.107  29.832  12.483 -0.1846 -0.1926 -0.1630
  807CHOL   ROH 9396   4.707  17.624   7.597  0.0438  0.1126 -0.0732
  807CHOL    R1 9397   4.542  17.853   7.585  0.0355  0.1059 -0.0870
  807CHOL    R2 9398   4.305  17.873   7.725 -0.0132  0.0680 -0.1634
  807CHOL    R3 9399   4.417  18.102   7.820 -0.0572  0.0563 -0.0839
  807CHOL    R4 9400   4.136  18.118   7.901 -0.0645 -0.0151 -0.0971
  807CHOL    R5 9401   4.248  18.268   7.790 -0.0821  0.0383 -0.0420
  807CHOL    C1 9402   4.143  18.475   8.092 -0.1359 -0.0743  0.0164
  807CHOL    C2 9403   4.055  18.827   8.121 -0.0761  0.2287  0.0735
  808CHOL   ROH 9404  23.472  28.732   9.539 -0.1660  0.0857  0.1237
  808CHOL    R1 9405  23.262  28.714   9.350 -0.1703 -0.0141  0.1371
  808CHOL    R2 9406  23.306  28.659   9.084 -0.1448  0.1660  0.1032
  808CHOL    R3 9407  23.126  28.460   9.128  0.0465 -0.0285  0.0190
  808CHOL    R4 9408  23.088  28.533   8.847 -0.2529  0.2882  0.1371
  808CHOL    R5 9409  22.934  28.524   9.001 -0.1148 -0.0181  0.2633
  808CHOL    C1 9410  22.792  28.273   8.751 -0.1361  0.1770  0.0782
  808CHOL    C2 9411  22.344  28.199   8.680  0.0134 -0.0694 -0.3372
  809CHOL   ROH 9412   7.149  22.123  20.377  0.0153  0.0631 -0.0986
  809CHOL    R1 9413   7.300  22.059  20.146  0.0680 -0.0107 -0.0441
  809CHOL    R2 9414   7.272  22.196  19.908  0.1200 -0.0891 -0.0947
  809CHOL    R3 9415   7.541  22.229  19.933  0.1143 -0.0780 -0.0457
  809CHOL    R4 9416   7.476  22.345  19.672  0.1552 -0.0746 -0.0557
  809CHOL    R5 9417   7.626  22.192  19.712  0.1550 -0.0698 -0.0320
  809CHOL    C1 9418   7.846  22.463  19.557  0.1703 -0.0560  0.0133
  809CHOL    C2 9419   8.104  22.411  19.206  0.4027  0.2591 -0.2903
  810CHOL   ROH 9420  21.495   1.192   9.261 -0.0517  0.0348  0.0130
  810CHOL    R1 9421  21.682   1.260   9.462 -0.0299  0.0070  0.0022
  810CHOL    R2 9422  21.635   1.459   9.648  0.0050  0.0054  0.0137
  810CHOL    R3 9423  21.691   1.262   9.826 -0.0037 -0.0079  0.0015
  810CHOL    R4 9424  21.693   1.508   9.985 -0.1568 -0.0368  0.0478
  810CHOL    R5 9425  21.852   1.359   9.975 -0.1011  0.0201  0.0886
  810CHOL    C1 9426  21.778   1.351  10.349 -0.2595 -0.0737  0.0559
  810CHOL    C2 9427  22.042   1.371  10.689 -0.2188 -0.2597 -0.3324
  811CHOL   ROH 9428  10.499  20.724  17.494 -0.1848 -0.0503 -0.0209
  811CHOL    R1 9429  10.373  20.614  17.723 -0.0479  0.1499  0.1526
  811CHOL    R2 9430  10.381  20.344  17.781 -0.4595  0.1245  0.0957
  811CHOL    R3 9431  10.477  20.431  18.020  0.0646 -0.0876 -0.0305
  811CHOL    R4 9432  10.347  20.176  18.081 -0.6127  0.2909  0.1726
  811CHOL    R5 9433  10.309  20.367  18.179  0.0469  0.4332  0.1730
  811CHOL    C1 9434  10.417  20.160  18.480 -0.2099  0.1884  0.0992
  811CHOL    C2 9435  10.598  19.945  18.788 -0.0780  0.3483 -0.1656
  812CHOL   ROH 9436  22.867  28.252   6.045 -0.0080  0.0558  0.0711
  812CHOL    R1 9437  22.965  28.089   6.255 -0.0305  0.0698  0.0921
  812CHOL    R2 9438  23.141  28.183   6.446 -0.0394  0.0781  0.0944
  812CHOL    R3 9439  22.952  28.091   6.618 -0.0550  0.1024  0.0914
  812CHOL    R4 9440  23.194  28.119   6.782 -0.0179 -0.0511  0.0669
  812CHOL    R5 9441  23.070  27.940   6.762 -0.0971  0.0055  0.0267
  812CHOL    C1 9442  23.047  27.995   7.139 -0.0201 -0.1035  0.0482
  812CHOL    C2 9443  22.801  28.101   7.392  0.0194  0.0435  0.1930
  813CHOL   ROH 9444   4.791  22.699  15.233  0.0325 -0.1644  0.0428
  813CHOL    R1 9445   5.016  22.556  15.139  0.1043 -0.0750  0.0793
  813CHOL    R2 9446   5.192  22.661  14.954  0.0878 -0.0084  0.1024
  813CHOL    R3 9447   5.378  22.600  15.143  0.0864  0.0720  0.1304
  813CHOL    R4 9448   5.534  22.648  14.900  0.0904 -0.0031  0.1163
  813CHOL    R5 9449   5.542  22.471  15.026  0.0991  0.0414  0.1802
  813CHOL    C1 9450   5.906  22.583  15.046  0.0906  0.0750  0.1507
  813CHOL    C2 9451   6.172  22.525  15.140 -0.1292  0.1357  0.1990
  814CHOL   ROH 9452   4.522  26.583  13.564  0.2200 -0.2455 -0.0057
  814CHOL    R1 9453   4.273  26.518  13.683  0.1404 -0.0546 -0.0656
  814CHOL    R2 9454   4.242  26.304  13.854 -0.0653 -0.0281 -0.0680
  814CHOL    R3 9455   4.141  26.493  14.021  0.0378  0.0530 -0.0977
  814CHOL    R4 9456   4.068  26.238  14.146 -0.2388  0.1112 -0.1393
  814CHOL    R5 9457   3.933  26.401  14.096 -0.0737  0.2346 -0.1837
  814CHOL    C1 9458   3.872  26.377  14.472 -0.2430  0.2683 -0.2086
  814CHOL    C2 9459   3.726  26.630  14.714 -0.2147  0.2695  0.2976
  815CHOL   ROH 9460  35.091  32.652   9.445 -0.0217  0.2127  0.1395
  815CHOL    R1 9461  35.159  32.529   9.691 -0.0923  0.0515  0.0794
  815CHOL    R2 9462  35.282  32.666   9.897 -0.0967 -0.0976  0.1810
  815CHOL    R3 9463  35.071  32.574  10.042 -0.1419 -0.1350  0.0916
  815CHOL    R4 9464  35.260  32.676  10.242 -0.1503 -0.2903  0.1835
  815CHOL    R5 9465  35.171  32.477  10.237 -0.1942 -0.2697  0.0535
  815CHOL    C1 9466  35.049  32.595  10.579 -0.2240 -0.4375  0.1013
  815CHOL    C2 9467  35.147  32.660  10.974  0.0010  0.3449 -0.0791
  816CHOL   ROH 9468  10.156   4.927  18.237  0.1164 -0.2245 -0.1229
  816CHOL    R1 9469  10.063   5.013  17.984 -0.3645 -0.2649  0.0353
  816CHOL    R2 9470  10.224   5.015  17.759 -0.4961  0.6030 -0.0683
  816CHOL    R3 9471  10.022   4.866  17.654 -0.0166 -0.0351 -0.1129
  816CHOL    R4 9472  10.166   4.972  17.421 -0.3453  0.5087 -0.0820
  816CHOL    R5 9473   9.953   4.989  17.460 -0.4158 -0.2007 -0.0809
  816CHOL    C1 9474   9.944   4.806  17.125  0.1929 -0.1451 -0.1328
  816CHOL    C2 9475   9.836   4.620  16.893 -0.2791 -0.1810  0.1014
  817CHOL   ROH 9476  19.367  23.899  12.554  0.0152  0.0977 -0.0207
  817CHOL    R1 9477  19.602  24.052  12.523  0.1331 -0.0971 -0.1001
  817CHOL    R2 9478  19.711  24.201  12.729  0.0835  0.1556 -0.2551
  817CHOL    R3 9479  19.935  24.059  12.671  0.0373 -0.0782  0.1182
  817CHOL    R4 9480  20.024  24.262  12.862  0.0986  0.3939 -0.3973
  817CHOL    R5 9481  20.110  24.223  12.666  0.0940 -0.1450 -0.2989
  817CHOL    C1 9482  20.416  24.165  12.885  0.0637  0.3131 -0.1296
  817CHOL    C2 9483  20.615  23.952  13.244 -0.1586 -0.0119 -0.0977
  818CHOL   ROH 9484  21.845  23.389   7.727  0.1542  0.0161 -0.0717
  818CHOL    R1 9485  22.121  23.390   7.790  0.1280  0.1156  0.0413
  818CHOL    R2 9486  22.318  23.379   7.597  0.2104  0.1254  0.1254
  818CHOL    R3 9487  22.407  23.604   7.721  0.0924  0.1843  0.1050
  818CHOL    R4 9488  22.611  23.544   7.519  0.1635  0.2283  0.1626
  818CHOL    R5 9489  22.645  23.575   7.732  0.1020  0.2806  0.1651
  818CHOL    C1 9490  22.866  23.851   7.589  0.0252  0.3428  0.1652
  818CHOL    C2 9491  23.220  24.018   7.672 -0.0190  0.1510  0.3130
  819CHOL   ROH 9492  12.413   0.843  18.722 -0.1613 -0.0599 -0.0153
  819CHOL    R1 9493  12.241   0.722  18.533 -0.1881  0.0652 -0.0710
  819CHOL    R2 9494  12.186   0.837  18.288  0.0772  0.0428 -0.1418
  819CHOL    R3 9495  12.269   0.596  18.193 -0.1343 -0.0830 -0.0121
  819CHOL    R4 9496  12.096   0.705  17.982  0.2348  0.1138 -0.2193
  819CHOL    R5 9497  12.077   0.509  18.077 -0.1263  0.1505 -0.2056
  819CHOL    C1 9498  12.121   0.402  17.714  0.1279  0.0370 -0.1430
  819CHOL    C2 9499  11.701   0.495  17.615 -0.2617 -0.3571 -0.0087
  820CHOL   ROH 9500  15.324   9.932  14.887 -0.1191 -0.1964  0.1160
  820CHOL    R1 9501  15.375   9.934  15.165  0.0484 -0.0966  0.0853
  820CHOL    R2 9502  15.189   9.851  15.351  0.1487 -0.0018  0.2296
  820CHOL    R3 9503  15.391   9.688  15.433  0.1771  0.0032  0.1703
  820CHOL    R4 9504  15.201   9.689  15.656  0.2566  0.0225  0.2384
  820CHOL    R5 9505  15.414   9.734  15.667  0.2609  0.0218  0.1584
  820CHOL    C1 9506  15.397   9.442  15.911  0.3461  0.0415  0.1881
  820CHOL    C2 9507  15.230   9.225  16.187 -0.0723 -0.5008 -0.0765
  821CHOL   ROH 9508  24.463  22.396   9.206  0.0976 -0.0493  0.1115
  821CHOL    R1 9509  24.198  22.496   9.218  0.1482  0.0742  0.2028
  821CHOL    R2 9510  24.139  22.749   9.312  0.3307  0.2233 -0.0774
  821CHOL    R3 9511  24.013  22.773   9.072  0.1401 -0.0403 -0.0070
  821CHOL    R4 9512  23.819  22.873   9.269  0.2628  0.0948  0.0471
  821CHOL    R5 9513  23.784  22.718   9.119  0.1900 -0.0587  0.2205
  821CHOL    C1 9514  23.515  22.969   9.018  0.0447 -0.2273  0.1858
  821CHOL    C2 9515  23.149  23.172   8.824  0.0928 -0.0050 -0.1905
  822CHOL   ROH 9516   9.918  11.768  17.809  0.1164  0.2776 -0.0054
  822CHOL    R1 9517  10.099  11.786  17.592  0.0139 -0.3038 -0.1465
  822CHOL    R2 9518  10.078  11.626  17.367 -0.7788 -0.1340 -0.2086
  822CHOL    R3 9519  10.079  11.865  17.237  0.0106 -0.0614 -0.0929
  822CHOL    R4 9520  10.106  11.664  17.025 -0.6312 -0.0566 -0.1883
  822CHOL    R5 9521  10.237  11.835  17.060 -0.0680 -0.4937 -0.0948
  822CHOL    C1 9522  10.124  11.910  16.703  0.1958  0.0564 -0.0680
  822CHOL    C2 9523  10.462  11.636  16.655  0.4030  0.1541  0.1167
  823CHOL   ROH 9524  31.619  26.257   8.071  0.0287  0.0246 -0.0843
  823CHOL    R1 9525  31.639  26.531   8.005  0.0114  0.0168 -0.1231
  823CHOL    R2 9526  31.880  26.653   7.948  0.0086  0.0339 -0.0976
  823CHOL    R3 9527  31.753  26.726   7.719  0.0425 -0.0152 -0.1326
  823CHOL    R4 9528  31.978  26.913   7.742  0.0435 -0.0158 -0.1440
  823CHOL    R5 9529  31.768  26.965   7.717  0.0484 -0.0160 -0.1855
  823CHOL    C1 9530  31.915  27.134   7.408  0.0959 -0.0907 -0.2038
  823CHOL    C2 9531  31.936  27.526   7.460  0.2866 -0.4644 -0.1336
  824CHOL   ROH 9532   2.271  26.173   9.533  0.0138 -0.2021 -0.1460
  824CHOL    R1 9533   2.115  25.947   9.600 -0.1436 -0.0767 -0.0828
  824CHOL    R2 9534   2.035  25.893   9.859  0.0141 -0.0727 -0.0304
  824CHOL    R3 9535   1.788  25.885   9.746 -0.0849  0.1899  0.1648
  824CHOL    R4 9536   1.764  25.723   9.990  0.1732 -0.5182 -0.2693
  824CHOL    R5 9537   1.711  25.661   9.787  0.0088  0.0465 -0.4041
  824CHOL    C1 9538   1.374  25.616   9.961  0.1729 -0.5316 -0.2253
  824CHOL    C2 9539   1.289  25.381  10.055 -0.1538  0.3038  0.0485
  825CHOL   ROH 9540   4.481  30.549  18.287  0.1465  0.0913 -0.0381
  825CHOL    R1 9541   4.696  30.373  18.233  0.1409  0.0538  0.0597
  825CHOL    R2 9542   4.856  30.398  18.009  0.0639 -0.1519 -0.0217
  825CHOL    R3 9543   5.057  30.401  18.193  0.1250  0.0427 -0.0905
  825CHOL    R4 9544   5.185  30.314  17.943  0.0541 -0.1640 -0.0542
  825CHOL    R5 9545   5.192  30.211  18.136  0.1329  0.0107  0.0362
  825CHOL    C1 9546   5.565  30.267  18.077  0.1058  0.0118 -0.1375
  825CHOL    C2 9547   5.663  29.937  18.171 -0.0362  0.3620 -0.1464
  826CHOL   ROH 9548  15.208  28.054  19.631  0.1145 -0.0770 -0.0446
  826CHOL    R1 9549  15.056  28.201  19.443  0.1778 -0.0164 -0.0488
  826CHOL    R2 9550  15.143  28.247  19.185  0.1119 -0.2271 -0.1096
  826CHOL    R3 9551  14.904  28.138  19.118 -0.0277 -0.0223  0.0474
  826CHOL    R4 9552  14.991  28.279  18.876  0.1370 -0.4408 -0.1446
  826CHOL    R5 9553  14.800  28.302  18.979  0.1681 -0.0723 -0.1625
  826CHOL    C1 9554  14.677  28.194  18.634  0.0207 -0.3729 -0.0177
  826CHOL    C2 9555  14.364  28.151  18.370  0.4036  0.2142  0.0892
  827CHOL   ROH 9556   4.347  35.052  17.628  0.0967 -0.0449 -0.0682
  827CHOL    R1 9557   4.475  35.138  17.391 -0.0346 -0.1011 -0.1598
  827CHOL    R2 9558   4.734  35.235  17.388 -0.1266  0.1416 -0.2849
  827CHOL    R3 9559   4.769  35.043  17.199  0.0164  0.0328 -0.1493
  827CHOL    R4 9560   4.989  35.232  17.155  0.0618 -0.0011 -0.0786
  827CHOL    R5 9561   4.846  35.162  17.006  0.1770 -0.0778 -0.1560
  827CHOL    C1 9562   5.171  35.049  16.842  0.3058 -0.1857  0.1687
  827CHOL    C2 9563   5.464  34.945  16.643 -0.4249  0.1294  0.0811
  828CHOL   ROH 9564  34.939  25.472  11.861  0.0766 -0.3137 -0.2004
  828CHOL    R1 9565  35.125  25.647  11.983  0.0782 -0.3839 -0.1027
  828CHOL    R2 9566  35.383  25.678  11.890  0.0351 -0.2290 -0.1716
  828CHOL    R3 9567  35.315  25.942  11.885 -0.0340 -0.2398  0.1075
  828CHOL    R4 9568   0.219  25.938  11.833 -0.1226 -0.1476 -0.4178
  828CHOL    R5 9569   0.116  26.053  11.987  0.1293 -0.2617 -0.1610
  828CHOL    C1 9570   0.283  26.337  11.795 -0.2792 -0.1107 -0.2993
  828CHOL    C2 9571   0.640  26.415  11.768  0.1437  0.3378 -0.0196
  829CHOL   ROH 9572  21.784  21.379   7.546  0.0072 -0.1910  0.0725
  829CHOL    R1 9573  21.989  21.339   7.737 -0.0134 -0.0816  0.1179
  829CHOL    R2 9574  22.251  21.290   7.666 -0.0253 -0.2319  0.1731
  829CHOL    R3 9575  22.301  21.503   7.828  0.0354 -0.0976 -0.0201
  829CHOL    R4 9576  22.541  21.336   7.848 -0.0917 -0.2445  0.2824
  829CHOL    R5 9577  22.420  21.409   8.014 -0.1297  0.0120  0.1413
  829CHOL    C1 9578  22.757  21.562   8.106 -0.0735 -0.1263  0.1646
  829CHOL    C2 9579  23.028  21.805   8.054  0.3931 -0.0269 -0.1676
  830CHOL   ROH 9580  16.194  24.388  20.870 -0.1362  0.0604 -0.0088
  830CHOL    R1 9581  16.044  24.318  20.640 -0.1026  0.1741 -0.0652
  830CHOL    R2 9582  15.770  24.285  20.645 -0.0880  0.0393 -0.0918
  830CHOL    R3 9583  15.776  24.468  20.444 -0.1735  0.2057  0.0544
  830CHOL    R4 9584  15.501  24.365  20.443  0.0401 -0.3954 -0.4417
  830CHOL    R5 9585  15.638  24.372  20.273  0.2909  0.0267 -0.2312
  830CHOL    C1 9586  15.351  24.583  20.136  0.0348 -0.4925 -0.5077
  830CHOL    C2 9587  15.098  24.451  19.855  0.0452  0.1451  0.1553
  831CHOL   ROH 9588   3.849  21.514  15.009 -0.0691  0.0798 -0.1798
  831CHOL    R1 9589   4.036  21.630  14.830 -0.0218  0.1598 -0.0793
  831CHOL    R2 9590   4.234  21.803  14.914  0.0564 -0.0009  0.0738
  831CHOL    R3 9591   4.397  21.627  14.786 -0.0237  0.0409 -0.0875
  831CHOL    R4 9592   4.562  21.866  14.825  0.0389 -0.0170 -0.0029
  831CHOL    R5 9593   4.526  21.763  14.637 -0.0474  0.1022 -0.0515
  831CHOL    C1 9594   4.906  21.738  14.654 -0.0464  0.0128 -0.1987
  831CHOL    C2 9595   5.152  21.698  14.555  0.1661  0.1189  0.2414
  832CHOL   ROH 9596  28.036  20.083   3.465  0.2613  0.1135  0.1158
  832CHOL    R1 9597  28.084  20.207   3.215  0.1356  0.1312  0.1005
  832CHOL    R2 9598  28.327  20.191   3.085  0.0558  0.1009 -0.0460
  832CHOL    R3 9599  28.175  20.099   2.879 -0.0833  0.1507  0.0344
  832CHOL    R4 9600  28.334  20.316   2.763  0.0658 -0.0282 -0.0963
  832CHOL    R5 9601  28.117  20.296   2.755  0.0463  0.1524 -0.0235
  832CHOL    C1 9602  28.195  20.303   2.382 -0.0589 -0.0567 -0.0501
  832CHOL    C2 9603  28.414  20.385   2.082 -0.1685  0.3942 -0.2474
  833CHOL   ROH 9604  24.238  14.428   8.256  0.0944 -0.0810 -0.1828
  833CHOL    R1 9605  24.086  14.491   8.026 -0.0231  0.0017 -0.0834
  833CHOL    R2 9606  24.002  14.299   7.847  0.0661  0.0896 -0.2201
  833CHOL    R3 9607  23.757  14.407   7.895 -0.0014 -0.1331 -0.0530
  833CHOL    R4 9608  23.752  14.336   7.610  0.0729  0.3677 -0.1849
  833CHOL    R5 9609  23.707  14.532   7.696 -0.0483  0.1934  0.1586
  833CHOL    C1 9610  23.377  14.460   7.518  0.0133  0.3209 -0.0075
  833CHOL    C2 9611  23.098  14.503   7.142  0.1370  0.0456  0.2976
  834CHOL   ROH 9612  20.927  22.999  15.995  0.1312 -0.0448  0.0743
  834CHOL    R1 9613  20.771  22.911  15.776  0.2043 -0.0896  0.0401
  834CHOL    R2 9614  20.668  22.655  15.759 -0.0164 -0.0121  0.1890
  834CHOL    R3 9615  20.432  22.787  15.726  0.1242  0.1743 -0.0875
  834CHOL    R4 9616  20.393  22.528  15.594 -0.0786  0.0191  0.2680
  834CHOL    R5 9617  20.361  22.724  15.506  0.1484 -0.0715 -0.0282
  834CHOL    C1 9618  20.012  22.576  15.465  0.0168  0.2126  0.0542
  834CHOL    C2 9619  19.650  22.817  15.464  0.2325 -0.0367  0.0120
  835CHOL   ROH 9620  29.550   3.138   6.692  0.0964  0.1029  0.0503
  835CHOL    R1 9621  29.448   3.108   6.954 -0.0856  0.0391 -0.0272
  835CHOL    R2 9622  29.498   3.291   7.155  0.0758 -0.1929  0.1465
  835CHOL    R3 9623  29.227   3.295   7.175  0.0678  0.1845  0.0048
  835CHOL    R4 9624  29.320   3.459   7.399  0.1974 -0.2571  0.2805
  835CHOL    R5 9625  29.184   3.289   7.411 -0.0648 -0.0736 -0.0240
  835CHOL    C1 9626  28.962   3.560   7.560  0.2609  0.0597  0.2255
  835CHOL    C2 9627  29.090   3.882   7.821 -0.0499  0.0707  0.4431
  836CHOL   ROH 9628   7.023   9.408  15.770 -0.1722  0.2463 -0.0009
  836CHOL    R1 9629   7.156   9.639  15.676 -0.1048  0.1920 -0.0395
  836CHOL    R2 9630   7.354   9.767  15.821 -0.1218  0.2038 -0.0264
  836CHOL    R3 9631   7.498   9.732  15.593 -0.0653  0.1039  0.0243
  836CHOL    R4 9632   7.663   9.909  15.760  0.0320 -0.0668  0.1103
  836CHOL    R5 9633   7.600   9.946  15.554  0.1434  0.0182  0.0913
  836CHOL    C1 9634   7.978   9.960  15.511  0.1744 -0.3181  0.2378
  836CHOL    C2 9635   8.303  10.063  15.702 -0.1636  0.1418  0.0321
  837CHOL   ROH 9636  10.512  34.922  16.410 -0.2316 -0.0131 -0.1084
  837CHOL    R1 9637  10.624  34.994  16.660 -0.2483 -0.0904 -0.0784
  837CHOL    R2 9638  10.895  35.035  16.695 -0.2203 -0.3347  0.0077
  837CHOL    R3 9639  10.813  35.274  16.794 -0.0347 -0.2486 -0.0455
  837CHOL    R4 9640  11.056  35.210  16.946 -0.1692 -0.4742  0.0727
  837CHOL    R5 9641  10.860  35.261  17.028 -0.1584 -0.2804 -0.0231
  837CHOL    C1 9642  11.072   0.152  17.185  0.0352 -0.4748  0.0602
  837CHOL    C2 9643  11.164   0.471  17.436 -0.2107  0.1030 -0.1996
  838CHOL   ROH 9644   8.269   1.048  18.754 -0.1654 -0.2105 -0.1446
  838CHOL    R1 9645   8.470   1.064  18.556 -0.0476 -0.0490 -0.0130
  838CHOL    R2 9646   8.451   0.934  18.313  0.2420 -0.1135 -0.0041
  838CHOL    R3 9647   8.494   1.183  18.213  0.0644 -0.0874 -0.0184
  838CHOL    R4 9648   8.622   1.001  18.021  0.2203 -0.0056  0.0076
  838CHOL    R5 9649   8.715   1.171  18.121  0.0823  0.0725  0.0044
  838CHOL    C1 9650   8.763   1.275  17.756  0.0409  0.0817  0.0014
  838CHOL    C2 9651   9.011   1.287  17.466 -0.2407 -0.2530 -0.0695
  839CHOL   ROH 9652   2.137  29.756  16.895 -0.1560 -0.0499 -0.0011
  839CHOL    R1 9653   2.405  29.779  16.808 -0.1277 -0.0380  0.0881
  839CHOL    R2 9654   2.554  29.563  16.723 -0.0628 -0.0442  0.2141
  839CHOL    R3 9655   2.590  29.715  16.501 -0.0074 -0.1129  0.1764
  839CHOL    R4 9656   2.704  29.454  16.432 -0.3246 -0.2457  0.1524
  839CHOL    R5 9657   2.804  29.647  16.417 -0.1220 -0.3555  0.0778
  839CHOL    C1 9658   2.826  29.533  16.054 -0.4251 -0.4271  0.0808
  839CHOL    C2 9659   3.186  29.620  15.832  0.1488  0.0664 -0.1653
  840CHOL   ROH 9660  19.521  29.711   9.664 -0.0786 -0.2834 -0.0404
  840CHOL    R1 9661  19.643  29.752   9.916 -0.1156 -0.0540 -0.0578
  840CHOL    R2 9662  19.741  29.543  10.068 -0.2661  0.0698  0.2120
  840CHOL    R3 9663  19.970  29.690  10.064 -0.1842 -0.0618  0.0904
  840CHOL    R4 9664  19.957  29.581  10.336 -0.0521 -0.1291  0.0693
  840CHOL    R5 9665  19.981  29.791  10.281  0.0296 -0.1280  0.1116
  840CHOL    C1 9666  20.298  29.741  10.487  0.1494 -0.3685 -0.1278
  840CHOL    C2 9667  20.417  29.847  10.849 -0.3176 -0.1631  0.0755
  841CHOL   ROH 9668  10.982   4.416  15.100 -0.0249  0.1717  0.1183
  841CHOL    R1 9669  11.117   4.403  15.348 -0.0521  0.1030  0.1299
  841CHOL    R2 9670  11.088   4.191  15.522  0.0255 -0.0058  0.0129
  841CHOL    R3 9671  11.359   4.182  15.506  0.0321  0.1330  0.0430
  841CHOL    R4 9672  11.301   4.169  15.794  0.0043  0.0132  0.0307
  841CHOL    R5 9673  11.434   4.311  15.694 -0.0533  0.1100  0.0921
  841CHOL    C1 9674  11.679   4.148  15.936 -0.0016  0.1545  0.0695
  841CHOL    C2 9675  11.663   4.383  16.271  0.0862  0.0253 -0.3813
  842CHOL   ROH 9676   6.807  15.765  12.885 -0.1985 -0.3566  0.0728
  842CHOL    R1 9677   6.694  15.755  13.144 -0.1804 -0.3368  0.0813
  842CHOL    R2 9678   6.568  15.971  13.260 -0.0267 -0.2793  0.1386
  842CHOL    R3 9679   6.363  15.794  13.290 -0.1406 -0.1507  0.1232
  842CHOL    R4 9680   6.298  16.016  13.471  0.1581 -0.2600  0.3733
  842CHOL    R5 9681   6.309  15.804  13.523  0.0348 -0.3194  0.1731
  842CHOL    C1 9682   5.948  15.876  13.622  0.1585 -0.1281  0.4953
  842CHOL    C2 9683   5.725  15.810  13.954  0.4717  0.1527  0.1673
  843CHOL   ROH 9684  15.331  30.622  19.591  0.4172  0.2243 -0.0307
  843CHOL    R1 9685  15.422  30.520  19.343  0.3009  0.0273  0.0061
  843CHOL    R2 9686  15.423  30.250  19.285  0.0657 -0.0031  0.1360
  843CHOL    R3 9687  15.280  30.329  19.068  0.1052  0.0133  0.1161
  843CHOL    R4 9688  15.301  30.038  19.041 -0.1878 -0.0238  0.2804
  843CHOL    R5 9689  15.356  30.186  18.891 -0.0672 -0.1646  0.1846
  843CHOL    C1 9690  15.095  29.988  18.696 -0.2984 -0.0209  0.3455
  843CHOL    C2 9691  14.904  29.697  18.438  0.1191 -0.2478  0.0465
  844CHOL   ROH 9692   3.890   0.274  16.868  0.1091 -0.0538 -0.0095
  844CHOL    R1 9693   4.002   0.175  16.627  0.1836 -0.0628  0.0288
  844CHOL    R2 9694   4.133   0.337  16.446  0.0637 -0.0341 -0.0330
  844CHOL    R3 9695   4.333   0.156  16.478  0.1988  0.1265  0.0369
  844CHOL    R4 9696   4.389   0.283  16.220  0.1101  0.0757 -0.0063
  844CHOL    R5 9697   4.371   0.069  16.258  0.2692  0.0756  0.0696
  844CHOL    C1 9698   4.726   0.083  16.119  0.2640  0.2904  0.0745
  844CHOL    C2 9699   5.046  35.370  15.940 -0.1519 -0.0591 -0.2431
  845CHOL   ROH 9700  31.639   0.813   7.325  0.0074  0.0931 -0.2147
  845CHOL    R1 9701  31.631   0.949   7.573  0.0002  0.0571 -0.1953
  845CHOL    R2 9702  31.396   1.050   7.679  0.0019  0.0659 -0.2011
  845CHOL    R3 9703  31.469   0.902   7.896 -0.0329  0.0266 -0.2161
  845CHOL    R4 9704  31.284   1.103   8.002 -0.0757 -0.0130 -0.2149
  845CHOL    R5 9705  31.486   1.061   8.074 -0.0875 -0.0095 -0.1784
  845CHOL    C1 9706  31.287   0.995   8.393 -0.1535 -0.0959 -0.2371
  845CHOL    C2 9707  31.014   0.791   8.700  0.0761 -0.1645 -0.1305
  846CHOL   ROH 9708  32.557  17.909   1.212  0.0693  0.0657  0.2724
  846CHOL    R1 9709  32.447  17.753   1.422  0.0374  0.0156  0.2189
  846CHOL    R2 9710  32.537  17.771   1.683  0.0979 -0.1539  0.2108
  846CHOL    R3 9711  32.274  17.817   1.736  0.1299 -0.0548  0.2841
  846CHOL    R4 9712  32.375  17.681   1.975  0.1488 -0.0755  0.2630
  846CHOL    R5 9713  32.202  17.623   1.856  0.0931 -0.0200  0.3176
  846CHOL    C1 9714  32.035  17.672   2.195  0.2090  0.0631  0.3623
  846CHOL    C2 9715  31.633  17.622   2.361  0.0181  0.2074  0.1158
  847CHOL   ROH 9716  21.777  12.733  13.593 -0.1532 -0.1267 -0.0724
  847CHOL    R1 9717  21.503  12.798  13.558 -0.1421 -0.0615 -0.0378
  847CHOL    R2 9718  21.418  12.993  13.382 -0.1185 -0.0479 -0.0332
  847CHOL    R3 9719  21.263  12.792  13.285 -0.1810 -0.0138 -0.0047
  847CHOL    R4 9720  21.200  13.023  13.117 -0.0202 -0.0494 -0.1147
  847CHOL    R5 9721  21.057  12.899  13.226 -0.1125  0.0587 -0.1116
  847CHOL    C1 9722  20.926  12.852  12.871 -0.0220 -0.0184 -0.1354
  847CHOL    C2 9723  20.636  12.817  12.630 -0.1931  0.0638 -0.1935
  848CHOL   ROH 9724  16.805  29.267  19.180  0.1813  0.1520 -0.1514
  848CHOL    R1 9725  16.536  29.245  19.093  0.1686  0.2878 -0.1499
  848CHOL    R2 9726  16.459  29.297  18.833  0.2162  0.1941 -0.1856
  848CHOL    R3 9727  16.353  29.048  18.848  0.0451  0.2741 -0.0460
  848CHOL    R4 9728  16.249  29.158  18.597  0.3061  0.1181 -0.2207
  848CHOL    R5 9729  16.132  29.071  18.759  0.1278  0.3361 -0.2342
  848CHOL    C1 9730  16.027  28.842  18.473  0.1976  0.1497 -0.1098
  848CHOL    C2 9731  15.753  28.610  18.320 -0.1482 -0.2571 -0.2258
  849CHOL   ROH 9732   5.817  12.376  15.383 -0.1428 -0.0057  0.0932
  849CHOL    R1 9733   5.807  12.394  15.101 -0.0147  0.1355  0.0969
  849CHOL    R2 9734   5.868  12.626  14.964  0.2880  0.1353  0.2270
  849CHOL    R3 9735   6.042  12.464  14.832  0.1668  0.0083  0.2212
  849CHOL    R4 9736   6.018  12.702  14.663  0.0408 -0.1377  0.0312
  849CHOL    R5 9737   5.988  12.495  14.601 -0.0253 -0.1910  0.2374
  849CHOL    C1 9738   6.270  12.595  14.363 -0.2169 -0.4158 -0.0880
  849CHOL    C2 9739   6.584  12.523  14.290 -0.1995  0.3155  0.2754
  850CHOL   ROH 9740  30.487   6.023   4.714 -0.0731  0.1669 -0.0296
  850CHOL    R1 9741  30.399   6.241   4.872 -0.0069  0.0956  0.1059
  850CHOL    R2 9742  30.132   6.286   4.928 -0.0049  0.2324 -0.0015
  850CHOL    R3 9743  30.220   6.285   5.185 -0.1458 -0.0426  0.0471
  850CHOL    R4 9744  29.950   6.400   5.199 -0.1904 -0.1375  0.0324
  850CHOL    R5 9745  30.133   6.488   5.278 -0.2581 -0.1744  0.2368
  850CHOL    C1 9746  29.926   6.465   5.598 -0.4308 -0.6110  0.0978
  850CHOL    C2 9747  29.723   6.694   5.837 -0.0187 -0.3483  0.0279
  851CHOL   ROH 9748  14.330  21.655  21.083 -0.0899 -0.2974 -0.0909
  851CHOL    R1 9749  14.255  21.750  20.827 -0.0984 -0.2327 -0.0643
  851CHOL    R2 9750  13.992  21.767  20.745 -0.1109 -0.0369  0.0167
  851CHOL    R3 9751  14.058  22.026  20.694  0.0625 -0.0828  0.0065
  851CHOL    R4 9752  13.828  21.972  20.521 -0.1238  0.1364  0.1823
  851CHOL    R5 9753  14.021  22.051  20.458 -0.1072 -0.0139  0.0397
  851CHOL    C1 9754  13.795  22.334  20.342  0.0315  0.1939  0.2700
  851CHOL    C2 9755  13.952  22.445  20.091  0.0780  0.2664  0.1297
  852CHOL   ROH 9756   6.867  17.215  16.909 -0.1642 -0.0699  0.0312
  852CHOL    R1 9757   6.894  17.323  16.649 -0.0640  0.0437  0.0883
  852CHOL    R2 9758   7.117  17.466  16.569  0.0919 -0.1602  0.1502
  852CHOL    R3 9759   7.123  17.283  16.368 -0.1293 -0.0584  0.0496
  852CHOL    R4 9760   7.320  17.485  16.291  0.0145 -0.1833  0.0919
  852CHOL    R5 9761   7.154  17.414  16.170 -0.0865  0.0212  0.1091
  852CHOL    C1 9762   7.445  17.325  15.940 -0.2382 -0.1013 -0.0368
  852CHOL    C2 9763   7.652  17.422  15.624  0.0561 -0.1135  0.1356
  853CHOL   ROH 9764  31.935  28.792  10.241  0.2430 -0.0605  0.2024
  853CHOL    R1 9765  31.993  28.911   9.991 -0.0135 -0.0645  0.1389
  853CHOL    R2 9766  32.002  29.185   9.955 -0.0700 -0.0647  0.1205
  853CHOL    R3 9767  32.250  29.132   9.857 -0.1614 -0.0496 -0.1234
  853CHOL    R4 9768  32.178  29.392   9.742 -0.1804  0.0731  0.1614
  853CHOL    R5 9769  32.243  29.215   9.633 -0.3174  0.1497 -0.0468
  853CHOL    C1 9770  32.513  29.462   9.525 -0.3316  0.1675 -0.0435
  853CHOL    C2 9771  32.714  29.673   9.372  0.1440  0.2281  0.1204
  854CHOL   ROH 9772  16.893   3.626  12.701 -0.1249 -0.0565  0.0061
  854CHOL    R1 9773  16.914   3.426  12.901 -0.0881  0.0177  0.0772
  854CHOL    R2 9774  17.054   3.191  12.862 -0.1046 -0.0021  0.1347
  854CHOL    R3 9775  17.182   3.267  13.089 -0.0517  0.0795  0.0779
  854CHOL    R4 9776  17.283   2.997  13.033 -0.0893  0.0469  0.1693
  854CHOL    R5 9777  17.194   3.067  13.220 -0.0450  0.1326  0.1585
  854CHOL    C1 9778  17.536   2.956  13.347 -0.0305  0.1520  0.1362
  854CHOL    C2 9779  17.898   2.791  13.528  0.1555 -0.0679 -0.3493
  855CHOL   ROH 9780  17.857  22.929  19.483  0.1244  0.0472  0.2241
  855CHOL    R1 9781  17.598  22.816  19.467  0.1637 -0.0301  0.1265
  855CHOL    R2 9782  17.396  22.926  19.314  0.1352  0.0133  0.1948
  855CHOL    R3 9783  17.385  22.677  19.207  0.2270  0.0863  0.0120
  855CHOL    R4 9784  17.159  22.820  19.086  0.2481  0.1270  0.0231
  855CHOL    R5 9785  17.150  22.630  19.191  0.2430  0.0505 -0.1163
  855CHOL    C1 9786  17.010  22.524  18.853  0.3999  0.2625 -0.2484
  855CHOL    C2 9787  16.760  22.550  18.638  0.0601 -0.0817 -0.1259
  856CHOL   ROH 9788   5.537  25.210  14.030 -0.1430  0.0445  0.0246
  856CHOL    R1 9789   5.450  24.968  14.149 -0.0591 -0.0191 -0.0428
  856CHOL    R2 9790   5.262  24.804  14.031 -0.0290 -0.0326 -0.0705
  856CHOL    R3 9791   5.454  24.615  14.063  0.0275  0.0095 -0.1589
  856CHOL    R4 9792   5.208  24.463  14.016  0.0182 -0.0456  0.0493
  856CHOL    R5 9793   5.345  24.439  14.183  0.1409  0.0191 -0.0394
  856CHOL    C1 9794   5.357  24.087  14.037  0.0988 -0.0138  0.0358
  856CHOL    C2 9795   5.107  23.764  14.058 -0.1814  0.0226  0.0382
  857CHOL   ROH 9796  25.731  34.760  10.235 -0.1902  0.5029  0.3109
  857CHOL    R1 9797  25.620  34.707   9.980 -0.1646  0.2514  0.3506
  857CHOL    R2 9798  25.421  34.863   9.869 -0.1454  0.1502  0.1709
  857CHOL    R3 9799  25.596  34.881   9.661 -0.1207 -0.0676  0.1712
  857CHOL    R4 9800  25.334  34.943   9.544 -0.0669  0.0923  0.1352
  857CHOL    R5 9801  25.475  34.792   9.474 -0.1812 -0.0458  0.2005
  857CHOL    C1 9802  25.447  35.007   9.160  0.0021 -0.1456  0.1148
  857CHOL    C2 9803  25.298  35.050   8.871  0.0632 -0.1704 -0.0021
  858CHOL   ROH 9804  13.631   7.959  18.437 -0.0442 -0.1767  0.0124
  858CHOL    R1 9805  13.643   7.847  18.178  0.0579 -0.1063 -0.0130
  858CHOL    R2 9806  13.458   7.906  17.981  0.1485 -0.0345 -0.0775
  858CHOL    R3 9807  13.679   7.972  17.838  0.2176 -0.0161  0.0365
  858CHOL    R4 9808  13.462   7.964  17.641  0.2678  0.2340 -0.0317
  858CHOL    R5 9809  13.652   7.857  17.629  0.2248  0.1601 -0.0633
  858CHOL    C1 9810  13.672   8.061  17.307  0.4022  0.4077  0.1024
  858CHOL    C2 9811  13.643   8.268  17.124 -0.0588 -0.2003 -0.2806
  859CHOL   ROH 9812  28.599   2.486   6.798  0.3220  0.2021 -0.0286
  859CHOL    R1 9813  28.606   2.456   7.079  0.2014  0.1592 -0.0298
  859CHOL    R2 9814  28.603   2.208   7.202 -0.0155  0.1446 -0.0631
  859CHOL    R3 9815  28.828   2.301   7.323  0.0075 -0.0294  0.0285
  859CHOL    R4 9816  28.682   2.163   7.536 -0.0450 -0.1686 -0.0975
  859CHOL    R5 9817  28.756   2.368   7.541  0.0183 -0.1958  0.0835
  859CHOL    C1 9818  28.939   2.223   7.843 -0.0403 -0.5144 -0.0314
  859CHOL    C2 9819  28.947   1.992   8.060 -0.0895  0.1336 -0.2190
  860CHOL   ROH 9820  24.972  22.817   7.668  0.0745  0.0014  0.1645
  860CHOL    R1 9821  24.783  22.960   7.513  0.0221  0.0523  0.2752
  860CHOL    R2 9822  24.680  22.862   7.277  0.1853  0.2708  0.1113
  860CHOL    R3 9823  24.441  22.908   7.399  0.1035 -0.0672  0.0836
  860CHOL    R4 9824  24.376  22.889   7.114  0.2268  0.2621  0.0320
  860CHOL    R5 9825  24.324  23.053   7.249  0.0546  0.0467  0.2305
  860CHOL    C1 9826  23.975  22.948   7.134  0.1743 -0.0605 -0.0400
  860CHOL    C2 9827  23.839  22.756   6.829  0.0326 -0.1174 -0.0094
  861CHOL   ROH 9828   3.786  25.165  17.724 -0.0075  0.2671 -0.2078
  861CHOL    R1 9829   4.060  25.122  17.781 -0.0490  0.3311  0.0418
  861CHOL    R2 9830   4.233  25.006  17.601  0.0497 -0.0159  0.3562
  861CHOL    R3 9831   4.379  25.231  17.644  0.0528  0.0439  0.0470
  861CHOL    R4 9832   4.565  25.046  17.513  0.1111 -0.2197  0.4911
  861CHOL    R5 9833   4.597  25.150  17.702  0.0062  0.1137  0.3286
  861CHOL    C1 9834   4.896  25.281  17.503  0.1496 -0.2825  0.2794
  861CHOL    C2 9835   5.263  25.392  17.586  0.1238 -0.1162  0.0793
  862CHOL   ROH 9836  32.624   3.313   7.473  0.1001  0.0385  0.0400
  862CHOL    R1 9837  32.533   3.295   7.741  0.0084 -0.0247  0.0043
  862CHOL    R2 9838  32.508   3.516   7.905 -0.0671 -0.0624  0.0402
  862CHOL    R3 9839  32.253   3.424   7.934 -0.0700 -0.0887 -0.0651
  862CHOL    R4 9840  32.320   3.545   8.193 -0.1945 -0.0567 -0.0428
  862CHOL    R5 9841  32.246   3.342   8.160 -0.1579 -0.0704 -0.0592
  862CHOL    C1 9842  31.972   3.475   8.390 -0.2726 -0.0780 -0.1900
  862CHOL    C2 9843  32.079   3.715   8.681 -0.3282  0.1900  0.0269
  863CHOL   ROH 9844   2.112  11.528   5.111  0.0845  0.0074  0.1309
  863CHOL    R1 9845   1.853  11.519   5.224  0.0594 -0.0815  0.0675
  863CHOL    R2 9846   1.805  11.430   5.481  0.0417  0.0114  0.0967
  863CHOL    R3 9847   1.683  11.672   5.508 -0.0970 -0.0425 -0.0464
  863CHOL    R4 9848   1.566  11.505   5.719  0.0723  0.0449  0.1169
  863CHOL    R5 9849   1.457  11.617   5.567 -0.0452 -0.1360  0.0664
  863CHOL    C1 9850   1.312  11.775   5.883 -0.0400  0.0135 -0.0056
  863CHOL    C2 9851   1.266  12.084   6.061  0.1795 -0.0839 -0.1529
  864CHOL   ROH 9852   9.749  20.567  16.876 -0.2653 -0.0894 -0.0686
  864CHOL    R1 9853   9.650  20.321  16.973 -0.1532 -0.1350 -0.0690
  864CHOL    R2 9854   9.815  20.115  17.053 -0.0588 -0.0793 -0.1176
  864CHOL    R3 9855   9.671  20.131  17.283 -0.0203 -0.1513 -0.0883
  864CHOL    R4 9856   9.715  19.843  17.242  0.0545 -0.1316 -0.1316
  864CHOL    R5 9857   9.523  19.942  17.273  0.0325 -0.1921 -0.0830
  864CHOL    C1 9858   9.522  19.701  17.568  0.1567 -0.2289 -0.1122
  864CHOL    C2 9859   9.085  19.697  17.456  0.1327  0.0995 -0.1385
  865CHOL   ROH 9860  20.661   8.139  11.267  0.1055  0.0549  0.0442
  865CHOL    R1 9861  20.728   8.105  11.540  0.0429  0.1107  0.0666
  865CHOL    R2 9862  20.716   7.859  11.666  0.0726  0.1261  0.0977
  865CHOL    R3 9863  20.974   7.916  11.730  0.0414  0.2008  0.1584
  865CHOL    R4 9864  20.883   7.735  11.942  0.1217 -0.0320 -0.0025
  865CHOL    R5 9865  20.974   7.931  11.969  0.0217 -0.0081  0.1732
  865CHOL    C1 9866  21.222   7.716  12.163  0.1211 -0.0540 -0.0037
  865CHOL    C2 9867  21.454   7.546  12.434 -0.1699 -0.2347  0.2554
  866CHOL   ROH 9868  31.306  25.934   3.119 -0.2388  0.1388 -0.1288
  866CHOL    R1 9869  31.385  25.673   3.197 -0.2970  0.1312 -0.0949
  866CHOL    R2 9870  31.587  25.627   3.379 -0.1380  0.1050 -0.2754
  866CHOL    R3 9871  31.396  25.481   3.506 -0.0890  0.2596 -0.0222
  866CHOL    R4 9872  31.633  25.309   3.506 -0.1745  0.1438 -0.1655
  866CHOL    R5 9873  31.434  25.256   3.434 -0.2697  0.2060  0.0495
  866CHOL    C1 9874  31.480  24.987   3.700 -0.1500  0.3114  0.1361
  866CHOL    C2 9875  31.336  24.667   3.649 -0.0544  0.1704 -0.1035
  867CHOL   ROH 9876   2.291  16.190  11.100 -0.0547 -0.0433 -0.1074
  867CHOL    R1 9877   2.475  16.280  10.905  0.0415  0.0504  0.0259
  867CHOL    R2 9878   2.738  16.338  10.965  0.0395 -0.0788  0.1631
  867CHOL    R3 9879   2.790  16.163  10.764  0.0536  0.0606  0.0443
  867CHOL    R4 9880   3.054  16.261  10.846  0.0457  0.0269  0.1110
  867CHOL    R5 9881   2.972  16.262  10.644  0.0458  0.1566  0.1106
  867CHOL    C1 9882   3.285  16.051  10.588  0.0626  0.2190 -0.0310
  867CHOL    C2 9883   3.739  16.134  10.501 -0.1862  0.1170  0.1012
  868CHOL   ROH 9884  34.866   4.684   7.913 -0.2619  0.0790 -0.1385
  868CHOL    R1 9885  34.709   4.861   8.069 -0.3487  0.0503 -0.1927
  868CHOL    R2 9886  34.438   4.823   8.109 -0.2895 -0.1926 -0.0013
  868CHOL    R3 9887  34.507   4.839   8.371 -0.1456  0.0953 -0.0540
  868CHOL    R4 9888  34.268   5.007   8.347 -0.1694  0.0494 -0.1006
  868CHOL    R5 9889  34.460   5.066   8.432 -0.1293  0.1559 -0.2697
  868CHOL    C1 9890  34.234   5.129   8.732  0.0348  0.4607 -0.2078
  868CHOL    C2 9891  34.236   5.400   9.084  0.1032 -0.2327  0.1773
  869CHOL   ROH 9892  29.699  31.915  10.114  0.2525  0.0524 -0.0187
  869CHOL    R1 9893  29.825  31.964   9.865 -0.0856  0.2436 -0.1550
  869CHOL    R2 9894  29.977  31.774   9.736  0.1218  0.4948 -0.2803
  869CHOL    R3 9895  29.809  31.827   9.529 -0.1837  0.1690 -0.1207
  869CHOL    R4 9896  29.983  31.612   9.431  0.1619  0.5140 -0.2904
  869CHOL    R5 9897  29.946  31.803   9.333 -0.3151  0.4509 -0.2518
  869CHOL    C1 9898  29.828  31.566   9.059 -0.1018  0.2194 -0.1466
  869CHOL    C2 9899  29.844  31.349   8.695 -0.1657 -0.0977  0.0232
  870CHOL   ROH 9900  29.672  15.712   0.723 -0.2142  0.1262 -0.1517
  870CHOL    R1 9901  29.500  15.878   0.875 -0.2714 -0.0324 -0.0418
  870CHOL    R2 9902  29.361  15.786   1.095 -0.0072 -0.1486  0.0798
  870CHOL    R3 9903  29.482  15.996   1.219 -0.1288 -0.0055 -0.0432
  870CHOL    R4 9904  29.317  15.871   1.427  0.2039 -0.1824  0.1170
  870CHOL    R5 9905  29.315  16.081   1.368 -0.0881 -0.1873  0.1075
  870CHOL    C1 9906  29.404  16.118   1.737  0.2128 -0.0675  0.0232
  870CHOL    C2 9907  29.201  16.080   2.030  0.1344 -0.1039 -0.0298
  871CHOL   ROH 9908  16.222  14.402  14.164 -0.0498 -0.0571  0.0414
  871CHOL    R1 9909  16.390  14.392  14.392  0.0778 -0.0160 -0.0504
  871CHOL    R2 9910  16.602  14.565  14.428 -0.1892  0.2994  0.0221
  871CHOL    R3 9911  16.478  14.616  14.665 -0.1606 -0.1481  0.1374
  871CHOL    R4 9912  16.765  14.628  14.726 -0.1442  0.3147 -0.0054
  871CHOL    R5 9913  16.615  14.506  14.828  0.1274 -0.0566 -0.0382
  871CHOL    C1 9914  16.744  14.712  15.122 -0.0914 -0.0965  0.0869
  871CHOL    C2 9915  16.927  14.615  15.390 -0.0891 -0.0203 -0.4290
  872CHOL   ROH 9916  24.305  16.112   6.336  0.1092  0.2124  0.0548
  872CHOL    R1 9917  24.079  15.968   6.247  0.2079  0.0778  0.0199
  872CHOL    R2 9918  23.847  16.092   6.162  0.0932 -0.0626  0.1253
  872CHOL    R3 9919  23.887  15.942   5.939  0.1743  0.0843  0.0402
  872CHOL    R4 9920  23.596  15.981   5.952  0.1530 -0.0678  0.0567
  872CHOL    R5 9921  23.701  15.790   5.935  0.2493 -0.0070 -0.0497
  872CHOL    C1 9922  23.487  15.775   5.620  0.2636  0.0667 -0.0629
  872CHOL    C2 9923  23.378  15.529   5.503 -0.2383  0.2025  0.0961
  873CHOL   ROH 9924  34.997  11.494   7.643  0.1059 -0.0559  0.1273
  873CHOL    R1 9925  35.252  11.380   7.597  0.0851 -0.0445 -0.0202
  873CHOL    R2 9926  35.289  11.108   7.566  0.0700 -0.0365 -0.1080
  873CHOL    R3 9927   0.025  11.184   7.334 -0.0366  0.0226 -0.1446
  873CHOL    R4 9928   0.131  10.917   7.390 -0.0699 -0.0247 -0.3033
  873CHOL    R5 9929   0.247  11.098   7.352 -0.0470 -0.0377 -0.2969
  873CHOL    C1 9930   0.377  10.876   7.070 -0.2518  0.0377 -0.4513
  873CHOL    C2 9931   0.654  10.746   6.723 -0.1411  0.2480  0.3865
  874CHOL   ROH 9932  26.055  31.251   6.523  0.3679 -0.0661 -0.0396
  874CHOL    R1 9933  26.207  31.303   6.757  0.4560 -0.0683 -0.0971
  874CHOL    R2 9934  26.117  31.239   7.010  0.2904  0.4689 -0.0154
  874CHOL    R3 9935  26.354  31.106   7.025  0.0131 -0.0191  0.1875
  874CHOL    R4 9936  26.320  31.227   7.290  0.2310  0.4055  0.0259
  874CHOL    R5 9937  26.493  31.248   7.159  0.2975 -0.1335  0.0185
  874CHOL    C1 9938  26.660  31.097   7.467 -0.0639 -0.0890  0.2404
  874CHOL    C2 9939  26.825  31.092   7.772  0.1291 -0.0729  0.1721
  875CHOL   ROH 9940  25.084  13.826   2.119 -0.0803 -0.0214  0.0099
  875CHOL    R1 9941  25.128  14.061   2.271 -0.0154  0.0429 -0.1073
  875CHOL    R2 9942  25.108  14.066   2.547 -0.1454  0.2176 -0.1180
  875CHOL    R3 9943  25.359  14.167   2.532 -0.0778  0.0594 -0.0597
  875CHOL    R4 9944  25.241  14.296   2.767 -0.0395  0.1164 -0.0758
  875CHOL    R5 9945  25.335  14.396   2.597  0.0572  0.0693 -0.0478
  875CHOL    C1 9946  25.555  14.526   2.881  0.0859 -0.0909  0.0036
  875CHOL    C2 9947  25.828  14.770   2.835  0.0761 -0.0014  0.1930
  876CHOL   ROH 9948  30.724  32.172  10.674  0.0776  0.0723  0.0762
  876CHOL    R1 9949  30.718  32.133  10.393 -0.0067 -0.2396  0.1193
  876CHOL    R2 9950  30.828  32.314  10.215 -0.5151 -0.1776 -0.1407
  876CHOL    R3 9951  30.963  32.095  10.126 -0.0788  0.0227  0.0147
  876CHOL    R4 9952  30.996  32.295   9.914 -0.6470 -0.1186 -0.2184
  876CHOL    R5 9953  30.921  32.092   9.890 -0.2119 -0.3178  0.0398
  876CHOL    C1 9954  31.221  32.080   9.655 -0.3142  0.1031 -0.1179
  876CHOL    C2 9955  31.365  32.247   9.389  0.0261  0.0112 -0.2041
  877CHOL   ROH 9956   0.002  32.141  14.450 -0.0334 -0.1075 -0.1984
  877CHOL    R1 9957   0.269  32.230  14.424  0.0439 -0.3101 -0.1087
  877CHOL    R2 9958   0.433  32.150  14.216 -0.0985 -0.0653 -0.3189
  877CHOL    R3 9959   0.463  32.418  14.180  0.1430 -0.0170  0.1918
  877CHOL    R4 9960   0.703  32.299  14.060 -0.0974 -0.0340 -0.2867
  877CHOL    R5 9961   0.698  32.456  14.211  0.2165 -0.3273  0.0410
  877CHOL    C1 9962   0.889  32.636  13.935  0.1300  0.0303  0.2116
  877CHOL    C2 9963   0.810  32.757  13.525 -0.1212 -0.2260 -0.3786
  878CHOL   ROH 9964   9.421  23.741  21.247 -0.2138  0.2167 -0.0079
  878CHOL    R1 9965   9.560  23.879  21.043 -0.0055  0.0542  0.0229
  878CHOL    R2 9966   9.753  23.758  20.886 -0.1438 -0.1846  0.0356
  878CHOL    R3 9967   9.599  23.850  20.682  0.0014  0.0391  0.0247
  878CHOL    R4 9968   9.863  23.806  20.562 -0.0424 -0.3153  0.0504
  878CHOL    R5 9969   9.746  23.990  20.555  0.2080 -0.1530  0.0484
  878CHOL    C1 9970   9.781  23.920  20.181  0.1527 -0.1814  0.0485
  878CHOL    C2 9971   9.883  23.984  19.906 -0.2171  0.2253  0.0828
  879CHOL   ROH 9972  28.986  22.792   1.451  0.1437 -0.0940 -0.0981
  879CHOL    R1 9973  28.863  22.639   1.655  0.0364 -0.0431 -0.1245
  879CHOL    R2 9974  28.911  22.369   1.688 -0.0491 -0.0542 -0.0872
  879CHOL    R3 9975  28.973  22.443   1.942 -0.1091 -0.0508 -0.0733
  879CHOL    R4 9976  28.994  22.151   1.943  0.0069 -0.0427 -0.0954
  879CHOL    R5 9977  28.876  22.273   2.079 -0.0580 -0.1009 -0.0992
  879CHOL    C1 9978  29.101  22.094   2.330 -0.0167 -0.0325 -0.0871
  879CHOL    C2 9979  29.243  21.695   2.240 -0.2146  0.0106  0.0250
  880CHOL   ROH 9980   3.116  33.118  12.775  0.0838 -0.3354  0.0148
  880CHOL    R1 9981   3.027  33.231  13.019  0.1300 -0.2075 -0.0273
  880CHOL    R2 9982   2.854  33.446  13.028  0.1672 -0.1714 -0.1069
  880CHOL    R3 9983   2.708  33.280  13.187  0.1567 -0.0751 -0.0154
  880CHOL    R4 9984   2.688  33.543  13.316 -0.0029  0.0389 -0.2740
  880CHOL    R5 9985   2.753  33.357  13.409  0.0237  0.1534 -0.0669
  880CHOL    C1 9986   2.455  33.443  13.632 -0.1119  0.2524 -0.2854
  880CHOL    C2 9987   2.473  33.417  13.994  0.0563  0.0463  0.0290
  881CHOL   ROH 9988  19.860  30.556   9.146 -0.0344 -0.0224  0.0838
  881CHOL    R1 9989  20.095  30.461   9.271 -0.0668 -0.0883  0.0961
  881CHOL    R2 9990  20.324  30.615   9.293  0.0674 -0.2509 -0.1395
  881CHOL    R3 9991  20.299  30.557   9.557  0.1108  0.0362 -0.0710
  881CHOL    R4 9992  20.579  30.638   9.525  0.1453 -0.1492 -0.2351
  881CHOL    R5 9993  20.507  30.453   9.615  0.0702 -0.0168 -0.0228
  881CHOL    C1 9994  20.705  30.597   9.908  0.2316  0.1797 -0.2268
  881CHOL    C2 9995  21.030  30.647   9.949  0.1050  0.1083  0.4454
  882CHOL   ROH 9996   3.765  16.109  14.050 -0.0880 -0.1857 -0.1350
  882CHOL    R1 9997   3.958  16.062  13.848  0.0526 -0.0523 -0.0318
  882CHOL    R2 9998   4.193  16.206  13.832  0.0688 -0.0467  0.2324
  882CHOL    R3 9999   4.307  15.959  13.836  0.0592 -0.0523  0.1430
  882CHOL    R410000   4.515  16.135  13.728  0.0353 -0.0387  0.1221
  882CHOL    R510001   4.440  15.952  13.637  0.0007 -0.0137  0.1028
  882CHOL    C110002   4.809  15.862  13.671  0.0067 -0.0393 -0.0261
  882CHOL    C210003   4.933  16.105  13.459 -0.1594  0.0026  0.1546
  883CHOL   ROH10004  31.670  11.934   4.860 -0.0552 -0.2137 -0.0074
  883CHOL    R110005  31.841  11.930   4.635 -0.0469 -0.1127 -0.0033
  883CHOL    R210006  31.952  11.697   4.537  0.0798 -0.0502 -0.0113
  883CHOL    R310007  31.838  11.778   4.304  0.0417 -0.0996 -0.0099
  883CHOL    R410008  32.055  11.599   4.221  0.2159  0.1147 -0.0188
  883CHOL    R510009  32.023  11.803   4.153  0.0420  0.1014  0.0232
  883CHOL    C110010  32.008  11.618   3.819  0.2587  0.1644 -0.0217
  883CHOL    C210011  32.188  11.407   3.474 -0.1659 -0.0282 -0.2338
  884CHOL   ROH10012  29.559  17.493   0.285 -0.1747 -0.0504  0.0323
  884CHOL    R110013  29.607  17.681   0.491 -0.2117  0.0544 -0.0542
  884CHOL    R210014  29.422  17.874   0.562 -0.3880 -0.1628  0.0813
  884CHOL    R310015  29.455  17.768   0.810 -0.0144 -0.0698  0.0749
  884CHOL    R410016  29.432  18.057   0.856 -0.4148 -0.0935  0.0391
  884CHOL    R510017  29.592  17.927   0.925 -0.1553  0.1616 -0.0723
  884CHOL    C110018  29.468  18.063   1.259 -0.0793  0.0343  0.0086
  884CHOL    C210019  29.316  18.338   1.444  0.1421  0.1324 -0.0598
  885CHOL   ROH10020   8.304  17.804  14.080 -0.0521  0.0673 -0.0465
  885CHOL    R110021   8.223  17.795  14.351  0.0264 -0.0450 -0.0264
  885CHOL    R210022   8.014  17.946  14.450  0.1798  0.0627  0.1388
  885CHOL    R310023   7.922  17.704  14.535  0.0095  0.0805  0.0084
  885CHOL    R410024   7.791  17.900  14.710  0.2562  0.0725  0.2058
  885CHOL    R510025   7.908  17.727  14.773  0.1361 -0.0750  0.0317
  885CHOL    C110026   7.575  17.647  14.941  0.1407  0.0943  0.1224
  885CHOL    C210027   7.367  17.562  15.269  0.0640 -0.3152 -0.1064
  886CHOL   ROH10028  23.203  17.915  11.452 -0.0353 -0.0094 -0.1293
  886CHOL    R110029  22.954  18.040  11.505 -0.0301 -0.0233 -0.0674
  886CHOL    R210030  22.736  17.902  11.604 -0.0390 -0.0631 -0.1362
  886CHOL    R310031  22.742  18.095  11.795 -0.0262 -0.1597 -0.0398
  886CHOL    R410032  22.466  17.995  11.799 -0.0898  0.0168 -0.2449
  886CHOL    R510033  22.529  18.203  11.778  0.0542 -0.0147 -0.1085
  886CHOL    C110034  22.315  18.230  12.092 -0.1078 -0.0270 -0.2177
  886CHOL    C210035  22.202  18.499  12.356 -0.2212 -0.0042  0.0667
  887CHOL   ROH10036  31.952  25.768   7.311 -0.4027  0.2366 -0.2336
  887CHOL    R110037  32.152  25.896   7.156 -0.2029  0.1839 -0.0212
  887CHOL    R210038  32.093  26.064   6.945  0.0672  0.1666 -0.1106
  887CHOL    R310039  32.250  26.238   7.081 -0.0573  0.1580  0.0469
  887CHOL    R410040  32.299  26.299   6.798  0.0732  0.2895  0.0926
  887CHOL    R510041  32.450  26.253   6.949  0.0088  0.2716  0.1556
  887CHOL    C110042  32.567  26.600   6.841 -0.0409  0.3528  0.3587
  887CHOL    C210043  32.717  26.945   6.744 -0.2742 -0.0330 -0.1268
  888CHOL   ROH10044   6.779  16.796  12.810  0.0147 -0.1183  0.1194
  888CHOL    R110045   6.626  16.949  12.994 -0.1644 -0.1160 -0.0294
  888CHOL    R210046   6.392  16.855  13.106 -0.0383 -0.2966  0.0862
  888CHOL    R310047   6.518  16.914  13.339 -0.0934  0.1103  0.0160
  888CHOL    R410048   6.232  16.926  13.404 -0.1049 -0.2171  0.0318
  888CHOL    R510049   6.380  17.082  13.440 -0.3136  0.0238 -0.1381
  888CHOL    C110050   6.258  17.024  13.797 -0.1953  0.2109 -0.0661
  888CHOL    C210051   5.980  16.940  13.977 -0.1822  0.2035 -0.1279
  889CHOL   ROH10052  20.818  25.768   9.002  0.0726 -0.0544  0.2017
  889CHOL    R110053  21.053  25.923   9.027  0.0484 -0.0128  0.1731
  889CHOL    R210054  21.064  26.153   9.179  0.0072  0.0286  0.1143
  889CHOL    R310055  21.273  26.027   9.298  0.0198  0.0897  0.1568
  889CHOL    R410056  21.273  26.297   9.414 -0.1400  0.0576  0.2283
  889CHOL    R510057  21.441  26.197   9.318 -0.0614  0.1574  0.2632
  889CHOL    C110058  21.591  26.261   9.662 -0.2140  0.1317  0.3346
  889CHOL    C210059  21.794  26.387   9.927 -0.1421  0.0285 -0.1351
  890CHOL   ROH10060  16.003  29.948  13.965 -0.1074  0.1358 -0.0850
  890CHOL    R110061  16.162  29.975  14.197  0.1448  0.1577 -0.2580
  890CHOL    R210062  16.120  29.824  14.424  0.1057  0.4878 -0.0420
  890CHOL    R310063  16.383  29.762  14.393 -0.0169  0.0341 -0.2090
  890CHOL    R410064  16.324  29.694  14.672  0.1547  0.5817 -0.0330
  890CHOL    R510065  16.484  29.824  14.601  0.2863  0.2245 -0.4084
  890CHOL    C110066  16.689  29.560  14.786  0.0678  0.2108 -0.1846
  890CHOL    C210067  16.700  29.455  15.147  0.0210  0.0410  0.0943
  891CHOL   ROH10068  35.174  24.854   4.909  0.0887 -0.3149 -0.0895
  891CHOL    R110069  35.241  24.657   5.100 -0.1328 -0.4482 -0.1486
  891CHOL    R210070  35.244  24.707   5.371  0.3221 -0.4161 -0.1572
  891CHOL    R310071  35.076  24.494   5.380 -0.1690 -0.0287  0.0780
  891CHOL    R410072  35.234  24.475   5.627  0.2342 -0.4648 -0.2047
  891CHOL    R510073  35.208  24.318   5.477 -0.4017 -0.3685 -0.2073
  891CHOL    C110074  35.070  24.139   5.785 -0.2798 -0.1297 -0.0115
  891CHOL    C210075  35.133  23.863   6.069  0.3659  0.0752 -0.3132
  892CHOL   ROH10076   3.854  24.460  12.705 -0.0641  0.0351 -0.2372
  892CHOL    R110077   3.744  24.683  12.839  0.0342  0.0429 -0.1694
  892CHOL    R210078   3.654  24.907  12.705 -0.0623  0.0347 -0.1162
  892CHOL    R310079   3.425  24.858  12.843  0.0373  0.0451  0.0539
  892CHOL    R410080   3.385  25.124  12.725 -0.1480 -0.0679 -0.1459
  892CHOL    R510081   3.365  25.071  12.936 -0.0052  0.0961 -0.0884
  892CHOL    C110082   3.014  25.204  12.866 -0.1045 -0.1186 -0.0034
  892CHOL    C210083   3.012  25.602  12.877  0.3248 -0.0740  0.0163
  893CHOL   ROH10084  22.898  11.177   5.214 -0.1024  0.0642 -0.0083
  893CHOL    R110085  23.164  11.249   5.279 -0.0980  0.0555 -0.0171
  893CHOL    R210086  23.224  11.460   5.446 -0.0908 -0.0693  0.1394
  893CHOL    R310087  23.365  11.271   5.581 -0.0253 -0.1558 -0.0489
  893CHOL    R410088  23.530  11.514   5.598  0.0111 -0.1823 -0.0238
  893CHOL    R510089  23.594  11.318   5.527 -0.0544 -0.1516 -0.1679
  893CHOL    C110090  23.841  11.368   5.813  0.1318 -0.3296 -0.2957
  893CHOL    C210091  23.999  11.723   5.713  0.0083 -0.3252 -0.4730
  894CHOL   ROH10092  22.555  24.453  12.913  0.0719 -0.2132  0.0776
  894CHOL    R110093  22.500  24.475  12.636 -0.0309 -0.2094  0.0981
  894CHOL    R210094  22.260  24.393  12.525 -0.1717  0.0296  0.2232
  894CHOL    R310095  22.257  24.647  12.427  0.0607  0.0149  0.1750
  894CHOL    R410096  22.045  24.507  12.279  0.0635  0.1299  0.0620
  894CHOL    R510097  22.211  24.620  12.193  0.1951  0.0042  0.1496
  894CHOL    C110098  21.917  24.811  12.044  0.4191  0.1747 -0.0773
  894CHOL    C210099  21.517  24.719  11.997  0.1046  0.3294 -0.1440
  895CHOL   ROH10100  11.836  24.747  18.337  0.0439 -0.1116  0.0061
  895CHOL    R110101  11.734  24.947  18.509  0.0366 -0.0605 -0.0572
  895CHOL    R210102  11.481  24.936  18.617  0.0477 -0.0499 -0.0307
  895CHOL    R310103  11.615  24.965  18.852  0.0650  0.0502 -0.0531
  895CHOL    R410104  11.351  24.865  18.930  0.0978  0.0065  0.0036
  895CHOL    R510105  11.449  25.044  19.006  0.0616  0.0528 -0.0576
  895CHOL    C110106  11.400  24.851  19.332  0.1435  0.1327  0.0022
  895CHOL    C210107  11.510  24.771  19.669 -0.0197 -0.1630  0.2703
  896CHOL   ROH10108  28.211   9.548   5.790 -0.1247  0.1727 -0.0806
  896CHOL    R110109  28.135   9.378   5.577 -0.1619  0.1991 -0.0885
  896CHOL    R210110  28.147   9.458   5.312  0.0219  0.1490 -0.0960
  896CHOL    R310111  28.297   9.232   5.285 -0.1438  0.0252  0.0080
  896CHOL    R410112  28.180   9.277   5.019  0.0685  0.1166 -0.0708
  896CHOL    R510113  28.169   9.094   5.137 -0.1596  0.1273 -0.0741
  896CHOL    C110114  28.340   8.960   4.823 -0.0597 -0.0182  0.0413
  896CHOL    C210115  28.388   9.001   4.339 -0.1715 -0.1882 -0.2089
  897CHOL   ROH10116  34.180  15.925   5.278 -0.1440 -0.2951 -0.0255
  897CHOL    R110117  34.331  15.752   5.112 -0.1083 -0.1807 -0.1131
  897CHOL    R210118  34.359  15.793   4.840  0.0251  0.0571 -0.0636
  897CHOL    R310119  34.624  15.779   4.899 -0.0040 -0.0556  0.0441
  897CHOL    R410120  34.611  15.754   4.607  0.1080  0.0340  0.0295
  897CHOL    R510121  34.710  15.617   4.744  0.0015 -0.0425  0.0326
  897CHOL    C110122  35.006  15.718   4.526  0.1290 -0.0851  0.1846
  897CHOL    C210123  34.999  15.725   4.158 -0.1198  0.0482 -0.0086
  898CHOL   ROH10124  11.901  26.189  18.618 -0.2314 -0.1636  0.0985
  898CHOL    R110125  11.905  26.126  18.894 -0.1015  0.0139  0.1381
  898CHOL    R210126  12.076  26.249  19.073 -0.0793  0.1934 -0.0051
  898CHOL    R310127  11.846  26.303  19.207 -0.0487  0.1913  0.0476
  898CHOL    R410128  12.059  26.385  19.390 -0.0060  0.0023  0.0809
  898CHOL    R510129  11.895  26.248  19.435 -0.0493  0.0324  0.0097
  898CHOL    C110130  11.834  26.514  19.701  0.0651 -0.1110  0.1808
  898CHOL    C210131  11.842  26.711  20.149  0.3773 -0.1835 -0.3028
  899CHOL   ROH10132  11.113  32.153  17.054 -0.0666  0.0205  0.0025
  899CHOL    R110133  11.255  32.308  17.244 -0.0874 -0.0275  0.0570
  899CHOL    R210134  11.259  32.584  17.237  0.0527 -0.0300  0.0269
  899CHOL    R310135  11.173  32.559  17.494 -0.0921  0.0422 -0.0144
  899CHOL    R410136  11.296  32.825  17.482  0.0461 -0.0206  0.0191
  899CHOL    R510137  11.343  32.666  17.624 -0.1061 -0.0282  0.0614
  899CHOL    C110138  11.236  32.942  17.866 -0.0937  0.0513 -0.0239
  899CHOL    C210139  11.400  33.223  17.830 -0.0605  0.0703  0.1213
  900CHOL   ROH10140  32.767  23.761   5.713 -0.0843  0.1240 -0.1741
  900CHOL    R110141  32.860  23.984   5.565  0.0824  0.0801 -0.1362
  900CHOL    R210142  33.126  24.057   5.558  0.1560 -0.1942 -0.2266
  900CHOL    R310143  33.090  24.041   5.289  0.0217 -0.0621 -0.2180
  900CHOL    R410144  33.332  24.203   5.322  0.2056 -0.3199 -0.2622
  900CHOL    R510145  33.155  24.257   5.207  0.2075 -0.0963 -0.1672
  900CHOL    C110146  33.419  24.273   4.932  0.1080 -0.2697 -0.2747
  900CHOL    C210147  33.397  24.533   4.613 -0.1170  0.0260  0.0808
  901CHOL   ROH10148   2.298  25.710   7.479 -0.1401  0.1631  0.0055
  901CHOL    R110149   2.022  25.694   7.538 -0.1201  0.0624  0.0726
  901CHOL    R210150   1.832  25.631   7.347 -0.1664  0.2122  0.0687
  901CHOL    R310151   1.763  25.438   7.526 -0.0820  0.0312 -0.0926
  901CHOL    R410152   1.512  25.507   7.390 -0.1447  0.1629  0.0870
  901CHOL    R510153   1.548  25.505   7.605 -0.0485 -0.0521  0.0710
  901CHOL    C110154   1.262  25.253   7.583 -0.0529 -0.0358 -0.0538
  901CHOL    C210155   1.113  24.936   7.553 -0.3238 -0.1492  0.0581
  902CHOL   ROH10156  31.486  24.271   5.587 -0.2791 -0.1172 -0.0737
  902CHOL    R110157  31.424  24.422   5.355 -0.1175 -0.1509 -0.1405
  902CHOL    R210158  31.541  24.666   5.301 -0.1767 -0.0946 -0.0270
  902CHOL    R310159  31.604  24.547   5.065  0.1187 -0.0722  0.0387
  902CHOL    R410160  31.617  24.835   5.009 -0.1608 -0.0694 -0.0081
  902CHOL    R510161  31.501  24.686   4.899  0.0795 -0.2188 -0.0595
  902CHOL    C110162  31.720  24.821   4.617  0.1259 -0.0337  0.0647
  902CHOL    C210163  31.792  24.956   4.276 -0.0649 -0.4116  0.1141
  903CHOL   ROH10164  11.927   3.438  14.302  0.0076  0.2256  0.0319
  903CHOL    R110165  11.995   3.196  14.432  0.0200  0.1598 -0.0960
  903CHOL    R210166  12.256   3.105  14.450  0.0419  0.2357 -0.0199
  903CHOL    R310167  12.200   3.097  14.716 -0.0975  0.0367 -0.0538
  903CHOL    R410168  12.329   2.840  14.659  0.2850  0.2362 -0.1029
  903CHOL    R510169  12.136   2.870  14.757  0.1875 -0.0710 -0.1959
  903CHOL    C110170  12.319   2.678  15.031  0.2957  0.0496 -0.1833
  903CHOL    C210171  12.562   2.347  15.129  0.2028 -0.1151  0.1655
  904CHOL   ROH10172  27.291  13.170   5.038 -0.0376 -0.0538  0.2043
  904CHOL    R110173  27.078  13.210   4.856 -0.0053 -0.1230  0.1519
  904CHOL    R210174  27.119  13.283   4.593  0.0302  0.0343  0.2022
  904CHOL    R310175  26.968  13.063   4.542  0.2083 -0.0529  0.0433
  904CHOL    R410176  26.973  13.210   4.288  0.1898  0.0723  0.1155
  904CHOL    R510177  26.796  13.142   4.395  0.2018 -0.1086  0.0208
  904CHOL    C110178  26.747  12.961   4.063  0.4504  0.0128 -0.0842
  904CHOL    C210179  26.716  13.264   3.759 -0.2090 -0.1973  0.1611
  905CHOL   ROH10180  20.530  12.962  10.406 -0.0132 -0.2180  0.0256
  905CHOL    R110181  20.684  12.901  10.636  0.0650 -0.0645  0.0144
  905CHOL    R210182  20.936  13.006  10.678  0.0250  0.0683 -0.0772
  905CHOL    R310183  20.828  13.085  10.914  0.0388  0.1021 -0.0819
  905CHOL    R410184  21.117  13.097  10.958  0.0414  0.0989 -0.0973
  905CHOL    R510185  20.972  12.991  11.080  0.0441  0.1190 -0.0765
  905CHOL    C110186  21.121  13.224  11.343  0.0642  0.1483 -0.1135
  905CHOL    C210187  21.386  13.353  11.300  0.1204  0.0854 -0.2242
  906CHOL   ROH10188   9.939  34.620  17.067 -0.1097 -0.1823 -0.0873
  906CHOL    R110189   9.898  34.653  17.345 -0.1171 -0.0050 -0.1089
  906CHOL    R210190  10.101  34.728  17.518 -0.0499 -0.1877 -0.1060
  906CHOL    R310191   9.927  34.925  17.586  0.1895  0.0690 -0.2271
  906CHOL    R410192  10.084  34.878  17.828 -0.0642 -0.1785 -0.1116
  906CHOL    R510193   9.867  34.876  17.812 -0.0561  0.1453 -0.2752
  906CHOL    C110194   9.911  35.151  18.073  0.1524  0.0679 -0.2281
  906CHOL    C210195   9.972   0.040  18.399  0.1260 -0.0669  0.1302
  907CHOL   ROH10196  12.262   7.543  15.144 -0.1015 -0.2136 -0.1692
  907CHOL    R110197  12.306   7.442  15.405 -0.0652 -0.1067 -0.1338
  907CHOL    R210198  12.283   7.600  15.630  0.1199  0.0256 -0.2049
  907CHOL    R310199  12.111   7.404  15.709  0.0259  0.1735 -0.0392
  907CHOL    R410200  12.252   7.483  15.954  0.4729 -0.0888 -0.2106
  907CHOL    R510201  12.233   7.281  15.874  0.1387 -0.0328 -0.2757
  907CHOL    C110202  12.073   7.232  16.217  0.5906 -0.0166 -0.0581
  907CHOL    C210203  12.286   7.251  16.436  0.1601  0.1676  0.1833
  908CHOL   ROH10204   7.967  14.916  17.034  0.2708 -0.1183  0.1869
  908CHOL    R110205   8.221  14.934  16.910  0.2469  0.1733  0.1770
  908CHOL    R210206   8.274  14.823  16.663  0.4547 -0.0592  0.3236
  908CHOL    R310207   8.356  15.075  16.603  0.0068  0.0146 -0.0032
  908CHOL    R410208   8.418  14.917  16.364  0.3485 -0.2056  0.2258
  908CHOL    R510209   8.557  15.043  16.475  0.0957  0.2048  0.0872
  908CHOL    C110210   8.579  15.209  16.133 -0.1337 -0.2214 -0.1383
  908CHOL    C210211   8.817  15.184  15.774  0.1560  0.1384  0.1095
  909CHOL   ROH10212  34.137   5.544   7.310  0.1475 -0.0570  0.0707
  909CHOL    R110213  34.062   5.732   7.507  0.2026 -0.0325  0.0685
  909CHOL    R210214  33.829   5.710   7.653  0.0997  0.1420 -0.0668
  909CHOL    R310215  33.997   5.729   7.865 -0.0012 -0.0529  0.0316
  909CHOL    R410216  33.740   5.829   7.966  0.0420  0.1907 -0.1014
  909CHOL    R510217  33.932   5.931   7.975  0.1385 -0.0020  0.0200
  909CHOL    C110218  33.847   5.915   8.347 -0.0865  0.0362 -0.0293
  909CHOL    C210219  33.541   5.949   8.705  0.0169  0.0510 -0.3341
  910CHOL   ROH10220   4.239  23.709  18.332 -0.0509 -0.3376 -0.0342
  910CHOL    R110221   4.521  23.720  18.348 -0.0626 -0.1722  0.0534
  910CHOL    R210222   4.686  23.621  18.151  0.0577 -0.1567  0.1459
  910CHOL    R310223   4.791  23.871  18.157 -0.0851 -0.0943  0.0827
  910CHOL    R410224   4.959  23.725  17.965 -0.1539  0.0225 -0.0677
  910CHOL    R510225   5.028  23.837  18.139 -0.0778  0.0469 -0.1131
  910CHOL    C110226   5.216  24.022  17.864 -0.4112  0.1850 -0.2514
  910CHOL    C210227   5.484  24.157  17.678 -0.0758 -0.2059  0.2890
  911CHOL   ROH10228  19.201  22.011  12.520 -0.0409  0.3780  0.0952
  911CHOL    R110229  19.376  21.954  12.735  0.0036  0.3538  0.0525
  911CHOL    R210230  19.561  21.750  12.726 -0.1772  0.1871  0.0921
  911CHOL    R310231  19.736  21.948  12.789  0.0232  0.0743 -0.1016
  911CHOL    R410232  19.813  21.724  12.962 -0.3180  0.2211  0.2475
  911CHOL    R510233  19.767  21.927  13.026 -0.1141  0.3658 -0.0559
  911CHOL    C110234  20.124  21.895  13.157 -0.2116  0.1352  0.1561
  911CHOL    C210235  20.403  21.672  13.310  0.0476  0.0367 -0.5449
  912CHOL   ROH10236   4.385  12.257  13.710 -0.2266  0.1097 -0.0795
  912CHOL    R110237   4.611  12.229  13.542 -0.1405  0.1002  0.0374
  912CHOL    R210238   4.691  11.985  13.441 -0.0911  0.0950  0.0892
  912CHOL    R310239   4.675  12.114  13.203  0.0324  0.0847  0.0751
  912CHOL    R410240   4.879  11.906  13.162  0.0557  0.0849  0.1900
  912CHOL    R510241   4.901  12.120  13.123  0.0740  0.0834  0.1927
  912CHOL    C110242   4.973  11.982  12.775  0.2572  0.0692  0.2357
  912CHOL    C210243   5.128  12.114  12.431 -0.2718  0.0541 -0.2416
  913CHOL   ROH10244   6.850  21.031  19.702  0.0301  0.0224  0.0736
  913CHOL    R110245   7.068  21.026  19.521  0.0938  0.0740  0.1493
  913CHOL    R210246   7.043  21.097  19.256  0.1025 -0.2157  0.0701
  913CHOL    R310247   7.246  21.267  19.315 -0.0946  0.0600 -0.0326
  913CHOL    R410248   7.266  21.226  19.025  0.1997 -0.4198  0.0490
  913CHOL    R510249   7.425  21.198  19.172  0.0944 -0.0368  0.2447
  913CHOL    C110250   7.587  21.461  18.947  0.0711 -0.2798 -0.0595
  913CHOL    C210251   7.558  21.827  18.747  0.1364 -0.0481 -0.1773
  914CHOL   ROH10252  11.171  17.854  19.131  0.0896 -0.1388  0.3058
  914CHOL    R110253  11.295  18.108  19.131 -0.1309 -0.0303  0.3656
  914CHOL    R210254  11.518  18.165  18.978 -0.0415  0.1318  0.5536
  914CHOL    R310255  11.363  18.369  18.887 -0.1384 -0.0217  0.3725
  914CHOL    R410256  11.638  18.461  18.847 -0.1823  0.1284  0.4158
  914CHOL    R510257  11.480  18.567  18.953 -0.2877  0.0938  0.2939
  914CHOL    C110258  11.563  18.825  18.684 -0.3554 -0.0175  0.1659
  914CHOL    C210259  11.715  19.228  18.590  0.0793 -0.4340  0.0751
  915CHOL   ROH10260   7.573  30.264  17.085  0.2755 -0.2041  0.0979
  915CHOL    R110261   7.474  30.147  17.323  0.1307 -0.1726  0.0542
  915CHOL    R210262   7.525  30.253  17.573  0.1599 -0.2606  0.0867
  915CHOL    R310263   7.254  30.247  17.595  0.1493 -0.0505  0.0242
  915CHOL    R410264   7.349  30.311  17.865  0.1462 -0.3513  0.0959
  915CHOL    R510265   7.214  30.149  17.809  0.0214 -0.1926 -0.0643
  915CHOL    C110266   6.992  30.338  18.056  0.1284 -0.2072  0.0431
  915CHOL    C210267   6.926  30.323  18.497  0.2720  0.0138 -0.1386
  916CHOL   ROH10268  18.447  16.771  16.740  0.1152  0.0651 -0.0118
  916CHOL    R110269  18.254  16.821  16.540  0.1495  0.0504 -0.0494
  916CHOL    R210270  18.308  16.798  16.270  0.2023  0.0500 -0.0398
  916CHOL    R310271  18.092  16.633  16.274  0.2129  0.0357 -0.0774
  916CHOL    R410272  18.052  16.803  16.038  0.1822  0.1112 -0.0158
  916CHOL    R510273  17.911  16.771  16.201  0.1980  0.0479 -0.0156
  916CHOL    C110274  17.700  16.650  15.906  0.1801  0.1328 -0.0378
  916CHOL    C210275  17.709  16.676  15.557  0.0660  0.1013 -0.2273
  917CHOL   ROH10276   1.188  21.777   8.677 -0.1365 -0.0027  0.0011
  917CHOL    R110277   1.340  21.812   8.441 -0.1979  0.0343 -0.0335
  917CHOL    R210278   1.264  21.985   8.239 -0.2303  0.0976  0.0300
  917CHOL    R310279   1.513  22.088   8.276 -0.2052  0.0511 -0.0121
  917CHOL    R410280   1.446  22.154   7.999 -0.1513 -0.1190 -0.0638
  917CHOL    R510281   1.625  22.050   8.068 -0.1909 -0.1230  0.0277
  917CHOL    C110282   1.786  22.349   7.894 -0.0817 -0.2891 -0.1579
  917CHOL    C210283   1.984  22.516   7.526  0.0198  0.0293  0.5833
  918CHOL   ROH10284  32.491  10.157   6.582  0.1116  0.1540 -0.0483
  918CHOL    R110285  32.528   9.918   6.433  0.0576  0.1129  0.0044
  918CHOL    R210286  32.763   9.862   6.299  0.0764 -0.0094  0.0908
  918CHOL    R310287  32.753   9.633   6.445 -0.0680  0.0176  0.1253
  918CHOL    R410288  32.946   9.577   6.231  0.1102 -0.0378  0.2952
  918CHOL    R510289  32.770   9.458   6.282  0.0546 -0.0135  0.1687
  918CHOL    C110290  33.043   9.195   6.328 -0.0051 -0.0291  0.4465
  918CHOL    C210291  33.177   8.802   6.268  0.0848 -0.0159  0.2923
  919CHOL   ROH10292  21.307   5.230   9.783 -0.0550 -0.1400  0.1716
  919CHOL    R110293  21.431   5.117  10.011  0.0559 -0.2645  0.0506
  919CHOL    R210294  21.652   4.953   9.994  0.2700  0.0378 -0.1217
  919CHOL    R310295  21.758   5.132  10.169  0.0152 -0.0395  0.1155
  919CHOL    R410296  21.898   4.880  10.227  0.3817  0.0785 -0.2262
  919CHOL    R510297  21.792   5.006  10.370  0.2012 -0.2636 -0.0523
  919CHOL    C110298  22.140   5.006  10.526  0.2076  0.0297 -0.0643
  919CHOL    C210299  22.093   4.927  10.860 -0.0598 -0.1152  0.0993
  920CHOL   ROH10300   7.282  18.230  13.895 -0.1317  0.3055 -0.1239
  920CHOL    R110301   7.188  18.028  14.069  0.0535  0.1169 -0.2407
  920CHOL    R210302   7.061  18.084  14.308  0.2610 -0.1395 -0.0665
  920CHOL    R310303   6.867  17.924  14.205  0.1894 -0.0620 -0.0528
  920CHOL    R410304   6.819  17.922  14.495  0.3744 -0.2584 -0.0221
  920CHOL    R510305   6.843  17.748  14.366  0.2862 -0.1717 -0.1581
  920CHOL    C110306   6.496  17.678  14.507  0.3731 -0.2548  0.0165
  920CHOL    C210307   6.534  17.341  14.813  0.0621 -0.2191 -0.0388
  921CHOL   ROH10308  20.765  14.243   8.864  0.0316 -0.0066  0.1815
  921CHOL    R110309  21.038  14.248   8.787  0.0183 -0.1115  0.1275
  921CHOL    R210310  21.199  14.469   8.824  0.0429 -0.0825 -0.1408
  921CHOL    R310311  21.359  14.291   8.953  0.0513  0.0435  0.0249
  921CHOL    R410312  21.539  14.509   8.875  0.0631 -0.0722 -0.2810
  921CHOL    R510313  21.565  14.297   8.831  0.0191 -0.1292 -0.0405
  921CHOL    C110314  21.886  14.364   9.025  0.0826  0.0522 -0.2071
  921CHOL    C210315  22.075  14.771   9.063 -0.1799  0.4449 -0.0054
  922CHOL   ROH10316  24.221  11.724  10.739 -0.1195  0.1641  0.1602
  922CHOL    R110317  24.057  11.629  10.529  0.0591  0.1682  0.0166
  922CHOL    R210318  23.818  11.498  10.575  0.2239 -0.2142 -0.1817
  922CHOL    R310319  23.718  11.690  10.410  0.0011 -0.1649  0.0098
  922CHOL    R410320  23.534  11.464  10.381  0.1823 -0.2948 -0.1065
  922CHOL    R510321  23.636  11.569  10.220  0.0345 -0.0778 -0.0581
  922CHOL    C110322  23.274  11.625  10.115 -0.0507 -0.2953  0.1170
  922CHOL    C210323  22.942  11.792   9.887 -0.2158  0.0973  0.2669
  923CHOL   ROH10324  24.638  24.555   8.431 -0.1842 -0.2397 -0.1625
  923CHOL    R110325  24.423  24.548   8.248 -0.1663  0.0048 -0.1953
  923CHOL    R210326  24.160  24.581   8.325 -0.1558  0.1094 -0.2075
  923CHOL    R310327  24.162  24.776   8.136 -0.0190  0.2301 -0.0827
  923CHOL    R410328  23.878  24.732   8.193 -0.0685  0.0854 -0.4242
  923CHOL    R510329  23.973  24.727   7.997  0.1516  0.2447 -0.3240
  923CHOL    C110330  23.717  25.003   7.938  0.1113  0.1845 -0.4334
  923CHOL    C210331  23.499  25.185   7.634  0.1828  0.1229 -0.4257
  924CHOL   ROH10332  20.974  14.325  14.183 -0.0045 -0.1570  0.1068
  924CHOL    R110333  20.800  14.420  13.981 -0.0118 -0.0898  0.1462
  924CHOL    R210334  20.745  14.276  13.751 -0.0171 -0.0098  0.1021
  924CHOL    R310335  20.487  14.313  13.829 -0.0172 -0.0388  0.1182
  924CHOL    R410336  20.469  14.236  13.547 -0.0420 -0.3708  0.2016
  924CHOL    R510337  20.381  14.413  13.639 -0.1032 -0.3014  0.0219
  924CHOL    C110338  20.067  14.247  13.501 -0.0571 -0.6079  0.2745
  924CHOL    C210339  19.685  14.259  13.470 -0.0400  0.2973  0.3472
  925CHOL   ROH10340  11.744  11.775  17.930  0.1332 -0.0674 -0.0070
  925CHOL    R110341  11.938  11.846  17.737  0.1630 -0.0381  0.0338
  925CHOL    R210342  12.087  11.658  17.600  0.0259 -0.0257 -0.1313
  925CHOL    R310343  11.991  11.788  17.381  0.0936  0.2164 -0.0193
  925CHOL    R410344  12.256  11.692  17.300 -0.1352 -0.2457 -0.2493
  925CHOL    R510345  12.183  11.897  17.288  0.2265 -0.1033 -0.1303
  925CHOL    C110346  12.265  11.834  16.921 -0.1655 -0.1464 -0.2128
  925CHOL    C210347  12.317  12.121  16.720  0.1268  0.3457  0.1513
  926CHOL   ROH10348  20.652  33.442  12.222  0.0614  0.0952 -0.1305
  926CHOL    R110349  20.608  33.379  11.950  0.0706 -0.0614 -0.0964
  926CHOL    R210350  20.370  33.273  11.858  0.0013  0.0709 -0.0743
  926CHOL    R310351  20.378  33.484  11.688  0.2164 -0.0546 -0.2223
  926CHOL    R410352  20.232  33.276  11.541 -0.1896  0.0652  0.0085
  926CHOL    R510353  20.408  33.385  11.472 -0.0664 -0.2464 -0.1750
  926CHOL    C110354  20.160  33.477  11.197 -0.0994 -0.0575 -0.0824
  926CHOL    C210355  20.027  33.553  10.859  0.2514 -0.0686 -0.0955
  927CHOL   ROH10356   6.011  15.829  11.903 -0.0074 -0.0751  0.0621
  927CHOL    R110357   5.745  15.857  11.997 -0.0106  0.0634  0.0143
  927CHOL    R210358   5.635  15.685  12.183 -0.2051 -0.0105 -0.1643
  927CHOL    R310359   5.583  15.916  12.318 -0.0459 -0.0835  0.0232
  927CHOL    R410360   5.347  15.749  12.363 -0.2260  0.1020 -0.2379
  927CHOL    R510361   5.349  15.953  12.285  0.0040  0.1714 -0.0504
  927CHOL    C110362   5.130  16.003  12.594 -0.0888  0.0993 -0.1046
  927CHOL    C210363   4.834  16.238  12.455 -0.0145 -0.2708  0.2143
  928CHOL   ROH10364   8.464  30.616  17.159  0.0147  0.0774 -0.0779
  928CHOL    R110365   8.329  30.553  17.400 -0.0492  0.0103 -0.1303
  928CHOL    R210366   8.448  30.582  17.648 -0.0411 -0.2583 -0.1002
  928CHOL    R310367   8.227  30.733  17.700  0.0723 -0.1224 -0.0097
  928CHOL    R410368   8.342  30.676  17.964  0.1661 -0.1556 -0.0608
  928CHOL    R510369   8.137  30.638  17.901  0.1143 -0.0429  0.0456
  928CHOL    C110370   8.074  30.871  18.197  0.3935  0.0317  0.0479
  928CHOL    C210371   7.857  30.872  18.538  0.2380 -0.1620 -0.0423
  929CHOL   ROH10372  34.727  29.179  13.263  0.0133 -0.1594 -0.2144
  929CHOL    R110373  34.974  29.159  13.126  0.0031  0.0534 -0.2677
  929CHOL    R210374  35.079  29.366  12.977 -0.0669  0.2468 -0.0540
  929CHOL    R310375  35.296  29.327  13.136 -0.0394  0.1262 -0.1206
  929CHOL    R410376   0.020  29.440  12.888 -0.0876  0.3662 -0.0318
  929CHOL    R510377   0.083  29.255  12.985 -0.0523  0.2846 -0.2102
  929CHOL    C110378   0.413  29.446  12.985 -0.0742  0.3226 -0.0811
  929CHOL    C210379   0.685  29.643  13.074  0.2918 -0.0846 -0.5520
  930CHOL   ROH10380   1.662  30.154  10.808  0.2108 -0.0182  0.1292
  930CHOL    R110381   1.479  30.003  10.961  0.2099  0.0238  0.1695
  930CHOL    R210382   1.346  30.108  11.180  0.0756  0.1375  0.0336
  930CHOL    R310383   1.126  30.022  11.046  0.1661 -0.0578  0.0072
  930CHOL    R410384   1.025  30.111  11.306  0.0301  0.0431 -0.0786
  930CHOL    R510385   0.991  29.917  11.214  0.1644 -0.0301  0.0239
  930CHOL    C110386   0.630  30.033  11.254  0.0884 -0.1956 -0.1685
  930CHOL    C210387   0.379  29.880  11.462  0.0784  0.3362 -0.1056
  931CHOL   ROH10388   6.255  28.589  16.898  0.0556 -0.1965 -0.1377
  931CHOL    R110389   6.041  28.619  17.081  0.0334 -0.1114 -0.1781
  931CHOL    R210390   5.915  28.404  17.199  0.1527 -0.0503  0.0596
  931CHOL    R310391   5.977  28.534  17.429  0.0705  0.2440 -0.0828
  931CHOL    R410392   5.720  28.404  17.485  0.2435 -0.0223  0.1221
  931CHOL    R510393   5.767  28.615  17.511 -0.0059  0.0631 -0.0923
  931CHOL    C110394   5.666  28.527  17.868  0.2191  0.2705  0.0247
  931CHOL    C210395   5.538  28.459  18.104  0.1535  0.0266 -0.0983
  932CHOL   ROH10396   9.137  32.938  16.753 -0.0209 -0.1231  0.0502
  932CHOL    R110397   8.919  33.003  16.921 -0.0233  0.0195 -0.0071
  932CHOL    R210398   8.890  32.899  17.175 -0.1489  0.0512 -0.0071
  932CHOL    R310399   8.873  33.161  17.246 -0.0082  0.0651 -0.0280
  932CHOL    R410400   8.845  33.013  17.498 -0.0917  0.1011 -0.0172
  932CHOL    R510401   8.708  33.164  17.420 -0.0086  0.1686 -0.0307
  932CHOL    C110402   8.803  33.326  17.753  0.0738  0.1442 -0.0423
  932CHOL    C210403   8.453  33.181  17.965  0.1849 -0.1299 -0.0615
  933CHOL   ROH10404  15.640  26.597  17.115  0.0404  0.1674  0.0577
  933CHOL    R110405  15.719  26.806  17.290  0.1086  0.1284  0.0732
  933CHOL    R210406  15.857  26.759  17.524  0.1433  0.0700  0.0404
  933CHOL    R310407  16.033  26.938  17.419  0.1559  0.0559  0.0352
  933CHOL    R410408  16.084  26.944  17.708  0.2783 -0.0725  0.0187
  933CHOL    R510409  16.040  27.115  17.580  0.2777 -0.0080  0.1024
  933CHOL    C110410  16.381  27.220  17.716  0.3681 -0.1692  0.0019
  933CHOL    C210411  16.720  27.440  17.851 -0.0414  0.0346  0.2622
  934CHOL   ROH10412   6.600  10.284  16.759  0.0955 -0.2386 -0.0634
  934CHOL    R110413   6.720  10.440  16.555 -0.1136 -0.0418 -0.0385
  934CHOL    R210414   6.987  10.510  16.560 -0.1603  0.1432 -0.1325
  934CHOL    R310415   6.988  10.396  16.312 -0.2017  0.2796 -0.1956
  934CHOL    R410416   7.203  10.596  16.303  0.0402  0.0330 -0.0023
  934CHOL    R510417   7.036  10.578  16.164  0.0700  0.3078 -0.0767
  934CHOL    C110418   7.328  10.540  15.922  0.1183  0.0968  0.0140
  934CHOL    C210419   7.648  10.433  15.727  0.0141 -0.2493 -0.0179
  935CHOL   ROH10420   9.274   2.100  18.889 -0.0489 -0.0559 -0.2618
  935CHOL    R110421   9.526   2.093  18.760  0.0196  0.0137 -0.1337
  935CHOL    R210422   9.613   1.873  18.617  0.1196  0.0679 -0.1561
  935CHOL    R310423   9.647   2.055  18.418  0.2016  0.1325 -0.0827
  935CHOL    R410424   9.792   1.817  18.327  0.2287  0.1556 -0.1060
  935CHOL    R510425   9.872   2.019  18.343  0.2301  0.1485 -0.0090
  935CHOL    C110426   9.928   1.955  17.971  0.3690  0.2672 -0.0085
  935CHOL    C210427   9.739   1.944  17.716  0.4638  0.4022  0.0652
  936CHOL   ROH10428  28.517  17.488   3.399  0.1725  0.1091 -0.1331
  936CHOL    R110429  28.408  17.285   3.234  0.0710  0.0601 -0.0060
  936CHOL    R210430  28.189  17.328   3.072  0.0562  0.0513  0.0118
  936CHOL    R310431  28.354  17.234   2.878 -0.0119 -0.1096  0.0303
  936CHOL    R410432  28.099  17.281   2.742  0.0319  0.0875  0.0132
  936CHOL    R510433  28.214  17.096   2.742 -0.1219 -0.0093  0.0399
  936CHOL    C110434  28.203  17.165   2.367 -0.0461 -0.0422  0.0312
  936CHOL    C210435  27.956  17.203   2.043 -0.1722  0.4157 -0.2726
  937CHOL   ROH10436  13.952   8.850  17.972  0.0890  0.0802 -0.0561
  937CHOL    R110437  13.787   8.917  17.753  0.1793  0.2038 -0.0872
  937CHOL    R210438  13.887   9.013  17.514  0.3090 -0.0193 -0.1228
  937CHOL    R310439  13.746   8.806  17.409  0.0477  0.1172 -0.0444
  937CHOL    R410440  13.738   9.015  17.203  0.0241  0.1740  0.0122
  937CHOL    R510441  13.567   8.912  17.290  0.0203  0.2888  0.1444
  937CHOL    C110442  13.518   8.821  16.922 -0.3870  0.4147  0.1645
  937CHOL    C210443  13.175   8.832  16.704 -0.1701 -0.0138 -0.3109
  938CHOL   ROH10444  29.460   8.918   6.331  0.1998 -0.1649  0.3123
  938CHOL    R110445  29.510   8.654   6.244 -0.1072 -0.1902  0.2066
  938CHOL    R210446  29.339   8.518   6.075 -0.1149  0.1871 -0.0954
  938CHOL    R310447  29.563   8.486   5.925  0.0257 -0.0680  0.1637
  938CHOL    R410448  29.360   8.324   5.790 -0.0700  0.3445 -0.1996
  938CHOL    R510449  29.556   8.257   5.855 -0.2542 -0.0139  0.0037
  938CHOL    C110450  29.583   8.182   5.482  0.0884  0.1969 -0.0169
  938CHOL    C210451  29.485   8.044   5.102  0.0382 -0.2413 -0.1250
  939CHOL   ROH10452   7.558  10.934  13.101  0.1176 -0.2321  0.1802
  939CHOL    R110453   7.431  10.920  13.353 -0.0325 -0.1656  0.1091
  939CHOL    R210454   7.422  11.135  13.527  0.0245 -0.1751  0.1238
  939CHOL    R310455   7.155  11.088  13.520 -0.0057  0.0168 -0.0288
  939CHOL    R410456   7.200  11.222  13.777 -0.0365 -0.1347  0.0555
  939CHOL    R510457   7.098  11.032  13.745 -0.1557 -0.0488 -0.0827
  939CHOL    C110458   6.819  11.229  13.915 -0.1004  0.0687 -0.1277
  939CHOL    C210459   6.837  11.351  14.263  0.2425 -0.0960  0.0760
  940CHOL   ROH10460  23.607  29.752   9.963 -0.2277 -0.0498 -0.0004
  940CHOL    R110461  23.388  29.826   9.798 -0.1965 -0.0206 -0.0290
  940CHOL    R210462  23.397  29.809   9.523 -0.1136  0.1110 -0.0346
  940CHOL    R310463  23.172  29.660   9.557 -0.0914  0.0456 -0.1694
  940CHOL    R410464  23.185  29.712   9.268  0.0206  0.1215 -0.1513
  940CHOL    R510465  23.016  29.752   9.400 -0.0467  0.0458 -0.2134
  940CHOL    C110466  22.850  29.516   9.152  0.1200  0.0662 -0.3455
  940CHOL    C210467  22.831  29.850   8.911 -0.0409 -0.0748  0.0406
  941CHOL   ROH10468  26.797   9.650   6.780  0.1094  0.0338 -0.0305
  941CHOL    R110469  26.745   9.507   6.542  0.1451 -0.0159 -0.0088
  941CHOL    R210470  26.660   9.245   6.541  0.0525  0.0136  0.0355
  941CHOL    R310471  26.458   9.344   6.389  0.1426  0.0418 -0.0655
  941CHOL    R410472  26.451   9.055   6.340  0.0179  0.0221  0.0632
  941CHOL    R510473  26.463   9.212   6.189  0.1352 -0.0508 -0.0045
  941CHOL    C110474  26.141   9.039   6.081  0.0827  0.0535 -0.0155
  941CHOL    C210475  25.843   8.836   5.867 -0.1416  0.1249  0.0954
  942CHOL   ROH10476   1.847  27.617   9.570 -0.0647  0.1482 -0.2231
  942CHOL    R110477   1.579  27.675   9.504 -0.0874  0.2510 -0.0447
  942CHOL    R210478   1.374  27.492   9.536 -0.0458  0.1306 -0.4316
  942CHOL    R310479   1.260  27.693   9.680 -0.0623 -0.2170  0.0555
  942CHOL    R410480   1.034  27.550   9.560 -0.0432  0.1478 -0.4365
  942CHOL    R510481   1.074  27.764   9.546  0.0157  0.1841  0.1508
  942CHOL    C110482   0.729  27.772   9.708 -0.0571 -0.1686  0.0178
  942CHOL    C210483   0.584  27.853  10.129  0.1655  0.0641 -0.1867
  943CHOL   ROH10484   1.610  22.224   4.135  0.1608 -0.1225 -0.0438
  943CHOL    R110485   1.475  22.116   4.360  0.2183 -0.1339 -0.0145
  943CHOL    R210486   1.201  22.126   4.387  0.2306 -0.0746  0.0888
  943CHOL    R310487   1.227  21.857   4.419  0.1795 -0.0870  0.0281
  943CHOL    R410488   0.955  21.917   4.511  0.2496 -0.0294  0.2026
  943CHOL    R510489   1.109  21.810   4.622  0.2892 -0.0889  0.0922
  943CHOL    C110490   0.836  21.544   4.614  0.2125 -0.0146  0.2120
  943CHOL    C210491   0.490  21.537   4.809 -0.0872 -0.2791  0.2333
  944CHOL   ROH10492  14.193  33.229  14.533  0.1105  0.1708 -0.0497
  944CHOL    R110493  14.316  33.385  14.735  0.2362  0.0813 -0.0564
  944CHOL    R210494  14.590  33.394  14.770  0.2561  0.0228 -0.1873
  944CHOL    R310495  14.552  33.663  14.748  0.2898  0.0367 -0.0783
  944CHOL    R410496  14.805  33.635  14.894  0.3012 -0.0534 -0.1168
  944CHOL    R510497  14.631  33.751  14.956  0.3242 -0.0546 -0.0528
  944CHOL    C110498  14.894  34.027  14.945  0.3593 -0.0851  0.0267
  944CHOL    C210499  14.837  34.331  14.983  0.3432 -0.0346  0.0293
  945CHOL   ROH10500  31.742   3.799   6.795 -0.0069 -0.1598  0.1254
  945CHOL    R110501  31.649   3.950   7.016  0.0166 -0.0435  0.0562
  945CHOL    R210502  31.525   3.834   7.234 -0.2186  0.1006  0.0024
  945CHOL    R310503  31.717   3.967   7.373 -0.1649 -0.0702  0.0922
  945CHOL    R410504  31.482   3.973   7.547 -0.1657 -0.0736  0.0872
  945CHOL    R510505  31.600   4.144   7.482 -0.0887 -0.0861  0.1984
  945CHOL    C110506  31.637   4.178   7.860 -0.0851 -0.3353  0.2208
  945CHOL    C210507  31.365   4.452   7.832 -0.1027  0.0773  0.0046
  946CHOL   ROH10508  18.032   4.000  15.722  0.1612  0.1878  0.0903
  946CHOL    R110509  18.068   4.112  15.464  0.1940 -0.0319 -0.0022
  946CHOL    R210510  17.958   4.001  15.237 -0.0115 -0.0718  0.1143
  946CHOL    R310511  17.854   4.250  15.204  0.2516  0.0218 -0.0211
  946CHOL    R410512  17.824   4.121  14.942 -0.1125 -0.1784  0.1164
  946CHOL    R510513  17.920   4.313  14.982  0.1451 -0.2524 -0.1328
  946CHOL    C110514  17.649   4.425  14.739  0.0756 -0.1526 -0.0095
  946CHOL    C210515  17.586   4.553  14.395 -0.0052  0.2859 -0.1500
  947CHOL   ROH10516   4.074  32.872  17.316 -0.0892  0.0503  0.1345
  947CHOL    R110517   4.076  32.758  17.057 -0.0843  0.1118  0.1070
  947CHOL    R210518   4.251  32.841  16.860 -0.1309  0.2108  0.1071
  947CHOL    R310519   4.314  32.577  16.850 -0.0526  0.2323  0.0380
  947CHOL    R410520   4.405  32.685  16.593 -0.2292  0.2945  0.0019
  947CHOL    R510521   4.272  32.515  16.622 -0.1589  0.2480  0.0528
  947CHOL    C110522   4.554  32.347  16.427 -0.2130  0.3620 -0.1245
  947CHOL    C210523   4.862  32.343  16.246 -0.0697 -0.1769  0.3325
  948CHOL   ROH10524   2.476  22.764  11.379  0.1001 -0.1095  0.1089
  948CHOL    R110525   2.618  22.936  11.205  0.1556 -0.2672 -0.0022
  948CHOL    R210526   2.726  23.176  11.288 -0.0259 -0.1066 -0.2263
  948CHOL    R310527   2.955  23.072  11.184  0.1076 -0.1333  0.0889
  948CHOL    R410528   2.972  23.359  11.129 -0.0414 -0.2071 -0.3674
  948CHOL    R510529   2.992  23.198  10.984  0.1544 -0.4337 -0.0948
  948CHOL    C110530   3.330  23.369  10.939  0.0748 -0.2906 -0.1535
  948CHOL    C210531   3.598  23.579  11.128  0.1911  0.0801 -0.2606
  949CHOL   ROH10532  17.477  16.958  14.149 -0.3606 -0.2571  0.0575
  949CHOL    R110533  17.625  16.811  14.340 -0.3325 -0.1448  0.1227
  949CHOL    R210534  17.893  16.751  14.307 -0.3713 -0.2882  0.0500
  949CHOL    R310535  17.916  16.869  14.550 -0.2084 -0.0722 -0.0683
  949CHOL    R410536  18.174  16.736  14.508 -0.2487 -0.1312 -0.1078
  949CHOL    R510537  18.043  16.713  14.681 -0.1425  0.0341 -0.0062
  949CHOL    C110538  18.359  16.838  14.854 -0.0239  0.1626 -0.3106
  949CHOL    C210539  18.478  17.033  15.190  0.1775  0.1203  0.0545
  950CHOL   ROH10540   0.290  23.652   4.839  0.0216 -0.0120  0.1242
  950CHOL    R110541   0.027  23.591   4.925  0.1526 -0.1869  0.4083
  950CHOL    R210542  35.199  23.575   4.750 -0.1499  0.3333  0.7143
  950CHOL    R310543  35.168  23.329   4.863 -0.0037  0.0269  0.1077
  950CHOL    R410544  34.908  23.389   4.741 -0.2144  0.4333  0.7353
  950CHOL    R510545  34.944  23.331   4.948  0.1488 -0.1421  0.5222
  950CHOL    C110546  34.709  23.050   4.841 -0.1146  0.2043  0.1781
  950CHOL    C210547  34.605  22.660   4.799 -0.0575 -0.0691  0.0126
  951CHOL   ROH10548  33.408  10.342   7.090 -0.2210  0.3798 -0.1203
  951CHOL    R110549  33.563  10.426   6.869 -0.0149  0.1064 -0.0829
  951CHOL    R210550  33.792  10.294   6.789 -0.1309 -0.1986  0.0788
  951CHOL    R310551  33.665  10.286   6.549 -0.0273 -0.1465  0.0225
  951CHOL    R410552  33.950  10.261   6.483  0.0057 -0.0437  0.1319
  951CHOL    R510553  33.810  10.407   6.401  0.0011 -0.0531  0.1267
  951CHOL    C110554  33.923  10.234   6.079  0.1828  0.0954  0.1100
  951CHOL    C210555  34.217  10.421   5.762 -0.1511 -0.2115 -0.0104
  952DPPC   NC310556  16.942  19.783  14.354  0.0373 -0.2667  0.2590
  952DPPC   PO410557  17.187  19.590  14.041 -0.0005  0.3722  0.1113
  952DPPC   GL110558  17.385  19.550  14.428 -0.1273  0.2609  0.0819
  952DPPC   GL210559  17.388  19.776  14.656 -0.0010  0.3744 -0.0518
  952DPPC   C1A10560  17.522  19.275  14.688  0.1465  0.1465 -0.0500
  952DPPC   C2A10561  17.709  19.136  15.099  0.0203 -0.0352  0.0519
  952DPPC   C3A10562  18.017  19.020  15.442  0.0522  0.0302 -0.2238
  952DPPC   C4A10563  18.124  18.994  15.873  0.0105 -0.1232  0.0395
  952DPPC   C1B10564  17.607  19.663  14.976 -0.0846  0.2775 -0.0303
  952DPPC   C2B10565  17.835  19.561  15.321 -0.1296 -0.0047 -0.0532
  952DPPC   C3B10566  17.757  19.453  15.703  0.2262 -0.0579 -0.1455
  952DPPC   C4B10567  17.834  19.426  16.146  0.0635 -0.1886 -0.1835
  953DPPC   NC310568  28.478  12.041   0.795  0.3324  0.3270  0.0510
  953DPPC   PO410569  28.151  11.702   0.820  0.1845  0.2434  0.3329
  953DPPC   GL110570  28.214  11.984   1.212  0.0601 -0.3285  0.1984
  953DPPC   GL210571  27.957  11.962   1.498  0.0205 -0.0877 -0.2732
  953DPPC   C1A10572  28.331  12.301   1.482  0.0395  0.0493 -0.0974
  953DPPC   C2A10573  28.328  12.448   1.931 -0.3327 -0.0968  0.1511
  953DPPC   C3A10574  28.159  12.507   2.310  0.0152  0.2096  0.0538
  953DPPC   C4A10575  28.186  12.757   2.652 -0.0104  0.0760 -0.2725
  953DPPC   C1B10576  27.879  12.331   1.800  0.0871  0.3125  0.0930
  953DPPC   C2B10577  27.692  12.550   2.056  0.2342  0.1963 -0.1746
  953DPPC   C3B10578  27.684  12.729   2.529  0.1982 -0.0712  0.1238
  953DPPC   C4B10579  27.483  12.490   2.784 -0.0723 -0.1047 -0.0398
  954DPPC   NC310580  17.562   7.457  12.975 -0.1507  0.0939 -0.0985
  954DPPC   PO410581  17.597   7.708  13.284 -0.1750 -0.0133  0.0025
  954DPPC   GL110582  17.462   7.435  13.687  0.0075 -0.1160 -0.1219
  954DPPC   GL210583  17.192   7.274  14.060  0.0828 -0.1518 -0.0166
  954DPPC   C1A10584  17.635   7.254  14.176 -0.2208 -0.0900  0.0543
  954DPPC   C2A10585  17.619   6.774  14.208  0.0641 -0.1532 -0.0318
  954DPPC   C3A10586  17.367   6.581  14.529 -0.1598  0.4404  0.0165
  954DPPC   C4A10587  17.226   6.540  14.914 -0.1208 -0.0532  0.2496
  954DPPC   C1B10588  17.215   7.091  14.423  0.1780  0.0981  0.1167
  954DPPC   C2B10589  17.245   7.051  14.852  0.0932  0.2755 -0.0770
  954DPPC   C3B10590  17.399   6.868  15.227 -0.0381  0.0337  0.0568
  954DPPC   C4B10591  17.110   6.751  15.587  0.1198 -0.1853  0.1889
  955DPPC   NC310592  17.258   6.678  13.360  0.0766  0.1146 -0.0109
  955DPPC   PO410593  17.221   7.095  13.239 -0.0748  0.2715  0.3108
  955DPPC   GL110594  17.045   7.035  13.631  0.0377 -0.0313  0.3029
  955DPPC   GL210595  17.458   6.941  13.744 -0.1877 -0.0178 -0.0479
  955DPPC   C1A10596  16.659   6.923  13.794 -0.1540  0.0984 -0.0878
  955DPPC   C2A10597  16.768   6.978  14.219 -0.0622 -0.0618  0.0293
  955DPPC   C3A10598  16.835   6.752  14.664  0.0145  0.0325  0.0617
  955DPPC   C4A10599  16.885   6.794  15.147  0.1211  0.1774 -0.0422
  955DPPC   C1B10600  17.144   6.754  14.053  0.2419  0.3279 -0.2888
  955DPPC   C2B10601  16.969   6.484  14.243 -0.5521  0.3422  0.3167
  955DPPC   C3B10602  17.076   6.138  14.454  0.2093 -0.1188  0.0685
  955DPPC   C4B10603  17.457   6.108  14.683  0.2331 -0.1516 -0.0581
  956DPPC   NC310604   5.207  17.646   7.614  0.2595 -0.1986 -0.0055
  956DPPC   PO410605   5.129  17.331   7.892 -0.1334  0.1890  0.0449
  956DPPC   GL110606   4.633  17.344   8.055  0.4275 -0.0633  0.0332
  956DPPC   GL210607   4.682  17.597   8.267  0.3126 -0.1326 -0.1200
  956DPPC   C1A10608   4.117  17.468   8.054  0.1470 -0.0063 -0.0237
  956DPPC   C2A10609   3.717  17.599   8.202  0.0793  0.1029 -0.2579
  956DPPC   C3A10610   3.562  17.980   8.246 -0.1546 -0.3487  0.0408
  956DPPC   C4A10611   3.633  18.379   8.127  0.1010  0.1965  0.0784
  956DPPC   C1B10612   4.515  17.687   8.707 -0.4012 -0.0676  0.2714
  956DPPC   C2B10613   4.100  17.589   8.921 -0.2486 -0.0584  0.0964
  956DPPC   C3B10614   4.087  17.530   9.386  0.0273  0.0619 -0.0510
  956DPPC   C4B10615   4.304  17.704   9.717 -0.1902 -0.3447  0.3873
  957DPPC   NC310616  11.747  25.912  17.885 -0.1089 -0.0589  0.0114
  957DPPC   PO410617  11.995  25.884  18.238  0.0102  0.0311  0.0857
  957DPPC   GL110618  12.265  25.893  18.554  0.0765 -0.2235 -0.1048
  957DPPC   GL210619  12.419  26.062  18.650 -0.1566  0.2416  0.2588
  957DPPC   C1A10620  12.216  25.752  18.985  0.1383  0.1917 -0.3900
  957DPPC   C2A10621  11.913  25.781  19.303  0.2529  0.1402 -0.3023
  957DPPC   C3A10622  11.558  25.872  19.493 -0.2703 -0.3983  0.1748
  957DPPC   C4A10623  11.593  26.115  19.830 -0.3771 -0.2682 -0.1629
  957DPPC   C1B10624  12.608  26.017  18.967  0.0934  0.0074 -0.2205
  957DPPC   C2B10625  12.377  26.009  19.397 -0.2861 -0.0823 -0.2776
  957DPPC   C3B10626  12.228  25.948  19.750 -0.1571  0.2980  0.0912
  957DPPC   C4B10627  12.102  26.171  20.082 -0.3740  0.0961  0.1357
  958DPPC   NC310628  16.131  27.366  14.587 -0.0893 -0.0802  0.2687
  958DPPC   PO410629  15.967  27.259  15.014  0.2629 -0.0624 -0.1545
  958DPPC   GL110630  16.353  27.147  15.187  0.0453  0.1511 -0.0984
  958DPPC   GL210631  16.454  26.912  15.164  0.0019 -0.0783 -0.0848
  958DPPC   C1A10632  16.524  27.414  15.376  0.2462  0.0391  0.1196
  958DPPC   C2A10633  16.963  27.365  15.295 -0.1669  0.1469  0.1863
  958DPPC   C3A10634  17.279  27.633  15.448  0.1635  0.0612 -0.1727
  958DPPC   C4A10635  17.562  27.824  15.803  0.1567  0.0713  0.0817
  958DPPC   C1B10636  16.835  26.916  15.130 -0.1300  0.2133  0.1240
  958DPPC   C2B10637  17.304  27.034  15.161  0.1011 -0.2239 -0.0410
  958DPPC   C3B10638  17.747  26.973  15.155  0.1137 -0.0911  0.0482
  958DPPC   C4B10639  18.190  26.868  15.379 -0.1423  0.3173 -0.0966
  959DPPC   NC310640  17.431  21.817  14.134  0.0411 -0.0062  0.0235
  959DPPC   PO410641  17.702  22.176  14.210  0.2275  0.3279 -0.1657
  959DPPC   GL110642  17.943  22.196  14.506 -0.0512 -0.0130 -0.0606
  959DPPC   GL210643  17.721  22.315  14.800 -0.3480  0.0824 -0.0890
  959DPPC   C1A10644  18.124  21.965  14.877  0.0791 -0.1481 -0.2521
  959DPPC   C2A10645  18.454  21.891  15.104 -0.2800 -0.0685  0.2870
  959DPPC   C3A10646  18.645  21.953  15.474  0.2406  0.3096 -0.2316
  959DPPC   C4A10647  18.777  21.878  15.864 -0.1700  0.3170  0.1061
  959DPPC   C1B10648  17.889  22.315  15.274 -0.1810  0.2445  0.2689
  959DPPC   C2B10649  18.240  22.244  15.566  0.0256 -0.0644  0.0830
  959DPPC   C3B10650  18.454  22.256  15.952 -0.0122  0.0539 -0.1023
  959DPPC   C4B10651  18.788  22.312  16.272 -0.0832 -0.4033  0.1512
  960DPPC   NC310652   4.027   1.810  10.729 -0.1864  0.3600 -0.1140
  960DPPC   PO410653   3.815   2.145  10.744  0.0207 -0.1660 -0.1660
  960DPPC   GL110654   3.568   2.338  11.120 -0.2348  0.1420 -0.2816
  960DPPC   GL210655   3.367   2.618  11.200  0.1018  0.0623  0.2304
  960DPPC   C1A10656   3.743   2.573  11.532  0.1585  0.1152  0.2144
  960DPPC   C2A10657   3.338   2.757  11.669  0.0345 -0.0544  0.0555
  960DPPC   C3A10658   2.938   2.886  11.754  0.0194 -0.0846  0.0855
  960DPPC   C4A10659   2.554   3.002  11.679  0.1665 -0.0503 -0.0535
  960DPPC   C1B10660   2.933   2.851  11.169 -0.0091 -0.0618  0.1721
  960DPPC   C2B10661   2.544   2.802  11.098 -0.0394  0.1502  0.1435
  960DPPC   C3B10662   2.301   3.183  11.266 -0.3068 -0.4102 -0.1635
  960DPPC   C4B10663   2.093   3.580  11.401 -0.0158 -0.2479 -0.1340
  961DPPC   NC310664  20.549  34.681   8.391  0.2745 -0.2070 -0.2195
  961DPPC   PO410665  20.864  34.342   8.165 -0.2379 -0.3803 -0.1603
  961DPPC   GL110666  20.881  34.422   8.626 -0.2036  0.4497  0.0460
  961DPPC   GL210667  21.077  34.813   8.750  0.0939 -0.1274  0.1017
  961DPPC   C1A10668  20.803  34.148   8.939  0.4806 -0.2203 -0.0960
  961DPPC   C2A10669  21.097  33.968   9.226 -0.1052  0.0539  0.2001
  961DPPC   C3A10670  21.459  33.917   9.376  0.2242 -0.4215  0.3057
  961DPPC   C4A10671  21.674  33.866   9.726 -0.0400 -0.0511  0.0571
  961DPPC   C1B10672  21.407  34.791   9.057 -0.4439 -0.1976  0.0676
  961DPPC   C2B10673  21.703  34.452   9.265  0.1441  0.0932  0.0908
  961DPPC   C3B10674  21.982  34.202   9.559  0.1091 -0.1789 -0.2187
  961DPPC   C4B10675  22.038  34.213   9.929 -0.3019 -0.0253  0.2069
  962DPPC   NC310676  22.277  21.531   4.937 -0.3813  0.1942  0.1963
  962DPPC   PO410677  22.171  21.947   5.037 -0.1039  0.0938  0.2364
  962DPPC   GL110678  22.581  22.077   5.144  0.0718  0.1049  0.2541
  962DPPC   GL210679  22.712  21.856   5.178 -0.3287  0.1029  0.2973
  962DPPC   C1A10680  22.928  22.208   5.370 -0.0186 -0.0165  0.0183
  962DPPC   C2A10681  23.303  22.127   5.569 -0.0839  0.3529 -0.0409
  962DPPC   C3A10682  23.710  22.006   5.798  0.1342 -0.0013 -0.0708
  962DPPC   C4A10683  23.894  21.996   6.185 -0.1048 -0.3166 -0.0924
  962DPPC   C1B10684  23.108  21.775   5.266 -0.1065 -0.0478  0.2015
  962DPPC   C2B10685  23.543  21.650   5.402  0.2626  0.1953  0.1506
  962DPPC   C3B10686  24.013  21.727   5.416  0.0972  0.0262 -0.0329
  962DPPC   C4B10687  24.379  21.999   5.544 -0.0187  0.2715 -0.1673
  963DPPC   NC310688   7.493  19.363  13.046  0.1673 -0.0748 -0.2814
  963DPPC   PO410689   7.606  19.814  13.240 -0.1251  0.4841 -0.1663
  963DPPC   GL110690   7.308  19.756  13.588 -0.0598  0.0011 -0.2344
  963DPPC   GL210691   7.158  19.497  13.456 -0.1153 -0.3359 -0.1367
  963DPPC   C1A10692   7.015  19.975  13.768  0.1329  0.0948 -0.3787
  963DPPC   C2A10693   6.605  20.023  13.678 -0.2521 -0.2078  0.2599
  963DPPC   C3A10694   6.403  19.892  13.918 -0.0458 -0.0353  0.0829
  963DPPC   C4A10695   6.039  20.088  14.232  0.1301 -0.1413 -0.3131
  963DPPC   C1B10696   6.679  19.557  13.543 -0.0136 -0.0568 -0.1154
  963DPPC   C2B10697   6.288  19.541  13.611 -0.1016  0.1210  0.1153
  963DPPC   C3B10698   5.979  19.786  13.662 -0.1435 -0.2576  0.1419
  963DPPC   C4B10699   5.602  19.732  13.760  0.0315 -0.0267 -0.1802
  964DPPC   NC310700   7.804  16.814  12.833 -0.1582  0.0575 -0.2349
  964DPPC   PO410701   7.497  16.495  13.055  0.0502 -0.0400  0.1070
  964DPPC   GL110702   7.084  16.447  13.096 -0.1370 -0.0980  0.3620
  964DPPC   GL210703   7.041  16.171  13.238 -0.0825  0.1141 -0.2412
  964DPPC   C1A10704   6.705  16.465  13.195  0.1717  0.1538  0.3997
  964DPPC   C2A10705   6.478  16.500  13.553  0.0846  0.0222 -0.1049
  964DPPC   C3A10706   6.200  16.504  13.814  0.1947  0.1511  0.3400
  964DPPC   C4A10707   5.869  16.351  13.840 -0.0916 -0.4846 -0.0038
  964DPPC   C1B10708   6.910  16.249  13.578 -0.1057  0.4034  0.1432
  964DPPC   C2B10709   6.690  16.277  13.942  0.0156 -0.0098 -0.3369
  964DPPC   C3B10710   6.306  16.059  14.072  0.2604 -0.0792 -0.0751
  964DPPC   C4B10711   6.189  15.723  14.015  0.1380 -0.0170 -0.3422
  965DPPC   NC310712   3.792  28.988  12.724 -0.0950 -0.1908 -0.3920
  965DPPC   PO410713   3.688  29.390  13.005 -0.1625 -0.0634 -0.0611
  965DPPC   GL110714   3.292  29.388  13.346  0.0151 -0.1755  0.2629
  965DPPC   GL210715   3.259  29.124  13.592 -0.1246 -0.2112  0.1345
  965DPPC   C1A10716   2.805  29.498  13.625  0.0336  0.1668 -0.0693
  965DPPC   C2A10717   2.479  29.666  13.924 -0.2280  0.0244 -0.1920
  965DPPC   C3A10718   2.285  29.859  14.212 -0.0593 -0.2439  0.1702
  965DPPC   C4A10719   2.539  30.195  14.477  0.0803 -0.0201  0.2350
  965DPPC   C1B10720   2.811  29.034  13.806 -0.0048  0.1121 -0.2115
  965DPPC   C2B10721   2.490  29.155  14.045 -0.3266 -0.5922 -0.1026
  965DPPC   C3B10722   2.275  29.309  14.328 -0.1351  0.5658 -0.0929
  965DPPC   C4B10723   1.932  29.508  14.547  0.1684 -0.0915  0.3938
  966DPPC   NC310724   7.350   3.567  13.966  0.1083  0.0365 -0.0387
  966DPPC   PO410725   7.533   3.429  14.346 -0.1559 -0.0184  0.2458
  966DPPC   GL110726   7.449   3.720  14.757  0.1100  0.1650 -0.2340
  966DPPC   GL210727   7.244   4.002  14.661 -0.0691 -0.0742  0.3317
  966DPPC   C1A10728   7.361   3.903  15.150 -0.0260  0.3037 -0.0708
  966DPPC   C2A10729   7.154   3.830  15.476  0.2553  0.1458 -0.2538
  966DPPC   C3A10730   7.051   4.114  15.786  0.2202 -0.0146  0.2189
  966DPPC   C4A10731   6.653   4.250  15.943  0.1917 -0.0706 -0.0994
  966DPPC   C1B10732   6.895   4.083  14.940 -0.3443 -0.3343  0.0353
  966DPPC   C2B10733   6.639   4.222  15.231  0.0946  0.0701 -0.1095
  966DPPC   C3B10734   6.591   4.028  15.537 -0.1528 -0.0308  0.0082
  966DPPC   C4B10735   6.683   3.665  15.757  0.3198 -0.0989 -0.0874
  967DPPC   NC310736   4.232  24.089   7.843  0.1650 -0.0423  0.0400
  967DPPC   PO410737   4.429  23.829   7.512  0.0878 -0.2821 -0.0674
  967DPPC   GL110738   4.308  23.575   7.901  0.3597  0.0011 -0.1654
  967DPPC   GL210739   4.115  23.671   8.098  0.2750 -0.4779 -0.1165
  967DPPC   C1A10740   3.988  23.209   7.982  0.0134  0.3800 -0.0158
  967DPPC   C2A10741   3.639  23.023   8.178  0.2563  0.1073 -0.1201
  967DPPC   C3A10742   3.277  23.015   8.159  0.0520 -0.1722 -0.2411
  967DPPC   C4A10743   3.202  22.779   8.449 -0.0377 -0.1604 -0.0672
  967DPPC   C1B10744   3.804  23.559   8.375  0.2073  0.0325 -0.1521
  967DPPC   C2B10745   3.430  23.218   8.618 -0.0510  0.0056 -0.1029
  967DPPC   C3B10746   3.221  23.374   8.936  0.1351  0.1395  0.2973
  967DPPC   C4B10747   2.731  23.428   9.077  0.0761 -0.0197  0.2211
  968DPPC   NC310748  19.240  14.963  10.611  0.3749  0.0333 -0.5356
  968DPPC   PO410749  19.610  14.708  10.454 -0.1800  0.0280 -0.0604
  968DPPC   GL110750  19.795  14.464  10.723  0.2219  0.4812 -0.0036
  968DPPC   GL210751  19.685  14.166  10.727  0.1589  0.2614 -0.0845
  968DPPC   C1A10752  20.208  14.394  10.931 -0.0509 -0.0718 -0.0280
  968DPPC   C2A10753  20.487  14.397  11.252 -0.1523  0.2109  0.1643
  968DPPC   C3A10754  20.458  14.373  11.737  0.0341 -0.2269 -0.1582
  968DPPC   C4A10755  20.541  14.485  12.196 -0.1395 -0.2583  0.0080
  968DPPC   C1B10756  19.514  14.115  11.117 -0.2362 -0.1208  0.0117
  968DPPC   C2B10757  19.717  13.799  11.405 -0.2538  0.1052  0.5514
  968DPPC   C3B10758  20.099  13.481  11.460  0.1187  0.0330  0.0440
  968DPPC   C4B10759  20.351  13.333  11.775 -0.2832 -0.3266  0.0987
  969DPPC   NC310760  16.890  29.530  11.345 -0.3024 -0.0745 -0.2146
  969DPPC   PO410761  16.857  29.422  11.913  0.2910 -0.1676  0.1620
  969DPPC   GL110762  17.153  29.433  12.087  0.1370  0.0570  0.1068
  969DPPC   GL210763  17.208  29.294  12.292  0.1921  0.1807 -0.3829
  969DPPC   C1A10764  17.330  29.805  12.382  0.2558 -0.4277  0.0445
  969DPPC   C2A10765  17.732  29.963  12.656 -0.0518  0.0205 -0.2374
  969DPPC   C3A10766  18.175  29.947  12.740 -0.0239 -0.2181  0.1348
  969DPPC   C4A10767  18.411  29.654  12.904 -0.0845 -0.0373 -0.3758
  969DPPC   C1B10768  17.661  29.426  12.513  0.2910  0.2211  0.0686
  969DPPC   C2B10769  17.922  29.550  12.864  0.1057  0.0353 -0.0233
  969DPPC   C3B10770  18.138  29.439  13.228  0.2079 -0.4061 -0.0134
  969DPPC   C4B10771  18.123  29.156  13.535 -0.2668  0.4401  0.2432
  970DPPC   NC310772   6.215   0.133  13.888 -0.0606  0.3153 -0.2030
  970DPPC   PO410773   6.304   0.601  14.044  0.0187  0.0919  0.1021
  970DPPC   GL110774   5.935   0.542  14.278 -0.3535 -0.2546  0.0538
  970DPPC   GL210775   5.825   0.239  14.277 -0.0128  0.2775  0.1925
  970DPPC   C1A10776   5.599   0.617  14.547 -0.0997 -0.2943  0.2045
  970DPPC   C2A10777   5.278   0.808  14.899 -0.1186  0.1025  0.1248
  970DPPC   C3A10778   5.308   0.815  15.329  0.1344  0.0523  0.0592
  970DPPC   C4A10779   5.049   0.913  15.673 -0.1356  0.3728 -0.0384
  970DPPC   C1B10780   5.940   0.222  14.747 -0.1173  0.1531  0.1355
  970DPPC   C2B10781   5.804  35.217  14.935  0.0888 -0.1023 -0.4141
  970DPPC   C3B10782   5.618  35.114  15.265 -0.1611  0.0342  0.1828
  970DPPC   C4B10783   5.659  34.840  15.616  0.1908  0.0885  0.1295
  971DPPC   NC310784  27.751  33.170   5.977  0.2441  0.3634  0.1662
  971DPPC   PO410785  27.434  33.455   6.135  0.0487  0.0799  0.0338
  971DPPC   GL110786  27.205  33.498   6.504 -0.1537 -0.1399 -0.1190
  971DPPC   GL210787  26.895  33.638   6.614 -0.1492  0.0956  0.2056
  971DPPC   C1A10788  27.330  33.529   6.951  0.1249 -0.0656  0.1218
  971DPPC   C2A10789  27.339  33.449   7.328 -0.2714  0.0508  0.1238
  971DPPC   C3A10790  27.181  33.492   7.803 -0.1314  0.2108  0.0694
  971DPPC   C4A10791  27.406  33.501   8.182 -0.1444  0.2295  0.0172
  971DPPC   C1B10792  26.888  33.633   7.064 -0.1244  0.1707 -0.1778
  971DPPC   C2B10793  26.835  33.423   7.429  0.0708 -0.0857 -0.0215
  971DPPC   C3B10794  26.729  33.219   7.794  0.1655  0.2442 -0.0820
  971DPPC   C4B10795  26.706  32.916   7.928 -0.0510  0.0886  0.0544
  972DPPC   NC310796   4.066  32.323  12.775  0.1629 -0.3142  0.0561
  972DPPC   PO410797   3.681  32.488  12.484 -0.1039 -0.1518 -0.0915
  972DPPC   GL110798   3.461  32.501  12.850 -0.3290 -0.2073  0.1953
  972DPPC   GL210799   3.671  32.550  13.077 -0.1599 -0.2497 -0.0154
  972DPPC   C1A10800   3.116  32.755  13.175 -0.1296  0.1302  0.1737
  972DPPC   C2A10801   2.886  32.857  13.456 -0.0330  0.0169 -0.2572
  972DPPC   C3A10802   2.455  32.976  13.702 -0.3557 -0.1654  0.0939
  972DPPC   C4A10803   2.288  32.732  13.965  0.0652 -0.0410 -0.0610
  972DPPC   C1B10804   3.659  32.617  13.473 -0.1398  0.4878  0.1386
  972DPPC   C2B10805   3.391  32.840  13.743  0.0966 -0.0022  0.1954
  972DPPC   C3B10806   3.450  32.926  14.132 -0.1718 -0.0978  0.1663
  972DPPC   C4B10807   3.355  33.225  14.411  0.2490 -0.0056  0.2002
  973DPPC   NC310808   5.680  18.616   7.745 -0.0882  0.7483 -0.2783
  973DPPC   PO410809   5.612  18.321   8.040  0.2995  0.2602  0.1498
  973DPPC   GL110810   5.401  18.164   8.263  0.1283 -0.1349 -0.4493
  973DPPC   GL210811   5.385  18.382   8.558 -0.0570  0.0390  0.0970
  973DPPC   C1A10812   4.996  18.137   8.395  0.1850  0.1055  0.0231
  973DPPC   C2A10813   4.518  18.003   8.315 -0.0573 -0.2321 -0.2282
  973DPPC   C3A10814   4.057  17.908   8.358 -0.1747 -0.2675 -0.0779
  973DPPC   C4A10815   3.629  17.827   8.716  0.0124 -0.1978  0.0578
  973DPPC   C1B10816   4.974  18.536   8.721  0.1214  0.1852  0.0663
  973DPPC   C2B10817   4.636  18.715   8.900  0.0053  0.0520  0.1085
  973DPPC   C3B10818   4.301  18.669   9.070 -0.2503 -0.1017 -0.1993
  973DPPC   C4B10819   3.927  18.813   9.328  0.1720 -0.1306 -0.1306
  974DPPC   NC310820  19.198  34.689   8.718 -0.0930  0.0431 -0.3251
  974DPPC   PO410821  19.696  34.585   8.968 -0.0481  0.0891  0.2516
  974DPPC   GL110822  20.024  34.614   9.312  0.1943  0.1289  0.0060
  974DPPC   GL210823  20.282  34.991   9.305 -0.2259 -0.1993 -0.0189
  974DPPC   C1A10824  20.232  34.586   9.659 -0.1040 -0.1413 -0.1294
  974DPPC   C2A10825  20.717  34.487   9.808 -0.0310  0.0168 -0.1638
  974DPPC   C3A10826  20.904  34.278  10.185 -0.0521  0.1319  0.1560
  974DPPC   C4A10827  21.177  34.580  10.480 -0.1916 -0.0843  0.2100
  974DPPC   C1B10828  20.580  34.936   9.654  0.2806 -0.1274  0.2146
  974DPPC   C2B10829  20.695  35.233   9.909  0.0693  0.1328  0.2479
  974DPPC   C3B10830  20.893  35.354  10.273  0.4222  0.1164 -0.0413
  974DPPC   C4B10831  21.119  35.151  10.511 -0.0314 -0.0345 -0.0376
  975DPPC   NC310832  19.063  19.017  11.333 -0.1478 -0.0210  0.0849
  975DPPC   PO410833  19.233  18.980  11.687 -0.2401  0.4940  0.0760
  975DPPC   GL110834  19.538  18.737  11.999 -0.0350  0.2002 -0.1043
  975DPPC   GL210835  19.586  18.465  11.870 -0.1490 -0.0317  0.0588
  975DPPC   C1A10836  19.943  18.806  12.158 -0.1004  0.0084  0.2191
  975DPPC   C2A10837  20.319  18.767  12.238 -0.1753 -0.0217 -0.2088
  975DPPC   C3A10838  20.676  18.580  12.203  0.0725  0.0541  0.1625
  975DPPC   C4A10839  21.162  18.426  12.032 -0.0281  0.1317 -0.2858
  975DPPC   C1B10840  19.532  18.000  12.097  0.2553  0.2532  0.0320
  975DPPC   C2B10841  19.908  17.888  12.421 -0.1321 -0.0267 -0.0541
  975DPPC   C3B10842  20.172  17.983  12.749  0.0763  0.0601  0.1411
  975DPPC   C4B10843  20.588  18.060  13.021 -0.2035 -0.0043 -0.0793
  976DPPC   NC310844  11.906  28.665  16.892  0.2190  0.1458 -0.2461
  976DPPC   PO410845  12.100  28.523  17.305 -0.1213  0.3024  0.0059
  976DPPC   GL110846  11.792  28.554  17.751 -0.0582  0.1593  0.4009
  976DPPC   GL210847  11.898  28.273  17.900 -0.1380  0.0415  0.1666
  976DPPC   C1A10848  11.784  28.825  18.057  0.1206  0.1298  0.0086
  976DPPC   C2A10849  11.950  29.195  18.378  0.3401  0.0389  0.0010
  976DPPC   C3A10850  11.882  29.390  18.814 -0.0139 -0.2474 -0.2794
  976DPPC   C4A10851  11.875  29.501  19.263  0.0455  0.0256  0.0204
  976DPPC   C1B10852  12.045  28.273  18.348 -0.0442  0.3781  0.1374
  976DPPC   C2B10853  12.161  28.309  18.748 -0.0432  0.0238  0.1793
  976DPPC   C3B10854  12.048  28.096  19.089 -0.2050  0.0928  0.0302
  976DPPC   C4B10855  12.072  27.687  19.033 -0.0662 -0.2937  0.2725
  977DPPC   NC310856   2.055   8.213   7.141  0.3151  0.2167  0.3550
  977DPPC   PO410857   1.854   8.543   6.837 -0.0703 -0.4646  0.0198
  977DPPC   GL110858   1.460   8.803   6.930  0.1804  0.3604  0.1065
  977DPPC   GL210859   1.242   8.618   6.717  0.0932 -0.2919 -0.1316
  977DPPC   C1A10860   1.339   8.985   7.276 -0.0995 -0.4421  0.2336
  977DPPC   C2A10861   1.106   9.132   7.693  0.3280  0.3035  0.2038
  977DPPC   C3A10862   0.771   9.347   7.928 -0.2784  0.1895  0.1236
  977DPPC   C4A10863   0.414   9.241   7.756  0.3629 -0.3522  0.0862
  977DPPC   C1B10864   1.120   8.428   7.125 -0.4552 -0.0773  0.1523
  977DPPC   C2B10865   0.934   8.683   7.459 -0.0826  0.1582  0.0563
  977DPPC   C3B10866   0.745   8.797   7.827 -0.0227 -0.0467  0.0190
  977DPPC   C4B10867   0.565   8.887   8.143  0.2248  0.3044  0.0617
  978DPPC   NC310868  27.397  32.456   5.726 -0.1648  0.5630  0.1035
  978DPPC   PO410869  27.345  32.916   5.845  0.2130  0.0298 -0.0926
  978DPPC   GL110870  27.442  32.789   6.258  0.3461  0.3013 -0.2435
  978DPPC   GL210871  27.329  33.025   6.361  0.1975  0.1438  0.0997
  978DPPC   C1A10872  27.767  32.831   6.508 -0.0723  0.2496  0.2049
  978DPPC   C2A10873  27.782  32.753   6.882 -0.1938  0.0001 -0.4794
  978DPPC   C3A10874  27.760  32.661   7.388 -0.0207  0.2367  0.0046
  978DPPC   C4A10875  27.470  32.515   7.561 -0.1604 -0.5429 -0.3087
  978DPPC   C1B10876  27.355  33.110   6.801 -0.2265  0.0906  0.0644
  978DPPC   C2B10877  27.283  32.940   7.272 -0.0555 -0.2139  0.1791
  978DPPC   C3B10878  27.175  33.017   7.630  0.0536 -0.1600 -0.2146
  978DPPC   C4B10879  27.154  33.068   8.066  0.0220  0.1379 -0.0802
  979DPPC   NC310880   6.578   2.040  13.897  0.1991  0.0275  0.1673
  979DPPC   PO410881   6.554   1.596  13.874 -0.1853 -0.0878 -0.1904
  979DPPC   GL110882   6.296   1.831  14.196 -0.2258 -0.0298  0.2620
  979DPPC   GL210883   6.211   1.521  14.433  0.1562  0.1011  0.0151
  979DPPC   C1A10884   5.917   2.157  14.258 -0.0973 -0.4290 -0.0474
  979DPPC   C2A10885   5.745   2.225  14.716  0.1143  0.0799  0.0912
  979DPPC   C3A10886   5.542   2.553  14.996 -0.1562 -0.1808  0.0320
  979DPPC   C4A10887   5.198   2.711  15.181  0.0035  0.0853  0.0934
  979DPPC   C1B10888   5.892   1.700  14.686  0.0722  0.0626 -0.1312
  979DPPC   C2B10889   5.603   1.739  15.032  0.0421 -0.1496  0.0433
  979DPPC   C3B10890   5.518   2.118  15.381  0.4908  0.0331 -0.0767
  979DPPC   C4B10891   5.462   2.442  15.520  0.1760  0.0249 -0.0712
  980DPPC   NC310892  26.797   0.815   6.439  0.1918  0.1847  0.0656
  980DPPC   PO410893  26.603   1.193   6.485 -0.1259  0.0273  0.3266
  980DPPC   GL110894  26.532   1.286   6.895 -0.0525  0.2934  0.2416
  980DPPC   GL210895  26.746   1.453   7.025  0.3240  0.3154 -0.3435
  980DPPC   C1A10896  26.440   1.196   7.382  0.2224  0.0310  0.0413
  980DPPC   C2A10897  26.136   1.215   7.612  0.2226 -0.0475  0.2295
  980DPPC   C3A10898  25.950   0.889   7.921 -0.1892 -0.1910 -0.0979
  980DPPC   C4A10899  25.585   0.760   7.855  0.1513 -0.0558  0.1308
  980DPPC   C1B10900  26.848   1.451   7.354  0.1043  0.1774  0.1898
  980DPPC   C2B10901  26.835   1.324   7.700 -0.0268  0.1814  0.2589
  980DPPC   C3B10902  27.024   1.367   8.005  0.0923 -0.1591 -0.2861
  980DPPC   C4B10903  27.355   1.567   8.270  0.0480 -0.0672  0.1874
  981DPPC   NC310904  17.204   4.619  12.447  0.0489  0.1770  0.3070
  981DPPC   PO410905  17.010   4.992  12.626  0.0013  0.0327 -0.0970
  981DPPC   GL110906  16.985   4.659  12.919 -0.0038 -0.1157 -0.0550
  981DPPC   GL210907  16.974   4.351  12.963 -0.0304  0.0204  0.1222
  981DPPC   C1A10908  16.840   4.698  13.349 -0.0690 -0.1413 -0.2042
  981DPPC   C2A10909  16.834   4.685  13.825 -0.0586 -0.1538  0.0602
  981DPPC   C3A10910  16.938   4.727  14.211  0.0144  0.0244  0.1154
  981DPPC   C4A10911  16.760   4.750  14.647  0.0419 -0.0339  0.2736
  981DPPC   C1B10912  17.070   3.926  13.097  0.0925  0.0276 -0.5350
  981DPPC   C2B10913  17.189   3.680  13.357  0.2357  0.1442  0.0479
  981DPPC   C3B10914  17.412   3.382  13.629 -0.0474 -0.0389 -0.0202
  981DPPC   C4B10915  17.815   3.301  13.785  0.0741 -0.0872  0.2489
  982DPPC   NC310916  14.056  25.927  17.759 -0.3178  0.1505  0.0438
  982DPPC   PO410917  13.825  25.995  17.484 -0.1646 -0.2293  0.2642
  982DPPC   GL110918  13.733  26.390  17.708  0.1330 -0.0495  0.1047
  982DPPC   GL210919  13.567  26.295  17.912  0.0863  0.1079  0.3826
  982DPPC   C1A10920  13.981  26.585  18.119  0.0681  0.0957 -0.1083
  982DPPC   C2A10921  14.152  26.691  18.491 -0.1562  0.1670 -0.0952
  982DPPC   C3A10922  14.069  26.732  18.915  0.2547  0.0631  0.0746
  982DPPC   C4A10923  14.293  27.021  19.153  0.2242  0.0815  0.3551
  982DPPC   C1B10924  13.476  26.296  18.318  0.0742 -0.1257  0.2513
  982DPPC   C2B10925  13.579  26.619  18.560 -0.0393 -0.3132  0.3600
  982DPPC   C3B10926  13.570  26.864  18.998 -0.1276  0.0195  0.0070
  982DPPC   C4B10927  13.850  26.938  19.338 -0.1295 -0.1099 -0.2544
  983POPC   NC310928  28.724  19.567  25.763  0.3060 -0.0968 -0.0208
  983POPC   PO410929  28.239  19.567  25.709  0.1098  0.0701 -0.2432
  983POPC   GL110930  28.417  19.617  26.212 -0.2140 -0.0615  0.0559
  983POPC   GL210931  28.645  19.850  26.222 -0.1683 -0.0945 -0.2818
  983POPC   C1A10932  28.314  19.846   0.380  0.0297 -0.2408 -0.1757
  983POPC   D2A10933  28.389  20.257   0.624  0.0895  0.2250  0.0497
  983POPC   C3A10934  28.135  20.495   0.976 -0.1400  0.1735 -0.2102
  983POPC   C4A10935  28.303  20.735   1.324 -0.1880  0.1929  0.3684
  983POPC   C1B10936  28.828  19.694   0.325 -0.1591 -0.1038 -0.1192
  983POPC   C2B10937  29.051  19.711   0.715 -0.0195 -0.1960 -0.0884
  983POPC   C3B10938  29.028  19.882   1.160  0.2008 -0.0694 -0.1085
  983POPC   C4B10939  28.857  19.963   1.550  0.2752 -0.0120  0.1525
  984POPC   NC310940   6.819   3.578  13.553  0.3432 -0.0371  0.4543
  984POPC   PO410941   6.737   3.343  13.961 -0.0813  0.3611 -0.0300
  984POPC   GL110942   6.376   3.504  14.237 -0.2864  0.2508 -0.2180
  984POPC   GL210943   6.285   3.217  14.281  0.0395  0.1128  0.3499
  984POPC   C1A10944   6.035   3.636  14.480 -0.1008  0.0055  0.1544
  984POPC   D2A10945   5.612   3.609  14.669 -0.0378  0.0219 -0.0111
  984POPC   C3A10946   5.395   3.421  15.022 -0.0348  0.1568  0.1353
  984POPC   C4A10947   5.395   3.477  15.466  0.1338 -0.1799 -0.2374
  984POPC   C1B10948   5.909   3.163  14.509  0.0492 -0.0346 -0.1125
  984POPC   C2B10949   5.562   3.091  14.665 -0.0649  0.3147  0.2477
  984POPC   C3B10950   5.115   3.011  14.780  0.0308  0.2063  0.0335
  984POPC   C4B10951   4.824   3.179  14.674 -0.0103  0.2354 -0.1317
  985POPC   NC310952  16.782  17.888  13.957 -0.0485  0.1154  0.0686
  985POPC   PO410953  16.546  17.485  14.097  0.1535  0.3157 -0.2576
  985POPC   GL110954  16.908  17.604  14.359  0.0530  0.1789  0.3899
  985POPC   GL210955  17.102  17.399  14.274 -0.1906 -0.0283  0.2881
  985POPC   C1A10956  17.000  17.729  14.797 -0.3737 -0.2091 -0.1515
  985POPC   D2A10957  17.251  17.544  15.133 -0.1754 -0.0605 -0.1628
  985POPC   C3A10958  17.706  17.589  15.369  0.3057 -0.1616 -0.0733
  985POPC   C4A10959  17.970  17.563  15.702  0.1157 -0.0342 -0.1478
  985POPC   C1B10960  17.359  17.287  14.683  0.2829 -0.0987 -0.2321
  985POPC   C2B10961  17.724  17.219  14.844  0.3003 -0.0855  0.2803
  985POPC   C3B10962  17.865  16.879  15.104  0.4010  0.4475  0.0782
  985POPC   C4B10963  18.128  16.641  15.221  0.2863  0.1348 -0.2571
  986POPC   NC310964  10.433  21.990  17.886 -0.0887 -0.1195  0.3746
  986POPC   PO410965   9.975  22.159  17.774  0.0700 -0.1399  0.1249
  986POPC   GL110966   9.649  22.151  18.122 -0.4223  0.0157 -0.2720
  986POPC   GL210967   9.504  22.407  18.137  0.0696 -0.1823  0.2288
  986POPC   C1A10968   9.561  21.981  18.420 -0.2696 -0.0792 -0.1788
  986POPC   D2A10969   9.486  21.665  18.624 -0.2452 -0.1437  0.0271
  986POPC   C3A10970   9.349  21.593  19.061 -0.2732  0.1494 -0.0628
  986POPC   C4A10971   9.015  21.425  19.354 -0.3779 -0.3101 -0.2096
  986POPC   C1B10972   9.265  22.406  18.501  0.3300 -0.0089  0.1000
  986POPC   C2B10973   9.019  22.085  18.676 -0.1905  0.1685  0.0986
  986POPC   C3B10974   8.961  21.734  18.791  0.2439 -0.0262 -0.1562
  986POPC   C4B10975   8.877  21.279  18.878 -0.0342 -0.1579 -0.2571
  987POPC   NC310976  21.034   9.952   7.901 -0.3124  0.4372 -0.1053
  987POPC   PO410977  21.332  10.077   8.217  0.2192  0.0709  0.0088
  987POPC   GL110978  21.579  10.409   8.385 -0.1892  0.0368 -0.2417
  987POPC   GL210979  21.898  10.361   8.246  0.0931 -0.1873 -0.2376
  987POPC   C1A10980  21.866  10.561   8.756  0.3133 -0.2353 -0.0546
  987POPC   D2A10981  21.767  11.009   9.036  0.0124 -0.2595  0.3901
  987POPC   C3A10982  22.088  11.109   9.286  0.3260  0.1626 -0.2102
  987POPC   C4A10983  22.560  11.114   9.465 -0.1440 -0.1646 -0.2933
  987POPC   C1B10984  22.283  10.551   8.433  0.3421  0.4028 -0.4747
  987POPC   C2B10985  22.566  10.907   8.428 -0.0427  0.2291 -0.1652
  987POPC   C3B10986  22.820  11.318   8.573  0.1632  0.0847  0.1409
  987POPC   C4B10987  23.066  11.554   8.829  0.1283 -0.1356  0.0739
  988POPC   NC310988  28.161   5.808   4.208 -0.2714 -0.2269 -0.0294
  988POPC   PO410989  27.884   6.187   4.060  0.1015  0.1058 -0.0700
  988POPC   GL110990  28.031   6.384   4.385  0.1067  0.1022 -0.1539
  988POPC   GL210991  27.747   6.334   4.600 -0.2340 -0.2763 -0.0448
  988POPC   C1A10992  28.075   6.668   4.724 -0.1649  0.0460  0.0331
  988POPC   D2A10993  28.321   6.852   4.994  0.0166  0.1919  0.0363
  988POPC   C3A10994  28.019   6.945   5.288 -0.0454  0.0747 -0.1624
  988POPC   C4A10995  27.861   7.138   5.517  0.0607 -0.3154  0.2277
  988POPC   C1B10996  27.731   6.532   5.070  0.0674  0.1530  0.1189
  988POPC   C2B10997  27.861   6.570   5.536  0.1457 -0.2604 -0.0475
  988POPC   C3B10998  28.076   6.506   5.947  0.1718 -0.1096  0.0085
  988POPC   C4B10999  28.218   6.326   6.309 -0.0728  0.1799  0.2058
  989POPC   NC311000  16.782  23.012  15.535 -0.2354 -0.0812 -0.0976
  989POPC   PO411001  16.499  23.112  15.842 -0.2344  0.0899 -0.2509
  989POPC   GL111002  16.602  22.936  16.308  0.1612  0.1125 -0.0187
  989POPC   GL211003  16.434  23.110  16.468  0.0771  0.0266  0.1821
  989POPC   C1A11004  16.861  22.584  16.601 -0.1473  0.0729 -0.2104
  989POPC   D2A11005  16.985  22.221  16.516 -0.1462 -0.2765 -0.1060
  989POPC   C3A11006  17.189  22.236  16.888 -0.0544  0.1279 -0.1941
  989POPC   C4A11007  17.566  22.056  17.139 -0.0912  0.0641 -0.3111
  989POPC   C1B11008  16.687  23.043  16.819  0.2496  0.0745  0.4026
  989POPC   C2B11009  17.027  23.132  17.040  0.0014  0.0076  0.0249
  989POPC   C3B11010  17.339  23.067  17.417  0.0577  0.2254  0.2146
  989POPC   C4B11011  17.502  23.373  17.564 -0.0252 -0.0842 -0.0012
  990POPC   NC311012  13.695  28.057  16.999 -0.3065  0.0022 -0.0812
  990POPC   PO411013  14.090  28.226  17.034 -0.0828  0.2585 -0.0576
  990POPC   GL111014  14.378  28.493  17.267 -0.1289  0.1054 -0.0199
  990POPC   GL211015  14.233  28.727  17.362  0.0550 -0.2344  0.1113
  990POPC   C1A11016  14.727  28.476  17.443  0.2297 -0.1909  0.0998
  990POPC   D2A11017  15.106  28.495  17.576 -0.2391  0.0867 -0.0602
  990POPC   C3A11018  15.421  28.370  17.869 -0.0831  0.0437  0.1621
  990POPC   C4A11019  15.499  28.139  18.203  0.0820  0.2567 -0.1948
  990POPC   C1B11020  14.488  28.912  17.525 -0.0180 -0.1045 -0.0868
  990POPC   C2B11021  14.865  28.975  17.679 -0.0481  0.0455 -0.0126
  990POPC   C3B11022  15.122  29.364  17.763 -0.1800 -0.0585  0.0966
  990POPC   C4B11023  15.568  29.476  17.716 -0.1443 -0.0823  0.0387
  991POPC   NC311024  15.832  34.599  10.983  0.1278 -0.1320  0.0655
  991POPC   PO411025  15.749  34.791  11.475 -0.0811 -0.0420  0.1597
  991POPC   GL111026  15.997  34.745  11.760 -0.2072 -0.0984 -0.4200
  991POPC   GL211027  15.887  35.106  11.922 -0.1455  0.0437 -0.0322
  991POPC   C1A11028  16.319  34.787  11.930 -0.0656  0.0847 -0.3087
  991POPC   D2A11029  16.704  34.782  12.227  0.0391  0.0224 -0.1843
  991POPC   C3A11030  17.056  34.581  12.270  0.3281  0.0538  0.2026
  991POPC   C4A11031  17.349  34.337  12.378  0.0407 -0.0567  0.1962
  991POPC   C1B11032  16.232  35.117  12.278  0.1719 -0.1042 -0.0493
  991POPC   C2B11033  16.454  35.130  12.564 -0.0917 -0.1091  0.3074
  991POPC   C3B11034  16.823  34.848  12.698  0.1316 -0.0392 -0.1177
  991POPC   C4B11035  17.295  34.583  12.814 -0.0223  0.3234  0.0991
  992POPC   NC311036   7.173  10.917  11.398  0.2319 -0.0488 -0.2114
  992POPC   PO411037   7.091  11.332  11.641  0.1548  0.3047  0.0739
  992POPC   GL111038   7.092  11.145  11.940 -0.4049  0.0567 -0.0712
  992POPC   GL211039   7.140  11.319  12.276  0.0516  0.3722  0.1264
  992POPC   C1A11040   6.645  11.339  12.137 -0.3662  0.2265 -0.1631
  992POPC   D2A11041   6.323  11.135  12.284  0.1427 -0.0712  0.0896
  992POPC   C3A11042   5.992  11.005  12.622  0.0298  0.1127  0.0042
  992POPC   C4A11043   5.616  10.816  12.625 -0.1863  0.1779 -0.1892
  992POPC   C1B11044   6.801  11.213  12.647  0.0714 -0.3462 -0.3373
  992POPC   C2B11045   6.425  11.123  12.767 -0.1285 -0.3267  0.2161
  992POPC   C3B11046   6.247  11.034  13.082 -0.1217 -0.3068  0.2609
  992POPC   C4B11047   6.139  10.683  13.413 -0.1660  0.2247  0.0919
  993POPC   NC311048  24.366  30.903   5.918  0.1190  0.0031  0.1678
  993POPC   PO411049  24.549  30.511   5.872 -0.0019 -0.1827 -0.0301
  993POPC   GL111050  24.772  30.499   6.237 -0.1507  0.1209  0.3186
  993POPC   GL211051  25.103  30.470   6.208 -0.0966 -0.3988  0.0378
  993POPC   C1A11052  24.749  30.422   6.740  0.1136  0.1066  0.1679
  993POPC   D2A11053  24.352  30.223   6.977 -0.1907  0.1348 -0.0602
  993POPC   C3A11054  24.214  30.219   7.470 -0.0683  0.0288  0.1342
  993POPC   C4A11055  23.801  30.133   7.609  0.1340  0.0359  0.0458
  993POPC   C1B11056  25.150  30.227   6.585  0.0228 -0.3681  0.1044
  993POPC   C2B11057  25.186  30.182   7.020 -0.3941  0.0779 -0.1186
  993POPC   C3B11058  25.405  30.191   7.279 -0.3671  0.1007 -0.0482
  993POPC   C4B11059  25.485  30.400   7.621  0.0271 -0.3408 -0.0017
  994POPC   NC311060  23.589   2.866   7.159 -0.1319 -0.0900 -0.0988
  994POPC   PO411061  23.863   3.098   7.435 -0.3551  0.1349 -0.0825
  994POPC   GL111062  23.902   2.745   7.657 -0.1525 -0.0845  0.0918
  994POPC   GL211063  23.793   2.943   7.918 -0.0684  0.2754 -0.0334
  994POPC   C1A11064  24.019   2.547   8.112  0.0183 -0.0088  0.5411
  994POPC   D2A11065  24.040   2.537   8.520  0.2593  0.1424  0.1030
  994POPC   C3A11066  24.102   2.597   8.962 -0.2168  0.1998 -0.3676
  994POPC   C4A11067  24.140   2.214   9.202  0.2094 -0.0066  0.1405
  994POPC   C1B11068  23.928   3.010   8.221  0.1771  0.1518 -0.2725
  994POPC   C2B11069  23.967   3.004   8.711  0.0870 -0.0944 -0.2553
  994POPC   C3B11070  23.962   3.223   9.053  0.0563 -0.0731 -0.0462
  994POPC   C4B11071  24.027   3.582   9.355  0.1455  0.1663 -0.1471
  995POPC   NC311072  29.782  29.984   4.929 -0.1161 -0.0840 -0.0691
  995POPC   PO411073  30.002  29.625   4.913  0.0521  0.0881 -0.4185
  995POPC   GL111074  29.808  29.625   5.295 -0.0598 -0.3380 -0.1965
  995POPC   GL211075  29.984  29.583   5.561  0.0978 -0.1433  0.1249
  995POPC   C1A11076  29.514  29.464   5.595  0.0825 -0.0815  0.2680
  995POPC   D2A11077  29.410  29.141   5.777  0.2162  0.1091  0.2555
  995POPC   C3A11078  29.487  28.914   6.123  0.3306 -0.0107 -0.0675
  995POPC   C4A11079  29.538  28.830   6.466  0.4570  0.0595 -0.1667
  995POPC   C1B11080  29.990  29.463   5.830 -0.2876  0.0768 -0.1596
  995POPC   C2B11081  30.028  29.121   5.943 -0.0798  0.0367 -0.0139
  995POPC   C3B11082  29.969  28.784   6.200  0.0801 -0.0021 -0.0889
  995POPC   C4B11083  29.736  28.377   6.246  0.0661  0.0596 -0.1688
  996POPC   NC311084  19.760  17.326   9.093 -0.1170  0.0305 -0.1343
  996POPC   PO411085  20.021  17.629   8.865  0.2409  0.1701  0.0824
  996POPC   GL111086  20.409  17.588   9.006 -0.3204  0.1459  0.1965
  996POPC   GL211087  20.600  17.326   8.970  0.1099  0.3156 -0.3910
  996POPC   C1A11088  20.672  17.773   9.059 -0.2338 -0.2355 -0.0295
  996POPC   D2A11089  21.014  17.873   9.348  0.0922  0.0581 -0.3307
  996POPC   C3A11090  21.194  18.304   9.256  0.0676 -0.0219 -0.3150
  996POPC   C4A11091  21.472  18.585   9.548 -0.2559 -0.2738  0.3197
  996POPC   C1B11092  21.078  17.380   9.100  0.1090 -0.0610  0.0278
  996POPC   C2B11093  21.407  17.419   9.254 -0.0217 -0.1514  0.2717
  996POPC   C3B11094  21.714  17.559   9.550  0.0991 -0.0292 -0.0589
  996POPC   C4B11095  22.205  17.604   9.726  0.0047  0.2173 -0.1447
  997POPC   NC311096   3.371  25.303   7.772 -0.2421  0.2309  0.2452
  997POPC   PO411097   2.909  25.335   7.653 -0.0098 -0.1258 -0.2004
  997POPC   GL111098   2.944  25.162   8.125 -0.0146  0.0585 -0.2413
  997POPC   GL211099   3.097  24.963   8.005  0.3322 -0.2832  0.2696
  997POPC   C1A11100   2.815  24.879   8.410 -0.1397 -0.1410  0.1555
  997POPC   D2A11101   2.773  24.532   8.616  0.0161 -0.0183 -0.0358
  997POPC   C3A11102   2.417  24.371   8.860 -0.2326  0.0640 -0.0578
  997POPC   C4A11103   2.145  24.115   9.182 -0.0455 -0.2957  0.0426
  997POPC   C1B11104   2.929  24.567   7.964 -0.0183  0.2763 -0.1496
  997POPC   C2B11105   2.727  24.267   8.220 -0.3503  0.1398  0.2496
  997POPC   C3B11106   2.709  23.798   8.163  0.2712 -0.0258  0.0877
  997POPC   C4B11107   2.515  23.491   7.971  0.3139  0.0650 -0.0626
  998POPC   NC311108  24.441  10.085   3.258 -0.0761 -0.1510 -0.0143
  998POPC   PO411109  24.083  10.156   3.584 -0.1753 -0.0230 -0.0688
  998POPC   GL111110  24.390  10.057   3.876  0.1731  0.0848  0.0643
  998POPC   GL211111  24.185   9.978   4.197 -0.0281 -0.0019  0.1624
  998POPC   C1A11112  24.639   9.893   4.245 -0.0130 -0.1866  0.1554
  998POPC   D2A11113  25.026   9.938   4.540  0.1696 -0.1660 -0.0364
  998POPC   C3A11114  25.291   9.855   4.625  0.1654  0.0354 -0.2807
  998POPC   C4A11115  25.574   9.870   4.974  0.1023 -0.2238 -0.3203
  998POPC   C1B11116  24.354  10.286   4.401 -0.0254  0.0140 -0.3278
  998POPC   C2B11117  24.423  10.598   4.729  0.1064  0.0165  0.3787
  998POPC   C3B11118  24.622  10.824   5.021  0.2022 -0.1292 -0.0519
  998POPC   C4B11119  24.971  10.912   5.128  0.2500 -0.0937 -0.0110
  999POPC   NC311120  17.917  13.519  12.522  0.3195 -0.0440  0.1380
  999POPC   PO411121  17.730  13.118  12.737 -0.3299  0.0584  0.3061
  999POPC   GL111122  18.037  13.003  13.135 -0.1578 -0.0698 -0.0419
  999POPC   GL211123  18.035  12.635  13.066 -0.0728  0.1467 -0.3133
  999POPC   C1A11124  18.343  13.220  13.332 -0.1263 -0.2828 -0.3401
  999POPC   D2A11125  18.760  13.327  13.555 -0.0982 -0.2759 -0.0465
  999POPC   C3A11126  19.124  13.643  13.573 -0.1420  0.0573 -0.2584
  999POPC   C4A11127  19.158  14.066  13.590 -0.3328  0.1619  0.1547
  999POPC   C1B11128  18.257  12.633  13.430 -0.1353 -0.2353  0.1298
  999POPC   C2B11129  18.608  12.698  13.846 -0.1279 -0.2012 -0.3014
  999POPC   C3B11130  18.891  12.714  14.164 -0.0545  0.2155 -0.1940
  999POPC   C4B11131  18.957  12.821  14.587  0.1771 -0.1737  0.2117
 1000POPC   NC311132   0.382   0.717   8.784 -0.3673  0.0470  0.1732
 1000POPC   PO411133   0.128   0.471   8.933  0.1032 -0.1221  0.0500
 1000POPC   GL111134   0.024   0.718   9.252  0.3176 -0.0973  0.5879
 1000POPC   GL211135   0.258   0.920   9.266  0.3801 -0.2287  0.0576
 1000POPC   C1A11136  35.147   0.703   9.638 -0.1316 -0.0789  0.0712
 1000POPC   D2A11137  34.772   0.520   9.578  0.3776 -0.2441 -0.1422
 1000POPC   C3A11138  34.742   0.081   9.549 -0.0829 -0.1385 -0.0868
 1000POPC   C4A11139  34.519  35.241   9.813  0.2353 -0.1800 -0.1338
 1000POPC   C1B11140   0.029   1.258   9.529 -0.0126  0.0018 -0.3439
 1000POPC   C2B11141  35.294   1.426   9.846 -0.0817  0.1168 -0.3457
 1000POPC   C3B11142  35.089   1.467  10.177  0.0429  0.2807  0.0525
 1000POPC   C4B11143  35.296   1.470  10.649  0.1815  0.3607  0.2105
 1001POPC   NC311144  23.807  24.096   3.706  0.2300 -0.0164 -0.0210
 1001POPC   PO411145  24.253  24.094   3.958 -0.4430 -0.2035 -0.1916
 1001POPC   GL111146  24.415  23.973   4.371 -0.0560  0.0214  0.2919
 1001POPC   GL211147  24.721  24.016   4.292 -0.1040 -0.0957 -0.1663
 1001POPC   C1A11148  24.402  23.685   4.737  0.1570 -0.1782  0.4208
 1001POPC   D2A11149  24.316  23.626   5.120  0.2617 -0.2359 -0.0703
 1001POPC   C3A11150  24.445  23.822   5.477  0.0146 -0.1912 -0.0020
 1001POPC   C4A11151  24.573  24.174   5.824 -0.0432 -0.1503  0.1384
 1001POPC   C1B11152  25.045  24.241   4.478  0.2726 -0.3379  0.0185
 1001POPC   C2B11153  25.337  24.091   4.827 -0.1929  0.1707 -0.1831
 1001POPC   C3B11154  25.426  24.126   5.229  0.1124 -0.0850  0.0495
 1001POPC   C4B11155  25.403  23.833   5.619 -0.1025  0.2061  0.1243
 1002POPC   NC311156  17.708  18.841  13.153 -0.0684  0.1081  0.1926
 1002POPC   PO411157  17.939  19.197  13.093  0.1098 -0.1011 -0.3001
 1002POPC   GL111158  18.384  18.985  13.223 -0.2674 -0.2387  0.0435
 1002POPC   GL211159  18.721  19.132  13.157  0.0353  0.0290  0.0693
 1002POPC   C1A11160  18.632  18.901  13.627 -0.1284 -0.0542 -0.1100
 1002POPC   D2A11161  18.782  18.682  13.975 -0.1768 -0.1439  0.0181
 1002POPC   C3A11162  18.777  18.258  13.948 -0.0167  0.0427 -0.3130
 1002POPC   C4A11163  19.050  17.998  14.052 -0.2040 -0.0618  0.3644
 1002POPC   C1B11164  19.027  19.076  13.347 -0.0052 -0.0525  0.1067
 1002POPC   C2B11165  19.195  18.788  13.694 -0.1874  0.0413  0.1089
 1002POPC   C3B11166  19.241  18.490  14.030  0.1458  0.4657 -0.1379
 1002POPC   C4B11167  19.577  18.225  14.113  0.4833 -0.0269  0.0310
 1003POPC   NC311168  20.065  15.021   7.693  0.1441  0.0493  0.0592
 1003POPC   PO411169  20.422  15.088   7.904 -0.4167 -0.1519 -0.4739
 1003POPC   GL111170  20.812  15.141   8.044  0.0212  0.2454 -0.2420
 1003POPC   GL211171  20.854  15.432   8.103  0.0063 -0.1038  0.2793
 1003POPC   C1A11172  21.244  15.065   8.134  0.1160 -0.0204  0.0117
 1003POPC   D2A11173  21.702  15.080   8.198  0.1378 -0.2410  0.3603
 1003POPC   C3A11174  21.858  14.611   7.977  0.0502 -0.0890 -0.3763
 1003POPC   C4A11175  21.607  14.300   7.949 -0.0026  0.1910  0.1226
 1003POPC   C1B11176  21.240  15.523   8.199  0.0299 -0.0443 -0.0555
 1003POPC   C2B11177  21.571  15.736   8.229  0.1597 -0.0959 -0.1968
 1003POPC   C3B11178  21.878  15.921   8.491  0.0707  0.0170  0.1692
 1003POPC   C4B11179  22.106  15.768   8.849  0.3759  0.0979  0.1837
 1004DOPC   NC311180   7.413   8.932  12.967 -0.2310  0.0241 -0.2721
 1004DOPC   PO411181   7.639   9.354  13.082  0.2596 -0.1578  0.0096
 1004DOPC   GL111182   7.380   9.425  13.361 -0.0301  0.3383  0.2977
 1004DOPC   GL211183   7.283   9.113  13.418  0.3190  0.0508  0.1494
 1004DOPC   C1A11184   7.155   9.760  13.527  0.1165  0.1960 -0.0076
 1004DOPC   D2A11185   6.919  10.151  13.796 -0.0891 -0.2718 -0.0669
 1004DOPC   C3A11186   6.891  10.568  13.886  0.0622 -0.3116  0.2009
 1004DOPC   C4A11187   6.678  10.785  14.108  0.0327  0.2252  0.0529
 1004DOPC   C1B11188   6.961   9.319  13.624 -0.2129  0.0616 -0.0233
 1004DOPC   D2B11189   6.775   9.181  13.852  0.2613  0.4925 -0.1991
 1004DOPC   C3B11190   6.669   9.220  14.244  0.1629 -0.1267  0.1405
 1004DOPC   C4B11191   6.595   9.559  14.511 -0.4523 -0.0568  0.1700
 1005DOPC   NC311192  24.630  24.108   2.682 -0.0775  0.0536  0.1980
 1005DOPC   PO411193  24.589  24.258   3.156 -0.0340 -0.0523  0.0196
 1005DOPC   GL111194  24.750  24.137   3.581  0.1734 -0.0495 -0.0063
 1005DOPC   GL211195  24.687  23.910   3.673 -0.2454  0.3077 -0.0246
 1005DOPC   C1A11196  25.098  24.206   3.807 -0.5021  0.0477  0.1645
 1005DOPC   D2A11197  25.367  24.392   4.119  0.1437 -0.3022 -0.2506
 1005DOPC   C3A11198  25.555  24.154   4.405 -0.0796 -0.0041  0.2175
 1005DOPC   C4A11199  25.956  23.980   4.538  0.0784 -0.0469 -0.0778
 1005DOPC   C1B11200  24.963  23.745   4.002  0.0729 -0.2087 -0.0342
 1005DOPC   D2B11201  25.171  23.715   4.374  0.0680 -0.2054  0.1298
 1005DOPC   C3B11202  24.912  23.711   4.624  0.2617 -0.0868 -0.0621
 1005DOPC   C4B11203  24.779  23.464   4.934  0.1897 -0.0241 -0.0336
 1006DOPC   NC311204  13.426  26.793  17.754 -0.1943  0.2738  0.0508
 1006DOPC   PO411205  13.047  26.938  17.701  0.4672  0.0716 -0.0354
 1006DOPC   GL111206  13.024  26.999  18.141 -0.1688  0.0652  0.1964
 1006DOPC   GL211207  13.159  26.753  18.249 -0.1113 -0.0120 -0.0454
 1006DOPC   C1A11208  13.193  27.398  18.335 -0.1911 -0.1294  0.0119
 1006DOPC   D2A11209  13.309  27.540  18.783 -0.2078 -0.3583  0.0841
 1006DOPC   C3A11210  13.497  27.779  18.996 -0.0138 -0.0032 -0.1829
 1006DOPC   C4A11211  13.840  28.041  19.075 -0.2683  0.0184  0.1287
 1006DOPC   C1B11212  13.183  27.061  18.718  0.3237  0.2682 -0.4455
 1006DOPC   D2B11213  13.127  27.175  19.129 -0.2075  0.0723 -0.0774
 1006DOPC   C3B11214  13.493  27.268  19.306  0.0811 -0.0588 -0.0608
 1006DOPC   C4B11215  13.440  27.659  19.425 -0.1185  0.3192 -0.0042
 1007DOPC   NC311216   2.993  27.556  11.330 -0.1192  0.4016  0.0506
 1007DOPC   PO411217   2.967  27.502  11.797  0.2432  0.0615 -0.1161
 1007DOPC   GL111218   2.623  27.485  11.697 -0.1821 -0.0675  0.1962
 1007DOPC   GL211219   2.388  27.344  11.388  0.1459 -0.2592  0.0763
 1007DOPC   C1A11220   2.341  27.176  11.803  0.1219  0.1782 -0.1709
 1007DOPC   D2A11221   2.029  27.020  11.994 -0.0447  0.1490 -0.0111
 1007DOPC   C3A11222   2.100  26.656  12.273  0.0572 -0.1381  0.1755
 1007DOPC   C4A11223   1.832  26.313  12.327 -0.1734  0.0514  0.0546
 1007DOPC   C1B11224   2.033  27.073  11.353  0.0425  0.0191  0.0526
 1007DOPC   D2B11225   1.714  26.901  11.512 -0.0219  0.1402  0.0258
 1007DOPC   C3B11226   1.501  26.803  11.838 -0.2011 -0.0299  0.1003
 1007DOPC   C4B11227   1.542  26.854  12.252 -0.2921 -0.1528  0.2764
 1008DOPC   NC311228  14.062  23.652  17.738 -0.1020 -0.2933  0.0966
 1008DOPC   PO411229  14.185  24.059  17.821 -0.1136 -0.2038  0.0148
 1008DOPC   GL111230  14.339  24.235  18.221  0.1574 -0.0538  0.0120
 1008DOPC   GL211231  14.103  24.435  18.253  0.0776 -0.1502 -0.5633
 1008DOPC   C1A11232  14.436  24.263  18.641 -0.1326 -0.2796 -0.3886
 1008DOPC   D2A11233  14.575  24.161  19.100 -0.1977 -0.0337 -0.2291
 1008DOPC   C3A11234  14.954  24.105  19.306  0.3849 -0.0331 -0.3810
 1008DOPC   C4A11235  15.341  24.430  19.339 -0.1043 -0.2477 -0.2349
 1008DOPC   C1B11236  14.221  24.705  18.572 -0.2200 -0.1280 -0.1318
 1008DOPC   D2B11237  14.377  24.604  19.031  0.2383 -0.0947  0.1393
 1008DOPC   C3B11238  14.182  24.495  19.390 -0.0940 -0.3592  0.0444
 1008DOPC   C4B11239  14.036  24.292  19.767  0.2292 -0.1515 -0.0115
 1009DOPC   NC311240  12.571  13.205  14.232  0.1625 -0.2797 -0.1163
 1009DOPC   PO411241  12.764  12.886  14.526 -0.1323  0.2054  0.2079
 1009DOPC   GL111242  12.741  12.672  14.895  0.3824 -0.0478  0.3394
 1009DOPC   GL211243  13.035  12.752  14.951 -0.2029 -0.0144 -0.1416
 1009DOPC   C1A11244  12.625  12.731  15.232  0.1203 -0.3840 -0.3995
 1009DOPC   D2A11245  12.585  12.802  15.658 -0.0413 -0.0894 -0.1632
 1009DOPC   C3A11246  12.140  12.518  15.841  0.0393 -0.0381 -0.0509
 1009DOPC   C4A11247  12.177  12.231  16.262  0.0585 -0.0611 -0.1198
 1009DOPC   C1B11248  13.139  12.884  15.398 -0.1545  0.0085 -0.1205
 1009DOPC   D2B11249  13.204  12.864  15.822  0.0977 -0.2866 -0.0169
 1009DOPC   C3B11250  13.363  12.704  16.131 -0.1396  0.0230  0.1741
 1009DOPC   C4B11251  13.374  12.466  16.495  0.1508  0.1069  0.0710
 1010DOPC   NC311252  26.153  20.330   0.737  0.2322 -0.0839  0.3242
 1010DOPC   PO411253  25.813  20.058   0.777 -0.1154  0.0568  0.0730
 1010DOPC   GL111254  25.937  20.157   1.231  0.1655  0.3673  0.2412
 1010DOPC   GL211255  26.090  20.388   1.215 -0.3783  0.2910 -0.0158
 1010DOPC   C1A11256  25.888  19.996   1.661 -0.1636 -0.3307 -0.1905
 1010DOPC   D2A11257  26.023  19.841   2.049 -0.0613  0.0123 -0.2393
 1010DOPC   C3A11258  25.747  19.557   2.405 -0.4736 -0.3467 -0.1006
 1010DOPC   C4A11259  25.413  19.391   2.709 -0.1933 -0.0001  0.3233
 1010DOPC   C1B11260  26.339  20.288   1.542 -0.1239 -0.1994  0.0830
 1010DOPC   D2B11261  26.619  20.183   1.980 -0.3804  0.1554  0.3738
 1010DOPC   C3B11262  27.041  20.447   2.081 -0.0170  0.1131 -0.1690
 1010DOPC   C4B11263  27.317  20.598   2.419 -0.1539 -0.0910  0.3253
 1011DOPC   NC311264  33.566  32.674   7.468  0.0938 -0.2647 -0.1686
 1011DOPC   PO411265  33.369  32.494   7.923 -0.1108  0.1301  0.3156
 1011DOPC   GL111266  33.429  32.488   8.340 -0.0629 -0.2951 -0.1367
 1011DOPC   GL211267  33.174  32.232   8.461  0.2729  0.0441 -0.1794
 1011DOPC   C1A11268  33.514  32.348   8.764 -0.2032  0.0085 -0.0303
 1011DOPC   D2A11269  33.559  32.444   9.072 -0.2109 -0.3011 -0.1966
 1011DOPC   C3A11270  33.380  32.504   9.378 -0.0609 -0.5550 -0.2603
 1011DOPC   C4A11271  33.428  32.620   9.787  0.0376  0.2826  0.2332
 1011DOPC   C1B11272  33.007  32.345   8.869 -0.0390  0.0611 -0.1687
 1011DOPC   D2B11273  32.913  32.289   9.301  0.1988 -0.1007 -0.2374
 1011DOPC   C3B11274  32.889  32.638   9.721 -0.2850 -0.0211 -0.1521
 1011DOPC   C4B11275  32.653  32.846  10.017 -0.0473  0.0412  0.0179
 1012DOPC   NC311276  29.233  34.660   5.855 -0.3205  0.1121 -0.1998
 1012DOPC   PO411277  29.656  34.590   6.160 -0.0923  0.0222  0.1618
 1012DOPC   GL111278  29.483  34.524   6.591 -0.1454 -0.2080  0.1289
 1012DOPC   GL211279  29.564  34.197   6.708 -0.0062 -0.0440  0.2587
 1012DOPC   C1A11280  29.100  34.405   6.758  0.1131  0.2005 -0.4004
 1012DOPC   D2A11281  29.009  34.363   7.212 -0.1733  0.2281  0.2562
 1012DOPC   C3A11282  28.875  34.311   7.637 -0.0112  0.1139  0.0493
 1012DOPC   C4A11283  28.685  34.064   8.018  0.0196 -0.0587  0.1183
 1012DOPC   C1B11284  29.374  33.965   7.008 -0.0666  0.0084  0.0643
 1012DOPC   D2B11285  29.395  33.655   7.260  0.2284 -0.0938  0.0739
 1012DOPC   C3B11286  29.438  33.609   7.626 -0.0791 -0.2295  0.1912
 1012DOPC   C4B11287  29.188  33.274   7.789 -0.0487  0.0887  0.2532
 1013DOPC   NC311288  16.208  13.637  13.865 -0.0756 -0.3135 -0.2911
 1013DOPC   PO411289  16.317  14.038  13.801 -0.0147  0.0826 -0.1587
 1013DOPC   GL111290  16.677  14.142  14.107  0.1656 -0.1615  0.0035
 1013DOPC   GL211291  16.878  14.303  13.984  0.5075 -0.3393  0.1948
 1013DOPC   C1A11292  16.846  14.156  14.534 -0.0596  0.0555 -0.1836
 1013DOPC   D2A11293  17.038  14.202  14.980 -0.2299  0.0947  0.1926
 1013DOPC   C3A11294  16.710  14.171  15.239  0.2989 -0.0062  0.0403
 1013DOPC   C4A11295  16.765  13.974  15.650  0.0592 -0.3078  0.3003
 1013DOPC   C1B11296  17.095  14.560  14.303  0.1455  0.0188 -0.0490
 1013DOPC   D2B11297  17.268  14.765  14.761  0.0413 -0.0511  0.3338
 1013DOPC   C3B11298  17.351  14.598  15.128  0.0562  0.0188  0.2578
 1013DOPC   C4B11299  17.308  14.307  15.477  0.0397 -0.3390  0.4378
 1014DOPC   NC311300   1.397  29.586   9.514  0.0794 -0.0837 -0.3801
 1014DOPC   PO411301   1.170  30.025   9.304 -0.1323 -0.2009  0.0115
 1014DOPC   GL111302   0.886  29.707   9.611  0.2763  0.0202 -0.2256
 1014DOPC   GL211303   0.763  29.518   9.529 -0.0711 -0.0912  0.0997
 1014DOPC   C1A11304   0.821  29.631  10.048  0.2395 -0.1429  0.0117
 1014DOPC   D2A11305   0.771  29.754  10.427  0.2099  0.0059  0.3328
 1014DOPC   C3A11306   0.422  29.901  10.651  0.1827 -0.1028 -0.2757
 1014DOPC   C4A11307   0.101  29.874  10.868 -0.1635  0.0167 -0.3230
 1014DOPC   C1B11308   0.388  29.374   9.745 -0.0980  0.2069 -0.0981
 1014DOPC   D2B11309   0.133  29.726   9.898 -0.0711  0.1271 -0.1927
 1014DOPC   C3B11310  35.217  29.694  10.214  0.0365 -0.1371  0.0310
 1014DOPC   C4B11311  35.032  29.857  10.548  0.0019  0.1459 -0.2476
 1015DOPC   NC311312  23.159  31.809   6.290 -0.0468  0.2535 -0.1654
 1015DOPC   PO411313  23.264  31.387   6.239 -0.0439  0.0332  0.0018
 1015DOPC   GL111314  23.471  31.322   6.541 -0.0390 -0.1948 -0.1325
 1015DOPC   GL211315  23.460  31.598   6.659  0.0818  0.0356  0.3098
 1015DOPC   C1A11316  23.921  31.297   6.747  0.0014  0.0241 -0.2474
 1015DOPC   D2A11317  24.336  31.367   6.921 -0.4725  0.0495 -0.2756
 1015DOPC   C3A11318  24.388  31.395   7.396 -0.2576 -0.2685 -0.0866
 1015DOPC   C4A11319  24.451  31.274   7.791  0.0092 -0.2699  0.0358
 1015DOPC   C1B11320  23.561  31.418   7.080  0.0931  0.2463  0.3790
 1015DOPC   D2B11321  23.948  31.338   7.228  0.3441  0.0677 -0.0882
 1015DOPC   C3B11322  24.031  31.039   7.609 -0.0865  0.1933 -0.0013
 1015DOPC   C4B11323  23.938  31.063   8.020  0.3281 -0.0198  0.1714
 1016DOPC   NC311324   1.841  25.524   6.226 -0.2287 -0.0604  0.0598
 1016DOPC   PO411325   1.516  25.588   6.290  0.1017  0.1392 -0.0716
 1016DOPC   GL111326   1.131  25.367   6.152 -0.0306 -0.0090  0.0207
 1016DOPC   GL211327   0.934  25.218   5.884  0.0518 -0.1645  0.1000
 1016DOPC   C1A11328   0.632  25.409   6.325  0.1484 -0.2550  0.0590
 1016DOPC   D2A11329   0.502  25.368   6.722  0.4005 -0.1038 -0.0590
 1016DOPC   C3A11330   0.401  24.964   6.964  0.1229  0.0662  0.1302
 1016DOPC   C4A11331   0.577  24.851   7.356 -0.0950 -0.0272  0.1166
 1016DOPC   C1B11332   0.827  24.899   6.283 -0.4910  0.1612  0.0972
 1016DOPC   D2B11333   0.744  24.767   6.651 -0.1260 -0.0545 -0.2961
 1016DOPC   C3B11334   0.564  24.371   6.776 -0.2616 -0.3693 -0.0120
 1016DOPC   C4B11335   0.319  23.978   6.604 -0.0609  0.0715 -0.2048
 1017DOPC   NC311336   5.952  20.479   7.722  0.0581 -0.0932 -0.3318
 1017DOPC   PO411337   6.021  20.787   8.070 -0.0360 -0.0885 -0.0824
 1017DOPC   GL111338   5.641  20.718   8.068 -0.2382 -0.1737  0.0934
 1017DOPC   GL211339   5.623  20.963   8.287 -0.2656 -0.1779  0.0110
 1017DOPC   C1A11340   5.265  20.456   8.176 -0.0732 -0.1865 -0.0779
 1017DOPC   D2A11341   4.820  20.479   8.432 -0.1334 -0.0011  0.2773
 1017DOPC   C3A11342   4.544  20.225   8.450 -0.0225  0.2143 -0.0206
 1017DOPC   C4A11343   4.182  20.200   8.590  0.0566  0.0460 -0.3462
 1017DOPC   C1B11344   5.388  20.836   8.473 -0.1659 -0.0126 -0.2754
 1017DOPC   D2B11345   5.218  20.643   8.700 -0.0873  0.0761 -0.0029
 1017DOPC   C3B11346   4.836  20.698   8.909 -0.1120 -0.3239 -0.2300
 1017DOPC   C4B11347   4.416  20.598   8.806 -0.0271  0.0160 -0.0722
 1018DOPC   NC311348  27.376  13.565   0.001  0.0457 -0.1984  0.0787
 1018DOPC   PO411349  27.548  13.472   0.529 -0.2383 -0.1205 -0.2494
 1018DOPC   GL111350  27.554  13.396   0.918 -0.1787 -0.3219 -0.0678
 1018DOPC   GL211351  27.854  13.263   1.027 -0.0604  0.0112  0.2378
 1018DOPC   C1A11352  27.519  13.284   1.442 -0.0465  0.0417  0.1540
 1018DOPC   D2A11353  27.490  12.934   1.657 -0.1835  0.0418  0.1278
 1018DOPC   C3A11354  27.145  12.725   1.946  0.1928  0.1232  0.1687
 1018DOPC   C4A11355  27.100  12.678   2.469  0.2792  0.1214 -0.0105
 1018DOPC   C1B11356  27.986  13.286   1.412 -0.4795 -0.3328 -0.2010
 1018DOPC   D2B11357  28.182  13.441   1.791 -0.3266  0.2594  0.1132
 1018DOPC   C3B11358  28.239  13.506   2.167  0.0133 -0.1516 -0.2130
 1018DOPC   C4B11359  28.429  13.770   2.394 -0.1994 -0.2482  0.1905
 1019DOPC   NC311360  26.749  24.269   1.247 -0.2082 -0.1426  0.3740
 1019DOPC   PO411361  26.981  23.948   1.069 -0.1146 -0.1537  0.0390
 1019DOPC   GL111362  26.987  23.606   1.303  0.0387 -0.1710  0.2373
 1019DOPC   GL211363  26.706  23.557   1.344  0.2574  0.0213  0.0021
 1019DOPC   C1A11364  27.011  23.400   1.784  0.1606  0.4299 -0.0228
 1019DOPC   D2A11365  27.098  23.361   2.257 -0.0010 -0.1657  0.0909
 1019DOPC   C3A11366  26.880  23.573   2.525  0.2910  0.2411 -0.0753
 1019DOPC   C4A11367  26.580  23.349   2.675  0.0091  0.3856 -0.2066
 1019DOPC   C1B11368  26.745  23.176   1.439  0.0994 -0.2153  0.4126
 1019DOPC   D2B11369  26.846  22.946   1.717  0.1762  0.2059 -0.0559
 1019DOPC   C3B11370  27.263  22.953   1.885 -0.4533 -0.0884  0.1793
 1019DOPC   C4B11371  27.425  22.970   2.243  0.1575 -0.0129  0.1243
 1020DOPC   NC311372  18.947  17.328  11.604  0.2446  0.0622  0.0898
 1020DOPC   PO411373  18.929  17.691  11.973 -0.1758  0.1759  0.1614
 1020DOPC   GL111374  19.189  17.631  12.034 -0.0644  0.1198  0.4342
 1020DOPC   GL211375  19.295  17.376  11.997 -0.2784  0.0817 -0.2355
 1020DOPC   C1A11376  19.532  17.543  12.420 -0.1440  0.2285 -0.0631
 1020DOPC   D2A11377  19.906  17.491  12.681  0.1126 -0.0600 -0.2090
 1020DOPC   C3A11378  20.110  17.198  12.843  0.1418 -0.1079  0.1649
 1020DOPC   C4A11379  20.139  16.885  13.171 -0.2107  0.0154 -0.1099
 1020DOPC   C1B11380  19.694  17.153  12.094 -0.1765  0.2056  0.4002
 1020DOPC   D2B11381  20.011  17.163  12.330  0.0616  0.1085  0.0363
 1020DOPC   C3B11382  20.319  17.552  12.366  0.0672  0.0951 -0.1071
 1020DOPC   C4B11383  20.543  17.523  12.700  0.2061 -0.1088 -0.0331
 1021DOPC   NC311384  13.704  29.073  16.275 -0.2861  0.2920 -0.2672
 1021DOPC   PO411385  13.734  28.913  16.588 -0.2230  0.1214 -0.0483
 1021DOPC   GL111386  13.639  29.422  16.666  0.0429  0.4213 -0.6139
 1021DOPC   GL211387  13.908  29.521  16.496  0.3769 -0.2396 -0.1811
 1021DOPC   C1A11388  13.771  29.892  16.827  0.1537  0.3159  0.2332
 1021DOPC   D2A11389  13.919  30.095  17.290  0.0835  0.0553 -0.0044
 1021DOPC   C3A11390  13.974  30.410  17.415  0.2663 -0.1801  0.0992
 1021DOPC   C4A11391  13.889  30.684  17.878  0.2355  0.1171 -0.0639
 1021DOPC   C1B11392  14.350  29.690  16.628  0.0857 -0.0748  0.0914
 1021DOPC   D2B11393  14.633  29.648  16.890 -0.3166  0.1984  0.1902
 1021DOPC   C3B11394  15.100  29.719  16.801 -0.3266 -0.1597  0.2328
 1021DOPC   C4B11395  15.543  29.949  16.988  0.1306 -0.2537  0.3670
 1022DOPC   NC311396  24.383   9.228   3.466 -0.0011  0.0344  0.0345
 1022DOPC   PO411397  24.551   9.085   3.748  0.0334  0.0411  0.0395
 1022DOPC   GL111398  24.856   9.437   3.922 -0.2394 -0.0644  0.1304
 1022DOPC   GL211399  24.915   9.488   4.261  0.0468  0.2781 -0.2262
 1022DOPC   C1A11400  25.188   9.699   3.926  0.0490  0.2739 -0.0614
 1022DOPC   D2A11401  25.445  10.060   4.112  0.0325 -0.2611  0.1074
 1022DOPC   C3A11402  25.449  10.342   4.453 -0.0093 -0.1197  0.1170
 1022DOPC   C4A11403  25.491  10.743   4.445  0.0377 -0.0125 -0.4017
 1022DOPC   C1B11404  25.298   9.380   4.483 -0.2947 -0.0201  0.0898
 1022DOPC   D2B11405  25.512   9.349   4.822 -0.0645 -0.2527  0.2046
 1022DOPC   C3B11406  25.297   9.351   5.155 -0.2075  0.1671  0.0397
 1022DOPC   C4B11407  25.317   9.672   5.435 -0.0806  0.0787 -0.1882
 1023DOPC   NC311408  17.272  33.257  10.265 -0.1162  0.0513  0.0685
 1023DOPC   PO411409  17.386  33.134  10.632  0.1384 -0.3275 -0.2402
 1023DOPC   GL111410  17.544  33.015  11.008  0.1252 -0.2332 -0.0365
 1023DOPC   GL211411  17.573  32.666  11.081 -0.1329  0.1028 -0.0483
 1023DOPC   C1A11412  17.786  33.236  11.378  0.2644 -0.3187 -0.3373
 1023DOPC   D2A11413  18.025  33.561  11.546 -0.0417  0.3003 -0.1294
 1023DOPC   C3A11414  17.798  33.868  11.698  0.1752 -0.0129  0.1790
 1023DOPC   C4A11415  17.523  34.086  11.995 -0.3652 -0.2959 -0.3573
 1023DOPC   C1B11416  17.926  32.758  11.440 -0.0569  0.0578 -0.1106
 1023DOPC   D2B11417  18.024  32.970  11.736 -0.2072  0.1134 -0.0838
 1023DOPC   C3B11418  18.056  32.772  12.136 -0.1131 -0.0394 -0.5752
 1023DOPC   C4B11419  18.287  32.612  12.360  0.1490 -0.4295  0.4167
 1024DOPC   NC311420  23.095  34.842   7.468  0.1507 -0.0718  0.0218
 1024DOPC   PO411421  22.933  35.286   7.606  0.1886  0.1255  0.3076
 1024DOPC   GL111422  23.008   0.189   7.931  0.3225 -0.0658 -0.2870
 1024DOPC   GL211423  22.928  35.318   8.129  0.0572 -0.2877  0.0476
 1024DOPC   C1A11424  23.359   0.224   8.191  0.0176 -0.1578  0.0631
 1024DOPC   D2A11425  23.514   0.190   8.581  0.1467  0.4556  0.1347
 1024DOPC   C3A11426  23.327   0.283   8.940 -0.0395 -0.0714 -0.2957
 1024DOPC   C4A11427  23.166   0.524   9.281  0.0244  0.0776  0.1313
 1024DOPC   C1B11428  23.322  35.161   8.348  0.1460 -0.3487  0.2890
 1024DOPC   D2B11429  23.652  35.068   8.599  0.0908 -0.2106 -0.1327
 1024DOPC   C3B11430  23.759  35.095   8.996 -0.1364 -0.2836 -0.2013
 1024DOPC   C4B11431  23.918  34.942   9.282  0.1418 -0.3321  0.3601
 1025DOPC   NC311432  30.860   0.333   6.987 -0.1928  0.2880 -0.0517
 1025DOPC   PO411433  30.462   0.200   6.860 -0.1362 -0.1160  0.0271
 1025DOPC   GL111434  30.410  35.347   7.149  0.2105 -0.2835  0.3418
 1025DOPC   GL211435  30.121  35.380   7.221 -0.1481 -0.0364 -0.0061
 1025DOPC   C1A11436  30.500  35.357   7.539 -0.1552 -0.2013 -0.0193
 1025DOPC   D2A11437  30.324  35.115   7.873 -0.1744 -0.0602 -0.0885
 1025DOPC   C3A11438  30.187  35.279   8.240  0.1804 -0.1233  0.0125
 1025DOPC   C4A11439  29.804  35.131   8.596  0.1806 -0.0789  0.2254
 1025DOPC   C1B11440  29.990   0.065   7.652  0.0480  0.1135  0.0683
 1025DOPC   D2B11441  29.871   0.157   8.040  0.0423 -0.4188 -0.0725
 1025DOPC   C3B11442  29.504  35.319   8.208  0.0922  0.1357  0.0250
 1025DOPC   C4B11443  29.328  34.960   8.290 -0.0307 -0.1005 -0.1506
 1026DOPC   NC311444   3.339   6.117   8.964  0.0493 -0.1991 -0.3536
 1026DOPC   PO411445   3.503   6.500   9.088 -0.1789 -0.1058 -0.0233
 1026DOPC   GL111446   3.209   6.796   9.246  0.1570  0.0861 -0.0509
 1026DOPC   GL211447   3.050   6.740   8.876  0.1726  0.0519 -0.3173
 1026DOPC   C1A11448   2.972   6.935   9.577  0.1647 -0.0171 -0.0294
 1026DOPC   D2A11449   2.983   7.025   9.999 -0.1797 -0.1012 -0.0832
 1026DOPC   C3A11450   3.111   7.378  10.377 -0.0720  0.0333  0.0166
 1026DOPC   C4A11451   2.860   7.762  10.618 -0.0950 -0.0445 -0.0418
 1026DOPC   C1B11452   2.690   6.858   9.119  0.2690  0.2546  0.1499
 1026DOPC   D2B11453   2.400   6.865   9.493  0.0037  0.3942  0.3711
 1026DOPC   C3B11454   2.292   7.192   9.633 -0.0529  0.1002 -0.2991
 1026DOPC   C4B11455   2.257   7.624   9.536 -0.1253  0.1482  0.2612
 1027DOPC   NC311456   4.846  10.408   9.799 -0.0998  0.1742 -0.0295
 1027DOPC   PO411457   4.445  10.592   9.789  0.0178 -0.2870 -0.0299
 1027DOPC   GL111458   4.291  10.253  10.053 -0.1299  0.0274  0.0628
 1027DOPC   GL211459   4.215  10.624  10.242  0.0778  0.0976 -0.0817
 1027DOPC   C1A11460   4.073  10.040  10.415 -0.0122  0.0456 -0.0686
 1027DOPC   D2A11461   3.662  10.099  10.498 -0.1657  0.0099 -0.2655
 1027DOPC   C3A11462   3.564   9.859  10.876  0.1409 -0.1973  0.1119
 1027DOPC   C4A11463   3.778   9.901  11.229 -0.0723 -0.1112  0.1370
 1027DOPC   C1B11464   3.940  10.983  10.357 -0.0808 -0.3782 -0.0298
 1027DOPC   D2B11465   3.666  11.328  10.504 -0.0019 -0.3404  0.3148
 1027DOPC   C3B11466   3.740  11.559  10.811  0.0652  0.1139  0.1492
 1027DOPC   C4B11467   3.808  12.025  10.971  0.0846 -0.1742 -0.3960
 1028DOPC   NC311468   7.123   3.082  14.221  0.2473  0.1019 -0.0218
 1028DOPC   PO411469   7.018   2.697  14.515 -0.0942 -0.0921 -0.2059
 1028DOPC   GL111470   6.619   2.732  14.769  0.4195 -0.1461  0.1668
 1028DOPC   GL211471   6.317   2.692  14.666 -0.1033 -0.3425  0.0270
 1028DOPC   C1A11472   6.333   2.596  15.144  0.1714  0.1277  0.1109
 1028DOPC   D2A11473   6.016   2.760  15.387  0.2479  0.0201  0.3087
 1028DOPC   C3A11474   5.938   3.189  15.648  0.2630 -0.1077 -0.1924
 1028DOPC   C4A11475   5.707   3.534  15.863 -0.2707 -0.0244  0.3014
 1028DOPC   C1B11476   5.957   2.801  14.875 -0.1994 -0.1231  0.1047
 1028DOPC   D2B11477   5.611   3.032  15.185 -0.1733 -0.1751 -0.1246
 1028DOPC   C3B11478   5.493   2.992  15.597 -0.0145  0.0732  0.0859
 1028DOPC   C4B11479   5.322   3.049  15.964 -0.2549  0.1320  0.1042
 1029DOPC   NC311480  18.716   9.328  12.574 -0.3173 -0.0743  0.3843
 1029DOPC   PO411481  18.437   9.563  12.822 -0.2605 -0.0366 -0.3495
 1029DOPC   GL111482  18.537   9.887  13.139  0.2400 -0.1209 -0.1494
 1029DOPC   GL211483  18.732  10.072  12.967 -0.2172  0.0643 -0.0114
 1029DOPC   C1A11484  18.748  10.070  13.459 -0.2229  0.5344  0.0285
 1029DOPC   D2A11485  18.556  10.166  13.860  0.0218 -0.0471  0.0393
 1029DOPC   C3A11486  18.793  10.187  14.230 -0.2443  0.1542  0.0767
 1029DOPC   C4A11487  19.244  10.400  14.341  0.2162  0.1332 -0.1082
 1029DOPC   C1B11488  19.117   9.884  13.221 -0.1008  0.0019  0.0019
 1029DOPC   D2B11489  19.193   9.629  13.525  0.1103  0.0262  0.0705
 1029DOPC   C3B11490  19.457   9.672  13.951 -0.3535  0.0697 -0.0711
 1029DOPC   C4B11491  19.754   9.644  14.348  0.1012 -0.0906 -0.2064
 1030DOPC   NC311492   2.508  16.395   3.208  0.1222 -0.0643 -0.1559
 1030DOPC   PO411493   2.287  16.360   3.520  0.0599  0.0924 -0.2718
 1030DOPC   GL111494   1.910  16.490   3.767  0.0280 -0.0010 -0.1599
 1030DOPC   GL211495   1.664  16.557   3.557 -0.0871  0.1291  0.0517
 1030DOPC   C1A11496   1.741  16.799   4.129  0.0474  0.0187  0.2623
 1030DOPC   D2A11497   1.398  17.005   4.398  0.1340 -0.1385  0.3869
 1030DOPC   C3A11498   0.990  17.013   4.183  0.0064  0.0024 -0.1680
 1030DOPC   C4A11499   0.891  17.003   3.789  0.1333 -0.0344  0.0763
 1030DOPC   C1B11500   1.579  16.163   3.938  0.3404 -0.1331 -0.4210
 1030DOPC   D2B11501   1.738  16.267   4.246  0.2770  0.2859 -0.0696
 1030DOPC   C3B11502   1.523  16.349   4.558  0.2637  0.1657  0.0115
 1030DOPC   C4B11503   1.080  16.465   4.606 -0.1032 -0.1131 -0.1816
 1031DOPC   NC311504  26.745   8.616   2.227 -0.0541  0.0438 -0.1239
 1031DOPC   PO411505  26.882   8.486   2.569 -0.1415 -0.1628  0.2289
 1031DOPC   GL111506  26.730   8.791   2.839 -0.2468 -0.0098 -0.1553
 1031DOPC   GL211507  26.598   8.802   3.193  0.0825 -0.2949  0.1384
 1031DOPC   C1A11508  26.712   9.293   3.063  0.1799  0.3087 -0.1505
 1031DOPC   D2A11509  26.547   9.659   3.026  0.0036  0.3314 -0.1727
 1031DOPC   C3A11510  26.524   9.872   3.401  0.3181  0.1724  0.3863
 1031DOPC   C4A11511  26.344  10.147   3.701  0.0262 -0.1007 -0.2055
 1031DOPC   C1B11512  26.772   9.060   3.526 -0.1152  0.2044  0.1443
 1031DOPC   D2B11513  27.034   9.221   3.853 -0.1047 -0.0518  0.0256
 1031DOPC   C3B11514  27.078   9.585   4.111 -0.2734  0.1308  0.1232
 1031DOPC   C4B11515  27.053  10.120   4.183  0.0986 -0.1061 -0.2126
 1032DOPC   NC311516   8.757  24.246  17.006  0.1462 -0.1254 -0.0203
 1032DOPC   PO411517   8.787  24.626  17.212  0.2217  0.2141  0.0376
 1032DOPC   GL111518   8.581  24.726  17.656 -0.0349  0.0623  0.2199
 1032DOPC   GL211519   8.337  24.901  17.644 -0.2845 -0.0710  0.3699
 1032DOPC   C1A11520   8.532  24.778  18.109  0.1908  0.1630  0.0734
 1032DOPC   D2A11521   8.388  24.810  18.456  0.1126 -0.2790  0.2807
 1032DOPC   C3A11522   8.155  25.212  18.331  0.1314  0.1079  0.0416
 1032DOPC   C4A11523   8.247  25.616  18.552  0.0321 -0.0575 -0.1261
 1032DOPC   C1B11524   8.365  25.150  17.810  0.2939 -0.1308  0.2727
 1032DOPC   D2B11525   8.314  25.562  18.035  0.2304  0.0436  0.5421
 1032DOPC   C3B11526   7.968  25.816  17.890  0.1347  0.0709 -0.1318
 1032DOPC   C4B11527   7.819  25.720  18.247  0.0738  0.3439 -0.4802
 1033DOPC   NC311528  27.159  11.471   1.436 -0.1027  0.0333 -0.0844
 1033DOPC   PO411529  27.550  11.594   1.242  0.2782  0.0093 -0.1873
 1033DOPC   GL111530  27.639  11.320   1.534  0.2803  0.0605  0.1631
 1033DOPC   GL211531  27.507  11.058   1.569  0.3452 -0.4182 -0.0576
 1033DOPC   C1A11532  27.919  11.614   1.843 -0.1764 -0.1205  0.1810
 1033DOPC   D2A11533  28.197  11.929   1.924 -0.0793 -0.1368 -0.2459
 1033DOPC   C3A11534  28.218  11.936   2.381 -0.1681  0.1145 -0.1086
 1033DOPC   C4A11535  28.301  11.765   2.764 -0.0483 -0.2438 -0.0122
 1033DOPC   C1B11536  27.906  11.049   1.829 -0.0098 -0.3366 -0.4716
 1033DOPC   D2B11537  28.088  10.930   2.209  0.1659 -0.2944  0.2228
 1033DOPC   C3B11538  28.213  10.459   2.288 -0.1427  0.0142  0.1062
 1033DOPC   C4B11539  27.957  10.172   2.619  0.2013  0.0694 -0.2549
 1034DOPC   NC311540  12.358  16.156  13.966  0.1815 -0.0590  0.0079
 1034DOPC   PO411541  12.632  15.849  14.017  0.2096  0.0285 -0.5227
 1034DOPC   GL111542  12.439  15.928  14.362 -0.0424 -0.1642  0.1057
 1034DOPC   GL211543  12.570  15.890  14.570 -0.1087  0.2811  0.2409
 1034DOPC   C1A11544  12.012  15.940  14.490  0.2964  0.0235 -0.1769
 1034DOPC   D2A11545  11.496  15.887  14.622  0.3198  0.1587  0.1765
 1034DOPC   C3A11546  11.462  15.514  14.926 -0.0194 -0.1068  0.3987
 1034DOPC   C4A11547  11.650  15.429  15.382 -0.2722 -0.3393 -0.2604
 1034DOPC   C1B11548  12.494  15.756  14.955  0.1185  0.1833  0.0419
 1034DOPC   D2B11549  12.286  15.936  15.332 -0.1542 -0.1918  0.2863
 1034DOPC   C3B11550  12.217  15.778  15.681 -0.1806  0.0344  0.0598
 1034DOPC   C4B11551  12.098  15.647  16.095 -0.1681 -0.0310  0.2616
 1035DOPC   NC311552   4.727   1.571  12.377 -0.1239 -0.0610 -0.0087
 1035DOPC   PO411553   4.770   1.285  12.705  0.0205  0.3151  0.1770
 1035DOPC   GL111554   4.700   1.283  13.176  0.1368  0.2759  0.2188
 1035DOPC   GL211555   4.840   1.118  13.335  0.1509  0.3588  0.0127
 1035DOPC   C1A11556   4.453   1.410  13.421 -0.0155 -0.1394  0.0192
 1035DOPC   D2A11557   4.261   1.744  13.497 -0.3572  0.0255  0.1812
 1035DOPC   C3A11558   3.804   1.741  13.576  0.0098 -0.3143 -0.1649
 1035DOPC   C4A11559   3.442   1.968  13.789 -0.0297 -0.2782  0.3583
 1035DOPC   C1B11560   4.781   1.378  13.768 -0.1339  0.1609  0.0071
 1035DOPC   D2B11561   4.483   1.682  13.899  0.0177  0.0093  0.2923
 1035DOPC   C3B11562   4.487   2.020  14.170 -0.3216 -0.0763 -0.2428
 1035DOPC   C4B11563   4.770   2.384  14.204  0.0887 -0.2406 -0.0097
 1036DOPC   NC311564  21.396  12.418   6.698  0.0718 -0.3822  0.3073
 1036DOPC   PO411565  21.379  12.052   6.398 -0.4363 -0.1822  0.1519
 1036DOPC   GL111566  21.824  12.201   6.515 -0.1791  0.1224 -0.0693
 1036DOPC   GL211567  22.155  12.120   6.408  0.1470  0.2795 -0.1242
 1036DOPC   C1A11568  22.051  12.581   6.569  0.1867 -0.0321  0.1958
 1036DOPC   D2A11569  22.486  12.661   6.639  0.2464 -0.3504  0.2405
 1036DOPC   C3A11570  22.726  13.038   6.564 -0.0167 -0.1129  0.0914
 1036DOPC   C4A11571  22.896  13.252   6.196 -0.3112  0.2724 -0.0961
 1036DOPC   C1B11572  22.591  12.137   6.618 -0.1261 -0.0417 -0.0395
 1036DOPC   D2B11573  22.962  12.270   6.760 -0.0031 -0.3007 -0.1881
 1036DOPC   C3B11574  23.142  12.554   6.504 -0.0168  0.1786 -0.3312
 1036DOPC   C4B11575  23.235  12.919   6.741 -0.1817  0.1963  0.0905
 1037DOPC   NC311576   0.195   5.410   7.585 -0.2007 -0.0995  0.1044
 1037DOPC   PO411577  35.222   5.487   7.408 -0.1534 -0.1912  0.3000
 1037DOPC   GL111578  35.121   5.690   7.789  0.1222  0.0001  0.0357
 1037DOPC   GL211579  35.378   5.709   7.968 -0.2263  0.1663  0.3491
 1037DOPC   C1A11580  34.886   5.829   8.120  0.1324  0.1689 -0.0838
 1037DOPC   D2A11581  34.578   5.930   8.392  0.1456  0.4284  0.4123
 1037DOPC   C3A11582  34.442   6.267   8.691 -0.4112  0.1876  0.0232
 1037DOPC   C4A11583  34.294   6.690   8.645 -0.0167  0.2949 -0.2836
 1037DOPC   C1B11584  35.374   6.144   8.163  0.0306  0.2814  0.1714
 1037DOPC   D2B11585   0.329   6.331   8.228  0.1405 -0.1720  0.0870
 1037DOPC   C3B11586   0.466   6.589   8.597  0.0996 -0.0843  0.2599
 1037DOPC   C4B11587   0.747   6.713   8.833  0.2451  0.2585  0.0465
 1038DOPC   NC311588  19.016   2.293   9.931  0.1838 -0.1218  0.0321
 1038DOPC   PO411589  19.320   1.989   9.957 -0.2625  0.0007  0.0042
 1038DOPC   GL111590  19.464   1.562  10.081  0.1859  0.1660 -0.2901
 1038DOPC   GL211591  19.488   1.254   9.908  0.3618  0.0986 -0.0345
 1038DOPC   C1A11592  19.603   1.291  10.388  0.2282  0.0730  0.0292
 1038DOPC   D2A11593  19.763   0.957  10.670  0.1783  0.4056  0.1970
 1038DOPC   C3A11594  19.866   1.225  11.027 -0.0982  0.0396  0.0908
 1038DOPC   C4A11595  20.179   1.372  11.399  0.1388 -0.3095  0.0061
 1038DOPC   C1B11596  19.770   0.946  10.001  0.0610  0.1292  0.1161
 1038DOPC   D2B11597  19.941   0.524  10.251  0.1599  0.1608  0.4167
 1038DOPC   C3B11598  19.819   0.117   9.963  0.4594  0.2150 -0.0803
 1038DOPC   C4B11599  19.592  35.178   9.658 -0.1858  0.1723  0.2046
 1039DOPC   NC311600  18.281  33.859   8.940  0.0966  0.2789  0.2987
 1039DOPC   PO411601  18.604  33.543   9.079  0.2346  0.0461 -0.3874
 1039DOPC   GL111602  19.001  33.481   9.400 -0.0173 -0.1527 -0.0851
 1039DOPC   GL211603  19.084  33.818   9.554  0.1025 -0.0299 -0.0956
 1039DOPC   C1A11604  19.262  33.329   9.700 -0.1821  0.0425 -0.0024
 1039DOPC   D2A11605  19.235  33.243  10.084  0.3059  0.0834  0.3859
 1039DOPC   C3A11606  19.072  32.822  10.076  0.0575 -0.0544  0.1060
 1039DOPC   C4A11607  18.721  32.587  10.237 -0.1465 -0.0958 -0.1966
 1039DOPC   C1B11608  19.478  33.787   9.679 -0.0200 -0.0005 -0.3783
 1039DOPC   D2B11609  19.773  33.880   9.944  0.0097  0.1157 -0.2201
 1039DOPC   C3B11610  19.714  33.541  10.181  0.1080 -0.0777 -0.1788
 1039DOPC   C4B11611  19.603  33.059  10.437  0.1646  0.0061 -0.2485
 1040DOPC   NC311612  20.840  23.736   7.192  0.1609  0.3017 -0.0282
 1040DOPC   PO411613  20.731  23.775   7.634  0.2843  0.0449  0.0484
 1040DOPC   GL111614  21.107  23.834   7.928 -0.0091 -0.0613 -0.2810
 1040DOPC   GL211615  21.421  23.834   7.946 -0.1377 -0.0265 -0.3141
 1040DOPC   C1A11616  21.269  24.032   8.378 -0.2732 -0.3845  0.1359
 1040DOPC   D2A11617  21.410  24.395   8.477  0.1029  0.0210  0.2117
 1040DOPC   C3A11618  21.797  24.513   8.431  0.0310 -0.0963  0.0797
 1040DOPC   C4A11619  22.150  24.383   8.667 -0.1827  0.2226 -0.2541
 1040DOPC   C1B11620  21.773  23.999   8.244  0.0882  0.0259 -0.2558
 1040DOPC   D2B11621  22.172  24.160   8.243  0.0781 -0.1542  0.3022
 1040DOPC   C3B11622  22.542  24.415   8.265  0.2902 -0.1862  0.1072
 1040DOPC   C4B11623  23.014  24.440   8.390 -0.0403 -0.0915  0.2164
 1041DOPC   NC311624  11.660  33.546  15.457  0.3123  0.1514 -0.1892
 1041DOPC   PO411625  11.731  33.878  15.852  0.0699  0.0863 -0.0443
 1041DOPC   GL111626  11.922  34.004  16.249 -0.1362  0.1431 -0.2561
 1041DOPC   GL211627  11.985  33.807  16.563  0.1261  0.1716 -0.0239
 1041DOPC   C1A11628  12.155  34.317  16.508  0.1878  0.0236  0.1272
 1041DOPC   D2A11629  12.263  34.668  16.623 -0.1971  0.0471  0.1785
 1041DOPC   C3A11630  12.603  34.567  16.940 -0.1045 -0.0441 -0.0992
 1041DOPC   C4A11631  12.675  34.355  17.389  0.1845  0.2316  0.1210
 1041DOPC   C1B11632  12.116  34.017  16.926 -0.5282  0.0163  0.1348
 1041DOPC   D2B11633  12.353  34.098  17.138  0.1417 -0.0730  0.1329
 1041DOPC   C3B11634  12.176  34.221  17.461 -0.3121  0.1780 -0.2673
 1041DOPC   C4B11635  12.187  34.439  17.904 -0.2210 -0.1049  0.1853
 1042DOPC   NC311636  10.791   9.815  14.614  0.1993  0.1173  0.2101
 1042DOPC   PO411637  11.036   9.588  14.891 -0.2474 -0.0765 -0.1434
 1042DOPC   GL111638  10.934   9.455  15.253  0.1574 -0.1054 -0.1413
 1042DOPC   GL211639  10.884   9.817  15.312 -0.2395  0.2160  0.1111
 1042DOPC   C1A11640  10.811   9.490  15.698  0.1757  0.2197  0.0319
 1042DOPC   D2A11641  10.698   9.610  16.091 -0.2968 -0.0302 -0.2396
 1042DOPC   C3A11642  10.468   9.443  16.522  0.0647 -0.0686 -0.5962
 1042DOPC   C4A11643  10.637   9.238  16.964  0.3741 -0.1220 -0.4352
 1042DOPC   C1B11644  10.658   9.929  15.649 -0.3334  0.2266 -0.0746
 1042DOPC   D2B11645  10.679  10.085  16.085 -0.1779  0.1988  0.0048
 1042DOPC   C3B11646  10.967  10.043  16.368 -0.0237  0.0652 -0.0031
 1042DOPC   C4B11647  11.275  10.051  16.675  0.1465  0.2392 -0.1342
 1043DOPC   NC311648   4.081  35.015  12.392  0.0614  0.2695 -0.0137
 1043DOPC   PO411649   3.837  35.309  12.490  0.2705 -0.1019  0.0197
 1043DOPC   GL111650   3.683  35.169  12.874 -0.1653  0.2116 -0.0472
 1043DOPC   GL211651   4.013  35.100  13.034  0.1769  0.0327  0.4941
 1043DOPC   C1A11652   3.385  35.043  13.165 -0.0820 -0.1094 -0.1548
 1043DOPC   D2A11653   2.982  35.072  13.092  0.1455  0.1639  0.3573
 1043DOPC   C3A11654   2.703   0.004  13.063  0.0477 -0.0419 -0.2184
 1043DOPC   C4A11655   2.530   0.248  13.366 -0.1873  0.1688 -0.1788
 1043DOPC   C1B11656   3.815  35.005  13.350  0.0028 -0.3776  0.2946
 1043DOPC   D2B11657   3.539  34.775  13.631 -0.2421  0.1152 -0.1545
 1043DOPC   C3B11658   3.178  35.015  13.726 -0.0103  0.0351 -0.0601
 1043DOPC   C4B11659   2.876  35.249  13.523  0.0019 -0.2042  0.1660
 1044DOPC   NC311660  18.398  14.840  11.311  0.0984  0.4940  0.0937
 1044DOPC   PO411661  18.719  14.680  11.621 -0.2542 -0.0380 -0.0533
 1044DOPC   GL111662  18.941  14.560  11.862  0.0792  0.2685  0.0367
 1044DOPC   GL211663  18.653  14.488  12.095  0.1750  0.2368 -0.2022
 1044DOPC   C1A11664  19.194  14.472  12.178 -0.0772  0.2674 -0.0482
 1044DOPC   D2A11665  19.544  14.502  12.345  0.0668  0.1119  0.0536
 1044DOPC   C3A11666  19.787  14.509  12.808 -0.0777 -0.0790  0.0874
 1044DOPC   C4A11667  20.092  14.607  13.247  0.0766  0.3111 -0.3829
 1044DOPC   C1B11668  18.703  14.541  12.554 -0.4265 -0.0157 -0.2050
 1044DOPC   D2B11669  18.840  14.614  12.992  0.1252  0.1665  0.0953
 1044DOPC   C3B11670  19.232  14.462  13.342  0.0092 -0.2211  0.1238
 1044DOPC   C4B11671  19.399  14.626  13.839 -0.0475  0.0300  0.2707
 1045DOPC   NC311672  18.839  16.171  10.618 -0.1178 -0.1878  0.0845
 1045DOPC   PO411673  19.071  15.895  10.557  0.3504  0.3494  0.3401
 1045DOPC   GL111674  19.484  15.815  10.843 -0.1506  0.1296 -0.0311
 1045DOPC   GL211675  19.554  15.464  10.935 -0.1561 -0.0848  0.1025
 1045DOPC   C1A11676  19.949  15.827  10.975  0.0556 -0.1883 -0.1078
 1045DOPC   D2A11677  20.315  15.792  11.276  0.0901 -0.0818  0.0884
 1045DOPC   C3A11678  20.565  16.065  11.488  0.0096 -0.2930  0.1440
 1045DOPC   C4A11679  20.959  16.024  11.789 -0.1616  0.0307  0.1459
 1045DOPC   C1B11680  19.858  15.490  11.308 -0.2869 -0.2341  0.0935
 1045DOPC   D2B11681  20.101  15.403  11.594 -0.1402 -0.0621 -0.1316
 1045DOPC   C3B11682  20.544  15.521  11.669  0.2353 -0.1029  0.2940
 1045DOPC   C4B11683  20.953  15.427  11.905 -0.2270 -0.0368 -0.0428
 1046DOPC   NC311684  19.707  32.070   8.309 -0.0061 -0.4129 -0.1416
 1046DOPC   PO411685  19.958  32.076   8.730 -0.3253  0.3774 -0.3733
 1046DOPC   GL111686  20.261  32.147   9.026  0.1464 -0.0886 -0.1052
 1046DOPC   GL211687  20.415  31.917   9.086  0.0515  0.0435 -0.2257
 1046DOPC   C1A11688  20.290  32.470   9.330 -0.1533 -0.1808 -0.1125
 1046DOPC   D2A11689  20.584  32.629   9.594  0.3080  0.0398  0.0455
 1046DOPC   C3A11690  20.442  32.878   9.976  0.2955  0.2779 -0.2716
 1046DOPC   C4A11691  20.535  33.049  10.250  0.0494 -0.4389 -0.3818
 1046DOPC   C1B11692  20.550  32.083   9.441  0.0103 -0.0443  0.2091
 1046DOPC   D2B11693  20.845  32.130   9.761  0.1787  0.0324  0.0695
 1046DOPC   C3B11694  21.080  32.490   9.767  0.0646 -0.0919 -0.1358
 1046DOPC   C4B11695  21.124  32.694  10.164  0.0715 -0.1397  0.3011
 1047DOPC   NC311696   8.734   6.310  14.122 -0.2648 -0.0881 -0.2293
 1047DOPC   PO411697   8.543   5.980  14.174  0.0766 -0.1458 -0.2769
 1047DOPC   GL111698   8.236   5.959  14.466  0.0816  0.2988 -0.5043
 1047DOPC   GL211699   8.228   6.165  14.606  0.2359  0.0305  0.0927
 1047DOPC   C1A11700   8.022   5.732  14.773  0.0449 -0.1287  0.1705
 1047DOPC   D2A11701   7.877   5.567  15.120  0.3013 -0.0980  0.0283
 1047DOPC   C3A11702   7.802   5.749  15.624 -0.1979  0.1868  0.0617
 1047DOPC   C4A11703   7.525   5.914  15.836 -0.2247  0.0362 -0.3029
 1047DOPC   C1B11704   7.928   6.141  14.972 -0.0094 -0.0030  0.1972
 1047DOPC   D2B11705   7.690   6.011  15.237  0.2736  0.0678 -0.4780
 1047DOPC   C3B11706   7.561   6.287  15.533 -0.1480  0.1151  0.0577
 1047DOPC   C4B11707   7.292   6.409  15.913 -0.1680 -0.2659  0.1362
 1048DOPC   NC311708  22.060  22.157   4.277 -0.0495 -0.1069 -0.3092
 1048DOPC   PO411709  22.487  21.964   4.301 -0.0122  0.1671  0.1641
 1048DOPC   GL111710  22.586  21.802   4.639  0.1954 -0.0009  0.0634
 1048DOPC   GL211711  22.710  21.488   4.682  0.2362  0.0916 -0.0455
 1048DOPC   C1A11712  23.032  21.980   4.827 -0.0027 -0.0083 -0.1984
 1048DOPC   D2A11713  23.308  22.183   4.955 -0.1100 -0.3956  0.2744
 1048DOPC   C3A11714  23.554  22.369   5.219  0.1213  0.0047  0.0735
 1048DOPC   C4A11715  23.896  22.294   5.470  0.1834 -0.2756 -0.0987
 1048DOPC   C1B11716  23.056  21.385   4.949 -0.4123  0.1072  0.0304
 1048DOPC   D2B11717  23.492  21.212   5.001  0.0627 -0.2969 -0.0353
 1048DOPC   C3B11718  23.736  20.858   5.234 -0.2736  0.0644 -0.1355
 1048DOPC   C4B11719  24.161  20.776   4.984 -0.0674 -0.2040  0.0561
 1049DOPC   NC311720  27.310  16.219   0.085  0.0245 -0.3139 -0.0266
 1049DOPC   PO411721  26.970  15.989   0.423  0.0609 -0.0133 -0.0365
 1049DOPC   GL111722  27.138  16.085   0.784  0.0028  0.1724 -0.1757
 1049DOPC   GL211723  27.336  15.906   0.782  0.3017 -0.3938  0.0066
 1049DOPC   C1A11724  27.008  16.131   1.191  0.0094 -0.1667  0.6022
 1049DOPC   D2A11725  26.930  16.230   1.555 -0.2248  0.0146  0.1211
 1049DOPC   C3A11726  26.790  16.627   1.836 -0.0574 -0.1438 -0.1288
 1049DOPC   C4A11727  26.776  16.916   2.172  0.0021 -0.0183  0.0368
 1049DOPC   C1B11728  27.756  15.697   1.048  0.0506  0.1839  0.1816
 1049DOPC   D2B11729  28.291  15.720   1.016 -0.1056  0.4377  0.2225
 1049DOPC   C3B11730  28.617  15.506   1.193  0.0797 -0.1344 -0.1213
 1049DOPC   C4B11731  28.925  15.465   1.300 -0.2258  0.0583 -0.0882
 1050DOPC   NC311732  35.328  21.915   1.782  0.0730 -0.0269 -0.0621
 1050DOPC   PO411733  34.998  22.233   1.664 -0.0825 -0.1993  0.1578
 1050DOPC   GL111734  35.006  22.218   2.062  0.0302 -0.2448 -0.1881
 1050DOPC   GL211735  34.791  22.226   2.321 -0.0172 -0.2299 -0.0019
 1050DOPC   C1A11736  35.201  21.927   2.367  0.1989 -0.0902 -0.3705
 1050DOPC   D2A11737   0.036  21.858   2.774 -0.0829 -0.1175  0.2612
 1050DOPC   C3A11738  35.245  21.715   3.145  0.0322 -0.1815  0.0255
 1050DOPC   C4A11739  34.900  21.663   3.558  0.0555  0.2093  0.0606
 1050DOPC   C1B11740  34.727  22.063   2.599 -0.0229  0.2551  0.0653
 1050DOPC   D2B11741  34.349  22.163   2.631 -0.0066 -0.2744 -0.0785
 1050DOPC   C3B11742  34.161  21.890   2.822 -0.2775 -0.1514  0.2209
 1050DOPC   C4B11743  33.734  21.887   3.031  0.0805 -0.3038 -0.2185
 1051DOPC   NC311744   6.788  34.284  14.963  0.0276 -0.1780  0.2516
 1051DOPC   PO411745   7.238  34.484  15.218 -0.0167  0.1948  0.1600
 1051DOPC   GL111746   6.842  34.467  15.466 -0.1755 -0.0668  0.3500
 1051DOPC   GL211747   6.618  34.689  15.366  0.3256  0.1259  0.0559
 1051DOPC   C1A11748   6.589  34.599  15.976  0.3427  0.0053 -0.2008
 1051DOPC   D2A11749   6.339  34.564  16.306  0.0538 -0.2972 -0.3102
 1051DOPC   C3A11750   6.281  34.722  16.742  0.2769  0.0822 -0.1599
 1051DOPC   C4A11751   6.528  35.015  16.943 -0.3135 -0.3573 -0.3096
 1051DOPC   C1B11752   6.900  34.903  15.720 -0.0621  0.0961 -0.2997
 1051DOPC   D2B11753   6.729  35.052  16.126  0.1052 -0.5136 -0.0068
 1051DOPC   C3B11754   6.552  34.984  16.349  0.2572  0.1991  0.0450
 1051DOPC   C4B11755   6.166  35.102  16.484  0.0408 -0.0646  0.0387
 1052DOPC   NC311756  19.986  34.010   8.427 -0.1017 -0.2152  0.1547
 1052DOPC   PO411757  20.054  34.444   8.639  0.1580 -0.2086  0.3287
 1052DOPC   GL111758  20.318  34.222   8.857  0.0307 -0.0256  0.3554
 1052DOPC   GL211759  20.240  33.888   8.877  0.2035  0.1740 -0.3117
 1052DOPC   C1A11760  20.413  34.301   9.296 -0.2450 -0.1342  0.1077
 1052DOPC   D2A11761  20.788  34.104   9.516  0.3284 -0.0262  0.3154
 1052DOPC   C3A11762  20.772  33.836   9.783  0.0672  0.0826  0.0797
 1052DOPC   C4A11763  21.107  33.798  10.083 -0.0182  0.0149  0.2080
 1052DOPC   C1B11764  20.500  33.808   9.221 -0.0167  0.0446  0.0336
 1052DOPC   D2B11765  20.793  33.438   9.431 -0.0639 -0.0526  0.1358
 1052DOPC   C3B11766  21.132  33.486   9.761  0.2121  0.0973 -0.0077
 1052DOPC   C4B11767  21.158  33.144  10.113 -0.0004 -0.1499 -0.1262
 1053DOPC   NC311768  22.976  25.904   4.228  0.0556  0.0752 -0.1880
 1053DOPC   PO411769  22.965  25.644   4.557 -0.1210  0.3280  0.1129
 1053DOPC   GL111770  23.251  25.501   4.835  0.0516  0.0310  0.2186
 1053DOPC   GL211771  23.037  25.310   4.933 -0.1598  0.1465  0.2898
 1053DOPC   C1A11772  23.478  25.316   5.203  0.1930 -0.1420  0.1593
 1053DOPC   D2A11773  23.825  25.058   5.217 -0.0618  0.0459 -0.1402
 1053DOPC   C3A11774  23.994  25.388   5.501 -0.0813  0.3579  0.3018
 1053DOPC   C4A11775  23.974  25.571   5.901 -0.1856  0.0338  0.1271
 1053DOPC   C1B11776  22.972  25.347   5.349 -0.2059 -0.1053 -0.0696
 1053DOPC   D2B11777  23.010  25.194   5.775  0.1708 -0.2087  0.0560
 1053DOPC   C3B11778  23.210  25.095   6.116 -0.2238 -0.0420 -0.0010
 1053DOPC   C4B11779  23.259  24.963   6.543 -0.0824  0.1946 -0.0411
 1054DOPC   NC311780  14.200  11.707  14.523 -0.2976 -0.0557 -0.0936
 1054DOPC   PO411781  14.413  12.066  14.582 -0.4575  0.2979 -0.1133
 1054DOPC   GL111782  14.232  11.901  15.015 -0.3087  0.0811  0.1948
 1054DOPC   GL211783  13.839  11.771  15.098  0.0685 -0.0151 -0.0547
 1054DOPC   C1A11784  14.268  11.659  15.432 -0.0271  0.3988 -0.0313
 1054DOPC   D2A11785  14.168  11.561  15.856  0.3475 -0.1179  0.0603
 1054DOPC   C3A11786  13.760  11.551  16.035 -0.1712 -0.5009  0.1372
 1054DOPC   C4A11787  13.485  11.662  16.306 -0.1558  0.1482 -0.2319
 1054DOPC   C1B11788  13.701  11.561  15.513  0.1955  0.2109  0.0001
 1054DOPC   D2B11789  13.370  11.377  15.704 -0.3663 -0.0134 -0.0653
 1054DOPC   C3B11790  13.410  11.199  16.122 -0.1464  0.0743  0.3207
 1054DOPC   C4B11791  13.668  11.220  16.533  0.0012 -0.1384 -0.0096
 1055DOPC   NC311792  16.709  28.262  12.431 -0.0246  0.2914  0.0294
 1055DOPC   PO411793  16.620  28.293  12.772 -0.1027  0.0223  0.2367
 1055DOPC   GL111794  16.957  28.220  13.145  0.0948 -0.4830 -0.2128
 1055DOPC   GL211795  16.974  28.428  13.344  0.3913 -0.0237  0.2040
 1055DOPC   C1A11796  17.443  28.222  13.197 -0.1998 -0.1844 -0.0042
 1055DOPC   D2A11797  17.870  28.380  13.289  0.2322  0.0844 -0.1213
 1055DOPC   C3A11798  18.225  28.055  13.419 -0.2429  0.0258 -0.0667
 1055DOPC   C4A11799  18.362  27.791  13.644  0.0025  0.1640  0.0856
 1055DOPC   C1B11800  16.905  28.734  13.642 -0.0540  0.3986  0.2325
 1055DOPC   D2B11801  17.023  29.045  13.945  0.2101 -0.0679  0.0037
 1055DOPC   C3B11802  17.214  29.055  14.324 -0.4101  0.0097 -0.1497
 1055DOPC   C4B11803  17.645  28.986  14.483  0.1375  0.0535  0.1731
 1056DOPC   NC311804  17.173  16.997  13.750 -0.0233 -0.1204  0.0389
 1056DOPC   PO411805  17.383  17.488  13.667 -0.0086 -0.0249 -0.2109
 1056DOPC   GL111806  17.705  17.108  13.737 -0.2064  0.0334 -0.2022
 1056DOPC   GL211807  18.095  17.182  13.548  0.1302  0.2854 -0.0316
 1056DOPC   C1A11808  17.839  16.679  13.787 -0.3129 -0.0433 -0.0058
 1056DOPC   D2A11809  18.177  16.448  14.005  0.0918  0.0725  0.0001
 1056DOPC   C3A11810  18.450  16.427  14.335 -0.2570 -0.1717  0.2634
 1056DOPC   C4A11811  18.705  16.685  14.591 -0.4695  0.0789  0.0426
 1056DOPC   C1B11812  18.251  16.932  13.908  0.0770 -0.3852 -0.0612
 1056DOPC   D2B11813  18.626  16.652  13.904 -0.1158  0.2428  0.1210
 1056DOPC   C3B11814  18.895  16.568  14.151 -0.1185  0.3750  0.2296
 1056DOPC   C4B11815  19.158  16.363  14.248  0.1864 -0.3422 -0.0477
 1057DOPC   NC311816   1.469  17.110   2.747  0.3466  0.0694  0.0050
 1057DOPC   PO411817   1.678  16.705   3.006 -0.2069  0.2515 -0.1102
 1057DOPC   GL111818   1.477  16.896   3.228 -0.0375 -0.1163  0.4562
 1057DOPC   GL211819   1.223  16.660   3.304 -0.4631  0.1662 -0.2369
 1057DOPC   C1A11820   1.346  17.145   3.488 -0.0330 -0.0168  0.3284
 1057DOPC   D2A11821   1.033  17.480   3.634 -0.1117  0.2344 -0.1665
 1057DOPC   C3A11822   0.690  17.522   3.818 -0.0709  0.0748 -0.0086
 1057DOPC   C4A11823   0.320  17.505   3.943 -0.3746 -0.0244 -0.0606
 1057DOPC   C1B11824   0.856  16.567   3.550  0.0392 -0.3150 -0.0028
 1057DOPC   D2B11825   0.579  16.615   3.873  0.1067 -0.1493 -0.0967
 1057DOPC   C3B11826   0.407  16.977   4.097  0.2684 -0.1204 -0.2109
 1057DOPC   C4B11827   0.166  17.321   4.382 -0.1920  0.3237 -0.2727
 1058DOPC   NC311828  21.272  15.778   4.497 -0.1669 -0.1613 -0.2981
 1058DOPC   PO411829  21.646  15.969   4.742  0.1832 -0.0737 -0.0799
 1058DOPC   GL111830  22.087  15.873   4.700 -0.1406  0.1614  0.0717
 1058DOPC   GL211831  22.134  15.627   4.491 -0.0240 -0.2648 -0.0682
 1058DOPC   C1A11832  22.496  15.890   4.852 -0.1233  0.1334  0.1072
 1058DOPC   D2A11833  22.683  15.673   5.234  0.0718  0.0228 -0.0919
 1058DOPC   C3A11834  22.810  15.424   5.546 -0.0506 -0.1024  0.1751
 1058DOPC   C4A11835  22.946  15.090   5.580  0.0894  0.0550 -0.3330
 1058DOPC   C1B11836  22.431  15.264   4.389  0.0405 -0.0911  0.0785
 1058DOPC   D2B11837  22.932  15.118   4.536  0.1656 -0.0579 -0.3619
 1058DOPC   C3B11838  23.383  15.330   4.589 -0.0859  0.1869 -0.1786
 1058DOPC   C4B11839  23.815  15.145   4.571 -0.1599  0.0320  0.1147
 1059DOPC   NC311840  32.603  18.503   0.340  0.1695  0.3969  0.3495
 1059DOPC   PO411841  32.352  18.487   0.670  0.3255  0.0351 -0.2311
 1059DOPC   GL111842  32.504  18.467   1.098 -0.1447  0.1459 -0.0094
 1059DOPC   GL211843  32.789  18.353   1.135 -0.2207  0.1572 -0.1028
 1059DOPC   C1A11844  32.226  18.679   1.451  0.0093  0.0161  0.0057
 1059DOPC   D2A11845  32.113  18.687   1.831  0.1371 -0.2771  0.2054
 1059DOPC   C3A11846  31.903  18.711   2.198  0.0056  0.1822  0.1763
 1059DOPC   C4A11847  31.625  18.768   2.582  0.0615  0.0953  0.1900
 1059DOPC   C1B11848  32.545  18.268   1.551  0.0198 -0.0498 -0.0293
 1059DOPC   D2B11849  32.496  18.260   1.971  0.2743  0.1188 -0.1958
 1059DOPC   C3B11850  32.025  18.225   2.107  0.0445  0.2952 -0.2417
 1059DOPC   C4B11851  31.619  18.257   2.323  0.1332  0.0161  0.0640
 1060DOPC   NC311852  15.651  10.831  14.820  0.2942  0.1567  0.0589
 1060DOPC   PO411853  15.576  10.451  14.727 -0.1781 -0.0792 -0.2827
 1060DOPC   GL111854  15.652  10.339  15.092  0.0999 -0.0636  0.1185
 1060DOPC   GL211855  15.659  10.588  15.242 -0.0176 -0.3384 -0.1555
 1060DOPC   C1A11856  15.886  10.168  15.481  0.4538  0.1216  0.1090
 1060DOPC   D2A11857  16.156  10.129  15.801 -0.2483 -0.3163 -0.1395
 1060DOPC   C3A11858  16.197   9.869  16.125 -0.2790  0.4099 -0.2044
 1060DOPC   C4A11859  16.444   9.662  16.364 -0.0739  0.0888 -0.0864
 1060DOPC   C1B11860  15.424  10.810  15.494 -0.0985 -0.0540 -0.2485
 1060DOPC   D2B11861  15.433  10.907  15.781 -0.4866 -0.1986  0.0342
 1060DOPC   C3B11862  15.471  10.768  16.183  0.0991  0.2758  0.1177
 1060DOPC   C4B11863  15.432  10.698  16.606 -0.0176 -0.1197 -0.2927
 1061DOPC   NC311864   7.087   5.257  13.611 -0.0274  0.0431 -0.0258
 1061DOPC   PO411865   7.368   4.811  13.709  0.2137  0.1252  0.0525
 1061DOPC   GL111866   7.261   4.740  14.226  0.2294  0.4072  0.0236
 1061DOPC   GL211867   7.320   4.407  14.311  0.1399 -0.0088 -0.4324
 1061DOPC   C1A11868   7.132   5.054  14.568  0.0053 -0.0257  0.0499
 1061DOPC   D2A11869   6.861   5.284  14.839  0.1905 -0.4234  0.0660
 1061DOPC   C3A11870   6.689   5.262  15.253  0.0022  0.0317 -0.0909
 1061DOPC   C4A11871   6.421   5.082  15.510  0.1367 -0.0308  0.0565
 1061DOPC   C1B11872   7.136   4.562  14.659 -0.0292 -0.1839  0.0203
 1061DOPC   D2B11873   6.895   4.714  14.930  0.3200  0.1380  0.1014
 1061DOPC   C3B11874   6.583   4.769  15.215 -0.1317 -0.0924  0.0276
 1061DOPC   C4B11875   6.191   4.626  15.409  0.2636  0.0744 -0.0128
 1062DOPC   NC311876  35.001  34.030   8.782 -0.1765 -0.0259 -0.0077
 1062DOPC   PO411877  35.034  33.663   8.723  0.0698 -0.2681  0.2137
 1062DOPC   GL111878  34.866  33.270   9.047 -0.1528  0.0750 -0.2496
 1062DOPC   GL211879  34.882  32.998   9.144 -0.0312 -0.1114 -0.1490
 1062DOPC   C1A11880  34.721  33.558   9.366 -0.2068  0.0716 -0.1806
 1062DOPC   D2A11881  34.582  33.835   9.633 -0.0729 -0.3610 -0.1891
 1062DOPC   C3A11882  34.326  33.593   9.791 -0.2077 -0.0586 -0.1463
 1062DOPC   C4A11883  33.948  33.610  10.066  0.2039 -0.2641 -0.1543
 1062DOPC   C1B11884  34.675  32.988   9.464 -0.1994  0.0636  0.0607
 1062DOPC   D2B11885  34.652  32.851   9.889  0.1754 -0.1999 -0.3520
 1062DOPC   C3B11886  34.576  32.473  10.002  0.0556 -0.0454  0.3086
 1062DOPC   C4B11887  34.754  32.279  10.296  0.0830  0.0598 -0.0607
 1063DOPC   NC311888   0.612   2.790   7.753  0.1628 -0.1560 -0.1179
 1063DOPC   PO411889   0.664   2.825   8.163 -0.1038  0.1392  0.2718
 1063DOPC   GL111890   0.525   3.125   8.513  0.3893  0.1807 -0.2135
 1063DOPC   GL211891   0.756   3.238   8.700  0.0161  0.1590  0.2368
 1063DOPC   C1A11892   0.308   3.097   8.930 -0.1093 -0.1570 -0.2935
 1063DOPC   D2A11893   0.268   3.244   9.313 -0.4295 -0.1171 -0.1494
 1063DOPC   C3A11894   0.034   3.351   9.699 -0.1470 -0.0300  0.0717
 1063DOPC   C4A11895   0.203   3.613  10.066 -0.0590  0.0389 -0.2882
 1063DOPC   C1B11896   0.786   3.392   9.114 -0.0940 -0.0155 -0.1663
 1063DOPC   D2B11897   0.622   3.627   9.384  0.2757  0.1241  0.0310
 1063DOPC   C3B11898   0.508   3.412   9.726 -0.2565 -0.0767  0.0721
 1063DOPC   C4B11899   0.608   3.372  10.214 -0.0374 -0.2524  0.0893
 1064DOPC   NC311900  17.830  27.293  11.375  0.3907  0.0891 -0.0233
 1064DOPC   PO411901  17.866  27.667  11.200 -0.2978 -0.0577 -0.0464
 1064DOPC   GL111902  17.931  27.777  11.581  0.0312 -0.0669 -0.0427
 1064DOPC   GL211903  18.178  27.936  11.593  0.1644  0.4153 -0.0309
 1064DOPC   C1A11904  18.110  27.696  12.012 -0.2925 -0.2374 -0.1915
 1064DOPC   D2A11905  18.398  27.578  12.312  0.3268 -0.3971 -0.0981
 1064DOPC   C3A11906  18.620  27.748  12.327  0.2040  0.3049 -0.2153
 1064DOPC   C4A11907  18.829  28.071  12.390  0.0808  0.3159 -0.0970
 1064DOPC   C1B11908  18.588  27.989  11.792 -0.1273  0.3653 -0.0333
 1064DOPC   D2B11909  18.913  28.314  11.934  0.0313  0.2466  0.0681
 1064DOPC   C3B11910  19.085  28.477  12.219  0.1304  0.0967  0.3672
 1064DOPC   C4B11911  19.132  28.834  12.283  0.1423 -0.0076 -0.1195
 1065DOPC   NC311912   8.095   0.552  15.212 -0.0211 -0.1885 -0.0611
 1065DOPC   PO411913   8.111   0.415  15.664  0.0885 -0.4242 -0.1211
 1065DOPC   GL111914   8.103   0.557  15.952  0.3036  0.0936  0.0171
 1065DOPC   GL211915   8.231   0.383  16.247 -0.2140 -0.0357 -0.1111
 1065DOPC   C1A11916   7.847   0.708  16.248 -0.2512  0.2553  0.1834
 1065DOPC   D2A11917   7.453   0.862  16.277 -0.1000  0.3258  0.3872
 1065DOPC   C3A11918   7.040   0.771  16.508 -0.1654 -0.1328 -0.1363
 1065DOPC   C4A11919   6.853   0.470  16.679  0.0044  0.0662 -0.1745
 1065DOPC   C1B11920   7.944   0.427  16.632 -0.1709  0.1546 -0.2075
 1065DOPC   D2B11921   7.612   0.684  16.735  0.2844  0.5169 -0.0614
 1065DOPC   C3B11922   7.433   1.005  16.991  0.3410 -0.1250 -0.1033
 1065DOPC   C4B11923   7.265   1.272  17.178 -0.0436  0.2085  0.2150
 1066DOPC   NC311924  21.321   8.589   9.666 -0.0178 -0.2975 -0.0216
 1066DOPC   PO411925  21.585   8.490   9.363 -0.2193  0.1774  0.1627
 1066DOPC   GL111926  21.809   8.383   9.732  0.0368 -0.2606 -0.1452
 1066DOPC   GL211927  21.650   8.170   9.909  0.2168 -0.3699 -0.1032
 1066DOPC   C1A11928  22.151   8.543   9.917 -0.1020 -0.1301 -0.0924
 1066DOPC   D2A11929  22.443   8.425  10.142 -0.0212 -0.1974 -0.3822
 1066DOPC   C3A11930  22.888   8.413  10.092  0.0602  0.2880  0.2212
 1066DOPC   C4A11931  23.151   8.701   9.872 -0.2639 -0.1234  0.0572
 1066DOPC   C1B11932  21.995   8.090  10.144 -0.1781 -0.1199 -0.2930
 1066DOPC   D2B11933  22.218   7.730  10.138  0.1436  0.1722  0.1169
 1066DOPC   C3B11934  22.423   7.922  10.379 -0.1527  0.3991 -0.0845
 1066DOPC   C4B11935  22.381   8.112  10.663  0.0249  0.1721 -0.1617
 1067DOPC   NC311936   6.656  26.143  15.847  0.0720  0.0813 -0.3295
 1067DOPC   PO411937   6.727  25.775  15.485 -0.0114  0.3034 -0.1624
 1067DOPC   GL111938   6.271  25.906  15.628  0.2773 -0.1928  0.0376
 1067DOPC   GL211939   6.201  25.672  15.596  0.1674 -0.0100  0.1032
 1067DOPC   C1A11940   5.865  25.950  15.868 -0.0765 -0.0503  0.0406
 1067DOPC   D2A11941   5.414  25.786  15.849  0.3202  0.0900  0.1142
 1067DOPC   C3A11942   5.063  25.686  16.187  0.0631 -0.0449  0.0155
 1067DOPC   C4A11943   5.057  25.415  16.482 -0.7412 -0.1490  0.2326
 1067DOPC   C1B11944   5.782  25.564  15.598 -0.2885 -0.3008  0.3854
 1067DOPC   D2B11945   5.595  25.160  15.630  0.0646 -0.1872  0.3490
 1067DOPC   C3B11946   5.585  24.884  15.174 -0.0127  0.0075 -0.0149
 1067DOPC   C4B11947   5.768  24.730  14.949  0.0637 -0.3282 -0.2767
 1068DOPC   NC311948   4.384  30.628  14.276  0.1365  0.1503 -0.0584
 1068DOPC   PO411949   4.499  30.294  14.356  0.0114  0.0723 -0.0406
 1068DOPC   GL111950   4.742  30.363  14.760  0.0980  0.2973 -0.3829
 1068DOPC   GL211951   4.900  30.081  14.994  0.2020 -0.0692 -0.3009
 1068DOPC   C1A11952   4.673  30.472  15.144 -0.0638 -0.0153  0.3827
 1068DOPC   D2A11953   4.768  30.785  15.496 -0.1836  0.1020 -0.0546
 1068DOPC   C3A11954   4.606  30.903  15.777  0.2752  0.1509  0.1607
 1068DOPC   C4A11955   4.140  31.033  15.871  0.0431  0.1856 -0.0576
 1068DOPC   C1B11956   4.435  30.018  15.094  0.4029 -0.2969 -0.1516
 1068DOPC   D2B11957   3.980  29.969  15.185 -0.0609  0.2669 -0.3262
 1068DOPC   C3B11958   3.763  30.187  15.362 -0.1424  0.1233  0.0232
 1068DOPC   C4B11959   3.406  30.479  15.185  0.0323  0.0146  0.0585
 1069DOPC   NC311960  31.098  18.702  26.218  0.0860 -0.0936 -0.2143
 1069DOPC   PO411961  30.646  18.550   0.146  0.0739 -0.2439  0.0764
 1069DOPC   GL111962  30.604  18.899   0.455  0.1660 -0.1112 -0.1852
 1069DOPC   GL211963  30.320  19.210   0.273  0.0286  0.1239 -0.0918
 1069DOPC   C1A11964  30.644  18.954   0.783 -0.1561  0.0260 -0.0071
 1069DOPC   D2A11965  30.697  19.151   0.985  0.2611 -0.0629 -0.2103
 1069DOPC   C3A11966  30.561  19.174   1.323 -0.1672  0.0881  0.0099
 1069DOPC   C4A11967  30.409  19.401   1.656  0.0786  0.2532  0.1575
 1069DOPC   C1B11968  30.684  19.407   0.530 -0.1788 -0.0011  0.1194
 1069DOPC   D2B11969  30.797  19.693   0.890 -0.2577 -0.1568 -0.1238
 1069DOPC   C3B11970  31.202  19.816   1.080 -0.0239 -0.0324  0.1473
 1069DOPC   C4B11971  31.267  19.857   1.502  0.0019 -0.4224 -0.0979
 1070DOPC   NC311972  20.436  10.332   9.824 -0.1804 -0.0191 -0.0182
 1070DOPC   PO411973  20.591  10.588  10.070 -0.1075 -0.0152 -0.1987
 1070DOPC   GL111974  20.828  10.660  10.399 -0.0890 -0.0984 -0.2829
 1070DOPC   GL211975  21.083  10.559  10.293  0.0769  0.0647  0.2122
 1070DOPC   C1A11976  21.054  11.001  10.542  0.0183 -0.0909 -0.3034
 1070DOPC   D2A11977  21.487  11.123  10.697  0.1563 -0.0381 -0.0851
 1070DOPC   C3A11978  21.556  11.310  11.169  0.0101  0.1150 -0.0914
 1070DOPC   C4A11979  21.814  11.623  11.236  0.1377  0.0839  0.1369
 1070DOPC   C1B11980  21.392  10.513  10.575 -0.2852 -0.0553 -0.0875
 1070DOPC   D2B11981  21.742  10.624  10.800  0.2152  0.1993  0.2337
 1070DOPC   C3B11982  21.941  11.077  10.840  0.2711 -0.2672 -0.0406
 1070DOPC   C4B11983  22.010  11.417  10.623 -0.1039  0.2388  0.0732
 1071DOPC   NC311984   3.904  16.501   5.380 -0.2621 -0.1332  0.0569
 1071DOPC   PO411985   3.769  16.177   5.109  0.2508 -0.1879 -0.0118
 1071DOPC   GL111986   3.556  16.128   5.502 -0.1030 -0.5508 -0.0078
 1071DOPC   GL211987   3.254  16.387   5.476  0.0743 -0.0305  0.1795
 1071DOPC   C1A11988   3.443  16.006   5.967 -0.2301  0.2346  0.0719
 1071DOPC   D2A11989   3.208  16.079   6.364  0.4533 -0.0845  0.1016
 1071DOPC   C3A11990   2.736  16.089   6.543 -0.2372  0.1160  0.0689
 1071DOPC   C4A11991   2.484  16.097   6.838 -0.1919  0.0072 -0.1231
 1071DOPC   C1B11992   2.816  16.337   5.360 -0.2698  0.0820  0.1614
 1071DOPC   D2B11993   2.454  16.191   5.387  0.0327 -0.1899 -0.0518
 1071DOPC   C3B11994   2.173  16.130   5.659 -0.2500  0.1222  0.1448
 1071DOPC   C4B11995   1.869  16.058   5.956  0.3522  0.0666 -0.0259
 1072PAPC   NC311996   5.634  13.702  10.078 -0.3037 -0.1006 -0.0026
 1072PAPC   PO411997   5.526  14.168  10.216  0.0572  0.0268 -0.3634
 1072PAPC   GL111998   5.326  14.465  10.117  0.0176  0.2328 -0.1352
 1072PAPC   GL211999   5.118  14.342   9.884 -0.0467  0.1467 -0.1360
 1072PAPC   D1A12000   5.216  14.843  10.015 -0.1484  0.0265 -0.2210
 1072PAPC   D2A12001   4.948  14.810   9.799  0.0541 -0.0228 -0.0816
 1072PAPC   D3A12002   4.749  15.163  10.151 -0.1905 -0.1138 -0.0096
 1072PAPC   D4A12003   4.411  15.466   9.925  0.0326  0.1964  0.0801
 1072PAPC   C5A12004   4.130  15.724  10.044 -0.0590 -0.1537  0.0557
 1072PAPC   C1B12005   4.673  14.413  10.066  0.1261  0.1087  0.1062
 1072PAPC   C2B12006   4.244  14.431  10.190  0.1365 -0.0536  0.1851
 1072PAPC   C3B12007   3.808  14.238  10.259 -0.0344  0.0360 -0.1518
 1072PAPC   C4B12008   3.641  13.825  10.297 -0.0942 -0.2479 -0.2089
 1073PAPC   NC312009  16.922  34.499  10.088  0.1169 -0.1340  0.1338
 1073PAPC   PO412010  17.297  34.157   9.939  0.0922 -0.0055 -0.0210
 1073PAPC   GL112011  17.618  34.222  10.358 -0.1489 -0.0288  0.0230
 1073PAPC   GL212012  17.916  34.284  10.166  0.0012 -0.2974 -0.1987
 1073PAPC   D1A12013  17.537  34.491  10.700  0.0396  0.0194  0.0796
 1073PAPC   D2A12014  17.723  34.578  11.104 -0.1795  0.2064  0.1079
 1073PAPC   D3A12015  17.814  34.892  11.399  0.1830  0.2004 -0.1338
 1073PAPC   D4A12016  18.175  34.975  11.243 -0.0297  0.2664  0.0400
 1073PAPC   C5A12017  18.244  34.628  11.464  0.1877  0.0731  0.1056
 1073PAPC   C1B12018  18.069  34.328  10.523 -0.1299 -0.0633 -0.4042
 1073PAPC   C2B12019  18.199  34.556  10.942  0.4716 -0.0852 -0.2043
 1073PAPC   C3B12020  18.562  34.731  11.085  0.3223 -0.0489 -0.2925
 1073PAPC   C4B12021  18.656  34.943  11.420  0.1874  0.1477  0.1155
 1074PAPC   NC312022  33.732   0.894   7.974  0.2009 -0.5135  0.1698
 1074PAPC   PO412023  34.112   0.981   8.132  0.0560  0.1577 -0.0877
 1074PAPC   GL112024  34.449   1.084   8.401  0.0782 -0.2797  0.0004
 1074PAPC   GL212025  34.396   1.346   8.704 -0.0721  0.2493  0.1622
 1074PAPC   D1A12026  34.758   1.059   8.791 -0.2831 -0.0091  0.0117
 1074PAPC   D2A12027  34.945   0.803   9.185  0.1422  0.0132 -0.0761
 1074PAPC   D3A12028  35.114   1.205   9.188  0.2012  0.2231 -0.2527
 1074PAPC   D4A12029  34.915   1.520   9.243 -0.1991 -0.0171  0.4138
 1074PAPC   C5A12030  34.834   1.642   9.726 -0.1079 -0.0988  0.1445
 1074PAPC   C1B12031  34.423   1.439   9.136  0.3094  0.0223  0.0460
 1074PAPC   C2B12032  34.366   1.379   9.424  0.0901  0.0391 -0.0322
 1074PAPC   C3B12033  34.316   1.552   9.789 -0.1881  0.1203 -0.0069
 1074PAPC   C4B12034  34.588   1.349  10.055  0.0837  0.1344  0.0994
 1075PAPC   NC312035   3.993  25.930   8.879 -0.1077  0.0610  0.0910
 1075PAPC   PO412036   3.808  26.065   9.340 -0.0227 -0.0667  0.1538
 1075PAPC   GL112037   3.461  25.655   9.359  0.1511 -0.1385 -0.0069
 1075PAPC   GL212038   3.441  25.431   9.093 -0.2772 -0.0498 -0.1654
 1075PAPC   D1A12039   3.231  25.387   9.590  0.1113  0.0010 -0.1784
 1075PAPC   D2A12040   3.446  25.216   9.905 -0.1208  0.1001  0.2697
 1075PAPC   D3A12041   3.302  24.950  10.079  0.3623  0.0001  0.1375
 1075PAPC   D4A12042   3.218  25.149  10.416  0.0331  0.0187 -0.2394
 1075PAPC   C5A12043   2.855  24.854  10.458  0.0434  0.2002  0.1214
 1075PAPC   C1B12044   3.230  25.030   9.218 -0.2784  0.2625  0.1819
 1075PAPC   C2B12045   2.987  24.941   9.553 -0.3558 -0.2471  0.0708
 1075PAPC   C3B12046   2.997  24.669   9.789 -0.1102 -0.0411 -0.1488
 1075PAPC   C4B12047   2.645  24.414  10.035  0.1704 -0.1140 -0.0551
 1076PAPC   NC312048  32.019  21.596  26.114 -0.2170  0.1306  0.0850
 1076PAPC   PO412049  31.787  21.962   0.099 -0.0456 -0.1093  0.1549
 1076PAPC   GL112050  31.737  22.040   0.565 -0.0593 -0.1474 -0.0983
 1076PAPC   GL212051  31.898  22.066   0.816  0.2785  0.0029  0.0458
 1076PAPC   D1A12052  31.474  22.311   0.764 -0.0387  0.0219 -0.2431
 1076PAPC   D2A12053  31.175  22.011   0.762 -0.3802  0.1930  0.0060
 1076PAPC   D3A12054  31.210  21.610   1.107  0.1141 -0.3223  0.1639
 1076PAPC   D4A12055  31.147  21.700   1.530  0.2042 -0.1872 -0.1222
 1076PAPC   C5A12056  31.464  21.959   1.694  0.3221 -0.0234 -0.0484
 1076PAPC   C1B12057  31.567  21.964   1.123 -0.2129 -0.0535  0.1555
 1076PAPC   C2B12058  31.262  22.216   1.225 -0.1625 -0.2065 -0.0576
 1076PAPC   C3B12059  31.195  22.422   1.635 -0.1312  0.0867 -0.1535
 1076PAPC   C4B12060  30.882  22.595   1.925  0.0351 -0.0841 -0.1763
 1077PAPC   NC312061  10.207   4.918  14.754 -0.1064 -0.0619 -0.0676
 1077PAPC   PO412062  10.450   5.225  14.751  0.0935 -0.0696 -0.1681
 1077PAPC   GL112063  10.584   5.004  15.089  0.2051  0.0946 -0.2663
 1077PAPC   GL212064  10.912   4.916  14.957 -0.3224 -0.2520 -0.2757
 1077PAPC   D1A12065  10.682   4.672  15.442 -0.1086  0.0949  0.1674
 1077PAPC   D2A12066  10.387   4.697  15.771  0.0085 -0.0966  0.0813
 1077PAPC   D3A12067  10.327   5.261  15.976  0.0663  0.0503  0.0402
 1077PAPC   D4A12068  10.104   4.977  16.200 -0.1577 -0.0541 -0.2626
 1077PAPC   C5A12069  10.080   4.504  16.508  0.0695 -0.4565 -0.1841
 1077PAPC   C1B12070  11.144   4.959  15.372  0.5695 -0.2057 -0.0075
 1077PAPC   C2B12071  11.257   4.823  15.798  0.0165  0.0836 -0.2845
 1077PAPC   C3B12072  11.615   4.855  16.153  0.1882  0.2860  0.2049
 1077PAPC   C4B12073  11.735   5.041  16.562 -0.0274 -0.2516 -0.1868
 1078DAPC   NC312074  20.938  17.458   5.222  0.1429 -0.0748  0.3304
 1078DAPC   PO412075  20.925  17.775   5.486 -0.1763 -0.1772  0.0679
 1078DAPC   GL112076  21.290  17.654   5.678 -0.0667  0.0712  0.0319
 1078DAPC   GL212077  21.266  17.872   5.909  0.3378 -0.0961 -0.0496
 1078DAPC   D1A12078  21.855  17.659   5.701 -0.1129  0.1804  0.1352
 1078DAPC   D2A12079  21.889  17.341   5.311 -0.0990 -0.0844 -0.0903
 1078DAPC   D3A12080  22.212  17.511   5.255  0.1088  0.0429  0.0091
 1078DAPC   D4A12081  21.903  17.801   5.122  0.4032  0.2391 -0.0737
 1078DAPC   C5A12082  21.528  17.861   5.349 -0.0902  0.1101  0.1294
 1078DAPC   D1B12083  21.614  18.193   5.747  0.3690 -0.2547  0.0301
 1078DAPC   D2B12084  21.858  18.334   5.944 -0.0000  0.2159 -0.0299
 1078DAPC   D3B12085  22.195  18.547   5.635  0.1531  0.0177  0.1886
 1078DAPC   D4B12086  22.457  18.343   5.962 -0.1447 -0.1139 -0.1432
 1078DAPC   C5B12087  22.703  18.060   5.861 -0.1114  0.0499 -0.2005
 1079DAPC   NC312088  24.814  27.231   3.593  0.1337 -0.0893 -0.1752
 1079DAPC   PO412089  25.293  27.222   3.814  0.0430 -0.1234 -0.0104
 1079DAPC   GL112090  25.664  27.071   3.659  0.1323 -0.0950 -0.0816
 1079DAPC   GL212091  25.834  27.239   3.785  0.0231  0.2123  0.1955
 1079DAPC   D1A12092  26.012  26.833   3.653  0.0450  0.0489 -0.0835
 1079DAPC   D2A12093  26.344  26.709   4.014  0.5639  0.1244 -0.0486
 1079DAPC   D3A12094  26.578  26.575   3.611 -0.0409  0.0892  0.0417
 1079DAPC   D4A12095  26.803  26.441   3.837  0.0862 -0.2455  0.0587
 1079DAPC   C5A12096  27.231  26.440   3.765  0.0046  0.3366 -0.0968
 1079DAPC   D1B12097  26.182  27.335   4.018 -0.0074 -0.0295  0.2317
 1079DAPC   D2B12098  26.527  27.121   3.714 -0.1460  0.2405  0.1134
 1079DAPC   D3B12099  26.605  27.531   3.547  0.1217  0.2500  0.0691
 1079DAPC   D4B12100  26.889  27.289   3.405 -0.0457 -0.1433 -0.1909
 1079DAPC   C5B12101  26.963  26.939   3.638  0.1259 -0.2836 -0.0145
 1080DAPC   NC312102   0.367  15.868   0.621 -0.2449 -0.0196  0.1557
 1080DAPC   PO412103   0.372  16.032   1.076  0.4138 -0.2387  0.1409
 1080DAPC   GL112104   0.028  15.996   1.352 -0.0998 -0.0336  0.0079
 1080DAPC   GL212105  35.239  16.245   1.536  0.4075 -0.1443 -0.0857
 1080DAPC   D1A12106  35.378  15.789   1.753  0.3055 -0.1951  0.1616
 1080DAPC   D2A12107   0.276  15.988   2.114  0.0371 -0.0089  0.0464
 1080DAPC   D3A12108   0.272  15.804   2.475  0.0251 -0.2743  0.1191
 1080DAPC   D4A12109   0.350  16.182   2.572 -0.2010 -0.3814 -0.2355
 1080DAPC   C5A12110   0.450  16.481   2.249  0.1869  0.2614  0.0012
 1080DAPC   D1B12111   0.265  16.525   1.691 -0.0339  0.1883 -0.0389
 1080DAPC   D2B12112  35.376  16.415   2.047  0.0253  0.2714 -0.1187
 1080DAPC   D3B12113   0.017  16.706   2.400  0.1753  0.0851 -0.2799
 1080DAPC   D4B12114   0.309  16.730   2.725 -0.1033  0.1057  0.0332
 1080DAPC   C5B12115   0.148  16.836   3.139 -0.2685  0.3049  0.1006
 1081DAPC   NC312116   2.891   0.936   9.096  0.0149 -0.1578 -0.0683
 1081DAPC   PO412117   2.758   1.267   9.438 -0.1563 -0.0583  0.0212
 1081DAPC   GL112118   2.403   1.544   9.398 -0.0997  0.1372 -0.0770
 1081DAPC   GL212119   2.340   1.817   9.282 -0.1418  0.1891 -0.3489
 1081DAPC   D1A12120   1.961   1.678   9.662  0.0007  0.2924 -0.1670
 1081DAPC   D2A12121   1.636   1.864   9.514  0.3289  0.2085  0.3875
 1081DAPC   D3A12122   1.551   1.993   9.944  0.0739  0.3172 -0.1486
 1081DAPC   D4A12123   2.013   2.074  10.028  0.0261  0.1270 -0.0655
 1081DAPC   C5A12124   1.999   2.309  10.437  0.1644  0.0290  0.0502
 1081DAPC   D1B12125   1.999   2.127   9.243  0.3089 -0.1978  0.1831
 1081DAPC   D2B12126   2.094   2.524   9.421 -0.0247  0.1770  0.0934
 1081DAPC   D3B12127   2.336   2.495   9.745 -0.3851 -0.0055  0.1436
 1081DAPC   D4B12128   2.264   2.541  10.133  0.1945  0.0877  0.0001
 1081DAPC   C5B12129   2.031   2.804  10.404  0.0389  0.3078  0.2903
 1082DAPC   NC312130  20.822  20.320   6.781  0.0494 -0.1526 -0.0371
 1082DAPC   PO412131  20.749  19.904   6.892 -0.0596 -0.0391 -0.2680
 1082DAPC   GL112132  21.110  19.914   6.828  0.3097  0.3603  0.0332
 1082DAPC   GL212133  21.303  19.950   6.997 -0.1436 -0.1204  0.0810
 1082DAPC   D1A12134  21.545  20.161   6.640 -0.3195  0.1454 -0.0938
 1082DAPC   D2A12135  21.933  20.187   6.724 -0.1353  0.0243 -0.2156
 1082DAPC   D3A12136  22.123  19.868   6.901 -0.2065  0.1982  0.3516
 1082DAPC   D4A12137  22.092  19.474   6.836  0.1865  0.0905  0.0478
 1082DAPC   C5A12138  22.129  19.209   6.449  0.1044  0.0073  0.3358
 1082DAPC   D1B12139  21.690  19.985   7.129 -0.1538 -0.4666 -0.5870
 1082DAPC   D2B12140  21.669  19.689   6.797 -0.0351  0.1060  0.2700
 1082DAPC   D3B12141  21.690  19.516   7.208 -0.1404  0.2039 -0.3247
 1082DAPC   D4B12142  21.792  19.160   7.171  0.0156  0.0316 -0.3962
 1082DAPC   C5B12143  22.155  18.991   7.095  0.1607  0.1594 -0.1302
 1083POPE   NH312144  21.817  18.301   3.890 -0.0076  0.0771 -0.1810
 1083POPE   PO412145  21.812  18.106   4.249  0.0659  0.0320  0.0435
 1083POPE   GL112146  22.190  18.134   4.205  0.2677  0.2441 -0.0766
 1083POPE   GL212147  22.404  17.935   4.207  0.1189  0.0753  0.0945
 1083POPE   C1A12148  22.639  18.363   4.184 -0.0916  0.2625  0.0459
 1083POPE   D2A12149  22.929  18.221   4.550 -0.0058  0.2036  0.0493
 1083POPE   C3A12150  23.377  18.279   4.535  0.1178 -0.0396 -0.0118
 1083POPE   C4A12151  23.691  17.976   4.691 -0.0116 -0.0358 -0.2105
 1083POPE   C1B12152  22.584  17.851   4.458  0.1445 -0.0896  0.1245
 1083POPE   C2B12153  23.026  17.745   4.709  0.0298 -0.1281 -0.0254
 1083POPE   C3B12154  23.406  17.587   4.825  0.0113 -0.2631  0.2831
 1083POPE   C4B12155  23.785  17.606   5.067 -0.1733  0.3332 -0.3723
 1084POPE   NH312156   2.192   0.358  10.612  0.1519 -0.1638  0.0934
 1084POPE   PO412157   2.247   0.213  11.010 -0.1832 -0.1750  0.1528
 1084POPE   GL112158   1.808   0.435  11.008 -0.2080  0.2279 -0.2446
 1084POPE   GL212159   1.539   0.341  10.784  0.0363 -0.3027  0.0791
 1084POPE   C1A12160   1.712   0.622  11.446 -0.1154  0.1373  0.0948
 1084POPE   D2A12161   1.552   0.701  11.785  0.2953 -0.0601 -0.0361
 1084POPE   C3A12162   1.338   1.057  11.785 -0.1140  0.2826 -0.0821
 1084POPE   C4A12163   0.928   1.254  11.932 -0.0350  0.0853  0.4134
 1084POPE   C1B12164   1.204   0.248  11.058 -0.2031 -0.1043  0.1598
 1084POPE   C2B12165   0.897   0.226  11.334 -0.1297  0.1998 -0.2427
 1084POPE   C3B12166   0.673   0.265  11.673 -0.1662 -0.1048 -0.0015
 1084POPE   C4B12167   0.556  35.346  11.974 -0.1654 -0.1158  0.1734
 1085POPE   NH312168   9.229  30.148  17.143 -0.1122 -0.1001  0.0898
 1085POPE   PO412169   9.022  30.538  17.042 -0.0357  0.0442  0.2229
 1085POPE   GL112170   8.955  30.521  17.481 -0.0357  0.1777  0.0509
 1085POPE   GL212171   8.972  30.144  17.581 -0.0287 -0.1079  0.0224
 1085POPE   C1A12172   8.845  30.611  17.921  0.1582  0.1101  0.0463
 1085POPE   D2A12173   8.730  30.721  18.248  0.4125 -0.0147 -0.4731
 1085POPE   C3A12174   8.913  30.890  18.633 -0.0743 -0.1439 -0.0405
 1085POPE   C4A12175   8.916  30.908  18.951 -0.0148  0.1231 -0.3231
 1085POPE   C1B12176   8.818  30.136  17.980 -0.0067  0.0427  0.0454
 1085POPE   C2B12177   8.789  30.200  18.330 -0.1790 -0.1414 -0.1521
 1085POPE   C3B12178   8.851  30.280  18.708  0.0065  0.0053 -0.1597
 1085POPE   C4B12179   9.060  30.454  19.025 -0.0901  0.1928 -0.0436
 1086POPE   NH312180   1.176   1.098   9.392 -0.1352 -0.2080  0.0752
 1086POPE   PO412181   0.913   0.850   9.713 -0.1495 -0.1446 -0.3118
 1086POPE   GL112182   0.962   1.002  10.118  0.3654  0.2963  0.0642
 1086POPE   GL212183   1.295   0.952  10.101 -0.1298  0.1606 -0.1313
 1086POPE   C1A12184   0.840   0.918  10.564  0.0220 -0.1555 -0.0399
 1086POPE   D2A12185   0.680   1.037  10.879  0.0445 -0.0893 -0.2908
 1086POPE   C3A12186   0.688   1.075  11.279 -0.4023  0.0007 -0.2582
 1086POPE   C4A12187   0.982   1.344  11.475  0.3295  0.1698  0.0388
 1086POPE   C1B12188   1.212   1.231  10.467 -0.1822  0.1295 -0.1286
 1086POPE   C2B12189   1.110   1.285  10.858 -0.0172  0.1296 -0.0198
 1086POPE   C3B12190   0.870   1.474  11.039 -0.0853 -0.0612  0.0537
 1086POPE   C4B12191   0.556   1.580  11.330 -0.0008 -0.0669  0.0650
 1087POPE   NH312192  18.087   9.028  13.161 -0.3313  0.0130  0.0209
 1087POPE   PO412193  18.495   9.027  13.001 -0.0454  0.1010 -0.0063
 1087POPE   GL112194  18.769   9.002  13.384 -0.1122 -0.1469  0.2807
 1087POPE   GL212195  18.824   8.652  13.279 -0.2464 -0.0769  0.0782
 1087POPE   C1A12196  18.979   9.087  13.776  0.0776 -0.0210  0.0255
 1087POPE   D2A12197  19.231   9.251  14.012  0.3861  0.0846  0.3066
 1087POPE   C3A12198  19.471   9.263  14.288 -0.1197 -0.2179  0.0343
 1087POPE   C4A12199  19.517   9.190  14.648  0.0938 -0.1545 -0.1543
 1087POPE   C1B12200  19.064   8.571  13.496  0.1674  0.0255 -0.0287
 1087POPE   C2B12201  19.213   8.589  13.875  0.3559  0.0340 -0.1180
 1087POPE   C3B12202  19.624   8.482  14.056  0.1931  0.0236  0.0597
 1087POPE   C4B12203  19.852   8.204  14.234  0.0775 -0.0458  0.0549
 1088POPE   NH312204  30.197   0.947   6.818 -0.0761 -0.2284 -0.1048
 1088POPE   PO412205  30.596   0.740   6.953  0.1350 -0.2244 -0.0102
 1088POPE   GL112206  30.404   0.984   7.241  0.3236 -0.1401 -0.2078
 1088POPE   GL212207  30.628   1.031   7.370 -0.1122 -0.0961  0.2788
 1088POPE   C1A12208  30.109   1.107   7.555  0.0930  0.0302 -0.1381
 1088POPE   D2A12209  29.861   1.250   7.932  0.3497  0.1244  0.2334
 1088POPE   C3A12210  29.510   1.597   8.108  0.1357 -0.0033  0.2108
 1088POPE   C4A12211  29.322   1.864   8.389  0.0867 -0.2781  0.1477
 1088POPE   C1B12212  30.536   1.030   7.775  0.3129  0.0073 -0.0387
 1088POPE   C2B12213  30.282   1.052   8.166 -0.2690 -0.0373  0.0343
 1088POPE   C3B12214  30.120   1.326   8.358 -0.0298  0.0384  0.1321
 1088POPE   C4B12215  29.804   1.226   8.381  0.3036  0.0707 -0.1642
 1089POPE   NH312216   2.574  28.816  12.004  0.2207 -0.0001 -0.0981
 1089POPE   PO412217   2.382  29.182  11.740  0.1698  0.0786 -0.2952
 1089POPE   GL112218   2.080  29.179  12.051 -0.0044  0.2800 -0.1775
 1089POPE   GL212219   1.938  29.464  12.018  0.4195 -0.3194  0.0403
 1089POPE   C1A12220   1.692  29.065  12.063  0.0894 -0.1493  0.2086
 1089POPE   D2A12221   1.469  28.827  11.957 -0.2167  0.0956  0.2073
 1089POPE   C3A12222   1.157  28.865  12.173 -0.0920 -0.3298 -0.2276
 1089POPE   C4A12223   0.848  28.776  12.536  0.0687 -0.0468  0.0062
 1089POPE   C1B12224   1.524  29.426  12.380 -0.2782  0.1087  0.3389
 1089POPE   C2B12225   1.280  29.610  12.598 -0.1608  0.1286  0.0873
 1089POPE   C3B12226   0.838  29.720  12.489  0.0065 -0.0059 -0.1357
 1089POPE   C4B12227   0.465  29.515  12.526 -0.1593 -0.1637  0.1146
 1090POPE   NH312228  26.020  29.223   5.019  0.1361  0.1405 -0.0278
 1090POPE   PO412229  26.418  29.452   4.949  0.3801  0.1743  0.0277
 1090POPE   GL112230  26.735  29.423   5.315 -0.0476 -0.1032  0.1966
 1090POPE   GL212231  26.648  29.523   5.636 -0.0246  0.2223  0.0440
 1090POPE   C1A12232  26.961  29.124   5.665  0.1428 -0.4201  0.0518
 1090POPE   D2A12233  27.142  28.858   5.977  0.0759  0.2640  0.1831
 1090POPE   C3A12234  27.205  28.451   6.051 -0.0491  0.2668  0.0225
 1090POPE   C4A12235  27.283  28.164   6.329  0.1262  0.1458  0.2186
 1090POPE   C1B12236  26.854  29.394   6.087 -0.0631 -0.0705  0.2087
 1090POPE   C2B12237  26.970  29.108   6.395  0.0372 -0.0078 -0.1340
 1090POPE   C3B12238  27.150  28.734   6.511 -0.0708  0.0448  0.2017
 1090POPE   C4B12239  27.485  28.552   6.582  0.0713 -0.2104 -0.1180
 1091POPE   NH312240   6.990   0.774  14.680 -0.1264 -0.0664 -0.2084
 1091POPE   PO412241   7.198   1.200  14.656 -0.0317 -0.0750  0.0246
 1091POPE   GL112242   6.875   1.027  15.089  0.1150  0.1149 -0.1462
 1091POPE   GL212243   7.000   0.793  15.243  0.0308  0.0064 -0.0053
 1091POPE   C1A12244   6.728   1.203  15.507  0.1887 -0.0643  0.2821
 1091POPE   D2A12245   6.500   1.457  15.721  0.4273 -0.0660  0.0356
 1091POPE   C3A12246   6.561   1.746  16.126  0.2557  0.0631  0.2146
 1091POPE   C4A12247   6.587   1.915  16.540 -0.0118 -0.5098 -0.0734
 1091POPE   C1B12248   6.786   0.705  15.674 -0.0596 -0.0557  0.2625
 1091POPE   C2B12249   6.480   1.012  15.905  0.1968 -0.1920 -0.0799
 1091POPE   C3B12250   6.211   1.292  16.143 -0.0833  0.1070 -0.0667
 1091POPE   C4B12251   5.914   1.495  16.403 -0.0026  0.0497  0.0580
 1092POPE   NH312252  20.570   7.016  10.941  0.0149 -0.1585  0.0989
 1092POPE   PO412253  20.823   7.266  10.606  0.0574 -0.3030  0.0074
 1092POPE   GL112254  21.142   7.290  10.946 -0.0065 -0.1424  0.2173
 1092POPE   GL212255  21.422   7.555  10.915 -0.0259  0.0331 -0.2593
 1092POPE   C1A12256  21.415   7.100  11.246  0.0533  0.0597 -0.3822
 1092POPE   D2A12257  21.724   6.996  11.604  0.1188  0.2637 -0.0224
 1092POPE   C3A12258  21.833   6.808  11.923  0.0443 -0.0328  0.2082
 1092POPE   C4A12259  22.089   6.675  12.278 -0.0718  0.0160  0.0115
 1092POPE   C1B12260  21.714   7.551  11.264 -0.0621  0.1505  0.0147
 1092POPE   C2B12261  22.114   7.410  11.533 -0.0929 -0.1004 -0.0419
 1092POPE   C3B12262  22.608   7.235  11.554 -0.3351  0.1116  0.0611
 1092POPE   C4B12263  22.983   7.209  11.496  0.0272  0.1644 -0.1829
 1093POPE   NH312264   5.250  18.011   6.724  0.3371 -0.0966  0.1284
 1093POPE   PO412265   4.723  17.926   6.740 -0.0483 -0.0435  0.2683
 1093POPE   GL112266   4.386  17.917   6.982 -0.0445 -0.2083  0.0604
 1093POPE   GL212267   4.244  17.838   6.743 -0.0259  0.0090 -0.0222
 1093POPE   C1A12268   4.052  17.747   7.229 -0.0559 -0.0495  0.2149
 1093POPE   D2A12269   3.876  17.658   7.632 -0.3436  0.0291  0.3310
 1093POPE   C3A12270   3.514  17.625   7.697  0.0942 -0.0288 -0.0420
 1093POPE   C4A12271   3.021  17.624   7.763  0.3033  0.4474 -0.0963
 1093POPE   C1B12272   3.910  18.030   6.837  0.0064 -0.0441 -0.2491
 1093POPE   C2B12273   3.584  18.291   6.964 -0.0171  0.1110 -0.1833
 1093POPE   C3B12274   3.248  18.357   7.230  0.0576  0.0792 -0.2569
 1093POPE   C4B12275   3.118  18.753   7.367  0.0749 -0.1156  0.2194
 1094POPE   NH312276  22.286   3.742   8.265  0.0447 -0.1738  0.1407
 1094POPE   PO412277  22.333   4.235   8.217 -0.0313  0.1374  0.1065
 1094POPE   GL112278  22.777   4.265   8.328  0.2616  0.1280 -0.2591
 1094POPE   GL212279  22.958   4.087   8.676  0.1948 -0.3576 -0.0882
 1094POPE   C1A12280  23.125   4.592   8.244  0.0242 -0.0202 -0.1523
 1094POPE   D2A12281  23.515   4.763   8.184 -0.1044 -0.2414  0.0232
 1094POPE   C3A12282  23.758   5.158   8.304 -0.0326  0.0724  0.1022
 1094POPE   C4A12283  24.207   5.204   8.268 -0.0661  0.0425 -0.0119
 1094POPE   C1B12284  23.252   4.401   8.750 -0.2671 -0.0100 -0.1233
 1094POPE   C2B12285  23.485   4.434   9.099  0.0574 -0.0924 -0.1062
 1094POPE   C3B12286  23.414   4.550   9.535 -0.2373 -0.1179 -0.0585
 1094POPE   C4B12287  23.465   4.934   9.699  0.0404  0.1421  0.0773
 1095POPE   NH312288  20.820  23.401   8.006 -0.2377 -0.0851  0.0606
 1095POPE   PO412289  21.287  23.340   7.975 -0.1032  0.3972  0.0394
 1095POPE   GL112290  21.346  23.419   8.365 -0.0833  0.1782  0.2083
 1095POPE   GL212291  21.456  23.214   8.561 -0.2018  0.1550 -0.0753
 1095POPE   C1A12292  21.613  23.677   8.569  0.2546 -0.2766 -0.0359
 1095POPE   D2A12293  22.009  23.838   8.694  0.1240  0.0723  0.0368
 1095POPE   C3A12294  22.412  23.947   8.720 -0.3797 -0.0184  0.3536
 1095POPE   C4A12295  22.846  24.036   8.656 -0.2270 -0.1918  0.1099
 1095POPE   C1B12296  21.897  23.299   8.655 -0.2626  0.2733  0.1124
 1095POPE   C2B12297  22.254  23.424   8.859 -0.1601 -0.0299 -0.0009
 1095POPE   C3B12298  22.726  23.559   8.793 -0.0147  0.3741 -0.1306
 1095POPE   C4B12299  22.992  23.562   8.447  0.1782 -0.0106  0.0882
 1096POPE   NH312300  13.262  19.142  16.153 -0.4130  0.0755  0.0554
 1096POPE   PO412301  13.733  18.889  16.042  0.2343  0.1366  0.1862
 1096POPE   GL112302  13.636  18.903  16.457 -0.1740  0.0931  0.3006
 1096POPE   GL212303  13.390  18.891  16.568 -0.1973  0.2014 -0.0646
 1096POPE   C1A12304  13.762  18.676  16.833  0.1089 -0.0774  0.0611
 1096POPE   D2A12305  13.814  18.516  17.262 -0.0271 -0.0870 -0.1783
 1096POPE   C3A12306  13.621  18.185  17.387  0.0135  0.1526  0.1831
 1096POPE   C4A12307  13.241  17.942  17.333 -0.1143  0.0432 -0.0996
 1096POPE   C1B12308  13.283  18.644  16.862 -0.0936 -0.4492 -0.2171
 1096POPE   C2B12309  13.128  18.488  17.118  0.0493  0.1461 -0.3338
 1096POPE   C3B12310  12.784  18.349  17.346  0.1031  0.0489  0.0253
 1096POPE   C4B12311  12.479  18.386  17.685 -0.0667 -0.0764 -0.0652
 1097POPE   NH312312   6.546  14.871  11.787 -0.0484  0.1613  0.4865
 1097POPE   PO412313   6.366  14.474  11.692  0.1540  0.2181 -0.0663
 1097POPE   GL112314   6.079  14.210  12.061 -0.3175  0.0274  0.0732
 1097POPE   GL212315   5.890  13.959  11.920  0.2327  0.0316  0.1683
 1097POPE   C1A12316   5.792  14.324  12.417  0.0020  0.0227  0.3370
 1097POPE   D2A12317   5.458  14.400  12.657 -0.0144 -0.1791  0.0849
 1097POPE   C3A12318   5.043  14.309  12.648 -0.0621 -0.2527  0.3847
 1097POPE   C4A12319   4.774  14.093  12.354  0.1411  0.0768 -0.0833
 1097POPE   C1B12320   5.738  13.866  12.287  0.0370  0.1523 -0.1284
 1097POPE   C2B12321   5.317  13.942  12.499 -0.1384 -0.2017 -0.1808
 1097POPE   C3B12322   5.094  13.753  12.826  0.0079 -0.2339 -0.1070
 1097POPE   C4B12323   4.653  13.672  12.905  0.1894 -0.0122  0.0307
 1098POPE   NH312324   4.789   2.805  11.150  0.0540 -0.2061 -0.2087
 1098POPE   PO412325   4.924   3.266  11.150 -0.2391 -0.0331  0.4119
 1098POPE   GL112326   4.751   3.185  11.503  0.0435 -0.3628 -0.1659
 1098POPE   GL212327   4.490   2.943  11.546  0.1782 -0.0428  0.0315
 1098POPE   C1A12328   4.422   3.388  11.753 -0.2003 -0.0029  0.1629
 1098POPE   D2A12329   4.172   3.743  11.985  0.2416  0.1654  0.2564
 1098POPE   C3A12330   4.266   4.117  11.987 -0.1590 -0.1379  0.1366
 1098POPE   C4A12331   4.572   4.377  11.819 -0.0230 -0.1846 -0.1629
 1098POPE   C1B12332   4.102   2.982  11.696  0.1569 -0.2565 -0.2392
 1098POPE   C2B12333   3.686   3.090  11.721  0.1280 -0.1634  0.0410
 1098POPE   C3B12334   3.288   3.262  11.892 -0.3302 -0.3114  0.0858
 1098POPE   C4B12335   2.862   3.320  11.999 -0.0343  0.1066 -0.1711
 1099POPE   NH312336  29.519   0.233   6.733 -0.0223  0.3704  0.0067
 1099POPE   PO412337  29.713  35.245   6.878 -0.0395  0.4369 -0.1599
 1099POPE   GL112338  29.363  35.370   7.170 -0.0423  0.3659  0.0094
 1099POPE   GL212339  29.704   0.185   7.273 -0.1472  0.1523  0.2474
 1099POPE   C1A12340  29.125  35.264   7.429  0.0816 -0.2595  0.1817
 1099POPE   D2A12341  29.156  35.179   7.891 -0.0762 -0.1737 -0.0240
 1099POPE   C3A12342  28.923  35.220   8.383 -0.0312  0.0901 -0.0447
 1099POPE   C4A12343  28.737  35.337   8.791 -0.1222  0.0011 -0.3151
 1099POPE   C1B12344  29.492   0.249   7.716  0.1994 -0.0988 -0.1680
 1099POPE   C2B12345  29.210   0.336   7.848 -0.1497 -0.0526  0.0421
 1099POPE   C3B12346  29.151   0.752   8.074  0.2963 -0.0937  0.2348
 1099POPE   C4B12347  29.317   1.127   7.988  0.2437  0.1211 -0.0440
 1100POPE   NH312348  18.888  24.877  12.111  0.2089 -0.2320  0.1905
 1100POPE   PO412349  18.687  24.751  12.430  0.1016  0.0462 -0.0253
 1100POPE   GL112350  18.898  24.750  12.732 -0.0512 -0.2324 -0.0801
 1100POPE   GL212351  18.882  24.941  13.020 -0.0165 -0.0834  0.0575
 1100POPE   C1A12352  19.287  24.560  12.815  0.3750  0.0412  0.3482
 1100POPE   D2A12353  19.665  24.704  12.879 -0.2055  0.0116  0.2232
 1100POPE   C3A12354  19.890  24.889  13.105 -0.2553  0.1050 -0.1790
 1100POPE   C4A12355  20.125  24.947  13.454 -0.1529  0.2012  0.1810
 1100POPE   C1B12356  19.339  24.883  13.237  0.1011 -0.3539 -0.0574
 1100POPE   C2B12357  19.595  25.000  13.482  0.1711 -0.0178  0.3152
 1100POPE   C3B12358  19.798  24.980  13.865  0.0218 -0.1592  0.5565
 1100POPE   C4B12359  19.918  25.261  14.211  0.1581  0.2004 -0.0459
 1101POPE   NH312360  13.909  24.499  17.783 -0.1612 -0.0433 -0.2796
 1101POPE   PO412361  13.529  24.613  17.815  0.1708  0.0739  0.1479
 1101POPE   GL112362  13.549  24.533  18.146  0.2844  0.2641 -0.1806
 1101POPE   GL212363  13.293  24.518  18.285  0.0751 -0.1454 -0.0907
 1101POPE   C1A12364  13.715  24.516  18.540 -0.1297 -0.2585 -0.0118
 1101POPE   D2A12365  13.846  24.632  18.942  0.1046  0.0286 -0.1394
 1101POPE   C3A12366  13.694  24.428  19.386  0.3516 -0.2900  0.3562
 1101POPE   C4A12367  13.445  24.532  19.683  0.0039  0.0854 -0.0034
 1101POPE   C1B12368  13.214  24.427  18.688 -0.1293 -0.0347  0.2937
 1101POPE   C2B12369  13.318  24.483  19.010 -0.0088  0.0124 -0.4239
 1101POPE   C3B12370  13.132  24.326  19.337 -0.1457 -0.0762  0.0509
 1101POPE   C4B12371  13.033  24.263  19.690 -0.1654  0.1647 -0.2369
 1102POPE   NH312372   6.056   6.844  12.245  0.0760  0.2871 -0.0091
 1102POPE   PO412373   6.044   7.257  12.131 -0.0881 -0.0411 -0.2974
 1102POPE   GL112374   5.644   7.180  12.290  0.1179 -0.0972  0.0230
 1102POPE   GL212375   5.736   7.489  12.584  0.1480  0.3223  0.2032
 1102POPE   C1A12376   5.223   7.261  12.263 -0.0381 -0.2446 -0.4722
 1102POPE   D2A12377   4.815   7.273  12.476  0.1180  0.1707 -0.0920
 1102POPE   C3A12378   4.598   7.299  12.863  0.2646  0.1874 -0.1606
 1102POPE   C4A12379   4.238   7.440  13.084 -0.0954  0.3079  0.1529
 1102POPE   C1B12380   5.250   7.417  12.742 -0.2069 -0.0963  0.1640
 1102POPE   C2B12381   4.967   7.514  13.063  0.1262  0.0468  0.0821
 1102POPE   C3B12382   4.646   7.521  13.421  0.2715  0.0724  0.3021
 1102POPE   C4B12383   4.177   7.594  13.539 -0.0712  0.2673 -0.1143
 1103POPE   NH312384  19.903  11.612  10.504 -0.0969  0.0660  0.2543
 1103POPE   PO412385  19.928  12.055  10.345  0.0880 -0.0696  0.1022
 1103POPE   GL112386  20.226  11.840  10.249 -0.0306 -0.1324 -0.0575
 1103POPE   GL212387  20.355  11.834   9.918  0.0806 -0.1805  0.0922
 1103POPE   C1A12388  20.593  11.912  10.393  0.0594  0.0375 -0.3019
 1103POPE   D2A12389  20.902  12.021  10.682 -0.1449 -0.1533  0.0002
 1103POPE   C3A12390  21.309  12.132  10.787  0.0797  0.2468  0.0380
 1103POPE   C4A12391  21.490  12.311  11.123  0.0308 -0.1051  0.2157
 1103POPE   C1B12392  20.617  12.186   9.962  0.2046  0.0217  0.0803
 1103POPE   C2B12393  20.962  12.274  10.236 -0.0007  0.1108  0.0669
 1103POPE   C3B12394  21.469  12.356  10.367  0.1853  0.0639  0.1121
 1103POPE   C4B12395  21.907  12.735  10.269 -0.0091  0.0763 -0.0617
 1104POPE   NH312396   3.265  26.442  10.630  0.1328  0.2026 -0.1169
 1104POPE   PO412397   3.273  26.099  10.361 -0.4443 -0.0367 -0.0720
 1104POPE   GL112398   3.094  25.773  10.556  0.2173 -0.1894  0.0554
 1104POPE   GL212399   3.373  25.545  10.777 -0.1862 -0.1618  0.0873
 1104POPE   C1A12400   2.813  25.507  10.537  0.0314  0.2534  0.2816
 1104POPE   D2A12401   2.562  25.162  10.678  0.3337  0.2199  0.1553
 1104POPE   C3A12402   2.244  25.063  11.033 -0.0680 -0.0025  0.1441
 1104POPE   C4A12403   1.990  25.122  11.457 -0.2880 -0.0744 -0.0200
 1104POPE   C1B12404   2.989  25.428  10.973  0.1817  0.3416  0.1116
 1104POPE   C2B12405   2.717  25.211  11.185 -0.0450  0.0258 -0.3156
 1104POPE   C3B12406   2.499  24.998  11.517 -0.0698  0.0884  0.0256
 1104POPE   C4B12407   2.242  25.070  11.897  0.1213 -0.1106  0.3418
 1105POPE   NH312408  10.891   5.531  14.797  0.1794  0.0231 -0.0119
 1105POPE   PO412409  11.366   5.646  14.752 -0.3274 -0.1152 -0.0958
 1105POPE   GL112410  11.463   5.846  15.219  0.1602  0.0112  0.3116
 1105POPE   GL212411  11.184   6.103  15.396 -0.0889  0.3145 -0.0509
 1105POPE   C1A12412  11.682   6.075  15.533  0.1401 -0.0776 -0.0416
 1105POPE   D2A12413  11.643   5.966  16.042  0.2444 -0.0122  0.1000
 1105POPE   C3A12414  11.998   5.989  16.271  0.3837 -0.1440  0.2920
 1105POPE   C4A12415  12.091   6.275  16.450  0.2290 -0.1280 -0.0238
 1105POPE   C1B12416  11.146   6.001  15.832 -0.0705  0.0114  0.2138
 1105POPE   C2B12417  11.196   5.969  16.205 -0.0785 -0.1615 -0.0216
 1105POPE   C3B12418  11.507   5.597  16.367  0.1785 -0.3766  0.2077
 1105POPE   C4B12419  11.957   5.537  16.569 -0.0815 -0.0260 -0.0873
 1106POPE   NH312420   2.987  29.351  12.426  0.1164  0.0422 -0.0475
 1106POPE   PO412421   2.790  29.260  12.071 -0.2160  0.1259 -0.0046
 1106POPE   GL112422   2.458  29.157  12.381 -0.0516  0.0087 -0.2428
 1106POPE   GL212423   2.531  28.966  12.556 -0.1084  0.1433 -0.1629
 1106POPE   C1A12424   2.010  28.950  12.503  0.0219  0.3580  0.3143
 1106POPE   D2A12425   1.612  28.916  12.900  0.1163  0.2337  0.3622
 1106POPE   C3A12426   1.272  29.063  12.630  0.0774  0.1430 -0.1284
 1106POPE   C4A12427   0.908  29.241  12.768 -0.1717 -0.2995 -0.0362
 1106POPE   C1B12428   2.262  28.983  12.901 -0.3385  0.0536 -0.1462
 1106POPE   C2B12429   1.994  28.746  13.149  0.0001 -0.0990 -0.1373
 1106POPE   C3B12430   1.830  28.678  13.656  0.2685 -0.0875  0.1771
 1106POPE   C4B12431   1.633  28.298  13.700  0.3292 -0.0156  0.1518
 1107POPE   NH312432  19.489  31.617   9.175  0.2533  0.3729  0.1201
 1107POPE   PO412433  19.320  32.074   9.164  0.4016  0.1011 -0.0272
 1107POPE   GL112434  19.798  32.083   9.345 -0.1747 -0.4773 -0.0815
 1107POPE   GL212435  19.761  32.381   9.597 -0.3394  0.3517 -0.1895
 1107POPE   C1A12436  20.119  32.063   9.703  0.0314  0.3701 -0.2418
 1107POPE   D2A12437  20.411  32.057   9.972  0.0631  0.2932  0.0365
 1107POPE   C3A12438  20.333  32.010  10.503 -0.0089  0.2472  0.1153
 1107POPE   C4A12439  20.577  32.213  10.822 -0.1652  0.0020 -0.0249
 1107POPE   C1B12440  20.041  32.496   9.946  0.2887  0.1100  0.0119
 1107POPE   C2B12441  20.227  32.412  10.253  0.0721 -0.0050 -0.1075
 1107POPE   C3B12442  20.671  32.498  10.223  0.0161 -0.1045 -0.0503
 1107POPE   C4B12443  20.836  32.082  10.325 -0.0409  0.2342 -0.2616
 1108POPE   NH312444   3.399  26.672  11.026 -0.1288  0.0343  0.2187
 1108POPE   PO412445   3.703  26.402  10.843 -0.0617 -0.1296  0.0754
 1108POPE   GL112446   3.565  25.992  11.062  0.0779 -0.1387  0.1625
 1108POPE   GL212447   3.685  25.738  11.205 -0.0711 -0.0862  0.4361
 1108POPE   C1A12448   3.179  25.810  11.290  0.0789 -0.2824 -0.1851
 1108POPE   D2A12449   2.759  25.599  11.434  0.0399 -0.0175 -0.3251
 1108POPE   C3A12450   2.395  25.471  11.530 -0.2908 -0.1568 -0.2602
 1108POPE   C4A12451   2.088  25.495  11.777 -0.1631  0.1142 -0.1630
 1108POPE   C1B12452   3.413  25.432  11.467  0.0630  0.2337 -0.1996
 1108POPE   C2B12453   3.072  25.210  11.525 -0.5780  0.0325  0.1709
 1108POPE   C3B12454   2.966  25.267  11.769  0.2222 -0.0176  0.0758
 1108POPE   C4B12455   2.697  25.110  12.077 -0.1783  0.1280  0.0550
 1109POPE   NH312456  15.892   9.437  14.103  0.0479 -0.2536 -0.0568
 1109POPE   PO412457  16.305   9.168  13.977  0.1851 -0.0498  0.2356
 1109POPE   GL112458  16.672   9.184  14.239 -0.1874 -0.2087 -0.0300
 1109POPE   GL212459  16.941   9.243  14.108  0.3359  0.0635 -0.0478
 1109POPE   C1A12460  16.818   9.227  14.683 -0.1429  0.0640 -0.1745
 1109POPE   D2A12461  16.879   9.283  15.072 -0.1193 -0.2839  0.2465
 1109POPE   C3A12462  16.826   8.909  15.275 -0.0261 -0.1365  0.3559
 1109POPE   C4A12463  16.857   8.546  15.409  0.1202 -0.4049 -0.0193
 1109POPE   C1B12464  17.266   9.387  14.376  0.2035 -0.2919 -0.1896
 1109POPE   C2B12465  17.345   9.437  14.719  0.1387  0.0995  0.2034
 1109POPE   C3B12466  17.378   9.288  15.126  0.0147 -0.0996 -0.0507
 1109POPE   C4B12467  17.070   9.323  15.506  0.0588  0.5721  0.0241
 1110POPE   NH312468  16.881  18.784  14.265  0.2126  0.1100  0.1135
 1110POPE   PO412469  17.058  18.699  13.910  0.1679  0.1163  0.1652
 1110POPE   GL112470  17.378  18.533  14.157  0.2123 -0.0553 -0.0911
 1110POPE   GL212471  17.614  18.389  14.072  0.4579 -0.0614 -0.1321
 1110POPE   C1A12472  17.591  18.774  14.497 -0.0822  0.0561  0.0997
 1110POPE   D2A12473  17.782  18.743  14.699  0.0970  0.2565  0.0196
 1110POPE   C3A12474  17.949  18.695  15.057  0.4401 -0.2353 -0.2067
 1110POPE   C4A12475  18.151  18.321  15.231  0.0155 -0.0082 -0.0099
 1110POPE   C1B12476  17.747  18.268  14.423 -0.0419  0.3247  0.1792
 1110POPE   C2B12477  18.017  18.187  14.678  0.0044 -0.0475 -0.2750
 1110POPE   C3B12478  18.391  18.114  14.859  0.0386  0.3064 -0.2624
 1110POPE   C4B12479  18.634  17.762  14.979  0.0887 -0.2042  0.1143
 1111POPE   NH312480   6.284  30.136  15.154  0.0867  0.0777  0.1327
 1111POPE   PO412481   6.079  30.174  15.502 -0.2284  0.1779 -0.1065
 1111POPE   GL112482   6.023  30.020  15.942  0.2149 -0.0363 -0.0363
 1111POPE   GL212483   5.706  30.124  15.925  0.2039 -0.0520  0.1565
 1111POPE   C1A12484   5.998  30.144  16.278  0.1290 -0.1499 -0.4307
 1111POPE   D2A12485   5.699  30.004  16.587  0.2025 -0.1376 -0.0841
 1111POPE   C3A12486   5.386  30.297  16.746  0.2234  0.0604 -0.0597
 1111POPE   C4A12487   4.928  30.386  16.939  0.0357  0.1695 -0.1962
 1111POPE   C1B12488   5.395  30.231  16.222  0.1494 -0.0246  0.1495
 1111POPE   C2B12489   4.993  30.064  16.458  0.1651  0.0969  0.2886
 1111POPE   C3B12490   4.613  29.944  16.687 -0.0745 -0.1021  0.3274
 1111POPE   C4B12491   4.030  29.907  16.842 -0.0349 -0.4706  0.0751
 1112POPE   NH312492   0.113  23.940   2.987  0.0713 -0.0224 -0.1274
 1112POPE   PO412493   0.181  23.957   3.473  0.1660 -0.6482  0.2916
 1112POPE   GL112494  35.310  23.929   3.753 -0.4879 -0.0319  0.2529
 1112POPE   GL212495  35.104  24.046   3.728 -0.2735 -0.0685 -0.3723
 1112POPE   C1A12496  35.041  23.550   3.794 -0.2732 -0.2233 -0.1100
 1112POPE   D2A12497  34.669  23.502   3.960 -0.4443 -0.4748 -0.0443
 1112POPE   C3A12498  34.420  23.119   4.055  0.0492 -0.0132  0.1328
 1112POPE   C4A12499  33.962  23.082   4.206  0.0664 -0.2710 -0.4063
 1112POPE   C1B12500  34.778  24.010   3.998  0.0400  0.0311 -0.2559
 1112POPE   C2B12501  34.488  23.917   4.239 -0.2231  0.0921 -0.0691
 1112POPE   C3B12502  34.444  24.161   4.622  0.1854 -0.2586 -0.2586
 1112POPE   C4B12503  34.309  24.549   4.873  0.4568 -0.2218  0.3192
 1113POPE   NH312504  29.800   2.694   6.216 -0.0009  0.1826  0.1425
 1113POPE   PO412505  29.394   2.665   6.358  0.0399  0.1662  0.0168
 1113POPE   GL112506  29.094   2.728   6.681  0.1007 -0.0578  0.0448
 1113POPE   GL212507  29.007   3.082   6.606  0.1360  0.0708  0.0259
 1113POPE   C1A12508  28.912   2.926   7.088 -0.1523 -0.0053  0.0687
 1113POPE   D2A12509  28.740   2.859   7.535 -0.1025  0.2019 -0.0675
 1113POPE   C3A12510  28.648   2.679   7.907 -0.0702  0.0811  0.2291
 1113POPE   C4A12511  28.450   2.300   7.974  0.0424  0.0708 -0.2591
 1113POPE   C1B12512  28.809   3.422   6.843 -0.2536  0.1186 -0.3024
 1113POPE   C2B12513  28.694   3.886   6.864 -0.0575 -0.2113 -0.0390
 1113POPE   C3B12514  28.713   4.296   6.979 -0.0473  0.0680  0.0571
 1113POPE   C4B12515  28.969   4.588   7.229  0.0042  0.0148 -0.2605
 1114POPE   NH312516  15.053  13.497  14.456  0.0849 -0.3435  0.1815
 1114POPE   PO412517  14.856  13.386  14.879 -0.3493 -0.3511 -0.1854
 1114POPE   GL112518  14.921  13.177  15.236  0.3954  0.2819  0.2426
 1114POPE   GL212519  14.658  13.020  15.387 -0.1761  0.3208  0.0858
 1114POPE   C1A12520  15.033  13.319  15.767  0.1888  0.0478  0.2801
 1114POPE   D2A12521  15.159  13.417  16.225 -0.1984 -0.2707  0.1863
 1114POPE   C3A12522  15.023  13.299  16.527  0.1652  0.4209 -0.1175
 1114POPE   C4A12523  14.998  13.163  16.898  0.0284  0.0681  0.1462
 1114POPE   C1B12524  14.656  12.996  15.759 -0.1464 -0.4432  0.2644
 1114POPE   C2B12525  14.790  13.032  16.147 -0.1939  0.0848  0.1924
 1114POPE   C3B12526  14.681  12.949  16.447  0.0607  0.1389  0.1234
 1114POPE   C4B12527  14.537  12.953  16.901 -0.2007  0.2092 -0.0774
 1115POPE   NH312528  18.364  25.507  12.177 -0.0762  0.3343  0.1265
 1115POPE   PO412529  18.619  25.261  11.926  0.0915  0.1815 -0.2079
 1115POPE   GL112530  19.131  25.317  12.015  0.3102 -0.1957 -0.1214
 1115POPE   GL212531  19.379  25.129  11.883  0.1622  0.2867 -0.0046
 1115POPE   C1A12532  19.355  25.541  12.285  0.3206  0.0198 -0.1118
 1115POPE   D2A12533  19.672  25.723  12.542 -0.2470 -0.1131 -0.0858
 1115POPE   C3A12534  19.960  25.808  12.733 -0.2271 -0.4244  0.1287
 1115POPE   C4A12535  20.371  25.670  12.856 -0.3748 -0.0261 -0.3219
 1115POPE   C1B12536  19.654  25.297  11.981  0.0220  0.0970  0.0640
 1115POPE   C2B12537  19.906  25.553  12.060 -0.1076 -0.3719 -0.0357
 1115POPE   C3B12538  20.163  25.805  12.236  0.2162  0.0230 -0.0278
 1115POPE   C4B12539  20.273  26.196  12.692 -0.0451 -0.0415  0.1005
 1116POPE   NH312540   8.512   4.664  14.158 -0.0827 -0.0602 -0.3484
 1116POPE   PO412541   8.472   4.502  14.581  0.2572  0.2578  0.0215
 1116POPE   GL112542   8.177   4.354  14.862  0.0750  0.1088  0.0142
 1116POPE   GL212543   8.214   4.035  14.905  0.1697 -0.3852  0.0380
 1116POPE   C1A12544   7.883   4.612  15.086 -0.1692 -0.1879 -0.0110
 1116POPE   D2A12545   7.778   4.592  15.465 -0.0779 -0.1481 -0.0442
 1116POPE   C3A12546   7.521   4.671  15.843  0.0166 -0.0432 -0.0907
 1116POPE   C4A12547   7.154   4.642  15.928 -0.0127 -0.0737 -0.0986
 1116POPE   C1B12548   7.894   4.130  15.166  0.1716  0.2827 -0.0537
 1116POPE   C2B12549   7.597   4.122  15.560  0.1977  0.2042  0.1207
 1116POPE   C3B12550   7.499   4.136  16.023  0.1980  0.0868 -0.0945
 1116POPE   C4B12551   7.139   4.315  16.302 -0.0940  0.0006  0.1945
 1117POPE   NH312552   3.216  14.656   4.899 -0.1803 -0.0278 -0.2394
 1117POPE   PO412553   3.414  14.308   4.721 -0.3777  0.1745  0.0453
 1117POPE   GL112554   3.264  14.265   5.108  0.0960 -0.1280 -0.2003
 1117POPE   GL212555   3.103  14.014   5.109 -0.2344  0.2865 -0.1544
 1117POPE   C1A12556   3.153  14.238   5.582 -0.3693  0.1252  0.1800
 1117POPE   D2A12557   2.974  14.233   6.021  0.0448  0.1009 -0.0016
 1117POPE   C3A12558   2.663  14.341   6.244 -0.1992  0.0420  0.1535
 1117POPE   C4A12559   2.282  14.300   6.332 -0.3753 -0.1148  0.2325
 1117POPE   C1B12560   2.788  13.958   5.404  0.4767 -0.1715  0.1827
 1117POPE   C2B12561   2.513  13.976   5.786  0.1136 -0.0389 -0.3813
 1117POPE   C3B12562   2.215  13.970   5.980 -0.1164  0.3364 -0.1399
 1117POPE   C4B12563   1.970  13.832   6.243  0.1809  0.1946  0.0336
 1118POPE   NH312564  20.214   5.531  11.180  0.2036  0.1348 -0.2270
 1118POPE   PO412565  20.065   5.443  11.501  0.1713 -0.0711  0.0593
 1118POPE   GL112566  20.476   5.255  11.598  0.1561 -0.0033 -0.0460
 1118POPE   GL212567  20.600   5.224  11.229  0.4745 -0.0977 -0.0942
 1118POPE   C1A12568  20.708   5.186  11.890  0.1290 -0.0919 -0.2395
 1118POPE   D2A12569  20.940   5.175  12.144 -0.3320  0.1684  0.0505
 1118POPE   C3A12570  21.223   5.351  12.263  0.0637 -0.2674 -0.0670
 1118POPE   C4A12571  21.517   5.467  12.062  0.2102 -0.2630  0.0307
 1118POPE   C1B12572  21.036   5.211  11.422 -0.0526  0.0216  0.0171
 1118POPE   C2B12573  21.224   5.172  11.728  0.1148 -0.1999 -0.1654
 1118POPE   C3B12574  21.392   4.951  12.060 -0.0181 -0.1480  0.2342
 1118POPE   C4B12575  21.689   4.734  12.321  0.2723 -0.0340  0.1720
 1119POPE   NH312576   2.290  19.765   3.984  0.0261 -0.1321  0.0568
 1119POPE   PO412577   2.652  19.638   4.116  0.0086  0.2334  0.1769
 1119POPE   GL112578   2.501  19.416   4.457 -0.0839 -0.0709 -0.1518
 1119POPE   GL212579   2.679  19.224   4.661 -0.0041 -0.4016 -0.0847
 1119POPE   C1A12580   2.157  19.209   4.525 -0.0716  0.0738 -0.0213
 1119POPE   D2A12581   1.890  18.812   4.624 -0.0788 -0.1755  0.0848
 1119POPE   C3A12582   1.500  18.692   4.723 -0.1285 -0.1268 -0.1197
 1119POPE   C4A12583   1.007  18.890   4.818  0.2917 -0.1295  0.0078
 1119POPE   C1B12584   2.415  19.364   4.965 -0.2987 -0.0489 -0.2747
 1119POPE   C2B12585   2.243  19.150   5.291 -0.3485  0.1602 -0.1271
 1119POPE   C3B12586   1.969  19.181   5.570  0.1344  0.2966 -0.2510
 1119POPE   C4B12587   1.949  19.355   5.961  0.0404 -0.1625 -0.0183
 1120POPE   NH312588  30.708  34.913   7.043 -0.2667 -0.2622 -0.1853
 1120POPE   PO412589  30.946  35.259   7.158  0.0766 -0.2003  0.0868
 1120POPE   GL112590  31.040  35.174   7.537 -0.0286  0.1791 -0.0754
 1120POPE   GL212591  31.384  35.020   7.608  0.0916  0.3055 -0.1273
 1120POPE   C1A12592  30.858  35.088   7.871 -0.1277  0.2516 -0.1568
 1120POPE   D2A12593  30.596  34.961   8.248  0.1344  0.3399 -0.1304
 1120POPE   C3A12594  30.822  35.060   8.551 -0.0065 -0.2147 -0.1660
 1120POPE   C4A12595  31.151  35.046   8.796  0.1190 -0.0370 -0.0285
 1120POPE   C1B12596  31.381  35.366   7.850  0.2916  0.2323  0.0225
 1120POPE   C2B12597  31.193  35.342   8.374  0.1311 -0.1334 -0.2217
 1120POPE   C3B12598  31.432   0.021   8.796  0.0275 -0.0271 -0.1905
 1120POPE   C4B12599  31.567   0.191   9.251 -0.2151  0.0505 -0.0592
 1121POPE   NH312600  14.264  19.839  16.188 -0.1354 -0.0726  0.0113
 1121POPE   PO412601  13.846  19.860  16.288 -0.1695  0.2125  0.3081
 1121POPE   GL112602  13.713  19.774  16.649  0.0953  0.2175 -0.2797
 1121POPE   GL212603  13.740  20.049  16.857  0.0399  0.1575  0.1002
 1121POPE   C1A12604  13.634  19.554  16.985  0.0981  0.0915 -0.1326
 1121POPE   D2A12605  13.738  19.371  17.357  0.4523  0.0346 -0.0521
 1121POPE   C3A12606  13.898  19.258  17.661  0.1482 -0.2049  0.0122
 1121POPE   C4A12607  14.117  19.109  17.958 -0.1444  0.1030 -0.1813
 1121POPE   C1B12608  13.884  19.974  17.279 -0.0060 -0.0427 -0.1072
 1121POPE   C2B12609  13.890  19.775  17.682  0.0966  0.1273  0.0682
 1121POPE   C3B12610  13.946  19.634  18.069  0.6335  0.0395  0.0718
 1121POPE   C4B12611  14.310  19.496  18.230  0.2700  0.2692  0.0452
 1122POPE   NH312612  34.706  23.474   1.874 -0.0677 -0.2067 -0.1835
 1122POPE   PO412613  34.716  23.125   1.755 -0.1445 -0.1699  0.2729
 1122POPE   GL112614  34.413  23.002   1.952 -0.0343 -0.0440 -0.0469
 1122POPE   GL212615  34.321  22.704   2.039 -0.1665  0.1673  0.0234
 1122POPE   C1A12616  34.019  23.051   2.275  0.0057  0.2004  0.2560
 1122POPE   D2A12617  33.650  22.829   2.509 -0.0077  0.0139 -0.1395
 1122POPE   C3A12618  33.579  22.767   2.917  0.1113  0.3429 -0.2184
 1122POPE   C4A12619  33.482  22.593   3.289 -0.0479 -0.1191  0.0012
 1122POPE   C1B12620  34.108  22.590   2.464  0.3947  0.5139  0.2874
 1122POPE   C2B12621  33.997  22.529   2.922  0.0128 -0.0513  0.0059
 1122POPE   C3B12622  34.029  22.280   3.226 -0.1083  0.5677 -0.3641
 1122POPE   C4B12623  34.016  21.870   3.429 -0.3707 -0.0095 -0.1257
 1123POPE   NH312624  16.710  11.951  13.845  0.0315  0.2478 -0.0478
 1123POPE   PO412625  17.053  12.292  13.867  0.2006 -0.2470  0.2800
 1123POPE   GL112626  17.491  12.175  13.941 -0.1036 -0.1817  0.4253
 1123POPE   GL212627  17.577  12.433  14.113  0.3121 -0.3026 -0.3170
 1123POPE   C1A12628  17.876  12.065  14.135  0.1260  0.1423 -0.1235
 1123POPE   D2A12629  18.122  11.985  14.395 -0.0847 -0.2646 -0.1096
 1123POPE   C3A12630  18.469  12.212  14.573  0.6164 -0.0444  0.0521
 1123POPE   C4A12631  18.713  12.469  14.853 -0.0739  0.1426  0.0141
 1123POPE   C1B12632  17.806  12.426  14.574 -0.3780 -0.0141  0.1027
 1123POPE   C2B12633  18.037  12.600  14.838 -0.2555  0.2333 -0.0504
 1123POPE   C3B12634  18.377  12.798  14.990  0.1651 -0.4048  0.0273
 1123POPE   C4B12635  18.781  12.803  15.164 -0.1299  0.2888 -0.3813
 1124POPE   NH312636   3.527  19.544   5.098 -0.1571 -0.0560  0.1723
 1124POPE   PO412637   3.348  19.626   4.689 -0.1735 -0.1068 -0.2436
 1124POPE   GL112638   2.941  19.523   5.009  0.3742 -0.0952 -0.0158
 1124POPE   GL212639   2.958  19.924   5.114 -0.3128  0.1189 -0.2047
 1124POPE   C1A12640   2.694  19.425   5.403  0.1363  0.0724 -0.0814
 1124POPE   D2A12641   2.396  19.432   5.725 -0.1060  0.3215  0.0074
 1124POPE   C3A12642   2.442  19.267   6.087  0.2250 -0.1005  0.0847
 1124POPE   C4A12643   2.568  19.032   6.558  0.0609 -0.1869  0.0857
 1124POPE   C1B12644   2.840  19.920   5.403  0.0166  0.0967  0.0265
 1124POPE   C2B12645   2.528  20.000   5.702 -0.1959 -0.2742 -0.1429
 1124POPE   C3B12646   2.161  19.888   5.927  0.2095  0.0515 -0.0669
 1124POPE   C4B12647   2.109  19.651   6.356  0.3960  0.3299  0.2245
 1125POPE   NH312648   5.438  24.211  10.944 -0.0198  0.3549  0.0430
 1125POPE   PO412649   5.610  24.559  10.695  0.1662 -0.0252 -0.1260
 1125POPE   GL112650   5.109  24.480  10.623  0.0897 -0.1589  0.2065
 1125POPE   GL212651   5.061  24.332  10.318 -0.1310  0.0570 -0.1161
 1125POPE   C1A12652   4.575  24.321  10.477 -0.1733 -0.1032  0.0835
 1125POPE   D2A12653   4.347  24.124  10.262 -0.1467 -0.1748 -0.3266
 1125POPE   C3A12654   4.078  23.813  10.240  0.0154 -0.2490  0.1082
 1125POPE   C4A12655   3.769  23.454  10.310  0.1010  0.0655 -0.0524
 1125POPE   C1B12656   4.946  23.915  10.272  0.0520 -0.2452 -0.0388
 1125POPE   C2B12657   4.627  23.590  10.524 -0.2021  0.0659  0.1826
 1125POPE   C3B12658   4.210  23.368  10.571  0.0667 -0.0002 -0.2210
 1125POPE   C4B12659   3.835  23.308  10.799 -0.1208  0.1770 -0.1066
 1126POPE   NH312660  12.887  29.195  17.245 -0.1337 -0.1509 -0.2172
 1126POPE   PO412661  12.506  29.486  17.149 -0.3162 -0.0648  0.1331
 1126POPE   GL112662  12.503  29.241  17.569  0.3860  0.0511  0.0653
 1126POPE   GL212663  12.762  29.041  17.715 -0.0325  0.1610 -0.1439
 1126POPE   C1A12664  12.367  29.135  18.014  0.2700  0.1975  0.0419
 1126POPE   D2A12665  12.453  29.246  18.349  0.1825 -0.0289 -0.1382
 1126POPE   C3A12666  12.342  29.215  18.716 -0.1165  0.0825  0.3397
 1126POPE   C4A12667  12.211  29.119  19.100  0.0194  0.0388  0.0246
 1126POPE   C1B12668  12.951  29.257  18.042 -0.1240  0.2157 -0.4057
 1126POPE   C2B12669  13.102  29.472  18.358 -0.0220 -0.1691 -0.2153
 1126POPE   C3B12670  13.240  29.694  18.733  0.0755 -0.2010 -0.0043
 1126POPE   C4B12671  13.472  29.851  18.486 -0.0006 -0.0196 -0.0201
 1127POPE   NH312672  15.685   0.176  11.813  0.1820 -0.0945 -0.1428
 1127POPE   PO412673  15.897   0.355  11.504  0.2801 -0.3139  0.2452
 1127POPE   GL112674  16.203   0.403  11.856  0.0436 -0.4581  0.0784
 1127POPE   GL212675  16.154   0.231  12.070  0.3297  0.1802 -0.1024
 1127POPE   C1A12676  16.456   0.710  12.125 -0.1959  0.1089  0.0150
 1127POPE   D2A12677  16.877   0.831  12.250  0.0464 -0.2081  0.3527
 1127POPE   C3A12678  17.123   0.845  12.635 -0.0241  0.1186 -0.0298
 1127POPE   C4A12679  17.364   1.146  12.741 -0.1054  0.0027  0.0393
 1127POPE   C1B12680  16.422   0.278  12.353 -0.2374 -0.3561 -0.3235
 1127POPE   C2B12681  16.757   0.428  12.566  0.2984 -0.0122 -0.2547
 1127POPE   C3B12682  17.179   0.300  12.707  0.0038  0.2647  0.0320
 1127POPE   C4B12683  17.534   0.170  12.521 -0.0077 -0.1260 -0.0704
 1128POPE   NH312684  13.931  20.337  16.477 -0.4166  0.1259 -0.0736
 1128POPE   PO412685  14.259  20.688  16.534 -0.1856 -0.3059  0.0697
 1128POPE   GL112686  14.389  20.786  16.870 -0.5859 -0.2296  0.2796
 1128POPE   GL212687  14.171  20.972  16.988  0.0172  0.1252  0.1859
 1128POPE   C1A12688  14.551  20.611  17.185 -0.2818  0.1171 -0.1221
 1128POPE   D2A12689  14.591  20.581  17.572  0.1225 -0.2846  0.3132
 1128POPE   C3A12690  14.797  20.364  17.756 -0.2142  0.0608 -0.1420
 1128POPE   C4A12691  14.992  20.312  18.187 -0.0978 -0.1213  0.0230
 1128POPE   C1B12692  14.157  20.919  17.449  0.0653 -0.0446 -0.3448
 1128POPE   C2B12693  14.285  20.787  17.857 -0.0279  0.0374  0.0641
 1128POPE   C3B12694  14.441  20.585  18.169  0.1175 -0.1481  0.0822
 1128POPE   C4B12695  14.211  20.411  18.521 -0.1082  0.1750  0.0177
 1129POPE   NH312696  10.911   3.307  14.365  0.3125  0.2521 -0.1530
 1129POPE   PO412697  11.083   3.018  14.331 -0.0775  0.0688 -0.1331
 1129POPE   GL112698  11.065   3.028  14.769 -0.1385  0.1581  0.2557
 1129POPE   GL212699  10.988   3.375  14.928 -0.2988  0.0648  0.1410
 1129POPE   C1A12700  11.275   2.881  15.068  0.0811 -0.0465 -0.0912
 1129POPE   D2A12701  11.257   2.614  15.293 -0.0924 -0.0699  0.0505
 1129POPE   C3A12702  11.335   2.614  15.834 -0.1356 -0.1696  0.1490
 1129POPE   C4A12703  11.558   2.819  16.177 -0.2899 -0.1095 -0.3875
 1129POPE   C1B12704  10.844   3.498  15.305  0.0607 -0.1034  0.1166
 1129POPE   C2B12705  10.772   3.770  15.645 -0.0452 -0.0404 -0.1221
 1129POPE   C3B12706  10.881   3.963  16.102 -0.1313  0.0112  0.0940
 1129POPE   C4B12707  10.935   3.816  16.596  0.1330  0.1781  0.1042
 1130POPE   NH312708  14.840  12.190  14.829 -0.0974  0.1134  0.1566
 1130POPE   PO412709  15.158  11.995  14.749 -0.0683 -0.0189  0.1439
 1130POPE   GL112710  15.489  11.877  14.813 -0.1954  0.2182 -0.0464
 1130POPE   GL212711  15.765  11.632  14.881  0.3397 -0.2205  0.0691
 1130POPE   C1A12712  15.874  12.129  14.927  0.0910 -0.3520 -0.0053
 1130POPE   D2A12713  16.065  12.240  15.303 -0.2361  0.1298  0.1018
 1130POPE   C3A12714  16.171  12.153  15.692 -0.0894 -0.0639  0.1304
 1130POPE   C4A12715  16.180  12.178  16.054  0.1157 -0.2910 -0.0333
 1130POPE   C1B12716  15.965  11.732  15.237  0.0706 -0.0206 -0.2124
 1130POPE   C2B12717  16.119  11.664  15.783  0.2815 -0.0316  0.0530
 1130POPE   C3B12718  16.119  11.589  16.172  0.1284  0.3255 -0.1863
 1130POPE   C4B12719  16.016  11.588  16.567 -0.1355  0.0242 -0.3200
 1131POPE   NH312720  33.701  34.680   8.123 -0.1020 -0.3664 -0.0000
 1131POPE   PO412721  33.612  34.316   7.794  0.0895  0.0837 -0.0364
 1131POPE   GL112722  33.394  33.999   8.076  0.1966  0.1443  0.1723
 1131POPE   GL212723  33.371  34.304   8.250 -0.0801 -0.1165 -0.2406
 1131POPE   C1A12724  33.243  33.770   8.409  0.0489 -0.0330  0.1670
 1131POPE   D2A12725  33.248  33.683   8.766 -0.1465  0.1812 -0.1180
 1131POPE   C3A12726  32.802  33.707   8.952 -0.3298 -0.2976  0.0258
 1131POPE   C4A12727  32.493  33.999   9.004 -0.0018  0.0168 -0.1274
 1131POPE   C1B12728  33.237  34.331   8.594 -0.1658  0.1132  0.1879
 1131POPE   C2B12729  33.043  34.099   8.788 -0.0359  0.4017 -0.1277
 1131POPE   C3B12730  32.983  34.068   9.163  0.0693 -0.2267 -0.1080
 1131POPE   C4B12731  32.689  34.165   9.514  0.0916 -0.1727 -0.2943
 1132POPE   NH312732  20.471  11.049  10.036  0.1331  0.0311  0.0483
 1132POPE   PO412733  20.295  11.319  10.273  0.3171 -0.1052 -0.3123
 1132POPE   GL112734  20.549  11.161  10.521  0.1628 -0.0247 -0.2346
 1132POPE   GL212735  20.774  11.378  10.398 -0.0661 -0.3145  0.0402
 1132POPE   C1A12736  20.681  11.073  10.844 -0.0422  0.1694  0.2248
 1132POPE   D2A12737  21.119  11.158  11.047 -0.1430  0.2144 -0.2690
 1132POPE   C3A12738  21.172  11.299  11.428 -0.5026  0.0939  0.1177
 1132POPE   C4A12739  21.509  11.570  11.656  0.1000  0.2584 -0.1148
 1132POPE   C1B12740  21.120  11.480  10.675 -0.0200  0.0099  0.5962
 1132POPE   C2B12741  21.527  11.620  10.740 -0.1950  0.2073 -0.1066
 1132POPE   C3B12742  21.839  12.013  10.843  0.2051 -0.2356  0.1858
 1132POPE   C4B12743  22.205  11.852  10.813 -0.3714 -0.0274 -0.1268
 1133POPE   NH312744   8.966   7.188  13.808 -0.1206  0.0857 -0.3191
 1133POPE   PO412745   9.271   7.191  14.117  0.0856  0.2713 -0.0386
 1133POPE   GL112746   9.157   7.124  14.649 -0.1177  0.3398  0.0063
 1133POPE   GL212747   8.865   6.861  14.688  0.0249  0.0985 -0.3874
 1133POPE   C1A12748   9.241   7.063  15.023  0.0687 -0.1376  0.1867
 1133POPE   D2A12749   9.006   7.018  15.374 -0.2266  0.0000  0.1993
 1133POPE   C3A12750   8.915   6.918  15.776 -0.2319 -0.1266 -0.6806
 1133POPE   C4A12751   8.740   7.104  16.210  0.1680 -0.3261 -0.0120
 1133POPE   C1B12752   8.674   6.906  15.099  0.0176 -0.1034  0.3483
 1133POPE   C2B12753   8.403   6.953  15.440 -0.3582  0.0187  0.0142
 1133POPE   C3B12754   8.190   7.118  15.820 -0.1782 -0.0440  0.1031
 1133POPE   C4B12755   8.261   7.181  16.266  0.0542 -0.0250 -0.0733
 1134POPE   NH312756   6.186  15.480  11.392 -0.0621 -0.0355  0.1844
 1134POPE   PO412757   6.294  15.892  11.473  0.1546  0.0422 -0.0973
 1134POPE   GL112758   6.009  16.061  11.467  0.2055 -0.1899  0.0164
 1134POPE   GL212759   5.850  15.874  11.179 -0.1717  0.0440 -0.2089
 1134POPE   C1A12760   5.635  16.152  11.505  0.4594  0.1560 -0.3139
 1134POPE   D2A12761   5.399  16.191  11.809 -0.0296 -0.0546 -0.0442
 1134POPE   C3A12762   4.985  16.134  11.971 -0.2846 -0.0908 -0.0083
 1134POPE   C4A12763   4.594  16.107  11.808 -0.1707 -0.1324 -0.0603
 1134POPE   C1B12764   5.387  15.875  11.180 -0.1867 -0.0773 -0.2393
 1134POPE   C2B12765   5.082  15.891  11.491 -0.1158  0.0370 -0.1140
 1134POPE   C3B12766   4.701  15.653  11.535 -0.1408 -0.0542  0.1969
 1134POPE   C4B12767   4.319  15.719  11.663  0.0974 -0.0991 -0.0025
 1135POPE   NH312768  14.583  19.477  15.601 -0.0224  0.3602  0.2614
 1135POPE   PO412769  14.336  19.436  15.916  0.1796 -0.1853 -0.2392
 1135POPE   GL112770  14.423  19.300  16.280 -0.0253  0.1078 -0.0139
 1135POPE   GL212771  14.412  19.380  16.561  0.1690 -0.1976  0.0739
 1135POPE   C1A12772  14.701  18.971  16.471 -0.3365 -0.2212  0.0899
 1135POPE   D2A12773  14.822  18.644  16.618 -0.1328 -0.3357 -0.0766
 1135POPE   C3A12774  15.003  18.423  16.982 -0.1060  0.1331  0.0530
 1135POPE   C4A12775  15.250  18.413  17.348  0.0143  0.1119  0.3449
 1135POPE   C1B12776  14.579  19.150  16.915  0.0535  0.0398 -0.0586
 1135POPE   C2B12777  14.750  19.013  17.267  0.1940 -0.4813 -0.1642
 1135POPE   C3B12778  14.859  19.229  17.499  0.0634 -0.2705 -0.2031
 1135POPE   C4B12779  14.923  18.908  17.889  0.2502  0.2516 -0.4988
 1136POPE   NH312780  19.066  19.465  11.778  0.1886 -0.0626  0.1330
 1136POPE   PO412781  18.973  19.767  12.167 -0.3310 -0.1312 -0.0634
 1136POPE   GL112782  19.333  19.603  12.231 -0.1832 -0.2494  0.0843
 1136POPE   GL212783  19.442  19.755  12.440 -0.1247 -0.1064  0.3090
 1136POPE   C1A12784  19.771  19.427  12.254 -0.4522  0.3809 -0.1352
 1136POPE   D2A12785  20.094  19.260  12.340 -0.1637 -0.2193 -0.0324
 1136POPE   C3A12786  20.443  19.393  12.381 -0.0189  0.1798 -0.1531
 1136POPE   C4A12787  20.649  19.447  12.881 -0.1012 -0.3335  0.0699
 1136POPE   C1B12788  19.798  19.709  12.757 -0.2493  0.0035  0.0614
 1136POPE   C2B12789  20.123  19.395  12.837 -0.2272  0.1841  0.2736
 1136POPE   C3B12790  20.354  19.034  12.729  0.1382 -0.1445 -0.1691
 1136POPE   C4B12791  20.733  19.006  12.488  0.1810 -0.0088 -0.0651
 1137POPE   NH312792  33.145  19.409   0.759  0.3690 -0.3376  0.0696
 1137POPE   PO412793  33.435  19.731   0.991  0.0355 -0.2598  0.1202
 1137POPE   GL112794  33.697  19.802   1.272  0.1607 -0.0205  0.0394
 1137POPE   GL212795  33.650  19.552   1.475  0.0892  0.2773  0.2732
 1137POPE   C1A12796  33.931  19.921   1.596 -0.1551 -0.4367 -0.1252
 1137POPE   D2A12797  34.040  20.146   1.965  0.1582  0.1430  0.2481
 1137POPE   C3A12798  33.758  20.239   2.392 -0.1919  0.1787 -0.0509
 1137POPE   C4A12799  33.483  20.307   2.719  0.1793  0.2137  0.3339
 1137POPE   C1B12800  33.490  19.430   1.825  0.2071  0.1324 -0.1739
 1137POPE   C2B12801  33.402  19.358   2.339  0.1459  0.2872 -0.0781
 1137POPE   C3B12802  33.118  18.941   2.507 -0.5381  0.0938 -0.1586
 1137POPE   C4B12803  33.086  18.604   2.763  0.0269  0.2971  0.1503
 1138POPE   NH312804  10.405  27.692  17.411  0.2459 -0.0191 -0.3928
 1138POPE   PO412805  10.360  27.349  17.271  0.0943  0.0086 -0.0111
 1138POPE   GL112806  10.306  27.399  17.794  0.4489  0.1108 -0.1414
 1138POPE   GL212807  10.131  27.167  17.749 -0.1600 -0.0514  0.0021
 1138POPE   C1A12808  10.244  27.632  18.182 -0.1614  0.1687 -0.1974
 1138POPE   D2A12809  10.164  27.757  18.606 -0.5496 -0.1859 -0.2540
 1138POPE   C3A12810  10.111  27.703  19.002 -0.1940 -0.0427  0.1686
 1138POPE   C4A12811   9.953  27.434  19.342  0.3417 -0.0448 -0.2040
 1138POPE   C1B12812   9.912  27.336  18.061  0.1567  0.0844 -0.1693
 1138POPE   C2B12813   9.790  27.506  18.509  0.2103  0.2836 -0.2045
 1138POPE   C3B12814   9.578  27.515  18.930  0.3045 -0.2162 -0.0571
 1138POPE   C4B12815   9.445  27.599  19.391 -0.0416  0.2123 -0.0891
 1139POPE   NH312816   5.471  33.883  14.025 -0.4241  0.1127 -0.0940
 1139POPE   PO412817   5.464  34.257  13.944  0.0806 -0.0962 -0.1647
 1139POPE   GL112818   5.055  34.179  14.248  0.1180 -0.2830  0.0269
 1139POPE   GL212819   5.102  33.841  14.406 -0.0959  0.0899  0.2447
 1139POPE   C1A12820   4.689  34.186  14.576  0.5966 -0.0511 -0.1728
 1139POPE   D2A12821   4.322  34.238  14.764 -0.2230 -0.2619 -0.1267
 1139POPE   C3A12822   4.164  34.006  15.197  0.0054  0.2505 -0.0976
 1139POPE   C4A12823   4.104  33.965  15.626 -0.2179  0.2547  0.4357
 1139POPE   C1B12824   4.713  33.838  14.187  0.3769 -0.2486  0.4271
 1139POPE   C2B12825   4.386  33.777  14.252 -0.1141 -0.2019  0.0131
 1139POPE   C3B12826   4.002  33.929  14.434 -0.0683  0.2939 -0.0959
 1139POPE   C4B12827   3.865  33.999  14.813  0.0099 -0.0932  0.0712
 1140POPE   NH312828  12.583  28.790  17.306 -0.0873 -0.4581  0.1318
 1140POPE   PO412829  13.018  28.684  17.408 -0.2132 -0.3871 -0.3489
 1140POPE   GL112830  12.767  28.579  17.863 -0.1398 -0.2121 -0.0595
 1140POPE   GL212831  12.504  28.534  17.734  0.1717  0.1875 -0.3162
 1140POPE   C1A12832  12.685  28.769  18.194  0.2376  0.0946  0.3246
 1140POPE   D2A12833  12.818  28.999  18.500 -0.0789  0.1423  0.2204
 1140POPE   C3A12834  12.840  28.886  18.861  0.3422 -0.2334 -0.0744
 1140POPE   C4A12835  12.727  29.058  19.215  0.0984 -0.1702 -0.1448
 1140POPE   C1B12836  12.246  28.592  18.062 -0.1067 -0.3712  0.0047
 1140POPE   C2B12837  12.246  28.770  18.521  0.1043  0.1168  0.0963
 1140POPE   C3B12838  12.364  28.705  18.853 -0.0096 -0.0585  0.1440
 1140POPE   C4B12839  12.593  28.398  19.124  0.2552  0.1242 -0.1492
 1141POPE   NH312840  30.116   7.205   3.074 -0.3407  0.0218  0.2077
 1141POPE   PO412841  29.728   7.289   2.991  0.1787 -0.1253 -0.1023
 1141POPE   GL112842  29.817   7.578   3.361 -0.1055 -0.0858  0.1398
 1141POPE   GL212843  29.624   7.907   3.354  0.0957  0.1122  0.1517
 1141POPE   C1A12844  29.996   7.628   3.825 -0.1714  0.2516 -0.2539
 1141POPE   D2A12845  29.825   7.283   4.066 -0.3569 -0.2732 -0.0742
 1141POPE   C3A12846  29.692   7.399   4.365  0.0199 -0.0608  0.1735
 1141POPE   C4A12847  29.780   7.683   4.781  0.0426  0.1482  0.0914
 1141POPE   C1B12848  29.672   8.173   3.718  0.2402 -0.1858 -0.3836
 1141POPE   C2B12849  29.759   8.477   4.067  0.4098  0.1102 -0.0912
 1141POPE   C3B12850  29.755   8.380   4.543 -0.1163 -0.0242 -0.2060
 1141POPE   C4B12851  29.843   8.369   4.932  0.2486 -0.0867 -0.5435
 1142POPE   NH312852  34.894  22.698   2.028  0.1612  0.1581  0.0477
 1142POPE   PO412853  35.111  23.024   2.083 -0.3450  0.0184 -0.0562
 1142POPE   GL112854  35.049  22.844   2.470 -0.0141 -0.0103  0.0988
 1142POPE   GL212855  34.977  22.965   2.757  0.1867 -0.2281  0.1291
 1142POPE   C1A12856  35.140  22.424   2.619  0.1007  0.1346  0.2817
 1142POPE   D2A12857  35.086  22.189   2.948 -0.0984  0.1805  0.1565
 1142POPE   C3A12858  34.770  21.898   3.051 -0.0574  0.3784 -0.0406
 1142POPE   C4A12859  34.465  21.689   3.305 -0.0944  0.0356  0.2389
 1142POPE   C1B12860  34.799  22.957   3.207  0.0635  0.3435  0.0536
 1142POPE   C2B12861  34.597  22.898   3.615 -0.1915  0.0166 -0.0731
 1142POPE   C3B12862  34.138  22.792   3.828 -0.1936  0.0706  0.2616
 1142POPE   C4B12863  33.666  22.820   3.832  0.0547 -0.4302 -0.0084
 1143POPE   NH312864  33.717   6.421   6.063  0.2025 -0.0968 -0.1620
 1143POPE   PO412865  34.103   6.548   6.232  0.0908 -0.1876 -0.1007
 1143POPE   GL112866  34.133   6.832   6.564 -0.2099  0.1295 -0.2219
 1143POPE   GL212867  34.323   7.075   6.485 -0.2217 -0.0377  0.2902
 1143POPE   C1A12868  33.803   7.015   6.926 -0.1288 -0.2599 -0.1876
 1143POPE   D2A12869  33.570   7.219   7.240  0.3273 -0.2638 -0.0557
 1143POPE   C3A12870  33.554   7.628   7.341  0.3644  0.3932  0.3730
 1143POPE   C4A12871  33.444   8.047   7.185  0.0958 -0.2574  0.2034
 1143POPE   C1B12872  34.206   7.367   6.721 -0.1613 -0.2510 -0.1652
 1143POPE   C2B12873  33.951   7.592   7.080 -0.3155  0.0442 -0.0247
 1143POPE   C3B12874  33.988   7.815   7.347 -0.4246  0.0024  0.2214
 1143POPE   C4B12875  33.825   8.161   7.517 -0.0326  0.2375 -0.0807
 1144POPE   NH312876  16.392  23.558  16.096  0.0376  0.0140  0.0309
 1144POPE   PO412877  16.640  23.944  15.856  0.0306 -0.3375  0.0280
 1144POPE   GL112878  17.038  23.896  16.093  0.0056 -0.1601  0.1375
 1144POPE   GL212879  16.979  23.614  16.172  0.0112  0.2798  0.3620
 1144POPE   C1A12880  17.366  23.939  16.377  0.3771 -0.0249  0.1136
 1144POPE   D2A12881  17.802  23.923  16.634  0.1612 -0.0998 -0.0583
 1144POPE   C3A12882  18.074  23.698  16.825  0.0778 -0.0192 -0.3159
 1144POPE   C4A12883  18.293  23.773  17.141 -0.0667 -0.3345 -0.0612
 1144POPE   C1B12884  17.362  23.418  16.355 -0.3852 -0.3950  0.0592
 1144POPE   C2B12885  17.709  23.330  16.648 -0.1706 -0.0339 -0.1485
 1144POPE   C3B12886  17.748  23.166  17.065 -0.5848 -0.0723 -0.0367
 1144POPE   C4B12887  17.853  22.967  17.378  0.2892 -0.1784 -0.1388
 1145POPE   NH312888  33.540   6.899   5.404 -0.0470 -0.0729  0.1065
 1145POPE   PO412889  33.428   6.559   5.678  0.0635 -0.0045  0.0736
 1145POPE   GL112890  33.343   6.793   6.089  0.1164  0.2122 -0.0208
 1145POPE   GL212891  33.494   7.055   5.866 -0.1471  0.0267  0.0732
 1145POPE   C1A12892  33.107   7.114   6.359 -0.2322  0.3786 -0.1458
 1145POPE   D2A12893  32.723   7.412   6.621 -0.1859 -0.0984  0.0137
 1145POPE   C3A12894  32.687   7.859   6.426 -0.4131 -0.1170 -0.0262
 1145POPE   C4A12895  32.425   8.170   6.242 -0.3130  0.3634 -0.2392
 1145POPE   C1B12896  33.275   7.322   5.986 -0.0236 -0.1397  0.0393
 1145POPE   C2B12897  32.994   7.593   6.141 -0.0649  0.2956  0.1730
 1145POPE   C3B12898  32.683   7.967   5.866 -0.1663  0.1284  0.0791
 1145POPE   C4B12899  32.492   8.202   5.595  0.0440 -0.0403 -0.1075
 1146POPE   NH312900  13.071  10.266  14.565 -0.1114 -0.1440  0.0036
 1146POPE   PO412901  12.605  10.122  14.608  0.1936  0.2889  0.1667
 1146POPE   GL112902  12.815   9.991  14.936  0.0618 -0.0138 -0.1692
 1146POPE   GL212903  13.036   9.864  14.927 -0.2824  0.2518  0.1881
 1146POPE   C1A12904  12.872  10.199  15.323 -0.1018 -0.0405  0.0810
 1146POPE   D2A12905  12.872  10.133  15.795  0.0233  0.3264  0.2959
 1146POPE   C3A12906  12.817  10.067  16.219  0.0247 -0.4655  0.0390
 1146POPE   C4A12907  12.938   9.971  16.653 -0.1751  0.2158 -0.0376
 1146POPE   C1B12908  12.974   9.735  15.418  0.0788 -0.0501  0.0220
 1146POPE   C2B12909  13.083   9.655  15.893 -0.1116 -0.2806  0.1868
 1146POPE   C3B12910  13.126   9.620  16.284 -0.0676  0.0579 -0.1065
 1146POPE   C4B12911  13.313   9.674  16.720 -0.2505  0.3547  0.1033
 1147POPE   NH312912   5.524  26.339  13.698  0.2284  0.0373 -0.1651
 1147POPE   PO412913   5.882  26.118  13.635 -0.2175  0.1681  0.0218
 1147POPE   GL112914   5.630  25.732  13.742  0.0423 -0.0834  0.2015
 1147POPE   GL212915   5.472  25.580  13.524 -0.2799  0.0550 -0.0350
 1147POPE   C1A12916   5.786  25.587  14.209  0.0042 -0.0812  0.4513
 1147POPE   D2A12917   5.454  25.552  14.456 -0.2602  0.1641 -0.0873
 1147POPE   C3A12918   5.149  25.803  14.379 -0.0384 -0.1594 -0.1694
 1147POPE   C4A12919   4.923  26.088  14.443 -0.0469 -0.1385  0.0159
 1147POPE   C1B12920   5.212  25.150  13.586  0.0178 -0.2589  0.0519
 1147POPE   C2B12921   4.845  25.081  13.707  0.3150 -0.1794  0.0307
 1147POPE   C3B12922   4.364  24.940  13.691  0.0892 -0.0332  0.1420
 1147POPE   C4B12923   3.986  24.781  13.633 -0.0077 -0.2070 -0.0117
 1148POPE   NH312924  11.390   6.139  14.826 -0.2403 -0.1015 -0.0041
 1148POPE   PO412925  11.002   5.978  14.976  0.2133  0.0108 -0.0039
 1148POPE   GL112926  10.812   5.712  15.292 -0.0834  0.0763 -0.1312
 1148POPE   GL212927  10.520   5.516  15.201  0.5474 -0.3223 -0.0652
 1148POPE   C1A12928  10.720   5.582  15.793 -0.1911  0.0401 -0.2536
 1148POPE   D2A12929  10.645   5.647  16.108  0.0262 -0.1596  0.1451
 1148POPE   C3A12930  10.897   5.543  16.381 -0.2108  0.0250  0.1280
 1148POPE   C4A12931  11.161   5.744  16.713 -0.2540 -0.3532  0.2305
 1148POPE   C1B12932  10.224   5.341  15.485 -0.1112 -0.0958 -0.0565
 1148POPE   C2B12933   9.990   5.039  15.698 -0.1981 -0.0473 -0.1408
 1148POPE   C3B12934   9.768   4.668  15.752 -0.0618  0.0181  0.1528
 1148POPE   C4B12935   9.657   4.424  16.061  0.1690  0.1731 -0.3050
 1149POPE   NH312936  15.091   3.157  12.849  0.0444  0.0241  0.0904
 1149POPE   PO412937  14.883   3.408  13.107 -0.0125  0.0759 -0.0411
 1149POPE   GL112938  14.870   3.020  13.310 -0.2562 -0.2048  0.0208
 1149POPE   GL212939  14.664   2.854  13.200 -0.4294  0.1434  0.1230
 1149POPE   C1A12940  14.916   2.940  13.691 -0.3839  0.0653  0.1776
 1149POPE   D2A12941  15.068   2.842  14.021  0.0382  0.1800  0.0244
 1149POPE   C3A12942  15.187   2.802  14.450  0.0097  0.1456 -0.0184
 1149POPE   C4A12943  15.004   2.522  14.735 -0.0944 -0.2321 -0.0039
 1149POPE   C1B12944  14.604   2.621  13.476 -0.1020  0.5415 -0.2274
 1149POPE   C2B12945  14.611   2.373  13.832 -0.2485  0.1212 -0.0410
 1149POPE   C3B12946  14.771   2.151  14.190 -0.0571  0.0598  0.2393
 1149POPE   C4B12947  14.697   2.159  14.666 -0.0891 -0.2604  0.1950
 1150POPE   NH312948   4.406   4.020  10.080 -0.0248 -0.1390  0.0852
 1150POPE   PO412949   3.929   3.979  10.070  0.0674 -0.0382 -0.1388
 1150POPE   GL112950   3.565   4.236  10.101  0.0277  0.1934 -0.1490
 1150POPE   GL212951   3.667   4.421  10.379 -0.2282  0.0933  0.0351
 1150POPE   C1A12952   3.202   4.313   9.970 -0.1029  0.0490 -0.0553
 1150POPE   D2A12953   2.758   4.519   9.892  0.0438 -0.0334  0.1152
 1150POPE   C3A12954   2.575   4.854   9.775  0.0227 -0.1187  0.4444
 1150POPE   C4A12955   2.539   5.227   9.785 -0.3149 -0.2857 -0.2201
 1150POPE   C1B12956   3.286   4.455  10.440  0.0329 -0.1537 -0.0882
 1150POPE   C2B12957   2.824   4.565  10.408 -0.2517 -0.0912  0.0730
 1150POPE   C3B12958   2.545   4.756  10.657 -0.1150  0.2334  0.1578
 1150POPE   C4B12959   2.651   4.761  11.032 -0.0103 -0.1236 -0.4057
 1151POPE   NH312960  12.997  11.207  14.361  0.1055  0.2678  0.0022
 1151POPE   PO412961  13.172  11.573  14.175  0.0358  0.1845  0.2264
 1151POPE   GL112962  13.274  11.468  14.631  0.0987  0.2175  0.4518
 1151POPE   GL212963  12.998  11.407  14.829 -0.2569  0.1591  0.2623
 1151POPE   C1A12964  13.388  11.560  15.059 -0.2016  0.2749  0.2290
 1151POPE   D2A12965  13.176  11.802  15.340  0.0943  0.0736  0.2052
 1151POPE   C3A12966  12.859  11.812  15.276  0.2162 -0.3048  0.2059
 1151POPE   C4A12967  12.602  11.609  15.099 -0.2755  0.0999  0.2131
 1151POPE   C1B12968  12.983  11.338  15.322  0.1108  0.1491  0.0547
 1151POPE   C2B12969  12.905  11.382  15.805 -0.0884 -0.2745  0.1731
 1151POPE   C3B12970  13.015  11.477  16.244 -0.0778 -0.1860  0.1137
 1151POPE   C4B12971  13.154  11.468  16.687  0.0525 -0.0765  0.1239
 1152POPE   NH312972   1.551   1.164   9.739  0.0518  0.0445  0.0627
 1152POPE   PO412973   1.601   1.394   9.325  0.0978 -0.0240 -0.0277
 1152POPE   GL112974   1.283   1.544   9.674 -0.1901 -0.0855 -0.0760
 1152POPE   GL212975   1.146   1.380   9.861  0.3641 -0.4165  0.0610
 1152POPE   C1A12976   1.178   1.745  10.158  0.1567  0.0417 -0.0951
 1152POPE   D2A12977   1.201   1.777  10.632  0.0174 -0.0432  0.0050
 1152POPE   C3A12978   0.816   1.931  10.783  0.3096  0.2673  0.3567
 1152POPE   C4A12979   0.739   2.076  11.167 -0.2567 -0.0281  0.0689
 1152POPE   C1B12980   0.804   1.458  10.057 -0.1645 -0.3894 -0.1073
 1152POPE   C2B12981   0.734   1.528  10.493 -0.3918  0.0046 -0.0237
 1152POPE   C3B12982   0.397   1.610  10.827  0.0537  0.4240 -0.1775
 1152POPE   C4B12983   0.081   1.577  11.134  0.2391 -0.2778 -0.2882
 1153POPE   NH312984  20.455  13.638   6.913 -0.2157 -0.3547  0.1965
 1153POPE   PO412985  20.754  13.505   7.114 -0.1269  0.0526 -0.0856
 1153POPE   GL112986  21.131  13.686   7.139 -0.2105  0.2317  0.0840
 1153POPE   GL212987  21.164  13.896   6.961 -0.0697  0.1892 -0.1811
 1153POPE   C1A12988  21.590  13.739   7.260  0.3651  0.0304 -0.2300
 1153POPE   D2A12989  21.863  13.838   7.681 -0.1774 -0.3315 -0.1204
 1153POPE   C3A12990  22.122  13.667   7.711 -0.1722 -0.0855  0.0577
 1153POPE   C4A12991  22.584  13.420   7.679  0.1128  0.1460  0.0204
 1153POPE   C1B12992  21.459  14.115   7.016  0.1147 -0.2203  0.0905
 1153POPE   C2B12993  21.973  14.312   6.884  0.0791  0.0702 -0.1040
 1153POPE   C3B12994  22.181  14.692   6.603  0.1426  0.0536  0.1259
 1153POPE   C4B12995  22.515  15.017   6.504  0.2723  0.1740 -0.1756
 1154POPE   NH312996  21.026  21.726   7.486 -0.1146 -0.0696  0.0587
 1154POPE   PO412997  20.864  22.124   7.623 -0.4073 -0.2117 -0.1478
 1154POPE   GL112998  21.054  21.849   7.967  0.0223  0.2239 -0.0571
 1154POPE   GL212999  21.384  21.785   7.859 -0.2767  0.2533 -0.0291
 1154POPE   C1A13000  21.471  21.659   8.312 -0.1600 -0.1321  0.1864
 1154POPE   D2A13001  22.028  21.508   8.395  0.1155  0.0111  0.0421
 1154POPE   C3A13002  22.238  21.102   8.325  0.0007  0.0674  0.1438
 1154POPE   C4A13003  22.526  21.072   8.629  0.1444 -0.0784 -0.2266
 1154POPE   C1B13004  21.820  21.784   7.933 -0.0085  0.2313 -0.3164
 1154POPE   C2B13005  22.212  21.907   8.086  0.0039 -0.0652 -0.0747
 1154POPE   C3B13006  22.610  22.123   8.264 -0.1505  0.2844  0.0113
 1154POPE   C4B13007  22.975  22.378   8.567 -0.0881  0.1890 -0.3404
 1155DOPE   NH313008  11.038  32.750  16.703  0.0657 -0.0161  0.0234
 1155DOPE   PO413009  11.290  32.515  16.316 -0.1095  0.2042 -0.5265
 1155DOPE   GL113010  11.426  32.436  16.745  0.0090 -0.2818 -0.0445
 1155DOPE   GL213011  11.553  32.770  16.787  0.1716  0.0384 -0.1901
 1155DOPE   C1A13012  11.798  32.408  17.082  0.0764  0.0684  0.1055
 1155DOPE   D2A13013  11.931  32.561  17.471 -0.1095 -0.0251  0.1008
 1155DOPE   C3A13014  11.978  32.390  17.913  0.0820 -0.1353 -0.1443
 1155DOPE   C4A13015  11.913  32.349  18.258 -0.1671  0.4300  0.1860
 1155DOPE   C1B13016  11.657  32.874  17.176  0.2628  0.0066  0.0622
 1155DOPE   D2B13017  11.733  33.042  17.549 -0.2792 -0.1175  0.1034
 1155DOPE   C3B13018  11.678  32.798  17.992  0.2153  0.1791  0.1463
 1155DOPE   C4B13019  11.545  32.636  18.425 -0.1311  0.0401  0.1680
 1156DOPE   NH313020  18.710  26.497  10.560 -0.1379  0.0403 -0.1546
 1156DOPE   PO413021  18.837  26.036  10.649 -0.6586  0.1554 -0.0987
 1156DOPE   GL113022  19.265  26.226  10.648  0.2616  0.0770 -0.2050
 1156DOPE   GL213023  19.482  25.932  10.524 -0.0912 -0.2434 -0.2261
 1156DOPE   C1A13024  19.627  26.202  10.882  0.1601  0.0022 -0.0745
 1156DOPE   D2A13025  19.762  26.416  11.178 -0.1138 -0.0293  0.0854
 1156DOPE   C3A13026  19.646  26.228  11.642 -0.0417  0.4677 -0.2167
 1156DOPE   C4A13027  19.848  26.075  12.003  0.0429  0.4302 -0.1592
 1156DOPE   C1B13028  19.887  25.772  10.682 -0.0234 -0.2575  0.3804
 1156DOPE   D2B13029  20.051  25.837  11.170 -0.2583 -0.1041 -0.0921
 1156DOPE   C3B13030  20.259  25.524  11.224 -0.2251 -0.4452  0.2083
 1156DOPE   C4B13031  20.279  25.043  11.162 -0.0118  0.0443  0.2156
 1157DOPE   NH313032   7.219  11.818  12.415 -0.2763 -0.0296  0.3722
 1157DOPE   PO413033   7.602  11.879  12.671  0.0819  0.0257 -0.0317
 1157DOPE   GL113034   7.245  12.041  12.924 -0.0062  0.0873  0.1791
 1157DOPE   GL213035   6.942  12.202  12.765 -0.0101 -0.1826 -0.4434
 1157DOPE   C1A13036   6.989  11.965  13.233 -0.0837 -0.0566  0.0527
 1157DOPE   D2A13037   6.697  11.954  13.487 -0.0868 -0.0937  0.0985
 1157DOPE   C3A13038   6.310  11.919  13.571  0.1709  0.1264  0.0362
 1157DOPE   C4A13039   5.823  11.975  13.415  0.1085  0.1516 -0.0286
 1157DOPE   C1B13040   6.543  12.170  12.702  0.0616 -0.5612  0.2579
 1157DOPE   D2B13041   6.097  12.246  12.694  0.1480  0.1185 -0.0970
 1157DOPE   C3B13042   5.770  12.010  12.927  0.1816 -0.0507  0.1386
 1157DOPE   C4B13043   5.470  11.769  12.734 -0.2204  0.0932 -0.2900
 1158DOPE   NH313044  14.623  29.020  16.058  0.1190  0.0351  0.1069
 1158DOPE   PO413045  14.611  29.410  15.823  0.1203  0.1967 -0.0558
 1158DOPE   GL113046  14.684  29.474  16.278  0.0868  0.0871 -0.0622
 1158DOPE   GL213047  14.901  29.282  16.510  0.1692  0.2065 -0.2277
 1158DOPE   C1A13048  14.770  29.888  16.493 -0.4123  0.0070 -0.1933
 1158DOPE   D2A13049  14.835  30.097  16.902  0.0998 -0.3652  0.1216
 1158DOPE   C3A13050  15.118  30.181  17.154  0.1628  0.1579 -0.0054
 1158DOPE   C4A13051  15.419  30.378  17.339  0.2092  0.0304  0.3618
 1158DOPE   C1B13052  15.126  29.224  16.889  0.0162 -0.0946  0.0229
 1158DOPE   D2B13053  15.409  29.428  17.273 -0.0962  0.0611 -0.2489
 1158DOPE   C3B13054  15.733  29.649  17.278  0.0435 -0.1532 -0.1933
 1158DOPE   C4B13055  15.899  30.036  17.418  0.1608  0.0302  0.0464
 1159DOPE   NH313056  26.118   8.774   2.951 -0.4650 -0.2938 -0.0369
 1159DOPE   PO413057  26.091   8.478   3.253 -0.0398  0.0101  0.0622
 1159DOPE   GL113058  26.387   8.206   3.401 -0.1680  0.2934 -0.2408
 1159DOPE   GL213059  26.631   8.373   3.459 -0.5302  0.2266 -0.2342
 1159DOPE   C1A13060  26.407   8.336   3.911  0.2866 -0.1420 -0.1402
 1159DOPE   D2A13061  26.684   8.379   4.198 -0.1319  0.0563  0.2266
 1159DOPE   C3A13062  26.704   8.722   4.514  0.2929  0.1326 -0.2683
 1159DOPE   C4A13063  26.958   8.848   4.890  0.2276  0.1259 -0.1718
 1159DOPE   C1B13064  26.801   8.576   3.767  0.3139  0.0219  0.2410
 1159DOPE   D2B13065  27.050   8.684   4.081  0.2092  0.3563  0.1473
 1159DOPE   C3B13066  27.178   9.057   4.369 -0.4649 -0.2290  0.0564
 1159DOPE   C4B13067  27.415   9.301   4.509 -0.2461 -0.2201  0.1500
 1160DOPE   NH313068  20.506   1.488   9.034  0.2486  0.1406  0.0271
 1160DOPE   PO413069  20.908   1.658   8.950 -0.0422 -0.0856 -0.1683
 1160DOPE   GL113070  20.868   1.685   9.424  0.3165  0.1457 -0.2950
 1160DOPE   GL213071  21.173   1.551   9.450  0.0481  0.0889 -0.1645
 1160DOPE   C1A13072  20.696   1.941   9.870 -0.0067 -0.2435  0.2168
 1160DOPE   D2A13073  20.591   2.222  10.183  0.2300 -0.0620 -0.0272
 1160DOPE   C3A13074  20.852   2.193  10.472  0.1925 -0.0037 -0.2296
 1160DOPE   C4A13075  21.087   2.215  10.916 -0.2878  0.1246  0.5390
 1160DOPE   C1B13076  21.192   1.606   9.843  0.2763  0.0937  0.0032
 1160DOPE   D2B13077  20.980   1.806  10.194 -0.1435  0.0548  0.1920
 1160DOPE   C3B13078  20.953   1.710  10.684 -0.0764 -0.1384 -0.1602
 1160DOPE   C4B13079  21.344   1.695  10.991  0.1034 -0.1539  0.0316
 1161DOPE   NH313080  10.144  17.817  14.330 -0.0148  0.0875  0.2044
 1161DOPE   PO413081  10.137  17.385  14.111 -0.2355 -0.2042 -0.1029
 1161DOPE   GL113082  10.246  17.182  14.506  0.2485 -0.0562 -0.1718
 1161DOPE   GL213083  10.536  17.086  14.678  0.0818 -0.1220 -0.0922
 1161DOPE   C1A13084  10.143  16.885  14.911 -0.2644  0.1180 -0.0148
 1161DOPE   D2A13085  10.048  16.581  15.239 -0.1393  0.0794  0.2539
 1161DOPE   C3A13086   9.890  16.165  15.304 -0.0665 -0.0422 -0.0977
 1161DOPE   C4A13087  10.079  15.840  15.360 -0.2360  0.0842 -0.0596
 1161DOPE   C1B13088  10.654  16.773  15.064  0.1610  0.1636  0.0171
 1161DOPE   D2B13089  10.678  16.666  15.489  0.1090 -0.0166 -0.1873
 1161DOPE   C3B13090  10.876  16.440  15.811  0.0682  0.1362  0.1314
 1161DOPE   C4B13091  10.799  16.016  15.971  0.0745 -0.0450 -0.1789
 1162DOPE   NH313092  19.736   8.963  11.521  0.0335  0.0755  0.0173
 1162DOPE   PO413093  20.142   8.823  11.384  0.1332 -0.0618  0.1450
 1162DOPE   GL113094  20.163   9.095  11.723 -0.1124  0.3165 -0.0401
 1162DOPE   GL213095  20.243   9.318  11.531 -0.2746 -0.0719  0.0757
 1162DOPE   C1A13096  20.407   8.928  12.079  0.0478 -0.0647  0.1820
 1162DOPE   D2A13097  20.595   8.723  12.403  0.0858 -0.1041  0.0342
 1162DOPE   C3A13098  20.494   8.867  12.755  0.0479  0.3750  0.1961
 1162DOPE   C4A13099  20.349   8.942  13.199  0.1629 -0.2311 -0.2294
 1162DOPE   C1B13100  20.629   9.367  11.596  0.2013 -0.3152 -0.2418
 1162DOPE   D2B13101  20.823   9.348  11.983 -0.1002 -0.0382 -0.0560
 1162DOPE   C3B13102  20.777   9.209  12.328 -0.1844 -0.0038  0.0631
 1162DOPE   C4B13103  20.970   9.017  12.607  0.0683  0.2647 -0.0700
 1163DOPE   NH313104  27.483  21.477  25.838  0.3866  0.0605 -0.0736
 1163DOPE   PO413105  27.200  21.033  25.984 -0.1091 -0.2052 -0.0717
 1163DOPE   GL113106  27.417  20.847   0.101 -0.0556  0.2459 -0.0036
 1163DOPE   GL213107  27.686  20.950   0.193 -0.3020  0.1903  0.0737
 1163DOPE   C1A13108  27.292  20.955   0.420 -0.1651 -0.0876  0.1643
 1163DOPE   D2A13109  27.356  20.746   0.879 -0.0797 -0.2426 -0.1212
 1163DOPE   C3A13110  27.641  20.394   0.878  0.1779 -0.1344 -0.0916
 1163DOPE   C4A13111  27.654  20.061   1.091 -0.1297  0.3548  0.0112
 1163DOPE   C1B13112  27.780  20.871   0.682  0.1950 -0.1047 -0.0184
 1163DOPE   D2B13113  27.736  20.922   1.130 -0.0129  0.0151  0.0799
 1163DOPE   C3B13114  27.784  20.528   1.356  0.2459 -0.0330  0.1170
 1163DOPE   C4B13115  27.638  20.128   1.609 -0.1219 -0.0426  0.0696
 1164DOPE   NH313116  20.953   8.657  10.398  0.1335  0.3582  0.2340
 1164DOPE   PO413117  21.149   8.793  10.062  0.0418 -0.0264  0.0127
 1164DOPE   GL113118  21.426   8.944  10.457 -0.3725  0.1974  0.5407
 1164DOPE   GL213119  21.229   9.117  10.574  0.0527 -0.1035 -0.0614
 1164DOPE   C1A13120  21.789   8.796  10.727 -0.3171  0.1817  0.0174
 1164DOPE   D2A13121  22.141   8.942  10.998  0.0655  0.1183 -0.1502
 1164DOPE   C3A13122  22.546   8.807  11.028  0.0864 -0.1590 -0.3112
 1164DOPE   C4A13123  22.839   8.946  11.368  0.1094 -0.0399  0.0083
 1164DOPE   C1B13124  21.394   9.039  10.933  0.1650  0.4547  0.0482
 1164DOPE   D2B13125  21.655   9.157  11.274  0.0680 -0.1044 -0.1200
 1164DOPE   C3B13126  21.860   8.952  11.595  0.1298 -0.2179  0.0095
 1164DOPE   C4B13127  22.094   8.820  11.921 -0.0223 -0.0942 -0.1092
 1165DOPE   NH313128   0.187  26.548   5.954 -0.1071  0.0881 -0.0471
 1165DOPE   PO413129   0.164  26.277   5.619 -0.2407 -0.0428  0.1464
 1165DOPE   GL113130  35.289  26.143   5.894  0.2329  0.0495 -0.0239
 1165DOPE   GL213131  35.233  26.271   6.211 -0.3535 -0.0836 -0.0385
 1165DOPE   C1A13132  34.924  25.902   6.111 -0.0439 -0.1433 -0.0350
 1165DOPE   D2A13133  34.576  25.555   6.015 -0.0710  0.0491  0.4468
 1165DOPE   C3A13134  34.210  25.520   6.078 -0.2934 -0.2049 -0.1472
 1165DOPE   C4A13135  33.940  25.590   6.317 -0.1372  0.0227  0.2370
 1165DOPE   C1B13136  35.045  26.266   6.656 -0.2326  0.1919 -0.1617
 1165DOPE   D2B13137  34.846  26.009   7.129 -0.3205 -0.1675 -0.1744
 1165DOPE   C3B13138  34.576  25.754   7.173  0.0525  0.2826  0.0076
 1165DOPE   C4B13139  34.289  25.656   7.495  0.2374 -0.4119  0.3998
 1166DOPE   NH313140  16.802   3.462  11.863 -0.1101  0.1192 -0.2369
 1166DOPE   PO413141  17.114   3.139  11.814 -0.2707  0.3031 -0.2310
 1166DOPE   GL113142  17.037   2.787  12.005 -0.0562 -0.2373 -0.2377
 1166DOPE   GL213143  17.107   2.535  11.774 -0.1772 -0.2837 -0.4144
 1166DOPE   C1A13144  16.987   2.523  12.354 -0.2192 -0.1250  0.1310
 1166DOPE   D2A13145  17.199   2.223  12.711 -0.0580 -0.1131  0.1032
 1166DOPE   C3A13146  17.581   2.067  12.908 -0.1085  0.3590  0.1532
 1166DOPE   C4A13147  17.921   1.869  12.660 -0.2144 -0.0682  0.0811
 1166DOPE   C1B13148  17.340   2.126  11.660  0.0105  0.0138  0.2287
 1166DOPE   D2B13149  17.648   1.724  11.631 -0.3917  0.2991 -0.0194
 1166DOPE   C3B13150  17.511   1.275  11.805 -0.0586 -0.0431 -0.2987
 1166DOPE   C4B13151  17.372   1.169  12.256 -0.1659 -0.2974  0.1559
 1167DOPE   NH313152  21.436   3.679   8.529  0.1894  0.2438 -0.1944
 1167DOPE   PO413153  21.814   3.437   8.314 -0.1066 -0.0849  0.0314
 1167DOPE   GL113154  21.945   3.572   8.695  0.0660  0.1640  0.1566
 1167DOPE   GL213155  21.819   3.896   8.865  0.1083 -0.0880  0.2364
 1167DOPE   C1A13156  22.320   3.644   8.944 -0.0195 -0.0707  0.1045
 1167DOPE   D2A13157  22.417   3.655   9.412  0.1356  0.0242  0.0750
 1167DOPE   C3A13158  22.806   3.833   9.559  0.0811 -0.0306  0.3465
 1167DOPE   C4A13159  23.180   3.774   9.783 -0.4502 -0.3526 -0.0782
 1167DOPE   C1B13160  22.028   3.943   9.258 -0.1598 -0.1443 -0.2755
 1167DOPE   D2B13161  21.952   3.766   9.659 -0.0014  0.0819 -0.1838
 1167DOPE   C3B13162  22.356   3.667   9.876  0.0809  0.0313 -0.0415
 1167DOPE   C4B13163  22.799   3.687  10.213 -0.1440  0.0029  0.0384
 1168DOPE   NH313164  12.256  21.579  17.655 -0.0587  0.0516 -0.0076
 1168DOPE   PO413165  12.049  21.352  17.536 -0.3170  0.1156 -0.1353
 1168DOPE   GL113166  12.278  21.063  17.798 -0.1789  0.2296  0.0639
 1168DOPE   GL213167  12.527  21.190  17.844  0.1176 -0.0040  0.1079
 1168DOPE   C1A13168  12.423  20.688  17.968 -0.4497 -0.1892  0.0654
 1168DOPE   D2A13169  12.545  20.523  18.311 -0.0158 -0.1278  0.0466
 1168DOPE   C3A13170  12.441  20.124  18.567 -0.0845  0.0829  0.0729
 1168DOPE   C4A13171  12.365  19.746  18.935 -0.1304 -0.1308  0.1324
 1168DOPE   C1B13172  12.757  21.059  18.086 -0.1008 -0.1486 -0.1864
 1168DOPE   D2B13173  12.813  20.909  18.531 -0.4559 -0.2644  0.1345
 1168DOPE   C3B13174  12.664  20.559  18.767  0.0990  0.0653  0.2915
 1168DOPE   C4B13175  12.417  20.369  19.038  0.0124  0.0597  0.2078
 1169DOPE   NH313176  23.438   8.284   5.485 -0.4817  0.0453 -0.2649
 1169DOPE   PO413177  23.153   8.487   5.687 -0.1726 -0.1878 -0.0763
 1169DOPE   GL113178  23.394   8.469   5.947  0.1334 -0.0984  0.1158
 1169DOPE   GL213179  23.723   8.402   5.930 -0.4421  0.1445  0.1407
 1169DOPE   C1A13180  23.540   8.446   6.401 -0.1093 -0.1341  0.0992
 1169DOPE   D2A13181  23.525   8.442   6.839  0.0723  0.2091  0.2349
 1169DOPE   C3A13182  23.502   8.162   7.093 -0.0717 -0.4039 -0.2295
 1169DOPE   C4A13183  23.757   7.816   7.134 -0.0403  0.3337 -0.0927
 1169DOPE   C1B13184  24.041   8.493   6.244  0.1982 -0.2568 -0.2205
 1169DOPE   D2B13185  23.985   8.659   6.672 -0.0241 -0.0332 -0.0226
 1169DOPE   C3B13186  24.327   8.628   6.992  0.1123 -0.0378  0.1672
 1169DOPE   C4B13187  24.293   8.535   7.427  0.2086  0.0771 -0.2897
 1170DOPE   NH313188  32.077  27.621   4.373 -0.0452 -0.0623  0.0270
 1170DOPE   PO413189  32.142  28.088   4.340 -0.0456  0.0212  0.0066
 1170DOPE   GL113190  32.217  27.978   4.787  0.0590 -0.2143 -0.1116
 1170DOPE   GL213191  32.425  27.706   4.690 -0.0384 -0.0857 -0.2576
 1170DOPE   C1A13192  32.173  27.838   5.151  0.1415 -0.0860 -0.1980
 1170DOPE   D2A13193  32.084  27.895   5.560  0.3606 -0.1223 -0.0056
 1170DOPE   C3A13194  32.053  27.728   5.874 -0.0630  0.0409 -0.2357
 1170DOPE   C4A13195  31.937  27.407   6.161 -0.0661 -0.3504 -0.0320
 1170DOPE   C1B13196  32.251  27.388   4.925 -0.0643 -0.1085 -0.2543
 1170DOPE   D2B13197  32.276  27.007   5.157 -0.2831 -0.4740  0.1325
 1170DOPE   C3B13198  32.578  27.035   5.463 -0.2589 -0.2678 -0.1685
 1170DOPE   C4B13199  32.708  27.115   5.919 -0.2105  0.0527 -0.3363
 1171DOPE   NH313200  14.584  22.937  17.566  0.2342 -0.0743 -0.3842
 1171DOPE   PO413201  14.980  22.619  17.442  0.0655  0.1759  0.1798
 1171DOPE   GL113202  14.862  22.577  17.791  0.0372  0.3047  0.1850
 1171DOPE   GL213203  14.875  22.798  17.957 -0.1211  0.0322  0.1253
 1171DOPE   C1A13204  14.940  22.338  18.129 -0.1219 -0.0196 -0.1824
 1171DOPE   D2A13205  15.229  22.199  18.374  0.0504  0.0705 -0.0180
 1171DOPE   C3A13206  15.375  22.020  18.698  0.0208  0.3723  0.2032
 1171DOPE   C4A13207  15.763  21.798  18.737 -0.1237 -0.3547  0.0339
 1171DOPE   C1B13208  15.204  22.714  18.306  0.0477  0.2263 -0.0352
 1171DOPE   D2B13209  15.500  22.663  18.585  0.1046 -0.1020  0.0042
 1171DOPE   C3B13210  15.618  22.771  19.019 -0.2810  0.0927  0.1883
 1171DOPE   C4B13211  15.874  22.911  19.395 -0.2723  0.1146 -0.2473
 1172DOPE   NH313212   4.291  16.114   6.198 -0.1254 -0.1342  0.3298
 1172DOPE   PO413213   4.232  16.485   5.808  0.2169 -0.1670 -0.1278
 1172DOPE   GL113214   3.812  16.500   6.042  0.0312  0.1745 -0.0619
 1172DOPE   GL213215   3.915  16.519   6.338 -0.2094  0.2839 -0.1040
 1172DOPE   C1A13216   3.330  16.493   6.075  0.0179  0.2269 -0.0506
 1172DOPE   D2A13217   3.001  16.551   5.884  0.2153 -0.2656  0.4617
 1172DOPE   C3A13218   2.718  16.904   6.080 -0.0949  0.0310 -0.0862
 1172DOPE   C4A13219   2.232  16.937   6.117  0.2392 -0.1807 -0.0379
 1172DOPE   C1B13220   3.637  16.268   6.478 -0.2652 -0.1767  0.1078
 1172DOPE   D2B13221   3.198  16.457   6.639  0.2444  0.0090  0.1660
 1172DOPE   C3B13222   2.855  16.608   6.467 -0.0214  0.0053 -0.2566
 1172DOPE   C4B13223   2.460  16.540   6.375  0.2783  0.2796  0.0282
 1173DOPE   NH313224  10.511   0.696  15.288 -0.3241  0.1785  0.0680
 1173DOPE   PO413225  10.613   0.306  15.380 -0.0141 -0.0688  0.1339
 1173DOPE   GL113226  10.648   0.358  15.817 -0.3694 -0.0356 -0.0382
 1173DOPE   GL213227  11.033   0.354  15.847 -0.0917 -0.1956 -0.0021
 1173DOPE   C1A13228  10.615   0.631  16.181 -0.2885 -0.2527  0.2195
 1173DOPE   D2A13229  10.638   0.837  16.563  0.0601 -0.2108 -0.0440
 1173DOPE   C3A13230  11.015   1.032  16.738 -0.2496  0.0619 -0.1015
 1173DOPE   C4A13231  11.350   1.109  16.683 -0.1081  0.1179  0.0151
 1173DOPE   C1B13232  11.403   0.535  15.923 -0.0015 -0.1186  0.4263
 1173DOPE   D2B13233  11.922   0.479  15.955  0.1523  0.0421  0.1128
 1173DOPE   C3B13234  12.151   0.744  16.298 -0.0457 -0.0657  0.0462
 1173DOPE   C4B13235  12.350   0.739  16.670 -0.0154  0.1435  0.2818
 1174DOPE   NH313236   2.908  25.170   7.194 -0.2719 -0.0480  0.0665
 1174DOPE   PO413237   2.716  25.128   6.764 -0.0097 -0.0591 -0.3330
 1174DOPE   GL113238   2.542  24.857   7.080 -0.0594 -0.1662  0.1592
 1174DOPE   GL213239   2.636  24.637   6.869 -0.0123  0.2148  0.1936
 1174DOPE   C1A13240   2.230  24.635   7.111  0.2682  0.0884  0.1013
 1174DOPE   D2A13241   2.056  24.349   7.258  0.0788  0.2695 -0.2687
 1174DOPE   C3A13242   1.824  24.142   7.336 -0.1893  0.1042 -0.0560
 1174DOPE   C4A13243   1.570  23.745   7.454 -0.0616  0.0418 -0.2685
 1174DOPE   C1B13244   2.534  24.244   6.973  0.3269  0.1698  0.1477
 1174DOPE   D2B13245   2.411  23.928   7.301 -0.1253  0.0440  0.2036
 1174DOPE   C3B13246   2.279  23.504   7.362  0.2440 -0.2173  0.2762
 1174DOPE   C4B13247   2.183  23.085   7.192  0.0683  0.1396 -0.1788
 1175DOPE   NH313248  21.432  11.247   8.021  0.1266 -0.2417  0.2009
 1175DOPE   PO413249  21.344  10.876   7.892 -0.2563 -0.1628  0.2410
 1175DOPE   GL113250  21.737  10.829   8.214 -0.0228  0.0078 -0.0212
 1175DOPE   GL213251  21.727  10.948   8.494  0.0147  0.0433  0.2073
 1175DOPE   C1A13252  22.121  10.987   8.193  0.3639 -0.1622  0.0567
 1175DOPE   D2A13253  22.295  11.350   8.377  0.0819 -0.0077  0.1614
 1175DOPE   C3A13254  22.579  11.687   8.229 -0.2226 -0.1601 -0.0171
 1175DOPE   C4A13255  22.927  11.810   7.843  0.1091 -0.2445 -0.0048
 1175DOPE   C1B13256  22.038  11.082   8.662 -0.0010 -0.1081 -0.2833
 1175DOPE   D2B13257  22.119  11.503   8.948  0.0572  0.0968  0.4268
 1175DOPE   C3B13258  22.350  11.805   9.003 -0.1996 -0.1820  0.0040
 1175DOPE   C4B13259  22.548  12.168   8.740 -0.0658 -0.4412 -0.1001
 1176DOPE   NH313260   6.843  12.219  11.936  0.0954 -0.1563 -0.1361
 1176DOPE   PO413261   7.149  12.300  12.259 -0.0332  0.1772 -0.1661
 1176DOPE   GL113262   6.666  12.546  12.431  0.0689 -0.1638 -0.2160
 1176DOPE   GL213263   6.510  12.920  12.366  0.4275  0.1082  0.1563
 1176DOPE   C1A13264   6.418  12.682  12.840 -0.0373  0.0572  0.1946
 1176DOPE   D2A13265   6.275  13.008  13.104 -0.1061 -0.2679  0.1349
 1176DOPE   C3A13266   5.936  13.277  13.040  0.0381 -0.0424 -0.0430
 1176DOPE   C4A13267   5.533  13.357  13.050 -0.1904 -0.2449 -0.1964
 1176DOPE   C1B13268   6.752  13.033  12.660  0.0479 -0.1405 -0.0630
 1176DOPE   D2B13269   6.857  13.177  13.024  0.2797 -0.4024 -0.0446
 1176DOPE   C3B13270   6.665  12.943  13.408 -0.1172 -0.0353  0.1139
 1176DOPE   C4B13271   6.347  12.693  13.550  0.1838  0.1405 -0.0170
 1177DOPE   NH313272   0.448  28.732   8.272  0.0097  0.2851 -0.1792
 1177DOPE   PO413273  35.374  28.707   8.043  0.0696  0.1326  0.0493
 1177DOPE   GL113274  35.243  28.464   8.371 -0.1343  0.1713  0.0956
 1177DOPE   GL213275  35.196  28.107   8.398 -0.2515 -0.0945 -0.0547
 1177DOPE   C1A13276  34.812  28.467   8.598  0.0696  0.0112  0.0055
 1177DOPE   D2A13277  34.416  28.390   8.824  0.0080  0.2606 -0.1796
 1177DOPE   C3A13278  34.081  28.396   8.676 -0.0258  0.1044 -0.0262
 1177DOPE   C4A13279  33.676  28.616   8.547  0.0636 -0.0992  0.0645
 1177DOPE   C1B13280  34.983  27.922   8.667  0.1616  0.1511  0.4373
 1177DOPE   D2B13281  34.637  27.956   8.735  0.0669  0.1238 -0.1075
 1177DOPE   C3B13282  34.414  27.817   9.065  0.1116  0.2100  0.1900
 1177DOPE   C4B13283  34.095  28.067   9.260 -0.0185  0.1410  0.1488
 1178DOPE   NH313284   6.270  34.385  14.518 -0.2018  0.2374  0.0069
 1178DOPE   PO413285   6.396  34.621  14.794  0.0343  0.1049  0.1508
 1178DOPE   GL113286   6.153  34.393  15.096  0.0333 -0.0604 -0.0881
 1178DOPE   GL213287   6.361  34.265  15.274 -0.3906  0.3594  0.1862
 1178DOPE   C1A13288   5.875  34.328  15.407 -0.0083 -0.3343 -0.0809
 1178DOPE   D2A13289   5.562  34.270  15.707  0.1490 -0.3524 -0.0863
 1178DOPE   C3A13290   5.401  34.632  15.962 -0.1389 -0.1162 -0.2787
 1178DOPE   C4A13291   5.028  34.889  15.834 -0.0178  0.0036 -0.1035
 1178DOPE   C1B13292   6.151  33.909  15.535  0.2088 -0.0529  0.0452
 1178DOPE   D2B13293   5.923  33.655  15.876  0.2361  0.2678 -0.0147
 1178DOPE   C3B13294   5.520  33.834  15.905  0.1032  0.2311  0.0460
 1178DOPE   C4B13295   5.285  34.057  16.106  0.1522  0.1485 -0.0727
 1179DOPE   NH313296  20.425   9.078  11.049  0.2059 -0.2410  0.2385
 1179DOPE   PO413297  20.772   8.856  10.763  0.0920 -0.0920  0.0284
 1179DOPE   GL113298  20.974   8.874  11.136  0.0216 -0.0548  0.0321
 1179DOPE   GL213299  20.983   8.543  11.234 -0.0296  0.0730  0.1058
 1179DOPE   C1A13300  21.263   8.847  11.448 -0.1257  0.3053 -0.0141
 1179DOPE   D2A13301  21.441   8.820  11.730 -0.0095  0.2488  0.2224
 1179DOPE   C3A13302  21.747   9.141  12.011 -0.1551  0.2619 -0.0484
 1179DOPE   C4A13303  21.881   9.484  12.291 -0.2160 -0.1950 -0.2221
 1179DOPE   C1B13304  21.126   8.385  11.645 -0.3736 -0.1419 -0.1131
 1179DOPE   D2B13305  21.376   8.243  11.974  0.1854  0.0702 -0.1463
 1179DOPE   C3B13306  21.582   8.516  12.233 -0.4341 -0.0070  0.0568
 1179DOPE   C4B13307  21.532   8.899  12.513  0.0865 -0.0486  0.0147
 1180DOPE   NH313308  27.751  29.655   4.504  0.1185 -0.0034 -0.0088
 1180DOPE   PO413309  27.784  29.228   4.467 -0.2753  0.3186  0.1295
 1180DOPE   GL113310  28.012  29.077   4.802 -0.0108  0.2207  0.1768
 1180DOPE   GL213311  28.087  29.258   5.239  0.2488 -0.2024 -0.2704
 1180DOPE   C1A13312  28.147  28.733   5.129  0.0337 -0.0020  0.0535
 1180DOPE   D2A13313  28.287  28.520   5.509  0.1633  0.0582  0.1309
 1180DOPE   C3A13314  28.245  28.128   5.429  0.1294 -0.0626  0.1935
 1180DOPE   C4A13315  28.386  27.794   5.730  0.1062  0.1816  0.2123
 1180DOPE   C1B13316  28.004  29.035   5.558 -0.2158  0.3612  0.0553
 1180DOPE   D2B13317  28.126  28.874   5.897  0.0221  0.2506  0.0723
 1180DOPE   C3B13318  28.204  28.360   5.979 -0.0352 -0.0122 -0.1043
 1180DOPE   C4B13319  28.096  27.952   6.156  0.1476  0.1410  0.0124
 1181DOPE   NH313320  18.161  12.810  12.577 -0.0821  0.2040  0.1371
 1181DOPE   PO413321  18.420  12.487  12.341 -0.1513 -0.2409  0.1094
 1181DOPE   GL113322  18.626  12.642  12.738  0.1137 -0.0414  0.2761
 1181DOPE   GL213323  18.524  12.859  12.896  0.0256 -0.1859 -0.0497
 1181DOPE   C1A13324  19.036  12.614  12.820 -0.1444 -0.0782 -0.3313
 1181DOPE   D2A13325  19.281  12.613  13.275 -0.3786  0.0349 -0.1944
 1181DOPE   C3A13326  19.553  12.236  13.412 -0.2762  0.0867  0.1406
 1181DOPE   C4A13327  19.899  11.974  13.386  0.1080 -0.3325 -0.1002
 1181DOPE   C1B13328  18.849  12.916  13.158 -0.1281 -0.2178  0.0070
 1181DOPE   D2B13329  19.159  13.050  13.501  0.2048 -0.0444 -0.0446
 1181DOPE   C3B13330  19.491  12.839  13.758 -0.2123 -0.0727  0.1208
 1181DOPE   C4B13331  19.679  12.521  13.820  0.0019 -0.0728  0.2600
 1182DOPE   NH313332  30.645  30.316   5.667  0.0562 -0.0908 -0.0981
 1182DOPE   PO413333  30.200  30.417   5.638 -0.0325 -0.2248  0.1586
 1182DOPE   GL113334  30.308  30.159   6.062  0.1588  0.1388 -0.0596
 1182DOPE   GL213335  30.066  29.946   5.917  0.0843 -0.0618 -0.1089
 1182DOPE   C1A13336  30.137  29.884   6.416 -0.0911 -0.0909 -0.2870
 1182DOPE   D2A13337  29.782  29.684   6.663 -0.0592  0.1722  0.0794
 1182DOPE   C3A13338  29.668  29.578   7.017 -0.2097  0.1457  0.3001
 1182DOPE   C4A13339  29.518  29.405   7.391 -0.3050  0.0326 -0.0524
 1182DOPE   C1B13340  29.653  29.847   5.973  0.1642 -0.2501  0.2663
 1182DOPE   D2B13341  29.629  29.433   6.169  0.1655 -0.0391  0.0825
 1182DOPE   C3B13342  29.401  29.278   6.593 -0.1381  0.1266  0.1028
 1182DOPE   C4B13343  29.198  29.331   7.018  0.3474  0.0960  0.0885
 1183DOPE   NH313344  19.508  26.292  10.112  0.2322  0.3036  0.3510
 1183DOPE   PO413345  19.103  26.519  10.069 -0.0817  0.3010 -0.1633
 1183DOPE   GL113346  19.356  26.742  10.358  0.2982 -0.5283 -0.0691
 1183DOPE   GL213347  19.138  26.825  10.591 -0.3698  0.1484 -0.2881
 1183DOPE   C1A13348  19.829  26.803  10.440 -0.0002 -0.2654 -0.3121
 1183DOPE   D2A13349  20.032  26.805  10.870  0.0296 -0.0335  0.2233
 1183DOPE   C3A13350  20.420  27.022  10.922 -0.0227  0.1071 -0.3596
 1183DOPE   C4A13351  20.708  27.241  10.789  0.2294 -0.4472  0.7269
 1183DOPE   C1B13352  19.432  26.791  10.860 -0.0320  0.0295  0.0752
 1183DOPE   D2B13353  19.630  26.966  11.142  0.0718  0.0731 -0.0293
 1183DOPE   C3B13354  19.929  26.883  11.445 -0.1735  0.0568  0.2778
 1183DOPE   C4B13355  20.357  26.903  11.460 -0.0831 -0.0074  0.0341
 1184DOPE   NH313356  17.472  28.010  11.369  0.0711  0.0971 -0.1300
 1184DOPE   PO413357  17.387  28.486  11.324 -0.0325 -0.1240 -0.0662
 1184DOPE   GL113358  17.864  28.526  11.282  0.0462  0.3597  0.0049
 1184DOPE   GL213359  17.932  28.168  11.234  0.3308  0.0844  0.0421
 1184DOPE   C1A13360  18.196  28.768  11.360  0.2939  0.2337  0.2123
 1184DOPE   D2A13361  18.657  28.729  11.546  0.2091 -0.0605  0.0160
 1184DOPE   C3A13362  18.791  28.808  11.963 -0.1668 -0.0351  0.3225
 1184DOPE   C4A13363  18.810  29.297  12.083 -0.0779  0.1511  0.1645
 1184DOPE   C1B13364  18.354  28.288  11.353  0.0551 -0.0580 -0.2141
 1184DOPE   D2B13365  18.767  28.280  11.299 -0.1644  0.2024  0.0662
 1184DOPE   C3B13366  19.196  28.336  11.494 -0.0004  0.0848  0.1749
 1184DOPE   C4B13367  19.669  28.143  11.470  0.0145 -0.3112 -0.2462
 1185DOPE   NH313368   1.795  22.782   3.994 -0.0438  0.0283  0.1720
 1185DOPE   PO413369   1.513  23.161   4.087  0.2124 -0.2169 -0.3077
 1185DOPE   GL113370   1.502  23.117   4.508 -0.2045 -0.0966 -0.1851
 1185DOPE   GL213371   1.655  22.858   4.545 -0.3460 -0.2285  0.0975
 1185DOPE   C1A13372   1.336  23.011   4.989  0.2909 -0.2311 -0.1691
 1185DOPE   D2A13373   1.001  23.038   5.305 -0.1029  0.1990 -0.0360
 1185DOPE   C3A13374   0.745  23.359   5.397 -0.3151 -0.2075 -0.0367
 1185DOPE   C4A13375   0.527  23.553   5.775 -0.0476 -0.2391 -0.2501
 1185DOPE   C1B13376   1.351  22.588   4.716  0.2009 -0.0138  0.0534
 1185DOPE   D2B13377   1.020  22.513   5.057 -0.3257 -0.0685 -0.0714
 1185DOPE   C3B13378   0.761  22.240   5.061  0.0421  0.0765  0.0698
 1185DOPE   C4B13379   0.602  22.001   4.826 -0.1588 -0.0799  0.0953
 1186DOPE   NH313380  27.273  15.483   0.279 -0.0754 -0.1387  0.1628
 1186DOPE   PO413381  26.818  15.427   0.271  0.1246 -0.0502  0.2228
 1186DOPE   GL113382  26.969  15.535   0.682  0.1043  0.2035 -0.3191
 1186DOPE   GL213383  27.182  15.252   0.765 -0.2266 -0.0338  0.1595
 1186DOPE   C1A13384  26.991  15.627   1.027 -0.0106 -0.2555 -0.1362
 1186DOPE   D2A13385  26.651  15.788   1.277  0.0196 -0.1378 -0.2539
 1186DOPE   C3A13386  26.721  15.741   1.655  0.3182  0.0729 -0.1238
 1186DOPE   C4A13387  26.791  15.548   2.045  0.1600  0.0206  0.0970
 1186DOPE   C1B13388  27.441  15.303   1.090 -0.2339  0.0660 -0.1888
 1186DOPE   D2B13389  27.670  15.401   1.454 -0.1278  0.1533 -0.2331
 1186DOPE   C3B13390  28.067  15.610   1.464 -0.2417  0.2151 -0.3468
 1186DOPE   C4B13391  28.220  15.880   1.466  0.0669 -0.2150  0.2294
 1187DOPE   NH313392  24.261   6.366   4.831  0.0794 -0.0950  0.0805
 1187DOPE   PO413393  24.571   6.602   5.050  0.1526  0.0851 -0.1688
 1187DOPE   GL113394  24.885   6.594   5.331  0.1062 -0.0227 -0.3631
 1187DOPE   GL213395  24.660   6.723   5.563  0.0980 -0.2098  0.3067
 1187DOPE   C1A13396  25.223   6.606   5.674 -0.2907  0.0734  0.2590
 1187DOPE   D2A13397  25.582   6.551   5.907 -0.1432  0.0449  0.1712
 1187DOPE   C3A13398  25.744   6.794   6.177 -0.2121  0.1743 -0.3895
 1187DOPE   C4A13399  25.640   7.160   6.297 -0.0939 -0.2789  0.2054
 1187DOPE   C1B13400  24.904   6.865   5.902  0.1980  0.1451  0.0384
 1187DOPE   D2B13401  25.192   6.907   6.132  0.0191  0.0312  0.2668
 1187DOPE   C3B13402  25.221   7.132   6.546 -0.0707 -0.0718  0.0248
 1187DOPE   C4B13403  25.454   7.295   6.867 -0.1531  0.0640  0.0940
 1188DOPE   NH313404  11.703   7.344  14.850  0.1363 -0.2283 -0.1256
 1188DOPE   PO413405  12.134   7.437  14.673 -0.3332  0.0148 -0.0317
 1188DOPE   GL113406  12.152   7.046  14.990 -0.1534  0.3731 -0.0886
 1188DOPE   GL213407  11.850   6.867  15.060 -0.0549  0.3920  0.0404
 1188DOPE   C1A13408  12.279   6.959  15.518 -0.3365 -0.3397 -0.3506
 1188DOPE   D2A13409  12.688   6.982  15.798 -0.1083  0.1684 -0.0623
 1188DOPE   C3A13410  12.874   6.835  16.097  0.1949  0.0540  0.1138
 1188DOPE   C4A13411  12.999   6.514  16.423  0.0449 -0.1513 -0.0710
 1188DOPE   C1B13412  11.950   6.566  15.528  0.0693  0.1318  0.1388
 1188DOPE   D2B13413  12.028   6.442  15.958  0.0129 -0.2025 -0.3351
 1188DOPE   C3B13414  12.327   6.844  16.142 -0.4090 -0.1267  0.3327
 1188DOPE   C4B13415  12.546   6.833  16.500  0.3676  0.2680  0.0939
 1189DOPE   NH313416  32.614  23.015   0.351  0.0415 -0.1235  0.0547
 1189DOPE   PO413417  32.545  22.602   0.468 -0.0258 -0.0737  0.4013
 1189DOPE   GL113418  32.615  22.374   0.850  0.0767  0.0112 -0.0071
 1189DOPE   GL213419  32.873  22.577   1.038  0.0920  0.1424  0.2127
 1189DOPE   C1A13420  32.426  22.480   1.283 -0.1272 -0.0217  0.3400
 1189DOPE   D2A13421  32.362  22.353   1.633 -0.1047  0.2158  0.1513
 1189DOPE   C3A13422  32.232  22.110   2.038 -0.2498  0.1921 -0.1868
 1189DOPE   C4A13423  32.285  21.724   2.348  0.1147  0.2422 -0.0919
 1189DOPE   C1B13424  32.858  22.727   1.413  0.0669  0.1662  0.2525
 1189DOPE   D2B13425  32.950  23.026   1.782  0.0412 -0.2922  0.1627
 1189DOPE   C3B13426  32.964  23.137   2.243  0.0083  0.0390 -0.0803
 1189DOPE   C4B13427  32.753  23.239   2.743 -0.0311  0.1206  0.1268
 1190DOPE   NH313428   5.768  15.211  10.613  0.0039  0.2025 -0.0727
 1190DOPE   PO413429   5.701  15.009  10.116 -0.0531 -0.1330  0.0474
 1190DOPE   GL113430   5.416  14.916  10.451 -0.0996 -0.0091  0.1047
 1190DOPE   GL213431   5.269  15.175  10.476 -0.0815 -0.0105 -0.2080
 1190DOPE   C1A13432   4.971  14.730  10.442 -0.0527  0.1356 -0.2059
 1190DOPE   D2A13433   4.670  14.532  10.589 -0.2162  0.2908  0.0967
 1190DOPE   C3A13434   4.187  14.748  10.699 -0.0994 -0.2104  0.2656
 1190DOPE   C4A13435   3.986  15.267  10.828  0.1014 -0.2116 -0.1305
 1190DOPE   C1B13436   4.942  15.215  10.684  0.1285 -0.1010 -0.4037
 1190DOPE   D2B13437   4.527  15.137  10.651 -0.0254  0.1496  0.2332
 1190DOPE   C3B13438   4.260  15.364  10.400 -0.2504 -0.1096 -0.1972
 1190DOPE   C4B13439   3.792  15.323  10.233  0.1288 -0.2475  0.0248
 1191DOPE   NH313440   0.533   0.611   9.474 -0.0780  0.1985 -0.4549
 1191DOPE   PO413441   0.790   1.034   9.022  0.1089 -0.2971  0.0125
 1191DOPE   GL113442   0.720   1.232   9.361  0.0567  0.0636 -0.0231
 1191DOPE   GL213443   0.467   1.476   9.237  0.1837  0.0613  0.4361
 1191DOPE   C1A13444   0.801   1.616   9.556 -0.0124  0.1494  0.2077
 1191DOPE   D2A13445   0.663   1.937   9.796  0.2457 -0.0469 -0.0093
 1191DOPE   C3A13446   0.652   1.995  10.221  0.1485  0.1666 -0.0452
 1191DOPE   C4A13447   0.503   2.296  10.630 -0.0092  0.0187 -0.0191
 1191DOPE   C1B13448   0.366   1.544   9.702  0.0197 -0.1363 -0.1819
 1191DOPE   D2B13449   0.283   1.542  10.206 -0.0941 -0.1809 -0.0496
 1191DOPE   C3B13450   0.248   1.887  10.419  0.1133 -0.3977 -0.1308
 1191DOPE   C4B13451   0.067   2.072  10.872 -0.1013  0.0735 -0.0325
 1192DOPE   NH313452  19.227  23.324  11.454 -0.0824 -0.1523 -0.3115
 1192DOPE   PO413453  19.314  23.666  11.116 -0.1889 -0.0398  0.0353
 1192DOPE   GL113454  19.681  23.749  11.220  0.0306 -0.0383 -0.1626
 1192DOPE   GL213455  19.701  23.938  11.482 -0.0225  0.2261  0.3646
 1192DOPE   C1A13456  20.030  23.588  11.227  0.0696  0.1744 -0.1848
 1192DOPE   D2A13457  20.353  23.674  11.363 -0.1373  0.4297  0.1443
 1192DOPE   C3A13458  20.717  23.433  11.515 -0.0763  0.0234  0.1285
 1192DOPE   C4A13459  21.000  23.126  11.676  0.0536 -0.2529  0.0581
 1192DOPE   C1B13460  20.044  23.922  11.701  0.0137  0.0086 -0.4460
 1192DOPE   D2B13461  20.405  24.081  11.980 -0.0764  0.0171  0.3128
 1192DOPE   C3B13462  20.397  23.952  12.366 -0.6404  0.1692  0.2048
 1192DOPE   C4B13463  20.701  23.769  12.684  0.3424  0.0611 -0.0180
 1193DOPE   NH313464   3.886  26.604  12.078 -0.1452 -0.0415  0.0189
 1193DOPE   PO413465   4.223  26.356  11.692 -0.1443  0.0573 -0.2976
 1193DOPE   GL113466   4.188  26.022  11.711 -0.0294 -0.3122 -0.0598
 1193DOPE   GL213467   4.110  25.785  11.438 -0.1451  0.0189 -0.3038
 1193DOPE   C1A13468   3.862  25.811  11.984  0.1005 -0.3080  0.1361
 1193DOPE   D2A13469   3.453  25.472  11.992 -0.0834 -0.0139 -0.0846
 1193DOPE   C3A13470   3.463  25.080  12.032  0.2628 -0.0587  0.1151
 1193DOPE   C4A13471   3.635  24.842  12.224  0.0310  0.4808 -0.0325
 1193DOPE   C1B13472   3.918  25.463  11.555 -0.0181  0.1618  0.1182
 1193DOPE   D2B13473   3.765  25.143  11.668 -0.1069 -0.0204 -0.0252
 1193DOPE   C3B13474   3.441  24.931  11.576 -0.0216 -0.1208  0.1569
 1193DOPE   C4B13475   3.076  24.802  11.886  0.1251 -0.0109 -0.0947
 1194DOPE   NH313476  13.213  19.906  16.258  0.1087 -0.3487 -0.1940
 1194DOPE   PO413477  13.401  19.599  16.280 -0.0997  0.3168  0.3014
 1194DOPE   GL113478  13.292  19.432  16.658 -0.2179 -0.1166  0.2885
 1194DOPE   GL213479  13.144  19.568  16.886  0.0027 -0.0676 -0.0530
 1194DOPE   C1A13480  13.524  19.112  16.981 -0.1182  0.1134 -0.2390
 1194DOPE   D2A13481  13.460  18.917  17.386  0.2829 -0.0765 -0.1012
 1194DOPE   C3A13482  13.363  18.531  17.562  0.0538 -0.1991 -0.0648
 1194DOPE   C4A13483  13.228  18.256  17.856  0.4172 -0.4716  0.0297
 1194DOPE   C1B13484  12.749  19.510  17.059  0.0739 -0.2664 -0.0714
 1194DOPE   D2B13485  12.429  19.467  17.318  0.2617  0.1649  0.0896
 1194DOPE   C3B13486  12.281  19.111  17.557 -0.1478  0.1276  0.3103
 1194DOPE   C4B13487  12.251  18.824  17.933  0.2698  0.1840 -0.1451
 1195DOPE   NH313488   4.982  12.043   9.020 -0.1952 -0.2898  0.1691
 1195DOPE   PO413489   5.238  11.911   9.240 -0.1025  0.1031  0.2171
 1195DOPE   GL113490   4.826  11.898   9.489  0.0489 -0.0579  0.0985
 1195DOPE   GL213491   4.893  11.693   9.787 -0.4026 -0.3371 -0.0235
 1195DOPE   C1A13492   4.428  12.162   9.469  0.0286 -0.2269 -0.0544
 1195DOPE   D2A13493   4.568  12.602   9.423  0.0778 -0.2806 -0.0211
 1195DOPE   C3A13494   4.146  12.883   9.609  0.0865 -0.1761 -0.2458
 1195DOPE   C4A13495   3.756  12.998   9.506 -0.4604  0.1885  0.0718
 1195DOPE   C1B13496   4.582  11.445  10.093 -0.2393  0.1800 -0.0344
 1195DOPE   D2B13497   4.260  11.427  10.364  0.0243  0.0994 -0.2988
 1195DOPE   C3B13498   4.247  11.538  10.828  0.0099 -0.1692 -0.0016
 1195DOPE   C4B13499   4.324  11.944  10.988 -0.0304  0.3762 -0.1130
 1196DOPE   NH313500   0.434  23.594   3.157  0.1362  0.2313  0.1020
 1196DOPE   PO413501   0.792  23.761   3.421  0.0919 -0.0147 -0.0482
 1196DOPE   GL113502   0.642  23.526   3.665  0.0846 -0.0586 -0.1480
 1196DOPE   GL213503   0.567  23.157   3.500 -0.0620 -0.0333 -0.0905
 1196DOPE   C1A13504   0.603  23.343   4.134 -0.1297  0.3792  0.2713
 1196DOPE   D2A13505   0.389  23.319   4.506  0.1506 -0.2094  0.1475
 1196DOPE   C3A13506   0.181  23.061   4.656 -0.0783  0.0353  0.2445
 1196DOPE   C4A13507  35.131  22.852   4.632 -0.2170 -0.0633  0.0230
 1196DOPE   C1B13508   0.338  23.068   3.851 -0.2592  0.0716 -0.0086
 1196DOPE   D2B13509   0.064  23.061   4.189 -0.2542  0.0808 -0.2434
 1196DOPE   C3B13510  35.240  23.292   4.304  0.2856  0.1891 -0.0303
 1196DOPE   C4B13511  34.973  23.669   4.346  0.1128  0.0305  0.0467
 1197DOPE   NH313512  17.944  16.606  11.880 -0.0346 -0.1730 -0.0409
 1197DOPE   PO413513  17.993  16.870  12.236 -0.0124  0.0868  0.0827
 1197DOPE   GL113514  18.246  16.748  12.619 -0.0210  0.2427 -0.3977
 1197DOPE   GL213515  18.520  16.482  12.541 -0.2682  0.1056  0.0320
 1197DOPE   C1A13516  18.437  16.915  12.898  0.2078 -0.0452  0.4348
 1197DOPE   D2A13517  18.395  17.187  13.190 -0.1930 -0.0533  0.3991
 1197DOPE   C3A13518  18.555  17.163  13.553 -0.0170 -0.1198  0.1132
 1197DOPE   C4A13519  18.962  16.973  13.796 -0.0764 -0.0450 -0.1291
 1197DOPE   C1B13520  18.821  16.531  12.846 -0.2203 -0.0879 -0.5429
 1197DOPE   D2B13521  19.203  16.473  13.149  0.1813 -0.0588  0.1761
 1197DOPE   C3B13522  19.521  16.343  13.257  0.0769  0.4334  0.0724
 1197DOPE   C4B13523  19.814  16.096  13.412 -0.2174 -0.2499  0.0118
 1198DOPE   NH313524  17.922  20.409  13.519 -0.1204 -0.1407  0.1112
 1198DOPE   PO413525  17.949  20.046  13.445  0.0820 -0.4484 -0.2831
 1198DOPE   GL113526  18.352  19.960  13.579 -0.4283  0.0897 -0.0194
 1198DOPE   GL213527  18.229  19.676  13.810  0.0822  0.2033  0.2232
 1198DOPE   C1A13528  18.653  19.893  13.923 -0.2678  0.2738  0.1362
 1198DOPE   D2A13529  18.882  19.716  14.135  0.2949 -0.0647 -0.1314
 1198DOPE   C3A13530  19.299  19.589  14.299 -0.0054  0.1322 -0.1023
 1198DOPE   C4A13531  19.617  19.540  14.673 -0.0606  0.0497 -0.0121
 1198DOPE   C1B13532  18.189  19.375  14.005  0.0098 -0.1568 -0.0067
 1198DOPE   D2B13533  18.361  19.012  14.116  0.0923 -0.4120 -0.2380
 1198DOPE   C3B13534  18.347  18.496  13.912  0.1544  0.2582 -0.0904
 1198DOPE   C4B13535  18.128  18.180  14.058  0.0456 -0.1470  0.3284
 1199DOPE   NH313536  14.887  21.662  16.505  0.0012 -0.1409 -0.2549
 1199DOPE   PO413537  15.064  21.227  16.634 -0.0453  0.0361 -0.3454
 1199DOPE   GL113538  15.379  21.021  16.900 -0.0074 -0.0267 -0.0096
 1199DOPE   GL213539  15.321  21.208  17.111  0.0236  0.0787 -0.0738
 1199DOPE   C1A13540  15.715  20.897  17.203 -0.2534 -0.3473  0.1689
 1199DOPE   D2A13541  16.158  20.895  17.326  0.2272 -0.1641  0.2174
 1199DOPE   C3A13542  16.457  20.966  17.135  0.0851 -0.1811 -0.1861
 1199DOPE   C4A13543  16.829  21.018  17.213  0.0123  0.0453  0.0590
 1199DOPE   C1B13544  15.681  21.354  17.396 -0.3057 -0.0089 -0.1193
 1199DOPE   D2B13545  15.623  21.047  17.657 -0.0788  0.1363  0.0385
 1199DOPE   C3B13546  15.881  21.012  18.042  0.2305 -0.0799  0.3767
 1199DOPE   C4B13547  15.801  21.316  18.398 -0.1379  0.0429 -0.0256
 1200DOPE   NH313548   7.563  14.126  12.951  0.3220  0.1913 -0.2629
 1200DOPE   PO413549   7.787  13.904  12.673 -0.1850  0.3864 -0.2280
 1200DOPE   GL113550   7.481  13.666  12.986 -0.1335  0.0039  0.3984
 1200DOPE   GL213551   7.158  13.686  13.086 -0.3013 -0.0538  0.0937
 1200DOPE   C1A13552   7.304  13.264  13.365 -0.2899  0.1842  0.0697
 1200DOPE   D2A13553   7.236  12.873  13.593 -0.1823  0.0028 -0.2608
 1200DOPE   C3A13554   6.926  12.783  13.853 -0.0251 -0.0543 -0.1174
 1200DOPE   C4A13555   6.687  12.419  13.759  0.1019  0.0965  0.0131
 1200DOPE   C1B13556   7.246  13.765  13.539  0.0626  0.2143  0.1661
 1200DOPE   D2B13557   6.968  13.995  13.887 -0.1275 -0.1394  0.0750
 1200DOPE   C3B13558   6.673  14.034  14.161 -0.1785  0.1846 -0.0325
 1200DOPE   C4B13559   6.440  13.920  14.457  0.0266 -0.0303  0.2155
 1201DOPE   NH313560   6.123  29.037  15.529  0.2132  0.3394 -0.1083
 1201DOPE   PO413561   6.138  28.705  15.722 -0.1306  0.1814  0.1299
 1201DOPE   GL113562   5.992  28.624  16.196 -0.0876  0.1943 -0.1961
 1201DOPE   GL213563   6.099  28.869  16.511 -0.5098  0.0159 -0.0245
 1201DOPE   C1A13564   5.771  28.180  16.297  0.3148 -0.0974  0.0746
 1201DOPE   D2A13565   5.527  28.021  16.669 -0.2392 -0.0258  0.0901
 1201DOPE   C3A13566   5.482  28.293  17.059 -0.0891 -0.1591 -0.0891
 1201DOPE   C4A13567   5.238  28.353  17.328  0.1637 -0.1274  0.0740
 1201DOPE   C1B13568   5.765  28.876  16.766  0.0548  0.4138 -0.2124
 1201DOPE   D2B13569   5.535  28.797  17.104  0.3840  0.1091 -0.1326
 1201DOPE   C3B13570   5.429  29.026  17.480 -0.1387 -0.1249 -0.1817
 1201DOPE   C4B13571   5.627  28.992  17.904 -0.2012 -0.1699 -0.0066
 1202DOPE   NH313572   8.165  16.026  13.320  0.2426 -0.2012  0.1673
 1202DOPE   PO413573   8.599  16.039  13.385 -0.2156 -0.0957  0.1716
 1202DOPE   GL113574   8.310  15.996  13.769  0.3169 -0.3360  0.0622
 1202DOPE   GL213575   8.009  16.162  13.850  0.2197 -0.1170  0.2560
 1202DOPE   C1A13576   8.417  15.933  14.216  0.3968  0.0293 -0.0831
 1202DOPE   D2A13577   8.347  15.823  14.576  0.2650 -0.0934  0.0255
 1202DOPE   C3A13578   8.484  15.595  14.937 -0.2095  0.0086 -0.1520
 1202DOPE   C4A13579   8.549  15.504  15.331 -0.3493  0.2963 -0.1585
 1202DOPE   C1B13580   7.669  16.279  14.060 -0.0740 -0.1689 -0.1550
 1202DOPE   D2B13581   7.585  16.273  14.475  0.6437 -0.3060  0.1971
 1202DOPE   C3B13582   7.546  16.397  14.766 -0.2708  0.1605  0.1167
 1202DOPE   C4B13583   7.399  16.353  15.249  0.3895  0.1720  0.0259
 1203DOPE   NH313584  29.391  33.929   5.414  0.1696  0.0282  0.3141
 1203DOPE   PO413585  29.129  33.664   5.715 -0.0846  0.1199  0.2130
 1203DOPE   GL113586  29.041  33.464   6.105 -0.0007  0.2064  0.1737
 1203DOPE   GL213587  29.125  33.725   6.326 -0.0962 -0.0919 -0.1998
 1203DOPE   C1A13588  28.873  33.194   6.457 -0.0522 -0.2116 -0.1095
 1203DOPE   D2A13589  28.653  33.051   6.688  0.0895  0.1790 -0.0707
 1203DOPE   C3A13590  28.704  32.652   6.806  0.3892 -0.3722 -0.2511
 1203DOPE   C4A13591  28.987  32.388   7.031 -0.0658 -0.1181  0.4293
 1203DOPE   C1B13592  29.040  33.622   6.832  0.0487  0.0695  0.1188
 1203DOPE   D2B13593  28.924  33.791   7.266  0.1146 -0.4827  0.0805
 1203DOPE   C3B13594  28.940  33.744   7.694  0.0253  0.3535  0.0699
 1203DOPE   C4B13595  28.715  33.576   8.001  0.1515  0.0526  0.0237
 1204DOPE   NH313596  15.439  12.263  14.439  0.1502  0.3838  0.1572
 1204DOPE   PO413597  15.411  12.762  14.400  0.1350  0.1502 -0.0105
 1204DOPE   GL113598  15.569  12.651  14.790 -0.0365  0.1984  0.2182
 1204DOPE   GL213599  15.282  12.520  14.905  0.3145 -0.2052  0.0885
 1204DOPE   C1A13600  15.860  12.741  15.082  0.1145 -0.0548  0.2018
 1204DOPE   D2A13601  16.132  12.709  15.376 -0.0662 -0.3373 -0.0528
 1204DOPE   C3A13602  16.473  12.957  15.471  0.0919 -0.4070  0.0892
 1204DOPE   C4A13603  16.916  12.928  15.530 -0.0032 -0.2986 -0.2384
 1204DOPE   C1B13604  15.422  12.304  15.202 -0.1817 -0.1520  0.1256
 1204DOPE   D2B13605  15.691  12.459  15.512  0.1311 -0.0381  0.1350
 1204DOPE   C3B13606  15.799  12.544  15.820 -0.2343 -0.2030 -0.1159
 1204DOPE   C4B13607  15.824  12.538  16.230 -0.0161  0.3384  0.0185
 1205DOPE   NH313608   1.434   9.584   4.887 -0.3045 -0.0776 -0.2103
 1205DOPE   PO413609   1.327   9.413   5.355 -0.0274 -0.1454  0.1775
 1205DOPE   GL113610   1.022   9.693   5.617 -0.0733  0.1660 -0.1290
 1205DOPE   GL213611   1.135   9.597   5.881 -0.1935 -0.0265  0.0606
 1205DOPE   C1A13612   0.704   9.932   5.661 -0.2472  0.2180  0.0743
 1205DOPE   D2A13613   0.404  10.188   5.882 -0.0868  0.0065  0.0144
 1205DOPE   C3A13614  35.326  10.392   5.737  0.2585  0.0444 -0.2484
 1205DOPE   C4A13615  34.867  10.516   5.728 -0.0862  0.0377 -0.2826
 1205DOPE   C1B13616   0.694   9.707   6.112 -0.2338  0.1197  0.0076
 1205DOPE   D2B13617   0.311   9.888   6.359  0.2091 -0.3475  0.1050
 1205DOPE   C3B13618   0.347   9.720   6.753  0.1116 -0.0845  0.2192
 1205DOPE   C4B13619   0.580   9.334   6.889 -0.1540  0.1564  0.0845
 1206DOPE   NH313620  21.857   6.117   8.729  0.0265 -0.1003  0.0753
 1206DOPE   PO413621  21.707   6.197   9.162 -0.0649 -0.2241 -0.2802
 1206DOPE   GL113622  22.060   5.964   9.208 -0.1140  0.1646 -0.0024
 1206DOPE   GL213623  22.316   6.021   9.031 -0.0027  0.0634 -0.0577
 1206DOPE   C1A13624  22.363   5.754   9.478  0.0459  0.1577 -0.0661
 1206DOPE   D2A13625  22.801   5.921   9.660 -0.1474  0.2401 -0.0762
 1206DOPE   C3A13626  22.982   5.911  10.005 -0.1635 -0.2108  0.1177
 1206DOPE   C4A13627  23.146   6.086  10.314  0.2637 -0.1599 -0.2811
 1206DOPE   C1B13628  22.607   6.060   9.191  0.3847  0.1105  0.1360
 1206DOPE   D2B13629  22.818   6.422   9.417 -0.0646  0.2085  0.0726
 1206DOPE   C3B13630  23.078   6.353   9.776  0.1314  0.1266 -0.0117
 1206DOPE   C4B13631  23.301   6.519  10.082  0.0049  0.0142 -0.2942
 1207DOPE   NH313632  18.960  34.822   9.510  0.3970  0.2980  0.1780
 1207DOPE   PO413633  18.646  34.848   9.759  0.2214 -0.0763  0.1469
 1207DOPE   GL113634  18.928  34.771  10.013 -0.0282  0.1014 -0.1007
 1207DOPE   GL213635  18.910  34.474  10.176  0.0312 -0.0514  0.0989
 1207DOPE   C1A13636  19.434  34.842  10.015  0.0400  0.0864  0.0934
 1207DOPE   D2A13637  19.869  34.784  10.211  0.0182  0.1011  0.2308
 1207DOPE   C3A13638  20.052  35.182  10.382 -0.1047  0.3247  0.0813
 1207DOPE   C4A13639  20.512  35.211  10.487  0.1442  0.1403 -0.1913
 1207DOPE   C1B13640  18.990  34.469  10.565  0.1094  0.1651 -0.1020
 1207DOPE   D2B13641  19.129  34.585  10.991 -0.3087  0.1580 -0.1210
 1207DOPE   C3B13642  19.534  34.588  10.976  0.1476  0.1199 -0.0443
 1207DOPE   C4B13643  19.880  34.492  11.153  0.0489  0.0205  0.0524
 1208DOPE   NH313644   5.869  33.001  14.133  0.0329  0.1122 -0.0801
 1208DOPE   PO413645   5.594  33.380  13.973 -0.0680 -0.0766  0.1057
 1208DOPE   GL113646   5.381  33.303  14.338  0.0707  0.1066 -0.0043
 1208DOPE   GL213647   5.319  32.938  14.261  0.1293  0.7050 -0.0451
 1208DOPE   C1A13648   5.209  33.430  14.768 -0.1922 -0.0053  0.1309
 1208DOPE   D2A13649   5.126  33.563  15.237 -0.1322 -0.0597  0.1751
 1208DOPE   C3A13650   4.955  33.516  15.538  0.3581  0.0360  0.2804
 1208DOPE   C4A13651   5.029  33.313  15.904 -0.3218 -0.0608  0.0395
 1208DOPE   C1B13652   4.925  32.898  14.565 -0.0282  0.3064 -0.1132
 1208DOPE   D2B13653   4.707  33.020  14.926 -0.3132 -0.3530  0.1294
 1208DOPE   C3B13654   4.672  33.328  15.159 -0.0763  0.1884 -0.1417
 1208DOPE   C4B13655   4.466  33.645  15.422 -0.2162 -0.1671 -0.1555
 1209DOPE   NH313656  18.152  19.704  13.137 -0.1335 -0.4380 -0.1601
 1209DOPE   PO413657  18.534  19.690  12.906  0.1450  0.2119  0.0627
 1209DOPE   GL113658  18.847  19.649  13.228 -0.2126 -0.1221  0.0496
 1209DOPE   GL213659  18.801  19.887  13.374  0.1421  0.1430 -0.0880
 1209DOPE   C1A13660  19.169  19.506  13.483 -0.0631  0.1461  0.0794
 1209DOPE   D2A13661  19.412  19.239  13.677  0.1241  0.0040  0.0322
 1209DOPE   C3A13662  19.553  18.919  13.399 -0.0647  0.0353 -0.1347
 1209DOPE   C4A13663  19.556  18.569  13.114 -0.0962  0.4839  0.1925
 1209DOPE   C1B13664  19.125  19.882  13.723 -0.0255  0.0282  0.4329
 1209DOPE   D2B13665  19.501  19.703  13.800 -0.0300  0.2505 -0.1405
 1209DOPE   C3B13666  19.696  19.884  14.132  0.1843  0.1276 -0.1728
 1209DOPE   C4B13667  19.971  20.163  14.360 -0.0239 -0.1314 -0.1874
 1210DOPE   NH313668  15.238  26.578  16.523 -0.1150  0.1575  0.0119
 1210DOPE   PO413669  15.378  26.819  16.756  0.1862  0.0418 -0.1454
 1210DOPE   GL113670  15.686  27.049  16.790 -0.0355  0.0784 -0.2150
 1210DOPE   GL213671  15.833  27.322  16.469  0.1047  0.1084 -0.0591
 1210DOPE   C1A13672  15.991  27.203  17.021 -0.2395 -0.0392 -0.0167
 1210DOPE   D2A13673  16.317  27.388  17.274  0.3666 -0.3049  0.2312
 1210DOPE   C3A13674  16.529  27.616  17.424 -0.3062 -0.1076 -0.0623
 1210DOPE   C4A13675  16.743  27.922  17.489 -0.2717 -0.2241 -0.2283
 1210DOPE   C1B13676  16.137  27.585  16.708  0.0538 -0.1886 -0.0508
 1210DOPE   D2B13677  16.409  27.830  17.003 -0.0414  0.0357  0.0441
 1210DOPE   C3B13678  16.203  28.013  17.402 -0.0939  0.0936  0.1426
 1210DOPE   C4B13679  16.454  28.254  17.730 -0.0468  0.2344  0.1524
 1211DOPE   NH313680   6.800  26.448  16.661 -0.1413 -0.2925  0.1282
 1211DOPE   PO413681   7.064  26.280  16.951 -0.3447  0.0723 -0.1879
 1211DOPE   GL113682   7.132  26.434  17.306  0.0674  0.4544 -0.0980
 1211DOPE   GL213683   7.370  26.627  17.462 -0.0155  0.1206  0.1979
 1211DOPE   C1A13684   6.987  26.338  17.685  0.1629 -0.1037  0.0098
 1211DOPE   D2A13685   6.691  26.352  18.035 -0.1606  0.4707 -0.0957
 1211DOPE   C3A13686   6.740  26.419  18.522 -0.0054  0.1736  0.3919
 1211DOPE   C4A13687   6.520  26.628  18.953  0.1274 -0.0871 -0.1144
 1211DOPE   C1B13688   7.372  26.716  17.887 -0.1484 -0.2593  0.1844
 1211DOPE   D2B13689   7.196  26.459  18.262 -0.1716  0.0886 -0.2339
 1211DOPE   C3B13690   7.193  26.550  18.719  0.0897 -0.1840  0.1442
 1211DOPE   C4B13691   6.995  26.569  19.000  0.1908  0.1874 -0.0341
 1212DOPE   NH313692  17.305  17.241  13.271  0.0634 -0.1081 -0.1772
 1212DOPE   PO413693  17.646  16.934  13.209 -0.0119  0.1294  0.1775
 1212DOPE   GL113694  17.971  16.658  13.077 -0.1621  0.0028 -0.0805
 1212DOPE   GL213695  17.999  16.281  13.124 -0.0656 -0.3189  0.1409
 1212DOPE   C1A13696  18.235  16.739  13.410  0.0395  0.2261 -0.1043
 1212DOPE   D2A13697  18.699  16.664  13.364  0.1403  0.1819 -0.1029
 1212DOPE   C3A13698  19.016  16.521  13.650 -0.0586  0.0995  0.1779
 1212DOPE   C4A13699  19.329  16.363  13.767 -0.0849 -0.3986  0.0030
 1212DOPE   C1B13700  18.394  16.359  13.060  0.2840 -0.2335 -0.1967
 1212DOPE   D2B13701  18.794  16.191  13.170  0.0693 -0.2499 -0.0067
 1212DOPE   C3B13702  19.046  16.071  13.446 -0.3885 -0.1235  0.0017
 1212DOPE   C4B13703  19.343  15.880  13.589  0.0206  0.0153 -0.0165
 1213DOPE   NH313704   8.628   2.929  14.909 -0.0937 -0.0792  0.2104
 1213DOPE   PO413705   9.071   2.882  15.043 -0.0037 -0.1828  0.0223
 1213DOPE   GL113706   8.968   3.042  15.492 -0.3291 -0.2045 -0.1059
 1213DOPE   GL213707   9.178   2.812  15.576 -0.1908  0.1758 -0.1217
 1213DOPE   C1A13708   8.725   3.171  15.789  0.0595 -0.0258 -0.1824
 1213DOPE   D2A13709   8.573   3.527  15.796  0.1928 -0.0173 -0.4418
 1213DOPE   C3A13710   8.340   3.809  16.075 -0.1180 -0.0191 -0.1489
 1213DOPE   C4A13711   8.327   4.229  16.336  0.1101  0.1011 -0.1790
 1213DOPE   C1B13712   9.087   2.981  16.021 -0.3262 -0.1061 -0.1617
 1213DOPE   D2B13713   8.810   3.217  16.324 -0.2228  0.0997  0.0705
 1213DOPE   C3B13714   8.840   3.187  16.787 -0.1562  0.2342 -0.0317
 1213DOPE   C4B13715   8.911   2.891  17.000 -0.0694  0.0643 -0.1191
 1214DOPE   NH313716  12.678   8.299  14.925  0.1052  0.2728 -0.4919
 1214DOPE   PO413717  13.041   8.508  14.957 -0.0744 -0.0046  0.0358
 1214DOPE   GL113718  12.804   8.412  15.386 -0.1831 -0.1443 -0.2326
 1214DOPE   GL213719  12.486   8.508  15.375  0.0746  0.0198  0.1457
 1214DOPE   C1A13720  12.743   8.446  15.866  0.0939 -0.2350 -0.0640
 1214DOPE   D2A13721  12.806   8.453  16.250  0.0208 -0.1897 -0.2552
 1214DOPE   C3A13722  13.014   8.409  16.509  0.0613  0.6825  0.0615
 1214DOPE   C4A13723  13.210   8.380  16.908  0.1164 -0.3239 -0.3244
 1214DOPE   C1B13724  12.684   8.863  15.605  0.0520 -0.0971  0.1422
 1214DOPE   D2B13725  12.794   9.299  15.708  0.0615  0.0597  0.1094
 1214DOPE   C3B13726  12.730   9.378  16.108  0.1468  0.2960 -0.3935
 1214DOPE   C4B13727  12.606   9.596  16.394  0.1321 -0.0825  0.0217
 1215DOPE   NH313728  19.010   4.481  11.490 -0.0705 -0.0718  0.1393
 1215DOPE   PO413729  19.391   4.863  11.480 -0.2307 -0.0704 -0.1234
 1215DOPE   GL113730  19.469   4.431  11.782 -0.0402 -0.4621  0.2089
 1215DOPE   GL213731  19.813   4.384  11.851  0.1247 -0.3769  0.0104
 1215DOPE   C1A13732  19.472   4.286  12.232  0.0126  0.2359  0.0484
 1215DOPE   D2A13733  19.742   4.180  12.560  0.1109 -0.1180 -0.1344
 1215DOPE   C3A13734  19.862   3.827  12.578 -0.0369  0.1610 -0.1885
 1215DOPE   C4A13735  20.158   3.505  12.534 -0.1170  0.1182  0.0803
 1215DOPE   C1B13736  19.949   4.092  12.081  0.0524  0.0816 -0.0947
 1215DOPE   D2B13737  20.269   3.992  12.367 -0.2253 -0.2254 -0.1967
 1215DOPE   C3B13738  20.525   3.847  12.447 -0.0644  0.0963  0.2447
 1215DOPE   C4B13739  20.909   3.794  12.637 -0.3024  0.0412  0.0705
 1216DOPE   NH313740   7.434   9.713  12.651 -0.0166 -0.1438  0.0532
 1216DOPE   PO413741   7.612  10.166  12.739  0.2177  0.0460  0.0815
 1216DOPE   GL113742   7.221  10.209  12.527  0.1199  0.0091  0.0391
 1216DOPE   GL213743   6.982   9.923  12.568  0.1345  0.1629 -0.2039
 1216DOPE   C1A13744   6.907  10.467  12.748  0.0694  0.1249 -0.0385
 1216DOPE   D2A13745   6.704  10.726  12.914  0.1988  0.1350  0.0738
 1216DOPE   C3A13746   6.932  10.659  13.272  0.5043 -0.0928 -0.2756
 1216DOPE   C4A13747   7.230  10.537  13.554 -0.0379 -0.0459  0.2022
 1216DOPE   C1B13748   6.630   9.805  12.842 -0.0167  0.1780  0.1480
 1216DOPE   D2B13749   6.250   9.860  12.843  0.0421  0.0790 -0.0418
 1216DOPE   C3B13750   5.864  10.073  13.017 -0.0395  0.0572  0.1174
 1216DOPE   C4B13751   5.526  10.383  13.161  0.0012 -0.1567  0.0575
 1217DOPE   NH313752  19.745  29.450   8.430 -0.3041  0.1547 -0.2379
 1217DOPE   PO413753  19.880  29.729   8.709 -0.0536  0.1975 -0.0724
 1217DOPE   GL113754  20.077  29.963   9.015 -0.1250 -0.1581 -0.0243
 1217DOPE   GL213755  20.398  30.057   8.982  0.0361  0.1205 -0.0146
 1217DOPE   C1A13756  20.164  30.003   9.415 -0.1296 -0.3047  0.1188
 1217DOPE   D2A13757  20.361  29.913   9.706 -0.2830  0.3387  0.6286
 1217DOPE   C3A13758  20.529  29.767  10.050 -0.0256 -0.0162 -0.0648
 1217DOPE   C4A13759  20.778  29.586  10.333 -0.2169  0.1250  0.0594
 1217DOPE   C1B13760  20.678  29.940   9.361  0.1642 -0.2066 -0.0325
 1217DOPE   D2B13761  20.829  30.115   9.806 -0.0619  0.0431 -0.0800
 1217DOPE   C3B13762  21.132  29.902  10.105  0.2944 -0.1952  0.1061
 1217DOPE   C4B13763  21.243  29.553  10.034 -0.0565 -0.1744  0.0874
 1218DOPE   NH313764  24.220  23.224   2.504 -0.0572  0.0745  0.2949
 1218DOPE   PO413765  24.330  23.618   2.587 -0.1444 -0.1473 -0.0245
 1218DOPE   GL113766  24.602  23.380   2.819 -0.1339 -0.0453 -0.2882
 1218DOPE   GL213767  24.850  23.528   2.806 -0.1431 -0.0955 -0.0909
 1218DOPE   C1A13768  24.742  23.225   3.217  0.2381 -0.0638 -0.3045
 1218DOPE   D2A13769  24.930  22.908   3.566 -0.0293  0.2242  0.1657
 1218DOPE   C3A13770  25.382  22.868   3.843 -0.1118 -0.1560  0.2003
 1218DOPE   C4A13771  25.847  22.847   3.893 -0.2328 -0.2371  0.1622
 1218DOPE   C1B13772  24.999  23.126   2.773 -0.1687 -0.1152 -0.0200
 1218DOPE   D2B13773  25.316  23.094   3.208  0.2393 -0.0204 -0.1863
 1218DOPE   C3B13774  25.712  22.798   3.398  0.1637  0.2771  0.0534
 1218DOPE   C4B13775  26.160  22.814   3.376  0.1598 -0.4068  0.3187
 1219DOPE   NH313776  32.084  15.882   0.713 -0.1478  0.1775 -0.0586
 1219DOPE   PO413777  32.046  15.405   0.739 -0.4006  0.0732 -0.0916
 1219DOPE   GL113778  32.003  15.562   1.138 -0.3682  0.0275  0.0789
 1219DOPE   GL213779  31.642  15.528   1.047  0.3822 -0.0918  0.0409
 1219DOPE   C1A13780  31.761  15.799   1.455  0.2226  0.3364 -0.1304
 1219DOPE   D2A13781  31.540  16.173   1.515 -0.0200  0.1853  0.1899
 1219DOPE   C3A13782  31.244  16.315   1.839 -0.0567 -0.2269 -0.0384
 1219DOPE   C4A13783  30.841  16.162   2.006 -0.1702  0.1012  0.1752
 1219DOPE   C1B13784  31.260  15.708   1.343  0.1705  0.0907  0.1557
 1219DOPE   D2B13785  31.238  15.847   1.739  0.0722 -0.2670 -0.1334
 1219DOPE   C3B13786  31.509  15.791   1.934  0.0580 -0.1793 -0.0031
 1219DOPE   C4B13787  31.645  15.904   2.270  0.0416  0.0504 -0.0295
 1220DOPE   NH313788   7.598  32.291  15.770 -0.0167  0.1935  0.3882
 1220DOPE   PO413789   7.906  32.484  16.039  0.1128  0.2186 -0.2539
 1220DOPE   GL113790   7.595  32.552  16.317 -0.1749 -0.3176 -0.0099
 1220DOPE   GL213791   7.506  32.302  16.326 -0.0554 -0.2991  0.1070
 1220DOPE   C1A13792   7.337  32.685  16.608  0.0661 -0.0751  0.1062
 1220DOPE   D2A13793   6.929  32.713  16.755 -0.1312 -0.0294  0.3628
 1220DOPE   C3A13794   6.602  32.704  16.996  0.0547  0.2236  0.5065
 1220DOPE   C4A13795   6.180  32.625  17.265  0.3803  0.0034  0.2862
 1220DOPE   C1B13796   7.129  32.137  16.638 -0.2118 -0.1533 -0.2715
 1220DOPE   D2B13797   6.897  32.232  16.961 -0.0463  0.1103 -0.2866
 1220DOPE   C3B13798   7.026  32.122  17.368  0.0962  0.0661 -0.1282
 1220DOPE   C4B13799   7.101  31.750  17.553  0.1322  0.1306  0.2152
 1221DOPE   NH313800  12.915  18.766  15.495  0.2240 -0.1300  0.0920
 1221DOPE   PO413801  13.230  19.001  15.643  0.1847  0.3991  0.0331
 1221DOPE   GL113802  13.008  18.694  15.974  0.3170  0.0230 -0.1532
 1221DOPE   GL213803  13.002  18.736  16.331 -0.0298 -0.2255 -0.0216
 1221DOPE   C1A13804  12.933  18.291  16.068  0.0446  0.3006 -0.2350
 1221DOPE   D2A13805  12.885  17.995  16.350  0.2323  0.2916  0.1968
 1221DOPE   C3A13806  12.528  17.774  16.395  0.0147 -0.4388 -0.0523
 1221DOPE   C4A13807  12.275  17.593  16.680  0.1194 -0.1747 -0.1081
 1221DOPE   C1B13808  12.937  18.499  16.527  0.1920 -0.1331 -0.0359
 1221DOPE   D2B13809  12.875  18.196  16.802 -0.2037 -0.4207  0.1506
 1221DOPE   C3B13810  12.827  17.923  17.051 -0.0104 -0.1349  0.2010
 1221DOPE   C4B13811  12.743  17.816  17.498 -0.1224 -0.1026 -0.0759
 1222DOPE   NH313812  33.191  15.346   1.391 -0.1336  0.4218  0.1324
 1222DOPE   PO413813  33.153  15.801   1.153  0.1738 -0.0841 -0.1362
 1222DOPE   GL113814  33.186  15.834   1.546  0.0880  0.1512  0.1493
 1222DOPE   GL213815  33.467  15.956   1.693 -0.0861 -0.0516  0.2978
 1222DOPE   C1A13816  33.184  15.733   2.101 -0.0496 -0.3193 -0.1278
 1222DOPE   D2A13817  33.076  15.750   2.529  0.0840 -0.1687 -0.0112
 1222DOPE   C3A13818  33.247  15.963   2.941  0.2229 -0.1217 -0.1555
 1222DOPE   C4A13819  33.610  16.147   3.208  0.1915  0.3982 -0.0249
 1222DOPE   C1B13820  33.573  16.019   2.042  0.4604 -0.0392  0.0380
 1222DOPE   D2B13821  33.495  16.027   2.443 -0.0464 -0.0161  0.1933
 1222DOPE   C3B13822  33.798  16.331   2.637  0.1592 -0.1077  0.2783
 1222DOPE   C4B13823  33.986  16.484   2.936 -0.0807  0.0763  0.1709
 1223DOPE   NH313824   2.734  27.792  12.098 -0.1603 -0.1709 -0.1268
 1223DOPE   PO413825   2.948  27.484  12.320  0.1377 -0.1247  0.1613
 1223DOPE   GL113826   2.699  27.219  12.137  0.1282  0.1646 -0.0310
 1223DOPE   GL213827   2.397  27.148  12.326  0.1597  0.3313  0.2212
 1223DOPE   C1A13828   2.542  26.736  12.103  0.1369 -0.1501  0.2507
 1223DOPE   D2A13829   2.606  26.263  12.051  0.0692  0.2577  0.3287
 1223DOPE   C3A13830   2.330  26.062  12.295  0.1999 -0.1697  0.0455
 1223DOPE   C4A13831   2.270  25.853  12.666 -0.1306  0.0189  0.0817
 1223DOPE   C1B13832   2.034  27.074  12.507 -0.3213 -0.0313  0.2751
 1223DOPE   D2B13833   1.771  26.874  12.705  0.2670 -0.0100 -0.0104
 1223DOPE   C3B13834   1.770  26.448  12.780 -0.0099  0.2241  0.1078
 1223DOPE   C4B13835   1.791  26.019  12.742 -0.1861 -0.0277 -0.0062
 1224DOPE   NH313836   0.169   5.243   7.105  0.0058  0.0350  0.2339
 1224DOPE   PO413837  35.373   4.904   7.377 -0.0180  0.1906  0.0186
 1224DOPE   GL113838  35.243   5.027   7.800  0.3290 -0.2037 -0.1744
 1224DOPE   GL213839  35.165   5.179   8.018 -0.3059 -0.0118  0.1624
 1224DOPE   C1A13840  35.198   4.759   8.217  0.2157  0.1292 -0.1366
 1224DOPE   D2A13841  34.965   5.067   8.524  0.0482  0.1406  0.2537
 1224DOPE   C3A13842  35.057   5.358   8.879  0.4162  0.1481 -0.1592
 1224DOPE   C4A13843  35.151   5.676   9.155 -0.1592  0.2531  0.1813
 1224DOPE   C1B13844  35.220   5.531   8.432 -0.2445  0.0732 -0.0052
 1224DOPE   D2B13845  35.026   5.859   8.648 -0.0414  0.1047 -0.3051
 1224DOPE   C3B13846  35.362   6.046   8.786 -0.2540 -0.0282 -0.2982
 1224DOPE   C4B13847   0.278   6.354   8.958  0.0088 -0.1376  0.2928
 1225DOPE   NH313848   2.058  28.295  10.168 -0.1195 -0.0834  0.0166
 1225DOPE   PO413849   2.181  28.385  10.618 -0.0575 -0.2633 -0.2181
 1225DOPE   GL113850   1.997  28.142  10.919 -0.2203 -0.0619  0.1431
 1225DOPE   GL213851   2.063  28.096  11.222 -0.2125  0.1464 -0.0567
 1225DOPE   C1A13852   1.716  27.917  10.949  0.0087  0.1351  0.0191
 1225DOPE   D2A13853   1.380  27.806  10.911  0.0173  0.3229  0.1791
 1225DOPE   C3A13854   0.986  27.818  11.132 -0.1800 -0.2963 -0.3690
 1225DOPE   C4A13855   0.733  28.043  11.255 -0.1595 -0.1974  0.1730
 1225DOPE   C1B13856   1.744  28.055  11.485 -0.0371  0.0970  0.0119
 1225DOPE   D2B13857   1.398  27.945  11.478  0.3773  0.0990  0.0031
 1225DOPE   C3B13858   1.080  27.746  11.637 -0.0270  0.3208  0.3195
 1225DOPE   C4B13859   1.032  27.951  12.017  0.1947  0.1715 -0.0942
 1226DOPE   NH313860  12.773  33.532  14.481 -0.3774 -0.0636  0.0257
 1226DOPE   PO413861  12.885  33.573  14.925  0.2037 -0.1561  0.1471
 1226DOPE   GL113862  13.074  33.838  15.155 -0.2926  0.2468 -0.2130
 1226DOPE   GL213863  12.985  33.915  15.441 -0.1640 -0.0453 -0.0450
 1226DOPE   C1A13864  13.338  34.225  15.061 -0.0409 -0.5521  0.1221
 1226DOPE   D2A13865  13.231  34.733  15.058 -0.1334 -0.0735 -0.2278
 1226DOPE   C3A13866  13.369  35.155  15.334 -0.1269  0.1413  0.0745
 1226DOPE   C4A13867  13.082   0.050  15.603 -0.1718 -0.1507  0.3487
 1226DOPE   C1B13868  13.326  34.033  15.658 -0.2233  0.0490  0.0321
 1226DOPE   D2B13869  13.600  34.057  16.074  0.1068  0.2315  0.1657
 1226DOPE   C3B13870  13.874  34.351  15.883 -0.1322 -0.2340  0.0738
 1226DOPE   C4B13871  14.014  34.791  15.964  0.0148 -0.0681  0.1689
 1227PAPE   NH313872   3.690  11.851   6.813 -0.4947  0.1560 -0.0604
 1227PAPE   PO413873   3.724  11.921   6.422  0.3522  0.2426 -0.0760
 1227PAPE   GL113874   3.293  11.927   6.451  0.0007  0.1362 -0.1306
 1227PAPE   GL213875   3.161  11.864   6.740 -0.0098  0.0499 -0.3074
 1227PAPE   D1A13876   2.979  12.227   6.321  0.0568  0.0047  0.1012
 1227PAPE   D2A13877   3.003  12.208   5.842  0.0865 -0.0251  0.1314
 1227PAPE   D3A13878   2.669  12.492   5.638 -0.0953  0.1646 -0.1440
 1227PAPE   D4A13879   2.470  12.910   5.841  0.2780  0.1092 -0.0811
 1227PAPE   C5A13880   2.285  12.856   6.333  0.4155 -0.1447 -0.0900
 1227PAPE   C1B13881   2.768  11.890   6.621 -0.0260 -0.3034  0.0616
 1227PAPE   C2B13882   2.450  11.962   6.756 -0.2251  0.0139 -0.1398
 1227PAPE   C3B13883   2.074  12.098   6.948  0.1508 -0.1941 -0.1455
 1227PAPE   C4B13884   1.671  12.304   6.884 -0.1165 -0.2827 -0.1505
 1228PAPE   NH313885  23.813  10.793   3.608 -0.3646 -0.1174 -0.0998
 1228PAPE   PO413886  23.675  11.103   3.832 -0.2403 -0.1045 -0.4137
 1228PAPE   GL113887  23.593  11.332   4.269  0.0999 -0.2969 -0.0478
 1228PAPE   GL213888  23.551  11.725   4.213 -0.1931 -0.1547 -0.1550
 1228PAPE   D1A13889  23.829  11.349   4.631 -0.1727 -0.3251 -0.0056
 1228PAPE   D2A13890  23.883  10.919   4.504  0.0871 -0.0190 -0.0601
 1228PAPE   D3A13891  24.193  11.011   4.701 -0.5621  0.0714  0.3458
 1228PAPE   D4A13892  24.306  11.189   5.085 -0.1562 -0.0427  0.0271
 1228PAPE   C5A13893  24.698  11.325   5.245  0.3355  0.1702  0.1649
 1228PAPE   C1B13894  23.939  11.780   4.494  0.3212 -0.0282 -0.1157
 1228PAPE   C2B13895  24.191  11.633   4.725  0.0008 -0.0828  0.3079
 1228PAPE   C3B13896  24.525  11.587   4.851 -0.2883  0.0058  0.0916
 1228PAPE   C4B13897  24.748  11.968   4.634  0.0798 -0.3625 -0.1618
 1229PAPE   NH313898   0.935   7.004   6.805 -0.0487 -0.0058  0.0148
 1229PAPE   PO413899   0.493   6.972   6.607 -0.1146 -0.3069  0.0444
 1229PAPE   GL113900   0.425   7.362   6.796  0.0692 -0.1263  0.0026
 1229PAPE   GL213901   0.731   7.481   6.837  0.1995  0.0498 -0.1631
 1229PAPE   D1A13902   0.150   7.587   7.119  0.2251  0.0105  0.0164
 1229PAPE   D2A13903  35.281   7.414   7.355  0.1107 -0.4103  0.1857
 1229PAPE   D3A13904  34.925   7.650   7.449  0.0441 -0.1654  0.0105
 1229PAPE   D4A13905  34.660   7.957   7.781  0.0791 -0.3038 -0.0105
 1229PAPE   C5A13906  34.178   7.812   7.871 -0.3326  0.2859 -0.1044
 1229PAPE   C1B13907   0.551   7.824   7.088 -0.2761  0.2193 -0.3062
 1229PAPE   C2B13908   0.402   8.022   7.342 -0.0779  0.2633  0.1324
 1229PAPE   C3B13909   0.264   8.154   7.830  0.0111 -0.0241 -0.1362
 1229PAPE   C4B13910   0.026   8.125   8.141  0.0135 -0.0083  0.1374
 1230PAPE   NH313911  25.685   4.964   5.567  0.2435 -0.1716  0.3410
 1230PAPE   PO413912  25.879   4.780   5.251 -0.3297 -0.1090  0.0071
 1230PAPE   GL113913  26.165   5.159   5.400  0.3138  0.2441  0.0072
 1230PAPE   GL213914  26.130   5.166   5.814  0.0112  0.0379 -0.0691
 1230PAPE   D1A13915  26.639   5.194   5.605  0.0382  0.3511 -0.1202
 1230PAPE   D2A13916  26.429   5.611   5.690 -0.1325  0.1747 -0.0281
 1230PAPE   D3A13917  26.356   6.051   5.738 -0.2793 -0.2266 -0.2510
 1230PAPE   D4A13918  26.066   5.930   5.359 -0.3320 -0.1281 -0.0899
 1230PAPE   C5A13919  26.035   6.062   4.973  0.1446  0.1577 -0.0761
 1230PAPE   C1B13920  26.320   5.314   6.181 -0.2511  0.1285 -0.1972
 1230PAPE   C2B13921  26.408   5.381   6.589 -0.0405  0.1432 -0.0873
 1230PAPE   C3B13922  26.672   5.746   6.682  0.0851 -0.1855  0.1565
 1230PAPE   C4B13923  26.551   6.211   6.795 -0.3303  0.3829 -0.0154
 1231PAPE   NH313924  24.676  18.629   0.526  0.1311  0.1037  0.1232
 1231PAPE   PO413925  24.903  18.827   0.893  0.2669  0.0787 -0.3359
 1231PAPE   GL113926  25.278  18.753   1.118 -0.2650  0.0597  0.2301
 1231PAPE   GL213927  25.358  18.898   1.289  0.0639 -0.0797 -0.0076
 1231PAPE   D1A13928  25.477  18.323   1.083 -0.0298  0.2164 -0.0915
 1231PAPE   D2A13929  25.266  18.026   1.121  0.0903  0.1121  0.2512
 1231PAPE   D3A13930  25.379  17.968   1.570 -0.0514 -0.0511  0.1813
 1231PAPE   D4A13931  25.663  17.721   1.830 -0.2744  0.1993 -0.0891
 1231PAPE   C5A13932  26.029  17.683   1.654 -0.0521  0.2825 -0.1809
 1231PAPE   C1B13933  25.496  18.609   1.624 -0.2850 -0.2151  0.0691
 1231PAPE   C2B13934  25.515  18.454   1.951  0.1808 -0.1000  0.0094
 1231PAPE   C3B13935  25.832  18.444   2.304 -0.3493 -0.0654  0.1608
 1231PAPE   C4B13936  26.029  18.693   2.689 -0.1303  0.1489 -0.0060
 1232PAPE   NH313937  22.890   5.314   7.681 -0.0066  0.2354  0.1808
 1232PAPE   PO413938  22.766   5.172   7.278  0.1263  0.0873 -0.0924
 1232PAPE   GL113939  22.952   5.523   7.233 -0.2576 -0.0088 -0.0234
 1232PAPE   GL213940  23.205   5.733   7.431  0.0320  0.0751 -0.0882
 1232PAPE   D1A13941  23.265   5.704   6.934  0.1749  0.3654  0.4632
 1232PAPE   D2A13942  23.610   5.576   7.144 -0.0326  0.2763 -0.1738
 1232PAPE   D3A13943  23.828   5.894   7.166 -0.0692  0.2678 -0.0805
 1232PAPE   D4A13944  23.747   6.268   7.237  0.0675  0.2531  0.0963
 1232PAPE   C5A13945  23.737   6.453   6.741  0.2003  0.4205 -0.1316
 1232PAPE   C1B13946  23.569   5.726   7.587  0.0267 -0.0642  0.1166
 1232PAPE   C2B13947  23.851   5.911   7.645  0.2446  0.3692  0.0476
 1232PAPE   C3B13948  24.103   6.273   7.545  0.1666 -0.0223  0.1907
 1232PAPE   C4B13949  24.115   6.616   7.347  0.0474 -0.0560 -0.5346
 1233PAPE   NH313950   0.985   2.737   8.627  0.0266 -0.0526  0.1631
 1233PAPE   PO413951   1.392   2.723   8.779  0.0475 -0.0849 -0.0078
 1233PAPE   GL113952   1.213   2.953   9.107 -0.1164 -0.1177 -0.1067
 1233PAPE   GL213953   0.842   2.835   9.111 -0.0203 -0.0802  0.0673
 1233PAPE   D1A13954   1.287   3.002   9.532 -0.2124 -0.0464 -0.0903
 1233PAPE   D2A13955   1.669   3.397   9.409 -0.0621 -0.1242  0.2461
 1233PAPE   D3A13956   1.182   3.437   9.364  0.4211  0.2277  0.0422
 1233PAPE   D4A13957   0.947   3.723   9.704  0.1086 -0.1280  0.0502
 1233PAPE   C5A13958   0.600   3.904   9.773 -0.1416  0.1472 -0.0611
 1233PAPE   C1B13959   0.804   3.027   9.499  0.0451 -0.2263 -0.0586
 1233PAPE   C2B13960   0.994   3.237   9.825 -0.1928  0.0808  0.2974
 1233PAPE   C3B13961   1.102   3.513  10.186 -0.1117 -0.2462  0.1022
 1233PAPE   C4B13962   1.045   3.578  10.613 -0.0144  0.0340  0.1385
 1234PAPE   NH313963  10.840  22.904  18.188 -0.1716  0.0329 -0.1927
 1234PAPE   PO413964  11.285  22.703  18.045 -0.0466 -0.0223  0.1919
 1234PAPE   GL113965  11.579  22.698  18.364 -0.3057  0.3465  0.0251
 1234PAPE   GL213966  11.737  22.939  18.602  0.0874 -0.0186  0.1983
 1234PAPE   D1A13967  11.456  22.411  18.705 -0.2238 -0.1525  0.0573
 1234PAPE   D2A13968  11.793  22.244  18.812  0.0313  0.1332 -0.0013
 1234PAPE   D3A13969  11.514  22.104  19.161  0.1760  0.0853 -0.0482
 1234PAPE   D4A13970  11.448  21.744  19.440 -0.1001 -0.3578 -0.0686
 1234PAPE   C5A13971  11.752  21.506  19.723  0.3718  0.5978  0.1213
 1234PAPE   C1B13972  11.815  22.749  18.975 -0.1079  0.0216  0.3494
 1234PAPE   C2B13973  11.633  22.562  19.334  0.1274  0.0584  0.0962
 1234PAPE   C3B13974  11.391  22.452  19.625 -0.2337  0.1005 -0.0645
 1234PAPE   C4B13975  11.299  22.080  19.827  0.0298  0.1983 -0.3100
 1235PAPE   NH313976   2.701   9.003   7.186  0.0740  0.1572  0.0044
 1235PAPE   PO413977   2.584   8.701   6.805 -0.0769 -0.0920  0.1301
 1235PAPE   GL113978   2.316   8.689   7.014 -0.0025 -0.1070 -0.0924
 1235PAPE   GL213979   2.167   8.958   7.061 -0.1455 -0.1198  0.0505
 1235PAPE   D1A13980   2.238   8.581   7.420  0.3939  0.5609  0.0092
 1235PAPE   D2A13981   2.293   8.113   7.520  0.0144 -0.0003  0.0440
 1235PAPE   D3A13982   1.965   7.898   7.634 -0.0104 -0.0720 -0.0242
 1235PAPE   D4A13983   1.854   8.316   7.720  0.0997  0.2497  0.1810
 1235PAPE   C5A13984   1.786   8.648   7.799  0.1173 -0.2341 -0.0854
 1235PAPE   C1B13985   2.002   9.035   7.383  0.2949  0.3318  0.2137
 1235PAPE   C2B13986   1.591   9.063   7.707  0.2109 -0.1767  0.3858
 1235PAPE   C3B13987   1.475   9.387   8.036 -0.0364 -0.2739  0.2104
 1235PAPE   C4B13988   1.255   9.450   8.315 -0.3515 -0.1222 -0.0524
 1236PAPE   NH313989  34.890  15.863   1.640  0.1659 -0.1665 -0.0321
 1236PAPE   PO413990  34.704  16.219   1.425  0.1177  0.0069 -0.2010
 1236PAPE   GL113991  34.661  16.384   1.843  0.1286 -0.1647 -0.0702
 1236PAPE   GL213992  34.905  16.398   1.911 -0.0933  0.0992 -0.3541
 1236PAPE   D1A13993  34.443  16.365   2.215 -0.2584 -0.0288 -0.0274
 1236PAPE   D2A13994  34.371  16.271   2.566 -0.1239  0.0549 -0.2173
 1236PAPE   D3A13995  34.557  15.929   2.772 -0.3068  0.1019  0.2022
 1236PAPE   D4A13996  34.314  15.907   3.164 -0.2984 -0.3617 -0.0399
 1236PAPE   C5A13997  34.130  16.179   3.335  0.2154  0.1535 -0.0244
 1236PAPE   C1B13998  34.910  16.626   2.371  0.1182  0.0665 -0.3678
 1236PAPE   C2B13999  34.756  16.676   2.806  0.1927  0.0406 -0.1626
 1236PAPE   C3B14000  34.560  16.414   3.010  0.0064  0.3218 -0.1078
 1236PAPE   C4B14001  34.465  16.484   3.463 -0.1005 -0.1308  0.2090
 1237PAPE   NH314002   0.869  17.615   1.535 -0.3121 -0.2020 -0.1071
 1237PAPE   PO414003   0.570  17.364   1.773 -0.1801 -0.0581  0.0470
 1237PAPE   GL114004   0.305  17.626   2.128 -0.2359 -0.0251 -0.4657
 1237PAPE   GL214005  35.381  17.449   2.157 -0.1589 -0.0840 -0.1136
 1237PAPE   D1A14006   0.401  18.029   2.314 -0.3098 -0.0870 -0.1083
 1237PAPE   D2A14007   0.262  18.423   2.439  0.0773 -0.2788 -0.1363
 1237PAPE   D3A14008   0.647  18.467   2.698  0.1596  0.3734  0.1540
 1237PAPE   D4A14009   0.646  18.350   3.148  0.2473  0.0883  0.1694
 1237PAPE   C5A14010   0.486  18.225   3.529 -0.0227 -0.2424 -0.2712
 1237PAPE   C1B14011  35.055  17.542   2.513  0.2062  0.0997 -0.1829
 1237PAPE   C2B14012  34.803  17.763   2.748 -0.0557 -0.3126  0.0213
 1237PAPE   C3B14013  34.335  17.630   2.858 -0.0182 -0.0565 -0.0334
 1237PAPE   C4B14014  34.082  17.817   2.776 -0.0102 -0.0752  0.0277
 1238PAPE   NH314015   1.567  16.326   2.589 -0.2072 -0.0138 -0.1413
 1238PAPE   PO414016   1.297  16.633   2.638  0.2882  0.0443  0.1695
 1238PAPE   GL114017   1.063  16.318   2.715 -0.0292  0.0011  0.0983
 1238PAPE   GL214018   0.786  16.567   2.682 -0.1095  0.4487  0.2238
 1238PAPE   D1A14019   0.874  16.032   2.500 -0.2007  0.3924 -0.0121
 1238PAPE   D2A14020   1.284  15.879   2.694 -0.3318 -0.2245  0.0640
 1238PAPE   D3A14021   1.051  15.538   2.947 -0.0950 -0.2938 -0.0487
 1238PAPE   D4A14022   0.708  15.423   2.688 -0.1004 -0.1311 -0.3362
 1238PAPE   C5A14023   0.664  15.626   2.156  0.1008 -0.4904  0.0477
 1238PAPE   C1B14024   0.639  16.566   3.095 -0.2657 -0.0549  0.0843
 1238PAPE   C2B14025   0.330  16.438   3.414 -0.1087 -0.0571 -0.1034
 1238PAPE   C3B14026   0.064  16.656   3.759 -0.3482 -0.2171  0.1581
 1238PAPE   C4B14027  35.214  16.745   4.064 -0.0574  0.1023 -0.1398
 1239PAPE   NH314028  33.977  34.203   8.110  0.0394  0.2423 -0.0758
 1239PAPE   PO414029  34.211  34.066   8.323 -0.1030  0.0402  0.2271
 1239PAPE   GL114030  34.112  33.772   8.458  0.2003  0.0603  0.4229
 1239PAPE   GL214031  34.012  33.662   8.725 -0.0526 -0.1607  0.0606
 1239PAPE   D1A14032  34.102  33.203   8.499 -0.0998 -0.1106 -0.0515
 1239PAPE   D2A14033  34.374  32.888   8.595  0.0684 -0.2163 -0.0518
 1239PAPE   D3A14034  34.393  32.848   9.033 -0.1232 -0.0443 -0.1622
 1239PAPE   D4A14035  34.010  32.717   9.249  0.0419 -0.2091  0.1678
 1239PAPE   C5A14036  33.922  32.219   9.372 -0.2688  0.2411  0.0579
 1239PAPE   C1B14037  33.683  33.533   9.067  0.1323 -0.0002 -0.0357
 1239PAPE   C2B14038  33.299  33.647   9.319 -0.0625  0.0159 -0.2784
 1239PAPE   C3B14039  33.236  33.867   9.635 -0.0843  0.2955  0.2136
 1239PAPE   C4B14040  33.125  34.193   9.773 -0.0934  0.1343 -0.0235
 1240PAPE   NH314041  32.197  26.412   3.339  0.0477 -0.2829  0.1994
 1240PAPE   PO414042  31.919  26.630   3.468  0.3040 -0.0979 -0.0916
 1240PAPE   GL114043  31.936  26.417   3.824 -0.1095 -0.1595 -0.1878
 1240PAPE   GL214044  31.566  26.314   3.824  0.0485  0.3348  0.2459
 1240PAPE   D1A14045  32.192  26.511   4.185  0.0360  0.1518  0.0729
 1240PAPE   D2A14046  31.805  26.619   4.281 -0.2299 -0.0050 -0.1390
 1240PAPE   D3A14047  31.768  26.190   4.421 -0.0580 -0.1676 -0.0022
 1240PAPE   D4A14048  31.833  25.940   4.086  0.1432 -0.0013 -0.3129
 1240PAPE   C5A14049  31.504  25.786   3.887 -0.2014 -0.0995 -0.2530
 1240PAPE   C1B14050  31.234  26.197   3.618  0.2602 -0.1080 -0.0844
 1240PAPE   C2B14051  30.984  25.798   3.550  0.2722 -0.0548 -0.1707
 1240PAPE   C3B14052  30.773  25.431   3.635  0.1564  0.1575 -0.0681
 1240PAPE   C4B14053  30.590  25.213   3.529  0.0999 -0.1594  0.1159
 1241PAPE   NH314054   6.723   5.175  12.555  0.1389 -0.0822 -0.0019
 1241PAPE   PO414055   6.681   4.839  12.886  0.3414  0.0321  0.0919
 1241PAPE   GL114056   6.360   4.817  13.270 -0.5302  0.1513 -0.2654
 1241PAPE   GL214057   6.516   5.042  13.412  0.1761 -0.2779  0.0202
 1241PAPE   D1A14058   5.902   4.788  13.390  0.3820 -0.1270  0.0848
 1241PAPE   D2A14059   5.636   5.002  13.713 -0.0499  0.0492  0.0545
 1241PAPE   D3A14060   5.523   5.420  13.905  0.0560 -0.3173  0.0441
 1241PAPE   D4A14061   5.240   5.029  14.026  0.0621 -0.1827  0.0356
 1241PAPE   C5A14062   4.888   4.934  14.193  0.1747 -0.1063  0.3265
 1241PAPE   C1B14063   6.076   5.233  13.335  0.3026 -0.2249 -0.2355
 1241PAPE   C2B14064   5.653   5.516  13.454  0.0372 -0.0600  0.2183
 1241PAPE   C3B14065   5.309   5.524  13.458 -0.0723 -0.0021  0.1940
 1241PAPE   C4B14066   5.028   5.900  13.349  0.0214 -0.0507  0.0784
 1242PAPE   NH314067   9.254   2.431  15.066 -0.0230 -0.3940 -0.0280
 1242PAPE   PO414068   9.814   2.265  15.129 -0.1754  0.0440 -0.3699
 1242PAPE   GL114069   9.920   2.710  15.231  0.2238  0.0845  0.2591
 1242PAPE   GL214070   9.694   2.781  15.335  0.3198 -0.0244 -0.0827
 1242PAPE   D1A14071  10.156   2.986  15.164 -0.0068 -0.1277 -0.1100
 1242PAPE   D2A14072  10.384   2.930  15.545  0.1606 -0.3334 -0.1444
 1242PAPE   D3A14073  10.656   2.563  15.487  0.1278 -0.2204 -0.1353
 1242PAPE   D4A14074  10.834   2.656  15.868 -0.1501  0.1741 -0.0152
 1242PAPE   C5A14075  10.630   3.021  16.119  0.2039 -0.4126 -0.0348
 1242PAPE   C1B14076   9.843   2.818  15.770 -0.3202  0.0329  0.0143
 1242PAPE   C2B14077  10.045   2.791  16.247  0.2814  0.1812  0.1752
 1242PAPE   C3B14078  10.399   2.889  16.591  0.0882  0.4234  0.1946
 1242PAPE   C4B14079  10.836   2.726  16.760  0.1909 -0.1290 -0.0267
 1243PAPE   NH314080  27.632   7.615   2.611  0.1087  0.0237 -0.1992
 1243PAPE   PO414081  27.369   7.393   2.846 -0.0674 -0.1987 -0.1972
 1243PAPE   GL114082  27.252   7.759   2.918 -0.0854 -0.2530  0.3016
 1243PAPE   GL214083  27.478   7.952   3.045 -0.0397  0.0042 -0.0684
 1243PAPE   D1A14084  27.091   7.902   2.573  0.3712 -0.1869  0.4674
 1243PAPE   D2A14085  26.752   7.904   2.836  0.3874  0.0875  0.2227
 1243PAPE   D3A14086  26.665   7.864   3.234 -0.2357 -0.0467 -0.0051
 1243PAPE   D4A14087  26.899   7.566   3.414 -0.2933 -0.1627 -0.2465
 1243PAPE   C5A14088  26.903   7.499   3.917 -0.2857 -0.0067 -0.0066
 1243PAPE   C1B14089  27.692   8.400   2.997 -0.0820  0.0895  0.0184
 1243PAPE   C2B14090  27.838   8.626   3.275  0.1881 -0.0548  0.1351
 1243PAPE   C3B14091  27.958   8.782   3.580  0.1229  0.1829 -0.0389
 1243PAPE   C4B14092  28.026   8.998   4.013  0.0906 -0.1940 -0.2067
 1244PAPE   NH314093   2.444  24.293   5.182  0.1206 -0.0211  0.1912
 1244PAPE   PO414094   2.506  24.195   4.777 -0.1461 -0.2182 -0.0555
 1244PAPE   GL114095   2.228  23.831   5.002 -0.0056  0.0384  0.0247
 1244PAPE   GL214096   2.309  23.763   5.294  0.0471  0.3382  0.3239
 1244PAPE   D1A14097   1.715  23.925   4.929 -0.0009  0.0514  0.1028
 1244PAPE   D2A14098   1.330  23.727   4.662 -0.0738 -0.4472 -0.0657
 1244PAPE   D3A14099   1.138  23.508   5.003  0.0256 -0.0681 -0.3098
 1244PAPE   D4A14100   0.807  23.701   4.976  0.0082  0.0333 -0.1377
 1244PAPE   C5A14101   0.724  23.667   4.612  0.0421 -0.2380 -0.2261
 1244PAPE   C1B14102   1.917  23.642   5.442 -0.0237 -0.0177 -0.0451
 1244PAPE   C2B14103   1.610  23.647   5.777  0.1960 -0.0947  0.0312
 1244PAPE   C3B14104   1.437  23.304   6.066 -0.0752  0.2589  0.3803
 1244PAPE   C4B14105   1.356  22.944   6.370 -0.0773 -0.1625  0.2019
 1245PAPE   NH314106  14.598  18.846  14.989  0.0208 -0.0438  0.2512
 1245PAPE   PO414107  14.457  18.506  14.915 -0.2940 -0.1389 -0.0865
 1245PAPE   GL114108  14.775  18.177  15.068 -0.2200  0.0451  0.2991
 1245PAPE   GL214109  14.987  18.373  15.197 -0.0667  0.1452 -0.1635
 1245PAPE   D1A14110  15.240  17.924  15.071 -0.0659  0.2956  0.4041
 1245PAPE   D2A14111  15.416  18.142  15.396  0.1283  0.1359  0.1201
 1245PAPE   D3A14112  15.465  18.595  15.365 -0.1119 -0.2993 -0.2258
 1245PAPE   D4A14113  15.877  18.394  15.430  0.0220 -0.0991 -0.0148
 1245PAPE   C5A14114  15.827  18.073  15.746  0.0397 -0.0543  0.0081
 1245PAPE   C1B14115  14.901  17.922  15.465  0.2262  0.1895 -0.0498
 1245PAPE   C2B14116  14.629  17.669  15.727  0.0750 -0.0062  0.0347
 1245PAPE   C3B14117  14.736  17.393  16.129 -0.2893  0.0072 -0.1855
 1245PAPE   C4B14118  15.149  17.299  16.303  0.4013  0.1869 -0.0840
 1246PAPE   NH314119  21.931  28.968   5.914 -0.1962  0.0262 -0.2558
 1246PAPE   PO414120  21.898  29.260   6.299  0.0612  0.4776  0.0547
 1246PAPE   GL114121  22.260  29.218   6.661 -0.2805  0.0555  0.0371
 1246PAPE   GL214122  22.092  28.967   6.777 -0.4481 -0.0356  0.1747
 1246PAPE   D1A14123  22.699  29.385   6.800  0.2219  0.0759 -0.0207
 1246PAPE   D2A14124  22.384  29.650   7.007  0.0701  0.1512 -0.1832
 1246PAPE   D3A14125  22.747  29.698   7.282 -0.1113 -0.0721 -0.0675
 1246PAPE   D4A14126  22.890  29.917   6.871  0.3174  0.2370 -0.2947
 1246PAPE   C5A14127  23.372  29.960   6.910  0.1146 -0.1060 -0.0640
 1246PAPE   C1B14128  22.584  28.824   6.794 -0.2432  0.0579 -0.0088
 1246PAPE   C2B14129  23.050  28.904   6.922 -0.0410 -0.0442  0.2505
 1246PAPE   C3B14130  23.335  28.901   7.263  0.0492 -0.4128 -0.2565
 1246PAPE   C4B14131  23.477  29.114   7.614 -0.2414 -0.3228 -0.1890
 1247PAPE   NH314132  15.576  18.035  14.487  0.0955 -0.1963 -0.2078
 1247PAPE   PO414133  16.052  18.264  14.382  0.1222  0.4309  0.1842
 1247PAPE   GL114134  16.009  18.527  14.687  0.4538  0.2183 -0.1694
 1247PAPE   GL214135  16.329  18.479  14.920 -0.3248  0.2534 -0.0821
 1247PAPE   D1A14136  15.840  18.712  15.097  0.0334  0.0583  0.0787
 1247PAPE   D2A14137  16.202  18.837  15.312 -0.2151 -0.1112  0.1487
 1247PAPE   D3A14138  16.324  18.441  15.590  0.2422 -0.1687 -0.1530
 1247PAPE   D4A14139  16.197  18.564  16.047  0.4573  0.0334  0.2465
 1247PAPE   C5A14140  16.490  18.482  16.336  0.1319  0.1840  0.1855
 1247PAPE   C1B14141  16.639  18.432  15.246 -0.0531 -0.1406  0.0743
 1247PAPE   C2B14142  16.957  18.392  15.531  0.1903  0.2996  0.1483
 1247PAPE   C3B14143  17.238  18.216  15.853 -0.0329  0.1378  0.0213
 1247PAPE   C4B14144  17.569  18.276  16.231 -0.4399 -0.0520  0.2807
 1248DGPE   NH314145   5.255  13.213   9.616  0.0787  0.0502  0.1388
 1248DGPE   PO414146   5.500  12.975   9.951  0.1100 -0.0976  0.1226
 1248DGPE   GL114147   5.623  12.704  10.381 -0.0577  0.3526  0.1172
 1248DGPE   GL214148   5.825  12.493  10.641 -0.0187 -0.1634  0.1102
 1248DGPE   C1A14149   5.363  12.631  10.723  0.0194  0.0941 -0.0849
 1248DGPE   C2A14150   4.931  12.612  10.869  0.0926  0.1509 -0.0370
 1248DGPE   D3A14151   4.638  12.519  11.146  0.0782  0.0454 -0.0769
 1248DGPE   C4A14152   4.307  12.365  11.368  0.2287  0.0297 -0.2682
 1248DGPE   C5A14153   4.015  12.103  11.395 -0.2448  0.1367  0.2167
 1248DGPE   C1B14154   5.569  12.178  10.918 -0.0116  0.1491 -0.0236
 1248DGPE   C2B14155   5.359  11.956  11.325 -0.2981 -0.2429  0.0988
 1248DGPE   D3B14156   5.294  12.045  11.709  0.1793 -0.0967 -0.2058
 1248DGPE   C4B14157   5.502  12.171  12.133 -0.3090 -0.2135  0.1389
 1248DGPE   C5B14158   5.597  12.356  12.491 -0.0405  0.2020 -0.1737
 1249DGPE   NH314159  12.396  20.735  16.797 -0.1245 -0.1866  0.0814
 1249DGPE   PO414160  12.708  20.891  17.057 -0.1847  0.0973 -0.0130
 1249DGPE   GL114161  12.875  20.738  17.428 -0.2132 -0.1458 -0.0367
 1249DGPE   GL214162  12.724  20.804  17.579  0.2532  0.0145 -0.1261
 1249DGPE   C1A14163  13.019  20.353  17.542 -0.3911  0.1395 -0.0318
 1249DGPE   C2A14164  12.994  20.074  17.907  0.1148  0.1351  0.3534
 1249DGPE   D3A14165  13.113  19.745  18.135 -0.0566 -0.1240 -0.0154
 1249DGPE   C4A14166  12.914  19.716  18.544  0.3216  0.2943 -0.0714
 1249DGPE   C5A14167  12.901  19.635  18.991  0.0984  0.0862 -0.2310
 1249DGPE   C1B14168  12.885  20.524  17.959  0.1163 -0.0138 -0.0863
 1249DGPE   C2B14169  13.020  20.324  18.385  0.2878 -0.2430  0.0041
 1249DGPE   D3B14170  12.951  20.120  18.844 -0.2260 -0.1137 -0.0932
 1249DGPE   C4B14171  12.944  20.419  19.164 -0.0045  0.0316 -0.1131
 1249DGPE   C5B14172  12.698  20.735  19.385 -0.1032  0.0799 -0.0355
 1250DGPE   NH314173   8.022  24.635  16.730 -0.0927 -0.2978  0.2078
 1250DGPE   PO414174   7.571  24.560  16.775 -0.1402  0.1002 -0.0008
 1250DGPE   GL114175   7.297  24.284  16.933  0.0045  0.1755 -0.3988
 1250DGPE   GL214176   7.302  24.351  17.268  0.0359  0.0725  0.0020
 1250DGPE   C1A14177   6.914  24.181  17.037 -0.0484 -0.0593  0.1243
 1250DGPE   C2A14178   6.718  24.082  17.432 -0.1346  0.1888  0.0350
 1250DGPE   D3A14179   6.437  23.868  17.655  0.3933  0.1165  0.2416
 1250DGPE   C4A14180   6.047  23.875  17.713  0.1740  0.0130  0.0222
 1250DGPE   C5A14181   5.697  23.836  17.362  0.4147 -0.1721  0.0953
 1250DGPE   C1B14182   7.256  24.201  17.602  0.0610 -0.1327 -0.4335
 1250DGPE   C2B14183   7.177  24.169  18.058 -0.2749  0.0528 -0.0845
 1250DGPE   D3B14184   6.942  24.418  18.376 -0.2192  0.0214 -0.0580
 1250DGPE   C4B14185   6.723  24.244  18.657 -0.1237 -0.0395  0.1828
 1250DGPE   C5B14186   6.917  24.257  19.056  0.2969  0.0628 -0.2092
 1251DGPE   NH314187  14.978   4.304  12.939  0.1763  0.3514  0.2942
 1251DGPE   PO414188  14.917   4.739  12.949 -0.0052  0.2382 -0.1097
 1251DGPE   GL114189  14.758   4.488  13.341 -0.0126  0.0007  0.0108
 1251DGPE   GL214190  14.836   4.211  13.443  0.0051  0.4079 -0.2821
 1251DGPE   C1A14191  14.614   4.659  13.724 -0.3711 -0.0314  0.1334
 1251DGPE   C2A14192  14.587   4.689  14.170  0.0838  0.0468  0.0411
 1251DGPE   D3A14193  14.764   4.760  14.601 -0.0218  0.2465  0.0966
 1251DGPE   C4A14194  14.881   5.207  14.665 -0.2222  0.1570 -0.0774
 1251DGPE   C5A14195  14.675   5.488  14.919 -0.2217 -0.1958  0.1445
 1251DGPE   C1B14196  14.980   4.365  13.847  0.1365 -0.2106 -0.2095
 1251DGPE   C2B14197  14.950   4.353  14.264  0.3953 -0.1439  0.3147
 1251DGPE   D3B14198  15.238   4.472  14.537 -0.0109  0.2016 -0.0654
 1251DGPE   C4B14199  15.215   4.790  14.833  0.3961 -0.4769 -0.2067
 1251DGPE   C5B14200  15.060   5.132  15.122 -0.0470  0.2335  0.3027
 1252DGPE   NH314201  30.881  14.078   0.683 -0.2603 -0.1009  0.1409
 1252DGPE   PO414202  30.956  14.357   0.400 -0.1158  0.0049 -0.1327
 1252DGPE   GL114203  30.962  14.626   0.819  0.1274 -0.2432  0.2529
 1252DGPE   GL214204  31.022  14.977   0.833  0.2750  0.1112  0.3549
 1252DGPE   C1A14205  30.880  14.579   1.235 -0.2217 -0.1546 -0.0693
 1252DGPE   C2A14206  30.724  14.618   1.723  0.1628  0.0732 -0.0773
 1252DGPE   D3A14207  30.453  14.346   1.963  0.1742  0.0765  0.2429
 1252DGPE   C4A14208  30.431  13.930   2.106 -0.0838 -0.0512 -0.0787
 1252DGPE   C5A14209  30.569  13.724   2.470 -0.3812  0.0958  0.2677
 1252DGPE   C1B14210  30.734  15.083   1.247  0.1025 -0.0958  0.2105
 1252DGPE   C2B14211  30.615  15.087   1.585 -0.2201 -0.0651  0.3353
 1252DGPE   D3B14212  30.282  15.314   1.641 -0.4805  0.0256 -0.1448
 1252DGPE   C4B14213  30.081  15.437   1.944 -0.0666  0.0408  0.2731
 1252DGPE   C5B14214  29.586  15.617   1.901  0.0324  0.0272  0.1130
 1253DGPE   NH314215  32.653   1.146   7.477  0.0996 -0.1072  0.0476
 1253DGPE   PO414216  32.450   1.338   7.151 -0.0595  0.3396  0.4339
 1253DGPE   GL114217  32.221   1.389   7.536  0.1353 -0.0034 -0.1666
 1253DGPE   GL214218  32.303   1.721   7.674  0.1504 -0.2978 -0.0792
 1253DGPE   C1A14219  31.876   1.247   7.916 -0.1406  0.0116 -0.0567
 1253DGPE   C2A14220  31.528   1.476   8.304 -0.2042  0.5439  0.2815
 1253DGPE   D3A14221  31.429   1.485   8.781 -0.0082 -0.0178  0.2915
 1253DGPE   C4A14222  31.593   1.648   9.306  0.2780  0.3088 -0.2033
 1253DGPE   C5A14223  31.613   1.954   9.598 -0.0649  0.1362 -0.0154
 1253DGPE   C1B14224  32.295   1.549   8.078  0.1091 -0.2754 -0.4295
 1253DGPE   C2B14225  31.996   1.632   8.370  0.1884  0.0938  0.0366
 1253DGPE   D3B14226  31.888   1.647   8.780 -0.2818 -0.2311 -0.1047
 1253DGPE   C4B14227  31.789   1.249   9.046  0.0333 -0.0353 -0.1961
 1253DGPE   C5B14228  31.742   0.798   9.152  0.1851 -0.2438  0.4786
 1254DGPE   NH314229   2.016  31.677  10.499 -0.1918  0.1706 -0.0062
 1254DGPE   PO414230   1.683  31.298  10.256 -0.0898 -0.0505 -0.3741
 1254DGPE   GL114231   1.255  31.376  10.154 -0.1836 -0.1027  0.2315
 1254DGPE   GL214232   1.033  31.038  10.181 -0.1008 -0.3901 -0.2319
 1254DGPE   C1A14233   0.908  31.540  10.165  0.1833  0.0582 -0.0971
 1254DGPE   C2A14234   0.596  31.594  10.364  0.1973  0.1918  0.2348
 1254DGPE   D3A14235   0.229  31.727  10.620  0.0626 -0.2089  0.0264
 1254DGPE   C4A14236  35.381  31.768  10.928 -0.2419  0.0080 -0.3114
 1254DGPE   C5A14237  35.289  31.821  11.306 -0.1620  0.2039 -0.0615
 1254DGPE   C1B14238   0.586  31.109  10.252  0.0207  0.0973  0.0529
 1254DGPE   C2B14239   0.244  31.230  10.448  0.1871 -0.3828  0.1005
 1254DGPE   D3B14240   0.094  31.235  10.875 -0.1256 -0.0086 -0.0360
 1254DGPE   C4B14241  35.114  31.166  11.078 -0.1843 -0.1792 -0.1911
 1254DGPE   C5B14242  34.955  31.398  11.474 -0.1648 -0.5032  0.1175
 1255DGPE   NH314243  18.422   5.802  12.545  0.3618 -0.0897 -0.2833
 1255DGPE   PO414244  18.511   6.136  12.771 -0.2134 -0.0016 -0.1673
 1255DGPE   GL114245  18.703   6.007  13.063  0.1272  0.0509  0.1973
 1255DGPE   GL214246  18.652   5.649  12.977 -0.1572  0.0901 -0.0186
 1255DGPE   C1A14247  18.822   5.842  13.386  0.1139 -0.2285 -0.2076
 1255DGPE   C2A14248  18.998   5.873  13.790 -0.2066 -0.1330 -0.1073
 1255DGPE   D3A14249  19.060   5.964  14.177  0.4379 -0.0403 -0.0984
 1255DGPE   C4A14250  18.727   6.136  14.438 -0.2864  0.1908 -0.2195
 1255DGPE   C5A14251  18.428   5.978  14.741  0.1034  0.1666 -0.2122
 1255DGPE   C1B14252  19.021   5.407  13.214  0.0346  0.1050 -0.4108
 1255DGPE   C2B14253  19.105   5.170  13.515 -0.2196 -0.0360  0.2139
 1255DGPE   D3B14254  19.078   5.050  13.975  0.1499 -0.0529  0.4498
 1255DGPE   C4B14255  18.722   4.844  14.048 -0.3879  0.2555 -0.0634
 1255DGPE   C5B14256  18.557   4.661  14.397 -0.2046 -0.2174  0.0936
 1256DGPE   NH314257   2.045  15.609   3.428 -0.1559 -0.1114  0.3074
 1256DGPE   PO414258   1.781  15.265   3.186 -0.0926 -0.1326 -0.1876
 1256DGPE   GL114259   1.328  15.233   3.246  0.2510  0.6730  0.1456
 1256DGPE   GL214260   1.326  14.926   3.307  0.0181  0.1553  0.5396
 1256DGPE   C1A14261   1.125  15.366   3.556  0.0448 -0.1102 -0.0407
 1256DGPE   C2A14262   0.787  15.367   3.730  0.0716 -0.0151 -0.0395
 1256DGPE   D3A14263   0.539  15.769   3.662  0.1050  0.0946  0.1446
 1256DGPE   C4A14264   0.736  16.088   3.621 -0.1360  0.2046 -0.2129
 1256DGPE   C5A14265   1.260  16.272   3.578 -0.2481 -0.1300  0.1445
 1256DGPE   C1B14266   1.040  14.901   3.741  0.0684  0.1125 -0.3306
 1256DGPE   C2B14267   0.757  14.895   4.067  0.1444 -0.0334  0.3923
 1256DGPE   D3B14268   0.577  14.956   4.445  0.2474 -0.1175  0.1160
 1256DGPE   C4B14269   0.318  15.306   4.574 -0.1591  0.0236  0.1230
 1256DGPE   C5B14270   0.081  15.647   4.434 -0.0009 -0.0644  0.0180
 1257DGPE   NH314271   9.045  35.129  16.216  0.4901  0.0224 -0.3028
 1257DGPE   PO414272   8.985  34.592  16.304  0.0917 -0.3104 -0.1159
 1257DGPE   GL114273   8.681  34.686  16.596  0.0139 -0.4172  0.1175
 1257DGPE   GL214274   8.646  35.010  16.497  0.1675  0.1595  0.2997
 1257DGPE   C1A14275   8.594  34.715  17.065  0.0885 -0.1481 -0.0379
 1257DGPE   C2A14276   8.411  34.790  17.518  0.0893 -0.0014  0.2548
 1257DGPE   D3A14277   8.201  34.675  17.916  0.1654 -0.1332 -0.0970
 1257DGPE   C4A14278   8.120  34.990  18.037  0.3764 -0.1332  0.0516
 1257DGPE   C5A14279   8.171  35.242  18.325  0.3604 -0.0476  0.2567
 1257DGPE   C1B14280   8.510  35.202  16.810 -0.0947  0.0447  0.1174
 1257DGPE   C2B14281   8.368  35.208  17.185  0.0801  0.1932 -0.1732
 1257DGPE   D3B14282   8.245  35.294  17.548 -0.1675 -0.0225 -0.2851
 1257DGPE   C4B14283   8.172   0.382  17.570 -0.1342 -0.1260 -0.2311
 1257DGPE   C5B14284   8.255   0.709  17.802 -0.0542  0.1091  0.2552
 1258DGPE   NH314285   8.990  33.662  15.677  0.2150 -0.3294 -0.3736
 1258DGPE   PO414286   8.859  33.819  16.139 -0.0203  0.0114  0.1393
 1258DGPE   GL114287   8.991  33.869  16.579 -0.0399 -0.4097 -0.0852
 1258DGPE   GL214288   9.233  33.778  16.735 -0.1198  0.2727 -0.1388
 1258DGPE   C1A14289   8.719  34.093  16.930 -0.2135  0.0256  0.2609
 1258DGPE   C2A14290   8.632  34.260  17.370 -0.2077 -0.2519 -0.1076
 1258DGPE   D3A14291   8.573  34.355  17.792 -0.0241  0.0377  0.0844
 1258DGPE   C4A14292   8.274  33.978  17.815 -0.0863 -0.1151  0.0898
 1258DGPE   C5A14293   8.124  33.562  17.935  0.2534  0.1612  0.1916
 1258DGPE   C1B14294   9.136  33.925  17.146 -0.1718 -0.2783 -0.1101
 1258DGPE   C2B14295   9.015  33.991  17.562 -0.2874  0.0044  0.2606
 1258DGPE   D3B14296   9.158  34.131  17.905  0.0343  0.0881  0.0071
 1258DGPE   C4B14297   8.950  34.449  18.110 -0.0181  0.1030 -0.0706
 1258DGPE   C5B14298   9.050  34.724  18.473 -0.0174  0.1358 -0.1418
 1259DGPE   NH314299  26.107  30.329   5.703  0.1109 -0.0358 -0.1227
 1259DGPE   PO414300  26.003  29.898   5.552  0.1075 -0.3045 -0.1523
 1259DGPE   GL114301  26.210  29.889   5.982 -0.5214  0.2582 -0.0144
 1259DGPE   GL214302  25.922  29.996   6.224 -0.1594  0.0472  0.0692
 1259DGPE   C1A14303  26.365  29.913   6.413  0.0195 -0.0060  0.2408
 1259DGPE   C2A14304  26.516  29.641   6.888  0.2346  0.0786 -0.0749
 1259DGPE   D3A14305  26.613  29.354   7.195 -0.0600 -0.0930 -0.2209
 1259DGPE   C4A14306  26.277  29.121   7.240  0.0945  0.4471  0.1278
 1259DGPE   C5A14307  25.768  29.178   7.175 -0.1324  0.0738 -0.0549
 1259DGPE   C1B14308  25.951  29.657   6.507 -0.1768  0.0052  0.0795
 1259DGPE   C2B14309  26.106  29.404   6.805  0.2440 -0.2911 -0.0704
 1259DGPE   D3B14310  26.102  29.579   7.249 -0.2469  0.2746 -0.2162
 1259DGPE   C4B14311  26.387  29.899   7.611  0.0854  0.1677  0.2107
 1259DGPE   C5B14312  26.695  30.189   7.751  0.0695  0.2268 -0.2251
 1260DGPE   NH314313  32.131   4.948   5.598  0.2098 -0.0784  0.0760
 1260DGPE   PO414314  32.193   4.993   5.983  0.1723  0.2788 -0.1172
 1260DGPE   GL114315  31.857   5.041   6.209  0.1074 -0.0872  0.2338
 1260DGPE   GL214316  31.620   5.011   6.079 -0.1947 -0.1525  0.1232
 1260DGPE   C1A14317  31.738   5.239   6.538  0.0115  0.0707  0.0436
 1260DGPE   C2A14318  31.555   5.564   6.639 -0.0034  0.0787 -0.0278
 1260DGPE   D3A14319  31.295   5.744   6.785 -0.0727 -0.1734 -0.1824
 1260DGPE   C4A14320  31.313   6.101   6.973  0.4488 -0.1617 -0.0814
 1260DGPE   C5A14321  31.290   6.610   7.099 -0.0462  0.3313  0.0820
 1260DGPE   C1B14322  31.406   5.351   6.170  0.1921  0.1114 -0.2447
 1260DGPE   C2B14323  31.145   5.581   6.242 -0.0927  0.2857 -0.3010
 1260DGPE   D3B14324  30.892   5.875   6.393  0.0739  0.0127 -0.3026
 1260DGPE   C4B14325  30.557   6.210   6.447  0.1832  0.1576  0.1736
 1260DGPE   C5B14326  30.238   6.515   6.554 -0.0438  0.1816  0.2165
 1261DGPE   NH314327   8.594   9.029  14.090 -0.0858 -0.0954  0.1079
 1261DGPE   PO414328   8.326   8.580  14.130 -0.1632 -0.2538  0.0670
 1261DGPE   GL114329   8.210   8.770  14.402 -0.0508 -0.1529  0.0893
 1261DGPE   GL214330   8.193   9.126  14.355 -0.0109  0.0562 -0.0675
 1261DGPE   C1A14331   7.768   9.006  14.610  0.0867 -0.0781  0.1935
 1261DGPE   C2A14332   7.579   9.162  14.925  0.2882  0.0314 -0.0022
 1261DGPE   D3A14333   7.328   9.296  15.337  0.1743 -0.2150  0.2471
 1261DGPE   C4A14334   6.879   9.085  15.325 -0.2412  0.2567 -0.2349
 1261DGPE   C5A14335   6.723   8.652  15.411  0.1612  0.0550 -0.2684
 1261DGPE   C1B14336   8.294   8.980  14.811 -0.0088 -0.0219  0.0488
 1261DGPE   C2B14337   8.103   8.951  15.244  0.2415  0.2408 -0.0369
 1261DGPE   D3B14338   7.849   9.291  15.336 -0.1868  0.1923 -0.0162
 1261DGPE   C4B14339   7.940   9.494  15.777  0.0162  0.0078  0.2694
 1261DGPE   C5B14340   7.960   9.581  16.068 -0.0364 -0.0147  0.0555
 1262DGPE   NH314341   2.751  25.849   7.707 -0.0988  0.1001  0.4585
 1262DGPE   PO414342   2.577  26.253   7.773  0.2158 -0.1409 -0.2729
 1262DGPE   GL114343   2.248  25.966   8.011 -0.1646 -0.0527  0.1471
 1262DGPE   GL214344   2.328  26.083   8.295 -0.1530 -0.1944 -0.3085
 1262DGPE   C1A14345   1.790  25.792   7.956 -0.3638 -0.0241 -0.3916
 1262DGPE   C2A14346   1.461  25.532   8.110  0.1859 -0.3685 -0.1666
 1262DGPE   D3A14347   1.475  25.085   8.398  0.0114  0.1468  0.2886
 1262DGPE   C4A14348   1.006  24.970   8.562 -0.2603 -0.0098 -0.1485
 1262DGPE   C5A14349   0.675  25.300   8.745 -0.0692  0.0122 -0.0148
 1262DGPE   C1B14350   2.268  25.666   8.444 -0.0454 -0.1097  0.0298
 1262DGPE   C2B14351   1.923  25.386   8.333  0.2263 -0.2251 -0.2468
 1262DGPE   D3B14352   1.932  24.977   8.420  0.2888  0.0311 -0.1075
 1262DGPE   C4B14353   1.764  24.575   8.291 -0.2084  0.0492 -0.0496
 1262DGPE   C5B14354   1.478  24.307   8.136 -0.0029 -0.1618 -0.3276
 1263DGPE   NH314355  14.676  13.913  14.862 -0.2963  0.1923  0.1469
 1263DGPE   PO414356  15.109  13.885  14.839  0.3355  0.1153  0.4830
 1263DGPE   GL114357  15.090  14.285  15.129  0.2909  0.0268  0.0182
 1263DGPE   GL214358  15.091  14.580  15.092  0.3079 -0.1216 -0.0764
 1263DGPE   C1A14359  15.261  14.338  15.565 -0.1227 -0.0566 -0.0115
 1263DGPE   C2A14360  15.406  14.563  15.896 -0.1038 -0.2319 -0.1371
 1263DGPE   D3A14361  15.281  14.828  16.260  0.2837 -0.0346 -0.1267
 1263DGPE   C4A14362  15.410  14.770  16.557 -0.2510  0.1088  0.2567
 1263DGPE   C5A14363  15.707  14.480  16.695 -0.2602 -0.1211  0.3589
 1263DGPE   C1B14364  15.292  14.803  15.360  0.0464  0.1124 -0.2081
 1263DGPE   C2B14365  15.183  15.002  15.720  0.1242 -0.1833  0.2451
 1263DGPE   D3B14366  15.031  15.357  15.906  0.2997  0.2456 -0.0359
 1263DGPE   C4B14367  14.797  15.351  16.267 -0.1670 -0.0089  0.1046
 1263DGPE   C5B14368  14.630  15.510  16.472  0.1174  0.0336  0.1635
 1264DGPE   NH314369   8.211   6.773  13.790  0.2028 -0.0979 -0.0515
 1264DGPE   PO414370   8.612   6.836  14.057 -0.1662 -0.0744  0.0391
 1264DGPE   GL114371   8.383   6.880  14.426 -0.1118  0.1900 -0.1491
 1264DGPE   GL214372   8.372   6.658  14.597 -0.0061 -0.0489 -0.1361
 1264DGPE   C1A14373   7.962   7.008  14.680 -0.3311 -0.1364  0.0287
 1264DGPE   C2A14374   7.755   7.061  15.071  0.1270 -0.3823 -0.0761
 1264DGPE   D3A14375   7.574   7.122  15.472 -0.1508 -0.2411 -0.0951
 1264DGPE   C4A14376   7.180   7.246  15.702  0.0159  0.1923 -0.1572
 1264DGPE   C5A14377   6.715   7.332  15.787  0.0846  0.1538 -0.0158
 1264DGPE   C1B14378   8.300   6.538  14.965 -0.2498  0.1763  0.1502
 1264DGPE   C2B14379   8.031   6.567  15.306  0.0202  0.0809 -0.3632
 1264DGPE   D3B14380   7.926   6.715  15.744 -0.0469 -0.0802 -0.1904
 1264DGPE   C4B14381   7.465   6.903  15.955  0.2070 -0.1866 -0.0959
 1264DGPE   C5B14382   7.357   7.191  16.292  0.0788 -0.1471  0.1596
 1265DGPE   NH314383  11.931   0.831  14.118  0.1916 -0.2557 -0.1705
 1265DGPE   PO414384  11.970   0.427  14.137 -0.1188 -0.1772 -0.3023
 1265DGPE   GL114385  12.328   0.585  14.462 -0.2075  0.0291  0.0889
 1265DGPE   GL214386  12.346   0.979  14.378 -0.5686 -0.0345 -0.0921
 1265DGPE   C1A14387  12.410   0.957  14.856 -0.1807 -0.0211 -0.3676
 1265DGPE   C2A14388  12.505   1.294  15.108 -0.2386 -0.0293 -0.1223
 1265DGPE   D3A14389  12.631   1.401  15.486  0.0297  0.2039  0.1893
 1265DGPE   C4A14390  12.839   1.098  15.686  0.3373 -0.3928 -0.1347
 1265DGPE   C5A14391  12.908   0.654  15.875 -0.2441 -0.2539  0.4689
 1265DGPE   C1B14392  12.671   1.320  14.536  0.0954  0.0631  0.1120
 1265DGPE   C2B14393  13.042   1.555  14.775  0.1015  0.5266  0.0392
 1265DGPE   D3B14394  13.393   1.844  14.913 -0.1856 -0.2055 -0.1279
 1265DGPE   C4B14395  13.579   1.775  15.256 -0.0018 -0.0435  0.1983
 1265DGPE   C5B14396  13.504   1.852  15.642  0.2938 -0.3191 -0.2989
 1266DGPE   NH314397  31.075  30.823   6.048 -0.1987 -0.1235  0.0943
 1266DGPE   PO414398  30.679  30.888   6.308  0.0651 -0.2848  0.0690
 1266DGPE   GL114399  30.682  30.586   6.567  0.1558  0.0948  0.1317
 1266DGPE   GL214400  30.541  30.692   6.835  0.0601  0.1503 -0.0868
 1266DGPE   C1A14401  30.373  30.269   6.646 -0.1120  0.1277 -0.2482
 1266DGPE   C2A14402  30.150  29.863   6.916  0.0582  0.1320  0.1452
 1266DGPE   D3A14403  30.163  29.465   6.949  0.0076  0.0236 -0.0219
 1266DGPE   C4A14404  29.987  29.275   7.308 -0.1254 -0.1423 -0.1110
 1266DGPE   C5A14405  29.765  28.905   7.482 -0.2413  0.2311  0.0503
 1266DGPE   C1B14406  30.442  30.689   7.253 -0.2591  0.3356  0.1180
 1266DGPE   C2B14407  30.224  30.983   7.562 -0.3114  0.4193 -0.2153
 1266DGPE   D3B14408  29.990  30.908   7.897  0.0635 -0.2132  0.3213
 1266DGPE   C4B14409  30.029  31.225   8.163  0.1479 -0.3244  0.1486
 1266DGPE   C5B14410  29.703  31.731   8.302 -0.0288  0.3404  0.2695
 1267DGPE   NH314411   9.912  34.885  16.589 -0.2916  0.1393  0.0263
 1267DGPE   PO414412  10.082  35.163  16.187  0.1621 -0.0171  0.3512
 1267DGPE   GL114413  10.248  35.312  16.534 -0.0685  0.3618 -0.0624
 1267DGPE   GL214414  10.098  35.313  16.747  0.1379  0.2186 -0.1133
 1267DGPE   C1A14415  10.262   0.389  16.572 -0.0272  0.2609  0.0009
 1267DGPE   C2A14416  10.366   0.718  16.965 -0.1351  0.0928  0.1416
 1267DGPE   D3A14417  10.585   1.176  17.028 -0.0535 -0.0795  0.2485
 1267DGPE   C4A14418  10.543   1.281  17.440  0.4543  0.1185 -0.2619
 1267DGPE   C5A14419  10.570   1.513  17.796  0.0779  0.2104  0.0347
 1267DGPE   C1B14420  10.362   0.153  17.008 -0.0806  0.1358  0.1581
 1267DGPE   C2B14421  10.627   0.389  17.371 -0.1685 -0.1087  0.1821
 1267DGPE   D3B14422  10.638   0.761  17.458 -0.2831 -0.1901 -0.1345
 1267DGPE   C4B14423  11.045   0.994  17.302 -0.1502  0.1337 -0.0967
 1267DGPE   C5B14424  10.997   1.476  17.227 -0.3791 -0.0979 -0.4198
 1268DGPE   NH314425   3.515  32.972  12.491 -0.2064 -0.0037  0.1476
 1268DGPE   PO414426   3.088  33.032  12.283 -0.1586  0.2072  0.0306
 1268DGPE   GL114427   2.745  33.057  12.453  0.1803  0.0817 -0.0918
 1268DGPE   GL214428   2.596  33.248  12.345 -0.1440  0.1729 -0.0057
 1268DGPE   C1A14429   2.496  32.912  12.930 -0.3169  0.2126 -0.1735
 1268DGPE   C2A14430   2.177  33.020  13.278 -0.0623 -0.2025 -0.4248
 1268DGPE   D3A14431   1.952  33.306  13.510 -0.2502 -0.2587  0.2080
 1268DGPE   C4A14432   1.525  33.172  13.426 -0.0379  0.3757  0.1374
 1268DGPE   C5A14433   1.078  33.183  13.355  0.0791  0.0098 -0.0008
 1268DGPE   C1B14434   2.464  33.363  12.714  0.2577  0.0039 -0.0875
 1268DGPE   C2B14435   2.166  33.388  12.989  0.0865 -0.1810  0.0149
 1268DGPE   D3B14436   1.753  33.694  13.010 -0.0673 -0.2860 -0.1961
 1268DGPE   C4B14437   1.551  33.680  13.390  0.3195  0.0286 -0.0023
 1268DGPE   C5B14438   1.474  33.866  13.733 -0.1167 -0.1624 -0.1231
 1269DGPE   NH314439  10.126  33.303  16.786 -0.3115  0.2194 -0.0294
 1269DGPE   PO414440  10.036  32.951  16.959 -0.2607 -0.0392 -0.0827
 1269DGPE   GL114441   9.929  33.170  17.262 -0.0969  0.1450 -0.1870
 1269DGPE   GL214442   9.856  32.910  17.541  0.0808  0.2370 -0.1354
 1269DGPE   C1A14443   9.674  33.347  17.539  0.0777  0.1734 -0.1662
 1269DGPE   C2A14444   9.627  33.343  17.984 -0.2453 -0.0028  0.0493
 1269DGPE   D3A14445   9.646  33.135  18.378 -0.0990  0.0237 -0.0296
 1269DGPE   C4A14446   9.339  32.856  18.524  0.1135  0.0804 -0.1703
 1269DGPE   C5A14447   9.040  32.993  18.883 -0.1290 -0.0950 -0.0712
 1269DGPE   C1B14448   9.877  32.849  17.980 -0.1577  0.0258 -0.0389
 1269DGPE   C2B14449  10.119  32.802  18.392  0.0635 -0.1283  0.0928
 1269DGPE   D3B14450  10.219  32.496  18.681 -0.0271  0.0516 -0.0024
 1269DGPE   C4B14451   9.876  32.504  19.051  0.3767 -0.2871  0.0165
 1269DGPE   C5B14452   9.638  32.223  19.267 -0.0026 -0.3320  0.1180
 1270DGPE   NH314453   9.343  23.822  17.642 -0.0684  0.0393  0.0221
 1270DGPE   PO414454   9.355  24.312  17.731 -0.1172  0.0018  0.0777
 1270DGPE   GL114455   9.186  24.450  18.106  0.0264  0.0797  0.0245
 1270DGPE   GL214456   9.024  24.771  18.034 -0.0611 -0.1825 -0.1438
 1270DGPE   C1A14457   8.839  24.375  18.401 -0.0845  0.5156  0.1819
 1270DGPE   C2A14458   8.595  24.326  18.762  0.1050 -0.0053  0.0940
 1270DGPE   D3A14459   8.219  24.434  18.940  0.0664 -0.0705  0.0668
 1270DGPE   C4A14460   8.030  24.756  18.799  0.2004  0.2932 -0.3193
 1270DGPE   C5A14461   8.091  25.182  18.815  0.0805 -0.2075 -0.1675
 1270DGPE   C1B14462   8.935  24.868  18.466  0.1335 -0.2220  0.1923
 1270DGPE   C2B14463   8.973  24.810  18.848  0.0786  0.1340 -0.0373
 1270DGPE   D3B14464   8.896  24.919  19.203 -0.0733  0.3206 -0.0471
 1270DGPE   C4B14465   8.648  25.304  19.308 -0.0600  0.1077 -0.1258
 1270DGPE   C5B14466   8.304  25.439  19.548  0.0810  0.1628 -0.4920
 1271DGPE   NH314467  21.483  21.635   6.705 -0.0883  0.0457 -0.1518
 1271DGPE   PO414468  21.547  21.957   6.343  0.2820  0.2976 -0.0025
 1271DGPE   GL114469  21.965  21.824   6.549  0.1096 -0.1362 -0.4695
 1271DGPE   GL214470  22.258  21.971   6.349 -0.0180  0.1131 -0.0834
 1271DGPE   C1A14471  22.143  21.943   6.913 -0.1901 -0.0073 -0.3289
 1271DGPE   C2A14472  22.557  22.062   7.130  0.2475 -0.0896 -0.2272
 1271DGPE   D3A14473  22.922  22.145   7.306 -0.1745  0.0483 -0.3406
 1271DGPE   C4A14474  23.185  22.174   7.734 -0.1001  0.0734 -0.2223
 1271DGPE   C5A14475  23.304  22.237   8.223 -0.3310  0.1253 -0.3962
 1271DGPE   C1B14476  22.563  22.039   6.629  0.0089  0.0334 -0.1582
 1271DGPE   C2B14477  22.993  22.184   6.820 -0.2137  0.2147  0.2016
 1271DGPE   D3B14478  23.424  22.316   6.953  0.2062 -0.3394 -0.0054
 1271DGPE   C4B14479  23.768  22.182   6.921  0.0520 -0.0198  0.0624
 1271DGPE   C5B14480  23.896  21.694   6.707  0.1648 -0.2168  0.1641
 1272DGPE   NH314481  12.563  33.991  15.078  0.0036 -0.0937  0.3340
 1272DGPE   PO414482  12.381  34.378  15.163  0.2280 -0.0532 -0.2358
 1272DGPE   GL114483  12.712  34.552  15.270  0.1224 -0.0475  0.1981
 1272DGPE   GL214484  12.894  34.355  15.135  0.0879 -0.0439 -0.1226
 1272DGPE   C1A14485  12.984  34.856  15.485 -0.1685 -0.0800  0.1290
 1272DGPE   C2A14486  13.221  34.936  15.781  0.1718 -0.1147  0.2436
 1272DGPE   D3A14487  13.440  35.360  15.914 -0.1251  0.2593 -0.0398
 1272DGPE   C4A14488  13.111   0.216  16.125 -0.1305 -0.1918  0.3878
 1272DGPE   C5A14489  13.180   0.518  16.325  0.1985  0.2560  0.0267
 1272DGPE   C1B14490  13.308  34.475  15.488  0.0742  0.0909 -0.2639
 1272DGPE   C2B14491  13.651  34.751  15.612 -0.1361  0.4213 -0.1817
 1272DGPE   D3B14492  13.900  35.210  15.742 -0.1787 -0.2628  0.0668
 1272DGPE   C4B14493  14.280  35.252  15.615 -0.3249 -0.2329  0.0086
 1272DGPE   C5B14494  14.643   0.031  15.880  0.2096  0.1870  0.1439
 1273DGPE   NH314495  29.407  25.625   1.666  0.0188 -0.1051  0.1348
 1273DGPE   PO414496  29.404  25.874   2.067 -0.0361  0.3508 -0.0664
 1273DGPE   GL114497  29.419  25.424   2.206 -0.0400  0.0619  0.0773
 1273DGPE   GL214498  29.567  25.249   1.985 -0.0950  0.0606  0.1875
 1273DGPE   C1A14499  29.472  25.045   2.456 -0.0141 -0.0971 -0.1609
 1273DGPE   C2A14500  29.457  24.719   2.740 -0.1595  0.3069  0.1037
 1273DGPE   D3A14501  29.488  24.338   3.057 -0.2047  0.1705 -0.1590
 1273DGPE   C4A14502  29.314  24.021   3.119 -0.0577  0.2315 -0.1915
 1273DGPE   C5A14503  29.286  23.632   3.353  0.3158 -0.0434  0.1255
 1273DGPE   C1B14504  29.920  25.324   2.355  0.1369  0.1291 -0.1201
 1273DGPE   C2B14505  30.310  25.203   2.362 -0.4295 -0.2163 -0.0424
 1273DGPE   D3B14506  30.602  24.949   2.675  0.1123  0.0833 -0.0234
 1273DGPE   C4B14507  30.936  24.827   2.752  0.0509  0.2377 -0.1539
 1273DGPE   C5B14508  31.293  24.775   3.096  0.3126  0.0874  0.0378
 1274DGPE   NH314509  33.597  12.247   1.540  0.1218  0.2302  0.0595
 1274DGPE   PO414510  33.573  11.933   1.702  0.0420  0.3110 -0.1020
 1274DGPE   GL114511  33.507  12.120   2.086  0.1978  0.0592  0.0472
 1274DGPE   GL214512  33.570  11.776   2.245 -0.0364  0.2561  0.0339
 1274DGPE   C1A14513  33.234  12.240   2.382 -0.1723  0.0727  0.0251
 1274DGPE   C2A14514  32.943  12.268   2.575 -0.1562  0.1364  0.0639
 1274DGPE   D3A14515  32.746  12.570   2.845  0.0650 -0.2813  0.0302
 1274DGPE   C4A14516  32.564  13.064   2.977  0.0232  0.0014  0.4438
 1274DGPE   C5A14517  32.706  13.350   2.698 -0.3092 -0.0007  0.3002
 1274DGPE   C1B14518  33.375  11.803   2.600 -0.3531 -0.1735  0.1389
 1274DGPE   C2B14519  33.143  11.958   2.926  0.0710 -0.0186  0.2615
 1274DGPE   D3B14520  33.101  11.878   3.330 -0.1045  0.0443  0.0326
 1274DGPE   C4B14521  33.465  11.720   3.626  0.2994  0.0021  0.2818
 1274DGPE   C5B14522  33.691  11.360   3.554  0.1131  0.0583  0.3300
 1275DGPE   NH314523   4.170  30.071  13.779 -0.0949 -0.0872 -0.3020
 1275DGPE   PO414524   4.096  30.512  13.907  0.5437  0.0887 -0.0009
 1275DGPE   GL114525   3.923  30.242  14.300  0.0435  0.1541 -0.2744
 1275DGPE   GL214526   3.950  30.615  14.451  0.1757  0.2093  0.1163
 1275DGPE   C1A14527   3.666  30.083  14.581 -0.3169  0.1145 -0.0114
 1275DGPE   C2A14528   3.459  29.995  14.971 -0.1435  0.0621 -0.0434
 1275DGPE   D3A14529   3.434  29.656  15.290 -0.2234  0.0529 -0.0655
 1275DGPE   C4A14530   3.158  29.285  15.303 -0.1519 -0.4028 -0.0428
 1275DGPE   C5A14531   3.329  28.857  15.200  0.0960 -0.1788 -0.2607
 1275DGPE   C1B14532   3.894  30.814  14.837  0.0685 -0.4801  0.0208
 1275DGPE   C2B14533   3.623  30.911  15.129  0.3295 -0.2059  0.0638
 1275DGPE   D3B14534   3.709  30.959  15.537  0.0676 -0.2455  0.3635
 1275DGPE   C4B14535   3.594  30.566  15.621  0.4074 -0.0757 -0.1321
 1275DGPE   C5B14536   3.419  29.994  15.624 -0.1836  0.0596  0.2529
 1276DGPE   NH314537  10.668  21.100  17.031  0.0490  0.2212 -0.0421
 1276DGPE   PO414538  10.746  21.407  17.285 -0.1593  0.1253 -0.1308
 1276DGPE   GL114539  10.853  21.112  17.593  0.1029  0.2739  0.0784
 1276DGPE   GL214540  10.992  20.825  17.561 -0.0741  0.2034 -0.3204
 1276DGPE   C1A14541  10.714  20.868  18.005  0.0079  0.0108 -0.1336
 1276DGPE   C2A14542  10.766  20.532  18.389 -0.0252  0.0971  0.1839
 1276DGPE   D3A14543  10.606  20.544  18.804  0.2918 -0.0170  0.1095
 1276DGPE   C4A14544  10.803  20.297  19.061 -0.0102  0.1190  0.0544
 1276DGPE   C5A14545  10.994  20.050  19.246  0.3018 -0.1774 -0.0082
 1276DGPE   C1B14546  10.874  20.468  17.667 -0.1202 -0.0459 -0.3241
 1276DGPE   C2B14547  10.745  20.146  17.551  0.0760  0.0328  0.2221
 1276DGPE   D3B14548  10.559  19.782  17.881 -0.2691 -0.3308  0.0906
 1276DGPE   C4B14549  10.355  19.516  17.830  0.1042  0.2615 -0.0282
 1276DGPE   C5B14550  10.314  19.184  17.495  0.0861 -0.1269 -0.0901
 1277DAPE   NH314551   6.202   7.290  12.596  0.0698  0.2731  0.1615
 1277DAPE   PO414552   6.258   6.801  12.692 -0.1699 -0.0257  0.2021
 1277DAPE   GL114553   5.957   6.418  12.744  0.0128  0.3316 -0.0043
 1277DAPE   GL214554   5.785   6.282  12.495  0.1943 -0.0029  0.3313
 1277DAPE   D1A14555   5.736   6.154  13.058  0.3339  0.3476  0.1227
 1277DAPE   D2A14556   5.414   6.232  13.281  0.0255 -0.2876 -0.0216
 1277DAPE   D3A14557   5.603   6.395  13.746 -0.1409  0.0755  0.4100
 1277DAPE   D4A14558   5.535   6.860  13.908  0.0739  0.0699 -0.0913
 1277DAPE   C5A14559   5.703   7.115  14.171  0.0213 -0.0302 -0.1052
 1277DAPE   D1B14560   5.467   6.448  12.782 -0.1431  0.1291  0.0619
 1277DAPE   D2B14561   5.151   6.369  12.526  0.3959 -0.2697  0.0031
 1277DAPE   D3B14562   4.965   6.237  12.179 -0.2677  0.1867 -0.2000
 1277DAPE   D4B14563   4.969   5.876  12.356  0.1774  0.4864  0.0002
 1277DAPE   C5B14564   5.305   5.620  12.131  0.6679  0.1196  0.0746
 1278DAPE   NH314565  14.418   7.155  14.079  0.1153 -0.1314  0.1884
 1278DAPE   PO414566  14.372   7.603  14.199 -0.2071 -0.0955 -0.0533
 1278DAPE   GL114567  14.658   7.975  14.316 -0.2121  0.1938  0.0627
 1278DAPE   GL214568  14.735   7.743  14.564  0.0675 -0.0201  0.1167
 1278DAPE   D1A14569  14.612   8.323  14.593  0.5166  0.1642 -0.3012
 1278DAPE   D2A14570  14.515   8.144  14.933  0.0975 -0.1084  0.1572
 1278DAPE   D3A14571  14.084   8.113  14.674  0.0399 -0.2557  0.0613
 1278DAPE   D4A14572  14.229   7.618  14.758 -0.0169 -0.0021  0.3148
 1278DAPE   C5A14573  14.562   7.650  15.059 -0.0115 -0.2736 -0.2638
 1278DAPE   D1B14574  15.021   7.871  14.904  0.0485 -0.0378  0.0908
 1278DAPE   D2B14575  14.853   8.180  15.286 -0.2956 -0.2400  0.0014
 1278DAPE   D3B14576  14.759   8.117  15.807  0.0099  0.2390  0.2875
 1278DAPE   D4B14577  15.116   7.991  15.646  0.0063  0.0002  0.0246
 1278DAPE   C5B14578  15.487   7.944  15.963 -0.2630 -0.3691  0.0143
 1279DAPE   NH314579  12.309   6.668  14.542 -0.2285 -0.0458 -0.4271
 1279DAPE   PO414580  12.617   6.822  14.639 -0.2038 -0.0720  0.2701
 1279DAPE   GL114581  12.840   6.653  15.067  0.1369  0.1094  0.0843
 1279DAPE   GL214582  13.094   6.892  15.030 -0.0018 -0.1338  0.1626
 1279DAPE   D1A14583  12.988   6.691  15.452  0.0179  0.1628 -0.0596
 1279DAPE   D2A14584  13.150   6.540  15.762 -0.0542 -0.3576 -0.0338
 1279DAPE   D3A14585  13.200   7.023  15.793  0.1965  0.2221  0.0376
 1279DAPE   D4A14586  13.456   6.767  16.160 -0.1944 -0.0442 -0.3684
 1279DAPE   C5A14587  13.374   6.925  16.595 -0.0064  0.2397  0.0372
 1279DAPE   D1B14588  13.426   7.123  15.057  0.2638  0.1280  0.0878
 1279DAPE   D2B14589  13.478   6.855  15.413  0.0336 -0.2355  0.2460
 1279DAPE   D3B14590  13.873   6.693  15.461  0.0852 -0.0504  0.0165
 1279DAPE   D4B14591  13.786   6.612  15.803 -0.0113  0.0863  0.1785
 1279DAPE   C5B14592  13.582   6.263  15.919  0.0596 -0.1229  0.2285
 1280DAPE   NH314593  23.747  12.914   2.605  0.1055 -0.1657  0.1288
 1280DAPE   PO414594  24.019  13.233   2.457 -0.2752  0.1042  0.1005
 1280DAPE   GL114595  24.134  13.412   2.783 -0.1512  0.1213 -0.0987
 1280DAPE   GL214596  24.372  13.576   2.723 -0.0657 -0.2738 -0.0336
 1280DAPE   D1A14597  24.357  13.467   3.212 -0.1508 -0.1497  0.2276
 1280DAPE   D2A14598  24.423  13.687   3.550  0.2162 -0.0383  0.0957
 1280DAPE   D3A14599  24.363  13.416   3.777  0.1380 -0.1659  0.1518
 1280DAPE   D4A14600  24.381  13.662   4.060  0.1098 -0.2299 -0.0155
 1280DAPE   C5A14601  24.644  14.010   3.972  0.1245  0.4553 -0.1490
 1280DAPE   D1B14602  24.033  13.885   2.578  0.0318 -0.1716  0.1025
 1280DAPE   D2B14603  23.770  13.800   2.941  0.0189 -0.2821  0.0834
 1280DAPE   D3B14604  23.492  14.104   2.780 -0.0935 -0.1424 -0.1786
 1280DAPE   D4B14605  23.243  14.477   2.930 -0.1937  0.0460 -0.1250
 1280DAPE   C5B14606  23.187  14.663   3.384 -0.1930 -0.0459 -0.0867
 1281DAPE   NH314607  20.864  17.448   5.868 -0.2323  0.0440  0.0368
 1281DAPE   PO414608  21.148  17.163   5.541  0.2717 -0.0938  0.2061
 1281DAPE   GL114609  21.353  17.089   5.925 -0.0081  0.2070 -0.3772
 1281DAPE   GL214610  21.686  17.142   5.765  0.2761  0.0897 -0.2416
 1281DAPE   D1A14611  21.705  17.007   6.256 -0.0928 -0.4659  0.1245
 1281DAPE   D2A14612  22.088  16.798   6.562  0.2304 -0.1447  0.1177
 1281DAPE   D3A14613  22.235  17.031   6.897  0.1428  0.0627  0.2773
 1281DAPE   D4A14614  22.551  17.297   6.862  0.5366 -0.2530 -0.0822
 1281DAPE   C5A14615  22.458  17.697   6.583 -0.0006  0.0062 -0.0559
 1281DAPE   D1B14616  22.127  17.302   5.936  0.0093  0.1819  0.3032
 1281DAPE   D2B14617  22.232  17.282   6.377 -0.0802  0.4706 -0.0584
 1281DAPE   D3B14618  21.998  17.472   6.661  0.2784 -0.0824 -0.1508
 1281DAPE   D4B14619  21.748  17.143   6.763 -0.1974 -0.2460 -0.0333
 1281DAPE   C5B14620  21.684  17.120   7.240 -0.3279  0.2014 -0.1654
 1282DAPE   NH314621  21.253  24.630   6.581  0.0168  0.4188 -0.2461
 1282DAPE   PO414622  21.255  24.493   6.105 -0.1804  0.5233 -0.2438
 1282DAPE   GL114623  21.707  24.588   6.020  0.1675  0.1627  0.0562
 1282DAPE   GL214624  21.900  24.427   5.787 -0.2183 -0.0661  0.0591
 1282DAPE   D1A14625  21.964  24.931   6.026  0.1177  0.1839  0.1116
 1282DAPE   D2A14626  22.353  25.040   6.151  0.4390 -0.2735  0.0108
 1282DAPE   D3A14627  22.215  25.012   6.608  0.1658  0.0774 -0.0234
 1282DAPE   D4A14628  22.459  25.247   6.828 -0.0064  0.2468 -0.1383
 1282DAPE   C5A14629  22.546  25.400   7.091  0.4021 -0.1190 -0.1449
 1282DAPE   D1B14630  22.146  24.687   5.547 -0.0178 -0.1139  0.3070
 1282DAPE   D2B14631  22.457  24.754   5.112  0.0816 -0.0155  0.1618
 1282DAPE   D3B14632  22.801  24.458   4.998 -0.1616  0.0381  0.0585
 1282DAPE   D4B14633  23.125  24.300   5.181 -0.0206 -0.1943 -0.1232
 1282DAPE   C5B14634  23.079  24.388   5.552  0.0458  0.0705  0.3225
 1283DAPE   NH314635  21.499   8.181   8.989  0.0157 -0.1850  0.2577
 1283DAPE   PO414636  21.278   8.060   9.377 -0.0010  0.4006 -0.0092
 1283DAPE   GL114637  21.501   7.837   9.502  0.0242 -0.0011 -0.1610
 1283DAPE   GL214638  21.490   7.459   9.588  0.1344  0.1767  0.2506
 1283DAPE   D1A14639  21.944   7.695   9.668 -0.0266 -0.1752 -0.1903
 1283DAPE   D2A14640  22.055   7.328   9.773  0.1389 -0.0455  0.1842
 1283DAPE   D3A14641  22.489   7.524   9.814 -0.2201 -0.0992  0.2289
 1283DAPE   D4A14642  22.803   7.588   9.477 -0.0037 -0.3673  0.2144
 1283DAPE   C5A14643  23.161   7.408   9.518 -0.0731  0.0642  0.3614
 1283DAPE   D1B14644  21.799   7.259   9.239  0.2029 -0.3929 -0.0684
 1283DAPE   D2B14645  22.280   7.504   9.325  0.3066 -0.1351  0.0156
 1283DAPE   D3B14646  22.319   7.803   9.093  0.0810  0.0530  0.1442
 1283DAPE   D4B14647  22.669   7.585   8.950  0.2062  0.0793 -0.2607
 1283DAPE   C5B14648  23.123   7.641   8.928 -0.2461 -0.2963  0.0828
 1284DAPE   NH314649   1.936  13.193   4.066  0.2019  0.2421 -0.2710
 1284DAPE   PO414650   2.144  13.517   4.065 -0.0454  0.0105  0.0072
 1284DAPE   GL114651   1.793  13.665   4.181  0.0264  0.5341  0.0666
 1284DAPE   GL214652   1.757  13.732   3.818 -0.1694 -0.4754 -0.0074
 1284DAPE   D1A14653   1.534  13.887   4.575 -0.2725 -0.1613 -0.2561
 1284DAPE   D2A14654   1.246  14.186   4.363 -0.1006 -0.1221 -0.1088
 1284DAPE   D3A14655   1.077  13.978   4.605  0.0165 -0.1220 -0.1908
 1284DAPE   D4A14656   0.870  14.316   4.858  0.0789 -0.1761  0.0008
 1284DAPE   C5A14657   1.013  14.483   5.294  0.1562 -0.1102 -0.0503
 1284DAPE   D1B14658   1.361  13.878   3.978  0.0629  0.3777 -0.1335
 1284DAPE   D2B14659   1.166  13.595   4.278  0.0757  0.1876 -0.0044
 1284DAPE   D3B14660   1.202  13.534   4.705  0.3586  0.1183 -0.2215
 1284DAPE   D4B14661   0.821  13.666   4.892  0.0147  0.2273 -0.0815
 1284DAPE   C5B14662   0.681  13.518   5.325  0.1770 -0.1914  0.1445
 1285DAPE   NH314663   7.143  22.248  12.039 -0.1812 -0.2092  0.4821
 1285DAPE   PO414664   7.112  21.829  12.007 -0.0702  0.2634  0.1299
 1285DAPE   GL114665   6.953  21.954  11.669 -0.0726  0.0518  0.1000
 1285DAPE   GL214666   6.927  21.838  11.382  0.1529  0.0173 -0.4577
 1285DAPE   D1A14667   6.824  22.382  11.533 -0.0975  0.0025  0.0458
 1285DAPE   D2A14668   6.409  22.531  11.660  0.2677 -0.0050 -0.1845
 1285DAPE   D3A14669   6.280  22.130  11.514  0.1308  0.1093 -0.1101
 1285DAPE   D4A14670   5.934  21.993  11.395 -0.2908 -0.3096  0.1039
 1285DAPE   C5A14671   5.475  21.794  11.332  0.1386 -0.0280  0.2386
 1285DAPE   D1B14672   7.067  22.183  11.132  0.1688  0.0235  0.1771
 1285DAPE   D2B14673   6.616  22.522  11.074  0.2558  0.2873  0.1946
 1285DAPE   D3B14674   6.745  22.869  11.353  0.2130 -0.1567  0.1824
 1285DAPE   D4B14675   6.200  22.926  11.368  0.0097 -0.2914 -0.0780
 1285DAPE   C5B14676   6.033  22.487  11.231 -0.1142  0.1587  0.1207
 1286DAPE   NH314677  34.399  23.032   1.377  0.1811  0.0284  0.0005
 1286DAPE   PO414678  34.165  22.776   1.111 -0.0497  0.1008 -0.2979
 1286DAPE   GL114679  33.974  22.869   1.607 -0.2685  0.0234  0.0712
 1286DAPE   GL214680  33.784  23.096   1.687  0.0280 -0.0991  0.0589
 1286DAPE   D1A14681  33.728  22.593   1.717 -0.1859  0.1580 -0.1083
 1286DAPE   D2A14682  33.734  22.547   2.107 -0.1738 -0.1116 -0.3531
 1286DAPE   D3A14683  33.387  22.884   2.061 -0.1803  0.0871 -0.2324
 1286DAPE   D4A14684  33.226  22.619   2.356 -0.2740 -0.3306  0.1339
 1286DAPE   C5A14685  32.773  22.726   2.556  0.1782 -0.0746  0.0413
 1286DAPE   D1B14686  33.336  23.088   1.499  0.2280 -0.0774 -0.1796
 1286DAPE   D2B14687  33.332  22.649   1.375 -0.3759  0.3227 -0.0003
 1286DAPE   D3B14688  33.206  22.551   1.727  0.0991 -0.3367 -0.2527
 1286DAPE   D4B14689  32.909  22.572   2.024  0.2639 -0.4610  0.0688
 1286DAPE   C5B14690  32.515  22.768   1.880  0.1788  0.0743  0.2119
 1287DAPE   NH314691  16.603   0.052  10.203  0.0115 -0.0208 -0.0392
 1287DAPE   PO414692  16.609  35.018  10.020 -0.1908  0.3318  0.1315
 1287DAPE   GL114693  16.909  34.991  10.330  0.0840  0.2563  0.0074
 1287DAPE   GL214694  16.723  34.977  10.612 -0.3523  0.0557 -0.2798
 1287DAPE   D1A14695  17.266  34.749  10.368  0.1570 -0.0565  0.0767
 1287DAPE   D2A14696  17.786  34.757  10.363  0.0331  0.3257 -0.4069
 1287DAPE   D3A14697  17.833  35.253  10.449 -0.0330  0.2828  0.3247
 1287DAPE   D4A14698  18.203   0.081  10.757 -0.2839  0.2608 -0.0354
 1287DAPE   C5A14699  18.534  35.224  10.994  0.1710  0.0636  0.0467
 1287DAPE   D1B14700  16.694  34.794  10.967 -0.0537  0.0979 -0.1738
 1287DAPE   D2B14701  17.125  34.608  10.944 -0.0320 -0.2564 -0.1180
 1287DAPE   D3B14702  17.280  34.743  11.309  0.1526  0.1011 -0.0379
 1287DAPE   D4B14703  17.048  34.308  11.309  0.0456  0.0808  0.0470
 1287DAPE   C5B14704  16.752  34.173  10.961  0.0644  0.2462 -0.0620
 1288DAPE   NH314705  25.447   4.043   6.248  0.0209  0.1382 -0.0751
 1288DAPE   PO414706  25.832   3.673   6.173  0.2031 -0.1051 -0.0367
 1288DAPE   GL114707  25.822   3.952   6.518  0.0572  0.0582 -0.0115
 1288DAPE   GL214708  25.931   3.804   6.865  0.1362  0.0972 -0.2436
 1288DAPE   D1A14709  25.956   4.271   6.838 -0.3434  0.1559  0.0038
 1288DAPE   D2A14710  26.214   4.308   6.440  0.1620  0.3187 -0.0773
 1288DAPE   D3A14711  26.084   4.810   6.234  0.3436  0.3450  0.1612
 1288DAPE   D4A14712  25.700   5.016   6.156  0.2150  0.0718  0.0524
 1288DAPE   C5A14713  25.828   5.307   6.465  0.1747  0.0444  0.0750
 1288DAPE   D1B14714  26.088   3.958   7.215 -0.2585 -0.2839 -0.1987
 1288DAPE   D2B14715  26.241   4.272   7.394  0.0375 -0.1203 -0.1256
 1288DAPE   D3B14716  25.896   4.125   7.649  0.2546  0.3169 -0.0127
 1288DAPE   D4B14717  26.025   4.553   7.772  0.2233 -0.2249  0.0133
 1288DAPE   C5B14718  26.408   4.726   7.842  0.0115  0.2087  0.0333
 1289DAPE   NH314719  22.442  26.411   5.477  0.0866  0.1826 -0.3629
 1289DAPE   PO414720  22.520  25.972   5.423 -0.1982  0.1550  0.0623
 1289DAPE   GL114721  22.728  25.819   5.655  0.0086 -0.0353 -0.0489
 1289DAPE   GL214722  22.567  25.539   5.649 -0.2156 -0.0129  0.0393
 1289DAPE   D1A14723  23.013  25.635   5.944 -0.0371  0.1871  0.0369
 1289DAPE   D2A14724  22.757  25.742   6.196  0.1441 -0.3280  0.3260
 1289DAPE   D3A14725  22.722  25.335   6.192  0.2413  0.1437 -0.0741
 1289DAPE   D4A14726  22.745  25.114   6.430  0.0946 -0.0203  0.2286
 1289DAPE   C5A14727  22.959  25.162   6.845 -0.1547  0.1971  0.0370
 1289DAPE   D1B14728  22.287  25.594   5.969  0.2603 -0.0977  0.0125
 1289DAPE   D2B14729  22.131  25.194   5.692  0.2567 -0.1478  0.2451
 1289DAPE   D3B14730  22.518  25.020   5.607  0.1038  0.1023 -0.0341
 1289DAPE   D4B14731  22.719  24.795   5.961  0.3304  0.1496 -0.3233
 1289DAPE   C5B14732  23.136  24.647   6.007 -0.1724 -0.0152 -0.2889
 1290DAPE   NH314733  16.037  25.109  16.628  0.0402  0.3186 -0.1539
 1290DAPE   PO414734  15.533  25.117  16.761  0.0913  0.0307 -0.1722
 1290DAPE   GL114735  15.701  25.071  17.125 -0.0949 -0.1255  0.3830
 1290DAPE   GL214736  15.943  25.255  17.131  0.3943 -0.3780  0.2411
 1290DAPE   D1A14737  15.794  24.838  17.543  0.2414 -0.0959  0.0052
 1290DAPE   D2A14738  16.087  25.095  17.568  0.1141  0.2234 -0.1845
 1290DAPE   D3A14739  15.978  24.886  18.014 -0.0976 -0.0618 -0.2591
 1290DAPE   D4A14740  16.450  24.879  17.973  0.3487  0.0679 -0.1486
 1290DAPE   C5A14741  16.618  25.230  18.293  0.2867  0.0426 -0.0300
 1290DAPE   D1B14742  16.257  25.492  17.297  0.1213 -0.0392  0.3355
 1290DAPE   D2B14743  16.425  25.418  17.700 -0.1652 -0.1558 -0.0344
 1290DAPE   D3B14744  16.247  25.325  17.985  0.0592  0.0137 -0.2959
 1290DAPE   D4B14745  16.121  25.427  18.480  0.0008  0.3610 -0.0778
 1290DAPE   C5B14746  16.488  25.751  18.517  0.1260  0.0830  0.1293
 1291DAPE   NH314747   2.592  11.137   4.008 -0.2217 -0.1913  0.1145
 1291DAPE   PO414748   2.635  11.265   4.478  0.0256  0.0935  0.1142
 1291DAPE   GL114749   2.216  11.389   4.627  0.1891 -0.2558 -0.1651
 1291DAPE   GL214750   2.078  11.370   4.442 -0.0624 -0.0512  0.1835
 1291DAPE   D1A14751   1.800  11.216   4.760 -0.1329 -0.0923 -0.1979
 1291DAPE   D2A14752   1.785  10.801   4.963 -0.2312  0.1310  0.1127
 1291DAPE   D3A14753   2.153  11.014   5.213 -0.0256  0.2983 -0.2848
 1291DAPE   D4A14754   2.164  11.132   5.727 -0.0939 -0.1096 -0.0103
 1291DAPE   C5A14755   2.205  11.583   6.011 -0.1747 -0.4232 -0.0285
 1291DAPE   D1B14756   1.718  11.568   4.268  0.1546 -0.2856  0.3354
 1291DAPE   D2B14757   1.424  11.136   4.214  0.3201  0.1050  0.0773
 1291DAPE   D3B14758   1.077  11.013   3.950  0.2893 -0.3705  0.3719
 1291DAPE   D4B14759   0.843  11.311   3.996  0.3315 -0.1739  0.0721
 1291DAPE   C5B14760   0.820  11.440   3.601 -0.1873 -0.3056 -0.1925
 1292DAPE   NH314761  31.066   9.948   1.038 -0.1657 -0.0948 -0.1835
 1292DAPE   PO414762  30.979   9.614   1.317 -0.2273 -0.2706 -0.3759
 1292DAPE   GL114763  31.216   9.830   1.678  0.1464  0.0065 -0.1160
 1292DAPE   GL214764  31.201  10.165   1.573 -0.0584  0.2106 -0.0779
 1292DAPE   D1A14765  31.412  10.028   2.033  0.0758  0.2013 -0.0913
 1292DAPE   D2A14766  31.244   9.867   2.394 -0.1214  0.0445  0.0561
 1292DAPE   D3A14767  31.130   9.379   2.386  0.3227  0.0427  0.0034
 1292DAPE   D4A14768  30.984   9.544   2.808  0.2970 -0.2917 -0.1738
 1292DAPE   C5A14769  31.147   9.533   3.196 -0.0288  0.3086 -0.0817
 1292DAPE   D1B14770  31.283  10.484   1.872 -0.1459 -0.1995  0.0015
 1292DAPE   D2B14771  30.936  10.422   2.091  0.2943 -0.0121 -0.1295
 1292DAPE   D3B14772  31.016  10.305   2.525 -0.0362  0.1385 -0.1972
 1292DAPE   D4B14773  30.674  10.061   2.712  0.0609 -0.1487  0.2478
 1292DAPE   C5B14774  30.261  10.095   2.962 -0.0227 -0.1678 -0.0667
 1293DAPE   NH314775   5.026  16.848   8.084  0.3800 -0.3227  0.1132
 1293DAPE   PO414776   5.257  16.499   7.838 -0.1816  0.1581  0.0869
 1293DAPE   GL114777   5.014  16.403   8.230  0.0456  0.2204  0.0612
 1293DAPE   GL214778   4.683  16.398   8.221  0.0885  0.2392 -0.0946
 1293DAPE   D1A14779   4.864  16.329   8.709  0.1837  0.3372 -0.3190
 1293DAPE   D2A14780   4.716  16.697   8.653 -0.1212 -0.1808 -0.0577
 1293DAPE   D3A14781   4.645  16.671   9.046 -0.1137  0.1320 -0.4060
 1293DAPE   D4A14782   5.039  16.871   9.047  0.0466  0.3343 -0.1172
 1293DAPE   C5A14783   5.325  16.761   9.478 -0.4314  0.0510 -0.0039
 1293DAPE   D1B14784   4.394  16.338   8.503 -0.1403  0.3727 -0.5407
 1293DAPE   D2B14785   4.333  16.347   8.864 -0.0483 -0.1619 -0.0238
 1293DAPE   D3B14786   4.076  16.666   8.767 -0.1899 -0.0177 -0.1745
 1293DAPE   D4B14787   3.767  16.849   8.988  0.0079  0.1320  0.0321
 1293DAPE   C5B14788   3.811  17.152   9.222  0.3354  0.4338 -0.0138
 1294DAPE   NH314789   6.403  18.956   8.866  0.2667  0.0651  0.1188
 1294DAPE   PO414790   6.431  18.887   9.202  0.0074  0.5119 -0.0662
 1294DAPE   GL114791   6.055  18.766   9.471 -0.0913 -0.2258 -0.0293
 1294DAPE   GL214792   6.033  18.509   9.754 -0.4235  0.0052  0.0946
 1294DAPE   D1A14793   5.723  18.834   9.450 -0.0534  0.2600  0.2551
 1294DAPE   D2A14794   5.514  19.133   9.726  0.1680 -0.1506  0.2236
 1294DAPE   D3A14795   5.378  19.137  10.092  0.2013  0.1124 -0.0975
 1294DAPE   D4A14796   5.153  19.423   9.848 -0.0551 -0.0585 -0.3995
 1294DAPE   C5A14797   4.715  19.363   9.629  0.0090 -0.1948 -0.1196
 1294DAPE   D1B14798   5.778  18.773  10.032 -0.1676  0.1070  0.0833
 1294DAPE   D2B14799   5.842  18.534  10.423  0.1124 -0.1414 -0.2631
 1294DAPE   D3B14800   5.357  18.535  10.198  0.1387  0.1439  0.1001
 1294DAPE   D4B14801   5.051  18.708  10.346 -0.0754  0.0410  0.0292
 1294DAPE   C5B14802   4.648  18.436  10.195  0.0013 -0.1975 -0.3813
 1295DAPE   NH314803  17.087  24.981  14.716 -0.1174 -0.2598  0.1430
 1295DAPE   PO414804  16.587  25.204  14.856 -0.1047  0.3249 -0.1036
 1295DAPE   GL114805  16.776  25.585  14.957  0.3520 -0.0656 -0.0350
 1295DAPE   GL214806  17.117  25.406  15.012 -0.0897 -0.0229 -0.1623
 1295DAPE   D1A14807  16.927  26.039  15.116 -0.4259  0.0678  0.1855
 1295DAPE   D2A14808  16.487  25.970  15.057 -0.2072  0.0984  0.0236
 1295DAPE   D3A14809  16.547  25.959  14.623  0.1226 -0.1647 -0.2454
 1295DAPE   D4A14810  16.845  26.327  14.661 -0.3231 -0.1019 -0.3607
 1295DAPE   C5A14811  16.609  26.537  14.926  0.0197  0.0986  0.0819
 1295DAPE   D1B14812  17.181  25.655  15.272 -0.1604  0.0131 -0.0075
 1295DAPE   D2B14813  16.730  25.743  15.458  0.1192  0.3278 -0.4866
 1295DAPE   D3B14814  16.635  26.121  15.617  0.3240 -0.0583  0.2197
 1295DAPE   D4B14815  16.979  26.154  15.689  0.0784 -0.2734 -0.0646
 1295DAPE   C5B14816  17.359  26.135  15.626  0.1108  0.2175 -0.0073
 1296DAPE   NH314817  24.372  16.906   1.230 -0.1514  0.0043 -0.1606
 1296DAPE   PO414818  24.305  16.469   1.028  0.1871  0.0793 -0.4487
 1296DAPE   GL114819  24.771  16.461   1.068  0.0845 -0.1509 -0.0119
 1296DAPE   GL214820  24.917  16.765   1.138 -0.2559  0.0162  0.4171
 1296DAPE   D1A14821  25.314  16.505   1.070 -0.1453  0.0522  0.1267
 1296DAPE   D2A14822  25.694  16.671   1.150  0.1566  0.0543 -0.1240
 1296DAPE   D3A14823  25.774  16.870   1.538 -0.1283 -0.4709 -0.0710
 1296DAPE   D4A14824  25.637  16.701   1.956  0.0502 -0.1970  0.0501
 1296DAPE   C5A14825  25.858  16.756   2.272 -0.0713  0.2286 -0.3820
 1296DAPE   D1B14826  25.201  16.968   1.356  0.1904  0.2039  0.2510
 1296DAPE   D2B14827  25.239  16.920   1.748  0.1806 -0.1744 -0.0476
 1296DAPE   D3B14828  25.388  17.259   2.042 -0.3638  0.0921 -0.2156
 1296DAPE   D4B14829  25.629  17.246   2.361  0.0638  0.0144 -0.0551
 1296DAPE   C5B14830  25.582  17.052   2.738  0.1301 -0.2710 -0.1425
 1297DAPE   NH314831  29.481  15.719   0.256  0.1137  0.1810  0.2214
 1297DAPE   PO414832  29.043  15.454   0.230 -0.0111 -0.0873  0.0684
 1297DAPE   GL114833  29.271  15.135   0.522 -0.0268 -0.2673 -0.1983
 1297DAPE   GL214834  29.570  15.253   0.441 -0.0009 -0.1191 -0.0252
 1297DAPE   D1A14835  29.567  14.888   0.816 -0.4258  0.0140 -0.0575
 1297DAPE   D2A14836  29.504  14.897   1.295  0.0565  0.0576 -0.1628
 1297DAPE   D3A14837  29.166  15.043   1.383 -0.2190 -0.1463 -0.2833
 1297DAPE   D4A14838  29.203  15.246   1.819 -0.2118  0.0997 -0.3458
 1297DAPE   C5A14839  28.890  15.268   2.115  0.2318  0.2429 -0.0240
 1297DAPE   D1B14840  29.874  15.215   0.742  0.0418  0.0311  0.1323
 1297DAPE   D2B14841  30.097  15.465   0.868  0.1454  0.2139 -0.0313
 1297DAPE   D3B14842  30.336  15.414   1.175  0.0327 -0.1354 -0.3230
 1297DAPE   D4B14843  29.933  15.222   1.316  0.2293 -0.1471 -0.0436
 1297DAPE   C5B14844  29.733  15.157   1.733  0.3306  0.2738  0.0332
 1298DAPE   NH314845  25.248   2.019   6.815  0.3731 -0.2810 -0.0787
 1298DAPE   PO414846  24.941   2.363   6.779 -0.0013  0.1626 -0.0636
 1298DAPE   GL114847  24.867   2.208   7.167  0.0727 -0.0822  0.1945
 1298DAPE   GL214848  24.918   2.392   7.442  0.0494  0.0390  0.0231
 1298DAPE   D1A14849  25.350   2.204   7.346 -0.0051  0.3342  0.0544
 1298DAPE   D2A14850  25.432   2.103   7.790 -0.1481  0.2391  0.1226
 1298DAPE   D3A14851  25.165   2.387   7.934 -0.0667  0.1120  0.1451
 1298DAPE   D4A14852  25.178   2.139   8.353  0.0667 -0.1754 -0.0049
 1298DAPE   C5A14853  25.090   2.264   8.770  0.0112  0.1030  0.0459
 1298DAPE   D1B14854  25.055   1.895   7.584 -0.3555  0.0833  0.1527
 1298DAPE   D2B14855  25.141   1.620   7.216  0.0203 -0.4107 -0.0697
 1298DAPE   D3B14856  25.085   1.341   7.546 -0.2664  0.0893  0.1756
 1298DAPE   D4B14857  25.354   0.897   7.421  0.2110 -0.1819 -0.2151
 1298DAPE   C5B14858  25.804   1.029   7.385  0.3272  0.0667  0.1572
 1299DAPE   NH314859  20.208  16.013   6.232  0.1415 -0.3235 -0.2154
 1299DAPE   PO414860  20.629  15.736   6.282  0.0981 -0.0171 -0.0127
 1299DAPE   GL114861  20.979  15.513   6.505  0.0566  0.0424  0.1666
 1299DAPE   GL214862  21.184  15.495   6.209  0.1378 -0.0673 -0.3345
 1299DAPE   D1A14863  21.334  15.417   6.739 -0.2726  0.0523 -0.1928
 1299DAPE   D2A14864  21.663  15.346   6.324 -0.0373 -0.2284  0.1038
 1299DAPE   D3A14865  22.043  15.214   6.520  0.0984 -0.0834 -0.1158
 1299DAPE   D4A14866  22.335  15.550   6.552 -0.3555 -0.0275  0.1545
 1299DAPE   C5A14867  22.710  15.451   6.715  0.0450 -0.1184  0.1876
 1299DAPE   D1B14868  21.435  15.820   6.456 -0.1591  0.2140 -0.1643
 1299DAPE   D2B14869  21.493  16.265   6.204  0.2489  0.1436  0.0710
 1299DAPE   D3B14870  21.787  16.232   6.384  0.2561  0.2694 -0.1947
 1299DAPE   D4B14871  21.614  16.560   6.606 -0.5005  0.0162  0.0410
 1299DAPE   C5B14872  21.843  16.695   6.996 -0.1421  0.1519 -0.0280
 1300DAPE   NH314873   5.064  10.688   9.198  0.1759  0.1539  0.1940
 1300DAPE   PO414874   4.576  10.561   9.296 -0.2087  0.2503  0.1634
 1300DAPE   GL114875   4.231  10.274   9.417  0.0072  0.1265 -0.1295
 1300DAPE   GL214876   4.063  10.305   9.592 -0.2604 -0.2542  0.4074
 1300DAPE   D1A14877   3.962  10.041   9.201 -0.0478 -0.2442  0.2906
 1300DAPE   D2A14878   3.941  10.433   8.961 -0.4585  0.0296  0.0777
 1300DAPE   D3A14879   3.747  10.691   9.279  0.1076  0.2336 -0.0954
 1300DAPE   D4A14880   3.913  10.774   9.773  0.0598 -0.3294  0.1124
 1300DAPE   C5A14881   3.787  10.331  10.081  0.2811 -0.3367 -0.0836
 1300DAPE   D1B14882   3.569  10.227   9.606 -0.0723  0.2031  0.3081
 1300DAPE   D2B14883   3.185  10.045   9.622  0.1416 -0.1720  0.1813
 1300DAPE   D3B14884   2.932  10.390   9.808  0.1980  0.3286 -0.3078
 1300DAPE   D4B14885   2.635  10.626   9.753  0.0335  0.1829 -0.0491
 1300DAPE   C5B14886   2.309  10.425  10.036 -0.4288  0.4188 -0.2276
 1301DAPE   NH314887  21.024  29.405   7.229  0.0742 -0.0001 -0.1869
 1301DAPE   PO414888  20.666  29.180   7.355  0.3221 -0.0093  0.2571
 1301DAPE   GL114889  20.893  29.034   7.720  0.1015  0.0981 -0.3777
 1301DAPE   GL214890  20.956  28.623   7.836 -0.0105  0.1559  0.0034
 1301DAPE   D1A14891  21.367  28.918   7.893 -0.0011  0.0865  0.2333
 1301DAPE   D2A14892  21.640  28.959   7.548  0.2224  0.2566 -0.1064
 1301DAPE   D3A14893  21.982  28.631   7.636 -0.0695  0.1015 -0.2422
 1301DAPE   D4A14894  22.238  28.948   7.624 -0.2695  0.2534  0.2836
 1301DAPE   C5A14895  22.504  29.119   7.894  0.2433 -0.2473 -0.0650
 1301DAPE   D1B14896  21.278  28.294   7.943  0.2763 -0.2633  0.1545
 1301DAPE   D2B14897  21.645  28.309   7.845  0.1042  0.0478  0.0189
 1301DAPE   D3B14898  21.623  28.109   7.499  0.2561  0.2840 -0.3081
 1301DAPE   D4B14899  21.798  27.797   7.381  0.1609 -0.3658 -0.3727
 1301DAPE   C5B14900  22.166  27.709   7.653 -0.2456  0.1837 -0.0763
 1302DAPE   NH314901  24.540  15.946   0.860  0.1216  0.1085  0.2265
 1302DAPE   PO414902  24.934  15.851   1.081 -0.0793 -0.1580  0.2912
 1302DAPE   GL114903  25.242  15.915   1.305 -0.0475  0.0790 -0.0189
 1302DAPE   GL214904  25.167  16.189   1.346 -0.3569  0.0793 -0.0404
 1302DAPE   D1A14905  25.451  15.780   1.587  0.3435 -0.1263 -0.0258
 1302DAPE   D2A14906  25.522  15.712   1.965  0.0494  0.2204  0.1312
 1302DAPE   D3A14907  25.613  16.102   1.974  0.1924 -0.2040 -0.0903
 1302DAPE   D4A14908  25.474  16.229   2.337 -0.1306 -0.0243 -0.2051
 1302DAPE   C5A14909  25.398  16.102   2.803 -0.0754 -0.0459 -0.0508
 1302DAPE   D1B14910  25.362  16.479   1.605  0.3074 -0.1266 -0.2395
 1302DAPE   D2B14911  25.190  16.476   1.980 -0.2586 -0.0036  0.1499
 1302DAPE   D3B14912  24.796  16.660   2.263 -0.0688  0.2901  0.2447
 1302DAPE   D4B14913  24.936  17.077   2.264  0.1865  0.1816 -0.1238
 1302DAPE   C5B14914  25.084  17.182   2.628 -0.1318  0.1253  0.3748
 1303DAPE   NH314915  20.096  21.762  10.610  0.0229 -0.0987  0.1933
 1303DAPE   PO414916  20.009  22.058  10.219  0.0294 -0.1270 -0.1332
 1303DAPE   GL114917  20.470  22.139  10.442  0.0712  0.1586  0.5664
 1303DAPE   GL214918  20.732  22.093  10.341 -0.2435 -0.0596 -0.2101
 1303DAPE   D1A14919  20.698  22.418  10.746 -0.3172 -0.1197 -0.0534
 1303DAPE   D2A14920  21.067  22.412  11.010  0.0785  0.0453  0.0885
 1303DAPE   D3A14921  21.190  22.035  10.754  0.0813 -0.4830  0.3027
 1303DAPE   D4A14922  21.143  21.887  11.255 -0.0930  0.1628 -0.1966
 1303DAPE   C5A14923  21.164  22.181  11.609 -0.1146 -0.3351  0.2834
 1303DAPE   D1B14924  20.788  21.700  10.510 -0.1341 -0.1698  0.0799
 1303DAPE   D2B14925  20.430  21.447  10.655 -0.2919  0.5072 -0.0136
 1303DAPE   D3B14926  20.344  21.524  11.032  0.2928  0.1086 -0.1881
 1303DAPE   D4B14927  20.584  21.207  11.287 -0.0855 -0.2460  0.0257
 1303DAPE   C5B14928  20.543  20.872  11.555 -0.3281 -0.2816 -0.0783
 1304DAPE   NH314929   1.029   8.628   5.115 -0.0079 -0.1835 -0.0049
 1304DAPE   PO414930   0.599   8.742   4.966 -0.0726 -0.0725 -0.0679
 1304DAPE   GL114931   0.274   8.930   4.931 -0.0610 -0.0667 -0.1851
 1304DAPE   GL214932   0.257   9.063   4.727  0.1100 -0.0682  0.1256
 1304DAPE   D1A14933  35.347   8.865   5.303  0.5162 -0.4372 -0.2028
 1304DAPE   D2A14934  35.204   8.430   5.431 -0.0659  0.0028  0.1835
 1304DAPE   D3A14935  34.882   8.372   5.603 -0.4681 -0.0026 -0.1317
 1304DAPE   D4A14936  34.714   8.785   5.619  0.0015 -0.0262 -0.0955
 1304DAPE   C5A14937  34.981   9.121   5.459  0.3281  0.0383  0.1360
 1304DAPE   D1B14938  35.228   9.163   4.862 -0.0078  0.0624 -0.2771
 1304DAPE   D2B14939  34.910   9.354   4.976  0.0297  0.0117  0.1266
 1304DAPE   D3B14940  34.743   9.727   5.224  0.0360  0.0700 -0.0658
 1304DAPE   D4B14941  35.026   9.990   5.102 -0.2453 -0.1161  0.2368
 1304DAPE   C5B14942  35.046  10.435   5.310 -0.0058 -0.0478  0.2515
 1305DAPE   NH314943   7.639  22.112  10.477 -0.1610 -0.0217 -0.0777
 1305DAPE   PO414944   7.381  22.261  10.175 -0.2619 -0.3736 -0.2316
 1305DAPE   GL114945   6.857  22.098  10.123 -0.1171  0.2267 -0.1113
 1305DAPE   GL214946   6.708  22.336  10.051 -0.2729  0.3561  0.1826
 1305DAPE   D1A14947   6.404  22.079  10.354  0.2295  0.1426 -0.0229
 1305DAPE   D2A14948   6.152  22.432  10.675  0.4138  0.2818 -0.0512
 1305DAPE   D3A14949   5.910  22.368  10.291 -0.2075 -0.0538 -0.1107
 1305DAPE   D4A14950   5.919  22.865  10.369 -0.2813  0.0819  0.0040
 1305DAPE   C5A14951   5.602  23.044  10.106 -0.1819 -0.0820 -0.4081
 1305DAPE   D1B14952   6.658  22.579  10.549  0.0388 -0.1615 -0.0615
 1305DAPE   D2B14953   7.081  22.338  10.678 -0.0014 -0.3462  0.0414
 1305DAPE   D3B14954   6.705  22.086  10.785  0.1705 -0.1308 -0.0302
 1305DAPE   D4B14955   6.612  21.744  11.033  0.0763 -0.0078  0.2078
 1305DAPE   C5B14956   6.354  21.581  11.297  0.0748 -0.1369  0.3318
 1306DAPE   NH314957  25.735   2.176   6.638  0.2571  0.0404 -0.1291
 1306DAPE   PO414958  25.783   2.429   6.451  0.2816  0.0821  0.5583
 1306DAPE   GL114959  25.961   2.660   6.707 -0.1475 -0.1106  0.0337
 1306DAPE   GL214960  25.755   2.874   6.796  0.0595 -0.3473 -0.4120
 1306DAPE   D1A14961  26.080   2.691   7.141  0.2913  0.1195 -0.0106
 1306DAPE   D2A14962  26.285   2.289   7.113 -0.1677 -0.0305  0.0416
 1306DAPE   D3A14963  26.239   2.267   7.645 -0.0302  0.0309  0.2477
 1306DAPE   D4A14964  25.906   2.215   7.912 -0.1238 -0.1199 -0.0395
 1306DAPE   C5A14965  25.730   2.003   8.195 -0.1374  0.2452  0.3228
 1306DAPE   D1B14966  25.494   2.971   7.090 -0.1767  0.0001  0.1717
 1306DAPE   D2B14967  25.243   2.641   7.045 -0.1261 -0.0619  0.0224
 1306DAPE   D3B14968  25.650   2.441   7.065 -0.1463 -0.0782  0.0963
 1306DAPE   D4B14969  25.726   2.477   7.570  0.1009 -0.0610 -0.0526
 1306DAPE   C5B14970  26.061   2.714   7.747 -0.3539  0.1317  0.0516
 1307DAPE   NH314971  24.878   3.842   6.477  0.0781  0.1252 -0.4902
 1307DAPE   PO414972  25.287   3.755   6.644 -0.0035  0.3010  0.1026
 1307DAPE   GL114973  25.510   4.038   6.951 -0.2445  0.1507  0.2617
 1307DAPE   GL214974  25.427   4.275   6.724  0.3068  0.1511  0.1554
 1307DAPE   D1A14975  25.620   4.328   7.167 -0.1126  0.1457 -0.3611
 1307DAPE   D2A14976  25.237   4.146   7.376  0.2246 -0.1162 -0.0380
 1307DAPE   D3A14977  24.967   4.464   7.406  0.0424 -0.2632  0.0738
 1307DAPE   D4A14978  25.211   4.830   7.297 -0.0183  0.0160 -0.0105
 1307DAPE   C5A14979  25.075   5.126   7.455  0.4451  0.2729  0.1362
 1307DAPE   D1B14980  25.783   4.408   6.335 -0.0262 -0.2444 -0.1130
 1307DAPE   D2B14981  25.806   4.777   6.623 -0.2250 -0.2709 -0.2848
 1307DAPE   D3B14982  25.635   4.833   7.075  0.0324 -0.0143 -0.1024
 1307DAPE   D4B14983  26.098   4.697   7.253  0.1344  0.2709  0.0941
 1307DAPE   C5B14984  26.182   5.041   7.531  0.1976  0.3501  0.0508
 1308DAPE   NH314985  22.108  23.518   5.927  0.0132  0.2090 -0.2657
 1308DAPE   PO414986  21.684  23.582   5.864  0.1024  0.0474 -0.3482
 1308DAPE   GL114987  21.861  23.713   6.309 -0.1977  0.0685 -0.3541
 1308DAPE   GL214988  22.238  23.639   6.483  0.1546  0.1207 -0.1511
 1308DAPE   D1A14989  21.825  23.977   6.728  0.0924  0.0884 -0.4204
 1308DAPE   D2A14990  22.142  23.967   6.957  0.1386 -0.0051  0.0089
 1308DAPE   D3A14991  22.393  24.054   6.712 -0.0425 -0.0082  0.2334
 1308DAPE   D4A14992  22.761  24.233   6.911 -0.0294 -0.1002 -0.2528
 1308DAPE   C5A14993  23.137  24.088   6.985  0.0833  0.1949  0.1870
 1308DAPE   D1B14994  22.624  23.415   6.441  0.0091  0.0221  0.1777
 1308DAPE   D2B14995  22.861  23.669   6.628 -0.0396  0.1981 -0.0745
 1308DAPE   D3B14996  23.110  23.300   6.384  0.1249  0.0554  0.0116
 1308DAPE   D4B14997  23.333  23.091   6.486 -0.0342 -0.1446 -0.1411
 1308DAPE   C5B14998  23.674  23.211   6.648 -0.0904  0.1789  0.2961
 1309DAPE   NH314999  13.232  34.336  13.871 -0.0905  0.2307  0.4003
 1309DAPE   PO415000  12.896  34.401  13.444  0.1488  0.2069  0.2451
 1309DAPE   GL115001  13.127  34.710  13.557 -0.4006 -0.0567  0.3240
 1309DAPE   GL215002  13.139  34.933  13.798  0.0742 -0.0187  0.0260
 1309DAPE   D1A15003  13.588  34.698  13.719 -0.2144  0.1901 -0.0829
 1309DAPE   D2A15004  13.911  34.663  13.337  0.0816 -0.0416 -0.1596
 1309DAPE   D3A15005  14.339  34.712  13.437 -0.3175  0.3042 -0.3098
 1309DAPE   D4A15006  14.535  34.367  13.744 -0.3338  0.0740  0.4224
 1309DAPE   C5A15007  14.833  34.260  14.071  0.1133 -0.0996 -0.3843
 1309DAPE   D1B15008  13.286  35.245  14.144  0.1780  0.1283  0.1234
 1309DAPE   D2B15009  13.630  35.054  14.400 -0.3157  0.1739 -0.2308
 1309DAPE   D3B15010  13.772  35.382  14.364  0.2403  0.0321  0.1521
 1309DAPE   D4B15011  13.943   0.240  14.675  0.1327  0.0769 -0.2174
 1309DAPE   C5B15012  13.823   0.401  15.031  0.0971  0.1836  0.0629
 1310DAPE   NH315013   7.158  24.381  12.684  0.1512  0.0841  0.1157
 1310DAPE   PO415014   6.968  23.901  12.762 -0.1037 -0.2700 -0.0261
 1310DAPE   GL115015   6.707  23.616  13.025 -0.0661 -0.0950  0.0271
 1310DAPE   GL215016   6.513  23.646  12.896  0.0928  0.0111 -0.2117
 1310DAPE   D1A15017   6.645  23.180  13.152 -0.2669  0.0605 -0.0321
 1310DAPE   D2A15018   6.549  23.094  12.712  0.0333 -0.3030 -0.1584
 1310DAPE   D3A15019   6.178  23.054  12.979 -0.0356 -0.1996 -0.2853
 1310DAPE   D4A15020   6.434  22.732  13.014  0.1539 -0.1721  0.1272
 1310DAPE   C5A15021   6.685  22.655  13.339 -0.2038  0.1177 -0.1501
 1310DAPE   D1B15022   6.036  23.566  12.992  0.1917 -0.2046  0.1918
 1310DAPE   D2B15023   6.111  23.858  12.738  0.1218 -0.2601 -0.1963
 1310DAPE   D3B15024   6.135  24.212  12.970 -0.1544  0.0374 -0.0736
 1310DAPE   D4B15025   5.777  24.121  13.205  0.3556  0.1433  0.2034
 1310DAPE   C5B15026   5.460  24.222  13.121  0.0614  0.1311 -0.1325
 1311DAPE   NH315027  11.755  14.167  14.044 -0.1154  0.2720  0.2782
 1311DAPE   PO415028  12.215  14.186  13.903 -0.2049  0.1116 -0.0118
 1311DAPE   GL115029  12.279  14.190  14.272  0.2172 -0.2802  0.0740
 1311DAPE   GL215030  12.502  14.427  14.302 -0.1220  0.0741  0.0308
 1311DAPE   D1A15031  12.417  14.044  14.687 -0.1650 -0.0660 -0.1201
 1311DAPE   D2A15032  12.549  14.013  14.993 -0.5048  0.0257 -0.0238
 1311DAPE   D3A15033  12.847  13.800  14.804 -0.5561  0.4026 -0.2737
 1311DAPE   D4A15034  12.503  13.519  14.743  0.1374 -0.3050 -0.0628
 1311DAPE   C5A15035  12.102  13.736  14.875  0.0148 -0.1818  0.0914
 1311DAPE   D1B15036  12.890  14.275  14.421  0.0760 -0.2311 -0.0107
 1311DAPE   D2B15037  12.746  14.374  14.733  0.1720  0.0251 -0.0009
 1311DAPE   D3B15038  12.961  14.591  15.041 -0.1417  0.4905  0.1275
 1311DAPE   D4B15039  12.800  14.345  15.323  0.0689 -0.0012  0.4077
 1311DAPE   C5B15040  12.967  14.349  15.594  0.1425 -0.1323 -0.1514
 1312DAPE   NH315041  33.500  26.763   3.588 -0.0881 -0.1091  0.1602
 1312DAPE   PO415042  33.857  26.507   3.453 -0.3525 -0.1319 -0.1084
 1312DAPE   GL115043  34.001  26.178   3.714  0.1126 -0.1719 -0.0087
 1312DAPE   GL215044  34.035  26.144   4.016 -0.1186 -0.2017  0.2525
 1312DAPE   D1A15045  33.884  25.692   3.578  0.0983  0.0559 -0.0221
 1312DAPE   D2A15046  33.471  25.596   3.284  0.0263 -0.0488 -0.3990
 1312DAPE   D3A15047  33.357  25.149   3.064  0.1501 -0.1473 -0.1566
 1312DAPE   D4A15048  33.117  24.736   3.167  0.1943 -0.1454  0.1870
 1312DAPE   C5A15049  32.913  24.612   2.813  0.0439 -0.1155 -0.0286
 1312DAPE   D1B15050  34.175  25.892   4.332 -0.1548  0.0824  0.1895
 1312DAPE   D2B15051  34.074  25.551   4.061  0.1171 -0.1523 -0.0707
 1312DAPE   D3B15052  34.373  25.345   4.136 -0.2123 -0.0563 -0.0061
 1312DAPE   D4B15053  34.081  25.103   4.320 -0.1821  0.1570  0.1086
 1312DAPE   C5B15054  33.861  24.801   4.077  0.0503  0.1856 -0.0546
 1313DAPE   NH315055  15.119  30.176  14.144 -0.1384 -0.0141  0.0946
 1313DAPE   PO415056  15.090  29.680  14.255 -0.0421  0.1034 -0.5298
 1313DAPE   GL115057  15.476  29.881  14.525 -0.2091  0.2495  0.1182
 1313DAPE   GL215058  15.481  29.932  14.861 -0.1403 -0.0645 -0.1065
 1313DAPE   D1A15059  15.780  30.133  14.532  0.2080 -0.0047  0.1754
 1313DAPE   D2A15060  16.167  30.236  14.842 -0.1426  0.1298  0.0613
 1313DAPE   D3A15061  16.637  30.114  14.927 -0.2911  0.0010 -0.2048
 1313DAPE   D4A15062  16.331  30.293  15.306 -0.0823 -0.2842  0.1718
 1313DAPE   C5A15063  16.213  30.624  15.541 -0.1890  0.2210  0.0180
 1313DAPE   D1B15064  15.968  29.888  15.095 -0.3846 -0.2070 -0.0697
 1313DAPE   D2B15065  16.223  29.639  15.144 -0.2112  0.1104  0.0192
 1313DAPE   D3B15066  16.478  29.821  15.401  0.0598  0.0751 -0.0447
 1313DAPE   D4B15067  16.358  29.795  15.686  0.0105  0.0612  0.0412
 1313DAPE   C5B15068  16.325  30.225  15.826 -0.1674 -0.0003  0.0319
 1314DAPE   NH315069   4.567  23.509   6.277  0.4018  0.2390  0.1428
 1314DAPE   PO415070   4.179  23.529   5.966 -0.0009 -0.3005  0.0265
 1314DAPE   GL115071   3.963  23.397   6.400 -0.0702  0.3890  0.0669
 1314DAPE   GL215072   4.203  23.466   6.711 -0.4161  0.0642 -0.1863
 1314DAPE   D1A15073   3.782  23.019   6.544  0.0568 -0.0586  0.0345
 1314DAPE   D2A15074   3.434  23.322   6.295  0.2304  0.0243  0.0217
 1314DAPE   D3A15075   3.228  23.055   6.477  0.2673 -0.0737 -0.1639
 1314DAPE   D4A15076   3.500  22.662   6.352  0.2840 -0.4594 -0.1423
 1314DAPE   C5A15077   3.418  22.369   6.508  0.0007 -0.2368  0.0529
 1314DAPE   D1B15078   3.804  23.610   6.835  0.1287 -0.2302 -0.0506
 1314DAPE   D2B15079   3.443  23.669   7.005 -0.0096 -0.0025 -0.3611
 1314DAPE   D3B15080   3.130  23.591   6.603  0.0951  0.3482  0.3208
 1314DAPE   D4B15081   2.936  23.400   6.200 -0.2806 -0.1887  0.4671
 1314DAPE   C5B15082   2.540  23.464   6.169  0.0137 -0.2901 -0.2362
 1315DAPE   NH315083  15.706  16.579  13.885  0.1622  0.2607  0.0294
 1315DAPE   PO415084  15.433  16.308  13.978  0.4269 -0.0293 -0.1351
 1315DAPE   GL115085  15.357  16.022  14.334  0.0735  0.1551 -0.2330
 1315DAPE   GL215086  15.064  15.715  14.373  0.3095 -0.1959 -0.2825
 1315DAPE   D1A15087  15.524  15.795  14.684 -0.0165  0.1113  0.0237
 1315DAPE   D2A15088  15.500  15.370  14.697 -0.0299 -0.0161  0.1062
 1315DAPE   D3A15089  15.182  15.432  14.934  0.0007 -0.0938 -0.1601
 1315DAPE   D4A15090  15.302  15.235  15.201  0.1327  0.3372 -0.1331
 1315DAPE   C5A15091  15.647  15.118  15.202 -0.3069 -0.2077  0.0588
 1315DAPE   D1B15092  15.114  15.938  14.863  0.2127 -0.4305 -0.1734
 1315DAPE   D2B15093  15.000  16.400  14.922 -0.3332 -0.1254 -0.1440
 1315DAPE   D3B15094  14.982  16.347  15.286 -0.0793  0.2527  0.3135
 1315DAPE   D4B15095  14.823  15.912  15.273 -0.0801 -0.2619 -0.1679
 1315DAPE   C5B15096  15.050  15.585  15.412 -0.3335 -0.0030  0.1650
 1316DAPE   NH315097  12.106  14.651  14.068  0.1665  0.0045  0.0579
 1316DAPE   PO415098  12.518  14.880  14.055  0.0438 -0.1957  0.1499
 1316DAPE   GL115099  12.303  14.881  14.470 -0.1821  0.0819 -0.2413
 1316DAPE   GL215100  12.041  14.817  14.692 -0.0196 -0.3362 -0.0989
 1316DAPE   D1A15101  12.501  14.841  14.826 -0.0504 -0.0404 -0.0381
 1316DAPE   D2A15102  12.200  14.881  15.178  0.0466 -0.0382 -0.1054
 1316DAPE   D3A15103  12.602  14.786  15.365  0.0946  0.0034  0.1614
 1316DAPE   D4A15104  12.552  14.625  15.820 -0.0309  0.0523 -0.1422
 1316DAPE   C5A15105  12.717  15.001  16.125  0.1800 -0.1538 -0.0474
 1316DAPE   D1B15106  12.261  14.443  14.870  0.1186 -0.0392 -0.2990
 1316DAPE   D2B15107  12.317  14.382  15.353  0.1705 -0.1220  0.3728
 1316DAPE   D3B15108  12.342  13.899  15.473 -0.0987  0.0576 -0.2427
 1316DAPE   D4B15109  12.410  13.600  15.234  0.0648  0.2758 -0.0578
 1316DAPE   C5B15110  12.325  13.195  15.138 -0.0716  0.1919  0.0203
 1317DAPE   NH315111  32.812  20.834   0.404 -0.0407  0.0916  0.1168
 1317DAPE   PO415112  33.191  21.064   0.539 -0.1766 -0.0065 -0.0062
 1317DAPE   GL115113  32.999  20.854   0.959  0.0884 -0.3077  0.1706
 1317DAPE   GL215114  33.240  21.120   1.036  0.0555 -0.0202  0.2715
 1317DAPE   D1A15115  33.061  20.767   1.357 -0.0082 -0.0887 -0.3010
 1317DAPE   D2A15116  32.608  20.846   1.288 -0.0134 -0.0769  0.0476
 1317DAPE   D3A15117  32.548  20.670   1.660 -0.3012  0.1589  0.0257
 1317DAPE   D4A15118  32.299  21.015   1.790  0.1634 -0.2354 -0.4603
 1317DAPE   C5A15119  32.126  21.379   1.627 -0.1269  0.0615  0.0099
 1317DAPE   D1B15120  33.201  21.328   1.417 -0.1761 -0.0508 -0.3107
 1317DAPE   D2B15121  33.205  21.683   1.488  0.1657 -0.3239  0.2557
 1317DAPE   D3B15122  33.167  21.778   1.868 -0.1041 -0.0756 -0.0659
 1317DAPE   D4B15123  32.908  21.422   1.909  0.0696  0.1168  0.0726
 1317DAPE   C5B15124  32.738  21.213   1.559 -0.0217  0.0567 -0.0766
 1318DAPE   NH315125  10.411  11.795  13.774  0.2061 -0.0047  0.1913
 1318DAPE   PO415126  10.591  12.136  14.021  0.0263 -0.1254  0.0403
 1318DAPE   GL115127  10.457  12.368  14.372  0.1290 -0.1848  0.3065
 1318DAPE   GL215128  10.113  12.395  14.370  0.3215 -0.0147  0.0257
 1318DAPE   D1A15129  10.352  12.498  14.760 -0.0754  0.1113  0.3395
 1318DAPE   D2A15130  10.519  12.278  15.128  0.0623 -0.2310  0.0739
 1318DAPE   D3A15131  10.873  12.055  15.030  0.0699  0.4422  0.1204
 1318DAPE   D4A15132  10.838  12.092  15.505 -0.1485 -0.1935 -0.1614
 1318DAPE   C5A15133  10.904  12.468  15.710 -0.2303 -0.0773  0.2600
 1318DAPE   D1B15134   9.730  12.122  14.353  0.1058 -0.2954 -0.0193
 1318DAPE   D2B15135   9.941  12.037  14.646 -0.0945 -0.1232  0.1350
 1318DAPE   D3B15136  10.023  12.187  14.939  0.0012 -0.0667 -0.0793
 1318DAPE   D4B15137  10.053  12.347  15.302 -0.0928 -0.3577 -0.1113
 1318DAPE   C5B15138  10.333  12.227  15.647  0.1915 -0.1345 -0.5647
 1319DAPE   NH315139   4.780   7.959   9.845  0.2093  0.1537 -0.0231
 1319DAPE   PO415140   4.361   8.095   9.655 -0.1688  0.0836  0.2877
 1319DAPE   GL115141   4.214   8.356   9.974 -0.0491 -0.0560 -0.0938
 1319DAPE   GL215142   4.033   8.296  10.240  0.1664  0.1230 -0.1921
 1319DAPE   D1A15143   3.981   8.679   9.851  0.1896  0.0879  0.2249
 1319DAPE   D2A15144   3.758   8.682  10.189 -0.0012 -0.0893  0.2143
 1319DAPE   D3A15145   3.428   8.801  10.275  0.2918  0.0054  0.4039
 1319DAPE   D4A15146   3.450   9.169  10.605 -0.0049  0.2198 -0.2767
 1319DAPE   C5A15147   3.791   9.448  10.845 -0.1187 -0.0207 -0.1983
 1319DAPE   D1B15148   3.736   8.307  10.493 -0.0159  0.0485 -0.0172
 1319DAPE   D2B15149   3.531   8.324  10.852  0.0911 -0.3341 -0.1995
 1319DAPE   D3B15150   3.439   8.686  10.753 -0.0486 -0.0432 -0.2590
 1319DAPE   D4B15151   2.953   8.701  10.748  0.2078  0.1701 -0.1709
 1319DAPE   C5B15152   2.744   8.979  10.690  0.1006 -0.1224 -0.2916
 1320DAPE   NH315153  10.250  14.639  13.603 -0.2168  0.3352 -0.0384
 1320DAPE   PO415154  10.023  14.965  13.435 -0.0486 -0.0533 -0.1977
 1320DAPE   GL115155   9.809  15.017  13.824 -0.0651 -0.3397  0.1716
 1320DAPE   GL215156   9.936  14.822  13.957 -0.3552 -0.3306 -0.1425
 1320DAPE   D1A15157   9.497  15.159  14.070 -0.0747 -0.0113  0.0376
 1320DAPE   D2A15158   9.312  14.883  13.845  0.0585 -0.0052  0.4599
 1320DAPE   D3A15159   9.053  15.208  13.903 -0.3811 -0.1919  0.0864
 1320DAPE   D4A15160   8.816  15.502  14.087 -0.0896 -0.1113 -0.5493
 1320DAPE   C5A15161   8.744  15.516  14.529 -0.0071  0.1229  0.2590
 1320DAPE   D1B15162   9.860  14.964  14.413  0.2258 -0.0643  0.2195
 1320DAPE   D2B15163  10.159  15.120  14.277 -0.1155  0.1766 -0.3175
 1320DAPE   D3B15164  10.139  15.207  14.754 -0.1254  0.0227 -0.3339
 1320DAPE   D4B15165   9.811  14.886  14.979  0.2353 -0.0711 -0.0678
 1320DAPE   C5B15166   9.757  14.769  15.393 -0.2791 -0.0405 -0.0934
 1321DAPE   NH315167  21.432  27.695   6.311  0.0132  0.1483 -0.3568
 1321DAPE   PO415168  21.385  27.567   6.668  0.2134 -0.2768 -0.0254
 1321DAPE   GL115169  21.821  27.700   6.741  0.2426 -0.4613  0.0138
 1321DAPE   GL215170  22.151  27.835   6.588  0.2306 -0.1727 -0.2408
 1321DAPE   D1A15171  22.136  27.597   7.062 -0.1189  0.0995  0.2883
 1321DAPE   D2A15172  22.404  27.349   7.155  0.1140 -0.2143  0.2422
 1321DAPE   D3A15173  22.625  27.636   7.394 -0.2558 -0.1592  0.1643
 1321DAPE   D4A15174  22.716  27.783   7.767  0.4000  0.0017  0.1387
 1321DAPE   C5A15175  22.972  28.171   7.844 -0.1308 -0.1286  0.4362
 1321DAPE   D1B15176  22.140  27.388   6.597  0.2854 -0.0067  0.0710
 1321DAPE   D2B15177  22.572  27.317   6.709 -0.0459  0.0109 -0.0082
 1321DAPE   D3B15178  22.935  27.244   6.917  0.0423  0.4400  0.1353
 1321DAPE   D4B15179  23.154  27.514   7.184  0.1405  0.1825  0.2422
 1321DAPE   C5B15180  23.503  27.423   7.295  0.0322  0.3612  0.0554
 1322DAPE   NH315181  19.776  13.141   8.318 -0.4561  0.0957 -0.0675
 1322DAPE   PO415182  20.197  13.170   8.159 -0.0744 -0.0692  0.0053
 1322DAPE   GL115183  20.557  13.401   8.253  0.0628 -0.0290  0.2039
 1322DAPE   GL215184  20.383  13.677   8.285  0.0971 -0.1851  0.0506
 1322DAPE   D1A15185  20.697  13.671   7.953  0.0538  0.0202 -0.0726
 1322DAPE   D2A15186  20.952  13.482   7.684 -0.0377 -0.0575 -0.0180
 1322DAPE   D3A15187  20.877  13.860   7.486  0.0456 -0.1595 -0.2061
 1322DAPE   D4A15188  21.011  14.086   7.874 -0.1473 -0.2029  0.0521
 1322DAPE   C5A15189  21.215  14.538   7.961 -0.4556 -0.0256  0.1974
 1322DAPE   D1B15190  20.889  13.867   8.363 -0.0506  0.2028  0.3992
 1322DAPE   D2B15191  21.183  13.684   8.273 -0.3058 -0.0474  0.4006
 1322DAPE   D3B15192  21.421  13.755   8.645 -0.0955 -0.6031 -0.1090
 1322DAPE   D4B15193  21.022  13.759   8.849  0.3147  0.2391  0.1450
 1322DAPE   C5B15194  20.768  13.892   9.272  0.1498 -0.1544  0.2351
 1323DAPE   NH315195   5.745   6.011  11.673 -0.0152  0.0755  0.0246
 1323DAPE   PO415196   6.083   6.255  11.507 -0.0688  0.3151 -0.1179
 1323DAPE   GL115197   5.716   6.511  11.470 -0.2067  0.3599 -0.2918
 1323DAPE   GL215198   5.659   6.717  11.439  0.4453  0.1339  0.0826
 1323DAPE   D1A15199   5.289   6.443  11.756  0.4979  0.2075  0.2760
 1323DAPE   D2A15200   5.168   5.930  11.739  0.0044 -0.1347 -0.0314
 1323DAPE   D3A15201   4.700   5.799  11.645  0.1638 -0.3934  0.0745
 1323DAPE   D4A15202   4.358   5.807  11.816 -0.0911  0.2406 -0.2181
 1323DAPE   C5A15203   4.449   6.077  12.157 -0.2672 -0.0710 -0.1160
 1323DAPE   D1B15204   5.352   7.015  11.524 -0.3879  0.1331 -0.2349
 1323DAPE   D2B15205   4.929   6.851  11.616 -0.0972 -0.0752 -0.1912
 1323DAPE   D3B15206   4.536   6.856  11.356  0.0425  0.1676 -0.2109
 1323DAPE   D4B15207   4.144   6.686  11.331  0.2658 -0.3193  0.1292
 1323DAPE   C5B15208   3.885   6.950  11.615 -0.0647  0.1250  0.0365
 1324DAPE   NH315209   7.429  19.501   9.413  0.0500 -0.1299 -0.1631
 1324DAPE   PO415210   7.309  19.334   9.768  0.0963 -0.2510 -0.0341
 1324DAPE   GL115211   6.899  19.463   9.635  0.1314  0.0114 -0.1524
 1324DAPE   GL215212   6.851  19.165   9.727 -0.0031  0.1169 -0.1864
 1324DAPE   D1A15213   6.430  19.404   9.587  0.0178  0.1290  0.1135
 1324DAPE   D2A15214   6.412  18.945   9.791  0.0500  0.1318 -0.0263
 1324DAPE   D3A15215   6.045  19.185   9.927  0.0849  0.2374 -0.2077
 1324DAPE   D4A15216   6.112  19.640   9.943 -0.1112  0.1918  0.3575
 1324DAPE   C5A15217   6.260  19.856   9.725  0.1533  0.2161  0.0468
 1324DAPE   D1B15218   6.834  18.845  10.005  0.2580  0.1795  0.0423
 1324DAPE   D2B15219   6.550  18.519  10.091  0.1314  0.2224  0.1018
 1324DAPE   D3B15220   6.291  18.857  10.340  0.1830 -0.2845  0.2533
 1324DAPE   D4B15221   6.822  19.130  10.392  0.0602  0.0850 -0.1630
 1324DAPE   C5B15222   6.756  19.584  10.504 -0.1739  0.0416 -0.1404
 1325DAPE   NH315223  23.598  27.715   5.427  0.1451 -0.2977 -0.1399
 1325DAPE   PO415224  23.200  27.624   5.582  0.2668 -0.0732 -0.0647
 1325DAPE   GL115225  23.190  27.427   5.941  0.1990 -0.1661 -0.1556
 1325DAPE   GL215226  22.930  27.244   5.919 -0.1121 -0.2733 -0.2135
 1325DAPE   D1A15227  23.365  27.053   5.965  0.2514 -0.0144 -0.0652
 1325DAPE   D2A15228  23.270  26.678   6.246  0.0589 -0.3108  0.1442
 1325DAPE   D3A15229  23.018  26.929   6.491 -0.1086  0.0148  0.1918
 1325DAPE   D4A15230  23.365  27.147   6.468  0.3315  0.0662  0.0564
 1325DAPE   C5A15231  23.762  26.933   6.419 -0.0243  0.0036 -0.1689
 1325DAPE   D1B15232  22.901  27.442   6.402 -0.0029  0.0994 -0.2528
 1325DAPE   D2B15233  22.641  27.753   6.406  0.2864  0.1067  0.0004
 1325DAPE   D3B15234  22.618  27.750   6.894 -0.1925 -0.3752 -0.1480
 1325DAPE   D4B15235  22.356  28.080   7.076  0.0895  0.2173  0.1212
 1325DAPE   C5B15236  22.096  28.181   7.411 -0.1261  0.0253  0.1174
 1326DAPE   NH315237  21.654  27.228   6.454 -0.2804  0.0893  0.0377
 1326DAPE   PO415238  21.591  26.772   6.251 -0.2255  0.1138  0.0328
 1326DAPE   GL115239  21.916  26.708   6.647  0.1044 -0.2063  0.0786
 1326DAPE   GL215240  22.246  26.901   6.718 -0.1328 -0.0631 -0.2540
 1326DAPE   D1A15241  22.226  26.371   6.650 -0.3364 -0.2227  0.1620
 1326DAPE   D2A15242  22.401  26.513   6.292 -0.1591 -0.0741  0.1089
 1326DAPE   D3A15243  22.831  26.323   6.138 -0.0044  0.0854 -0.3620
 1326DAPE   D4A15244  23.205  26.143   6.272 -0.1378  0.2144 -0.5498
 1326DAPE   C5A15245  23.619  26.270   6.344  0.1040  0.4818 -0.3389
 1326DAPE   D1B15246  22.680  26.818   6.986 -0.1500 -0.0156  0.3626
 1326DAPE   D2B15247  23.120  26.742   6.996 -0.3373  0.1604  0.0913
 1326DAPE   D3B15248  23.390  27.006   6.916 -0.1623 -0.4622 -0.2681
 1326DAPE   D4B15249  23.671  26.925   7.223 -0.1433 -0.1360  0.4845
 1326DAPE   C5B15250  24.056  26.980   7.038 -0.1998  0.1049  0.0532
 1327DAPE   NH315251  27.898  13.667   0.160 -0.1411 -0.0434 -0.0200
 1327DAPE   PO415252  28.158  14.020   0.141  0.1522 -0.0182  0.1438
 1327DAPE   GL115253  28.112  14.030   0.484 -0.0549 -0.1023  0.1568
 1327DAPE   GL215254  27.908  13.806   0.638  0.1773  0.0254 -0.0485
 1327DAPE   D1A15255  28.000  14.206   0.895  0.1397 -0.0713 -0.1256
 1327DAPE   D2A15256  27.947  14.485   1.238 -0.0947 -0.0751  0.2060
 1327DAPE   D3A15257  28.268  14.283   1.365  0.0386 -0.0120 -0.1246
 1327DAPE   D4A15258  28.497  14.339   1.807 -0.3278  0.2499  0.0441
 1327DAPE   C5A15259  28.824  14.565   1.831 -0.3165  0.1086  0.0574
 1327DAPE   D1B15260  28.158  13.678   1.024  0.2779 -0.1846  0.3401
 1327DAPE   D2B15261  28.443  13.948   1.007 -0.0635  0.1822 -0.0848
 1327DAPE   D3B15262  28.867  13.702   1.064 -0.2738 -0.0142  0.0506
 1327DAPE   D4B15263  29.081  13.825   1.440 -0.1883 -0.1457 -0.2258
 1327DAPE   C5B15264  29.005  14.099   1.825  0.1312  0.1808  0.0110
 1328PAPS   CNO15265   8.580  24.264  16.539  0.0992 -0.0786 -0.0485
 1328PAPS   PO415266   8.290  24.125  16.809  0.1271  0.0657  0.2748
 1328PAPS   GL115267   8.165  24.172  17.098 -0.1037  0.2397  0.3837
 1328PAPS   GL215268   7.907  24.274  17.138 -0.0735 -0.2892  0.3199
 1328PAPS   D1A15269   8.389  24.273  17.431 -0.0653 -0.0676 -0.0468
 1328PAPS   D2A15270   8.190  24.392  17.814 -0.2345  0.2954  0.1331
 1328PAPS   D3A15271   7.939  24.645  17.679 -0.3910  0.0802  0.1004
 1328PAPS   D4A15272   8.023  24.762  18.121  0.0913  0.3063  0.2493
 1328PAPS   C5A15273   7.722  24.788  18.456  0.0891  0.0433  0.0275
 1328PAPS   C1B15274   7.720  24.189  17.532 -0.1626  0.0183 -0.2339
 1328PAPS   C2B15275   7.666  24.381  17.990  0.0980 -0.3718  0.0443
 1328PAPS   C3B15276   7.491  24.370  18.385 -0.1193  0.1586  0.2104
 1328PAPS   C4B15277   7.289  24.118  18.657  0.2830 -0.0025 -0.1298
 1329PAPS   CNO15278  33.261   0.662   8.000  0.3310  0.0747  0.1112
 1329PAPS   PO415279  32.860   0.824   7.852 -0.1114 -0.4486 -0.1382
 1329PAPS   GL115280  32.866   0.893   8.305 -0.1858 -0.1162 -0.3289
 1329PAPS   GL215281  33.222   1.022   8.461 -0.1040 -0.0375 -0.0024
 1329PAPS   D1A15282  32.644   0.950   8.625 -0.2449 -0.1611  0.2126
 1329PAPS   D2A15283  32.312   1.071   8.391  0.0237  0.2436 -0.3840
 1329PAPS   D3A15284  32.143   1.286   8.683 -0.3084  0.2212 -0.2676
 1329PAPS   D4A15285  32.334   1.198   9.114  0.1833 -0.1796  0.2639
 1329PAPS   C5A15286  32.006   1.099   9.464  0.1051 -0.3479  0.1366
 1329PAPS   C1B15287  33.049   1.251   8.674  0.0083 -0.1570 -0.0479
 1329PAPS   C2B15288  32.908   1.262   9.077  0.2812  0.1153  0.1595
 1329PAPS   C3B15289  32.655   1.467   9.407  0.1394  0.0783 -0.0702
 1329PAPS   C4B15290  32.380   1.448   9.737  0.0329  0.1002  0.0195
 1330PAPS   CNO15291  12.364  14.904  13.556  0.1195 -0.0542 -0.2033
 1330PAPS   PO415292  12.041  15.050  13.793 -0.0444  0.0062  0.3691
 1330PAPS   GL115293  12.036  15.173  14.143  0.0483  0.0842  0.0151
 1330PAPS   GL215294  11.792  15.015  14.206 -0.2293 -0.1187 -0.2441
 1330PAPS   D1A15295  12.027  15.377  14.523  0.1185 -0.0097  0.2484
 1330PAPS   D2A15296  12.219  15.258  14.843  0.1312 -0.2012  0.2385
 1330PAPS   D3A15297  12.125  15.444  15.236  0.2184  0.3069 -0.1300
 1330PAPS   D4A15298  11.987  15.701  14.899  0.3216 -0.1702 -0.1650
 1330PAPS   C5A15299  11.917  16.109  15.051  0.0226 -0.1082  0.0650
 1330PAPS   C1B15300  11.618  15.089  14.660  0.0885  0.2275 -0.1386
 1330PAPS   C2B15301  11.745  15.076  15.040  0.2347  0.0851 -0.1660
 1330PAPS   C3B15302  11.744  14.966  15.351 -0.2328  0.0798 -0.0264
 1330PAPS   C4B15303  12.102  14.838  15.631 -0.3451 -0.0263  0.2378
 1331PAPS   CNO15304  28.202   7.175   2.488 -0.1654 -0.0187  0.3976
 1331PAPS   PO415305  28.085   7.380   2.831 -0.2601  0.2559 -0.0213
 1331PAPS   GL115306  27.811   7.577   3.211 -0.1197 -0.1775 -0.2626
 1331PAPS   GL215307  28.025   7.398   3.387 -0.0084  0.0322  0.1812
 1331PAPS   D1A15308  27.486   7.592   3.421 -0.0222  0.1170  0.2745
 1331PAPS   D2A15309  27.796   7.901   3.720 -0.2033  0.1178  0.2670
 1331PAPS   D3A15310  27.663   8.151   3.431 -0.0029 -0.0206 -0.1967
 1331PAPS   D4A15311  27.133   7.998   3.409  0.1997  0.0210 -0.1570
 1331PAPS   C5A15312  27.217   7.782   3.714 -0.2144  0.3316  0.3111
 1331PAPS   C1B15313  27.908   7.400   3.828  0.0440 -0.0964  0.2025
 1331PAPS   C2B15314  27.942   7.628   4.174 -0.0482 -0.1211 -0.1953
 1331PAPS   C3B15315  27.832   7.731   4.596 -0.0117  0.1089  0.1328
 1331PAPS   C4B15316  27.627   8.067   4.907 -0.1070  0.2305 -0.2600
 1332PAPS   CNO15317  14.280  33.803  12.377 -0.1162  0.1151  0.3151
 1332PAPS   PO415318  14.638  33.678  12.469 -0.0130 -0.3811  0.1403
 1332PAPS   GL115319  14.788  33.579  12.793 -0.0421 -0.2945  0.1635
 1332PAPS   GL215320  15.095  33.628  12.864  0.0234  0.2665  0.0110
 1332PAPS   D1A15321  14.753  33.790  13.142  0.1088 -0.2858  0.0450
 1332PAPS   D2A15322  14.423  33.898  13.491 -0.2085  0.1120 -0.0801
 1332PAPS   D3A15323  14.237  34.211  13.325  0.0268  0.3301  0.0985
 1332PAPS   D4A15324  14.649  34.280  13.254  0.0267  0.0644 -0.3344
 1332PAPS   C5A15325  14.938  33.993  13.630  0.0982  0.1361  0.3548
 1332PAPS   C1B15326  15.263  33.678  13.277  0.1300 -0.1128  0.2668
 1332PAPS   C2B15327  15.423  33.636  13.612  0.1498 -0.2388  0.0079
 1332PAPS   C3B15328  15.835  33.764  13.779 -0.0095 -0.3220  0.2334
 1332PAPS   C4B15329  16.211  34.046  13.582 -0.3106  0.1727 -0.1606
 1333PAPS   CNO15330   6.943  20.774  10.607  0.0834  0.1720  0.3641
 1333PAPS   PO415331   6.922  20.955  11.033 -0.1793  0.3546 -0.1310
 1333PAPS   GL115332   6.659  21.176  10.836  0.0479  0.0308 -0.4822
 1333PAPS   GL215333   6.446  21.215  11.018 -0.1429 -0.0621 -0.0926
 1333PAPS   D1A15334   6.369  21.024  10.591 -0.2305  0.1632  0.1708
 1333PAPS   D2A15335   6.001  20.933  10.837 -0.0485 -0.0390 -0.1362
 1333PAPS   D3A15336   6.004  21.135  11.193 -0.2358  0.0073 -0.0947
 1333PAPS   D4A15337   5.875  21.492  11.155  0.2456  0.0243 -0.0262
 1333PAPS   C5A15338   6.160  21.884  10.911  0.0134 -0.0279 -0.1862
 1333PAPS   C1B15339   6.351  21.017  11.487 -0.2620  0.0657 -0.1118
 1333PAPS   C2B15340   5.978  20.943  11.669  0.0419 -0.0045 -0.0692
 1333PAPS   C3B15341   5.620  20.924  11.354  0.3714  0.0183  0.3750
 1333PAPS   C4B15342   5.312  20.618  11.166  0.1273  0.0098  0.0481
 1334DAPS   CNO15343  15.653  32.636  11.114 -0.1101 -0.2888  0.0369
 1334DAPS   PO415344  16.086  32.800  11.377 -0.2415 -0.1191 -0.0416
 1334DAPS   GL115345  16.399  32.967  11.671  0.2209 -0.1155 -0.2336
 1334DAPS   GL215346  16.588  32.726  11.785 -0.0702 -0.2430  0.1839
 1334DAPS   D1A15347  16.238  33.112  12.095  0.1019  0.0116  0.1300
 1334DAPS   D2A15348  16.116  32.687  12.379  0.3120 -0.1800  0.1450
 1334DAPS   D3A15349  16.546  32.552  12.413 -0.3283  0.0175 -0.3295
 1334DAPS   D4A15350  16.603  32.728  12.838  0.1583  0.3646 -0.0098
 1334DAPS   C5A15351  16.866  32.948  13.028 -0.0215  0.1578 -0.1389
 1334DAPS   D1B15352  16.671  32.951  12.108  0.0091 -0.2218  0.0210
 1334DAPS   D2B15353  16.467  33.040  12.516  0.1982 -0.2829 -0.4535
 1334DAPS   D3B15354  16.860  33.165  12.631  0.0875  0.0883  0.1983
 1334DAPS   D4B15355  17.021  33.381  13.130  0.0699 -0.1827  0.0727
 1334DAPS   C5B15356  17.298  33.108  13.236 -0.2191  0.0382 -0.1428
 1335DAPS   CNO15357   4.682  32.420  13.022 -0.1566  0.0430 -0.2267
 1335DAPS   PO415358   4.204  32.477  13.218 -0.1139 -0.0404  0.0073
 1335DAPS   GL115359   4.528  32.585  13.471 -0.0835  0.0799  0.5212
 1335DAPS   GL215360   4.669  32.845  13.339 -0.1699  0.1570 -0.1019
 1335DAPS   D1A15361   4.601  32.295  13.863  0.2168  0.1686 -0.2581
 1335DAPS   D2A15362   4.738  32.518  14.242  0.1335  0.2964 -0.2825
 1335DAPS   D3A15363   4.319  32.708  14.368  0.1942 -0.1727  0.0519
 1335DAPS   D4A15364   4.524  32.568  14.787  0.1710  0.0459  0.1318
 1335DAPS   C5A15365   4.674  32.245  14.805 -0.3275 -0.2157  0.0075
 1335DAPS   D1B15366   4.911  32.781  13.795  0.1661 -0.2956  0.1896
 1335DAPS   D2B15367   4.724  32.989  14.122  0.0916 -0.0171  0.1356
 1335DAPS   D3B15368   4.356  32.832  13.865  0.2264 -0.0005 -0.0977
 1335DAPS   D4B15369   3.880  32.748  13.881 -0.0421 -0.0240 -0.2022
 1335DAPS   C5B15370   3.781  33.196  13.748 -0.3776  0.0958  0.0597
 1336DAPS   CNO15371   6.932  24.890  12.786  0.0129  0.1788 -0.3914
 1336DAPS   PO415372   6.744  24.579  12.825 -0.2233  0.1336 -0.0922
 1336DAPS   GL115373   6.405  24.638  13.027 -0.4102  0.0690  0.1257
 1336DAPS   GL215374   6.073  24.688  12.927 -0.0307 -0.1523  0.2116
 1336DAPS   D1A15375   6.227  24.800  13.384  0.0369  0.0574  0.2352
 1336DAPS   D2A15376   5.925  24.511  13.406 -0.1076  0.0375 -0.1999
 1336DAPS   D3A15377   6.366  24.356  13.580 -0.0466  0.0032 -0.3673
 1336DAPS   D4A15378   6.618  24.027  13.689 -0.1028  0.1127 -0.0959
 1336DAPS   C5A15379   6.924  23.809  13.463  0.3509 -0.1065 -0.0394
 1336DAPS   D1B15380   5.716  24.623  12.926 -0.1644  0.0631 -0.0990
 1336DAPS   D2B15381   5.477  24.717  13.185  0.3266  0.0265  0.0979
 1336DAPS   D3B15382   5.532  24.820  13.548  0.1751  0.0476 -0.0481
 1336DAPS   D4B15383   5.107  24.682  13.577 -0.2871 -0.3141  0.1322
 1336DAPS   C5B15384   4.733  24.637  13.945  0.3118 -0.3532 -0.0418
 1337DAPS   CNO15385  23.779  12.454   2.577 -0.1112 -0.1373 -0.0421
 1337DAPS   PO415386  23.869  12.585   3.048  0.1877  0.2320 -0.1443
 1337DAPS   GL115387  24.133  12.721   3.281 -0.0083  0.1916  0.1709
 1337DAPS   GL215388  23.901  12.825   3.536 -0.0930 -0.1415 -0.0276
 1337DAPS   D1A15389  24.414  13.008   3.438 -0.0415  0.3950  0.0289
 1337DAPS   D2A15390  24.326  12.948   3.838 -0.0888 -0.2385 -0.1066
 1337DAPS   D3A15391  24.710  12.978   4.051  0.0925 -0.0716  0.1961
 1337DAPS   D4A15392  24.469  13.208   4.229  0.0745 -0.0425 -0.5648
 1337DAPS   C5A15393  24.114  13.102   4.208 -0.4821  0.1822 -0.0232
 1337DAPS   D1B15394  23.878  13.184   3.727  0.1390 -0.0945 -0.0884
 1337DAPS   D2B15395  23.895  13.571   3.947 -0.1205 -0.3878 -0.1210
 1337DAPS   D3B15396  23.934  13.565   4.379  0.3533 -0.0778 -0.0221
 1337DAPS   D4B15397  23.937  13.517   4.886 -0.3748 -0.2542 -0.1773
 1337DAPS   C5B15398  24.355  13.543   5.002  0.0663 -0.0536 -0.1845
 1338PRPS   CNO15399   4.299   7.555   8.969 -0.2353 -0.0693  0.1720
 1338PRPS   PO415400   3.956   7.811   8.766 -0.0934 -0.2284  0.1594
 1338PRPS   GL115401   3.465   7.915   8.698  0.1587  0.0391 -0.1043
 1338PRPS   GL215402   3.459   8.267   8.836  0.0922 -0.0160 -0.0147
 1338PRPS   D1A15403   3.026   7.944   8.648 -0.0466 -0.0199 -0.0715
 1338PRPS   D2A15404   2.704   7.821   8.412 -0.1761 -0.0557 -0.1347
 1338PRPS   D3A15405   2.579   8.186   8.144  0.3434  0.0050 -0.1956
 1338PRPS   D4A15406   2.604   7.918   7.905  0.3443  0.0935  0.0094
 1338PRPS   D5A15407   2.763   7.951   7.587 -0.0734 -0.2567 -0.1539
 1338PRPS   D6A15408   2.465   7.665   7.513  0.1809  0.0716 -0.1581
 1338PRPS   C1B15409   3.077   8.335   9.020  0.1331  0.0015  0.0847
 1338PRPS   C2B15410   2.693   8.439   9.163 -0.1372 -0.3127 -0.0024
 1338PRPS   C3B15411   2.309   8.393   9.455  0.0517 -0.1344 -0.1098
 1338PRPS   C4B15412   2.124   8.437   9.759  0.2972 -0.0733 -0.0889
 1339PRPS   CNO15413  32.998   0.286   7.670 -0.2264 -0.0028  0.0458
 1339PRPS   PO415414  33.192  35.242   7.645 -0.0731 -0.2700 -0.2947
 1339PRPS   GL115415  33.019  34.790   7.769 -0.1664 -0.1445  0.1250
 1339PRPS   GL215416  33.165  34.751   8.107  0.3074 -0.2806  0.3720
 1339PRPS   D1A15417  32.650  34.688   8.053  0.2262  0.0277 -0.1777
 1339PRPS   D2A15418  32.356  35.000   8.096  0.1802  0.1246  0.0591
 1339PRPS   D3A15419  32.273  34.911   7.629  0.0827 -0.2070 -0.2986
 1339PRPS   D4A15420  32.055  34.600   7.577  0.2659  0.0368  0.0889
 1339PRPS   D5A15421  31.742  34.409   7.324 -0.0813  0.2341  0.0522
 1339PRPS   D6A15422  31.415  34.463   7.560 -0.1848  0.1140  0.0127
 1339PRPS   C1B15423  33.029  34.764   8.481 -0.2256 -0.1365 -0.2521
 1339PRPS   C2B15424  32.891  34.537   8.846 -0.0287 -0.1164 -0.2428
 1339PRPS   C3B15425  32.525  34.485   9.110  0.0960 -0.0487 -0.0354
 1339PRPS   C4B15426  32.289  34.524   9.518 -0.3080  0.0955  0.1773
 1340PRPS   CNO15427  20.928  25.225   6.970 -0.2755 -0.1043  0.1210
 1340PRPS   PO415428  21.354  24.990   6.926  0.1546  0.2943 -0.0484
 1340PRPS   GL115429  21.680  24.952   7.207  0.0913  0.3513 -0.1139
 1340PRPS   GL215430  21.622  24.876   7.424 -0.0580  0.0680 -0.2347
 1340PRPS   D1A15431  22.035  24.722   7.074  0.1118  0.0626  0.1696
 1340PRPS   D2A15432  22.266  24.549   6.841  0.2664 -0.0135 -0.1761
 1340PRPS   D3A15433  22.616  24.770   6.861  0.1527  0.0186 -0.0933
 1340PRPS   D4A15434  23.097  24.623   7.003 -0.3462  0.1529  0.3019
 1340PRPS   D5A15435  23.402  24.567   6.772  0.2404  0.2151  0.0937
 1340PRPS   D6A15436  23.431  24.476   6.336 -0.0866  0.0178  0.4014
 1340PRPS   C1B15437  21.723  24.389   7.348 -0.1946  0.0843 -0.4456
 1340PRPS   C2B15438  22.171  24.372   7.402 -0.0882  0.0238  0.2696
 1340PRPS   C3B15439  22.547  24.495   7.360  0.2169 -0.0566 -0.1715
 1340PRPS   C4B15440  22.853  24.308   7.415 -0.0942  0.1634 -0.3066
 1341PRPS   CNO15441   7.660  28.052  16.819 -0.1228  0.0856  0.3188
 1341PRPS   PO415442   7.738  27.642  16.924  0.0961  0.0402  0.1056
 1341PRPS   GL115443   7.980  27.543  17.417 -0.0291 -0.0972 -0.0358
 1341PRPS   GL215444   8.038  27.795  17.480 -0.0263  0.2242  0.1141
 1341PRPS   D1A15445   8.119  27.293  17.706  0.1308 -0.0217 -0.1504
 1341PRPS   D2A15446   8.496  27.444  17.649 -0.0406 -0.4543  0.0682
 1341PRPS   D3A15447   8.798  27.675  17.364  0.1050 -0.0403  0.1031
 1341PRPS   D4A15448   8.540  27.944  17.377 -0.1088  0.0021 -0.1330
 1341PRPS   D5A15449   8.534  27.916  17.808 -0.1048  0.1399 -0.1069
 1341PRPS   D6A15450   8.357  27.560  18.091 -0.1895  0.2435  0.2119
 1341PRPS   C1B15451   7.623  27.724  17.722 -0.2558 -0.1550  0.0418
 1341PRPS   C2B15452   7.433  27.725  18.113  0.1668 -0.1332 -0.2414
 1341PRPS   C3B15453   7.253  27.703  18.475  0.0899 -0.1494 -0.5173
 1341PRPS   C4B15454   6.937  27.882  18.727  0.5193  0.1427 -0.0340
 1342PRPS   CNO15455  20.780  11.701   8.063 -0.0118  0.2704  0.0487
 1342PRPS   PO415456  21.264  11.672   7.844 -0.0377 -0.2337 -0.2189
 1342PRPS   GL115457  21.698  11.617   7.674  0.2583 -0.1226  0.2072
 1342PRPS   GL215458  22.009  11.966   7.557  0.2778  0.0225 -0.3409
 1342PRPS   D1A15459  21.985  11.241   7.703  0.1191  0.1685 -0.2724
 1342PRPS   D2A15460  22.151  11.491   7.411 -0.1332 -0.0900  0.0035
 1342PRPS   D3A15461  22.179  11.347   6.941 -0.1310  0.0090 -0.0821
 1342PRPS   D4A15462  22.188  10.998   6.876  0.1987 -0.2123 -0.0471
 1342PRPS   D5A15463  21.970  11.019   6.575  0.0757  0.0470  0.3140
 1342PRPS   D6A15464  22.268  11.233   6.399  0.1791  0.0436 -0.1668
 1342PRPS   C1B15465  22.402  12.240   7.502 -0.0945 -0.1964  0.3237
 1342PRPS   C2B15466  22.813  12.370   7.581  0.1483 -0.2007 -0.2403
 1342PRPS   C3B15467  23.055  12.450   7.253 -0.2132  0.0643 -0.0857
 1342PRPS   C4B15468  23.416  12.436   7.086  0.0241  0.1589  0.1423
 1343PRPS   CNO15469   5.350  23.977   8.761  0.2996 -0.0371  0.2654
 1343PRPS   PO415470   5.011  24.155   8.947  0.1764  0.1058  0.0440
 1343PRPS   GL115471   4.658  24.016   9.020  0.2307  0.2484  0.0976
 1343PRPS   GL215472   4.678  23.661   9.074 -0.1523 -0.0138 -0.1204
 1343PRPS   D1A15473   4.288  24.037   8.945  0.0778 -0.2068  0.3231
 1343PRPS   D2A15474   4.253  23.912   9.397 -0.1777 -0.1727 -0.3542
 1343PRPS   D3A15475   4.191  23.474   9.363 -0.1094  0.1475 -0.1082
 1343PRPS   D4A15476   4.060  23.381   9.834  0.0365  0.3842 -0.2005
 1343PRPS   D5A15477   3.682  23.122   9.905  0.1513  0.0299  0.1111
 1343PRPS   D6A15478   3.915  22.978   9.569 -0.0937 -0.1408  0.0394
 1343PRPS   C1B15479   4.524  23.246   9.092  0.1953 -0.0714  0.3891
 1343PRPS   C2B15480   4.242  22.926   9.170 -0.2611 -0.1860  0.0359
 1343PRPS   C3B15481   4.029  22.684   9.127 -0.1329 -0.4158  0.0121
 1343PRPS   C4B15482   4.081  22.378   8.670  0.3553 -0.2014 -0.1928
 1344PRPS   CNO15483  22.331  22.848   5.887  0.2896 -0.2445  0.1100
 1344PRPS   PO415484  21.997  22.741   6.149 -0.1379 -0.2523 -0.3220
 1344PRPS   GL115485  22.313  22.762   6.490  0.1903  0.3178  0.0377
 1344PRPS   GL215486  22.255  22.468   6.668  0.0768 -0.2541 -0.0257
 1344PRPS   D1A15487  22.450  23.036   6.765 -0.1737 -0.1257  0.1425
 1344PRPS   D2A15488  22.930  23.152   6.819 -0.0819 -0.0210  0.0202
 1344PRPS   D3A15489  22.878  22.700   6.719 -0.1108  0.1406 -0.0627
 1344PRPS   D4A15490  23.250  22.506   6.473 -0.0440 -0.1676 -0.3193
 1344PRPS   D5A15491  23.202  22.793   6.143  0.1327 -0.0730  0.0056
 1344PRPS   D6A15492  23.340  23.071   5.858  0.1710 -0.2841 -0.1470
 1344PRPS   C1B15493  22.531  22.539   6.980  0.2363  0.0291 -0.2188
 1344PRPS   C2B15494  22.579  22.812   7.222 -0.2709 -0.1785 -0.2542
 1344PRPS   C3B15495  22.632  22.998   7.571 -0.0847 -0.3547 -0.3787
 1344PRPS   C4B15496  22.578  23.140   8.000  0.2048 -0.1182 -0.4411
 1345PRPS   CNO15497  24.093  15.586   1.490  0.4854 -0.0124 -0.0241
 1345PRPS   PO415498  24.049  15.537   1.991  0.0924  0.0897  0.0389
 1345PRPS   GL115499  24.165  15.906   2.273 -0.1107  0.3236  0.0123
 1345PRPS   GL215500  24.447  15.748   2.290 -0.0802 -0.2457 -0.0428
 1345PRPS   D1A15501  23.839  16.060   2.323 -0.6565 -0.0470  0.0459
 1345PRPS   D2A15502  24.058  15.949   2.749  0.1417  0.0195  0.0399
 1345PRPS   D3A15503  23.966  15.970   3.183 -0.3009  0.1925  0.0420
 1345PRPS   D4A15504  23.455  15.999   3.171 -0.3228  0.0236 -0.4740
 1345PRPS   D5A15505  23.533  16.441   3.270  0.0222 -0.2707 -0.0671
 1345PRPS   D6A15506  23.951  16.500   3.047 -0.3675  0.3707  0.2041
 1345PRPS   C1B15507  24.653  15.774   2.553 -0.1387  0.1255  0.0002
 1345PRPS   C2B15508  24.908  16.062   2.703  0.1303  0.2031 -0.1062
 1345PRPS   C3B15509  25.061  16.392   2.557 -0.3909  0.0672 -0.2611
 1345PRPS   C4B15510  25.358  16.756   2.403  0.2719 -0.0603  0.2157
 1346PRPS   CNO15511   5.733  15.173   8.221  0.3186  0.0677  0.2006
 1346PRPS   PO415512   5.240  15.287   8.145  0.0465 -0.1194 -0.0401
 1346PRPS   GL115513   4.993  15.288   8.502 -0.4117 -0.3847 -0.0334
 1346PRPS   GL215514   4.800  15.398   8.360 -0.0863 -0.2249 -0.1879
 1346PRPS   D1A15515   4.733  15.478   8.835 -0.1609  0.3903 -0.1221
 1346PRPS   D2A15516   4.880  15.869   8.952 -0.0342 -0.1256  0.1432
 1346PRPS   D3A15517   4.679  15.702   9.299 -0.1062  0.1807  0.0180
 1346PRPS   D4A15518   4.500  16.046   9.180 -0.1386  0.1331 -0.0641
 1346PRPS   D5A15519   4.101  16.310   9.349 -0.1099  0.4206  0.0125
 1346PRPS   D6A15520   4.113  16.765   9.313 -0.1313  0.0773  0.0744
 1346PRPS   C1B15521   4.404  15.392   8.490  0.1513  0.2747  0.0941
 1346PRPS   C2B15522   4.044  15.307   8.654  0.0351  0.1947 -0.0174
 1346PRPS   C3B15523   3.699  15.233   8.816 -0.0259  0.1520 -0.1317
 1346PRPS   C4B15524   3.250  15.336   8.968  0.0266  0.2311 -0.0267
 1347PRPS   CNO15525  34.224  29.835   6.757  0.3180  0.0412  0.0506
 1347PRPS   PO415526  34.151  29.578   7.163  0.0500 -0.0909 -0.2960
 1347PRPS   GL115527  34.241  29.372   7.618 -0.2130 -0.0464  0.2399
 1347PRPS   GL215528  34.148  29.564   7.854 -0.0766  0.1428  0.2688
 1347PRPS   D1A15529  34.134  29.119   8.007  0.1925  0.0936  0.0076
 1347PRPS   D2A15530  33.873  28.890   8.198 -0.1890 -0.1675 -0.1810
 1347PRPS   D3A15531  34.008  28.527   8.129  0.0920 -0.0651 -0.0828
 1347PRPS   D4A15532  34.309  28.701   8.423 -0.2960 -0.0465  0.0579
 1347PRPS   D5A15533  34.671  28.905   8.240 -0.2210 -0.0209 -0.0092
 1347PRPS   D6A15534  34.463  28.795   7.901  0.2571  0.1387  0.2683
 1347PRPS   C1B15535  33.809  29.480   8.135  0.0687  0.1539  0.0295
 1347PRPS   C2B15536  33.614  29.303   8.402 -0.1107  0.1679 -0.0172
 1347PRPS   C3B15537  33.422  29.034   8.726  0.1157 -0.1646 -0.1544
 1347PRPS   C4B15538  33.527  28.872   9.084  0.1972 -0.1002 -0.4878
 1348PRPS   CNO15539   1.881  11.466   3.830  0.0983 -0.1357  0.1683
 1348PRPS   PO415540   1.677  11.781   3.674 -0.1386 -0.2148  0.0158
 1348PRPS   GL115541   1.346  11.727   3.960 -0.1030 -0.1682  0.0989
 1348PRPS   GL215542   1.281  12.004   4.004 -0.1364  0.1791  0.4084
 1348PRPS   D1A15543   1.106  11.579   4.306  0.0508 -0.0532  0.2259
 1348PRPS   D2A15544   1.170  11.296   4.753 -0.1943 -0.1311 -0.3702
 1348PRPS   D3A15545   1.314  10.959   4.837  0.3111  0.1442  0.0321
 1348PRPS   D4A15546   1.339  10.542   4.585 -0.1079 -0.2028 -0.1708
 1348PRPS   D5A15547   0.990  10.452   4.710 -0.1078 -0.0085  0.1262
 1348PRPS   D6A15548   0.994  10.646   5.140 -0.0968  0.2623 -0.0353
 1348PRPS   C1B15549   1.039  12.206   4.266 -0.3832  0.1650  0.0194
 1348PRPS   C2B15550   0.754  12.329   4.712  0.1583 -0.1002  0.2835
 1348PRPS   C3B15551   0.460  12.354   5.029 -0.0258  0.0458  0.0013
 1348PRPS   C4B15552   0.284  12.155   5.394 -0.3346  0.0105 -0.1436
 1349PRPS   CNO15553  22.098  28.441   5.913  0.2132 -0.0311  0.2041
 1349PRPS   PO415554  22.478  28.605   5.966  0.3279 -0.2055  0.1046
 1349PRPS   GL115555  22.996  28.698   5.971 -0.2364 -0.0425  0.3055
 1349PRPS   GL215556  23.024  28.959   6.080  0.0670 -0.1374 -0.0571
 1349PRPS   D1A15557  23.335  28.532   6.099 -0.0368 -0.0951 -0.0808
 1349PRPS   D2A15558  23.451  28.915   5.922 -0.0058  0.1680 -0.2550
 1349PRPS   D3A15559  23.722  29.191   6.119  0.1682 -0.2471 -0.0928
 1349PRPS   D4A15560  23.383  29.567   6.168 -0.2191 -0.5395 -0.1586
 1349PRPS   D5A15561  23.091  29.654   6.490  0.5053 -0.0454 -0.2538
 1349PRPS   D6A15562  23.166  30.123   6.494 -0.1999 -0.0114 -0.1426
 1349PRPS   C1B15563  23.153  29.121   6.489 -0.1050  0.0405 -0.2485
 1349PRPS   C2B15564  23.162  29.363   6.918 -0.0871 -0.2770 -0.0612
 1349PRPS   C3B15565  23.251  29.458   7.263 -0.0198  0.0197 -0.1083
 1349PRPS   C4B15566  23.483  29.811   7.379  0.2590  0.3457 -0.1052
 1350PRPS   CNO15567  17.218  29.864  11.123 -0.1094  0.3850 -0.2651
 1350PRPS   PO415568  17.262  29.367  11.019 -0.0891  0.1392 -0.0457
 1350PRPS   GL115569  17.437  29.369  11.418 -0.0411  0.3295  0.0568
 1350PRPS   GL215570  17.362  29.429  11.633 -0.3105  0.0552 -0.0686
 1350PRPS   D1A15571  17.858  29.383  11.518  0.2011  0.0623 -0.1004
 1350PRPS   D2A15572  18.083  29.416  11.172 -0.0582  0.0909 -0.2057
 1350PRPS   D3A15573  18.143  29.795  11.204  0.0373  0.1626  0.1283
 1350PRPS   D4A15574  17.704  29.868  11.340  0.1786 -0.1229 -0.2255
 1350PRPS   D5A15575  18.016  29.892  11.748 -0.1058 -0.2236 -0.2499
 1350PRPS   D6A15576  18.316  29.499  11.703  0.2788  0.4947 -0.2058
 1350PRPS   C1B15577  17.555  29.806  11.890 -0.2778  0.0042 -0.0612
 1350PRPS   C2B15578  17.850  29.971  12.180  0.1034 -0.1900  0.0277
 1350PRPS   C3B15579  18.283  30.244  12.159 -0.0711  0.0007 -0.2171
 1350PRPS   C4B15580  18.771  30.269  12.233  0.0468 -0.0262  0.2210
 1351PRPS   CNO15581   9.201  28.561  16.462  0.3024 -0.0574  0.0820
 1351PRPS   PO415582   9.549  28.806  16.718  0.3149  0.0517  0.0099
 1351PRPS   GL115583   9.561  28.915  17.194 -0.0810 -0.2023 -0.1029
 1351PRPS   GL215584   9.540  29.141  17.439  0.1300 -0.0151  0.0950
 1351PRPS   D1A15585   9.524  28.688  17.582  0.1893  0.0640 -0.0473
 1351PRPS   D2A15586   9.091  28.689  17.478  0.1187 -0.0205 -0.5352
 1351PRPS   D3A15587   9.031  28.616  17.900  0.2830 -0.1144 -0.0260
 1351PRPS   D4A15588   8.701  28.386  17.668  0.2403  0.0543  0.0255
 1351PRPS   D5A15589   8.391  28.692  17.612 -0.1214 -0.0718  0.1049
 1351PRPS   D6A15590   8.752  28.975  17.738 -0.1632  0.1312 -0.1912
 1351PRPS   C1B15591   9.344  29.045  17.856  0.1161 -0.0627 -0.0346
 1351PRPS   C2B15592   9.247  28.880  18.254 -0.0514  0.0044 -0.1158
 1351PRPS   C3B15593   8.894  28.728  18.382 -0.1552  0.0341 -0.0332
 1351PRPS   C4B15594   8.495  28.559  18.180 -0.0618 -0.0061  0.0488
 1352PRPS   CNO15595   5.912  25.230  12.952 -0.2028  0.3009  0.1630
 1352PRPS   PO415596   5.968  25.456  12.558  0.2270  0.0256  0.1283
 1352PRPS   GL115597   5.513  25.326  12.523  0.2192  0.4250  0.1559
 1352PRPS   GL215598   5.534  24.977  12.664 -0.0751  0.6211 -0.0657
 1352PRPS   D1A15599   5.017  25.290  12.452  0.0846 -0.0783  0.2633
 1352PRPS   D2A15600   4.832  25.717  12.319  0.3399  0.1061  0.3639
 1352PRPS   D3A15601   4.489  25.399  12.221 -0.2576 -0.0232 -0.0245
 1352PRPS   D4A15602   4.094  25.423  12.099  0.0475  0.0355 -0.0291
 1352PRPS   D5A15603   3.890  25.285  12.419  0.1995 -0.0570 -0.2232
 1352PRPS   D6A15604   3.886  25.811  12.500 -0.0864  0.0739  0.0327
 1352PRPS   C1B15605   5.284  24.587  12.709  0.0019 -0.2398  0.1808
 1352PRPS   C2B15606   5.018  24.440  12.995 -0.2254 -0.1846  0.1173
 1352PRPS   C3B15607   4.722  24.443  13.397  0.2769  0.0643  0.0355
 1352PRPS   C4B15608   4.203  24.384  13.375  0.2347  0.0211  0.1232
 1353PRPS   CNO15609  27.940  31.713   5.778  0.1513  0.2672  0.1446
 1353PRPS   PO415610  27.948  31.162   5.861 -0.1865 -0.2888 -0.3950
 1353PRPS   GL115611  28.065  30.720   6.007  0.0492  0.0685  0.1499
 1353PRPS   GL215612  27.896  30.659   6.228 -0.0814 -0.0823 -0.1667
 1353PRPS   D1A15613  28.389  30.404   6.189 -0.2156 -0.2581 -0.2552
 1353PRPS   D2A15614  28.599  30.529   6.649 -0.1325 -0.2024 -0.2260
 1353PRPS   D3A15615  28.442  30.161   6.694  0.0652 -0.0414 -0.1082
 1353PRPS   D4A15616  28.655  30.017   6.992  0.2662 -0.0377  0.2930
 1353PRPS   D5A15617  28.293  30.075   7.304  0.3435 -0.1214 -0.0673
 1353PRPS   D6A15618  28.354  29.792   7.490  0.0429 -0.2043  0.0092
 1353PRPS   C1B15619  28.125  30.555   6.603 -0.0901  0.2310 -0.1093
 1353PRPS   C2B15620  28.172  30.593   7.031  0.0776  0.0763  0.2373
 1353PRPS   C3B15621  28.238  30.517   7.462 -0.0669 -0.2052  0.1070
 1353PRPS   C4B15622  28.298  30.195   7.853 -0.0579 -0.0315  0.0461
 1354PRPS   CNO15623   7.400  20.854   9.746 -0.1612 -0.2445 -0.1605
 1354PRPS   PO415624   6.949  20.838   9.883  0.1326 -0.0730 -0.0402
 1354PRPS   GL115625   6.570  20.623  10.014 -0.2096  0.0151 -0.2655
 1354PRPS   GL215626   6.204  20.718   9.978 -0.0114  0.1705 -0.0929
 1354PRPS   D1A15627   6.411  20.263  10.168 -0.1902  0.1623 -0.2187
 1354PRPS   D2A15628   6.661  19.840   9.993 -0.2000 -0.0501  0.0732
 1354PRPS   D3A15629   6.526  19.390  10.088 -0.0880  0.0019  0.2575
 1354PRPS   D4A15630   6.302  19.359  10.475  0.0068  0.0108  0.3011
 1354PRPS   D5A15631   6.418  19.110  10.856  0.1279  0.3261  0.0627
 1354PRPS   D6A15632   6.762  19.287  10.989 -0.2340 -0.1118 -0.2624
 1354PRPS   C1B15633   6.028  20.934  10.241 -0.2464 -0.0627  0.0491
 1354PRPS   C2B15634   5.677  20.991  10.460 -0.0099  0.2225  0.4273
 1354PRPS   C3B15635   5.470  20.885  10.801 -0.1268  0.0252  0.0855
 1354PRPS   C4B15636   5.395  21.310  11.147 -0.0002 -0.1936  0.0240
 1355PRPS   CNO15637  33.140   9.834   1.713  0.3524 -0.2946  0.1121
 1355PRPS   PO415638  32.638   9.834   1.568  0.1467 -0.1617  0.1717
 1355PRPS   GL115639  32.358  10.121   1.783 -0.0912 -0.2427 -0.3210
 1355PRPS   GL215640  32.385  10.112   2.061  0.1999 -0.0915 -0.4092
 1355PRPS   D1A15641  31.922  10.082   1.886  0.1312 -0.0105  0.3256
 1355PRPS   D2A15642  31.884  10.229   1.556 -0.1214  0.1663 -0.0301
 1355PRPS   D3A15643  31.692  10.579   1.537 -0.2140  0.0896 -0.0172
 1355PRPS   D4A15644  31.893  10.876   1.860 -0.2981  0.2156 -0.2557
 1355PRPS   D5A15645  32.143  10.529   1.926 -0.1886 -0.2717  0.0404
 1355PRPS   D6A15646  31.787  10.476   2.191  0.0688 -0.0588 -0.1216
 1355PRPS   C1B15647  32.250  10.322   2.392  0.1118  0.0173  0.1621
 1355PRPS   C2B15648  32.025  10.356   2.726  0.1399 -0.3532 -0.0680
 1355PRPS   C3B15649  31.725  10.504   2.884 -0.0416  0.1962 -0.2102
 1355PRPS   C4B15650  31.380  10.676   2.934 -0.0988 -0.0633  0.1220
 1356PRPS   CNO15651  21.188   2.053   8.141  0.0713  0.0978  0.0157
 1356PRPS   PO415652  21.623   2.118   8.356  0.1137 -0.1752 -0.0961
 1356PRPS   GL115653  21.905   2.403   8.536 -0.3149 -0.2083  0.1957
 1356PRPS   GL215654  22.166   2.264   8.517  0.2187 -0.1702  0.1526
 1356PRPS   D1A15655  21.966   2.611   8.962  0.2096 -0.0645  0.0942
 1356PRPS   D2A15656  21.867   2.804   9.377 -0.0560  0.2896 -0.0214
 1356PRPS   D3A15657  21.472   2.890   9.338 -0.1881 -0.2582 -0.1571
 1356PRPS   D4A15658  21.603   2.901   9.789 -0.3071  0.1930 -0.0191
 1356PRPS   D5A15659  21.592   2.589  10.087 -0.1544  0.1693  0.1067
 1356PRPS   D6A15660  21.880   2.507   9.761 -0.0004  0.2742  0.1524
 1356PRPS   C1B15661  22.548   2.126   8.746  0.1335  0.4132  0.1676
 1356PRPS   C2B15662  22.632   2.127   9.164 -0.0427 -0.0043 -0.0141
 1356PRPS   C3B15663  22.864   2.016   9.557 -0.0653 -0.2073  0.0536
 1356PRPS   C4B15664  22.894   2.261   9.988  0.0357 -0.0860  0.1380
 1357PRPS   CNO15665  28.850   1.093   6.088 -0.1098  0.2706 -0.1905
 1357PRPS   PO415666  28.542   1.212   5.862  0.1221  0.2000  0.1079
 1357PRPS   GL115667  28.347   1.173   6.212  0.2415  0.0485  0.3053
 1357PRPS   GL215668  28.516   1.192   6.518  0.0425  0.3891  0.1343
 1357PRPS   D1A15669  27.967   0.996   6.353 -0.1546  0.2446 -0.0884
 1357PRPS   D2A15670  27.662   1.148   6.701  0.3221 -0.2235 -0.1801
 1357PRPS   D3A15671  27.876   1.180   7.071  0.1883 -0.1666 -0.0085
 1357PRPS   D4A15672  28.249   1.214   6.894  0.1418 -0.0924 -0.0462
 1357PRPS   D5A15673  28.235   0.784   6.718 -0.1785 -0.0244 -0.3089
 1357PRPS   D6A15674  28.566   0.520   6.875  0.1145  0.0097 -0.2141
 1357PRPS   C1B15675  28.736   1.029   6.871  0.2667  0.1116  0.1569
 1357PRPS   C2B15676  28.812   0.807   7.204 -0.1238 -0.2315  0.3621
 1357PRPS   C3B15677  28.793   0.912   7.604 -0.0280 -0.4185  0.0495
 1357PRPS   C4B15678  28.427   1.001   7.909  0.0365  0.0630 -0.1165
 1358PRPS   CNO15679   6.172   5.505  12.108 -0.2124 -0.1191  0.0736
 1358PRPS   PO415680   6.391   5.569  12.514  0.2260 -0.1301  0.0366
 1358PRPS   GL115681   6.054   5.283  12.513 -0.1253  0.0987 -0.0162
 1358PRPS   GL215682   5.808   5.270  12.389  0.1023 -0.0303  0.1014
 1358PRPS   D1A15683   5.862   5.454  12.921  0.0613  0.2591  0.0931
 1358PRPS   D2A15684   6.142   5.738  13.081 -0.1061 -0.0861 -0.1326
 1358PRPS   D3A15685   6.490   5.561  13.239 -0.1951  0.0714 -0.2078
 1358PRPS   D4A15686   6.760   5.621  13.423  0.1958  0.1752  0.0630
 1358PRPS   D5A15687   6.712   5.810  13.880 -0.0278 -0.1701  0.0061
 1358PRPS   D6A15688   6.353   5.705  14.169 -0.4530  0.0621 -0.1223
 1358PRPS   C1B15689   5.458   5.432  12.560  0.2485 -0.0801  0.0336
 1358PRPS   C2B15690   5.045   5.478  12.745  0.0742 -0.2311 -0.2234
 1358PRPS   C3B15691   4.525   5.533  12.830  0.1069  0.1687 -0.0645
 1358PRPS   C4B15692   4.170   5.340  12.720  0.2308 -0.2236 -0.1185
 1359PRPS   CNO15693  29.471  18.544  25.357  0.2849 -0.3811 -0.2758
 1359PRPS   PO415694  29.561  18.208  25.617  0.0933 -0.1625 -0.0050
 1359PRPS   GL115695  29.543  18.106  26.114 -0.1269 -0.2791  0.0256
 1359PRPS   GL215696  29.716  17.897   0.064 -0.1043  0.1073  0.0242
 1359PRPS   D1A15697  29.132  18.135   0.197  0.0453 -0.1061 -0.0346
 1359PRPS   D2A15698  29.128  18.373   0.625  0.0382  0.2194 -0.1630
 1359PRPS   D3A15699  28.753  18.060   0.657 -0.0854 -0.0493  0.1445
 1359PRPS   D4A15700  28.692  18.385   0.350  0.0432  0.0512 -0.0170
 1359PRPS   D5A15701  28.497  17.901   0.181 -0.0357  0.0308  0.1064
 1359PRPS   D6A15702  28.545  17.625   0.480 -0.1138 -0.0148 -0.1498
 1359PRPS   C1B15703  29.827  18.142   0.388  0.0970  0.2025  0.0308
 1359PRPS   C2B15704  29.949  18.310   0.783 -0.0863 -0.2041  0.0385
 1359PRPS   C3B15705  30.000  18.273   1.264  0.0004 -0.0111 -0.4108
 1359PRPS   C4B15706  30.338  18.257   1.474 -0.4926 -0.0229  0.2123
 1360PRPS   CNO15707  32.036   8.186   2.254 -0.2005 -0.0194 -0.0731
 1360PRPS   PO415708  32.347   8.440   2.475  0.1044  0.2805  0.0248
 1360PRPS   GL115709  32.023   8.467   2.729  0.0350  0.1620  0.3463
 1360PRPS   GL215710  32.123   8.650   3.068 -0.3700  0.1852  0.0350
 1360PRPS   D1A15711  31.548   8.409   2.880 -0.0395 -0.0358 -0.3316
 1360PRPS   D2A15712  31.592   8.716   3.201 -0.0134 -0.2131  0.2070
 1360PRPS   D3A15713  31.407   9.093   3.425  0.0478 -0.0730 -0.0800
 1360PRPS   D4A15714  31.153   9.068   3.119 -0.0061 -0.1705  0.0856
 1360PRPS   D5A15715  31.405   9.203   2.760  0.0491  0.0377 -0.1702
 1360PRPS   D6A15716  31.330   8.804   2.607  0.0138  0.5209  0.3142
 1360PRPS   C1B15717  31.983   8.927   3.414 -0.0755 -0.0517 -0.1750
 1360PRPS   C2B15718  31.747   9.223   3.722 -0.0290 -0.0105 -0.1549
 1360PRPS   C3B15719  31.685   9.490   3.910  0.0582 -0.2155 -0.0613
 1360PRPS   C4B15720  31.450   9.771   4.084 -0.4135  0.2612  0.1050
 1361PRPS   CNO15721   5.660  14.519   8.693 -0.0367 -0.0084  0.0481
 1361PRPS   PO415722   5.313  14.396   8.903 -0.1781 -0.1467  0.1861
 1361PRPS   GL115723   5.154  14.570   9.228  0.2429  0.0544 -0.2377
 1361PRPS   GL215724   5.137  14.300   9.415  0.3477  0.3357  0.2658
 1361PRPS   D1A15725   5.108  14.897   9.343 -0.1158 -0.3322 -0.0355
 1361PRPS   D2A15726   4.861  15.169   9.141 -0.0942  0.0975 -0.3669
 1361PRPS   D3A15727   5.214  15.285   9.026 -0.0186 -0.0713  0.1162
 1361PRPS   D4A15728   5.205  15.596   9.305 -0.1311  0.3864 -0.2878
 1361PRPS   D5A15729   4.875  15.572   9.753  0.0866 -0.0931  0.1147
 1361PRPS   D6A15730   4.738  15.243   9.630  0.0646 -0.0438  0.3960
 1361PRPS   C1B15731   4.668  14.390   9.546  0.3269 -0.0411  0.4641
 1361PRPS   C2B15732   4.261  14.275   9.722 -0.3832 -0.1865  0.0236
 1361PRPS   C3B15733   3.848  14.435   9.772 -0.3196  0.2635 -0.0625
 1361PRPS   C4B15734   3.506  14.524   9.569 -0.1977 -0.2953  0.3133
 1362PRPS   CNO15735  22.025  33.018   7.120 -0.0932 -0.0650  0.1062
 1362PRPS   PO415736  22.442  32.704   7.045 -0.0801 -0.2486  0.1560
 1362PRPS   GL115737  22.222  32.665   7.422 -0.0485  0.0479 -0.0545
 1362PRPS   GL215738  22.388  32.336   7.369 -0.0294 -0.0116  0.1010
 1362PRPS   D1A15739  21.971  32.810   7.696  0.0618 -0.0201 -0.3075
 1362PRPS   D2A15740  22.133  33.177   7.754 -0.2426 -0.1310 -0.2788
 1362PRPS   D3A15741  21.843  33.236   8.079  0.1755 -0.1223  0.1860
 1362PRPS   D4A15742  21.843  32.759   8.194 -0.2733  0.1647  0.2802
 1362PRPS   D5A15743  22.288  33.033   8.176  0.0058  0.1338  0.1073
 1362PRPS   D6A15744  22.502  32.845   8.445  0.0678  0.0689 -0.1264
 1362PRPS   C1B15745  22.702  32.490   7.625 -0.0761 -0.2079  0.0585
 1362PRPS   C2B15746  22.756  32.364   8.057 -0.4005  0.3398 -0.0397
 1362PRPS   C3B15747  23.110  32.272   8.370 -0.0195 -0.0020 -0.3758
 1362PRPS   C4B15748  23.178  32.529   8.783 -0.1124  0.1245 -0.1533
 1363PRPS   CNO15749  21.573  18.530   4.266  0.2884 -0.1988 -0.0187
 1363PRPS   PO415750  21.275  18.372   4.493  0.0975  0.1141 -0.1635
 1363PRPS   GL115751  21.726  18.505   4.697  0.1162 -0.3945 -0.1548
 1363PRPS   GL215752  21.994  18.367   4.623  0.0387  0.3473 -0.1441
 1363PRPS   D1A15753  21.985  18.926   4.719  0.0945  0.1095 -0.0594
 1363PRPS   D2A15754  22.297  19.137   4.883  0.1212 -0.0377  0.3354
 1363PRPS   D3A15755  22.633  19.123   4.677 -0.4299 -0.1572 -0.1318
 1363PRPS   D4A15756  22.914  19.410   4.505 -0.1266  0.1502 -0.1630
 1363PRPS   D5A15757  23.043  19.290   4.906  0.0066  0.0770 -0.2291
 1363PRPS   D6A15758  23.383  19.277   4.890 -0.0162 -0.1383  0.3677
 1363PRPS   C1B15759  22.090  18.222   5.032 -0.2564 -0.2018 -0.1311
 1363PRPS   C2B15760  22.151  18.086   5.508  0.0052 -0.0060 -0.0785
 1363PRPS   C3B15761  22.276  17.830   5.770  0.1559  0.3991 -0.3220
 1363PRPS   C4B15762  22.440  17.675   6.111 -0.0338  0.3463  0.1139
 1364PRPS   CNO15763  19.209  22.570  11.246 -0.0648 -0.0791 -0.2751
 1364PRPS   PO415764  19.442  22.868  11.424 -0.2370 -0.0742 -0.0726
 1364PRPS   GL115765  19.787  22.581  11.549  0.1538 -0.0440  0.1869
 1364PRPS   GL215766  19.853  22.776  11.877  0.3723 -0.1909  0.4530
 1364PRPS   D1A15767  20.170  22.428  11.692 -0.0205 -0.3885  0.1305
 1364PRPS   D2A15768  19.864  22.316  11.946  0.0352 -0.1134 -0.0920
 1364PRPS   D3A15769  20.302  22.149  12.040 -0.1498 -0.1367 -0.3092
 1364PRPS   D4A15770  20.702  22.332  11.871 -0.1200  0.2488 -0.1397
 1364PRPS   D5A15771  20.729  22.320  11.371 -0.2558 -0.4702  0.1264
 1364PRPS   D6A15772  20.432  22.501  11.193  0.1054  0.0224 -0.0342
 1364PRPS   C1B15773  20.370  22.832  11.973  0.0739 -0.2989 -0.0694
 1364PRPS   C2B15774  20.809  22.749  12.073 -0.1555  0.0747 -0.1727
 1364PRPS   C3B15775  21.246  22.944  12.085 -0.0515  0.1365  0.0101
 1364PRPS   C4B15776  21.592  23.079  12.237  0.0541  0.0885 -0.3220
 1365PRPS   CNO15777   5.519  33.898  13.493 -0.1189 -0.1612  0.0668
 1365PRPS   PO415778   5.200  33.708  13.473 -0.4058  0.2594  0.0217
 1365PRPS   GL115779   4.896  33.677  13.723  0.2687 -0.0118  0.0385
 1365PRPS   GL215780   4.981  33.446  13.918 -0.0179  0.4793  0.1846
 1365PRPS   D1A15781   4.432  33.804  13.680  0.0642 -0.1642 -0.1191
 1365PRPS   D2A15782   4.130  33.458  13.435 -0.0409  0.1435 -0.0011
 1365PRPS   D3A15783   4.144  32.904  13.384  0.1625 -0.0386 -0.1975
 1365PRPS   D4A15784   3.927  32.972  12.944  0.2136  0.2632 -0.1449
 1365PRPS   D5A15785   4.156  33.307  12.947  0.1264  0.0174  0.1499
 1365PRPS   D6A15786   4.198  33.827  13.134  0.0944 -0.0230 -0.1240
 1365PRPS   C1B15787   4.835  33.398  14.386  0.2288 -0.0254 -0.1263
 1365PRPS   C2B15788   4.490  33.285  14.555 -0.4317  0.1179 -0.0842
 1365PRPS   C3B15789   4.224  32.994  14.814 -0.3326  0.2424  0.3320
 1365PRPS   C4B15790   3.968  32.749  15.122 -0.2507 -0.1357 -0.1077
 1366PRPS   CNO15791  23.867  22.437   2.765 -0.0256 -0.0465  0.1931
 1366PRPS   PO415792  23.582  22.153   3.087 -0.1678 -0.3487  0.5176
 1366PRPS   GL115793  23.882  22.254   3.286 -0.0094 -0.2666 -0.2627
 1366PRPS   GL215794  24.081  22.464   3.301 -0.1323  0.1973 -0.0831
 1366PRPS   D1A15795  23.804  21.989   3.616 -0.2510 -0.2381  0.1192
 1366PRPS   D2A15796  23.841  21.907   3.973  0.0333  0.0897  0.1549
 1366PRPS   D3A15797  23.608  21.998   4.264 -0.0508  0.0616 -0.1510
 1366PRPS   D4A15798  23.564  22.387   4.024  0.0606 -0.0133 -0.1743
 1366PRPS   D5A15799  23.736  22.689   4.275  0.0640  0.2854  0.3466
 1366PRPS   D6A15800  23.824  22.458   4.682  0.1567  0.0009 -0.3497
 1366PRPS   C1B15801  24.303  22.173   3.551 -0.0471  0.0083 -0.4574
 1366PRPS   C2B15802  24.297  21.951   3.854 -0.1930 -0.4445  0.0304
 1366PRPS   C3B15803  24.578  21.850   4.186 -0.0311  0.3284  0.4803
 1366PRPS   C4B15804  24.555  21.843   4.676  0.2014  0.2573 -0.3034
 1367PRPS   CNO15805   6.037  26.444  14.422  0.1918  0.1597 -0.2612
 1367PRPS   PO415806   6.148  26.011  14.635 -0.0964  0.0198 -0.0914
 1367PRPS   GL115807   5.766  25.773  14.785  0.1125 -0.2361 -0.0575
 1367PRPS   GL215808   5.472  25.920  14.819 -0.0578 -0.0675 -0.1739
 1367PRPS   D1A15809   5.632  25.360  14.917  0.2862 -0.3844  0.1480
 1367PRPS   D2A15810   5.797  25.066  14.563 -0.0722  0.0258 -0.0164
 1367PRPS   D3A15811   6.161  24.843  14.487 -0.3502 -0.2424  0.0304
 1367PRPS   D4A15812   6.297  24.612  14.094 -0.0531 -0.3009  0.0187
 1367PRPS   D5A15813   5.948  24.803  13.854 -0.0536  0.0427 -0.1846
 1367PRPS   D6A15814   6.061  25.207  14.102  0.1258  0.0664 -0.1806
 1367PRPS   C1B15815   5.056  25.776  14.872 -0.0865 -0.1406  0.3762
 1367PRPS   C2B15816   5.045  25.394  14.789  0.1803  0.0756  0.0844
 1367PRPS   C3B15817   5.337  25.060  14.628 -0.3099 -0.2083 -0.2535
 1367PRPS   C4B15818   5.390  24.674  14.570  0.0729 -0.3132  0.0235
 1368PRPS   CNO15819  21.987  13.477   3.918 -0.1352  0.0780  0.3336
 1368PRPS   PO415820  21.982  13.159   4.177  0.0188 -0.1705  0.0037
 1368PRPS   GL115821  22.349  13.069   4.440  0.0470 -0.0275  0.0690
 1368PRPS   GL215822  22.670  12.973   4.327  0.2141  0.0294 -0.1539
 1368PRPS   D1A15823  22.564  13.137   4.795 -0.1550  0.4414  0.2276
 1368PRPS   D2A15824  22.737  12.794   5.141  0.2243 -0.0261  0.1096
 1368PRPS   D3A15825  23.063  12.457   5.046 -0.0360 -0.0113 -0.2220
 1368PRPS   D4A15826  23.378  12.436   5.290 -0.0562  0.0726 -0.0083
 1368PRPS   D5A15827  23.259  12.359   5.714  0.1868  0.0324 -0.0102
 1368PRPS   D6A15828  22.888  12.628   5.632  0.0933 -0.1018  0.0465
 1368PRPS   C1B15829  23.013  13.096   4.652  0.1477  0.2134  0.2404
 1368PRPS   C2B15830  23.143  13.052   5.004  0.2655 -0.1181 -0.3099
 1368PRPS   C3B15831  23.264  12.916   5.406 -0.1612 -0.0131  0.0872
 1368PRPS   C4B15832  23.679  13.133   5.577  0.2586 -0.0284 -0.0176
 1369PRPS   CNO15833  17.337  14.751  12.646  0.2624  0.1246  0.0265
 1369PRPS   PO415834  17.549  15.093  12.904 -0.2479  0.0395  0.0772
 1369PRPS   GL115835  17.855  14.773  12.907  0.1342 -0.3358  0.1295
 1369PRPS   GL215836  17.833  14.564  13.233  0.1153  0.1983  0.0186
 1369PRPS   D1A15837  18.287  14.854  12.930  0.2409 -0.0082 -0.0300
 1369PRPS   D2A15838  18.351  14.399  12.936 -0.0793  0.1757 -0.0667
 1369PRPS   D3A15839  18.021  14.075  12.976  0.1662 -0.1254  0.0492
 1369PRPS   D4A15840  18.285  13.892  12.672  0.0304 -0.2506 -0.0445
 1369PRPS   D5A15841  18.673  14.075  12.584  0.2056 -0.1128 -0.1317
 1369PRPS   D6A15842  18.848  14.123  12.932  0.2379 -0.1573 -0.0280
 1369PRPS   C1B15843  18.251  14.498  13.384  0.0180  0.1005 -0.2308
 1369PRPS   C2B15844  18.582  14.816  13.341  0.1491  0.0609  0.4174
 1369PRPS   C3B15845  18.541  15.211  13.326 -0.1167  0.1468 -0.1363
 1369PRPS   C4B15846  18.474  15.381  12.997  0.0198  0.0128  0.1142
 1370PRPS   CNO15847  30.578   8.526   1.455  0.2701  0.1553 -0.0054
 1370PRPS   PO415848  30.660   8.825   1.807  0.2238  0.0046  0.0216
 1370PRPS   GL115849  30.716   9.143   2.190 -0.1557 -0.2066 -0.0047
 1370PRPS   GL215850  30.512   9.521   2.209  0.0645 -0.1343 -0.0876
 1370PRPS   D1A15851  30.716   9.152   2.583  0.1185  0.0034  0.2360
 1370PRPS   D2A15852  30.263   9.232   2.532  0.0727  0.2123  0.0284
 1370PRPS   D3A15853  29.962   9.031   2.333  0.0583 -0.1271 -0.1532
 1370PRPS   D4A15854  29.988   8.576   2.384  0.0375  0.1519 -0.2261
 1370PRPS   D5A15855  30.163   8.462   2.743 -0.0091  0.1958  0.1154
 1370PRPS   D6A15856  30.429   8.671   2.597 -0.1707  0.1209 -0.2367
 1370PRPS   C1B15857  30.411   9.675   2.648 -0.1308  0.2485  0.2376
 1370PRPS   C2B15858  30.144   9.580   3.001 -0.0231 -0.0744 -0.0185
 1370PRPS   C3B15859  30.242   9.514   3.377  0.3529  0.0912 -0.2672
 1370PRPS   C4B15860  30.400   9.302   3.651  0.2640 -0.1989 -0.2656
 1371PRPS   CNO15861   3.583  26.927  11.779 -0.3874  0.0239 -0.2223
 1371PRPS   PO415862   3.256  27.058  11.399 -0.1107 -0.0114  0.2679
 1371PRPS   GL115863   3.109  26.675  11.455 -0.0338 -0.1828  0.0478
 1371PRPS   GL215864   3.284  26.385  11.387 -0.3698  0.1432 -0.0397
 1371PRPS   D1A15865   2.968  26.518  11.819 -0.1123 -0.0509  0.0572
 1371PRPS   D2A15866   3.447  26.455  11.841  0.4500  0.4995 -0.1478
 1371PRPS   D3A15867   3.578  26.225  12.220 -0.2418  0.0926  0.1507
 1371PRPS   D4A15868   3.255  25.931  12.383  0.0517  0.0992  0.1708
 1371PRPS   D5A15869   3.376  25.579  12.548 -0.4680 -0.1534  0.0070
 1371PRPS   D6A15870   3.079  25.364  12.303  0.2255  0.2043  0.3178
 1371PRPS   C1B15871   2.838  26.165  11.499  0.2748 -0.1063 -0.1504
 1371PRPS   C2B15872   2.538  25.978  11.645 -0.2339  0.0823  0.1502
 1371PRPS   C3B15873   2.247  25.929  11.876  0.0025  0.1019 -0.0541
 1371PRPS   C4B15874   1.891  25.853  12.101 -0.1266 -0.2023  0.0871
 1372PRPS   CNO15875   4.667  14.199   7.251 -0.1211 -0.1148  0.0859
 1372PRPS   PO415876   4.486  13.910   6.946 -0.2298  0.0875 -0.0019
 1372PRPS   GL115877   4.192  14.084   7.217 -0.2171  0.1161  0.0600
 1372PRPS   GL215878   4.005  14.010   6.958  0.1939 -0.1241  0.0943
 1372PRPS   D1A15879   3.856  14.173   7.541  0.2366 -0.2040 -0.2874
 1372PRPS   D2A15880   3.550  14.518   7.594  0.0133  0.2963  0.1394
 1372PRPS   D3A15881   3.340  14.170   7.756 -0.0150  0.1605  0.1818
 1372PRPS   D4A15882   3.113  14.263   8.041 -0.3250  0.2430 -0.1131
 1372PRPS   D5A15883   3.008  14.620   8.114  0.1327 -0.1273 -0.0710
 1372PRPS   D6A15884   3.322  14.880   7.871 -0.0628 -0.1647 -0.1491
 1372PRPS   C1B15885   3.679  13.851   7.247 -0.1852  0.1555 -0.0207
 1372PRPS   C2B15886   3.269  13.901   7.342 -0.1663 -0.3557 -0.2778
 1372PRPS   C3B15887   2.879  14.000   7.543  0.1519 -0.0513 -0.0340
 1372PRPS   C4B15888   2.556  14.242   7.769 -0.1233  0.2004  0.0972
 1373PRPS   CNO15889  19.813  22.659   9.414 -0.0834  0.0364 -0.1532
 1373PRPS   PO415890  20.205  22.783   9.617 -0.0772 -0.0379 -0.2923
 1373PRPS   GL115891  20.524  22.630   9.962 -0.0740  0.0707 -0.1396
 1373PRPS   GL215892  20.648  22.699  10.353 -0.3638  0.0141 -0.0967
 1373PRPS   D1A15893  21.030  22.544  10.006  0.3633  0.0281 -0.2128
 1373PRPS   D2A15894  21.199  22.195  10.306  0.1312  0.2742 -0.2985
 1373PRPS   D3A15895  21.488  22.430  10.176 -0.0791  0.4080  0.2378
 1373PRPS   D4A15896  21.883  22.418  10.071  0.1324 -0.0317  0.0107
 1373PRPS   D5A15897  21.666  22.482   9.709 -0.1692  0.2632 -0.0894
 1373PRPS   D6A15898  21.318  22.803   9.752 -0.1983 -0.0011  0.1839
 1373PRPS   C1B15899  21.038  22.622  10.515  0.2544  0.1715 -0.1911
 1373PRPS   C2B15900  21.298  22.824  10.768  0.2190  0.0100  0.2838
 1373PRPS   C3B15901  21.655  23.185  11.020 -0.2562  0.1889 -0.1163
 1373PRPS   C4B15902  22.050  23.306  11.065  0.2241 -0.1322  0.2679
 1374PRPS   CNO15903   7.720   9.387  12.254 -0.0489 -0.1524  0.1669
 1374PRPS   PO415904   7.253   9.376  12.317 -0.0586  0.1959  0.3986
 1374PRPS   GL115905   6.822   9.555  12.290  0.1043  0.2889 -0.1240
 1374PRPS   GL215906   6.536   9.283  12.257 -0.2684  0.3798  0.1392
 1374PRPS   D1A15907   6.386   9.797  12.153  0.2598  0.0273 -0.3572
 1374PRPS   D2A15908   6.133  10.125  12.400  0.0067 -0.1704 -0.0320
 1374PRPS   D3A15909   6.523  10.144  12.465 -0.1304 -0.1374  0.0950
 1374PRPS   D4A15910   6.850  10.291  12.196  0.1042 -0.0071  0.1712
 1374PRPS   D5A15911   6.902  10.797  12.332  0.1508  0.2915 -0.0252
 1374PRPS   D6A15912   6.632  10.810  12.012 -0.0574  0.3588 -0.1549
 1374PRPS   C1B15913   6.238   9.477  12.485 -0.3099 -0.1004  0.0690
 1374PRPS   C2B15914   5.877   9.580  12.696 -0.0548  0.4651 -0.1752
 1374PRPS   C3B15915   5.475   9.585  12.892 -0.2563  0.1939  0.0764
 1374PRPS   C4B15916   5.097   9.385  13.058  0.0438  0.4689  0.0734
 1375PRPS   CNO15917  30.407  20.918  25.715  0.0923  0.1724  0.2622
 1375PRPS   PO415918  30.809  21.212  25.850 -0.1963 -0.2280  0.1531
 1375PRPS   GL115919  30.876  21.046  26.229 -0.5997  0.3152  0.0941
 1375PRPS   GL215920  30.628  20.938   0.070  0.0092 -0.1300 -0.1250
 1375PRPS   D1A15921  30.725  21.363   0.407  0.1554 -0.0926  0.0080
 1375PRPS   D2A15922  30.350  21.211   0.709  0.2093 -0.0456  0.3647
 1375PRPS   D3A15923  29.950  21.376   0.492  0.0056 -0.4153 -0.2195
 1375PRPS   D4A15924  29.477  21.394   0.609 -0.0682 -0.2579 -0.1302
 1375PRPS   D5A15925  29.370  21.736   0.494  0.2231 -0.2082 -0.2168
 1375PRPS   D6A15926  29.757  21.739   0.775 -0.0503  0.0794  0.0790
 1375PRPS   C1B15927  30.578  20.812   0.468 -0.0606  0.1389  0.2081
 1375PRPS   C2B15928  30.305  20.644   0.738  0.0526 -0.0297  0.0397
 1375PRPS   C3B15929  30.168  20.792   1.152  0.0327  0.1427  0.1954
 1375PRPS   C4B15930  30.026  20.588   1.490 -0.0053 -0.0644 -0.0540
 1376PRPS   CNO15931  26.607   9.079   1.972  0.1341  0.2648 -0.0450
 1376PRPS   PO415932  26.864   9.513   2.088  0.1414 -0.0778  0.0610
 1376PRPS   GL115933  27.010   9.916   2.143  0.0654  0.0742 -0.0171
 1376PRPS   GL215934  26.841  10.110   2.378 -0.5344 -0.2914 -0.1971
 1376PRPS   D1A15935  27.234  10.217   1.994 -0.2319 -0.2222  0.0470
 1376PRPS   D2A15936  27.462   9.720   2.016  0.1173  0.3017  0.1559
 1376PRPS   D3A15937  27.206   9.559   2.486 -0.0631  0.4330 -0.2698
 1376PRPS   D4A15938  27.401   9.961   2.515 -0.3065  0.0458  0.4002
 1376PRPS   D5A15939  27.672  10.210   2.175  0.0750  0.1269 -0.1761
 1376PRPS   D6A15940  27.942   9.810   2.202 -0.3628 -0.1329  0.1311
 1376PRPS   C1B15941  26.953  10.092   2.780 -0.1405 -0.2151  0.2388
 1376PRPS   C2B15942  26.939   9.935   3.188 -0.2034 -0.1164 -0.1721
 1376PRPS   C3B15943  26.899  10.218   3.552 -0.0951  0.3214 -0.1465
 1376PRPS   C4B15944  26.749  10.400   3.886  0.0419  0.2195  0.1950
 1377PRPS   CNO15945  33.467  12.727   1.324 -0.2121 -0.2319  0.1837
 1377PRPS   PO415946  33.829  12.736   1.144 -0.0386 -0.0180 -0.3418
 1377PRPS   GL115947  33.907  12.793   1.642 -0.2324  0.2687 -0.0066
 1377PRPS   GL215948  33.649  12.667   1.775  0.0919 -0.3355  0.2096
 1377PRPS   D1A15949  33.685  13.042   2.108  0.2934 -0.1540 -0.1979
 1377PRPS   D2A15950  33.787  13.506   2.282 -0.3215  0.4121 -0.1432
 1377PRPS   D3A15951  34.136  13.677   2.099  0.0322 -0.0947  0.1553
 1377PRPS   D4A15952  34.202  13.431   2.519  0.0001  0.2089  0.1473
 1377PRPS   D5A15953  34.028  13.041   2.451 -0.0719 -0.1133 -0.1926
 1377PRPS   D6A15954  34.166  12.805   2.080  0.0601 -0.0849 -0.1929
 1377PRPS   C1B15955  33.659  12.618   2.197 -0.1594 -0.3965  0.2744
 1377PRPS   C2B15956  33.587  12.591   2.570 -0.1482 -0.0727 -0.0528
 1377PRPS   C3B15957  33.338  12.476   2.929  0.1739 -0.2462 -0.3457
 1377PRPS   C4B15958  33.058  12.410   3.219  0.0078  0.0975  0.4375
 1378PRPS   CNO15959  20.920  13.595   6.652 -0.0324  0.1072 -0.0948
 1378PRPS   PO415960  20.956  13.267   6.285 -0.1147 -0.2454 -0.1733
 1378PRPS   GL115961  21.387  13.482   6.256  0.1847  0.0549 -0.0115
 1378PRPS   GL215962  21.506  13.814   5.981 -0.1129  0.0904 -0.0796
 1378PRPS   D1A15963  21.762  13.289   6.320 -0.0651  0.0935 -0.0975
 1378PRPS   D2A15964  21.880  12.950   6.263 -0.1366  0.2974 -0.3470
 1378PRPS   D3A15965  22.139  13.055   6.633 -0.3789 -0.0781 -0.1224
 1378PRPS   D4A15966  22.124  12.956   7.026 -0.0849  0.4157 -0.0504
 1378PRPS   D5A15967  21.791  13.116   7.135  0.2134  0.1121  0.1487
 1378PRPS   D6A15968  21.670  12.936   6.788 -0.1487 -0.4089  0.0268
 1378PRPS   C1B15969  21.939  13.733   6.123 -0.0023 -0.1256 -0.1351
 1378PRPS   C2B15970  22.334  13.827   6.218 -0.0177  0.0834 -0.2665
 1378PRPS   C3B15971  22.684  13.865   6.368  0.0898  0.0630  0.0917
 1378PRPS   C4B15972  23.168  13.879   6.444 -0.2172 -0.1485  0.1353
 1379PRPS   CNO15973  28.284  25.223   1.586 -0.1860  0.3198  0.0221
 1379PRPS   PO415974  28.592  25.469   1.506 -0.0359  0.0017 -0.3839
 1379PRPS   GL115975  28.758  25.226   1.833  0.2293 -0.0848 -0.0508
 1379PRPS   GL215976  28.528  24.998   1.943  0.5521 -0.0505 -0.0038
 1379PRPS   D1A15977  29.165  25.216   1.720 -0.0794  0.0499  0.3931
 1379PRPS   D2A15978  28.937  24.724   1.656  0.1346  0.1965 -0.1678
 1379PRPS   D3A15979  29.055  24.288   1.712  0.1366 -0.0035  0.0318
 1379PRPS   D4A15980  28.645  24.442   1.929  0.0111  0.1491  0.0965
 1379PRPS   D5A15981  28.578  24.145   1.618  0.1628 -0.1177 -0.2394
 1379PRPS   D6A15982  28.699  24.432   1.257 -0.0129 -0.1900 -0.2932
 1379PRPS   C1B15983  28.538  24.792   2.358 -0.0064  0.1291  0.0012
 1379PRPS   C2B15984  28.636  24.597   2.621 -0.1336 -0.4494  0.1003
 1379PRPS   C3B15985  28.537  24.160   2.679  0.4448  0.3964 -0.1858
 1379PRPS   C4B15986  28.353  23.880   2.970 -0.2135 -0.0659  0.2706
 1380DPSM   NC315987   1.262  20.511   2.480  0.2788 -0.1152 -0.1420
 1380DPSM   PO415988   1.418  20.915   2.634  0.1900  0.2307  0.4280
 1380DPSM   AM115989   1.245  20.567   2.939  0.0416 -0.0225 -0.5971
 1380DPSM   AM215990   1.285  20.753   3.258  0.2147 -0.4297  0.0356
 1380DPSM   T1A15991   0.841  20.497   3.167 -0.2796  0.3350  0.1743
 1380DPSM   C2A15992   0.591  20.561   3.534 -0.1102  0.2882 -0.0240
 1380DPSM   C3A15993   0.351  20.446   3.791 -0.1131  0.2696  0.1479
 1380DPSM   C1B15994   1.105  20.623   3.672 -0.3814 -0.1115 -0.0673
 1380DPSM   C2B15995   0.841  20.605   3.968  0.1552  0.2770 -0.0796
 1380DPSM   C3B15996   0.403  20.656   4.246  0.1148 -0.0700 -0.2660
 1380DPSM   C4B15997   0.038  20.749   4.347  0.1429 -0.2586  0.5316
 1381DPSM   NC315998   2.544  30.866  11.736  0.1217  0.3748  0.2013
 1381DPSM   PO415999   2.818  30.628  11.982  0.2605 -0.0857  0.1573
 1381DPSM   AM116000   2.533  30.556  12.281  0.1245 -0.1387 -0.1673
 1381DPSM   AM216001   2.596  30.800  12.513 -0.1404 -0.0841 -0.1689
 1381DPSM   T1A16002   2.087  30.479  12.382  0.0342  0.2401 -0.0111
 1381DPSM   C2A16003   1.673  30.471  12.680  0.1128  0.0897 -0.0128
 1381DPSM   C3A16004   1.459  30.715  12.984  0.1435  0.0714 -0.1068
 1381DPSM   C1B16005   2.164  30.839  12.675 -0.2588 -0.1887 -0.0969
 1381DPSM   C2B16006   1.870  31.032  12.893 -0.1218 -0.0808  0.1280
 1381DPSM   C3B16007   1.663  31.095  13.228  0.0520 -0.2582 -0.0844
 1381DPSM   C4B16008   1.389  31.151  13.581  0.2304 -0.1494  0.1323
 1382DPSM   NC316009  17.699  14.190  12.148  0.1743 -0.3086  0.0366
 1382DPSM   PO416010  17.930  13.888  12.111 -0.1616  0.0172 -0.5881
 1382DPSM   AM116011  18.352  13.684  12.191 -0.3386  0.0153 -0.0215
 1382DPSM   AM216012  18.480  13.926  12.076  0.0961  0.0369  0.1984
 1382DPSM   T1A16013  18.851  13.607  12.335 -0.2963 -0.0602  0.1268
 1382DPSM   C2A16014  19.237  13.674  12.444 -0.2439  0.1214  0.1421
 1382DPSM   C3A16015  19.639  13.897  12.637 -0.2066  0.2228  0.0763
 1382DPSM   C1B16016  18.938  14.050  12.177 -0.3919  0.1649 -0.2656
 1382DPSM   C2B16017  19.160  14.170  12.564 -0.3117 -0.0124  0.2090
 1382DPSM   C3B16018  19.335  14.200  12.870  0.2479  0.1196 -0.0040
 1382DPSM   C4B16019  19.307  14.033  13.130  0.0671  0.3374  0.1050
 1383DPSM   NC316020   4.238  26.342  11.205 -0.1488 -0.2794  0.1037
 1383DPSM   PO416021   4.028  26.024  10.905  0.0507 -0.0927 -0.0462
 1383DPSM   AM116022   4.139  25.579  10.961 -0.0263  0.0602  0.3411
 1383DPSM   AM216023   3.915  25.476  10.713  0.2704  0.1975  0.2333
 1383DPSM   T1A16024   4.380  25.349  11.305 -0.1511 -0.0195 -0.2695
 1383DPSM   C2A16025   4.301  25.239  11.681  0.1154  0.0989  0.1073
 1383DPSM   C3A16026   4.077  24.900  11.900 -0.3222 -0.2185 -0.1691
 1383DPSM   C1B16027   3.778  24.953  10.581  0.1656  0.2933 -0.0990
 1383DPSM   C2B16028   3.381  24.636  10.511 -0.0124 -0.4587  0.5168
 1383DPSM   C3B16029   3.112  24.462  10.273 -0.1262  0.2792 -0.0112
 1383DPSM   C4B16030   3.062  24.094  10.033  0.0431 -0.0895 -0.0391
 1384DPSM   NC316031  18.388  24.704  12.804  0.0489 -0.3782 -0.0188
 1384DPSM   PO416032  18.439  24.732  13.209  0.1644 -0.4066  0.0921
 1384DPSM   AM116033  18.525  24.589  13.629  0.1102  0.1619 -0.0391
 1384DPSM   AM216034  18.394  24.203  13.613 -0.2905  0.1935  0.0138
 1384DPSM   T1A16035  18.806  24.622  13.975 -0.0049  0.0199 -0.4091
 1384DPSM   C2A16036  19.216  24.746  14.232  0.0031  0.1756  0.0247
 1384DPSM   C3A16037  19.333  24.917  14.626  0.4412  0.2651 -0.1735
 1384DPSM   C1B16038  18.731  24.173  13.970 -0.0860  0.2002  0.1412
 1384DPSM   C2B16039  19.062  24.275  14.212  0.3534 -0.0235 -0.1404
 1384DPSM   C3B16040  19.375  24.315  14.519  0.0994  0.1072 -0.0758
 1384DPSM   C4B16041  19.620  24.572  14.848  0.1663 -0.0159  0.2262
 1385DPSM   NC316042   5.378  18.683   6.856 -0.0375 -0.1560 -0.2620
 1385DPSM   PO416043   5.187  18.296   7.127 -0.2454  0.1635 -0.2527
 1385DPSM   AM116044   4.733  18.237   7.202 -0.0180 -0.3619 -0.0440
 1385DPSM   AM216045   4.776  18.308   7.517 -0.2498 -0.0126 -0.1467
 1385DPSM   T1A16046   4.294  18.350   7.304 -0.3588 -0.1306 -0.0789
 1385DPSM   C2A16047   3.977  18.207   7.358  0.0713  0.2113 -0.0731
 1385DPSM   C3A16048   3.657  18.114   7.666 -0.5384 -0.3317 -0.0099
 1385DPSM   C1B16049   4.666  18.457   7.965 -0.1596 -0.0401 -0.1025
 1385DPSM   C2B16050   4.563  18.460   8.390  0.2495 -0.2113 -0.0401
 1385DPSM   C3B16051   4.240  18.570   8.598  0.0771  0.1079 -0.2550
 1385DPSM   C4B16052   3.842  18.306   8.555 -0.1250 -0.3506  0.0519
 1386POSM   NC316053   5.332  28.635  14.257 -0.0302 -0.1722 -0.2659
 1386POSM   PO416054   5.151  28.494  14.648  0.0842  0.0043 -0.1482
 1386POSM   AM116055   4.983  28.447  15.055  0.0701 -0.1055 -0.0943
 1386POSM   AM216056   5.036  28.156  15.248 -0.2697  0.2703  0.0321
 1386POSM   T1A16057   4.750  28.532  15.401  0.0019  0.2374 -0.0221
 1386POSM   C2A16058   4.393  28.746  15.622  0.0633  0.1425 -0.1451
 1386POSM   C3A16059   4.060  28.999  15.576 -0.0121  0.0317  0.2832
 1386POSM   C1B16060   4.834  28.083  15.634  0.0481 -0.1139 -0.1719
 1386POSM   D2B16061   4.616  28.343  15.884  0.2591 -0.0394 -0.3027
 1386POSM   C3B16062   4.564  28.247  16.323  0.3616 -0.0298 -0.2614
 1386POSM   C4B16063   4.116  28.429  16.602  0.1183  0.1313  0.2539
 1387POSM   NC316064  29.588  10.643   0.234 -0.0590 -0.1034 -0.1057
 1387POSM   PO416065  29.762  10.381   0.509 -0.1015 -0.0649  0.0833
 1387POSM   AM116066  29.380  10.337   0.852 -0.0753  0.0951  0.1311
 1387POSM   AM216067  29.075  10.144   0.882  0.1510  0.2828 -0.1955
 1387POSM   T1A16068  29.465  10.568   1.166  0.1490 -0.0396  0.3718
 1387POSM   C2A16069  29.509  10.713   1.498 -0.0294  0.0631 -0.3005
 1387POSM   C3A16070  29.700  10.855   1.912 -0.3972 -0.1011 -0.3992
 1387POSM   C1B16071  29.172  10.192   1.329 -0.2345  0.0017  0.0532
 1387POSM   D2B16072  29.156  10.066   1.719 -0.1583 -0.0915 -0.1758
 1387POSM   C3B16073  29.241  10.110   2.137 -0.0212 -0.0866 -0.1416
 1387POSM   C4B16074  29.561  10.220   2.372  0.2780 -0.0723  0.0641
 1388POSM   NC316075   7.372  18.921  12.499 -0.4434 -0.1066  0.1345
 1388POSM   PO416076   7.427  18.910  12.830 -0.0476  0.2849  0.1665
 1388POSM   AM116077   7.220  18.944  13.295 -0.2891  0.0657 -0.1999
 1388POSM   AM216078   7.350  18.636  13.498  0.4179  0.1294 -0.1702
 1388POSM   T1A16079   6.909  18.996  13.450 -0.0398 -0.0346  0.2097
 1388POSM   C2A16080   6.564  19.032  13.793 -0.0531  0.2310  0.0819
 1388POSM   C3A16081   6.059  19.110  13.802 -0.0818 -0.0301  0.0077
 1388POSM   C1B16082   7.017  18.537  13.702  0.0034  0.0146  0.0584
 1388POSM   D2B16083   6.657  18.524  13.954 -0.1162 -0.0016 -0.4077
 1388POSM   C3B16084   6.629  18.391  14.383  0.2130  0.3312  0.2345
 1388POSM   C4B16085   6.409  18.213  14.726  0.0552 -0.0696  0.3521
 1389POSM   NC316086  20.053  16.349   7.969 -0.0307 -0.1852 -0.1375
 1389POSM   PO416087  20.069  16.180   8.387  0.0713  0.0280 -0.3438
 1389POSM   AM116088  20.419  16.151   8.720  0.4415 -0.1587 -0.1334
 1389POSM   AM216089  20.557  16.388   8.459 -0.0828 -0.0942 -0.0638
 1389POSM   T1A16090  20.671  15.983   8.962 -0.3503 -0.3251 -0.1401
 1389POSM   C2A16091  21.023  16.010   8.823 -0.0999 -0.1043 -0.0027
 1389POSM   C3A16092  21.435  16.091   8.770  0.1858  0.3466 -0.0138
 1389POSM   C1B16093  20.962  16.450   8.493  0.0949 -0.1228  0.0775
 1389POSM   D2B16094  21.302  16.598   8.657 -0.2369  0.1714 -0.1798
 1389POSM   C3B16095  21.736  16.566   8.775 -0.2120  0.0215 -0.1388
 1389POSM   C4B16096  21.884  16.185   8.924 -0.0214  0.2051  0.3307
 1390POSM   NC316097  26.202   3.063   6.502 -0.2066 -0.3509  0.1691
 1390POSM   PO416098  26.638   2.884   6.433  0.1234  0.3329  0.0211
 1390POSM   AM116099  27.053   3.047   6.664 -0.2888 -0.2089  0.3230
 1390POSM   AM216100  26.958   2.818   6.781  0.2044 -0.3458 -0.2952
 1390POSM   T1A16101  27.330   3.009   7.092  0.0867  0.0474  0.1394
 1390POSM   C2A16102  27.435   3.010   7.563  0.1748  0.2749 -0.1419
 1390POSM   C3A16103  27.660   3.051   7.906  0.1674 -0.1666 -0.1013
 1390POSM   C1B16104  26.853   2.893   7.205  0.0641 -0.0869  0.0606
 1390POSM   D2B16105  26.968   2.772   7.589  0.2178  0.2806  0.0664
 1390POSM   C3B16106  26.581   2.624   7.803 -0.1290 -0.0073 -0.0590
 1390POSM   C4B16107  26.330   2.451   8.120 -0.0060  0.0375 -0.2378
 1391PNSM   NC316108  31.832   7.713   3.231  0.0556  0.0923 -0.0403
 1391PNSM   PO416109  31.679   7.486   3.603  0.3064  0.2874  0.2751
 1391PNSM   AM116110  31.670   7.631   4.050 -0.0805 -0.1049 -0.1261
 1391PNSM   AM216111  31.826   7.710   4.355 -0.2875  0.2661 -0.0816
 1391PNSM   T1A16112  31.325   7.725   4.383  0.3437 -0.1282  0.1141
 1391PNSM   C2A16113  31.228   7.948   4.807  0.1897  0.3341 -0.0537
 1391PNSM   C3A16114  31.275   8.335   5.065  0.2327 -0.0197 -0.0648
 1391PNSM   C1B16115  32.031   8.113   4.592 -0.2959 -0.0553 -0.0171
 1391PNSM   C2B16116  31.735   8.343   4.807  0.1804 -0.4051  0.0403
 1391PNSM   C3B16117  31.751   8.533   5.183 -0.0741  0.2831 -0.0703
 1391PNSM   D4B16118  31.639   8.753   5.507 -0.0271  0.1225 -0.3307
 1391PNSM   C5B16119  31.640   8.637   5.864  0.1383  0.1874  0.2655
 1391PNSM   C6B16120  31.688   8.590   6.314 -0.0162 -0.0838  0.0384
 1392PNSM   NC316121  21.527   7.497   8.657 -0.1538  0.2597 -0.0500
 1392PNSM   PO416122  21.463   7.932   8.556  0.1237  0.1589 -0.0592
 1392PNSM   AM116123  21.898   7.991   8.729  0.3122 -0.0120  0.2354
 1392PNSM   AM216124  22.035   8.288   8.845 -0.0291 -0.3900  0.2428
 1392PNSM   T1A16125  22.411   7.919   8.584  0.1922  0.2837 -0.4015
 1392PNSM   C2A16126  22.831   8.035   8.675 -0.0758 -0.0552  0.2394
 1392PNSM   C3A16127  22.999   8.447   8.934  0.0641  0.0309 -0.1013
 1392PNSM   C1B16128  22.443   8.335   8.953 -0.0917  0.1459 -0.2599
 1392PNSM   C2B16129  22.744   8.083   9.181 -0.1693 -0.2914 -0.0355
 1392PNSM   C3B16130  23.052   8.020   9.354  0.5791 -0.3590 -0.0451
 1392PNSM   D4B16131  23.442   7.963   9.260  0.3020 -0.0782 -0.2582
 1392PNSM   C5B16132  23.663   7.678   9.557  0.0089  0.0616 -0.0236
 1392PNSM   C6B16133  23.593   7.309   9.695 -0.4143  0.0811 -0.3252
 1393POPI    C116134  14.033  22.627  17.273 -0.0227 -0.0364 -0.0020
 1393POPI    C216135  13.801  22.308  17.206 -0.1898  0.0769  0.0344
 1393POPI    C316136  13.907  22.545  16.902 -0.2188  0.0918  0.0353
 1393POPI   PO416137  14.240  22.564  17.487  0.0338  0.3165  0.3222
 1393POPI   GL116138  14.183  22.411  17.791  0.0536  0.3698  0.1558
 1393POPI   GL216139  14.378  22.692  17.985  0.0070  0.1547 -0.0350
 1393POPI   C1A16140  14.048  22.365  18.114  0.0163 -0.0132  0.0674
 1393POPI   D2A16141  14.251  22.237  18.461 -0.2844  0.0197 -0.1495
 1393POPI   C3A16142  14.317  22.208  18.773  0.0216  0.1001 -0.0846
 1393POPI   C4A16143  14.569  22.300  19.006 -0.0850  0.0918 -0.2674
 1393POPI   C1B16144  14.561  22.626  18.371 -0.2305  0.2212 -0.2707
 1393POPI   C2B16145  14.924  22.500  18.611 -0.1850 -0.0305 -0.0481
 1393POPI   C3B16146  15.186  22.531  18.958 -0.1252  0.1415 -0.1400
 1393POPI   C4B16147  15.570  22.255  19.068 -0.1383 -0.0440 -0.1110
 1394POPI    C116148  30.298   2.667   5.951 -0.1129  0.0335 -0.0694
 1394POPI    C216149  29.997   2.770   5.709 -0.0356 -0.0045 -0.1821
 1394POPI    C316150  30.350   2.664   5.555  0.0694  0.1447 -0.0467
 1394POPI   PO416151  30.274   2.856   6.166  0.3371 -0.1079  0.2847
 1394POPI   GL116152  30.105   2.975   6.565 -0.0830 -0.1050 -0.0102
 1394POPI   GL216153  29.947   3.180   6.443 -0.2844  0.1045 -0.1074
 1394POPI   C1A16154  29.951   3.069   6.951  0.1206 -0.1566 -0.1570
 1394POPI   D2A16155  29.971   3.177   7.391 -0.1211 -0.0826 -0.1071
 1394POPI   C3A16156  29.803   3.349   7.741  0.0434 -0.1035  0.0184
 1394POPI   C4A16157  29.566   3.681   7.760  0.1401  0.0105  0.3671
 1394POPI   C1B16158  29.756   3.578   6.837  0.0737 -0.0476  0.0293
 1394POPI   C2B16159  29.560   3.867   7.085  0.0752 -0.1764  0.0010
 1394POPI   C3B16160  29.453   4.101   7.428 -0.1795  0.5004  0.1056
 1394POPI   C4B16161  29.186   4.382   7.642  0.1736 -0.0072 -0.1487
 1395POPI    C116162  14.721  11.657  14.645  0.1326 -0.1500 -0.1406
 1395POPI    C216163  14.844  11.282  14.580 -0.2850 -0.2709 -0.2494
 1395POPI    C316164  14.749  11.517  14.271 -0.2767 -0.1616 -0.1687
 1395POPI   PO416165  14.626  11.656  14.861  0.0678 -0.0209 -0.0226
 1395POPI   GL116166  14.772  11.603  15.294  0.0111 -0.0972 -0.0817
 1395POPI   GL216167  14.954  11.873  15.231  0.0362 -0.0090  0.2031
 1395POPI   C1A16168  14.685  11.502  15.759 -0.1685  0.2842 -0.0424
 1395POPI   D2A16169  14.657  11.316  16.117  0.1957 -0.0603  0.0305
 1395POPI   C3A16170  14.283  11.266  16.279 -0.1577  0.0633 -0.0088
 1395POPI   C4A16171  13.963  11.565  16.479 -0.1110 -0.1155 -0.0483
 1395POPI   C1B16172  15.092  11.739  15.651  0.1184  0.3473  0.0102
 1395POPI   C2B16173  15.091  11.676  16.052  0.1712  0.2857  0.0771
 1395POPI   C3B16174  15.274  11.643  16.427 -0.1354 -0.0481 -0.1703
 1395POPI   C4B16175  15.560  11.491  16.806 -0.2835 -0.2851 -0.1731
 1396POPI    C116176   4.151  28.449  13.601 -0.0041 -0.0039 -0.0117
 1396POPI    C216177   4.399  28.508  13.293  0.0793  0.0618  0.0676
 1396POPI    C316178   4.435  28.729  13.624 -0.2180  0.2134  0.0003
 1396POPI   PO416179   4.066  28.182  13.552  0.0953 -0.2020 -0.0437
 1396POPI   GL116180   3.825  27.863  13.806 -0.2143 -0.2620  0.1765
 1396POPI   GL216181   3.630  27.793  13.569 -0.0992  0.1550 -0.2422
 1396POPI   C1A16182   3.709  27.744  14.213  0.0335 -0.0972 -0.1702
 1396POPI   D2A16183   3.394  27.649  14.447  0.3440  0.1080  0.2602
 1396POPI   C3A16184   3.105  27.426  14.562 -0.0661 -0.1488  0.2259
 1396POPI   C4A16185   2.852  27.322  14.822  0.0983  0.0810  0.0298
 1396POPI   C1B16186   3.233  27.736  13.841 -0.1468  0.5291 -0.0270
 1396POPI   C2B16187   2.995  27.546  14.123  0.0486 -0.0728  0.0547
 1396POPI   C3B16188   2.658  27.595  14.443 -0.0866  0.4406  0.2521
 1396POPI   C4B16189   2.348  27.614  14.775  0.0792  0.0096 -0.1291
 1397POPI    C116190   2.107  20.002   3.513 -0.1561 -0.1486 -0.0134
 1397POPI    C216191   2.273  19.805   3.207 -0.0327  0.1599 -0.1473
 1397POPI    C316192   2.410  20.167   3.309 -0.0638  0.0523  0.2825
 1397POPI   PO416193   1.928  19.986   3.494  0.0802  0.1694  0.0503
 1397POPI   GL116194   1.661  19.510   3.720 -0.1024 -0.0286  0.1136
 1397POPI   GL216195   1.797  19.804   3.993  0.0504 -0.2194 -0.0106
 1397POPI   C1A16196   1.294  19.309   3.974 -0.2360  0.0714 -0.1878
 1397POPI   D2A16197   0.976  19.211   4.381 -0.0469  0.1862  0.2060
 1397POPI   C3A16198   0.642  19.382   4.638 -0.2293  0.1978  0.0340
 1397POPI   C4A16199   0.378  19.470   4.825  0.0354  0.0509  0.1186
 1397POPI   C1B16200   1.395  19.747   4.185 -0.2668 -0.3068 -0.1196
 1397POPI   C2B16201   1.250  19.736   4.497  0.0278 -0.0271  0.0001
 1397POPI   C3B16202   1.072  19.619   4.801  0.2753 -0.1898  0.0547
 1397POPI   C4B16203   0.851  19.288   5.081  0.0853  0.1034  0.1548
 1398POPI    C116204  10.722   0.062  14.908 -0.0777  0.0502 -0.0063
 1398POPI    C216205  10.553   0.129  14.551  0.3017  0.2082 -0.1589
 1398POPI    C316206  10.711  35.156  14.634 -0.4959 -0.0833  0.1484
 1398POPI   PO416207  10.996   0.228  14.956  0.1351  0.2626  0.2474
 1398POPI   GL116208  11.157   0.129  15.401 -0.0394 -0.0902  0.0431
 1398POPI   GL216209  11.394   0.011  15.163 -0.1799  0.2037 -0.0532
 1398POPI   C1A16210  11.667   0.246  15.566 -0.0510 -0.3891 -0.0552
 1398POPI   D2A16211  12.082   0.374  15.548  0.0553  0.2291  0.3005
 1398POPI   C3A16212  12.155   0.700  15.371 -0.1092 -0.1596  0.1921
 1398POPI   C4A16213  12.570   0.901  15.368  0.0578  0.0388  0.2933
 1398POPI   C1B16214  11.645   0.300  15.024  0.0159 -0.3382  0.2386
 1398POPI   C2B16215  11.737   0.724  15.080 -0.1770  0.0215 -0.0151
 1398POPI   C3B16216  11.910   1.057  15.146  0.0301 -0.2476 -0.2571
 1398POPI   C4B16217  12.110   1.421  15.481 -0.1131 -0.0388  0.1343
 1399POPI    C116218   7.351  31.789  15.485  0.0562  0.1191  0.1434
 1399POPI    C216219   7.307  32.173  15.382  0.1657  0.0935 -0.0018
 1399POPI    C316220   7.053  31.898  15.241  0.0981  0.1099  0.0876
 1399POPI   PO416221   7.419  31.835  15.812 -0.0775 -0.4405 -0.2792
 1399POPI   GL116222   7.263  31.735  16.229  0.1396 -0.0323  0.0817
 1399POPI   GL216223   6.909  31.749  16.284 -0.4203  0.0998  0.0384
 1399POPI   C1A16224   7.428  31.786  16.632  0.0427  0.0698 -0.1167
 1399POPI   D2A16225   7.757  31.909  17.002  0.1890 -0.0273 -0.0123
 1399POPI   C3A16226   7.600  32.005  17.456 -0.1264 -0.0353  0.0272
 1399POPI   C4A16227   7.300  32.122  17.865  0.1034  0.4141  0.2579
 1399POPI   C1B16228   6.871  31.742  16.716  0.1733 -0.1207 -0.1034
 1399POPI   C2B16229   6.754  31.771  17.140  0.0386  0.0188  0.0716
 1399POPI   C3B16230   6.641  31.647  17.501 -0.1425 -0.2822 -0.0751
 1399POPI   C4B16231   6.390  31.746  17.839  0.2244 -0.0210  0.0666
 1400POPI    C116232   3.865  12.180   7.152  0.0230 -0.2904  0.0251
 1400POPI    C216233   4.103  11.994   7.415  0.1747  0.0991  0.1666
 1400POPI    C316234   4.259  12.161   7.086  0.0667  0.1487  0.1402
 1400POPI   PO416235   3.726  12.256   7.271 -0.1070 -0.1564 -0.4528
 1400POPI   GL116236   3.322  12.222   7.428  0.3280 -0.2816 -0.1238
 1400POPI   GL216237   3.259  11.972   7.224  0.1864  0.0992 -0.0647
 1400POPI   C1A16238   2.828  12.207   7.569 -0.1106  0.0423 -0.1745
 1400POPI   D2A16239   2.527  12.314   7.862  0.2049  0.1751  0.2663
 1400POPI   C3A16240   2.233  12.708   7.735 -0.0692 -0.0275  0.2868
 1400POPI   C4A16241   1.977  13.026   7.399 -0.0852 -0.1150 -0.0067
 1400POPI   C1B16242   2.774  11.849   7.158 -0.2477  0.4055  0.0567
 1400POPI   C2B16243   2.438  11.911   7.282  0.2590 -0.2731 -0.0667
 1400POPI   C3B16244   2.082  11.972   7.442 -0.0581 -0.2176  0.0742
 1400POPI   C4B16245   2.053  12.117   7.830 -0.3646 -0.1101  0.0622
 1401POPI    C116246  27.053  29.662   4.955 -0.1116  0.3569 -0.2041
 1401POPI    C216247  27.223  29.555   4.609 -0.0154  0.0014 -0.0493
 1401POPI    C316248  26.904  29.356   4.745  0.1369 -0.0612  0.2194
 1401POPI   PO416249  27.260  29.632   5.178 -0.1459  0.1336  0.0119
 1401POPI   GL116250  27.382  29.262   5.339 -0.0633 -0.0543  0.0077
 1401POPI   GL216251  27.241  29.082   5.301  0.2305  0.1927 -0.1045
 1401POPI   C1A16252  27.512  29.054   5.702  0.0257 -0.0310 -0.1630
 1401POPI   D2A16253  27.605  28.846   6.136  0.0859  0.0664 -0.0379
 1401POPI   C3A16254  27.868  28.940   6.391  0.0449 -0.4723  0.2031
 1401POPI   C4A16255  27.889  29.239   6.775 -0.1019 -0.0468 -0.0192
 1401POPI   C1B16256  27.183  28.659   5.518  0.3017 -0.0976 -0.5041
 1401POPI   C2B16257  27.334  28.251   5.369  0.0016 -0.0156 -0.1483
 1401POPI   C3B16258  27.313  27.800   5.390  0.1547  0.0658 -0.1238
 1401POPI   C4B16259  27.136  27.356   5.338 -0.1366 -0.1414 -0.1228
 1402POPI    C116260  25.278  21.060   0.507  0.2074 -0.1822 -0.1691
 1402POPI    C216261  25.227  21.369   0.257  0.2786  0.0398  0.0888
 1402POPI    C316262  25.442  21.052   0.142  0.0494  0.0034 -0.2456
 1402POPI   PO416263  25.444  21.198   0.722 -0.1270  0.2296  0.2192
 1402POPI   GL116264  25.550  21.404   1.106 -0.4040  0.0321 -0.1818
 1402POPI   GL216265  25.940  21.322   0.971 -0.1797  0.3296 -0.0839
 1402POPI   C1A16266  25.753  21.617   1.432 -0.0360  0.1496 -0.0599
 1402POPI   D2A16267  26.002  21.810   1.523  0.0847 -0.0822  0.2317
 1402POPI   C3A16268  25.989  22.083   2.016  0.0053 -0.1145 -0.0717
 1402POPI   C4A16269  26.136  22.410   2.254 -0.1718 -0.1363  0.4431
 1402POPI   C1B16270  26.239  21.561   1.132 -0.0240  0.0288  0.1467
 1402POPI   C2B16271  26.626  21.684   1.414  0.2157  0.2944 -0.1602
 1402POPI   C3B16272  26.896  21.832   1.623 -0.1558  0.1515  0.2161
 1402POPI   C4B16273  27.141  22.044   1.877  0.2645 -0.4440 -0.3114
 1403POPI    C116274   0.748   7.577   5.820 -0.1473  0.1782 -0.0025
 1403POPI    C216275   1.074   7.381   5.943 -0.1555  0.0511 -0.1805
 1403POPI    C316276   1.052   7.515   5.567 -0.2665  0.1489 -0.1394
 1403POPI   PO416277   0.723   7.826   5.942  0.1039  0.1504  0.1762
 1403POPI   GL116278   0.349   7.898   6.150  0.0028  0.4956 -0.1107
 1403POPI   GL216279   0.527   7.875   6.496  0.3005  0.4085  0.1879
 1403POPI   C1A16280   0.361   8.347   6.311 -0.0964  0.2271 -0.0132
 1403POPI   D2A16281   0.154   8.713   6.428 -0.0668 -0.0243  0.0259
 1403POPI   C3A16282  35.293   8.872   6.566  0.1813 -0.0219  0.1594
 1403POPI   C4A16283  34.898   8.880   6.565 -0.0061  0.0777 -0.2011
 1403POPI   C1B16284   0.205   7.987   6.671  0.1941  0.2386  0.1154
 1403POPI   C2B16285  35.371   8.368   6.830 -0.0833 -0.2321  0.1243
 1403POPI   C3B16286  35.008   8.356   6.932  0.2184  0.2340 -0.2676
 1403POPI   C4B16287  35.036   8.715   7.012  0.0688  0.2225 -0.2963
 1404POPI    C116288  20.965  25.681   7.375 -0.0623 -0.0541 -0.2389
 1404POPI    C216289  20.750  26.012   7.311 -0.1433 -0.0900 -0.1521
 1404POPI    C316290  20.665  25.676   7.111 -0.2090 -0.1213 -0.0717
 1404POPI   PO416291  21.222  25.685   7.455  0.1113  0.1719 -0.1078
 1404POPI   GL116292  21.509  25.555   7.724 -0.1274  0.0981 -0.1936
 1404POPI   GL216293  21.698  25.404   7.487 -0.1379 -0.2238  0.0204
 1404POPI   C1A16294  21.866  25.589   7.917 -0.1978  0.0154 -0.1756
 1404POPI   D2A16295  22.148  25.808   8.133 -0.0411 -0.1966 -0.2374
 1404POPI   C3A16296  22.357  25.784   8.549 -0.1574  0.0555  0.2245
 1404POPI   C4A16297  22.340  25.612   8.992 -0.1661  0.4450  0.2568
 1404POPI   C1B16298  21.990  25.206   7.625  0.2798  0.0036  0.0937
 1404POPI   C2B16299  22.171  25.182   7.987  0.0737  0.3588 -0.0802
 1404POPI   C3B16300  22.529  25.452   8.111 -0.0082 -0.1173 -0.1656
 1404POPI   C4B16301  22.965  25.552   8.229 -0.1924 -0.2727  0.1370
 1405POPI    C116302  16.194  26.925  14.313  0.1425  0.0004 -0.1106
 1405POPI    C216303  15.910  26.644  14.339  0.0713  0.0863  0.0478
 1405POPI    C316304  15.809  27.026  14.278  0.1602  0.0985 -0.0240
 1405POPI   PO416305  16.378  26.866  14.187  0.0493  0.3334 -0.0308
 1405POPI   GL116306  16.799  26.925  14.392  0.1686  0.0812 -0.0337
 1405POPI   GL216307  16.568  26.990  14.610  0.2062  0.0509  0.4027
 1405POPI   C1A16308  17.116  26.750  14.730 -0.0548  0.0230 -0.2259
 1405POPI   D2A16309  17.199  26.451  14.963 -0.2784  0.3622  0.0286
 1405POPI   C3A16310  17.261  26.524  15.287 -0.2527 -0.1599  0.1244
 1405POPI   C4A16311  17.505  26.717  15.476 -0.1082 -0.0947 -0.3233
 1405POPI   C1B16312  16.834  27.280  14.759  0.0012 -0.0309 -0.0749
 1405POPI   C2B16313  17.302  27.305  14.795  0.3437 -0.0042  0.2669
 1405POPI   C3B16314  17.673  27.484  15.074  0.0851 -0.1308  0.1326
 1405POPI   C4B16315  18.035  27.372  15.402  0.0532 -0.1397 -0.0292
 1406POPI    C116316  17.243   3.705  11.739  0.0991 -0.3035  0.3775
 1406POPI    C216317  17.007   4.021  11.805  0.1348 -0.3039  0.5075
 1406POPI    C316318  16.961   3.803  11.473  0.2460 -0.0404  0.3167
 1406POPI   PO416319  17.269   3.607  11.994 -0.1431 -0.1050 -0.0717
 1406POPI   GL116320  17.304   3.541  12.442  0.0462 -0.1311 -0.0535
 1406POPI   GL216321  17.108   3.299  12.363 -0.2092  0.0878  0.1464
 1406POPI   C1A16322  17.514   3.249  12.695 -0.2356 -0.1369 -0.0648
 1406POPI   D2A16323  17.745   2.980  12.877 -0.1653 -0.2860  0.3049
 1406POPI   C3A16324  17.647   2.550  13.049 -0.0138  0.0439  0.2084
 1406POPI   C4A16325  17.836   2.185  13.434 -0.0378 -0.3380  0.3128
 1406POPI   C1B16326  17.231   2.945  12.457 -0.0322 -0.0808  0.0028
 1406POPI   C2B16327  17.400   2.733  12.646 -0.2733  0.0172  0.0773
 1406POPI   C3B16328  17.790   2.581  12.589 -0.2966  0.4135  0.0804
 1406POPI   C4B16329  18.081   2.295  12.864  0.0750 -0.0430 -0.0882
 1407POPI    C116330  15.467  27.803  15.764  0.0076 -0.0625 -0.0522
 1407POPI    C216331  15.231  27.510  15.628  0.0777 -0.1444  0.0028
 1407POPI    C316332  15.111  27.738  15.934  0.0077 -0.0924 -0.0634
 1407POPI   PO416333  15.730  27.660  15.910 -0.0563 -0.1281  0.0404
 1407POPI   GL116334  15.885  27.831  16.242 -0.1889  0.0150  0.1551
 1407POPI   GL216335  15.697  28.095  16.263 -0.3156  0.2414 -0.0309
 1407POPI   C1A16336  16.147  28.171  16.491 -0.0267  0.2138 -0.0740
 1407POPI   D2A16337  16.601  28.229  16.645 -0.0240  0.0863  0.0810
 1407POPI   C3A16338  17.021  28.213  16.620  0.1895 -0.0236 -0.1460
 1407POPI   C4A16339  17.415  28.162  16.668 -0.1748 -0.0708 -0.3318
 1407POPI   C1B16340  15.844  28.502  16.183 -0.2548  0.1575  0.5830
 1407POPI   C2B16341  16.196  28.657  16.223 -0.2290 -0.1601 -0.0792
 1407POPI   C3B16342  16.401  28.670  16.442  0.0664 -0.0455  0.0263
 1407POPI   C4B16343  16.636  28.702  16.819  0.0027  0.1690  0.5610
 1408POPI    C116344   1.784  19.182   2.596 -0.0227  0.2345 -0.1440
 1408POPI    C216345   1.647  19.359   2.264 -0.0753  0.0907 -0.1991
 1408POPI    C316346   2.037  19.371   2.352 -0.0358 -0.0208 -0.3574
 1408POPI   PO416347   1.627  19.281   2.830 -0.0275  0.1716 -0.1567
 1408POPI   GL116348   1.387  19.095   3.128  0.1493  0.0258 -0.2314
 1408POPI   GL216349   1.438  19.251   3.401 -0.4247 -0.0812  0.0963
 1408POPI   C1A16350   0.979  18.971   3.126  0.1280  0.3710 -0.3373
 1408POPI   D2A16351   0.569  18.889   3.376 -0.4055 -0.1650  0.1516
 1408POPI   C3A16352   0.385  19.098   3.542 -0.1043 -0.2292  0.2858
 1408POPI   C4A16353   0.179  19.128   3.978  0.0317 -0.0301 -0.0830
 1408POPI   C1B16354   1.112  19.060   3.589  0.1281  0.0584 -0.1202
 1408POPI   C2B16355   0.779  19.162   3.886  0.1724  0.1650  0.1000
 1408POPI   C3B16356   0.575  18.955   4.283 -0.2301 -0.2923  0.1899
 1408POPI   C4B16357   0.573  18.667   4.581 -0.0132  0.0230 -0.0181
 1409POPI    C116358  25.700  35.351   6.811  0.3432  0.1579  0.1314
 1409POPI    C216359  25.796   0.267   6.566  0.2240  0.1590  0.0854
 1409POPI    C316360  25.917  35.280   6.483  0.0763  0.1390 -0.0426
 1409POPI   PO416361  25.343   0.065   6.949  0.0747 -0.0981  0.0015
 1409POPI   GL116362  25.155   0.433   7.140 -0.0127  0.1027  0.1629
 1409POPI   GL216363  24.862   0.259   7.208 -0.1872  0.2927 -0.1765
 1409POPI   C1A16364  25.220   0.392   7.554  0.0495 -0.0272 -0.1924
 1409POPI   D2A16365  25.357   0.277   7.927  0.0380 -0.1040 -0.1388
 1409POPI   C3A16366  25.589   0.410   8.286  0.1790 -0.1747  0.0126
 1409POPI   C4A16367  25.887   0.634   8.327  0.1987 -0.2502  0.0260
 1409POPI   C1B16368  24.898  35.349   7.546 -0.0976  0.1536 -0.0419
 1409POPI   C2B16369  24.910   0.003   7.952 -0.1005  0.3225  0.0056
 1409POPI   C3B16370  24.940  35.125   8.358  0.1270 -0.3056  0.1479
 1409POPI   C4B16371  24.821  34.955   8.746 -0.1750  0.0646 -0.3904
 1410POPI    C116372  14.278  17.079  14.671 -0.1644  0.0558 -0.0234
 1410POPI    C216373  14.305  17.429  14.862 -0.1265 -0.0021  0.0778
 1410POPI    C316374  14.636  17.222  14.776 -0.1758 -0.2232  0.4086
 1410POPI   PO416375  14.084  16.947  14.874 -0.1676  0.2724  0.0319
 1410POPI   GL116376  14.218  17.055  15.298 -0.3214 -0.1037  0.4160
 1410POPI   GL216377  14.364  17.298  15.357 -0.2411 -0.3189 -0.1184
 1410POPI   C1A16378  14.119  16.758  15.611  0.2970  0.0946 -0.2176
 1410POPI   D2A16379  14.334  16.396  15.811 -0.2344  0.0923  0.1313
 1410POPI   C3A16380  14.776  16.313  15.715 -0.1198 -0.0287 -0.0826
 1410POPI   C4A16381  15.219  16.071  15.583 -0.1820 -0.1931  0.0709
 1410POPI   C1B16382  14.493  17.206  15.772 -0.0376  0.0932  0.2587
 1410POPI   C2B16383  14.397  16.886  16.114  0.0997 -0.1321 -0.1050
 1410POPI   C3B16384  14.701  16.595  16.260 -0.2967  0.0281 -0.1435
 1410POPI   C4B16385  14.617  16.113  16.160 -0.4434  0.2624 -0.0833
 1411POPI    C116386  10.470  21.396  16.675 -0.1653  0.0549 -0.0343
 1411POPI    C216387  10.109  21.356  16.507 -0.0766  0.1873 -0.2592
 1411POPI    C316388  10.201  21.690  16.707 -0.1522  0.0654 -0.0195
 1411POPI   PO416389  10.562  21.100  16.556  0.2250 -0.1782  0.0804
 1411POPI   GL116390  10.464  20.659  16.794 -0.0568  0.1697  0.1580
 1411POPI   GL216391  10.271  20.785  17.007  0.0526  0.0718 -0.3929
 1411POPI   C1A16392  10.413  20.311  17.149  0.0183 -0.3355  0.1386
 1411POPI   D2A16393  10.277  19.889  17.387  0.1552 -0.0628  0.3977
 1411POPI   C3A16394   9.985  19.916  17.652 -0.0928 -0.2060  0.3508
 1411POPI   C4A16395   9.918  19.631  18.037  0.1848  0.2164 -0.0859
 1411POPI   C1B16396   9.988  20.517  17.332  0.1892 -0.0933 -0.0745
 1411POPI   C2B16397   9.899  20.383  17.661 -0.2797 -0.1825 -0.3321
 1411POPI   C3B16398   9.842  20.222  18.072 -0.2348 -0.2189  0.1004
 1411POPI   C4B16399   9.841  20.062  18.428 -0.1464  0.0002 -0.1734
 1412POPI    C116400  19.954  16.571   8.724  0.0181  0.0750  0.1385
 1412POPI    C216401  19.786  16.912   8.600  0.3350  0.1617 -0.0595
 1412POPI    C316402  19.741  16.578   8.386  0.4339  0.1902 -0.1251
 1412POPI   PO416403  20.209  16.617   8.781  0.2672  0.1017 -0.1834
 1412POPI   GL116404  20.539  16.926   8.649  0.2827  0.5056 -0.3151
 1412POPI   GL216405  20.670  16.901   8.336  0.0680 -0.0683 -0.0478
 1412POPI   C1A16406  20.910  16.973   8.831 -0.2610 -0.3716  0.0079
 1412POPI   D2A16407  21.377  17.000   8.938 -0.2412  0.3595 -0.2430
 1412POPI   C3A16408  21.695  16.990   9.153 -0.0223  0.0694 -0.0686
 1412POPI   C4A16409  22.077  17.215   9.383 -0.0886 -0.0584 -0.1619
 1412POPI   C1B16410  21.155  16.995   8.343  0.2114  0.1316  0.0288
 1412POPI   C2B16411  21.578  17.093   8.355  0.2242 -0.0424 -0.0122
 1412POPI   C3B16412  21.990  16.942   8.663 -0.1723 -0.1571 -0.0069
 1412POPI   C4B16413  22.365  16.681   8.632  0.3392 -0.3574  0.0251
 1413POPI    C116414  15.167  10.885  14.381  0.3050  0.3064  0.0474
 1413POPI    C216415  15.237  11.200  14.146  0.0269  0.1878 -0.1973
 1413POPI    C316416  14.885  11.012  14.128  0.1651 -0.0923 -0.0005
 1413POPI   PO416417  15.191  10.947  14.602  0.0452 -0.1207  0.0438
 1413POPI   GL116418  15.182  10.735  14.929  0.1047 -0.0421  0.2922
 1413POPI   GL216419  15.007  10.967  15.054 -0.0186 -0.0198  0.1183
 1413POPI   C1A16420  15.162  10.387  15.290 -0.0189  0.0909  0.1392
 1413POPI   D2A16421  15.295  10.211  15.632 -0.0965 -0.2675 -0.2960
 1413POPI   C3A16422  15.609  10.439  15.793  0.2071 -0.2818 -0.0001
 1413POPI   C4A16423  15.981  10.473  16.032  0.0899  0.1461 -0.0294
 1413POPI   C1B16424  15.038  11.197  15.436  0.1678 -0.0700  0.0585
 1413POPI   C2B16425  15.044  11.166  15.822 -0.0797 -0.1216  0.0477
 1413POPI   C3B16426  15.167  11.141  16.190 -0.2609 -0.2009  0.4056
 1413POPI   C4B16427  15.260  11.124  16.620 -0.0429 -0.0029  0.2210
 1414POPI    C116428  30.546   7.375   2.847  0.3381  0.2528  0.1620
 1414POPI    C216429  30.398   7.220   2.509  0.2684 -0.0365  0.3236
 1414POPI    C316430  30.221   7.537   2.678  0.1984 -0.0013  0.1854
 1414POPI   PO416431  30.609   7.141   3.002  0.0390 -0.3421 -0.1080
 1414POPI   GL116432  30.404   6.929   3.317 -0.0492 -0.1331 -0.3386
 1414POPI   GL216433  30.172   6.738   3.599 -0.0600  0.2408 -0.3349
 1414POPI   C1A16434  30.333   7.182   3.721  0.2185 -0.2149 -0.0540
 1414POPI   D2A16435  30.327   7.388   4.126 -0.0937  0.0522 -0.1845
 1414POPI   C3A16436  30.071   7.673   4.347  0.0808  0.0334 -0.3116
 1414POPI   C4A16437  29.944   8.031   4.167 -0.0855 -0.0487  0.1680
 1414POPI   C1B16438  30.052   6.815   4.002 -0.0067  0.0745  0.0947
 1414POPI   C2B16439  30.048   7.031   4.371 -0.1382  0.1729 -0.1020
 1414POPI   C3B16440  30.063   7.251   4.697 -0.2870  0.2862  0.0198
 1414POPI   C4B16441  30.257   7.597   4.812 -0.2784  0.1071  0.2336
 1415POPI    C116442  29.802  25.348   1.239 -0.2427  0.2702 -0.0871
 1415POPI    C216443  29.945  25.638   1.475  0.0098  0.0970 -0.0251
 1415POPI    C316444  30.189  25.447   1.222 -0.1536 -0.0677 -0.0597
 1415POPI   PO416445  29.624  25.255   1.413 -0.1660  0.2408 -0.0362
 1415POPI   GL116446  29.497  24.903   1.597 -0.3673  0.1471  0.1422
 1415POPI   GL216447  29.744  24.636   1.490  0.1277  0.2129  0.0784
 1415POPI   C1A16448  29.315  24.804   1.986 -0.0117 -0.0713  0.3578
 1415POPI   D2A16449  28.979  24.927   2.180 -0.0312  0.0907 -0.2082
 1415POPI   C3A16450  29.053  24.696   2.455 -0.1482 -0.1118  0.0155
 1415POPI   C4A16451  28.977  24.332   2.801 -0.0140  0.1482 -0.3127
 1415POPI   C1B16452  29.503  24.414   1.720 -0.5719 -0.3505 -0.0035
 1415POPI   C2B16453  29.280  24.324   2.132 -0.0255  0.0006 -0.0867
 1415POPI   C3B16454  28.919  24.135   2.216  0.0435  0.0146  0.0268
 1415POPI   C4B16455  28.567  23.967   2.121  0.0401  0.1471 -0.3229
 1416POPI    C116456  25.310  14.736   0.961 -0.0583  0.0918  0.0776
 1416POPI    C216457  25.640  14.730   0.734 -0.0982  0.1110  0.0188
 1416POPI    C316458  25.279  14.707   0.563 -0.1196 -0.1860  0.1020
 1416POPI   PO416459  25.318  14.930   1.122 -0.2213  0.1837  0.1698
 1416POPI   GL116460  25.455  14.967   1.569  0.4437  0.3493 -0.1059
 1416POPI   GL216461  25.139  15.091   1.619 -0.1223  0.0230 -0.0857
 1416POPI   C1A16462  25.561  15.164   1.988 -0.1820 -0.0611 -0.2845
 1416POPI   D2A16463  25.827  15.452   2.197  0.0412  0.2320 -0.1971
 1416POPI   C3A16464  25.722  15.827   2.386 -0.0223 -0.0283 -0.1832
 1416POPI   C4A16465  25.988  16.092   2.625  0.1474  0.2701 -0.1705
 1416POPI   C1B16466  25.108  15.035   2.099 -0.1458  0.0640 -0.2913
 1416POPI   C2B16467  25.244  14.835   2.543 -0.0882  0.0305  0.1404
 1416POPI   C3B16468  25.089  14.771   2.911  0.0529 -0.0151 -0.0337
 1416POPI   C4B16469  24.895  14.652   3.219 -0.1698 -0.1423 -0.0835
 1417POPI    C116470   0.371  26.973   6.178 -0.1411 -0.1979  0.0344
 1417POPI    C216471   0.267  27.347   6.083  0.1525 -0.1870 -0.2546
 1417POPI    C316472   0.081  27.038   5.911 -0.2499 -0.1788  0.1569
 1417POPI   PO416473   0.373  26.927   6.415  0.1770  0.0121 -0.0505
 1417POPI   GL116474  35.346  26.821   6.493  0.1105  0.0503  0.0827
 1417POPI   GL216475  35.199  26.789   6.265  0.0691 -0.1076 -0.0690
 1417POPI   C1A16476  35.238  26.740   6.873  0.1419 -0.0226  0.1781
 1417POPI   D2A16477  34.971  26.511   7.125 -0.0636  0.3775  0.0562
 1417POPI   C3A16478  35.069  26.360   7.616  0.2481 -0.0106  0.0136
 1417POPI   C4A16479  34.705  26.310   8.027 -0.0659  0.2647  0.1545
 1417POPI   C1B16480  34.842  26.462   6.142  0.0139 -0.0161  0.1997
 1417POPI   C2B16481  34.319  26.411   6.177 -0.3181  0.3286 -0.0403
 1417POPI   C3B16482  34.033  26.428   6.364  0.1361  0.0383  0.0385
 1417POPI   C4B16483  33.612  26.546   6.652 -0.3941 -0.3024  0.0558
 1418POPI    C116484  11.035   6.625  14.891 -0.0784 -0.2647  0.0162
 1418POPI    C216485  10.769   6.354  14.765  0.0448 -0.2785 -0.2174
 1418POPI    C316486  11.090   6.439  14.541 -0.0026  0.0748 -0.1552
 1418POPI   PO416487  11.124   6.489  15.111 -0.0429  0.0423  0.0002
 1418POPI   GL116488  10.969   6.619  15.598  0.3534  0.2357 -0.1509
 1418POPI   GL216489  11.355   6.598  15.629  0.2041 -0.0305  0.0212
 1418POPI   C1A16490  10.809   6.571  16.049 -0.0671 -0.0701 -0.1895
 1418POPI   D2A16491  10.586   6.613  16.547  0.0609 -0.2605  0.4174
 1418POPI   C3A16492  10.655   6.677  16.876 -0.0877  0.2736  0.1258
 1418POPI   C4A16493  10.959   6.537  17.162 -0.0236  0.3695 -0.0862
 1418POPI   C1B16494  11.347   6.431  16.003  0.0519  0.0351 -0.4582
 1418POPI   C2B16495  11.125   6.419  16.409 -0.0586 -0.1747  0.0778
 1418POPI   C3B16496  11.332   6.447  16.854  0.0423 -0.2317 -0.1185
 1418POPI   C4B16497  11.437   6.451  17.283  0.3179 -0.1064 -0.1335
 1419POPI    C116498   7.006  28.005  16.550 -0.0179 -0.0814 -0.2994
 1419POPI    C216499   6.737  28.179  16.311 -0.0833 -0.0132 -0.1766
 1419POPI    C316500   6.951  27.869  16.178 -0.1608 -0.0123 -0.3039
 1419POPI   PO416501   7.162  28.214  16.668  0.0085 -0.0686  0.0764
 1419POPI   GL116502   7.075  28.339  17.108 -0.0907  0.0126 -0.1198
 1419POPI   GL216503   6.784  28.410  16.938  0.0862  0.0944 -0.1816
 1419POPI   C1A16504   7.153  28.575  17.485  0.2775 -0.1376 -0.1075
 1419POPI   D2A16505   6.944  28.704  17.800 -0.2327 -0.0379  0.1146
 1419POPI   C3A16506   6.611  28.878  17.937 -0.1734  0.0037 -0.0241
 1419POPI   C4A16507   6.532  29.188  18.201  0.1207 -0.3125  0.1163
 1419POPI   C1B16508   6.670  28.430  17.431 -0.1444 -0.1863  0.1765
 1419POPI   C2B16509   6.328  28.483  17.756 -0.0824  0.1532  0.1586
 1419POPI   C3B16510   6.079  28.306  18.083 -0.0165  0.0589 -0.1839
 1419POPI   C4B16511   5.894  28.409  18.418  0.3169  0.2745  0.0504
 1420POPI    C116512   8.011  16.727  13.265 -0.0641 -0.1350 -0.0060
 1420POPI    C216513   8.277  16.819  12.981  0.0531 -0.2578  0.0637
 1420POPI    C316514   8.118  16.452  12.995 -0.1521 -0.1720 -0.0033
 1420POPI   PO416515   8.053  16.977  13.440  0.0435  0.2465  0.1745
 1420POPI   GL116516   8.210  17.194  13.741 -0.2607 -0.0547 -0.1579
 1420POPI   GL216517   7.826  17.198  13.769 -0.1119  0.1804  0.1439
 1420POPI   C1A16518   8.143  17.283  14.183 -0.0321  0.0095 -0.1714
 1420POPI   D2A16519   7.662  17.327  14.366 -0.2564  0.4554 -0.2392
 1420POPI   C3A16520   7.413  17.261  14.680 -0.0911 -0.1534  0.3842
 1420POPI   C4A16521   7.035  17.172  14.963 -0.1751  0.0857  0.0671
 1420POPI   C1B16522   7.861  17.595  13.934  0.3394  0.1498 -0.2062
 1420POPI   C2B16523   7.563  17.779  14.187 -0.0697 -0.2516 -0.1147
 1420POPI   C3B16524   7.346  17.736  14.508  0.0365  0.0633 -0.0191
 1420POPI   C4B16525   7.106  17.669  14.882  0.1078 -0.0621  0.2589
 1421POPI    C116526   6.214  33.345  14.142 -0.0094  0.0821  0.1442
 1421POPI    C216527   6.461  33.654  14.199  0.1127 -0.0053  0.0909
 1421POPI    C316528   6.594  33.280  14.246  0.0582 -0.0610 -0.1859
 1421POPI   PO416529   5.936  33.482  14.354  0.1010  0.0748  0.2919
 1421POPI   GL116530   5.716  33.727  14.484 -0.0076 -0.3057 -0.0390
 1421POPI   GL216531   6.000  33.887  14.678  0.0328  0.0045  0.0926
 1421POPI   C1A16532   5.511  33.980  14.729 -0.0092 -0.0100  0.3360
 1421POPI   D2A16533   5.147  34.133  14.811  0.0801  0.1650 -0.2384
 1421POPI   C3A16534   4.821  34.078  15.154 -0.1556 -0.2787  0.0575
 1421POPI   C4A16535   4.595  34.102  15.565  0.2237  0.0010  0.3723
 1421POPI   C1B16536   5.876  33.995  15.052 -0.0697  0.1045  0.2172
 1421POPI   C2B16537   5.530  33.937  15.297  0.1847 -0.0183 -0.0494
 1421POPI   C3B16538   5.141  33.979  15.582 -0.3302 -0.2674  0.0461
 1421POPI   C4B16539   4.913  33.793  15.907  0.0440 -0.0884  0.3679
 1422POPI    C116540  20.245  21.770   9.557 -0.0526  0.0499  0.1238
 1422POPI    C216541  20.123  21.399   9.474 -0.1825  0.0601  0.2671
 1422POPI    C316542  19.930  21.713   9.318  0.0396  0.0651 -0.0016
 1422POPI   PO416543  20.487  21.759   9.549  0.1027  0.0278 -0.4743
 1422POPI   GL116544  20.740  21.555   9.734  0.1517 -0.0302  0.0731
 1422POPI   GL216545  20.920  21.488   9.528  0.4542  0.0860  0.3801
 1422POPI   C1A16546  20.930  21.706  10.033  0.1279  0.0158  0.0079
 1422POPI   D2A16547  21.205  21.538  10.289  0.1322  0.1756  0.0625
 1422POPI   C3A16548  21.495  21.779  10.415  0.0003 -0.0827 -0.2404
 1422POPI   C4A16549  21.676  22.095  10.497 -0.2273  0.1146  0.2216
 1422POPI   C1B16550  21.297  21.440   9.737  0.2049 -0.0401 -0.1495
 1422POPI   C2B16551  21.573  21.359  10.072  0.1571 -0.3538 -0.1004
 1422POPI   C3B16552  21.905  21.308  10.425 -0.1455 -0.1995  0.0455
 1422POPI   C4B16553  22.010  21.711  10.655  0.0520 -0.3795 -0.0832
 1423POPI    C116554  13.272  16.733  14.299 -0.1363 -0.0135  0.2954
 1423POPI    C216555  13.247  16.505  13.971 -0.3645  0.0951  0.2368
 1423POPI    C316556  13.488  16.825  13.975 -0.1483 -0.0673  0.2720
 1423POPI   PO416557  12.969  16.819  14.434  0.1004  0.0250  0.1134
 1423POPI   GL116558  12.742  16.785  14.674 -0.1025  0.0304 -0.4517
 1423POPI   GL216559  12.507  16.884  14.652 -0.2528 -0.2714  0.1686
 1423POPI   C1A16560  12.818  16.894  15.096  0.1593  0.1994 -0.0375
 1423POPI   D2A16561  12.530  16.695  15.452  0.1434 -0.1825 -0.0115
 1423POPI   C3A16562  12.217  17.064  15.455 -0.0123  0.2703 -0.2549
 1423POPI   C4A16563  11.993  17.416  15.389 -0.0233 -0.2492  0.0730
 1423POPI   C1B16564  12.238  16.823  14.983 -0.3374  0.1340 -0.0806
 1423POPI   C2B16565  12.128  16.528  15.209  0.0532  0.0492  0.0380
 1423POPI   C3B16566  12.075  16.291  15.524  0.1466 -0.3266  0.0253
 1423POPI   C4B16567  11.754  16.374  15.908  0.4016 -0.4390 -0.6018
 1424POPI    C116568  32.579   7.623   3.568 -0.2910  0.0502  0.0789
 1424POPI    C216569  32.208   7.512   3.468 -0.0959 -0.2397 -0.3350
 1424POPI    C316570  32.482   7.235   3.558 -0.0197 -0.0196  0.1196
 1424POPI   PO416571  32.663   7.779   3.776  0.0491  0.0031  0.0600
 1424POPI   GL116572  32.480   7.943   4.182 -0.0904 -0.7091 -0.1241
 1424POPI   GL216573  32.183   7.768   4.003 -0.0616  0.1631 -0.0466
 1424POPI   C1A16574  32.537   8.127   4.632 -0.2370  0.0597  0.0294
 1424POPI   D2A16575  32.672   8.562   4.859 -0.1666  0.1487  0.3216
 1424POPI   C3A16576  32.757   8.488   5.293  0.1004 -0.1113 -0.3692
 1424POPI   C4A16577  32.819   8.547   5.722 -0.1065 -0.1128 -0.1100
 1424POPI   C1B16578  32.098   8.247   4.044 -0.1274 -0.0961 -0.1529
 1424POPI   C2B16579  31.871   8.523   4.304 -0.3542  0.0558 -0.6389
 1424POPI   C3B16580  31.661   8.833   4.536  0.1090 -0.0996  0.2998
 1424POPI   C4B16581  31.550   8.911   4.906  0.1208  0.2707 -0.1227
 1425POPI    C116582  19.256  27.956   8.948 -0.0330 -0.0279  0.0644
 1425POPI    C216583  18.976  27.993   9.232 -0.2431  0.1918 -0.1680
 1425POPI    C316584  18.884  27.827   8.880  0.0519 -0.2100 -0.0599
 1425POPI   PO416585  19.468  27.913   9.160  0.0665 -0.2262 -0.1335
 1425POPI   GL116586  19.640  27.611   9.473  0.1716  0.1102  0.0825
 1425POPI   GL216587  19.795  27.474   9.656  0.1044 -0.1414 -0.0310
 1425POPI   C1A16588  19.548  27.862   9.911 -0.2934  0.1391 -0.0676
 1425POPI   D2A16589  19.717  28.125  10.213 -0.0838  0.1746  0.2004
 1425POPI   C3A16590  19.429  28.461  10.518  0.1010 -0.0044  0.1514
 1425POPI   C4A16591  19.589  28.787  10.767 -0.1831 -0.1722  0.0643
 1425POPI   C1B16592  20.022  27.764   9.846 -0.0820  0.1174  0.0253
 1425POPI   C2B16593  20.357  27.824  10.091  0.1135  0.0976  0.1481
 1425POPI   C3B16594  20.667  27.690  10.400  0.2099 -0.0835 -0.0050
 1425POPI   C4B16595  20.816  27.692  10.876  0.0539  0.0352  0.3969
 1426POPI    C116596   2.048  30.254  10.302 -0.1764 -0.2331 -0.1722
 1426POPI    C216597   2.318  30.419  10.058 -0.1836 -0.0306 -0.0440
 1426POPI    C316598   2.439  30.209  10.375 -0.1760  0.0879  0.0320
 1426POPI   PO416599   1.835  30.417  10.420  0.0826  0.2024  0.3050
 1426POPI   GL116600   1.477  30.536  10.409 -0.0407  0.0793 -0.0830
 1426POPI   GL216601   1.503  30.836  10.377  0.1766 -0.1979  0.1021
 1426POPI   C1A16602   1.212  30.247  10.595 -0.1038 -0.0371  0.0627
 1426POPI   D2A16603   0.788  30.195  10.666 -0.1856 -0.0339 -0.2256
 1426POPI   C3A16604   0.448  30.377  10.913 -0.0320  0.0819 -0.0884
 1426POPI   C4A16605   0.216  30.334  11.180  0.1913 -0.3491  0.1065
 1426POPI   C1B16606   1.071  30.838  10.662 -0.2355 -0.0080  0.0024
 1426POPI   C2B16607   0.673  30.892  10.856  0.0683 -0.0433  0.1083
 1426POPI   C3B16608   0.251  30.804  11.146  0.3935 -0.1396  0.1173
 1426POPI   C4B16609  35.351  31.110  11.463 -0.2490  0.0634 -0.0925
 1427POPI    C116610  20.079  13.453   8.609 -0.0918  0.0226  0.0060
 1427POPI    C216611  19.719  13.577   8.731 -0.0488  0.1566 -0.0032
 1427POPI    C316612  19.991  13.843   8.605 -0.0817  0.0231 -0.3603
 1427POPI   PO416613  20.136  13.291   8.844  0.1051 -0.1528 -0.1395
 1427POPI   GL116614  20.539  13.145   9.032  0.2317  0.4324 -0.4210
 1427POPI   GL216615  20.655  13.296   8.741  0.0132  0.1604  0.0970
 1427POPI   C1A16616  20.841  13.385   9.213 -0.0011  0.0891 -0.0064
 1427POPI   D2A16617  21.180  13.576   9.290 -0.0602  0.3001  0.1005
 1427POPI   C3A16618  21.596  13.608   9.496  0.0512 -0.2568  0.0178
 1427POPI   C4A16619  21.835  14.018   9.616  0.1133 -0.0659 -0.0949
 1427POPI   C1B16620  21.128  13.229   8.906 -0.2306 -0.1226  0.2489
 1427POPI   C2B16621  21.488  13.329   8.870  0.0252 -0.2182  0.3407
 1427POPI   C3B16622  21.926  13.389   9.024 -0.0672 -0.0189 -0.0803
 1427POPI   C4B16623  22.074  13.783   9.264  0.0991 -0.0969 -0.1598
 1428POPI    C116624   6.510   7.877  12.193  0.0731 -0.2204  0.1676
 1428POPI    C216625   6.802   7.759  12.440  0.2124 -0.0515  0.0846
 1428POPI    C316626   6.890   7.970  12.112 -0.0123  0.0821  0.1087
 1428POPI   PO416627   6.229   7.734  12.310  0.1320  0.4401 -0.0354
 1428POPI   GL116628   6.114   7.812  12.651  0.0285 -0.0707 -0.1942
 1428POPI   GL216629   6.039   7.655  12.985  0.1123 -0.2231 -0.2306
 1428POPI   C1A16630   5.645   7.979  12.672 -0.0457 -0.3033  0.1752
 1428POPI   D2A16631   5.188   7.995  12.739  0.0530  0.0046  0.0266
 1428POPI   C3A16632   4.867   7.738  12.630  0.2283  0.1108  0.1173
 1428POPI   C4A16633   4.485   7.667  12.546  0.1977  0.1117 -0.2841
 1428POPI   C1B16634   5.607   7.707  13.041  0.0828  0.0016 -0.2787
 1428POPI   C2B16635   5.316   7.684  13.296  0.2120  0.1635 -0.1155
 1428POPI   C3B16636   5.103   7.623  13.617  0.3354 -0.1850 -0.0263
 1428POPI   C4B16637   5.002   7.723  13.988 -0.2404  0.0828 -0.0055
 1429POPI    C116638   7.481  18.376  12.429  0.0276  0.0364 -0.4003
 1429POPI    C216639   7.417  17.986  12.490 -0.1415  0.1100 -0.0923
 1429POPI    C316640   7.774  18.146  12.574  0.0217 -0.0327 -0.4978
 1429POPI   PO416641   7.182  18.481  12.600  0.2394  0.0317 -0.0208
 1429POPI   GL116642   6.756  18.401  12.610  0.2454  0.2138  0.1789
 1429POPI   GL216643   6.563  18.737  12.479  0.0502  0.2895 -0.0922
 1429POPI   C1A16644   6.365  18.203  12.637 -0.0027  0.0925 -0.0103
 1429POPI   D2A16645   5.977  18.364  12.793  0.1195  0.0659  0.1416
 1429POPI   C3A16646   5.699  18.688  12.899 -0.0654  0.1327 -0.0204
 1429POPI   C4A16647   5.367  18.880  13.046  0.3316  0.0746 -0.3035
 1429POPI   C1B16648   6.375  18.588  12.996  0.4207  0.2982  0.3382
 1429POPI   C2B16649   5.981  18.483  13.246  0.0183  0.1330  0.0479
 1429POPI   C3B16650   5.654  18.240  13.177 -0.1538 -0.2358  0.0560
 1429POPI   C4B16651   5.464  18.203  12.763 -0.1602  0.2892  0.1968
 1430POPI    C116652   9.629  15.829  13.548  0.0390 -0.0491 -0.0916
 1430POPI    C216653   9.745  16.192  13.426 -0.0646 -0.0803 -0.2857
 1430POPI    C316654   9.981  15.977  13.667 -0.0935  0.1994 -0.0055
 1430POPI   PO416655   9.440  15.858  13.670  0.1201  0.0215 -0.2524
 1430POPI   GL116656   9.280  15.728  14.006 -0.0456 -0.1144  0.4060
 1430POPI   GL216657   9.363  16.031  14.135  0.1074 -0.3931 -0.0730
 1430POPI   C1A16658   9.302  15.581  14.360  0.0142  0.0020  0.1885
 1430POPI   D2A16659   9.224  15.562  14.805  0.1427 -0.1633 -0.3829
 1430POPI   C3A16660   8.928  15.341  14.981 -0.4071  0.2811 -0.0260
 1430POPI   C4A16661   8.847  14.991  15.321 -0.3238 -0.2493  0.2094
 1430POPI   C1B16662   9.496  16.014  14.482 -0.1790  0.1200 -0.0756
 1430POPI   C2B16663   9.479  16.030  14.912 -0.2688 -0.1297  0.0895
 1430POPI   C3B16664   9.398  16.187  15.302 -0.1879 -0.1798 -0.1167
 1430POPI   C4B16665   9.097  16.307  15.548 -0.0500 -0.3253 -0.2767
 1431POPI    C116666  11.984  31.347  16.672  0.1745  0.1337 -0.0700
 1431POPI    C216667  12.037  30.956  16.736  0.0176  0.1486  0.1579
 1431POPI    C316668  12.069  31.104  16.366  0.0313 -0.0871  0.0639
 1431POPI   PO416669  11.754  31.357  16.795 -0.1173  0.1371 -0.3050
 1431POPI   GL116670  11.785  31.534  17.178 -0.1172  0.1329 -0.0722
 1431POPI   GL216671  12.068  31.309  17.214  0.2732  0.1086  0.4311
 1431POPI   C1A16672  11.851  31.682  17.644  0.2534 -0.2565 -0.1459
 1431POPI   D2A16673  11.902  31.911  17.926  0.1583 -0.2346  0.2281
 1431POPI   C3A16674  12.075  31.895  18.381  0.1910 -0.1803  0.2570
 1431POPI   C4A16675  12.440  31.879  18.595 -0.2151 -0.0278  0.1834
 1431POPI   C1B16676  12.234  31.402  17.592 -0.0496 -0.0302 -0.3437
 1431POPI   C2B16677  12.285  31.593  18.005 -0.2011 -0.2086  0.1471
 1431POPI   C3B16678  12.539  31.543  18.279 -0.0571  0.2525 -0.0833
 1431POPI   C4B16679  12.906  31.700  18.456  0.1343  0.4487  0.1168
 1432POPI    C116680   1.841   9.754   5.205  0.2422 -0.0483  0.1794
 1432POPI    C216681   2.011   9.563   4.897 -0.0310  0.0087 -0.0085
 1432POPI    C316682   1.837   9.354   5.191  0.3540 -0.0498  0.1804
 1432POPI   PO416683   1.769  10.026   4.995  0.0914  0.1166 -0.0703
 1432POPI   GL116684   1.437  10.346   5.093 -0.2284 -0.0460 -0.1281
 1432POPI   GL216685   1.323  10.014   5.103  0.1261 -0.1092  0.0738
 1432POPI   C1A16686   1.387  10.504   5.481 -0.3371  0.0403 -0.2962
 1432POPI   D2A16687   1.214  10.754   5.837  0.0261  0.1788 -0.2988
 1432POPI   C3A16688   1.159  11.171   5.838  0.0309 -0.2886 -0.1556
 1432POPI   C4A16689   0.869  11.372   5.836  0.2975  0.2803 -0.2087
 1432POPI   C1B16690   1.003  10.179   5.339  0.3291 -0.3740 -0.1901
 1432POPI   C2B16691   0.666  10.503   5.495 -0.4377 -0.2680 -0.3645
 1432POPI   C3B16692   0.278  10.791   5.656 -0.3298 -0.1419  0.0895
 1432POPI   C4B16693   0.400  11.265   5.737  0.2604  0.2308  0.1788
 1433POPI    C116694  20.108   9.410  10.611  0.2339  0.0234  0.0103
 1433POPI    C216695  19.960   9.711  10.393  0.3935  0.0816 -0.0184
 1433POPI    C316696  19.732   9.534  10.670  0.3068  0.2447  0.0150
 1433POPI   PO416697  20.302   9.474  10.752 -0.2800  0.0169 -0.1500
 1433POPI   GL116698  20.380   9.719  11.144  0.1160 -0.0753 -0.2126
 1433POPI   GL216699  20.708   9.486  11.108 -0.0465 -0.2388  0.0072
 1433POPI   C1A16700  20.745   9.859  11.470  0.0153  0.0374  0.0633
 1433POPI   D2A16701  21.051   9.733  11.772  0.0857 -0.2126 -0.1608
 1433POPI   C3A16702  21.513   9.751  11.908 -0.0616  0.0157  0.4010
 1433POPI   C4A16703  21.801   9.984  12.008  0.2465 -0.2946  0.0332
 1433POPI   C1B16704  21.122   9.385  11.370 -0.0715 -0.1852 -0.0990
 1433POPI   C2B16705  21.287   9.259  11.750 -0.1108 -0.0191  0.1170
 1433POPI   C3B16706  21.278   9.275  12.091 -0.1360  0.1703  0.1674
 1433POPI   C4B16707  21.368   9.432  12.390  0.0428 -0.1014 -0.0462
 1434POPI    C116708  15.254  35.245  11.848  0.0498 -0.1093  0.1580
 1434POPI    C216709  14.883  35.371  11.926 -0.0563 -0.2373 -0.1360
 1434POPI    C316710  15.132   0.215  11.712  0.0482 -0.1333  0.0963
 1434POPI   PO416711  15.417  35.182  12.062  0.0879  0.1675  0.3439
 1434POPI   GL116712  15.452  35.281  12.445  0.2139  0.3530 -0.0572
 1434POPI   GL216713  15.741   0.043  12.339 -0.3421 -0.3536 -0.1283
 1434POPI   C1A16714  15.640  35.237  12.800  0.1203  0.2379  0.1054
 1434POPI   D2A16715  15.945  35.259  13.081 -0.0477 -0.0855 -0.1643
 1434POPI   C3A16716  16.369  35.115  13.330  0.0437 -0.1026  0.2701
 1434POPI   C4A16717  16.715  34.873  13.341 -0.0774 -0.0327 -0.1810
 1434POPI   C1B16718  16.081   0.059  12.637 -0.3043  0.0139  0.1280
 1434POPI   C2B16719  16.386   0.067  12.979 -0.0883 -0.3626 -0.1612
 1434POPI   C3B16720  16.583   0.160  13.348 -0.0113  0.2057  0.0297
 1434POPI   C4B16721  17.010   0.241  13.501  0.1479  0.0152  0.1614
 1435POPI    C116722   7.626  30.479  16.465 -0.0731  0.2141 -0.1380
 1435POPI    C216723   7.328  30.260  16.618  0.3243 -0.0640  0.2505
 1435POPI    C316724   7.424  30.225  16.231 -0.1043 -0.0172  0.1374
 1435POPI   PO416725   7.651  30.755  16.611 -0.0665  0.1635  0.3890
 1435POPI   GL116726   7.467  30.703  16.955  0.3205 -0.1897  0.1808
 1435POPI   GL216727   7.161  30.782  16.797  0.1579  0.1677  0.0904
 1435POPI   C1A16728   7.350  30.687  17.350 -0.0912 -0.1089  0.1696
 1435POPI   D2A16729   7.077  30.682  17.645  0.0928  0.2489 -0.0552
 1435POPI   C3A16730   7.195  30.794  18.056 -0.0473  0.0451 -0.0750
 1435POPI   C4A16731   7.354  30.696  18.401  0.1245  0.2670  0.0449
 1435POPI   C1B16732   7.035  30.465  17.070  0.1423  0.0343 -0.0217
 1435POPI   C2B16733   6.777  30.335  17.500  0.1428 -0.1673 -0.2554
 1435POPI   C3B16734   6.378  30.512  17.665 -0.0440 -0.0668  0.0258
 1435POPI   C4B16735   5.950  30.370  17.808 -0.2036  0.1543 -0.3201
 1436POPI    C116736  12.098  26.629  17.943 -0.0670 -0.1177 -0.1370
 1436POPI    C216737  11.895  26.341  18.133  0.1782 -0.1790  0.0349
 1436POPI    C316738  11.912  26.343  17.733 -0.2347 -0.1218  0.0155
 1436POPI   PO416739  12.012  26.863  18.017 -0.2281  0.2218 -0.0626
 1436POPI   GL116740  11.576  26.967  18.366 -0.1643  0.2037  0.3371
 1436POPI   GL216741  11.710  26.684  18.414  0.2100  0.4175 -0.2384
 1436POPI   C1A16742  11.507  27.049  18.867  0.1842  0.3570  0.0563
 1436POPI   D2A16743  11.360  27.184  19.230  0.0303  0.3000 -0.4078
 1436POPI   C3A16744  11.422  27.248  19.626 -0.0650  0.0594 -0.0911
 1436POPI   C4A16745  11.612  27.183  20.064  0.0549  0.0131 -0.0690
 1436POPI   C1B16746  11.895  26.769  18.713 -0.1506  0.0004 -0.0107
 1436POPI   C2B16747  11.940  26.763  19.112 -0.0258 -0.3962 -0.0979
 1436POPI   C3B16748  11.970  26.925  19.611  0.0410 -0.2242  0.0452
 1436POPI   C4B16749  12.178  27.030  19.992 -0.2643  0.1963 -0.1273
 1437POPI    C116750  14.643  23.977  17.331  0.1363  0.0990 -0.0499
 1437POPI    C216751  14.483  23.744  17.049  0.0157  0.2637 -0.1181
 1437POPI    C316752  14.246  23.953  17.293  0.1203  0.1582  0.0744
 1437POPI   PO416753  14.858  24.170  17.181  0.0170 -0.3042 -0.0686
 1437POPI   GL116754  15.237  24.365  17.276 -0.0736  0.0556  0.0186
 1437POPI   GL216755  15.418  24.081  17.136 -0.0942 -0.1707 -0.1971
 1437POPI   C1A16756  15.474  24.376  17.579 -0.1491  0.2239  0.1132
 1437POPI   D2A16757  15.679  24.352  17.929 -0.1336 -0.1258 -0.2591
 1437POPI   C3A16758  15.844  24.242  18.278 -0.1762  0.1731  0.0452
 1437POPI   C4A16759  16.150  24.062  18.571  0.0352 -0.0129  0.1196
 1437POPI   C1B16760  15.640  23.896  17.567 -0.0812  0.1418 -0.1084
 1437POPI   C2B16761  15.970  23.915  17.857 -0.2267  0.3640 -0.0003
 1437POPI   C3B16762  16.281  23.908  18.160 -0.0394  0.2424  0.1197
 1437POPI   C4B16763  16.569  24.070  18.292  0.0145  0.2194 -0.1327
 1438POPI    C116764   4.559   5.670  10.151  0.0501  0.0205 -0.2553
 1438POPI    C216765   4.859   5.731   9.895  0.3396  0.0328  0.0824
 1438POPI    C316766   4.595   6.023   9.967  0.4227  0.1255  0.0129
 1438POPI   PO416767   4.460   5.449  10.052  0.1852 -0.0849 -0.1575
 1438POPI   GL116768   3.957   5.402  10.184  0.1538  0.0719  0.1204
 1438POPI   GL216769   3.808   5.184  10.027  0.3246  0.1282  0.2303
 1438POPI   C1A16770   3.678   5.276  10.522  0.1511 -0.0114 -0.0140
 1438POPI   D2A16771   3.540   5.187  10.799 -0.4726 -0.0251  0.2913
 1438POPI   C3A16772   3.100   5.331  10.749 -0.1737 -0.2371  0.0854
 1438POPI   C4A16773   2.687   5.234  10.708 -0.2456  0.0690  0.2080
 1438POPI   C1B16774   3.458   5.319  10.031 -0.0113  0.0466  0.2023
 1438POPI   C2B16775   3.206   5.533  10.284  0.6901  0.0729  0.1163
 1438POPI   C3B16776   2.779   5.462  10.180  0.0772 -0.1443 -0.0583
 1438POPI   C4B16777   2.553   5.122  10.257  0.0391 -0.0426  0.2052
 1439POPI    C116778  10.652  14.416  13.777 -0.4484  0.0245 -0.0138
 1439POPI    C216779  10.576  14.695  14.053  0.2640  0.1574  0.0588
 1439POPI    C316780  10.709  14.803  13.692  0.2239 -0.0707 -0.0248
 1439POPI   PO416781  10.823  14.301  13.909  0.1176  0.1954 -0.2249
 1439POPI   GL116782  11.025  14.061  14.238  0.0466 -0.2338 -0.0218
 1439POPI   GL216783  11.223  14.165  14.143 -0.0781 -0.0808  0.3865
 1439POPI   C1A16784  10.894  14.001  14.650  0.1038  0.0587  0.0464
 1439POPI   D2A16785  10.885  13.944  15.105 -0.0742 -0.1084 -0.1339
 1439POPI   C3A16786  10.910  13.644  15.390 -0.2146  0.0957 -0.0667
 1439POPI   C4A16787  10.837  13.214  15.637  0.0200 -0.0468 -0.0904
 1439POPI   C1B16788  11.310  14.291  14.603 -0.0404  0.3364  0.0485
 1439POPI   C2B16789  11.263  14.250  15.098  0.1470 -0.2141 -0.0549
 1439POPI   C3B16790  11.046  14.205  15.496 -0.1754  0.0297  0.0307
 1439POPI   C4B16791  11.101  13.850  15.809  0.4310  0.0036  0.1501
 1440POPI    C116792  10.484  28.481  16.969  0.1182 -0.1961 -0.0402
 1440POPI    C216793  10.440  28.703  16.639 -0.0634 -0.0376  0.0895
 1440POPI    C316794  10.252  28.352  16.670  0.0541 -0.1114 -0.0277
 1440POPI   PO416795  10.481  28.706  17.219 -0.0673 -0.1137  0.1499
 1440POPI   GL116796  10.391  28.961  17.577 -0.0682  0.0346 -0.0761
 1440POPI   GL216797  10.503  29.055  17.772 -0.1306 -0.1125 -0.1390
 1440POPI   C1A16798   9.944  29.054  17.754  0.0777  0.1322  0.2160
 1440POPI   D2A16799   9.711  28.874  18.064 -0.1061 -0.0586  0.2249
 1440POPI   C3A16800  10.008  29.083  18.467  0.0796  0.0366 -0.3910
 1440POPI   C4A16801  10.102  29.436  18.700 -0.2734 -0.1855 -0.0133
 1440POPI   C1B16802  10.292  29.141  18.080  0.1227  0.0892 -0.2527
 1440POPI   C2B16803  10.196  29.516  18.224 -0.1254  0.0215  0.1366
 1440POPI   C3B16804   9.913  29.804  18.275  0.1980  0.1684 -0.1182
 1440POPI   C4B16805   9.805  29.834  18.647  0.0579 -0.0494  0.1291
 1441POPI    C116806  25.108  28.581   4.958  0.0106 -0.1772  0.0913
 1441POPI    C216807  24.984  28.934   5.100  0.4009 -0.0808  0.1999
 1441POPI    C316808  24.969  28.860   4.707 -0.0057 -0.0765  0.2116
 1441POPI   PO416809  25.378  28.498   5.077  0.0091 -0.1196  0.2607
 1441POPI   GL116810  25.647  28.365   5.452 -0.2792 -0.0716 -0.2722
 1441POPI   GL216811  25.837  28.255   5.279 -0.0194  0.0720 -0.0759
 1441POPI   C1A16812  25.765  28.258   5.875 -0.0808  0.1139  0.2240
 1441POPI   D2A16813  25.745  28.121   6.308 -0.0411 -0.1295  0.2552
 1441POPI   C3A16814  25.985  28.299   6.568  0.1982 -0.1251  0.0157
 1441POPI   C4A16815  26.366  28.421   6.713  0.0912 -0.1587  0.0011
 1441POPI   C1B16816  26.148  27.946   5.156 -0.3063  0.2301  0.1848
 1441POPI   C2B16817  26.359  27.633   5.341 -0.1701 -0.1411  0.1290
 1441POPI   C3B16818  26.564  27.269   5.440  0.0985 -0.1764  0.0131
 1441POPI   C4B16819  26.613  26.924   5.683  0.0632 -0.0042 -0.2631
 1442POPI    C116820  19.907   7.395  11.593  0.0614 -0.1120  0.2880
 1442POPI    C216821  19.573   7.343  11.380 -0.0026  0.4912  0.2341
 1442POPI    C316822  19.851   7.056  11.387 -0.3286  0.1624 -0.0656
 1442POPI   PO416823  19.894   7.412  11.803 -0.2115  0.2142  0.1299
 1442POPI   GL116824  19.821   7.549  12.196 -0.0204 -0.4881 -0.1018
 1442POPI   GL216825  19.572   7.518  12.346  0.0137  0.0635  0.1568
 1442POPI   C1A16826  20.295   7.545  12.250  0.1906 -0.1224 -0.0110
 1442POPI   D2A16827  20.689   7.621  12.385  0.0344 -0.2946  0.0441
 1442POPI   C3A16828  21.045   7.698  12.653  0.0915 -0.1254  0.2029
 1442POPI   C4A16829  21.483   7.577  12.895  0.0004 -0.0227  0.0491
 1442POPI   C1B16830  19.873   7.442  12.659  0.0995  0.0352  0.0051
 1442POPI   C2B16831  20.256   7.406  12.751 -0.2289 -0.0485 -0.1857
 1442POPI   C3B16832  20.658   7.524  12.903 -0.0259 -0.0573  0.1227
 1442POPI   C4B16833  21.005   7.674  13.170  0.1893 -0.0322  0.0267
 1443POPI    C116834  14.520  20.020  15.846 -0.0897  0.1250  0.1372
 1443POPI    C216835  14.409  20.277  15.561 -0.0341  0.0143  0.0148
 1443POPI    C316836  14.229  19.921  15.589  0.0055 -0.0007  0.0771
 1443POPI   PO416837  14.754  19.988  15.849 -0.0362  0.3348 -0.2022
 1443POPI   GL116838  15.182  19.697  15.962  0.2159 -0.2703 -0.1140
 1443POPI   GL216839  15.029  19.579  15.727 -0.0916 -0.0472  0.1539
 1443POPI   C1A16840  15.403  19.573  16.185 -0.2422 -0.1378 -0.0572
 1443POPI   D2A16841  15.688  19.295  16.447  0.0923 -0.3288  0.1521
 1443POPI   C3A16842  15.719  19.031  16.783  0.2553  0.1980 -0.0417
 1443POPI   C4A16843  15.667  19.051  17.190  0.2552 -0.0243 -0.3335
 1443POPI   C1B16844  15.341  19.129  15.662  0.3225  0.0959  0.3022
 1443POPI   C2B16845  15.607  19.041  16.057  0.1401  0.2161  0.0647
 1443POPI   C3B16846  15.849  18.826  16.253 -0.0553 -0.0401  0.1806
 1443POPI   C4B16847  15.970  18.541  16.633  0.1699  0.1258  0.2527
 1444POPI    C116848   8.933   5.499  14.334  0.5282  0.1093 -0.0389
 1444POPI    C216849   9.008   5.892  14.330 -0.2273  0.2598 -0.0943
 1444POPI    C316850   8.945   5.696  13.987  0.3849  0.0360 -0.0859
 1444POPI   PO416851   9.017   5.404  14.454  0.3344  0.1279 -0.0310
 1444POPI   GL116852   9.048   5.520  14.915  0.0313 -0.1116  0.2603
 1444POPI   GL216853   8.805   5.229  14.948  0.0061  0.0437 -0.1809
 1444POPI   C1A16854   9.100   5.729  15.289  0.0542 -0.0142 -0.2490
 1444POPI   D2A16855   8.845   6.063  15.538 -0.3121 -0.2168  0.0802
 1444POPI   C3A16856   8.652   6.116  15.855 -0.6374 -0.0712  0.2049
 1444POPI   C4A16857   8.612   6.213  16.270  0.1596  0.1143 -0.0165
 1444POPI   C1B16858   8.691   5.337  15.324  0.0186  0.2368  0.1490
 1444POPI   C2B16859   8.708   5.570  15.641 -0.1409 -0.1822  0.0178
 1444POPI   C3B16860   8.803   5.680  15.979 -0.0990 -0.2245  0.0053
 1444POPI   C4B16861   8.738   5.739  16.375  0.0312  0.2476 -0.0367
 1445POPI    C116862   7.036  30.410  15.959 -0.0949 -0.3217  0.2482
 1445POPI    C216863   7.069  30.332  15.568  0.1397  0.2166  0.1552
 1445POPI    C316864   7.139  30.044  15.837 -0.1040 -0.1785 -0.1990
 1445POPI   PO416865   6.811  30.532  16.044 -0.0098  0.1683 -0.1108
 1445POPI   GL116866   6.795  30.512  16.484  0.0421  0.1892  0.1789
 1445POPI   GL216867   6.417  30.479  16.385 -0.0722 -0.2040 -0.1604
 1445POPI   C1A16868   6.622  30.610  16.871 -0.0352  0.2169 -0.0748
 1445POPI   D2A16869   6.651  30.786  17.253 -0.2495  0.1512  0.5821
 1445POPI   C3A16870   6.364  31.002  17.607 -0.0682  0.0811  0.0256
 1445POPI   C4A16871   6.318  31.232  17.891 -0.1299  0.0760  0.1197
 1445POPI   C1B16872   6.149  30.355  16.709 -0.1255 -0.2696 -0.1407
 1445POPI   C2B16873   5.875  30.337  17.029  0.0549  0.1003 -0.0807
 1445POPI   C3B16874   5.705  30.351  17.382  0.2533 -0.1996  0.4634
 1445POPI   C4B16875   5.421  30.572  17.614  0.0905 -0.0129  0.0220
 1446POPI    C116876  11.004  23.553  18.154  0.2282  0.1369 -0.1667
 1446POPI    C216877  10.801  23.460  17.822 -0.0676  0.2236 -0.0124
 1446POPI    C316878  10.904  23.840  17.894  0.1423  0.1814 -0.0853
 1446POPI   PO416879  11.037  23.348  18.279  0.0121 -0.3407  0.0379
 1446POPI   GL116880  10.770  23.189  18.584 -0.1702 -0.0281 -0.0660
 1446POPI   GL216881  10.700  23.530  18.729 -0.2142 -0.3356  0.2892
 1446POPI   C1A16882  10.584  22.843  18.892  0.0496 -0.0120 -0.0331
 1446POPI   D2A16883  10.568  22.901  19.301 -0.4478 -0.0983 -0.0642
 1446POPI   C3A16884  10.393  22.580  19.555  0.0034 -0.0487  0.1109
 1446POPI   C4A16885   9.995  22.262  19.869  0.1374  0.4561  0.1052
 1446POPI   C1B16886  10.760  23.334  19.034 -0.2862 -0.1145  0.0740
 1446POPI   C2B16887  10.778  23.377  19.466 -0.1532  0.4191 -0.0414
 1446POPI   C3B16888  10.882  23.535  19.786 -0.1151  0.0035 -0.0627
 1446POPI   C4B16889  10.722  23.605  20.240  0.0189  0.2483  0.2349
 1447PAPI    C116890  18.761  19.967  11.717  0.2521  0.1718 -0.0600
 1447PAPI    C216891  18.536  20.297  11.699  0.1087  0.0793  0.0242
 1447PAPI    C316892  18.371  19.939  11.630  0.2790  0.0313 -0.1367
 1447PAPI   PO416893  19.024  19.949  11.571  0.1052  0.5136 -0.0031
 1447PAPI   GL116894  19.369  20.085  11.309  0.1187  0.0456 -0.1940
 1447PAPI   GL216895  19.511  20.297  11.563 -0.0652  0.0420  0.2392
 1447PAPI   D1A16896  19.751  19.840  11.306 -0.3334 -0.1761 -0.0994
 1447PAPI   D2A16897  20.055  20.101  11.552 -0.0627  0.1099 -0.4348
 1447PAPI   D3A16898  20.368  19.901  11.733 -0.2484  0.3098 -0.0281
 1447PAPI   D4A16899  20.588  20.333  11.633  0.1383 -0.1162  0.0270
 1447PAPI   C5A16900  20.612  20.545  11.177 -0.1007  0.0068 -0.0149
 1447PAPI   C1B16901  19.777  20.458  11.811  0.0880 -0.0720 -0.2828
 1447PAPI   C2B16902  20.204  20.372  11.909  0.1808 -0.1399 -0.0616
 1447PAPI   C3B16903  20.609  20.118  12.116  0.0276 -0.0376  0.1126
 1447PAPI   C4B16904  20.819  19.809  12.082 -0.2210 -0.2216 -0.3295
 1448PAPI    C116905  17.544  31.829  10.179 -0.0036  0.0936  0.0909
 1448PAPI    C216906  17.699  32.130  10.392  0.1743 -0.0123  0.1124
 1448PAPI    C316907  17.336  32.167  10.229  0.2543  0.2686 -0.0062
 1448PAPI   PO416908  17.737  31.694  10.134  0.0286  0.1442 -0.0980
 1448PAPI   GL116909  18.040  31.622  10.463 -0.0759 -0.0488  0.1269
 1448PAPI   GL216910  17.914  31.762  10.713 -0.3669  0.1480 -0.2664
 1448PAPI   D1A16911  18.262  31.232  10.534 -0.0215  0.3042  0.2721
 1448PAPI   D2A16912  18.122  31.381  11.001 -0.0176 -0.1550  0.1013
 1448PAPI   D3A16913  18.177  31.193  11.288  0.2041  0.0618  0.2994
 1448PAPI   D4A16914  17.872  31.317  11.403 -0.2295 -0.3529  0.0694
 1448PAPI   C5A16915  17.857  31.824  11.404  0.0299  0.0276 -0.1199
 1448PAPI   C1B16916  18.130  31.931  11.036 -0.0955  0.0031 -0.0074
 1448PAPI   C2B16917  18.451  31.902  11.322  0.2615  0.1270  0.0326
 1448PAPI   C3B16918  18.602  32.110  11.637  0.1461  0.1658 -0.0257
 1448PAPI   C4B16919  18.954  32.165  11.847 -0.0778 -0.1439  0.0496
 1449PAPI    C116920  23.373  26.297   4.334 -0.1296  0.1052 -0.0907
 1449PAPI    C216921  23.732  26.120   4.333 -0.0987  0.1668  0.1004
 1449PAPI    C316922  23.444  25.990   4.087 -0.1135 -0.2268  0.3215
 1449PAPI   PO416923  23.441  26.526   4.494 -0.0957  0.2725 -0.1115
 1449PAPI   GL116924  23.580  26.499   4.870 -0.1125 -0.0953 -0.1785
 1449PAPI   GL216925  23.958  26.557   4.919 -0.0043  0.3590  0.1412
 1449PAPI   D1A16926  23.428  26.451   5.256 -0.1213 -0.0353 -0.3374
 1449PAPI   D2A16927  23.265  26.762   5.586  0.0902  0.3733 -0.0914
 1449PAPI   D3A16928  23.623  26.509   5.743 -0.0786 -0.0791 -0.0402
 1449PAPI   D4A16929  23.865  26.611   6.047  0.1649  0.4172 -0.0552
 1449PAPI   C5A16930  24.093  26.547   6.462 -0.1953  0.2332 -0.1891
 1449PAPI   C1B16931  23.986  26.513   5.378  0.0243  0.1994 -0.1782
 1449PAPI   C2B16932  24.200  26.570   5.722  0.1790 -0.5325  0.1774
 1449PAPI   C3B16933  24.558  26.684   6.150 -0.2855  0.1119  0.1120
 1449PAPI   C4B16934  24.927  26.655   6.327 -0.2423  0.0211  0.0857
 1450PAPI    C116935  35.122  27.374   6.020  0.2529  0.1107 -0.0788
 1450PAPI    C216936  35.270  27.288   6.381  0.1200  0.0089 -0.0481
 1450PAPI    C316937  35.222  27.669   6.271 -0.1464  0.0399  0.1683
 1450PAPI   PO416938  34.936  27.139   6.057 -0.1810 -0.0822 -0.1170
 1450PAPI   GL116939  34.613  26.855   5.941  0.0956  0.0173 -0.0973
 1450PAPI   GL216940  34.514  26.842   5.612  0.0238 -0.0945  0.0537
 1450PAPI   D1A16941  34.185  27.213   5.937  0.3265 -0.1364 -0.0964
 1450PAPI   D2A16942  33.951  26.929   6.096  0.0444 -0.0976  0.0858
 1450PAPI   D3A16943  33.783  26.583   5.856 -0.2187  0.3106 -0.0018
 1450PAPI   D4A16944  33.471  26.220   6.033  0.1227 -0.0094  0.1753
 1450PAPI   C5A16945  33.106  26.227   5.837  0.1793  0.1016  0.0277
 1450PAPI   C1B16946  34.239  26.495   5.724  0.0925 -0.1982  0.0304
 1450PAPI   C2B16947  33.957  26.040   5.876  0.0573  0.2005 -0.1574
 1450PAPI   C3B16948  33.715  25.704   5.698  0.1909 -0.1592 -0.0578
 1450PAPI   C4B16949  33.601  25.364   5.890  0.1154  0.1129  0.0167
 1451PAPI    C116950   6.367  17.950   8.936 -0.1018 -0.0533 -0.2212
 1451PAPI    C216951   6.366  18.108   8.568  0.0051 -0.1891 -0.2803
 1451PAPI    C316952   6.517  17.743   8.628 -0.2241 -0.2623 -0.1412
 1451PAPI   PO416953   6.121  17.939   9.088  0.2632  0.0626 -0.0242
 1451PAPI   GL116954   5.732  18.034   9.171 -0.0817 -0.1424  0.1970
 1451PAPI   GL216955   5.813  18.390   9.208 -0.3774  0.2076  0.0597
 1451PAPI   D1A16956   5.622  18.243   9.658 -0.0108 -0.0986 -0.0927
 1451PAPI   D2A16957   5.403  18.565   9.628 -0.1305 -0.3137 -0.2859
 1451PAPI   D3A16958   5.109  18.252   9.886  0.3895  0.0887 -0.3789
 1451PAPI   D4A16959   4.817  17.887   9.924  0.2321 -0.3262 -0.2055
 1451PAPI   C5A16960   4.546  17.873  10.156  0.0876 -0.2043  0.2073
 1451PAPI   C1B16961   5.344  18.489   9.144  0.3257 -0.3567 -0.0044
 1451PAPI   C2B16962   4.975  18.435   9.257 -0.1594 -0.1097  0.0879
 1451PAPI   C3B16963   4.618  18.537   9.446 -0.1608 -0.3055 -0.2882
 1451PAPI   C4B16964   4.420  18.797   9.681  0.3575  0.1002 -0.4293
 1452PAPI    C116965  23.811  24.964   4.045 -0.0656  0.0348  0.2248
 1452PAPI    C216966  23.459  24.823   3.918 -0.0120 -0.0306  0.1470
 1452PAPI    C316967  23.789  24.600   3.881  0.0565  0.0744  0.1186
 1452PAPI   PO416968  23.770  25.188   4.275 -0.0449  0.1671 -0.0615
 1452PAPI   GL116969  23.633  24.952   4.620  0.2936 -0.0694  0.4351
 1452PAPI   GL216970  23.607  25.186   4.768 -0.4818 -0.0511 -0.0628
 1452PAPI   D1A16971  23.874  24.626   4.524  0.0221  0.0727 -0.2018
 1452PAPI   D2A16972  23.930  24.539   4.976  0.0816  0.0576 -0.0714
 1452PAPI   D3A16973  23.940  24.679   5.490  0.0038  0.1583  0.1782
 1452PAPI   D4A16974  24.326  24.598   5.777  0.0928 -0.6464  0.1355
 1452PAPI   C5A16975  24.382  24.444   6.145 -0.1078 -0.1071 -0.1210
 1452PAPI   C1B16976  23.863  25.463   4.947  0.0001  0.2912  0.1237
 1452PAPI   C2B16977  24.291  25.392   5.121  0.0698  0.0364 -0.4040
 1452PAPI   C3B16978  24.505  25.440   5.532 -0.2429  0.0366  0.1401
 1452PAPI   C4B16979  24.827  25.533   5.751  0.2338 -0.0879  0.1311
 1453PAPI    C116980   5.802  29.463  15.199 -0.1070 -0.0509  0.1120
 1453PAPI    C216981   5.959  29.206  14.935 -0.3510 -0.4277  0.3294
 1453PAPI    C316982   5.766  29.532  14.806  0.0277 -0.3088  0.0527
 1453PAPI   PO416983   5.682  29.309  15.379 -0.0467  0.0931 -0.1384
 1453PAPI   GL116984   5.619  29.181  15.686 -0.0974 -0.3280  0.0072
 1453PAPI   GL216985   5.647  28.847  15.775 -0.1970 -0.0198  0.2315
 1453PAPI   D1A16986   5.379  29.304  15.983 -0.0931  0.1613  0.1780
 1453PAPI   D2A16987   5.081  29.377  15.637  0.2140  0.1004  0.0867
 1453PAPI   D3A16988   4.778  29.068  15.628 -0.0027  0.0584 -0.1180
 1453PAPI   D4A16989   4.529  29.057  15.251 -0.0978 -0.0003  0.1605
 1453PAPI   C5A16990   4.187  28.693  15.170  0.1802 -0.4482 -0.4932
 1453PAPI   C1B16991   5.528  28.868  16.212  0.0178 -0.0755  0.1489
 1453PAPI   C2B16992   5.289  28.978  16.508 -0.1031 -0.1336  0.0687
 1453PAPI   C3B16993   5.122  29.135  16.832 -0.2701  0.0240 -0.1836
 1453PAPI   C4B16994   4.949  29.296  17.242  0.1106  0.0650  0.0127
 1454PAPI    C116995   1.790  32.470   9.632  0.2141  0.1149  0.0250
 1454PAPI    C216996   1.904  32.088   9.648  0.0915  0.0702 -0.1649
 1454PAPI    C316997   2.145  32.362   9.484  0.1584  0.0660 -0.0733
 1454PAPI   PO416998   1.774  32.613   9.980 -0.2801 -0.0264 -0.0126
 1454PAPI   GL116999   1.354  32.721  10.192 -0.2725 -0.0446  0.0484
 1454PAPI   GL217000   1.051  32.794  10.203 -0.1797 -0.1222 -0.0700
 1454PAPI   D1A17001   1.479  32.843  10.609 -0.0254 -0.0509 -0.1563
 1454PAPI   D2A17002   1.172  33.146  10.510  0.0916 -0.2456  0.1010
 1454PAPI   D3A17003   1.155  33.232  10.967  0.0731  0.0156  0.2433
 1454PAPI   D4A17004   0.733  33.306  10.819  0.1859 -0.0248  0.1606
 1454PAPI   C5A17005   0.471  33.066  11.073 -0.2236 -0.1790  0.3016
 1454PAPI   C1B17006   0.648  32.817  10.507 -0.1769 -0.1489  0.1888
 1454PAPI   C2B17007   0.122  32.838  10.675  0.0851  0.0486  0.0183
 1454PAPI   C3B17008   0.005  33.146  10.889 -0.0136  0.5565 -0.1016
 1454PAPI   C4B17009  34.966  33.339  10.880  0.2182  0.0468 -0.3387
 1455PAPI    C117010   9.678   1.396  15.442  0.2581 -0.4035  0.0854
 1455PAPI    C217011   9.427   1.089  15.388  0.1004 -0.2825  0.1251
 1455PAPI    C317012   9.717   1.160  15.122 -0.3003 -0.0471 -0.2536
 1455PAPI   PO417013   9.631   1.415  15.679 -0.3467  0.0914 -0.1101
 1455PAPI   GL117014   9.478   1.191  16.030  0.3630 -0.0391  0.0526
 1455PAPI   GL217015   9.487   0.821  16.243 -0.0544  0.2572 -0.0965
 1455PAPI   D1A17016   9.759   1.418  16.242 -0.1888  0.3682  0.0799
 1455PAPI   D2A17017   9.671   1.194  16.607 -0.0958  0.0474 -0.0776
 1455PAPI   D3A17018   9.304   1.285  16.480 -0.1200 -0.2023 -0.0362
 1455PAPI   D4A17019   9.417   1.609  16.532  0.2714  0.1617 -0.2581
 1455PAPI   C5A17020   9.391   1.870  16.848  0.3072  0.2420 -0.1301
 1455PAPI   C1B17021   9.092   0.902  16.321  0.1782  0.0127 -0.0476
 1455PAPI   C2B17022   8.743   1.095  16.546  0.4095 -0.0874 -0.2090
 1455PAPI   C3B17023   8.635   1.215  16.901 -0.2185  0.0317 -0.2350
 1455PAPI   C4B17024   8.461   1.222  17.249 -0.1252  0.1991  0.3397
 1456PAPI    C117025  33.068  14.050   1.031  0.1114  0.0116 -0.4118
 1456PAPI    C217026  32.682  14.033   0.927  0.0348 -0.1717 -0.1027
 1456PAPI    C317027  32.872  13.701   1.045  0.1634  0.0014  0.1826
 1456PAPI   PO417028  33.056  14.189   1.304  0.0606 -0.0004 -0.1040
 1456PAPI   GL117029  33.090  13.888   1.723 -0.0491 -0.1928  0.1066
 1456PAPI   GL217030  33.022  13.666   1.552 -0.0075  0.0220  0.2399
 1456PAPI   D1A17031  33.408  13.826   2.179  0.0015  0.1675  0.1624
 1456PAPI   D2A17032  33.627  13.675   1.777 -0.5554  0.1926  0.0800
 1456PAPI   D3A17033  33.446  13.378   1.771  0.1401  0.1224 -0.0697
 1456PAPI   D4A17034  33.073  13.457   2.059 -0.2806  0.0763 -0.1650
 1456PAPI   C5A17035  32.810  13.722   2.338  0.0810  0.1909 -0.0629
 1456PAPI   C1B17036  32.633  13.691   1.899 -0.0189  0.0414  0.3594
 1456PAPI   C2B17037  32.266  13.864   2.024  0.0969  0.2717  0.0098
 1456PAPI   C3B17038  31.840  13.924   2.026 -0.0353  0.2801 -0.2238
 1456PAPI   C4B17039  31.449  14.027   2.240 -0.0736  0.1166  0.1186
 1457PAPI    C117040  22.770   6.188   6.304  0.2471  0.0901 -0.1064
 1457PAPI    C217041  22.835   5.804   6.215 -0.2105 -0.0792  0.2657
 1457PAPI    C317042  23.004   5.966   6.539  0.0819  0.0712  0.0412
 1457PAPI   PO417043  22.631   6.272   6.008  0.1100  0.2848  0.0360
 1457PAPI   GL117044  22.699   6.795   5.963 -0.1076 -0.4039 -0.0470
 1457PAPI   GL217045  22.963   6.632   6.212  0.0178  0.2313 -0.2970
 1457PAPI   D1A17046  23.084   7.100   6.063  0.1270 -0.0307 -0.0250
 1457PAPI   D2A17047  22.946   7.516   5.769 -0.0854  0.0064  0.2437
 1457PAPI   D3A17048  23.168   7.960   5.848 -0.1549  0.1005 -0.0361
 1457PAPI   D4A17049  23.346   8.080   6.171 -0.1877 -0.3781 -0.0581
 1457PAPI   C5A17050  23.082   8.265   6.348  0.2653 -0.2348 -0.2282
 1457PAPI   C1B17051  23.337   6.749   6.589 -0.0884 -0.0396  0.0228
 1457PAPI   C2B17052  23.808   6.994   6.604  0.0376  0.0469 -0.0888
 1457PAPI   C3B17053  24.026   7.305   6.963  0.3114 -0.2835  0.2442
 1457PAPI   C4B17054  24.426   7.492   7.124  0.2263  0.0642  0.1952
 1458PAPI    C117055  32.144   5.479   5.313 -0.0764 -0.0454  0.0708
 1458PAPI    C217056  31.889   5.774   5.222 -0.0932 -0.1144 -0.1076
 1458PAPI    C317057  32.260   5.776   5.072  0.0346  0.0209  0.2052
 1458PAPI   PO417058  31.890   5.356   5.443 -0.3147  0.2304 -0.0813
 1458PAPI   GL117059  31.767   5.405   5.822  0.0176  0.1734 -0.2226
 1458PAPI   GL217060  31.872   5.504   6.070 -0.1781 -0.0652  0.0569
 1458PAPI   D1A17061  31.919   5.837   5.704  0.4475  0.0229 -0.0008
 1458PAPI   D2A17062  31.556   6.100   5.578 -0.0009  0.0382  0.0109
 1458PAPI   D3A17063  31.649   6.189   5.954  0.2114  0.0371  0.0591
 1458PAPI   D4A17064  31.781   6.603   5.779 -0.1546  0.1009 -0.0796
 1458PAPI   C5A17065  31.580   7.002   5.871  0.1335 -0.0378  0.0857
 1458PAPI   C1B17066  31.647   5.815   6.189 -0.2170  0.0878  0.1972
 1458PAPI   C2B17067  31.313   6.081   6.377  0.2222 -0.1664  0.2739
 1458PAPI   C3B17068  31.115   6.378   6.551 -0.1954 -0.0256  0.2210
 1458PAPI   C4B17069  30.777   6.515   6.803 -0.1270 -0.2448 -0.0228
 1459PAPI    C117070  24.118   7.992   4.599 -0.0101 -0.2065  0.0992
 1459PAPI    C217071  23.744   8.088   4.702  0.0177 -0.1567  0.1553
 1459PAPI    C317072  23.810   7.832   4.402 -0.0563  0.0813 -0.0650
 1459PAPI   PO417073  24.285   8.187   4.814 -0.0041  0.0850  0.1423
 1459PAPI   GL117074  24.616   8.042   4.955 -0.1372  0.0961 -0.2320
 1459PAPI   GL217075  24.713   7.821   5.249  0.0098  0.1194 -0.0070
 1459PAPI   D1A17076  24.896   8.484   4.948  0.1690  0.1029 -0.4041
 1459PAPI   D2A17077  24.742   8.408   4.563 -0.2330  0.3545  0.1574
 1459PAPI   D3A17078  24.905   8.565   4.168  0.3058  0.1207  0.1072
 1459PAPI   D4A17079  24.922   8.971   4.413  0.0344 -0.1152  0.2198
 1459PAPI   C5A17080  25.218   8.975   4.737 -0.1960  0.2499 -0.4912
 1459PAPI   C1B17081  24.837   8.219   5.384  0.0961 -0.0110 -0.0948
 1459PAPI   C2B17082  25.016   8.651   5.402 -0.1450  0.3079  0.3043
 1459PAPI   C3B17083  25.155   9.121   5.579  0.5005 -0.1595 -0.2042
 1459PAPI   C4B17084  25.034   9.438   5.835  0.0964  0.2115 -0.0034
 1460PAPI    C117085   2.208  35.239  10.639  0.1590 -0.3405 -0.0508
 1460PAPI    C217086   2.113  35.101  10.276 -0.0476 -0.1268 -0.0791
 1460PAPI    C317087   2.360   0.028  10.313 -0.2608  0.0393 -0.0483
 1460PAPI   PO417088   2.182  34.896  10.764  0.0746 -0.0817 -0.1038
 1460PAPI   GL117089   1.791  34.734  11.050  0.1568  0.1349  0.0948
 1460PAPI   GL217090   1.500  34.871  11.118 -0.2214  0.2942 -0.0202
 1460PAPI   D1A17091   1.828  34.975  11.500  0.2115 -0.1039 -0.0095
 1460PAPI   D2A17092   2.258  35.024  11.845 -0.0795  0.3190 -0.1732
 1460PAPI   D3A17093   1.959  35.096  12.199 -0.2256 -0.0743 -0.1464
 1460PAPI   D4A17094   1.753  35.317  12.523 -0.1543  0.1047 -0.1447
 1460PAPI   C5A17095   1.632   0.308  12.408 -0.0338 -0.1801 -0.0518
 1460PAPI   C1B17096   1.455  35.273  11.326  0.0133 -0.1365 -0.0891
 1460PAPI   C2B17097   1.428   0.269  11.484 -0.1900 -0.0421  0.1440
 1460PAPI   C3B17098   1.109   0.423  11.853  0.0906 -0.0263 -0.0109
 1460PAPI   C4B17099   1.004   0.135  12.188 -0.2068 -0.2453 -0.1918
 1461CHOL   ROH17100   0.693  22.924   9.045 -0.1411  0.1019  0.1858
 1461CHOL    R117101   0.797  23.182   8.997 -0.0299  0.0607  0.2035
 1461CHOL    R217102   1.000  23.291   9.150  0.1047 -0.0854  0.1326
 1461CHOL    R317103   1.120  23.325   8.909  0.0009 -0.0849  0.0810
 1461CHOL    R417104   1.292  23.468   9.098  0.0315 -0.0051 -0.0084
 1461CHOL    R517105   1.205  23.549   8.915 -0.0636 -0.0589  0.0137
 1461CHOL    C117106   1.576  23.603   8.842 -0.1086  0.0418 -0.1393
 1461CHOL    C217107   1.968  23.829   8.798 -0.1217  0.0083  0.3893
 1462CHOL   ROH17108  26.012  28.008   8.749 -0.0385 -0.0039 -0.0550
 1462CHOL    R117109  25.905  28.212   8.585 -0.2272 -0.1041 -0.0575
 1462CHOL    R217110  26.045  28.322   8.374 -0.2399  0.1792  0.0788
 1462CHOL    R317111  25.824  28.252   8.233 -0.0399 -0.1024 -0.1009
 1462CHOL    R417112  25.921  28.497   8.103 -0.3519  0.1314  0.0990
 1462CHOL    R517113  25.720  28.461   8.179 -0.3456 -0.2384 -0.0480
 1462CHOL    C117114  25.641  28.533   7.812 -0.2293 -0.1608 -0.0581
 1462CHOL    C217115  25.469  28.945   7.685  0.0487  0.2269  0.0921
 1463CHOL   ROH17116  33.435  24.476   7.965 -0.0109  0.1438  0.1102
 1463CHOL    R117117  33.580  24.641   7.787 -0.0397  0.1089  0.0542
 1463CHOL    R217118  33.652  24.901   7.849  0.0506  0.0899  0.0288
 1463CHOL    R317119  33.901  24.812   7.787  0.0039  0.0277 -0.0717
 1463CHOL    R417120  33.885  25.080   7.668  0.0607  0.0761  0.0277
 1463CHOL    R517121  33.940  24.896   7.566 -0.0294  0.0933 -0.0535
 1463CHOL    C117122  34.255  25.102   7.504  0.0227  0.0095 -0.0674
 1463CHOL    C217123  34.346  25.252   7.155  0.0215  0.0898  0.0540
 1464CHOL   ROH17124  27.954  18.326   3.647 -0.2778 -0.2631  0.1213
 1464CHOL    R117125  27.834  18.224   3.412 -0.2016 -0.0790  0.0014
 1464CHOL    R217126  27.567  18.265   3.353 -0.1922 -0.0670 -0.0340
 1464CHOL    R317127  27.668  18.363   3.120 -0.1451  0.1490  0.0760
 1464CHOL    R417128  27.422  18.222   3.042 -0.0093  0.0263 -0.1327
 1464CHOL    R517129  27.622  18.191   2.958  0.0532  0.2169 -0.0545
 1464CHOL    C117130  27.432  18.289   2.642  0.1415  0.2824 -0.0870
 1464CHOL    C217131  27.547  18.300   2.321  0.0874  0.2787  0.1218
 1465CHOL   ROH17132  25.836   6.141   9.491  0.2272 -0.3566 -0.1384
 1465CHOL    R117133  25.692   6.189   9.252  0.3254 -0.2287 -0.1735
 1465CHOL    R217134  25.669   5.999   9.053  0.0752 -0.2669 -0.1129
 1465CHOL    R317135  25.403   6.045   9.085  0.1356  0.1319 -0.1590
 1465CHOL    R417136  25.429   5.945   8.810 -0.0168 -0.3440 -0.0044
 1465CHOL    R517137  25.331   6.130   8.872  0.2287 -0.1135 -0.2898
 1465CHOL    C117138  25.040   5.956   8.699 -0.0141 -0.0144  0.0157
 1465CHOL    C217139  25.040   6.177   8.354 -0.1874 -0.3130 -0.0434
 1466CHOL   ROH17140  19.339  18.387  17.108  0.1518  0.1067 -0.0396
 1466CHOL    R117141  19.136  18.565  17.192 -0.0053 -0.0681 -0.0471
 1466CHOL    R217142  19.177  18.838  17.215 -0.1611 -0.0663  0.2182
 1466CHOL    R317143  18.960  18.851  17.051 -0.0392 -0.0367  0.0582
 1466CHOL    R417144  19.027  19.131  17.110 -0.0143 -0.0443  0.0679
 1466CHOL    R517145  18.833  19.036  17.137 -0.0574  0.0067 -0.0599
 1466CHOL    C117146  18.737  19.315  16.895  0.1852 -0.0035 -0.1697
 1466CHOL    C217147  18.674  19.399  16.546 -0.1949 -0.1408  0.0835
 1467CHOL   ROH17148  34.978   8.647   4.992 -0.2297 -0.4719 -0.1132
 1467CHOL    R117149  34.804   8.823   5.130 -0.0954 -0.3081 -0.1504
 1467CHOL    R217150  34.603   8.963   5.002 -0.1197 -0.3374 -0.1472
 1467CHOL    R317151  34.446   8.847   5.191 -0.0537 -0.1426  0.0293
 1467CHOL    R417152  34.312   9.100   5.128 -0.0679 -0.2022 -0.1737
 1467CHOL    R517153  34.370   9.029   5.326  0.0023 -0.0052 -0.1248
 1467CHOL    C117154  33.994   9.069   5.379  0.0232  0.0590 -0.0235
 1467CHOL    C217155  33.619   9.130   5.590  0.2483 -0.4223  0.0465
 1468CHOL   ROH17156  18.191  31.909  15.257  0.0129 -0.1334  0.1378
 1468CHOL    R117157  17.932  31.798  15.230 -0.0647  0.0401  0.1681
 1468CHOL    R217158  17.711  31.952  15.169  0.0678  0.1566 -0.0299
 1468CHOL    R317159  17.681  31.773  14.967 -0.0131 -0.0040  0.1230
 1468CHOL    R417160  17.430  31.923  14.970  0.1137  0.2131 -0.1030
 1468CHOL    R517161  17.452  31.706  14.979 -0.0738  0.2018  0.1028
 1468CHOL    C117162  17.239  31.738  14.664  0.0649  0.0947 -0.0023
 1468CHOL    C217163  16.933  31.844  14.370 -0.0346 -0.0352  0.1465
 1469CHOL   ROH17164  22.070   7.575  14.444  0.1318 -0.1067  0.0878
 1469CHOL    R117165  21.857   7.671  14.285  0.0851 -0.0002  0.2148
 1469CHOL    R217166  21.873   7.691  14.010  0.0012  0.1768  0.2218
 1469CHOL    R317167  21.646   7.541  14.018  0.0009  0.1756  0.1945
 1469CHOL    R417168  21.563   7.796  13.899  0.0559  0.1008 -0.0066
 1469CHOL    R517169  21.473   7.697  14.072 -0.0328  0.2048  0.0072
 1469CHOL    C117170  21.169   7.716  13.842  0.0875  0.0555 -0.1653
 1469CHOL    C217171  20.926   7.631  13.646 -0.1281  0.0455  0.0501
 1470CHOL   ROH17172  25.238  13.144   6.490 -0.0223 -0.0145 -0.0409
 1470CHOL    R117173  25.064  13.014   6.309  0.0528 -0.0712 -0.0728
 1470CHOL    R217174  24.798  12.968   6.366  0.0661 -0.1845 -0.1093
 1470CHOL    R317175  24.758  13.098   6.131  0.0397 -0.1826 -0.1041
 1470CHOL    R417176  24.491  13.004   6.211 -0.0231  0.1935  0.1472
 1470CHOL    R517177  24.590  12.968   6.020 -0.2340  0.0160  0.0686
 1470CHOL    C117178  24.275  13.147   5.900 -0.0994  0.4153  0.3014
 1470CHOL    C217179  24.150  12.988   5.622 -0.0158  0.0527 -0.0474
 1471CHOL   ROH17180   2.750  14.804   5.010 -0.0284  0.0590  0.0396
 1471CHOL    R117181   2.477  14.865   5.050 -0.0081  0.1017  0.1125
 1471CHOL    R217182   2.287  14.672   5.105 -0.0613  0.1048 -0.0573
 1471CHOL    R317183   2.234  14.831   5.320 -0.0028 -0.0794  0.0948
 1471CHOL    R417184   2.020  14.631   5.320 -0.1116  0.0340 -0.1329
 1471CHOL    R517185   1.995  14.847   5.324  0.0052  0.0454  0.0795
 1471CHOL    C117186   1.815  14.756   5.647 -0.0859 -0.1801 -0.0342
 1471CHOL    C217187   1.457  14.577   5.816  0.1219 -0.0799  0.0755
 1472CHOL   ROH17188  34.137  24.216   8.616 -0.1076 -0.1640 -0.2022
 1472CHOL    R117189  34.252  24.471   8.578 -0.2323 -0.1015 -0.1612
 1472CHOL    R217190  34.524  24.516   8.591 -0.2700  0.0745  0.0917
 1472CHOL    R317191  34.485  24.624   8.344 -0.1000 -0.0191  0.0228
 1472CHOL    R417192  34.759  24.699   8.416 -0.2251  0.1989  0.2832
 1472CHOL    R517193  34.600  24.834   8.353 -0.2598  0.0673  0.0860
 1472CHOL    C117194  34.860  24.908   8.083 -0.0380  0.1833  0.3300
 1472CHOL    C217195  35.055  25.087   7.873  0.0310  0.0096  0.5038
 1473CHOL   ROH17196  26.363  21.800   5.355 -0.1674 -0.0474 -0.0154
 1473CHOL    R117197  26.196  21.954   5.186 -0.1385  0.1282  0.1144
 1473CHOL    R217198  25.982  21.845   5.050 -0.1239  0.2718 -0.0240
 1473CHOL    R317199  25.844  22.044   5.174 -0.1335  0.1548  0.1559
 1473CHOL    R417200  25.659  21.939   4.972 -0.2279  0.1465  0.2457
 1473CHOL    R517201  25.719  22.147   4.998 -0.3107  0.1657  0.2868
 1473CHOL    C117202  25.341  22.181   5.042 -0.2975 -0.0359  0.5717
 1473CHOL    C217203  24.980  22.185   4.886  0.0699  0.0558 -0.0463
 1474CHOL   ROH17204  23.845  17.688   9.009  0.0641 -0.2089  0.2004
 1474CHOL    R117205  23.595  17.635   9.130 -0.0347  0.0673  0.1204
 1474CHOL    R217206  23.384  17.814   9.120  0.0552  0.1567 -0.2345
 1474CHOL    R317207  23.250  17.599   9.021  0.0134  0.0916 -0.0396
 1474CHOL    R417208  23.040  17.791   9.095  0.0492  0.1823 -0.1732
 1474CHOL    R517209  23.055  17.582   9.159  0.0278  0.2331 -0.0012
 1474CHOL    C117210  22.714  17.576   8.987  0.0061  0.1363  0.0456
 1474CHOL    C217211  22.429  17.758   8.775 -0.0991 -0.1914  0.0851
 1475CHOL   ROH17212  19.528   5.873  12.465 -0.1079 -0.0609 -0.0361
 1475CHOL    R117213  19.724   5.937  12.659  0.0761 -0.3037 -0.1389
 1475CHOL    R217214  19.662   6.065  12.896  0.3983  0.0341 -0.2334
 1475CHOL    R317215  19.789   5.852  13.007 -0.0223 -0.1433 -0.0803
 1475CHOL    R417216  19.775   6.050  13.222  0.3468  0.0369 -0.2153
 1475CHOL    R517217  19.954   5.949  13.151  0.1598 -0.3638 -0.1359
 1475CHOL    C117218  19.960   5.842  13.517 -0.0786 -0.1279 -0.0610
 1475CHOL    C217219  20.078   6.056  13.820 -0.3404 -0.0604  0.1102
 1476CHOL   ROH17220  15.177   8.046  17.491 -0.0966  0.1855 -0.0757
 1476CHOL    R117221  14.944   8.056  17.329 -0.0796  0.1959 -0.0992
 1476CHOL    R217222  14.910   8.245  17.131 -0.0092  0.1379 -0.1657
 1476CHOL    R317223  14.868   8.027  16.975 -0.0582  0.0967 -0.0958
 1476CHOL    R417224  14.775   8.253  16.813  0.3050  0.1039 -0.3017
 1476CHOL    R517225  14.661   8.074  16.862  0.0913  0.2312 -0.3189
 1476CHOL    C117226  14.657   8.053  16.481  0.4417  0.0453 -0.3156
 1476CHOL    C217227  14.708   8.349  16.262 -0.2498 -0.0381  0.1882
 1477CHOL   ROH17228  17.620  34.318  15.353 -0.0499 -0.1927  0.0668
 1477CHOL    R117229  17.443  34.343  15.133 -0.0645 -0.1266  0.0858
 1477CHOL    R217230  17.482  34.207  14.896 -0.0233  0.0259  0.0052
 1477CHOL    R317231  17.228  34.122  14.941  0.0077 -0.0895 -0.0378
 1477CHOL    R417232  17.238  34.175  14.653 -0.0448  0.1713  0.0065
 1477CHOL    R517233  17.093  34.255  14.794 -0.0504  0.0023  0.0978
 1477CHOL    C117234  16.858  34.075  14.554 -0.0276  0.1472 -0.0334
 1477CHOL    C217235  16.782  34.163  14.179 -0.2812  0.0724 -0.2046
 1478CHOL   ROH17236   4.203   5.817  10.485  0.1184 -0.1517  0.0770
 1478CHOL    R117237   3.954   5.716  10.572  0.1845 -0.2130  0.1980
 1478CHOL    R217238   3.900   5.660  10.837  0.2286  0.0475  0.2652
 1478CHOL    R317239   3.688   5.825  10.796  0.1252 -0.1301  0.0869
 1478CHOL    R417240   3.620   5.675  11.039  0.2067  0.0730  0.2321
 1478CHOL    R517241   3.497   5.693  10.859  0.2059 -0.1866  0.2075
 1478CHOL    C117242   3.257   5.838  11.117  0.0968 -0.0789  0.0455
 1478CHOL    C217243   2.898   5.668  11.029 -0.1873 -0.0643  0.2891
 1479CHOL   ROH17244   3.651  30.512  18.162  0.0283  0.1013 -0.0315
 1479CHOL    R117245   3.846  30.479  17.960  0.0128  0.0996 -0.0465
 1479CHOL    R217246   4.112  30.545  17.999  0.0186  0.0954 -0.0662
 1479CHOL    R317247   4.153  30.289  17.918  0.0061  0.0952 -0.0699
 1479CHOL    R417248   4.410  30.423  17.873  0.0787  0.0246  0.1440
 1479CHOL    R517249   4.296  30.309  17.726  0.1576  0.0786  0.0420
 1479CHOL    C117250   4.622  30.112  17.724  0.1021 -0.0171  0.2620
 1479CHOL    C217251   4.969  30.032  17.619 -0.0947  0.0900  0.0628
 1480CHOL   ROH17252  19.164   4.004  11.817  0.2337 -0.1090 -0.4025
 1480CHOL    R117253  19.433   3.926  11.854  0.2089 -0.0591 -0.1005
 1480CHOL    R217254  19.522   3.802  12.084 -0.0376 -0.0925 -0.0222
 1480CHOL    R317255  19.613   3.614  11.910  0.2104 -0.0333  0.0409
 1480CHOL    R417256  19.787   3.588  12.144 -0.0330 -0.0190  0.2245
 1480CHOL    R517257  19.851   3.617  11.938  0.1802  0.0374  0.2973
 1480CHOL    C117258  20.026   3.287  12.016  0.2025  0.0794  0.4274
 1480CHOL    C217259  20.168   3.015  12.222 -0.1188 -0.0904  0.0303
 1481CHOL   ROH17260  27.997  23.409   1.523  0.1482 -0.2544  0.0461
 1481CHOL    R117261  28.097  23.296   1.763  0.0849 -0.1629  0.1158
 1481CHOL    R217262  28.046  23.407   2.011  0.1099 -0.0052  0.0521
 1481CHOL    R317263  27.956  23.156   2.068  0.0050  0.0615  0.1830
 1481CHOL    R417264  27.952  23.298   2.325  0.1293  0.1776  0.1219
 1481CHOL    R517265  28.050  23.107   2.283  0.0305  0.1127  0.1834
 1481CHOL    C117266  27.812  22.999   2.562  0.0422  0.3466  0.2854
 1481CHOL    C217267  27.720  23.147   2.929 -0.2089  0.0759 -0.2171
 1482CHOL   ROH17268  30.775   1.629   7.207 -0.1758  0.0980  0.0907
 1482CHOL    R117269  30.617   1.693   7.433 -0.0748  0.0592  0.1726
 1482CHOL    R217270  30.529   1.501   7.611  0.0040  0.0286  0.1782
 1482CHOL    R317271  30.649   1.663   7.794  0.0866 -0.0046  0.1537
 1482CHOL    R417272  30.440   1.522   7.945  0.0240  0.1129  0.1784
 1482CHOL    R517273  30.469   1.738   7.934  0.1259  0.0981  0.1500
 1482CHOL    C117274  30.501   1.686   8.311  0.1132  0.1308  0.1557
 1482CHOL    C217275  30.596   1.845   8.661 -0.1016 -0.1028  0.1477
 1483CHOL   ROH17276  23.764  17.858   8.494 -0.0527 -0.2388 -0.2810
 1483CHOL    R117277  23.538  17.765   8.637 -0.0566  0.0904 -0.0675
 1483CHOL    R217278  23.302  17.908   8.651  0.0006  0.2041 -0.2635
 1483CHOL    R317279  23.194  17.677   8.558 -0.1071  0.0791  0.1610
 1483CHOL    R417280  22.971  17.868   8.559  0.0830  0.3265 -0.6214
 1483CHOL    R517281  22.974  17.672   8.654 -0.2499  0.5491 -0.1224
 1483CHOL    C117282  22.677  17.628   8.418  0.0297  0.2800 -0.4313
 1483CHOL    C217283  22.482  17.647   8.046  0.2846 -0.3099 -0.1748
 1484CHOL   ROH17284  19.500  20.794  16.857 -0.1431  0.1199  0.0353
 1484CHOL    R117285  19.276  20.878  16.706 -0.1947  0.0292  0.0610
 1484CHOL    R217286  19.259  20.843  16.432 -0.1433  0.1643  0.0408
 1484CHOL    R317287  19.025  20.720  16.495 -0.0544 -0.0500 -0.0465
 1484CHOL    R417288  18.978  20.840  16.231 -0.1221  0.0526  0.0126
 1484CHOL    R517289  18.856  20.867  16.409 -0.1606 -0.1364  0.0149
 1484CHOL    C117290  18.595  20.721  16.171 -0.0259 -0.2144 -0.0857
 1484CHOL    C217291  18.506  21.113  16.172 -0.3179 -0.0634  0.1645
 1485CHOL   ROH17292  24.928   5.083  10.899 -0.0188  0.2624  0.0961
 1485CHOL    R117293  24.703   4.935  10.811  0.0837  0.0948  0.1129
 1485CHOL    R217294  24.500   5.048  10.663 -0.0133 -0.0554  0.1310
 1485CHOL    R317295  24.555   4.844  10.492  0.1251 -0.0130  0.1242
 1485CHOL    R417296  24.316   4.973  10.380  0.0471 -0.1599  0.1195
 1485CHOL    R517297  24.339   4.761  10.427  0.1802 -0.1478  0.1110
 1485CHOL    C117298  24.260   4.737  10.055  0.2120 -0.1809  0.1064
 1485CHOL    C217299  24.087   4.831   9.784  0.1984  0.1256 -0.0229
 1486CHOL   ROH17300   2.775  12.072   8.802 -0.1688  0.3631  0.1484
 1486CHOL    R117301   2.769  12.109   9.083 -0.2858  0.1562  0.1741
 1486CHOL    R217302   2.676  11.915   9.256  0.0283 -0.1344  0.0225
 1486CHOL    R317303   2.919  11.950   9.374 -0.0520  0.2181  0.0887
 1486CHOL    R417304   2.743  11.863   9.591  0.0422 -0.1663  0.0150
 1486CHOL    R517305   2.868  12.041   9.589 -0.2508  0.0442  0.1171
 1486CHOL    C117306   3.009  11.865   9.897 -0.0252  0.1458  0.0724
 1486CHOL    C217307   3.301  12.032  10.133 -0.2829 -0.1925  0.1651
 1487CHOL   ROH17308  19.506  21.209  11.637  0.0817 -0.2064 -0.2436
 1487CHOL    R117309  19.736  21.199  11.801  0.1209  0.0000 -0.2843
 1487CHOL    R217310  19.781  20.995  11.982  0.1034  0.2893  0.0502
 1487CHOL    R317311  20.017  20.972  11.849  0.0639 -0.0088  0.0261
 1487CHOL    R417312  20.069  20.855  12.112  0.0166  0.1799  0.1247
 1487CHOL    R517313  20.184  21.013  12.016  0.1240  0.0101 -0.0355
 1487CHOL    C117314  20.458  20.752  12.063 -0.0708 -0.1640  0.1456
 1487CHOL    C217315  20.807  20.756  12.335 -0.0361  0.0671 -0.0455
 1488CHOL   ROH17316  18.355  13.322  12.731 -0.0289  0.0930 -0.0374
 1488CHOL    R117317  18.547  13.486  12.859 -0.0435  0.0571  0.0297
 1488CHOL    R217318  18.737  13.384  13.032 -0.0367  0.0036 -0.0102
 1488CHOL    R317319  18.910  13.513  12.866 -0.0453  0.0851  0.0431
 1488CHOL    R417320  19.076  13.419  13.088 -0.0362 -0.0123 -0.0034
 1488CHOL    R517321  19.063  13.624  13.013 -0.0446  0.0226  0.0903
 1488CHOL    C117322  19.436  13.560  12.965 -0.0437  0.0548  0.0506
 1488CHOL    C217323  19.799  13.369  12.937  0.1049 -0.0911 -0.1394
 1489CHOL   ROH17324  18.557  25.100  18.819  0.2064 -0.1200  0.0093
 1489CHOL    R117325  18.282  25.080  18.755  0.1984 -0.0937  0.0338
 1489CHOL    R217326  18.166  25.225  18.550  0.1983 -0.0990  0.0302
 1489CHOL    R317327  18.086  24.980  18.465  0.1629 -0.0973  0.0592
 1489CHOL    R417328  17.861  25.158  18.404  0.1694 -0.0809  0.0820
 1489CHOL    R517329  17.852  24.972  18.518  0.1703 -0.0723  0.0957
 1489CHOL    C117330  17.607  24.888  18.239  0.1197 -0.0688  0.1395
 1489CHOL    C217331  17.326  24.849  18.365 -0.0195  0.3441  0.0333
 1490CHOL   ROH17332  10.281  28.980  20.927  0.0370 -0.2275  0.0924
 1490CHOL    R117333  10.289  28.771  20.736  0.0124 -0.1118 -0.0368
 1490CHOL    R217334  10.071  28.702  20.581 -0.0118 -0.0241 -0.0440
 1490CHOL    R317335  10.246  28.739  20.376 -0.0455  0.1072 -0.0489
 1490CHOL    R417336  10.049  28.550  20.272  0.0558  0.0162 -0.0689
 1490CHOL    R517337  10.265  28.524  20.274  0.0690  0.1362 -0.0874
 1490CHOL    C117338  10.199  28.496  19.899  0.0632  0.1630 -0.0879
 1490CHOL    C217339  10.194  28.200  19.544 -0.0617 -0.0241 -0.0088
 1491CHOL   ROH17340  18.407  11.468  13.319 -0.1237 -0.0921 -0.1853
 1491CHOL    R117341  18.491  11.442  13.588 -0.0763  0.2114 -0.1693
 1491CHOL    R217342  18.519  11.197  13.712 -0.3061  0.3580  0.1821
 1491CHOL    R317343  18.770  11.289  13.765 -0.1910  0.1675 -0.0254
 1491CHOL    R417344  18.740  11.052  13.935 -0.2880  0.2811  0.1149
 1491CHOL    R517345  18.799  11.252  13.999 -0.0729  0.2641 -0.0249
 1491CHOL    C117346  19.104  11.054  14.114 -0.1704  0.0577 -0.1189
 1491CHOL    C217347  18.976  10.798  14.338 -0.1146  0.2169  0.0138
 1492CHOL   ROH17348  11.355  16.387  14.352  0.2693  0.0459  0.5013
 1492CHOL    R117349  11.145  16.349  14.537  0.1329  0.0648  0.3520
 1492CHOL    R217350  10.965  16.140  14.518  0.0316  0.1708  0.1355
 1492CHOL    R317351  11.044  16.091  14.773 -0.1528 -0.0003  0.1603
 1492CHOL    R417352  10.858  15.873  14.709  0.1707 -0.1632 -0.2459
 1492CHOL    R517353  10.847  16.007  14.881 -0.1569 -0.3546 -0.1137
 1492CHOL    C117354  10.869  15.671  15.060  0.0784 -0.5181 -0.4447
 1492CHOL    C217355  10.586  15.770  15.421 -0.0786  0.1218 -0.1538
 1493CHOL   ROH17356  28.653  13.102   4.129 -0.1281 -0.3308  0.0339
 1493CHOL    R117357  28.621  13.102   3.848  0.0521 -0.4242  0.0122
 1493CHOL    R217358  28.451  12.928   3.718 -0.0488 -0.3080 -0.0173
 1493CHOL    R317359  28.348  13.156   3.613  0.2571 -0.2447 -0.1854
 1493CHOL    R417360  28.229  12.941   3.454 -0.1326 -0.2094  0.0583
 1493CHOL    R517361  28.337  13.114   3.377  0.1015 -0.4429 -0.1423
 1493CHOL    C117362  28.002  13.163   3.202  0.1061 -0.0926 -0.0555
 1493CHOL    C217363  27.874  13.188   2.760 -0.0174  0.2031 -0.0067
 1494CHOL   ROH17364  33.168  19.475   4.373  0.0634 -0.0219  0.0105
 1494CHOL    R117365  33.198  19.520   4.095 -0.0259  0.2300  0.0401
 1494CHOL    R217366  33.369  19.711   3.993  0.1537  0.1326  0.1512
 1494CHOL    R317367  33.467  19.501   3.852 -0.1724  0.1553 -0.1163
 1494CHOL    R417368  33.561  19.739   3.707  0.2014  0.1968  0.1895
 1494CHOL    R517369  33.451  19.570   3.623 -0.0614  0.4745 -0.0293
 1494CHOL    C117370  33.765  19.558   3.408 -0.0765  0.2552 -0.0392
 1494CHOL    C217371  34.001  19.879   3.330 -0.2329 -0.0775  0.2102
 1495CHOL   ROH17372  22.290  10.295   9.015 -0.1191 -0.0408  0.0861
 1495CHOL    R117373  22.432  10.522   8.923 -0.1459 -0.0433  0.0379
 1495CHOL    R217374  22.309  10.764   8.870 -0.1601 -0.0415  0.0780
 1495CHOL    R317375  22.497  10.860   9.042 -0.1012 -0.0440  0.0155
 1495CHOL    R417376  22.409  11.094   8.889 -0.0507 -0.0666 -0.0480
 1495CHOL    R517377  22.614  11.025   8.915 -0.0685 -0.1237 -0.0587
 1495CHOL    C117378  22.643  11.376   9.062  0.0681 -0.0837 -0.1800
 1495CHOL    C217379  22.726  11.626   9.444  0.2130 -0.0653 -0.3796
 1496CHOL   ROH17380  23.276   2.824  12.125  0.1568  0.1149 -0.2621
 1496CHOL    R117381  23.037   2.874  11.983  0.0978  0.1667 -0.1443
 1496CHOL    R217382  23.029   2.899  11.708 -0.0516  0.0365 -0.1523
 1496CHOL    R317383  22.840   2.705  11.728 -0.1400  0.1409  0.0536
 1496CHOL    R417384  22.769   2.854  11.485 -0.0443 -0.1092 -0.1315
 1496CHOL    R517385  22.638   2.811  11.653 -0.0845  0.1458 -0.0947
 1496CHOL    C117386  22.441   2.644  11.372 -0.1226 -0.0960  0.0740
 1496CHOL    C217387  22.315   2.481  11.023 -0.0940  0.2517  0.0615
 1497CHOL   ROH17388   2.358   6.909  12.658  0.0160  0.1130 -0.0712
 1497CHOL    R117389   2.553   6.915  12.453  0.0525  0.0608 -0.0380
 1497CHOL    R217390   2.824   6.924  12.507  0.0458  0.0033  0.0081
 1497CHOL    R317391   2.830   6.704  12.347  0.0242 -0.0053  0.0194
 1497CHOL    R417392   3.079   6.847  12.286  0.0296 -0.0249 -0.0006
 1497CHOL    R517393   2.928   6.782  12.143  0.0188 -0.0228  0.0106
 1497CHOL    C117394   3.233   6.596  12.008 -0.0002 -0.0495  0.0045
 1497CHOL    C217395   3.447   6.259  11.904  0.0366 -0.3952  0.1269
 1498CHOL   ROH17396  23.952  28.832   9.563 -0.1478 -0.1775 -0.0255
 1498CHOL    R117397  23.866  28.785   9.298  0.0452 -0.1842 -0.0876
 1498CHOL    R217398  23.688  28.951   9.168 -0.1637 -0.4026 -0.0817
 1498CHOL    R317399  23.883  28.959   8.979 -0.0907  0.0043  0.0066
 1498CHOL    R417400  23.635  28.927   8.827  0.0038 -0.1059 -0.1300
 1498CHOL    R517401  23.812  28.802   8.813  0.1461  0.0980 -0.1877
 1498CHOL    C117402  23.787  28.922   8.451  0.1690  0.4487 -0.0755
 1498CHOL    C217403  23.582  29.163   8.111 -0.1320 -0.1351  0.2887
 1499CHOL   ROH17404  29.396  31.738   7.914  0.2031  0.2229 -0.0735
 1499CHOL    R117405  29.414  32.013   7.852 -0.1432  0.2556 -0.0344
 1499CHOL    R217406  29.191  32.176   7.833 -0.3245  0.0637  0.3704
 1499CHOL    R317407  29.325  32.327   8.015 -0.1587  0.1347  0.1913
 1499CHOL    R417408  29.145  32.515   7.880 -0.1900  0.1080  0.1940
 1499CHOL    R517409  29.360  32.536   7.904 -0.1671  0.0565  0.0397
 1499CHOL    C117410  29.243  32.854   8.079  0.0444  0.1999 -0.0769
 1499CHOL    C217411  29.250  33.194   8.252 -0.0770 -0.0085  0.0628
 1500CHOL   ROH17412  16.806   0.137  15.223 -0.0019 -0.2024  0.0902
 1500CHOL    R117413  16.657   0.012  15.017  0.0280  0.0487 -0.0869
 1500CHOL    R217414  16.406  35.291  15.058  0.1464 -0.2769 -0.1752
 1500CHOL    R317415  16.338   0.067  14.850 -0.1006  0.0660  0.1628
 1500CHOL    R417416  16.170  35.214  14.817  0.3115 -0.1575 -0.3755
 1500CHOL    R517417  16.303  35.301  14.667  0.1842  0.3971 -0.1738
 1500CHOL    C117418  15.970  35.320  14.481  0.1755  0.2346 -0.1751
 1500CHOL    C217419  15.732  35.049  14.375 -0.0816 -0.0341 -0.1456
 1501CHOL   ROH17420  21.546   6.663  11.032 -0.0933 -0.1388 -0.0892
 1501CHOL    R117421  21.803   6.597  11.132 -0.0252  0.1374 -0.0785
 1501CHOL    R217422  21.926   6.355  11.079  0.0163  0.0594  0.3573
 1501CHOL    R317423  22.128   6.514  10.990 -0.0721 -0.0613 -0.0695
 1501CHOL    R417424  22.262   6.288  11.120  0.0565  0.2221  0.2967
 1501CHOL    R517425  22.295   6.499  11.161  0.0307  0.3143 -0.1342
 1501CHOL    C117426  22.648   6.397  11.060 -0.0026  0.2036 -0.1391
 1501CHOL    C217427  22.909   6.327  11.273  0.0902 -0.1836 -0.3072
 1502CHOL   ROH17428  28.061   3.389  10.127 -0.0204  0.1193  0.2477
 1502CHOL    R117429  28.260   3.430   9.929  0.2277  0.0257  0.4743
 1502CHOL    R217430  28.215   3.583   9.703  0.3173 -0.5441  0.0607
 1502CHOL    R317431  28.437   3.715   9.788 -0.0420  0.0320  0.1380
 1502CHOL    R417432  28.417   3.780   9.503  0.2888 -0.6270 -0.0504
 1502CHOL    R517433  28.591   3.697   9.605  0.2817 -0.1067  0.4148
 1502CHOL    C117434  28.743   4.018   9.466 -0.0650 -0.1346 -0.0424
 1502CHOL    C217435  28.808   4.246   9.267 -0.3642 -0.0274  0.2944
 1503CHOL   ROH17436   2.350  31.309  12.553  0.0046  0.1315 -0.0258
 1503CHOL    R117437   2.288  31.350  12.826 -0.0837  0.0177 -0.0282
 1503CHOL    R217438   2.307  31.598  12.947  0.0384 -0.0637  0.1215
 1503CHOL    R317439   2.049  31.548  13.016 -0.0272  0.0768 -0.0183
 1503CHOL    R417440   2.147  31.733  13.222  0.0147 -0.1085  0.1299
 1503CHOL    R517441   2.052  31.539  13.256 -0.1359 -0.0626 -0.0213
 1503CHOL    C117442   1.811  31.764  13.447 -0.0607 -0.0026  0.0034
 1503CHOL    C217443   1.421  31.742  13.543 -0.0716 -0.1484 -0.0996
 1504CHOL   ROH17444   7.167   2.203  18.360  0.4364 -0.0751  0.1006
 1504CHOL    R117445   7.110   2.140  18.090  0.2104  0.0386  0.1200
 1504CHOL    R217446   7.292   2.181  17.887  0.0727  0.0443 -0.0035
 1504CHOL    R317447   7.247   1.918  17.837 -0.0589  0.0773 -0.0610
 1504CHOL    R417448   7.400   2.013  17.605  0.4144 -0.0627  0.1888
 1504CHOL    R517449   7.209   1.908  17.600  0.3337  0.0941 -0.1280
 1504CHOL    C117450   7.421   1.667  17.394  0.4898 -0.0940  0.2467
 1504CHOL    C217451   7.710   1.611  17.072 -0.0037 -0.1230 -0.0263
 1505CHOL   ROH17452  24.070   3.051  11.157  0.0049  0.0010  0.0278
 1505CHOL    R117453  23.805   3.080  11.064  0.0429  0.0202 -0.0746
 1505CHOL    R217454  23.739   3.065  10.796  0.1272 -0.0954 -0.0900
 1505CHOL    R317455  23.564   2.876  10.883  0.0537 -0.0103 -0.0539
 1505CHOL    R417456  23.456   2.965  10.625  0.2270 -0.2026 -0.1920
 1505CHOL    R517457  23.349   2.958  10.815  0.1045 -0.0430 -0.2554
 1505CHOL    C117458  23.127   2.729  10.606  0.2150 -0.1850 -0.2174
 1505CHOL    C217459  23.017   2.633  10.259 -0.1245  0.1049  0.1095
 1506CHOL   ROH17460  25.525  24.533   6.984 -0.0793 -0.1626  0.2350
 1506CHOL    R117461  25.363  24.721   6.847 -0.0982 -0.0820  0.3669
 1506CHOL    R217462  25.365  24.747   6.572  0.1967  0.3869  0.4056
 1506CHOL    R317463  25.097  24.709   6.599  0.1984  0.0827  0.0382
 1506CHOL    R417464  25.129  24.830   6.334  0.3841  0.5959  0.2914
 1506CHOL    R517465  25.000  24.901   6.494  0.1364  0.1823  0.2783
 1506CHOL    C117466  24.740  24.844   6.220  0.4952  0.4324 -0.1200
 1506CHOL    C217467  24.825  24.620   5.876  0.0003  0.3216  0.2998
 1507CHOL   ROH17468  22.844  21.139  10.962  0.0689  0.2088 -0.0349
 1507CHOL    R117469  22.700  21.229  10.736  0.0225  0.0587 -0.0654
 1507CHOL    R217470  22.817  21.259  10.487  0.0048  0.0247 -0.0775
 1507CHOL    R317471  22.613  21.097  10.408  0.0803 -0.1008 -0.0169
 1507CHOL    R417472  22.647  21.287  10.188 -0.0278 -0.1495 -0.0761
 1507CHOL    R517473  22.462  21.243  10.294 -0.0002 -0.2102 -0.0518
 1507CHOL    C117474  22.357  21.152   9.938  0.0237 -0.3686 -0.0184
 1507CHOL    C217475  22.162  21.418   9.761  0.1449 -0.1485 -0.0342
 1508CHOL   ROH17476   0.218  17.180   5.876 -0.0398 -0.1914  0.0173
 1508CHOL    R117477   0.462  17.185   5.733 -0.0149 -0.1131  0.0627
 1508CHOL    R217478   0.498  17.049   5.495  0.0243  0.0234 -0.0094
 1508CHOL    R317479   0.574  17.294   5.404  0.0448  0.0752  0.1443
 1508CHOL    R417480   0.627  17.111   5.180 -0.0938  0.2306 -0.0180
 1508CHOL    R517481   0.769  17.250   5.271 -0.0216  0.1276  0.0282
 1508CHOL    C117482   0.773  17.376   4.911 -0.1433  0.3995  0.1213
 1508CHOL    C217483   1.078  17.285   4.621  0.3362 -0.1442 -0.1235
 1509CHOL   ROH17484   1.399  15.801   9.229 -0.0032  0.2143 -0.0519
 1509CHOL    R117485   1.629  15.682   9.115  0.0428  0.1737  0.0824
 1509CHOL    R217486   1.651  15.629   8.845  0.0773 -0.0892  0.1344
 1509CHOL    R317487   1.880  15.773   8.868  0.0292  0.0084  0.0066
 1509CHOL    R417488   1.953  15.545   8.699  0.0317  0.0418 -0.0372
 1509CHOL    R517489   2.053  15.608   8.882  0.1080  0.0821 -0.0928
 1509CHOL    C117490   2.344  15.631   8.636 -0.0399  0.2098 -0.2569
 1509CHOL    C217491   2.639  15.512   8.494  0.1873 -0.1525 -0.2283
 1510CHOL   ROH17492  11.249  22.979  18.570  0.1419 -0.1257 -0.0669
 1510CHOL    R117493  11.143  22.920  18.826  0.0175  0.0809 -0.0692
 1510CHOL    R217494  11.299  22.824  19.033 -0.1604 -0.1555 -0.0445
 1510CHOL    R317495  11.195  23.036  19.167  0.1797  0.0369 -0.0782
 1510CHOL    R417496  11.207  22.821  19.366 -0.2002  0.0349 -0.0526
 1510CHOL    R517497  11.032  22.940  19.313  0.0006  0.3246 -0.0839
 1510CHOL    C117498  11.055  23.019  19.686  0.0962  0.3268 -0.0901
 1510CHOL    C217499  11.000  23.115  20.062  0.1503 -0.0118  0.0583
 1511CHOL   ROH17500  17.369  21.266  15.951 -0.1154 -0.2948  0.0431
 1511CHOL    R117501  17.409  21.274  16.231  0.0240 -0.2981  0.0235
 1511CHOL    R217502  17.649  21.205  16.349  0.1645 -0.0592 -0.1160
 1511CHOL    R317503  17.629  21.451  16.462 -0.0431 -0.0985 -0.0647
 1511CHOL    R417504  17.649  21.267  16.689  0.2535 -0.1194 -0.1045
 1511CHOL    R517505  17.494  21.417  16.656  0.0805 -0.2747 -0.0084
 1511CHOL    C117506  17.630  21.536  16.993  0.1106 -0.1910 -0.0500
 1511CHOL    C217507  17.961  21.713  17.244 -0.1101 -0.0642 -0.0325
 1512CHOL   ROH17508  13.544  22.464  18.204 -0.0540  0.0743 -0.0092
 1512CHOL    R117509  13.705  22.483  18.437  0.0110  0.1749 -0.0624
 1512CHOL    R217510  13.599  22.528  18.688  0.0572  0.0209 -0.0156
 1512CHOL    R317511  13.737  22.302  18.751  0.2923  0.1365 -0.1122
 1512CHOL    R417512  13.682  22.431  19.009 -0.0739 -0.1642 -0.0370
 1512CHOL    R517513  13.877  22.368  18.934  0.0662  0.1495  0.0580
 1512CHOL    C117514  13.860  22.163  19.255  0.0705 -0.1632 -0.1398
 1512CHOL    C217515  13.710  21.912  19.520 -0.0512  0.1909  0.0086
 1513CHOL   ROH17516  10.959  22.534  18.513 -0.1459 -0.3957 -0.0230
 1513CHOL    R117517  10.856  22.480  18.771 -0.0883 -0.2153  0.0391
 1513CHOL    R217518  11.006  22.358  18.968 -0.0893 -0.2111  0.0458
 1513CHOL    R317519  10.935  22.576  19.112  0.0886 -0.1002 -0.0342
 1513CHOL    R417520  10.981  22.367  19.312 -0.2990 -0.1247  0.0282
 1513CHOL    R517521  10.802  22.489  19.291 -0.1342  0.0942 -0.1049
 1513CHOL    C117522  10.900  22.578  19.649 -0.2539  0.0305 -0.0564
 1513CHOL    C217523  10.719  22.405  19.891  0.1812  0.5021  0.1389
 1514CHOL   ROH17524  31.868   2.470   7.713 -0.1437 -0.0641  0.0091
 1514CHOL    R117525  31.809   2.375   7.973 -0.0763  0.0182  0.0547
 1514CHOL    R217526  31.986   2.396   8.183  0.0890 -0.1683 -0.0650
 1514CHOL    R317527  31.777   2.519   8.306  0.3070  0.0750  0.0686
 1514CHOL    R417528  31.937   2.407   8.525  0.2024 -0.3010 -0.0442
 1514CHOL    R517529  31.724   2.375   8.490  0.1425  0.0419 -0.0043
 1514CHOL    C117530  31.712   2.528   8.839  0.4728 -0.1499  0.0934
 1514CHOL    C217531  31.599   2.505   9.209 -0.1170  0.3123  0.1510
 1515CHOL   ROH17532  24.614  23.349   8.468 -0.1017  0.0199 -0.0235
 1515CHOL    R117533  24.424  23.374   8.260  0.0132  0.1932 -0.1077
 1515CHOL    R217534  24.159  23.304   8.290  0.0893 -0.2616 -0.4484
 1515CHOL    R317535  24.115  23.558   8.205 -0.2152 -0.1343  0.0680
 1515CHOL    R417536  23.881  23.407   8.113  0.0856 -0.2930 -0.4613
 1515CHOL    R517537  24.011  23.531   7.991  0.0097  0.1740 -0.0830
 1515CHOL    C117538  23.677  23.706   7.930 -0.2018 -0.1918  0.0159
 1515CHOL    C217539  23.621  23.597   7.478  0.1526  0.1709 -0.4259
 1516CHOL   ROH17540   4.759  27.895  19.150  0.0352 -0.2166 -0.1745
 1516CHOL    R117541   4.834  28.168  19.157 -0.0371 -0.1968 -0.1581
 1516CHOL    R217542   5.076  28.253  19.261 -0.1358 -0.1219  0.0127
 1516CHOL    R317543   5.101  28.372  19.018  0.0192 -0.1525  0.0132
 1516CHOL    R417544   5.224  28.560  19.206 -0.1920 -0.0820  0.0826
 1516CHOL    R517545   5.067  28.605  19.062 -0.0924 -0.1566 -0.0507
 1516CHOL    C117546   5.334  28.851  18.946 -0.0793 -0.0876  0.1242
 1516CHOL    C217547   5.346  29.201  18.769 -0.1233 -0.0812  0.0703
 1517CHOL   ROH17548  20.599  13.407  15.142  0.0570 -0.1107  0.0369
 1517CHOL    R117549  20.418  13.320  14.943  0.0378 -0.0685  0.0356
 1517CHOL    R217550  20.152  13.265  14.996  0.0287 -0.0222  0.0373
 1517CHOL    R317551  20.109  13.442  14.795  0.0580 -0.0052  0.0457
 1517CHOL    R417552  19.848  13.316  14.841  0.0305  0.0561  0.0593
 1517CHOL    R517553  19.953  13.331  14.650  0.0212  0.0368  0.0525
 1517CHOL    C117554  19.630  13.512  14.561  0.0590  0.1177  0.0804
 1517CHOL    C217555  19.468  13.601  14.334 -0.1326  0.2902  0.0919
 1518CHOL   ROH17556  14.130  11.390  14.994 -0.0489 -0.0555 -0.0191
 1518CHOL    R117557  13.993  11.304  15.227 -0.0945 -0.1378 -0.0762
 1518CHOL    R217558  14.022  11.050  15.331  0.2051 -0.0430  0.0751
 1518CHOL    R317559  14.084  11.185  15.559 -0.1624  0.1676  0.0532
 1518CHOL    R417560  13.918  10.961  15.648  0.0580 -0.0032  0.0384
 1518CHOL    R517561  13.885  11.172  15.691 -0.2577 -0.0201 -0.1053
 1518CHOL    C117562  13.915  11.036  16.047 -0.3727  0.2177 -0.0037
 1518CHOL    C217563  13.975  10.859  16.393 -0.1252 -0.0466  0.1977
 1519CHOL   ROH17564  17.735   2.468  15.249 -0.0156 -0.0021  0.0316
 1519CHOL    R117565  17.605   2.620  15.049 -0.1049 -0.0565  0.0482
 1519CHOL    R217566  17.639   2.572  14.779  0.0346  0.0828  0.0409
 1519CHOL    R317567  17.368   2.557  14.781  0.0483 -0.1939 -0.0555
 1519CHOL    R417568  17.433   2.690  14.528 -0.0086  0.1265  0.0962
 1519CHOL    R517569  17.296   2.762  14.681 -0.1297 -0.1650  0.1286
 1519CHOL    C117570  17.059   2.744  14.383 -0.0206 -0.1079  0.0381
 1519CHOL    C217571  16.997   2.791  14.008  0.0628 -0.0358  0.1141
 1520CHOL   ROH17572   2.872  34.319  16.499 -0.0249  0.0085 -0.1241
 1520CHOL    R117573   3.051  34.279  16.283  0.0185 -0.0443 -0.0786
 1520CHOL    R217574   3.158  34.489  16.139  0.1395 -0.0736 -0.0327
 1520CHOL    R317575   3.394  34.372  16.205  0.0762 -0.1707  0.0221
 1520CHOL    R417576   3.430  34.461  15.928  0.2526  0.0076  0.1016
 1520CHOL    R517577   3.463  34.260  16.004  0.1635 -0.0523 -0.0151
 1520CHOL    C117578   3.811  34.335  15.866  0.2590 -0.0374  0.2309
 1520CHOL    C217579   4.106  34.469  15.554 -0.0964  0.1658  0.0105
 1521CHOL   ROH17580   1.516   2.456   9.292 -0.1507 -0.1072 -0.0649
 1521CHOL    R117581   1.506   2.403   9.570  0.1733 -0.1693 -0.0629
 1521CHOL    R217582   1.714   2.467   9.741  0.1195  0.3765 -0.1915
 1521CHOL    R317583   1.519   2.598   9.877 -0.1577 -0.1658 -0.0506
 1521CHOL    R417584   1.730   2.553  10.075  0.1100  0.3969 -0.1961
 1521CHOL    R517585   1.519   2.498  10.094  0.2656 -0.1840 -0.0570
 1521CHOL    C117586   1.556   2.726  10.397 -0.1559 -0.1002 -0.0672
 1521CHOL    C217587   1.597   2.896  10.652  0.0793  0.1518  0.1098
 1522CHOL   ROH17588  19.271  10.044  16.740  0.1261  0.0991  0.0525
 1522CHOL    R117589  19.154  10.016  16.484  0.2495  0.1719 -0.0124
 1522CHOL    R217590  19.276   9.876  16.280  0.1883 -0.0692  0.1138
 1522CHOL    R317591  19.040   9.740  16.274  0.0023  0.2541  0.0126
 1522CHOL    R417592  19.166   9.680  16.017  0.1604 -0.1410  0.1785
 1522CHOL    R517593  18.966   9.760  16.048  0.2396  0.1664 -0.0744
 1522CHOL    C117594  18.881   9.439  15.859 -0.0306  0.1209  0.1215
 1522CHOL    C217595  18.922   9.126  15.503  0.1444  0.0991 -0.2592
 1523CHOL   ROH17596  29.806  17.075   3.595 -0.1378  0.0794  0.0077
 1523CHOL    R117597  29.810  16.969   3.332 -0.2121  0.1196 -0.0096
 1523CHOL    R217598  29.783  17.127   3.107  0.0458  0.1955  0.0126
 1523CHOL    R317599  30.016  17.007   3.035 -0.0894 -0.0942  0.0466
 1523CHOL    R417600  29.909  17.119   2.786  0.1842  0.2178  0.0657
 1523CHOL    R517601  29.970  16.913   2.820 -0.1270  0.1066 -0.0352
 1523CHOL    C117602  30.202  17.003   2.531  0.1374 -0.0408  0.1286
 1523CHOL    C217603  30.421  16.882   2.336 -0.0679  0.1316 -0.0427
 1524CHOL   ROH17604   3.245  14.079  13.795 -0.0436 -0.1046 -0.0395
 1524CHOL    R117605   3.377  13.845  13.705 -0.0029 -0.0927 -0.0108
 1524CHOL    R217606   3.513  13.835  13.464 -0.0401 -0.1122 -0.0307
 1524CHOL    R317607   3.719  13.751  13.621  0.0060 -0.0294 -0.0465
 1524CHOL    R417608   3.826  13.745  13.348 -0.0476 -0.0918 -0.0669
 1524CHOL    R517609   3.827  13.581  13.492  0.0097 -0.0494 -0.0176
 1524CHOL    C117610   4.202  13.614  13.428 -0.0088 -0.0023 -0.1029
 1524CHOL    C217611   4.561  13.470  13.316  0.3573 -0.1432  0.1097
 1525CHOL   ROH17612   8.007  28.304  20.539 -0.3649 -0.2767 -0.2832
 1525CHOL    R117613   8.197  28.266  20.333 -0.2405 -0.2476 -0.1745
 1525CHOL    R217614   8.235  28.022  20.209 -0.1327 -0.2428 -0.1550
 1525CHOL    R317615   8.192  28.167  19.983 -0.0260 -0.2472 -0.1783
 1525CHOL    R417616   8.353  27.937  19.895  0.1065 -0.1888 -0.0809
 1525CHOL    R517617   8.397  28.148  19.861  0.0618 -0.1745 -0.0414
 1525CHOL    C117618   8.380  28.024  19.500  0.3459 -0.1616 -0.0596
 1525CHOL    C217619   8.496  28.191  19.141  0.1208  0.2377 -0.0585
 1526CHOL   ROH17620  14.609  16.722  15.030 -0.0167  0.0787  0.0722
 1526CHOL    R117621  14.693  16.871  15.255 -0.0532  0.0463  0.1072
 1526CHOL    R217622  14.673  16.774  15.513  0.0866 -0.0710  0.0739
 1526CHOL    R317623  14.939  16.831  15.521  0.0503  0.1076  0.0212
 1526CHOL    R417624  14.855  16.828  15.802  0.1374 -0.0954  0.0467
 1526CHOL    R517625  14.960  16.989  15.700 -0.0042  0.0307  0.0968
 1526CHOL    C117626  15.210  16.913  15.977  0.1330  0.0578 -0.0185
 1526CHOL    C217627  15.228  16.813  16.397 -0.0990 -0.0569  0.3865
 1527CHOL   ROH17628  29.585   3.401  10.116  0.0021  0.3690 -0.0444
 1527CHOL    R117629  29.602   3.265   9.869  0.1324  0.2210  0.0449
 1527CHOL    R217630  29.434   3.321   9.657  0.0407 -0.1201  0.0256
 1527CHOL    R317631  29.668   3.355   9.522 -0.0145  0.0648 -0.0240
 1527CHOL    R417632  29.525   3.148   9.371  0.1377 -0.0827  0.0340
 1527CHOL    R517633  29.728   3.135   9.450  0.1648  0.1065 -0.0028
 1527CHOL    C117634  29.798   3.080   9.079  0.1425  0.1126 -0.0077
 1527CHOL    C217635  29.947   3.021   8.764  0.0075 -0.2634  0.0639
 1528CHOL   ROH17636  35.338  10.814   9.075 -0.0066 -0.0834  0.1509
 1528CHOL    R117637   0.187  10.675   8.999 -0.0333 -0.0991  0.0981
 1528CHOL    R217638   0.225  10.575   8.745 -0.0493 -0.0019  0.0584
 1528CHOL    R317639   0.454  10.720   8.757 -0.0196 -0.0532  0.1216
 1528CHOL    R417640   0.521  10.488   8.590 -0.0961  0.0572 -0.0658
 1528CHOL    R517641   0.628  10.556   8.768 -0.0478 -0.0954 -0.0356
 1528CHOL    C117642   0.910  10.574   8.512 -0.0954  0.0434 -0.0791
 1528CHOL    C217643   1.152  10.445   8.193 -0.4842 -0.3003 -0.2439
 1529CHOL   ROH17644   3.118  10.720   7.826  0.0682 -0.2444  0.0224
 1529CHOL    R117645   2.871  10.644   7.942  0.0559 -0.2727 -0.0215
 1529CHOL    R217646   2.703  10.826   8.066  0.1648 -0.3439  0.2363
 1529CHOL    R317647   2.520  10.725   7.892  0.0833 -0.0447  0.1459
 1529CHOL    R417648   2.362  10.872   8.091  0.1944 -0.1707  0.3271
 1529CHOL    R517649   2.334  10.664   8.031  0.0644 -0.0890  0.1004
 1529CHOL    C117650   1.990  10.804   7.943  0.1351  0.2113  0.2952
 1529CHOL    C217651   1.661  10.639   8.108 -0.0343 -0.3198 -0.3460
 1530CHOL   ROH17652  35.249  12.292   7.256 -0.0478  0.0103 -0.1154
 1530CHOL    R117653   0.132  12.304   7.168 -0.0275  0.0118 -0.0528
 1530CHOL    R217654   0.310  12.097   7.207 -0.0529 -0.0131 -0.0678
 1530CHOL    R317655   0.343  12.117   6.938  0.0082  0.0553 -0.0554
 1530CHOL    R417656   0.601  12.017   7.037 -0.0435 -0.0557 -0.0318
 1530CHOL    R517657   0.569  12.193   6.911  0.0379 -0.0087  0.0127
 1530CHOL    C117658   0.801  11.990   6.686  0.0194 -0.0166  0.0008
 1530CHOL    C217659   0.909  11.666   6.742  0.1333 -0.1535 -0.0959
 1531CHOL   ROH17660  30.295  31.268  10.493  0.0848  0.2998 -0.0745
 1531CHOL    R117661  30.492  31.124  10.349 -0.0305  0.1539 -0.0872
 1531CHOL    R217662  30.523  31.148  10.076  0.1057  0.2908 -0.0597
 1531CHOL    R317663  30.780  31.204  10.143  0.1506 -0.0612  0.0793
 1531CHOL    R417664  30.786  31.164   9.852  0.1812  0.2909  0.0280
 1531CHOL    R517665  30.911  31.064  10.000  0.0387 -0.0244 -0.0610
 1531CHOL    C117666  31.181  31.227   9.785  0.2665 -0.0393  0.2096
 1531CHOL    C217667  31.181  31.013   9.464  0.1833  0.2008 -0.3374
 1532CHOL   ROH17668   4.566  33.285  13.673 -0.1485 -0.0736 -0.1349
 1532CHOL    R117669   4.447  33.381  13.911 -0.1180  0.0023 -0.1498
 1532CHOL    R217670   4.175  33.414  13.938 -0.1194 -0.0344 -0.1095
 1532CHOL    R317671   4.209  33.256  14.157 -0.0475  0.0607 -0.0524
 1532CHOL    R417672   3.935  33.357  14.181 -0.1251 -0.1293 -0.1374
 1532CHOL    R517673   4.092  33.370  14.332 -0.1630  0.0320 -0.1113
 1532CHOL    C117674   3.828  33.176  14.527 -0.0609 -0.0959 -0.1002
 1532CHOL    C217675   3.719  32.893  14.702 -0.0065  0.1608 -0.1228
 1533CHOL   ROH17676  30.888  12.708   3.772 -0.4120 -0.0184  0.0856
 1533CHOL    R117677  30.880  12.759   3.494 -0.2356 -0.0018  0.0827
 1533CHOL    R217678  30.789  12.573   3.312 -0.2043  0.0407  0.0210
 1533CHOL    R317679  30.624  12.776   3.235 -0.0841  0.1080 -0.0602
 1533CHOL    R417680  30.628  12.593   3.006 -0.3653 -0.0936  0.0963
 1533CHOL    R517681  30.672  12.806   3.003 -0.1942 -0.1321 -0.1145
 1533CHOL    C117682  30.380  12.794   2.757 -0.3457 -0.1085  0.0640
 1533CHOL    C217683  30.237  12.833   2.423 -0.0364  0.2704 -0.0542
 1534CHOL   ROH17684  17.799   7.904  17.303 -0.2413  0.0846 -0.0088
 1534CHOL    R117685  17.800   8.076  17.078 -0.0843  0.2338  0.1043
 1534CHOL    R217686  17.964   8.298  17.061  0.2534 -0.0041  0.1760
 1534CHOL    R317687  18.042   8.182  16.828 -0.0354  0.0254  0.0617
 1534CHOL    R417688  18.177   8.443  16.831  0.1432 -0.0654  0.0341
 1534CHOL    R517689  18.051   8.364  16.672 -0.0559  0.0758  0.1190
 1534CHOL    C117690  18.375   8.419  16.478 -0.1923 -0.0735 -0.1560
 1534CHOL    C217691  18.630   8.737  16.498 -0.0071  0.0069  0.1350
 1535CHOL   ROH17692  34.073  22.179   2.186 -0.0610 -0.0387  0.0683
 1535CHOL    R117693  33.832  22.121   2.323 -0.1659  0.0496 -0.0785
 1535CHOL    R217694  33.800  22.163   2.594 -0.2426 -0.1436 -0.0563
 1535CHOL    R317695  33.584  22.307   2.514 -0.0906  0.1009 -0.0304
 1535CHOL    R417696  33.532  22.245   2.795 -0.2296 -0.0307 -0.0844
 1535CHOL    R517697  33.399  22.205   2.627 -0.2159  0.1938 -0.1495
 1535CHOL    C117698  33.173  22.428   2.837 -0.0790  0.2648 -0.0765
 1535CHOL    C217699  32.852  22.278   2.851 -0.0661  0.0349 -0.2460
 1536CHOL   ROH17700   4.730   3.748  16.665  0.0355  0.1544 -0.3011
 1536CHOL    R117701   4.991   3.638  16.656  0.0329  0.1214 -0.0048
 1536CHOL    R217702   5.128   3.600  16.420  0.2034 -0.1156  0.1319
 1536CHOL    R317703   5.320   3.746  16.546  0.1253 -0.0147  0.1350
 1536CHOL    R417704   5.457   3.625  16.316  0.2601 -0.1754  0.2953
 1536CHOL    R517705   5.519   3.613  16.525  0.1444 -0.0217  0.3405
 1536CHOL    C117706   5.828   3.777  16.374  0.2199 -0.1154  0.3931
 1536CHOL    C217707   6.014   3.503  16.253 -0.0104  0.0680  0.3519
 1537CHOL   ROH17708  33.869  22.184   6.344 -0.0918 -0.0297  0.0526
 1537CHOL    R117709  34.126  22.261   6.254 -0.0900  0.0410  0.1172
 1537CHOL    R217710  34.224  22.190   6.006  0.0530 -0.0674  0.2039
 1537CHOL    R317711  34.264  22.458   5.981 -0.0694 -0.0629  0.0530
 1537CHOL    R417712  34.362  22.344   5.729 -0.0744 -0.1532  0.0921
 1537CHOL    R517713  34.472  22.477   5.864 -0.1030 -0.0340 -0.0017
 1537CHOL    C117714  34.480  22.686   5.545 -0.2634 -0.1984 -0.1144
 1537CHOL    C217715  34.598  22.477   5.289  0.2770 -0.0051 -0.0517
 1538CHOL   ROH17716  27.059  16.918   0.589  0.1618  0.1296 -0.0728
 1538CHOL    R117717  27.240  17.037   0.772  0.1585  0.0824 -0.0378
 1538CHOL    R217718  27.177  17.078   1.038  0.1385  0.0486 -0.0352
 1538CHOL    R317719  27.407  16.940   1.080  0.1189  0.0158 -0.0379
 1538CHOL    R417720  27.376  17.106   1.319  0.1629  0.0395 -0.0519
 1538CHOL    R517721  27.551  17.096   1.190  0.1516  0.0000 -0.0613
 1538CHOL    C117722  27.708  16.993   1.522  0.1586  0.0035 -0.0641
 1538CHOL    C217723  27.688  16.746   1.880 -0.1571  0.0542  0.2912
 1539CHOL   ROH17724  12.493   7.231  18.364  0.1186  0.0314 -0.1278
 1539CHOL    R117725  12.389   7.073  18.153  0.0761  0.0311 -0.1064
 1539CHOL    R217726  12.132   6.972  18.157  0.0424  0.1181 -0.1020
 1539CHOL    R317727  12.114   7.097  17.916  0.0959  0.0831 -0.1245
 1539CHOL    R417728  11.923   6.874  17.899  0.0695  0.1027 -0.1183
 1539CHOL    R517729  12.085   6.919  17.758  0.0976  0.0607 -0.1007
 1539CHOL    C117730  11.785   6.935  17.522  0.1351  0.0608 -0.1484
 1539CHOL    C217731  11.949   6.697  17.271  0.2132 -0.0008 -0.1010
 1540CHOL   ROH17732   5.488  32.352  19.061 -0.2828  0.1055 -0.2324
 1540CHOL    R117733   5.547  32.254  18.802  0.0050 -0.1194 -0.0843
 1540CHOL    R217734   5.506  32.403  18.574 -0.0880 -0.4519 -0.2857
 1540CHOL    R317735   5.768  32.347  18.528  0.0222 -0.1249 -0.0727
 1540CHOL    R417736   5.666  32.443  18.270 -0.0283 -0.7401 -0.2937
 1540CHOL    R517737   5.771  32.255  18.307  0.2542 -0.5173  0.0862
 1540CHOL    C117738   6.005  32.414  18.051  0.1099 -0.6005 -0.0984
 1540CHOL    C217739   6.058  32.309  17.598  0.0579 -0.0792 -0.1185
 1541CHOL   ROH17740   2.412  24.602   6.290  0.1169  0.3030  0.1863
 1541CHOL    R117741   2.130  24.595   6.265  0.1232  0.1137  0.1661
 1541CHOL    R217742   1.995  24.373   6.169  0.2887  0.0692  0.0357
 1541CHOL    R317743   1.858  24.397   6.403  0.2560 -0.1597  0.0410
 1541CHOL    R417744   1.666  24.279   6.215  0.3280 -0.1175 -0.0622
 1541CHOL    R517745   1.636  24.458   6.335  0.2332 -0.2148  0.0627
 1541CHOL    C117746   1.345  24.246   6.460  0.3203 -0.4409 -0.1143
 1541CHOL    C217747   1.410  23.851   6.538 -0.1048  0.0700 -0.2358
 1542CHOL   ROH17748   2.504   9.160   7.594 -0.3333 -0.1407 -0.1925
 1542CHOL    R117749   2.318   9.036   7.767 -0.2608 -0.0890 -0.0768
 1542CHOL    R217750   2.350   9.032   8.041 -0.1098 -0.0667 -0.0935
 1542CHOL    R317751   2.100   9.139   8.040 -0.0914 -0.0209  0.0335
 1542CHOL    R417752   2.139   9.043   8.314  0.1364  0.2236  0.0882
 1542CHOL    R517753   1.973   8.994   8.182  0.0071  0.1329  0.2818
 1542CHOL    C117754   1.781   9.151   8.472  0.2971  0.4356  0.3135
 1542CHOL    C217755   1.508   9.224   8.661 -0.0243 -0.2050 -0.0734
 1543CHOL   ROH17756  18.045  33.131  14.876  0.2815  0.1243 -0.3190
 1543CHOL    R117757  17.924  32.920  14.731  0.1789  0.0893 -0.1845
 1543CHOL    R217758  17.660  32.847  14.767  0.1449  0.2358 -0.1329
 1543CHOL    R317759  17.647  32.883  14.498  0.1568  0.0743 -0.1558
 1543CHOL    R417760  17.373  32.816  14.577  0.1434  0.1743 -0.1210
 1543CHOL    R517761  17.491  32.717  14.423  0.1278  0.0584 -0.0585
 1543CHOL    C117762  17.193  32.832  14.214  0.1539 -0.0133 -0.1354
 1543CHOL    C217763  16.967  32.667  13.954 -0.1702  0.0772  0.1356
 1544CHOL   ROH17764  31.895   0.558   7.808  0.0009 -0.2021  0.2120
 1544CHOL    R117765  31.925   0.612   8.085  0.0164 -0.0103  0.1738
 1544CHOL    R217766  31.905   0.866   8.190 -0.0445  0.0550  0.0085
 1544CHOL    R317767  31.719   0.750   8.351  0.0067  0.1071  0.1049
 1544CHOL    R417768  31.750   1.022   8.457 -0.1175  0.2081 -0.1223
 1544CHOL    R517769  31.768   0.836   8.569 -0.0351  0.3115  0.0334
 1544CHOL    C117770  31.485   1.003   8.764 -0.1118  0.3462 -0.1081
 1544CHOL    C217771  31.260   0.933   9.097 -0.1968  0.0082  0.0447
 1545CHOL   ROH17772  34.364  12.302   6.749 -0.0030 -0.1467  0.1079
 1545CHOL    R117773  34.475  12.120   6.563 -0.0549 -0.0164 -0.0518
 1545CHOL    R217774  34.631  12.201   6.350  0.0507  0.1178  0.0762
 1545CHOL    R317775  34.808  12.023   6.454 -0.0791 -0.0925 -0.0586
 1545CHOL    R417776  34.878  12.042   6.169  0.0786  0.2474 -0.0008
 1545CHOL    R517777  34.835  11.859   6.281 -0.0580  0.1184 -0.2587
 1545CHOL    C117778  35.189  11.781   6.161 -0.0272  0.1253 -0.1722
 1545CHOL    C217779   0.210  11.653   5.987 -0.2537 -0.0272 -0.0345
 1546CHOL   ROH17780  18.288  29.287  16.248  0.1297 -0.0663 -0.0724
 1546CHOL    R117781  18.008  29.254  16.275  0.1230 -0.0172 -0.0860
 1546CHOL    R217782  17.884  29.009  16.245  0.0722  0.0180 -0.1650
 1546CHOL    R317783  17.784  29.066  16.491  0.0819 -0.0403 -0.1482
 1546CHOL    R417784  17.558  28.952  16.343  0.0847 -0.0359 -0.1549
 1546CHOL    R517785  17.561  29.143  16.449  0.0710 -0.0561 -0.1188
 1546CHOL    C117786  17.274  28.972  16.632  0.1011 -0.1212 -0.1330
 1546CHOL    C217787  17.125  28.619  16.865 -0.2073  0.1123  0.0135
 1547CHOL   ROH17788  25.779  17.689   4.487  0.1402  0.1482  0.0035
 1547CHOL    R117789  25.693  17.768   4.230  0.2401  0.0807 -0.0512
 1547CHOL    R217790  25.818  17.683   3.999  0.1509 -0.2169  0.0061
 1547CHOL    R317791  25.567  17.603   3.931  0.0576  0.0296  0.0536
 1547CHOL    R417792  25.681  17.709   3.682  0.2321 -0.3773 -0.0427
 1547CHOL    R517793  25.492  17.768   3.774  0.2914 -0.0389 -0.1328
 1547CHOL    C117794  25.366  17.649   3.435  0.1921 -0.2388 -0.0266
 1547CHOL    C217795  25.275  17.929   3.183 -0.0627  0.0527  0.4054
 1548CHOL   ROH17796  25.509  33.885   6.880 -0.1709 -0.1803  0.0780
 1548CHOL    R117797  25.601  33.878   7.148 -0.1263 -0.2922  0.0599
 1548CHOL    R217798  25.581  34.094   7.318  0.2281 -0.2428  0.0460
 1548CHOL    R317799  25.455  33.915   7.479 -0.0065 -0.0447  0.0864
 1548CHOL    R417800  25.555  34.120   7.662  0.0412 -0.0076  0.0155
 1548CHOL    R517801  25.591  33.906   7.676 -0.1322 -0.0259  0.1734
 1548CHOL    C117802  25.423  33.967   8.013 -0.2876  0.3156  0.0356
 1548CHOL    C217803  25.167  34.142   8.271 -0.0345  0.0199 -0.0412
 1549CHOL   ROH17804   5.082  23.476   9.225 -0.0378 -0.0484 -0.0674
 1549CHOL    R117805   4.962  23.343   9.443 -0.0102 -0.0208 -0.0349
 1549CHOL    R217806   4.695  23.374   9.508 -0.0211 -0.0741 -0.0538
 1549CHOL    R317807   4.692  23.103   9.491  0.0521 -0.0800  0.0212
 1549CHOL    R417808   4.480  23.168   9.683  0.0377 -0.0837  0.0073
 1549CHOL    R517809   4.646  23.030   9.714  0.0760 -0.0305  0.0426
 1549CHOL    C117810   4.351  22.793   9.768  0.1407 -0.0951  0.1132
 1549CHOL    C217811   4.172  22.456   9.597  0.0982  0.0449  0.1717
 1550CHOL   ROH17812   0.819  34.752  10.115  0.1047  0.0798 -0.0325
 1550CHOL    R117813   0.821  34.673  10.387  0.0383 -0.0179 -0.0601
 1550CHOL    R217814   0.832  34.855  10.594  0.1747 -0.0984  0.0046
 1550CHOL    R317815   0.609  34.723  10.679  0.0709  0.0433 -0.0468
 1550CHOL    R417816   0.633  34.953  10.860  0.2284 -0.0229  0.0170
 1550CHOL    R517817   0.615  34.743  10.917  0.0691 -0.0259 -0.0410
 1550CHOL    C117818   0.308  34.887  11.093  0.1623  0.1541 -0.0240
 1550CHOL    C217819   0.006  34.701  11.219  0.1103  0.1425  0.4978
 1551CHOL   ROH17820   6.443   2.240  14.392 -0.0981  0.1338  0.0820
 1551CHOL    R117821   6.299   2.098  14.590 -0.1121  0.1071  0.0521
 1551CHOL    R217822   6.398   2.055  14.844 -0.1180  0.0474  0.0429
 1551CHOL    R317823   6.163   2.168  14.920 -0.1088  0.0523  0.0656
 1551CHOL    R417824   6.290   2.086  15.171 -0.1417 -0.0634  0.0459
 1551CHOL    R517825   6.089   2.034  15.103 -0.1441 -0.0091  0.0078
 1551CHOL    C117826   6.006   2.210  15.432 -0.1470 -0.1234  0.0690
 1551CHOL    C217827   5.852   2.143  15.781  0.0544 -0.3300  0.0605
 1552CHOL   ROH17828  24.569  25.788   8.922 -0.0295  0.2106 -0.1899
 1552CHOL    R117829  24.300  25.873   8.900 -0.0530  0.1503 -0.1353
 1552CHOL    R217830  24.230  26.130   8.827 -0.1251  0.1319 -0.1293
 1552CHOL    R317831  24.084  26.002   8.636 -0.1389  0.0939 -0.0937
 1552CHOL    R417832  23.949  26.260   8.674 -0.2523  0.0208  0.0095
 1552CHOL    R517833  23.858  26.062   8.686 -0.1495 -0.0278  0.0102
 1552CHOL    C117834  23.648  26.215   8.407 -0.3392 -0.0794  0.1240
 1552CHOL    C217835  23.527  26.170   8.060 -0.0162  0.0592  0.4072
 1553CHOL   ROH17836  12.067  14.145  17.346 -0.0367 -0.0320  0.1121
 1553CHOL    R117837  12.051  14.282  17.099 -0.0303 -0.1806  0.0284
 1553CHOL    R217838  12.090  14.555  17.078 -0.4361 -0.1264 -0.0706
 1553CHOL    R317839  12.274  14.481  16.892 -0.1518  0.0650  0.1317
 1553CHOL    R417840  12.248  14.772  16.860 -0.5312  0.0171  0.0023
 1553CHOL    R517841  12.228  14.621  16.703 -0.1689 -0.0699  0.0359
 1553CHOL    C117842  12.513  14.829  16.559 -0.3198  0.2804  0.2349
 1553CHOL    C217843  12.936  14.901  16.609 -0.0618  0.1237  0.0509
 1554CHOL   ROH17844  25.213  10.133   8.808  0.1273  0.0691  0.1624
 1554CHOL    R117845  24.955  10.177   8.698  0.1568  0.0483  0.0844
 1554CHOL    R217846  24.862  10.038   8.479  0.2301  0.0321  0.0633
 1554CHOL    R317847  24.654   9.980   8.644  0.1845  0.0272  0.0045
 1554CHOL    R417848  24.562   9.898   8.378  0.3063 -0.0835 -0.0037
 1554CHOL    R517849  24.459  10.033   8.515  0.2176 -0.0683 -0.0852
 1554CHOL    C117850  24.193   9.762   8.475  0.3081 -0.1556 -0.0982
 1554CHOL    C217851  23.998   9.476   8.393 -0.2408  0.4057  0.1149
 1555CHOL   ROH17852   8.491   4.940  18.603 -0.2615  0.0365 -0.1205
 1555CHOL    R117853   8.431   4.796  18.367 -0.0970  0.0191 -0.1522
 1555CHOL    R217854   8.280   4.902  18.161 -0.2343 -0.1139 -0.1210
 1555CHOL    R317855   8.495   4.833  18.010 -0.1552  0.1805 -0.1458
 1555CHOL    R417856   8.264   4.787  17.836 -0.1038 -0.0127 -0.1642
 1555CHOL    R517857   8.421   4.644  17.884  0.0562  0.1433 -0.2161
 1555CHOL    C117858   8.457   4.655  17.505  0.0465  0.3228 -0.2121
 1555CHOL    C217859   8.768   4.643  17.152  0.0744  0.0065 -0.4904
 1556CHOL   ROH17860  32.366   5.599   6.283  0.0444 -0.0219  0.0809
 1556CHOL    R117861  32.134   5.713   6.397  0.0427 -0.0489  0.1064
 1556CHOL    R217862  32.052   5.657   6.655  0.0648 -0.0757  0.1111
 1556CHOL    R317863  32.057   5.928   6.681  0.0487 -0.0778  0.1287
 1556CHOL    R417864  31.865   5.836   6.884 -0.1656 -0.0742 -0.0771
 1556CHOL    R517865  31.829   5.986   6.730  0.0032 -0.0675 -0.1058
 1556CHOL    C117866  31.760   6.195   7.041 -0.3138 -0.0753 -0.1700
 1556CHOL    C217867  31.640   6.282   7.409  0.1799 -0.3285  0.1860
 1557CHOL   ROH17868   4.850  16.717  14.419  0.0411  0.3320 -0.2567
 1557CHOL    R117869   5.104  16.594  14.396  0.0192  0.2178  0.0903
 1557CHOL    R217870   5.281  16.656  14.193  0.0931 -0.2726  0.0037
 1557CHOL    R317871   5.451  16.703  14.400  0.0448  0.1443 -0.0459
 1557CHOL    R417872   5.626  16.648  14.171  0.0975 -0.4543  0.1225
 1557CHOL    R517873   5.631  16.549  14.365 -0.0006 -0.0113  0.3626
 1557CHOL    C117874   5.986  16.687  14.352  0.0547 -0.1686  0.1453
 1557CHOL    C217875   6.385  16.486  14.319  0.2387  0.0104  0.1084
 1558CHOL   ROH17876   6.852  14.893  16.676 -0.2607 -0.1687 -0.1823
 1558CHOL    R117877   7.022  14.953  16.458 -0.2861 -0.1009 -0.1835
 1558CHOL    R217878   7.227  14.786  16.379  0.0001  0.1435  0.0319
 1558CHOL    R317879   7.104  14.803  16.137  0.0467 -0.2656 -0.0230
 1558CHOL    R417880   7.388  14.849  16.079  0.0063  0.0341  0.0120
 1558CHOL    R517881   7.221  14.977  16.022 -0.1421 -0.2351 -0.1717
 1558CHOL    C117882   7.366  14.900  15.678  0.0536 -0.4135 -0.0507
 1558CHOL    C217883   7.743  14.980  15.631  0.1487 -0.0258  0.1025
 1559CHOL   ROH17884   8.970  17.038  17.842  0.2255 -0.0336 -0.0375
 1559CHOL    R117885   8.840  17.143  17.614  0.1958 -0.1286 -0.0645
 1559CHOL    R217886   8.877  17.403  17.528  0.0968 -0.1304 -0.1116
 1559CHOL    R317887   8.941  17.283  17.293  0.1572 -0.1489 -0.0854
 1559CHOL    R417888   8.925  17.569  17.229 -0.1365 -0.1839 -0.1801
 1559CHOL    R517889   8.820  17.407  17.128 -0.0042 -0.3229 -0.0992
 1559CHOL    C117890   9.014  17.552  16.834 -0.2157 -0.2330 -0.1955
 1559CHOL    C217891   9.134  17.614  16.531 -0.2017 -0.1529  0.1570
 1560CHOL   ROH17892   1.360  16.857   3.868  0.0201 -0.1416 -0.4021
 1560CHOL    R117893   1.208  16.621   3.906  0.1081 -0.1589 -0.1427
 1560CHOL    R217894   1.235  16.460   4.129  0.1211  0.1323  0.0664
 1560CHOL    R317895   0.966  16.498   4.148  0.1001  0.0458 -0.0451
 1560CHOL    R417896   1.006  16.213   4.205  0.1950  0.1051  0.2023
 1560CHOL    R517897   0.871  16.298   4.056  0.2054 -0.0687  0.0901
 1560CHOL    C117898   0.620  16.104   4.268  0.2183  0.0082  0.1767
 1560CHOL    C217899   0.317  16.011   3.997  0.0815 -0.0893  0.1128
 1561CHOL   ROH17900   4.791  12.214   9.855 -0.1636 -0.1962  0.1107
 1561CHOL    R117901   4.609  12.428   9.894 -0.0631 -0.0957  0.0336
 1561CHOL    R217902   4.335  12.392   9.900 -0.0847  0.0456 -0.0198
 1561CHOL    R317903   4.356  12.518  10.139 -0.0706  0.0766 -0.0375
 1561CHOL    R417904   4.070  12.527  10.074 -0.1137 -0.1903  0.1200
 1561CHOL    R517905   4.196  12.696  10.126 -0.2428 -0.0710  0.0413
 1561CHOL    C117906   3.934  12.724  10.402 -0.1175 -0.2984  0.1846
 1561CHOL    C217907   3.856  12.747  10.725  0.2701  0.0334 -0.4235
 1562CHOL   ROH17908  15.735  14.614  14.803 -0.1250  0.1226  0.0760
 1562CHOL    R117909  15.984  14.744  14.834 -0.0428 -0.0162  0.0051
 1562CHOL    R217910  16.005  15.015  14.884  0.1266 -0.0030 -0.1269
 1562CHOL    R317911  16.154  14.932  15.096  0.0802  0.0065 -0.0909
 1562CHOL    R417912  16.313  15.146  14.973  0.1295 -0.0331 -0.0924
 1562CHOL    R517913  16.380  14.944  15.018  0.0940 -0.0350 -0.0533
 1562CHOL    C117914  16.631  15.144  15.224  0.0873 -0.0418 -0.0385
 1562CHOL    C217915  17.038  15.135  15.215 -0.0258  0.0789 -0.1768
 1563CHOL   ROH17916   1.984  32.554  12.085 -0.0179 -0.1239  0.0940
 1563CHOL    R117917   1.839  32.734  12.250  0.0088  0.0259 -0.0459
 1563CHOL    R217918   1.569  32.781  12.216 -0.0089 -0.0580 -0.0025
 1563CHOL    R317919   1.557  32.713  12.479  0.0925  0.2222  0.0764
 1563CHOL    R417920   1.296  32.833  12.422 -0.1579 -0.3891 -0.1133
 1563CHOL    R517921   1.433  32.891  12.581 -0.3005  0.0866 -0.1533
 1563CHOL    C117922   1.126  32.799  12.788 -0.1495 -0.3189 -0.1040
 1563CHOL    C217923   0.804  32.793  13.002 -0.0788 -0.0667 -0.1282
 1564CHOL   ROH17924  10.935  28.979  19.911 -0.0972 -0.1820  0.2299
 1564CHOL    R117925  10.742  28.824  19.774 -0.2004 -0.0679  0.2459
 1564CHOL    R217926  10.471  28.871  19.797 -0.1609  0.2516  0.0730
 1564CHOL    R317927  10.483  28.883  19.526 -0.0079  0.0384  0.0687
 1564CHOL    R417928  10.199  28.839  19.585 -0.0671  0.2483 -0.0471
 1564CHOL    R517929  10.324  28.720  19.451 -0.0630  0.0732  0.1087
 1564CHOL    C117930  10.053  28.832  19.207  0.1310  0.0461 -0.1211
 1564CHOL    C217931  10.037  28.935  18.900  0.0422 -0.3027 -0.3833
 1565CHOL   ROH17932  33.685  15.790   5.118  0.2018 -0.1964  0.2074
 1565CHOL    R117933  33.894  15.782   4.927  0.1598 -0.1539  0.1594
 1565CHOL    R217934  33.881  15.627   4.699  0.1285 -0.1360  0.1482
 1565CHOL    R317935  33.934  15.863   4.574  0.0701 -0.1183  0.1574
 1565CHOL    R417936  33.968  15.660   4.366 -0.3326 -0.0608  0.0310
 1565CHOL    R517937  34.113  15.812   4.424 -0.1701 -0.1562 -0.1205
 1565CHOL    C117938  34.069  15.900   4.055 -0.6558 -0.0006 -0.0284
 1565CHOL    C217939  34.081  15.705   3.619  0.1774  0.1821  0.2001
 1566CHOL   ROH17940  19.886  10.456  15.938  0.1862  0.2304  0.0048
 1566CHOL    R117941  19.820  10.252  15.753 -0.0305  0.3372 -0.0371
 1566CHOL    R217942  19.707  10.306  15.506  0.2343  0.5264 -0.1191
 1566CHOL    R317943  19.917  10.161  15.414  0.0552  0.1646  0.0340
 1566CHOL    R417944  19.729  10.170  15.189  0.1976  0.4202 -0.0761
 1566CHOL    R517945  19.817   9.991  15.278 -0.1410  0.2949  0.0144
 1566CHOL    C117946  19.940   9.954  14.919  0.0084  0.0187  0.0923
 1566CHOL    C217947  19.671   9.816  14.771 -0.0347 -0.0542 -0.1078
 1567CHOL   ROH17948  13.572  17.109  18.886 -0.0743 -0.2149 -0.0275
 1567CHOL    R117949  13.730  17.229  18.685 -0.0204 -0.0917  0.0881
 1567CHOL    R217950  13.779  17.108  18.442  0.1898 -0.0208  0.0950
 1567CHOL    R317951  13.682  17.342  18.342  0.1216 -0.0554  0.0793
 1567CHOL    R417952  13.781  17.197  18.108  0.5299  0.1263  0.1341
 1567CHOL    R517953  13.834  17.400  18.167  0.2931  0.1455  0.2907
 1567CHOL    C117954  13.691  17.468  17.820  0.6636  0.1798  0.1418
 1567CHOL    C217955  13.717  17.714  17.563  0.1314 -0.2328  0.2087
 1568CHOL   ROH17956  21.665  22.169   6.794 -0.0879 -0.0703  0.1321
 1568CHOL    R117957  21.815  22.356   6.945 -0.0916 -0.0546  0.1159
 1568CHOL    R217958  21.834  22.344   7.220  0.0407 -0.1250  0.1034
 1568CHOL    R317959  22.101  22.348   7.169  0.0166 -0.0054 -0.0194
 1568CHOL    R417960  22.079  22.419   7.453  0.1169 -0.0710  0.0061
 1568CHOL    R517961  22.184  22.532   7.298  0.0004  0.0031 -0.0210
 1568CHOL    C117962  22.472  22.466   7.540  0.1383  0.0722 -0.1657
 1568CHOL    C217963  22.847  22.548   7.630  0.1458 -0.2721  0.0141
 1569CHOL   ROH17964  20.951  26.331   8.026  0.0753 -0.1111 -0.0649
 1569CHOL    R117965  21.178  26.288   8.189 -0.0540 -0.0883  0.1227
 1569CHOL    R217966  21.427  26.391   8.128  0.0257 -0.2167  0.2302
 1569CHOL    R317967  21.411  26.493   8.380 -0.1135 -0.0496  0.1543
 1569CHOL    R417968  21.698  26.473   8.326 -0.0793 -0.3147  0.4169
 1569CHOL    R517969  21.592  26.390   8.498 -0.2974 -0.1251  0.3768
 1569CHOL    C117970  21.841  26.617   8.677 -0.2712 -0.2146  0.4543
 1569CHOL    C217971  22.151  26.728   8.789  0.0212 -0.0146  0.1457
 1570CHOL   ROH17972  17.337  14.353  13.849 -0.0395 -0.2283  0.2237
 1570CHOL    R117973  17.571  14.395  14.001  0.0637 -0.1754  0.0516
 1570CHOL    R217974  17.564  14.469  14.267  0.2424 -0.0183  0.0127
 1570CHOL    R317975  17.722  14.250  14.299  0.2285 -0.0245  0.0420
 1570CHOL    R417976  17.733  14.389  14.558  0.1343 -0.0582  0.0648
 1570CHOL    R517977  17.903  14.327  14.436  0.1789 -0.0440  0.1192
 1570CHOL    C117978  17.980  14.136  14.757  0.0583 -0.0871  0.1227
 1570CHOL    C217979  18.108  14.125  15.143 -0.0477  0.0691  0.3807
 1571CHOL   ROH17980  14.129  26.234  19.199 -0.1260 -0.0033  0.1260
 1571CHOL    R117981  14.256  26.461  19.311  0.1002 -0.1740  0.2193
 1571CHOL    R217982  14.507  26.449  19.426  0.3038 -0.3690 -0.2333
 1571CHOL    R317983  14.560  26.650  19.250  0.0222 -0.1337 -0.0553
 1571CHOL    R417984  14.789  26.648  19.434  0.2255 -0.2537 -0.3071
 1571CHOL    R517985  14.664  26.819  19.384  0.0932 -0.2474  0.0347
 1571CHOL    C117986  15.005  26.952  19.274 -0.0843  0.0339 -0.1828
 1571CHOL    C217987  15.022  27.361  19.108 -0.1537  0.2225 -0.2769
 1572CHOL   ROH17988   0.519  18.936   2.587 -0.2401 -0.1106 -0.3127
 1572CHOL    R117989   0.295  18.855   2.740  0.0121 -0.3120 -0.0435
 1572CHOL    R217990   0.319  18.727   2.983  0.4232  0.1352  0.1590
 1572CHOL    R317991   0.160  18.929   3.069  0.0667 -0.0372 -0.0812
 1572CHOL    R417992   0.127  18.717   3.269  0.3262  0.0811  0.0926
 1572CHOL    R517993  35.353  18.819   3.160  0.2048 -0.2651 -0.0606
 1572CHOL    C117994  35.250  18.902   3.518 -0.0648 -0.1130 -0.1714
 1572CHOL    C217995  35.003  19.027   3.826  0.1382 -0.0457  0.0260
 1573CHOL   ROH17996  12.273   2.130  17.858 -0.2884 -0.0659  0.1738
 1573CHOL    R117997  12.114   2.082  17.629 -0.0898 -0.0075  0.0223
 1573CHOL    R217998  11.847   2.151  17.616 -0.1413 -0.2269 -0.1016
 1573CHOL    R317999  11.924   2.283  17.392 -0.0990  0.0331  0.0638
 1573CHOL    R418000  11.632   2.266  17.371 -0.0765 -0.1542 -0.1240
 1573CHOL    R518001  11.777   2.201  17.221  0.0587  0.0836 -0.0984
 1573CHOL    C118002  11.580   2.456  17.017  0.0007  0.1323  0.0175
 1573CHOL    C218003  11.259   2.591  16.935  0.1333  0.0412 -0.1593
 1574CHOL   ROH18004  32.307  15.331   1.507 -0.0464  0.1483  0.0707
 1574CHOL    R118005  32.404  15.271   1.766 -0.0065 -0.0440  0.0124
 1574CHOL    R218006  32.381  15.447   1.978  0.2134 -0.1139  0.0971
 1574CHOL    R318007  32.262  15.234   2.100  0.0774 -0.0682  0.0451
 1574CHOL    R418008  32.352  15.406   2.320  0.0809 -0.1228  0.0852
 1574CHOL    R518009  32.397  15.194   2.293 -0.0050 -0.1414  0.0875
 1574CHOL    C118010  32.225  15.182   2.634 -0.1241 -0.0853  0.0294
 1574CHOL    C218011  32.312  15.080   2.939  0.1750  0.1946 -0.2252
 1575CHOL   ROH18012  28.007   4.752   9.247 -0.1467 -0.3058  0.1880
 1575CHOL    R118013  27.952   4.502   9.125  0.0725 -0.3726  0.2222
 1575CHOL    R218014  27.914   4.475   8.853 -0.2110 -0.3900  0.2602
 1575CHOL    R318015  28.110   4.289   8.877  0.0952 -0.1073  0.0063
 1575CHOL    R418016  27.964   4.212   8.635 -0.2584 -0.4518  0.3239
 1575CHOL    R518017  28.007   4.084   8.806  0.2403 -0.2934  0.3231
 1575CHOL    C118018  28.177   3.883   8.530  0.0012 -0.2222  0.1226
 1575CHOL    C218019  28.393   3.622   8.510 -0.1914  0.1441 -0.2972
 1576CHOL   ROH18020   2.355  13.725   5.351  0.0103  0.2588  0.0738
 1576CHOL    R118021   2.107  13.777   5.478  0.0188  0.2172  0.1072
 1576CHOL    R218022   1.908  13.586   5.498 -0.0088  0.2342 -0.0087
 1576CHOL    R318023   1.923  13.644   5.763  0.0012  0.0689  0.0275
 1576CHOL    R418024   1.644  13.563   5.720  0.0144  0.0373 -0.0008
 1576CHOL    R518025   1.713  13.748   5.813 -0.0166 -0.0070  0.1113
 1576CHOL    C118026   1.505  13.604   6.099  0.0374 -0.2328  0.0378
 1576CHOL    C218027   1.187  13.431   6.040  0.1621  0.1920 -0.2292
 1577CHOL   ROH18028  10.101  14.972  15.790 -0.1511 -0.0797 -0.2286
 1577CHOL    R118029  10.158  15.232  15.887 -0.2316 -0.1646  0.0512
 1577CHOL    R218030  10.259  15.432  15.726  0.2086 -0.1112  0.3808
 1577CHOL    R318031  10.044  15.571  15.819  0.0718 -0.0694  0.0109
 1577CHOL    R418032  10.249  15.775  15.770  0.2825 -0.1360  0.5930
 1577CHOL    R518033  10.139  15.742  15.956 -0.1380 -0.2093  0.3366
 1577CHOL    C118034  10.042  16.104  15.883  0.1970 -0.1114  0.3694
 1577CHOL    C218035   9.928  16.280  16.152 -0.3850  0.4268 -0.2350
 1578CHOL   ROH18036  20.018  24.411  14.577  0.0015  0.0646 -0.1674
 1578CHOL    R118037  19.877  24.170  14.622  0.1862 -0.0206 -0.0357
 1578CHOL    R218038  19.920  24.011  14.843  0.0736  0.3055  0.2248
 1578CHOL    R318039  19.652  24.039  14.876  0.0016  0.0827 -0.1444
 1578CHOL    R418040  19.740  23.888  15.111 -0.1553  0.3693  0.1020
 1578CHOL    R518041  19.582  23.831  14.972  0.0744  0.0996 -0.0545
 1578CHOL    C118042  19.383  23.842  15.298 -0.3547  0.1977 -0.3158
 1578CHOL    C218043  19.329  23.802  15.706  0.0437 -0.2029  0.3087
 1579CHOL   ROH18044  29.998   9.503   2.058 -0.0610 -0.1169  0.0866
 1579CHOL    R118045  29.858   9.516   2.304  0.0353 -0.0874  0.1396
 1579CHOL    R218046  29.948   9.666   2.518 -0.0313  0.1693 -0.0117
 1579CHOL    R318047  29.699   9.774   2.504 -0.1574 -0.1120  0.0196
 1579CHOL    R418048  29.793   9.839   2.774 -0.0999  0.1931 -0.0689
 1579CHOL    R518049  29.607   9.739   2.722 -0.0179 -0.0511  0.0902
 1579CHOL    C118050  29.470  10.041   2.911 -0.2584 -0.0569 -0.0729
 1579CHOL    C218051  29.173  10.198   3.231 -0.0646 -0.0206  0.0154
 1580CHOL   ROH18052   0.359   6.717   7.045  0.0909 -0.0794  0.0355
 1580CHOL    R118053   0.211   6.734   7.286  0.0339  0.0041 -0.0058
 1580CHOL    R218054   0.305   6.865   7.510  0.0217 -0.0008  0.0018
 1580CHOL    R318055   0.070   7.000   7.490  0.0740  0.0805 -0.0769
 1580CHOL    R418056   0.194   7.102   7.736  0.0437  0.0642 -0.0548
 1580CHOL    R518057  35.378   7.018   7.717  0.0192  0.1328 -0.0995
 1580CHOL    C118058  35.293   7.365   7.850  0.1060  0.1783 -0.1615
 1580CHOL    C218059  34.996   7.504   7.863 -0.5866  0.5561 -0.1764
 1581CHOL   ROH18060  19.249  23.525  13.462 -0.2563 -0.1382  0.0525
 1581CHOL    R118061  19.479  23.642  13.578 -0.2384 -0.0509 -0.0693
 1581CHOL    R218062  19.545  23.608  13.844 -0.1449  0.0662 -0.0772
 1581CHOL    R318063  19.782  23.524  13.741 -0.1640  0.0672 -0.1219
 1581CHOL    R418064  19.855  23.677  13.981 -0.1200  0.0658 -0.1336
 1581CHOL    R518065  19.931  23.708  13.779 -0.1574  0.0677 -0.1480
 1581CHOL    C118066  20.258  23.639  13.963 -0.1236  0.0671 -0.2083
 1581CHOL    C218067  20.552  23.654  14.193 -0.2631 -0.0628 -0.1749
 1582CHOL   ROH18068   3.364   1.956  15.822 -0.0392  0.3218  0.0720
 1582CHOL    R118069   3.397   1.966  15.541 -0.1015  0.1417  0.0578
 1582CHOL    R218070   3.646   1.982  15.421 -0.1401  0.3332  0.0023
 1582CHOL    R318071   3.559   1.762  15.287  0.0868  0.1274  0.1876
 1582CHOL    R418072   3.731   1.903  15.096 -0.1279  0.1914  0.0394
 1582CHOL    R518073   3.525   1.839  15.063 -0.0618 -0.0792  0.1374
 1582CHOL    C118074   3.699   1.651  14.780  0.0923 -0.0845  0.2350
 1582CHOL    C218075   3.701   1.457  14.601  0.1966  0.0262  0.0943
 1583CHOL   ROH18076  18.353  26.211  12.780 -0.0596 -0.1045 -0.1620
 1583CHOL    R118077  18.611  26.189  12.895 -0.0340 -0.2028 -0.2384
 1583CHOL    R218078  18.841  26.251  12.755 -0.0807  0.1713 -0.1542
 1583CHOL    R318079  18.888  26.413  12.969 -0.1289 -0.2108  0.1519
 1583CHOL    R418080  19.154  26.325  12.883 -0.0914  0.1455 -0.1133
 1583CHOL    R518081  19.071  26.309  13.084 -0.0158 -0.3084 -0.1115
 1583CHOL    C118082  19.380  26.520  13.157 -0.1426 -0.2274  0.1978
 1583CHOL    C218083  19.631  26.539  13.401  0.2301  0.3563 -0.2328
 1584CHOL   ROH18084  26.937   9.503   3.424  0.0313  0.1224 -0.3736
 1584CHOL    R118085  27.049   9.692   3.602 -0.0360  0.0244 -0.2263
 1584CHOL    R218086  27.312   9.680   3.686 -0.0374  0.0417 -0.2198
 1584CHOL    R318087  27.319   9.936   3.594 -0.1093  0.1127 -0.0299
 1584CHOL    R418088  27.545   9.918   3.780 -0.0828  0.0278 -0.0713
 1584CHOL    R518089  27.385  10.066   3.784 -0.1173 -0.0132  0.0588
 1584CHOL    C118090  27.687  10.296   3.748 -0.1768  0.0864  0.1934
 1584CHOL    C218091  27.737  10.716   3.990  0.0731 -0.1203 -0.3979
 1585CHOL   ROH18092  25.578  16.582   5.256  0.0496 -0.2846 -0.0879
 1585CHOL    R118093  25.454  16.656   5.013  0.0011 -0.2459 -0.0516
 1585CHOL    R218094  25.597  16.742   4.793 -0.0477 -0.1417 -0.0427
 1585CHOL    R318095  25.462  16.543   4.667 -0.0083 -0.1411 -0.0864
 1585CHOL    R418096  25.387  16.786   4.522 -0.0462 -0.1261 -0.0417
 1585CHOL    R518097  25.251  16.641   4.610 -0.0235 -0.1671 -0.0748
 1585CHOL    C118098  25.139  16.625   4.246 -0.0078 -0.1163 -0.0820
 1585CHOL    C218099  24.965  16.757   3.924  0.4061  0.2628  0.1205
 1586CHOL   ROH18100   3.764  19.699  12.107  0.0248 -0.0135 -0.0815
 1586CHOL    R118101   4.034  19.786  12.101  0.0144  0.0238 -0.0051
 1586CHOL    R218102   4.234  19.659  12.243 -0.0040  0.0364  0.0315
 1586CHOL    R318103   4.354  19.647  12.000  0.0590  0.0784  0.0605
 1586CHOL    R418104   4.575  19.654  12.193  0.0101  0.1198  0.1154
 1586CHOL    R518105   4.547  19.787  12.022  0.0206  0.1230  0.1159
 1586CHOL    C118106   4.888  19.639  11.934  0.0774  0.2078  0.1914
 1586CHOL    C218107   5.091  19.989  11.961  0.3237  0.2658 -0.2192
 1587CHOL   ROH18108  16.389   3.043  16.321 -0.1422 -0.1896  0.1098
 1587CHOL    R118109  16.225   3.018  16.092 -0.1303 -0.0670  0.0870
 1587CHOL    R218110  16.051   3.217  16.011 -0.0064  0.0436  0.0907
 1587CHOL    R318111  16.184   3.192  15.775  0.0077 -0.0048  0.1032
 1587CHOL    R418112  15.982   3.399  15.726 -0.0488 -0.0788  0.0218
 1587CHOL    R518113  16.014   3.218  15.609  0.0055 -0.1127  0.0882
 1587CHOL    C118114  16.066   3.482  15.338 -0.0598 -0.1955 -0.0059
 1587CHOL    C218115  15.890   3.437  15.064  0.0307  0.1144  0.2500
 1588CHOL   ROH18116  20.706  21.273  10.213  0.0278  0.1897 -0.1252
 1588CHOL    R118117  20.794  21.094  10.413 -0.0429  0.0778 -0.1938
 1588CHOL    R218118  21.011  21.147  10.575 -0.0346 -0.0611 -0.1599
 1588CHOL    R318119  20.833  21.101  10.775 -0.0609 -0.0848 -0.1884
 1588CHOL    R418120  21.095  21.039  10.893 -0.0505  0.1556 -0.0811
 1588CHOL    R518121  20.920  20.908  10.889  0.0406  0.0319 -0.0667
 1588CHOL    C118122  20.975  20.933  11.266 -0.0843  0.2602 -0.0620
 1588CHOL    C218123  21.060  21.040  11.592  0.1726 -0.2326 -0.0479
 1589CHOL   ROH18124  27.061  21.590   0.378 -0.2892  0.1894  0.2050
 1589CHOL    R118125  27.203  21.436   0.568 -0.3401  0.0677  0.1450
 1589CHOL    R218126  27.475  21.460   0.605 -0.2996 -0.1829  0.0128
 1589CHOL    R318127  27.404  21.502   0.864 -0.1361 -0.1032  0.0454
 1589CHOL    R418128  27.686  21.422   0.876 -0.1575 -0.2068 -0.1004
 1589CHOL    R518129  27.521  21.332   0.986 -0.1295 -0.1223  0.0132
 1589CHOL    C118130  27.743  21.440   1.277  0.0788 -0.1454 -0.1357
 1589CHOL    C218131  28.074  21.298   1.452  0.0582  0.1493 -0.2537
 1590CHOL   ROH18132   7.848   6.569  14.616 -0.1255 -0.0536 -0.0169
 1590CHOL    R118133   7.613   6.618  14.766 -0.0644  0.0550  0.0442
 1590CHOL    R218134   7.502   6.429  14.934 -0.2138  0.0389 -0.0722
 1590CHOL    R318135   7.522   6.628  15.118 -0.0130 -0.1034  0.0624
 1590CHOL    R418136   7.266   6.496  15.178 -0.1477  0.1128 -0.0283
 1590CHOL    R518137   7.297   6.709  15.142  0.0673  0.1073  0.1152
 1590CHOL    C118138   7.148   6.721  15.493  0.0792  0.0222  0.1238
 1590CHOL    C218139   6.841   6.851  15.748  0.0478  0.3111  0.1043
 1591CHOL   ROH18140   0.401  13.390   7.721 -0.2166  0.0072 -0.1439
 1591CHOL    R118141   0.515  13.209   7.536 -0.1446 -0.1283  0.0314
 1591CHOL    R218142   0.627  13.291   7.297 -0.2837 -0.3244 -0.1032
 1591CHOL    R318143   0.843  13.152   7.388 -0.1508 -0.0600 -0.0089
 1591CHOL    R418144   0.875  13.157   7.097 -0.2008 -0.2968 -0.0196
 1591CHOL    R518145   0.876  12.980   7.225 -0.0309 -0.1814  0.1413
 1591CHOL    C118146   1.221  12.948   7.066 -0.0276 -0.0324  0.1175
 1591CHOL    C218147   1.558  12.879   7.010  0.1127  0.4091 -0.0079
 1592CHOL   ROH18148   1.571   3.682  13.033  0.0851  0.3124 -0.1110
 1592CHOL    R118149   1.746   3.755  12.823  0.1491  0.1538 -0.1144
 1592CHOL    R218150   2.020   3.722  12.839  0.1419  0.1238 -0.0243
 1592CHOL    R318151   1.985   3.586  12.606  0.1794 -0.0200  0.0535
 1592CHOL    R418152   2.260   3.688  12.592  0.0947  0.1880 -0.0789
 1592CHOL    R518153   2.103   3.716  12.443  0.0288 -0.0093 -0.0466
 1592CHOL    C118154   2.366   3.540  12.229  0.1023  0.0904 -0.0374
 1592CHOL    C218155   2.457   3.579  11.785 -0.2355  0.1197 -0.0088
 1593CHOL   ROH18156  27.577  29.642   6.970 -0.2186 -0.1114  0.0228
 1593CHOL    R118157  27.748  29.650   7.196 -0.2010 -0.0950  0.0084
 1593CHOL    R218158  27.847  29.886   7.299 -0.1212 -0.0948 -0.0708
 1593CHOL    R318159  27.738  29.795   7.530 -0.1333  0.0098 -0.0345
 1593CHOL    R418160  27.863  30.050   7.603  0.2352 -0.1614 -0.0506
 1593CHOL    R518161  27.895  29.857   7.699  0.0298 -0.2216 -0.0978
 1593CHOL    C118162  27.769  30.059   7.997  0.4311 -0.1016 -0.0049
 1593CHOL    C218163  27.834  30.022   8.309 -0.0413  0.1714  0.0463
 1594CHOL   ROH18164   3.489   0.254  12.424 -0.2084  0.0885 -0.1351
 1594CHOL    R118165   3.383   0.474  12.566 -0.1055  0.1360 -0.1314
 1594CHOL    R218166   3.520   0.712  12.595 -0.0132  0.0880 -0.1662
 1594CHOL    R318167   3.292   0.818  12.491  0.0094  0.1651 -0.1376
 1594CHOL    R418168   3.442   1.049  12.591 -0.1363  0.0683  0.3118
 1594CHOL    R518169   3.236   0.997  12.640 -0.1462 -0.0857  0.1094
 1594CHOL    C118170   3.183   1.345  12.492 -0.1868  0.1292  0.6170
 1594CHOL    C218171   3.227   1.466  12.838  0.3237  0.3446 -0.0366
 1595CHOL   ROH18172  22.730  17.833   3.814 -0.1270 -0.1120 -0.0878
 1595CHOL    R118173  22.937  17.959   3.960 -0.1211 -0.0240 -0.1716
 1595CHOL    R218174  23.036  17.856   4.197 -0.1102  0.1164 -0.1154
 1595CHOL    R318175  23.275  17.873   4.067 -0.1153  0.0413 -0.1361
 1595CHOL    R418176  23.342  17.767   4.332 -0.1490 -0.1608 -0.2065
 1595CHOL    R518177  23.429  17.942   4.236 -0.0484 -0.1587 -0.1135
 1595CHOL    C118178  23.743  17.732   4.289 -0.1764 -0.3932 -0.2790
 1595CHOL    C218179  24.082  17.638   4.352 -0.1833  0.0069  0.0898
 1596CHOL   ROH18180  20.508  17.936   9.687  0.1152  0.1985 -0.0808
 1596CHOL    R118181  20.710  17.846   9.864  0.2102  0.1770 -0.2006
 1596CHOL    R218182  20.972  17.930   9.844  0.1242  0.4748 -0.0970
 1596CHOL    R318183  20.936  17.997  10.105  0.0569  0.0988 -0.0064
 1596CHOL    R418184  21.222  17.932  10.083  0.1488  0.5241 -0.1225
 1596CHOL    R518185  21.080  17.847  10.225  0.2810  0.1459 -0.2106
 1596CHOL    C118186  21.334  17.996  10.468  0.0996  0.2002 -0.0522
 1596CHOL    C218187  21.743  17.865  10.485  0.0795  0.0752 -0.2672
 1597CHOL   ROH18188   5.655   5.888  14.806 -0.0541 -0.0550 -0.0551
 1597CHOL    R118189   5.553   6.121  14.681  0.0320 -0.0112 -0.0442
 1597CHOL    R218190   5.289   6.145  14.606  0.0764  0.0284 -0.1869
 1597CHOL    R318191   5.301   6.372  14.756  0.0059 -0.0165 -0.1131
 1597CHOL    R418192   5.084   6.421  14.565 -0.1017 -0.0756 -0.0082
 1597CHOL    R518193   5.257   6.549  14.601 -0.1604  0.0128 -0.0346
 1597CHOL    C118194   4.976   6.794  14.682 -0.2714 -0.1783  0.1649
 1597CHOL    C218195   4.589   7.026  14.716  0.0066 -0.1799  0.0382
 1598CHOL   ROH18196   8.393  32.110  16.693  0.2268  0.0385 -0.0337
 1598CHOL    R118197   8.231  32.132  16.923  0.1037 -0.0793 -0.1089
 1598CHOL    R218198   8.245  31.954  17.134  0.1672 -0.0442 -0.0836
 1598CHOL    R318199   8.283  32.179  17.280 -0.0968  0.0060 -0.0901
 1598CHOL    R418200   8.114  32.009  17.449  0.2300 -0.2552 -0.0198
 1598CHOL    R518201   8.073  32.215  17.390 -0.1012 -0.3090  0.0086
 1598CHOL    C118202   8.073  32.252  17.770  0.0187 -0.3308  0.0115
 1598CHOL    C218203   7.915  32.111  18.158  0.1904 -0.0051  0.4288
 1599CHOL   ROH18204   1.933  35.220  15.576 -0.0347  0.0269  0.0888
 1599CHOL    R118205   2.033  35.138  15.325 -0.0316  0.1259  0.0575
 1599CHOL    R218206   2.274  35.228  15.224  0.0537  0.0297  0.1737
 1599CHOL    R318207   2.326  34.962  15.201 -0.1218  0.0078  0.0106
 1599CHOL    R418208   2.470  35.086  14.977  0.2411  0.0923  0.2857
 1599CHOL    R518209   2.327  34.922  14.965  0.1287  0.2094 -0.0253
 1599CHOL    C118210   2.633  34.754  14.812  0.1855  0.1075  0.1978
 1599CHOL    C218211   2.932  34.526  14.560 -0.3552 -0.1374  0.0715
 1600CHOL   ROH18212  24.549  19.224   6.704 -0.0117  0.0927  0.0939
 1600CHOL    R118213  24.370  19.390   6.561 -0.0177  0.0408  0.0414
 1600CHOL    R218214  24.254  19.314   6.323  0.0579 -0.0014  0.0185
 1600CHOL    R318215  24.023  19.374   6.453  0.0117 -0.0495 -0.0410
 1600CHOL    R418216  23.944  19.345   6.172  0.0534 -0.2777 -0.0309
 1600CHOL    R518217  23.904  19.516   6.301 -0.0568 -0.2159 -0.1449
 1600CHOL    C118218  23.547  19.419   6.206  0.0068 -0.4840 -0.1154
 1600CHOL    C218219  23.379  19.437   5.929 -0.0677 -0.1326  0.0206
 1601CHOL   ROH18220  12.148  27.828  19.553 -0.0308 -0.1597  0.0680
 1601CHOL    R118221  11.878  27.908  19.523 -0.0355 -0.1341  0.1778
 1601CHOL    R218222  11.714  27.807  19.324 -0.0665  0.0325  0.1195
 1601CHOL    R318223  11.552  27.746  19.534 -0.0344 -0.1431  0.0944
 1601CHOL    R418224  11.382  27.715  19.297 -0.0896  0.1221  0.0940
 1601CHOL    R518225  11.339  27.837  19.473 -0.0306 -0.0406  0.2253
 1601CHOL    C118226  11.037  27.603  19.478 -0.0731  0.0095  0.0562
 1601CHOL    C218227  10.863  27.491  19.218 -0.2404 -0.0333 -0.1640
 1602CHOL   ROH18228   0.257  26.458   7.144 -0.3049  0.2012  0.0707
 1602CHOL    R118229   0.042  26.305   7.246 -0.2377  0.0086 -0.0731
 1602CHOL    R218230   0.003  26.040   7.180  0.0622 -0.0375 -0.0747
 1602CHOL    R318231   0.003  26.006   7.450 -0.1051 -0.0063 -0.0705
 1602CHOL    R418232  35.298  25.748   7.343  0.2831 -0.1263 -0.1102
 1602CHOL    R518233  35.197  25.869   7.493  0.0240 -0.2302 -0.2021
 1602CHOL    C118234  35.246  25.547   7.691  0.2547 -0.1495 -0.1270
 1602CHOL    C218235  35.017  25.556   7.953 -0.1123 -0.1333 -0.1895
 1603CHOL   ROH18236  34.624  30.225   8.881  0.3126 -0.1114 -0.0959
 1603CHOL    R118237  34.442  30.288   9.087  0.1518 -0.2310 -0.2002
 1603CHOL    R218238  34.249  30.111   9.174  0.3882 -0.4576 -0.1307
 1603CHOL    R318239  34.360  30.159   9.418  0.2432 -0.1092 -0.1299
 1603CHOL    R418240  34.090  30.063   9.478  0.3933 -0.5405 -0.1410
 1603CHOL    R518241  34.181  30.248   9.549  0.0546 -0.3355 -0.2332
 1603CHOL    C118242  34.102  30.079   9.882  0.2596 -0.2616 -0.1462
 1603CHOL    C218243  33.783  30.079  10.036  0.1154  0.0577  0.3723
 1604CHOL   ROH18244  26.707  15.222   0.969 -0.0733  0.0374  0.1584
 1604CHOL    R118245  26.802  15.214   1.235 -0.0158  0.0064  0.1369
 1604CHOL    R218246  27.050  15.112   1.302  0.0355  0.0834  0.0605
 1604CHOL    R318247  27.081  15.355   1.422 -0.0305  0.0652  0.1156
 1604CHOL    R418248  27.210  15.165   1.604 -0.1385  0.0339  0.1621
 1604CHOL    R518249  27.055  15.310   1.655 -0.1675  0.0287  0.0944
 1604CHOL    C118250  27.332  15.423   1.892 -0.3020 -0.0121  0.2729
 1604CHOL    C218251  27.299  15.438   2.235 -0.3141  0.1717  0.1063
 1605CHOL   ROH18252   4.096  24.140  17.028 -0.1419  0.3890 -0.2718
 1605CHOL    R118253   4.351  24.260  17.051 -0.0890  0.2579 -0.1650
 1605CHOL    R218254   4.583  24.135  16.968 -0.1242  0.1571 -0.1085
 1605CHOL    R318255   4.616  24.363  16.824  0.0392  0.1662 -0.0578
 1605CHOL    R418256   4.874  24.225  16.805  0.0182  0.1011  0.1116
 1605CHOL    R518257   4.842  24.430  16.870  0.0247  0.1019  0.1133
 1605CHOL    C118258   5.075  24.491  16.574  0.2545  0.0770  0.2873
 1605CHOL    C218259   5.452  24.493  16.567  0.1994 -0.1014 -0.1512
 1606CHOL   ROH18260  27.278  21.923   4.091 -0.1275  0.2489 -0.1480
 1606CHOL    R118261  27.050  22.043   3.974 -0.2108  0.1204 -0.1190
 1606CHOL    R218262  26.973  21.995   3.714 -0.1833  0.1218 -0.1282
 1606CHOL    R318263  26.736  21.929   3.830 -0.1372 -0.0612 -0.1358
 1606CHOL    R418264  26.665  22.007   3.556 -0.2131  0.0881 -0.0724
 1606CHOL    R518265  26.580  22.087   3.740 -0.2214 -0.0719 -0.0074
 1606CHOL    C118266  26.264  21.953   3.573 -0.1869 -0.1036 -0.0471
 1606CHOL    C218267  25.923  21.762   3.400  0.0304  0.1772 -0.0730
 1607CHOL   ROH18268  17.092   7.747  13.906 -0.1976  0.1211  0.1002
 1607CHOL    R118269  17.024   7.782  14.179 -0.0521  0.0909  0.1405
 1607CHOL    R218270  16.959   7.571  14.345 -0.1376  0.0902  0.1061
 1607CHOL    R318271  17.157   7.674  14.500  0.0080 -0.1038  0.0510
 1607CHOL    R418272  17.014   7.487  14.676 -0.1896  0.1096  0.1199
 1607CHOL    R518273  17.057   7.697  14.717  0.0658  0.0713  0.0597
 1607CHOL    C118274  17.232   7.535  15.014 -0.0828 -0.0611  0.0761
 1607CHOL    C218275  17.523   7.353  15.187 -0.3864 -0.1563  0.2798
 1608CHOL   ROH18276  20.423  14.273  15.102  0.0788 -0.0732 -0.0171
 1608CHOL    R118277  20.162  14.272  14.994  0.0675 -0.0249  0.0093
 1608CHOL    R218278  20.008  14.501  14.975  0.0971 -0.0018  0.0522
 1608CHOL    R318279  19.991  14.429  14.713  0.0602  0.0315  0.0452
 1608CHOL    R418280  19.778  14.626  14.750 -0.0872 -0.1477  0.1583
 1608CHOL    R518281  19.756  14.426  14.668  0.0454 -0.1507  0.1305
 1608CHOL    C118282  19.627  14.632  14.373 -0.2290 -0.2014  0.2136
 1608CHOL    C218283  19.369  14.945  14.200 -0.1372  0.0930  0.0874
 1609CHOL   ROH18284  18.978   9.040  12.861 -0.2611  0.2076  0.0507
 1609CHOL    R118285  19.210   9.061  13.022 -0.0444 -0.3819 -0.1695
 1609CHOL    R218286  19.215   9.206  13.257  0.7238  0.1828 -0.5117
 1609CHOL    R318287  19.305   8.972  13.362 -0.1949  0.0256 -0.0170
 1609CHOL    R418288  19.405   9.178  13.545  0.7622  0.0617 -0.5484
 1609CHOL    R518289  19.523   9.024  13.446  0.0839 -0.6802 -0.2613
 1609CHOL    C118290  19.600   8.943  13.810 -0.0771 -0.1564 -0.1053
 1609CHOL    C218291  19.749   9.245  13.932 -0.2364 -0.2065 -0.0224
 1610CHOL   ROH18292  20.099  24.758  10.311  0.0752  0.0416 -0.0659
 1610CHOL    R118293  20.304  24.887  10.456  0.0565  0.0160 -0.0158
 1610CHOL    R218294  20.405  24.786  10.693  0.0297 -0.0289 -0.0214
 1610CHOL    R318295  20.643  24.807  10.563  0.0438 -0.0017  0.0093
 1610CHOL    R418296  20.712  24.820  10.848  0.0286 -0.2131  0.0206
 1610CHOL    R518297  20.769  24.963  10.694  0.0761 -0.1236  0.1233
 1610CHOL    C118298  21.115  24.859  10.816  0.0409 -0.2946  0.0746
 1610CHOL    C218299  21.226  24.774  11.221  0.1213 -0.2929 -0.0509
 1611CHOL   ROH18300  32.343   8.705   6.245  0.2948 -0.1021 -0.2082
 1611CHOL    R118301  32.343   8.646   5.968  0.0233 -0.0253 -0.2267
 1611CHOL    R218302  32.122   8.683   5.808 -0.0457  0.3033 -0.0600
 1611CHOL    R318303  32.295   8.830   5.658  0.0369  0.1261 -0.1398
 1611CHOL    R418304  32.138   8.677   5.463 -0.0172  0.0724 -0.0557
 1611CHOL    R518305  32.355   8.684   5.478 -0.0141 -0.0196 -0.0408
 1611CHOL    C118306  32.310   8.811   5.121  0.0777 -0.2283 -0.1279
 1611CHOL    C218307  32.117   8.631   4.796 -0.1955  0.3872  0.2313
 1612CHOL   ROH18308  21.435  25.246  14.713 -0.0139 -0.0922  0.1096
 1612CHOL    R118309  21.207  25.407  14.759 -0.0715 -0.1011 -0.1339
 1612CHOL    R218310  20.964  25.358  14.639 -0.0768 -0.4215  0.0007
 1612CHOL    R318311  20.873  25.359  14.895 -0.0237  0.0018  0.0219
 1612CHOL    R418312  20.631  25.383  14.730 -0.0505 -0.1732  0.0360
 1612CHOL    R518313  20.691  25.515  14.893  0.0267  0.0593 -0.1783
 1612CHOL    C118314  20.352  25.397  15.024  0.0158  0.3688  0.0764
 1612CHOL    C218315  20.051  25.634  15.131  0.3111 -0.0524  0.0193
 1613CHOL   ROH18316  33.355  26.975   7.166  0.2101  0.0317 -0.0244
 1613CHOL    R118317  33.402  27.190   7.344  0.0832  0.0040  0.0427
 1613CHOL    R218318  33.302  27.444   7.301  0.0534 -0.0065  0.0484
 1613CHOL    R318319  33.199  27.411   7.550 -0.0586 -0.0790 -0.0067
 1613CHOL    R418320  33.118  27.682   7.471  0.0244 -0.0362  0.0574
 1613CHOL    R518321  33.224  27.626   7.653 -0.0637 -0.1213  0.0821
 1613CHOL    C118322  32.915  27.790   7.805 -0.0983 -0.1212  0.0109
 1613CHOL    C218323  32.560  27.940   7.869 -0.3207  0.2854 -0.0783
 1614CHOL   ROH18324  31.108   7.136   7.462  0.0627 -0.1210 -0.0777
 1614CHOL    R118325  31.388   7.117   7.422  0.0381 -0.2650 -0.1855
 1614CHOL    R218326  31.500   7.099   7.170 -0.0495 -0.0063 -0.2458
 1614CHOL    R318327  31.645   7.314   7.255  0.1269 -0.2206  0.0032
 1614CHOL    R418328  31.805   7.196   7.039 -0.0587  0.0048 -0.2590
 1614CHOL    R518329  31.873   7.240   7.241  0.0755 -0.3416 -0.2254
 1614CHOL    C118330  32.118   7.454   7.042  0.1008 -0.1900 -0.0328
 1614CHOL    C218331  32.439   7.767   6.942 -0.1425 -0.1012  0.0886
 1615CHOL   ROH18332   6.802   6.858  17.214  0.0872 -0.0239 -0.0857
 1615CHOL    R118333   6.789   6.751  16.952 -0.0993 -0.0353 -0.0729
 1615CHOL    R218334   6.549   6.703  16.824 -0.1900  0.1730  0.0107
 1615CHOL    R318335   6.659   6.858  16.629 -0.1108  0.0568 -0.0375
 1615CHOL    R418336   6.443   6.713  16.495 -0.0496 -0.0251 -0.0414
 1615CHOL    R518337   6.652   6.722  16.433 -0.0254 -0.0603  0.0416
 1615CHOL    C118338   6.484   6.865  16.121  0.1064 -0.2496 -0.1168
 1615CHOL    C218339   6.348   6.974  15.834 -0.0340  0.0089 -0.1277
 1616CHOL   ROH18340   3.744  18.338  13.467  0.0360 -0.0568  0.0725
 1616CHOL    R118341   4.010  18.415  13.529  0.0576 -0.1499  0.0963
 1616CHOL    R218342   4.220  18.236  13.529  0.0529 -0.1586 -0.2152
 1616CHOL    R318343   4.331  18.416  13.358  0.0043  0.0744 -0.0037
 1616CHOL    R418344   4.550  18.233  13.426  0.0395  0.0189 -0.2646
 1616CHOL    R518345   4.552  18.450  13.443  0.0106 -0.0019  0.0100
 1616CHOL    C118346   4.846  18.401  13.205 -0.0140  0.3409 -0.0945
 1616CHOL    C218347   5.094  18.517  12.880 -0.4483  0.0514 -0.0339
 1617CHOL   ROH18348   5.494  14.769  11.290 -0.1025  0.0908  0.0639
 1617CHOL    R118349   5.309  14.641  11.461 -0.0548  0.0470  0.0830
 1617CHOL    R218350   5.132  14.781  11.621 -0.0470  0.0058  0.1287
 1617CHOL    R318351   4.947  14.626  11.495 -0.0469 -0.0069  0.1444
 1617CHOL    R418352   4.795  14.779  11.694 -0.0124 -0.1541  0.2836
 1617CHOL    R518353   4.796  14.562  11.669  0.0573 -0.1424  0.1852
 1617CHOL    C118354   4.424  14.632  11.620  0.0076 -0.2593  0.3886
 1617CHOL    C218355   4.121  14.865  11.791  0.0808 -0.1875  0.1045
 1618CHOL   ROH18356   0.773  11.880   3.975  0.1289  0.2564  0.1019
 1618CHOL    R118357   0.603  11.786   4.181  0.1424  0.2267  0.0992
 1618CHOL    R218358   0.614  11.883   4.439  0.1015  0.2494  0.0920
 1618CHOL    R318359   0.349  11.928   4.399  0.0915  0.1751  0.0737
 1618CHOL    R418360   0.386  11.952   4.689  0.0758  0.2457  0.0701
 1618CHOL    R518361   0.242  11.823   4.587  0.1112  0.1879  0.0924
 1618CHOL    C118362   0.004  12.034   4.798  0.0514  0.1735  0.0401
 1618CHOL    C218363  35.198  12.040   5.139 -0.1177  0.0021  0.0485
 1619CHOL   ROH18364  24.889  25.737   4.124  0.2556  0.0508 -0.1639
 1619CHOL    R118365  25.073  25.754   4.338  0.0795  0.1368 -0.0195
 1619CHOL    R218366  24.993  25.797   4.599 -0.1567 -0.0532 -0.0589
 1619CHOL    R318367  25.137  25.571   4.647  0.0270  0.0658 -0.0503
 1619CHOL    R418368  25.137  25.715   4.903 -0.2699 -0.0254  0.0024
 1619CHOL    R518369  25.312  25.643   4.794 -0.1324  0.1789  0.0854
 1619CHOL    C118370  25.357  25.456   5.124 -0.1626  0.1027  0.0461
 1619CHOL    C218371  25.115  25.499   5.365  0.1347  0.1480 -0.0476
 1620CHOL   ROH18372  17.353  28.436  12.785  0.2035 -0.0890  0.0877
 1620CHOL    R118373  17.514  28.668  12.810  0.0668  0.0017  0.1292
 1620CHOL    R218374  17.616  28.753  13.051  0.0942 -0.0337  0.1296
 1620CHOL    R318375  17.853  28.745  12.917  0.0551  0.1698  0.0471
 1620CHOL    R418376  17.917  28.872  13.174  0.0505  0.1520  0.0577
 1620CHOL    R518377  17.961  28.951  12.975 -0.0732  0.2337  0.0618
 1620CHOL    C118378  18.314  28.934  13.119 -0.0117  0.4512 -0.0616
 1620CHOL    C218379  18.603  29.022  13.282  0.0265  0.0095  0.0390
 1621CHOL   ROH18380   9.187  13.282  14.099 -0.1188  0.2329 -0.0401
 1621CHOL    R118381   8.994  13.249  14.304 -0.0827  0.1661 -0.0175
 1621CHOL    R218382   8.955  13.008  14.433  0.0311  0.1590  0.0016
 1621CHOL    R318383   8.996  13.158  14.656 -0.0080  0.1894 -0.0112
 1621CHOL    R418384   8.851  12.921  14.751  0.0683  0.1478  0.0109
 1621CHOL    R518385   8.796  13.130  14.784  0.0033  0.1345 -0.0028
 1621CHOL    C118386   8.829  13.012  15.146  0.0533  0.1696  0.0043
 1621CHOL    C218387   8.818  12.815  15.450 -0.1158 -0.2174  0.1881
 1622CHOL   ROH18388  32.426  21.895   0.892  0.0656 -0.0024  0.0323
 1622CHOL    R118389  32.323  21.995   1.136  0.0721  0.0534  0.0125
 1622CHOL    R218390  32.061  21.956   1.214  0.0592  0.1144  0.0048
 1622CHOL    R318391  32.176  21.855   1.438  0.0289  0.1254  0.0250
 1622CHOL    R418392  31.897  21.906   1.514  0.0322  0.1785  0.0003
 1622CHOL    R518393  32.075  21.978   1.617  0.0362  0.1637  0.0026
 1622CHOL    C118394  31.910  21.782   1.900 -0.0124  0.2257  0.0167
 1622CHOL    C218395  31.807  21.730   2.240 -0.0157  0.3550 -0.1457
 1623CHOL   ROH18396   2.528  23.525  12.263  0.0843  0.0876 -0.0622
 1623CHOL    R118397   2.706  23.743  12.240  0.1710  0.0143 -0.0774
 1623CHOL    R218398   2.830  23.857  12.458  0.2229 -0.0278 -0.0890
 1623CHOL    R318399   3.056  23.807  12.316  0.2005 -0.1213 -0.0934
 1623CHOL    R418400   3.143  23.986  12.532  0.2670 -0.1165 -0.1170
 1623CHOL    R518401   3.175  24.015  12.318  0.2670 -0.1560 -0.1257
 1623CHOL    C118402   3.537  24.014  12.441  0.2716 -0.2561 -0.1376
 1623CHOL    C218403   3.824  24.044  12.533  0.3388  0.0263 -0.0820
 1624CHOL   ROH18404   7.224   3.236  14.718  0.1365 -0.1230  0.2830
 1624CHOL    R118405   7.092   3.295  14.961  0.0085 -0.2284  0.2393
 1624CHOL    R218406   6.993   3.546  15.019  0.2748 -0.1668  0.4348
 1624CHOL    R318407   6.761   3.410  15.061  0.0669  0.0742  0.0904
 1624CHOL    R418408   6.733   3.655  15.220  0.2979 -0.1232  0.4412
 1624CHOL    R518409   6.709   3.450  15.291 -0.0166 -0.2025  0.1215
 1624CHOL    C118410   6.365   3.590  15.375  0.1160  0.1284  0.1215
 1624CHOL    C218411   6.201   3.602  15.782 -0.0070 -0.0743  0.1997
 1625CHOL   ROH18412   8.043  18.491  18.607 -0.3631  0.1318  0.0382
 1625CHOL    R118413   8.116  18.675  18.405 -0.2173  0.0351  0.0025
 1625CHOL    R218414   7.934  18.844  18.284 -0.0901  0.1327 -0.0542
 1625CHOL    R318415   8.111  19.036  18.361  0.0348  0.0294 -0.0820
 1625CHOL    R418416   8.025  19.117  18.093  0.0972  0.0404 -0.0984
 1625CHOL    R518417   8.230  19.091  18.161  0.0776 -0.0843 -0.0874
 1625CHOL    C118418   8.243  19.456  18.053  0.3235 -0.1104 -0.1508
 1625CHOL    C218419   8.010  19.618  17.815 -0.0819 -0.0977 -0.1448
 1626CHOL   ROH18420  20.505  17.026   9.762 -0.0583 -0.0049 -0.0010
 1626CHOL    R118421  20.751  16.917   9.849 -0.1040 -0.0381  0.0863
 1626CHOL    R218422  20.989  17.056   9.834 -0.0304 -0.1868 -0.1220
 1626CHOL    R318423  21.003  16.998  10.099 -0.0154  0.1212 -0.0528
 1626CHOL    R418424  21.275  17.079  10.026  0.0507 -0.2462 -0.2343
 1626CHOL    R518425  21.217  16.894  10.126 -0.1129 -0.0685  0.0089
 1626CHOL    C118426  21.455  17.038  10.387  0.1123  0.0082 -0.2350
 1626CHOL    C218427  21.758  17.131  10.551  0.1061  0.2058 -0.0038
 1627CHOL   ROH18428  17.251  34.557  15.480 -0.0710  0.1451 -0.0623
 1627CHOL    R118429  16.981  34.531  15.401 -0.0378  0.1827 -0.1920
 1627CHOL    R218430  16.906  34.466  15.143  0.0869 -0.1234 -0.1544
 1627CHOL    R318431  16.769  34.267  15.267 -0.0922  0.1117  0.0304
 1627CHOL    R418432  16.625  34.312  15.015  0.0050 -0.0568 -0.0551
 1627CHOL    R518433  16.539  34.313  15.216 -0.0458  0.2258 -0.0765
 1627CHOL    C118434  16.332  34.035  15.057 -0.2106  0.2030  0.1761
 1627CHOL    C218435  16.168  33.651  15.094 -0.1162  0.0991 -0.0562
 1628CHOL   ROH18436  17.135  27.346  14.298 -0.0291  0.1188 -0.2005
 1628CHOL    R118437  17.362  27.514  14.302 -0.0422  0.1341 -0.0310
 1628CHOL    R218438  17.385  27.730  14.473 -0.0772 -0.0119  0.1589
 1628CHOL    R318439  17.618  27.608  14.543 -0.0749 -0.0551  0.0786
 1628CHOL    R418440  17.630  27.872  14.671 -0.0322 -0.0990  0.1662
 1628CHOL    R518441  17.781  27.784  14.539 -0.0612 -0.0666  0.1106
 1628CHOL    C118442  17.992  27.840  14.852 -0.0040 -0.1903  0.0949
 1628CHOL    C218443  18.227  27.760  15.074 -0.0095  0.0158 -0.0978
 1629CHOL   ROH18444  24.432  11.891   9.590  0.2231 -0.0970  0.0199
 1629CHOL    R118445  24.178  11.771   9.556  0.2337 -0.1245  0.0415
 1629CHOL    R218446  23.944  11.917   9.549  0.2009 -0.1668  0.2408
 1629CHOL    R318447  23.908  11.788   9.312  0.1288 -0.0093  0.1651
 1629CHOL    R418448  23.637  11.833   9.414  0.1656 -0.2623  0.3798
 1629CHOL    R518449  23.722  11.642   9.351  0.2481 -0.1601  0.1777
 1629CHOL    C118450  23.424  11.664   9.114  0.0769 -0.1699  0.3896
 1629CHOL    C218451  23.205  11.591   9.493  0.0183  0.0717  0.1617
 1630CHOL   ROH18452  16.100  28.547  14.663  0.1763  0.1659 -0.2158
 1630CHOL    R118453  16.370  28.633  14.659  0.1537  0.2430 -0.1196
 1630CHOL    R218454  16.444  28.887  14.582  0.1110  0.2545 -0.1236
 1630CHOL    R318455  16.568  28.891  14.824  0.0140  0.3223 -0.0745
 1630CHOL    R418456  16.733  29.063  14.653  0.1554  0.1698 -0.0931
 1630CHOL    R518457  16.801  28.893  14.771  0.0370  0.1984  0.0192
 1630CHOL    C118458  17.017  29.169  14.922  0.0903  0.1838 -0.0294
 1630CHOL    C218459  17.305  29.385  15.148 -0.1173  0.2854  0.0818
 1631CHOL   ROH18460   7.082  19.788  13.023 -0.0531 -0.2696 -0.0648
 1631CHOL    R118461   6.849  19.823  13.181 -0.0272 -0.2920 -0.0211
 1631CHOL    R218462   6.646  19.997  13.110  0.0038 -0.2115  0.0852
 1631CHOL    R318463   6.491  19.775  13.137 -0.0432 -0.1899 -0.0036
 1631CHOL    R418464   6.301  19.995  13.096  0.0035 -0.1335  0.0813
 1631CHOL    R518465   6.300  19.852  13.260 -0.0282 -0.1984  0.0249
 1631CHOL    C118466   5.954  19.786  13.114 -0.0407 -0.0678 -0.0044
 1631CHOL    C218467   5.701  19.935  13.317  0.1825  0.0779  0.1089
 1632CHOL   ROH18468  27.135  31.252   9.479 -0.3003  0.0095  0.0246
 1632CHOL    R118469  27.084  31.367   9.225  0.0134  0.0427 -0.0252
 1632CHOL    R218470  27.265  31.354   9.017  0.0851 -0.3260  0.0568
 1632CHOL    R318471  27.055  31.248   8.882 -0.0469  0.0146 -0.0102
 1632CHOL    R418472  27.224  31.367   8.674  0.2077 -0.2453  0.0445
 1632CHOL    R518473  27.011  31.405   8.706  0.2556  0.0927 -0.0178
 1632CHOL    C118474  27.001  31.275   8.348  0.1553  0.1214 -0.0255
 1632CHOL    C218475  26.942  31.548   8.166 -0.0264  0.0239 -0.1460
 1633CHOL   ROH18476  30.353  19.284   3.547  0.2395 -0.0234  0.0202
 1633CHOL    R118477  30.425  19.341   3.279  0.2117 -0.0084  0.0160
 1633CHOL    R218478  30.683  19.400   3.204  0.2127 -0.0543 -0.0153
 1633CHOL    R318479  30.644  19.196   3.028  0.1446 -0.0261 -0.0328
 1633CHOL    R418480  30.773  19.407   2.870  0.2792 -0.0803  0.0018
 1633CHOL    R518481  30.586  19.306   2.822  0.2367  0.0143 -0.0384
 1633CHOL    C118482  30.788  19.221   2.510  0.2542 -0.0692 -0.0047
 1633CHOL    C218483  31.005  19.371   2.273 -0.1771  0.3400  0.1379
 1634CHOL   ROH18484  17.044  12.971  17.481 -0.1812  0.4040  0.0124
 1634CHOL    R118485  16.798  12.968  17.342 -0.1551  0.2184 -0.0317
 1634CHOL    R218486  16.782  12.926  17.069 -0.0669  0.2994 -0.0503
 1634CHOL    R318487  16.610  12.729  17.142  0.1084  0.1082 -0.1496
 1634CHOL    R418488  16.550  12.780  16.859 -0.1207  0.3858 -0.0511
 1634CHOL    R518489  16.407  12.781  17.025 -0.0063  0.1112  0.0496
 1634CHOL    C118490  16.253  12.509  16.805  0.0128  0.2567 -0.1448
 1634CHOL    C218491  16.057  12.236  16.574 -0.1526 -0.1425 -0.2677
 1635CHOL   ROH18492   3.452   5.783  14.853 -0.1102  0.1585 -0.2941
 1635CHOL    R118493   3.642   5.847  14.654 -0.1344  0.2195 -0.2977
 1635CHOL    R218494   3.619   6.070  14.492  0.0386  0.4752  0.0230
 1635CHOL    R318495   3.869   6.123  14.584  0.1462  0.0616 -0.0216
 1635CHOL    R418496   3.831   6.309  14.361  0.3517  0.2367  0.0878
 1635CHOL    R518497   3.996   6.170  14.386  0.1568 -0.0202 -0.0339
 1635CHOL    C118498   4.189   6.498  14.370  0.6351 -0.2902  0.0837
 1635CHOL    C218499   4.568   6.482  14.564  0.5082 -0.0907  0.3250
 1636CHOL   ROH18500  33.576   8.504   9.130 -0.0968  0.0337  0.0413
 1636CHOL    R118501  33.679   8.402   8.887 -0.0172 -0.2085  0.1758
 1636CHOL    R218502  33.799   8.563   8.697 -0.2010 -0.3555 -0.0648
 1636CHOL    R318503  34.004   8.386   8.724 -0.0159 -0.1104  0.1660
 1636CHOL    R418504  34.075   8.548   8.490 -0.1583 -0.3002 -0.0137
 1636CHOL    R518505  34.064   8.330   8.499  0.0698 -0.3056  0.2348
 1636CHOL    C118506  34.428   8.374   8.394  0.0388 -0.0380  0.2329
 1636CHOL    C218507  34.559   8.353   7.997  0.1934  0.1806  0.2018
 1637CHOL   ROH18508  27.917  19.011   0.615  0.1690 -0.4227 -0.2075
 1637CHOL    R118509  27.999  19.033   0.885 -0.0490 -0.2060 -0.1567
 1637CHOL    R218510  27.938  18.842   1.075  0.0278 -0.1881 -0.1133
 1637CHOL    R318511  28.207  18.842   1.115  0.0019  0.1306  0.0810
 1637CHOL    R418512  28.096  18.720   1.357 -0.0156 -0.2600 -0.1204
 1637CHOL    R518513  28.233  18.890   1.348 -0.2319 -0.0669  0.1487
 1637CHOL    C118514  28.441  18.649   1.558 -0.0647 -0.0029  0.0577
 1637CHOL    C218515  28.232  18.399   1.738  0.0158  0.2297 -0.1160
 1638CHOL   ROH18516  17.973  20.430  18.691 -0.1951  0.0388  0.0627
 1638CHOL    R118517  17.754  20.542  18.551 -0.1711 -0.0095 -0.0137
 1638CHOL    R218518  17.747  20.808  18.475 -0.2971  0.0427  0.1725
 1638CHOL    R318519  17.701  20.702  18.228 -0.0463  0.1869  0.0628
 1638CHOL    R418520  17.584  20.971  18.217 -0.4124  0.0360  0.2411
 1638CHOL    R518521  17.484  20.784  18.168 -0.1339 -0.0622  0.0399
 1638CHOL    C118522  17.446  20.968  17.836 -0.2448  0.1675  0.1783
 1638CHOL    C218523  17.276  21.159  17.554  0.0179 -0.3058 -0.1394
 1639CHOL   ROH18524  16.357  33.664  11.820 -0.0060  0.1048  0.0611
 1639CHOL    R118525  16.434  33.919  11.914 -0.3450  0.1598  0.1939
 1639CHOL    R218526  16.375  34.008  12.169 -0.1564 -0.1910  0.3636
 1639CHOL    R318527  16.643  34.051  12.182 -0.2118  0.2889  0.0270
 1639CHOL    R418528  16.543  34.128  12.447  0.0393 -0.3571  0.3183
 1639CHOL    R518529  16.665  34.250  12.314 -0.3885  0.1064  0.3375
 1639CHOL    C118530  16.892  34.238  12.620  0.1012 -0.0034 -0.0240
 1639CHOL    C218531  17.298  34.067  12.787  0.1803 -0.0477 -0.2040
 1640CHOL   ROH18532  12.209  21.267  18.236 -0.3653 -0.0299 -0.0342
 1640CHOL    R118533  12.248  20.993  18.296 -0.2390 -0.0025  0.0086
 1640CHOL    R218534  12.256  20.897  18.555 -0.2279  0.0369  0.0222
 1640CHOL    R318535  12.062  20.730  18.465 -0.1330 -0.0718  0.0185
 1640CHOL    R418536  12.134  20.625  18.729 -0.2630  0.1236  0.1339
 1640CHOL    R518537  12.130  20.513  18.542 -0.1237 -0.0046  0.2048
 1640CHOL    C118538  11.880  20.309  18.746 -0.1944  0.0713  0.1950
 1640CHOL    C218539  12.005  19.972  18.723 -0.1970  0.2454  0.0033
 1641CHOL   ROH18540  16.105  33.191  17.880 -0.0128 -0.0540  0.1951
 1641CHOL    R118541  15.932  32.966  17.885 -0.3040  0.1549 -0.1781
 1641CHOL    R218542  15.767  32.901  17.673  0.2618  0.2147 -0.6512
 1641CHOL    R318543  15.892  32.660  17.693 -0.0767  0.0751 -0.0990
 1641CHOL    R418544  15.652  32.607  17.532  0.3654  0.2678 -0.8480
 1641CHOL    R518545  15.713  32.502  17.713 -0.3401  0.2991 -0.5770
 1641CHOL    C118546  15.701  32.210  17.468  0.1075  0.1673 -0.4444
 1641CHOL    C218547  15.419  31.994  17.526  0.0958  0.3004  0.0443
 1642CHOL   ROH18548  24.992  32.955  10.104 -0.1358  0.1322  0.0886
 1642CHOL    R118549  24.873  33.091   9.887 -0.0980  0.1476  0.0774
 1642CHOL    R218550  25.004  33.289   9.746 -0.0054  0.0294 -0.0042
 1642CHOL    R318551  24.941  33.133   9.532 -0.1474  0.0096  0.0514
 1642CHOL    R418552  24.946  33.407   9.426  0.0072 -0.0229 -0.0255
 1642CHOL    R518553  24.783  33.264   9.408 -0.0885  0.0767  0.0465
 1642CHOL    C118554  24.854  33.329   9.039 -0.1188 -0.0722  0.0141
 1642CHOL    C218555  24.632  33.333   8.740  0.3700  0.2901 -0.1041
 1643CHOL   ROH18556  31.961  19.175   4.078 -0.2954 -0.3002  0.1481
 1643CHOL    R118557  31.868  19.083   3.827 -0.1677 -0.0807  0.0191
 1643CHOL    R218558  32.004  19.132   3.591  0.0725 -0.0678  0.1588
 1643CHOL    R318559  31.991  18.862   3.565 -0.1425 -0.0437 -0.0004
 1643CHOL    R418560  32.080  18.959   3.302  0.6233 -0.0038  0.2594
 1643CHOL    R518561  31.910  18.828   3.342  0.3803  0.1501 -0.2300
 1643CHOL    C118562  32.112  18.604   3.109  0.7425  0.0563  0.1685
 1643CHOL    C218563  32.098  18.676   2.785  0.2595 -0.0085  0.4547
 1644CHOL   ROH18564  20.434  18.631  15.679 -0.1362 -0.0995  0.3377
 1644CHOL    R118565  20.263  18.673  15.458 -0.0290  0.1295  0.2959
 1644CHOL    R218566  20.170  18.466  15.300  0.1438  0.3034 -0.0384
 1644CHOL    R318567  19.927  18.571  15.361  0.0662  0.1221 -0.0309
 1644CHOL    R418568  19.883  18.419  15.115  0.1417 -0.0225  0.0452
 1644CHOL    R518569  19.832  18.628  15.149 -0.0296 -0.0509 -0.0346
 1644CHOL    C118570  19.487  18.489  15.064  0.0681 -0.3829  0.1006
 1644CHOL    C218571  19.385  18.628  14.658 -0.3577 -0.0264  0.0328
 1645CHOL   ROH18572  34.062  17.692   4.798  0.0506 -0.2087  0.0477
 1645CHOL    R118573  34.275  17.660   4.615 -0.0450 -0.1442 -0.0763
 1645CHOL    R218574  34.248  17.708   4.344 -0.1439  0.1053 -0.0244
 1645CHOL    R318575  34.461  17.872   4.384 -0.0537 -0.0247  0.0272
 1645CHOL    R418576  34.442  17.843   4.093 -0.1453  0.1801  0.0143
 1645CHOL    R518577  34.619  17.806   4.216 -0.1308  0.0118 -0.0588
 1645CHOL    C118578  34.756  18.076   3.984 -0.0623  0.1009  0.0852
 1645CHOL    C218579  35.051  18.110   3.710 -0.4665 -0.2629  0.0338
 1646CHOL   ROH18580  16.950   4.400  16.445 -0.2308  0.1692  0.2199
 1646CHOL    R118581  16.795   4.557  16.267  0.0521  0.2756  0.0643
 1646CHOL    R218582  16.908   4.703  16.061  0.3251 -0.0850 -0.0485
 1646CHOL    R318583  16.730   4.564  15.909  0.1145  0.0755  0.0486
 1646CHOL    R418584  16.802   4.797  15.746  0.1699  0.0542  0.0450
 1646CHOL    R518585  16.600   4.733  15.800  0.1610  0.1920  0.1740
 1646CHOL    C118586  16.573   4.722  15.419 -0.1184  0.2859  0.1900
 1646CHOL    C218587  16.609   4.877  15.080 -0.1153 -0.2069 -0.0913
 1647CHOL   ROH18588  14.009  18.554  16.283  0.2257  0.0499 -0.1189
 1647CHOL    R118589  13.967  18.329  16.449  0.0019  0.1610 -0.0238
 1647CHOL    R218590  14.175  18.192  16.569 -0.1161 -0.1464 -0.1676
 1647CHOL    R318591  14.034  18.241  16.796  0.1568  0.1453 -0.0575
 1647CHOL    R418592  14.216  18.023  16.867 -0.1675 -0.1686 -0.1726
 1647CHOL    R518593  14.000  18.025  16.893 -0.1476  0.2195  0.0072
 1647CHOL    C118594  14.108  17.970  17.255  0.0586  0.0922 -0.0725
 1647CHOL    C218595  14.235  17.601  17.475  0.0550  0.1803  0.3023
 1648CHOL   ROH18596  26.932   5.546   8.942 -0.0828  0.1716 -0.0372
 1648CHOL    R118597  26.737   5.447   8.763 -0.1032  0.0359  0.0600
 1648CHOL    R218598  26.801   5.334   8.519 -0.1459  0.0833  0.0268
 1648CHOL    R318599  26.655   5.125   8.613  0.0470 -0.0208  0.0988
 1648CHOL    R418600  26.636   5.104   8.321  0.0334 -0.1153  0.1065
 1648CHOL    R518601  26.470   5.110   8.461  0.0427 -0.2237  0.1231
 1648CHOL    C118602  26.403   4.774   8.294  0.3187 -0.3289  0.2207
 1648CHOL    C218603  26.274   4.328   8.228 -0.1616 -0.0791  0.0338
 1649CHOL   ROH18604  13.450  24.997  18.494  0.0983  0.1077 -0.0217
 1649CHOL    R118605  13.522  24.908  18.752 -0.2469 -0.2441 -0.0427
 1649CHOL    R218606  13.632  25.076  18.942  0.1147 -0.6462  0.1057
 1649CHOL    R318607  13.426  24.985  19.095 -0.1952 -0.2011 -0.0367
 1649CHOL    R418608  13.592  25.142  19.279 -0.0575 -0.4261  0.0439
 1649CHOL    R518609  13.527  24.936  19.307 -0.4683 -0.3004  0.0755
 1649CHOL    C118610  13.375  25.095  19.619 -0.4490  0.1201 -0.1262
 1649CHOL    C218611  13.225  25.210  19.883 -0.0237 -0.0715 -0.1609
 1650CHOL   ROH18612  30.442   5.143   5.774  0.1955 -0.1439  0.1486
 1650CHOL    R118613  30.263   5.249   5.965  0.1307  0.0804 -0.0340
 1650CHOL    R218614  30.184   5.108   6.190 -0.2995  0.1640 -0.1269
 1650CHOL    R318615  30.272   5.330   6.320 -0.1400  0.0362 -0.0156
 1650CHOL    R418616  30.047   5.233   6.481 -0.2895  0.1861 -0.1316
 1650CHOL    R518617  30.073   5.434   6.401 -0.0732  0.1928 -0.0507
 1650CHOL    C118618  30.050   5.514   6.774 -0.1334  0.0790 -0.0297
 1650CHOL    C218619  29.809   5.599   7.077 -0.0796 -0.0044 -0.0179
 1651CHOL   ROH18620  17.891   4.450  15.847  0.3158 -0.1574  0.0103
 1651CHOL    R118621  17.834   4.497  15.574  0.3225  0.0400  0.0425
 1651CHOL    R218622  17.596   4.608  15.489  0.2409 -0.0903  0.1033
 1651CHOL    R318623  17.760   4.786  15.365  0.1078  0.1665  0.2907
 1651CHOL    R418624  17.566   4.707  15.159  0.4070 -0.0713  0.0937
 1651CHOL    R518625  17.784   4.700  15.143  0.4370  0.2388  0.2945
 1651CHOL    C118626  17.703   4.932  14.851  0.3791  0.1807  0.2637
 1651CHOL    C218627  17.939   4.887  14.601 -0.0117 -0.3295 -0.0784
 1652CHOL   ROH18628   3.506   0.174  14.163  0.1020  0.1033 -0.2465
 1652CHOL    R118629   3.277   0.150  13.998 -0.0286  0.1404 -0.0709
 1652CHOL    R218630   3.058  35.383  14.070  0.0455  0.0950  0.0513
 1652CHOL    R318631   2.923   0.229  14.025 -0.0169  0.0970  0.2418
 1652CHOL    R418632   2.717   0.021  14.024  0.0620  0.0121 -0.1159
 1652CHOL    R518633   2.753   0.169  13.868  0.0956  0.2091  0.0727
 1652CHOL    C118634   2.391   0.252  13.954  0.0130 -0.0342 -0.0343
 1652CHOL    C218635   2.164   0.454  14.106 -0.0509 -0.2784 -0.0829
 1653CHOL   ROH18636  22.468  27.729  11.459 -0.0865 -0.2592  0.1310
 1653CHOL    R118637  22.417  27.545  11.250 -0.0072 -0.1633  0.0271
 1653CHOL    R218638  22.231  27.342  11.272 -0.0126 -0.1764 -0.1351
 1653CHOL    R318639  22.133  27.451  11.044  0.0700 -0.0729 -0.1220
 1653CHOL    R418640  22.048  27.171  11.035 -0.0275 -0.0420 -0.2215
 1653CHOL    R518641  22.157  27.278  10.880  0.0408 -0.0334 -0.1688
 1653CHOL    C118642  21.848  27.173  10.682  0.0413  0.1333 -0.2595
 1653CHOL    C218643  21.532  27.108  10.537 -0.0961 -0.2506  0.1501
 1654CHOL   ROH18644   8.403  18.946  15.201 -0.1440  0.0418  0.1409
 1654CHOL    R118645   8.413  18.746  15.401 -0.2877  0.0832  0.1893
 1654CHOL    R218646   8.185  18.648  15.524 -0.4083 -0.1558 -0.2168
 1654CHOL    R318647   8.285  18.408  15.443  0.0168 -0.0571  0.0002
 1654CHOL    R418648   8.081  18.341  15.643 -0.1657 -0.2514 -0.2479
 1654CHOL    R518649   8.289  18.276  15.642 -0.0756  0.0206  0.0544
 1654CHOL    C118650   8.114  17.937  15.637  0.3746 -0.2143 -0.0622
 1654CHOL    C218651   8.085  17.635  15.738 -0.1731  0.2200  0.1249
 1655CHOL   ROH18652  10.647   1.765  19.402  0.1962 -0.0173 -0.0420
 1655CHOL    R118653  10.631   1.548  19.221 -0.0822 -0.0486  0.0177
 1655CHOL    R218654  10.391   1.456  19.120 -0.2007  0.2531  0.0165
 1655CHOL    R318655  10.512   1.496  18.881 -0.1156  0.0187  0.0193
 1655CHOL    R418656  10.363   1.246  18.847 -0.2238  0.0656  0.1614
 1655CHOL    R518657  10.575   1.276  18.808 -0.1997 -0.0643  0.1968
 1655CHOL    C118658  10.460   1.162  18.463 -0.1575 -0.2636  0.2486
 1655CHOL    C218659  10.609   1.097  18.148  0.0656  0.3758  0.0576
 1656CHOL   ROH18660   5.483  35.200  14.211 -0.0123 -0.0016 -0.0481
 1656CHOL    R118661   5.481  35.252  14.489 -0.0160 -0.0301 -0.0430
 1656CHOL    R218662   5.482   0.123  14.593  0.1196 -0.0409 -0.0164
 1656CHOL    R318663   5.261   0.035  14.725  0.0529  0.0728 -0.0516
 1656CHOL    R418664   5.324   0.294  14.848  0.2087  0.0092  0.0051
 1656CHOL    R518665   5.297   0.104  14.952  0.0794  0.0051 -0.0347
 1656CHOL    C118666   5.025   0.312  15.121  0.1980  0.1452 -0.0154
 1656CHOL    C218667   4.753   0.304  15.359 -0.2400  0.0421 -0.1563
 1657CHOL   ROH18668  15.325  18.304  19.393  0.1116 -0.0602 -0.1947
 1657CHOL    R118669  15.119  18.461  19.279  0.1271 -0.0147 -0.1600
 1657CHOL    R218670  15.168  18.702  19.152  0.1529  0.0005 -0.1231
 1657CHOL    R318671  15.032  18.585  18.948  0.1289  0.0508 -0.1360
 1657CHOL    R418672  15.020  18.872  18.891  0.0917  0.0668 -0.0450
 1657CHOL    R518673  14.851  18.734  18.904  0.1075  0.0469 -0.0586
 1657CHOL    C118674  14.805  18.861  18.547  0.0336  0.1531 -0.0119
 1657CHOL    C218675  14.471  18.984  18.269 -0.4197 -0.3036  0.0393
 1658CHOL   ROH18676  17.484   8.491  14.234  0.1509  0.1240  0.0302
 1658CHOL    R118677  17.614   8.376  14.458 -0.0467  0.0319  0.0982
 1658CHOL    R218678  17.811   8.508  14.599  0.0602 -0.1567  0.1247
 1658CHOL    R318679  17.650   8.456  14.811 -0.0650  0.0783  0.0901
 1658CHOL    R418680  17.917   8.494  14.927 -0.0443 -0.2360  0.1553
 1658CHOL    R518681  17.786   8.322  14.957 -0.2687 -0.0699  0.1482
 1658CHOL    C118682  17.827   8.437  15.319 -0.2221 -0.0617  0.1406
 1658CHOL    C218683  18.129   8.514  15.663 -0.1599 -0.0044  0.0652
 1659CHOL   ROH18684  14.397  26.243  17.606  0.0087 -0.0186 -0.2397
 1659CHOL    R118685  14.520  26.390  17.814  0.0505  0.0046 -0.2811
 1659CHOL    R218686  14.444  26.365  18.079  0.1016  0.0371 -0.2642
 1659CHOL    R318687  14.708  26.313  18.117  0.1086  0.0392 -0.3081
 1659CHOL    R418688  14.632  26.483  18.344  0.1191 -0.0454 -0.2403
 1659CHOL    R518689  14.797  26.518  18.205  0.1042  0.0135 -0.2438
 1659CHOL    C118690  14.990  26.502  18.534  0.1358 -0.0913 -0.2674
 1659CHOL    C218691  15.002  26.549  18.933 -0.1372  0.2142 -0.1173
 1660CHOL   ROH18692  20.398  35.104  12.840 -0.0558  0.1454  0.1464
 1660CHOL    R118693  20.208  35.118  12.631 -0.1148  0.1171  0.1977
 1660CHOL    R218694  20.130  35.357  12.516  0.0169  0.0853  0.0389
 1660CHOL    R318695  20.204  35.234  12.286 -0.1460 -0.1454  0.1088
 1660CHOL    R418696  19.986   0.029  12.208  0.1444  0.1592 -0.0072
 1660CHOL    R518697  19.998  35.201  12.168 -0.1858  0.1190  0.1005
 1660CHOL    C118698  19.972  35.333  11.811  0.0661 -0.0147  0.0315
 1660CHOL    C218699  19.623  35.327  11.793 -0.3215 -0.1551 -0.2185
 1661CHOL   ROH18700   8.529  22.785  17.767  0.1194  0.1410  0.1538
 1661CHOL    R118701   8.271  22.734  17.873  0.1180 -0.0574  0.0591
 1661CHOL    R218702   8.231  22.614  18.118  0.1206 -0.0136  0.0825
 1661CHOL    R318703   8.081  22.836  18.166 -0.0993 -0.1320 -0.0553
 1661CHOL    R418704   8.022  22.656  18.391  0.3669  0.0984  0.2554
 1661CHOL    R518705   7.877  22.750  18.258  0.1047 -0.2600  0.2844
 1661CHOL    C118706   7.759  22.888  18.594  0.3034  0.0521  0.2276
 1661CHOL    C218707   7.546  23.093  18.879 -0.1901 -0.0054  0.1681
 1662CHOL   ROH18708   2.262  27.555  12.096 -0.0225 -0.0190 -0.0612
 1662CHOL    R118709   2.049  27.475  12.266  0.0351 -0.1390 -0.0456
 1662CHOL    R218710   1.807  27.607  12.273  0.0750 -0.0773  0.2085
 1662CHOL    R318711   1.707  27.359  12.224 -0.0174  0.0010 -0.0081
 1662CHOL    R418712   1.471  27.525  12.276  0.0495  0.0265  0.2212
 1662CHOL    R518713   1.523  27.338  12.376  0.0182 -0.0889  0.0235
 1662CHOL    C118714   1.182  27.245  12.233 -0.0521  0.1611  0.0251
 1662CHOL    C218715   0.873  27.396  11.995  0.0055 -0.1574  0.4884
 1663CHOL   ROH18716   5.040  30.138  15.496  0.0379 -0.3511  0.0907
 1663CHOL    R118717   4.772  30.049  15.473 -0.0003 -0.2369  0.0933
 1663CHOL    R218718   4.631  29.946  15.687 -0.0972 -0.0252  0.1340
 1663CHOL    R318719   4.451  30.138  15.620  0.0100  0.0178 -0.0351
 1663CHOL    R418720   4.318  29.980  15.829 -0.1044  0.2348  0.0577
 1663CHOL    R518721   4.239  30.026  15.631 -0.0478  0.1314  0.0106
 1663CHOL    C118722   3.966  30.180  15.848 -0.0081  0.4264 -0.1454
 1663CHOL    C218723   3.780  30.378  16.035 -0.2335 -0.4143 -0.0252
 1664CHOL   ROH18724  23.277  15.845  11.076 -0.0453  0.0430  0.2553
 1664CHOL    R118725  23.019  15.899  10.974 -0.0330  0.2306  0.3232
 1664CHOL    R218726  22.845  15.698  10.896  0.0050  0.3727 -0.1320
 1664CHOL    R318727  22.676  15.822  11.069 -0.0423 -0.0112  0.1043
 1664CHOL    R418728  22.501  15.675  10.885  0.0198  0.0576 -0.0166
 1664CHOL    R518729  22.490  15.888  10.933 -0.1629 -0.0095  0.2651
 1664CHOL    C118730  22.141  15.778  11.041 -0.0153 -0.4862  0.2723
 1664CHOL    C218731  22.006  15.515  10.817  0.2124  0.0993 -0.1634
 1665CHOL   ROH18732  33.416  28.463   6.504 -0.1024 -0.0063 -0.2122
 1665CHOL    R118733  33.243  28.334   6.687  0.1057 -0.2520 -0.1861
 1665CHOL    R218734  32.980  28.412   6.724  0.1909 -0.1998  0.3267
 1665CHOL    R318735  32.929  28.150   6.671  0.0010 -0.0878 -0.0577
 1665CHOL    R418736  32.674  28.257   6.767  0.0916 -0.0521  0.1589
 1665CHOL    R518737  32.778  28.082   6.844 -0.0095 -0.2438 -0.1243
 1665CHOL    C118738  32.447  27.922   6.741 -0.1432  0.1384 -0.2995
 1665CHOL    C218739  32.162  27.842   7.056 -0.1327 -0.1610  0.0989
 1666CHOL   ROH18740  10.698  13.526  14.397 -0.0600 -0.1267 -0.1822
 1666CHOL    R118741  10.588  13.438  14.642  0.0557 -0.0625 -0.1068
 1666CHOL    R218742  10.606  13.586  14.875 -0.0164  0.0958 -0.2011
 1666CHOL    R318743  10.335  13.556  14.877  0.0065 -0.1164 -0.1325
 1666CHOL    R418744  10.397  13.691  15.130 -0.0527  0.1005 -0.2326
 1666CHOL    R518745  10.282  13.507  15.105  0.0871 -0.0071 -0.0899
 1666CHOL    C118746  10.021  13.724  15.279 -0.0525 -0.0960 -0.1869
 1666CHOL    C218747  10.120  13.859  15.572  0.0185  0.1656  0.1603
 1667CHOL   ROH18748  23.966  16.471   1.960 -0.0084 -0.4351 -0.0614
 1667CHOL    R118749  24.170  16.369   2.128 -0.1091 -0.4879  0.0281
 1667CHOL    R218750  24.291  16.522   2.323  0.2377 -0.3470 -0.2943
 1667CHOL    R318751  24.216  16.317   2.486 -0.0453  0.0632  0.1039
 1667CHOL    R418752  24.448  16.437   2.620  0.3105 -0.1770 -0.2830
 1667CHOL    R518753  24.422  16.227   2.567 -0.1564 -0.2192  0.0781
 1667CHOL    C118754  24.468  16.195   2.944  0.0876  0.3072  0.0974
 1667CHOL    C218755  24.551  15.974   3.326  0.1748 -0.1216 -0.0976
 1668CHOL   ROH18756  13.708  26.310  21.304 -0.1319 -0.1999 -0.0335
 1668CHOL    R118757  13.675  26.392  21.035 -0.2824 -0.1249  0.0067
 1668CHOL    R218758  13.877  26.370  20.847 -0.2054  0.4275  0.0161
 1668CHOL    R318759  13.688  26.233  20.707  0.1121  0.0760 -0.0774
 1668CHOL    R418760  13.813  26.412  20.510 -0.1593  0.3494 -0.0027
 1668CHOL    R518761  13.600  26.395  20.554 -0.1463 -0.0732 -0.0877
 1668CHOL    C118762  13.598  26.309  20.183  0.1656 -0.0259 -0.1015
 1668CHOL    C218763  13.605  26.511  19.895 -0.0196 -0.1206  0.1433
 1669CHOL   ROH18764  24.137  16.812   7.030  0.0499 -0.1057  0.1627
 1669CHOL    R118765  23.903  16.782   6.874  0.0462 -0.2254  0.1915
 1669CHOL    R218766  23.664  16.694   6.982 -0.0125  0.0805  0.3156
 1669CHOL    R318767  23.567  16.923   6.871  0.1250 -0.0406 -0.0637
 1669CHOL    R418768  23.332  16.751   6.903  0.0090  0.1785  0.2954
 1669CHOL    R518769  23.397  16.849   6.720  0.0364 -0.1877  0.1051
 1669CHOL    C118770  23.048  17.000   6.754  0.1502  0.1219 -0.0723
 1669CHOL    C218771  22.729  16.857   6.590 -0.1891 -0.0326 -0.3591
 1670CHOL   ROH18772  10.779  14.464  14.479 -0.1298  0.4764 -0.1211
 1670CHOL    R118773  10.733  14.562  14.740 -0.0761  0.3197 -0.0522
 1670CHOL    R218774  10.763  14.405  14.965 -0.0651  0.1738 -0.1548
 1670CHOL    R318775  10.929  14.606  15.044 -0.0238  0.1007 -0.0534
 1670CHOL    R418776  10.778  14.534  15.286 -0.1385  0.1050 -0.1231
 1670CHOL    R518777  10.798  14.734  15.199 -0.0367  0.1157 -0.0766
 1670CHOL    C118778  10.942  14.798  15.546 -0.1427 -0.0039 -0.0096
 1670CHOL    C218779  11.250  15.027  15.716 -0.1032 -0.2239 -0.2201
 1671CHOL   ROH18780  20.597  16.994   7.544 -0.2203  0.0916  0.0483
 1671CHOL    R118781  20.857  16.952   7.647 -0.2260  0.1026  0.0671
 1671CHOL    R218782  21.073  16.893   7.486 -0.2457 -0.0566  0.0985
 1671CHOL    R318783  21.185  17.107   7.611 -0.1924  0.0036 -0.0516
 1671CHOL    R418784  21.403  16.913   7.586 -0.2050 -0.0111 -0.0419
 1671CHOL    R518785  21.336  17.011   7.769 -0.1312  0.0807 -0.0637
 1671CHOL    C118786  21.700  17.126   7.762 -0.1315  0.0720 -0.2647
 1671CHOL    C218787  22.019  16.908   7.679 -0.2390  0.1759  0.0235
 1672CHOL   ROH18788  17.583  17.418  14.111  0.1844  0.0624 -0.2083
 1672CHOL    R118789  17.740  17.337  14.332  0.0837  0.0681 -0.1354
 1672CHOL    R218790  17.970  17.186  14.305  0.1170  0.1068 -0.0308
 1672CHOL    R318791  18.081  17.389  14.448  0.0176  0.1091  0.0455
 1672CHOL    R418792  18.254  17.158  14.499  0.2296  0.2079 -0.1779
 1672CHOL    R518793  18.158  17.284  14.649  0.1917  0.0402 -0.0526
 1672CHOL    C118794  18.524  17.332  14.747  0.2011  0.2685 -0.1920
 1672CHOL    C218795  18.889  17.283  14.609 -0.1849  0.0175 -0.2304
 1673CHOL   ROH18796   0.045  28.503  14.380 -0.0325  0.1925 -0.0032
 1673CHOL    R118797   0.195  28.603  14.161 -0.0595  0.2069 -0.0153
 1673CHOL    R218798   0.110  28.578  13.899 -0.0485  0.1442 -0.0144
 1673CHOL    R318799   0.145  28.848  13.897 -0.1315  0.1544 -0.0500
 1673CHOL    R418800   0.223  28.760  13.628  0.1784  0.1089  0.0552
 1673CHOL    R518801   0.342  28.881  13.765 -0.0036  0.1831  0.1479
 1673CHOL    C118802   0.321  29.119  13.468  0.2327  0.0984  0.0624
 1673CHOL    C218803   0.634  29.302  13.507  0.3558  0.0135 -0.2894
 1674CHOL   ROH18804  30.052   0.541   7.106  0.0078  0.0305 -0.0691
 1674CHOL    R118805  30.029   0.670   7.357  0.0317 -0.0076 -0.0471
 1674CHOL    R218806  29.791   0.683   7.496  0.0213  0.0612 -0.0709
 1674CHOL    R318807  29.939   0.574   7.697 -0.0440 -0.0360 -0.0752
 1674CHOL    R418808  29.714   0.706   7.833 -0.0549 -0.0486 -0.0808
 1674CHOL    R518809  29.926   0.735   7.874 -0.0595 -0.0982 -0.0195
 1674CHOL    C118810  29.809   0.617   8.217 -0.1610 -0.2037 -0.0906
 1674CHOL    C218811  29.566   0.826   8.340 -0.3075  0.3980  0.1912
 1675CHOL   ROH18812  27.889   1.437   9.631 -0.0176 -0.0922 -0.0827
 1675CHOL    R118813  27.959   1.497   9.364 -0.1081  0.0270 -0.0802
 1675CHOL    R218814  28.054   1.306   9.188 -0.0696  0.1256 -0.1669
 1675CHOL    R318815  27.850   1.395   9.032 -0.1457  0.0911 -0.0878
 1675CHOL    R418816  28.027   1.251   8.848 -0.1091  0.2556 -0.1854
 1675CHOL    R518817  27.956   1.455   8.825 -0.2153  0.2309 -0.0842
 1675CHOL    C118818  27.821   1.302   8.503 -0.2033  0.2989 -0.1220
 1675CHOL    C218819  27.878   1.384   8.218  0.0503  0.1979 -0.1804
 1676CHOL   ROH18820  13.125  32.461  19.988  0.1088  0.0254  0.1460
 1676CHOL    R118821  13.030  32.380  19.734  0.1599 -0.0633  0.1547
 1676CHOL    R218822  12.915  32.556  19.555 -0.0160 -0.1689  0.1637
 1676CHOL    R318823  13.105  32.459  19.386  0.0586  0.0026  0.1477
 1676CHOL    R418824  12.920  32.606  19.213  0.1792  0.2476  0.2235
 1676CHOL    R518825  12.984  32.399  19.189  0.1546  0.2640  0.0065
 1676CHOL    C118826  13.101  32.543  18.856  0.3625  0.6507  0.2432
 1676CHOL    C218827  12.955  32.912  18.652 -0.0567  0.1525  0.1642
 1677CHOL   ROH18828  23.633  15.539   3.155  0.1534 -0.0174 -0.2125
 1677CHOL    R118829  23.609  15.613   3.427  0.1898  0.2733 -0.2865
 1677CHOL    R218830  23.571  15.428   3.629 -0.2722  0.5231 -0.1368
 1677CHOL    R318831  23.790  15.548   3.736 -0.0675  0.1742 -0.1553
 1677CHOL    R418832  23.630  15.465   3.967 -0.2153  0.4863 -0.1425
 1677CHOL    R518833  23.705  15.666   3.927  0.1255  0.3538 -0.1782
 1677CHOL    C118834  23.869  15.599   4.265  0.0097  0.1376 -0.1632
 1677CHOL    C218835  23.854  15.640   4.655  0.0756  0.2384  0.2743
 1678CHOL   ROH18836  20.089   1.979  13.501 -0.0357  0.2331 -0.1520
 1678CHOL    R118837  19.844   1.971  13.360 -0.0580  0.2425 -0.1147
 1678CHOL    R218838  19.779   2.156  13.165 -0.0280  0.1721 -0.1930
 1678CHOL    R318839  19.740   1.933  13.013 -0.1164  0.1126 -0.0831
 1678CHOL    R418840  19.526   2.117  12.933 -0.0097  0.1784 -0.2138
 1678CHOL    R518841  19.502   1.911  13.001 -0.1251  0.2266 -0.1100
 1678CHOL    C118842  19.341   1.887  12.656 -0.0819  0.1262 -0.1227
 1678CHOL    C218843  19.352   2.242  12.470 -0.0312  0.0504  0.0753
 1679CHOL   ROH18844  28.825  19.677   3.210 -0.0013 -0.1424  0.0739
 1679CHOL    R118845  28.982  19.701   2.975  0.0109 -0.2705  0.0681
 1679CHOL    R218846  28.965  19.521   2.766 -0.2017 -0.2145  0.0330
 1679CHOL    R318847  28.920  19.745   2.619  0.0348 -0.1341  0.0813
 1679CHOL    R418848  28.926  19.528   2.423  0.0313 -0.0635  0.0085
 1679CHOL    R518849  29.044  19.711   2.418  0.1467 -0.1360  0.1526
 1679CHOL    C118850  28.860  19.742   2.085  0.3894  0.1001  0.0395
 1679CHOL    C218851  29.180  19.860   1.956  0.1494  0.2323  0.0991
 1680CHOL   ROH18852  32.370   9.502   7.371 -0.1184 -0.1944 -0.1395
 1680CHOL    R118853  32.416   9.251   7.493 -0.1671 -0.1595 -0.0486
 1680CHOL    R218854  32.344   9.198   7.755 -0.0891 -0.0197  0.0030
 1680CHOL    R318855  32.214   8.988   7.642 -0.2114 -0.0185  0.1414
 1680CHOL    R418856  32.361   8.871   7.867  0.0565 -0.0272 -0.0403
 1680CHOL    R518857  32.368   8.806   7.659 -0.1831 -0.0122 -0.0523
 1680CHOL    C118858  32.248   8.484   7.826  0.0271 -0.0305  0.0644
 1680CHOL    C218859  32.131   8.173   8.072 -0.0103 -0.0777  0.0556
 1681CHOL   ROH18860  30.506   5.365   9.503  0.0567  0.0574 -0.0052
 1681CHOL    R118861  30.581   5.169   9.313 -0.0759  0.0796 -0.0807
 1681CHOL    R218862  30.452   5.141   9.070 -0.1483  0.2069 -0.0577
 1681CHOL    R318863  30.703   5.167   8.970 -0.1614  0.1254 -0.1114
 1681CHOL    R418864  30.560   5.005   8.771 -0.2565  0.1754 -0.0828
 1681CHOL    R518865  30.749   4.955   8.868 -0.2523  0.1122 -0.1243
 1681CHOL    C118866  30.859   4.951   8.503 -0.3316  0.0806 -0.1478
 1681CHOL    C218867  31.016   4.790   8.226 -0.0696 -0.1035  0.3937
 1682CHOL   ROH18868  16.216   6.744  13.583 -0.1177  0.0155 -0.0279
 1682CHOL    R118869  16.226   6.606  13.829 -0.1253  0.1730  0.0613
 1682CHOL    R218870  16.389   6.387  13.871 -0.3923 -0.0235  0.0913
 1682CHOL    R318871  16.478   6.533  14.082 -0.0355  0.0056 -0.0752
 1682CHOL    R418872  16.419   6.269  14.194 -0.3084  0.1602  0.1513
 1682CHOL    R518873  16.343   6.460  14.266  0.0027  0.3140  0.0783
 1682CHOL    C118874  16.520   6.337  14.581  0.0747  0.2945  0.0299
 1682CHOL    C218875  16.667   5.999  14.740  0.0941 -0.3697  0.1922
 1683CHOL   ROH18876  19.021  16.022  16.834  0.2411  0.0880 -0.1232
 1683CHOL    R118877  18.977  15.858  16.607  0.2394  0.1031 -0.1341
 1683CHOL    R218878  18.738  15.857  16.468  0.1319 -0.1131  0.0502
 1683CHOL    R318879  18.898  15.910  16.255 -0.0883  0.1169 -0.0597
 1683CHOL    R418880  18.633  15.860  16.139 -0.0561 -0.4707  0.1040
 1683CHOL    R518881  18.820  15.762  16.084  0.1163 -0.1198  0.0488
 1683CHOL    C118882  18.722  15.912  15.747 -0.3721 -0.4632  0.0320
 1683CHOL    C218883  18.494  16.017  15.434  0.3561  0.1054  0.3993
 1684CHOL   ROH18884  20.436  32.274  13.022 -0.0812  0.0108 -0.0545
 1684CHOL    R118885  20.231  32.352  12.842 -0.0107 -0.0294 -0.1525
 1684CHOL    R218886  20.158  32.197  12.625 -0.0772 -0.1857 -0.0199
 1684CHOL    R318887  19.910  32.219  12.734 -0.0786  0.0685 -0.0709
 1684CHOL    R418888  19.863  32.119  12.462 -0.0954 -0.2781  0.0570
 1684CHOL    R518889  19.772  32.295  12.554 -0.0286 -0.1144 -0.1873
 1684CHOL    C118890  19.458  32.094  12.470 -0.1068 -0.0940  0.0540
 1684CHOL    C218891  19.282  31.980  12.150  0.1837  0.4424  0.2607
 1685CHOL   ROH18892  22.732  11.596   5.723 -0.0642  0.0274  0.0693
 1685CHOL    R118893  22.998  11.572   5.817 -0.0256  0.1430 -0.0082
 1685CHOL    R218894  23.182  11.777   5.796 -0.1391  0.2470 -0.0031
 1685CHOL    R318895  23.206  11.740   6.064 -0.0489  0.1881 -0.0195
 1685CHOL    R418896  23.474  11.821   5.976 -0.0128 -0.0546 -0.1316
 1685CHOL    R518897  23.424  11.643   6.091 -0.1276 -0.0222 -0.1331
 1685CHOL    C118898  23.667  11.812   6.332  0.1458 -0.2858 -0.2219
 1685CHOL    C218899  24.011  11.646   6.286  0.1593  0.2900 -0.0565
 1686CHOL   ROH18900   1.630  27.296  16.511 -0.0016 -0.2511 -0.1395
 1686CHOL    R118901   1.842  27.276  16.324 -0.0933 -0.1696 -0.2533
 1686CHOL    R218902   1.814  27.352  16.059 -0.1560  0.1667 -0.1540
 1686CHOL    R318903   2.032  27.505  16.115 -0.0299 -0.0435 -0.0590
 1686CHOL    R418904   2.032  27.479  15.823 -0.2244  0.3838 -0.1009
 1686CHOL    R518905   2.197  27.434  15.957 -0.1686  0.0870 -0.2663
 1686CHOL    C118906   2.362  27.698  15.737 -0.1460  0.3132  0.0193
 1686CHOL    C218907   2.563  27.819  15.420  0.0388  0.2255  0.1122
 1687CHOL   ROH18908   9.317  25.463  17.912 -0.0582  0.1271 -0.0265
 1687CHOL    R118909   9.207  25.366  18.153 -0.0554  0.1331 -0.0227
 1687CHOL    R218910   9.363  25.264  18.358 -0.0607  0.0370 -0.0670
 1687CHOL    R318911   9.231  25.448  18.507  0.0406  0.0669 -0.0133
 1687CHOL    R418912   9.279  25.224  18.690 -0.2290 -0.0851 -0.1236
 1687CHOL    R518913   9.087  25.318  18.647 -0.1308  0.1095 -0.1474
 1687CHOL    C118914   9.105  25.374  19.024 -0.2320 -0.1277 -0.1062
 1687CHOL    C218915   9.115  25.449  19.323 -0.0547 -0.3702 -0.2310
 1688CHOL   ROH18916  24.276   8.628   5.083 -0.1221  0.0901 -0.1270
 1688CHOL    R118917  24.461   8.767   5.246 -0.0685  0.0970 -0.1933
 1688CHOL    R218918  24.388   8.984   5.401 -0.0494  0.0138 -0.0669
 1688CHOL    R318919  24.499   8.838   5.601  0.1324 -0.0201 -0.1910
 1688CHOL    R418920  24.543   9.117   5.680 -0.2338 -0.0305  0.0567
 1688CHOL    R518921  24.695   8.962   5.664 -0.0299  0.1800 -0.0746
 1688CHOL    C118922  24.736   9.057   6.031 -0.1706 -0.0876  0.0123
 1688CHOL    C218923  24.909   9.096   6.239 -0.0560  0.0354  0.1091
 1689CHOL   ROH18924  21.655  14.736  13.443  0.0591  0.0582 -0.0803
 1689CHOL    R118925  21.389  14.795  13.365 -0.0017  0.0132  0.0916
 1689CHOL    R218926  21.328  14.921  13.127 -0.1693  0.1154  0.1879
 1689CHOL    R318927  21.167  14.705  13.091 -0.1194  0.0825  0.1632
 1689CHOL    R418928  21.090  14.891  12.879  0.0677 -0.0470 -0.0221
 1689CHOL    R518929  20.957  14.797  13.024 -0.0635  0.0291 -0.0914
 1689CHOL    C118930  20.800  14.671  12.700  0.2526 -0.1723 -0.1678
 1689CHOL    C218931  20.658  14.317  12.647  0.0816 -0.4745 -0.0739
 1690CHOL   ROH18932  33.529  22.107   5.433  0.0516  0.0370  0.1591
 1690CHOL    R118933  33.597  22.272   5.214 -0.0996 -0.0996  0.0072
 1690CHOL    R218934  33.850  22.377   5.181 -0.2326  0.2244 -0.0041
 1690CHOL    R318935  33.832  22.260   4.936  0.0284 -0.0679  0.1124
 1690CHOL    R418936  34.067  22.434   4.917 -0.3017  0.3716 -0.0295
 1690CHOL    R518937  33.895  22.432   4.782 -0.2823 -0.0992 -0.0560
 1690CHOL    C118938  34.175  22.357   4.534 -0.0972  0.1834  0.0651
 1690CHOL    C218939  34.604  22.296   4.437  0.1281 -0.0824 -0.0795
 1691CHOL   ROH18940  19.725  13.466  16.144 -0.1269 -0.1981  0.0985
 1691CHOL    R118941  19.583  13.277  15.990 -0.0093 -0.1321 -0.0921
 1691CHOL    R218942  19.328  13.323  15.895 -0.0801 -0.2351  0.0441
 1691CHOL    R318943  19.440  13.262  15.655 -0.0982  0.1578 -0.0683
 1691CHOL    R418944  19.151  13.259  15.605 -0.1320 -0.4452  0.1214
 1691CHOL    R518945  19.292  13.099  15.560  0.1942 -0.1122 -0.0689
 1691CHOL    C118946  19.154  13.164  15.211 -0.1799 -0.1987  0.0610
 1691CHOL    C218947  18.788  13.251  15.047 -0.1039  0.0063  0.1539
 1692CHOL   ROH18948  11.264  28.931  21.081 -0.2881  0.0801  0.0433
 1692CHOL    R118949  11.290  28.955  20.801 -0.4422  0.1095  0.0305
 1692CHOL    R218950  11.470  28.804  20.655 -0.1855  0.4587 -0.0225
 1692CHOL    R318951  11.248  28.738  20.512 -0.1095 -0.0064  0.0675
 1692CHOL    R418952  11.470  28.714  20.321 -0.1345  0.4871 -0.0301
 1692CHOL    R518953  11.288  28.831  20.294 -0.4020  0.1001  0.0580
 1692CHOL    C118954  11.262  28.599  19.993 -0.0335  0.0666  0.0497
 1692CHOL    C218955  11.165  28.650  19.630 -0.3765  0.0579  0.2016
 1693CHOL   ROH18956  33.835   4.935  10.372  0.1238 -0.0141  0.1884
 1693CHOL    R118957  33.887   4.775  10.144  0.0542 -0.1060  0.2371
 1693CHOL    R218958  34.019   4.871   9.921 -0.2760 -0.1074  0.0364
 1693CHOL    R318959  34.181   4.656   9.965 -0.0058  0.0876  0.0079
 1693CHOL    R418960  34.244   4.742   9.692 -0.2464  0.0915 -0.0470
 1693CHOL    R518961  34.185   4.542   9.755  0.0164  0.0391  0.0350
 1693CHOL    C118962  34.525   4.466   9.599  0.0259  0.3905 -0.1220
 1693CHOL    C218963  34.709   4.502   9.243 -0.2358 -0.2036 -0.0091
 1694CHOL   ROH18964  27.833   8.136   4.281 -0.1409 -0.1182 -0.1396
 1694CHOL    R118965  27.653   8.256   4.463 -0.0443 -0.1367 -0.0301
 1694CHOL    R218966  27.406   8.352   4.386 -0.0033  0.0562  0.0733
 1694CHOL    R318967  27.316   8.189   4.584 -0.0629 -0.0265 -0.0221
 1694CHOL    R418968  27.085   8.355   4.513  0.0368  0.1984  0.1726
 1694CHOL    R518969  27.169   8.327   4.713  0.0778 -0.0136  0.1267
 1694CHOL    C118970  26.813   8.203   4.773  0.0044  0.2031  0.1409
 1694CHOL    C218971  26.588   7.902   5.026 -0.4732 -0.0229 -0.0664
 1695CHOL   ROH18972  35.107  22.508   7.331 -0.0871  0.0528  0.2553
 1695CHOL    R118973  35.298  22.606   7.146 -0.0786  0.0095  0.2408
 1695CHOL    R218974  35.226  22.718   6.905 -0.0717  0.0301  0.2482
 1695CHOL    R318975  35.377  22.927   6.993 -0.0138 -0.0077  0.2383
 1695CHOL    R418976  35.340  22.978   6.707 -0.2140  0.1223  0.2863
 1695CHOL    R518977   0.144  22.970   6.814 -0.1392  0.0767  0.1511
 1695CHOL    C118978   0.162  23.324   6.674 -0.2430  0.1411  0.2993
 1695CHOL    C218979   0.399  23.514   6.321 -0.0880 -0.3535 -0.1098
 1696CHOL   ROH18980  19.032  10.777  12.340 -0.1618  0.0811  0.2035
 1696CHOL    R118981  19.198  10.969  12.465 -0.0805  0.0585  0.1315
 1696CHOL    R218982  19.378  10.904  12.664  0.0738  0.0167 -0.0218
 1696CHOL    R318983  19.555  11.028  12.500 -0.0572  0.0747 -0.1213
 1696CHOL    R418984  19.705  10.978  12.747  0.1099  0.0818 -0.2180
 1696CHOL    R518985  19.682  11.170  12.646  0.0019  0.0884 -0.1843
 1696CHOL    C118986  20.062  11.138  12.641  0.0077  0.1739 -0.4255
 1696CHOL    C218987  20.247  11.144  12.932  0.1142  0.1838 -0.0900
 1697CHOL   ROH18988  12.441   8.729  16.426  0.0919 -0.1062 -0.0424
 1697CHOL    R118989  12.608   8.886  16.260  0.0487  0.0090  0.0231
 1697CHOL    R218990  12.849   8.990  16.347  0.1091 -0.1209  0.0080
 1697CHOL    R318991  12.947   8.862  16.128 -0.0154  0.0572 -0.1533
 1697CHOL    R418992  13.169   9.028  16.223  0.2311 -0.4618  0.2092
 1697CHOL    R518993  13.086   9.025  16.021  0.3073 -0.0024  0.1642
 1697CHOL    C118994  13.447   8.931  15.945  0.1853 -0.4934  0.1746
 1697CHOL    C218995  13.841   9.037  16.114 -0.0958 -0.0638 -0.0644
 1698CHOL   ROH18996  15.922   4.342  16.505 -0.2634 -0.1731  0.0395
 1698CHOL    R118997  15.828   4.246  16.256 -0.1587 -0.1691 -0.0017
 1698CHOL    R218998  15.636   4.380  16.109 -0.1750 -0.2228 -0.0289
 1698CHOL    R318999  15.823   4.365  15.912 -0.1172 -0.1120  0.0173
 1698CHOL    R419000  15.578   4.447  15.775 -0.0754 -0.0271 -0.0078
 1698CHOL    R519001  15.705   4.277  15.723 -0.0637 -0.0001 -0.0690
 1698CHOL    C119002  15.719   4.472  15.396  0.0367  0.1907  0.0478
 1698CHOL    C219003  15.680   4.595  15.022 -0.0317  0.2170  0.0996
 1699CHOL   ROH19004  25.378  24.707   7.373  0.0217 -0.1468 -0.0345
 1699CHOL    R119005  25.148  24.833   7.266  0.0202 -0.1272 -0.0078
 1699CHOL    R219006  25.142  25.101   7.201  0.0498 -0.1379 -0.0489
 1699CHOL    R319007  25.060  25.007   6.959 -0.0152 -0.1622 -0.0179
 1699CHOL    R419008  24.990  25.292   6.956  0.3555 -0.0690 -0.1861
 1699CHOL    R519009  24.856  25.125   6.915  0.1463  0.0818 -0.1276
 1699CHOL    C119010  24.826  25.315   6.586  0.4724 -0.0516 -0.2368
 1699CHOL    C219011  24.926  25.265   6.188 -0.0415 -0.0024  0.1132
 1700CHOL   ROH19012  14.177  21.906  18.045 -0.0661  0.1695  0.1118
 1700CHOL    R119013  14.231  21.668  18.188 -0.2705  0.0713  0.0275
 1700CHOL    R219014  14.430  21.651  18.379 -0.0471 -0.2635 -0.2289
 1700CHOL    R319015  14.227  21.561  18.536  0.0049  0.0611  0.0288
 1700CHOL    R419016  14.470  21.508  18.691  0.1181 -0.2823 -0.2577
 1700CHOL    R519017  14.314  21.364  18.640 -0.1630 -0.0580 -0.0538
 1700CHOL    C119018  14.302  21.341  19.020  0.2633  0.0111 -0.0329
 1700CHOL    C219019  14.356  21.135  19.235  0.1728 -0.2901  0.0755
 1701CHOL   ROH19020   3.855   9.635  14.092 -0.0164 -0.0307  0.0872
 1701CHOL    R119021   4.010   9.434  13.967  0.0849  0.0296  0.1147
 1701CHOL    R219022   4.023   9.405  13.692  0.0295 -0.0566  0.1198
 1701CHOL    R319023   4.291   9.422  13.736  0.0303  0.1396  0.0427
 1701CHOL    R419024   4.266   9.297  13.472  0.0376 -0.3203  0.2566
 1701CHOL    R519025   4.379   9.220  13.642  0.1048  0.0184  0.3674
 1701CHOL    C119026   4.659   9.249  13.384  0.0431 -0.2895  0.2638
 1701CHOL    C219027   4.977   8.970  13.341  0.2083 -0.0822 -0.1028
 1702CHOL   ROH19028  21.176  20.103   8.117 -0.0702 -0.1434  0.2268
 1702CHOL    R119029  21.435  20.027   8.202  0.0299  0.0591  0.1072
 1702CHOL    R219030  21.636  20.210   8.248 -0.1129  0.2254  0.0935
 1702CHOL    R319031  21.648  20.088   8.491  0.0804  0.1552  0.0492
 1702CHOL    R419032  21.916  20.199   8.450  0.0214  0.2342 -0.0914
 1702CHOL    R519033  21.867  19.992   8.498  0.1083  0.2104 -0.1217
 1702CHOL    C119034  22.090  20.078   8.796  0.2808  0.1742 -0.2406
 1702CHOL    C219035  22.324  20.335   9.014 -0.2235 -0.4642 -0.0462
 1703CHOL   ROH19036  11.338  10.518  15.048 -0.3311 -0.1442 -0.0248
 1703CHOL    R119037  11.344  10.695  15.269 -0.2185 -0.0586 -0.0958
 1703CHOL    R219038  11.128  10.729  15.438 -0.1383  0.0194 -0.0089
 1703CHOL    R319039  11.311  10.668  15.630 -0.0526  0.0839 -0.0693
 1703CHOL    R419040  11.122  10.850  15.762  0.0066  0.1299 -0.0472
 1703CHOL    R519041  11.339  10.872  15.752  0.0029  0.1256 -0.1515
 1703CHOL    C119042  11.290  10.864  16.130  0.1712  0.2549 -0.1267
 1703CHOL    C219043  11.432  11.044  16.392 -0.3287 -0.0282  0.1274
 1704CHOL   ROH19044   0.975  23.001   4.503 -0.0613  0.0727  0.1245
 1704CHOL    R119045   0.877  22.987   4.768 -0.1346 -0.1192  0.0874
 1704CHOL    R219046   0.752  23.199   4.893 -0.0047 -0.1487  0.2701
 1704CHOL    R319047   0.553  23.018   4.933 -0.1508 -0.0423  0.0414
 1704CHOL    R419048   0.447  23.269   5.041  0.0562 -0.0927  0.3692
 1704CHOL    R519049   0.460  23.077   5.145 -0.0946 -0.2396  0.1232
 1704CHOL    C119050   0.084  23.139   5.165 -0.0455  0.0401  0.2123
 1704CHOL    C219051  35.172  23.297   5.404  0.3216 -0.2468  0.2067
 1705CHOL   ROH19052  14.216  19.898  16.656 -0.1193 -0.0601  0.0600
 1705CHOL    R119053  14.172  19.706  16.860 -0.0175 -0.1183  0.0273
 1705CHOL    R219054  14.378  19.578  16.991  0.0513 -0.0091  0.0273
 1705CHOL    R319055  14.252  19.672  17.213 -0.0278 -0.1204  0.0296
 1705CHOL    R419056  14.441  19.471  17.314  0.2578  0.1501  0.0404
 1705CHOL    R519057  14.227  19.479  17.353  0.2537 -0.1221  0.0816
 1705CHOL    C119058  14.359  19.497  17.710  0.3036  0.1380  0.0505
 1705CHOL    C219059  14.689  19.395  17.909 -0.3423  0.0321 -0.1489
 1706CHOL   ROH19060   1.010  23.797  10.693 -0.0644 -0.1566 -0.1616
 1706CHOL    R119061   1.281  23.878  10.709 -0.0890 -0.1001 -0.0226
 1706CHOL    R219062   1.411  24.006  10.501  0.0296 -0.1933 -0.0070
 1706CHOL    R319063   1.465  24.192  10.692 -0.1334 -0.0767 -0.0733
 1706CHOL    R419064   1.651  24.252  10.474 -0.1009 -0.0694 -0.0429
 1706CHOL    R519065   1.703  24.219  10.683 -0.1454  0.0534 -0.0120
 1706CHOL    C119066   1.842  24.571  10.637 -0.3299  0.1122 -0.1263
 1706CHOL    C219067   2.093  24.789  10.617  0.0317 -0.0712 -0.1065
 1707CHOL   ROH19068  34.834   3.840  11.847  0.0109 -0.1464  0.0669
 1707CHOL    R119069  34.867   3.628  11.662 -0.0618 -0.0271 -0.0845
 1707CHOL    R219070  34.798   3.651  11.396  0.0937  0.2397 -0.1043
 1707CHOL    R319071  35.055   3.572  11.355  0.0533  0.0687 -0.0321
 1707CHOL    R419072  34.908   3.466  11.125  0.0687  0.2675 -0.1336
 1707CHOL    R519073  35.036   3.353  11.261 -0.0679  0.1202 -0.1271
 1707CHOL    C119074  35.214   3.284  10.930  0.0156  0.1232 -0.0827
 1707CHOL    C219075  35.124   3.388  10.544  0.0668 -0.0472  0.0503
 1708CHOL   ROH19076  15.045  13.703  15.279 -0.1134 -0.0882  0.0374
 1708CHOL    R119077  15.133  13.868  15.490 -0.0793 -0.0218 -0.0285
 1708CHOL    R219078  14.992  13.898  15.725 -0.0207  0.0192  0.0025
 1708CHOL    R319079  15.228  13.825  15.839  0.0200  0.0800 -0.0422
 1708CHOL    R419080  15.061  13.913  16.064  0.0024 -0.0647  0.0013
 1708CHOL    R519081  15.261  13.984  16.015 -0.0318  0.0354  0.0080
 1708CHOL    C119082  15.323  13.852  16.367  0.0538 -0.0567 -0.0410
 1708CHOL    C219083  15.369  13.621  16.650  0.0882  0.1075  0.0399
 1709CHOL   ROH19084   0.647  20.975   7.605  0.0172  0.0172 -0.1249
 1709CHOL    R119085   0.840  20.980   7.397  0.0951  0.0351 -0.0524
 1709CHOL    R219086   0.792  21.099   7.153  0.1899  0.0630 -0.0569
 1709CHOL    R319087   1.021  21.234   7.210  0.1723  0.0512  0.0432
 1709CHOL    R419088   0.972  21.287   6.925  0.1809  0.2312  0.0745
 1709CHOL    R519089   1.155  21.208   7.013  0.1851  0.1938  0.0328
 1709CHOL    C119090   1.291  21.524   6.847  0.1590  0.3182  0.2450
 1709CHOL    C219091   1.269  21.544   6.468  0.1147 -0.0122 -0.3368
 1710CHOL   ROH19092   6.277   8.928  12.001 -0.0362 -0.0481  0.1028
 1710CHOL    R119093   6.145   9.033  12.228  0.0039 -0.1972  0.1961
 1710CHOL    R219094   5.909   9.175  12.210  0.2093  0.1619  0.2908
 1710CHOL    R319095   5.821   8.990  12.388 -0.1340  0.0160 -0.0227
 1710CHOL    R419096   5.644   9.221  12.427  0.2891  0.2849  0.3631
 1710CHOL    R519097   5.759   9.119  12.581  0.1018 -0.1923  0.1953
 1710CHOL    C119098   5.407   9.074  12.721  0.0133  0.2195  0.1110
 1710CHOL    C219099   5.390   8.930  13.097  0.1852 -0.0501  0.0767
 1711CHOL   ROH19100   7.456  10.096  13.735  0.2348 -0.0565  0.0102
 1711CHOL    R119101   7.424  10.162  14.008  0.2337 -0.1007  0.0210
 1711CHOL    R219102   7.292  10.390  14.091  0.3917 -0.0192  0.0527
 1711CHOL    R319103   7.146  10.213  14.237  0.2277  0.0547 -0.0200
 1711CHOL    R419104   7.062  10.476  14.334  0.2879  0.0976 -0.0864
 1711CHOL    R519105   7.135  10.311  14.456  0.1438  0.0729 -0.0329
 1711CHOL    C119106   6.791  10.360  14.613  0.0735  0.2349 -0.2358
 1711CHOL    C219107   6.476  10.146  14.769 -0.3708 -0.1449 -0.2376
 1712CHOL   ROH19108  30.168  18.681   0.282 -0.1756 -0.1858  0.0473
 1712CHOL    R119109  30.154  18.828   0.524 -0.2174 -0.1209  0.0058
 1712CHOL    R219110  29.962  18.780   0.717 -0.0779 -0.2620  0.1109
 1712CHOL    R319111  30.178  18.754   0.880  0.0267  0.0193  0.0195
 1712CHOL    R419112  29.954  18.808   1.061  0.0257 -0.2964  0.1163
 1712CHOL    R519113  30.143  18.917   1.052 -0.1238 -0.0393  0.0448
 1712CHOL    C119114  30.152  18.800   1.415  0.1845 -0.0528  0.0336
 1712CHOL    C219115  29.801  18.730   1.646  0.0452  0.2922 -0.0526
 1713CHOL   ROH19116   5.038   4.978  16.665  0.3934  0.1589  0.0614
 1713CHOL    R119117   5.132   4.863  16.424  0.0939 -0.0203  0.0282
 1713CHOL    R219118   5.381   4.921  16.318 -0.0554 -0.0609 -0.3512
 1713CHOL    R319119   5.411   4.651  16.324 -0.0007 -0.0517 -0.1713
 1713CHOL    R419120   5.605   4.744  16.124 -0.1760 -0.1650 -0.3965
 1713CHOL    R519121   5.452   4.591  16.096 -0.1713 -0.2165 -0.1598
 1713CHOL    C119122   5.765   4.387  16.017 -0.1951 -0.2170 -0.2544
 1713CHOL    C219123   5.709   4.419  15.659 -0.1827 -0.3807  0.1040
 1714CHOL   ROH19124   1.741   9.240   7.032 -0.0210  0.0878 -0.1706
 1714CHOL    R119125   1.643   9.377   7.260  0.0276 -0.0207 -0.0841
 1714CHOL    R219126   1.561   9.640   7.251  0.1060  0.0095  0.0783
 1714CHOL    R319127   1.332   9.539   7.358  0.0791  0.0133  0.0246
 1714CHOL    R419128   1.396   9.771   7.525  0.0344  0.0228  0.0292
 1714CHOL    R519129   1.359   9.567   7.594  0.0182  0.0258  0.0304
 1714CHOL    C119130   1.085   9.751   7.785 -0.0325  0.0340 -0.0498
 1714CHOL    C219131   1.140   9.893   8.157  0.1959  0.2566 -0.0046
 1715CHOL   ROH19132  17.491   4.891  12.808  0.0397 -0.1631  0.0487
 1715CHOL    R119133  17.512   4.951  13.084  0.0980 -0.1327  0.0382
 1715CHOL    R219134  17.295   4.943  13.255  0.0641  0.2242  0.0188
 1715CHOL    R319135  17.454   4.776  13.397 -0.1958  0.0180  0.0692
 1715CHOL    R419136  17.274   4.893  13.596  0.0450  0.4250  0.0473
 1715CHOL    R519137  17.491   4.890  13.604  0.0423  0.0546  0.0059
 1715CHOL    C119138  17.410   4.707  13.929 -0.2099  0.3483  0.1111
 1715CHOL    C219139  17.239   4.353  14.019  0.1349  0.1609  0.4104
 1716CHOL   ROH19140  28.976  15.888   0.444  0.1752  0.0400  0.1636
 1716CHOL    R119141  28.940  16.017   0.693  0.0952  0.0170  0.1645
 1716CHOL    R219142  28.729  15.960   0.862  0.0283  0.0168  0.0820
 1716CHOL    R319143  28.928  15.919   1.044 -0.0406 -0.0192  0.1499
 1716CHOL    R419144  28.691  15.979   1.205 -0.0414  0.2117  0.0639
 1716CHOL    R519145  28.884  16.079   1.217  0.0193  0.0946  0.0601
 1716CHOL    C119146  28.855  15.952   1.575 -0.1470  0.2914  0.1171
 1716CHOL    C219147  29.027  15.684   1.827 -0.2280 -0.0901 -0.0644
 1717CHOL   ROH19148  15.245   2.658  13.025  0.1134  0.1227  0.0860
 1717CHOL    R119149  15.146   2.512  13.246  0.0377  0.0775  0.0226
 1717CHOL    R219150  15.311   2.369  13.415 -0.0301 -0.0334 -0.0047
 1717CHOL    R319151  15.189   2.518  13.608 -0.0081 -0.0609  0.0304
 1717CHOL    R419152  15.328   2.305  13.755  0.0745 -0.0350 -0.0103
 1717CHOL    R519153  15.117   2.357  13.770  0.0683 -0.0778  0.0477
 1717CHOL    C119154  15.224   2.408  14.133  0.1560 -0.0616  0.0196
 1717CHOL    C219155  15.270   2.251  14.419 -0.1806 -0.1518  0.0212
 1718CHOL   ROH19156   5.325  12.245  10.489 -0.1656  0.1690 -0.2057
 1718CHOL    R119157   5.101  12.156  10.638 -0.0802  0.0655 -0.1384
 1718CHOL    R219158   5.118  11.954  10.826  0.0646  0.0572 -0.1601
 1718CHOL    R319159   5.006  12.141  10.989  0.0422 -0.0015 -0.1079
 1718CHOL    R419160   4.916  11.883  11.097 -0.0422 -0.0382 -0.2640
 1718CHOL    R519161   4.790  12.052  11.041  0.0080  0.0125 -0.2258
 1718CHOL    C119162   4.693  12.017  11.408 -0.1253 -0.1489 -0.2756
 1718CHOL    C219163   4.539  11.689  11.627  0.0036 -0.1333  0.0272
 1719CHOL   ROH19164   9.576  14.481  17.582  0.1903 -0.1255  0.0337
 1719CHOL    R119165   9.415  14.519  17.353  0.1857 -0.0908  0.0429
 1719CHOL    R219166   9.436  14.743  17.192  0.2767 -0.1309  0.0005
 1719CHOL    R319167   9.469  14.559  16.995  0.1681 -0.1827  0.0299
 1719CHOL    R419168   9.284  14.756  16.882  0.1149 -0.2042  0.0757
 1719CHOL    R519169   9.253  14.541  16.893  0.1136 -0.2011  0.1472
 1719CHOL    C119170   9.227  14.591  16.516 -0.0811 -0.2956  0.1470
 1719CHOL    C219171   9.399  14.653  16.231  0.1106  0.1425  0.1161
 1720CHOL   ROH19172  22.020  18.828   8.469 -0.0263  0.0424  0.0589
 1720CHOL    R119173  21.982  18.958   8.718 -0.2102  0.0063  0.0507
 1720CHOL    R219174  21.809  18.863   8.911 -0.0951 -0.2132  0.0470
 1720CHOL    R319175  22.029  18.876   9.069 -0.1182  0.0853  0.0568
 1720CHOL    R419176  21.813  18.794   9.249  0.0418 -0.5219 -0.0154
 1720CHOL    R519177  21.948  18.963   9.277 -0.2970 -0.2703  0.1398
 1720CHOL    C119178  22.022  18.766   9.595  0.1000 -0.4214 -0.0427
 1720CHOL    C219179  22.143  19.018   9.907 -0.1995  0.1054  0.3370
 1721CHOL   ROH19180  19.197  30.923  13.971 -0.0437 -0.3493  0.1901
 1721CHOL    R119181  18.994  30.733  13.916 -0.1324 -0.2184  0.0628
 1721CHOL    R219182  18.752  30.803  13.802 -0.0933 -0.0314  0.0936
 1721CHOL    R319183  18.818  30.611  13.622 -0.1770  0.0479 -0.0224
 1721CHOL    R419184  18.535  30.563  13.681 -0.1657  0.0597  0.0416
 1721CHOL    R519185  18.697  30.417  13.694 -0.1827  0.0294 -0.0805
 1721CHOL    C119186  18.471  30.243  13.441 -0.2861  0.1871 -0.0978
 1721CHOL    C219187  18.361  30.046  13.203  0.0454  0.1107  0.0559
 1722CHOL   ROH19188   4.944  22.341  18.302  0.2276 -0.2794  0.2265
 1722CHOL    R119189   5.113  22.179  18.142  0.1200 -0.2684  0.1007
 1722CHOL    R219190   5.124  22.201  17.867  0.0226 -0.1655  0.1047
 1722CHOL    R319191   5.390  22.233  17.912  0.0492 -0.2616  0.0171
 1722CHOL    R419192   5.369  22.182  17.624 -0.0812 -0.0711 -0.0078
 1722CHOL    R519193   5.494  22.075  17.766 -0.0501 -0.1944 -0.1280
 1722CHOL    C119194   5.761  22.201  17.524 -0.1167 -0.1061 -0.1560
 1722CHOL    C219195   5.935  22.595  17.370  0.0084 -0.2942  0.2825
 1723CHOL   ROH19196   7.928  29.678  18.361  0.0944 -0.0063  0.1745
 1723CHOL    R119197   8.127  29.878  18.383  0.1260 -0.0629  0.4246
 1723CHOL    R219198   8.107  30.122  18.254  0.6130 -0.2637 -0.0538
 1723CHOL    R319199   8.145  30.221  18.505 -0.0860  0.1379 -0.0949
 1723CHOL    R419200   8.249  30.428  18.326  0.6042 -0.2396 -0.1411
 1723CHOL    R519201   8.355  30.335  18.493  0.0364 -0.0322  0.3506
 1723CHOL    C119202   8.367  30.700  18.603 -0.0568  0.1515 -0.2309
 1723CHOL    C219203   8.433  31.108  18.545  0.0943 -0.0694  0.2233
 1724CHOL   ROH19204  25.918   8.698   3.894  0.0898 -0.1699 -0.0881
 1724CHOL    R119205  25.971   8.802   4.152  0.0175 -0.0330 -0.1276
 1724CHOL    R219206  25.938   8.652   4.382 -0.0066  0.0753 -0.0597
 1724CHOL    R319207  26.197   8.725   4.427 -0.0280  0.1401 -0.0404
 1724CHOL    R419208  26.084   8.684   4.695 -0.0097  0.0114 -0.0519
 1724CHOL    R519209  26.187   8.862   4.623 -0.0664  0.0688  0.0080
 1724CHOL    C119210  26.411   8.770   4.918 -0.0315  0.0350 -0.0293
 1724CHOL    C219211  26.358   8.682   5.202 -0.1492 -0.0351 -0.0654
 1725CHOL   ROH19212  18.750  33.063  10.297 -0.1667 -0.0003  0.1918
 1725CHOL    R119213  18.869  33.094  10.552 -0.0439 -0.1152  0.1493
 1725CHOL    R219214  19.061  32.921  10.649  0.1941 -0.0104 -0.1287
 1725CHOL    R319215  19.204  33.150  10.682 -0.0203  0.1077 -0.0048
 1725CHOL    R419216  19.355  32.946  10.829  0.1783  0.1663 -0.1260
 1725CHOL    R519217  19.286  33.137  10.907 -0.0004  0.0572 -0.0151
 1725CHOL    C119218  19.661  33.175  10.965 -0.0324  0.3791 -0.0085
 1725CHOL    C219219  19.871  33.099  11.139  0.0270  0.2069 -0.1030
 1726CHOL   ROH19220  21.789  15.483   4.866 -0.2396  0.0179  0.1222
 1726CHOL    R119221  22.042  15.435   4.984 -0.2041 -0.0155  0.0332
 1726CHOL    R219222  22.086  15.462   5.255 -0.0974  0.0081  0.0137
 1726CHOL    R319223  22.179  15.207   5.232 -0.1542 -0.0120  0.0088
 1726CHOL    R419224  22.276  15.298   5.493  0.0313  0.0295 -0.0743
 1726CHOL    R519225  22.396  15.213   5.332 -0.0875 -0.0252 -0.1347
 1726CHOL    C119226  22.474  14.964   5.610  0.0538  0.0232 -0.1301
 1726CHOL    C219227  22.746  14.634   5.626 -0.1940  0.1966 -0.0636
 1727CHOL   ROH19228  14.664  28.812  20.196  0.1704  0.1384  0.1374
 1727CHOL    R119229  14.595  28.858  19.925  0.2355 -0.1423  0.0723
 1727CHOL    R219230  14.505  29.102  19.834 -0.0581 -0.3261 -0.1378
 1727CHOL    R319231  14.708  29.074  19.656  0.0666 -0.1693 -0.0216
 1727CHOL    R419232  14.493  29.202  19.503 -0.0219 -0.5201 -0.1984
 1727CHOL    R519233  14.599  29.020  19.449  0.2342 -0.4190 -0.0473
 1727CHOL    C119234  14.677  29.234  19.144  0.1161 -0.4865 -0.1253
 1727CHOL    C219235  14.877  29.294  18.787 -0.0998  0.1751  0.2650
 1728CHOL   ROH19236  24.684  34.339   7.207  0.2207 -0.0506 -0.0662
 1728CHOL    R119237  24.717  34.345   7.488  0.0256 -0.1904 -0.0397
 1728CHOL    R219238  24.533  34.461   7.658  0.0065 -0.0964 -0.1267
 1728CHOL    R319239  24.537  34.218   7.778 -0.2926 -0.1483 -0.2156
 1728CHOL    R419240  24.369  34.384   7.952  0.2733  0.1305  0.0843
 1728CHOL    R519241  24.544  34.268   8.013  0.1415 -0.2312 -0.2040
 1728CHOL    C119242  24.278  34.110   8.237  0.1484  0.2135  0.1236
 1728CHOL    C219243  24.200  34.185   8.579 -0.0780 -0.0964  0.1615
 1729CHOL   ROH19244   6.280  30.952  16.612 -0.0066  0.0055  0.0326
 1729CHOL    R119245   6.108  30.864  16.818 -0.0229  0.0170  0.0244
 1729CHOL    R219246   6.197  30.716  17.034 -0.0431  0.0125  0.0301
 1729CHOL    R319247   6.078  30.914  17.177 -0.0385  0.0210  0.0222
 1729CHOL    R419248   6.060  30.677  17.349 -0.0863  0.0183  0.0122
 1729CHOL    R519249   5.895  30.806  17.288 -0.0638  0.0385 -0.0034
 1729CHOL    C119250   5.868  30.839  17.667 -0.1070  0.0300 -0.0056
 1729CHOL    C219251   5.752  30.776  17.958 -0.3882 -0.1711 -0.3086
 1730CHOL   ROH19252  29.288  28.327   8.414 -0.0911  0.2241  0.2042
 1730CHOL    R119253  29.559  28.397   8.375 -0.0338  0.1011  0.3766
 1730CHOL    R219254  29.764  28.289   8.525 -0.1315 -0.3530  0.1884
 1730CHOL    R319255  29.866  28.226   8.281 -0.1511  0.0552  0.0698
 1730CHOL    R419256  30.101  28.250   8.455 -0.1362 -0.2310  0.0961
 1730CHOL    R519257  30.068  28.353   8.265 -0.1539  0.0872  0.2672
 1730CHOL    C119258  30.392  28.168   8.185 -0.1567  0.2238 -0.0686
 1730CHOL    C219259  30.681  28.183   8.053 -0.0274 -0.1543  0.1503
 1731CHOL   ROH19260  22.300  19.031   5.504  0.0165 -0.1853  0.0114
 1731CHOL    R119261  22.494  19.236   5.519 -0.0797 -0.0748 -0.2130
 1731CHOL    R219262  22.742  19.197   5.635 -0.1407  0.2284  0.0244
 1731CHOL    R319263  22.833  19.289   5.396 -0.0183 -0.1502 -0.0784
 1731CHOL    R419264  23.062  19.316   5.578 -0.1534  0.2695  0.0366
 1731CHOL    R519265  22.976  19.473   5.454 -0.1396  0.0160 -0.3006
 1731CHOL    C119266  23.333  19.471   5.320 -0.0463 -0.0623 -0.0528
 1731CHOL    C219267  23.668  19.583   5.527 -0.0258  0.0793  0.1371
 1732CHOL   ROH19268  18.372  31.964  10.380  0.1742 -0.0958 -0.2062
 1732CHOL    R119269  18.585  31.874  10.543  0.2039 -0.0099 -0.1982
 1732CHOL    R219270  18.744  32.048  10.688 -0.0416  0.0370  0.0195
 1732CHOL    R319271  18.672  31.889  10.897  0.0431 -0.2262 -0.1487
 1732CHOL    R419272  18.916  32.024  10.987 -0.2316  0.0919  0.1341
 1732CHOL    R519273  18.879  31.809  10.985  0.1030  0.0330 -0.0488
 1732CHOL    C119274  18.948  31.861  11.357 -0.2627 -0.1228  0.0427
 1732CHOL    C219275  19.179  31.725  11.714  0.1407  0.0789  0.0734
 1733CHOL   ROH19276   5.469   4.830  17.159  0.1391  0.1792  0.0119
 1733CHOL    R119277   5.670   4.757  16.973  0.0669  0.1191 -0.0429
 1733CHOL    R219278   5.612   4.656  16.723 -0.0304 -0.0362  0.0408
 1733CHOL    R319279   5.771   4.859  16.639 -0.1161 -0.0473 -0.1503
 1733CHOL    R419280   5.850   4.630  16.474 -0.0028 -0.1755  0.0816
 1733CHOL    R519281   5.982   4.755  16.594 -0.0665  0.0028 -0.0330
 1733CHOL    C119282   6.138   4.806  16.250 -0.0671 -0.2670 -0.0743
 1733CHOL    C219283   6.219   4.547  15.912  0.1290 -0.1525 -0.1413
 1734CHOL   ROH19284  32.479  26.035   3.123  0.0210  0.0042  0.2410
 1734CHOL    R119285  32.601  25.885   3.329  0.0111 -0.0837  0.1827
 1734CHOL    R219286  32.468  25.814   3.561  0.0027 -0.1759  0.1487
 1734CHOL    R319287  32.546  25.563   3.490 -0.0005 -0.1492  0.0489
 1734CHOL    R419288  32.512  25.551   3.781 -0.1671 -0.3092  0.0254
 1734CHOL    R519289  32.689  25.493   3.669 -0.1122 -0.2752  0.0915
 1734CHOL    C119290  32.610  25.163   3.844 -0.2697 -0.3619 -0.1400
 1734CHOL    C219291  32.624  25.094   4.142 -0.1995  0.4056  0.1193
 1735CHOL   ROH19292  30.470  33.610   6.885 -0.3172 -0.0965 -0.2355
 1735CHOL    R119293  30.233  33.549   7.028 -0.2342 -0.0629 -0.0818
 1735CHOL    R219294  30.187  33.301   7.139 -0.2417 -0.0878 -0.1401
 1735CHOL    R319295  30.147  33.446   7.366 -0.0201 -0.1578 -0.0555
 1735CHOL    R419296  29.989  33.202   7.405 -0.0324 -0.1411 -0.0036
 1735CHOL    R519297  29.918  33.407   7.422  0.0196 -0.1339  0.1286
 1735CHOL    C119298  29.837  33.280   7.772  0.2972 -0.2383  0.1555
 1735CHOL    C219299  29.687  33.355   8.123  0.1559 -0.0485 -0.2156
 1736CHOL   ROH19300  16.942  30.224  18.436 -0.1852 -0.1856  0.1351
 1736CHOL    R119301  16.822  30.180  18.184 -0.0319 -0.1375  0.0534
 1736CHOL    R219302  16.779  30.383  18.002 -0.0029 -0.0884  0.1034
 1736CHOL    R319303  16.918  30.219  17.835  0.1453  0.0197  0.1189
 1736CHOL    R419304  16.765  30.396  17.657 -0.1183 -0.2192  0.1030
 1736CHOL    R519305  16.766  30.177  17.654  0.1408 -0.2214  0.1760
 1736CHOL    C119306  16.887  30.249  17.299 -0.0469 -0.1943  0.1171
 1736CHOL    C219307  16.666  30.338  16.955 -0.2834  0.2261 -0.1582
 1737CHOL   ROH19308  25.383  28.850   5.452 -0.3364 -0.2250 -0.0732
 1737CHOL    R119309  25.367  28.858   5.734 -0.1295 -0.0887 -0.0638
 1737CHOL    R219310  25.195  28.696   5.878 -0.0992  0.0493  0.1357
 1737CHOL    R319311  25.423  28.626   6.009 -0.0326  0.0108 -0.0007
 1737CHOL    R419312  25.207  28.546   6.190  0.0656 -0.1358  0.0417
 1737CHOL    R519313  25.377  28.673   6.239  0.0603 -0.1377  0.0462
 1737CHOL    C119314  25.427  28.394   6.494  0.2238 -0.2797 -0.1412
 1737CHOL    C219315  25.600  28.381   6.831  0.1895  0.0450 -0.1737
 1738CHOL   ROH19316  20.402  26.336  16.058  0.0062  0.0156 -0.1427
 1738CHOL    R119317  20.284  26.220  15.828 -0.1606  0.0420 -0.0710
 1738CHOL    R219318  20.209  25.954  15.817 -0.0447  0.0109 -0.0931
 1738CHOL    R319319  19.968  26.058  15.746 -0.1643 -0.0779  0.1746
 1738CHOL    R419320  19.995  25.815  15.584 -0.0311  0.1884 -0.2129
 1738CHOL    R519321  19.952  26.016  15.511 -0.2316  0.2695  0.1134
 1738CHOL    C119322  19.644  25.832  15.382 -0.1351  0.2082 -0.0313
 1738CHOL    C219323  19.363  25.628  15.180  0.2772  0.0471 -0.1887
 1739CHOL   ROH19324  12.254   9.977  14.972 -0.0885  0.0780 -0.0379
 1739CHOL    R119325  12.241   9.963  15.254 -0.1770  0.0446 -0.0438
 1739CHOL    R219326  12.403  10.115  15.419 -0.0902 -0.1209  0.0231
 1739CHOL    R319327  12.166  10.191  15.527 -0.0540  0.0669 -0.0278
 1739CHOL    R419328  12.358  10.210  15.748 -0.0712 -0.0215 -0.0028
 1739CHOL    R519329  12.170  10.101  15.749 -0.1492  0.1091 -0.0075
 1739CHOL    C119330  12.109  10.338  16.041 -0.0260  0.2127 -0.0657
 1739CHOL    C219331  12.240  10.424  16.409  0.0226 -0.2426  0.1222
 1740CHOL   ROH19332  28.017  27.862   4.709  0.0679 -0.1524 -0.1205
 1740CHOL    R119333  28.178  27.732   4.903  0.1001 -0.0870 -0.1032
 1740CHOL    R219334  28.112  27.727   5.171  0.1149 -0.0456 -0.0993
 1740CHOL    R319335  28.138  27.458   5.139  0.1598 -0.0479 -0.0475
 1740CHOL    R419336  28.167  27.502   5.427  0.1144  0.0095 -0.0508
 1740CHOL    R519337  28.306  27.395   5.297  0.1488  0.0069 -0.0132
 1740CHOL    C119338  28.222  27.118   5.546  0.1571  0.0392  0.0260
 1740CHOL    C219339  28.507  26.925   5.578  0.0773  0.0528 -0.0294
 1741CHOL   ROH19340  24.766  25.270   8.057 -0.0096 -0.1635 -0.3500
 1741CHOL    R119341  24.570  25.454   7.968  0.0261 -0.0643 -0.2239
 1741CHOL    R219342  24.604  25.608   7.741 -0.0494 -0.0978 -0.2537
 1741CHOL    R319343  24.365  25.498   7.670 -0.1611  0.0298 -0.0835
 1741CHOL    R419344  24.381  25.747   7.516  0.0940 -0.2125 -0.4695
 1741CHOL    R519345  24.218  25.685   7.647  0.0273  0.1503 -0.3695
 1741CHOL    C119346  24.027  25.724   7.319  0.0730 -0.1593 -0.4354
 1741CHOL    C219347  23.832  25.969   7.107  0.0481 -0.1999 -0.3018
 1742CHOL   ROH19348  33.595   6.067  10.563  0.0828 -0.0337  0.2089
 1742CHOL    R119349  33.473   5.873  10.397 -0.0092 -0.0740  0.3224
 1742CHOL    R219350  33.532   5.850  10.128 -0.3721  0.0531  0.2316
 1742CHOL    R319351  33.583   5.592  10.194 -0.0835  0.0695  0.0796
 1742CHOL    R419352  33.641   5.608   9.907 -0.4692  0.2154  0.0036
 1742CHOL    R519353  33.508   5.466  10.005 -0.2338  0.0765  0.1318
 1742CHOL    C119354  33.753   5.224   9.840 -0.2548  0.3253 -0.2722
 1742CHOL    C219355  33.908   5.290   9.452  0.2649  0.0529  0.0008
 1743CHOL   ROH19356  20.972  11.079  14.715  0.0951 -0.0554  0.1220
 1743CHOL    R119357  20.905  10.973  14.461  0.1017 -0.0819  0.1314
 1743CHOL    R219358  20.714  10.776  14.428  0.0606 -0.0435  0.1406
 1743CHOL    R319359  20.608  10.954  14.252  0.1228 -0.0480  0.0980
 1743CHOL    R419360  20.430  10.720  14.239  0.0170  0.0261  0.1857
 1743CHOL    R519361  20.529  10.818  14.071  0.0446 -0.0678  0.1461
 1743CHOL    C119362  20.164  10.855  13.964  0.0502  0.0624  0.1717
 1743CHOL    C219363  19.852  10.968  13.812 -0.1152  0.0465 -0.0269
 1744CHOL   ROH19364   2.654   4.490  14.249 -0.0310 -0.3520  0.0480
 1744CHOL    R119365   2.870   4.625  14.125 -0.0188 -0.2178  0.2151
 1744CHOL    R219366   3.132   4.595  14.209 -0.0165 -0.3855  0.1473
 1744CHOL    R319367   3.174   4.532  13.948 -0.0544 -0.0261  0.0504
 1744CHOL    R419368   3.442   4.581  14.058 -0.0031 -0.5742  0.1912
 1744CHOL    R519369   3.355   4.675  13.881  0.1605 -0.1649  0.3194
 1744CHOL    C119370   3.663   4.513  13.725 -0.0308 -0.3467  0.1259
 1744CHOL    C219371   3.916   4.472  13.428 -0.1137  0.1126  0.1530
 1745CHOL   ROH19372   7.098  19.338  12.819  0.0416 -0.1873 -0.1461
 1745CHOL    R119373   6.891  19.336  13.012  0.1814 -0.4541  0.0047
 1745CHOL    R219374   6.634  19.421  12.955  0.2361 -0.0028  0.4092
 1745CHOL    R319375   6.566  19.176  13.050  0.0224 -0.1852 -0.1863
 1745CHOL    R419376   6.346  19.351  13.133  0.4072 -0.0679  0.6644
 1745CHOL    R519377   6.463  19.220  13.262  0.4250 -0.6258  0.1155
 1745CHOL    C119378   6.115  19.079  13.326  0.3064 -0.2770  0.2542
 1745CHOL    C219379   5.718  18.894  13.399  0.0412 -0.0179  0.0522
 1746CHOL   ROH19380  34.535  20.359   5.708  0.0010  0.1902 -0.0582
 1746CHOL    R119381  34.809  20.296   5.675  0.0214  0.2245  0.0407
 1746CHOL    R219382  34.915  20.210   5.435  0.0474 -0.1142  0.1712
 1746CHOL    R319383  35.087  20.417   5.474 -0.0155  0.0001 -0.1465
 1746CHOL    R419384  35.231  20.232   5.297  0.1015 -0.3084  0.2622
 1746CHOL    R519385  35.302  20.314   5.487  0.0027  0.0683  0.1433
 1746CHOL    C119386   0.191  20.440   5.254  0.0744 -0.3140  0.0168
 1746CHOL    C219387   0.415  20.756   5.150 -0.0976 -0.0298 -0.0268
 1747CHOL   ROH19388  31.336  10.058   5.774  0.3017  0.0304  0.0202
 1747CHOL    R119389  31.524   9.896   5.640  0.2378  0.0106 -0.0455
 1747CHOL    R219390  31.453   9.666   5.504  0.1649  0.0260 -0.0328
 1747CHOL    R319391  31.583   9.786   5.298  0.1167  0.0168 -0.0686
 1747CHOL    R419392  31.572   9.502   5.224  0.0187  0.0271 -0.0959
 1747CHOL    R519393  31.751   9.627   5.233  0.0534 -0.0178 -0.1492
 1747CHOL    C119394  31.764   9.519   4.867 -0.1110  0.0188 -0.1665
 1747CHOL    C219395  31.628   9.362   4.510 -0.1019 -0.2054  0.1430
 1748CHOL   ROH19396  14.386  10.149  17.897 -0.0170  0.0603  0.1135
 1748CHOL    R119397  14.481  10.389  17.781  0.1435 -0.0710 -0.0301
 1748CHOL    R219398  14.730  10.409  17.663  0.1274 -0.3277 -0.1101
 1748CHOL    R319399  14.586  10.500  17.451  0.1407 -0.3158 -0.1142
 1748CHOL    R419400  14.849  10.626  17.422  0.1737 -0.3899 -0.1431
 1748CHOL    R519401  14.655  10.727  17.424  0.2005 -0.3375 -0.1463
 1748CHOL    C119402  14.783  10.837  17.082  0.2132 -0.4148 -0.1664
 1748CHOL    C219403  15.165  10.917  17.064  0.2771 -0.3958 -0.2817
 1749CHOL   ROH19404   1.403   0.837  10.651 -0.1926 -0.0045 -0.1028
 1749CHOL    R119405   1.266   0.746  10.881 -0.2119  0.0195 -0.1044
 1749CHOL    R219406   1.372   0.765  11.135 -0.1161 -0.2005 -0.1252
 1749CHOL    R319407   1.138   0.892  11.189  0.0210  0.0003  0.0019
 1749CHOL    R419408   1.198   0.740  11.433 -0.1894 -0.3820 -0.1824
 1749CHOL    R519409   1.013   0.734  11.318 -0.1804 -0.0223 -0.2200
 1749CHOL    C119410   0.877   0.846  11.656 -0.1034 -0.2992 -0.0964
 1749CHOL    C219411   0.575   0.782  11.878 -0.1517 -0.2997  0.1741
 1750CHOL   ROH19412  14.486  14.514  14.825 -0.1949 -0.2622  0.1663
 1750CHOL    R119413  14.613  14.609  15.060 -0.0901 -0.2222  0.0937
 1750CHOL    R219414  14.485  14.618  15.304 -0.0026 -0.1179  0.1352
 1750CHOL    R319415  14.701  14.473  15.386 -0.0089 -0.1450  0.1043
 1750CHOL    R419416  14.613  14.618  15.625  0.0210 -0.1615  0.1262
 1750CHOL    R519417  14.814  14.617  15.540  0.0151 -0.1701  0.1108
 1750CHOL    C119418  14.890  14.482  15.889  0.0287 -0.2124  0.0918
 1750CHOL    C219419  15.023  14.389  16.139 -0.1200  0.2796  0.1022
 1751CHOL   ROH19420  22.582  29.536  10.951  0.0034 -0.0936  0.0974
 1751CHOL    R119421  22.379  29.507  10.757 -0.0153 -0.0643  0.1132
 1751CHOL    R219422  22.155  29.350  10.798 -0.0644  0.0192  0.1549
 1751CHOL    R319423  22.022  29.579  10.734  0.0066  0.0500  0.1147
 1751CHOL    R419424  21.873  29.365  10.599  0.0511  0.0895 -0.0049
 1751CHOL    R519425  21.954  29.546  10.507  0.1320  0.0935  0.0683
 1751CHOL    C119426  21.584  29.589  10.423  0.1847  0.1592 -0.1356
 1751CHOL    C219427  21.241  29.559  10.500 -0.0633 -0.3402  0.2136
 1752CHOL   ROH19428  30.992  28.539   9.796  0.2041 -0.0296 -0.0635
 1752CHOL    R119429  31.216  28.565   9.625  0.2048  0.0467 -0.0513
 1752CHOL    R219430  31.192  28.584   9.351  0.2198 -0.0817 -0.0617
 1752CHOL    R319431  31.339  28.810   9.386  0.0693  0.0293 -0.1394
 1752CHOL    R419432  31.425  28.705   9.126 -0.0395  0.1335 -0.2179
 1752CHOL    R519433  31.554  28.756   9.294  0.0450  0.2108 -0.3058
 1752CHOL    C119434  31.699  28.988   9.028 -0.3324  0.3632 -0.3819
 1752CHOL    C219435  31.753  28.971   8.709 -0.0217  0.0544 -0.0178
 1753CHOL   ROH19436  16.119  10.295  17.991  0.1688 -0.0146 -0.1850
 1753CHOL    R119437  16.202  10.560  17.934  0.0620  0.0244 -0.1608
 1753CHOL    R219438  16.337  10.627  17.703  0.0419  0.0996 -0.1522
 1753CHOL    R319439  16.136  10.808  17.676 -0.0324  0.0181 -0.1425
 1753CHOL    R419440  16.351  10.909  17.504  0.0387  0.2796  0.0999
 1753CHOL    R519441  16.247  11.019  17.661 -0.1326  0.0901  0.1204
 1753CHOL    C119442  16.169  11.243  17.362 -0.0326  0.3077  0.2558
 1753CHOL    C219443  16.153  11.348  16.982 -0.0890 -0.1921 -0.0242
 1754CHOL   ROH19444  22.809   7.199   7.556 -0.0397 -0.1538  0.0004
 1754CHOL    R119445  23.087   7.156   7.590 -0.0153 -0.1886 -0.2387
 1754CHOL    R219446  23.274   7.242   7.406 -0.1191  0.2730 -0.1358
 1754CHOL    R319447  23.385   7.362   7.623 -0.0345 -0.2140  0.0955
 1754CHOL    R419448  23.591   7.380   7.415 -0.1888  0.4260 -0.0081
 1754CHOL    R519449  23.615   7.298   7.615 -0.0040 -0.0700 -0.2295
 1754CHOL    C119450  23.879   7.573   7.625 -0.1502  0.0577  0.2836
 1754CHOL    C219451  24.287   7.696   7.668  0.1145  0.2542  0.1365
 1755CHOL   ROH19452  19.697  22.928  12.740  0.0311  0.0636  0.0196
 1755CHOL    R119453  19.925  22.942  12.908  0.0114  0.0816  0.0448
 1755CHOL    R219454  20.178  22.996  12.811  0.0373 -0.0159  0.0561
 1755CHOL    R319455  20.171  23.193  12.998  0.0564  0.0634 -0.0264
 1755CHOL    R419456  20.455  23.166  12.928  0.0961 -0.2409  0.2464
 1755CHOL    R519457  20.369  23.158  13.128 -0.0978 -0.0795  0.1710
 1755CHOL    C119458  20.611  23.450  13.171  0.1487 -0.2976  0.2797
 1755CHOL    C219459  20.948  23.503  12.987  0.1501  0.1451  0.1284
 1756CHOL   ROH19460  24.072  21.971  10.120  0.1528  0.0308 -0.2556
 1756CHOL    R119461  23.800  21.892  10.117  0.1644 -0.0168 -0.0827
 1756CHOL    R219462  23.594  22.069  10.067  0.0973 -0.0451  0.0802
 1756CHOL    R319463  23.528  21.888   9.875  0.0019 -0.0308  0.0998
 1756CHOL    R419464  23.280  22.034   9.928  0.0343 -0.0210  0.2169
 1756CHOL    R519465  23.307  21.818   9.934  0.0244 -0.0216  0.1929
 1756CHOL    C119466  23.035  21.844   9.668 -0.0920  0.0066  0.3146
 1756CHOL    C219467  22.818  21.490   9.721 -0.0291 -0.1564 -0.0744
 1757CHOL   ROH19468  10.531  15.321  17.579  0.1404  0.0069  0.1640
 1757CHOL    R119469  10.665  15.391  17.339  0.1046 -0.1285  0.1040
 1757CHOL    R219470  10.649  15.238  17.110 -0.1991 -0.0855  0.0938
 1757CHOL    R319471  10.570  15.473  16.998  0.0276  0.0258  0.1612
 1757CHOL    R419472  10.540  15.274  16.784 -0.1052  0.1268  0.0845
 1757CHOL    R519473  10.651  15.461  16.773  0.0619  0.0352  0.1730
 1757CHOL    C119474  10.402  15.514  16.489  0.1622  0.3554  0.1426
 1757CHOL    C219475  10.545  15.533  16.113 -0.0442  0.0317 -0.1072
 1758CHOL   ROH19476   3.031  25.026  16.174 -0.2734  0.3614  0.2328
 1758CHOL    R119477   3.088  25.278  16.059  0.1312  0.2861  0.2602
 1758CHOL    R219478   3.343  25.384  16.052  0.3813 -0.3101 -0.1078
 1758CHOL    R319479   3.293  25.403  15.785 -0.0190 -0.0723 -0.0197
 1758CHOL    R419480   3.482  25.620  15.840  0.3084 -0.3189 -0.1659
 1758CHOL    R519481   3.289  25.639  15.742  0.1709 -0.0374  0.1497
 1758CHOL    C119482   3.516  25.775  15.467 -0.1098 -0.1009 -0.1169
 1758CHOL    C219483   3.653  26.144  15.411  0.2322 -0.3713 -0.1704
 1759CHOL   ROH19484  10.483  24.461  21.461  0.0083 -0.0717 -0.0821
 1759CHOL    R119485  10.601  24.359  21.225  0.0532 -0.0479 -0.0700
 1759CHOL    R219486  10.513  24.429  20.973  0.0307 -0.1057 -0.0788
 1759CHOL    R319487  10.774  24.496  20.936  0.0054 -0.0069 -0.0796
 1759CHOL    R419488  10.651  24.526  20.671  0.0091 -0.1268 -0.0954
 1759CHOL    R519489  10.828  24.407  20.720  0.0557 -0.0408 -0.0530
 1759CHOL    C119490  10.977  24.644  20.461 -0.0272 -0.0457 -0.1054
 1759CHOL    C219491  11.209  24.833  20.232  0.0096  0.0829 -0.0480
 1760CHOL   ROH19492   5.151  20.705   7.759  0.0869  0.0303  0.0390
 1760CHOL    R119493   4.889  20.599   7.750  0.1074 -0.0193  0.0022
 1760CHOL    R219494   4.825  20.349   7.850  0.1483 -0.0520 -0.0470
 1760CHOL    R319495   4.640  20.489   7.992  0.1145 -0.1114 -0.0337
 1760CHOL    R419496   4.505  20.240   7.918  0.1378 -0.0849 -0.1495
 1760CHOL    R519497   4.433  20.442   7.882  0.1387 -0.0769 -0.0896
 1760CHOL    C119498   4.144  20.306   8.091  0.1000 -0.1595 -0.1966
 1760CHOL    C219499   3.844  20.291   8.104 -0.1063  0.0829 -0.2198
 1761CHOL   ROH19500  34.661   1.811   8.769 -0.1001 -0.0821  0.0110
 1761CHOL    R119501  34.667   1.903   9.037 -0.0286 -0.2734  0.0755
 1761CHOL    R219502  34.503   2.105   9.129  0.2167 -0.1244  0.1823
 1761CHOL    R319503  34.435   1.921   9.316 -0.0554 -0.1648  0.0472
 1761CHOL    R419504  34.361   2.179   9.435  0.5424 -0.1098  0.3326
 1761CHOL    R519505  34.488   2.026   9.525  0.2861 -0.4625  0.1184
 1761CHOL    C119506  34.214   2.048   9.790  0.4769 -0.1393  0.2934
 1761CHOL    C219507  34.245   2.298  10.076  0.1183  0.2397  0.4519
 1762CHOL   ROH19508   3.506  31.668  17.962  0.0248 -0.3176 -0.2230
 1762CHOL    R119509   3.613  31.750  17.714  0.0286 -0.1751 -0.1743
 1762CHOL    R219510   3.880  31.810  17.678  0.0267 -0.1423 -0.1333
 1762CHOL    R319511   3.861  31.627  17.478  0.0425 -0.0334 -0.2345
 1762CHOL    R419512   4.111  31.772  17.424  0.1280 -0.1095 -0.0469
 1762CHOL    R519513   3.945  31.742  17.285  0.1790  0.0298 -0.1381
 1762CHOL    C119514   4.228  31.578  17.088  0.2017  0.0120 -0.0910
 1762CHOL    C219515   4.310  31.490  16.751  0.0829 -0.1628  0.1205
 1763CHOL   ROH19516  19.259  17.170  16.500 -0.0086  0.0157 -0.1122
 1763CHOL    R119517  19.274  17.151  16.218  0.0526  0.0082 -0.1085
 1763CHOL    R219518  19.050  17.158  16.056  0.0727 -0.1774 -0.1465
 1763CHOL    R319519  19.184  17.360  15.934 -0.0648 -0.0799 -0.1367
 1763CHOL    R419520  18.984  17.273  15.737 -0.0521 -0.1581 -0.1140
 1763CHOL    R519521  19.199  17.291  15.705 -0.0687 -0.0311 -0.1513
 1763CHOL    C119522  19.071  17.530  15.436 -0.2537 -0.0553 -0.0858
 1763CHOL    C219523  18.776  17.414  15.281  0.0659 -0.0353  0.2831
 1764CHOL   ROH19524  23.046   7.279  13.140 -0.0210  0.0115  0.0471
 1764CHOL    R119525  22.949   7.250  12.876 -0.0307 -0.0511  0.0573
 1764CHOL    R219526  22.717   7.372  12.789 -0.0420 -0.0844  0.0412
 1764CHOL    R319527  22.880   7.470  12.594 -0.0563 -0.1156  0.0132
 1764CHOL    R419528  22.620   7.596  12.544 -0.0250 -0.0159  0.0967
 1764CHOL    R519529  22.740   7.483  12.401 -0.1013 -0.0391  0.0504
 1764CHOL    C119530  22.716   7.817  12.218 -0.0290 -0.0053  0.1028
 1764CHOL    C219531  22.391   7.913  11.997 -0.0267  0.1676 -0.1222
 1765CHOL   ROH19532  17.310  23.410  20.105  0.0594 -0.0783 -0.1653
 1765CHOL    R119533  17.081  23.377  19.942 -0.1608 -0.0511  0.1347
 1765CHOL    R219534  16.836  23.486  20.007  0.0308  0.3125  0.2637
 1765CHOL    R319535  16.854  23.595  19.759 -0.1227 -0.0504  0.0889
 1765CHOL    R419536  16.568  23.544  19.797 -0.1478  0.3679  0.5043
 1765CHOL    R519537  16.691  23.477  19.630 -0.4324 -0.0206  0.4444
 1765CHOL    C119538  16.429  23.681  19.441 -0.3963  0.0591  0.4798
 1765CHOL    C219539  16.293  23.555  19.151 -0.0252 -0.0070  0.0596
 1766CHOL   ROH19540   1.786   8.617  11.779 -0.1042 -0.0210 -0.0911
 1766CHOL    R119541   2.008   8.737  11.651 -0.0717 -0.0445 -0.0567
 1766CHOL    R219542   2.237   8.595  11.587 -0.0476 -0.0510  0.0466
 1766CHOL    R319543   2.188   8.692  11.337  0.0220 -0.1169  0.0072
 1766CHOL    R419544   2.434   8.534  11.310 -0.0639 -0.2664  0.0814
 1766CHOL    R519545   2.406   8.742  11.250  0.0566 -0.2717  0.0015
 1766CHOL    C119546   2.504   8.589  10.914 -0.0080 -0.4536  0.0645
 1766CHOL    C219547   2.493   8.535  10.495 -0.2244  0.2040 -0.0455
 1767CHOL   ROH19548  13.441  18.503  16.195  0.2929 -0.0853  0.0454
 1767CHOL    R119549  13.476  18.418  16.463 -0.0471 -0.1814  0.0618
 1767CHOL    R219550  13.313  18.229  16.581 -0.0513 -0.4030 -0.2888
 1767CHOL    R319551  13.549  18.105  16.634 -0.0076 -0.1939  0.0222
 1767CHOL    R419552  13.378  18.039  16.863 -0.1497 -0.0933 -0.0538
 1767CHOL    R519553  13.577  18.128  16.871 -0.2160  0.0500  0.0256
 1767CHOL    C119554  13.638  17.812  17.076 -0.1658  0.2835  0.3750
 1767CHOL    C219555  13.820  17.506  17.132 -0.1691  0.3004  0.0743
 1768CHOL   ROH19556  34.000  11.735   6.665  0.0368 -0.1025  0.0492
 1768CHOL    R119557  34.131  11.683   6.420 -0.0114 -0.1338  0.0304
 1768CHOL    R219558  34.180  11.879   6.232  0.0073 -0.1452  0.0242
 1768CHOL    R319559  34.436  11.791   6.254 -0.0091 -0.2058 -0.0141
 1768CHOL    R419560  34.403  11.852   5.969  0.0839  0.1817  0.0535
 1768CHOL    R519561  34.473  11.664   6.054  0.0362  0.0561 -0.1760
 1768CHOL    C119562  34.773  11.753   5.836  0.1139  0.3154  0.0345
 1768CHOL    C219563  34.988  11.655   5.578 -0.1277  0.0502  0.1217
 1769CHOL   ROH19564  27.077  21.014   3.871 -0.1909  0.0424  0.0750
 1769CHOL    R119565  27.036  21.006   3.591 -0.0294  0.2331  0.0448
 1769CHOL    R219566  26.785  20.999   3.477  0.0379 -0.0088 -0.0938
 1769CHOL    R319567  26.876  21.216   3.340 -0.1805  0.2380  0.1447
 1769CHOL    R419568  26.674  21.096   3.164  0.2007  0.0088 -0.1464
 1769CHOL    R519569  26.880  21.144   3.112  0.1797  0.3920  0.0992
 1769CHOL    C119570  26.695  21.356   2.854  0.0894  0.2509  0.0469
 1769CHOL    C219571  26.590  21.774   2.736  0.0226 -0.0597 -0.0703
 1770CHOL   ROH19572  26.282  23.481   6.353  0.0587  0.0702  0.1129
 1770CHOL    R119573  26.245  23.448   6.074  0.0832  0.0370  0.1137
 1770CHOL    R219574  25.996  23.458   5.955  0.0910 -0.0123  0.0958
 1770CHOL    R319575  26.114  23.648   5.799  0.0726 -0.0104  0.0839
 1770CHOL    R419576  25.850  23.605   5.678  0.0999 -0.0919  0.0488
 1770CHOL    R519577  26.043  23.594   5.577  0.1196 -0.0641  0.0808
 1770CHOL    C119578  25.876  23.868   5.370  0.0881 -0.1360  0.0103
 1770CHOL    C219579  25.883  24.070   4.999 -0.0404  0.2692  0.1997
 1771CHOL   ROH19580  21.348  28.182  12.226  0.0827 -0.1323  0.1172
 1771CHOL    R119581  21.137  28.110  12.052  0.0042 -0.1183  0.2064
 1771CHOL    R219582  20.872  28.163  12.110  0.0560  0.1909  0.1702
 1771CHOL    R319583  20.876  28.284  11.867  0.1543 -0.0673  0.0411
 1771CHOL    R419584  20.601  28.186  11.896  0.0444  0.2735  0.1936
 1771CHOL    R519585  20.736  28.147  11.729 -0.0263 -0.0555  0.2094
 1771CHOL    C119586  20.448  28.313  11.543  0.1300  0.0790  0.0858
 1771CHOL    C219587  19.999  28.555  11.541 -0.1433 -0.2371 -0.2215
 1772CHOL   ROH19588  13.991   2.158  12.905  0.1297  0.0433 -0.2952
 1772CHOL    R119589  14.059   2.046  13.156 -0.0854  0.0323 -0.2408
 1772CHOL    R219590  14.252   1.851  13.184 -0.2715 -0.1356 -0.1123
 1772CHOL    R319591  14.356   2.026  13.364 -0.1985 -0.1918 -0.0999
 1772CHOL    R419592  14.309   1.780  13.517 -0.2622 -0.1954 -0.1265
 1772CHOL    R519593  14.237   1.979  13.567 -0.1936 -0.1791 -0.0944
 1772CHOL    C119594  14.440   1.902  13.881 -0.1881 -0.2830 -0.1233
 1772CHOL    C219595  14.328   1.890  14.281 -0.1413  0.1493 -0.0511
 1773CHOL   ROH19596  27.733   5.521   8.819 -0.1366 -0.0380 -0.1731
 1773CHOL    R119597  27.617   5.326   8.651 -0.0164 -0.0699 -0.2194
 1773CHOL    R219598  27.747   5.223   8.430  0.1807 -0.1839 -0.0523
 1773CHOL    R319599  27.693   4.985   8.549  0.0005 -0.1265 -0.0182
 1773CHOL    R419600  27.782   4.915   8.278  0.1570 -0.2440  0.0643
 1773CHOL    R519601  27.596   4.852   8.375  0.0652 -0.1386 -0.0442
 1773CHOL    C119602  27.751   4.511   8.302 -0.0260 -0.2253  0.1642
 1773CHOL    C219603  27.608   4.043   8.348  0.0681 -0.2160 -0.0043
 1774CHOL   ROH19604  10.227   7.231  15.155 -0.2517 -0.3095  0.1250
 1774CHOL    R119605  10.157   7.448  15.324  0.0966 -0.1484  0.0677
 1774CHOL    R219606   9.912   7.465  15.449  0.0660  0.3526 -0.0510
 1774CHOL    R319607  10.064   7.492  15.673  0.0156  0.0735  0.0190
 1774CHOL    R419608   9.792   7.561  15.759  0.0544  0.3171 -0.0444
 1774CHOL    R519609   9.971   7.682  15.785  0.1760  0.1146  0.0843
 1774CHOL    C119610   9.866   7.642  16.149  0.0003  0.0344  0.0251
 1774CHOL    C219611   9.687   7.854  16.420 -0.0800 -0.0333  0.0796
 1775CHOL   ROH19612  12.069  31.933  18.887  0.1110  0.0121  0.0107
 1775CHOL    R119613  12.108  32.213  18.890  0.0075  0.0263  0.0145
 1775CHOL    R219614  12.133  32.362  18.658 -0.0415  0.0378  0.0166
 1775CHOL    R319615  11.929  32.506  18.767 -0.0976 -0.0383  0.0130
 1775CHOL    R419616  12.065  32.694  18.588 -0.1773  0.0076 -0.0004
 1775CHOL    R519617  12.022  32.725  18.799 -0.1852  0.0011 -0.0010
 1775CHOL    C119618  11.835  33.022  18.649 -0.3088 -0.0817 -0.0134
 1775CHOL    C219619  11.659  33.168  18.326 -0.2461  0.1870 -0.0813
 1776CHOL   ROH19620   4.153   9.900  14.289 -0.1485 -0.0983  0.0860
 1776CHOL    R119621   4.417   9.822  14.224 -0.1445 -0.1055  0.1109
 1776CHOL    R219622   4.477   9.578  14.111 -0.1562 -0.0493 -0.0172
 1776CHOL    R319623   4.600   9.731  13.923 -0.0796  0.0407  0.1060
 1776CHOL    R419624   4.704   9.460  13.879 -0.0753  0.0587  0.0072
 1776CHOL    R519625   4.822   9.642  13.910 -0.0787  0.0378  0.1426
 1776CHOL    C119626   4.953   9.536  13.567  0.0436  0.2061  0.1371
 1776CHOL    C219627   5.252   9.266  13.736  0.2354  0.0478 -0.0869
 1777CHOL   ROH19628  24.023  12.852  10.773  0.1441  0.0132 -0.1452
 1777CHOL    R119629  23.824  12.837  10.572  0.0832  0.0279 -0.0861
 1777CHOL    R219630  23.577  12.722  10.616  0.1648 -0.1460 -0.0751
 1777CHOL    R319631  23.485  12.961  10.526 -0.0063 -0.1395  0.1136
 1777CHOL    R419632  23.288  12.765  10.431  0.2016 -0.2214 -0.1501
 1777CHOL    R519633  23.394  12.913  10.310  0.1236 -0.0147  0.0307
 1777CHOL    C119634  23.034  13.016  10.239  0.0622 -0.2592 -0.0168
 1777CHOL    C219635  22.909  12.867  10.022 -0.0810  0.2087  0.2449
 1778CHOL   ROH19636   6.986   5.696  17.769 -0.0704  0.2206 -0.1849
 1778CHOL    R119637   7.149   5.525  17.613 -0.0959  0.1421 -0.1265
 1778CHOL    R219638   7.066   5.276  17.529 -0.1404  0.1330 -0.0565
 1778CHOL    R319639   7.132   5.372  17.284 -0.1095  0.0475 -0.0816
 1778CHOL    R419640   7.149   5.080  17.256  0.1410  0.0452  0.0900
 1778CHOL    R519641   7.305   5.225  17.207  0.0455  0.1441  0.0786
 1778CHOL    C119642   7.259   5.057  16.867  0.3339 -0.0863  0.1523
 1778CHOL    C219643   7.521   4.680  16.803 -0.1303 -0.0001  0.2827
 1779CHOL   ROH19644   2.262  21.815   4.960 -0.0391 -0.0418 -0.0151
 1779CHOL    R119645   1.992  21.861   5.030  0.0342  0.1562  0.1427
 1779CHOL    R219646   1.822  21.659   5.109 -0.1695  0.2207 -0.1205
 1779CHOL    R319647   1.784  21.819   5.325  0.0826 -0.0712  0.1450
 1779CHOL    R419648   1.585  21.605   5.355 -0.3819  0.2838 -0.3096
 1779CHOL    R519649   1.546  21.820   5.358  0.0666  0.3685  0.0466
 1779CHOL    C119650   1.412  21.725   5.702 -0.2690  0.0463 -0.1703
 1779CHOL    C219651   1.236  21.683   5.994 -0.0957  0.1104  0.0601
 1780CHOL   ROH19652   2.655   4.927  13.732 -0.0511 -0.1089  0.2718
 1780CHOL    R119653   2.893   4.780  13.687 -0.1326 -0.1775  0.0617
 1780CHOL    R219654   2.966   4.689  13.437 -0.1572  0.1855 -0.0805
 1780CHOL    R319655   3.196   4.822  13.491 -0.0843 -0.0374  0.1663
 1780CHOL    R419656   3.249   4.683  13.239 -0.0222  0.0813  0.1139
 1780CHOL    R519657   3.370   4.673  13.420 -0.1561 -0.1337  0.1928
 1780CHOL    C119658   3.630   4.804  13.174  0.1250 -0.1886  0.4586
 1780CHOL    C219659   3.876   4.533  12.970 -0.0247  0.0219  0.0237
 1781CHOL   ROH19660   8.462  25.641  20.990 -0.0229 -0.2614  0.2051
 1781CHOL    R119661   8.609  25.607  20.751 -0.0708 -0.3412  0.1871
 1781CHOL    R219662   8.559  25.400  20.574 -0.4575 -0.0989  0.0053
 1781CHOL    R319663   8.536  25.603  20.394 -0.0551  0.1037  0.1772
 1781CHOL    R419664   8.615  25.370  20.234 -0.4960  0.0881 -0.0183
 1781CHOL    R519665   8.714  25.564  20.238 -0.1195 -0.1047  0.1560
 1781CHOL    C119666   8.627  25.542  19.868 -0.1402  0.3864  0.1293
 1781CHOL    C219667   8.702  25.798  19.528  0.0063  0.1195 -0.0919
 1782CHOL   ROH19668  11.717  28.412  20.082  0.1528  0.2473  0.2336
 1782CHOL    R119669  11.921  28.244  19.980  0.0541  0.1778  0.1495
 1782CHOL    R219670  12.015  28.263  19.721  0.0746  0.2617  0.1629
 1782CHOL    R319671  12.256  28.286  19.844  0.0850  0.0476  0.1843
 1782CHOL    R419672  12.321  28.235  19.563  0.0634  0.1383  0.1625
 1782CHOL    R519673  12.394  28.124  19.735 -0.0156  0.0092  0.1135
 1782CHOL    C119674  12.725  28.240  19.586  0.0666 -0.1346  0.1824
 1782CHOL    C219675  13.010  28.141  19.388 -0.0115  0.0956  0.0832
 1783CHOL   ROH19676   2.645   1.636  14.443 -0.2951 -0.0341  0.0228
 1783CHOL    R119677   2.605   1.487  14.206 -0.0377  0.0550 -0.0775
 1783CHOL    R219678   2.807   1.342  14.085  0.0186 -0.1492  0.2592
 1783CHOL    R319679   2.629   1.138  14.105 -0.2504  0.0451 -0.0974
 1783CHOL    R419680   2.767   1.092  13.851  0.1572 -0.0552  0.1340
 1783CHOL    R519681   2.552   1.105  13.881  0.1111  0.1803 -0.2474
 1783CHOL    C119682   2.576   0.754  13.732 -0.0146  0.1819 -0.2734
 1783CHOL    C219683   2.221   0.569  13.578  0.1665 -0.1010 -0.1375
 1784CHOL   ROH19684  34.408   8.833   3.948  0.0499  0.0836 -0.0922
 1784CHOL    R119685  34.256   8.834   4.187  0.0458  0.0774 -0.0954
 1784CHOL    R219686  34.343   8.958   4.418  0.0239  0.1022 -0.1011
 1784CHOL    R319687  34.103   9.085   4.403  0.0073  0.0689 -0.1125
 1784CHOL    R419688  34.196   9.135   4.676  0.0492  0.1921 -0.1478
 1784CHOL    R519689  34.004   9.050   4.618  0.0484  0.1463 -0.0805
 1784CHOL    C119690  33.885   9.356   4.812  0.0493  0.2134 -0.1856
 1784CHOL    C219691  33.997   9.494   5.151  0.2251 -0.1513  0.0092
 1785CHOL   ROH19692  24.952   7.444  10.528  0.0611  0.0859 -0.0695
 1785CHOL    R119693  24.690   7.348  10.478  0.0719  0.0597 -0.0770
 1785CHOL    R219694  24.464   7.493  10.544  0.0534 -0.0216  0.0395
 1785CHOL    R319695  24.403   7.455  10.282  0.0173  0.1081  0.0292
 1785CHOL    R419696  24.169   7.591  10.394  0.0185  0.0216  0.1365
 1785CHOL    R519697  24.169   7.404  10.282  0.0235  0.0802  0.0389
 1785CHOL    C119698  23.939   7.614  10.060 -0.0361  0.1684  0.1832
 1785CHOL    C219699  23.543   7.652  10.184  0.0548  0.0695  0.1606
 1786CHOL   ROH19700  25.379  35.039   7.226 -0.0296  0.0473 -0.1493
 1786CHOL    R119701  25.272  35.006   7.487  0.1179 -0.2281 -0.1214
 1786CHOL    R219702  25.416  34.891   7.693  0.4323  0.0421 -0.1848
 1786CHOL    R319703  25.354  35.122   7.822 -0.0267 -0.1092 -0.1272
 1786CHOL    R419704  25.466  34.949   8.030  0.2834  0.0450 -0.1637
 1786CHOL    R519705  25.273  35.051   8.036  0.0837 -0.3235 -0.1562
 1786CHOL    C119706  25.435  35.199   8.348 -0.2337 -0.0957 -0.0971
 1786CHOL    C219707  25.236   0.099   8.551 -0.1084 -0.1977  0.0070
 1787CHOL   ROH19708  18.076  10.598  17.380  0.1829  0.0118 -0.1773
 1787CHOL    R119709  17.830  10.634  17.245  0.0273  0.0228  0.1060
 1787CHOL    R219710  17.808  10.622  16.970 -0.2312  0.3516  0.1109
 1787CHOL    R319711  17.618  10.436  17.025 -0.0586  0.1590  0.0653
 1787CHOL    R419712  17.541  10.545  16.764 -0.2180  0.2292  0.1381
 1787CHOL    R519713  17.415  10.532  16.941 -0.1633  0.0304  0.1654
 1787CHOL    C119714  17.207  10.326  16.696 -0.0484 -0.0229  0.1117
 1787CHOL    C219715  16.773  10.367  16.579 -0.0994  0.1533  0.0204
 1788CHOL   ROH19716  21.491  16.239   7.007  0.0160  0.1787  0.0141
 1788CHOL    R119717  21.727  16.125   6.898 -0.0235  0.0847  0.0260
 1788CHOL    R219718  21.979  16.206   6.975  0.0053  0.1445 -0.1273
 1788CHOL    R319719  22.014  15.941   7.024  0.0169  0.1843  0.0803
 1788CHOL    R419720  22.279  16.060   7.066  0.0393  0.2094 -0.1344
 1788CHOL    R519721  22.231  15.892   6.936 -0.0242  0.1014  0.0272
 1788CHOL    C119722  22.485  15.725   7.166  0.0699  0.2845  0.0564
 1788CHOL    C219723  22.839  15.422   7.226 -0.2821 -0.0879  0.0424
 1789CHOL   ROH19724   3.922   2.362  16.197 -0.1544  0.0958  0.0925
 1789CHOL    R119725   4.188   2.402  16.110 -0.1208 -0.2248  0.0441
 1789CHOL    R219726   4.327   2.212  15.964 -0.5116 -0.2355 -0.3250
 1789CHOL    R319727   4.362   2.418  15.790 -0.2324 -0.0098 -0.0066
 1789CHOL    R419728   4.554   2.214  15.704 -0.2707  0.0013 -0.1150
 1789CHOL    R519729   4.598   2.422  15.751 -0.1929 -0.0875  0.2173
 1789CHOL    C119730   4.720   2.409  15.389  0.1317  0.3509  0.3062
 1789CHOL    C219731   4.927   2.296  15.131  0.2611 -0.1349 -0.2499
 1790CHOL   ROH19732  29.654  35.271  10.093 -0.3149  0.0610 -0.2219
 1790CHOL    R119733  29.774  35.296   9.838 -0.0469  0.1606 -0.0887
 1790CHOL    R219734  30.003   0.058   9.795  0.1019  0.0330  0.2420
 1790CHOL    R319735  30.094  35.211   9.687  0.0439  0.0451  0.1666
 1790CHOL    R419736  30.117   0.022   9.471  0.0519  0.0992  0.2169
 1790CHOL    R519737  30.015  35.215   9.461  0.0145  0.1209  0.1781
 1790CHOL    C119738  30.270  35.168   9.181 -0.0317  0.1479  0.1316
 1790CHOL    C219739  30.480  35.060   8.939  0.0459 -0.1319  0.0720
 1791CHOL   ROH19740   3.573  18.668  12.597 -0.0021 -0.0515  0.1827
 1791CHOL    R119741   3.815  18.798  12.531  0.0307 -0.1055  0.1954
 1791CHOL    R219742   4.062  18.706  12.615  0.0154 -0.2197  0.1227
 1791CHOL    R319743   4.120  18.714  12.350 -0.0255 -0.1376  0.1163
 1791CHOL    R419744   4.379  18.676  12.482 -0.0015 -0.1322  0.0630
 1791CHOL    R519745   4.328  18.832  12.338 -0.0474 -0.1026  0.1148
 1791CHOL    C119746   4.618  18.666  12.155 -0.0498 -0.0042  0.0222
 1791CHOL    C219747   4.941  18.602  12.132  0.2103 -0.0170  0.1183
 1792CHOL   ROH19748  20.373  18.358  16.625 -0.1482  0.0585 -0.0286
 1792CHOL    R119749  20.238  18.260  16.397 -0.1181  0.1682 -0.0938
 1792CHOL    R219750  20.063  18.047  16.408  0.0940 -0.0177 -0.2671
 1792CHOL    R319751  19.893  18.222  16.289 -0.1134 -0.0572 -0.0310
 1792CHOL    R419752  19.750  17.966  16.287  0.0273 -0.1343 -0.0198
 1792CHOL    R519753  19.788  18.095  16.115 -0.2012 -0.0330  0.0051
 1792CHOL    C119754  19.407  18.084  16.106 -0.2059 -0.2396  0.3463
 1792CHOL    C219755  18.970  18.094  16.215  0.0897  0.3672  0.1106
 1793CHOL   ROH19756  24.936  15.508   2.036 -0.0492 -0.0428  0.0538
 1793CHOL    R119757  24.982  15.495   2.315 -0.1360  0.0176  0.0715
 1793CHOL    R219758  25.219  15.403   2.422 -0.2411 -0.1454  0.1693
 1793CHOL    R319759  25.217  15.642   2.551 -0.0749 -0.0954  0.0813
 1793CHOL    R419760  25.302  15.449   2.755 -0.1656 -0.0715  0.1402
 1793CHOL    R519761  25.137  15.590   2.771 -0.0755  0.0364  0.1119
 1793CHOL    C119762  25.348  15.700   3.069  0.0346  0.0183  0.0407
 1793CHOL    C219763  25.395  15.618   3.478 -0.1710 -0.1633  0.0986
 1794CHOL   ROH19764  11.990   5.412  18.168  0.0799  0.0258  0.1255
 1794CHOL    R119765  12.072   5.519  17.919  0.1729  0.0055  0.1472
 1794CHOL    R219766  11.919   5.497  17.690  0.2365  0.0294  0.1033
 1794CHOL    R319767  11.948   5.768  17.685  0.2886  0.0241  0.1050
 1794CHOL    R419768  11.948   5.687  17.403  0.1226  0.0401  0.0986
 1794CHOL    R519769  12.099   5.807  17.503  0.2014  0.0036  0.0267
 1794CHOL    C119770  11.992   6.051  17.230  0.1052  0.0414  0.0975
 1794CHOL    C219771  11.798   6.372  16.886  0.1499  0.0402 -0.0634
 1795CHOL   ROH19772  21.951   5.930  14.385  0.0791  0.0251 -0.1184
 1795CHOL    R119773  21.877   5.704  14.231 -0.0196  0.0176 -0.0609
 1795CHOL    R219774  21.839   5.716  13.958 -0.1057 -0.0151 -0.0508
 1795CHOL    R319775  22.020   5.514  13.955 -0.1498 -0.0545 -0.0791
 1795CHOL    R419776  21.916   5.524  13.682 -0.0561  0.0884 -0.1095
 1795CHOL    R519777  21.923   5.349  13.812 -0.1383  0.0298 -0.1839
 1795CHOL    C119778  22.131   5.222  13.518 -0.0686  0.1117 -0.1702
 1795CHOL    C219779  22.407   5.255  13.304  0.1332 -0.0507 -0.0968
 1796CHOL   ROH19780   3.696  28.318  13.869  0.0835  0.1253  0.0886
 1796CHOL    R119781   3.464  28.177  13.945  0.1899 -0.0261  0.1333
 1796CHOL    R219782   3.406  28.118  14.209  0.1353  0.1875  0.1707
 1796CHOL    R319783   3.170  28.241  14.151  0.0370 -0.1029 -0.0598
 1796CHOL    R419784   3.117  28.090  14.397  0.1895  0.3979  0.2869
 1796CHOL    R519785   3.003  28.081  14.211  0.1601 -0.0914  0.3247
 1796CHOL    C119786   2.728  28.190  14.452  0.1288  0.2486  0.1381
 1796CHOL    C219787   2.416  28.287  14.397 -0.1049  0.0080  0.1202
 1797CHOL   ROH19788   4.696   2.709  12.032 -0.0969  0.1087  0.2470
 1797CHOL    R119789   4.491   2.902  12.007 -0.0402  0.1553  0.1420
 1797CHOL    R219790   4.261   2.895  12.159 -0.1646  0.1497 -0.0461
 1797CHOL    R319791   4.333   3.150  12.221 -0.1676  0.1172  0.0931
 1797CHOL    R419792   4.051   3.131  12.300 -0.2708  0.1753 -0.2460
 1797CHOL    R519793   4.139   3.281  12.168 -0.0719  0.1802 -0.1112
 1797CHOL    C119794   3.996   3.507  12.440 -0.3355  0.1597 -0.2314
 1797CHOL    C219795   3.772   3.911  12.296  0.1138 -0.0789  0.2183
 1798CHOL   ROH19796  34.855  10.702   8.279  0.0903 -0.1677  0.2078
 1798CHOL    R119797  34.867  10.612   8.011  0.0881 -0.0014  0.1513
 1798CHOL    R219798  35.095  10.501   7.901  0.0630 -0.0123  0.1055
 1798CHOL    R319799  34.927  10.296   7.840 -0.0038  0.0852 -0.0420
 1798CHOL    R419800  35.180  10.226   7.711  0.0427 -0.0202  0.1077
 1798CHOL    R519801  34.984  10.237   7.615  0.1095  0.0984 -0.0160
 1798CHOL    C119802  35.072   9.873   7.542 -0.0318  0.0669 -0.0292
 1798CHOL    C219803  35.176   9.485   7.417  0.1648  0.0459 -0.3937
 1799CHOL   ROH19804   3.685  18.149  11.762 -0.0104  0.0854  0.0366
 1799CHOL    R119805   3.861  17.961  11.645 -0.0979  0.1221 -0.1564
 1799CHOL    R219806   3.996  18.010  11.409  0.0215  0.3518 -0.0403
 1799CHOL    R319807   4.214  17.946  11.559 -0.0756 -0.0040 -0.0452
 1799CHOL    R419808   4.304  17.919  11.281 -0.0214  0.2226 -0.0527
 1799CHOL    R519809   4.319  17.768  11.439 -0.1976  0.0343 -0.2117
 1799CHOL    C119810   4.688  17.806  11.348 -0.1373 -0.1866 -0.0644
 1799CHOL    C219811   5.000  17.638  11.125 -0.0677  0.0236  0.0467
 1800CHOL   ROH19812  17.557  13.307  17.190 -0.0801 -0.2389  0.0922
 1800CHOL    R119813  17.523  13.374  16.917 -0.0622 -0.1126  0.1204
 1800CHOL    R219814  17.324  13.263  16.761 -0.0939  0.0097  0.0734
 1800CHOL    R319815  17.262  13.523  16.712 -0.0213  0.0482  0.1849
 1800CHOL    R419816  17.162  13.377  16.478 -0.0736  0.1756  0.1286
 1800CHOL    R519817  17.296  13.549  16.477 -0.0244  0.1374  0.1947
 1800CHOL    C119818  17.009  13.688  16.268  0.0061  0.3083  0.2650
 1800CHOL    C219819  16.787  13.970  16.113 -0.2746 -0.3493 -0.3932
 1801CHOL   ROH19820  26.678  22.738   5.368 -0.1548  0.0964  0.0922
 1801CHOL    R119821  26.617  22.906   5.149 -0.1053  0.0799  0.0656
 1801CHOL    R219822  26.446  22.829   4.946 -0.0517  0.0603  0.0261
 1801CHOL    R319823  26.318  23.061   5.010 -0.0763  0.0594 -0.0193
 1801CHOL    R419824  26.198  22.977   4.756 -0.0172  0.0372 -0.0370
 1801CHOL    R519825  26.288  23.171   4.800 -0.0362  0.0429 -0.0327
 1801CHOL    C119826  25.935  23.281   4.704 -0.0201  0.0222 -0.1164
 1801CHOL    C219827  25.715  23.567   4.875 -0.0746 -0.2010 -0.0810
 1802CHOL   ROH19828  10.008  21.758  18.078  0.1766  0.3377  0.2863
 1802CHOL    R119829  10.019  21.516  18.224  0.0777  0.2851  0.2071
 1802CHOL    R219830   9.890  21.482  18.466 -0.1555  0.1696  0.0673
 1802CHOL    R319831   9.781  21.266  18.341  0.0078  0.1946 -0.1213
 1802CHOL    R419832   9.748  21.211  18.627  0.0975 -0.1053 -0.1656
 1802CHOL    R519833   9.842  21.081  18.480  0.1867  0.1123 -0.3054
 1802CHOL    C119834   9.563  20.851  18.604  0.3984 -0.2422 -0.4780
 1802CHOL    C219835   9.583  20.505  18.839 -0.0045 -0.1193  0.2082
 1803CHOL   ROH19836   7.233  14.336  13.271 -0.0092 -0.1367  0.0328
 1803CHOL    R119837   7.146  14.360  13.539  0.0604  0.0511  0.0400
 1803CHOL    R219838   7.037  14.592  13.640 -0.0131  0.0896 -0.1239
 1803CHOL    R319839   6.832  14.428  13.710  0.0806  0.0560  0.0748
 1803CHOL    R419840   6.770  14.684  13.839 -0.0635  0.1773 -0.2313
 1803CHOL    R519841   6.782  14.489  13.936  0.0485  0.2991  0.0031
 1803CHOL    C119842   6.422  14.584  14.021 -0.0047  0.1967 -0.1072
 1803CHOL    C219843   6.307  14.827  14.332  0.2515 -0.0520  0.3015
 1804CHOL   ROH19844   3.583  21.165  13.692  0.1225 -0.3259 -0.1160
 1804CHOL    R119845   3.854  21.112  13.630  0.1303 -0.2375 -0.1590
 1804CHOL    R219846   3.944  21.084  13.371  0.1679  0.1594 -0.1922
 1804CHOL    R319847   4.120  21.277  13.446  0.1618  0.0429  0.1321
 1804CHOL    R419848   4.275  21.098  13.273  0.1268  0.4181 -0.2977
 1804CHOL    R519849   4.327  21.160  13.475  0.1950  0.0174 -0.1867
 1804CHOL    C119850   4.633  21.287  13.285  0.0971  0.4593 -0.0545
 1804CHOL    C219851   5.077  21.296  13.225 -0.2998  0.2756 -0.1614
 1805CHOL   ROH19852  27.784  17.930   3.836 -0.1377  0.0997 -0.0356
 1805CHOL    R119853  27.727  17.807   3.588 -0.1902 -0.0538  0.0520
 1805CHOL    R219854  27.481  17.693   3.531 -0.3091  0.1973  0.0586
 1805CHOL    R319855  27.491  17.858   3.315 -0.0195 -0.0066 -0.0877
 1805CHOL    R419856  27.339  17.624   3.224 -0.4313  0.1732  0.1199
 1805CHOL    R519857  27.516  17.710   3.129 -0.2775 -0.2178  0.0416
 1805CHOL    C119858  27.265  17.739   2.842 -0.2301 -0.0321  0.0183
 1805CHOL    C219859  27.169  17.804   2.421 -0.0949 -0.0983  0.0236
 1806CHOL   ROH19860  31.794   1.837   7.461 -0.2014 -0.1091  0.0186
 1806CHOL    R119861  31.804   1.945   7.723 -0.2953 -0.0269 -0.0114
 1806CHOL    R219862  31.579   2.033   7.856 -0.3758 -0.1997 -0.0296
 1806CHOL    R319863  31.665   1.862   8.049 -0.2102 -0.0671  0.0143
 1806CHOL    R419864  31.500   2.058   8.191 -0.0471  0.0566  0.0314
 1806CHOL    R519865  31.705   2.003   8.239 -0.0086  0.0675 -0.1268
 1806CHOL    C119866  31.535   1.913   8.568  0.2998  0.3303  0.1081
 1806CHOL    C219867  31.570   2.011   8.938  0.3416 -0.1676  0.2484
 1807CHOL   ROH19868  28.819  13.657   4.096 -0.2069  0.0819  0.0389
 1807CHOL    R119869  28.870  13.567   3.833 -0.1345  0.0431  0.0664
 1807CHOL    R219870  28.671  13.471   3.668 -0.0864  0.0052  0.0318
 1807CHOL    R319871  28.766  13.660   3.497 -0.0544 -0.0168  0.0248
 1807CHOL    R419872  28.676  13.441   3.323 -0.2171  0.0483  0.0256
 1807CHOL    R519873  28.873  13.535   3.323 -0.1720 -0.0449 -0.0285
 1807CHOL    C119874  28.768  13.602   2.963 -0.2627  0.0529  0.0153
 1807CHOL    C219875  28.889  13.335   2.674  0.3676  0.0755  0.1920
 1808CHOL   ROH19876  34.859  16.738   5.427  0.0010  0.1166 -0.0479
 1808CHOL    R119877  34.909  16.710   5.150 -0.0259  0.0530 -0.0465
 1808CHOL    R219878  35.031  16.908   5.000  0.0597 -0.0253 -0.0810
 1808CHOL    R319879  35.201  16.707   4.933 -0.0383 -0.1160 -0.0612
 1808CHOL    R419880  35.228  16.903   4.717  0.1369 -0.0999 -0.0255
 1808CHOL    R519881  35.183  16.691   4.694  0.0198 -0.0710 -0.0688
 1808CHOL    C119882   0.118  16.712   4.488  0.0910 -0.2280  0.0253
 1808CHOL    C219883   0.211  16.433   4.231 -0.1186  0.3246  0.3633
 1809CHOL   ROH19884  16.465   7.375  16.976  0.2022  0.0019 -0.1021
 1809CHOL    R119885  16.317   7.337  16.737  0.1543 -0.0619 -0.0626
 1809CHOL    R219886  16.165   7.538  16.623  0.1317 -0.0922 -0.0860
 1809CHOL    R319887  16.314   7.481  16.403  0.0876 -0.1520 -0.1003
 1809CHOL    R419888  16.094   7.647  16.303  0.1795 -0.0119 -0.0694
 1809CHOL    R519889  16.153   7.451  16.228  0.0618 -0.0371 -0.0959
 1809CHOL    C119890  16.193   7.657  15.910  0.1659 -0.0215 -0.0729
 1809CHOL    C219891  16.252   7.688  15.486 -0.1211 -0.0554  0.0277
 1810CHOL   ROH19892   7.809  21.850  16.551  0.0589 -0.1248  0.0882
 1810CHOL    R119893   7.726  21.678  16.760 -0.1049 -0.2100 -0.0465
 1810CHOL    R219894   7.657  21.770  17.011 -0.0097 -0.3406  0.0288
 1810CHOL    R319895   7.427  21.633  16.963 -0.1451 -0.0799 -0.0767
 1810CHOL    R419896   7.412  21.707  17.247 -0.2034 -0.0443 -0.0904
 1810CHOL    R519897   7.390  21.507  17.163 -0.3922 -0.0252 -0.0864
 1810CHOL    C119898   7.054  21.542  17.339 -0.4433  0.3734 -0.2582
 1810CHOL    C219899   6.629  21.749  17.346 -0.1839 -0.1848 -0.1317
 1811CHOL   ROH19900  15.664  31.612  14.479  0.0770  0.1527 -0.2266
 1811CHOL    R119901  15.822  31.807  14.609 -0.1065  0.3244 -0.2586
 1811CHOL    R219902  16.060  31.746  14.736 -0.2514  0.5017  0.1022
 1811CHOL    R319903  16.160  31.940  14.574 -0.0809  0.3281 -0.0030
 1811CHOL    R419904  16.372  31.889  14.770 -0.2090  0.3971  0.1578
 1811CHOL    R519905  16.284  32.082  14.722 -0.1026  0.3971 -0.0499
 1811CHOL    C119906  16.649  32.154  14.637 -0.0246  0.1730  0.0914
 1811CHOL    C219907  16.948  32.101  14.841  0.1115  0.1511  0.0756
 1812CHOL   ROH19908   0.059  28.478   8.847 -0.1590  0.1628  0.0231
 1812CHOL    R119909  35.205  28.336   8.895 -0.1842  0.1989  0.0044
 1812CHOL    R219910  35.170  28.172   9.115 -0.1452  0.0276 -0.1154
 1812CHOL    R319911  34.950  28.327   9.155 -0.0804  0.0659  0.1031
 1812CHOL    R419912  34.899  28.084   9.310 -0.0763 -0.0303 -0.0463
 1812CHOL    R519913  34.768  28.171   9.160 -0.1244  0.1171  0.0802
 1812CHOL    C119914  34.535  28.177   9.461  0.0249 -0.0285  0.1991
 1812CHOL    C219915  34.323  28.347   9.689 -0.1092  0.1067  0.4768
 1813CHOL   ROH19916  35.194   9.755   9.468 -0.1792  0.0465 -0.0759
 1813CHOL    R119917  35.278   9.619   9.235 -0.0870  0.0548 -0.0478
 1813CHOL    R219918   0.042   9.741   9.037  0.0390  0.0465  0.0410
 1813CHOL    R319919   0.210   9.532   9.079 -0.0244  0.0082  0.1050
 1813CHOL    R419920   0.333   9.683   8.860  0.0605 -0.0540  0.1087
 1813CHOL    R519921   0.285   9.471   8.860  0.0047 -0.0416  0.1286
 1813CHOL    C119922   0.661   9.454   8.796  0.0135 -0.1484  0.2082
 1813CHOL    C219923   1.031   9.486   8.840 -0.0656 -0.0382  0.0056
 1814CHOL   ROH19924   3.794  20.741  12.020 -0.1035  0.0661 -0.0895
 1814CHOL    R119925   4.054  20.848  12.051 -0.0468 -0.1015  0.0154
 1814CHOL    R219926   4.282  20.705  11.988 -0.1255 -0.1253 -0.2209
 1814CHOL    R319927   4.337  20.922  11.834 -0.0480  0.0632  0.0699
 1814CHOL    R419928   4.595  20.788  11.869 -0.1456 -0.2403 -0.3552
 1814CHOL    R519929   4.551  20.997  11.912  0.0897 -0.2619  0.0083
 1814CHOL    C119930   4.830  21.040  11.655 -0.0846 -0.1306 -0.1601
 1814CHOL    C219931   5.119  21.054  11.460  0.0445 -0.0043  0.1356
 1815CHOL   ROH19932  17.616   2.698  12.134 -0.0194  0.1575  0.0398
 1815CHOL    R119933  17.486   2.450  12.175  0.0010  0.1229 -0.1018
 1815CHOL    R219934  17.602   2.208  12.110  0.0607  0.1640 -0.1484
 1815CHOL    R319935  17.546   2.148  12.369 -0.0279  0.0592 -0.1913
 1815CHOL    R419936  17.565   1.888  12.235  0.3292  0.1004 -0.2266
 1815CHOL    R519937  17.398   1.960  12.356  0.1795 -0.0979 -0.3111
 1815CHOL    C119938  17.490   1.645  12.551  0.4020 -0.0349 -0.3125
 1815CHOL    C219939  17.818   1.307  12.563  0.2761 -0.3825  0.1474
 1816CHOL   ROH19940  31.738  19.027   1.758  0.1235  0.0749 -0.2845
 1816CHOL    R119941  31.965  19.165   1.855  0.0429  0.1326 -0.1776
 1816CHOL    R219942  32.023  19.426   1.786 -0.0041  0.1555 -0.1300
 1816CHOL    R319943  32.029  19.462   2.055 -0.1269  0.1331 -0.1238
 1816CHOL    R419944  32.179  19.689   1.946 -0.0633  0.1337 -0.0351
 1816CHOL    R519945  32.248  19.549   2.098 -0.1419  0.1175 -0.0148
 1816CHOL    C119946  32.276  19.877   2.291 -0.2130  0.0998  0.0260
 1816CHOL    C219947  32.299  20.209   2.369  0.0322  0.2363  0.0336
 1817CHOL   ROH19948  22.149  10.494   6.632  0.1338 -0.0776 -0.0431
 1817CHOL    R119949  22.421  10.504   6.710  0.1038 -0.0516  0.0583
 1817CHOL    R219950  22.582  10.722   6.657  0.1200 -0.0646  0.0597
 1817CHOL    R319951  22.626  10.714   6.925  0.0185  0.0114  0.0788
 1817CHOL    R419952  22.858  10.856   6.816  0.0916 -0.0740  0.1178
 1817CHOL    R519953  22.862  10.681   6.946  0.0046 -0.0345  0.1761
 1817CHOL    C119954  23.060  10.927   7.161 -0.0206 -0.0082  0.1697
 1817CHOL    C219955  23.337  10.897   7.091  0.0673  0.1301 -0.0393
 1818CHOL   ROH19956   7.669   7.997  14.237 -0.0218 -0.1424 -0.0132
 1818CHOL    R119957   7.578   7.984  14.505 -0.0126 -0.0086 -0.0035
 1818CHOL    R219958   7.579   8.203  14.672 -0.1312  0.1074 -0.1536
 1818CHOL    R319959   7.316   8.140  14.703 -0.0969 -0.0158 -0.1088
 1818CHOL    R419960   7.380   8.308  14.935 -0.1605  0.0940 -0.1701
 1818CHOL    R519961   7.289   8.109  14.939 -0.0597  0.0491 -0.0958
 1818CHOL    C119962   7.017   8.309  15.116 -0.1453 -0.0295 -0.1379
 1818CHOL    C219963   7.077   8.267  15.549 -0.2703 -0.0270  0.4635
 1819CHOL   ROH19964  22.713  32.279   9.140  0.0631 -0.0722 -0.0877
 1819CHOL    R119965  22.781  32.554   9.137  0.0778 -0.0763 -0.0953
 1819CHOL    R219966  22.638  32.740   8.991  0.0818 -0.0709 -0.0924
 1819CHOL    R319967  22.620  32.867   9.231  0.0987 -0.0658 -0.0939
 1819CHOL    R419968  22.498  33.052   9.040 -0.0202 -0.1205 -0.0707
 1819CHOL    R519969  22.659  33.098   9.179  0.0000 -0.0546 -0.1155
 1819CHOL    C119970  22.399  33.353   9.293 -0.0633 -0.1441 -0.0593
 1819CHOL    C219971  22.015  33.645   9.404  0.2113 -0.0249 -0.1858
 1820CHOL   ROH19972  16.223  16.090  17.933 -0.1390 -0.0462 -0.0268
 1820CHOL    R119973  16.176  15.989  17.672 -0.3462 -0.0939  0.0278
 1820CHOL    R219974  15.925  15.987  17.557 -0.3636  0.3070  0.0512
 1820CHOL    R319975  16.052  16.120  17.356 -0.1330 -0.0243 -0.0277
 1820CHOL    R419976  15.775  16.091  17.263 -0.1556  0.2874 -0.0631
 1820CHOL    R519977  15.956  16.031  17.156 -0.2131 -0.0484  0.0214
 1820CHOL    C119978  15.807  16.276  16.904  0.1819 -0.0352 -0.2035
 1820CHOL    C219979  15.598  16.288  16.574 -0.3717  0.1752  0.0444
 1821CHOL   ROH19980  19.585  19.355  11.745  0.0062  0.3080  0.4052
 1821CHOL    R119981  19.854  19.304  11.674 -0.1352 -0.0750  0.1281
 1821CHOL    R219982  20.065  19.445  11.782  0.1518 -0.1062 -0.3764
 1821CHOL    R319983  20.157  19.196  11.844 -0.0173 -0.1003 -0.0968
 1821CHOL    R419984  20.392  19.370  11.867  0.1333 -0.2535 -0.4327
 1821CHOL    R519985  20.376  19.188  11.748 -0.0669 -0.3979 -0.1910
 1821CHOL    C119986  20.667  19.092  11.975 -0.0364 -0.3338 -0.2034
 1821CHOL    C219987  21.121  18.912  12.137  0.0011 -0.1085  0.4432
 1822CHOL   ROH19988  27.240  30.967   7.928  0.0973 -0.0487 -0.0153
 1822CHOL    R119989  27.178  30.724   7.795  0.0582 -0.0368 -0.0187
 1822CHOL    R219990  27.370  30.540   7.724  0.0353 -0.0355 -0.0803
 1822CHOL    R319991  27.212  30.369   7.864  0.0648 -0.0433 -0.0557
 1822CHOL    R419992  27.409  30.196   7.731  0.0143 -0.0395 -0.1389
 1822CHOL    R519993  27.192  30.177   7.722  0.0092 -0.0225 -0.0765
 1822CHOL    C119994  27.283  29.836   7.867  0.0305 -0.0489 -0.1499
 1822CHOL    C219995  27.382  29.510   7.560 -0.3670 -0.3179 -0.2382
 1823CHOL   ROH19996  30.436  28.521   5.196  0.2177  0.2548  0.1455
 1823CHOL    R119997  30.401  28.373   5.435  0.2686  0.1804  0.1073
 1823CHOL    R219998  30.214  28.171   5.458  0.2182  0.2265  0.1083
 1823CHOL    R319999  30.429  28.025   5.538  0.2075  0.1357 -0.0281
 1823CHOL    R420000  30.201  27.904   5.677  0.2029  0.0364 -0.1225
 1823CHOL    R520001  30.386  27.976   5.768  0.2138 -0.0608 -0.0681
 1823CHOL    C120002  30.396  27.611   5.879  0.1842 -0.1593 -0.3847
 1823CHOL    C220003  30.272  27.288   6.048 -0.0448  0.0858 -0.1948
 1824CHOL   ROH20004  28.250   8.911   2.487  0.1146 -0.1928  0.2569
 1824CHOL    R120005  28.384   9.017   2.713  0.1066 -0.0383  0.1897
 1824CHOL    R220006  28.610   9.174   2.691 -0.0113  0.1185  0.0815
 1824CHOL    R320007  28.464   9.348   2.841 -0.0913  0.0536  0.0796
 1824CHOL    R420008  28.712   9.493   2.778 -0.0687  0.0916  0.2499
 1824CHOL    R520009  28.627   9.461   2.976 -0.1608  0.0114  0.1990
 1824CHOL    C120010  28.634   9.842   2.969 -0.1776  0.0152  0.3463
 1824CHOL    C220011  28.725  10.034   3.352  0.0027  0.0882 -0.0375
 1825CHOL   ROH20012  20.172  27.623  16.113 -0.1667  0.0942 -0.2423
 1825CHOL    R120013  19.994  27.426  16.013 -0.1446  0.0612 -0.2172
 1825CHOL    R220014  19.927  27.200  16.157  0.0187 -0.0162 -0.2616
 1825CHOL    R320015  19.673  27.286  16.112 -0.0385 -0.0973 -0.0955
 1825CHOL    R420016  19.664  26.998  16.061  0.0053 -0.1091 -0.0332
 1825CHOL    R520017  19.598  27.156  15.926 -0.1366 -0.1537 -0.0165
 1825CHOL    C120018  19.272  26.961  15.963 -0.0557 -0.2385  0.2556
 1825CHOL    C220019  19.103  26.679  15.852 -0.2688 -0.1204 -0.1756
 1826CHOL   ROH20020  26.097  21.464   6.524 -0.0218 -0.0503 -0.3243
 1826CHOL    R120021  25.919  21.663   6.617  0.0158 -0.0366 -0.2826
 1826CHOL    R220022  25.803  21.849   6.450 -0.0643 -0.0726 -0.2658
 1826CHOL    R320023  25.572  21.757   6.559 -0.0132 -0.0562 -0.1431
 1826CHOL    R420024  25.496  22.006   6.424 -0.0803 -0.0866 -0.1656
 1826CHOL    R520025  25.458  21.954   6.633  0.0134 -0.0423 -0.1362
 1826CHOL    C120026  25.100  22.010   6.512 -0.0415 -0.0789  0.0080
 1826CHOL    C220027  24.809  22.318   6.560 -0.0562  0.2558  0.0527
 1827CHOL   ROH20028  15.409   2.891  13.345  0.0436 -0.2115 -0.3001
 1827CHOL    R120029  15.455   2.936  13.621 -0.0650 -0.0980 -0.2999
 1827CHOL    R220030  15.523   2.733  13.795 -0.2352 -0.0450 -0.1683
 1827CHOL    R320031  15.732   2.897  13.853 -0.1897 -0.1088 -0.1522
 1827CHOL    R420032  15.627   2.817  14.114 -0.2830 -0.0123 -0.1615
 1827CHOL    R520033  15.660   3.021  14.045 -0.1913 -0.0402 -0.1977
 1827CHOL    C120034  15.883   3.020  14.354 -0.2680 -0.0532 -0.1425
 1827CHOL    C220035  15.611   3.147  14.669  0.0162  0.2221 -0.0443
 1828CHOL   ROH20036  22.273  31.527   7.191 -0.0371  0.3460  0.1733
 1828CHOL    R120037  22.468  31.329   7.245 -0.3134  0.0479  0.0957
 1828CHOL    R220038  22.737  31.389   7.273 -0.1659 -0.3972 -0.2978
 1828CHOL    R320039  22.707  31.260   7.510 -0.0964 -0.1379 -0.1461
 1828CHOL    R420040  22.997  31.295   7.480 -0.1125 -0.0643 -0.2110
 1828CHOL    R520041  22.892  31.108   7.518 -0.0391 -0.0607  0.0121
 1828CHOL    C120042  23.121  31.119   7.824 -0.0157  0.3734 -0.0181
 1828CHOL    C220043  23.322  30.907   8.107 -0.0447  0.1671 -0.1429
 1829CHOL   ROH20044  22.624  34.266  11.673 -0.2015 -0.1826  0.0076
 1829CHOL    R120045  22.488  34.394  11.461 -0.1125 -0.1350 -0.0206
 1829CHOL    R220046  22.619  34.539  11.266 -0.0317 -0.0849  0.0704
 1829CHOL    R320047  22.485  34.373  11.098  0.0437 -0.0476 -0.0271
 1829CHOL    R420048  22.527  34.618  10.942 -0.0668  0.0622  0.1162
 1829CHOL    R520049  22.337  34.518  10.977 -0.0210 -0.0443  0.0573
 1829CHOL    C120050  22.347  34.509  10.596 -0.0165  0.1833  0.0515
 1829CHOL    C220051  22.246  34.514  10.288  0.0408  0.1094  0.2062
 1830CHOL   ROH20052  27.299  20.605   3.789  0.1912 -0.0994  0.0463
 1830CHOL    R120053  27.368  20.664   3.521  0.0895 -0.0685  0.0266
 1830CHOL    R220054  27.247  20.541   3.306  0.0916 -0.1318  0.0606
 1830CHOL    R320055  27.199  20.797   3.228 -0.0561 -0.1563  0.0704
 1830CHOL    R420056  27.195  20.642   2.979  0.1921 -0.1249  0.0465
 1830CHOL    R520057  27.315  20.819   3.020  0.0395 -0.0410  0.1358
 1830CHOL    C120058  27.119  20.941   2.716  0.1121 -0.1440  0.0474
 1830CHOL    C220059  26.935  20.919   2.435  0.0351 -0.0862 -0.0044
 1831CHOL   ROH20060   3.228  18.653   5.003  0.0758 -0.0811 -0.1794
 1831CHOL    R120061   3.112  18.702   5.257  0.0823 -0.0061 -0.1910
 1831CHOL    R220062   3.059  18.500   5.437 -0.0175  0.0345 -0.1756
 1831CHOL    R320063   3.208  18.655   5.605  0.0405 -0.0156 -0.1804
 1831CHOL    R420064   3.118  18.430   5.771  0.0401 -0.0309 -0.1992
 1831CHOL    R520065   3.093  18.643   5.815  0.0809 -0.0334 -0.1585
 1831CHOL    C120066   3.291  18.535   6.122  0.1280 -0.1158 -0.2174
 1831CHOL    C220067   3.117  18.276   6.341  0.1550  0.0270  0.1268
 1832CHOL   ROH20068  15.567  25.373  20.907  0.0271 -0.0030 -0.1132
 1832CHOL    R120069  15.475  25.350  20.640  0.0897  0.0393 -0.1381
 1832CHOL    R220070  15.209  25.375  20.571  0.0851 -0.1135 -0.1756
 1832CHOL    R320071  15.304  25.564  20.400 -0.0114  0.0173 -0.0856
 1832CHOL    R420072  15.012  25.581  20.376 -0.0202 -0.1457 -0.1040
 1832CHOL    R520073  15.154  25.555  20.213  0.0109  0.0093 -0.1030
 1832CHOL    C120074  14.987  25.879  20.102 -0.1719 -0.0417  0.0221
 1832CHOL    C220075  14.712  25.725  19.837 -0.0201 -0.1007  0.0031
 1833CHOL   ROH20076  10.376  10.223  15.286  0.2979 -0.0996 -0.0286
 1833CHOL    R120077  10.422  10.355  15.532  0.1041 -0.0584 -0.0138
 1833CHOL    R220078  10.221  10.480  15.674 -0.0651 -0.2942 -0.0430
 1833CHOL    R320079  10.308  10.321  15.876  0.0815 -0.2061 -0.0356
 1833CHOL    R420080  10.136  10.519  16.007  0.0757 -0.2246 -0.0145
 1833CHOL    R520081  10.341  10.471  16.060  0.1171 -0.1407 -0.0952
 1833CHOL    C120082  10.167  10.392  16.390  0.2956 -0.1013  0.0092
 1833CHOL    C220083  10.193  10.587  16.780  0.1880  0.2890  0.0337
 1834CHOL   ROH20084  33.799   5.803   7.096  0.0304  0.1442 -0.1661
 1834CHOL    R120085  33.772   6.052   7.228 -0.0038  0.0852 -0.0615
 1834CHOL    R220086  33.562   6.107   7.399  0.0576 -0.0601  0.0611
 1834CHOL    R320087  33.762   6.169   7.573  0.1177 -0.0446 -0.0136
 1834CHOL    R420088  33.515   6.229   7.719  0.1640 -0.1763  0.1214
 1834CHOL    R520089  33.684   6.364   7.687  0.1019 -0.1073  0.0842
 1834CHOL    C120090  33.676   6.358   8.068  0.2818 -0.2296  0.0864
 1834CHOL    C220091  33.438   6.538   8.277  0.1267 -0.2424  0.1081
 1835CHOL   ROH20092   3.104  15.956   5.320  0.0147  0.0829  0.0459
 1835CHOL    R120093   3.017  15.896   5.582 -0.0529 -0.0118  0.0025
 1835CHOL    R220094   2.997  16.089   5.780  0.1302 -0.1246  0.1345
 1835CHOL    R320095   2.742  15.996   5.799  0.0370  0.1123  0.0597
 1835CHOL    R420096   2.782  16.155   6.042  0.1937 -0.1190  0.1853
 1835CHOL    R520097   2.713  15.948   6.032 -0.0113 -0.0439  0.0214
 1835CHOL    C120098   2.417  16.106   6.213  0.1432  0.1064  0.1446
 1835CHOL    C220099   2.033  16.085   6.489 -0.1806  0.1650 -0.0272
 1836CHOL   ROH20100  33.462   9.319   3.155  0.1239 -0.2289 -0.1281
 1836CHOL    R120101  33.471   9.386   3.430  0.1354 -0.1605 -0.1450
 1836CHOL    R220102  33.597   9.613   3.524 -0.2039  0.0749 -0.2480
 1836CHOL    R320103  33.355   9.661   3.639 -0.2368 -0.3111 -0.1479
 1836CHOL    R420104  33.550   9.704   3.854 -0.1850  0.2913 -0.3045
 1836CHOL    R520105  33.376   9.572   3.861  0.0832 -0.0624 -0.0744
 1836CHOL    C120106  33.296   9.803   4.154 -0.2052  0.0551 -0.2435
 1836CHOL    C220107  33.179   9.769   4.525 -0.0129 -0.0694 -0.2460
 1837CHOL   ROH20108  22.388  25.981   7.351 -0.1894  0.0278  0.2116
 1837CHOL    R120109  22.657  25.911   7.407 -0.2115 -0.1514  0.0984
 1837CHOL    R220110  22.830  26.080   7.540  0.0046 -0.2014 -0.1183
 1837CHOL    R320111  22.862  25.866   7.705 -0.0706 -0.1170  0.0070
 1837CHOL    R420112  23.120  26.006   7.713  0.0225 -0.2764 -0.1802
 1837CHOL    R520113  23.087  25.795   7.667 -0.1297 -0.2865 -0.0335
 1837CHOL    C120114  23.318  25.762   7.969 -0.0374 -0.2412 -0.0988
 1837CHOL    C220115  23.425  25.388   8.114 -0.3125 -0.2529 -0.2118
 1838CHOL   ROH20116   7.639  29.782  17.047 -0.2563 -0.0115 -0.0484
 1838CHOL    R120117   7.453  29.697  17.243 -0.2800  0.1106 -0.0170
 1838CHOL    R220118   7.531  29.594  17.487 -0.3006 -0.1611 -0.1230
 1838CHOL    R320119   7.368  29.789  17.585  0.0111 -0.0006  0.0869
 1838CHOL    R420120   7.416  29.610  17.813 -0.1292 -0.2275 -0.0587
 1838CHOL    R520121   7.222  29.673  17.736 -0.0800  0.0952  0.0729
 1838CHOL    C120122   7.196  29.802  18.094  0.2634 -0.1156  0.1764
 1838CHOL    C220123   6.821  29.884  18.276 -0.1677  0.0946 -0.0760
 1839CHOL   ROH20124  22.082  34.566   8.448 -0.1443 -0.1635 -0.0354
 1839CHOL    R120125  22.173  34.429   8.679 -0.0172 -0.1259 -0.0631
 1839CHOL    R220126  22.007  34.272   8.833  0.0302  0.0253  0.1451
 1839CHOL    R320127  22.198  34.083   8.788 -0.1146 -0.0977  0.0472
 1839CHOL    R420128  22.170  34.092   9.080  0.2811  0.1610  0.0801
 1839CHOL    R520129  22.355  34.113   8.966  0.1396 -0.0172 -0.1872
 1839CHOL    C120130  22.443  33.810   9.181  0.2911  0.1229 -0.0494
 1839CHOL    C220131  22.448  33.987   9.502 -0.2618  0.0092 -0.1230
 1840CHOL   ROH20132  31.672   8.228   3.364 -0.0991  0.0230 -0.1374
 1840CHOL    R120133  31.547   8.373   3.572  0.0387 -0.0988  0.0324
 1840CHOL    R220134  31.685   8.470   3.791  0.2175 -0.0684 -0.0934
 1840CHOL    R320135  31.573   8.706   3.716 -0.0027 -0.1163  0.0808
 1840CHOL    R420136  31.561   8.707   4.009  0.4965 -0.1023  0.1051
 1840CHOL    R520137  31.394   8.739   3.872  0.2483 -0.1754  0.3855
 1840CHOL    C120138  31.383   9.067   4.066  0.4528 -0.1669  0.3841
 1840CHOL    C220139  31.178   9.111   4.283  0.3068  0.4006  0.0987
 1841CHOL   ROH20140   6.336  18.095   9.974  0.1875 -0.2141  0.2134
 1841CHOL    R120141   6.118  18.117  10.154  0.0629  0.1307  0.0251
 1841CHOL    R220142   5.865  18.191  10.073  0.0933 -0.1200 -0.3109
 1841CHOL    R320143   5.793  17.960  10.196  0.0804  0.1318  0.1639
 1841CHOL    R420144   5.539  18.094  10.134  0.0716 -0.1862 -0.5289
 1841CHOL    R520145   5.603  18.021  10.329 -0.1500  0.3389 -0.2495
 1841CHOL    C120146   5.281  17.820  10.285  0.0467  0.0110 -0.2100
 1841CHOL    C220147   5.065  18.096  10.365 -0.3709 -0.1235  0.0507
 1842CHOL   ROH20148  31.689   7.263   4.579  0.0597  0.0408  0.0477
 1842CHOL    R120149  31.756   7.407   4.813  0.0971  0.2264 -0.0753
 1842CHOL    R220150  31.722   7.680   4.835 -0.2242  0.1970 -0.1634
 1842CHOL    R320151  31.581   7.612   5.057  0.0619  0.1124 -0.0046
 1842CHOL    R420152  31.604   7.904   5.070 -0.1791  0.1342 -0.0810
 1842CHOL    R520153  31.660   7.763   5.226  0.1047  0.2100 -0.1124
 1842CHOL    C120154  31.403   7.972   5.415  0.1163  0.0184  0.1162
 1842CHOL    C220155  31.456   8.223   5.824  0.0667 -0.2419 -0.2264
 1843CHOL   ROH20156  27.305   8.731   2.606 -0.0615  0.1862  0.0801
 1843CHOL    R120157  27.329   8.922   2.813 -0.0301  0.0839  0.1703
 1843CHOL    R220158  27.185   8.905   3.048 -0.0459  0.0064  0.1528
 1843CHOL    R320159  27.431   8.921   3.162 -0.0489 -0.1001  0.1767
 1843CHOL    R420160  27.249   9.038   3.361  0.0004  0.1408  0.0865
 1843CHOL    R520161  27.429   9.131   3.278  0.0786 -0.0296  0.0570
 1843CHOL    C120162  27.517   9.132   3.650  0.0245  0.1188  0.0704
 1843CHOL    C220163  27.518   9.245   3.961  0.0020 -0.0996 -0.1721
 1844CHOL   ROH20164   6.105  12.947  11.851  0.0361 -0.1094 -0.0387
 1844CHOL    R120165   5.965  12.907  12.094  0.0791 -0.1491 -0.0210
 1844CHOL    R220166   5.737  13.047  12.159  0.1665 -0.0655  0.1009
 1844CHOL    R320167   5.632  12.798  12.192  0.0508 -0.0283  0.0178
 1844CHOL    R420168   5.434  12.980  12.311  0.1626  0.0221  0.1328
 1844CHOL    R520169   5.526  12.807  12.407  0.0975 -0.0645  0.0431
 1844CHOL    C120170   5.159  12.707  12.430  0.0516  0.1082  0.0732
 1844CHOL    C220171   4.985  12.513  12.691 -0.0018  0.0250  0.0492
 1845CHOL   ROH20172  22.012   1.247   9.069 -0.2526 -0.0384  0.3223
 1845CHOL    R120173  22.251   1.096   9.059 -0.2226  0.0177  0.1891
 1845CHOL    R220174  22.429   1.084   9.270 -0.1438 -0.0075  0.1208
 1845CHOL    R320175  22.395   0.816   9.242 -0.0938 -0.0068  0.0509
 1845CHOL    R420176  22.606   0.844   9.443 -0.1131 -0.0188  0.0745
 1845CHOL    R520177  22.616   0.726   9.260 -0.0782  0.0286  0.0450
 1845CHOL    C120178  22.678   0.452   9.518 -0.0484 -0.0247 -0.0182
 1845CHOL    C220179  22.938   0.222   9.722  0.1440 -0.0943 -0.0568
 1846CHOL   ROH20180  20.685  13.165   9.607 -0.2306  0.2205 -0.0225
 1846CHOL    R120181  20.937  13.105   9.721 -0.2150  0.2152 -0.0592
 1846CHOL    R220182  21.167  13.244   9.656 -0.1986  0.1310 -0.1861
 1846CHOL    R320183  21.183  13.278   9.925 -0.1212  0.2559 -0.2061
 1846CHOL    R420184  21.462  13.272   9.834 -0.1417 -0.0357 -0.2530
 1846CHOL    R520185  21.374  13.148   9.990 -0.2234  0.1218 -0.1730
 1846CHOL    C120186  21.650  13.320  10.190 -0.0368 -0.0156 -0.3107
 1846CHOL    C220187  22.021  13.205  10.208 -0.1370  0.0727  0.0223
 1847CHOL   ROH20188  34.188  14.624   5.582  0.0742 -0.0952  0.1295
 1847CHOL    R120189  34.447  14.526   5.526  0.0519 -0.1854  0.1847
 1847CHOL    R220190  34.491  14.299   5.375  0.0109 -0.0706  0.0016
 1847CHOL    R320191  34.649  14.465   5.229  0.1854 -0.0232  0.2409
 1847CHOL    R420192  34.761  14.198   5.184 -0.2441 -0.1188 -0.3396
 1847CHOL    R520193  34.869  14.374   5.253  0.0641 -0.4114 -0.0498
 1847CHOL    C120194  35.067  14.295   4.936 -0.2293 -0.1023 -0.3136
 1847CHOL    C220195   0.054  14.435   4.834 -0.1549 -0.1387 -0.0053
 1848CHOL   ROH20196   8.811  20.078  16.002 -0.1422 -0.1519  0.0405
 1848CHOL    R120197   8.628  20.029  16.213 -0.1935 -0.1795 -0.0105
 1848CHOL    R220198   8.355  20.050  16.180 -0.1912 -0.2899 -0.1057
 1848CHOL    R320199   8.356  19.796  16.278 -0.1270 -0.2706 -0.0552
 1848CHOL    R420200   8.099  19.908  16.365 -0.1086 -0.2832  0.0145
 1848CHOL    R520201   8.250  19.814  16.492 -0.0524 -0.2403 -0.0204
 1848CHOL    C120202   7.952  19.587  16.564 -0.0004 -0.2612  0.1316
 1848CHOL    C220203   7.625  19.604  16.904 -0.1297  0.0858  0.1232
 1849CHOL   ROH20204   5.503  19.270  16.929  0.0088 -0.2378 -0.0876
 1849CHOL    R120205   5.735  19.180  16.795  0.1001 -0.0755 -0.0399
 1849CHOL    R220206   5.779  19.225  16.526  0.1253 -0.0432 -0.0305
 1849CHOL    R320207   6.013  19.332  16.615  0.0325  0.1191  0.0193
 1849CHOL    R420208   6.047  19.311  16.324  0.1376  0.0746  0.0359
 1849CHOL    R520209   6.181  19.231  16.477  0.1379  0.1907  0.0952
 1849CHOL    C120210   6.421  19.462  16.290  0.0575  0.2955  0.1208
 1849CHOL    C220211   6.449  19.421  15.945 -0.0069 -0.0204  0.0593
 1850CHOL   ROH20212  28.910  25.654   6.532 -0.1906  0.1925  0.0890
 1850CHOL    R120213  28.856  25.636   6.255  0.0229  0.0725  0.0541
 1850CHOL    R220214  28.756  25.847   6.109  0.0505 -0.0185 -0.0965
 1850CHOL    R320215  28.972  25.799   5.952  0.1864  0.0079  0.0811
 1850CHOL    R420216  28.798  25.969   5.788  0.2571 -0.0885 -0.0967
 1850CHOL    R520217  28.882  25.776   5.731  0.3616 -0.0780  0.0171
 1850CHOL    C120218  29.026  25.995   5.454  0.5053 -0.1052  0.0699
 1850CHOL    C220219  29.202  26.281   5.228  0.0173  0.1117  0.0988
 1851CHOL   ROH20220  21.648   8.889   9.960  0.2411 -0.0753 -0.2274
 1851CHOL    R120221  21.878   9.027  10.049  0.1537 -0.0551 -0.0293
 1851CHOL    R220222  21.931   9.072  10.316  0.0766 -0.3207  0.0330
 1851CHOL    R320223  22.168   8.953  10.257  0.1487 -0.1371 -0.0514
 1851CHOL    R420224  22.218   9.098  10.507  0.0942 -0.1896 -0.0113
 1851CHOL    R520225  22.333   9.113  10.322  0.0504 -0.0463 -0.0263
 1851CHOL    C120226  22.608   9.001  10.562  0.1728  0.0591 -0.1161
 1851CHOL    C220227  22.614   9.247  10.831 -0.0722 -0.1644 -0.1906
 1852CHOL   ROH20228  18.966  22.585  13.337 -0.5420 -0.2788  0.1859
 1852CHOL    R120229  19.193  22.596  13.505 -0.2279 -0.4398 -0.2172
 1852CHOL    R220230  19.184  22.700  13.761  0.4170  0.0420 -0.3753
 1852CHOL    R320231  19.289  22.458  13.828  0.0328 -0.0626 -0.1305
 1852CHOL    R420232  19.387  22.642  14.034  0.3977  0.0126 -0.3669
 1852CHOL    R520233  19.508  22.510  13.910  0.1446 -0.3334 -0.2517
 1852CHOL    C120234  19.605  22.383  14.257  0.0254 -0.1026 -0.1320
 1852CHOL    C220235  19.947  22.316  14.466 -0.0971 -0.1995  0.1179
 1853CHOL   ROH20236  12.834  11.946  18.361  0.0238  0.1968  0.1090
 1853CHOL    R120237  12.783  12.043  18.101 -0.1118 -0.1735 -0.0057
 1853CHOL    R220238  12.939  12.237  17.981 -0.5255  0.0887 -0.1270
 1853CHOL    R320239  12.959  12.052  17.782 -0.0085 -0.0595  0.0534
 1853CHOL    R420240  13.071  12.298  17.667 -0.6077  0.1301 -0.1535
 1853CHOL    R520241  12.912  12.175  17.582 -0.2821 -0.3649 -0.0769
 1853CHOL    C120242  13.166  12.160  17.298 -0.1703  0.0151 -0.0000
 1853CHOL    C220243  13.368  12.102  16.941  0.1229  0.4280 -0.1903
 1854CHOL   ROH20244  31.131   8.853   7.713  0.1836 -0.0545  0.0371
 1854CHOL    R120245  31.319   8.647   7.662  0.1245 -0.0591 -0.1642
 1854CHOL    R220246  31.247   8.382   7.639  0.1078 -0.0721  0.0306
 1854CHOL    R320247  31.376   8.400   7.401 -0.2356 -0.1440 -0.1652
 1854CHOL    R420248  31.410   8.120   7.483  0.3275  0.0036  0.1312
 1854CHOL    R520249  31.569   8.259   7.427  0.0313  0.1988 -0.2462
 1854CHOL    C120250  31.627   7.985   7.168  0.1330 -0.0197  0.0060
 1854CHOL    C220251  31.871   7.836   7.009  0.1183 -0.0508 -0.0969
 1855CHOL   ROH20252  17.033  15.736  13.996 -0.0495 -0.0027 -0.0051
 1855CHOL    R120253  17.123  15.508  14.138  0.1894  0.0236 -0.1122
 1855CHOL    R220254  17.373  15.494  14.254  0.1307  0.3119  0.0554
 1855CHOL    R320255  17.231  15.434  14.477  0.0584 -0.0671 -0.0900
 1855CHOL    R420256  17.509  15.371  14.547  0.0881  0.1803  0.0197
 1855CHOL    R520257  17.337  15.237  14.564  0.2266 -0.0325 -0.2161
 1855CHOL    C120258  17.455  15.242  14.927 -0.0051 -0.2521 -0.1373
 1855CHOL    C220259  17.578  15.052  15.122 -0.1363  0.1212 -0.0338
 1856CHOL   ROH20260   3.733  25.207  11.134 -0.1777  0.0935 -0.0757
 1856CHOL    R120261   3.507  25.104  10.999 -0.2683  0.2113 -0.0153
 1856CHOL    R220262   3.405  24.852  11.049 -0.0312  0.0339 -0.3996
 1856CHOL    R320263   3.174  24.988  11.090 -0.0811 -0.2035  0.1564
 1856CHOL    R420264   3.089  24.725  10.991 -0.0091 -0.0374 -0.3652
 1856CHOL    R520265   3.032  24.919  10.909 -0.2210  0.1211  0.1382
 1856CHOL    C120266   2.687  24.779  10.996 -0.0431 -0.3011  0.1765
 1856CHOL    C220267   2.482  24.476  11.025 -0.3218  0.0822  0.2099
 1857CHOL   ROH20268   5.267   4.607  11.778  0.1324 -0.0639 -0.0858
 1857CHOL    R120269   5.035   4.749  11.856  0.1114 -0.0371 -0.1975
 1857CHOL    R220270   4.879   4.673  12.071  0.0260  0.0086 -0.2434
 1857CHOL    R320271   4.921   4.930  12.150  0.0105  0.0198 -0.2708
 1857CHOL    R420272   4.751   4.814  12.360  0.0033  0.0364 -0.2668
 1857CHOL    R520273   4.713   4.997  12.248  0.0019  0.0220 -0.2903
 1857CHOL    C120274   4.717   5.136  12.603 -0.0244  0.0632 -0.3061
 1857CHOL    C220275   4.855   5.061  12.885 -0.1613 -0.1356 -0.1696
 1858CHOL   ROH20276   1.621  30.639  15.998  0.0804 -0.0112 -0.1022
 1858CHOL    R120277   1.632  30.636  15.716  0.1580 -0.0309 -0.0993
 1858CHOL    R220278   1.706  30.857  15.567  0.0818 -0.0044 -0.0990
 1858CHOL    R320279   1.886  30.683  15.460  0.2020  0.0804 -0.0352
 1858CHOL    R420280   1.868  30.902  15.265 -0.2746 -0.2075 -0.3246
 1858CHOL    R520281   1.842  30.689  15.224 -0.0398 -0.3017 -0.0034
 1858CHOL    C120282   2.132  30.766  14.989 -0.3693 -0.2456 -0.3959
 1858CHOL    C220283   2.129  30.748  14.505 -0.1605  0.4144  0.0422
 1859CHOL   ROH20284  19.637   5.660  15.766 -0.0420 -0.1917 -0.0421
 1859CHOL    R120285  19.669   5.558  15.503 -0.0856 -0.1792 -0.0522
 1859CHOL    R220286  19.485   5.605  15.303 -0.0609 -0.0733 -0.0496
 1859CHOL    R320287  19.703   5.697  15.169 -0.0167 -0.1604 -0.0375
 1859CHOL    R420288  19.520   5.606  14.959 -0.0101 -0.1572 -0.0448
 1859CHOL    R520289  19.728   5.545  14.984 -0.0298 -0.2069 -0.0010
 1859CHOL    C120290  19.745   5.692  14.633  0.0611 -0.2878 -0.0307
 1859CHOL    C220291  19.850   5.387  14.324  0.2328  0.2268  0.1516
 1860CHOL   ROH20292  32.385  25.827   8.345  0.1603 -0.3220 -0.2473
 1860CHOL    R120293  32.493  26.079   8.276  0.1678 -0.2396  0.0569
 1860CHOL    R220294  32.764  26.123   8.251  0.1558 -0.2974 -0.1924
 1860CHOL    R320295  32.694  26.215   8.005 -0.1068  0.1520  0.0455
 1860CHOL    R420296  32.954  26.339   8.059  0.1301 -0.2457 -0.1599
 1860CHOL    R520297  32.771  26.442   8.002  0.1648  0.0648  0.2680
 1860CHOL    C120298  32.999  26.551   7.717 -0.1327  0.2063  0.0823
 1860CHOL    C220299  33.057  26.886   7.610  0.1678 -0.0845  0.3503
 1861CHOL   ROH20300  20.854  15.913   6.927  0.0437  0.1634 -0.0272
 1861CHOL    R120301  21.097  15.977   7.057  0.0250  0.0783  0.0497
 1861CHOL    R220302  21.172  15.863   7.297 -0.0310 -0.0446  0.0091
 1861CHOL    R320303  21.397  15.798   7.160 -0.0104  0.0009  0.0205
 1861CHOL    R420304  21.480  15.799   7.441 -0.0565 -0.1068  0.0353
 1861CHOL    R520305  21.573  15.908   7.278 -0.0267 -0.0479  0.0911
 1861CHOL    C120306  21.870  15.699   7.395 -0.0517 -0.1006  0.0612
 1861CHOL    C220307  22.124  15.487   7.542 -0.1626  0.1026  0.1418
 1862CHOL   ROH20308  32.860  25.193   7.608 -0.1496  0.0425 -0.2759
 1862CHOL    R120309  32.912  25.404   7.427 -0.0793  0.0652 -0.2301
 1862CHOL    R220310  33.055  25.629   7.498 -0.0648  0.0352 -0.1608
 1862CHOL    R320311  33.206  25.562   7.282 -0.0249  0.0483 -0.1371
 1862CHOL    R420312  33.311  25.822   7.368  0.0591 -0.0294 -0.0113
 1862CHOL    R520313  33.242  25.770   7.168  0.1011  0.0729 -0.0513
 1862CHOL    C120314  33.602  25.871   7.090  0.1703 -0.0541  0.0980
 1862CHOL    C220315  33.957  25.945   7.135  0.0698  0.4082 -0.0372
 1863CHOL   ROH20316   9.723  15.296  15.736  0.1160 -0.2710  0.1812
 1863CHOL    R120317   9.594  15.045  15.715 -0.0747 -0.1878  0.3379
 1863CHOL    R220318   9.360  14.986  15.849 -0.3682  0.2306  0.0221
 1863CHOL    R320319   9.271  14.923  15.600  0.0112 -0.0638 -0.0428
 1863CHOL    R420320   9.137  14.732  15.777 -0.2426  0.1325 -0.0216
 1863CHOL    R520321   9.256  14.684  15.601  0.0280 -0.0648  0.2108
 1863CHOL    C120322   8.924  14.525  15.502  0.1867 -0.2013 -0.1078
 1863CHOL    C220323   8.797  14.301  15.203 -0.1389 -0.0110 -0.2346
 1864CHOL   ROH20324  23.237  21.234   4.197 -0.3053 -0.2588  0.0666
 1864CHOL    R120325  23.411  21.027   4.111 -0.1402 -0.0864 -0.0176
 1864CHOL    R220326  23.683  21.064   4.084 -0.1420  0.0858  0.1891
 1864CHOL    R320327  23.696  20.848   4.249 -0.1309 -0.0627 -0.0049
 1864CHOL    R420328  23.944  20.837   4.092 -0.0589  0.1774  0.0879
 1864CHOL    R520329  23.798  20.677   4.114 -0.0090  0.0998 -0.1222
 1864CHOL    C120330  24.108  20.502   4.251 -0.0004  0.0914 -0.1530
 1864CHOL    C220331  24.320  20.197   4.195  0.1054  0.1769  0.1690
 1865CHOL   ROH20332  26.749  17.660   4.193 -0.2950 -0.0874  0.1423
 1865CHOL    R120333  26.605  17.531   3.987 -0.0332 -0.0067 -0.0946
 1865CHOL    R220334  26.329  17.543   3.968 -0.0364 -0.2866 -0.2411
 1865CHOL    R320335  26.382  17.632   3.717  0.0154  0.0651 -0.1081
 1865CHOL    R420336  26.105  17.537   3.705  0.0986 -0.1522 -0.3600
 1865CHOL    R520337  26.269  17.477   3.574  0.2146  0.1436 -0.3541
 1865CHOL    C120338  26.025  17.617   3.316  0.2260  0.2564 -0.3043
 1865CHOL    C220339  25.731  17.573   3.162 -0.3517 -0.1335  0.2719
 1866CHOL   ROH20340   3.242  21.680   5.789 -0.1753  0.0186 -0.1021
 1866CHOL    R120341   3.054  21.528   5.938  0.0091  0.0233  0.1395
 1866CHOL    R220342   3.047  21.530   6.214  0.0703  0.3811  0.1422
 1866CHOL    R320343   2.787  21.598   6.175 -0.0084  0.0686  0.1065
 1866CHOL    R420344   2.807  21.541   6.462  0.1109  0.4612  0.1782
 1866CHOL    R520345   2.665  21.453   6.321  0.1686  0.1345  0.3208
 1866CHOL    C120346   2.423  21.611   6.570  0.0607  0.2141  0.1656
 1866CHOL    C220347   2.236  21.792   6.723 -0.0312 -0.3114  0.0111
 1867CHOL   ROH20348  29.634  12.203   3.936  0.0183 -0.1589 -0.1300
 1867CHOL    R120349  29.483  11.983   3.842  0.0698 -0.2409 -0.0226
 1867CHOL    R220350  29.410  11.956   3.577 -0.2061 -0.2188  0.0497
 1867CHOL    R320351  29.531  11.713   3.602 -0.0032 -0.1402 -0.1510
 1867CHOL    R420352  29.313  11.668   3.411 -0.1007 -0.2129 -0.0233
 1867CHOL    R520353  29.350  11.556   3.594  0.1110 -0.2743 -0.1031
 1867CHOL    C120354  29.369  11.274   3.338  0.1512 -0.1354 -0.2543
 1867CHOL    C220355  29.091  11.378   3.079  0.0405  0.0396 -0.0670
 1868CHOL   ROH20356  27.467  13.950   0.832 -0.2207 -0.3062  0.0791
 1868CHOL    R120357  27.517  13.901   1.106 -0.1127 -0.2154  0.0757
 1868CHOL    R220358  27.736  13.757   1.194 -0.0163 -0.0885  0.0436
 1868CHOL    R320359  27.781  13.979   1.345 -0.0760 -0.0302 -0.0236
 1868CHOL    R420360  27.917  13.762   1.489 -0.2764 -0.0079  0.2036
 1868CHOL    R520361  27.770  13.901   1.571 -0.3040  0.0826  0.0057
 1868CHOL    C120362  28.065  13.974   1.801 -0.4836  0.0940  0.2338
 1868CHOL    C220363  27.996  14.140   2.132 -0.2154 -0.0393 -0.0222
 1869CHOL   ROH20364  32.434  20.035   0.711  0.1527  0.0082 -0.2021
 1869CHOL    R120365  32.247  20.081   0.919  0.0839 -0.1062 -0.2379
 1869CHOL    R220366  32.319  20.078   1.186  0.0304 -0.0821 -0.2234
 1869CHOL    R320367  32.204  20.325   1.186 -0.1055 -0.1452 -0.2328
 1869CHOL    R420368  32.233  20.256   1.470  0.1675 -0.0099 -0.2264
 1869CHOL    R520369  32.049  20.318   1.369  0.0492 -0.1537 -0.1014
 1869CHOL    C120370  32.075  20.591   1.635  0.1203 -0.0275 -0.2370
 1869CHOL    C220371  31.859  20.742   1.974  0.0051  0.2257  0.3749
 1870CHOL   ROH20372  34.292  23.460   2.212 -0.0224  0.0094  0.0168
 1870CHOL    R120373  34.136  23.556   2.428 -0.0412  0.0265 -0.0044
 1870CHOL    R220374  33.893  23.444   2.497 -0.0139 -0.0140  0.0279
 1870CHOL    R320375  34.009  23.423   2.742 -0.0046  0.0745  0.0307
 1870CHOL    R420376  33.754  23.281   2.768 -0.0019  0.0832  0.0919
 1870CHOL    R520377  33.826  23.443   2.896  0.0015  0.1286  0.0310
 1870CHOL    C120378  33.781  23.168   3.157  0.0137  0.2220  0.1318
 1870CHOL    C220379  33.515  23.117   3.385  0.1166  0.0484  0.2103
 1871CHOL   ROH20380  11.342  30.258  17.793 -0.2033  0.1097  0.0214
 1871CHOL    R120381  11.269  30.256  18.067 -0.0940  0.0055  0.0496
 1871CHOL    R220382  11.406  30.108  18.256  0.0533  0.0251 -0.0416
 1871CHOL    R320383  11.425  30.348  18.383 -0.0143  0.0028  0.0114
 1871CHOL    R420384  11.437  30.148  18.598  0.3006 -0.0528 -0.0536
 1871CHOL    R520385  11.300  30.318  18.585  0.1687 -0.1450  0.1049
 1871CHOL    C120386  11.472  30.397  18.916  0.3812 -0.1190 -0.0105
 1871CHOL    C220387  11.478  30.491  19.253 -0.3509  0.3821  0.1134
 1872CHOL   ROH20388  13.769  13.661  18.142  0.0325 -0.2716 -0.0733
 1872CHOL    R120389  13.816  13.829  17.920 -0.1801 -0.1323 -0.0153
 1872CHOL    R220390  14.023  13.785  17.742 -0.0740  0.2358  0.0130
 1872CHOL    R320391  13.824  13.792  17.558 -0.0504 -0.0179 -0.0246
 1872CHOL    R420392  14.070  13.770  17.400 -0.0099  0.0390  0.0296
 1872CHOL    R520393  13.914  13.921  17.377 -0.1066 -0.0776 -0.0959
 1872CHOL    C120394  13.909  13.769  17.027  0.0496 -0.3139  0.0038
 1872CHOL    C220395  14.140  13.590  16.577 -0.2669 -0.0272  0.1808
 1873CHOL   ROH20396  28.729  31.489   6.474  0.0735 -0.0240  0.1294
 1873CHOL    R120397  28.731  31.385   6.738 -0.0725 -0.1560  0.0790
 1873CHOL    R220398  28.772  31.544   6.960  0.1475 -0.3189  0.1553
 1873CHOL    R320399  28.538  31.432   7.042 -0.0102 -0.0349  0.1005
 1873CHOL    R420400  28.653  31.552   7.284  0.2628 -0.4871  0.2028
 1873CHOL    R520401  28.587  31.345   7.260 -0.0795 -0.3592 -0.0093
 1873CHOL    C120402  28.364  31.452   7.551  0.1821 -0.3181  0.1791
 1873CHOL    C220403  28.218  31.348   7.850 -0.3172 -0.1272 -0.0571
 1874CHOL   ROH20404  13.433   5.961  14.366  0.2237 -0.2189 -0.0969
 1874CHOL    R120405  13.465   5.831  14.614  0.2146 -0.2248 -0.0987
 1874CHOL    R220406  13.325   5.603  14.682  0.1068 -0.1452 -0.0526
 1874CHOL    R320407  13.573   5.502  14.729  0.0638 -0.2787 -0.1100
 1874CHOL    R420408  13.405   5.386  14.939  0.0824 -0.0585  0.0286
 1874CHOL    R520409  13.591   5.496  14.967  0.1662 -0.1611 -0.1142
 1874CHOL    C120410  13.685   5.165  15.132  0.0279 -0.1331  0.0219
 1874CHOL    C220411  14.018   5.011  15.408  0.0624  0.0823 -0.0380
 1875CHOL   ROH20412  20.304   5.620  11.906 -0.0201 -0.0300  0.0388
 1875CHOL    R120413  20.443   5.551  12.142  0.1148 -0.0680 -0.0514
 1875CHOL    R220414  20.714   5.597  12.174  0.0857  0.1460 -0.1073
 1875CHOL    R320415  20.633   5.727  12.399  0.0431 -0.0750  0.0069
 1875CHOL    R420416  20.922   5.690  12.434  0.1062  0.2370 -0.1558
 1875CHOL    R520417  20.765   5.631  12.574  0.2405 -0.0244 -0.1122
 1875CHOL    C120418  20.967   5.866  12.796  0.0785  0.0824 -0.0774
 1875CHOL    C220419  21.094   6.087  13.046 -0.1530 -0.2085 -0.0521
 1876CHOL   ROH20420  34.924   6.013   7.342  0.1678  0.0206  0.1403
 1876CHOL    R120421  34.861   6.053   7.615  0.1259  0.0424  0.1278
 1876CHOL    R220422  34.996   6.235   7.773  0.0758  0.0850  0.1230
 1876CHOL    R320423  34.746   6.330   7.821  0.0530  0.0474  0.0805
 1876CHOL    R420424  34.906   6.422   8.050 -0.0443 -0.0989  0.2090
 1876CHOL    R520425  34.719   6.309   8.058 -0.0465 -0.1098  0.0564
 1876CHOL    C120426  34.618   6.620   8.256 -0.1361 -0.2413  0.2191
 1876CHOL    C220427  34.510   6.824   8.196 -0.3204  0.1822  0.0560
 1877CHOL   ROH20428  23.737  19.184   9.906 -0.0386  0.1287 -0.1642
 1877CHOL    R120429  23.542  19.314   9.747 -0.0994  0.1118 -0.1041
 1877CHOL    R220430  23.337  19.177   9.623 -0.0178  0.0688 -0.1929
 1877CHOL    R320431  23.181  19.356   9.754 -0.1232 -0.0888 -0.1013
 1877CHOL    R420432  22.993  19.196   9.595 -0.0080  0.0200 -0.3496
 1877CHOL    R520433  23.010  19.414   9.596 -0.0544  0.0246 -0.1343
 1877CHOL    C120434  22.646  19.377   9.703 -0.1017 -0.1556 -0.3549
 1877CHOL    C220435  22.552  19.460   9.277  0.0752 -0.0915 -0.0235
 1878CHOL   ROH20436  26.428  24.470   6.744  0.0188  0.1632 -0.0986
 1878CHOL    R120437  26.386  24.499   6.466 -0.0900 -0.0931 -0.1103
 1878CHOL    R220438  26.171  24.384   6.335 -0.2742 -0.0163  0.1213
 1878CHOL    R320439  26.127  24.639   6.251 -0.0549 -0.0598 -0.1310
 1878CHOL    R420440  25.917  24.480   6.121 -0.2008 -0.0080  0.0383
 1878CHOL    R520441  26.058  24.615   6.023 -0.0870 -0.2279 -0.1044
 1878CHOL    C120442  25.728  24.775   5.917  0.0470 -0.0442 -0.2468
 1878CHOL    C220443  25.337  24.796   5.881 -0.1221  0.0008  0.1038
 1879CHOL   ROH20444   2.841  28.172  17.237  0.2021 -0.1236 -0.2283
 1879CHOL    R120445   2.858  28.251  16.966  0.2584 -0.3592 -0.2945
 1879CHOL    R220446   2.971  28.491  16.888 -0.2246 -0.1701 -0.4325
 1879CHOL    R320447   3.123  28.330  16.730  0.2924  0.0150 -0.1359
 1879CHOL    R420448   3.153  28.598  16.614 -0.5495 -0.0813 -0.6153
 1879CHOL    R520449   3.091  28.417  16.509  0.0199 -0.4757 -0.2975
 1879CHOL    C120450   3.401  28.510  16.306 -0.2533  0.1440 -0.4435
 1879CHOL    C220451   3.370  28.637  15.865 -0.0755 -0.0380  0.1670
 1880CHOL   ROH20452  31.093  26.723   3.890 -0.1564 -0.1252 -0.0969
 1880CHOL    R120453  31.183  26.536   4.082 -0.1204 -0.0687 -0.0584
 1880CHOL    R220454  31.013  26.359   4.209 -0.0941 -0.0403  0.0154
 1880CHOL    R320455  31.188  26.173   4.116 -0.1008 -0.0594  0.0414
 1880CHOL    R420456  31.110  26.075   4.381  0.0004  0.0504  0.1134
 1880CHOL    R520457  31.313  26.107   4.309 -0.0277  0.0452  0.0309
 1880CHOL    C120458  31.330  25.735   4.393  0.0494  0.0854  0.1949
 1880CHOL    C220459  31.693  25.549   4.404 -0.0952  0.0912  0.1717
 1881CHOL   ROH20460  23.681   9.692  12.368  0.1149  0.0259 -0.3049
 1881CHOL    R120461  23.560   9.488  12.214  0.1032 -0.0778 -0.1611
 1881CHOL    R220462  23.380   9.308  12.320  0.0446  0.0454 -0.0461
 1881CHOL    R320463  23.221   9.396  12.117  0.1029 -0.0872 -0.1498
 1881CHOL    R420464  23.101   9.141  12.201  0.0004  0.0341  0.0729
 1881CHOL    R520465  23.161   9.197  11.998  0.0465 -0.1772  0.0284
 1881CHOL    C120466  22.791   9.127  11.941  0.0291 -0.0968  0.0451
 1881CHOL    C220467  22.676   8.793  11.935 -0.1930  0.1508  0.2390
 1882CHOL   ROH20468   1.704  28.605  10.376 -0.0103  0.2465 -0.1871
 1882CHOL    R120469   1.566  28.665  10.615  0.1850  0.2144 -0.0656
 1882CHOL    R220470   1.488  28.921  10.682 -0.1436  0.1448 -0.1785
 1882CHOL    R320471   1.243  28.806  10.706  0.0639 -0.2307  0.2136
 1882CHOL    R420472   1.242  29.026  10.901 -0.3023  0.4089 -0.4789
 1882CHOL    R520473   1.196  28.816  10.941  0.0814  0.4370  0.1993
 1882CHOL    C120474   0.869  28.979  11.051 -0.2000  0.2104 -0.2858
 1882CHOL    C220475   0.799  29.291  11.326  0.2622 -0.1319 -0.0132
 1883CHOL   ROH20476   0.806  14.765   8.090 -0.0888 -0.0015 -0.1217
 1883CHOL    R120477   1.088  14.788   8.070 -0.0898  0.0256 -0.1038
 1883CHOL    R220478   1.257  14.571   8.096 -0.0669  0.0537 -0.0218
 1883CHOL    R320479   1.349  14.655   7.854 -0.0546 -0.0100 -0.0396
 1883CHOL    R420480   1.542  14.452   7.942  0.0358  0.1351  0.1044
 1883CHOL    R520481   1.587  14.656   7.879 -0.0604  0.1313  0.0185
 1883CHOL    C120482   1.795  14.462   7.625  0.1071  0.1227  0.1612
 1883CHOL    C220483   2.140  14.464   7.407  0.2186 -0.1520  0.2130
 1884CHOL   ROH20484   7.274  33.600  16.528 -0.0083  0.2074  0.0473
 1884CHOL    R120485   7.080  33.707  16.704 -0.0757  0.1377  0.0160
 1884CHOL    R220486   6.911  33.547  16.854 -0.0462  0.0761 -0.0123
 1884CHOL    R320487   7.010  33.692  17.061 -0.1290  0.1098  0.0035
 1884CHOL    R420488   6.789  33.538  17.177  0.0217 -0.0969  0.0090
 1884CHOL    R520489   6.817  33.754  17.188 -0.1549 -0.0790  0.0534
 1884CHOL    C120490   6.811  33.668  17.560 -0.0165 -0.1662  0.0352
 1884CHOL    C220491   6.885  33.594  17.867  0.0527 -0.3339 -0.2170
 1885CHOL   ROH20492  20.938  30.330   8.197 -0.1776 -0.1952  0.0100
 1885CHOL    R120493  21.181  30.195   8.250 -0.0597 -0.0538 -0.1641
 1885CHOL    R220494  21.428  30.307   8.199 -0.1570  0.2306 -0.0159
 1885CHOL    R320495  21.473  30.249   8.461 -0.1098 -0.0730 -0.0893
 1885CHOL    R420496  21.740  30.252   8.338 -0.1152  0.2525 -0.1012
 1885CHOL    R520497  21.653  30.090   8.456 -0.0076  0.0450 -0.2999
 1885CHOL    C120498  21.963  30.165   8.665 -0.0457 -0.0198 -0.2198
 1885CHOL    C220499  22.003  30.286   9.066  0.0268  0.1682  0.1875
 1886CHOL   ROH20500  33.432  12.437   5.584 -0.0174 -0.1794  0.0121
 1886CHOL    R120501  33.572  12.279   5.396  0.0889 -0.2426  0.1439
 1886CHOL    R220502  33.625  12.365   5.139 -0.0877 -0.4728  0.0296
 1886CHOL    R320503  33.881  12.305   5.206 -0.0002 -0.1261  0.0135
 1886CHOL    R420504  33.879  12.304   4.912 -0.0515 -0.2601  0.0124
 1886CHOL    R520505  33.949  12.144   5.042  0.1701 -0.1170  0.0736
 1886CHOL    C120506  34.268  12.213   4.844  0.0521  0.1893 -0.0125
 1886CHOL    C220507  34.474  12.125   4.630  0.2372  0.1566 -0.0826
 1887CHOL   ROH20508   9.413   9.684  18.118  0.0784  0.0918  0.0524
 1887CHOL    R120509   9.277   9.717  17.872  0.1293  0.1690  0.0345
 1887CHOL    R220510   9.402   9.813  17.645  0.2711 -0.1089 -0.0073
 1887CHOL    R320511   9.306   9.584  17.534 -0.0482 -0.0281  0.0956
 1887CHOL    R420512   9.444   9.721  17.315 -0.0398 -0.2178 -0.0185
 1887CHOL    R520513   9.239   9.648  17.314 -0.1205  0.0034  0.1266
 1887CHOL    C120514   9.379   9.452  17.018 -0.5204 -0.2055  0.0717
 1887CHOL    C220515   9.667   9.342  16.779 -0.0347  0.0695 -0.2989
 1888CHOL   ROH20516  29.773  13.682   3.949  0.0988 -0.1102  0.0952
 1888CHOL    R120517  29.868  13.629   3.688 -0.0120 -0.2355  0.0796
 1888CHOL    R220518  29.788  13.408   3.543 -0.3764 -0.0977  0.0653
 1888CHOL    R320519  29.724  13.595   3.356 -0.1037  0.0243  0.0915
 1888CHOL    R420520  29.683  13.337   3.221 -0.4904  0.1010  0.0580
 1888CHOL    R520521  29.806  13.503   3.150 -0.2441 -0.0710  0.0775
 1888CHOL    C120522  29.562  13.471   2.858 -0.3008  0.3310  0.0783
 1888CHOL    C220523  29.463  13.284   2.602 -0.0810  0.2037 -0.0860
 1889CHOL   ROH20524   5.424  18.228  14.534 -0.0208  0.0429  0.0389
 1889CHOL    R120525   5.608  18.428  14.454 -0.0176  0.0881  0.1575
 1889CHOL    R220526   5.612  18.532  14.198  0.2468 -0.0488  0.1024
 1889CHOL    R320527   5.590  18.769  14.330 -0.0322  0.0125 -0.0506
 1889CHOL    R420528   5.659  18.843  14.055  0.1838 -0.0982 -0.0256
 1889CHOL    R520529   5.763  18.906  14.236 -0.0299  0.0711  0.0396
 1889CHOL    C120530   5.665  19.247  14.095 -0.1149 -0.0692 -0.2435
 1889CHOL    C220531   5.864  19.583  14.175  0.4131  0.2889  0.0200
 1890CHOL   ROH20532  19.110  19.068  12.124 -0.1299 -0.4489  0.2787
 1890CHOL    R120533  19.347  19.115  12.271 -0.0172 -0.2254  0.0318
 1890CHOL    R220534  19.345  19.181  12.539  0.1902  0.0728 -0.0370
 1890CHOL    R320535  19.512  18.967  12.561  0.2593  0.1365  0.0618
 1890CHOL    R420536  19.609  19.158  12.761  0.2293  0.2802 -0.0612
 1890CHOL    R520537  19.727  19.064  12.603  0.2357  0.2264 -0.0235
 1890CHOL    C120538  19.920  18.944  12.910  0.3167  0.4607  0.0175
 1890CHOL    C220539  20.047  19.103  13.257  0.2290  0.0552 -0.1896
 1891CHOL   ROH20540  23.599  23.839  10.972  0.0086 -0.0700  0.1857
 1891CHOL    R120541  23.395  23.683  10.853 -0.1287  0.0643  0.2439
 1891CHOL    R220542  23.131  23.700  10.931 -0.1398  0.4332  0.1372
 1891CHOL    R320543  23.090  23.746  10.666  0.0088  0.2610  0.0837
 1891CHOL    R420544  22.821  23.735  10.782 -0.0479  0.5848 -0.0191
 1891CHOL    R520545  22.894  23.619  10.613 -0.0792  0.3891  0.1030
 1891CHOL    C120546  22.602  23.799  10.446  0.1444  0.5116 -0.1602
 1891CHOL    C220547  22.359  23.870  10.207 -0.0998 -0.1133  0.0031
 1892CHOL   ROH20548   6.185  30.491  15.882 -0.0325  0.0061  0.1184
 1892CHOL    R120549   6.022  30.671  16.027  0.0807  0.0500  0.1919
 1892CHOL    R220550   5.796  30.590  16.163 -0.0620  0.1611  0.0242
 1892CHOL    R320551   5.918  30.714  16.373 -0.0318 -0.1299  0.1807
 1892CHOL    R420552   5.668  30.607  16.484 -0.2531  0.1402 -0.0504
 1892CHOL    R520553   5.738  30.813  16.496  0.0205  0.0406  0.1202
 1892CHOL    C120554   5.708  30.732  16.867 -0.3362 -0.1447  0.0528
 1892CHOL    C220555   5.289  30.676  17.102 -0.1157 -0.0021 -0.1747
 1893CHOL   ROH20556  18.441   0.135  13.774  0.0140 -0.0911  0.0751
 1893CHOL    R120557  18.322   0.003  13.554  0.1026 -0.0757  0.0179
 1893CHOL    R220558  18.103   0.105  13.420  0.1129 -0.1011 -0.0179
 1893CHOL    R320559  18.264   0.076  13.202  0.1762 -0.0195  0.0170
 1893CHOL    R420560  17.997   0.128  13.092  0.1837 -0.1068 -0.0414
 1893CHOL    R520561  18.127  35.346  13.043  0.2573 -0.0538 -0.0281
 1893CHOL    C120562  18.085   0.114  12.697  0.2838 -0.0335 -0.0225
 1893CHOL    C220563  17.981   0.357  12.482 -0.2548  0.1118 -0.1095
 1894CHOL   ROH20564  29.528  19.122   0.692  0.3669 -0.1361 -0.0396
 1894CHOL    R120565  29.697  19.100   0.918  0.3481  0.0282 -0.0090
 1894CHOL    R220566  29.823  19.318   1.032  0.0978  0.1534  0.0272
 1894CHOL    R320567  29.702  19.228   1.258  0.1494  0.0137 -0.0000
 1894CHOL    R420568  29.952  19.351   1.351 -0.0479  0.3777  0.0643
 1894CHOL    R520569  29.882  19.149   1.394  0.2203  0.2836  0.0682
 1894CHOL    C120570  29.914  19.286   1.749 -0.0842  0.3772  0.0604
 1894CHOL    C220571  29.937  19.081   1.999 -0.0604  0.1337 -0.0494
 1895CHOL   ROH20572  31.620  13.594   4.255 -0.1055 -0.0978  0.0190
 1895CHOL    R120573  31.704  13.564   3.986 -0.1865 -0.0094 -0.0160
 1895CHOL    R220574  31.761  13.317   3.875 -0.0686  0.0423 -0.0673
 1895CHOL    R320575  31.580  13.396   3.688 -0.1892 -0.0518  0.0084
 1895CHOL    R420576  31.734  13.184   3.557 -0.0923  0.0669 -0.0759
 1895CHOL    R520577  31.700  13.385   3.481 -0.2544  0.0562 -0.0367
 1895CHOL    C120578  31.549  13.180   3.197 -0.2196 -0.0075 -0.0098
 1895CHOL    C220579  31.576  12.995   2.864  0.0518 -0.4000  0.1296
 1896CHOL   ROH20580  31.734   6.040   9.302 -0.1995  0.2257 -0.1069
 1896CHOL    R120581  31.899   5.987   9.078 -0.2363  0.3036 -0.1525
 1896CHOL    R220582  31.945   5.731   8.984  0.0542  0.3046 -0.0161
 1896CHOL    R320583  31.857   5.835   8.749 -0.1967  0.0459 -0.0401
 1896CHOL    R420584  32.097   5.681   8.678  0.1793  0.5982 -0.0038
 1896CHOL    R520585  32.058   5.891   8.630 -0.3227  0.5013 -0.0503
 1896CHOL    C120586  32.102   5.750   8.278  0.0167  0.5262 -0.0190
 1896CHOL    C220587  32.398   5.552   8.249  0.2172  0.2120  0.2474
 1897CHOL   ROH20588   2.807   9.697   8.246 -0.0903  0.0908 -0.0078
 1897CHOL    R120589   2.623   9.811   8.429 -0.0957  0.0532  0.0103
 1897CHOL    R220590   2.453   9.658   8.583 -0.0226  0.0163  0.0549
 1897CHOL    R320591   2.565   9.798   8.788 -0.0324  0.0728  0.0214
 1897CHOL    R420592   2.296   9.730   8.883  0.0185 -0.0366  0.0892
 1897CHOL    R520593   2.385   9.929   8.876 -0.0670  0.0009  0.0587
 1897CHOL    C120594   2.310   9.904   9.249  0.0334 -0.0144  0.0779
 1897CHOL    C220595   2.172  10.054   9.613 -0.3088 -0.2230 -0.1652
 1898CHOL   ROH20596  31.705   2.311  11.055  0.1150  0.0940  0.1378
 1898CHOL    R120597  31.853   2.178  10.854  0.0816  0.1981  0.0440
 1898CHOL    R220598  31.851   1.903  10.825  0.1888  0.2043 -0.0073
 1898CHOL    R320599  31.780   1.963  10.569  0.0461  0.2208  0.0353
 1898CHOL    R420600  31.825   1.673  10.568  0.2960  0.2557 -0.0652
 1898CHOL    R520601  31.916   1.819  10.435  0.1244  0.3763 -0.0555
 1898CHOL    C120602  31.743   1.596  10.179  0.2251  0.3011 -0.0591
 1898CHOL    C220603  31.833   1.509   9.719  0.0617 -0.2250  0.1322
 1899CHOL   ROH20604  32.827   6.119   9.059  0.0262 -0.0406 -0.0067
 1899CHOL    R120605  33.057   6.138   9.223 -0.0198  0.2401  0.0278
 1899CHOL    R220606  33.291   6.001   9.169 -0.0512  0.0324  0.4050
 1899CHOL    R320607  33.402   6.248   9.184  0.0320  0.0314 -0.1076
 1899CHOL    R420608  33.612   6.067   9.278 -0.0671  0.1635  0.3760
 1899CHOL    R520609  33.535   6.242   9.383 -0.0443  0.4285 -0.0411
 1899CHOL    C120610  33.903   6.338   9.356  0.0002  0.2388 -0.1220
 1899CHOL    C220611  34.128   6.627   9.139 -0.0254  0.0835 -0.2179
 1900CHOL   ROH20612  30.293   2.511   6.918  0.2126 -0.1981  0.0968
 1900CHOL    R120613  30.130   2.609   7.127  0.1396 -0.0516 -0.0277
 1900CHOL    R220614  30.101   2.477   7.368 -0.1054  0.0109 -0.0211
 1900CHOL    R320615  30.177   2.716   7.471 -0.0150 -0.0196 -0.0159
 1900CHOL    R420616  30.143   2.542   7.705 -0.1240 -0.0008 -0.0165
 1900CHOL    R520617  30.050   2.736   7.674 -0.0349  0.0397 -0.0340
 1900CHOL    C120618  30.239   2.804   7.998 -0.0505 -0.0363 -0.0091
 1900CHOL    C220619  30.345   2.830   8.469 -0.0342 -0.2750  0.1248
 1901CHOL   ROH20620  32.667  20.354   4.284  0.1974  0.2340  0.0320
 1901CHOL    R120621  32.656  20.428   4.011  0.0843  0.0589 -0.0117
 1901CHOL    R220622  32.866  20.553   3.882 -0.0505  0.1715 -0.1216
 1901CHOL    R320623  32.840  20.347   3.707  0.1075  0.0412  0.0064
 1901CHOL    R420624  32.995  20.548   3.562 -0.3502  0.2243 -0.2451
 1901CHOL    R520625  32.811  20.453   3.494 -0.2689 -0.1036 -0.0212
 1901CHOL    C120626  33.046  20.352   3.211 -0.3760  0.1326 -0.1969
 1901CHOL    C220627  32.971  20.498   2.932 -0.3499 -0.1549 -0.1784
 1902CHOL   ROH20628  12.031  31.142  20.689  0.2503  0.1137  0.0841
 1902CHOL    R120629  11.870  31.190  20.461  0.2881  0.1932  0.0738
 1902CHOL    R220630  11.977  31.228  20.209  0.3154 -0.0165  0.0526
 1902CHOL    R320631  11.807  31.026  20.142  0.0996  0.1335  0.1412
 1902CHOL    R420632  11.955  31.084  19.896  0.2522 -0.2171  0.1482
 1902CHOL    R520633  11.738  31.078  19.919  0.2359  0.0549  0.0805
 1902CHOL    C120634  11.784  30.811  19.651  0.0126 -0.1924  0.2870
 1902CHOL    C220635  11.981  30.782  19.305 -0.2339 -0.0415  0.3866
 1903CHOL   ROH20636  30.332  29.820   9.714  0.1666  0.0038  0.2878
 1903CHOL    R120637  30.588  29.892   9.615  0.1493 -0.0921  0.1734
 1903CHOL    R220638  30.744  29.718   9.469 -0.0098 -0.1283  0.0466
 1903CHOL    R320639  30.746  29.921   9.289 -0.0059 -0.0820  0.0986
 1903CHOL    R420640  30.969  29.749   9.208 -0.0149 -0.0721  0.0488
 1903CHOL    R520641  30.978  29.963   9.249 -0.0044 -0.0824  0.1036
 1903CHOL    C120642  31.102  29.959   8.888 -0.0139  0.0034  0.0991
 1903CHOL    C220643  31.193  30.124   8.706  0.2390 -0.3939 -0.1910
 1904CHOL   ROH20644  23.192   3.732  12.632 -0.1129  0.0071  0.0439
 1904CHOL    R120645  22.943   3.719  12.499 -0.0109 -0.0141 -0.1468
 1904CHOL    R220646  22.726   3.874  12.574 -0.2131 -0.3519 -0.0268
 1904CHOL    R320647  22.731   3.948  12.312 -0.1092  0.0976  0.0981
 1904CHOL    R420648  22.447   3.957  12.388 -0.1827 -0.3888 -0.0896
 1904CHOL    R520649  22.533   3.849  12.219  0.0816  0.0021 -0.2151
 1904CHOL    C120650  22.289   4.075  12.034 -0.0672  0.0115 -0.0092
 1904CHOL    C220651  21.915   4.127  12.123 -0.1168 -0.0875 -0.0867
 1905W        W20652  27.314  21.841  17.968 -0.0923  0.0911 -0.0334
 1906W        W20653  27.858   5.276  12.945  0.2104  0.2908 -0.2023
 1907W        W20654  19.437  30.768   3.332  0.3865 -0.0906  0.1005
 1908W        W20655   3.916  25.446  21.794  0.0819 -0.1461  0.1898
 1909W        W20656  20.636  10.365   0.552 -0.1435  0.0891  0.1519
 1910W        W20657  15.459  27.903  14.367 -0.0600 -0.0852 -0.1792
 1911W        W20658  25.033  15.577  18.577 -0.0851  0.0487 -0.1229
 1912W        W20659   0.298   6.000   6.554  0.0642  0.1738  0.0935
 1913W        W20660   9.256  19.266  10.443  0.2058  0.3688 -0.1542
 1914W        W20661  16.551   7.225   8.163 -0.0362 -0.1580  0.0506
 1915W        W20662  34.796   4.913   5.873  0.2560  0.0249  0.1716
 1916W        W20663  30.256  17.176  24.974  0.0504  0.1158 -0.0677
 1917W        W20664   8.817  20.097  26.019  0.0664 -0.2691  0.0312
 1918W        W20665  20.151  11.554  16.814  0.2630  0.1894  0.2325
 1919W        W20666  34.205   0.627  15.663 -0.0161 -0.0321 -0.3784
 1920W        W20667  31.636   8.224  16.328  0.3608  0.0084  0.1919
 1921W        W20668   9.276   3.601  22.869 -0.4298 -0.0617 -0.3369
 1922W        W20669  18.765  24.375  19.422 -0.0468 -0.2572 -0.0955
 1923W        W20670  23.598  29.959  17.291  0.2979  0.2878 -0.2372
 1924W        W20671  28.152   2.026  16.419  0.0585 -0.0758  0.2575
 1925W        W20672  21.357  12.601  17.979  0.0133 -0.1213  0.2390
 1926W        W20673  30.626  23.805  13.098 -0.3403 -0.3391  0.0313
 1927W        W20674  20.309  29.928  16.967  0.1031 -0.0618 -0.2133
 1928W        W20675   3.752  10.575  17.342  0.0271  0.0389 -0.0506
 1929W        W20676  22.840  29.055  22.820  0.0935 -0.2396  0.3237
 1930W        W20677  30.657   7.416   9.333  0.0003 -0.2519  0.2722
 1931W        W20678   4.412   6.924   9.959 -0.0088  0.0483  0.1613
 1932W        W20679   6.612  10.436   9.035  0.0056  0.1535 -0.0477
 1933W        W20680  15.950   8.163   4.802  0.2262  0.0805  0.0532
 1934W        W20681  34.255  27.430   4.460  0.1799  0.0629 -0.2645
 1935W        W20682  24.959  21.184  15.398 -0.0212  0.3662 -0.0689
 1936W        W20683  12.721   8.707   0.337 -0.2504  0.0167  0.0580
 1937W        W20684  30.820  25.180  22.061  0.0189  0.2005  0.0197
 1938W        W20685  28.449  11.981  18.340 -0.0986 -0.0941  0.2043
 1939W        W20686   7.079   4.554  21.531 -0.0545  0.0196 -0.0316
 1940W        W20687  21.311  31.766  14.225 -0.2628  0.0744 -0.4499
 1941W        W20688  29.277   7.815  21.622 -0.0095 -0.0192 -0.1623
 1942W        W20689  17.154  32.913   8.020  0.3557 -0.0579 -0.0156
 1943W        W20690   2.929  16.428  21.940 -0.0825 -0.1646 -0.1770
 1944W        W20691   8.099  20.438  11.475 -0.0395  0.1409  0.1734
 1945W        W20692  26.591  23.144  23.158 -0.3247  0.1619 -0.2388
 1946W        W20693  11.208  22.749  15.032  0.0175  0.0163 -0.4156
 1947W        W20694  33.998  13.603   1.319  0.0224 -0.1246  0.4031
 1948W        W20695   7.410  26.683  15.127 -0.1393 -0.0518 -0.1996
 1949W        W20696  22.793  32.677  19.667  0.0756  0.3604  0.0882
 1950W        W20697   6.390  21.175  19.859 -0.0174 -0.0617  0.0120
 1951W        W20698   3.864  31.337   9.768  0.1918 -0.1164  0.0105
 1952W        W20699  12.370   1.496  10.550  0.0746  0.0772 -0.2070
 1953W        W20700   5.494   4.161  25.258 -0.3328  0.0369  0.1332
 1954W        W20701  19.646  31.572  16.188  0.1948  0.4740 -0.0734
 1955W        W20702  24.924  28.109  24.499 -0.1147 -0.0458 -0.0458
 1956W        W20703  34.865  23.291  21.604  0.0153 -0.1183 -0.2060
 1957W        W20704   2.814  21.715  18.115 -0.1035 -0.0553 -0.2088
 1958W        W20705  27.246  13.552  20.682 -0.2006 -0.1606  0.0730
 1959W        W20706   5.438  34.174  25.165  0.0424  0.0780 -0.0474
 1960W        W20707  12.035  23.405  15.555 -0.1791  0.0953  0.0796
 1961W        W20708  27.005  13.723  13.656 -0.3207  0.1363 -0.2728
 1962W        W20709  24.466  20.891  16.281 -0.0892 -0.2851 -0.2002
 1963W        W20710  21.832  20.441  17.072 -0.1559  0.1272  0.2260
 1964W        W20711   5.951   0.008   9.202 -0.0701  0.1192 -0.2527
 1965W        W20712  24.573  26.081  17.069  0.1306 -0.0345  0.0356
 1966W        W20713  13.027  24.437   2.203 -0.1370 -0.0464 -0.3258
 1967W        W20714  26.113  26.324  21.181  0.0513  0.0620 -0.1466
 1968W        W20715  34.630  34.055  19.524  0.1501 -0.3568 -0.0045
 1969W        W20716  30.395   5.319  22.915  0.3148  0.0086 -0.0836
 1970W        W20717  33.087   9.551  11.570  0.1231  0.0566  0.0285
 1971W        W20718  33.154   7.064  23.133  0.2849  0.1218 -0.3065
 1972W        W20719   1.984  13.064  16.626 -0.0925  0.0921  0.0236
 1973W        W20720  30.900  28.840  24.595 -0.1025 -0.2707 -0.3056
 1974W        W20721  24.760  17.089  17.701  0.0942  0.0848  0.0779
 1975W        W20722   4.467  26.517  25.845 -0.2109 -0.0132  0.1001
 1976W        W20723  29.760  21.406  18.157  0.3717 -0.1483  0.0937
 1977W        W20724   7.611  16.964  23.739  0.2715 -0.0520 -0.0914
 1978W        W20725   3.848   0.971  26.021  0.0286  0.0444  0.0492
 1979W        W20726   6.190   1.922   2.402  0.0385  0.2161  0.0690
 1980W        W20727  29.519  34.479  25.246  0.1129 -0.1095 -0.0864
 1981W        W20728  11.178  19.285   4.359  0.1733 -0.1978  0.0673
 1982W        W20729  12.747  28.545   9.481  0.0460  0.2744  0.0479
 1983W        W20730  30.815   5.009   0.827 -0.0922 -0.0674  0.2609
 1984W        W20731  14.126  15.401  23.189 -0.3999 -0.1870 -0.0018
 1985W        W20732  22.926  13.112  20.518  0.0118 -0.1113 -0.2443
 1986W        W20733  32.303   4.961   2.502  0.3762  0.2103 -0.1648
 1987W        W20734  19.425  30.650  22.830  0.1187  0.1981  0.2997
 1988W        W20735   4.513   7.758   7.514  0.1540 -0.1099 -0.0855
 1989W        W20736  13.650  11.441   3.414  0.1295  0.0590  0.3529
 1990W        W20737  29.423   2.432  24.318  0.1491 -0.1925  0.2569
 1991W        W20738  29.316   4.486  10.298  0.0187  0.0289  0.1388
 1992W        W20739  19.691   7.111  17.967 -0.1031  0.0485 -0.1226
 1993W        W20740  21.067  28.343   4.205 -0.0626 -0.1206  0.0909
 1994W        W20741  30.847  26.473  11.587  0.0963 -0.0409 -0.1061
 1995W        W20742   0.234   0.331  17.199  0.0021 -0.0758  0.2718
 1996W        W20743   2.365  27.301   8.711 -0.0097 -0.2259  0.0922
 1997W        W20744  20.491  26.642   1.331 -0.1269 -0.0535 -0.1393
 1998W        W20745  34.609  12.243  21.130 -0.1766  0.1625 -0.0827
 1999W        W20746  19.384  10.285  24.361  0.1021  0.2179 -0.3507
 2000W        W20747  34.805  15.055   9.224 -0.3947 -0.3346 -0.1172
 2001W        W20748   7.373   8.295  20.217 -0.3229  0.2624 -0.0645
 2002W        W20749  14.175   5.165   1.246 -0.3228 -0.0278  0.1125
 2003W        W20750  21.782   6.505  22.997  0.0975 -0.1138  0.0725
 2004W        W20751   9.402  29.818   5.727  0.1991 -0.1650  0.0433
 2005W        W20752  16.636   3.094   8.218  0.1652 -0.0443  0.0080
 2006W        W20753  15.297   0.119  24.571  0.0026  0.0361 -0.1289
 2007W        W20754  33.509   6.419  24.437  0.1825  0.2903  0.0367
 2008W        W20755  12.189  14.549   5.786  0.2262  0.2641  0.0741
 2009W        W20756  12.891  15.568  24.200  0.2245 -0.4658  0.4231
 2010W        W20757  20.995   6.128   1.629 -0.0834  0.0412 -0.2682
 2011W        W20758  10.871   8.486  13.109 -0.1687  0.2316 -0.0982
 2012W        W20759   8.269  29.899   3.016 -0.0016 -0.1548  0.1049
 2013W        W20760  14.237  10.547   4.024 -0.0948  0.0121  0.1358
 2014W        W20761  24.243  18.337   0.980  0.1058 -0.0047 -0.0943
 2015W        W20762  27.029   5.747   0.691  0.1409  0.0535  0.1450
 2016W        W20763   9.730  11.532  12.347  0.0380  0.0016 -0.2738
 2017W        W20764  26.060  30.071  19.753 -0.0067  0.0247 -0.0099
 2018W        W20765  22.898  16.822   1.126  0.1772 -0.1306  0.1972
 2019W        W20766   6.183  19.449   0.249 -0.2724  0.0732 -0.1842
 2020W        W20767  17.310   7.658  11.154 -0.0877 -0.1895 -0.0998
 2021W        W20768   6.790  22.605   0.833 -0.3301  0.0788  0.0159
 2022W        W20769  20.132  10.541   0.521 -0.0760 -0.1678  0.3235
 2023W        W20770   9.066  21.199   2.495  0.0752 -0.0635 -0.1564
 2024W        W20771   0.209   8.905   1.119 -0.3757  0.1399  0.2188
 2025W        W20772   7.916   4.608   1.434  0.2226 -0.0706  0.3139
 2026W        W20773  21.249   2.050   7.601  0.0792  0.0254 -0.3253
 2027W        W20774  22.981   0.685   2.700  0.2255  0.2186  0.0387
 2028W        W20775  14.726  30.519   0.339 -0.1996 -0.3844  0.1769
 2029W        W20776  19.974   6.358  25.971  0.0825 -0.2179  0.0269
 2030W        W20777  34.767  27.904   4.696  0.2153  0.0176 -0.1710
 2031W        W20778   3.982  30.864   7.911 -0.0559 -0.3897  0.2262
 2032W        W20779  33.859   1.118  16.422 -0.1588  0.3809  0.2327
 2033W        W20780  18.284  13.141  19.273  0.1632 -0.0814 -0.1732
 2034W        W20781   0.703  21.809   2.264 -0.3439 -0.2557 -0.1764
 2035W        W20782   0.777  33.396   1.999  0.0168  0.1158 -0.1332
 2036W        W20783  11.285   6.020  10.360 -0.0876  0.1909 -0.1651
 2037W        W20784   4.326  32.487   5.505  0.1056  0.2325  0.1216
 2038W        W20785  21.582  11.644  24.660 -0.1156 -0.1043  0.0526
 2039W        W20786  18.583  19.465   6.763 -0.2416  0.2889 -0.2940
 2040W        W20787  21.488   0.203   5.763 -0.1215  0.1186  0.1606
 2041W        W20788  15.903  14.509   0.486 -0.3650  0.2143 -0.1728
 2042W        W20789   6.314  28.815  21.633  0.0378 -0.1374  0.0989
 2043W        W20790  24.039   9.791  15.566 -0.3527  0.1483 -0.2086
 2044W        W20791   2.400  25.553  24.573  0.0789 -0.1676 -0.3892
 2045W        W20792  34.362  32.033  22.158  0.1828  0.0255  0.1193
 2046W        W20793   7.044   4.645   7.938  0.1812 -0.0145  0.2043
 2047W        W20794  20.469  27.225  15.896 -0.2009 -0.0567 -0.0961
 2048W        W20795  27.276  20.005  22.161 -0.0371  0.2855 -0.0434
 2049W        W20796  14.677   9.218   9.702  0.3848 -0.0553  0.0141
 2050W        W20797  30.053  32.858  12.630  0.1951  0.0781  0.0942
 2051W        W20798  12.030   5.346  24.957  0.1078  0.0103  0.0457
 2052W        W20799   3.702  17.908  22.404  0.0147  0.1156  0.0506
 2053W        W20800  14.554  21.314   7.661 -0.1077 -0.0756  0.0536
 2054W        W20801  29.716  28.075  20.926 -0.0831 -0.0532 -0.1841
 2055W        W20802  17.403   0.554  24.377  0.0527 -0.2390  0.2433
 2056W        W20803  26.206  28.230   1.284 -0.1292 -0.0930 -0.1358
 2057W        W20804  31.549  26.305   2.387  0.2161  0.1300  0.1261
 2058W        W20805  18.842  30.537   6.363  0.0536 -0.1716  0.2426
 2059W        W20806  19.185   1.095  17.800 -0.0177 -0.0110 -0.1114
 2060W        W20807  24.832  22.827  16.725 -0.0202 -0.0213 -0.2352
 2061W        W20808  30.595   3.377   1.328  0.1025  0.2847 -0.3195
 2062W        W20809  22.275  14.632  21.436  0.0756  0.1055 -0.2131
 2063W        W20810   9.261  34.996  12.172 -0.0013  0.3283 -0.2261
 2064W        W20811  13.217   5.134  19.987  0.1461 -0.2102 -0.4835
 2065W        W20812  27.554  29.479  10.360  0.2502 -0.2486  0.3559
 2066W        W20813   5.795  10.026   8.983  0.0490 -0.0963 -0.1822
 2067W        W20814  28.792  28.953   9.874 -0.3041  0.2277 -0.1224
 2068W        W20815  31.515  17.884  13.254  0.0300  0.1619 -0.2552
 2069W        W20816  12.676  29.671  13.784 -0.1546 -0.2479  0.0188
 2070W        W20817  19.622  13.629  25.679 -0.0668 -0.3747  0.1027
 2071W        W20818  13.304  16.832   0.155 -0.1206 -0.0720 -0.1655
 2072W        W20819  30.386  24.581  14.937  0.1227  0.1209  0.1794
 2073W        W20820  29.600  28.129  19.181 -0.0243 -0.1852  0.0913
 2074W        W20821  34.222  19.891  26.199 -0.0192 -0.2109  0.1094
 2075W        W20822  31.323  32.128  12.255 -0.1800  0.1959 -0.0822
 2076W        W20823   3.572  19.647  15.524  0.0269 -0.0812  0.2837
 2077W        W20824  30.100  32.872   3.050  0.1825 -0.1348  0.2117
 2078W        W20825  22.472   7.361   5.108  0.1781  0.2964  0.0008
 2079W        W20826  31.006  15.209  16.121 -0.1247  0.0851 -0.0977
 2080W        W20827  28.631   6.913  18.322 -0.0378 -0.1700  0.1232
 2081W        W20828  28.104  27.886  13.871  0.0111  0.2691  0.1257
 2082W        W20829  15.414  29.987   4.616 -0.2583  0.0922  0.0705
 2083W        W20830  33.376  13.062   9.497 -0.0804  0.2614  0.0257
 2084W        W20831  32.801   2.478  23.804 -0.1913 -0.0273 -0.1056
 2085W        W20832   8.491  33.203   4.391 -0.3414 -0.0264 -0.0237
 2086W        W20833  25.566  33.480   3.399 -0.0757  0.1241  0.0571
 2087W        W20834  31.687   5.688   3.991 -0.1910  0.3983  0.0906
 2088W        W20835   0.485  11.178  17.242  0.2690 -0.4648  0.1372
 2089W        W20836   5.287  18.648  22.353  0.1689 -0.1159  0.1350
 2090W        W20837  13.354  30.494  15.651  0.0050 -0.0122 -0.0725
 2091W        W20838   0.958  19.717  13.008  0.0791  0.0370 -0.1675
 2092W        W20839  27.611   9.752   8.692  0.1603 -0.1022 -0.0134
 2093W        W20840  12.823   3.601  10.928  0.1847  0.0652  0.1466
 2094W        W20841  29.170  25.991  22.116  0.1114 -0.0608  0.0591
 2095W        W20842   2.016  11.739  12.644 -0.0693 -0.0124 -0.2008
 2096W        W20843  26.992  15.408  22.018  0.0237  0.0337 -0.0188
 2097W        W20844  25.644  18.492  16.528  0.1550  0.0667  0.1239
 2098W        W20845  34.126   4.720  17.183  0.0460 -0.0218 -0.1825
 2099W        W20846  15.074  23.905  10.704 -0.0631  0.1191 -0.0295
 2100W        W20847  15.882  25.775  21.132 -0.1114 -0.1053  0.1169
 2101W        W20848  14.288  31.913  14.032  0.0478  0.2641  0.0828
 2102W        W20849  21.759   6.441  21.019  0.1981  0.0659 -0.0463
 2103W        W20850   0.666  13.694  16.531 -0.0539  0.0470 -0.0555
 2104W        W20851  25.942   1.642   3.943  0.0866  0.1374  0.0966
 2105W        W20852  31.752  33.748  21.659 -0.2013  0.0859 -0.5629
 2106W        W20853  17.127  21.598  13.268 -0.2182  0.0035  0.0954
 2107W        W20854  23.974  17.063  24.854 -0.3317 -0.0620  0.2070
 2108W        W20855   7.815   4.502   4.725 -0.1348  0.0246  0.0619
 2109W        W20856  22.495  16.602  24.051  0.0189 -0.0812 -0.1502
 2110W        W20857   8.230   6.603   8.077 -0.4868 -0.2738 -0.1533
 2111W        W20858  10.636   9.282  10.192 -0.0983 -0.1531  0.3740
 2112W        W20859   7.997  11.989  23.181  0.1580 -0.0227 -0.1759
 2113W        W20860   0.250  23.049  24.807 -0.2823  0.0538  0.1632
 2114W        W20861  33.868  15.924  24.685 -0.2631 -0.1577 -0.0333
 2115W        W20862  35.183  20.984  17.798  0.1513 -0.0412  0.0914
 2116W        W20863  32.494   3.732  17.725 -0.1576 -0.1766 -0.0474
 2117W        W20864  19.093   0.188   0.712 -0.0002 -0.3158  0.1684
 2118W        W20865   9.084  30.301  11.039  0.0775 -0.0431 -0.0864
 2119W        W20866  31.957  31.329   2.588 -0.0652 -0.2614 -0.0631
 2120W        W20867  30.543  27.392  18.801 -0.2824 -0.0346  0.2282
 2121W        W20868  20.930  31.917  19.630  0.0353  0.3201  0.0606
 2122W        W20869   9.909  13.023  11.476 -0.1225 -0.1805  0.1180
 2123W        W20870  33.230   1.469   5.069  0.4380  0.1397 -0.2413
 2124W        W20871  33.599  33.015  13.746  0.0640 -0.0190 -0.0837
 2125W        W20872  25.189  26.966  11.480  0.0750 -0.0552 -0.2973
 2126W        W20873   8.421  34.888  15.409  0.0681 -0.0969 -0.2017
 2127W        W20874   8.290  16.704   0.769 -0.1076 -0.1202 -0.0813
 2128W        W20875  27.137   5.864  19.610 -0.0892 -0.3075 -0.0467
 2129W        W20876  27.109   2.103  17.507  0.1462  0.2734 -0.2256
 2130W        W20877  22.534  28.687   0.420  0.2822 -0.2445  0.1913
 2131W        W20878  26.729   0.604  12.303  0.2138  0.1407 -0.0290
 2132W        W20879  21.179   6.797  19.560  0.1816  0.0679 -0.0711
 2133W        W20880  23.617  15.657   0.687 -0.2518 -0.0062 -0.0236
 2134W        W20881  19.715  35.132  21.706  0.3022 -0.1165  0.2286
 2135W        W20882   1.082   5.842  20.047  0.0774  0.1443 -0.1791
 2136W        W20883  24.262   8.439  24.283 -0.1040 -0.0190 -0.1577
 2137W        W20884  34.484  16.168  14.615 -0.2657 -0.1994 -0.2797
 2138W        W20885  10.930  22.338  15.135  0.1980  0.1770 -0.1802
 2139W        W20886   2.641  13.211   2.794 -0.1417  0.0404 -0.0569
 2140W        W20887  14.402  30.276  14.515 -0.0121 -0.0899  0.3811
 2141W        W20888  17.996   9.378   7.134 -0.0242 -0.4051 -0.1121
 2142W        W20889  31.300  24.213  10.536  0.0011  0.1614  0.0147
 2143W        W20890  23.758   7.712   1.103  0.1080  0.0678 -0.0671
 2144W        W20891  25.815   2.983  24.807  0.0205 -0.1010 -0.0033
 2145W        W20892   9.290  31.223  16.309  0.0176 -0.1924 -0.0469
 2146W        W20893   4.656  10.352   8.474 -0.0845  0.0011 -0.1863
 2147W        W20894   5.958  11.222   9.134  0.1383 -0.2724 -0.1858
 2148W        W20895  16.731  15.354  12.628 -0.3765 -0.0054  0.2390
 2149W        W20896  32.352  15.209  11.621  0.0149 -0.0886 -0.0692
 2150W        W20897  15.243  26.295  13.493 -0.0060 -0.0496  0.0973
 2151W        W20898   6.111  29.238  20.766 -0.2352 -0.0974 -0.3799
 2152W        W20899  34.420   9.123  12.153 -0.2089 -0.1637 -0.0907
 2153W        W20900  30.153  20.483  21.893 -0.1908 -0.0729  0.1925
 2154W        W20901  20.829  34.258  22.240  0.1666 -0.2574 -0.0118
 2155W        W20902  16.083  27.543  21.650  0.0475 -0.0140  0.1256
 2156W        W20903  28.372   8.152   0.368 -0.1700 -0.0736 -0.1413
 2157W        W20904  18.208  13.213  22.893 -0.2878  0.2079 -0.2506
 2158W        W20905   0.332  13.257  11.258  0.0612 -0.0231 -0.3489
 2159W        W20906  14.837  17.029   9.906 -0.2281 -0.0429 -0.0431
 2160W        W20907  12.723   6.647   6.869  0.1104  0.1629 -0.1233
 2161W        W20908  11.510  10.016   7.564  0.1640 -0.0967  0.1677
 2162W        W20909  25.240  29.479  19.705 -0.0873 -0.3290 -0.0778
 2163W        W20910  28.655   9.468  14.674  0.2798  0.0257 -0.1547
 2164W        W20911   7.840   5.720   1.163  0.3231  0.1582 -0.1059
 2165W        W20912  11.589  22.305  23.540 -0.3056  0.0256 -0.0869
 2166W        W20913  33.511   5.959  16.043  0.1633 -0.0881  0.2654
 2167W        W20914  18.640  21.828  22.043  0.2437 -0.0105  0.0874
 2168W        W20915   0.464  29.440  22.564 -0.2765 -0.1381  0.3732
 2169W        W20916  13.265   7.778  20.478 -0.0637 -0.2622  0.1181
 2170W        W20917  13.663   5.789   8.602 -0.3540  0.0237 -0.1144
 2171W        W20918  28.814  16.268   5.231 -0.0686 -0.2003 -0.0561
 2172W        W20919  21.138   0.411  19.226  0.2893 -0.1046  0.0296
 2173W        W20920  30.845  17.363  17.012  0.0020 -0.1422 -0.2256
 2174W        W20921  27.049  13.214  20.347  0.0239  0.0487 -0.0077
 2175W        W20922  28.874  16.039  12.699  0.1429  0.1426 -0.3593
 2176W        W20923  18.879  34.388  17.975 -0.1513  0.1193 -0.1297
 2177W        W20924  23.337  34.118  15.723 -0.1596  0.2763  0.2014
 2178W        W20925   6.785   7.884  25.669 -0.1105  0.0085  0.0373
 2179W        W20926  24.541  16.095  23.364 -0.0955  0.0067  0.0843
 2180W        W20927  27.942   2.614   0.170 -0.1711 -0.1013 -0.0139
 2181W        W20928  21.403  34.502  26.233 -0.2337 -0.1101 -0.0359
 2182W        W20929   3.402  13.028  22.974 -0.1172 -0.0327 -0.1692
 2183W        W20930  13.498  21.064  25.685 -0.1488 -0.0535  0.0810
 2184W        W20931  12.815  30.772   9.285 -0.3611 -0.1009  0.2062
 2185W        W20932   3.333   1.554  18.834 -0.0757  0.0410 -0.0954
 2186W        W20933   2.604  27.357  24.999  0.1751  0.1570  0.2315
 2187W        W20934  27.751  30.124  19.286  0.1256 -0.1778  0.2001
 2188W        W20935   7.913  13.529  24.105 -0.2255 -0.2060 -0.1554
 2189W        W20936  31.735  31.003   3.576 -0.0043 -0.3493 -0.1319
 2190W        W20937  15.468  31.668  23.494 -0.2852 -0.0600  0.0099
 2191W        W20938  13.459  18.187  24.953 -0.0601 -0.3117 -0.0668
 2192W        W20939  17.579   9.452  21.741 -0.1082  0.0484  0.0547
 2193W        W20940  10.719  10.199  19.072  0.1280  0.0545 -0.0531
 2194W        W20941  31.528  28.501  20.488  0.1190 -0.2566 -0.1421
 2195W        W20942  26.001  15.409  22.293 -0.0738  0.0313 -0.0042
 2196W        W20943   0.170   7.264  19.531  0.0841  0.1581  0.0420
 2197W        W20944   3.170   5.112  22.258 -0.0999  0.1092  0.2182
 2198W        W20945   6.356  28.108   8.324  0.0343  0.1665  0.0687
 2199W        W20946  17.789   7.788  18.541 -0.0102  0.1964  0.1977
 2200W        W20947  31.698  34.295  14.513 -0.3710  0.1758 -0.1228
 2201W        W20948   0.929  22.200  22.703 -0.0624  0.0495  0.0987
 2202W        W20949  14.011  30.851  12.218  0.0402 -0.1191  0.0555
 2203W        W20950  33.651  33.016   2.280 -0.1388  0.0257  0.1103
 2204W        W20951   0.350  30.042  25.357 -0.3145 -0.3995 -0.1460
 2205W        W20952  16.013  21.663   0.918 -0.0908  0.1297  0.5668
 2206W        W20953  34.253  13.110  11.817 -0.0539 -0.1612 -0.1316
 2207W        W20954   0.188  20.301   7.981 -0.0880  0.0019  0.0970
 2208W        W20955  29.345  34.030  17.393 -0.3046  0.0904  0.3554
 2209W        W20956   6.597  12.381  19.511 -0.2733 -0.0254 -0.0194
 2210W        W20957   5.225   1.846   3.671 -0.3062  0.1266 -0.2860
 2211W        W20958  18.252   7.500   2.212 -0.2208 -0.1766  0.1218
 2212W        W20959  12.302  29.836   7.011 -0.1560  0.0777  0.3017
 2213W        W20960  15.759  20.356   5.383  0.1735  0.2824  0.2852
 2214W        W20961  21.790  34.419  16.164 -0.7516  0.1880  0.1232
 2215W        W20962  17.860  25.098  11.297  0.0139 -0.2504  0.2913
 2216W        W20963  11.691  13.350  21.054  0.2753  0.0437  0.0979
 2217W        W20964  34.180  29.413  25.637  0.0102 -0.0036  0.0723
 2218W        W20965  12.000  21.920  23.511 -0.0027  0.1558 -0.1301
 2219W        W20966  14.445  35.092  24.958  0.1008 -0.2528  0.0644
 2220W        W20967  31.708  24.041  26.081 -0.2753  0.0108  0.3676
 2221W        W20968  23.600  27.019  19.823 -0.1759 -0.0714 -0.1269
 2222W        W20969   9.716   1.431  23.268  0.1304  0.1188  0.1546
 2223W        W20970  16.361  29.724   6.242 -0.0020 -0.1811 -0.0459
 2224W        W20971  18.797  14.272   5.350 -0.1549  0.0010  0.1450
 2225W        W20972  11.689  24.149   7.162 -0.2202  0.1657  0.1269
 2226W        W20973  32.998   6.098  22.760 -0.1512  0.0992  0.0436
 2227W        W20974  20.393  32.674  23.515  0.1388 -0.0054  0.2695
 2228W        W20975   1.541   1.298  25.563  0.0677  0.0766  0.1524
 2229W        W20976  33.107  24.227  21.307  0.0154 -0.0433  0.0744
 2230W        W20977  16.652  30.364  25.556 -0.0439 -0.5658  0.3162
 2231W        W20978  13.652  29.784  13.501 -0.2052 -0.0958  0.0679
 2232W        W20979  31.597  12.429  12.449  0.1277 -0.2211  0.1975
 2233W        W20980  14.671   0.097  25.456  0.2067 -0.1180 -0.2423
 2234W        W20981   7.381   4.071  12.320 -0.0126 -0.0499  0.0803
 2235W        W20982  17.233  26.863  25.555 -0.0922 -0.0514 -0.1059
 2236W        W20983  22.131  33.688   5.055 -0.2565 -0.0194 -0.3412
 2237W        W20984  22.719  17.755  18.274 -0.0922 -0.2550  0.0860
 2238W        W20985  22.514   6.009   3.474  0.0004  0.1995  0.3628
 2239W        W20986   4.015   1.124   9.094  0.1723  0.2759  0.2511
 2240W        W20987  34.779  18.787   8.421  0.0826  0.1644  0.1237
 2241W        W20988  13.795  15.484   8.537  0.1035 -0.1933  0.3197
 2242W        W20989   2.330  24.675  25.026  0.2019 -0.0702 -0.4787
 2243W        W20990  28.250   3.854  26.028 -0.0514  0.0502  0.2433
 2244W        W20991   6.803  15.059   3.955 -0.1776  0.0771  0.2020
 2245W        W20992  20.191  34.711  22.400 -0.0227  0.0023 -0.1210
 2246W        W20993   5.241  13.953  22.206 -0.0080  0.1896  0.1078
 2247W        W20994  16.107  31.817   2.799  0.0679 -0.1642  0.1711
 2248W        W20995  28.432  30.804   3.390  0.0317  0.0396 -0.1636
 2249W        W20996  24.669  34.819  25.144 -0.0187 -0.1883  0.3104
 2250W        W20997  22.603  24.811   1.224  0.1217  0.2552  0.4598
 2251W        W20998  32.547  16.578  13.692  0.0431 -0.1137  0.0144
 2252W        W20999  10.395  26.127   7.814  0.3206  0.0005 -0.0477
 2253W        W21000  33.515  21.900   0.369 -0.0344  0.0552  0.1493
 2254W        W21001  19.098  16.103  10.091  0.3372  0.0487 -0.2750
 2255W        W21002   9.728  28.660   0.869  0.1640 -0.2608  0.1784
 2256W        W21003   0.508  24.370   1.025  0.3044 -0.0532 -0.0487
 2257W        W21004  14.906   4.117  10.417  0.1206 -0.0349  0.2054
 2258W        W21005  30.633  35.063  15.630 -0.0284 -0.1342  0.1156
 2259W        W21006  31.856   2.737   2.858 -0.0715  0.2240 -0.0183
 2260W        W21007  29.179  18.657  19.294  0.0469  0.3344  0.1381
 2261W        W21008  20.281  18.159  24.295 -0.2682  0.2797 -0.0174
 2262W        W21009   1.377  32.586  16.796  0.3818 -0.0815 -0.0347
 2263W        W21010  25.439   0.070  18.125 -0.1841 -0.0496  0.0779
 2264W        W21011  13.177  30.026   4.205  0.0110 -0.0667 -0.2079
 2265W        W21012   9.778  24.674   8.525  0.0251  0.0216 -0.2128
 2266W        W21013  24.980   0.117  17.394  0.1437 -0.0547 -0.1382
 2267W        W21014  27.554   4.845  16.542  0.1220  0.2749 -0.0257
 2268W        W21015  29.397   9.650  18.598 -0.1763 -0.3367 -0.2454
 2269W        W21016  31.475  18.518   6.097  0.1607 -0.4904 -0.0332
 2270W        W21017  27.311   8.806  19.249  0.1013 -0.0099 -0.0617
 2271W        W21018  32.960  17.004  25.270 -0.1896  0.1378 -0.0697
 2272W        W21019   8.473   8.217  21.555  0.1478  0.1174  0.1421
 2273W        W21020  26.687  17.726  22.155 -0.2318  0.3063  0.1235
 2274W        W21021  20.515   9.367   6.744  0.3363 -0.3035  0.1145
 2275W        W21022  25.892  12.435   0.707  0.2383 -0.0655 -0.3333
 2276W        W21023   3.915   4.570   5.604  0.1413  0.0543 -0.3438
 2277W        W21024  29.701   1.877   1.835 -0.0071  0.1629 -0.0814
 2278W        W21025   3.791   3.891  20.407  0.1608  0.1081  0.0370
 2279W        W21026  32.324  25.243  23.393 -0.2262  0.1054  0.0371
 2280W        W21027  29.810   3.474  13.966 -0.0479  0.2318  0.1064
 2281W        W21028   3.837  28.095  11.180  0.1240 -0.2794 -0.1399
 2282W        W21029  30.994  10.993  22.020  0.2195  0.0310  0.2620
 2283W        W21030   3.748  26.069  20.636 -0.2020 -0.2359 -0.1546
 2284W        W21031   9.177  12.405   1.745  0.4069  0.1497  0.0274
 2285W        W21032  33.524  31.560  14.343  0.1032 -0.1750 -0.2646
 2286W        W21033  34.745  20.298  19.752 -0.1835  0.3429 -0.0638
 2287W        W21034   1.014  14.853  16.670 -0.0588 -0.2137 -0.1133
 2288W        W21035   3.225  35.199  24.189  0.1475 -0.0359 -0.2753
 2289W        W21036  22.312  30.894   3.418  0.3278 -0.2512  0.3282
 2290W        W21037  32.477   3.438   2.032 -0.2162  0.2504 -0.2050
 2291W        W21038  32.539   0.310   5.498  0.0687  0.1737 -0.0780
 2292W        W21039  14.794  10.500  10.286  0.0003  0.0635 -0.1305
 2293W        W21040  19.126  11.654   3.855  0.1330  0.1116 -0.1349
 2294W        W21041  15.426  35.011  20.133  0.2193 -0.0698 -0.0473
 2295W        W21042  13.569  17.343  21.016 -0.1409  0.3760 -0.0154
 2296W        W21043  31.070  18.845  14.268 -0.2374 -0.1514  0.0270
 2297W        W21044  10.951  14.658   1.941 -0.0160 -0.0842 -0.0324
 2298W        W21045  11.786  14.424  23.481 -0.0488  0.0369  0.0189
 2299W        W21046  21.469   7.044  22.866 -0.1126  0.2392  0.1342
 2300W        W21047   5.567  15.654   0.599  0.0348  0.1945  0.0080
 2301W        W21048   1.384  26.959  24.017 -0.1302  0.0233  0.1725
 2302W        W21049   5.626  23.717  23.595 -0.1842  0.0889  0.0978
 2303W        W21050   7.175  19.625   4.361 -0.0626  0.0112 -0.3230
 2304W        W21051   2.332  32.531   4.639  0.1433  0.0300 -0.1331
 2305W        W21052  24.823  19.508  18.666  0.2354  0.0302  0.0930
 2306W        W21053  12.454  26.789   4.755  0.0477 -0.0357 -0.0488
 2307W        W21054  34.222  17.101  22.480  0.2270 -0.0199  0.0869
 2308W        W21055  29.252   0.901  13.315 -0.0415 -0.1840 -0.1269
 2309W        W21056  15.941  19.902  20.739 -0.2240  0.1948  0.1604
 2310W        W21057  22.086  28.619   0.643  0.1834  0.0333  0.1047
 2311W        W21058  34.261  28.696   2.953  0.1734  0.1549  0.0554
 2312W        W21059  28.805  28.764  17.608 -0.1754 -0.0958  0.0244
 2313W        W21060  14.828  33.277   2.557  0.0485  0.1156  0.0432
 2314W        W21061  19.587   4.095  26.236 -0.0663  0.0649  0.0902
 2315W        W21062   8.752   9.188  23.007  0.2834 -0.2970  0.3529
 2316W        W21063  30.927  20.448  24.419 -0.0617  0.0492  0.3822
 2317W        W21064   7.244  17.052   7.316 -0.1675 -0.0765 -0.0115
 2318W        W21065  17.538  25.471   0.297 -0.3445 -0.1437  0.1663
 2319W        W21066  17.363  22.631   6.833 -0.1055 -0.2278 -0.0280
 2320W        W21067   7.087  33.755   4.142  0.0554 -0.2639  0.2402
 2321W        W21068  31.091  23.045   9.088 -0.1016 -0.0476  0.1823
 2322W        W21069  14.622   8.782   2.014 -0.0662  0.1746 -0.0737
 2323W        W21070  25.819  31.271   3.361 -0.0308  0.0665 -0.1646
 2324W        W21071   7.333   5.673  22.628  0.2069 -0.2038 -0.0743
 2325W        W21072   3.783  31.713  21.499  0.1460  0.1127  0.3666
 2326W        W21073  21.734  32.433  19.903 -0.1779  0.0018  0.2431
 2327W        W21074  14.175  20.538  15.218 -0.0930  0.0523  0.1423
 2328W        W21075  28.647  14.011   9.971 -0.0871 -0.1718  0.0083
 2329W        W21076  26.411   0.507  25.281 -0.1141 -0.5653  0.0395
 2330W        W21077  11.732   6.236   5.515 -0.2259  0.2012 -0.0355
 2331W        W21078   8.071  25.490   2.450  0.2485 -0.1405 -0.1889
 2332W        W21079  22.148  34.051  24.012 -0.1798  0.2000  0.0756
 2333W        W21080  12.774   2.534   1.493 -0.1599 -0.0855  0.0540
 2334W        W21081  15.049  10.025   7.196 -0.1990 -0.0176 -0.3217
 2335W        W21082  16.175   2.068  17.765  0.0990 -0.0362 -0.0782
 2336W        W21083  10.054  30.435  22.742  0.1459  0.1551  0.1838
 2337W        W21084  13.184  18.220   0.503  0.1930 -0.2072 -0.0317
 2338W        W21085  21.779  11.192   2.777  0.2367  0.1522 -0.1291
 2339W        W21086  26.520  11.634  21.571  0.0607 -0.3184 -0.0507
 2340W        W21087  17.484  23.619   6.752 -0.4500  0.4237 -0.0754
 2341W        W21088   0.246   2.211  19.925  0.0860 -0.1822 -0.4375
 2342W        W21089  27.086   2.937  22.461 -0.3500 -0.0181  0.1324
 2343W        W21090  28.957  19.888  15.690  0.3730 -0.2781 -0.0782
 2344W        W21091  13.633  32.437  25.548 -0.2328 -0.1895  0.2202
 2345W        W21092  23.658  29.350  18.546  0.0929  0.1502  0.0550
 2346W        W21093  16.226  35.347  10.582  0.1143 -0.0539  0.1614
 2347W        W21094  11.679  34.102   2.103 -0.3932  0.1584  0.3643
 2348W        W21095  29.095  21.300  24.433  0.0483  0.2834 -0.2257
 2349W        W21096  30.999   9.188  13.015  0.1819  0.0007 -0.1237
 2350W        W21097   3.321  33.203  25.808 -0.0682 -0.0316  0.2521
 2351W        W21098  30.043  30.234  19.151 -0.2131  0.3160 -0.1549
 2352W        W21099   8.364  27.368  25.618 -0.0136 -0.2397  0.4608
 2353W        W21100  16.442  24.831   8.485 -0.0466  0.0968 -0.2528
 2354W        W21101  23.365  12.907  24.403  0.2658 -0.2779  0.0805
 2355W        W21102   2.153   2.987   0.757  0.1521 -0.1415  0.2962
 2356W        W21103  26.527  15.731  24.860  0.0117  0.0976  0.0342
 2357W        W21104  19.765   9.701   7.226  0.3404 -0.2098  0.3118
 2358W        W21105  15.235  28.408  13.784 -0.1552  0.3226 -0.1845
 2359W        W21106  14.348   6.866   4.690  0.3294  0.0364 -0.2743
 2360W        W21107  18.475   5.647   7.771 -0.2943 -0.2508  0.0211
 2361W        W21108  30.303  11.406  22.576  0.3498  0.0458 -0.0349
 2362W        W21109   2.125  34.603  19.829 -0.0471  0.2161 -0.0956
 2363W        W21110  22.772   2.345  20.488  0.0456 -0.4056 -0.2474
 2364W        W21111   6.683   9.290   5.614 -0.2463 -0.1295 -0.1855
 2365W        W21112   8.595   4.064  25.517  0.0293  0.1104  0.0531
 2366W        W21113   2.515  25.873   5.408 -0.0503  0.1240  0.0114
 2367W        W21114  16.557  31.893   9.759  0.3081  0.3350 -0.2273
 2368W        W21115   4.326  10.040  18.844  0.0336  0.1224 -0.2768
 2369W        W21116  26.097  34.917   3.087 -0.1288  0.1301  0.0212
 2370W        W21117  31.336  19.887  25.465  0.0737  0.1573 -0.0417
 2371W        W21118  10.931   2.014   4.990  0.0755  0.0820  0.2928
 2372W        W21119  24.365  14.319  17.412 -0.0987 -0.0209  0.1904
 2373W        W21120   0.920   4.830  18.981  0.2474 -0.2578  0.0614
 2374W        W21121  18.525   7.886   3.088  0.0411  0.0185 -0.0665
 2375W        W21122   1.539   6.322   7.184 -0.0515 -0.3047 -0.1640
 2376W        W21123   3.284  11.610   3.095  0.1966 -0.1538 -0.0785
 2377W        W21124   4.749  26.936   5.937  0.0892  0.2074 -0.0506
 2378W        W21125  33.157  19.854  16.875 -0.1020 -0.3911 -0.0182
 2379W        W21126  23.263   0.428  18.037 -0.0451  0.0257 -0.1939
 2380W        W21127  21.422  30.238  20.184  0.0963 -0.4169 -0.2039
 2381W        W21128  12.784   6.163  23.990 -0.2399  0.1663  0.0841
 2382W        W21129  30.948  28.546  12.650  0.2123  0.0753  0.0088
 2383W        W21130  16.173  16.275  10.496 -0.1291 -0.0717  0.2283
 2384W        W21131  24.459   3.123  21.391 -0.1499 -0.1127 -0.1540
 2385W        W21132   7.897  14.000   1.666  0.0479  0.2505 -0.0228
 2386W        W21133  24.581  12.944  18.972 -0.2323 -0.1478  0.1546
 2387W        W21134   0.021  19.454  19.394  0.0407 -0.2135 -0.1424
 2388W        W21135   9.160  22.054   7.669 -0.0168  0.1480 -0.2327
 2389W        W21136  28.158  24.050  15.822 -0.1052  0.0334 -0.2677
 2390W        W21137  16.474  21.698   0.509  0.3088  0.0663  0.1438
 2391W        W21138  11.022   1.047  14.045  0.2659 -0.0991 -0.0664
 2392W        W21139  34.657   7.569  19.509  0.3843  0.1224  0.0604
 2393W        W21140  21.336  34.751   0.906 -0.1532  0.2979  0.2298
 2394W        W21141  22.712   1.331  15.292 -0.2700 -0.0786  0.2876
 2395W        W21142  26.645  33.317  21.580  0.1206  0.1215 -0.0247
 2396W        W21143   1.285  24.393   2.415 -0.1774  0.2618  0.1507
 2397W        W21144  28.444  28.769   1.814 -0.1574 -0.1295 -0.1735
 2398W        W21145   7.595   5.463  26.180 -0.0548 -0.1069  0.1374
 2399W        W21146  22.389   1.509   8.025  0.2292  0.0237  0.0487
 2400W        W21147  25.115  19.760  19.415  0.0803 -0.2602 -0.2730
 2401W        W21148  34.482  26.186   3.084  0.1872 -0.3408  0.1858
 2402W        W21149  32.824  35.256  17.103 -0.1395 -0.3761 -0.2543
 2403W        W21150   2.585   1.638  21.499  0.0224  0.2179  0.0475
 2404W        W21151  17.395  28.953  24.687 -0.1594  0.0804  0.1635
 2405W        W21152  33.108  11.447  11.324 -0.0802  0.2401  0.2487
 2406W        W21153  12.513  23.403   5.897 -0.3311  0.0633  0.0279
 2407W        W21154  27.344   8.956  14.385 -0.0739 -0.2881  0.1312
 2408W        W21155  29.862  14.364  15.812  0.1996 -0.1547  0.1270
 2409W        W21156  19.976   8.144   9.499 -0.0585 -0.0819 -0.2527
 2410W        W21157   3.949  30.894   4.381  0.1283 -0.1978  0.3067
 2411W        W21158  18.765  32.270  23.050 -0.0563 -0.1587  0.3933
 2412W        W21159  31.146  25.200  14.109 -0.0146 -0.0964 -0.2769
 2413W        W21160  19.084  20.917   0.763  0.2724  0.1704  0.0531
 2414W        W21161  14.295  15.761   8.501  0.0165  0.1836  0.1109
 2415W        W21162  28.366  16.112   8.708  0.1192 -0.0585  0.1012
 2416W        W21163   5.048  10.730  18.535 -0.1405  0.2818  0.1543
 2417W        W21164  13.303  28.532  21.123 -0.2765  0.3087  0.2433
 2418W        W21165   1.671  20.373   1.936 -0.1450  0.4377 -0.2163
 2419W        W21166   5.244  31.044  14.518  0.0159 -0.2602 -0.1918
 2420W        W21167   4.726  30.986   9.941 -0.1094  0.3721 -0.1852
 2421W        W21168   9.765   9.847   5.586 -0.2718  0.3903 -0.1127
 2422W        W21169  10.212  24.592  24.195  0.0975 -0.1122  0.0823
 2423W        W21170  29.909  22.810   6.297  0.2230  0.0948  0.1634
 2424W        W21171   8.228  33.156  14.555  0.1507  0.1623  0.0017
 2425W        W21172   6.214   0.476  11.991 -0.2898 -0.1976 -0.1498
 2426W        W21173  22.446   6.631   0.002 -0.3929 -0.2792 -0.2522
 2427W        W21174  20.463  14.463   0.694  0.0944 -0.0069 -0.2684
 2428W        W21175   9.607  26.723  15.134 -0.0642  0.1256  0.1565
 2429W        W21176  22.312   9.104   1.993 -0.0806 -0.2162  0.1445
 2430W        W21177  26.051  23.626   0.099  0.2003  0.0832  0.0249
 2431W        W21178   1.947   9.207  24.376 -0.1621 -0.3690  0.0545
 2432W        W21179  33.649   7.166  15.303  0.0694  0.0199 -0.1667
 2433W        W21180  35.302  28.262   4.715  0.0739 -0.0685  0.0966
 2434W        W21181  27.100  26.937  14.737 -0.0656 -0.2473  0.1295
 2435W        W21182   3.275  10.880  16.781 -0.0073 -0.2579  0.1792
 2436W        W21183  23.534  26.710  14.853 -0.0643 -0.0936 -0.1663
 2437W        W21184  11.681   9.973   4.494  0.3963 -0.0249  0.2793
 2438W        W21185  25.703  14.417  16.881  0.0845  0.3459  0.1727
 2439W        W21186  18.934  26.613   2.470 -0.0758  0.0945 -0.0498
 2440W        W21187  26.359  33.219  16.931  0.1464 -0.0957 -0.0939
 2441W        W21188   2.440  19.054  12.008 -0.1600  0.2611 -0.2004
 2442W        W21189  23.550  29.738  12.459  0.1354 -0.1084  0.1971
 2443W        W21190  17.873  15.643   4.269 -0.2209  0.3495  0.0542
 2444W        W21191  14.735  15.680   3.097 -0.2016 -0.2811 -0.0764
 2445W        W21192  16.126   8.435   7.287  0.1363  0.0780  0.0288
 2446W        W21193  16.518  29.198  25.003 -0.1059 -0.2739  0.1706
 2447W        W21194   8.681  32.904  11.487 -0.2539 -0.5833 -0.2257
 2448W        W21195   8.691  31.299   4.988  0.0797  0.1305  0.3193
 2449W        W21196  17.516  25.386   5.641  0.0725 -0.4895  0.0844
 2450W        W21197  14.459   6.832   7.544  0.2786 -0.0456 -0.2248
 2451W        W21198  20.933  32.541   7.951 -0.0322 -0.2241 -0.0078
 2452W        W21199  21.318   0.938   0.617 -0.2783 -0.0409 -0.2831
 2453W        W21200  26.412   0.336  20.600  0.2302  0.1142 -0.0149
 2454W        W21201  20.475  12.775   5.436  0.1442 -0.2369  0.3565
 2455W        W21202  10.594  28.749   6.281 -0.3306  0.1441 -0.0453
 2456W        W21203   9.646  27.265  11.896  0.3796 -0.1287 -0.1110
 2457W        W21204  21.251  34.057  23.806  0.3235  0.4590 -0.0642
 2458W        W21205  16.257  32.271  10.044 -0.2475  0.2110 -0.2279
 2459W        W21206   6.676  22.331  22.594 -0.1841 -0.0081  0.1767
 2460W        W21207   4.147  25.301   5.033 -0.0142  0.0529 -0.1489
 2461W        W21208   5.357   1.585  11.945  0.0235 -0.2645 -0.3655
 2462W        W21209  25.593   6.150  23.243 -0.0378 -0.1471 -0.3262
 2463W        W21210  18.921  27.686   3.883 -0.1612 -0.0476  0.3346
 2464W        W21211  26.397   9.816  18.141 -0.1719 -0.1339 -0.2273
 2465W        W21212   6.120  32.323  12.020 -0.3112  0.1682 -0.1019
 2466W        W21213  30.356   3.660  17.475  0.2864 -0.1713 -0.2146
 2467W        W21214  19.900  15.204  22.812  0.3307 -0.2012  0.2412
 2468W        W21215  12.817  12.561  24.297 -0.0422 -0.4008  0.1842
 2469W        W21216  14.774  33.031  11.402 -0.1758  0.1517 -0.0440
 2470W        W21217  16.456   2.565   9.021  0.0918  0.1174  0.0034
 2471W        W21218  27.485  35.369  24.169  0.2727  0.0603 -0.1891
 2472W        W21219   4.077  26.951  22.074 -0.1986  0.2405 -0.0830
 2473W        W21220  19.918  30.832   2.470  0.0849 -0.1183  0.2083
 2474W        W21221  20.106  13.702   4.279  0.0179 -0.0467  0.1646
 2475W        W21222  31.170   6.099  11.751  0.0087 -0.1125 -0.1901
 2476W        W21223  26.302  25.599  12.616  0.0742  0.2025 -0.1057
 2477W        W21224  25.238  11.171  23.772  0.4306  0.2242  0.0316
 2478W        W21225   5.363   4.901   8.348  0.0608  0.0164  0.4472
 2479W        W21226  26.935   4.019  11.555  0.0353 -0.1177 -0.0546
 2480W        W21227  18.008   3.191  25.849 -0.0746  0.0330  0.0473
 2481W        W21228  16.819  13.389  11.376 -0.3158 -0.2064  0.0016
 2482W        W21229  16.517  25.792   3.207  0.0216  0.2680  0.1104
 2483W        W21230  12.208  16.605   7.531  0.0392  0.0885 -0.0749
 2484W        W21231  17.914  13.729  17.579  0.0629  0.3710  0.1110
 2485W        W21232  30.435  33.791  11.726 -0.1482  0.1260 -0.1958
 2486W        W21233   1.463  20.103  12.346  0.0605  0.1891 -0.1160
 2487W        W21234  29.170  24.930   7.459  0.1630  0.0603  0.0514
 2488W        W21235  17.617  30.591   5.815  0.2731  0.1703  0.0329
 2489W        W21236  22.579  10.143  23.314  0.1957  0.1505  0.1525
 2490W        W21237  18.222  28.832   3.987  0.2224  0.1880  0.0029
 2491W        W21238   3.155   5.231  20.812  0.0474 -0.0357  0.2356
 2492W        W21239  26.962  29.482  10.210  0.0116  0.0236  0.2065
 2493W        W21240   9.167  21.838  14.451 -0.1841 -0.0966  0.0301
 2494W        W21241  33.006  32.269   0.124  0.1023 -0.0064  0.2835
 2495W        W21242  34.818   7.253  19.015 -0.2084  0.1725  0.0547
 2496W        W21243  25.921  17.761  13.421  0.1447  0.1502 -0.0371
 2497W        W21244   6.099  24.947   6.758  0.0500 -0.0940 -0.1163
 2498W        W21245  25.867   1.938  24.434  0.2007  0.0101  0.2178
 2499W        W21246  29.108  12.661  10.665  0.1069  0.1568  0.1355
 2500W        W21247   2.197   5.327  25.466  0.0773 -0.0483  0.3482
 2501W        W21248  16.167  13.368  24.529 -0.0864 -0.2464 -0.2159
 2502W        W21249   6.725  11.552  23.100  0.0379 -0.2190  0.0017
 2503W        W21250  14.006  27.793   4.257  0.0267  0.2410  0.2066
 2504W        W21251  28.965  17.461   6.395  0.0360  0.1047 -0.1932
 2505W        W21252  22.371  33.828  25.639  0.0362 -0.0441  0.1234
 2506W        W21253  35.247  22.332  19.307  0.0023 -0.1232  0.0089
 2507W        W21254  18.825   8.738  19.549  0.0946  0.2764  0.1845
 2508W        W21255   8.197  26.733   0.001  0.0069  0.0321  0.0015
 2509W        W21256  31.486   8.508  10.483 -0.2034  0.2459 -0.1357
 2510W        W21257  10.081  23.802  24.619  0.2344 -0.3520  0.0095
 2511W        W21258   6.426   5.421  22.257  0.0033 -0.2371  0.2964
 2512W        W21259  20.109   6.135   6.552  0.1196 -0.1579 -0.1218
 2513W        W21260   2.324  26.315   0.454  0.0117 -0.0346  0.4809
 2514W        W21261  33.836  18.861   8.290 -0.0176 -0.1483 -0.1314
 2515W        W21262  31.528  31.936  18.600  0.1831 -0.1128  0.0683
 2516W        W21263   4.673   6.680   5.797 -0.0483 -0.3538  0.3813
 2517W        W21264  19.095  12.430  20.826 -0.0074  0.0751 -0.2013
 2518W        W21265  26.714  30.719  17.830  0.1057 -0.1094 -0.2242
 2519W        W21266  10.528  16.386   5.502 -0.4574  0.0001  0.0307
 2520W        W21267  26.943   5.803  22.404  0.0229  0.0892 -0.0721
 2521W        W21268   0.082  31.892   7.167  0.0139  0.0587  0.1852
 2522W        W21269   5.658  32.661  22.423 -0.0365 -0.0309 -0.1590
 2523W        W21270  14.251   8.068   0.641 -0.5462 -0.0253  0.2756
 2524W        W21271  35.248   7.381   5.406 -0.3808  0.1136 -0.0336
 2525W        W21272   0.760  19.219   0.092  0.2090  0.2617  0.0776
 2526W        W21273  20.381  14.987   5.109 -0.0560 -0.1132  0.2872
 2527W        W21274  22.625  27.197  20.468 -0.2497 -0.0338 -0.1629
 2528W        W21275  22.762  27.644   5.231 -0.0091 -0.2377 -0.0810
 2529W        W21276  22.780  28.099  20.288  0.1279 -0.1382  0.1904
 2530W        W21277  29.371   8.328  17.995  0.3295  0.1751 -0.2070
 2531W        W21278  32.128  12.928   6.329 -0.3497  0.2932 -0.1583
 2532W        W21279  25.763  21.608  24.117  0.0128 -0.0796 -0.1286
 2533W        W21280  18.008  23.117   2.701 -0.2231 -0.3912 -0.4447
 2534W        W21281  27.419  35.381   3.094 -0.2736 -0.0241  0.0072
 2535W        W21282  17.640  22.076  10.191  0.0803 -0.2316  0.3136
 2536W        W21283  32.631  11.414  23.274  0.0852  0.0180  0.2131
 2537W        W21284  16.203  10.245   9.825  0.0499  0.1335  0.2061
 2538W        W21285   3.830  16.244  14.675  0.2616  0.0486  0.1823
 2539W        W21286  23.468  21.326   0.140 -0.1238 -0.0965  0.0463
 2540W        W21287  21.074  28.377  19.025 -0.0506 -0.0949  0.5360
 2541W        W21288  32.287  28.807  13.566 -0.0614  0.1021 -0.0644
 2542W        W21289  21.817  31.039  23.708 -0.0072  0.2728  0.0968
 2543W        W21290  15.998   4.136  24.067 -0.1531 -0.3958 -0.1698
 2544W        W21291  25.585   6.852   2.066 -0.1669 -0.1879 -0.1742
 2545W        W21292  22.416   2.324  16.722 -0.1502 -0.0886  0.0210
 2546W        W21293   3.073  23.663   3.321  0.3259  0.3049 -0.1933
 2547W        W21294  17.214  32.304   1.818 -0.0332 -0.0591 -0.2120
 2548W        W21295  13.758  11.919   5.748 -0.0676  0.0593 -0.0451
 2549W        W21296   1.963   6.054  20.298  0.1854  0.0281  0.0936
 2550W        W21297  35.165  10.830  22.072 -0.0993  0.0138 -0.1309
 2551W        W21298  25.353   4.516  11.536  0.0897 -0.1578  0.0661
 2552W        W21299  19.621  32.575  19.442 -0.0063  0.1263  0.0622
 2553W        W21300  19.913  21.307   8.130 -0.1728  0.4302  0.1449
 2554W        W21301  30.807  29.288  15.268  0.0213  0.1230  0.0130
 2555W        W21302  30.945   0.820   5.581 -0.4061  0.2072  0.0316
 2556W        W21303  25.394   1.458  17.934 -0.3424 -0.0644  0.2815
 2557W        W21304  32.339  24.503  18.641  0.0797 -0.1486 -0.2808
 2558W        W21305  18.549  19.157   5.171  0.0231 -0.2170 -0.2476
 2559W        W21306  33.178   1.000   3.783  0.5975  0.1371 -0.0263
 2560W        W21307  10.022   6.352  11.086  0.1513  0.0406 -0.0450
 2561W        W21308  31.789  19.555  24.314 -0.2195 -0.3119  0.2109
 2562W        W21309  12.038  10.786  12.221 -0.2991  0.1253  0.2793
 2563W        W21310  16.095  21.169   8.320  0.1871  0.1667  0.1444
 2564W        W21311  29.793  14.191  13.306 -0.0413 -0.0336 -0.0489
 2565W        W21312  28.379  16.231  23.321  0.0627 -0.0705  0.0885
 2566W        W21313  20.082   3.024  23.323  0.1839  0.1728 -0.0002
 2567W        W21314   7.199  18.275   0.199 -0.4314 -0.0017 -0.0360
 2568W        W21315  17.529  20.159   5.007 -0.1002 -0.0560  0.1223
 2569W        W21316   7.244  15.069  24.753  0.1456  0.1042 -0.2180
 2570W        W21317  34.490  14.407  14.098  0.0341  0.2057  0.3855
 2571W        W21318  12.776  18.194   6.741 -0.1579 -0.0667  0.2140
 2572W        W21319  19.113  14.450   4.871 -0.1038  0.3030  0.2605
 2573W        W21320  18.188  25.559   7.860  0.0915  0.0413 -0.0593
 2574W        W21321   9.934   8.862  25.469 -0.0606  0.0809  0.0019
 2575W        W21322  15.624  22.808  12.910 -0.0127 -0.0561  0.0729
 2576W        W21323  10.630   1.116  21.216  0.1056 -0.1370  0.3309
 2577W        W21324  27.681  24.115  25.910 -0.2014 -0.2682  0.2356
 2578W        W21325  28.174  12.334  18.082  0.2079  0.3791  0.1359
 2579W        W21326  33.235  16.124  21.891  0.0085  0.0909  0.1715
 2580W        W21327  32.541   6.114  19.569 -0.2098 -0.0888 -0.0408
 2581W        W21328   6.553   1.731   7.957 -0.1312 -0.4007  0.0369
 2582W        W21329  19.861   1.246  24.119  0.1266 -0.4373  0.0120
 2583W        W21330  21.163  30.542  24.396  0.0322 -0.2455 -0.0852
 2584W        W21331  28.566  10.692  17.418 -0.0355 -0.0170 -0.0440
 2585W        W21332  22.715  30.493   5.911  0.0680 -0.1101 -0.0848
 2586W        W21333  12.464  27.293   0.834  0.1961 -0.0021  0.2692
 2587W        W21334  26.570  21.946  17.572  0.1029  0.3198  0.2113
 2588W        W21335   8.373  11.395   8.269 -0.1016  0.0554  0.0428
 2589W        W21336  28.715  24.582  14.683 -0.0251  0.0399 -0.1224
 2590W        W21337  15.467  24.673   2.270 -0.2657  0.0243  0.1482
 2591W        W21338  22.906   2.661   0.227  0.0015 -0.1242  0.0218
 2592W        W21339   0.269  13.255  24.902 -0.4091  0.0003 -0.1782
 2593W        W21340  29.522  28.483  19.634  0.2554 -0.2474  0.0363
 2594W        W21341  11.045  23.655  10.638 -0.1786  0.0030 -0.1614
 2595W        W21342  29.946  21.767  19.661 -0.3674  0.1105  0.2667
 2596W        W21343  31.891  27.479  18.552  0.1417 -0.2220 -0.0657
 2597W        W21344  13.941  20.757  23.027 -0.2625 -0.0207 -0.0000
 2598W        W21345  18.567  34.809  20.020 -0.0511  0.1389 -0.0365
 2599W        W21346   7.250   0.038  25.742  0.1691  0.1778  0.2136
 2600W        W21347  29.620  12.005  25.997  0.0656  0.2788 -0.0014
 2601W        W21348  22.398  19.670  16.162 -0.0198  0.0326  0.1765
 2602W        W21349  13.975   6.849  13.165 -0.0402 -0.1897 -0.0185
 2603W        W21350  25.352  28.879   2.808 -0.0188 -0.2577  0.3468
 2604W        W21351  22.880  31.104  16.731 -0.2599  0.1797  0.0212
 2605W        W21352  30.617  33.546  25.731 -0.0731 -0.1347 -0.0811
 2606W        W21353  25.737  17.074  21.640  0.1636  0.2800  0.3321
 2607W        W21354  24.371  12.579   1.816  0.3658  0.4456  0.2788
 2608W        W21355   8.461  15.315  24.226  0.0168  0.3355  0.2482
 2609W        W21356  16.168   1.778  19.046 -0.2710  0.2185 -0.2037
 2610W        W21357  28.520  12.555  10.699  0.0974 -0.0984 -0.0570
 2611W        W21358  27.580  13.271  20.453 -0.1110 -0.0093  0.4223
 2612W        W21359  14.676   1.496  20.244  0.1231  0.1167 -0.0187
 2613W        W21360  19.438  22.570   3.985  0.2135 -0.1741 -0.0672
 2614W        W21361   7.356  30.670  25.398 -0.0772 -0.1689  0.1261
 2615W        W21362  31.213  18.923  15.514  0.1561 -0.1902 -0.0083
 2616W        W21363  25.322   1.638  23.693 -0.1121 -0.0906 -0.3434
 2617W        W21364   4.174   0.034  17.863 -0.2624 -0.4491 -0.1009
 2618W        W21365  26.388  29.695  19.370  0.1940 -0.3175  0.1576
 2619W        W21366  13.672  17.544  10.536 -0.1956 -0.1990  0.2377
 2620W        W21367   7.914   1.523  14.211  0.0413 -0.2269 -0.1463
 2621W        W21368   6.858  10.911  10.324 -0.1785  0.2736  0.0882
 2622W        W21369   3.190  24.470   0.968 -0.1713 -0.0644 -0.1688
 2623W        W21370   7.340  21.172   6.839  0.0136  0.4180 -0.1922
 2624W        W21371  12.951  20.986   0.025  0.1000  0.1718 -0.1094
 2625W        W21372  26.070  34.257   3.657  0.1713 -0.2149 -0.0501
 2626W        W21373  25.548   0.059  13.574 -0.2540 -0.1073  0.0559
 2627W        W21374  13.413  23.537   0.110  0.0324  0.0720 -0.3950
 2628W        W21375  15.694  34.680   3.256  0.6077 -0.1534 -0.0252
 2629W        W21376   4.353  24.259  22.712  0.1103  0.0356 -0.1135
 2630W        W21377  32.296  13.427   8.843  0.0780  0.1038  0.0525
 2631W        W21378  34.034  16.510  24.612  0.2689 -0.0397 -0.4055
 2632W        W21379   0.753  24.536  21.595  0.2004  0.5666  0.1799
 2633W        W21380   0.104   2.424   2.192  0.2920 -0.4308  0.0273
 2634W        W21381  16.290   9.905  19.000  0.1115  0.1966 -0.1497
 2635W        W21382   7.939  28.662  16.343 -0.1859 -0.2053  0.2234
 2636W        W21383   0.252   0.177  22.011  0.1646 -0.3537  0.1144
 2637W        W21384   8.184  24.195   2.864  0.1572 -0.3403 -0.0209
 2638W        W21385  30.431  25.307   8.126  0.0348  0.1927 -0.0935
 2639W        W21386   9.022  27.806   9.820  0.2163  0.1627  0.0514
 2640W        W21387   9.415  21.227  15.454  0.4017  0.2783  0.0786
 2641W        W21388  20.471  16.046  22.670  0.4391  0.3036 -0.0180
 2642W        W21389  34.430  18.770  12.236  0.0816  0.0029 -0.0325
 2643W        W21390  34.591  14.138   8.466 -0.0647 -0.0708 -0.0821
 2644W        W21391  18.339  12.773  24.190  0.0273  0.0209 -0.3438
 2645W        W21392   0.129  10.099  20.309  0.1980  0.1156  0.0618
 2646W        W21393  26.932   3.906   3.370  0.3174  0.2755 -0.0916
 2647W        W21394  30.459  25.180  18.222 -0.0399 -0.1535  0.0723
 2648W        W21395  13.573  13.812   5.456  0.0327 -0.2747 -0.0980
 2649W        W21396   2.811  32.672  19.372 -0.1079  0.1086 -0.2903
 2650W        W21397   7.137   6.304  19.030  0.2432 -0.2422 -0.0183
 2651W        W21398  30.297   8.996  22.445 -0.0493  0.0244  0.1918
 2652W        W21399  31.721  27.424  14.608 -0.1705 -0.0188  0.0740
 2653W        W21400   8.034  30.928   9.222  0.0009 -0.1106 -0.1190
 2654W        W21401   0.105  32.833   3.950  0.3001 -0.2136  0.3526
 2655W        W21402  23.264   5.434  18.946  0.1800 -0.2200 -0.1558
 2656W        W21403  32.451  24.217  19.314  0.2312 -0.1085 -0.2604
 2657W        W21404   0.808  34.583   1.282  0.3325 -0.2846 -0.1409
 2658W        W21405  34.738  19.754  26.221  0.0666 -0.0068  0.2009
 2659W        W21406  33.358   2.581  15.822  0.0713 -0.0603  0.0525
 2660W        W21407  32.639   2.827   0.538 -0.2242 -0.0388 -0.0428
 2661W        W21408  25.672  22.400  14.902 -0.0967 -0.0024  0.1851
 2662W        W21409  34.975   1.116  18.213 -0.1085 -0.2983  0.1812
 2663W        W21410  33.078  32.934  14.482  0.0825  0.1284  0.2275
 2664W        W21411  13.779  16.176   6.773  0.0705 -0.0757  0.0249
 2665W        W21412  17.228   1.576  19.785 -0.2014 -0.0871  0.2099
 2666W        W21413  23.637   6.641  24.943  0.3726  0.0618 -0.1106
 2667W        W21414   6.269  23.140   5.030  0.1151  0.1080  0.1559
 2668W        W21415   5.627  34.098   2.362  0.1521  0.2862 -0.1619
 2669W        W21416  31.454   9.213  10.219 -0.1018 -0.1454  0.0269
 2670W        W21417   5.560  25.823   6.853 -0.4826 -0.2591  0.2580
 2671W        W21418  30.540  16.120   5.360 -0.2395 -0.1546  0.1190
 2672W        W21419   2.215  20.992  17.065 -0.1889 -0.1342 -0.0021
 2673W        W21420  29.522   9.656  12.736 -0.1180 -0.1647 -0.1446
 2674W        W21421  21.460   4.583   4.769 -0.1017 -0.1949  0.1173
 2675W        W21422   5.577  31.162  13.043  0.2830  0.2116 -0.1392
 2676W        W21423  31.856   3.338  21.401 -0.0609  0.1451 -0.3489
 2677W        W21424   3.156  22.314   1.538 -0.0580 -0.0591 -0.2569
 2678W        W21425  18.914  33.609   5.367 -0.1563 -0.3562 -0.0652
 2679W        W21426   9.256  17.901   2.618 -0.1912  0.2069 -0.0774
 2680W        W21427   4.146   9.450  17.935  0.0321 -0.2033  0.1838
 2681W        W21428  28.956  29.572  10.686 -0.3535  0.2630 -0.0164
 2682W        W21429  26.429  30.302  26.032  0.0676 -0.1032  0.1077
 2683W        W21430  12.880   0.039   1.967  0.1995  0.1318  0.1154
 2684W        W21431  22.986  11.206   2.044 -0.1352 -0.1849 -0.1060
 2685W        W21432   2.607  29.587  22.485  0.3565  0.0201 -0.2021
 2686W        W21433   6.685  31.838   2.859  0.1232  0.0317 -0.3678
 2687W        W21434  18.114  18.910   4.408  0.0314 -0.1767  0.1821
 2688W        W21435  27.136  15.627  11.490 -0.3207  0.2397 -0.1063
 2689W        W21436  13.259   2.127   0.951  0.1334  0.2124 -0.3699
 2690W        W21437  27.633  34.925   6.181 -0.0154  0.1226  0.1834
 2691W        W21438   2.266   0.128   7.495  0.0218  0.2035  0.0829
 2692W        W21439   7.193  20.999   0.018 -0.1737  0.2429 -0.0373
 2693W        W21440   2.132  29.874   1.683  0.0526  0.2984 -0.1344
 2694W        W21441  19.323   9.518   7.111 -0.1117  0.2487  0.0579
 2695W        W21442  25.980  10.833   7.544  0.0039 -0.0502  0.1666
 2696W        W21443  12.184  31.378  15.334  0.2492 -0.0664  0.1449
 2697W        W21444  20.414  16.062  17.546 -0.1180  0.3837  0.1037
 2698W        W21445  15.730  18.600  25.557 -0.0465  0.1306 -0.0450
 2699W        W21446  18.751  30.399  25.480 -0.1495 -0.1823  0.2955
 2700W        W21447   2.489   5.187   1.490  0.1294 -0.1115  0.0716
 2701W        W21448  11.234  20.859  14.375 -0.0478  0.0297  0.3083
 2702W        W21449  34.263   6.002  20.201  0.0828 -0.0082 -0.3526
 2703W        W21450  13.471  20.398   6.688 -0.3512 -0.4036  0.0758
 2704W        W21451  26.405  11.887  21.998 -0.0911  0.1496 -0.0812
 2705W        W21452   6.038  34.605   2.804  0.2039  0.4360  0.3607
 2706W        W21453   7.980   9.874   8.034 -0.0786 -0.0444 -0.1839
 2707W        W21454   5.169  20.242  18.137 -0.3226  0.0915 -0.0236
 2708W        W21455  23.210  15.568   1.427  0.1465  0.0667 -0.2771
 2709W        W21456  17.231  13.042  26.041  0.2037  0.1729  0.2517
 2710W        W21457   0.139   9.758  26.139 -0.2311  0.0967 -0.3180
 2711W        W21458  31.582  28.013  17.513  0.3222 -0.2179 -0.0478
 2712W        W21459  24.740  17.579  15.802  0.2163  0.0617  0.0126
 2713W        W21460   1.440  34.141   8.522  0.1129 -0.3600 -0.2058
 2714W        W21461   7.479   1.330   5.506 -0.5739  0.0082 -0.1536
 2715W        W21462  24.851  16.206  19.056  0.3637  0.0286  0.1886
 2716W        W21463  24.315  20.923  13.910 -0.2780  0.2290  0.0945
 2717W        W21464   3.757  12.779   0.847 -0.1174  0.1780 -0.2560
 2718W        W21465   5.030  25.033  22.030 -0.0418  0.1078  0.2232
 2719W        W21466  29.994  31.364  20.083 -0.0830 -0.1432 -0.2894
 2720W        W21467  19.191  12.605  24.337 -0.3847  0.1356  0.1500
 2721W        W21468  29.850   2.964  18.759 -0.0273  0.0156 -0.0869
 2722W        W21469  13.548  32.986  14.033 -0.0085 -0.3381 -0.1401
 2723W        W21470  27.154   3.456  14.427  0.2754 -0.2107 -0.1215
 2724W        W21471  10.988  17.749  23.240  0.1603 -0.0903 -0.2990
 2725W        W21472  34.708  33.600  21.177  0.0147 -0.3405 -0.2126
 2726W        W21473   9.339  16.485  25.607 -0.1252  0.0099  0.1784
 2727W        W21474   5.615  23.749   2.614  0.1769 -0.1069 -0.1444
 2728W        W21475  22.867  27.395  18.255  0.3016  0.1697 -0.3087
 2729W        W21476  26.748   6.721  17.282  0.0927  0.1045  0.0515
 2730W        W21477  19.099   0.142  24.197 -0.0938 -0.3498  0.0948
 2731W        W21478  32.116  22.325  24.884 -0.2482  0.1081  0.0725
 2732W        W21479  11.372   5.985  20.601 -0.0875  0.0035 -0.1637
 2733W        W21480  28.093  27.251  18.024 -0.3118 -0.2719 -0.0928
 2734W        W21481  29.506  32.078  22.670 -0.1784 -0.3972  0.1397
 2735W        W21482  20.108  28.616   3.513 -0.2046 -0.0762  0.2831
 2736W        W21483  24.920   9.512   2.539  0.1677  0.0491 -0.2837
 2737W        W21484   9.731  27.844  12.783  0.0410  0.1579  0.0879
 2738W        W21485  29.582   1.408   5.672 -0.0493 -0.1611 -0.2467
 2739W        W21486  30.988   0.311   1.880 -0.1886 -0.0596  0.0520
 2740W        W21487   8.254   7.985  22.323 -0.0609  0.0235  0.0741
 2741W        W21488  21.737  23.901  23.157 -0.4408 -0.0330  0.0266
 2742W        W21489   0.377  28.260  24.265 -0.1200 -0.1104  0.0271
 2743W        W21490   1.496  22.114  22.046  0.3661 -0.2687  0.1801
 2744W        W21491  29.443   4.817  19.847 -0.0809 -0.1745 -0.1054
 2745W        W21492  31.903  34.194  14.097  0.0559 -0.3193  0.0262
 2746W        W21493  31.308  31.651   3.600  0.0069 -0.0622  0.1066
 2747W        W21494  19.430  13.126   1.405 -0.1638  0.0016  0.2561
 2748W        W21495   8.168  18.970  24.475  0.1253  0.3081  0.2503
 2749W        W21496  32.119  23.600  14.410  0.4452  0.1139 -0.0365
 2750W        W21497  21.629  19.669  20.936 -0.2062 -0.1028  0.1192
 2751W        W21498  10.276   1.518  22.531 -0.0312  0.2873  0.1099
 2752W        W21499  18.982   2.661  23.632 -0.0338  0.0386 -0.1383
 2753W        W21500  17.540  33.703  19.897 -0.3602  0.2117 -0.1749
 2754W        W21501   0.137   9.987  12.809  0.0267  0.1378 -0.3231
 2755W        W21502  15.393   8.219   3.227 -0.0666  0.1430 -0.0814
 2756W        W21503  34.236   5.087  21.170  0.0343 -0.0973 -0.0299
 2757W        W21504  26.935   4.828  25.764  0.4787 -0.2283 -0.1761
 2758W        W21505   4.219  32.579   7.018 -0.0721  0.1996 -0.3741
 2759W        W21506  34.777  19.328  16.199  0.0045  0.3277 -0.0554
 2760W        W21507  34.960   0.747  21.398 -0.1879 -0.0094 -0.1240
 2761W        W21508  10.661   3.800  11.354  0.2195  0.3855 -0.0119
 2762W        W21509  29.939  24.665  15.937 -0.0403  0.0435 -0.1159
 2763W        W21510  24.738  15.847  20.380  0.3589 -0.2051 -0.1535
 2764W        W21511  26.783   3.614  11.846  0.1576  0.1223 -0.1689
 2765W        W21512   0.122  13.643   1.732 -0.0314 -0.1043  0.0891
 2766W        W21513  30.681   3.836  20.443 -0.0121  0.2142  0.2415
 2767W        W21514  17.967  27.641   2.436 -0.1729  0.6578  0.1983
 2768W        W21515  32.909   8.171  21.621 -0.0425  0.1028  0.0464
 2769W        W21516   4.865  29.589  20.857 -0.2990 -0.1168  0.0272
 2770W        W21517  32.203   6.676  24.435  0.2083 -0.2123 -0.1768
 2771W        W21518  31.985  30.121   2.047  0.1831 -0.2790 -0.0743
 2772W        W21519  10.056  34.175  13.870 -0.1531 -0.1585  0.3096
 2773W        W21520  30.828   9.402  11.030  0.0166  0.0352 -0.0924
 2774W        W21521  30.660  22.856  14.070 -0.0586  0.0657 -0.0803
 2775W        W21522  29.431  14.630   8.978  0.0071  0.0082 -0.0270
 2776W        W21523  29.511  33.090  25.465 -0.2016 -0.1496  0.1823
 2777W        W21524   8.751  21.256  22.247  0.0278 -0.0598 -0.0542
 2778W        W21525  16.303  16.227   3.284 -0.1865  0.1610 -0.2699
 2779W        W21526   9.062  34.539   9.437 -0.0707  0.0591  0.0335
 2780W        W21527  10.602  24.566  22.508  0.3674  0.1820  0.1497
 2781W        W21528  33.096  32.349  15.413  0.0628  0.0288  0.0699
 2782W        W21529   0.337  13.683   0.197  0.0812  0.0687  0.1676
 2783W        W21530  18.461   8.282  25.912  0.2033 -0.1888  0.0305
 2784W        W21531   8.816  30.343  13.503  0.1745  0.0647 -0.3656
 2785W        W21532   8.444  32.239  22.441  0.0712 -0.2980  0.0710
 2786W        W21533   8.462   5.066   2.715  0.4399  0.0610  0.2537
 2787W        W21534  26.220   5.609  19.886 -0.2466  0.1127 -0.1453
 2788W        W21535  16.490  17.161  12.959 -0.2576 -0.1343  0.0121
 2789W        W21536  33.576  28.809  22.432 -0.1757 -0.1313  0.2051
 2790W        W21537  21.180  17.824   4.970  0.3029 -0.0218 -0.2481
 2791W        W21538   1.286  13.524  23.116 -0.0879  0.0349  0.0939
 2792W        W21539  31.974  20.964  15.094  0.0139  0.0719  0.4006
 2793W        W21540   9.798   7.691  13.612 -0.3171 -0.1725  0.0100
 2794W        W21541   2.263  32.415  18.828 -0.0326  0.2757  0.0668
 2795W        W21542  16.077  26.283   4.099 -0.0451  0.1592 -0.0812
 2796W        W21543  24.522  17.334   9.422  0.0191  0.2816  0.0115
 2797W        W21544  24.224  35.316  22.954  0.1990 -0.0615  0.2158
 2798W        W21545   9.464   2.182  26.012  0.1663 -0.1493  0.1121
 2799W        W21546  20.190  11.521   6.429 -0.2664  0.0592  0.1032
 2800W        W21547  31.095  11.359  21.251  0.0280  0.1627  0.1446
 2801W        W21548   2.022   4.348  16.548  0.2586 -0.1405 -0.2809
 2802W        W21549  20.628  20.913   3.780 -0.0130 -0.1084  0.1920
 2803W        W21550  22.712  15.148  24.626  0.1932  0.1553  0.4136
 2804W        W21551  26.880  25.430   9.793  0.0760  0.0499 -0.0984
 2805W        W21552  16.930   5.089  18.314  0.1928  0.0612  0.1409
 2806W        W21553  19.229  27.975   8.422 -0.0348 -0.1662 -0.1333
 2807W        W21554  33.470  29.318  21.021 -0.2395 -0.3073  0.0317
 2808W        W21555   0.768  27.557   0.533 -0.2095 -0.0961  0.1049
 2809W        W21556   7.648   0.901  22.290  0.0908  0.3473 -0.1232
 2810W        W21557  23.587  18.063  17.240 -0.0144  0.2852  0.1294
 2811W        W21558   9.702   8.601  21.144 -0.0351  0.0302 -0.1285
 2812W        W21559  33.222  33.477   6.621 -0.0855 -0.4167  0.1598
 2813W        W21560  31.695   0.355  21.886  0.0991  0.0646  0.1268
 2814W        W21561  26.752  14.164  21.773  0.0380  0.2011  0.4320
 2815W        W21562   5.696  30.784  25.238  0.1920  0.0904  0.2893
 2816W        W21563   2.549   7.924  17.423  0.2342  0.3464 -0.1578
 2817W        W21564  31.503  14.256  23.409  0.0431 -0.2200  0.1409
 2818W        W21565   5.927   7.346   8.970  0.2075  0.1886 -0.0910
 2819W        W21566  35.374  16.371  14.144  0.2477 -0.1997  0.1482
 2820W        W21567  21.285  17.127   4.279  0.1650  0.0688  0.2235
 2821W        W21568   6.600  20.844   7.306  0.2829 -0.0801  0.3027
 2822W        W21569   9.995   2.981   8.596  0.2371  0.2425  0.1445
 2823W        W21570  23.898   6.554  17.602 -0.1051  0.2243 -0.0953
 2824W        W21571   6.675  15.137  19.027  0.0638  0.0621  0.0369
 2825W        W21572  29.624  27.196  19.051 -0.2920  0.0755 -0.0521
 2826W        W21573  22.535  33.679   6.866  0.1571  0.0795 -0.3223
 2827W        W21574  26.856  11.906  15.585 -0.2804  0.1129 -0.0606
 2828W        W21575   5.587  31.362  22.307  0.0109  0.1318  0.0301
 2829W        W21576  23.458   5.748   0.207  0.0094 -0.1975 -0.4503
 2830W        W21577  33.349  10.412  12.665  0.0528  0.2479 -0.0237
 2831W        W21578   5.496  17.162   2.358  0.3097  0.0364  0.1419
 2832W        W21579  34.425  21.743  11.748 -0.0713  0.3318 -0.3790
 2833W        W21580  16.901  16.602  19.416  0.2361 -0.0862  0.2390
 2834W        W21581  26.172  29.913  23.195  0.2158  0.0960  0.1803
 2835W        W21582  13.686  16.716   1.851 -0.1949  0.0235  0.0856
 2836W        W21583  34.654  10.811  19.415 -0.0701 -0.3660  0.3343
 2837W        W21584  20.340  16.214   4.292 -0.1713 -0.3397 -0.0175
 2838W        W21585   5.332  25.825  20.753 -0.1844 -0.1081  0.0467
 2839W        W21586   0.831  31.208   5.237  0.1095 -0.0359  0.1134
 2840W        W21587  23.700  34.930  25.260 -0.0843 -0.3052 -0.3179
 2841W        W21588  21.520  22.748  22.653  0.2865 -0.3972  0.1382
 2842W        W21589  18.859  21.043  26.043  0.1511 -0.1551  0.0241
 2843W        W21590  23.080  24.282  22.858 -0.1587 -0.1459  0.1318
 2844W        W21591   0.879  10.989  12.349  0.0727  0.3895 -0.1418
 2845W        W21592  29.310  32.351  20.328  0.3883  0.0590 -0.0556
 2846W        W21593  13.776  15.994  26.130  0.5424 -0.2801 -0.0819
 2847W        W21594  24.800  10.977  15.499  0.1591  0.0954  0.2043
 2848W        W21595  10.035   7.228  23.609 -0.0335  0.3074  0.2725
 2849W        W21596   4.714   7.911   7.130 -0.0111  0.1272 -0.0893
 2850W        W21597   0.417  23.701  13.721 -0.1185 -0.3044 -0.1026
 2851W        W21598  27.990  29.085   3.479 -0.2419  0.0079 -0.0141
 2852W        W21599  32.972  19.719  24.413  0.0522  0.0550 -0.1267
 2853W        W21600   5.541  13.230   1.118 -0.2011  0.1838 -0.1155
 2854W        W21601  11.730  21.189  24.909 -0.1628  0.0259 -0.2316
 2855W        W21602  20.947  32.507  15.447  0.0133 -0.1244  0.0116
 2856W        W21603  15.326  13.138  12.274 -0.2042  0.4784 -0.0076
 2857W        W21604  12.857  29.928  22.232  0.1823 -0.1301  0.0497
 2858W        W21605  32.862  13.580  14.061  0.1678 -0.1689 -0.3503
 2859W        W21606   4.501  11.349  19.730 -0.0606 -0.3937  0.0078
 2860W        W21607   9.905   4.434  20.515 -0.0298  0.0662  0.0272
 2861W        W21608  10.744  11.413   7.116 -0.1031 -0.1887 -0.0762
 2862W        W21609  23.574  15.782   2.720 -0.3075  0.1225 -0.2176
 2863W        W21610  10.384   2.110   6.077  0.0060  0.0636  0.1752
 2864W        W21611  27.150   1.561   2.916 -0.0461  0.2531 -0.1061
 2865W        W21612  34.525  24.811  26.130 -0.4837 -0.1659 -0.4501
 2866W        W21613   4.978   7.575  10.080 -0.2466  0.2669 -0.3368
 2867W        W21614  22.282  13.210  25.026 -0.0286 -0.0473 -0.0156
 2868W        W21615   8.053  12.411  24.177 -0.0596 -0.0065  0.2819
 2869W        W21616  33.979  34.547  14.079  0.0711 -0.1766 -0.0853
 2870W        W21617  19.963  33.868  20.083  0.0976  0.1280  0.1139
 2871W        W21618  21.905   0.541  24.552 -0.1134  0.0321 -0.1792
 2872W        W21619  32.089   6.591   0.216 -0.0786  0.1800  0.3913
 2873W        W21620  31.749  30.474  22.180  0.0900 -0.2723  0.0469
 2874W        W21621  22.764   8.655   5.501  0.2736 -0.1614 -0.0177
 2875W        W21622  15.494   1.283  19.028 -0.3070 -0.2668  0.0136
 2876W        W21623  18.936   3.854   9.136 -0.1497  0.1518 -0.0891
 2877W        W21624   7.042  32.881  23.553 -0.1898 -0.0545  0.1662
 2878W        W21625  26.973  16.915  20.517  0.1371 -0.0432  0.2333
 2879W        W21626  26.758  10.327  10.829  0.2462 -0.1406 -0.3054
 2880W        W21627   3.788   6.413  17.955  0.1539 -0.0409 -0.3519
 2881W        W21628  15.213  26.079   8.062  0.4094 -0.0747  0.0792
 2882W        W21629  21.886  29.854  14.751 -0.1938 -0.0373  0.1750
 2883W        W21630   7.556  29.644  15.079 -0.0893 -0.0092  0.2194
 2884W        W21631  28.680  18.591  26.114 -0.0378 -0.0587  0.0417
 2885W        W21632  24.961   4.238  26.176  0.0318 -0.2568 -0.0633
 2886W        W21633  15.777  12.632  26.068  0.1338  0.2422  0.0158
 2887W        W21634  32.156  24.281  24.421  0.0014 -0.0058 -0.1803
 2888W        W21635  21.135  10.787  15.570  0.3726  0.1422 -0.2872
 2889W        W21636  30.430  19.234  17.586 -0.0116  0.3362  0.4176
 2890W        W21637  17.447  19.613   4.993  0.0108  0.2506 -0.1167
 2891W        W21638  30.091  32.846   1.343 -0.0588  0.0079  0.0661
 2892W        W21639   3.086  26.674   2.752 -0.0087  0.0836  0.4191
 2893W        W21640   2.271   4.908   6.455  0.2374  0.1098  0.0853
 2894W        W21641   9.676  29.565   0.541 -0.0777 -0.0988 -0.0811
 2895W        W21642  27.863  15.411  20.699 -0.0357 -0.2440  0.1290
 2896W        W21643   0.065  20.755  11.375  0.1598  0.1548  0.1131
 2897W        W21644   1.587  15.438   2.269 -0.3114 -0.1206 -0.1740
 2898W        W21645  11.946  34.301  12.300 -0.2133  0.0179 -0.3742
 2899W        W21646  34.755   0.411  19.582  0.0850 -0.2498  0.2008
 2900W        W21647  10.913  21.048  10.101  0.0589 -0.0093 -0.1307
 2901W        W21648  28.043  28.269  12.719 -0.1792  0.0106  0.2203
 2902W        W21649  28.006  33.277  25.647 -0.1543  0.1403  0.1607
 2903W        W21650  21.629  33.500  17.375  0.0327  0.0542  0.1547
 2904W        W21651  17.458  33.488   0.812 -0.0240  0.0686  0.2736
 2905W        W21652  31.487  29.937  20.250 -0.0710 -0.1713 -0.1715
 2906W        W21653  19.814  20.319   3.316 -0.0715 -0.0188  0.0486
 2907W        W21654  33.561  11.075  19.595  0.2282  0.2437  0.3830
 2908W        W21655  10.101  28.144  14.998  0.1732 -0.2332 -0.0065
 2909W        W21656  23.196  33.969   4.277 -0.0362 -0.2800  0.1781
 2910W        W21657  31.488   5.280  25.956  0.0456  0.2688 -0.0815
 2911W        W21658  21.476   7.757  17.910  0.2053  0.0414  0.2093
 2912W        W21659  16.286   6.006  12.115 -0.0055  0.2540 -0.3246
 2913W        W21660  31.289  18.423  16.694 -0.0724  0.0493 -0.0422
 2914W        W21661   7.109  32.613   3.040 -0.2110 -0.1077 -0.1676
 2915W        W21662   0.416  23.673  12.336 -0.1816 -0.0878 -0.1652
 2916W        W21663   6.795  26.667  14.473 -0.0973 -0.0116  0.3599
 2917W        W21664  28.345  30.883  24.198  0.0516  0.0851  0.2363
 2918W        W21665   8.476  27.362  13.267  0.1108 -0.2019  0.0575
 2919W        W21666  22.706   9.011  19.831 -0.0747  0.0567  0.1269
 2920W        W21667  14.897  31.677   9.687  0.0082 -0.1159 -0.3249
 2921W        W21668  12.789  20.529   0.459 -0.1440  0.1529  0.2011
 2922W        W21669  26.127   7.209  20.281 -0.3617  0.3804  0.1761
 2923W        W21670  19.933  13.295  18.070 -0.2918  0.1162 -0.1825
 2924W        W21671   4.383  33.486  22.699 -0.0282 -0.0738 -0.1130
 2925W        W21672  15.315  17.066  10.101 -0.0428 -0.0392  0.1260
 2926W        W21673   7.758  23.761  16.335  0.0760  0.1023  0.0307
 2927W        W21674   8.709   8.322  20.873  0.2242 -0.0742  0.0362
 2928W        W21675  23.301  22.493   1.803  0.0236  0.0887 -0.0322
 2929W        W21676   0.774  20.428  18.159 -0.0932 -0.0924 -0.1049
 2930W        W21677  21.299  23.149   1.020 -0.2219 -0.1147 -0.0329
 2931W        W21678  30.017  16.669   7.811 -0.0080  0.1144 -0.3067
 2932W        W21679   2.534  14.971   2.022  0.3323  0.0737 -0.0170
 2933W        W21680  19.194   1.423  24.872 -0.2284  0.2464 -0.2433
 2934W        W21681  11.381  11.133  20.024  0.0735 -0.1641 -0.0096
 2935W        W21682  30.356   9.377  22.810  0.2364  0.0664  0.0038
 2936W        W21683  32.095  29.337  22.531 -0.1010 -0.2017 -0.0203
 2937W        W21684  22.657  34.050  17.053 -0.5454 -0.0564  0.3491
 2938W        W21685   2.092  18.235  16.199 -0.0278  0.1059 -0.4193
 2939W        W21686  15.637  16.142   8.081  0.0078  0.1211 -0.0572
 2940W        W21687  27.915  16.471   3.957  0.1867 -0.2263  0.2463
 2941W        W21688   2.250  22.824  16.740 -0.2240 -0.0164 -0.2479
 2942W        W21689  35.100  26.195  16.115  0.1667  0.2803 -0.0000
 2943W        W21690   4.656  19.323   1.884 -0.3016 -0.0758 -0.0756
 2944W        W21691  33.225   9.427   0.639 -0.0060  0.1765 -0.0486
 2945W        W21692  23.748   6.516  15.126 -0.2304  0.0327 -0.0572
 2946W        W21693  16.745  23.278  24.111  0.0232  0.3445 -0.0319
 2947W        W21694   2.251  24.270  20.001 -0.0130  0.1090 -0.2429
 2948W        W21695   8.689   1.609   7.593 -0.3011 -0.2718  0.2277
 2949W        W21696  10.992  11.565   7.521 -0.1436  0.2624 -0.1314
 2950W        W21697  14.674  15.119   3.042  0.2550 -0.2801 -0.0208
 2951W        W21698  28.768  35.346  20.554 -0.1804 -0.0042  0.1789
 2952W        W21699   9.307  10.437  20.688 -0.3153 -0.0694  0.1027
 2953W        W21700  19.553   1.083   3.938  0.0997  0.4613  0.0355
 2954W        W21701  15.531  12.809   2.013  0.0162 -0.2222  0.2391
 2955W        W21702  30.143  11.904   6.740  0.0745  0.1775 -0.0027
 2956W        W21703   5.776   4.935  21.922  0.1541 -0.2021  0.1616
 2957W        W21704  11.872  11.536   1.012  0.3812  0.2388  0.2879
 2958W        W21705  13.545  12.117  20.943 -0.1361  0.0870  0.5013
 2959W        W21706  16.711  15.512  11.135  0.3745  0.0865  0.2984
 2960W        W21707   2.936  23.333  21.271 -0.2421  0.1492 -0.0036
 2961W        W21708  13.569  30.860   5.813 -0.0029 -0.0305 -0.1539
 2962W        W21709  16.579  11.936  12.249 -0.1881  0.0023  0.2930
 2963W        W21710  18.465   8.460   6.942  0.2913  0.1919  0.0130
 2964W        W21711   4.596  10.745  24.505  0.1737  0.0162 -0.0748
 2965W        W21712   4.590  34.996   2.409 -0.4307  0.0065 -0.3789
 2966W        W21713  12.392  13.382  19.186  0.1054  0.0715 -0.0875
 2967W        W21714  12.372   7.812   1.058  0.3622  0.1195  0.0064
 2968W        W21715   4.737  11.268   4.293  0.0947  0.1221  0.3927
 2969W        W21716  31.322  32.424   4.796  0.3792 -0.1014 -0.1287
 2970W        W21717  35.026  20.577  18.659  0.2134  0.2569 -0.0600
 2971W        W21718  25.142  35.352   3.247  0.0271  0.0137 -0.5058
 2972W        W21719  27.583  12.173  10.638 -0.1516 -0.1433  0.0723
 2973W        W21720  29.672  22.525  16.911  0.0032  0.2553 -0.4029
 2974W        W21721  29.041  10.878   7.995 -0.0986  0.0740 -0.0153
 2975W        W21722   7.782   3.675  24.076 -0.0104 -0.2545  0.0925
 2976W        W21723  10.661  26.686  12.424 -0.2462 -0.0440  0.1181
 2977W        W21724  15.619  27.509   8.243  0.1650 -0.0920 -0.2522
 2978W        W21725  28.762  34.973   2.912  0.1659  0.2923  0.3396
 2979W        W21726  11.228   5.490   9.690  0.2029  0.0604 -0.2273
 2980W        W21727  35.094  21.648  17.408 -0.0196 -0.0370  0.2275
 2981W        W21728   9.461  25.393  11.759 -0.0674 -0.1239  0.0781
 2982W        W21729  19.284  17.987   4.239  0.1376  0.0647 -0.5609
 2983W        W21730  14.627  23.828   3.039  0.3648 -0.0897  0.0050
 2984W        W21731   5.108  26.267  20.725  0.3546  0.1280 -0.1444
 2985W        W21732  13.824  33.637   2.559 -0.2579 -0.1842 -0.2543
 2986W        W21733  20.036  20.813   6.037 -0.1179 -0.3683 -0.0633
 2987W        W21734  27.037   0.738  21.019 -0.2148  0.0603  0.2490
 2988W        W21735  15.030   5.985   5.818 -0.1633 -0.1227  0.0606
 2989W        W21736   2.363   0.365  21.565 -0.0277 -0.3490  0.1884
 2990W        W21737   3.119   1.367   4.667 -0.0646 -0.0741  0.2755
 2991W        W21738  24.908  23.306  15.364 -0.1324  0.0842  0.2066
 2992W        W21739  10.045  17.388   2.074 -0.3291  0.0921 -0.0353
 2993W        W21740  16.801  17.381   6.175  0.0031  0.3001  0.2210
 2994W        W21741  27.056  11.645  12.884  0.1013  0.2316  0.1155
 2995W        W21742  18.840  21.400   9.347 -0.2075  0.0536  0.0000
 2996W        W21743  10.348   4.483  12.966  0.0081  0.0667 -0.1018
 2997W        W21744  31.525  33.723  19.785  0.1690 -0.0242  0.1450
 2998W        W21745  16.509  31.846   1.054  0.0817  0.0470 -0.0300
 2999W        W21746   5.693  33.499  20.913 -0.0215  0.3349 -0.0413
 3000W        W21747   5.167  32.901   5.702  0.2850  0.0117  0.0657
 3001W        W21748  18.048  30.137   4.969 -0.0101 -0.2280  0.1016
 3002W        W21749   3.766  26.798  10.392 -0.0624  0.1204 -0.2495
 3003W        W21750  26.441  26.048  12.437 -0.0378  0.1146  0.0618
 3004W        W21751  12.209  30.495   0.486 -0.1847 -0.2650  0.0556
 3005W        W21752  31.696  33.905   0.311  0.1934  0.0778 -0.0081
 3006W        W21753  10.705  26.637  15.368 -0.0183 -0.2760  0.2914
 3007W        W21754  20.183   2.889  24.839 -0.0470  0.1309  0.1533
 3008W        W21755  12.212   1.411   1.186 -0.2553  0.2668 -0.0297
 3009W        W21756  32.984  21.627   9.626  0.0460  0.4654  0.0324
 3010W        W21757  34.486   4.485  13.756  0.2140  0.0337 -0.4234
 3011W        W21758   6.542  32.059  11.983  0.1608  0.0480 -0.2159
 3012W        W21759  29.865  34.837  13.620  0.0256 -0.0772  0.4134
 3013W        W21760  11.607  22.328  16.084 -0.1120  0.1098 -0.1574
 3014W        W21761  23.476   3.775  14.194  0.3351  0.3434 -0.0467
 3015W        W21762  14.226  21.814  13.197  0.1147  0.3099  0.0592
 3016W        W21763  17.488  29.824   9.458 -0.2478  0.0111  0.0365
 3017W        W21764  14.722  32.472  23.634 -0.1700 -0.3220 -0.0964
 3018W        W21765   5.374   9.510  20.224 -0.0408 -0.0702 -0.2676
 3019W        W21766  19.806   6.591  21.139  0.0273  0.1103  0.2711
 3020W        W21767  12.910  17.841   5.412  0.1080 -0.0819  0.3171
 3021W        W21768  15.495   2.216  18.456 -0.2914  0.0403  0.3275
 3022W        W21769  15.479  14.605   7.489 -0.0843  0.3425  0.0378
 3023W        W21770  17.634  26.070  11.378 -0.3261  0.0434 -0.1995
 3024W        W21771  28.847  31.943  19.706  0.2735  0.0533 -0.0778
 3025W        W21772   0.636   1.183   8.522 -0.0254 -0.3467  0.0502
 3026W        W21773   2.253  29.508  20.421  0.2444  0.1701  0.0814
 3027W        W21774   0.244  35.288  20.381 -0.0359  0.0112 -0.0306
 3028W        W21775  30.864  11.945   9.856  0.0332  0.1355 -0.0809
 3029W        W21776  29.652  28.484  11.686  0.0879  0.1185  0.1495
 3030W        W21777  12.450  15.702   3.007  0.0697  0.2735 -0.0913
 3031W        W21778  10.214  22.124   6.119  0.1639 -0.3763  0.0853
 3032W        W21779   6.819  34.604   9.353 -0.1482 -0.1475 -0.0090
 3033W        W21780  15.542  22.781   4.032  0.1312  0.3837  0.1986
 3034W        W21781  12.456  34.985   9.811 -0.0017 -0.2571 -0.1742
 3035W        W21782  30.473  32.997  25.385 -0.1246 -0.0942 -0.3146
 3036W        W21783  13.123   7.512   7.332 -0.0432  0.0531  0.2019
 3037W        W21784  18.326   3.148  16.247  0.2954 -0.0303  0.2640
 3038W        W21785   5.279  10.870  25.179  0.3516  0.1871  0.2059
 3039W        W21786  12.306  12.559  10.261  0.3784  0.1701  0.4243
 3040W        W21787  29.444  32.338  13.664 -0.0275  0.0373  0.1353
 3041W        W21788  28.979  32.925   0.213  0.1998  0.0810 -0.0448
 3042W        W21789  21.775  13.099  20.155 -0.0676  0.0276  0.0871
 3043W        W21790  12.031  34.046   0.434 -0.0147  0.0324  0.2234
 3044W        W21791  18.637  11.570  22.258  0.0234 -0.2131  0.0456
 3045W        W21792  33.833  34.788  25.784 -0.3890 -0.0388  0.1121
 3046W        W21793  27.332  26.310  16.483 -0.0997  0.1095  0.1390
 3047W        W21794  27.681  10.175   9.479  0.0636  0.1953 -0.1332
 3048W        W21795   3.991  23.374  22.289 -0.1311  0.3146 -0.4987
 3049W        W21796  14.277   4.462   3.371  0.0820 -0.1092 -0.0054
 3050W        W21797  26.920   3.147  11.737  0.0338  0.0573 -0.0081
 3051W        W21798  14.978  16.474   8.861  0.1933  0.4225 -0.0955
 3052W        W21799  34.976  17.476  15.966  0.3101 -0.0433 -0.1558
 3053W        W21800  14.214  30.209   1.613 -0.1933 -0.0303 -0.0572
 3054W        W21801  20.354  19.991  20.878  0.2002 -0.1980 -0.1285
 3055W        W21802  27.698   4.998  23.677  0.0738 -0.1493  0.1225
 3056W        W21803  33.578  13.114   8.094  0.0607  0.0859 -0.3025
 3057W        W21804   7.674  29.511   1.171  0.1970 -0.2426  0.3643
 3058W        W21805  28.533   1.776  15.140 -0.3412 -0.2627 -0.0661
 3059W        W21806   7.673  27.474   2.469  0.1747  0.0935 -0.2376
 3060W        W21807  26.105  10.812   8.208 -0.1118  0.1490 -0.2043
 3061W        W21808  12.662   0.047  24.073 -0.3145  0.3196 -0.2071
 3062W        W21809   4.848   9.225  25.379 -0.2389 -0.1770 -0.1641
 3063W        W21810  29.425   5.308  23.374  0.0611  0.2737  0.1881
 3064W        W21811  33.799   6.428  11.499  0.1319 -0.4731  0.0952
 3065W        W21812   5.497  11.328   2.164  0.0957  0.1658 -0.0125
 3066W        W21813  19.056   6.910   1.792 -0.0761  0.2051 -0.0899
 3067W        W21814  21.047   5.245  15.713  0.0453  0.0985  0.3235
 3068W        W21815  23.839  34.646  22.855 -0.2906  0.0578  0.0749
 3069W        W21816  26.920  32.606  23.595 -0.2940 -0.1579 -0.2199
 3070W        W21817  22.464   9.873  23.708  0.1118  0.2694 -0.0518
 3071W        W21818  11.387  21.164  24.116 -0.1886 -0.4987  0.0790
 3072W        W21819   3.788   4.078  17.898  0.2232 -0.0079 -0.1249
 3073W        W21820  28.822  26.205  19.074  0.0400  0.0485 -0.1949
 3074W        W21821  16.149  33.442   5.256 -0.1022 -0.0679  0.2791
 3075W        W21822  25.553  29.336   4.619  0.1183 -0.1195  0.1627
 3076W        W21823   5.807   1.566   5.028  0.2217  0.2353 -0.0684
 3077W        W21824  14.902  16.214   1.377  0.0546 -0.1107  0.0346
 3078W        W21825  21.140   6.480   2.457  0.1030 -0.2042 -0.0529
 3079W        W21826   6.880  13.160  22.185  0.1930  0.0208 -0.1709
 3080W        W21827   8.593   9.390  11.976 -0.3571  0.1882 -0.0888
 3081W        W21828  20.987  21.699  17.447 -0.0990 -0.0323  0.0938
 3082W        W21829  26.675   9.301  18.233  0.1040  0.0126  0.1599
 3083W        W21830  19.337  16.334  24.269  0.1598 -0.0112 -0.0121
 3084W        W21831  22.847   0.837  20.593  0.1506  0.1300  0.2159
 3085W        W21832  34.095  12.445  22.608 -0.1296  0.0609  0.3207
 3086W        W21833  30.330  14.628   0.045  0.1407  0.5897 -0.0220
 3087W        W21834   6.961   8.206  24.775 -0.0406  0.4858  0.4825
 3088W        W21835  24.119   1.905  18.581  0.2359  0.0807  0.0092
 3089W        W21836  26.646  16.481  21.473  0.1483 -0.2266  0.0619
 3090W        W21837   2.297  28.145   2.923 -0.3437 -0.1211 -0.1868
 3091W        W21838  32.569  12.975  20.010  0.1362 -0.0209 -0.1294
 3092W        W21839  21.382  24.535  24.426 -0.0058 -0.1688 -0.0244
 3093W        W21840  12.089  13.385   0.027 -0.0144  0.1717  0.0233
 3094W        W21841   0.351   7.501   0.604 -0.3817 -0.3134 -0.0276
 3095W        W21842  12.915  12.374  12.953  0.0816 -0.1571 -0.2325
 3096W        W21843  26.421  25.509  19.576  0.4059 -0.1274 -0.1740
 3097W        W21844   8.476  35.049  12.605  0.5136 -0.0725 -0.1830
 3098W        W21845  10.226  15.592  13.974  0.0723 -0.2151  0.2042
 3099W        W21846  17.551  18.763   9.570 -0.3359 -0.0965  0.1529
 3100W        W21847  25.601  32.951  15.251 -0.1124  0.0480  0.1531
 3101W        W21848  14.535  17.504   9.185 -0.0643 -0.3062 -0.1492
 3102W        W21849  25.610   1.002   6.002 -0.1836  0.2650  0.0038
 3103W        W21850  25.886  19.195  21.870  0.2927  0.2601  0.2149
 3104W        W21851   9.140   0.607   3.687  0.2886 -0.1318 -0.1209
 3105W        W21852  20.682  12.733  20.042  0.0562 -0.1317 -0.1466
 3106W        W21853  20.815   5.763   1.131 -0.0266 -0.0492  0.4025
 3107W        W21854  21.406   4.376   6.357  0.1522 -0.1197  0.0033
 3108W        W21855  33.080  28.850  16.353  0.0173  0.0940  0.0947
 3109W        W21856  29.632  29.767  14.906 -0.0483  0.0203 -0.0096
 3110W        W21857  29.061   5.777  14.589 -0.2368  0.1306 -0.0629
 3111W        W21858  22.617   7.855  23.142 -0.1121 -0.0037 -0.3769
 3112W        W21859  12.119  27.663  12.933  0.0365 -0.2206 -0.1950
 3113W        W21860   4.876   2.029  24.290  0.3162 -0.0602  0.0279
 3114W        W21861  20.701   4.924   7.839  0.3299  0.2851 -0.1002
 3115W        W21862  18.149  20.597  23.239 -0.3058 -0.1655 -0.1467
 3116W        W21863   5.747  28.988   5.597  0.2438 -0.2702  0.2588
 3117W        W21864   5.600  29.784   0.256 -0.0218  0.1581  0.1597
 3118W        W21865   2.596  18.996  18.977  0.2970 -0.0217  0.1610
 3119W        W21866   6.868   0.383   4.010 -0.0032 -0.3084 -0.1571
 3120W        W21867  32.564  11.393  25.989  0.1749 -0.1811 -0.2997
 3121W        W21868  33.600  32.451  13.880  0.1644  0.1570 -0.1993
 3122W        W21869   7.801  27.678  23.025  0.1877 -0.0878  0.0287
 3123W        W21870  27.737  18.960   4.951  0.1775  0.1887  0.2276
 3124W        W21871  34.769  14.715  14.482 -0.0396  0.1012 -0.1070
 3125W        W21872  25.337  27.406  16.071 -0.2295  0.1081  0.3092
 3126W        W21873  19.254   9.244   7.958  0.1869  0.0816 -0.3825
 3127W        W21874   5.212  29.739   2.469 -0.0308 -0.0663 -0.0026
 3128W        W21875  32.301   7.717   0.640  0.0915 -0.2485  0.0985
 3129W        W21876  15.610  10.552  19.155  0.2348  0.3142  0.0272
 3130W        W21877   0.106  21.590  13.130 -0.2060  0.0531 -0.0085
 3131W        W21878   9.476  13.755  13.818 -0.0784  0.0414 -0.3294
 3132W        W21879   6.726   8.282  26.026  0.1324 -0.1343  0.0588
 3133W        W21880   4.835  13.773  15.502 -0.2531  0.1113 -0.2360
 3134W        W21881   8.568  29.412  12.198  0.1491 -0.0416  0.0545
 3135W        W21882  17.542  10.371   6.780  0.0800 -0.2448 -0.0105
 3136W        W21883  16.331   7.585   5.401  0.1014  0.0588 -0.1181
 3137W        W21884  19.706   5.990  23.593  0.0023  0.1539  0.2997
 3138W        W21885  31.159  23.752  21.948  0.0311 -0.0218 -0.2666
 3139W        W21886  34.502  17.129  11.453 -0.1202 -0.1110  0.1539
 3140W        W21887   9.622  21.353  10.445 -0.0460  0.0098  0.1048
 3141W        W21888   6.083  11.892  25.171 -0.1642 -0.0384  0.4549
 3142W        W21889  18.247  28.276  23.337  0.0384 -0.0921  0.0465
 3143W        W21890   3.848   6.712   0.665 -0.0910 -0.0488  0.1287
 3144W        W21891  16.021   8.611   6.788  0.4201  0.0520 -0.1678
 3145W        W21892  16.678  29.443   9.156  0.1745  0.4891 -0.0142
 3146W        W21893  28.147  24.214  13.426  0.0772  0.0746  0.0507
 3147W        W21894  14.101  28.285  22.246 -0.0980 -0.1489  0.1405
 3148W        W21895  15.613  30.028  22.633 -0.1633 -0.0439  0.0185
 3149W        W21896  32.296   0.258  15.442  0.1773 -0.1991  0.2947
 3150W        W21897   5.927  14.917  24.485 -0.3113  0.1758  0.1907
 3151W        W21898  13.531  33.847  25.211  0.2543 -0.0679  0.3284
 3152W        W21899  33.529  11.986  25.315  0.0261 -0.0534  0.0087
 3153W        W21900  26.953  14.820  24.015 -0.0802  0.2007 -0.2259
 3154W        W21901  23.062   1.600  15.785  0.1187 -0.2781  0.1440
 3155W        W21902  29.726  22.659  12.417  0.1692 -0.1563 -0.1324
 3156W        W21903   4.762   0.713   9.934  0.0303 -0.3817 -0.0641
 3157W        W21904  19.307   0.513  18.885  0.2348 -0.1014  0.1043
 3158W        W21905  23.401  24.556  17.414 -0.0469  0.0588 -0.0343
 3159W        W21906  31.143  12.969   7.930 -0.0069  0.0240 -0.2226
 3160W        W21907  19.973  23.341  23.576  0.1751  0.1460  0.0422
 3161W        W21908   5.928   9.455   7.695  0.0833 -0.1074  0.0532
 3162W        W21909  26.952  35.233  13.944 -0.3152  0.2576 -0.1277
 3163W        W21910  24.328  21.356  25.869 -0.0294 -0.0251 -0.0291
 3164W        W21911  30.179  19.796  24.530 -0.0447 -0.2346 -0.0059
 3165W        W21912  30.861  15.758   9.834 -0.0506 -0.1887  0.2078
 3166W        W21913  12.182  16.245  24.355  0.2963  0.0854 -0.2212
 3167W        W21914  30.897  34.586  14.279 -0.0956  0.2943  0.2285
 3168W        W21915  31.537  11.304  17.588 -0.0422 -0.0524  0.0114
 3169W        W21916  14.657  10.915   2.694 -0.0865 -0.2639 -0.3054
 3170W        W21917   8.094  26.056   6.148  0.2445 -0.2278 -0.0329
 3171W        W21918  26.895  15.055  15.995  0.3796 -0.0310  0.0651
 3172W        W21919  16.232  30.633  10.462 -0.1533  0.0501  0.0460
 3173W        W21920  15.078  30.241  22.057  0.2495 -0.1382 -0.1307
 3174W        W21921   5.845  14.490  21.257  0.0067 -0.0714 -0.2471
 3175W        W21922   9.918  30.445   2.043 -0.0251 -0.0908 -0.0754
 3176W        W21923  26.149  22.806  21.913 -0.0443  0.0190  0.2388
 3177W        W21924  23.900  19.415  14.827  0.0492  0.3506 -0.3430
 3178W        W21925   0.031  28.226  17.251  0.0313  0.1003 -0.1678
 3179W        W21926  24.442  32.125   2.393  0.0745 -0.2144  0.0031
 3180W        W21927   9.101  17.791  25.423  0.0050 -0.2084 -0.0778
 3181W        W21928  27.510  18.181  23.753 -0.0353  0.1554  0.0450
 3182W        W21929  14.026   0.878   4.937  0.4548  0.0301 -0.1568
 3183W        W21930   7.959  19.760   0.343  0.0269 -0.2312 -0.0336
 3184W        W21931  12.256  26.329   4.746  0.0202 -0.2245  0.1646
 3185W        W21932   7.707   2.545   9.524 -0.0265  0.0928 -0.1783
 3186W        W21933  22.276  15.859  16.995  0.3695 -0.1185 -0.1409
 3187W        W21934  30.999  16.188   6.685  0.1008  0.1294  0.3057
 3188W        W21935  20.750  22.882   3.560 -0.1252 -0.0354 -0.2027
 3189W        W21936   5.266  27.175  22.814  0.3989 -0.2225 -0.0859
 3190W        W21937  18.141  23.612   9.928  0.2302 -0.1743 -0.0574
 3191W        W21938  23.588  11.325  24.990  0.0937 -0.2562  0.3608
 3192W        W21939  31.454  14.871  21.358 -0.0648  0.1983 -0.0160
 3193W        W21940   3.209  16.871  24.502  0.0503 -0.2804  0.1059
 3194W        W21941   8.746  30.642  12.110  0.0117 -0.0572  0.0257
 3195W        W21942  31.486  32.973  23.310 -0.1466  0.1536  0.0283
 3196W        W21943  13.195   6.186   6.862  0.0172 -0.0007  0.0235
 3197W        W21944  29.881  29.874   1.140 -0.2205  0.2160 -0.1655
 3198W        W21945  10.336  16.499  23.625 -0.2894  0.3685  0.0281
 3199W        W21946  19.740  29.421   3.800  0.0239  0.1670 -0.2291
 3200W        W21947  24.805  30.809   2.309  0.2162  0.0063  0.0292
 3201W        W21948  23.419  18.540   2.314 -0.1817 -0.0340  0.0284
 3202W        W21949  12.257   4.051   4.899 -0.0916 -0.5162 -0.1688
 3203W        W21950   5.564  22.420  24.058  0.0455  0.0797 -0.1914
 3204W        W21951  14.054  25.012   9.789 -0.0848 -0.1421 -0.0385
 3205W        W21952  17.624  19.199   3.406  0.0597  0.3902 -0.1915
 3206W        W21953  23.360  34.265  16.733  0.1990 -0.1019  0.1816
 3207W        W21954  20.015  20.213   6.029 -0.1780 -0.0072  0.0092
 3208W        W21955  10.876  34.881   2.712  0.0344 -0.2463  0.0897
 3209W        W21956   8.657  28.820  17.161  0.0819  0.0399 -0.1253
 3210W        W21957  19.033   6.944   3.924  0.1734  0.1833  0.2647
 3211W        W21958  10.746  22.832   6.046  0.0706 -0.2153  0.3721
 3212W        W21959  14.104   5.599  13.860  0.2716 -0.1014 -0.2773
 3213W        W21960  28.417   6.253  22.890 -0.0708  0.3059 -0.1776
 3214W        W21961   0.380  22.606  11.947  0.2501  0.0675  0.0333
 3215W        W21962   1.972  11.555   2.594 -0.0537 -0.0171  0.0118
 3216W        W21963  12.236  18.362  10.240  0.0224  0.0782 -0.2711
 3217W        W21964  24.235  11.037  20.456  0.0461 -0.0587 -0.0391
 3218W        W21965  33.853   3.573   0.733  0.1375  0.0494 -0.0012
 3219W        W21966  28.661   3.968  22.383  0.1438 -0.3487 -0.0366
 3220W        W21967   0.551  18.720  25.629  0.1069  0.0563  0.0641
 3221W        W21968   9.313   2.675   1.442 -0.0132 -0.2358  0.2819
 3222W        W21969  24.728  33.343  26.187 -0.0136  0.0052  0.2889
 3223W        W21970  26.646  17.513  21.702  0.1178 -0.0770 -0.0758
 3224W        W21971  22.482  12.743  21.803  0.0111 -0.0069  0.1727
 3225W        W21972  20.925  32.493  19.460  0.1974  0.2983  0.0107
 3226W        W21973  27.089  31.370  14.993  0.2327  0.1542 -0.1050
 3227W        W21974  10.264   4.154   9.949 -0.2897  0.0256  0.0875
 3228W        W21975   7.023  23.939   5.006 -0.1829 -0.2659  0.0072
 3229W        W21976  17.041  17.300  19.970 -0.1140  0.2033  0.0738
 3230W        W21977  19.812  12.100  19.474 -0.0051  0.3060  0.0750
 3231W        W21978   3.817   3.823  23.962 -0.0107 -0.3573 -0.1036
 3232W        W21979   2.104   2.277   3.369  0.1301 -0.0470  0.0189
 3233W        W21980  24.642   1.398   4.735 -0.2503 -0.2525 -0.0473
 3234W        W21981  34.078  26.531  21.989  0.0670  0.0891  0.0429
 3235W        W21982   4.576  33.518  20.921  0.2640 -0.0989  0.1880
 3236W        W21983   0.156  27.887  20.014 -0.0008  0.0251 -0.3400
 3237W        W21984  16.894  14.717   9.229  0.0734  0.1262  0.1664
 3238W        W21985  19.028  14.244   1.518 -0.1021 -0.0100  0.1632
 3239W        W21986  21.369  19.613  22.292  0.1448 -0.0727  0.0671
 3240W        W21987   1.547  17.754  17.165  0.1996  0.1838 -0.1557
 3241W        W21988   3.065  32.962   7.571  0.0255  0.2101  0.3526
 3242W        W21989  14.783  10.744  23.317 -0.1724  0.4257 -0.0001
 3243W        W21990  17.954   2.878   6.011 -0.3877 -0.3158 -0.1121
 3244W        W21991  29.539   1.225   3.119  0.0024  0.1221 -0.2192
 3245W        W21992  23.421  24.236  25.373 -0.1512 -0.1252 -0.3586
 3246W        W21993   7.017   5.921   4.710  0.0307  0.1638  0.4532
 3247W        W21994   6.937  22.923   3.909  0.2184  0.1368 -0.1119
 3248W        W21995   9.556  11.684   2.857  0.1385  0.0598  0.0517
 3249W        W21996  34.476   6.291  17.812 -0.1960 -0.2009 -0.3802
 3250W        W21997  10.192  11.237  19.439  0.0137  0.0552 -0.1155
 3251W        W21998   9.576   8.482  20.071 -0.1256 -0.3055 -0.1680
 3252W        W21999  34.532  25.267  17.063  0.0855  0.2539 -0.0998
 3253W        W22000  34.076  10.370  20.039  0.1227 -0.2689 -0.3225
 3254W        W22001  10.302   9.642  24.730 -0.0333 -0.0009  0.1217
 3255W        W22002   3.860  26.501   1.614 -0.1611  0.1075  0.1400
 3256W        W22003  33.115  32.448  22.180 -0.0131 -0.2275  0.0696
 3257W        W22004  33.142  27.992  15.346 -0.0018  0.1199  0.0365
 3258W        W22005  11.074   9.475   2.528  0.0642 -0.1360 -0.0714
 3259W        W22006  15.306  34.923   5.898 -0.1199  0.0921 -0.0251
 3260W        W22007  14.448   5.483   4.207  0.0511 -0.1758 -0.0713
 3261W        W22008   8.472  18.956  20.245 -0.0034  0.0790  0.0196
 3262W        W22009  32.814   3.553  22.331 -0.2829 -0.0143 -0.0497
 3263W        W22010  26.166  23.464  13.499 -0.0872 -0.1148  0.1870
 3264W        W22011   0.125  11.354  25.889 -0.0150 -0.0265  0.0390
 3265W        W22012   5.890  10.570  25.937  0.3022  0.1392 -0.2089
 3266W        W22013  18.238  19.882   5.408 -0.1176 -0.1551 -0.0558
 3267W        W22014  24.844  30.014  24.854 -0.3178  0.1665  0.3801
 3268W        W22015  28.969  25.189   8.332 -0.2164  0.1712 -0.0653
 3269W        W22016  22.443   3.890  20.067 -0.1950  0.1012  0.1401
 3270W        W22017   0.632  18.932  12.452 -0.0038 -0.2694  0.0912
 3271W        W22018   6.476  34.748   4.897 -0.0150 -0.2031  0.0090
 3272W        W22019  16.004  33.657  19.783 -0.2238 -0.1105  0.4482
 3273W        W22020  15.548   6.701   6.822 -0.0246  0.0738 -0.2085
 3274W        W22021  24.393  21.025  12.613  0.3975 -0.0715 -0.0279
 3275W        W22022   8.423   4.633   6.816  0.0183 -0.2147  0.0823
 3276W        W22023  16.774   1.495   2.735 -0.0972 -0.1569  0.1392
 3277W        W22024   9.007   0.979   8.023  0.2876  0.0550 -0.0620
 3278W        W22025  25.852  26.380   1.819  0.0829 -0.0857  0.2229
 3279W        W22026   1.760  23.230  13.896  0.0900 -0.2048  0.1076
 3280W        W22027  29.732  23.350   8.826 -0.0719  0.1200 -0.1378
 3281W        W22028  10.449  24.003  16.384 -0.0611  0.1510  0.0531
 3282W        W22029  17.528  13.395   8.964  0.0700 -0.0015  0.1182
 3283W        W22030   0.265   4.578   3.020  0.4149 -0.1742 -0.0126
 3284W        W22031   6.409   1.630   5.354  0.1729  0.4044 -0.1279
 3285W        W22032  18.449  19.247   0.404 -0.3090  0.1058  0.0336
 3286W        W22033  26.124   3.629  17.872 -0.0160 -0.3552 -0.0372
 3287W        W22034  26.584  31.985  19.464  0.1262  0.0954 -0.3550
 3288W        W22035  26.878  14.553  23.015 -0.1453  0.0694  0.2229
 3289W        W22036   7.383  34.956  20.768 -0.0583  0.2888 -0.2997
 3290W        W22037  33.811  13.686  11.080  0.3225 -0.0213 -0.2843
 3291W        W22038  34.543  10.579  14.093  0.1592  0.2029  0.1426
 3292W        W22039  22.799   6.467  24.118  0.0473  0.2382 -0.0373
 3293W        W22040  12.516  33.056  12.407 -0.0305  0.0316 -0.1055
 3294W        W22041   2.797  16.451  20.994 -0.0566 -0.1209  0.2323
 3295W        W22042  17.129  16.057  10.453  0.0913 -0.0340 -0.0715
 3296W        W22043  16.259  11.741   8.792 -0.2521  0.0344 -0.4107
 3297W        W22044  34.079  33.087   4.650 -0.1903  0.0490 -0.0342
 3298W        W22045   6.328  23.092   6.605 -0.0043  0.2713  0.0971
 3299W        W22046  29.521  22.644   5.275 -0.2158  0.1089  0.1950
 3300W        W22047   5.654   8.406  23.702 -0.1426 -0.2653  0.0167
 3301W        W22048  31.668  27.506  16.821  0.2201  0.0470  0.0314
 3302W        W22049  13.386   0.951   2.992  0.1910 -0.0077 -0.3878
 3303W        W22050  15.562  21.264   9.309  0.3126  0.0105  0.2083
 3304W        W22051   4.654  26.055   9.125  0.0664  0.0469  0.3127
 3305W        W22052  22.525  32.403  18.950  0.1256 -0.0488  0.0139
 3306W        W22053  20.223  18.145   0.093 -0.1916 -0.0761  0.1778
 3307W        W22054  30.669  19.671   8.278  0.0987  0.1636 -0.3305
 3308W        W22055  15.548  19.518   3.251  0.0513  0.1645  0.0108
 3309W        W22056  25.428   0.431   3.334 -0.0072  0.0701  0.0235
 3310W        W22057   3.192  28.663   3.854 -0.0144 -0.0123 -0.0448
 3311W        W22058  10.087   8.062   5.972 -0.1894 -0.0063 -0.1104
 3312W        W22059  34.387  14.918  26.030 -0.5364 -0.2026  0.0891
 3313W        W22060  12.238   0.658   7.639  0.1638 -0.0549  0.1925
 3314W        W22061  18.070  20.162   3.431 -0.1608 -0.0762  0.1420
 3315W        W22062  33.184  23.465  19.510  0.0594 -0.1573  0.0092
 3316W        W22063  13.992  25.235  11.736 -0.1848  0.0279 -0.1675
 3317W        W22064  29.633  26.647  10.579 -0.2604  0.1415 -0.3030
 3318W        W22065  22.785   1.049   3.741 -0.0024 -0.3741  0.0308
 3319W        W22066   9.313   2.642  22.766 -0.2323  0.2197  0.1050
 3320W        W22067  27.813  12.990  15.490  0.1048  0.4715  0.0512
 3321W        W22068   2.256   0.997  10.292 -0.1307  0.0326 -0.0270
 3322W        W22069   1.185   6.395  18.285  0.4119 -0.2348  0.0570
 3323W        W22070  25.451  19.225   8.995  0.1278 -0.1619 -0.4258
 3324W        W22071   2.355  17.562   2.024  0.2846  0.0004 -0.2082
 3325W        W22072  21.915  33.598   6.673 -0.2359 -0.0662  0.0415
 3326W        W22073  35.163   0.457  17.331  0.1612 -0.1237  0.0928
 3327W        W22074  10.891  21.582  26.103  0.2033  0.2731  0.0928
 3328W        W22075  13.173  18.118  22.591  0.2918  0.1099 -0.4919
 3329W        W22076   8.827  13.514  11.728  0.0214 -0.1303 -0.0148
 3330W        W22077  16.184  26.820   5.701 -0.2020 -0.5167 -0.1143
 3331W        W22078  34.683  28.854  22.621 -0.4054 -0.1345 -0.0402
 3332W        W22079   6.722  12.069  10.160 -0.0641 -0.1361  0.1189
 3333W        W22080  26.988  19.544  20.606 -0.0334  0.1778  0.1894
 3334W        W22081  20.326  31.311  26.040  0.0394  0.0313  0.1976
 3335W        W22082  26.740  19.946  10.526  0.0486 -0.2469  0.0205
 3336W        W22083  33.329  12.989  16.378 -0.1598 -0.0917  0.2556
 3337W        W22084  23.603   9.622  15.079 -0.6085  0.1333 -0.0146
 3338W        W22085  24.006  23.964  12.238  0.0869 -0.0416  0.1014
 3339W        W22086  30.977   4.055   4.526  0.2466  0.0367  0.2356
 3340W        W22087  24.248  31.274   0.005 -0.0440 -0.4226 -0.0211
 3341W        W22088  30.316  21.015  12.966  0.1122  0.1168 -0.0546
 3342W        W22089   1.712   6.512   1.371 -0.1852  0.3533  0.1306
 3343W        W22090   9.119  33.255  22.093 -0.0627  0.1191 -0.1464
 3344W        W22091  33.442  34.012  16.305  0.0928  0.1917  0.2728
 3345W        W22092  34.655  28.048  16.839  0.2296  0.0810 -0.0579
 3346W        W22093  24.943   5.931  16.929 -0.2460 -0.0632  0.4054
 3347W        W22094  15.380   3.741  25.866  0.1262 -0.2616 -0.0566
 3348W        W22095  34.153   2.381  12.953 -0.2537 -0.2517 -0.5373
 3349W        W22096  11.497  33.982   7.796  0.0808  0.0743  0.0746
 3350W        W22097   1.575  35.163  26.227 -0.1438 -0.0682  0.0877
 3351W        W22098  14.634   1.551  25.422  0.0558 -0.0765 -0.3125
 3352W        W22099   1.013  29.742   3.773 -0.1150 -0.1069  0.0594
 3353W        W22100  13.664   2.594  22.887  0.0914  0.0535  0.2971
 3354W        W22101  22.958   0.732   7.035 -0.3654 -0.0376 -0.0364
 3355W        W22102   6.805  28.756   1.745  0.0112 -0.0654 -0.1024
 3356W        W22103  12.417   5.890  19.213  0.3090 -0.0151  0.0003
 3357W        W22104  34.435  21.350  18.166  0.2303  0.2733 -0.1840
 3358W        W22105   1.099  23.820  12.727  0.1149 -0.0147 -0.1054
 3359W        W22106  15.989   3.410  21.286 -0.2159  0.0559 -0.2957
 3360W        W22107   3.340   6.259  24.144 -0.1389  0.0650  0.0137
 3361W        W22108  10.001  33.617  25.270  0.1013  0.0828  0.2951
 3362W        W22109  24.446  24.170  25.543 -0.1770  0.0998 -0.0259
 3363W        W22110   2.642   2.894   6.837 -0.2423 -0.2632  0.1687
 3364W        W22111  32.258  15.107  19.088  0.1360  0.0240  0.0406
 3365W        W22112  27.319   0.813  23.548  0.4703 -0.3475  0.0210
 3366W        W22113  23.383  15.766  15.249  0.1505 -0.2046  0.1873
 3367W        W22114   7.624   6.965   9.172  0.1319  0.1382 -0.0632
 3368W        W22115   4.529  10.234   4.049  0.0665 -0.1548  0.0920
 3369W        W22116  26.082  34.277  24.980 -0.2296 -0.1188  0.1503
 3370W        W22117  34.861  31.986   5.079 -0.0371  0.0442  0.0742
 3371W        W22118  15.937  20.694   0.935  0.0710  0.0133  0.0038
 3372W        W22119  14.921  32.180   2.336 -0.1591  0.2403 -0.0005
 3373W        W22120   3.999  12.316   6.284  0.1244 -0.5240  0.2410
 3374W        W22121  32.346   8.157   1.435  0.0943  0.5487 -0.4497
 3375W        W22122   5.282  24.730  25.010 -0.0020 -0.2639  0.0678
 3376W        W22123  15.221   1.743   8.643 -0.0594 -0.0735  0.0561
 3377W        W22124   3.034   6.542   6.792  0.1645 -0.0570  0.1921
 3378W        W22125   4.906   3.605  10.758 -0.2010 -0.0725 -0.0978
 3379W        W22126   9.339   5.249  26.077  0.0811  0.4680 -0.1230
 3380W        W22127  12.498   7.311   1.053  0.0192  0.1335  0.0199
 3381W        W22128  18.837  21.613   8.192  0.0719 -0.1628 -0.1668
 3382W        W22129  23.573   6.857   0.856  0.0587  0.1626  0.2261
 3383W        W22130  20.466   9.308  23.592 -0.1213 -0.2573  0.2312
 3384W        W22131  18.681  15.647  22.647 -0.1676 -0.5387 -0.2334
 3385W        W22132   2.299   2.683   5.846 -0.4243  0.1458 -0.4408
 3386W        W22133  19.988   2.323   7.114  0.0881 -0.0196 -0.0166
 3387W        W22134  30.258  30.735  16.276 -0.1617  0.0017  0.1107
 3388W        W22135   5.224  28.407  23.682  0.1000 -0.1758  0.0388
 3389W        W22136  25.805   5.408  20.881  0.0747 -0.0029 -0.1718
 3390W        W22137  25.565  21.964   9.392 -0.1159 -0.1077  0.0799
 3391W        W22138  33.707  20.153  21.476  0.0317 -0.2152 -0.4819
 3392W        W22139  16.839   8.777  19.296 -0.1794 -0.0599 -0.3141
 3393W        W22140  34.112  33.772  21.790 -0.0010 -0.1585 -0.1288
 3394W        W22141   7.470  26.480  16.150 -0.2840 -0.0011 -0.3203
 3395W        W22142  14.581   6.362   3.704  0.1677 -0.1985  0.1973
 3396W        W22143   5.365  17.950  18.463 -0.0803 -0.3801 -0.0034
 3397W        W22144  20.701  19.811   2.771  0.0569 -0.2002 -0.1832
 3398W        W22145  23.406  17.186  12.986 -0.1155 -0.1420 -0.0552
 3399W        W22146   7.233  32.149  12.298 -0.1050 -0.0721 -0.1034
 3400W        W22147   5.775  22.221  22.308 -0.1814  0.1133 -0.1257
 3401W        W22148  17.940   3.531  18.006 -0.0151 -0.2708  0.1784
 3402W        W22149   9.363   3.864  21.181 -0.2547 -0.0864  0.0444
 3403W        W22150  26.400  26.489  18.878  0.0409 -0.1714  0.2997
 3404W        W22151  31.416  24.103  23.557  0.0457 -0.1351 -0.1311
 3405W        W22152  33.845   4.341  16.344  0.0925  0.1945 -0.1404
 3406W        W22153  31.901  19.039  20.073 -0.1878 -0.0325 -0.0063
 3407W        W22154  11.011  25.101   7.541  0.1041  0.2371  0.1228
 3408W        W22155  13.492  30.954   3.851  0.1013 -0.0157 -0.2196
 3409W        W22156  33.405   9.330  22.217 -0.1188 -0.1341  0.0071
 3410W        W22157  17.811  12.161   6.606 -0.1101 -0.2113 -0.1195
 3411W        W22158  29.967  25.287  12.079  0.0487 -0.1287  0.0575
 3412W        W22159  16.525   2.604  23.933  0.2752  0.0974 -0.4158
 3413W        W22160  16.748  20.911   2.496 -0.0315  0.0049  0.1439
 3414W        W22161  25.698   6.531  16.901 -0.4342  0.0870  0.4234
 3415W        W22162  30.332   7.225   8.936 -0.0626 -0.2060 -0.0320
 3416W        W22163   6.961   5.614  12.280  0.0835 -0.0372  0.0999
 3417W        W22164  34.049  10.226  15.731  0.2297 -0.2120 -0.0203
 3418W        W22165   8.469  19.244   9.415  0.3736 -0.1697  0.2964
 3419W        W22166  33.948  11.143  23.030  0.5604  0.2153 -0.3266
 3420W        W22167   9.890  20.507   9.346  0.0272 -0.2538 -0.4406
 3421W        W22168  33.083  12.009  20.210  0.0230  0.1911  0.1795
 3422W        W22169   1.702   9.861  18.795 -0.0948 -0.1365  0.2067
 3423W        W22170  32.808  15.871  22.418  0.0930  0.0306  0.1128
 3424W        W22171  25.693   8.728  25.520 -0.2343 -0.0242  0.0079
 3425W        W22172  10.293  24.562  11.146 -0.1099 -0.1514 -0.2941
 3426W        W22173  27.095  14.100  25.738  0.1873 -0.4515 -0.0860
 3427W        W22174  34.883  29.833   1.924  0.0475  0.3338 -0.4908
 3428W        W22175  12.789   8.760  24.028  0.2072  0.2229  0.0871
 3429W        W22176  28.453  35.075  22.120  0.2055  0.2532  0.1764
 3430W        W22177   4.330   7.384  20.196 -0.0327 -0.0114 -0.1117
 3431W        W22178   1.993   2.600   8.430  0.0747  0.0673 -0.0044
 3432W        W22179  28.967  19.292  17.571 -0.0878 -0.0499 -0.2850
 3433W        W22180  13.468   6.171   5.848  0.0920 -0.0757  0.0637
 3434W        W22181  32.910   2.146   6.152 -0.2272 -0.0449 -0.0669
 3435W        W22182  29.924   7.056   2.586 -0.2171  0.0874  0.3540
 3436W        W22183   0.289  13.624   0.802 -0.0189  0.3724  0.0880
 3437W        W22184  32.429  29.171   4.752  0.1065  0.0028  0.2519
 3438W        W22185   8.499  11.359   0.018 -0.0561 -0.3328 -0.0180
 3439W        W22186  30.381  18.214  17.037  0.6113  0.1566 -0.0457
 3440W        W22187  34.752  10.595  20.799  0.0629  0.6510 -0.2329
 3441W        W22188  34.814  29.817  22.880  0.2374 -0.1683 -0.0964
 3442W        W22189   2.173  13.491  22.117  0.0968 -0.0441 -0.1397
 3443W        W22190  22.254  29.705   6.450  0.0857  0.2639 -0.1090
 3444W        W22191  34.719   8.585  23.985  0.1022 -0.3546 -0.1794
 3445W        W22192   5.442  12.696  24.755 -0.1793 -0.1935  0.1143
 3446W        W22193   5.345   4.205  20.503  0.3267  0.3705  0.3445
 3447W        W22194  27.681   3.986  10.694 -0.0677 -0.2095 -0.1211
 3448W        W22195   1.729   9.713  19.309 -0.0622 -0.2547 -0.1818
 3449W        W22196  13.875   1.253  25.240 -0.0218 -0.0791  0.0731
 3450W        W22197  12.525  20.621  22.822  0.0286  0.1967  0.0327
 3451W        W22198  32.205  20.055  17.888  0.0872  0.0815  0.2555
 3452W        W22199  20.290   9.783   6.189 -0.3596 -0.0876  0.0724
 3453W        W22200  15.899   7.553  22.932  0.1521  0.2083  0.2311
 3454W        W22201  22.355  29.362   3.980  0.0874 -0.0487 -0.2991
 3455W        W22202  27.891  22.233  19.526  0.0715 -0.4556  0.0147
 3456W        W22203   4.614  28.596   3.497 -0.1583  0.1317 -0.3318
 3457W        W22204  16.828   4.757   9.395 -0.2045 -0.2726  0.1076
 3458W        W22205   9.221   3.386  14.200 -0.0209  0.1855 -0.3610
 3459W        W22206   4.309  21.230  21.674 -0.2384  0.1822 -0.0808
 3460W        W22207  12.130  13.465  22.663 -0.1167 -0.1596  0.1249
 3461W        W22208  23.501  17.798  24.147  0.0160  0.1907  0.5051
 3462W        W22209   6.254  25.119  11.561  0.0156 -0.3225 -0.1774
 3463W        W22210  15.163  11.273   8.907  0.0655  0.0159 -0.2138
 3464W        W22211  23.240  32.718  22.101  0.0436  0.0261 -0.1319
 3465W        W22212  23.078  11.361  20.196  0.0226 -0.3751  0.0717
 3466W        W22213  15.918   8.792   0.146  0.0821 -0.1474  0.2938
 3467W        W22214  34.386  10.773  14.484 -0.1294 -0.1653  0.0259
 3468W        W22215  30.852   2.343  14.500  0.0692 -0.3557 -0.4257
 3469W        W22216  32.269  28.819  20.744  0.2643  0.0766  0.2021
 3470W        W22217  30.461  34.483  24.873  0.0210  0.0290  0.0623
 3471W        W22218  25.680  17.575  22.335 -0.0430 -0.3621 -0.1149
 3472W        W22219  21.742   0.557  21.847 -0.0084  0.1997  0.0965
 3473W        W22220  25.980   5.116  17.139 -0.0032 -0.4011  0.0079
 3474W        W22221  27.675  16.307   6.403 -0.0277 -0.3997  0.3818
 3475W        W22222  25.706  30.111  23.114  0.4397  0.0081  0.1391
 3476W        W22223   9.244  18.282  21.272 -0.1928 -0.2513  0.1905
 3477W        W22224  24.764  18.667  19.871 -0.0605  0.2528  0.3756
 3478W        W22225   0.975   7.930  16.250  0.0320  0.0860 -0.2122
 3479W        W22226   9.621  10.495  26.089 -0.2793 -0.1731 -0.5417
 3480W        W22227  14.047   0.253  19.154  0.1645  0.1186  0.0175
 3481W        W22228  29.883   5.379   1.206  0.3544  0.3152  0.1902
 3482W        W22229  12.702   8.516   6.559 -0.0463  0.1541  0.1940
 3483W        W22230   2.329   4.911   4.221 -0.2432  0.1074  0.3707
 3484W        W22231  30.550   2.194  17.485 -0.2027 -0.0697  0.2357
 3485W        W22232  15.427   9.478  20.032 -0.2167  0.0683 -0.0865
 3486W        W22233   1.440  22.809  12.983  0.1773  0.1707  0.1006
 3487W        W22234   2.988  34.417   1.233  0.2159  0.4901  0.3940
 3488W        W22235  29.654   5.022  16.248  0.1093  0.0984 -0.0468
 3489W        W22236  28.215  25.502   1.139 -0.1039 -0.1952  0.1153
 3490W        W22237  27.874   7.953   9.483  0.1007 -0.4544  0.0179
 3491W        W22238   5.236   0.843   7.022 -0.0910  0.0054 -0.0480
 3492W        W22239  13.250  31.388   1.202 -0.0054  0.0333  0.1266
 3493W        W22240  21.606   2.034   0.651  0.1062 -0.1599  0.1759
 3494W        W22241   9.612   1.410  21.676  0.2486 -0.0742 -0.0277
 3495W        W22242   7.338  10.400  13.090  0.2786  0.1699  0.3022
 3496W        W22243   7.098  30.856  14.556 -0.2532  0.1947  0.0455
 3497W        W22244  17.931  32.810   3.866 -0.0864 -0.3102  0.2522
 3498W        W22245   8.728   2.031   5.392 -0.0014  0.3010 -0.2566
 3499W        W22246  21.365   2.052  23.063  0.1099  0.1471  0.0238
 3500W        W22247  19.562  20.525  23.276 -0.2000 -0.1663 -0.0605
 3501W        W22248  28.977  23.211   9.219  0.2925 -0.0845 -0.1637
 3502W        W22249  31.745  18.880  15.558 -0.0693  0.1111 -0.0196
 3503W        W22250  31.570   3.949   5.612  0.1357 -0.0681 -0.0897
 3504W        W22251  32.705  27.662  24.246 -0.1282 -0.4443 -0.2786
 3505W        W22252  31.810  34.486  13.386  0.1820 -0.2211  0.1731
 3506W        W22253  16.780   5.006  19.908 -0.0332 -0.0547  0.0016
 3507W        W22254  26.107  23.134   0.155 -0.1503 -0.2756  0.0133
 3508W        W22255  14.935   4.027  25.977 -0.1306  0.2072 -0.0667
 3509W        W22256   4.996  25.787   7.168 -0.2702 -0.0232  0.0684
 3510W        W22257  17.796  30.361  10.374 -0.2746  0.3009 -0.0937
 3511W        W22258  35.014  14.239   9.649  0.0375  0.2405  0.0453
 3512W        W22259  24.371  33.489  16.660  0.1295 -0.0950  0.2058
 3513W        W22260  15.402   7.654  23.767 -0.1708 -0.1964 -0.0382
 3514W        W22261   9.654  28.816   9.292  0.0872 -0.3592  0.0573
 3515W        W22262  33.322  19.877  15.044  0.0919  0.0294  0.1189
 3516W        W22263   6.040   3.260  10.783  0.1034 -0.4234 -0.1843
 3517W        W22264  30.624   8.454  23.077  0.0240  0.1159 -0.1698
 3518W        W22265   2.967   3.690   1.984 -0.1108 -0.3750 -0.0747
 3519W        W22266  19.776  28.255   3.614  0.1224 -0.2345  0.1340
 3520W        W22267  32.953   4.452  20.067  0.1993 -0.0926 -0.0471
 3521W        W22268  31.022   2.002  19.180  0.0699 -0.1294 -0.1876
 3522W        W22269  22.352  27.052  25.223 -0.0871 -0.1858  0.1053
 3523W        W22270  20.928   8.331   9.837 -0.0056 -0.2739  0.1034
 3524W        W22271   8.714  23.650  25.751 -0.2202 -0.0504 -0.0011
 3525W        W22272   6.896  14.046   1.886  0.3812  0.1330  0.4359
 3526W        W22273  26.694   3.914   1.924  0.0256  0.2266 -0.0859
 3527W        W22274  10.484  27.058  13.914 -0.0315  0.1619  0.1548
 3528W        W22275  31.028  13.299  16.385 -0.3661  0.3153  0.4400
 3529W        W22276  18.886  29.769  20.623  0.3532  0.4378  0.2903
 3530W        W22277  30.583  26.308  25.174 -0.2749 -0.3286 -0.2114
 3531W        W22278   5.164  35.235  10.209  0.0853  0.0078 -0.1211
 3532W        W22279  31.321  24.232  21.302  0.1261 -0.1177 -0.1220
 3533W        W22280  25.627   5.215  15.865 -0.1633  0.1504  0.3112
 3534W        W22281  28.838   0.410  24.333 -0.0663 -0.0384 -0.2186
 3535W        W22282  35.268  20.800  10.872 -0.3699 -0.1315 -0.0551
 3536W        W22283  25.287  34.175  25.327  0.2603  0.0250 -0.1082
 3537W        W22284  21.596   4.804  20.674 -0.0322 -0.0238 -0.0349
 3538W        W22285  19.943  34.055   3.960  0.1208  0.1661 -0.2723
 3539W        W22286   5.572   4.290  19.509  0.1205 -0.2499  0.0147
 3540W        W22287  23.773  31.138  20.041  0.0846 -0.2171  0.1230
 3541W        W22288   6.457  34.496   3.026  0.0466 -0.2193  0.2712
 3542W        W22289  23.243  26.313  21.638  0.1511 -0.2518  0.0083
 3543W        W22290   9.545  14.202  22.827 -0.0817 -0.0395  0.1180
 3544W        W22291  21.698  16.064  19.700 -0.0422  0.2801 -0.1288
 3545W        W22292  33.500  11.201  14.989  0.0854  0.2822 -0.2299
 3546W        W22293  18.395  13.370   4.516  0.0768  0.0992  0.0344
 3547W        W22294  26.290  18.662  19.098  0.0436 -0.1853 -0.2084
 3548W        W22295   9.541  19.471   3.649  0.0171 -0.1459 -0.1407
 3549W        W22296  28.217  27.765  18.957  0.0207  0.2308  0.1226
 3550W        W22297  31.642  19.931  23.973  0.3264  0.2992 -0.0137
 3551W        W22298   2.025  28.372  23.468 -0.0975  0.0527  0.1942
 3552W        W22299   6.545  26.391  10.843 -0.0357 -0.0610  0.2969
 3553W        W22300  15.170  12.537   6.209 -0.2296  0.2810 -0.0278
 3554W        W22301  33.915  22.545   9.769 -0.0484 -0.0106  0.4876
 3555W        W22302   0.085  25.003  18.045 -0.3287  0.0567  0.1693
 3556W        W22303  12.651  27.282  10.325 -0.1713 -0.1567  0.0835
 3557W        W22304   9.026  34.353  21.710 -0.1271 -0.2306  0.0424
 3558W        W22305  32.059  28.825  15.452  0.1186 -0.2987 -0.1933
 3559W        W22306   9.021   5.959   9.523  0.0287  0.2314  0.0233
 3560W        W22307  31.695  22.064  23.646 -0.3282 -0.1284  0.1827
 3561W        W22308   2.431  12.372  25.812  0.0268  0.2714  0.0122
 3562W        W22309  18.345  32.009   2.651 -0.0150 -0.0439  0.2557
 3563W        W22310  26.078  25.779  19.809  0.0905 -0.0500 -0.0057
 3564W        W22311   7.785   3.889  21.238  0.0484 -0.0300 -0.1198
 3565W        W22312  12.956  26.039  17.447 -0.4641 -0.0656  0.4464
 3566W        W22313  31.075  18.367  13.122 -0.0222  0.2768 -0.2170
 3567W        W22314  29.320  22.846  16.695  0.1684  0.1026 -0.0132
 3568W        W22315  11.760   5.503   5.628 -0.2519 -0.0908 -0.0626
 3569W        W22316  27.795  11.316  22.179  0.0133  0.1282 -0.1615
 3570W        W22317   6.655  18.541  23.855  0.0157 -0.1689 -0.0839
 3571W        W22318  26.834  27.823  21.095 -0.4008 -0.1774  0.1318
 3572W        W22319  23.803   8.096   3.848  0.1808  0.2749  0.0469
 3573W        W22320   2.425   7.656   2.090  0.0172  0.1088  0.1172
 3574W        W22321  21.006   1.675   7.871 -0.0992  0.0737 -0.1232
 3575W        W22322  32.435  31.404  23.645 -0.1990 -0.1134 -0.0207
 3576W        W22323  15.049  13.318  25.735  0.0347 -0.1907  0.1878
 3577W        W22324  19.627  30.536  25.045  0.1598 -0.2113 -0.3501
 3578W        W22325  12.186  10.932  22.186 -0.0435  0.0937  0.0781
 3579W        W22326  12.712  21.599   7.752 -0.0409  0.3991 -0.1061
 3580W        W22327  17.390   4.409  24.093 -0.1516 -0.0686 -0.0665
 3581W        W22328  19.621  20.763   4.797  0.1414  0.1836  0.1108
 3582W        W22329  23.394  25.776  21.544  0.1141 -0.0916 -0.0044
 3583W        W22330   8.326  22.171  11.138 -0.2179 -0.0117 -0.2963
 3584W        W22331  21.297  28.008  20.701 -0.3102 -0.3860 -0.0818
 3585W        W22332  19.027  21.896   3.576  0.2580 -0.0483 -0.1066
 3586W        W22333  11.768  24.861   5.995 -0.0927  0.1337  0.5123
 3587W        W22334   1.162   9.830  14.216  0.0000  0.0154 -0.1709
 3588W        W22335   3.503  28.389   4.245  0.2203 -0.0275  0.2141
 3589W        W22336  19.415  11.099   1.202 -0.1871 -0.1243  0.0412
 3590W        W22337  32.729  28.823  20.329 -0.2804  0.2813 -0.0196
 3591W        W22338  25.764  21.787  11.259 -0.1041 -0.0849  0.1556
 3592W        W22339  11.348   2.979   0.285  0.2032 -0.0267 -0.0519
 3593W        W22340  27.531   8.349  12.491 -0.5674  0.0637 -0.4555
 3594W        W22341   4.229  32.559  25.297  0.2751 -0.1662  0.0389
 3595W        W22342  13.152   8.203   3.816 -0.0629 -0.0836 -0.1319
 3596W        W22343   3.411   7.616  25.703  0.1022  0.1951 -0.3216
 3597W        W22344   1.281   9.140   0.038  0.3923 -0.2123 -0.0815
 3598W        W22345  31.219   3.004  22.998 -0.0665  0.1466  0.0758
 3599W        W22346  18.493   7.063   1.497 -0.0978 -0.0186  0.0955
 3600W        W22347   5.997  28.274   2.316 -0.2278  0.0435  0.1066
 3601W        W22348   7.615  18.494  23.930 -0.1068 -0.0444  0.3748
 3602W        W22349  21.586  15.483   4.224 -0.0198  0.2601  0.1894
 3603W        W22350  18.659  18.582  10.211  0.0718  0.0017 -0.1437
 3604W        W22351  12.415  15.362  24.147 -0.0804 -0.1992 -0.2442
 3605W        W22352  19.551  13.639  22.336  0.0925 -0.0409 -0.1048
 3606W        W22353  31.003  33.769   3.830  0.5629  0.1433  0.0546
 3607W        W22354  34.868   6.121  13.826  0.1278 -0.2598  0.0701
 3608W        W22355   6.021   4.514  18.140 -0.0218 -0.0319 -0.1188
 3609W        W22356   3.491  11.631   4.069 -0.1443 -0.3153 -0.0259
 3610W        W22357   0.395   6.966  19.205 -0.2025 -0.1930  0.1707
 3611W        W22358  16.231  15.088   6.649  0.1520  0.2162 -0.1201
 3612W        W22359  17.129  23.938  21.101 -0.1942 -0.0222  0.3051
 3613W        W22360  16.198   0.361   4.383  0.0110 -0.1412 -0.0837
 3614W        W22361  24.228  19.385  11.047 -0.0020  0.0140 -0.1231
 3615W        W22362   8.393  29.754   4.202  0.2296  0.2733  0.0924
 3616W        W22363   4.200   2.018  19.932  0.0048  0.0649  0.0115
 3617W        W22364   3.417   4.232  20.238  0.2127  0.1496 -0.1293
 3618W        W22365  24.756  21.119  14.070 -0.1386  0.1247  0.0324
 3619W        W22366  26.222  15.766  17.206  0.1068  0.0385  0.1659
 3620W        W22367  33.802   8.319   1.556 -0.0223  0.1955 -0.1215
 3621W        W22368  10.280   6.561   1.548  0.0279 -0.0249 -0.3766
 3622W        W22369  13.985  28.910  23.425 -0.0334  0.1365 -0.1091
 3623W        W22370  10.286  15.241  12.523 -0.1015 -0.4071  0.1766
 3624W        W22371   0.430  14.530  15.634  0.2230  0.2701 -0.0280
 3625W        W22372   2.497  21.550  14.426  0.0841 -0.2695  0.1750
 3626W        W22373  18.261   0.631   0.986 -0.0654 -0.0867 -0.1722
 3627W        W22374  24.568  11.790  23.354  0.0109 -0.2399 -0.0656
 3628W        W22375  27.714  27.611  20.731 -0.0374  0.0472  0.3033
 3629W        W22376   0.757  26.497  20.197  0.2388  0.0634 -0.0993
 3630W        W22377   9.053  12.689   0.168 -0.2762  0.0199 -0.0759
 3631W        W22378   9.873  26.085  17.689  0.3959  0.1215  0.1531
 3632W        W22379   3.988   5.677  24.206 -0.4347 -0.1922  0.1544
 3633W        W22380  19.993  31.510   2.632 -0.1501 -0.1237 -0.1743
 3634W        W22381   5.079   9.717   9.351 -0.1570 -0.1394  0.0641
 3635W        W22382  29.161   5.843  23.244  0.0951  0.0810  0.0938
 3636W        W22383   7.387  13.920   6.269  0.2682  0.2193  0.1186
 3637W        W22384  19.943  30.204  16.254 -0.0440  0.1252  0.1736
 3638W        W22385  21.557  19.205  16.141 -0.1096  0.0785  0.0819
 3639W        W22386  20.341  18.894   0.838  0.1234  0.2441 -0.2436
 3640W        W22387   0.592  28.854   6.998 -0.3229  0.2793 -0.1727
 3641W        W22388   9.687   9.389  20.954 -0.2019  0.0515  0.1070
 3642W        W22389  31.837  29.035  11.868 -0.1712 -0.0006 -0.1096
 3643W        W22390  18.064  22.591  25.483  0.1228  0.3765 -0.1509
 3644W        W22391  21.220  16.044  16.925  0.0107 -0.3496 -0.0561
 3645W        W22392   6.271  13.042   7.210 -0.0773  0.0200  0.1748
 3646W        W22393  11.054  10.016  21.739  0.4871  0.3092  0.0608
 3647W        W22394   8.865  33.105  25.506  0.0606 -0.1780 -0.2167
 3648W        W22395  34.034  11.736   9.021 -0.0198 -0.0910  0.0729
 3649W        W22396  25.402   7.777   0.872 -0.2633  0.2975 -0.1582
 3650W        W22397   3.882   0.275   8.258  0.2450  0.1169  0.4948
 3651W        W22398  13.746  22.964  11.571  0.3113 -0.0335  0.1003
 3652W        W22399  30.607  11.648  23.136 -0.1475  0.1275 -0.0140
 3653W        W22400  17.546  29.317  22.283  0.1183 -0.1930 -0.2903
 3654W        W22401  20.774   7.012  18.600 -0.0087  0.2344 -0.1486
 3655W        W22402  32.758  11.169  20.282 -0.2633 -0.1008  0.1080
 3656W        W22403  30.401  29.850  20.462  0.1816  0.1734  0.0276
 3657W        W22404  34.638  27.499  19.388 -0.3495 -0.1986  0.3014
 3658W        W22405  22.593   4.459  17.715 -0.1753  0.2019 -0.0015
 3659W        W22406  28.688   2.860  17.212 -0.2524 -0.0317 -0.2299
 3660W        W22407  29.452  21.486  14.408  0.0710  0.0175 -0.1223
 3661W        W22408  32.649  29.631  13.857 -0.2799 -0.1744 -0.0947
 3662W        W22409  15.961  21.900   6.945  0.0905  0.2925 -0.1853
 3663W        W22410  10.742  20.710  24.817 -0.1569 -0.0886 -0.1587
 3664W        W22411  13.072  16.194  23.774  0.0324 -0.0392  0.0733
 3665W        W22412  27.712  26.021  25.317 -0.3012  0.5040 -0.1037
 3666W        W22413  19.194  16.406   0.053 -0.0971 -0.0659 -0.0663
 3667W        W22414  30.191   0.620  23.284 -0.4870  0.0137 -0.2207
 3668W        W22415  15.706  15.271   1.052 -0.1667  0.1959  0.2911
 3669W        W22416   7.762  21.103  10.010  0.0576 -0.1896 -0.2429
 3670W        W22417  14.778   9.736   4.017  0.0899 -0.1753 -0.1449
 3671W        W22418  26.703  19.193  23.128  0.0965 -0.0532 -0.1820
 3672W        W22419   1.954  30.161   7.602  0.2812 -0.1454  0.1956
 3673W        W22420  19.726   4.150   3.326 -0.1440 -0.3441 -0.1338
 3674W        W22421  14.157  11.566  25.437 -0.4381 -0.4081  0.2483
 3675W        W22422   6.558  20.669   0.770  0.3154  0.1503  0.2999
 3676W        W22423  29.686  12.458   5.483 -0.0832 -0.1500 -0.1554
 3677W        W22424   9.571  35.126   3.888 -0.0477  0.0033  0.3341
 3678W        W22425   0.879   1.094   6.638 -0.0979 -0.0263 -0.0652
 3679W        W22426  13.786  18.365   8.259 -0.0602  0.2000  0.2129
 3680W        W22427  17.624  18.977  21.920  0.1605  0.0102 -0.1272
 3681W        W22428  19.376  23.318   0.779 -0.0697 -0.0729  0.1980
 3682W        W22429  11.873   8.702  24.863  0.2516  0.0180  0.1635
 3683W        W22430  13.987   2.644   8.631 -0.4071  0.2120  0.1272
 3684W        W22431   3.613  12.137   4.017  0.1852  0.0393  0.0487
 3685W        W22432   6.394  24.727  10.620  0.0243 -0.0244  0.0220
 3686W        W22433   1.574  26.547   6.680 -0.1760 -0.0970  0.0066
 3687W        W22434  17.972  19.464  11.198  0.2681  0.1761  0.0159
 3688W        W22435  11.921   7.135   7.154  0.0750 -0.0350 -0.2705
 3689W        W22436  34.917   3.577  18.879  0.0197  0.5242  0.0364
 3690W        W22437  31.449  16.692  18.333 -0.0416 -0.3632 -0.2377
 3691W        W22438  26.077  20.681   9.152  0.0338  0.2442 -0.2815
 3692W        W22439  16.633  13.225   1.827 -0.2311  0.2522  0.1104
 3693W        W22440  21.685  24.676  21.022  0.1178 -0.1263  0.0797
 3694W        W22441  19.194  13.727   0.698 -0.1806 -0.0379 -0.1397
 3695W        W22442   6.401  10.677  25.516 -0.0419 -0.0361 -0.1095
 3696W        W22443  16.498  10.234   4.678 -0.0803  0.1044  0.1048
 3697W        W22444  13.199   5.638  22.824 -0.3299 -0.1354  0.2742
 3698W        W22445   6.118  25.229   9.185  0.1928 -0.1011 -0.3089
 3699W        W22446  27.051  17.200   7.837 -0.1932  0.2202  0.3493
 3700W        W22447  27.312  18.373  17.795 -0.0501 -0.0971 -0.1154
 3701W        W22448   5.973  33.163  13.140 -0.1744 -0.1794 -0.2307
 3702W        W22449  33.370  23.918  13.021  0.0267 -0.1414  0.1878
 3703W        W22450   5.796  18.163  19.126 -0.1049  0.3430  0.0861
 3704W        W22451   7.759  17.227  21.430  0.1432  0.1147 -0.2027
 3705W        W22452   7.921   0.496  25.772  0.0926 -0.1508 -0.1052
 3706W        W22453   3.201  18.269  24.405  0.0271 -0.0223  0.0978
 3707W        W22454  19.673  13.962   3.837  0.0998  0.0724  0.0984
 3708W        W22455  32.978  14.303  20.168 -0.1392  0.1660 -0.0198
 3709W        W22456  26.279   5.162  16.603  0.0995  0.0176  0.1893
 3710W        W22457  17.797  20.682   4.967 -0.2511  0.0096 -0.0769
 3711W        W22458  24.413  16.891  20.948  0.2018  0.1501  0.0384
 3712W        W22459   6.095  33.842   4.800 -0.1945 -0.2804  0.0235
 3713W        W22460   0.906  27.019  25.446  0.2470 -0.3158 -0.1462
 3714W        W22461  18.106  20.032  11.219 -0.1320 -0.2505  0.0296
 3715W        W22462  17.800  17.772  21.637 -0.1131  0.1606  0.0325
 3716W        W22463   8.874  10.902  19.076  0.2614 -0.0823  0.0260
 3717W        W22464  23.438  20.831  14.018  0.2325  0.0420 -0.2143
 3718W        W22465  19.984  22.305   6.478 -0.0738  0.0532 -0.2926
 3719W        W22466  31.110   1.450  12.640 -0.1289  0.0525  0.2043
 3720W        W22467  14.529  23.887   4.125 -0.2164  0.1218  0.2673
 3721W        W22468   5.076  34.622  13.835  0.2280  0.0482 -0.1954
 3722W        W22469  27.519  13.232  11.453  0.0837  0.1578  0.1829
 3723W        W22470   5.845  32.749  21.233 -0.0999 -0.0814  0.2688
 3724W        W22471  33.638   9.998  23.900 -0.0856 -0.1132  0.0995
 3725W        W22472  33.297   2.183  15.072 -0.0030 -0.2191  0.0195
 3726W        W22473  19.375  13.905  19.529 -0.3777  0.2138  0.0243
 3727W        W22474  13.467   4.583  10.271 -0.1784 -0.2604  0.0385
 3728W        W22475  23.267  18.835  24.646  0.0391  0.0642 -0.1429
 3729W        W22476  34.573  28.434  19.328 -0.3913  0.1320 -0.0418
 3730W        W22477  11.028  29.242   4.581 -0.2549  0.2863  0.2780
 3731W        W22478  10.814  33.880  13.149  0.1925 -0.1062 -0.3868
 3732W        W22479  20.813  17.033  23.927  0.2179  0.0859 -0.2904
 3733W        W22480  16.527  11.573   1.111 -0.4072 -0.3201  0.0985
 3734W        W22481  10.915  27.211   6.518 -0.1189  0.1648  0.0123
 3735W        W22482  15.632  25.761   7.940  0.1742  0.2757  0.0236
 3736W        W22483  26.383  21.169  11.836  0.3425 -0.0746 -0.2524
 3737W        W22484  20.739  14.748  18.951 -0.0622  0.0221 -0.1326
 3738W        W22485  11.566   7.372   2.038  0.3279 -0.1230 -0.0669
 3739W        W22486  20.202   1.143  24.517 -0.1734  0.0068 -0.1374
 3740W        W22487  27.012  26.213  20.432  0.1677  0.1652 -0.3057
 3741W        W22488  20.832  25.688  17.101  0.0697 -0.0632  0.0258
 3742W        W22489   8.601   1.410  12.045  0.1132 -0.1201  0.0561
 3743W        W22490  28.445  29.650  10.618 -0.0194  0.1423  0.1778
 3744W        W22491   8.705  17.939  25.863 -0.0598  0.0314 -0.2757
 3745W        W22492  15.817  23.987  23.191  0.1202  0.3336 -0.1623
 3746W        W22493  15.361  11.296  20.954 -0.0364 -0.4110 -0.0959
 3747W        W22494  34.834  21.404   9.389 -0.0962  0.0738 -0.0147
 3748W        W22495  11.312  19.858   3.726 -0.1358  0.3977  0.0080
 3749W        W22496  31.270   5.494  11.185 -0.1473  0.0289  0.0403
 3750W        W22497  29.196   7.974  12.119  0.1330 -0.0983 -0.2736
 3751W        W22498  32.419  13.056  25.289 -0.1359 -0.3718  0.0295
 3752W        W22499  25.862  30.936   2.277 -0.0224 -0.0462  0.3900
 3753W        W22500  32.253   5.350   0.440  0.1851  0.1424  0.1300
 3754W        W22501  18.268   1.967  25.427  0.2119  0.0157 -0.0311
 3755W        W22502  18.843   6.274   6.997  0.3896 -0.3166  0.0093
 3756W        W22503   9.827  24.212   0.628  0.1539  0.0957 -0.0113
 3757W        W22504  34.272   1.504  25.149  0.0318 -0.3117 -0.0493
 3758W        W22505   4.863   4.767   2.072  0.0651 -0.2016  0.1003
 3759W        W22506   6.847  31.292  15.433  0.0292  0.4296  0.0076
 3760W        W22507  31.069  16.627  16.204 -0.4372 -0.2606  0.5591
 3761W        W22508  29.833  22.082  22.907 -0.0460 -0.1374  0.0022
 3762W        W22509   9.926  23.133   5.024  0.2360  0.2640  0.0457
 3763W        W22510  24.476   2.187  14.195  0.0442 -0.2804 -0.1621
 3764W        W22511   6.556  20.004  23.862 -0.1100 -0.1566  0.0929
 3765W        W22512  26.366  13.006  22.294  0.1402 -0.3184 -0.1215
 3766W        W22513   6.689  18.303  22.175 -0.0805  0.0927 -0.0410
 3767W        W22514  15.227  22.343  10.418 -0.1541 -0.1209  0.0542
 3768W        W22515  16.181  28.800  25.737 -0.0383 -0.0184 -0.0986
 3769W        W22516  27.165   9.566   1.613 -0.2773 -0.0091  0.1389
 3770W        W22517  32.886  25.290  12.311 -0.1295  0.0784  0.0758
 3771W        W22518  35.189  12.665  10.042  0.0424 -0.1855  0.2404
 3772W        W22519   6.764  20.491   5.618 -0.1604  0.1307  0.1661
 3773W        W22520  20.423  14.381  18.655 -0.1191 -0.0631  0.1658
 3774W        W22521   2.951  18.377  21.566 -0.0842 -0.3548  0.1876
 3775W        W22522  11.803   7.539  14.276  0.1328 -0.0940 -0.1191
 3776W        W22523  12.282  31.160  12.486  0.1604 -0.0563 -0.0382
 3777W        W22524  11.081  12.177  11.701  0.1080  0.0700 -0.0464
 3778W        W22525  14.874  18.024   1.011 -0.1961  0.0265  0.0691
 3779W        W22526  10.948  29.791  13.151  0.1959  0.4913 -0.2070
 3780W        W22527  18.596   8.008  21.008 -0.0009 -0.1364 -0.4803
 3781W        W22528  13.725  23.387  24.959 -0.0357  0.3113 -0.2365
 3782W        W22529  12.297  32.974   7.297  0.3046  0.2424 -0.0577
 3783W        W22530  27.391  27.829  10.793  0.1381 -0.0769  0.2875
 3784W        W22531  33.409   2.939   0.100  0.0214  0.0998  0.1647
 3785W        W22532  19.062  33.895   1.229  0.1561 -0.1142  0.1835
 3786W        W22533  14.160  28.037  21.351 -0.0873 -0.1556 -0.3024
 3787W        W22534  10.138  15.756   0.981 -0.1801  0.1030  0.3214
 3788W        W22535  19.942  14.223  17.891 -0.1166 -0.1113  0.3139
 3789W        W22536   3.340  14.757  17.127  0.0167  0.0108 -0.0469
 3790W        W22537  30.741   7.097   8.705  0.2744 -0.1090  0.2413
 3791W        W22538  17.601  33.774  17.264  0.0985 -0.2492 -0.0346
 3792W        W22539  26.058   6.629  25.423  0.0116 -0.0105 -0.0742
 3793W        W22540  22.033  33.824   0.283  0.1729 -0.1452  0.0665
 3794W        W22541   8.779   6.385  22.376 -0.2754 -0.1834  0.1750
 3795W        W22542  11.021  11.136   6.539  0.1458 -0.0504 -0.0316
 3796W        W22543  13.538   9.493   5.960  0.0910 -0.0412 -0.4254
 3797W        W22544  18.182  27.791   4.569  0.0747  0.0307 -0.1884
 3798W        W22545  14.983   9.248   3.053  0.2512 -0.0319  0.0091
 3799W        W22546  19.151  28.613   1.170 -0.2286 -0.1180  0.0388
 3800W        W22547  10.208   4.681  15.306 -0.1576 -0.0255  0.0537
 3801W        W22548  22.935   0.651   5.493 -0.2292 -0.1802 -0.1089
 3802W        W22549  33.147   6.177   5.413 -0.0778 -0.2722 -0.0950
 3803W        W22550   4.033  20.256  20.754 -0.2318  0.2390 -0.0948
 3804W        W22551  11.723  23.509   1.736 -0.0763  0.1994 -0.1239
 3805W        W22552  30.513  19.939  13.334 -0.0581 -0.0323  0.1769
 3806W        W22553  14.800  29.672  12.253 -0.0886  0.1866 -0.3909
 3807W        W22554   2.692  15.499   3.275 -0.2238  0.1727  0.2429
 3808W        W22555  33.110   4.071   5.654 -0.0905 -0.0137 -0.1029
 3809W        W22556   0.455  32.648   4.352 -0.1671 -0.3276  0.0654
 3810W        W22557  18.137  15.190   1.400  0.0154  0.0353 -0.0407
 3811W        W22558   9.111  24.281  10.804 -0.0246  0.0715  0.1361
 3812W        W22559   2.453   8.810  21.070 -0.2463  0.0636 -0.0460
 3813W        W22560  27.273   4.081  16.182 -0.1345 -0.0071 -0.2112
 3814W        W22561   9.518   4.199   3.135  0.4197  0.0882 -0.0721
 3815W        W22562   8.296   3.113   9.468 -0.2299 -0.1493 -0.1320
 3816W        W22563  26.924   5.575  11.936 -0.1362 -0.0844  0.2983
 3817W        W22564   2.331  23.345   3.720 -0.2356 -0.2848 -0.2780
 3818W        W22565   0.444  11.214  21.534 -0.0621 -0.1456 -0.0037
 3819W        W22566  18.203  18.763  21.878  0.2588 -0.3453  0.1880
 3820W        W22567  31.682  22.493  24.500 -0.1961 -0.3583 -0.0909
 3821W        W22568   7.239  27.703  12.256  0.0262  0.0659 -0.2235
 3822W        W22569  14.236  24.136   3.312 -0.2377 -0.2290  0.2888
 3823W        W22570  30.456  17.714  13.228 -0.0561 -0.2276  0.0527
 3824W        W22571  18.155  13.506   6.012  0.0814 -0.2990  0.1318
 3825W        W22572  27.619  11.163  12.730  0.0193  0.0439 -0.1312
 3826W        W22573  12.965  30.559   6.574 -0.0082 -0.3159  0.0102
 3827W        W22574  33.218  17.222   0.437 -0.0783  0.0895  0.0181
 3828W        W22575  15.376  11.882   6.389  0.3416  0.1684  0.1457
 3829W        W22576   0.295  29.152  17.004  0.2051 -0.1273  0.2611
 3830W        W22577  13.161  17.628   4.129  0.1183  0.0711  0.2448
 3831W        W22578   0.511  35.275  21.620  0.1697  0.3938 -0.1442
 3832W        W22579  25.182  18.410   0.692  0.1857 -0.0978  0.0985
 3833W        W22580  27.501  22.736  21.463 -0.0134  0.2660 -0.1172
 3834W        W22581  31.312  13.946  23.746 -0.0215  0.1199 -0.0308
 3835W        W22582   7.761  25.739   1.667  0.1070  0.1712  0.1481
 3836W        W22583   8.319   1.612  13.301 -0.1260  0.0201  0.1376
 3837W        W22584  10.958   9.541   9.952  0.0398 -0.0131 -0.1341
 3838W        W22585  23.886  13.306  17.553  0.3092  0.0405  0.1815
 3839W        W22586  19.059  22.244  10.322 -0.1213 -0.2351  0.1914
 3840W        W22587   2.489   1.448   2.981 -0.1838  0.1513  0.1235
 3841W        W22588  12.501   1.785  12.824  0.3609 -0.0210  0.1934
 3842W        W22589  21.271   0.073  24.986 -0.2259 -0.4228  0.2130
 3843W        W22590   1.398  14.015  24.792  0.1844 -0.0313  0.1595
 3844W        W22591  17.244   1.642   6.829 -0.2577 -0.1862 -0.2886
 3845W        W22592   9.286   1.372   0.323  0.1753 -0.0922 -0.1456
 3846W        W22593  10.696  33.168   6.783  0.0388 -0.0308 -0.2363
 3847W        W22594   3.339   6.985   3.515 -0.1031 -0.2736 -0.0047
 3848W        W22595  32.799  29.673  19.918 -0.1950  0.1632  0.0544
 3849W        W22596  10.531  28.920   7.771  0.3523  0.1813  0.0154
 3850W        W22597   9.039  26.411   7.480  0.0328  0.1196  0.0227
 3851W        W22598   4.540  13.790   5.172  0.1326 -0.0598  0.0580
 3852W        W22599  15.725  29.589  26.046 -0.1531  0.1148 -0.0758
 3853W        W22600  19.254  27.800  18.190  0.0842 -0.1705 -0.2556
 3854W        W22601  29.073  11.028  19.122 -0.4918  0.0862 -0.2476
 3855W        W22602  27.281  21.923  13.683 -0.1122  0.1862  0.1717
 3856W        W22603  13.344  27.778  22.163 -0.1322  0.2568  0.0207
 3857W        W22604   8.731   9.878  22.962  0.1117 -0.1938 -0.0457
 3858W        W22605  30.210   6.730  24.009  0.2430  0.1603 -0.3661
 3859W        W22606  21.889  21.558  16.145  0.3808 -0.2031 -0.1121
 3860W        W22607   8.472  31.624   0.715 -0.4659  0.2702  0.0542
 3861W        W22608  23.433  28.569  11.389 -0.1685  0.0916  0.2315
 3862W        W22609   5.861  13.161  17.976  0.1241 -0.0885 -0.1048
 3863W        W22610  13.734   9.966  22.832  0.2529  0.0227  0.1511
 3864W        W22611  27.544  23.197   9.864 -0.0378  0.2540  0.0274
 3865W        W22612   4.136  23.029  20.059  0.0422 -0.0583  0.2230
 3866W        W22613  18.458   3.563  21.788 -0.0521 -0.2631 -0.1576
 3867W        W22614   2.946   2.767  23.779  0.2775  0.2261 -0.4335
 3868W        W22615  29.439  33.985   3.561  0.3085  0.0649  0.1053
 3869W        W22616  31.416   4.531   2.805 -0.1051  0.1952 -0.1970
 3870W        W22617  13.052  23.843   4.253  0.3391  0.0840 -0.1420
 3871W        W22618  23.300  11.897  15.357  0.2131  0.3442 -0.1378
 3872W        W22619  16.010  32.357  20.172  0.1022 -0.0764  0.1172
 3873W        W22620  16.871  22.129   1.796  0.4198 -0.2791 -0.2183
 3874W        W22621  15.770  21.601   4.743  0.0871 -0.0171  0.0180
 3875W        W22622  23.236  15.926  21.734  0.2860  0.1159  0.0176
 3876W        W22623  34.032   8.967  22.058  0.0712 -0.0279 -0.1354
 3877W        W22624  20.967  23.830  24.894 -0.2758  0.0074 -0.2081
 3878W        W22625  29.664  11.411  10.753  0.0876 -0.0299  0.0238
 3879W        W22626  35.139  17.349  16.479  0.0668 -0.0584  0.1158
 3880W        W22627  28.782   6.925  25.497  0.2038 -0.2650  0.0722
 3881W        W22628  29.966   4.899   4.530  0.1896 -0.3006  0.2061
 3882W        W22629   4.848   2.068  20.877  0.1855 -0.4200 -0.1533
 3883W        W22630   1.590  31.405  25.587 -0.0260  0.0487 -0.0711
 3884W        W22631   5.932  29.280  24.372  0.3503  0.1925 -0.2202
 3885W        W22632  33.958  32.333  18.155  0.0975 -0.1018 -0.0242
 3886W        W22633  24.141  14.050  16.157 -0.0341  0.1516  0.1862
 3887W        W22634  20.980   3.190  22.271 -0.2292  0.1624 -0.0386
 3888W        W22635  30.742   0.240  17.874  0.1589 -0.2922 -0.2050
 3889W        W22636  10.964   7.076  23.368 -0.0122  0.2439  0.0315
 3890W        W22637  10.339  17.134   3.820 -0.3446 -0.3122  0.1213
 3891W        W22638  22.730  28.898  25.244  0.0966  0.0177 -0.0395
 3892W        W22639  11.206  23.339  12.068 -0.0512  0.1724  0.3950
 3893W        W22640   0.872  32.088   8.850 -0.3603  0.1687 -0.1569
 3894W        W22641   4.678  15.108  24.897  0.2616  0.3281 -0.0752
 3895W        W22642  14.961  30.415  24.419 -0.4161  0.3468  0.1603
 3896W        W22643   2.017  27.861  22.190 -0.0128  0.0243  0.1018
 3897W        W22644   2.319  19.102  19.424  0.0796 -0.1892  0.1810
 3898W        W22645  11.118  17.029   4.632  0.1668 -0.1843 -0.1215
 3899W        W22646  26.801  11.344   7.590 -0.1323 -0.2713 -0.3473
 3900W        W22647   9.174  25.833   3.397 -0.0601  0.1087  0.1722
 3901W        W22648   5.042  31.339   4.568 -0.1897 -0.0349  0.3518
 3902W        W22649  22.922  29.600  23.633 -0.2565 -0.4733 -0.1424
 3903W        W22650  12.701   6.703   6.317 -0.2505 -0.0620 -0.0868
 3904W        W22651  22.618  33.946  26.122 -0.0641 -0.2196  0.1134
 3905W        W22652  32.718   3.017  18.483  0.5346 -0.2754  0.1679
 3906W        W22653  19.996  29.975  21.645 -0.0215  0.1157  0.1767
 3907W        W22654  29.420  11.852  21.428 -0.0062  0.1448  0.1213
 3908W        W22655  31.486   7.875  20.447  0.1765 -0.1013 -0.0047
 3909W        W22656  19.109  12.661  19.513 -0.1122  0.0387 -0.1439
 3910W        W22657  32.856   2.836   5.490 -0.2331 -0.0797  0.0090
 3911W        W22658   6.774  10.247   9.609 -0.1133  0.2793 -0.3455
 3912W        W22659  14.847   9.539   0.714  0.1918  0.0906 -0.0671
 3913W        W22660  18.941  10.636  21.125 -0.0523  0.2546 -0.1425
 3914W        W22661  28.860  21.648  22.399  0.1210 -0.5007 -0.0702
 3915W        W22662   7.237   6.992   7.698 -0.1860 -0.1916  0.1183
 3916W        W22663  15.261   9.543  23.813  0.0802  0.0715  0.0132
 3917W        W22664   4.610  29.237  19.459  0.4479 -0.1926 -0.0597
 3918W        W22665   0.237   0.661   2.645  0.0949 -0.0047  0.1414
 3919W        W22666   4.330  32.010  13.169  0.2296 -0.2254  0.0063
 3920W        W22667   3.520  25.141   3.986 -0.0020 -0.0404  0.1379
 3921W        W22668  26.914  15.786  20.484  0.0051  0.0209 -0.0988
 3922W        W22669  33.272  14.384   8.281 -0.0383  0.0260  0.1828
 3923W        W22670  17.240  26.022  22.353 -0.2154  0.0134 -0.0667
 3924W        W22671  28.406  21.506  17.760 -0.1410  0.0839 -0.0326
 3925W        W22672  32.720  31.651  19.548 -0.2384  0.1122 -0.0594
 3926W        W22673   4.439  24.349  21.678 -0.1386  0.0085 -0.1672
 3927W        W22674  30.744  29.943  25.407 -0.2729  0.0472  0.2155
 3928W        W22675   0.732   1.978   7.164 -0.1107  0.1433 -0.0159
 3929W        W22676  25.269  11.197  18.769  0.0684 -0.0694 -0.2103
 3930W        W22677  22.542   2.244   4.925  0.1363 -0.1154 -0.1542
 3931W        W22678  27.287  32.932  15.381 -0.0055  0.0629  0.0805
 3932W        W22679  22.439  11.520  22.783  0.1473 -0.0247  0.2326
 3933W        W22680   5.898   7.373  20.566 -0.0557 -0.2515 -0.1133
 3934W        W22681  28.474  17.994  12.503  0.1199 -0.0163 -0.0681
 3935W        W22682  32.982  23.025   9.379 -0.0134 -0.0460 -0.0511
 3936W        W22683  18.068   0.341   8.617  0.1670 -0.3662  0.0933
 3937W        W22684   0.850  27.166  18.094  0.0544  0.3793  0.1601
 3938W        W22685  24.337   4.346  24.073 -0.0193  0.0447 -0.2524
 3939W        W22686  26.352  34.145  20.140 -0.0756  0.5616 -0.1135
 3940W        W22687  34.735  29.471  25.701 -0.0260 -0.0813  0.2959
 3941W        W22688  17.009   8.843  22.943  0.2391 -0.1144  0.0660
 3942W        W22689  15.205  19.244  21.799 -0.1911  0.0305  0.0408
 3943W        W22690  30.863  11.286   0.566  0.1889 -0.0937 -0.3134
 3944W        W22691  18.688   2.944  23.368 -0.2367 -0.0316  0.1773
 3945W        W22692  16.996   7.356  22.511  0.1360 -0.0042  0.0639
 3946W        W22693  34.737   1.521  24.961 -0.0390  0.2758  0.0218
 3947W        W22694  12.618  29.472   1.300 -0.0616  0.1726  0.1699
 3948W        W22695  16.877  10.316   1.364  0.1276  0.0170  0.1236
 3949W        W22696  33.113   6.099  18.304 -0.1073 -0.2248 -0.0940
 3950W        W22697  29.059   5.353  20.347  0.0618  0.3358 -0.3539
 3951W        W22698  16.627  22.705   3.027  0.1733  0.1593 -0.1408
 3952W        W22699  29.501   3.131   1.341 -0.0713  0.1057 -0.0947
 3953W        W22700  11.120  11.268  23.511 -0.0574  0.1635  0.1812
 3954W        W22701  32.893   4.328  25.310  0.1340  0.2941  0.0638
 3955W        W22702   5.574  31.322   3.394  0.0797  0.0734  0.1440
 3956W        W22703  34.730  14.932  24.183  0.0697 -0.0236 -0.1353
 3957W        W22704  32.929  29.961  15.496  0.0784 -0.1736  0.0337
 3958W        W22705  30.937   8.664  25.118  0.0367 -0.1140 -0.0073
 3959W        W22706   3.279  17.995  23.205  0.3288  0.2047 -0.3366
 3960W        W22707  30.317   9.458  12.549 -0.1432  0.3236 -0.0394
 3961W        W22708  27.402  22.636  15.286 -0.0227 -0.1128 -0.0019
 3962W        W22709  15.540  12.529  24.547 -0.0760  0.2051  0.3085
 3963W        W22710  19.489  12.427   7.085  0.0420 -0.3629 -0.1441
 3964W        W22711  18.116  18.674   7.806 -0.4999 -0.2235  0.1665
 3965W        W22712  25.669  16.931  14.076  0.0204 -0.1421  0.1673
 3966W        W22713  23.115  35.287   6.215  0.2327 -0.1841  0.1405
 3967W        W22714   7.023  12.200  19.002 -0.2872  0.0417 -0.2440
 3968W        W22715  23.768  35.288   4.026  0.2311 -0.0058 -0.1887
 3969W        W22716  24.366  32.060  25.140  0.1545 -0.1786  0.0983
 3970W        W22717  20.058  25.098   5.664  0.2062 -0.2759  0.0980
 3971W        W22718  11.469  28.144   8.327 -0.1119  0.2226 -0.1497
 3972W        W22719   8.376  11.048  22.065 -0.1093 -0.0131  0.0435
 3973W        W22720  10.319  34.166  10.856 -0.0526 -0.2336 -0.0287
 3974W        W22721  28.027   8.269  13.421 -0.2336 -0.2421 -0.0184
 3975W        W22722  15.505  14.019  11.756  0.2440  0.0669  0.0895
 3976W        W22723   3.795  25.007  25.149  0.0234 -0.0837  0.0569
 3977W        W22724  22.264  13.261  14.727  0.0452  0.0307  0.0672
 3978W        W22725   9.956  30.501  16.052  0.5334 -0.0349 -0.0569
 3979W        W22726  28.508  28.849  12.194 -0.0264  0.0359  0.1389
 3980W        W22727  22.048  16.567  18.919  0.0161  0.2862  0.2094
 3981W        W22728   7.817  17.680  11.816 -0.2211  0.0380 -0.0094
 3982W        W22729   3.926  26.705  21.475 -0.0351 -0.0402 -0.0639
 3983W        W22730   3.908  32.389  19.434 -0.2547 -0.1509 -0.0319
 3984W        W22731  11.860   7.202  23.682  0.0641 -0.0097  0.0404
 3985W        W22732  15.357  10.869  21.773  0.1731 -0.2546  0.2786
 3986W        W22733  27.725  22.669  25.091 -0.2530 -0.0567 -0.5132
 3987W        W22734  14.636   4.153  11.240 -0.1611 -0.2579  0.2369
 3988W        W22735   6.038   1.119  20.420 -0.2383 -0.1105  0.1047
 3989W        W22736  24.812  19.725  12.355  0.1055 -0.1573  0.2849
 3990W        W22737   0.582  23.489  20.102  0.4654  0.3674  0.1746
 3991W        W22738  12.264  14.954  12.604  0.0884  0.0098  0.0513
 3992W        W22739  21.903  32.376  14.643 -0.0576  0.2814  0.3740
 3993W        W22740  24.387  25.893  21.559  0.1413 -0.1309 -0.0149
 3994W        W22741   7.772  23.597   2.467  0.0262  0.0634  0.2329
 3995W        W22742  13.330  13.963   9.677 -0.1478  0.2208 -0.0777
 3996W        W22743   9.624  33.061   6.063  0.3660 -0.0941  0.1948
 3997W        W22744  13.961   6.395  24.925  0.0627  0.0938  0.5158
 3998W        W22745  12.275   5.119   7.088 -0.0509  0.1083  0.3256
 3999W        W22746   8.191  18.228  22.167 -0.3168 -0.2791 -0.0536
 4000W        W22747   6.560   8.370  25.533 -0.1034  0.2387  0.0059
 4001W        W22748  14.554  21.058  12.106 -0.2858 -0.0337  0.1328
 4002W        W22749   3.980   2.430   5.305 -0.1137  0.1135 -0.0571
 4003W        W22750   7.589  17.629  24.301  0.1093  0.1851 -0.0798
 4004W        W22751  31.362  33.256  24.455 -0.0698 -0.2474 -0.1932
 4005W        W22752  30.959  23.549  24.805 -0.0079 -0.2274  0.2681
 4006W        W22753  15.570   3.255  22.555  0.1249  0.1829 -0.3683
 4007W        W22754  34.746  32.855   0.894  0.0338  0.3487 -0.0210
 4008W        W22755  19.786  16.148   4.298  0.0001 -0.3994 -0.1903
 4009W        W22756  29.842  15.351  19.977  0.2125  0.1217 -0.2668
 4010W        W22757  31.030  17.480  20.266  0.2395 -0.1634 -0.0056
 4011W        W22758  29.701  20.062  20.363 -0.0796  0.0649  0.0895
 4012W        W22759  17.138  18.381  10.618  0.0538 -0.0775  0.1325
 4013W        W22760  28.357  32.128  25.957  0.3498  0.2726 -0.2907
 4014W        W22761   8.540  35.097   4.080 -0.1101 -0.1254 -0.0590
 4015W        W22762   4.459  15.811  16.870 -0.0279  0.1127 -0.1478
 4016W        W22763  32.669  10.438  21.328 -0.0668 -0.0454  0.2104
 4017W        W22764  13.199  21.336   8.864 -0.0520 -0.3000  0.0557
 4018W        W22765  27.208   2.679  15.854  0.0242  0.2218 -0.1310
 4019W        W22766  20.897   0.322   5.196 -0.0200  0.1814 -0.0082
 4020W        W22767  22.962   1.530  12.296 -0.0335  0.0381 -0.3420
 4021W        W22768  10.492  25.048   8.490  0.0235  0.0909 -0.2283
 4022W        W22769  16.855   0.172  20.657 -0.1286 -0.1372 -0.1145
 4023W        W22770   2.217  31.751   0.790  0.0782 -0.0422  0.1136
 4024W        W22771  29.483  14.908   7.675 -0.3149  0.1867  0.4565
 4025W        W22772  16.269  11.667  12.582  0.1360  0.1435  0.0840
 4026W        W22773  29.425  33.423   2.472  0.0422 -0.3537 -0.0983
 4027W        W22774  15.363  18.248   2.697 -0.1912  0.0658 -0.0333
 4028W        W22775   5.422  17.048   3.386  0.0350 -0.0300  0.2028
 4029W        W22776  19.319  22.339  23.647  0.3502 -0.0083  0.0659
 4030W        W22777  35.259  33.532  25.277  0.1180  0.0783 -0.1042
 4031W        W22778  34.997  14.135  25.891  0.2814 -0.1875  0.0027
 4032W        W22779  29.236   0.411  17.877 -0.0799  0.0497  0.3384
 4033W        W22780  25.828   5.791  12.198 -0.1318 -0.0863 -0.3573
 4034W        W22781   0.816   4.514   3.185 -0.6050 -0.0943 -0.1114
 4035W        W22782  18.776  23.568  24.157  0.1343 -0.2586 -0.0339
 4036W        W22783  12.463   9.054  22.289  0.3946  0.0329  0.2345
 4037W        W22784   4.127  28.634  24.192  0.0518  0.0322 -0.3185
 4038W        W22785  23.620  18.953  18.718  0.2646  0.1420 -0.2385
 4039W        W22786  24.225   3.632   3.694  0.4295 -0.2505 -0.1401
 4040W        W22787   1.610  31.328  17.415  0.2363 -0.6067 -0.0952
 4041W        W22788   5.235  12.027   9.749 -0.2077  0.0758  0.0304
 4042W        W22789  13.036  32.663   0.179 -0.2665  0.3018  0.1210
 4043W        W22790   8.754  14.889   5.856 -0.1595 -0.2704  0.1388
 4044W        W22791  33.428  19.712  21.606  0.0631  0.0185  0.1099
 4045W        W22792   4.503  25.376  24.217  0.4624  0.1079 -0.0968
 4046W        W22793  16.744  33.008   2.120 -0.3208  0.0826  0.0143
 4047W        W22794   6.449   6.023  24.810 -0.1160 -0.1739 -0.0392
 4048W        W22795  21.938  17.960   1.096  0.1415  0.0320  0.0649
 4049W        W22796  32.695  13.957  14.421 -0.2561 -0.2333  0.1006
 4050W        W22797   7.877   0.800  20.114  0.1222 -0.0112  0.0850
 4051W        W22798  13.612   8.392  12.112 -0.0171 -0.0205  0.2218
 4052W        W22799  14.518  29.911   2.726  0.1865 -0.0028  0.2635
 4053W        W22800  33.059  26.727  22.622  0.0286  0.1907  0.0939
 4054W        W22801  17.141   2.001  19.443  0.2835 -0.3289 -0.2533
 4055W        W22802  31.028  26.032   8.705  0.2740 -0.1438  0.0727
 4056W        W22803  17.971  10.817  21.947 -0.1167 -0.2071 -0.0392
 4057W        W22804  11.964  22.980  21.945  0.0316 -0.2881 -0.0289
 4058W        W22805  12.500  25.553   5.715 -0.0241  0.0755 -0.1101
 4059W        W22806   1.162  27.238   2.958 -0.1955 -0.0439  0.3589
 4060W        W22807   4.771   1.542  10.260 -0.1055 -0.1580 -0.2018
 4061W        W22808  26.673  14.990   0.511 -0.1019 -0.1361  0.0523
 4062W        W22809   1.197  11.438  15.342  0.3014 -0.1692 -0.0243
 4063W        W22810  26.213   0.512  18.376  0.0745 -0.0505  0.1043
 4064W        W22811  23.058  21.861  18.825 -0.1862  0.0273 -0.1391
 4065W        W22812  33.493  23.071  10.488  0.0482 -0.0153 -0.1528
 4066W        W22813  27.429  17.477  20.852 -0.0922  0.2384 -0.0313
 4067W        W22814  17.163  11.078   4.637  0.0988  0.4053  0.2955
 4068W        W22815  16.784  22.663   1.878  0.0237 -0.3053  0.0469
 4069W        W22816   4.524  23.322   0.566  0.1522  0.0011 -0.0403
 4070W        W22817  33.895  11.351  12.689  0.1392  0.0106  0.3019
 4071W        W22818  19.627  26.541  18.635  0.2459 -0.0156 -0.0018
 4072W        W22819   9.049  12.518   6.903  0.0885 -0.0816  0.2187
 4073W        W22820   9.968  15.723  10.789  0.2027 -0.0810 -0.2247
 4074W        W22821  26.820  35.362  22.155 -0.3208  0.0034 -0.1934
 4075W        W22822  35.202  14.562   1.350  0.2734  0.0450  0.3277
 4076W        W22823  31.138  12.720   6.436  0.1793 -0.2681  0.0779
 4077W        W22824   3.807   6.699  24.373  0.4565  0.0590  0.1197
 4078W        W22825  19.924   0.678  17.521 -0.0210  0.2685 -0.2250
 4079W        W22826  27.272   8.085  21.054  0.0332 -0.3366  0.0017
 4080W        W22827  11.713  24.537   1.104 -0.0886  0.0946 -0.2617
 4081W        W22828  29.126  11.412   6.253  0.3978 -0.1532  0.0058
 4082W        W22829  30.307   4.480  22.627 -0.0528 -0.1698  0.3197
 4083W        W22830   2.595  17.226  20.347  0.0373 -0.1178 -0.2815
 4084W        W22831  25.195  27.661   0.596  0.2186 -0.1122 -0.3861
 4085W        W22832  29.477  13.462  20.923 -0.1457 -0.1056 -0.1753
 4086W        W22833   8.720  20.802  24.990  0.1364 -0.2251  0.3403
 4087W        W22834   7.531  13.109   6.674 -0.1933  0.1896 -0.0716
 4088W        W22835   9.259  25.372  16.490 -0.0759  0.2201 -0.1695
 4089W        W22836  21.078  14.111  15.607  0.0728 -0.0678  0.0707
 4090W        W22837  26.955  16.347  14.811 -0.0109 -0.2419  0.1049
 4091W        W22838   9.976  33.752   7.956 -0.1333 -0.0143 -0.1246
 4092W        W22839  22.160  18.355   3.364 -0.5187 -0.0044  0.1314
 4093W        W22840  29.300  18.167  13.556  0.3044  0.2402 -0.0078
 4094W        W22841  24.563  19.187  23.922  0.1883  0.0117  0.1578
 4095W        W22842  27.233   9.075   9.830 -0.2387 -0.1991  0.1534
 4096W        W22843   3.410  20.503   4.288 -0.3416 -0.2088  0.0319
 4097W        W22844  30.008   3.218  19.174 -0.2834 -0.2555 -0.1594
 4098W        W22845  17.382  16.893  20.661  0.0087 -0.1882 -0.1053
 4099W        W22846   7.639  11.656   3.281 -0.1281  0.1992  0.3531
 4100W        W22847   0.608  25.211   3.740  0.3683  0.3336 -0.0345
 4101W        W22848   5.936  15.113  18.000  0.1654 -0.0369  0.0283
 4102W        W22849  29.857  21.836  11.630  0.0207  0.0277 -0.0259
 4103W        W22850  10.187  10.823  26.147 -0.1066  0.5132 -0.0744
 4104W        W22851  28.679  28.203  24.910 -0.2842  0.0080 -0.1089
 4105W        W22852  25.113   1.575   2.336 -0.1265 -0.2390 -0.0414
 4106W        W22853  18.619  29.532  25.851  0.1558 -0.0669  0.3446
 4107W        W22854  32.090  13.078   0.241 -0.0775 -0.1741 -0.1262
 4108W        W22855   8.085  12.871   6.968  0.1628  0.2161 -0.1634
 4109W        W22856  21.861  12.716  24.416 -0.1485  0.0515  0.0933
 4110W        W22857  30.993  34.235  18.415 -0.1083  0.0935 -0.0486
 4111W        W22858  27.525  16.282   8.654  0.2310 -0.0024  0.0353
 4112W        W22859   7.949   2.158   1.642  0.1129 -0.1319  0.0882
 4113W        W22860  28.395  12.697  25.673 -0.2785  0.1042  0.2077
 4114W        W22861  34.410  20.090  20.008  0.1895  0.3928 -0.0903
 4115W        W22862  11.579  13.342   9.843  0.0694  0.1151 -0.0860
 4116W        W22863   7.304   8.823   9.757 -0.3699  0.1831 -0.0219
 4117W        W22864  14.463   7.018  25.370 -0.2213 -0.1225 -0.4900
 4118W        W22865   2.499  11.986  17.290 -0.3148 -0.1381  0.0635
 4119W        W22866  18.326  27.080   0.821  0.1508 -0.2059 -0.1824
 4120W        W22867  17.112  10.025   6.928 -0.1206 -0.1431  0.2447
 4121W        W22868  14.978  13.927  10.547  0.1159  0.5422 -0.1318
 4122W        W22869   4.106  28.163   2.283  0.2859  0.0504 -0.1988
 4123W        W22870  29.198  27.190  24.368  0.4297  0.0632  0.0958
 4124W        W22871  20.000  27.118  18.874 -0.0750  0.2150 -0.1382
 4125W        W22872  16.336  19.826  10.723  0.0416 -0.1782 -0.0959
 4126W        W22873  28.366  25.019  12.592 -0.2188  0.0963 -0.0493
 4127W        W22874  27.349  19.275   5.626  0.1401  0.1521  0.1057
 4128W        W22875   2.292   0.859   4.042 -0.0330  0.3249 -0.3002
 4129W        W22876   2.235  25.034  26.038  0.2192  0.1005  0.2598
 4130W        W22877  25.351  27.850  13.488 -0.2411  0.5110 -0.3165
 4131W        W22878  14.083  18.332   4.558  0.3095 -0.1196 -0.0365
 4132W        W22879  19.637  35.189  25.773  0.1075  0.2633 -0.1000
 4133W        W22880   7.965  27.247  22.680  0.2046 -0.0064  0.0551
 4134W        W22881  33.402  21.140  14.534 -0.1375  0.0766  0.0377
 4135W        W22882  25.249  13.368  21.784  0.2147  0.0300  0.2417
 4136W        W22883  13.942  24.144   1.830 -0.0286  0.0566 -0.0983
 4137W        W22884   1.532   3.805  24.597  0.0154 -0.2576  0.2157
 4138W        W22885  18.709  16.904  21.088  0.1045 -0.2171  0.1269
 4139W        W22886  11.410  10.629  25.942  0.0202  0.1566 -0.0669
 4140W        W22887  17.778  33.283  18.642  0.2611 -0.0370  0.0930
 4141W        W22888   0.381   1.935  23.466  0.1577 -0.3131 -0.2176
 4142W        W22889   8.092  32.175   9.878 -0.1536  0.1294 -0.0610
 4143W        W22890  16.159  13.173   3.193 -0.2034 -0.0419 -0.1447
 4144W        W22891  31.920   2.932   2.348  0.0118 -0.1044 -0.0933
 4145W        W22892  27.232  27.593  17.038  0.2581 -0.1791  0.0004
 4146W        W22893   3.546  22.667   4.225 -0.3036  0.0734  0.4048
 4147W        W22894  31.209   8.172  20.199 -0.2696  0.1713  0.0816
 4148W        W22895  34.720  22.223   7.443  0.1248  0.2524 -0.2147
 4149W        W22896   1.635  18.672  21.394 -0.0753  0.0230  0.0178
 4150W        W22897  30.187  32.282  19.917  0.1053 -0.0264 -0.1971
 4151W        W22898  27.926   4.306   2.428  0.3438  0.0213 -0.0701
 4152W        W22899  15.735  29.440  20.152 -0.1492 -0.0801  0.2134
 4153W        W22900  16.402  29.642   8.204 -0.0216 -0.1069  0.0314
 4154W        W22901  27.294   2.608   5.182  0.1735 -0.2114 -0.1543
 4155W        W22902   2.613  17.070  21.604  0.4080 -0.1854 -0.2189
 4156W        W22903  20.351  27.841  20.568  0.4236  0.2222  0.2124
 4157W        W22904   8.733  16.759   6.539 -0.2231 -0.0360  0.1432
 4158W        W22905  20.005   8.561   5.812  0.0473 -0.1861 -0.2662
 4159W        W22906  15.694   7.884  10.447 -0.0934 -0.0074 -0.3370
 4160W        W22907  34.608  34.724   2.187 -0.3164  0.1160 -0.2144
 4161W        W22908  32.178   0.612  14.273 -0.0564  0.3904 -0.1326
 4162W        W22909  25.023   4.759   2.533 -0.0585 -0.3163 -0.1792
 4163W        W22910  10.664  12.977   5.952 -0.2016  0.0044  0.1539
 4164W        W22911  19.929  28.683   1.570 -0.1874  0.1068 -0.1813
 4165W        W22912  27.187   0.846  24.664  0.0733 -0.1185 -0.2988
 4166W        W22913   4.943  29.020   7.015 -0.0409 -0.0259  0.4023
 4167W        W22914  11.051  24.922  26.252 -0.0617  0.1187 -0.2423
 4168W        W22915  34.642  21.405  12.043 -0.3292 -0.4519  0.2181
 4169W        W22916  31.795  32.231  22.316  0.0376 -0.3059  0.0302
 4170W        W22917  29.544  15.959  13.400  0.1527 -0.1612  0.1088
 4171W        W22918  33.670  11.475  16.086  0.1103  0.0285 -0.0230
 4172W        W22919  12.512  24.639   5.461  0.4126 -0.1314 -0.4264
 4173W        W22920  16.027  24.631   8.832  0.0023  0.0576 -0.0109
 4174W        W22921  19.888  11.174   1.562  0.2517 -0.2121  0.1050
 4175W        W22922  34.559  28.078  16.170  0.2101 -0.4039 -0.0271
 4176W        W22923   2.862  29.154  18.841 -0.0219  0.0034  0.0686
 4177W        W22924   3.746  23.063   5.994  0.0236  0.0533  0.0565
 4178W        W22925  28.535  21.850  19.258 -0.0075  0.1998 -0.0292
 4179W        W22926   6.629   8.197   0.395  0.1204  0.1325 -0.5895
 4180W        W22927  15.760  27.097  21.767 -0.1651 -0.2036 -0.0849
 4181W        W22928  19.635  33.550  18.609  0.0822 -0.0829 -0.0914
 4182W        W22929  16.951   0.740  23.492 -0.1944 -0.0073  0.1376
 4183W        W22930   7.859  18.716   8.720  0.0639 -0.0049  0.2400
 4184W        W22931  20.643  17.397  17.435  0.1016  0.3663 -0.2151
 4185W        W22932  14.995  34.515  10.822 -0.0651 -0.1532  0.0648
 4186W        W22933   0.599  27.909   7.165  0.1869  0.5388 -0.0152
 4187W        W22934  28.986  12.712  14.518  0.0922  0.2741 -0.1370
 4188W        W22935  29.565   0.040   4.419  0.2692 -0.0730 -0.0849
 4189W        W22936  13.963  26.101   3.871 -0.0088  0.2614  0.1221
 4190W        W22937  13.417   7.951  20.929 -0.0426  0.2017  0.4645
 4191W        W22938  16.981  17.727   6.765  0.5566 -0.3376  0.0594
 4192W        W22939  28.178  10.564  12.882  0.0291 -0.0902 -0.3565
 4193W        W22940  21.905  14.936  16.532 -0.0035  0.1946 -0.1837
 4194W        W22941   4.255  25.332   3.902  0.1413 -0.0280  0.0729
 4195W        W22942  30.038  24.575  21.128  0.3667  0.0962  0.1766
 4196W        W22943  26.913  27.773  13.977 -0.1818 -0.2522  0.0354
 4197W        W22944  24.430  16.674  19.971 -0.0402  0.0583  0.0307
 4198W        W22945   0.136  29.287   2.203 -0.2544 -0.3874  0.0162
 4199W        W22946  20.713   5.134   3.266  0.0437  0.0847 -0.0015
 4200W        W22947  12.316   2.213  25.619  0.1874  0.0689 -0.0975
 4201W        W22948  24.972   3.623  15.588  0.1553 -0.0419 -0.1339
 4202W        W22949  12.981   4.335   4.250 -0.4558  0.3037 -0.1984
 4203W        W22950  11.703  19.456  13.951 -0.1726  0.0222  0.0109
 4204W        W22951   4.282  10.009  16.961  0.0468 -0.0086 -0.0745
 4205W        W22952  15.963  12.383   9.029 -0.1655 -0.0670  0.0072
 4206W        W22953  15.640  11.361  21.946 -0.1015  0.0221 -0.1083
 4207W        W22954  14.721   4.725   9.892  0.0153 -0.0516  0.1076
 4208W        W22955  15.601   6.252  22.212  0.1080  0.0045  0.0255
 4209W        W22956  28.280  17.636  25.392  0.0712 -0.2465  0.2018
 4210W        W22957  26.301  21.687  24.658  0.0798 -0.0637  0.1687
 4211W        W22958   3.118  13.862  25.091  0.2871  0.2634 -0.0419
 4212W        W22959  24.072   6.133   0.230  0.1573 -0.1927  0.3569
 4213W        W22960   0.848  14.678  12.498  0.4215  0.1634  0.1270
 4214W        W22961  10.285  29.203   3.819 -0.0539  0.1699 -0.1452
 4215W        W22962   1.418  15.029  20.830  0.2393 -0.2596  0.1500
 4216W        W22963   3.604   5.133  22.529 -0.1802 -0.0319 -0.0801
 4217W        W22964   9.262   0.219   1.817  0.0574 -0.1310  0.0366
 4218W        W22965  12.356  30.617   9.083 -0.0135  0.0436  0.0328
 4219W        W22966  30.323  34.009  24.250 -0.3180 -0.0387  0.1814
 4220W        W22967  23.901  28.696   0.033 -0.1246  0.1237 -0.0519
 4221W        W22968  12.715  25.235  12.171  0.0028 -0.1387 -0.0581
 4222W        W22969   9.449  34.634   6.934  0.1507  0.0525 -0.0538
 4223W        W22970  10.473  13.397   9.193  0.0585 -0.6578  0.1192
 4224W        W22971  31.598  25.396  22.432 -0.1423  0.0030 -0.1797
 4225W        W22972  10.441  13.555   5.276 -0.0071  0.1683  0.0119
 4226W        W22973  30.488   8.552  14.482  0.0699 -0.1323  0.1429
 4227W        W22974   5.735   0.102   2.824  0.0928 -0.4240  0.4678
 4228W        W22975  28.596  11.329   6.399  0.0753 -0.1689 -0.0221
 4229W        W22976  18.885  26.815  25.191 -0.2099  0.0385  0.2248
 4230W        W22977  13.839   3.165  19.223 -0.2086 -0.1256 -0.0592
 4231W        W22978   3.843  33.400   1.252  0.0085 -0.1320 -0.2124
 4232W        W22979   2.386  13.561   3.182  0.1534  0.2000  0.1010
 4233W        W22980  26.679  33.475   4.550  0.1032 -0.0260  0.0848
 4234W        W22981  17.578  20.518   3.970 -0.0785 -0.0285 -0.1977
 4235W        W22982  20.827   2.748  19.625 -0.1762  0.1418  0.2323
 4236W        W22983  13.613  30.546  14.962 -0.3311 -0.1547  0.0270
 4237W        W22984   3.309  22.204   2.758 -0.1175  0.1143 -0.1734
 4238W        W22985   1.213  30.916  21.856 -0.4337  0.1310 -0.1394
 4239W        W22986   0.848  19.292  22.181  0.1976 -0.2342  0.2449
 4240W        W22987  18.956   3.615   2.435  0.0908 -0.2310  0.1718
 4241W        W22988  26.844  21.859  23.091 -0.2326  0.2553 -0.0945
 4242W        W22989   6.611  18.551  25.760  0.0208  0.0765 -0.2874
 4243W        W22990  27.426  27.986  20.870  0.1097  0.2706 -0.2788
 4244W        W22991   6.777   3.855  19.793  0.2423  0.2984  0.1815
 4245W        W22992  24.643  33.921  12.236 -0.0402 -0.3854  0.3264
 4246W        W22993   8.719  29.506  25.262  0.0487 -0.2553 -0.0051
 4247W        W22994   0.117   0.761   0.248 -0.0515  0.0789 -0.4687
 4248W        W22995  22.238   1.420  23.957  0.0334  0.0070  0.1215
 4249W        W22996  22.412  27.073  12.144 -0.1197  0.2531 -0.0048
 4250W        W22997  11.054  30.677  25.067 -0.0032 -0.1407  0.3357
 4251W        W22998  19.561  22.551  19.686 -0.1427  0.1043  0.1176
 4252W        W22999  22.227  12.818  19.622 -0.0427  0.1731 -0.1508
 4253W        W23000  19.019  23.837   0.157  0.1587 -0.4566  0.1058
 4254W        W23001  34.262   1.477   1.082  0.1194  0.3959  0.0105
 4255W        W23002   5.386  33.237   2.718 -0.4517  0.0363 -0.1609
 4256W        W23003  34.143  32.188  15.774 -0.0747 -0.0376 -0.2829
 4257W        W23004   6.649  20.326  20.413  0.0094  0.2286  0.4048
 4258W        W23005  27.871  32.234  12.062 -0.1884 -0.0452  0.3428
 4259W        W23006  17.390  21.582  26.117 -0.0688 -0.0087  0.2360
 4260W        W23007  33.992  10.429   0.968 -0.0083 -0.0086 -0.3394
 4261W        W23008  17.635   9.527   0.994  0.0271  0.1071  0.0058
 4262W        W23009  34.035  32.419  16.790  0.0074  0.3006  0.0362
 4263W        W23010  30.022  27.697  23.636 -0.0826 -0.1720 -0.2841
 4264W        W23011  10.936  35.329   1.359 -0.4904 -0.0844 -0.0510
 4265W        W23012  24.385  26.466  10.753  0.1156  0.1969 -0.0532
 4266W        W23013   2.930   5.660  19.388 -0.2928 -0.3278  0.1538
 4267W        W23014  17.087   3.255  10.933 -0.1492  0.1453 -0.1722
 4268W        W23015   6.118   6.714   2.295  0.1145 -0.0904 -0.2082
 4269W        W23016  19.492   2.766  15.214 -0.0495 -0.1692 -0.4358
 4270W        W23017  17.584   1.329   8.106 -0.0679 -0.1669  0.2595
 4271W        W23018  22.602   1.019  23.510  0.0575  0.0646  0.0709
 4272W        W23019  34.723  29.954   8.426  0.2629  0.2157  0.1100
 4273W        W23020  12.927   9.705  10.986 -0.2677  0.0171 -0.0298
 4274W        W23021   0.227  32.777  24.615  0.0191 -0.1773  0.0105
 4275W        W23022   2.875  33.955  20.655  0.1819 -0.2859  0.0185
 4276W        W23023  32.014  17.201  14.082 -0.0837  0.2689 -0.0015
 4277W        W23024   9.797  11.600   5.987  0.0617  0.0771 -0.0614
 4278W        W23025   8.333  31.601   2.188  0.0712 -0.2127  0.2635
 4279W        W23026  29.568  25.529  25.434 -0.2630  0.0600 -0.2779
 4280W        W23027  26.165   4.247  24.360  0.2099 -0.0327  0.4347
 4281W        W23028   1.201  19.167  13.494  0.0248 -0.1029 -0.0248
 4282W        W23029  26.682  26.741  24.285 -0.3852 -0.0504 -0.0189
 4283W        W23030  12.001  34.357  14.329  0.0956 -0.2239 -0.1306
 4284W        W23031   4.775  17.541  21.295  0.1311 -0.3591 -0.6310
 4285W        W23032  10.115  15.735  25.211 -0.0401 -0.0555 -0.3342
 4286W        W23033  22.449   6.541   6.464  0.0620 -0.2777 -0.0459
 4287W        W23034  32.265  25.646  17.121 -0.1285 -0.0149  0.1442
 4288W        W23035   0.345   7.119  14.484  0.1681  0.4185  0.2128
 4289W        W23036  34.927  20.631   8.992  0.0146 -0.0266  0.2848
 4290W        W23037   9.621  34.535   3.218 -0.0880  0.2168 -0.2024
 4291W        W23038  19.915  18.286  24.599  0.1322  0.0048  0.2213
 4292W        W23039  21.127  19.218  24.523 -0.4319 -0.2165 -0.2698
 4293W        W23040   2.341  32.515  23.953  0.3538 -0.1209 -0.0009
 4294W        W23041  15.824  21.383   5.562 -0.0060 -0.3245 -0.0007
 4295W        W23042  33.818   8.144  21.740 -0.1343 -0.1028  0.3822
 4296W        W23043   2.630   7.608  23.518 -0.0704  0.1815  0.2443
 4297W        W23044  28.108   6.138  24.069  0.0517 -0.2205 -0.0987
 4298W        W23045   3.096   1.996  24.133  0.1286 -0.0881  0.2612
 4299W        W23046  23.899   1.143   1.880  0.0314  0.1230  0.0444
 4300W        W23047   0.017  33.340  15.716 -0.0470  0.1370 -0.0479
 4301W        W23048  13.185   1.782   4.700  0.1827  0.1194  0.0224
 4302W        W23049   6.368  12.853   4.187  0.0031 -0.2556 -0.2148
 4303W        W23050  20.353  29.064   7.992  0.0696 -0.0750  0.0309
 4304W        W23051  24.845   6.990  23.383 -0.0409  0.3479  0.1178
 4305W        W23052   8.627  28.897  15.196  0.0377  0.1247  0.2787
 4306W        W23053  14.831  23.549  23.189  0.1458 -0.1613 -0.1089
 4307W        W23054  20.045  28.715  23.158 -0.0080  0.1001 -0.1480
 4308W        W23055   7.498  20.868  23.491  0.3559 -0.0626 -0.3256
 4309W        W23056   0.194  18.359   9.544  0.2805  0.0362  0.3017
 4310W        W23057   3.760  34.712  26.068 -0.0258  0.0017 -0.0200
 4311W        W23058  33.866  22.775   9.336 -0.1910  0.2576  0.2101
 4312W        W23059  32.576  14.681   6.343  0.1726 -0.2332 -0.0592
 4313W        W23060  27.633  21.083  23.414 -0.0573 -0.2217 -0.0707
 4314W        W23061  22.121  29.675  14.329 -0.0627  0.3076  0.1031
 4315W        W23062  17.633  22.780   7.386 -0.1090  0.1281 -0.0878
 4316W        W23063  21.531  16.327  21.263 -0.0766  0.1860 -0.0434
 4317W        W23064  18.940  28.391  24.559  0.2709 -0.1712 -0.1145
 4318W        W23065  23.736  33.863  20.385 -0.1236  0.1000  0.1306
 4319W        W23066  17.802  21.487   9.356 -0.2781  0.0661 -0.0363
 4320W        W23067  32.010  15.353  25.125 -0.0031 -0.3308 -0.1333
 4321W        W23068  23.122   3.359  14.657  0.3379  0.4627  0.0722
 4322W        W23069  28.101  18.271  10.198  0.1742 -0.2332 -0.0696
 4323W        W23070  12.237   5.861   9.552  0.0013  0.1428  0.1036
 4324W        W23071  13.765  16.641  19.689 -0.0919  0.0048 -0.0010
 4325W        W23072   8.136   2.174  24.886  0.0762  0.2992 -0.5466
 4326W        W23073  14.356  32.817   9.859 -0.0313 -0.0775 -0.4311
 4327W        W23074  26.100  10.088  20.114 -0.0773  0.2466 -0.1599
 4328W        W23075  23.802   5.926  19.031  0.1364  0.0858  0.0694
 4329W        W23076  19.557  30.789  19.874 -0.0432  0.0564 -0.0550
 4330W        W23077  15.506   4.166   2.045  0.1260  0.0865 -0.0003
 4331W        W23078  25.502  18.938  16.757 -0.0528  0.0421 -0.0271
 4332W        W23079  14.354   9.599  13.894 -0.1182 -0.2400  0.0141
 4333W        W23080   1.764  22.383  16.107 -0.0162  0.0504 -0.4219
 4334W        W23081  34.161   7.669   2.852  0.0273 -0.1084 -0.2486
 4335W        W23082  17.281  23.607   1.711  0.0421 -0.2065 -0.0222
 4336W        W23083  27.963  25.168   7.250 -0.0052 -0.0923  0.0089
 4337W        W23084  16.147  23.522  21.796 -0.0750  0.1637 -0.1299
 4338W        W23085  23.909   8.219  19.599  0.2056 -0.0103 -0.1716
 4339W        W23086  24.652  15.606   9.507  0.0818 -0.3484 -0.0444
 4340W        W23087  34.514  22.295  21.964  0.0952 -0.3179  0.0689
 4341W        W23088  33.999   0.521  17.526 -0.2193  0.2688  0.0369
 4342W        W23089  32.085   9.077  22.641  0.0376 -0.0164 -0.1522
 4343W        W23090   9.789  16.713  24.228 -0.0192 -0.3126 -0.0358
 4344W        W23091   9.872  18.373  25.109 -0.1585 -0.2249  0.2958
 4345W        W23092  12.461   1.423   4.229  0.0815 -0.1557 -0.2479
 4346W        W23093  16.577  14.445  23.633 -0.1809 -0.0116  0.1635
 4347W        W23094  34.112   2.885  19.263 -0.1885 -0.2188  0.0959
 4348W        W23095  21.306   8.595   5.684  0.0135 -0.3185 -0.1570
 4349W        W23096  29.546  11.467  24.172  0.0684  0.5096  0.2658
 4350W        W23097  21.851  24.795  22.478  0.0280 -0.2528 -0.0859
 4351W        W23098  13.748   1.115  12.573  0.0730  0.1015  0.0603
 4352W        W23099  31.556  12.908   9.681  0.0013  0.2444 -0.1022
 4353W        W23100  28.310  22.001   7.119 -0.0853  0.3943  0.0790
 4354W        W23101  26.847  24.607  23.257  0.0156  0.0818  0.0503
 4355W        W23102   5.016  20.890   6.194  0.1860 -0.4659  0.0317
 4356W        W23103  11.400  15.172   5.990 -0.1531  0.2718  0.0635
 4357W        W23104  19.439  20.052  17.430  0.0950 -0.1200  0.0760
 4358W        W23105   2.870  25.406  21.324  0.5085  0.1017 -0.0782
 4359W        W23106  27.855   0.280   2.961 -0.1731  0.0265 -0.0394
 4360W        W23107   4.969  10.929  24.065  0.0224 -0.0393 -0.0120
 4361W        W23108   2.468  11.191   0.617  0.1777  0.0166  0.0956
 4362W        W23109  27.066   0.764  19.573 -0.1139 -0.0622  0.2205
 4363W        W23110  28.307   0.506  24.445  0.0025  0.0732 -0.2147
 4364W        W23111  22.879  20.777  14.851  0.0418  0.1312 -0.2605
 4365W        W23112  21.139  34.889  15.109  0.1552 -0.0224 -0.0521
 4366W        W23113  20.179   2.400  15.757  0.0490 -0.0972  0.2168
 4367W        W23114  29.791   3.666  16.971 -0.0253 -0.0597 -0.1639
 4368W        W23115  34.278  13.134   8.618  0.1413 -0.1082 -0.1592
 4369W        W23116  29.229  21.500  12.451 -0.1472 -0.1836  0.2554
 4370W        W23117  27.361   0.772  17.082 -0.1447 -0.0798  0.0261
 4371W        W23118  23.379   0.505  14.338  0.1859 -0.1984  0.1080
 4372W        W23119  28.428   8.814  23.900  0.0586  0.0837  0.2932
 4373W        W23120  29.235  25.687   8.804  0.1210 -0.0506 -0.0018
 4374W        W23121   8.706   5.106  12.480 -0.0636  0.2722  0.3721
 4375W        W23122   0.999  10.691  24.501  0.0337  0.2812  0.4134
 4376W        W23123  10.131   7.128  19.662  0.2888  0.1573  0.0707
 4377W        W23124   6.867   7.629   3.655 -0.2740  0.0067 -0.2380
 4378W        W23125  13.144   3.202  11.484 -0.2524  0.1434  0.1170
 4379W        W23126   4.866  15.665  16.350 -0.1117 -0.1090  0.1093
 4380W        W23127   2.997  33.035   7.064 -0.0162 -0.3229  0.0569
 4381W        W23128  15.944  19.619   9.426  0.2621 -0.0692  0.1326
 4382W        W23129  33.728  12.314   0.065  0.2177  0.3596 -0.2838
 4383W        W23130   3.216   8.296  24.468  0.2482 -0.0109 -0.0941
 4384W        W23131  15.134   7.580   0.076 -0.1512  0.1250 -0.1825
 4385W        W23132  22.191  15.238  15.885 -0.0580  0.0939  0.2158
 4386W        W23133   5.012  31.057  13.637 -0.1058  0.0181 -0.0551
 4387W        W23134   0.164   4.217  23.033  0.1761 -0.0568  0.3161
 4388W        W23135  11.251  18.336  10.679  0.1510 -0.0983  0.3133
 4389W        W23136  15.097  20.686  10.438  0.2170 -0.1725 -0.1349
 4390W        W23137  27.006  30.229  20.560  0.3233 -0.0510 -0.0565
 4391W        W23138   6.708  29.862   9.409  0.0594 -0.2583 -0.1200
 4392W        W23139  21.617  25.032  18.416 -0.3325  0.0471 -0.1786
 4393W        W23140  12.633  17.333  24.757 -0.0006  0.0997 -0.2102
 4394W        W23141  14.131  22.486   0.326  0.3409 -0.3901  0.1239
 4395W        W23142  18.032   9.536  11.496 -0.3439  0.3828 -0.1660
 4396W        W23143  28.020  33.865  13.776  0.2458 -0.4709 -0.1581
 4397W        W23144   7.054   8.063  18.578 -0.3253  0.0070  0.3143
 4398W        W23145  25.041  16.659  10.658 -0.2248 -0.0842  0.1109
 4399W        W23146  21.269  23.421   7.064 -0.0904 -0.1146  0.2359
 4400W        W23147  23.191  26.440  14.349 -0.2085 -0.1279  0.1475
 4401W        W23148  10.675  31.540   7.389  0.2321  0.1007  0.1304
 4402W        W23149   2.855  33.992  20.158  0.0874 -0.0155 -0.0641
 4403W        W23150  20.864   9.924   8.481  0.0494  0.2571  0.0957
 4404W        W23151  27.414   6.385   0.239 -0.3230 -0.0630 -0.4315
 4405W        W23152  19.017  22.273  21.166  0.1404  0.2838 -0.3531
 4406W        W23153  20.504  13.387  25.926  0.0074  0.1849  0.1897
 4407W        W23154   0.147  33.691   0.917 -0.1377 -0.0113  0.0986
 4408W        W23155   0.444  10.876   2.807 -0.2090  0.2198  0.1002
 4409W        W23156  31.978   3.721  17.686  0.0673  0.0544 -0.0258
 4410W        W23157   8.703  18.071  22.178 -0.1825 -0.1487 -0.0960
 4411W        W23158   0.150   1.364   2.972 -0.1585  0.0368 -0.0644
 4412W        W23159  11.502  14.158   7.344  0.0277 -0.2875 -0.0831
 4413W        W23160   1.515  12.515  19.570  0.4123  0.3773  0.0180
 4414W        W23161  17.067  28.208  25.867 -0.1710 -0.2707  0.1628
 4415W        W23162  29.742  21.319   5.105  0.0715  0.0436 -0.0211
 4416W        W23163  17.781  31.337   1.439  0.4524  0.3717  0.0323
 4417W        W23164  13.965   5.924   7.138  0.2238 -0.1121  0.3213
 4418W        W23165   4.717   3.965   9.248  0.2328  0.0173 -0.0732
 4419W        W23166  26.110  32.252  23.626  0.1174  0.1717  0.0161
 4420W        W23167  30.674   5.598  19.270 -0.0369  0.1744  0.0703
 4421W        W23168  14.955  10.025   3.230  0.4449 -0.2165 -0.2114
 4422W        W23169  12.670   3.735  22.422 -0.2250 -0.0030 -0.2842
 4423W        W23170   0.104  14.079  25.622  0.1331 -0.0629  0.2046
 4424W        W23171  24.412  21.601  22.971 -0.0256 -0.2877 -0.1469
 4425W        W23172  10.042  32.445   6.741  0.0297  0.1576  0.0861
 4426W        W23173  34.477  21.907  16.464  0.1912  0.2969  0.1383
 4427W        W23174  32.117  26.219  18.565 -0.0887 -0.1857  0.1241
 4428W        W23175  21.514  28.586   4.416  0.0353  0.2121  0.1225
 4429W        W23176   4.762   3.228   9.777 -0.0349  0.0037 -0.1531
 4430W        W23177  25.722   9.241   3.029  0.1149 -0.2661  0.0891
 4431W        W23178  31.531  29.766   3.503  0.1968 -0.2638  0.0155
 4432W        W23179  12.658   3.786   2.560  0.0116 -0.3549 -0.0628
 4433W        W23180  30.646   4.379  13.987  0.1175  0.2554  0.0124
 4434W        W23181  19.136  11.264  18.068  0.2104  0.0928  0.1117
 4435W        W23182  12.136  19.431  25.205 -0.1818 -0.1556 -0.0394
 4436W        W23183  28.617   4.376  17.459 -0.0488  0.0959 -0.3547
 4437W        W23184  15.338   6.544   1.495 -0.1144 -0.3878 -0.1583
 4438W        W23185  15.402  26.244  10.942 -0.0831 -0.0535 -0.1606
 4439W        W23186  31.576   3.820  20.793 -0.0641  0.1049  0.3974
 4440W        W23187  18.315  32.102   9.650 -0.0892 -0.1476  0.0741
 4441W        W23188  35.279  10.773  20.185  0.1530 -0.0080 -0.0395
 4442W        W23189  35.282   9.222  22.419  0.1633 -0.2714 -0.1442
 4443W        W23190  33.450  30.388  23.451  0.4423  0.1976  0.2107
 4444W        W23191  15.180  30.222   9.533 -0.3248 -0.1067 -0.1566
 4445W        W23192  28.759  11.387  17.413 -0.0794  0.0473  0.2632
 4446W        W23193   0.892   6.779   4.495 -0.0337 -0.0997  0.3044
 4447W        W23194  22.173  28.310  19.348  0.0199  0.2146  0.0767
 4448W        W23195  10.513  14.702   5.467  0.3795  0.0833 -0.0596
 4449W        W23196  16.619  28.569   8.294 -0.1218 -0.0808  0.0340
 4450W        W23197  15.484   3.862  21.757 -0.1990 -0.1300  0.0128
 4451W        W23198  22.763   3.930   7.338  0.1484  0.0436  0.3031
 4452W        W23199  29.639   0.233   3.499 -0.0042 -0.0240  0.3245
 4453W        W23200  33.596  12.577  18.247 -0.4179  0.1831  0.0085
 4454W        W23201  22.933  31.981  17.266  0.2138  0.0300  0.0697
 4455W        W23202  18.245  33.232  17.375  0.1211  0.0747  0.0610
 4456W        W23203   0.744  30.780  25.807  0.0601 -0.0151  0.1583
 4457W        W23204  12.880   7.025  18.595 -0.1004  0.1975  0.1844
 4458W        W23205  20.054  13.333   0.458  0.0442 -0.1798 -0.0484
 4459W        W23206  11.502  32.779   1.238  0.0043  0.3963 -0.0425
 4460W        W23207  31.006   3.725  13.359  0.1626 -0.1419  0.1669
 4461W        W23208  35.024  23.168  17.025 -0.1167 -0.2532  0.1675
 4462W        W23209   4.226  27.499   8.881  0.1299 -0.0374  0.1640
 4463W        W23210   0.628   3.189  25.232  0.2253  0.0246  0.0887
 4464W        W23211  19.900   6.192  24.603  0.1856 -0.2294 -0.2199
 4465W        W23212  32.727  24.273  16.216  0.3842  0.0042 -0.2007
 4466W        W23213  11.842  14.185  19.614  0.0517 -0.0686 -0.0609
 4467W        W23214  19.300  34.001  24.703 -0.1252  0.2063 -0.1347
 4468W        W23215   9.568  14.026   5.473  0.2647 -0.1033 -0.1126
 4469W        W23216  16.344   7.927  11.320  0.5036 -0.1317  0.0534
 4470W        W23217  24.195  26.435   3.518  0.0446 -0.4051 -0.3788
 4471W        W23218  31.039  14.146  22.021 -0.0414 -0.1004  0.0711
 4472W        W23219  27.863   6.680  26.210 -0.1755  0.1549 -0.0596
 4473W        W23220  33.541  11.362   0.173  0.1729 -0.2698 -0.1561
 4474W        W23221  35.000  25.498  14.231 -0.1623 -0.0284 -0.2538
 4475W        W23222  23.841   6.789   4.249  0.0024 -0.1001 -0.0531
 4476W        W23223  16.075  19.756  14.163 -0.1394 -0.3002 -0.0459
 4477W        W23224  18.968  23.497  21.425  0.0455 -0.0314  0.0139
 4478W        W23225  34.359  31.571   3.861 -0.1092  0.2667  0.3112
 4479W        W23226  19.584  15.258  17.146 -0.0696  0.1433  0.0567
 4480W        W23227  29.455  31.174   4.915 -0.1809  0.1262  0.0199
 4481W        W23228  32.108  25.379   9.922  0.1751 -0.0892 -0.2037
 4482W        W23229   5.001  24.472  25.731  0.1615  0.0661 -0.0111
 4483W        W23230   3.884  23.700   2.679 -0.1821  0.0487  0.0706
 4484W        W23231  29.191   2.582   2.185  0.1900 -0.4821  0.0651
 4485W        W23232  14.699  28.476   8.521  0.1451  0.1046 -0.2009
 4486W        W23233  22.080  32.274  16.986  0.0841 -0.0055 -0.0173
 4487W        W23234   0.725   0.991  23.496  0.2408  0.0100 -0.1164
 4488W        W23235   6.995  25.404  24.277  0.0604  0.2123 -0.0386
 4489W        W23236  17.724  26.192  23.567  0.1440 -0.2044 -0.1780
 4490W        W23237  29.663   5.856   0.890 -0.2400 -0.2040 -0.2691
 4491W        W23238  16.210   6.384  24.614  0.1431  0.0230 -0.2351
 4492W        W23239  10.416  18.496  12.738 -0.1663 -0.1123 -0.1958
 4493W        W23240  24.804  15.050  23.214 -0.1326  0.2748  0.1077
 4494W        W23241  29.934  16.181  14.358  0.2965 -0.0044 -0.1798
 4495W        W23242  35.257  20.420  22.349 -0.1101 -0.1470  0.2645
 4496W        W23243   1.238  10.791  19.487 -0.1812 -0.0460 -0.0906
 4497W        W23244  33.469  34.314  25.258  0.0305 -0.0544  0.4509
 4498W        W23245  10.147  34.090   3.539 -0.0940 -0.1466 -0.0397
 4499W        W23246  29.365   3.238  15.241 -0.1897  0.0211 -0.0351
 4500W        W23247   4.147  13.956   0.807 -0.1468 -0.0466  0.2298
 4501W        W23248  25.425  32.155  22.916 -0.2128 -0.0491  0.1608
 4502W        W23249  20.529   8.062   4.196 -0.4618 -0.3115  0.1430
 4503W        W23250  19.676  20.851   9.287 -0.1236  0.1298  0.1338
 4504W        W23251   3.675  11.469  24.553  0.0145  0.0376 -0.1968
 4505W        W23252   0.609  34.048   6.363  0.2094  0.0555  0.2044
 4506W        W23253   0.173  13.469  23.957  0.0184  0.1785 -0.1965
 4507W        W23254  21.970  27.270  18.696  0.0735 -0.2971 -0.0738
 4508W        W23255   6.910  30.937   0.735 -0.2676  0.2717  0.0050
 4509W        W23256  12.410  23.802  14.071 -0.0999 -0.0380 -0.1901
 4510W        W23257  35.019   5.299  25.951  0.3565  0.5553  0.2194
 4511W        W23258  24.878  30.455  20.718 -0.4621  0.2336 -0.2406
 4512W        W23259  16.887  32.820  20.275 -0.1204  0.1858  0.0789
 4513W        W23260  20.311  16.451  21.366  0.0638  0.1009 -0.1782
 4514W        W23261  33.387  29.199  21.552  0.3733  0.1153  0.3011
 4515W        W23262  22.759  15.191  22.894  0.3050  0.3147  0.3253
 4516W        W23263  34.272  32.854   5.658  0.2751  0.1133  0.1104
 4517W        W23264   8.848  27.195   6.015 -0.3721 -0.0306 -0.2053
 4518W        W23265  33.326  19.265  10.700 -0.1581 -0.0880 -0.0820
 4519W        W23266  27.795  21.119  12.153 -0.3555 -0.1146  0.0608
 4520W        W23267  32.272  33.609   5.370  0.1636 -0.0440  0.1263
 4521W        W23268   5.753  14.319  18.500  0.3549 -0.2991  0.2192
 4522W        W23269  15.475  12.724  20.359  0.0899 -0.0291  0.1659
 4523W        W23270  32.515  34.799  13.920 -0.2867 -0.0900 -0.1222
 4524W        W23271   9.950   6.393  13.384  0.0415 -0.0172 -0.0113
 4525W        W23272  27.429   2.103   6.781  0.0115  0.0678 -0.1945
 4526W        W23273  33.428   9.439  13.064 -0.1301  0.0825 -0.0404
 4527W        W23274   3.495   5.011   7.237 -0.3145 -0.0347 -0.0575
 4528W        W23275  18.117  14.394  22.385  0.3785  0.2398 -0.0108
 4529W        W23276  35.260  22.778  25.285  0.1423 -0.1655  0.2490
 4530W        W23277   5.873  26.945  11.208 -0.1158 -0.1567 -0.1665
 4531W        W23278  31.371  34.096  26.204 -0.1567  0.0316 -0.0051
 4532W        W23279   0.881  25.012  25.577  0.4450  0.2984  0.0373
 4533W        W23280  18.488  11.458   5.779 -0.3528  0.0473 -0.2167
 4534W        W23281  19.958  19.164   0.608 -0.1213 -0.0706 -0.0694
 4535W        W23282  25.375  24.675  15.737 -0.0157 -0.1418 -0.2439
 4536W        W23283  15.736  23.301  11.179 -0.1148 -0.1112  0.1079
 4537W        W23284  30.327  10.591  24.203  0.2533  0.0234 -0.1020
 4538W        W23285  32.166  21.218  23.637  0.1014 -0.0833  0.0906
 4539W        W23286  27.642   8.084  22.962 -0.0110  0.3884 -0.1436
 4540W        W23287  28.954  17.555  24.516 -0.1030 -0.3134  0.1042
 4541W        W23288  21.360   9.568  18.414  0.2385  0.0468 -0.0514
 4542W        W23289  16.612  18.795   1.076 -0.0760 -0.1463 -0.0452
 4543W        W23290   3.683  19.678  19.144  0.4467  0.1173 -0.0114
 4544W        W23291  33.037  32.067  24.542  0.5726  0.0244  0.1268
 4545W        W23292  18.781  22.852   9.693  0.0263  0.0340 -0.0377
 4546W        W23293  27.814  20.166  11.313 -0.0609  0.1208  0.1275
 4547W        W23294  18.367  12.085  23.558 -0.1748  0.2548 -0.2120
 4548W        W23295  34.425  26.355   1.245  0.0809  0.0772 -0.0781
 4549W        W23296  21.686  19.591   1.088  0.1060  0.1312 -0.3311
 4550W        W23297  23.843  25.602  16.884  0.1311 -0.1246  0.1617
 4551W        W23298   2.010  10.027  15.332  0.0361 -0.1920 -0.1425
 4552W        W23299  23.081   3.303  16.513  0.0186  0.2353  0.3253
 4553W        W23300  16.520  31.863  10.308 -0.0037 -0.1890 -0.1111
 4554W        W23301  20.963  33.210  16.025 -0.0398  0.2339  0.2487
 4555W        W23302  23.797  20.868  14.677 -0.2113  0.0223 -0.0229
 4556W        W23303  22.936  27.865  11.281  0.2228 -0.1844 -0.0971
 4557W        W23304  33.950  23.565  13.514  0.3422 -0.2958 -0.0807
 4558W        W23305  24.058  17.121  18.782  0.1247  0.0369  0.2991
 4559W        W23306   1.022  31.873  20.286  0.0920  0.1808  0.1668
 4560W        W23307   7.836   7.411   9.772  0.2657 -0.0431 -0.0167
 4561W        W23308  14.949   9.889  24.735 -0.0707  0.0582  0.0566
 4562W        W23309  13.204  20.202   9.454  0.1664 -0.3139  0.3082
 4563W        W23310  11.043  22.411   6.107  0.0264  0.0381  0.1553
 4564W        W23311  29.138  10.152  18.469 -0.0514 -0.3119 -0.0915
 4565W        W23312   2.175   7.318  18.244  0.0923  0.1129  0.1521
 4566W        W23313  16.870   8.668  25.392  0.1073  0.0607 -0.2669
 4567W        W23314  10.593  17.087   4.729 -0.2115  0.2260  0.0543
 4568W        W23315  30.322  32.938  10.507 -0.3863 -0.1659  0.3245
 4569W        W23316  19.084   6.013  22.790 -0.1330 -0.1279  0.1026
 4570W        W23317   1.888  27.589   0.754 -0.0829  0.1468  0.0865
 4571W        W23318   4.739   4.357   5.833 -0.2746  0.1193 -0.1672
 4572W        W23319  11.173  18.201  25.747  0.1238  0.1938 -0.0731
 4573W        W23320  22.698  21.339  13.186 -0.1635 -0.0715 -0.1246
 4574W        W23321   5.148  25.383   4.923 -0.1036 -0.1514 -0.0988
 4575W        W23322  16.003   9.265   7.991  0.0074 -0.0698  0.0558
 4576W        W23323   4.785  28.492  10.037 -0.1039 -0.0622 -0.0560
 4577W        W23324  17.057   3.429  20.294 -0.0312  0.1085 -0.0688
 4578W        W23325  30.056  29.363  23.664  0.2236 -0.2512 -0.0407
 4579W        W23326  29.536   7.744   1.598  0.0021 -0.0423 -0.0638
 4580W        W23327  32.122   6.618   3.150  0.2233 -0.1495 -0.1404
 4581W        W23328  20.709  34.381   4.355 -0.1578  0.0757  0.2471
 4582W        W23329  11.024  12.000  20.777  0.0392  0.1835 -0.2096
 4583W        W23330  10.557  21.688  11.906 -0.2514 -0.0511 -0.0066
 4584W        W23331   7.479   9.680   9.995 -0.0051 -0.0676  0.1900
 4585W        W23332  20.150   5.899  21.760  0.1304  0.0082 -0.3170
 4586W        W23333  32.319   0.402  25.639  0.0531  0.0285  0.1063
 4587W        W23334   0.807  31.453   1.306  0.0110 -0.1891 -0.1574
 4588W        W23335  12.992  34.801   5.108 -0.0996  0.2146 -0.2680
 4589W        W23336   6.070  32.868   9.392 -0.0497 -0.1113 -0.2212
 4590W        W23337   7.176   4.576  11.710  0.2136 -0.1487 -0.0090
 4591W        W23338   9.333  19.741   2.126 -0.0463 -0.0037 -0.2020
 4592W        W23339  19.664   8.121   3.116 -0.0776  0.2290 -0.2758
 4593W        W23340  15.859  22.700   2.309  0.0314 -0.2304  0.2769
 4594W        W23341  31.066  10.476  21.301 -0.1321  0.1463  0.2676
 4595W        W23342  33.600  31.019  17.286  0.1211 -0.1260  0.3872
 4596W        W23343  18.094  19.255   9.493 -0.2475  0.0445  0.3133
 4597W        W23344  19.797   2.138  19.028  0.0051  0.1906  0.0115
 4598W        W23345  12.340   3.151   2.069 -0.1012 -0.0189 -0.0358
 4599W        W23346  20.604  29.084   0.203 -0.1523  0.1551 -0.0015
 4600W        W23347   7.753  10.882  26.029  0.2111 -0.4007  0.0027
 4601W        W23348  15.648  17.013  22.162  0.0687 -0.0936 -0.1243
 4602W        W23349  30.691  16.786  20.224  0.0908  0.1984 -0.1141
 4603W        W23350  34.702  25.076  14.567  0.0542 -0.2536 -0.0278
 4604W        W23351  26.517  23.942   0.179 -0.1932  0.1540  0.1061
 4605W        W23352  33.662   8.465  18.984  0.2097 -0.3382 -0.0972
 4606W        W23353  25.617  22.209  19.264  0.3196 -0.1261  0.2672
 4607W        W23354  29.459   4.420  14.875  0.2069  0.0415 -0.1646
 4608W        W23355  14.637  27.642  15.973 -0.2343  0.3045 -0.0544
 4609W        W23356  13.168   4.840   5.615 -0.1061  0.1331 -0.1572
 4610W        W23357  13.424  10.554   5.180  0.2371 -0.1546  0.1455
 4611W        W23358  13.790  13.765   9.349 -0.0147 -0.0797 -0.0325
 4612W        W23359  13.795  14.236  10.586  0.0223  0.1700 -0.0577
 4613W        W23360  29.454  18.563  21.272 -0.0315 -0.0635 -0.0829
 4614W        W23361  21.986  35.283   0.981  0.2506  0.0166 -0.0058
 4615W        W23362   0.648  22.337   9.296  0.0872 -0.1310  0.2585
 4616W        W23363  21.563   6.138  25.401 -0.2491  0.0730 -0.0315
 4617W        W23364  16.745  22.790   6.367  0.1411 -0.1493  0.4576
 4618W        W23365  16.002   1.123   3.407 -0.1861  0.0555 -0.0724
 4619W        W23366  25.706  13.798  19.033 -0.3600 -0.4618  0.0547
 4620W        W23367   2.929   1.837   8.199  0.3782 -0.1270 -0.0443
 4621W        W23368  17.453   1.374  17.993  0.0686  0.0098 -0.0383
 4622W        W23369  10.024  12.881  19.587 -0.0795 -0.2485  0.0546
 4623W        W23370  34.714   5.266   5.296 -0.0533 -0.0004  0.1130
 4624W        W23371   8.159   8.592   5.219  0.0928 -0.1498 -0.0984
 4625W        W23372  14.817  30.078  11.275  0.0039  0.3248 -0.0162
 4626W        W23373  34.701   5.948  22.885  0.0809  0.0778 -0.2645
 4627W        W23374   6.569  16.586  20.560  0.1035 -0.2369  0.0239
 4628W        W23375   7.139   8.981   5.054 -0.0233  0.0264  0.1434
 4629W        W23376  27.676  24.710   8.136 -0.0815  0.1201  0.1409
 4630W        W23377  16.160  21.444  12.760 -0.3402 -0.1212  0.0228
 4631W        W23378  21.147   7.503  25.534  0.1258  0.1940 -0.2367
 4632W        W23379  13.934  27.155   6.078  0.0092 -0.0755 -0.0018
 4633W        W23380   7.125   7.619   5.609 -0.1617  0.1956 -0.1399
 4634W        W23381   7.948  20.975  13.788 -0.1650 -0.1804 -0.3553
 4635W        W23382  26.748  28.796  20.800  0.2170  0.1239  0.0529
 4636W        W23383   8.464  31.961  11.551 -0.2762 -0.2799  0.2200
 4637W        W23384  33.859  33.530   4.563  0.0726  0.1477 -0.0183
 4638W        W23385   8.232   3.685  11.783  0.1334  0.2978 -0.2285
 4639W        W23386  16.845  30.898   6.950 -0.0911 -0.2504  0.1121
 4640W        W23387  18.248  25.929  23.443 -0.1143  0.2347  0.1890
 4641W        W23388  17.632  11.726  23.156  0.2087  0.0033 -0.4476
 4642W        W23389  19.429   1.207  15.991  0.0951  0.1046 -0.3105
 4643W        W23390  17.162   4.067  21.903 -0.3996  0.0730  0.0181
 4644W        W23391  14.925  17.857  21.153 -0.2147  0.0229  0.1193
 4645W        W23392  10.922  34.246  10.759 -0.1164 -0.3615 -0.1466
 4646W        W23393  10.566  20.739   1.137  0.1410 -0.1568  0.1391
 4647W        W23394  31.165   8.363  21.350  0.1228  0.0785 -0.1227
 4648W        W23395  22.580  22.539   3.722  0.3310 -0.0554 -0.0382
 4649W        W23396   2.845  15.200  15.136  0.3246 -0.0557  0.3328
 4650W        W23397  23.772  17.826  14.103  0.1192  0.1535  0.0093
 4651W        W23398  25.949   6.233  20.156 -0.0770 -0.0232  0.0018
 4652W        W23399  24.027   1.751  22.789 -0.1882  0.1862 -0.1186
 4653W        W23400  17.765  10.278  10.893  0.1516 -0.0235  0.2168
 4654W        W23401  21.709  31.683  19.087 -0.0135 -0.0474  0.1985
 4655W        W23402  32.981  12.660  20.975  0.2097 -0.0240 -0.1950
 4656W        W23403  16.000  17.585  22.780 -0.1418  0.1373  0.1252
 4657W        W23404   6.005  23.468  25.949  0.2216  0.1698  0.2747
 4658W        W23405  13.118  23.449  10.433 -0.0053  0.0165  0.0757
 4659W        W23406  23.168  27.357   2.884 -0.0582 -0.2357 -0.0051
 4660W        W23407  31.872  35.291   2.141 -0.1371 -0.1528 -0.1273
 4661W        W23408   7.698  33.396  13.173  0.0858  0.1427  0.0941
 4662W        W23409  29.970  15.074   7.736  0.1558  0.0422  0.2317
 4663W        W23410  35.183  10.072  13.385  0.0123  0.1176  0.0025
 4664W        W23411  13.832  12.721  10.022 -0.2342  0.0084 -0.0849
 4665W        W23412  34.071  19.696   7.247 -0.1812 -0.2001  0.0988
 4666W        W23413  20.589   2.186   5.815  0.0199 -0.1900 -0.2869
 4667W        W23414   8.864  14.521  19.959  0.0205  0.2245 -0.0780
 4668W        W23415   3.115  30.208  12.017  0.1196 -0.0060 -0.2372
 4669W        W23416   8.042  31.633  25.888 -0.3091 -0.2860  0.2714
 4670W        W23417   6.594   8.804  22.690  0.2231 -0.1470 -0.0084
 4671W        W23418   4.181  29.948  22.664 -0.1105 -0.0298 -0.2000
 4672W        W23419  12.028  20.678  21.538  0.0181  0.1796 -0.2070
 4673W        W23420  32.941  10.780   8.709 -0.1234  0.0750  0.3425
 4674W        W23421  14.954   3.878  22.890 -0.0387 -0.0508  0.1446
 4675W        W23422  26.620   4.201   3.072 -0.0497 -0.0624  0.1929
 4676W        W23423  32.790   7.692   0.598 -0.2376 -0.0317 -0.0456
 4677W        W23424  22.865   6.522  15.263 -0.2899  0.0362 -0.0668
 4678W        W23425   1.552   8.641   2.888  0.0980  0.1238 -0.0152
 4679W        W23426  11.048   5.798   7.302 -0.0795  0.1512 -0.0957
 4680W        W23427  28.649   1.386  26.103 -0.3489 -0.4140 -0.6723
 4681W        W23428   8.398  25.533   3.205 -0.1023 -0.1094 -0.2656
 4682W        W23429   5.180   1.697  22.724  0.0073 -0.0559 -0.3885
 4683W        W23430  28.408  23.681  11.475 -0.2065  0.3577 -0.0109
 4684W        W23431  13.088  24.207  25.447  0.1977 -0.0204  0.0807
 4685W        W23432   8.470  24.943  25.244 -0.3519  0.0432 -0.0661
 4686W        W23433  15.117  23.299   8.151 -0.1092 -0.2102 -0.1132
 4687W        W23434  31.237  12.676  24.208 -0.2870 -0.0081 -0.1125
 4688W        W23435  10.907   1.880  24.255  0.0712 -0.0848 -0.3342
 4689W        W23436  21.395  17.443  20.641  0.2435 -0.3462 -0.7435
 4690W        W23437  14.343   2.639  18.808  0.0843 -0.1648  0.5342
 4691W        W23438  23.812  30.006  11.475  0.0409 -0.0821 -0.1859
 4692W        W23439  12.021  28.978  25.317 -0.0989 -0.1202  0.1384
 4693W        W23440  26.249  27.062  12.453 -0.1171 -0.0633  0.1021
 4694W        W23441  15.368   9.127   8.652  0.2555 -0.0576 -0.3686
 4695W        W23442  28.921  31.707  24.264  0.0792  0.1454  0.3021
 4696W        W23443  28.428   6.094  14.933  0.2356 -0.1608  0.0427
 4697W        W23444   2.703  26.567  21.207 -0.2687 -0.0343  0.2085
 4698W        W23445  31.677  11.828  13.146 -0.0234 -0.0344 -0.1699
 4699W        W23446   9.570   0.354   5.228  0.2650 -0.1397 -0.1537
 4700W        W23447  31.975  27.547  10.958 -0.2238 -0.0712 -0.4343
 4701W        W23448  10.782  33.509  15.048  0.0711 -0.2882 -0.1331
 4702W        W23449  11.346  25.244  23.535  0.0502  0.0398  0.1928
 4703W        W23450  33.115   5.293   5.139  0.0223 -0.2441  0.4303
 4704W        W23451  33.773  13.355   9.677  0.1489  0.2757  0.1216
 4705W        W23452  27.513  17.576  10.800 -0.1956  0.1121 -0.1693
 4706W        W23453   0.292  25.471  17.833  0.0906 -0.2771  0.1657
 4707W        W23454  29.832   2.605  23.596 -0.3434  0.2690  0.0494
 4708W        W23455  14.936  17.995  10.479 -0.6094  0.0842 -0.1308
 4709W        W23456  16.723   8.501   8.426  0.0913  0.1035  0.0948
 4710W        W23457  25.651  26.035  22.139 -0.0206 -0.3548 -0.3130
 4711W        W23458  28.358  31.337  23.908  0.1576  0.4337  0.0992
 4712W        W23459  15.506   1.332   1.479  0.2133 -0.1499 -0.2061
 4713W        W23460  30.858  25.875  24.805  0.2187  0.0452  0.1627
 4714W        W23461   7.888  22.889   6.565  0.1295  0.1756  0.0674
 4715W        W23462  33.316  31.486   0.444 -0.0316  0.2160  0.0006
 4716W        W23463  35.063   6.481  21.744  0.4010 -0.3536 -0.1647
 4717W        W23464  32.384  18.617  25.809  0.2602 -0.0311 -0.0253
 4718W        W23465  25.265  14.606  20.068 -0.0597 -0.2037 -0.1951
 4719W        W23466  22.501  16.495  15.260  0.1550 -0.2896 -0.0715
 4720W        W23467  27.678  31.434  11.084 -0.2252 -0.1465 -0.4766
 4721W        W23468   4.983  32.345   2.171  0.0181  0.0269  0.2557
 4722W        W23469   9.713   0.482   6.916 -0.0679 -0.0472  0.1568
 4723W        W23470   4.033  15.977  18.212  0.1349 -0.2127  0.0863
 4724W        W23471  10.357  28.300   4.980  0.0395 -0.2766  0.1893
 4725W        W23472  31.396  19.155  13.913 -0.0758  0.2208  0.2064
 4726W        W23473  27.357  20.654   6.318 -0.0293 -0.2534  0.1271
 4727W        W23474  30.363  19.768  19.251 -0.2617  0.1174  0.1871
 4728W        W23475  13.220  19.156   5.774  0.3913  0.2672  0.1082
 4729W        W23476   6.521  16.701  21.041 -0.0702 -0.0494 -0.0257
 4730W        W23477  30.469  20.712   6.791 -0.0098 -0.0960 -0.0437
 4731W        W23478  15.217  33.588  21.038 -0.0602  0.0826  0.0409
 4732W        W23479   7.061  19.397  20.361  0.0328  0.3289  0.2545
 4733W        W23480  12.402  31.956   7.230  0.2091 -0.0572 -0.0784
 4734W        W23481  17.744  25.048   4.654  0.0524  0.0839  0.0074
 4735W        W23482  33.672   2.444   3.006  0.3904  0.2356  0.0908
 4736W        W23483   6.157  25.341   2.868  0.0679  0.0763  0.0832
 4737W        W23484  18.697  34.678  20.593 -0.0538 -0.2898  0.2368
 4738W        W23485   7.101   0.223  13.470 -0.3965 -0.0310 -0.1842
 4739W        W23486  33.001  18.309   8.299 -0.3248 -0.1193 -0.0516
 4740W        W23487  33.818  13.330  12.006 -0.1665 -0.0443 -0.2997
 4741W        W23488   6.573  31.348   9.445 -0.3871  0.1122  0.0317
 4742W        W23489  20.800  27.756   8.113 -0.0700  0.2493 -0.3096
 4743W        W23490  20.992  32.553  22.448 -0.0314 -0.1058  0.2513
 4744W        W23491   0.825  34.032   2.475 -0.2569  0.1618 -0.2644
 4745W        W23492  13.604  13.546  11.325 -0.3125  0.0325  0.0792
 4746W        W23493   9.722  14.693  20.304  0.2118 -0.2239  0.1418
 4747W        W23494   6.567  28.630  23.431  0.1138 -0.1430 -0.0307
 4748W        W23495  10.744  12.837  24.235  0.1142  0.1243 -0.0468
 4749W        W23496  18.483  18.830   2.221  0.0406  0.1502  0.1608
 4750W        W23497  12.160  11.358  12.181  0.1975 -0.0835 -0.3107
 4751W        W23498  29.178  22.000  10.726  0.0213 -0.0218 -0.1026
 4752W        W23499  24.634   5.476  21.751  0.4668  0.0338  0.3683
 4753W        W23500  21.819   1.728   4.579 -0.0306 -0.1560  0.1715
 4754W        W23501  31.904   0.491   3.552  0.1753  0.1688  0.0673
 4755W        W23502  29.324  13.565  22.533 -0.4946 -0.0406 -0.0322
 4756W        W23503  19.896  13.915   3.422  0.0238  0.0382 -0.1062
 4757W        W23504  27.478  27.412  11.550  0.1765 -0.0394 -0.2469
 4758W        W23505  18.557   5.283   6.036  0.1246 -0.3140 -0.0106
 4759W        W23506  22.003   7.929  20.649  0.1876 -0.0964 -0.2397
 4760W        W23507  19.021  19.427  10.580  0.0500  0.0528  0.1670
 4761W        W23508  10.742  28.126   9.907 -0.0789  0.0012 -0.0344
 4762W        W23509  27.922  13.090  14.568  0.0738  0.0756  0.0419
 4763W        W23510   1.655  31.990  24.067 -0.1813  0.1911  0.2773
 4764W        W23511   6.977   9.749  10.218 -0.3612 -0.0205 -0.1130
 4765W        W23512  32.469  14.481  24.076 -0.0388  0.3143 -0.0733
 4766W        W23513   1.258  17.010  21.002 -0.1607 -0.0936  0.1049
 4767W        W23514   4.393  31.531  22.671 -0.1923  0.1801 -0.3503
 4768W        W23515  20.460  27.786  16.644 -0.0964  0.0921 -0.0685
 4769W        W23516  29.030  21.385  13.036 -0.0986 -0.2678  0.0848
 4770W        W23517   8.797   8.657  11.470  0.0975 -0.0799  0.0722
 4771W        W23518  27.530  11.833  24.930 -0.2002  0.0560  0.0199
 4772W        W23519  20.390  21.119  22.221 -0.0715  0.1057  0.1922
 4773W        W23520   8.733   8.635  12.649 -0.3556  0.1438 -0.1093
 4774W        W23521   5.938  32.106  23.415 -0.2310  0.1208 -0.1206
 4775W        W23522  17.311  25.152   6.494 -0.1585 -0.0211  0.0556
 4776W        W23523  12.832  25.431  16.078  0.1635  0.1253 -0.0396
 4777W        W23524   0.105  28.735   1.639  0.0611  0.2090 -0.0261
 4778W        W23525  26.718   2.615   1.967  0.2844 -0.1275  0.0730
 4779W        W23526  25.664  33.382   4.751 -0.2190 -0.1748 -0.1396
 4780W        W23527  33.891  24.486  17.975 -0.0683 -0.2348 -0.4190
 4781W        W23528   4.518   9.149  22.685  0.0514 -0.0033  0.2214
 4782W        W23529  27.731  33.601   5.664 -0.1412  0.0017 -0.2526
 4783W        W23530  19.029  16.172  19.058 -0.0690  0.1245 -0.0251
 4784W        W23531  12.570  33.639  24.370  0.1157  0.0954  0.1601
 4785W        W23532   0.236  31.200  21.938  0.0664  0.1262 -0.3788
 4786W        W23533  32.682   2.238  22.545 -0.2655  0.2556 -0.0371
 4787W        W23534   8.674  33.893  13.802 -0.0743 -0.3435  0.0097
 4788W        W23535  15.732  22.636   7.499 -0.0023  0.0514 -0.5210
 4789W        W23536   4.887  21.908   5.097 -0.2459  0.0694 -0.0307
 4790W        W23537  31.039  15.492  14.394  0.1002 -0.1302  0.0518
 4791W        W23538  13.390  29.812  22.159 -0.1272  0.0093  0.0951
 4792W        W23539  32.254  22.586   8.193 -0.2545 -0.0484  0.1490
 4793W        W23540  23.293  10.140  25.199  0.0137  0.1888 -0.1621
 4794W        W23541   5.358  34.748  10.985  0.0776 -0.2369  0.0168
 4795W        W23542  34.925  10.912  14.340  0.1252 -0.0503  0.0401
 4796W        W23543   4.986  28.457  22.347  0.0713  0.2129  0.0784
 4797W        W23544  32.681  13.393  13.263 -0.0349 -0.3473 -0.0712
 4798W        W23545  25.975   5.844  20.501  0.2004 -0.0601  0.0103
 4799W        W23546  14.055   2.576   1.310  0.2334 -0.0687  0.0779
 4800W        W23547  16.172  33.062  22.497  0.2040 -0.0012 -0.0031
 4801W        W23548   2.540   3.527   6.375 -0.0777 -0.1797  0.1964
 4802W        W23549  10.524   2.013  11.510 -0.0057  0.0001  0.0306
 4803W        W23550  21.185   8.381   7.305  0.0666  0.3526  0.1934
 4804W        W23551  10.648   6.921   8.158  0.2798  0.3213  0.0591
 4805W        W23552  32.477  33.901  24.556  0.0884 -0.2143  0.3143
 4806W        W23553  33.421   5.430   1.179  0.0727  0.0628  0.0214
 4807W        W23554  19.029  33.050  25.737 -0.0079  0.0401  0.1049
 4808W        W23555  19.472  13.035   5.958  0.0402  0.1187  0.1853
 4809W        W23556  24.332   6.174  15.810 -0.0332  0.1286  0.0512
 4810W        W23557  29.520   6.908  22.818  0.0684  0.1123 -0.0172
 4811W        W23558   7.808   1.231  23.337 -0.0493  0.1938  0.0587
 4812W        W23559  30.476  26.582  10.861  0.2062  0.0450  0.0486
 4813W        W23560   5.020  27.331   1.872  0.0833 -0.0494  0.1106
 4814W        W23561   5.456   3.707  18.395 -0.0803 -0.2597  0.0494
 4815W        W23562  31.126   4.378  17.932 -0.2079 -0.1902 -0.2694
 4816W        W23563   7.841  26.342   7.527 -0.1552 -0.0638  0.0727
 4817W        W23564   9.089  29.189  16.509 -0.3093 -0.0634  0.2394
 4818W        W23565  23.919  31.899  11.262  0.3615 -0.0885 -0.4182
 4819W        W23566  29.585  19.007   6.572  0.1573 -0.1571 -0.0107
 4820W        W23567  14.447  19.763  13.632 -0.1559  0.1992  0.1033
 4821W        W23568   4.796   7.507   8.261 -0.1323 -0.0999 -0.0767
 4822W        W23569  16.899   0.794  18.109 -0.1339 -0.0982  0.0749
 4823W        W23570  29.621  34.343  14.359 -0.0397 -0.2013 -0.0948
 4824W        W23571   3.331  16.257  17.550 -0.0360 -0.3208 -0.3283
 4825W        W23572  10.796  13.400  11.168  0.1970 -0.0419  0.1061
 4826W        W23573   9.011   8.257  12.815  0.1863 -0.3465 -0.1089
 4827W        W23574  11.842  15.229  12.025  0.1289 -0.0138 -0.0161
 4828W        W23575  19.951  13.126   7.751  0.3418 -0.2359  0.1125
 4829W        W23576  19.406  32.000  19.214 -0.0971 -0.0993 -0.2468
 4830W        W23577  13.487  20.656  13.191 -0.2180  0.1350 -0.0240
 4831W        W23578  31.908   8.067  18.778 -0.1900 -0.0228  0.4115
 4832W        W23579  31.405  16.079  23.509  0.1840  0.0739  0.2122
 4833W        W23580   9.367  24.047  23.717 -0.4926  0.3597 -0.0992
 4834W        W23581  25.426  31.122  13.677 -0.0830 -0.0362 -0.2154
 4835W        W23582  19.554  16.723   1.415  0.0114 -0.3315 -0.0736
 4836W        W23583   6.198  27.405   9.386 -0.0717 -0.1041 -0.0063
 4837W        W23584   2.531  14.391  21.821  0.0100  0.1199  0.1728
 4838W        W23585   2.113   1.613  15.633 -0.0129  0.3121  0.1260
 4839W        W23586   4.599  32.900  21.159 -0.0962  0.0401 -0.1956
 4840W        W23587  17.016  10.205   1.856  0.1293 -0.0199 -0.3952
 4841W        W23588  10.047  10.386  11.827 -0.0401  0.3949  0.0022
 4842W        W23589  27.769  19.687  20.767 -0.1988  0.3055 -0.1003
 4843W        W23590  15.297  35.306   2.277 -0.0445  0.0079  0.2401
 4844W        W23591   4.247  30.149  18.939 -0.0591  0.0914  0.0357
 4845W        W23592  11.920  30.412   3.738 -0.0294  0.1399 -0.2115
 4846W        W23593   6.894  15.737  23.474  0.2890  0.0113  0.2089
 4847W        W23594  26.209  28.142  21.877  0.1370 -0.0981  0.1613
 4848W        W23595  17.570  34.424   6.720 -0.0654 -0.0568  0.0445
 4849W        W23596   4.309   1.718  20.428  0.1784  0.0826  0.0372
 4850W        W23597  30.011   1.101  21.669  0.0872 -0.1500  0.0157
 4851W        W23598   1.711  24.925  20.054  0.2477  0.2061  0.1564
 4852W        W23599  28.877  17.936  19.818  0.1018 -0.1053  0.0391
 4853W        W23600  10.561   9.926   9.418 -0.3679  0.0852  0.1526
 4854W        W23601  30.628  22.832  21.205  0.1562  0.3285 -0.0840
 4855W        W23602  28.231  13.992   5.330 -0.0142 -0.0409  0.0196
 4856W        W23603  27.773  22.757  13.274 -0.2557 -0.1475  0.1483
 4857W        W23604  34.841  24.527  19.928  0.0983 -0.1081  0.1752
 4858W        W23605  15.129  12.954   5.861  0.1794 -0.0581 -0.1741
 4859W        W23606  12.984   8.270   6.105 -0.0114 -0.0173  0.0443
 4860W        W23607   6.284  11.158   6.275  0.1606 -0.1291  0.0674
 4861W        W23608   2.700  18.218  16.605 -0.3819  0.0121  0.0293
 4862W        W23609  14.924   1.980   5.143  0.1792  0.2694  0.0683
 4863W        W23610  31.293   0.371   5.660 -0.0650  0.0807 -0.0682
 4864W        W23611  27.542  13.472   7.054  0.2186  0.1306  0.0416
 4865W        W23612   4.419  23.919   2.738  0.0708 -0.1273  0.1308
 4866W        W23613  17.476   1.382   3.326  0.0418 -0.2117 -0.0449
 4867W        W23614   4.930   0.639   3.048  0.0185  0.2722 -0.3379
 4868W        W23615  12.023  14.212   2.342  0.0341 -0.0148  0.0843
 4869W        W23616  32.297  19.084  21.726 -0.0141 -0.1897 -0.0932
 4870W        W23617  24.907   8.548  24.588  0.2593  0.2790 -0.0028
 4871W        W23618  35.382  28.780  19.187 -0.1509 -0.2654  0.2083
 4872W        W23619  25.268   9.406   3.007 -0.2542  0.1695 -0.1656
 4873W        W23620   4.496  23.242  19.761  0.1306 -0.0536  0.3329
 4874W        W23621  24.857   9.072  14.675  0.3847  0.1175  0.0233
 4875W        W23622  11.688  28.126  12.960  0.1865  0.2131  0.0723
 4876W        W23623  15.315   8.140   4.987 -0.1169  0.7009  0.0264
 4877W        W23624   9.106  26.809  16.266 -0.2400 -0.0690 -0.3527
 4878W        W23625  34.950  26.733  26.155 -0.0180 -0.5529  0.2391
 4879W        W23626  28.407  25.384   9.036  0.1504  0.1058  0.1640
 4880W        W23627  14.093  14.671  12.951  0.0597  0.1792  0.0820
 4881W        W23628  18.483  20.148   9.912  0.0766 -0.0450 -0.1480
 4882W        W23629   3.067  27.129  21.841  0.0861 -0.0534 -0.2649
 4883W        W23630   0.043  11.754  10.264 -0.1223 -0.0283  0.1798
 4884W        W23631   6.721   8.124   3.037  0.0081 -0.3011 -0.1263
 4885W        W23632  16.545  25.698   4.082 -0.5436 -0.0832  0.4153
 4886W        W23633  12.312  28.759  26.191  0.0594 -0.0164 -0.3338
 4887W        W23634  30.188  16.129   0.094 -0.0641 -0.0421  0.0515
 4888W        W23635  25.969   0.091   3.065  0.2385 -0.0360 -0.2323
 4889W        W23636  33.485  10.452  25.097  0.1112 -0.1292 -0.0389
 4890W        W23637   3.683  11.445  22.288 -0.0738  0.0478  0.0023
 4891W        W23638   2.065  22.061   0.359 -0.1581  0.0796  0.0349
 4892W        W23639   6.540  26.322   3.429  0.0206  0.1587  0.0737
 4893W        W23640  29.170  24.485  25.810  0.2887  0.1271 -0.2733
 4894W        W23641  23.506   5.509   2.963  0.1914 -0.1612  0.1051
 4895W        W23642   8.577  15.385   8.704 -0.2510  0.1686 -0.1671
 4896W        W23643   1.156  21.397  10.973 -0.0191  0.1592 -0.1737
 4897W        W23644  28.772   8.688  10.955  0.0915  0.1629 -0.0120
 4898W        W23645  34.396  22.256   7.836 -0.2851 -0.3023  0.0926
 4899W        W23646  30.887  31.647  12.213  0.1202  0.2293 -0.1432
 4900W        W23647  11.346   2.459   1.729 -0.0379 -0.2696  0.0299
 4901W        W23648  11.275  21.616  25.698  0.0774  0.0887 -0.1611
 4902W        W23649  10.619  10.614  10.782  0.0494 -0.2057  0.0322
 4903W        W23650  15.357  10.625   1.176 -0.0183  0.1605 -0.0179
 4904W        W23651  26.586  13.498  23.473  0.1051  0.0465  0.3000
 4905W        W23652  14.128  21.945   1.301  0.1782 -0.1241  0.0200
 4906W        W23653   4.806  10.939   0.565 -0.1834 -0.3412  0.2050
 4907W        W23654  26.900  13.398   6.708 -0.2508 -0.0098 -0.0583
 4908W        W23655  19.223  16.114  25.924 -0.2217 -0.0907 -0.1728
 4909W        W23656  17.139   9.687   9.642  0.0218  0.1151  0.1478
 4910W        W23657  13.116  21.937   2.525 -0.2863 -0.1581  0.1463
 4911W        W23658  10.211  28.619  15.150  0.0562 -0.0174  0.0823
 4912W        W23659   7.287   5.213  10.786 -0.0889 -0.1360  0.3896
 4913W        W23660   2.369  34.378  22.525 -0.1510  0.0791  0.1010
 4914W        W23661   7.300  10.523  20.601  0.0326  0.1333 -0.0038
 4915W        W23662   9.053   6.640  19.209  0.0352 -0.4351 -0.2994
 4916W        W23663   8.289   2.145  25.747  0.1009 -0.0384  0.0185
 4917W        W23664  10.479  31.683  11.613  0.4415  0.0299 -0.0211
 4918W        W23665   5.144  31.426  12.224  0.5226  0.0322 -0.1726
 4919W        W23666  11.236  29.131  17.261  0.0183  0.3090  0.0203
 4920W        W23667  35.360  28.975  25.124  0.1883 -0.1503 -0.4166
 4921W        W23668  25.608  10.523  22.375 -0.4813  0.1831  0.0427
 4922W        W23669  13.568   2.803  10.419 -0.0781 -0.1063  0.2238
 4923W        W23670  10.746  17.057  13.391  0.1721 -0.1149 -0.2824
 4924W        W23671  26.062  33.269  24.167 -0.1206 -0.1007  0.0036
 4925W        W23672  30.083  15.298  24.088  0.2480  0.0636 -0.0840
 4926W        W23673  26.552  31.642   2.419  0.4846 -0.0974 -0.1552
 4927W        W23674  16.727   8.053  11.720 -0.0028 -0.2108  0.2629
 4928W        W23675  22.807  15.529  14.558 -0.0166  0.1447  0.2551
 4929W        W23676   8.496  29.828  11.283 -0.2334 -0.2288  0.2562
 4930W        W23677  31.726   2.059  21.031  0.0018 -0.0335  0.0289
 4931W        W23678  11.655  28.212  13.737 -0.4246 -0.1946  0.2840
 4932W        W23679  33.661  22.982  15.131 -0.2270  0.3025 -0.0293
 4933W        W23680  21.495  23.896  17.010 -0.3884 -0.0975  0.4018
 4934W        W23681  22.889   5.818   0.028  0.0350 -0.2461 -0.0138
 4935W        W23682  20.324   0.394   0.056 -0.0302  0.0993 -0.0959
 4936W        W23683   1.516   4.969  23.792  0.2189  0.1601 -0.2549
 4937W        W23684  15.856  13.863  10.368  0.0812 -0.0014 -0.0048
 4938W        W23685  23.808   6.669  16.925 -0.0048  0.3524  0.0795
 4939W        W23686  14.221  19.844   0.236  0.0902  0.1204 -0.0821
 4940W        W23687  23.501  19.882   0.125 -0.2013  0.0066  0.3439
 4941W        W23688  15.768  29.085   5.707  0.1165 -0.0206  0.0148
 4942W        W23689  14.859   0.932   6.471 -0.3873 -0.1866  0.1126
 4943W        W23690  24.689  11.419  20.531  0.1414 -0.1819  0.1405
 4944W        W23691  28.519  25.263  20.374  0.0361 -0.1251 -0.4403
 4945W        W23692  32.218  11.613  19.282  0.0413  0.0583 -0.1477
 4946W        W23693  19.842   4.811  25.677  0.0251  0.0730  0.4176
 4947W        W23694  25.037  16.321  20.323 -0.0960  0.0993  0.0896
 4948W        W23695  23.081   3.731  15.031 -0.2279  0.2477 -0.0683
 4949W        W23696  33.847  24.414  20.756 -0.3008 -0.1514  0.0253
 4950W        W23697   6.134   8.401  19.552 -0.0825 -0.0877 -0.0452
 4951W        W23698  22.596   1.951   3.434  0.3836 -0.2543  0.1956
 4952W        W23699  23.664   0.598  17.196 -0.0887 -0.3246  0.1547
 4953W        W23700   7.197   7.192  25.748  0.2990 -0.0720  0.3802
 4954W        W23701  12.203  25.076  13.054  0.1413 -0.0162 -0.1335
 4955W        W23702  25.169   8.200  20.277  0.1828  0.2479 -0.1567
 4956W        W23703  28.262  18.250  22.934 -0.1176 -0.0694  0.1642
 4957W        W23704  15.112  21.083   5.124  0.1059  0.2098  0.0438
 4958W        W23705  29.782  16.424  19.762  0.0924 -0.0112  0.0427
 4959W        W23706   5.826   9.496  25.879  0.1485  0.0706  0.0934
 4960W        W23707   6.905  30.291  25.506 -0.1768  0.0372 -0.4633
 4961W        W23708  27.713   4.704  14.701 -0.0089  0.1549  0.2605
 4962W        W23709  26.568   1.003  17.148  0.1250  0.0742 -0.2611
 4963W        W23710  12.543  16.558  25.351  0.0516  0.3603 -0.0300
 4964W        W23711   8.644  19.378   3.441  0.1913  0.0813 -0.2319
 4965W        W23712   7.803   4.651  19.318 -0.2136  0.0546 -0.2591
 4966W        W23713  27.708  23.047  20.434 -0.0723  0.0132 -0.1212
 4967W        W23714  18.777  23.784   5.422 -0.0419  0.1641  0.2872
 4968W        W23715  19.205  30.285   8.545  0.0723 -0.0068 -0.1777
 4969W        W23716  28.101   1.702  12.903 -0.1556 -0.1799 -0.0074
 4970W        W23717  27.324  10.533   1.502 -0.0699  0.3969 -0.2141
 4971W        W23718  28.224  17.756  13.011 -0.1392 -0.0240  0.1825
 4972W        W23719  30.584  23.901  19.607  0.2598  0.2188 -0.1560
 4973W        W23720  19.006  11.096  19.391  0.1073 -0.5654 -0.3245
 4974W        W23721   6.855  14.055  17.060  0.3363  0.0975  0.1691
 4975W        W23722   9.776  32.144  20.971 -0.0439 -0.0049 -0.1463
 4976W        W23723   4.391   3.455  10.776  0.0684  0.2864 -0.1474
 4977W        W23724  24.979   6.862  20.892  0.1192 -0.1111  0.1140
 4978W        W23725  31.635  19.984  11.391  0.2141  0.0413  0.2897
 4979W        W23726  20.627  31.712   1.123 -0.1319  0.1452 -0.2812
 4980W        W23727  31.098  10.878  22.908 -0.1073 -0.0192 -0.0636
 4981W        W23728  25.986  17.514  16.603  0.0080  0.1419  0.0967
 4982W        W23729  15.702  13.067  23.134  0.3271  0.2106  0.1517
 4983W        W23730   8.970  31.709  25.464  0.0644 -0.1041  0.0511
 4984W        W23731  13.727  16.714   3.455 -0.0878  0.3157  0.1237
 4985W        W23732  26.325  32.332  13.500  0.0842  0.2084 -0.0828
 4986W        W23733  30.740  15.948  24.076  0.1051  0.0024  0.3883
 4987W        W23734   2.638  31.544   1.304  0.1607 -0.3079 -0.1937
 4988W        W23735  12.403   5.518  21.586 -0.2866  0.0640 -0.1219
 4989W        W23736  19.610  31.375  20.995  0.0848 -0.1379  0.0550
 4990W        W23737   5.154  30.941   6.779  0.0852  0.0634 -0.2314
 4991W        W23738   4.771   3.295  24.545  0.1814  0.0707 -0.0901
 4992W        W23739   6.246   6.407  18.863 -0.1361  0.2287 -0.0199
 4993W        W23740  32.624  28.191   5.021  0.0353 -0.3740 -0.1003
 4994W        W23741  27.506  21.655   6.573  0.0391  0.1682 -0.3754
 4995W        W23742  17.313   5.797   1.234 -0.0545 -0.3890  0.1450
 4996W        W23743  32.193  16.333   8.539 -0.2792  0.1396  0.3775
 4997W        W23744  20.410  34.848  25.329  0.1505  0.0726  0.1043
 4998W        W23745   3.345   0.069  22.602  0.2635  0.0710 -0.0537
 4999W        W23746   7.715  15.320  23.613 -0.0829 -0.0018  0.0246
 5000W        W23747  25.600   4.163  11.854 -0.1115  0.0062 -0.0746
 5001W        W23748  26.360  13.902  13.008 -0.3834 -0.5031 -0.1317
 5002W        W23749  10.210  13.691  18.309 -0.0790  0.0681  0.3100
 5003W        W23750  10.446   9.831  22.701 -0.1859  0.2029 -0.1870
 5004W        W23751   8.772  22.989  14.326 -0.1300 -0.1725  0.0564
 5005W        W23752  30.985   8.207   1.412 -0.2213  0.0224 -0.0022
 5006W        W23753  23.702  10.528   2.312 -0.0996 -0.1589  0.0043
 5007W        W23754  26.609  31.861  17.452 -0.2071 -0.2923 -0.1964
 5008W        W23755  33.514  22.361  18.763 -0.3224 -0.1011  0.2644
 5009W        W23756  26.611   4.905   4.660  0.0887 -0.1973 -0.1142
 5010W        W23757  13.632  14.545  18.582  0.3124 -0.2574  0.0390
 5011W        W23758  33.789  18.868   9.822 -0.2316 -0.1193  0.1249
 5012W        W23759  28.704  23.864  25.922 -0.0390 -0.1819  0.1164
 5013W        W23760  10.832   3.702  14.034  0.1627  0.2315  0.1439
 5014W        W23761  22.245  15.192  14.360 -0.2706  0.1369  0.1117
 5015W        W23762  10.394  32.476  21.293 -0.0572 -0.0817  0.0161
 5016W        W23763  19.239   8.688  11.527 -0.3174 -0.0957 -0.2249
 5017W        W23764  16.816  25.144   1.822 -0.2145 -0.0896  0.2231
 5018W        W23765  27.213   5.486  17.527 -0.2880  0.0676  0.1233
 5019W        W23766  31.907  19.195   0.488 -0.3073  0.4043 -0.1423
 5020W        W23767  19.160  28.215   3.071 -0.0720  0.3383 -0.0421
 5021W        W23768  29.293  27.731  21.171 -0.0696  0.2296 -0.2538
 5022W        W23769  20.249  15.104  19.233  0.0093 -0.0352 -0.1286
 5023W        W23770   0.682  20.701  24.697 -0.0076 -0.0533 -0.0475
 5024W        W23771   3.444  10.900  15.869  0.1476 -0.1881 -0.0047
 5025W        W23772  26.801   8.503   0.185  0.2546  0.1542  0.3582
 5026W        W23773   8.078  27.210  16.668  0.1831 -0.2059  0.1734
 5027W        W23774  12.750  31.197   1.305  0.4993  0.1428  0.0526
 5028W        W23775  34.370  18.464   8.318 -0.1549  0.2311 -0.0517
 5029W        W23776   4.362  31.614   9.549 -0.2207  0.0830  0.1300
 5030W        W23777  31.532  22.185  13.979 -0.0267 -0.3029 -0.1144
 5031W        W23778  32.213  17.932  12.621  0.0384  0.2248 -0.2346
 5032W        W23779  11.351   4.228  22.778 -0.0797 -0.2167 -0.4121
 5033W        W23780  23.268  14.392  23.785  0.1749 -0.4526 -0.3578
 5034W        W23781  24.868   0.912   0.146  0.0032 -0.2661  0.1836
 5035W        W23782  12.089  24.584  23.445 -0.0129  0.1493 -0.1377
 5036W        W23783  22.032  35.082  16.687 -0.3807  0.0404  0.2008
 5037W        W23784  11.852  17.152  24.592 -0.3830 -0.2795  0.2116
 5038W        W23785  32.014  30.677  17.719  0.4348  0.0375  0.0370
 5039W        W23786  23.224  34.785  19.094 -0.0269 -0.3591 -0.0016
 5040W        W23787  18.280  31.700   3.496  0.4002 -0.4126  0.2894
 5041W        W23788  13.684   7.854   4.460  0.3661  0.2649  0.0365
 5042W        W23789   0.864   0.185   2.790  0.0980  0.1363 -0.1341
 5043W        W23790  18.610  13.298   0.030  0.1191 -0.0198  0.5814
 5044W        W23791   0.956  20.413   0.417 -0.0090 -0.2129 -0.0864
 5045W        W23792   7.931   3.842   4.344  0.0021  0.1004  0.0299
 5046W        W23793  25.119   6.149  19.366 -0.0508  0.1279  0.0474
 5047W        W23794  21.027  31.416  21.247 -0.0836  0.1784 -0.2364
 5048W        W23795  34.017  30.079  21.495  0.1334 -0.1181  0.0411
 5049W        W23796   7.102   2.002   8.336  0.0744  0.0024  0.3262
 5050W        W23797  33.730  29.957  13.842  0.2155 -0.2375  0.0242
 5051W        W23798  19.932  27.346  25.051  0.0091 -0.3098  0.0369
 5052W        W23799  17.486   8.533   3.506  0.1349 -0.0926  0.1558
 5053W        W23800  13.182  20.319  15.899  0.3342  0.4415  0.0675
 5054W        W23801   1.198   0.083  22.424  0.0144  0.0454  0.4205
 5055W        W23802  17.540  31.286  22.496 -0.2102 -0.0282 -0.2202
 5056W        W23803  34.299   0.189  16.700 -0.2717 -0.0062  0.1900
 5057W        W23804  12.848  29.668  11.965 -0.2685 -0.1342 -0.1443
 5058W        W23805  32.490   9.951   9.653  0.3196  0.1116 -0.1314
 5059W        W23806  25.071   2.129  21.526  0.2820  0.2896 -0.2930
 5060W        W23807  18.234   0.807   6.132  0.2314 -0.2386  0.1163
 5061W        W23808  23.627  10.602  22.887 -0.1248  0.1632 -0.0187
 5062W        W23809  12.076  24.728  17.464 -0.2695 -0.1199 -0.3831
 5063W        W23810  12.295  15.338   8.383  0.0578  0.2224 -0.1762
 5064W        W23811  24.863  16.529   6.762  0.0378 -0.0251 -0.0395
 5065W        W23812   9.600   7.810  13.140  0.0294 -0.1083 -0.1974
 5066W        W23813  17.833   1.587  20.623  0.0241 -0.3513 -0.3479
 5067W        W23814  21.070   0.465  16.567  0.2813 -0.0924 -0.0225
 5068W        W23815  13.295  34.222  11.034  0.1823 -0.3115 -0.2030
 5069W        W23816  21.578  33.391  15.541  0.0663  0.2617 -0.1757
 5070W        W23817  10.449  26.977  11.387 -0.2262 -0.1701 -0.1337
 5071W        W23818  15.276  20.061  26.053  0.0079  0.1684  0.0325
 5072W        W23819  23.489  23.909  20.660 -0.3003 -0.0365  0.1706
 5073W        W23820  14.591  22.209   0.478  0.2260  0.0509 -0.0908
 5074W        W23821   1.046  14.793  18.584  0.5479 -0.2812  0.2053
 5075W        W23822  10.762  20.595  12.630 -0.2692  0.0964 -0.2603
 5076W        W23823  27.758  32.675  16.656  0.3140 -0.1235 -0.0822
 5077W        W23824  25.084  11.425  10.047  0.0614 -0.1134  0.2366
 5078W        W23825  11.910  23.885  22.970 -0.2633  0.1468 -0.0934
 5079W        W23826  24.304   0.402  11.773  0.2104  0.1274  0.2092
 5080W        W23827  31.150  32.515  20.023 -0.2432  0.0209 -0.1294
 5081W        W23828  28.626  20.638  24.612  0.1368 -0.2095  0.0084
 5082W        W23829  34.817  22.636  12.057 -0.0386  0.2214  0.1053
 5083W        W23830   8.707  18.124   3.372 -0.3417  0.2038  0.1556
 5084W        W23831  22.175  28.762  16.109 -0.2325  0.1004  0.4134
 5085W        W23832   3.223   3.936  25.459  0.1908  0.2887 -0.0609
 5086W        W23833   5.372   0.488   9.072  0.1134  0.1271 -0.1034
 5087W        W23834  30.054  29.022  22.371  0.0022 -0.0023 -0.0603
 5088W        W23835  17.194   1.869  17.948  0.0139  0.1072  0.3418
 5089W        W23836  34.284   9.706  17.397  0.0665  0.2008  0.2212
 5090W        W23837  12.172  20.263   2.826  0.0601  0.0244 -0.2099
 5091W        W23838  18.784  13.577   4.330 -0.1072  0.0107  0.1540
 5092W        W23839   5.224  34.201  20.069  0.1777  0.1405 -0.0479
 5093W        W23840  23.354   8.772   1.055 -0.1366 -0.1543 -0.0595
 5094W        W23841   9.562  33.400   0.599 -0.2784  0.4632 -0.3502
 5095W        W23842  33.456  26.873  12.591  0.0128  0.1673  0.2406
 5096W        W23843  23.158   1.314  20.714  0.0369  0.0882  0.0268
 5097W        W23844  27.371   6.100   4.099  0.0818  0.0901  0.0732
 5098W        W23845  11.415  21.039   8.473 -0.4273 -0.0480  0.2709
 5099W        W23846  15.960  33.199  10.453 -0.0056  0.2914 -0.0672
 5100W        W23847  21.367  18.098   4.054  0.1859  0.2210  0.1576
 5101W        W23848  22.952  30.821  19.270  0.0277 -0.0420 -0.2921
 5102W        W23849  33.211   3.130  11.802 -0.1135  0.0585  0.0431
 5103W        W23850   0.219   0.182  21.268  0.1977  0.5650  0.1351
 5104W        W23851  33.058  12.826  18.681 -0.0020  0.0977  0.2117
 5105W        W23852  12.171   8.257   0.875 -0.1143  0.0357 -0.1505
 5106W        W23853   7.497   9.918  21.590  0.0123 -0.0088  0.1965
 5107W        W23854  33.456  35.124   0.433 -0.2280  0.2489  0.3075
 5108W        W23855   4.856   8.651   6.387  0.0628 -0.0942  0.0163
 5109W        W23856  13.755   2.639   7.503  0.0611  0.0138  0.3620
 5110W        W23857  26.522   3.639  13.668  0.0650 -0.0842 -0.0139
 5111W        W23858  28.832   1.374   0.633 -0.0453  0.0359  0.1842
 5112W        W23859  18.195  32.956  24.089 -0.0063 -0.1400 -0.0828
 5113W        W23860  14.558   9.354  26.084 -0.0779  0.1342 -0.1194
 5114W        W23861  24.080  33.913  23.330  0.1714  0.0355  0.3399
 5115W        W23862  30.836  17.021   7.864  0.1171  0.0840  0.0578
 5116W        W23863  25.990  26.779  13.441  0.1291 -0.1551  0.0425
 5117W        W23864  30.542   5.661  25.437 -0.0235 -0.1897  0.0298
 5118W        W23865  33.695   1.791  15.265  0.1742 -0.1746  0.1886
 5119W        W23866  21.647   0.896   5.482 -0.1134 -0.3440  0.2615
 5120W        W23867  14.823  30.560   3.544  0.0741 -0.0914  0.0394
 5121W        W23868  10.370  30.512  15.703  0.1225  0.0665  0.1370
 5122W        W23869   3.934  10.570   5.340  0.3112  0.3746 -0.1238
 5123W        W23870  34.553  30.192   7.561  0.0155 -0.0373 -0.2402
 5124W        W23871   3.609  14.591  23.737 -0.0226  0.0138  0.2197
 5125W        W23872  21.538   9.687   5.324  0.1144 -0.0468  0.1331
 5126W        W23873  33.202  19.855  16.335 -0.1968 -0.1863  0.2117
 5127W        W23874  31.127  28.911  25.498 -0.3041 -0.2326  0.0979
 5128W        W23875  15.177   6.307  21.900 -0.1810 -0.1928 -0.1644
 5129W        W23876   1.069  34.523  21.383  0.1969  0.1424 -0.1706
 5130W        W23877  34.062   6.045  11.318 -0.4056 -0.2130  0.0020
 5131W        W23878  33.771  16.043  11.236  0.2406 -0.1376  0.1711
 5132W        W23879  15.237   6.831  23.796  0.3078 -0.2414  0.1880
 5133W        W23880  27.574  29.454   1.823  0.0005  0.0956  0.0022
 5134W        W23881  11.624  17.195  12.571  0.1902 -0.2389  0.0341
 5135W        W23882  10.305  18.716   9.293  0.1373  0.0706 -0.2990
 5136W        W23883  15.536   6.632   7.355  0.0014  0.1446  0.1677
 5137W        W23884  27.808  30.014  13.306 -0.0450 -0.2457  0.0994
 5138W        W23885  17.818  19.715   8.000 -0.0278 -0.2965 -0.0532
 5139W        W23886  11.390   4.603  21.402  0.0932  0.1789  0.0811
 5140W        W23887  18.443  11.471  20.797  0.0134 -0.1451  0.0656
 5141W        W23888   9.636  21.325   3.431 -0.1047 -0.2257  0.0774
 5142W        W23889   5.423   8.591  25.984 -0.0157  0.5623 -0.1294
 5143W        W23890  29.287  20.871  20.185 -0.0095 -0.0798  0.1232
 5144W        W23891  11.279  26.812   6.281  0.0956  0.0353  0.0723
 5145W        W23892   3.436  19.543  16.135 -0.0315 -0.1130  0.0020
 5146W        W23893   9.568  14.782  13.358  0.1349 -0.3547 -0.0224
 5147W        W23894   0.610  15.688  14.594  0.0521 -0.0513 -0.1873
 5148W        W23895  13.783   1.035  20.233  0.3995 -0.0224  0.0822
 5149W        W23896   8.273  30.476   3.974  0.1895 -0.1267  0.2159
 5150W        W23897   7.716  14.126   6.575  0.0893 -0.1465 -0.1990
 5151W        W23898  27.082  34.905   5.024  0.0125 -0.0244 -0.0628
 5152W        W23899   1.600  33.480   8.182  0.1169 -0.1313  0.1379
 5153W        W23900  12.119   7.087   5.830  0.1840  0.1498 -0.1671
 5154W        W23901  12.530   7.163   1.508 -0.3698  0.2192  0.0600
 5155W        W23902   3.384  15.067  23.030 -0.0828  0.0744  0.3783
 5156W        W23903   5.808  27.466   5.835  0.2994 -0.1548 -0.0148
 5157W        W23904   3.884  13.266  18.708 -0.0808 -0.1903 -0.0400
 5158W        W23905  18.381   6.375  10.816  0.2137 -0.1481 -0.0854
 5159W        W23906   9.848  26.760   0.798  0.0662 -0.2017 -0.0604
 5160W        W23907  12.303  27.747   8.397 -0.1554  0.2296  0.0738
 5161W        W23908  17.042  22.881   7.135  0.2632 -0.1247  0.0413
 5162W        W23909   8.553  14.658  11.043  0.2207  0.0703 -0.0256
 5163W        W23910  21.821   1.931  18.259  0.1308  0.0713  0.0244
 5164W        W23911  12.315  24.891   0.385  0.3513  0.0315 -0.2951
 5165W        W23912  17.252  32.704   2.068 -0.2444 -0.2413  0.2522
 5166W        W23913  10.274  16.282   6.350 -0.1008 -0.1133 -0.1996
 5167W        W23914  18.147  27.538   0.872  0.0616 -0.4866  0.2735
 5168W        W23915   0.736  16.933  21.171  0.0857  0.0633  0.1915
 5169W        W23916  11.709   1.278   7.043  0.0197 -0.0311  0.0481
 5170W        W23917  15.444   2.925  22.165 -0.2179  0.1401  0.2148
 5171W        W23918  33.076  31.509   5.304  0.2185  0.1411  0.0181
 5172W        W23919  28.749  21.041   6.239  0.1073  0.2866  0.0516
 5173W        W23920  13.851   7.903   5.771 -0.1540  0.3094  0.0733
 5174W        W23921  17.201  15.305  25.861 -0.4290 -0.2467  0.0508
 5175W        W23922   7.630  15.083  25.701 -0.2841  0.1228  0.1002
 5176W        W23923   6.994   8.796  10.950 -0.3561  0.1106 -0.3113
 5177W        W23924   5.421  29.670  10.098 -0.2087 -0.0625  0.1431
 5178W        W23925  10.270  19.474  22.891  0.2126 -0.1197 -0.1819
 5179W        W23926  34.956  19.466  18.099 -0.0160  0.1029  0.1737
 5180W        W23927  21.928  23.971   4.952  0.2049  0.1161  0.0520
 5181W        W23928  10.917  14.885   3.332 -0.1311 -0.3936  0.1883
 5182W        W23929   0.977  23.757   2.924  0.1423  0.0281  0.1156
 5183W        W23930  19.558  16.266   1.585 -0.1867 -0.1275 -0.2298
 5184W        W23931  27.453  30.299  18.362 -0.1536  0.1497 -0.0369
 5185W        W23932  15.409  32.594  22.404  0.0699 -0.0249 -0.2896
 5186W        W23933  19.286   5.938   2.984 -0.3805 -0.3546  0.1011
 5187W        W23934  25.022   7.065  25.635 -0.1983  0.0190  0.0049
 5188W        W23935  15.775  20.901   2.146  0.5341  0.0771 -0.3311
 5189W        W23936  14.769   9.052  11.207 -0.0493 -0.1719  0.0959
 5190W        W23937   4.757   7.168  20.099 -0.1464 -0.0961 -0.0223
 5191W        W23938  23.004  25.958  15.013 -0.0625 -0.0232  0.0103
 5192W        W23939  31.196  17.142  22.052  0.1640  0.2155  0.1840
 5193W        W23940   4.535   3.186   8.048  0.0097 -0.1123 -0.0890
 5194W        W23941   7.391  17.348  18.692 -0.0162 -0.0609 -0.1172
 5195W        W23942  15.321  21.161   8.824  0.1118 -0.0310 -0.0690
 5196W        W23943  19.581  23.215  26.003  0.1859 -0.4520 -0.2193
 5197W        W23944  28.968   0.784  23.909  0.1210 -0.1578 -0.2885
 5198W        W23945  22.983  25.429  21.238 -0.1147 -0.1535  0.1987
 5199W        W23946  10.664  21.848   9.571  0.1190 -0.0717 -0.0912
 5200W        W23947  13.262  23.356  15.885 -0.2699 -0.0789 -0.0834
 5201W        W23948   6.980  19.168  25.267 -0.1174 -0.1078  0.1777
 5202W        W23949   6.090  20.510   1.432  0.2817  0.2523 -0.1684
 5203W        W23950  10.883  10.953  20.222 -0.0937 -0.2672 -0.0417
 5204W        W23951   3.387   1.779   9.873 -0.0576 -0.1331  0.0887
 5205W        W23952  10.131  16.318   8.927 -0.1573 -0.0805 -0.0531
 5206W        W23953  16.948   3.172  21.312 -0.0217  0.1577 -0.3429
 5207W        W23954  25.730  13.583  13.459  0.2360 -0.2873 -0.0122
 5208W        W23955  29.920  24.857  12.325 -0.0416 -0.1626  0.0112
 5209W        W23956  10.162  25.583   5.301 -0.2150 -0.0593  0.0373
 5210W        W23957  11.604  28.084  12.417 -0.2003  0.2357  0.0323
 5211W        W23958  24.071   3.094   3.535  0.1079 -0.0821  0.0217
 5212W        W23959  33.198  14.277  15.041  0.0504 -0.2027 -0.0210
 5213W        W23960   1.363  25.480  23.420 -0.1470  0.0756  0.0253
 5214W        W23961   5.752  16.554  23.738 -0.1868 -0.1273  0.2081
 5215W        W23962   3.719  27.937  11.754 -0.2115  0.3108 -0.5382
 5216W        W23963  24.931  14.309  19.831  0.3051  0.2174 -0.1054
 5217W        W23964  15.671  16.072  22.537 -0.2334  0.0578 -0.0542
 5218W        W23965   1.609  28.281  23.715  0.1250  0.2784  0.0922
 5219W        W23966   8.460  33.730   9.273 -0.0454  0.0474  0.0178
 5220W        W23967  25.841  21.680   8.124  0.2810 -0.2319 -0.2505
 5221W        W23968  26.385   0.122   4.072 -0.0325 -0.0640 -0.2834
 5222W        W23969  10.180  28.582  10.185  0.3702  0.1139 -0.1228
 5223W        W23970   5.960  20.866  19.752 -0.0391  0.1779  0.1755
 5224W        W23971  26.889  19.783  22.502 -0.2826  0.0128  0.1730
 5225W        W23972  11.039  22.341   7.455 -0.2489 -0.1085  0.3611
 5226W        W23973  32.246   9.525  22.720 -0.0561 -0.1883 -0.0368
 5227W        W23974  15.194   2.787   1.559 -0.1200  0.1305  0.1604
 5228W        W23975   3.247  26.904  10.484  0.0140  0.1326  0.2453
 5229W        W23976   2.853   2.182  16.756 -0.1650 -0.0933  0.0098
 5230W        W23977  15.689  31.174  26.206  0.0794 -0.4085  0.1979
 5231W        W23978   0.661   3.399  22.131 -0.3353  0.1873  0.1994
 5232W        W23979  20.011   9.098  18.793 -0.0311 -0.0379 -0.0430
 5233W        W23980  11.700  10.413  25.520 -0.0155 -0.0726 -0.1822
 5234W        W23981   4.613  21.882   4.690  0.0234  0.2489 -0.1012
 5235W        W23982   2.682   1.561   6.634 -0.2409  0.0030  0.0400
 5236W        W23983   5.194   3.532   6.513 -0.0009 -0.3108  0.1423
 5237W        W23984   7.361   7.703   1.234 -0.5844  0.2662 -0.1251
 5238W        W23985  10.926  11.886  13.048  0.0187 -0.0603  0.4003
 5239W        W23986  28.700  35.355  14.386  0.2912  0.1748 -0.1722
 5240W        W23987  21.117   7.904   9.835  0.1466 -0.0869 -0.4522
 5241W        W23988  27.700  34.120  21.418 -0.0473  0.1503 -0.2201
 5242W        W23989  34.538  20.735  20.173  0.0434  0.1106 -0.2960
 5243W        W23990  22.192   7.119   0.714  0.0167 -0.0043  0.0252
 5244W        W23991  31.700   9.964  16.932 -0.1424 -0.0350  0.1810
 5245W        W23992   5.332  24.900   9.332 -0.0386 -0.4909  0.1268
 5246W        W23993   8.190  29.347   0.212 -0.0334 -0.1370 -0.0434
 5247W        W23994  14.388   7.358  11.982  0.1131 -0.1799 -0.0252
 5248W        W23995  32.804   9.181  16.728 -0.1892  0.2673  0.0678
 5249W        W23996   6.535  11.660   9.227  0.5308 -0.0887  0.0102
 5250W        W23997  27.213  26.857  16.368  0.0075  0.0588  0.0525
 5251W        W23998  11.521   2.242   4.026 -0.0380  0.0160  0.0693
 5252W        W23999  26.808   3.808  23.333 -0.2563 -0.1121 -0.0426
 5253W        W24000  30.024   6.994  20.158  0.0262  0.0513  0.1222
 5254W        W24001  31.197   9.975  16.990 -0.3524 -0.2062 -0.1332
 5255W        W24002   0.624   3.485  13.841 -0.1669  0.1270  0.0612
 5256W        W24003  26.847  23.343  19.251 -0.1591 -0.1153  0.2681
 5257W        W24004  20.519  25.648   5.045 -0.4503  0.0399  0.1040
 5258W        W24005  10.430  11.233  20.373 -0.1333  0.1805  0.2214
 5259W        W24006   4.655  19.368  16.870  0.2432  0.0919 -0.0527
 5260W        W24007  31.139  12.551  11.378  0.0518 -0.1484  0.2534
 5261W        W24008  23.857  15.899  16.398 -0.0225  0.3041 -0.0909
 5262W        W24009   4.621   4.500  25.447  0.0010 -0.2081 -0.0879
 5263W        W24010  31.247  20.316   9.624 -0.1730  0.1905  0.0983
 5264W        W24011  14.055   0.178  23.781  0.3010  0.3969  0.3130
 5265W        W24012  15.337   3.886   7.227  0.4092  0.1945  0.0541
 5266W        W24013  16.008  30.814   1.894  0.0147 -0.0238  0.0377
 5267W        W24014   8.480  14.782  10.410 -0.2345  0.0150 -0.1110
 5268W        W24015  30.093  14.693  16.102  0.0410 -0.0076 -0.0919
 5269W        W24016  33.604  24.230  24.060  0.0603  0.0882  0.0598
 5270W        W24017   9.250  30.111  23.670  0.1831  0.2000 -0.2216
 5271W        W24018   7.618   2.256   3.800  0.2093  0.4677  0.0997
 5272W        W24019   4.301  28.283  25.485  0.0363 -0.2344 -0.1667
 5273W        W24020  21.136  31.321  23.795 -0.1765  0.2648  0.1370
 5274W        W24021  20.983  20.261   4.707  0.1464 -0.0013  0.2170
 5275W        W24022  17.097  14.217   4.148 -0.0128  0.1655 -0.0242
 5276W        W24023  24.462   8.614   3.705 -0.1167 -0.0674 -0.3557
 5277W        W24024  15.848   2.987   1.252 -0.0858 -0.0736  0.1299
 5278W        W24025  10.869   8.879   3.200 -0.2361  0.1695  0.0514
 5279W        W24026  26.754  22.306  17.838 -0.2162  0.2389 -0.1635
 5280W        W24027  34.663  30.230  25.040 -0.5938 -0.0470  0.2250
 5281W        W24028   6.196  33.200   8.090  0.0184  0.0329 -0.2368
 5282W        W24029  22.233  20.618  17.290  0.0173  0.4779  0.0550
 5283W        W24030  10.918   0.057   3.848 -0.0838  0.0123  0.1490
 5284W        W24031  24.933  17.427   8.236 -0.1350 -0.2417  0.0778
 5285W        W24032  21.236  11.518  25.755 -0.0155  0.0169 -0.2266
 5286W        W24033  15.503  10.314  21.449 -0.2761  0.0518 -0.2378
 5287W        W24034  32.522   3.731   1.602 -0.1856  0.4290  0.3131
 5288W        W24035   4.409   5.159   6.301 -0.1963 -0.3218  0.0701
 5289W        W24036  25.867  28.453  25.919 -0.2329 -0.3886 -0.0000
 5290W        W24037   5.879  25.058   8.197  0.1478 -0.1697 -0.0044
 5291W        W24038  24.858  26.963   2.717  0.0210  0.2171 -0.2583
 5292W        W24039   3.532  20.387  26.126  0.0231  0.0986 -0.0821
 5293W        W24040  16.133   1.821   9.819 -0.1232  0.0710  0.3322
 5294W        W24041  25.512  25.009  12.494 -0.1195 -0.1234 -0.0485
 5295W        W24042  18.802   0.986  17.221  0.0941  0.0468  0.1193
 5296W        W24043   0.525  34.638   7.087  0.1147 -0.3314 -0.0858
 5297W        W24044   9.518  17.362   5.882 -0.1427  0.2108 -0.0419
 5298W        W24045  24.427  12.466  13.763 -0.0905  0.0003 -0.0836
 5299W        W24046  15.211   7.633  20.913  0.3865  0.0090 -0.0576
 5300W        W24047  28.115  13.629  18.717 -0.0497  0.1020  0.1023
 5301W        W24048  24.871  18.175  13.436  0.2147 -0.2516  0.0192
 5302W        W24049  25.754  25.589  13.598  0.0579  0.2508 -0.1855
 5303W        W24050   5.790  18.146  25.200 -0.1418 -0.2654  0.1346
 5304W        W24051  16.994  11.494   4.873 -0.2392  0.0270 -0.0625
 5305W        W24052  12.114  20.303   0.722  0.0407  0.3732 -0.1427
 5306W        W24053  29.266   4.283   4.870 -0.1889 -0.0937 -0.0998
 5307W        W24054  34.853  11.632  24.740 -0.2684  0.2265 -0.2508
 5308W        W24055  32.456  22.255  17.932  0.1920  0.1985 -0.2958
 5309W        W24056   1.442   3.478   0.302 -0.0027 -0.0123  0.2915
 5310W        W24057   2.211   3.997   3.962  0.2178  0.2534  0.1661
 5311W        W24058  13.576  25.983   8.952 -0.0011 -0.1767  0.2496
 5312W        W24059  29.309   8.989  19.445 -0.0734  0.1860  0.0231
 5313W        W24060  26.289  10.972  12.758  0.2147 -0.0342 -0.0694
 5314W        W24061   8.100  15.441  25.704  0.0091 -0.1140  0.1390
 5315W        W24062  32.234   7.693  10.107 -0.0581 -0.0333  0.3975
 5316W        W24063   2.879  28.683  21.249 -0.0049 -0.1649 -0.3563
 5317W        W24064  16.264   7.877  22.697  0.0723 -0.1868  0.0563
 5318W        W24065  32.235  33.246  18.201 -0.2336  0.0398  0.1741
 5319W        W24066  14.725  20.901   0.727  0.2385  0.1654  0.3546
 5320W        W24067  15.502  13.731  19.885  0.0109 -0.0585  0.4482
 5321W        W24068  15.520  28.886  10.499  0.1153  0.0559 -0.6234
 5322W        W24069  32.203   2.417   6.397  0.0374  0.3751 -0.1659
 5323W        W24070  17.329  34.113   0.915 -0.1551 -0.0473 -0.0301
 5324W        W24071  21.624  21.709  20.544 -0.3509 -0.1129  0.1227
 5325W        W24072  13.301   0.378   6.692 -0.0291  0.3630  0.1765
 5326W        W24073  32.141  14.814   0.116 -0.3691 -0.3562  0.0407
 5327W        W24074  33.369  16.668  13.971 -0.1678  0.1745 -0.0555
 5328W        W24075  25.124   5.075  17.388 -0.1664  0.2467 -0.1330
 5329W        W24076   4.737  14.668   6.097  0.3420  0.1009  0.3084
 5330W        W24077  11.397  34.611   6.865  0.4848 -0.1366  0.0330
 5331W        W24078  30.563  30.777  11.796  0.3447 -0.3796  0.1939
 5332W        W24079  21.245  16.021  20.960  0.0904  0.0203  0.2466
 5333W        W24080   0.349  26.351   0.337  0.0831  0.1535  0.0956
 5334W        W24081  31.852  12.036  17.594  0.2216 -0.0271 -0.4277
 5335W        W24082  15.877  33.370  19.354 -0.1814 -0.1468  0.1387
 5336W        W24083  27.831   0.203  20.630  0.4130 -0.0062 -0.2045
 5337W        W24084  13.549  13.873  24.605 -0.3222 -0.2437 -0.0452
 5338W        W24085   6.266  33.326   4.627 -0.2421  0.1115  0.1681
 5339W        W24086   5.205   1.337  23.563 -0.0713  0.1366  0.3469
 5340W        W24087   2.320  18.962   0.591 -0.0981  0.0289 -0.1143
 5341W        W24088  26.402  31.549  16.868  0.0006  0.1516 -0.0586
 5342W        W24089   2.167  32.798   2.646 -0.3531  0.1811  0.0936
 5343W        W24090   6.969  19.033   0.151  0.0307 -0.1068  0.1091
 5344W        W24091   5.736  16.636   7.326  0.1922 -0.1854  0.1590
 5345W        W24092   6.719  26.621   6.839 -0.1685 -0.0605 -0.0192
 5346W        W24093  34.164   1.439   5.366 -0.0316 -0.1383  0.0831
 5347W        W24094   9.611  22.793  23.771 -0.0863  0.0020 -0.1163
 5348W        W24095  28.926  23.100   9.766 -0.1160  0.1914 -0.3631
 5349W        W24096   4.499  19.082  24.759 -0.2365  0.2433 -0.1341
 5350W        W24097  19.647   5.213  11.202 -0.2797 -0.0995  0.0385
 5351W        W24098  26.829  25.715   0.517  0.1530  0.2246  0.1126
 5352W        W24099   4.365  14.819   1.697 -0.2667  0.2358 -0.1084
 5353W        W24100  12.746   9.944   3.551  0.1963  0.0600  0.0338
 5354W        W24101  22.347   7.578  20.862  0.1996 -0.1323  0.0937
 5355W        W24102   8.239  31.192   0.983  0.4477  0.0597 -0.3627
 5356W        W24103   9.788  26.166   9.186  0.2018 -0.0614 -0.0597
 5357W        W24104  28.730   8.312   8.296 -0.0956 -0.2477 -0.1441
 5358W        W24105  15.413   4.495  17.363  0.0503  0.2613 -0.3290
 5359W        W24106  33.351  18.924  21.096  0.1467 -0.1676 -0.0514
 5360W        W24107   9.574   1.068   7.918  0.1980  0.0966 -0.1578
 5361W        W24108  19.483  19.412   5.305  0.0638  0.0723 -0.1016
 5362W        W24109   6.785  33.528  24.133 -0.2782 -0.1069 -0.1176
 5363W        W24110  13.747  15.754  19.227 -0.1045 -0.2716 -0.0870
 5364W        W24111  23.160   2.718  24.962 -0.6992  0.1228  0.0194
 5365W        W24112   3.961  34.023   9.459  0.0933 -0.1162 -0.1390
 5366W        W24113  19.432  17.855  20.247  0.2080  0.0285 -0.1922
 5367W        W24114  28.885  31.098   5.522  0.0473  0.2776  0.3004
 5368W        W24115   2.544  19.683  24.548 -0.1226  0.0397  0.1430
 5369W        W24116   8.767  24.631  10.708 -0.0287 -0.0355  0.1955
 5370W        W24117   4.512  35.362  26.144  0.1747  0.0207  0.0413
 5371W        W24118  27.939   8.820  15.060 -0.0193 -0.1619 -0.1252
 5372W        W24119  22.810   1.141  19.807 -0.1842 -0.0330 -0.0251
 5373W        W24120  32.620   0.233   4.943  0.0484 -0.1568  0.0954
 5374W        W24121   1.965  27.349  25.696  0.0963  0.1419 -0.0788
 5375W        W24122  16.607   7.312  23.446  0.0418  0.1272  0.3206
 5376W        W24123  13.284  23.349  24.162 -0.0300  0.4098 -0.0103
 5377W        W24124   0.366  32.877   7.641 -0.2600  0.1022 -0.2556
 5378W        W24125   2.234   7.040   1.371 -0.0049 -0.0191 -0.0738
 5379W        W24126  13.950  26.468  11.557 -0.0496 -0.1091  0.3291
 5380W        W24127  28.900  18.380   5.493  0.1104 -0.1696  0.1122
 5381W        W24128  18.326  33.494  22.054 -0.1909  0.1978 -0.1854
 5382W        W24129  19.241   4.876  24.527  0.2048 -0.1049 -0.2268
 5383W        W24130   9.862   3.447   3.891  0.0314  0.1988  0.0108
 5384W        W24131  35.382  19.260   0.111  0.1999 -0.0864  0.0832
 5385W        W24132  25.216  25.988  14.898 -0.1243 -0.2391  0.1480
 5386W        W24133  13.941  14.682   6.862 -0.0324 -0.0837  0.1116
 5387W        W24134  13.792  24.559   0.268  0.0631 -0.0363 -0.1251
 5388W        W24135  20.826   9.079  21.409 -0.0863 -0.0492  0.0244
 5389W        W24136  22.970  16.945  25.555  0.0667  0.1929 -0.2645
 5390W        W24137  11.720  32.715  12.339  0.2878 -0.0073 -0.3940
 5391W        W24138   9.594   4.136  13.734  0.2324 -0.1109  0.0258
 5392W        W24139  15.435  30.981   7.829 -0.4408 -0.0450 -0.3049
 5393W        W24140   4.332  29.404   2.765  0.0318 -0.0112  0.1969
 5394W        W24141  12.927  13.207   0.085  0.1607 -0.2258  0.2419
 5395W        W24142  24.642  24.161  10.805 -0.3784  0.2056  0.2925
 5396W        W24143  22.787   9.216  25.641 -0.1559 -0.4439  0.0407
 5397W        W24144  24.672  17.065  25.765  0.4693 -0.0567  0.0468
 5398W        W24145   3.193  25.714   0.297 -0.1516 -0.1137 -0.0816
 5399W        W24146  30.543  19.732   6.217 -0.0087  0.2735  0.1125
 5400W        W24147  32.250   5.041  22.943  0.1965  0.1287 -0.2510
 5401W        W24148  11.097   0.137   9.499 -0.0434 -0.0146  0.2700
 5402W        W24149  19.764  31.991   0.580 -0.3866 -0.0395 -0.2909
 5403W        W24150   9.891   9.119  24.380  0.1131  0.1865 -0.0333
 5404W        W24151  13.449  23.855   6.831  0.0367  0.0333  0.2418
 5405W        W24152  29.149   9.056  10.261  0.1636 -0.2091  0.2118
 5406W        W24153  21.031  14.148  24.237  0.0351  0.0636  0.1569
 5407W        W24154  26.168  13.530  11.852 -0.1736 -0.1641 -0.1116
 5408W        W24155  25.358  20.618  16.279  0.0535  0.2141 -0.0198
 5409W        W24156   1.290   1.734  16.047  0.0241  0.1112  0.2252
 5410W        W24157  22.325  15.967  15.224  0.0273  0.2937  0.2003
 5411W        W24158  32.899  13.552   8.046 -0.0310 -0.0020 -0.0162
 5412W        W24159   1.803  25.051  25.633 -0.3366  0.0814 -0.0323
 5413W        W24160   6.038  15.572   7.926  0.4210  0.0171  0.4224
 5414W        W24161   1.878  11.529  16.824 -0.1729 -0.5092  0.2225
 5415W        W24162  26.367  15.133  20.162  0.1418  0.3274  0.2940
 5416W        W24163  25.338  14.230  18.796  0.4887 -0.1656  0.2047
 5417W        W24164  15.311  31.398   3.032  0.0969 -0.3557  0.0568
 5418W        W24165  15.421  27.028   8.302 -0.0459 -0.2907 -0.0735
 5419W        W24166  34.135  20.121  23.195 -0.1341  0.2016  0.1421
 5420W        W24167   5.376  29.496   6.795  0.3504  0.1296  0.0074
 5421W        W24168  16.915  23.815  11.993 -0.1643 -0.1269  0.3733
 5422W        W24169  12.184  27.420  17.276 -0.0205  0.0884 -0.3196
 5423W        W24170  26.081  22.265  19.050 -0.0103  0.2112 -0.1705
 5424W        W24171  24.474  12.024  25.619 -0.2071  0.1891  0.0260
 5425W        W24172  29.357  17.694  24.255 -0.1924 -0.2205  0.0089
 5426W        W24173  10.578  13.799  21.890 -0.1743 -0.0153 -0.0046
 5427W        W24174   7.898   8.742  17.961  0.1410  0.1748 -0.2176
 5428W        W24175  29.878   2.768  19.373  0.2106  0.0298  0.1399
 5429W        W24176  27.084  16.905  16.042 -0.0374  0.1785  0.2561
 5430W        W24177  12.708  27.054  16.466 -0.3193  0.0527 -0.1852
 5431W        W24178  13.593  25.490   9.736  0.1196  0.0711  0.2446
 5432W        W24179  28.753   6.106  14.129 -0.4011  0.2640 -0.1575
 5433W        W24180  35.226  31.426  17.652  0.0793 -0.1987 -0.2405
 5434W        W24181  26.997  13.329   9.219 -0.1458  0.0474 -0.0105
 5435W        W24182  17.729  32.447   9.611 -0.0431  0.2198 -0.1847
 5436W        W24183  10.970   4.700   0.121 -0.0014  0.0433 -0.0342
 5437W        W24184  18.875   9.808  18.074  0.0210  0.0978 -0.2120
 5438W        W24185  24.212   8.629  22.115 -0.1169 -0.1227  0.1293
 5439W        W24186   8.401   5.701   0.985  0.0451  0.4661  0.1370
 5440W        W24187  17.127   8.024  19.341 -0.1455  0.2246  0.1642
 5441W        W24188   2.523  16.384   0.681  0.1559  0.2068 -0.3666
 5442W        W24189  17.837  10.103  18.422  0.0116  0.0722  0.0272
 5443W        W24190  25.870  31.368   0.985 -0.1190 -0.3908 -0.3103
 5444W        W24191  32.154  17.322  15.265  0.0816  0.0742 -0.3042
 5445W        W24192  11.270   5.104  14.698  0.1128  0.2775  0.1291
 5446W        W24193   2.530  28.181  10.211 -0.0092  0.3686 -0.0940
 5447W        W24194  28.991  15.055  15.269 -0.0242 -0.0694  0.2432
 5448W        W24195  28.286  18.154   5.421 -0.4489 -0.0194 -0.0416
 5449W        W24196  34.251  29.273  25.000 -0.2500  0.2883 -0.0266
 5450W        W24197   2.725  33.166   0.505 -0.0564 -0.1996 -0.0171
 5451W        W24198  15.102  23.761   8.356 -0.0173  0.0164 -0.1840
 5452W        W24199  10.307  23.282   3.184 -0.3322  0.0368  0.3038
 5453W        W24200   3.848  27.678   5.503  0.0999  0.0968 -0.0421
 5454W        W24201  14.742  22.586  10.431 -0.2190  0.2180 -0.0150
 5455W        W24202   2.167  18.737  22.061 -0.2975  0.0905 -0.3133
 5456W        W24203  12.002   7.261   1.823  0.2417  0.0044  0.0744
 5457W        W24204  35.343   5.904   2.230 -0.1341 -0.2714 -0.0540
 5458W        W24205  26.103  28.897  23.036 -0.1021 -0.2405 -0.1105
 5459W        W24206  20.021  20.913   2.643 -0.1309 -0.0285  0.2252
 5460W        W24207  13.861  32.988   8.031  0.0867  0.1580  0.0471
 5461W        W24208  32.395  18.266  10.530  0.3465  0.3387  0.0532
 5462W        W24209  32.460  15.733   4.750  0.1791 -0.0868  0.0175
 5463W        W24210  29.371  28.150  23.533 -0.1060  0.0359 -0.0383
 5464W        W24211  15.653   2.975   5.569  0.1805 -0.0891  0.1498
 5465W        W24212  22.616  26.368  16.520 -0.2326 -0.1925  0.1725
 5466W        W24213  22.003   4.701  19.965  0.0112  0.4099  0.0005
 5467W        W24214   3.238   2.761   5.199 -0.2497 -0.3558 -0.0556
 5468W        W24215  33.260   5.548  24.055  0.0139 -0.2272  0.2969
 5469W        W24216  15.538  35.251   9.785  0.0637 -0.1050 -0.0308
 5470W        W24217  14.326  26.829  22.961  0.0137 -0.0339  0.1203
 5471W        W24218  34.639  31.935   7.990 -0.0929 -0.0155  0.1021
 5472W        W24219   4.340  34.728   8.375  0.0050  0.3036 -0.2414
 5473W        W24220  13.866  34.030   4.232 -0.0962 -0.0190  0.0328
 5474W        W24221  15.395  28.119   5.554 -0.1369 -0.0661  0.2124
 5475W        W24222  25.598  18.196  11.750  0.1213 -0.0704 -0.1182
 5476W        W24223  25.900  23.186  23.837 -0.1943  0.2714  0.1256
 5477W        W24224  15.613  23.512  13.843  0.0589  0.1557 -0.1020
 5478W        W24225  16.793  12.413   8.346  0.1882  0.0675 -0.0111
 5479W        W24226  30.257   1.984   3.595  0.2919  0.1016  0.0314
 5480W        W24227   7.990  32.323  24.516  0.1022 -0.2257  0.2326
 5481W        W24228   0.574  31.678  18.261 -0.1233  0.1734 -0.1773
 5482W        W24229  13.656  14.696  21.787  0.2613 -0.0264  0.0536
 5483W        W24230  12.651   8.235   9.557 -0.2396  0.0279  0.0923
 5484W        W24231   0.885  18.885  26.004 -0.2970  0.2229 -0.0661
 5485W        W24232   4.743  32.372  10.930  0.1250 -0.1983 -0.1866
 5486W        W24233  14.454   1.043   9.982 -0.4543  0.2041 -0.2130
 5487W        W24234   2.312   3.004  15.522 -0.0336 -0.1015 -0.0264
 5488W        W24235  28.680  25.413  19.849 -0.4380 -0.0411  0.0384
 5489W        W24236   4.423  12.657   7.038  0.0491 -0.1647 -0.1271
 5490W        W24237  20.789  33.160   6.733 -0.0029 -0.1118 -0.0498
 5491W        W24238  14.311  11.050   4.941  0.4847 -0.0989  0.1461
 5492W        W24239   8.356  28.082   0.546 -0.1263 -0.0108  0.1724
 5493W        W24240   4.369  21.189   5.443 -0.2500 -0.0054 -0.2678
 5494W        W24241   0.156  20.029  22.236 -0.2033  0.1715 -0.1587
 5495W        W24242  25.244   9.827  16.892 -0.3271  0.0202  0.2607
 5496W        W24243  15.448  20.051  24.982 -0.3101  0.4881 -0.0306
 5497W        W24244  22.083  13.483  22.836 -0.1420 -0.0053  0.0177
 5498W        W24245  32.275  19.101  11.074 -0.1223 -0.0846  0.2389
 5499W        W24246  24.917   0.975  17.101 -0.2069  0.2022 -0.2710
 5500W        W24247  16.601  22.925  14.545 -0.0117 -0.2292 -0.1640
 5501W        W24248   5.531  15.299  17.765 -0.1356  0.0840  0.0591
 5502W        W24249  23.493  25.540  14.277  0.0228  0.1704 -0.0724
 5503W        W24250  15.358   4.483  22.007  0.1405 -0.0978  0.0007
 5504W        W24251  17.111  30.508   2.098  0.0878  0.1100  0.2335
 5505W        W24252   3.186  34.763  24.477  0.2834  0.1440  0.2433
 5506W        W24253  23.027  26.016  21.994  0.0761 -0.0072 -0.3767
 5507W        W24254  17.412  15.298  25.150 -0.2147 -0.2582  0.0970
 5508W        W24255  19.824  32.913   3.430 -0.0269 -0.0187 -0.0874
 5509W        W24256  34.853   5.059  21.462 -0.1763  0.1224  0.0838
 5510W        W24257   8.156  22.485  12.748 -0.1679  0.4242  0.0599
 5511W        W24258  28.821  31.754  11.131 -0.2728 -0.0501  0.1067
 5512W        W24259   0.657  17.844   1.081  0.2188  0.2201 -0.1355
 5513W        W24260  23.289  32.650   4.644  0.1191 -0.0374  0.1077
 5514W        W24261  25.154   0.327  14.515  0.0185 -0.1319 -0.3007
 5515W        W24262  19.801  25.339   6.001 -0.2677 -0.0857  0.0430
 5516W        W24263   4.689  20.042  25.537  0.0965  0.3386 -0.3613
 5517W        W24264   3.009  12.005  24.288  0.2062  0.1782  0.2056
 5518W        W24265  10.419  23.615   5.952 -0.2661 -0.0812  0.3211
 5519W        W24266  16.611  28.553   1.463  0.1791  0.0006 -0.1785
 5520W        W24267   9.906  19.847   2.775 -0.3727  0.3038  0.1490
 5521W        W24268  32.114  22.238   8.948  0.3230 -0.0701  0.0946
 5522W        W24269  23.645   1.816  24.587  0.2031 -0.3214  0.0639
 5523W        W24270   4.428   0.787  20.835 -0.0416  0.2322 -0.2037
 5524W        W24271   2.455  21.619  24.754  0.0875  0.1399  0.0416
 5525W        W24272   6.811  12.373  10.568  0.1963  0.4981  0.0985
 5526W        W24273  15.412  29.067   3.796  0.0211  0.0608 -0.0446
 5527W        W24274  26.004  24.371  21.851  0.3421  0.2074  0.2880
 5528W        W24275  21.392  11.993   4.357  0.0020  0.0776 -0.0705
 5529W        W24276  26.443  13.339  25.188 -0.0591  0.0653  0.0884
 5530W        W24277  10.568   9.268  13.552  0.0440  0.0378  0.0609
 5531W        W24278  22.815   8.284  25.189  0.2978  0.2507 -0.2232
 5532W        W24279   1.651  22.637  22.351 -0.2785 -0.0396  0.3514
 5533W        W24280  35.116  21.185  15.562  0.1049 -0.1095 -0.0858
 5534W        W24281  32.164  20.071  13.302  0.1328  0.0154  0.1949
 5535W        W24282  34.707  26.066  13.403 -0.1638  0.0655 -0.2205
 5536W        W24283  17.346  11.438  25.196  0.1247  0.0381 -0.3842
 5537W        W24284  11.241  14.801  20.533 -0.2276  0.1551  0.1273
 5538W        W24285  11.427   4.783   8.076 -0.2796 -0.0178 -0.1369
 5539W        W24286  14.555  14.573  13.255 -0.0181  0.2408  0.1171
 5540W        W24287  16.000   9.144  25.218  0.0643  0.2039  0.5274
 5541W        W24288  31.493   1.516  11.640 -0.1501 -0.0948  0.0599
 5542W        W24289  19.789  29.082   5.444 -0.2036  0.0614 -0.2397
 5543W        W24290  19.046   7.230  11.751 -0.1658 -0.1609 -0.1657
 5544W        W24291   6.750  29.138   3.257 -0.0862  0.1999 -0.0673
 5545W        W24292   2.842   4.116  25.133  0.0326  0.2956 -0.0688
 5546W        W24293  27.008   9.214  11.723  0.3623 -0.1862 -0.0531
 5547W        W24294  10.189   1.031   0.947  0.1787  0.2064  0.0686
 5548W        W24295  28.652  25.152  25.838  0.1807  0.3038 -0.2674
 5549W        W24296  16.535  30.109  21.944 -0.0130  0.0719 -0.0703
 5550W        W24297  18.715   0.309   1.927  0.2650  0.1932 -0.0423
 5551W        W24298   2.582  33.159  25.842  0.1804 -0.2842 -0.1612
 5552W        W24299   4.990  11.449  17.162 -0.3035  0.2138  0.0145
 5553W        W24300   5.967   7.034   5.678  0.1190  0.1368 -0.2645
 5554W        W24301  20.840  18.465  25.058  0.0528  0.2313 -0.1910
 5555W        W24302   0.849  11.023  26.198 -0.1406  0.1098  0.4281
 5556W        W24303  31.348   7.738  17.174  0.0526 -0.4232 -0.0345
 5557W        W24304  29.645  32.613   0.440 -0.1878 -0.1204  0.1924
 5558W        W24305  15.573  19.289  11.379  0.2731 -0.0912  0.1070
 5559W        W24306  20.040   0.327  25.097 -0.0568 -0.1744  0.2197
 5560W        W24307  33.337  11.309  21.426  0.2372 -0.5883 -0.0461
 5561W        W24308  32.286  14.975   5.552  0.0402 -0.1685  0.2814
 5562W        W24309  17.898  13.923   0.313  0.3359 -0.2255 -0.1926
 5563W        W24310  14.710  19.629   3.780 -0.2799  0.1717 -0.1228
 5564W        W24311  18.202  10.742   9.536 -0.0264  0.4077  0.0224
 5565W        W24312  31.291  13.504   8.612  0.2623  0.2561  0.1386
 5566W        W24313  17.328  32.243   9.313  0.0243  0.0765 -0.1160
 5567W        W24314  16.782  34.092   2.141 -0.3105 -0.1571 -0.3047
 5568W        W24315   3.893   7.742  25.526 -0.3687 -0.2381 -0.0766
 5569W        W24316  32.551  10.902   8.390 -0.3387 -0.0777  0.1387
 5570W        W24317  33.051  27.777  17.300 -0.1181 -0.3570 -0.3949
 5571W        W24318   9.115  15.059   3.540  0.2313  0.1960 -0.0031
 5572W        W24319  24.605   3.043   6.305 -0.1586 -0.4575 -0.1327
 5573W        W24320  17.816  25.216  10.400 -0.0394  0.2256 -0.0134
 5574W        W24321  21.253  28.417   2.290 -0.2498  0.0630  0.0865
 5575W        W24322   8.363  17.625  11.852 -0.1063  0.0519  0.0109
 5576W        W24323  32.761  19.241  19.420  0.4532  0.1811 -0.1512
 5577W        W24324   2.733   6.317   2.715  0.4267 -0.3080  0.2014
 5578W        W24325  20.531  32.676  15.046 -0.3494 -0.1035 -0.0710
 5579W        W24326  15.778   2.644  11.648 -0.2817  0.1330 -0.1005
 5580W        W24327  10.777  19.220   3.281 -0.1127  0.3532 -0.0284
 5581W        W24328   8.731  19.332   4.920 -0.0828 -0.0283 -0.0664
 5582W        W24329  18.282  16.619   9.294 -0.3614  0.3554  0.0255
 5583W        W24330   4.829   6.647   5.223  0.1782  0.0756 -0.0436
 5584W        W24331   8.551  17.481   6.990  0.5622  0.0844  0.2018
 5585W        W24332   7.482  28.134  21.313 -0.0953 -0.1773 -0.0373
 5586W        W24333  34.184  33.357   5.746  0.1365 -0.0292 -0.0855
 5587W        W24334   9.511  16.824   8.916 -0.0250  0.0572 -0.3019
 5588W        W24335   3.612   5.721  26.122  0.0427  0.0157 -0.1182
 5589W        W24336   4.544  17.905  22.646  0.0145 -0.1845 -0.0593
 5590W        W24337  16.994  18.669  21.290 -0.1689 -0.0602 -0.0135
 5591W        W24338   2.399  21.657  21.918  0.1190  0.1395 -0.0421
 5592W        W24339  15.316   5.574   1.616  0.2525  0.1588  0.1305
 5593W        W24340   8.168  31.147  13.951  0.0224 -0.3724 -0.0955
 5594W        W24341  26.483   9.193  14.611 -0.0426  0.2719 -0.0772
 5595W        W24342  23.529  30.294  19.121 -0.3300 -0.0384  0.0424
 5596W        W24343   7.938   2.467  25.232  0.0845 -0.1911  0.1317
 5597W        W24344  25.907   0.545   0.551  0.1084  0.3757 -0.2185
 5598W        W24345  27.982   8.951  11.118 -0.2408 -0.0961  0.1181
 5599W        W24346  26.865   5.317  16.728 -0.1338  0.3101 -0.3360
 5600W        W24347  12.403  17.992   1.839 -0.1047  0.2075  0.0949
 5601W        W24348  18.748  11.663   6.144  0.1875 -0.4378 -0.0052
 5602W        W24349  15.070   9.097   5.656 -0.0075 -0.1475 -0.1612
 5603W        W24350  10.195  26.482  14.863  0.2746 -0.1591  0.0569
 5604W        W24351   8.318   9.951   5.384 -0.0678  0.0537 -0.2364
 5605W        W24352   3.646  35.324  21.733  0.0353  0.1952  0.1483
 5606W        W24353  24.082   1.321   5.497  0.0505 -0.0679 -0.2254
 5607W        W24354  31.661  24.428  10.135 -0.1545 -0.0162  0.1467
 5608W        W24355  11.049  16.833  20.852 -0.1375 -0.1566  0.0598
 5609W        W24356  30.670  28.633  18.192  0.0081 -0.1045 -0.0091
 5610W        W24357   5.968  30.379   7.541 -0.1174 -0.1592 -0.0477
 5611W        W24358  26.774  34.064  23.902  0.4055 -0.0591 -0.0959
 5612W        W24359   3.247  32.650   3.620  0.0024  0.0236 -0.1812
 5613W        W24360  28.445  32.917  21.750  0.0672  0.1688 -0.2861
 5614W        W24361  13.070   7.403   9.943  0.0733 -0.0477 -0.1997
 5615W        W24362   9.447  22.272  10.992  0.0590  0.1351  0.0636
 5616W        W24363  34.470  19.415  25.921 -0.0954  0.1501  0.0194
 5617W        W24364   5.955  26.456  11.737 -0.3128 -0.0245  0.1992
 5618W        W24365  31.215  30.058  21.549 -0.4927  0.0575  0.2279
 5619W        W24366  23.450  32.449  25.494  0.0065 -0.1354 -0.0926
 5620W        W24367  28.763  20.592  25.628 -0.3288 -0.1015  0.0344
 5621W        W24368   3.012   4.167   5.120 -0.1086 -0.0858  0.0181
 5622W        W24369   6.104  18.300  18.319 -0.1004 -0.0140 -0.3051
 5623W        W24370   4.828  20.071   0.554  0.2962  0.1207 -0.0932
 5624W        W24371  13.095   7.103  12.691  0.1250  0.1048 -0.0140
 5625W        W24372  15.818   3.408   7.866 -0.0188  0.3255 -0.0824
 5626W        W24373  21.911  19.191   3.052  0.1299  0.0132 -0.1106
 5627W        W24374  31.811  13.332   5.344 -0.1612 -0.1033 -0.0088
 5628W        W24375  32.383  28.268  21.011  0.1576  0.0152  0.1065
 5629W        W24376  24.546  15.828  14.764  0.3664  0.2759  0.0019
 5630W        W24377   6.609   6.277   9.131  0.1987  0.0297 -0.0579
 5631W        W24378  18.501  24.147  12.714 -0.1170 -0.2862 -0.5746
 5632W        W24379  28.933  30.205  17.116 -0.0363  0.3339  0.1439
 5633W        W24380  30.875  23.792  25.437  0.1187  0.0927 -0.2279
 5634W        W24381  18.751  31.461  18.062  0.1011 -0.0378  0.4456
 5635W        W24382  13.538  33.234   4.002  0.0353  0.0996 -0.3980
 5636W        W24383   8.193  15.180   0.429  0.0700 -0.1194  0.1692
 5637W        W24384  26.550  25.251  11.160  0.1829  0.2674  0.0205
 5638W        W24385  31.643  30.944   2.175  0.0589 -0.4255  0.1913
 5639W        W24386  10.878  17.159  26.101  0.1213  0.2523  0.3347
 5640W        W24387  32.383  24.650  19.084 -0.1569  0.2044 -0.0053
 5641W        W24388  10.755  28.874  23.156  0.2063  0.0162  0.1340
 5642W        W24389  26.266   3.268  21.159  0.1026  0.1891  0.1125
 5643W        W24390   2.255   8.020  24.662 -0.0044 -0.1055 -0.1473
 5644W        W24391  13.631   0.359  21.011 -0.1169  0.0340  0.3198
 5645W        W24392  23.450   1.323   7.166 -0.1815  0.0864  0.0551
 5646W        W24393   3.131   2.980   8.894 -0.2952 -0.1076  0.0397
 5647W        W24394   3.155  20.292   2.862  0.0152 -0.1796  0.1217
 5648W        W24395  19.261  12.208  23.795  0.1366 -0.3730 -0.2045
 5649W        W24396   9.929  15.228  23.355 -0.0360 -0.1689 -0.1480
 5650W        W24397   8.463  13.752   9.519  0.4936  0.0561  0.1908
 5651W        W24398   3.470  12.585  17.909 -0.0195 -0.0115  0.0350
 5652W        W24399  19.944   6.683  18.125  0.1392 -0.1299  0.0812
 5653W        W24400  22.928   9.946   1.784 -0.1463 -0.0159  0.4006
 5654W        W24401   0.026   6.369  21.178  0.1333  0.1635 -0.2834
 5655W        W24402  19.510  27.465   1.941  0.0813 -0.0436  0.1036
 5656W        W24403   5.996  11.208  22.252  0.1976  0.3666  0.0946
 5657W        W24404   4.807  13.676  15.995  0.1590 -0.3951  0.1434
 5658W        W24405   0.964  13.658  20.815 -0.1789  0.1870  0.2377
 5659W        W24406  33.839   7.958  20.379  0.0919 -0.1305  0.1057
 5660W        W24407  13.554   9.076  13.343  0.0695  0.4475 -0.0139
 5661W        W24408  21.512  14.150   1.473  0.2009 -0.1739 -0.0210
 5662W        W24409   0.652  27.819  24.036  0.0785  0.1381  0.1953
 5663W        W24410  32.085  25.574  15.477 -0.1373  0.1343  0.0763
 5664W        W24411   6.918  29.263   2.814 -0.3213  0.1143 -0.0931
 5665W        W24412   4.733  12.055   6.891 -0.1417  0.2609 -0.2239
 5666W        W24413  24.928  14.246  24.232 -0.3543 -0.1980  0.0926
 5667W        W24414  24.735  19.121  14.628 -0.2906 -0.0022  0.0528
 5668W        W24415  32.614  20.161   9.993  0.0941 -0.1087  0.4405
 5669W        W24416  24.800  31.953   1.170  0.1238 -0.0998 -0.2500
 5670W        W24417  19.133  16.065   7.925  0.0988  0.1242  0.0380
 5671W        W24418  20.290  11.633   4.596  0.3040  0.2505  0.5936
 5672W        W24419   4.317  23.963   5.067 -0.1829 -0.1141  0.1571
 5673W        W24420  14.315  29.441   5.637  0.0632  0.1356  0.4816
 5674W        W24421   4.747   5.429  23.431 -0.0317 -0.3049  0.0100
 5675W        W24422  24.015  30.072  13.267 -0.0061  0.0205 -0.0683
 5676W        W24423  28.248  21.178   9.920  0.0261  0.0113  0.4062
 5677W        W24424  29.900  31.038  13.768 -0.1742  0.0435  0.1365
 5678W        W24425  22.943  31.029  18.191  0.3321 -0.2881 -0.0705
 5679W        W24426  34.000  26.389  19.720 -0.1978 -0.0710  0.0904
 5680W        W24427  31.781  26.074  20.277  0.0341 -0.1033 -0.1167
 5681W        W24428  14.281  30.666  25.859  0.2240  0.1307 -0.0849
 5682W        W24429   6.641   9.098   8.386 -0.0651 -0.0456  0.1032
 5683W        W24430  35.203  10.853  11.771  0.0065 -0.0644  0.1877
 5684W        W24431   6.102  33.003  24.625 -0.2878  0.1626 -0.2129
 5685W        W24432  32.376   1.729  16.599 -0.1561 -0.2918  0.0719
 5686W        W24433  27.950  15.530   8.460 -0.1096 -0.1261 -0.2114
 5687W        W24434  17.563  31.182   3.563 -0.1685  0.0328 -0.1560
 5688W        W24435  29.348   9.343  14.675 -0.1512 -0.0376 -0.0801
 5689W        W24436  26.739   1.074  15.565 -0.2523 -0.2099  0.0579
 5690W        W24437  15.436  25.524   6.217  0.2391  0.1437  0.0494
 5691W        W24438  18.496  21.523  23.225  0.2452  0.0981 -0.1233
 5692W        W24439  14.146  12.856  10.435  0.2215 -0.0896  0.0153
 5693W        W24440  14.000  14.365   4.273  0.2347  0.1380 -0.4365
 5694W        W24441  23.160  28.479  16.247  0.0937  0.3201  0.1562
 5695W        W24442  26.237   5.504  23.582 -0.1455  0.1635  0.1227
 5696W        W24443  29.037  20.008  13.341 -0.1176  0.1492 -0.2909
 5697W        W24444  12.379  14.580   2.323  0.0330  0.1242  0.0285
 5698W        W24445  33.508   7.613  12.215  0.0464 -0.1381 -0.0841
 5699W        W24446  26.280   1.879  19.401 -0.2914 -0.0369 -0.2053
 5700W        W24447   3.397   6.407  19.427  0.0334  0.0480  0.2501
 5701W        W24448  24.807   5.219  13.347  0.0408  0.0848 -0.1987
 5702W        W24449  31.031   4.292   3.710  0.2768  0.1032  0.0714
 5703W        W24450   7.843  34.446   5.038  0.0134  0.1720  0.3905
 5704W        W24451  26.753  33.201  12.101 -0.2060  0.0466  0.1661
 5705W        W24452  33.206  16.479  17.781  0.0821 -0.0128 -0.0493
 5706W        W24453  24.647   1.240   3.432 -0.0304 -0.1570  0.2795
 5707W        W24454  13.112   3.618  24.621 -0.2900  0.0047  0.1177
 5708W        W24455  28.770   7.389  15.705 -0.0212  0.1140  0.0548
 5709W        W24456  19.011  29.547   1.196 -0.0699 -0.0702 -0.0305
 5710W        W24457  10.106  27.126  11.693  0.3367 -0.2268 -0.1463
 5711W        W24458  15.595   3.614   5.263 -0.0762 -0.1068 -0.0216
 5712W        W24459  33.825  25.150  16.185  0.0206  0.1129 -0.1433
 5713W        W24460  33.138  20.939  24.602  0.2051  0.0559  0.0946
 5714W        W24461  16.018  15.064  22.918 -0.3974 -0.3540 -0.2982
 5715W        W24462  17.143  24.958  21.948 -0.0611  0.3278  0.1877
 5716W        W24463  16.183  28.881   8.118  0.1988  0.2749  0.1856
 5717W        W24464  30.808   4.770   3.572  0.1819  0.0803 -0.0588
 5718W        W24465   7.475  19.519  23.180 -0.1116 -0.2318  0.1081
 5719W        W24466  32.905  15.056  10.158  0.3611 -0.1897 -0.3328
 5720W        W24467  13.302  30.104   3.283  0.0993  0.3341  0.4620
 5721W        W24468   1.305  19.156  11.948 -0.1194 -0.1259  0.0736
 5722W        W24469  34.747  15.336   0.183  0.2188 -0.3039  0.0441
 5723W        W24470  34.874  32.380  18.137  0.3080  0.2131 -0.0851
 5724W        W24471  24.694   3.439   3.753  0.0308 -0.3618  0.3367
 5725W        W24472   6.974   1.423   5.436  0.3296  0.1032 -0.2541
 5726W        W24473  32.383   9.704  20.365 -0.1084  0.4023 -0.1686
 5727W        W24474   2.788   6.644  18.551 -0.2393  0.1278  0.0626
 5728W        W24475  34.805   9.363  11.832 -0.0694 -0.3940  0.1731
 5729W        W24476   6.380  14.978  23.682  0.3027  0.2832  0.0252
 5730W        W24477  20.723  10.375   5.938 -0.0935  0.0616 -0.1252
 5731W        W24478   7.263   0.866   3.803 -0.3775 -0.2962 -0.1204
 5732W        W24479  23.614  33.183  18.363  0.2902  0.2095 -0.0588
 5733W        W24480  13.443  29.034  11.378 -0.0546  0.0005  0.1808
 5734W        W24481  33.005  19.921  17.403 -0.0281  0.1726 -0.0051
 5735W        W24482   8.106  34.841   1.161 -0.0222  0.0766  0.0169
 5736W        W24483   1.362  10.477  17.336 -0.1082  0.1607 -0.0861
 5737W        W24484  25.719  29.102   1.776 -0.0112  0.0322 -0.2480
 5738W        W24485  16.809  31.573  11.327 -0.0480  0.1441 -0.0294
 5739W        W24486  23.183  32.161  15.956  0.1307 -0.0055 -0.2935
 5740W        W24487   5.730  14.165  22.086 -0.0592  0.1665  0.1302
 5741W        W24488   1.915  17.207   9.983  0.0520  0.2990  0.0235
 5742W        W24489   3.966   1.172   7.462  0.2979 -0.1928  0.2661
 5743W        W24490   0.704  11.677  23.124  0.2067  0.0350 -0.0030
 5744W        W24491  18.471  10.717  20.094  0.3226  0.3662  0.2414
 5745W        W24492   9.003  29.385  11.987  0.1549  0.1877 -0.0488
 5746W        W24493  16.111   3.950   6.352  0.2874 -0.0718  0.0599
 5747W        W24494  21.684  29.656  16.115  0.3711 -0.0248  0.1028
 5748W        W24495  21.497   5.946   6.802  0.0978 -0.1979  0.0045
 5749W        W24496  15.484  33.609   8.754 -0.3079 -0.1029 -0.0352
 5750W        W24497   6.633   0.476  11.736  0.3277 -0.1092  0.1052
 5751W        W24498  32.035  24.476  19.366 -0.2421  0.0226  0.0300
 5752W        W24499  35.076  15.648  10.617 -0.1332 -0.1167 -0.0803
 5753W        W24500  27.346  19.209  21.863 -0.0078  0.0066 -0.1502
 5754W        W24501  35.160   0.320  21.894 -0.0173 -0.1335  0.0568
 5755W        W24502   3.332  14.424  20.691  0.1720  0.2669 -0.0799
 5756W        W24503  23.563  16.254  15.313  0.1429  0.0001 -0.0442
 5757W        W24504  19.594  34.329  22.937  0.2207 -0.4228 -0.1690
 5758W        W24505   4.764  34.233   6.437  0.2853  0.1249 -0.0787
 5759W        W24506  35.316  26.882  22.097 -0.7879 -0.0873 -0.2396
 5760W        W24507  34.756  13.381   0.190 -0.0589  0.3439  0.0170
 5761W        W24508   1.079   9.810   0.848  0.0501  0.0726  0.0235
 5762W        W24509   0.473   4.632  14.030 -0.1707  0.0258 -0.5250
 5763W        W24510   4.713   9.765  18.959 -0.0870  0.2584  0.2533
 5764W        W24511  28.457   4.655   1.750  0.1658 -0.2044  0.0599
 5765W        W24512  21.523   9.393  21.182 -0.1838  0.0347  0.3199
 5766W        W24513  17.202  22.262  10.472 -0.0997  0.0590  0.0323
 5767W        W24514  13.292  32.683  20.387 -0.1076 -0.0135  0.0696
 5768W        W24515   3.842  17.231   4.971 -0.2476 -0.1314  0.0382
 5769W        W24516  11.622   5.660   8.332  0.3668  0.1623  0.2026
 5770W        W24517  15.620  34.752   8.963 -0.3087  0.2235 -0.0579
 5771W        W24518   1.151   1.388  23.468  0.3418 -0.0046 -0.0463
 5772W        W24519  14.606   1.445   4.366 -0.0744 -0.1485  0.0987
 5773W        W24520   1.001  29.294   8.667 -0.0026 -0.2686 -0.2947
 5774W        W24521  34.595   6.772  14.941  0.4089 -0.0924  0.0926
 5775W        W24522  12.527   8.769  14.867 -0.2840 -0.4465 -0.1397
 5776W        W24523  21.759  21.841  25.762 -0.1566  0.4997  0.0166
 5777W        W24524  16.600  13.457   8.184 -0.1207 -0.1079  0.0128
 5778W        W24525  32.341  22.752   9.667  0.0141  0.2054 -0.0854
 5779W        W24526  21.369  33.046  25.538 -0.0896  0.0637  0.0183
 5780W        W24527  28.624  11.602  16.510 -0.0465 -0.0801  0.1303
 5781W        W24528  29.063  11.848  20.162  0.2694  0.1566  0.1121
 5782W        W24529  34.565   8.743  19.229  0.3120 -0.1498  0.0169
 5783W        W24530  21.536  33.937  23.406  0.0800  0.1170  0.0489
 5784W        W24531  25.056   8.581  21.116  0.1087  0.4719  0.0970
 5785W        W24532  35.060   8.267  17.116 -0.4874 -0.2071 -0.1593
 5786W        W24533   3.342  14.728   3.810  0.0279  0.0423  0.2015
 5787W        W24534   6.212  11.105  21.707 -0.2007  0.0593  0.2020
 5788W        W24535  11.749  27.228  10.635 -0.1417  0.0616  0.1079
 5789W        W24536  15.225   7.720  25.011 -0.1823 -0.0840  0.0259
 5790W        W24537  14.646   0.594  25.875 -0.2474  0.0656  0.1148
 5791W        W24538  22.623  30.751  22.768 -0.2600 -0.0691 -0.0209
 5792W        W24539  15.448   1.059   7.988 -0.2240  0.1590 -0.0884
 5793W        W24540  10.852  16.669  10.089  0.2996 -0.1273 -0.2233
 5794W        W24541   5.404  25.010   4.091 -0.4036 -0.0727 -0.1880
 5795W        W24542  28.993   4.576   0.054  0.2049 -0.0263  0.1267
 5796W        W24543   0.332  16.710  22.035  0.1323  0.0065  0.0625
 5797W        W24544   1.948   8.465   0.320  0.1277 -0.2125  0.7580
 5798W        W24545  23.879   4.368  15.537 -0.2450 -0.0526 -0.0219
 5799W        W24546   1.652  22.318  20.039  0.4008 -0.2626 -0.0071
 5800W        W24547   2.981  31.002   9.963  0.1508  0.3172  0.1151
 5801W        W24548   9.657  34.031   9.097 -0.2125  0.2079  0.0860
 5802W        W24549  28.437  22.263  14.315 -0.0021 -0.1200 -0.3697
 5803W        W24550   9.463  14.491  19.105 -0.0437 -0.2315  0.1117
 5804W        W24551   5.537   7.196  20.246  0.2726 -0.1398  0.0942
 5805W        W24552  13.829  22.564   5.288 -0.0721  0.1858  0.0690
 5806W        W24553  25.390  20.625  22.541 -0.1401  0.0335  0.1249
 5807W        W24554  13.336   3.448  11.046 -0.0375  0.0551 -0.1920
 5808W        W24555  27.939  34.551   5.819 -0.0009  0.0477 -0.1486
 5809W        W24556   0.828  24.507  19.548  0.1665 -0.0317  0.0047
 5810W        W24557  26.124  17.296  20.262 -0.4533  0.2883  0.0399
 5811W        W24558   7.080  13.625  24.713  0.1921  0.0514  0.2697
 5812W        W24559  18.306   0.407  21.534  0.0333 -0.1640  0.4643
 5813W        W24560  15.044  25.840  13.500 -0.3135  0.0071  0.0735
 5814W        W24561  18.580   1.772   1.001 -0.0959  0.0687 -0.0529
 5815W        W24562   9.103  16.671  13.394  0.0496  0.2046 -0.1318
 5816W        W24563   9.284   4.309  10.244 -0.2156 -0.5513  0.4447
 5817W        W24564  17.650  10.695   2.397 -0.0097 -0.2563 -0.0958
 5818W        W24565  20.336   5.097   6.667 -0.2788 -0.0221 -0.0430
 5819W        W24566  11.621   8.229  10.540 -0.2590 -0.0053 -0.3218
 5820W        W24567  16.237  23.722   6.993 -0.0816  0.1871  0.0511
 5821W        W24568  14.224   9.872   9.896 -0.0898 -0.1813 -0.2870
 5822W        W24569  18.668  30.007   7.549  0.5571  0.2803 -0.2880
 5823W        W24570  23.688  20.681   1.461  0.1018  0.2766 -0.1985
 5824W        W24571  24.882  29.838  15.827  0.3303 -0.1657  0.1247
 5825W        W24572  16.212  10.138   4.260 -0.1154 -0.4198  0.0822
 5826W        W24573   4.436  18.301   0.961  0.1813  0.0038 -0.2911
 5827W        W24574  11.623   3.054   3.681 -0.1447 -0.4177 -0.3718
 5828W        W24575  32.052  16.524  23.181 -0.2121  0.0620  0.0080
 5829W        W24576   5.888  12.919  18.907 -0.0424 -0.0459  0.0407
 5830W        W24577  14.476  33.284   4.630 -0.0095  0.1651 -0.1668
 5831W        W24578  12.223  22.828  14.021  0.2835 -0.4962  0.1349
 5832W        W24579  14.368   8.054  13.908  0.0378  0.0527  0.0095
 5833W        W24580  18.738  28.043   4.231  0.5147 -0.0952 -0.1702
 5834W        W24581  28.522  31.048  19.748  0.2233  0.2856 -0.2551
 5835W        W24582   9.808  22.485  16.310  0.1254  0.0464  0.0065
 5836W        W24583  29.639  17.681  17.832  0.2970 -0.2120 -0.0865
 5837W        W24584  31.125  29.344  14.702  0.3734  0.0529 -0.3963
 5838W        W24585  32.223  13.730   9.594 -0.0925 -0.3282 -0.3959
 5839W        W24586  16.153  18.364  25.775 -0.0025 -0.1837 -0.1451
 5840W        W24587  15.649  30.826   0.976 -0.1547 -0.1722  0.1236
 5841W        W24588  26.138  22.231  14.781 -0.2603 -0.2349 -0.4759
 5842W        W24589   4.220   7.903  25.960  0.1762 -0.0192 -0.0381
 5843W        W24590  12.402  34.140   4.598  0.1386 -0.0179  0.1515
 5844W        W24591  11.646  18.703  21.318 -0.1057 -0.1939 -0.1658
 5845W        W24592  32.509   3.683  24.084 -0.2868  0.0404 -0.0931
 5846W        W24593  20.111   7.536  19.378 -0.0871  0.0670 -0.3531
 5847W        W24594   9.370  25.554   5.252 -0.0776  0.1163 -0.5232
 5848W        W24595   3.033  21.581  18.727 -0.0968 -0.1216  0.2996
 5849W        W24596  24.355  34.948  24.290 -0.0986 -0.0494  0.2600
 5850W        W24597  31.170  17.840  15.993 -0.0514  0.1330  0.0508
 5851W        W24598  33.204  10.387  17.181  0.0515  0.1660  0.2483
 5852W        W24599  21.562   1.646  22.852  0.0483  0.0912  0.1478
 5853W        W24600   1.431  19.260  12.462  0.0270 -0.1113 -0.1205
 5854W        W24601  30.783   4.561  11.235  0.0545  0.1102  0.1346
 5855W        W24602  35.110  30.547  15.404 -0.1892  0.0978 -0.1429
 5856W        W24603   4.892  11.707   2.772  0.1715 -0.1522  0.4076
 5857W        W24604  23.572  15.722   2.177  0.1220 -0.1051  0.3492
 5858W        W24605  28.468   8.278  19.454 -0.2199  0.0307  0.2476
 5859W        W24606  17.036  22.271   9.434 -0.0577 -0.0067  0.1445
 5860W        W24607  15.388   5.758  25.186  0.1849 -0.0552 -0.2498
 5861W        W24608  26.502  13.265  14.006  0.0189 -0.2206  0.1550
 5862W        W24609   5.188  11.761  17.524  0.0111  0.0207  0.0761
 5863W        W24610  28.036  11.956  26.191  0.1951 -0.2700  0.1907
 5864W        W24611  16.210  33.397  25.875  0.1224  0.0889  0.2170
 5865W        W24612   6.990   4.222   3.477 -0.1581 -0.2216 -0.0222
 5866W        W24613  18.555  25.587  22.145 -0.2286  0.2385 -0.0788
 5867W        W24614  16.736   8.418  13.723 -0.0481  0.2948 -0.0795
 5868W        W24615  33.042  32.032  19.977 -0.0980 -0.3501 -0.2372
 5869W        W24616  15.574   1.738  22.158 -0.0361 -0.0010  0.3678
 5870W        W24617  30.136  18.971  15.021 -0.2261 -0.0602  0.1619
 5871W        W24618  10.250  15.687  22.598  0.1490  0.0241  0.0907
 5872W        W24619  12.025   0.193  11.737  0.1298 -0.0351 -0.4569
 5873W        W24620   8.311  32.049  23.376 -0.0689  0.1538 -0.0167
 5874W        W24621   3.296  22.226  26.250 -0.1088 -0.1234  0.1644
 5875W        W24622  31.130  21.021   9.183  0.0848  0.0333  0.1073
 5876W        W24623  35.045  32.193   7.142  0.1057  0.1928  0.1981
 5877W        W24624  26.328   0.199  19.150 -0.0449 -0.1793  0.2418
 5878W        W24625   4.168  34.794   4.165 -0.0987 -0.2621 -0.5111
 5879W        W24626  26.982  23.157  25.590 -0.5350  0.1062  0.0704
 5880W        W24627  13.971  27.615  25.441 -0.0186  0.1380  0.1406
 5881W        W24628  28.825  21.268   8.290 -0.1907 -0.0723  0.0423
 5882W        W24629  25.793   8.016   2.369  0.2284 -0.3181  0.2508
 5883W        W24630  28.280  28.058  13.140  0.0520  0.3105 -0.1372
 5884W        W24631  31.101  12.346  22.776 -0.2427  0.1505 -0.2764
 5885W        W24632   6.172  19.324  23.434 -0.0224  0.1025  0.1746
 5886W        W24633  16.146  21.069   5.826 -0.0235 -0.3411 -0.2467
 5887W        W24634  24.011  19.212  25.304 -0.1009 -0.0920  0.1783
 5888W        W24635  32.104  23.830  18.505  0.1026  0.3009  0.5254
 5889W        W24636  23.138  29.914  17.514 -0.1387 -0.1238 -0.1367
 5890W        W24637  20.757  20.379  18.286  0.1861 -0.5049 -0.4959
 5891W        W24638   6.651   5.906  22.052 -0.0945  0.2606  0.1952
 5892W        W24639  23.225  20.276   1.537 -0.3961  0.1970  0.0242
 5893W        W24640  15.218  26.553   8.166 -0.1746 -0.3086  0.1009
 5894W        W24641  18.906  25.157   1.372  0.3187  0.1699 -0.1713
 5895W        W24642  33.749  25.265  23.875  0.0568  0.2839 -0.3466
 5896W        W24643  32.555  19.149   7.501  0.1350 -0.0677  0.0861
 5897W        W24644  16.457   8.121   0.706 -0.3370  0.0797  0.1032
 5898W        W24645   2.571  22.962  21.304 -0.1648 -0.1268 -0.0553
 5899W        W24646  13.294  24.688  13.807 -0.2103 -0.1878  0.0136
 5900W        W24647   8.681  17.061  26.017  0.1120  0.0398 -0.1142
 5901W        W24648   7.014  34.337  24.594  0.2789 -0.3483  0.0602
 5902W        W24649   6.770   5.420   5.512  0.2500 -0.0162  0.0332
 5903W        W24650   6.713  26.687   8.134 -0.3369 -0.1526 -0.3533
 5904W        W24651  33.436  14.673  20.290 -0.3255  0.4596 -0.4949
 5905W        W24652   4.512   2.488   2.537  0.2864  0.0299  0.1066
 5906W        W24653   9.812   9.762  14.209  0.0135 -0.1296  0.0007
 5907W        W24654   9.457  10.637   8.145 -0.0647  0.0576 -0.1646
 5908W        W24655  10.685   7.180  19.970 -0.1888 -0.0723  0.1685
 5909W        W24656  12.651  31.794  22.851  0.4059  0.1362 -0.0797
 5910W        W24657  25.453   2.642  16.819 -0.1978  0.2722 -0.0538
 5911W        W24658  21.160  27.845   4.206 -0.1809  0.0108 -0.1240
 5912W        W24659   7.225  24.430   3.002 -0.1171  0.1367 -0.1435
 5913W        W24660  25.598  23.511   8.918 -0.1846 -0.1125  0.0380
 5914W        W24661  33.509   2.152  15.534  0.1851 -0.2770  0.3147
 5915W        W24662  20.212   4.896  25.983 -0.4048  0.1214 -0.1683
 5916W        W24663   1.081  24.889  17.424 -0.1702 -0.2939  0.0632
 5917W        W24664  25.509  22.390   1.052 -0.0063 -0.0961 -0.3788
 5918W        W24665  29.062   3.397  26.096 -0.1082  0.1878 -0.1194
 5919W        W24666  23.142  15.964  15.608  0.0526  0.1934  0.0062
 5920W        W24667   9.003  25.445   6.633 -0.1956  0.0717  0.0365
 5921W        W24668   3.069  31.451   4.337  0.0332 -0.0249 -0.1739
 5922W        W24669  24.852  24.729  11.733  0.1630 -0.5394 -0.0295
 5923W        W24670  10.954  31.246   2.933 -0.1416 -0.1756  0.3082
 5924W        W24671   7.359   9.626  18.463 -0.1793  0.1423  0.0054
 5925W        W24672  28.081  20.224  21.391 -0.0592 -0.0915 -0.1289
 5926W        W24673  14.463  14.648   8.484  0.2739 -0.4340  0.0909
 5927W        W24674  34.543  13.483  17.614 -0.1439 -0.3093  0.2515
 5928W        W24675  10.294  32.397  16.119 -0.1733  0.1446 -0.0818
 5929W        W24676   7.614  21.802   6.719  0.0824 -0.0786  0.1374
 5930W        W24677  22.535  16.597  22.188 -0.1517 -0.1141 -0.1931
 5931W        W24678  24.697  34.555  12.951  0.0986  0.0077 -0.0754
 5932W        W24679  19.527  14.568   8.678  0.1555  0.2136 -0.1820
 5933W        W24680  26.163  16.380   7.000  0.0314  0.0505 -0.2993
 5934W        W24681  15.148  26.485  21.709  0.3641  0.3205 -0.0138
 5935W        W24682  28.401  16.996  16.331  0.0190 -0.0207  0.1712
 5936W        W24683  14.346  16.353   6.356  0.1462  0.1622  0.1734
 5937W        W24684  27.431   1.196  24.331  0.2253  0.2532 -0.1161
 5938W        W24685  13.646  16.188   9.661  0.1153 -0.2323  0.1216
 5939W        W24686  29.275  22.944  16.108  0.0289  0.2426 -0.0385
 5940W        W24687  27.355  32.821  19.312 -0.1520  0.3289 -0.1101
 5941W        W24688  15.662  13.916  21.476 -0.0961 -0.2790 -0.1441
 5942W        W24689  16.551  16.150  26.233  0.0770 -0.0935 -0.0678
 5943W        W24690  32.752  33.613  13.802 -0.0496 -0.0957 -0.1197
 5944W        W24691   9.503  11.227  24.688  0.1622 -0.1936  0.1473
 5945W        W24692   5.510  14.230   3.815  0.1977 -0.0760  0.0244
 5946W        W24693   5.778  27.613   7.381  0.0276  0.2427 -0.1375
 5947W        W24694  19.681   9.392   0.367 -0.1834 -0.1786  0.2665
 5948W        W24695   1.823  34.248  24.474  0.2713  0.0552 -0.1869
 5949W        W24696  16.338  10.308  23.978 -0.0538 -0.1470 -0.1452
 5950W        W24697  27.811  13.404  22.389  0.4193  0.3102  0.0873
 5951W        W24698   9.253  18.855  10.761  0.1285 -0.0687 -0.0075
 5952W        W24699  29.740  12.179  16.004 -0.0404 -0.0206 -0.0428
 5953W        W24700  10.228  21.727  21.239 -0.0944  0.1311  0.2856
 5954W        W24701   6.843  18.100   9.910  0.1181  0.1478  0.0540
 5955W        W24702   5.506   9.864  19.846  0.1132 -0.1889 -0.0231
 5956W        W24703  14.507  22.544  13.790 -0.3782  0.0891 -0.0224
 5957W        W24704   7.583  13.840  18.903 -0.0944 -0.2557 -0.0380
 5958W        W24705   9.726   2.762  25.374  0.2894 -0.0630 -0.0958
 5959W        W24706  30.150  15.206  11.645  0.0406  0.0295  0.1069
 5960W        W24707  23.483  28.255  21.816  0.3685  0.0293 -0.0551
 5961W        W24708  30.337  14.177  11.517 -0.1579 -0.3500 -0.2380
 5962W        W24709  19.726  24.052  21.677 -0.0328  0.5131 -0.0187
 5963W        W24710  32.119   4.290  22.120 -0.1656  0.2646  0.0532
 5964W        W24711  14.763   8.655  12.241 -0.0967  0.0233 -0.0369
 5965W        W24712   5.200  13.654  19.806  0.1445  0.0594  0.0620
 5966W        W24713  13.701   1.486  18.812 -0.2405 -0.5207  0.2912
 5967W        W24714   9.471   7.527  19.563  0.2394  0.0057 -0.1257
 5968W        W24715   8.057  10.936  11.139 -0.2287  0.0874  0.3240
 5969W        W24716  20.581   7.259  19.014 -0.1170 -0.3317 -0.1073
 5970W        W24717  23.921  34.025   0.697  0.0821  0.2150 -0.0404
 5971W        W24718  27.977   4.939  20.930 -0.0466  0.1183 -0.3450
 5972W        W24719   9.038   3.875   8.245 -0.1195  0.2066 -0.0746
 5973W        W24720  19.942   0.072  26.078 -0.1058  0.1382  0.1884
 5974W        W24721   2.927  18.262  13.688  0.2279  0.1485  0.2480
 5975W        W24722   9.394  21.415  22.761  0.2193 -0.0073  0.0534
 5976W        W24723   7.445   4.096   8.712  0.1247  0.0631  0.0875
 5977W        W24724  24.560  13.660  16.248 -0.1925 -0.2050  0.0375
 5978W        W24725   4.059  25.037   1.895 -0.2019  0.0422 -0.2222
 5979W        W24726   4.797  35.192   8.397 -0.3874  0.2681 -0.2615
 5980W        W24727  11.820  22.858   7.611  0.1304  0.0989 -0.0717
 5981W        W24728  29.944   7.852  12.208 -0.3820  0.0723  0.1319
 5982W        W24729  32.033   0.326  24.885  0.0617  0.0206 -0.0032
 5983W        W24730  15.149  29.992   4.026 -0.0499  0.1408  0.1229
 5984W        W24731  26.602  21.372  19.906  0.2889  0.0379 -0.2071
 5985W        W24732   8.014  10.030   4.865  0.2620 -0.0974 -0.1845
 5986W        W24733  24.210   7.105  16.170  0.1625 -0.0884  0.0058
 5987W        W24734  21.380   5.660  22.634 -0.0113 -0.0163 -0.0245
 5988W        W24735   5.048  10.555  26.100 -0.3060 -0.0806 -0.1546
 5989W        W24736   6.253  27.582  21.151  0.4015 -0.0285 -0.1394
 5990W        W24737   7.285  11.764   4.856 -0.1689 -0.0085 -0.1692
 5991W        W24738  29.845  13.465  22.764 -0.1048 -0.1449  0.0224
 5992W        W24739   4.378  27.766  25.366 -0.0082 -0.2168  0.1510
 5993W        W24740  15.806   3.412  19.444  0.0009  0.1748  0.0388
 5994W        W24741  32.342  14.721  12.144  0.1043  0.4712 -0.4225
 5995W        W24742  27.286  23.999  11.610  0.0851  0.1442  0.1585
 5996W        W24743  34.775  13.903  21.122  0.0012  0.1116 -0.3844
 5997W        W24744  32.980  28.607  24.661 -0.0862  0.2218  0.0943
 5998W        W24745  17.683   9.574   0.431  0.2294  0.0373 -0.0272
 5999W        W24746  29.258  28.313  21.237 -0.0603 -0.1329 -0.2326
 6000W        W24747  24.015  18.607  18.848 -0.2007  0.0463 -0.1531
 6001W        W24748   9.578  16.560  23.464 -0.0836  0.1476 -0.1682
 6002W        W24749  21.257  13.949  17.506 -0.2020 -0.0118  0.1922
 6003W        W24750   8.121  30.797   8.365 -0.0640  0.1193  0.2714
 6004W        W24751  12.449  23.119  11.053  0.0291 -0.3140 -0.2168
 6005W        W24752  30.421  10.217  11.291 -0.2234  0.2820 -0.0703
 6006W        W24753   0.989  34.227  20.167  0.1108  0.3994 -0.2204
 6007W        W24754  16.732  15.145  24.099 -0.0837  0.0033  0.3024
 6008W        W24755  26.602  18.480  12.845 -0.1676 -0.0610  0.1918
 6009W        W24756  32.979  21.147  23.942  0.0065 -0.1791  0.2127
 6010W        W24757  10.627  14.969  22.865  0.0362  0.1293 -0.0183
 6011W        W24758  17.785   2.934   7.754  0.1868 -0.1764 -0.1124
 6012W        W24759   6.994   8.920  12.138  0.2998 -0.0195 -0.2160
 6013W        W24760  25.642  27.133  23.949 -0.0062 -0.0870  0.2152
 6014W        W24761   9.749   7.835  25.086  0.2569  0.0579  0.1944
 6015W        W24762  27.516  17.230  23.505 -0.0701 -0.1870 -0.2594
 6016W        W24763  21.804  33.084  25.209 -0.2120 -0.3797 -0.2533
 6017W        W24764  12.022   7.382   0.910  0.3229  0.0910  0.2368
 6018W        W24765   2.408  30.598  19.993  0.2108 -0.2916  0.3404
 6019W        W24766   1.249  22.677  21.060 -0.0304  0.0364 -0.1153
 6020W        W24767  21.911  28.317  25.530 -0.0546 -0.1859 -0.0592
 6021W        W24768   9.226  20.402  23.142  0.0848 -0.1423  0.1473
 6022W        W24769  27.609  35.260  16.829 -0.1304  0.1376  0.2378
 6023W        W24770  18.513  16.696   7.016  0.0889  0.2176  0.0203
 6024W        W24771  30.115  22.304  17.731  0.2173 -0.2548  0.0436
 6025W        W24772  13.838  27.893  13.069 -0.1742 -0.1073 -0.1054
 6026W        W24773   6.620  19.149  24.385 -0.1225 -0.2457  0.1617
 6027W        W24774  16.775  16.000  10.794  0.3710  0.2927 -0.0416
 6028W        W24775   7.690  20.758  23.017 -0.2449  0.0823 -0.2175
 6029W        W24776  31.415  25.851  13.226  0.1668 -0.2697 -0.0275
 6030W        W24777  18.759  23.789   2.549  0.1386 -0.0175 -0.1100
 6031W        W24778   0.947  15.011  20.674 -0.2777 -0.2384  0.2345
 6032W        W24779  26.111  26.432  17.637  0.0277 -0.0079  0.2417
 6033W        W24780  30.663   1.877  18.825  0.1497  0.0128  0.2852
 6034W        W24781  29.183  28.980  15.473  0.1554 -0.2045  0.0144
 6035W        W24782   7.144   7.664  24.696  0.0862 -0.0570  0.1959
 6036W        W24783  11.417  12.870   1.645 -0.1711 -0.2333  0.1239
 6037W        W24784  12.620  12.046  11.773  0.2369 -0.3087 -0.0257
 6038W        W24785  16.532  29.065  25.491  0.0847  0.1664 -0.2671
 6039W        W24786   2.813  26.199  17.729  0.0530 -0.1956  0.2343
 6040W        W24787  17.923  24.405   2.824  0.0420 -0.0279 -0.1027
 6041W        W24788   0.954  31.316   5.881 -0.0657  0.2936  0.2452
 6042W        W24789  31.686   3.100   0.356  0.0377  0.2412 -0.1633
 6043W        W24790  30.140  11.812  25.800  0.1172  0.0498  0.3271
 6044W        W24791  13.923   6.561   4.537 -0.5066  0.1214 -0.1039
 6045W        W24792  15.799  23.883   4.466  0.1991  0.0428 -0.0626
 6046W        W24793  33.547  20.258  19.960 -0.0213 -0.3697 -0.1716
 6047W        W24794   5.806  15.339  11.137 -0.2789  0.1078 -0.1915
 6048W        W24795  21.782   9.257   1.969  0.0244 -0.0751 -0.0995
 6049W        W24796  26.552  23.912  24.539  0.0555 -0.0101 -0.1507
 6050W        W24797  34.481  10.687  15.786  0.4265  0.0465 -0.1147
 6051W        W24798   3.906  14.956  15.798  0.1530  0.1008  0.1839
 6052W        W24799  34.916  28.726   2.223 -0.2542 -0.1149  0.0352
 6053W        W24800  19.566  16.181   8.628  0.2598  0.0836  0.4586
 6054W        W24801  27.984  15.897  20.821  0.0955  0.0424 -0.1810
 6055W        W24802  17.938  15.665   6.139 -0.1847  0.1543 -0.0482
 6056W        W24803  30.403  11.160  16.205 -0.2143 -0.1087  0.1168
 6057W        W24804  22.688  27.826  23.526  0.2129  0.0628 -0.0083
 6058W        W24805  16.439   8.466  19.223 -0.1901  0.0595 -0.0032
 6059W        W24806  26.450  30.320  23.115  0.0428 -0.0886  0.0640
 6060W        W24807  25.116  24.273  10.875 -0.2954  0.3597  0.0629
 6061W        W24808  34.382   6.964  13.026  0.1720 -0.1501  0.0871
 6062W        W24809  23.464  13.281  16.706  0.0479 -0.0015  0.3684
 6063W        W24810  21.349   7.209   0.460 -0.0364  0.2753 -0.0476
 6064W        W24811   9.051   3.507   1.252  0.2807 -0.0600 -0.2005
 6065W        W24812   6.436  31.037  24.445  0.0643 -0.1879 -0.1317
 6066W        W24813  21.007  18.451  24.085  0.1470  0.2195  0.1006
 6067W        W24814  34.729  33.134   3.632  0.1773  0.0587 -0.1339
 6068W        W24815  23.733  29.292   1.184 -0.1544 -0.0279 -0.1107
 6069W        W24816   1.788  32.262  17.922  0.3211  0.0474 -0.1824
 6070W        W24817   8.210  16.455  22.103 -0.2090 -0.2722 -0.0510
 6071W        W24818  13.737  29.811  15.988  0.2124 -0.0512 -0.2389
 6072W        W24819   8.115  25.584  16.321  0.0399  0.0995  0.3448
 6073W        W24820  12.439  19.456  12.668 -0.1525 -0.1268 -0.0146
 6074W        W24821  15.678   7.693  21.225 -0.0440 -0.0062  0.2260
 6075W        W24822  12.307   3.125   9.973  0.1674  0.2661  0.0299
 6076W        W24823  27.295  16.797  25.513  0.3580  0.1394  0.1085
 6077W        W24824  27.892  25.268  14.724 -0.2480 -0.2797 -0.1185
 6078W        W24825  22.273  10.761   3.882 -0.0965  0.0844  0.1748
 6079W        W24826  30.622   0.267  22.002  0.0791  0.3338  0.0260
 6080W        W24827  12.263  10.239  20.392  0.4202  0.3644  0.0147
 6081W        W24828  12.071   2.855   6.029  0.1258  0.0941  0.0405
 6082W        W24829  18.043   3.693  25.678 -0.0394 -0.3661  0.0106
 6083W        W24830  28.381  24.721  25.386 -0.0848 -0.1072 -0.0070
 6084W        W24831   9.987  25.006  24.402  0.3054 -0.2144  0.2552
 6085W        W24832  14.306  10.755   4.486  0.1640 -0.0644 -0.0262
 6086W        W24833  12.739  20.740  25.228 -0.0155  0.1236 -0.0721
 6087W        W24834  24.709  23.694  23.331 -0.0915  0.1276 -0.0916
 6088W        W24835  27.398  29.067  11.133 -0.2029  0.2760  0.1355
 6089W        W24836  15.795  13.334  22.668 -0.1884  0.0478  0.0579
 6090W        W24837  19.051   5.672  12.233 -0.0041 -0.0174 -0.0262
 6091W        W24838  10.365  23.773  14.727 -0.2221 -0.2186  0.1654
 6092W        W24839  14.747  28.171   1.057  0.1640 -0.4588  0.2196
 6093W        W24840   8.897  11.668  21.872  0.0047 -0.0147  0.0343
 6094W        W24841  18.512  32.114  24.388  0.0389  0.0679 -0.0177
 6095W        W24842  15.070   1.392  19.987 -0.0183  0.1741 -0.2059
 6096W        W24843  27.556  30.290  25.699  0.1786 -0.1250 -0.0738
 6097W        W24844   0.558  27.131   1.297 -0.1299  0.2487  0.1979
 6098W        W24845  17.906  14.799   0.173  0.0114  0.1307 -0.0793
 6099W        W24846  17.341  33.648  24.799  0.3122 -0.2436 -0.0740
 6100W        W24847   3.811  25.782   2.460  0.0483  0.2847 -0.4589
 6101W        W24848  33.742  25.042  14.198  0.4778  0.0663  0.3932
 6102W        W24849  29.266  30.798  24.031  0.0479  0.1158 -0.2597
 6103W        W24850  11.099   3.669   9.942 -0.1189 -0.2470  0.1683
 6104W        W24851  31.419  16.795  14.868  0.0170 -0.0992 -0.0244
 6105W        W24852   3.778   4.934  25.715  0.2585  0.0363  0.2028
 6106W        W24853   2.086  10.319  21.957 -0.1333 -0.0881  0.1553
 6107W        W24854  28.304  25.680  15.147  0.0007 -0.1439 -0.0997
 6108W        W24855  14.969   0.479  19.711  0.0619  0.0157  0.0579
 6109W        W24856  31.173  26.284   2.065  0.4678 -0.3101 -0.0269
 6110W        W24857  27.835  25.155   9.864  0.0026 -0.2257  0.2777
 6111W        W24858  23.498   4.101   2.104 -0.0425  0.1618 -0.1067
 6112W        W24859   9.292  23.640  24.732  0.0855 -0.0068  0.2322
 6113W        W24860  12.952  30.844   0.448 -0.0443 -0.1786  0.2638
 6114W        W24861  14.020  13.441   4.140  0.2138  0.2545 -0.2694
 6115W        W24862  35.381   9.611   2.006  0.2039  0.0792  0.1592
 6116W        W24863  15.468  17.283   8.693  0.1838 -0.1600  0.0538
 6117W        W24864   6.722  31.092  21.525 -0.0859 -0.1603  0.3065
 6118W        W24865   7.709  15.231  24.783 -0.1415 -0.1957  0.1978
 6119W        W24866  12.650  26.913  14.422 -0.2301  0.2106 -0.0198
 6120W        W24867   4.663  35.172   7.518  0.2448  0.4706 -0.0417
 6121W        W24868  23.200   9.885  19.837 -0.1997 -0.1425 -0.0753
 6122W        W24869  16.690  17.712   9.519  0.3740  0.0226  0.0382
 6123W        W24870  13.616  14.230  23.955 -0.0812 -0.1136 -0.1170
 6124W        W24871   3.142  15.548  22.062 -0.0914  0.1242 -0.2479
 6125W        W24872  24.140  33.295  19.226 -0.1694 -0.0479  0.0897
 6126W        W24873  18.615  19.502  11.591 -0.0798 -0.2427  0.1448
 6127W        W24874  24.900  26.691  20.408  0.1527 -0.1865  0.3674
 6128W        W24875  26.782  25.672  17.506  0.0717 -0.1517  0.4839
 6129W        W24876   9.288  14.366   4.692  0.0175 -0.3041 -0.2351
 6130W        W24877   5.915  18.937  18.944  0.1495 -0.0192  0.0351
 6131W        W24878  30.337   3.746  20.093 -0.1736  0.0886  0.1676
 6132W        W24879  14.930  10.952  21.525 -0.3204  0.1794  0.0682
 6133W        W24880  30.563  34.443  21.564  0.2510 -0.1601  0.1117
 6134W        W24881   0.068  16.745  12.655  0.0258  0.2549  0.0151
 6135W        W24882  13.917  27.907  23.362 -0.1929 -0.2646  0.3235
 6136W        W24883  14.171  26.994  23.625  0.2084 -0.0509 -0.1491
 6137W        W24884  24.626  23.895  22.001  0.3691  0.0183 -0.0892
 6138W        W24885   8.660  17.823   5.688  0.0469  0.2357 -0.1654
 6139W        W24886  34.422  31.371  25.141  0.1365  0.0809 -0.0102
 6140W        W24887  32.717   5.536   4.184 -0.0641 -0.1695  0.1235
 6141W        W24888   1.735  10.783   4.435 -0.2771 -0.0746  0.2285
 6142W        W24889   8.904  12.727  23.272  0.0995  0.1700  0.0691
 6143W        W24890   1.930   5.030   0.135  0.0869 -0.2929 -0.0018
 6144W        W24891   1.421  21.095  18.253  0.1830 -0.2096  0.0484
 6145W        W24892  31.965   0.439  22.318  0.0488  0.2713  0.3722
 6146W        W24893  30.044   4.716  25.166  0.3277 -0.0729  0.1418
 6147W        W24894  16.983  29.523  19.826  0.1517  0.2361 -0.0336
 6148W        W24895  25.999   5.276  22.772 -0.1907 -0.0937 -0.0695
 6149W        W24896   5.701   4.653   9.923 -0.1315  0.1090  0.2225
 6150W        W24897  34.560   6.168   3.088 -0.0441  0.2564 -0.2973
 6151W        W24898  21.835   5.495  22.872  0.2650  0.5802  0.2516
 6152W        W24899  24.485  25.618   3.261  0.4412  0.0502  0.0838
 6153W        W24900   5.567  17.025   1.572  0.0751  0.1905  0.1606
 6154W        W24901  31.120  16.757  15.288 -0.0727  0.2307 -0.0587
 6155W        W24902  12.041   8.875   0.363  0.2755  0.0383 -0.0851
 6156W        W24903   4.574  12.334   5.724 -0.0651 -0.1534  0.1533
 6157W        W24904  27.141  18.054  10.024  0.0698 -0.0342  0.1577
 6158W        W24905   3.682  14.082   2.525  0.3271 -0.1671 -0.2884
 6159W        W24906  22.935  15.528  19.655  0.0662 -0.1768 -0.3943
 6160W        W24907  10.860  19.411   5.583 -0.1328  0.1944 -0.0409
 6161W        W24908  32.431  34.222  15.145 -0.1154  0.0733 -0.0791
 6162W        W24909  27.504  14.641  17.747 -0.0202  0.0195  0.0504
 6163W        W24910  32.687   6.712  16.417  0.0136  0.0999  0.0077
 6164W        W24911   8.968  21.643   1.155 -0.0798  0.1408  0.0661
 6165W        W24912  31.393  12.295   6.380 -0.0776  0.0359 -0.2248
 6166W        W24913  21.899   6.539   0.098 -0.1213  0.3332 -0.0443
 6167W        W24914  22.574  28.990   6.330 -0.1159  0.1054 -0.2481
 6168W        W24915  17.002  28.370  21.993  0.1526 -0.2284 -0.0144
 6169W        W24916  12.357   7.684   1.850 -0.0095 -0.3400 -0.0361
 6170W        W24917   1.903   0.283  21.420  0.3383 -0.1678 -0.1278
 6171W        W24918  13.083  10.170   7.730 -0.0272 -0.1830  0.0360
 6172W        W24919  35.356   0.043  20.841 -0.2359  0.5473  0.0453
 6173W        W24920  28.341  30.712  18.497  0.0552 -0.1105  0.2411
 6174W        W24921  23.109  13.102  16.403 -0.0217  0.0606 -0.2668
 6175W        W24922  13.506   1.318  21.015 -0.0944 -0.2084 -0.2453
 6176W        W24923   5.348   3.905  23.008  0.0232 -0.0321  0.0213
 6177W        W24924  20.661  23.606   4.754 -0.2315 -0.1844  0.1021
 6178W        W24925   0.590  10.443  10.964 -0.2642 -0.2211 -0.0043
 6179W        W24926  17.785  24.613  11.161 -0.1127  0.1950 -0.1702
 6180W        W24927  29.045  30.839  18.814  0.2103  0.0475 -0.1578
 6181W        W24928  13.654   5.718  25.814  0.1040  0.2504 -0.1864
 6182W        W24929  15.557  13.967   7.399  0.0788  0.3981 -0.0878
 6183W        W24930  13.631  23.876   1.462 -0.1858  0.2956  0.0169
 6184W        W24931   5.288  25.761   0.531  0.0044 -0.1257 -0.2434
 6185W        W24932  17.872  29.008   7.846 -0.0391 -0.2348 -0.0669
 6186W        W24933  17.843  32.520  24.067 -0.1841 -0.3330  0.0565
 6187W        W24934  24.226  30.079  21.857 -0.0003  0.2269  0.0516
 6188W        W24935  15.486  19.755   9.693  0.1749 -0.0928 -0.1025
 6189W        W24936  34.019   7.034  17.088  0.2268 -0.7136 -0.1568
 6190W        W24937  33.501  24.182   9.299  0.0955  0.3260 -0.0447
 6191W        W24938  29.074  21.451   6.611  0.0895  0.2143  0.0068
 6192W        W24939  24.876  14.712   8.223 -0.0912  0.2808 -0.1958
 6193W        W24940   9.079  10.897   9.172  0.0324 -0.1418 -0.1286
 6194W        W24941  29.303   5.713   2.616 -0.0534  0.1901 -0.2246
 6195W        W24942  32.066  17.065   9.627 -0.0170 -0.0237 -0.2663
 6196W        W24943  35.213   9.970  25.208  0.0981  0.1133  0.0479
 6197W        W24944   8.107  15.794  10.132 -0.0069 -0.2474 -0.0120
 6198W        W24945   7.946   6.106  10.441  0.0778  0.0181 -0.0253
 6199W        W24946  15.231   9.816   0.953  0.1056  0.2068 -0.0540
 6200W        W24947  29.686  22.039  16.246 -0.0700 -0.0876 -0.1320
 6201W        W24948  20.854   4.508  24.475 -0.2851 -0.3094  0.1226
 6202W        W24949  30.852  26.809  26.117  0.0034 -0.3135 -0.0068
 6203W        W24950   8.683  10.087  24.853 -0.0357 -0.2200  0.0573
 6204W        W24951  34.305  26.294  23.436  0.2690  0.1763  0.0990
 6205W        W24952   7.402  29.092  10.895 -0.1868  0.1645 -0.2228
 6206W        W24953   0.722  18.087   9.721  0.1014 -0.1397 -0.1492
 6207W        W24954   8.079  26.527  10.587  0.0237  0.2369 -0.0237
 6208W        W24955  21.297  29.545   4.219  0.0808 -0.1765  0.2679
 6209W        W24956   0.588   4.804  14.867  0.1402  0.1232  0.0840
 6210W        W24957   6.459  32.063  23.453 -0.1652 -0.0346  0.1799
 6211W        W24958  12.136  27.441  13.544  0.0013  0.0963 -0.0731
 6212W        W24959  10.056  25.027   0.931  0.2094 -0.0398 -0.0065
 6213W        W24960   5.664   3.512   7.265  0.0673  0.1658 -0.0356
 6214W        W24961  26.710  25.529  13.157 -0.0563  0.3141 -0.0441
 6215W        W24962  23.496  27.307  13.638 -0.1077  0.1422 -0.3113
 6216W        W24963   0.856  20.720  10.763  0.4357  0.1901 -0.0880
 6217W        W24964  22.878   2.937  14.728 -0.0685  0.0915 -0.2932
 6218W        W24965  15.925   9.809   4.772  0.0886 -0.0094 -0.1642
 6219W        W24966   0.593  28.271   6.307  0.0070 -0.0750 -0.1101
 6220W        W24967   6.456  29.664  23.742  0.1053  0.1244  0.3633
 6221W        W24968   9.447  23.927  12.371  0.0715 -0.0688 -0.1023
 6222W        W24969  16.037  28.335  10.986 -0.0521  0.2338 -0.1561
 6223W        W24970  15.500   3.896   6.721  0.0071  0.1133  0.0795
 6224W        W24971  12.612  21.869  14.280  0.3118  0.0636 -0.3255
 6225W        W24972  32.429   0.519  21.197  0.1236 -0.3142  0.1298
 6226W        W24973   0.031  21.815  21.445 -0.0853  0.1924  0.0921
 6227W        W24974  10.170  32.284  14.396 -0.0406  0.2316  0.0145
 6228W        W24975  13.958   2.523   1.919  0.0626 -0.1839  0.1001
 6229W        W24976  17.124  11.671   3.868 -0.2418 -0.1688  0.2479
 6230W        W24977  22.735  29.531  24.076  0.0272  0.0819  0.2920
 6231W        W24978  27.722  27.796  18.637  0.0935  0.0442  0.0875
 6232W        W24979   6.022   1.737   1.591 -0.0057 -0.0742 -0.0482
 6233W        W24980  32.886  13.075   6.783 -0.2138  0.1527  0.0439
 6234W        W24981  26.807  26.802  25.222  0.1531  0.2544  0.2687
 6235W        W24982  11.861  25.863  16.870  0.0219 -0.1715 -0.1094
 6236W        W24983  13.607   8.557   8.270 -0.1891 -0.0341  0.0829
 6237W        W24984  27.614  18.266  24.266  0.0053 -0.1812 -0.0427
 6238W        W24985  25.432  33.588   5.239  0.2149  0.5184 -0.1165
 6239W        W24986  19.705   2.431   4.004  0.0266 -0.0654 -0.0545
 6240W        W24987  33.779  31.743  13.211  0.0943  0.1097 -0.2405
 6241W        W24988  32.590  22.387  22.677 -0.1900  0.0608  0.1062
 6242W        W24989  14.392  10.400   9.888 -0.2624 -0.2506  0.0275
 6243W        W24990   0.091  17.412  21.565  0.0542  0.0341 -0.0758
 6244W        W24991  10.205   2.674  10.243  0.0492 -0.0041 -0.1375
 6245W        W24992  28.783  19.297  12.690  0.4294  0.2316  0.1031
 6246W        W24993  15.791  29.200  12.242 -0.0485 -0.2096  0.1632
 6247W        W24994   1.615  14.440  21.732  0.0866  0.3725  0.2407
 6248W        W24995  22.773  31.166   3.568  0.3766 -0.0822 -0.0158
 6249W        W24996   7.404  11.014   6.788  0.2965  0.1939  0.0837
 6250W        W24997  26.762   3.380   2.053 -0.0621  0.0019  0.3412
 6251W        W24998  21.151  32.689  16.878  0.1441  0.1574 -0.2777
 6252W        W24999  31.435   7.748  11.991  0.1464  0.4678 -0.1218
 6253W        W25000  18.218  19.249  23.594  0.3117  0.1287 -0.2216
 6254W        W25001  10.930  27.696  23.657 -0.4710 -0.0424  0.0732
 6255W        W25002   7.692  26.684   4.726 -0.3169  0.0601  0.2546
 6256W        W25003  14.770  29.619   9.854 -0.0803  0.1584  0.0208
 6257W        W25004   3.704   8.428   6.352 -0.0100 -0.0828 -0.4105
 6258W        W25005   2.458  15.540  19.012  0.0216  0.1945  0.0137
 6259W        W25006  17.540  33.971  21.999  0.0405  0.2647 -0.0296
 6260W        W25007  34.938   7.666  14.830  0.1509 -0.3602 -0.0612
 6261W        W25008  10.186  23.145  16.613 -0.0425 -0.1278 -0.2048
 6262W        W25009   7.848  32.605  13.004  0.1975 -0.0170 -0.0552
 6263W        W25010  30.065   3.796   1.870 -0.1488  0.1921 -0.0408
 6264W        W25011  25.340  19.351  20.204  0.2709 -0.0458 -0.1789
 6265W        W25012   0.774   6.771  18.952 -0.3118  0.4948 -0.0415
 6266W        W25013   0.864  31.598   8.086  0.3255  0.0352  0.0700
 6267W        W25014  16.815  27.126  22.037 -0.1091 -0.1271 -0.0572
 6268W        W25015   6.546  30.678   2.121  0.0394 -0.1839 -0.2148
 6269W        W25016  20.333   9.770  23.924 -0.0649  0.1397 -0.6846
 6270W        W25017  11.316  22.741  10.395  0.0096  0.2970  0.2344
 6271W        W25018  24.305  33.248  19.687  0.2429  0.0120 -0.1902
 6272W        W25019   2.214  24.067  22.089  0.3139 -0.0983  0.1280
 6273W        W25020  14.587  25.319   1.097  0.0888  0.0029  0.0475
 6274W        W25021  19.061  33.226   7.793  0.1331 -0.2727  0.1032
 6275W        W25022  13.466  15.194   5.712  0.0317 -0.1134 -0.4205
 6276W        W25023  19.174  18.786  23.836 -0.2625  0.0894 -0.0700
 6277W        W25024  17.260  12.754  10.301 -0.0430 -0.1036  0.0170
 6278W        W25025  23.485  19.377  23.755 -0.2540 -0.0961  0.1384
 6279W        W25026  20.512   0.289  24.957 -0.4264 -0.0422  0.1246
 6280W        W25027  25.179  15.431  12.179 -0.1826  0.0040  0.0116
 6281W        W25028  14.975   7.474   2.934  0.1651 -0.3212  0.1855
 6282W        W25029  29.086  10.830  23.017  0.1943 -0.1435  0.1680
 6283W        W25030   0.500  27.021   4.729  0.1758 -0.0410 -0.2148
 6284W        W25031  16.634   2.004  24.805  0.1288 -0.0375  0.2452
 6285W        W25032   0.989  16.119  13.741  0.0079  0.0345  0.1984
 6286W        W25033  18.096   8.267   6.161  0.0275  0.0280  0.0246
 6287W        W25034   3.873   9.191   4.634  0.2768  0.0190  0.1812
 6288W        W25035  20.857  27.812   6.179  0.1496 -0.0352  0.6004
 6289W        W25036   4.708   1.644  19.221  0.1924 -0.0066 -0.2369
 6290W        W25037   8.037  29.876  11.008  0.0258  0.0716  0.0790
 6291W        W25038  27.240  34.372  10.868  0.3109  0.0833  0.1518
 6292W        W25039  32.892  10.599  18.451 -0.2479 -0.2135  0.0613
 6293W        W25040  29.495   3.005  19.132 -0.1403 -0.1921 -0.1109
 6294W        W25041   4.934  13.564   4.905 -0.2093 -0.2185 -0.3066
 6295W        W25042  30.548   1.020  26.003  0.2798 -0.1039 -0.0593
 6296W        W25043  34.977  31.241  24.301 -0.3996 -0.1670 -0.1100
 6297W        W25044  29.603  13.861  19.957 -0.1110 -0.5258  0.0904
 6298W        W25045  12.428  28.324   4.185  0.1312  0.0786 -0.0541
 6299W        W25046   9.651  33.438  14.532  0.2781  0.2488 -0.2612
 6300W        W25047  25.718  30.796  18.769  0.1149  0.1889  0.1061
 6301W        W25048  34.597  25.274  15.717  0.1467  0.1996 -0.1405
 6302W        W25049   8.576   1.143  23.675 -0.1264 -0.1239  0.2826
 6303W        W25050   7.078  28.556  22.121 -0.2029  0.1686 -0.2785
 6304W        W25051   1.260  23.842  21.035 -0.1409  0.1006 -0.2472
 6305W        W25052  20.710  32.866   2.278 -0.3554  0.2208  0.0773
 6306W        W25053  34.233  34.408   4.056 -0.1283 -0.1103  0.0340
 6307W        W25054  16.290   9.539  19.886 -0.0230  0.0235 -0.3201
 6308W        W25055  20.737  28.210  18.720 -0.0607 -0.0492  0.0053
 6309W        W25056  31.555  14.421  20.544  0.0214  0.0868  0.3593
 6310W        W25057  17.415  28.348   3.866 -0.0263  0.1434 -0.1955
 6311W        W25058  21.635  31.470  23.925 -0.2806 -0.2759 -0.0564
 6312W        W25059  29.212  26.812  25.611 -0.3329 -0.0241 -0.1306
 6313W        W25060  30.750  10.274  16.405  0.4400  0.3383  0.1437
 6314W        W25061  21.775  16.404   1.243  0.0549 -0.0044  0.4402
 6315W        W25062  30.332  34.702  22.410 -0.1864  0.1344  0.0811
 6316W        W25063  22.194  21.633  26.020  0.0689  0.2164 -0.0744
 6317W        W25064  23.899   6.359  18.764 -0.2256  0.2634 -0.2384
 6318W        W25065  28.398  18.371  23.477 -0.3466  0.3685  0.1004
 6319W        W25066  35.155   3.912  19.958  0.1917 -0.2560  0.0730
 6320W        W25067  19.036   0.857  19.822  0.0469  0.2665  0.1465
 6321W        W25068   2.178  33.881   1.103  0.1742 -0.1400 -0.1218
 6322W        W25069  11.659   9.079  20.913  0.4309  0.1386  0.0680
 6323W        W25070  15.000  28.977   2.862 -0.1751  0.0121 -0.0019
 6324W        W25071  18.251  27.838  22.275 -0.3045 -0.2659  0.3534
 6325W        W25072  30.983  14.842  22.216  0.0185 -0.1951  0.1605
 6326W        W25073  28.056  34.808  22.449  0.1442 -0.4090  0.0988
 6327W        W25074   2.119  30.700   9.068 -0.1945 -0.1364 -0.1209
 6328W        W25075  23.985  16.151  10.143  0.2339  0.1371  0.1517
 6329W        W25076  14.438   6.813   1.829 -0.1354 -0.0613 -0.1674
 6330W        W25077  17.535  23.381   8.343  0.0416  0.2695 -0.1028
 6331W        W25078  26.885  10.755  11.717 -0.0064  0.0532  0.1452
 6332W        W25079   4.010  13.829  17.866 -0.6458 -0.2538 -0.0431
 6333W        W25080  14.052  30.333  14.922 -0.0572 -0.0690  0.3277
 6334W        W25081   0.521  19.027  10.668  0.0601 -0.1094  0.2891
 6335W        W25082  28.082  31.816   4.498  0.2047 -0.2573  0.0179
 6336W        W25083  30.049   6.839  24.469 -0.2337  0.0945 -0.0157
 6337W        W25084   7.182   5.063   2.135  0.0660 -0.2696  0.1967
 6338W        W25085  11.726   0.583  22.067  0.0592  0.2932 -0.1338
 6339W        W25086  14.057  13.482  14.337 -0.1896  0.1221  0.3089
 6340W        W25087  27.893  19.811  15.428 -0.2330 -0.2090 -0.2974
 6341W        W25088   1.156  18.468   0.437  0.0948 -0.1996 -0.1392
 6342W        W25089   0.407  14.159  11.462 -0.0730  0.1031 -0.1331
 6343W        W25090  18.566  25.524  22.691 -0.2014  0.1919  0.0629
 6344W        W25091  25.143  20.882  12.215  0.5792 -0.0653  0.0807
 6345W        W25092   3.529  10.446   6.954  0.0189 -0.0927  0.1645
 6346W        W25093  26.146  16.073   5.983 -0.2114 -0.1069  0.1480
 6347W        W25094   1.016  32.753  22.090  0.2190 -0.1152 -0.0312
 6348W        W25095  13.302  16.254  21.557 -0.0700  0.2247 -0.0532
 6349W        W25096  16.640  32.866  19.806  0.1245  0.1656 -0.2228
 6350W        W25097  31.026  25.652   9.064  0.1105  0.0003  0.0060
 6351W        W25098  23.265  33.333  12.274 -0.0171  0.1601  0.2099
 6352W        W25099   6.274  16.632   4.156  0.2939 -0.0396 -0.2900
 6353W        W25100  16.442  27.252  13.175  0.3776  0.2149 -0.1190
 6354W        W25101  18.257   4.334   8.428  0.0767 -0.0006 -0.0827
 6355W        W25102   1.087  28.385   6.147 -0.3852 -0.1590 -0.1715
 6356W        W25103  26.493   9.602  18.569  0.0407 -0.2346  0.0581
 6357W        W25104   1.004  15.681  23.762 -0.0391 -0.5116 -0.1544
 6358W        W25105  25.447  20.916  18.770  0.0911 -0.1529  0.1301
 6359W        W25106  34.320  33.032  16.914 -0.1544  0.1488 -0.3159
 6360W        W25107  35.275  24.105  20.432 -0.0972  0.0534  0.0207
 6361W        W25108   3.622  18.593  19.699 -0.0206 -0.0355  0.4387
 6362W        W25109  12.039   9.266  14.103 -0.1316  0.2377  0.1522
 6363W        W25110  20.130  12.392  19.861  0.1791  0.2145  0.0910
 6364W        W25111  34.987   9.692  25.970  0.0745  0.1513  0.1171
 6365W        W25112  34.133   9.882  14.156  0.1022  0.1169 -0.0081
 6366W        W25113  33.763  24.974  25.257 -0.1509  0.0446 -0.2048
 6367W        W25114  15.726  16.191  24.499 -0.0725  0.1945  0.0383
 6368W        W25115  27.742  18.999  19.536  0.2026 -0.0481 -0.2544
 6369W        W25116  29.941  23.520  14.792  0.1027  0.0232  0.0674
 6370W        W25117  32.294  26.834   1.007 -0.2486 -0.1080 -0.3225
 6371W        W25118  33.277   8.543  23.687  0.0795 -0.0799  0.1759
 6372W        W25119   8.197  34.982  11.181 -0.2024  0.1659  0.0300
 6373W        W25120  17.657   3.936  24.158 -0.2371  0.1786  0.0887
 6374W        W25121  14.500   3.511   3.679  0.2265  0.3791 -0.0156
 6375W        W25122   0.433   1.475   1.365  0.0116 -0.2820  0.1304
 6376W        W25123  26.653  12.429   8.491 -0.2164 -0.0147 -0.0912
 6377W        W25124  19.511  25.962  25.468  0.1547  0.3240  0.1484
 6378W        W25125   6.621   7.102  18.880 -0.1667  0.3892  0.0828
 6379W        W25126   4.305  29.655  19.502  0.0677 -0.1515 -0.2876
 6380W        W25127   9.783  29.563  14.377  0.0637  0.0939  0.1138
 6381W        W25128  23.252  20.318  25.676 -0.1144 -0.0817  0.1614
 6382W        W25129  33.354   1.739   3.916  0.0847 -0.2093 -0.4207
 6383W        W25130  12.321  34.112   1.897  0.0340  0.2141  0.1309
 6384W        W25131  22.328  19.064  18.370 -0.0050  0.0037 -0.1520
 6385W        W25132  30.804  30.170  24.251 -0.1890 -0.1337  0.0611
 6386W        W25133  20.066  19.032  20.028 -0.0674  0.1447 -0.3926
 6387W        W25134  21.355  29.833   1.125  0.2084  0.0641  0.0408
 6388W        W25135   8.729  23.051  11.066  0.2102 -0.2563  0.0069
 6389W        W25136  30.024  13.336   8.984  0.1930  0.1880 -0.1551
 6390W        W25137  35.323   5.347  24.126  0.0019  0.1609 -0.0296
 6391W        W25138  16.480  14.826   2.081 -0.1241 -0.1229  0.1545
 6392W        W25139  15.016  19.864   2.475  0.1062  0.0713  0.3669
 6393W        W25140   2.879   0.405   3.396 -0.4219  0.0982 -0.1457
 6394W        W25141  12.877   4.422  25.224  0.0391 -0.1501  0.2826
 6395W        W25142   5.366   4.648  18.780  0.1077  0.0023 -0.1757
 6396W        W25143   3.319  30.494  19.144 -0.1262 -0.0297  0.0562
 6397W        W25144  23.302   6.268  19.644  0.1440 -0.4539  0.2346
 6398W        W25145  29.063  34.792   3.895 -0.0833 -0.1021 -0.2664
 6399W        W25146   6.288  26.281   9.686  0.0816 -0.3356 -0.0474
 6400W        W25147  15.197  30.625  25.440  0.0566 -0.0433 -0.0348
 6401W        W25148  25.094  35.249  17.815  0.1056 -0.1061 -0.2489
 6402W        W25149  13.065  25.193   2.326 -0.0212 -0.0504 -0.2536
 6403W        W25150  10.167   3.758  11.570 -0.1883 -0.2503 -0.2624
 6404W        W25151  32.178  33.655  23.120 -0.1063  0.0381 -0.1132
 6405W        W25152  19.691  17.342   0.938 -0.2772  0.2300 -0.0873
 6406W        W25153  15.613  10.448  24.400  0.2306  0.3493  0.0467
 6407W        W25154  17.584  28.208   0.041  0.1053 -0.0279 -0.0490
 6408W        W25155   7.730  12.185  10.854  0.4031 -0.0139 -0.1751
 6409W        W25156  28.686  19.786  21.978  0.2221  0.1239 -0.0427
 6410W        W25157  25.742   8.535  23.575  0.2245 -0.3836 -0.2168
 6411W        W25158  15.377   6.319   0.403 -0.3054  0.2533 -0.0008
 6412W        W25159  19.503   0.234   4.731  0.1690 -0.5739  0.3663
 6413W        W25160  32.862   5.436   1.867 -0.1371  0.1100 -0.2489
 6414W        W25161  25.893   3.546  11.492 -0.0315  0.0200 -0.1224
 6415W        W25162  21.303   8.487  20.113  0.2110 -0.0736  0.0925
 6416W        W25163   1.837  29.818   9.674  0.0820 -0.0476  0.1258
 6417W        W25164  19.994  23.324  19.628 -0.3949  0.0610  0.0399
 6418W        W25165  25.021  34.498  20.525 -0.0751  0.0577 -0.1433
 6419W        W25166   7.261  20.220  13.273  0.3740 -0.0347  0.1385
 6420W        W25167   0.915   6.021  16.324  0.0682 -0.1610  0.1367
 6421W        W25168  30.712  31.352  15.857 -0.0505  0.2204 -0.2453
 6422W        W25169  31.250  32.009   4.024 -0.0991 -0.0082 -0.1234
 6423W        W25170   0.543   4.527  20.932  0.3505 -0.0456  0.4267
 6424W        W25171   4.561  17.036  17.735  0.0771  0.2153  0.0421
 6425W        W25172  10.080  30.697  25.571  0.1366  0.0295 -0.0226
 6426W        W25173  17.588  27.413   6.111  0.2301 -0.1482  0.2384
 6427W        W25174  26.958  28.489  19.953  0.1794 -0.2534 -0.0698
 6428W        W25175  18.664   1.290   9.378 -0.0996  0.1120  0.0410
 6429W        W25176  17.861  23.408   4.865  0.0265  0.2294  0.2298
 6430W        W25177   0.418  29.110   6.021  0.0267 -0.0258  0.2372
 6431W        W25178  18.339  20.486  10.275  0.0903  0.2090 -0.0846
 6432W        W25179  18.525  32.006  20.187 -0.0659  0.3734 -0.1300
 6433W        W25180  16.222   1.968  24.482 -0.2232  0.2214  0.0544
 6434W        W25181  18.982  29.256  20.287  0.0173 -0.2905  0.3849
 6435W        W25182  14.381  31.178   3.241  0.0163  0.4208  0.1346
 6436W        W25183  13.271  26.144   8.175 -0.2224 -0.0914  0.1255
 6437W        W25184  11.887  33.261  22.671  0.0620 -0.1940 -0.2803
 6438W        W25185   4.890   5.319   5.599 -0.2687 -0.0081  0.1125
 6439W        W25186  11.332  15.442   7.011  0.3042  0.3101  0.1160
 6440W        W25187  26.299   7.414   1.146  0.1119 -0.1621  0.0494
 6441W        W25188  30.333   6.559  16.297  0.0065 -0.5286  0.0311
 6442W        W25189  23.034  23.382  15.575 -0.2882 -0.1049 -0.0521
 6443W        W25190  11.025  26.707  14.943  0.0042 -0.0245 -0.0197
 6444W        W25191  13.364   1.677  12.539  0.0039  0.2863  0.1957
 6445W        W25192   5.846   2.536  22.326  0.1027 -0.0398  0.0955
 6446W        W25193  12.293  19.269  20.851  0.0525 -0.0601 -0.0759
 6447W        W25194  15.088  15.429   0.662 -0.1501  0.3995 -0.1150
 6448W        W25195  23.661   6.611  20.472 -0.0245  0.3972  0.1120
 6449W        W25196  34.210  21.675  17.293 -0.2096  0.0939  0.5595
 6450W        W25197  18.971   9.354  21.159  0.0432 -0.0574  0.0381
 6451W        W25198  20.567  23.315   6.409 -0.2940  0.2526  0.0144
 6452W        W25199  27.729  28.296  22.656  0.1938 -0.1293  0.1418
 6453W        W25200  33.113  33.761   5.223  0.2371  0.0179  0.1353
 6454W        W25201  16.554  26.046  10.397 -0.1991  0.1900  0.0703
 6455W        W25202  24.525  34.244   2.707  0.1015 -0.0227  0.0788
 6456W        W25203  14.583  24.337   8.889  0.0158 -0.0704  0.1748
 6457W        W25204  24.395   0.399  11.258 -0.1870 -0.2001  0.0186
 6458W        W25205  31.245  34.901  14.172  0.0741 -0.2046  0.0872
 6459W        W25206  29.178  26.750  19.072  0.1480  0.0026  0.1217
 6460W        W25207  15.856  26.138  16.351  0.1398  0.0850 -0.0039
 6461W        W25208   0.064  25.413  14.486 -0.4174  0.0856  0.1220
 6462W        W25209   7.636  11.329   9.012 -0.2859 -0.4195 -0.2691
 6463W        W25210   4.114  12.258  16.739  0.1586  0.0425 -0.2720
 6464W        W25211  27.404  25.001  26.175  0.0354  0.1332  0.4899
 6465W        W25212   9.382   4.440  20.495 -0.2876 -0.2612 -0.1257
 6466W        W25213  10.685  32.034   8.977 -0.2027  0.1839 -0.1771
 6467W        W25214  16.247  30.342   2.795 -0.2466 -0.2434  0.0181
 6468W        W25215  11.127  26.761   7.623  0.1529 -0.0048  0.1870
 6469W        W25216  11.474   3.819  10.350  0.1337 -0.1619 -0.1565
 6470W        W25217  18.130  21.049  12.880 -0.0353 -0.0071  0.2918
 6471W        W25218  28.200  19.624  10.778  0.1674  0.0428  0.4353
 6472W        W25219   2.343  28.560   0.748  0.1918  0.0041  0.2689
 6473W        W25220  26.735  19.443  11.869  0.3754  0.1675  0.4565
 6474W        W25221  33.604  29.056   5.886  0.1599 -0.2078 -0.3582
 6475W        W25222  26.592   2.928  17.483  0.1600 -0.1671 -0.0564
 6476W        W25223  27.473  29.218  19.717  0.0332  0.2221 -0.0265
 6477W        W25224  33.182   7.366  20.422 -0.1637  0.1914 -0.1638
 6478W        W25225  11.837   1.988  12.446 -0.0080 -0.0807 -0.2601
 6479W        W25226  17.790   7.245  19.399  0.0846 -0.0849 -0.1230
 6480W        W25227   6.833  30.727   1.706  0.3436  0.1192 -0.0863
 6481W        W25228  12.760   9.715  10.037 -0.0001 -0.1731 -0.1773
 6482W        W25229   4.480   5.182  26.030  0.1008  0.0790  0.0289
 6483W        W25230  32.655   0.779   6.563  0.0478  0.2353  0.1027
 6484W        W25231  35.276  11.464  24.071  0.1291  0.0960  0.3644
 6485W        W25232  10.192   0.067   2.060 -0.0066  0.0089  0.2851
 6486W        W25233  24.908   1.718  19.926 -0.2959 -0.0222  0.1379
 6487W        W25234  27.325  30.175  12.411 -0.2418  0.0755  0.0297
 6488W        W25235  18.466  13.571  23.111  0.0419 -0.0021 -0.0620
 6489W        W25236   8.423  14.268  19.088 -0.0730 -0.2205 -0.1668
 6490W        W25237   1.755  27.143  18.327 -0.3871  0.1235  0.0490
 6491W        W25238  10.668  22.283   3.904 -0.3157  0.0281  0.2888
 6492W        W25239   7.885   7.157   4.329  0.2010  0.4683  0.1923
 6493W        W25240  31.087   7.749  14.164  0.0741  0.0331  0.1896
 6494W        W25241  13.542  18.695   7.822 -0.2144  0.0184 -0.0200
 6495W        W25242  16.932  19.284   7.970 -0.1288  0.0888  0.3092
 6496W        W25243  16.205  34.230  20.970 -0.0226 -0.0307 -0.0793
 6497W        W25244  13.190  21.790  10.292 -0.0531  0.0846 -0.2514
 6498W        W25245   9.159  12.323  10.819 -0.0420 -0.0699  0.1637
 6499W        W25246  12.301  19.002  24.102  0.0631 -0.3453  0.1677
 6500W        W25247   9.322  14.757   2.926 -0.3085 -0.0102  0.0550
 6501W        W25248  14.333  25.551  21.616  0.1302  0.0821  0.0767
 6502W        W25249   4.527  25.059  10.001 -0.3535  0.0703 -0.3073
 6503W        W25250  16.453  33.396  21.481  0.0225  0.0873  0.1342
 6504W        W25251   5.753   3.665   3.120 -0.1137  0.1801  0.0411
 6505W        W25252  29.573   7.933   1.002 -0.1907 -0.1114 -0.1030
 6506W        W25253  16.245   8.733  11.643 -0.1571  0.2341 -0.0965
 6507W        W25254  26.474  17.818  25.061  0.2091  0.0360 -0.0358
 6508W        W25255  23.724  19.333  17.253 -0.1334 -0.1991  0.3551
 6509W        W25256  15.456   4.309   7.049  0.0454  0.0591 -0.2604
 6510W        W25257  10.422   3.054   0.864  0.1906  0.0433 -0.0789
 6511W        W25258  32.231   1.000  19.377 -0.2540  0.0412 -0.2029
 6512W        W25259   0.528  28.341   4.639  0.0049 -0.5183  0.2777
 6513W        W25260  11.753   7.727   1.565  0.0416 -0.4282 -0.0588
 6514W        W25261   6.940   0.457  19.544 -0.1224  0.0134  0.0414
 6515W        W25262  26.126  30.447  17.135  0.2586 -0.0630  0.1349
 6516W        W25263  30.958   9.141  21.061  0.0881 -0.1897  0.2162
 6517W        W25264  31.894  14.801  18.839  0.1582 -0.0585 -0.0050
 6518W        W25265   3.534  19.452   3.899  0.0779  0.4037 -0.2146
 6519W        W25266  34.909  31.762   4.592  0.1554  0.1976  0.3571
 6520W        W25267  28.960  33.876  21.761 -0.0258 -0.2799 -0.0357
 6521W        W25268  25.836  11.212   9.362 -0.0413 -0.1989  0.1759
 6522W        W25269  28.375  17.008  14.245 -0.0610  0.0856 -0.0152
 6523W        W25270  14.253  26.322  16.759 -0.0555  0.2718 -0.0392
 6524W        W25271  18.154   5.261   3.702 -0.3564 -0.0006 -0.0980
 6525W        W25272  19.971  15.532  25.449  0.0351 -0.3082  0.1104
 6526W        W25273  19.662  23.881  25.055 -0.0113 -0.0290 -0.2000
 6527W        W25274  31.544  32.636  15.492  0.0465 -0.2264  0.3382
 6528W        W25275  34.539   1.440  23.666 -0.2424  0.0485  0.0020
 6529W        W25276  19.885  10.582   2.756 -0.3490  0.0190  0.0212
 6530W        W25277  26.568  22.178  11.836  0.3399  0.1191  0.0733
 6531W        W25278  15.429   8.548   9.655 -0.0564  0.3139 -0.1119
 6532W        W25279  34.390   7.950  19.923 -0.1555  0.3110 -0.0146
 6533W        W25280  16.082   1.075  18.207 -0.1946 -0.0882 -0.3952
 6534W        W25281  27.324   3.363  11.596 -0.2769  0.0965  0.1839
 6535W        W25282  18.433  26.764  23.605 -0.0105  0.2231 -0.1265
 6536W        W25283  27.226   6.122  25.926 -0.0238 -0.3404  0.0132
 6537W        W25284   9.356  16.188   7.717  0.4735  0.2285 -0.0658
 6538W        W25285  19.638  17.428   8.488 -0.0882 -0.2251  0.2078
 6539W        W25286   8.991  23.850  23.314 -0.0516  0.4247  0.1401
 6540W        W25287  19.335  29.814  16.915 -0.0946  0.0119 -0.1735
 6541W        W25288  15.139  20.793  25.200  0.0933  0.1230 -0.0743
 6542W        W25289   3.055   6.629   5.893  0.0631 -0.1149  0.2598
 6543W        W25290  12.049  17.160   7.609 -0.3247 -0.2729 -0.4190
 6544W        W25291  34.757  28.330   5.512 -0.2374  0.1217 -0.1888
 6545W        W25292  30.901  18.642  11.652 -0.1053 -0.0933 -0.0427
 6546W        W25293  10.487  26.972   8.467  0.1527 -0.1210 -0.1602
 6547W        W25294  19.297   2.513   1.832 -0.0315 -0.2705 -0.0875
 6548W        W25295  12.083  13.929  10.064  0.3902 -0.0751  0.2979
 6549W        W25296   3.532   0.308   2.367  0.2323  0.0735 -0.3611
 6550W        W25297  20.914  19.526   0.031  0.1968  0.3659 -0.1692
 6551W        W25298  17.555   7.946  25.314  0.2395  0.0395 -0.3876
 6552W        W25299   0.727   7.167  21.979 -0.0491  0.0114  0.2344
 6553W        W25300  19.839  12.877  25.832  0.0466  0.1392 -0.2636
 6554W        W25301   2.847  17.202  13.434 -0.1003  0.2161  0.0376
 6555W        W25302  23.978  32.564  12.847  0.1866 -0.0824  0.0452
 6556W        W25303  10.115  14.296   5.375  0.0875 -0.0864  0.0364
 6557W        W25304   6.325   4.176  24.080  0.3533  0.1204 -0.2942
 6558W        W25305  11.990  34.483   1.912 -0.2895  0.3264 -0.0998
 6559W        W25306   5.945  14.327  26.026  0.0933 -0.1915 -0.0054
 6560W        W25307  11.598  31.435  24.920  0.3677 -0.1232  0.2602
 6561W        W25308  21.206   6.976   5.137  0.0520  0.1785 -0.2795
 6562W        W25309   2.395  33.934   7.787 -0.2157 -0.0044  0.1925
 6563W        W25310  15.089   0.537  24.949  0.2887  0.0546  0.0877
 6564W        W25311  17.990  24.964   5.097  0.0756 -0.0465 -0.0129
 6565W        W25312  15.637  13.107  21.144  0.1592  0.2302 -0.1935
 6566W        W25313  34.855  20.083  24.861 -0.1645  0.0868 -0.2035
 6567W        W25314  34.034  22.423   9.023 -0.0165 -0.0679  0.0496
 6568W        W25315   1.376  34.941   8.651 -0.0204 -0.0730  0.0111
 6569W        W25316  31.307  32.795  21.787  0.1584 -0.0883  0.0580
 6570W        W25317  32.862  18.767   0.730  0.3841 -0.0224 -0.1048
 6571W        W25318  33.196  31.573  16.543  0.0688 -0.1281  0.0494
 6572W        W25319  23.710  32.915   2.703  0.0889  0.1668 -0.2041
 6573W        W25320  33.558  32.074  14.166 -0.3398 -0.0724 -0.1413
 6574W        W25321  30.426  16.438  12.119  0.0981  0.1941 -0.2435
 6575W        W25322   2.248  28.044   8.911 -0.0215  0.2402  0.0818
 6576W        W25323   2.073  20.787  13.405 -0.0530 -0.0327 -0.2574
 6577W        W25324  17.075  33.745   6.134  0.0363 -0.1387 -0.2024
 6578W        W25325  11.994  33.430   0.925  0.0437 -0.4390  0.0511
 6579W        W25326  15.003   0.400  24.002 -0.0462  0.2195 -0.1527
 6580W        W25327  25.839   3.816  22.353 -0.2158 -0.3093 -0.1969
 6581W        W25328   4.303  27.440   3.086  0.2548  0.0501 -0.1186
 6582W        W25329  21.773   5.243  14.940  0.0121 -0.0758  0.2063
 6583W        W25330  14.399  13.710  13.971  0.0697 -0.0523 -0.1075
 6584W        W25331   6.096   5.136   3.353 -0.2105  0.0916 -0.1396
 6585W        W25332  25.511  34.470  12.311  0.1274  0.0619 -0.1183
 6586W        W25333  30.659  22.462  14.372 -0.2614 -0.1207 -0.3057
 6587W        W25334   1.678  29.116   0.122 -0.1063 -0.0423 -0.1166
 6588W        W25335  17.903  17.894   8.777  0.0881 -0.0346 -0.2482
 6589W        W25336  26.885  21.503  25.502 -0.0907  0.0089  0.1841
 6590W        W25337   8.533  17.237   3.696  0.1689  0.1509 -0.0733
 6591W        W25338  18.181   5.804   3.659  0.2308  0.0117  0.2543
 6592W        W25339   9.020   7.313  12.356  0.1792  0.3335 -0.0412
 6593W        W25340  14.961  24.554  10.851  0.1046 -0.0102  0.1404
 6594W        W25341  30.715  30.054  13.809  0.1252 -0.1959  0.0812
 6595W        W25342  24.898   5.453  22.509 -0.3369  0.2090 -0.0785
 6596W        W25343  16.095  26.206  22.059  0.1154 -0.3528  0.0376
 6597W        W25344  31.501  23.530  13.064 -0.1249  0.0456 -0.0285
 6598W        W25345  35.083  22.802  24.858 -0.0773  0.3071 -0.2200
 6599W        W25346  16.417   4.585  22.243  0.1769 -0.1652  0.2651
 6600W        W25347  21.593  20.015  17.194  0.1768 -0.1936  0.0522
 6601W        W25348   1.225   3.627  20.140  0.2141  0.4474  0.1415
 6602W        W25349  11.979   5.366   0.392 -0.0484  0.0686 -0.1445
 6603W        W25350  13.549  32.332  22.590 -0.1095 -0.3122  0.3075
 6604W        W25351  30.297   5.138  15.550 -0.0054  0.2214 -0.1718
 6605W        W25352   8.637  16.901  12.160 -0.2633 -0.0083  0.3456
 6606W        W25353   8.770  26.855  10.260 -0.1964  0.0248 -0.1924
 6607W        W25354  28.987   0.543  13.591 -0.1233 -0.0261 -0.0484
 6608W        W25355   3.611  12.781  25.633 -0.1186 -0.1150 -0.0445
 6609W        W25356  11.716   6.818  11.451 -0.1777  0.4192 -0.0944
 6610W        W25357  19.513  13.964  25.017 -0.0928  0.1658  0.1051
 6611W        W25358   6.956  32.924  25.360 -0.2186 -0.0373 -0.0003
 6612W        W25359  23.909  12.077  25.632  0.0712  0.3304  0.3974
 6613W        W25360   9.530  25.673   9.294  0.0119  0.1728 -0.0204
 6614W        W25361  30.088  18.756  12.832 -0.0059 -0.1411 -0.1828
 6615W        W25362  11.868  35.299   8.577 -0.1078 -0.0337 -0.0934
 6616W        W25363  10.801   3.663   2.194 -0.3669  0.0058 -0.1893
 6617W        W25364  16.137  11.869  11.165 -0.1370  0.2465 -0.0449
 6618W        W25365   8.593  17.722  24.155 -0.2632  0.1933  0.0543
 6619W        W25366  25.374  31.151   3.428 -0.0672 -0.3375  0.0146
 6620W        W25367  24.135  31.583  25.825 -0.0265  0.0051 -0.1500
 6621W        W25368  13.821  20.736  21.201  0.2394  0.0094 -0.1257
 6622W        W25369  14.616  10.820  11.661 -0.2720 -0.0691 -0.0620
 6623W        W25370  27.310   6.477  21.999 -0.0280  0.2166  0.1938
 6624W        W25371  25.468  12.465  19.268 -0.2266  0.0028 -0.0144
 6625W        W25372  21.967   2.535  22.515  0.1169  0.1960  0.2362
 6626W        W25373  18.400  31.129  24.594 -0.1457  0.1180 -0.1700
 6627W        W25374  20.958  34.696   6.167  0.1559 -0.0717 -0.1040
 6628W        W25375  18.767   3.474   7.100  0.0257  0.0306 -0.1121
 6629W        W25376  12.369  32.296   6.242  0.1169 -0.1170  0.3636
 6630W        W25377  18.754  15.879   7.557  0.3455  0.1709 -0.0201
 6631W        W25378  19.545  11.913   7.083 -0.0966 -0.0303 -0.2085
 6632W        W25379  24.553  14.141  11.672 -0.0157 -0.2352  0.0529
 6633W        W25380   5.814  25.551  11.677  0.1560 -0.2645 -0.2142
 6634W        W25381   7.859  25.341   9.504  0.0707 -0.1249 -0.3109
 6635W        W25382  33.585  13.095  23.599  0.0882 -0.0680 -0.0807
 6636W        W25383  21.462   7.555  20.503 -0.0853 -0.1175 -0.0472
 6637W        W25384   1.501  20.243  11.426  0.1653 -0.0426  0.2081
 6638W        W25385   8.735  16.425   3.657 -0.0976 -0.2823 -0.1648
 6639W        W25386   5.509  12.074   1.917  0.2616 -0.2118  0.1825
 6640W        W25387  19.927  26.072   2.728  0.2808  0.0682  0.0415
 6641W        W25388  13.689  34.286  21.566 -0.1262 -0.0144 -0.1863
 6642W        W25389  28.643  21.589   8.617 -0.1954 -0.4328 -0.1780
 6643W        W25390   8.213   3.615  12.382 -0.0702  0.0909 -0.0618
 6644W        W25391  34.371  33.951   1.788  0.2933  0.1396 -0.3153
 6645W        W25392  12.966  14.701  19.112 -0.3604 -0.4309 -0.1189
 6646W        W25393  13.901  21.573   2.489  0.0933 -0.1990 -0.0430
 6647W        W25394  12.042  28.581   6.973  0.0763  0.1727  0.3652
 6648W        W25395   3.245  29.262   1.804  0.1710 -0.0350 -0.0200
 6649W        W25396   5.016   4.354   6.368 -0.2536 -0.3046  0.1863
 6650W        W25397  32.887  27.456  15.104 -0.0955  0.3064 -0.0159
 6651W        W25398  26.049  19.883   9.391 -0.1487 -0.2068  0.2431
 6652W        W25399  13.547  33.530  11.613  0.0098 -0.0990 -0.2172
 6653W        W25400  25.479   6.990  19.723 -0.1196 -0.1568  0.3076
 6654W        W25401   9.858   3.753  12.473 -0.1252 -0.1507 -0.2086
 6655W        W25402  24.305  15.373  17.510  0.0102  0.0858  0.2847
 6656W        W25403  20.480  11.148  22.643  0.0818  0.4293  0.2917
 6657W        W25404  17.841  23.950  21.377 -0.0073  0.3451  0.2612
 6658W        W25405   7.631  30.486   3.096 -0.2793 -0.1583  0.0730
 6659W        W25406  21.758  32.819  20.306 -0.0068 -0.0040 -0.0129
 6660W        W25407  34.656  22.548   8.909  0.2000  0.1820  0.0079
 6661W        W25408  12.850  24.150   1.871 -0.1406 -0.1094 -0.1258
 6662W        W25409   7.250  27.617   3.807  0.0610 -0.0602  0.0185
 6663W        W25410  23.577  27.589  17.102 -0.1830 -0.0660 -0.1634
 6664W        W25411  15.860  18.638   6.019 -0.0927 -0.2017  0.1278
 6665W        W25412  18.959  19.621   7.028 -0.0924 -0.1655 -0.0847
 6666W        W25413   7.109  25.642  10.831 -0.0189 -0.1781 -0.2317
 6667W        W25414  33.396   2.119   6.281 -0.1019  0.0005  0.3990
 6668W        W25415  17.036  19.951   8.247 -0.1221 -0.1670  0.1376
 6669W        W25416  31.273  18.615  19.386  0.0909 -0.0359 -0.5007
 6670W        W25417   0.954   7.291  24.618 -0.0867 -0.0012  0.0527
 6671W        W25418   2.741  10.500  16.171 -0.0868 -0.1101 -0.2600
 6672W        W25419  31.674   2.880  13.087  0.0596  0.2291 -0.1309
 6673W        W25420  18.420   7.391  20.409  0.0057 -0.0082  0.0865
 6674W        W25421  20.344   7.212  23.086 -0.1424 -0.3005 -0.0038
 6675W        W25422  26.056   3.107  12.305 -0.0769 -0.0292  0.0274
 6676W        W25423   7.718  26.372   9.415 -0.1933 -0.3873  0.4462
 6677W        W25424  32.603   4.694   2.977  0.1827 -0.0677  0.1335
 6678W        W25425  12.989   3.346  21.333 -0.0046  0.2299  0.1688
 6679W        W25426  27.605   6.054  24.361  0.1432 -0.1509  0.0430
 6680W        W25427  20.778  32.160  25.297 -0.1612 -0.0414  0.0326
 6681W        W25428   1.401   9.653   4.257 -0.0498 -0.1914 -0.0766
 6682W        W25429   8.911  11.249   8.261 -0.0332 -0.1955 -0.1924
 6683W        W25430  34.967   7.335  16.612 -0.0744 -0.1621 -0.2655
 6684W        W25431  16.694  23.910   8.405  0.2422 -0.0007 -0.0657
 6685W        W25432   9.653   1.054  10.390  0.2156  0.0713 -0.1539
 6686W        W25433  28.207  31.959   2.787  0.0146 -0.1345 -0.0103
 6687W        W25434  24.045  33.199  26.027  0.0262  0.0247  0.1427
 6688W        W25435  28.908   3.159  24.463  0.0813  0.1987 -0.1874
 6689W        W25436   7.050  35.133   3.001 -0.0241 -0.0685 -0.1556
 6690W        W25437  19.942  22.600   1.077 -0.0995 -0.1574 -0.1438
 6691W        W25438  20.196  16.780  19.157  0.1715  0.0128  0.1260
 6692W        W25439  22.377  19.781  17.711  0.1716  0.0899 -0.1459
 6693W        W25440  19.844  32.382   3.478  0.1717 -0.1303  0.1427
 6694W        W25441  31.686  12.634  11.974 -0.0535  0.1005  0.0132
 6695W        W25442  30.212  30.393  22.232  0.0308  0.2366 -0.2100
 6696W        W25443  32.115  28.574  25.627 -0.2369 -0.1034 -0.2672
 6697W        W25444  34.563  15.975  16.415  0.1149 -0.3894  0.0559
 6698W        W25445   4.941  27.966  22.236  0.1704  0.1941  0.1544
 6699W        W25446  12.149   5.176   5.734 -0.5262  0.5526 -0.0340
 6700W        W25447  17.528   7.254  24.723  0.2786 -0.2425  0.2412
 6701W        W25448  11.043   1.697   9.303 -0.1013 -0.0465 -0.1118
 6702W        W25449   8.428   5.590  13.850  0.2678  0.1600  0.3805
 6703W        W25450  23.258  31.465  18.448  0.3019 -0.1252  0.1727
 6704W        W25451  24.786  15.633   7.211 -0.2524 -0.3036  0.0124
 6705W        W25452  24.542  18.319  23.381  0.0406  0.0722 -0.0685
 6706W        W25453  17.582   4.889  19.439  0.0255 -0.1809  0.2869
 6707W        W25454   8.612   1.833   2.856  0.0237  0.1541  0.0325
 6708W        W25455  23.513   9.897  22.372  0.3990 -0.0484  0.0495
 6709W        W25456  15.984  10.711  19.849 -0.2824 -0.0302 -0.1378
 6710W        W25457  28.799  30.855   0.644 -0.0585  0.1706  0.1337
 6711W        W25458  34.612  17.882  16.191 -0.1450  0.2251 -0.0722
 6712W        W25459  26.302  30.709  14.364  0.0673 -0.1078  0.0229
 6713W        W25460  28.540  22.695  16.019  0.1483  0.0186  0.0338
 6714W        W25461  13.506  18.370   1.187  0.1011  0.2373 -0.0979
 6715W        W25462  12.011  17.498   4.999 -0.1216 -0.1532 -0.2518
 6716W        W25463  19.172  21.732   1.775  0.0021 -0.0903  0.0926
 6717W        W25464   8.543   4.739  10.603  0.0557  0.0050  0.4801
 6718W        W25465  14.708   4.613  24.608  0.3285  0.3437 -0.1996
 6719W        W25466  35.074   8.711  14.794 -0.2564  0.2200 -0.2301
 6720W        W25467   6.578  29.870   7.055 -0.2204 -0.2558  0.0330
 6721W        W25468  25.547  15.801  26.217  0.2873 -0.4670 -0.0911
 6722W        W25469  10.640  29.908   0.476 -0.0134  0.1014 -0.2772
 6723W        W25470  11.580  11.989  23.680 -0.1767  0.0481  0.0651
 6724W        W25471  18.848  18.482   4.414 -0.0837  0.0866  0.0925
 6725W        W25472   6.489  17.437   6.964 -0.0508  0.0034 -0.1636
 6726W        W25473  24.778  25.136  12.027 -0.3006 -0.2265 -0.0381
 6727W        W25474   8.274  32.544  23.245  0.0334 -0.2176 -0.1705
 6728W        W25475   2.545  16.599  26.013  0.2123 -0.1270 -0.4132
 6729W        W25476   5.846   2.873  26.034 -0.0481  0.1868  0.1740
 6730W        W25477  33.828  16.963   8.450 -0.1559  0.0414  0.0380
 6731W        W25478  14.123   8.438   9.039  0.0928 -0.1270 -0.1117
 6732W        W25479   4.569  35.174  25.709 -0.1758  0.1381 -0.1252
 6733W        W25480   6.919  35.004   5.725 -0.4038 -0.0748  0.3323
 6734W        W25481  15.639  28.506   7.184 -0.0638 -0.4731 -0.1031
 6735W        W25482  32.881  13.664   0.549 -0.1203  0.2603  0.0795
 6736W        W25483   9.974   9.697  25.123 -0.3662  0.1774 -0.1806
 6737W        W25484  10.884  17.216  22.359  0.3200 -0.0059  0.0479
 6738W        W25485  29.708  17.758  12.557  0.7483 -0.1232 -0.1586
 6739W        W25486  21.152  29.242  16.714 -0.0905  0.1295  0.0887
 6740W        W25487   5.028  34.207   9.774  0.1745  0.1918  0.2158
 6741W        W25488  27.354  29.656  22.269 -0.2030 -0.0089  0.1699
 6742W        W25489  33.418  14.606  10.279  0.5155 -0.3420 -0.0943
 6743W        W25490  11.705   0.134  20.121 -0.1465 -0.1606  0.5839
 6744W        W25491  25.202  23.756  23.721 -0.2524 -0.0822 -0.0779
 6745W        W25492  12.570   3.278  12.759 -0.4141  0.2864 -0.0130
 6746W        W25493   8.141   9.023   5.960 -0.0469  0.0557 -0.2646
 6747W        W25494  32.662  32.484   7.286 -0.1285 -0.0514  0.0073
 6748W        W25495  11.022  32.577  22.141  0.0133  0.0767  0.1648
 6749W        W25496  32.850  23.276  21.651 -0.1710  0.0568 -0.1582
 6750W        W25497  30.445  20.007  21.521  0.1621 -0.1693  0.1660
 6751W        W25498  12.465  32.804  15.068 -0.0058 -0.0062  0.2670
 6752W        W25499  26.018  16.537   0.643 -0.2737 -0.0872  0.1360
 6753W        W25500  29.860  10.947  19.595  0.0509  0.4564 -0.0969
 6754W        W25501  27.060  29.971  18.586 -0.0517  0.0053  0.0617
 6755W        W25502  32.811  17.504  25.215  0.2111 -0.3159 -0.0997
 6756W        W25503  17.612  29.369  10.372 -0.1520 -0.1877  0.0845
 6757W        W25504   7.010   8.542   1.159  0.1354  0.0535 -0.1146
 6758W        W25505  14.960  16.552  26.112 -0.1712  0.2022 -0.2665
 6759W        W25506   5.503  10.381   7.133 -0.0563 -0.0356 -0.0261
 6760W        W25507  11.206   0.605  24.268  0.1237  0.2051  0.2641
 6761W        W25508  23.708  11.996   2.356 -0.0916 -0.1202 -0.4258
 6762W        W25509   6.215   5.390   9.610 -0.2403  0.1937 -0.0906
 6763W        W25510  17.915  23.076   8.253  0.2640  0.2065  0.2490
 6764W        W25511   4.219  29.407  12.088 -0.0368  0.1352  0.2443
 6765W        W25512  23.096  12.495   1.338  0.1296  0.3181 -0.4100
 6766W        W25513   0.163  17.358  22.814 -0.0138  0.2774  0.2390
 6767W        W25514   2.277  31.013  21.147 -0.0398  0.2441  0.0826
 6768W        W25515  14.298   6.744  22.599 -0.4716 -0.1867 -0.0028
 6769W        W25516   9.018   1.565  19.776  0.1981  0.4800 -0.1826
 6770W        W25517  27.648  17.850  21.602 -0.1948 -0.0080  0.1497
 6771W        W25518  32.349   4.896   0.163  0.0820  0.0265  0.0994
 6772W        W25519   3.251  26.298  18.864  0.1837 -0.1019  0.0555
 6773W        W25520   8.216  10.552   6.825 -0.1889  0.0839  0.0605
 6774W        W25521  22.339   9.929  22.037  0.1022 -0.0855 -0.1555
 6775W        W25522  27.914  27.951  10.735  0.1059  0.3241  0.1790
 6776W        W25523  13.592  17.965   7.600  0.0514 -0.1348 -0.0215
 6777W        W25524  28.259  30.669  13.423  0.1743  0.0022 -0.0189
 6778W        W25525  28.412  15.172  12.851 -0.1256 -0.2735  0.0488
 6779W        W25526  17.986  32.256  21.059  0.2596  0.4000 -0.2965
 6780W        W25527  27.695   5.331  17.454 -0.4496 -0.0825  0.2661
 6781W        W25528  27.060  14.320  17.928  0.1269 -0.1441 -0.3292
 6782W        W25529  11.608  31.155   9.996  0.0725  0.0941 -0.0678
 6783W        W25530  16.516  18.886   9.021  0.0356  0.2106  0.0160
 6784W        W25531  35.003  18.631   8.844 -0.0092 -0.1700 -0.0216
 6785W        W25532   8.021   0.923   7.854  0.4352 -0.0093 -0.2340
 6786W        W25533  13.789   3.280   3.005 -0.3651 -0.0198 -0.1240
 6787W        W25534   7.730   4.748  24.729 -0.0898  0.2300 -0.0822
 6788W        W25535  12.498   7.576  18.705 -0.3034  0.3274 -0.0138
 6789W        W25536   0.796   8.294  25.252 -0.0696  0.1162  0.0102
 6790W        W25537  29.770   3.754   4.221 -0.1083  0.0221  0.1723
 6791W        W25538  31.767  25.844  23.752 -0.2385 -0.0594  0.1138
 6792W        W25539   8.766  31.919   8.274 -0.0041 -0.2461  0.1667
 6793W        W25540  33.560  15.102   6.662  0.0357  0.1092  0.4521
 6794W        W25541  18.271  20.075  12.602  0.3504  0.1935 -0.1485
 6795W        W25542  13.563  10.780  24.028 -0.1187 -0.2821  0.0475
 6796W        W25543  26.920  26.470  22.025 -0.1215  0.2133 -0.0640
 6797W        W25544  23.363  27.114  24.815  0.4820  0.0263  0.3599
 6798W        W25545  29.115  24.427  23.419 -0.1183 -0.0817  0.0370
 6799W        W25546   7.503  30.440   7.539  0.2742 -0.0958 -0.0539
 6800W        W25547  15.514  24.760  24.251 -0.2418  0.0130 -0.1225
 6801W        W25548  10.839   8.577  20.022 -0.1615 -0.3038  0.3392
 6802W        W25549   7.636   4.207  20.685  0.1848 -0.3171 -0.0838
 6803W        W25550  26.779  17.804  10.993 -0.1425 -0.1198  0.0544
 6804W        W25551  32.286  15.890   6.337  0.2644 -0.0087  0.2051
 6805W        W25552   5.275  30.138   3.771  0.0791 -0.0524 -0.0043
 6806W        W25553  29.835  30.993  19.715  0.1996  0.1297 -0.2368
 6807W        W25554  26.267  24.825   0.552 -0.1241  0.0395 -0.0350
 6808W        W25555  14.775  19.005   8.302  0.2171  0.2585  0.1588
 6809W        W25556  25.601  21.395  18.867 -0.1177  0.0027 -0.1310
 6810W        W25557  24.412  33.167   2.381  0.1092 -0.1923 -0.3343
 6811W        W25558   7.492  32.500  24.339  0.0988  0.0077  0.1165
 6812W        W25559   6.202  11.230  18.907 -0.4199 -0.3465  0.0655
 6813W        W25560  24.982  32.157   3.987  0.2869 -0.0037 -0.2606
 6814W        W25561  31.809   5.313  23.318 -0.0783  0.1258  0.2356
 6815W        W25562  33.680  10.219  16.961  0.0718  0.2059 -0.0146
 6816W        W25563  35.228  24.667  19.577 -0.4331 -0.1259  0.0167
 6817W        W25564  31.886  17.917   6.620 -0.0437  0.0142 -0.0257
 6818W        W25565   7.962   4.579  14.419 -0.2279  0.0962  0.1132
 6819W        W25566   7.889  21.185  14.751  0.1666 -0.1670  0.4316
 6820W        W25567  31.757  15.048  20.813 -0.0158  0.0139 -0.0620
 6821W        W25568   1.155   7.761  19.236 -0.0065 -0.0077  0.1470
 6822W        W25569  28.484  19.684   9.822 -0.1306  0.2470  0.4007
 6823W        W25570  30.009  16.089  17.496  0.2248  0.0523  0.0160
 6824W        W25571  30.540  25.662  25.339 -0.1232  0.0490  0.0639
 6825W        W25572  34.162   8.662   1.066  0.0865  0.0610 -0.1681
 6826W        W25573  26.722  30.030  10.856  0.2408  0.0916  0.0592
 6827W        W25574   0.247  12.553   0.177  0.1682 -0.2660  0.1989
 6828W        W25575  13.015  23.288   6.070 -0.1103 -0.1130  0.1535
 6829W        W25576  27.603  24.465  11.542 -0.2704  0.0898  0.2315
 6830W        W25577  15.558  15.431  20.972 -0.1842 -0.0828 -0.0988
 6831W        W25578  17.302  31.446  24.917  0.1923 -0.1373 -0.1893
 6832W        W25579  19.677   4.468   3.839  0.0213 -0.2530 -0.0592
 6833W        W25580   6.096  31.153  10.342  0.0347  0.0787  0.3355
 6834W        W25581  16.871  32.632   2.404 -0.0172  0.0666  0.1332
 6835W        W25582  10.839   4.714  10.940  0.2492 -0.0007  0.2783
 6836W        W25583  27.632  27.485  18.022  0.2389  0.0981 -0.0874
 6837W        W25584  13.768   0.372   4.323  0.2707 -0.1032 -0.2050
 6838W        W25585  10.413  23.384   8.083 -0.0903  0.2469 -0.0387
 6839W        W25586  27.424  16.253  24.385  0.2722 -0.0784 -0.0704
 6840W        W25587   7.199  15.795   6.978 -0.1089 -0.1427 -0.2055
 6841W        W25588  31.858  10.427  20.300  0.3182 -0.0984  0.0049
 6842W        W25589   0.410   2.773  21.277  0.1153  0.1039 -0.4359
 6843W        W25590  11.212  28.480   5.456 -0.2539 -0.2855  0.0355
 6844W        W25591   5.242  31.163   9.204 -0.1631  0.2134 -0.0455
 6845W        W25592  32.362  20.541  18.980  0.1273 -0.3741  0.1866
 6846W        W25593  34.363  20.056  10.520  0.3081 -0.0414  0.1576
 6847W        W25594  30.634  25.392  22.502 -0.1839  0.1121 -0.2137
 6848W        W25595  13.035   2.422   1.926 -0.0093 -0.0188 -0.0977
 6849W        W25596  34.475  21.170  25.291 -0.2109  0.1200 -0.0283
 6850W        W25597  31.805  20.462   9.789 -0.2402 -0.1970 -0.3976
 6851W        W25598  10.888  17.331  11.167 -0.4510  0.0372  0.4383
 6852W        W25599  35.083  15.262  13.723 -0.0060  0.1529  0.0998
 6853W        W25600  24.143  24.101  18.703  0.0264  0.0260  0.1181
 6854W        W25601  11.045  16.575  25.521  0.3914  0.0088 -0.0609
 6855W        W25602  21.920  22.474  17.039 -0.2486 -0.2108  0.0115
 6856W        W25603   0.006  11.061  25.492  0.1469  0.2763 -0.3938
 6857W        W25604  22.873   6.230  21.875 -0.0537  0.0396 -0.2067
 6858W        W25605  19.710   9.915  17.736  0.0420 -0.0945 -0.0424
 6859W        W25606  27.209  34.740  12.239  0.0766  0.2406  0.0905
 6860W        W25607  31.651  30.161  23.078 -0.2243  0.3251  0.1896
 6861W        W25608  26.539  20.327  22.428  0.1975  0.1880 -0.3867
 6862W        W25609   2.976   7.397  15.217  0.1293 -0.0364 -0.2233
 6863W        W25610  25.352  16.491   7.974  0.0893  0.0296  0.0745
 6864W        W25611   9.114  25.415  23.546  0.2589 -0.0929 -0.1185
 6865W        W25612  27.687   6.543  18.533 -0.4074 -0.1114  0.0260
 6866W        W25613  32.150  22.228   0.418 -0.4064 -0.1550 -0.1421
 6867W        W25614  13.936   3.851   9.311 -0.4513  0.0761 -0.1355
 6868W        W25615  20.807   5.001  20.676  0.2252  0.0567  0.0136
 6869W        W25616   6.873  12.765   1.782  0.0035  0.0668  0.1537
 6870W        W25617  34.279  28.771   5.308 -0.0253  0.1644 -0.2444
 6871W        W25618  14.988  22.895   4.883 -0.0022 -0.0456 -0.0744
 6872W        W25619  30.595   7.969  20.466  0.0540 -0.2694 -0.0484
 6873W        W25620  20.432   5.457  16.470 -0.1040 -0.1087  0.0380
 6874W        W25621  15.273  22.612  12.612  0.3050  0.1163  0.1435
 6875W        W25622  11.155   1.651  24.660 -0.0882  0.2578 -0.2734
 6876W        W25623  25.269  27.800   2.524  0.1347 -0.0038  0.0823
 6877W        W25624   3.693  29.608  22.650  0.1914  0.1028 -0.2349
 6878W        W25625   3.964  29.666   1.990  0.0638  0.0285 -0.3803
 6879W        W25626   9.119  15.954   5.442 -0.0694 -0.0294 -0.2079
 6880W        W25627  30.572  10.684  22.010 -0.0539 -0.1650 -0.1780
 6881W        W25628  19.216  33.110   5.998  0.1752  0.0470  0.1779
 6882W        W25629   2.394  13.858  16.413  0.0763  0.2947  0.0335
 6883W        W25630  31.953  31.613  16.224 -0.1380  0.2170 -0.0752
 6884W        W25631  30.187  18.347   4.468  0.2469 -0.1734 -0.2052
 6885W        W25632  28.272  24.756  18.477  0.0749  0.3825 -0.1523
 6886W        W25633  12.866  25.709   1.661 -0.1125  0.2533 -0.0216
 6887W        W25634  11.470   7.045  21.370 -0.5533 -0.0295  0.3355
 6888W        W25635  16.736  20.675  13.339  0.2807 -0.0224  0.1423
 6889W        W25636   8.023  34.223   0.787  0.0577 -0.0375 -0.1094
 6890W        W25637  18.348  28.734   9.537 -0.0527  0.1080  0.0911
 6891W        W25638  13.314   0.969  20.593 -0.2854 -0.0279  0.0259
 6892W        W25639  25.158  31.322  11.100  0.1759 -0.0386  0.1070
 6893W        W25640  27.913  20.886  14.612  0.0185 -0.0311 -0.1950
 6894W        W25641  34.266   5.667  24.934 -0.0732 -0.2720  0.0009
 6895W        W25642  25.692  10.290  18.999 -0.0018 -0.1385 -0.3609
 6896W        W25643  20.821  30.666   4.408 -0.2672 -0.3141 -0.5027
 6897W        W25644  33.596  22.238  23.710  0.1542  0.1586 -0.0958
 6898W        W25645  18.808   5.249  16.890 -0.1767  0.1476 -0.0380
 6899W        W25646  19.387  20.690   5.506  0.0472 -0.2271 -0.0747
 6900W        W25647  22.460  32.928  18.878 -0.1118  0.1048 -0.3328
 6901W        W25648   9.168  18.129   8.822 -0.0078 -0.0638  0.0950
 6902W        W25649   4.747  10.731  19.110  0.3407 -0.0734  0.0100
 6903W        W25650   0.938  24.767  21.162  0.0209 -0.0753 -0.0331
 6904W        W25651  17.679   1.130  26.027  0.3026  0.1780 -0.1539
 6905W        W25652  11.538  32.573   6.821  0.1969 -0.0831 -0.0682
 6906W        W25653  30.976  24.821  17.961 -0.4685 -0.1494 -0.0509
 6907W        W25654   3.508  18.649  21.813 -0.2854 -0.2949  0.0138
 6908W        W25655   5.853  34.152  24.864  0.1289  0.0180  0.1382
 6909W        W25656  13.940  33.560   4.031  0.4121  0.0650 -0.0379
 6910W        W25657  14.111  16.607   7.328 -0.1507  0.0943  0.2399
 6911W        W25658   6.805  17.540   6.333  0.1659 -0.2632 -0.4503
 6912W        W25659  12.247  33.240   4.767  0.1863  0.0085 -0.4166
 6913W        W25660  17.362   4.712   3.496 -0.2059  0.2648 -0.0762
 6914W        W25661  10.940  15.422   0.605 -0.1107  0.1098  0.0632
 6915W        W25662  34.284  16.577  20.982 -0.1606 -0.1678  0.0834
 6916W        W25663   4.626  33.955   7.953 -0.0035  0.3431  0.0182
 6917W        W25664   8.588   6.906   2.369  0.0082 -0.1310 -0.0754
 6918W        W25665  18.491  27.016  26.086 -0.1191  0.1332 -0.2643
 6919W        W25666  28.835  29.880   5.013  0.3596 -0.0151 -0.1125
 6920W        W25667  33.211   0.897  12.771  0.0234  0.1817  0.2131
 6921W        W25668   6.246  22.853   9.024 -0.0588 -0.0338 -0.1565
 6922W        W25669  28.125   8.300  22.780  0.3722  0.2234 -0.0186
 6923W        W25670  33.753  30.734   1.446  0.2030 -0.1753  0.3137
 6924W        W25671  34.697  18.737   0.756 -0.0154 -0.0940 -0.0810
 6925W        W25672  16.034   6.151   9.852  0.0952  0.3187  0.1726
 6926W        W25673  15.095  33.604  23.353 -0.0460  0.0812 -0.1027
 6927W        W25674  12.750   6.983   1.909 -0.1101 -0.0041 -0.2082
 6928W        W25675  10.328   9.065   5.462 -0.0022  0.1746  0.0371
 6929W        W25676   6.098  11.533   1.495 -0.1530 -0.0491 -0.0690
 6930W        W25677  13.772   6.811   6.507 -0.2115 -0.0279 -0.2034
 6931W        W25678   5.624  20.296   6.189 -0.2231  0.1550 -0.0273
 6932W        W25679  13.260  35.255  25.360  0.1255 -0.1431 -0.1660
 6933W        W25680  16.465  29.045   6.413 -0.1814  0.0522 -0.1255
 6934W        W25681  11.135  10.713   9.371  0.1826  0.0780  0.0220
 6935W        W25682  18.946   8.499   6.447 -0.0996  0.2511  0.2385
 6936W        W25683  20.049  23.246   3.972 -0.1103 -0.1467 -0.0731
 6937W        W25684  31.418  14.693  14.498 -0.1781  0.1628  0.3892
 6938W        W25685  10.915   0.656  25.732 -0.1916  0.1413 -0.0484
 6939W        W25686  23.331   2.802  14.747  0.1478  0.1264 -0.0138
 6940W        W25687  10.876  10.400  19.497 -0.1888 -0.3949 -0.0586
 6941W        W25688  13.506  28.540  10.258  0.1568  0.1337  0.2256
 6942W        W25689  16.071  20.635  23.072 -0.0761  0.4838 -0.0412
 6943W        W25690   9.385   8.157  10.309  0.2323  0.3525  0.0718
 6944W        W25691  16.438  27.823  23.694 -0.2800  0.1787  0.0706
 6945W        W25692   7.410  14.521   2.282 -0.1435 -0.2776  0.2092
 6946W        W25693  22.022   9.213   6.669 -0.2473  0.0546  0.0899
 6947W        W25694   3.731   9.461   1.730 -0.1813 -0.1578  0.1118
 6948W        W25695  18.338   8.091  10.548  0.1698  0.2020  0.2158
 6949W        W25696  33.592  14.825  14.697 -0.1311 -0.0085  0.3843
 6950W        W25697  13.197   2.845  22.606 -0.3733  0.0426 -0.0346
 6951W        W25698   0.968  21.615  22.708 -0.1410 -0.2558 -0.0365
 6952W        W25699  33.135   8.664  21.539 -0.1778  0.3900 -0.0509
 6953W        W25700  28.294  24.801   8.001 -0.0086 -0.2397  0.1330
 6954W        W25701  13.909  28.201  25.607  0.0560  0.0282  0.0025
 6955W        W25702  32.073  23.807  17.657  0.1203  0.2218 -0.2500
 6956W        W25703  19.092  25.797   8.401  0.0989  0.0501 -0.1306
 6957W        W25704  33.160  29.121  25.540 -0.0620 -0.1383 -0.1789
 6958W        W25705  34.867  19.221  14.120  0.2359  0.1269  0.0850
 6959W        W25706  17.830  35.167   3.592 -0.0489  0.3302 -0.2430
 6960W        W25707  16.400   2.886  24.946 -0.1048 -0.0508  0.2462
 6961W        W25708  17.449  10.901  22.061  0.2007 -0.1836  0.1903
 6962W        W25709  33.559  13.342  15.295 -0.1643  0.0530  0.1288
 6963W        W25710  18.595   4.485  18.528 -0.2707 -0.0605 -0.2430
 6964W        W25711   9.291  15.416   5.554  0.2046 -0.2100 -0.1649
 6965W        W25712   6.121   7.712  23.303  0.1061 -0.1534  0.0986
 6966W        W25713  28.379  13.173   9.515  0.0422  0.1623 -0.3871
 6967W        W25714  10.118  12.824   7.822  0.0787  0.3692 -0.0700
 6968W        W25715   8.673  30.835  26.010  0.0954 -0.0589 -0.3383
 6969W        W25716  26.435  31.427  13.717  0.1218 -0.1328 -0.1464
 6970W        W25717  19.137  17.234   2.191  0.3423  0.0690  0.1155
 6971W        W25718  20.863  16.908   4.223  0.0527 -0.0785  0.2820
 6972W        W25719  32.559  13.252  23.692  0.1163  0.1929  0.0302
 6973W        W25720  26.314  21.924  18.584 -0.3690  0.0241 -0.0803
 6974W        W25721  10.564  25.085  22.321  0.0467 -0.1000  0.2253
 6975W        W25722  17.783   9.702   7.524  0.2564  0.4057 -0.1655
 6976W        W25723  25.853  11.727  13.002  0.2518 -0.0238  0.2064
 6977W        W25724  14.911   4.547   4.391  0.1279 -0.0190 -0.0271
 6978W        W25725  32.260  31.263   5.511  0.2816  0.1581  0.1916
 6979W        W25726   7.729   6.377  12.876  0.0892  0.0321  0.0403
 6980W        W25727   3.963  22.033  20.074  0.0157  0.2363  0.1609
 6981W        W25728  24.137  32.266   3.886  0.0912 -0.1435  0.0883
 6982W        W25729  31.267  35.038  12.870 -0.2015  0.0090 -0.0348
 6983W        W25730  21.033  24.828   3.359 -0.2842  0.0216  0.2045
 6984W        W25731   3.339  27.857  21.046 -0.0868 -0.1921  0.1608
 6985W        W25732  30.487  14.733  19.609  0.1815 -0.2097  0.0354
 6986W        W25733  22.729  10.850   0.237 -0.1762  0.0452  0.0424
 6987W        W25734  22.919   7.419  18.871  0.1175  0.0973  0.3872
 6988W        W25735  24.729   0.570  25.593  0.0984  0.5343  0.5184
 6989W        W25736  10.569  32.441   2.992  0.2063  0.1573 -0.0038
 6990W        W25737  35.032  14.607   7.953  0.0776  0.2834  0.0632
 6991W        W25738   9.693  20.242  22.847  0.0914  0.1525  0.2339
 6992W        W25739  27.551  28.598   2.839 -0.0135  0.1122  0.1039
 6993W        W25740  12.143  32.429  13.623 -0.0984 -0.0453  0.0225
 6994W        W25741  27.326   0.226  14.017  0.1993 -0.2078 -0.0099
 6995W        W25742  22.605  31.040   4.084  0.2381 -0.2223 -0.0473
 6996W        W25743  12.937   3.414   2.446  0.1273 -0.1186 -0.0701
 6997W        W25744   7.770   2.626   1.774  0.1525  0.1826  0.0897
 6998W        W25745  28.076  27.666  17.714  0.0569  0.2766  0.1848
 6999W        W25746  31.860  31.938  14.168  0.1102  0.0201 -0.0265
 7000W        W25747  27.705  25.896   8.644 -0.0383 -0.1172  0.0064
 7001W        W25748  22.222   3.563   3.552  0.4076  0.3869  0.3782
 7002W        W25749  34.005   2.359  18.758  0.2216 -0.0642  0.1471
 7003W        W25750   9.116  19.938   8.153  0.0652 -0.0517  0.0879
 7004W        W25751  21.664  14.994  15.311  0.1779 -0.0296  0.0550
 7005W        W25752  15.667  30.415  11.769  0.2823 -0.3209 -0.2792
 7006W        W25753  23.826  23.310  24.633 -0.2022  0.0150 -0.1444
 7007W        W25754  16.634   6.345  19.044 -0.0664 -0.0623  0.0700
 7008W        W25755  31.178   6.677  15.747  0.0646 -0.0420  0.0596
 7009W        W25756  13.129  20.770   9.503 -0.2375 -0.2912  0.1788
 7010W        W25757   7.532  17.606   1.590  0.0155 -0.2143 -0.3148
 7011W        W25758  24.514  14.248  20.830  0.0796 -0.1550  0.0645
 7012W        W25759  10.257  33.383  15.911 -0.0458 -0.0706  0.0051
 7013W        W25760   3.072  11.385  17.943  0.0708 -0.0609 -0.4352
 7014W        W25761  34.311  12.188   9.057  0.1812  0.0803 -0.0371
 7015W        W25762  17.506  13.367  21.353  0.0124 -0.1644  0.1144
 7016W        W25763  11.849   4.136   5.460  0.0759 -0.1581  0.1564
 7017W        W25764  18.594  31.332  23.084 -0.1861 -0.1573  0.2446
 7018W        W25765  17.612   3.117  24.166 -0.0423 -0.0992 -0.0495
 7019W        W25766  14.505  23.930   7.614  0.2690  0.0965 -0.2008
 7020W        W25767  10.043   2.580   0.063  0.0749  0.1052  0.0823
 7021W        W25768   7.768  33.088  14.340  0.1381  0.4228 -0.0567
 7022W        W25769   9.084  12.712  18.027 -0.0026 -0.0441 -0.0760
 7023W        W25770   5.796  34.751   0.065 -0.0388 -0.0554 -0.1978
 7024W        W25771  22.331   2.212  22.698  0.3980 -0.0988 -0.1515
 7025W        W25772  25.800  27.715   9.682  0.0212 -0.1384 -0.0059
 7026W        W25773   7.450  31.818  20.960  0.1696 -0.1246 -0.2474
 7027W        W25774  19.967  34.461   5.587 -0.2962 -0.2188  0.4326
 7028W        W25775  26.516  29.034  11.648  0.1797  0.0567 -0.2381
 7029W        W25776  10.199   8.737   7.535  0.1342 -0.0490 -0.1391
 7030W        W25777   0.041   5.308   4.423 -0.0657 -0.0265 -0.1549
 7031W        W25778  12.775  15.966  10.278  0.0334 -0.1007 -0.0139
 7032W        W25779  28.506  20.215  14.092 -0.1335 -0.4522 -0.1252
 7033W        W25780  31.462   0.214   6.379  0.1120 -0.0832  0.2848
 7034W        W25781  30.983  16.544   9.170 -0.2395  0.1958 -0.1446
 7035W        W25782   8.140   0.026  14.704  0.2489  0.3960  0.1613
 7036W        W25783  20.269  18.011  17.282 -0.2680  0.2098  0.1376
 7037W        W25784  18.449  28.600   2.511 -0.2396  0.0746 -0.1019
 7038W        W25785  16.372  10.575  25.619 -0.0637  0.0545 -0.0119
 7039W        W25786  33.130  14.253   6.750 -0.1827 -0.1441  0.2312
 7040W        W25787  19.789   2.017   3.739 -0.1432  0.3127 -0.1713
 7041W        W25788   2.969  20.218  15.535 -0.0438  0.1912 -0.2365
 7042W        W25789  31.753  32.465  19.928  0.0954  0.1133  0.0219
 7043W        W25790  22.079  13.279  19.766  0.1635  0.0431 -0.0795
 7044W        W25791  26.152  26.437  11.038 -0.2815 -0.0310  0.1564
 7045W        W25792  11.357  33.049  14.039 -0.1042  0.0118  0.4413
 7046W        W25793  10.493  29.753  22.325  0.1756  0.3479 -0.2731
 7047W        W25794  18.050   3.635   0.868 -0.1768 -0.0499 -0.1500
 7048W        W25795  23.994  26.875  26.126 -0.1727 -0.0668 -0.1416
 7049W        W25796  34.191  20.861  10.698  0.3085 -0.1683  0.0343
 7050W        W25797  18.237  14.806  24.532  0.1292  0.0543  0.2206
 7051W        W25798  34.612  30.079   3.047  0.1859 -0.1001 -0.5820
 7052W        W25799   4.067   7.003  22.396  0.3617 -0.0137  0.3096
 7053W        W25800  16.671  15.913   9.016 -0.1044  0.0768  0.2134
 7054W        W25801  11.472  16.429  22.344  0.0426  0.0891  0.1704
 7055W        W25802  31.321  18.419   8.281  0.1963  0.1266 -0.2555
 7056W        W25803  24.314   1.057  24.543 -0.0243 -0.0362  0.1706
 7057W        W25804   8.969  23.867   0.790 -0.0723 -0.3101 -0.3141
 7058W        W25805  22.684   5.238  23.462 -0.0908  0.1211 -0.2807
 7059W        W25806  15.602  31.464   2.192  0.3652 -0.0508 -0.0311
 7060W        W25807  21.319  33.810  22.999 -0.0487 -0.0045 -0.0543
 7061W        W25808   0.036   2.979   4.142 -0.3613 -0.1715  0.2571
 7062W        W25809  16.742   9.660  26.080 -0.2395  0.1397  0.1423
 7063W        W25810  20.416   0.882   0.224  0.0968  0.1209  0.0300
 7064W        W25811   2.841   0.924  17.725 -0.0512  0.1067 -0.2457
 7065W        W25812  32.394  15.884  17.809  0.1885 -0.0673 -0.0101
 7066W        W25813  17.153  26.080   3.316 -0.0912 -0.3726  0.1627
 7067W        W25814  11.346   1.775   2.863  0.0513 -0.3949  0.4199
 7068W        W25815  27.047   2.539  19.062 -0.0866 -0.1861  0.0677
 7069W        W25816  15.481  34.755   9.562 -0.0580  0.1707 -0.0639
 7070W        W25817  13.166  32.360  14.773 -0.0024  0.1502 -0.1099
 7071W        W25818  32.374  19.187   8.122 -0.0940  0.2437 -0.0830
 7072W        W25819  31.341  28.123   2.115  0.0422 -0.1029  0.3034
 7073W        W25820   5.858  15.781   1.724  0.2269  0.1938 -0.3142
 7074W        W25821  27.068  25.373  16.290 -0.2192 -0.3110  0.1903
 7075W        W25822   0.127  32.350  19.963 -0.0210  0.0498 -0.0569
 7076W        W25823  17.517  20.469  22.164  0.1263  0.1656  0.4384
 7077W        W25824   7.417  13.197   8.210  0.0654 -0.0084  0.2458
 7078W        W25825  35.329  10.346  24.215 -0.1543  0.0876  0.1497
 7079W        W25826  27.465  14.213  21.261  0.1176  0.1767  0.1377
 7080W        W25827  11.201   5.233   0.124 -0.0601 -0.3009  0.0165
 7081W        W25828  24.415   6.332  25.187 -0.4858 -0.1994 -0.0429
 7082W        W25829   6.133  27.695   6.120  0.3896  0.0916 -0.0970
 7083W        W25830  23.929   3.807   5.501 -0.0658  0.2524  0.4675
 7084W        W25831  22.653   0.630  23.903 -0.2593 -0.0885 -0.2565
 7085W        W25832  14.643  21.496   9.545 -0.0139  0.0901 -0.3667
 7086W        W25833  17.896  17.500  20.195  0.0791 -0.1944  0.0676
 7087W        W25834  28.900  15.970  15.642 -0.2403  0.0751  0.0397
 7088W        W25835  20.007  12.211   1.288  0.3972  0.2160  0.0559
 7089W        W25836  20.733   6.666  22.098 -0.0656 -0.1911 -0.4009
 7090W        W25837  29.469   8.924  26.022 -0.1829  0.1558 -0.2573
 7091W        W25838   7.799  15.409  10.176 -0.0208  0.0865 -0.3785
 7092W        W25839  23.547  25.945   1.318 -0.0365 -0.0408 -0.2225
 7093W        W25840   3.273   2.552   3.534  0.5893 -0.1095 -0.0431
 7094W        W25841  29.143  12.248  10.409  0.0629  0.5300 -0.3399
 7095W        W25842   3.637  16.175  21.437  0.2137  0.0710  0.0291
 7096W        W25843  26.603   6.633  17.743  0.0485 -0.0541 -0.1715
 7097W        W25844  17.468  21.950  24.322 -0.0437  0.3913 -0.3069
 7098W        W25845   8.568  12.394  25.712 -0.4112  0.2129  0.0775
 7099W        W25846  19.332  21.966  22.881 -0.2090 -0.1336  0.1762
 7100W        W25847  26.337   1.289  19.360 -0.0575  0.2921 -0.0013
 7101W        W25848  15.491   9.735  20.479  0.0509  0.2423  0.1975
 7102W        W25849  34.291  14.038  11.619 -0.0397  0.1304 -0.1796
 7103W        W25850   4.630  14.442  15.555 -0.1238  0.1437 -0.0833
 7104W        W25851  16.841   1.168  23.670 -0.1287  0.0844  0.1246
 7105W        W25852  31.633  31.999  19.074 -0.1711  0.0391  0.1572
 7106W        W25853  16.884  24.350  22.168 -0.0647 -0.1090  0.0768
 7107W        W25854  28.664  26.949   2.934  0.0860 -0.0024 -0.0472
 7108W        W25855  33.502  31.193  18.414  0.4453  0.5512 -0.3130
 7109W        W25856  10.650  26.318  26.085  0.3570 -0.0959 -0.1286
 7110W        W25857  13.629  27.458   5.176  0.1055  0.0356  0.0399
 7111W        W25858  19.514  34.237   1.198 -0.3695  0.0794 -0.1994
 7112W        W25859  34.126  28.828  20.332 -0.2689  0.0309 -0.0014
 7113W        W25860   2.020  13.671  17.140  0.0256  0.0494  0.2654
 7114W        W25861  20.370  12.953  25.828 -0.0131  0.4359 -0.3998
 7115W        W25862  14.652   5.408  20.932  0.1052  0.2412  0.3024
 7116W        W25863  18.237  24.664  21.345 -0.1648 -0.3088 -0.1955
 7117W        W25864   0.926  35.247  25.406  0.2729  0.0879  0.1260
 7118W        W25865  16.421   3.545  17.338 -0.2403 -0.0174 -0.0061
 7119W        W25866   8.139   6.272   4.382 -0.1184  0.0874  0.0628
 7120W        W25867  15.723  29.337  11.702  0.1664 -0.0762 -0.0610
 7121W        W25868  21.464  20.055   4.586 -0.2588 -0.2333 -0.3732
 7122W        W25869  33.969  11.233  11.882  0.1043 -0.0721  0.1316
 7123W        W25870  33.043  34.434  25.508 -0.0502  0.1374  0.1415
 7124W        W25871  22.962  33.510   5.070  0.4376  0.3282 -0.0779
 7125W        W25872  29.104   6.060  11.023 -0.0693  0.0751  0.0704
 7126W        W25873   3.710   0.866  21.617 -0.0652  0.1379  0.3639
 7127W        W25874  27.856  11.101  15.453  0.2197 -0.1506 -0.1334
 7128W        W25875   4.156  18.264  23.332  0.0625 -0.1672  0.0762
 7129W        W25876   2.848  16.063  22.351 -0.4747 -0.0941  0.0126
 7130W        W25877  30.863  35.011  17.076 -0.1580  0.2643  0.4012
 7131W        W25878  25.825  28.872  12.125  0.0801  0.1936 -0.3112
 7132W        W25879  25.354  34.919   6.735  0.2827 -0.0886  0.2175
 7133W        W25880  12.141  13.579  23.543  0.1210  0.1491 -0.0644
 7134W        W25881  31.815  14.584  10.874 -0.2537 -0.0250  0.0960
 7135W        W25882   3.684   7.634   5.150 -0.0014  0.0218  0.0337
 7136W        W25883  28.377  28.281   0.088  0.0581 -0.0620  0.0671
 7137W        W25884  19.762   1.100  15.553  0.1948 -0.1225  0.3538
 7138W        W25885  33.407  12.755   7.706 -0.0455 -0.3392  0.2757
 7139W        W25886   8.192  18.905   7.817 -0.4453 -0.1353 -0.0892
 7140W        W25887  33.853   8.471  22.111  0.1025 -0.0598 -0.1418
 7141W        W25888  23.411  11.252  17.178  0.1091  0.0249 -0.0140
 7142W        W25889  33.109  14.707   6.475  0.0398 -0.0655 -0.0038
 7143W        W25890  33.106   3.482  17.040 -0.4082  0.0007  0.2953
 7144W        W25891  14.795   3.932   7.765 -0.1848 -0.2377  0.3847
 7145W        W25892  24.247  24.603  21.527  0.0529  0.1853  0.0037
 7146W        W25893  25.950   5.671  11.725 -0.0701  0.2168 -0.0253
 7147W        W25894  30.767  24.141  24.976 -0.0627  0.4091  0.0805
 7148W        W25895  29.274  16.020   7.034  0.0397  0.4487 -0.0679
 7149W        W25896  11.094  11.874  11.274 -0.2618 -0.0806  0.2603
 7150W        W25897  17.155  12.037   4.733 -0.0114 -0.0316 -0.1951
 7151W        W25898   7.662  31.674  10.625 -0.0864  0.2392  0.2162
 7152W        W25899  32.713  20.010  21.623 -0.0023 -0.1355 -0.0588
 7153W        W25900  11.199  15.564  13.626 -0.1273  0.1115 -0.0709
 7154W        W25901   3.141   8.030   2.192  0.1882 -0.0856  0.4067
 7155W        W25902   4.533   9.441   5.912  0.0145 -0.0357 -0.2153
 7156W        W25903  12.324  14.907   9.655 -0.2594  0.3133  0.2476
 7157W        W25904  30.937  15.754  23.646  0.1516  0.1093 -0.3008
 7158W        W25905   3.444  29.279  25.638 -0.1685  0.1996  0.1559
 7159W        W25906  20.236  33.937   6.290 -0.0592 -0.1486  0.0070
 7160W        W25907  12.179  14.048   6.728 -0.0604 -0.2753  0.1536
 7161W        W25908  26.263  34.294  24.300  0.1660  0.0487 -0.3487
 7162W        W25909  22.650   8.770   4.545 -0.2691  0.0939  0.2047
 7163W        W25910  24.848  33.693   1.953  0.1117  0.1084  0.0610
 7164W        W25911  14.297  31.191   5.513 -0.1006 -0.1871  0.2274
 7165W        W25912  17.209  19.246  10.957 -0.0166  0.3237  0.1233
 7166W        W25913   0.498  26.999  15.398 -0.0542  0.1865  0.0571
 7167W        W25914  25.190   1.268   3.463 -0.2055 -0.1219  0.1295
 7168W        W25915  30.254  34.582  14.652 -0.0795  0.4540 -0.1900
 7169W        W25916  12.750  14.237   0.231  0.2211 -0.3701 -0.2413
 7170W        W25917  21.040  21.353  21.921  0.2572  0.2647 -0.1052
 7171W        W25918  31.755  18.258  24.973  0.0990 -0.0309  0.1191
 7172W        W25919  10.846   5.246  13.985 -0.2643 -0.1277  0.0065
 7173W        W25920  11.085   5.170   2.883  0.0090 -0.1709  0.0307
 7174W        W25921   6.117  27.596  11.636 -0.1605 -0.0031 -0.2053
 7175W        W25922   3.413  22.649  20.750  0.2357  0.2192 -0.1575
 7176W        W25923  18.894  27.229  21.203 -0.1424 -0.0366  0.1322
 7177W        W25924  14.533  23.249  15.573  0.0716 -0.2383 -0.0949
 7178W        W25925   0.295   4.312  23.965 -0.0156  0.0471  0.1419
 7179W        W25926  11.876   7.672  19.391  0.0021  0.3560 -0.2905
 7180W        W25927  20.069  17.473   1.323 -0.0803  0.0007 -0.0968
 7181W        W25928  25.431   1.519  24.635 -0.2093 -0.0086  0.2315
 7182W        W25929  23.774  27.643  20.865 -0.2356  0.1956  0.0837
 7183W        W25930  20.922  30.199  25.132  0.0090 -0.2835  0.2466
 7184W        W25931  15.431  29.676   4.235  0.0725  0.2860 -0.0534
 7185W        W25932   2.213  11.600   2.113 -0.0377  0.0615  0.0924
 7186W        W25933  21.247   3.437   1.449  0.3221 -0.2694  0.1278
 7187W        W25934  24.825  13.101  17.491 -0.0262  0.0260  0.0445
 7188W        W25935  22.796   6.487   1.722 -0.1263 -0.3073 -0.3180
 7189W        W25936  32.280   8.414   1.812  0.0355 -0.2442 -0.0504
 7190W        W25937  13.210   9.213   5.309  0.3006  0.0173  0.2860
 7191W        W25938  25.739   4.233  13.724 -0.1952 -0.0172  0.0636
 7192W        W25939  27.183  12.039  19.051  0.3356 -0.0683 -0.4569
 7193W        W25940  32.969  20.395  14.274 -0.1850  0.2274 -0.0946
 7194W        W25941  11.493  32.037   5.149 -0.0485 -0.0964 -0.0002
 7195W        W25942   8.492  29.735  22.574  0.2782 -0.2361 -0.2180
 7196W        W25943   4.197  22.452   2.545 -0.2518  0.1331 -0.1127
 7197W        W25944   2.567   5.359   5.636  0.2223 -0.1254  0.2569
 7198W        W25945   8.179  30.501  14.376 -0.2530 -0.1230 -0.0651
 7199W        W25946  20.123  23.568   0.431 -0.1871  0.2568  0.2065
 7200W        W25947  28.450  10.384  19.286  0.2186 -0.1335 -0.1533
 7201W        W25948  12.165  26.937  11.000 -0.1423  0.0646  0.2555
 7202W        W25949  13.284   8.395   5.254 -0.3813  0.2462 -0.1195
 7203W        W25950   2.377  14.771  15.104  0.0368 -0.0950 -0.3445
 7204W        W25951  14.010  33.576  10.385  0.3612  0.2453  0.1248
 7205W        W25952  31.765  21.838  19.896 -0.0383  0.2972  0.1092
 7206W        W25953  27.683  15.717   4.703 -0.1417 -0.0484 -0.0996
 7207W        W25954   0.865  19.747  26.248 -0.1595 -0.2841  0.1524
 7208W        W25955  14.369  28.479  10.222  0.1301  0.0906 -0.1099
 7209W        W25956  23.444  30.105  14.021 -0.1538  0.3821  0.0435
 7210W        W25957  14.593  11.655  13.667 -0.0580 -0.1037 -0.3636
 7211W        W25958  33.820  31.364  25.035 -0.0838 -0.0903 -0.0496
 7212W        W25959   8.652   6.562   0.537 -0.3699 -0.0935  0.2236
 7213W        W25960  21.837   4.851   3.203 -0.1487 -0.0927 -0.0974
 7214W        W25961  32.692  22.965  12.975  0.1953  0.3175 -0.0792
 7215W        W25962  28.161   4.078  22.740  0.2079 -0.0888 -0.2910
 7216W        W25963  11.861  16.965  11.408  0.3599 -0.2144  0.0517
 7217W        W25964  15.711  14.582  19.635 -0.0003  0.0214 -0.2489
 7218W        W25965   1.829  24.009   1.068 -0.3492  0.2251 -0.2007
 7219W        W25966   5.544   2.763  20.365  0.0511  0.1103 -0.0582
 7220W        W25967   6.164   5.914   6.180 -0.2308 -0.0298  0.2076
 7221W        W25968   6.046  28.089  24.010 -0.2573  0.1147 -0.0734
 7222W        W25969  26.083   3.348   2.384  0.0205 -0.0001  0.4028
 7223W        W25970  28.403  15.009  14.207  0.0306 -0.2101  0.3737
 7224W        W25971   3.681  11.757  19.157  0.0463  0.1764  0.2173
 7225W        W25972  24.138   2.943   1.740 -0.1050 -0.0565 -0.1526
 7226W        W25973  20.745  34.641   7.227 -0.0302 -0.0334 -0.3231
 7227W        W25974  27.672  29.254   2.738  0.0846 -0.0415 -0.0427
 7228W        W25975   5.028  10.450   6.770 -0.0757  0.1556  0.3423
 7229W        W25976  32.686  33.813  21.351 -0.5503 -0.0402 -0.1491
 7230W        W25977  25.107  15.190  16.438  0.0405 -0.0595  0.4684
 7231W        W25978   9.492  20.817   0.086  0.1938  0.0116  0.0485
 7232W        W25979  23.902  27.774   3.650 -0.0381 -0.1216 -0.4398
 7233W        W25980  16.321  16.907   4.958  0.1215 -0.0685 -0.0850
 7234W        W25981   3.036  28.383  10.826 -0.0170  0.1779 -0.3235
 7235W        W25982  33.604  16.598  10.337 -0.0123  0.1358 -0.1835
 7236W        W25983   3.009   4.171   2.761  0.1436 -0.0136  0.0062
 7237W        W25984  25.158   5.172  14.169 -0.2246  0.1999 -0.0747
 7238W        W25985  21.699   3.442   6.595 -0.1009  0.2137  0.1029
 7239W        W25986   0.650  28.877  18.334 -0.2417  0.1258 -0.1349
 7240W        W25987   1.158  26.067  25.603 -0.0667 -0.0908 -0.3414
 7241W        W25988  11.562   1.960   0.862  0.0640 -0.2491 -0.0543
 7242W        W25989  13.286  27.995   8.386  0.0666  0.2110 -0.0645
 7243W        W25990  19.625   8.561  26.167  0.0031 -0.1078  0.1983
 7244W        W25991   2.516  13.121   4.012  0.0258  0.0960  0.0441
 7245W        W25992  16.613  31.043  10.516  0.4139  0.1165  0.0537
 7246W        W25993  29.022  18.875  11.867  0.3359 -0.2290 -0.2414
 7247W        W25994  25.936  11.947  12.512 -0.1119  0.0555 -0.0439
 7248W        W25995  16.320  34.076   2.829 -0.0133 -0.0682 -0.1195
 7249W        W25996   8.913  18.122  23.864 -0.1199  0.1476  0.1291
 7250W        W25997  19.398  11.860   4.180 -0.0207  0.0316  0.0151
 7251W        W25998  13.397  23.751   8.220 -0.3306 -0.2491 -0.0156
 7252W        W25999  13.652   5.803   3.696 -0.0902 -0.1169 -0.0990
 7253W        W26000  19.465  23.338  22.398 -0.1644 -0.0449  0.2387
 7254W        W26001  11.296  25.461   5.039  0.0437 -0.0217  0.0421
 7255W        W26002   4.262  27.393   2.620  0.0013  0.1763  0.2786
 7256W        W26003  28.294  34.551  19.315 -0.0073  0.1794  0.0819
 7257W        W26004  27.015  15.762   7.911 -0.1333 -0.2022  0.2618
 7258W        W26005  30.652   8.049  11.506  0.1723  0.1621  0.1663
 7259W        W26006  16.575  15.497  18.718  0.2860  0.2016  0.2291
 7260W        W26007  33.302  22.605  23.276  0.0386 -0.1837  0.1057
 7261W        W26008  28.508  27.515  24.900  0.0427 -0.1150 -0.1116
 7262W        W26009  13.585  19.026   0.086  0.0163 -0.0677 -0.2205
 7263W        W26010  27.660  27.072  26.070  0.0660 -0.0061  0.0236
 7264W        W26011  23.866  12.154  21.160 -0.0086  0.0542  0.2945
 7265W        W26012   9.484  26.369  26.216 -0.1962  0.1205  0.0873
 7266W        W26013  28.973   8.274  20.089  0.0323  0.1923  0.2899
 7267W        W26014   7.948  21.817   9.564 -0.0191  0.2007 -0.2924
 7268W        W26015  11.180   3.791   6.819  0.0403  0.1234 -0.1367
 7269W        W26016  32.035  23.046  12.244  0.0764  0.0182  0.2232
 7270W        W26017  15.092  21.938   3.202  0.0107  0.1593  0.0823
 7271W        W26018  21.535  26.307  22.096  0.4778 -0.0433 -0.0728
 7272W        W26019  17.417   1.480  18.818 -0.1621 -0.2432 -0.0623
 7273W        W26020  22.722  33.770  14.501  0.1418  0.0343  0.3090
 7274W        W26021  23.306   0.256  23.261 -0.2624 -0.4847 -0.1618
 7275W        W26022  23.160  15.282  14.997  0.2778  0.0162  0.0896
 7276W        W26023   3.342  34.694   5.912 -0.0927  0.2685  0.1765
 7277W        W26024   2.410  19.080  10.718 -0.0247 -0.3864  0.1013
 7278W        W26025  16.369  16.857  13.332  0.3929 -0.1673  0.0929
 7279W        W26026   4.774  33.821  18.374  0.0072  0.1316  0.2142
 7280W        W26027  11.949  13.932   6.247 -0.0861 -0.0401  0.2571
 7281W        W26028  19.441  16.652   8.792  0.1621  0.1186  0.0033
 7282W        W26029  32.427  16.237   9.018  0.0436 -0.4366  0.1673
 7283W        W26030  27.255  18.811  19.588  0.0078  0.2851  0.0869
 7284W        W26031  30.653  27.501  11.348 -0.0135  0.1081  0.1019
 7285W        W26032   0.646  17.274  24.685  0.1860  0.2834  0.2704
 7286W        W26033  20.883  24.679  19.081  0.3203  0.2143 -0.2420
 7287W        W26034  29.715  32.679  19.966  0.0506  0.2210 -0.0917
 7288W        W26035   8.010  25.563  22.829  0.0920 -0.0545 -0.1910
 7289W        W26036  13.957  15.513  21.927 -0.0037  0.0726 -0.0155
 7290W        W26037  11.108   9.766  10.923  0.1412  0.0592  0.1265
 7291W        W26038   2.179  26.143   4.867 -0.0573  0.2949 -0.1790
 7292W        W26039  31.328  17.274   9.093 -0.1117 -0.0098  0.0769
 7293W        W26040  22.181  13.521  24.566  0.0923  0.3060  0.1048
 7294W        W26041  14.696  15.485   8.716  0.0266 -0.0491 -0.0303
 7295W        W26042   9.597  18.917   7.260 -0.1273 -0.1028  0.0494
 7296W        W26043   1.442  25.992  19.817  0.1986  0.0224 -0.1623
 7297W        W26044  11.030  33.593  21.985  0.1226  0.2047  0.0776
 7298W        W26045  23.579  30.575  22.897  0.1361  0.1437  0.0500
 7299W        W26046  34.574   8.601  25.157  0.2976 -0.1594 -0.2963
 7300W        W26047  10.006  11.488  23.002 -0.0256 -0.2224  0.3069
 7301W        W26048  28.418   9.575  16.905  0.0069 -0.1123 -0.1955
 7302W        W26049  22.103  25.392  18.093 -0.2705  0.3331  0.2942
 7303W        W26050  14.672   1.772  22.722 -0.0468 -0.1314 -0.0541
 7304W        W26051  15.599  29.182   2.921  0.0816 -0.2260  0.0795
 7305W        W26052  29.560   0.654   2.515 -0.1560 -0.1400  0.1342
 7306W        W26053  31.851  26.060  17.328 -0.0573  0.1881  0.1768
 7307W        W26054   0.683  15.331  20.988  0.4339 -0.2037  0.2415
 7308W        W26055  31.832  30.453  17.131  0.1383  0.0120  0.2312
 7309W        W26056  30.798  31.218   5.928 -0.1783  0.0497  0.1340
 7310W        W26057  14.126  16.558  21.059  0.0090  0.1745 -0.1141
 7311W        W26058  28.219  34.087  11.079 -0.2333  0.1732  0.0650
 7312W        W26059   1.163  33.136  18.062 -0.0059 -0.1436 -0.0697
 7313W        W26060  33.506  31.997   1.811 -0.0672 -0.0769 -0.0345
 7314W        W26061  35.125   1.026   0.472  0.0134 -0.3167  0.2327
 7315W        W26062  16.378   4.361   6.471 -0.0796  0.2194 -0.0981
 7316W        W26063  18.528  24.553  20.206  0.1535  0.1316  0.1069
 7317W        W26064  15.871  15.952   5.541 -0.0546  0.1185 -0.0285
 7318W        W26065  19.687  31.917   2.669 -0.0875 -0.0017  0.1226
 7319W        W26066  25.041  35.232  16.104 -0.0347 -0.1567 -0.0300
 7320W        W26067  10.723   6.920   9.181 -0.1566  0.3454 -0.3672
 7321W        W26068   9.130   1.536   1.175  0.0438 -0.4779  0.0344
 7322W        W26069  25.815  18.257  25.359  0.0404 -0.0670 -0.1859
 7323W        W26070  28.958  30.876   2.405  0.2355  0.0325  0.2360
 7324W        W26071  13.370  29.398   9.795 -0.0944 -0.3238  0.0676
 7325W        W26072   2.364   4.017   0.875 -0.1671 -0.2177  0.3370
 7326W        W26073  32.118  26.845  20.028 -0.1451  0.0041 -0.0418
 7327W        W26074   0.235  21.300  16.148 -0.0776 -0.1214  0.0410
 7328W        W26075  30.070  15.140  21.710  0.1360  0.5837  0.2010
 7329W        W26076  13.916  22.011  16.769  0.2433  0.1369 -0.0897
 7330W        W26077  21.411  18.667  24.298 -0.0350 -0.3068 -0.0237
 7331W        W26078  13.818   8.077  26.075  0.3196 -0.0814 -0.3941
 7332W        W26079  16.218  25.881  11.986  0.0566 -0.3144 -0.0947
 7333W        W26080  22.073  28.204   3.325 -0.1239 -0.0602  0.2424
 7334W        W26081  25.940   3.464  23.363  0.2511  0.2174  0.2991
 7335W        W26082  27.204  26.690  14.312 -0.2557 -0.1204  0.2737
 7336W        W26083  12.633  15.549   0.290  0.0144 -0.3257  0.1421
 7337W        W26084  30.459   1.712  24.105  0.1543 -0.0011 -0.0022
 7338W        W26085  28.734   6.127   1.962  0.0820 -0.0124  0.3950
 7339W        W26086  20.015  31.280   3.299 -0.0130 -0.0593  0.1704
 7340W        W26087  34.497  12.058   9.913  0.1261 -0.3260  0.0656
 7341W        W26088   8.561  15.194  23.185  0.0713 -0.3352 -0.1632
 7342W        W26089   7.010  24.289  20.894  0.0281 -0.3546 -0.2362
 7343W        W26090  31.521  30.604   3.893 -0.0234  0.1022  0.2648
 7344W        W26091  27.144  34.286  23.621 -0.2947  0.1623 -0.2536
 7345W        W26092  12.073  16.649  25.077  0.4095 -0.0228 -0.1137
 7346W        W26093  34.250   0.333  17.949  0.0908  0.2393 -0.1273
 7347W        W26094  34.911  13.277  11.137  0.0898 -0.0170  0.2832
 7348W        W26095  17.368  29.329  21.026  0.1895  0.0174 -0.4111
 7349W        W26096   4.203  17.507  25.719 -0.0436 -0.0048 -0.1697
 7350W        W26097  29.764  23.093  21.139 -0.0626 -0.2435 -0.4267
 7351W        W26098  19.888  34.615   2.784  0.0491  0.0492  0.2024
 7352W        W26099  22.026  20.986  24.003 -0.0647  0.1305 -0.0708
 7353W        W26100   0.007  23.548  14.013  0.1880 -0.1549  0.2529
 7354W        W26101  35.127   5.750  21.825 -0.1071 -0.3898  0.2580
 7355W        W26102  23.626  16.963  17.328 -0.0404 -0.1036 -0.0674
 7356W        W26103   8.125   9.168   0.465 -0.2722  0.0244 -0.0161
 7357W        W26104   6.258  24.641   8.930 -0.2872 -0.0704 -0.1464
 7358W        W26105  32.726  27.478  15.633 -0.0020 -0.2132  0.0881
 7359W        W26106  33.032  12.514  10.812 -0.1530 -0.2154  0.0560
 7360W        W26107   2.298  15.562  25.257 -0.0016 -0.2680  0.2003
 7361W        W26108  29.392  30.991  10.982  0.1573 -0.1741  0.2487
 7362W        W26109  13.214   0.383   7.681  0.0920  0.0674  0.1266
 7363W        W26110  14.142  27.537   0.942  0.3389 -0.1597  0.1057
 7364W        W26111  33.704  17.699   9.847  0.3542 -0.0304  0.1345
 7365W        W26112  18.332  11.089  21.721  0.0174  0.0365 -0.0773
 7366W        W26113   4.775  29.888   4.785 -0.0040 -0.1519 -0.1874
 7367W        W26114  33.170  21.643  14.505  0.1896 -0.0190 -0.1612
 7368W        W26115  20.435   4.982   6.176 -0.1806  0.1512  0.4404
 7369W        W26116   0.216   4.139   1.649  0.1841 -0.2243 -0.0095
 7370W        W26117  17.197  22.162   6.868  0.4545  0.1581  0.1630
 7371W        W26118   8.529  32.769   9.305  0.0863  0.0676 -0.0532
 7372W        W26119  32.716  26.796   2.016  0.0816  0.1174 -0.2319
 7373W        W26120  20.229   0.117  22.825  0.1746 -0.1929  0.0654
 7374W        W26121  15.591   0.125   0.503 -0.4143 -0.0181 -0.3008
 7375W        W26122   5.821   2.778  11.201  0.1936 -0.0421  0.0586
 7376W        W26123   0.800  30.862  23.148  0.1126  0.1255  0.1314
 7377W        W26124   0.354   8.719  16.100 -0.0344 -0.1457  0.0909
 7378W        W26125  29.207  12.033  25.508 -0.0174  0.2347  0.0859
 7379W        W26126   9.203  20.822  11.593 -0.0397  0.4017 -0.3329
 7380W        W26127  17.018   6.196  20.391 -0.2665  0.0593  0.0166
 7381W        W26128  21.526   1.888  24.574  0.2694  0.1527  0.1982
 7382W        W26129  10.488  26.438   5.872  0.1786  0.0444 -0.0353
 7383W        W26130  11.109   8.417  18.570 -0.0286  0.2017 -0.1942
 7384W        W26131   9.075  32.170   9.344  0.4123 -0.5462 -0.0537
 7385W        W26132  15.608  29.320  21.062 -0.0260  0.1360  0.0786
 7386W        W26133  30.800  28.764  26.033 -0.2436  0.4164 -0.2185
 7387W        W26134  32.054   4.035  22.919 -0.2805  0.3376 -0.3756
 7388W        W26135  11.128  33.884  23.839 -0.1996  0.0473  0.1285
 7389W        W26136  23.320  20.681  23.499  0.0850  0.0813  0.2212
 7390W        W26137  14.289  30.661  20.381 -0.2529 -0.1790 -0.0869
 7391W        W26138  17.997  10.586  23.170 -0.3593  0.0296 -0.1902
 7392W        W26139  27.865   6.182  16.179  0.0173 -0.0724  0.0388
 7393W        W26140  32.405  26.568  13.796 -0.1855  0.1193 -0.0204
 7394W        W26141   8.164   5.134  12.562 -0.1840 -0.1605 -0.0846
 7395W        W26142   1.644  13.891  18.073  0.1945  0.2350  0.4953
 7396W        W26143   6.569   8.674  19.532  0.1354  0.0311 -0.2197
 7397W        W26144   2.292   6.639   3.418 -0.3170 -0.0921  0.1061
 7398W        W26145  35.029  15.063  25.421 -0.1267  0.1568  0.1849
 7399W        W26146  21.303  24.004   3.322  0.0123  0.1496  0.2292
 7400W        W26147  17.996  10.697   4.323  0.1254  0.1211  0.1094
 7401W        W26148  12.485  13.275  10.782 -0.0509  0.1312  0.0895
 7402W        W26149  12.025  10.186   1.514 -0.2656  0.4125 -0.0872
 7403W        W26150  33.405  18.499   0.601 -0.3331 -0.0765  0.0753
 7404W        W26151  23.846  13.857  18.454  0.2237  0.0326  0.2833
 7405W        W26152  26.053  33.181  13.669  0.1070  0.0565  0.1822
 7406W        W26153   1.699  21.265  17.894  0.1653  0.0783  0.1450
 7407W        W26154  33.760  15.898  24.148  0.2434 -0.0640  0.1994
 7408W        W26155   7.345  22.088  13.071 -0.2094  0.1929 -0.1498
 7409W        W26156  18.212  18.481   3.594 -0.2722 -0.0847 -0.1007
 7410W        W26157  25.507  26.873  15.970  0.2348 -0.1435  0.0841
 7411W        W26158  10.743  11.045   2.619 -0.0853 -0.4514  0.1897
 7412W        W26159   3.470   9.845   5.795 -0.2292  0.1354 -0.3611
 7413W        W26160  21.409   6.170   7.627 -0.1584 -0.1130 -0.2470
 7414W        W26161  17.941   0.587  23.035  0.1367  0.3439 -0.2243
 7415W        W26162  19.290  10.975   2.193 -0.1621 -0.0157 -0.2276
 7416W        W26163  22.096  22.880   1.105  0.0910 -0.2384 -0.0481
 7417W        W26164  15.428   5.447  19.409 -0.1152 -0.0445 -0.0175
 7418W        W26165  35.340  16.261  12.043 -0.0012  0.2208 -0.0379
 7419W        W26166  30.538  28.268  13.141  0.0200 -0.2914 -0.1369
 7420W        W26167  27.619  25.867   0.022 -0.1465  0.0979  0.1753
 7421W        W26168   1.468  11.748  15.694  0.2271 -0.0949  0.0905
 7422W        W26169  10.848   3.687  12.367  0.2093 -0.1605  0.0703
 7423W        W26170  18.722  20.983   6.941  0.0008 -0.1483  0.3287
 7424W        W26171  13.959  22.858   3.866 -0.1864 -0.2805  0.1357
 7425W        W26172  32.298  27.791  11.838 -0.0687 -0.2040 -0.1810
 7426W        W26173  10.952   7.490   2.769 -0.2677  0.0123  0.2262
 7427W        W26174  34.897  16.635   8.130  0.2936  0.3705 -0.1679
 7428W        W26175  32.827  17.947   6.339 -0.1300  0.1318 -0.0410
 7429W        W26176   6.591  34.744  22.952  0.2848  0.1214 -0.3524
 7430W        W26177  10.041  11.313  26.180 -0.1292 -0.0728 -0.1820
 7431W        W26178  32.396  30.631  22.501  0.3015  0.0374  0.2256
 7432W        W26179  34.597   4.523  14.422 -0.1207 -0.0649  0.1059
 7433W        W26180  27.341  15.438  22.401  0.0159 -0.3118 -0.0910
 7434W        W26181   3.804  19.062  22.184 -0.2244  0.3368  0.2523
 7435W        W26182  31.650  32.151  20.750 -0.1085  0.3038  0.0205
 7436W        W26183  13.356  31.458   2.921 -0.0559 -0.0351 -0.0010
 7437W        W26184  29.400  33.565  20.822 -0.1690  0.2568  0.1820
 7438W        W26185  15.725  18.602  21.877  0.0677 -0.0495  0.2079
 7439W        W26186  29.295  25.686  12.241  0.3228 -0.3354  0.0915
 7440W        W26187  20.861  31.525   3.036 -0.1353  0.0389  0.0074
 7441W        W26188  10.741  29.087   3.682  0.0649  0.0826  0.1834
 7442W        W26189  11.875   1.114   1.384  0.1357  0.0552 -0.2371
 7443W        W26190  23.381  33.183   0.921 -0.3846 -0.1642  0.0406
 7444W        W26191  24.504  25.392  17.325 -0.0786  0.1910  0.0789
 7445W        W26192  29.852  17.058  15.934  0.0868 -0.1503 -0.1734
 7446W        W26193   4.998  19.825  21.948  0.1316 -0.0557  0.2356
 7447W        W26194  27.048  19.430  15.929  0.0976  0.3288 -0.1510
 7448W        W26195  27.277   8.103  12.003 -0.2238 -0.2916  0.0202
 7449W        W26196  26.577   9.575   8.541  0.0504 -0.0608 -0.1144
 7450W        W26197  34.530  13.636   8.488  0.0644  0.1281  0.0494
 7451W        W26198  16.404  18.649  23.985  0.0227 -0.1431  0.1149
 7452W        W26199  32.962   1.936   1.056  0.1118 -0.0522 -0.1788
 7453W        W26200  13.844  15.164  21.579  0.1846  0.0945 -0.0976
 7454W        W26201  32.443  28.256  23.740 -0.0650 -0.0525 -0.0268
 7455W        W26202  14.185  29.509  16.104  0.0291  0.1393  0.5118
 7456W        W26203  25.352  24.621  25.216  0.1761  0.0803 -0.1517
 7457W        W26204  21.929   4.690   1.277  0.0143 -0.0023  0.1498
 7458W        W26205   7.204   9.020  23.281 -0.0894 -0.1903  0.0074
 7459W        W26206  25.129  19.615  24.737 -0.2254  0.3703  0.0326
 7460W        W26207  19.708  13.469   3.597  0.0690 -0.0993 -0.2416
 7461W        W26208  12.304  17.500   4.133 -0.1559  0.0023  0.1756
 7462W        W26209  13.493  24.622   3.578  0.0374 -0.0304 -0.0293
 7463W        W26210  29.518  27.417  10.354 -0.0965 -0.0242  0.2222
 7464W        W26211  34.768  16.839  23.138 -0.2368  0.3044 -0.1228
 7465W        W26212   9.572  30.170  13.782  0.1567  0.2364  0.2728
 7466W        W26213   3.240  19.307  17.851 -0.0364 -0.0202  0.1328
 7467W        W26214  13.344  10.481   4.102 -0.0186 -0.1405  0.3060
 7468W        W26215   2.518   5.436   0.721 -0.1374 -0.1729  0.3328
 7469W        W26216  18.105  35.054  15.377  0.0836  0.3909  0.1846
 7470W        W26217  32.048  10.304   7.901 -0.1030  0.0242 -0.1670
 7471W        W26218   7.568   1.358   1.533  0.1336 -0.0504 -0.2232
 7472W        W26219  16.675   1.922   9.556  0.0208  0.1128  0.2007
 7473W        W26220  18.848  32.737   5.602 -0.0499 -0.1598 -0.5270
 7474W        W26221  13.413  25.085  24.373  0.3810 -0.1302 -0.1432
 7475W        W26222  16.179  15.446  25.859 -0.1404  0.0792  0.0038
 7476W        W26223  33.694  34.929  22.981  0.3122 -0.5559 -0.1599
 7477W        W26224   0.944  32.372  17.083  0.0722  0.2892 -0.0208
 7478W        W26225  20.763   1.448  20.696  0.0380 -0.1036  0.2977
 7479W        W26226   4.750  10.760   4.196 -0.0467 -0.2311 -0.0358
 7480W        W26227  32.036  26.023  23.091 -0.1225  0.1183  0.1585
 7481W        W26228  32.138  22.055  25.344  0.1251 -0.2512 -0.0413
 7482W        W26229  31.313   7.422   0.479  0.0127 -0.0243  0.2513
 7483W        W26230  35.152   9.018   3.138 -0.2690  0.3332  0.1011
 7484W        W26231   4.228  27.923   9.129  0.0545  0.0759 -0.1556
 7485W        W26232   1.614  23.162  22.191 -0.0079 -0.1515 -0.0572
 7486W        W26233  23.723  35.084  16.013 -0.1840 -0.0417 -0.1587
 7487W        W26234   6.663  15.839  21.433 -0.1261 -0.0849  0.1915
 7488W        W26235  25.530  13.475  11.500  0.1878 -0.0436  0.3087
 7489W        W26236   4.024   4.270   6.597 -0.1478 -0.0683 -0.0021
 7490W        W26237   9.758  21.722  15.322  0.2520  0.4545  0.0485
 7491W        W26238  10.311  19.675   9.007  0.1705  0.0237 -0.0033
 7492W        W26239   6.441  33.326  22.059  0.0073 -0.1727 -0.0333
 7493W        W26240   0.153  30.172   3.382  0.1842  0.3486 -0.0402
 7494W        W26241  14.041   1.361   2.555  0.0962  0.4032  0.0988
 7495W        W26242  32.188  24.297   8.499  0.2832 -0.1264 -0.2164
 7496W        W26243   4.343  14.679  17.343  0.2386 -0.1149 -0.2388
 7497W        W26244   0.117  17.211   7.871 -0.1892 -0.3576  0.2220
 7498W        W26245  20.770  27.054   3.202  0.2284 -0.0821  0.2801
 7499W        W26246  28.115  18.838  11.975 -0.3685 -0.1915  0.1692
 7500W        W26247  23.140   0.374  16.074  0.0613 -0.0712 -0.0058
 7501W        W26248  27.045  33.783  18.128  0.3321  0.3808 -0.2162
 7502W        W26249  33.231  16.137  24.156  0.2739  0.1850  0.1268
 7503W        W26250  27.701  34.157  14.575 -0.0469  0.0474 -0.1393
 7504W        W26251  24.967   2.417   4.501  0.1110  0.1870 -0.0092
 7505W        W26252   3.691  33.984   0.533  0.2499 -0.4414  0.1059
 7506W        W26253  28.819  16.675   8.243  0.4745 -0.1036 -0.0930
 7507W        W26254  11.250  16.763   2.378 -0.0618  0.1385 -0.2094
 7508W        W26255  35.217   8.649  20.682 -0.0312 -0.1063 -0.1604
 7509W        W26256   2.128  30.731   5.538 -0.3107 -0.2104 -0.0679
 7510W        W26257  23.881  30.166   0.797  0.1287 -0.0872  0.3541
 7511W        W26258  12.231   2.856  10.710  0.2240  0.0977 -0.1725
 7512W        W26259  28.688  31.569   4.770 -0.0237  0.0712  0.2066
 7513W        W26260   8.050   7.919  23.250  0.0568  0.1238  0.1972
 7514W        W26261  12.814  25.349  12.648 -0.0086 -0.1438 -0.0035
 7515W        W26262  13.188  26.942  10.875  0.1730  0.0327  0.3991
 7516W        W26263   6.289   4.709  11.711 -0.0066 -0.3744  0.0619
 7517W        W26264  34.417   3.579  12.008 -0.0293  0.0853 -0.1444
 7518W        W26265  28.003   2.783  19.988 -0.1087  0.3375  0.0673
 7519W        W26266  12.471  21.268   4.934 -0.0435 -0.0186 -0.1169
 7520W        W26267  20.526  34.521   5.694 -0.0827  0.1770 -0.1113
 7521W        W26268  10.102  28.183  22.734  0.3081  0.3482  0.0271
 7522W        W26269  11.252  12.847   1.116 -0.1323  0.1533 -0.2165
 7523W        W26270   6.081   9.214   9.853  0.0915  0.0574 -0.0164
 7524W        W26271  18.936  22.269  22.734 -0.1534  0.1296  0.0786
 7525W        W26272   3.418   9.803  25.615  0.0337 -0.0263  0.1863
 7526W        W26273  15.902   7.620   8.818  0.1362 -0.0482 -0.0983
 7527W        W26274  29.611  16.258  24.189 -0.0821  0.0215  0.1282
 7528W        W26275  28.072   3.146  23.344 -0.0213  0.0885 -0.2340
 7529W        W26276  26.861   9.367   0.080 -0.4086 -0.0207  0.1775
 7530W        W26277  19.160  18.109   8.640 -0.1306 -0.3839 -0.2534
 7531W        W26278   1.316  35.016  23.336 -0.0501  0.0867 -0.0133
 7532W        W26279  19.681   2.031   0.238 -0.3244  0.0032  0.1243
 7533W        W26280  29.974  32.507   5.451  0.0888  0.0971  0.0496
 7534W        W26281  12.545  13.523   9.816 -0.2508 -0.1313 -0.0603
 7535W        W26282  33.433   1.105  16.733 -0.2773  0.3011  0.0196
 7536W        W26283   2.388  34.923  22.594  0.1060  0.1075 -0.2369
 7537W        W26284  17.327   2.704  18.363 -0.0946  0.0041 -0.2964
 7538W        W26285  13.990   3.156   9.839  0.0529 -0.2178  0.3614
 7539W        W26286  20.761   0.807  20.120 -0.2455  0.0489 -0.0583
 7540W        W26287  31.530  16.950  23.202  0.1910  0.0051 -0.2044
 7541W        W26288  12.606  19.222  21.270  0.2496 -0.0597  0.0216
 7542W        W26289  33.156  24.746  18.842 -0.0030  0.0361 -0.2512
 7543W        W26290  25.846  31.479  15.847  0.0352  0.0575  0.1937
 7544W        W26291   8.841  18.960   9.654  0.1550  0.0174  0.1391
 7545W        W26292  11.152  12.200  13.801  0.1937  0.0534  0.3642
 7546W        W26293  12.041  14.814   6.744  0.0641 -0.3744  0.3170
 7547W        W26294   2.173   7.849  20.981 -0.2645  0.0289  0.1789
 7548W        W26295  11.513  27.089   3.279 -0.0128 -0.4482  0.1623
 7549W        W26296   6.389  12.580  18.184 -0.0764 -0.2010 -0.0250
 7550W        W26297   0.058  19.953  12.781 -0.1013  0.0349  0.0937
 7551W        W26298  16.474   7.564   9.378  0.0953 -0.0483 -0.1945
 7552W        W26299  23.729  12.289  13.266 -0.0154  0.4701  0.1111
 7553W        W26300   8.604  23.224   8.401 -0.2502  0.0875  0.2096
 7554W        W26301   1.955  32.461  25.803 -0.0899  0.1719 -0.0155
 7555W        W26302  10.365  23.226  14.688 -0.2987 -0.0190 -0.2048
 7556W        W26303  17.876   7.710   2.481  0.0927 -0.1603 -0.0897
 7557W        W26304  10.291  31.769  24.973  0.1476  0.1183  0.1600
 7558W        W26305  11.193   4.217   6.084 -0.2208 -0.1880 -0.2010
 7559W        W26306  28.814  34.109  23.717 -0.1770  0.1447  0.2826
 7560W        W26307  11.003  12.498   5.324  0.0897 -0.1388 -0.1434
 7561W        W26308   8.362  26.098  10.954  0.2330 -0.2057 -0.3692
 7562W        W26309  11.013  19.582   7.507 -0.0364 -0.0198 -0.1161
 7563W        W26310  21.252   6.635  22.997 -0.2579  0.1143  0.2672
 7564W        W26311  15.794  17.177  23.029 -0.3088  0.0384  0.1143
 7565W        W26312  34.090   6.469  14.985  0.0928  0.1809  0.0802
 7566W        W26313  22.999  30.578  22.436  0.4536  0.4277  0.1957
 7567W        W26314  28.534   7.338  25.261  0.1067 -0.0326 -0.3386
 7568W        W26315   8.819  28.684   9.847  0.3515 -0.1117 -0.0594
 7569W        W26316  14.350   5.933  26.183  0.0835 -0.2225  0.2395
 7570W        W26317  29.808  33.115  17.757 -0.2868 -0.2395  0.0323
 7571W        W26318   5.830  14.218  16.194  0.0974 -0.0561 -0.3156
 7572W        W26319   8.021  13.464   6.941  0.0320 -0.1021  0.0700
 7573W        W26320  13.561  29.034  12.989  0.1948  0.1181  0.1190
 7574W        W26321  15.167  21.263   8.365  0.1748 -0.1132 -0.1680
 7575W        W26322  29.237  13.385  13.681 -0.1996  0.3844  0.4261
 7576W        W26323  26.341  28.836  16.203 -0.0675 -0.3232  0.0899
 7577W        W26324  30.795   1.983  21.307 -0.1720  0.2093 -0.2069
 7578W        W26325  17.210   8.903   8.355  0.2419  0.5302 -0.0072
 7579W        W26326  25.954  22.156  13.074 -0.0265 -0.0736 -0.1624
 7580W        W26327   4.785  18.906   6.019 -0.0280 -0.1427 -0.0153
 7581W        W26328  33.989  17.158  13.796  0.1621 -0.0873  0.2513
 7582W        W26329  27.106   3.935  12.050  0.0070  0.0004 -0.0624
 7583W        W26330  32.360   7.788  16.719  0.3654 -0.1122  0.1099
 7584W        W26331  14.974  11.762   0.681  0.0610  0.1564 -0.2539
 7585W        W26332  18.713  10.769   4.423 -0.1909 -0.2008 -0.2862
 7586W        W26333   7.351  33.672  13.570 -0.1214 -0.1236 -0.1395
 7587W        W26334   2.234  26.645   4.956 -0.0447 -0.2404  0.0413
 7588W        W26335  13.517  30.822   7.286 -0.1188  0.1558  0.1569
 7589W        W26336  16.288  28.738  22.363 -0.0625  0.2265 -0.1089
 7590W        W26337  26.881  30.584  19.393 -0.1656 -0.0808  0.3160
 7591W        W26338  26.701  27.893  16.332  0.1529  0.2955  0.1839
 7592W        W26339  18.528  27.136   5.330  0.0566 -0.1965  0.3998
 7593W        W26340  12.925  24.649   7.953  0.0232 -0.1589  0.0278
 7594W        W26341  27.477  31.470  25.143 -0.1711 -0.2166  0.2283
 7595W        W26342   3.839   3.794   8.685 -0.0980  0.3642  0.1893
 7596W        W26343   7.762  29.812  11.875  0.0125 -0.1715  0.2455
 7597W        W26344  26.431   9.687  17.096 -0.0081 -0.0717 -0.0448
 7598W        W26345  17.294   6.831  24.528 -0.1505  0.2002  0.4560
 7599W        W26346   5.636  32.367   9.929  0.2653  0.0167  0.1409
 7600W        W26347  27.453  19.373  12.395  0.0280 -0.2024  0.0633
 7601W        W26348  31.649   3.599   0.538 -0.4063 -0.1024 -0.2805
 7602W        W26349  27.622   9.446  21.322 -0.1316 -0.2122 -0.2980
 7603W        W26350  18.467  19.859   1.041  0.2662 -0.0933  0.0687
 7604W        W26351  33.726   2.059  20.582 -0.0754  0.0164  0.0501
 7605W        W26352  11.787   5.692  22.461  0.1556 -0.1401 -0.1243
 7606W        W26353   3.864  22.703   3.815  0.0705 -0.3400 -0.0959
 7607W        W26354  31.912  24.143   9.358 -0.0284 -0.2417 -0.3307
 7608W        W26355  21.414   5.251  19.286 -0.2990 -0.0580  0.2841
 7609W        W26356   1.852  26.226   2.568 -0.1943 -0.1877  0.0013
 7610W        W26357  12.495   9.010  25.796 -0.0153 -0.0205  0.2752
 7611W        W26358  14.887  21.096   1.278 -0.0748 -0.0364 -0.0686
 7612W        W26359  32.208  10.878   0.941 -0.1156  0.0324 -0.0005
 7613W        W26360  34.382  23.201  21.807  0.2018  0.1911 -0.1391
 7614W        W26361  28.075  34.651  12.677 -0.0989 -0.0518 -0.1850
 7615W        W26362  26.792  19.224  24.862  0.4752 -0.0011  0.0013
 7616W        W26363   9.476  16.132   8.371  0.0280 -0.0169  0.2897
 7617W        W26364  31.807  17.754  17.763  0.2692  0.0707  0.2750
 7618W        W26365  21.094  13.977  16.977  0.4005 -0.0709 -0.1263
 7619W        W26366  28.476  27.857  22.471  0.0640 -0.0410 -0.1870
 7620W        W26367  30.100   8.923   9.062  0.0014  0.0072  0.2546
 7621W        W26368   7.058  14.688   4.415 -0.1535 -0.1334  0.0133
 7622W        W26369  22.069  31.174   5.707 -0.3128 -0.1213  0.1721
 7623W        W26370  11.246  14.072   7.903  0.1711  0.0016 -0.1342
 7624W        W26371   9.091  28.819  13.274 -0.1954  0.3967 -0.0782
 7625W        W26372  15.051  35.208  22.810  0.3008 -0.1442  0.0190
 7626W        W26373  29.821   8.051   8.953  0.0295 -0.0633  0.2945
 7627W        W26374   8.524  24.996   9.923  0.0285  0.0239  0.1071
 7628W        W26375   2.246  33.518   5.399  0.0161 -0.2195 -0.0594
 7629W        W26376  20.743  18.258  18.486 -0.0011 -0.1757 -0.2567
 7630W        W26377  29.063  33.681  17.121  0.1081 -0.1186 -0.0476
 7631W        W26378  11.063  16.326   0.402  0.1467  0.2894  0.3698
 7632W        W26379  10.654  21.688   8.655 -0.2979  0.4640 -0.0126
 7633W        W26380  12.031   7.487   4.567  0.0550 -0.0527  0.0802
 7634W        W26381   2.972   0.863  21.069 -0.0892  0.2341  0.1487
 7635W        W26382   5.258  16.083  22.991 -0.2298 -0.0089  0.1093
 7636W        W26383   8.610   4.500   4.424 -0.3851 -0.1406 -0.4601
 7637W        W26384  17.815   6.107   5.857  0.2085 -0.2441  0.0748
 7638W        W26385  31.096  14.416  20.360  0.4969 -0.4742  0.0743
 7639W        W26386   5.761  34.882  11.812  0.0798 -0.1261 -0.3920
 7640W        W26387   2.832  11.399  22.122  0.1682  0.0905  0.1344
 7641W        W26388  10.049  14.358   3.961 -0.0192  0.3086 -0.2565
 7642W        W26389  13.086  30.141  10.127 -0.0842 -0.0067  0.0932
 7643W        W26390  13.412  18.193  11.013 -0.0394  0.0195  0.0388
 7644W        W26391  31.992  15.923  13.456  0.0722  0.5120  0.1645
 7645W        W26392  32.406  29.600  21.740  0.0833 -0.2805 -0.0037
 7646W        W26393  18.056   0.149  18.694 -0.3777 -0.1236 -0.6159
 7647W        W26394  27.952  17.029  16.681 -0.2751 -0.0834  0.1774
 7648W        W26395  16.586  14.350   4.693  0.0277 -0.1252 -0.2872
 7649W        W26396   2.481   0.268  19.722 -0.0523 -0.0180  0.0807
 7650W        W26397   8.468  30.791  24.569 -0.1163 -0.1322  0.1162
 7651W        W26398   2.400  22.049  25.111  0.0151  0.2858 -0.1955
 7652W        W26399  15.803  35.202   1.813 -0.0267  0.1553 -0.1651
 7653W        W26400   7.574   8.673   4.216  0.1367  0.1091 -0.1852
 7654W        W26401  13.947   5.011  13.181 -0.0290 -0.3124  0.0274
 7655W        W26402  22.692  18.098  24.240  0.3844 -0.3775 -0.2147
 7656W        W26403  20.049   2.232  22.258  0.1711  0.1061  0.0415
 7657W        W26404  21.723  14.241  20.916 -0.0103 -0.0498 -0.1647
 7658W        W26405  22.943   2.830   2.455 -0.3265 -0.0396 -0.4803
 7659W        W26406  24.351  30.845  15.682  0.1954  0.2447  0.1031
 7660W        W26407  25.508  15.514   9.143  0.1158 -0.2657  0.1007
 7661W        W26408  27.628   3.363   3.919 -0.4845 -0.1776 -0.1369
 7662W        W26409  28.059  23.557   9.818  0.2414 -0.4214 -0.0390
 7663W        W26410   4.405  27.988   4.357 -0.1889  0.2279 -0.0112
 7664W        W26411  33.251  20.414  22.084 -0.2118 -0.2147 -0.2123
 7665W        W26412  19.066  16.203  22.398 -0.0541  0.1281  0.0244
 7666W        W26413  10.683   0.685  24.873 -0.1937 -0.2148  0.2538
 7667W        W26414  23.082  31.636  16.138 -0.0617 -0.1470  0.1613
 7668W        W26415   0.269   2.039   7.534  0.3677 -0.2422  0.4132
 7669W        W26416  29.190   4.067  14.245 -0.0487 -0.0510  0.3709
 7670W        W26417  21.749  22.767  22.211  0.1559 -0.2225 -0.0437
 7671W        W26418  23.828  19.106  14.357 -0.0968  0.1012 -0.1422
 7672W        W26419  35.060  21.164  19.176  0.3245  0.2377 -0.0917
 7673W        W26420  24.215  14.458  12.252 -0.0189 -0.2360  0.1090
 7674W        W26421  10.726  14.972   0.843  0.3108  0.0402  0.0829
 7675W        W26422  27.243  22.396   9.227  0.0117  0.4715 -0.0589
 7676W        W26423   8.244  21.844   3.877 -0.1571  0.1455 -0.2810
 7677W        W26424  34.706  11.296   1.287  0.1410  0.0145 -0.2574
 7678W        W26425  31.681   5.971  13.719  0.0635  0.1698 -0.1513
 7679W        W26426  25.008  20.910  16.568  0.3273  0.1867 -0.0589
 7680W        W26427  15.910  10.713   6.912  0.1099  0.0513 -0.1007
 7681W        W26428  32.201  30.685   5.498  0.1848  0.3850 -0.1476
 7682W        W26429  31.306  33.759  22.652 -0.0163  0.4573  0.0265
 7683W        W26430   4.869  14.515   7.589  0.0118  0.3386 -0.1780
 7684W        W26431  18.530  30.337  24.633  0.1343 -0.0836 -0.0296
 7685W        W26432  14.448  25.551  25.285  0.0466  0.1431  0.3005
 7686W        W26433  11.748  32.175  13.850 -0.2908 -0.2549  0.2099
 7687W        W26434  31.768  19.979  15.607  0.0835 -0.1771  0.3567
 7688W        W26435  20.014  19.448   3.470 -0.1931  0.1655  0.1753
 7689W        W26436  33.970  30.217  23.696  0.4786  0.1423 -0.1969
 7690W        W26437  13.361  29.702  24.328  0.1490  0.0043 -0.0780
 7691W        W26438   4.418   8.700  24.654 -0.0833  0.1604  0.2067
 7692W        W26439  28.538  26.448  14.878 -0.2130  0.0919 -0.2173
 7693W        W26440   5.128  26.295   2.311 -0.1731  0.5049  0.1733
 7694W        W26441  24.641  16.596  13.414  0.1506  0.0713 -0.2094
 7695W        W26442  11.384  32.850  21.890 -0.0542  0.1447 -0.0367
 7696W        W26443  31.853  28.467   4.456  0.0145  0.1023 -0.2383
 7697W        W26444  24.520  12.626  14.255  0.0620  0.0899 -0.2496
 7698W        W26445   6.162  23.597   1.792 -0.0166  0.1126  0.0820
 7699W        W26446   5.510  28.216   1.772  0.0192  0.2725 -0.3031
 7700W        W26447   8.727  30.516  10.679 -0.0191  0.1915 -0.1197
 7701W        W26448  20.395   4.142   8.112 -0.3534  0.2695  0.0940
 7702W        W26449  32.599  10.353  11.122  0.0064 -0.3645  0.3823
 7703W        W26450  10.200  13.281  23.619  0.0541  0.0752  0.1702
 7704W        W26451  15.509   9.192  19.601  0.0897 -0.1812 -0.0560
 7705W        W26452  14.776   6.639  24.471 -0.0365  0.1045 -0.0524
 7706W        W26453  14.443  10.133   3.184  0.0197 -0.0104 -0.2706
 7707W        W26454  21.266  10.136   1.125  0.1438 -0.3219  0.0675
 7708W        W26455  19.816   9.389  24.532  0.0250 -0.1959 -0.1228
 7709W        W26456  21.485   1.265   5.140  0.0201  0.2263  0.3396
 7710W        W26457  32.278  34.337  13.736 -0.3336  0.0828  0.0883
 7711W        W26458  10.928  29.001  24.905  0.0013 -0.0506  0.1655
 7712W        W26459  26.729  29.271  12.182  0.1545  0.1082 -0.1830
 7713W        W26460  25.080  12.221  11.591  0.2855 -0.0542  0.2255
 7714W        W26461  18.142  29.520  10.244 -0.0674 -0.2169  0.1964
 7715W        W26462  30.728  33.014   5.681  0.2231  0.2640 -0.1690
 7716W        W26463   5.028  29.918   7.402 -0.2749 -0.2401 -0.1129
 7717W        W26464   1.275   8.876   3.712 -0.3503 -0.0332 -0.1002
 7718W        W26465  19.416  11.956   9.359  0.0826 -0.1106 -0.0463
 7719W        W26466  30.847  18.713  25.742  0.1740 -0.3473  0.2066
 7720W        W26467  29.884  21.231  11.679 -0.0498  0.0442  0.3218
 7721W        W26468   3.029  28.911   6.428 -0.4577  0.4811 -0.1201
 7722W        W26469   4.284   1.749  25.063  0.1973  0.3289  0.1040
 7723W        W26470   9.235  32.203  11.443  0.0969  0.3563 -0.0069
 7724W        W26471   3.898  16.429  23.206  0.0714  0.1685  0.0810
 7725W        W26472   6.469   5.323   6.913  0.3829  0.1815 -0.0931
 7726W        W26473  24.867  20.692  15.337  0.1840 -0.0922 -0.0661
 7727W        W26474  10.242  12.262  11.723  0.0491  0.5971 -0.0943
 7728W        W26475   5.866  31.319   9.792 -0.1277 -0.4167  0.0677
 7729W        W26476   3.870  14.158  18.257 -0.0304  0.0333 -0.1327
 7730W        W26477  12.209   6.188   9.180  0.1847  0.1124  0.1054
 7731W        W26478   2.511   9.631   5.008 -0.0457 -0.3666 -0.2839
 7732W        W26479  17.452   3.578   7.137 -0.2550 -0.0531  0.1041
 7733W        W26480  34.581  12.781  20.745  0.1425 -0.1579  0.0671
 7734W        W26481   1.989   0.493  25.989 -0.0367 -0.1963  0.1624
 7735W        W26482  27.843  11.531  24.587  0.1162  0.1906  0.0026
 7736W        W26483  15.640  29.959  24.767  0.0231  0.1696  0.0036
 7737W        W26484  20.048   0.073  18.368 -0.2439 -0.0849 -0.1881
 7738W        W26485  26.599  32.011  10.574 -0.1673 -0.4417  0.1637
 7739W        W26486   4.877  31.055  23.912 -0.2035 -0.0936 -0.1720
 7740W        W26487  24.978   6.600  21.944 -0.0666  0.3766 -0.5495
 7741W        W26488  18.546  15.849  20.842  0.1682 -0.1036 -0.0406
 7742W        W26489  31.175  31.787  23.638 -0.2729  0.1103  0.2789
 7743W        W26490   9.030  20.281   5.877 -0.0823 -0.2089 -0.3542
 7744W        W26491  28.919  33.076  14.352  0.0548 -0.1426 -0.0942
 7745W        W26492   6.660  10.114  10.095 -0.0083 -0.0494  0.1308
 7746W        W26493  29.665  22.634  19.751 -0.0594 -0.0116  0.3935
 7747W        W26494  14.615   6.536  20.150 -0.0621 -0.0182  0.0190
 7748W        W26495  26.406  24.697  21.706 -0.1113  0.1103 -0.1184
 7749W        W26496   5.816   9.351   3.450 -0.2511 -0.0613  0.1182
 7750W        W26497  33.697  27.476  14.242 -0.1120 -0.0408  0.2015
 7751W        W26498  30.951  11.268   9.646 -0.7413 -0.0320 -0.0772
 7752W        W26499   5.006  32.662   0.357  0.1410 -0.2914 -0.1522
 7753W        W26500  14.794  27.743   8.541  0.0580  0.1126  0.4828
 7754W        W26501   9.463   4.140  11.855 -0.0033 -0.2289 -0.0302
 7755W        W26502   6.906  27.378   8.688 -0.1301 -0.0461 -0.1191
 7756W        W26503  11.115  16.231   8.510  0.0779 -0.0860  0.1837
 7757W        W26504  13.282  31.884   8.273 -0.0340 -0.0263 -0.1351
 7758W        W26505  24.245   5.770   0.750 -0.1622 -0.0984  0.0481
 7759W        W26506  16.021   5.631   9.931  0.0209 -0.0040 -0.1878
 7760W        W26507  24.080  33.168  17.731  0.0721 -0.1210  0.0128
 7761W        W26508   6.985   8.372   8.168  0.0763 -0.2569 -0.1227
 7762W        W26509  26.658  23.669  14.353 -0.1038  0.0850 -0.2281
 7763W        W26510  29.491  19.247   4.534 -0.0904  0.1125  0.3614
 7764W        W26511  14.357  19.757  14.616  0.3519 -0.0455  0.0126
 7765W        W26512  14.695  31.733   2.114 -0.1025  0.3900 -0.0391
 7766W        W26513   8.451  15.583  13.424  0.3484  0.3438 -0.3179
 7767W        W26514  20.176   1.470   7.257  0.1670  0.1581 -0.0611
 7768W        W26515   9.767  16.113  19.750  0.0855  0.1314  0.2562
 7769W        W26516  13.414  33.573   1.301  0.3085  0.4151  0.2639
 7770W        W26517  34.350  33.020   2.737 -0.0522 -0.0354 -0.1817
 7771W        W26518  15.219  11.079  11.159 -0.0507 -0.2633 -0.2140
 7772W        W26519   5.294  30.413  11.128 -0.0677 -0.0437 -0.0534
 7773W        W26520  30.403  32.133  16.246 -0.3059 -0.1637  0.0965
 7774W        W26521  32.829  26.772  17.514  0.0218 -0.2494  0.0745
 7775W        W26522  32.520   9.740  10.452  0.4533  0.1154 -0.3617
 7776W        W26523  25.792  22.085  18.215 -0.2058  0.2816  0.0709
 7777W        W26524  20.637  13.293  24.701 -0.2604 -0.1596  0.2046
 7778W        W26525   9.966  23.371  24.879  0.0715  0.1660  0.2578
 7779W        W26526  25.551  21.064  20.730 -0.2773 -0.2247 -0.2673
 7780W        W26527  24.216   7.931  20.794  0.4502 -0.1324 -0.2499
 7781W        W26528  16.747  24.919  15.207  0.0091 -0.2905 -0.1523
 7782W        W26529  29.426  20.513  17.967 -0.1190 -0.2830 -0.1212
 7783W        W26530   8.377  25.014  14.145 -0.0969 -0.3512  0.1250
 7784W        W26531  29.506  25.647   9.904  0.0617  0.0564  0.1262
 7785W        W26532  30.724   0.907   2.308 -0.0674 -0.0651 -0.1055
 7786W        W26533   4.649  15.109  19.259  0.0727 -0.4144  0.5321
 7787W        W26534   0.788  21.318  17.028 -0.0256 -0.3735  0.1336
 7788W        W26535  20.753  27.249   6.119 -0.0642 -0.1820  0.1862
 7789W        W26536  30.248  15.928  11.589 -0.0211  0.0547 -0.0479
 7790W        W26537  17.065   5.307   5.634  0.1285  0.2263  0.1566
 7791W        W26538   4.833  33.606  23.942  0.0904  0.1200  0.0376
 7792W        W26539  28.456  25.945  18.019 -0.1424  0.1596 -0.1806
 7793W        W26540   7.713  17.482  24.883  0.1498 -0.1932  0.1228
 7794W        W26541  34.190  23.442  19.722 -0.0844 -0.1246  0.0901
 7795W        W26542  33.477   2.484  23.178  0.1543 -0.0241 -0.0423
 7796W        W26543   8.403   7.285  22.621  0.0690 -0.1625  0.0911
 7797W        W26544   4.389  14.749   3.973 -0.0313  0.0149 -0.1994
 7798W        W26545  31.833   7.435  21.810 -0.1378  0.1815  0.1825
 7799W        W26546  24.979  16.033  16.039  0.1755  0.3988 -0.0845
 7800W        W26547  26.837  11.887  14.927  0.0717 -0.0529 -0.3619
 7801W        W26548  25.600  21.557  25.630 -0.1269 -0.0097 -0.0888
 7802W        W26549  12.159  15.403  19.501  0.0229 -0.2868 -0.4003
 7803W        W26550  29.797  32.039   3.975  0.1837  0.1558  0.3159
 7804W        W26551  17.016   1.175   3.433  0.4846 -0.2565 -0.0514
 7805W        W26552  33.428  21.292  24.107 -0.3524 -0.1442  0.0083
 7806W        W26553  11.093   9.571  11.412 -0.0675  0.1481  0.0884
 7807W        W26554   7.310  25.738  14.158 -0.1615 -0.0517  0.0880
 7808W        W26555  27.202  32.542  19.693  0.3187  0.1597  0.1817
 7809W        W26556  18.536  11.986   8.237  0.3508 -0.0667  0.1039
 7810W        W26557   3.114  16.127  21.471 -0.1755 -0.2636  0.2059
 7811W        W26558  33.883  32.398  20.404 -0.1091  0.0211  0.0218
 7812W        W26559  17.532  32.090  19.102  0.2930  0.3320 -0.1936
 7813W        W26560  12.630  14.493  13.631 -0.4582 -0.0246 -0.1019
 7814W        W26561  27.995  34.929   0.970  0.2408 -0.4690 -0.1029
 7815W        W26562   7.000   6.260  13.048  0.0963  0.3048  0.0766
 7816W        W26563  33.535  11.174  20.379  0.1496  0.0573  0.1686
 7817W        W26564  28.472   1.495  12.642  0.0010  0.0444 -0.0686
 7818W        W26565  27.880  31.478  16.252  0.0542  0.0748 -0.0913
 7819W        W26566  26.809  17.112  10.194 -0.0291 -0.0695 -0.0956
 7820W        W26567  33.206   9.716  23.769 -0.1157 -0.1303 -0.5021
 7821W        W26568  22.836   5.186  15.198  0.0151  0.0847 -0.1587
 7822W        W26569   7.731  26.020  24.165  0.1636  0.2070 -0.0151
 7823W        W26570  19.634  18.422   8.195 -0.2228  0.0556  0.0349
 7824W        W26571  20.715  15.337   2.766  0.0818 -0.4256  0.1148
 7825W        W26572  28.977  19.838  19.295 -0.0166 -0.0231 -0.4422
 7826W        W26573   0.457  28.951  19.631  0.4350 -0.1116 -0.0034
 7827W        W26574   0.811  27.147   5.430 -0.3980  0.0744 -0.2361
 7828W        W26575  10.845  17.915  23.759  0.1223  0.2885  0.0996
 7829W        W26576   0.006  34.033   5.695 -0.1745  0.0218 -0.2216
 7830W        W26577  21.838   7.523   2.335  0.0834  0.3213  0.1991
 7831W        W26578  14.293  30.029  23.035 -0.0931 -0.0150 -0.0152
 7832W        W26579  28.050   8.563  20.977  0.0259  0.1288  0.2508
 7833W        W26580  22.440   8.923  18.063 -0.1051  0.1868  0.0308
 7834W        W26581  19.792   8.986   8.505 -0.0866 -0.0711  0.0049
 7835W        W26582  25.480   2.470   2.223 -0.0798  0.1229 -0.4186
 7836W        W26583  20.765  33.750   1.947  0.0476  0.0968 -0.4122
 7837W        W26584   2.262   5.712   2.138 -0.1233  0.0351 -0.1660
 7838W        W26585  14.268   4.889  25.991 -0.0284  0.2202  0.1480
 7839W        W26586   6.432  28.700  14.618  0.1410 -0.3409  0.1586
 7840W        W26587   7.495  31.487  15.123 -0.0756 -0.2673 -0.3656
 7841W        W26588  29.545  24.326   9.989 -0.0562  0.2275  0.0922
 7842W        W26589   7.915  31.548  12.297  0.1998  0.0786  0.4771
 7843W        W26590  20.523  33.508  18.728 -0.1201  0.0044 -0.3423
 7844W        W26591  23.709   3.824  25.471  0.2972  0.2095  0.0105
 7845W        W26592   0.284  15.796  24.742  0.1443  0.0179  0.2590
 7846W        W26593   8.691  15.764  20.205  0.0017  0.1048  0.0209
 7847W        W26594   2.147   0.403   1.959  0.2207 -0.1350 -0.2083
 7848W        W26595  28.041  17.981  15.151  0.2583 -0.0978  0.0859
 7849W        W26596  31.907  34.499  17.206 -0.0015  0.2104  0.3234
 7850W        W26597   0.964  11.679  25.416 -0.0869  0.0206 -0.1605
 7851W        W26598  14.057   2.663  22.529 -0.0878 -0.1830 -0.1272
 7852W        W26599   0.693   0.838   3.885  0.2367  0.0647 -0.0931
 7853W        W26600   2.489   0.286  16.491 -0.1813  0.3553  0.0272
 7854W        W26601   1.372  33.594   3.022 -0.1729  0.1007  0.0668
 7855W        W26602   9.244  35.002   5.991  0.0819 -0.1865  0.0282
 7856W        W26603  27.152  20.804  19.386 -0.0360  0.2993  0.1699
 7857W        W26604  34.222   1.393   4.579 -0.1856  0.1798 -0.1422
 7858W        W26605  23.686  35.193  15.502 -0.1159  0.1745 -0.1514
 7859W        W26606  26.140  26.775  16.792  0.1157  0.2502 -0.1480
 7860W        W26607   6.142   5.669  10.024 -0.0040 -0.0405 -0.1524
 7861W        W26608   0.610   2.907  26.070  0.2740 -0.0494  0.0217
 7862W        W26609  29.761  32.247  13.270 -0.0081 -0.0683  0.1224
 7863W        W26610  20.377  18.464  20.781 -0.0398 -0.0095 -0.2553
 7864W        W26611  23.299   8.371   1.596 -0.1667  0.2562 -0.4116
 7865W        W26612  31.513   1.792   2.889 -0.1739  0.0870 -0.2436
 7866W        W26613  29.223  15.077  18.335  0.2790 -0.0752 -0.2533
 7867W        W26614  26.769  14.322   9.820 -0.0932  0.1358  0.3747
 7868W        W26615  27.640   9.094  10.136  0.0529  0.0011 -0.2586
 7869W        W26616   2.169  29.614   6.534 -0.2247  0.1478  0.3044
 7870W        W26617   2.931   1.890  24.662  0.3325  0.0175 -0.1368
 7871W        W26618  34.049  20.436  19.268 -0.0207 -0.3546 -0.0242
 7872W        W26619  25.137  17.819  21.671 -0.1218 -0.0373  0.1321
 7873W        W26620  17.222  29.046   4.776 -0.1470  0.1758  0.0530
 7874W        W26621  10.318  19.025  22.244  0.0423 -0.2925  0.1125
 7875W        W26622   4.086   5.350   2.801 -0.0041  0.2428  0.0469
 7876W        W26623   7.551   3.181   9.715  0.0209  0.3287 -0.1704
 7877W        W26624  33.105   0.084  18.515 -0.2653  0.0516  0.0188
 7878W        W26625  23.181  28.720  22.008 -0.3947 -0.0556 -0.4677
 7879W        W26626   3.326   0.735   1.002 -0.1187  0.1472 -0.3262
 7880W        W26627   2.614   9.971  19.811  0.1734 -0.1104 -0.2463
 7881W        W26628  14.981   3.958  12.176  0.2096 -0.0278 -0.1300
 7882W        W26629  32.474  16.258  19.967  0.3529  0.0017  0.1065
 7883W        W26630   1.242   7.966   1.267  0.1779  0.3484  0.1001
 7884W        W26631  25.328  28.197   0.669 -0.0928 -0.0290 -0.0448
 7885W        W26632  21.156  15.256   3.153 -0.0102 -0.2984  0.2897
 7886W        W26633   2.900  30.847   5.093  0.2146 -0.2245  0.1304
 7887W        W26634  32.811   4.592   1.897 -0.0033 -0.0593  0.1159
 7888W        W26635  14.778  14.208   7.756 -0.0653  0.2927  0.0340
 7889W        W26636  27.490   9.611  12.025  0.0041 -0.3179 -0.0176
 7890W        W26637  16.579  14.913   6.061 -0.1718 -0.0549 -0.3943
 7891W        W26638  27.933  26.872  15.208  0.0282 -0.1535 -0.0898
 7892W        W26639   1.007   1.446  26.145  0.0188 -0.2741  0.1095
 7893W        W26640  21.182  12.841  20.151  0.1103 -0.1924 -0.0341
 7894W        W26641  15.982  32.023   3.518 -0.2256  0.2903 -0.2140
 7895W        W26642   2.645  10.971   3.515  0.2838 -0.0993 -0.0948
 7896W        W26643  18.017  19.284   2.993  0.0533 -0.0458  0.1117
 7897W        W26644  25.643  34.214  16.605 -0.0096 -0.0432 -0.0783
 7898W        W26645  29.647  35.035  22.363 -0.0398  0.2174  0.0199
 7899W        W26646   3.565  10.378  15.562  0.2161 -0.2032 -0.0613
 7900W        W26647  17.969  17.329   6.772 -0.1369  0.0788  0.0870
 7901W        W26648  13.709  17.510   1.377  0.2259 -0.0957 -0.2179
 7902W        W26649   8.501  28.519   2.914  0.0975 -0.3152  0.1688
 7903W        W26650   7.810  25.908   3.936 -0.0838 -0.1849  0.4039
 7904W        W26651  22.104  17.644  22.820 -0.0308 -0.0572 -0.0838
 7905W        W26652  14.898  34.062  19.391 -0.1495 -0.0640  0.1367
 7906W        W26653  23.235  16.174  14.321 -0.1586  0.0095  0.2571
 7907W        W26654   4.147   4.473  21.491 -0.1142 -0.1928 -0.0058
 7908W        W26655  15.264  27.870  10.151 -0.1183  0.3044 -0.0468
 7909W        W26656  32.351  12.048  19.842 -0.4280 -0.1457  0.2172
 7910W        W26657   9.874   8.730  26.030  0.0561 -0.2458 -0.0317
 7911W        W26658  12.915  18.537  24.316 -0.2254  0.0210  0.1229
 7912W        W26659   2.066  27.550   6.254 -0.2025 -0.4485 -0.0297
 7913W        W26660  31.995  28.687  22.509  0.0651  0.0630 -0.0022
 7914W        W26661  31.432  21.630  23.648  0.3909 -0.1602  0.1063
 7915W        W26662  24.140   2.841  17.948 -0.1364  0.0558  0.1279
 7916W        W26663  17.000  26.165   1.997  0.2794 -0.1670  0.0250
 7917W        W26664   9.233   7.866   0.479  0.1581 -0.2087  0.0730
 7918W        W26665  13.395   8.978  11.334  0.1267  0.1332 -0.0984
 7919W        W26666  11.160  23.228   1.503 -0.3442 -0.2141  0.3376
 7920W        W26667   5.054   4.238   6.908  0.0373  0.0715 -0.1111
 7921W        W26668  29.143   1.790  12.639 -0.1735 -0.0536 -0.2709
 7922W        W26669   0.891  18.932  13.160  0.1101  0.1268  0.0439
 7923W        W26670  12.012   7.903   5.964 -0.0182 -0.1614 -0.1425
 7924W        W26671  14.726  25.391   3.322  0.0960 -0.1426  0.0217
 7925W        W26672  28.563  14.514   9.285  0.2905  0.0497  0.0499
 7926W        W26673  31.386  21.589  14.850 -0.0227 -0.0587 -0.1736
 7927W        W26674   7.678  31.653  22.355 -0.1579 -0.3741 -0.2028
 7928W        W26675   8.765   8.628   0.977  0.0322 -0.2698 -0.0400
 7929W        W26676  17.314  27.162   1.252  0.0913 -0.1553 -0.0526
 7930W        W26677  13.093   2.996   5.721 -0.1773 -0.2423 -0.2339
 7931W        W26678   1.602  25.062  23.729  0.1549  0.2038  0.2588
 7932W        W26679  19.369  18.425  24.142  0.1758  0.0813  0.1697
 7933W        W26680   8.521  24.657   7.125  0.2121 -0.2077  0.2117
 7934W        W26681  29.676  20.573  20.345  0.1056 -0.1708  0.3117
 7935W        W26682  17.231  28.995   5.366  0.0154  0.2558 -0.2664
 7936W        W26683   6.262   8.237  22.105  0.0481 -0.2150 -0.1637
 7937W        W26684  20.569  11.533  15.894 -0.1618  0.3348 -0.2622
 7938W        W26685  17.891  14.902  25.180 -0.3007  0.0742  0.0205
 7939W        W26686   8.617  14.372  12.052 -0.0704 -0.0485  0.0616
 7940W        W26687  14.314   1.059   2.850  0.2890 -0.0281  0.0221
 7941W        W26688   8.085  21.093   9.078  0.1368 -0.1398 -0.2291
 7942W        W26689  11.821  34.159  24.302  0.0147  0.1326  0.0338
 7943W        W26690  31.282   1.766  23.377  0.1107 -0.0059 -0.2136
 7944W        W26691   5.496   1.315  24.359  0.0372 -0.1919  0.2485
 7945W        W26692  24.998  27.374  15.583 -0.0717  0.3078  0.0107
 7946W        W26693  13.234   8.991  13.760 -0.1427 -0.0331 -0.0942
 7947W        W26694  30.338  11.010  17.106 -0.2644  0.1459 -0.1603
 7948W        W26695  12.501   9.712  19.614  0.0643 -0.0662  0.2686
 7949W        W26696  10.049  26.538  10.855  0.0778 -0.0808 -0.1233
 7950W        W26697  11.701  14.807   5.137 -0.0609 -0.0494 -0.0506
 7951W        W26698  24.151  32.316  11.495 -0.1220  0.2475 -0.2491
 7952W        W26699  13.382  23.234  11.382 -0.3254 -0.2316  0.1712
 7953W        W26700  11.330  13.638  23.688  0.1218 -0.0149  0.1343
 7954W        W26701  32.190   8.338  15.257 -0.1655 -0.0672 -0.1116
 7955W        W26702  10.649   2.630  22.146 -0.1332  0.2595  0.4000
 7956W        W26703  29.712   5.002  25.383 -0.1667  0.3852 -0.1900
 7957W        W26704  29.022  27.005  23.837 -0.1305  0.0555  0.0705
 7958W        W26705   6.709  28.188  10.168  0.0270 -0.0316  0.0463
 7959W        W26706  32.455  20.392  14.158 -0.1475  0.0201  0.0343
 7960W        W26707  16.936   6.852   1.713  0.0081 -0.1711  0.1241
 7961W        W26708  31.552  31.378  16.131 -0.1487 -0.2042 -0.2448
 7962W        W26709  23.302  19.313  19.928 -0.3010 -0.2459 -0.1108
 7963W        W26710   6.098  12.788  20.313 -0.2966 -0.0767 -0.1054
 7964W        W26711  14.751   3.299  10.927  0.1781 -0.2858 -0.1493
 7965W        W26712  10.698  21.592  15.051  0.0371 -0.1261 -0.0652
 7966W        W26713  18.556  27.242  20.759 -0.0390  0.2991 -0.1262
 7967W        W26714   0.674  33.431   3.846 -0.1180  0.2883  0.0916
 7968W        W26715  28.963   6.577   2.172 -0.1102 -0.0967 -0.2125
 7969W        W26716  17.425  28.677   7.847  0.0732 -0.4768 -0.0336
 7970W        W26717  31.597   4.269   3.686 -0.4285 -0.0191 -0.0573
 7971W        W26718   6.972   2.543   7.585  0.0498  0.2797  0.2718
 7972W        W26719   1.113   0.210  15.572  0.3639 -0.1934 -0.1117
 7973W        W26720   2.642   0.335  22.544  0.0048 -0.0052 -0.0230
 7974W        W26721   7.292   0.430   0.996 -0.0702 -0.0955 -0.0870
 7975W        W26722   8.095  27.313  16.071  0.3123  0.4117 -0.0754
 7976W        W26723   0.090  14.069  23.922 -0.3064 -0.2146 -0.1369
 7977W        W26724  34.179  12.268  16.683  0.0201  0.5458 -0.0500
 7978W        W26725  11.661  19.039  14.802  0.0970  0.2798 -0.1600
 7979W        W26726   5.164  13.056  23.998 -0.1401  0.0254 -0.0677
 7980W        W26727  23.812  12.727  25.397 -0.0017 -0.2232  0.1330
 7981W        W26728   8.743   6.972   6.933 -0.0087  0.2389 -0.2068
 7982W        W26729   1.615   5.599   5.334 -0.0626  0.2074  0.3473
 7983W        W26730  14.841  10.295   2.091 -0.0304 -0.1822 -0.2755
 7984W        W26731   6.997  18.668  23.543 -0.1934 -0.3310  0.1824
 7985W        W26732  19.763  27.354   8.291 -0.1333 -0.0179  0.1739
 7986W        W26733  23.002  34.701   1.765  0.1924  0.1258 -0.1060
 7987W        W26734  21.042  14.245   1.813  0.0213 -0.1951 -0.1834
 7988W        W26735  20.343  26.242  17.035  0.0926  0.0959 -0.2026
 7989W        W26736   8.052  15.891  20.640  0.2304  0.0513  0.2257
 7990W        W26737  30.790  34.375   3.850  0.0282  0.2833  0.1907
 7991W        W26738  13.832  25.793   1.050 -0.1505  0.0753 -0.0532
 7992W        W26739   2.129  33.120  20.874  0.1062  0.3297 -0.1236
 7993W        W26740  31.396  13.475  10.439 -0.0199  0.0851  0.1343
 7994W        W26741  25.439  30.456   4.500  0.1005  0.0567  0.1392
 7995W        W26742  23.580  23.208  11.621  0.1185  0.2771  0.1787
 7996W        W26743   9.923  14.854   0.094  0.3737 -0.0676  0.3401
 7997W        W26744   2.162  22.209  20.298  0.0037 -0.0801 -0.0879
 7998W        W26745  13.725  26.280  24.157  0.0546  0.0981 -0.0410
 7999W        W26746  12.070  32.612  22.261 -0.3032  0.1265  0.0597
 8000W        W26747   5.307   9.942  16.922 -0.0711 -0.0091  0.0623
 8001W        W26748   2.970   0.684   6.784  0.0697 -0.1010 -0.0073
 8002W        W26749  31.899  23.255   5.317  0.1336 -0.2105  0.1123
 8003W        W26750  15.102  28.587  11.315  0.1116 -0.0244  0.0643
 8004W        W26751  19.054   8.345  17.869 -0.0863 -0.0017 -0.1344
 8005W        W26752   7.474  34.580  24.483  0.1984  0.2430  0.0653
 8006W        W26753  33.772  14.091  21.891 -0.1903 -0.0520  0.1311
 8007W        W26754  15.890  25.501   5.754 -0.1066  0.0140  0.0850
 8008W        W26755   8.629  31.449   9.477  0.0792 -0.0420 -0.0120
 8009W        W26756  20.396   1.956  24.266 -0.0915  0.1442 -0.0221
 8010W        W26757   3.514  27.512  24.351 -0.3339 -0.1169  0.3621
 8011W        W26758  10.055  29.741  16.790  0.1502 -0.1277 -0.1295
 8012W        W26759  21.426   7.012   0.900  0.0490 -0.3235  0.0773
 8013W        W26760   1.758  10.652  22.554  0.3719 -0.1430  0.1987
 8014W        W26761  21.529  19.192  21.821  0.0223  0.1119 -0.2446
 8015W        W26762  26.262  10.258  12.477 -0.0252  0.1613 -0.3731
 8016W        W26763  30.377  19.480  13.326  0.2078  0.3033  0.1748
 8017W        W26764   9.217  21.307  14.432  0.1142 -0.1341  0.0519
 8018W        W26765  11.647   1.098  13.696  0.1378 -0.0181  0.2222
 8019W        W26766  19.502   7.958  17.815  0.0715 -0.1330  0.1014
 8020W        W26767  32.762  17.239   0.017 -0.1156  0.0706  0.0395
 8021W        W26768   8.973  10.186   0.678  0.0381 -0.0772 -0.4561
 8022W        W26769  31.117   3.686   5.819  0.2673  0.0169  0.1265
 8023W        W26770  34.231  25.678  10.958  0.0780 -0.2386 -0.0289
 8024W        W26771   9.921  29.182  22.837  0.0644 -0.0259 -0.0403
 8025W        W26772  11.401   1.908  26.155 -0.0815  0.0142 -0.2448
 8026W        W26773   9.646  15.516   2.486  0.1102  0.4087  0.3051
 8027W        W26774  26.643  10.139  24.228  0.0033 -0.1947  0.0099
 8028W        W26775  29.792   3.949  12.286 -0.1853 -0.2606 -0.0621
 8029W        W26776  16.853  28.715  20.892  0.0831  0.0091  0.1366
 8030W        W26777   3.209   5.221  20.207  0.1513  0.0886  0.0917
 8031W        W26778   3.277  12.072  15.911  0.0152  0.0390  0.0680
 8032W        W26779  16.069  23.836  12.635 -0.2899 -0.3399  0.2859
 8033W        W26780  17.904  24.702  11.866 -0.0014 -0.2956 -0.1319
 8034W        W26781  28.746  11.212  10.349  0.0968  0.1642  0.4379
 8035W        W26782   2.271  14.706  13.063 -0.2696 -0.0747 -0.1983
 8036W        W26783   0.079  32.098   5.939  0.1080 -0.0489 -0.0295
 8037W        W26784  10.446  27.165  12.242  0.1262 -0.0743 -0.0120
 8038W        W26785   9.806   2.922   0.876  0.2306  0.1309 -0.0106
 8039W        W26786  20.262  30.637  18.565  0.0163 -0.2190  0.3257
 8040W        W26787   4.691  27.771  24.779 -0.1011  0.3923  0.0721
 8041W        W26788   0.366  21.542  18.575  0.0880  0.1049  0.2162
 8042W        W26789  14.766  24.535  11.464  0.1325 -0.0576  0.1208
 8043W        W26790  13.820   8.408  20.967  0.0212  0.1392  0.0664
 8044W        W26791  32.257   4.013  14.690  0.1256  0.1376 -0.2082
 8045W        W26792  26.539  28.384  16.362 -0.2301 -0.0106  0.4342
 8046W        W26793  16.157  10.685   0.581 -0.1077  0.0303  0.0084
 8047W        W26794  22.832   0.173  17.939 -0.1011  0.0979  0.1292
 8048W        W26795  27.195  19.161   9.247  0.0386  0.0523  0.0113
 8049W        W26796   0.768   0.833  20.048  0.1614 -0.1735 -0.3272
 8050W        W26797  33.588  25.222  23.408  0.0712  0.0123  0.2315
 8051W        W26798   1.685  15.049  14.152 -0.1522 -0.0397 -0.0938
 8052W        W26799   1.739  10.377   2.035 -0.0311  0.2555  0.0749
 8053W        W26800  30.494   4.757  15.922  0.1739  0.0634 -0.0906
 8054W        W26801  30.119  10.958   6.884  0.0656  0.6003  0.1792
 8055W        W26802   7.667  19.719   9.787  0.1395  0.1278  0.0031
 8056W        W26803   0.430  13.457  20.191  0.0641 -0.2634 -0.3438
 8057W        W26804   5.442  29.077   0.457  0.1225  0.2331 -0.0127
 8058W        W26805  28.841  24.325  25.395  0.3558  0.3127 -0.0124
 8059W        W26806  12.041  14.749   0.873  0.0482  0.2512  0.1666
 8060W        W26807  22.027   7.442  17.199 -0.2487 -0.3454  0.3825
 8061W        W26808  21.177   5.993  15.319 -0.1360 -0.2692 -0.3643
 8062W        W26809   5.044  29.186  21.332 -0.0721  0.0834 -0.1500
 8063W        W26810  18.702  16.902   5.511  0.2116  0.2298  0.0982
 8064W        W26811   5.444  27.267   1.574  0.0327 -0.2024  0.3547
 8065W        W26812   9.837  15.833   6.523 -0.0601 -0.3754 -0.5412
 8066W        W26813  11.870  24.471  26.108  0.1636  0.0809  0.0534
 8067W        W26814   6.009  13.888  25.689 -0.1386  0.0758  0.3467
 8068W        W26815   9.992  23.674  25.600  0.0312 -0.2712 -0.1933
 8069W        W26816  16.199  12.733  24.934  0.1733 -0.3697 -0.2903
 8070W        W26817   7.931  23.596  24.872  0.0242  0.0249  0.1404
 8071W        W26818  16.501  31.360  23.133 -0.1302 -0.0110  0.1299
 8072W        W26819   5.771  32.808   2.903 -0.1464 -0.1306  0.0926
 8073W        W26820   4.075  34.183   4.433 -0.1123  0.0451 -0.0930
 8074W        W26821  34.852  27.982  13.990  0.3070 -0.4206  0.2416
 8075W        W26822  24.802  30.722  25.997 -0.0367 -0.1374 -0.0368
 8076W        W26823  32.856  19.445  17.468  0.0894 -0.0573  0.0909
 8077W        W26824  16.671  34.727  25.372 -0.1209 -0.0480  0.1997
 8078W        W26825  19.432  18.225  19.810  0.0279  0.2150  0.0648
 8079W        W26826  15.177  21.936  23.637  0.1681 -0.2304  0.0562
 8080W        W26827  13.396  11.159   4.302 -0.1506  0.0702 -0.2296
 8081W        W26828   5.859  28.985   9.700  0.3762  0.3090 -0.0556
 8082W        W26829  16.581  18.444   8.644 -0.0675  0.1169  0.0288
 8083W        W26830  11.287   8.566   2.417  0.0273 -0.4508 -0.1784
 8084W        W26831  16.910  19.507   0.722  0.1644 -0.0076  0.2052
 8085W        W26832  15.523   1.774   2.371  0.1200  0.1617  0.0109
 8086W        W26833   9.011  33.957   8.129  0.0835 -0.2247  0.0658
 8087W        W26834  33.384  18.998   0.626 -0.0176 -0.0993  0.2401
 8088W        W26835  25.981  34.689  13.134 -0.1126 -0.0012 -0.0826
 8089W        W26836  17.412  11.155   5.056  0.1487  0.0269 -0.0608
 8090W        W26837  21.621   1.712  23.711 -0.0874 -0.2324 -0.0213
 8091W        W26838  11.346   1.669   6.178 -0.0565  0.2610  0.1001
 8092W        W26839   2.118  19.394  16.644 -0.3998  0.2397 -0.0346
 8093W        W26840  25.138   8.502  12.088 -0.1146 -0.2529 -0.2235
 8094W        W26841  26.655  24.978   8.740  0.0047 -0.0303  0.1443
 8095W        W26842  35.058   8.870   0.567 -0.2291 -0.0373 -0.0733
 8096W        W26843  13.645  34.828  20.589 -0.0477 -0.0954 -0.0303
 8097W        W26844   8.404  11.400  20.283 -0.0661  0.0530  0.4353
 8098W        W26845  35.359  23.962  21.387  0.1570 -0.0266 -0.0478
 8099W        W26846  29.932  19.939  15.283 -0.0829 -0.2499 -0.4256
 8100W        W26847   5.625  34.146  20.777 -0.4027 -0.2151  0.1732
 8101W        W26848   2.075   1.928  18.148  0.0808 -0.2269 -0.1200
 8102W        W26849   0.414  11.811  13.131 -0.0459  0.1528 -0.2109
 8103W        W26850  20.564  33.006  25.037  0.2048 -0.0361 -0.0470
 8104W        W26851  22.059   1.983  17.857  0.2511  0.0156  0.3077
 8105W        W26852  15.076  33.234   8.664 -0.1621 -0.0065 -0.0427
 8106W        W26853  17.647   2.222   8.597 -0.1298  0.0873  0.1831
 8107W        W26854   6.771   1.126   5.097  0.5655  0.0201  0.0413
 8108W        W26855   7.416   9.191  10.135 -0.2141 -0.1613  0.0716
 8109W        W26856  32.204  23.696  16.246 -0.0275  0.3152 -0.3191
 8110W        W26857  10.152   2.005  11.817  0.0093  0.1636 -0.0426
 8111W        W26858  10.005  25.795  12.974 -0.1294 -0.1154  0.2509
 8112W        W26859  18.449  21.858  23.932  0.2787 -0.0515 -0.4566
 8113W        W26860  17.571  16.020  21.645  0.2446 -0.1083 -0.0603
 8114W        W26861   4.697  27.007   2.105 -0.2201  0.1668 -0.1241
 8115W        W26862  27.672  33.640  22.621  0.1256  0.1014 -0.1857
 8116W        W26863  18.153  22.670  24.172  0.1672 -0.0348 -0.1472
 8117W        W26864  32.499  12.728  25.827 -0.1589  0.0180  0.2518
 8118W        W26865   4.841  32.941   4.420  0.1275  0.1025 -0.0465
 8119W        W26866   9.952  23.656   7.585  0.1251  0.0246 -0.0824
 8120W        W26867  20.099  18.719  21.331 -0.2053  0.1142 -0.0543
 8121W        W26868  12.159  27.751  24.075 -0.1387  0.1837  0.1456
 8122W        W26869  11.633  32.917  16.255 -0.2875  0.0356  0.0507
 8123W        W26870  34.232  20.059   8.012  0.1789  0.2424  0.0314
 8124W        W26871  23.998  33.533  22.994  0.4174 -0.0767  0.2622
 8125W        W26872  23.306  20.154  24.418  0.2298  0.0006  0.2369
 8126W        W26873  17.517  17.213  12.746 -0.0557  0.1299  0.0933
 8127W        W26874  17.396  23.611   9.091  0.0966 -0.0551  0.3081
 8128W        W26875  11.059   2.596  19.540  0.0157 -0.1505  0.0409
 8129W        W26876  11.525   2.558   4.357 -0.0774 -0.0360 -0.1646
 8130W        W26877  17.589  21.418   1.872  0.1011 -0.1190  0.0084
 8131W        W26878  16.436   6.220  10.768  0.0845  0.1119  0.1758
 8132W        W26879   4.608   5.183  19.118  0.4815 -0.1747 -0.1584
 8133W        W26880  23.740  30.520  14.212 -0.1273  0.0732  0.1188
 8134W        W26881  15.745  14.424  18.846  0.0006  0.0600 -0.1264
 8135W        W26882  15.948   6.506  19.180 -0.4338 -0.1165  0.2129
 8136W        W26883  29.464   4.002   1.164  0.3289 -0.1179 -0.3495
 8137W        W26884   0.015  29.770  20.786  0.0245  0.2010  0.0683
 8138W        W26885  25.482  10.698  23.804 -0.0728 -0.0275  0.0849
 8139W        W26886  28.696   6.516  11.834  0.2494 -0.1711 -0.2398
 8140W        W26887  31.320  26.652  14.071  0.0002  0.4718 -0.1094
 8141W        W26888  22.560  27.683   1.555  0.1404  0.1753  0.1726
 8142W        W26889   0.409  21.135  11.383  0.2044 -0.1595  0.0441
 8143W        W26890  33.526  19.771  18.485  0.1374  0.2519  0.0003
 8144W        W26891  26.046  25.733  22.356 -0.0178  0.4229  0.0076
 8145W        W26892  18.392  29.374   4.812 -0.0710  0.4103  0.2391
 8146W        W26893  12.576  19.598   5.586 -0.0046 -0.1868 -0.1336
 8147W        W26894   8.539  25.214   6.903 -0.0131  0.2612  0.1188
 8148W        W26895  18.928  30.678   1.229 -0.0063 -0.1444 -0.2232
 8149W        W26896  29.562   4.664   4.369  0.0541  0.3100 -0.0062
 8150W        W26897  35.250  12.409   0.537 -0.1092 -0.3537  0.0690
 8151W        W26898   2.757  35.013  11.550 -0.0289 -0.1356  0.0983
 8152W        W26899  17.386   5.991   2.014 -0.1712 -0.0829  0.1396
 8153W        W26900  29.962  29.804  18.864  0.2048 -0.0138  0.1652
 8154W        W26901  32.000  28.329  13.539 -0.2390  0.3189 -0.4378
 8155W        W26902  29.822  25.733  14.581  0.0563  0.0413  0.0481
 8156W        W26903   1.774  10.826  21.948 -0.3519 -0.2025  0.3672
 8157W        W26904  27.983  34.001   4.795 -0.2103  0.0920 -0.0129
 8158W        W26905  13.649  27.429  24.733 -0.2634  0.0653  0.0097
 8159W        W26906   0.612  19.673  20.419 -0.2189 -0.2698 -0.0289
 8160W        W26907  25.952  20.032  19.850  0.2542 -0.2058 -0.0082
 8161W        W26908  14.378  21.152  22.194 -0.1898 -0.0989  0.1682
 8162W        W26909   8.471   3.113   7.043 -0.2288 -0.2502  0.0124
 8163W        W26910  31.926  24.304  12.724 -0.0161  0.1870  0.1955
 8164W        W26911   4.579   2.022   7.478 -0.2167  0.0383 -0.2096
 8165W        W26912  10.954  18.292  12.374 -0.3287  0.0049 -0.3141
 8166W        W26913   3.071  16.967  21.782  0.2368  0.3012 -0.2136
 8167W        W26914  27.308   2.273  16.190 -0.1169 -0.0509  0.2404
 8168W        W26915  10.725  26.745   7.151 -0.1279  0.1414  0.1605
 8169W        W26916  23.496  26.541   2.414  0.0281  0.0126  0.0592
 8170W        W26917  12.731  28.123   6.805  0.0799 -0.0442 -0.4035
 8171W        W26918  27.587  31.437  26.204 -0.1359  0.0218 -0.0316
 8172W        W26919   0.605  30.503   4.432 -0.0004  0.1171  0.3037
 8173W        W26920  21.692   5.777  18.933  0.0124  0.1135 -0.0463
 8174W        W26921   6.090  18.541   3.970 -0.1030 -0.1314 -0.1180
 8175W        W26922  23.250  25.125  17.116 -0.1343 -0.0894  0.0522
 8176W        W26923  35.007  26.647  17.705  0.1560  0.1380  0.4075
 8177W        W26924  28.311  15.485   8.817  0.1239  0.2278  0.1893
 8178W        W26925   7.537   9.003  11.990  0.0890 -0.2199  0.0106
 8179W        W26926  33.391  10.953  13.947  0.0222 -0.0411  0.0936
 8180W        W26927  10.551   2.044  23.531  0.2019  0.0040 -0.0116
 8181W        W26928   6.382   7.474  24.983 -0.0339  0.1121  0.4592
 8182W        W26929  21.103  10.891  19.476  0.2220  0.1257 -0.1266
 8183W        W26930  17.399  15.093  10.846  0.0684 -0.0004  0.2511
 8184W        W26931  32.402   1.684  13.561 -0.0471 -0.1527 -0.0193
 8185W        W26932  32.712  33.989  16.831  0.2196 -0.0323  0.0846
 8186W        W26933  13.534   2.240  23.219 -0.1573 -0.0099  0.2559
 8187W        W26934   2.021  11.424  19.579 -0.0952 -0.0679 -0.1910
 8188W        W26935   7.466  14.473  21.684  0.1105  0.1053 -0.1456
 8189W        W26936  33.928   1.334   6.281  0.0941 -0.2638  0.1504
 8190W        W26937  35.049  33.693  19.594  0.2679  0.1122  0.1577
 8191W        W26938  30.547  33.476  18.596 -0.3633  0.1273  0.1754
 8192W        W26939   1.244   3.336  21.131 -0.0071  0.2395 -0.0014
 8193W        W26940   9.072  33.247  14.013 -0.1497 -0.1290  0.2403
 8194W        W26941   1.601  10.442  16.851 -0.1100 -0.1914 -0.1151
 8195W        W26942  12.547   4.242  22.610  0.1694 -0.0090 -0.0007
 8196W        W26943  26.767  27.959  14.436  0.0979 -0.2845 -0.0496
 8197W        W26944  28.476  20.269   5.087  0.0357 -0.1060  0.2674
 8198W        W26945  19.274  13.955   0.189  0.2271 -0.1189  0.2955
 8199W        W26946   0.572  10.992  21.121  0.0966 -0.0516  0.2034
 8200W        W26947  14.211   2.495   3.255  0.3046  0.0074  0.2967
 8201W        W26948  33.189  27.344  24.116  0.0701  0.2059  0.0876
 8202W        W26949  34.601   8.076  16.260  0.1174 -0.3077 -0.0701
 8203W        W26950   3.214   5.068   1.785  0.1431  0.1134 -0.0449
 8204W        W26951  27.290  33.494  12.903 -0.0001 -0.1393 -0.0471
 8205W        W26952  24.450   3.818  19.561 -0.0238  0.0134  0.1119
 8206W        W26953  15.417  33.831   4.902  0.1061  0.1881 -0.1968
 8207W        W26954  17.791  10.083   0.351 -0.0072  0.1117  0.0904
 8208W        W26955  25.256  21.515  23.524 -0.4210  0.0252 -0.1181
 8209W        W26956  33.688  10.962  17.084 -0.0964 -0.0411  0.2546
 8210W        W26957  34.463  29.673   0.358  0.0011  0.0129 -0.1687
 8211W        W26958  18.123  34.102   7.509  0.0693  0.1867  0.0835
 8212W        W26959  25.212  20.986   9.736  0.1499 -0.2297  0.0614
 8213W        W26960  27.105   3.483   5.625 -0.0995  0.0454  0.1049
 8214W        W26961  23.119  16.535  20.627 -0.2527 -0.1991  0.1179
 8215W        W26962  25.063  16.073  11.791 -0.0160  0.0082 -0.0769
 8216W        W26963  18.425  31.351  19.058 -0.0463 -0.0310 -0.3464
 8217W        W26964  13.642  22.688   1.519 -0.3813  0.0037  0.5520
 8218W        W26965  14.262  29.064   7.233  0.1803 -0.2040 -0.1905
 8219W        W26966  31.069  27.933  21.259 -0.0540  0.1661 -0.0851
 8220W        W26967  17.788  32.219  24.796 -0.0198 -0.2970 -0.4971
 8221W        W26968   3.265   4.117  15.099  0.0730 -0.1082 -0.3834
 8222W        W26969  16.061   2.657  25.220 -0.2486  0.0190 -0.4569
 8223W        W26970  29.144  31.123  26.065 -0.1181 -0.2264  0.3275
 8224W        W26971   9.270  19.941  21.933 -0.3359 -0.2224 -0.1637
 8225W        W26972   6.066  19.227   4.392  0.0145  0.2484 -0.3909
 8226W        W26973   6.387  12.956  25.930 -0.1040 -0.0491 -0.2144
 8227W        W26974  24.580   9.910  24.397 -0.1375 -0.0016 -0.1137
 8228W        W26975   8.589  23.352  24.241  0.0437  0.2913  0.3484
 8229W        W26976   8.524   2.856   7.629 -0.0068 -0.2333  0.0174
 8230W        W26977  27.403  10.269  17.580  0.1894 -0.6567  0.1235
 8231W        W26978  30.905  23.609   8.399 -0.1891  0.1107  0.2450
 8232W        W26979   6.393   0.242  12.378 -0.0295 -0.3268  0.0552
 8233W        W26980  34.169  12.300  11.007 -0.0203  0.1889  0.0568
 8234W        W26981   0.800  20.914  14.073 -0.0115  0.2006  0.2965
 8235W        W26982   7.486  11.185  17.542  0.3440 -0.0805  0.0397
 8236W        W26983  30.990  13.490  15.811 -0.1892  0.0626 -0.1859
 8237W        W26984  16.629  26.379   9.731  0.0965 -0.1075  0.1313
 8238W        W26985  23.485   1.740  22.845 -0.2230 -0.0505  0.1486
 8239W        W26986  24.352  35.174  26.221  0.0961 -0.0294 -0.0076
 8240W        W26987   3.392  22.539   3.708 -0.0737 -0.1449 -0.4331
 8241W        W26988  10.811  12.478   0.607  0.1612  0.1442  0.0590
 8242W        W26989  25.724  21.420  17.537 -0.1676  0.1775 -0.1408
 8243W        W26990  22.449   0.359  17.028  0.0730 -0.0073 -0.0817
 8244W        W26991  31.081   6.532  25.428 -0.0061  0.1639  0.1911
 8245W        W26992  29.748   9.980  23.514  0.0693 -0.0776  0.2481
 8246W        W26993   9.098   3.442  25.780 -0.3024  0.1643  0.1308
 8247W        W26994  33.527  15.196   8.405 -0.2716 -0.1604  0.1455
 8248W        W26995  33.061   9.007   0.449  0.0578  0.0323  0.0414
 8249W        W26996  31.487  22.357  21.009  0.0068 -0.2743  0.1235
 8250W        W26997  18.701  27.653  22.317 -0.3148  0.0068 -0.2187
 8251W        W26998  18.653   0.242  18.150 -0.2914 -0.1169 -0.1059
 8252W        W26999  23.878  19.022  19.319  0.1798 -0.1436  0.0648
 8253W        W27000   7.750  23.504   6.544  0.0424  0.0738 -0.0330
 8254W        W27001   5.590   1.101  10.690 -0.0547 -0.0479  0.1217
 8255W        W27002   0.132   2.987  14.729  0.0651 -0.2300  0.0161
 8256W        W27003   8.078  23.647  23.978  0.0072  0.0325 -0.0272
 8257W        W27004  27.070  10.541   0.038 -0.2984  0.1210  0.1422
 8258W        W27005  23.233   2.635  21.307  0.0157  0.1299 -0.0668
 8259W        W27006  22.506  27.070  15.282 -0.1690  0.0234  0.1246
 8260W        W27007  23.576  23.644  19.161 -0.0396  0.4003  0.1061
 8261W        W27008  25.136  28.126   4.653  0.0825  0.2682  0.1417
 8262W        W27009  32.487  28.947  25.555 -0.3455  0.2339 -0.0364
 8263W        W27010  32.792   8.762  18.425  0.3551 -0.2318 -0.4388
 8264W        W27011  10.557   9.435   0.991 -0.1234  0.2244  0.1040
 8265W        W27012   3.496  12.121  23.106  0.2159  0.4910  0.2014
 8266W        W27013   6.333  34.652   9.531 -0.4305 -0.1914  0.2335
 8267W        W27014  12.664  20.736  25.880 -0.0682  0.0762 -0.2810
 8268W        W27015  21.033  22.496   0.500 -0.3499 -0.0310 -0.2731
 8269W        W27016  17.218  18.971   5.596 -0.1595 -0.0261 -0.0101
 8270W        W27017   8.041  17.334  11.540 -0.0235  0.1090 -0.0776
 8271W        W27018  18.350  16.308   1.898 -0.0260 -0.1629  0.1283
 8272W        W27019  25.921  34.156  12.229  0.1882 -0.0870  0.0826
 8273W        W27020  24.291  33.117  10.678  0.1138 -0.1156  0.1995
 8274W        W27021  32.333  31.919   2.667  0.0058  0.0156 -0.0574
 8275W        W27022  33.607  10.422  21.831 -0.0257  0.0741  0.3686
 8276W        W27023  34.072  19.311   8.274 -0.0181  0.1045  0.2506
 8277W        W27024  15.098   5.823   3.129 -0.0502 -0.3458  0.0230
 8278W        W27025  34.796  32.582  24.111  0.0635 -0.2492 -0.0843
 8279W        W27026  13.260  23.275  24.716 -0.0711 -0.0413 -0.3275
 8280W        W27027  27.768  13.859  10.629 -0.0586  0.1106 -0.0366
 8281W        W27028  19.811  10.572  24.267 -0.3550  0.3441  0.0509
 8282W        W27029  22.198   7.335  16.751 -0.1296  0.3519  0.0312
 8283W        W27030  26.823  13.080  24.951  0.1817 -0.2005 -0.2599
 8284W        W27031  20.337  22.123   8.330  0.1332 -0.3048  0.0126
 8285W        W27032   4.614   2.251  22.469  0.0203  0.0071  0.1313
 8286W        W27033  32.093  25.336  21.781 -0.0527 -0.1231  0.5466
 8287W        W27034  23.814  18.483  10.810 -0.0245  0.0087 -0.3425
 8288W        W27035  31.466  17.107  19.027 -0.1366  0.0042  0.2408
 8289W        W27036   0.768  13.027  19.922  0.1453  0.1137  0.2833
 8290W        W27037   9.847  33.598   8.447 -0.0791 -0.0302  0.0967
 8291W        W27038   4.525  16.982  20.661 -0.2709 -0.0664  0.0162
 8292W        W27039  34.496  19.496  23.700 -0.3124 -0.1146  0.1025
 8293W        W27040  12.777   1.471  24.855  0.0848 -0.2631 -0.0258
 8294W        W27041  17.048  34.808   4.881  0.2917  0.0745  0.0786
 8295W        W27042  32.739  13.468  26.161  0.0803 -0.0800 -0.1327
 8296W        W27043   6.508  33.225  13.737 -0.1608  0.0480  0.1007
 8297W        W27044  16.722   4.946   2.795 -0.0373  0.1492  0.0302
 8298W        W27045  10.403  16.694  10.265  0.0421 -0.2729 -0.0430
 8299W        W27046  34.562  31.251  24.537  0.1713  0.1101  0.1048
 8300W        W27047  29.613  31.890  22.162  0.1721  0.2098  0.3552
 8301W        W27048   3.137  27.626   3.890 -0.1773 -0.0750 -0.2077
 8302W        W27049  16.772   2.033  16.540  0.3180 -0.0293  0.1858
 8303W        W27050  25.962   0.580  25.977  0.1356  0.1870  0.3512
 8304W        W27051  30.215  17.542   6.404 -0.3194 -0.0324  0.0861
 8305W        W27052  11.935  13.127   2.957  0.2551 -0.4514  0.0982
 8306W        W27053   4.626   8.072  20.350  0.0712 -0.2189 -0.2698
 8307W        W27054  31.305   1.580  17.683 -0.0297 -0.0430 -0.1479
 8308W        W27055  30.099  19.081  12.043 -0.1231  0.1395  0.1726
 8309W        W27056   0.688  13.885  23.247  0.0739 -0.2080 -0.1796
 8310W        W27057  20.345  17.771   3.008  0.1588  0.0051 -0.0031
 8311W        W27058   1.932  30.606  18.026  0.0897  0.0547  0.1038
 8312W        W27059   3.212  11.979  17.741 -0.0329 -0.1567 -0.0203
 8313W        W27060  29.625  30.729   1.051 -0.2468  0.0129 -0.0941
 8314W        W27061   8.417  21.595  25.910  0.0873  0.0185 -0.1044
 8315W        W27062  28.719  18.059  10.524 -0.0726 -0.1286 -0.0652
 8316W        W27063   0.623  27.658  23.171 -0.0698  0.2367  0.3038
 8317W        W27064   1.481  21.745  13.033  0.2717 -0.1310 -0.2427
 8318W        W27065   2.865  11.076  16.613  0.0987  0.0060  0.1057
 8319W        W27066  29.017  13.951  11.025 -0.3409 -0.0010 -0.1150
 8320W        W27067  13.179  16.737  10.363  0.0476 -0.2061 -0.2253
 8321W        W27068  22.285  33.703  24.866 -0.0763 -0.2098  0.3220
 8322W        W27069   2.725  18.597   0.055  0.1699 -0.2108 -0.0965
 8323W        W27070   4.653   1.291   3.710 -0.3160 -0.0875 -0.1191
 8324W        W27071  28.115  18.161  13.393  0.1207 -0.1517  0.1764
 8325W        W27072  15.832   5.528  12.676 -0.1114  0.1280 -0.0519
 8326W        W27073  17.842   5.489  10.316  0.1955 -0.1699  0.2951
 8327W        W27074   7.352   2.940  26.123  0.1667 -0.2970 -0.3886
 8328W        W27075  21.779  18.768  20.685  0.0544  0.2157  0.0602
 8329W        W27076  31.307   5.394  17.378 -0.0416 -0.3847 -0.2944
 8330W        W27077  13.217  21.027  13.609 -0.0231  0.2837 -0.2852
 8331W        W27078  34.415   4.517   3.041  0.3208 -0.3421  0.0532
 8332W        W27079  14.223  22.896  23.851  0.1552  0.0825  0.2159
 8333W        W27080  26.099  28.267  17.129  0.2303 -0.0419 -0.1162
 8334W        W27081  19.288  15.360   7.236 -0.0929 -0.0458 -0.0061
 8335W        W27082  21.410   0.380  24.415 -0.0448 -0.1362 -0.0135
 8336W        W27083  28.832   1.452   1.498 -0.1172  0.0540  0.0049
 8337W        W27084  26.617  10.716  12.507 -0.0284  0.1558 -0.2504
 8338W        W27085  14.069   4.857  25.543  0.1475  0.6775  0.1008
 8339W        W27086  15.857  27.521  24.439  0.1068  0.2668  0.3076
 8340W        W27087  14.402  25.120  14.512 -0.0041 -0.0463 -0.0970
 8341W        W27088  16.055  30.672   6.055 -0.1653  0.4486 -0.2245
 8342W        W27089  33.166  26.903  16.219  0.0883  0.1510  0.2396
 8343W        W27090  27.485   9.328  22.078  0.2440 -0.1343 -0.3746
 8344W        W27091  28.100  21.793  19.563 -0.1357  0.0208 -0.1342
 8345W        W27092   0.773  12.259   1.638 -0.0513  0.0391  0.1096
 8346W        W27093   2.752  30.466   3.489 -0.0381 -0.2008 -0.1746
 8347W        W27094  10.422   0.683  21.890 -0.2102 -0.2472 -0.0669
 8348W        W27095  12.057  21.971   2.340  0.1922  0.0588  0.0778
 8349W        W27096  26.568  26.333  17.716 -0.1723 -0.0080  0.1805
 8350W        W27097  20.580  23.103   4.778 -0.2477  0.3821  0.1383
 8351W        W27098   2.717   1.785   1.692  0.3347  0.3275 -0.4287
 8352W        W27099  32.659  11.966  15.091 -0.1167 -0.0504 -0.1637
 8353W        W27100  16.708   2.179   9.119 -0.1144 -0.0986 -0.2405
 8354W        W27101  34.267  28.500  16.058 -0.1177  0.3282  0.3317
 8355W        W27102  16.888   1.439  22.909  0.1769 -0.1573  0.0511
 8356W        W27103   1.046  33.668  22.989 -0.0154  0.0607  0.2505
 8357W        W27104   0.140   8.159  22.748 -0.0697  0.0068  0.3584
 8358W        W27105   4.405   4.597   3.054 -0.4985  0.1812  0.0394
 8359W        W27106  23.659  12.071  21.613 -0.1793 -0.0350 -0.0293
 8360W        W27107  15.290   4.589   0.583  0.3234 -0.2189  0.0834
 8361W        W27108  33.839  19.537  17.472  0.3094  0.1648 -0.4675
 8362W        W27109   1.233  19.080  13.995  0.2386  0.2111  0.1740
 8363W        W27110   0.914   0.081   1.530 -0.0473 -0.0362 -0.0273
 8364W        W27111   5.536  34.526  24.853  0.1110  0.2069  0.3239
 8365W        W27112  15.816  24.349   3.840  0.0885 -0.3402  0.0808
 8366W        W27113  15.759  25.146   4.166 -0.0674  0.0199 -0.1639
 8367W        W27114  28.758   8.446  13.739 -0.1002 -0.2013  0.3700
 8368W        W27115  16.272   5.708  25.980 -0.0007 -0.2312 -0.2305
 8369W        W27116  19.721  22.503  10.391 -0.2518  0.1760  0.0287
 8370W        W27117  22.410  28.652  14.256  0.2384  0.1396 -0.0882
 8371W        W27118   3.186  15.678  25.821  0.2557  0.4784  0.0222
 8372W        W27119  30.168  23.437  18.447 -0.1175 -0.0929  0.1866
 8373W        W27120  24.294  25.536  25.692  0.1683 -0.1112 -0.0822
 8374W        W27121  17.326  13.619   2.045  0.0578 -0.1853 -0.1944
 8375W        W27122   5.405  20.512   7.254 -0.2822 -0.1145  0.0145
 8376W        W27123   1.266  17.031  12.880 -0.2519 -0.1164 -0.1744
 8377W        W27124  11.666  24.666  13.932 -0.2520  0.1597  0.1725
 8378W        W27125  11.598   0.804   0.165 -0.1012 -0.1181  0.0436
 8379W        W27126   1.653   3.945  16.534 -0.1509  0.1923  0.0579
 8380W        W27127  14.575  26.847  23.998 -0.2823 -0.1611 -0.1593
 8381W        W27128   9.849  28.508  24.050  0.1674  0.0139 -0.1629
 8382W        W27129  31.820   3.625   2.604 -0.0470 -0.2657 -0.0282
 8383W        W27130   0.198   8.737  26.154 -0.1119  0.0274 -0.2923
 8384W        W27131   7.501  32.789   5.341 -0.1219  0.0951 -0.1140
 8385W        W27132  20.959  16.497  16.794 -0.0723  0.0029  0.2457
 8386W        W27133   7.221  24.788  13.611 -0.0879  0.1055 -0.0767
 8387W        W27134  26.442   0.122  23.874  0.2171 -0.0540 -0.0210
 8388W        W27135  15.099   0.041   0.623 -0.1711  0.0233 -0.1117
 8389W        W27136  11.075  24.040  14.692 -0.1530 -0.0362 -0.2364
 8390W        W27137  30.703  29.180  22.790 -0.1398  0.5415 -0.1610
 8391W        W27138  31.105  19.486   8.390 -0.2240  0.1499 -0.1508
 8392W        W27139  30.557  23.499  16.480  0.0192  0.5808  0.2386
 8393W        W27140  31.838   4.663  24.530  0.2261 -0.0974 -0.3128
 8394W        W27141  11.535  26.475  24.349 -0.0226  0.3963 -0.0186
 8395W        W27142  12.725  26.716  23.857  0.1799 -0.3036  0.1228
 8396W        W27143  15.698  21.599   6.455  0.1432 -0.0408 -0.0093
 8397W        W27144  15.709   4.123   3.464 -0.0802  0.1493  0.2886
 8398W        W27145  30.645  25.038  26.060 -0.0322 -0.1048 -0.0695
 8399W        W27146  33.574   5.407  15.581 -0.3630 -0.3492  0.1491
 8400W        W27147  21.030   9.391   6.921 -0.3578  0.0182 -0.1513
 8401W        W27148  28.194   2.636  20.715 -0.0415  0.2115 -0.1727
 8402W        W27149  31.603   7.542  21.220  0.3386 -0.1578  0.0803
 8403W        W27150  16.881   3.874  23.412  0.0487  0.1540  0.0330
 8404W        W27151  12.095  26.888   0.008 -0.0872 -0.2240  0.0191
 8405W        W27152  25.239  18.836  25.950 -0.1430 -0.0496 -0.2653
 8406W        W27153   8.519  12.097  25.213 -0.2394  0.1174 -0.0261
 8407W        W27154  17.687  19.467   7.598  0.0529  0.4594  0.2846
 8408W        W27155  21.624  15.002  14.009 -0.1243  0.2340  0.0259
 8409W        W27156  30.205  23.387  10.027  0.0133 -0.0661  0.4081
 8410W        W27157  10.342   6.685  19.711  0.1263 -0.1550  0.0056
 8411W        W27158  29.640  14.208   8.830 -0.1280 -0.0558 -0.3192
 8412W        W27159   8.924   3.438  11.284 -0.1695 -0.2841 -0.5129
 8413W        W27160   5.304  17.011  21.670 -0.0669 -0.0716  0.0416
 8414W        W27161   9.766   1.098  13.214 -0.1866  0.0195 -0.0722
 8415W        W27162  19.793   9.453  25.286  0.0285  0.0691  0.1318
 8416W        W27163  12.953  11.550  20.688 -0.0189  0.0366  0.1991
 8417W        W27164  22.279  34.788   4.346 -0.1335 -0.1852  0.2474
 8418W        W27165  14.528  32.332  20.700  0.0627 -0.1664 -0.1996
 8419W        W27166   8.667  16.298   7.418  0.0893  0.2222 -0.0029
 8420W        W27167  26.330  30.485  12.224  0.0634  0.0250 -0.4706
 8421W        W27168  29.745  26.112  19.019  0.1287  0.1370 -0.1208
 8422W        W27169  28.950  27.921  15.580  0.1430 -0.3627 -0.0401
 8423W        W27170  21.626  25.837   0.600  0.0778  0.2339  0.1643
 8424W        W27171  21.955  11.608  14.755  0.2205  0.1502 -0.2298
 8425W        W27172  25.209  12.469  16.252  0.1265 -0.2096 -0.0246
 8426W        W27173  22.022   1.797  22.671  0.2070 -0.2041  0.0108
 8427W        W27174  10.076   4.691  21.972 -0.0429  0.0865 -0.1053
 8428W        W27175  18.321  15.909   6.429  0.0308 -0.0059  0.1498
 8429W        W27176  11.666   2.080  25.300  0.1309 -0.0572 -0.0556
 8430W        W27177   5.111   9.544   8.109  0.0033  0.1830  0.1006
 8431W        W27178  33.954  22.085  18.550 -0.0503 -0.1722 -0.2454
 8432W        W27179  17.844  13.962  25.443  0.1267 -0.4507 -0.2069
 8433W        W27180  34.509  18.039  14.008  0.2509  0.2219  0.2865
 8434W        W27181  30.502  17.459  10.932  0.0355  0.2450  0.1243
 8435W        W27182  30.911   9.796  26.100  0.0059 -0.2715  0.0198
 8436W        W27183   7.812  24.698   9.496 -0.1673  0.0344  0.1289
 8437W        W27184  35.326   3.039  21.155  0.0105  0.0007 -0.2034
 8438W        W27185  31.234  17.964  25.531  0.2858  0.1766 -0.2693
 8439W        W27186  10.140  28.408  24.879 -0.3214 -0.1863  0.0126
 8440W        W27187  28.404  10.909  11.214  0.0442  0.1487  0.0538
 8441W        W27188   7.005  19.544  26.002  0.0989 -0.2564 -0.1908
 8442W        W27189  11.293  34.971   2.120 -0.1628 -0.2961 -0.2557
 8443W        W27190  33.925  26.835  22.782  0.1720 -0.1939  0.3194
 8444W        W27191   6.128  17.401  23.627  0.2893  0.1146 -0.0935
 8445W        W27192  34.955  18.652  13.286  0.0791 -0.1877 -0.1438
 8446W        W27193  13.041   5.829  13.092  0.0162  0.2663  0.2142
 8447W        W27194  22.076  24.188  25.608  0.2734 -0.0402 -0.2236
 8448W        W27195  12.437  22.199   7.994 -0.0834  0.1109  0.0488
 8449W        W27196  32.553   3.874  18.331 -0.0187 -0.1889 -0.0117
 8450W        W27197  27.972  26.200   8.316 -0.0359  0.1668 -0.3772
 8451W        W27198  27.334   4.426   4.092  0.2428 -0.1529  0.0949
 8452W        W27199  21.682  25.385   5.448  0.2308  0.1485  0.2662
 8453W        W27200   4.795  27.434   5.021  0.5238 -0.1710  0.4074
 8454W        W27201  10.009  13.460   2.932 -0.2717  0.1027 -0.1276
 8455W        W27202   0.035  10.215   2.589  0.1268 -0.1051 -0.3079
 8456W        W27203  15.929  20.924  12.134  0.0580  0.5144 -0.1938
 8457W        W27204  25.547  23.119  22.198  0.1047 -0.3898  0.0379
 8458W        W27205  12.988  27.800   5.897  0.1423 -0.0332 -0.0991
 8459W        W27206  31.551   4.133   2.341 -0.4076 -0.3066 -0.2567
 8460W        W27207  30.227  12.204  15.090 -0.3704  0.1324 -0.1319
 8461W        W27208   5.057   1.852   9.862 -0.0972  0.1132 -0.0214
 8462W        W27209  27.918  15.523  14.725 -0.1698  0.0314 -0.0389
 8463W        W27210  23.114  18.076  21.677 -0.0013  0.3482 -0.0091
 8464W        W27211  17.298   5.749  12.228  0.1937 -0.0259  0.0354
 8465W        W27212   7.906  23.344  25.739  0.1094 -0.0935  0.2973
 8466W        W27213  25.810  11.067  23.745 -0.2458  0.1295  0.0708
 8467W        W27214  10.346   4.650   3.933 -0.4162  0.0500  0.1599
 8468W        W27215   3.170  30.245   9.918  0.1973  0.2539  0.0012
 8469W        W27216  34.730  18.418  12.431 -0.0297 -0.0540  0.2053
 8470W        W27217  23.535   4.185   0.006  0.0072 -0.0985  0.1447
 8471W        W27218  24.558  20.351  17.809 -0.3050 -0.3467 -0.7022
 8472W        W27219  18.740  16.413  23.281  0.0526  0.2438  0.3974
 8473W        W27220   3.174   5.450  25.374  0.0315  0.3016  0.1069
 8474W        W27221  11.990   5.947   6.892  0.2136 -0.1925 -0.1867
 8475W        W27222  14.439  10.792   3.659  0.0880  0.4640 -0.1049
 8476W        W27223   2.602  20.657  14.192 -0.3396  0.0661  0.4403
 8477W        W27224   2.772  31.676  19.430  0.0296  0.1315 -0.0219
 8478W        W27225  11.545  23.609  13.787 -0.0973 -0.0748 -0.1532
 8479W        W27226   7.328  23.722  13.099 -0.1831  0.1389  0.1837
 8480W        W27227  10.299  30.978  10.856  0.0950  0.0221 -0.3583
 8481W        W27228   3.014  18.822  21.786  0.0230  0.0221 -0.1828
 8482W        W27229  13.926   5.574   1.718  0.0219 -0.2225 -0.1994
 8483W        W27230  35.061  11.794  19.282 -0.2426  0.1491 -0.2200
 8484W        W27231  14.288  13.093   8.300  0.1077 -0.1021 -0.2016
 8485W        W27232  12.051   8.452  14.125  0.1093  0.1744  0.1786
 8486W        W27233   8.995   8.849   0.460 -0.2402  0.1944 -0.0239
 8487W        W27234  31.393  11.621   0.503  0.0357 -0.0658  0.3576
 8488W        W27235  31.037  31.049   4.314  0.1904  0.2600  0.0175
 8489W        W27236  29.390  23.115  24.947 -0.2353  0.0121  0.0644
 8490W        W27237   1.901   6.394  23.576 -0.1615  0.2111 -0.0126
 8491W        W27238  11.435  25.331  12.493 -0.0872 -0.0986 -0.0151
 8492W        W27239  25.462  34.551  23.747 -0.2163 -0.0999  0.1775
 8493W        W27240  11.706  17.460   9.407  0.0270 -0.0150  0.0344
 8494W        W27241  21.798   2.351  23.020  0.0165 -0.0426  0.2538
 8495W        W27242  20.601  31.862   0.273 -0.1868 -0.0361  0.3024
 8496W        W27243  21.652  20.288  20.355  0.3083  0.2767  0.2062
 8497W        W27244   7.859  34.113  21.131 -0.3062 -0.1671  0.3145
 8498W        W27245  22.606   7.299   4.089 -0.0509 -0.1492 -0.2735
 8499W        W27246  34.013   0.424  20.262 -0.0300  0.0339  0.0220
 8500W        W27247  22.467  17.742  13.505 -0.1084  0.2814 -0.0291
 8501W        W27248  18.149  18.521  10.345 -0.0639 -0.0870 -0.0945
 8502W        W27249   3.136  10.200   4.937 -0.1267  0.0099 -0.0545
 8503W        W27250  21.107  13.661   0.916  0.1242  0.2334  0.0899
 8504W        W27251  15.038  14.513   6.447 -0.0132 -0.0635  0.2702
 8505W        W27252  33.490   7.734   2.386  0.3432  0.1650 -0.0066
 8506W        W27253  13.102  14.568   3.083  0.1966 -0.0705  0.3035
 8507W        W27254   6.464  10.859  19.814 -0.2900 -0.2832  0.1868
 8508W        W27255  18.062  31.211  22.087  0.0390 -0.1117  0.2680
 8509W        W27256  23.677  28.916  18.177  0.0706  0.1460  0.1822
 8510W        W27257  20.717  29.217   6.854 -0.2684 -0.1482 -0.1351
 8511W        W27258  31.687   9.528  20.388  0.4636 -0.0830  0.2029
 8512W        W27259  31.433  13.168  24.458  0.0772 -0.0775  0.0392
 8513W        W27260   9.720  15.654   0.033 -0.2080 -0.3713 -0.4216
 8514W        W27261   2.824  15.964   1.407  0.1504  0.1205  0.1436
 8515W        W27262   4.104  21.952   2.711  0.0975 -0.1346  0.0060
 8516W        W27263  21.978  29.753   6.033 -0.0520  0.0284  0.2564
 8517W        W27264  19.894  16.810  23.544  0.1453  0.1083  0.1324
 8518W        W27265  19.199   6.588  26.248 -0.0760 -0.2696  0.0964
 8519W        W27266  28.938  14.589  17.053  0.0207 -0.1750  0.0418
 8520W        W27267  17.630  25.001   7.534  0.0428 -0.2651  0.0499
 8521W        W27268   5.505  34.441   0.404 -0.0201  0.1233  0.0463
 8522W        W27269  13.409  13.455   8.634 -0.0020 -0.2406 -0.1334
 8523W        W27270  31.516  13.980  25.210  0.0180  0.1801 -0.0168
 8524W        W27271  31.846   4.606  23.697  0.1342 -0.0756  0.2820
 8525W        W27272   0.134  22.443  23.399 -0.1299  0.2043 -0.0889
 8526W        W27273  27.649  17.179  14.654  0.1232  0.0683 -0.1085
 8527W        W27274  10.379  29.769  23.161  0.1445 -0.2426 -0.4601
 8528W        W27275   7.442   9.854   0.150  0.0725 -0.2353  0.1122
 8529W        W27276   6.569  16.328   8.850 -0.0689 -0.2799 -0.1331
 8530W        W27277  26.146  29.779  23.695  0.1024  0.3688  0.0689
 8531W        W27278  17.230  27.129  22.337 -0.2581 -0.0088 -0.2594
 8532W        W27279   1.813  10.396   3.298 -0.1648  0.1905 -0.3039
 8533W        W27280   4.736   7.239  22.723 -0.1037 -0.0420 -0.1666
 8534W        W27281   0.601  11.427  18.300 -0.0868  0.0673 -0.0963
 8535W        W27282  12.827  20.569   8.631 -0.0052 -0.2107 -0.1056
 8536W        W27283  32.025   2.681   5.989  0.1877 -0.2850 -0.0483
 8537W        W27284   4.748   6.195  21.623  0.1318  0.1695 -0.0465
 8538W        W27285  13.653  10.386  22.522  0.1013  0.3330 -0.3154
 8539W        W27286   2.980  33.644   8.248 -0.3154  0.2037  0.3191
 8540W        W27287  20.931   6.370  16.658  0.0115  0.0011 -0.0939
 8541W        W27288  34.794  21.958  11.295  0.0071  0.0111 -0.6266
 8542W        W27289  24.709   7.786  13.399 -0.6705  0.0331 -0.2325
 8543W        W27290  10.979  19.058  23.620 -0.2410  0.1980  0.3427
 8544W        W27291   7.641  34.271  22.319 -0.0592  0.2304 -0.0959
 8545W        W27292  10.643  10.653  18.999 -0.0492  0.2170 -0.2495
 8546W        W27293  16.032   2.878  10.815  0.1452 -0.1143 -0.0153
 8547W        W27294  24.562  25.917  13.447  0.0020  0.3593  0.1213
 8548W        W27295  20.928   5.952  23.271 -0.3358 -0.2013  0.1111
 8549W        W27296   7.753   5.222   9.578  0.1602 -0.0731  0.2985
 8550W        W27297  16.278  22.712  16.032  0.1563 -0.2902  0.0055
 8551W        W27298   5.392   7.559   6.890  0.1087  0.0209  0.0590
 8552W        W27299  11.571   2.698  20.933 -0.3019  0.3726 -0.0947
 8553W        W27300  28.834   0.644  19.873 -0.2347  0.0854 -0.3499
 8554W        W27301   4.421   7.652  22.718  0.0447 -0.1528 -0.0074
 8555W        W27302   4.911  22.313   2.038  0.0056 -0.0571  0.2925
 8556W        W27303   4.390  19.929  17.811  0.0548 -0.1057 -0.0162
 8557W        W27304  28.518   6.670  15.831  0.2577  0.0300 -0.1106
 8558W        W27305   6.362  25.827  21.226  0.2429 -0.0235  0.1648
 8559W        W27306  30.113  24.149  17.199  0.0773 -0.1563 -0.0035
 8560W        W27307  24.446  23.709  22.917 -0.3409 -0.2503  0.1949
 8561W        W27308  35.126   1.233   6.818  0.2578  0.1063 -0.2985
 8562W        W27309   0.789   9.526  13.838  0.1784 -0.0551  0.3768
 8563W        W27310  23.477   4.451  24.330 -0.2221 -0.0132  0.3803
 8564W        W27311   4.582   0.110  23.507  0.0662  0.1125  0.0733
 8565W        W27312  11.724  22.374  16.636 -0.0667 -0.2288 -0.1292
 8566W        W27313   2.152  17.454   1.319 -0.0188 -0.1349 -0.0459
 8567W        W27314  31.504  22.820  19.928  0.0312  0.0145 -0.2140
 8568W        W27315  14.283  31.464  12.220  0.1754 -0.1151  0.1108
 8569W        W27316  18.901  30.032   1.634  0.2905  0.0043 -0.0853
 8570W        W27317  27.655   5.852   0.894  0.1860  0.2504  0.2514
 8571W        W27318  21.077  27.517   3.517 -0.1398  0.0142  0.0323
 8572W        W27319   4.664   4.892  25.146  0.0675 -0.2517  0.0691
 8573W        W27320  31.536  32.577   0.031 -0.0008  0.0559 -0.0781
 8574W        W27321   2.596  27.003   1.683 -0.1388 -0.0487  0.1193
 8575W        W27322   4.239  28.084  11.625  0.0259 -0.0754  0.3685
 8576W        W27323  18.066   8.943   5.818 -0.1217  0.4092 -0.0060
 8577W        W27324  28.812  26.408  25.766 -0.1726 -0.0267 -0.0520
 8578W        W27325  11.632  15.515  14.138  0.2870 -0.1826 -0.0893
 8579W        W27326  29.387   1.693  25.455  0.1662 -0.0152 -0.2034
 8580W        W27327  31.149   9.656  11.697 -0.0801  0.2926  0.2190
 8581W        W27328  32.946   4.182   1.692  0.1121 -0.0080  0.0068
 8582W        W27329  10.246  10.183  20.176  0.1539  0.0551  0.4536
 8583W        W27330  23.851  10.096  23.640  0.1571 -0.1327  0.2429
 8584W        W27331   7.661  26.054  13.889 -0.0031 -0.3543 -0.4476
 8585W        W27332   3.519   1.341  22.245  0.1255 -0.2280 -0.0717
 8586W        W27333  19.948   8.735  20.315 -0.3376  0.0677 -0.3703
 8587W        W27334  16.164   5.562  21.605  0.0250 -0.2711  0.0545
 8588W        W27335  26.121  12.254  22.301  0.3134  0.1519  0.1928
 8589W        W27336  11.852   2.089  13.538  0.1249 -0.3702  0.0069
 8590W        W27337  32.778  33.159  26.244 -0.2602  0.1806 -0.1357
 8591W        W27338  17.725  11.072  12.133  0.1282 -0.1058  0.0779
 8592W        W27339  21.228  34.613   2.255 -0.2687  0.0972  0.1822
 8593W        W27340  13.948   6.093  26.008 -0.1304  0.2179  0.3712
 8594W        W27341   6.258  31.940   0.244 -0.0248  0.0750  0.2043
 8595W        W27342  34.573  30.118   4.972  0.2496  0.3564 -0.0826
 8596W        W27343  34.295  35.136   0.771  0.0246  0.3442  0.0137
 8597W        W27344   0.931  26.602  18.433 -0.3819  0.1408 -0.0455
 8598W        W27345  11.229  15.243   2.089  0.1218  0.0818 -0.0311
 8599W        W27346  26.801  29.257   3.393 -0.3197 -0.0454 -0.1265
 8600W        W27347  17.109   0.323  21.045 -0.2564  0.0453  0.0514
 8601W        W27348  25.445  25.708   8.662  0.1696  0.0112  0.0564
 8602W        W27349  32.458  25.267  16.524 -0.0232  0.1266  0.1995
 8603W        W27350   4.564   0.067   0.619 -0.2273  0.0626  0.2518
 8604W        W27351   5.336  13.153   7.513 -0.1231  0.1306 -0.1086
 8605W        W27352  20.648  16.873   4.741 -0.2164 -0.2349 -0.3300
 8606W        W27353  19.715  15.613   7.265  0.1242  0.2842 -0.0296
 8607W        W27354  10.521  24.082  16.897 -0.1824 -0.1211 -0.1814
 8608W        W27355   5.922  31.716   4.848 -0.1536 -0.1574 -0.1593
 8609W        W27356  34.687  10.162  23.172  0.0221  0.0270 -0.2135
 8610W        W27357  10.712  24.041   9.762 -0.1046 -0.0666  0.3849
 8611W        W27358   4.435  27.655  12.827 -0.3424 -0.3566 -0.0823
 8612W        W27359   8.188   1.449   2.279 -0.2093 -0.1021  0.0659
 8613W        W27360   4.577  34.174  19.778  0.0881  0.0036 -0.0223
 8614W        W27361  23.626  20.995  13.222  0.0064  0.0348  0.0587
 8615W        W27362  32.862  21.175   9.975  0.1650  0.2424 -0.0552
 8616W        W27363  12.245   6.293  24.104 -0.0119  0.3092  0.0954
 8617W        W27364  19.638  28.876  17.005  0.3443  0.1931 -0.0741
 8618W        W27365  28.661  15.263   7.899 -0.3448 -0.1731 -0.0242
 8619W        W27366  12.893  20.742   7.699 -0.1603  0.2880 -0.0362
 8620W        W27367  31.694  28.115  19.143 -0.1006 -0.0641 -0.0527
 8621W        W27368  33.177  11.103  18.400 -0.0198 -0.1364  0.0063
 8622W        W27369   1.685   0.896  17.939 -0.0381  0.1761  0.2332
 8623W        W27370   3.318  31.412  25.235 -0.1440  0.0731  0.3482
 8624W        W27371  12.401  19.664  14.581  0.0207 -0.4127  0.1780
 8625W        W27372   3.577   1.533   5.749  0.2940  0.0531 -0.0894
 8626W        W27373  28.181  15.451   9.366 -0.0618 -0.1508  0.2872
 8627W        W27374   0.778  18.911  19.279 -0.0769  0.0436 -0.2498
 8628W        W27375  30.287   1.577  11.727  0.0684 -0.1712 -0.0701
 8629W        W27376  29.611  26.593  16.126  0.0261 -0.0545  0.1410
 8630W        W27377  10.108  33.396   6.905 -0.1240 -0.0411  0.0997
 8631W        W27378   4.757  31.995   5.886  0.1622  0.1049 -0.0853
 8632W        W27379   1.856   6.834  20.951 -0.0679  0.0654  0.3600
 8633W        W27380   3.684   0.708   8.517  0.0058 -0.1141  0.3548
 8634W        W27381  27.965  29.548   1.434  0.0008 -0.2150  0.0485
 8635W        W27382  32.649   4.714  18.025  0.0430  0.1936  0.0771
 8636W        W27383   7.054  22.018   3.673  0.1343 -0.2884 -0.2857
 8637W        W27384  17.582   9.057  24.490 -0.0756 -0.0757  0.2127
 8638W        W27385  22.808  21.797  17.099 -0.0056 -0.1248 -0.0243
 8639W        W27386  24.132  13.798  17.370 -0.0506  0.1750  0.1431
 8640W        W27387   4.878   2.385  10.896  0.1232 -0.2242  0.1407
 8641W        W27388   9.831  23.105   4.329  0.2119 -0.2218  0.3028
 8642W        W27389   6.216  13.528   9.783  0.1305 -0.1537  0.2465
 8643W        W27390  15.694   9.106   0.952  0.3108 -0.0679 -0.2075
 8644W        W27391  28.158  27.255  16.285  0.2021  0.1406 -0.0823
 8645W        W27392  20.175  11.125   4.838  0.0442 -0.4888  0.0717
 8646W        W27393   4.267   3.701  20.546 -0.1746 -0.1866  0.1747
 8647W        W27394  21.498   5.197   4.240 -0.2484 -0.1529 -0.2018
 8648W        W27395  24.351   6.386   3.514 -0.0964  0.0298  0.0417
 8649W        W27396  32.768   6.424  11.151  0.2824  0.3873 -0.3332
 8650W        W27397  15.669  29.132   7.848 -0.0806  0.0480  0.0319
 8651W        W27398  30.668  19.809   9.212  0.0929 -0.2115  0.0963
 8652W        W27399  23.266  23.818  23.710 -0.0846 -0.1597  0.2293
 8653W        W27400   0.374  12.159  17.286 -0.0971 -0.0637 -0.1215
 8654W        W27401  12.478  32.293  21.158 -0.2472  0.0464 -0.0298
 8655W        W27402  16.315  31.157   3.975  0.2093  0.0932 -0.1918
 8656W        W27403  31.427  26.961  14.491 -0.1554  0.0422  0.0504
 8657W        W27404  11.073   4.243   7.009  0.0351 -0.3079 -0.2461
 8658W        W27405  10.797  15.930  22.864  0.1913 -0.0266 -0.1408
 8659W        W27406  20.338   7.833  22.977 -0.0016 -0.1462  0.1278
 8660W        W27407  24.616   0.553  13.635 -0.0412 -0.0606 -0.2498
 8661W        W27408  31.866  17.505  18.813  0.1140 -0.1585 -0.1514
 8662W        W27409  22.269  14.836  16.222 -0.0703  0.0319  0.2681
 8663W        W27410  25.740   5.747  23.652 -0.1796  0.0747  0.0448
 8664W        W27411   9.994  21.688  24.724 -0.2624  0.1021  0.1330
 8665W        W27412  19.471  22.188   3.617 -0.0780  0.1658 -0.0432
 8666W        W27413   8.013   6.960  19.168 -0.0075 -0.1243  0.1803
 8667W        W27414   2.657   5.759   5.968  0.0716 -0.0916  0.2209
 8668W        W27415  12.491  35.227   0.353  0.0479  0.2423  0.3082
 8669W        W27416  34.737  16.252  14.172  0.1499 -0.0484  0.2141
 8670W        W27417  19.503  22.792   5.318 -0.2654 -0.1688  0.2527
 8671W        W27418   9.573  18.784   2.263  0.1680 -0.0862 -0.0759
 8672W        W27419  23.187  35.251  22.225 -0.0983 -0.1469 -0.1223
 8673W        W27420  25.079  18.567  24.730  0.1169  0.3051 -0.1969
 8674W        W27421  13.567   9.691  24.787 -0.3927 -0.0409  0.2925
 8675W        W27422  12.015  22.188  22.213 -0.0515  0.0345 -0.1491
 8676W        W27423  23.974   8.542   3.748 -0.1877  0.0096 -0.2230
 8677W        W27424  26.938  21.248  16.307 -0.0923  0.2257  0.1849
 8678W        W27425  10.762   9.403  25.041  0.3769  0.0842 -0.0420
 8679W        W27426  28.127  24.454   0.857  0.3063 -0.0830  0.0157
 8680W        W27427  20.868   7.265   2.140 -0.1570  0.1776  0.0469
 8681W        W27428  28.179  26.312   8.838  0.0389 -0.0123  0.1605
 8682W        W27429   3.080  33.496  20.809 -0.0955 -0.0904 -0.0474
 8683W        W27430  34.522  30.233   1.002 -0.1051 -0.1421 -0.0968
 8684W        W27431  16.841  14.123  25.163  0.1087 -0.1176  0.0639
 8685W        W27432  14.270   4.186  20.059 -0.2042  0.2629 -0.0935
 8686W        W27433   7.731  24.555  14.867 -0.0535 -0.0179 -0.2014
 8687W        W27434   3.725   6.587   3.460 -0.0570  0.0741  0.0392
 8688W        W27435  14.742  31.196  23.444 -0.1612  0.1458 -0.0808
 8689W        W27436  32.717  34.549  13.552  0.1431 -0.1010  0.2610
 8690W        W27437  18.559  23.468   8.554  0.2430  0.0743  0.0698
 8691W        W27438  30.897  34.750  24.807 -0.0251 -0.1655  0.1362
 8692W        W27439  27.624   2.413   3.135  0.0334 -0.2364  0.0023
 8693W        W27440  15.467   5.761  21.605  0.1695 -0.3422  0.1970
 8694W        W27441  16.837   5.727   5.322  0.0649 -0.0094  0.1251
 8695W        W27442  26.239  20.585   7.599 -0.1541 -0.3371  0.1507
 8696W        W27443  21.627  19.202  19.262 -0.0710  0.0109  0.1852
 8697W        W27444  16.255  25.853   9.481  0.1134 -0.0618 -0.0676
 8698W        W27445  14.584  10.192  23.411 -0.1446 -0.3056  0.0999
 8699W        W27446  15.402  26.686  14.420  0.2054 -0.0495 -0.2503
 8700W        W27447  12.577  25.935   7.768  0.0598  0.2861 -0.3222
 8701W        W27448  22.742   1.474  19.005  0.2766  0.0269  0.3034
 8702W        W27449  28.742   8.378   7.095 -0.1817 -0.2821  0.0653
 8703W        W27450   0.195  18.446  19.446 -0.0252 -0.2091 -0.2288
 8704W        W27451   9.917  14.166  12.787  0.1671  0.2532 -0.2200
 8705W        W27452  16.390   6.787  21.511 -0.2129  0.0018  0.1509
 8706W        W27453  19.421  30.709  24.111  0.2155  0.2888  0.2350
 8707W        W27454   8.143  27.340  11.749 -0.2502  0.1459 -0.0738
 8708W        W27455  21.776   5.695   5.501  0.0379 -0.1871  0.0663
 8709W        W27456  10.542  20.100  10.179  0.1735 -0.0715  0.1095
 8710W        W27457  24.149   2.968  16.211  0.0738  0.1623 -0.1651
 8711W        W27458  32.466  17.636  15.126 -0.0234  0.1808  0.1341
 8712W        W27459  25.405   6.930  16.961  0.1640 -0.0624  0.3638
 8713W        W27460  30.153  19.933  22.879 -0.0280 -0.1532 -0.0811
 8714W        W27461  21.967   9.636  20.179  0.2814  0.2766  0.0723
 8715W        W27462  16.793  17.141  21.255 -0.5017 -0.2727 -0.0412
 8716W        W27463   3.121  13.410  16.105  0.0752  0.1644  0.1496
 8717W        W27464   3.799   5.311   7.020  0.0505  0.1377 -0.2249
 8718W        W27465   1.131   1.324   8.454 -0.4403  0.0590 -0.4981
 8719W        W27466   7.571   9.944  25.831 -0.4307  0.1588  0.1544
 8720W        W27467  34.786  32.022  17.774 -0.0887  0.2516 -0.2286
 8721W        W27468  16.970   6.918   3.119 -0.0906 -0.0430  0.0221
 8722W        W27469  11.127  10.113   3.193 -0.1580  0.2908 -0.0241
 8723W        W27470  23.668   7.997   0.023 -0.1786 -0.2717 -0.1201
 8724W        W27471  33.416  18.133   0.880 -0.2025  0.1741  0.2533
 8725W        W27472  13.866  28.278  15.540  0.1285 -0.1876 -0.1038
 8726W        W27473  28.950  16.713  11.999 -0.2069  0.0506  0.1248
 8727W        W27474   3.306  22.001  23.662 -0.0988  0.1279  0.2053
 8728W        W27475   9.581  26.621   9.101 -0.0208  0.4134 -0.2509
 8729W        W27476  11.954  19.513   6.066  0.1141 -0.0099  0.3223
 8730W        W27477   9.841  26.131   5.706 -0.0720 -0.0851 -0.2172
 8731W        W27478  26.079   2.035   1.700  0.1173  0.0130  0.0965
 8732W        W27479  29.100  11.859  11.417  0.1427 -0.3432  0.2181
 8733W        W27480  16.107   9.401  18.979 -0.0214 -0.1717 -0.2367
 8734W        W27481  23.438  31.965  16.810 -0.0294 -0.1572  0.1614
 8735W        W27482  10.833   5.984  20.797 -0.0001 -0.1667  0.2757
 8736W        W27483  16.591   1.362  17.517  0.1287 -0.0065 -0.1184
 8737W        W27484  16.408  20.334  21.019  0.3459  0.0446 -0.2155
 8738W        W27485  24.623  33.506   6.007  0.3706 -0.0522  0.2599
 8739W        W27486   9.587  20.500  11.523 -0.0838 -0.1558 -0.0072
 8740W        W27487  17.708   3.885   6.412  0.0265  0.0670  0.0991
 8741W        W27488  15.272  33.045  10.238  0.0342  0.0582  0.0560
 8742W        W27489   5.880  17.066  18.524  0.1098 -0.0485 -0.2693
 8743W        W27490   8.319  15.981   7.472  0.0229  0.2534 -0.0706
 8744W        W27491  20.956  15.070  21.272 -0.2933 -0.0904  0.1052
 8745W        W27492  12.592   1.870  10.880  0.0398 -0.0283  0.3125
 8746W        W27493  18.877  23.612  22.386 -0.4174 -0.0816 -0.0930
 8747W        W27494  14.384  19.727   1.225  0.1830 -0.0079  0.0858
 8748W        W27495  15.826  27.152   2.720 -0.0781 -0.0093 -0.0532
 8749W        W27496  25.851  32.704  11.172  0.2441  0.1651 -0.4610
 8750W        W27497  31.572  18.681   9.017 -0.0745  0.0591  0.1433
 8751W        W27498  13.217  32.346   8.132 -0.2393  0.0548 -0.2384
 8752W        W27499  13.845  16.012  10.086  0.1224  0.2760  0.0415
 8753W        W27500   1.340  12.973   1.595  0.1909  0.2016 -0.0139
 8754W        W27501  20.904  33.717  17.132  0.0666 -0.2411 -0.0598
 8755W        W27502   4.535  13.202  20.945  0.1602  0.1815 -0.0957
 8756W        W27503  30.656   1.200  19.467  0.2747  0.1702  0.0058
 8757W        W27504  17.857  30.906   1.102  0.1118 -0.0272 -0.0450
 8758W        W27505  26.526  19.855  17.590  0.1433  0.0391  0.0327
 8759W        W27506   9.444   8.457  22.040 -0.1349  0.0361 -0.2931
 8760W        W27507   0.947  24.827  16.916 -0.1006 -0.1287  0.0757
 8761W        W27508  26.399  15.012  13.549 -0.4205 -0.1461 -0.1070
 8762W        W27509   0.972   6.167  23.744  0.0711  0.0800 -0.2394
 8763W        W27510  11.280  30.166   9.032 -0.0636  0.0290 -0.0493
 8764W        W27511   9.015  25.976   9.514  0.4771  0.0345  0.3462
 8765W        W27512   4.881  14.483  16.030  0.0148  0.1194 -0.0778
 8766W        W27513  22.661  27.152   5.019  0.3591 -0.3329 -0.1575
 8767W        W27514  29.544   5.138  20.215 -0.0265  0.0009  0.3070
 8768W        W27515  19.291  27.997  24.838  0.4380  0.2025  0.2891
 8769W        W27516  20.058   3.001   5.877  0.1774  0.1625 -0.0263
 8770W        W27517   4.378   8.666   5.626 -0.3009 -0.2056 -0.1604
 8771W        W27518  12.762  28.663  24.810 -0.2057 -0.2729 -0.0641
 8772W        W27519  26.120  25.655  22.829  0.1184  0.0315  0.3502
 8773W        W27520   1.047  27.119  24.371  0.0638 -0.0133 -0.0238
 8774W        W27521  16.097   3.380  23.648 -0.2528 -0.1295 -0.0162
 8775W        W27522   8.574  15.430   4.008  0.0893  0.0835  0.0442
 8776W        W27523  30.881   7.774  11.866 -0.1426  0.1243  0.1791
 8777W        W27524   2.139  31.413   1.186 -0.0155 -0.1925  0.0447
 8778W        W27525   0.512  26.936  22.436 -0.3063 -0.0577  0.0261
 8779W        W27526  13.482   1.025   9.838  0.2573 -0.3778  0.2125
 8780W        W27527  23.690  31.050  19.574  0.1649  0.0028 -0.3080
 8781W        W27528  30.966  14.652  10.528 -0.0235 -0.2941  0.0323
 8782W        W27529   2.142  30.061  19.446  0.2218  0.2851  0.4217
 8783W        W27530  11.703  27.688   7.311 -0.4229  0.0774 -0.2775
 8784W        W27531  13.341  21.047   5.457 -0.0100  0.2396 -0.0500
 8785W        W27532   8.497  28.076  11.496  0.0622  0.3161 -0.0581
 8786W        W27533   8.415  28.089  11.038  0.1740  0.3213 -0.1140
 8787W        W27534  11.616  33.438   7.829 -0.2790  0.0823  0.0312
 8788W        W27535  20.057  16.389  22.296 -0.2318 -0.1672  0.3107
 8789W        W27536  18.719  32.389  17.589  0.0302 -0.1246  0.4153
 8790W        W27537  28.127   0.319   2.076  0.0224  0.0341 -0.0700
 8791W        W27538  33.627   7.416   1.369  0.2376  0.2280  0.2377
 8792W        W27539  25.520  10.348  21.776 -0.2262 -0.2666 -0.1712
 8793W        W27540  31.492   1.653  15.587 -0.3064 -0.0176 -0.1555
 8794W        W27541   0.617   2.903   7.231  0.3882 -0.3235  0.0513
 8795W        W27542  26.996  12.311  17.661 -0.0169  0.0438  0.4049
 8796W        W27543  25.894  13.075  16.860 -0.1729  0.2608  0.0586
 8797W        W27544  22.364  32.891  25.407  0.0831  0.0259 -0.0274
 8798W        W27545  24.452   0.471  22.739 -0.2349 -0.2079  0.0600
 8799W        W27546  24.469  31.181   2.457 -0.0763 -0.0067  0.0529
 8800W        W27547  17.123  23.447   7.106  0.0929  0.0035 -0.3105
 8801W        W27548  11.073  11.400  25.911 -0.0034 -0.1142 -0.2445
 8802W        W27549  31.602  25.333  11.437 -0.1804  0.0336  0.1237
 8803W        W27550  20.415   6.342   5.032  0.1261 -0.1680  0.2316
 8804W        W27551  32.144  33.899   3.772  0.0726  0.0936 -0.2583
 8805W        W27552  29.622  27.104  16.212  0.2101  0.2028 -0.2781
 8806W        W27553  15.160   7.168  11.064  0.2676 -0.1967  0.0666
 8807W        W27554  11.571   7.787   2.444  0.5133 -0.0305 -0.1404
 8808W        W27555  13.124   3.894   2.859 -0.0448  0.1491 -0.1173
 8809W        W27556  34.786   5.246  16.422 -0.1799 -0.0955  0.0916
 8810W        W27557  13.304  19.492  23.879  0.0166 -0.1383  0.5110
 8811W        W27558  33.452  24.779  15.173 -0.1853  0.0881 -0.1745
 8812W        W27559  33.571  14.890  12.056  0.0670  0.1893 -0.1990
 8813W        W27560  14.908  11.176  10.755  0.1141 -0.2982 -0.2238
 8814W        W27561   7.940  18.601  19.495  0.3131  0.4158 -0.1181
 8815W        W27562   3.723  29.202  13.926  0.2632  0.0381 -0.0024
 8816W        W27563  31.015  21.439   8.170 -0.0321  0.1738  0.0631
 8817W        W27564  30.753  12.468   6.626  0.0303 -0.2567  0.1155
 8818W        W27565  28.194  11.176  22.947 -0.1934  0.1017  0.0370
 8819W        W27566  22.371  11.654   0.976  0.1044  0.0516  0.1443
 8820W        W27567  28.294  25.712  25.393  0.5250 -0.3140 -0.0238
 8821W        W27568  19.750  16.285  21.601  0.1623  0.0891  0.3177
 8822W        W27569  25.457  30.512  16.710 -0.0096 -0.0739 -0.0450
 8823W        W27570  18.756   8.253  23.719 -0.2332  0.0930 -0.3948
 8824W        W27571  10.332   3.837  22.771 -0.2118  0.1699 -0.0303
 8825W        W27572  31.900  34.210  15.256 -0.0739  0.2094  0.0368
 8826W        W27573  29.437   7.154  15.287  0.0052  0.0762 -0.0225
 8827W        W27574   4.624   0.732   8.656  0.1189 -0.0107 -0.0760
 8828W        W27575  10.681  34.114  25.776  0.0153  0.0298 -0.0228
 8829W        W27576  17.692   0.603   3.875  0.2971 -0.0826 -0.0412
 8830W        W27577  14.902  33.471   4.741 -0.1164  0.3112  0.0217
 8831W        W27578  24.547  30.932  17.761  0.2413 -0.1546  0.0151
 8832W        W27579  16.898   7.812  18.204 -0.1379  0.1893 -0.2667
 8833W        W27580   1.620  27.270   4.330 -0.0752  0.0893 -0.0184
 8834W        W27581  30.231   6.059  15.062 -0.3749 -0.1188  0.1111
 8835W        W27582   2.084  11.449  13.570 -0.1039  0.1427 -0.0482
 8836W        W27583  27.019  28.004  23.452 -0.2191  0.0341  0.2057
 8837W        W27584  14.302   9.844   2.723 -0.2750 -0.1217 -0.2733
 8838W        W27585  27.577  32.818  15.824  0.4887  0.2017  0.0524
 8839W        W27586  16.531  24.665  14.775  0.0756 -0.3031 -0.3315
 8840W        W27587  23.136   3.929  13.838 -0.1934  0.0494  0.3457
 8841W        W27588  11.379  29.791  13.916  0.0104  0.1624  0.0636
 8842W        W27589  16.642  32.608   8.566 -0.0043 -0.1616  0.0571
 8843W        W27590  35.041  24.874  24.261 -0.1916  0.2992  0.3355
 8844W        W27591   1.926  10.691  16.532 -0.1218  0.0347  0.1314
 8845W        W27592   1.783  15.496  16.967  0.1042  0.2693  0.1280
 8846W        W27593   1.099  29.986  20.986  0.2355  0.1031 -0.0702
 8847W        W27594  31.943   1.659  14.849  0.1780 -0.0070  0.3850
 8848W        W27595  16.896   0.769  19.771 -0.1315 -0.1977 -0.0229
 8849W        W27596  28.254   1.788  21.851  0.3015 -0.0561 -0.4416
 8850W        W27597  26.466   6.691  19.486  0.0481 -0.0180 -0.2523
 8851W        W27598  11.261  26.919  10.466 -0.2168  0.1491 -0.0214
 8852W        W27599  28.607  24.335   7.374 -0.0540 -0.2220  0.2516
 8853W        W27600  14.230  19.326  20.518 -0.1320  0.0437 -0.0573
 8854W        W27601  24.289   3.888  14.140  0.2249 -0.1767  0.0324
 8855W        W27602   4.763  33.111  11.670  0.0686  0.2453 -0.1373
 8856W        W27603  20.594  13.071   7.823  0.1156 -0.0721  0.2201
 8857W        W27604  20.823  26.511  20.981  0.0530 -0.0330 -0.0409
 8858W        W27605   2.162  10.524   5.127  0.1672 -0.2467  0.0837
 8859W        W27606  15.529   9.865  22.294 -0.0668 -0.0257 -0.0020
 8860W        W27607   8.891  26.230   8.613 -0.1431 -0.1563 -0.1269
 8861W        W27608  26.662  20.438  20.113 -0.1202  0.1337 -0.1838
 8862W        W27609  16.259  23.169   3.841 -0.0652 -0.2609 -0.3336
 8863W        W27610   3.592  11.315   5.613 -0.0183  0.3075  0.1775
 8864W        W27611  10.365  21.782  15.878  0.3785 -0.0632 -0.0166
 8865W        W27612  30.042   1.274  22.098  0.1855 -0.0448 -0.1266
 8866W        W27613  24.633  11.347  17.422 -0.1071  0.1214  0.0427
 8867W        W27614  10.100  21.315  15.732 -0.0830 -0.2397  0.1777
 8868W        W27615  12.209   4.423   4.425  0.3218 -0.0161  0.1334
 8869W        W27616  24.196  11.972  20.427 -0.2572 -0.1447 -0.0323
 8870W        W27617   9.582   1.569   1.530 -0.0384  0.1067  0.3749
 8871W        W27618   9.258  15.925  10.413  0.0323  0.1004 -0.0448
 8872W        W27619  29.944  17.944  10.580  0.2347 -0.0570  0.0578
 8873W        W27620   8.059   6.418   3.846  0.0556  0.0725  0.0328
 8874W        W27621  17.944  12.072  11.110 -0.1387 -0.2130 -0.0139
 8875W        W27622  27.676   5.346   3.091  0.0624 -0.1431 -0.2870
 8876W        W27623  22.351   2.316  13.759 -0.0496 -0.0528  0.0324
 8877W        W27624   6.790  33.118   7.176 -0.0419  0.0600 -0.2224
 8878W        W27625  27.119  34.622  13.743  0.1027 -0.2794 -0.0935
 8879W        W27626  14.290  25.712   1.279 -0.0610 -0.1937  0.3652
 8880W        W27627  30.786  13.803  10.143 -0.0163  0.0460 -0.0091
 8881W        W27628  12.139   6.362  10.581 -0.0455 -0.0232 -0.0212
 8882W        W27629  25.973  29.419   9.908  0.2064 -0.2843 -0.2877
 8883W        W27630  10.790   1.479  13.566 -0.2307  0.0973  0.1158
 8884W        W27631  14.258   2.224  19.061  0.2134 -0.2704  0.1015
 8885W        W27632  11.258  30.523   5.274 -0.2055 -0.0127 -0.2849
 8886W        W27633  24.751  24.690  10.780 -0.0325  0.0509  0.2709
 8887W        W27634  27.878   0.817  20.007  0.1400  0.0220 -0.0587
 8888W        W27635   2.138   0.235  19.000  0.0016 -0.1607 -0.1692
 8889W        W27636   6.748  13.316   7.194  0.1301  0.0368 -0.0119
 8890W        W27637  15.777  30.835   5.484 -0.0065 -0.3453  0.0948
 8891W        W27638  21.687  24.459  25.417  0.2279 -0.0508  0.2145
 8892W        W27639  13.954  24.842   6.013  0.1792 -0.0973  0.4564
 8893W        W27640  35.120   6.828  18.824 -0.0397  0.1448  0.1326
 8894W        W27641   5.137  18.763   1.711 -0.0924  0.0526 -0.2501
 8895W        W27642   3.979   9.138  19.254 -0.0192 -0.0899  0.2779
 8896W        W27643  23.002   1.588  14.822  0.1385 -0.1328  0.0248
 8897W        W27644  29.879  33.732  22.570 -0.0279  0.2087  0.1999
 8898W        W27645  10.161   3.490   4.304  0.0063 -0.1966  0.1595
 8899W        W27646  12.703  20.389  23.893 -0.1143  0.1115  0.0055
 8900W        W27647  11.634  22.050  15.664 -0.0118  0.0697 -0.0575
 8901W        W27648   3.181  25.948  22.127  0.3400  0.0775  0.0751
 8902W        W27649   8.215  14.200  11.813  0.1467 -0.1066  0.1707
 8903W        W27650  20.891   3.936   5.542 -0.2730 -0.0027  0.0915
 8904W        W27651  10.876  27.783  16.072 -0.1377  0.2304 -0.0787
 8905W        W27652  32.204  25.030   0.609 -0.1208 -0.4568 -0.2107
 8906W        W27653  24.963  31.080  20.875  0.3021  0.0946 -0.2796
 8907W        W27654  23.162  16.680  24.206  0.0907  0.0978 -0.2326
 8908W        W27655  18.142  14.806  21.955  0.0110 -0.2081 -0.1747
 8909W        W27656  15.994  12.285  21.566  0.0202 -0.0754  0.1522
 8910W        W27657  23.265   4.167   1.120  0.0145  0.0044  0.0755
 8911W        W27658  31.429  32.475  13.186  0.2260 -0.1264 -0.2054
 8912W        W27659  12.357  25.322   0.657 -0.3179 -0.0867  0.1116
 8913W        W27660  18.010  27.880  26.132  0.0589  0.1492  0.1642
 8914W        W27661  27.880  26.296  14.362 -0.1055  0.0634  0.2215
 8915W        W27662  17.747   6.795   7.407  0.3645 -0.0150  0.0594
 8916W        W27663  33.753  33.110   7.663  0.0257 -0.4879  0.0431
 8917W        W27664   7.272  30.026   7.315  0.0891 -0.1649  0.1840
 8918W        W27665  32.512   6.747   3.422  0.0790  0.0711 -0.0256
 8919W        W27666  16.482  30.157   0.952  0.1365 -0.5193  0.0150
 8920W        W27667  33.222  12.030  10.726 -0.3649 -0.0892  0.2842
 8921W        W27668  16.378  32.334   8.012 -0.3099  0.2782 -0.2234
 8922W        W27669  10.417  31.549  16.920  0.0794 -0.2763  0.0043
 8923W        W27670  16.147   4.489   1.630 -0.4701 -0.2293  0.0549
 8924W        W27671  11.995  19.054   8.522 -0.0401  0.2158  0.0532
 8925W        W27672  30.416  29.013  19.808 -0.1830  0.2603 -0.3746
 8926W        W27673  20.721  14.658   7.936 -0.1595  0.1752 -0.1227
 8927W        W27674  29.015  11.031  12.954  0.1387 -0.1168 -0.1151
 8928W        W27675  28.434  25.484  11.020  0.0533  0.4241  0.2978
 8929W        W27676  27.665  19.569   5.267  0.2529 -0.0430 -0.1288
 8930W        W27677  14.684  12.380  25.180 -0.0690  0.1555  0.0995
 8931W        W27678  12.369  30.837   6.044  0.2636  0.1127  0.2446
 8932W        W27679  18.004  17.999   3.612 -0.2813 -0.2449 -0.1197
 8933W        W27680  29.722  22.290  11.565 -0.1217  0.3656 -0.0326
 8934W        W27681  19.326  17.425   9.259 -0.0385  0.1252 -0.1835
 8935W        W27682  15.107   4.307   3.528 -0.2516  0.0126 -0.1265
 8936W        W27683   1.422  16.429  13.740 -0.0404 -0.0065  0.0205
 8937W        W27684   5.803  28.323  15.839  0.1086 -0.1842  0.0806
 8938W        W27685  28.099  22.308  18.119  0.0516 -0.1558  0.1814
 8939W        W27686  30.969   4.509  22.484 -0.1307 -0.2244  0.1006
 8940W        W27687  11.795  33.372   5.119  0.2956 -0.2869 -0.0246
 8941W        W27688   5.714  27.193  20.859  0.2402 -0.1050  0.0101
 8942W        W27689  22.404  10.075  17.510 -0.1897  0.0422 -0.1169
 8943W        W27690  13.730  16.071   2.708 -0.2516 -0.0740  0.0120
 8944W        W27691  11.991  10.197   0.597  0.1171 -0.0001 -0.0086
 8945W        W27692   6.459  22.127   6.798 -0.0065  0.1131 -0.2072
 8946W        W27693  14.190   9.491  23.946  0.0778  0.0438 -0.1842
 8947W        W27694  17.063  18.853  11.794  0.0058  0.1413  0.1690
 8948W        W27695  11.555  15.071  18.539 -0.1126  0.0935  0.1420
 8949W        W27696  32.321  23.696  22.590  0.1886  0.1269  0.2211
 8950W        W27697  10.046  13.693   0.011  0.0430  0.0692 -0.0270
 8951W        W27698   7.595  34.982   1.286  0.3252  0.0347  0.1575
 8952W        W27699  29.403  14.924  12.032  0.0831  0.0056  0.2904
 8953W        W27700  33.407  17.669  22.293  0.1940 -0.2567 -0.1178
 8954W        W27701  11.356  15.424   1.405  0.2617 -0.2230  0.0816
 8955W        W27702   6.422  16.279  23.890  0.0178 -0.1699 -0.1749
 8956W        W27703   3.554   8.263  19.166  0.2322 -0.0395 -0.4886
 8957W        W27704  22.642  11.342   2.331  0.1174 -0.1371  0.0323
 8958W        W27705  16.596   3.719   3.668  0.0235 -0.0897 -0.0769
 8959W        W27706   0.793   8.231  20.403 -0.1147  0.0684 -0.1291
 8960W        W27707   7.164  16.337   4.176 -0.0163  0.2411  0.0079
 8961W        W27708  24.115  22.461  12.989  0.0493 -0.0688  0.1147
 8962W        W27709   6.473  17.014  21.380  0.1219 -0.0505 -0.0696
 8963W        W27710   7.536  24.630  22.711 -0.0144 -0.0340  0.1833
 8964W        W27711   8.660   0.868  26.025  0.0018 -0.1198  0.0702
 8965W        W27712   6.003  23.738   7.206 -0.0073 -0.0626 -0.3161
 8966W        W27713  22.338  21.535  20.092 -0.0508  0.0782 -0.4236
 8967W        W27714   2.421  21.112  13.572 -0.2630  0.2102 -0.2401
 8968W        W27715  30.252  11.492  13.345  0.2344  0.3247 -0.0388
 8969W        W27716  35.101  25.498  24.301 -0.5398 -0.0891  0.1666
 8970W        W27717   1.297  20.923  17.819 -0.2343 -0.1709 -0.0099
 8971W        W27718  29.981   1.321  18.380 -0.2331 -0.1533 -0.4349
 8972W        W27719  13.701   3.637   0.276  0.1604 -0.2314 -0.1360
 8973W        W27720   2.827  22.388   3.215  0.1859  0.1393  0.0258
 8974W        W27721  17.132   8.460  24.785  0.1441  0.2815 -0.2236
 8975W        W27722  15.965   1.314   9.610 -0.1431  0.1475  0.0952
 8976W        W27723   0.978  32.696  19.350  0.0865  0.0056 -0.1018
 8977W        W27724   6.901  14.398  25.536  0.0672  0.0071  0.0151
 8978W        W27725  34.566  33.733  22.957 -0.2936  0.0539 -0.1553
 8979W        W27726   0.182   4.227  14.137  0.1530 -0.0481  0.1119
 8980W        W27727  12.220   2.751   0.692  0.1785  0.1312 -0.0333
 8981W        W27728  24.887   5.389  19.160  0.0706 -0.2408 -0.0237
 8982W        W27729   1.328  22.053  12.500 -0.0441  0.1338  0.1854
 8983W        W27730  26.670  15.783  15.202  0.1833  0.0208 -0.0805
 8984W        W27731   6.714   3.338  25.269  0.0685  0.1576 -0.0850
 8985W        W27732  17.056  28.569  26.213 -0.0711 -0.2452 -0.1918
 8986W        W27733   1.394  24.721   1.848 -0.2011  0.2856 -0.5696
 8987W        W27734   8.290  14.535   4.849 -0.0442 -0.0522 -0.1217
 8988W        W27735  16.481   2.259   8.050 -0.0540 -0.1861  0.1617
 8989W        W27736  24.307   6.754   0.947 -0.0594  0.1976 -0.0819
 8990W        W27737  18.485  13.046   3.513  0.0997  0.2639  0.0384
 8991W        W27738   6.057  34.425   2.251  0.0542  0.0072 -0.1620
 8992W        W27739   0.382  21.601  10.729 -0.0429  0.0698  0.0848
 8993W        W27740  19.993   2.973   9.365  0.2957  0.0520 -0.1196
 8994W        W27741  32.716  16.000   8.696 -0.0086 -0.0618  0.0271
 8995W        W27742   7.558  19.106   2.932  0.2790  0.0411 -0.1070
 8996W        W27743  30.392  20.486  24.967 -0.1161 -0.0674 -0.1253
 8997W        W27744  14.529   2.535   1.580  0.3908  0.0311 -0.0574
 8998W        W27745  16.865  10.212   0.253  0.2193 -0.1338 -0.3158
 8999W        W27746  30.209  16.772   6.403 -0.0590  0.1362 -0.0325
 9000W        W27747   8.742  13.755  18.705 -0.0421 -0.1845 -0.2599
 9001W        W27748  27.552   6.702  19.205  0.2355 -0.2040 -0.0424
 9002W        W27749  26.662  13.034   0.409  0.3100 -0.1838 -0.2747
 9003W        W27750  16.731   5.455  22.923 -0.0018  0.1468 -0.0386
 9004W        W27751   4.683  34.940  10.382  0.0326  0.0188 -0.0851
 9005W        W27752  32.882   7.954  24.421 -0.2210 -0.0915  0.2164
 9006W        W27753  23.791  23.891   0.936 -0.1859 -0.3028  0.1284
 9007W        W27754  11.828   8.672  19.899  0.0684 -0.2183  0.1408
 9008W        W27755  11.725  23.836  17.432 -0.0519  0.1735 -0.1574
 9009W        W27756   0.490  13.905  20.986 -0.2702  0.0734 -0.1842
 9010W        W27757  19.475   7.462   8.091 -0.2946 -0.2348 -0.0061
 9011W        W27758   1.841  32.334   4.610  0.1932  0.2604  0.4858
 9012W        W27759  15.601   2.555  21.399  0.1185  0.2278  0.1868
 9013W        W27760  34.928  19.169  25.897  0.0616  0.0017  0.1964
 9014W        W27761  18.630   7.228   2.005  0.3192  0.1249 -0.0422
 9015W        W27762   5.036  12.418   1.111 -0.0693 -0.0125 -0.1376
 9016W        W27763  16.099  11.169   1.454  0.0980  0.0098  0.3187
 9017W        W27764  11.190  25.741   6.754 -0.1908  0.0034 -0.2142
 9018W        W27765   9.332   0.604   7.786  0.0598 -0.2428 -0.1049
 9019W        W27766  11.963   4.311   7.421 -0.2139 -0.3042  0.3185
 9020W        W27767  20.212  34.031   5.802  0.1870 -0.0440 -0.0379
 9021W        W27768   8.120   8.745   1.453 -0.2875 -0.0439 -0.0791
 9022W        W27769  34.908   6.587   1.026 -0.0232 -0.1627  0.2230
 9023W        W27770  17.009   1.526  19.134 -0.2663 -0.3330  0.2627
 9024W        W27771  20.487  33.875  22.030  0.2658  0.1462  0.1645
 9025W        W27772  30.439   5.419   4.926  0.3453  0.0012 -0.0713
 9026W        W27773  12.164   3.657   6.320  0.0847  0.0095 -0.1158
 9027W        W27774  29.726   4.873  18.999 -0.1011 -0.0102  0.0042
 9028W        W27775  21.222  34.745   0.354  0.5321 -0.1145  0.0197
 9029W        W27776   2.423  14.201  14.887 -0.1995  0.0090 -0.0069
 9030W        W27777  15.029  32.285   9.674  0.0751  0.1607 -0.1456
 9031W        W27778  16.556   3.408   6.916 -0.2083  0.0713  0.3156
 9032W        W27779  24.955   2.811   2.489 -0.0883 -0.3055 -0.0677
 9033W        W27780   5.592   2.632  25.709 -0.0721  0.1716  0.1101
 9034W        W27781  34.270  29.291  13.670 -0.0912  0.0728 -0.1272
 9035W        W27782  14.224  10.299   4.912  0.0570  0.1233 -0.1536
 9036W        W27783  28.031   8.789  17.603 -0.4114 -0.0160  0.0594
 9037W        W27784  21.309  23.308   1.879  0.1210  0.0447 -0.2035
 9038W        W27785   9.503  30.385   1.008  0.1518  0.1070  0.3610
 9039W        W27786  20.622  34.461  22.669 -0.3208 -0.0237  0.0980
 9040W        W27787  14.882  30.426  15.399 -0.1119  0.2243 -0.2007
 9041W        W27788  31.212  15.659  25.403 -0.2236  0.0776 -0.2174
 9042W        W27789  24.867   1.635  12.583  0.1424 -0.1896 -0.0370
 9043W        W27790  11.498  35.077   7.481  0.0086 -0.2431  0.0399
 9044W        W27791  22.035   5.370  17.590  0.1752 -0.0573 -0.0317
 9045W        W27792   4.162   3.111  23.598 -0.1120  0.1371 -0.0399
 9046W        W27793  30.199   5.748  19.320 -0.0846 -0.2213  0.1405
 9047W        W27794  34.644   6.939  13.471 -0.0892  0.3479  0.1545
 9048W        W27795  13.940  17.509  13.171  0.0814  0.1126 -0.0010
 9049W        W27796  29.415  28.569   3.852  0.2353  0.1736 -0.0710
 9050W        W27797   5.824   7.027  20.980 -0.0792  0.0668 -0.0947
 9051W        W27798  10.614  10.719   0.515  0.1303 -0.2236  0.1208
 9052W        W27799  15.480  19.773   8.536 -0.0497  0.2608 -0.1507
 9053W        W27800  33.564   2.508   5.767  0.2882  0.1189 -0.0241
 9054W        W27801  19.802  10.509   9.662  0.1434 -0.0846 -0.3090
 9055W        W27802   4.829  30.390  21.979 -0.0178  0.1624 -0.0099
 9056W        W27803  35.193  17.916   7.791  0.0806  0.0153 -0.1295
 9057W        W27804  27.374  16.622  20.401 -0.1385 -0.2108 -0.2252
 9058W        W27805  26.258  18.976  23.255  0.1797  0.1179  0.0037
 9059W        W27806  21.407   6.888   3.229 -0.1551  0.2101  0.2002
 9060W        W27807   5.769  13.245  17.073 -0.0942  0.0282  0.0500
 9061W        W27808  13.940   6.400  18.130  0.1112  0.3316 -0.0537
 9062W        W27809  29.337   6.841  26.228  0.0420  0.0251 -0.2264
 9063W        W27810  18.419  33.259   1.333  0.0149 -0.0439 -0.0162
 9064W        W27811  30.324  27.910  12.715  0.4067  0.0582 -0.3523
 9065W        W27812   9.297  20.939   3.415  0.0457 -0.2723 -0.0076
 9066W        W27813  25.237  10.525  20.729  0.1938  0.1752  0.0024
 9067W        W27814  11.477   2.541  24.042  0.0752  0.1807 -0.1182
 9068W        W27815  12.601  14.021  23.496  0.1680 -0.1615  0.2075
 9069W        W27816  27.696  30.236  14.160 -0.1126 -0.1483 -0.0098
 9070W        W27817  20.117  27.148  20.845 -0.2177 -0.1113  0.1744
 9071W        W27818  28.920   2.874  20.424 -0.0135 -0.0450  0.0152
 9072W        W27819   5.993  15.775   5.315  0.1876 -0.1153 -0.1088
 9073W        W27820  11.687  22.737  14.942 -0.1136  0.2168  0.2236
 9074W        W27821  33.157  33.102  15.973 -0.2149  0.0203 -0.4176
 9075W        W27822  10.147   1.718  13.186 -0.2402  0.0002 -0.2274
 9076W        W27823  13.014   9.896   9.601  0.0056  0.2963  0.1700
 9077W        W27824  26.803  33.838   0.281 -0.1860 -0.0912 -0.1832
 9078W        W27825  19.820  29.897  23.769  0.1272  0.2922  0.0804
 9079W        W27826  29.275  19.098   5.844 -0.0732 -0.3495  0.3176
 9080W        W27827  29.920  19.248  12.934  0.1844  0.0066  0.3793
 9081W        W27828  33.174  12.224  17.599  0.4539  0.0248 -0.0912
 9082W        W27829  18.881  18.601   0.477  0.0423  0.0591 -0.0200
 9083W        W27830  13.925  29.099  22.585 -0.0751  0.2465 -0.2128
 9084W        W27831   1.317   5.776  23.576  0.1094 -0.1607  0.1588
 9085W        W27832  18.658  23.125  10.742  0.0321 -0.0971 -0.1561
 9086W        W27833  33.809  13.408   0.921  0.0229  0.2564  0.1202
 9087W        W27834   3.793  18.595   1.500  0.0327 -0.0257  0.0271
 9088W        W27835  28.938  28.583  25.102  0.1654  0.0583 -0.1161
 9089W        W27836  27.375  28.565  11.338 -0.1058  0.2080  0.1836
 9090W        W27837   3.089  17.810  25.845 -0.1462 -0.1464  0.1202
 9091W        W27838   4.597  30.071   5.645  0.2331  0.0175 -0.2119
 9092W        W27839  25.755  13.120  23.863 -0.0810 -0.2971 -0.0252
 9093W        W27840  25.919  28.046  10.631  0.4118  0.0773 -0.2947
 9094W        W27841   3.584  17.806  17.387  0.2802 -0.0646 -0.0331
 9095W        W27842  14.985   3.746  20.799  0.1336  0.0157  0.0736
 9096W        W27843   4.858  16.765  26.065  0.1930 -0.1227  0.1405
 9097W        W27844   1.182  16.037  21.249 -0.0400 -0.0419 -0.4617
 9098W        W27845  14.854   5.537  19.476 -0.0337 -0.1096  0.1009
 9099W        W27846  27.250  32.492  13.998 -0.1326  0.2325  0.3813
 9100W        W27847  12.346   7.306  13.168 -0.0738  0.1216  0.0279
 9101W        W27848  13.430  16.113   3.133  0.1988  0.1772  0.0219
 9102W        W27849  16.489   1.477  22.579 -0.1876 -0.1783 -0.1641
 9103W        W27850  34.123  30.913  15.039 -0.1665  0.0126  0.2509
 9104W        W27851   2.171  16.492  21.749 -0.1235 -0.0800 -0.0333
 9105W        W27852  12.383   0.993  10.697  0.0626  0.1775  0.1694
 9106W        W27853  12.580   1.715  21.141 -0.0203  0.0308  0.0979
 9107W        W27854  14.836   6.037  18.042 -0.1305  0.0904 -0.0356
 9108W        W27855  12.881  24.127   7.856 -0.1312 -0.2309 -0.1469
 9109W        W27856  19.246  21.425  20.195  0.3488 -0.4845 -0.0934
 9110W        W27857   5.203  34.993  20.672 -0.0544  0.1451 -0.1540
 9111W        W27858  19.738  15.455   0.959 -0.2455  0.1304 -0.2729
 9112W        W27859  29.396  12.959   8.822 -0.1758  0.0592  0.2478
 9113W        W27860  34.489  18.109  10.243  0.0755 -0.1287  0.0600
 9114W        W27861  24.487  11.727  17.808  0.1815 -0.2750 -0.0708
 9115W        W27862  21.531   9.693   0.397  0.1168 -0.2686 -0.0176
 9116W        W27863   3.678  21.471  25.942  0.0891 -0.3058  0.0170
 9117W        W27864  25.069   6.828  13.524  0.3396  0.0432  0.2177
 9118W        W27865  12.784  22.954   5.813  0.1482  0.3045  0.2513
 9119W        W27866  13.241  12.188  19.652 -0.3192  0.2066  0.4541
 9120W        W27867  19.438  26.625   9.027 -0.0154  0.2472  0.3359
 9121W        W27868  25.734  27.145  13.117  0.2812 -0.1111  0.2365
 9122W        W27869  10.548  33.335  21.332 -0.2721  0.0203 -0.0487
 9123W        W27870  14.670   9.089   0.233 -0.0287 -0.0359 -0.1186
 9124W        W27871   0.251  10.497  15.074 -0.0129  0.0383 -0.0606
 9125W        W27872  32.211  23.892  24.795  0.1541 -0.0094  0.5304
 9126W        W27873  24.467  14.264  25.979  0.0859  0.3850 -0.0763
 9127W        W27874   1.767   1.943   2.081 -0.1736 -0.0665 -0.0229
 9128W        W27875  21.294   8.992  21.288 -0.4421  0.0561  0.0335
 9129W        W27876  12.704  34.666   3.400  0.0457 -0.0736 -0.0514
 9130W        W27877   6.617   4.325  11.756 -0.2081 -0.2362 -0.2297
 9131W        W27878  34.470  28.870  19.558  0.0474 -0.0574 -0.1958
 9132W        W27879  34.845  32.478   2.714  0.3174  0.0769  0.2533
 9133W        W27880   1.206  22.490  23.209  0.1099 -0.1935 -0.1347
 9134W        W27881   5.921  15.910   7.589  0.2264  0.0028 -0.1709
 9135W        W27882  23.901   5.609  22.338 -0.1624  0.1436  0.2016
 9136W        W27883   7.864   5.182  25.337  0.1092  0.0131  0.0113
 9137W        W27884  34.225   3.235  21.010  0.2285 -0.1694 -0.4205
 9138W        W27885  10.025  17.490   3.947  0.1076 -0.2052 -0.3352
 9139W        W27886  25.280   5.188   1.440 -0.2290 -0.3765 -0.0934
 9140W        W27887  25.826   5.631  13.692  0.1860 -0.1355 -0.0937
 9141W        W27888  21.129  11.698   7.284 -0.1948  0.0881 -0.2333
 9142W        W27889   7.749  31.487  15.707 -0.2650 -0.1347 -0.0796
 9143W        W27890   1.627  14.500  23.343  0.0084  0.0237  0.1288
 9144W        W27891   6.663   2.052  20.900  0.0892  0.1783 -0.0557
 9145W        W27892  29.376  17.920  12.933 -0.0943  0.3016  0.0608
 9146W        W27893  25.794  27.646  16.391 -0.2844 -0.0910  0.2409
 9147W        W27894  34.600  24.358  13.357  0.1215 -0.1246  0.0089
 9148W        W27895  34.517   2.606  21.797  0.2546  0.0598  0.1458
 9149W        W27896  14.532  33.309   1.090 -0.0927  0.1303 -0.3363
 9150W        W27897  34.480   0.346   7.832 -0.2186 -0.0393  0.0478
 9151W        W27898   0.784  30.752  19.271 -0.0127 -0.1439  0.0932
 9152W        W27899  15.067  11.662   0.237 -0.0037  0.1073 -0.0307
 9153W        W27900   4.880  24.386  25.253 -0.1578  0.0055  0.0399
 9154W        W27901  21.851  11.192  22.449 -0.0443 -0.0987  0.0734
 9155W        W27902  15.435  15.134  25.320  0.2484  0.0867  0.0523
 9156W        W27903   3.341  32.301  22.479 -0.1814  0.0881 -0.0382
 9157W        W27904  21.274   3.072  16.651 -0.1672  0.0159  0.0178
 9158W        W27905  29.054  15.872  19.660  0.1302 -0.2259  0.0995
 9159W        W27906   2.618   0.376   5.760  0.3323  0.0253 -0.0196
 9160W        W27907   8.882  28.182  13.780  0.2738  0.2439 -0.1472
 9161W        W27908   7.218  18.640   0.661  0.0397 -0.1601  0.1073
 9162W        W27909   5.549  16.155   2.950 -0.0143  0.2179 -0.0489
 9163W        W27910  24.205   9.593   2.013 -0.0668  0.1515 -0.1254
 9164W        W27911  31.295  24.320  15.119 -0.0492 -0.3820  0.2027
 9165W        W27912  14.474  20.186  23.902  0.2987  0.1711 -0.1721
 9166W        W27913   2.269  31.680   6.695  0.2855 -0.3677  0.2876
 9167W        W27914  25.264   2.338  14.017 -0.0456 -0.1469  0.0675
 9168W        W27915  32.054   5.828  18.632 -0.0650 -0.0550 -0.0522
 9169W        W27916   5.083  32.408  22.474 -0.0183  0.1342 -0.0298
 9170W        W27917  25.555  27.392   1.912 -0.0814 -0.1745 -0.0726
 9171W        W27918   2.401  22.815  12.871 -0.2132 -0.0432  0.0363
 9172W        W27919  28.225  26.408  24.869  0.3219  0.3507  0.1066
 9173W        W27920  27.868   1.416   4.209 -0.0056  0.2652 -0.1586
 9174W        W27921   1.745  27.512  18.738 -0.2683 -0.1601  0.2884
 9175W        W27922   3.339  25.045   6.096  0.2407 -0.0735  0.0972
 9176W        W27923  16.263   2.397  19.208 -0.0889 -0.3407 -0.4012
 9177W        W27924  13.349   1.678  11.481 -0.0410  0.2052  0.0158
 9178W        W27925  16.672  18.508  11.489  0.0374 -0.0178  0.0638
 9179W        W27926   6.812  12.844  24.612 -0.0164  0.1675 -0.1468
 9180W        W27927  27.594   7.921  17.977 -0.1618 -0.0214 -0.2664
 9181W        W27928  28.191  14.523  24.478 -0.1930  0.0149 -0.0465
 9182W        W27929   8.352   2.616  12.965 -0.0090  0.1945  0.3018
 9183W        W27930   0.072  27.991   6.641 -0.0743 -0.3064 -0.2841
 9184W        W27931  24.936  16.422  13.011 -0.2235 -0.0522 -0.0646
 9185W        W27932  18.257   4.778  22.316  0.0876 -0.1962  0.0774
 9186W        W27933  25.601   5.791  15.124 -0.0465 -0.2001 -0.0814
 9187W        W27934   6.014   3.851  23.812 -0.1921  0.0217  0.1116
 9188W        W27935   0.512  25.654  21.449  0.0008 -0.2187  0.2080
 9189W        W27936   1.811  33.906  25.318 -0.1303  0.0784  0.1464
 9190W        W27937  22.610  31.978  22.591 -0.0157 -0.0705  0.2038
 9191W        W27938  11.313  24.849  17.063 -0.0701 -0.0008  0.1496
 9192W        W27939  32.151   7.636   1.125 -0.1461  0.2519 -0.3714
 9193W        W27940  29.670  30.254  14.037 -0.3074  0.0396 -0.1965
 9194W        W27941  18.781  19.381  23.300  0.1175  0.0692 -0.0474
 9195W        W27942  22.947  27.281  19.040  0.1656 -0.1810  0.0378
 9196W        W27943  10.815  32.115   3.275  0.1711  0.2123 -0.0083
 9197W        W27944   1.620   7.594   3.138  0.0194  0.1266 -0.1535
 9198W        W27945   8.452   1.814  21.686 -0.0543  0.1238 -0.1416
 9199W        W27946  18.780  34.422  22.646  0.3151 -0.1419 -0.2128
 9200W        W27947  14.249  20.347  14.543  0.0546  0.3745  0.0472
 9201W        W27948   2.659  25.913  19.481  0.1791  0.0470 -0.0959
 9202W        W27949  24.289  16.806  15.816 -0.0974 -0.2557 -0.0765
 9203W        W27950   2.028  20.035  16.308  0.3516  0.2664 -0.1986
 9204W        W27951   5.935   4.430   6.931  0.0097  0.4841 -0.3669
 9205W        W27952  32.888   4.270  22.705  0.1680  0.1066  0.1555
 9206W        W27953  17.434  16.334   7.047  0.1008  0.0535  0.0154
 9207W        W27954   7.324  31.495  11.409  0.2996 -0.4765 -0.3625
 9208W        W27955  17.759   9.546   1.465 -0.0240 -0.0568 -0.0428
 9209W        W27956   8.713   7.160  21.116  0.1840  0.1694  0.1330
 9210W        W27957  34.419  19.160   6.527  0.0210 -0.2349 -0.0484
 9211W        W27958  30.330  15.666  21.627 -0.4139  0.3820 -0.2248
 9212W        W27959  13.078  22.002  13.365 -0.2530 -0.0667  0.1813
 9213W        W27960   6.081   3.669  11.724  0.1275  0.0088 -0.2167
 9214W        W27961   6.605  22.798   7.691 -0.2059 -0.0882  0.3600
 9215W        W27962   6.000  29.902  26.065 -0.0467 -0.1669  0.1598
 9216W        W27963  21.731  15.837  21.260  0.3732 -0.0011  0.0650
 9217W        W27964  30.142  17.587  21.284  0.2624  0.0747  0.1068
 9218W        W27965  13.872  25.782  24.453  0.0435 -0.1536 -0.2157
 9219W        W27966  26.100  17.164  22.457 -0.0993  0.3693 -0.0089
 9220W        W27967  30.275  34.220  22.622  0.0163  0.3418 -0.1520
 9221W        W27968  25.724  27.876  24.560 -0.2344  0.1005  0.2016
 9222W        W27969  12.004   0.017   4.852 -0.1639  0.1925  0.0506
 9223W        W27970   4.943  32.606   9.143 -0.2288 -0.1145 -0.0299
 9224W        W27971  15.760  31.794  11.482 -0.2095  0.1357  0.2469
 9225W        W27972  15.291  33.294  12.528  0.0078 -0.1790 -0.2526
 9226W        W27973  26.779  26.600  10.244 -0.2587 -0.1531 -0.3300
 9227W        W27974   1.850  20.852  21.907 -0.1654 -0.3447 -0.2428
 9228W        W27975  33.435   1.659  13.114 -0.1642 -0.0603  0.0567
 9229W        W27976   3.300   8.272   6.904  0.2816  0.0159  0.1122
 9230W        W27977  13.977  10.040  24.091  0.1194  0.0192 -0.0896
 9231W        W27978  27.401   2.608  18.721 -0.3426 -0.1279 -0.0391
 9232W        W27979  15.833  28.267  12.007  0.1487  0.2557 -0.2538
 9233W        W27980  11.305   8.127   7.311  0.0249 -0.2258 -0.1539
 9234W        W27981  11.412  27.603  22.955  0.1031 -0.0418  0.0997
 9235W        W27982  26.003  29.490   2.792  0.2568  0.0373 -0.0856
 9236W        W27983  13.258  28.082  21.306  0.1241 -0.1143 -0.1965
 9237W        W27984  25.313   0.139  12.140 -0.3570 -0.4736 -0.1144
 9238W        W27985   6.106  13.991  24.833 -0.0006  0.0237  0.3294
 9239W        W27986  22.692   6.272   7.718  0.0823 -0.1087 -0.0991
 9240W        W27987  31.032  17.161  10.343 -0.0988  0.1700 -0.0400
 9241W        W27988   7.238  34.236   1.868 -0.0511 -0.0383 -0.3583
 9242W        W27989  12.283  21.301  22.236 -0.1476  0.2456  0.0680
 9243W        W27990  16.883   2.345   0.345  0.1678 -0.5041 -0.0081
 9244W        W27991   0.337   6.819   3.226 -0.1261 -0.0467  0.0783
 9245W        W27992  21.048  30.094  18.247 -0.0214 -0.1715 -0.3619
 9246W        W27993  24.020  34.108  20.723 -0.2029 -0.0722 -0.0258
 9247W        W27994   2.236  31.074  25.871  0.1254  0.0034 -0.0291
 9248W        W27995  28.153  14.617  11.345 -0.2355  0.1485  0.0768
 9249W        W27996  31.393  23.697  11.948 -0.1437  0.1622  0.1785
 9250W        W27997   6.609   1.237   7.947 -0.1588  0.0467 -0.0337
 9251W        W27998  20.383  21.283   7.982  0.1380 -0.0258  0.2085
 9252W        W27999  27.357  23.147  16.524 -0.1307  0.0129  0.0874
 9253W        W28000   4.932  30.481  23.760 -0.0894 -0.2151  0.1678
 9254W        W28001  26.695  20.270  16.203  0.0156 -0.3436  0.0123
 9255W        W28002  17.438  21.590   0.361  0.0011 -0.0262  0.0032
 9256W        W28003   7.156  11.569   7.919 -0.0070 -0.0796  0.2788
 9257W        W28004   5.003  25.576  23.350  0.0149  0.1791  0.1302
 9258W        W28005  27.090  31.753  21.866  0.3980  0.1058 -0.1391
 9259W        W28006  23.171   1.306  22.262  0.1667  0.0325  0.1966
 9260W        W28007  34.755  32.215  20.768 -0.0177 -0.2067  0.0787
 9261W        W28008  25.721  13.462  23.433  0.1383  0.1808 -0.2676
 9262W        W28009  18.063  25.956  21.215  0.1010  0.1374 -0.2240
 9263W        W28010   9.410   8.639  22.953 -0.1672 -0.2452 -0.0054
 9264W        W28011  32.992   2.394  24.654  0.2340  0.2611  0.1403
 9265W        W28012  31.270  11.840  24.601 -0.3613  0.0075 -0.0393
 9266W        W28013  28.073   2.031  20.734  0.0992  0.0488  0.1549
 9267W        W28014   6.102   3.369   5.263 -0.1927  0.2533 -0.3858
 9268W        W28015   9.357   2.985   5.248 -0.1038 -0.0400 -0.3445
 9269W        W28016  13.509   1.385  26.154 -0.1618  0.1691 -0.4288
 9270W        W28017  33.756  30.567   7.807 -0.0459 -0.0205  0.0993
 9271W        W28018  22.243  16.597  26.113 -0.1580  0.1078 -0.0814
 9272W        W28019  18.155   8.682  25.147  0.0312  0.5074  0.1223
 9273W        W28020  30.958   9.139  10.000  0.2120  0.0649  0.0419
 9274W        W28021   1.716  24.393  22.907  0.2624 -0.0624  0.1116
 9275W        W28022  35.190  18.545  20.932 -0.0585 -0.0194 -0.0376
 9276W        W28023  15.429  29.306   8.474  0.2433 -0.0201  0.2835
 9277W        W28024  30.277  11.308  14.795  0.1578 -0.1606 -0.2806
 9278W        W28025   3.401  17.214  18.974 -0.5527  0.0966  0.0322
 9279W        W28026  11.751  20.755  14.052 -0.0604  0.0657  0.0724
 9280W        W28027  32.993  35.004  19.858  0.1966  0.0336  0.1680
 9281W        W28028  34.493  33.803   3.178  0.1443 -0.1845 -0.0817
 9282W        W28029   4.151  11.037  16.069 -0.0930 -0.1448 -0.1421
 9283W        W28030  32.521   2.163   1.260  0.0803  0.3904  0.1734
 9284W        W28031  22.199   0.742  19.185 -0.0522 -0.0340  0.0570
 9285W        W28032  20.716   2.418  25.925  0.2274 -0.1635  0.1356
 9286W        W28033  28.476  32.719  19.147 -0.1628 -0.1621  0.0986
 9287W        W28034   2.298   4.517  19.467 -0.1657  0.1409 -0.2651
 9288W        W28035   0.327   6.866   4.928  0.2453  0.1412  0.2716
 9289W        W28036  30.691   1.121  13.450  0.1425 -0.1011 -0.1428
 9290W        W28037   4.335  25.327   2.542 -0.3341 -0.0795 -0.0879
 9291W        W28038   8.812  25.190   5.448 -0.1063  0.1143 -0.2802
 9292W        W28039   4.204   1.280   7.014  0.3782 -0.0350 -0.1931
 9293W        W28040  34.078  10.129  12.283 -0.1065 -0.1206 -0.3239
 9294W        W28041  26.860  14.817   9.136  0.0264 -0.0201  0.0696
 9295W        W28042   9.504  13.972  20.507 -0.0766 -0.0010 -0.1548
 9296W        W28043  31.070  31.194   6.375 -0.1922 -0.0074 -0.5663
 9297W        W28044  24.929  14.665  16.629  0.1238  0.0300 -0.3869
 9298W        W28045  31.963  30.488   0.695 -0.1373  0.3107 -0.0183
 9299W        W28046  26.075  16.590  10.263  0.3376 -0.1872  0.1089
 9300W        W28047   6.233  21.842   1.321  0.3061 -0.0524  0.0065
 9301W        W28048  25.896  20.987   7.724 -0.2687 -0.1687  0.0922
 9302W        W28049  34.014  25.534  14.962 -0.1508  0.0194 -0.3384
 9303W        W28050  12.418  11.252   2.316  0.1209  0.1065  0.0150
 9304W        W28051  19.888  20.136   1.098 -0.0877  0.3569  0.0255
 9305W        W28052   4.912  23.834   5.041  0.1156 -0.1274 -0.0919
 9306W        W28053  13.411  30.410   8.782 -0.2066  0.1143 -0.0272
 9307W        W28054  11.724  14.259  21.555 -0.0532 -0.1225 -0.0076
 9308W        W28055  34.342   5.615  23.096  0.1908  0.1579  0.2146
 9309W        W28056  22.597  13.488  25.881  0.2723 -0.0190 -0.2435
 9310W        W28057  14.887  29.738   6.758  0.2938 -0.1729 -0.0212
 9311W        W28058   9.995  14.230  18.488 -0.2143  0.3062 -0.1808
 9312W        W28059   7.785  31.611  25.324 -0.1832  0.1946 -0.1968
 9313W        W28060  29.429  10.669   8.416  0.0966  0.1163  0.2352
 9314W        W28061  28.559  22.793   6.118  0.0977  0.1901 -0.1819
 9315W        W28062  22.952   1.201   7.302 -0.1836 -0.0708 -0.0497
 9316W        W28063   9.389  12.902  19.738  0.1129  0.0759  0.1029
 9317W        W28064  12.641  35.055   5.441  0.0890 -0.2295  0.3391
 9318W        W28065  15.838  32.019   2.394 -0.1410 -0.0709 -0.2673
 9319W        W28066  12.285  23.601  23.498 -0.2681 -0.1778  0.0092
 9320W        W28067   5.126  25.377   3.040  0.0876 -0.0548 -0.2340
 9321W        W28068  20.892  13.758   3.143 -0.0934  0.0627  0.0343
 9322W        W28069  17.271  19.099  12.250 -0.3650  0.2502  0.0280
 9323W        W28070  14.127  17.530   1.680  0.2798  0.1133 -0.2306
 9324W        W28071   2.755   6.580   3.652 -0.1162 -0.0556  0.0474
 9325W        W28072  26.839  14.971  11.984  0.0969 -0.1921  0.0717
 9326W        W28073  32.917   0.442   5.936  0.1784  0.0558 -0.2834
 9327W        W28074  15.244   3.426  24.752 -0.0446 -0.1508  0.2127
 9328W        W28075  29.387  10.150  13.041 -0.1461 -0.0101 -0.0011
 9329W        W28076  32.132  18.285  11.600  0.2272 -0.4644 -0.0980
 9330W        W28077   6.606   7.781  20.718 -0.2398 -0.1967 -0.1080
 9331W        W28078  12.354   9.871  25.620 -0.0334  0.0450  0.1609
 9332W        W28079  20.063  33.672   4.580 -0.1343 -0.1585 -0.1424
 9333W        W28080  30.503  15.511  11.384  0.0230  0.0232  0.1965
 9334W        W28081  16.874  14.099  20.205 -0.1506 -0.1250 -0.0932
 9335W        W28082  13.798  17.926  13.806 -0.1559  0.0750  0.3697
 9336W        W28083  16.052  12.249  23.890  0.1983 -0.0648  0.0203
 9337W        W28084  25.380  32.637  13.093  0.0181 -0.1514  0.1441
 9338W        W28085   9.254  22.334  11.456  0.2995  0.2889  0.3744
 9339W        W28086  13.360  13.953   2.519  0.0460  0.0208 -0.1402
 9340W        W28087  25.857  23.129  11.360 -0.0092 -0.0410 -0.1077
 9341W        W28088  10.483  30.090   3.561  0.2039 -0.1845  0.1321
 9342W        W28089  24.492   3.147   0.451 -0.1045 -0.2296  0.0352
 9343W        W28090  24.785   5.293  17.673  0.0638 -0.0259 -0.2193
 9344W        W28091  15.342  15.141  21.467 -0.1060 -0.0043 -0.0417
 9345W        W28092   5.704  28.501   7.542 -0.2168 -0.0377  0.0511
 9346W        W28093  15.024  19.264   0.673 -0.2987 -0.2307 -0.0279
 9347W        W28094   2.567  33.975   1.485  0.1331 -0.1226 -0.1398
 9348W        W28095  19.620   2.835   3.739 -0.0171 -0.0551  0.1967
 9349W        W28096  23.386  32.757   6.352 -0.3613  0.0069  0.1689
 9350W        W28097  31.635   8.587  10.035  0.1119  0.0576  0.0651
 9351W        W28098   7.207  29.618  22.563 -0.0886  0.4273 -0.1130
 9352W        W28099  17.930   2.965   5.380  0.2171  0.1837 -0.0439
 9353W        W28100   6.309  20.739   5.570 -0.0934  0.0824  0.1111
 9354W        W28101  23.491  31.831  26.198 -0.0148 -0.0598 -0.4964
 9355W        W28102  14.683  14.688  25.316 -0.1314  0.2338  0.1059
 9356W        W28103  33.261  29.236  18.695 -0.1286  0.1022  0.0693
 9357W        W28104  21.035  25.910  17.582  0.2112  0.2187  0.1342
 9358W        W28105   4.530  20.047  23.052 -0.0629 -0.0955  0.0407
 9359W        W28106  27.423   1.827  18.847  0.0427  0.0902 -0.2376
 9360W        W28107   6.639  14.402  24.338 -0.0042  0.3762 -0.1417
 9361W        W28108  19.454  29.282  18.534  0.4499 -0.1646 -0.1039
 9362W        W28109  23.121  28.785  13.204  0.1898  0.2782 -0.1107
 9363W        W28110  26.236  32.448   1.120  0.0635 -0.1529  0.1344
 9364W        W28111  22.064  30.496   1.045  0.1922 -0.0418  0.1145
 9365W        W28112  22.776  22.913  20.349 -0.0247 -0.0652 -0.2490
 9366W        W28113   4.430   6.897   7.146 -0.0765 -0.0766  0.0401
 9367W        W28114  12.214  16.861  25.562  0.1457 -0.0586  0.3481
 9368W        W28115   4.317  16.655  23.401 -0.1086  0.2181  0.2453
 9369W        W28116   6.894  16.283  21.338  0.0347  0.0262 -0.1366
 9370W        W28117  23.154  30.656  12.454 -0.3208 -0.1337 -0.0205
 9371W        W28118  12.830  14.792   9.443 -0.2711 -0.0516  0.0353
 9372W        W28119  32.599  27.479  12.561  0.3272  0.0294  0.0865
 9373W        W28120  24.989   9.208  21.712 -0.2060  0.0176  0.1942
 9374W        W28121  22.354  19.150  16.091  0.0665  0.0629  0.2643
 9375W        W28122   7.430   5.100  19.264  0.0511  0.0391 -0.1594
 9376W        W28123   5.705   5.934   9.870  0.3397 -0.2478  0.0943
 9377W        W28124   0.319   5.767  12.592 -0.0291  0.0099 -0.2130
 9378W        W28125   8.486  30.851  11.711 -0.0739 -0.0968  0.1234
 9379W        W28126  21.037  34.363  24.602  0.0930 -0.0060 -0.1620
 9380W        W28127  22.229  25.215  22.404 -0.1230  0.0122 -0.2073
 9381W        W28128  23.180  26.140  23.548 -0.1390 -0.2137 -0.3527
 9382W        W28129   0.829  17.621  14.040  0.0686  0.0001 -0.1151
 9383W        W28130  12.192  26.061  11.674  0.0560 -0.0752  0.0809
 9384W        W28131   4.226  27.711  21.630  0.1333  0.0169 -0.0553
 9385W        W28132   7.818  34.566  11.616  0.0487 -0.2688  0.1387
 9386W        W28133  15.468  11.418   4.161  0.1326 -0.2672 -0.2209
 9387W        W28134   5.375  28.590   5.252 -0.0532  0.2715  0.2034
 9388W        W28135  23.612   5.443  15.702 -0.2130  0.0740 -0.1344
 9389W        W28136  16.622  18.359   0.617 -0.4738  0.1469  0.0064
 9390W        W28137  34.813  11.091   9.800 -0.0584  0.2288  0.1805
 9391W        W28138  32.216   0.432  24.405  0.4463  0.1178  0.0601
 9392W        W28139   5.570  16.351  26.101  0.2171 -0.1004  0.2480
 9393W        W28140  23.018  28.481   2.366  0.1027  0.0873  0.2990
 9394W        W28141   1.499  10.943  12.377  0.0757  0.0185 -0.1060
 9395W        W28142  12.344  24.338   3.488  0.2865 -0.2192 -0.0825
 9396W        W28143   4.257   2.996  18.611 -0.1365  0.0769 -0.0408
 9397W        W28144  18.127  34.665   5.372 -0.2433 -0.0108  0.1780
 9398W        W28145  30.940   6.695  19.823  0.0052 -0.0710  0.1931
 9399W        W28146  25.469  21.349  11.420  0.1493  0.2834 -0.0888
 9400W        W28147   1.521  34.225   1.788  0.4371 -0.0627 -0.0816
 9401W        W28148  15.624  15.262   7.813 -0.1565 -0.0284 -0.0878
 9402W        W28149  25.720  11.607  24.944  0.2820  0.0683  0.0142
 9403W        W28150   6.179  22.629  24.840  0.0639  0.4205  0.1462
 9404W        W28151  23.480  31.455  19.788 -0.0967  0.1883  0.0580
 9405W        W28152  11.388  29.433  12.565  0.2615  0.2422 -0.2317
 9406W        W28153  11.023   8.496  19.596 -0.2058 -0.1742 -0.1778
 9407W        W28154  19.398  14.888   0.292  0.1624 -0.0961 -0.2147
 9408W        W28155   7.575  31.257  22.100 -0.1266 -0.0369 -0.0839
 9409W        W28156  27.424  13.918  13.386  0.3826 -0.2292  0.2665
 9410W        W28157  11.286  15.891   0.324 -0.0112 -0.3023  0.0678
 9411W        W28158   4.124  33.762   7.146  0.0192 -0.2649 -0.1811
 9412W        W28159   1.859   5.665  16.083  0.0667 -0.1541 -0.1507
 9413W        W28160  12.898   6.969  20.446 -0.1558 -0.0603 -0.0237
 9414W        W28161  14.807  24.889   6.464  0.4213 -0.0882  0.0606
 9415W        W28162   8.938   6.168   5.633 -0.1304  0.0569  0.1463
 9416W        W28163   8.552  16.267   4.712 -0.2289  0.2932  0.0436
 9417W        W28164  29.536  25.105  25.083 -0.5633  0.2255 -0.1551
 9418W        W28165  23.902  13.400  20.981 -0.0676 -0.3241  0.1941
 9419W        W28166  19.350  25.673  21.164  0.1963 -0.2374  0.0071
 9420W        W28167   5.777  14.011   7.847 -0.0703  0.0200  0.0163
 9421W        W28168   5.609   5.818  23.034 -0.0047 -0.2047  0.0860
 9422W        W28169  12.519  26.983   8.574 -0.0950  0.1857  0.1211
 9423W        W28170  33.182  21.627  18.905 -0.0262  0.1463 -0.4956
 9424W        W28171  25.723  34.249  24.091  0.0468  0.3077  0.0117
 9425W        W28172  33.977  10.316  13.367 -0.3088 -0.0481  0.0700
 9426W        W28173  12.999   8.158  14.240 -0.0787  0.0269 -0.0969
 9427W        W28174   9.947  17.979   9.435  0.1050 -0.0569 -0.2000
 9428W        W28175  18.387  23.687   2.186 -0.0207 -0.4376  0.1452
 9429W        W28176   1.637  30.281   3.697 -0.0331  0.0264 -0.2826
 9430W        W28177   6.278  28.636   3.878 -0.1822  0.0079 -0.2073
 9431W        W28178  22.886  30.398  19.027 -0.1572  0.1032  0.0068
 9432W        W28179   6.127  25.874  25.338 -0.1697  0.0509  0.0809
 9433W        W28180  19.942  30.497  25.423  0.0066  0.2731  0.3200
 9434W        W28181  16.182   9.560  23.848  0.2370  0.1859 -0.1725
 9435W        W28182  32.961  33.613  25.969  0.1513 -0.0803  0.2669
 9436W        W28183  13.060   6.256  24.859 -0.2047 -0.2401 -0.0520
 9437W        W28184  24.775  11.178  21.237  0.1298 -0.2137  0.1826
 9438W        W28185   0.136   5.389  19.049 -0.0177  0.1094 -0.3283
 9439W        W28186  35.163  23.543   2.115  0.3737 -0.1860 -0.2042
 9440W        W28187   6.325   0.550   6.105 -0.2354  0.0909 -0.0828
 9441W        W28188  27.232   4.198   3.661  0.0470 -0.0957 -0.1630
 9442W        W28189  31.043  21.208  22.335 -0.0672  0.3345  0.2524
 9443W        W28190  31.315   7.821  12.491 -0.1521  0.2912 -0.0307
 9444W        W28191  19.458  21.303  17.938 -0.3374  0.4702 -0.0675
 9445W        W28192  27.582  33.833  12.361 -0.2357 -0.1137  0.1031
 9446W        W28193  31.237  13.593  20.736  0.0386  0.0851 -0.2034
 9447W        W28194  32.205   6.316  25.278 -0.2636  0.0213  0.0159
 9448W        W28195  29.989  15.572  21.277 -0.0605 -0.2369  0.0967
 9449W        W28196  12.672  21.661  13.311  0.2264  0.1963 -0.2366
 9450W        W28197  27.533  13.058  16.002  0.2573 -0.2648  0.2631
 9451W        W28198  17.631  32.923  24.395 -0.1556 -0.1400  0.0428
 9452W        W28199   6.223  16.788   1.032 -0.0924  0.0018  0.0391
 9453W        W28200  32.592   0.383   6.323  0.0204 -0.0159 -0.2115
 9454W        W28201  15.968  17.235  20.672 -0.1569  0.0586 -0.3341
 9455W        W28202  12.377   1.452   9.533  0.2719 -0.0391 -0.0074
 9456W        W28203  25.559  14.384  20.484 -0.0610 -0.0124 -0.0005
 9457W        W28204  22.680  28.676  16.333  0.2635 -0.2884 -0.1624
 9458W        W28205   9.821   0.808  12.849  0.2260  0.0375  0.1470
 9459W        W28206  13.989  18.474  14.725 -0.0928  0.1263  0.2252
 9460W        W28207  26.763   4.947   2.490 -0.1073 -0.1475 -0.0573
 9461W        W28208  29.201   8.687  18.287  0.3184 -0.0761  0.0961
 9462W        W28209  10.455  23.668   0.682  0.0863 -0.1053  0.1759
 9463W        W28210  10.691   3.993   5.470  0.0360 -0.1810  0.1871
 9464W        W28211  19.262  13.566   4.468  0.0089  0.1936 -0.0491
 9465W        W28212   7.117  19.877   9.633  0.4439  0.0579  0.0432
 9466W        W28213  14.856   3.933   1.896  0.1137  0.2588 -0.3936
 9467W        W28214  26.582  22.945  23.696  0.1978 -0.3854 -0.1456
 9468W        W28215   3.132  28.830  11.049  0.0185 -0.0350  0.2154
 9469W        W28216   7.091  16.489  12.623 -0.0712  0.2196 -0.4759
 9470W        W28217  31.507  18.119  15.178 -0.2799  0.0597 -0.2096
 9471W        W28218   9.021  33.003  11.880 -0.0218  0.0181  0.0970
 9472W        W28219   3.104  30.477  21.765  0.1282  0.1793 -0.0394
 9473W        W28220  32.579  26.363  24.767  0.1154 -0.0639 -0.3425
 9474W        W28221  23.479  33.263   6.128 -0.0701  0.0335  0.1596
 9475W        W28222  13.003  33.623   9.712 -0.1106 -0.3669  0.0326
 9476W        W28223  28.042  13.002  18.600 -0.0677 -0.0659 -0.1166
 9477W        W28224  14.512  27.293  11.832  0.1251  0.0968  0.0612
 9478W        W28225  23.961  28.287  10.588 -0.1291  0.2147 -0.0413
 9479W        W28226   5.494  25.224  11.125  0.3493  0.2284  0.1755
 9480W        W28227  29.111   9.907  21.176  0.4129 -0.2454  0.1099
 9481W        W28228   5.136  33.171   5.013  0.0653  0.0879 -0.0677
 9482W        W28229  17.734  13.512   0.679  0.0830 -0.0695 -0.1632
 9483W        W28230  29.586  27.697   9.877  0.1954 -0.1988  0.0069
 9484W        W28231   3.826  12.164  14.227 -0.0998 -0.0393 -0.1340
 9485W        W28232  22.557  21.882  20.892  0.2243  0.1719 -0.2315
 9486W        W28233   3.167   8.217  22.843  0.0317 -0.1346  0.0041
 9487W        W28234  25.109   8.385  15.740 -0.1519 -0.3301  0.4951
 9488W        W28235   3.695  25.187   7.377  0.1599  0.3064  0.0736
 9489W        W28236  31.169  20.974  16.481  0.1859  0.0415  0.0765
 9490W        W28237  29.179  17.640  17.012 -0.0729 -0.1782  0.2425
 9491W        W28238   4.251   9.259   6.312 -0.1296 -0.1096  0.2524
 9492W        W28239  11.286  24.029   6.352 -0.0298 -0.1240 -0.1436
 9493W        W28240  14.053   4.969  12.685  0.2151  0.3360 -0.0647
 9494W        W28241  35.235  23.025  21.738  0.1129  0.1409 -0.4857
 9495W        W28242   5.294  20.349  20.350 -0.0038  0.1252  0.0431
 9496W        W28243  16.045  17.710   3.250  0.0824 -0.0944  0.2278
 9497W        W28244   4.569  20.445   2.904  0.1888  0.1372 -0.1102
 9498W        W28245   5.795   0.411   3.301 -0.1219  0.1873  0.0587
 9499W        W28246  31.799   4.058  14.444  0.1845 -0.1136 -0.2358
 9500W        W28247   7.559   1.862  24.184  0.1261 -0.1446 -0.0306
 9501W        W28248  35.175   9.184  25.562 -0.1079  0.0747  0.0964
 9502W        W28249  21.832  24.189  16.819  0.2458  0.1936 -0.2103
 9503W        W28250  13.018  13.655   6.495  0.3392  0.2201  0.0917
 9504W        W28251   8.566  33.147   0.701  0.2330  0.2213 -0.1820
 9505W        W28252  30.923   2.406  20.037 -0.3717 -0.2308  0.3946
 9506W        W28253  30.845  34.416   1.906  0.1564  0.0759 -0.2968
 9507W        W28254  12.999  33.176   8.761 -0.1737  0.0363  0.0778
 9508W        W28255   4.303  24.361  19.699 -0.2029 -0.0667  0.1282
 9509W        W28256   0.669  24.765  25.185 -0.3522  0.1590 -0.0383
 9510W        W28257  20.952  21.734  23.305  0.0794  0.0325  0.1380
 9511W        W28258  22.663  32.517  24.650  0.0400 -0.2790 -0.0028
 9512W        W28259   0.276  25.288  19.911  0.0570 -0.0716  0.0718
 9513W        W28260   0.412  18.327  10.714  0.2385  0.0492 -0.3214
 9514W        W28261  13.172   0.474  21.891 -0.1955 -0.2594 -0.3146
 9515W        W28262  15.884   2.154  22.131  0.0053  0.1872  0.0389
 9516W        W28263  25.425  29.170  16.375  0.1153  0.1227 -0.3074
 9517W        W28264  15.412   6.499   9.111  0.2639  0.1670 -0.2837
 9518W        W28265  17.973  13.090   6.209  0.0269  0.2482 -0.0592
 9519W        W28266  28.011  11.058  18.538  0.4440 -0.2303 -0.0422
 9520W        W28267  27.903  28.049  20.636  0.1890  0.0594 -0.0291
 9521W        W28268  17.146   2.800   0.097 -0.0437 -0.2984  0.1088
 9522W        W28269   2.934   3.779   1.505  0.0553  0.2027  0.0717
 9523W        W28270  16.250  23.361  25.917 -0.1627 -0.2980  0.1998
 9524W        W28271  25.108   4.749  25.024 -0.0743  0.0428 -0.3071
 9525W        W28272  10.526  34.078  21.463 -0.1215  0.1511 -0.0954
 9526W        W28273   2.104  27.731   5.543 -0.4374 -0.0042 -0.0762
 9527W        W28274   0.965  16.188  17.358 -0.0380 -0.0040  0.0900
 9528W        W28275  28.224  12.906  24.911  0.0843 -0.1250 -0.0141
 9529W        W28276  31.557  31.349  24.230  0.2116 -0.0781 -0.1335
 9530W        W28277  18.381  16.073   7.236 -0.0692 -0.4658  0.2665
 9531W        W28278  30.265  28.261   0.130 -0.0866  0.1310  0.1309
 9532W        W28279  29.364  24.291   8.610 -0.5281  0.0177  0.0309
 9533W        W28280  34.566   3.920   2.332 -0.0727 -0.3208  0.0982
 9534W        W28281  29.592  10.619   9.652 -0.0289  0.1377 -0.1537
 9535W        W28282  30.918  34.021  21.539 -0.0146 -0.0505  0.1664
 9536W        W28283  13.299  11.856  20.482  0.3552 -0.2252  0.2638
 9537W        W28284  14.132   2.989   3.251  0.1243 -0.3848 -0.0786
 9538W        W28285  29.928  16.474  22.965 -0.2182  0.0404  0.0694
 9539W        W28286   0.630   4.080  14.223  0.0371 -0.0254  0.0033
 9540W        W28287  10.139   5.180  23.230  0.1479  0.3640 -0.1708
 9541W        W28288  34.873  17.753  16.566 -0.0867  0.0258 -0.0476
 9542W        W28289   6.406   4.528  20.093 -0.3025  0.0117  0.1977
 9543W        W28290  28.454  25.926  25.831  0.0248  0.1113 -0.1650
 9544W        W28291  13.459   1.309   6.586  0.3562  0.1928  0.1823
 9545W        W28292   0.057  18.726  15.476  0.0068 -0.0947 -0.0462
 9546W        W28293  22.212  10.247  22.844  0.1749  0.0734  0.0474
 9547W        W28294  17.979   1.012  24.851 -0.3801  0.0391  0.2306
 9548W        W28295  20.730   9.757  24.471 -0.1090  0.0414  0.2565
 9549W        W28296  17.138  23.753  12.660 -0.0708 -0.0896  0.2129
 9550W        W28297  13.895   3.058   2.118  0.1733  0.3135 -0.0143
 9551W        W28298  21.092   4.877  22.557  0.3379  0.5128 -0.0757
 9552W        W28299   6.420  11.742  25.597  0.2259 -0.1190 -0.0912
 9553W        W28300  30.857  33.756  18.384  0.1602 -0.3587 -0.0982
 9554W        W28301   2.885  16.295  22.920  0.1493 -0.1685  0.1662
 9555W        W28302  30.798  27.638  22.034 -0.0798  0.0738 -0.0260
 9556W        W28303  26.338  18.020  16.774 -0.1014  0.2093 -0.1597
 9557W        W28304  30.201   8.013  14.470 -0.0015  0.1118  0.0014
 9558W        W28305   0.093   8.474   0.782  0.0337 -0.3116 -0.0286
 9559W        W28306  13.794   5.724   0.092 -0.0818  0.0002 -0.2814
 9560W        W28307   4.832   0.276   8.729 -0.3685  0.0241 -0.3874
 9561W        W28308  19.024  19.620   3.482  0.1814  0.1371 -0.2468
 9562W        W28309   3.475  21.447   1.734  0.0994  0.2178  0.1830
 9563W        W28310   3.854   9.654  17.562  0.2491  0.1127 -0.1170
 9564W        W28311  32.924  14.136  18.107  0.2014 -0.2798  0.2256
 9565W        W28312  31.618   9.263  13.357 -0.1546 -0.0150 -0.2482
 9566W        W28313  10.132  18.765  12.294 -0.1861  0.1436  0.0103
 9567W        W28314  34.403  20.382  20.955  0.0122  0.1167 -0.2831
 9568W        W28315  11.673  27.742  17.239 -0.0152 -0.0982 -0.0415
 9569W        W28316  12.599  29.122   2.168  0.1001 -0.0081 -0.1643
 9570W        W28317  34.996  18.494   6.101 -0.1465 -0.1239 -0.0216
 9571W        W28318  25.409  15.723  11.847 -0.0942 -0.1786  0.0213
 9572W        W28319  27.904  17.189  11.320 -0.0718 -0.0670  0.4669
 9573W        W28320   6.910  24.376  11.228  0.3179  0.2094 -0.1918
 9574W        W28321  16.603  19.947  24.294  0.3317 -0.6623  0.3016
 9575W        W28322  20.230   1.038   9.183  0.1261 -0.0574  0.2429
 9576W        W28323  20.597   3.925   3.084 -0.2614  0.2781 -0.1313
 9577W        W28324   3.623  33.136  24.965  0.1675  0.3069 -0.1961
 9578W        W28325  33.250  27.618  11.488  0.0733 -0.1073  0.0491
 9579W        W28326   4.325  14.553  26.113  0.1340  0.2858  0.1471
 9580W        W28327  20.688  31.184   8.590  0.0789  0.2757 -0.0563
 9581W        W28328   0.171   1.557   4.617 -0.1311 -0.2597 -0.1765
 9582W        W28329   1.073   8.973  24.924 -0.0154  0.0073 -0.2786
 9583W        W28330  24.051   3.355   0.455  0.0645 -0.0267  0.1554
 9584W        W28331  22.097  31.087   3.939  0.3187  0.1441 -0.4611
 9585W        W28332  29.825  15.743   4.951 -0.0258 -0.4268  0.2616
 9586W        W28333   0.873  28.284  22.958  0.0511  0.3599  0.0712
 9587W        W28334  29.971  33.219  26.197 -0.1128 -0.1370 -0.3197
 9588W        W28335  34.323  34.944   1.252  0.1084  0.4447 -0.0566
 9589W        W28336  16.948   7.073   5.948 -0.3394 -0.2432 -0.1673
 9590W        W28337  27.974   1.778  18.854 -0.0410  0.0131 -0.2346
 9591W        W28338   8.409  31.830  21.189 -0.1687  0.1738 -0.1810
 9592W        W28339  20.886  21.364   8.174  0.1343 -0.2999  0.3661
 9593W        W28340   6.805  14.020   6.218 -0.0842 -0.1441 -0.0122
 9594W        W28341  31.199   1.274  25.432 -0.0769 -0.0650 -0.0363
 9595W        W28342  10.276  10.088   5.677 -0.1020 -0.0581 -0.0338
 9596W        W28343  10.801  14.694  10.745  0.0297  0.0952 -0.4036
 9597W        W28344   5.696  27.965  26.106  0.1447  0.1796  0.0466
 9598W        W28345  24.252  18.751  24.183 -0.0299 -0.1901 -0.1248
 9599W        W28346  26.994   9.607  17.190  0.4760 -0.2566 -0.0927
 9600W        W28347  16.685   3.796  24.326 -0.2522 -0.1094  0.0114
 9601W        W28348   3.974  25.180   7.777 -0.0600  0.3057  0.1800
 9602W        W28349  34.219  25.826  20.435  0.0950 -0.3028 -0.0300
 9603W        W28350  29.045  18.242  16.265  0.1198  0.1660  0.1574
 9604W        W28351   9.703  16.223   3.813  0.0140 -0.2837  0.1908
 9605W        W28352  11.559   5.125   3.175  0.0341 -0.0886  0.1681
 9606W        W28353  10.773   2.232  24.771 -0.0709 -0.0672 -0.1774
 9607W        W28354  10.080  25.096  14.874 -0.1258  0.0292  0.2193
 9608W        W28355  12.529  12.360  12.111 -0.1325 -0.2651  0.2239
 9609W        W28356  26.626  24.318  13.675 -0.0292 -0.1291  0.3361
 9610W        W28357   1.155  35.005   1.358 -0.2650  0.1595 -0.3088
 9611W        W28358  30.248   2.637   1.591 -0.1986  0.1371 -0.1774
 9612W        W28359  34.877   4.349  22.254  0.0697  0.1036 -0.0073
 9613W        W28360  24.982  25.539  19.510 -0.3057  0.0785 -0.0476
 9614W        W28361  26.665  17.927  17.240 -0.1172 -0.2035  0.1215
 9615W        W28362   2.060   9.871   0.897 -0.0338  0.2169 -0.1608
 9616W        W28363  10.585  16.804   4.311  0.0108 -0.0417 -0.0336
 9617W        W28364   7.776   2.949  19.907 -0.0393  0.0305 -0.0773
 9618W        W28365  10.403  25.381   4.130 -0.1826  0.2485 -0.1964
 9619W        W28366  13.924  10.704   4.926  0.1734  0.1769  0.1016
 9620W        W28367  26.388  34.399  16.189  0.1811 -0.1642 -0.0858
 9621W        W28368  23.127  29.809   1.198  0.0958 -0.0573 -0.3070
 9622W        W28369  14.142  15.339   8.039  0.2549  0.2251 -0.3594
 9623W        W28370  28.020  18.036  11.502  0.0896  0.0028 -0.0822
 9624W        W28371   9.858  35.138  12.218 -0.2889  0.1540 -0.0987
 9625W        W28372  25.137  23.613   0.684 -0.0806  0.0316  0.0125
 9626W        W28373  27.767  25.053  19.831  0.2635  0.0827  0.0831
 9627W        W28374   7.111  20.791   7.094 -0.0136 -0.1508  0.0228
 9628W        W28375  29.638  13.522  19.533  0.0621  0.0121 -0.1082
 9629W        W28376  26.159   1.145   4.865  0.0217  0.0984  0.2220
 9630W        W28377  29.776  12.956   9.312 -0.2094  0.1212  0.1058
 9631W        W28378   8.488  31.252   7.318 -0.0464 -0.1404 -0.1530
 9632W        W28379  15.683  19.810  15.035  0.2224  0.0852 -0.0882
 9633W        W28380  17.594   5.604   3.002 -0.0475 -0.0997  0.3420
 9634W        W28381  32.108  19.863   6.153 -0.1806 -0.0531 -0.1904
 9635W        W28382  14.130  14.073  24.127  0.1643 -0.0945 -0.1826
 9636W        W28383  29.015  14.843   5.047 -0.2793 -0.2813 -0.1166
 9637W        W28384  10.833  20.961  12.289 -0.2117 -0.2811  0.0331
 9638W        W28385  29.686   8.118  11.303  0.1758  0.0371  0.4044
 9639W        W28386  10.239  24.809  17.989  0.0341 -0.0616  0.3385
 9640W        W28387  27.961   0.928  14.874  0.0272 -0.1575 -0.1098
 9641W        W28388  18.043  34.336   4.509 -0.4370  0.0582 -0.2228
 9642W        W28389  11.389  26.096  11.723 -0.1017  0.1977  0.0672
 9643W        W28390  34.439  17.556  19.114  0.0699  0.2406  0.1168
 9644W        W28391  15.431   6.173  12.088  0.0046  0.1197  0.2009
 9645W        W28392   0.980  32.890   1.312  0.0005 -0.0921  0.3081
 9646W        W28393  33.752   8.483  23.905  0.0525 -0.1049  0.0569
 9647W        W28394  26.321  16.337  21.098 -0.0381  0.2494  0.0745
 9648W        W28395  16.730   0.505  25.542 -0.2377  0.1320 -0.1114
 9649W        W28396  31.794  31.098  13.455  0.0984 -0.0777 -0.4480
 9650W        W28397  21.900  19.911   4.365  0.0442  0.1762  0.2072
 9651W        W28398  13.151   3.887   4.931  0.1010 -0.1865  0.2088
 9652W        W28399  14.237  12.200  20.596 -0.0208  0.3198 -0.1954
 9653W        W28400  32.966  21.656  23.228 -0.1084 -0.3540  0.1700
 9654W        W28401   7.001  29.958   6.782 -0.3776  0.2626 -0.0909
 9655W        W28402  17.581  30.727  24.911 -0.3489  0.0939  0.0380
 9656W        W28403  34.793   0.991   7.089  0.2544  0.0479  0.0076
 9657W        W28404  32.408  28.170  21.512 -0.2038  0.1170  0.1218
 9658W        W28405  31.498   6.828   2.657  0.0697 -0.1181 -0.1284
 9659W        W28406  27.805  30.728   1.532  0.0589  0.1474 -0.1190
 9660W        W28407  10.858  33.516  23.601  0.2395 -0.0619 -0.2334
 9661W        W28408  32.240  17.840  23.908 -0.2909 -0.1283  0.0018
 9662W        W28409   8.170  31.593   3.003  0.1539 -0.0467  0.0159
 9663W        W28410  15.948   4.787   7.696  0.0129 -0.3824 -0.0852
 9664W        W28411   9.532   4.671  24.061  0.0565  0.0188  0.0473
 9665W        W28412  33.868   9.719  12.679 -0.2206  0.4122 -0.1859
 9666W        W28413  20.255  15.362   0.766  0.2686  0.2381 -0.0959
 9667W        W28414  21.079  30.870   5.672 -0.0921 -0.1093 -0.0207
 9668W        W28415  25.858  31.152  25.990 -0.0536 -0.2035 -0.0157
 9669W        W28416   0.469  12.434  16.307  0.0668  0.1324  0.3319
 9670W        W28417  20.684  11.267   2.041  0.1032 -0.3078  0.0721
 9671W        W28418  15.585  32.075  23.776 -0.1436 -0.1545  0.0150
 9672W        W28419  22.916  13.204  19.465 -0.0242  0.2545 -0.1494
 9673W        W28420  24.395  21.973  18.544 -0.1071 -0.1096 -0.0792
 9674W        W28421   4.702  25.986  20.947  0.1822  0.1658  0.1704
 9675W        W28422   7.435   5.037  24.999  0.0035 -0.1534 -0.1029
 9676W        W28423  29.697  32.243   0.164  0.0773  0.0158  0.3387
 9677W        W28424  15.955   1.967   0.265  0.1642  0.1978 -0.1415
 9678W        W28425  35.294   4.805  24.566 -0.0013 -0.0773 -0.4083
 9679W        W28426  13.493  25.144   6.059  0.1969 -0.2473  0.0024
 9680W        W28427  24.592  21.647  20.869 -0.3524  0.2194 -0.0194
 9681W        W28428  12.578  16.954   8.393 -0.3748  0.3711 -0.2719
 9682W        W28429  11.891  31.748  15.933  0.0041  0.1061 -0.1865
 9683W        W28430  19.918  16.803  18.671 -0.0556 -0.1579 -0.0822
 9684W        W28431  21.055   6.124  23.706  0.0102  0.0258 -0.0770
 9685W        W28432  20.005   8.541  24.736  0.0780 -0.2434  0.1359
 9686W        W28433   8.538   9.181   4.173  0.2899 -0.2735  0.3046
 9687W        W28434  12.695  15.498   8.609  0.1311  0.0082  0.0807
 9688W        W28435  23.741  20.605  23.152  0.1671  0.1956 -0.0713
 9689W        W28436  10.577  12.782  12.776  0.0722 -0.3630  0.2192
 9690W        W28437  10.617  22.339  17.080  0.0290 -0.3285 -0.1055
 9691W        W28438   7.535   8.279  23.778 -0.1370 -0.2694 -0.0563
 9692W        W28439   6.418  31.508  10.437 -0.1002 -0.3226 -0.0805
 9693W        W28440  20.759   6.432   3.680  0.2364 -0.0022 -0.0379
 9694W        W28441  17.877   4.186  25.946  0.1561 -0.0577 -0.1991
 9695W        W28442   0.897  30.621  22.721  0.1422 -0.1138  0.1497
 9696W        W28443   2.061  27.079   4.838  0.3185  0.0014  0.3630
 9697W        W28444  11.854  10.137   3.939 -0.0832 -0.0974  0.0382
 9698W        W28445  26.792   8.835   9.756 -0.3063 -0.1839  0.1145
 9699W        W28446  31.802  32.906   3.658  0.2412  0.2609 -0.2450
 9700W        W28447  32.031   9.421  18.307  0.2140  0.2296 -0.2717
 9701W        W28448   7.673  25.752   6.311  0.3634 -0.1866 -0.2446
 9702W        W28449  33.803   7.296  18.313 -0.2749  0.0076  0.0347
 9703W        W28450   3.388  12.706  23.881 -0.4312 -0.0027  0.3403
 9704W        W28451  19.686  15.118   0.608  0.1473  0.1102  0.1645
 9705W        W28452   3.278  23.442   5.811 -0.0407  0.1323 -0.3605
 9706W        W28453  21.829  23.316  19.628  0.0935 -0.3860  0.0523
 9707W        W28454  24.117  20.932  20.288 -0.0437  0.0053  0.0072
 9708W        W28455  25.028  27.757  17.487 -0.0859  0.3377 -0.1044
 9709W        W28456  14.114   5.313  11.649 -0.2137 -0.1775  0.2138
 9710W        W28457  22.680  34.684   2.183 -0.0410 -0.0563  0.0339
 9711W        W28458   3.244   2.520   5.662  0.0275  0.2279  0.1155
 9712W        W28459   1.065  33.075  24.620  0.0337  0.1311 -0.2432
 9713W        W28460  14.979  33.494   9.975 -0.0084  0.1302 -0.0231
 9714W        W28461   2.234  33.333  20.282  0.2352  0.1130  0.3035
 9715W        W28462  26.966  13.488  17.205  0.1334  0.0771  0.1491
 9716W        W28463   3.892   5.416  17.553  0.2857  0.0894  0.1313
 9717W        W28464   0.335   7.178  24.106  0.0693 -0.4460 -0.0000
 9718W        W28465  22.079  21.433  24.304 -0.1419 -0.0516 -0.0068
 9719W        W28466  18.750   5.176   8.900 -0.1721  0.0171  0.0386
 9720W        W28467  28.232  33.228  14.972  0.0679 -0.2050 -0.2965
 9721W        W28468   0.897   3.622  22.941 -0.0757  0.0650  0.1234
 9722W        W28469  21.354  20.728  20.551  0.1312 -0.1080  0.0853
 9723W        W28470  29.844  31.162  21.823  0.1660 -0.0102  0.0758
 9724W        W28471  22.800  13.239   3.105 -0.1714 -0.2023 -0.0476
 9725W        W28472  18.151  34.197   3.382 -0.0925 -0.2652  0.1001
 9726W        W28473  29.200   4.195  20.230 -0.0066 -0.0893 -0.1920
 9727W        W28474   3.341  10.081  22.659 -0.0811  0.2758  0.1658
 9728W        W28475  21.731  29.549   3.294 -0.1714  0.0970 -0.0262
 9729W        W28476  19.228  34.415  20.193 -0.1556 -0.0189  0.0633
 9730W        W28477  31.512  27.875  25.558  0.1898 -0.2342 -0.1102
 9731W        W28478  19.403  15.207  26.092  0.1873  0.1025  0.3361
 9732W        W28479  30.752  13.769  10.688  0.0789 -0.2318 -0.0798
 9733W        W28480  10.336  18.433  13.285 -0.1333  0.1515 -0.2369
 9734W        W28481   0.276  34.681   6.687  0.3507 -0.0809  0.0165
 9735W        W28482   2.526  11.723  22.326 -0.2113 -0.1687  0.0102
 9736W        W28483  32.137  32.306  23.278 -0.1054 -0.1361 -0.1029
 9737W        W28484  16.837  17.857   7.349  0.0513 -0.1895 -0.0075
 9738W        W28485  18.583  30.190   5.128 -0.0157  0.6324  0.2450
 9739W        W28486  27.431   4.878   3.121 -0.1408 -0.1040  0.1309
 9740W        W28487  22.792  34.015  12.242 -0.1746 -0.3582  0.1590
 9741W        W28488  20.202  29.321  19.239  0.0184 -0.3066  0.2162
 9742W        W28489  24.671  13.424   9.255 -0.0840 -0.1743  0.3907
 9743W        W28490   3.986  35.151  20.484  0.0891 -0.0851  0.0663
 9744W        W28491  11.876   2.875  11.587  0.2028 -0.0123 -0.0240
 9745W        W28492  31.088   5.904  22.802 -0.0530  0.1274  0.1111
 9746W        W28493  24.769   1.434  15.225 -0.1414  0.1114  0.0914
 9747W        W28494  25.807  31.050  12.281  0.0703  0.0508 -0.1115
 9748W        W28495   8.895   4.419   0.166  0.1239  0.0399  0.0301
 9749W        W28496   5.322  32.191  21.545  0.1272 -0.2092 -0.3268
 9750W        W28497  15.063  13.983  25.729 -0.1652  0.2403 -0.0849
 9751W        W28498  13.213   7.630   8.576 -0.2425  0.4315  0.0470
 9752W        W28499   3.447  18.993   2.547 -0.2630  0.0015 -0.2035
 9753W        W28500   2.428  24.297  22.519  0.0210  0.0104 -0.2532
 9754W        W28501  10.296   6.181   7.681  0.3123 -0.0076  0.3469
 9755W        W28502   3.181  30.475   3.935  0.0478  0.1509 -0.0896
 9756W        W28503  13.883  24.059  10.167  0.0170 -0.0057  0.2958
 9757W        W28504   8.874  22.540  25.152  0.0779 -0.0291 -0.1885
 9758W        W28505  20.216   4.862   0.725 -0.1859 -0.1014  0.4685
 9759W        W28506  18.188   4.358   1.941 -0.2659 -0.1371 -0.0853
 9760W        W28507  14.231   3.358   8.939 -0.0322  0.0721 -0.0310
 9761W        W28508  26.581   0.583  16.116 -0.4335  0.2518 -0.0211
 9762W        W28509  31.452  16.433  15.918 -0.0184  0.2535  0.0106
 9763W        W28510   7.888  15.918   0.234 -0.0384  0.0123 -0.1686
 9764W        W28511  30.009  14.144  10.175  0.3670  0.0149 -0.2199
 9765W        W28512  28.457   8.669  15.245 -0.0005  0.1092 -0.1574
 9766W        W28513   2.283  27.638   0.458 -0.3947 -0.0196  0.3516
 9767W        W28514  30.905  15.047  15.276 -0.1348 -0.3403 -0.1964
 9768W        W28515  27.103   4.492   1.715 -0.0183  0.3588 -0.0863
 9769W        W28516  24.509  13.420  18.726 -0.1190  0.3321 -0.1144
 9770W        W28517   9.497  17.176  10.800 -0.0152  0.1968 -0.1809
 9771W        W28518  10.064   2.126  10.366 -0.2184  0.0581  0.1339
 9772W        W28519  21.690  33.837  15.794 -0.4328 -0.0225 -0.0748
 9773W        W28520  24.092  11.871  18.975 -0.3419  0.1880  0.2590
 9774W        W28521  30.403   9.115   0.822  0.0643  0.5229 -0.1460
 9775W        W28522   6.539   4.061   8.753  0.3135 -0.1060  0.0361
 9776W        W28523   8.876  26.419  14.427  0.3046  0.1803 -0.1041
 9777W        W28524  33.690  13.702  13.310 -0.1936  0.2496 -0.2239
 9778W        W28525  26.115  25.358  20.351  0.0315 -0.1393 -0.0340
 9779W        W28526   4.211  33.948   9.023 -0.0719 -0.2194 -0.2218
 9780W        W28527  30.519  22.222  12.775 -0.1229  0.2186 -0.2002
 9781W        W28528  16.880  26.125  25.183  0.1732 -0.1762 -0.0563
 9782W        W28529  29.397   7.585  24.390 -0.0324  0.1329  0.0246
 9783W        W28530   7.658  20.747   6.779  0.3125  0.0636 -0.0807
 9784W        W28531  19.708   3.605  20.728 -0.0985 -0.2166  0.3731
 9785W        W28532   5.688   1.978   9.531 -0.0998 -0.0847  0.0450
 9786W        W28533   1.901  26.507   0.644 -0.1624 -0.0440  0.0520
 9787W        W28534   8.977  10.981  22.482 -0.3153 -0.0076  0.0902
 9788W        W28535  15.153  11.058   4.302  0.1182  0.4200  0.0469
 9789W        W28536  29.007   0.534  25.552 -0.0970 -0.2979 -0.1521
 9790W        W28537  19.978   3.064   6.871 -0.1104 -0.0991 -0.0757
 9791W        W28538  30.130   9.491  10.226  0.2883  0.1475 -0.0596
 9792W        W28539  29.557  14.330  10.316 -0.5766  0.0085 -0.2355
 9793W        W28540  21.885  32.460  26.037  0.0500  0.1926  0.0905
 9794W        W28541  12.278  31.276  25.603  0.1360  0.0155 -0.1046
 9795W        W28542  25.618  11.059  14.116  0.0893 -0.0063  0.2448
 9796W        W28543  33.865   9.074   1.246  0.0405  0.2302  0.1081
 9797W        W28544  14.936  14.585  20.190 -0.3575 -0.1071 -0.3438
 9798W        W28545  27.042  14.710  23.506 -0.0324 -0.2382  0.0433
 9799W        W28546  23.945   9.757  20.170  0.0772 -0.1708  0.1476
 9800W        W28547  20.756  33.228   2.726 -0.1289  0.0467 -0.0577
 9801W        W28548  14.071  22.042   7.117 -0.1539 -0.1821 -0.1172
 9802W        W28549  27.319  30.694  21.161  0.1159 -0.1571 -0.2239
 9803W        W28550  16.163  12.293  23.062  0.1701 -0.0118 -0.0659
 9804W        W28551  11.105  21.930  13.721 -0.0641  0.0883 -0.1018
 9805W        W28552  27.368   6.293  16.299 -0.0842 -0.1691  0.0618
 9806W        W28553  32.939  33.952  16.359 -0.0669  0.1108 -0.2168
 9807W        W28554   8.090  24.421  12.181  0.3549  0.0297 -0.0687
 9808W        W28555  12.300  26.002   8.425 -0.1470  0.2095  0.1386
 9809W        W28556   6.718  20.111  19.239  0.1153 -0.0289 -0.1431
 9810W        W28557  25.564  13.009   1.265 -0.4076  0.0011  0.0211
 9811W        W28558  12.522  19.967   1.855  0.0682  0.1591 -0.1046
 9812W        W28559  33.469  12.527  25.933 -0.0596 -0.0380 -0.0608
 9813W        W28560   9.551   6.049   5.213 -0.2135 -0.0350  0.0965
 9814W        W28561  20.528  20.239   7.198 -0.5658  0.1210 -0.1544
 9815W        W28562  13.509  23.757   4.892  0.0971 -0.3288 -0.0245
 9816W        W28563  31.727  10.846   7.867 -0.4769 -0.0273  0.5427
 9817W        W28564  32.950  30.641  16.626 -0.3810 -0.3647  0.0523
 9818W        W28565  15.660  13.416  21.708 -0.0090 -0.1314 -0.0099
 9819W        W28566   5.043  32.812   1.355  0.1984 -0.1450  0.1105
 9820W        W28567   7.899   4.735  19.828  0.0400  0.2897  0.2659
 9821W        W28568   3.805  13.204  16.880  0.3650 -0.1381  0.1560
 9822W        W28569  28.356  13.278  14.720 -0.2236  0.4226 -0.1466
 9823W        W28570   7.996   3.186   8.639  0.0778  0.2499  0.1201
 9824W        W28571   2.962   7.062  19.976 -0.0448  0.2814 -0.0388
 9825W        W28572   5.529   5.307   6.700 -0.0326 -0.3199 -0.2344
 9826W        W28573  26.347  26.577  14.307  0.3173  0.1169 -0.0557
 9827W        W28574  30.683  10.441  24.577 -0.0214 -0.2054  0.0236
 9828W        W28575  21.605  33.271   3.250  0.0846 -0.0954 -0.1318
 9829W        W28576   1.612  34.625  24.706  0.1401  0.0877  0.0701
 9830W        W28577   7.520  34.291  14.279 -0.0382  0.1762  0.1226
 9831W        W28578  29.776  33.043  14.115 -0.0907  0.4587 -0.0915
 9832W        W28579  28.476  12.258   8.368  0.0878  0.3002 -0.1920
 9833W        W28580  13.156  17.225  11.463  0.1507 -0.2006  0.2105
 9834W        W28581  35.375   7.268   2.478 -0.2679  0.0611 -0.0537
 9835W        W28582  20.389   6.966   8.013 -0.2273 -0.1198  0.1477
 9836W        W28583  32.183   4.400  21.431 -0.0543  0.0178  0.2174
 9837W        W28584  20.388  13.249   2.491 -0.0117  0.1000 -0.0013
 9838W        W28585  31.769  21.881   8.111  0.0355  0.1344 -0.0865
 9839W        W28586  23.482  30.999  12.328 -0.0789  0.0129 -0.2237
 9840W        W28587  22.220  27.632  18.344 -0.0090 -0.0780 -0.1350
 9841W        W28588  24.313  28.408   0.206 -0.3089 -0.0465 -0.0560
 9842W        W28589  21.801   7.448  19.650 -0.0674 -0.1933 -0.2305
 9843W        W28590   7.242  27.952  23.247  0.0413  0.0780  0.1524
 9844W        W28591  13.315  22.720   9.875 -0.1534  0.0859 -0.2538
 9845W        W28592  32.407  20.259  13.639  0.0722  0.1005 -0.2581
 9846W        W28593  12.514  29.599  23.948 -0.0248 -0.0630  0.2080
 9847W        W28594  26.205  34.326   1.145 -0.3164  0.0801 -0.4564
 9848W        W28595  28.284  12.778   7.040  0.0747 -0.0116 -0.1436
 9849W        W28596   6.611  30.922  10.310 -0.0513  0.0690  0.0023
 9850W        W28597  21.626  34.689   1.979  0.1764  0.0320 -0.2701
 9851W        W28598  12.244  28.620   3.182 -0.7060 -0.1977  0.0488
 9852W        W28599  15.980  24.046   0.198  0.2191 -0.0019 -0.0204
 9853W        W28600  33.722  11.497  19.090  0.3278 -0.3805 -0.1817
 9854W        W28601  28.372   6.305  11.540  0.0221 -0.1130 -0.3602
 9855W        W28602  26.168  30.255  21.798 -0.1756  0.0757 -0.2329
 9856W        W28603  12.904   0.855   2.945  0.1361 -0.1233  0.0830
 9857W        W28604  19.017   7.643   5.160 -0.2360 -0.1609  0.1830
 9858W        W28605  27.153  23.144  20.184  0.1755  0.1161  0.3641
 9859W        W28606  32.230  12.643  11.171  0.1471  0.0965 -0.2111
 9860W        W28607  24.635  28.730   0.425  0.0263  0.0941 -0.0211
 9861W        W28608  10.719   4.321   2.599 -0.3026 -0.3397  0.1104
 9862W        W28609  17.310  27.935   8.820 -0.0879 -0.0270 -0.0380
 9863W        W28610  30.058  31.193  25.484 -0.0281  0.1360  0.0321
 9864W        W28611  34.198  11.627  19.978 -0.0441  0.0642  0.1660
 9865W        W28612  14.775  13.969  26.209 -0.0613 -0.4217  0.0506
 9866W        W28613  30.522   1.628  13.458  0.1207 -0.1384  0.1952
 9867W        W28614  20.048  15.817   3.343 -0.1624 -0.0327 -0.0633
 9868W        W28615  24.682   4.381  15.770 -0.1633 -0.0919 -0.2190
 9869W        W28616   9.702  19.238   3.188  0.1372  0.0704 -0.1496
 9870W        W28617  10.554  19.759   4.236  0.1224  0.1900 -0.0110
 9871W        W28618  26.329   1.911  24.748 -0.0031 -0.3676  0.0131
 9872W        W28619  31.002  17.052   5.294  0.1260  0.0489  0.1273
 9873W        W28620  33.604  16.296  24.447 -0.1743  0.0253  0.0362
 9874W        W28621  31.744   6.339  13.391  0.0531  0.0175 -0.1342
 9875W        W28622  20.485  34.277   0.511 -0.1416  0.3203 -0.1226
 9876W        W28623  18.988   2.665  25.466 -0.1353 -0.4410 -0.1006
 9877W        W28624  33.486  16.782  19.215  0.2187 -0.1757  0.2831
 9878W        W28625   4.592   2.930  19.727 -0.1545  0.1776 -0.0052
 9879W        W28626  24.823  11.769  19.722 -0.1082  0.0560  0.1804
 9880W        W28627   3.352   4.201  18.076  0.0783 -0.1418  0.2522
 9881W        W28628  30.969  13.036  13.093 -0.1920  0.0679  0.3139
 9882W        W28629  13.036   7.530  12.961 -0.0736  0.0671  0.0321
 9883W        W28630  17.438  24.148   5.310 -0.0987  0.1611 -0.0994
 9884W        W28631  20.282  32.845   1.033 -0.1729  0.1428 -0.1454
 9885W        W28632  27.105  34.351   3.764  0.1464  0.0061  0.1511
 9886W        W28633   5.532  23.898  25.101 -0.2060 -0.1145  0.0895
 9887W        W28634  23.341   0.863  13.456 -0.0572 -0.3547 -0.0964
 9888W        W28635  16.397  29.452  22.580  0.1829  0.0945  0.1051
 9889W        W28636  29.407  21.656  22.779  0.0338 -0.2582  0.0796
 9890W        W28637  28.087  25.491  16.555  0.2465  0.0639  0.2877
 9891W        W28638   1.721  12.211  20.951 -0.1581 -0.0746 -0.2582
 9892W        W28639   3.553   2.920  21.462 -0.1085  0.1831  0.1063
 9893W        W28640   3.148   6.141  20.562 -0.1588  0.1861  0.2671
 9894W        W28641   6.517  13.818   3.560  0.1220  0.1535  0.1846
 9895W        W28642  14.024  13.966  11.538 -0.1213  0.0069 -0.0746
 9896W        W28643  34.779  17.489   7.687 -0.2909  0.2213  0.0476
 9897W        W28644  17.468   7.658   6.231 -0.2460  0.1961  0.0702
 9898W        W28645   5.940  23.026   0.046  0.1770  0.1050 -0.4683
 9899W        W28646  10.707  24.036  14.308  0.1760 -0.0853 -0.3244
 9900W        W28647  29.716  31.909  18.024 -0.1662  0.2402  0.3477
 9901W        W28648   9.317   1.778  13.191  0.0162 -0.2830  0.2589
 9902W        W28649  26.247  25.687  24.675  0.0198 -0.2118  0.3436
 9903W        W28650  26.687   8.454   9.439  0.0043  0.1325 -0.1104
 9904W        W28651  32.156  10.043  17.523  0.0575  0.1548  0.0870
 9905W        W28652  13.112   4.831  19.621  0.2837 -0.2153  0.1665
 9906W        W28653  23.535   7.936  24.993 -0.1297 -0.1461  0.1335
 9907W        W28654   8.117   6.221  26.118 -0.0449  0.2176  0.1330
 9908W        W28655  27.347  21.887  14.998 -0.1851 -0.0992 -0.0930
 9909W        W28656  32.221   2.137  18.449  0.0848  0.4567 -0.2938
 9910W        W28657  32.726  22.159  12.417  0.2108  0.0751 -0.1151
 9911W        W28658  19.851   3.380   9.047  0.1021  0.2786  0.2435
 9912W        W28659  24.664  11.652  19.191 -0.0999  0.1786  0.1206
 9913W        W28660  26.504  30.375   4.800 -0.0150 -0.3508 -0.3116
 9914W        W28661  10.935  16.405  22.686 -0.1476 -0.1778  0.0676
 9915W        W28662  12.601   8.123  13.453 -0.0230 -0.0911  0.1191
 9916W        W28663  19.590  22.208   9.953 -0.0138  0.1761 -0.0453
 9917W        W28664   0.756  11.961  19.069 -0.0917  0.2238 -0.3258
 9918W        W28665  20.968  10.266  21.711 -0.0166 -0.3156  0.1037
 9919W        W28666   3.608  15.441  24.055  0.1584  0.0311 -0.0966
 9920W        W28667  21.821  31.110  25.404 -0.0139 -0.2168 -0.1223
 9921W        W28668  16.463   7.198   2.631  0.0176  0.1511  0.0511
 9922W        W28669  18.250  16.962   2.809 -0.1136  0.0118 -0.1277
 9923W        W28670   8.304  18.834  25.880  0.2516 -0.0963 -0.0597
 9924W        W28671   5.977   6.643   9.580  0.2011  0.2435 -0.1780
 9925W        W28672  32.265   5.477   2.462  0.1015  0.0781  0.1049
 9926W        W28673  10.146  22.427  12.329 -0.1602 -0.0159  0.0139
 9927W        W28674  15.341  22.490   2.178  0.4445 -0.1228  0.0090
 9928W        W28675   4.791  31.097  20.405  0.3749 -0.1844 -0.0052
 9929W        W28676  16.770  10.844   6.982  0.0630 -0.1485 -0.0593
 9930W        W28677   5.745  16.558  18.422  0.1346 -0.0531  0.0362
 9931W        W28678  23.862   8.138  20.459 -0.3466 -0.1127 -0.1633
 9932W        W28679   5.164  30.957   2.163 -0.0091  0.0428  0.0716
 9933W        W28680   0.610  14.591  18.198  0.3175 -0.0836  0.1669
 9934W        W28681  26.870  29.255  23.853 -0.0565  0.2354 -0.2060
 9935W        W28682  33.692   7.083  24.492  0.1086 -0.0662 -0.2901
 9936W        W28683  31.738  18.725  16.339  0.1239 -0.0892 -0.2592
 9937W        W28684  32.138  11.399  15.132  0.1619  0.2503 -0.2064
 9938W        W28685  16.941   3.311  20.761 -0.2454  0.0249  0.1693
 9939W        W28686  28.517   7.145  14.273  0.0626  0.2421 -0.2645
 9940W        W28687  34.231   4.389   5.470 -0.0412  0.0710  0.0572
 9941W        W28688   0.106   4.010  25.716  0.0310 -0.1054 -0.0269
 9942W        W28689  10.624  20.170  15.486  0.1057  0.0868 -0.2193
 9943W        W28690  21.765  17.784  15.951  0.3949  0.0521  0.0851
 9944W        W28691  11.593  17.071   6.299  0.4159  0.0484 -0.3083
 9945W        W28692   0.059  16.840  24.014 -0.0338 -0.0347  0.0454
 9946W        W28693  16.197  28.288  25.838 -0.4954 -0.2218  0.2472
 9947W        W28694  27.240  14.455  15.528  0.1738 -0.2185 -0.2481
 9948W        W28695  33.972  24.936  15.739  0.1299 -0.0965 -0.1943
 9949W        W28696  23.634  30.308  15.987  0.1365 -0.1998  0.2312
 9950W        W28697  28.656  21.946   8.212  0.0093  0.3188 -0.1191
 9951W        W28698  28.477  32.422  23.400  0.2605 -0.0745  0.0166
 9952W        W28699  11.698  13.270  24.466 -0.1415 -0.2929  0.0448
 9953W        W28700  32.011  13.705  25.954  0.0809 -0.0693 -0.3662
 9954W        W28701  33.539  14.306  19.925 -0.1996 -0.0696 -0.1998
 9955W        W28702  14.715   8.774  18.196  0.0641 -0.0956 -0.2081
 9956W        W28703   1.870   3.384  21.997 -0.0073  0.4493 -0.0501
 9957W        W28704  32.931  26.479  18.627  0.1639  0.0381  0.1967
 9958W        W28705   4.328  18.322  21.775  0.2238 -0.2494 -0.0845
 9959W        W28706  27.679  26.507  18.051  0.1528  0.1933  0.2837
 9960W        W28707  18.081  20.916  23.658 -0.0280  0.0760 -0.1911
 9961W        W28708  25.460   4.251  18.923 -0.2289  0.1729  0.0082
 9962W        W28709  21.659  33.755  25.687 -0.1078  0.0832  0.0359
 9963W        W28710  27.703   2.848   2.073  0.0216  0.0570 -0.1332
 9964W        W28711  20.342   5.012   2.293  0.2531 -0.0774  0.2779
 9965W        W28712  21.125   6.133   3.788 -0.0466  0.1303 -0.0514
 9966W        W28713  12.676   7.978  10.738  0.2698  0.0664  0.0545
 9967W        W28714   3.720  29.514  12.546 -0.0972 -0.0788  0.3998
 9968W        W28715  23.728   4.547  21.988 -0.3043  0.4333  0.1677
 9969W        W28716  16.448  29.393  24.576 -0.2212 -0.3210  0.2712
 9970W        W28717  24.709   5.913  17.424 -0.5317 -0.0240 -0.0861
 9971W        W28718   3.173   4.279  20.657  0.1394  0.2936  0.2817
 9972W        W28719  34.077  20.476  18.533  0.0344 -0.0546  0.1136
 9973W        W28720   7.823  19.398   8.661  0.1033 -0.4493  0.2334
 9974W        W28721  11.420  19.783   3.055  0.1330 -0.2117  0.0380
 9975W        W28722   3.085  19.353   4.272 -0.4263 -0.0225 -0.1192
 9976W        W28723  28.301   2.815  13.448 -0.1213  0.4900 -0.1932
 9977W        W28724   4.509  33.878   6.096  0.1374  0.1307 -0.1469
 9978W        W28725  33.226   2.039  19.196 -0.0230 -0.2030  0.0034
 9979W        W28726   1.408   0.260   0.042 -0.0405 -0.1172  0.0326
 9980W        W28727  10.197   2.923  23.668 -0.0852  0.1622 -0.3631
 9981W        W28728   3.517   0.339  23.471  0.2222 -0.0516  0.0359
 9982W        W28729  29.173  23.688   8.491 -0.0205 -0.2851  0.0305
 9983W        W28730   1.394   3.603   6.208 -0.1598  0.1373  0.3116
 9984W        W28731   7.440   3.508  24.956 -0.1532  0.4246 -0.0088
 9985W        W28732  20.548  15.943  18.575 -0.0625 -0.2895  0.1426
 9986W        W28733  20.832   4.427  19.384 -0.2141  0.1252  0.0436
 9987W        W28734  21.455  20.224  21.306  0.2198 -0.0947  0.1333
 9988W        W28735   5.389  25.876  21.688 -0.1309 -0.0213  0.0462
 9989W        W28736  19.803   9.774   2.114 -0.0514 -0.1849 -0.2799
 9990W        W28737  27.548   8.133   2.615 -0.0293  0.0863 -0.0192
 9991W        W28738   8.164  32.969  10.844  0.0365  0.1422 -0.1289
 9992W        W28739  16.160  11.002  11.145 -0.0440  0.1706 -0.0157
 9993W        W28740   7.026  28.016   2.342  0.0923 -0.2016 -0.1555
 9994W        W28741  11.750  23.082  15.803  0.0514 -0.1175  0.2939
 9995W        W28742  22.442  20.486  14.868  0.2347  0.2203 -0.1535
 9996W        W28743  11.100   0.579  11.095  0.0270  0.3563  0.0141
 9997W        W28744  26.107  24.690  13.191 -0.0758 -0.1963  0.0692
 9998W        W28745  30.127  12.910   8.188 -0.0005  0.3143 -0.0776
 9999W        W28746  28.181  35.080  23.956  0.0305 -0.1072 -0.0775
10000W        W28747  16.592   9.983  21.760  0.0113  0.1694 -0.0424
10001W        W28748  19.628  20.181   0.519 -0.0602  0.2402 -0.0079
10002W        W28749  13.415  19.843   2.211 -0.0932  0.1168  0.3185
10003W        W28750  13.642   9.432  19.394 -0.2316  0.2562  0.0851
10004W        W28751   0.892  34.861  18.502 -0.1103 -0.0394  0.0688
10005W        W28752   6.910  16.791   6.521 -0.0301  0.2830 -0.3367
10006W        W28753   1.716  25.631  23.819  0.2265  0.0686  0.0298
10007W        W28754   1.638  16.111  10.614  0.1072 -0.1297 -0.0546
10008W        W28755  20.364  13.702  22.044  0.0176  0.2357  0.1072
10009W        W28756  33.823  23.882  23.574  0.3017 -0.0180  0.0733
10010W        W28757  13.143  30.174   9.372  0.0664  0.0631 -0.0066
10011W        W28758  20.888   5.431  20.921  0.1664 -0.0306 -0.2503
10012W        W28759   2.263   7.000  25.655 -0.2949 -0.2990  0.0116
10013W        W28760  34.570  21.634  24.478  0.1129  0.2578  0.3935
10014W        W28761  24.801  31.304  16.813  0.0423  0.3328  0.0717
10015W        W28762   9.290   7.030  19.442  0.0496 -0.1266 -0.1467
10016W        W28763  29.290  15.911   7.592  0.1497 -0.3829  0.0085
10017W        W28764  22.457   0.966   6.512 -0.0310  0.0997 -0.1691
10018W        W28765  33.888  19.149   7.768 -0.0163 -0.1256 -0.2625
10019W        W28766  11.789  18.447  21.716 -0.2040 -0.1564 -0.0618
10020W        W28767  19.169  14.568   5.473 -0.4609  0.2281  0.0697
10021W        W28768   7.750  10.381  22.494  0.0505  0.1145 -0.1323
10022W        W28769  33.386  33.965  15.198  0.0207 -0.0997 -0.2623
10023W        W28770  12.935   1.539  11.150  0.2464  0.0350  0.1524
10024W        W28771   4.945  26.501   0.255 -0.2965 -0.2350 -0.1932
10025W        W28772  19.454  11.240  25.739  0.1315 -0.0692  0.1573
10026W        W28773   3.881  27.422  20.149  0.1926 -0.1061 -0.2866
10027W        W28774   0.125   2.256  16.474  0.0248  0.1742 -0.0076
10028W        W28775  34.395  35.148   8.278 -0.1050  0.1854  0.1773
10029W        W28776  19.977  14.753  24.016 -0.0264 -0.0126  0.0242
10030W        W28777  16.917  19.899   4.300 -0.0476 -0.0138  0.5433
10031W        W28778   8.066   7.877   6.582 -0.2136 -0.0426 -0.0477
10032W        W28779  25.841   9.864   9.724  0.0028 -0.2113  0.2810
10033W        W28780   5.185  28.363   7.535 -0.0372  0.0207  0.0124
10034W        W28781   7.381  31.107  15.445 -0.2478  0.0658 -0.0555
10035W        W28782  11.126  12.517  23.306 -0.0214 -0.2476  0.0342
10036W        W28783  27.383  14.904  14.128 -0.0394 -0.1561 -0.2177
10037W        W28784  24.467  25.741   0.077 -0.0593  0.1875 -0.0590
10038W        W28785   4.300   1.229  11.170 -0.1074 -0.1829  0.1696
10039W        W28786   9.472  17.646   8.784 -0.0518 -0.1118  0.0357
10040W        W28787   8.997  27.235   4.411  0.1265  0.1213  0.1326
10041W        W28788  17.838  18.982  21.010 -0.1747  0.1491  0.1390
10042W        W28789  13.506  20.632  13.711  0.2072 -0.0933  0.1664
10043W        W28790  25.237  27.710  19.722  0.0175 -0.0993 -0.2374
10044W        W28791  34.392  19.014   1.011  0.2977 -0.3010  0.2021
10045W        W28792   3.381  31.152   3.203  0.1453 -0.0567 -0.0817
10046W        W28793  13.156  14.268  25.221 -0.1923 -0.2442  0.0233
10047W        W28794   6.777  22.728   9.114 -0.1792  0.0459 -0.0901
10048W        W28795  32.733  11.721  19.350 -0.3791 -0.1054  0.2340
10049W        W28796  34.481  16.945  16.158 -0.2606 -0.2157  0.0564
10050W        W28797   0.663   2.336  22.135  0.2166 -0.0713  0.0506
10051W        W28798   4.229   1.138   2.926 -0.3751  0.0674 -0.0826
10052W        W28799  16.008  30.431  24.634 -0.0103 -0.0563  0.0289
10053W        W28800  13.059  25.966   3.514  0.0672  0.0088 -0.2028
10054W        W28801  28.753  11.840  25.627 -0.0041 -0.1586 -0.3505
10055W        W28802  16.398  29.646  21.666  0.1175  0.2220  0.2081
10056W        W28803   6.020  10.106   4.767  0.4286  0.0643  0.2911
10057W        W28804  27.027  22.711  23.887 -0.0217  0.1056  0.2219
10058W        W28805  14.362  27.607   7.531 -0.2329 -0.0960  0.0889
10059W        W28806  33.488  11.114  22.720 -0.3593 -0.0271  0.0160
10060W        W28807  20.441   0.978   1.235  0.1082  0.0712 -0.1498
10061W        W28808  11.860  23.019   3.249 -0.1030  0.1146 -0.1172
10062W        W28809  30.693  12.644  23.352  0.0600  0.5709  0.1656
10063W        W28810   4.400  28.603  11.679  0.0297  0.0827  0.1312
10064W        W28811  21.862  11.393  18.245 -0.1583 -0.1602 -0.1035
10065W        W28812  17.140  20.770  11.715  0.1336  0.0315  0.0643
10066W        W28813   5.729  13.086  24.866 -0.1795  0.2954 -0.3195
10067W        W28814  19.585  12.090   8.470 -0.1144  0.1123 -0.1157
10068W        W28815   9.155  19.058  21.427 -0.3612  0.1354 -0.1904
10069W        W28816   5.237  31.826   3.668 -0.0663  0.0601 -0.0372
10070W        W28817  14.955  15.990  23.119 -0.1122  0.3303  0.3072
10071W        W28818  18.897  30.687  17.641 -0.0444 -0.0985 -0.1357
10072W        W28819  20.035  30.850  25.070  0.2835  0.1377  0.0976
10073W        W28820  34.290  16.818   8.224  0.0427 -0.0298  0.3367
10074W        W28821  28.636   7.068  11.736 -0.0804 -0.0731  0.1160
10075W        W28822  32.879   9.747  12.008 -0.0029  0.2126 -0.2593
10076W        W28823  11.626  22.865   4.623 -0.2041  0.0689  0.2745
10077W        W28824  15.964  13.016   6.598 -0.1136  0.0902 -0.0438
10078W        W28825  18.059  11.562  11.112  0.0712 -0.1318  0.0722
10079W        W28826  10.199  27.504   2.948  0.1229  0.0556 -0.0871
10080W        W28827  21.558   4.588  17.665 -0.1063 -0.2194  0.0729
10081W        W28828   7.243  20.745   8.430  0.2795 -0.1480  0.0218
10082W        W28829   5.276  27.924   4.589 -0.2337  0.1236 -0.0449
10083W        W28830   7.627   4.875   5.108  0.1185 -0.2975 -0.1873
10084W        W28831  31.827   2.017  18.013  0.2919  0.3655 -0.3009
10085W        W28832  15.112  13.228   0.371 -0.0049  0.1929  0.2274
10086W        W28833  15.157  34.282  24.059  0.0728  0.0951  0.0632
10087W        W28834  33.170   6.543   4.496  0.1559 -0.2345 -0.0288
10088W        W28835   9.058   4.940   3.541 -0.0142  0.0705 -0.2254
10089W        W28836  23.835  10.347  21.770 -0.3284 -0.0711  0.2590
10090W        W28837  20.289   1.951  17.598  0.3247 -0.0577 -0.1635
10091W        W28838   6.829  33.633   2.112 -0.0649 -0.1239  0.0260
10092W        W28839   9.138  34.905   0.906  0.3913  0.3011 -0.2811
10093W        W28840  10.769  32.723   7.061  0.2807 -0.0830  0.0318
10094W        W28841  20.335   3.942   7.560 -0.0144 -0.1267  0.1801
10095W        W28842   0.738  11.995  16.140 -0.2657 -0.1646  0.3378
10096W        W28843  10.485  34.384   9.864  0.0281 -0.1183  0.0946
10097W        W28844  31.757  26.825  16.340 -0.3082 -0.4066 -0.0960
10098W        W28845   7.881  31.884  16.016 -0.0474  0.1181  0.1370
10099W        W28846   7.236  32.157  25.772 -0.1573  0.0208  0.0236
10100W        W28847  34.262  10.297  22.408  0.0543 -0.1083  0.2607
10101W        W28848  11.650   9.227  19.868  0.1966 -0.1305  0.3855
10102W        W28849  33.559  19.044  12.811  0.0337 -0.0228  0.5189
10103W        W28850  22.645   5.528  25.302 -0.1601 -0.1086 -0.0751
10104W        W28851   1.984   2.866   8.005  0.0607 -0.1320 -0.3404
10105W        W28852  20.517   7.542   4.081 -0.0889 -0.0770 -0.3018
10106W        W28853   6.929  25.180  23.717 -0.2600  0.4215  0.0939
10107W        W28854  34.441  27.622  16.990  0.2967  0.1472  0.1115
10108W        W28855   8.074  26.555  15.556  0.1555  0.2805 -0.1072
10109W        W28856  13.815  13.296   9.549  0.0173  0.0194  0.1142
10110W        W28857  24.970  10.554  13.139 -0.2981  0.0683  0.0106
10111W        W28858  15.726  12.828   3.015 -0.2294 -0.2959  0.0570
10112W        W28859  18.199   2.729   1.060 -0.0517  0.0847  0.0587
10113W        W28860  10.812   9.675  24.542  0.0209  0.1113  0.1501
10114W        W28861  21.943  14.787  14.347  0.1782 -0.3412  0.1208
10115W        W28862   6.935   4.646  12.467 -0.0790  0.1325  0.0823
10116W        W28863   2.196  10.250  25.388 -0.3256 -0.0726  0.1895
10117W        W28864  33.753  11.532  13.584  0.1886 -0.2080 -0.1506
10118W        W28865  17.167   0.655  25.305 -0.1232  0.0246 -0.1207
10119W        W28866   8.351   4.692  11.586  0.0337 -0.1603  0.1540
10120W        W28867   6.596  28.210   4.916  0.0360  0.3230 -0.0551
10121W        W28868   4.992  10.928   7.662  0.0326  0.0219 -0.0218
10122W        W28869  33.711  17.172  21.090  0.1026 -0.0447  0.1098
10123W        W28870  24.478  10.583  15.514 -0.0312  0.0586  0.1822
10124W        W28871   2.908  13.596  24.747 -0.0985 -0.0159 -0.0979
10125W        W28872  30.455   1.067   5.222 -0.0632 -0.4021 -0.1151
10126W        W28873  25.794   6.127   3.689  0.0926  0.2062 -0.1437
10127W        W28874  17.271  19.835   7.414  0.1450  0.1168  0.2004
10128W        W28875  31.319   9.473  10.842 -0.0650  0.0434 -0.3721
10129W        W28876  32.230  25.586  25.986  0.0039  0.0760  0.3503
10130W        W28877  31.506   2.435  14.426 -0.0312  0.1190  0.2285
10131W        W28878  12.203  18.442   8.881 -0.0298  0.1511  0.1733
10132W        W28879  17.092   2.616   2.185  0.0610  0.0526 -0.1167
10133W        W28880  25.088   0.454   0.330  0.0845 -0.0607 -0.0320
10134W        W28881   8.325  15.823  18.964 -0.0328 -0.4053  0.1073
10135W        W28882  34.782   9.612  22.448 -0.0361  0.3157  0.1952
10136W        W28883  30.635  26.889  21.048  0.0912 -0.0843 -0.0752
10137W        W28884  22.109  19.830  15.635 -0.1265  0.3673 -0.0679
10138W        W28885   9.060  20.118  22.765 -0.3518  0.2210 -0.2644
10139W        W28886  10.195  25.334  11.724 -0.1616  0.1172 -0.1718
10140W        W28887  29.061  10.603  11.223 -0.0936 -0.3131 -0.0102
10141W        W28888  34.223  35.173  14.276 -0.1528  0.2044  0.3821
10142W        W28889  12.785   0.944  11.998  0.0352  0.1267 -0.0599
10143W        W28890   7.264   1.869  11.052  0.1230 -0.1013  0.0060
10144W        W28891  20.459   8.142  19.345 -0.4853  0.0032  0.4790
10145W        W28892  33.452  28.660  21.244  0.1858 -0.2053 -0.2804
10146W        W28893  13.025  24.982   3.436  0.1831 -0.1587 -0.1886
10147W        W28894  14.636  17.929   2.355  0.0703  0.3196  0.0158
10148W        W28895  28.194  13.826   9.818  0.0537 -0.1086  0.0974
10149W        W28896  19.077  34.770  15.324 -0.1770  0.0578 -0.0704
10150W        W28897  12.304  33.752   8.352  0.1339 -0.0834  0.0647
10151W        W28898   2.036  21.635  14.799 -0.1663  0.2026 -0.0155
10152W        W28899  27.518   2.193  10.971  0.1571  0.1694 -0.2000
10153W        W28900   2.396  12.591  17.921  0.0524 -0.0513  0.1035
10154W        W28901   7.281  14.346  25.189  0.3532  0.4848  0.1749
10155W        W28902  11.475  11.369  23.117  0.0327 -0.0082  0.1791
10156W        W28903   7.732  17.201  19.017  0.1831  0.2623  0.0296
10157W        W28904   4.559   6.857   8.277  0.0805  0.1797  0.1447
10158W        W28905   9.942   0.040   7.803 -0.2166 -0.3019 -0.3107
10159W        W28906  33.891  25.846  21.861 -0.0971  0.1733 -0.0125
10160W        W28907  24.342  33.224   0.264  0.0876 -0.1945  0.2201
10161W        W28908  20.744  22.511  18.004  0.1228 -0.2026  0.2305
10162W        W28909  22.132  31.061  24.522  0.0498  0.0695  0.1462
10163W        W28910   7.314  22.670  14.829 -0.0576 -0.2068  0.1156
10164W        W28911  18.782   6.180  11.089 -0.1111 -0.0719 -0.0986
10165W        W28912  25.529   8.305  14.679 -0.0085 -0.0624 -0.1262
10166W        W28913   8.688   5.564  13.065 -0.0698  0.0746 -0.1185
10167W        W28914  12.213  25.015  11.648 -0.1943 -0.0688  0.1488
10168W        W28915  33.356  35.355   3.773 -0.0000 -0.0016  0.1499
10169W        W28916   3.540  31.657  11.486  0.0677 -0.1412 -0.1175
10170W        W28917  26.243  26.518  20.319  0.0854  0.0462 -0.3346
10171W        W28918   1.619  33.737   8.833  0.3063 -0.0980  0.1906
10172W        W28919  20.968  34.152   1.752  0.2384 -0.0161 -0.3316
10173W        W28920  27.437  12.193  18.514  0.2142  0.1107 -0.1795
10174W        W28921  25.346   6.067  23.683  0.1403  0.1052  0.0648
10175W        W28922  29.765  31.688  16.544  0.1595 -0.0596 -0.2650
10176W        W28923  24.261   4.904  20.961 -0.2324 -0.1142  0.0808
10177W        W28924  27.502  20.733  15.851  0.0203 -0.0652 -0.0327
10178W        W28925  13.396  10.418   3.444 -0.0566 -0.2763 -0.0387
10179W        W28926  11.431  15.128  13.823  0.1889 -0.2154 -0.1502
10180W        W28927  33.854   1.032  25.632 -0.2254  0.0918  0.1785
10181W        W28928   9.014   3.120  21.648  0.0248  0.2148  0.0193
10182W        W28929  14.720  13.021  10.822  0.2374 -0.3019  0.4096
10183W        W28930  26.337  28.404  20.654 -0.0725  0.0515 -0.2106
10184W        W28931  24.956  31.638  17.130 -0.0141 -0.3359 -0.2410
10185W        W28932  16.577  29.791  10.420  0.5415 -0.1861 -0.1338
10186W        W28933  13.521  27.089   1.125 -0.1770  0.2249  0.0961
10187W        W28934   8.345  18.290  14.188 -0.2072 -0.1952 -0.1848
10188W        W28935  26.497  34.860  12.815 -0.3682  0.0525  0.3100
10189W        W28936   9.966   7.551  25.921 -0.3845  0.0738 -0.2652
10190W        W28937   1.853   7.724   1.898  0.0269 -0.1577 -0.0119
10191W        W28938  11.162  31.764  21.614 -0.0549  0.2640  0.2590
10192W        W28939  10.713   1.719  24.962 -0.0715 -0.0619  0.3001
10193W        W28940  33.458   9.521  21.703 -0.3150 -0.0020  0.0231
10194W        W28941  30.889  18.657  16.534 -0.0435 -0.0009 -0.0377
10195W        W28942   7.338  27.147   6.641 -0.1961  0.0432 -0.2072
10196W        W28943  28.996  14.068   9.590  0.1394 -0.1180 -0.2259
10197W        W28944  31.587  15.544   0.182 -0.0498  0.0497 -0.3207
10198W        W28945   6.725  17.450   8.231  0.0685 -0.2888 -0.0378
10199W        W28946   9.545  12.678   3.772  0.2130 -0.0406  0.0124
10200W        W28947  11.591  34.681   9.399 -0.0691  0.0434  0.2046
10201W        W28948   3.543  22.595  21.316  0.1663  0.3107 -0.1835
10202W        W28949   1.576  29.471   2.911  0.1435  0.0877  0.0852
10203W        W28950  26.352  14.521  24.320  0.0548  0.1522  0.2295
10204W        W28951  32.621  12.873  10.933 -0.0942  0.0629 -0.0046
10205W        W28952   4.158  32.548   9.075 -0.1968 -0.2114 -0.0724
10206W        W28953  17.779   0.691   0.754 -0.1763 -0.3338  0.2042
10207W        W28954  16.762  33.952  17.618  0.1250 -0.3456 -0.1252
10208W        W28955  11.795   8.672  10.602 -0.1095 -0.1035 -0.0268
10209W        W28956  26.368   4.735   2.174  0.1962 -0.1115 -0.0398
10210W        W28957  22.524  34.476  15.100 -0.0231  0.3373  0.0580
10211W        W28958  15.563  23.891  11.768  0.1772 -0.1741  0.0777
10212W        W28959  24.208  10.681   3.230  0.2670 -0.4546  0.2639
10213W        W28960  26.018   7.293  11.003  0.2269  0.1686  0.0911
10214W        W28961  12.667  16.943   5.339  0.1812 -0.2291  0.2735
10215W        W28962  35.170  23.671  13.083  0.1552  0.0750  0.0781
10216W        W28963  35.376  26.559   3.917 -0.2919 -0.1956  0.0852
10217W        W28964   1.124   3.848   8.080 -0.0860 -0.3162 -0.1156
10218W        W28965   1.258  20.737  13.963  0.2293  0.0053  0.1096
10219W        W28966   7.193  27.999  21.773  0.0817 -0.1381  0.1236
10220W        W28967   1.308  16.166   2.206  0.0587  0.1743 -0.1133
10221W        W28968  16.954  15.312   2.155 -0.1077 -0.0585  0.0135
10222W        W28969  11.405  26.673  11.396  0.3601 -0.1204  0.2026
10223W        W28970  18.969  10.048  18.972 -0.1641 -0.1076 -0.1311
10224W        W28971  19.171  14.349   9.442  0.4296 -0.1026 -0.1731
10225W        W28972  31.325  32.430  19.564 -0.3969 -0.1736 -0.0420
10226W        W28973  25.998  20.236   8.927  0.1822  0.1124 -0.1547
10227W        W28974  17.708   5.445  26.093  0.0564  0.0881 -0.0905
10228W        W28975   2.879  18.993  10.981 -0.0741 -0.0966  0.1164
10229W        W28976   8.298   1.359   9.942 -0.1416  0.1091 -0.0198
10230W        W28977   0.847  16.539  22.084  0.1457 -0.0839  0.0734
10231W        W28978  17.870  34.095  20.490  0.0922  0.1625  0.2218
10232W        W28979   4.038  16.488   4.360  0.1402  0.2596 -0.0944
10233W        W28980  22.641  32.650   0.622 -0.2293  0.1931  0.1323
10234W        W28981  33.073   8.156  21.204 -0.0387 -0.2715  0.1752
10235W        W28982  30.858   5.609  21.477 -0.0753 -0.0621  0.1613
10236W        W28983  14.130  20.281  21.821  0.3535 -0.0360 -0.2124
10237W        W28984  14.837   9.383  10.708  0.1039  0.0355 -0.0522
10238W        W28985  34.774  29.826   6.783  0.0201  0.1141 -0.0150
10239W        W28986   9.826  20.506  13.625 -0.0998  0.0850  0.1975
10240W        W28987  22.434   6.205  18.629 -0.1261 -0.2456  0.4089
10241W        W28988   2.818   4.332  19.522  0.0012 -0.0620 -0.0923
10242W        W28989   8.721   5.581   9.545  0.1750  0.1742  0.1623
10243W        W28990  26.853  26.710  15.180  0.1940 -0.1955 -0.2491
10244W        W28991  18.636  22.090   8.197 -0.1058  0.1317  0.0342
10245W        W28992  33.552  14.879   6.232 -0.2291 -0.4120  0.2688
10246W        W28993  20.267  10.142  20.116  0.1635  0.1034 -0.2507
10247W        W28994  13.763  19.832  22.606  0.1829 -0.0768 -0.2448
10248W        W28995   9.944  33.838  12.286  0.0185  0.2025 -0.2810
10249W        W28996  29.338  14.923   5.456  0.1004  0.0456 -0.1552
10250W        W28997  23.819  29.779  16.409  0.1219  0.1282  0.0944
10251W        W28998   9.430   7.580   5.558  0.1988 -0.0322 -0.2961
10252W        W28999  19.569  16.870  19.678 -0.1639  0.3136 -0.2170
10253W        W29000  27.237   5.738  24.077  0.1834  0.1098 -0.1125
10254W        W29001  24.126  28.754   0.533 -0.0796 -0.0999  0.1495
10255W        W29002  12.301   2.860  11.215  0.1280  0.2010  0.3432
10256W        W29003   4.709  13.651  20.777 -0.0305 -0.1257  0.0371
10257W        W29004  17.454  31.652   4.961 -0.0898  0.1683  0.0539
10258W        W29005  13.353  11.000   1.081 -0.0461 -0.0353  0.1935
10259W        W29006  34.197  12.507  20.923  0.4421  0.2062 -0.0575
10260W        W29007   2.155  30.303   3.808  0.1389  0.0903 -0.3094
10261W        W29008  18.489   6.552  22.826 -0.1434  0.0850  0.0438
10262W        W29009  29.829  31.225  21.345  0.1783  0.0351 -0.0502
10263W        W29010  34.742  10.377   1.997 -0.1432 -0.1342 -0.4826
10264W        W29011  14.377  16.345  14.247  0.2950  0.1505 -0.1870
10265W        W29012  11.591  28.005   5.192  0.2482  0.1296 -0.3529
10266W        W29013  13.889  11.477   6.481  0.1426 -0.2751  0.1626
10267W        W29014   5.707  28.835  13.024  0.0040 -0.2418  0.0410
10268W        W29015  12.179  21.336   2.957 -0.0083 -0.0199 -0.0839
10269W        W29016  30.560   3.174  19.096  0.0069  0.0253  0.3306
10270W        W29017  13.629  13.245   5.145 -0.1213 -0.2166 -0.0911
10271W        W29018  32.917  13.983  25.277  0.1259  0.0093 -0.0469
10272W        W29019  25.176   1.112  20.907 -0.2128  0.1160  0.1839
10273W        W29020   9.114   8.278   8.483  0.0912 -0.1873  0.0243
10274W        W29021  34.697  27.673  18.947  0.1483  0.0762  0.1670
10275W        W29022  24.618  24.538  14.138 -0.3248  0.2867  0.0867
10276W        W29023   5.634  22.888  20.754 -0.0754 -0.2168 -0.1168
10277W        W29024  21.168  26.226   2.194 -0.0475 -0.1249  0.2147
10278W        W29025  10.687   1.971   9.013  0.0487  0.1593  0.0319
10279W        W29026  16.792  18.187   6.964 -0.1264  0.2508 -0.0207
10280W        W29027  31.580   0.286   0.923 -0.0801 -0.1247  0.1448
10281W        W29028   6.331  27.830   9.193  0.0514 -0.0486 -0.1649
10282W        W29029  13.206   1.408  18.878 -0.2315  0.3932 -0.2235
10283W        W29030  29.230  15.214   6.986 -0.2808  0.0256  0.1820
10284W        W29031   5.483   6.038  25.949  0.1835 -0.0618 -0.1286
10285W        W29032  31.950  17.428  13.668  0.1463  0.1254  0.2029
10286W        W29033  34.446   4.834  25.183 -0.0041 -0.2247  0.1607
10287W        W29034  33.627   0.633   0.652 -0.1777 -0.0336 -0.1329
10288W        W29035  17.872  17.836  21.069 -0.0287 -0.0894 -0.0079
10289W        W29036  11.494  17.623   5.614  0.0528 -0.4053  0.0690
10290W        W29037  10.523  33.296  25.887 -0.3057 -0.0180 -0.1109
10291W        W29038  14.569   5.009  12.654  0.1329  0.0727 -0.2567
10292W        W29039   4.510   4.758  21.804 -0.1588  0.2262 -0.0037
10293W        W29040   7.090   7.474  24.138  0.3559 -0.2727 -0.0365
10294W        W29041   2.287   3.709   5.851  0.3292 -0.2042 -0.3393
10295W        W29042  11.168  33.845  14.655  0.0629  0.0615 -0.2201
10296W        W29043   1.926   4.315  15.134  0.1091 -0.1319 -0.2133
10297W        W29044  26.918  16.552   8.435 -0.3172  0.2739  0.1676
10298W        W29045  17.848  23.572   6.382 -0.1110  0.0717  0.1007
10299W        W29046   8.869   2.846  20.540 -0.0808  0.0258  0.3991
10300W        W29047  19.218  17.100   1.698 -0.3011  0.1922 -0.0726
10301W        W29048  21.110  16.067  18.567 -0.0659  0.2490 -0.0852
10302W        W29049  15.348  13.552   4.784 -0.0751 -0.0933 -0.3514
10303W        W29050  30.373   9.902  18.894  0.1265  0.0951  0.0219
10304W        W29051  17.244  33.247  24.554 -0.0469  0.2391  0.2904
10305W        W29052  13.257   9.938  18.782 -0.1198  0.0025 -0.0618
10306W        W29053  20.966  12.980   4.188  0.4450  0.1297 -0.0593
10307W        W29054  12.546  23.421   9.278 -0.3254  0.0642 -0.1998
10308W        W29055  20.989   1.353  17.005  0.2277 -0.0090  0.3256
10309W        W29056  21.517  11.848   3.329  0.3048 -0.0556  0.0204
10310W        W29057   8.643  26.168   1.464  0.0069 -0.1424  0.0889
10311W        W29058  20.025  31.528  20.017  0.1199 -0.0880 -0.1287
10312W        W29059   2.048   8.853  25.690 -0.0475  0.0802 -0.0907
10313W        W29060  24.574  16.450  10.599 -0.0592  0.0231 -0.0697
10314W        W29061  31.588  22.427  13.046  0.0685 -0.3618 -0.0278
10315W        W29062  20.303  15.593   0.001 -0.5196 -0.3904  0.1635
10316W        W29063  12.000  15.773  12.696  0.4233  0.2231  0.0617
10317W        W29064  13.753  25.003   7.435  0.0215  0.1642  0.0097
10318W        W29065  14.553  31.319   0.623 -0.2867 -0.0568  0.3195
10319W        W29066  30.988  29.902   3.579 -0.0528 -0.1149  0.0771
10320W        W29067   3.081  27.143   1.784 -0.1067  0.1186  0.1758
10321W        W29068  32.687  17.109   0.587 -0.1797  0.0251  0.0628
10322W        W29069  34.206   0.992  17.672  0.2242  0.0485  0.1525
10323W        W29070   4.135  32.649  11.459 -0.0761  0.1763 -0.1015
10324W        W29071  21.940  10.690  22.265 -0.0893  0.1446 -0.0141
10325W        W29072  33.898  19.073  17.182 -0.5875  0.1093  0.0674
10326W        W29073  18.184  29.584  24.644  0.0672  0.0587  0.1370
10327W        W29074  21.324  14.616  20.684 -0.1024  0.0301  0.2243
10328W        W29075  22.167  23.245  16.657  0.3443 -0.2386 -0.2589
10329W        W29076   7.386  28.368   7.145 -0.0667  0.0885  0.4085
10330W        W29077  14.916   6.339   2.391  0.1954  0.1095  0.0616
10331W        W29078  25.386  30.458  19.248  0.0301 -0.0119 -0.0933
10332W        W29079  13.362  32.237  25.113  0.0238  0.0148 -0.2015
10333W        W29080   2.659  33.170   5.229 -0.2960  0.1808  0.1750
10334W        W29081  12.355  30.147   3.410  0.1234  0.1514 -0.0159
10335W        W29082  33.457  21.755  23.841 -0.3552  0.0320  0.1279
10336W        W29083  11.547  21.521   8.402  0.0576 -0.0878  0.2850
10337W        W29084  17.000   7.378   2.126 -0.1538 -0.0128  0.0451
10338W        W29085   5.765  26.695   0.533 -0.2529 -0.3110  0.0962
10339W        W29086   6.654  12.646  22.048  0.0087  0.2320  0.0377
10340W        W29087  14.759  30.724   2.459 -0.0901  0.1424 -0.1919
10341W        W29088  21.102  32.392   2.926 -0.0844 -0.2000  0.1798
10342W        W29089  34.113  31.001   5.972  0.2395  0.2213  0.0024
10343W        W29090  30.787  28.724  16.577  0.1723  0.0308  0.0953
10344W        W29091  26.871  26.634  18.365 -0.3099 -0.0835  0.0453
10345W        W29092  21.914   2.293  15.896  0.2998  0.1949  0.1910
10346W        W29093  33.531   1.548  17.733  0.1894  0.1184  0.1244
10347W        W29094  33.280  25.986  18.243  0.1265 -0.4129  0.1465
10348W        W29095  35.172  18.547  17.246  0.1419 -0.1265 -0.1023
10349W        W29096  12.757  30.979   2.220  0.0208  0.1958 -0.0171
10350W        W29097   4.477  23.549   1.012 -0.3831 -0.0838  0.1299
10351W        W29098  14.540   9.495  12.197  0.1518  0.2057  0.1659
10352W        W29099   7.075  27.297   5.662 -0.1139  0.1760  0.0632
10353W        W29100  26.963  14.498  17.464 -0.0113  0.1787  0.3644
10354W        W29101  26.892  31.326  22.773 -0.0814 -0.1280 -0.2609
10355W        W29102  27.393  17.892  21.180 -0.1145 -0.0760  0.1227
10356W        W29103  15.391  11.829  26.125  0.1003 -0.0833 -0.1507
10357W        W29104   9.787  24.944   9.370  0.3049 -0.1172 -0.1576
10358W        W29105  13.318  31.218   6.366  0.1783 -0.1881  0.0433
10359W        W29106   8.002  11.875   1.228  0.0197  0.2145 -0.0413
10360W        W29107   6.331  19.483   1.757  0.2566 -0.3615 -0.1580
10361W        W29108  13.358   1.990  19.186 -0.0626 -0.3390  0.2403
10362W        W29109  28.137  22.756  15.581  0.2304 -0.0487 -0.1440
10363W        W29110  24.541  26.795  22.708  0.2038  0.0545 -0.2030
10364W        W29111  31.502   0.466   1.846  0.2249  0.1228 -0.0136
10365W        W29112  28.218  30.546  17.626  0.2980  0.0982 -0.1005
10366W        W29113  30.618   0.399  17.356 -0.1173 -0.3895 -0.0710
10367W        W29114   7.560  11.141   3.624 -0.0345  0.0038  0.1391
10368W        W29115  28.837   5.600  15.491  0.1792 -0.0875  0.1450
10369W        W29116  34.707  31.301  19.493 -0.0757 -0.4260 -0.2514
10370W        W29117  27.466   9.720  21.712 -0.0833  0.2712  0.0397
10371W        W29118  28.778  19.870  20.160 -0.1084 -0.0127 -0.1169
10372W        W29119   3.433  33.783  23.926 -0.1831  0.0544 -0.1092
10373W        W29120  23.950  28.558   2.556 -0.1806  0.0207  0.1831
10374W        W29121  29.547  26.609  11.243 -0.1593 -0.1645  0.1135
10375W        W29122  31.139  17.827  22.382 -0.2779  0.0186  0.0946
10376W        W29123  12.068   1.699  11.500  0.2530  0.0136 -0.0754
10377W        W29124  30.785   6.729  24.013  0.2078  0.0985  0.4550
10378W        W29125  18.295  34.731  15.841 -0.3094  0.0113 -0.0336
10379W        W29126  24.338   2.245  12.777  0.0546 -0.1618 -0.1386
10380W        W29127   8.523   7.185   2.779  0.1453  0.0167  0.0455
10381W        W29128   7.022  20.437   4.311 -0.2405  0.3017  0.3339
10382W        W29129  20.735   6.615  24.569 -0.2944  0.0490 -0.1967
10383W        W29130  26.465  30.454   1.797 -0.0308 -0.0954  0.1688
10384W        W29131  19.487  18.458   2.683 -0.1096  0.0760 -0.1326
10385W        W29132   0.914  13.291  20.352  0.0876  0.1105 -0.3621
10386W        W29133  14.668  19.774   2.067  0.1698  0.1389 -0.0550
10387W        W29134  10.266  19.955   4.672  0.0822  0.2686  0.1748
10388W        W29135  32.414  24.110  11.551  0.0088 -0.2109  0.1833
10389W        W29136  21.932   5.872   1.023  0.2916 -0.1467  0.0978
10390W        W29137   7.560  12.121  25.508  0.1179 -0.0168 -0.0102
10391W        W29138  10.479  11.355  11.581 -0.0180  0.0048 -0.2626
10392W        W29139   3.410   3.678   4.032  0.1277 -0.0259 -0.0348
10393W        W29140  22.074  22.278  20.614  0.0425  0.2078 -0.0726
10394W        W29141  26.283  17.721  17.470 -0.1028  0.0517 -0.2870
10395W        W29142  25.437  11.918  24.613 -0.2941 -0.1838 -0.0590
10396W        W29143  21.434  22.751  20.226 -0.1091 -0.2194  0.0369
10397W        W29144  26.027  16.629  14.461 -0.1299  0.1167 -0.0221
10398W        W29145  27.300   2.516   3.543  0.0997  0.0055  0.2085
10399W        W29146  15.615  23.785   8.283 -0.1301  0.1136 -0.0881
10400W        W29147  29.003  13.325  12.638 -0.1274 -0.0062 -0.1124
10401W        W29148   9.882   4.285  22.226  0.1293  0.0150  0.1292
10402W        W29149   8.958  11.627   1.767 -0.0638  0.0249  0.2165
10403W        W29150  27.430   0.186  16.064  0.2115 -0.0369 -0.0783
10404W        W29151  22.234  32.911   1.768 -0.0235  0.1439  0.2922
10405W        W29152   0.194   3.887  16.217  0.0556 -0.2905  0.2469
10406W        W29153  25.228  12.915  17.255  0.3456  0.2665 -0.0242
10407W        W29154   8.140  23.418   7.509  0.0609  0.0224  0.1779
10408W        W29155  34.159   8.355  24.212  0.2344 -0.1452  0.0925
10409W        W29156   1.176   6.684   4.920 -0.0541 -0.0636  0.0596
10410W        W29157  21.519  30.969   5.304 -0.3060 -0.1288 -0.0335
10411W        W29158  26.814   3.747   2.857  0.0474 -0.1676  0.0619
10412W        W29159  13.073   6.482   9.019 -0.1199  0.0781  0.2497
10413W        W29160  31.080   1.499  15.403  0.0207 -0.0032  0.0924
10414W        W29161   5.863   0.672   7.666  0.2090 -0.0219  0.0141
10415W        W29162  21.590   5.872   1.448 -0.0449  0.0533 -0.0654
10416W        W29163  30.691  12.190  21.568 -0.1308  0.1557  0.1866
10417W        W29164  15.707   1.975   7.825 -0.3474  0.1539 -0.0341
10418W        W29165  10.547  19.704  10.525 -0.0659 -0.0126  0.1790
10419W        W29166  24.462  26.790  24.553 -0.1120 -0.0151 -0.1337
10420W        W29167  14.934  14.853   2.176  0.1978  0.1417 -0.1031
10421W        W29168  22.775   3.041   6.286  0.2216  0.0498  0.2031
10422W        W29169   6.911  22.199   8.333 -0.0108 -0.0470 -0.1439
10423W        W29170  30.791  29.867   5.316 -0.1947 -0.0805  0.2064
10424W        W29171   5.806   8.930   5.898 -0.0330  0.0502 -0.0012
10425W        W29172  26.848  12.679  13.213  0.2353  0.2461 -0.1712
10426W        W29173  27.592   3.946  21.938  0.0570  0.2483 -0.1940
10427W        W29174  26.039  27.994  11.116  0.0039 -0.2616  0.0324
10428W        W29175  26.514  25.377  25.066 -0.0285  0.0406 -0.1988
10429W        W29176  26.199  28.375  23.017  0.3274 -0.1535  0.1194
10430W        W29177  27.520  18.238  15.388  0.0589  0.0072  0.0643
10431W        W29178   6.644  26.975  12.220  0.1400  0.1302 -0.0631
10432W        W29179  16.170   4.017   9.404  0.2459  0.3554 -0.3581
10433W        W29180  21.072  13.954   1.311 -0.1290  0.1734  0.2985
10434W        W29181  15.371  11.905  10.326  0.3029  0.2695 -0.0000
10435W        W29182  31.101   7.176  19.953  0.3816 -0.0401 -0.0023
10436W        W29183  24.176   1.491   2.213 -0.0301  0.1987 -0.1315
10437W        W29184  24.513   3.453  14.868 -0.4422  0.3435  0.0002
10438W        W29185  34.356  25.003  15.399 -0.1040  0.0738 -0.1028
10439W        W29186  34.677   1.320   4.364  0.2073 -0.1820  0.0206
10440W        W29187  25.904  32.030   4.545  0.2605 -0.2106 -0.2394
10441W        W29188   0.517   8.474  20.768  0.0614 -0.0535 -0.0262
10442W        W29189  30.216  14.785   5.138 -0.0689 -0.1916 -0.0068
10443W        W29190  12.335  30.326   4.488 -0.0443  0.4050 -0.1135
10444W        W29191  17.779  13.800   5.762 -0.1049  0.2465 -0.0746
10445W        W29192  25.684  22.787  26.107  0.2317  0.0434 -0.3288
10446W        W29193  34.308  32.104  23.632  0.3413  0.1692 -0.0023
10447W        W29194   8.132  33.320  22.403  0.1802 -0.1516 -0.2025
10448W        W29195   3.648  18.140  17.736 -0.1690  0.1106  0.0566
10449W        W29196   5.581   3.619   5.645  0.2049 -0.2106 -0.0397
10450W        W29197   7.951  12.379   7.081 -0.0991 -0.1229  0.0625
10451W        W29198   7.178   2.029  25.822  0.3422 -0.1679  0.0341
10452W        W29199  24.199  10.064  21.496 -0.0778 -0.0174  0.1082
10453W        W29200  26.654  34.055  17.474 -0.0015 -0.0684  0.0240
10454W        W29201  31.551  31.459  22.375  0.1753  0.1009 -0.2256
10455W        W29202  18.564  13.879   5.136 -0.1010  0.2318  0.2392
10456W        W29203  23.046  35.343  25.209  0.0452 -0.1798 -0.1877
10457W        W29204  16.095  16.662  11.263 -0.4361  0.0842  0.0393
10458W        W29205   8.141  10.178   1.138  0.1741  0.2087  0.1073
10459W        W29206   1.993   4.141   5.789 -0.0005  0.1459 -0.1214
10460W        W29207  16.752   6.118   1.250  0.3132  0.0138  0.2035
10461W        W29208  31.597   6.830  13.401  0.0133 -0.0478 -0.0058
10462W        W29209  29.100   5.662  11.444  0.1101 -0.1166  0.1642
10463W        W29210  10.338  29.068  11.536  0.0853  0.3583 -0.0756
10464W        W29211  10.963  24.437  17.796  0.1251  0.2266  0.0440
10465W        W29212  27.376   3.091   0.759 -0.2490  0.0161  0.0765
10466W        W29213  13.371  19.824  22.904  0.0651 -0.1318 -0.0498
10467W        W29214  14.877   1.657   0.078  0.0955  0.2012 -0.4364
10468W        W29215  32.923   1.170  25.455  0.4206  0.0885  0.0067
10469W        W29216   5.135  28.883   0.893 -0.1687  0.0996  0.1430
10470W        W29217  22.913  19.654  16.093  0.1600  0.0968 -0.0139
10471W        W29218   5.180  10.159   6.176  0.0862  0.2052  0.2228
10472W        W29219   1.557   0.009   6.174 -0.1050  0.1228 -0.0305
10473W        W29220   9.815  17.504  11.421  0.1229  0.0708  0.3183
10474W        W29221   1.451  28.569  22.013 -0.0286  0.1470 -0.0087
10475W        W29222  17.279  19.842  24.935  0.1270 -0.1292 -0.0737
10476W        W29223  26.598  31.245  18.193 -0.2036  0.2612 -0.0039
10477W        W29224  19.343  30.520   9.005  0.2209  0.1284  0.0239
10478W        W29225  21.942  24.722   4.492  0.2223 -0.0642 -0.2433
10479W        W29226  24.307   7.408  22.207 -0.0463 -0.0818  0.1771
10480W        W29227  13.924  13.632   4.974 -0.0004 -0.1891  0.0229
10481W        W29228  34.660   5.633  24.608  0.1963  0.0774  0.1814
10482W        W29229  33.439  17.570  22.799  0.0292 -0.0735  0.1367
10483W        W29230  12.393   6.894  24.644 -0.1623  0.0676  0.2175
10484W        W29231   0.585   9.049  16.427 -0.1353  0.2963 -0.0242
10485W        W29232  35.231  22.127  23.978  0.0106 -0.1616 -0.0911
10486W        W29233   3.207   0.218   7.471  0.2094  0.2533  0.1583
10487W        W29234  34.183   1.046  22.345  0.1149 -0.1157  0.1099
10488W        W29235  19.167  19.057  25.267 -0.1702 -0.0166 -0.3100
10489W        W29236  27.981  12.351  25.738 -0.3607  0.1882  0.0838
10490W        W29237   8.361  30.155  24.497 -0.1684 -0.1655  0.0607
10491W        W29238  13.856  27.933  15.132  0.0308 -0.0445  0.0646
10492W        W29239  23.246  29.212  15.043 -0.1650 -0.2858 -0.1626
10493W        W29240  23.773  12.402  21.987 -0.0401 -0.0702 -0.0174
10494W        W29241  28.506   1.339  15.392  0.0708  0.1152  0.1904
10495W        W29242  33.163  16.428  14.365  0.4301 -0.3227  0.0086
10496W        W29243  27.195   5.271  15.541  0.2870  0.4140 -0.0121
10497W        W29244  26.883   8.265  24.018  0.1646 -0.0094  0.4443
10498W        W29245  14.885   9.176   4.730  0.3336 -0.1725  0.1722
10499W        W29246   7.367   4.276   0.778  0.2089  0.0003  0.0904
10500W        W29247  25.913  16.037   0.545 -0.0679  0.0416  0.2745
10501W        W29248  20.505  20.916  19.682  0.2038 -0.2501  0.1997
10502W        W29249  10.131   1.378  25.579 -0.1953  0.2561  0.2736
10503W        W29250   9.377  25.740  13.012  0.2160 -0.0898 -0.0985
10504W        W29251  11.722  14.233  25.720  0.0663 -0.0015 -0.3194
10505W        W29252  22.455  20.853   4.059 -0.0569  0.1502 -0.1667
10506W        W29253  20.631  34.635  18.527 -0.3131 -0.4824  0.0038
10507W        W29254  15.514  26.927  12.897  0.1098 -0.0688 -0.2554
10508W        W29255  35.131  26.395  21.124  0.2002 -0.0731  0.1210
10509W        W29256  13.652  15.403   1.090  0.1563  0.2132  0.1513
10510W        W29257  16.368  20.110  20.548  0.0735  0.2347  0.2049
10511W        W29258   5.836   9.800   5.110 -0.2846 -0.0765 -0.1335
10512W        W29259  11.163   3.896  13.185 -0.1023 -0.0518 -0.0260
10513W        W29260  11.707  12.923  10.167 -0.1245  0.1728 -0.1947
10514W        W29261   9.433   2.644  13.838  0.1463  0.0520 -0.0984
10515W        W29262  30.290  20.493  14.202 -0.3030  0.2664 -0.0833
10516W        W29263   5.106  26.011   6.732 -0.1759  0.1054 -0.0549
10517W        W29264   1.253   3.329  19.007  0.1461  0.2295 -0.1997
10518W        W29265  16.415   6.785  19.288 -0.1892 -0.3033 -0.1031
10519W        W29266  14.993  17.345  21.036 -0.0163  0.3459  0.3096
10520W        W29267  13.763  29.439  14.686 -0.0503  0.4856  0.1943
10521W        W29268  34.746  17.695  20.409  0.1174  0.1331 -0.0433
10522W        W29269   4.986   9.807  21.512  0.2079  0.1082 -0.0064
10523W        W29270  23.886  33.421   5.146  0.1697  0.1903 -0.3723
10524W        W29271  34.301   2.479  23.916 -0.2793  0.0687 -0.0674
10525W        W29272  22.587  34.108   3.509 -0.1792  0.0341 -0.1615
10526W        W29273   1.713  15.509  19.728 -0.0071  0.0438 -0.1588
10527W        W29274  14.788  12.398   7.548 -0.1314 -0.0710  0.3070
10528W        W29275  14.659  14.867  11.448  0.4423  0.0454  0.0162
10529W        W29276  33.357  22.557  15.192  0.1314 -0.0845 -0.1364
10530W        W29277  30.007  17.813  22.662  0.0344  0.2255  0.0486
10531W        W29278  12.308  21.814   6.996  0.2567  0.2085  0.1599
10532W        W29279  32.566   2.542  14.976  0.0798  0.0803  0.1848
10533W        W29280  13.272   5.355  12.175  0.3282  0.3415 -0.0283
10534W        W29281  25.434   2.012  24.634 -0.2981  0.1715 -0.0653
10535W        W29282   7.931   9.769  20.915 -0.0895  0.0433 -0.0602
10536W        W29283   0.809  33.687   0.081  0.0229  0.0253 -0.1428
10537W        W29284  16.044  18.882   3.650 -0.0506  0.0878  0.3090
10538W        W29285  15.538   8.420   4.586  0.4625  0.1315  0.0198
10539W        W29286  13.666   8.468   8.842  0.1911 -0.0768 -0.0447
10540W        W29287   7.749  13.669  10.234 -0.1164 -0.0491  0.0060
10541W        W29288  28.142  20.120   8.742  0.3512  0.0079  0.1879
10542W        W29289   4.888   3.239  25.050  0.1300  0.0178  0.1368
10543W        W29290  19.157  24.520  20.732  0.0498  0.1076 -0.2686
10544W        W29291  18.594   1.582   7.031  0.1956  0.3486  0.2619
10545W        W29292   8.820   5.553   2.643  0.1857  0.0665  0.2586
10546W        W29293   0.248  32.403  18.722  0.2825  0.2734 -0.0832
10547W        W29294  32.979  34.828  17.989  0.0659 -0.3391  0.0909
10548W        W29295  15.520  19.427   4.020 -0.0824  0.3049 -0.2276
10549W        W29296  27.066  27.103  24.548 -0.0815 -0.0541 -0.0264
10550W        W29297  22.431   2.700   2.711 -0.1943  0.3819 -0.1919
10551W        W29298   0.829   5.767  22.275 -0.1207  0.1899  0.1122
10552W        W29299  17.401  15.890  25.628  0.3031  0.1363 -0.0920
10553W        W29300  27.472  19.592  19.384  0.0973 -0.2359 -0.2816
10554W        W29301  14.921  25.533   0.344 -0.2607 -0.1606  0.3527
10555W        W29302   7.690  34.194  20.293  0.1353  0.0495 -0.0082
10556W        W29303  12.765   7.464  22.347 -0.0057  0.0158  0.6080
10557W        W29304  29.846  17.514  26.116 -0.0061 -0.0102  0.2096
10558W        W29305  23.430  30.145  11.803  0.1181 -0.4577  0.0544
10559W        W29306  30.483  14.959  24.136 -0.0147 -0.0915  0.2633
10560W        W29307  30.973  13.042  24.855  0.0061 -0.2511 -0.0745
10561W        W29308  18.031   0.845  24.389 -0.3374 -0.1010 -0.1732
10562W        W29309  27.780  16.986  22.383  0.0784  0.1597  0.0278
10563W        W29310   2.837  11.867   3.367  0.0164 -0.2404 -0.3541
10564W        W29311  28.045  28.396  12.114  0.0889 -0.0115  0.1191
10565W        W29312  34.737   0.779  20.000 -0.4436 -0.3462 -0.4743
10566W        W29313   7.866  27.933  11.093 -0.1075 -0.0180  0.2820
10567W        W29314  34.625  28.851  17.534 -0.2360 -0.2537  0.3108
10568W        W29315  27.988  12.224   7.670  0.0099  0.2217  0.2600
10569W        W29316  34.842  20.538  20.722  0.4170 -0.2621  0.0537
10570W        W29317   0.136  13.180  14.880 -0.2884 -0.1018  0.0512
10571W        W29318   1.274  15.797  16.170 -0.1090  0.3430 -0.1092
10572W        W29319  24.960  31.100   3.117 -0.1331  0.0118  0.2755
10573W        W29320  16.768   6.350  11.347  0.0859  0.1801  0.1179
10574W        W29321   6.193  15.033  18.898 -0.0594 -0.1701 -0.1900
10575W        W29322  15.492   4.628  24.082  0.1019  0.3213  0.1093
10576W        W29323  24.287  23.489  21.953 -0.0503  0.3045  0.5187
10577W        W29324  32.167  11.216  26.238 -0.2785  0.1753 -0.0035
10578W        W29325   2.002   7.652  24.997  0.0567  0.0293  0.1198
10579W        W29326  18.216  16.421   2.734  0.0194 -0.4428 -0.0506
10580W        W29327  26.853   5.499  12.945  0.3435  0.0336 -0.1716
10581W        W29328  17.676  32.251  17.883  0.0878  0.0270 -0.2008
10582W        W29329  14.602  21.475  24.696 -0.0939  0.1827 -0.3308
10583W        W29330   4.723   4.661  19.271  0.1626  0.0827 -0.3921
10584W        W29331  32.811  14.947  14.559 -0.1807 -0.1572 -0.0438
10585W        W29332  10.433  34.897  10.048 -0.0657  0.2356 -0.2212
10586W        W29333   7.309   2.481   7.178  0.1616  0.1092 -0.3030
10587W        W29334  35.040  25.152   2.287 -0.1314  0.0223 -0.1665
10588W        W29335   9.154  10.587   2.430  0.0223  0.0584 -0.0696
10589W        W29336   4.109  20.704  18.834 -0.0842  0.0337 -0.1871
10590W        W29337  15.842  20.264   0.331  0.1137 -0.1343 -0.1267
10591W        W29338   4.918   0.494   6.952  0.1752  0.0081  0.0906
10592W        W29339  29.343  34.234   0.421  0.0356  0.1504 -0.0636
10593W        W29340  29.884  26.638  19.091 -0.1137 -0.0138  0.0681
10594W        W29341  32.543  13.893  20.486  0.2941  0.0936  0.3689
10595W        W29342  12.461  11.363  12.707 -0.0387  0.0073  0.0064
10596W        W29343  35.324  18.048  19.743  0.0404  0.1061 -0.1546
10597W        W29344   3.348  21.934  25.838  0.1014 -0.0743 -0.1404
10598W        W29345   9.912  31.939   7.659  0.1433  0.2423 -0.6429
10599W        W29346  33.628  22.993  10.936  0.1175 -0.0267 -0.0713
10600W        W29347  33.959   0.235  24.627 -0.1387 -0.1829 -0.3029
10601W        W29348  30.654   3.742  11.711 -0.2969  0.1000  0.2718
10602W        W29349  34.975  30.061  18.704 -0.0718  0.0648  0.3527
10603W        W29350  26.905   4.579  25.349 -0.0133 -0.1829 -0.0394
10604W        W29351   7.145  19.577   0.721  0.0893 -0.0767 -0.2158
10605W        W29352  14.858  30.953  14.847  0.3042  0.3674  0.0021
10606W        W29353  22.088  25.265  25.196 -0.0754 -0.2482 -0.1221
10607W        W29354   6.236  33.057   4.149  0.2243 -0.3996 -0.0022
10608W        W29355  26.935  31.058   4.519 -0.2760  0.3649 -0.0064
10609W        W29356  19.040   7.591  10.593 -0.4956 -0.0560  0.0217
10610W        W29357   5.216   2.387   8.009  0.1697 -0.0246 -0.0807
10611W        W29358  19.128  20.435   6.352 -0.0133 -0.2456  0.0191
10612W        W29359   3.825  34.188   8.142  0.0196 -0.1709  0.0578
10613W        W29360  17.626  28.037   2.810 -0.0949 -0.0139 -0.1396
10614W        W29361  13.785  23.435  23.147  0.3044 -0.0642 -0.2037
10615W        W29362  34.392  17.970  22.555 -0.1229 -0.0009  0.0704
10616W        W29363  31.502  20.242  14.761 -0.0246  0.1694 -0.1760
10617W        W29364  30.813  19.857  11.338 -0.2247  0.2121  0.1008
10618W        W29365  14.357  27.551   9.865 -0.0655 -0.0248  0.2907
10619W        W29366  27.524  29.413  25.921  0.1780  0.1717  0.1565
10620W        W29367  30.836  18.329   5.993 -0.1293  0.2924 -0.1699
10621W        W29368  11.683   8.584   8.065  0.0375 -0.0215 -0.0236
10622W        W29369   0.147   8.695  11.515 -0.0946  0.1470 -0.1012
10623W        W29370  18.800   9.864  23.608  0.2345 -0.0647  0.3518
10624W        W29371  13.663  33.982   6.221 -0.1404 -0.0795  0.3461
10625W        W29372  32.905  22.796  19.955  0.3041  0.5575  0.0496
10626W        W29373  23.861   4.177   5.162 -0.3657  0.2591  0.1277
10627W        W29374   0.989  18.488  13.411  0.0650  0.0159 -0.0517
10628W        W29375  27.381  34.969   1.593  0.2970 -0.0300 -0.1682
10629W        W29376  25.121  21.544   9.832 -0.1745 -0.0901  0.0234
10630W        W29377  18.602  12.984   4.134 -0.2379  0.0784 -0.3804
10631W        W29378  22.282  25.974   4.973  0.1791 -0.0597  0.0302
10632W        W29379  24.650  28.557   3.428  0.2567  0.1666  0.4437
10633W        W29380  25.929  29.895   1.222  0.0738 -0.0609 -0.1264
10634W        W29381   3.745   3.375   8.224  0.1048  0.1758  0.0101
10635W        W29382  13.813  18.877  22.902 -0.1077  0.1571 -0.3345
10636W        W29383   2.050  14.220  16.285  0.0860  0.4184 -0.0019
10637W        W29384   2.748   7.886   2.817 -0.1363  0.0213  0.0556
10638W        W29385   1.906  15.115   0.208  0.0935 -0.0298 -0.1038
10639W        W29386  31.985   1.532  13.868 -0.0923 -0.2760  0.3746
10640W        W29387  16.986   4.714   5.436  0.1688  0.0407  0.2370
10641W        W29388  10.489  13.438  25.706  0.0429  0.5605  0.0880
10642W        W29389   2.042   5.867  17.397  0.1929  0.1963  0.1670
10643W        W29390   2.683  16.973  20.932 -0.4020 -0.3099  0.1579
10644W        W29391   5.704   0.132  23.599  0.2263  0.0296  0.1118
10645W        W29392  27.312  15.863   9.748  0.0605 -0.0658 -0.1585
10646W        W29393  29.768   9.503  23.377 -0.3356  0.0169 -0.0751
10647W        W29394  18.537  14.135   3.133 -0.1184 -0.2500  0.2893
10648W        W29395  34.325   4.509  22.319 -0.1154 -0.1212  0.0673
10649W        W29396   6.211  11.155   5.278 -0.1030  0.3133 -0.1561
10650W        W29397   3.542  26.543  18.415  0.0728  0.1844  0.0135
10651W        W29398  29.572   4.843  16.939  0.1119  0.1668  0.2312
10652W        W29399  32.420   7.685  12.396  0.0133  0.0388  0.1162
10653W        W29400  16.935   6.289   5.433  0.1124 -0.1014 -0.0493
10654W        W29401   2.194  34.972   9.595 -0.3771  0.3543  0.0131
10655W        W29402   7.280   0.298  13.013 -0.1536  0.1536 -0.1018
10656W        W29403   8.523  26.865  11.942  0.4879 -0.0576  0.0406
10657W        W29404  17.112   6.880  22.440 -0.3611 -0.0119  0.0431
10658W        W29405  23.018  13.549  21.734  0.0131 -0.4221 -0.4021
10659W        W29406  22.170   8.851  20.593  0.1217 -0.0916  0.0712
10660W        W29407   4.043  12.199  19.714 -0.1776 -0.0298  0.0349
10661W        W29408   6.247  13.394  18.279  0.2244 -0.2327 -0.0538
10662W        W29409  15.695   4.913  21.919  0.0848 -0.0087  0.2689
10663W        W29410  26.754  10.866  18.461 -0.0052  0.1339 -0.0601
10664W        W29411   8.841  21.026   2.034  0.0395  0.0764 -0.1399
10665W        W29412   6.741   8.698   4.832  0.1058  0.1551  0.0644
10666W        W29413  13.287  30.910   6.806  0.1535  0.0086  0.1807
10667W        W29414  30.062   2.931  17.420 -0.1492 -0.0199  0.0713
10668W        W29415  34.897  34.761  20.363 -0.0616 -0.1206 -0.1845
10669W        W29416  25.003  34.033  18.404  0.4476 -0.1307  0.0355
10670W        W29417   8.730  11.031  23.307 -0.1380  0.0182 -0.3735
10671W        W29418  34.656  23.092  15.129  0.2653 -0.1755  0.0676
10672W        W29419  18.229  35.237  20.264  0.0411 -0.1798  0.2420
10673W        W29420  11.936   2.007   7.458 -0.1907 -0.0863  0.1661
10674W        W29421  16.697  32.458  24.748 -0.2796 -0.1826  0.0490
10675W        W29422   9.921   6.903   8.330  0.1238  0.1425 -0.2070
10676W        W29423  22.130  18.245  19.392  0.3423  0.0514 -0.0050
10677W        W29424  11.254   8.607   3.362  0.1001  0.2493  0.1421
10678W        W29425  20.168  19.012   4.404  0.1305 -0.1347  0.2665
10679W        W29426  28.170  16.451  17.080  0.1211  0.1730  0.0748
10680W        W29427  22.891  10.128  22.078 -0.0014 -0.1156  0.0041
10681W        W29428  25.119   7.833  11.322  0.4602  0.1938  0.0023
10682W        W29429  28.598  18.097  24.534 -0.1112  0.0191 -0.3335
10683W        W29430  21.538  11.614  19.094 -0.0323 -0.0971 -0.1281
10684W        W29431  26.896   2.268  25.107  0.2485 -0.2083 -0.2293
10685W        W29432   5.123   4.267  21.551  0.1695  0.0823 -0.0348
10686W        W29433  10.028  16.490  19.847  0.4084  0.2673 -0.1041
10687W        W29434   2.707  22.430  25.276  0.1788  0.1526  0.0275
10688W        W29435  26.099  11.354  24.038  0.3504  0.1894 -0.0670
10689W        W29436   2.466  29.198   4.135 -0.1021  0.0716 -0.3099
10690W        W29437   2.864   7.034   5.548  0.2762 -0.1592 -0.0790
10691W        W29438  16.226  33.741   4.521 -0.1252 -0.1937 -0.0180
10692W        W29439  30.786  14.379  15.717 -0.2094  0.0354  0.0673
10693W        W29440  10.237  27.974   3.926 -0.1991 -0.2639 -0.0455
10694W        W29441   6.877  15.245   3.305 -0.0775 -0.0743 -0.2908
10695W        W29442  23.656  32.834  22.605  0.1299 -0.1412  0.3678
10696W        W29443  35.189  31.738   6.757 -0.0383  0.1880 -0.1330
10697W        W29444  26.946  11.763  22.980 -0.0059 -0.0552  0.0124
10698W        W29445  15.169   1.243  26.233  0.1564  0.3811  0.2919
10699W        W29446  19.012  14.068   9.118 -0.0622 -0.1929  0.2229
10700W        W29447  23.228  14.345   1.070 -0.1237  0.0434 -0.1082
10701W        W29448  22.320  10.428  14.150  0.3072  0.1659 -0.0466
10702W        W29449  11.090  20.549   5.935 -0.4549  0.0147  0.0108
10703W        W29450  28.362  10.991  25.191  0.2929  0.0367 -0.4200
10704W        W29451  28.209  30.742   3.893  0.0051  0.0024 -0.6034
10705W        W29452  27.591  31.769   4.186 -0.1363 -0.1124 -0.3131
10706W        W29453  31.207   9.962   9.223 -0.1186  0.1708  0.0483
10707W        W29454   3.198  17.224  24.872 -0.3586  0.0160  0.1988
10708W        W29455  28.856  27.872  11.261 -0.0460  0.1188  0.1218
10709W        W29456  24.229  12.817  15.272  0.0204  0.1943 -0.1473
10710W        W29457  30.616  30.963   3.948  0.3447 -0.2179  0.0006
10711W        W29458   4.028  20.463   5.503  0.6741  0.0204 -0.2347
10712W        W29459  27.367  27.500  13.964 -0.0862  0.2258 -0.1938
10713W        W29460   5.415  33.182   2.002 -0.0115  0.2851 -0.0448
10714W        W29461  19.401  35.137   8.849 -0.1399  0.1339  0.0920
10715W        W29462   6.654   8.701  10.432 -0.1722 -0.1876  0.1690
10716W        W29463   1.280  20.764   1.995 -0.0077 -0.1390  0.0680
10717W        W29464  28.776  18.677  10.630 -0.0438 -0.0496 -0.0801
10718W        W29465  10.636  24.909   2.257  0.2907  0.0354  0.1020
10719W        W29466  29.954  11.925  14.751  0.1230 -0.0329 -0.1119
10720W        W29467   5.961   0.159   4.272 -0.0519  0.2138 -0.0648
10721W        W29468  29.904  21.618  20.146  0.0433 -0.1884  0.0287
10722W        W29469   1.746  25.405   0.593 -0.0658  0.2364 -0.1696
10723W        W29470  29.405   3.924  15.200  0.1470  0.2435  0.2585
10724W        W29471   2.420  28.312   4.986  0.0395  0.0545 -0.0991
10725W        W29472   2.153   3.987  18.807 -0.1121  0.0290  0.0357
10726W        W29473  24.281   5.020   6.286 -0.1600  0.0650 -0.0558
10727W        W29474  23.405  15.652  12.242 -0.2217  0.0615  0.0846
10728W        W29475  17.878  34.169   2.470 -0.1581 -0.3111 -0.2742
10729W        W29476   3.773  31.481   0.680  0.2551 -0.1530 -0.2710
10730W        W29477   6.787  29.566  11.180  0.0262  0.0341  0.1094
10731W        W29478  18.336  13.333   7.176 -0.1882  0.0534  0.0539
10732W        W29479  30.859  27.716   3.491  0.2670  0.1719  0.0005
10733W        W29480  14.673  10.857  23.952  0.3188  0.2652  0.1102
10734W        W29481  20.122  10.243   8.132 -0.0964 -0.0881  0.0760
10735W        W29482  20.996  25.866  24.918 -0.1176 -0.0136 -0.0985
10736W        W29483  26.209  32.511   0.615 -0.2771  0.1181 -0.0104
10737W        W29484   9.253  27.355   3.475  0.3256 -0.0986  0.1397
10738W        W29485  16.407  10.824   8.810 -0.4358 -0.1431 -0.0049
10739W        W29486  14.933  18.009   8.885 -0.0887 -0.0366  0.3352
10740W        W29487  22.734  10.142  19.589 -0.0079  0.0047 -0.0185
10741W        W29488  20.825  28.728   5.648 -0.0873 -0.1585 -0.1479
10742W        W29489  29.988  34.651  21.544  0.2349 -0.0107 -0.0769
10743W        W29490  34.829  34.992  23.114  0.3201  0.0966  0.2027
10744W        W29491  32.007  32.719  26.100  0.0188 -0.1685  0.1105
10745W        W29492  34.965  33.636  18.913  0.1663 -0.0800 -0.1419
10746W        W29493  10.432  32.538   0.696  0.0405 -0.2353 -0.1861
10747W        W29494  18.020  30.345   6.041  0.1070  0.0439  0.2510
10748W        W29495   2.775   5.022  15.092 -0.0472  0.2169 -0.0129
10749W        W29496  14.101  32.574   0.285  0.1462  0.0244 -0.1360
10750W        W29497  11.454  23.341  14.895 -0.0975 -0.3265  0.0642
10751W        W29498  35.234  34.403   1.129 -0.2694  0.1180  0.1856
10752W        W29499  18.316   2.326  23.810  0.3443 -0.0275 -0.2019
10753W        W29500  16.172  15.797  26.233 -0.4862  0.2998 -0.0305
10754W        W29501  32.298   9.361  22.246  0.1619 -0.2632  0.1010
10755W        W29502  30.771  24.053   9.993 -0.0287  0.1217  0.0721
10756W        W29503  23.539  20.853  16.202 -0.0909 -0.3234  0.0715
10757W        W29504  16.075   9.783  10.141 -0.3179 -0.1122 -0.1738
10758W        W29505  22.948   2.389   4.652  0.2376  0.0653  0.1322
10759W        W29506  24.573   0.165   3.820  0.0485 -0.0111 -0.0486
10760W        W29507  27.878   9.048  21.076  0.2124  0.2053  0.3958
10761W        W29508  33.786  28.761  21.623  0.1690  0.0459 -0.2587
10762W        W29509  30.006  15.431  16.068 -0.2630 -0.0185 -0.1910
10763W        W29510  33.749  13.650  12.436  0.1965 -0.1915 -0.0295
10764W        W29511  19.880  19.920   9.768  0.0010  0.0225  0.2229
10765W        W29512  10.977  10.469  22.417 -0.0668 -0.0169  0.0089
10766W        W29513  29.118   7.739   9.940  0.0868 -0.0297 -0.1111
10767W        W29514  31.151  19.981  10.127 -0.0239 -0.0461  0.5778
10768W        W29515  30.281  30.294   2.011  0.0002  0.0127  0.0665
10769W        W29516  33.623  17.482   6.083  0.1164  0.0666 -0.1282
10770W        W29517   0.933   8.752  20.597  0.2191  0.0596 -0.0736
10771W        W29518   6.916   6.363  23.021 -0.1622 -0.0459  0.1070
10772W        W29519  29.153   2.548  11.056  0.1944  0.1203 -0.3683
10773W        W29520  10.537  33.579   9.584 -0.2026  0.1261 -0.0832
10774W        W29521  34.351  31.666   5.343 -0.2959  0.0506  0.0319
10775W        W29522  26.722  29.689  25.028 -0.5351  0.1064  0.0201
10776W        W29523  30.785  21.170  12.735  0.1591  0.1385 -0.1001
10777W        W29524  24.813  23.739  13.874 -0.0258 -0.0533  0.0860
10778W        W29525  22.296  35.346  15.951 -0.0827 -0.1749  0.0662
10779W        W29526  20.531  20.847  20.368  0.1240  0.1172 -0.1938
10780W        W29527  25.789   6.446  18.800  0.0203  0.1400  0.0723
10781W        W29528  35.214   2.447  23.896  0.2517  0.1584 -0.2888
10782W        W29529  13.217  29.516  11.418  0.0144  0.0700 -0.1928
10783W        W29530  31.734  15.107  14.479 -0.1960 -0.2281  0.0713
10784W        W29531  32.036  31.566  22.562 -0.1243 -0.3315  0.0305
10785W        W29532  11.837  34.059  21.523 -0.1803 -0.3307 -0.3822
10786W        W29533  13.674   5.579  12.344  0.1271 -0.3455 -0.3077
10787W        W29534   6.898  12.682  26.157 -0.0439 -0.0751 -0.0754
10788W        W29535  20.359   8.486  24.222 -0.0160 -0.1472  0.1736
10789W        W29536  12.328  26.539   6.064 -0.0591  0.2092 -0.1037
10790W        W29537   8.205  16.359  10.585 -0.1507 -0.0446 -0.0838
10791W        W29538  20.454  23.829   5.136 -0.0692  0.0479  0.1671
10792W        W29539   8.603   4.274  10.740  0.0296 -0.2020  0.0606
10793W        W29540  16.462  25.600  23.728 -0.1766  0.1042  0.0924
10794W        W29541   3.045  19.255   1.268  0.2646 -0.0096  0.2802
10795W        W29542  23.923   2.628  22.604  0.1260  0.2694 -0.0739
10796W        W29543  18.282  35.020  21.096  0.0298  0.1906 -0.0976
10797W        W29544  19.474  17.360  19.463 -0.2970  0.0711 -0.2168
10798W        W29545  29.884  20.142  19.073  0.0116  0.0701 -0.1557
10799W        W29546  24.869  13.668  16.613 -0.0773 -0.1900 -0.1225
10800W        W29547  23.492  20.426  12.809 -0.1269  0.0005 -0.0289
10801W        W29548  34.817  11.353   9.381 -0.4611 -0.0231 -0.1912
10802W        W29549   0.289  17.418  15.599 -0.0555 -0.1914 -0.2168
10803W        W29550  12.631  27.470   0.374  0.0720 -0.1546 -0.0845
10804W        W29551  11.915   0.543   2.123 -0.1799 -0.1396  0.0332
10805W        W29552  34.150  21.134  21.195 -0.0404  0.2607 -0.1681
10806W        W29553  33.809  19.131  21.442  0.1653 -0.1938  0.2825
10807W        W29554  21.735   3.431  15.868 -0.1202  0.4963 -0.0213
10808W        W29555  22.195   7.998  17.423 -0.0304  0.4228 -0.1399
10809W        W29556   8.817  29.370   7.180 -0.0783 -0.3119 -0.1957
10810W        W29557   0.405  33.243   0.769 -0.0222 -0.1577 -0.2844
10811W        W29558   6.243  25.274   3.781  0.0735 -0.0759  0.2103
10812W        W29559  15.376  14.101   9.120 -0.1739  0.2107  0.0478
10813W        W29560   9.946   4.340   2.088 -0.2818 -0.0795 -0.0759
10814W        W29561  11.888   7.998  22.847 -0.1708  0.1029  0.0242
10815W        W29562   8.142  33.868  25.353 -0.0104  0.0456  0.0667
10816W        W29563  13.765  30.824   6.674 -0.0381  0.0654 -0.1752
10817W        W29564  25.512  34.333  23.229 -0.1170  0.2439 -0.1858
10818W        W29565  33.984   8.116  24.758 -0.0735 -0.1615  0.2963
10819W        W29566  21.916  23.227   3.347  0.1715 -0.0903 -0.0199
10820W        W29567   4.060  22.612   1.798  0.2501 -0.0717  0.0925
10821W        W29568  10.348  27.495   8.078  0.1457 -0.3061 -0.0046
10822W        W29569   6.756  19.654   3.694  0.0210  0.1330  0.1639
10823W        W29570  33.526  25.248  21.090  0.0277  0.0329 -0.0995
10824W        W29571  12.708  24.944  11.711 -0.0259 -0.5521  0.2505
10825W        W29572  31.665  30.927   2.645  0.1076 -0.1782 -0.3047
10826W        W29573  15.294  30.693   5.493  0.0137  0.1012  0.2255
10827W        W29574  32.451  13.102  16.997 -0.1626  0.0422  0.1915
10828W        W29575  23.903  35.127  14.683  0.0586  0.1616 -0.0676
10829W        W29576  13.691  25.970  12.857  0.0968  0.2316  0.1076
10830W        W29577   5.998  31.122  11.080 -0.1347  0.3370 -0.0643
10831W        W29578  16.165  10.936  12.084  0.3315 -0.0706  0.0814
10832W        W29579  23.718  33.690   2.981 -0.0131 -0.0772 -0.2069
10833W        W29580  26.497   3.986  24.668 -0.0222 -0.0676  0.0121
10834W        W29581   8.429  20.957  13.575  0.1678 -0.0544  0.0962
10835W        W29582   6.062   9.568   1.418  0.2629 -0.0579 -0.0389
10836W        W29583   3.901  17.119  15.903 -0.2734  0.3140  0.2866
10837W        W29584  26.097  16.513   5.292  0.0351 -0.4131 -0.2026
10838W        W29585  27.766  35.162  13.473  0.1151  0.1359 -0.1338
10839W        W29586   1.005   1.918   0.162  0.5023 -0.1975 -0.0454
10840W        W29587  26.807  16.001  17.646 -0.1282 -0.1641  0.2205
10841W        W29588   0.415  16.296  24.686 -0.1083 -0.2363 -0.3743
10842W        W29589  18.264   8.824  11.325 -0.1565  0.1342 -0.0983
10843W        W29590  34.465  32.132   4.586 -0.0953 -0.0167 -0.1356
10844W        W29591   5.628  21.252  21.736 -0.0943  0.1532 -0.0819
10845W        W29592  18.950  11.186   0.865  0.2334 -0.1180  0.1768
10846W        W29593  27.478  25.058   7.381 -0.0724  0.1762  0.0609
10847W        W29594  34.268  30.033   5.936  0.0101 -0.0882 -0.0015
10848W        W29595   6.703  21.042  25.153  0.0982 -0.2199  0.1729
10849W        W29596  10.607   9.794  19.353  0.1302 -0.1279 -0.0901
10850W        W29597   7.758  13.423   3.700 -0.0134  0.1605  0.0736
10851W        W29598  33.182  16.140   8.768 -0.1701 -0.2375  0.0300
10852W        W29599   8.289   5.931  23.874 -0.2443 -0.0811 -0.1534
10853W        W29600  23.943  12.820   0.533  0.0405  0.4081 -0.0362
10854W        W29601  25.092  15.115  19.301 -0.0447  0.1479  0.4199
10855W        W29602   3.936   1.800   1.791 -0.2004 -0.2126 -0.0870
10856W        W29603   9.049   0.279  13.719  0.1062 -0.2857 -0.0384
10857W        W29604  26.305  11.954  11.010 -0.0468 -0.0114 -0.0050
10858W        W29605  33.640  26.344  16.800 -0.0093  0.0893  0.2985
10859W        W29606  21.038  17.425  26.040 -0.4533 -0.2329 -0.1299
10860W        W29607  19.154  34.997   2.934  0.2215  0.2056  0.0490
10861W        W29608  15.569   5.578   3.835  0.0089 -0.1481 -0.3740
10862W        W29609  31.942  10.015  14.440  0.0047  0.1684 -0.0321
10863W        W29610  29.922  24.627  21.869  0.1343 -0.0364 -0.0320
10864W        W29611  28.493   0.307  19.580  0.0884  0.0817  0.0831
10865W        W29612  26.464  14.590  17.555  0.0912  0.0256  0.3429
10866W        W29613  23.322  21.171  25.438 -0.2873 -0.0679 -0.3814
10867W        W29614  28.385   8.549  17.911 -0.2459  0.2577 -0.0055
10868W        W29615  13.207  27.104   5.136 -0.1619  0.3696  0.1515
10869W        W29616   0.739   6.787  16.844  0.0429  0.1275 -0.1656
10870W        W29617  28.082  20.159   7.206  0.0562  0.1523 -0.1916
10871W        W29618  31.655  14.126  10.301  0.1611  0.1761  0.0688
10872W        W29619  21.134   2.002  24.918  0.1077  0.0520  0.2925
10873W        W29620  26.268   9.266   2.924  0.1737 -0.1402 -0.0573
10874W        W29621  15.005  34.127  21.905 -0.3355  0.0975 -0.0569
10875W        W29622   0.927  34.047  23.280  0.0591  0.1082 -0.2030
10876W        W29623   2.574  10.387   2.840  0.1162  0.0312  0.0147
10877W        W29624  29.705  20.122   6.418 -0.1642 -0.4579 -0.2221
10878W        W29625  29.632   3.064  15.637 -0.0217 -0.2391 -0.2739
10879W        W29626  14.328  10.777   0.915 -0.0625  0.1698 -0.0432
10880W        W29627  21.726   4.793   6.163  0.3009 -0.1856  0.2119
10881W        W29628   2.926  11.121  24.044  0.1024  0.1328  0.1679
10882W        W29629  28.066  31.201  15.864 -0.0996  0.2574 -0.0734
10883W        W29630  22.613   9.604  19.657  0.0441 -0.2826 -0.2157
10884W        W29631  13.592   5.534  23.466 -0.3644 -0.1891  0.3206
10885W        W29632  23.147   5.033  24.977  0.0212  0.0720  0.1590
10886W        W29633   4.438  27.510   4.159  0.0968  0.0354  0.0003
10887W        W29634   7.520  24.366   6.437  0.1332 -0.3321  0.0440
10888W        W29635  19.095   1.418  15.545  0.0408  0.3000  0.1712
10889W        W29636  10.098  15.649   5.645  0.1584  0.3241  0.1429
10890W        W29637   0.997   3.551   2.892  0.0309 -0.2573 -0.0839
10891W        W29638  31.547  31.870  25.853  0.1158 -0.0108 -0.0807
10892W        W29639  21.508  29.738  23.080  0.2429  0.0581  0.4146
10893W        W29640  25.221  17.596  24.819  0.2384  0.0623  0.1386
10894W        W29641   3.546  23.610   4.084 -0.3271 -0.1122  0.2526
10895W        W29642  16.210  22.877  26.244  0.2287  0.2104 -0.1986
10896W        W29643  26.355  23.006   0.976  0.2248  0.1429 -0.0600
10897W        W29644  15.790  31.193  23.598  0.1147 -0.1191  0.1033
10898W        W29645  34.574  12.100  17.176 -0.0250 -0.0436 -0.0351
10899W        W29646   7.482   0.037   1.197  0.2748  0.2004  0.1227
10900W        W29647  17.802  27.522   6.609 -0.0574  0.0576  0.0221
10901W        W29648  31.028  14.055  23.207 -0.0055 -0.0215 -0.0211
10902W        W29649   0.130   2.341   3.293  0.1166  0.2567 -0.0925
10903W        W29650   2.040  10.664  20.210  0.0085  0.2279 -0.3890
10904W        W29651   4.816  31.891   9.531  0.2568 -0.1159 -0.0251
10905W        W29652  11.692  10.771  12.623  0.3022  0.0511  0.1809
10906W        W29653   9.961  24.305   2.553  0.1843  0.2110  0.1847
10907W        W29654   1.798  25.902   2.162  0.1398 -0.1877 -0.1024
10908W        W29655   6.042  22.598   6.286  0.2635  0.1603 -0.1451
10909W        W29656   2.306  15.067   0.485 -0.1464 -0.1235 -0.1504
10910W        W29657  19.706  14.812  19.923  0.2332 -0.3690 -0.0759
10911W        W29658  30.079  13.374   8.172  0.0977  0.0647  0.0865
10912W        W29659  29.664   8.369  10.680 -0.2008 -0.2721 -0.2761
10913W        W29660   7.077  33.814  24.414 -0.0264 -0.0848  0.0921
10914W        W29661  17.359  18.707   4.858  0.0626  0.4175 -0.2543
10915W        W29662  29.289  15.626  21.873  0.0237 -0.1291  0.4705
10916W        W29663  29.529   0.666  15.298  0.2598  0.0441 -0.2928
10917W        W29664  21.417   5.016  23.995  0.1491 -0.1399  0.0617
10918W        W29665  26.967  24.663  26.223  0.0000 -0.0180 -0.1138
10919W        W29666  23.707  29.371  17.998  0.1713  0.1725  0.0252
10920W        W29667   3.162  31.555  18.929 -0.5714  0.1346  0.2631
10921W        W29668  31.585  14.403  24.927  0.0765  0.1786  0.3097
10922W        W29669  32.476   2.059  23.712 -0.0597 -0.2504  0.2121
10923W        W29670  32.333  10.433   0.722 -0.0239 -0.0406  0.0147
10924W        W29671  17.050  22.760  14.264  0.1053 -0.1939 -0.1770
10925W        W29672  11.066  18.658  24.030 -0.0496  0.0781  0.1703
10926W        W29673   3.865   0.525  23.143  0.4141 -0.0176 -0.0916
10927W        W29674   8.164  11.363  18.914 -0.1109  0.2757 -0.1356
10928W        W29675  24.004   1.628  19.069  0.0289  0.2900  0.1763
10929W        W29676  24.586  13.905  17.725 -0.1104 -0.2536 -0.0218
10930W        W29677   7.152   9.588   2.772  0.0648 -0.2330  0.1150
10931W        W29678  27.436  30.297  22.946 -0.1237 -0.0224 -0.0886
10932W        W29679  28.748   3.356  15.327 -0.0996 -0.2138 -0.4402
10933W        W29680  20.323  22.893   0.199  0.3020 -0.1315  0.0354
10934W        W29681   7.258   3.078  20.068 -0.3318  0.0487 -0.0583
10935W        W29682   7.327   3.412  20.490 -0.2650 -0.6849  0.1092
10936W        W29683   8.701  30.435  12.895 -0.0242  0.1047 -0.0656
10937W        W29684   2.756  26.940   3.138  0.0114 -0.1582 -0.3394
10938W        W29685   2.352  18.966   0.092  0.2256 -0.1826  0.0832
10939W        W29686  24.595  17.191  22.935  0.1035 -0.1750  0.2237
10940W        W29687   9.109  14.937   9.775  0.0505  0.0361 -0.0992
10941W        W29688  30.463  31.389  19.796  0.2320  0.0246  0.0935
10942W        W29689  32.294   9.455  18.775 -0.0686  0.0100  0.1923
10943W        W29690   4.413   6.457   9.768  0.1398 -0.2591 -0.0098
10944W        W29691   7.697   3.146  13.432 -0.1673  0.1833 -0.1201
10945W        W29692   7.507  11.340   0.408 -0.4164  0.1861 -0.1420
10946W        W29693  25.771  19.954  17.247  0.1638  0.0171  0.0195
10947W        W29694  27.873  22.093  14.354  0.0433 -0.1451  0.0383
10948W        W29695  23.505   6.740   3.403  0.3081 -0.0878  0.1323
10949W        W29696  13.389  11.727   4.422 -0.2970 -0.2115 -0.2358
10950W        W29697  17.632   3.401   3.119  0.1882  0.0523 -0.0402
10951W        W29698   5.584  15.039  18.966 -0.1884  0.1169 -0.1053
10952W        W29699  26.107  29.235  19.309 -0.0770  0.1802  0.1649
10953W        W29700  12.237   8.453  14.604 -0.0720 -0.0346 -0.0929
10954W        W29701  16.347  16.543   6.185  0.0019 -0.1721  0.2269
10955W        W29702  25.543   3.178  26.094 -0.0687 -0.1558  0.1771
10956W        W29703   5.230  21.844  24.311  0.1561 -0.0612 -0.3822
10957W        W29704  13.569  25.445  13.061 -0.0942 -0.1715 -0.0128
10958W        W29705  19.138  26.344   8.131 -0.3068  0.2094 -0.2069
10959W        W29706   6.441  11.956   1.446  0.1326 -0.2794 -0.3586
10960W        W29707  32.529   8.903  22.304  0.2894  0.2881 -0.0818
10961W        W29708  31.168  32.206  17.466  0.0761 -0.2161  0.2594
10962W        W29709  15.674  11.399  25.901  0.1104 -0.0962 -0.2387
10963W        W29710  26.335  20.723  23.494  0.0253  0.1327  0.2242
10964W        W29711   5.865  25.985   0.020  0.1187  0.1151  0.0235
10965W        W29712   5.813  11.610   1.880 -0.0785 -0.0483  0.2304
10966W        W29713   8.769   5.647   7.508  0.1581  0.0337  0.0111
10967W        W29714  13.639  20.079  12.397 -0.0296 -0.0481  0.0166
10968W        W29715   8.156  30.795   3.415 -0.2322 -0.2623 -0.1165
10969W        W29716   8.788   0.775   6.046  0.0815 -0.1310  0.0251
10970W        W29717  16.222   1.828  23.723 -0.1530 -0.2511  0.1078
10971W        W29718  13.491  12.403  14.565 -0.1033  0.0047  0.1213
10972W        W29719   8.069  21.098  12.077  0.1278  0.0705  0.0070
10973W        W29720   7.966  32.728  25.507 -0.2449 -0.3721  0.3497
10974W        W29721  21.881  10.834   2.449 -0.0079 -0.0469 -0.1329
10975W        W29722  32.555   7.137  11.485  0.1127 -0.1716  0.3795
10976W        W29723  34.647  34.883  15.730 -0.0532 -0.0625  0.1038
10977W        W29724  24.141   3.518  25.706 -0.0971  0.1064 -0.0553
10978W        W29725  14.411  20.082  15.081 -0.1065 -0.0543  0.1109
10979W        W29726  19.031  20.708   8.689  0.4149  0.0100  0.1829
10980W        W29727   6.580  20.671  23.426 -0.3184 -0.0485 -0.0619
10981W        W29728  27.735   6.591  16.453  0.1207 -0.0904  0.0865
10982W        W29729  29.997   3.397   3.090  0.1619 -0.0216  0.1327
10983W        W29730  17.395  10.628  10.878  0.0800  0.0631  0.1402
10984W        W29731  31.074  20.268  14.516  0.3483  0.1757 -0.3956
10985W        W29732  15.079  34.679  21.626  0.0417 -0.0652  0.1458
10986W        W29733  28.008  16.188   9.298  0.2645 -0.1034  0.2276
10987W        W29734  17.808  18.295   1.098 -0.2590  0.0879 -0.0079
10988W        W29735   7.887  21.989  22.507 -0.1126  0.2516 -0.0077
10989W        W29736  17.560  14.385  10.179 -0.2243 -0.1327  0.0517
10990W        W29737  14.387  31.207  11.357  0.4030 -0.0778  0.0695
10991W        W29738  27.106  20.002  11.888  0.0749 -0.1594 -0.1375
10992W        W29739   7.327  13.452  25.733 -0.1581 -0.0542 -0.0983
10993W        W29740  34.085  27.310  16.722  0.0516 -0.0035 -0.0002
10994W        W29741  27.011  30.091  23.168  0.0847  0.0195  0.0364
10995W        W29742  32.381  26.452  24.324 -0.0168  0.0385 -0.1441
10996W        W29743   2.455   0.325   0.609  0.0219  0.0092  0.1277
10997W        W29744  25.698  20.092  15.909  0.1521  0.1017  0.2408
10998W        W29745  16.256  24.840  15.234  0.1768  0.0326  0.1996
10999W        W29746  33.867   0.501  18.793  0.4576  0.1057 -0.3139
11000W        W29747   9.749  29.655  24.490 -0.0236  0.0667  0.0961
11001W        W29748  24.755  27.192  15.086 -0.0135 -0.2104  0.0688
11002W        W29749  29.152   8.641   0.296  0.0420  0.0409 -0.0142
11003W        W29750  10.731   4.327  21.638 -0.0467 -0.2771 -0.3267
11004W        W29751  16.815  31.029   3.929  0.0843  0.1707  0.0978
11005W        W29752  30.868  23.690  14.425 -0.1346  0.2068 -0.2667
11006W        W29753  12.431  29.820   9.868  0.1059  0.0403 -0.0272
11007W        W29754  31.959  18.612  22.784  0.0106 -0.2593 -0.1580
11008W        W29755  23.673  30.280  24.111 -0.0806  0.0654 -0.0987
11009W        W29756  17.825  31.483   7.851  0.0484 -0.0779  0.0836
11010W        W29757  34.639   8.361  12.624 -0.0984  0.3060 -0.2717
11011W        W29758  16.386   5.134   7.094  0.1114 -0.1417 -0.1998
11012W        W29759  19.916  13.089   1.435 -0.3983 -0.4865  0.1922
11013W        W29760  14.234  10.287   7.773 -0.1250 -0.0710  0.0698
11014W        W29761  23.759  32.811  25.809  0.4212 -0.1089 -0.0441
11015W        W29762  32.374  34.905   7.093  0.0823 -0.2646  0.1217
11016W        W29763  30.293  21.607  23.608  0.0850 -0.1131 -0.3151
11017W        W29764   0.883  14.665  10.740  0.0877  0.4224  0.2028
11018W        W29765  11.160  21.698  22.863 -0.0204 -0.0550  0.1543
11019W        W29766  26.927  23.584  15.816 -0.2539 -0.2223 -0.0585
11020W        W29767  20.475  32.481  15.473  0.3995 -0.2430 -0.0337
11021W        W29768  27.979  30.040   4.810 -0.0547 -0.1888  0.0499
11022W        W29769  13.223  27.010  23.856 -0.2704  0.0896 -0.0143
11023W        W29770  24.796  30.046  12.864  0.0261  0.0921  0.0023
11024W        W29771   6.941  23.800  21.203  0.1361  0.1637  0.0951
11025W        W29772  14.546  23.898  14.699  0.1254  0.0775 -0.0039
11026W        W29773  14.965   7.287  19.999 -0.0548 -0.1893 -0.0288
11027W        W29774  13.570  26.219   1.238 -0.1050 -0.1331 -0.1541
11028W        W29775  32.105  10.937  24.107 -0.3757 -0.1132  0.0931
11029W        W29776  17.088  13.836  24.362 -0.2578  0.1662  0.0765
11030W        W29777   3.060  33.288  11.807 -0.0347 -0.2520  0.2930
11031W        W29778  18.699   0.567  19.406  0.0591  0.1081  0.1620
11032W        W29779  26.152  14.258  23.168 -0.1543 -0.1273 -0.0895
11033W        W29780  21.003  31.670  20.547 -0.1496 -0.0403 -0.3192
11034W        W29781  17.383  20.214  12.444  0.1165 -0.0333 -0.3835
11035W        W29782  15.051  20.019   6.664  0.2477  0.2623 -0.0851
11036W        W29783  23.442  22.839  18.534  0.0027  0.0703  0.0636
11037W        W29784  12.010  11.231  24.455  0.2274 -0.3908  0.0143
11038W        W29785  14.465  30.993  24.574  0.0908 -0.0718  0.1305
11039W        W29786   8.079  21.413  25.584 -0.1500 -0.1054 -0.1035
11040W        W29787   3.119  22.781  26.002 -0.1687 -0.0116 -0.2551
11041W        W29788  16.208   8.878  12.112 -0.1802  0.0975  0.2244
11042W        W29789  13.058  27.942  22.833 -0.2251  0.2162  0.0736
11043W        W29790  12.173  21.393   5.303 -0.1629  0.0711  0.1456
11044W        W29791  30.010  24.346  13.554 -0.2324  0.3164 -0.1022
11045W        W29792  29.582  25.941  19.503 -0.1857 -0.3556  0.1427
11046W        W29793   4.845  29.786   9.381  0.1146  0.0589 -0.1298
11047W        W29794  16.396  18.472   5.058  0.1280 -0.0875 -0.0579
11048W        W29795  14.119  26.550  23.337 -0.0486  0.1458  0.0562
11049W        W29796  14.522  29.894   3.606 -0.1431 -0.1894 -0.1436
11050W        W29797  22.789   7.456   2.908  0.0836 -0.0766 -0.0628
11051W        W29798  19.379  26.965   7.183  0.0154  0.3103 -0.2240
11052W        W29799  11.277  29.677   9.194  0.0964 -0.0134 -0.0339
11053W        W29800   9.395  20.015  11.533  0.1378  0.1806 -0.0014
11054W        W29801  14.891  23.516  14.929  0.0014 -0.0609  0.1374
11055W        W29802  12.326  24.922   9.258  0.2634  0.0450 -0.0899
11056W        W29803  15.601  10.908  22.230  0.2091 -0.1397 -0.1751
11057W        W29804  22.815   5.850  23.153 -0.1062 -0.2677  0.2141
11058W        W29805  32.793  25.823  19.228 -0.0003  0.0055 -0.1691
11059W        W29806   0.449   6.753  17.332 -0.0261 -0.2402 -0.0346
11060W        W29807  22.980  11.003   0.655 -0.0882 -0.0288 -0.2206
11061W        W29808  29.166  31.446  11.306  0.0041  0.2234  0.0181
11062W        W29809  33.556  17.792  25.597 -0.3420 -0.2282  0.1469
11063W        W29810   1.740  32.697   9.078 -0.2644  0.1013 -0.1481
11064W        W29811  30.336  17.179  15.078 -0.0976 -0.1238 -0.1139
11065W        W29812  27.600  27.413  19.449 -0.3128  0.1502 -0.1436
11066W        W29813  27.830   1.819  17.105  0.0003  0.0585 -0.2151
11067W        W29814   6.525  34.284   2.536  0.2715 -0.0058  0.4314
11068W        W29815   7.335  27.298   2.912 -0.2900 -0.3101  0.0894
11069W        W29816  33.720   8.560  17.452  0.2445 -0.1285  0.0169
11070W        W29817  26.666   8.524  21.547  0.1741 -0.2300 -0.1831
11071W        W29818  31.318  10.212  20.494 -0.0671 -0.3983  0.2109
11072W        W29819  13.886  25.765   7.678 -0.2122  0.3466 -0.0494
11073W        W29820   5.349  21.378   6.074 -0.2086  0.0355  0.1108
11074W        W29821  11.959   6.971   0.036 -0.1761  0.3052 -0.0711
11075W        W29822  11.115  26.413   1.100 -0.3847  0.0059  0.1857
11076W        W29823  11.661   7.709  23.263 -0.4499 -0.0188 -0.2447
11077W        W29824  24.815   7.665   0.539 -0.0336  0.2100 -0.2476
11078W        W29825  10.724  10.010   1.341  0.2503 -0.3121 -0.0756
11079W        W29826  30.383  31.665   4.575 -0.0814 -0.1463  0.3152
11080W        W29827  19.090  12.514   3.078 -0.0347 -0.0722 -0.2334
11081W        W29828  30.756   3.366  20.324  0.0058 -0.1342  0.1158
11082W        W29829  35.229   7.928   5.611  0.0918 -0.0912 -0.0460
11083W        W29830  18.177   2.829  17.715  0.1707 -0.2917 -0.0865
11084W        W29831  30.579   9.370  14.809  0.2301 -0.1296  0.1028
11085W        W29832  11.201   4.556  12.241 -0.1378 -0.0357 -0.0212
11086W        W29833  30.879  18.771  21.217 -0.0521  0.6537  0.1655
11087W        W29834  21.021  29.182   2.981  0.0453  0.1854 -0.1064
11088W        W29835  33.384  32.368  21.229  0.1645 -0.2209  0.1512
11089W        W29836  22.408  12.971  24.607  0.2453 -0.3132  0.0972
11090W        W29837   8.209  18.508  19.098  0.2303 -0.1310 -0.1889
11091W        W29838   9.841   4.005  21.354 -0.0617 -0.0149  0.3648
11092W        W29839   8.862  11.965   6.182  0.1576 -0.2590 -0.0315
11093W        W29840  19.997  17.297  25.059  0.3287  0.0726 -0.0422
11094W        W29841  29.893  32.359  20.363 -0.0203 -0.0650 -0.0818
11095W        W29842  19.156  18.010  18.492  0.1519 -0.0855  0.1240
11096W        W29843  30.542  16.602   7.985 -0.2089  0.0172 -0.0034
11097W        W29844  17.039  27.211   6.034  0.0252  0.1863 -0.0355
11098W        W29845  24.561  11.718  14.559  0.0120 -0.3400  0.1926
11099W        W29846   1.841  16.472  14.875 -0.2358  0.0760 -0.0361
11100W        W29847   9.861   5.059   6.382 -0.1099 -0.2192  0.2265
11101W        W29848  30.182  13.753  22.954  0.0974  0.0457  0.0839
11102W        W29849  28.486   9.219  18.457  0.1193  0.4860  0.0673
11103W        W29850   5.359  14.222  16.904  0.1955  0.2733 -0.1223
11104W        W29851  15.038  23.898   0.445 -0.1122 -0.0792  0.0816
11105W        W29852   6.475   2.492  23.979 -0.1110 -0.0536  0.2704
11106W        W29853  13.600  14.281  23.392 -0.0822 -0.0430 -0.1351
11107W        W29854  31.878  15.098   5.839 -0.0382 -0.1658  0.1488
11108W        W29855  11.202  26.687  10.943  0.0424  0.3420  0.2822
11109W        W29856  14.152   3.277   6.817  0.1200 -0.3167 -0.2423
11110W        W29857  33.356   3.227  21.132 -0.4072 -0.0207  0.2674
11111W        W29858  26.573  18.096  10.701  0.0299 -0.0970  0.0171
11112W        W29859  31.783  35.148   0.951 -0.0543  0.1055 -0.3339
11113W        W29860   1.547   9.377   2.879  0.1862  0.0616 -0.2821
11114W        W29861  32.532  14.400  17.271 -0.0024 -0.1298  0.3205
11115W        W29862  17.476   3.376  20.589  0.0905  0.0469  0.0215
11116W        W29863   7.339   4.444  25.709 -0.2169 -0.1694  0.0331
11117W        W29864   2.171   4.507   0.334 -0.0705  0.1497 -0.0126
11118W        W29865   9.954   1.312   1.287  0.0238 -0.2185  0.1017
11119W        W29866   6.346  33.039  10.233 -0.1599  0.1219 -0.3288
11120W        W29867  11.260  15.039   2.904  0.1017 -0.0753  0.0965
11121W        W29868  28.723  26.855  19.807 -0.0996  0.1276  0.0203
11122W        W29869  22.324  18.141  20.766 -0.4643  0.3497 -0.1129
11123W        W29870  33.515  31.572  19.200 -0.2131  0.0757 -0.0682
11124W        W29871  24.411  30.077   3.898 -0.0462  0.1700  0.1612
11125W        W29872  32.518  16.295  12.166  0.2196  0.0162  0.0601
11126W        W29873  34.015   7.286   0.984 -0.1353 -0.1572  0.2048
11127W        W29874  27.722  12.149  23.512  0.1270 -0.1365  0.0437
11128W        W29875   5.698  33.786   6.596  0.1868 -0.0261  0.0446
11129W        W29876  21.661  21.351   4.286  0.1037 -0.2538 -0.0280
11130W        W29877  15.236  16.973  12.085 -0.0926  0.2751 -0.1407
11131W        W29878  35.154  23.671   1.651 -0.1020 -0.0779  0.0880
11132W        W29879   2.174   5.326  18.733  0.1093 -0.3226 -0.0260
11133W        W29880  34.796  21.915  22.104 -0.2031  0.3788  0.1432
11134W        W29881   2.509  22.766  18.079 -0.1035 -0.0866 -0.0017
11135W        W29882  17.099  22.122   4.000  0.0939  0.1181 -0.4863
11136W        W29883  32.493   6.139  18.507  0.3872  0.0298 -0.1763
11137W        W29884   6.871  13.040   2.224 -0.1963  0.1765 -0.2155
11138W        W29885  31.190  32.978  13.309  0.0375 -0.0583  0.1273
11139W        W29886  16.717  13.888  18.340 -0.0341  0.2115  0.2092
11140W        W29887  32.521  30.394  13.279 -0.0241 -0.3542 -0.0241
11141W        W29888   0.340  31.973  19.663  0.0636 -0.1621 -0.1638
11142W        W29889  28.280  35.004  24.471  0.0043 -0.3414  0.0898
11143W        W29890   5.511  20.193  21.202  0.1547  0.1825  0.1861
11144W        W29891  15.016  14.075   2.543  0.0124  0.1582 -0.2124
11145W        W29892  20.362   4.082  17.703  0.0794  0.0714 -0.0454
11146W        W29893   1.281  14.720  14.203  0.1065  0.2468 -0.0796
11147W        W29894   8.556  14.139   5.174  0.0876 -0.3845  0.2513
11148W        W29895   1.993  31.479   5.825 -0.1130 -0.3431  0.1303
11149W        W29896   5.260  31.657  11.301 -0.0530 -0.0785 -0.0586
11150W        W29897   1.002  16.556  25.044 -0.0118 -0.2136 -0.1855
11151W        W29898  12.205  26.390  10.180 -0.0754  0.0473 -0.0116
11152W        W29899   9.180  22.109   1.017 -0.4655 -0.3396  0.0050
11153W        W29900   8.406   2.497   3.439  0.0371  0.0254 -0.1014
11154W        W29901  14.229  10.860   7.485 -0.0906  0.0986 -0.3274
11155W        W29902  31.655  12.182  24.557  0.1523 -0.2043  0.1522
11156W        W29903  10.955  21.448  13.739 -0.1100 -0.1439 -0.2078
11157W        W29904   0.856  16.214  16.219  0.0899 -0.0685  0.2311
11158W        W29905  28.214  33.802  22.233  0.2873 -0.1384 -0.0098
11159W        W29906  20.571   5.657   0.198 -0.0762 -0.2786  0.4020
11160W        W29907   8.893   0.672  24.201  0.1286  0.1168 -0.1295
11161W        W29908  26.967  19.426  23.512 -0.3414  0.1537  0.2474
11162W        W29909  14.600  15.306   1.140 -0.1899 -0.0166  0.0517
11163W        W29910  34.361  30.380  15.513 -0.0252 -0.1622  0.0935
11164W        W29911  32.833  28.454  17.998 -0.3093  0.3179 -0.0371
11165W        W29912   0.581  29.421  24.319  0.1988 -0.1539  0.3500
11166W        W29913  23.481  11.040  21.167  0.0888 -0.0406 -0.1285
11167W        W29914  25.149   4.480  23.655 -0.0625 -0.1842 -0.0154
11168W        W29915   5.641  13.083  17.543 -0.1851  0.0496 -0.2797
11169W        W29916   3.598  13.239  20.107 -0.0212 -0.1401 -0.1927
11170W        W29917  28.860  30.819  23.312  0.1451 -0.3562 -0.1801
11171W        W29918  30.178   2.298   4.790 -0.0973  0.2017  0.0809
11172W        W29919  23.793  19.305  20.542 -0.3102  0.1237  0.1838
11173W        W29920  32.376  28.559   3.648 -0.0997  0.2085 -0.3572
11174W        W29921  15.357  34.472  24.473 -0.2579 -0.4354  0.1655
11175W        W29922  30.276   7.480  20.389 -0.0738 -0.0657  0.4000
11176W        W29923  27.931  26.998  23.104 -0.3606 -0.1926  0.1856
11177W        W29924  25.759   4.346  25.453  0.1810  0.0223 -0.1983
11178W        W29925  26.763  10.092  25.286  0.1013 -0.1876 -0.1872
11179W        W29926  34.691  16.178  25.565 -0.0114 -0.1207 -0.0769
11180W        W29927  32.096  10.628  23.671 -0.0437 -0.1122  0.2076
11181W        W29928  26.901   2.662  10.715 -0.1042  0.3292 -0.1179
11182W        W29929   7.296  26.686  16.567  0.3962  0.0524  0.2630
11183W        W29930  29.394  17.763  22.809 -0.0179  0.1367 -0.4035
11184W        W29931  17.241   0.423   3.652 -0.1528  0.0725  0.1105
11185W        W29932  17.721  16.306  23.936  0.0032 -0.1550  0.0141
11186W        W29933  11.326   4.722   6.109 -0.2727 -0.0045 -0.1480
11187W        W29934  25.326  18.058  14.258  0.0737 -0.0406  0.2297
11188W        W29935  28.823  24.135  23.134 -0.0261 -0.0320 -0.1088
11189W        W29936  31.980  30.257  13.992 -0.3292 -0.1330  0.1848
11190W        W29937  13.666  26.588   6.823 -0.1812 -0.1620  0.1501
11191W        W29938   2.732  25.433   0.210 -0.0866 -0.1230 -0.3236
11192W        W29939  17.453   5.398  19.090  0.2369  0.0624  0.1344
11193W        W29940   6.870   7.798   1.073  0.0203  0.1456  0.2271
11194W        W29941  11.064   5.719   3.123  0.0239  0.1716 -0.0044
11195W        W29942  18.316   2.444   4.635 -0.3708  0.1581 -0.0158
11196W        W29943  10.001  12.718  25.912  0.3076  0.3276  0.0168
11197W        W29944  19.155  18.200   5.825 -0.1943 -0.1529  0.0273
11198W        W29945  25.806  32.214   1.508 -0.0146  0.4082 -0.5207
11199W        W29946   6.953  19.996   1.576 -0.0179  0.1445 -0.2433
11200W        W29947   3.527   1.790   4.480 -0.3428 -0.1462  0.1666
11201W        W29948  27.689  19.014   9.035 -0.0466 -0.0943  0.1083
11202W        W29949  33.803  17.852  15.823 -0.1657 -0.3065 -0.0171
11203W        W29950  18.419  19.921  22.517  0.0328  0.0048 -0.0192
11204W        W29951   0.390  35.174  19.906  0.0577 -0.2594  0.1293
11205W        W29952  11.422  10.006  13.004 -0.2495 -0.0418 -0.0423
11206W        W29953   2.414  11.130  20.346 -0.0571 -0.1956 -0.2145
11207W        W29954  24.166  29.169  20.685 -0.2325 -0.4566 -0.0946
11208W        W29955  13.665  11.386   7.963 -0.1704  0.1878  0.0429
11209W        W29956  33.628  34.426   2.247  0.0906  0.2497 -0.0852
11210W        W29957  18.665  16.734   9.008 -0.2112  0.1799 -0.1435
11211W        W29958  10.264  18.653   0.299  0.0468  0.0205 -0.0205
11212W        W29959  19.417   0.740  17.528  0.4063 -0.2231 -0.1368
11213W        W29960  27.448  31.668   1.862 -0.0889 -0.2571  0.0454
11214W        W29961  15.482   8.178  10.044 -0.0403  0.0465  0.0995
11215W        W29962  22.468   0.966  16.249  0.1983  0.1603  0.3377
11216W        W29963  23.406  22.260   3.579  0.2271 -0.0346 -0.1143
11217W        W29964  23.385   0.349  13.694  0.0583 -0.3371 -0.0553
11218W        W29965  23.759   1.583   1.723 -0.0752 -0.0044 -0.0012
11219W        W29966   9.237   8.738   8.592 -0.0364 -0.2006 -0.2323
11220W        W29967  20.799   1.203  23.794 -0.2367  0.1067  0.0510
11221W        W29968  22.295   8.026  19.028  0.0098 -0.0587 -0.2641
11222W        W29969  13.484  19.912   0.960 -0.3229 -0.0178 -0.0185
11223W        W29970  11.535  23.565  11.112 -0.1243  0.2264  0.0709
11224W        W29971   9.300  24.338  25.533 -0.0102  0.1976 -0.0775
11225W        W29972  24.009  14.459   0.493  0.0208  0.3156 -0.0837
11226W        W29973  23.615   9.413  23.087 -0.1078  0.0269 -0.0688
11227W        W29974  12.297  29.709  14.719 -0.1376  0.0422 -0.3137
11228W        W29975  24.815  21.765   0.880 -0.1896  0.0919 -0.1506
11229W        W29976  10.711   3.365  20.106  0.0449  0.2101  0.2635
11230W        W29977  31.869   1.999   3.267  0.0133  0.3131 -0.0890
11231W        W29978  30.443  28.561  11.292 -0.0308 -0.1943  0.2829
11232W        W29979  10.431  19.643   2.842  0.1732 -0.1150 -0.0749
11233W        W29980  16.152   6.974   9.871  0.0489 -0.1565 -0.0865
11234W        W29981  33.021  19.855  19.365  0.1172 -0.0351  0.0902
11235W        W29982  24.437  21.112  17.325 -0.2476  0.0932  0.2611
11236W        W29983   4.742   1.979   0.777 -0.2985  0.0943  0.0465
11237W        W29984  27.992  12.023   8.697 -0.0112 -0.1875 -0.0933
11238W        W29985  12.820  21.463  10.176  0.1204 -0.0290 -0.1380
11239W        W29986   4.106   3.990   9.510 -0.2035 -0.1668  0.1353
11240W        W29987  10.211  16.227  25.263 -0.0214  0.1988 -0.1226
11241W        W29988  22.175  19.396   1.955  0.0886 -0.0796  0.5172
11242W        W29989   4.171  22.495  22.677 -0.1549 -0.0467  0.3525
11243W        W29990  21.315  11.826  26.224 -0.1935  0.0822  0.4350
11244W        W29991  33.389  12.025  22.637  0.2119  0.1096 -0.1075
11245W        W29992  29.573  24.634  13.729 -0.0987  0.0871 -0.1086
11246W        W29993   8.487  21.842   7.746  0.2788 -0.2415  0.0372
11247W        W29994  20.519  13.561   2.096  0.0276  0.1760 -0.2612
11248W        W29995   6.635  30.709   5.632  0.1341 -0.3884  0.0357
11249W        W29996  24.575   4.107   6.148 -0.0871 -0.0105  0.0224
11250W        W29997  19.570  11.185  22.040 -0.3566 -0.0649  0.2905
11251W        W29998  18.629  27.120   8.545  0.0081  0.0325 -0.3471
11252W        W29999  32.312   0.944  24.600  0.0747  0.0841 -0.1223
11253W        W30000  22.644  12.873  17.353 -0.1763  0.2173  0.2163
11254W        W30001  14.971  21.574   7.423 -0.0147  0.0995 -0.3472
11255W        W30002   4.071  15.106  15.278  0.0435 -0.0270 -0.1120
11256W        W30003  33.354   4.593   1.112  0.0461 -0.0788 -0.0855
11257W        W30004   9.645  18.638   8.537 -0.1954  0.0808 -0.0118
11258W        W30005  17.257  14.326   8.670  0.1539  0.1045 -0.0314
11259W        W30006   4.109  10.970  26.140 -0.0179  0.0438 -0.0814
11260W        W30007   1.371  15.701  16.724  0.0305 -0.2451 -0.1744
11261W        W30008   1.227  17.923  25.985  0.0218 -0.3842  0.1423
11262W        W30009  14.169  17.382   9.515 -0.0041 -0.0335  0.4219
11263W        W30010  27.173  19.673   9.278 -0.2471  0.1782 -0.3196
11264W        W30011  24.681  30.229  15.511  0.2051 -0.2024  0.0075
11265W        W30012  18.351   7.441   3.250 -0.0125 -0.3538  0.0145
11266W        W30013  22.101   6.795  21.118 -0.3365 -0.0627 -0.2115
11267W        W30014  18.758  19.809  22.963 -0.1996 -0.0063  0.2956
11268W        W30015  29.653  34.737   2.863 -0.0284 -0.1370 -0.2175
11269W        W30016   4.848  15.398  22.157 -0.2111  0.0503 -0.1836
11270W        W30017  31.652  23.924  21.927  0.1516  0.2973 -0.1352
11271W        W30018  28.906  10.164  20.823 -0.0260  0.1598 -0.3765
11272W        W30019  23.359   9.089   4.378 -0.2180  0.2135 -0.0957
11273W        W30020   2.297  20.664  18.647  0.1559  0.0202  0.0608
11274W        W30021  11.344  31.257   8.360  0.2302  0.1924  0.2723
11275W        W30022  34.869  27.079  24.703  0.2253  0.0223  0.0767
11276W        W30023  17.518  31.447  10.973  0.0145 -0.2476 -0.2118
11277W        W30024  28.839  15.535  10.227 -0.0937  0.1669  0.1659
11278W        W30025  22.875  26.641  18.941  0.3709  0.0241 -0.2451
11279W        W30026   9.201   7.547   7.925 -0.0703 -0.1010 -0.0088
11280W        W30027  15.925  26.949   6.552  0.0890  0.0158 -0.0024
11281W        W30028   7.245   1.077  23.000  0.0478 -0.0730 -0.0626
11282W        W30029  33.402   7.871  24.372  0.2015 -0.0025  0.2406
11283W        W30030   0.806  13.766  10.913  0.3087  0.0733 -0.0299
11284W        W30031   5.501  10.131   5.298  0.1337  0.2622  0.3026
11285W        W30032   5.619  11.874  18.944  0.4161  0.3186  0.1609
11286W        W30033   2.579  13.334  25.610  0.0831  0.1093 -0.3427
11287W        W30034  24.422  14.726   1.376  0.1950 -0.2806  0.2487
11288W        W30035   2.535  25.658  23.431  0.2318  0.1080 -0.3488
11289W        W30036  30.227  25.631  26.057 -0.1636 -0.0186 -0.1741
11290W        W30037  32.393   8.961  13.647  0.1870 -0.0110  0.0602
11291W        W30038  10.304   9.495   7.083  0.2724 -0.2217  0.0393
11292W        W30039  12.702  27.294   3.873 -0.1972 -0.2178  0.2652
11293W        W30040  33.854  28.370   3.763  0.2532  0.2232 -0.1985
11294W        W30041  14.565  13.675  19.733 -0.2013  0.0057  0.0530
11295W        W30042   6.722  18.757   2.235 -0.2105  0.0357  0.1232
11296W        W30043   3.712  18.035  25.280  0.0981 -0.0623  0.2917
11297W        W30044  29.343  10.233  17.413  0.1510 -0.1986 -0.0689
11298W        W30045  13.986  24.014  14.103  0.1369 -0.0386  0.1699
11299W        W30046   4.054  11.499   5.281  0.2305 -0.2455  0.0151
11300W        W30047  15.095  32.933  21.113  0.1167  0.2341 -0.0512
11301W        W30048  24.797   6.981  17.727  0.2264 -0.1432 -0.4166
11302W        W30049  18.652  29.869  23.157 -0.1160  0.0916 -0.3328
11303W        W30050  16.504  17.524   8.346  0.0450 -0.0784 -0.2679
11304W        W30051  15.582  33.873   0.890  0.0558  0.3256  0.1367
11305W        W30052   6.826  12.325  24.890 -0.2179  0.3332  0.0776
11306W        W30053   8.295   4.056   1.660  0.3132 -0.0154 -0.3289
11307W        W30054   6.149  15.405   7.008  0.0354  0.5069 -0.2562
11308W        W30055  15.864  20.298  22.690 -0.0788  0.1117 -0.3225
11309W        W30056   3.834  31.223  22.378 -0.1914 -0.0303  0.1678
11310W        W30057  19.630  16.337   9.132 -0.0590 -0.0029  0.1669
11311W        W30058  22.957  10.978   3.055  0.0831  0.0871 -0.0312
11312W        W30059  26.794  21.596  21.404  0.0480  0.0777 -0.2038
11313W        W30060   6.679   8.219   1.303 -0.2409 -0.0702  0.4134
11314W        W30061   1.345  33.271   8.534 -0.0636 -0.1477 -0.0850
11315W        W30062   4.900  31.777   3.247  0.1381  0.1221  0.3164
11316W        W30063   7.502   3.867   6.971 -0.1725  0.0369  0.1124
11317W        W30064   5.604  29.566  13.850  0.1057 -0.2254 -0.4635
11318W        W30065  30.741  20.230   5.380 -0.1476 -0.2546 -0.0146
11319W        W30066  33.417  28.412   3.372 -0.1002 -0.1113 -0.0710
11320W        W30067  21.665  11.176  21.485  0.3220  0.0455 -0.0131
11321W        W30068  10.162  29.109  14.009  0.0347 -0.4473 -0.2846
11322W        W30069  24.599  32.882  15.450  0.1734 -0.0578 -0.1135
11323W        W30070   1.946  29.429   6.992 -0.0501  0.3654  0.0420
11324W        W30071  18.187   3.523  21.350  0.2917 -0.2583 -0.0325
11325W        W30072  28.712   6.934  10.324  0.1873 -0.2962 -0.1139
11326W        W30073   7.537  21.083   3.696  0.1591  0.0795 -0.1800
11327W        W30074  13.075   8.368   7.506 -0.1660  0.2089  0.0635
11328W        W30075   8.659   3.370   3.692  0.2551  0.0495 -0.2194
11329W        W30076  16.691  12.805  13.900 -0.1631 -0.1819 -0.0434
11330W        W30077   5.257  18.630   5.826  0.1442  0.0822  0.1266
11331W        W30078   2.087  19.969   0.886  0.1232  0.2912  0.1718
11332W        W30079   4.910   2.669   5.610 -0.1480 -0.2096 -0.0914
11333W        W30080  24.277   4.430   4.923 -0.1519 -0.4619 -0.2207
11334W        W30081  25.165  35.208   2.169 -0.0372  0.0202 -0.1223
11335W        W30082  24.709  21.214  25.634  0.2272 -0.0688  0.1008
11336W        W30083  34.142  34.336   1.984 -0.0353 -0.1073  0.0484
11337W        W30084   2.699   2.902  18.919  0.2493 -0.0374  0.0398
11338W        W30085  19.404  12.375  20.417  0.0637 -0.0086 -0.0714
11339W        W30086   1.827   7.544   4.906 -0.1397  0.3548  0.0372
11340W        W30087  25.899  29.668   5.066 -0.0825  0.0823  0.0401
11341W        W30088  12.282  34.525  11.970  0.0248 -0.1394  0.1439
11342W        W30089  33.089  23.560  24.900 -0.2850 -0.0908  0.2233
11343W        W30090  26.478  12.614   7.463 -0.1775  0.1864 -0.1016
11344W        W30091   3.376  25.951  19.820  0.1814  0.0105  0.0630
11345W        W30092  24.551   6.946  20.028 -0.4021 -0.0321 -0.1583
11346W        W30093  15.713   7.211  11.561  0.1192  0.1168  0.0673
11347W        W30094  12.261  21.555  15.115  0.0825  0.0291 -0.1598
11348W        W30095  23.614   5.660   6.008  0.0354  0.1114 -0.0578
11349W        W30096   5.991   9.625   9.444 -0.2825 -0.1773  0.0053
11350W        W30097  17.171  29.092  10.500 -0.0768  0.1343 -0.1810
11351W        W30098   0.045  23.260  19.292  0.2717 -0.1868  0.0923
11352W        W30099  29.173  22.298  15.438 -0.3448 -0.2141 -0.1270
11353W        W30100   7.709  29.489  10.075  0.2219 -0.1583 -0.0018
11354W        W30101   0.765   1.152  15.670  0.1072 -0.0808  0.2165
11355W        W30102  27.876  14.445  18.755  0.0571  0.2574 -0.0166
11356W        W30103  13.288  33.226   7.120 -0.1459 -0.1989 -0.0168
11357W        W30104  34.612  18.302  11.115 -0.2275  0.2153 -0.3603
11358W        W30105  24.780  29.173  13.075 -0.1307 -0.0216 -0.2848
11359W        W30106   4.940   8.834   2.400 -0.0010  0.1165 -0.0660
11360W        W30107   2.549  11.281  15.605  0.2099  0.2769  0.4665
11361W        W30108   4.464   3.633   6.289  0.4318 -0.1674 -0.1275
11362W        W30109  25.410  30.081   1.756  0.2179  0.2948 -0.1727
11363W        W30110   1.283  11.578  25.007 -0.0441  0.3239  0.1944
11364W        W30111  26.095   9.245  21.764  0.0893  0.1024 -0.2011
11365W        W30112   7.630  12.568  23.912  0.0028 -0.0600  0.4536
11366W        W30113  20.816  25.636  20.583  0.2297  0.0267 -0.0562
11367W        W30114   8.169   0.632   2.914 -0.1766  0.1013 -0.1702
11368W        W30115  34.686  20.995  13.223 -0.4063  0.0979  0.0143
11369W        W30116  35.292  20.847  22.620 -0.0569  0.4394 -0.1336
11370W        W30117   0.761  22.902  19.455  0.2508  0.3091 -0.3274
11371W        W30118   6.201  33.193   5.917 -0.1410 -0.0019 -0.0751
11372W        W30119   0.434   5.552  13.069 -0.1152  0.0716  0.0353
11373W        W30120  10.455  10.529  25.228  0.0053 -0.0414 -0.0719
11374W        W30121  12.745  11.829  22.832 -0.4572  0.3809  0.2946
11375W        W30122  13.880  26.229   0.771  0.1147 -0.0058  0.1933
11376W        W30123  27.500  20.693  19.693  0.0456  0.0068  0.1793
11377W        W30124  19.475   4.749  24.104 -0.3472  0.1086 -0.1824
11378W        W30125  35.240   3.881   6.754 -0.0665  0.0215 -0.1885
11379W        W30126  10.943  18.477  10.072  0.0805 -0.0404 -0.0571
11380W        W30127  22.901  32.307  21.854  0.2014  0.3239  0.0997
11381W        W30128  33.687  16.908  17.918  0.5327 -0.1456  0.1083
11382W        W30129   5.387   5.211  22.024 -0.0960 -0.0644 -0.0904
11383W        W30130  15.643  13.199   4.964  0.2770  0.0469 -0.1866
11384W        W30131   7.083  14.210  21.952 -0.1457 -0.0194 -0.1925
11385W        W30132  28.989  23.875  15.369  0.1093 -0.2646  0.1933
11386W        W30133   3.263   8.039  20.067  0.0119  0.2587 -0.2381
11387W        W30134   0.908  13.740  24.638 -0.3198 -0.0897  0.2554
11388W        W30135  26.887   0.432   4.873 -0.0496 -0.3786 -0.0158
11389W        W30136   1.330  18.232  20.703 -0.3640 -0.0014 -0.3515
11390W        W30137   7.776  26.109  22.907 -0.2562  0.2372 -0.1758
11391W        W30138  16.357  27.387  12.659 -0.1038 -0.0428  0.0680
11392W        W30139  21.066   3.079   7.973 -0.0500  0.0951  0.3189
11393W        W30140  29.734  31.850  21.286  0.2460  0.0735  0.2471
11394W        W30141   1.842   5.870   5.778 -0.1490 -0.2901  0.0153
11395W        W30142  22.620   0.848   7.419 -0.2399 -0.2256 -0.1407
11396W        W30143   6.864   1.461   2.751  0.2358 -0.1899 -0.0063
11397W        W30144  34.533   7.478  13.475  0.0827  0.0183 -0.0090
11398W        W30145  12.794  15.676   9.873  0.3295 -0.0574  0.2582
11399W        W30146  18.540  17.880  22.984 -0.0620  0.0261  0.1481
11400W        W30147  14.407  26.818   7.581  0.3704  0.1713 -0.2209
11401W        W30148  20.283  13.680  23.918  0.2903 -0.0261 -0.2060
11402W        W30149   3.640  35.347  18.844  0.4822 -0.4091 -0.1171
11403W        W30150  25.526  15.947  14.950 -0.1218  0.0150 -0.1009
11404W        W30151  28.109   2.601  14.283  0.1103 -0.2610 -0.0686
11405W        W30152  15.586   5.562  21.035  0.0676  0.0590  0.1064
11406W        W30153  29.186  19.195   9.915  0.0087  0.1230 -0.3611
11407W        W30154  30.454  15.578  16.404 -0.1666 -0.2037 -0.0793
11408W        W30155  15.869   5.309   5.805  0.2905  0.0841 -0.0608
11409W        W30156  34.135  23.974  21.260 -0.2618 -0.0405  0.1172
11410W        W30157  18.431  32.532   6.436 -0.2588  0.0906  0.1222
11411W        W30158  24.691  12.218  24.235  0.2778  0.1086  0.0849
11412W        W30159  34.767  24.109  14.933  0.0036  0.0496 -0.2928
11413W        W30160   9.442  16.859   5.782  0.0812 -0.1498  0.0796
11414W        W30161   4.403  10.146   8.912 -0.0614 -0.1021  0.1109
11415W        W30162  19.278  34.951  21.892 -0.1515  0.3346 -0.1218
11416W        W30163   3.097  22.538  21.153  0.2122 -0.1298  0.1683
11417W        W30164  16.880  33.459  20.881  0.1480  0.1461  0.1299
11418W        W30165  29.394   2.599  15.522  0.1178  0.1208  0.0118
11419W        W30166  30.685  14.397  13.764  0.1878  0.3487 -0.2913
11420W        W30167   2.413  21.837  12.720  0.1002  0.0085  0.0708
11421W        W30168   8.206  23.931   9.215 -0.1243  0.0586 -0.3209
11422W        W30169  27.531   5.549  20.304  0.0222 -0.0500 -0.2498
11423W        W30170  18.469  29.806   3.601 -0.2340 -0.0370 -0.1745
11424W        W30171  24.534  34.933  14.246  0.0421  0.2549 -0.0890
11425W        W30172  15.443  26.675   7.101  0.0132 -0.1911 -0.0774
11426W        W30173  18.200  23.392   6.000 -0.0588  0.1215  0.0847
11427W        W30174  14.772  32.607   6.373  0.1816 -0.2786  0.1037
11428W        W30175  26.052  22.397  10.990  0.3227  0.3919  0.1776
11429W        W30176   9.525  28.202   1.527 -0.0506  0.1478 -0.4278
11430W        W30177  20.161  32.147   6.220 -0.2648 -0.1606  0.1374
11431W        W30178  27.739  20.066  19.158  0.0746 -0.0477 -0.0264
11432W        W30179  33.261  31.089   4.547 -0.1411  0.1014 -0.1395
11433W        W30180  32.211  13.108  19.080  0.0585  0.0222  0.0081
11434W        W30181  25.137  19.716  16.530  0.2598 -0.2559 -0.1796
11435W        W30182  10.432   9.121   3.567  0.1790 -0.1526 -0.2888
11436W        W30183  28.066  13.177  15.091  0.0436  0.2141  0.1792
11437W        W30184  34.824  23.256  13.267  0.2558  0.1108  0.2878
11438W        W30185  10.536  28.252  10.766 -0.0910  0.1144 -0.0334
11439W        W30186  12.199  29.836  25.740 -0.0548  0.4704  0.1670
11440W        W30187  21.244   0.655   7.616  0.3197 -0.1294 -0.0864
11441W        W30188  23.014   5.746   2.545 -0.0708 -0.1149 -0.0635
11442W        W30189   5.592  22.396   6.255 -0.0951 -0.0714  0.1893
11443W        W30190  32.275  24.339  21.270  0.2907  0.0652 -0.0500
11444W        W30191  32.360   7.986  10.483 -0.3343  0.0149 -0.1160
11445W        W30192   1.079   9.562  15.383  0.0138 -0.1992  0.1804
11446W        W30193  17.321  20.777   7.703 -0.5213 -0.0897 -0.0168
11447W        W30194  27.096  30.089   2.499 -0.0308 -0.1858 -0.0266
11448W        W30195  25.637  27.041  19.319 -0.1088 -0.1946  0.2057
11449W        W30196  17.483  19.702   3.442 -0.3557  0.1284 -0.0146
11450W        W30197   7.901  18.546  22.388 -0.1501 -0.1070  0.0389
11451W        W30198  14.993  23.410   9.864  0.3529  0.2868 -0.0841
11452W        W30199   8.261  10.326   4.025  0.0881  0.1642  0.2956
11453W        W30200   2.660   9.986  16.454 -0.3121 -0.1999 -0.0279
11454W        W30201  21.432  26.327   5.230 -0.0408  0.1043  0.2540
11455W        W30202  16.179  14.048  22.345 -0.0755 -0.2413 -0.1647
11456W        W30203  34.565   0.367   2.283  0.1340  0.1536 -0.0301
11457W        W30204   8.047  21.155  20.900  0.1495  0.0493  0.1352
11458W        W30205  28.262  25.480  15.592 -0.2831 -0.0222  0.2454
11459W        W30206  23.784   8.252  25.354  0.1542 -0.1503 -0.0661
11460W        W30207  20.693  28.576  26.221 -0.2912 -0.0642 -0.0874
11461W        W30208  23.891  33.554  18.101  0.2326  0.1640  0.0105
11462W        W30209  19.972   3.814   7.893  0.2191  0.1735  0.0370
11463W        W30210   7.775  23.472   0.970 -0.1521 -0.0086 -0.1312
11464W        W30211  21.006   7.309  20.488  0.2854  0.0064 -0.1068
11465W        W30212   1.967  29.560  19.285  0.1212  0.1138  0.0782
11466W        W30213  27.813  21.655   9.362 -0.2435 -0.0230  0.0680
11467W        W30214  28.668  33.427   2.585  0.0669  0.0452 -0.1410
11468W        W30215  25.047  10.513  11.081 -0.0354 -0.2520  0.1109
11469W        W30216   8.882   3.841  20.334 -0.1291  0.1177  0.2360
11470W        W30217  25.519  33.059  14.366  0.1197  0.0181 -0.0658
11471W        W30218   6.751  31.428  13.132 -0.1254 -0.0248 -0.2650
11472W        W30219   0.394  21.161  22.069  0.0768  0.4209  0.0680
11473W        W30220  16.276  18.210   2.829 -0.1730 -0.0309 -0.0798
11474W        W30221   1.997   9.888  15.822 -0.3621  0.0049  0.1339
11475W        W30222  31.048  17.014  19.798 -0.0738  0.0902  0.0637
11476W        W30223  19.161  29.164   9.855  0.0719  0.2166 -0.0175
11477W        W30224  26.098  35.214  12.752 -0.3524  0.1150 -0.0964
11478W        W30225   8.150  34.233  22.100  0.0527  0.2622  0.2682
11479W        W30226  14.592  25.208  12.451 -0.2266  0.2177  0.3965
11480W        W30227   0.645  33.004   2.924 -0.1243 -0.1182 -0.0091
11481W        W30228   4.705  29.496   7.719 -0.0291  0.0104  0.1971
11482W        W30229  15.028  14.311  10.149 -0.0288 -0.0529  0.1098
11483W        W30230  12.247  24.630   8.485  0.2569  0.0018  0.0690
11484W        W30231  16.526  16.610   2.032  0.2779  0.1511  0.0008
11485W        W30232  19.220  32.229  22.859 -0.1205  0.0222 -0.0738
11486W        W30233  33.414  26.628  18.795  0.0993 -0.1804  0.2905
11487W        W30234   9.020  26.637   8.934 -0.0914  0.0090  0.0573
11488W        W30235  18.184  21.962   2.155 -0.0351 -0.1024 -0.2189
11489W        W30236  16.336   2.207  18.778 -0.0475  0.0497  0.0751
11490W        W30237  25.344  29.740  20.137  0.1852 -0.0183 -0.2213
11491W        W30238   1.968  11.399  20.532 -0.0989  0.0838 -0.1221
11492W        W30239  30.846   7.831  19.342  0.0571  0.1347  0.0066
11493W        W30240  10.551   1.622   5.064  0.4882 -0.0038 -0.1286
11494W        W30241   6.796  26.915   5.092 -0.1034  0.1229  0.0702
11495W        W30242  17.401  25.985   0.558  0.0127  0.2026 -0.1318
11496W        W30243  29.471  20.536  14.076 -0.0842 -0.0860 -0.1461
11497W        W30244  28.811  14.251  17.363  0.1814  0.1297 -0.0941
11498W        W30245  20.869  34.629   4.724  0.4027 -0.1856 -0.1508
11499W        W30246  25.328  20.816  11.038 -0.0500 -0.0201  0.0169
11500W        W30247  23.214   2.002  16.087 -0.2531 -0.0378  0.1000
11501W        W30248   9.407  17.974  23.861  0.0766  0.0853  0.1268
11502W        W30249  32.536  30.588   0.357  0.0572 -0.1215  0.0951
11503W        W30250  23.328   0.887  25.082  0.3698 -0.2199  0.0848
11504W        W30251  25.140  24.152  24.470  0.0211  0.0198  0.0201
11505W        W30252  22.886   5.987   7.063  0.3477 -0.1726  0.0326
11506W        W30253   1.220  17.606  20.495 -0.2211  0.2822  0.2513
11507W        W30254  11.708   4.208  25.529  0.1676  0.0525  0.5038
11508W        W30255  12.522   3.185  21.237 -0.0385  0.1142 -0.1485
11509W        W30256  18.076  22.009  19.693  0.2951 -0.0825  0.1716
11510W        W30257   5.682  35.186  20.552  0.1094  0.2769  0.4746
11511W        W30258  26.724  20.297   9.878 -0.0273  0.3179 -0.3273
11512W        W30259  31.077  14.472  24.988  0.1640 -0.1564 -0.1396
11513W        W30260   9.359  33.373   1.710  0.2588  0.0110 -0.2227
11514W        W30261  17.361  26.088  10.982 -0.1394  0.2141 -0.0961
11515W        W30262  26.569   7.491  12.800  0.0605 -0.0013 -0.0399
11516W        W30263   2.211  16.798   0.736  0.0638  0.0127 -0.0639
11517W        W30264   7.182   0.518   5.706  0.2258 -0.3679  0.0638
11518W        W30265  32.850  34.406   4.552 -0.3477 -0.1831  0.0628
11519W        W30266  29.362  33.315  15.838  0.3315 -0.0568 -0.2898
11520W        W30267   3.661  24.662   0.067 -0.0664 -0.1238  0.1186
11521W        W30268  22.947  19.907  18.811 -0.2569 -0.1218 -0.1047
11522W        W30269  32.371   7.034  22.287  0.1640 -0.2899  0.1100
11523W        W30270   4.997   2.578  22.176  0.0965 -0.1808  0.0162
11524W        W30271  27.789  21.998  23.357  0.1219  0.1185 -0.0477
11525W        W30272  26.747   6.597  24.484 -0.0008  0.2219  0.0824
11526W        W30273  33.100   1.136   3.320 -0.0386 -0.2417 -0.3559
11527W        W30274  21.308  34.483  20.355 -0.4545  0.0473  0.2156
11528W        W30275   9.888  19.469  24.983  0.2631  0.2738  0.1485
11529W        W30276   0.398  14.172  19.130 -0.0980  0.0659 -0.0218
11530W        W30277   1.991  33.085  19.830  0.0575  0.2053 -0.2200
11531W        W30278   0.943  26.484  16.383  0.0069  0.2531 -0.4331
11532W        W30279  15.471   3.812   1.235  0.1550  0.1686  0.1496
11533W        W30280  32.447   8.197  20.020 -0.1464  0.0912 -0.2347
11534W        W30281   1.769  13.802   0.297  0.0267  0.1867 -0.1342
11535W        W30282   7.621   3.223   2.265  0.0611 -0.3559 -0.0433
11536W        W30283   9.394  25.012  23.820  0.1434 -0.0599  0.4272
11537W        W30284  30.872  15.559   9.242 -0.3325 -0.0648  0.0262
11538W        W30285  35.255  13.668  22.976  0.2770 -0.3310  0.0311
11539W        W30286  33.144   2.580  21.650  0.0475  0.1116 -0.0752
11540W        W30287  10.422  25.449  25.278  0.1200  0.1800  0.0553
11541W        W30288  16.096  28.549   1.671  0.4091  0.0631 -0.0320
11542W        W30289  18.639  20.251   7.522 -0.3131  0.4103  0.0023
11543W        W30290   2.671  21.074  19.401 -0.1722 -0.0827  0.0405
11544W        W30291   8.913  15.446  20.958  0.0769 -0.1128  0.1846
11545W        W30292  27.123   7.562  14.134 -0.1364 -0.2302  0.1573
11546W        W30293  23.293  12.496  13.516 -0.2177 -0.1305 -0.2593
11547W        W30294  21.717   1.607   3.405  0.3366 -0.0884  0.0050
11548W        W30295  11.097  12.680  22.764 -0.2498  0.2934 -0.1370
11549W        W30296  11.595  30.894   5.618 -0.1816  0.2723  0.2134
11550W        W30297  25.214  13.143   0.588 -0.1603 -0.3217 -0.1699
11551W        W30298  10.571  17.024   9.906 -0.1217  0.2588 -0.2441
11552W        W30299  19.071   3.052  20.010  0.0563 -0.1722 -0.1386
11553W        W30300  32.212   3.400   6.076 -0.2953  0.0591 -0.2201
11554W        W30301  14.562  14.440  18.975 -0.1745  0.2524  0.0285
11555W        W30302  27.981   8.671  11.880 -0.1638  0.2520  0.1648
11556W        W30303  24.507  10.503  24.309  0.1200 -0.0110 -0.2969
11557W        W30304  20.484   7.679   4.917 -0.0927 -0.1066 -0.2595
11558W        W30305  21.311   5.539   7.170  0.2238  0.3625  0.0250
11559W        W30306  29.563  31.698   2.445 -0.2945 -0.0116 -0.3744
11560W        W30307  16.619  30.842   0.712 -0.0684 -0.0379 -0.0024
11561W        W30308   8.956  21.004  12.933  0.2121 -0.1479 -0.2306
11562W        W30309  10.288   3.876   8.770  0.0276 -0.0259 -0.0409
11563W        W30310  22.643   2.451  19.083  0.1564 -0.0072  0.1081
11564W        W30311  20.730  16.773   1.718  0.1665 -0.2283  0.0500
11565W        W30312  32.849  32.919   3.271 -0.0947  0.2743  0.2906
11566W        W30313  30.398  27.305  21.962  0.2529 -0.2110 -0.2164
11567W        W30314  15.422  22.579  14.433 -0.3340  0.1585 -0.1551
11568W        W30315  14.838  28.562  10.456  0.1949 -0.2670 -0.1929
11569W        W30316  21.763  14.107   0.144  0.0927 -0.1193  0.6040
11570W        W30317  28.025   2.681  25.481  0.1451  0.0630 -0.0076
11571W        W30318  17.186  21.507   8.667 -0.0653 -0.0035  0.1569
11572W        W30319  14.269   7.341  19.357 -0.3339  0.1900  0.1480
11573W        W30320  22.127   3.614  16.721  0.5107 -0.1045 -0.2838
11574W        W30321   6.621   7.456  19.212  0.1942  0.3113  0.0902
11575W        W30322  27.898  29.953  15.870  0.1404 -0.1133 -0.0828
11576W        W30323  30.970  20.935   8.077  0.0643 -0.3066  0.0056
11577W        W30324  21.041  17.875  16.855 -0.2049 -0.0483 -0.2323
11578W        W30325   5.827   3.532  21.894 -0.0833  0.4459 -0.0287
11579W        W30326   6.200  24.092   7.555  0.1687  0.1603  0.0714
11580W        W30327  12.680   5.335   4.329  0.2419 -0.1375  0.3438
11581W        W30328  27.373  35.079  13.761 -0.1973  0.0048 -0.2307
11582W        W30329  16.350  21.130   0.940  0.0251  0.0308  0.0761
11583W        W30330  28.101   1.866   0.469  0.1428 -0.0032  0.1868
11584W        W30331   3.572   9.614  16.227 -0.3266  0.1357 -0.0546
11585W        W30332  33.439  25.969  22.446 -0.2076  0.2128 -0.0075
11586W        W30333  33.782  16.427  19.582  0.1142  0.2245  0.2575
11587W        W30334  33.065  12.016   9.167  0.2114 -0.0413 -0.1140
11588W        W30335   0.455  11.306  17.814 -0.4379 -0.2100 -0.1888
11589W        W30336  15.304  31.018  12.480  0.0969  0.0123 -0.4993
11590W        W30337   8.450  25.330  24.738 -0.1119 -0.0599  0.2255
11591W        W30338  15.786  14.364   5.973 -0.1945  0.1994 -0.0142
11592W        W30339  15.546   2.869   2.713  0.1185 -0.3624  0.2597
11593W        W30340   3.094  10.530  21.397  0.1273  0.2423 -0.2646
11594W        W30341  28.117  20.814  19.174 -0.0172 -0.1431 -0.2634
11595W        W30342  30.150   7.114  16.589  0.1775  0.1244 -0.0320
11596W        W30343  11.191  26.560   1.644 -0.0953 -0.0343  0.0205
11597W        W30344  21.081  13.302  23.630  0.3040  0.2386 -0.3279
11598W        W30345   7.039   3.756   2.127  0.1335 -0.0366  0.3806
11599W        W30346  13.214   6.611   2.474 -0.1537 -0.0127 -0.0836
11600W        W30347  28.017  19.859  19.559  0.1363 -0.0364 -0.1147
11601W        W30348  12.253  31.892  23.185  0.0085 -0.0778  0.0949
11602W        W30349  13.607  12.948  22.148  0.0673  0.2304  0.0390
11603W        W30350  12.084   5.957   1.477  0.1991 -0.0762  0.1766
11604W        W30351  16.987  30.203  23.717 -0.1844  0.0620 -0.0126
11605W        W30352  26.845   4.815  24.164  0.2372  0.2797  0.2396
11606W        W30353   5.984  32.590  20.539  0.1221 -0.1886 -0.3064
11607W        W30354  21.664  29.721   3.952 -0.0410 -0.0907 -0.0065
11608W        W30355   6.887  15.187   1.239 -0.0970  0.1388 -0.0301
11609W        W30356   4.511   2.708  21.301 -0.0154 -0.1307  0.1807
11610W        W30357  17.101   3.065   2.341  0.0734  0.3474 -0.1421
11611W        W30358  11.907   5.322   2.007  0.0079  0.0497 -0.1027
11612W        W30359  32.204  13.144  14.232 -0.1007 -0.1141  0.2212
11613W        W30360  29.764  12.797  26.087 -0.1015 -0.2737 -0.0130
11614W        W30361  11.685   5.475  26.127  0.3781  0.2177  0.1518
11615W        W30362  12.591  28.391  15.295 -0.1929  0.0479 -0.0139
11616W        W30363   6.201  13.041   8.581  0.2307 -0.0746 -0.2103
11617W        W30364   2.936   2.079  16.173  0.3846 -0.0333  0.0526
11618W        W30365  12.455   6.656   3.241  0.1687 -0.0198 -0.2443
11619W        W30366  21.675  28.669   3.920  0.1281  0.0193 -0.2069
11620W        W30367   8.073  18.435   3.295  0.3335  0.3979 -0.1918
11621W        W30368  12.173   5.899   8.181  0.0564  0.0239 -0.4673
11622W        W30369  29.635  10.015  10.999  0.4521  0.1315  0.1370
11623W        W30370   1.230   7.921   0.204 -0.2701  0.0606  0.0532
11624W        W30371  32.709  35.369   0.182  0.0162  0.3766 -0.1270
11625W        W30372  14.560  17.135  10.382  0.0379  0.0402 -0.0859
11626W        W30373  25.595  15.482  19.224  0.0292  0.0017 -0.2895
11627W        W30374  32.210   3.704   3.013  0.0653  0.2209 -0.1700
11628W        W30375   6.498  34.536  14.122  0.1222  0.1071  0.1612
11629W        W30376   3.143  30.525   1.066 -0.2183  0.3842 -0.2618
11630W        W30377  14.866  15.896   8.518  0.3669  0.1127  0.0692
11631W        W30378  30.394   4.954   3.325 -0.1246 -0.1479 -0.0563
11632W        W30379  10.897  35.037  13.304 -0.3155 -0.0106  0.2430
11633W        W30380   1.475  27.127   3.456  0.2040 -0.0169 -0.1134
11634W        W30381  24.691  19.623  19.613  0.1242 -0.0053  0.0910
11635W        W30382  23.802   4.952  21.596 -0.0159  0.3655  0.0813
11636W        W30383  30.279  19.097  20.058 -0.1632  0.0465  0.1488
11637W        W30384   1.874  23.271  14.864  0.2779 -0.2233  0.0887
11638W        W30385  11.337   1.878  10.263  0.0072 -0.2585 -0.1746
11639W        W30386  21.564   1.087   7.573  0.0215 -0.1307 -0.1299
11640W        W30387  19.530  24.101   0.064 -0.1300 -0.1417  0.1447
11641W        W30388  18.144   9.078   7.652  0.1432  0.0718 -0.0706
11642W        W30389  30.581   2.114   4.511  0.1285  0.1222  0.0590
11643W        W30390   5.398  11.676   7.870  0.1532 -0.0896  0.0409
11644W        W30391  23.519  24.798  22.525  0.3376 -0.2800  0.0782
11645W        W30392  31.496   0.782  16.721  0.3305  0.1033 -0.1633
11646W        W30393  29.114  15.302  16.285  0.1472  0.1717  0.0279
11647W        W30394  29.333  18.025  22.365 -0.1350 -0.0104  0.0592
11648W        W30395   8.353  23.724  22.913 -0.8249  0.2356  0.0746
11649W        W30396  16.567  14.898   4.791  0.2824  0.3114  0.1653
11650W        W30397  27.807  15.126  14.975 -0.1387 -0.0340  0.1354
11651W        W30398  28.896  10.080  20.298 -0.1586 -0.0421 -0.1607
11652W        W30399  13.482  21.325   1.608  0.1273  0.3079  0.1861
11653W        W30400  30.658  31.423  14.449  0.0293 -0.0701 -0.2718
11654W        W30401  30.968   3.675  17.449 -0.1464 -0.0862 -0.0368
11655W        W30402  21.989  17.100   2.707  0.0825 -0.2064 -0.0287
11656W        W30403   0.932   5.499  22.960 -0.0312  0.4406 -0.1745
11657W        W30404  22.921  20.276  22.052  0.2944  0.0103 -0.0974
11658W        W30405  15.107  19.578  13.182 -0.1036  0.1095  0.1191
11659W        W30406  35.371  27.392  21.479  0.4367  0.0669 -0.1816
11660W        W30407  10.466  32.775   6.051  0.2909  0.2799 -0.0593
11661W        W30408   8.086  17.450   2.345 -0.1637 -0.0940 -0.0093
11662W        W30409  34.727  23.831  23.865  0.2180  0.2872 -0.1127
11663W        W30410  13.002  26.440  15.189  0.1699  0.0610  0.2062
11664W        W30411  34.351   5.820  24.008  0.0457  0.1805 -0.0512
11665W        W30412  26.268  32.777  21.055 -0.2984  0.1092 -0.1287
11666W        W30413  15.340  19.735   1.598  0.0705 -0.0996  0.2682
11667W        W30414  32.938  22.077   9.944 -0.1759  0.2901  0.0330
11668W        W30415  25.609   6.373  25.339 -0.0323  0.0509  0.1887
11669W        W30416  32.927  12.713  25.507 -0.0071  0.1394  0.1150
11670W        W30417  19.921  25.086   5.133 -0.0994 -0.0264  0.1021
11671W        W30418  32.948  24.034  17.425 -0.0453  0.2135 -0.0799
11672W        W30419   3.109   1.492  21.810  0.0873  0.1630  0.0066
11673W        W30420  29.848  29.118  21.269  0.0195  0.0156  0.0033
11674W        W30421  22.602  34.071  19.631  0.0034 -0.0496  0.0311
11675W        W30422  29.506  25.441  19.581  0.1503  0.1630  0.3844
11676W        W30423  33.531   1.534   2.591 -0.0712 -0.3557 -0.1076
11677W        W30424  26.200  34.790  24.451  0.0285  0.2070 -0.1542
11678W        W30425  11.915  30.102   4.702 -0.1428  0.1480 -0.0575
11679W        W30426  31.802  13.499  16.801  0.1686  0.2235  0.0340
11680W        W30427  30.064  13.273  23.231  0.1107 -0.1881  0.0485
11681W        W30428   8.566   6.805  11.902 -0.0335 -0.0556 -0.4705
11682W        W30429  14.074  28.483  21.673  0.2717  0.1011 -0.1410
11683W        W30430  15.997  10.015  11.886  0.0744 -0.0895 -0.1147
11684W        W30431  18.141   8.690  25.684  0.1027  0.0595  0.1633
11685W        W30432  33.236  23.815   9.931 -0.0183 -0.1331 -0.0414
11686W        W30433   0.832  19.119  21.728  0.1165 -0.0250 -0.0156
11687W        W30434  17.953  18.615  20.720 -0.2395  0.2651  0.0641
11688W        W30435  24.984   6.196  24.774  0.2170  0.0642 -0.2448
11689W        W30436   4.607   7.250  18.711  0.0421  0.1965 -0.1340
11690W        W30437   5.740   1.401  11.133  0.1191 -0.1028  0.0878
11691W        W30438  33.345  20.283   0.156  0.2120  0.3455 -0.1562
11692W        W30439  35.165   0.699  25.244 -0.0274  0.2244  0.1675
11693W        W30440  22.198   8.149  24.502 -0.2207 -0.1519 -0.0105
11694W        W30441   2.340  20.503  13.032 -0.0979 -0.0347  0.0922
11695W        W30442   0.677  11.411  12.596 -0.0441 -0.1013 -0.0355
11696W        W30443  14.332  24.331  11.732  0.0674  0.2544  0.0076
11697W        W30444  33.454  30.801   3.762 -0.2270 -0.1907  0.2728
11698W        W30445   7.684  25.201   1.510  0.0414 -0.2605  0.0280
11699W        W30446  25.212  13.648  18.371 -0.3603 -0.2387 -0.1944
11700W        W30447  21.682   9.291  21.657 -0.2037  0.3043 -0.0010
11701W        W30448  10.387  32.020   1.675  0.0590 -0.4586 -0.1749
11702W        W30449  11.073  31.469   6.947  0.0077 -0.3357  0.2031
11703W        W30450   3.222  18.191   2.358  0.0818  0.1803 -0.1908
11704W        W30451  23.769   5.903  26.126  0.1110  0.0838 -0.3857
11705W        W30452  29.508  13.045  23.894 -0.2136 -0.1452  0.0868
11706W        W30453   2.834  22.648   0.613  0.3067  0.0190 -0.2342
11707W        W30454  25.979  18.211  22.593  0.0003 -0.3387 -0.2696
11708W        W30455   5.528   7.721   4.436  0.2825 -0.1347  0.1900
11709W        W30456  28.397  11.516  16.954  0.1065 -0.1831 -0.0616
11710W        W30457  29.555  14.087  22.405  0.0225 -0.0081 -0.1523
11711W        W30458  20.837  20.209  25.407  0.2467 -0.1842  0.1827
11712W        W30459  26.146  31.320  12.952 -0.1239  0.1409  0.0016
11713W        W30460  17.002   1.064   2.925 -0.0234 -0.0828  0.0816
11714W        W30461   3.740  34.775   3.651 -0.2117  0.2229  0.1627
11715W        W30462  27.951  31.351  12.732  0.2153 -0.0039 -0.0481
11716W        W30463  33.966  28.006  22.042 -0.0073  0.1502  0.1502
11717W        W30464   7.696  16.804   7.251 -0.0422  0.2025  0.2695
11718W        W30465  16.441   0.257  22.224 -0.0894 -0.0983 -0.0732
11719W        W30466  16.500  24.431  15.429  0.3796 -0.0667  0.0313
11720W        W30467  18.080  30.783   5.883 -0.0020 -0.1625 -0.3333
11721W        W30468  31.074  22.915  19.632  0.1010  0.0740  0.1495
11722W        W30469  14.681   2.539   9.466  0.2220  0.1345  0.1756
11723W        W30470   1.469  20.605  12.233  0.2270  0.0709  0.2521
11724W        W30471   0.836  34.154   1.054 -0.0947 -0.1122 -0.1940
11725W        W30472  13.652  21.881  10.898 -0.1022  0.1131  0.1098
11726W        W30473  11.604  31.359  15.672 -0.0536  0.1235 -0.1097
11727W        W30474  29.021  25.082  19.589  0.1179  0.3368  0.0315
11728W        W30475  21.072  16.334   2.674 -0.0253  0.3592 -0.0313
11729W        W30476  32.181   8.953   0.629 -0.2931  0.0692  0.0691
11730W        W30477  23.526   5.448  18.305  0.0430 -0.1244 -0.0952
11731W        W30478  17.705  20.047  24.525  0.2761 -0.0199  0.2595
11732W        W30479   9.488   8.932  25.699 -0.0575  0.1243  0.0100
11733W        W30480  13.954  12.412   4.233 -0.0823 -0.0643 -0.0267
11734W        W30481  33.380  28.856  21.945  0.1967  0.0441 -0.1536
11735W        W30482   9.670  21.393  12.137  0.5803  0.2193 -0.1380
11736W        W30483   0.687  29.702   8.479 -0.3866  0.0058  0.0300
11737W        W30484  22.336  33.663   6.408  0.0261  0.0613  0.2829
11738W        W30485  22.076   6.624   1.523  0.1355 -0.2858 -0.2554
11739W        W30486  13.986  20.657   1.348  0.3031 -0.0991 -0.2922
11740W        W30487  31.476  18.398  12.824 -0.1877  0.2367  0.2759
11741W        W30488  30.730  30.942   0.939 -0.4479 -0.0746 -0.2030
11742W        W30489  34.234   6.551   3.392 -0.0954  0.1095  0.3065
11743W        W30490  21.695  34.221   2.282  0.1828  0.3236 -0.2435
11744W        W30491   3.676  10.917  22.610 -0.3552 -0.0964 -0.2844
11745W        W30492  19.069  30.281   2.706 -0.0090  0.2281  0.1700
11746W        W30493   6.959   1.498   7.688  0.0986  0.0584  0.0262
11747W        W30494  12.993  30.791   5.272  0.1000 -0.0960  0.0223
11748W        W30495  15.829   0.349  24.405 -0.3752  0.1034 -0.0304
11749W        W30496   6.595  34.912  12.035  0.0894  0.0123 -0.1322
11750W        W30497  22.601  17.543   0.200 -0.0649  0.0668 -0.1651
11751W        W30498  18.897  21.126   7.424  0.1906 -0.2072 -0.3237
11752W        W30499  29.069  32.215  25.846 -0.0275  0.2111  0.2988
11753W        W30500  31.726  26.462  19.860 -0.0253 -0.2950  0.0064
11754W        W30501   1.556  25.234  21.541  0.0742 -0.4217 -0.1271
11755W        W30502  10.005   5.977   8.964  0.2328  0.0107 -0.1424
11756W        W30503  17.186  13.001  22.551 -0.2504 -0.0179 -0.1856
11757W        W30504   3.542  20.804   2.413  0.2142  0.1026 -0.1037
11758W        W30505  30.367   8.464  18.762 -0.2077 -0.0228  0.0291
11759W        W30506   2.153   8.697  22.732 -0.0316 -0.0330  0.1733
11760W        W30507  14.420  17.411  14.339  0.1723 -0.2727 -0.2216
11761W        W30508   2.355  32.503   6.508 -0.2441 -0.1908  0.3310
11762W        W30509  12.425   3.246   9.481 -0.0120  0.0063 -0.2937
11763W        W30510  32.038   6.802  23.379 -0.1382  0.2102  0.1996
11764W        W30511  12.633   7.633   4.929 -0.3725 -0.1147  0.1114
11765W        W30512  27.850  19.418   5.773  0.1094 -0.0740  0.0818
11766W        W30513  23.947  30.048  14.077 -0.0425  0.0240  0.1055
11767W        W30514  18.987  31.074   9.984  0.2999  0.1262 -0.0446
11768W        W30515   9.984   1.732   3.405 -0.3457  0.2224 -0.0800
11769W        W30516   2.615  34.734   6.794  0.1023  0.0052 -0.1095
11770W        W30517  18.010   6.280   0.064 -0.2169 -0.0219  0.1437
11771W        W30518  33.091  27.955  19.415 -0.0194  0.2249  0.2682
11772W        W30519  24.066   1.665  14.871 -0.0026  0.2970  0.1711
11773W        W30520  13.212  32.766   3.898 -0.0356 -0.1228  0.3352
11774W        W30521   0.824   2.920  15.277 -0.0645 -0.0205 -0.3538
11775W        W30522  10.903  17.217   2.524 -0.0522  0.0102 -0.0167
11776W        W30523  29.857  13.710  18.054  0.1339 -0.2140  0.0500
11777W        W30524   1.622  10.535  24.752 -0.4586 -0.2427  0.0274
11778W        W30525  27.953  17.714   4.505  0.0192 -0.0513 -0.1415
11779W        W30526  14.518   4.870   0.187 -0.2516  0.1787  0.2621
11780W        W30527  33.322   6.400  20.884 -0.0504  0.1846  0.0065
11781W        W30528   0.661  30.966  17.291 -0.0865  0.0064  0.1493
11782W        W30529  11.855   6.239  11.035  0.1849  0.4178 -0.0682
11783W        W30530  15.407   0.345  10.304  0.0336  0.4202  0.0684
11784W        W30531  27.786  18.132  22.514 -0.0915  0.0223  0.1995
11785W        W30532  13.535  32.537  23.899 -0.0878  0.1570 -0.1529
11786W        W30533   9.129  15.769  10.913 -0.0906  0.3278  0.0882
11787W        W30534   2.894  25.567  20.869 -0.4347  0.2454  0.3869
11788W        W30535  35.192   8.750  19.073  0.4135  0.1152  0.4663
11789W        W30536  19.955   0.757  15.233 -0.3480  0.2842  0.0278
11790W        W30537  26.334   0.450  10.484 -0.0246  0.1277 -0.0382
11791W        W30538  25.898  10.599  14.218  0.0520 -0.0385  0.1902
11792W        W30539  32.147  34.016  14.735 -0.0166  0.1767 -0.1934
11793W        W30540  23.778  17.365  20.690 -0.3209  0.1145  0.0239
11794W        W30541   6.564  25.612   9.197  0.2495  0.0348 -0.0032
11795W        W30542  31.442  27.016  10.170 -0.0586 -0.1330 -0.1632
11796W        W30543   6.234  15.862   2.938  0.0958 -0.1230 -0.1524
11797W        W30544   8.371  34.545   0.668 -0.2413 -0.1624  0.2717
11798W        W30545  18.907  33.407  19.382 -0.4411  0.1044  0.0239
11799W        W30546   6.113  34.537   6.519 -0.1452 -0.0227 -0.3348
11800W        W30547  17.406  15.718   5.936 -0.2497 -0.0358  0.0542
11801W        W30548  12.607  29.212  13.990 -0.0400 -0.0423 -0.0535
11802W        W30549  33.735   3.050  18.262 -0.0572  0.2465 -0.0780
11803W        W30550   6.201  18.335  20.803  0.2101 -0.0535 -0.0975
11804W        W30551   7.070  34.309  11.193  0.1886 -0.0630  0.0227
11805W        W30552  31.498  20.519  26.248 -0.3036 -0.4373 -0.0908
11806W        W30553  10.073  12.149   9.344 -0.0721 -0.2851 -0.2496
11807W        W30554  12.322   2.000   0.346 -0.3289 -0.1655 -0.0775
11808W        W30555   6.127  24.285   4.154 -0.1050 -0.2831  0.1199
11809W        W30556  31.794  21.581  24.575 -0.3384 -0.2223  0.3137
11810W        W30557  28.608  21.274  13.966  0.1399  0.1318  0.1877
11811W        W30558  27.775  10.313  17.278 -0.0152 -0.3680 -0.0490
11812W        W30559  27.689  22.907   7.626 -0.0408  0.0461 -0.1941
11813W        W30560  23.220  26.034   2.264 -0.1350 -0.3177 -0.0136
11814W        W30561  24.364   1.701   3.385 -0.0045  0.0281 -0.3290
11815W        W30562  10.752  14.664   0.447  0.0391  0.3340 -0.4087
11816W        W30563   9.643  19.597  23.423  0.0827 -0.2893 -0.1482
11817W        W30564  12.601  16.822   6.014  0.1598  0.1116 -0.0544
11818W        W30565   1.713  34.965  23.082 -0.2178 -0.1188  0.0822
11819W        W30566  10.835  16.432  23.790  0.1642  0.1467 -0.1916
11820W        W30567  35.180  17.933  23.874 -0.3067 -0.4103 -0.1736
11821W        W30568  16.448  18.554  21.617  0.1326  0.0407 -0.0060
11822W        W30569  10.231  15.333   6.539  0.0729 -0.1613 -0.0320
11823W        W30570  18.742   2.240  26.111 -0.1101 -0.0283 -0.2990
11824W        W30571  11.742  16.670   1.252  0.1195  0.0947 -0.0495
11825W        W30572  10.383  19.702  15.836  0.0735  0.1330 -0.0496
11826W        W30573  18.128   5.725   8.957  0.1958  0.0391  0.1803
11827W        W30574  27.261   8.946  16.391 -0.3978 -0.2217  0.2923
11828W        W30575   4.850  20.955  20.940  0.0934  0.4396  0.1996
11829W        W30576  19.842  28.353  22.598 -0.2051  0.2577 -0.1014
11830W        W30577  35.263  21.350   9.168 -0.0199 -0.1952  0.0149
11831W        W30578  33.587   1.033  23.678 -0.0352  0.0425  0.0541
11832W        W30579   1.143  34.571  21.853 -0.2487 -0.3538 -0.1939
11833W        W30580  11.783  18.925  20.848 -0.0649 -0.2120  0.0884
11834W        W30581  20.667  23.756   5.585  0.0339 -0.4928 -0.4076
11835W        W30582  32.092   6.783   1.951  0.0531 -0.2062 -0.0173
11836W        W30583  16.506   2.809   3.522 -0.0125 -0.0657  0.3403
11837W        W30584  33.037   0.536   4.871 -0.0405 -0.1156 -0.0561
11838W        W30585  30.805   3.973   4.068 -0.0345  0.4454 -0.1141
11839W        W30586   6.793   8.444   6.125  0.0421  0.1238 -0.1500
11840W        W30587  10.724  18.336   1.628  0.0869 -0.1136  0.0214
11841W        W30588  29.408   3.565  13.183  0.2447  0.0185 -0.1959
11842W        W30589   0.065  20.459   8.798 -0.0640 -0.1297  0.0686
11843W        W30590  21.485   5.183  17.629 -0.0820  0.1516 -0.2362
11844W        W30591  13.047  31.965   7.794 -0.0073 -0.0075 -0.2860
11845W        W30592  26.797   7.448  23.102 -0.0797 -0.2441 -0.0824
11846W        W30593   0.508  23.876  19.719 -0.2334  0.0599  0.3391
11847W        W30594  27.305   6.968   9.946  0.1527 -0.2474  0.0385
11848W        W30595   5.964   3.735   0.760 -0.1111 -0.1472  0.1685
11849W        W30596  29.289  31.466  14.213 -0.0597 -0.2591  0.1865
11850W        W30597   0.479  29.959  21.332 -0.2344  0.3902 -0.0768
11851W        W30598   0.901  10.846  11.555 -0.1313  0.0191  0.1549
11852W        W30599  20.620   9.125   8.603 -0.1652 -0.0772 -0.2748
11853W        W30600  28.188  27.277  13.401 -0.0864 -0.0134 -0.2624
11854W        W30601  24.090   4.726   0.573  0.0806 -0.0329 -0.1298
11855W        W30602   4.200  29.611  23.336 -0.1011  0.1510 -0.0821
11856W        W30603  13.937  33.839   9.753 -0.1745 -0.2375 -0.0624
11857W        W30604  28.616  12.336  19.101 -0.1285  0.0567  0.3674
11858W        W30605  28.658  14.142  16.199  0.0677  0.1478  0.0614
11859W        W30606  28.700  33.554   5.205 -0.0594 -0.1700  0.0117
11860W        W30607  30.541  26.777   1.719  0.0322  0.1395  0.2417
11861W        W30608  12.593  33.128   8.107  0.0539  0.0745  0.1574
11862W        W30609  34.582  30.163  20.174 -0.5010  0.0798  0.0371
11863W        W30610  33.591  21.647  10.990 -0.1376  0.0929  0.1133
11864W        W30611  26.619   1.998  19.781 -0.1012  0.3140  0.0939
11865W        W30612  21.168  12.578  20.923 -0.1136  0.2501 -0.2900
11866W        W30613  21.140  34.640   1.776  0.1781 -0.3790 -0.1248
11867W        W30614   2.618  12.769  24.753 -0.1592 -0.3577  0.2074
11868W        W30615  14.950   5.933  24.892  0.0671  0.0088 -0.0265
11869W        W30616  14.252  34.926   4.212  0.1770  0.0530  0.1175
11870W        W30617  12.782  26.164   0.096  0.1383 -0.1382  0.3017
11871W        W30618  30.088  24.315  18.240  0.2934 -0.0805  0.1744
11872W        W30619  11.331  30.060   6.668 -0.0724 -0.0483  0.3048
11873W        W30620  14.001  14.894  22.067 -0.1650 -0.0081  0.1547
11874W        W30621  21.911   1.683   2.937 -0.0084  0.2310  0.3280
11875W        W30622   6.078  27.635  13.721  0.2971 -0.2331 -0.0874
11876W        W30623   2.888   2.887   2.974 -0.1580  0.3764 -0.0284
11877W        W30624  12.791  32.098   8.395 -0.1377 -0.0531  0.1568
11878W        W30625   4.021   8.502  19.884  0.0821 -0.2245 -0.0332
11879W        W30626   8.735  33.235  23.727 -0.0492 -0.0967 -0.1036
11880W        W30627  28.318  12.885  15.490  0.0361 -0.3029  0.0551
11881W        W30628   5.344  14.516  21.998  0.0904  0.0686 -0.0411
11882W        W30629   2.463  15.167   1.552 -0.2624  0.0428 -0.2794
11883W        W30630  27.150  33.057  22.692  0.2284  0.4834 -0.2866
11884W        W30631  35.197  26.443   3.391 -0.1396  0.0416  0.2378
11885W        W30632   0.638  11.589  16.923 -0.3454  0.2613 -0.3217
11886W        W30633  19.201  13.545   3.595  0.1547  0.0643 -0.0730
11887W        W30634   5.021  15.441  26.087  0.2312 -0.0110  0.0584
11888W        W30635  17.838  28.788  20.510  0.1220  0.0643  0.2088
11889W        W30636  32.486  10.652  16.077 -0.0407  0.3119  0.1894
11890W        W30637  24.657   3.885  16.084 -0.0391  0.3954  0.0512
11891W        W30638   3.346   7.931   3.658  0.1305 -0.0137  0.0993
11892W        W30639  18.311  16.646   5.309  0.3728  0.5382  0.0887
11893W        W30640  27.350  32.984   0.881 -0.1415 -0.0295  0.0305
11894W        W30641  24.040  18.846  20.696 -0.3132 -0.3893 -0.2949
11895W        W30642  14.540  33.636  11.894 -0.1778  0.3345 -0.1869
11896W        W30643  10.502   4.269   8.471  0.2451 -0.1444 -0.2076
11897W        W30644   9.494   6.097   9.047 -0.0304 -0.0198 -0.2487
11898W        W30645   5.512  30.187   7.284  0.0504 -0.4500 -0.0776
11899W        W30646  11.877   6.032  24.312 -0.0832  0.1353 -0.1060
11900W        W30647  12.219  27.062   6.042 -0.1567  0.0903 -0.1124
11901W        W30648  33.639   3.138  25.348  0.0297  0.0936 -0.1985
11902W        W30649  34.104  18.774  16.798 -0.0709 -0.2861  0.0192
11903W        W30650   5.568   2.768  20.912 -0.1247 -0.3132 -0.0097
11904W        W30651  29.195   8.752   8.662  0.1168  0.4430  0.3106
11905W        W30652  11.463  26.569  15.804  0.3575  0.2774  0.0306
11906W        W30653   6.405   6.999   5.867  0.2554 -0.2248 -0.3661
11907W        W30654  28.685  28.550  24.282 -0.2115 -0.3848 -0.2507
11908W        W30655  28.181  16.871  19.726 -0.1512 -0.0848 -0.0558
11909W        W30656  24.704  10.522  25.082 -0.2028  0.1714  0.0346
11910W        W30657  24.422  19.192  19.830 -0.0286  0.0413  0.1299
11911W        W30658  27.263  30.663  23.900 -0.0911 -0.1001 -0.1256
11912W        W30659  29.319  23.454   9.514 -0.0818  0.1626  0.1995
11913W        W30660  24.298   1.784  20.630  0.1777 -0.4032  0.2028
11914W        W30661  17.757   7.851  10.751  0.1444 -0.2099  0.0953
11915W        W30662   5.390  28.206  12.678  0.1412 -0.2363 -0.0797
11916W        W30663   5.374  28.241  25.692  0.0659 -0.1198 -0.1352
11917W        W30664  23.860   6.724  24.104 -0.1070 -0.3729  0.1424
11918W        W30665   4.176   3.242   3.610 -0.1963 -0.0355 -0.1305
11919W        W30666   7.554   3.071  18.890  0.1447 -0.0869 -0.0862
11920W        W30667   7.565  12.568  21.202 -0.1114 -0.0815 -0.5831
11921W        W30668  27.319  11.383  17.593 -0.3043  0.0484 -0.1479
11922W        W30669  19.365  18.529   1.830 -0.1556 -0.1593  0.0300
11923W        W30670  18.019   2.924   0.686 -0.1625 -0.2528 -0.0206
11924W        W30671   3.703   4.757  25.147 -0.2543 -0.1650  0.1531
11925W        W30672  31.487  26.203  17.605 -0.0295  0.0603  0.2483
11926W        W30673  19.577  18.926   8.260 -0.0161  0.4026  0.0604
11927W        W30674  20.241  30.166   3.260  0.0413 -0.2538  0.2348
11928W        W30675   9.598  27.248   1.898  0.0547 -0.1801 -0.1705
11929W        W30676  23.673  27.856  25.527 -0.3841  0.2047 -0.1088
11930W        W30677  28.970  23.072  10.867  0.4522  0.0256  0.1284
11931W        W30678  18.946   2.908   3.499  0.1113 -0.2803  0.0990
11932W        W30679  15.635  21.914  22.915 -0.2680 -0.1335  0.1904
11933W        W30680  19.710   7.997   0.750 -0.0250 -0.1661 -0.4180
11934W        W30681  18.702  10.853   9.688  0.1576 -0.1686 -0.1154
11935W        W30682   3.745   7.615  18.499  0.0100  0.1091  0.2390
11936W        W30683  30.937   6.085  25.857 -0.2335 -0.1098 -0.0808
11937W        W30684   3.313  33.976  19.964 -0.0353  0.0201  0.1353
11938W        W30685  13.036  22.559   8.186  0.1579  0.1908 -0.2872
11939W        W30686  18.805   0.013   3.413 -0.0241 -0.2525 -0.2910
11940W        W30687  34.231  10.288  21.868  0.0055 -0.1240 -0.0739
11941W        W30688  14.845   1.743  24.087 -0.4053  0.0520  0.1759
11942W        W30689  32.169  16.962  15.585  0.1749  0.2651 -0.1291
11943W        W30690   2.967  28.301  20.922 -0.0044  0.1443 -0.0514
11944W        W30691  15.486   0.331   4.475  0.4108 -0.1362  0.0544
11945W        W30692  34.967   8.164  21.365 -0.1629 -0.0692 -0.0090
11946W        W30693  34.312  24.389  21.567 -0.1183 -0.1448  0.0080
11947W        W30694   9.002  24.257  10.336  0.0696  0.0102  0.0057
11948W        W30695  25.144  29.521  11.265 -0.0845  0.2280  0.1914
11949W        W30696   1.806   1.260  15.925  0.0017  0.0226 -0.2468
11950W        W30697  34.618   4.118  13.299  0.0415  0.0126 -0.0345
11951W        W30698   9.968  15.209   8.218  0.1931 -0.2022  0.1390
11952W        W30699  29.462   3.688   0.612 -0.2569 -0.2438 -0.1461
11953W        W30700  22.143   7.781  23.340  0.5052  0.2865  0.2165
11954W        W30701  24.336  17.546  24.275 -0.2611 -0.1824 -0.2134
11955W        W30702  18.856  18.326  10.632 -0.5041 -0.0841  0.0452
11956W        W30703  26.554  34.745   5.871 -0.1445 -0.3766  0.2295
11957W        W30704  34.663  19.562  16.607  0.1267  0.1276 -0.0620
11958W        W30705  13.845  29.922  24.684  0.0466  0.3584 -0.1088
11959W        W30706  12.369  23.684  26.094  0.1687 -0.2160  0.1418
11960W        W30707  24.201  20.071   1.921  0.2642  0.1722 -0.1329
11961W        W30708   0.750   9.342  24.925 -0.1309 -0.3191 -0.3080
11962W        W30709   1.480  23.759  24.951  0.0308  0.0970  0.2110
11963W        W30710   7.599  18.754   4.922 -0.2635 -0.0844  0.0023
11964W        W30711   7.542  26.373   9.846 -0.0072 -0.0753  0.0746
11965W        W30712   3.692   6.435   0.183 -0.0877 -0.1786 -0.2865
11966W        W30713  12.856  31.162  12.314  0.1184  0.0536  0.2245
11967W        W30714   9.130  29.148  14.342 -0.2559 -0.1120  0.0313
11968W        W30715   2.048  32.224   0.336  0.1476  0.2842  0.0993
11969W        W30716  14.697  23.256   1.172 -0.1477 -0.0449 -0.3339
11970W        W30717  10.498  16.899  20.633  0.0519 -0.2098  0.1091
11971W        W30718  10.132  18.725  13.617 -0.0253 -0.0562  0.2289
11972W        W30719  20.802  22.293  17.321 -0.0846 -0.0822  0.3682
11973W        W30720  24.101  24.790   0.157 -0.0305  0.6699 -0.2330
11974W        W30721  14.946  31.287  13.794 -0.1160  0.2037  0.0703
11975W        W30722  22.569  31.241  24.325  0.2093  0.0603 -0.3189
11976W        W30723   9.386  29.991  24.116 -0.2064 -0.1256 -0.0802
11977W        W30724  35.290  22.207  18.843  0.2373  0.1064 -0.0450
11978W        W30725  12.573  28.217  22.034 -0.1130 -0.0834 -0.1925
11979W        W30726  20.664   7.688   0.914  0.2863  0.1382  0.2023
11980W        W30727  17.834  12.521   2.688  0.0421 -0.1363  0.0004
11981W        W30728  15.333  21.813   9.678  0.1264 -0.0852  0.1465
11982W        W30729   8.720   9.590  20.533  0.1331  0.2052 -0.1459
11983W        W30730  29.421  22.930  20.163 -0.0216  0.2643 -0.1844
11984W        W30731  17.338   3.754   3.353 -0.1571  0.0178  0.2883
11985W        W30732  25.971  30.418  26.197  0.0731 -0.0572 -0.3138
11986W        W30733   5.959  10.090  24.355 -0.1881 -0.1044  0.3268
11987W        W30734  28.934  21.033  16.304 -0.1328 -0.1282  0.0072
11988W        W30735  25.323  20.057  13.844  0.1429  0.0921  0.0786
11989W        W30736  31.275  28.796   0.813 -0.0299 -0.0608  0.1686
11990W        W30737  34.476  26.540   2.546  0.2659 -0.0225 -0.2497
11991W        W30738  28.016  30.229  14.963  0.0547  0.3203  0.0074
11992W        W30739  34.821   3.540   4.153 -0.2294  0.0743  0.0462
11993W        W30740  11.108  29.910   5.294 -0.1165  0.0718 -0.1613
11994W        W30741  19.468   0.940  23.933  0.1317  0.0688 -0.0389
11995W        W30742  24.720   3.382  24.042 -0.0160  0.2992  0.0486
11996W        W30743   6.295   6.801   7.418 -0.1183 -0.1385 -0.1211
11997W        W30744  14.446  30.299   7.122 -0.0775  0.1364  0.1160
11998W        W30745  34.758   1.428  19.058 -0.1176  0.0224 -0.1705
11999W        W30746  11.960   2.673  24.249 -0.2273  0.0070  0.0738
12000W        W30747  11.297   8.472   0.665  0.0976  0.0533 -0.0110
12001W        W30748  31.533  31.078   6.328 -0.1864  0.3017 -0.0649
12002W        W30749  12.125  31.131   1.577 -0.0236  0.1628  0.1352
12003W        W30750  30.982   5.649   3.229 -0.5215  0.0570  0.0504
12004W        W30751  21.113  29.019  22.837 -0.0513 -0.4576  0.2738
12005W        W30752  29.882   3.927  17.445  0.1990  0.0639  0.2399
12006W        W30753  28.477  34.377  12.692  0.0469  0.1179 -0.1375
12007W        W30754  19.780   0.615   8.646 -0.0599 -0.2358  0.1330
12008W        W30755  27.087  14.442   9.366 -0.2724  0.2881 -0.1894
12009W        W30756  33.389  16.501   7.954  0.3570 -0.0413 -0.0068
12010W        W30757   7.226  15.443   8.233  0.1351 -0.0324 -0.1467
12011W        W30758   3.862  15.335  16.340 -0.2283 -0.0365 -0.0115
12012W        W30759  13.926  25.966   3.044  0.2480 -0.1206 -0.1922
12013W        W30760   0.559  16.404  18.310 -0.0749 -0.2914 -0.1034
12014W        W30761   5.056  12.220   5.307 -0.0547  0.1342 -0.0855
12015W        W30762  13.624  17.727  23.083 -0.0233 -0.1064  0.2254
12016W        W30763   4.174  26.410  19.820  0.1298 -0.1402  0.0529
12017W        W30764  25.321   6.181  24.408 -0.0177  0.1029  0.0155
12018W        W30765  11.042  28.325  11.495 -0.2088  0.0276 -0.1458
12019W        W30766  17.762  16.700  25.567  0.1826 -0.1385  0.0499
12020W        W30767  31.597   5.804  16.049 -0.0216  0.2307  0.2950
12021W        W30768  12.200  13.536  13.545  0.0410 -0.0118  0.2607
12022W        W30769  11.044  21.611  14.586 -0.0574 -0.0260 -0.1832
12023W        W30770  26.881   7.424   0.964  0.0409  0.2323 -0.0932
12024W        W30771  24.535   3.660   2.919 -0.2656 -0.1590  0.0087
12025W        W30772  26.995  22.170  16.526 -0.2805 -0.3207  0.1331
12026W        W30773  14.153  21.632  26.147 -0.0811  0.0506 -0.0989
12027W        W30774  11.556  18.513  11.078 -0.1700 -0.0441 -0.0493
12028W        W30775  11.463   4.298   9.212 -0.0281 -0.0122 -0.2639
12029W        W30776  12.710  21.206   8.075 -0.1287 -0.0285  0.0286
12030W        W30777  22.237  32.787   3.387 -0.3172 -0.0631  0.0036
12031W        W30778  26.247  10.635  14.618 -0.2310 -0.1102  0.1737
12032W        W30779   5.042   3.729  23.946 -0.2396 -0.4172  0.2956
12033W        W30780  29.710  15.087   6.877  0.2541 -0.0857  0.2458
12034W        W30781   9.194  25.643  24.564  0.0922  0.1275  0.1028
12035W        W30782  17.078  22.724   4.650 -0.1158  0.1143  0.0889
12036W        W30783   8.864   9.517   4.824 -0.2491 -0.0791  0.1339
12037W        W30784  21.097  22.334  24.528 -0.3113  0.0641  0.1877
12038W        W30785  23.436  16.463  13.951  0.2120 -0.2161  0.1094
12039W        W30786  19.368  10.254   9.703 -0.5374  0.0179  0.0934
12040W        W30787   4.771  34.413   5.959 -0.0102  0.1531 -0.0338
12041W        W30788  20.741   6.180  25.449 -0.0619 -0.1198 -0.0814
12042W        W30789  13.703  23.362  17.523 -0.2491  0.1825  0.0364
12043W        W30790   0.958  11.856  22.677  0.4869  0.0613 -0.0756
12044W        W30791  24.603   3.368  25.006  0.3162 -0.1835 -0.0987
12045W        W30792   4.750  33.702   9.139  0.0157  0.1232 -0.0730
12046W        W30793  33.626  28.723  12.705 -0.3848  0.1598 -0.0723
12047W        W30794  30.449   0.538  12.497 -0.0582  0.0137 -0.2812
12048W        W30795  28.641  35.279   1.163 -0.0905  0.0898 -0.3310
12049W        W30796   6.007  21.725  22.248  0.2848  0.1597 -0.2548
12050W        W30797  30.694  25.537   1.247  0.2119  0.1335 -0.2636
12051W        W30798   9.849   9.526  21.504 -0.1876  0.0951 -0.1259
12052W        W30799  18.464  22.869  23.758 -0.1051 -0.0623  0.0957
12053W        W30800  31.630  16.855   6.604 -0.1153 -0.1631  0.0468
12054W        W30801  27.770  26.192   0.945 -0.0448  0.1405 -0.3487
12055W        W30802  33.087  20.285   9.803 -0.0558  0.3864  0.3680
12056W        W30803  12.813   4.330  12.951 -0.1451 -0.0518 -0.2087
12057W        W30804  13.521  34.209   2.341 -0.1317  0.0767  0.2528
12058W        W30805  11.512  30.768  23.329 -0.1576  0.1721 -0.1533
12059W        W30806   6.754  24.245   3.021  0.1549  0.1314  0.2325
12060W        W30807  28.428  29.910   3.752 -0.0173 -0.0640  0.0734
12061W        W30808  15.205   5.144  22.586  0.1221 -0.0679 -0.3198
12062W        W30809  25.973   2.602   2.730 -0.0834 -0.2429  0.2736
12063W        W30810   1.388  17.872  24.312  0.4489 -0.2987 -0.1545
12064W        W30811  22.948  20.930   1.962 -0.0831 -0.1102  0.0070
12065W        W30812  30.913  14.224  14.177  0.0326 -0.2186  0.1184
12066W        W30813  21.935  21.304   3.368  0.0048 -0.5777  0.3467
12067W        W30814  33.135  11.750  17.552 -0.2858 -0.0118  0.1123
12068W        W30815   7.177   8.039  26.058  0.1920 -0.3168 -0.4534
12069W        W30816  16.931  19.392  11.844 -0.2485 -0.2741 -0.1301
12070W        W30817   7.970  32.209  25.444 -0.0584  0.0631 -0.1952
12071W        W30818  23.360   6.607  22.388 -0.0606 -0.0172  0.2764
12072W        W30819  30.662  19.253  19.225  0.1164 -0.0493  0.0395
12073W        W30820  13.170   2.760   1.147  0.0462  0.0735  0.3406
12074W        W30821  12.809  27.741  26.202 -0.1088  0.0005  0.1923
12075W        W30822  29.492  16.410  17.169 -0.2808 -0.0736 -0.3996
12076W        W30823  32.571   2.080  12.366  0.1856 -0.0191  0.0989
12077W        W30824   7.774  23.168   8.286  0.0202  0.1012 -0.2443
12078W        W30825   0.194  21.070  14.778 -0.0826  0.0585 -0.2459
12079W        W30826  22.237  33.249  15.673 -0.2429 -0.2128  0.0888
12080W        W30827  34.771  34.181   6.784 -0.2399 -0.5935 -0.0803
12081W        W30828  19.613  25.168  19.274 -0.0071  0.2004  0.1381
12082W        W30829  27.107   0.174  17.038  0.1755 -0.0789 -0.0701
12083W        W30830  24.147  19.274   0.025 -0.1169 -0.3014 -0.0813
12084W        W30831   1.404   2.749   5.779  0.0490  0.0312 -0.3125
12085W        W30832   9.415  33.058  22.479 -0.1542 -0.1169  0.1010
12086W        W30833  27.815  33.287  21.092  0.4050  0.0468 -0.1789
12087W        W30834  10.173  15.595  23.587 -0.1249 -0.0927 -0.0569
12088W        W30835  25.430  31.262   6.012 -0.2993 -0.2825 -0.2419
12089W        W30836  13.513  23.596  10.115 -0.3441  0.0674 -0.1675
12090W        W30837   6.746  20.065   2.758  0.1948  0.1920  0.1763
12091W        W30838  16.926  34.563   2.898  0.1426 -0.0602 -0.2880
12092W        W30839  23.633  16.856  26.092 -0.1914 -0.0284 -0.0240
12093W        W30840  18.585  15.115  22.706 -0.1100 -0.2842 -0.1482
12094W        W30841   0.483  17.484  24.253  0.1452 -0.0728 -0.0840
12095W        W30842  27.034   6.413  13.642 -0.2918 -0.0322  0.1118
12096W        W30843  19.457  29.686  18.850 -0.1703 -0.3105  0.2520
12097W        W30844  26.832  30.660  21.386 -0.1770 -0.1655  0.1790
12098W        W30845   5.878  27.571  24.536  0.0829 -0.0404  0.1953
12099W        W30846   4.668  25.439   6.258  0.0597 -0.0647 -0.1703
12100W        W30847   8.001  32.152  13.000 -0.0176  0.2313  0.0266
12101W        W30848  28.074  24.691  24.865  0.1001 -0.0799  0.0761
12102W        W30849   8.952   4.667   1.536  0.2578 -0.1891 -0.1517
12103W        W30850  29.045  32.905  12.993 -0.0160  0.1925 -0.1268
12104W        W30851  25.396  11.038  15.490  0.0237 -0.0808 -0.4368
12105W        W30852  15.975  32.507   5.012  0.3127  0.2564  0.1011
12106W        W30853   7.521   7.013  21.648 -0.0121  0.0323  0.3026
12107W        W30854  26.483  12.680  14.482 -0.3595  0.2246 -0.0365
12108W        W30855   0.800  23.257  23.269 -0.1182  0.1185 -0.1249
12109W        W30856  10.970  19.104   5.972  0.1567  0.1235  0.2204
12110W        W30857  23.172   6.277  18.354  0.0218  0.0263 -0.0393
12111W        W30858   7.039  21.592  26.104  0.0140  0.0999  0.1020
12112W        W30859  14.152  26.799   6.920  0.1306 -0.0238 -0.0948
12113W        W30860  32.444  26.855  23.614 -0.0092 -0.0905  0.2438
12114W        W30861   4.599  28.259  13.681 -0.0436 -0.1559  0.1076
12115W        W30862   1.712   2.852   9.398 -0.0407 -0.2392 -0.4800
12116W        W30863   9.216  29.253   1.256  0.0224  0.0328 -0.0617
12117W        W30864  11.066  34.954   4.810 -0.1473  0.0718 -0.3626
12118W        W30865   5.889  13.778   7.338  0.1341  0.0547 -0.3282
12119W        W30866  24.279  29.419  11.742  0.0515  0.1271 -0.0535
12120W        W30867  17.694  11.651  24.848  0.0845  0.0919  0.1432
12121W        W30868  28.024  30.991  16.998 -0.0248  0.1510 -0.0866
12122W        W30869  26.246   5.925  12.449  0.0162  0.6053  0.4127
12123W        W30870   1.010  31.613  25.235 -0.0493  0.0635 -0.1093
12124W        W30871  18.857  23.850   1.816 -0.1204  0.0877  0.1576
12125W        W30872   4.551  16.221   7.245  0.1319 -0.1780 -0.1478
12126W        W30873  22.757  14.860  25.521  0.0864 -0.0128 -0.1550
12127W        W30874  12.034   4.013   0.836 -0.0742  0.3371  0.3414
12128W        W30875  19.451   9.401  25.666 -0.2396 -0.0160  0.1258
12129W        W30876  21.328  23.365  20.927 -0.2970  0.0171  0.2282
12130W        W30877  10.150  32.774  10.194 -0.2017  0.1257  0.1430
12131W        W30878   3.446  27.847   7.511 -0.1237 -0.1745  0.3693
12132W        W30879  24.204  16.877  22.949  0.2104  0.1571  0.1585
12133W        W30880  28.426   3.537   3.667  0.1563  0.1149 -0.0483
12134W        W30881  33.224   6.950  13.992 -0.2096 -0.1782  0.1180
12135W        W30882   2.105  29.124  24.416  0.1716 -0.1988  0.2190
12136W        W30883  17.397  20.566   5.246  0.0236 -0.1058  0.1332
12137W        W30884  13.346  13.274   2.230  0.1184  0.0671  0.2632
12138W        W30885  16.703  22.879   4.986  0.0530  0.0072  0.1262
12139W        W30886  34.123   5.543  21.088  0.3831  0.0557  0.0357
12140W        W30887  16.512  32.380   9.626 -0.0893  0.2701  0.0060
12141W        W30888   7.500  28.069   2.256 -0.0451  0.1287  0.0963
12142W        W30889  32.451  26.102  12.812  0.2161  0.1270 -0.2287
12143W        W30890  21.472  15.321  24.981 -0.0968 -0.0779  0.0227
12144W        W30891  31.024  19.535  10.380  0.1871  0.0671 -0.0223
12145W        W30892  19.950  27.953  18.840  0.1071  0.1786 -0.2089
12146W        W30893  34.310   2.542  18.166  0.0788 -0.1698 -0.1004
12147W        W30894  17.931  27.991   0.931  0.1754 -0.1669  0.5779
12148W        W30895  15.375  12.216  22.495 -0.1690  0.1854 -0.1597
12149W        W30896  12.564  24.012  16.849 -0.0890 -0.0689 -0.3381
12150W        W30897  11.793   7.542  13.597 -0.0799 -0.2090  0.0396
12151W        W30898  35.360  30.633  20.432 -0.1348 -0.2598 -0.1603
12152W        W30899  26.955   9.076  13.946 -0.0016  0.3146  0.1720
12153W        W30900  33.061  32.798   5.298 -0.2155  0.0496  0.0761
12154W        W30901  13.177  24.206  23.326 -0.3234 -0.0788  0.3770
12155W        W30902  26.379  10.455  18.794 -0.0459 -0.0348  0.0157
12156W        W30903  23.030  34.782  15.047 -0.2704  0.1207 -0.1753
12157W        W30904   6.729  34.067  13.825 -0.2280 -0.2176 -0.1085
12158W        W30905  32.874   3.472  14.631  0.1559  0.1290  0.4157
12159W        W30906  15.489  24.133   7.585 -0.1669 -0.0853 -0.2033
12160W        W30907  10.433  27.494   4.026  0.0879  0.1910  0.4362
12161W        W30908   7.270  25.848  24.412 -0.0304 -0.0654 -0.0598
12162W        W30909  21.667  28.173  24.313  0.4466 -0.1875 -0.0886
12163W        W30910  21.238  34.609   7.946 -0.0954 -0.3708  0.2718
12164W        W30911   8.276  28.611  24.775  0.3401  0.2217  0.1024
12165W        W30912  22.996   7.910  14.202 -0.1733 -0.0550 -0.0260
12166W        W30913   8.719  26.107   5.289 -0.1557  0.0816  0.1003
12167W        W30914   0.804   2.984  17.877  0.0240  0.4443  0.0189
12168W        W30915  34.798  15.203  10.450 -0.1591 -0.1517  0.0241
12169W        W30916   1.688  28.589  24.517 -0.1017 -0.0930 -0.4166
12170W        W30917   0.339  29.039   2.760  0.0001 -0.2578  0.1000
12171W        W30918  19.267  17.033  21.908 -0.3335  0.0530  0.0658
12172W        W30919  27.911  24.553  20.447 -0.1519  0.1276  0.1927
12173W        W30920   7.749   9.110   0.100  0.0088  0.2855 -0.1088
12174W        W30921  19.370   1.407  16.467 -0.1551  0.0615 -0.2290
12175W        W30922  33.255   3.542   3.485 -0.1175  0.2059 -0.3607
12176W        W30923  10.108  33.991   5.014 -0.0696 -0.1008 -0.1500
12177W        W30924  17.545  18.196  21.450  0.4207 -0.4231  0.4215
12178W        W30925   1.930  22.720  20.384  0.2614  0.2255 -0.0859
12179W        W30926   0.458  30.669   6.473  0.1560  0.0886  0.0680
12180W        W30927  31.438  20.611  19.395  0.0763  0.0742 -0.0761
12181W        W30928  27.391  29.350  20.808  0.2145  0.1632  0.0340
12182W        W30929  25.990   3.621  13.033 -0.2034 -0.0235  0.1581
12183W        W30930  28.990  27.781  14.279  0.0080 -0.1970  0.1014
12184W        W30931  15.973   0.200   7.117  0.1063 -0.0279  0.0732
12185W        W30932  26.971  28.254  12.628  0.0185  0.0381  0.1943
12186W        W30933   8.212  25.463  10.304  0.0899  0.1080  0.2186
12187W        W30934  27.855  16.417  18.440 -0.0606 -0.0732  0.3715
12188W        W30935  28.310   2.315  23.274  0.1206 -0.0555  0.2902
12189W        W30936  20.773  28.723  21.337  0.1810 -0.0120 -0.1959
12190W        W30937  30.391  28.507  19.530  0.0713  0.0697  0.0928
12191W        W30938  28.933  10.569  19.355 -0.0783  0.5579 -0.1216
12192W        W30939  32.400  18.398  18.997  0.0510 -0.1692  0.0787
12193W        W30940  11.488  23.210   3.699 -0.2105 -0.3149 -0.2399
12194W        W30941   9.202  13.200   8.043 -0.0615  0.0844 -0.0575
12195W        W30942   9.282  14.503  11.655 -0.2437 -0.0926 -0.2784
12196W        W30943  34.229   5.529  16.965  0.0607  0.0989 -0.2653
12197W        W30944  17.759  32.775   0.194 -0.0272 -0.0981  0.0282
12198W        W30945   2.215   3.210  25.941  0.0308  0.3059  0.0713
12199W        W30946  25.864  17.922  13.889  0.1363 -0.0506 -0.0754
12200W        W30947   4.949  27.974   1.215 -0.1592  0.3672  0.0955
12201W        W30948  32.094  24.805  20.632  0.1369 -0.2956  0.0685
12202W        W30949  30.380   3.689  22.143  0.1517 -0.2730 -0.1130
12203W        W30950  25.216  26.145  17.999 -0.0679  0.0464 -0.1854
12204W        W30951  24.354   6.410  12.940  0.1347 -0.2492  0.3709
12205W        W30952   9.556  30.869   9.649  0.0411  0.2515 -0.1633
12206W        W30953  20.755   6.377   0.577 -0.0983  0.0146  0.0201
12207W        W30954  27.040  25.807  23.307 -0.1119  0.0113 -0.2118
12208W        W30955  28.689  33.230  11.221 -0.0184  0.1757 -0.2287
12209W        W30956  18.357  24.612   0.857 -0.0533 -0.1072 -0.0760
12210W        W30957  21.006   9.933  25.493 -0.1129 -0.0935  0.0669
12211W        W30958   0.125  30.263  20.735  0.1206 -0.1859 -0.0276
12212W        W30959   4.076   3.093   0.019  0.0291  0.0749 -0.0483
12213W        W30960  24.573  19.778  25.150  0.5139 -0.1298  0.0261
12214W        W30961   9.290  27.880   3.614 -0.0365 -0.0827 -0.1026
12215W        W30962  12.234  18.727  22.430  0.0379  0.0005  0.3696
12216W        W30963  21.711   2.791   8.236 -0.3451  0.0465  0.0800
12217W        W30964  23.498   3.535   7.687 -0.2759 -0.4003  0.1370
12218W        W30965  19.483  18.241   6.612  0.0512  0.1478  0.1466
12219W        W30966  11.470   2.426   5.552 -0.0137 -0.1086  0.1882
12220W        W30967  20.341  17.118   4.167 -0.1183 -0.1964  0.1495
12221W        W30968  15.585   4.566  19.792 -0.1207 -0.4071  0.1205
12222W        W30969  30.714  33.737   3.333  0.2019 -0.0343  0.1422
12223W        W30970  15.841   5.032  12.979  0.0535 -0.1198 -0.0542
12224W        W30971  20.881  31.550  15.935 -0.1658  0.2208  0.3841
12225W        W30972  21.611  29.387  15.527  0.0756 -0.1094  0.2854
12226W        W30973  15.166  23.635   9.391 -0.2023 -0.1381  0.2450
12227W        W30974  34.516  20.172  22.852  0.2713 -0.1613 -0.1609
12228W        W30975   6.198   6.640  22.659  0.2038 -0.0589  0.0708
12229W        W30976   7.313  10.449   7.384  0.2940 -0.0808  0.0882
12230W        W30977  35.104  31.808  22.941 -0.1127 -0.1055  0.2838
12231W        W30978  24.990   3.453   3.191  0.0999  0.1980  0.0124
12232W        W30979  13.768  18.923   3.830 -0.0699 -0.0687  0.2117
12233W        W30980  34.176   3.555  19.466  0.0031  0.1754 -0.1116
12234W        W30981   4.663  15.861   3.268 -0.0659  0.1900  0.3052
12235W        W30982   9.392  31.370  24.478  0.0224  0.0471  0.1824
12236W        W30983  28.259  33.261  19.098  0.0889 -0.1280  0.0733
12237W        W30984  17.408   5.546  22.144  0.0533 -0.2822 -0.2642
12238W        W30985  17.104  13.648  10.299  0.2077 -0.2900  0.1222
12239W        W30986  19.813   7.356   8.822  0.3329 -0.2200  0.1604
12240W        W30987  33.428  18.586  24.778  0.3113 -0.2461  0.0849
12241W        W30988  11.322   9.178  19.497 -0.0506  0.2445  0.1748
12242W        W30989  11.031   2.981  25.154  0.2291  0.0673 -0.4872
12243W        W30990   6.532   3.274   5.514  0.1158 -0.3292  0.1433
12244W        W30991  28.309  17.922  17.390  0.1264  0.1375  0.1086
12245W        W30992   8.257  19.898   2.263  0.1189 -0.3212 -0.1248
12246W        W30993  16.563  21.567  25.639  0.0381  0.2470  0.0425
12247W        W30994  34.931  11.376  25.879  0.1186  0.0302  0.0579
12248W        W30995   8.012   8.747  22.003  0.0980  0.1344 -0.0171
12249W        W30996  10.397  11.045  19.871  0.0900 -0.3049  0.1857
12250W        W30997  30.309  22.590  12.328  0.1815 -0.1904 -0.0370
12251W        W30998  25.038  28.720  16.792  0.0524 -0.1826  0.1414
12252W        W30999   6.502   6.587  23.981  0.2101 -0.0962  0.2727
12253W        W31000   7.291  29.815  11.625  0.0956  0.0666  0.1278
12254W        W31001  19.505   3.415   9.467 -0.4208  0.1667 -0.1940
12255W        W31002   4.514   6.010   3.747  0.0382  0.0734 -0.0051
12256W        W31003   8.913   9.852  11.380  0.0222  0.0127  0.4125
12257W        W31004  18.100  19.208  24.680 -0.0255 -0.2155 -0.1810
12258W        W31005   2.273  12.461  18.441  0.2435 -0.0433 -0.0957
12259W        W31006  26.497  20.839  15.043  0.0126 -0.0072 -0.2103
12260W        W31007  29.901  17.591   9.125  0.0117  0.1315 -0.3121
12261W        W31008  10.474  22.290   0.181  0.3054 -0.1891 -0.1317
12262W        W31009  16.611  24.448   4.580 -0.2080  0.0364 -0.0020
12263W        W31010  22.126  12.363   2.136  0.4099 -0.2729 -0.2252
12264W        W31011  25.215   4.504   2.925 -0.2250  0.0278 -0.0406
12265W        W31012   4.922  34.592   2.076  0.0199 -0.2299  0.0046
12266W        W31013   6.926  15.614  19.589 -0.0349  0.1404  0.1670
12267W        W31014   4.197  34.991  23.336 -0.2211 -0.0390 -0.0324
12268W        W31015  30.264  29.753  18.390 -0.0362 -0.0381  0.1224
12269W        W31016  15.548   7.369   6.373 -0.0989 -0.0540 -0.5044
12270W        W31017  31.118  23.593  11.220  0.2180  0.1957 -0.0535
12271W        W31018  31.026  14.900   8.083  0.1277 -0.0506 -0.0714
12272W        W31019   7.767  28.834  13.383  0.0736  0.2285 -0.0068
12273W        W31020  11.500  18.840  10.702  0.0645 -0.1076  0.1412
12274W        W31021  17.050   3.369   6.944  0.1583 -0.2337 -0.1378
12275W        W31022  32.352  32.318   6.407 -0.1069 -0.0143 -0.0258
12276W        W31023  13.165  28.395   7.479  0.0553  0.2615  0.1264
12277W        W31024   1.814  29.524  24.525 -0.1252 -0.0873  0.1977
12278W        W31025  18.573  24.203  25.640 -0.0493  0.2265 -0.1661
12279W        W31026  25.892   9.545   0.228 -0.0045 -0.2639 -0.2830
12280W        W31027  32.669  20.145  12.616  0.3943 -0.2359  0.3457
12281W        W31028  10.097  14.765  21.307 -0.1496 -0.2889 -0.2518
12282W        W31029  28.964  13.496  25.449  0.1967 -0.1380 -0.0390
12283W        W31030  34.681  25.392   3.140 -0.4857 -0.0387 -0.3798
12284W        W31031   7.045   9.452   0.970 -0.0689 -0.3357  0.0846
12285W        W31032   6.313  29.521   1.678  0.1178 -0.0619 -0.1250
12286W        W31033  24.375  17.171  11.181  0.2498  0.3145  0.0158
12287W        W31034   8.743  17.128  10.388 -0.1289  0.3191 -0.4447
12288W        W31035  33.250  33.797  25.286  0.1036  0.5465 -0.3333
12289W        W31036  35.184  20.781  23.769 -0.0876 -0.1380  0.1649
12290W        W31037  10.929   9.708   9.037 -0.2572  0.4943 -0.1912
12291W        W31038  33.277  34.501  18.332  0.0766 -0.1856 -0.2097
12292W        W31039  14.129  28.016   4.744  0.0927  0.0162  0.0556
12293W        W31040   7.605   3.387   0.755 -0.2882  0.0176 -0.1043
12294W        W31041  28.992  18.215  14.926  0.4020  0.2128  0.1171
12295W        W31042   3.682  32.401   1.291 -0.1268  0.0597  0.0978
12296W        W31043  11.519  33.429   2.381 -0.4312  0.1810  0.2238
12297W        W31044  18.130  19.712  25.406  0.2587  0.0480  0.1924
12298W        W31045   9.031  28.298  12.351 -0.0008  0.1140 -0.2025
12299W        W31046  16.653  17.294  24.028 -0.0357  0.0518 -0.0077
12300W        W31047  25.873  26.684  19.977  0.3952 -0.2133  0.2306
12301W        W31048   6.419  13.982   0.300 -0.2282  0.0025 -0.2594
12302W        W31049  17.984  10.328   6.973 -0.3095  0.0515  0.3373
12303W        W31050  30.372   2.124  12.180  0.0126  0.2096  0.0364
12304W        W31051   1.135  25.943  23.156 -0.0257  0.3344  0.1993
12305W        W31052  19.749  32.908  17.401  0.0066  0.1812  0.2734
12306W        W31053  27.369   9.660  12.552 -0.2308  0.0674 -0.0799
12307W        W31054  11.988  16.255   3.539  0.0150 -0.2683  0.2404
12308W        W31055  10.548  13.160   8.682 -0.0602  0.0441 -0.0313
12309W        W31056  22.143  25.049   1.344  0.1255  0.0325 -0.3477
12310W        W31057  13.251  28.415   1.670  0.1278  0.0607 -0.2292
12311W        W31058  22.744  31.329   0.592 -0.0020 -0.0777 -0.1440
12312W        W31059   8.467  12.490   1.380  0.0003  0.0914  0.1202
12313W        W31060   7.740  27.781  10.627  0.1288 -0.2081  0.0298
12314W        W31061   1.422  15.404  25.221  0.0124  0.1543  0.0142
12315W        W31062   7.074   9.293  18.186 -0.0869  0.1296 -0.1414
12316W        W31063   5.698  16.237  19.925  0.0662 -0.0318  0.2770
12317W        W31064  31.259  28.633  15.685  0.0371 -0.2923  0.2355
12318W        W31065   8.278  27.652  15.728 -0.2049  0.3336 -0.2329
12319W        W31066  17.621  15.115   1.219  0.0974 -0.1694 -0.1439
12320W        W31067  22.105   9.440  21.438 -0.0278 -0.1878 -0.1835
12321W        W31068  25.150  26.479   1.124 -0.2115 -0.0671  0.2034
12322W        W31069  28.379  26.941   2.385 -0.2132 -0.4158  0.1765
12323W        W31070  23.695   3.061   6.324 -0.0817 -0.0122  0.1344
12324W        W31071  17.107  18.562   2.912  0.0308  0.0729 -0.2182
12325W        W31072  29.928  16.682  25.819 -0.2065  0.1019  0.1235
12326W        W31073  16.408  18.729  23.293  0.1617 -0.4352  0.0311
12327W        W31074   7.945  17.050  19.905  0.0203 -0.1532  0.2846
12328W        W31075  15.846  30.321   4.557 -0.0788  0.0188 -0.2419
12329W        W31076  25.993   6.901  19.535  0.0270  0.2069 -0.0768
12330W        W31077  25.611  17.721  12.458  0.2413  0.0299 -0.1082
12331W        W31078  26.174  33.129  10.285 -0.1179 -0.5073  0.2514
12332W        W31079  22.351  33.899   0.694  0.1571  0.2201 -0.3693
12333W        W31080  34.158  30.906  22.146  0.1014 -0.3757  0.1896
12334W        W31081  24.350  34.690   5.097 -0.2384  0.0776  0.0454
12335W        W31082  19.327  24.589   8.424  0.0446 -0.1589 -0.2201
12336W        W31083  33.195  27.254   0.456 -0.2120  0.1219 -0.1855
12337W        W31084  20.414  29.150   4.282  0.2778 -0.1754  0.0425
12338W        W31085  16.291   6.783   7.578  0.0918  0.2218  0.3151
12339W        W31086  14.535   9.083  11.707  0.4717  0.0548  0.2138
12340W        W31087  24.999  15.373  10.958  0.2490 -0.0353 -0.0510
12341W        W31088  19.059  20.146   7.123  0.2086 -0.2224 -0.0799
12342W        W31089  18.609   7.513  21.400  0.0515  0.1467  0.2048
12343W        W31090  19.276   4.781   5.487 -0.2944  0.5698  0.1320
12344W        W31091  19.225  25.029  25.533  0.1127 -0.2399 -0.2344
12345W        W31092   4.038  29.700  26.222  0.1384  0.0450 -0.2218
12346W        W31093  27.990   4.071  17.123  0.1934 -0.1518 -0.1702
12347W        W31094  16.598  31.765   7.320 -0.1280 -0.1558  0.0862
12348W        W31095  25.808  12.584  19.643 -0.0593 -0.1009  0.0844
12349W        W31096   5.445  19.814   2.214 -0.2148  0.2325 -0.0824
12350W        W31097  35.333   2.241  17.525  0.0934  0.0574  0.1063
12351W        W31098  13.383  13.910  22.139 -0.1535  0.0159 -0.0444
12352W        W31099  32.048   9.581  25.475  0.1948 -0.2916  0.4296
12353W        W31100  19.966  26.848   0.109 -0.2489  0.1702 -0.0323
12354W        W31101   4.828  34.106   4.189  0.0267 -0.0979  0.0390
12355W        W31102   2.782  25.906   2.218 -0.2794 -0.0017 -0.3215
12356W        W31103   6.218  25.936   3.312 -0.1706  0.0222  0.1715
12357W        W31104  30.461  17.404  16.174  0.0769 -0.0626 -0.0191
12358W        W31105   9.762  32.924  12.729  0.2481 -0.0401  0.1264
12359W        W31106  26.748  11.462  24.867 -0.1999 -0.1114  0.2224
12360W        W31107  17.856   5.782  10.761  0.0766 -0.1171 -0.2935
12361W        W31108   9.207  10.811  12.571 -0.1425  0.1766 -0.2174
12362W        W31109   9.437  33.775  15.017 -0.0657 -0.2204  0.0791
12363W        W31110  11.323  30.850  25.955 -0.0837 -0.0638 -0.1947
12364W        W31111   0.274  19.219  11.003  0.1927 -0.1468  0.0760
12365W        W31112  26.480  34.467  24.746 -0.5650  0.0937 -0.1449
12366W        W31113  16.430   3.519  19.984  0.1259 -0.0602  0.0730
12367W        W31114  31.775   1.386  14.462 -0.1024  0.0258  0.0947
12368W        W31115  14.355  32.841   6.173  0.2940  0.1616 -0.0575
12369W        W31116   0.018  21.956  25.427  0.1183 -0.0134  0.1692
12370W        W31117   4.462   6.964   0.570  0.2554 -0.0162 -0.3395
12371W        W31118   8.324  20.718   3.288  0.0047  0.3285 -0.0155
12372W        W31119  28.579   0.606  12.652  0.0880 -0.0766  0.2142
12373W        W31120  28.781  16.681   4.380 -0.3747  0.1375  0.1361
12374W        W31121  25.685  29.970   3.706  0.0046 -0.1097  0.1059
12375W        W31122  19.627  34.053  16.546  0.0380  0.0494 -0.1606
12376W        W31123   6.914  17.693  21.104  0.2003  0.0513  0.0117
12377W        W31124  31.810  16.470  20.778 -0.1389  0.0639 -0.4801
12378W        W31125   1.762  10.905  16.993 -0.1110  0.0724 -0.1238
12379W        W31126  33.503  30.909  23.356 -0.0200  0.1577  0.1870
12380W        W31127   7.397  21.038  10.784  0.1546 -0.3052  0.3654
12381W        W31128  31.807  27.043  17.594 -0.1599  0.0979  0.1629
12382W        W31129  14.706   6.951   8.101  0.0406 -0.0224 -0.3434
12383W        W31130  10.718  22.412  13.573  0.1277  0.1310  0.1008
12384W        W31131  12.225  12.613  22.887 -0.3035  0.1416 -0.1579
12385W        W31132   5.425  33.716  10.733 -0.0338 -0.0662 -0.3051
12386W        W31133  34.265   4.706   5.897  0.1095  0.0676 -0.0248
12387W        W31134  23.769  31.143   4.349  0.0580  0.1250 -0.0665
12388W        W31135  17.662  26.768   5.398  0.0913  0.0786 -0.0106
12389W        W31136  19.991   1.588  15.411  0.2464  0.2455  0.1273
12390W        W31137  33.519  24.734  20.517 -0.0775 -0.1185  0.0970
12391W        W31138  25.429   8.740  16.066  0.0173 -0.1332 -0.0294
12392W        W31139  18.853  17.881  21.927  0.1240 -0.2047  0.0029
12393W        W31140  29.698  33.276  11.728 -0.1022  0.0749 -0.2393
12394W        W31141   2.443  26.597   1.455  0.0824  0.0349 -0.2922
12395W        W31142   1.381   7.453  15.068 -0.1384 -0.3097  0.2328
12396W        W31143  28.195  18.818  19.373  0.1552 -0.0312  0.0678
12397W        W31144  35.227  33.098  22.398 -0.4033 -0.2745 -0.1039
12398W        W31145  17.838   6.999   6.885  0.3060 -0.0220  0.1453
12399W        W31146   5.762  16.793   3.752  0.2554 -0.0945  0.0749
12400W        W31147   3.535   4.251  22.153  0.0223 -0.0183 -0.4546
12401W        W31148   7.127  34.655  22.854  0.1758  0.0408  0.1916
12402W        W31149  34.311  22.422  22.546 -0.0733 -0.2529 -0.4068
12403W        W31150  19.975   6.533   1.359 -0.2360  0.2636 -0.1101
12404W        W31151   1.821  10.794  24.296  0.0361  0.1298 -0.0691
12405W        W31152  34.017  32.729  23.386 -0.0568 -0.2260  0.1335
12406W        W31153  22.461   4.055  16.010 -0.1465 -0.0162  0.1581
12407W        W31154   4.462  15.245  21.822  0.1382 -0.1466  0.0782
12408W        W31155   1.430  11.032  18.687 -0.0729  0.1286  0.0083
12409W        W31156  29.064  31.553   4.276 -0.1726 -0.1780 -0.1149
12410W        W31157   4.936   0.615  21.850 -0.0599  0.1370 -0.0814
12411W        W31158   9.071  14.587   1.098  0.2342 -0.1201  0.0949
12412W        W31159   0.348  11.107  10.305  0.1558  0.1394 -0.1879
12413W        W31160   4.572  27.753  22.655  0.1822 -0.0863  0.1650
12414W        W31161   7.686  20.835  12.336 -0.0793  0.1643 -0.0766
12415W        W31162  28.493   6.374  18.578 -0.0971  0.0401 -0.2219
12416W        W31163   0.051  20.181  14.397  0.0021 -0.3007  0.2187
12417W        W31164  29.647  32.735  15.392  0.1257 -0.2182 -0.1181
12418W        W31165  28.765  10.777  21.269 -0.2780 -0.1147 -0.1322
12419W        W31166  12.355  14.067   5.921  0.5709  0.0309 -0.1517
12420W        W31167  13.916   2.744  19.497 -0.1640  0.1550 -0.2878
12421W        W31168  18.850  33.802  24.549  0.1491  0.1261  0.0462
12422W        W31169  35.153   6.519   4.917 -0.0891  0.2064 -0.2606
12423W        W31170   3.743   3.100   4.850  0.0168 -0.0721  0.2715
12424W        W31171   8.570  23.210  22.725  0.2612  0.1742 -0.1558
12425W        W31172  31.981   9.876   6.534  0.0178 -0.1043 -0.0449
12426W        W31173  32.982  14.587  23.273 -0.0307  0.2073  0.0823
12427W        W31174   7.640  14.672   5.177 -0.0574  0.0312  0.0441
12428W        W31175   0.525   1.709   0.058  0.0294 -0.1118  0.1499
12429W        W31176  24.507   4.053  19.084 -0.0880 -0.1543 -0.1418
12430W        W31177  14.334   5.144  20.229 -0.3311 -0.0295  0.1981
12431W        W31178  34.434  21.907  10.884 -0.0090  0.0367 -0.0388
12432W        W31179   5.246  12.368  16.948  0.1344 -0.4592  0.4459
12433W        W31180  26.731  19.084  15.859 -0.2889  0.1649  0.0156
12434W        W31181  10.782  17.716  24.250  0.0700  0.2777 -0.2637
12435W        W31182   5.944   1.586   0.663 -0.0928 -0.2240 -0.0545
12436W        W31183  27.576   6.080  23.245  0.0108 -0.2863 -0.0159
12437W        W31184   3.488  30.014  22.890 -0.4190  0.1380  0.0475
12438W        W31185   9.407  16.754  21.361 -0.3177 -0.1826 -0.2786
12439W        W31186  16.386  10.187   8.008 -0.2465 -0.1456  0.0556
12440W        W31187  32.839  20.616   8.689 -0.1553 -0.2525 -0.1888
12441W        W31188  25.092  17.555  17.091 -0.0141 -0.4799  0.3086
12442W        W31189  13.875  21.107  24.026 -0.0405  0.1461  0.0012
12443W        W31190  31.279  22.222  24.326 -0.0756 -0.0726 -0.2499
12444W        W31191  23.688  22.933  23.672  0.1777 -0.1162 -0.1612
12445W        W31192   0.244  31.157  18.410  0.0989  0.3582 -0.1190
12446W        W31193  14.980  29.417   7.225 -0.3795 -0.0063 -0.2198
12447W        W31194  16.847  27.883  22.295  0.0781  0.0550  0.0204
12448W        W31195  28.994   3.249   5.726 -0.2471 -0.1307  0.0803
12449W        W31196   7.120   5.090  19.662  0.5043 -0.0274  0.0720
12450W        W31197  34.646  13.851  19.600 -0.0875 -0.2000 -0.2070
12451W        W31198   8.109   6.558  25.145  0.1479 -0.1639 -0.0438
12452W        W31199  15.431  14.634   3.075 -0.3645  0.1987  0.0524
12453W        W31200  19.349   0.421  15.491 -0.0014  0.5126  0.4164
12454W        W31201  24.911  22.338  12.206  0.0593  0.0301  0.2438
12455W        W31202  20.736  20.348   0.978 -0.4412  0.2341 -0.0136
12456W        W31203  27.484  32.706  18.234 -0.3253  0.1954 -0.0410
12457W        W31204  33.143  22.818  24.480  0.2683 -0.1102 -0.0985
12458W        W31205  16.569  22.575   9.058  0.0573 -0.1405 -0.0917
12459W        W31206  16.491   9.234   1.976 -0.0124  0.0773  0.0907
12460W        W31207   0.857  23.575  20.563  0.1773 -0.0833 -0.0628
12461W        W31208   0.911   9.956  16.772  0.2145 -0.1174  0.0002
12462W        W31209  30.279  32.644  24.369 -0.1803  0.1425  0.1755
12463W        W31210  32.796   4.631  24.115 -0.2029 -0.3150  0.2772
12464W        W31211  13.220  33.271  13.788 -0.0509 -0.0682  0.1585
12465W        W31212  23.182  18.649  14.023 -0.0659 -0.3221  0.1983
12466W        W31213  19.080   3.107   2.439 -0.1520  0.1670 -0.0275
12467W        W31214  28.042   2.695  15.333  0.1037  0.1739 -0.2619
12468W        W31215  10.989  27.157   7.162 -0.0885 -0.0782 -0.0646
12469W        W31216  13.576  19.317   9.548 -0.0859  0.4368 -0.2990
12470W        W31217  18.149  18.595   6.556 -0.0628  0.3145  0.1682
12471W        W31218   5.673  16.182  18.795  0.2850  0.3961 -0.0884
12472W        W31219  19.206  23.098   9.923  0.1785 -0.4287  0.2136
12473W        W31220  25.381  28.830  20.728  0.0104  0.1505 -0.2975
12474W        W31221  13.434  31.663   9.399  0.3200 -0.0413 -0.3977
12475W        W31222  20.881  34.061  20.395 -0.0730  0.0576  0.0163
12476W        W31223  23.108   7.066  22.635 -0.0477  0.3949  0.2390
12477W        W31224  13.504   9.730  10.570  0.2427  0.1713 -0.1892
12478W        W31225   6.176  25.415   2.092 -0.0250 -0.5354 -0.3980
12479W        W31226  22.964  17.660  16.070  0.0111 -0.3364 -0.1719
12480W        W31227  28.392   2.882  22.539  0.2463  0.2222  0.0550
12481W        W31228  25.964  28.338  19.359  0.1942  0.0173  0.1041
12482W        W31229  25.623   0.958  14.045  0.1142 -0.1004 -0.1888
12483W        W31230  14.829   6.362  19.147  0.0980 -0.1883  0.0735
12484W        W31231  19.883   4.176   2.636 -0.2358 -0.0007  0.0005
12485W        W31232  33.237   1.392   5.658  0.0381 -0.2652  0.1878
12486W        W31233   3.899  33.654   5.137 -0.0342 -0.0880 -0.0446
12487W        W31234  22.361  25.224  17.702  0.1283 -0.2478  0.1280
12488W        W31235   1.440   4.948  18.382 -0.1268 -0.1551  0.1287
12489W        W31236   0.523  12.916  20.373 -0.0600  0.2070  0.1314
12490W        W31237  22.106  23.634   0.180  0.0293  0.3761 -0.1545
12491W        W31238  23.275   8.562  25.911  0.0161 -0.0889 -0.0729
12492W        W31239   5.520  24.613   7.097 -0.0913 -0.1083  0.2129
12493W        W31240   1.400  12.906  18.772  0.0725  0.1831 -0.2298
12494W        W31241  16.185  32.249  23.771 -0.0522  0.0645 -0.0064
12495W        W31242  21.863  29.303   2.227 -0.1120 -0.0433 -0.0901
12496W        W31243   2.630   6.994  21.042 -0.1863  0.0119  0.0779
12497W        W31244  30.912  13.954  21.261  0.1929  0.1892 -0.1767
12498W        W31245  12.284   8.068  19.527 -0.1109  0.0338  0.0942
12499W        W31246  27.701  16.460  14.958 -0.2313 -0.0632 -0.0981
12500W        W31247  15.478  21.546  14.469  0.0121  0.0637 -0.1493
12501W        W31248  25.548   1.305   6.475  0.0787  0.1369  0.3839
12502W        W31249  34.943   4.446  13.553 -0.0142  0.3750  0.1523
12503W        W31250   0.667  18.271  23.931 -0.1206 -0.2071 -0.0004
12504W        W31251  17.415  22.407   2.559  0.2270 -0.0566  0.2320
12505W        W31252  19.408  27.758  19.083 -0.2365 -0.2656  0.0405
12506W        W31253   9.377  24.149   4.085  0.1580 -0.1761 -0.0317
12507W        W31254  28.957  14.489  18.260  0.0479 -0.1382  0.0458
12508W        W31255  12.374  33.134   0.772  0.0142 -0.1010 -0.0737
12509W        W31256   2.032  29.898  10.631 -0.4013 -0.3955  0.1081
12510W        W31257  18.510  27.998   3.766  0.0787 -0.0878  0.0038
12511W        W31258   5.579   2.896  17.713 -0.1348  0.1658 -0.1543
12512W        W31259   7.922  13.694  18.508 -0.1071  0.1052  0.1021
12513W        W31260  18.341   5.389   2.351  0.0944 -0.1771  0.2052
12514W        W31261   8.534  25.682   1.297 -0.1474  0.0362  0.3260
12515W        W31262  24.332  19.229  22.314  0.2174 -0.3098 -0.3984
12516W        W31263   0.916   4.741  25.678  0.1033  0.3225  0.1763
12517W        W31264   8.771  29.392   5.564 -0.3763 -0.0228  0.0399
12518W        W31265   3.118  13.810  24.253 -0.2117  0.1932 -0.1994
12519W        W31266  15.490  24.931  10.574  0.1213  0.2176 -0.1717
12520W        W31267  33.686   7.367  20.129 -0.0241  0.1455  0.1043
12521W        W31268  33.516  31.881  19.963 -0.0926 -0.0455  0.1343
12522W        W31269   4.614  31.209  24.356  0.0794 -0.1051  0.0030
12523W        W31270  27.989  34.360  13.979 -0.0387  0.0164  0.0701
12524W        W31271  35.080  28.529  19.460 -0.0843  0.2333  0.1214
12525W        W31272  33.826   2.330  15.060 -0.0052 -0.1859  0.3057
12526W        W31273  25.645   2.271  19.805  0.0331  0.0618 -0.1486
12527W        W31274  13.441  33.307   2.203 -0.3054  0.2971  0.2101
12528W        W31275  31.688   7.843  22.133 -0.3930 -0.3423  0.1976
12529W        W31276  34.437   5.420  15.457 -0.1098  0.0460  0.1212
12530W        W31277  31.465  26.909  22.485  0.2398 -0.0908 -0.0011
12531W        W31278  26.552  11.570  17.461  0.1425 -0.1753  0.2662
12532W        W31279  16.482  12.896  19.205 -0.1884 -0.0244  0.4627
12533W        W31280  11.156  23.342   8.613 -0.0486 -0.0097  0.2336
12534W        W31281  14.900  23.817  12.438  0.2427  0.0333 -0.1430
12535W        W31282  34.520   9.082  14.326 -0.0312  0.0343 -0.0858
12536W        W31283  35.142  29.330  23.690 -0.1453  0.2809 -0.3062
12537W        W31284  12.090  28.806  14.543 -0.0689 -0.0857  0.1591
12538W        W31285  34.179  23.810  23.193  0.0943  0.1215  0.0879
12539W        W31286  26.432  33.276   3.053 -0.1161  0.3173 -0.1792
12540W        W31287  24.801   3.755  12.588  0.0141 -0.0781  0.1715
12541W        W31288  28.036  14.842   5.237  0.0732 -0.2744 -0.2634
12542W        W31289  31.168  18.787   8.619  0.1883 -0.0152  0.4545
12543W        W31290   8.400  24.248   7.351  0.0092  0.3859 -0.3279
12544W        W31291  14.831  28.684   0.985 -0.0361  0.1093 -0.1959
12545W        W31292  18.306   6.521   5.328  0.1578 -0.0051 -0.2372
12546W        W31293  33.098  22.221  20.224  0.1197  0.0249  0.0746
12547W        W31294  10.960  24.533  13.455 -0.2751  0.3240  0.0729
12548W        W31295  22.916  19.368  19.033 -0.0757  0.2233  0.1464
12549W        W31296  10.269  27.911  15.422 -0.0025  0.3989  0.1653
12550W        W31297  32.961  17.328  22.181  0.1411  0.0473 -0.1246
12551W        W31298  31.395   3.812  15.589  0.0836  0.0665 -0.0531
12552W        W31299  19.066  11.505   2.267  0.2877 -0.2172 -0.3078
12553W        W31300   2.692   6.502  17.051 -0.0409  0.1106  0.1479
12554W        W31301  19.745  12.172  23.024 -0.3829 -0.0342  0.1216
12555W        W31302  14.714  21.911  25.431  0.1002  0.2789  0.1985
12556W        W31303  21.001   5.333  24.012 -0.0720  0.0930 -0.1551
12557W        W31304   7.312   6.749   5.887 -0.2331 -0.2252 -0.0379
12558W        W31305  13.663  21.210  25.222 -0.0066 -0.0427 -0.1859
12559W        W31306  33.569   5.687   0.164  0.0443 -0.5066 -0.0786
12560W        W31307  31.375   0.105  12.746 -0.0801  0.3790  0.0328
12561W        W31308  29.146  23.664  21.470 -0.0331  0.3492  0.0076
12562W        W31309  17.749  35.008  21.110 -0.1261  0.1837  0.2563
12563W        W31310  23.463  27.854  24.039 -0.0220  0.3498 -0.1281
12564W        W31311  14.286   9.851  22.351 -0.0950  0.3910 -0.0895
12565W        W31312  23.745  13.724  24.903  0.0657 -0.1886 -0.0110
12566W        W31313   2.761   3.503  17.885 -0.0030 -0.1579 -0.2503
12567W        W31314  26.112  14.061   6.461 -0.0155  0.1270  0.1887
12568W        W31315  21.381   6.145  20.829  0.1245 -0.3324  0.1991
12569W        W31316  27.940  35.168  18.855 -0.1319 -0.0343  0.0790
12570W        W31317  29.821  25.560  12.474 -0.3108 -0.2381 -0.0908
12571W        W31318   3.038  13.837   0.164  0.2592 -0.2013 -0.1423
12572W        W31319   9.310  23.724  16.298 -0.1814 -0.1889  0.2197
12573W        W31320  29.982   6.859  18.560 -0.3043  0.1082  0.1252
12574W        W31321   1.542  18.081  23.001  0.2884  0.1392  0.4289
12575W        W31322  24.831  32.701   5.319  0.0196 -0.1661 -0.1568
12576W        W31323   7.453  16.816  11.313 -0.0695  0.0419 -0.1115
12577W        W31324  17.230  11.020   5.489  0.0488 -0.0427  0.1223
12578W        W31325   8.539   1.687  10.808  0.2431  0.2309  0.0207
12579W        W31326  15.799   7.589  21.880 -0.1995 -0.1297  0.1232
12580W        W31327  10.010   6.136  26.066  0.0491 -0.1255 -0.1550
12581W        W31328   4.600  34.076   6.937  0.1493 -0.2107 -0.0143
12582W        W31329  18.206  17.246   5.256 -0.1323  0.0085  0.1602
12583W        W31330  22.138  27.269   3.722  0.3181  0.0638 -0.0718
12584W        W31331   1.015   5.988  21.493 -0.0676 -0.0845  0.2753
12585W        W31332  24.973  16.132  14.912  0.0275 -0.1074  0.0171
12586W        W31333  20.658  33.339   3.301  0.0949  0.3148  0.1253
12587W        W31334  24.047  33.549   0.692  0.1515  0.1585  0.1558
12588W        W31335  31.326  25.436  10.866 -0.0352  0.3558  0.0975
12589W        W31336  28.043   4.783  25.843 -0.1198 -0.0704 -0.0175
12590W        W31337  29.655  19.209  14.854  0.1906  0.2287 -0.0717
12591W        W31338  21.185   1.535  18.014  0.1512 -0.0961 -0.2192
12592W        W31339  21.395  11.362  20.172 -0.0792  0.2108 -0.2176
12593W        W31340  18.788   5.076  17.360  0.0263 -0.0606 -0.0367
12594W        W31341   2.679   1.054  25.403 -0.1021 -0.1565  0.2105
12595W        W31342   4.535  16.870  21.116 -0.1799 -0.0320 -0.0097
12596W        W31343  16.825  20.043  20.723  0.2549 -0.2558 -0.0429
12597W        W31344  28.890  32.835   4.400  0.0306  0.1164  0.0456
12598W        W31345   8.327   0.881  22.887 -0.1303 -0.1195  0.3298
12599W        W31346  32.923   7.027   1.700  0.2590  0.0455  0.1573
12600W        W31347  18.512   6.973   3.566  0.2237  0.1372  0.0841
12601W        W31348   9.438  29.039  22.365  0.1602  0.1793  0.3353
12602W        W31349   7.908  34.867   1.788 -0.0369  0.0912 -0.1646
12603W        W31350  33.022   2.361   5.326  0.0191  0.2828  0.0453
12604W        W31351   2.923  16.692   2.972  0.1500 -0.2738 -0.1756
12605W        W31352  21.929   7.605   2.973  0.0426  0.1586  0.0625
12606W        W31353   3.546  13.209  19.142  0.2812  0.1189 -0.1857
12607W        W31354  28.333  16.309  11.650  0.4305  0.5698 -0.3404
12608W        W31355   7.955  25.854  10.882  0.3502 -0.2787 -0.3376
12609W        W31356  16.277   6.244   4.892  0.3272 -0.0355  0.0599
12610W        W31357  35.137  16.428  12.453 -0.5097  0.3916  0.0301
12611W        W31358  11.949   2.438   5.719  0.0750  0.4296  0.1892
12612W        W31359  30.953  13.004   0.343 -0.0864 -0.2756  0.1781
12613W        W31360   8.031  33.367   9.197 -0.0669  0.0814 -0.1970
12614W        W31361  16.670  30.948  19.349  0.1372  0.2671  0.3449
12615W        W31362  26.445   0.171  23.016 -0.2496  0.1079  0.1685
12616W        W31363  14.436  28.313   2.783 -0.0466 -0.0664  0.1654
12617W        W31364   3.263   1.235  17.818  0.1164 -0.0723 -0.4218
12618W        W31365  12.711  30.010  15.627 -0.1652  0.0651 -0.1196
12619W        W31366  29.787   6.650  26.170  0.0282 -0.1661 -0.0694
12620W        W31367  27.213  18.731  13.446  0.1817 -0.1251  0.2135
12621W        W31368  35.118   2.625   6.376 -0.2131  0.0019 -0.1042
12622W        W31369  26.515  16.046  20.384  0.1330  0.0690 -0.1612
12623W        W31370  28.290   9.599  12.202 -0.0891  0.3188  0.0384
12624W        W31371  29.391  33.949  16.882 -0.1556  0.1344  0.0828
12625W        W31372   4.930  20.934   5.300  0.0512  0.0021  0.2516
12626W        W31373  22.554  23.162   4.933  0.3185 -0.1587 -0.1425
12627W        W31374  10.363  17.712  19.246 -0.0347  0.2231  0.3101
12628W        W31375   6.891  10.365  21.001  0.3218  0.1535 -0.4260
12629W        W31376   5.959   5.915   1.809 -0.0739 -0.1499  0.0111
12630W        W31377  23.076  30.426   0.589  0.1527 -0.0688 -0.0058
12631W        W31378   2.531   4.177   4.950 -0.0742  0.1114 -0.1423
12632W        W31379  18.769  21.103   6.039 -0.0140  0.0270  0.3344
12633W        W31380  23.994   7.960   2.972 -0.3292 -0.1467  0.3660
12634W        W31381  30.388   4.195   1.881 -0.4090  0.3703 -0.0019
12635W        W31382  19.907  35.275   5.834  0.0176 -0.0533  0.0711
12636W        W31383  14.093   5.393  23.078 -0.0316 -0.1736  0.2056
12637W        W31384  25.664  14.455  13.341  0.2049 -0.1781  0.0913
12638W        W31385  15.661   1.247  22.115 -0.0076  0.2039 -0.1775
12639W        W31386   1.771  12.676  12.911 -0.2606 -0.3129  0.1757
12640W        W31387   8.200   8.650  11.315 -0.2542  0.1649 -0.0838
12641W        W31388   4.745   1.965  20.357 -0.2063  0.1132 -0.2826
12642W        W31389  32.980  12.996   9.924 -0.1206  0.1098  0.2274
12643W        W31390  10.465  32.773  20.775 -0.2293 -0.1077 -0.1030
12644W        W31391   8.385  18.543   1.906  0.3082 -0.1672  0.2053
12645W        W31392  31.111  18.995   7.544  0.2274  0.2864 -0.0047
12646W        W31393  20.353  18.247   4.851  0.0954  0.0992 -0.2807
12647W        W31394   8.496  18.370   1.428  0.0659 -0.0206 -0.2553
12648W        W31395  13.588  33.176  12.587  0.0135  0.0219  0.2793
12649W        W31396  11.181  18.071  12.803  0.1433  0.2396 -0.2852
12650W        W31397  20.602  19.026   1.187 -0.1746 -0.2457  0.0161
12651W        W31398  10.390  20.369  24.621  0.0302 -0.1039 -0.3736
12652W        W31399  33.690  13.373  12.951  0.0211  0.2149 -0.0005
12653W        W31400   1.615  10.743  17.859 -0.1339 -0.0437  0.1241
12654W        W31401  13.572  31.095   9.375 -0.2307  0.0671 -0.2065
12655W        W31402  31.204  20.704  23.091  0.0604  0.3388 -0.1733
12656W        W31403  19.923  31.573  24.333  0.2942 -0.0068  0.0660
12657W        W31404  15.822   5.954  20.810  0.1348 -0.4144 -0.1000
12658W        W31405  25.743  20.694  18.384  0.0706  0.2026  0.3500
12659W        W31406   5.089  24.632  24.103 -0.2890 -0.1688 -0.2755
12660W        W31407   9.274  15.567  12.531  0.0944  0.0146  0.1559
12661W        W31408  15.171  26.109   0.238  0.1897 -0.0918 -0.0515
12662W        W31409  12.157  30.996   6.876  0.3954 -0.1478 -0.2467
12663W        W31410  34.099  23.004  18.181 -0.1044  0.1237 -0.1399
12664W        W31411   9.788  33.076   4.517 -0.1856 -0.0064  0.1803
12665W        W31412  27.173  10.349  25.170 -0.1031 -0.0254  0.0227
12666W        W31413  34.752  19.421  11.710 -0.0107 -0.0149  0.0988
12667W        W31414  14.942   6.908   8.554  0.0664 -0.0620 -0.2397
12668W        W31415  28.589  34.101  22.055  0.0836 -0.0735 -0.0919
12669W        W31416  24.589  30.944  23.300  0.0500  0.0353 -0.1158
12670W        W31417  34.120  21.810  24.608  0.0345  0.0538 -0.0509
12671W        W31418  11.642  25.189  10.695 -0.0011 -0.0823 -0.4996
12672W        W31419   8.684  11.535   8.684  0.0005 -0.0319  0.1464
12673W        W31420  30.721  10.443  25.097  0.3574  0.1913 -0.1162
12674W        W31421  19.421   5.034   7.418  0.1165 -0.1313 -0.1166
12675W        W31422  19.470  24.986   4.047  0.1724  0.0477  0.0714
12676W        W31423  30.645  33.275   0.804  0.2017  0.0590 -0.0301
12677W        W31424  32.887   1.061  14.955  0.0444  0.1528  0.0895
12678W        W31425  14.286  15.816   7.991  0.0068  0.0400 -0.0712
12679W        W31426  11.242  20.175   4.577 -0.0504  0.0291 -0.0118
12680W        W31427  19.343   1.144   7.185  0.0120 -0.2161  0.0462
12681W        W31428   7.056  19.300   6.739  0.0598 -0.1194 -0.2770
12682W        W31429   7.795   0.688   3.419 -0.2153  0.2466 -0.0390
12683W        W31430  15.961   7.173  21.298 -0.0139  0.1904  0.3705
12684W        W31431  23.889  24.208  21.400  0.2984  0.1129  0.0798
12685W        W31432  34.279   9.902  15.995  0.3468  0.2179 -0.2123
12686W        W31433  34.629   0.678  24.044  0.1753  0.2607 -0.3140
12687W        W31434  26.704  17.558   7.660  0.1551 -0.1651 -0.0239
12688W        W31435  23.068  29.184  21.748 -0.0274  0.0052  0.4966
12689W        W31436  34.792   9.010  13.870  0.1299 -0.0835 -0.0678
12690W        W31437  28.989  27.841  22.687  0.2118  0.0150  0.0082
12691W        W31438  27.540  11.150  24.817 -0.0009 -0.2515  0.1729
12692W        W31439  18.539  30.736   9.483 -0.1750 -0.0200  0.0766
12693W        W31440  31.793  11.501  25.133  0.2187 -0.2383 -0.4260
12694W        W31441  26.129  24.385   8.954 -0.1007 -0.1279 -0.0113
12695W        W31442   7.421  29.056  11.849 -0.3086  0.1335  0.2718
12696W        W31443  34.212   1.947  20.421  0.2383 -0.0501  0.1629
12697W        W31444   4.897  32.026  25.589  0.0114  0.1068  0.0304
12698W        W31445   9.163   6.904   7.201  0.0361  0.2063  0.0765
12699W        W31446  14.681  22.757   7.671 -0.1991 -0.0930 -0.1675
12700W        W31447  16.274  21.583  11.857 -0.3077  0.1373  0.1560
12701W        W31448  30.713  35.269  12.102 -0.5130 -0.0007 -0.1384
12702W        W31449  12.439   6.763   4.996  0.3861  0.1655 -0.1911
12703W        W31450  35.140  30.920  19.632 -0.2034  0.1445  0.0540
12704W        W31451  23.743  35.198  22.884  0.1579 -0.0247 -0.1466
12705W        W31452   0.900   6.953   0.081  0.3713  0.2439 -0.3143
12706W        W31453  13.691  10.882  11.239 -0.0899 -0.4150 -0.4726
12707W        W31454  23.345  19.603  19.547 -0.0628  0.0974  0.1536
12708W        W31455  26.585   0.293  21.882 -0.1284  0.0792 -0.0838
12709W        W31456  35.201  26.324  14.898 -0.3008  0.1245 -0.1926
12710W        W31457  11.029  29.412  16.411  0.1599  0.1139  0.2229
12711W        W31458  22.394  18.156  22.112 -0.3107  0.0620 -0.0133
12712W        W31459  11.447  17.993   6.606  0.0470  0.3386  0.2373
12713W        W31460  22.257  25.461  25.664  0.3666 -0.3258 -0.1339
12714W        W31461   2.982  23.911  22.654 -0.2392  0.0007  0.1741
12715W        W31462  27.174  21.774   6.222 -0.1960  0.1179 -0.2679
12716W        W31463  13.602  15.329   4.193 -0.0072  0.2397 -0.3063
12717W        W31464  35.295  31.830  19.384  0.1392 -0.0965 -0.0462
12718W        W31465  19.612  27.553  21.906 -0.0300  0.2952  0.2343
12719W        W31466  26.917  30.107   0.710 -0.0379 -0.0738 -0.2002
12720W        W31467  10.709  17.737  21.698  0.0471 -0.0232 -0.4737
12721W        W31468   9.394   7.174   5.118 -0.0125 -0.0188 -0.1078
12722W        W31469  12.374   1.717  25.090 -0.0218  0.2541 -0.2604
12723W        W31470  26.123  20.434  13.548  0.2609  0.1684  0.0833
12724W        W31471  13.408  12.350  24.912  0.0108 -0.5096  0.4879
12725W        W31472  34.255   0.042   3.517 -0.2751  0.2823 -0.1269
12726W        W31473   6.420  31.575  20.009 -0.2367  0.0051 -0.1431
12727W        W31474  31.124   3.057  25.864  0.3445  0.0644 -0.0116
12728W        W31475  32.303  16.287  16.154  0.0415  0.4494  0.3642
12729W        W31476  27.612  32.451  11.068  0.1068  0.0312 -0.2099
12730W        W31477  18.016   9.723   9.383  0.2203  0.0308 -0.0214
12731W        W31478   5.595   2.496  19.450 -0.0586 -0.2501 -0.1912
12732W        W31479   0.218   9.341   3.838  0.3843  0.1297  0.0268
12733W        W31480  13.624  33.612   8.553  0.0824  0.2814  0.0395
12734W        W31481  10.165  30.130   6.325 -0.0249 -0.1103 -0.0036
12735W        W31482  17.638  15.268   4.467  0.1333  0.1493  0.0083
12736W        W31483  15.927  17.262  26.194 -0.2101  0.0197 -0.0797
12737W        W31484  33.038  24.150  20.058  0.2056 -0.1349  0.1430
12738W        W31485   7.942   6.805  21.284  0.2573  0.1262 -0.1327
12739W        W31486  16.362   3.501   2.946  0.2930 -0.4565 -0.0433
12740W        W31487  10.584   7.743   2.957  0.0876 -0.2051  0.2802
12741W        W31488   5.073  30.773   8.000  0.2459 -0.2057  0.1061
12742W        W31489  11.996   0.157   0.489 -0.0056 -0.0098 -0.1882
12743W        W31490  23.412   9.455   1.152  0.1788  0.2257  0.1988
12744W        W31491  11.932  12.554  21.585  0.1490 -0.2490  0.1092
12745W        W31492  15.609  27.094  22.276 -0.3300  0.2732 -0.0102
12746W        W31493   7.375  20.946   1.164  0.0922  0.2341  0.1657
12747W        W31494   4.343   0.250  12.221 -0.1336 -0.2391  0.3108
12748W        W31495  30.009   2.704  25.153 -0.0776  0.2712  0.1222
12749W        W31496  30.004  13.880   4.883  0.1672  0.0504 -0.2919
12750W        W31497   7.962   0.911   2.547 -0.1037 -0.2693  0.0050
12751W        W31498  26.601   2.545  25.455 -0.2889  0.4015 -0.4233
12752W        W31499  29.477  19.467  19.638  0.1511 -0.2628  0.0039
12753W        W31500   7.015  29.118  12.945  0.1774 -0.1005  0.0698
12754W        W31501  18.450  17.331  25.816  0.1533 -0.0691  0.0568
12755W        W31502  14.700   1.226   1.893 -0.1669  0.1365 -0.3811
12756W        W31503  26.290  22.620   7.620 -0.0121 -0.3879  0.0947
12757W        W31504   0.831  13.607  16.066  0.1437  0.0793  0.0672
12758W        W31505  31.950  33.869  15.649  0.1477 -0.1199  0.1388
12759W        W31506  16.330  28.659  11.945  0.0206  0.1347 -0.1177
12760W        W31507  24.128   0.913   6.624 -0.2936  0.1579 -0.0634
12761W        W31508   2.109  33.766  25.858  0.1308 -0.0085  0.1705
12762W        W31509  14.555  20.765  22.902  0.0832 -0.1577  0.0663
12763W        W31510  11.869  32.442   8.323 -0.1267  0.0951 -0.0980
12764W        W31511  15.253  29.366  25.386  0.0046  0.0890 -0.1561
12765W        W31512  33.891  24.309  24.465 -0.0003 -0.0038  0.0711
12766W        W31513  27.516  17.986  16.490 -0.0288  0.0481  0.0766
12767W        W31514  15.917  21.435  13.933  0.3276 -0.4693 -0.0713
12768W        W31515  25.596  32.835  18.456 -0.0922 -0.1252 -0.1477
12769W        W31516  24.508  26.288  25.361  0.2494 -0.1837 -0.0299
12770W        W31517  27.838  22.096  15.831 -0.2111 -0.3711 -0.0084
12771W        W31518  27.556  15.529  21.975 -0.2706  0.0184  0.2233
12772W        W31519  14.434  34.152   2.673  0.2087 -0.2375 -0.1542
12773W        W31520  33.367   7.134  13.238  0.0703  0.0544  0.0428
12774W        W31521  17.721   9.446   9.008  0.1436 -0.3439 -0.1074
12775W        W31522  24.784  18.026  19.267 -0.1002 -0.1013 -0.3673
12776W        W31523   9.075   1.889   6.761 -0.1788 -0.2677 -0.1017
12777W        W31524   9.155  17.880   5.394  0.1686 -0.0209  0.3210
12778W        W31525  13.727  30.219  13.869  0.4115 -0.0078 -0.3667
12779W        W31526   4.253   7.703   5.082  0.0438  0.0667  0.0123
12780W        W31527   9.381  10.000  13.450  0.1662 -0.0351 -0.2402
12781W        W31528  21.568   9.507  17.961  0.0305  0.0446  0.1906
12782W        W31529  29.617  23.977  17.444 -0.0998  0.3034 -0.1187
12783W        W31530  31.934  27.247   2.525  0.1168  0.0981 -0.1020
12784W        W31531   1.800   1.366   3.427 -0.0828 -0.2086  0.3514
12785W        W31532  14.540  14.753  24.503  0.2719  0.2664 -0.0003
12786W        W31533  17.233  20.950   5.787  0.3296 -0.1505 -0.2085
12787W        W31534  17.784  14.401   1.932  0.0262  0.0258  0.1557
12788W        W31535  17.332   8.053  22.605  0.1738  0.1124 -0.1414
12789W        W31536   4.594   2.180   1.597 -0.0687 -0.0612 -0.2319
12790W        W31537  11.279  11.917   7.991 -0.0948 -0.2123 -0.0392
12791W        W31538  14.650   6.047  19.514  0.1293 -0.1885  0.1516
12792W        W31539  13.455  32.482  21.990 -0.0522  0.0172 -0.2036
12793W        W31540  11.418  10.159  23.082  0.1381 -0.2648 -0.3939
12794W        W31541   1.587  28.052   2.239 -0.0963 -0.0367 -0.0211
12795W        W31542  29.337  16.667  11.639  0.2907  0.2082 -0.0447
12796W        W31543  17.261  21.253   6.816 -0.0107  0.1317  0.2562
12797W        W31544   6.014  15.575   0.838 -0.1255 -0.0715 -0.2389
12798W        W31545   8.570  19.019  14.708 -0.0056  0.1332 -0.0272
12799W        W31546  13.105  12.810  18.549  0.2122 -0.1890 -0.1494
12800W        W31547  13.408  16.240   3.632 -0.1023 -0.1918 -0.0463
12801W        W31548   3.656   5.049  26.217  0.1723  0.1991  0.0015
12802W        W31549   2.432  29.283  18.582  0.2237 -0.1506 -0.2794
12803W        W31550   4.484  11.777  25.721 -0.1795 -0.1162 -0.0714
12804W        W31551  10.389   3.718  25.673 -0.0631  0.0151 -0.0138
12805W        W31552  31.398  10.623  15.771 -0.0037  0.1139 -0.2270
12806W        W31553  21.028  32.690  24.338  0.0426 -0.0550  0.1014
12807W        W31554  10.785  24.338   2.120  0.0787 -0.2171  0.1900
12808W        W31555  18.558   9.965  11.973 -0.0292  0.3178  0.2705
12809W        W31556  12.269  31.525  11.081 -0.0668 -0.1266  0.0977
12810W        W31557  16.317  11.031   6.758 -0.0180  0.2589  0.0949
12811W        W31558  22.616  14.568  17.081 -0.0796  0.1117 -0.1092
12812W        W31559   9.401  16.641   4.891  0.3475 -0.0542  0.1700
12813W        W31560  23.937  19.085  20.005  0.0660 -0.2835  0.3539
12814W        W31561   6.350  15.188   9.770  0.1303 -0.1773  0.1927
12815W        W31562   9.446   8.789  22.408 -0.0052  0.0580  0.1842
12816W        W31563  12.032   3.713   1.690 -0.0385  0.3570  0.1234
12817W        W31564  29.163   5.893   0.744 -0.0263 -0.0657 -0.1136
12818W        W31565  25.924   9.720  21.544 -0.0685  0.0073  0.4650
12819W        W31566   0.386  32.524  17.052 -0.1730  0.3200  0.0341
12820W        W31567   3.624  21.657   0.937  0.1420  0.3507 -0.0487
12821W        W31568  29.903  15.397  12.768  0.0184  0.2591  0.1318
12822W        W31569  23.103  12.955  26.026 -0.0261 -0.1890  0.0727
12823W        W31570  25.700  22.085  18.732 -0.2354  0.0047 -0.0011
12824W        W31571  18.155  24.731  20.581 -0.1347 -0.1285  0.1920
12825W        W31572   1.436  31.035  16.991  0.1093  0.0917 -0.2887
12826W        W31573  26.013  20.482  21.849  0.1164  0.0131  0.0074
12827W        W31574  30.613  30.654  18.671  0.0267 -0.1974 -0.1155
12828W        W31575  15.976  19.228  14.130  0.2681  0.0576 -0.3094
12829W        W31576  23.344  17.121   1.173 -0.2638  0.3489 -0.0300
12830W        W31577  12.365  18.871   8.724  0.2898  0.2436 -0.0967
12831W        W31578   4.567  18.079  24.844  0.5171  0.1104 -0.1584
12832W        W31579  16.890   0.571   2.909  0.0374 -0.0154  0.2192
12833W        W31580  17.769  22.720  21.246  0.0898 -0.2641  0.0298
12834W        W31581  12.454  32.747  13.131 -0.0867  0.0295 -0.0251
12835W        W31582  15.555   2.423   6.260 -0.3358 -0.0042  0.1449
12836W        W31583  19.871  18.693   3.029 -0.2025 -0.1420  0.3579
12837W        W31584  35.262  21.205  20.111 -0.2711 -0.0964 -0.2928
12838W        W31585  31.918  19.778  11.709  0.2081  0.1406  0.1146
12839W        W31586  18.459  11.303  25.117 -0.0559 -0.0758  0.0840
12840W        W31587  12.454  33.782  14.199  0.1876 -0.2351 -0.1558
12841W        W31588   6.714  19.919   7.470 -0.2399 -0.2378  0.1790
12842W        W31589  19.952  29.308  21.357  0.1841  0.1869  0.0951
12843W        W31590  23.377   4.127  18.767  0.0501 -0.0498  0.1769
12844W        W31591  34.947  32.407  22.431 -0.0711 -0.0153 -0.0883
12845W        W31592   8.661  33.225   9.141  0.1012 -0.4349  0.1745
12846W        W31593  14.770  23.585  15.860  0.4188 -0.1648  0.0556
12847W        W31594  11.598  21.260   2.490 -0.2688 -0.3082  0.1828
12848W        W31595  31.809  23.275  14.809  0.0616  0.3014 -0.0965
12849W        W31596   0.026   9.317  24.231  0.1106  0.3365  0.0388
12850W        W31597  32.381  13.464  24.145 -0.1142 -0.1205 -0.2085
12851W        W31598  12.287  11.899  23.310  0.3449 -0.2878  0.1394
12852W        W31599  13.446   9.281   0.579  0.1334 -0.0448  0.1549
12853W        W31600  16.012  19.698  11.149  0.0132 -0.1917  0.1015
12854W        W31601   0.594   6.520  23.623 -0.1899 -0.0570 -0.0750
12855W        W31602  28.970   2.119  17.469 -0.1148  0.1606  0.0807
12856W        W31603  26.601  31.112  20.673  0.0490 -0.0808 -0.1589
12857W        W31604  27.804  15.548   9.629  0.0616  0.2058 -0.1254
12858W        W31605  27.444  13.653  12.700 -0.0786  0.0580  0.1825
12859W        W31606  26.552  25.199  25.524 -0.2690 -0.2111 -0.0659
12860W        W31607  20.626  27.947   6.614  0.2376 -0.0699  0.0803
12861W        W31608  13.730  32.242  23.478 -0.2554 -0.1863  0.3418
12862W        W31609  19.503   5.985   6.405 -0.3398 -0.1285 -0.1630
12863W        W31610  28.987  31.392  13.804 -0.2173 -0.0382 -0.1506
12864W        W31611  35.111  25.846  17.678  0.1054  0.0922 -0.0417
12865W        W31612  14.529  26.712  11.431  0.0319  0.0177 -0.0906
12866W        W31613  31.140  34.681  18.517  0.0238  0.2061  0.1337
12867W        W31614  18.846   8.342   1.698 -0.1268  0.3565 -0.2618
12868W        W31615  28.085  15.203  16.272 -0.1483  0.1245 -0.1245
12869W        W31616  19.055  33.807  22.432  0.0941 -0.1177  0.0490
12870W        W31617  15.011   0.605   8.718  0.2172  0.1585 -0.2750
12871W        W31618  13.273  27.330   4.588  0.0892 -0.1065  0.2108
12872W        W31619  34.058  17.464  15.637 -0.0623  0.2838 -0.3329
12873W        W31620   2.801   8.049  24.604  0.0159  0.4693 -0.0455
12874W        W31621   5.834  15.493   4.423 -0.1754  0.4232  0.2096
12875W        W31622   9.980  26.470   7.130  0.2782  0.2867 -0.0639
12876W        W31623  13.193   9.370  13.081  0.2154 -0.1175  0.2195
12877W        W31624  13.646  35.160  12.985 -0.0262 -0.1960 -0.2082
12878W        W31625  28.552   0.046   5.176 -0.2268  0.1134 -0.1432
12879W        W31626  32.669  24.575  20.180  0.0024 -0.0551 -0.1328
12880W        W31627   8.786  28.824   7.287 -0.0267  0.1515  0.0046
12881W        W31628  29.449  12.667  14.332  0.2203 -0.0517  0.1109
12882W        W31629  12.174  31.778   1.702  0.3557 -0.1663  0.1110
12883W        W31630   3.569   8.819   8.036  0.1267  0.1235  0.2697
12884W        W31631   4.496   1.277  10.533 -0.1188  0.1776 -0.0417
12885W        W31632  20.481  35.268   2.421  0.2967 -0.3262 -0.0954
12886W        W31633  33.088  32.172  18.171 -0.0687  0.1502  0.2443
12887W        W31634  27.270  24.194  14.553 -0.1422  0.0832 -0.2569
12888W        W31635  25.627  25.627  23.150 -0.0659  0.0042 -0.0112
12889W        W31636   7.581   0.475  11.982 -0.0461 -0.1638  0.0839
12890W        W31637  13.560   4.287   6.343 -0.0894  0.0215  0.0662
12891W        W31638  33.875   8.947  23.057 -0.0877 -0.1162 -0.1427
12892W        W31639  12.445  12.190  13.738 -0.0687 -0.0275  0.1527
12893W        W31640  31.924  13.005   0.690  0.4147  0.0384 -0.1513
12894W        W31641  19.927   4.468   0.343 -0.1010  0.1677 -0.1336
12895W        W31642  13.968   7.054  22.263 -0.0156  0.0161 -0.0481
12896W        W31643  27.219  30.794  14.029 -0.1015 -0.1371 -0.1196
12897W        W31644  18.873  14.277  20.353  0.0258 -0.0520 -0.2335
12898W        W31645   1.305  18.984   2.211  0.1806 -0.3149  0.0293
12899W        W31646  22.867  22.014  14.430  0.1488  0.0529  0.0353
12900W        W31647  24.144  24.779   1.059 -0.0244 -0.2986 -0.2489
12901W        W31648  35.017  22.081  11.842 -0.1959 -0.0559 -0.0324
12902W        W31649  22.221   3.917  15.176  0.1263 -0.1589 -0.2094
12903W        W31650   3.462  33.069   2.622  0.1126 -0.0036  0.1275
12904W        W31651  33.537   9.160  14.283  0.0551 -0.0002  0.2108
12905W        W31652  28.612   5.203  12.198 -0.2732  0.3577  0.0457
12906W        W31653  31.340   7.492  22.140  0.2824 -0.2233 -0.1086
12907W        W31654  12.483  17.515  12.556 -0.1589 -0.2999  0.2099
12908W        W31655  13.270  12.788   2.085  0.0825 -0.1499 -0.2567
12909W        W31656  26.727  12.935   8.391  0.2276  0.1999 -0.1597
12910W        W31657   7.823  15.885  10.606 -0.3512  0.0018  0.0782
12911W        W31658  25.779   9.428  13.464 -0.5224 -0.0070  0.3037
12912W        W31659  16.391  26.321  21.699  0.2559  0.0807 -0.0302
12913W        W31660  26.482  33.954  16.357  0.0749 -0.2052  0.0330
12914W        W31661  26.810   0.703  26.027 -0.0286 -0.0859  0.0330
12915W        W31662   3.457  29.454   9.026 -0.0019  0.0325 -0.0350
12916W        W31663  33.339  30.819   6.454  0.1144  0.1055  0.1054
12917W        W31664  24.175  31.335  16.814 -0.1645  0.4005  0.2552
12918W        W31665  33.195  11.736   0.315 -0.0332 -0.0386 -0.2837
12919W        W31666   0.622  33.265   5.313  0.0282  0.0484  0.1249
12920W        W31667  12.582  13.146   8.920 -0.3430  0.3434  0.0833
12921W        W31668  22.586  14.594   1.820  0.1841  0.0335 -0.0934
12922W        W31669  25.170   4.186  24.662 -0.0212  0.0530 -0.1877
12923W        W31670   3.490  20.819  21.591 -0.1356 -0.0078  0.0975
12924W        W31671  13.758  14.998  10.085 -0.1529 -0.0500  0.0981
12925W        W31672   6.351  28.350   3.165  0.1153  0.0414 -0.0015
12926W        W31673  28.427   3.690  15.740  0.2894 -0.1777  0.2305
12927W        W31674  14.959  15.716  19.435  0.2277  0.1534 -0.3460
12928W        W31675   6.971  29.094  15.800  0.2706 -0.1197  0.0418
12929W        W31676  27.616  32.909   0.429 -0.2151 -0.2862  0.2950
12930W        W31677   9.761   4.175   7.598 -0.0400  0.3676 -0.2303
12931W        W31678   7.574  29.192  10.466  0.1180  0.0609 -0.0186
12932W        W31679  28.888  10.851   0.206 -0.1546 -0.0731  0.2907
12933W        W31680   9.547  11.223  24.199 -0.0550 -0.0119  0.1064
12934W        W31681  31.560  21.065  17.464  0.0763 -0.0056 -0.0752
12935W        W31682  31.161  32.511  23.948  0.0085  0.1170  0.1884
12936W        W31683  33.209   6.394  21.337  0.2635 -0.0295 -0.0288
12937W        W31684  20.326   9.849  20.967  0.0865 -0.1286  0.0318
12938W        W31685   8.190   7.827   3.288 -0.1294  0.0266 -0.3971
12939W        W31686  17.031  33.253  20.453 -0.4554 -0.3004  0.0474
12940W        W31687  13.421  17.689   0.386  0.0293 -0.0214  0.0746
12941W        W31688  20.813   6.222   2.124 -0.3353 -0.2264  0.2234
12942W        W31689  13.122  21.114  22.590  0.2015 -0.2484  0.1293
12943W        W31690  31.184  23.697  10.270  0.0427  0.0311  0.1014
12944W        W31691   9.907  26.639   0.298  0.1111 -0.0083  0.2569
12945W        W31692  28.838   6.840  13.995 -0.1730 -0.1147 -0.1524
12946W        W31693  22.669   0.529   6.529 -0.3197  0.1200 -0.1549
12947W        W31694  14.941  31.717  23.326  0.1354  0.3240 -0.1316
12948W        W31695   1.165  13.754  20.273 -0.3256  0.0346  0.0585
12949W        W31696  14.135  33.250   0.673  0.2259  0.2432  0.1175
12950W        W31697  12.182   5.225   0.812  0.0289 -0.0315  0.0478
12951W        W31698   5.660  10.232  18.766  0.0806  0.2302 -0.3092
12952W        W31699   1.807   3.322   6.910  0.2885  0.0605  0.4362
12953W        W31700  26.153  15.549  22.786  0.3568  0.0468 -0.1119
12954W        W31701  14.173   3.463  21.858  0.1014  0.3383 -0.1838
12955W        W31702  32.883   6.677  15.009 -0.1011  0.1938  0.0807
12956W        W31703  16.002  33.461   7.736  0.0751 -0.0322 -0.0443
12957W        W31704  10.304  34.247  10.292  0.1923  0.0877  0.1410
12958W        W31705   5.915  21.739  19.748 -0.1824  0.1890 -0.2183
12959W        W31706  34.374   5.811   1.044  0.0826 -0.1058  0.4558
12960W        W31707  22.223  33.807  19.865 -0.1080  0.3184 -0.2884
12961W        W31708  28.213   5.904  25.144  0.5016 -0.0469 -0.0759
12962W        W31709  17.853  21.479  25.943 -0.1869  0.0124 -0.2476
12963W        W31710   3.770  17.206  15.433 -0.1929 -0.2405 -0.0262
12964W        W31711  12.884  23.190  23.840  0.1233  0.1773 -0.0028
12965W        W31712  34.993  15.944  19.222  0.0249 -0.0571 -0.0618
12966W        W31713   1.755  22.361  25.783  0.0592 -0.0213  0.0566
12967W        W31714  25.685   5.300  12.989  0.2692  0.0376 -0.0161
12968W        W31715  32.276   4.228  23.912 -0.1591 -0.0504 -0.1076
12969W        W31716  24.370  15.736  24.310 -0.4110  0.0689 -0.1751
12970W        W31717  12.568   5.695  23.957  0.0808 -0.0099  0.0735
12971W        W31718   1.606  27.406  22.903 -0.0657 -0.1284 -0.3268
12972W        W31719  15.270  31.996  26.003  0.0244  0.0209 -0.0670
12973W        W31720   0.682  32.214  15.616 -0.3545 -0.1735  0.1574
12974W        W31721   8.761   6.089  22.919 -0.0688 -0.2323  0.2077
12975W        W31722  17.575  27.918  21.122  0.1908 -0.1503 -0.0649
12976W        W31723  30.665   2.952  14.173  0.0812 -0.0800  0.2131
12977W        W31724  25.115  19.323  19.721 -0.0245 -0.1849 -0.3384
12978W        W31725   4.718   2.927  18.731  0.2476 -0.0943  0.0964
12979W        W31726  10.755  19.301   9.250 -0.0174  0.1343 -0.1718
12980W        W31727   7.987   4.351   8.067  0.1589  0.0344  0.0256
12981W        W31728   3.684  16.973  22.361  0.0457  0.2905  0.0338
12982W        W31729  23.585  34.338  18.341 -0.0766 -0.3189  0.1769
12983W        W31730  23.485  31.931   0.424 -0.1416 -0.6116 -0.1874
12984W        W31731   0.117  11.084  12.045 -0.1053 -0.1333  0.0020
12985W        W31732  14.200  33.473  13.542 -0.1341 -0.0564 -0.1086
12986W        W31733  12.175  30.147   9.031  0.1274  0.1048 -0.3617
12987W        W31734  35.308   8.069  15.903 -0.2501  0.0119  0.2810
12988W        W31735  13.139  14.726   2.285  0.0418  0.0228  0.1777
12989W        W31736  12.404  27.136   7.618  0.3386 -0.1956  0.1380
12990W        W31737  16.064  22.633  10.993  0.1192  0.0462 -0.1139
12991W        W31738  33.796  18.680  15.417 -0.1422 -0.0658 -0.1141
12992W        W31739   3.965  22.202   1.433 -0.1291 -0.0048  0.2640
12993W        W31740  30.498   4.663  20.877 -0.1198 -0.4568 -0.1784
12994W        W31741  26.017   0.637  14.648 -0.1264  0.0275 -0.2479
12995W        W31742   7.846  15.562  18.561  0.0212 -0.1571  0.1153
12996W        W31743  27.700  27.418  10.784 -0.1533 -0.1894  0.0237
12997W        W31744  25.209  29.151   1.935 -0.0744 -0.0264 -0.0459
12998W        W31745  28.910  34.209  13.804  0.0523 -0.0663  0.3708
12999W        W31746  20.836   4.959   8.335 -0.0418 -0.1243 -0.0056
13000W        W31747   1.338  12.945   3.136 -0.0339 -0.3397  0.4292
13001W        W31748  18.106  22.779  23.428  0.0449 -0.4412  0.0008
13002W        W31749  26.536  28.279  26.043 -0.0057 -0.1634 -0.0934
13003W        W31750  13.195  22.708   1.221 -0.3472  0.1205 -0.2516
13004W        W31751   9.866   4.640   3.108 -0.2257 -0.3867 -0.1047
13005W        W31752   0.310  33.188   5.662 -0.2474 -0.2272  0.1347
13006W        W31753  29.281   0.231  11.664 -0.1462 -0.0376 -0.2552
13007W        W31754  23.531  19.731  22.007  0.1422 -0.0166  0.2758
13008W        W31755  29.118  30.352  19.675  0.0522 -0.2503  0.1607
13009W        W31756   0.143  20.010  21.271 -0.1004 -0.0281  0.0405
13010W        W31757  33.424  20.729  17.971  0.3387 -0.0332 -0.1785
13011W        W31758  16.162  18.359  21.156  0.1858  0.2311  0.0978
13012W        W31759  16.207   3.192   0.918 -0.1181  0.3222 -0.1899
13013W        W31760  21.064   3.019  25.290  0.2351  0.1539 -0.0979
13014W        W31761  18.048  31.496  24.418  0.3486  0.0489  0.1521
13015W        W31762  14.544  16.739  21.578 -0.0982  0.1424  0.0240
13016W        W31763  33.468  32.191  14.959 -0.0869 -0.3612 -0.3571
13017W        W31764  26.265   7.706  23.222  0.1319  0.1888 -0.0924
13018W        W31765  34.962  20.091  14.250  0.0289 -0.0299 -0.1720
13019W        W31766  13.424   2.697   3.019  0.2756  0.0804  0.4408
13020W        W31767   3.876  33.133  18.676 -0.1183 -0.1256  0.1240
13021W        W31768  15.733  21.068  22.403  0.4819  0.1287  0.0654
13022W        W31769   8.919  17.931   3.826  0.3744  0.0973  0.2977
13023W        W31770  10.740  32.198  11.823  0.1309 -0.2274  0.0160
13024W        W31771   6.700   5.324   9.540  0.3688 -0.2474  0.3345
13025W        W31772  15.156   4.812   3.282 -0.0321 -0.0864 -0.0650
13026W        W31773  32.334  20.811  11.088 -0.2355  0.2228  0.0810
13027W        W31774  22.127  11.070  24.944 -0.1573  0.2973 -0.2311
13028W        W31775  20.360  15.496   8.236 -0.0803 -0.0491  0.0194
13029W        W31776   5.868  31.707  23.114  0.2634  0.2608 -0.1731
13030W        W31777   4.234   0.603  22.358 -0.0097 -0.4275 -0.3077
13031W        W31778  28.495  16.407  15.819 -0.0469 -0.3059 -0.2955
13032W        W31779  16.787   2.239   2.205  0.1163 -0.0797  0.0743
13033W        W31780  22.148   6.950  21.613 -0.3153  0.0709  0.2097
13034W        W31781  24.622  32.388  22.382 -0.0251 -0.2511  0.2334
13035W        W31782   8.886  27.615   5.317  0.1074 -0.2593  0.1098
13036W        W31783   8.574  17.759  20.952  0.0589 -0.0497 -0.2296
13037W        W31784  31.592   3.041  15.183 -0.1432 -0.0649 -0.4808
13038W        W31785  33.331  34.396  24.336 -0.0198 -0.2042  0.2871
13039W        W31786  29.709   5.631  10.221  0.1269 -0.0066 -0.0300
13040W        W31787  26.099  31.016  23.542 -0.1678  0.0626  0.3131
13041W        W31788  33.933   1.895  25.058  0.2152  0.1937  0.0439
13042W        W31789   7.780  10.768  25.090 -0.0502  0.1133 -0.2262
13043W        W31790  10.992   9.253   4.914  0.0933  0.3269 -0.0900
13044W        W31791  29.535   6.476   9.409 -0.1002  0.3057 -0.2010
13045W        W31792  20.544  34.225  15.042  0.0663  0.1401  0.3959
13046W        W31793  13.533  13.289   7.082  0.3092  0.1056 -0.3437
13047W        W31794  14.940  11.640  25.888 -0.3561  0.0104  0.1729
13048W        W31795  35.211  24.630  11.845 -0.2868 -0.0519 -0.2367
13049W        W31796  24.575   9.749  14.647  0.2728 -0.1043  0.1659
13050W        W31797  25.973  30.465  16.603  0.1232  0.5033  0.0077
13051W        W31798   9.732  10.362   5.626  0.0419 -0.2661 -0.2452
13052W        W31799   3.488   1.790   1.447 -0.3846  0.0896 -0.0009
13053W        W31800  22.745   8.973   5.097  0.1265  0.3179  0.2070
13054W        W31801  16.489  26.044   6.975  0.2699  0.1878 -0.2228
13055W        W31802  32.087  12.955  16.408 -0.3097 -0.0876 -0.0861
13056W        W31803   6.029   2.188  19.465 -0.1701  0.1506  0.2576
13057W        W31804  14.417  31.004  23.130  0.0784 -0.0223  0.1630
13058W        W31805  29.802  32.367  17.747 -0.0737  0.1526  0.0093
13059W        W31806  12.435  34.263  20.666  0.1170 -0.3626  0.2576
13060W        W31807  31.028   5.071  11.141 -0.1013  0.2301  0.1238
13061W        W31808   0.375  21.598  14.252 -0.0365 -0.2096 -0.0729
13062W        W31809   2.634  29.373   0.576 -0.0948  0.2282  0.0925
13063W        W31810   2.052  33.318   8.387  0.0480  0.3388 -0.1343
13064W        W31811   4.264  22.617   3.504  0.1459  0.0664  0.3318
13065W        W31812  30.305  14.118  12.005 -0.0748  0.4257 -0.0462
13066W        W31813  28.092  19.538   6.591 -0.1389 -0.0892  0.1231
13067W        W31814  12.548   0.339   0.475 -0.1127 -0.0232  0.1656
13068W        W31815  16.014  25.298  23.678 -0.1277  0.0778  0.0944
13069W        W31816   9.578   4.805  24.641 -0.2938 -0.1638  0.0949
13070W        W31817  11.153   0.384   1.860 -0.0553 -0.1224 -0.0132
13071W        W31818  29.518  24.479  20.695 -0.0242  0.1844  0.1679
13072W        W31819  18.306   3.889  20.498  0.0358 -0.0238  0.2412
13073W        W31820   9.537  20.951  22.417  0.2229 -0.2495  0.1091
13074W        W31821   0.448  18.056  16.787  0.0646  0.1245  0.0832
13075W        W31822  10.652  30.303   6.593  0.1885 -0.0270 -0.4791
13076W        W31823   1.228   9.686  13.609  0.1228  0.1786 -0.0852
13077W        W31824  10.009   9.616  22.414 -0.0689  0.0503 -0.2135
13078W        W31825  13.958   8.218   1.527  0.1326 -0.3303 -0.1101
13079W        W31826  24.115  26.009  12.013 -0.1110  0.3707  0.0138
13080W        W31827  27.419   4.974   4.274  0.0999  0.0684  0.0250
13081W        W31828  32.520  12.843  14.035  0.0514  0.0357  0.2046
13082W        W31829   2.927  13.032  22.657  0.2694 -0.0091 -0.0373
13083W        W31830  15.930  16.408  20.855  0.1783 -0.3960 -0.0102
13084W        W31831   8.675  15.265   0.405 -0.0031  0.1166  0.0679
13085W        W31832   4.109   6.915   4.020  0.0955 -0.0459 -0.2358
13086W        W31833  19.120  12.679  17.087 -0.0361 -0.0590  0.0713
13087W        W31834  28.307  32.911  13.780 -0.2504 -0.1216  0.1823
13088W        W31835  30.673  17.709   5.239 -0.0328 -0.1886  0.1731
13089W        W31836  14.137  32.436  11.143  0.1062  0.1285  0.2984
13090W        W31837  30.731   4.510  19.582  0.0630 -0.3933 -0.0792
13091W        W31838   1.479  15.266   1.325 -0.0278 -0.0465 -0.1394
13092W        W31839   1.580  16.928  25.818  0.0297  0.0727  0.1308
13093W        W31840  35.242  22.909  13.453 -0.3097 -0.1047  0.1643
13094W        W31841  21.669  16.155   3.326 -0.4462 -0.0224  0.3773
13095W        W31842  31.067  21.232  17.062  0.1374  0.5270  0.1916
13096W        W31843  21.740   0.268   5.193 -0.0411 -0.1352 -0.1611
13097W        W31844   0.999  34.568   0.633  0.0813  0.2181 -0.0066
13098W        W31845  14.977   1.766  11.135 -0.1079 -0.1531  0.0466
13099W        W31846   6.161  12.442  20.736  0.1368  0.2259 -0.1201
13100W        W31847  19.371  23.251  21.256  0.2526 -0.3914 -0.0545
13101W        W31848  30.983  33.377  16.733  0.1845 -0.3399 -0.1284
13102W        W31849   2.104  24.435  25.411 -0.1069  0.2535  0.1464
13103W        W31850   9.183  34.658  13.364 -0.2962 -0.3930 -0.0060
13104W        W31851  13.170   7.789   4.466  0.0820 -0.0325 -0.1158
13105W        W31852  12.830  26.720  13.621  0.2592 -0.1025 -0.0886
13106W        W31853  16.223   0.936   9.415 -0.2478 -0.1439 -0.1370
13107W        W31854  19.143  32.188   5.977 -0.0775 -0.0677  0.2298
13108W        W31855  19.071  17.579   4.491  0.1046 -0.4834 -0.0816
13109W        W31856  34.518  30.149  13.466 -0.2415 -0.0145  0.1510
13110W        W31857   8.487  24.532  25.536 -0.4574 -0.0006 -0.1951
13111W        W31858  13.742  12.123  25.204  0.0121  0.0637 -0.1646
13112W        W31859  24.744   3.710  23.703  0.2484 -0.2969  0.3601
13113W        W31860   5.177   2.354  21.646  0.1632  0.0153  0.3124
13114W        W31861   5.551  27.442   1.995  0.1412 -0.0186 -0.2306
13115W        W31862   6.950   0.325   6.355 -0.0530  0.1162  0.1308
13116W        W31863   9.878  17.244   0.282 -0.0327  0.0009 -0.1770
13117W        W31864  33.549  27.649   1.808  0.1663 -0.0882  0.0866
13118W        W31865  22.077   4.299   5.529 -0.0519 -0.1542 -0.1588
13119W        W31866   7.503   2.994  24.724  0.0410  0.0576  0.1550
13120W        W31867  20.726  12.847  22.148  0.2689 -0.2092  0.1299
13121W        W31868  19.734  25.288   1.775 -0.1952 -0.1012  0.2427
13122W        W31869   6.314  22.269  20.960 -0.0959  0.0215 -0.2479
13123W        W31870  17.982  22.994  14.179 -0.1297  0.1145 -0.0876
13124W        W31871   3.507   5.693   3.477 -0.3403 -0.0578 -0.2562
13125W        W31872  32.135  17.817  23.314 -0.2522 -0.0834 -0.1151
13126W        W31873  13.520  18.703  11.488 -0.0355  0.5368 -0.2481
13127W        W31874  21.986  28.999  22.192  0.1289 -0.3157  0.2030
13128W        W31875  10.539  25.742   8.816 -0.0306 -0.1712 -0.2099
13129W        W31876  10.906  29.617  12.700 -0.1362 -0.3245 -0.1969
13130W        W31877   7.368  23.043   3.004 -0.0359 -0.1282 -0.3433
13131W        W31878  28.365   0.440  18.139 -0.1590 -0.2438  0.3797
13132W        W31879  21.647  32.301  17.700  0.1748 -0.0443 -0.1913
13133W        W31880   1.682  34.200  18.677 -0.1228  0.0447 -0.1614
13134W        W31881  31.459  26.502   0.990  0.0862 -0.0485  0.1668
13135W        W31882   2.750  23.373  16.499  0.1878 -0.1167 -0.0751
13136W        W31883   5.738  24.131   4.478 -0.1018  0.2272 -0.2520
13137W        W31884  18.442   7.335  22.307 -0.3274 -0.1794  0.2385
13138W        W31885  22.545   7.826   6.413 -0.0173 -0.2494  0.1451
13139W        W31886  17.402  30.008   2.982 -0.3205 -0.1362 -0.1544
13140W        W31887  24.811  31.743  11.085  0.0438  0.1130 -0.0064
13141W        W31888  21.546  31.642  21.836  0.0778  0.0607 -0.2283
13142W        W31889  14.456  10.788  25.805  0.1494  0.2749 -0.0822
13143W        W31890   0.708  10.950   0.898  0.2473 -0.1083 -0.0632
13144W        W31891  29.886  30.132  17.319 -0.2791 -0.2418 -0.0740
13145W        W31892   3.081  25.704  23.852  0.1759 -0.0308 -0.1041
13146W        W31893  13.359  10.488  18.857  0.0384 -0.0433  0.2999
13147W        W31894  35.152  24.444   2.112  0.4320 -0.0933 -0.2221
13148W        W31895  28.225   4.289  23.952  0.0762  0.0142  0.2826
13149W        W31896  25.600   2.242   5.509 -0.0645 -0.3476 -0.1472
13150W        W31897  23.964   7.829  18.793 -0.0384  0.0449  0.0303
13151W        W31898  28.174   9.873  15.903  0.1732 -0.1412  0.0023
13152W        W31899  20.066   1.608   5.069 -0.1084  0.1254 -0.2978
13153W        W31900  23.755  13.747  11.761 -0.0460 -0.2572 -0.0086
13154W        W31901  32.917   3.538   4.825  0.0818  0.1816  0.4512
13155W        W31902   0.237  33.686   1.775  0.0706 -0.2615  0.0033
13156W        W31903   0.983  12.255  12.065 -0.1112 -0.2414 -0.2511
13157W        W31904  19.473   8.275   5.291 -0.3095  0.1051 -0.0130
13158W        W31905   2.277  33.998  23.306  0.6289 -0.1465  0.4165
13159W        W31906  16.823  18.417  23.354  0.3148 -0.0565 -0.0232
13160W        W31907   8.818  21.975  16.363 -0.2065 -0.1006  0.0363
13161W        W31908   7.638  22.800  10.892  0.1034  0.1288  0.1670
13162W        W31909   7.925  10.154  18.554  0.1344 -0.1541  0.2726
13163W        W31910   4.998  24.761   8.461  0.3973 -0.0527  0.0543
13164W        W31911  18.727  14.551   2.356  0.0771  0.0353  0.0076
13165W        W31912  12.763   7.072   7.166  0.0159 -0.1779  0.1357
13166W        W31913  17.384   1.472   1.805  0.1301  0.0647  0.2407
13167W        W31914   8.837  15.004  10.750  0.0799  0.1452  0.1811
13168W        W31915  24.389  29.054  16.383  0.0442  0.0753  0.2139
13169W        W31916  28.506   1.034  18.411 -0.1174  0.0167 -0.2350
13170W        W31917  12.446  20.022   5.373 -0.3609 -0.1711  0.2251
13171W        W31918   0.425  22.070   1.654 -0.2124 -0.1104 -0.2483
13172W        W31919  15.741  33.503   9.215  0.0918 -0.2803 -0.1384
13173W        W31920  29.549  30.289  21.494  0.1470 -0.2692 -0.1897
13174W        W31921  31.315  24.362  23.028 -0.0191  0.0406 -0.1435
13175W        W31922  17.330  16.520   2.768  0.0231  0.2891  0.1673
13176W        W31923  29.114   0.385  20.608 -0.2135 -0.0224 -0.1069
13177W        W31924  33.586  26.615  23.071  0.0449 -0.0602  0.1856
13178W        W31925  31.890  33.205  24.658 -0.3204  0.1116  0.2140
13179W        W31926  29.945  25.550  21.617  0.2802  0.1155  0.2189
13180W        W31927  26.174   3.213  14.496 -0.2757 -0.1200 -0.2772
13181W        W31928  35.224  22.488  14.069  0.0652 -0.5001  0.3350
13182W        W31929  18.516  19.396   7.292 -0.2279  0.0372 -0.1098
13183W        W31930  11.372   9.606   8.685 -0.0467 -0.0772 -0.1810
13184W        W31931   3.892  33.547  10.286  0.3034 -0.2676  0.2039
13185W        W31932  12.137  13.039   6.647 -0.3343 -0.0079  0.0326
13186W        W31933   4.870  20.635   5.763  0.0207 -0.2344 -0.1941
13187W        W31934  34.438   3.808  15.841  0.1439 -0.0973 -0.1640
13188W        W31935  27.669  26.944  12.661  0.0996 -0.3143  0.0198
13189W        W31936  13.979  19.296   0.211 -0.1750 -0.0366 -0.0236
13190W        W31937  22.833  32.002  26.083 -0.2436 -0.0398  0.2805
13191W        W31938  18.750   6.367  18.073 -0.2182  0.1570 -0.3586
13192W        W31939  21.410   5.966   1.959 -0.0541 -0.0587  0.1239
13193W        W31940  23.075   2.844  13.877 -0.0509  0.0671 -0.1605
13194W        W31941   5.816  14.804  18.534  0.0242 -0.1151 -0.0538
13195W        W31942  22.143  34.235   5.068  0.0096 -0.1149  0.0597
13196W        W31943  26.913  23.052  22.591  0.3136  0.1838 -0.0435
13197W        W31944  29.651   1.712  18.283  0.2378 -0.1110 -0.0965
13198W        W31945   0.242   1.598   8.398 -0.1976 -0.3075 -0.0492
13199W        W31946  11.089   1.032  13.529 -0.1268  0.1365  0.0128
13200W        W31947   3.763   0.040   5.549  0.1169 -0.1958 -0.0281
13201W        W31948  26.846   2.446   3.255 -0.0507  0.3348  0.1464
13202W        W31949  28.851  21.372  25.496  0.0123  0.3209 -0.0755
13203W        W31950  18.363  31.175   5.712  0.1989  0.0370  0.0840
13204W        W31951  15.634  15.890   7.217 -0.3550  0.2578  0.4000
13205W        W31952  34.867  25.840  18.251 -0.0389  0.1566 -0.2050
13206W        W31953  30.905  10.825  15.834  0.0737 -0.1608 -0.0608
13207W        W31954   4.905  27.690  13.025  0.1031  0.3060 -0.1069
13208W        W31955   2.825  34.321  22.199  0.0202 -0.1103 -0.1005
13209W        W31956   6.219  25.957   6.903 -0.0737 -0.0693 -0.0709
13210W        W31957  21.353  21.797  19.984  0.2251 -0.1586  0.3631
13211W        W31958  19.173  11.945  21.983  0.3350  0.0330  0.2267
13212W        W31959  33.698  14.246  23.311 -0.1056 -0.1417 -0.3929
13213W        W31960   1.733  11.771  13.467 -0.1565  0.0330 -0.1622
13214W        W31961  12.850  16.846  13.340  0.1810  0.0460 -0.3603
13215W        W31962  12.944  14.171  11.116 -0.0441  0.0314 -0.3131
13216W        W31963  30.623   5.627  12.196 -0.0254 -0.1803 -0.1130
13217W        W31964  25.519   0.040  21.501 -0.2676 -0.3004 -0.1487
13218W        W31965   1.843  30.861  19.180  0.2809  0.0856  0.0267
13219W        W31966  19.283  25.993   0.483  0.0370 -0.1328  0.0002
13220W        W31967  26.701   7.130  17.025  0.1368 -0.3185  0.1941
13221W        W31968  34.416  24.857  25.337  0.0196  0.3089 -0.1490
13222W        W31969  27.987   1.554  13.368  0.0143 -0.2009  0.3148
13223W        W31970  30.020  23.947   7.392  0.1756 -0.0455 -0.4043
13224W        W31971   0.143  18.641   0.309 -0.1649 -0.0216  0.1663
13225W        W31972  26.961  20.346  19.743 -0.2655 -0.0126  0.2499
13226W        W31973  28.818   4.363   0.946 -0.1845  0.0887 -0.1042
13227W        W31974  33.986  32.555   1.382  0.0163  0.2677  0.2085
13228W        W31975  32.935   1.966   4.062  0.1427  0.0181 -0.1564
13229W        W31976  21.029  33.891  21.888  0.3146 -0.1498 -0.1495
13230W        W31977  26.640  34.636   6.333  0.1503 -0.1995 -0.2720
13231W        W31978  26.331  16.498  20.618 -0.2128  0.0090 -0.0428
13232W        W31979  28.656  33.852  21.308  0.0239 -0.2832 -0.0725
13233W        W31980  12.958  16.804  22.403 -0.1546 -0.0420 -0.0895
13234W        W31981   0.093   8.065  16.743  0.0165  0.2819 -0.0273
13235W        W31982  23.607   5.083  16.151  0.1943 -0.1692 -0.0772
13236W        W31983  31.398   5.351  16.403 -0.0500 -0.2509  0.1021
13237W        W31984  22.099  31.534  26.117 -0.0087  0.1467 -0.1255
13238W        W31985   9.059  12.984   5.138  0.0223 -0.2475 -0.0192
13239W        W31986   0.238  25.117   1.131 -0.0285  0.0319 -0.2960
13240W        W31987  34.656  28.393   4.595 -0.1061  0.1288 -0.0831
13241W        W31988  19.362  30.717  18.335 -0.0506 -0.1393  0.1259
13242W        W31989   6.105  29.470  22.070  0.0643  0.0264  0.2945
13243W        W31990   7.760   2.200   8.006  0.0672 -0.2152  0.1332
13244W        W31991   4.511  34.279  13.006  0.2986 -0.0683  0.2395
13245W        W31992   0.554   2.772  13.934 -0.1498  0.0778  0.2904
13246W        W31993  11.004   4.424  23.110  0.1166  0.2629  0.0423
13247W        W31994  10.167  26.688  13.955 -0.4182 -0.1142  0.0600
13248W        W31995  34.250  24.118  16.366  0.2110 -0.1216 -0.1083
13249W        W31996   1.767  31.416   6.409 -0.0533 -0.0031 -0.3298
13250W        W31997  35.264   6.692   2.102  0.3174  0.0241 -0.0256
13251W        W31998   2.045  15.673  16.546  0.2801 -0.2019 -0.1646
13252W        W31999  32.665  34.514   5.762  0.3684  0.1949  0.1893
13253W        W32000  14.345  25.161  24.992  0.1727 -0.1681 -0.0609
13254W        W32001  24.592  22.015   2.112 -0.0272 -0.2217  0.1600
13255W        W32002  25.073  25.903  10.631 -0.2351  0.1086 -0.1296
13256W        W32003  22.488  12.123  21.079 -0.3864  0.3222 -0.1242
13257W        W32004  14.660   3.251  22.688  0.3468 -0.0568 -0.1636
13258W        W32005  29.021  22.749  21.055  0.0859  0.0871  0.0705
13259W        W32006  22.937   1.475  25.510 -0.3163  0.0018  0.0132
13260W        W32007   3.555   7.585   4.639 -0.1218 -0.1056 -0.0021
13261W        W32008  10.670  28.008  23.950  0.3102 -0.1848 -0.1692
13262W        W32009  11.087  18.530   7.655 -0.0959  0.1270 -0.0121
13263W        W32010  19.558  19.738  22.019 -0.0401 -0.1919  0.1063
13264W        W32011  22.619  32.651   6.542  0.1457 -0.0381 -0.5836
13265W        W32012   5.329  14.414   8.079 -0.1246  0.4213 -0.0859
13266W        W32013  31.628   7.840   1.417 -0.1453  0.1954 -0.0566
13267W        W32014  29.858   0.758  19.784  0.1692  0.0762 -0.0903
13268W        W32015  29.905  30.527  13.621 -0.0498  0.2339 -0.3231
13269W        W32016  30.649  14.445  13.271 -0.1181 -0.1004  0.0661
13270W        W32017  32.460   2.201  14.465 -0.5102 -0.2632  0.0998
13271W        W32018  28.960  18.146  18.812 -0.0246  0.0448  0.1142
13272W        W32019  27.239  15.507  19.604  0.2659  0.1144 -0.3375
13273W        W32020  31.551  32.970  15.983 -0.2280  0.0036  0.1436
13274W        W32021   1.431  12.684  12.476 -0.1229  0.3666 -0.2724
13275W        W32022  15.241   5.069   1.499  0.2013 -0.1694 -0.3087
13276W        W32023  22.501  22.015  22.348  0.2469 -0.0316 -0.0078
13277W        W32024   4.483   7.568   9.882 -0.0995 -0.0158 -0.1741
13278W        W32025  32.973  25.308  12.830 -0.0697  0.3402  0.2700
13279W        W32026  20.129  20.320   5.146 -0.1579 -0.0244 -0.2418
13280W        W32027  15.950  18.459   6.513  0.0493  0.1104  0.2289
13281W        W32028   0.589   0.437   1.687  0.0237 -0.0773  0.0596
13282W        W32029  10.463   2.254  25.844 -0.0772 -0.1948 -0.0083
13283W        W32030  27.198  23.109   6.042 -0.1943 -0.0327 -0.0250
13284W        W32031  28.967  26.984  22.776 -0.2062 -0.3741 -0.0659
13285W        W32032  25.893  26.608  25.597  0.3263  0.2544  0.0130
13286W        W32033  15.755  30.249   0.959  0.2540  0.0378 -0.1485
13287W        W32034  14.318  22.293  13.253 -0.0763  0.1477 -0.1805
13288W        W32035  28.600  28.310   2.631 -0.1490 -0.1241 -0.1455
13289W        W32036   7.708  25.589   4.905 -0.0093  0.2485 -0.1680
13290W        W32037   1.642  16.212  25.010  0.1704 -0.0571 -0.0792
13291W        W32038  25.919  24.445  26.013  0.0296  0.0672 -0.4243
13292W        W32039  19.364  34.242   3.579  0.4321 -0.1047  0.0264
13293W        W32040  12.378  21.824  22.468  0.0307  0.0340 -0.0265
13294W        W32041   2.755  18.676   0.616 -0.1856  0.0487  0.0967
13295W        W32042   6.171  20.224  26.123  0.1109  0.2025 -0.0380
13296W        W32043  17.153  33.345   8.279 -0.0416  0.0500 -0.1164
13297W        W32044  21.413  19.576  21.473 -0.0145  0.1235  0.0058
13298W        W32045  32.203  16.693  21.247 -0.1314 -0.1756  0.3166
13299W        W32046  24.357   2.673  18.383 -0.0485  0.2363 -0.0433
13300W        W32047  17.848   0.391   7.069  0.3836 -0.0547 -0.0096
13301W        W32048  25.173  16.408  25.403 -0.1823  0.3536  0.1095
13302W        W32049  28.977  16.162  19.192 -0.2121 -0.0839  0.1963
13303W        W32050  20.485  12.210  23.256  0.1649 -0.1146  0.0934
13304W        W32051  24.580  34.365  22.883 -0.0297  0.1382  0.1035
13305W        W32052  33.090  31.375  17.435 -0.4176  0.0824  0.0425
13306W        W32053   9.221  29.134  23.736  0.1866 -0.3115  0.1582
13307W        W32054   4.742   6.903  17.561 -0.1665  0.1189 -0.0918
13308W        W32055   6.271  17.257   3.775  0.1423  0.1799  0.4110
13309W        W32056   0.156  31.071   1.634  0.0396  0.0777 -0.0409
13310W        W32057  16.765  24.620   0.368  0.2452  0.0776 -0.2434
13311W        W32058  30.149  20.911   4.198  0.0530  0.3833  0.1320
13312W        W32059  16.607   3.866   5.476  0.2400 -0.1314 -0.1875
13313W        W32060  32.432  14.331  18.149 -0.3785  0.4042 -0.1219
13314W        W32061   1.827  27.671   7.959  0.0235 -0.0218  0.3031
13315W        W32062  32.283  33.396  15.681  0.0794 -0.0213  0.2198
13316W        W32063  32.603  19.618  23.593  0.1461  0.0247 -0.0789
13317W        W32064  24.380  27.065  11.064 -0.0946 -0.0656 -0.0586
13318W        W32065  19.331   9.206   3.809  0.0788 -0.1600 -0.0469
13319W        W32066   9.923  26.783  14.405  0.0895  0.0816  0.0795
13320W        W32067  11.082  32.265  23.245 -0.2222 -0.1059  0.0266
13321W        W32068  33.639  18.904  15.834  0.0655  0.1118 -0.3626
13322W        W32069   3.159  30.918  24.452  0.0845 -0.1077 -0.0870
13323W        W32070  10.921  12.549   2.502  0.0640 -0.0307 -0.1657
13324W        W32071  10.602  26.451  17.660 -0.3036 -0.2767  0.1530
13325W        W32072  29.871   5.631  12.794  0.0117 -0.1319  0.0153
13326W        W32073   5.284   0.924  23.338  0.4150 -0.2769  0.0662
13327W        W32074   2.248   0.746  20.688 -0.2082 -0.3198 -0.0022
13328W        W32075  15.503  10.425   3.811  0.2210 -0.1027 -0.1699
13329W        W32076  22.005  24.617  20.596 -0.2812  0.0771 -0.1386
13330W        W32077  17.763  21.239  13.692  0.2778  0.1347  0.2657
13331W        W32078  28.971  13.871  16.503  0.1040 -0.0469  0.0033
13332W        W32079   7.899  22.521   7.502  0.0193 -0.2163 -0.2250
13333W        W32080   8.084  26.543  21.778  0.1161 -0.4657  0.2289
13334W        W32081  13.682  33.057   9.474  0.0023  0.1134  0.0083
13335W        W32082  14.815   1.902  19.066 -0.0285 -0.3522 -0.0070
13336W        W32083  20.386   1.083  16.196 -0.0591  0.0203  0.1589
13337W        W32084  33.756   2.807  16.665 -0.0017  0.0419  0.1139
13338W        W32085  26.441   5.995  18.463 -0.0393  0.1699 -0.1901
13339W        W32086  13.839  23.767   6.131  0.2933  0.2829  0.1988
13340W        W32087   1.183  13.441  22.545 -0.3109  0.1553  0.0357
13341W        W32088  24.035   0.213  24.892 -0.1701 -0.0183 -0.1458
13342W        W32089  23.110   1.040  23.327  0.0351 -0.2662 -0.2700
13343W        W32090  31.379   2.134   4.595 -0.0571 -0.1747  0.0586
13344W        W32091  28.035  25.380  12.687  0.0697  0.3188 -0.0794
13345W        W32092  31.559  22.227   6.188  0.0324  0.0430 -0.2168
13346W        W32093  35.294  11.337  10.504 -0.2894  0.0851 -0.1154
13347W        W32094   8.312   3.614   3.326  0.0540  0.1331  0.3496
13348W        W32095  13.505  28.976  12.054 -0.2783 -0.2283 -0.2748
13349W        W32096  19.432  27.542  23.937 -0.0596 -0.0927  0.3291
13350W        W32097  19.487  14.640  17.182 -0.2040 -0.1285  0.0547
13351W        W32098  33.210   2.173   0.689  0.0279 -0.1256 -0.1437
13352W        W32099   4.014  34.337  11.745  0.1447  0.1162 -0.1219
13353W        W32100  27.214   8.617  18.451  0.2688  0.0390  0.0114
13354W        W32101  25.433  15.371  21.751  0.1115 -0.0062 -0.0335
13355W        W32102  34.585  14.403  14.811  0.1742 -0.3652 -0.0715
13356W        W32103   0.879   1.311   2.053  0.2716  0.1787  0.2959
13357W        W32104  26.305  34.904   0.042 -0.1063 -0.1912 -0.4539
13358W        W32105  27.547  15.268   8.567  0.0265 -0.0041 -0.0370
13359W        W32106  27.397  30.517  20.250  0.0311  0.0607  0.1472
13360W        W32107   3.505   9.934  14.259  0.1585  0.4045  0.3238
13361W        W32108   3.486  31.985  21.198 -0.2696 -0.0183 -0.1435
13362W        W32109  20.280  11.244  23.109 -0.3889 -0.2455  0.0085
13363W        W32110  29.256   0.969  14.340  0.1326  0.2969  0.0510
13364W        W32111  25.529  20.033  24.570  0.1858  0.1892 -0.2863
13365W        W32112   8.893   8.242  25.099  0.2257  0.1588  0.0720
13366W        W32113  24.729   8.634  17.800 -0.1053 -0.0834  0.0911
13367W        W32114  25.523  33.225  22.504  0.4662 -0.3218 -0.0528
13368W        W32115  17.153  33.654  22.012 -0.0784 -0.0678 -0.0499
13369W        W32116  23.573   7.234  20.539 -0.1463 -0.2607  0.0558
13370W        W32117  21.041  11.069   5.342  0.3949 -0.1709  0.3107
13371W        W32118  12.390  23.841  10.678  0.4471  0.1345  0.0710
13372W        W32119   1.999  34.454   2.997 -0.0289  0.1440  0.1501
13373W        W32120   7.674  20.106   7.032 -0.0164 -0.1334 -0.2268
13374W        W32121  21.453   7.222  25.184  0.1460  0.0811  0.2979
13375W        W32122   2.669  19.966  15.171  0.1509 -0.0006 -0.0145
13376W        W32123  25.696  24.943  21.001 -0.4285  0.2273  0.2183
13377W        W32124  12.326  23.802   3.545 -0.1854 -0.4122  0.0514
13378W        W32125  17.881  13.262   7.626 -0.4379 -0.1429 -0.1576
13379W        W32126  28.563  21.510  14.800  0.2308  0.0339  0.0442
13380W        W32127  29.380  33.068  14.925 -0.1408  0.2836 -0.0613
13381W        W32128  29.935  12.147  11.773 -0.2610 -0.1112  0.1708
13382W        W32129   1.659   7.465  17.320 -0.2220  0.0507 -0.2049
13383W        W32130   9.609  24.156   5.842 -0.1993 -0.1563  0.0302
13384W        W32131  23.408  13.724  18.087  0.0204  0.2023 -0.0345
13385W        W32132  26.951  17.583   4.990 -0.0403 -0.4421 -0.1757
13386W        W32133   3.667  18.906  24.158 -0.1830  0.2021 -0.2185
13387W        W32134  31.405  32.100  21.205  0.0074 -0.3344  0.1275
13388W        W32135   3.890  31.391   0.184  0.2446  0.0492 -0.0527
13389W        W32136  17.477  32.608   7.571 -0.4447  0.0433 -0.0716
13390W        W32137  19.105  17.821   7.738 -0.0143 -0.1774 -0.0597
13391W        W32138  28.967   4.789  24.754 -0.0411 -0.3270 -0.0298
13392W        W32139  10.685  11.897  24.607 -0.1133  0.2177  0.0956
13393W        W32140  33.699   9.977  14.733 -0.1525 -0.1878 -0.1827
13394W        W32141   8.077   9.843  11.217  0.0786  0.2945  0.0213
13395W        W32142  28.814  12.697  12.401 -0.4499  0.4343 -0.0244
13396W        W32143  34.471   4.554  19.507  0.3184  0.0133  0.0850
13397W        W32144  20.512   4.100  15.490  0.0770  0.0888  0.0636
13398W        W32145  13.496  25.360  11.584 -0.0385 -0.0837 -0.2366
13399W        W32146   2.998  19.887   0.454 -0.0549  0.0256 -0.0128
13400W        W32147  22.939   6.562   5.191 -0.2646  0.1233 -0.0820
13401W        W32148  16.413  35.370  23.318  0.2779 -0.2039  0.0196
13402W        W32149  10.521   4.176   9.190  0.0913 -0.3150 -0.1795
13403W        W32150  15.589  11.024  12.526 -0.0834  0.0032  0.0280
13404W        W32151   9.448   0.551   4.479 -0.2129 -0.2571 -0.2529
13405W        W32152   0.520  28.301   6.821  0.1577  0.1928  0.0788
13406W        W32153  26.797   7.350  25.253 -0.2585 -0.1205  0.0186
13407W        W32154  11.363  25.373  14.713 -0.0764 -0.3830 -0.0043
13408W        W32155   8.190  12.192   4.510  0.0099 -0.3308  0.1187
13409W        W32156   6.740  26.741  21.294 -0.0972  0.0578  0.1386
13410W        W32157  24.795  13.853  19.594  0.0655 -0.2502 -0.1698
13411W        W32158   4.260  31.499   5.180  0.1513 -0.2279 -0.0060
13412W        W32159   3.166  25.724  25.566 -0.1353 -0.2304  0.1804
13413W        W32160   1.567  11.908   3.102 -0.0808  0.1746  0.2230
13414W        W32161   1.230   8.809   0.981 -0.2502  0.1260  0.0677
13415W        W32162  21.031  34.615  21.566 -0.1213 -0.0467  0.1748
13416W        W32163  35.219  14.570  10.734  0.3687 -0.3528 -0.0181
13417W        W32164   2.647   6.040  24.791 -0.1179  0.0688  0.1540
13418W        W32165  12.925   8.757  23.039 -0.0603 -0.1592 -0.2139
13419W        W32166  33.563  19.303   8.311 -0.0501  0.0543 -0.1669
13420W        W32167   6.817  31.400   2.418  0.1941  0.2284  0.2220
13421W        W32168  10.993   6.369   3.790 -0.2118  0.1817  0.1387
13422W        W32169  18.782   8.938  17.792  0.1192 -0.0632  0.1248
13423W        W32170  31.174  17.373  23.007 -0.0825 -0.0861 -0.2526
13424W        W32171   7.019  18.607   6.097  0.0307 -0.1464 -0.1420
13425W        W32172   7.893  25.398  10.693 -0.0388 -0.1913 -0.2446
13426W        W32173  32.880   6.669  23.339  0.1260 -0.0925 -0.0078
13427W        W32174  17.763  17.153   8.164  0.1128  0.1032 -0.0263
13428W        W32175   8.981  30.892   2.840  0.1047  0.2789 -0.0085
13429W        W32176  31.672  13.245  13.768 -0.1136  0.4646  0.1011
13430W        W32177  19.774  12.975   3.558  0.1313 -0.1390  0.0082
13431W        W32178  20.184  29.337   6.184  0.2648 -0.0575 -0.0019
13432W        W32179  27.025  10.053  22.400 -0.3792  0.1182  0.0528
13433W        W32180  21.434  30.473   1.734  0.0587  0.1641 -0.0050
13434W        W32181  34.153  15.020  25.209 -0.2029  0.0565  0.1354
13435W        W32182  16.629  24.792  22.010  0.3589 -0.1265 -0.0110
13436W        W32183   0.894  17.679  23.158 -0.0263 -0.1936  0.0098
13437W        W32184  26.290  13.751   8.689 -0.0175 -0.0594  0.2034
13438W        W32185  28.887  19.955  22.765  0.1647 -0.2432 -0.1358
13439W        W32186  10.891   6.295  23.725  0.0745 -0.0661  0.1658
13440W        W32187  26.746  34.878  20.826  0.1491 -0.2667  0.0514
13441W        W32188   2.893   6.152  23.395  0.0356 -0.0180  0.0713
13442W        W32189   8.921   4.655  23.950  0.1752 -0.0648  0.0997
13443W        W32190  16.475  25.322  22.614 -0.1592  0.2144 -0.0054
13444W        W32191  15.751   6.964  10.160  0.1385 -0.3860  0.1106
13445W        W32192  19.077   5.389   6.251 -0.0579  0.0243  0.0983
13446W        W32193   5.688  11.635  21.036 -0.2576  0.2968 -0.2488
13447W        W32194  29.373   5.320  26.143  0.0277 -0.0299  0.4835
13448W        W32195   9.108  30.707   5.137 -0.4199  0.0770  0.1089
13449W        W32196  20.058  12.262  24.532 -0.2620 -0.2195  0.0315
13450W        W32197  24.202   2.552  22.024  0.0029  0.1606  0.2864
13451W        W32198  26.726  34.863  22.233  0.1482 -0.1640 -0.0794
13452W        W32199  28.716  29.544  20.281  0.1437  0.1579 -0.3135
13453W        W32200  16.416   1.245   8.406  0.0210  0.0510 -0.0582
13454W        W32201  29.005  20.069  12.864 -0.2746 -0.0855  0.1626
13455W        W32202  15.704  26.572   6.200  0.0299 -0.3169  0.0130
13456W        W32203  16.385   5.955   5.438  0.0765  0.0266 -0.4314
13457W        W32204  34.993  23.708  16.253  0.2283  0.1970  0.6550
13458W        W32205  15.280  24.897  22.086 -0.1117 -0.1883 -0.2312
13459W        W32206  13.173  32.257   2.510 -0.0198  0.3538 -0.0187
13460W        W32207  13.952  11.925   9.592  0.0646  0.1812  0.2846
13461W        W32208  15.403  31.732  20.680 -0.3411 -0.0104 -0.1874
13462W        W32209  15.511  26.706  13.950 -0.0574  0.2059  0.0947
13463W        W32210   2.125   5.435   1.243  0.2366  0.0128  0.1471
13464W        W32211  17.519   4.189   5.870  0.0184  0.0321 -0.1456
13465W        W32212   7.353  20.296   9.748  0.0702  0.2785  0.0254
13466W        W32213  23.914  31.097  21.920  0.0892 -0.0675  0.3049
13467W        W32214  15.855   2.056  19.491 -0.2248 -0.1012 -0.2178
13468W        W32215  18.874  29.888  24.177  0.1038  0.1408 -0.0950
13469W        W32216  20.602  10.239  23.761 -0.0711 -0.1382 -0.1256
13470W        W32217   2.068   8.775   0.716 -0.1516  0.2748 -0.3038
13471W        W32218   9.231   1.227  13.327  0.0966 -0.4906 -0.0866
13472W        W32219  25.557  25.422  12.997 -0.1122  0.2048 -0.1215
13473W        W32220  31.937  22.514  25.319  0.1908 -0.2748 -0.1618
13474W        W32221  26.156  25.161  24.725  0.1127  0.0789  0.0066
13475W        W32222  26.427  26.265  15.195 -0.1816  0.0986  0.1209
13476W        W32223  10.306  24.296  25.302  0.4133  0.1575  0.0934
13477W        W32224   3.144  10.610  17.167  0.2690  0.1386 -0.0234
13478W        W32225  16.428  22.027   1.413  0.1974 -0.1005 -0.1068
13479W        W32226  10.720   7.651   6.850 -0.0717 -0.0824 -0.2321
13480W        W32227  20.536  16.814  18.229 -0.1159  0.1548  0.0731
13481W        W32228  31.043  17.147   7.035  0.0348  0.0447  0.0360
13482W        W32229  28.069  21.592   6.244 -0.0147 -0.1024  0.0365
13483W        W32230  31.257  16.251  18.710  0.1757 -0.2667  0.2510
13484W        W32231  31.110   4.778  15.275 -0.1027  0.3719 -0.3341
13485W        W32232  31.707  21.621  13.225 -0.1644 -0.0989  0.2491
13486W        W32233  31.344  33.261   0.859 -0.1723  0.0961  0.1701
13487W        W32234   4.381   7.401  24.249  0.1873 -0.0101 -0.2080
13488W        W32235  10.335   2.167  11.059  0.0219  0.3307  0.1302
13489W        W32236  12.611  17.913   8.397  0.1369 -0.0814  0.4287
13490W        W32237   6.945  29.314   3.761  0.1272 -0.1723 -0.0386
13491W        W32238  13.878   9.484  22.040 -0.0146  0.1166 -0.2206
13492W        W32239  33.443  19.726  11.377  0.0285  0.0207 -0.0379
13493W        W32240   8.176  14.628   8.637  0.2588 -0.0006  0.0163
13494W        W32241   7.090  34.298  10.025  0.3267  0.1115 -0.0908
13495W        W32242  13.809  35.244   3.482 -0.0668  0.0177 -0.3612
13496W        W32243  25.512  30.053  17.911 -0.0434  0.0102  0.1682
13497W        W32244  32.067   9.884   1.235  0.0962  0.0242  0.1119
13498W        W32245   3.701   3.327  22.304 -0.2862  0.0746  0.0073
13499W        W32246  10.071   1.286   0.525 -0.0740 -0.0344 -0.1387
13500W        W32247   5.523  14.963   1.308  0.0528  0.0073 -0.1241
13501W        W32248  20.043   4.485  17.177 -0.0802 -0.0069 -0.1104
13502W        W32249   3.456  19.096   0.016  0.0813  0.0693 -0.0729
13503W        W32250  14.142  33.990  20.839  0.2454  0.1717 -0.0582
13504W        W32251   9.066  33.411  13.091 -0.0426  0.3809  0.0092
13505W        W32252  14.058  22.130  12.852 -0.0726 -0.1301  0.1019
13506W        W32253  16.592   8.217  13.296 -0.3537 -0.1295 -0.0825
13507W        W32254   5.269  23.635   2.225 -0.1492  0.0057  0.1721
13508W        W32255  19.498   0.772   4.720 -0.2780  0.2313 -0.3164
13509W        W32256  15.437  11.940   1.478 -0.0428 -0.2791 -0.1903
13510W        W32257  16.516   9.570  18.674  0.0656  0.0808  0.3000
13511W        W32258  28.951   6.783  21.560  0.1493 -0.0572  0.0759
13512W        W32259   1.340  31.836   7.948 -0.0854  0.2764 -0.1645
13513W        W32260  10.614   1.338  25.945 -0.1803 -0.3251  0.0841
13514W        W32261   6.767  20.632  21.992 -0.0743 -0.0110 -0.1958
13515W        W32262  28.505  17.521   9.186  0.3217 -0.0475 -0.2001
13516W        W32263  15.842   5.045  24.286  0.1999 -0.2039  0.2938
13517W        W32264  16.029  24.050   6.014  0.2302  0.2386 -0.1395
13518W        W32265  21.309  33.515  13.095  0.0922  0.0952  0.3120
13519W        W32266   9.751   0.182  25.508  0.0476  0.0649  0.0102
13520W        W32267  33.507  33.948  14.568 -0.1481 -0.1566  0.2416
13521W        W32268  14.729  33.720   8.299  0.0688 -0.2928  0.0453
13522W        W32269  32.249  12.018  17.969  0.0320  0.0346  0.4293
13523W        W32270  24.695  29.059   3.493 -0.1148 -0.2281 -0.2103
13524W        W32271  10.097  11.179   7.667  0.0163  0.1448  0.0872
13525W        W32272  15.033  10.250   6.738  0.0289  0.0564  0.2201
13526W        W32273  13.552   5.490  23.939  0.2101 -0.1925  0.2130
13527W        W32274  16.270  32.760   8.259 -0.2024 -0.0810  0.0707
13528W        W32275  16.842  34.669   8.179  0.0610  0.0355 -0.2362
13529W        W32276  13.706  10.311  13.762  0.2608 -0.0562  0.2167
13530W        W32277  30.017   1.698   0.055  0.0582 -0.1944  0.3104
13531W        W32278   5.226  19.500   1.867 -0.1768  0.0409 -0.0689
13532W        W32279   3.669  32.489  11.575  0.0211 -0.2609  0.0296
13533W        W32280  25.368   2.292  22.634 -0.0825 -0.2218 -0.4562
13534W        W32281  33.508  22.406   8.082 -0.1038 -0.2565  0.1042
13535W        W32282  32.930   4.921   4.778 -0.2222  0.1775  0.3502
13536W        W32283   8.007  19.616  13.994  0.1896  0.0024  0.3002
13537W        W32284   3.859  32.839   4.720  0.0524  0.1906  0.3424
13538W        W32285  25.268  18.725   0.317 -0.0196 -0.0996  0.1198
13539W        W32286   4.366  27.696   3.677 -0.1349  0.0962  0.1934
13540W        W32287  11.884   2.565  22.513  0.0646 -0.0304 -0.0545
13541W        W32288  34.832   2.696   3.684  0.1700  0.1091 -0.2499
13542W        W32289   2.975  11.803  16.266  0.0337 -0.2067  0.2390
13543W        W32290  26.113   1.574  11.157  0.0563 -0.1415  0.3922
13544W        W32291  30.124  26.281  20.076  0.0669  0.0486  0.0190
13545W        W32292  11.754  21.940   1.404  0.3713 -0.1737 -0.0760
13546W        W32293  25.120  34.672  25.119  0.1722  0.0964  0.5275
13547W        W32294  21.688  14.434  17.594  0.1838  0.2476  0.0326
13548W        W32295  11.731  22.031  14.346 -0.0869 -0.0302  0.0644
13549W        W32296   5.508   9.784  17.835 -0.1069  0.1380  0.0072
13550W        W32297  16.437  15.694   7.911  0.1328  0.0724 -0.1448
13551W        W32298  33.863   4.701   4.027  0.0914  0.1265 -0.0342
13552W        W32299  35.376   4.454  20.969  0.1405 -0.2146  0.2232
13553W        W32300  11.116  22.241   8.309  0.0089  0.2991  0.1704
13554W        W32301   0.165   6.429   1.424  0.0228 -0.0180 -0.1313
13555W        W32302   7.742  35.360   1.619  0.1746 -0.0744 -0.1216
13556W        W32303  25.405  22.627  21.446  0.0496 -0.0628 -0.2135
13557W        W32304  25.265   8.257  19.566  0.1455  0.0902  0.5889
13558W        W32305  22.954   1.232  17.558 -0.0341 -0.0027 -0.0841
13559W        W32306   3.460   0.150   4.928  0.1142  0.0163 -0.0245
13560W        W32307  31.964   2.495  17.928 -0.0176 -0.0349 -0.0584
13561W        W32308  27.066  25.830  12.048 -0.5781  0.1810 -0.1798
13562W        W32309  10.131  22.241  25.838  0.3663  0.0063  0.0182
13563W        W32310   2.809  11.398  25.054 -0.1073  0.2035  0.0713
13564W        W32311  29.126   7.254   9.266 -0.1953 -0.1110 -0.0767
13565W        W32312   3.310  16.796  18.701  0.2708 -0.0590 -0.2233
13566W        W32313   6.459  34.613   7.279 -0.3806 -0.1810 -0.1450
13567W        W32314  27.893  21.386  25.592  0.1101 -0.2142  0.0541
13568W        W32315  34.157  25.446  11.658 -0.2020  0.5972 -0.0613
13569W        W32316  27.432   3.354  24.563  0.0046 -0.0879 -0.2827
13570W        W32317  15.309  32.187  24.205  0.2674  0.1181  0.2220
13571W        W32318  26.049  29.258  25.625  0.1150  0.1216  0.3148
13572W        W32319  14.958  25.506   5.286 -0.2515  0.1357 -0.2114
13573W        W32320  11.056  17.880   5.250  0.0667  0.0329  0.0234
13574W        W32321  24.894  27.045  21.505 -0.1743  0.2051 -0.0837
13575W        W32322  21.000  20.975  16.846  0.1393 -0.2757  0.4302
13576W        W32323  22.093  24.176  17.975  0.1116 -0.3555 -0.2602
13577W        W32324  31.178  31.267  17.444  0.3619  0.1863  0.1667
13578W        W32325  26.879   1.347   0.835 -0.1131 -0.3726 -0.3955
13579W        W32326  19.479  35.236  20.426 -0.3711  0.0310 -0.0796
13580W        W32327  23.891  20.414  22.570  0.2746 -0.0648  0.4588
13581W        W32328  11.230  13.904  20.719  0.3442 -0.0775 -0.1761
13582W        W32329  14.780  13.913  23.243  0.1005  0.3271 -0.3349
13583W        W32330  20.351  26.794   2.542 -0.0276  0.1064 -0.0860
13584W        W32331  14.780   8.118   2.052 -0.0242  0.0012 -0.2117
13585W        W32332  32.961  16.212  19.173 -0.1260 -0.0638 -0.0493
13586W        W32333  33.325   3.905   1.892  0.2395 -0.2741  0.0338
13587W        W32334  27.221  24.582   8.298 -0.2341 -0.1192  0.1403
13588W        W32335  28.542  27.022  13.771 -0.1692 -0.0180  0.1166
13589W        W32336  29.391  31.041  23.306  0.0317 -0.1186  0.1111
13590W        W32337  24.703  17.596   8.870  0.0063 -0.0710 -0.1619
13591W        W32338   8.870  28.787  16.117  0.2344 -0.0957 -0.2722
13592W        W32339  33.803  19.802  12.124  0.1724 -0.0975  0.3103
13593W        W32340  19.114  34.972  20.760  0.3640 -0.1528 -0.0342
13594W        W32341   7.167  27.046  10.332 -0.2516  0.0558 -0.1661
13595W        W32342   9.289  14.912  24.482  0.4585  0.0783  0.1939
13596W        W32343  34.624  24.633  18.422 -0.0395  0.0510  0.1999
13597W        W32344   5.765   0.495   1.333 -0.0426 -0.1401  0.1731
13598W        W32345  14.431  19.883  11.093  0.2567  0.0988  0.0047
13599W        W32346  15.916   2.069   3.571 -0.1207 -0.0030 -0.2841
13600W        W32347  26.022   0.408  17.132  0.0224 -0.4140  0.2911
13601W        W32348  16.383  21.077   3.865 -0.1076 -0.1586 -0.2845
13602W        W32349  11.252   4.861   0.519  0.1461 -0.1672  0.1444
13603W        W32350  21.923   9.493  20.881 -0.1824 -0.0756  0.1699
13604W        W32351  16.423  15.951  23.805 -0.1436 -0.3812  0.0258
13605W        W32352  18.752   0.668  21.175  0.1551  0.3649  0.1372
13606W        W32353  25.457   5.037  16.274  0.1157 -0.0652  0.0523
13607W        W32354   8.095   4.695  21.456  0.1921 -0.0939 -0.1441
13608W        W32355  15.390  23.054  23.694  0.1234 -0.0110 -0.1559
13609W        W32356   3.396   9.959  23.212  0.0913  0.1457 -0.1873
13610W        W32357   0.348  20.743  21.646 -0.2958  0.2908  0.0163
13611W        W32358  29.654  33.792  13.156  0.3560  0.1301 -0.1920
13612W        W32359  11.654   9.072  25.796 -0.2534  0.0516  0.0991
13613W        W32360   2.267   5.758  19.415 -0.1162 -0.1979 -0.0528
13614W        W32361  31.288  12.202   9.696 -0.2141  0.0972  0.2597
13615W        W32362  19.563  18.877  24.181 -0.0854  0.0760 -0.0052
13616W        W32363  19.373   9.595  11.055 -0.0062 -0.1157 -0.2265
13617W        W32364  30.666  23.089  24.166  0.1332 -0.1539  0.2748
13618W        W32365  26.617  30.429  15.926 -0.1253 -0.2971 -0.2700
13619W        W32366  16.008  10.020  23.708 -0.1704  0.1941 -0.1346
13620W        W32367   2.107  32.440   5.484 -0.1129  0.1716 -0.0142
13621W        W32368   2.509   6.602  21.352 -0.1148 -0.2069  0.1144
13622W        W32369   1.213  31.680  17.533  0.3641  0.0409  0.1904
13623W        W32370  19.281   5.261  26.228  0.0711 -0.0070  0.0793
13624W        W32371  17.541  14.204  10.647  0.1006  0.0043  0.0310
13625W        W32372  20.967  20.768   4.423  0.2793  0.1396  0.0953
13626W        W32373   4.323  27.259  20.276 -0.4077 -0.0320 -0.4600
13627W        W32374   9.337   5.587   4.160 -0.2367  0.0635 -0.1433
13628W        W32375  28.632  32.201  14.384 -0.2343 -0.2408 -0.0254
13629W        W32376  12.197   6.647  21.916  0.1884  0.1084 -0.0097
13630W        W32377   6.380   4.010   6.231 -0.1386  0.0209 -0.1373
13631W        W32378  17.372  24.764  21.342 -0.0218 -0.1441  0.3715
13632W        W32379  26.046  31.561   2.487 -0.1383  0.0044 -0.1253
13633W        W32380  28.390  11.570  13.692 -0.0828  0.0761 -0.0389
13634W        W32381   4.682  17.529  18.590  0.0497  0.0041 -0.0355
13635W        W32382  34.660  25.872  16.794  0.3000  0.1623 -0.1275
13636W        W32383  35.227  25.526  19.996  0.3163  0.1436  0.1670
13637W        W32384  11.606  32.320  10.924  0.1392  0.1616 -0.2212
13638W        W32385  11.490   0.601  13.762 -0.0207  0.2883  0.0470
13639W        W32386  31.333  29.642  24.243 -0.0724  0.1037 -0.2461
13640W        W32387   6.928   5.558  18.266  0.1661 -0.3105  0.0579
13641W        W32388  14.038   7.145   5.051  0.0366 -0.2386  0.1297
13642W        W32389  30.005  29.441  15.638 -0.0554 -0.0916 -0.0861
13643W        W32390  30.269  10.146  23.384  0.2426  0.0570  0.1383
13644W        W32391   5.121   9.690  22.988  0.1956 -0.0290 -0.0567
13645W        W32392  13.776   9.052  24.817 -0.2332  0.2069  0.1691
13646W        W32393  30.424  28.142  14.637  0.2134 -0.0258 -0.1275
13647W        W32394  15.720  26.601   8.149 -0.1814 -0.2152  0.0035
13648W        W32395   3.782  34.608   4.570  0.0935  0.1290  0.4103
13649W        W32396  30.473   4.421  18.479  0.1769 -0.1421  0.1198
13650W        W32397  11.394  24.360  12.742 -0.0830 -0.0900 -0.2999
13651W        W32398   4.229   2.878   0.420 -0.0980 -0.2741  0.1293
13652W        W32399  20.501  19.776   4.662  0.0403 -0.1406 -0.4466
13653W        W32400  30.492  24.003   0.521  0.2132  0.1565 -0.4901
13654W        W32401   8.433   0.852  15.014 -0.0547  0.1396  0.3857
13655W        W32402  31.515  30.943  12.780  0.2613  0.1399 -0.1793
13656W        W32403   3.081  22.768  25.515 -0.0116 -0.0842 -0.4098
13657W        W32404  27.164  19.315  22.947 -0.0401 -0.0054 -0.2372
13658W        W32405  20.297  20.926  10.373 -0.2265  0.2456  0.0954
13659W        W32406   7.850  26.947   1.766  0.0951 -0.1378 -0.3356
13660W        W32407  17.310  17.659  20.158  0.0060 -0.1447 -0.0356
13661W        W32408   9.015  17.908  22.664 -0.1632  0.0384 -0.1540
13662W        W32409   6.789  16.200  20.362  0.0742  0.1490 -0.3612
13663W        W32410  11.626   9.010   9.998 -0.0021  0.3791 -0.1319
13664W        W32411   9.374  19.099   9.087 -0.3234  0.3041 -0.2866
13665W        W32412   5.524  27.078   6.082 -0.1710 -0.3313  0.1894
13666W        W32413  28.891  32.387  13.979  0.1505  0.1035 -0.1962
13667W        W32414  33.739  28.928  16.919 -0.1978 -0.2642 -0.1024
13668W        W32415  21.288  28.275   0.258  0.3276 -0.0531  0.1413
13669W        W32416  33.782  28.135  24.192 -0.1675 -0.0050 -0.0349
13670W        W32417  24.458  20.645  17.296 -0.0247  0.3048  0.1959
13671W        W32418  23.170   5.089  23.269  0.0254 -0.1443 -0.1474
13672W        W32419  27.079   1.895   6.325  0.3677 -0.1894 -0.0033
13673W        W32420  16.206   1.671   4.391 -0.1616  0.0703 -0.1968
13674W        W32421  17.943  14.677  10.102  0.0338 -0.1549  0.2215
13675W        W32422  12.456  15.109   0.170  0.1020  0.5515  0.3107
13676W        W32423  10.315  30.609   8.432 -0.0611  0.0017  0.0692
13677W        W32424   2.327   3.276  16.976  0.4627  0.0361 -0.1242
13678W        W32425  23.054   4.541  16.449 -0.2951  0.2527 -0.0167
13679W        W32426   6.232  17.647   1.135  0.0005 -0.2501 -0.0737
13680W        W32427  14.478  15.466  10.513  0.1536  0.0672 -0.0334
13681W        W32428   8.415   6.796  10.958 -0.1402  0.0695  0.0901
13682W        W32429  11.740   2.022  18.936 -0.0835 -0.1752  0.0699
13683W        W32430  25.321  11.731   1.252 -0.1717 -0.1886  0.0931
13684W        W32431   5.368   4.064  21.149  0.1335  0.2607  0.2060
13685W        W32432   4.676   4.227   3.531  0.1239  0.4894 -0.1238
13686W        W32433  25.097   6.092  23.209  0.1184 -0.0366 -0.1734
13687W        W32434  22.559  29.166  14.535  0.0333  0.2536 -0.3480
13688W        W32435  11.967  14.332   0.374 -0.0223  0.1874 -0.0733
13689W        W32436  29.172   0.375   4.000 -0.1579  0.0099 -0.1915
13690W        W32437  30.420   2.788  21.005  0.0038  0.0819  0.0053
13691W        W32438   9.445  24.502  11.603  0.0637  0.0804  0.1466
13692W        W32439  30.464  29.605  22.802 -0.2772 -0.0460  0.2368
13693W        W32440  24.381  31.423  16.330  0.1505 -0.0494  0.0045
13694W        W32441  10.748   7.658   0.439 -0.0896  0.0872 -0.0042
13695W        W32442  20.595  29.123   6.021 -0.1784 -0.0441 -0.4069
13696W        W32443  19.699  24.753  23.796  0.1807 -0.1147  0.0769
13697W        W32444  13.110   6.888  13.629  0.0240 -0.1678  0.0055
13698W        W32445  22.994  11.398   3.305  0.0365  0.1517  0.2354
13699W        W32446  31.324   6.499  22.633  0.0156 -0.2066 -0.1338
13700W        W32447  32.046   9.499   0.339 -0.1098  0.0917  0.0806
13701W        W32448  12.333  13.652   2.402  0.0551 -0.3665  0.3475
13702W        W32449  32.703  11.595  17.178  0.0278  0.0872  0.0726
13703W        W32450  28.670  34.928  18.647 -0.1607  0.1546  0.1219
13704W        W32451   9.635  17.835  22.592 -0.1554 -0.2254  0.0262
13705W        W32452  34.750  14.361  12.639 -0.1302  0.2859  0.0686
13706W        W32453   4.395  31.993   3.773  0.2083 -0.1131  0.1742
13707W        W32454   3.622   2.136  23.945 -0.0687  0.2024 -0.0000
13708W        W32455  11.832  29.492   0.562  0.1226 -0.1587 -0.0239
13709W        W32456   5.370  24.152  21.530  0.3525  0.1777 -0.1343
13710W        W32457  19.394  16.181   5.555  0.0293 -0.4492  0.1309
13711W        W32458   1.210  24.378   1.494  0.1944 -0.0300 -0.3147
13712W        W32459   3.265  34.148   4.703 -0.1304 -0.1360  0.0521
13713W        W32460  34.700  25.601  23.998  0.3468 -0.0755 -0.1869
13714W        W32461   8.155  33.034  14.058 -0.2754  0.1446 -0.0548
13715W        W32462  28.611  26.062  15.353  0.1245 -0.3255 -0.3124
13716W        W32463   1.774  10.238  17.272  0.0462 -0.1577  0.2228
13717W        W32464  30.846  23.748  23.986 -0.1354 -0.1507  0.0659
13718W        W32465  31.419   4.996   2.472  0.0994  0.0473  0.0834
13719W        W32466  35.021   8.799  12.137  0.1638  0.2265 -0.1517
13720W        W32467  11.661  16.190   0.525  0.1344 -0.0619  0.5692
13721W        W32468  32.768  33.106   4.726 -0.1761 -0.1261 -0.3698
13722W        W32469  34.462  13.398  25.764  0.2735 -0.0380  0.0624
13723W        W32470  24.216   2.558  15.368  0.0880  0.2903 -0.0960
13724W        W32471  20.026   4.472   6.426 -0.2852 -0.1352 -0.1074
13725W        W32472   8.421  12.179  24.365 -0.0145 -0.3494  0.1173
13726W        W32473   6.073  16.237  19.559 -0.1802 -0.0944 -0.3360
13727W        W32474  29.142  18.322   9.861  0.1941 -0.0643  0.2156
13728W        W32475  27.525   2.951  12.925 -0.0172 -0.0212 -0.0807
13729W        W32476  28.046  18.266  17.744  0.1994  0.1958  0.2326
13730W        W32477  12.481  13.045  24.363 -0.0318  0.2381 -0.3161
13731W        W32478  14.439   3.769   8.880 -0.1137 -0.0148  0.1723
13732W        W32479  32.489   3.340  20.881  0.3040 -0.1410  0.0518
13733W        W32480  18.734  19.915   8.451 -0.0695  0.1771 -0.0711
13734W        W32481   1.151  33.859  20.453 -0.1098 -0.2125  0.0840
13735W        W32482  16.439   9.997  12.112 -0.2798  0.0339 -0.4231
13736W        W32483  20.712  19.512   1.884  0.0510  0.2112  0.1175
13737W        W32484  20.975   5.447  25.101  0.3614 -0.2327 -0.2731
13738W        W32485  32.644   6.425  22.961  0.1857  0.0059 -0.1667
13739W        W32486  13.235   8.968   8.206  0.0148  0.0524 -0.0668
13740W        W32487  20.625  32.376   6.078 -0.0600 -0.0378  0.0085
13741W        W32488  13.386   5.391   6.484  0.1645 -0.1526 -0.0639
13742W        W32489  28.943  14.850  11.726  0.0189 -0.1482 -0.1672
13743W        W32490  23.257  13.222   2.209  0.2395 -0.3136  0.0305
13744W        W32491   6.122  16.008   4.905 -0.0932 -0.0165 -0.2561
13745W        W32492  35.254  33.509   3.500  0.1285 -0.0330 -0.0485
13746W        W32493  28.674  35.025  15.599  0.0524 -0.1683  0.2009
13747W        W32494   9.977   9.502  18.825  0.0440  0.0709 -0.0748
13748W        W32495  23.401  32.714   5.121  0.0799  0.2267  0.0849
13749W        W32496   3.496  10.154  25.287 -0.0110 -0.0524 -0.1365
13750W        W32497   6.339  26.886  14.351  0.2496  0.2418  0.1794
13751W        W32498   0.176  30.152   4.895 -0.3551  0.0433 -0.1084
13752W        W32499  33.764   4.425  12.899 -0.4002 -0.1570 -0.0066
13753W        W32500  17.521  18.716  24.240 -0.2020  0.1321  0.1349
13754W        W32501  13.459  15.880   0.494 -0.0737  0.0101  0.1106
13755W        W32502  33.536  30.463  18.606 -0.2528  0.1381  0.0222
13756W        W32503  27.492  19.763  12.815  0.3320 -0.2266  0.0404
13757W        W32504  25.173  17.038  10.942  0.0460 -0.0547  0.1736
13758W        W32505  19.225  25.244  10.329 -0.1887 -0.0192 -0.3172
13759W        W32506  32.508   0.808  14.724  0.1087 -0.0487  0.0809
13760W        W32507  14.747  22.753   9.365 -0.0248  0.0690 -0.3638
13761W        W32508   8.768   2.163   5.927  0.3671 -0.3348 -0.2372
13762W        W32509  31.482  15.596  20.958 -0.4065 -0.2291  0.0055
13763W        W32510   2.559  24.083  25.788  0.0679 -0.0454 -0.0358
13764W        W32511  18.652  24.745   6.616 -0.1804 -0.1125 -0.0822
13765W        W32512  15.901  17.882   9.943  0.4092 -0.1903  0.1196
13766W        W32513  22.936  27.695  16.392  0.3394 -0.0826 -0.1311
13767W        W32514  13.839  21.362   6.833 -0.4162  0.2157 -0.1002
13768W        W32515  11.664  11.964   4.749 -0.0730  0.1505  0.1270
13769W        W32516  12.505  25.358  25.940 -0.1050 -0.3359 -0.2726
13770W        W32517  14.502  26.934  24.540 -0.2007 -0.1095 -0.0482
13771W        W32518  17.090  24.984  24.122 -0.0155  0.1280  0.1443
13772W        W32519  31.120   4.048   1.374  0.1026 -0.2675 -0.2667
13773W        W32520   8.216   3.952  25.823  0.0013 -0.2871 -0.2078
13774W        W32521   8.382  13.114  22.101  0.0033 -0.0686  0.3567
13775W        W32522   8.809  33.757  12.175 -0.2283  0.2679 -0.0605
13776W        W32523  19.989  18.939   5.378  0.2563 -0.0783 -0.2349
13777W        W32524  33.650  34.578  24.877 -0.2428  0.1930 -0.1595
13778W        W32525  25.449   3.802  15.176 -0.0028 -0.1394  0.1977
13779W        W32526  33.967  33.919   0.793 -0.3299  0.4641  0.1157
13780W        W32527   4.820   7.340  17.802 -0.1576 -0.3256  0.1099
13781W        W32528  16.809  18.348   1.071  0.2348 -0.2309  0.0068
13782W        W32529   3.677  12.290   5.057 -0.1276  0.0508 -0.1635
13783W        W32530   0.028  24.838  15.331  0.0085 -0.3546  0.0941
13784W        W32531  16.451  33.051  20.466  0.2113 -0.0167 -0.1006
13785W        W32532  26.029   8.205  23.939  0.2325 -0.1334 -0.0319
13786W        W32533  32.634  33.075  23.552 -0.2692  0.0497 -0.2001
13787W        W32534   1.499  28.879   3.649 -0.1490  0.0129 -0.3233
13788W        W32535   4.661  18.209   3.578 -0.3040  0.2828 -0.1049
13789W        W32536  19.515  14.707  26.093  0.2078  0.0714 -0.1447
13790W        W32537   2.267  34.340   9.843  0.0298 -0.2709  0.1705
13791W        W32538  27.736  21.812  16.208  0.0389  0.1441  0.0316
13792W        W32539  33.584  13.893   0.787 -0.3771  0.1183 -0.0116
13793W        W32540  23.114  31.313  19.470 -0.1165 -0.0994 -0.3670
13794W        W32541  26.463   5.528  12.618 -0.0199 -0.0211 -0.0057
13795W        W32542  34.969   6.746   0.476  0.1719 -0.1897 -0.1203
13796W        W32543  19.386  32.513  25.317  0.1348  0.3566 -0.0149
13797W        W32544  32.797   1.123  12.635 -0.0432  0.0816  0.0345
13798W        W32545   3.985   2.526   9.750  0.0714  0.0838 -0.3338
13799W        W32546  18.525   4.770  17.660  0.0747  0.0311 -0.1974
13800W        W32547  29.108  16.877  22.261  0.2540 -0.0074  0.0954
13801W        W32548  34.622  29.026   4.397  0.0551 -0.0446  0.1197
13802W        W32549   8.360  19.865  24.668  0.1501 -0.3311 -0.4332
13803W        W32550  26.823  28.749   1.080  0.0323  0.0760 -0.1712
13804W        W32551  14.699  30.320   6.704  0.0098  0.1922 -0.3992
13805W        W32552  10.070  30.959  26.214  0.2112  0.0226  0.2284
13806W        W32553  11.196  27.643   7.343 -0.5490 -0.4607  0.0518
13807W        W32554  23.416  18.970  16.983  0.3827 -0.2771 -0.1393
13808W        W32555   1.305   8.678  18.215 -0.2233  0.0968  0.0347
13809W        W32556  26.409  29.289   0.491  0.0322 -0.2335 -0.0485
13810W        W32557  19.870  29.593   7.471 -0.0689 -0.0067 -0.2682
13811W        W32558  11.781  21.162  22.092  0.0775  0.2148 -0.1481
13812W        W32559   4.261  15.349  20.285  0.3666 -0.0909 -0.0877
13813W        W32560  17.340  15.307   9.954  0.1191 -0.0067  0.2165
13814W        W32561  16.249  18.032   9.586 -0.0413 -0.3801  0.0484
13815W        W32562   8.493  12.396   0.742  0.1258  0.2238 -0.1421
13816W        W32563   1.775  22.531  19.290  0.3730  0.1975  0.1928
13817W        W32564   1.874  31.450   6.943  0.0769  0.0475 -0.3140
13818W        W32565  27.280  30.803  14.903  0.1832  0.2214  0.0798
13819W        W32566  25.841  28.894  18.275 -0.0893  0.3138  0.1985
13820W        W32567  30.017   6.631  16.845  0.2772 -0.1850  0.1370
13821W        W32568   5.810   3.153   7.751 -0.1449  0.1038 -0.1735
13822W        W32569  21.808  17.103  23.673 -0.1927 -0.2743 -0.1808
13823W        W32570   1.244  23.190  18.240  0.0671 -0.2593  0.4519
13824W        W32571  13.601  28.121  14.321 -0.3259 -0.0380  0.0609
13825W        W32572   6.839  22.479   4.015 -0.0030  0.0215 -0.2773
13826W        W32573  10.633  15.152  21.849  0.1730 -0.1640  0.4675
13827W        W32574  23.305  33.361  20.134  0.0143 -0.2396  0.1437
13828W        W32575   5.752   9.992  22.545 -0.1607 -0.2153 -0.3117
13829W        W32576  21.774  10.081   6.105 -0.0049  0.0024 -0.0212
13830W        W32577  23.943  10.946  23.071 -0.1079  0.4243  0.0132
13831W        W32578  11.731  21.918   3.494  0.1516 -0.0475 -0.1097
13832W        W32579  19.646  32.326   4.238  0.0853  0.0140 -0.4010
13833W        W32580  24.455   4.886  24.151  0.2084 -0.2052  0.2224
13834W        W32581   3.314   1.131  21.373 -0.0193 -0.2505  0.0105
13835W        W32582   9.040  10.429  14.113 -0.0462  0.1044  0.1604
13836W        W32583  32.635  23.930  22.957 -0.3856  0.1643  0.0229
13837W        W32584   8.662  23.553  13.124 -0.1988 -0.2794 -0.2326
13838W        W32585  28.667   8.794   0.322 -0.0333  0.3933 -0.1072
13839W        W32586  31.870  31.063  18.688  0.2349 -0.2570 -0.1803
13840W        W32587  31.625  22.895   6.805  0.2263  0.0669 -0.1999
13841W        W32588  23.924  11.294  15.119 -0.0859 -0.1432  0.0662
13842W        W32589  21.320   1.446  15.751  0.0801  0.0656 -0.4146
13843W        W32590  20.592   8.360   2.793 -0.2617 -0.3069  0.3249
13844W        W32591   7.775  17.600  22.277 -0.0778 -0.1331 -0.0435
13845W        W32592  20.745   0.873   5.988 -0.2588 -0.0380  0.2772
13846W        W32593  10.461  25.641   9.284  0.0470 -0.2327 -0.2500
13847W        W32594  15.745  31.108   5.917 -0.2074  0.3573 -0.0271
13848W        W32595  14.542   8.710  22.473 -0.0447  0.0120 -0.2111
13849W        W32596   9.519  28.519   6.197  0.2311 -0.1072  0.0040
13850W        W32597  32.896   0.111  12.058 -0.4372 -0.0006 -0.2159
13851W        W32598  34.351   4.746   2.148  0.0904 -0.3050 -0.0618
13852W        W32599  32.556  32.338   0.374  0.2198  0.0931  0.0261
13853W        W32600  22.097  30.521  20.843  0.1143 -0.0572  0.0638
13854W        W32601  22.695   3.206  20.258  0.1567 -0.0663 -0.0496
13855W        W32602  33.243  28.372  13.962  0.2489 -0.0840 -0.1504
13856W        W32603  31.953   9.233  11.225  0.1113  0.1090  0.1688
13857W        W32604  19.009  17.065   9.226 -0.0002 -0.2201  0.2833
13858W        W32605  16.267   1.519  24.208  0.0272  0.3372  0.2604
13859W        W32606   2.397  34.349   2.040 -0.1389 -0.0549  0.1839
13860W        W32607   7.826  30.616   0.465  0.1228  0.0029 -0.0819
13861W        W32608   3.680  25.065   0.353  0.0137 -0.4685  0.4036
13862W        W32609  17.828  10.336  10.398 -0.1103  0.2687 -0.0008
13863W        W32610  22.671   7.229  22.339 -0.0120  0.4097 -0.0144
13864W        W32611  24.774   1.042  24.071 -0.0957 -0.4269 -0.0900
13865W        W32612  24.159  27.012   0.355 -0.2631 -0.1134  0.1186
13866W        W32613  30.588   7.599  18.298 -0.1146  0.2055 -0.1456
13867W        W32614  19.464  29.847   5.999  0.0352 -0.0279 -0.0454
13868W        W32615   9.404   3.808  14.324 -0.1821 -0.1865 -0.0526
13869W        W32616  10.957  12.948   0.484 -0.1933 -0.2604 -0.1189
13870W        W32617   7.865  14.119  10.526 -0.2203  0.0513 -0.1391
13871W        W32618  31.248  26.442  21.696 -0.1130 -0.0867 -0.3677
13872W        W32619   2.071  21.353  10.982 -0.1020  0.1269 -0.4418
13873W        W32620   5.284   5.672   8.166  0.1029  0.0791 -0.0217
13874W        W32621  12.331  20.569  15.914  0.0587 -0.1177  0.0864
13875W        W32622  19.454  33.345   4.496  0.1107 -0.0078 -0.1225
13876W        W32623  27.825  29.787   3.984 -0.1671 -0.0804  0.0698
13877W        W32624  34.351   5.882  19.308  0.0772  0.2984  0.1248
13878W        W32625  12.080  15.458   2.131  0.0210 -0.2198 -0.1272
13879W        W32626   1.267   5.825  22.649  0.0270 -0.1009  0.1344
13880W        W32627  18.477  20.139  19.539  0.1750 -0.0058  0.0224
13881W        W32628  33.484  17.546  19.675 -0.0842 -0.2021 -0.1114
13882W        W32629  20.038   4.232   4.061  0.0535 -0.1138 -0.0884
13883W        W32630  34.870  18.175  22.494  0.1800 -0.2942 -0.1150
13884W        W32631  34.408  33.014  15.450  0.0632  0.0809  0.0781
13885W        W32632  28.402  22.594  26.153 -0.1158  0.4074 -0.2229
13886W        W32633  28.502   4.011  21.909  0.3941  0.0237  0.2398
13887W        W32634   9.746  17.437  10.456  0.2960 -0.1023 -0.1599
13888W        W32635   0.668  24.287  15.258 -0.0766  0.0659 -0.0925
13889W        W32636   0.983  25.266  20.449 -0.2143 -0.7091  0.1899
13890W        W32637   5.419   0.529   2.957  0.1919 -0.0763  0.0960
13891W        W32638  34.828  33.262  22.761  0.1508  0.5038  0.1893
13892W        W32639  13.531  24.442  16.295 -0.2995  0.1362  0.1547
13893W        W32640   5.220  21.364  22.315 -0.1412  0.3639  0.1966
13894W        W32641  33.695   2.483  16.283 -0.1575 -0.0315 -0.1561
13895W        W32642  26.091  32.949  24.681 -0.5352  0.2343  0.2056
13896W        W32643  10.232  29.604   5.447  0.0674  0.0613  0.2622
13897W        W32644  17.511  15.758  26.101 -0.2731 -0.0880 -0.1777
13898W        W32645  33.972  17.335  14.271 -0.1606 -0.3559  0.1294
13899W        W32646  16.257  33.019   3.704 -0.0104 -0.0917 -0.3189
13900W        W32647  24.017  30.698   0.798  0.0392 -0.0904  0.1623
13901W        W32648  21.250  27.378  16.531  0.1295  0.1319 -0.2131
13902W        W32649   3.906  10.900  20.014  0.0026  0.1133  0.0191
13903W        W32650   0.505  30.835   3.027 -0.1529 -0.1234 -0.0482
13904W        W32651  24.338  11.275  16.611  0.0221 -0.1603 -0.0470
13905W        W32652  15.419   5.430  18.217 -0.0563  0.2007  0.3276
13906W        W32653  21.898  27.480  25.912 -0.2677  0.0220  0.0451
13907W        W32654  26.032  33.372  15.072  0.2959  0.0872  0.0749
13908W        W32655  25.947   8.480  10.742 -0.1820 -0.0408  0.1174
13909W        W32656   3.654  34.914   6.469 -0.1591 -0.1166 -0.0933
13910W        W32657   7.075  30.446  21.011 -0.0819  0.0737 -0.3904
13911W        W32658  11.877   0.371  20.599  0.0543 -0.0232  0.4064
13912W        W32659  28.082  16.412  21.724  0.2163 -0.2510  0.0218
13913W        W32660  11.951   4.714  12.677  0.3327  0.2458 -0.0005
13914W        W32661  14.660   0.726   2.757 -0.0516  0.0362  0.1551
13915W        W32662  27.357   6.196  14.354 -0.0676 -0.1012 -0.0810
13916W        W32663  13.143  13.003  25.635 -0.0683  0.0671  0.0235
13917W        W32664  23.901  34.751  15.529  0.0717  0.0152  0.0089
13918W        W32665  12.565  25.305  13.984  0.1248  0.2632  0.1837
13919W        W32666  14.374  11.973   4.997 -0.0887  0.1374  0.1321
13920W        W32667   2.960  22.144   3.639 -0.1145  0.1746 -0.3494
13921W        W32668  16.576  27.248  23.802  0.1410  0.1799 -0.0277
13922W        W32669   9.137  10.647  21.242 -0.1250 -0.2956 -0.1007
13923W        W32670   2.946  27.932   6.483  0.1491  0.0615  0.1255
13924W        W32671   1.990  27.888  25.887  0.1354  0.1120 -0.1482
13925W        W32672  35.375  31.943  17.552  0.0558  0.1533  0.3302
13926W        W32673  30.246  18.489   5.304  0.0537  0.4779  0.2649
13927W        W32674  17.416  22.016   7.987 -0.2300  0.1396  0.0533
13928W        W32675  32.940  13.990  20.789 -0.1428 -0.1795  0.0718
13929W        W32676  26.167   2.804  21.073  0.0173  0.1445 -0.2442
13930W        W32677   1.876   2.643   8.937 -0.2927 -0.3520 -0.2154
13931W        W32678  24.744  13.199   0.094  0.1322 -0.0152 -0.1231
13932W        W32679  25.923  17.974  17.764  0.0548  0.0938 -0.3113
13933W        W32680  34.710   2.976  14.204  0.0375 -0.0308 -0.1478
13934W        W32681   4.048  16.307  23.653  0.1531 -0.0379 -0.0924
13935W        W32682   2.564  11.060   0.161 -0.0930 -0.1250  0.1993
13936W        W32683  31.449  14.287  11.504 -0.2308 -0.1017  0.1207
13937W        W32684   4.615  20.407   4.479  0.1244  0.0057 -0.1532
13938W        W32685  31.702   1.132  19.505 -0.3915 -0.3676 -0.0991
13939W        W32686  15.563   3.385  23.027 -0.0419 -0.1739  0.0144
13940W        W32687  15.666  15.604   3.084  0.1670 -0.4219  0.0740
13941W        W32688  16.922  22.778   9.390 -0.0083  0.1577 -0.0991
13942W        W32689   6.954   1.083  25.146  0.1372  0.2307 -0.3369
13943W        W32690  29.850  10.764  23.857  0.0253 -0.1877 -0.0192
13944W        W32691  17.681   1.510  25.653  0.0580  0.1050 -0.2018
13945W        W32692  25.948   3.134   1.852  0.0962  0.1657  0.0556
13946W        W32693  18.618  10.515   8.256 -0.0098  0.0625  0.5082
13947W        W32694  12.270  34.305   8.064 -0.1094 -0.0409 -0.2980
13948W        W32695  26.571  15.372   6.748 -0.1455  0.1447 -0.2819
13949W        W32696  22.282  12.868  22.316  0.1329  0.1343  0.1614
13950W        W32697  24.048  29.196  25.075  0.0481 -0.0319  0.0179
13951W        W32698  32.714  27.260  17.384 -0.0593 -0.3530  0.2490
13952W        W32699  35.231  23.465  14.938  0.0700 -0.1612 -0.0231
13953W        W32700  12.936  22.611   3.566 -0.1327  0.0908  0.0094
13954W        W32701  21.020   0.109   1.788  0.1483  0.0487 -0.0133
13955W        W32702   6.989   9.943  20.763  0.1733 -0.0541 -0.1377
13956W        W32703  32.149  21.675  10.660  0.0697 -0.0801  0.0602
13957W        W32704  22.972  28.943  15.357  0.1333 -0.0766 -0.1854
13958W        W32705  31.089   5.806  12.155 -0.1713  0.0519 -0.0322
13959W        W32706  27.955  21.412  11.227  0.0774 -0.0900  0.0215
13960W        W32707   6.448  24.631  23.802  0.1185  0.3162 -0.2035
13961W        W32708  32.612   0.003   4.448  0.0075 -0.0506  0.0646
13962W        W32709  27.553   3.373  22.493  0.0907  0.0565 -0.0910
13963W        W32710  15.345  18.654  24.787  0.1471  0.2745 -0.1226
13964W        W32711  14.505  24.898  16.216 -0.2447  0.0243 -0.0957
13965W        W32712  18.637  10.585   1.537 -0.1095 -0.5194  0.0469
13966W        W32713   0.836   0.668   7.576  0.2441  0.2689  0.0673
13967W        W32714   9.177  11.022  20.665  0.1340 -0.0534  0.3203
13968W        W32715  35.099  11.427  15.410 -0.2189  0.0992  0.3238
13969W        W32716  19.976   7.945  18.112  0.0178  0.0064  0.2127
13970W        W32717  23.412  26.998   3.216 -0.1093  0.1107 -0.1318
13971W        W32718  29.796  30.873  23.126  0.3565 -0.1953 -0.1279
13972W        W32719  34.579  19.467   7.297 -0.1944 -0.0620  0.0504
13973W        W32720   1.984  10.331  18.690 -0.0309  0.3120  0.1255
13974W        W32721  33.422  23.402  26.205 -0.1668 -0.0946  0.0479
13975W        W32722  35.055  16.372  15.441 -0.0392  0.0801 -0.1990
13976W        W32723   0.228   7.338   5.072 -0.2094  0.1117  0.2259
13977W        W32724   8.624  25.706   2.437 -0.0307  0.2058 -0.1116
13978W        W32725  11.821  33.831  11.478 -0.2368 -0.2013 -0.1430
13979W        W32726  20.389   1.928   1.157 -0.1823  0.4126  0.2653
13980W        W32727  22.342   3.512  20.345  0.5081 -0.2227  0.1230
13981W        W32728   0.074  30.631   7.694 -0.0867  0.4588 -0.1489
13982W        W32729  12.599  13.862  20.026  0.3116  0.2761 -0.1189
13983W        W32730  19.562  23.407   9.830  0.1798 -0.1108 -0.0387
13984W        W32731  10.024  10.021  22.964 -0.0344  0.0848  0.1324
13985W        W32732  17.410   3.577   1.476  0.0597  0.0873 -0.2272
13986W        W32733  32.324  18.523  12.094  0.1308 -0.2259 -0.0987
13987W        W32734  32.091  34.804   0.177  0.1579  0.0590  0.1531
13988W        W32735  25.972  30.777  21.901 -0.1129  0.2206 -0.1046
13989W        W32736  17.854  21.246  20.352  0.0200 -0.0806 -0.2293
13990W        W32737  10.465  27.493  23.416 -0.0786 -0.1195 -0.1423
13991W        W32738  11.346  11.391  14.013  0.2099  0.4675 -0.1058
13992W        W32739   4.838  30.172   5.196  0.1544 -0.0068 -0.0241
13993W        W32740   5.832  22.030  23.707 -0.1275 -0.2351 -0.1858
13994W        W32741  24.550  24.022  10.264  0.1789 -0.5127  0.1955
13995W        W32742   8.823  30.743  15.342 -0.0013  0.0937  0.4535
13996W        W32743  13.486  15.511  10.640 -0.0986  0.1434  0.2375
13997W        W32744  13.150   9.417   4.222 -0.0489  0.1406  0.4839
13998W        W32745  27.827  15.386  19.863  0.1187  0.0444 -0.1396
13999W        W32746  30.690  16.996   0.174 -0.1531  0.3076 -0.0014
14000W        W32747  32.316  34.033  22.826  0.1839  0.0285  0.0397
14001W        W32748   5.966   5.879  20.957  0.0104  0.1605 -0.1642
14002W        W32749   8.021   2.675  11.396 -0.0975  0.0439  0.0628
14003W        W32750  32.880   3.182  15.633 -0.1293  0.2926  0.0519
14004W        W32751   3.292   6.682   3.155 -0.0288  0.0727  0.1294
14005W        W32752  10.385   5.077  20.579  0.3265  0.2311 -0.3138
14006W        W32753  24.056   3.587  12.955 -0.2248  0.0589  0.0648
14007W        W32754   6.784   7.169   8.735  0.2227  0.4607  0.4194
14008W        W32755  28.755  21.710   6.884 -0.0739  0.2781  0.1780
14009W        W32756  17.378   7.106  18.067 -0.0285  0.0305 -0.2242
14010W        W32757  30.751   7.894  13.309 -0.3896 -0.3983  0.2339
14011W        W32758  24.529  25.906  10.565 -0.1124 -0.2143 -0.1976
14012W        W32759  26.175  10.733  15.073 -0.1714 -0.0786 -0.1537
14013W        W32760  17.244  25.053   9.874 -0.1714 -0.1208 -0.3187
14014W        W32761   7.563   3.046  13.888 -0.1827 -0.0125  0.0267
14015W        W32762  21.155   2.247  16.634 -0.2541  0.0766 -0.2446
14016W        W32763  13.212  12.939  10.319 -0.1610 -0.2157 -0.0150
14017W        W32764   7.593  29.294   6.302  0.1336 -0.1385  0.0194
14018W        W32765  23.422   0.472   0.722 -0.4076  0.3257  0.0328
14019W        W32766   8.627  25.948  11.459 -0.2410 -0.0570  0.3754
14020W        W32767  32.651   2.805   6.523 -0.0946 -0.0254  0.2660
14021W        W32768   3.780  21.212  23.323  0.1025 -0.0778  0.0149
14022W        W32769  28.660  33.883  15.846  0.0347  0.0918 -0.3547
14023W        W32770  25.414  15.246  11.722  0.2682 -0.2809 -0.1072
14024W        W32771   4.119   0.132   9.621 -0.1107  0.3774 -0.1383
14025W        W32772   2.951   2.292  19.414 -0.1302 -0.1470  0.3793
14026W        W32773  12.032  31.188   2.919  0.2340  0.1325  0.0687
14027W        W32774  28.642  13.458   8.540  0.3210 -0.2701 -0.2037
14028W        W32775  15.566  31.322   5.465  0.3507  0.2228  0.1634
14029W        W32776  24.941  24.384  17.592  0.1085  0.2134  0.1764
14030W        W32777   5.384  18.702   0.712  0.1136  0.0980 -0.0723
14031W        W32778   1.805   5.949   2.427  0.2405 -0.0882 -0.1070
14032W        W32779  23.049   6.256  24.678 -0.2435 -0.0311 -0.1042
14033W        W32780  32.788  16.607  26.061 -0.2013 -0.2037 -0.1789
14034W        W32781  30.752   9.765   8.072  0.3146 -0.4065  0.1584
14035W        W32782  13.639  34.671   2.067  0.5040  0.0831  0.3462
14036W        W32783  23.764  19.484  12.466  0.2048 -0.2923  0.1154
14037W        W32784  23.316  29.814  23.376  0.1412 -0.0407  0.1273
14038W        W32785   7.372  28.327  24.077 -0.1786 -0.0581 -0.0865
14039W        W32786   3.165   7.342  22.671 -0.0079 -0.0749  0.1167
14040W        W32787  29.013  29.439  24.626  0.0210  0.3122  0.2724
14041W        W32788  23.448  18.947   2.014 -0.1772 -0.2207 -0.3364
14042W        W32789   2.455   7.692   0.597  0.0686  0.1649  0.1575
14043W        W32790  24.936   4.667  25.486  0.1093 -0.0225 -0.1236
14044W        W32791   7.191   5.088  11.709  0.2236 -0.2219 -0.2806
14045W        W32792  29.395   2.434  25.069  0.0317  0.0081 -0.0922
14046W        W32793   2.797   2.267  23.373  0.4295 -0.2537  0.1514
14047W        W32794  12.754  29.254   7.980 -0.0645 -0.2681 -0.1492
14048W        W32795   8.160   9.525   4.179 -0.2358  0.1922  0.1861
14049W        W32796   4.013   0.105   1.220 -0.2534  0.0793  0.0376
14050W        W32797   0.601  26.352  19.357 -0.0236 -0.2602  0.0828
14051W        W32798   5.609  10.861  22.204  0.4756  0.2201  0.4309
14052W        W32799  24.597   2.996  13.872  0.2022 -0.0944  0.0747
14053W        W32800  21.928  19.026  15.649  0.0543 -0.1194  0.2168
14054W        W32801  12.969   1.721  19.424 -0.0848 -0.0811  0.3315
14055W        W32802  13.491   2.877  18.712 -0.0429  0.1401  0.2148
14056W        W32803  33.422  15.825  16.178  0.1736 -0.0580  0.3144
14057W        W32804   5.606   7.197  18.855  0.0145 -0.0559 -0.2411
14058W        W32805  18.219  30.694  19.636 -0.0138  0.1257 -0.1790
14059W        W32806  30.263  13.093  10.129 -0.1932  0.1091 -0.0902
14060W        W32807  25.717   6.246  10.807 -0.1523  0.2310  0.1813
14061W        W32808  18.461  25.954  11.855 -0.3115 -0.4229 -0.0260
14062W        W32809  29.202  25.394  19.955  0.0658 -0.2189 -0.0795
14063W        W32810  21.358  31.788  15.857 -0.0774  0.0257  0.3091
14064W        W32811  23.718  30.669   5.214  0.1568 -0.3700 -0.0828
14065W        W32812   6.355  28.951   9.800  0.2432 -0.1645  0.0702
14066W        W32813  27.226  15.629  18.567 -0.2747 -0.1199  0.1781
14067W        W32814  32.903  12.635  14.854  0.3844  0.2143 -0.2216
14068W        W32815   6.308  32.595   1.378 -0.1684  0.0475 -0.3930
14069W        W32816  21.555  16.502  17.131 -0.2470  0.0084 -0.1353
14070W        W32817   5.930   8.851   9.561 -0.3645  0.0455 -0.0078
14071W        W32818  11.521   4.168   6.714  0.0470  0.0282  0.1618
14072W        W32819  29.169  18.616  18.734  0.0332 -0.0317  0.0386
14073W        W32820  17.238   1.412  22.434 -0.0445 -0.0442 -0.0412
14074W        W32821  23.325  27.543  16.040  0.1472  0.0933  0.0457
14075W        W32822   2.724  26.961  11.694  0.0027 -0.1098  0.0764
14076W        W32823  23.131  14.919  15.630 -0.0400  0.0676 -0.0918
14077W        W32824  21.473  34.003  16.262  0.0185 -0.0586  0.0478
14078W        W32825  12.443  22.125  23.268 -0.2372 -0.0557  0.1740
14079W        W32826   7.745   5.980  19.553  0.3757  0.1587 -0.1226
14080W        W32827  35.231  21.162  25.957 -0.3574  0.0338 -0.1407
14081W        W32828  35.118  29.049   8.401 -0.1424  0.2593  0.0093
14082W        W32829   1.099   8.318  26.059  0.1118  0.1767 -0.1303
14083W        W32830  12.740  29.165  24.756  0.1382  0.1975 -0.0223
14084W        W32831  18.258  12.794   2.862 -0.1653  0.1563  0.3110
14085W        W32832  22.592  26.924  14.823  0.0007 -0.1787 -0.0701
14086W        W32833   5.620  31.422   4.060  0.2900  0.0870 -0.2385
14087W        W32834  27.303  28.475  15.803 -0.0379 -0.0312 -0.2940
14088W        W32835   5.801  28.801  24.900  0.2113  0.1580  0.0669
14089W        W32836   1.999   3.576  24.600  0.0873 -0.2755  0.1018
14090W        W32837  18.936  34.105   0.377 -0.1674 -0.0984  0.0151
14091W        W32838   9.714  12.942   2.923 -0.4464 -0.0124  0.1334
14092W        W32839   4.889   5.906  21.258 -0.1251 -0.1759  0.2399
14093W        W32840  21.386  26.274  21.503  0.0197  0.3444 -0.0641
14094W        W32841  30.655  13.364  16.712  0.0289  0.1231 -0.0624
14095W        W32842  12.195   6.415  13.856 -0.0047  0.0495  0.0347
14096W        W32843   4.000  14.170  25.399 -0.0189  0.0273  0.0772
14097W        W32844  13.715  33.908  22.226 -0.0646 -0.3139  0.1963
14098W        W32845   0.980   0.459  24.810 -0.0227 -0.1207 -0.0390
14099W        W32846  32.264  33.862   1.317 -0.3309  0.2031  0.1157
14100W        W32847  25.502  15.430  25.729 -0.1231  0.3433 -0.0192
14101W        W32848  26.792  15.441  15.731  0.2028  0.3540 -0.2610
14102W        W32849  34.712  20.252  13.318 -0.3564 -0.2072 -0.1023
14103W        W32850  32.320  16.746  19.789 -0.4667 -0.0571 -0.1595
14104W        W32851  13.906  32.389  21.802  0.2507 -0.0079 -0.0721
14105W        W32852  24.583  35.371  11.643  0.1434  0.0132  0.1314
14106W        W32853  34.149   6.679  25.207  0.0175 -0.1743  0.0052
14107W        W32854   7.644  30.364  22.517  0.1928 -0.1112  0.4441
14108W        W32855  11.037  15.123  11.861 -0.1138  0.2086  0.1774
14109W        W32856  19.492  23.408  23.415 -0.0468 -0.1654  0.0350
14110W        W32857  34.731   8.134  21.881  0.0434 -0.1621  0.0477
14111W        W32858  20.544  27.052  19.955 -0.4053 -0.1507  0.0315
14112W        W32859  20.543  26.107  21.094  0.1428 -0.1609 -0.1535
14113W        W32860  19.858   2.609   8.434  0.2184 -0.0667  0.0967
14114W        W32861  10.902  12.294   8.225 -0.0984 -0.1395 -0.0064
14115W        W32862   2.429  17.772  16.756 -0.2042 -0.1619 -0.0278
14116W        W32863  18.452  18.733  20.830 -0.0118 -0.0850  0.0995
14117W        W32864  23.959   3.588  18.783 -0.0046 -0.2683 -0.0812
14118W        W32865   8.171  33.945  11.951 -0.0100 -0.0745 -0.2528
14119W        W32866  28.330   5.432  10.057  0.0963 -0.0393 -0.1892
14120W        W32867  27.641  35.186  14.827 -0.1346 -0.1810  0.1730
14121W        W32868  30.160  32.676  14.994 -0.2932 -0.1784  0.0330
14122W        W32869   4.564   8.559  24.195  0.0843 -0.0726 -0.0674
14123W        W32870  11.988   2.357   1.157  0.2011  0.2603  0.1168
14124W        W32871  34.470   8.640  12.157  0.0078 -0.1093  0.0561
14125W        W32872  19.362   9.034  21.231  0.2326 -0.1625  0.2666
14126W        W32873  24.510  31.205   5.463  0.0428 -0.1913 -0.0745
14127W        W32874  14.226  34.436   2.176 -0.1116 -0.1512  0.4450
14128W        W32875  23.823   0.059  13.349  0.1113 -0.2730 -0.1264
14129W        W32876   8.241  30.016  23.063 -0.2787 -0.3986 -0.4587
14130W        W32877  32.126   2.038  22.384 -0.0460  0.1828 -0.2837
14131W        W32878  31.015   7.097  20.881 -0.2285  0.4507 -0.1547
14132W        W32879  11.140  33.833  10.296 -0.0124 -0.0967  0.1973
14133W        W32880  33.739   6.659  15.442  0.0119  0.1808 -0.0865
14134W        W32881  28.204  17.023  11.870  0.0483 -0.0708 -0.0690
14135W        W32882  16.818  25.518   8.970 -0.1375 -0.1359 -0.0470
14136W        W32883  31.655  34.146  13.053 -0.0374  0.3166  0.2678
14137W        W32884   5.411  29.128   7.091  0.2418 -0.3590  0.1228
14138W        W32885  13.271   0.042  21.146 -0.0054  0.2569  0.0748
14139W        W32886  10.096  18.862   0.964 -0.0242 -0.1267  0.0090
14140W        W32887  25.833  24.627   0.360 -0.1096  0.2569 -0.0439
14141W        W32888   9.077  31.730   5.823  0.0905 -0.0903 -0.3169
14142W        W32889   9.264  22.493   0.684  0.0082  0.1954  0.3417
14143W        W32890  25.503  13.902  13.851  0.0159 -0.0621 -0.0051
14144W        W32891   2.626  27.009  25.723  0.1250 -0.1169  0.1330
14145W        W32892   7.781   8.892   7.711 -0.2846 -0.0373 -0.0332
14146W        W32893  29.890   7.367  12.195 -0.0411 -0.1682  0.0640
14147W        W32894  31.733  22.934  25.502 -0.1388  0.0549  0.0455
14148W        W32895  29.580  13.111  11.374  0.1660 -0.1777 -0.1518
14149W        W32896  18.160  31.342  21.618  0.1979  0.2372 -0.3357
14150W        W32897  26.994  22.660  21.590  0.1474 -0.0506 -0.3278
14151W        W32898   5.095   2.824   8.910 -0.2170  0.0287 -0.2148
14152W        W32899  32.120  12.639  23.092 -0.1609 -0.4218 -0.2353
14153W        W32900  30.161  10.882  25.716  0.3261  0.0312  0.1050
14154W        W32901  28.626  20.413  12.764  0.0338  0.1802 -0.2054
14155W        W32902   6.845  22.586  21.623  0.0587 -0.1737  0.2261
14156W        W32903  13.948  14.526   5.133  0.0247  0.0745  0.1937
14157W        W32904  34.587  26.518  19.427 -0.1351  0.2218 -0.2337
14158W        W32905  15.763  19.438   6.604  0.1333  0.1241  0.1740
14159W        W32906   7.544  32.989  14.830 -0.2709  0.2370  0.2197
14160W        W32907   0.891  27.650  23.600 -0.0709  0.4560  0.0537
14161W        W32908  29.900  15.897  14.779  0.1291 -0.0219 -0.2481
14162W        W32909  32.852  12.896  18.216 -0.0853 -0.0337  0.3234
14163W        W32910  27.857   7.457   2.123  0.2297 -0.2181 -0.0923
14164W        W32911  17.528  14.881  11.849  0.1650 -0.1228  0.1746
14165W        W32912  14.442  22.904  24.317  0.0904  0.0881  0.0636
14166W        W32913  28.418  30.347  25.917  0.1043 -0.1516  0.1735
14167W        W32914  24.133  24.642  13.955  0.1530 -0.0395  0.0858
14168W        W32915   4.721  24.906   8.017  0.0712 -0.0359  0.2800
14169W        W32916  29.190  27.119  21.918 -0.1654  0.0603 -0.3605
14170W        W32917   8.546  21.998  13.584 -0.0182  0.0575  0.2264
14171W        W32918   7.074  29.215  21.122  0.1210  0.1771  0.2913
14172W        W32919  30.641  25.931  16.279  0.1454 -0.0378 -0.3871
14173W        W32920   0.605   2.163  16.672 -0.1067  0.2147 -0.0507
14174W        W32921   1.330   8.345  21.389  0.1538 -0.1820  0.1362
14175W        W32922  32.711  11.052  24.807 -0.0625 -0.3076 -0.1815
14176W        W32923  34.556  26.605  13.096  0.1885 -0.0966  0.0386
14177W        W32924   9.051  12.004  19.916 -0.1594 -0.0170  0.2633
14178W        W32925  10.813  30.508  22.201 -0.1356 -0.0226  0.1691
14179W        W32926  11.058   6.234  12.662 -0.0197 -0.0900 -0.2363
14180W        W32927   9.083   2.506  12.551  0.0821  0.0265  0.0115
14181W        W32928  28.714  21.094  14.997 -0.3070 -0.0975 -0.2011
14182W        W32929   5.957  28.073  21.237 -0.0221  0.0158 -0.0809
14183W        W32930  31.923  12.922  20.191 -0.2630 -0.0510  0.0707
14184W        W32931  18.381   7.963   2.359 -0.2998 -0.1417 -0.2597
14185W        W32932   0.722   5.224   1.913 -0.3015  0.0047 -0.0254
14186W        W32933  10.756   1.813  11.915  0.0440 -0.1500 -0.1041
14187W        W32934  27.427   2.515  16.636 -0.0167  0.2537  0.0206
14188W        W32935  25.055  23.222  16.759  0.0697 -0.0318 -0.2340
14189W        W32936   1.298  26.609  24.413  0.1529  0.0614  0.0798
14190W        W32937   7.462  16.618  22.686  0.0765 -0.0089 -0.0889
14191W        W32938  30.064   8.307  15.509 -0.1198  0.2461  0.4576
14192W        W32939  11.775   2.726  23.642 -0.1690 -0.3280  0.1026
14193W        W32940  12.611   2.870  10.230 -0.0601  0.0898  0.3283
14194W        W32941   4.747  17.094   7.655  0.0362 -0.0967  0.0207
14195W        W32942  11.352  13.446  26.144  0.1679  0.0484  0.1066
14196W        W32943  20.053  30.439  19.062 -0.1273  0.2723 -0.0057
14197W        W32944  19.885  15.667  24.914  0.2618 -0.0689  0.1465
14198W        W32945   9.268  34.737  15.932  0.2260 -0.1465 -0.1643
14199W        W32946  19.771  29.534   4.315 -0.0828  0.1322 -0.0444
14200W        W32947   5.824  29.454  21.140 -0.0734  0.1815  0.2715
14201W        W32948   8.714  23.707   5.962  0.3004  0.2009 -0.2110
14202W        W32949  11.080  19.124  10.836  0.2367  0.4125 -0.2334
14203W        W32950  31.969  16.247  24.490  0.0199  0.0646  0.5597
14204W        W32951  24.116   0.531  17.450 -0.0127  0.1843 -0.0510
14205W        W32952   6.813  31.654   1.097  0.0846  0.0931  0.0150
14206W        W32953  19.577   0.135   0.569 -0.0506  0.1521 -0.6121
14207W        W32954  17.661   9.552   6.099 -0.1439  0.1100 -0.1528
14208W        W32955  22.909  22.039  24.673  0.2172  0.3352 -0.1486
14209W        W32956  26.771  31.629  19.183  0.2711  0.0263  0.2248
14210W        W32957   0.334   9.919  24.470 -0.1368 -0.1821  0.0896
14211W        W32958  22.134  30.409   4.921 -0.1806  0.1523 -0.0392
14212W        W32959   5.908   5.009   1.514 -0.0507 -0.0509 -0.3286
14213W        W32960   9.771  13.188  12.423  0.0589  0.0771  0.2433
14214W        W32961  15.341   7.143  11.975  0.3182  0.1143 -0.1937
14215W        W32962   0.456  23.204  14.757  0.0319  0.0984  0.4895
14216W        W32963   7.981  11.168   2.618 -0.2977 -0.0964 -0.1819
14217W        W32964   9.279   9.821  12.328  0.1694  0.4762  0.0715
14218W        W32965  11.615  23.318   6.207 -0.0397 -0.1758  0.0719
14219W        W32966   7.680  19.660   7.471  0.0303 -0.1327  0.0703
14220W        W32967   2.102   6.588  19.205  0.0912 -0.0502  0.0657
14221W        W32968  34.134  35.383  20.598 -0.1356  0.1952 -0.0707
14222W        W32969   0.463  25.729  14.255 -0.2758  0.1011 -0.0037
14223W        W32970  27.671  32.032  23.062 -0.1476  0.1771 -0.1142
14224W        W32971  20.850   1.959  25.772  0.3128  0.1820 -0.0984
14225W        W32972   3.017  11.558   6.083 -0.1654  0.0505 -0.2656
14226W        W32973   4.876  14.038   4.628 -0.0788  0.0135  0.2580
14227W        W32974   9.981  34.488  20.820  0.1395  0.0850 -0.0504
14228W        W32975  31.604   3.200   2.627 -0.0207 -0.0234  0.4006
14229W        W32976  24.513   7.481  19.959  0.0323 -0.1940 -0.0725
14230W        W32977  14.004  30.492   5.664 -0.0015  0.0736 -0.0794
14231W        W32978   5.725  34.783   6.217 -0.1239 -0.2028  0.1875
14232W        W32979   3.332  30.521   6.736  0.2548 -0.2868  0.2108
14233W        W32980  30.947  31.083  14.712 -0.0870 -0.0277 -0.1260
14234W        W32981  18.076  22.195  22.644  0.1609  0.0578  0.1780
14235W        W32982   6.521  14.333   8.447  0.1839  0.2636 -0.0376
14236W        W32983  25.009  27.042  12.015 -0.0065 -0.0950  0.0717
14237W        W32984  33.823  18.904   9.288  0.0584  0.1913 -0.1248
14238W        W32985  12.791  19.062  25.162 -0.1370  0.1634  0.0708
14239W        W32986   9.015  22.306  24.233 -0.0257  0.0227 -0.0357
14240W        W32987  26.381  26.689  17.309 -0.0906 -0.1438 -0.1112
14241W        W32988  27.682  30.043  18.753  0.1196 -0.1211 -0.0451
14242W        W32989  12.654  18.687  11.313  0.2574 -0.0720 -0.0032
14243W        W32990   5.990  25.251   4.512  0.1159 -0.2923 -0.2178
14244W        W32991   5.412  32.325  13.530 -0.1762 -0.0255  0.0439
14245W        W32992  29.246  19.356  20.937  0.2774 -0.3490  0.2707
14246W        W32993   5.866   4.408  21.776 -0.0955 -0.1422 -0.3812
14247W        W32994  34.787  25.779  24.695  0.1173  0.0405 -0.2423
14248W        W32995  20.169  25.422  25.586 -0.1857 -0.0063 -0.0360
14249W        W32996  16.013  19.573  23.015 -0.0770  0.0500 -0.3728
14250W        W32997  23.645  14.277  18.125  0.0538 -0.3350 -0.2906
14251W        W32998  27.069   6.923  12.567  0.1072  0.2410  0.2100
14252W        W32999   9.006  22.970   0.513 -0.1887  0.0603 -0.1091
14253W        W33000   1.650  26.308   5.206  0.0401  0.0868 -0.0526
14254W        W33001  26.461  25.888  17.834 -0.0701 -0.1407 -0.0030
14255W        W33002  28.113  11.139  13.728 -0.2015  0.2354 -0.1248
14256W        W33003  23.354   9.650   4.157  0.0144 -0.0335  0.0173
14257W        W33004  30.707  26.747   8.574 -0.0775  0.2465 -0.2968
14258W        W33005   8.342   6.040   1.988  0.0711 -0.0255  0.1536
14259W        W33006   7.846  17.596  10.034 -0.0037 -0.3343  0.1944
14260W        W33007  28.695   0.063  14.995  0.0190 -0.0602  0.4303
14261W        W33008  34.291  15.943  14.131  0.2861  0.0915 -0.0738
14262W        W33009  18.376  10.696   8.747 -0.2356 -0.0515 -0.0670
14263W        W33010  30.138  19.216  16.622  0.5093 -0.0327  0.1117
14264W        W33011  21.594  33.032  23.514 -0.2860 -0.3611 -0.0774
14265W        W33012   7.750  24.867  10.375 -0.2959 -0.1612 -0.2508
14266W        W33013  19.640  11.265   2.013 -0.2526  0.0514  0.1010
14267W        W33014  16.078  30.697  12.603  0.2509  0.0694  0.0323
14268W        W33015   4.298  14.462  20.066  0.0110  0.0912  0.1972
14269W        W33016   5.235  33.202  10.785  0.1949  0.0293  0.1777
14270W        W33017  20.894   5.625  16.172 -0.2579 -0.0157  0.0054
14271W        W33018  11.560  28.261  15.537  0.1553  0.1709  0.1287
14272W        W33019   3.761  10.334   1.290 -0.1093 -0.1736 -0.3179
14273W        W33020   8.694   9.831   6.450  0.1609  0.3142 -0.1298
14274W        W33021  19.510   2.698   0.050 -0.2414 -0.0623 -0.3105
14275W        W33022  11.473  29.744  26.118  0.1051  0.0518 -0.3140
14276W        W33023  12.004  15.333   9.599 -0.1471 -0.2246 -0.1979
14277W        W33024   8.231   8.302  22.839 -0.1897 -0.1112 -0.2886
14278W        W33025  32.627   0.235   2.682  0.0444  0.1086  0.1554
14279W        W33026   9.185  28.245  12.915 -0.0948  0.3374 -0.1094
14280W        W33027  10.132  23.414  12.650  0.0822 -0.0116  0.4643
14281W        W33028  24.189  32.643  25.063  0.1719  0.0644 -0.0730
14282W        W33029  22.860   7.488   0.165  0.2524  0.2689 -0.1703
14283W        W33030  19.035   4.819   8.671  0.0740 -0.2348 -0.0518
14284W        W33031  10.339   9.205  20.980 -0.0240 -0.0169 -0.1146
14285W        W33032   9.236  32.698  25.682 -0.1028  0.0424 -0.1741
14286W        W33033  16.501  32.691   7.177 -0.0037  0.1350  0.3444
14287W        W33034  21.477   2.098  17.189 -0.0538  0.1842  0.0741
14288W        W33035  34.077  22.067   0.938 -0.2331 -0.1357 -0.0914
14289W        W33036  13.263  27.429  14.811 -0.2301 -0.1239  0.0127
14290W        W33037  20.687  13.520  18.645 -0.0162 -0.0205  0.3185
14291W        W33038  23.902  25.625  11.207  0.0191 -0.1650 -0.1082
14292W        W33039  17.449  16.926   4.747 -0.0423 -0.0020  0.2940
14293W        W33040   2.056  30.258  22.860  0.1802  0.5822  0.4447
14294W        W33041  25.062   0.596  12.033  0.1470  0.3279 -0.0207
14295W        W33042   2.013  19.480  10.832 -0.0043 -0.0332 -0.2976
14296W        W33043   8.742  27.290  12.082  0.1375  0.2269  0.2879
14297W        W33044  30.787  14.979  13.067  0.1730 -0.0077  0.2787
14298W        W33045  18.588   2.605   6.779 -0.3404  0.1425 -0.0912
14299W        W33046  24.738   3.589   0.264  0.1574  0.1358 -0.0529
14300W        W33047   3.432  22.682   1.816  0.0290 -0.1575 -0.0021
14301W        W33048  13.617   8.855  25.267  0.1310 -0.1966 -0.4274
14302W        W33049  17.174  11.960  26.129  0.1129 -0.2555  0.2218
14303W        W33050   3.998  16.610  21.959  0.3769 -0.0621  0.1458
14304W        W33051  28.014  24.619  22.704  0.3470 -0.0013 -0.0828
14305W        W33052   6.767  30.964  24.807  0.0440  0.1391  0.1689
14306W        W33053  28.517  18.028  19.201 -0.1023  0.0961 -0.0680
14307W        W33054  14.989  34.911  23.808 -0.0732 -0.3397 -0.1415
14308W        W33055  29.574  28.727  25.800 -0.0376  0.0292 -0.1461
14309W        W33056   9.761  14.807   7.144 -0.1659 -0.1249 -0.2485
14310W        W33057   0.300  21.297  19.871 -0.0200 -0.1927 -0.0647
14311W        W33058  20.567  12.202  23.757 -0.0096  0.1388  0.0948
14312W        W33059  29.086  28.741   1.233  0.0004  0.3411  0.2640
14313W        W33060  12.204   6.272  19.583 -0.3118  0.0935 -0.0148
14314W        W33061  34.629  16.219  10.210  0.1053  0.0691  0.4737
14315W        W33062  15.906   1.713   5.530  0.0338  0.1301  0.3082
14316W        W33063  24.934  22.007  24.237  0.0902  0.2155 -0.0971
14317W        W33064   1.375  27.129   1.178  0.0845  0.3201 -0.2057
14318W        W33065  20.030  29.934   6.092  0.0582 -0.2566 -0.0755
14319W        W33066  31.900  27.028  16.992  0.1795  0.2062 -0.2276
14320W        W33067   9.763  13.531   6.378 -0.3015  0.0326 -0.1511
14321W        W33068   0.589  17.697   8.726  0.0415  0.0603  0.2154
14322W        W33069  33.470  18.388  17.977 -0.1193 -0.0671  0.2166
14323W        W33070  34.533  35.006  20.646  0.2911 -0.2819  0.3884
14324W        W33071  16.738   2.905   4.662  0.2805 -0.1125  0.4585
14325W        W33072  18.315  20.904  18.861  0.1859  0.2546 -0.2377
14326W        W33073  25.313  34.143  12.984 -0.0062 -0.0852  0.1370
14327W        W33074  12.684  29.617  11.485 -0.0884  0.1286  0.0158
14328W        W33075  26.699  23.745   0.582  0.0500 -0.0506  0.0647
14329W        W33076   8.302   8.481   9.747  0.0734  0.4526  0.0518
14330W        W33077  35.308   4.787  17.248  0.0153  0.0790 -0.1847
14331W        W33078  26.284   7.757  12.127 -0.1274 -0.0474 -0.0532
14332W        W33079  13.021  10.319  13.222  0.1201  0.0698  0.0884
14333W        W33080  32.033   9.556  20.744  0.1039  0.1720 -0.0992
14334W        W33081   8.162  31.606  10.684 -0.0179  0.2120 -0.1022
14335W        W33082   1.084   9.167   5.005  0.0181  0.4561 -0.2188
14336W        W33083  30.154  26.085  25.400  0.2369 -0.1377 -0.1113
14337W        W33084  35.159  21.385  16.961  0.1894  0.0808 -0.1635
14338W        W33085  15.953  20.266  10.331  0.2401 -0.1656  0.2355
14339W        W33086   9.000  20.397  11.524  0.1322  0.0008  0.0151
14340W        W33087  22.445  24.348  21.536 -0.2247 -0.3042  0.2681
14341W        W33088   8.304  23.105   8.031  0.1744 -0.2109  0.0247
14342W        W33089   6.055  31.043   0.579  0.2198  0.2432  0.0187
14343W        W33090  27.650   2.695  14.615 -0.0031 -0.0933 -0.1615
14344W        W33091  12.336   1.348  24.674  0.1208 -0.1161 -0.0346
14345W        W33092  22.495  31.726   2.788 -0.2211 -0.0201  0.2206
14346W        W33093  28.954   8.201  19.611 -0.0379 -0.2540  0.1464
14347W        W33094  24.206  25.224   3.981 -0.1132 -0.1199 -0.2147
14348W        W33095   9.458  26.409   2.896  0.0274 -0.1616  0.0434
14349W        W33096  25.533  34.840  13.438 -0.1340  0.0914  0.2196
14350W        W33097   9.261   2.300   4.447 -0.1544 -0.2074 -0.0736
14351W        W33098  11.052  23.861  25.607  0.1169  0.0524  0.0173
14352W        W33099  21.772  31.842   3.350  0.3026  0.0399 -0.0322
14353W        W33100   4.855  22.688   3.363  0.5227 -0.1818 -0.5415
14354W        W33101  13.536  13.171  11.743 -0.1064  0.2889 -0.1460
14355W        W33102  32.202  31.937  22.928 -0.1037 -0.0081 -0.1463
14356W        W33103  27.827  30.572   4.648  0.1847 -0.0270  0.1785
14357W        W33104  32.107  19.595  21.142 -0.0079 -0.3919 -0.2546
14358W        W33105  23.569   0.454  24.101  0.3714 -0.3980  0.0244
14359W        W33106   8.696   9.076   8.805  0.1320 -0.1736  0.2948
14360W        W33107  15.160  17.687   0.777  0.0040 -0.2762  0.1341
14361W        W33108  15.691  20.925  25.103 -0.2888 -0.0669  0.0944
14362W        W33109   5.606   0.357  10.930 -0.0834 -0.3092  0.4696
14363W        W33110   5.502  19.028  25.315 -0.1650 -0.0869 -0.1351
14364W        W33111   8.147   8.679  10.841  0.0592  0.0656 -0.4079
14365W        W33112  18.936  18.493   4.922 -0.0464  0.1018 -0.0487
14366W        W33113  10.550   1.038  11.688 -0.3279  0.2218  0.0016
14367W        W33114   0.188  23.025  15.744  0.2142  0.0982 -0.1035
14368W        W33115  12.436   5.204   2.814 -0.2519 -0.2520  0.1688
14369W        W33116  33.265  25.792  14.284  0.0062  0.1025  0.1346
14370W        W33117  16.348  17.642   8.854  0.2402  0.0714  0.1817
14371W        W33118  18.045  16.773   6.083 -0.1708 -0.2312 -0.0262
14372W        W33119  35.010   8.183  20.824 -0.1551  0.2191 -0.1327
14373W        W33120   4.363  28.700   3.953  0.0763 -0.1063  0.1582
14374W        W33121   8.382   2.162  11.605  0.0477  0.1124  0.1293
14375W        W33122   0.680  13.879  20.391  0.1724  0.2488 -0.2767
14376W        W33123  13.871   7.147  23.595 -0.3330 -0.0229 -0.0561
14377W        W33124  33.062  18.316  11.660  0.1664 -0.0585  0.0836
14378W        W33125   7.392  11.217   4.204  0.0512  0.4142  0.0269
14379W        W33126   4.592   8.268   1.279  0.0581 -0.1438 -0.2316
14380W        W33127  26.352  15.975  16.347 -0.0806  0.1304  0.3450
14381W        W33128   5.098   3.130   0.074 -0.3176  0.0751 -0.3677
14382W        W33129  12.798   7.938  19.061  0.2125 -0.0886  0.1904
14383W        W33130   8.110   4.204  19.252  0.2427 -0.0540 -0.0950
14384W        W33131  11.780   3.273   7.085 -0.3136  0.4401  0.1973
14385W        W33132  31.504  32.758   0.941 -0.0829  0.0266 -0.1394
14386W        W33133  34.896  30.571  25.314 -0.2071 -0.2132 -0.3238
14387W        W33134  26.679  18.170   6.268 -0.1499 -0.0417 -0.2998
14388W        W33135  33.211  26.612  21.585 -0.1567 -0.0996  0.2568
14389W        W33136  31.603  26.627  25.928 -0.1530  0.1334 -0.1324
14390W        W33137  33.352   8.492  17.797 -0.0644  0.4545 -0.1895
14391W        W33138  18.726   6.931  20.047 -0.3111 -0.0621 -0.1032
14392W        W33139  26.495   5.776  14.500 -0.1032  0.1386  0.0796
14393W        W33140  11.235   5.689   2.014 -0.0878 -0.1480 -0.5274
14394W        W33141  26.383  10.936  13.454 -0.0191  0.3537  0.2338
14395W        W33142  30.701  14.019   6.197 -0.1877  0.0334 -0.1706
14396W        W33143   9.425  19.156  11.119  0.1104  0.1593  0.1664
14397W        W33144   5.881   6.489  22.319 -0.0509  0.1834 -0.2515
14398W        W33145  11.650  16.867  24.937 -0.2703  0.2757 -0.0438
14399W        W33146   6.850   4.322  21.922 -0.0933  0.1238  0.2029
14400W        W33147   0.306  20.201   1.067  0.0407 -0.0232 -0.1463
14401W        W33148   1.545  16.265  17.361  0.0693  0.5751  0.0855
14402W        W33149  29.695  14.201  20.545  0.2675 -0.1606  0.0635
14403W        W33150   4.166  21.381  22.926  0.2188 -0.0979 -0.0082
14404W        W33151  29.975  13.489  23.666  0.0753 -0.2649  0.0699
14405W        W33152  33.776  27.898  21.117  0.1834  0.0163 -0.0581
14406W        W33153  32.846   1.436   1.051  0.1094 -0.1898 -0.1233
14407W        W33154  20.633  19.900  25.102 -0.0226 -0.0173  0.3267
14408W        W33155   6.522  14.930   2.081 -0.2156  0.1089 -0.0675
14409W        W33156  29.762  19.840   8.069  0.0104 -0.2304 -0.0131
14410W        W33157  10.827   1.435  10.126 -0.0387  0.3084 -0.0326
14411W        W33158  16.651  22.934   0.283  0.1673 -0.1480 -0.2075
14412W        W33159  31.612  12.942   5.637  0.0314  0.0218  0.0049
14413W        W33160   9.526  30.034   6.738 -0.2482  0.0942 -0.0807
14414W        W33161  34.174   4.731  22.796  0.1830 -0.1533 -0.0215
14415W        W33162   2.754  13.160  26.075 -0.2065 -0.1111  0.2526
14416W        W33163  20.401  12.003   7.396  0.1943  0.1651  0.0907
14417W        W33164   8.048  33.398  25.219  0.1339  0.4495 -0.0569
14418W        W33165   9.215   5.014  11.992  0.0549 -0.1900  0.2365
14419W        W33166   7.875   8.868  22.512 -0.2239  0.0846  0.1245
14420W        W33167  15.960  24.451  23.336  0.0612  0.3291  0.1135
14421W        W33168  11.781  24.424  16.315  0.0330  0.0608  0.0168
14422W        W33169   3.177   4.408  21.105  0.1235 -0.2046 -0.0186
14423W        W33170   3.893   6.695   1.738  0.1322  0.1719  0.3828
14424W        W33171  18.271   3.151   4.636 -0.1185 -0.0481  0.2231
14425W        W33172  20.943  29.373   4.970  0.0701 -0.4082  0.1119
14426W        W33173   5.638  19.647  21.118  0.1349 -0.2419 -0.0734
14427W        W33174  18.976  14.773   6.937  0.2696  0.0058 -0.0999
14428W        W33175   5.589  25.324  25.953 -0.4870  0.0487  0.0708
14429W        W33176  22.107  24.381  18.931 -0.1206 -0.4571 -0.1087
14430W        W33177  32.374  12.174   1.024  0.0309 -0.3352 -0.0675
14431W        W33178  13.190  34.285  25.815  0.1162 -0.2090  0.2058
14432W        W33179  33.261   0.969   5.347  0.0409 -0.0438 -0.2133
14433W        W33180  12.126   3.271  10.403  0.2185 -0.3678  0.1506
14434W        W33181  13.107   5.986  23.118  0.4458  0.1575 -0.1109
14435W        W33182  15.361  15.603  23.110 -0.2149 -0.2111 -0.2564
14436W        W33183  20.743  23.987  20.171 -0.1585 -0.0307  0.1985
14437W        W33184   1.768   1.147   6.774  0.0011  0.1259 -0.3075
14438W        W33185  12.758   1.837   3.975  0.0552 -0.0332 -0.2122
14439W        W33186  19.393   4.584  18.890  0.3536  0.1175 -0.0023
14440W        W33187   1.167   7.385  16.446  0.1875 -0.2044  0.0603
14441W        W33188  22.728  33.015  22.050  0.2790  0.1854 -0.0167
14442W        W33189  11.803  32.377  16.405  0.1695 -0.1542  0.0532
14443W        W33190  15.852  29.085   8.643 -0.0152 -0.1222 -0.0159
14444W        W33191   9.006  32.807   9.116  0.3340 -0.2756  0.1187
14445W        W33192  21.495  34.698   3.694 -0.1350  0.0925 -0.0690
14446W        W33193  20.262   4.889  15.839 -0.1012  0.4771  0.0885
14447W        W33194   9.133   2.328  24.655 -0.0125 -0.0615  0.0618
14448W        W33195  23.453  12.787  19.328  0.0108  0.0345 -0.0142
14449W        W33196   2.915  27.851   9.264  0.7215  0.0576  0.0769
14450W        W33197  28.581  31.239  10.914  0.0544 -0.1917  0.1739
14451W        W33198  17.124  26.369  25.555  0.3884  0.0228  0.0846
14452W        W33199  20.489  10.508   5.443  0.0755  0.0874 -0.5355
14453W        W33200  27.746  26.140  24.733 -0.1591  0.1982  0.0661
14454W        W33201  33.675   4.614  18.131  0.1607  0.0396  0.0777
14455W        W33202  27.979   4.592   2.865  0.0312 -0.3328 -0.2644
14456W        W33203  10.168  16.754  11.175 -0.0250 -0.1595 -0.1226
14457W        W33204   7.463   3.356   3.750 -0.0595 -0.1285 -0.2054
14458W        W33205  19.689  31.011   6.948  0.2386  0.0464  0.0500
14459W        W33206  20.245  12.021  18.218 -0.4897  0.0192 -0.0883
14460W        W33207   4.868   3.823   2.716  0.1431  0.1453  0.3178
14461W        W33208  20.360   2.484  19.997  0.0762 -0.1870 -0.0870
14462W        W33209  17.707  34.762   8.814  0.2092  0.0230  0.1020
14463W        W33210  10.274  13.998  18.778  0.2300  0.1859  0.0167
14464W        W33211  11.501  30.338   2.019 -0.1892  0.2429  0.2839
14465W        W33212   8.370   8.845  12.433 -0.1541 -0.3594  0.2162
14466W        W33213   2.483  32.034   3.202  0.0052 -0.2312  0.1163
14467W        W33214  11.483  15.162  10.194  0.0235 -0.1596  0.2041
14468W        W33215  27.259  20.854  24.575  0.1443  0.0735 -0.2425
14469W        W33216  27.349  33.907   2.388  0.0047 -0.2169 -0.1706
14470W        W33217  20.498   2.464   0.118  0.1645 -0.0224 -0.4293
14471W        W33218  13.412  19.761  12.851  0.2118 -0.2550 -0.2424
14472W        W33219   5.639  32.452  11.169 -0.2327  0.1353 -0.2525
14473W        W33220   7.631  12.281  23.300  0.1061  0.0231  0.1201
14474W        W33221   6.817  10.315   2.218 -0.1115  0.0191 -0.0870
14475W        W33222  33.615  14.499  18.053  0.1378  0.0634  0.2822
14476W        W33223  31.846  20.074  15.089 -0.0113 -0.1897 -0.1795
14477W        W33224  14.169  27.400   1.938 -0.0958 -0.0354  0.0108
14478W        W33225   1.870   4.618  23.082 -0.2205  0.0993 -0.0177
14479W        W33226  18.199  23.732  13.417  0.2213 -0.3231 -0.0995
14480W        W33227  33.527  16.371  13.606  0.1747 -0.0780  0.0630
14481W        W33228  14.623  14.636   4.400 -0.1297  0.3632 -0.0820
14482W        W33229  26.275  20.478  16.443 -0.3915 -0.1220  0.1606
14483W        W33230  11.440  32.326   8.667 -0.1827 -0.3343  0.2214
14484W        W33231   2.010   2.533  24.686 -0.1625 -0.0707  0.0394
14485W        W33232  30.337  22.559   9.786 -0.0430  0.0805  0.1896
14486W        W33233  27.253   9.837  16.592  0.1085  0.2521  0.2018
14487W        W33234  16.884  28.884   3.379  0.2378 -0.0170  0.1282
14488W        W33235  32.143   2.263  23.203 -0.0977 -0.4428  0.0825
14489W        W33236  18.962  22.056   8.811  0.0779 -0.0592  0.0124
14490W        W33237   4.680  13.264   6.979 -0.1896 -0.0631 -0.1711
14491W        W33238   5.021  15.493   1.972 -0.1712  0.2311  0.2182
14492W        W33239   3.367   0.929  22.704 -0.1575  0.1490  0.2384
14493W        W33240  20.558  12.632  17.549 -0.2704 -0.2184 -0.2746
14494W        W33241  20.610  34.905  24.047 -0.1111  0.5504  0.1021
14495W        W33242   3.303  15.262   1.196  0.2127 -0.0392  0.0104
14496W        W33243  22.062  31.813  23.937  0.0852  0.1987  0.0857
14497W        W33244  12.674  19.101   5.655 -0.3583  0.1029 -0.1498
14498W        W33245   8.273  22.755   0.918 -0.0636  0.0565 -0.2230
14499W        W33246  33.111  26.313  16.872  0.0491 -0.2413  0.1985
14500W        W33247   6.632  16.719  25.858 -0.6280 -0.0130 -0.1924
14501W        W33248  10.672  28.085   3.580 -0.3582 -0.1431 -0.3398
14502W        W33249  15.372   0.208   7.379  0.3714  0.4755 -0.5333
14503W        W33250   1.880  25.122  22.813 -0.0463 -0.0879  0.0707
14504W        W33251  19.408   8.581  12.112  0.0847 -0.1253 -0.0041
14505W        W33252  20.384   5.980   7.594 -0.3257 -0.0019 -0.1714
14506W        W33253   9.426  31.869   9.275  0.1143  0.6568  0.2654
14507W        W33254   0.812  13.498  10.442  0.1912  0.0454  0.1095
14508W        W33255   8.501   0.696   5.620 -0.1705 -0.3597 -0.2556
14509W        W33256  25.806   5.767  15.906  0.1464 -0.2642  0.1899
14510W        W33257  14.326  15.927  10.437  0.4511  0.1526  0.1654
14511W        W33258  10.539  24.848   7.622  0.1748 -0.2800 -0.0847
14512W        W33259   5.884  20.686   7.256 -0.0403 -0.0225  0.0660
14513W        W33260  15.384   0.033  23.153 -0.2537 -0.2675 -0.0800
14514W        W33261   6.912   6.088  12.563  0.0679 -0.1020 -0.2312
14515W        W33262  14.934   3.046   0.343  0.0601 -0.0348 -0.1886
14516W        W33263  23.121  31.013  18.724  0.0093 -0.2582  0.4547
14517W        W33264  18.410   0.729  20.749  0.2698  0.1297 -0.1599
14518W        W33265   5.740  34.244  21.268 -0.1229  0.1054  0.0629
14519W        W33266  26.414  16.350   8.500 -0.0926  0.3815  0.1089
14520W        W33267   3.624  23.656  22.549 -0.1157 -0.4535  0.0803
14521W        W33268   9.202  18.197   9.911 -0.1018  0.0914  0.1592
14522W        W33269  12.809   9.090   4.494  0.1247 -0.4089 -0.0542
14523W        W33270  20.834  31.161   0.945 -0.2486  0.0695  0.1640
14524W        W33271  14.304   0.141   0.888  0.0734  0.1784  0.0083
14525W        W33272  12.703   2.588  25.604 -0.1011 -0.1125  0.0690
14526W        W33273  16.162  23.997  13.099  0.0355 -0.0687  0.2229
14527W        W33274  11.975  21.991   0.043  0.2336 -0.0436 -0.1430
14528W        W33275  19.245  12.840   6.912  0.1956  0.0578 -0.1066
14529W        W33276  31.306  21.819   8.907  0.3753 -0.1902 -0.1279
14530W        W33277   6.704  28.890   3.690 -0.3250  0.3883  0.0791
14531W        W33278  27.153   4.507  26.220  0.0953  0.1467  0.1507
14532W        W33279   6.821  33.371  25.829 -0.0990  0.0094  0.1420
14533W        W33280   7.931  13.955  22.806 -0.3060  0.4057 -0.0567
14534W        W33281  23.681  27.881  18.086 -0.0755  0.3180  0.1655
14535W        W33282  25.649  18.608  25.717 -0.2829 -0.1544 -0.1062
14536W        W33283  24.496   5.951  20.932  0.0698 -0.3027 -0.1600
14537W        W33284  16.167  24.546  13.099 -0.0870  0.0277  0.0359
14538W        W33285   1.378  24.529  15.717 -0.1801  0.2832  0.1039
14539W        W33286  10.203  26.964   5.924 -0.1469 -0.0291  0.0951
14540W        W33287   7.176   9.192   5.473  0.0248  0.1691 -0.1036
14541W        W33288  20.238  27.338   5.183 -0.0654  0.3641 -0.1877
14542W        W33289  14.075  26.705   9.303 -0.0846 -0.1450 -0.0614
14543W        W33290  31.055   2.286   4.283  0.2232  0.1878  0.1057
14544W        W33291  21.791   8.889  22.491 -0.0844  0.0207 -0.0590
14545W        W33292   1.080  25.011  15.912 -0.2263  0.1878  0.0807
14546W        W33293  23.336  22.214  14.059 -0.0731 -0.0685 -0.0150
14547W        W33294   2.885  22.947  17.693 -0.2251 -0.0617 -0.2460
14548W        W33295  19.929  16.742  21.358  0.0302  0.2156  0.6057
14549W        W33296  34.298   1.004  23.828  0.1407 -0.3145 -0.0879
14550W        W33297  13.547  28.865   9.799  0.2030  0.1165  0.0570
14551W        W33298   3.777   8.300   0.529 -0.0787 -0.2339 -0.2706
14552W        W33299  33.050  21.699  13.078  0.1103 -0.1065  0.1266
14553W        W33300  31.680  12.645  19.053 -0.3440  0.0822  0.1520
14554W        W33301  27.203   8.226  22.476 -0.0525  0.1291 -0.1759
14555W        W33302   7.014  25.808  20.981  0.1402  0.1588 -0.1374
14556W        W33303  26.222  11.042  14.315 -0.1324  0.2797 -0.1466
14557W        W33304  13.769   0.784  24.275 -0.0185  0.1332 -0.3232
14558W        W33305  19.620  16.151   7.609  0.0301 -0.3078  0.0281
14559W        W33306  19.859   8.236  22.355  0.0666 -0.0460  0.2710
14560W        W33307  28.905  32.706  20.993 -0.0622 -0.2363  0.0568
14561W        W33308   0.508  19.426  17.135 -0.1140 -0.1214  0.1065
14562W        W33309   7.040  15.831   0.512  0.3882  0.4136 -0.0334
14563W        W33310  10.928  14.570   4.577  0.1286  0.0657  0.2914
14564W        W33311  30.107  32.557  11.472 -0.0252  0.2617 -0.2203
14565W        W33312  34.360  27.218  12.448 -0.3740  0.1274  0.2324
14566W        W33313   8.848  20.195   9.110  0.0798  0.0717 -0.0338
14567W        W33314  26.249  27.265  17.220  0.0676 -0.1637 -0.1976
14568W        W33315  33.799   7.965  11.468 -0.1206  0.2146 -0.1057
14569W        W33316   4.445  35.238   1.975 -0.2337 -0.1464 -0.0426
14570W        W33317  22.402  25.481   4.372 -0.0171  0.0514  0.0158
14571W        W33318  14.461  29.499   6.472  0.1100 -0.1866 -0.1259
14572W        W33319  27.812  34.152  13.440  0.0672 -0.0197 -0.3144
14573W        W33320  20.415   7.352   0.559  0.2036  0.1364  0.0919
14574W        W33321  11.657  22.210  17.250 -0.1045 -0.0048 -0.0166
14575W        W33322  29.965  26.040   7.513 -0.3824 -0.2563 -0.2371
14576W        W33323  15.457  28.271   9.802 -0.1186  0.0478 -0.0382
14577W        W33324  29.297  11.015   9.533 -0.0948 -0.0453  0.0645
14578W        W33325  21.922   9.806  23.809 -0.1129 -0.0880  0.1770
14579W        W33326   0.614  28.493   0.813 -0.4038  0.2841 -0.2617
14580W        W33327  11.035  30.063  13.561 -0.2579  0.2740  0.0518
14581W        W33328  17.654  28.448  24.955  0.2552 -0.0638 -0.0245
14582W        W33329   1.958   1.967  16.533  0.1147 -0.2812  0.0563
14583W        W33330  23.896   9.090   4.388  0.2793  0.0853 -0.0286
14584W        W33331   7.962   6.593   0.184 -0.1481  0.0667  0.3805
14585W        W33332  33.167  33.157   0.383  0.1188 -0.1386  0.2624
14586W        W33333   8.512  33.996   7.762 -0.1196 -0.1014  0.1441
14587W        W33334  15.634  15.119   4.956  0.0749 -0.3054  0.0255
14588W        W33335  34.903  19.306  10.295  0.0932  0.2545 -0.1889
14589W        W33336  19.360  17.838   5.453 -0.1791 -0.1843  0.3443
14590W        W33337  32.293   8.886  14.584 -0.4535  0.0933  0.2440
14591W        W33338  21.156  10.425   2.330  0.0275  0.1961  0.1982
14592W        W33339  28.065  34.399   3.472 -0.2080  0.2496 -0.0912
14593W        W33340  21.932  15.041  22.895 -0.0592 -0.3624  0.1099
14594W        W33341   1.764  17.667  13.667  0.3592  0.3914 -0.1757
14595W        W33342  10.684  20.835   9.619 -0.0039 -0.2048 -0.2093
14596W        W33343   7.445  35.272   0.702  0.0843 -0.4399  0.0136
14597W        W33344  16.701  26.879  11.008 -0.1432 -0.2559 -0.0441
14598W        W33345  15.015  26.482  10.655 -0.2793  0.0279 -0.1699
14599W        W33346  15.785   5.989   3.658 -0.0627  0.1710  0.0883
14600W        W33347  14.072  19.625  10.114 -0.1418  0.2885  0.0056
14601W        W33348   1.983   3.546  23.623 -0.1183 -0.3246 -0.0477
14602W        W33349  29.743  32.831  16.949 -0.0206 -0.1375 -0.2851
14603W        W33350  32.359  17.555  12.233  0.0028 -0.2367 -0.3176
14604W        W33351  18.837  12.465   1.616 -0.0780  0.1717  0.0451
14605W        W33352  34.164  30.107  18.332 -0.0183  0.0820 -0.0109
14606W        W33353   2.554  16.210  21.533 -0.2297  0.0710 -0.1174
14607W        W33354   3.374  19.192  17.355 -0.0595  0.2272  0.2968
14608W        W33355  27.590  14.425  15.864 -0.1666  0.3143  0.3021
14609W        W33356  31.275   9.588  13.717  0.3063  0.1482  0.0952
14610W        W33357  21.340  26.801  23.321  0.0813 -0.0025  0.2735
14611W        W33358  33.084  16.751  18.775 -0.2562 -0.2825  0.2197
14612W        W33359  30.313  35.123  13.758 -0.3233 -0.0206  0.0034
14613W        W33360  27.792   8.291  17.602 -0.3546  0.1406  0.1055
14614W        W33361   6.166  17.049   6.091 -0.0479  0.5585  0.0453
14615W        W33362  11.841  29.467  25.937  0.0372  0.2279  0.0664
14616W        W33363  15.268  21.049  22.979 -0.0993 -0.0108 -0.1529
14617W        W33364  27.331  19.736  23.199  0.0410  0.2015  0.0694
14618W        W33365  10.716  33.256  12.853  0.0568 -0.2695  0.0311
14619W        W33366  14.357   7.787   9.454 -0.0530 -0.0734 -0.1359
14620W        W33367  21.518  31.114  22.117  0.1930  0.1757 -0.1840
14621W        W33368  26.823   4.562  21.754  0.0760 -0.0763  0.2427
14622W        W33369  25.063   1.021   5.264  0.3033 -0.1975 -0.0855
14623W        W33370  10.860  15.365  23.607 -0.0162 -0.1041  0.1037
14624W        W33371  10.206  21.396  21.621 -0.0492 -0.1677  0.3520
14625W        W33372   5.010  35.235   0.436 -0.1416 -0.2612 -0.3695
14626W        W33373  29.358  13.054  17.678  0.1075 -0.0998 -0.0381
14627W        W33374  15.803  15.483   9.095 -0.0709 -0.3258 -0.0943
14628W        W33375  15.179  22.391   9.346  0.2298  0.0007 -0.1666
14629W        W33376  10.836  34.422  16.284 -0.1244  0.4306 -0.2212
14630W        W33377  10.655  22.385  12.607  0.1164  0.0016  0.0645
14631W        W33378   3.357  32.365   8.774 -0.1159 -0.3766  0.0439
14632W        W33379   1.493  12.235   2.103  0.2959  0.1595  0.0647
14633W        W33380  26.677   7.976  16.088 -0.0194  0.2311  0.0233
14634W        W33381  14.151  22.622  10.452 -0.1265  0.2408 -0.0587
14635W        W33382  15.169   4.716  11.505  0.1833  0.1412 -0.1959
14636W        W33383  19.905  18.849  21.788 -0.1320  0.2822 -0.0496
14637W        W33384  30.471  21.217  15.258 -0.0935 -0.1845 -0.1807
14638W        W33385  30.410  14.772   5.646 -0.2724  0.1491 -0.1075
14639W        W33386  23.235  23.707  17.259 -0.2264  0.1952 -0.0766
14640W        W33387  27.753  19.221   4.415 -0.1595  0.2795  0.2142
14641W        W33388   2.331  21.770  13.505 -0.2827 -0.2093  0.2385
14642W        W33389  19.890  21.268   6.111  0.1016  0.0141  0.1649
14643W        W33390  11.016  14.984   1.370  0.0328  0.0946 -0.0721
14644W        W33391   6.965   5.070   0.364  0.4837 -0.3173  0.0130
14645W        W33392  30.378   7.640  11.865 -0.1589  0.0189 -0.2135
14646W        W33393   6.774  14.142  23.560 -0.2050 -0.0376 -0.1419
14647W        W33394   3.565  28.646   5.714 -0.3829  0.0556  0.2393
14648W        W33395  27.134  19.330   5.202 -0.1934 -0.0874 -0.1781
14649W        W33396  26.481  29.972   3.802  0.0287 -0.1213 -0.0479
14650W        W33397   4.597   4.058  23.756  0.0962 -0.2440 -0.0792
14651W        W33398  33.545  29.370  24.703 -0.1555 -0.4156 -0.0462
14652W        W33399   0.833  23.329  18.062 -0.0813  0.1783 -0.0606
14653W        W33400   1.904  27.990   0.322  0.3128  0.1569 -0.0161
14654W        W33401   1.183  13.217  12.603 -0.2115 -0.1857  0.3702
14655W        W33402   3.290  27.419   8.226  0.3273  0.1123  0.1046
14656W        W33403  30.921   9.379  22.687 -0.1149 -0.2200 -0.0338
14657W        W33404  18.562  29.852   4.733 -0.1571  0.0256 -0.2748
14658W        W33405  19.095  33.226   2.952  0.4021  0.2251  0.0365
14659W        W33406  27.520  34.238  16.586 -0.0394 -0.1223  0.0508
14660W        W33407   2.276  15.641  22.802  0.2530 -0.2810 -0.0431
14661W        W33408  21.149   8.038  22.415  0.2004 -0.1293 -0.0068
14662W        W33409   3.193   4.326   1.629 -0.4553 -0.1178  0.1839
14663W        W33410  12.084   4.136  11.252  0.3956 -0.1848  0.1220
14664W        W33411  17.298  15.401   0.914 -0.1322  0.4313 -0.0403
14665W        W33412   0.585  11.334  24.085 -0.1552  0.0457 -0.0301
14666W        W33413  33.651  28.385  14.412  0.0513  0.1130 -0.1497
14667W        W33414   7.902  17.126  11.113  0.1584 -0.1860 -0.0065
14668W        W33415  29.093  24.105  12.399 -0.0253  0.0928  0.2729
14669W        W33416  26.139   8.042  16.232  0.3651  0.0431 -0.0029
14670W        W33417   2.347  22.317  25.795  0.1729 -0.1138 -0.0794
14671W        W33418  25.157  13.770  12.678  0.2284 -0.1328 -0.2873
14672W        W33419  28.098  19.868   9.467 -0.3436  0.0953  0.3265
14673W        W33420   0.825  24.756  20.559 -0.3087  0.1663 -0.2412
14674W        W33421  32.397  20.163  15.705  0.0452 -0.0056 -0.1274
14675W        W33422  25.837   4.718  21.632  0.1351  0.4314 -0.0448
14676W        W33423   4.170  30.231  25.933  0.0893  0.0067 -0.0925
14677W        W33424  23.726   4.599   0.296  0.1101  0.0873  0.0676
14678W        W33425  25.100  18.341  20.038  0.2065  0.1352 -0.1299
14679W        W33426  22.962   8.041   5.399 -0.1181  0.0231 -0.2342
14680W        W33427  16.998  21.941  26.036  0.0818 -0.3734 -0.0839
14681W        W33428  31.334  23.939  19.096 -0.2546  0.2401 -0.1606
14682W        W33429  12.672  22.797   7.508 -0.3111  0.0253 -0.2482
14683W        W33430  33.765   6.471  22.123  0.0043 -0.1222  0.0474
14684W        W33431  19.077  12.185  25.748 -0.1994 -0.0075 -0.0280
14685W        W33432   3.422  13.087  20.541  0.0400 -0.0366 -0.0742
14686W        W33433  15.645  24.290   1.134 -0.3442  0.0554  0.1871
14687W        W33434   6.584  25.086   8.969 -0.0204 -0.1296 -0.1061
14688W        W33435  17.861  19.232   1.321  0.0326  0.3949  0.2162
14689W        W33436  27.025   9.690  23.611  0.1439 -0.1443  0.2154
14690W        W33437  12.035  32.076  10.153 -0.2014  0.1499  0.4419
14691W        W33438  33.630  31.745  12.472  0.3613 -0.5454  0.0095
14692W        W33439  27.092   2.298  22.576  0.1015  0.2289  0.1782
14693W        W33440  13.512  19.279   2.234  0.1219 -0.2806 -0.0998
14694W        W33441   2.697  20.312  23.914  0.1082 -0.2889 -0.0330
14695W        W33442   3.896   8.834   5.412 -0.0659  0.0444  0.3093
14696W        W33443  22.507  33.431  22.193 -0.0302 -0.5040  0.0291
14697W        W33444   0.798  14.385  19.290 -0.4294  0.0107 -0.4058
14698W        W33445  16.000   4.288   2.056  0.3271 -0.2090 -0.2350
14699W        W33446   6.776   1.335   6.691  0.0459  0.0752 -0.1518
14700W        W33447  17.421   6.681  21.071  0.1952 -0.2225 -0.1142
14701W        W33448   9.930  19.727  12.081  0.1604 -0.2409  0.3467
14702W        W33449   0.745  31.165  25.462 -0.2401  0.0346 -0.0118
14703W        W33450   4.732  13.890   4.118 -0.1735  0.2539  0.2857
14704W        W33451  35.160  26.016   4.218 -0.1179  0.3570  0.0179
14705W        W33452   5.323  34.046  21.136  0.1838 -0.2307 -0.0167
14706W        W33453  14.235  13.666   2.171  0.1966  0.0139 -0.1574
14707W        W33454  12.185  30.448  24.598  0.1912 -0.2099  0.0079
14708W        W33455   3.350   3.040   8.122  0.2047 -0.1262 -0.0088
14709W        W33456   4.532  11.033   2.509  0.0974  0.2087  0.1762
14710W        W33457  12.638  13.732   8.234 -0.0302  0.1304  0.2864
14711W        W33458  20.343  21.306   4.224 -0.0154  0.2666  0.1386
14712W        W33459  29.807  32.885  22.206  0.0373  0.0354  0.0078
14713W        W33460  30.426  33.712  17.097  0.1481 -0.1549  0.3004
14714W        W33461   9.493  34.624   3.765  0.2767  0.1156 -0.0381
14715W        W33462  26.266   6.893  26.166  0.1143 -0.1764 -0.0121
14716W        W33463  34.159  29.775  15.798  0.0417 -0.0607 -0.1473
14717W        W33464  19.216  12.236  21.259 -0.2676  0.2624  0.0354
14718W        W33465   5.178   1.414  10.635  0.0314 -0.1130  0.2234
14719W        W33466  28.704  17.451  16.368 -0.1604  0.3100  0.4149
14720W        W33467  29.006  28.240  23.940  0.1096  0.2219  0.0764
14721W        W33468  12.437  11.449   2.793 -0.1652  0.1634 -0.0646
14722W        W33469   1.162  14.694  11.718  0.3837 -0.1809 -0.0390
14723W        W33470  32.634  18.064   6.850 -0.0140  0.3142  0.1019
14724W        W33471  11.751  24.987  13.548  0.1620 -0.0243 -0.3513
14725W        W33472  13.437   7.728  11.121 -0.0243  0.2151  0.3100
14726W        W33473   8.863  25.928  26.032  0.0662 -0.0264 -0.0625
14727W        W33474  31.533  25.321  12.884 -0.1275 -0.1707  0.0345
14728W        W33475  18.788  21.193   8.586  0.0729  0.1811 -0.0250
14729W        W33476   5.844  25.444   4.095 -0.0140  0.3348  0.2221
14730W        W33477   3.949  28.639  21.074 -0.1156 -0.0375  0.0382
14731W        W33478  26.451   9.464  20.394 -0.0150  0.1233 -0.3128
14732W        W33479   3.603  16.314  23.882  0.3162 -0.1905 -0.0583
14733W        W33480  32.807  16.310   6.942 -0.0949 -0.0923 -0.0221
14734W        W33481  13.339  11.192   0.601  0.1837 -0.0646 -0.0703
14735W        W33482   3.627   2.576   3.880 -0.4205  0.0306 -0.2598
14736W        W33483   7.044   6.000  24.337  0.1800  0.1164 -0.2797
14737W        W33484  20.986  22.957  22.465 -0.0745  0.0666  0.0054
14738W        W33485  26.673  30.401   5.294 -0.2023 -0.1814  0.6369
14739W        W33486  23.807   8.358  20.907 -0.0900  0.0645  0.0939
14740W        W33487   7.193   6.552  22.519 -0.0174  0.1580  0.0098
14741W        W33488  14.358  12.723  10.977 -0.0707 -0.2724 -0.3533
14742W        W33489  18.962   3.225   5.291  0.1968  0.2274 -0.2720
14743W        W33490  29.165  22.771   9.023 -0.2450  0.1330  0.0586
14744W        W33491  14.869   2.495  22.898  0.0076  0.0883 -0.0672
14745W        W33492  18.554   0.721   4.244  0.1164 -0.2539  0.1030
14746W        W33493  24.367  28.247  13.010 -0.1152 -0.0125  0.0721
14747W        W33494  34.871  27.284  16.942 -0.1584  0.0034  0.1058
14748W        W33495  19.799  11.972  22.534  0.0717 -0.2794  0.0892
14749W        W33496   8.706  11.651  13.216  0.2423 -0.0475 -0.0394
14750W        W33497  17.510   4.254   7.898  0.2000 -0.0414  0.1273
14751W        W33498   2.039  17.828  15.934  0.0596 -0.1059  0.0787
14752W        W33499  30.376   7.046  22.188 -0.1559  0.1962  0.0300
14753W        W33500  26.348   8.211  11.790  0.3178 -0.1565  0.0034
14754W        W33501  12.026   1.635   9.209 -0.2385 -0.2412  0.0337
14755W        W33502  14.785  18.072   5.081 -0.0285  0.0194  0.0260
14756W        W33503  19.811  11.637   6.079  0.0998 -0.0563  0.2885
14757W        W33504  25.129  24.607  18.736  0.0252  0.1024  0.1975
14758W        W33505   5.555  32.498   4.538  0.2160 -0.2855  0.2204
14759W        W33506  30.151   1.342  25.116  0.0090 -0.0725 -0.0379
14760W        W33507   2.280  21.737  22.865 -0.1310  0.0224  0.0061
14761W        W33508   5.706  23.963  26.238  0.0453 -0.1917 -0.0143
14762W        W33509  10.815   6.724   1.985  0.0878  0.1694 -0.1165
14763W        W33510  32.930   8.908  11.943 -0.0383 -0.1690  0.1213
14764W        W33511  34.863  13.702   9.711 -0.3443 -0.1045  0.0753
14765W        W33512  13.116  29.667  13.439 -0.2588  0.1214  0.0520
14766W        W33513  11.660  35.326   3.171  0.0715  0.0403 -0.0331
14767W        W33514  16.881  16.139   0.774 -0.0341  0.1044  0.1366
14768W        W33515   7.260  15.976  19.510  0.1362  0.0487  0.1313
14769W        W33516  29.315  22.384  20.385 -0.0955 -0.1277 -0.3840
14770W        W33517  22.480  31.884  25.310 -0.1440  0.0716  0.1326
14771W        W33518  17.755  12.146   8.109  0.0563 -0.1333  0.0463
14772W        W33519   0.591  32.623   2.599 -0.1113 -0.0789 -0.0079
14773W        W33520  17.375  16.732  23.585 -0.1071  0.1216 -0.3841
14774W        W33521   7.822  16.693  25.966  0.0970 -0.3574 -0.0460
14775W        W33522  21.898  11.192   4.463  0.2137 -0.0931  0.0292
14776W        W33523   6.048   9.673   9.974  0.2271 -0.1187 -0.2640
14777W        W33524  11.855  26.752   6.192  0.1077  0.1120  0.0805
14778W        W33525  27.425   8.055  23.427  0.2206  0.2577 -0.2604
14779W        W33526  31.315  30.708  20.916  0.2814  0.0781  0.1223
14780W        W33527  12.967  28.777  12.547  0.0657  0.1304 -0.1724
14781W        W33528   5.456   9.545   2.975 -0.0317  0.0668 -0.0610
14782W        W33529   1.741   3.954   5.278 -0.0008  0.0823  0.0654
14783W        W33530   8.002  14.762  21.365  0.1345  0.1568 -0.0987
14784W        W33531   0.764   0.049   2.086 -0.1771  0.1727  0.0542
14785W        W33532  25.851  13.970  12.151  0.0457  0.4225 -0.1285
14786W        W33533   0.613  30.250  24.863  0.1369 -0.1906 -0.0856
14787W        W33534   9.720   7.375   5.959 -0.2871  0.1517  0.2232
14788W        W33535   7.142  30.831  11.246 -0.2925 -0.0662  0.0983
14789W        W33536   1.385   8.543   0.172 -0.3126  0.2254  0.1094
14790W        W33537  15.041   3.681  20.325  0.1400 -0.0427  0.3133
14791W        W33538   7.658  19.347  24.647  0.0478 -0.0836  0.2616
14792W        W33539  31.057  14.613  12.744 -0.2635 -0.2006  0.0079
14793W        W33540  13.336  34.678  21.763 -0.2713  0.2041 -0.3375
14794W        W33541   3.910  24.905   5.219 -0.0176  0.1179 -0.2599
14795W        W33542  34.118  16.251  15.095 -0.1321 -0.2278  0.2909
14796W        W33543  14.591  34.354  10.471  0.0063  0.3156  0.1019
14797W        W33544  28.238   9.835   0.188  0.0467  0.1606 -0.1467
14798W        W33545  17.965   3.217  19.959 -0.2406  0.0170  0.1797
14799W        W33546  34.065  32.671  22.884 -0.1020 -0.1313  0.0775
14800W        W33547   5.359  26.990   4.792  0.1243  0.0760  0.0838
14801W        W33548  20.761  32.882  23.280 -0.1631  0.2807 -0.0973
14802W        W33549  13.661  15.274  25.735 -0.1305 -0.0305 -0.2728
14803W        W33550  31.654  31.711  23.828  0.2439  0.0846 -0.1797
14804W        W33551   2.635  12.334  24.107 -0.1255  0.0468 -0.2086
14805W        W33552  10.093  30.192  13.967  0.1236 -0.0242 -0.2339
14806W        W33553   2.627   3.935   3.663 -0.2461 -0.2021 -0.2303
14807W        W33554  26.743  33.569  16.180  0.0460 -0.0955 -0.0420
14808W        W33555  28.509   5.305   0.010  0.5300  0.4040 -0.0786
14809W        W33556  19.834   2.278   1.973  0.0351  0.0046  0.3941
14810W        W33557  20.842  15.092   6.294  0.1343  0.0200  0.0406
14811W        W33558   0.007   2.941  21.867  0.0253  0.1197  0.3009
14812W        W33559  18.928  10.208   7.958  0.0382  0.2135 -0.2490
14813W        W33560  26.764   3.704   0.115  0.1365  0.2163  0.4574
14814W        W33561  22.578  33.963   4.974  0.1810 -0.1588 -0.0063
14815W        W33562  24.247  23.990  23.244 -0.1416  0.1349 -0.0311
14816W        W33563  16.228  18.503  20.640 -0.3244  0.1316 -0.0778
14817W        W33564  24.133  27.008  12.026  0.3036 -0.1899  0.1201
14818W        W33565  12.252  34.334   6.480 -0.1316  0.1949  0.0329
14819W        W33566  29.011   6.175  23.697  0.0005 -0.2149 -0.0552
14820W        W33567  31.976   1.366   0.864 -0.0855 -0.0886 -0.2510
14821W        W33568   6.537   3.285  18.445  0.0315  0.2472  0.1760
14822W        W33569  29.475   2.227  17.330  0.3787  0.1041  0.0325
14823W        W33570   5.093  22.306  23.309  0.0008 -0.1270 -0.0530
14824W        W33571  31.896  10.292  25.367  0.2385  0.3591  0.1086
14825W        W33572  13.389   9.444   8.380 -0.1089 -0.0056  0.2587
14826W        W33573   8.078  22.377  10.441 -0.0417  0.0722 -0.0011
14827W        W33574  12.703  16.345  11.983  0.0230  0.0208  0.0339
14828W        W33575  15.292  19.696  23.726  0.5460 -0.1042  0.0108
14829W        W33576   5.481  28.044  10.281 -0.3004 -0.1069 -0.0566
14830W        W33577  19.600   1.547   0.568 -0.0257 -0.3465 -0.0519
14831W        W33578  19.580  10.152   6.284  0.2175  0.1449  0.0841
14832W        W33579   7.295  27.075  21.840 -0.1472  0.1519 -0.0900
14833W        W33580  33.439  34.701   0.649  0.2640  0.2271 -0.0976
14834W        W33581  34.488   6.296  18.972  0.0333 -0.0067 -0.3895
14835W        W33582  17.709   6.560   2.486 -0.2229  0.2711  0.2091
14836W        W33583  17.855  11.232  20.782 -0.0743  0.1075 -0.5229
14837W        W33584  23.034  33.665  12.585  0.0472  0.0038 -0.1883
14838W        W33585  26.178  19.883  14.281 -0.0520  0.0641 -0.1111
14839W        W33586  21.141  27.731   0.286 -0.1153  0.0321  0.2898
14840W        W33587   4.710  10.877   6.777 -0.0415  0.3215  0.0198
14841W        W33588  15.863  29.642  22.920  0.2309 -0.2919 -0.0649
14842W        W33589  14.964  26.114  13.093 -0.1687  0.0473  0.3143
14843W        W33590  32.011   9.799   9.431  0.0322 -0.0260 -0.2243
14844W        W33591  25.323   5.650  20.023 -0.5745 -0.0220 -0.2875
14845W        W33592  30.786  19.859  15.614  0.0906 -0.3445 -0.2505
14846W        W33593  30.697   8.573  22.584  0.0197 -0.2145 -0.0952
14847W        W33594  28.596  17.864   6.194 -0.2456 -0.0049 -0.1455
14848W        W33595   2.269  28.671  19.384  0.3670 -0.2341  0.1127
14849W        W33596  31.893  17.308  25.792  0.0786  0.2791  0.0875
14850W        W33597  11.468  11.055   3.575 -0.4591  0.1080 -0.0180
14851W        W33598  14.140  21.631  10.671 -0.0494 -0.1362  0.4165
14852W        W33599   0.177   6.532  17.890 -0.2499  0.1246  0.4399
14853W        W33600  34.313  22.781  16.787 -0.3485 -0.2842  0.3050
14854W        W33601  26.710   6.397  23.324  0.0590  0.0396 -0.2818
14855W        W33602  28.458   2.827  26.231 -0.0692 -0.0362  0.2602
14856W        W33603  11.206  30.113   7.596  0.0480 -0.0994 -0.1705
14857W        W33604  19.407  22.489  23.078 -0.1743  0.0545  0.3312
14858W        W33605  10.656  11.581   2.495 -0.5137  0.3888 -0.3577
14859W        W33606  13.880  13.036  14.196  0.0666 -0.1748  0.1911
14860W        W33607  32.253  16.555  10.431 -0.2322  0.1482 -0.3024
14861W        W33608  34.506  17.704   1.655 -0.4276  0.2057  0.0930
14862W        W33609  29.103  22.912  11.826  0.0216  0.0847  0.0019
14863W        W33610  14.742   9.036   0.719  0.2400  0.0645  0.0414
14864W        W33611  32.914   1.402  17.737 -0.0496  0.0233  0.0873
14865W        W33612  34.814  26.511   1.515 -0.4776  0.1300  0.4678
14866W        W33613  18.095  20.899   8.611  0.0471 -0.1703  0.2250
14867W        W33614  19.670  22.195   0.636  0.1936  0.2100 -0.0537
14868W        W33615  22.933  19.829  19.311 -0.1692  0.2012  0.1178
14869W        W33616  25.907  34.441   1.630 -0.0660 -0.2029 -0.0450
14870W        W33617   8.640  29.586  11.744 -0.2401  0.2514 -0.0934
14871W        W33618  18.017  12.361  26.227 -0.2162 -0.1168 -0.4486
14872W        W33619   5.308  14.307  22.557  0.0889  0.0222  0.2679
14873W        W33620   8.342   0.335   7.273  0.2146 -0.0860  0.0665
14874W        W33621  10.953  12.849  21.212  0.0809  0.3382 -0.2926
14875W        W33622  22.100  16.178  14.279 -0.0199 -0.2576 -0.3238
14876W        W33623  15.018  13.973   4.384  0.0360  0.0973 -0.1108
14877W        W33624  35.219   2.282   7.680  0.0884 -0.1726  0.0134
14878W        W33625  29.329   1.662  20.888 -0.1060  0.1288  0.4288
14879W        W33626   6.449  14.647   4.147 -0.0383 -0.0684  0.0293
14880W        W33627  20.381   8.662   9.362 -0.0116  0.0698  0.2956
14881W        W33628   8.547  11.449  10.852 -0.1122 -0.0706  0.0298
14882W        W33629  24.677  16.550  22.343  0.0764 -0.1537 -0.1196
14883W        W33630   6.385  14.535   7.565  0.2712  0.1303 -0.0799
14884W        W33631  29.658   5.320   2.943 -0.1054 -0.3159  0.2490
14885W        W33632  30.497   5.121   3.800 -0.1996  0.0335 -0.0321
14886W        W33633   1.855  30.014  20.997 -0.0580 -0.2730  0.2233
14887W        W33634  31.249  35.378  14.083 -0.1954 -0.0087 -0.2152
14888W        W33635  23.862  11.181  15.643  0.1339 -0.0137 -0.0842
14889W        W33636  33.866  27.189   2.010  0.1412  0.4011 -0.1080
14890W        W33637   1.796  25.893   5.015 -0.1224 -0.0110  0.0618
14891W        W33638  17.304  17.855   4.760  0.1615  0.3171 -0.0206
14892W        W33639  17.500  16.235   2.103 -0.3529 -0.1589  0.1462
14893W        W33640  34.358   3.519  20.622  0.2022  0.0081  0.1922
14894W        W33641  13.310  25.692  22.062 -0.0649  0.5303 -0.1014
14895W        W33642  20.462  16.053  16.939 -0.1036  0.0980  0.3455
14896W        W33643  28.378  22.529  15.186 -0.2375  0.1024  0.2167
14897W        W33644   0.962   6.604  17.429 -0.0393  0.0943  0.0129
14898W        W33645   7.525  31.011   9.148  0.1307 -0.0603 -0.0464
14899W        W33646  26.721  31.365  17.704 -0.1157  0.0036 -0.0218
14900W        W33647  12.402  15.110  13.131 -0.0708  0.3005  0.1749
14901W        W33648  10.677  26.363  17.142  0.2298  0.0727 -0.2780
14902W        W33649  12.799   6.858  21.570  0.1348  0.0042  0.0810
14903W        W33650  18.873   5.180   3.756 -0.1213  0.3607 -0.0125
14904W        W33651   5.877  21.292  20.018  0.2014  0.1085 -0.2030
14905W        W33652  33.104   1.531  25.959  0.0781 -0.0772 -0.0401
14906W        W33653   9.442  15.086  23.267 -0.0834  0.0652 -0.4820
14907W        W33654  19.801   8.853   7.799 -0.1915 -0.1138  0.0304
14908W        W33655   8.235  31.052  12.131  0.1907 -0.0579 -0.0793
14909W        W33656  26.633   0.535  19.466 -0.3722  0.1066  0.2654
14910W        W33657  14.166   1.818  26.194 -0.0678  0.1551 -0.0466
14911W        W33658  27.256  32.107  23.825  0.1164  0.1724 -0.2167
14912W        W33659  11.850  21.709   7.152 -0.0303 -0.0347  0.1118
14913W        W33660  19.024   7.777   3.405 -0.1963 -0.3374  0.0809
14914W        W33661  29.954   6.497  22.781 -0.1063  0.1895 -0.1410
14915W        W33662  19.221   7.452   9.304  0.0889  0.1051 -0.2877
14916W        W33663  17.026  12.233  22.630  0.0550 -0.4219  0.0712
14917W        W33664  12.419  32.622  10.897  0.0354 -0.1157 -0.2782
14918W        W33665  16.202   5.614  17.488 -0.0004 -0.0226  0.1116
14919W        W33666  11.347  23.764  11.571 -0.3086  0.3116 -0.1428
14920W        W33667   7.649  30.082  10.813  0.2265 -0.2024 -0.0805
14921W        W33668   3.799  28.402  20.657 -0.2415  0.0932 -0.2775
14922W        W33669  25.491  29.199  15.076  0.3985  0.1337 -0.0166
14923W        W33670   9.769  15.471   9.172 -0.2124  0.1760 -0.3925
14924W        W33671  21.224  30.674  20.668 -0.1713 -0.2341 -0.2038
14925W        W33672  21.346   3.607   8.044 -0.1352 -0.0124 -0.0908
14926W        W33673  11.922  17.732   8.803  0.2403  0.2469 -0.0138
14927W        W33674  27.736   4.880  24.548  0.1235  0.3336  0.0548
14928W        W33675   7.868   3.947  21.868  0.3453  0.0458  0.1921
14929W        W33676  33.580  34.390  23.289  0.2376 -0.1253  0.0181
14930W        W33677  25.332   4.617  21.720 -0.1197  0.1673 -0.1978
14931W        W33678   0.064  29.244  21.699  0.3168 -0.0772  0.1655
14932W        W33679   4.685   7.007   0.997 -0.0769 -0.1959 -0.2261
14933W        W33680  24.613  34.402  12.502  0.0681  0.0266 -0.1526
14934W        W33681  31.464  18.094  19.131  0.2438 -0.3779 -0.2902
14935W        W33682  13.369   7.916   0.049 -0.0200  0.0334  0.2698
14936W        W33683   1.997  15.890  22.464 -0.0878 -0.1694  0.0243
14937W        W33684  20.982  16.095  25.832 -0.1907 -0.3022  0.0882
14938W        W33685  29.535  16.917   4.763  0.0024  0.2078 -0.0753
14939W        W33686  22.585  22.546  17.685  0.0896  0.1908  0.4157
14940W        W33687  28.605  28.331  15.724 -0.0523  0.1505 -0.1184
14941W        W33688   8.489   1.270   1.613  0.2730  0.1358 -0.0542
14942W        W33689  12.911  25.690  24.456 -0.0966 -0.4540  0.0325
14943W        W33690   5.299  30.276   8.104  0.3319  0.3062  0.0812
14944W        W33691  30.223  19.428   5.548  0.1300  0.0382 -0.1736
14945W        W33692  30.845  19.721  19.301 -0.2428  0.0743  0.0778
14946W        W33693   0.507  13.829  25.898  0.4814 -0.2516 -0.0510
14947W        W33694  21.959   2.917  24.172 -0.2015  0.0511  0.3002
14948W        W33695   0.997  15.139  14.933  0.1188  0.0328 -0.1317
14949W        W33696  29.547  28.851  13.525  0.1118 -0.1620  0.0574
14950W        W33697  15.534   5.183   6.409 -0.0415  0.1142 -0.4917
14951W        W33698  29.990  29.211   3.985 -0.0882  0.1841  0.0652
14952W        W33699  28.907  25.820  12.663  0.1417  0.1381 -0.1189
14953W        W33700   5.936   6.130  23.335 -0.0408 -0.3503  0.0304
14954W        W33701  14.360   7.111   3.440 -0.1487 -0.0831  0.0106
14955W        W33702  28.031  22.504  14.121  0.1296 -0.0716  0.0439
14956W        W33703  26.347  12.952  21.047  0.4349  0.0602  0.0538
14957W        W33704  13.680  20.893   4.035 -0.2713 -0.0873  0.0097
14958W        W33705   4.811  16.882  17.270 -0.1901  0.3746 -0.4460
14959W        W33706  33.500  31.189   1.391  0.0357 -0.3868  0.3953
14960W        W33707  34.013  17.302  24.279 -0.2331  0.1727  0.1685
14961W        W33708  29.373  25.610  25.926  0.3021  0.1399 -0.1260
14962W        W33709   2.223  32.848   8.743 -0.1760 -0.3981  0.3277
14963W        W33710   3.572   5.299  20.578  0.2219  0.1550 -0.2811
14964W        W33711  16.360  12.288  12.028  0.0101 -0.1481 -0.0347
14965W        W33712  32.181  14.740   5.969  0.2804  0.0985  0.3141
14966W        W33713  16.956  20.921  25.854  0.0942  0.0119 -0.0346
14967W        W33714  30.427  25.045   0.521 -0.2477 -0.0149 -0.2776
14968W        W33715  18.532   0.287  23.768  0.2224 -0.2368  0.0135
14969W        W33716  27.132  19.867   7.829  0.1179 -0.1066  0.1954
14970W        W33717  15.843  23.103  16.621 -0.0787  0.0320  0.2803
14971W        W33718  28.077  33.181  13.299 -0.0074 -0.0104  0.2532
14972W        W33719  20.226   3.296  22.709  0.1965 -0.0816 -0.0327
14973W        W33720  29.153   8.611  14.610 -0.1341  0.1481  0.0447
14974W        W33721  17.298   1.439   2.751  0.1267  0.0002 -0.0009
14975W        W33722   2.137  21.997   1.383  0.0844 -0.1724 -0.0370
14976W        W33723   8.225  34.545   2.105  0.2564  0.0332 -0.2176
14977W        W33724  34.914  17.187  18.395 -0.3444 -0.1484 -0.1337
14978W        W33725   0.594  29.161  20.423 -0.3829  0.1813 -0.2340
14979W        W33726  30.269  11.449   9.141 -0.3881 -0.2344  0.1549
14980W        W33727  26.165  25.317   1.539  0.0806 -0.1210  0.4681
14981W        W33728  33.982  17.403  18.778  0.0888 -0.0486 -0.1017
14982W        W33729   1.143  21.714  26.115  0.0199 -0.2883 -0.0895
14983W        W33730  25.841  33.582  17.742 -0.0213 -0.0726 -0.1147
14984W        W33731  26.168  18.712   9.589  0.0832  0.1522 -0.0301
14985W        W33732  16.763   8.463   6.075  0.3131 -0.1626 -0.3880
14986W        W33733   4.664  27.707   0.887 -0.1443 -0.0961 -0.1892
14987W        W33734  20.081  13.851   4.944 -0.1713  0.2251 -0.2718
14988W        W33735  28.919  20.785   5.019  0.1213 -0.0934 -0.1220
14989W        W33736  29.896   9.225  16.107  0.1223  0.0668 -0.0425
14990W        W33737  31.902  14.706   7.104  0.1560  0.2339 -0.2866
14991W        W33738   7.784  24.200  11.010  0.1299  0.0318 -0.0385
14992W        W33739  31.643  27.379  24.259  0.1976  0.0242 -0.3612
14993W        W33740   6.198  24.433   8.375 -0.2881 -0.1376 -0.2370
14994W        W33741  16.424   9.070   7.812 -0.1613  0.0619 -0.2612
14995W        W33742  17.960   4.148   8.079 -0.0084 -0.0867 -0.1015
14996W        W33743   4.856  15.320   0.309 -0.1823 -0.1131 -0.1780
14997W        W33744  33.980  32.590  19.183 -0.4072 -0.1815  0.0315
14998W        W33745  27.257   8.022  24.724  0.0380  0.2029 -0.2485
14999W        W33746  28.225   8.707  23.465 -0.0811  0.4602  0.2002
15000W        W33747  25.176  21.024  13.813  0.0180 -0.2498  0.1129
15001W        W33748  21.430  21.958  23.180  0.1366  0.0243  0.2707
15002W        W33749  11.647  31.196   3.252  0.1918  0.3667 -0.1984
15003W        W33750  33.792  32.842  21.904  0.1741 -0.2527  0.4118
15004W        W33751  31.225   8.072  16.082  0.1109  0.3224 -0.2521
15005W        W33752  10.819   2.639  10.523 -0.1604  0.0632 -0.0432
15006W        W33753   7.303   2.265  14.835 -0.3658 -0.1702 -0.0344
15007W        W33754  28.283   2.061  10.415  0.0445  0.0734  0.0698
15008W        W33755  24.105  11.724  16.860 -0.1486 -0.2074 -0.2536
15009W        W33756  13.249   0.467  11.454  0.1060 -0.0744 -0.2787
15010W        W33757  23.896  12.615  12.846  0.0782 -0.0571 -0.0274
15011W        W33758   6.943  33.384  24.635  0.0164  0.0603 -0.0400
15012W        W33759  11.583  15.054  25.170  0.1958  0.0170  0.0482
15013W        W33760   5.107   5.611  21.700 -0.1209  0.1623 -0.2062
15014W        W33761  12.931  27.341   6.107  0.0841  0.0984 -0.0575
15015W        W33762  33.989  12.643  17.942  0.0232  0.1141  0.1831
15016W        W33763   4.014  19.623   0.962  0.2972 -0.2886  0.1698
15017W        W33764  35.353  12.048  14.128  0.1347  0.1147  0.0178
15018W        W33765   1.784  26.418  22.385 -0.0122  0.1485 -0.0711
15019W        W33766  32.866  11.933  11.909  0.1328 -0.0156  0.0396
15020W        W33767  34.998  17.720   0.064  0.0273 -0.3543  0.0030
15021W        W33768  32.203  11.109  15.543  0.1503 -0.0618 -0.2795
15022W        W33769  18.428   9.971  11.173  0.1075  0.1654 -0.0527
15023W        W33770   8.988  14.133  18.998  0.2652 -0.1176 -0.0175
15024W        W33771  24.671  11.017  20.202 -0.1693  0.0233 -0.1380
15025W        W33772   9.989  30.280  24.826 -0.0237  0.1050 -0.2746
15026W        W33773  31.504  13.808  23.226  0.6507 -0.0251 -0.0672
15027W        W33774  12.703  31.848  24.956 -0.0064 -0.2741 -0.1201
15028W        W33775  13.987  32.876  12.763  0.0216 -0.1156 -0.0726
15029W        W33776  31.943  26.940  19.554  0.5000 -0.0331 -0.0675
15030W        W33777   4.789  22.262  25.243  0.1252 -0.4471  0.1620
15031W        W33778  32.880   3.012  14.258 -0.1179 -0.1422  0.0492
15032W        W33779  14.850  32.796   8.604 -0.0279  0.1393  0.0286
15033W        W33780   7.950  12.992  24.167  0.0631 -0.1722 -0.3983
15034W        W33781   0.698  35.263  22.166  0.0086  0.0909 -0.0185
15035W        W33782  26.380  22.747  17.966 -0.0672 -0.0210  0.0209
15036W        W33783  25.438   0.471   6.070 -0.2530  0.3079  0.2665
15037W        W33784  28.692   0.754   5.157 -0.2290  0.1528  0.4073
15038W        W33785  29.250  20.341  16.592  0.1862 -0.0280 -0.0997
15039W        W33786  22.159   8.306  21.450  0.1933  0.1320 -0.1872
15040W        W33787  19.141   8.852  20.772 -0.0006  0.2245 -0.0800
15041W        W33788   6.259  16.663   6.487 -0.1855 -0.1371  0.0597
15042W        W33789  28.260   9.563   7.966 -0.2531 -0.1960 -0.0282
15043W        W33790   8.964  15.728  18.102  0.2790  0.0072  0.0432
15044W        W33791   6.913  19.187   6.060 -0.1944 -0.4714 -0.2340
15045W        W33792  25.574   7.832  24.631 -0.3594  0.1319 -0.2219
15046W        W33793  14.630  20.342   8.037  0.0996  0.1115  0.1070
15047W        W33794   9.586  35.294  11.345  0.1351 -0.3290 -0.1587
15048W        W33795  14.857  16.232   2.053 -0.0272  0.2806 -0.1177
15049W        W33796   0.483  30.180   8.598 -0.1778 -0.2536  0.0427
15050W        W33797  26.097  18.416  25.932 -0.0275  0.0178  0.2303
15051W        W33798  22.922  11.632  13.979  0.0708 -0.1228 -0.2492
15052W        W33799  21.834   7.984  25.862  0.4017 -0.1849  0.1859
15053W        W33800  12.105  13.532   0.514  0.1205 -0.0723 -0.0416
15054W        W33801   9.239   9.495   9.205 -0.0400 -0.0129 -0.3284
15055W        W33802  27.495  19.012  17.420  0.0075 -0.1103 -0.1466
15056W        W33803  17.758  33.665   9.210 -0.1546  0.1861  0.0752
15057W        W33804  23.885  27.725  17.646 -0.1123  0.0082 -0.2711
15058W        W33805  13.687  25.001  13.774  0.2053 -0.0622 -0.1320
15059W        W33806   7.027   0.182   9.774 -0.0538 -0.0699 -0.0963
15060W        W33807  33.120   0.728  18.593 -0.1886  0.2634 -0.1543
15061W        W33808  31.386  10.917  16.166  0.0844 -0.2269 -0.0689
15062W        W33809   5.301  11.142  17.454 -0.1385 -0.0059 -0.4132
15063W        W33810  35.104   1.238  25.111  0.1392 -0.1393 -0.1457
15064W        W33811  12.198  19.263   1.124  0.0209 -0.1549  0.2349
15065W        W33812  31.508   7.084  21.070  0.2595  0.0803 -0.1097
15066W        W33813  18.571   3.151  22.147  0.1988  0.0858  0.0020
15067W        W33814  19.234   4.941  17.143 -0.0903 -0.3076  0.3070
15068W        W33815  24.761  12.032  21.286  0.0982 -0.3157  0.2017
15069W        W33816   4.207  14.194   5.204 -0.0080  0.3788  0.0726
15070W        W33817  33.213  15.459  13.193 -0.1036  0.3034  0.1110
15071W        W33818  10.992   6.653   0.345  0.0056  0.2724  0.4804
15072W        W33819  12.974  15.247  10.620  0.0282 -0.1278 -0.0275
15073W        W33820  26.904   2.578   0.166  0.6429  0.0128  0.0486
15074W        W33821   8.308  25.957  22.974 -0.2205 -0.0475 -0.1266
15075W        W33822  23.471   7.951  13.908  0.0518  0.1347  0.0131
15076W        W33823  29.740  21.084  20.162 -0.0144 -0.2555  0.0762
15077W        W33824  18.708  32.870  18.569 -0.0567  0.1124 -0.2997
15078W        W33825  10.467  30.958   5.894  0.0615  0.1657 -0.1085
15079W        W33826  17.742   7.847  26.061 -0.0031  0.0609 -0.4549
15080W        W33827  13.521  28.791   4.460 -0.3454  0.2970  0.4239
15081W        W33828  34.369  14.098  18.247 -0.0886 -0.0011 -0.1594
15082W        W33829  20.412  26.196  19.816 -0.1838 -0.1354 -0.1187
15083W        W33830   5.915   7.980  19.476 -0.0272  0.2144 -0.0152
15084W        W33831  19.228   0.412   0.177 -0.2474  0.0265  0.0660
15085W        W33832  31.475  24.888  13.066 -0.4031  0.4287 -0.1175
15086W        W33833  28.906  11.778  21.550  0.1908 -0.0626 -0.0850
15087W        W33834  27.159  25.309  17.705 -0.1834  0.0069  0.2782
15088W        W33835  23.800  27.177  18.387  0.0002  0.0322 -0.1685
15089W        W33836  35.321   9.108  13.904  0.0815 -0.0793  0.1274
15090W        W33837  15.247  23.565  10.380 -0.0434  0.0079 -0.1560
15091W        W33838  15.334  11.402  12.779  0.3007  0.1195  0.1241
15092W        W33839  23.178  21.272  25.977  0.0593  0.1939 -0.0523
15093W        W33840   6.466   0.963  11.626  0.1451  0.1238  0.2142
15094W        W33841  20.814   9.328   6.323 -0.0309 -0.3351  0.1743
15095W        W33842  17.439   6.474  20.620 -0.0844  0.2956 -0.2558
15096W        W33843  19.910  28.327   6.656  0.2343 -0.0745 -0.1281
15097W        W33844  11.538  30.713  12.212  0.1095 -0.1965 -0.0815
15098W        W33845  24.607  29.868  13.819  0.0912  0.1844 -0.2233
15099W        W33846   1.860  27.219  21.309 -0.1056  0.0016  0.0251
15100W        W33847   9.012  29.917   3.747 -0.2555 -0.2711  0.3320
15101W        W33848  10.733  17.601   7.137 -0.2150  0.1120  0.0374
15102W        W33849  30.985  19.389  22.013 -0.0743 -0.0140  0.0359
15103W        W33850  14.303  11.923   5.854  0.0761 -0.3371 -0.0499
15104W        W33851  27.743  14.637   6.654 -0.3632 -0.2427 -0.4318
15105W        W33852   8.197  28.579  23.234 -0.0456 -0.0132 -0.2132
15106W        W33853  11.594  16.186  20.420  0.0610  0.1433  0.2462
15107W        W33854  10.245  31.289  22.317 -0.0500 -0.0717  0.0876
15108W        W33855  31.422  14.630  18.092 -0.2305  0.1890  0.1438
15109W        W33856   4.444   5.571   0.567  0.0048 -0.2467 -0.2228
15110W        W33857  14.182   4.855  23.415  0.0353 -0.0361  0.1705
15111W        W33858  13.087  27.971   6.406 -0.0701  0.1556 -0.1644
15112W        W33859   4.754  21.062  19.411 -0.2222  0.1160 -0.0204
15113W        W33860   8.997  21.814  10.299  0.0356 -0.2644  0.1950
15114W        W33861  10.179   5.524   5.477  0.3269 -0.4309 -0.0362
15115W        W33862  12.119  28.049  15.998 -0.1631 -0.1606  0.2724
15116W        W33863  16.059   9.648   9.630  0.2474  0.1499 -0.1001
15117W        W33864  19.596  23.400   3.782  0.1079  0.0120  0.0033
15118W        W33865   8.089  23.435  11.403 -0.2706  0.2585  0.0272
15119W        W33866  20.623   7.947   3.153  0.0118 -0.0526 -0.1130
15120W        W33867  10.124   4.424  10.394 -0.3572 -0.0028 -0.0148
15121W        W33868  16.163  12.123  22.280  0.0197 -0.1792 -0.1771
15122W        W33869  34.177  21.053   6.970 -0.0461  0.0800  0.0399
15123W        W33870  32.283  11.264   0.627  0.0724 -0.2418  0.0779
15124W        W33871  11.466  25.684   9.101 -0.0927 -0.4625 -0.2377
15125W        W33872  28.085  34.999   3.951 -0.0937  0.1655  0.3026
15126W        W33873  22.189  34.721   6.684 -0.1467 -0.0277 -0.1676
15127W        W33874  11.416   6.030   2.414 -0.1013 -0.0232 -0.0223
15128W        W33875  30.187   1.823  17.322 -0.1508 -0.1422 -0.2290
15129W        W33876  14.019  31.544  10.029 -0.1062 -0.2621 -0.2727
15130W        W33877  20.649  10.174   5.064  0.0917  0.2170 -0.0587
15131W        W33878  17.221  30.330  18.860 -0.2583  0.3001 -0.0741
15132W        W33879   5.434  32.691   1.751 -0.1545  0.0022  0.1601
15133W        W33880  33.306  32.597  19.556  0.1682 -0.0995  0.4021
15134W        W33881  24.222  32.810  16.826  0.1222 -0.0019  0.0796
15135W        W33882  11.612   3.298   3.258  0.0029 -0.1464  0.2565
15136W        W33883   6.067   7.291  10.314 -0.3218  0.1669  0.2033
15137W        W33884  15.643  34.046  19.763  0.0191 -0.0184  0.2605
15138W        W33885   8.990  28.962   3.667  0.0524 -0.0524 -0.2051
15139W        W33886  23.991   9.645  21.184 -0.0078 -0.0506  0.2825
15140W        W33887  20.050  13.533  17.096 -0.1618  0.2772 -0.4728
15141W        W33888  20.712  34.953   5.387  0.0633 -0.0393 -0.0302
15142W        W33889  12.183  12.620   2.840 -0.3485 -0.0486 -0.1472
15143W        W33890  18.462  19.634  22.034 -0.0176  0.1063 -0.2120
15144W        W33891  11.109  34.917   0.506 -0.1278  0.0898 -0.3625
15145W        W33892  32.518   0.784  13.559  0.1738  0.1140  0.1409
15146W        W33893  20.576   5.964   3.016  0.4168 -0.3954  0.0811
15147W        W33894   5.012  13.963  25.800 -0.0784 -0.2841 -0.1084
15148W        W33895  24.639  20.298  23.105 -0.0162  0.0765 -0.0735
15149W        W33896  34.390  14.811  13.046  0.0334  0.0498  0.0785
15150W        W33897   9.337  34.144  10.631 -0.3435 -0.1725  0.0859
15151W        W33898  13.976   9.206  11.631  0.1124 -0.2332  0.0764
15152W        W33899  30.597  28.435   2.366  0.0220  0.0086 -0.0719
15153W        W33900  22.568  19.513   1.660 -0.2240  0.0361 -0.1899
15154W        W33901  13.894  28.243  12.554 -0.0176 -0.2404 -0.1695
15155W        W33902  11.591  15.501   9.857 -0.0474  0.2288 -0.2392
15156W        W33903   5.759   0.831   1.876 -0.1079 -0.0081  0.0494
15157W        W33904   6.956  24.039   7.071 -0.2211 -0.0442  0.3864
15158W        W33905  29.383  25.221  20.379 -0.2080 -0.0218 -0.3234
15159W        W33906  25.415  17.320   6.704  0.4565 -0.3133  0.1261
15160W        W33907   7.518  31.497   8.792 -0.1274  0.2586 -0.1739
15161W        W33908  29.352   3.211   0.309 -0.0813 -0.1305  0.1481
15162W        W33909  30.919  20.872  25.443  0.1147  0.1115 -0.4399
15163W        W33910  35.190  28.059   0.099 -0.3533  0.1593  0.2012
15164W        W33911  18.563  13.074   0.707  0.1527  0.0713  0.0686
15165W        W33912  14.494  17.035  24.589 -0.0822  0.0594  0.0949
15166W        W33913  19.559  25.716  22.166 -0.0008  0.0310 -0.1438
15167W        W33914  23.099  10.818  21.487  0.1445  0.0053 -0.1268
15168W        W33915   4.086  18.136   5.090  0.1394  0.1850 -0.2096
15169W        W33916  18.476   2.719   7.759 -0.0570 -0.0688  0.1778
15170W        W33917  30.292   5.702  17.718  0.0458  0.0220  0.0313
15171W        W33918   6.273  13.773   0.793 -0.0028 -0.1717 -0.1607
15172W        W33919  35.045  26.177  18.603 -0.2442 -0.0952  0.4263
15173W        W33920  10.250  15.867   8.764  0.0881 -0.2234  0.2871
15174W        W33921  25.428  19.129   8.424  0.0938  0.0561 -0.1270
15175W        W33922  31.079  33.773  19.479 -0.0941 -0.3742  0.1944
15176W        W33923  28.048  26.524  18.403 -0.0690  0.1992  0.1998
15177W        W33924  24.085   7.373  20.974 -0.2366  0.0152  0.3095
15178W        W33925   8.046  17.748   8.385 -0.0766 -0.2584 -0.2660
15179W        W33926   4.535  28.098  24.433  0.1945  0.2129  0.1373
15180W        W33927  20.668  11.404   4.725  0.2826  0.3360  0.0586
15181W        W33928  11.943  25.405  25.807 -0.1527 -0.0464 -0.0078
15182W        W33929  20.735  25.357   8.702 -0.4050  0.1985  0.1825
15183W        W33930   4.018  19.516  22.294  0.2763  0.1018 -0.3006
15184W        W33931  14.579  16.574   5.355  0.2213  0.0622  0.1138
15185W        W33932  24.326  34.047  11.120 -0.1241  0.2766 -0.1007
15186W        W33933   3.255  19.964  15.873 -0.0721 -0.0684  0.0183
15187W        W33934  15.853  13.855   6.163  0.1972 -0.1806  0.3135
15188W        W33935  31.503  22.913  11.796  0.3157 -0.0378 -0.0962
15189W        W33936  28.626  13.614  13.445 -0.2052 -0.3944  0.1350
15190W        W33937  21.896   0.548  25.156  0.3678 -0.0544  0.0373
15191W        W33938  23.040  23.246   0.057 -0.0879 -0.0898 -0.1749
15192W        W33939  25.949  18.115  13.027  0.1406  0.3504 -0.2317
15193W        W33940  13.724  17.914  25.296 -0.0414 -0.1126 -0.0697
15194W        W33941   9.648  26.846  10.894  0.0459 -0.0283  0.0790
15195W        W33942  26.651  30.151  20.897  0.3109  0.0393  0.1005
15196W        W33943   6.026  14.901  21.360  0.1876 -0.2227 -0.0023
15197W        W33944  30.372  22.232   9.020 -0.1511 -0.0255 -0.0356
15198W        W33945  16.052  11.651   1.423 -0.1903  0.2002 -0.0705
15199W        W33946  30.854  10.437  14.691  0.0148 -0.1336  0.0648
15200W        W33947  28.752  32.039  18.402  0.1670 -0.2674 -0.0878
15201W        W33948   3.870  11.013  17.586 -0.0678  0.0903  0.0120
15202W        W33949  14.593  21.855   1.171  0.2003  0.1256 -0.2768
15203W        W33950   3.187  17.025  13.096 -0.0220 -0.0502  0.1036
15204W        W33951  19.438  31.988  14.802  0.2428  0.2405 -0.1788
15205W        W33952   1.834   5.537  17.926  0.0855  0.1329 -0.1691
15206W        W33953  33.906  23.385  23.390 -0.4244  0.0936 -0.1484
15207W        W33954   4.383  10.761   6.212 -0.0249  0.2092  0.2127
15208W        W33955  11.807  26.138   0.478  0.0408  0.0784  0.0911
15209W        W33956  20.339  30.066  18.990  0.0812  0.2256 -0.4456
15210W        W33957  20.784  20.415  22.278 -0.0636 -0.1282  0.0254
15211W        W33958  22.647   6.034   2.190 -0.0918 -0.0895  0.3429
15212W        W33959  25.987  28.871  21.374 -0.1084  0.1772  0.2140
15213W        W33960  28.906   5.917  10.640 -0.1901 -0.1132 -0.0933
15214W        W33961  33.468  28.019  25.879 -0.2084  0.0953 -0.0029
15215W        W33962  19.600   6.699  24.121 -0.0895 -0.0604  0.0270
15216W        W33963   7.901  25.956   9.805 -0.0748 -0.0127 -0.0636
15217W        W33964  22.237   1.716  24.429 -0.0050  0.2277  0.0211
15218W        W33965   8.285  30.857   7.656  0.0580 -0.1495  0.3205
15219W        W33966   8.743   8.732  20.004  0.1550 -0.0282  0.1079
15220W        W33967  20.464  13.512   6.437 -0.1847  0.0019 -0.0890
15221W        W33968  24.595  25.728  23.666  0.0215 -0.2094 -0.3866
15222W        W33969  34.620   8.017  13.540 -0.0124  0.4435  0.0607
15223W        W33970   1.349  19.706  23.541 -0.2178 -0.3141 -0.0779
15224W        W33971   4.495  26.988   6.928 -0.0600  0.2824 -0.0518
15225W        W33972  29.899  31.053  25.047  0.2382  0.1786 -0.0144
15226W        W33973  33.187  27.710  15.863  0.2405  0.0125  0.0924
15227W        W33974  34.117  31.360  20.570  0.1016  0.1263  0.2949
15228W        W33975   6.569  30.924  11.233 -0.0619  0.2052  0.1065
15229W        W33976  13.656   4.978  23.883 -0.2120 -0.2230  0.0834
15230W        W33977  27.944  32.273   5.698 -0.1705 -0.1101  0.2768
15231W        W33978  27.521  21.296  14.405 -0.2109 -0.1549  0.3654
15232W        W33979  18.916  30.495  19.705 -0.0681 -0.0683  0.3125
15233W        W33980  10.076  32.818   2.626  0.2456 -0.1198 -0.0825
15234W        W33981  12.114   0.411   8.597 -0.0704 -0.1471 -0.2796
15235W        W33982  32.829  32.460   3.453 -0.1818 -0.0490 -0.0489
15236W        W33983  28.250   4.813   5.059  0.1755  0.1525  0.1273
15237W        W33984   0.840   3.098  18.484  0.0512 -0.0452 -0.3519
15238W        W33985   9.244   5.277   0.601  0.0087 -0.0387 -0.1248
15239W        W33986   8.402   6.121  11.444 -0.1549  0.1770 -0.0966
15240W        W33987  17.751  21.010   1.039  0.0696  0.3504  0.0097
15241W        W33988  17.092  23.431   8.724  0.3231  0.1417 -0.1921
15242W        W33989  33.495   9.132  13.785 -0.2143 -0.0905 -0.0165
15243W        W33990  22.927   3.932   2.772  0.3250 -0.1152  0.1883
15244W        W33991  20.738   9.141   1.955  0.0725 -0.1887 -0.0043
15245W        W33992  13.453  34.237   4.378  0.2906  0.0226  0.2066
15246W        W33993  34.329  18.822   9.574 -0.1096  0.1084  0.0862
15247W        W33994   3.528   3.983   0.102 -0.0016  0.0712 -0.2042
15248W        W33995  18.115  35.121   8.727  0.2287  0.1405  0.2526
15249W        W33996   9.594  15.271  23.796  0.0146  0.1803  0.2122
15250W        W33997  18.006   1.264  25.375  0.2184 -0.0078  0.1307
15251W        W33998  15.205  25.403   7.273 -0.0494  0.4812  0.4407
15252W        W33999  11.816   8.924  23.830 -0.4022 -0.1529  0.0699
15253W        W34000  29.093  14.589  12.168 -0.0364  0.2998  0.0626
15254W        W34001  25.240  17.459  25.340 -0.2227  0.0835 -0.2749
15255W        W34002   9.121  10.740   6.496 -0.2566 -0.0311 -0.0995
15256W        W34003  16.983  25.179   7.030  0.0269  0.4226  0.1578
15257W        W34004   7.429  29.290  24.010  0.1589 -0.0978  0.1938
15258W        W34005  13.954   3.121   4.373 -0.0024  0.0420 -0.2666
15259W        W34006  10.269  29.951   1.319 -0.0870  0.2570  0.1694
15260W        W34007  12.094  32.330   0.837 -0.1630 -0.0490  0.0094
15261W        W34008   7.341  10.308   3.342 -0.3603 -0.0425 -0.1147
15262W        W34009  15.410   9.087   0.166  0.0661  0.1859 -0.2002
15263W        W34010  21.290  24.001  17.443 -0.0433  0.2697 -0.2533
15264W        W34011  24.309  17.938  15.082  0.2191  0.0008  0.0671
15265W        W34012  14.923  11.033   6.481  0.1976  0.0099 -0.0927
15266W        W34013  24.115  10.231  14.101  0.1756 -0.3934  0.0029
15267W        W34014   4.755  33.612   3.366 -0.2106  0.1263 -0.2103
15268W        W34015  32.650  15.874   7.184  0.1823 -0.0791 -0.1818
15269W        W34016  27.084   9.509  22.986 -0.0968 -0.0766 -0.0179
15270W        W34017  29.248  24.723  24.912  0.0456  0.3596  0.1030
15271W        W34018  26.895  29.314   0.409  0.1123 -0.2686  0.0473
15272W        W34019  13.898   2.020  21.635 -0.2428 -0.0118  0.0895
15273W        W34020  20.588  16.640  24.206 -0.1489  0.1390  0.0626
15274W        W34021   3.257  31.740  20.745  0.0771  0.0510  0.0184
15275W        W34022   6.753  13.149  19.251 -0.0996 -0.1799  0.4859
15276W        W34023  23.000   0.312  22.369 -0.0728  0.2501 -0.2440
15277W        W34024  11.593  12.531   6.836  0.0014 -0.1661 -0.0384
15278W        W34025   8.970  15.759   1.752  0.2530  0.0704 -0.2242
15279W        W34026  17.399   0.639   1.722 -0.4075  0.0741 -0.1964
15280W        W34027  21.357  17.402  19.758 -0.2124 -0.0364  0.0901
15281W        W34028  10.448   6.190  11.219 -0.1994  0.2125 -0.0598
15282W        W34029   1.888   3.486  16.675 -0.1285 -0.0402 -0.1338
15283W        W34030  19.809  10.911  19.797 -0.1274 -0.0535 -0.1084
15284W        W34031  30.432  21.444  25.037 -0.1526  0.3526  0.2714
15285W        W34032   5.503  13.817   6.951  0.0044 -0.4075  0.2679
15286W        W34033   9.910  12.079  21.812 -0.0173 -0.0922  0.0878
15287W        W34034  12.177   9.257  24.742  0.0438 -0.0797  0.0053
15288W        W34035  17.995  17.674   5.628  0.1346 -0.0167  0.1080
15289W        W34036  13.710  30.105   1.666 -0.0258  0.1564 -0.0038
15290W        W34037  11.512   4.227  12.895 -0.1251 -0.0138 -0.0485
15291W        W34038  32.069  13.600  11.684 -0.4213  0.2612 -0.0585
15292W        W34039  17.610  13.765   2.468  0.3708  0.3936 -0.2088
15293W        W34040   0.454  32.166  25.450  0.1758  0.1076 -0.2626
15294W        W34041   5.123   0.014  25.637  0.1150  0.0749 -0.1495
15295W        W34042  13.802   0.445  23.312 -0.5210  0.1470 -0.0249
15296W        W34043  31.533  22.412   7.565  0.0416 -0.1507  0.0366
15297W        W34044   4.443   0.777  10.330  0.2560  0.1224  0.0277
15298W        W34045  22.279   1.032  15.117  0.2184 -0.2461  0.1314
15299W        W34046  25.086  16.557   9.786  0.0585 -0.0729  0.1362
15300W        W34047  32.168   6.665  13.280  0.2374  0.2103 -0.0594
15301W        W34048  10.609  27.388   4.539 -0.1144 -0.3064 -0.2101
15302W        W34049  24.739   6.529  25.618 -0.0586  0.0903  0.4236
15303W        W34050   3.324  22.282  16.044 -0.3409  0.0626  0.2630
15304W        W34051   3.224  26.095   6.822  0.2116 -0.1316  0.1513
15305W        W34052  16.080  18.062  20.459 -0.1513 -0.2270  0.0528
15306W        W34053  12.868  19.022   3.747 -0.0552  0.0552 -0.1560
15307W        W34054   3.427  30.632  11.120 -0.0402  0.2483 -0.1910
15308W        W34055  33.252  27.261  13.282 -0.2575  0.2193  0.1242
15309W        W34056  14.940  19.404  22.200 -0.1126  0.4903 -0.0034
15310W        W34057  16.276  18.715   8.150  0.2317 -0.1485 -0.0246
15311W        W34058   8.795  33.366   1.523  0.0050 -0.1927 -0.0692
15312W        W34059  20.062  16.206   2.463  0.1620  0.0776 -0.0467
15313W        W34060  27.913  15.524  23.912  0.0385 -0.2241  0.0090
15314W        W34061  29.653   4.017   1.663 -0.0956  0.1102 -0.0434
15315W        W34062  32.210  21.648  11.712  0.1735  0.1327 -0.0898
15316W        W34063  29.239  12.245  22.816 -0.0330 -0.1173  0.0246
15317W        W34064  19.677  17.828   9.241 -0.2054 -0.2919 -0.1161
15318W        W34065  10.786  26.595  15.873  0.0960  0.1458 -0.0004
15319W        W34066  27.282  20.656  12.705  0.0725  0.0292  0.1375
15320W        W34067  22.331   4.083   3.540  0.1414 -0.3007 -0.0426
15321W        W34068  10.811  18.435   9.464  0.1123 -0.0439  0.0616
15322W        W34069  32.349   4.965  16.685  0.0375 -0.2231  0.2758
15323W        W34070  22.608   0.536   3.998  0.0394  0.5018  0.0356
15324W        W34071  16.149  26.630  11.632  0.5588 -0.0123 -0.0268
15325W        W34072   5.210   8.146   6.036 -0.0496  0.0704 -0.1549
15326W        W34073  17.870   7.795   8.097  0.1043  0.3289 -0.0030
15327W        W34074   6.702  16.176  21.949 -0.2180  0.3026 -0.0300
15328W        W34075  10.957   0.381  21.580 -0.1555  0.1408 -0.2256
15329W        W34076  30.586   8.181  20.928  0.1244  0.0655 -0.1329
15330W        W34077   5.367   5.076   9.720  0.1633 -0.2534  0.0037
15331W        W34078  18.421  12.491  22.298 -0.1116 -0.1293 -0.0923
15332W        W34079  11.731  13.797  20.765  0.3410 -0.0322 -0.1320
15333W        W34080  27.450   2.327   4.109  0.2368 -0.2014  0.1640
15334W        W34081   6.989   0.431  24.309 -0.0280  0.2246 -0.1113
15335W        W34082  25.818  16.409  25.942 -0.0161  0.4633  0.4461
15336W        W34083  17.985   5.188   4.147 -0.0432  0.2187 -0.0482
15337W        W34084  33.372  15.989   7.803 -0.1611 -0.2612 -0.1941
15338W        W34085  19.396   5.990  25.210  0.0174 -0.1334 -0.0068
15339W        W34086  21.137   5.956   5.392  0.1255 -0.2147 -0.0699
15340W        W34087  11.402  25.394  22.260 -0.0999 -0.0656 -0.0973
15341W        W34088  15.087  32.636  11.795 -0.0419 -0.2698 -0.1947
15342W        W34089  12.615   4.903   8.788 -0.2205  0.0560  0.1553
15343W        W34090   8.953  22.141  14.963  0.0587  0.1287 -0.2414
15344W        W34091   0.838  28.129   3.800  0.0572 -0.0618 -0.2174
15345W        W34092  28.534  12.637  26.112  0.0873 -0.0521 -0.4096
15346W        W34093   5.415   7.664  22.078 -0.0892  0.2417  0.1233
15347W        W34094   4.931  29.202  24.523  0.0776 -0.2761 -0.0210
15348W        W34095  18.029  11.812   8.441  0.0471  0.0120  0.1253
15349W        W34096  27.238  14.509  24.938 -0.0478 -0.0881  0.0409
15350W        W34097  33.051  35.128  13.433  0.4150  0.3377 -0.1322
15351W        W34098  25.622  23.552   1.431 -0.0464  0.2805  0.4192
15352W        W34099  33.257  24.625  20.098 -0.1446 -0.0375 -0.1621
15353W        W34100  10.296   3.136  20.997  0.0236  0.0069  0.1924
15354W        W34101   2.937  17.392  15.606  0.2195  0.0209  0.2420
15355W        W34102  14.655  33.069   2.119 -0.2333  0.1635  0.0638
15356W        W34103  19.742  12.471   3.621  0.0015  0.0552  0.0095
15357W        W34104  23.704  18.742  20.284 -0.2049  0.0250 -0.1138
15358W        W34105  13.905  29.500   6.483  0.1019  0.1334  0.1352
15359W        W34106  23.110  12.036  23.084 -0.3410  0.0402 -0.1491
15360W        W34107  33.947  24.302  10.940  0.0699  0.1663  0.1420
15361W        W34108  34.026  22.859  19.742  0.3288  0.0427  0.0242
15362W        W34109  23.492  16.309  11.915 -0.1374  0.1683  0.0559
15363W        W34110   3.054  32.382   2.434  0.3159  0.1356  0.2470
15364W        W34111  22.362  30.764   4.648 -0.1211 -0.1352  0.1857
15365W        W34112  28.242  17.395  23.662  0.0360  0.1551  0.4502
15366W        W34113  12.135  12.701  19.607  0.0123 -0.1388  0.0687
15367W        W34114  11.685  17.761  10.371  0.0708  0.2055 -0.0625
15368W        W34115  16.612   0.415  17.336  0.0943  0.0176 -0.1583
15369W        W34116  25.884  14.039   8.687  0.2397  0.1151 -0.1761
15370W        W34117  27.381   9.627  22.422 -0.1350  0.0926 -0.0230
15371W        W34118  15.568  15.395  13.550  0.2591  0.2956 -0.2058
15372W        W34119  22.104  11.893   2.382 -0.2711 -0.1633 -0.1381
15373W        W34120  18.284  13.759  17.938 -0.0125  0.1534 -0.0253
15374W        W34121  26.687   9.521   1.510  0.0232 -0.3913  0.1786
15375W        W34122  18.574  24.159   2.908 -0.2970  0.0092 -0.0562
15376W        W34123  31.449   6.424  17.402 -0.1951  0.0040 -0.0444
15377W        W34124  33.444  30.747  25.907 -0.2822  0.2100 -0.0635
15378W        W34125   3.129  20.046  13.550  0.0667 -0.0001 -0.2070
15379W        W34126   2.779  27.387   0.764 -0.4645  0.0545 -0.2617
15380W        W34127  18.360  27.500  26.098  0.0999  0.0906 -0.1199
15381W        W34128  31.778  13.670  12.823  0.2348  0.1084  0.2423
15382W        W34129  16.645  14.298   2.126 -0.0876  0.1853  0.1356
15383W        W34130  31.738  17.169   7.126  0.0629 -0.0883 -0.0594
15384W        W34131  29.345   2.583  22.448 -0.0269  0.1076 -0.0477
15385W        W34132  24.715  11.025  16.088  0.0912 -0.0013 -0.2415
15386W        W34133   1.557  14.172  13.621 -0.2587 -0.0109 -0.1184
15387W        W34134   6.468  27.982  20.972 -0.0517  0.3291 -0.1092
15388W        W34135  33.764   5.096  21.067 -0.2070 -0.1836  0.3069
15389W        W34136  15.565  27.456   8.728 -0.1468  0.0597  0.4083
15390W        W34137   7.762   3.612   7.922  0.0342  0.1482 -0.1829
15391W        W34138  33.053  26.763   3.972 -0.1657 -0.0746 -0.1428
15392W        W34139  29.039  17.240  24.899  0.0138  0.1346  0.0038
15393W        W34140  17.515  25.638   0.889 -0.0427  0.2608 -0.1094
15394W        W34141  19.130  16.122  23.344 -0.0461 -0.0928  0.4058
15395W        W34142  21.923  10.083   7.594 -0.5222 -0.1640 -0.0750
15396W        W34143   8.256  20.637  23.899  0.2402  0.0152 -0.2593
15397W        W34144   8.980   2.089  21.067  0.0991 -0.2220 -0.2924
15398W        W34145  21.901   6.190  23.836 -0.4257 -0.2288  0.1569
15399W        W34146  26.580   4.166   0.044 -0.0011  0.0680 -0.2851
15400W        W34147  17.421  30.041  23.606  0.0410  0.0010  0.1197
15401W        W34148  14.894   5.599  24.031 -0.0785 -0.4888  0.1149
15402W        W34149  16.121   5.824   5.907  0.0822 -0.0814 -0.1114
15403W        W34150  22.846  27.020  17.448 -0.0427 -0.0699 -0.1661
15404W        W34151  25.867  11.645  11.206  0.0247  0.0481 -0.0208
15405W        W34152   3.944  32.728  24.945 -0.0253 -0.1636  0.3596
15406W        W34153   0.226   0.739  24.049 -0.1590  0.0972 -0.0903
15407W        W34154   3.366  23.080  18.849  0.1204  0.1340 -0.3359
15408W        W34155   2.353  31.513  18.256 -0.0539  0.1946 -0.3251
15409W        W34156  28.647   1.913   1.360  0.1679  0.0694  0.0694
15410W        W34157   6.603   8.538  22.112  0.1049  0.1708  0.2481
15411W        W34158   5.801  29.544  21.608  0.2700  0.0476 -0.0993
15412W        W34159  21.597  25.731  24.198 -0.7128 -0.0592  0.2180
15413W        W34160  18.068  30.415  21.877  0.0466  0.0895 -0.0403
15414W        W34161   4.238  12.504  22.950  0.3006  0.1980  0.3286
15415W        W34162   7.456  16.249   6.150  0.0767 -0.1791 -0.1459
15416W        W34163   2.871   4.743   0.069  0.3736 -0.0671 -0.4728
15417W        W34164   0.378   9.123   2.225  0.2313 -0.0913  0.0330
15418W        W34165  16.034   7.299   9.295 -0.0718 -0.0108 -0.1389
15419W        W34166  13.555   6.328  12.934 -0.1574  0.0026  0.0059
15420W        W34167  24.593   3.552  12.994  0.1231  0.0658  0.2576
15421W        W34168  24.254  20.038  23.402  0.0870 -0.0179 -0.0004
15422W        W34169  19.007   7.543  24.368 -0.0829 -0.0068  0.2963
15423W        W34170  16.436  18.015   4.888 -0.1057  0.0353  0.1418
15424W        W34171  20.649  21.801   6.834 -0.0738 -0.0465 -0.1424
15425W        W34172  11.346   4.631   1.923 -0.0840  0.0816  0.3104
15426W        W34173   3.635  25.106  26.025  0.0202  0.1486  0.1383
15427W        W34174  16.551   4.112   5.969 -0.0232 -0.3027  0.1559
15428W        W34175   8.058  11.705   5.725 -0.0370  0.1084 -0.0683
15429W        W34176  22.550  12.296  25.516  0.0672  0.2263  0.0331
15430W        W34177   8.641  23.642   1.683  0.2161 -0.0591 -0.2047
15431W        W34178   8.351  34.993   3.540 -0.0981 -0.0999  0.1386
15432W        W34179  32.133  24.966  19.445 -0.0031 -0.0281  0.0294
15433W        W34180  30.503  22.800   8.904  0.1613 -0.1913 -0.3333
15434W        W34181  29.261  19.710  20.187 -0.0236  0.1296  0.0587
15435W        W34182  13.000  16.496   4.620 -0.0334 -0.0557  0.0092
15436W        W34183   1.038  10.762  14.575 -0.3329 -0.1762  0.5996
15437W        W34184   6.283   3.758  25.275 -0.2678  0.2799  0.0179
15438W        W34185  11.384   1.225  24.577  0.1435  0.3404  0.1782
15439W        W34186  29.096  18.978   9.405  0.0945  0.0819  0.0094
15440W        W34187  23.324  22.677   0.579  0.2586 -0.2398 -0.0714
15441W        W34188  23.614   0.912  23.997 -0.2061  0.1359 -0.0649
15442W        W34189  15.293  34.148   6.943 -0.1205 -0.1503  0.1917
15443W        W34190  25.814  34.797  23.976  0.0427 -0.0054  0.2027
15444W        W34191  29.037  23.783  19.155  0.0292 -0.2220  0.0448
15445W        W34192  32.495  17.051  18.198  0.0624 -0.1884  0.0260
15446W        W34193  34.570   3.488   4.792 -0.3142  0.0101 -0.0111
15447W        W34194  14.189   8.129   4.427  0.3441  0.1143  0.0142
15448W        W34195  35.290  34.585  14.759 -0.1868  0.3853 -0.1051
15449W        W34196  28.928   0.837   1.302  0.0074 -0.1713 -0.0966
15450W        W34197   4.289  17.501  22.070  0.0736 -0.0784 -0.1102
15451W        W34198   3.619  26.511  20.259  0.1223  0.1345  0.5846
15452W        W34199  33.875   2.013  15.860  0.0894 -0.2688 -0.0045
15453W        W34200  26.411  27.780  26.188 -0.0396 -0.1446  0.1459
15454W        W34201  14.452  14.242   5.673  0.1196  0.1748  0.1694
15455W        W34202  18.191  27.776   1.649 -0.1881  0.3692 -0.1088
15456W        W34203  14.046  21.579   9.027  0.2099  0.0411 -0.1648
15457W        W34204   0.395  31.585  25.372 -0.4322  0.2942  0.0124
15458W        W34205  22.665   5.874   4.551  0.0453  0.1063  0.0103
15459W        W34206  12.698   0.314  25.997  0.2754 -0.0711 -0.2239
15460W        W34207  31.074   9.260  15.088  0.0774  0.0626  0.0736
15461W        W34208   5.231   2.048   3.217 -0.0763 -0.0312  0.3082
15462W        W34209  28.832  15.609  14.170 -0.0344  0.2186  0.0692
15463W        W34210  13.930  15.992   9.259  0.5061 -0.2915 -0.4019
15464W        W34211  13.868  23.172   2.197 -0.0949  0.2797 -0.0046
15465W        W34212  26.063   8.145   0.571  0.1408  0.0545 -0.2488
15466W        W34213  11.178   2.300  23.461  0.0769 -0.3541 -0.1492
15467W        W34214  10.288   5.574   3.367  0.0042  0.2100  0.3044
15468W        W34215   8.291  35.301   1.658  0.0499  0.1192  0.0514
15469W        W34216  19.035  17.021  18.758  0.1635 -0.1562 -0.0290
15470W        W34217   4.449  21.482  25.824  0.2441  0.1779  0.0123
15471W        W34218   4.498  27.382   0.478 -0.1385 -0.3370 -0.1797
15472W        W34219  17.789   6.801  25.495 -0.0308  0.4533 -0.2196
15473W        W34220   1.931  27.467   8.812  0.0237  0.0187  0.2505
15474W        W34221  23.514  28.600  14.395 -0.2046 -0.1097 -0.1620
15475W        W34222  14.831  23.969   6.519  0.0496 -0.3026  0.0226
15476W        W34223  21.999   6.256   3.449 -0.5905  0.3667  0.2485
15477W        W34224  30.844  20.242   3.898 -0.2354  0.0338  0.0611
15478W        W34225  31.675  29.878   4.016 -0.0742  0.0512 -0.0846
15479W        W34226  11.649   7.056   3.446  0.0888  0.4064 -0.1143
15480W        W34227   3.712   9.268  23.834 -0.0051  0.2555 -0.2098
15481W        W34228  22.083   5.379   1.777 -0.0790  0.0912  0.0906
15482W        W34229  30.436  22.415  21.509  0.0001 -0.0415  0.1108
15483W        W34230  19.015  33.034   4.758  0.1370  0.1007 -0.3650
15484W        W34231  15.207  18.921   4.626  0.1866  0.2331  0.1168
15485W        W34232  34.736  13.180  22.151 -0.2252  0.3974  0.1183
15486W        W34233  16.789  27.084  25.491  0.0108  0.1470 -0.3683
15487W        W34234   5.262  24.902   0.554  0.2245  0.0013  0.1212
15488W        W34235   6.537   4.067  10.989 -0.0638 -0.0748 -0.0087
15489W        W34236  25.090  12.902  20.464 -0.0323 -0.0253 -0.3936
15490W        W34237   5.561  30.296   0.262 -0.0050  0.1821 -0.2293
15491W        W34238  28.026   1.272  23.974 -0.1328 -0.1989 -0.1337
15492W        W34239   9.852  14.810   2.962  0.2381 -0.1101  0.2628
15493W        W34240  26.626  29.263  20.330 -0.2412 -0.1725 -0.0611
15494W        W34241  18.007  26.530   5.070  0.0137 -0.0430  0.2378
15495W        W34242   3.191   3.590  21.119 -0.0256  0.3114  0.3685
15496W        W34243  16.078   5.617  11.318  0.2223  0.0133 -0.1413
15497W        W34244  27.537  21.498  12.843 -0.3516 -0.0890 -0.2269
15498W        W34245  28.606   9.026  22.440 -0.1016  0.1417  0.1408
15499W        W34246   3.133   4.455  25.616 -0.0452  0.1495 -0.2282
15500W        W34247  30.347  24.299  19.071  0.2246  0.0701  0.2028
15501W        W34248  12.670  28.832  12.038  0.0325  0.5088  0.2487
15502W        W34249  18.830  20.256   4.066  0.2706 -0.1667 -0.0422
15503W        W34250  24.698  25.005  22.156  0.2331 -0.0881  0.1525
15504W        W34251  35.004  19.489  15.815 -0.2989 -0.1742 -0.1531
15505W        W34252   1.287  15.941  20.770  0.0172  0.0329  0.0112
15506W        W34253  23.688  29.549  14.990  0.0080 -0.1390 -0.2472
15507W        W34254   4.076  35.079  25.977 -0.0428  0.1961  0.1061
15508W        W34255   3.558  31.290  24.291 -0.1080  0.1368 -0.0521
15509W        W34256  13.659  16.930   7.078  0.1274 -0.3610 -0.1075
15510W        W34257   2.635   2.162  19.057 -0.1664 -0.0723 -0.2255
15511W        W34258  11.263  14.569   7.636  0.2484 -0.2970  0.0955
15512W        W34259  35.181  19.604  13.942  0.3507 -0.3209  0.0497
15513W        W34260  10.333   8.432  20.947  0.0706 -0.0535 -0.2513
15514W        W34261  29.685  13.303   6.100  0.2874 -0.0647 -0.0245
15515W        W34262   4.365  33.457  10.470  0.0277  0.1037  0.0963
15516W        W34263  10.772   9.861   4.139  0.0329 -0.0328  0.1412
15517W        W34264  18.945  27.009  21.649 -0.2842  0.0019 -0.1712
15518W        W34265  31.002   1.764  25.549 -0.0694 -0.1193  0.0387
15519W        W34266  30.869  34.754  13.012  0.0514  0.2626 -0.1911
15520W        W34267  29.183  23.037   0.046  0.2478 -0.2097 -0.0949
15521W        W34268  25.953   9.871  20.590 -0.1912  0.2479  0.0560
15522W        W34269  11.385  35.079   6.563  0.1202  0.0144 -0.1646
15523W        W34270   1.755  29.898   3.464  0.2587  0.0559 -0.0243
15524W        W34271  28.148  16.532  22.267 -0.0712  0.3152 -0.1070
15525W        W34272   1.186   2.385   3.017 -0.1397  0.3512  0.0819
15526W        W34273  15.006  28.686   6.018  0.0085 -0.1489  0.1180
15527W        W34274  12.085  18.646  26.153  0.0862 -0.1721 -0.1827
15528W        W34275  31.055  32.503  16.669 -0.1297 -0.0088 -0.2268
15529W        W34276  11.960  33.888  14.363 -0.0620 -0.0503 -0.0910
15530W        W34277  18.123  20.252   9.633  0.0407  0.0967  0.3989
15531W        W34278  33.358  14.660   0.640 -0.0262  0.1111  0.4031
15532W        W34279   2.093   4.419   1.220  0.1997  0.2178 -0.1927
15533W        W34280  14.252   3.769  22.584  0.0528  0.2822  0.2213
15534W        W34281   8.086   0.345  20.266  0.0448 -0.0183 -0.1270
15535W        W34282   9.707  29.671   9.213  0.0634  0.2848  0.0156
15536W        W34283  15.959  20.522   9.013 -0.1485 -0.2683 -0.2263
15537W        W34284   4.223   4.182   5.809  0.1341  0.2659 -0.1205
15538W        W34285  14.292   7.021  11.649 -0.4246  0.0981 -0.0335
15539W        W34286  27.683   2.852  23.248  0.1040  0.3853 -0.3536
15540W        W34287  17.033   2.988   9.720  0.0669  0.0767 -0.0670
15541W        W34288  14.745  33.108   9.943 -0.1250  0.1425  0.0039
15542W        W34289  26.996   9.398  16.600  0.0904 -0.2934  0.0176
15543W        W34290  13.252  14.793  19.461  0.2150 -0.0547  0.0097
15544W        W34291  18.414  25.672  10.184  0.1745 -0.2432 -0.1971
15545W        W34292  28.892  13.562  21.166 -0.1034 -0.0488  0.2086
15546W        W34293  25.970   6.059  13.816  0.2318 -0.0386  0.3952
15547W        W34294   5.971   4.409  21.234 -0.1565  0.0809 -0.1184
15548W        W34295   7.976   2.544   2.669 -0.1060  0.0898 -0.1544
15549W        W34296   2.372   5.056  16.572 -0.2462  0.0803 -0.0459
15550W        W34297  29.825  31.189  15.636 -0.0954  0.0171  0.0577
15551W        W34298  25.409  28.756  25.682 -0.2345  0.0046  0.0937
15552W        W34299  17.671  29.777   2.260 -0.0835  0.0342 -0.0057
15553W        W34300  20.553   8.402  23.067 -0.0259 -0.0495 -0.1865
15554W        W34301   6.578  18.461   5.906 -0.1485  0.2708  0.0024
15555W        W34302  31.354  25.742  20.533  0.0446  0.2144 -0.2033
15556W        W34303  25.349  31.631   5.313  0.0095 -0.0494 -0.0744
15557W        W34304   8.170   9.292  26.161 -0.1857  0.0469  0.0571
15558W        W34305  18.520   8.264   0.235 -0.0154  0.1299  0.0132
15559W        W34306  32.650  17.263  22.593 -0.2723 -0.1824 -0.5456
15560W        W34307  35.007  13.517  10.200 -0.2716 -0.1445  0.1141
15561W        W34308  23.566   4.007   7.042  0.0107 -0.0749 -0.1199
15562W        W34309  18.370   8.441  11.046 -0.0188 -0.3608  0.2282
15563W        W34310  35.383  26.169  22.140 -0.1915 -0.1187 -0.0766
15564W        W34311   6.829  19.771   6.703 -0.0504  0.1503  0.2217
15565W        W34312  32.911  33.782   1.260  0.0918 -0.0977 -0.2016
15566W        W34313  17.771  25.496   7.601  0.1411 -0.0388 -0.0029
15567W        W34314  15.346  11.802  21.732  0.0304 -0.0452 -0.0484
15568W        W34315  30.911  32.033   2.889 -0.0567 -0.2882  0.0094
15569W        W34316  12.380  28.618   5.980  0.3075 -0.1306  0.0166
15570W        W34317  23.995  34.120   3.115 -0.0101 -0.2604 -0.1136
15571W        W34318   0.944   5.770   0.267 -0.0622 -0.0975  0.2716
15572W        W34319  32.853  10.549  14.308  0.1817  0.0992  0.0247
15573W        W34320  24.116  19.580  20.214  0.0484 -0.2879  0.0593
15574W        W34321   1.242  25.110   1.559 -0.0189 -0.3342  0.0047
15575W        W34322  11.853  22.941  13.202 -0.1549 -0.1322 -0.1618
15576W        W34323  29.305  20.595   7.695  0.2866 -0.1002 -0.1637
15577W        W34324  35.069  29.958   4.980  0.1707 -0.0501  0.0144
15578W        W34325   3.102  10.772  15.503 -0.0782 -0.1221  0.2030
15579W        W34326  10.943   7.266   7.905 -0.0012 -0.0671 -0.0519
15580W        W34327  27.179  19.213  12.902  0.1444 -0.1256  0.1584
15581W        W34328   3.523  22.694  24.352  0.0274  0.0240  0.0605
15582W        W34329  33.597   6.760  14.989 -0.0967 -0.1775 -0.3234
15583W        W34330  26.176  33.916  12.922 -0.0518 -0.2356 -0.0810
15584W        W34331  26.526   5.529  18.296 -0.0513  0.0501 -0.2217
15585W        W34332  32.545  18.778  25.308 -0.0592  0.2527  0.3992
15586W        W34333   7.714  29.989  10.134  0.1530 -0.1780  0.1713
15587W        W34334  34.784   7.533  18.550  0.0344  0.5218 -0.2303
15588W        W34335  11.060  16.520  13.498  0.0686 -0.1282 -0.0040
15589W        W34336  33.242  33.710  19.153 -0.2258 -0.0565 -0.0341
15590W        W34337  10.186  25.503   1.687 -0.1805  0.1889  0.2394
15591W        W34338   4.390  11.811  20.962  0.0201  0.1169  0.2091
15592W        W34339   6.797  25.126  24.755 -0.2345 -0.3277  0.4182
15593W        W34340  14.154  34.781   4.676 -0.1520 -0.0797 -0.2066
15594W        W34341  11.996  12.100   9.718  0.2040 -0.0978 -0.2483
15595W        W34342  24.729  15.468  12.754  0.1348  0.0217 -0.0940
15596W        W34343  29.555   7.121  13.888 -0.0300 -0.0585 -0.4233
15597W        W34344  17.368  32.063   8.802 -0.0149 -0.1005  0.0272
15598W        W34345  14.288   0.775  21.712 -0.0583  0.1205  0.0636
15599W        W34346  10.249  28.529  13.698 -0.2675  0.5027 -0.1815
15600W        W34347   0.115   2.400  12.892 -0.1226  0.0298 -0.0560
15601W        W34348  21.074  33.426  15.158 -0.1669 -0.3668  0.0118
15602W        W34349  18.259  22.772  10.336  0.0897  0.0929 -0.0185
15603W        W34350  29.303  15.642  10.817  0.0169 -0.0704 -0.1856
15604W        W34351   8.933   2.869  26.162 -0.0036  0.0385  0.0365
15605W        W34352  29.285   8.051  11.625  0.0870  0.0420 -0.1010
15606W        W34353  20.284   9.838  19.701  0.2463 -0.2795  0.0782
15607W        W34354  30.176   1.706  13.034 -0.2136  0.1115 -0.0252
15608W        W34355  22.011  27.710  25.442  0.0057 -0.3126  0.0520
15609W        W34356  19.653  17.952  25.127  0.0922  0.1614 -0.1788
15610W        W34357  19.709  12.790   2.632 -0.3417 -0.1827  0.2425
15611W        W34358  10.466  23.911  17.570 -0.2322  0.1550  0.0773
15612W        W34359  29.361   1.059   1.991  0.2285  0.2129  0.0459
15613W        W34360  31.913  22.579  21.991 -0.1367 -0.1972 -0.1725
15614W        W34361  34.387  12.863  23.802  0.2349 -0.1092 -0.4974
15615W        W34362  25.096  13.627  25.577  0.4266 -0.1038 -0.1602
15616W        W34363   1.918  30.908   5.061  0.1529  0.4039 -0.0483
15617W        W34364   0.433  35.097  24.945 -0.0713  0.1469  0.3613
15618W        W34365   8.513  10.682   3.724  0.1632  0.0501 -0.0923
15619W        W34366   1.227   1.881   6.969  0.2097  0.0005 -0.2118
15620W        W34367  34.826  17.173  22.159 -0.4075 -0.3740  0.4222
15621W        W34368  13.758   7.244  19.219 -0.2460 -0.1380 -0.2904
15622W        W34369  11.155   4.970   8.483 -0.1322  0.0075 -0.2897
15623W        W34370  29.960  19.780  18.279  0.4170 -0.0279 -0.0694
15624W        W34371   6.303  17.460   2.065  0.1718  0.3296  0.0768
15625W        W34372  31.480   9.825  23.764  0.2883 -0.4688 -0.1235
15626W        W34373  15.424  11.943   0.921 -0.0678  0.1363  0.0014
15627W        W34374   6.524   0.781  23.613  0.1941 -0.1033  0.1099
15628W        W34375  10.708  30.153   9.697 -0.0768 -0.2551 -0.2780
15629W        W34376   5.413  24.923   6.724 -0.0555 -0.0429  0.0793
15630W        W34377  20.737  19.718   0.836  0.0146  0.2056 -0.1916
15631W        W34378  15.007   1.943  12.067 -0.1391 -0.0974  0.0728
15632W        W34379  30.539  12.995  16.419  0.4385 -0.2865 -0.2249
15633W        W34380   3.104  13.573  25.944 -0.0861  0.1048  0.1795
15634W        W34381  12.334  23.000   8.952 -0.1047 -0.1172 -0.0452
15635W        W34382  10.558  13.557  19.210 -0.4225 -0.2167  0.2046
15636W        W34383  19.613   5.779  19.923 -0.0344  0.1064 -0.1347
15637W        W34384  28.198   1.825  15.951  0.2225 -0.0470  0.2181
15638W        W34385  29.891   6.396  13.098  0.0723  0.0638 -0.0704
15639W        W34386  31.373  27.516   3.382  0.3728  0.0757  0.3231
15640W        W34387  19.745  23.196   0.370 -0.1868 -0.1338 -0.3665
15641W        W34388  21.203  20.620  18.958 -0.1239 -0.1266  0.0388
15642W        W34389  11.290  34.862   4.403  0.0895 -0.0119  0.4976
15643W        W34390   5.815  17.521  20.163  0.1542  0.0313 -0.0175
15644W        W34391  23.857  20.478  19.904 -0.0009  0.0255  0.1270
15645W        W34392  25.566  11.550  17.123 -0.3984 -0.2582 -0.2449
15646W        W34393  15.909  13.238   4.262 -0.0275 -0.2493 -0.1034
15647W        W34394  31.631   6.297  20.367  0.1604  0.0330  0.0621
15648W        W34395  23.345   3.284  21.480  0.1142  0.2003 -0.0231
15649W        W34396  21.245  35.012  23.136 -0.0429  0.0111 -0.2330
15650W        W34397   7.132  17.207   1.705 -0.1853 -0.2781  0.1798
15651W        W34398   7.855   9.585  10.380  0.3386 -0.1269 -0.1822
15652W        W34399  27.995  22.985   9.135  0.0087 -0.0911 -0.0506
15653W        W34400   1.449  10.444  24.289 -0.2249  0.2129 -0.3488
15654W        W34401  20.508  21.223   2.505 -0.1161  0.1866 -0.2540
15655W        W34402  11.764  31.388  25.970  0.0265  0.1610  0.1239
15656W        W34403  20.149  18.973  24.019  0.2162  0.2484 -0.0408
15657W        W34404  26.824   9.680   8.145 -0.1154  0.0916  0.1880
15658W        W34405   5.051  32.275   4.445 -0.0792  0.0940  0.3053
15659W        W34406  31.868   8.504  20.077  0.0804  0.1411  0.0202
15660W        W34407  18.334  20.562  11.006 -0.0280  0.3303  0.1691
15661W        W34408  33.102  13.221  21.799 -0.0027  0.1291  0.1008
15662W        W34409  29.456  11.819  10.506 -0.0875  0.1916 -0.1239
15663W        W34410  27.889  12.688  11.445 -0.0733  0.0624 -0.2564
15664W        W34411   0.098  12.116  23.501  0.3645 -0.0537  0.1069
15665W        W34412   7.184  33.619   1.294  0.2985 -0.1590 -0.3407
15666W        W34413  24.939  31.429  15.518 -0.3332 -0.0691  0.1953
15667W        W34414  16.538  21.876  21.609 -0.0571  0.0168  0.1105
15668W        W34415  29.486  16.719   9.980 -0.0959 -0.1510  0.2489
15669W        W34416  17.583  33.085  19.192 -0.2018  0.1663  0.0399
15670W        W34417  18.767  21.488  10.729  0.2229 -0.0994  0.0306
15671W        W34418  29.681  14.166   5.211  0.1160 -0.1094 -0.1920
15672W        W34419   7.474   1.065  10.123  0.3195  0.0693  0.1170
15673W        W34420   8.165  10.795   2.363 -0.1027  0.0868 -0.0505
15674W        W34421   8.668  15.239  11.200 -0.1209  0.0571  0.0185
15675W        W34422  21.647   1.109   5.908  0.3306  0.0539 -0.0862
15676W        W34423   3.689  30.338  25.758 -0.1772 -0.0403  0.2009
15677W        W34424  34.154  20.795  18.912  0.2962 -0.1534  0.0087
15678W        W34425  20.120   5.293   9.653  0.0177  0.2050  0.3182
15679W        W34426  16.543  11.323   0.002  0.0311  0.2257 -0.1595
15680W        W34427   2.066  22.346  23.330  0.1512  0.3488  0.1756
15681W        W34428  34.496  32.327   2.092  0.3208 -0.1673  0.2360
15682W        W34429  19.444  21.412  21.110  0.0279 -0.2301 -0.0682
15683W        W34430   9.669   4.351   3.612  0.2664  0.1299  0.1188
15684W        W34431  19.478   9.458   0.982  0.1082 -0.0470  0.0060
15685W        W34432  34.950  14.303  14.285  0.0574  0.2170 -0.0059
15686W        W34433  23.364  27.294  22.683 -0.0531  0.3668 -0.2305
15687W        W34434  13.412  28.817   8.258 -0.1777  0.1367 -0.0041
15688W        W34435  20.753  16.934  25.269  0.0981 -0.1511  0.1736
15689W        W34436  35.008   4.147   7.202  0.0060 -0.1527  0.1808
15690W        W34437  10.408  21.590  13.936 -0.1314 -0.1173  0.2323
15691W        W34438   4.322   2.587   1.477 -0.1343 -0.0596  0.2613
15692W        W34439  31.042  21.729  10.229 -0.1038 -0.0300  0.1464
15693W        W34440  31.182  27.916  18.406 -0.2047  0.0471 -0.2360
15694W        W34441  26.242  28.749   1.186  0.1320 -0.0323 -0.0201
15695W        W34442  28.510   8.377  21.046 -0.0368  0.0843 -0.3591
15696W        W34443   9.219  22.079   6.907 -0.0119  0.3214  0.0326
15697W        W34444  34.045  28.785   0.045  0.2174 -0.2252  0.0658
15698W        W34445  12.297  24.180  11.451  0.0005 -0.2672  0.0734
15699W        W34446  26.153  27.700   3.715  0.0835  0.0942  0.0794
15700W        W34447  32.469  15.356  23.021  0.1417 -0.0054 -0.3242
15701W        W34448  17.939   3.272  22.893  0.1511  0.1207 -0.1327
15702W        W34449  19.163  25.955  25.054  0.0108 -0.5104  0.2562
15703W        W34450  17.602  11.298   6.677  0.1187 -0.1959  0.1251
15704W        W34451   4.930   1.305  19.874 -0.2770 -0.1449 -0.0746
15705W        W34452   0.555  13.086  10.352  0.1798 -0.0690  0.2779
15706W        W34453  33.852  15.396  19.747 -0.0446  0.1692 -0.1206
15707W        W34454  34.521  13.566  11.743 -0.1027  0.1901 -0.2009
15708W        W34455  15.371   6.746  10.973  0.0587 -0.2418 -0.1837
15709W        W34456  27.516  12.963  21.776 -0.2901 -0.1219  0.1164
15710W        W34457   9.538  32.660   0.191  0.3816  0.2093 -0.0866
15711W        W34458  33.977  19.929   0.830 -0.0226 -0.0773 -0.1301
15712W        W34459  12.153  22.327   7.171  0.2792  0.0062 -0.0708
15713W        W34460  26.423  27.141  21.767 -0.0231  0.2684  0.1523
15714W        W34461  31.714   9.799  12.857 -0.0228 -0.0136 -0.1236
15715W        W34462  13.390  23.274  13.740  0.0430  0.1276 -0.3988
15716W        W34463  32.981   7.668  21.444  0.1372 -0.0359  0.1856
15717W        W34464  14.592  23.111  16.438  0.0726 -0.2196 -0.0327
15718W        W34465  31.045   6.862  14.998  0.1984 -0.0079  0.0445
15719W        W34466  31.525   3.339   7.203 -0.2073 -0.2576  0.4411
15720W        W34467  13.550  22.616   6.721 -0.2133  0.1659 -0.0939
15721W        W34468   0.647  25.673   3.828  0.1032 -0.3768 -0.0348
15722W        W34469  35.301  22.915  24.481 -0.4432 -0.2331  0.3113
15723W        W34470  12.322  28.473   9.210  0.1415  0.4910 -0.3509
15724W        W34471  15.494   4.076   5.740  0.1861  0.2726  0.0056
15725W        W34472  29.702  30.404   2.168  0.0771 -0.0521 -0.0680
15726W        W34473  12.108  22.586   1.271  0.1283 -0.0633  0.0779
15727W        W34474  34.351  10.424  17.877 -0.2703 -0.3043  0.3043
15728W        W34475  23.810  12.067  16.665 -0.0821  0.0027  0.2014
15729W        W34476   6.222  25.526  26.229 -0.0635  0.1615  0.0081
15730W        W34477  30.610  15.175  16.684 -0.0697 -0.1463 -0.0025
15731W        W34478  34.934   6.318  16.263  0.1302 -0.0343  0.0675
15732W        W34479  14.400  19.684   0.658  0.0951 -0.1838 -0.2606
15733W        W34480  18.040   7.845   1.853 -0.2250  0.0466  0.2399
15734W        W34481  21.758  28.290  12.875 -0.0173 -0.2299  0.1116
15735W        W34482  33.248   3.600  15.667 -0.1915  0.2009 -0.1144
15736W        W34483  10.700  22.056  25.984 -0.0993  0.2885 -0.2811
15737W        W34484   5.041   1.616   5.718 -0.3941  0.0078  0.0440
15738W        W34485  23.146  15.737  24.399  0.0937  0.1440 -0.4080
15739W        W34486  20.966   6.332  20.936  0.4841 -0.0704 -0.6046
15740W        W34487  29.573  16.051  16.780 -0.2794  0.3529  0.2534
15741W        W34488  31.653  16.439  19.400 -0.3011 -0.0841 -0.3773
15742W        W34489  20.996  21.458   6.860 -0.1579  0.1304  0.3498
15743W        W34490  10.178   5.635  21.440  0.1154 -0.1402  0.0183
15744W        W34491  29.604  13.733  21.463 -0.1632  0.2099  0.1702
15745W        W34492  19.952  28.028  19.741 -0.0327 -0.0916  0.2034
15746W        W34493  21.555   7.718  19.291  0.1464  0.1044 -0.1794
15747W        W34494  28.106   5.194  23.271 -0.4105  0.3200 -0.0015
15748W        W34495   9.303  24.255   9.292  0.0170  0.1377  0.1531
15749W        W34496   7.671  22.902   4.524 -0.1999  0.0135 -0.1081
15750W        W34497  11.536  30.264   9.842  0.3897 -0.1350 -0.0753
15751W        W34498  15.148  18.764  23.287  0.0513  0.0890 -0.0443
15752W        W34499   3.025  16.322  25.131 -0.2919  0.1632 -0.5693
15753W        W34500   7.867  35.079   2.839  0.0788 -0.1586 -0.1325
15754W        W34501  13.105  26.175   4.922 -0.0048  0.2578 -0.0626
15755W        W34502  31.138   0.646   6.183 -0.2556 -0.0532  0.1604
15756W        W34503   2.104  15.317  24.596  0.0463  0.0075  0.0625
15757W        W34504  25.100  24.709  19.787 -0.0271  0.1273  0.3424
15758W        W34505  14.110   6.194   5.413 -0.2951  0.0136  0.0105
15759W        W34506  30.386  21.463  21.774  0.1619  0.2615 -0.1533
15760W        W34507  10.900  14.684  19.710  0.0266 -0.1271  0.3027
15761W        W34508   4.057  13.908  26.119  0.0949 -0.3015 -0.0914
15762W        W34509  25.148  11.256  15.864 -0.1900  0.0547  0.0358
15763W        W34510  24.969   2.865  24.306  0.2728  0.0320 -0.2974
15764W        W34511  30.116   7.092  10.129  0.1076  0.4816  0.0409
15765W        W34512  16.968  30.023  10.660 -0.1268  0.2439 -0.0202
15766W        W34513  11.405  12.188   5.240  0.0621 -0.0294  0.1850
15767W        W34514   8.596   6.486  25.082  0.2490 -0.2770  0.2338
15768W        W34515  25.391   5.946   1.775 -0.3753 -0.0001  0.2761
15769W        W34516   4.768  15.713   1.451 -0.0938 -0.1817  0.0360
15770W        W34517  20.611  11.289  17.736  0.0856 -0.1521 -0.1832
15771W        W34518   8.224   5.919  22.838  0.6139 -0.1246  0.1855
15772W        W34519  11.427  18.145   4.988  0.1820  0.0260  0.0409
15773W        W34520  23.828  19.904  22.570  0.0112 -0.1137  0.0266
15774W        W34521   9.082  24.898   2.503  0.0379  0.0999 -0.3103
15775W        W34522   5.651  23.005  25.892 -0.0172  0.2389 -0.1127
15776W        W34523  30.887  11.385  13.519  0.1234 -0.1465 -0.5150
15777W        W34524  21.998  24.010   2.845 -0.0821 -0.0241  0.1833
15778W        W34525  21.645  29.530  26.200 -0.2518 -0.0609  0.0564
15779W        W34526  27.546   0.441   4.247  0.1677  0.1117 -0.0545
15780W        W34527  12.054  10.304   7.344 -0.0514  0.2237  0.0030
15781W        W34528  10.321  24.403  22.970 -0.2801 -0.1077 -0.1598
15782W        W34529  27.508  14.206   8.004  0.2241 -0.1234 -0.2193
15783W        W34530  23.912  26.230  24.981  0.1474 -0.2918  0.0747
15784W        W34531   8.869   6.645   2.045 -0.0676 -0.3362  0.1062
15785W        W34532   9.811  27.283   5.982  0.0129  0.3260  0.1390
15786W        W34533  26.019  20.955  14.346  0.0950 -0.2270 -0.0245
15787W        W34534   5.706  11.187  21.788 -0.3638  0.0013  0.2815
15788W        W34535  31.937   9.124  25.626 -0.2100 -0.3391  0.3652
15789W        W34536  21.240   3.481   3.874 -0.0405 -0.1695 -0.1720
15790W        W34537  14.063  17.204   8.143  0.0500  0.0978 -0.1164
15791W        W34538  24.450  18.724   9.446 -0.2623 -0.0667  0.1470
15792W        W34539  16.215  22.890  15.282 -0.0222 -0.0674 -0.2236
15793W        W34540   5.647  21.035  23.526  0.1125  0.1074  0.2542
15794W        W34541  27.444   5.944  20.025  0.0501  0.1670 -0.0841
15795W        W34542  12.902   4.094   7.640 -0.0118  0.0974 -0.2693
15796W        W34543   8.244  16.867   3.339 -0.2238 -0.0072  0.1669
15797W        W34544   6.936  15.185   9.476 -0.3564  0.5513  0.1153
15798W        W34545  12.979  28.284   3.174 -0.0150 -0.0777  0.1714
15799W        W34546  15.274   1.277  10.290 -0.3063 -0.2834 -0.3884
15800W        W34547  10.376  26.987  23.269 -0.0767 -0.1215  0.1054
15801W        W34548  24.371  10.914  21.264  0.0550 -0.3867 -0.4352
15802W        W34549   0.520  22.929  18.524  0.2779 -0.0579 -0.2269
15803W        W34550   9.300  26.955  10.209 -0.2852  0.0596  0.0709
15804W        W34551  12.764  11.513  21.667 -0.0760  0.1583 -0.1216
15805W        W34552  11.130  26.704  12.600  0.1503  0.1488  0.0258
15806W        W34553  32.380  25.648  23.119 -0.2017  0.1522 -0.0425
15807W        W34554  33.592   6.832  12.284 -0.3809 -0.4379  0.0228
15808W        W34555  27.173  13.269   9.693  0.0879 -0.2159  0.0028
15809W        W34556   0.175  14.290  17.066  0.1272  0.0439  0.0517
15810W        W34557   8.660  19.479  20.939 -0.0565  0.2661  0.1525
15811W        W34558   1.973   6.123   1.895 -0.2327 -0.1272  0.0368
15812W        W34559  25.806   7.555  23.452  0.2257  0.0994 -0.0047
15813W        W34560  31.381  33.485  23.480 -0.0574  0.1008  0.0426
15814W        W34561   0.442  12.424  21.221 -0.0592  0.1202 -0.1614
15815W        W34562   2.959  19.285  19.724  0.0531 -0.0113 -0.4182
15816W        W34563  32.810  11.889  23.201 -0.0171 -0.2792 -0.0424
15817W        W34564  17.091  13.343  25.378  0.4046 -0.2032 -0.2568
15818W        W34565   6.478   6.838   1.718  0.3391 -0.3969 -0.0841
15819W        W34566  21.641  33.239   6.885 -0.0722  0.2193  0.0496
15820W        W34567  13.457   0.081  21.978 -0.0482  0.0299  0.2304
15821W        W34568  24.274   1.238  13.719  0.2349 -0.0995  0.1058
15822W        W34569   2.018  15.429  18.795  0.0917 -0.2176  0.2023
15823W        W34570  20.290   3.315  21.600  0.0069 -0.1011 -0.2099
15824W        W34571  27.357   1.462  12.530  0.0701 -0.2437 -0.3349
15825W        W34572  29.244   7.396  18.671  0.0938  0.0718 -0.0656
15826W        W34573  31.303   4.918  16.576  0.0030 -0.2212 -0.2578
15827W        W34574   9.231   4.199  14.591 -0.0763  0.1259  0.1698
15828W        W34575   4.758  31.448  10.830 -0.1811 -0.0275  0.2270
15829W        W34576   1.189  18.924   9.935 -0.0681  0.3165  0.2624
15830W        W34577  24.562  25.091  25.462  0.0452  0.1377  0.1291
15831W        W34578  15.131  31.393   2.019  0.2219  0.0397 -0.1678
15832W        W34579   4.877  29.067  22.385 -0.1590  0.2294 -0.0159
15833W        W34580  11.657  28.042   0.717  0.0164 -0.0796 -0.0776
15834W        W34581   1.726   9.697   2.492  0.0734  0.3152 -0.2316
15835W        W34582  33.188  28.553  22.849  0.1561 -0.1509 -0.4038
15836W        W34583  11.527   5.518  12.347 -0.0504  0.1300 -0.1004
15837W        W34584  16.730  15.767   6.488 -0.1003  0.0865  0.0020
15838W        W34585  33.891  15.478   0.429 -0.0597  0.1856  0.1566
15839W        W34586  25.279  18.635   8.814 -0.0052  0.2690 -0.0359
15840W        W34587   0.295   6.857   5.550  0.1543  0.2461 -0.2850
15841W        W34588  20.151   3.479  19.350  0.0665 -0.1265  0.0483
15842W        W34589  25.188  19.707  21.957  0.3396 -0.1692 -0.1271
15843W        W34590  12.091  10.677  23.261 -0.0341 -0.2359 -0.1614
15844W        W34591   5.266  32.694   4.192  0.1469 -0.3564  0.0048
15845W        W34592  33.859  21.924  19.949  0.3234  0.1043  0.3275
15846W        W34593  12.812  27.150   7.307  0.1573  0.2010 -0.0909
15847W        W34594  11.665  10.459   2.325  0.1276 -0.1600 -0.1814
15848W        W34595  23.254  34.625   0.994  0.2051 -0.1587  0.1024
15849W        W34596  11.148   9.662  19.637 -0.0376 -0.2601  0.4174
15850W        W34597  33.741  33.862   7.658  0.0953  0.1071 -0.1125
15851W        W34598   4.102   1.439   5.572  0.0399  0.0680  0.0766
15852W        W34599   2.787  24.961   3.151 -0.4021  0.1328  0.0923
15853W        W34600   7.055  23.307   9.873  0.1593  0.1528 -0.0070
15854W        W34601   3.638  12.460  24.611 -0.1777  0.3397  0.2901
15855W        W34602  29.622  14.924   9.907 -0.2967  0.2031 -0.2691
15856W        W34603  16.362  24.419  15.982 -0.0212  0.0267  0.1221
15857W        W34604  10.843  24.051  17.283 -0.1198  0.1130 -0.1772
15858W        W34605  32.902  14.948  10.658 -0.3749 -0.0414 -0.2025
15859W        W34606  31.787  18.171  19.588  0.3581  0.0605 -0.2286
15860W        W34607   8.289   1.993  13.583 -0.0096  0.1798  0.3862
15861W        W34608   5.601  28.350  14.560 -0.1532 -0.1503 -0.1668
15862W        W34609   6.141  26.104   8.564 -0.1628  0.0473  0.0582
15863W        W34610  15.145  28.912   6.508  0.1203  0.5378  0.0205
15864W        W34611  34.272  12.431   7.723  0.2615 -0.1564 -0.0626
15865W        W34612  20.234  11.048  16.773  0.1470 -0.2250  0.0394
15866W        W34613  13.282   4.819  22.649 -0.0536  0.1826  0.0050
15867W        W34614  11.668   4.170  14.003 -0.0586 -0.1694  0.0800
15868W        W34615   8.435  14.243   9.655  0.4675  0.3112  0.1336
15869W        W34616   7.274  19.575   0.257 -0.0795  0.3317 -0.2344
15870W        W34617  27.231  12.395  25.139 -0.0074 -0.3857  0.2607
15871W        W34618   4.519   5.279   8.154 -0.3204 -0.1797 -0.0388
15872W        W34619  12.558  22.135  13.033  0.0212 -0.0474  0.1078
15873W        W34620  29.822  33.915   0.809 -0.4302 -0.0858 -0.1140
15874W        W34621  27.977   1.260  19.755 -0.0112  0.3254  0.0144
15875W        W34622  32.316   7.551  17.634  0.1630  0.0875  0.0413
15876W        W34623   3.650  15.071  18.527  0.1503  0.2484 -0.1330
15877W        W34624   3.999   0.126  19.685  0.0368 -0.0349 -0.4241
15878W        W34625   2.018  24.557   1.057  0.0207  0.2324  0.1333
15879W        W34626  25.968  10.328  10.341  0.1155  0.0949 -0.0326
15880W        W34627  22.615  16.014  19.397 -0.0408 -0.1419 -0.1589
15881W        W34628   4.136  23.149   3.988 -0.0640 -0.1537 -0.3798
15882W        W34629  14.072  13.487  19.397 -0.0038 -0.1259  0.0634
15883W        W34630  13.402  15.620  22.369 -0.4004  0.0512 -0.0034
15884W        W34631  17.284  28.409   8.781  0.3425  0.0951 -0.0625
15885W        W34632  14.493   5.088   8.433  0.1576  0.1251 -0.2512
15886W        W34633  12.823   9.341  19.463 -0.1712 -0.0304  0.1492
15887W        W34634   2.466  13.884  24.890 -0.1002  0.0527 -0.3550
15888W        W34635  21.259  26.029   4.888 -0.0404  0.0100  0.1344
15889W        W34636   9.472  23.234  23.997 -0.0763  0.1848 -0.0166
15890W        W34637  17.853  17.041  22.133 -0.0460  0.2507  0.0326
15891W        W34638  10.144  12.235   6.029  0.0254 -0.0805 -0.3034
15892W        W34639  31.552   2.293   2.937 -0.0365  0.2419 -0.2778
15893W        W34640  28.874   9.991  15.693  0.0133 -0.2844  0.1431
15894W        W34641  33.812  16.992  25.476 -0.0484 -0.2917  0.0127
15895W        W34642   9.862  10.926  23.327 -0.2518  0.1933  0.1217
15896W        W34643   3.623   0.741  23.802  0.2885 -0.0615 -0.2898
15897W        W34644  23.612  12.076  23.489  0.0650 -0.0188  0.2690
15898W        W34645  23.715  11.670  18.720 -0.0298  0.1834  0.1784
15899W        W34646  22.203  33.478  23.206  0.0681  0.2790  0.0878
15900W        W34647   7.192   4.578   9.419 -0.2953 -0.0286  0.1959
15901W        W34648  14.048  12.787  21.943  0.1481  0.1551 -0.1693
15902W        W34649  32.648   7.113  25.621 -0.3100  0.1908 -0.0816
15903W        W34650  33.594  11.359  20.892  0.1681  0.0711 -0.1558
15904W        W34651  24.154  29.478   2.613 -0.0815 -0.0343 -0.0038
15905W        W34652   8.701   2.483  20.192  0.4432 -0.2829 -0.2900
15906W        W34653   2.353  20.150  25.956  0.0733 -0.0256 -0.1138
15907W        W34654  12.898   9.208  23.254 -0.4635  0.1694 -0.1122
15908W        W34655  22.919  33.185  13.337 -0.1445 -0.1908  0.1310
15909W        W34656  14.680  32.843   9.480 -0.2342  0.1380 -0.1860
15910W        W34657   5.713   5.806   4.575  0.2040  0.0013 -0.5415
15911W        W34658  27.760  20.710   4.542  0.0892  0.0452 -0.1782
15912W        W34659  29.397  29.355  23.078  0.0837  0.0929 -0.0829
15913W        W34660  24.725  12.187  22.641 -0.0412 -0.3384  0.1049
15914W        W34661  22.648  26.756  12.453  0.2500 -0.1132  0.1273
15915W        W34662  25.434   0.112   2.560 -0.1661  0.1151  0.3042
15916W        W34663  14.572  26.358  24.240  0.1791 -0.0683  0.0520
15917W        W34664  12.604  22.652  10.948  0.3483  0.0956 -0.1988
15918W        W34665  21.110  23.169  25.138  0.4666  0.2481  0.0288
15919W        W34666  30.772  18.350  11.224 -0.3500 -0.0385 -0.1313
15920W        W34667  20.022  31.252  24.746  0.0971  0.0931 -0.0021
15921W        W34668   3.231  23.325  22.688  0.0209  0.2238 -0.0321
15922W        W34669  19.213  20.122  25.449 -0.0001 -0.3737 -0.0363
15923W        W34670  24.835   5.795   5.225  0.2643  0.1411 -0.0791
15924W        W34671  26.295  18.734  23.824 -0.0316  0.0829  0.0854
15925W        W34672  23.583  15.840  26.040 -0.2853  0.2093 -0.2218
15926W        W34673   2.007  20.000  23.383  0.1544  0.1632  0.0026
15927W        W34674  15.491   0.966   7.117  0.2011 -0.0358 -0.2776
15928W        W34675  15.680  23.284   8.217  0.0951 -0.2199 -0.2392
15929W        W34676   6.350  31.264   2.676 -0.0106  0.2856  0.0992
15930W        W34677   9.191  26.595  25.105 -0.0074  0.0825 -0.0356
15931W        W34678   8.262   1.677  12.399 -0.0345  0.2511 -0.0993
15932W        W34679   2.108  26.082  22.945 -0.3046 -0.2731  0.3044
15933W        W34680  14.034  28.209  13.421 -0.0701 -0.0266 -0.0610
15934W        W34681   7.902  31.983  14.381 -0.1726  0.1300  0.3261
15935W        W34682  32.270  21.598  13.360 -0.0391  0.2032  0.4062
15936W        W34683  10.044   5.292  15.105  0.3223  0.1279 -0.0279
15937W        W34684  28.101   6.585  10.644  0.0669 -0.0826  0.0361
15938W        W34685  18.484  19.528  23.892 -0.0890 -0.1543 -0.2779
15939W        W34686  18.612  28.960   5.802  0.1065  0.0029 -0.0748
15940W        W34687  31.117  16.030  13.556  0.1578  0.0113  0.0295
15941W        W34688  35.079  18.409   0.579  0.2473 -0.0060  0.2045
15942W        W34689  12.567  14.940   3.876 -0.0931  0.0165 -0.2817
15943W        W34690  11.982  17.083   3.311  0.0032 -0.1153  0.0049
15944W        W34691  27.736  30.153   4.420  0.0587  0.2848  0.4347
15945W        W34692  30.925  26.553  12.895 -0.0401  0.1720 -0.2458
15946W        W34693  16.308   8.364   8.764  0.2096  0.2374  0.0022
15947W        W34694  18.063  16.535   0.422 -0.0656  0.1402  0.1454
15948W        W34695  29.883   3.138  12.678 -0.1142  0.1099  0.1045
15949W        W34696  22.738   8.349  17.359  0.0739 -0.0510  0.1923
15950W        W34697   4.305  34.416   7.894 -0.4564 -0.1012  0.0778
15951W        W34698   0.565  15.863  17.623  0.0577  0.0850  0.1819
15952W        W34699  31.445   9.307  12.835  0.2933 -0.1003 -0.0170
15953W        W34700  12.196  14.312  13.242  0.0036 -0.0678 -0.1589
15954W        W34701  23.421  32.109   4.282 -0.0333 -0.2086 -0.3305
15955W        W34702   4.731  24.697   2.854  0.1042  0.2365  0.4623
15956W        W34703  10.710  18.949  14.965  0.0768  0.1571 -0.2976
15957W        W34704  28.837   8.729  20.985  0.1575 -0.0275  0.0398
15958W        W34705  11.903   7.718  12.414  0.0298  0.0255  0.1612
15959W        W34706   2.076  20.468  14.219 -0.0578 -0.0329  0.4544
15960W        W34707  23.923  15.517  23.941  0.3107  0.0016  0.1569
15961W        W34708   0.771  16.510  16.706  0.1324 -0.0509 -0.2856
15962W        W34709   1.893  13.598  25.707 -0.2582  0.1274 -0.0566
15963W        W34710   0.354   0.153  14.849 -0.1906  0.0600  0.2568
15964W        W34711   1.843   8.552  18.356 -0.0875 -0.0214  0.0693
15965W        W34712  15.588   9.772   2.053  0.0010 -0.2276  0.2678
15966W        W34713  21.434   7.066   5.612 -0.2138  0.1163  0.0087
15967W        W34714  16.638  18.112  20.268 -0.2094  0.0844 -0.0141
15968W        W34715  33.990  32.473  14.665  0.1070 -0.1476 -0.0034
15969W        W34716  16.661  24.594  13.021  0.0071  0.0589 -0.2277
15970W        W34717  18.168  31.310   0.949  0.0073  0.1017 -0.2557
15971W        W34718   1.031  14.903  16.127 -0.1987  0.1552 -0.0838
15972W        W34719  19.488  15.343   2.681 -0.0967 -0.2652 -0.0239
15973W        W34720  33.748  29.430   5.540  0.1411  0.0546 -0.1568
15974W        W34721  11.574   0.366   9.318  0.3134 -0.1398  0.2218
15975W        W34722  33.498  30.501  22.539 -0.2137 -0.0938  0.2334
15976W        W34723   1.284  28.786   1.250  0.1714  0.2368  0.1819
15977W        W34724   0.958  12.122  21.543 -0.1960  0.0289 -0.0683
15978W        W34725   7.215  19.134  21.995  0.0569 -0.1322  0.2569
15979W        W34726  11.803  35.133   5.209  0.0704 -0.1609 -0.0810
15980W        W34727  16.845  28.978   7.404 -0.0049  0.1868  0.3211
15981W        W34728   2.130   1.265  18.095  0.2238  0.0730  0.0468
15982W        W34729   5.876   1.353  22.144 -0.1251  0.0610 -0.0807
15983W        W34730  26.307  10.661  25.487  0.2746 -0.1670  0.1097
15984W        W34731  16.080   0.509  23.417 -0.0586 -0.0693  0.2570
15985W        W34732  14.903   1.204  23.736 -0.0601  0.0028  0.1218
15986W        W34733  18.633   9.985   7.571  0.1715 -0.0326 -0.0938
15987W        W34734   6.454  12.648  10.244  0.1164  0.0810  0.0545
15988W        W34735   9.954  17.670   7.750  0.5294 -0.2249 -0.1344
15989W        W34736  22.066  34.242  17.131  0.1155 -0.0814 -0.1262
15990W        W34737  13.561  35.040  12.084  0.2031  0.1624 -0.0012
15991W        W34738   3.662  33.644   4.675 -0.5111 -0.1832  0.0639
15992W        W34739  11.452  17.454  23.126 -0.0915  0.0036 -0.2489
15993W        W34740  34.963  21.454  12.366 -0.0578  0.3164 -0.0590
15994W        W34741  21.752  26.295   0.089  0.0636  0.0352  0.4012
15995W        W34742  26.535  29.227   1.911 -0.1216 -0.0473 -0.1859
15996W        W34743  18.604   5.396  21.928 -0.0117  0.1721 -0.1387
15997W        W34744  23.698   0.104  18.757 -0.1014  0.1420  0.1310
15998W        W34745  28.640   8.428  22.046 -0.4152 -0.0141 -0.1859
15999W        W34746  11.822  30.161  25.383  0.0935  0.3662  0.0876
16000W        W34747   3.302   7.413  18.151 -0.0901 -0.0174  0.0844
16001W        W34748  15.556  13.126   8.302  0.1659  0.2342  0.0378
16002W        W34749   8.336  16.171  20.292  0.0359  0.3948  0.0542
16003W        W34750  12.579  17.868   2.355 -0.2146  0.1219  0.3995
16004W        W34751  15.682  26.495   0.666 -0.0021  0.1186  0.1803
16005W        W34752  31.956  12.455  22.081  0.0791 -0.0558 -0.1665
16006W        W34753   7.973  25.786  14.209 -0.0898  0.0786  0.1163
16007W        W34754  25.792   3.556  14.496 -0.1460 -0.4156  0.1397
16008W        W34755  31.012  26.209  24.142 -0.1296 -0.3740 -0.0198
16009W        W34756  31.519  28.075   2.694 -0.0150 -0.3074  0.1674
16010W        W34757  26.846  12.951  18.277  0.0331  0.3199 -0.0376
16011W        W34758  32.142  28.115  12.183  0.0124 -0.0207  0.0972
16012W        W34759  26.519  19.264  19.828  0.0096 -0.0156  0.3190
16013W        W34760  10.185  29.619  15.958  0.1235  0.1064  0.0361
16014W        W34761  20.057  16.858   7.755  0.0342  0.0595  0.2541
16015W        W34762   6.296  23.877   5.231 -0.0299  0.0832 -0.0883
16016W        W34763  21.859  29.983   4.850  0.1413 -0.1470  0.0071
16017W        W34764  22.022  23.178  18.068 -0.0384  0.1273  0.2280
16018W        W34765  30.368  30.932  19.923  0.0794  0.2414  0.1280
16019W        W34766  13.994   7.044  10.013 -0.1037  0.1154 -0.1469
16020W        W34767  18.953   9.498   9.336  0.0151  0.0815  0.2321
16021W        W34768  31.526   7.550   2.097  0.2907  0.2857  0.5983
16022W        W34769  16.540   6.810  23.293 -0.0815 -0.2832 -0.0871
16023W        W34770  33.376  22.054   7.080  0.0729 -0.4438  0.0312
16024W        W34771   6.876  21.862  24.427  0.0938  0.0446 -0.3608
16025W        W34772  13.479  27.056   7.980 -0.1098 -0.2466 -0.2283
16026W        W34773  10.506  30.754   4.282  0.0039 -0.1229  0.2907
16027W        W34774   5.549  29.031   5.164 -0.0632  0.1117  0.2252
16028W        W34775   0.803   9.357  23.816 -0.0965 -0.3289  0.0325
16029W        W34776  24.709   2.866  25.356 -0.1586  0.1395  0.0508
16030W        W34777  11.494  18.145   6.074 -0.1221 -0.1903 -0.0562
16031W        W34778  10.107  29.184   0.216 -0.2167  0.0591  0.1014
16032W        W34779  11.809   8.120   3.981 -0.2188  0.0753  0.2020
16033W        W34780  16.367  17.482  24.392 -0.4984  0.2189 -0.0618
16034W        W34781   6.947  12.749  20.300  0.0853  0.2013  0.0962
16035W        W34782  25.959   2.810  10.908  0.2053 -0.1996 -0.1359
16036W        W34783  28.174   6.970   0.246  0.1464  0.1410 -0.4389
16037W        W34784  26.258  27.954  21.260  0.1019  0.0221  0.4762
16038W        W34785   9.031  13.484  25.304  0.2634 -0.0805 -0.0938
16039W        W34786  15.571  30.005  21.111  0.1418 -0.0840 -0.0472
16040W        W34787  14.886  13.458  22.972  0.0471 -0.1082  0.2131
16041W        W34788   8.280  13.488   2.797 -0.0419  0.2923 -0.0071
16042W        W34789  21.043   1.448  21.687 -0.0405  0.0517 -0.1248
16043W        W34790  17.697   3.026   3.979  0.2424 -0.1934 -0.1064
16044W        W34791   2.914   8.790  21.209  0.1830 -0.0047  0.0176
16045W        W34792  11.772   4.864   5.948  0.1023  0.2153  0.0195
16046W        W34793  31.238  16.933  21.349  0.1348 -0.2226  0.1530
16047W        W34794   8.916  25.216   8.970 -0.1527 -0.0872 -0.2197
16048W        W34795  20.148   8.050   3.202 -0.1733 -0.3084  0.0209
16049W        W34796  30.928  14.310  24.038 -0.0364  0.3500 -0.1204
16050W        W34797  30.272  10.123  25.298 -0.0030 -0.2329  0.0355
16051W        W34798  34.026  17.262  16.156 -0.1288 -0.0645  0.1577
16052W        W34799  30.335  31.322  13.936 -0.1073 -0.1044 -0.2273
16053W        W34800  21.860   5.805   8.320 -0.2225  0.1162 -0.1539
16054W        W34801  11.919  16.803  10.454 -0.0212 -0.1601 -0.1397
16055W        W34802  25.804   1.950   0.136  0.3429  0.4523  0.0102
16056W        W34803  10.604  30.071   1.640 -0.4197 -0.1767 -0.2920
16057W        W34804   6.645  28.587  14.035 -0.5314 -0.2587  0.0243
16058W        W34805  26.890   4.206   0.878  0.0317  0.2119  0.1510
16059W        W34806   1.673  34.408   6.444  0.0578 -0.1240 -0.0460
16060W        W34807  28.130   0.615   3.358  0.0071  0.0921 -0.0150
16061W        W34808  16.284  13.181  25.906 -0.1635 -0.0403 -0.0474
16062W        W34809   7.094   2.737   6.608  0.0967 -0.5685  0.0797
16063W        W34810  17.593  12.053   2.931  0.0125  0.1222  0.0830
16064W        W34811   1.257  17.961  16.614 -0.0828 -0.0250 -0.0830
16065W        W34812  22.969  24.707  22.446 -0.4661  0.3956 -0.0612
16066W        W34813  16.355  13.088   2.231 -0.2778 -0.0595 -0.2063
16067W        W34814   2.402   1.709   6.198  0.0699  0.1272 -0.0718
16068W        W34815  21.580   1.310  21.228  0.0212  0.1976 -0.1646
16069W        W34816  21.793   1.901  16.217 -0.2558 -0.0193 -0.0443
16070W        W34817   7.945  10.321  12.333  0.0610 -0.0116 -0.1923
16071W        W34818   8.671  29.012  12.439  0.1534 -0.2879 -0.3193
16072W        W34819   8.538  25.062   8.682 -0.0131  0.0282  0.0880
16073W        W34820   2.270   8.333  20.882  0.1426 -0.4304 -0.2020
16074W        W34821  24.720  33.924   3.716 -0.3790  0.4216 -0.0661
16075W        W34822   7.218  33.376  24.247  0.1928 -0.1391  0.0820
16076W        W34823  28.610  27.366  18.572 -0.1402  0.0057  0.1316
16077W        W34824   5.361  15.206  21.319 -0.0329 -0.1959 -0.1112
16078W        W34825  27.808  16.373   6.918 -0.1882  0.0610  0.2093
16079W        W34826  15.529  23.154   3.705  0.1485  0.1123 -0.2260
16080W        W34827  28.703  27.983   3.711 -0.1931  0.1695  0.1249
16081W        W34828  30.843  21.274  10.168  0.1617 -0.0628  0.0114
16082W        W34829   4.755   2.352  19.793  0.1223  0.1468 -0.0235
16083W        W34830  11.439   3.035  19.727  0.1831  0.0447  0.0814
16084W        W34831  20.345  17.290  17.902  0.1517 -0.0718  0.1394
16085W        W34832  33.738  20.760  15.382  0.2258  0.1907 -0.1662
16086W        W34833   4.792   0.770   0.066 -0.4089  0.0277 -0.0289
16087W        W34834   3.625  32.085  11.284  0.1695 -0.3284  0.0306
16088W        W34835   3.705  23.776   2.209  0.0006 -0.0651 -0.2568
16089W        W34836  21.097  22.874   6.202  0.2609  0.3424  0.1637
16090W        W34837  33.960  16.142   7.827  0.0585 -0.1013  0.0289
16091W        W34838   6.651  10.818   1.381  0.2900  0.0397  0.1253
16092W        W34839  14.009  10.592  21.714  0.0345 -0.0016  0.0117
16093W        W34840  30.197  26.912  13.215 -0.4184  0.2833  0.1125
16094W        W34841  31.687  19.748  21.329  0.0722 -0.0076  0.1508
16095W        W34842   8.527  10.536  22.026 -0.0984  0.3562  0.0497
16096W        W34843  33.877   2.825   3.311 -0.0572 -0.2563 -0.0134
16097W        W34844   3.129   9.582  15.166 -0.0160  0.0358 -0.3231
16098W        W34845   0.493  26.163   3.811  0.1395  0.2569  0.0601
16099W        W34846  22.096  35.310  20.849 -0.4750 -0.0163 -0.1342
16100W        W34847   1.043  22.155   2.527  0.0097  0.1299 -0.5331
16101W        W34848   3.163   0.982   9.631  0.4758 -0.2455 -0.3107
16102W        W34849   3.353   7.444  20.521 -0.1411 -0.0908  0.4368
16103W        W34850   7.780   8.554  18.449 -0.1869  0.2412 -0.3179
16104W        W34851  33.854  25.931  19.437  0.0647 -0.0394 -0.0548
16105W        W34852   6.970  32.905   6.226 -0.0367  0.0095 -0.0594
16106W        W34853  20.673  11.540  22.331  0.2254  0.1769 -0.0349
16107W        W34854   5.666  19.495  24.635  0.1616 -0.3581 -0.2439
16108W        W34855  28.020   2.376  12.229  0.0222  0.2519 -0.1572
16109W        W34856  28.404  26.340  14.403  0.1709  0.1677  0.2290
16110W        W34857  34.527  33.685  25.070  0.0718 -0.1259 -0.2387
16111W        W34858  23.036   7.654  23.409  0.1030 -0.3757  0.1112
16112W        W34859   7.252  26.880  23.219  0.0554  0.0988 -0.0599
16113W        W34860  19.745  23.034  20.899  0.0165 -0.0349 -0.2872
16114W        W34861   6.075  33.107  23.685  0.2660 -0.3247 -0.0005
16115W        W34862  22.569  17.676  21.277  0.0927  0.1864 -0.2629
16116W        W34863  27.581  19.309  22.700 -0.1456  0.0916  0.1005
16117W        W34864  17.714  28.312   4.370 -0.1626  0.0359 -0.0643
16118W        W34865  18.742  25.960   3.648  0.2402 -0.0252 -0.2301
16119W        W34866   3.424  21.577  21.660 -0.4146  0.0158  0.0618
16120W        W34867  17.110  30.193  23.194  0.3374  0.0407  0.0738
16121W        W34868  12.066   5.814   3.080 -0.3681 -0.0628  0.0925
16122W        W34869  29.771  26.475   7.728  0.1958 -0.0205  0.1000
16123W        W34870   1.832  26.254   0.199  0.0891  0.2747 -0.1433
16124W        W34871  30.070   2.281   2.140 -0.0184  0.0935 -0.1475
16125W        W34872  33.589  16.433  22.097  0.0114 -0.1000  0.0032
16126W        W34873  17.657  28.241   0.540 -0.0644 -0.3547  0.0483
16127W        W34874  22.770   5.750  18.647  0.0246 -0.2687 -0.2230
16128W        W34875  26.096  14.928  17.720  0.1623  0.2316  0.2362
16129W        W34876  29.707  10.525  25.950 -0.3122  0.2149  0.0003
16130W        W34877  21.287   1.479   1.327  0.2400 -0.0418  0.4959
16131W        W34878  31.227  14.470  15.893 -0.3184  0.3078  0.0340
16132W        W34879  10.601   6.488   2.970  0.2133  0.1090  0.1080
16133W        W34880  29.501   8.436  18.586 -0.0267  0.2308  0.3538
16134W        W34881  27.831  20.976  23.916 -0.2852 -0.0016  0.1788
16135W        W34882   9.171   4.964  21.160 -0.2363 -0.2202 -0.0405
16136W        W34883  15.116   7.437  12.429 -0.0675 -0.0306  0.3424
16137W        W34884  14.228  30.860   8.190 -0.1050  0.1361 -0.2223
16138W        W34885  31.683  23.556   8.572 -0.5278 -0.1701 -0.2626
16139W        W34886  24.896  16.462  19.691 -0.0154  0.0604 -0.3916
16140W        W34887  31.626  22.294   9.460 -0.2351 -0.1040  0.0244
16141W        W34888   2.617  29.236   6.558 -0.2242 -0.0134  0.1198
16142W        W34889  26.914  16.885  12.144 -0.2212  0.2736  0.0025
16143W        W34890  19.840  31.525  15.677  0.0286 -0.0872 -0.2742
16144W        W34891   9.543   2.796  20.364  0.0021  0.0689  0.0905
16145W        W34892  28.339  28.718  19.671 -0.0293 -0.2354  0.2477
16146W        W34893   7.365  30.245  25.775 -0.2027  0.0633  0.0521
16147W        W34894  13.498   8.793   9.972 -0.0537  0.0120  0.0482
16148W        W34895   7.687   7.810   5.490  0.2769 -0.1913 -0.0772
16149W        W34896  34.632  18.266  19.651 -0.3170  0.1942  0.0703
16150W        W34897  17.602   6.765  22.346 -0.0910 -0.3346 -0.2509
16151W        W34898  24.389  34.615  19.996  0.0668  0.0947  0.1065
16152W        W34899  26.868  11.031   8.962 -0.1022  0.1313 -0.3565
16153W        W34900   6.463  32.862  21.889 -0.0320  0.0031  0.0443
16154W        W34901  21.988  15.050  25.986  0.0105 -0.2536 -0.0216
16155W        W34902   7.580   5.538  21.059  0.0581 -0.2103  0.3750
16156W        W34903  32.646  33.588  12.880 -0.0810 -0.4248 -0.4376
16157W        W34904  27.535   0.002  24.711  0.0528  0.0463  0.1255
16158W        W34905  33.661  12.582  19.128 -0.0201  0.2530  0.0505
16159W        W34906  10.652  31.080   2.519 -0.3375  0.1642  0.2688
16160W        W34907  17.810  15.329  10.668  0.1371 -0.0398  0.1942
16161W        W34908  22.318  14.114  24.610 -0.0751  0.1663 -0.3630
16162W        W34909  12.781  15.267   7.630  0.6670  0.0783 -0.0103
16163W        W34910   9.399  27.582   5.178 -0.0343  0.1277 -0.2405
16164W        W34911   5.545  15.597   2.110 -0.0645 -0.0551  0.1050
16165W        W34912   4.188   3.063  20.081  0.0696 -0.2702  0.0815
16166W        W34913  26.073  22.441   9.691 -0.1237 -0.2264  0.2851
16167W        W34914   1.535  29.328  24.960  0.1881  0.1092  0.3228
16168W        W34915   5.220  33.759   9.419 -0.0037 -0.2809 -0.0546
16169W        W34916  13.825  31.607   2.213  0.1481  0.2498  0.3689
16170W        W34917  15.083   4.452  12.506  0.0719 -0.1031  0.1370
16171W        W34918  11.608  16.208  21.916 -0.3551 -0.0048  0.2664
16172W        W34919  12.439   3.593  24.550  0.0042  0.4252  0.0908
16173W        W34920  20.445   0.582  17.568 -0.1670 -0.0574 -0.0977
16174W        W34921   0.092  24.062  13.098  0.2899 -0.0448 -0.1399
16175W        W34922  21.235  11.478  20.694  0.0400 -0.2423  0.1778
16176W        W34923  33.175  25.176   8.530  0.0219 -0.0057  0.0368
16177W        W34924  19.077  27.117   3.201  0.3345  0.2668 -0.1331
16178W        W34925  33.209   6.787  22.407 -0.0899  0.0766 -0.3378
16179W        W34926  11.935  29.445  16.824 -0.1306 -0.1320  0.1471
16180W        W34927  28.394   0.556  25.036  0.0069  0.1960 -0.0770
16181W        W34928  32.033  15.782  11.645  0.1693  0.3350 -0.2417
16182W        W34929   5.340  15.187  20.668  0.0640 -0.0837  0.4218
16183W        W34930  18.907  10.735  23.213 -0.3326 -0.2008  0.0156
16184W        W34931  13.857  32.736  23.355  0.0156  0.2377 -0.0778
16185W        W34932  13.162   1.611  21.247 -0.1490 -0.2398  0.1257
16186W        W34933  22.893   7.013  15.533  0.4173 -0.1809 -0.2528
16187W        W34934   0.168   3.737  24.851  0.0657  0.3142  0.2457
16188W        W34935  27.613  34.285   1.028  0.2714 -0.1540 -0.0667
16189W        W34936  31.291  17.621  15.201  0.1246  0.0595 -0.1510
16190W        W34937  31.587  12.041  14.033 -0.1158 -0.0370 -0.1369
16191W        W34938   8.992  14.996  23.217  0.0270  0.0466 -0.1253
16192W        W34939  28.989   9.156  14.255  0.2141  0.0153  0.3317
16193W        W34940   1.395  17.623  14.067  0.4543 -0.0749  0.2619
16194W        W34941  11.625  31.285  12.332  0.0764 -0.1738  0.1200
16195W        W34942  15.512  25.043   9.670 -0.3545  0.0162 -0.0932
16196W        W34943  15.509   5.305  10.527  0.3114  0.1826 -0.0428
16197W        W34944   9.129   8.746  19.370 -0.2001  0.4837  0.0915
16198W        W34945  10.590  21.476  21.970 -0.2207 -0.2663 -0.0988
16199W        W34946   2.415  20.817  23.234 -0.2874 -0.3045 -0.2286
16200W        W34947  24.807  18.086  26.233  0.0432 -0.0637 -0.1195
16201W        W34948  24.730  20.748  23.202 -0.0303  0.0500  0.1409
16202W        W34949  27.568   2.623  22.669  0.2515 -0.2131 -0.2588
16203W        W34950  30.550   4.801   4.198  0.3860 -0.3145  0.0069
16204W        W34951  20.120  35.368   6.721  0.0209 -0.0434 -0.1743
16205W        W34952   4.564  18.716   5.501  0.0518 -0.0667  0.1080
16206W        W34953  27.499  15.192  15.420  0.0384 -0.1508  0.1215
16207W        W34954  19.555  14.728   6.486  0.1435  0.2298  0.2107
16208W        W34955  28.488   2.701  21.529 -0.0945 -0.2382  0.0668
16209W        W34956  24.601   9.153  17.964 -0.1902  0.3632  0.0912
16210W        W34957  29.214   1.072  13.843 -0.0636  0.1059 -0.4474
16211W        W34958  11.186  33.065  23.603 -0.2024 -0.2199  0.2102
16212W        W34959  20.472  31.750  18.184 -0.0720 -0.0432 -0.3964
16213W        W34960  30.836  10.759   9.695 -0.0924 -0.0525 -0.1385
16214W        W34961  24.836  25.170  17.056 -0.1874 -0.2688 -0.0355
16215W        W34962  31.036  23.871  18.237 -0.1216 -0.1450  0.3042
16216W        W34963   3.583  34.685  24.783  0.2702  0.1136 -0.1544
16217W        W34964  35.291  12.223   1.528  0.0628  0.1352  0.2101
16218W        W34965  28.366  29.823  12.364 -0.1245 -0.1642  0.1839
16219W        W34966   6.913  18.352   6.807 -0.4100 -0.1297  0.1748
16220W        W34967  20.495   2.717  23.093 -0.0829 -0.3203  0.0246
16221W        W34968   1.776  13.935  17.519  0.1897 -0.2388  0.0834
16222W        W34969   6.175  28.087   1.747  0.0258 -0.2496  0.0260
16223W        W34970  27.015  23.555  11.683  0.2433 -0.2146 -0.1539
16224W        W34971  31.302  22.484  15.996  0.2335 -0.0131  0.0671
16225W        W34972  12.528   7.121  23.095 -0.0208 -0.3345  0.0938
16226W        W34973  15.769  32.861  10.146  0.0862  0.2236  0.0706
16227W        W34974  10.213  30.467  25.992 -0.4935 -0.3016  0.1852
16228W        W34975   9.986   3.982  19.357 -0.0001  0.0315 -0.0742
16229W        W34976  31.287   2.064  21.279  0.2664  0.0282 -0.1382
16230W        W34977   1.081  12.495  15.114  0.0486  0.4479  0.1418
16231W        W34978  12.625  25.124   0.996 -0.4145  0.0834  0.0376
16232W        W34979  12.754  18.992   3.205  0.0226  0.1204 -0.3060
16233W        W34980   4.546  12.279  18.183  0.1324 -0.2837  0.3148
16234W        W34981  14.686  19.457   2.508 -0.1310 -0.0801 -0.0045
16235W        W34982   5.204  22.055  20.035 -0.1109 -0.3383  0.1375
16236W        W34983   1.547   6.152  23.329  0.1685 -0.1046  0.0297
16237W        W34984  28.260  18.905  18.902 -0.0836 -0.0625  0.0609
16238W        W34985  33.353  35.175  25.005  0.0474 -0.0249 -0.0618
16239W        W34986   9.667   8.316   8.693  0.2225 -0.0326 -0.1915
16240W        W34987   5.201   6.532   3.557 -0.1063 -0.2055  0.0611
16241W        W34988  17.339  34.809   2.750  0.1872  0.1137 -0.1295
16242W        W34989  10.625  32.628   8.330  0.0476 -0.0226  0.1720
16243W        W34990  33.665  21.211  20.836 -0.1965  0.0291  0.1912
16244W        W34991  21.986   4.011  22.332  0.1132 -0.1383  0.2693
16245W        W34992   1.907   7.692  16.901  0.0211  0.1980  0.0549
16246W        W34993  28.257  33.949  16.358  0.0616 -0.2280 -0.1608
16247W        W34994   1.924  20.642  21.188  0.2568  0.2726  0.0608
16248W        W34995  10.253  34.048  25.287 -0.2706  0.3873  0.3030
16249W        W34996  24.837  26.935  14.116  0.0274  0.4492  0.0016
16250W        W34997  24.103  25.315   0.794 -0.0353 -0.0551  0.0717
16251W        W34998   0.009  31.104   7.647  0.3702  0.0965 -0.1110
16252W        W34999  34.649   1.677   5.610 -0.2153 -0.2488  0.0196
16253W        W35000  27.034  22.677  15.708 -0.0092  0.0970  0.0357
16254W        W35001  29.535  27.647  23.580 -0.0764  0.0535 -0.0574
16255W        W35002  30.321  14.307   5.871  0.0887 -0.4964  0.1386
16256W        W35003  15.945  19.947  21.800 -0.1244  0.2887 -0.0131
16257W        W35004  10.353  32.993   3.427  0.1641 -0.1684  0.3975
16258W        W35005  26.823  30.817  13.080  0.0080 -0.0017 -0.3171
16259W        W35006  29.209  31.700  12.151  0.0949  0.0458  0.1727
16260W        W35007  28.321  10.377  25.389  0.0738  0.1572 -0.3120
16261W        W35008   4.133  11.929  19.282 -0.0974  0.0589 -0.0076
16262W        W35009  11.140  12.755  11.495  0.1000 -0.2059  0.2198
16263W        W35010   7.653  17.040   5.455  0.0031 -0.1908 -0.4219
16264W        W35011  25.018  24.139  19.076  0.1596 -0.1146 -0.1458
16265W        W35012  23.882   3.203  16.619 -0.1043 -0.0506  0.1202
16266W        W35013  28.610  20.675  22.626  0.0696  0.0573 -0.0572
16267W        W35014   7.097   8.352   4.076  0.2608 -0.0322  0.1797
16268W        W35015  27.722   4.323  16.345  0.2176 -0.1989 -0.0217
16269W        W35016   3.720  27.450   3.153 -0.1953  0.1201  0.0453
16270W        W35017  13.157   5.903   6.380  0.1149  0.3317 -0.0514
16271W        W35018  12.231  14.565   3.831  0.1428 -0.1330 -0.1728
16272W        W35019  35.171  13.401  15.847  0.0947  0.3129 -0.1204
16273W        W35020  21.493  28.316  24.788  0.0213  0.1438  0.2643
16274W        W35021   7.695   0.982  11.942 -0.1885 -0.1355  0.0624
16275W        W35022  10.763   7.746  22.653  0.0519  0.4048  0.0735
16276W        W35023   7.524  21.100  25.621 -0.0592 -0.0937  0.0334
16277W        W35024  33.188   1.840   2.518 -0.0067  0.0829  0.3493
16278W        W35025   7.221   8.946   3.319  0.1844 -0.2426  0.1347
16279W        W35026  29.904  25.158  21.985  0.2370 -0.0084  0.1448
16280W        W35027  28.592  33.870  20.483  0.1330 -0.1616  0.2436
16281W        W35028  10.250   7.884   1.510  0.1615 -0.0953  0.4568
16282W        W35029  27.081  34.897  18.210 -0.2120 -0.1848  0.3072
16283W        W35030   9.935   5.807  24.887 -0.1685 -0.1883 -0.0215
16284W        W35031  28.252   3.010  22.099  0.1005 -0.2070 -0.2074
16285W        W35032  19.972  18.082  19.845  0.2466 -0.0500 -0.0493
16286W        W35033   0.245   8.881  21.601  0.2680  0.1188 -0.0592
16287W        W35034  20.918  10.563   5.141  0.2132 -0.1772 -0.0699
16288W        W35035  29.045   4.102  10.543 -0.1241  0.2578 -0.0733
16289W        W35036   5.771  26.426  22.757 -0.0596 -0.2257 -0.0364
16290W        W35037  13.795  12.583   8.759  0.0864  0.0996 -0.1210
16291W        W35038  16.554   8.981   1.466  0.0036  0.1444 -0.1791
16292W        W35039  20.789   6.339  21.432 -0.0252  0.1543  0.3811
16293W        W35040  23.654  22.076  12.141  0.0751  0.0559 -0.0094
16294W        W35041   3.037  25.474  23.408  0.1281 -0.1274 -0.1728
16295W        W35042  11.427   5.931  25.995 -0.0950 -0.1458  0.2550
16296W        W35043  31.048  18.285  12.007  0.2255 -0.3960  0.2777
16297W        W35044   2.310  34.430   5.415 -0.0682  0.0949 -0.3399
16298W        W35045   6.537   3.585   0.901  0.0743 -0.2193  0.1729
16299W        W35046   5.375   7.073   2.700 -0.2065 -0.2073 -0.1893
16300W        W35047  29.831   0.976  18.052 -0.1077  0.1553  0.1219
16301W        W35048  13.344  15.666   3.421 -0.4250 -0.3585 -0.0258
16302W        W35049  16.832   3.434  17.574 -0.2148  0.1305  0.0611
16303W        W35050  29.758  19.922  17.301 -0.1595  0.0031  0.2433
16304W        W35051  30.490  31.417  19.003  0.0180  0.2161  0.0494
16305W        W35052   4.029   3.363   6.387 -0.1162 -0.2032 -0.2002
16306W        W35053  19.741  22.430  22.539  0.2085 -0.0865  0.0244
16307W        W35054  33.001  29.267  15.927 -0.0270  0.3081 -0.1795
16308W        W35055  26.390  19.015   7.825  0.0557 -0.2494 -0.1581
16309W        W35056  14.692  17.797   7.696  0.0663  0.0599  0.2281
16310W        W35057  12.670  16.501   5.544  0.0641  0.3720 -0.2098
16311W        W35058  18.671  33.873  19.322  0.2627 -0.0111 -0.0926
16312W        W35059   8.114   5.910   0.550  0.1121  0.0111 -0.0430
16313W        W35060   6.642   6.088   4.369  0.3860  0.0213  0.1546
16314W        W35061   6.635  21.795  25.883 -0.0481 -0.1607  0.2968
16315W        W35062  17.844  20.763  22.431 -0.0073 -0.1097 -0.0483
16316W        W35063  32.269  13.944   6.939  0.1960  0.2069  0.2641
16317W        W35064   5.688   9.222  11.214  0.0746  0.1361  0.1396
16318W        W35065   7.676  10.116  11.182  0.0484  0.0967 -0.0898
16319W        W35066  17.666  13.188   1.119  0.0065 -0.3446 -0.0293
16320W        W35067  32.739  32.436  17.835 -0.0002  0.0556 -0.2016
16321W        W35068  31.217  16.678  17.915  0.0126 -0.3033  0.1952
16322W        W35069   3.524  26.195  22.354  0.1581  0.0300 -0.2182
16323W        W35070  10.075  21.306   3.671 -0.0737  0.2197  0.1791
16324W        W35071   7.234  12.226   0.152  0.1378 -0.0993  0.0718
16325W        W35072   7.703  15.134  17.385 -0.1655 -0.0807  0.2765
16326W        W35073   6.603   2.506   3.211 -0.0445  0.1635 -0.1027
16327W        W35074  19.857  16.140  24.609  0.1735  0.0992 -0.0220
16328W        W35075   1.816   8.574  20.731 -0.1172  0.0958  0.1428
16329W        W35076  31.806  13.929   0.082 -0.0125  0.1371 -0.0228
16330W        W35077   6.775  12.293  17.027  0.1358 -0.0311 -0.1560
16331W        W35078  28.822   0.958  25.080 -0.1062 -0.3546  0.0656
16332W        W35079  30.818   4.930   1.369 -0.2159  0.3285  0.0770
16333W        W35080  17.973  13.625   7.103  0.2110 -0.1873  0.0798
16334W        W35081  33.734  11.124  13.193 -0.3610  0.4125 -0.0366
16335W        W35082  23.975  23.614  23.006  0.0079  0.2050  0.0471
16336W        W35083  16.386  16.411  22.588 -0.0957 -0.0452 -0.1621
16337W        W35084  27.181  22.335  25.918  0.1014 -0.0355  0.0014
16338W        W35085  30.250  15.349  17.020  0.2381  0.1012  0.0440
16339W        W35086  14.596  26.173  23.671 -0.1272  0.1545 -0.2166
16340W        W35087  20.013  18.871  22.900  0.1740 -0.0429  0.1173
16341W        W35088  35.015  18.146  14.150  0.1820 -0.1574  0.4922
16342W        W35089  14.377   9.270   2.802 -0.0306 -0.3351  0.1181
16343W        W35090  11.690  14.247   1.195 -0.3741 -0.2467  0.2799
16344W        W35091  25.727  15.725  21.946  0.3013 -0.1226 -0.2931
16345W        W35092  15.881  10.610  25.725  0.0284 -0.1383 -0.2464
16346W        W35093   3.661  28.967  22.096 -0.4421 -0.1395  0.0679
16347W        W35094  26.027  19.480  19.767  0.1775  0.0460  0.0823
16348W        W35095   5.715  34.328   7.320  0.0862  0.1037 -0.0130
16349W        W35096  27.697  22.452   6.321 -0.2240 -0.0849 -0.1379
16350W        W35097  18.775   6.410   9.317  0.3052  0.2230  0.1325
16351W        W35098  27.969   0.420  25.237  0.0755  0.0812  0.0299
16352W        W35099  17.486  25.012   9.432 -0.1664  0.0747 -0.2011
16353W        W35100   3.526  32.216   3.205  0.2358  0.1328  0.2271
16354W        W35101  23.105  17.218   1.658  0.1337  0.0361 -0.0330
16355W        W35102   9.562  25.169   0.626  0.0138  0.1675  0.1804
16356W        W35103  15.896   8.855  11.307 -0.3616 -0.1747 -0.1291
16357W        W35104   5.802  23.711   8.633 -0.1046  0.0199  0.1091
16358W        W35105   5.158   7.965   3.320  0.0461  0.0068 -0.0675
16359W        W35106  16.666  15.188   0.793  0.2794  0.2490 -0.1087
16360W        W35107   0.180  21.576   1.443 -0.0194 -0.0335  0.0749
16361W        W35108  10.528  21.260   3.357 -0.1866  0.2839 -0.2468
16362W        W35109  20.060  26.131   8.318  0.2617  0.3476  0.1358
16363W        W35110  21.122  12.826  21.717  0.0221 -0.0966 -0.0727
16364W        W35111  16.061   1.413  20.929  0.1227 -0.2120 -0.1589
16365W        W35112  17.582  18.040   7.850 -0.2109 -0.1332  0.2215
16366W        W35113  30.363  30.656   2.551 -0.1033 -0.1139 -0.3354
16367W        W35114  26.594  11.851  12.739 -0.0198  0.2637 -0.0012
16368W        W35115   5.376  31.135   9.725  0.2695  0.2558  0.2756
16369W        W35116  18.216   5.248  10.086 -0.0381 -0.4318 -0.4830
16370W        W35117  23.654  26.664  21.180  0.0231 -0.3623 -0.0183
16371W        W35118  34.208   4.538  25.507 -0.0242  0.0421  0.1611
16372W        W35119   6.158  11.365   4.344  0.0656  0.0489 -0.2876
16373W        W35120  28.551  28.391  23.738 -0.0915 -0.1690 -0.2568
16374W        W35121  29.385   9.096  18.567  0.0538  0.5925 -0.0591
16375W        W35122  31.667   5.450  14.614  0.3590  0.0615  0.2236
16376W        W35123  20.307  22.730  21.597 -0.1052 -0.0612  0.0132
16377W        W35124  19.097  18.631   3.127  0.3839  0.4383  0.5504
16378W        W35125  33.966  28.928  25.835 -0.2006  0.1021 -0.0546
16379W        W35126   1.517  22.073   2.639 -0.3477  0.1739  0.1848
16380W        W35127  14.494  24.032  23.311 -0.1435  0.0573 -0.2312
16381W        W35128  25.838  24.903  24.334  0.1522 -0.0923 -0.3534
16382W        W35129  33.288  32.092   3.289  0.2545 -0.2850  0.2687
16383W        W35130  21.434   5.265  24.819  0.0298  0.2550 -0.0598
16384W        W35131  24.134  19.137  21.830  0.0027  0.2156  0.3345
16385W        W35132  31.243  22.484  12.037 -0.1252 -0.1836 -0.0833
16386W        W35133  15.637   7.611   7.286 -0.3858 -0.0246  0.0480
16387W        W35134  18.489  16.914   0.592 -0.1670  0.1196  0.0964
16388W        W35135  29.471  24.446  10.885  0.2969  0.1169 -0.3739
16389W        W35136  25.895  15.599  19.786  0.0400 -0.0282  0.1011
16390W        W35137  13.453  29.515  10.351  0.2007  0.0923 -0.2237
16391W        W35138  10.739   7.509  24.067  0.1689  0.1252  0.2373
16392W        W35139  11.834  30.082   4.061  0.1302  0.0233  0.2003
16393W        W35140  19.324  33.832   6.553 -0.2370 -0.2949  0.1303
16394W        W35141  15.626  32.803   1.309 -0.1908  0.1486  0.1450
16395W        W35142  30.323  20.982  21.899 -0.0438  0.2279  0.1397
16396W        W35143  29.790  15.024  16.371  0.0549  0.0542  0.1731
16397W        W35144   1.756  24.111   3.083  0.0153 -0.4530  0.0526
16398W        W35145  33.832  20.478   8.337  0.0101  0.2256 -0.0359
16399W        W35146  30.548   4.517  22.185 -0.2062  0.0901 -0.1707
16400W        W35147  11.068  18.849   0.710  0.0107  0.0782  0.2910
16401W        W35148   2.957  15.083   4.640 -0.2212  0.0877 -0.1270
16402W        W35149  17.716  23.954   7.513 -0.0522 -0.0144  0.2029
16403W        W35150  33.431  13.882  19.259 -0.0578 -0.0381  0.0728
16404W        W35151   7.364  28.442  25.908 -0.0620 -0.1083 -0.4052
16405W        W35152   9.352  22.905   4.825  0.0192  0.0363  0.2321
16406W        W35153  17.857  11.011   7.986  0.0060  0.0102  0.0020
16407W        W35154  29.306  23.940  11.008  0.1416 -0.0923  0.1385
16408W        W35155  11.328  27.827   9.952  0.2045 -0.1383  0.0750
16409W        W35156  16.249   8.009  11.777 -0.0406  0.0429 -0.1481
16410W        W35157   0.088  16.553  24.423 -0.1179 -0.1813 -0.0682
16411W        W35158  29.874  31.553  12.548  0.0684  0.0247 -0.3094
16412W        W35159  30.971  31.693  17.211  0.0376  0.1743 -0.0698
16413W        W35160  18.792   6.505  24.783 -0.3226 -0.1408  0.1278
16414W        W35161  10.174   3.685   0.742  0.0310 -0.2976  0.0854
16415W        W35162  12.563  22.783  11.446  0.2606 -0.0108 -0.0463
16416W        W35163  12.118  25.725   0.435 -0.2281 -0.0629  0.3034
16417W        W35164   6.122  14.301  19.801  0.0337  0.1051 -0.2359
16418W        W35165  14.705  16.103  24.939 -0.2512  0.0998  0.2430
16419W        W35166  29.761  35.081  16.695 -0.2080 -0.0011 -0.2008
16420W        W35167  15.785   1.547   3.658  0.0483  0.0004 -0.0287
16421W        W35168  22.428  17.533  25.505  0.1966 -0.0052 -0.0904
16422W        W35169  12.921  21.758  24.416  0.0276  0.0114  0.0043
16423W        W35170   4.134  24.369  25.093 -0.1616  0.1751  0.1359
16424W        W35171  13.290   4.374   3.857  0.2072  0.1894 -0.2213
16425W        W35172  35.111  17.291  15.417  0.0681 -0.3346 -0.2386
16426W        W35173  18.382  21.888  20.696  0.0813  0.0467  0.1103
16427W        W35174  20.871  24.715   1.539  0.0534 -0.1273  0.0642
16428W        W35175   1.182  33.718   8.323  0.4793  0.2945 -0.4094
16429W        W35176  34.607   6.883  26.243 -0.1374 -0.4612 -0.2233
16430W        W35177   9.358  23.091   2.285  0.1453 -0.0339 -0.1740
16431W        W35178  32.272  34.569   6.515  0.0948 -0.0318  0.1902
16432W        W35179  31.253  16.783  24.378  0.3001  0.2077 -0.0884
16433W        W35180  28.638  19.292  21.676 -0.3075 -0.2286 -0.1183
16434W        W35181  26.944  12.387   6.848 -0.0403 -0.0828 -0.0557
16435W        W35182   8.617  29.050   3.227 -0.1868 -0.2426 -0.3040
16436W        W35183  33.577  23.481  24.879  0.0201 -0.4707  0.2453
16437W        W35184  21.436   2.458   7.297  0.1572 -0.5128  0.2915
16438W        W35185  30.425  32.670   0.896  0.2185 -0.1626 -0.0530
16439W        W35186   5.527   7.699  25.831 -0.0289 -0.2116  0.1642
16440W        W35187   2.599  28.396   5.921 -0.2643 -0.2820 -0.1847
16441W        W35188  10.760  22.058   1.149  0.0538 -0.3491 -0.2293
16442W        W35189  25.740   2.387  14.101 -0.0313  0.3141  0.1418
16443W        W35190   6.842   1.277  25.619 -0.1963  0.0066 -0.2329
16444W        W35191  21.139  16.837   3.825 -0.0741 -0.0592 -0.0290
16445W        W35192  23.505  15.938  15.944 -0.2047  0.1592  0.2554
16446W        W35193  26.701   9.141  25.327  0.1355  0.0575 -0.0266
16447W        W35194  26.554  34.881   5.288 -0.2569 -0.4647 -0.1910
16448W        W35195  33.434  11.657   0.815 -0.2564  0.0041  0.0917
16449W        W35196   6.341  27.089  25.278  0.2128  0.1751  0.0137
16450W        W35197  16.033  23.956   0.719 -0.0182 -0.2516  0.0490
16451W        W35198  25.265  30.942  19.816  0.2955  0.0831  0.2368
16452W        W35199  14.104   1.984   6.913 -0.1562  0.0760 -0.0871
16453W        W35200  13.520   4.862  13.634  0.1093  0.2849 -0.1045
16454W        W35201   6.606  14.388   2.192 -0.0495  0.1701  0.0722
16455W        W35202  13.305  11.189  12.369  0.1832 -0.1287 -0.1907
16456W        W35203   7.078  22.974   6.807 -0.0201  0.0462  0.1743
16457W        W35204  12.624  31.964   1.672 -0.0137 -0.3377  0.1306
16458W        W35205  10.203  17.571   4.617  0.1161 -0.0578 -0.0061
16459W        W35206   3.925   9.355   3.292  0.2070  0.0287  0.1147
16460W        W35207  29.940   8.578  19.069 -0.1591  0.2129  0.0549
16461W        W35208   2.073   3.114   3.749 -0.1348 -0.2502 -0.0034
16462W        W35209  34.722   6.094  22.423  0.1137 -0.1363 -0.0381
16463W        W35210  23.263   1.940  26.099  0.1039  0.2362 -0.1326
16464W        W35211  33.736   6.107  15.503 -0.1245 -0.0149  0.2658
16465W        W35212   9.273   6.193  11.223  0.0560  0.0209 -0.0764
16466W        W35213  14.599   1.989   4.663  0.2018  0.1326  0.0516
16467W        W35214  16.331   8.453   2.300  0.2815 -0.0104 -0.0226
16468W        W35215  32.611  23.472  12.895 -0.0801  0.3524 -0.2017
16469W        W35216  31.054   3.370   4.628 -0.3085  0.3457 -0.0008
16470W        W35217  32.473  25.790  19.781  0.1311 -0.0712 -0.2139
16471W        W35218   6.471   8.028  23.491 -0.0933 -0.2789  0.1505
16472W        W35219  11.272  17.258  20.881 -0.0494  0.1644  0.2206
16473W        W35220   2.509  14.157  26.040  0.0848  0.0172 -0.1220
16474W        W35221   7.560  25.173  11.947 -0.0061  0.0351 -0.3454
16475W        W35222  33.800   8.779  17.918  0.0775  0.0901  0.0250
16476W        W35223   2.206   1.278  19.109  0.1038 -0.1129  0.4337
16477W        W35224  23.025  27.898  24.289 -0.0602  0.0222  0.1355
16478W        W35225  22.591   6.920  25.851 -0.1257  0.0376 -0.3446
16479W        W35226  34.605   8.097  14.098  0.4307  0.0752 -0.1541
16480W        W35227  32.039  15.942  18.714  0.3215  0.3305  0.0234
16481W        W35228  29.648  12.043  17.819  0.2006  0.1903 -0.1105
16482W        W35229  29.094  22.098  17.889  0.0588 -0.2441  0.1967
16483W        W35230   8.021  16.966  20.398  0.1311  0.3521 -0.1354
16484W        W35231  31.409  12.326  19.912  0.1297 -0.0661  0.0712
16485W        W35232   1.349  22.525  24.946  0.0391  0.1361  0.0070
16486W        W35233  20.772  35.101  21.156 -0.0764  0.4359 -0.0247
16487W        W35234  33.551  11.268   7.426 -0.3141 -0.0058  0.0546
16488W        W35235  15.725   0.738  21.213 -0.1115 -0.0945 -0.2058
16489W        W35236  26.319  17.752   8.278  0.2591 -0.0902  0.3786
16490W        W35237   2.226  25.319  23.603  0.2254  0.1053  0.2519
16491W        W35238   0.986  28.694  22.738 -0.3228 -0.1507  0.1890
16492W        W35239  14.551   3.736   6.748  0.0520 -0.0688 -0.2891
16493W        W35240   8.123  28.059   5.333  0.0756  0.3176 -0.2780
16494W        W35241  17.984   3.744   9.269  0.0125  0.1455  0.0768
16495W        W35242   0.879  33.344   7.019 -0.0414 -0.0834 -0.2364
16496W        W35243   2.652  12.421  17.506 -0.2701 -0.2489 -0.0025
16497W        W35244  22.986  17.486  15.576  0.0658 -0.0818 -0.0887
16498W        W35245  17.319  23.580  20.599  0.0030  0.0737 -0.0192
16499W        W35246  33.944   3.482  18.473  0.0954 -0.1232 -0.1656
16500W        W35247  19.719  30.804  21.667 -0.0493  0.2230  0.2541
16501W        W35248  18.397  29.183   4.352  0.1377  0.0477  0.0799
16502W        W35249   4.028  33.923  23.989  0.0614  0.1660  0.0785
16503W        W35250  21.528  10.902   0.155 -0.1903 -0.0312  0.0738
16504W        W35251   8.749   8.316  18.046 -0.2821 -0.0259 -0.2496
16505W        W35252  19.686  33.299  19.387  0.0097 -0.0762 -0.1785
16506W        W35253   0.122  29.941  18.637  0.1418  0.1336 -0.0763
16507W        W35254  11.447  31.224   5.998 -0.1359 -0.0136  0.2704
16508W        W35255  21.986  21.399   0.145 -0.0399  0.0920 -0.5008
16509W        W35256  28.031  29.650   2.768 -0.3202 -0.0689 -0.0002
16510W        W35257  32.087  10.024  10.456  0.1031  0.0752 -0.0490
16511W        W35258   6.370  10.079  24.668  0.1028 -0.3791 -0.1621
16512W        W35259  31.589  33.520   1.361 -0.0806 -0.0546 -0.0735
16513W        W35260  33.758  31.952  14.644  0.1480 -0.1518 -0.1525
16514W        W35261  17.050  27.018   4.213 -0.2528 -0.1488 -0.1328
16515W        W35262  17.014  18.985   1.377 -0.0087 -0.0972  0.0370
16516W        W35263  17.526  19.385   3.859 -0.0026  0.0553  0.1271
16517W        W35264  30.539  33.666  19.871 -0.2554 -0.2825  0.4414
16518W        W35265  14.293   0.253  21.824  0.2284  0.2010 -0.3240
16519W        W35266  33.463   4.698  14.876  0.1616  0.1242 -0.2642
16520W        W35267   1.937  24.347   0.602 -0.0193 -0.0771 -0.2754
16521W        W35268   5.460   1.903   4.267  0.1699 -0.0161  0.2132
16522W        W35269  26.344   4.461   5.992  0.0967 -0.0028 -0.0259
16523W        W35270  20.722  15.235   0.987  0.3586  0.0144  0.2556
16524W        W35271   3.480  32.788  10.403 -0.2318 -0.1453 -0.0681
16525W        W35272   5.587  24.995   4.681  0.0600 -0.1397  0.4342
16526W        W35273  21.375   0.484  25.362 -0.1746 -0.2167  0.0890
16527W        W35274  17.006  12.936   8.430 -0.0897  0.0007  0.0520
16528W        W35275  27.968  34.519   4.513 -0.0007 -0.2088 -0.2637
16529W        W35276  21.256   6.944  23.732 -0.0889 -0.2346  0.0651
16530W        W35277   7.445   1.936  20.767  0.0177 -0.3913 -0.0171
16531W        W35278  11.484  25.377  24.546 -0.0064 -0.2559 -0.1196
16532W        W35279  11.874  19.163   5.188  0.3849 -0.4455 -0.0457
16533W        W35280  16.239  27.880   6.274  0.1711  0.0957  0.0628
16534W        W35281  32.441  25.223  14.735 -0.0471  0.0836 -0.3489
16535W        W35282  10.945  15.101   5.453  0.0197  0.1249  0.0041
16536W        W35283   7.755  24.477  15.396 -0.3061 -0.0054 -0.0338
16537W        W35284  17.882  21.479   7.268  0.2081  0.1327 -0.0993
16538W        W35285  11.534  24.204  15.770 -0.2408 -0.1188  0.0818
16539W        W35286  16.060   3.223   4.805 -0.1210 -0.1149 -0.0107
16540W        W35287   9.242  32.019   5.361  0.0287  0.4776  0.3330
16541W        W35288  31.604  32.756  24.650  0.0539 -0.1788 -0.2343
16542W        W35289  29.191  14.707  23.211 -0.2271 -0.2380 -0.1696
16543W        W35290  19.130  18.541  21.508 -0.0999  0.0997  0.4546
16544W        W35291   0.802  31.235   4.264  0.2202 -0.1508 -0.0298
16545W        W35292  24.642   2.679  17.927  0.1317 -0.0375  0.3161
16546W        W35293  10.599  14.991   5.904 -0.1256  0.1489 -0.0745
16547W        W35294  28.000  10.936  10.900 -0.1830  0.0215 -0.2492
16548W        W35295   5.937  31.393   3.668  0.0279  0.0962  0.1227
16549W        W35296  22.613  28.467  22.969 -0.3738  0.1267  0.1106
16550W        W35297  33.742  14.808  22.486 -0.2023 -0.1170  0.0707
16551W        W35298  32.273  13.260  11.108 -0.3328  0.1916  0.2636
16552W        W35299   9.705   9.880  21.225 -0.2297  0.2511 -0.1849
16553W        W35300   8.273  20.765   9.992 -0.1194  0.3336  0.0680
16554W        W35301   9.735   1.013  21.024  0.2446  0.0075  0.1397
16555W        W35302  10.721  27.793   7.386  0.1412 -0.2687 -0.2210
16556W        W35303  11.517  19.298  22.069  0.2554 -0.1145  0.1294
16557W        W35304  32.045  12.332  12.020 -0.0842  0.1647 -0.1963
16558W        W35305  10.321  31.876   4.946 -0.3004  0.1095  0.0285
16559W        W35306  11.071  15.884   5.984 -0.1728  0.1567 -0.0447
16560W        W35307   1.753   1.198   0.187  0.0776 -0.1692 -0.1121
16561W        W35308  23.839   5.920  20.788 -0.0458  0.2053  0.0596
16562W        W35309   2.345   3.056  18.611 -0.1025 -0.0374 -0.0686
16563W        W35310  28.703  33.554   3.252 -0.1051 -0.3613  0.1055
16564W        W35311   0.352  34.655   1.065 -0.3176 -0.1090  0.1507
16565W        W35312   0.198  12.793  25.175 -0.0951  0.0457 -0.1002
16566W        W35313  14.826  31.460  14.233 -0.2369 -0.0445 -0.0521
16567W        W35314  26.376  13.615   0.304 -0.2355  0.1762  0.2006
16568W        W35315  13.714  14.669   9.643  0.0931  0.2233 -0.0700
16569W        W35316  16.678  28.841  24.510  0.3417 -0.0379 -0.1828
16570W        W35317  12.279   2.343   8.402  0.2970  0.0432  0.2068
16571W        W35318  35.240  22.533  22.649  0.0459 -0.0982 -0.1576
16572W        W35319  22.087   7.009   3.951 -0.0721 -0.2142 -0.2217
16573W        W35320   0.139  31.098   3.277  0.2060 -0.1961 -0.1798
16574W        W35321  16.445  23.197  23.649  0.4670 -0.3604  0.1587
16575W        W35322  14.413  17.122  21.922  0.0290  0.0728  0.1512
16576W        W35323   9.930  21.051   0.329  0.0127  0.0161  0.3190
16577W        W35324  24.024  31.532  19.693 -0.0402 -0.0848 -0.0372
16578W        W35325  24.808  14.753  24.279 -0.1247  0.1092  0.3469
16579W        W35326  15.629  16.779  19.307 -0.1479 -0.0212  0.0877
16580W        W35327   5.324   5.498  10.648  0.0395  0.0292  0.1192
16581W        W35328  14.945  14.973   4.320  0.0280  0.0314 -0.0153
16582W        W35329  16.378  16.844   0.584 -0.1657 -0.1248 -0.0382
16583W        W35330  12.934   7.649  14.412  0.0025  0.3593  0.0702
16584W        W35331  24.670   6.493  19.008 -0.2830  0.3929 -0.1356
16585W        W35332  26.728  20.765  22.648 -0.0530  0.0842 -0.0390
16586W        W35333  10.744   9.376   6.755 -0.1671  0.1689  0.0484
16587W        W35334   3.743  26.326  24.120  0.2460  0.1442 -0.2096
16588W        W35335  20.026   7.959  17.214 -0.2476 -0.1796  0.1097
16589W        W35336   6.480  14.584  21.059  0.3513 -0.0278  0.1209
16590W        W35337  13.343  13.765  25.139  0.0358  0.0246 -0.0417
16591W        W35338   4.885   9.776   4.792  0.1089 -0.1555 -0.0910
16592W        W35339  18.219   6.526   2.372 -0.2895  0.0981  0.1179
16593W        W35340  31.490   1.686  24.462  0.0025  0.1410  0.2363
16594W        W35341   3.881  17.732   0.757  0.1191  0.0081 -0.0592
16595W        W35342  12.777  10.145   9.248  0.0961 -0.1988  0.0093
16596W        W35343  17.796  15.404   2.722  0.1666 -0.1426  0.0316
16597W        W35344  26.786  18.656  14.231 -0.0658 -0.2116 -0.3330
16598W        W35345  34.000   2.209   5.055  0.1635 -0.2047  0.1109
16599W        W35346  24.602   7.407   2.979 -0.0807 -0.1787 -0.2472
16600W        W35347  24.035  23.289  25.187 -0.1776 -0.0490  0.3324
16601W        W35348  28.905  14.708   8.281  0.1833  0.5256  0.1115
16602W        W35349  32.487  20.042  12.035  0.0344 -0.1668  0.0481
16603W        W35350  29.678  19.691  24.622 -0.1603 -0.1645 -0.1094
16604W        W35351  17.587  13.578   6.728 -0.1828  0.1720 -0.1222
16605W        W35352  24.345  14.303  21.864 -0.4187 -0.0446  0.4176
16606W        W35353  20.212   9.055  24.530  0.2818  0.1069  0.1036
16607W        W35354  28.910  18.756  13.608 -0.0289  0.0331 -0.1125
16608W        W35355  10.633  20.835   8.896  0.1127 -0.1336 -0.0459
16609W        W35356   9.481  12.900  20.249 -0.3701  0.0154  0.0081
16610W        W35357  23.980  33.056  11.947  0.2618  0.1188 -0.1506
16611W        W35358  10.615  17.535   3.415  0.0955  0.1810 -0.3203
16612W        W35359   7.878  16.516   9.462  0.1648 -0.0184  0.3536
16613W        W35360   6.605  11.653   1.054 -0.1410  0.2481  0.0618
16614W        W35361  13.829   0.642  12.267  0.3849 -0.3202 -0.0540
16615W        W35362   1.483   1.300  22.602  0.0607 -0.0297 -0.1558
16616W        W35363  11.534   1.035   0.959  0.2215 -0.1328 -0.2605
16617W        W35364  24.509   2.392  25.102  0.1504 -0.1680 -0.0609
16618W        W35365  33.715   9.843   9.182 -0.2880 -0.0728  0.0928
16619W        W35366  20.715  27.290   3.803  0.4811  0.1281  0.2266
16620W        W35367   5.527   0.263   9.581 -0.3915  0.1531  0.0995
16621W        W35368  16.103  17.647   1.686  0.2944 -0.2289  0.4029
16622W        W35369   0.181  13.692  18.236  0.1388  0.4131 -0.0013
16623W        W35370  11.090  21.903   3.197 -0.5106 -0.2041  0.0186
16624W        W35371   6.170  28.233  26.084 -0.0519  0.0388  0.0469
16625W        W35372  27.149  29.225   3.727 -0.0714  0.1286 -0.0185
16626W        W35373  33.594  22.202  13.449 -0.0797  0.0399 -0.0808
16627W        W35374  17.790  26.314   9.616  0.2351  0.0449  0.0369
16628W        W35375  14.528  16.343  12.892  0.4270  0.1310 -0.0728
16629W        W35376  25.504  30.417   3.903 -0.0513 -0.1188  0.2301
16630W        W35377  16.065  23.173   2.957 -0.2168 -0.2055  0.4091
16631W        W35378  18.040  29.826   9.589 -0.3433 -0.1473 -0.2122
16632W        W35379   6.175  29.026   9.290 -0.3172 -0.1606  0.2735
16633W        W35380   3.588   3.295  21.808 -0.0843  0.2285  0.1017
16634W        W35381  27.025  25.044  14.847  0.1103 -0.0464  0.2322
16635W        W35382  15.340  11.619  11.170  0.2147 -0.0735 -0.1981
16636W        W35383   2.640   5.751  16.620 -0.1657 -0.1899  0.0243
16637W        W35384   0.173   8.015  18.636  0.0817  0.0774  0.0933
16638W        W35385  13.652  26.946  15.993 -0.4073  0.1922 -0.0194
16639W        W35386   6.760  11.685  24.113 -0.0653 -0.3480 -0.2003
16640W        W35387   2.210  30.327  10.841  0.1394  0.0784 -0.1296
16641W        W35388  13.694   0.919   0.351  0.1362  0.0227  0.0164
16642W        W35389   0.550  18.218  21.601 -0.2937  0.0021 -0.0156
16643W        W35390   2.744   9.652  24.767 -0.1436  0.0935 -0.1967
16644W        W35391  33.528  18.806   0.155  0.3403  0.5702 -0.0392
16645W        W35392  34.820  31.643   1.736 -0.0561  0.1258 -0.1695
16646W        W35393  16.808  32.108   9.299  0.3367  0.2513  0.3738
16647W        W35394  29.081  21.931  23.036  0.2600 -0.0563 -0.1542
16648W        W35395   4.256  11.993  22.339 -0.0931  0.0592  0.1074
16649W        W35396  19.933  11.479  25.753  0.1161  0.2151 -0.2042
16650W        W35397  10.453   9.534   9.720 -0.0097  0.2272 -0.1704
16651W        W35398  28.473   5.551  11.485  0.0141  0.0681  0.0524
16652W        W35399  10.672  25.040  17.658  0.0573  0.4779 -0.1433
16653W        W35400   5.958  11.340  21.330 -0.1697 -0.1266  0.1407
16654W        W35401   9.948   1.801  14.363  0.0159  0.1806 -0.0129
16655W        W35402  27.498  27.787  25.073  0.0592 -0.5695  0.1732
16656W        W35403   7.173   3.694  12.752  0.0871  0.1868  0.2771
16657W        W35404  22.576  25.641  23.692  0.0909 -0.0852  0.1330
16658W        W35405  21.023  30.626  24.870 -0.5011  0.1738 -0.0568
16659W        W35406  33.474  24.236  20.460  0.2024  0.2549  0.1760
16660W        W35407  13.683  33.678  23.204  0.3255  0.1832 -0.4328
16661W        W35408  25.577  29.540   0.271  0.1069  0.1370 -0.4162
16662W        W35409  12.353  17.747  20.392  0.3966  0.4127 -0.0588
16663W        W35410  18.799  20.213   1.003  0.1550 -0.0153  0.1845
16664W        W35411  32.161  22.150  19.916 -0.0263  0.0206  0.4014
16665W        W35412  16.142  15.867  12.928  0.1211  0.1511  0.0490
16666W        W35413  28.724  18.665   8.781 -0.1221  0.0733  0.1419
16667W        W35414  29.553  26.524   1.672 -0.2430 -0.0523  0.1987
16668W        W35415  12.219  29.020   5.027  0.2116 -0.1957  0.3238
16669W        W35416   8.790  13.704   0.594 -0.0388 -0.1736  0.3606
16670W        W35417  34.575  13.927  14.575 -0.0200 -0.2091 -0.1229
16671W        W35418   0.579  25.871  24.949  0.1437 -0.0709 -0.1360
16672W        W35419  21.084   4.915  16.698  0.0158 -0.0893 -0.0129
16673W        W35420  15.983  21.269  14.435  0.0804 -0.2427  0.0062
16674W        W35421  20.732  31.557   0.624  0.0950  0.4158 -0.1010
16675W        W35422   7.291   0.677   7.634 -0.3391  0.1231 -0.2026
16676W        W35423  27.142  28.249  23.915  0.0851 -0.2685  0.0808
16677W        W35424  30.266  30.910  21.170  0.0180  0.1247 -0.0458
16678W        W35425  25.960  23.349  19.584 -0.0844 -0.1702 -0.0359
16679W        W35426  15.731  17.919   2.462 -0.0863 -0.0030 -0.0355
16680W        W35427  23.229  13.900  15.534  0.1166 -0.1374 -0.0221
16681W        W35428  25.824  27.668  19.907  0.0755  0.0514  0.0860
16682W        W35429   0.104   3.484  23.499 -0.1150 -0.1576 -0.4564
16683W        W35430  30.363  32.352   1.302 -0.2257 -0.0546  0.0528
16684W        W35431   4.169  34.657   2.529  0.0488  0.1349  0.0700
16685W        W35432  19.830  13.539  23.610  0.4106 -0.0139  0.0720
16686W        W35433   2.946  21.770   3.955 -0.0007  0.2220  0.2718
16687W        W35434  18.626  13.189  19.866  0.1501 -0.2329  0.1538
16688W        W35435  18.166  28.607   5.873 -0.2255  0.1503 -0.1259
16689W        W35436   7.704  31.076  13.757 -0.0352 -0.0426 -0.0900
16690W        W35437  28.762   2.792  12.177  0.2466 -0.0280  0.1316
16691W        W35438  28.193  29.884  20.595 -0.4232  0.2742  0.0403
16692W        W35439  16.001  12.724  23.751  0.0710  0.4871  0.4512
16693W        W35440   5.302  23.431  21.121  0.0907  0.2751  0.1200
16694W        W35441  21.278  20.072   0.856 -0.1248  0.2653 -0.1065
16695W        W35442  14.037   4.821  11.680  0.1923 -0.2487  0.1106
16696W        W35443  17.775   3.436   7.487 -0.1751  0.0323 -0.0424
16697W        W35444  32.884   1.155  21.826  0.1423 -0.0563  0.0760
16698W        W35445   2.997  13.300  17.393  0.1419 -0.2362 -0.0910
16699W        W35446  18.479  21.146  18.424  0.0196  0.0391  0.2840
16700W        W35447  11.794   0.307   8.180  0.0293  0.0081 -0.2885
16701W        W35448  32.346  29.635  22.223  0.2567  0.1715 -0.1652
16702W        W35449   7.547   2.963   7.110  0.0837 -0.1562 -0.4744
16703W        W35450  27.617   0.949  13.901 -0.1355 -0.1091  0.3906
16704W        W35451  19.933  14.678  22.896  0.0349 -0.2353  0.1520
16705W        W35452  29.975  13.707  17.433 -0.1425  0.2988  0.0659
16706W        W35453  12.265   5.683   0.673 -0.1685  0.1633  0.0974
16707W        W35454  26.672  26.586  19.339 -0.1285  0.1462  0.1522
16708W        W35455   8.529   4.311  13.705  0.0611  0.0054 -0.1194
16709W        W35456  18.943  13.965  24.497 -0.0959 -0.1948  0.1187
16710W        W35457  31.262  27.449  23.420  0.3109 -0.0588  0.0044
16711W        W35458   6.040   1.752  11.824  0.0101  0.1202 -0.0022
16712W        W35459   5.119   4.839  18.108  0.0445  0.1588  0.0429
16713W        W35460  25.222  17.917   9.706  0.1049 -0.1037 -0.2002
16714W        W35461  21.409  35.223   4.840 -0.1594  0.3383  0.0289
16715W        W35462   0.824  32.213   4.366 -0.0737  0.1462  0.1740
16716W        W35463  24.463  30.951  16.154  0.1905 -0.1733  0.0810
16717W        W35464  17.335  18.110  10.236  0.1967 -0.2787 -0.0499
16718W        W35465   0.883  19.267  17.956 -0.1472 -0.0096 -0.1214
16719W        W35466  26.890  13.892   6.476 -0.1817  0.1948  0.0254
16720W        W35467  32.907  28.385   0.319  0.1162  0.1111 -0.0854
16721W        W35468  33.789  18.801  18.507 -0.3822  0.1074 -0.1352
16722W        W35469  29.082  13.551  14.270  0.3941  0.1118  0.1991
16723W        W35470  25.682  12.012  14.407 -0.0350 -0.0300  0.1207
16724W        W35471  35.111  24.670  16.732  0.2756  0.1558 -0.0908
16725W        W35472   4.077   3.882  24.927  0.1119 -0.0604  0.3442
16726W        W35473  32.542  15.633   0.787 -0.3895  0.1542 -0.0703
16727W        W35474  11.877   0.595   5.703  0.1535  0.0416  0.0936
16728W        W35475  18.469   8.040   5.943  0.2580 -0.3414 -0.1229
16729W        W35476  26.466  35.063  23.544 -0.1685  0.1300  0.0797
16730W        W35477   8.910  11.614   4.325 -0.0093 -0.1806  0.0630
16731W        W35478  33.564  25.012  20.121  0.1458 -0.2193 -0.0396
16732W        W35479   7.283  28.289  13.549  0.0427 -0.2225 -0.1322
16733W        W35480  30.886  26.119  21.588  0.1392 -0.0628  0.0419
16734W        W35481  21.735  31.303  19.351  0.2092 -0.0048 -0.0242
16735W        W35482  14.049  29.490  25.014 -0.0844  0.2041  0.2815
16736W        W35483  18.354  30.195  19.403  0.0230 -0.1675  0.2702
16737W        W35484  12.615  20.972  24.779 -0.0593 -0.1041 -0.1277
16738W        W35485  21.930  27.580   6.205  0.0016  0.1404  0.0339
16739W        W35486  17.327   3.540   8.230 -0.1864 -0.1272  0.3367
16740W        W35487   4.762  30.909   9.446  0.0439 -0.0861 -0.0101
16741W        W35488   3.111  21.202  15.494  0.0984 -0.1072 -0.1246
16742W        W35489  34.767  27.903   5.199 -0.3371  0.2589 -0.0348
16743W        W35490  32.566  33.010  19.092 -0.2357  0.1284  0.1722
16744W        W35491  14.368   2.146  24.749 -0.1933 -0.1492  0.2569
16745W        W35492  10.685  33.419   3.727  0.0457  0.0914  0.1687
16746W        W35493   4.858  15.670  18.023  0.2987 -0.0710  0.0439
16747W        W35494   2.750  34.941  19.107  0.0541  0.0757  0.0374
16748W        W35495  27.068  23.445  18.164 -0.1215 -0.1113  0.0729
16749W        W35496   2.235  31.039  22.271  0.1621  0.1918  0.0700
16750W        W35497  28.026  29.252  15.066  0.3342  0.0751  0.2339
16751W        W35498  13.611   3.942   6.771  0.1300 -0.1351  0.0254
16752W        W35499  21.327   3.445  15.595  0.0559  0.0468  0.0101
16753W        W35500  35.015  29.367  24.944  0.2128 -0.1668  0.0591
16754W        W35501  32.459  14.941  17.596 -0.0678  0.1764  0.0816
16755W        W35502  29.549  15.756  10.387 -0.1762 -0.2509 -0.0435
16756W        W35503  21.947  16.611  17.987  0.1265 -0.1986  0.0276
16757W        W35504   7.788  28.434  14.713  0.0002  0.0665 -0.0728
16758W        W35505  32.060  29.072  17.576 -0.0159  0.0275 -0.0185
16759W        W35506   2.927  35.356  19.816 -0.0577 -0.0048 -0.0918
16760W        W35507   8.306  19.173  21.829 -0.0525  0.1673 -0.3397
16761W        W35508   4.220  13.541  23.237 -0.0381  0.0667 -0.1543
16762W        W35509   6.879  29.262   7.557 -0.0181 -0.1781  0.3299
16763W        W35510  18.638   7.932  12.403 -0.0684  0.0783  0.1337
16764W        W35511  10.850  14.495   0.973 -0.1467  0.2287 -0.0757
16765W        W35512  10.279   4.172  24.306 -0.3679  0.1858  0.3581
16766W        W35513   6.361   2.124  23.629  0.0357  0.2573  0.0049
16767W        W35514   9.960  26.126   0.451 -0.2586  0.3150  0.0565
16768W        W35515  29.830  27.553  12.043  0.1665 -0.1690  0.3799
16769W        W35516  23.641  11.485  26.045 -0.1970 -0.1617 -0.1923
16770W        W35517   3.844   9.624   7.090 -0.2238 -0.4758  0.0731
16771W        W35518  14.277  27.752   8.382  0.0839 -0.1099 -0.0096
16772W        W35519  10.296  12.029  22.110  0.0082  0.0484  0.0176
16773W        W35520   1.462  11.351  17.040 -0.1839  0.2169 -0.1851
16774W        W35521  11.657  32.047  14.448 -0.0439 -0.1444  0.0027
16775W        W35522   1.189  22.407  10.730 -0.2570 -0.0023  0.1068
16776W        W35523  35.108  34.450  17.834  0.0390 -0.1037 -0.2162
16777W        W35524  15.232  12.521  25.494  0.1965 -0.1493  0.1129
16778W        W35525  29.446  35.304  19.753 -0.1318 -0.0833 -0.1198
16779W        W35526  28.588   1.402  21.966  0.2463 -0.2182  0.3757
16780W        W35527   3.218  29.562  18.755 -0.2430 -0.0923 -0.0789
16781W        W35528   9.114   8.007   3.351 -0.3239 -0.1233  0.1419
16782W        W35529  11.463  13.411  20.553  0.2456 -0.1658  0.0435
16783W        W35530  13.436   8.555  14.097  0.0126 -0.1042  0.3067
16784W        W35531  25.287  26.459  25.552  0.3209  0.0585  0.3565
16785W        W35532  15.146   0.954  22.029  0.0315  0.1379  0.2825
16786W        W35533  30.883  20.367  17.315  0.0125  0.0034 -0.1421
16787W        W35534  25.921  34.604  11.989 -0.1418 -0.0481  0.2503
16788W        W35535  21.216   1.593  20.447 -0.0379  0.0312  0.1344
16789W        W35536  29.190   0.789  21.537  0.1506 -0.1065  0.1689
16790W        W35537  32.413  20.251  15.105  0.2179 -0.0702  0.3632
16791W        W35538  33.054   1.490  22.474  0.0940 -0.5879 -0.0664
16792W        W35539  29.938  17.166   8.682  0.0557  0.0637  0.2680
16793W        W35540   3.751   7.288  19.010 -0.2305 -0.1091  0.2026
16794W        W35541  20.828   3.703   5.110  0.0899  0.1780  0.5317
16795W        W35542  18.451   9.072   8.659  0.0914  0.2176 -0.2625
16796W        W35543  12.618   2.831   7.411  0.0549 -0.2163 -0.1193
16797W        W35544   5.215  31.706  21.571  0.1000 -0.0653 -0.2113
16798W        W35545  26.411   0.976  12.170  0.2109 -0.0096  0.1022
16799W        W35546   5.728  31.966   2.105  0.0333  0.0039 -0.0616
16800W        W35547  30.729   1.341   6.102  0.1466  0.0030 -0.0868
16801W        W35548  10.626  18.898  11.036 -0.4874 -0.1849  0.1046
16802W        W35549  12.890  15.400  20.842  0.0360 -0.1328  0.1542
16803W        W35550  22.940  20.749  18.789 -0.1872 -0.0299  0.2140
16804W        W35551   3.336   2.111   8.408 -0.1695  0.2622 -0.1372
16805W        W35552  12.783  10.996   2.585 -0.2491  0.3105  0.1749
16806W        W35553  25.753   0.202  16.289  0.1476 -0.0215 -0.0683
16807W        W35554  34.878  11.311  21.495 -0.4442  0.1239 -0.2627
16808W        W35555   3.991   1.887   5.772  0.1574 -0.1406 -0.0909
16809W        W35556  31.394  23.811  23.150  0.1448 -0.0502  0.1972
16810W        W35557   2.103  14.805  22.394 -0.5180  0.3830 -0.0682
16811W        W35558  18.818   2.992  24.093  0.0074  0.1074  0.0207
16812W        W35559  21.144   9.834  18.034  0.2034  0.3635  0.0108
16813W        W35560   6.992   1.876   1.376  0.1939 -0.2685  0.0422
16814W        W35561   4.499  34.578  18.997  0.2885  0.2847  0.0313
16815W        W35562  20.266  18.561   5.840  0.0869 -0.0808  0.2664
16816W        W35563  21.861  28.009  16.641 -0.2553  0.1198  0.1080
16817W        W35564   4.055   8.249   5.911 -0.3402 -0.1533  0.1176
16818W        W35565  12.316  20.180   9.118  0.0247 -0.2964 -0.1072
16819W        W35566  10.598   6.838   0.622 -0.1798 -0.0305  0.1895
16820W        W35567  29.266   5.463  24.184  0.3399  0.2839 -0.1665
16821W        W35568  33.884   0.000   4.366  0.4116 -0.3989  0.0718
16822W        W35569  33.804  35.051   5.844  0.2220 -0.0753 -0.1505
16823W        W35570  31.898  11.589  17.274  0.0618 -0.3232  0.4156
16824W        W35571  23.856   0.092  25.461  0.0017  0.0584 -0.1486
16825W        W35572  18.734  25.696  21.703  0.0978  0.2469  0.1454
16826W        W35573   7.428   7.782   3.617 -0.2902 -0.2739 -0.2268
16827W        W35574  29.526  15.196  17.299  0.2708 -0.2374 -0.0860
16828W        W35575  17.626  35.037   4.121  0.1470 -0.0506  0.0641
16829W        W35576  29.339   3.796   0.044  0.0336 -0.2994 -0.2103
16830W        W35577  32.633  15.899  21.495  0.2951 -0.2127  0.2469
16831W        W35578  31.073  33.521  14.532 -0.3852  0.1991 -0.2673
16832W        W35579  20.115  20.563   0.890  0.0285 -0.1047  0.1274
16833W        W35580  11.778  14.291  22.435  0.0358  0.1079  0.2159
16834W        W35581   5.651   9.702   0.620  0.0681  0.4743 -0.2397
16835W        W35582   9.905   9.614   3.419 -0.2173 -0.1996 -0.2469
16836W        W35583  15.259  18.030  24.003 -0.1726  0.0275 -0.0370
16837W        W35584  21.816   4.407  18.055 -0.0114  0.2005  0.0966
16838W        W35585   3.049  32.289  23.308  0.3483 -0.2623 -0.0613
16839W        W35586  28.783  11.361  14.631 -0.0326 -0.0266  0.0780
16840W        W35587  27.155  24.952  18.582 -0.1482 -0.3060  0.2203
16841W        W35588  24.061  28.461  12.702 -0.1364 -0.2765  0.1234
16842W        W35589  32.788  35.377   6.173 -0.1728 -0.0072 -0.2301
16843W        W35590   2.818  28.384   2.023  0.1756  0.2385 -0.0171
16844W        W35591  31.260  26.209  11.409  0.3341 -0.0979  0.2766
16845W        W35592   1.413   4.739   4.088 -0.1157 -0.1520  0.1965
16846W        W35593   9.177  22.932  22.628  0.0770 -0.2231 -0.3257
16847W        W35594  11.099  10.899   5.484  0.4772  0.0424  0.5979
16848W        W35595  18.163   8.060   7.652  0.1247 -0.4099 -0.2597
16849W        W35596   8.093  12.062  21.681  0.3632  0.1340  0.2179
16850W        W35597  32.307  16.404  17.532  0.2697  0.3641 -0.1889
16851W        W35598  14.399  13.071   5.591 -0.1786  0.3244  0.0943
16852W        W35599  14.739   8.372   4.517 -0.1808 -0.0187 -0.3135
16853W        W35600  32.697   2.893  20.948  0.1241  0.1311 -0.1000
16854W        W35601  18.014   5.068  26.239  0.1865  0.0770  0.0520
16855W        W35602  33.139  15.401  11.679 -0.3010 -0.1351 -0.0739
16856W        W35603  21.853  17.197  20.780  0.1744  0.0189  0.0258
16857W        W35604   2.823   7.899   6.502  0.0845  0.2092 -0.1460
16858W        W35605  26.314  32.516  24.550  0.1932  0.1763  0.2845
16859W        W35606  21.571   1.561  21.666 -0.0324 -0.0881 -0.1324
16860W        W35607  23.506   2.347  18.284 -0.1415 -0.0080 -0.0396
16861W        W35608   7.012  14.706  21.037 -0.4226  0.2550  0.1168
16862W        W35609  15.709   7.360   4.619 -0.1611  0.2973  0.0951
16863W        W35610  10.085   6.034   6.422  0.0160 -0.2274 -0.1715
16864W        W35611  20.974  24.966   5.982 -0.2368  0.1124 -0.1106
16865W        W35612  16.302   0.374  21.243 -0.1588  0.1376  0.1272
16866W        W35613  10.171  24.730  10.216  0.2766  0.1259  0.1336
16867W        W35614   3.834  10.255  22.668  0.1260 -0.1285 -0.0586
16868W        W35615  20.608  26.787  25.439 -0.2374  0.0230 -0.0307
16869W        W35616  19.110  21.517  19.327 -0.1476  0.0491 -0.4052
16870W        W35617   5.314  22.753  21.154  0.1558 -0.1367  0.0306
16871W        W35618   6.244  29.778  24.204 -0.1927 -0.1608 -0.1519
16872W        W35619  29.449  34.687  13.445  0.1655 -0.1296  0.0076
16873W        W35620  23.424  13.512  24.134  0.0645 -0.1100  0.1362
16874W        W35621  27.970  11.429  12.843 -0.2004 -0.1374 -0.0403
16875W        W35622  19.592  17.453  25.397  0.1384  0.0379 -0.0747
16876W        W35623  34.019   3.789  16.170 -0.1510 -0.0850 -0.2127
16877W        W35624  28.884  34.387  25.524 -0.2589  0.1370 -0.0673
16878W        W35625  16.841  12.183   3.979 -0.0406  0.2400  0.2416
16879W        W35626  12.833  24.767  22.247  0.2592  0.1397  0.1797
16880W        W35627   1.029   3.364   6.408  0.5220 -0.1014  0.3766
16881W        W35628   8.698  15.545   0.021 -0.0094  0.0587 -0.1426
16882W        W35629   6.269   0.015  19.931  0.1218  0.0724 -0.1034
16883W        W35630  18.246  16.092   9.068  0.0000 -0.1031  0.1535
16884W        W35631  24.657  10.034   2.232  0.0679 -0.2155  0.0040
16885W        W35632  26.622  14.694  15.389  0.2033 -0.1168  0.0456
16886W        W35633   8.513   3.087  20.279  0.2186 -0.1532  0.1576
16887W        W35634  19.946  29.752   6.551  0.3598  0.0148  0.3680
16888W        W35635  35.209  14.182  23.119 -0.2144 -0.2593 -0.1868
16889W        W35636   8.082   1.651   3.784 -0.1286 -0.2076  0.0255
16890W        W35637   2.248  35.232   5.336 -0.1862  0.0138  0.1357
16891W        W35638  35.308  19.236   1.143  0.0872  0.1963 -0.1257
16892W        W35639  19.384  31.787  24.272 -0.0412  0.0039 -0.0037
16893W        W35640   0.439  12.084  20.314  0.1093  0.0075  0.1073
16894W        W35641  13.693  21.176  14.592  0.0284 -0.0853 -0.1720
16895W        W35642  18.866  29.388   4.608 -0.0693 -0.2332 -0.1061
16896W        W35643  26.533  33.190  14.079 -0.1788  0.0597 -0.2039
16897W        W35644  30.262  23.305  23.377  0.0702  0.0394  0.3389
16898W        W35645   7.755   4.667   7.590  0.0209  0.3858 -0.0713
16899W        W35646  33.439   7.904  13.045 -0.1561  0.5316  0.2228
16900W        W35647  15.377  18.214   3.899 -0.2668 -0.0482 -0.0484
16901W        W35648   8.370  25.539  17.081  0.2644  0.1079  0.0031
16902W        W35649  31.783   1.959  14.115  0.0294 -0.1481  0.2875
16903W        W35650   4.244   6.215   3.342  0.1073 -0.0829 -0.0902
16904W        W35651  33.498  26.249  19.788 -0.1642  0.2018 -0.1638
16905W        W35652  33.701  28.067   2.141 -0.0605 -0.0529 -0.0456
16906W        W35653  35.078   7.411  12.665  0.0277 -0.1495  0.0038
16907W        W35654   5.200  23.597  25.398  0.0199  0.1309  0.0483
16908W        W35655  13.356  14.987   6.157 -0.1690  0.1588  0.1199
16909W        W35656  10.602  30.615  23.654  0.0117 -0.2020 -0.2313
16910W        W35657  12.685  31.415   9.616 -0.0068 -0.2049 -0.1254
16911W        W35658  16.017  30.328   9.053  0.1085  0.2481 -0.1900
16912W        W35659   6.273  33.291  10.718 -0.0630 -0.0648 -0.2057
16913W        W35660  26.098   0.781   5.796  0.0704 -0.2824 -0.3002
16914W        W35661  31.862  31.893   2.506 -0.0565  0.1711 -0.1171
16915W        W35662   0.823   4.553   4.560 -0.1237 -0.0139 -0.0401
16916W        W35663   0.772  24.037  17.294  0.0457  0.1032  0.0234
16917W        W35664  19.569  16.478   6.919 -0.0996  0.0629  0.1925
16918W        W35665   0.964   3.665   0.780  0.1519  0.2873  0.3065
16919W        W35666   3.191  15.855  22.853 -0.0923 -0.1108  0.1790
16920W        W35667  33.821  17.252  12.736  0.4142  0.2329 -0.2299
16921W        W35668  29.953  13.547  21.088  0.1857  0.0148 -0.0702
16922W        W35669  10.976  11.560   4.219  0.0508 -0.2657 -0.0044
16923W        W35670  26.685  15.645  18.576  0.4392 -0.0683 -0.3702
16924W        W35671   1.687  19.804  11.562  0.0524 -0.1842  0.3465
16925W        W35672  11.934  31.638  14.603  0.2145 -0.1624  0.0214
16926W        W35673  29.509  16.834  14.785  0.0540 -0.1221 -0.4494
16927W        W35674  32.546   6.177  14.044  0.1996 -0.1923  0.2732
16928W        W35675  24.574  15.386  20.623 -0.1750  0.1006  0.0494
16929W        W35676  15.462  24.081   8.673  0.0283  0.0845  0.2017
16930W        W35677  10.396   9.104   4.543 -0.1970 -0.0781 -0.1248
16931W        W35678   6.960   8.454  11.297  0.0821 -0.3687  0.0055
16932W        W35679   4.389  33.281   2.472  0.1268 -0.3435  0.1431
16933W        W35680  27.664   0.270  16.527 -0.4148 -0.0819 -0.0508
16934W        W35681  26.324  23.374  20.464 -0.1709 -0.3200  0.2138
16935W        W35682  17.555  23.126  13.091 -0.3057  0.0860  0.3644
16936W        W35683  16.899  23.580   9.344  0.0938 -0.2363  0.1176
16937W        W35684  34.710  28.492  23.388 -0.2351  0.2005 -0.0338
16938W        W35685   9.479  27.293  23.118 -0.2497  0.0241 -0.1152
16939W        W35686  10.322   0.045   4.271  0.2092  0.1580  0.1107
16940W        W35687  28.674  17.185  23.952 -0.0115  0.1068 -0.0724
16941W        W35688   6.798   0.614  20.531  0.2092  0.3097 -0.0469
16942W        W35689  21.210  22.480   1.432  0.0326  0.0669 -0.0915
16943W        W35690  29.365  24.321  16.537 -0.1646 -0.0479 -0.0678
16944W        W35691   8.343  15.311  18.715 -0.1132  0.3324 -0.0814
16945W        W35692   4.854  12.045  22.514  0.3851 -0.3167 -0.2200
16946W        W35693  24.788   7.347  12.753 -0.1171  0.2394 -0.0868
16947W        W35694  18.805  17.437  21.224 -0.1114  0.3439  0.0664
16948W        W35695  23.566  14.201  19.875  0.1275 -0.1327 -0.1227
16949W        W35696  20.001  25.869   1.598 -0.0378  0.0350 -0.0403
16950W        W35697  32.072  13.061  20.984 -0.2583  0.0696  0.2913
16951W        W35698  33.376  28.348  24.496 -0.1699 -0.0105 -0.0183
16952W        W35699   8.807   5.144   2.196  0.2201 -0.1574  0.2591
16953W        W35700   4.583   6.446  18.276  0.3226  0.0543  0.1432
16954W        W35701  32.789   4.148  13.549  0.1120 -0.4908 -0.0032
16955W        W35702  13.399  28.995  26.014 -0.0294 -0.1753  0.0796
16956W        W35703  34.798   0.256   0.290  0.0876  0.0332 -0.1340
16957W        W35704   4.562  24.399   2.548  0.0915  0.2861 -0.0087
16958W        W35705  24.047   3.589   2.465 -0.2185 -0.0157  0.1735
16959W        W35706  14.551  10.732  12.985 -0.1327 -0.0088 -0.0337
16960W        W35707  21.153  25.106  18.476  0.0468 -0.1709  0.1715
16961W        W35708  12.368   7.471   6.577 -0.0868 -0.1444 -0.0367
16962W        W35709  10.187   0.600   1.827 -0.1585 -0.0639  0.1319
16963W        W35710  18.079   5.750   6.715  0.1423 -0.3051  0.2437
16964W        W35711  23.617  21.889  15.404 -0.3204 -0.3368  0.0260
16965W        W35712  30.332  32.633   3.645  0.1334 -0.0483  0.0674
16966W        W35713  33.349  11.602  18.442 -0.0381 -0.1316 -0.0546
16967W        W35714  26.783  18.863  13.782  0.0196 -0.1768 -0.3268
16968W        W35715   6.817   4.129   5.258 -0.0780  0.0690 -0.0004
16969W        W35716  26.591  28.112  17.299  0.0904  0.4109 -0.2868
16970W        W35717  21.168  27.862  19.064 -0.2183  0.0190  0.0235
16971W        W35718  16.917   3.694   1.592 -0.0287  0.1733 -0.0564
16972W        W35719   9.432  23.767  24.109  0.0258 -0.1052 -0.0534
16973W        W35720  10.400   1.383   9.071  0.3579  0.0312 -0.1184
16974W        W35721   9.558  13.090  25.852 -0.1254  0.1409  0.0514
16975W        W35722  18.269  35.173   1.434 -0.1692  0.4294  0.0512
16976W        W35723  29.261  12.547  14.967 -0.0427 -0.0979 -0.5092
16977W        W35724  30.988  24.397  18.310 -0.4187 -0.3162  0.0325
16978W        W35725  19.094  34.585  25.692  0.0289 -0.2100 -0.0740
16979W        W35726  16.687  25.062  14.365 -0.1021  0.2244 -0.1577
16980W        W35727  12.119  30.999  24.200  0.0860  0.2992 -0.1406
16981W        W35728  18.991  25.402  21.996  0.3054 -0.0665  0.1041
16982W        W35729  19.685  16.603   6.295  0.3045  0.1968 -0.3066
16983W        W35730  14.497  18.450  24.875 -0.2242  0.3039  0.2254
16984W        W35731   5.727   2.656   2.416  0.0771  0.1666  0.2602
16985W        W35732  24.732  28.600  10.359  0.0727 -0.0973 -0.1148
16986W        W35733   4.913  12.828   8.639 -0.0071 -0.0429 -0.0569
16987W        W35734  11.176  27.918  23.227  0.0787 -0.0936 -0.0989
16988W        W35735  30.212  10.048  19.464  0.0851  0.0180  0.0033
16989W        W35736   9.650  20.661   9.784 -0.0726 -0.0886 -0.2919
16990W        W35737  30.711  14.416  22.260  0.1294  0.0407  0.1902
16991W        W35738   7.228  17.584  20.209  0.2840  0.1803 -0.1199
16992W        W35739  21.186  22.558   7.528  0.2000  0.1079 -0.0475
16993W        W35740  28.312   0.592  14.247  0.1829  0.2114  0.0650
16994W        W35741  20.571   8.447   5.745  0.2262 -0.1075 -0.2328
16995W        W35742  19.577   1.823   7.680 -0.2165 -0.2956 -0.3023
16996W        W35743  10.271  30.899   3.799 -0.2832 -0.2135 -0.0368
16997W        W35744  17.600  20.486  23.227  0.1870 -0.2434  0.4308
16998W        W35745  16.546   4.486  20.587 -0.1726 -0.1698 -0.1434
16999W        W35746  15.700  14.513   2.520 -0.1546 -0.1687 -0.1091
17000W        W35747  16.922  21.038   2.990 -0.2604 -0.3282  0.1915
17001W        W35748   3.716  10.577  24.459 -0.0639  0.2093  0.0445
17002W        W35749   6.880  26.582   6.202  0.2549  0.3965  0.0111
17003W        W35750  20.345  29.593  21.297 -0.0172 -0.0781  0.2839
17004W        W35751  19.500  13.729  17.266  0.0419  0.1560 -0.1630
17005W        W35752  11.686  27.798   6.088  0.0787 -0.1769 -0.0804
17006W        W35753  34.624  17.728  13.035  0.0220 -0.0144 -0.0129
17007W        W35754  21.274  25.732  17.980 -0.0783  0.0224 -0.0297
17008W        W35755  11.255  26.210  22.088  0.0336 -0.0182  0.0719
17009W        W35756   5.147  19.235   0.294 -0.0811 -0.2218 -0.2244
17010W        W35757  10.700  23.336   0.025  0.2938 -0.2131  0.0680
17011W        W35758  27.447  15.896  11.888  0.3572  0.1335  0.2666
17012W        W35759  14.445   7.930  13.425  0.0572  0.0027  0.1065
17013W        W35760  30.151  19.841   4.460  0.0182 -0.0449  0.1452
17014W        W35761  17.567   2.026  24.918  0.3776  0.3317  0.3932
17015W        W35762  29.408  35.122  13.679  0.2961  0.4001 -0.4860
17016W        W35763  32.795   3.370  16.221 -0.1789  0.1574 -0.1027
17017W        W35764   5.132  30.997  10.744  0.0780 -0.0459 -0.0434
17018W        W35765   2.953  17.048   2.460  0.1596 -0.1388 -0.2390
17019W        W35766  28.579   0.254  20.056  0.1209 -0.3037  0.1063
17020W        W35767   0.718  33.514   9.533 -0.3888  0.1338 -0.0925
17021W        W35768  32.592   2.632  21.414 -0.1047 -0.3284  0.1496
17022W        W35769  12.125   1.858   8.299  0.3647  0.0542 -0.0297
17023W        W35770   6.728   3.940   4.789 -0.0181 -0.0634 -0.0993
17024W        W35771  27.992  33.430  20.066  0.0806  0.3435 -0.1072
17025W        W35772   5.426   2.421  12.398 -0.2804  0.1707  0.3178
17026W        W35773  25.191  25.734   0.193  0.1907 -0.1006  0.0286
17027W        W35774   4.467  16.940   5.767  0.3192  0.1648 -0.2497
17028W        W35775  17.846  29.420   9.337  0.3077 -0.0116 -0.2980
17029W        W35776   1.127   1.035  16.025  0.1754 -0.1259 -0.0375
17030W        W35777   5.044  12.841  22.676  0.0984 -0.1074  0.1190
17031W        W35778  23.527  27.156   1.410  0.0817  0.0999  0.1969
17032W        W35779  33.992  20.408  11.988 -0.0707 -0.2440  0.3957
17033W        W35780  12.712  26.777  11.828 -0.0413 -0.0496 -0.2210
17034W        W35781   5.780  28.877   6.779 -0.1334  0.0888 -0.0642
17035W        W35782  11.791  15.157   1.139  0.0154 -0.0382  0.1076
17036W        W35783   0.238  14.649  16.700  0.1677  0.0910 -0.1541
17037W        W35784   4.134  18.320  25.158 -0.2159  0.2547  0.2224
17038W        W35785  28.574   0.744  10.939  0.0585 -0.1223  0.1884
17039W        W35786  12.722  28.599   0.226  0.1944 -0.1018  0.2266
17040W        W35787  20.642  31.406  21.772 -0.1692  0.0503  0.1899
17041W        W35788  34.509  14.460  21.671  0.0850 -0.3296 -0.0761
17042W        W35789  10.293   5.427  25.016  0.2923 -0.0526 -0.0766
17043W        W35790   0.064  18.788  16.374 -0.0515  0.0611  0.1109
17044W        W35791  32.513  28.856  24.655 -0.2323  0.0290  0.2362
17045W        W35792   4.188  10.439  20.094  0.0030  0.1132  0.1482
17046W        W35793  31.429  32.132  15.088  0.3355  0.1815 -0.2064
17047W        W35794  16.892  14.597  25.322 -0.0143  0.3962  0.0408
17048W        W35795  25.109  24.584  14.107 -0.2441 -0.2401  0.1438
17049W        W35796  16.870   9.096   2.877  0.1353 -0.1930 -0.0710
17050W        W35797   1.442   1.626  18.748  0.1310 -0.0429 -0.0517
17051W        W35798   8.622  32.757   3.917  0.4353 -0.0358  0.2494
17052W        W35799  16.367  28.857   0.700  0.1212 -0.0593  0.1553
17053W        W35800  32.986  17.516  19.788 -0.1714 -0.1087 -0.1599
17054W        W35801  22.753   2.089  14.487  0.0424 -0.0795  0.0770
17055W        W35802  26.055  34.192  22.652 -0.1093 -0.1076 -0.0419
17056W        W35803  20.923   4.928  17.588 -0.1112  0.0223 -0.1407
17057W        W35804  22.125  19.101  17.436  0.0194  0.0790  0.1033
17058W        W35805  31.344   5.135  11.525 -0.1065 -0.0290 -0.2162
17059W        W35806   2.976  18.251  25.562  0.1972  0.0534 -0.2227
17060W        W35807  33.444  25.364   0.745  0.1727  0.2407  0.1027
17061W        W35808   1.392  26.450  18.432  0.1538  0.2876 -0.1731
17062W        W35809   1.727  11.853  20.524 -0.0734  0.2692 -0.1194
17063W        W35810   1.971  27.147  24.278  0.2937 -0.0489 -0.0487
17064W        W35811   4.649  25.186   3.568 -0.0048  0.2777 -0.0317
17065W        W35812  19.403   3.288  18.866  0.1311  0.2787  0.0192
17066W        W35813   7.536  16.662   9.077 -0.1866 -0.1424 -0.2284
17067W        W35814  18.943  28.098  23.681  0.1282 -0.0725 -0.2638
17068W        W35815  31.225  20.857  24.416  0.0250  0.1251 -0.1217
17069W        W35816  33.970   1.445   2.397 -0.3224 -0.2869 -0.3129
17070W        W35817  22.908   9.905  25.011 -0.1922  0.1645 -0.1072
17071W        W35818  14.063   4.673   1.061 -0.0649  0.0830 -0.3988
17072W        W35819  26.036   0.997  25.330  0.1101  0.1477 -0.2598
17073W        W35820  13.939  11.174  22.452  0.1984  0.2771 -0.2226
17074W        W35821  31.745  19.218  23.383  0.1308 -0.1556  0.0640
17075W        W35822  15.671  13.533   3.895 -0.0625 -0.0640  0.0345
17076W        W35823  31.239  31.793  11.404  0.0166 -0.0227  0.0336
17077W        W35824   9.955  30.814   4.193  0.3046 -0.2487  0.0439
17078W        W35825   8.124   3.313   7.780 -0.0585  0.2422  0.1073
17079W        W35826  15.045  27.056  12.937 -0.0963 -0.2822 -0.2021
17080W        W35827  28.607   4.257  20.902 -0.0800 -0.1642 -0.3661
17081W        W35828  18.820  25.957  21.268 -0.0566  0.2483 -0.5267
17082W        W35829  11.984   1.571  19.078 -0.1206 -0.0336 -0.0080
17083W        W35830  11.319  15.355  23.114 -0.1352 -0.1863  0.2482
17084W        W35831  11.112  32.199   4.786 -0.1894  0.2576 -0.0441
17085W        W35832  13.921  19.424  23.743  0.0690  0.3450 -0.0238
17086W        W35833   1.589  21.749  10.803  0.0018  0.0690  0.2233
17087W        W35834  16.946  22.175   7.755 -0.0904 -0.0141  0.3013
17088W        W35835   3.391  27.151  22.495 -0.1740  0.0155  0.3104
17089W        W35836  12.348  23.284  11.504 -0.3488  0.0067 -0.3458
17090W        W35837  22.566   5.311  25.821  0.1683  0.1045  0.1761
17091W        W35838  32.668  14.866  25.588  0.0004 -0.1196  0.1205
17092W        W35839  34.004  29.214  16.540 -0.3533  0.2881 -0.1700
17093W        W35840  24.061   8.766  19.943  0.0697 -0.1232  0.1877
17094W        W35841  13.637  19.211  15.215  0.3430  0.2238  0.1209
17095W        W35842   7.922  23.065   8.905  0.4498  0.4127  0.2647
17096W        W35843   4.785   8.512   8.810 -0.0349  0.0496  0.1802
17097W        W35844   6.359  18.230  24.522  0.0778  0.1602 -0.2411
17098W        W35845  16.408  34.508   1.183 -0.0323 -0.0203 -0.1945
17099W        W35846   7.265   9.519  26.072  0.0314  0.3008 -0.1928
17100W        W35847  27.534  27.740  17.410  0.0037 -0.2866 -0.2087
17101W        W35848  26.247   6.958  13.700  0.0547 -0.0575  0.1015
17102W        W35849   8.123  29.110  22.966 -0.0568 -0.0378  0.0739
17103W        W35850  28.853   8.066  23.585 -0.0597  0.0469 -0.1807
17104W        W35851   5.243  28.859   7.565  0.3656 -0.2399  0.3122
17105W        W35852  28.062  26.297  22.473  0.1754 -0.0287  0.2575
17106W        W35853  21.992  21.039  26.058 -0.1218  0.1669  0.2535
17107W        W35854  21.786  32.800   5.190  0.1378  0.0734 -0.1303
17108W        W35855  34.768  11.326  13.014 -0.0505  0.2736  0.1717
17109W        W35856   1.953  25.970   6.084 -0.3399 -0.2400 -0.0483
17110W        W35857  12.684  11.553   5.874  0.1355 -0.2889  0.1238
17111W        W35858   0.097  13.231  25.355  0.0964  0.2225  0.0898
17112W        W35859   7.231   7.059  11.393 -0.1763  0.2502  0.1631
17113W        W35860  33.231  17.605   9.903  0.0057  0.2888  0.2198
17114W        W35861  16.483  30.557  22.144 -0.2951  0.1286  0.0867
17115W        W35862  28.106  14.145  16.167 -0.2558 -0.0889  0.2438
17116W        W35863   8.303   2.542  24.504  0.1350  0.1984 -0.2711
17117W        W35864  23.135  35.349  13.903  0.1948 -0.2651  0.3663
17118W        W35865  35.122  17.729  22.681 -0.3149 -0.0186  0.1066
17119W        W35866  27.190  10.491  20.668 -0.1045  0.1753  0.0157
17120W        W35867   3.172  12.650  18.274 -0.0741  0.0651 -0.3613
17121W        W35868  32.612   8.117  16.139 -0.2895 -0.1713 -0.0568
17122W        W35869   3.736  35.218  23.566  0.0511  0.1915  0.1789
17123W        W35870   6.878  15.681  21.997 -0.0980  0.0707  0.1907
17124W        W35871   1.006  22.723  18.541 -0.0457 -0.1581 -0.1447
17125W        W35872  11.661   3.128   2.701  0.0646  0.2032  0.1130
17126W        W35873  17.592  10.001   0.837  0.0203 -0.0991  0.1161
17127W        W35874   6.989   8.544   5.293  0.0216 -0.2766 -0.0203
17128W        W35875  28.446  32.724  22.929  0.1980 -0.1332 -0.1293
17129W        W35876  16.650  22.497  25.732  0.1023 -0.1030 -0.1888
17130W        W35877   4.299   1.848   5.338  0.1602  0.1677 -0.2216
17131W        W35878  16.539  16.251   7.145 -0.1013  0.1295  0.3073
17132W        W35879   3.316   9.580   3.935  0.2445 -0.0565  0.0381
17133W        W35880  17.857   9.265   3.975 -0.1328  0.2957  0.2078
17134W        W35881  10.996  19.848   4.944  0.0409 -0.0427 -0.0384
17135W        W35882  19.496  35.078   5.543  0.0453  0.1729 -0.1198
17136W        W35883   0.212  12.267  22.531  0.0375 -0.1745  0.0897
17137W        W35884  33.057   8.389  25.893 -0.0471 -0.2385  0.2626
17138W        W35885   5.756   5.216  10.664 -0.2156  0.2128  0.1620
17139W        W35886  22.771  25.192  20.394  0.0477 -0.1764 -0.2903
17140W        W35887  20.731  34.500  13.905  0.0198  0.2658  0.1480
17141W        W35888  14.978  31.123   7.063 -0.0370  0.0313 -0.0635
17142W        W35889   9.543   0.428  11.485 -0.1852 -0.1379  0.0635
17143W        W35890  12.085   7.177   8.728 -0.1000  0.2579  0.1244
17144W        W35891  18.882  33.051   6.454 -0.1501 -0.2247 -0.0505
17145W        W35892   0.148   6.434  23.012  0.0328 -0.0971  0.0834
17146W        W35893  15.018   6.892  19.248 -0.2897 -0.1313  0.0840
17147W        W35894  18.590  18.525   5.280  0.0550 -0.0086  0.0537
17148W        W35895   0.906  28.399   7.265 -0.0301 -0.0395 -0.1774
17149W        W35896  11.807   2.900  25.132  0.3847 -0.2370  0.2480
17150W        W35897  13.204   2.623  20.240 -0.1762  0.1875 -0.2806
17151W        W35898   9.792  26.191  22.543  0.1149  0.0457 -0.2235
17152W        W35899  28.511  25.420  17.845  0.2787  0.2871  0.1427
17153W        W35900  10.130  19.104   8.338  0.0595  0.0345  0.2452
17154W        W35901  15.422  15.775   5.877 -0.0327  0.0625  0.0893
17155W        W35902   6.991   5.470  24.440 -0.1453  0.3112  0.0417
17156W        W35903  35.312  18.345  16.619  0.5507 -0.2573 -0.0284
17157W        W35904   2.493  13.107   1.711  0.5499 -0.1027  0.0612
17158W        W35905  16.863  13.479  19.666 -0.2226  0.2944 -0.1417
17159W        W35906  23.352  14.193  26.042 -0.1234 -0.1348 -0.1244
17160W        W35907  14.279  27.821  14.791  0.0248 -0.1018 -0.0296
17161W        W35908   4.481   9.105  24.127  0.0365  0.0596  0.1783
17162W        W35909  35.215  19.581  11.761 -0.0796  0.0685  0.0893
17163W        W35910  34.824  11.003  23.083 -0.3217 -0.0272 -0.0577
17164W        W35911   7.210  14.180  11.961 -0.0621  0.1398  0.4418
17165W        W35912  34.483  19.704  11.406  0.2818 -0.1325  0.0153
17166W        W35913  24.023  31.755   3.595  0.0381  0.0711 -0.2354
17167W        W35914  33.211   5.962   3.266  0.0163  0.0528  0.0899
17168W        W35915  29.001  15.412   4.910  0.0082 -0.0408 -0.1684
17169W        W35916  29.613  18.602  16.546 -0.1295  0.2307  0.0231
17170W        W35917   9.088  24.960  15.511 -0.0552 -0.1768 -0.0623
17171W        W35918  32.614   2.576   3.505  0.1805  0.0021 -0.5631
17172W        W35919   2.858  31.076  24.028 -0.0278 -0.0881 -0.1902
17173W        W35920  12.131   7.169  20.157 -0.1213 -0.0239 -0.4223
17174W        W35921  34.781  16.362  16.112 -0.2594  0.0864  0.0077
17175W        W35922  27.215   5.912  17.192 -0.0381 -0.0426  0.0294
17176W        W35923  17.471  23.215  24.566  0.1032 -0.2401 -0.1992
17177W        W35924  27.383  10.641  17.182 -0.1275 -0.0091  0.3810
17178W        W35925  27.132  12.443  10.748  0.2913  0.0114 -0.1184
17179W        W35926  28.426  30.189   0.486  0.1263 -0.0208 -0.0446
17180W        W35927  31.577  32.666  23.651  0.2154  0.1122  0.0368
17181W        W35928  21.328  29.480   2.093 -0.0767 -0.0940 -0.0996
17182W        W35929  27.662   5.569  19.770  0.0964 -0.1792 -0.1438
17183W        W35930  31.802   3.313  17.973 -0.0962  0.2200  0.0719
17184W        W35931  33.843  20.672  14.697  0.0495  0.3295 -0.2888
17185W        W35932   5.579  23.521  21.492  0.5977  0.1744  0.0677
17186W        W35933  34.742  20.930   8.017 -0.2234  0.0558  0.0012
17187W        W35934   2.380  21.961  13.973 -0.0418  0.1149  0.3486
17188W        W35935  14.271  34.954   5.200 -0.0668 -0.0742  0.2761
17189W        W35936  12.892  15.811  25.640  0.0439 -0.2547 -0.1505
17190W        W35937  32.420   4.480   1.617  0.1032 -0.2701 -0.2015
17191W        W35938  20.121  22.430   0.294  0.0030  0.2288 -0.0022
17192W        W35939  26.795   7.693  21.516 -0.0274  0.1184 -0.2300
17193W        W35940  20.285  32.283  17.029 -0.0674 -0.1207  0.0824
17194W        W35941  17.895  22.338   7.577 -0.0503 -0.2354 -0.1809
17195W        W35942  11.182  11.743   2.163  0.1708 -0.0490  0.0350
17196W        W35943  28.505  30.994  12.671 -0.1754  0.2970 -0.0249
17197W        W35944  10.944   3.506  23.295  0.2863 -0.1556 -0.2829
17198W        W35945  10.916  17.625   6.676  0.0418 -0.1786 -0.1268
17199W        W35946  24.345   4.048   5.700 -0.1216 -0.0088  0.1486
17200W        W35947  27.311   3.029  16.608 -0.4236 -0.0624  0.0113
17201W        W35948  20.460  21.337   0.448  0.1525 -0.1628 -0.2822
17202W        W35949  32.128   5.462  24.174  0.2808  0.1171 -0.4861
17203W        W35950   1.637   5.565   3.970 -0.0946  0.0771 -0.1069
17204W        W35951  13.585  26.440  13.106 -0.2441 -0.1765  0.0260
17205W        W35952  32.417  23.155  18.224  0.1593 -0.0171  0.1000
17206W        W35953   9.263  28.448   0.827  0.1620 -0.0218 -0.1614
17207W        W35954  10.545  33.817   8.847 -0.0903  0.1178  0.4075
17208W        W35955  18.404  23.580  11.028  0.0168  0.1541 -0.1927
17209W        W35956  21.510  34.932  18.990  0.0094 -0.1355 -0.0856
17210W        W35957   5.797   8.813   6.415  0.0726 -0.0036  0.1110
17211W        W35958  35.141  26.902  16.731 -0.0828 -0.0022 -0.1368
17212W        W35959  27.080  33.120   5.247 -0.0151 -0.0281  0.2993
17213W        W35960  11.328  17.896  12.288  0.3312  0.1830 -0.2288
17214W        W35961  27.975  23.256  10.684  0.0565  0.1670 -0.0018
17215W        W35962  20.603  19.007  16.002 -0.1373 -0.4260 -0.3135
17216W        W35963  32.790  26.709  24.071  0.0168 -0.0962  0.2196
17217W        W35964   5.950   4.809  20.776 -0.1559 -0.0122  0.0773
17218W        W35965   5.506   0.825  11.592  0.0482 -0.1758  0.1029
17219W        W35966  15.545  35.071   8.491  0.1114 -0.1080  0.2381
17220W        W35967  11.864  20.950  10.970 -0.2912 -0.0498  0.1799
17221W        W35968  22.803  14.865  20.637 -0.0217 -0.0616  0.0606
17222W        W35969   1.097  20.616  14.519  0.2398  0.3416  0.0635
17223W        W35970  29.716   3.761   3.030 -0.0432 -0.1682  0.1908
17224W        W35971  19.430  24.638   3.433 -0.0110 -0.1124 -0.0541
17225W        W35972  18.359  11.163   0.818 -0.0466  0.1672 -0.0986
17226W        W35973  29.945  14.485  18.587 -0.1782  0.3112 -0.2810
17227W        W35974   0.369   2.726   3.692 -0.3496 -0.0126  0.2126
17228W        W35975  26.921  10.288  11.804 -0.1846 -0.2148  0.1998
17229W        W35976  15.199   0.254   9.866 -0.2558  0.2300  0.2386
17230W        W35977  28.089  23.548   7.461 -0.0691 -0.4323  0.1913
17231W        W35978  18.223  14.545   6.937 -0.3228 -0.1983 -0.0834
17232W        W35979  11.002  14.064  22.848  0.0326  0.1210  0.5823
17233W        W35980   3.801  34.439   6.250 -0.0743  0.1281 -0.1012
17234W        W35981  28.949  31.762  14.388 -0.0784 -0.4199  0.0759
17235W        W35982  12.907   4.627  22.913 -0.2291 -0.0413 -0.2436
17236W        W35983  18.163   1.319  17.402 -0.2943  0.0766 -0.0213
17237W        W35984   8.740  30.189  11.880  0.1777 -0.0888 -0.1501
17238W        W35985  30.311  13.652   6.505  0.3166  0.1576  0.1107
17239W        W35986  35.195  33.419   0.034  0.1558 -0.0663  0.2695
17240W        W35987   1.347  25.131  25.897 -0.0831  0.0015  0.0350
17241W        W35988  28.119  27.020  10.866 -0.0095 -0.2978  0.2403
17242W        W35989  27.095  29.693   0.790 -0.4137 -0.1438  0.0855
17243W        W35990   8.024  34.817  12.564 -0.0938  0.1239 -0.3462
17244W        W35991  23.591  21.585   2.810  0.0912  0.3735 -0.3379
17245W        W35992   5.696  10.717  18.816  0.0048  0.0026  0.3039
17246W        W35993  15.765  30.938  19.712 -0.2133 -0.3463  0.1113
17247W        W35994  23.462  30.313   6.087  0.3065  0.0178 -0.0995
17248W        W35995  28.566   7.325  11.298  0.0534 -0.2258 -0.5871
17249W        W35996  32.375   6.159  17.858 -0.1316 -0.2676  0.3757
17250W        W35997  33.945  29.324  14.957  0.0719 -0.3181 -0.0089
17251W        W35998  15.172  26.478  25.683  0.0839  0.2728 -0.1799
17252W        W35999   1.474  30.055  21.458 -0.0329 -0.1871  0.1777
17253W        W36000  25.230   1.029  11.849 -0.1816  0.1316  0.1002
17254W        W36001   1.618  31.912   5.455  0.2092 -0.3087  0.0060
17255W        W36002  18.741   6.054   3.664  0.1866  0.0681 -0.1213
17256W        W36003  34.286  24.226  11.885 -0.0571  0.0393  0.0819
17257W        W36004   1.574  34.871   1.856 -0.0165 -0.2842 -0.0487
17258W        W36005  34.893  18.233  13.643 -0.0784  0.0182  0.1301
17259W        W36006  16.255  20.329  12.645 -0.4749 -0.0225 -0.2109
17260W        W36007  15.241  28.268   7.101  0.1646 -0.2304  0.1396
17261W        W36008  30.987   5.278  13.586  0.0115 -0.0708 -0.2384
17262W        W36009   5.600  21.690  21.944 -0.0288  0.1237 -0.0207
17263W        W36010  19.563  25.768   0.806 -0.0803  0.1935 -0.1690
17264W        W36011  12.091  33.680   1.690 -0.3366  0.2874 -0.1331
17265W        W36012   7.779  34.941   9.236  0.1810 -0.5396 -0.2388
17266W        W36013  19.826  23.719   8.007  0.0586  0.1268  0.2213
17267W        W36014  22.984  22.902  14.489 -0.0555  0.1831  0.1047
17268W        W36015  10.952  14.135  21.076  0.1854 -0.1050  0.0225
17269W        W36016   2.208   3.780   5.291  0.3083  0.1224 -0.1084
17270W        W36017  27.501   1.433   0.753  0.2645 -0.0401  0.0318
17271W        W36018  23.425   5.493  16.317 -0.0387 -0.0516 -0.0355
17272W        W36019  34.100  32.059   6.189  0.0951  0.1811 -0.0456
17273W        W36020  28.889   8.761  12.259 -0.0543  0.1031  0.2371
17274W        W36021  13.864   7.657  23.571 -0.1346  0.0419 -0.2700
17275W        W36022   5.096  17.487   4.828  0.1211  0.3132  0.0353
17276W        W36023  13.016  27.432  22.567 -0.0421 -0.1245  0.0284
17277W        W36024   1.551  33.506  23.788  0.1603 -0.1257  0.2601
17278W        W36025   4.921  11.293   5.619  0.2133  0.0019 -0.0379
17279W        W36026  32.829   4.739  25.621  0.2362  0.1312  0.1552
17280W        W36027  28.724  26.335  15.766  0.0685 -0.2890  0.1038
17281W        W36028  10.475  18.733   9.862  0.2451 -0.0590  0.2149
17282W        W36029  21.559  12.002  25.735 -0.3616 -0.2228 -0.3156
17283W        W36030  18.723  18.097   2.478  0.3892 -0.0208  0.4195
17284W        W36031  30.909  22.244   6.922 -0.1408 -0.0846  0.1791
17285W        W36032   4.119  23.018  19.158  0.1943  0.2766  0.2323
17286W        W36033   9.087  32.472   1.706 -0.1953 -0.0542 -0.1034
17287W        W36034  16.123  27.698   3.664 -0.1379  0.1456  0.0036
17288W        W36035  30.046  33.012   2.111 -0.0932  0.0995 -0.2094
17289W        W36036  13.966   1.273  17.492 -0.4187  0.3897 -0.3827
17290W        W36037  34.338  10.903  25.341  0.2301 -0.2330  0.1255
17291W        W36038  34.093   8.671  19.316 -0.0412 -0.3248  0.0509
17292W        W36039  27.304  21.272  19.114 -0.1241  0.0269  0.2073
17293W        W36040  33.656  23.098  25.237 -0.0152 -0.3116 -0.2586
17294W        W36041   2.025   4.553  20.757 -0.0929  0.0093 -0.2539
17295W        W36042  23.743  22.089  13.627 -0.0268 -0.3414  0.2881
17296W        W36043   7.440  31.620  25.736 -0.1342  0.0125  0.2561
17297W        W36044  21.116  29.131  18.602 -0.4800  0.0912 -0.2985
17298W        W36045   2.073  33.612   3.707 -0.2126 -0.0735  0.1618
17299W        W36046  29.329  18.395  13.101 -0.2014  0.2288  0.4215
17300W        W36047  13.911  12.523   1.163 -0.0854  0.0645  0.2481
17301W        W36048  30.253  31.022  18.832  0.2944  0.1557  0.3096
17302W        W36049  16.302  20.817  23.518  0.2240  0.3522 -0.0079
17303W        W36050  21.582   3.097  18.438 -0.0398 -0.1062  0.1187
17304W        W36051   6.352  30.974  10.705  0.0255 -0.1969 -0.1809
17305W        W36052  21.208  35.092   2.015 -0.0033  0.3189  0.2446
17306W        W36053  32.757   6.727  23.834 -0.0374  0.0792  0.1689
17307W        W36054  23.333  30.656  11.970  0.1653  0.2182 -0.1037
17308W        W36055  27.595  15.332  16.430 -0.2476 -0.0081  0.0871
17309W        W36056  19.808   0.597  21.142 -0.0981  0.4585  0.1414
17310W        W36057   1.548  30.123   3.099 -0.0174 -0.1309 -0.2674
17311W        W36058  20.287  33.858   7.440 -0.0640 -0.2996 -0.0686
17312W        W36059  12.631  13.871   3.112  0.0057  0.1008  0.2478
17313W        W36060  18.619  34.796  18.127  0.0167 -0.3878 -0.2393
17314W        W36061  23.291   8.014  19.012 -0.2120 -0.2826  0.3035
17315W        W36062  14.222  27.780   8.840 -0.3283  0.0732  0.0397
17316W        W36063  23.424   7.580  18.881  0.1273  0.2889 -0.3587
17317W        W36064  12.477   3.192   6.896  0.2184  0.4043  0.1382
17318W        W36065  15.375   8.603  10.404 -0.0227 -0.0373  0.3622
17319W        W36066   9.160  20.403  26.208 -0.0972  0.1423  0.1532
17320W        W36067  11.031  34.559  24.902  0.0750 -0.3130 -0.1542
17321W        W36068  12.856  28.117   9.916 -0.1978 -0.0976 -0.2093
17322W        W36069  21.299  10.633  17.780 -0.2643  0.2322  0.2429
17323W        W36070  24.583   6.238  22.573  0.1564 -0.0019  0.0309
17324W        W36071  15.558  21.283   0.259  0.4433  0.0912 -0.0351
17325W        W36072  26.530  23.211  12.809  0.0213  0.1782 -0.0341
17326W        W36073  30.853   1.061  12.804 -0.3707  0.1416  0.1891
17327W        W36074  12.466   6.317   5.325 -0.2379  0.0560  0.1564
17328W        W36075   0.375  14.365  21.174 -0.0690 -0.2407  0.2173
17329W        W36076  18.245  34.935   7.893 -0.5095 -0.3281  0.2519
17330W        W36077  16.963   1.845  26.142 -0.3689  0.0069 -0.1799
17331W        W36078   8.735  13.869  26.158  0.2841  0.1285 -0.1395
17332W        W36079  18.183  10.524   6.568  0.1672  0.1313  0.1830
17333W        W36080  32.737   6.192   0.845 -0.2509 -0.1777  0.0833
17334W        W36081  12.423   0.083  11.985  0.0264  0.3229 -0.2191
17335W        W36082  17.589  19.065   7.075  0.2434  0.2352 -0.0642
17336W        W36083   6.639   4.359  13.363  0.1334 -0.4132  0.2554
17337W        W36084   7.851   5.382   9.020 -0.1246  0.0612  0.3542
17338W        W36085  12.073   3.622  11.931 -0.3474 -0.1082  0.0343
17339W        W36086  16.888  32.519   5.916  0.2188 -0.3087 -0.1316
17340W        W36087   4.044  16.648  15.630  0.0243 -0.0659  0.0605
17341W        W36088  31.715  31.440  14.359 -0.4356 -0.0009 -0.2026
17342W        W36089   8.871  10.029   1.700 -0.0337  0.0645 -0.3971
17343W        W36090  28.716   4.007  24.429 -0.3686  0.2495 -0.0605
17344W        W36091   3.641   9.411   2.833  0.1685 -0.1268 -0.0248
17345W        W36092  21.528   5.382   0.533 -0.0192  0.2934  0.1218
17346W        W36093  31.345  21.745  14.374  0.0643 -0.0389  0.0695
17347W        W36094  10.102  12.616   1.782  0.3363  0.0662 -0.1645
17348W        W36095  10.598  34.327  23.059  0.2453 -0.0664  0.0664
17349W        W36096  12.535   4.631  13.177  0.0831 -0.0996 -0.1125
17350W        W36097  12.980  17.267   1.369 -0.1412  0.1437  0.3076
17351W        W36098   1.691  12.889  25.459 -0.2192 -0.1897 -0.0597
17352W        W36099   7.498  11.013  10.149 -0.2129 -0.2359 -0.1636
17353W        W36100   0.635  30.254  16.432  0.1059 -0.1295  0.0279
17354W        W36101  29.746   7.787   2.683  0.2185  0.2254 -0.3665
17355W        W36102  30.518  20.905  24.541  0.0102  0.1508  0.1448
17356W        W36103   7.483   6.912  10.745 -0.0777  0.4508  0.4396
17357W        W36104  34.386   1.432  17.581  0.2020  0.0448 -0.4035
17358W        W36105   4.074  23.915  21.152 -0.0418  0.0468 -0.0869
17359W        W36106  35.037  34.687  24.449  0.0091  0.1345  0.1714
17360W        W36107  19.860  19.381  10.649 -0.0561  0.2249  0.0956
17361W        W36108  24.125   5.783  21.254  0.1849  0.0119 -0.2298
17362W        W36109   3.961  30.039  19.760 -0.0718 -0.0166 -0.0996
17363W        W36110  21.884  20.713  25.587  0.1570  0.1178  0.0050
17364W        W36111  30.089  12.230  17.425  0.3648 -0.0156 -0.0100
17365W        W36112  11.307  10.028   8.402  0.1707 -0.0243  0.1231
17366W        W36113  32.279  17.057  20.468  0.1033  0.2477 -0.2834
17367W        W36114  20.665   9.651  21.347  0.0821 -0.0505  0.1157
17368W        W36115  34.221  28.166  20.870  0.1054 -0.3587 -0.0334
17369W        W36116   1.805   2.796   6.072 -0.3469  0.0178 -0.0448
17370W        W36117  14.380  15.505  20.420  0.2783  0.2151 -0.1272
17371W        W36118  29.098   6.188  11.908  0.0726  0.1034 -0.0921
17372W        W36119  12.371  14.214  12.778  0.1909 -0.3770  0.2747
17373W        W36120  13.320   8.009   5.655 -0.0716 -0.2359  0.2071
17374W        W36121  13.036  32.260  21.910  0.0335  0.2822  0.0695
17375W        W36122  13.916  28.842  10.548  0.1139  0.0573  0.1675
17376W        W36123  21.042  35.278  15.345 -0.3812 -0.0812 -0.1907
17377W        W36124  10.392   5.157  14.216  0.2154 -0.0307 -0.2251
17378W        W36125  17.754  34.773  15.657 -0.1173 -0.1269 -0.1532
17379W        W36126  22.806  23.472   1.043  0.1566 -0.0918  0.1446
17380W        W36127   4.539  14.723  18.150 -0.0107 -0.0347  0.0773
17381W        W36128   9.017   6.274  24.525  0.1535  0.2107  0.0340
17382W        W36129  10.830   8.979  24.163 -0.0540  0.1178  0.2307
17383W        W36130   6.245   3.430   4.710 -0.3684  0.0954  0.2253
17384W        W36131  24.521  25.541  20.424  0.0780 -0.2314  0.0146
17385W        W36132  13.705   5.627   0.886 -0.3090 -0.1059  0.1595
17386W        W36133   8.008  27.248   7.819  0.3306 -0.0912 -0.2783
17387W        W36134  18.222  16.584   7.510 -0.4822  0.3375  0.2617
17388W        W36135   5.429   1.232  26.204  0.0937 -0.0385 -0.0364
17389W        W36136  17.055  27.928  12.700  0.3861  0.3763  0.2666
17390W        W36137   2.595   7.052  23.787 -0.1605  0.1974  0.2989
17391W        W36138   6.061  20.207   1.864  0.1234  0.0342 -0.0634
17392W        W36139  13.073  20.410   9.042  0.2949  0.1921 -0.0625
17393W        W36140  23.533  26.709   4.026 -0.0563  0.1956  0.1727
17394W        W36141  28.286  26.857   0.796  0.1047  0.1317  0.0498
17395W        W36142  12.909  24.149  15.767 -0.1518 -0.3053  0.0103
17396W        W36143  23.606   3.012  19.268  0.0706  0.0680 -0.1484
17397W        W36144   7.011  27.135  12.572 -0.3437  0.1143 -0.0212
17398W        W36145  29.220  11.130  20.863  0.0682  0.1509  0.0004
17399W        W36146  15.853  32.778   0.242  0.2323  0.0038  0.3860
17400W        W36147  27.800  30.693  18.438  0.0086  0.0662  0.3222
17401W        W36148  26.166  29.283  19.819  0.1171 -0.3560  0.1298
17402W        W36149  29.832   0.338  12.308 -0.0658 -0.1269 -0.4080
17403W        W36150  14.421   9.139  25.634 -0.2007  0.1028  0.1557
17404W        W36151   7.649  27.051  11.749  0.3751 -0.0476 -0.0659
17405W        W36152  34.805  14.274  25.452 -0.2274 -0.2895 -0.3682
17406W        W36153  30.895   2.593   3.717  0.1068  0.2748 -0.0669
17407W        W36154  34.005  30.046   5.013 -0.0620  0.0612  0.1639
17408W        W36155   7.338  20.361  23.604 -0.1120 -0.3002  0.0967
17409W        W36156  31.834   7.540   0.594 -0.1133  0.0637  0.0350
17410W        W36157  18.818  10.101   8.467  0.0195 -0.3367 -0.0057
17411W        W36158   4.768   9.367   9.596  0.2052  0.3395 -0.1012
17412W        W36159   8.668   6.481   7.801  0.0177  0.0622 -0.0557
17413W        W36160   6.258  28.431  24.465  0.4744 -0.0935  0.1415
17414W        W36161  12.175   3.055  23.451 -0.0252  0.0947  0.0002
17415W        W36162  34.342  13.996  10.763  0.3415 -0.0074  0.2945
17416W        W36163  27.438   5.137  20.677  0.2213 -0.0433 -0.0817
17417W        W36164  26.323   2.430   1.348  0.3927  0.2094  0.1850
17418W        W36165  13.592  27.190   3.715 -0.2515  0.1598 -0.3262
17419W        W36166  25.471   7.222  11.764  0.3646  0.0158 -0.1206
17420W        W36167  23.882  26.408  18.950  0.2197  0.1147  0.0656
17421W        W36168  10.448  29.810   8.209  0.1586  0.1411 -0.0748
17422W        W36169  14.171   4.529   2.183 -0.2787 -0.1388  0.3295
17423W        W36170  15.176  26.743   2.894 -0.1883 -0.3651 -0.1510
17424W        W36171   4.627  22.982  22.033 -0.0739 -0.0909  0.1121
17425W        W36172  32.258  26.857  19.156 -0.0644 -0.1535  0.0784
17426W        W36173   2.067   3.526  18.588 -0.1028 -0.1541 -0.0688
17427W        W36174  22.324  27.553  23.248  0.1329 -0.2413 -0.1312
17428W        W36175   6.161   5.592   8.281  0.0448  0.0534 -0.3636
17429W        W36176   2.571  29.339   9.360  0.1637  0.1475  0.3568
17430W        W36177   1.596   3.415  15.392 -0.0727  0.0890  0.0070
17431W        W36178  29.604  10.789   6.981  0.0979  0.1862  0.1100
17432W        W36179   9.797  27.554   0.124 -0.2232  0.0363  0.1305
17433W        W36180   8.974  19.332   9.360  0.2993  0.2864  0.1887
17434W        W36181  34.566  23.409  10.978 -0.0040  0.0748 -0.2115
17435W        W36182  30.703  17.053  23.316  0.0022 -0.0071  0.2209
17436W        W36183  30.068  35.121   2.913  0.0913 -0.2274  0.1274
17437W        W36184  11.631  30.867  14.862 -0.3641  0.1597 -0.2833
17438W        W36185  22.995  18.930   0.841 -0.0255  0.1760 -0.1938
17439W        W36186  12.435  11.888   4.463 -0.1497 -0.1371  0.0847
17440W        W36187  30.819   4.861  16.758  0.1562 -0.0712 -0.1842
17441W        W36188  14.895   6.844  18.374  0.0738  0.4371  0.1823
17442W        W36189  14.071   2.637   9.532 -0.1331  0.1264 -0.0512
17443W        W36190   8.339  33.518  11.867  0.2013  0.1822 -0.1251
17444W        W36191   6.876  22.199   1.140  0.1936 -0.1988 -0.3098
17445W        W36192  12.378   5.883  12.246  0.0911 -0.2662 -0.0640
17446W        W36193   3.479  31.766   5.320  0.1141  0.1263 -0.2695
17447W        W36194   1.354   8.753  19.028  0.0489 -0.2442 -0.0903
17448W        W36195  21.771   6.561  25.484  0.1889  0.0743 -0.2055
17449W        W36196  30.860  26.996  11.718 -0.1649 -0.1069 -0.0218
17450W        W36197  27.948  21.123   8.016 -0.0715 -0.2147  0.0714
17451W        W36198   8.234   4.430  24.654  0.0743 -0.1205 -0.0214
17452W        W36199  11.198  19.388   9.667  0.3007 -0.0665 -0.3368
17453W        W36200   5.307  28.676  12.724 -0.2725  0.2976 -0.0350
17454W        W36201  22.388  28.297   4.653 -0.0631  0.0351  0.1617
17455W        W36202   1.643  19.030  25.492 -0.0434 -0.1350 -0.4203
17456W        W36203  25.208   9.172  22.944  0.2622  0.1516  0.1123
17457W        W36204  14.355   6.535  25.198  0.1676 -0.0245 -0.2505
17458W        W36205   4.202  24.764  19.139 -0.5047 -0.2902 -0.0890
17459W        W36206  27.938  33.597   1.589  0.2935  0.0733 -0.2299
17460W        W36207   0.137  15.106  11.089  0.0637 -0.1799 -0.2416
17461W        W36208  33.599  16.390  14.596 -0.0253  0.0525  0.1229
17462W        W36209   1.003   3.490  19.374 -0.2910 -0.1142 -0.1925
17463W        W36210  16.105   3.362   6.726  0.1258 -0.1520  0.0485
17464W        W36211  16.459  33.056   2.865 -0.1930 -0.3386  0.2975
17465W        W36212  13.392   6.638   9.944 -0.1640 -0.1062 -0.0084
17466W        W36213  35.070  16.714  17.561 -0.1170 -0.2447 -0.2010
17467W        W36214  25.842  21.233  11.765 -0.2301  0.2154 -0.3873
17468W        W36215  11.077  30.156  25.010 -0.3567  0.0216  0.0331
17469W        W36216   2.395  10.042  23.982  0.2183  0.3471  0.2147
17470W        W36217  23.188   9.699  22.043 -0.0297 -0.1237  0.0726
17471W        W36218  27.426  17.475  21.447 -0.2067 -0.0238  0.1499
17472W        W36219  17.063   3.742   0.149  0.2801 -0.2266  0.0292
17473W        W36220  17.213  25.580   5.237  0.0718  0.3065  0.0480
17474W        W36221  12.510  11.763  23.811 -0.1197  0.1573  0.1097
17475W        W36222  31.538  25.101  22.050  0.0494  0.1100 -0.2682
17476W        W36223  15.314   6.436  19.190 -0.1401 -0.0211 -0.2075
17477W        W36224  28.519  19.179  23.328  0.1050 -0.0699  0.1600
17478W        W36225   7.772  30.415   4.188 -0.1215 -0.1164  0.0729
17479W        W36226  32.393  30.415  19.326 -0.4019 -0.1204 -0.0598
17480W        W36227  33.801  14.717   7.948  0.3063 -0.0467 -0.1815
17481W        W36228  27.250  32.153  14.416 -0.1315  0.5777 -0.1742
17482W        W36229  19.497   8.584  10.641 -0.1040  0.4262 -0.0903
17483W        W36230  27.625  17.422  16.605  0.1044 -0.1405 -0.0922
17484W        W36231  27.027   0.234  15.307 -0.0448 -0.0483 -0.0553
17485W        W36232  22.530  33.921  18.288  0.1280 -0.0589  0.0842
17486W        W36233   5.747   3.586   1.727  0.2186  0.0647 -0.3132
17487W        W36234   3.170  15.251  17.344 -0.0631 -0.0521  0.0079
17488W        W36235   6.676  23.007   2.306  0.1558 -0.2254  0.0186
17489W        W36236   5.481   2.646   3.548 -0.1989  0.0975 -0.1968
17490W        W36237  26.772  20.004   8.966  0.1333 -0.0377 -0.0235
17491W        W36238  24.164  27.322  20.892  0.0278  0.2039  0.2718
17492W        W36239  22.473   5.234   2.778 -0.0824  0.0491 -0.2379
17493W        W36240   2.941  25.660   3.551  0.1025  0.0791  0.1809
17494W        W36241  14.341  29.633  12.495  0.1768  0.2095 -0.2364
17495W        W36242  33.402  29.603   4.810 -0.1927  0.0660 -0.1378
17496W        W36243   6.252  19.492   6.779 -0.3908  0.3074 -0.0772
17497W        W36244  15.373   3.543   4.721  0.0676 -0.1852  0.0295
17498W        W36245  19.822  21.442   5.474  0.1097  0.2553 -0.0650
17499W        W36246  22.322  26.725   5.844  0.1827  0.0469  0.1003
17500W        W36247  21.072  25.176   2.892  0.1585 -0.2143  0.1172
17501W        W36248  13.873  10.156   6.449 -0.2686  0.2856  0.2070
17502W        W36249  14.944  32.057   3.525 -0.1250  0.1209 -0.2453
17503W        W36250  33.951   5.665  13.479  0.1989  0.0033  0.0126
17504W        W36251   8.768  22.297  11.626 -0.3029  0.1568 -0.0910
17505W        W36252   3.421   0.017  23.080  0.0281 -0.0253 -0.2364
17506W        W36253  29.476   6.240   2.635 -0.2198 -0.0879  0.1579
17507W        W36254  30.440   8.536  11.691  0.2260  0.3063  0.0813
17508W        W36255   6.380   5.314   7.487 -0.3377 -0.2069  0.2116
17509W        W36256   0.347  10.700  16.499  0.1617  0.2294  0.1326
17510W        W36257  20.209  15.545   6.377 -0.1426 -0.1863  0.0656
17511W        W36258  11.261   6.860  10.025 -0.1354 -0.1202 -0.3125
17512W        W36259  11.347  28.909   4.572  0.0403 -0.0611  0.0829
17513W        W36260  20.077  28.176  23.257  0.1796 -0.0797 -0.1775
17514W        W36261   4.977  19.348   3.594 -0.1521  0.2151  0.2785
17515W        W36262  18.850  22.447  20.264  0.3390  0.2775  0.1204
17516W        W36263   8.316  30.706   0.444 -0.2474 -0.0109 -0.0797
17517W        W36264  32.628  27.042  14.789  0.0101 -0.0772 -0.1659
17518W        W36265  24.857  17.608  20.772 -0.2677 -0.0958  0.0982
17519W        W36266   4.498  22.098  19.133  0.1408 -0.0967 -0.1375
17520W        W36267  17.846   8.912  24.092  0.0625 -0.0766  0.0334
17521W        W36268  19.384  24.512   2.176 -0.3525  0.2863  0.1546
17522W        W36269  31.597  11.018  24.999  0.0712  0.0305  0.1831
17523W        W36270  13.049   5.161  24.105 -0.2557 -0.2829 -0.2152
17524W        W36271   9.370  15.249  20.130 -0.2196 -0.2263 -0.0873
17525W        W36272   3.805   1.250   2.277  0.0623 -0.0793 -0.0427
17526W        W36273  24.052  29.144  23.957 -0.0055 -0.0908 -0.1632
17527W        W36274  31.268  21.964   5.841  0.0417 -0.0579  0.1198
17528W        W36275  20.134   7.713   0.218 -0.0314 -0.2394 -0.1850
17529W        W36276   0.684  31.626   2.550 -0.1678  0.0376 -0.0041
17530W        W36277  28.981  22.560   9.827 -0.1994  0.2564  0.2525
17531W        W36278  15.810   4.163  21.656  0.1458 -0.0526  0.0563
17532W        W36279  11.793  33.095  25.462  0.0992 -0.0300  0.1283
17533W        W36280  14.839  21.269   6.645 -0.1051 -0.2337 -0.0976
17534W        W36281  13.795  28.482  11.301 -0.1203  0.0859  0.1449
17535W        W36282  21.787  17.033   3.421  0.0397  0.1481  0.1265
17536W        W36283  27.883   1.852  11.459 -0.0946 -0.0349  0.0345
17537W        W36284   4.991   1.675   0.479  0.0443  0.2788 -0.1979
17538W        W36285  32.970  33.856  15.550  0.1798  0.0735  0.2774
17539W        W36286  24.500  13.137  23.748 -0.0582  0.0453  0.0859
17540W        W36287  17.495  14.142  19.065 -0.1916  0.2963 -0.0750
17541W        W36288  21.138  29.365  19.088  0.1494 -0.1190 -0.2468
17542W        W36289  21.307   9.803   2.303  0.1541 -0.2300 -0.0233
17543W        W36290  12.965  30.397  23.546 -0.0681  0.0662  0.0582
17544W        W36291   7.469   8.589  22.443 -0.0938  0.2079 -0.0766
17545W        W36292  17.915  22.623   9.492  0.1657 -0.0619 -0.3179
17546W        W36293  10.333  21.437  11.489  0.2434 -0.0009 -0.0161
17547W        W36294   3.469  24.834   3.447 -0.2595 -0.1061  0.0249
17548W        W36295   3.602  21.218  23.803 -0.2872 -0.1934 -0.2522
17549W        W36296  34.217  22.268  24.884  0.0482 -0.1323  0.1481
17550W        W36297  16.864  23.418   0.561  0.0401 -0.1420 -0.0267
17551W        W36298  12.138  11.042   9.904 -0.2484  0.0555 -0.1240
17552W        W36299  30.195   4.825  10.722  0.0495 -0.0272 -0.1213
17553W        W36300   3.035   7.640   4.568  0.1806 -0.2032  0.0203
17554W        W36301  24.657  32.386  11.234 -0.0412 -0.1135 -0.3595
17555W        W36302  32.161  23.162  15.152 -0.0656 -0.2465  0.0290
17556W        W36303  16.309  12.059   9.203  0.0844  0.0989  0.1675
17557W        W36304  20.170   6.450   2.877 -0.1462  0.0303 -0.1032
17558W        W36305  10.894  32.599  23.627  0.2499  0.0526 -0.1519
17559W        W36306  11.179  26.760  15.442  0.2025  0.2976 -0.1008
17560W        W36307  24.660  29.436  16.027 -0.0221  0.1940  0.0694
17561W        W36308  27.971  22.846  21.272 -0.4082  0.0754  0.0478
17562W        W36309   8.831   5.561  13.531 -0.2253 -0.0957  0.1339
17563W        W36310  22.088  19.259  16.481 -0.0055  0.3695 -0.1967
17564W        W36311   5.949  13.080   1.927 -0.0440  0.0769  0.0495
17565W        W36312  17.552   5.689  20.342  0.1053 -0.0031  0.1358
17566W        W36313   1.553   6.809   5.220 -0.0081  0.0264  0.1163
17567W        W36314   0.834  15.006  21.619 -0.0377  0.0235 -0.1298
17568W        W36315   0.522  16.846   0.992 -0.0227  0.1220 -0.0121
17569W        W36316  18.541  20.158   8.015  0.1211  0.0223  0.2140
17570W        W36317  24.225  12.185   3.117 -0.0349  0.1233 -0.2883
17571W        W36318  22.536   5.587  22.714 -0.0710 -0.3847  0.0816
17572W        W36319  28.490  10.692  12.436 -0.2134 -0.5642 -0.1052
17573W        W36320  13.114  25.776  23.809  0.1681 -0.0234  0.1019
17574W        W36321  33.376   9.575  16.322 -0.1527  0.3217 -0.1985
17575W        W36322  14.846   0.018  23.658 -0.1406  0.1370 -0.1730
17576W        W36323   2.035  14.434  19.709 -0.3182  0.2236  0.1628
17577W        W36324  20.225  22.688  23.615  0.0761 -0.1601  0.2014
17578W        W36325  26.497   7.427  15.419  0.0109  0.1926 -0.4028
17579W        W36326  19.990   1.423  18.286  0.0679  0.3823  0.1119
17580W        W36327  11.452  29.401  24.406  0.3647 -0.1305  0.3108
17581W        W36328  16.019   9.367   1.149 -0.1398 -0.2144 -0.0239
17582W        W36329   1.620  18.692  10.784 -0.1928 -0.2544 -0.1885
17583W        W36330   9.189  33.338  25.189 -0.1446 -0.1881 -0.1104
17584W        W36331  14.272  31.168  21.670  0.2276 -0.0793 -0.4519
17585W        W36332  22.798   3.472   0.909  0.1443 -0.1347  0.3944
17586W        W36333  12.221  32.252  11.826  0.1145 -0.3126  0.1109
17587W        W36334   2.055  12.617  14.547 -0.2063 -0.3582  0.1057
17588W        W36335  21.852  10.011   5.642 -0.0964 -0.0198  0.1876
17589W        W36336   5.970  14.061   3.823 -0.3830 -0.1125 -0.1810
17590W        W36337  24.597  14.762  24.759 -0.0842 -0.0720 -0.0218
17591W        W36338  28.789  14.548  14.901 -0.1883 -0.0139 -0.2659
17592W        W36339  19.322   2.938   9.242  0.2948  0.1228  0.2273
17593W        W36340  27.122  31.776  13.035  0.2525  0.0808  0.3027
17594W        W36341  21.959  14.819  19.988 -0.3843  0.1334  0.0458
17595W        W36342   5.888   1.717   9.087 -0.2950 -0.1822 -0.3034
17596W        W36343  21.506   3.909   6.737 -0.0996 -0.0836 -0.0877
17597W        W36344  30.634  14.794   9.450  0.1900 -0.1915  0.1361
17598W        W36345  11.660  33.905   5.000 -0.0948  0.3299  0.0823
17599W        W36346   4.566   3.265   0.666 -0.0705 -0.1579  0.0374
17600W        W36347  17.557  32.822  24.851 -0.0757  0.3107 -0.1079
17601W        W36348   3.579  33.146  22.449 -0.1808 -0.0693  0.0455
17602W        W36349  16.859   7.958   4.683 -0.1422 -0.1066 -0.2259
17603W        W36350  35.134  20.138  25.942 -0.0609 -0.1047  0.1631
17604W        W36351  20.459  32.839  19.982 -0.0349  0.0733  0.0308
17605W        W36352  29.410  12.460  25.881 -0.3127 -0.4120 -0.2104
17606W        W36353   7.149   8.707  24.729 -0.1987 -0.0743  0.2731
17607W        W36354  12.145  32.193   4.456 -0.0910  0.1548 -0.0076
17608W        W36355  30.818  19.830   7.119  0.1361  0.2326 -0.2065
17609W        W36356  32.636   9.613  17.656  0.0409 -0.0212 -0.1795
17610W        W36357  22.557  32.064  23.106 -0.1269  0.3013 -0.1211
17611W        W36358  19.028   3.454   8.742 -0.1622 -0.0700 -0.0641
17612W        W36359  16.394  25.097   2.242 -0.0136  0.1036 -0.0091
17613W        W36360   7.715  31.139  12.166 -0.1940  0.2193  0.3277
17614W        W36361  32.400  30.646  18.098 -0.1759 -0.3705  0.1734
17615W        W36362  21.667  31.005  14.026  0.2918 -0.2056  0.1138
17616W        W36363  23.653  26.078   2.720  0.2557 -0.2168 -0.1928
17617W        W36364   3.533   6.336   5.087  0.0777  0.2231 -0.1802
17618W        W36365   5.582   6.052   7.159 -0.4553  0.1000 -0.0889
17619W        W36366  23.435   4.915  19.567  0.1033  0.2158  0.3417
17620W        W36367  16.174  23.888  10.985 -0.2669  0.1782 -0.1801
17621W        W36368  14.130  13.481  11.514 -0.2058  0.3381 -0.0447
17622W        W36369  33.541  17.350  25.878  0.2265  0.0658  0.6067
17623W        W36370  28.760  13.499  11.277  0.0253 -0.1416 -0.0321
17624W        W36371   9.603   8.889  12.935 -0.0137  0.1506 -0.0275
17625W        W36372   4.080  22.719  22.202 -0.1932 -0.0724  0.0405
17626W        W36373   5.069  29.623   1.993  0.1827  0.0800  0.2472
17627W        W36374  20.179  31.762  21.248  0.0505  0.1373 -0.1458
17628W        W36375  25.880  29.572  17.518 -0.1733 -0.3913 -0.1302
17629W        W36376  30.334  21.350  12.332 -0.1879 -0.0049  0.2321
17630W        W36377  23.599   2.357   1.863 -0.3312 -0.1057 -0.1158
17631W        W36378  25.772  34.786  23.168 -0.3250 -0.2330  0.0440
17632W        W36379  16.614  23.444   6.673 -0.1132 -0.2477 -0.2076
17633W        W36380  16.213  20.215   4.898  0.0693 -0.0812  0.3085
17634W        W36381  12.600  17.746   6.948  0.0332  0.1220  0.1555
17635W        W36382   2.352  28.519   2.080 -0.1993  0.1861 -0.3666
17636W        W36383  34.340  24.132  24.551 -0.1976  0.1448  0.1457
17637W        W36384  30.128  28.687  13.029  0.0831  0.1008 -0.1223
17638W        W36385  10.561  21.513   7.794 -0.1467  0.0260  0.1266
17639W        W36386   7.696  23.446   4.275 -0.1443  0.2018  0.0505
17640W        W36387  24.999  24.872  24.767  0.3898 -0.0615 -0.0168
17641W        W36388  27.241   1.676  24.116 -0.1225 -0.1232 -0.0273
17642W        W36389  11.722  14.645  20.288 -0.0449 -0.1937  0.1230
17643W        W36390   6.968  18.314   2.301  0.0367 -0.3321  0.1425
17644W        W36391  33.748  11.041  23.898 -0.0259  0.0017 -0.1097
17645W        W36392  21.262  27.907  20.126 -0.0461  0.1209 -0.0169
17646W        W36393   1.979  34.144  20.006  0.0068 -0.0661  0.1272
17647W        W36394   5.764  22.771   2.397  0.0074 -0.2174 -0.2863
17648W        W36395  15.309  22.558   7.770 -0.0636 -0.2932  0.0526
17649W        W36396   9.271  15.249  24.150  0.1171  0.2924  0.1760
17650W        W36397  17.801   9.334  21.234  0.0255  0.0059  0.1210
17651W        W36398  14.515   2.428  11.979  0.2813 -0.0729  0.1485
17652W        W36399  32.240  29.772  14.922  0.1527  0.3021 -0.1166
17653W        W36400  10.443  18.544   7.102 -0.1160 -0.1398 -0.2671
17654W        W36401  30.922   4.420  20.924  0.0892 -0.1605  0.0601
17655W        W36402  11.530  21.016   1.350  0.0555  0.2671 -0.0496
17656W        W36403  28.114  12.807  14.078  0.1885 -0.0302  0.1094
17657W        W36404  16.956  29.104   0.282  0.0027 -0.4333  0.0891
17658W        W36405  28.430  20.528  23.476 -0.1325 -0.3461  0.1395
17659W        W36406  34.129  10.310  14.394  0.2284 -0.0134  0.1228
17660W        W36407  17.370  26.165   6.806 -0.0369  0.2599 -0.2489
17661W        W36408   8.086  23.258   6.804  0.1511  0.0192  0.0787
17662W        W36409   1.844  27.285   7.301 -0.1632 -0.3027 -0.0310
17663W        W36410  17.966   5.874  25.188  0.0252  0.0878  0.0876
17664W        W36411  17.977  30.829   1.618  0.0111 -0.0273  0.1947
17665W        W36412   2.016  12.880  14.134 -0.0984  0.0639 -0.0985
17666W        W36413   1.699   9.084   0.845 -0.3689 -0.3101  0.1229
17667W        W36414  12.711  29.818   3.949  0.1209 -0.3125  0.0283
17668W        W36415  32.037  21.056  24.996 -0.4745 -0.1152  0.0918
17669W        W36416  24.373  35.028  20.680  0.1630 -0.0857 -0.0160
17670W        W36417  14.056  13.348  12.945  0.2762 -0.1457  0.1899
17671W        W36418  35.157  33.832  20.698  0.0176  0.0809 -0.4600
17672W        W36419  12.605   8.306  25.198 -0.1598 -0.1799 -0.4932
17673W        W36420  27.231  28.980  12.857 -0.1160  0.1905  0.1309
17674W        W36421   3.221  26.637   6.816  0.1972 -0.0628  0.1055
17675W        W36422  27.126  33.134  21.481  0.1475 -0.1770 -0.0804
17676W        W36423  27.059  18.301  20.613 -0.1234 -0.1422 -0.2487
17677W        W36424  24.743  21.612  18.260  0.0832 -0.1799 -0.0918
17678W        W36425   3.358  12.751   5.252  0.1506  0.0731 -0.1138
17679W        W36426  18.419  14.201  18.003  0.0471 -0.1856 -0.0221
17680W        W36427  15.528   2.724   3.699  0.0504 -0.1323  0.1175
17681W        W36428  31.766  16.021   7.702 -0.1299 -0.0193 -0.0820
17682W        W36429  12.045  12.950  24.638 -0.0357  0.4107  0.0832
17683W        W36430  32.444   4.794   3.993 -0.1887 -0.1201  0.1194
17684W        W36431   3.195  24.232  24.176  0.0442  0.1285  0.0683
17685W        W36432  27.272  11.155   1.020  0.0536 -0.1656  0.2712
17686W        W36433   1.486  20.243  10.680  0.4071 -0.5665 -0.0540
17687W        W36434  35.276  16.971  10.418  0.1200  0.1678  0.2346
17688W        W36435  26.612  21.641  11.834 -0.1971  0.1763 -0.0991
17689W        W36436   4.958   1.046   8.268 -0.0597  0.2181  0.0847
17690W        W36437   8.719  15.678  25.478 -0.2341  0.2540  0.1711
17691W        W36438   6.632   6.345   2.415 -0.1786  0.2175  0.1949
17692W        W36439  10.261  30.244  25.350  0.0604  0.1383  0.1522
17693W        W36440  11.436  14.484   2.858  0.2518  0.1587  0.2600
17694W        W36441  12.267  32.682  14.593  0.0944 -0.1790  0.1206
17695W        W36442  26.183  35.111  16.955 -0.2289 -0.2576 -0.0192
17696W        W36443   5.824  35.200   1.896 -0.2346 -0.5063  0.2450
17697W        W36444  31.293  11.311  15.860  0.0609  0.0162  0.1041
17698W        W36445  24.722  11.017  24.348  0.3063  0.3907  0.1128
17699W        W36446   0.816  18.635  14.694  0.0284 -0.2286  0.2615
17700W        W36447  16.599  17.489  19.275  0.3096  0.1633  0.1696
17701W        W36448   0.448  34.254   5.756 -0.0171 -0.3782  0.5925
17702W        W36449  22.634  24.484  17.018  0.0533 -0.0443 -0.0002
17703W        W36450  20.197  24.897   2.751 -0.2827 -0.1341  0.1476
17704W        W36451  22.339  10.745  18.651  0.1743 -0.1318  0.3723
17705W        W36452   5.325   8.529  10.220 -0.0844 -0.1806  0.2538
17706W        W36453  19.724   2.451  22.541  0.1143 -0.1109  0.0752
17707W        W36454  17.260   2.807  21.547  0.2280  0.1512 -0.2622
17708W        W36455   2.782  21.307  20.869  0.0548 -0.0021 -0.0296
17709W        W36456  25.970  27.081   0.210  0.0034 -0.0306  0.0601
17710W        W36457  27.895  33.329   3.745  0.0097 -0.0330  0.4208
17711W        W36458  26.009   8.620  15.946  0.0295  0.3036  0.2523
17712W        W36459  21.375   8.446   6.826  0.1793 -0.0896 -0.1539
17713W        W36460  16.860  14.755   3.014 -0.1115  0.0489  0.0036
17714W        W36461   1.086   0.589   6.723 -0.1246  0.1348  0.2198
17715W        W36462  18.138  11.636  23.426 -0.1207  0.1015 -0.0310
17716W        W36463  25.668  16.207   6.777 -0.3886  0.3162  0.0467
17717W        W36464  12.339   3.150  24.936 -0.1648  0.3645 -0.1127
17718W        W36465   7.661  19.344   6.242 -0.1472  0.0641 -0.1497
17719W        W36466  26.636  27.970  21.999 -0.1273 -0.0577  0.1707
17720W        W36467   5.207  29.211  12.664  0.1282 -0.2937 -0.0923
17721W        W36468   6.560  15.582  10.024 -0.1544  0.2326 -0.0581
17722W        W36469  21.027  17.606  17.691  0.0329  0.0490  0.1658
17723W        W36470  25.648  17.811  24.578  0.0873 -0.0696  0.0977
17724W        W36471  21.744  24.724  20.169 -0.0552  0.3337 -0.1273
17725W        W36472  13.657   6.304  20.275 -0.1175  0.0695  0.0149
17726W        W36473  10.336  20.237   2.877  0.0424  0.2922 -0.1973
17727W        W36474   8.855  18.549   9.989  0.1162  0.0813  0.1654
17728W        W36475   0.391  20.129  18.120  0.0317 -0.2221 -0.2408
17729W        W36476  13.435  18.227  11.618  0.1083  0.1978 -0.1991
17730W        W36477  25.105  35.084  15.158  0.0059  0.4988  0.0955
17731W        W36478  34.846  19.922  24.104  0.3555 -0.0616  0.3111
17732W        W36479  32.914  29.624  14.884  0.0846  0.2365  0.1798
17733W        W36480  24.757  13.526  10.792  0.3704 -0.0014  0.1846
17734W        W36481   1.703   8.288  17.006  0.0889  0.0364  0.4591
17735W        W36482  19.581  12.886  24.206 -0.2464 -0.2506  0.0178
17736W        W36483  30.956  14.788  23.964  0.1116  0.0237 -0.0810
17737W        W36484  12.099  32.556  23.084 -0.0794 -0.0896  0.0177
17738W        W36485  25.472  27.544  24.173 -0.1537  0.2065  0.4026
17739W        W36486   3.041  30.333   8.955 -0.0202 -0.0480  0.1848
17740W        W36487   7.595   6.555  25.372 -0.0888  0.0165  0.0737
17741W        W36488  32.555  31.140   1.419 -0.0691  0.2150 -0.2111
17742W        W36489  18.782   2.582   4.450  0.3489  0.3615 -0.0927
17743W        W36490  31.099  35.216   6.658  0.0135 -0.0256  0.2025
17744W        W36491   1.313  21.238  23.274  0.2203 -0.0315  0.2344
17745W        W36492   0.280  11.126   2.399 -0.2823 -0.1992 -0.2711
17746W        W36493  28.342   1.063   0.620 -0.0901 -0.0250  0.3501
17747W        W36494  15.375   6.153   5.047 -0.1448  0.1987  0.1973
17748W        W36495   4.275  34.196   4.911  0.2428  0.0242 -0.4768
17749W        W36496  23.510  12.505  14.518  0.2646 -0.0181  0.1721
17750W        W36497   2.512  16.588   1.654 -0.0476 -0.1320  0.0846
17751W        W36498  13.670  10.526  20.894 -0.0150 -0.2011  0.0512
17752W        W36499  28.140  34.471  11.442  0.1939 -0.0430  0.0271
17753W        W36500  24.434  32.043  22.784 -0.2641 -0.1436  0.0399
17754W        W36501   6.524  12.743   8.230 -0.0750 -0.4144 -0.2039
17755W        W36502   0.395  22.274  23.781 -0.1129  0.0299 -0.2986
17756W        W36503  19.023  21.658   5.578 -0.0667  0.0375  0.3773
17757W        W36504   5.789  20.896  23.039 -0.2659  0.0979 -0.1342
17758W        W36505  11.162  12.443   7.795 -0.0214 -0.0635 -0.0326
17759W        W36506   8.930  26.322  15.442  0.2127  0.3201 -0.0627
17760W        W36507  26.380  22.603  16.340 -0.1726 -0.0712  0.1873
17761W        W36508  14.037  35.196  12.066 -0.2229  0.2432  0.0480
17762W        W36509  18.537  18.715  10.984 -0.3836  0.0609 -0.0622
17763W        W36510   3.926   9.595  17.025 -0.4030 -0.1397  0.0661
17764W        W36511  27.019  30.235  11.517  0.0383  0.2149  0.1836
17765W        W36512   7.578  27.890  14.809 -0.3415  0.2569 -0.0750
17766W        W36513  18.418   2.228  10.504 -0.0105  0.3585 -0.0738
17767W        W36514  29.354  25.736  21.516  0.0483  0.2064  0.0019
17768W        W36515  10.841  34.066   7.179  0.0239 -0.1100 -0.0906
17769W        W36516   6.273  31.136  20.795  0.3281 -0.2129 -0.1554
17770W        W36517  17.478  24.684   5.120  0.1782  0.2010  0.0978
17771W        W36518  13.291  32.966  11.658 -0.2170  0.0472 -0.1292
17772W        W36519  25.245   2.567  18.825  0.1013 -0.2067 -0.4640
17773W        W36520  10.738  20.165   4.565  0.1778 -0.3432 -0.2843
17774W        W36521  32.153  18.246   5.833  0.1831  0.3261 -0.0148
17775W        W36522   4.779  12.697  24.131 -0.2281 -0.1665  0.1043
17776W        W36523  13.967  21.336  14.164 -0.0223 -0.0992 -0.1083
17777W        W36524  10.198   4.204   2.487  0.3601 -0.1328 -0.0705
17778W        W36525   9.860  33.940  15.253 -0.2438  0.0876 -0.1820
17779W        W36526  20.619   7.674   6.816 -0.0417 -0.0576  0.5076
17780W        W36527  10.555  11.011   4.960  0.1176  0.1890 -0.4410
17781W        W36528   8.663  25.146   6.334 -0.2265  0.1152  0.0378
17782W        W36529   2.701  19.055  14.771  0.3018 -0.3314  0.0035
17783W        W36530  15.863  34.348   3.774 -0.1980  0.0141  0.0673
17784W        W36531   9.123  26.474   1.425 -0.0350 -0.1644  0.0323
17785W        W36532  17.231  14.441  26.175 -0.2504  0.0291 -0.0287
17786W        W36533  23.580   6.817  17.322  0.5168  0.0294 -0.0150
17787W        W36534  24.194  25.068  17.671  0.3835  0.3325 -0.1952
17788W        W36535  34.336  17.271  13.042  0.1783 -0.1937  0.0020
17789W        W36536  19.903  26.485   7.629  0.0046  0.1045 -0.1052
17790W        W36537   9.782   9.590  11.269  0.0893  0.0676  0.2482
17791W        W36538   4.903  31.052   1.557 -0.1639  0.1287 -0.0079
17792W        W36539   4.188  35.186   0.736 -0.3283  0.5108  0.1812
17793W        W36540  15.965  25.705   6.219 -0.0474  0.2492  0.0482
17794W        W36541  13.663  25.609   3.808 -0.1019 -0.1499  0.0174
17795W        W36542  32.685  22.942  21.213  0.0954 -0.1433 -0.3797
17796W        W36543  34.261  21.541  15.690 -0.0060  0.0955 -0.0553
17797W        W36544  33.902  32.672  16.101  0.0139  0.1231 -0.2657
17798W        W36545   9.375  32.972   1.443 -0.2476 -0.0618  0.0661
17799W        W36546  29.303  27.063  10.694  0.0239 -0.0907  0.1089
17800W        W36547  11.049  13.236  22.295 -0.2273  0.0173 -0.0758
17801W        W36548  32.644  16.089   5.473 -0.4449  0.0102  0.0429
17802W        W36549  31.253  11.638   7.723  0.1127  0.1974 -0.0799
17803W        W36550  26.281  17.966  18.177 -0.0387  0.6317 -0.0654
17804W        W36551  24.563  20.167   1.439 -0.0192  0.3885  0.1602
17805W        W36552   2.128   4.372  24.076  0.1594 -0.1082 -0.0968
17806W        W36553  14.908  11.621   5.758 -0.2299 -0.1177 -0.2184
17807W        W36554  31.819   9.215  17.918  0.0846  0.2348 -0.0593
17808W        W36555  30.270   5.950  20.242 -0.0336 -0.1292 -0.2370
17809W        W36556  21.297  10.183   5.957  0.3853  0.0020 -0.2010
17810W        W36557   9.610  15.790  10.071 -0.0966  0.0330  0.0170
17811W        W36558  17.082  15.013  11.740 -0.1325  0.3218  0.1578
17812W        W36559   6.443  19.491  24.793  0.0214 -0.1919  0.0745
17813W        W36560  15.350  22.423   4.334  0.0151 -0.1827  0.0717
17814W        W36561  28.663  21.360  24.953 -0.1712 -0.0132  0.1082
17815W        W36562  29.342   3.727   3.716 -0.1819 -0.0508  0.1219
17816W        W36563  15.108  29.006  11.562 -0.2662  0.0897 -0.0266
17817W        W36564   8.575   6.334  12.355  0.1359 -0.4094 -0.1316
17818W        W36565  12.746  21.918   6.640 -0.1694  0.0027 -0.1332
17819W        W36566   1.632   9.581  17.879  0.1680 -0.0969  0.2836
17820W        W36567  15.464  20.181  13.078  0.3551 -0.1363  0.2259
17821W        W36568  11.700  24.071   9.468 -0.1042 -0.4921 -0.0045
17822W        W36569  13.463  24.012  22.949  0.0929  0.0820  0.1078
17823W        W36570  29.642  18.120   6.793 -0.2348  0.1673 -0.1663
17824W        W36571  27.905  10.108   6.662  0.0224 -0.2449 -0.0847
17825W        W36572  13.215  26.016  24.785  0.3007 -0.1747 -0.3361
17826W        W36573   2.372   1.965  25.228 -0.1266 -0.2334  0.1578
17827W        W36574  12.790  23.612   1.926  0.0330 -0.0692 -0.1947
17828W        W36575  17.402   6.960   2.316 -0.0634 -0.1034  0.0542
17829W        W36576  29.169  19.331  25.935 -0.1698  0.2164  0.1972
17830W        W36577  13.761   8.353   5.017 -0.0892  0.2847  0.0230
17831W        W36578  14.150  22.281  12.362  0.0427  0.3060  0.0278
17832W        W36579  23.434   5.588  25.947  0.0278  0.0929 -0.0158
17833W        W36580   3.924   6.508   4.360 -0.2256 -0.1080  0.2157
17834W        W36581   7.498  29.903   3.605  0.0200 -0.0428  0.0313
17835W        W36582  23.117  30.017  20.536 -0.1845  0.4657 -0.2168
17836W        W36583  27.080   2.629  25.340 -0.0846 -0.0676  0.5510
17837W        W36584  14.483   9.803  22.833 -0.0308  0.0356  0.0689
17838W        W36585  30.395  18.768  17.864  0.0259 -0.0423 -0.1906
17839W        W36586  19.543   6.693  21.634 -0.0081  0.0934 -0.0849
17840W        W36587  34.474  25.867  26.056 -0.1260  0.1080  0.2498
17841W        W36588   6.307  25.467   8.723 -0.1642 -0.1962 -0.4198
17842W        W36589  20.086  19.989  18.395 -0.2133  0.1306 -0.1035
17843W        W36590  16.932  29.798  22.132  0.0890 -0.2378 -0.1155
17844W        W36591  21.768   3.325  21.075 -0.0491 -0.3319  0.0310
17845W        W36592   5.265  31.421  25.074  0.1205  0.1851 -0.2183
17846W        W36593  35.341  32.100   0.249 -0.0321  0.3598  0.0896
17847W        W36594  12.858   1.551  25.634 -0.0944  0.2601  0.0998
17848W        W36595  31.574  10.519  10.617  0.0935  0.0808  0.0742
17849W        W36596  17.229  33.983  16.949 -0.4865  0.0101 -0.0240
17850W        W36597  28.247  17.917  24.868 -0.1881  0.0506  0.2433
17851W        W36598   8.645  25.866  15.384 -0.1086  0.0748  0.0154
17852W        W36599  11.195  10.213   0.757 -0.1379  0.0153 -0.0043
17853W        W36600  27.325  27.121  22.028  0.3637  0.1892  0.1360
17854W        W36601   5.936  12.228  19.433 -0.0616  0.0737 -0.0840
17855W        W36602   9.760  19.047  23.448  0.3215 -0.0302 -0.2020
17856W        W36603  28.937   0.905  12.841  0.2175 -0.0476  0.0762
17857W        W36604  25.798   4.374  14.255 -0.0335 -0.0124 -0.2887
17858W        W36605   3.391   7.689  16.333  0.0273  0.0882 -0.0460
17859W        W36606  17.319  22.157  11.375  0.0346  0.0207  0.0861
17860W        W36607  21.397  35.022  17.437 -0.1868  0.4962  0.1269
17861W        W36608  14.911  23.133  24.555 -0.1107  0.2022  0.1056
17862W        W36609  26.969   3.060  19.136 -0.1377  0.0588 -0.0583
17863W        W36610  16.030   2.189   5.465  0.2025 -0.1521  0.2037
17864W        W36611   7.786  29.410  24.753  0.1740  0.0574  0.1693
17865W        W36612  14.818  28.487   7.297 -0.1554  0.0161  0.1236
17866W        W36613   2.045   8.694   2.716  0.0357 -0.2720  0.1008
17867W        W36614  12.390  28.167   5.724  0.0299 -0.1116  0.0911
17868W        W36615  31.117  22.585   5.908 -0.1245  0.0385 -0.0055
17869W        W36616  15.721   3.684   3.659  0.0116  0.3032 -0.0785
17870W        W36617   4.121  22.216  21.196 -0.2872 -0.1027  0.1152
17871W        W36618   1.794  21.535  25.436  0.0240 -0.1593  0.3642
17872W        W36619  27.903  19.309  18.169  0.1846 -0.1654  0.1887
17873W        W36620  23.875   3.942  13.915  0.1549 -0.1725 -0.3321
17874W        W36621  13.219  11.531   1.869 -0.1226 -0.1821  0.0595
17875W        W36622   0.745  25.270  15.691 -0.2421 -0.0333 -0.0195
17876W        W36623  28.022  23.980  12.947  0.2537 -0.3313  0.0187
17877W        W36624  32.339   9.055  18.412 -0.0619 -0.4510 -0.0979
17878W        W36625  32.803  14.312   9.775 -0.2628  0.1296  0.2130
17879W        W36626  34.259  20.970  23.333  0.0295 -0.1825 -0.0818
17880W        W36627  13.324  21.226   4.724 -0.1599 -0.0435  0.1082
17881W        W36628  23.129  28.638   0.370 -0.0711  0.0099  0.0879
17882W        W36629  30.643  23.167  20.812 -0.2117 -0.0335  0.0364
17883W        W36630  33.349  26.389  15.758 -0.0129  0.0738  0.1325
17884W        W36631  14.213  26.703  12.559 -0.1491 -0.1878  0.1021
17885W        W36632   8.913   5.827  23.757 -0.0842 -0.0702 -0.1147
17886W        W36633  10.234  32.275  15.318  0.3229  0.1903  0.2990
17887W        W36634  21.517   4.010   4.831  0.1474  0.3391  0.0267
17888W        W36635  23.588   3.280  17.307  0.0039 -0.3031 -0.0921
17889W        W36636   2.103  16.564  17.370 -0.3541  0.1604  0.0289
17890W        W36637   6.615  24.839  22.895  0.0420 -0.0683  0.0989
17891W        W36638  28.763  24.321  14.032 -0.1266  0.3775 -0.2458
17892W        W36639  18.881   5.781  20.900  0.0648  0.2394 -0.2414
17893W        W36640   9.085  17.314  22.085 -0.0544  0.2092 -0.1076
17894W        W36641  22.592  27.003   1.727 -0.2874 -0.1330 -0.2725
17895W        W36642  15.804  12.694  21.426  0.2422 -0.1557 -0.0262
17896W        W36643  13.061  13.122  24.185  0.0926 -0.4653 -0.1181
17897W        W36644  32.069  25.837  21.562 -0.0758  0.2078 -0.2525
17898W        W36645  15.814   8.984   3.723  0.0539  0.0194 -0.0531
17899W        W36646  25.645   2.757  25.755 -0.1405  0.0768  0.2893
17900W        W36647   8.783  26.861  21.258 -0.1496 -0.2678 -0.0295
17901W        W36648  20.048  28.061  17.969 -0.0706 -0.1080  0.1991
17902W        W36649   0.369   6.563  25.923 -0.1300 -0.3094 -0.1635
17903W        W36650  13.971  32.312  13.408 -0.2325  0.1625  0.1641
17904W        W36651  34.268  10.948  11.555 -0.1126  0.0214 -0.1719
17905W        W36652  21.185  33.272   0.201  0.1601 -0.0983  0.0317
17906W        W36653  29.959  32.399  22.492  0.0711 -0.1222  0.3273
17907W        W36654   7.127   4.270  10.922  0.0449 -0.4615 -0.2595
17908W        W36655  12.171  25.318   0.146  0.0991 -0.3912  0.0631
17909W        W36656  23.127  23.125   0.865 -0.1011 -0.0215 -0.1628
17910W        W36657  24.572  18.224  21.285  0.0699  0.1590 -0.2680
17911W        W36658   7.076  28.189  25.605 -0.0178 -0.1024 -0.0143
17912W        W36659  35.018  15.237   0.975  0.0550  0.1331  0.0614
17913W        W36660  23.118  19.947  20.034 -0.1823 -0.3056  0.1072
17914W        W36661   6.359   0.047  24.791 -0.0035  0.2233 -0.2044
17915W        W36662   9.898  23.866  12.626 -0.2129 -0.1702  0.2605
17916W        W36663   8.424   6.939  21.535  0.2181  0.1729 -0.0740
17917W        W36664  23.714   5.207  16.587 -0.3020 -0.0853  0.1947
17918W        W36665  32.549   8.602   1.231 -0.0821 -0.2483  0.1249
17919W        W36666  30.965   3.358  11.760 -0.0347 -0.2860  0.0402
17920W        W36667  12.724  28.050   9.299 -0.2756 -0.3017  0.0328
17921W        W36668   5.824  27.666  12.821 -0.1855  0.1313  0.1319
17922W        W36669  23.912   3.934  23.158 -0.2883  0.3255 -0.0186
17923W        W36670   6.820  11.891  20.523 -0.2111 -0.0359 -0.0315
17924W        W36671  32.352  35.119  23.896  0.1930  0.0849  0.1443
17925W        W36672   2.744   8.909  16.870 -0.1872  0.1410  0.0083
17926W        W36673  15.615  34.661  20.539  0.0352 -0.3117  0.1409
17927W        W36674   7.490  21.562   1.436  0.1688 -0.1802  0.0334
17928W        W36675   4.922   6.555   4.672  0.1451 -0.0713 -0.3308
17929W        W36676  28.630  17.936  23.073 -0.2420 -0.0721  0.0406
17930W        W36677  24.574  11.021   1.438  0.0646  0.3108 -0.0590
17931W        W36678  15.211   6.017  10.313 -0.4401  0.0549 -0.0089
17932W        W36679  13.470  25.605  16.849  0.0936 -0.0491 -0.1773
17933W        W36680   1.705  17.233  14.108 -0.1445 -0.0712  0.2415
17934W        W36681  29.630   0.764   5.554 -0.1546 -0.0263 -0.0922
17935W        W36682  29.595  28.810   0.439  0.0225  0.5615  0.0023
17936W        W36683  17.077  28.754   9.653  0.2501  0.1063  0.2287
17937W        W36684  11.800  22.132   9.399  0.0402  0.3582 -0.0582
17938W        W36685  31.245   0.072  18.573  0.1329  0.2005  0.3766
17939W        W36686  10.077   0.156  25.098  0.1411  0.0042  0.0788
17940W        W36687   3.365  28.185  23.740 -0.1885  0.0225 -0.0762
17941W        W36688   3.611  13.946   0.718 -0.2235  0.0496 -0.1679
17942W        W36689  10.290   1.386   3.162  0.1792 -0.5590  0.0261
17943W        W36690  27.752   2.390   1.909 -0.4144  0.1989  0.0815
17944W        W36691  21.676  17.634  19.419  0.0210 -0.1059  0.3530
17945W        W36692  19.173   6.430  25.330  0.2077 -0.0613  0.0459
17946W        W36693  10.359  34.593  21.652  0.0351 -0.1488 -0.5158
17947W        W36694  16.539  26.281   2.939 -0.1432  0.2873 -0.0695
17948W        W36695   7.695   0.971   2.974 -0.1368 -0.0486 -0.1235
17949W        W36696  21.655  10.214  15.832 -0.0343  0.1447 -0.3976
17950W        W36697  33.643  32.907   0.571  0.0688 -0.2302  0.2354
17951W        W36698   9.593  21.845   1.844 -0.1685 -0.1860 -0.0432
17952W        W36699  11.081  12.454   6.974 -0.0089  0.1193  0.0351
17953W        W36700  31.348  23.984   8.550 -0.1601 -0.1000 -0.1052
17954W        W36701   3.853  31.104   7.457  0.1635 -0.0129 -0.1528
17955W        W36702  17.184  15.094   8.059  0.0223  0.3207 -0.3948
17956W        W36703  32.399  27.715  19.845 -0.0534 -0.5467 -0.1262
17957W        W36704  28.019   0.345  23.930  0.1304  0.2557  0.3210
17958W        W36705   3.223   3.527   8.011  0.1140 -0.1606 -0.1838
17959W        W36706  30.294  27.009  20.618 -0.2465 -0.2111 -0.2920
17960W        W36707   1.654  16.213   0.728  0.1258  0.0646  0.2201
17961W        W36708  19.930   5.537  23.553  0.1450  0.1355  0.1143
17962W        W36709  14.747   3.946  11.680  0.0525 -0.0753  0.0113
17963W        W36710  34.006   8.802  16.445 -0.0919 -0.1744  0.1317
17964W        W36711   0.485  21.916  23.408  0.1082  0.1617  0.2560
17965W        W36712  31.906  17.169   5.603  0.0381  0.0915  0.3630
17966W        W36713  10.090   2.559   8.814 -0.1584  0.0112 -0.0873
17967W        W36714  11.569  28.965  13.383 -0.0995  0.0619 -0.1976
17968W        W36715  22.878  27.587  17.700  0.0014 -0.0364 -0.3764
17969W        W36716  16.728  22.015  12.557 -0.3626  0.2077  0.4533
17970W        W36717   8.750  32.118  11.931  0.0267 -0.0506 -0.1267
17971W        W36718  15.850  26.318   3.654  0.1154 -0.4826 -0.0706
17972W        W36719  28.232   3.057  14.588  0.1972 -0.0988  0.1048
17973W        W36720  25.018   0.503  24.555 -0.0671 -0.2644  0.0630
17974W        W36721  11.476   0.094  22.823 -0.1119 -0.1400 -0.0656
17975W        W36722  12.212  24.652  25.251  0.3104 -0.0546  0.0979
17976W        W36723  13.251  35.108   4.330 -0.2362  0.2816 -0.2642
17977W        W36724  31.174   7.776  21.670  0.1559  0.0082 -0.0896
17978W        W36725  19.939  20.666   8.827  0.0376  0.2495  0.2410
17979W        W36726   3.075  25.116   0.487  0.0726  0.5491 -0.1320
17980W        W36727   9.425   9.046  13.860  0.1470 -0.0611  0.1079
17981W        W36728  32.064  29.439   2.757  0.0042  0.0100  0.4026
17982W        W36729  13.019   7.568  23.701 -0.0662 -0.0430 -0.0965
17983W        W36730  13.963  33.961   3.659 -0.2445  0.0387 -0.0669
17984W        W36731  30.645  14.590  15.245 -0.4363 -0.0364  0.0522
17985W        W36732   1.668   0.831  20.647  0.0465  0.0857 -0.1405
17986W        W36733  30.582  10.590  21.462 -0.2060 -0.0027 -0.1883
17987W        W36734  24.537   8.325  18.397 -0.0785 -0.0876  0.1603
17988W        W36735   6.472   4.278   5.736 -0.0613 -0.1001 -0.1784
17989W        W36736  13.275  24.045  16.105 -0.1946 -0.3289 -0.2167
17990W        W36737   4.865  13.859   7.591  0.1831 -0.4472 -0.1306
17991W        W36738  13.911  14.044   8.404 -0.1623  0.0102  0.3105
17992W        W36739   3.116  27.177   4.143  0.3009 -0.0775  0.0361
17993W        W36740  28.624  21.398   9.107 -0.5123  0.0360 -0.0351
17994W        W36741  32.335  13.133  15.651  0.2395 -0.0008 -0.1460
17995W        W36742   4.019  27.168   5.410  0.1676 -0.1949  0.0298
17996W        W36743  22.985   6.255  23.616  0.1560  0.2563 -0.0924
17997W        W36744   5.264  17.847  25.906 -0.1441  0.1822 -0.3729
17998W        W36745  27.553  31.036   1.122  0.1343  0.3747  0.0421
17999W        W36746   0.730  17.970  22.605  0.0979  0.2398  0.0982
18000W        W36747  24.932   6.107   4.317 -0.0548 -0.1776  0.0450
18001W        W36748  20.461  12.156  19.232 -0.1292 -0.0252 -0.1505
18002W        W36749   8.551   6.724   9.773 -0.0157 -0.3251  0.2360
18003W        W36750  10.977  16.586  11.638  0.2273  0.1797 -0.0079
18004W        W36751  31.979  14.682   8.486  0.3814 -0.0337 -0.2496
18005W        W36752  23.705  26.150   2.149  0.0244 -0.2020  0.0841
18006W        W36753  35.076   3.507  24.913  0.1230 -0.0956 -0.1783
18007W        W36754  10.121  33.871  11.785  0.1501 -0.1174  0.0453
18008W        W36755   1.823  12.858   2.831 -0.0602  0.0994  0.0802
18009W        W36756  29.461  35.075   6.054 -0.1367 -0.0593  0.0114
18010W        W36757   0.281   5.254   3.985 -0.2340 -0.2152  0.0094
18011W        W36758  12.908  22.432  25.214  0.1939  0.1373  0.1742
18012W        W36759  29.631  17.527  16.080  0.1802  0.1129  0.1680
18013W        W36760   6.088  34.661  12.180 -0.2288 -0.2220 -0.1343
18014W        W36761  25.987  20.003   7.515 -0.1180  0.2226 -0.0964
18015W        W36762  27.229  11.391   8.193 -0.0398  0.0295  0.0466
18016W        W36763  23.752  31.995   2.851 -0.1236  0.1104 -0.1924
18017W        W36764  18.034   4.779  23.695  0.0212  0.1944 -0.2732
18018W        W36765   5.626  15.202   6.018 -0.0494 -0.1322  0.3732
18019W        W36766  33.833   5.242  16.367  0.3930  0.0465  0.0021
18020W        W36767  13.621  28.471   9.416 -0.0405 -0.0004 -0.0721
18021W        W36768  34.064  32.158   2.269 -0.1773 -0.2234 -0.0499
18022W        W36769  29.524  18.939  12.015 -0.3283 -0.0845 -0.0785
18023W        W36770  28.562  11.956  23.950  0.1804  0.2232  0.0398
18024W        W36771   1.498  34.838  21.514 -0.2407 -0.3007  0.0640
18025W        W36772  14.006  20.502   7.458 -0.4182  0.1994  0.1521
18026W        W36773  22.981  16.630  15.074  0.0155 -0.0584 -0.0311
18027W        W36774  33.131  31.797   6.848  0.0631  0.0110  0.0007
18028W        W36775  20.920  18.493  24.567  0.1432 -0.1858  0.0754
18029W        W36776   6.113   3.563  10.290 -0.1094  0.0410  0.3510
18030W        W36777  26.874  14.895  22.210  0.0022  0.1418 -0.0940
18031W        W36778   3.399  35.277  21.282 -0.1230 -0.0183 -0.0295
18032W        W36779  19.957  16.923   3.899  0.0965  0.1522 -0.1372
18033W        W36780   6.701  25.382   2.248  0.1796  0.1340  0.0030
18034W        W36781   1.156   6.958  15.145 -0.0426 -0.0590  0.0190
18035W        W36782  33.380  19.599  12.438  0.2877  0.1500  0.1071
18036W        W36783  23.045  32.333  18.154  0.0382 -0.0229  0.0035
18037W        W36784  25.335   1.251  15.808 -0.0617 -0.2899  0.0225
18038W        W36785  24.371   1.766   3.938 -0.0884  0.0549  0.0221
18039W        W36786  18.480  17.681   6.515 -0.0086 -0.1030  0.1380
18040W        W36787  28.146  19.769  11.915 -0.0174 -0.3086  0.3285
18041W        W36788  16.405   5.038   7.700 -0.0703 -0.2743 -0.0415
18042W        W36789   0.017   0.960  15.329  0.1374 -0.1099 -0.1987
18043W        W36790   4.836  15.868   4.350 -0.0271 -0.1188 -0.0630
18044W        W36791  14.028  17.187  12.753  0.1273  0.3278 -0.2392
18045W        W36792  12.506  26.597   0.340 -0.0934  0.1426  0.2520
18046W        W36793   8.391   7.252   4.252 -0.0616  0.0022  0.0539
18047W        W36794  26.384   4.353   1.848 -0.0228 -0.2159 -0.1119
18048W        W36795  29.814  25.296  25.973  0.1927  0.0398 -0.0405
18049W        W36796   1.053  16.371  11.448  0.1299  0.3133  0.0999
18050W        W36797  11.231  14.177   0.932  0.5611 -0.2189  0.3802
18051W        W36798   2.959  12.759  17.119  0.1834 -0.1338 -0.1124
18052W        W36799   8.927   5.711  24.557  0.0583 -0.1566  0.0773
18053W        W36800  12.929  20.299   6.380  0.0360 -0.0515 -0.0117
18054W        W36801   1.641  17.348  10.510  0.2195 -0.1117  0.3193
18055W        W36802  17.362   4.237   8.895 -0.1244 -0.1970  0.1630
18056W        W36803  30.337  26.888  13.717  0.2212  0.1173 -0.2870
18057W        W36804  27.715  35.165  16.251  0.0140 -0.0298  0.0150
18058W        W36805  25.170  20.223  15.789  0.1571  0.0975  0.2237
18059W        W36806   8.025  33.370  10.061  0.0465 -0.3048  0.0267
18060W        W36807   8.111  21.838   6.332 -0.0844 -0.1761 -0.0897
18061W        W36808   3.525   0.175  24.390  0.1824  0.0533  0.2025
18062W        W36809  17.702   7.385   2.126 -0.0660  0.0337  0.2260
18063W        W36810  11.204  16.883  12.606 -0.2070 -0.1415  0.0576
18064W        W36811  10.162  19.305  21.827  0.1144 -0.2883 -0.0410
18065W        W36812  20.753  34.200  19.898 -0.2001  0.0853 -0.0457
18066W        W36813  28.183   4.497  13.467 -0.1616 -0.0910 -0.1053
18067W        W36814  18.457  25.519  23.169  0.1138 -0.2786 -0.2258
18068W        W36815  11.752   1.502   0.907 -0.1069 -0.1492 -0.3991
18069W        W36816  27.028   4.518  19.411  0.3088  0.0796  0.4306
18070W        W36817   4.101  19.261  25.173  0.1053 -0.0042  0.0196
18071W        W36818   4.215  13.784   4.207  0.2538 -0.4251  0.1724
18072W        W36819  25.018   2.300   2.374  0.0119  0.1186  0.2918
18073W        W36820  22.925  23.827  19.770  0.3727 -0.0140 -0.0096
18074W        W36821  15.704  34.400  20.971  0.1311 -0.0310  0.1925
18075W        W36822  34.959  23.289  19.500  0.2815  0.3552 -0.0244
18076W        W36823  10.299  14.949   0.437  0.3502  0.2759 -0.1725
18077W        W36824   8.771  13.596  22.172 -0.1306  0.2210 -0.2052
18078W        W36825  33.234  22.932  14.926 -0.1069  0.1848  0.2938
18079W        W36826  30.731   3.918  16.189 -0.2231 -0.1176  0.1742
18080W        W36827  31.294  22.289  19.154  0.2186 -0.2610 -0.0150
18081W        W36828   1.501  14.882  15.506  0.1113  0.0687 -0.1671
18082W        W36829   7.167  34.195   7.633  0.1819 -0.1599  0.1299
18083W        W36830  17.460  13.556   5.471  0.0042 -0.1106 -0.1335
18084W        W36831   1.067  33.148  23.124  0.1513  0.0530 -0.0728
18085W        W36832  26.454   8.045  13.063  0.1303  0.0881 -0.2788
18086W        W36833   3.378  12.093   5.441  0.1708 -0.0546 -0.0092
18087W        W36834  11.064   2.957   1.610 -0.0221 -0.1807 -0.1105
18088W        W36835  25.540  19.038  12.068  0.0088  0.0846  0.1273
18089W        W36836  25.651  34.312  21.411  0.0964  0.3667 -0.1139
18090W        W36837  30.357  26.994  14.209  0.0892 -0.0717  0.0817
18091W        W36838  25.768  16.662  21.919  0.3053 -0.0213  0.1456
18092W        W36839  16.706  22.998  25.530 -0.0237  0.2966 -0.0456
18093W        W36840  14.782  19.762   5.320  0.1621 -0.1568  0.0101
18094W        W36841   2.735  25.497   4.538  0.2749  0.0686 -0.0149
18095W        W36842  13.569  16.305  14.302  0.0406  0.0907  0.0859
18096W        W36843  20.403  32.485  25.301 -0.1934 -0.2029  0.0716
18097W        W36844  33.962  18.797  11.148  0.0545 -0.1679 -0.1424
18098W        W36845  16.619  21.355  23.449 -0.1656  0.0051 -0.1025
18099W        W36846   7.419  33.069  10.845 -0.0917 -0.0364 -0.3953
18100W        W36847  13.490   6.914  13.249  0.0124 -0.1093 -0.0549
18101W        W36848  25.608   3.456   4.335 -0.0284 -0.0022  0.1869
18102W        W36849   0.849  32.179  19.125  0.0744  0.0418  0.3595
18103W        W36850   4.003  34.846  19.777 -0.0806  0.0390 -0.1424
18104W        W36851   3.821  15.058   2.442 -0.1378 -0.1936  0.0701
18105W        W36852  22.322  11.201  23.610  0.0407  0.0776  0.0482
18106W        W36853  34.751   5.554   1.818  0.3042  0.0700  0.3370
18107W        W36854   9.117   0.398  10.856  0.2036  0.0629 -0.0233
18108W        W36855  24.136   6.545  20.786 -0.0829  0.0210 -0.1837
18109W        W36856  17.174  34.527   9.558  0.0039 -0.0192  0.0189
18110W        W36857   2.872  25.529   5.394  0.2011  0.0198  0.0874
18111W        W36858  22.793  24.943  23.242 -0.3142  0.1415 -0.0582
18112W        W36859   6.882  25.938  10.138 -0.1716 -0.4691 -0.1504
18113W        W36860  30.987   6.019   1.718  0.0985 -0.1177  0.0408
18114W        W36861  14.154  10.268   1.480 -0.2595 -0.1068 -0.1987
18115W        W36862  35.066  13.163  21.236  0.1703 -0.2682 -0.0939
18116W        W36863   7.669  13.021  24.644 -0.1236 -0.1138 -0.1783
18117W        W36864   9.323  31.071   8.548 -0.1054  0.0328  0.1572
18118W        W36865  16.886   5.620   7.121 -0.1401 -0.1297  0.0865
18119W        W36866   8.702  13.659   2.099 -0.0350 -0.0486  0.2524
18120W        W36867  18.954  30.675   3.113 -0.1456 -0.0160  0.2273
18121W        W36868  31.457  32.073  19.803 -0.2451  0.1096  0.1169
18122W        W36869  29.745  19.044  21.204 -0.0773 -0.1963  0.0622
18123W        W36870  27.216  20.213   5.540  0.0292  0.0515 -0.0057
18124W        W36871  29.954  20.661  19.299 -0.1889  0.1797  0.2050
18125W        W36872  30.687  27.730  18.414  0.1051  0.2649 -0.0137
18126W        W36873   5.397   9.008  19.895  0.2896  0.1172 -0.1710
18127W        W36874  14.217   3.806   2.332  0.0108 -0.1410 -0.3524
18128W        W36875   8.441   6.349  18.260 -0.1645 -0.0860  0.0750
18129W        W36876  26.474   8.458  20.579 -0.0613  0.0813 -0.3343
18130W        W36877   4.559  12.876  22.919  0.0331 -0.0193  0.1848
18131W        W36878  23.656   7.045   2.086 -0.0425 -0.0008  0.1413
18132W        W36879   3.170   7.187   4.321  0.1459 -0.0671  0.0732
18133W        W36880  19.730   4.846  10.830 -0.0758 -0.0161  0.1849
18134W        W36881  12.985  26.622   3.452 -0.0922  0.1398 -0.2845
18135W        W36882  31.382   2.842  22.084 -0.0365  0.0969 -0.2746
18136W        W36883  25.742   9.309  19.101  0.0118  0.3154 -0.2329
18137W        W36884  27.026  27.231  19.055 -0.1595 -0.2026 -0.3041
18138W        W36885  19.778  20.099  26.081 -0.2301 -0.0696  0.1271
18139W        W36886  17.287   0.174   2.590 -0.1641  0.0807 -0.0300
18140W        W36887  11.566   6.914   2.847 -0.3841 -0.2215  0.2334
18141W        W36888  16.075  11.569  19.317  0.0429  0.0518  0.0091
18142W        W36889  17.184  12.064   2.157 -0.1844 -0.1605  0.1061
18143W        W36890   2.438   4.703  26.143 -0.1025 -0.1366  0.3591
18144W        W36891  25.177   1.228  16.797 -0.0011 -0.0848  0.1736
18145W        W36892  11.674  11.229   8.082 -0.1245 -0.1761 -0.1074
18146W        W36893   1.621  19.144   9.806  0.3891  0.1861 -0.1913
18147W        W36894  25.812  21.019  19.865 -0.3902 -0.1788 -0.0034
18148W        W36895  14.931  35.122  25.701 -0.0006  0.0375 -0.0311
18149W        W36896   3.441  19.758  17.317  0.0253 -0.1004  0.0023
18150W        W36897  16.651   3.297   3.388 -0.1481 -0.0183  0.0069
18151W        W36898  27.420   9.345  25.426  0.0461 -0.1463  0.2144
18152W        W36899  23.326   1.391  16.189  0.1706 -0.2275  0.0771
18153W        W36900   5.665  34.403  19.202 -0.0246 -0.0820 -0.0398
18154W        W36901  30.769  32.158  22.232 -0.1664 -0.0047  0.1525
18155W        W36902  13.961  22.355  14.394  0.0690  0.1169  0.0847
18156W        W36903  25.628   4.168   2.118 -0.0217  0.0293  0.2122
18157W        W36904  22.386  12.646  25.014 -0.1271 -0.0254  0.0781
18158W        W36905   4.533   8.591   2.616  0.0885 -0.0018 -0.1944
18159W        W36906  30.584  21.487  17.144  0.0589  0.2548  0.2607
18160W        W36907   3.464  32.315  21.587  0.1339  0.2329  0.0060
18161W        W36908  20.158  12.423  22.917 -0.2765  0.1220  0.1909
18162W        W36909  16.978  34.499  21.504  0.0894 -0.2828 -0.1036
18163W        W36910  18.260  16.032  23.361  0.1186  0.0930 -0.0513
18164W        W36911   4.621  17.092  18.809  0.1114  0.1594  0.0750
18165W        W36912   0.007  13.905   8.858 -0.1975  0.3852 -0.2049
18166W        W36913   2.393  28.293   6.370  0.0986 -0.0686  0.1617
18167W        W36914  32.666  32.135  25.358 -0.0678  0.0512  0.4006
18168W        W36915   7.462  17.194   1.284 -0.4551  0.0725  0.2488
18169W        W36916   4.882  17.098  19.241  0.5358 -0.0837  0.3595
18170W        W36917  25.802  25.898  11.809 -0.2023 -0.0797 -0.0079
18171W        W36918  20.337  16.914   0.151  0.0844  0.4375 -0.1657
18172W        W36919   1.530  28.309   4.859 -0.4543  0.0586 -0.4389
18173W        W36920   1.955   2.318  19.024  0.1584  0.0364 -0.2274
18174W        W36921  18.873   3.272  26.189  0.3876 -0.3488 -0.1340
18175W        W36922  13.848   0.384   3.368  0.3432  0.0736  0.1348
18176W        W36923  13.793   9.100   0.963  0.1977  0.0953 -0.1379
18177W        W36924  14.139  31.954   2.108 -0.0098  0.0578 -0.0861
18178W        W36925  28.765  26.138  20.564 -0.1031  0.3120 -0.2522
18179W        W36926  21.620  20.472   3.683 -0.3396 -0.0051  0.1743
18180W        W36927  31.238  23.205   7.060  0.0001 -0.1452 -0.1447
18181W        W36928   1.483  33.068  25.925  0.0340 -0.0670 -0.0018
18182W        W36929  16.555   8.968   6.087 -0.0612  0.1443  0.2977
18183W        W36930   5.205   9.005  16.916  0.1090  0.1183  0.0113
18184W        W36931   7.982  34.052   8.954  0.1482  0.0789  0.0669
18185W        W36932  32.856   2.650  13.756  0.0146 -0.1383  0.0793
18186W        W36933  31.242  16.015  24.014  0.2196 -0.0976 -0.1015
18187W        W36934  28.494  34.583  21.958  0.3312 -0.0800 -0.1450
18188W        W36935   7.438   2.069   8.861 -0.2091  0.0822 -0.1059
18189W        W36936  31.922   5.896  11.353  0.3534 -0.0566  0.2256
18190W        W36937   9.552   5.090   9.266  0.0076 -0.0034  0.3959
18191W        W36938  15.947   7.446  18.760 -0.1996 -0.0140  0.0714
18192W        W36939   6.715   3.534  10.129 -0.0790 -0.1947 -0.1922
18193W        W36940  25.971  25.175  19.680 -0.1049  0.0445  0.5216
18194W        W36941   5.985  22.608  25.764  0.6366 -0.1358 -0.3015
18195W        W36942   0.281  18.258  16.264 -0.1812  0.1740  0.1381
18196W        W36943   5.899  29.858   8.566  0.2175  0.1666  0.1055
18197W        W36944  15.672   9.019  18.692  0.1007 -0.3883 -0.0403
18198W        W36945  20.221  15.833  24.412  0.0117  0.0981 -0.1582
18199W        W36946  26.400  27.128   0.002 -0.2514 -0.0557  0.0384
18200W        W36947  13.646  10.812  21.400 -0.2412 -0.0838 -0.3428
18201W        W36948   2.845  24.279  23.021 -0.0404  0.0754  0.0131
18202W        W36949  25.074  13.565   0.198 -0.2567  0.1261  0.2374
18203W        W36950   7.139  35.300  20.356 -0.4505 -0.0266  0.1604
18204W        W36951  13.462   4.127   0.330 -0.0064 -0.1325  0.0274
18205W        W36952   3.257  17.483  21.668  0.2431 -0.4279 -0.0990
18206W        W36953  15.375   5.132   0.256 -0.2629  0.1197 -0.2502
18207W        W36954  33.605  32.596   1.062  0.1464  0.3991 -0.3890
18208W        W36955  27.629  17.266  19.931  0.1029 -0.1706  0.0932
18209W        W36956   8.050   1.513  13.740  0.2666 -0.2322 -0.1490
18210W        W36957  28.043   8.834  24.304  0.2624 -0.0564  0.1975
18211W        W36958  14.161  31.010  26.201 -0.1208  0.0917 -0.3119
18212W        W36959  25.757  24.167  15.024 -0.1684  0.2292  0.3544
18213W        W36960  34.011   4.216  12.002 -0.1733  0.4096 -0.0791
18214W        W36961   2.407   6.381   5.155 -0.3142  0.2140 -0.0645
18215W        W36962  14.078  33.150   4.261 -0.1422  0.1232  0.0959
18216W        W36963  32.192   3.165  17.034 -0.0410  0.0450  0.1700
18217W        W36964  30.241  31.606  25.190 -0.1852  0.0354  0.2088
18218W        W36965   0.337   1.127  20.004 -0.0472  0.0841 -0.0135
18219W        W36966  22.735  25.094   2.653 -0.1195 -0.1524 -0.1477
18220W        W36967  17.869   3.848   5.948  0.0789 -0.1421 -0.1339
18221W        W36968  11.017  15.457  12.770 -0.1563 -0.0921  0.2464
18222W        W36969  23.961  17.604  16.725  0.1639  0.2808  0.2145
18223W        W36970  11.422  18.528  25.399  0.0015 -0.0855 -0.2021
18224W        W36971  31.605  21.050  19.160  0.0034  0.0089 -0.0533
18225W        W36972  24.996   9.723  15.473 -0.2576  0.3775  0.1301
18226W        W36973  25.109   6.935   0.206  0.1337 -0.1351 -0.2200
18227W        W36974  19.593  12.620   8.515  0.0281  0.1415 -0.0435
18228W        W36975  26.428  29.450  22.061  0.0868  0.1125 -0.0067
18229W        W36976  26.496   9.352   1.047  0.3350  0.3356  0.0018
18230W        W36977  12.266  21.982  10.438  0.2205 -0.0058 -0.1224
18231W        W36978   8.034   5.831   5.503 -0.4110 -0.0891  0.1893
18232W        W36979  26.059  33.776   2.852  0.0107  0.0828 -0.2325
18233W        W36980  21.373  28.803  20.519 -0.0448 -0.0010 -0.0783
18234W        W36981  35.278  29.513  17.760 -0.1113 -0.0315  0.1068
18235W        W36982   9.013  30.395  22.280  0.0423  0.0432 -0.0456
18236W        W36983  20.127  12.164  24.030  0.0509  0.0111 -0.2570
18237W        W36984   7.729   5.942   4.165 -0.0909  0.2337  0.2315
18238W        W36985  33.835   1.481   4.004  0.0771  0.1649 -0.2590
18239W        W36986  33.212   4.774  11.776  0.0386 -0.1487  0.1510
18240W        W36987   6.629   7.155   4.019  0.0178 -0.0220  0.1051
18241W        W36988  11.789  14.649   8.979  0.1998  0.0728  0.3503
18242W        W36989  18.314  12.688   3.796 -0.0761  0.0707 -0.1022
18243W        W36990   9.223   4.147  22.791 -0.2129 -0.0362  0.0612
18244W        W36991   4.717  27.228  10.768  0.2220 -0.1238 -0.1133
18245W        W36992   3.035  32.200   9.088  0.1689 -0.0367  0.2471
18246W        W36993  16.764  32.421  17.612 -0.2212  0.0352 -0.0879
18247W        W36994   2.816   6.848   4.411 -0.4467  0.0175  0.0667
18248W        W36995  33.156  15.211  24.435  0.0761  0.1878  0.0817
18249W        W36996  33.613   5.127   5.402  0.4696 -0.1960 -0.1681
18250W        W36997   5.331   6.868   7.431  0.0104 -0.0139 -0.0084
18251W        W36998   1.303  24.046  15.822  0.1256  0.3366 -0.0708
18252W        W36999   2.188  14.045  19.286  0.0808  0.0882  0.0026
18253W        W37000  13.332  24.175   5.137 -0.0811 -0.0677  0.1669
18254W        W37001  35.333   9.298  12.133  0.2168 -0.1618 -0.1815
18255W        W37002  11.587  19.758  12.551 -0.0309  0.3724 -0.2145
18256W        W37003  13.774  33.486  23.928  0.2537 -0.0527  0.0738
18257W        W37004   6.153  32.151  14.062 -0.0358  0.0861 -0.1266
18258W        W37005  16.203  15.238   4.033  0.0945 -0.0009 -0.1001
18259W        W37006  26.828  13.126  25.433 -0.3518  0.2333  0.3103
18260W        W37007  17.109  26.415  21.959 -0.0467 -0.0475 -0.3613
18261W        W37008  20.949   1.870  20.836 -0.1261 -0.2923 -0.0746
18262W        W37009  35.256  21.771   0.832  0.0710  0.2279 -0.0105
18263W        W37010  24.871   6.234   2.608 -0.0089 -0.0322 -0.1179
18264W        W37011  28.754   7.914  13.755  0.0438 -0.1815  0.0234
18265W        W37012  10.764   9.185  21.464 -0.2501 -0.1150 -0.1604
18266W        W37013   9.259  17.213   7.618  0.2525 -0.1131  0.0601
18267W        W37014  21.728  13.534  24.810 -0.3153  0.0501 -0.4034
18268W        W37015   2.715  14.078  24.051 -0.0169  0.0764  0.0548
18269W        W37016  17.495   7.781  19.123 -0.2056  0.2007 -0.1296
18270W        W37017  24.866  30.924   9.826  0.1785 -0.2667  0.1995
18271W        W37018  19.494   2.190  15.913 -0.3327 -0.1797 -0.2239
18272W        W37019  29.083  22.015  24.185 -0.1001  0.0570  0.0556
18273W        W37020  19.281  23.817   9.706 -0.0199  0.3491 -0.1854
18274W        W37021   9.078   5.558  10.338  0.0962 -0.1148 -0.3383
18275W        W37022  15.083   3.940  24.758 -0.1363  0.3071  0.2539
18276W        W37023  20.362  28.175  24.026  0.1151 -0.1093 -0.0551
18277W        W37024   0.502  16.180  11.998  0.3603  0.1283  0.0023
18278W        W37025  31.864  28.182  22.741 -0.1049 -0.1763 -0.1419
18279W        W37026  12.235  35.075   6.904 -0.0769 -0.0349 -0.0421
18280W        W37027  10.345  20.876  15.637 -0.2941  0.0349 -0.1742
18281W        W37028  12.514  34.154  23.599  0.1504 -0.0850 -0.2066
18282W        W37029  20.751   9.755  19.693  0.1799 -0.0776  0.0598
18283W        W37030  11.960   5.412   2.792 -0.3029  0.0236 -0.0159
18284W        W37031  13.278  33.318  22.887 -0.0200 -0.0290  0.0190
18285W        W37032  12.437   6.705  20.600  0.0665  0.0404  0.0002
18286W        W37033  15.906   1.484  21.738 -0.1108 -0.0087 -0.0612
18287W        W37034  17.932  35.349  25.303 -0.1680 -0.0646 -0.2301
18288W        W37035   9.612  14.419   1.869 -0.1210  0.0249  0.2339
18289W        W37036   0.234   8.755   2.990 -0.1270 -0.2418  0.3970
18290W        W37037  35.332  13.218  23.266 -0.1054  0.0018  0.1051
18291W        W37038   1.650  19.384  18.345  0.1003  0.0631  0.1730
18292W        W37039  12.779   7.751   9.752  0.3209  0.0062  0.1500
18293W        W37040   1.386  21.655  21.798  0.1907  0.2578 -0.0313
18294W        W37041   5.855  34.729  20.329  0.2679  0.2300  0.2641
18295W        W37042   6.068  14.043   5.732  0.1445 -0.1520  0.1165
18296W        W37043  28.969  16.273   4.609 -0.1134  0.4124  0.2174
18297W        W37044   6.388  28.804   0.639 -0.1865  0.2425  0.0750
18298W        W37045  17.115  12.387   5.408  0.1997  0.0654  0.3301
18299W        W37046  30.568  31.014  20.744  0.0282  0.0955 -0.0744
18300W        W37047  26.491  35.203  14.646 -0.0786  0.0483  0.3549
18301W        W37048  32.619   6.606  12.277  0.2620 -0.4495 -0.1246
18302W        W37049   6.216   4.721   2.972 -0.0128  0.0097 -0.0163
18303W        W37050  16.804  20.525   2.157 -0.3122 -0.1463 -0.0782
18304W        W37051  29.745  16.026  13.907 -0.0169  0.1933 -0.3938
18305W        W37052  33.247  26.762   2.795  0.2379 -0.0069  0.1786
18306W        W37053  23.853  11.455  19.507 -0.1674  0.1694 -0.0378
18307W        W37054   1.516  29.811  23.351  0.2341 -0.1160 -0.2486
18308W        W37055  19.247   8.845   1.114  0.2338 -0.0934  0.0218
18309W        W37056  22.851   9.307  22.027  0.2931 -0.0940 -0.2867
18310W        W37057  31.390  25.714  24.801 -0.0476  0.3317  0.1723
18311W        W37058  23.665  14.648  26.165 -0.3061 -0.2901  0.0167
18312W        W37059  34.597   5.768   5.827 -0.2001 -0.0314  0.0623
18313W        W37060  21.267  23.828  23.024 -0.1535  0.3600 -0.1791
18314W        W37061  28.631  33.958  14.951 -0.0000 -0.2007  0.0927
18315W        W37062  13.738  19.198   5.680 -0.2551 -0.1858 -0.2244
18316W        W37063   7.658  19.906  22.926  0.1078  0.0660 -0.0853
18317W        W37064   3.948   3.090  20.885 -0.1642 -0.1207 -0.3026
18318W        W37065  23.560   3.050  17.909  0.1736 -0.4353 -0.1860
18319W        W37066  25.454  13.248   8.662  0.0956 -0.0098 -0.2861
18320W        W37067   2.548  32.341  23.426 -0.3230 -0.2781 -0.0161
18321W        W37068  31.497  15.658  23.098  0.0765  0.0210  0.0810
18322W        W37069   4.237  21.694  18.002  0.1995 -0.3910 -0.0986
18323W        W37070   9.869  13.262  24.814  0.1557  0.2333 -0.0080
18324W        W37071   2.342  32.099  19.211 -0.3336 -0.0293  0.1385
18325W        W37072   2.107  34.546  25.614 -0.1251 -0.2656 -0.0551
18326W        W37073  35.014   6.928  20.479  0.0021 -0.0482 -0.0577
18327W        W37074   9.968   0.193  11.598  0.0600  0.0915  0.2252
18328W        W37075  16.166  16.228   3.725 -0.0361  0.1004 -0.0200
18329W        W37076   5.088  13.369  21.009 -0.0486 -0.1973  0.0914
18330W        W37077   6.214  17.123   2.951  0.0537  0.1165  0.2181
18331W        W37078  28.851  27.396  23.135 -0.2918  0.0321 -0.0348
18332W        W37079  14.126  14.006   0.950  0.0501 -0.0046  0.0921
18333W        W37080  26.197   0.261  11.022  0.1848 -0.2148  0.0024
18334W        W37081   0.744  32.914  23.506 -0.1871 -0.1942  0.2564
18335W        W37082  32.820   6.054  21.393  0.0070  0.0148  0.2329
18336W        W37083  24.076  15.909  23.045 -0.1453  0.0487  0.2189
18337W        W37084  24.443  21.653   0.001  0.1173 -0.0605  0.2524
18338W        W37085  25.056  33.514  16.939 -0.0218 -0.2147  0.1634
18339W        W37086   4.762  10.386  18.720  0.1071 -0.4320 -0.2247
18340W        W37087  18.386  10.474   0.306  0.0048  0.4407  0.3279
18341W        W37088  14.051  13.858  21.954 -0.0559 -0.2639 -0.5035
18342W        W37089  33.452  13.976  25.016 -0.2121  0.0338 -0.1508
18343W        W37090  28.725   0.302   1.970 -0.1786  0.1121 -0.0970
18344W        W37091  24.989  12.423  18.083  0.1595 -0.0830 -0.0289
18345W        W37092  10.606  32.528  21.851  0.2201  0.1707  0.2109
18346W        W37093   8.304  20.332   9.581  0.0244  0.0732  0.0281
18347W        W37094  16.547  22.416  11.045 -0.0680  0.0231  0.2400
18348W        W37095   5.632  10.410  19.301 -0.2835  0.0298  0.0412
18349W        W37096   3.649  19.919   3.714 -0.1807 -0.3944 -0.0667
18350W        W37097  32.628   1.242  18.610 -0.1116 -0.1671  0.0157
18351W        W37098  20.685  34.174  17.244  0.1829  0.1879  0.1426
18352W        W37099  30.749  32.844  22.113 -0.0639 -0.1187  0.2108
18353W        W37100   3.343  19.913   2.436 -0.1852  0.1733 -0.0576
18354W        W37101  10.927   0.499  10.026  0.1861 -0.1256 -0.0441
18355W        W37102  32.076  12.080  26.224 -0.0093 -0.1580  0.1104
18356W        W37103   2.827  23.180   3.739  0.1027  0.0982  0.1898
18357W        W37104   8.691  22.508  26.073 -0.2102  0.0073 -0.2074
18358W        W37105   0.198  35.053  16.318  0.2094 -0.2901 -0.1538
18359W        W37106  16.144  34.778  21.308  0.1241  0.1828 -0.3597
18360W        W37107  10.931  31.481   8.110 -0.4401 -0.1234  0.0564
18361W        W37108  25.565   8.354  23.085  0.0184 -0.0331  0.0268
18362W        W37109  13.384   6.928   3.265 -0.0275  0.3843 -0.1893
18363W        W37110   4.273  34.074  18.948 -0.1649  0.1547 -0.1328
18364W        W37111  29.990  10.911  14.596 -0.0276 -0.1416 -0.1072
18365W        W37112  27.697  30.568  26.103  0.1806 -0.2688 -0.0824
18366W        W37113  14.955   6.131  20.270 -0.1232 -0.1953  0.1077
18367W        W37114   9.286   5.706   1.502 -0.1184  0.0464  0.1017
18368W        W37115   9.178  29.364  24.984  0.0716 -0.5406  0.1593
18369W        W37116   0.007  17.976  10.436 -0.0569 -0.1293  0.1353
18370W        W37117   8.252  12.401  20.311  0.3685  0.2963 -0.4438
18371W        W37118  23.442  16.512  18.917 -0.0831  0.0843  0.0088
18372W        W37119  19.412  10.842   7.165 -0.2386  0.0740  0.0154
18373W        W37120   9.032  18.577   7.266  0.1737  0.0361 -0.3014
18374W        W37121   6.826  17.080  21.779  0.0778  0.1450  0.2453
18375W        W37122  10.421  19.040  22.754  0.1695 -0.0630  0.1978
18376W        W37123  18.156   8.835  22.451 -0.1281 -0.0400 -0.1376
18377W        W37124  31.587  10.721  23.528  0.1987 -0.3454 -0.0601
18378W        W37125  18.435  18.474  25.004  0.0255  0.0452  0.0137
18379W        W37126  18.101  20.748   0.128  0.0724  0.0415  0.1986
18380W        W37127  27.642   1.952  16.558 -0.2436  0.3023  0.0485
18381W        W37128  15.058  19.221  11.354  0.1387 -0.1617 -0.0737
18382W        W37129  11.543  33.150  14.543 -0.0860 -0.0425  0.1394
18383W        W37130   9.273  17.598  22.966  0.1260 -0.1953 -0.1108
18384W        W37131  34.340  34.261   0.428  0.0870  0.1504 -0.0248
18385W        W37132   3.289  33.963   1.992  0.0006 -0.0439 -0.1090
18386W        W37133   4.013  29.354  22.339 -0.2752 -0.2352  0.1607
18387W        W37134  16.536  12.335  25.285 -0.1450  0.1558  0.0341
18388W        W37135  19.892  34.604   1.134  0.1190 -0.0208  0.6833
18389W        W37136  34.886  11.768  12.790 -0.0430 -0.1417  0.0231
18390W        W37137   9.598   2.732   1.916  0.0695  0.1197  0.0134
18391W        W37138  34.696  15.147  19.743 -0.0502 -0.0409 -0.0274
18392W        W37139  10.127  17.567  12.980  0.2837  0.0756  0.0495
18393W        W37140   3.944  30.462  23.355  0.0922 -0.1980 -0.0991
18394W        W37141  12.152  28.893   7.386 -0.2894  0.1872  0.0408
18395W        W37142  27.394   3.493  13.059 -0.1753 -0.0691  0.0910
18396W        W37143  11.302  10.610   1.828 -0.1519 -0.1390  0.1300
18397W        W37144  25.111  25.683  16.705 -0.2006 -0.0697  0.0071
18398W        W37145  18.115  17.371   4.100  0.2169  0.2188  0.2808
18399W        W37146  20.394  26.895   0.918 -0.1772  0.2374  0.3301
18400W        W37147  18.551  29.242  19.961 -0.0157 -0.0819  0.0439
18401W        W37148  23.635  32.922  16.853  0.2788  0.6001 -0.0063
18402W        W37149  16.902  20.008  26.115 -0.1676 -0.0089 -0.0992
18403W        W37150  14.545  26.011   2.471 -0.3154  0.0718 -0.2435
18404W        W37151  22.120   1.316  26.242  0.1463 -0.2775 -0.0889
18405W        W37152  25.184  19.197  19.280  0.2512 -0.0837 -0.0233
18406W        W37153   4.891   0.809   1.064  0.1157  0.1311 -0.3087
18407W        W37154  29.491   5.574  18.627 -0.4106  0.0711  0.0894
18408W        W37155   7.593   0.209   5.747  0.1897 -0.1637 -0.0425
18409W        W37156  28.306  10.793  14.062 -0.1329 -0.0475 -0.0515
18410W        W37157  26.184  29.778  25.323 -0.0455  0.3138  0.0971
18411W        W37158   8.489   5.716  21.449  0.0786  0.0948  0.0275
18412W        W37159  25.135  18.788  18.093  0.0134 -0.0960  0.0127
18413W        W37160  23.197   4.088  23.082 -0.3054 -0.4231  0.2752
18414W        W37161  22.608  30.897  26.082  0.0733  0.2215  0.0470
18415W        W37162  23.641  24.642  14.198  0.2673  0.1928 -0.1040
18416W        W37163   1.276  12.881  24.696 -0.1403 -0.0956 -0.1856
18417W        W37164   4.687  14.593  21.782 -0.1927  0.0167  0.2436
18418W        W37165  18.812  31.071  19.322  0.2401  0.1591  0.4712
18419W        W37166   4.802  32.252   6.364  0.2423 -0.0778  0.0275
18420W        W37167  25.336  35.120  19.210  0.0611  0.1255 -0.1191
18421W        W37168   7.889  10.832  21.102  0.2678 -0.1768  0.2315
18422W        W37169  20.198  13.054  18.930 -0.0404  0.0270  0.0056
18423W        W37170  20.443  11.375  17.264  0.2483 -0.0022  0.2017
18424W        W37171  15.068   3.411  22.982 -0.0363  0.2102  0.1752
18425W        W37172  10.462  30.577  11.744 -0.0221  0.4561 -0.0441
18426W        W37173  24.213   2.209  22.893 -0.0185 -0.1039 -0.4472
18427W        W37174   8.343  29.213  25.505 -0.0739 -0.3313  0.0309
18428W        W37175  16.035  13.947   5.137 -0.1400  0.3006  0.1167
18429W        W37176  24.081  15.031   1.675 -0.2084 -0.2743  0.3856
18430W        W37177  14.146  29.827  14.662  0.0237  0.1831  0.1217
18431W        W37178   3.384   5.542   6.726  0.2478 -0.0642 -0.0734
18432W        W37179  19.739  32.153  20.311 -0.0571  0.0894 -0.3672
18433W        W37180  24.463   3.935   2.438 -0.2194  0.1583  0.0755
18434W        W37181  33.759  27.644  24.021  0.0858 -0.1503 -0.0544
18435W        W37182   9.046  24.501  16.562  0.2731  0.0514 -0.1119
18436W        W37183  16.340  32.462  22.576 -0.0682  0.0354 -0.3520
18437W        W37184   8.135  16.165   1.992 -0.3590 -0.2500  0.3731
18438W        W37185  29.157  28.825  18.061  0.0520 -0.0968 -0.0443
18439W        W37186  13.775  21.586  24.145 -0.2593 -0.1020  0.0553
18440W        W37187  30.195  33.031  18.679  0.0266  0.1793  0.1649
18441W        W37188   1.189   3.209  20.438 -0.0546  0.0978 -0.6191
18442W        W37189  22.124  32.702   4.789  0.2158  0.1943  0.1526
18443W        W37190  31.604   9.910  10.274 -0.1279  0.3984 -0.0859
18444W        W37191  30.187  19.417  25.597  0.1389 -0.3371 -0.3561
18445W        W37192  24.850   3.688   6.939 -0.3308 -0.3477  0.1430
18446W        W37193  29.372  25.875  23.857 -0.2417  0.1282  0.0961
18447W        W37194   5.991  25.944  12.697 -0.2022  0.1535 -0.1921
18448W        W37195   2.172  26.769   5.870 -0.2087  0.0557 -0.0481
18449W        W37196   1.800  21.634   0.500  0.0126  0.0454 -0.1625
18450W        W37197   0.546  24.879  18.289  0.0641  0.0966 -0.4740
18451W        W37198  25.546  17.911  10.090 -0.0793 -0.1506  0.3102
18452W        W37199  27.464  32.862  14.915 -0.1250  0.0366 -0.2698
18453W        W37200   0.662  34.825   7.893 -0.4302 -0.3347 -0.0676
18454W        W37201  21.314  32.780  14.266 -0.1157 -0.0171 -0.0531
18455W        W37202   5.218   5.883   4.251 -0.0325 -0.0697  0.0867
18456W        W37203   4.079  33.070  10.377 -0.2015  0.3454 -0.0775
18457W        W37204   7.887  28.591  15.768 -0.4059 -0.0224 -0.0560
18458W        W37205  14.935   9.120  23.791  0.1343 -0.1138  0.0392
18459W        W37206  27.237  12.672   0.599 -0.1034  0.4420 -0.4523
18460W        W37207  26.378  28.754  17.173 -0.2360 -0.2813  0.0655
18461W        W37208  22.440  13.104  15.224  0.0676 -0.0899 -0.4760
18462W        W37209   5.842  28.110  24.486 -0.3037  0.0562  0.4241
18463W        W37210  24.988  31.321  18.654 -0.0350  0.3067  0.1014
18464W        W37211  20.494  13.930  16.980 -0.3771  0.1631  0.3597
18465W        W37212  23.988  11.032  26.238  0.1209  0.1496  0.2780
18466W        W37213  10.756  17.707   0.581  0.1339  0.1038 -0.0938
18467W        W37214  29.649  32.837   3.231  0.1551  0.2855 -0.1565
18468W        W37215   2.211   4.618   5.899  0.5789 -0.0346 -0.1497
18469W        W37216   6.552  13.964  17.459 -0.0032  0.0345  0.0311
18470W        W37217  15.446  32.755   7.861  0.0365 -0.1107  0.0740
18471W        W37218   1.156   2.582  13.369 -0.2737  0.3334 -0.3905
18472W        W37219  13.687  33.574   0.786  0.2633 -0.0303  0.0036
18473W        W37220  35.085  10.997  16.165 -0.1471  0.3106 -0.0017
18474W        W37221   1.440  27.207  20.272  0.1226  0.1408  0.0656
18475W        W37222  18.324  31.188  23.480  0.0807  0.3128  0.2529
18476W        W37223  10.291  31.220   4.224  0.1656 -0.5088 -0.0082
18477W        W37224  26.310  12.883  24.780 -0.4288 -0.3497  0.2447
18478W        W37225   1.782  19.200  19.233  0.1174  0.2067  0.1667
18479W        W37226   2.522   2.745  24.576  0.1794  0.0183 -0.0668
18480W        W37227  18.682  24.464   3.860  0.2516 -0.3206  0.1869
18481W        W37228  18.630  12.731  10.350  0.0039 -0.2430 -0.0314
18482W        W37229  28.334  15.461  11.667  0.1580 -0.2513  0.1372
18483W        W37230  11.414  34.626  25.675 -0.1734  0.0566 -0.1237
18484W        W37231  14.181  32.519  24.320 -0.1006  0.1163 -0.0919
18485W        W37232  10.838  34.601   0.908  0.0285 -0.1330 -0.1359
18486W        W37233  14.541  22.606   1.854 -0.2134 -0.0581  0.1903
18487W        W37234  31.980  21.410  14.870 -0.3002  0.0787  0.2052
18488W        W37235  24.045   0.346  23.946  0.0123 -0.2578  0.4183
18489W        W37236  15.658   1.094  18.562 -0.3855  0.0431  0.1249
18490W        W37237  27.662  18.060   8.506 -0.2147  0.0050 -0.1219
18491W        W37238  24.721   8.222  19.348  0.0724 -0.1525  0.1878
18492W        W37239   6.873  28.817   0.596 -0.0364 -0.0863 -0.2185
18493W        W37240  22.449   5.583   1.996  0.0568 -0.2175 -0.0095
18494W        W37241   4.408  21.744  24.469  0.0662  0.2303 -0.0502
18495W        W37242  20.304   2.617  17.411 -0.2008 -0.0661  0.1314
18496W        W37243  28.615  17.454  13.139  0.0518 -0.0058  0.2934
18497W        W37244  14.610   2.482  22.332 -0.1951 -0.0310  0.1391
18498W        W37245  19.648  32.983   0.286  0.1357  0.1166 -0.1088
18499W        W37246  19.206   5.819  21.274 -0.0924 -0.1942 -0.1746
18500W        W37247  34.474   7.844  18.239  0.0758  0.1362  0.1531
18501W        W37248  21.889  32.158   5.997  0.2956 -0.1620  0.0991
18502W        W37249  23.443  24.444  15.893  0.1903 -0.0591  0.3049
18503W        W37250   2.355   2.846   4.782  0.0928 -0.1940  0.1281
18504W        W37251   8.342   4.725   4.044  0.1051 -0.0850 -0.4898
18505W        W37252   0.299   2.639  17.450  0.0220  0.0675  0.3032
18506W        W37253  14.548  35.347  21.030 -0.0333 -0.0009  0.0953
18507W        W37254   4.815  35.104  11.608 -0.0476  0.2976  0.4055
18508W        W37255  33.645  30.165  21.858 -0.0518  0.2212  0.0964
18509W        W37256  31.142  30.409  25.316 -0.1027  0.2875  0.1530
18510W        W37257  26.618  15.116  17.621  0.1251 -0.1461  0.2402
18511W        W37258  17.726  13.973   5.238 -0.2922  0.0648 -0.1596
18512W        W37259  34.154   7.731  17.589 -0.0903  0.1606  0.0078
18513W        W37260   8.569  15.370   8.169  0.4348  0.5168  0.1870
18514W        W37261  25.945  24.714  20.044  0.2949 -0.0688  0.0455
18515W        W37262  32.652  10.585  17.958 -0.1797  0.3434  0.2841
18516W        W37263  26.510  29.399   3.812  0.0632  0.0354 -0.0317
18517W        W37264   6.097  13.995  17.904  0.2578  0.0552  0.0037
18518W        W37265  34.630  31.022  23.931 -0.2874 -0.0470  0.3084
18519W        W37266  22.481  21.529  17.411 -0.1850 -0.2273  0.0860
18520W        W37267  17.682   8.779   3.897  0.1787 -0.0519  0.0776
18521W        W37268  20.738   2.657  21.240  0.0721  0.0285 -0.2469
18522W        W37269  18.042   1.637  21.807 -0.0541  0.2272 -0.0282
18523W        W37270   0.022  26.811  18.965 -0.0685  0.0067  0.2105
18524W        W37271  12.304  26.497  25.597  0.0626 -0.1550  0.0828
18525W        W37272   0.026  12.675  15.077 -0.2817  0.2037 -0.0356
18526W        W37273  24.526  24.391  15.010  0.1528  0.3299  0.1439
18527W        W37274   6.176  14.867  10.079  0.2254 -0.3436  0.0679
18528W        W37275   5.075  14.740   5.647 -0.2212 -0.3842 -0.3262
18529W        W37276   9.656  14.815  19.450  0.1744  0.0240  0.2334
18530W        W37277  20.192  31.665  23.890  0.7116 -0.0837  0.1731
18531W        W37278  24.259  32.827  22.250 -0.2185 -0.0914 -0.0779
18532W        W37279  20.847   2.773  20.501  0.3356  0.0929  0.3185
18533W        W37280   6.022  11.708  20.183 -0.0526  0.0452 -0.0927
18534W        W37281  27.530  34.465  23.826  0.3394  0.1784 -0.2993
18535W        W37282   4.380   2.531   2.028 -0.3093  0.0944 -0.1607
18536W        W37283   7.601  14.706   4.259 -0.2745  0.1315 -0.2692
18537W        W37284  25.021   0.226  13.722 -0.0161 -0.2698 -0.1108
18538W        W37285  12.369  32.440   9.464  0.3358  0.0576  0.2226
18539W        W37286  29.603   3.291  25.654 -0.0889  0.3460 -0.0771
18540W        W37287  21.422   3.927  20.163  0.2665  0.0901 -0.3915
18541W        W37288  22.227  18.039  17.400  0.0862  0.1676 -0.1096
18542W        W37289  29.054  31.880   6.053  0.1839 -0.2047  0.3841
18543W        W37290   8.946   7.231   9.763 -0.1673 -0.2184 -0.0369
18544W        W37291  23.437   7.876  14.388 -0.1094  0.4547  0.2559
18545W        W37292   0.629  22.874   0.042  0.2039 -0.0065  0.0632
18546W        W37293  12.290  14.450  12.315 -0.1177 -0.0010 -0.0769
18547W        W37294  20.701   8.809   4.108  0.0239 -0.2367  0.1791
18548W        W37295  31.414  28.672  19.645  0.2653  0.0999  0.1529
18549W        W37296  30.651  13.148   7.159  0.2782  0.1671  0.3223
18550W        W37297   1.415   6.910   4.343  0.0607 -0.2405  0.1102
18551W        W37298  18.508  24.797   6.176 -0.2593 -0.1325  0.0964
18552W        W37299  33.081   7.770  20.867 -0.0523 -0.0151 -0.4134
18553W        W37300  17.226  25.292   2.043 -0.2109  0.1859 -0.4040
18554W        W37301   3.740  30.016  12.557 -0.1865 -0.0805  0.0346
18555W        W37302  12.148  17.643   9.593  0.0224  0.1249  0.0672
18556W        W37303  27.246  30.793   0.137  0.0034 -0.0221  0.2958
18557W        W37304   4.478  16.181  19.537 -0.2707 -0.1348 -0.3724
18558W        W37305   9.312  20.058  24.612  0.1580  0.1788 -0.1488
18559W        W37306  28.715  29.620   4.036 -0.1388 -0.1669  0.2295
18560W        W37307   3.404  34.703   7.874  0.3129 -0.2389 -0.1301
18561W        W37308  30.830  15.281  22.460  0.3548 -0.1060  0.0697
18562W        W37309   5.935  30.729  13.047 -0.1594 -0.0814  0.1552
18563W        W37310  15.925   2.074   2.541  0.0167 -0.0651 -0.3163
18564W        W37311   8.392  18.259  13.155  0.0288  0.1013  0.0662
18565W        W37312  23.368  29.829  13.561 -0.0392  0.0998  0.2819
18566W        W37313  17.800  18.372   8.664  0.0568  0.0930  0.3154
18567W        W37314  19.757  18.143   0.564  0.2547  0.4370  0.0595
18568W        W37315  12.022  27.378  11.137  0.2284  0.3104 -0.0826
18569W        W37316  31.248  14.374  25.505  0.0861 -0.3245 -0.1419
18570W        W37317  32.219  26.727   9.962  0.2601 -0.0325 -0.0379
18571W        W37318   6.564   4.010   2.104 -0.0566 -0.2830 -0.1075
18572W        W37319   5.325   7.615   1.291 -0.0552  0.2312 -0.0706
18573W        W37320   7.048  17.012  18.827 -0.2576  0.1709 -0.4514
18574W        W37321  23.753  23.821  21.088 -0.3137 -0.1226 -0.3562
18575W        W37322   6.834   1.701  21.261  0.2605 -0.1326  0.0108
18576W        W37323   9.493  16.627   8.473  0.0549 -0.6644 -0.1554
18577W        W37324  35.352   5.943  16.064  0.2897  0.1032 -0.1465
18578W        W37325  22.817  29.279  21.056  0.0765  0.2916  0.1481
18579W        W37326  12.727  13.560  20.981 -0.1873 -0.1211 -0.1352
18580W        W37327  26.922   1.208  24.270  0.0036  0.3476 -0.1734
18581W        W37328   6.592  17.507   4.568 -0.0585 -0.0153  0.5663
18582W        W37329   1.275   8.204   4.527  0.0761  0.0030 -0.1119
18583W        W37330  30.780  17.374  17.924 -0.0799 -0.1749 -0.4296
18584W        W37331  22.118  25.899   2.403  0.0544 -0.1956  0.1759
18585W        W37332  30.361   6.357   0.905  0.0586 -0.4179  0.1431
18586W        W37333   6.598  20.854   5.177 -0.1492 -0.1738  0.0542
18587W        W37334   3.544  26.328  21.505 -0.1558  0.0267 -0.0826
18588W        W37335  21.425   1.842   5.379 -0.1278 -0.0485 -0.5116
18589W        W37336  23.647  25.069  11.216 -0.2979  0.1136  0.1398
18590W        W37337  14.061  24.162   6.945 -0.1774  0.3073 -0.0382
18591W        W37338  30.421   6.879  19.522  0.0048 -0.1635 -0.5659
18592W        W37339   3.215  23.477  20.794  0.3743 -0.1712  0.0112
18593W        W37340  25.405  34.662  22.225 -0.2889 -0.0869 -0.0278
18594W        W37341  24.253   0.128  21.995 -0.3316 -0.1193  0.0547
18595W        W37342  23.062  20.571  20.904  0.0822  0.2852  0.2320
18596W        W37343  30.178  28.472  11.706  0.0216  0.1944  0.1184
18597W        W37344  21.421  20.554   0.704  0.1233  0.1024 -0.1352
18598W        W37345  13.561   5.314  21.616  0.1105 -0.1142 -0.2972
18599W        W37346  15.319  28.933   0.800  0.2280  0.1431 -0.0903
18600W        W37347  32.967  29.361   1.586 -0.0808 -0.2978  0.0715
18601W        W37348  19.814  12.508  23.862 -0.0209 -0.0059 -0.0842
18602W        W37349  10.201   4.981  24.741 -0.3810  0.1850  0.0751
18603W        W37350  23.685  25.556  18.270  0.0424 -0.3913  0.2699
18604W        W37351  22.273  31.121  18.540  0.0398 -0.0865 -0.0836
18605W        W37352   8.004  19.755  10.161  0.0860  0.0375 -0.2889
18606W        W37353   9.341  12.405   9.497  0.0630 -0.3229  0.1209
18607W        W37354  21.652  10.704  18.891  0.1192 -0.0440 -0.1344
18608W        W37355   8.241  23.941   5.176  0.2160  0.0073  0.0017
18609W        W37356  31.853  30.401  16.566  0.0592  0.0949 -0.0646
18610W        W37357  11.810  17.301  14.043 -0.0105 -0.0763  0.0499
18611W        W37358  23.854  29.182  22.485  0.0499 -0.0294  0.0947
18612W        W37359  18.525  27.414  24.351 -0.1690 -0.1400  0.2619
18613W        W37360   8.599  15.968   3.501  0.4236 -0.0831  0.0126
18614W        W37361  29.572  27.807  16.708 -0.0090  0.1060  0.2829
18615W        W37362  10.385  30.135  10.714 -0.7406 -0.2419 -0.1000
18616W        W37363  14.167   5.522  10.880  0.0226 -0.0866  0.0119
18617W        W37364  20.793  10.700   3.640 -0.0718  0.0744 -0.0730
18618W        W37365   3.663  34.254  23.912 -0.1486 -0.0693 -0.0756
18619W        W37366  19.567  30.879   4.908 -0.0822  0.5112  0.4266
18620W        W37367   6.498   0.261   1.319 -0.0748  0.2214 -0.0196
18621W        W37368  30.630  12.418  12.633  0.0379 -0.1362 -0.1664
18622W        W37369  28.559  24.165  16.191 -0.1766 -0.1799 -0.3591
18623W        W37370   4.629  28.741   4.831  0.0069 -0.1872  0.2365
18624W        W37371  18.219   4.687   8.026 -0.0477 -0.1420 -0.0924
18625W        W37372  25.253   5.410  13.244  0.1055  0.5116  0.2433
18626W        W37373  22.917   5.311  18.050  0.0097 -0.0436  0.2017
18627W        W37374   1.835  14.462  10.484 -0.0144 -0.0373 -0.0329
18628W        W37375  35.156  23.141  15.398  0.0630  0.3173 -0.0047
18629W        W37376  28.194  13.695  16.898 -0.2495  0.0232  0.0210
18630W        W37377  30.779  24.255  12.017  0.2302  0.1412  0.0458
18631W        W37378  15.594   4.161  16.844 -0.0758  0.0130  0.2716
18632W        W37379  34.421  16.975  19.058  0.1900  0.1004  0.3489
18633W        W37380  35.201  27.965   3.804  0.0801  0.1337 -0.3903
18634W        W37381  21.665  12.689  18.874 -0.3219  0.1136  0.3192
18635W        W37382   0.569   4.474   0.285 -0.2993  0.4604  0.1453
18636W        W37383   2.505  19.849  23.246 -0.1515 -0.0235  0.1894
18637W        W37384  11.347   4.302   2.833 -0.2782 -0.1551 -0.1982
18638W        W37385  20.708  22.983  21.992 -0.0447  0.1153 -0.0679
18639W        W37386   4.539  33.697  23.182  0.0211  0.0098  0.1370
18640W        W37387  11.324  34.038   6.383 -0.1254 -0.0215 -0.1134
18641W        W37388  29.010  12.064  21.124  0.0835  0.3409 -0.2477
18642W        W37389  27.233  29.768  14.752  0.1346  0.0687  0.1253
18643W        W37390  16.676   5.484   7.826  0.1258  0.2436  0.1559
18644W        W37391  27.494  12.143  23.967  0.1562  0.1144 -0.1029
18645W        W37392   6.737  13.073   5.937 -0.0864  0.1249  0.1173
18646W        W37393   9.004  21.151   8.704 -0.1174 -0.5300  0.1323
18647W        W37394  17.595  27.482  24.866  0.1353  0.0018  0.1646
18648W        W37395   0.988   8.650  20.064 -0.0181 -0.1686 -0.0465
18649W        W37396  10.648  25.918  12.374 -0.2078 -0.3895 -0.3348
18650W        W37397  25.219  30.250  20.370 -0.2994  0.1564 -0.2809
18651W        W37398  24.014   9.535  13.294  0.1259  0.1059 -0.1602
18652W        W37399  33.332  17.386  25.388 -0.1482 -0.1261  0.1240
18653W        W37400   6.400  32.820  11.071 -0.1210 -0.1140  0.1012
18654W        W37401   0.452  34.683  14.917  0.3067 -0.3196 -0.0823
18655W        W37402  17.946  33.488  19.538  0.0617 -0.0049  0.1775
18656W        W37403  10.882  21.183  23.798 -0.0023 -0.0466 -0.2212
18657W        W37404   6.233   7.190  21.847 -0.0274 -0.2404  0.2365
18658W        W37405   3.997   1.754  23.062 -0.2212 -0.1390  0.1418
18659W        W37406   1.564   0.849  20.150 -0.0044  0.0290 -0.2794
18660W        W37407  34.374  34.952  21.108 -0.1195  0.1277 -0.1343
18661W        W37408  25.126   1.162  25.141  0.0787 -0.3693 -0.2184
18662W        W37409  18.099  24.063   3.146  0.0956  0.1024 -0.0472
18663W        W37410  27.416  20.277  16.094  0.1754  0.0295 -0.0685
18664W        W37411   7.825  10.951  18.149  0.0156  0.2687  0.1511
18665W        W37412  29.055  16.645  19.102  0.0698  0.0214 -0.1565
18666W        W37413  17.783  24.337  13.655  0.1165  0.3454 -0.2569
18667W        W37414  25.885  31.212  13.499  0.3230 -0.3067 -0.1962
18668W        W37415   0.584   6.073  19.636 -0.3283 -0.0376 -0.0784
18669W        W37416  18.732   7.408  19.599 -0.1743 -0.1907  0.0753
18670W        W37417   6.351  29.199  22.456 -0.0888 -0.2890  0.2609
18671W        W37418  16.394  14.985  18.681  0.3045  0.2013  0.0070
18672W        W37419  28.272  26.569  10.777 -0.0165 -0.1464 -0.0234
18673W        W37420   5.883  29.367   8.706 -0.1618  0.1237  0.0560
18674W        W37421  11.348  19.455   1.969 -0.0365 -0.3464 -0.1115
18675W        W37422  24.793  26.653  21.234  0.2196  0.0480 -0.1351
18676W        W37423  12.785   6.649  20.952 -0.2191  0.6907  0.0037
18677W        W37424  22.135   0.734   6.042  0.0804 -0.1914  0.0465
18678W        W37425  26.142  24.900  21.267 -0.0360 -0.2885 -0.0777
18679W        W37426   1.241  24.599  19.821 -0.0424 -0.1954  0.0948
18680W        W37427  12.126  17.531   2.973 -0.0974 -0.0384  0.3110
18681W        W37428  30.486  16.670  22.816 -0.0911 -0.1506 -0.0137
18682W        W37429  10.503  32.070  17.065  0.2432  0.5039  0.0057
18683W        W37430  29.893  34.168  11.025 -0.1147 -0.2797 -0.2836
18684W        W37431   7.535  25.707  12.943 -0.0906 -0.1765  0.3934
18685W        W37432  22.466  19.117  20.242  0.0481 -0.2750 -0.0973
18686W        W37433  26.221  15.861  13.896 -0.0644 -0.0109  0.0972
18687W        W37434   9.944   4.496  10.828 -0.1123  0.1407 -0.1167
18688W        W37435  28.316   1.408  16.255  0.2662 -0.3294  0.0853
18689W        W37436  34.501  19.526  19.373 -0.0483  0.3906 -0.2498
18690W        W37437  18.025  18.372  19.792 -0.0985  0.0564 -0.2261
18691W        W37438   3.021  33.648  18.685  0.0768  0.5109  0.1499
18692W        W37439   6.923   1.598  20.286 -0.1892 -0.1057 -0.2327
18693W        W37440   6.178   2.322   3.167  0.1179 -0.0838  0.0876
18694W        W37441   0.956  22.334  18.100 -0.1243 -0.1005  0.0303
18695W        W37442  25.968  14.691  17.309 -0.2336  0.0802 -0.2457
18696W        W37443  24.374   0.852  18.323 -0.0925 -0.0288  0.0706
18697W        W37444  33.721  17.776   8.005  0.0189 -0.2570 -0.3705
18698W        W37445  30.990  16.101  21.672 -0.3289 -0.2583  0.0428
18699W        W37446  33.360  20.514   9.466 -0.2769  0.1475 -0.0436
18700W        W37447  16.268  28.472   2.387 -0.0080  0.2610 -0.0759
18701W        W37448  19.393  12.952   6.446  0.1062 -0.0066  0.1348
18702W        W37449  32.938  22.689   0.120  0.0457  0.2213  0.2128
18703W        W37450   9.320  11.675   8.425 -0.0341 -0.0510  0.0998
18704W        W37451  13.798  31.892  14.366 -0.1243 -0.1253 -0.2071
18705W        W37452  20.801   0.756   0.827  0.0411 -0.1371  0.1009
18706W        W37453  28.700   5.755  22.521 -0.1167  0.1987 -0.0655
18707W        W37454   4.982  15.568  20.541 -0.0911  0.0419 -0.0392
18708W        W37455  26.574   1.470  14.623  0.0477 -0.0282  0.2261
18709W        W37456  29.785   1.338  19.531 -0.1079  0.1046  0.1848
18710W        W37457  31.043   6.545  23.190 -0.1698 -0.1336 -0.2505
18711W        W37458  27.090  19.070  25.429 -0.2112 -0.0040 -0.1301
18712W        W37459  34.000  32.428  25.895 -0.0695 -0.0044 -0.0426
18713W        W37460   3.784   1.815   3.586  0.2807 -0.1734 -0.0317
18714W        W37461  29.119  13.264   6.050 -0.3454 -0.4554  0.3424
18715W        W37462  24.675  33.380  19.350 -0.0637 -0.1395 -0.0717
18716W        W37463  30.626   4.213   5.314  0.0195 -0.0505 -0.0227
18717W        W37464  13.956  13.552   6.949 -0.4763 -0.0826  0.1054
18718W        W37465  24.736  24.164  23.072  0.1648 -0.1006  0.0475
18719W        W37466  24.842   5.536  18.089  0.0958  0.2536 -0.2868
18720W        W37467   4.834  30.671  24.289 -0.1585 -0.2745 -0.2563
18721W        W37468  15.540  10.506  24.882  0.2859  0.1839 -0.1239
18722W        W37469  23.647  11.638  22.637  0.1872  0.0989 -0.0572
18723W        W37470  18.133  17.286   2.256  0.1884 -0.3371  0.0714
18724W        W37471   7.950   3.901   2.991  0.0070 -0.1425 -0.1034
18725W        W37472  22.847   8.187   4.189  0.0724 -0.2941 -0.0806
18726W        W37473  30.395  31.622  13.509 -0.2081  0.0727 -0.0314
18727W        W37474  21.072   3.644  18.920  0.1802 -0.1469  0.0757
18728W        W37475  31.320  24.608  19.722 -0.1193 -0.0236 -0.0770
18729W        W37476  12.048  27.620  16.338  0.1371  0.0322 -0.1189
18730W        W37477  13.298   6.072   7.731 -0.0211  0.3114 -0.1302
18731W        W37478  10.864   9.878   5.504  0.1302  0.0646 -0.0746
18732W        W37479  24.464   1.899  12.447 -0.3695 -0.0298 -0.0497
18733W        W37480  17.122  11.504   8.699  0.0469  0.0751 -0.2214
18734W        W37481  31.020  34.479  21.365 -0.1820 -0.4509  0.0688
18735W        W37482  33.045  35.037  18.918 -0.1586  0.1832  0.3029
18736W        W37483   2.179  21.213  19.327 -0.1491 -0.1237 -0.0127
18737W        W37484  32.277   3.019  11.423  0.0421 -0.2799  0.0892
18738W        W37485  16.124  16.308  23.539 -0.0980  0.1884 -0.0311
18739W        W37486  10.581  11.462   5.750  0.1543  0.4093  0.0747
18740W        W37487  30.187  20.076   6.191  0.2298  0.0777  0.3580
18741W        W37488  30.102   1.204  14.872 -0.1487  0.2477  0.0486
18742W        W37489  23.241  11.925  20.617 -0.0671 -0.0964 -0.0147
18743W        W37490   0.874  26.133  15.981  0.0827  0.1028 -0.0848
18744W        W37491  34.312  29.321   2.903  0.2268 -0.4972  0.1359
18745W        W37492  26.894   6.255  24.821 -0.2857  0.0753 -0.2489
18746W        W37493  29.173  31.040  16.077 -0.1016  0.2803 -0.0428
18747W        W37494   2.156  27.268  18.675  0.0498 -0.0523  0.1099
18748W        W37495   0.637  31.662   9.491 -0.3691  0.2533 -0.0589
18749W        W37496   2.184  13.688  20.219 -0.0245  0.0857  0.0846
18750W        W37497  14.279  29.159   6.148 -0.1561 -0.0151 -0.1481
18751W        W37498  24.118  31.764  14.842 -0.2491  0.0348 -0.0183
18752W        W37499  26.200  11.993  24.739 -0.0672  0.1891 -0.0202
18753W        W37500  17.310  14.702   9.856  0.1416  0.3562 -0.3337
18754W        W37501  21.588   0.545  18.956 -0.0689 -0.3054  0.0450
18755W        W37502  30.841  32.572   4.983  0.0987  0.1409  0.0787
18756W        W37503   3.645   8.058  24.379 -0.2042  0.1405  0.3853
18757W        W37504  24.553  24.584  24.672 -0.2166 -0.0495 -0.1832
18758W        W37505  27.973  24.637  19.761  0.2204  0.0909  0.0728
18759W        W37506  13.627   5.851   8.113  0.1017 -0.0901  0.1261
18760W        W37507   5.587   7.647   3.232  0.0108 -0.1436  0.0823
18761W        W37508   8.858  14.582  19.025 -0.0499  0.0960 -0.1802
18762W        W37509  10.558  16.202   6.853  0.0847  0.0856  0.2582
18763W        W37510  26.642  22.319   7.985  0.0895 -0.0466 -0.0970
18764W        W37511  30.008  28.690  25.204 -0.0621 -0.1422  0.0620
18765W        W37512  26.673  26.110  19.064  0.0005  0.1008  0.0814
18766W        W37513   6.026  21.049   3.589  0.4127 -0.1719  0.1480
18767W        W37514   1.752  31.528   7.692 -0.0161 -0.0231 -0.2737
18768W        W37515  14.586  16.301  19.015  0.2162  0.0467  0.2394
18769W        W37516   2.292  14.440  24.802 -0.1104 -0.2363  0.2410
18770W        W37517  33.392  25.945  21.700  0.1036 -0.1532  0.2746
18771W        W37518   5.741  34.322   5.631 -0.0831 -0.0168  0.1133
18772W        W37519  26.283  34.309  23.661  0.1684 -0.1301 -0.3379
18773W        W37520  14.549  22.886   8.460  0.1795  0.0130  0.0846
18774W        W37521  35.283   1.365  17.610  0.0491  0.3805  0.0840
18775W        W37522   1.576  19.207  10.793 -0.1302  0.1776  0.3622
18776W        W37523  19.334  10.795  24.217  0.2559 -0.1813  0.1596
18777W        W37524  24.481  35.077   6.669 -0.0563 -0.3125 -0.2454
18778W        W37525   9.543   9.511   4.110  0.1202  0.2115 -0.0270
18779W        W37526  26.877  20.563  25.162 -0.1256  0.1461  0.0320
18780W        W37527   4.984  11.889   0.391 -0.0464  0.4547  0.1919
18781W        W37528  21.894   3.780  19.215  0.1226  0.2267  0.2313
18782W        W37529  34.618  33.312  25.893 -0.0094 -0.2118  0.0945
18783W        W37530   6.529   4.499   6.464 -0.0808  0.0905 -0.2030
18784W        W37531  27.804   3.875  23.334  0.0105  0.2507 -0.1362
18785W        W37532   2.815  15.222  22.249  0.0634  0.0726 -0.0858
18786W        W37533  26.808  24.206  18.874 -0.1708  0.2516  0.0326
18787W        W37534  22.788  20.602  23.335 -0.0704 -0.4683  0.1297
18788W        W37535   0.422   7.481  19.145  0.2825  0.2200 -0.1181
18789W        W37536  29.161  26.465  25.205 -0.3627 -0.0311 -0.0839
18790W        W37537  32.106  21.514  13.844 -0.0536 -0.0951 -0.1129
18791W        W37538  23.033   5.800  14.807  0.2290 -0.0134  0.2443
18792W        W37539  29.071   1.467   5.791 -0.0254 -0.0371  0.1010
18793W        W37540  30.654  23.590  18.406 -0.0079 -0.2262 -0.4068
18794W        W37541  31.648  10.031  18.017  0.3638 -0.3385  0.2230
18795W        W37542  16.732  12.709   5.549  0.0511 -0.1834 -0.2016
18796W        W37543  20.409   4.476   8.571  0.1982 -0.0988  0.3761
18797W        W37544  17.441   4.224   4.284 -0.2208  0.1235 -0.0236
18798W        W37545  13.271  16.817  24.940  0.0621  0.2627  0.0738
18799W        W37546   3.242   9.282   1.061  0.1617 -0.4231  0.1136
18800W        W37547  25.784  26.603  23.887 -0.1834 -0.0234 -0.0497
18801W        W37548  23.891   0.443   4.480  0.0408  0.2862 -0.2668
18802W        W37549   8.820  18.863   4.500 -0.3209 -0.1991  0.0560
18803W        W37550   9.885   6.404   4.230  0.2530  0.0223  0.1381
18804W        W37551  29.900  15.616  11.342 -0.0647 -0.1130  0.1505
18805W        W37552  19.292  22.347  10.714 -0.1355 -0.2767  0.1875
18806W        W37553  17.305   9.012  19.235  0.3317 -0.0002 -0.2584
18807W        W37554   2.624   0.741   7.501 -0.2379  0.4342 -0.0625
18808W        W37555  19.488  21.037   2.497 -0.0887  0.0248 -0.0152
18809W        W37556  10.961  24.367   0.103  0.1099  0.1110 -0.2430
18810W        W37557  30.029  33.921  18.094 -0.1873  0.1900 -0.0712
18811W        W37558  31.557  33.411  16.312  0.1009  0.1183  0.1275
18812W        W37559  18.682  10.500   6.738  0.0084  0.1134  0.2133
18813W        W37560   7.842   8.439  23.293 -0.5586  0.1853 -0.2625
18814W        W37561  11.218  10.763   1.233 -0.2739 -0.2262  0.4117
18815W        W37562  34.436  28.148  18.381  0.1074  0.0712  0.3614
18816W        W37563  20.143  14.555   7.881  0.2417 -0.0667  0.2118
18817W        W37564  26.893   0.009  13.098 -0.1632  0.0812  0.0892
18818W        W37565  31.584   5.130   4.002 -0.3097 -0.1372 -0.1425
18819W        W37566   7.890   8.953  11.154 -0.1168 -0.1155 -0.2008
18820W        W37567   7.130  26.725   2.566 -0.0002  0.1236  0.1262
18821W        W37568   8.875  17.865   6.118  0.0588  0.1970 -0.1155
18822W        W37569  21.263  29.046  25.750  0.3619  0.4641 -0.0819
18823W        W37570  32.408  18.734  20.242  0.2525 -0.0882  0.1511
18824W        W37571  22.244   2.629   4.892  0.1155  0.1442 -0.0298
18825W        W37572   5.661   0.489  21.656  0.0708 -0.1638 -0.2194
18826W        W37573   9.250  12.902   8.432 -0.2066  0.0181  0.1076
18827W        W37574  25.554  14.774  13.756  0.3690 -0.0668  0.2527
18828W        W37575  20.794  20.789  19.270 -0.0193  0.3072 -0.0606
18829W        W37576  17.636  17.263  24.356  0.1589  0.1451  0.1343
18830W        W37577   8.043  29.308   8.777  0.0352 -0.2711  0.2377
18831W        W37578  29.903   8.738  12.933  0.0307  0.2115 -0.1520
18832W        W37579  15.328   9.102   7.637  0.0071  0.2744  0.1437
18833W        W37580  24.581  24.566  24.011  0.1460  0.0237  0.0309
18834W        W37581   9.961  19.915  22.551  0.1392  0.0618 -0.1938
18835W        W37582  14.895  11.968   3.503  0.0101  0.0742 -0.2003
18836W        W37583  26.382  15.901  22.517  0.1023 -0.1150 -0.0674
18837W        W37584  19.545  17.843   2.623  0.3639 -0.1045  0.0548
18838W        W37585   9.401   9.480   9.868 -0.0317 -0.2747  0.2190
18839W        W37586  27.514  23.430  22.420  0.2515  0.1031 -0.0575
18840W        W37587  21.282   1.163  25.832  0.1271  0.0488 -0.2209
18841W        W37588  33.388  31.628  22.200  0.3142  0.1054 -0.0431
18842W        W37589   2.612  29.009  19.762 -0.4064 -0.0826 -0.0710
18843W        W37590  23.161  35.199  16.788 -0.1999 -0.0141  0.1513
18844W        W37591   3.903  13.840  15.806 -0.0732  0.1206  0.2467
18845W        W37592  14.109  18.366   9.615 -0.3697 -0.3361 -0.0577
18846W        W37593   4.641  13.288  24.104 -0.1382 -0.0730  0.0316
18847W        W37594   4.771  26.220   4.667 -0.1623 -0.1125  0.1249
18848W        W37595   6.137   8.662  10.547 -0.0620  0.1751  0.3114
18849W        W37596   9.957  34.055   2.052  0.1966  0.0154 -0.1229
18850W        W37597  24.339  15.519  11.261 -0.2273  0.2900  0.1496
18851W        W37598  19.094  20.647   5.878  0.1990  0.1558 -0.3940
18852W        W37599  11.617  25.706   7.015 -0.0293 -0.0642  0.0671
18853W        W37600  26.280  19.087  24.995  0.1008 -0.1360  0.0838
18854W        W37601  31.417  18.810   5.576 -0.1575 -0.0968 -0.0496
18855W        W37602  15.467  19.256  22.965 -0.1961 -0.0742  0.0717
18856W        W37603  20.826  15.468  20.847 -0.2146  0.0070 -0.1001
18857W        W37604   9.432  15.171   8.602  0.0983 -0.2236  0.3364
18858W        W37605  32.662  34.689  21.931  0.2781 -0.1378  0.3041
18859W        W37606  31.867  25.201  18.112  0.1195  0.1945 -0.3684
18860W        W37607  31.911  32.294   6.632 -0.0785 -0.2583  0.1661
18861W        W37608  14.840  11.180   0.129  0.1215 -0.0347  0.3465
18862W        W37609  22.776  27.492   2.581 -0.3856 -0.3723 -0.2244
18863W        W37610  10.267  20.809   5.012  0.4548  0.0380  0.1723
18864W        W37611  15.060  32.883  23.933 -0.1235 -0.1444 -0.1666
18865W        W37612  34.822  34.108   2.823 -0.0382  0.0023 -0.1391
18866W        W37613   5.136   2.849   6.087 -0.0858  0.0157 -0.3001
18867W        W37614  25.111  19.247  23.891  0.3970 -0.1269  0.0755
18868W        W37615   2.639   9.157   0.040  0.0634  0.0375 -0.0424
18869W        W37616  19.880   7.418   0.579  0.0310 -0.1745 -0.1725
18870W        W37617  15.001  20.329  23.772  0.2014  0.1310  0.0675
18871W        W37618  16.331   5.000  13.110 -0.0523  0.0255  0.1659
18872W        W37619   3.296  29.554   6.682  0.0534  0.0045 -0.1913
18873W        W37620  11.283  14.881  24.440  0.0033 -0.1936  0.4530
18874W        W37621   1.818  18.082  16.791 -0.2574 -0.1246 -0.0223
18875W        W37622  16.023  17.230   8.997 -0.1073 -0.0445  0.3254
18876W        W37623   8.243  19.221  21.293 -0.2118 -0.0266 -0.0518
18877W        W37624  21.747   7.776   4.517 -0.3084  0.0933  0.2537
18878W        W37625  29.910  20.143  18.556 -0.0804 -0.5672  0.1665
18879W        W37626   9.591  29.271  14.047 -0.0045 -0.2255  0.2090
18880W        W37627  15.144  34.035   2.010  0.1008  0.1127 -0.0339
18881W        W37628  35.360  29.454  19.807  0.0176 -0.0204 -0.0144
18882W        W37629   4.349  26.286  24.426 -0.2890  0.0910 -0.0971
18883W        W37630  20.752  18.871  18.273  0.1647 -0.0491  0.0615
18884W        W37631  17.119   8.841  10.087 -0.2047 -0.1388 -0.2304
18885W        W37632   0.564  12.266   2.107  0.2205  0.0660  0.0027
18886W        W37633  33.686  16.162  11.790 -0.1100 -0.0090  0.0632
18887W        W37634   3.554  27.672  19.441  0.1797 -0.0767  0.2361
18888W        W37635  30.536  21.924   6.598 -0.2151 -0.2088  0.1014
18889W        W37636   7.285   4.395   8.309  0.0079 -0.0380  0.0769
18890W        W37637  15.872  16.095   8.501 -0.0330  0.1380 -0.0576
18891W        W37638   2.764  24.608   5.448  0.1518 -0.1082 -0.1476
18892W        W37639  31.088  21.185   7.675 -0.1631 -0.1689  0.3283
18893W        W37640  24.257   5.776  23.724  0.0098  0.1304  0.0356
18894W        W37641   6.189  28.587  25.254  0.1687 -0.1062 -0.0469
18895W        W37642  32.404  26.176  14.683  0.0569  0.1078  0.1658
18896W        W37643  12.599  28.044  15.752 -0.0760  0.0895 -0.0968
18897W        W37644  14.453   2.997   9.997 -0.2095 -0.1238 -0.2074
18898W        W37645   6.979  16.975  26.077  0.3061 -0.0008 -0.3679
18899W        W37646  20.726  10.050  18.229  0.2479 -0.1836 -0.2165
18900W        W37647   4.613   7.277   7.882 -0.1055  0.2984 -0.2426
18901W        W37648   3.904  29.178   0.167  0.0515  0.1411 -0.0745
18902W        W37649  21.571   4.738  22.547  0.0931  0.4096  0.0026
18903W        W37650   1.454   6.247  20.199  0.0196 -0.2340 -0.0206
18904W        W37651  12.365  25.344  17.447  0.0929  0.1831 -0.0223
18905W        W37652  27.393   6.512  13.988  0.0635 -0.3064 -0.2204
18906W        W37653  27.512  31.619   6.167  0.4579 -0.0184 -0.0441
18907W        W37654   7.566  16.065  25.020 -0.0961 -0.3923  0.1841
18908W        W37655  27.496  27.766  15.204 -0.0459 -0.4339  0.0629
18909W        W37656  21.471  20.116  20.809 -0.0518 -0.4574 -0.0605
18910W        W37657  33.349   3.183  21.621 -0.1242 -0.1254  0.0173
18911W        W37658   7.827   4.587  23.260 -0.3194  0.0057 -0.0748
18912W        W37659  11.553   7.940  13.147 -0.3546 -0.0715  0.1970
18913W        W37660  13.948  32.488   2.126  0.2578 -0.0753 -0.0119
18914W        W37661   7.970  20.497   7.035 -0.0257 -0.1124 -0.1208
18915W        W37662  12.744  18.990  20.832  0.1799  0.1350 -0.0331
18916W        W37663  10.999  16.191  19.810 -0.1787 -0.0522  0.1248
18917W        W37664  13.183  25.767   9.856  0.3455  0.0116 -0.2510
18918W        W37665   0.636  17.401   9.122  0.1857  0.1357  0.0579
18919W        W37666   2.488   4.470   0.793 -0.0260  0.0732  0.3103
18920W        W37667   7.892  34.585  14.576 -0.3488  0.2262  0.0038
18921W        W37668   6.457  12.316   3.515 -0.3176 -0.0797  0.1133
18922W        W37669   9.617  24.733  11.018  0.0266 -0.1506 -0.2738
18923W        W37670  12.322  30.777   4.603 -0.0216 -0.0202  0.0296
18924W        W37671  18.830  27.703  21.156  0.3930 -0.1172  0.3961
18925W        W37672   1.253   4.700  13.854 -0.1308 -0.0604  0.0615
18926W        W37673  14.486  34.659  10.863  0.0064  0.3400  0.0756
18927W        W37674  21.168  11.941   0.419  0.4177  0.2991  0.0660
18928W        W37675  27.772  11.043  20.278 -0.0893 -0.1509 -0.1061
18929W        W37676  29.579  23.726   6.031 -0.2266  0.1402 -0.2230
18930W        W37677  11.173  10.765  23.449  0.0507  0.1297 -0.3334
18931W        W37678  13.223  17.512  25.517 -0.0397  0.2507  0.0675
18932W        W37679  14.376  28.719   7.737  0.1239 -0.2309  0.0768
18933W        W37680   0.953  19.065  24.192  0.2414  0.0237 -0.0640
18934W        W37681  33.290  18.244   0.134  0.2046 -0.2525  0.2239
18935W        W37682   7.347   8.073  22.455 -0.0546 -0.2468 -0.0489
18936W        W37683  20.052  14.762  19.534  0.1218 -0.3270  0.0341
18937W        W37684  15.024  24.072   0.936  0.0455  0.2280  0.2272
18938W        W37685  25.254   7.826   3.511  0.0717 -0.1781  0.2368
18939W        W37686  14.000  17.675  11.469 -0.0843  0.0978 -0.1367
18940W        W37687  23.987  23.294  22.542  0.0999  0.0473  0.1330
18941W        W37688  16.668  29.528  23.054 -0.0027 -0.0232 -0.1072
18942W        W37689   3.164  16.420  15.854 -0.1074 -0.2153 -0.1902
18943W        W37690  26.763  26.151   1.308 -0.2499  0.1867  0.1147
18944W        W37691  24.160   6.543   5.635 -0.0579  0.0403  0.1707
18945W        W37692  17.425  26.045   7.387  0.0946  0.0584  0.0141
18946W        W37693  18.724   6.871   5.319  0.0368 -0.0402 -0.0633
18947W        W37694  15.459  20.257   6.877 -0.0924 -0.0785 -0.1692
18948W        W37695  25.425  28.382  12.810 -0.0188  0.2797 -0.0317
18949W        W37696   9.990  31.248  10.039  0.2347  0.0272 -0.3540
18950W        W37697  19.544   4.203  17.032  0.1315  0.1936 -0.1083
18951W        W37698  29.748  29.224   2.368  0.0645  0.0466  0.0340
18952W        W37699  21.083  34.162  16.959  0.0468  0.1145  0.2515
18953W        W37700  22.339  11.253  25.521  0.3507  0.2234  0.1053
18954W        W37701  24.667  35.300  25.057 -0.0826 -0.0395  0.0291
18955W        W37702  10.591  21.068   4.543 -0.1101 -0.0433 -0.1133
18956W        W37703   6.057  21.178   0.696  0.2261  0.2060  0.0848
18957W        W37704   1.351  22.688   4.163 -0.0128 -0.0228  0.1366
18958W        W37705   8.993   5.084   2.694  0.1414  0.2133  0.3032
18959W        W37706  32.208  30.388  23.706  0.3257 -0.0012 -0.0912
18960W        W37707   5.383  10.861  15.998 -0.2153 -0.2207 -0.0602
18961W        W37708  16.684  10.019  11.463 -0.0358 -0.0593  0.1343
18962W        W37709   9.836   2.508  13.193 -0.0274  0.2677 -0.0642
18963W        W37710  13.035  22.245   4.036 -0.2578 -0.0467  0.0607
18964W        W37711  35.379  26.790  23.995 -0.1546  0.1292 -0.0469
18965W        W37712  31.216  32.233  26.046 -0.1231 -0.0854 -0.4860
18966W        W37713   8.904  19.196  19.976 -0.1322  0.0190  0.0136
18967W        W37714  26.036  23.840  22.343 -0.0388 -0.0118  0.1032
18968W        W37715  21.566  24.417  15.724  0.1398  0.3301 -0.0065
18969W        W37716  17.115  24.698   6.247 -0.2373 -0.1876 -0.0984
18970W        W37717  10.914   9.978  22.839 -0.0612  0.0707 -0.1067
18971W        W37718  14.317  25.109  23.998  0.1025  0.1380 -0.3022
18972W        W37719  19.979  13.548  10.214  0.0006  0.0769 -0.0304
18973W        W37720  14.966  33.012   4.950 -0.0069  0.0021  0.2175
18974W        W37721   1.551  34.790  17.553  0.1591  0.2432  0.3846
18975W        W37722  34.485   5.634  22.122  0.2146 -0.3243  0.2496
18976W        W37723  22.903  29.285   3.793  0.3518  0.1230  0.0125
18977W        W37724   9.314  32.325   6.333 -0.0984 -0.3630  0.2165
18978W        W37725   1.205  30.101  22.254 -0.1819  0.0797  0.0379
18979W        W37726  15.960  29.655  11.455 -0.2986 -0.0865  0.1151
18980W        W37727   3.591   7.118   1.662 -0.0116  0.1262  0.0136
18981W        W37728  29.106  32.041   1.408  0.2031  0.1656 -0.0598
18982W        W37729  27.657  10.456  23.772  0.3453 -0.1048 -0.0110
18983W        W37730  15.698  32.612   7.412  0.1796 -0.0431 -0.2132
18984W        W37731  13.946   5.796   3.284 -0.0898 -0.1515 -0.2824
18985W        W37732   6.570   8.085  17.977 -0.0539 -0.1658  0.1701
18986W        W37733   9.120   3.301  12.206  0.0038  0.0547 -0.1953
18987W        W37734  33.111   0.082   5.224 -0.1639 -0.1135  0.1312
18988W        W37735  25.525  21.154  13.160 -0.0086  0.0786 -0.1870
18989W        W37736  28.738  10.518  13.984 -0.2139  0.3747 -0.0538
18990W        W37737  13.137  19.575   1.847  0.2581  0.2269 -0.3552
18991W        W37738   2.596   7.385  14.880  0.1518  0.2717  0.0598
18992W        W37739  14.830  21.427   5.486 -0.1927  0.0217 -0.0805
18993W        W37740  34.959  10.312  23.881  0.2256  0.3695  0.2378
18994W        W37741  32.770   1.239  15.980 -0.0683  0.0222 -0.1178
18995W        W37742   0.639  14.991  25.215 -0.2027 -0.1070  0.1084
18996W        W37743  27.026   0.405   0.186  0.1329  0.4316  0.1437
18997W        W37744  13.939  35.368  11.130 -0.3832 -0.2424 -0.3668
18998W        W37745   8.725  14.540  25.285 -0.0364  0.4677 -0.0133
18999W        W37746   4.629  11.892  16.366 -0.0988  0.0535  0.1532
19000W        W37747  10.116  22.899  11.432  0.0844 -0.3640 -0.1695
19001W        W37748   4.021   7.314  18.206  0.1321 -0.0397 -0.1878
19002W        W37749  11.689  25.567  10.300 -0.1262 -0.1044  0.0358
19003W        W37750   0.666  30.223  20.541  0.0439 -0.0253 -0.0736
19004W        W37751  25.205  13.409  14.737 -0.0140  0.0431  0.0461
19005W        W37752  19.900   6.178   7.856  0.1638 -0.0753  0.2076
19006W        W37753  35.314   4.997  17.844 -0.0225 -0.0939 -0.0488
19007W        W37754  12.874  22.908   9.625 -0.1438  0.0681  0.1452
19008W        W37755  12.562  30.579   3.656  0.0798  0.2013 -0.0010
19009W        W37756  35.073   9.374  20.315  0.2566 -0.1836 -0.1435
19010W        W37757  33.564   3.958   5.985 -0.4277 -0.1225  0.0257
19011W        W37758  12.095   1.778   3.413  0.0439  0.2036 -0.0145
19012W        W37759  16.069  10.458  23.375 -0.2038  0.0863 -0.1705
19013W        W37760   1.138   0.181   7.793 -0.2619 -0.2480  0.1963
19014W        W37761   1.002  34.056  17.451  0.0076  0.0505  0.0812
19015W        W37762   2.449  33.828   6.806 -0.1376 -0.1210 -0.0437
19016W        W37763   3.679  30.042   9.983  0.3882 -0.0902  0.2230
19017W        W37764  20.838  22.092  25.854 -0.0643  0.0447 -0.0337
19018W        W37765  17.503  15.020   2.488 -0.1434 -0.2189 -0.2278
19019W        W37766   0.242  14.667  19.008  0.4384  0.1548  0.0105
19020W        W37767  35.066  20.312  23.567  0.0366 -0.0068  0.3108
19021W        W37768   3.284  32.462  24.033 -0.1532 -0.2560  0.1423
19022W        W37769  33.296  12.298  16.458 -0.3016  0.2430 -0.0880
19023W        W37770  30.253  30.131   4.134  0.0677 -0.0727  0.1723
19024W        W37771  14.963  12.985  20.481 -0.1247 -0.1994 -0.1948
19025W        W37772  15.232  20.125  12.021  0.1736 -0.2820  0.2649
19026W        W37773  35.038   5.483  23.687 -0.1309 -0.0318  0.1415
19027W        W37774  22.621  19.783  21.092 -0.0509 -0.0798  0.1001
19028W        W37775  26.891   7.162  20.069  0.1524 -0.3083 -0.3469
19029W        W37776  32.408  26.725  11.484  0.1370  0.4127  0.1392
19030W        W37777  11.439   8.572   7.069 -0.2665 -0.2082 -0.1706
19031W        W37778  34.983  19.071   7.328  0.1920  0.1387 -0.0976
19032W        W37779  18.684  25.192  10.178 -0.0598 -0.0967  0.1759
19033W        W37780  28.666   5.065  16.698 -0.1687 -0.2448 -0.0573
19034W        W37781  23.418  29.052   0.136 -0.2066 -0.1202  0.0795
19035W        W37782  22.887  17.292  23.125  0.2420  0.1879  0.0796
19036W        W37783   0.222  28.452  19.607  0.4942 -0.2160  0.1087
19037W        W37784  31.049  29.539  16.893  0.1879 -0.0799 -0.2535
19038W        W37785  34.688  18.783   9.226  0.2072 -0.0183 -0.0620
19039W        W37786   3.224  10.268   6.079 -0.1511 -0.0107  0.0647
19040W        W37787  35.273   1.889   8.083 -0.0253  0.0262  0.3827
19041W        W37788   4.812  30.322  25.271 -0.1040  0.0979  0.0007
19042W        W37789   0.378  22.053  14.453  0.4067  0.1258 -0.1907
19043W        W37790  27.517   6.913  16.123 -0.0646 -0.3512 -0.2731
19044W        W37791  10.781  21.544   3.050  0.3972 -0.1743  0.0332
19045W        W37792  34.756  28.533  25.862  0.3561 -0.1421 -0.1103
19046W        W37793   5.440   6.103  20.885 -0.2046  0.3797  0.1914
19047W        W37794  34.816  17.158  20.546 -0.2177 -0.0676  0.2184
19048W        W37795  30.006   0.392  14.500 -0.2432 -0.1543  0.1997
19049W        W37796  24.556  10.743  23.872  0.1448 -0.1731  0.3170
19050W        W37797   4.673   9.187  16.710 -0.0582  0.3687  0.1292
19051W        W37798   8.508  27.697  11.830 -0.1144 -0.0978 -0.1941
19052W        W37799   2.602  27.941   8.243 -0.1910  0.1591  0.2337
19053W        W37800  23.925   2.208   6.984  0.0930  0.0116 -0.0693
19054W        W37801  11.367  23.098  23.058  0.3847  0.0400  0.1251
19055W        W37802  22.082  28.935  13.811 -0.0717  0.1613  0.0955
19056W        W37803  23.632   5.057  25.129 -0.1993 -0.0952 -0.1244
19057W        W37804  21.863  23.520  20.179 -0.2471 -0.1701 -0.2127
19058W        W37805  34.818  31.727  19.165 -0.0515 -0.0623  0.1477
19059W        W37806   0.767  17.883  25.481  0.2023  0.0910  0.0184
19060W        W37807  29.177   7.079  17.480  0.2752 -0.0109 -0.1414
19061W        W37808  33.885   4.277  18.386  0.1665 -0.1331 -0.1340
19062W        W37809   0.109  28.723   4.942 -0.0906 -0.2395 -0.1782
19063W        W37810  20.518   8.442   3.329 -0.4697  0.0875  0.3334
19064W        W37811  33.305  16.122  20.621 -0.0905  0.2063 -0.1207
19065W        W37812  19.418  14.955  20.795 -0.2266 -0.0185 -0.0486
19066W        W37813  28.769  15.653  13.661 -0.0503 -0.0446 -0.0437
19067W        W37814  15.096  12.983   8.147 -0.0594  0.0646 -0.0682
19068W        W37815  12.900  20.330  22.953 -0.4797  0.4287 -0.2902
19069W        W37816  31.236  28.057  20.409 -0.1096  0.1470 -0.0236
19070W        W37817   2.369  28.769   4.710  0.0213 -0.2434 -0.1008
19071W        W37818  34.273   4.671  24.705 -0.0587 -0.0733  0.1244
19072W        W37819   3.089   6.769  26.187  0.1068  0.0010  0.0018
19073W        W37820   7.386  12.808   7.716 -0.1218 -0.2501 -0.1474
19074W        W37821  24.052   1.595   6.505  0.2289 -0.0237  0.2036
19075W        W37822   9.131  33.716  20.758 -0.0541  0.0549 -0.0532
19076W        W37823  21.647  14.824  17.927  0.1064 -0.1394 -0.2615
19077W        W37824  12.081  19.123  22.647 -0.0736 -0.0415  0.1966
19078W        W37825  25.712  13.976   8.223  0.0371 -0.0128  0.3113
19079W        W37826  33.606   4.162   1.002  0.0100  0.2602 -0.0652
19080W        W37827  22.268  28.565  12.604  0.0118 -0.0036  0.1859
19081W        W37828  25.073  23.941   0.310 -0.1155 -0.3188 -0.2257
19082W        W37829  19.263   2.504   4.950  0.0980  0.1703  0.0930
19083W        W37830   7.145  23.042   3.466  0.0421  0.3486  0.2341
19084W        W37831  12.672  11.089   4.001  0.0905 -0.1981  0.3902
19085W        W37832  22.317   7.897  16.016  0.3055 -0.0607 -0.1141
19086W        W37833  30.659   2.174   2.285 -0.1161 -0.1497  0.4782
19087W        W37834  33.822  17.008   5.991 -0.2343  0.0337  0.0350
19088W        W37835  23.345  17.272  24.275  0.1218  0.3207 -0.2950
19089W        W37836   0.239  15.963  14.711  0.3996 -0.0196  0.1206
19090W        W37837  16.787  18.933   7.475 -0.3475 -0.0923  0.1218
19091W        W37838  17.822  17.138   4.429  0.0984  0.3759  0.0498
19092W        W37839   2.736  31.005  23.190  0.1742 -0.0316 -0.0889
19093W        W37840   8.220   5.082   6.930  0.0247  0.0672  0.0206
19094W        W37841  26.797  19.889  15.791 -0.2093 -0.2110 -0.4982
19095W        W37842  15.275  22.947   0.457  0.2211  0.2150 -0.0595
19096W        W37843  26.266   6.338  18.804 -0.3969 -0.1506  0.0191
19097W        W37844  11.281  12.877   6.610  0.0548 -0.0200  0.1603
19098W        W37845  13.414  29.592  23.237 -0.1454 -0.2924  0.1183
19099W        W37846  26.777  14.942  18.463  0.0378  0.0258  0.1195
19100W        W37847  21.975  29.159  24.179 -0.2105 -0.2465  0.1409
19101W        W37848  20.348  22.301  17.609  0.1063  0.3286 -0.1540
19102W        W37849   0.084  25.578  19.525 -0.1552 -0.4419 -0.2604
19103W        W37850   9.378  27.599  25.526 -0.1025 -0.0478  0.0445
19104W        W37851  22.254  35.347  14.831  0.1742  0.3367 -0.1463
19105W        W37852  26.948   4.939  13.487  0.0933 -0.2309  0.0293
19106W        W37853  19.150   7.811  25.744  0.1670 -0.4890 -0.0947
19107W        W37854   2.537  28.234   2.460  0.0322 -0.2803 -0.0196
19108W        W37855  31.427   2.138  17.165 -0.1132  0.0519 -0.1333
19109W        W37856  14.150  35.174  24.140  0.0414 -0.0496 -0.1305
19110W        W37857  22.344  33.946  22.944 -0.0233  0.2682 -0.1276
19111W        W37858   1.150  11.944  15.352 -0.0623 -0.0006 -0.1837
19112W        W37859  27.862  18.786  10.225 -0.4018  0.0461 -0.3803
19113W        W37860   8.244  11.297   4.814  0.3881  0.0133  0.0873
19114W        W37861  18.514   8.637  19.050  0.1446  0.0761 -0.1089
19115W        W37862   6.409  27.690  12.788  0.2336  0.1619 -0.1186
19116W        W37863   7.563  32.682   3.760  0.1769  0.4348 -0.1296
19117W        W37864   8.942  24.637   4.232  0.1945 -0.0092  0.1284
19118W        W37865  23.075  29.967   5.100  0.0171 -0.1507  0.2207
19119W        W37866  27.618   3.459   0.370 -0.1969 -0.0090 -0.0546
19120W        W37867   9.579  16.870  25.762  0.1912  0.1524  0.3104
19121W        W37868  14.472  27.350  25.866 -0.1344 -0.3367  0.2872
19122W        W37869  18.903  10.400   9.860  0.1738  0.0162 -0.2192
19123W        W37870   6.417  18.012   6.985 -0.0046  0.1060 -0.3094
19124W        W37871  27.736  28.378   0.675 -0.0596  0.0677  0.2398
19125W        W37872  14.181   2.475  20.302 -0.1960 -0.0346 -0.2086
19126W        W37873  31.670  27.854  10.567  0.1282  0.1358  0.0739
19127W        W37874  18.547  15.726   3.194  0.1540 -0.0824  0.2976
19128W        W37875  34.386   5.355  12.762 -0.1564  0.1662  0.0552
19129W        W37876  16.980   3.457  17.038 -0.3306 -0.0417  0.3809
19130W        W37877  28.010  24.397  10.448  0.0884  0.4021 -0.1116
19131W        W37878   6.141  21.321   1.183  0.3244  0.0447  0.0802
19132W        W37879  26.711  22.193  12.417  0.3803 -0.0699  0.0994
19133W        W37880  10.532  17.776   5.091 -0.0222  0.0066  0.2351
19134W        W37881  32.867   9.981   0.128 -0.4010  0.0304 -0.0128
19135W        W37882   2.350  33.714   3.095  0.0458  0.1716 -0.1427
19136W        W37883  12.725  29.238  16.193  0.1096 -0.1852  0.1937
19137W        W37884  28.779  17.550  18.034 -0.0064 -0.0017 -0.1242
19138W        W37885  28.461  15.257  10.399 -0.4845 -0.0793 -0.3597
19139W        W37886   4.320  13.457  19.520 -0.1762 -0.1832  0.1221
19140W        W37887  31.607   0.147   4.341  0.5379 -0.4432 -0.2399
19141W        W37888   0.177  20.755  24.671 -0.1860 -0.0457 -0.2824
19142W        W37889  14.700  12.452   9.267  0.0368 -0.0487 -0.0906
19143W        W37890  16.265   8.126  19.520 -0.1351 -0.1346  0.0939
19144W        W37891  25.811   5.438  18.487 -0.0049 -0.0578 -0.3514
19145W        W37892   5.979   5.793  25.845  0.1379 -0.1782 -0.3102
19146W        W37893  13.129  27.127  16.779 -0.0892 -0.1325  0.0070
19147W        W37894  25.144  28.575   3.201  0.1132 -0.0603  0.0263
19148W        W37895  14.557   5.128  24.806 -0.0049  0.1277  0.0989
19149W        W37896  31.276  15.355   6.677 -0.1207  0.3701 -0.1480
19150W        W37897  32.526  17.390  23.377 -0.1949  0.1581  0.2377
19151W        W37898  23.719  23.205  24.138  0.0158 -0.2142  0.0876
19152W        W37899  13.064  17.934   2.540  0.0347  0.0173 -0.2261
19153W        W37900  25.702  34.180  19.109  0.1301  0.1754  0.0073
19154W        W37901  13.097  17.299   0.299  0.0554 -0.3536 -0.0140
19155W        W37902  33.725   0.268  23.816  0.3200  0.0259  0.5333
19156W        W37903   2.472  23.060  23.110 -0.0283  0.0724 -0.4051
19157W        W37904  26.682  34.777  24.348 -0.1934  0.1357  0.2036
19158W        W37905  19.123   2.220  25.338 -0.0353 -0.2346  0.0773
19159W        W37906  13.556  33.776  22.742  0.0397  0.0872 -0.0493
19160W        W37907  14.438   1.448   8.648  0.3169 -0.1803  0.0116
19161W        W37908   8.596  17.801   4.639 -0.0490  0.3269 -0.4057
19162W        W37909  13.036  28.093  16.233 -0.0572  0.1608 -0.0149
19163W        W37910  10.780  16.262   9.856  0.0652 -0.1550 -0.0753
19164W        W37911  33.817   1.018   2.533  0.1187  0.2104 -0.0295
19165W        W37912   6.012  34.478  22.151  0.1364  0.4576 -0.1886
19166W        W37913  30.494   2.426   3.356  0.1628  0.0957 -0.1021
19167W        W37914  13.429   2.169  25.088  0.0467  0.3952  0.1376
19168W        W37915  14.290  26.497  14.585 -0.3061  0.2427  0.2232
19169W        W37916  21.638  24.501   0.211  0.3610 -0.1540  0.1096
19170W        W37917  33.386  33.640  24.482  0.0054 -0.1157  0.0085
19171W        W37918  26.575   0.304   0.061 -0.1215 -0.0486  0.3702
19172W        W37919   6.675  33.263   0.178 -0.0766 -0.2040  0.0496
19173W        W37920   8.693   2.611  15.321 -0.1448 -0.0170  0.0981
19174W        W37921   5.169   9.998  21.056  0.2778  0.4003  0.1529
19175W        W37922  21.719   8.382  20.572 -0.1275 -0.3442 -0.2219
19176W        W37923  13.163  27.361  17.253 -0.1609 -0.0078 -0.0294
19177W        W37924  10.259  33.494   5.560  0.0086 -0.1426  0.0075
19178W        W37925  31.842   4.311  16.094  0.0824  0.2085 -0.2507
19179W        W37926   5.232  32.715  13.206  0.1009  0.0366  0.3328
19180W        W37927  30.290  21.100  24.096 -0.0714 -0.1030 -0.1141
19181W        W37928  10.238  34.994  12.527 -0.0869 -0.1601  0.4498
19182W        W37929  13.162  17.184  20.007 -0.2326 -0.3003 -0.1993
19183W        W37930  32.519  16.316  19.422  0.0137 -0.2197  0.2136
19184W        W37931  21.594  35.090  25.792 -0.0673  0.3450 -0.0061
19185W        W37932   8.740  19.339   4.379 -0.1213 -0.1643 -0.3371
19186W        W37933   5.723  35.102  12.317  0.0575 -0.1281  0.3891
19187W        W37934  10.273   3.530   5.542  0.0112  0.1818 -0.0280
19188W        W37935   7.908  35.357  21.877 -0.1949  0.2526  0.0797
19189W        W37936  32.972  10.678  11.201  0.0239  0.1402 -0.0752
19190W        W37937   7.359  18.837  25.277 -0.3363  0.0911  0.1640
19191W        W37938  10.873  25.603   1.486 -0.0002 -0.2165 -0.1026
19192W        W37939  29.970  10.752   7.354 -0.3918 -0.0876 -0.3466
19193W        W37940  29.679  31.911  23.093  0.2562  0.0385  0.1268
19194W        W37941   8.899  14.912   1.502  0.3103 -0.4942  0.0020
19195W        W37942   9.686  24.510   9.091 -0.3908 -0.0189 -0.1950
19196W        W37943  22.607  27.741  12.672  0.1064 -0.1824 -0.2922
19197W        W37944  35.082  16.992  23.584  0.0357 -0.0426  0.2193
19198W        W37945  30.404   2.105  14.516  0.2113  0.1060  0.2448
19199W        W37946  26.782  29.374  16.729 -0.2134  0.2847  0.2655
19200W        W37947  29.396  17.229  17.738  0.1320  0.2433  0.0006
19201W        W37948  24.686  31.971  21.300  0.0508 -0.0742  0.0467
19202W        W37949   6.992  21.012  21.655 -0.2380  0.1645  0.1710
19203W        W37950  32.264  25.116  18.963 -0.1982  0.0148 -0.0519
19204W        W37951  35.372  16.981   9.386 -0.2061  0.0240 -0.1069
19205W        W37952  12.410  24.725  13.951 -0.1997 -0.1123 -0.1726
19206W        W37953  24.833  20.726  25.655  0.1234  0.0865 -0.2481
19207W        W37954   2.820  30.184  20.635  0.0544 -0.2299 -0.1561
19208W        W37955  34.476   3.555   1.496  0.1256 -0.1016  0.0023
19209W        W37956   3.405  27.485  22.897 -0.0175 -0.0893 -0.1156
19210W        W37957   9.319  15.128   0.440  0.0155  0.4026 -0.0095
19211W        W37958  29.948  16.637  23.942  0.2463  0.0620 -0.1140
19212W        W37959  34.086  13.169  18.521  0.0493  0.0577 -0.0478
19213W        W37960  13.888  23.762   8.343 -0.2482  0.2985  0.2343
19214W        W37961  33.180   3.134  19.052 -0.0718  0.1649  0.0216
19215W        W37962   1.786  16.994  24.103 -0.2019  0.3402 -0.1673
19216W        W37963  20.076  27.579  25.519 -0.1724 -0.0343 -0.1015
19217W        W37964   6.236  29.014  10.639  0.1846  0.0133 -0.0848
19218W        W37965   6.738  27.007  24.903 -0.2879 -0.1090 -0.2550
19219W        W37966   1.084  30.793   7.631 -0.0483 -0.0093  0.0852
19220W        W37967  33.645  11.661  25.722  0.2427  0.2689  0.3235
19221W        W37968  21.896  23.008  20.209 -0.2351 -0.1744  0.3956
19222W        W37969  29.251   6.621  23.627  0.3241 -0.0064  0.0135
19223W        W37970  14.900   9.771  20.907  0.0579 -0.0809 -0.2071
19224W        W37971  20.465  31.986   6.634 -0.0317  0.3417 -0.2412
19225W        W37972   7.079  27.858   6.419  0.2907 -0.1272  0.1758
19226W        W37973  22.651  34.149  17.822 -0.2134  0.0994  0.0133
19227W        W37974   6.652  24.394   4.839  0.1727 -0.2957 -0.2215
19228W        W37975  34.465   1.516   3.721  0.1628 -0.1200  0.2016
19229W        W37976  25.358  23.205  18.960  0.3477 -0.0768 -0.2584
19230W        W37977  33.583  18.717  13.315  0.0322  0.0931 -0.2695
19231W        W37978   8.378   3.668  25.297  0.0103  0.4056 -0.2983
19232W        W37979  12.363  20.635   4.099  0.1287  0.0269 -0.0855
19233W        W37980   7.550   2.915  20.426  0.1355 -0.0968 -0.1828
19234W        W37981  30.123  31.479  14.878  0.2763  0.0838  0.1264
19235W        W37982  29.558   6.644  22.358  0.1479  0.0449 -0.2689
19236W        W37983  26.478  22.101  20.589 -0.1942 -0.1506 -0.1959
19237W        W37984  23.739  27.454   0.975  0.2435  0.1227 -0.6328
19238W        W37985   1.137  22.675  13.440  0.0515 -0.2108  0.0205
19239W        W37986  18.622  29.195   1.036  0.3107 -0.1618 -0.1805
19240W        W37987  28.616  23.862   8.672  0.3366  0.2137  0.1474
19241W        W37988  15.694  17.907   1.942 -0.1791  0.3334  0.1588
19242W        W37989  15.465   2.933   0.335 -0.2844 -0.0698 -0.0325
19243W        W37990   9.975  34.085   7.470 -0.3294 -0.1193  0.2472
19244W        W37991  19.934   9.694  11.448  0.2480 -0.1515 -0.3103
19245W        W37992   3.486  20.057   0.513  0.3868 -0.0530 -0.0597
19246W        W37993  28.443  26.830  14.222  0.0250 -0.3134 -0.1577
19247W        W37994   2.150  10.791  22.293  0.2484 -0.2263 -0.0419
19248W        W37995  10.873  14.635  12.081 -0.1485  0.1166  0.0321
19249W        W37996  29.213   4.032  24.109  0.3590  0.1118  0.0547
19250W        W37997  21.463  10.526  26.061 -0.1541 -0.2644  0.1402
19251W        W37998  22.692   2.204  23.128 -0.0163 -0.2121  0.1617
19252W        W37999   4.533  20.944  25.905  0.3350  0.3059  0.0533
19253W        W38000  18.323  34.269   2.179 -0.0444 -0.3341 -0.0742
19254W        W38001   2.854  19.532  20.169 -0.4886 -0.0624  0.1655
19255W        W38002  29.495  20.095  12.475  0.2171 -0.1718  0.2172
19256W        W38003   6.783  13.757   8.583 -0.0562 -0.2253  0.1113
19257W        W38004   0.606  33.645  19.625  0.1633 -0.0451 -0.0092
19258W        W38005   5.295   5.094   2.204  0.3108  0.0619  0.2155
19259W        W38006  18.038  19.851   9.960  0.1053  0.3240 -0.2345
19260W        W38007  15.763  14.510   0.012  0.4637  0.1069 -0.1128
19261W        W38008  32.645  15.703   9.077 -0.1257  0.1699 -0.1388
19262W        W38009  13.886  28.391   8.094 -0.0907 -0.0517 -0.2726
19263W        W38010   4.398   6.065   2.223 -0.1055  0.0352  0.0176
19264W        W38011  28.195   0.972  17.458 -0.0056  0.0899  0.0120
19265W        W38012   9.166  34.696   9.920  0.1016  0.0414 -0.0323
19266W        W38013   7.320  17.455  22.363  0.1201 -0.1676 -0.0930
19267W        W38014   8.760  22.277  23.622 -0.1723  0.1184 -0.1176
19268W        W38015   1.759  28.368  19.683  0.1915  0.1522 -0.1488
19269W        W38016  16.023   1.873  20.476  0.0999 -0.1879 -0.1263
19270W        W38017   6.898  28.923   7.963  0.2836 -0.3153  0.1283
19271W        W38018  34.306  23.241  14.770  0.2215 -0.0688 -0.1360
19272W        W38019   0.387  10.590  24.440 -0.1083  0.1082  0.1478
19273W        W38020  19.929   6.876   2.134  0.2098  0.1547  0.2635
19274W        W38021   0.117   9.824   3.612 -0.1560  0.4208 -0.0240
19275W        W38022  34.582   2.735  19.556  0.1546 -0.1233  0.1971
19276W        W38023   6.131  31.523   0.533  0.0240  0.1830 -0.3382
19277W        W38024  15.236   0.264   4.002 -0.0349 -0.1680  0.0030
19278W        W38025  14.826   5.909  12.801  0.0797 -0.1502  0.2782
19279W        W38026  26.882  14.768  13.344  0.0176 -0.0544 -0.2626
19280W        W38027  13.819   4.354  19.874  0.0560  0.0082 -0.2230
19281W        W38028  26.560  19.542  16.068  0.2949 -0.1884 -0.1319
19282W        W38029  10.297  20.506   4.622  0.1834 -0.0400  0.1115
19283W        W38030  26.163  12.667  16.644 -0.3926  0.0566  0.2298
19284W        W38031  32.941  30.689   6.182  0.0220 -0.1549 -0.1065
19285W        W38032  28.362  11.970  19.410 -0.1554  0.2798  0.1315
19286W        W38033  15.155  24.307  16.811  0.0681 -0.1036  0.3309
19287W        W38034   6.273  18.917  24.701  0.0972  0.6602 -0.0991
19288W        W38035   8.704  22.348  24.660  0.2617 -0.0174 -0.0818
19289W        W38036  18.085  22.138   8.976  0.0751  0.0515 -0.0959
19290W        W38037   5.261   1.255  25.009  0.0575 -0.2286  0.0811
19291W        W38038  18.283   4.622   5.118  0.0739 -0.0135  0.1244
19292W        W38039   6.724  12.909   2.709  0.2232 -0.0069  0.0584
19293W        W38040  28.964  34.828  25.752 -0.1397  0.1435  0.2965
19294W        W38041  15.863  20.593   3.684  0.1970  0.1236 -0.0120
19295W        W38042  15.766  19.914   5.034  0.1974 -0.0838 -0.2211
19296W        W38043  32.086  17.607   9.372  0.0021 -0.3874  0.1357
19297W        W38044  17.565  12.489  22.077 -0.0131 -0.0251  0.2426
19298W        W38045  27.173  33.553   4.346  0.2124  0.0820  0.0579
19299W        W38046   4.411  28.264  23.177  0.3817 -0.2100  0.0094
19300W        W38047  14.283  22.961   0.402  0.1250 -0.3076  0.5137
19301W        W38048  35.361  23.951  17.023 -0.0661 -0.2921  0.1191
19302W        W38049   5.192  11.837  24.978  0.2521  0.0524 -0.1823
19303W        W38050  24.712  30.719  12.958  0.0095 -0.0047  0.1409
19304W        W38051  31.637  14.933  19.950  0.1140 -0.0428 -0.0232
19305W        W38052  31.975  22.183  21.210 -0.1039 -0.1736 -0.0549
19306W        W38053  13.695  25.904   7.205 -0.0368  0.0772 -0.0327
19307W        W38054  16.038   1.644  24.959  0.2288  0.2251  0.3699
19308W        W38055  10.380   0.519  24.189  0.3643 -0.1967  0.2793
19309W        W38056  14.397  23.339  16.071  0.3904  0.0967 -0.1240
19310W        W38057   9.134  11.283   1.378  0.1477  0.1818 -0.4423
19311W        W38058   8.087  11.679   6.310 -0.0007 -0.0997  0.2236
19312W        W38059  17.654  25.807   5.410  0.1321 -0.0322  0.0737
19313W        W38060   2.641   3.826   2.784  0.5969 -0.0256 -0.0523
19314W        W38061  21.229  27.624  18.502  0.0168  0.1286  0.0423
19315W        W38062   9.607   2.768   6.013  0.1981  0.3445 -0.0539
19316W        W38063  22.735  34.680  13.495  0.2070 -0.1942  0.0494
19317W        W38064  19.999   6.736   7.825  0.2355 -0.1103 -0.1074
19318W        W38065  16.627   8.870  24.451 -0.2434  0.5566  0.1092
19319W        W38066  15.314  24.396  10.555 -0.0307 -0.1253  0.1267
19320W        W38067   2.371   9.255  24.770  0.2155  0.3905  0.1050
19321W        W38068  16.099   2.856  18.977 -0.0112 -0.0314  0.3776
19322W        W38069  22.012  26.636   3.944  0.6001 -0.2285 -0.1765
19323W        W38070   5.403   9.054  23.476 -0.0636 -0.1861 -0.2319
19324W        W38071  33.881  19.592  23.186 -0.0451  0.2232 -0.2089
19325W        W38072  14.473  28.266  10.678 -0.0010  0.1062 -0.1590
19326W        W38073  30.323  11.749  11.870  0.1432 -0.0276 -0.3583
19327W        W38074  21.324  25.673  24.618  0.1505 -0.2124 -0.0483
19328W        W38075   6.359  28.430  13.285  0.3191 -0.1708 -0.0326
19329W        W38076  26.969   0.481   1.453 -0.1656  0.0454  0.0248
19330W        W38077  12.945  21.397  23.024  0.1572  0.2997  0.0592
19331W        W38078  10.397   9.767  25.907  0.2182  0.1083 -0.1140
19332W        W38079  28.969  20.491  13.267 -0.1272 -0.2223 -0.0319
19333W        W38080  17.165  32.454  20.072  0.1135  0.1121 -0.1526
19334W        W38081   8.126  13.779   6.585 -0.0807  0.1796  0.0564
19335W        W38082  12.678  25.806  14.915 -0.1347  0.0615 -0.3279
19336W        W38083  26.314  31.940   1.372 -0.0244  0.0041  0.0565
19337W        W38084   1.001  12.244  14.332  0.2866 -0.1624 -0.0624
19338W        W38085  29.846   5.002  25.878 -0.0794 -0.1750  0.1605
19339W        W38086  25.624  18.334  17.463 -0.3047 -0.0634 -0.0787
19340W        W38087  12.751  28.191   4.526  0.1551 -0.1498 -0.0503
19341W        W38088   6.325  29.620  11.336 -0.0471  0.1160  0.3147
19342W        W38089  18.396  20.218   6.382  0.2594 -0.5183 -0.1774
19343W        W38090  23.733  34.311  17.097 -0.3337 -0.1265  0.0423
19344W        W38091  26.958  30.747   3.603 -0.3682  0.0509 -0.0856
19345W        W38092   4.458  17.689  25.285  0.5025 -0.2018 -0.0506
19346W        W38093   3.686  12.662   2.185  0.2195  0.0215 -0.0520
19347W        W38094   8.095  15.074  22.311  0.2054 -0.1919 -0.1649
19348W        W38095  31.439  20.805   6.337  0.2770  0.0643 -0.0721
19349W        W38096  18.116   9.222  25.712 -0.0095 -0.0757 -0.0968
19350W        W38097  15.175   6.619  20.969  0.0426  0.0737  0.0128
19351W        W38098  25.547  19.614  21.163 -0.0412  0.0540  0.1734
19352W        W38099  11.550   2.084   1.339 -0.1036  0.3370 -0.2300
19353W        W38100   6.285  23.808   8.471 -0.2229 -0.1812  0.5040
19354W        W38101  27.484   5.348   1.027 -0.2017  0.1409 -0.1014
19355W        W38102   8.148  34.221   8.025 -0.0924  0.4912  0.4390
19356W        W38103  19.830   7.946  11.862  0.0223 -0.3306  0.0891
19357W        W38104  32.452  28.667  15.766  0.0700  0.2188  0.0454
19358W        W38105  23.981  11.771  13.864 -0.2149 -0.0919 -0.0073
19359W        W38106  23.038  24.661   1.386 -0.1110  0.1854 -0.0900
19360W        W38107  26.400   7.041  25.095  0.1198 -0.0138 -0.0234
19361W        W38108   0.976  12.512   1.981  0.1821 -0.0953  0.2345
19362W        W38109  29.396  26.211  10.773 -0.1400  0.3043  0.0808
19363W        W38110   4.186  27.180  24.282 -0.2715 -0.3940 -0.2227
19364W        W38111   8.689   7.522  22.256  0.2337 -0.1516 -0.1369
19365W        W38112  15.515  14.286  20.361 -0.0170  0.0495 -0.2352
19366W        W38113  16.771  32.677   7.912  0.1709 -0.1453  0.6032
19367W        W38114  23.577   1.973  17.427  0.0530 -0.1875  0.0329
19368W        W38115   7.485   8.685   6.462  0.1721  0.1142  0.1084
19369W        W38116  19.245   8.301   9.531 -0.0194 -0.0476 -0.1545
19370W        W38117  12.061   1.127  21.975  0.1879 -0.0609  0.2617
19371W        W38118  16.144   3.895  21.327 -0.1285 -0.0539  0.0229
19372W        W38119  14.359  20.067  24.944  0.1391  0.1117  0.2401
19373W        W38120  26.509   8.297  25.086  0.1367  0.0238 -0.0906
19374W        W38121   3.810  34.432   3.998  0.2772 -0.1870  0.0095
19375W        W38122  23.733   5.862   3.729 -0.0161  0.3548  0.3191
19376W        W38123  24.938   8.246  25.013 -0.2482 -0.0838  0.1476
19377W        W38124   3.425  11.805  20.679  0.4442 -0.2018 -0.0669
19378W        W38125   3.811  21.020   1.049  0.0230 -0.1405 -0.0629
19379W        W38126  32.960  18.843  24.156  0.1258  0.0227 -0.1502
19380W        W38127  28.227   0.580  13.093 -0.0301  0.1020  0.3115
19381W        W38128  15.053  21.146   4.293  0.1145  0.1604 -0.2048
19382W        W38129   0.008   1.143   8.387  0.2965 -0.2146  0.0845
19383W        W38130  10.241   9.421  21.889  0.0980 -0.0116 -0.0582
19384W        W38131   9.947   0.242  22.631 -0.2254  0.1007  0.0437
19385W        W38132  12.733  14.114  13.926  0.0162  0.2317  0.1285
19386W        W38133   9.648  17.877   7.353  0.2541  0.0650 -0.0679
19387W        W38134  29.988  33.104  21.245 -0.1344  0.1293  0.1591
19388W        W38135  24.711  13.798   0.488 -0.0149 -0.1564  0.3548
19389W        W38136  27.067  33.916   3.515  0.0522  0.0655  0.1102
19390W        W38137   8.602  14.444  11.536  0.0965  0.2641  0.2234
19391W        W38138   3.306  23.110  20.448  0.0336  0.2926  0.3966
19392W        W38139   8.896  25.898  16.986  0.1429 -0.2832  0.1655
19393W        W38140  27.412  29.913  26.048 -0.1053 -0.0746  0.0483
19394W        W38141   5.621   0.407  19.058  0.0680  0.4295  0.1265
19395W        W38142  32.553  11.509  12.131 -0.0593 -0.3546  0.0877
19396W        W38143  18.235   5.348  24.256 -0.1899 -0.0566 -0.2041
19397W        W38144  16.392  19.376  12.577  0.2112  0.0786 -0.4979
19398W        W38145  33.339   9.317   0.157 -0.0365 -0.4974 -0.0076
19399W        W38146  24.292  34.820  12.379 -0.0373  0.1661  0.3527
19400W        W38147  17.843  19.839   8.638 -0.2359  0.2163 -0.2166
19401W        W38148  14.174  33.951   2.313  0.3809 -0.2798 -0.1518
19402W        W38149  20.690  12.651  20.997  0.0601 -0.2724  0.1738
19403W        W38150  33.639   2.495  20.986 -0.1216 -0.0073 -0.0236
19404W        W38151  20.089  21.704   0.751 -0.2466  0.0632 -0.2473
19405W        W38152  24.815  29.348  15.566  0.2183  0.0087  0.1640
19406W        W38153   4.116   6.445   8.189  0.0863  0.0269 -0.3417
19407W        W38154  16.868   3.834   6.954 -0.4291  0.0405  0.2772
19408W        W38155  12.136   4.942   3.409 -0.2463 -0.3002 -0.1140
19409W        W38156  34.510  25.692  14.904 -0.5452 -0.2984 -0.3351
19410W        W38157  11.445  29.921  22.639  0.0841 -0.0005 -0.0295
19411W        W38158  11.119   4.450  19.856  0.0041  0.2509 -0.0432
19412W        W38159  34.219  23.381  16.765  0.2096  0.2221 -0.1438
19413W        W38160  25.936  17.025  16.822  0.2103 -0.1505 -0.4063
19414W        W38161  21.538   9.887  23.403 -0.1281  0.0568 -0.2250
19415W        W38162  28.955   5.506   0.117  0.1064  0.2773 -0.0706
19416W        W38163  11.246  14.195  22.404 -0.0423  0.0098  0.0631
19417W        W38164  29.169  30.900  24.561 -0.0043  0.0977  0.1769
19418W        W38165  15.608  18.613   3.537  0.2192 -0.1515  0.1464
19419W        W38166  21.822  32.809  18.292  0.5301 -0.0181 -0.3412
19420W        W38167  28.658  22.710  10.603  0.2738 -0.1012 -0.0826
19421W        W38168   7.682   1.696   4.637 -0.0420  0.0787  0.0174
19422W        W38169  11.450  35.151  19.904 -0.0656 -0.2275 -0.4261
19423W        W38170  16.301  24.105  22.730  0.1665  0.1970  0.3362
19424W        W38171  27.407  15.687  15.563  0.0774  0.0139 -0.0848
19425W        W38172   6.109  30.878  23.183  0.0821  0.0885 -0.3270
19426W        W38173  24.881  13.666  15.385 -0.3109  0.0081  0.1102
19427W        W38174   6.658  30.972   6.046  0.1483  0.2496 -0.0568
19428W        W38175   0.935  10.167   3.296  0.1440 -0.4658 -0.2926
19429W        W38176  33.932   2.951  15.322  0.0088 -0.3284 -0.0109
19430W        W38177  28.037  18.577  15.313 -0.3238  0.1094  0.0660
19431W        W38178  26.512   9.762   9.007 -0.1816 -0.0711  0.0427
19432W        W38179   5.069   7.007   5.812  0.0457  0.0748  0.0071
19433W        W38180  11.190  23.028  11.663 -0.4556 -0.0685 -0.0897
19434W        W38181  22.745  11.437  18.766 -0.2092 -0.0443 -0.0924
19435W        W38182  13.536  25.857  10.218  0.0748  0.1136 -0.1202
19436W        W38183  27.300  35.054  17.739  0.5702  0.2218 -0.0172
19437W        W38184  22.355   0.544  16.002  0.2495  0.2658  0.0571
19438W        W38185  23.180   3.426  20.603 -0.0581  0.1439 -0.1097
19439W        W38186  14.427   0.109  22.651  0.1812 -0.0839 -0.2948
19440W        W38187  18.801  29.323   3.016  0.0597  0.1170  0.0394
19441W        W38188  28.558  25.457   8.567  0.2947  0.0033  0.0253
19442W        W38189  21.376  23.609  25.120 -0.2159 -0.3960 -0.2265
19443W        W38190   0.506  31.465  22.589  0.1809  0.2112 -0.0752
19444W        W38191  13.442  12.319   2.395  0.0251  0.2048  0.2409
19445W        W38192   1.431  17.182  20.176  0.2356 -0.1229  0.0478
19446W        W38193  17.866  22.205  20.436 -0.0754 -0.0537 -0.1014
19447W        W38194  20.152  10.203   2.961 -0.1247 -0.0186 -0.0160
19448W        W38195   6.869   5.279  13.085 -0.1990  0.2467  0.1796
19449W        W38196  24.570  35.177   5.745  0.1575  0.2518  0.3543
19450W        W38197  13.087  24.905  12.365  0.0565 -0.3343 -0.0675
19451W        W38198  14.968  12.905  21.947 -0.1364  0.2925  0.2711
19452W        W38199  10.334   8.225   9.208  0.2709  0.0268 -0.4044
19453W        W38200  17.344  30.408  22.310 -0.1546 -0.2053  0.0453
19454W        W38201  10.376   6.664   8.477 -0.1891  0.1301  0.0776
19455W        W38202  30.655  33.619  17.574 -0.1259  0.0191  0.1429
19456W        W38203   8.073  21.567   8.108 -0.0644 -0.1662 -0.0475
19457W        W38204  19.830  34.552   3.927 -0.1538  0.2685  0.2323
19458W        W38205   0.433  12.152  10.225  0.0884 -0.1407 -0.0611
19459W        W38206  22.343  14.805  18.429 -0.2295  0.1566 -0.1543
19460W        W38207  26.579  22.020  10.391 -0.2508 -0.0340  0.0815
19461W        W38208  24.271  24.914  23.360  0.2909  0.3121 -0.2680
19462W        W38209  12.732  10.084  23.734  0.1869  0.2829  0.2193
19463W        W38210   6.326   0.431   0.832  0.1251 -0.0643 -0.0608
19464W        W38211   4.572  22.255   2.868  0.0500 -0.1420  0.1843
19465W        W38212  27.983  14.992  23.874  0.0835  0.1123  0.4149
19466W        W38213  26.151   1.249  20.027 -0.0820 -0.0395 -0.0613
19467W        W38214  33.497   6.952  23.435 -0.0074 -0.3453  0.1250
19468W        W38215  23.052   9.486   0.755 -0.0557 -0.0733 -0.0905
19469W        W38216   6.886  14.594  21.560 -0.3118 -0.0773  0.1206
19470W        W38217   8.310  24.476   2.068 -0.1919  0.0429  0.0057
19471W        W38218  30.367  15.587   8.167  0.2412 -0.4968  0.2152
19472W        W38219  14.735  11.908   4.066  0.1229 -0.0057 -0.3128
19473W        W38220   3.410  29.228  21.690  0.3608  0.2550  0.0188
19474W        W38221  15.062   1.646  22.419 -0.0111  0.0066  0.0172
19475W        W38222  30.148  33.712  10.883 -0.1042 -0.2243 -0.0782
19476W        W38223  17.326  11.025   9.978  0.1918 -0.2221  0.2902
19477W        W38224  25.129  30.501  18.556  0.1625  0.2342  0.1209
19478W        W38225   4.909   4.587   3.901  0.0261 -0.0488  0.0167
19479W        W38226  14.822   6.755   2.110 -0.1724  0.2921  0.0871
19480W        W38227  35.269  26.367   4.612 -0.1870  0.3194 -0.2160
19481W        W38228  31.027   5.324  24.427 -0.0931 -0.0121  0.2163
19482W        W38229  20.203  13.211  17.496  0.0416  0.2818  0.3347
19483W        W38230   4.744  25.733   3.031 -0.0063  0.0964  0.2357
19484W        W38231  25.094  30.794  23.255 -0.0002  0.1989  0.1832
19485W        W38232  33.024   9.199  21.413 -0.1720  0.0556  0.2943
19486W        W38233  20.881  13.729  25.876 -0.4025  0.2433  0.0668
19487W        W38234  11.717   4.865  20.500 -0.2230  0.0863  0.0446
19488W        W38235  15.291   9.949  21.816 -0.0342 -0.0693  0.0960
19489W        W38236   2.019  32.903  10.813 -0.2661 -0.1198  0.0381
19490W        W38237  18.891  19.642   5.865  0.0674 -0.4122  0.2314
19491W        W38238   4.223   1.501  22.651  0.2753 -0.0599 -0.1452
19492W        W38239   1.770  32.387   8.618  0.0513 -0.0092 -0.2910
19493W        W38240  24.447  21.705  13.728  0.0551 -0.1156  0.3854
19494W        W38241  21.778  12.228   3.063 -0.1373 -0.0989 -0.0840
19495W        W38242  16.568  27.747  11.569  0.3833 -0.0931 -0.2555
19496W        W38243  14.812  29.800   8.849 -0.1946 -0.0799  0.1468
19497W        W38244  16.999  13.641  23.298  0.1663 -0.2090 -0.0407
19498W        W38245  28.830  13.260   9.357 -0.2915 -0.2106 -0.0847
19499W        W38246  18.353  23.459  22.776  0.1721  0.1653  0.1097
19500W        W38247  13.596   5.271  19.604  0.0426 -0.0452  0.0706
19501W        W38248  18.827  14.400   7.299  0.0190 -0.3283  0.0242
19502W        W38249   2.357   7.456  23.886 -0.3820 -0.2078 -0.1919
19503W        W38250  30.404   2.542  26.018 -0.0190 -0.1296 -0.1845
19504W        W38251  17.840  25.580  19.874 -0.1972 -0.2672  0.1330
19505W        W38252  18.461  14.572  20.558  0.2641 -0.1059 -0.0385
19506W        W38253   7.561  21.390   0.824  0.4397  0.0976 -0.3182
19507W        W38254  20.009  31.741  21.729  0.2173  0.1845  0.3149
19508W        W38255   7.325  10.852   4.968  0.1389  0.1865  0.2273
19509W        W38256  18.221  14.883  18.661  0.3054  0.0577 -0.1341
19510W        W38257  27.079  21.369   6.590 -0.2880  0.0931  0.0136
19511W        W38258  19.841  18.631  25.627  0.0354  0.2678 -0.0024
19512W        W38259  12.516  13.572   4.411  0.2002  0.1692  0.2630
19513W        W38260  19.582  34.388   7.922  0.1240  0.1879 -0.0111
19514W        W38261   9.564  35.237   8.093 -0.3376 -0.0094 -0.1267
19515W        W38262  25.916  30.039   2.610 -0.0472 -0.1465 -0.2974
19516W        W38263  10.889   4.539   1.646  0.0053 -0.2869 -0.0527
19517W        W38264  27.394  22.726  11.718  0.2286  0.1103  0.4312
19518W        W38265   7.113  23.207   7.712 -0.0126 -0.0919  0.0411
19519W        W38266  14.366  29.196  12.249  0.3717 -0.0080  0.2784
19520W        W38267  11.071  26.111   2.554  0.1363  0.2803 -0.2273
19521W        W38268  16.552  25.010  11.436 -0.0826  0.3273 -0.0597
19522W        W38269  10.428  14.457  19.948 -0.1514 -0.2499 -0.1257
19523W        W38270   0.416   1.939   7.985 -0.1180 -0.1631  0.1624
19524W        W38271   2.633  12.779  23.857  0.2100 -0.0225  0.1832
19525W        W38272  29.396   3.732  16.145 -0.1999 -0.0532 -0.1387
19526W        W38273  20.945  20.759  25.220  0.1408 -0.0028  0.0262
19527W        W38274  22.020  13.046  26.140 -0.1373 -0.0031  0.1333
19528W        W38275   7.883  19.349  21.589  0.1123  0.0683 -0.0680
19529W        W38276  19.178  20.932  18.316  0.0829  0.0672 -0.0024
19530W        W38277  16.804  33.105   7.605  0.0963 -0.1586  0.0403
19531W        W38278   3.342  25.693   1.290 -0.1329  0.0999  0.0393
19532W        W38279  16.881  19.569   2.639 -0.0872  0.0157  0.0459
19533W        W38280  28.250  10.571  26.107 -0.1654  0.1544  0.0392
19534W        W38281  14.789   2.346  20.754 -0.6416 -0.0443 -0.3292
19535W        W38282  10.315  17.638  11.767  0.2283  0.3615  0.2404
19536W        W38283   1.157  21.783  14.439  0.0897  0.0765  0.1034
19537W        W38284   5.425  26.281   5.560  0.0339 -0.2403  0.0118
19538W        W38285  35.027  31.487   8.746 -0.1574  0.1512  0.0659
19539W        W38286  13.368  25.765  14.020 -0.1285 -0.0461  0.5199
19540W        W38287  25.657  25.998   0.061 -0.1379  0.0453 -0.0890
19541W        W38288   4.379   5.299  20.502  0.1747 -0.2532  0.4401
19542W        W38289  32.010  11.178  19.147 -0.0333  0.0496  0.1072
19543W        W38290  31.801  23.735  25.039 -0.0691 -0.4336  0.0690
19544W        W38291   2.962  11.809  20.517  0.2029  0.0560  0.1651
19545W        W38292  27.261  34.500   4.540  0.0652  0.3513 -0.0244
19546W        W38293   2.692   0.066  11.176 -0.1162  0.1228  0.1888
19547W        W38294   1.940   5.961   4.052 -0.0465  0.1171 -0.2287
19548W        W38295   6.241  18.621  22.928  0.1040 -0.0746  0.0576
19549W        W38296   7.916  28.510  25.112  0.1867  0.0899  0.1580
19550W        W38297   6.756  17.725  25.501  0.4243 -0.1093 -0.0291
19551W        W38298  25.592  18.316  19.865  0.1286  0.3036  0.2208
19552W        W38299  13.932   7.775  13.030  0.2566 -0.1309 -0.1423
19553W        W38300  21.083  29.225  21.270  0.1009 -0.4311  0.1736
19554W        W38301  16.616  12.902  20.359 -0.0488 -0.1201 -0.0224
19555W        W38302   8.846  15.055  19.268  0.1560  0.1964  0.1104
19556W        W38303  25.771   6.630  12.058  0.1686  0.3006  0.3687
19557W        W38304   6.845  22.264   9.299 -0.4293  0.0287 -0.1794
19558W        W38305  27.257  30.489  21.678  0.0174 -0.1683 -0.0284
19559W        W38306  27.227  28.279   3.163  0.3408 -0.2759 -0.3594
19560W        W38307  22.112  27.958  24.137 -0.0302 -0.2191 -0.1207
19561W        W38308  34.107  24.715  21.265 -0.0408 -0.1010 -0.2717
19562W        W38309  17.173  19.564  22.402 -0.1456  0.0636  0.1799
19563W        W38310  15.738  33.063  12.396 -0.0838 -0.1817  0.2361
19564W        W38311   3.965  21.635  21.689  0.1457  0.2357  0.1007
19565W        W38312  15.426  24.915   7.847  0.1312  0.0486  0.1507
19566W        W38313   1.849  23.964  19.882  0.0365  0.0871  0.0942
19567W        W38314  35.209   1.582  21.334  0.1679 -0.0595 -0.0943
19568W        W38315   5.191  26.403  23.884 -0.0675  0.0619 -0.0090
19569W        W38316  30.910  19.799   7.840 -0.0673  0.1817 -0.0583
19570W        W38317  16.912   7.806  20.349  0.1332 -0.5395 -0.1035
19571W        W38318   1.327  13.050  20.992  0.0324 -0.0619  0.0585
19572W        W38319  16.769  14.344   5.552  0.2570 -0.1971 -0.0423
19573W        W38320  24.591  33.158  20.420 -0.0903 -0.3045  0.2433
19574W        W38321   3.715  15.570   3.999  0.2360  0.1476  0.1872
19575W        W38322  16.607  33.002   1.050  0.0135 -0.0484 -0.0056
19576W        W38323  25.511  34.317   1.348 -0.1468  0.3293 -0.2520
19577W        W38324  11.952  15.706   5.246 -0.0079 -0.2398 -0.1838
19578W        W38325  24.034  22.345  17.125 -0.1887 -0.1801  0.1005
19579W        W38326  14.707  22.011  15.011 -0.2201  0.1100 -0.0601
19580W        W38327  33.003  23.001  13.500 -0.0452  0.1466  0.0116
19581W        W38328  12.424  32.456   3.038 -0.1244  0.0967 -0.1323
19582W        W38329  16.632  10.174  25.437  0.0285  0.0024  0.1006
19583W        W38330  33.302  27.575  13.932  0.3052  0.2227 -0.2540
19584W        W38331  34.612   8.058   4.815 -0.1763 -0.0357 -0.2210
19585W        W38332  29.985   5.909  14.299  0.0876 -0.0319  0.1305
19586W        W38333  30.985  18.715  12.649 -0.4623 -0.3446 -0.1350
19587W        W38334  17.529   9.129   7.008  0.2231 -0.0245  0.0654
19588W        W38335  10.989  17.200  10.174  0.0411 -0.2837  0.0170
19589W        W38336  14.968  35.097  21.093  0.1635 -0.0012 -0.1407
19590W        W38337   9.537   6.239   6.769  0.2365 -0.0201 -0.1618
19591W        W38338  12.031  13.567   6.560 -0.1291  0.1660 -0.0443
19592W        W38339  19.470  24.957   8.099  0.0485  0.1935  0.2626
19593W        W38340  28.712  10.355   9.246 -0.3799  0.1243 -0.0369
19594W        W38341  12.954  28.916  22.582  0.1974 -0.1014 -0.0106
19595W        W38342   6.394   2.308   3.611 -0.1628 -0.2850 -0.1429
19596W        W38343  10.705  20.272   2.007 -0.1669  0.2064 -0.3262
19597W        W38344  14.364  15.317  24.357  0.3123  0.0185 -0.0035
19598W        W38345  12.788  15.273  12.166 -0.0459  0.0225  0.2751
19599W        W38346  35.304  24.002   0.136 -0.1181  0.1244 -0.1185
19600W        W38347  12.559  11.346   8.644  0.0566  0.0844 -0.1463
19601W        W38348   3.790  23.766   1.441 -0.0312  0.0511  0.2473
19602W        W38349   2.507  14.357  15.393  0.0312 -0.1034  0.0285
19603W        W38350  14.703  29.295  10.717  0.1932 -0.0890  0.0757
19604W        W38351   2.836  14.099  21.439 -0.1985  0.1233  0.3622
19605W        W38352  23.608  16.420  17.234 -0.1351  0.0975 -0.3668
19606W        W38353  33.591  25.479  14.005  0.0626  0.3636 -0.1321
19607W        W38354  32.049   1.709   6.525  0.1134 -0.1911  0.2464
19608W        W38355  10.959  18.383  20.768  0.0017  0.1262  0.0365
19609W        W38356  23.357  29.364   4.696  0.0727 -0.2869  0.1267
19610W        W38357  34.649  14.654   8.387  0.0190 -0.2676 -0.0943
19611W        W38358  12.265  26.804   4.233 -0.0640  0.0601  0.0020
19612W        W38359   2.195   9.470  17.525 -0.1362  0.1928 -0.0539
19613W        W38360   4.024  15.102  24.911  0.1381 -0.2408 -0.0546
19614W        W38361  31.452  34.392  23.097 -0.0787 -0.0883 -0.2076
19615W        W38362  11.093   0.070   6.743  0.1019  0.2216  0.0657
19616W        W38363   5.653  24.538   2.660  0.2749  0.1456  0.2148
19617W        W38364  16.246  31.163  21.392 -0.1087 -0.4394 -0.2385
19618W        W38365  16.083   9.018  24.212 -0.2024  0.2824 -0.0607
19619W        W38366  24.276  34.807   1.637 -0.2010  0.1963 -0.1091
19620W        W38367  22.643  26.635  18.484 -0.2254 -0.0011 -0.4827
19621W        W38368  33.087   1.751  24.187 -0.2299  0.0321  0.2674
19622W        W38369   3.782  25.269   2.384  0.1131 -0.1065  0.0420
19623W        W38370  31.213  12.837   7.383  0.1796 -0.3337  0.0283
19624W        W38371   8.474  14.232  10.233  0.2411 -0.1860 -0.0257
19625W        W38372  24.390   7.022   2.695  0.1695 -0.0289  0.0485
19626W        W38373   4.500  26.977   8.408  0.0640 -0.0843 -0.0407
19627W        W38374  13.491   9.919  19.348 -0.1170 -0.1016  0.2715
19628W        W38375   8.815  25.032  13.247 -0.0036 -0.1475 -0.2231
19629W        W38376  16.109  22.523  24.935  0.4726  0.0377  0.2007
19630W        W38377  18.979   6.037   4.078  0.2056  0.2456 -0.3073
19631W        W38378  10.581  27.330   9.712 -0.0510 -0.3061 -0.2232
19632W        W38379  11.925   8.864   6.804  0.1260  0.0184 -0.3756
19633W        W38380  10.057  21.062  12.202 -0.2917 -0.2195 -0.0506
19634W        W38381  27.051  29.046  21.583 -0.1297  0.3475  0.3069
19635W        W38382  31.560  22.514  16.442 -0.1542  0.2912 -0.1712
19636W        W38383  31.266   2.034  15.337  0.0438  0.0138 -0.0670
19637W        W38384  20.863  30.189   2.468 -0.0142 -0.2291 -0.2669
19638W        W38385   9.402  17.453  24.968  0.1978  0.3518 -0.1995
19639W        W38386  29.690   9.927  23.012  0.0995 -0.2428  0.0915
19640W        W38387   2.077  26.928   4.100 -0.1427 -0.1841  0.0441
19641W        W38388  34.921  16.986   9.932  0.0282  0.0142 -0.1026
19642W        W38389  11.360   7.296  22.507 -0.0701 -0.2382  0.1917
19643W        W38390  27.194   3.044  20.694  0.4021 -0.1790 -0.1016
19644W        W38391  22.014  25.172   5.085  0.2405  0.2747 -0.5277
19645W        W38392  32.978   8.779  24.040 -0.2632 -0.1248  0.1201
19646W        W38393   4.791  22.207   5.980  0.0046 -0.1359 -0.2313
19647W        W38394  12.376   2.597   5.173 -0.0075 -0.1330  0.1952
19648W        W38395  28.046  16.257  21.245 -0.1043  0.1549  0.1717
19649W        W38396  10.597   5.904  22.676 -0.1767  0.1842  0.1303
19650W        W38397   5.937   2.431  12.506  0.2819  0.1689  0.0538
19651W        W38398  27.546  34.261  17.608 -0.0457 -0.0008  0.0773
19652W        W38399  14.742   8.496  11.162 -0.0972  0.2405 -0.2136
19653W        W38400   3.551  34.806   1.848 -0.2647 -0.2583 -0.2066
19654W        W38401  32.159   7.086  14.061  0.0156  0.0036  0.4231
19655W        W38402  19.080  24.950   9.367 -0.0852 -0.1670  0.1961
19656W        W38403   5.318  34.297   8.348 -0.1524  0.0184  0.0373
19657W        W38404   0.845  22.606   2.669  0.2273  0.0322 -0.0902
19658W        W38405   2.735  21.364  25.566  0.0854 -0.0578  0.0363
19659W        W38406  15.147   4.135  24.108  0.1401  0.0297 -0.2701
19660W        W38407  17.845  23.245   7.746 -0.1839  0.0147 -0.0249
19661W        W38408  18.277  31.725   6.892  0.0522 -0.2349  0.1430
19662W        W38409  29.907   8.327  25.004 -0.1178 -0.1674 -0.0619
19663W        W38410  14.223  27.568  24.800  0.2590 -0.2297  0.0297
19664W        W38411  13.143   4.139   6.817  0.2149  0.1958  0.2931
19665W        W38412   7.603  29.796   7.016  0.0361 -0.0182  0.0296
19666W        W38413  12.411   5.621   7.172 -0.0249  0.0139 -0.1040
19667W        W38414  31.011  21.719   5.402 -0.0879  0.1627 -0.0278
19668W        W38415  24.311  29.227  13.140  0.1689  0.3691  0.1792
19669W        W38416  31.234  29.244  16.123 -0.0930 -0.3692  0.0829
19670W        W38417   9.501   8.837  24.112  0.0007  0.4778 -0.0453
19671W        W38418  25.496  26.175  23.994 -0.1282 -0.0454  0.1466
19672W        W38419   6.370   7.838  10.846 -0.0643 -0.2953  0.1665
19673W        W38420  34.883  19.968   6.469  0.1717  0.1749  0.0270
19674W        W38421   4.141   1.054  17.580  0.0156  0.1419 -0.2978
19675W        W38422  18.462   8.767   7.318  0.0366  0.2870  0.2544
19676W        W38423  33.125  15.284   5.824 -0.0292  0.1339 -0.2168
19677W        W38424  28.412  21.668   5.885 -0.2587 -0.0813  0.3072
19678W        W38425  24.980   8.275  18.148 -0.2610  0.1407  0.2256
19679W        W38426  33.528  12.855  22.576  0.1154 -0.2201  0.0524
19680W        W38427  17.072  20.063   3.547  0.3098  0.2953  0.4292
19681W        W38428  18.788  32.457   7.170  0.0420 -0.1461 -0.2821
19682W        W38429   0.339  14.842  20.395  0.1068  0.0860 -0.2882
19683W        W38430  13.518   7.128  25.474 -0.2265 -0.2089  0.1179
19684W        W38431  18.726   2.574   6.261 -0.0198 -0.1406  0.1024
19685W        W38432  27.907  19.798  14.870 -0.1253  0.3144 -0.4053
19686W        W38433   9.485  22.029  13.631 -0.1380  0.0352 -0.0301
19687W        W38434  29.142  10.797  13.989  0.0372 -0.0598 -0.0748
19688W        W38435  25.348  25.791  13.449 -0.0050  0.0445 -0.1450
19689W        W38436  24.188  26.339  12.620  0.1258  0.0679 -0.1244
19690W        W38437  14.231  24.558   9.122 -0.0326  0.3455 -0.1379
19691W        W38438  19.057   1.715   4.230 -0.1006 -0.1899 -0.0845
19692W        W38439   6.484  30.164   0.544  0.0877  0.2979  0.0582
19693W        W38440  31.880   3.195  16.645 -0.0735 -0.2285 -0.1426
19694W        W38441  25.689  31.561   3.750 -0.0645  0.0248  0.1286
19695W        W38442  15.679   7.546  20.673  0.0105  0.2458  0.1410
19696W        W38443  18.770  24.199  24.758 -0.0978  0.1164  0.1078
19697W        W38444   1.625  28.759  17.596  0.1076 -0.1373  0.0126
19698W        W38445  30.554  28.982  18.601 -0.0976 -0.1109 -0.0650
19699W        W38446  17.122  14.788   6.674 -0.0270  0.4220 -0.1623
19700W        W38447   2.904  26.924   0.574  0.4562 -0.2026 -0.2373
19701W        W38448   8.572  33.782  26.042 -0.2272 -0.0962 -0.0377
19702W        W38449   6.224  29.054   6.927  0.1842 -0.1375  0.1256
19703W        W38450   5.050   9.667   2.195 -0.0808  0.0571  0.0084
19704W        W38451   6.702  20.111  19.950 -0.1004  0.1757 -0.2223
19705W        W38452  33.528   3.684  20.301 -0.1723 -0.1473 -0.0483
19706W        W38453  28.166  31.783  12.824  0.0034  0.1972  0.0947
19707W        W38454  12.442   6.374  25.620 -0.0562 -0.1240  0.2623
19708W        W38455  17.220  30.950  26.122  0.3153 -0.0703  0.0292
19709W        W38456   9.409  28.879   4.082  0.1530  0.2938  0.3641
19710W        W38457  20.483  24.977  25.646 -0.0328 -0.1537 -0.2131
19711W        W38458   2.903  34.517  18.853 -0.1276  0.0630  0.0304
19712W        W38459  32.725   4.858  22.834 -0.2716  0.0172 -0.0887
19713W        W38460   8.976  25.135  24.507 -0.0787 -0.2697 -0.0367
19714W        W38461  33.932  23.138  18.635  0.0284  0.2419  0.0590
19715W        W38462  18.441   4.210   5.472  0.0480 -0.2155  0.1659
19716W        W38463  15.266  31.313   7.491 -0.2048  0.0352  0.2535
19717W        W38464  17.956   5.353   0.448 -0.1351  0.0422  0.0227
19718W        W38465   3.036   5.840   1.384 -0.1219  0.0121  0.0741
19719W        W38466  31.126  22.239   8.648 -0.0730  0.3637 -0.0958
19720W        W38467  34.762  15.599  23.623  0.1169 -0.1867  0.0774
19721W        W38468   8.551  32.969  23.353 -0.2821  0.2623 -0.1346
19722W        W38469  30.737  26.466  22.503 -0.0827 -0.1615  0.0141
19723W        W38470  13.092  12.191   7.539  0.4202  0.1229 -0.1875
19724W        W38471  31.179  29.948  23.378  0.0552  0.1208  0.2849
19725W        W38472  32.705  28.956  13.392 -0.0643 -0.0445  0.4649
19726W        W38473  35.342   0.597   8.319 -0.2531 -0.4397  0.0570
19727W        W38474  18.410   1.331  21.112  0.2720  0.0007  0.0584
19728W        W38475  19.863  10.723   4.911 -0.0474  0.0054 -0.2494
19729W        W38476  28.142   5.842   9.845 -0.2466  0.1294  0.3653
19730W        W38477   0.959  30.765  17.770  0.1718 -0.3028  0.2316
19731W        W38478   5.687  33.236  23.412  0.0732  0.0558  0.0856
19732W        W38479  23.022  14.039  21.623 -0.3818 -0.1919  0.2283
19733W        W38480  16.310  33.332   1.316 -0.1795  0.1039 -0.0578
19734W        W38481  14.466   2.961   4.221  0.1766 -0.0470 -0.0055
19735W        W38482   4.197  13.031  19.163  0.0937 -0.1730 -0.0022
19736W        W38483  10.904  10.418  25.893 -0.0768  0.0026 -0.2535
19737W        W38484  26.884  18.789  18.259 -0.0692  0.1016  0.0281
19738W        W38485  29.294  29.836   3.964 -0.0146  0.0610  0.2158
19739W        W38486  34.437  14.705   9.134 -0.0919  0.1996 -0.1330
19740W        W38487   5.045  32.641   8.513 -0.1470  0.0357 -0.0035
19741W        W38488  14.173  21.144   8.790  0.0511 -0.1474 -0.2460
19742W        W38489  20.945  32.560   0.815  0.1364 -0.0145  0.2009
19743W        W38490   6.707   4.964   8.200 -0.0891  0.0217  0.0783
19744W        W38491  23.595   8.180  25.834  0.2480  0.0056  0.3280
19745W        W38492  35.297  10.530   2.154  0.1811 -0.0069  0.2534
19746W        W38493  12.175  20.766   6.892 -0.0559 -0.1350 -0.0733
19747W        W38494   9.536   2.244  23.030  0.1030  0.1004 -0.1776
19748W        W38495  16.330   0.549   7.075  0.0176  0.0771 -0.2142
19749W        W38496  15.666   6.100  19.185 -0.0501 -0.1237 -0.0599
19750W        W38497  32.484  27.044  15.627 -0.1844 -0.1047  0.1779
19751W        W38498   4.095   4.624   7.927  0.1491  0.0595  0.2498
19752W        W38499  30.383  29.230  17.414 -0.2060 -0.0523 -0.2017
19753W        W38500   3.253  16.276  22.557 -0.2310 -0.0433  0.2117
19754W        W38501  25.598  31.350   1.453  0.1688  0.2091  0.1555
19755W        W38502  34.145   2.918   2.422  0.3319  0.2421 -0.1575
19756W        W38503  31.722  20.609  21.962  0.0248 -0.0503  0.0394
19757W        W38504  26.860  10.786  15.685 -0.1651  0.2237  0.1026
19758W        W38505  10.101  29.295  24.575 -0.0698  0.0229  0.2134
19759W        W38506   5.553  30.869  22.149 -0.2579 -0.2506 -0.2070
19760W        W38507  18.097   0.691   7.531 -0.0131 -0.2253  0.3654
19761W        W38508  12.562  19.820   3.919 -0.2863 -0.3156  0.4388
19762W        W38509  18.882  21.431   5.125  0.1078  0.2788  0.1076
19763W        W38510   2.255  21.494   3.451 -0.1912  0.1056 -0.1591
19764W        W38511  23.478  30.418  15.401 -0.0917  0.0946 -0.1043
19765W        W38512   0.279  24.921   0.541  0.2469  0.1715  0.2646
19766W        W38513   2.968  11.941   0.393 -0.1012  0.0275  0.2413
19767W        W38514  32.658  19.898  11.055 -0.0211 -0.0028 -0.1631
19768W        W38515  34.094   2.399  16.537 -0.3085 -0.0248 -0.1144
19769W        W38516  22.117  31.169  13.196  0.0722 -0.1168  0.2049
19770W        W38517  28.726  12.206   6.570  0.1546  0.0644  0.2706
19771W        W38518  17.569   8.918  20.967 -0.2454 -0.3558 -0.0668
19772W        W38519  16.958  11.404   2.748  0.3389 -0.1883 -0.1715
19773W        W38520  12.575  28.368   0.973 -0.1393  0.0360 -0.0159
19774W        W38521  24.004  27.659   2.043 -0.3567  0.0679 -0.0725
19775W        W38522  27.165  13.995  25.257  0.3242 -0.2768  0.0533
19776W        W38523  13.288  29.310  16.072 -0.1285 -0.2253  0.4918
19777W        W38524  28.224   3.389   4.072  0.2243 -0.4409  0.0656
19778W        W38525   3.220   6.239   4.038 -0.0509 -0.0439  0.0207
19779W        W38526   1.645   3.236  23.218 -0.1823  0.0319 -0.0211
19780W        W38527  12.303   9.322  19.297  0.2425 -0.0439  0.0672
19781W        W38528  11.503  16.577   8.121  0.1387  0.1663  0.0631
19782W        W38529  32.833  15.093  15.896  0.1590 -0.1802 -0.0138
19783W        W38530  29.789   5.044   3.618  0.0062  0.0147  0.3033
19784W        W38531  27.841  23.816  10.457 -0.0137 -0.0927  0.2954
19785W        W38532   9.431  30.467   6.980  0.1773 -0.0846  0.0822
19786W        W38533  33.705  14.750  14.191  0.1988 -0.0459  0.0443
19787W        W38534  28.459  30.485  14.689 -0.0431 -0.1627  0.1825
19788W        W38535  33.584  17.521  18.457  0.0789 -0.1073  0.0126
19789W        W38536  26.849  13.994  13.255  0.0464 -0.5009 -0.2265
19790W        W38537  21.209   5.264   5.303  0.0813  0.2206 -0.1630
19791W        W38538  24.959  34.991  18.267  0.0077  0.1734  0.0299
19792W        W38539  15.282  19.558   7.365 -0.0832 -0.0438 -0.0101
19793W        W38540  26.151   8.837  16.822 -0.2236 -0.0176  0.2884
19794W        W38541  16.711   9.932   5.998 -0.1967  0.5103  0.1479
19795W        W38542  12.628   2.023   8.279 -0.0243  0.2586  0.1994
19796W        W38543  23.346  34.016  24.115  0.4454 -0.1888  0.0773
19797W        W38544  13.990   7.376  20.087  0.0982 -0.0160  0.1192
19798W        W38545  28.738  29.804  23.432  0.0061  0.0433 -0.0055
19799W        W38546   8.428   5.421   6.178  0.1900 -0.0200 -0.2575
19800W        W38547  13.929  11.380   2.555 -0.2348 -0.1738  0.5196
19801W        W38548   2.759  31.719   3.523 -0.2247  0.3979  0.0517
19802W        W38549  24.022  25.906  13.131 -0.0888  0.4289 -0.1016
19803W        W38550   8.716  32.690  15.124 -0.2837  0.0309 -0.0592
19804W        W38551  31.741  31.314  17.889  0.1493 -0.1081 -0.1168
19805W        W38552  16.064   3.923  19.413 -0.1787 -0.0259  0.0111
19806W        W38553  31.866   3.607  14.682  0.0518  0.2777 -0.1639
19807W        W38554  34.912  30.503  24.757  0.0113  0.1064  0.2078
19808W        W38555  16.166  25.285  26.067 -0.1447 -0.2056 -0.0291
19809W        W38556   2.455  12.174  19.269  0.1250 -0.3488 -0.0853
19810W        W38557  24.833  21.224  11.911 -0.0571 -0.0837  0.1725
19811W        W38558  12.355   3.624  19.097  0.1802  0.1657  0.4145
19812W        W38559  31.829   2.652   0.242  0.0459 -0.2718 -0.1473
19813W        W38560   8.443   7.077   6.467  0.1585 -0.2250  0.1473
19814W        W38561   7.177   0.549  22.261  0.0643 -0.1685 -0.1189
19815W        W38562  18.799  15.856   9.772  0.0199 -0.2054 -0.0473
19816W        W38563   9.151   5.932   2.562 -0.1732 -0.0291  0.0680
19817W        W38564  17.702  30.336   9.706  0.0660  0.0390 -0.0936
19818W        W38565  33.459  23.523   1.366  0.1200 -0.0798  0.1923
19819W        W38566  27.517  23.580  15.733 -0.0803  0.0809  0.0426
19820W        W38567  16.615  15.727  19.696  0.2960  0.0510 -0.1480
19821W        W38568  25.958  32.119   3.640 -0.2081  0.0824 -0.0232
19822W        W38569  34.196  15.653  13.725 -0.0319  0.1962  0.1670
19823W        W38570  30.665  31.447   4.251  0.3219  0.5051 -0.1824
19824W        W38571  34.895  11.335  23.461  0.1346  0.0224  0.1868
19825W        W38572   5.938   9.067   0.467  0.0756  0.0636 -0.0811
19826W        W38573  32.276  11.347  25.219  0.1471 -0.0241 -0.1037
19827W        W38574  29.133  22.175  25.360  0.5053 -0.0352 -0.0337
19828W        W38575   1.006  28.691   5.437  0.3194 -0.0516  0.0216
19829W        W38576  22.867  14.669  22.915  0.2898  0.3018 -0.0188
19830W        W38577   6.345  26.771   3.286  0.0809 -0.0301  0.0343
19831W        W38578  14.199  26.712   3.061 -0.1422 -0.1661 -0.0225
19832W        W38579   0.693  18.792  18.506  0.2340 -0.2238  0.1939
19833W        W38580  27.298  22.959  14.751  0.0361 -0.0877  0.2446
19834W        W38581  30.051  25.802  19.306  0.1723 -0.2130 -0.3587
19835W        W38582  32.198  31.105  22.719  0.1578  0.2291  0.0361
19836W        W38583  21.790  12.302  23.178  0.0052  0.1150 -0.1555
19837W        W38584  30.355  18.173  24.993  0.0173  0.3557 -0.1876
19838W        W38585  19.579   7.778   5.977  0.1007  0.0992 -0.3452
19839W        W38586   3.447  10.215  20.422  0.0686  0.2492  0.0806
19840W        W38587   9.483  14.168  13.007 -0.0062  0.0271  0.0449
19841W        W38588  21.710  10.470   0.338 -0.0823  0.0391 -0.0430
19842W        W38589  33.940  10.699  24.161  0.0073 -0.1023 -0.1393
19843W        W38590  33.519  34.546  23.881 -0.0311  0.1606 -0.0467
19844W        W38591  25.362   3.417  19.376  0.4471 -0.2816  0.2136
19845W        W38592  20.849   8.854  25.521 -0.4161  0.1778  0.2971
19846W        W38593  16.870  13.493  26.137  0.4955 -0.1390 -0.0727
19847W        W38594   6.456   6.493  20.360  0.1328 -0.2307 -0.0337
19848W        W38595   8.597   3.611   8.272  0.0766  0.0246 -0.1235
19849W        W38596  11.865  31.349  11.461  0.0304 -0.0287 -0.1119
19850W        W38597  12.837   1.960  20.828 -0.0610 -0.0828  0.0141
19851W        W38598  16.800   3.387   9.083 -0.1388  0.0151  0.1806
19852W        W38599   4.790   7.582   5.065  0.0809 -0.1517  0.2069
19853W        W38600  18.279  35.245  16.229  0.2057  0.4275 -0.0025
19854W        W38601  19.131   7.315  12.281  0.2931  0.0950  0.0964
19855W        W38602   3.063  32.575  12.493  0.0787  0.2136  0.0595
19856W        W38603  15.937  14.139   6.847  0.0887  0.1115  0.1952
19857W        W38604  14.734  22.875  15.961  0.2430  0.2663 -0.3337
19858W        W38605   3.672   7.578   4.162 -0.1239 -0.2760 -0.1051
19859W        W38606  11.462   7.185  14.342  0.0205  0.3148  0.2612
19860W        W38607  30.236  15.785  13.921 -0.2328 -0.1480 -0.0895
19861W        W38608  27.659  34.403  17.052 -0.1281  0.2683 -0.1665
19862W        W38609  14.453  11.214  13.911  0.0039 -0.1129  0.1524
19863W        W38610  11.987  14.271  11.574  0.0166  0.1032 -0.0296
19864W        W38611   3.849   2.147   3.925 -0.1914  0.0508 -0.2575
19865W        W38612  33.683  20.241   1.024 -0.2383 -0.3524 -0.0150
19866W        W38613  17.256  24.917   4.246 -0.3492 -0.1384  0.0120
19867W        W38614   5.744  19.649   1.053 -0.1403  0.0170  0.4787
19868W        W38615  13.980  33.018  12.264  0.0966 -0.4033  0.0032
19869W        W38616   7.785  29.830  26.083  0.0476 -0.1513 -0.1705
19870W        W38617   7.116   7.545  23.267 -0.2406  0.0112  0.2130
19871W        W38618  26.355   0.824  19.113  0.1269  0.2371 -0.1629
19872W        W38619   3.503  12.373  23.523  0.1851  0.1191 -0.0662
19873W        W38620  33.286  34.591   5.586  0.0495 -0.1017 -0.1619
19874W        W38621  12.981  22.943  22.413 -0.1987  0.2015  0.4656
19875W        W38622   5.564  23.094  22.728 -0.2057  0.0983  0.1476
19876W        W38623  14.855  12.632   5.517  0.1073  0.0645 -0.1642
19877W        W38624  16.439   8.494  12.891  0.2106  0.0509 -0.1462
19878W        W38625   4.658  34.513  20.126  0.0994  0.0424  0.2637
19879W        W38626  16.755   7.224  12.018  0.0669  0.1918  0.2183
19880W        W38627  23.418  15.217  13.454  0.2693  0.3497  0.1593
19881W        W38628  31.181  31.863  25.430 -0.2115  0.3798 -0.0388
19882W        W38629  31.759   1.313  24.707 -0.0297  0.4531 -0.1018
19883W        W38630  13.115  22.642  23.500 -0.3174 -0.0094  0.0028
19884W        W38631  16.388  18.316   0.096 -0.0124  0.2433 -0.3057
19885W        W38632  32.019  31.033  12.942 -0.0586 -0.0522  0.0264
19886W        W38633  16.297  12.640  13.129 -0.0467 -0.1398 -0.0208
19887W        W38634  11.380   5.419   0.563 -0.2438 -0.0592 -0.4104
19888W        W38635  28.975  33.963   3.261 -0.0057  0.2543  0.1037
19889W        W38636   5.470  14.640   3.115  0.2330  0.0287  0.0539
19890W        W38637  30.780  23.282  25.161 -0.0747 -0.1885  0.0005
19891W        W38638  25.843  19.392   8.612 -0.0687  0.1650  0.2825
19892W        W38639  34.953  18.798  24.590  0.2724 -0.2071 -0.1834
19893W        W38640   0.494  17.524  21.204  0.0091  0.1099 -0.3330
19894W        W38641  27.757   2.696   4.182  0.1612  0.0038 -0.2735
19895W        W38642  12.946  16.390   1.226 -0.1486  0.0447 -0.0929
19896W        W38643  26.780   5.140  14.351 -0.3361  0.1391 -0.2246
19897W        W38644  34.520   4.083   1.284 -0.1589 -0.0302  0.2600
19898W        W38645   2.054   9.904  21.709 -0.0786 -0.0913 -0.1768
19899W        W38646  32.597  23.629  26.011 -0.0989 -0.1920  0.0879
19900W        W38647  35.301   5.199  16.531  0.1198  0.1621  0.4125
19901W        W38648  29.122  14.194   5.040 -0.1605  0.0044  0.0264
19902W        W38649  25.742   2.907  20.518 -0.0505 -0.1694  0.2218
19903W        W38650  14.607   3.233  24.304 -0.2274  0.4145  0.3027
19904W        W38651   2.731  25.284   4.953 -0.3172 -0.4024 -0.2909
19905W        W38652  26.257  24.757   9.813  0.0103 -0.0465 -0.1421
19906W        W38653   8.807   5.557   3.449  0.3002 -0.2718 -0.1176
19907W        W38654  35.040   9.897  14.163 -0.0408 -0.0849  0.3596
19908W        W38655  34.174   5.754   3.916  0.0734  0.0483 -0.2791
19909W        W38656   4.809   0.594   8.162 -0.0139 -0.2104 -0.1310
19910W        W38657  21.899  27.516   4.850  0.0874 -0.1875  0.0477
19911W        W38658   8.233  30.198  14.771 -0.0196 -0.0597  0.2251
19912W        W38659  16.148  14.965   1.113  0.1320 -0.2863  0.0070
19913W        W38660  20.422  11.286   7.865  0.0465 -0.3715  0.1507
19914W        W38661   8.854   3.919  10.438 -0.3096  0.0229  0.0951
19915W        W38662   7.101  26.939   8.532  0.0091 -0.5320 -0.0359
19916W        W38663  23.738   5.754  15.352  0.0474  0.0156  0.0789
19917W        W38664   7.482  15.446   7.394 -0.2832  0.0593 -0.1781
19918W        W38665   7.262  13.549  10.717 -0.1163  0.0771  0.1904
19919W        W38666  29.205  28.243   1.951 -0.0603  0.2549 -0.4334
19920W        W38667  27.975  21.845   5.751  0.2532  0.0875 -0.1092
19921W        W38668   3.975  23.147  23.555 -0.0953 -0.2600  0.0727
19922W        W38669  11.687  15.055  13.405 -0.0028 -0.1324  0.2131
19923W        W38670  12.312  16.167  12.962 -0.0697 -0.1227  0.0930
19924W        W38671  28.387  12.046   7.389 -0.3887 -0.1533  0.0744
19925W        W38672   2.620  27.573  21.638  0.1722 -0.0923  0.1949
19926W        W38673   5.872   1.473   9.616  0.1563 -0.1009  0.2971
19927W        W38674   2.365  13.325  15.464  0.2399  0.3903  0.1320
19928W        W38675  29.094   9.830  13.978 -0.0298  0.1624  0.0861
19929W        W38676  21.291  31.567  19.412  0.0456  0.0613 -0.0070
19930W        W38677  26.094  32.372  12.667  0.4096 -0.0288 -0.2529
19931W        W38678  15.665  15.545  12.023 -0.0691  0.1257 -0.1930
19932W        W38679  17.196   7.989   9.713 -0.3743 -0.0784  0.0068
19933W        W38680  23.038  34.206  19.903 -0.3791  0.2454  0.1075
19934W        W38681  25.822   0.297   5.219 -0.1018  0.3019 -0.1294
19935W        W38682  13.676  21.234   8.792 -0.1710 -0.0823 -0.2875
19936W        W38683  13.232  14.386   0.428 -0.0012 -0.1015  0.3078
19937W        W38684  17.882   6.767   2.037  0.0237 -0.3722 -0.1492
19938W        W38685  20.549   6.670  19.257  0.1070  0.1076  0.0980
19939W        W38686   2.999  21.755  24.028  0.1381 -0.0761 -0.1100
19940W        W38687  29.736   6.649  10.238  0.0888 -0.0650 -0.0583
19941W        W38688   8.012  10.873  10.160  0.3948 -0.1251  0.1150
19942W        W38689  13.197  17.426   7.101 -0.3307 -0.3276 -0.0003
19943W        W38690  26.651  18.600  22.098  0.1127 -0.3461  0.0329
19944W        W38691   6.422  10.024  18.738 -0.0616  0.2950 -0.1341
19945W        W38692  33.934   8.799  22.547 -0.2309  0.2308 -0.0206
19946W        W38693  20.011  15.284  21.623  0.0546  0.0145  0.1428
19947W        W38694   1.378  25.469  21.125 -0.0612 -0.1660  0.1842
19948W        W38695   6.836  15.173  21.907  0.2290  0.1919 -0.0765
19949W        W38696  25.221  18.121  24.505 -0.3049  0.0369  0.0007
19950W        W38697  24.923  19.404  23.029 -0.0171 -0.2616 -0.0175
19951W        W38698   5.337   8.176  19.846  0.0844 -0.3136 -0.1495
19952W        W38699  12.803   1.789  18.952 -0.4117  0.0474  0.1459
19953W        W38700   9.360   1.057   2.130 -0.0165 -0.4101 -0.0496
19954W        W38701  30.307  10.625  16.303 -0.0747 -0.0774  0.2398
19955W        W38702  21.059   2.943  15.826  0.0467 -0.2731  0.0202
19956W        W38703   1.979  19.778  17.570  0.1378  0.1573 -0.0594
19957W        W38704   4.157  33.508   7.569  0.0826 -0.0626  0.1142
19958W        W38705  14.871   3.153   5.924 -0.0686 -0.2963  0.0265
19959W        W38706   5.920  16.602  17.915  0.0366  0.6118 -0.1760
19960W        W38707   3.225  10.601  17.626  0.2436 -0.3419 -0.0931
19961W        W38708  31.939  30.519  21.631  0.0076  0.0005  0.3427
19962W        W38709  32.684  19.869  15.297 -0.2821 -0.0155 -0.0586
19963W        W38710  27.592  20.577  18.349  0.0136  0.2615 -0.2258
19964W        W38711   4.743  11.883  20.595  0.1862  0.0527 -0.1137
19965W        W38712  26.977  26.435  16.092 -0.0461 -0.2405  0.0958
19966W        W38713   0.843  17.541  19.441 -0.0282 -0.5875 -0.1526
19967W        W38714  34.431  14.287  16.411  0.1982 -0.2089 -0.1756
19968W        W38715  15.558  18.915  14.132  0.3948  0.1322  0.1767
19969W        W38716  35.384  30.272   0.273  0.0532  0.0135 -0.2313
19970W        W38717  34.513   6.292   6.032 -0.1810 -0.5491 -0.1510
19971W        W38718  25.337  22.024   8.900 -0.2908 -0.1438 -0.1393
19972W        W38719  29.426  27.102   9.008  0.3713 -0.0447 -0.1015
19973W        W38720  25.367  31.518  16.397  0.1211  0.0918  0.0083
19974W        W38721   2.113  22.084  15.132 -0.1802  0.0916  0.0894
19975W        W38722  33.994  26.813  14.274  0.2891  0.2238 -0.3019
19976W        W38723  25.994  22.245  16.487 -0.2470 -0.0533  0.1123
19977W        W38724  19.149  32.874  17.404  0.2749 -0.1177  0.0719
19978W        W38725  26.079  33.113  17.723  0.0449 -0.0724 -0.0938
19979W        W38726  20.993  30.914  21.151 -0.1608 -0.1380  0.2506
19980W        W38727  22.173   2.452   5.449 -0.3412 -0.0196  0.2477
19981W        W38728  30.205  16.791  15.361  0.1554  0.0314 -0.6391
19982W        W38729   1.624   0.583   0.923 -0.0561  0.0064  0.0470
19983W        W38730  14.418   2.701  17.706 -0.2724 -0.0074 -0.0719
19984W        W38731  12.400   3.618  24.005 -0.1461  0.1982  0.0183
19985W        W38732  19.873  26.992   7.498 -0.1940 -0.3182 -0.2119
19986W        W38733  32.062  12.988  23.625 -0.0074 -0.0038 -0.3127
19987W        W38734   6.186  30.753   9.927 -0.0040 -0.2109 -0.0713
19988W        W38735  25.919  31.894   4.047  0.0229 -0.1306 -0.1535
19989W        W38736  31.607  21.191  25.228  0.0034 -0.0641  0.0600
19990W        W38737   1.546  18.335  13.414 -0.1530  0.2446  0.1781
19991W        W38738  27.525  18.096   9.437  0.0386 -0.0044  0.1367
19992W        W38739   6.174  25.359  21.424  0.0203  0.1168  0.2719
19993W        W38740  34.299  19.279  13.262 -0.1115  0.3361  0.0128
19994W        W38741   6.856  33.758  22.251  0.2765  0.0457 -0.0997
19995W        W38742  34.492  34.927  19.003  0.0295 -0.0798  0.1874
19996W        W38743  12.305  23.449   1.946 -0.0131 -0.0401  0.1296
19997W        W38744   7.890  27.436   7.336 -0.0850  0.0372 -0.0356
19998W        W38745  10.235  15.613   9.276  0.3337 -0.1524  0.0240
19999W        W38746  26.629   0.287  18.259  0.1708 -0.0151 -0.1873
20000W        W38747  24.573  34.895   2.812  0.2427  0.0509 -0.1412
20001W        W38748  10.717  15.596  11.022  0.4277 -0.1266 -0.0719
20002W        W38749   6.604  30.455  20.910 -0.1867 -0.1255 -0.1055
20003W        W38750  11.030  10.155   1.713 -0.1366 -0.0500 -0.0276
20004W        W38751  24.270   0.063   4.645 -0.0294  0.1859 -0.1215
20005W        W38752   0.624  34.682   6.007 -0.0872  0.1896  0.0368
20006W        W38753  13.777   2.049  18.783 -0.1672  0.2018  0.0298
20007W        W38754  18.167  28.146  20.005 -0.3636 -0.1975 -0.0684
20008W        W38755  15.543  14.892   2.316  0.4846  0.4109  0.0259
20009W        W38756  31.947  18.895   9.279 -0.1083  0.0057  0.1813
20010W        W38757   6.846   0.741  25.784 -0.1129  0.1101 -0.0956
20011W        W38758  30.061  12.950  10.558 -0.2215 -0.2696  0.1344
20012W        W38759  33.090   0.500  12.979 -0.2325 -0.0414 -0.0957
20013W        W38760  14.584  30.720  14.056 -0.2643 -0.2136 -0.2866
20014W        W38761   1.278  20.811  15.451 -0.3758  0.1021 -0.0832
20015W        W38762  11.058  10.139  14.278  0.1546 -0.0792  0.4285
20016W        W38763   6.893  21.481  24.020  0.2481  0.0331  0.0638
20017W        W38764   8.925   6.195   0.314 -0.3486  0.1602 -0.1374
20018W        W38765   7.940  14.739   9.026 -0.1408 -0.2421 -0.0948
20019W        W38766  35.009  23.432  13.632  0.1836  0.1204  0.1351
20020W        W38767  12.705   5.941   6.986 -0.1005  0.1468  0.0550
20021W        W38768  23.480  17.165  13.811 -0.0190 -0.0162  0.0362
20022W        W38769   6.944  23.085   0.775 -0.2654  0.0513  0.2463
20023W        W38770  34.001  35.074  14.771 -0.2138 -0.0011 -0.3459
20024W        W38771  22.670  18.347  25.618 -0.0494  0.2603 -0.0126
20025W        W38772  20.370   7.841   1.447  0.1052 -0.2262 -0.0882
20026W        W38773  10.346  22.016  10.782  0.0568  0.1108  0.0130
20027W        W38774  22.609   7.020   3.657  0.0651 -0.0748  0.0637
20028W        W38775  33.288   0.791   4.342 -0.3405  0.0875  0.0686
20029W        W38776  12.405  21.550   2.539  0.2970  0.0539 -0.5741
20030W        W38777  20.224  34.392  17.003  0.0356  0.0802  0.0862
20031W        W38778   0.252  28.609   6.482  0.0446 -0.2146 -0.5051
20032W        W38779   1.260  17.934  15.234  0.0472 -0.1186  0.0410
20033W        W38780  24.795   9.025  21.241 -0.1102  0.1523 -0.0854
20034W        W38781  25.404   5.429  22.624 -0.2351  0.1606  0.1869
20035W        W38782  21.383  13.022  19.114 -0.1107  0.5852  0.3224
20036W        W38783   1.497  22.425  13.752 -0.0252 -0.0461  0.1245
20037W        W38784  30.080  24.769  23.737  0.1551 -0.2459 -0.0934
20038W        W38785  13.608   9.109   7.070 -0.3937 -0.2101  0.0305
20039W        W38786  12.548  28.880   9.108  0.1439 -0.1455  0.0217
20040W        W38787  17.776   2.715  10.073 -0.0621 -0.0922 -0.0758
20041W        W38788  16.110   2.943  18.107  0.0193  0.5079  0.1840
20042W        W38789  26.071  23.680  18.082  0.0298 -0.2054 -0.0369
20043W        W38790  32.932  25.396  24.167  0.3407  0.0338 -0.0372
20044W        W38791   2.015  29.563   1.200  0.2335 -0.1060  0.0934
20045W        W38792  22.747   6.480  18.265 -0.3331 -0.0747  0.0643
20046W        W38793  23.968  14.911  16.895 -0.5643 -0.0975 -0.4270
20047W        W38794   3.595   4.470   7.506  0.1317  0.1416  0.0474
20048W        W38795  15.590  30.329  13.177 -0.1394  0.0500  0.0921
20049W        W38796  23.678  15.676  18.901  0.1083  0.1198  0.2603
20050W        W38797   2.678  30.039   3.768  0.2756  0.1950 -0.2003
20051W        W38798  17.985  26.499  20.322 -0.3442  0.0003 -0.3142
20052W        W38799  24.084  21.257  11.504  0.1199  0.1814 -0.2991
20053W        W38800   4.530  14.972   4.441  0.1221 -0.2482 -0.1423
20054W        W38801  30.439   6.829  14.138  0.1831  0.2252 -0.1662
20055W        W38802  14.506  22.107  14.038 -0.0804 -0.2344 -0.0382
20056W        W38803  13.882   0.325  24.201  0.0888 -0.0383  0.2959
20057W        W38804  16.698  15.823   5.872  0.1920  0.3836 -0.0104
20058W        W38805   3.252   9.939  14.754  0.0351 -0.0682 -0.0427
20059W        W38806   8.907  18.501  22.506  0.1531 -0.0686 -0.2026
20060W        W38807  11.960  24.435   6.835  0.2113 -0.4130 -0.0631
20061W        W38808  30.626  16.913  12.069  0.2244  0.1895 -0.0994
20062W        W38809  28.161   2.072  17.464  0.0793 -0.0255 -0.2158
20063W        W38810   5.817   3.297   9.956 -0.3014 -0.2862 -0.0773
20064W        W38811  10.243  18.331   3.847 -0.1671  0.0980  0.0464
20065W        W38812   1.070  24.818  22.867  0.1960  0.1758  0.1100
20066W        W38813   5.178  19.774   0.405  0.0347  0.1855 -0.3453
20067W        W38814  10.707   2.911   3.839  0.3658 -0.1067  0.3614
20068W        W38815   0.717  29.534  18.150 -0.0780  0.2593 -0.1954
20069W        W38816  11.167  20.731  15.989  0.0379 -0.2619 -0.1097
20070W        W38817  14.606   8.547   9.854 -0.0221  0.1993  0.1278
20071W        W38818  22.076   5.766  23.879  0.0452 -0.1165 -0.1631
20072W        W38819  25.586   4.389  15.224 -0.0734 -0.1165 -0.1090
20073W        W38820  16.088  19.164  23.483 -0.0242 -0.1659 -0.1444
20074W        W38821  15.221   1.802   6.939 -0.0660 -0.0063  0.2932
20075W        W38822  33.326  28.587  12.281 -0.0709  0.1230  0.0063
20076W        W38823  31.102  23.459  25.722  0.0429 -0.0029 -0.1803
20077W        W38824  29.730  10.894  20.988 -0.2514  0.3356 -0.0110
20078W        W38825  24.875   3.017   3.379  0.0115  0.3550  0.1121
20079W        W38826  12.159  12.115   0.418  0.2514 -0.1090 -0.1032
20080W        W38827  29.149  19.820  21.048 -0.0101 -0.2357 -0.2361
20081W        W38828  18.342   7.023   8.488 -0.2768 -0.2293 -0.0676
20082W        W38829  10.528  26.393   9.611  0.1166  0.0263  0.1119
20083W        W38830  26.377  22.019  23.097  0.0628  0.1833 -0.0097
20084W        W38831  28.806  19.926  21.547  0.0138 -0.2151  0.0384
20085W        W38832  19.717  28.209   7.139  0.3590  0.0606 -0.2048
20086W        W38833  11.322  27.051  15.907 -0.0140  0.1538  0.1880
20087W        W38834   4.742  12.969  23.717  0.0006  0.2630  0.0800
20088W        W38835  18.029  27.820   8.450 -0.2500 -0.0753 -0.2244
20089W        W38836   8.069  16.903  22.913 -0.2665 -0.4109 -0.2300
20090W        W38837  20.005   4.859  24.914  0.1092  0.1907 -0.0157
20091W        W38838  12.097  14.013  20.002  0.1194 -0.0489 -0.1401
20092W        W38839   5.589   2.013   7.169 -0.1333  0.1498 -0.1968
20093W        W38840  15.523  19.401  10.603  0.1704 -0.1779  0.0923
20094W        W38841  11.748   9.406  22.949  0.3069 -0.0405 -0.0001
20095W        W38842   6.732  33.160   5.887  0.0799 -0.1099  0.0889
20096W        W38843  24.741  11.248  14.510  0.1161  0.0572 -0.1867
20097W        W38844  11.563   6.234  12.858  0.0610 -0.1309  0.2230
20098W        W38845  17.132  28.298  23.091 -0.3495  0.0661  0.1832
20099W        W38846   8.906  33.695  22.210 -0.2431  0.0019 -0.2087
20100W        W38847  20.456  35.059  22.646  0.0338  0.3260  0.0997
20101W        W38848  10.362   8.552   5.301  0.3367 -0.0214  0.0789
20102W        W38849   6.697  32.934   1.141 -0.4017  0.0488 -0.0078
20103W        W38850  32.946   7.555  18.437 -0.0530  0.0068  0.0739
20104W        W38851  18.402  31.031  18.504  0.0022 -0.2073 -0.0580
20105W        W38852  29.384  32.417  16.439 -0.1665  0.1292  0.0494
20106W        W38853  16.224  25.040  24.722 -0.0821  0.1170  0.0756
20107W        W38854  23.483   7.501  23.586  0.1058  0.0169 -0.0732
20108W        W38855   1.098   4.974  14.764  0.0701  0.2362 -0.2181
20109W        W38856  24.277  17.848  23.409  0.0165 -0.0589  0.0027
20110W        W38857  20.668   9.074  25.053 -0.2071 -0.1425 -0.1492
20111W        W38858  24.596  10.152  15.990 -0.4110  0.0837 -0.4023
20112W        W38859  31.300  33.312  20.763  0.0052 -0.5075  0.0615
20113W        W38860  33.779  33.791  25.955  0.2402 -0.2028 -0.0834
20114W        W38861  16.409  19.935  21.397 -0.0088  0.3429  0.0021
20115W        W38862  22.330  29.833   4.668 -0.2465  0.1060 -0.2438
20116W        W38863   0.108  30.373   2.920  0.2002 -0.0261  0.2587
20117W        W38864  29.632  26.782  25.263  0.0678 -0.1146 -0.1311
20118W        W38865  33.809  34.085   4.000 -0.1802  0.3569  0.0567
20119W        W38866  34.222  16.423  14.213 -0.0446 -0.0083 -0.3235
20120W        W38867  21.364  31.823  19.872  0.4096 -0.2464  0.3340
20121W        W38868   5.671  26.192   8.945 -0.0852 -0.4088  0.0370
20122W        W38869  29.140  15.409  14.499 -0.0216  0.1627  0.0181
20123W        W38870  22.765  28.229  17.243  0.3223 -0.1222  0.0403
20124W        W38871   5.935  33.678  10.728  0.2827  0.0787 -0.1125
20125W        W38872  30.811  10.670  18.964  0.5454 -0.1363 -0.0094
20126W        W38873   3.543   8.795   6.777  0.2064 -0.0286  0.0011
20127W        W38874  35.036   7.843  12.858 -0.0409  0.1772 -0.3810
20128W        W38875  16.360   5.526  18.881 -0.0744  0.0602  0.0393
20129W        W38876  30.403  25.054  24.003 -0.1047  0.0328 -0.2989
20130W        W38877  10.487  19.458  15.400  0.1804  0.0245 -0.0453
20131W        W38878   4.075  14.712   0.757  0.2804 -0.0696  0.2699
20132W        W38879  28.823  14.541   9.753 -0.1555  0.0677 -0.2648
20133W        W38880   6.904   8.814   7.153  0.0393  0.1505  0.2224
20134W        W38881  28.821  27.510  13.398  0.1436 -0.1690 -0.3559
20135W        W38882   0.864  30.398   3.994 -0.3278  0.0433 -0.1903
20136W        W38883  22.115  18.660  17.140  0.2001 -0.1220 -0.4085
20137W        W38884  32.074   2.848  16.165 -0.2292 -0.1666  0.0665
20138W        W38885  17.254  30.893   7.215 -0.2016  0.0787  0.2782
20139W        W38886  26.855  33.769  15.669 -0.0057  0.2206 -0.1434
20140W        W38887   3.408  10.797   4.312  0.1487 -0.1944 -0.0754
20141W        W38888  29.615  29.279  20.181  0.0235 -0.5890  0.3000
20142W        W38889  26.483  23.809  17.473 -0.2604  0.1200  0.2132
20143W        W38890  22.344  24.273  16.631  0.1243 -0.0444 -0.3387
20144W        W38891  32.382  22.742  17.925 -0.0479  0.3287 -0.1815
20145W        W38892   5.018  30.114   8.949 -0.0130 -0.0338 -0.0894
20146W        W38893  17.528  12.074  20.895 -0.1175  0.0100  0.2318
20147W        W38894  18.498  18.253  19.952  0.0613  0.3411 -0.3574
20148W        W38895  23.448  22.351  21.898  0.0128 -0.0442  0.1599
20149W        W38896   1.518  26.443  21.066 -0.5157 -0.2206 -0.0086
20150W        W38897   8.493  26.444   8.770 -0.2357 -0.2146 -0.0134
20151W        W38898  30.283  13.816   6.039  0.0683  0.3194  0.2928
20152W        W38899  14.566  26.186  16.370 -0.0207 -0.0947  0.1464
20153W        W38900   3.802  34.038  10.412  0.0220  0.0127 -0.4150
20154W        W38901  16.234  30.160  20.887 -0.1205 -0.2360 -0.1545
20155W        W38902  11.000  30.277   1.916 -0.5119 -0.1409  0.2155
20156W        W38903   5.263  34.453  21.404 -0.0736 -0.0607 -0.3647
20157W        W38904  21.337  30.181   3.941  0.1130 -0.3432 -0.3673
20158W        W38905  16.765  13.437  10.744  0.1186  0.1635 -0.2316
20159W        W38906  11.828  31.686  20.546  0.0976 -0.0579 -0.0034
20160W        W38907   7.783  14.460   9.787 -0.2396 -0.1939 -0.1282
20161W        W38908   7.702  13.648   4.163 -0.0319  0.0381  0.0688
20162W        W38909  27.464  12.203  14.181 -0.2228  0.4439  0.1590
20163W        W38910  17.275  29.208  23.674  0.2282  0.4700  0.0180
20164W        W38911   5.382   0.565  20.502  0.1519 -0.0182  0.0040
20165W        W38912  25.223   7.944  22.659 -0.2587  0.1355 -0.0240
20166W        W38913  30.666  19.674  12.912 -0.1297 -0.3309 -0.0091
20167W        W38914  18.730  11.051  21.443  0.3934 -0.0837 -0.1205
20168W        W38915  19.299  31.940  23.759 -0.0249  0.3679 -0.2035
20169W        W38916  16.565  31.765   4.728  0.3013 -0.0511 -0.0109
20170W        W38917   8.454  12.108  19.394 -0.1096  0.0569  0.0865
20171W        W38918   7.414   0.145   6.321  0.1949 -0.0065 -0.1378
20172W        W38919  23.714  10.383  20.859 -0.1342 -0.0577  0.0287
20173W        W38920  16.625   6.292   2.422 -0.1404 -0.0264  0.0611
20174W        W38921   8.242  22.544  15.114  0.2309 -0.3870 -0.0554
20175W        W38922  32.154   3.530  18.281  0.2716 -0.1861 -0.2772
20176W        W38923   4.107   1.043  19.804 -0.0128 -0.0762 -0.1207
20177W        W38924   5.154  31.915   1.373  0.1575 -0.0178  0.3152
20178W        W38925  33.483  17.600  11.701 -0.1066  0.1199  0.0494
20179W        W38926   8.945  13.659  11.271 -0.0528  0.1614 -0.0003
20180W        W38927  33.893   6.500   5.400 -0.0138  0.1669 -0.3661
20181W        W38928  20.796  32.832   6.311  0.2487  0.1509 -0.0411
20182W        W38929  24.212  26.506   0.725 -0.0426  0.0055  0.0382
20183W        W38930  32.891  31.142   6.579 -0.2000 -0.0906 -0.1914
20184W        W38931   6.332   8.261  20.575  0.1262 -0.1063 -0.2272
20185W        W38932   4.054  11.594   2.949 -0.0101 -0.0346 -0.2691
20186W        W38933  35.108   8.437  24.257  0.0097 -0.0378 -0.1202
20187W        W38934   8.822  29.500   4.016 -0.0506 -0.0692 -0.1641
20188W        W38935  16.969  20.892   5.208 -0.1602 -0.2023 -0.0424
20189W        W38936  12.525  24.674  16.138 -0.1885  0.1416 -0.2032
20190W        W38937  13.137   4.076   0.722  0.0335  0.1575  0.0651
20191W        W38938  18.714  18.408  19.036 -0.0907  0.2919 -0.2135
20192W        W38939   4.100   9.660  20.647 -0.0613 -0.0738  0.0800
20193W        W38940  12.412  33.617  13.024  0.2223  0.0713 -0.3419
20194W        W38941  25.374   9.681  15.796 -0.0218  0.1746 -0.3931
20195W        W38942   8.757   3.476  19.976  0.0009  0.0658  0.1613
20196W        W38943  34.423   9.812  12.011 -0.2018 -0.0515  0.2932
20197W        W38944   4.419  25.798   3.439 -0.3188  0.2055  0.0885
20198W        W38945   0.351   8.367  20.271 -0.1324  0.3425  0.0381
20199W        W38946  20.920   5.016  23.022  0.0531 -0.1582 -0.1197
20200W        W38947   3.777  28.888  11.072  0.4120  0.1043 -0.0290
20201W        W38948  19.909  26.815  25.155  0.1672  0.1117 -0.1602
20202W        W38949  17.703  28.715   4.060 -0.0574  0.0139 -0.0311
20203W        W38950   3.090  13.147  24.758  0.0958  0.0435  0.0422
20204W        W38951  29.704  22.399  13.974 -0.1516  0.1253 -0.1638
20205W        W38952  22.277  14.248  25.889  0.1545  0.1646 -0.1765
20206W        W38953  17.389  32.035   2.775 -0.2488 -0.0126 -0.0075
20207W        W38954  19.337   3.380   2.690 -0.2378 -0.1880  0.2268
20208W        W38955  19.097  17.658   9.655  0.0263 -0.0030  0.0680
20209W        W38956   9.731  15.946   7.323 -0.1949 -0.1343  0.0535
20210W        W38957  15.570  35.369  22.698  0.2278 -0.3334  0.1929
20211W        W38958  25.998  15.129   7.513 -0.0858  0.1274 -0.1959
20212W        W38959  15.107  15.433   2.911 -0.0894  0.1042 -0.0442
20213W        W38960  13.416  13.281  21.733 -0.0468  0.0755  0.1868
20214W        W38961  32.495   5.824  16.077 -0.0203  0.2452 -0.1453
20215W        W38962   7.177   4.902   4.927 -0.2593 -0.2874 -0.3498
20216W        W38963   2.212  10.513  19.689  0.0120 -0.0478 -0.0317
20217W        W38964  16.089  25.386  10.115 -0.0026 -0.0459 -0.2874
20218W        W38965  31.558  28.712  23.895 -0.0806  0.1537 -0.2355
20219W        W38966   4.302  33.347   8.030 -0.2603 -0.1265  0.1932
20220W        W38967  31.098  14.134  10.458 -0.1797  0.1591 -0.0625
20221W        W38968  16.086  11.228   0.810  0.1018 -0.3214 -0.3603
20222W        W38969  31.674   8.180  25.434  0.0013 -0.0169  0.0626
20223W        W38970  16.789  28.203  20.941 -0.0063  0.1810 -0.2225
20224W        W38971  10.427   8.273  22.014 -0.1095 -0.2295 -0.0481
20225W        W38972  31.051  18.203  16.299  0.2732  0.1231 -0.0373
20226W        W38973  26.649  12.696  25.313  0.2008 -0.0353  0.0155
20227W        W38974  26.799  31.258  12.353  0.0399 -0.2206 -0.1631
20228W        W38975  22.613  28.970  12.907 -0.0909 -0.0804  0.1098
20229W        W38976  17.033   3.223   0.546  0.1773  0.0102  0.1579
20230W        W38977  20.920   2.650   7.354  0.3344 -0.0361 -0.1032
20231W        W38978   9.948  21.921   7.261 -0.2445  0.3297 -0.0297
20232W        W38979   5.948  19.590  22.674  0.2352 -0.3037  0.0259
20233W        W38980  28.243  30.711  20.722 -0.1024  0.1481  0.2072
20234W        W38981   0.152  34.265   4.662  0.2717 -0.1148  0.1215
20235W        W38982   5.905  18.069   0.951 -0.0521 -0.1198 -0.2011
20236W        W38983   1.698  30.412  19.395 -0.3038  0.5361 -0.0619
20237W        W38984  25.097  15.619  24.856 -0.2606 -0.5745 -0.0834
20238W        W38985   3.017  27.448   6.379  0.1822 -0.0860  0.1096
20239W        W38986  22.918  31.384   3.975 -0.4332  0.0648 -0.2299
20240W        W38987  23.669  22.441  15.562  0.1797 -0.1060  0.0067
20241W        W38988   3.339   1.112   8.292 -0.1065 -0.0860  0.2281
20242W        W38989  12.871  22.513  11.764  0.1239  0.1287 -0.0288
20243W        W38990   5.082  31.399   4.014 -0.3070 -0.0914 -0.1926
20244W        W38991  34.621   8.665  12.999  0.0330  0.0752 -0.0895
20245W        W38992  17.052  33.815   8.462 -0.1240 -0.2634 -0.3230
20246W        W38993  12.435  22.672  14.465  0.2145  0.0136 -0.1446
20247W        W38994  22.513  18.712  21.271  0.2384  0.2914  0.0539
20248W        W38995  13.897   1.371   4.817 -0.0089  0.0897 -0.1596
20249W        W38996  15.051   2.440  21.173 -0.1577  0.1094 -0.0027
20250W        W38997  21.098   5.609  23.529 -0.0344  0.2779  0.1277
20251W        W38998  30.660   6.639  20.860 -0.3140  0.2382  0.1470
20252W        W38999  14.522  25.522   6.348  0.0983  0.0934  0.2147
20253W        W39000  29.312  24.631  15.905 -0.0625 -0.0437  0.1720
20254W        W39001   4.708  21.959  21.078  0.3926  0.0297  0.0661
20255W        W39002  13.145  33.617   5.131 -0.1309  0.2107  0.2480
20256W        W39003   1.118   1.752   5.495 -0.4725 -0.0945 -0.2544
20257W        W39004  22.290   7.030  20.412  0.2425  0.3111  0.3552
20258W        W39005  24.295  13.470  24.021  0.5193 -0.1547 -0.1219
20259W        W39006  27.713   2.244  21.826  0.0164  0.0150 -0.0234
20260W        W39007   4.679  11.632   1.110 -0.0777  0.1884  0.0075
20261W        W39008  22.288  21.022   0.890  0.2083 -0.1968 -0.0197
20262W        W39009  24.750  17.703   9.925 -0.1336  0.0840 -0.0949
20263W        W39010  10.687  15.655  19.330  0.3194  0.3047 -0.1820
20264W        W39011  27.516  25.949  14.570 -0.3173 -0.0055  0.0653
20265W        W39012  17.112   2.654  21.027 -0.0437  0.4002  0.0963
20266W        W39013  11.070  15.328  10.519  0.0007 -0.2196  0.3979
20267W        W39014  12.125   3.864   3.344  0.4155  0.0641 -0.4206
20268W        W39015  24.666   0.585   4.131  0.1711  0.0998 -0.0032
20269W        W39016  34.977  16.728  11.313  0.1064  0.0985  0.1097
20270W        W39017  23.523   9.304   2.454  0.2793 -0.1502  0.0713
20271W        W39018  15.226  32.715  23.444  0.1607 -0.1613 -0.3091
20272W        W39019  29.847  31.416   1.585 -0.1739  0.2552 -0.3876
20273W        W39020  26.776   0.333  21.136  0.0609 -0.1497  0.2165
20274W        W39021   3.609   6.365   1.965  0.1164  0.0925  0.1136
20275W        W39022  31.905  31.183  26.197 -0.2170 -0.0085 -0.0259
20276W        W39023  31.273  20.856  20.191  0.1315 -0.2762  0.0324
20277W        W39024   5.777  26.499   9.994  0.1968 -0.1081 -0.3080
20278W        W39025   2.789   4.704  16.834 -0.2645  0.1882  0.2433
20279W        W39026  13.542   8.146   1.126  0.0418  0.0070  0.1693
20280W        W39027   6.968  26.462   3.106 -0.0664  0.2017 -0.0579
20281W        W39028  31.599  10.836  14.730  0.0263 -0.0305  0.0736
20282W        W39029  32.535  18.612  21.708 -0.0830  0.2999 -0.1043
20283W        W39030  24.363  33.491   4.980 -0.1241 -0.0076 -0.2015
20284W        W39031  25.428   4.019  22.502 -0.1207 -0.1185 -0.1607
20285W        W39032  14.298  25.154   3.444 -0.0246 -0.1213 -0.1293
20286W        W39033  14.739  24.595  16.691 -0.3952 -0.0146 -0.2958
20287W        W39034  31.051  18.653  10.891 -0.0640  0.1575  0.1270
20288W        W39035  19.270  10.453  22.317 -0.1417  0.5136  0.1578
20289W        W39036   7.022   8.047   9.188 -0.1223  0.1001  0.2096
20290W        W39037   1.268  22.524  24.206  0.1151  0.0554 -0.0447
20291W        W39038  30.727  34.467  25.281  0.0829 -0.1724  0.3627
20292W        W39039   1.892   0.119   0.161  0.0862  0.1742  0.1555
20293W        W39040  34.920  32.162  21.967 -0.3168  0.1493  0.1700
20294W        W39041  34.995   8.847  13.464  0.1890  0.0323  0.0261
20295W        W39042  17.435   6.879  25.024 -0.0143 -0.0025 -0.0930
20296W        W39043  12.784  34.157   6.724  0.0239 -0.0477 -0.1491
20297W        W39044  26.273  25.623  13.441 -0.1576  0.2927 -0.0651
20298W        W39045  17.623   2.071   9.599  0.2054  0.0981 -0.3719
20299W        W39046  14.985  29.791  21.895 -0.4600  0.3792 -0.0279
20300W        W39047  33.970  29.884   2.436  0.1802 -0.0971 -0.1717
20301W        W39048   8.939   6.101   3.412  0.2394  0.2119 -0.0157
20302W        W39049  22.124  21.083  20.009 -0.1675  0.2657 -0.0101
20303W        W39050  13.106  22.939  25.062  0.1817 -0.3940  0.0662
20304W        W39051  24.688  27.729   3.499 -0.0884  0.0511 -0.0150
20305W        W39052  18.227  32.460  22.647  0.2302 -0.0872 -0.2014
20306W        W39053  17.174  23.340  25.784 -0.0974  0.0029 -0.3339
20307W        W39054  28.183   7.147  12.497  0.3957  0.0014  0.3295
20308W        W39055  29.742  17.385  20.428  0.1350  0.1207  0.2003
20309W        W39056  17.757   5.997  21.445 -0.1128  0.0417  0.0093
20310W        W39057   1.281  21.610   0.423  0.2998  0.3150  0.1597
20311W        W39058   8.413  33.815   9.808 -0.3391 -0.0794  0.0012
20312W        W39059  26.642  13.496  19.310  0.1828  0.0748  0.0226
20313W        W39060   1.691  21.671   2.236 -0.1055 -0.3348 -0.2101
20314W        W39061   9.003  17.416   2.435  0.2723  0.1103  0.1698
20315W        W39062  10.182  10.790  22.024 -0.1658 -0.2321 -0.2529
20316W        W39063  32.478  21.149  11.735 -0.0662  0.3152 -0.1756
20317W        W39064   6.931  18.086   0.597 -0.2333  0.4993  0.2105
20318W        W39065  31.586  34.346   2.568 -0.0346 -0.0208  0.1781
20319W        W39066  30.465   0.496  15.309  0.2831  0.1449 -0.0246
20320W        W39067  17.122  23.746  25.032  0.1473  0.1435 -0.0611
20321W        W39068  18.424  29.909  26.152 -0.1085  0.0402  0.2316
20322W        W39069  30.722   5.710  24.257 -0.1044  0.1216 -0.0333
20323W        W39070  29.867   7.378  15.675  0.5287 -0.0068 -0.0460
20324W        W39071   1.366   4.238  24.394  0.2724 -0.0995 -0.0648
20325W        W39072   2.222   7.230  14.531 -0.0913  0.0786 -0.0832
20326W        W39073  27.809  10.783  18.945  0.0674 -0.1321 -0.1009
20327W        W39074  34.431  18.291   0.496  0.0511 -0.2035 -0.1092
20328W        W39075   8.267   2.662  24.013  0.0759 -0.0072 -0.0180
20329W        W39076   0.669   4.438   0.815 -0.1992  0.0205  0.1254
20330W        W39077  20.799  27.365  22.252  0.4002  0.0206 -0.2302
20331W        W39078  32.096  33.325  16.454  0.3421  0.2680  0.5567
20332W        W39079  35.376  12.547  25.614 -0.1124  0.3726 -0.0239
20333W        W39080  22.589   3.078  16.404  0.0325  0.0435  0.1968
20334W        W39081  10.003   8.336  10.254 -0.2699  0.2429 -0.1096
20335W        W39082   4.611  23.949  22.420 -0.0074  0.1312 -0.1672
20336W        W39083   4.336   8.309   2.207 -0.2438  0.0812  0.0010
20337W        W39084  16.209   8.729   3.984  0.1303  0.0360  0.0878
20338W        W39085  33.935  23.427   1.326  0.2961 -0.1244 -0.3488
20339W        W39086  31.991  34.468  25.675  0.2953 -0.1969  0.3683
20340W        W39087   3.067   5.540  16.894  0.0195 -0.0978  0.0652
20341W        W39088  27.096  29.537  13.634  0.2500 -0.0173  0.1894
20342W        W39089   0.158  17.956  24.261 -0.1795  0.0575  0.2411
20343W        W39090  14.025  18.340  21.883 -0.1100  0.0598  0.0417
20344W        W39091   5.066   8.274  25.476 -0.1389 -0.0198  0.1399
20345W        W39092  13.807  34.041  10.240 -0.0940  0.1684 -0.4733
20346W        W39093  19.067  14.005   5.667 -0.0715 -0.3020  0.4306
20347W        W39094  21.263  10.393   6.792 -0.0048  0.0322  0.2256
20348W        W39095  10.341  29.223   2.339  0.0290 -0.3501 -0.0358
20349W        W39096  12.854  32.386  25.047 -0.3732 -0.1715 -0.1462
20350W        W39097   3.872  30.457  25.174 -0.3651  0.4986  0.0302
20351W        W39098  18.817   1.268   2.047 -0.4571 -0.1672  0.0906
20352W        W39099  34.195  17.522   0.124 -0.0991  0.2105 -0.3023
20353W        W39100  28.975  30.563  18.064  0.0867  0.0702 -0.3438
20354W        W39101  34.821  32.439  23.482 -0.2563 -0.1508 -0.0441
20355W        W39102  15.265  31.580  10.594  0.4224  0.2750 -0.0411
20356W        W39103  11.906  29.598   7.901 -0.0848 -0.3373  0.0224
20357W        W39104  20.247   3.638   8.848  0.1021 -0.1785  0.2320
20358W        W39105  21.615   7.146   3.788 -0.0976 -0.0359  0.1238
20359W        W39106   6.114  24.477   6.968 -0.2642 -0.0888 -0.2659
20360W        W39107   3.184  30.710   0.586  0.3234  0.2331  0.1881
20361W        W39108  25.138   1.949  15.235 -0.0306 -0.0151 -0.1441
20362W        W39109  20.809  17.643  19.449  0.3239 -0.0273 -0.2202
20363W        W39110  14.333  34.589   1.046  0.0270  0.0595 -0.0599
20364W        W39111  15.303   5.156   9.420  0.1658  0.0131 -0.1568
20365W        W39112  31.282   4.473  21.395 -0.0195  0.2310 -0.1720
20366W        W39113  20.439   0.722  22.578  0.5872  0.3340  0.2828
20367W        W39114  31.114  35.158  25.547  0.0027  0.0718  0.2420
20368W        W39115   7.878   2.412   5.922 -0.2963  0.2219 -0.3867
20369W        W39116  22.390  28.720   1.541  0.1341 -0.2066 -0.0788
20370W        W39117  18.041  12.017   9.470 -0.1252 -0.1340 -0.4652
20371W        W39118  11.471   2.396   6.626 -0.0934  0.0424 -0.1909
20372W        W39119   3.784  11.943  16.960 -0.2204 -0.2183  0.0665
20373W        W39120  10.362  28.887   4.973  0.1301  0.0922 -0.0972
20374W        W39121  35.083   4.499  23.069 -0.2189 -0.1575  0.0442
20375W        W39122  17.764  33.901  16.793  0.0380  0.2427  0.1286
20376W        W39123  10.787  29.677  22.921  0.1463 -0.1160  0.0861
20377W        W39124   3.346   1.242   7.217  0.1189 -0.5135 -0.2915
20378W        W39125  33.236  31.839  19.530  0.1668  0.1670 -0.2472
20379W        W39126  20.416  21.082   6.206 -0.0125 -0.1193 -0.0818
20380W        W39127  27.083   9.904  17.627 -0.1533  0.0575 -0.0117
20381W        W39128  11.830  20.271   8.833  0.1233  0.4285  0.0731
20382W        W39129  10.377  30.205   5.388  0.1517 -0.2417  0.1962
20383W        W39130  10.831   7.726  25.505  0.2965  0.0406 -0.2530
20384W        W39131   7.576  24.348   0.902 -0.0352 -0.1987  0.3213
20385W        W39132   4.040  22.612  21.530 -0.0636 -0.0915 -0.0793
20386W        W39133   1.487   5.094  16.775 -0.0237 -0.2320 -0.2016
20387W        W39134   9.076  25.131   5.013 -0.3003 -0.0624 -0.2074
20388W        W39135  10.865  31.905  15.625 -0.3006  0.1360 -0.3182
20389W        W39136  10.849  15.359  23.074 -0.0987  0.0249  0.1176
20390W        W39137  15.674  28.036  14.843 -0.2119  0.1295  0.1936
20391W        W39138  12.247  24.825  10.269 -0.0213 -0.4114 -0.3465
20392W        W39139  27.407   4.171  23.598  0.0764  0.1878  0.0071
20393W        W39140  17.543   9.239  23.529 -0.0900 -0.1713  0.0878
20394W        W39141  10.103  13.751   9.138  0.2294 -0.0354 -0.3953
20395W        W39142  35.027  31.182   1.616 -0.0215  0.2314  0.2082
20396W        W39143  31.717  11.670  15.120 -0.0629 -0.0541 -0.0810
20397W        W39144  17.880  25.725  23.896 -0.1512 -0.1580 -0.0393
20398W        W39145   3.240   1.341  20.127  0.0312 -0.0385 -0.3061
20399W        W39146   7.652   3.448  19.749  0.1030  0.1843 -0.1393
20400W        W39147  30.049   5.905  21.142  0.1211 -0.3518  0.1737
20401W        W39148  21.597  31.356  14.567  0.0367 -0.1427  0.1796
20402W        W39149  20.810   0.759  17.090  0.0006 -0.1322  0.4853
20403W        W39150  15.138  11.661  23.192 -0.4849  0.0276 -0.1151
20404W        W39151  33.957   4.778  13.250 -0.1857 -0.4357 -0.2646
20405W        W39152   7.752  24.598  23.148  0.1149 -0.0625  0.0158
20406W        W39153  26.513  25.831   9.941  0.1301 -0.2096 -0.1479
20407W        W39154  10.916  16.987  25.286 -0.2450 -0.0222  0.2288
20408W        W39155  25.832   1.927  11.793  0.0710 -0.0159  0.3263
20409W        W39156   1.817   8.472  23.096 -0.1431 -0.0528 -0.0419
20410W        W39157  22.599  29.326  16.602  0.1089  0.1005 -0.3557
20411W        W39158  12.187  29.157  23.843 -0.4295 -0.1496  0.0895
20412W        W39159  35.236  13.287  24.484 -0.2000 -0.3389  0.0845
20413W        W39160  21.613   3.925  19.615 -0.2888 -0.1025 -0.1480
20414W        W39161  26.077  11.077  13.818  0.1122 -0.1546  0.0337
20415W        W39162  26.726  29.274   0.867 -0.2224  0.0499  0.3651
20416W        W39163   5.156  31.537  14.314  0.1325  0.0153 -0.1659
20417W        W39164  19.712   8.964   9.763 -0.0336  0.3243  0.4841
20418W        W39165   5.629   9.150   0.846  0.1946 -0.0740  0.1029
20419W        W39166  33.413  28.719   5.047 -0.1419  0.0455 -0.0082
20420W        W39167  33.929  16.110  19.129  0.2017 -0.0415  0.0737
20421W        W39168  10.576  19.773   0.158  0.1452  0.1474  0.0774
20422W        W39169  17.403   3.625  22.119  0.2124  0.3386  0.0726
20423W        W39170  18.164  22.979  21.264  0.2316 -0.0461  0.1301
20424W        W39171  19.868   8.055  22.954  0.1837 -0.1163 -0.0928
20425W        W39172  28.820  17.148  17.531 -0.3845  0.2228 -0.0681
20426W        W39173   9.689  34.739  11.355  0.0475 -0.2770  0.0881
20427W        W39174  35.222   5.050   2.511 -0.0570  0.3020 -0.1517
20428W        W39175  15.338  30.237  13.572 -0.3538 -0.1372 -0.0204
20429W        W39176  14.149   2.064   7.875  0.1233  0.4268  0.0394
20430W        W39177  33.939   6.603  24.276 -0.2372 -0.0324  0.1477
20431W        W39178   6.183  27.344   0.043  0.1720 -0.2225  0.0525
20432W        W39179  23.638  31.980   6.377 -0.4473 -0.0739  0.0322
20433W        W39180  15.726  26.837  25.305 -0.1470 -0.1948 -0.0610
20434W        W39181   6.071  35.212  22.109 -0.0064  0.0929 -0.0001
20435W        W39182   6.711   9.657  18.052  0.0374 -0.0076 -0.0235
20436W        W39183   4.261  20.805  24.855 -0.2539  0.1053  0.0929
20437W        W39184  12.009  32.364  21.076 -0.2843 -0.2343 -0.0199
20438W        W39185  18.694   2.307   1.883  0.0365  0.1357 -0.1775
20439W        W39186  27.674  25.144  23.605  0.0039 -0.1739  0.0921
20440W        W39187  27.483   2.177  11.586  0.1655  0.1105  0.2090
20441W        W39188   8.588   3.156   4.481 -0.2082 -0.0074 -0.2280
20442W        W39189  21.308  30.214  24.761 -0.3802  0.0164 -0.1885
20443W        W39190  31.571  13.488  11.685 -0.1942 -0.0704  0.0839
20444W        W39191   9.426  28.798  14.830 -0.2867 -0.0313 -0.1500
20445W        W39192   8.376  25.503  14.059 -0.1906  0.2543 -0.0535
20446W        W39193  31.886   2.371   2.528  0.0913 -0.3863 -0.1723
20447W        W39194  13.804   3.154   3.877  0.0381  0.2667 -0.0171
20448W        W39195   8.504  14.619  24.783  0.0181  0.1655 -0.3100
20449W        W39196  25.257  12.415  21.223 -0.0505  0.0387  0.0984
20450W        W39197  34.398  24.727  11.653  0.0619  0.2486  0.2662
20451W        W39198  24.316  17.794  15.637  0.1183  0.0733 -0.4394
20452W        W39199  12.915  13.143   1.862 -0.0399 -0.1599  0.1653
20453W        W39200  18.982  29.167  21.739  0.1717 -0.3133 -0.2786
20454W        W39201  15.465  20.350  10.471  0.0215 -0.0870 -0.0892
20455W        W39202  20.549  12.538   0.913  0.1123  0.1867  0.3059
20456W        W39203  33.832   0.628  24.885 -0.0256 -0.3469 -0.5318
20457W        W39204  19.494   3.242  20.980 -0.0980 -0.3130  0.0881
20458W        W39205  31.834  27.577  24.692  0.3553  0.1314 -0.1826
20459W        W39206  29.501   6.858  20.265 -0.1632 -0.1739 -0.0311
20460W        W39207  32.230  29.847  14.205 -0.3544  0.1664  0.3414
20461W        W39208  23.350  22.479  16.624  0.2386 -0.2628  0.2327
20462W        W39209  11.399  22.469   9.157 -0.0137 -0.5273 -0.3392
20463W        W39210  15.293  24.762   9.171 -0.1973 -0.0277 -0.2657
20464W        W39211   0.689  10.282  16.006 -0.0900 -0.1372  0.1077
20465W        W39212   9.275  13.101  24.378  0.1177  0.1516  0.1434
20466W        W39213  15.234  22.996   2.998 -0.0137 -0.2195 -0.3352
20467W        W39214  17.782  32.682  22.386  0.0657 -0.1022 -0.1394
20468W        W39215   9.177  24.649   3.747 -0.1505 -0.0222  0.0334
20469W        W39216  15.272   9.219  11.118  0.0920 -0.0397  0.0145
20470W        W39217  23.810  10.305  19.580  0.0778 -0.3220 -0.0343
20471W        W39218   7.698   1.900   0.297 -0.0759  0.0371  0.0100
20472W        W39219  21.759  25.375  21.591 -0.3168  0.1546  0.2489
20473W        W39220  26.122  21.896  13.670  0.1275 -0.1065 -0.1529
20474W        W39221  12.281   1.567   2.920 -0.3660 -0.1905  0.2081
20475W        W39222  15.776  14.755  22.081  0.5611 -0.0233 -0.0206
20476W        W39223  25.346   1.139  23.812 -0.0184 -0.1622 -0.4204
20477W        W39224   1.151   2.378  26.116  0.0008 -0.0541  0.1811
20478W        W39225  10.437  29.161   1.018 -0.1011  0.1605  0.0729
20479W        W39226  31.776  11.686  19.523  0.0028 -0.2352 -0.1980
20480W        W39227   9.515   2.115  13.477 -0.1375 -0.0577 -0.2338
20481W        W39228  29.138  16.021  15.069 -0.4771 -0.1459 -0.1343
20482W        W39229   0.421  25.575   0.132  0.2483  0.0278 -0.0184
20483W        W39230  27.883  24.852  10.642  0.2497  0.2382 -0.1581
20484W        W39231   2.253  28.455  25.219 -0.1158 -0.0901  0.1618
20485W        W39232  19.164  31.488   1.549 -0.2543 -0.1256 -0.0447
20486W        W39233   2.065  16.062  17.261  0.0020 -0.0872 -0.4959
20487W        W39234  12.143   2.929  22.376 -0.1728  0.2933 -0.3900
20488W        W39235  20.752  10.108   7.501  0.2364  0.2691  0.0848
20489W        W39236   5.333  30.634   9.497 -0.2947 -0.1426 -0.2174
20490W        W39237  11.347   4.713  22.714  0.1305  0.2027  0.5495
20491W        W39238  22.314   9.316  19.222  0.2425  0.0173 -0.6803
20492W        W39239  34.689   5.830  15.134  0.3590 -0.1959 -0.0720
20493W        W39240  10.517  32.133   8.390  0.0158  0.0211 -0.0770
20494W        W39241   9.578  27.057  13.160 -0.0241 -0.1657 -0.1658
20495W        W39242  34.871   4.333  17.478 -0.0287  0.1752 -0.2433
20496W        W39243  29.290  11.204  26.018  0.2266 -0.2349  0.0805
20497W        W39244   1.772   8.977   5.981 -0.0811 -0.2745  0.0066
20498W        W39245   3.165   2.476  22.297  0.0636 -0.2544 -0.0434
20499W        W39246   0.606  32.908  24.842 -0.0207 -0.1195  0.2148
20500W        W39247  13.419   9.652   5.297 -0.0549 -0.1158  0.1928
20501W        W39248   0.859   3.642   5.396 -0.1140 -0.2576 -0.2118
20502W        W39249  14.739   8.477  18.641 -0.0283  0.2201 -0.4036
20503W        W39250  29.097  30.518   2.687 -0.0688 -0.1639  0.0065
20504W        W39251   2.410  27.533  26.003  0.2681 -0.0531  0.1357
20505W        W39252  13.935  34.443  26.066  0.2941  0.2025  0.1062
20506W        W39253  25.775  32.869   2.450 -0.1582  0.0448  0.1481
20507W        W39254   5.770  14.013   2.854  0.2575 -0.0225  0.2201
20508W        W39255  11.816   9.776   8.455  0.2008  0.1668 -0.0365
20509W        W39256  31.578  30.827   1.618 -0.0204 -0.1154 -0.0083
20510W        W39257  12.191  15.644  21.422 -0.2388 -0.0058 -0.1554
20511W        W39258  19.897  22.005   1.052 -0.2787 -0.3696 -0.0343
20512W        W39259  27.566   6.838  13.170  0.2369  0.0586  0.1077
20513W        W39260  27.366  26.653  21.790 -0.0843  0.0512 -0.0364
20514W        W39261  15.771  18.258  20.784 -0.1159 -0.1953 -0.0522
20515W        W39262  22.061  29.690  25.965 -0.0824  0.2470 -0.2231
20516W        W39263   9.929   1.284   9.978  0.0484 -0.1651  0.0419
20517W        W39264  24.709  32.645  16.697 -0.2424 -0.1072  0.1010
20518W        W39265  27.343  19.560  17.323  0.2771  0.3082  0.1309
20519W        W39266  34.457  31.826  24.730  0.2627  0.0607 -0.1743
20520W        W39267  33.632  16.260  17.694  0.2242  0.0581  0.1342
20521W        W39268   6.864  19.753  21.461  0.1631 -0.2324  0.3071
20522W        W39269  33.616   7.259  14.757 -0.2393  0.2726 -0.0977
20523W        W39270   4.412  14.561  21.388  0.0754 -0.0115  0.1705
20524W        W39271  11.084  28.319  22.293 -0.2445  0.1015 -0.0818
20525W        W39272   2.653  13.194  17.042 -0.0142 -0.1802  0.0127
20526W        W39273  21.487   2.514  16.882 -0.1595 -0.2376  0.0799
20527W        W39274  11.256  28.996   0.959  0.0913  0.1505  0.3665
20528W        W39275  18.721  15.491  25.383  0.1152 -0.1921 -0.2263
20529W        W39276   6.311   1.702  24.321 -0.0329 -0.1340  0.2373
20530W        W39277  22.788  24.340   3.225 -0.3936 -0.1375 -0.3942
20531W        W39278   7.783  20.085   2.655  0.1400 -0.0673  0.0468
20532W        W39279  14.523   6.104  20.463  0.1539 -0.1610  0.0951
20533W        W39280  21.417   7.480  18.871  0.1133  0.0520  0.0882
20534W        W39281  31.074   2.841  23.452 -0.2387  0.3130 -0.1680
20535W        W39282  17.626  12.740   6.984  0.0018  0.0254  0.1087
20536W        W39283  16.610  12.387  14.117 -0.0815  0.1067 -0.0624
20537W        W39284  20.838   1.933  15.236  0.0972 -0.1229  0.2064
20538W        W39285  22.121  26.083  16.570 -0.3697 -0.1010  0.1792
20539W        W39286  17.441  14.175  20.058  0.1928  0.1281  0.0110
20540W        W39287  22.936  14.763  24.308 -0.1431 -0.0433  0.0789
20541W        W39288   7.269  10.620  24.597  0.2806  0.2179 -0.0776
20542W        W39289  25.627  27.238  11.366  0.1288 -0.2491 -0.3026
20543W        W39290  16.890   9.646  21.266  0.0687  0.0754  0.0969
20544W        W39291  28.073   3.140  13.765 -0.2681 -0.2287 -0.1087
20545W        W39292  30.507  12.782   8.904 -0.0859 -0.1829 -0.2199
20546W        W39293   4.699   0.798  22.262 -0.0362  0.1505 -0.2175
20547W        W39294  17.644  11.615   5.056 -0.1187 -0.2180 -0.0266
20548W        W39295   9.284  12.875  13.773  0.1489  0.3261 -0.2011
20549W        W39296  23.285  24.286  15.447 -0.1400 -0.0411  0.0127
20550W        W39297  12.125  24.368   8.125  0.1103  0.0889  0.0927
20551W        W39298   8.705   8.100  18.802  0.3676 -0.1184 -0.2123
20552W        W39299  32.265  34.549   1.385 -0.3749 -0.1015  0.1127
20553W        W39300  31.558  32.331  21.849 -0.0641  0.1922 -0.3545
20554W        W39301  30.497   0.657   5.529 -0.1484 -0.1001 -0.2148
20555W        W39302  29.865  13.349   7.630 -0.3266 -0.1260  0.1177
20556W        W39303  10.193  15.220  22.442 -0.2605 -0.0257 -0.0467
20557W        W39304  30.454   9.115  14.429  0.2151  0.0712  0.2088
20558W        W39305  28.883   9.200  21.947  0.3467  0.0543  0.0695
20559W        W39306  20.393   5.566   5.136  0.1071 -0.0459 -0.0961
20560W        W39307  23.321  33.408  13.909  0.1368  0.0157  0.2364
20561W        W39308  30.509   1.006  23.334 -0.0035  0.0836 -0.0092
20562W        W39309   8.207   4.251   6.703  0.2833  0.3922  0.0596
20563W        W39310   6.173  18.241   2.873  0.1723 -0.3811 -0.0146
20564W        W39311  22.826   7.055  16.143 -0.0701 -0.4007  0.1937
20565W        W39312  30.465  35.331  17.095 -0.1217  0.1802  0.0013
20566W        W39313  13.206  27.483   7.958 -0.1823  0.1546  0.1490
20567W        W39314  32.299  26.930  24.174 -0.2284  0.0368  0.1376
20568W        W39315   5.809   3.213   0.612 -0.0588  0.1658  0.0298
20569W        W39316   9.257  30.420   2.039 -0.1805  0.0606 -0.0153
20570W        W39317  12.607   7.827  20.654 -0.2262  0.1142 -0.0520
20571W        W39318  34.819   5.167  23.354  0.0345  0.0259  0.0498
20572W        W39319  22.083  22.528  24.547 -0.0896  0.1837 -0.2401
20573W        W39320  19.020   2.806  20.857 -0.1012  0.2264  0.1341
20574W        W39321  10.207  31.323   6.171 -0.1725  0.0597 -0.1104
20575W        W39322  34.936  27.620  21.992  0.1740  0.0111 -0.2222
20576W        W39323  32.204  32.818  12.766 -0.2639 -0.1222  0.0572
20577W        W39324  34.347   2.103   1.451 -0.0244 -0.2900  0.2445
20578W        W39325  18.769  14.349   9.878 -0.0696  0.2063 -0.1176
20579W        W39326  28.003   6.131  25.657 -0.4061  0.1426 -0.2462
20580W        W39327  18.125  13.088  23.724 -0.0733  0.0892 -0.0105
20581W        W39328  31.064  31.452  19.025  0.2739  0.0409  0.1924
20582W        W39329   8.938  31.862  11.297 -0.2605  0.1877  0.0740
20583W        W39330   0.671  11.780  19.671 -0.2339 -0.1646 -0.1637
20584W        W39331  24.842   5.662  16.167  0.1124  0.0789 -0.3997
20585W        W39332   8.879  33.124   2.265  0.3710  0.2028 -0.1128
20586W        W39333  15.358  28.322  24.091  0.0122 -0.0082  0.0335
20587W        W39334  14.366   4.998  20.830  0.0673 -0.0140 -0.2013
20588W        W39335   2.080   1.221   4.796 -0.0199 -0.0483 -0.1102
20589W        W39336  30.304   1.651   0.454  0.0124  0.1260  0.2662
20590W        W39337  10.546  22.622  14.909  0.0128  0.0135  0.2738
20591W        W39338  12.778  10.041   1.707  0.0929  0.1197  0.1701
20592W        W39339  11.413  19.274  12.738  0.4174  0.5899 -0.1082
20593W        W39340  20.203  32.284  20.680 -0.0111 -0.4212  0.3089
20594W        W39341  22.541  11.227  21.096 -0.0893  0.0010  0.3658
20595W        W39342  13.608   1.677   8.664 -0.2101  0.1375  0.1309
20596W        W39343  25.591   4.961  22.680 -0.1078 -0.3546 -0.4857
20597W        W39344  33.828  14.888  10.438 -0.0699  0.5111 -0.3237
20598W        W39345  17.864  17.700  10.682 -0.0658  0.0737 -0.1464
20599W        W39346   5.000  29.263   7.444 -0.0169 -0.1636 -0.0400
20600W        W39347  12.536  30.955  22.356  0.0995  0.2030 -0.0295
20601W        W39348  34.164  32.441  17.238  0.2716  0.0422 -0.0443
20602W        W39349  28.565  19.049  12.239  0.3348  0.0749  0.0148
20603W        W39350  34.677  24.864  12.624  0.0278 -0.0164  0.1219
20604W        W39351   1.350  34.670  24.226 -0.0097 -0.1433 -0.2577
20605W        W39352  32.426  19.515  22.640  0.0836  0.1708  0.0574
20606W        W39353  14.852   1.151  25.226 -0.0092 -0.3022  0.0765
20607W        W39354  13.928  10.547  10.138  0.0584  0.0896  0.1707
20608W        W39355   5.987  10.849   9.491 -0.0863 -0.0985  0.2605
20609W        W39356  31.097  33.651   2.734  0.0677 -0.0309  0.1367
20610W        W39357   7.249  12.852   0.308 -0.0355  0.0332  0.0846
20611W        W39358  23.847  29.636  25.204  0.1632  0.1751 -0.1022
20612W        W39359   7.532   4.777  21.697 -0.1827  0.0332 -0.0021
20613W        W39360  26.793  33.435  19.504  0.0739 -0.1272 -0.1744
20614W        W39361   5.073   0.456  21.341 -0.1992  0.2625  0.4331
20615W        W39362  26.114   3.427   5.198  0.2092 -0.0640  0.1770
20616W        W39363  31.991  15.029   8.088 -0.1721  0.2753  0.2741
20617W        W39364   8.500  26.814   4.506 -0.3267 -0.4781 -0.0051
20618W        W39365   1.890  31.023  18.677  0.1028 -0.0133 -0.1272
20619W        W39366  14.727  34.632  24.817  0.0185 -0.0942  0.4339
20620W        W39367  29.199   6.444  16.939 -0.0641  0.0700 -0.0718
20621W        W39368  21.776   5.863  23.448 -0.0867 -0.0164  0.2633
20622W        W39369   8.562  12.693  20.602 -0.0272 -0.0841 -0.2239
20623W        W39370  32.226  18.427  24.873 -0.0710  0.0685  0.1271
20624W        W39371  22.524   6.313  22.365  0.0797  0.1213  0.1900
20625W        W39372   7.665  19.482   4.226 -0.5869  0.1637  0.2974
20626W        W39373  34.497   3.179   0.032  0.0367  0.2604  0.2570
20627W        W39374  14.166   4.258  12.441  0.0534  0.0490  0.1774
20628W        W39375  24.597   4.339  19.458  0.1314  0.0257 -0.0540
20629W        W39376  23.805  32.136  25.282 -0.1115 -0.0888 -0.3202
20630W        W39377   6.605   2.294  11.533  0.0808  0.1376 -0.1032
20631W        W39378   4.419  30.146  24.585 -0.0147 -0.2026 -0.0716
20632W        W39379   1.547  14.357  17.773  0.1345  0.3926 -0.1474
20633W        W39380   2.719  23.749  16.902  0.1746 -0.2661  0.3653
20634W        W39381  28.862  23.599  19.595 -0.3202  0.1654  0.0947
20635W        W39382   5.908  19.481   4.856  0.4143 -0.2035 -0.0466
20636W        W39383   3.450   5.881   5.760 -0.0367  0.5446 -0.0196
20637W        W39384   8.178  27.724   8.571 -0.3017 -0.2132  0.4019
20638W        W39385  11.868  25.599   2.368  0.1852  0.2688  0.1441
20639W        W39386  15.030  16.870  23.248  0.2283 -0.2226 -0.2927
20640W        W39387   1.300   0.331   2.212  0.0138 -0.0401 -0.0482
20641W        W39388  19.043  10.305  20.707  0.0946  0.0057 -0.2770
20642W        W39389  27.783  17.998  10.741 -0.0483 -0.1262 -0.0548
20643W        W39390  22.033   4.535   4.765  0.1804 -0.3122 -0.1296
20644W        W39391  34.981   5.101  20.149  0.0861  0.2193 -0.0056
20645W        W39392  21.367   7.316  15.731 -0.1189 -0.0486  0.3082
20646W        W39393  24.861  23.431  19.621 -0.1631 -0.1967 -0.2479
20647W        W39394  28.193  16.825   4.594  0.0714  0.3899 -0.2192
20648W        W39395  30.270   3.816  11.321 -0.2089  0.1854 -0.0849
20649W        W39396   7.911   2.954  15.129  0.1179 -0.1207  0.1319
20650W        W39397  19.038  14.507   8.888 -0.3474  0.1653  0.2045
20651W        W39398  18.104   7.604   6.117  0.0605  0.1666  0.2121
20652W        W39399   2.989   0.326  11.488  0.3876  0.1974 -0.1855
20653W        W39400  15.977  13.692  23.512  0.4508  0.3114 -0.2707
20654W        W39401   8.153   6.910  10.039 -0.0677  0.0697  0.0020
20655W        W39402  10.328   8.952  24.000 -0.0721 -0.0092  0.2662
20656W        W39403  24.199  28.231  22.243 -0.0050  0.0735 -0.0153
20657W        W39404  28.077  24.474  25.951  0.5074  0.2425 -0.1064
20658W        W39405  23.307  31.349  22.965 -0.2185 -0.1416 -0.0079
20659W        W39406  27.138  24.599  13.698 -0.1159 -0.1449 -0.4351
20660W        W39407  22.662  12.828  14.032  0.1045  0.3165  0.1038
20661W        W39408  12.713   2.860   6.001 -0.0393  0.0753 -0.0765
20662W        W39409  33.148   2.552   3.180 -0.2337 -0.0395  0.1290
20663W        W39410  35.237  10.666  19.467  0.2170  0.2208  0.0607
20664W        W39411   5.111  18.506  25.317 -0.1818  0.0298  0.2874
20665W        W39412  16.606  29.779  25.592 -0.2401  0.2306  0.0649
20666W        W39413  15.766  13.908  22.633 -0.0709  0.2950  0.0254
20667W        W39414   6.982  17.462   7.257  0.3721  0.0762  0.0280
20668W        W39415   1.616  19.825  23.028  0.0261 -0.0516  0.2228
20669W        W39416  33.070  17.229   6.938 -0.1401 -0.0214  0.0080
20670W        W39417  26.462   6.715  25.729  0.0698  0.1894 -0.0814
20671W        W39418  30.782  12.521  24.301  0.1474  0.0604  0.1106
20672W        W39419  29.822  16.540  11.545  0.1964 -0.0186 -0.0204
20673W        W39420  27.987  11.679  11.469  0.0847 -0.0840  0.1981
20674W        W39421   0.663  12.019  24.646  0.2942 -0.3321  0.2640
20675W        W39422   6.967   4.834  24.166 -0.0089 -0.2208 -0.0935
20676W        W39423  31.359  21.564  22.251 -0.0003 -0.1305  0.0404
20677W        W39424   8.349  19.045   1.637  0.1297  0.2212  0.1416
20678W        W39425  27.741  26.617   1.654  0.1301 -0.1001 -0.4121
20679W        W39426   3.252   3.718   5.047  0.1809 -0.4781 -0.0609
20680W        W39427  19.088  29.594  23.298 -0.0747 -0.1002  0.2659
20681W        W39428  25.157   3.746  24.878  0.2112  0.0015  0.0090
20682W        W39429   0.449  22.332  12.916  0.0928  0.2873 -0.3746
20683W        W39430  15.054  16.327   2.649  0.1075  0.3141  0.1285
20684W        W39431   2.141  25.046   4.313  0.0886 -0.0570 -0.2684
20685W        W39432  27.861  27.544  16.587  0.1203  0.2048  0.0301
20686W        W39433  13.865  29.620  22.639 -0.0121 -0.1907  0.1158
20687W        W39434  19.082   4.853   0.149  0.2746  0.5323 -0.1123
20688W        W39435  10.486   0.453  10.408 -0.0181  0.2166 -0.2499
20689W        W39436  15.506   6.278  10.961 -0.4209  0.0434 -0.0022
20690W        W39437   0.984  17.142  13.824  0.0829  0.0128  0.3598
20691W        W39438  17.746   7.624  25.047  0.1189  0.3263  0.0141
20692W        W39439  15.111  30.766   0.591 -0.1336  0.1398 -0.3005
20693W        W39440   0.955   4.603   3.694 -0.1844 -0.1079 -0.2182
20694W        W39441  28.910  27.062  13.011 -0.1034 -0.2193  0.1970
20695W        W39442  13.417   2.474   0.511 -0.1834 -0.0563 -0.0631
20696W        W39443  31.912  29.462  11.515 -0.4733 -0.0998 -0.0506
20697W        W39444   8.124  31.564   7.653 -0.0558 -0.1902 -0.1837
20698W        W39445  21.276  14.795  15.078  0.0877  0.1269 -0.0837
20699W        W39446   2.498  28.549   8.608  0.4433  0.0184 -0.2849
20700W        W39447  27.656  29.634  20.128  0.1487  0.1449 -0.0152
20701W        W39448  20.329  33.049  24.558 -0.1716 -0.0581 -0.1831
20702W        W39449  24.598  18.048  22.467  0.3712 -0.0477  0.1508
20703W        W39450   9.187  14.592   7.907 -0.2075 -0.2625  0.0545
20704W        W39451  16.833  19.004   0.672  0.4274 -0.4067  0.3683
20705W        W39452  29.761   9.808  11.839 -0.0948 -0.2813  0.0852
20706W        W39453  19.873  11.266  26.207 -0.0825 -0.2092 -0.2901
20707W        W39454  13.582   6.496  25.898 -0.1647 -0.0691 -0.1783
20708W        W39455  27.933  13.518  20.157  0.1779 -0.0122 -0.0575
20709W        W39456  14.079  17.388  20.221 -0.0834  0.0778  0.1344
20710W        W39457  19.159   8.153   4.408 -0.2603 -0.1814 -0.1375
20711W        W39458  22.141  24.514  17.078 -0.1649 -0.0210 -0.1100
20712W        W39459   5.420   8.395  24.575  0.1685  0.2197 -0.4026
20713W        W39460   5.980  22.394  23.257  0.0028  0.2788  0.4645
20714W        W39461  12.610  29.351   8.840 -0.0488  0.2045 -0.1325
20715W        W39462  19.939   8.357  21.124 -0.3418 -0.1584 -0.0946
20716W        W39463  16.181  14.866  21.822  0.3104 -0.1187  0.1776
20717W        W39464  28.263   5.905  24.546  0.1763 -0.1585 -0.1780
20718W        W39465  22.553   8.903  16.216  0.1030 -0.0188  0.1216
20719W        W39466   7.427  14.591   3.793 -0.0804  0.0441 -0.2245
20720W        W39467  35.109  17.997  17.926  0.1277 -0.1964 -0.1029
20721W        W39468   3.722  30.541   1.562 -0.0160 -0.0587  0.3539
20722W        W39469   8.095  34.439  20.109  0.0988 -0.1942  0.0992
20723W        W39470  11.096  20.365   5.032 -0.1291 -0.2035  0.0282
20724W        W39471  33.939  28.132  20.123 -0.0970  0.0248 -0.0928
20725W        W39472  12.424   5.718  11.758  0.2612 -0.2560  0.2959
20726W        W39473  18.463  27.376  24.815 -0.2356  0.4104  0.1211
20727W        W39474   7.762  28.386  13.675  0.1963  0.2514  0.2467
20728W        W39475  15.008  14.443   8.185 -0.0924 -0.0179  0.2714
20729W        W39476  19.124   0.116  25.792  0.0577 -0.1708  0.3464
20730W        W39477   9.009  28.536   0.386 -0.1727  0.2622  0.3791
20731W        W39478  16.112   6.781   7.053 -0.2630 -0.2992 -0.0315
20732W        W39479  24.361  22.858  15.873  0.0874  0.0133 -0.1088
20733W        W39480  34.753  27.877  22.587 -0.1421 -0.1292  0.0693
20734W        W39481   6.760  19.757   1.996  0.3009 -0.0723  0.1270
20735W        W39482  30.972  28.773  22.933  0.1497 -0.2376 -0.1534
20736W        W39483   8.736  28.611  26.229  0.0885  0.1227 -0.1328
20737W        W39484  28.671  29.908  15.593 -0.1194  0.0720  0.1084
20738W        W39485  21.680   8.102  18.681 -0.2427 -0.2043  0.1194
20739W        W39486  15.248   5.456   5.914 -0.0652  0.2477  0.1253
20740W        W39487  31.663   1.192  20.342  0.0614 -0.1554  0.2702
20741W        W39488  32.416  29.148   3.114  0.1203 -0.2300 -0.1337
20742W        W39489  31.804   2.358  11.876 -0.0900  0.1906  0.3185
20743W        W39490  34.123  19.141   7.244 -0.1125 -0.2425  0.1834
20744W        W39491  13.860   9.169  23.714  0.3159  0.1569  0.3888
20745W        W39492  10.539   5.646  21.841  0.2089 -0.0459  0.1041
20746W        W39493  31.065  23.041  20.465  0.2674 -0.0435 -0.0902
20747W        W39494   0.983  35.134   4.013 -0.0245  0.0899  0.1439
20748W        W39495  21.907  10.015   0.195 -0.2734  0.0427  0.3117
20749W        W39496  21.216   2.222   6.092 -0.0287  0.0221 -0.0076
20750W        W39497  16.854  33.390   6.418  0.0086 -0.1590  0.1734
20751W        W39498  17.942  24.615  13.168  0.1198  0.0555  0.1557
20752W        W39499  10.535  16.954   8.153  0.2651 -0.1669  0.2571
20753W        W39500  15.815   8.406  12.899 -0.0675 -0.0482  0.1274
20754W        W39501  25.732   9.229  12.816 -0.1328  0.2187 -0.1462
20755W        W39502   5.402   3.108  25.193  0.1069  0.1283 -0.3039
20756W        W39503  20.246   6.194  16.471  0.2219 -0.3645  0.2891
20757W        W39504  13.036  19.300  20.580 -0.0563  0.1086 -0.1291
20758W        W39505  29.653   3.276  21.957  0.0418 -0.4614  0.2834
20759W        W39506  29.229  21.544  10.867  0.0650 -0.2544 -0.0788
20760W        W39507  26.802  15.867  17.088  0.0335  0.0313 -0.5240
20761W        W39508  16.301  31.643  21.200  0.2485 -0.1831  0.0209
20762W        W39509  12.388  23.950   9.119 -0.1348  0.1208  0.2277
20763W        W39510  29.646  19.385  19.091 -0.1253 -0.1288 -0.1858
20764W        W39511  32.098  26.715  15.490  0.0625  0.0449 -0.0267
20765W        W39512  19.000  29.434   7.266 -0.3395  0.0983 -0.1218
20766W        W39513   4.082  19.510  18.337  0.1136  0.1373  0.1131
20767W        W39514  15.089   4.632   8.799  0.1788  0.2327  0.1061
20768W        W39515  23.824   2.696  16.492  0.1640 -0.2292 -0.2520
20769W        W39516  15.455  23.032  11.492  0.0284 -0.1980  0.0698
20770W        W39517  31.831  18.814  25.705 -0.2143  0.1325  0.2330
20771W        W39518  32.988  32.833  23.333  0.1141  0.0865  0.1430
20772W        W39519  17.074  35.156   3.058 -0.0258  0.2054 -0.0577
20773W        W39520  23.246  24.139  20.030  0.0541 -0.1760 -0.2096
20774W        W39521  23.669  32.597  17.391 -0.1157 -0.4040  0.0848
20775W        W39522  31.894  21.024   6.644 -0.0835 -0.2228  0.1076
20776W        W39523   0.857   3.524  15.301  0.0455  0.0405 -0.1938
20777W        W39524  14.541  31.551   4.024  0.0274 -0.4773  0.2547
20778W        W39525  16.751   6.044   5.851 -0.1842  0.0235  0.0493
20779W        W39526  15.259  26.837   6.153  0.0405 -0.3137 -0.0453
20780W        W39527  32.416  26.005  25.479  0.0683 -0.0957  0.1107
20781W        W39528   8.346   3.838  10.750 -0.2382 -0.1620 -0.1206
20782W        W39529  16.774  16.704  21.714 -0.2246  0.2823  0.1270
20783W        W39530  19.876  19.757  21.182  0.1747 -0.2308 -0.2811
20784W        W39531  12.754  10.635   8.458  0.0580 -0.1276  0.1320
20785W        W39532  23.985  19.864  17.856 -0.2155 -0.1569  0.0620
20786W        W39533  17.693  14.726  10.577  0.1034 -0.2560  0.2239
20787W        W39534  31.637  23.609  16.225  0.2897  0.0627  0.3649
20788W        W39535  30.690  21.915   8.421  0.4682  0.0907 -0.0416
20789W        W39536  16.493  28.051   3.479  0.0238  0.0884  0.0748
20790W        W39537  33.505   9.646  15.252 -0.1256 -0.2207  0.1399
20791W        W39538  29.511  31.473  18.023  0.2464  0.1012  0.0081
20792W        W39539   5.978   9.977   2.052  0.2187 -0.2883  0.5446
20793W        W39540  25.152  29.451   1.177  0.2560  0.1693  0.0518
20794W        W39541   9.675  11.643  12.801  0.1204 -0.5096  0.2852
20795W        W39542  19.831  11.529   9.309  0.1602 -0.2707 -0.3006
20796W        W39543   3.793  25.398  23.985 -0.0531 -0.2435 -0.1212
20797W        W39544  10.119  14.553  12.604  0.0423 -0.1744 -0.1147
20798W        W39545  27.629  35.093   0.701  0.0568 -0.0200 -0.1951
20799W        W39546  31.190  33.704  13.865 -0.2946  0.1534 -0.4205
20800W        W39547  14.194  11.183  19.256 -0.0907  0.4169  0.0913
20801W        W39548  17.870  27.424   1.314  0.2105  0.3452  0.4353
20802W        W39549  33.128  21.072  19.579 -0.2378  0.2791 -0.0565
20803W        W39550  27.928  24.529  15.634  0.0184 -0.3438 -0.1405
20804W        W39551  12.930  13.619  23.829  0.1052 -0.2185 -0.1549
20805W        W39552  21.280  25.498   0.602  0.1960  0.0679 -0.0475
20806W        W39553   3.284  32.208  24.461  0.2543  0.2641 -0.1274
20807W        W39554  24.857   0.590   6.736 -0.1220  0.2208  0.1427
20808W        W39555  24.775  13.376  21.929  0.0509 -0.0817 -0.1036
20809W        W39556  24.579  24.891   0.098  0.2353  0.2359 -0.2255
20810W        W39557   7.811  19.174   7.512 -0.0155 -0.1348  0.2050
20811W        W39558  19.655  28.174  20.380  0.3479 -0.1067  0.2198
20812W        W39559   0.549  24.540  19.143 -0.1808 -0.0110 -0.3381
20813W        W39560  15.777  21.412  12.292  0.1191  0.2418  0.2264
20814W        W39561  10.439  13.848   1.650 -0.0113  0.3587  0.0151
20815W        W39562   8.532   4.523   1.732 -0.2087  0.0449 -0.3590
20816W        W39563   8.290   0.290  13.183 -0.1298 -0.2676  0.0097
20817W        W39564  34.398  11.824   8.606  0.0637  0.1699  0.2208
20818W        W39565   1.712   9.063  14.157 -0.2934 -0.0145 -0.0197
20819W        W39566  34.666   8.873  15.094  0.0316 -0.1780  0.2593
20820W        W39567  11.347  11.726   1.320  0.2036 -0.1029 -0.1458
20821W        W39568  32.415  21.271   5.786  0.2371  0.1965  0.1868
20822W        W39569   1.051   4.018  17.699  0.0412  0.0730 -0.1941
20823W        W39570  18.596  32.014  23.863 -0.1237 -0.1706 -0.3764
20824W        W39571  18.139  34.123   5.376  0.0434  0.1701 -0.0058
20825W        W39572  15.726  30.383   9.510  0.0506  0.2710 -0.0412
20826W        W39573  10.451   0.073   8.702  0.1575 -0.1243 -0.1232
20827W        W39574   5.279   9.575  25.672  0.3226  0.3320  0.5142
20828W        W39575  29.135  34.668  18.551  0.2203  0.2048 -0.2071
20829W        W39576   7.606  35.296   4.062 -0.0391  0.3168  0.1842
20830W        W39577   5.525   1.455   0.383 -0.2364 -0.0045 -0.0693
20831W        W39578  19.801  34.008   5.381 -0.0627 -0.0424  0.0766
20832W        W39579  15.862  14.921  18.887 -0.0477 -0.1858 -0.0011
20833W        W39580  26.932  27.162  24.002  0.0112 -0.1968  0.1328
20834W        W39581   2.775  30.908  25.933  0.0596  0.3410  0.1573
20835W        W39582  21.051  31.136  15.698  0.3904 -0.1123  0.1077
20836W        W39583  16.314   7.046  11.875  0.2251 -0.3133  0.1822
20837W        W39584   6.211   9.926   3.651 -0.0101 -0.3731 -0.1441
20838W        W39585  12.809   7.971  20.226  0.1139 -0.0417  0.3205
20839W        W39586  32.780  32.582  25.515 -0.0075 -0.0687  0.0069
20840W        W39587  22.594   0.096   6.211  0.1622 -0.1170 -0.3873
20841W        W39588  33.794  19.574  22.068 -0.2694 -0.0071 -0.0327
20842W        W39589   2.900  14.113  19.966  0.1912  0.4875  0.0356
20843W        W39590  25.856  30.360  12.019 -0.1213 -0.0107 -0.0061
20844W        W39591  33.997  13.688   7.661  0.3182 -0.0519  0.2408
20845W        W39592  31.324  24.741  16.452  0.0684  0.2037  0.0682
20846W        W39593   5.086  26.164   5.899 -0.5044 -0.0619 -0.0574
20847W        W39594  21.377   8.169  23.251  0.0330  0.3413  0.0721
20848W        W39595  16.014  29.889  21.897 -0.1559  0.0183 -0.3520
20849W        W39596   9.899   7.245   8.742  0.0072 -0.4177 -0.0493
20850W        W39597  10.752   1.345  12.040 -0.1810 -0.1692  0.0482
20851W        W39598   3.649  11.699  21.831 -0.1523 -0.3133  0.0275
20852W        W39599  31.138  19.928   8.277 -0.1829  0.0373 -0.0057
20853W        W39600  35.178  25.282  15.862  0.0500 -0.0641 -0.0623
20854W        W39601  16.917   4.827  11.255  0.3090 -0.0913  0.1834
20855W        W39602   6.954   2.132  24.532  0.2006  0.1942  0.0112
20856W        W39603  11.371  13.719  14.074 -0.0215  0.1054  0.0286
20857W        W39604  17.605  24.133   9.823 -0.2206  0.2446 -0.0793
20858W        W39605  10.008  12.912  21.689 -0.1667  0.0238 -0.0852
20859W        W39606  23.254  28.189  14.665  0.2065 -0.0012 -0.3357
20860W        W39607  24.986  17.042  12.289  0.3370 -0.1641 -0.0514
20861W        W39608  19.948  10.325  26.239 -0.0113 -0.2177 -0.4328
20862W        W39609  27.426  15.480  23.898 -0.2237 -0.4618 -0.2460
20863W        W39610  26.905  33.587  18.715 -0.1826 -0.2527  0.0755
20864W        W39611  14.543  18.141  23.828 -0.2585 -0.0511  0.0732
20865W        W39612  33.520  31.436  21.323 -0.1070 -0.0944 -0.1900
20866W        W39613   8.862  33.181   4.701  0.1703 -0.2410  0.1310
20867W        W39614  32.405  27.403  23.532 -0.0198 -0.1741  0.0656
20868W        W39615   6.293  18.227   9.460 -0.0619 -0.0193  0.0916
20869W        W39616  14.804  16.597  13.961  0.1741 -0.2397  0.3752
20870W        W39617  31.770  17.184   7.634 -0.0232  0.0720 -0.0396
20871W        W39618  10.061  33.199   3.020 -0.2300  0.0984 -0.1708
20872W        W39619  29.878  11.643  19.383  0.0235 -0.2673 -0.0229
20873W        W39620  21.930  17.302  25.467 -0.0041 -0.0402 -0.0231
20874W        W39621  22.166  20.988  25.123  0.2171  0.1273  0.0646
20875W        W39622   6.793   7.690   4.839  0.1249  0.2148  0.2965
20876W        W39623  23.212  14.069  17.232  0.1716  0.1565  0.0551
20877W        W39624  29.375  20.726  16.316 -0.3247  0.2337 -0.1447
20878W        W39625  15.694   3.079   1.700 -0.1648 -0.2267 -0.4042
20879W        W39626  31.136  21.260   6.981  0.1372  0.5126  0.0787
20880W        W39627   7.813  14.454   4.797  0.1673  0.3564  0.0142
20881W        W39628   4.330   8.889   7.556 -0.0986 -0.0703  0.0226
20882W        W39629  35.148  24.843  22.955  0.1706 -0.1978 -0.1094
20883W        W39630  25.261  25.659  10.305  0.0236  0.0851 -0.0039
20884W        W39631  19.582   5.545   1.230 -0.0643  0.0612 -0.0735
20885W        W39632  28.398   0.959  16.710 -0.1708 -0.1840 -0.0218
20886W        W39633   6.395   8.996   0.722  0.1054  0.0424 -0.0854
20887W        W39634  32.998  18.400   7.764  0.0527 -0.0103  0.0865
20888W        W39635  25.055  16.662  13.633 -0.1784 -0.2183  0.0366
20889W        W39636  23.367  26.755  13.982 -0.0439  0.1892  0.0182
20890W        W39637  21.742  34.493  22.331  0.0821 -0.0726  0.0727
20891W        W39638   1.051  11.289  23.767  0.1137  0.0800 -0.4667
20892W        W39639   0.745   0.524  21.036  0.1562 -0.0827  0.1019
20893W        W39640  12.399  16.796  21.717 -0.0241 -0.1228 -0.2575
20894W        W39641  13.342  32.470   2.090  0.2977  0.0048  0.3861
20895W        W39642  35.307  32.634  18.236  0.1794 -0.1801  0.0062
20896W        W39643  10.409   6.606  12.904  0.0827 -0.3672 -0.1290
20897W        W39644  12.004  15.287  22.428 -0.1988 -0.1589  0.1243
20898W        W39645  28.269   6.039  19.081  0.1224  0.1607 -0.0199
20899W        W39646   4.159  33.936  24.513  0.2569  0.3995  0.2959
20900W        W39647   0.833   1.437  19.946 -0.2432 -0.0805 -0.4516
20901W        W39648  13.554  18.246  10.110  0.1898  0.0083 -0.0345
20902W        W39649  28.886  31.853  23.326 -0.2877 -0.0573  0.1994
20903W        W39650  30.098  26.620   1.920 -0.0830  0.2264  0.0779
20904W        W39651  14.489   5.780  24.770  0.0643 -0.0385  0.2110
20905W        W39652  25.445   7.165  18.397  0.4050  0.2573  0.2761
20906W        W39653  33.245  35.272  21.759 -0.1791  0.1784  0.3615
20907W        W39654  26.080  20.284  22.658 -0.1913  0.0330  0.2077
20908W        W39655  30.806  18.434  14.684  0.1750  0.2393  0.1635
20909W        W39656  17.110  16.459  10.838  0.1369  0.0258 -0.1093
20910W        W39657  24.738   0.716   5.440 -0.0078 -0.1011 -0.1902
20911W        W39658   6.538  22.466   8.795 -0.0516 -0.0148 -0.0620
20912W        W39659  18.801   3.722  16.763 -0.3684 -0.0912 -0.0456
20913W        W39660  18.610  31.486  18.554  0.2178 -0.2667  0.0239
20914W        W39661  28.399  24.500  16.503 -0.1367  0.0605  0.1652
20915W        W39662  25.691   5.116  13.553 -0.0582 -0.1493  0.0826
20916W        W39663  31.029   2.256   1.218 -0.0938 -0.1739 -0.0663
20917W        W39664  10.639  33.109  23.766  0.0253  0.0130 -0.3926
20918W        W39665   8.171  32.536   7.118  0.1399  0.2071  0.2487
20919W        W39666  24.106  27.861  25.246 -0.0058  0.1277  0.1256
20920W        W39667  11.963  25.971  12.718  0.2432 -0.0744  0.0211
20921W        W39668   6.262  10.981   2.307  0.1048  0.0481 -0.5639
20922W        W39669  10.668  12.325  25.507 -0.1157  0.1864 -0.0216
20923W        W39670  19.126  20.383  20.023 -0.1533  0.0619 -0.3526
20924W        W39671  16.608  25.805   8.514  0.1647  0.2456 -0.0861
20925W        W39672  24.577  29.370  19.098 -0.1651  0.3139 -0.0349
20926W        W39673  34.013  25.051  20.332 -0.0998  0.2059 -0.1743
20927W        W39674  27.937  29.673  23.388 -0.3006  0.3987  0.0435
20928W        W39675  14.640  26.649   1.233 -0.1391  0.0001 -0.1598
20929W        W39676  33.139   4.322  11.503  0.0036  0.2224 -0.0484
20930W        W39677   5.942  30.600  22.364 -0.0121  0.1760 -0.2457
20931W        W39678  20.068  17.449   5.270  0.0055  0.0624  0.0918
20932W        W39679  11.074  28.317  15.459 -0.2030  0.0473  0.2544
20933W        W39680   6.846   5.923   3.169  0.3150 -0.2208  0.0033
20934W        W39681  21.671  17.029  21.780  0.0009 -0.1702  0.0675
20935W        W39682  10.395  23.617  11.725 -0.1149  0.0952  0.1326
20936W        W39683  28.333  29.928  13.978 -0.2001  0.0217  0.0714
20937W        W39684   5.397  16.401  17.878 -0.2613 -0.0178  0.2495
20938W        W39685  30.206   4.357  23.297 -0.1211  0.1878 -0.3751
20939W        W39686  13.785  32.057   2.447 -0.2533  0.0334  0.4460
20940W        W39687  21.191   5.212   2.136 -0.2243 -0.0311 -0.6887
20941W        W39688  35.019  28.298  21.301  0.2136  0.2516 -0.0186
20942W        W39689  17.538  30.579   7.638 -0.0648  0.0579  0.0779
20943W        W39690  25.987  23.335  18.603  0.0602 -0.0611 -0.0689
20944W        W39691  32.287  16.731  24.480  0.0037 -0.2519  0.0768
20945W        W39692  29.379  34.347  12.499 -0.2007 -0.0989  0.1485
20946W        W39693   7.636   2.264  22.088  0.1363 -0.0771  0.1569
20947W        W39694  24.631   9.408   0.478  0.1845  0.1452  0.2297
20948W        W39695   5.045  32.332  23.819  0.3077  0.3252 -0.1816
20949W        W39696  17.226  35.318  25.849  0.0325 -0.2477  0.0195
20950W        W39697  28.142  23.124  13.175  0.0205 -0.1186  0.0868
20951W        W39698  25.382  27.814  21.701 -0.0247  0.0809 -0.3146
20952W        W39699   6.559  17.775   0.358 -0.2575 -0.0176 -0.0450
20953W        W39700   2.774  17.631  25.444  0.1045  0.0871  0.2917
20954W        W39701  11.893  19.536   4.823  0.1710  0.1496 -0.3039
20955W        W39702  24.697  13.027  24.956  0.0659  0.3522  0.2412
20956W        W39703  31.480  33.782  20.806  0.0785 -0.2634  0.1868
20957W        W39704  22.903  19.097  24.444  0.2030  0.1164 -0.1722
20958W        W39705  24.424   9.043  13.253 -0.1379 -0.0172 -0.0361
20959W        W39706  32.120   9.393  17.437 -0.0324  0.0096 -0.0579
20960W        W39707   1.153  25.114  15.387 -0.0517  0.1227 -0.1176
20961W        W39708   1.241  11.944  20.787 -0.3673  0.2030  0.1256
20962W        W39709  18.623  26.583  21.619 -0.2292 -0.1817  0.0565
20963W        W39710   7.015   5.044   9.280  0.2913  0.1298  0.1214
20964W        W39711  11.703  27.181  17.083 -0.1906 -0.1483  0.0115
20965W        W39712  10.511  35.365  25.274  0.1913  0.3578 -0.1784
20966W        W39713  30.085  31.862  23.922  0.2706  0.1942  0.0273
20967W        W39714  23.820   0.556   3.805 -0.2050  0.1219  0.1779
20968W        W39715   9.531  23.932  12.964  0.0615  0.1200 -0.1638
20969W        W39716   0.126   6.331   2.544 -0.1063 -0.2526 -0.3031
20970W        W39717  21.588  25.288  18.867  0.0609  0.0829  0.0608
20971W        W39718   6.464  23.017   9.533 -0.0166  0.1760 -0.1428
20972W        W39719  14.286  30.256   6.132 -0.0388 -0.1101 -0.0714
20973W        W39720  25.217  16.835  18.809  0.0522  0.1660  0.0964
20974W        W39721  14.651   1.248  24.598  0.0942  0.1728 -0.2042
20975W        W39722   4.280  23.872   1.280 -0.1279  0.0562  0.0074
20976W        W39723  33.297   0.153   0.159  0.1041 -0.3113 -0.2164
20977W        W39724  31.816  22.799  12.675 -0.0051 -0.0103  0.0480
20978W        W39725  25.386  24.569   1.564 -0.2665 -0.0825  0.2617
20979W        W39726  27.945  20.550  25.627  0.0769  0.2387  0.1576
20980W        W39727  15.702  18.882   7.290 -0.2964  0.0211  0.1939
20981W        W39728  17.430  25.449   9.705  0.1226 -0.2039 -0.0136
20982W        W39729  19.132   7.437  17.183  0.0817 -0.3441  0.4256
20983W        W39730   3.819   1.200  18.911  0.3697 -0.2327 -0.1461
20984W        W39731  33.793  17.809  25.108 -0.4408  0.0156  0.1319
20985W        W39732   7.946  30.672   2.730  0.0214 -0.0715 -0.1257
20986W        W39733  17.268   2.953  23.534  0.1484  0.0597  0.0267
20987W        W39734   6.629  33.487  22.964 -0.1256 -0.0093  0.1496
20988W        W39735  21.893  16.168   4.389 -0.2645  0.2378 -0.3144
20989W        W39736  15.278  24.476  23.960  0.2625  0.2106 -0.0363
20990W        W39737  32.682  13.728  18.654  0.1405  0.0557  0.1727
20991W        W39738  32.139  21.743   0.363  0.0017 -0.1354  0.2285
20992W        W39739  32.457  26.348  10.894 -0.1109  0.1802  0.0763
20993W        W39740  13.861  21.316  23.173  0.1519 -0.2713 -0.1480
20994W        W39741   3.932   4.198   7.156 -0.1137  0.0956 -0.0896
20995W        W39742  13.088  30.504   7.074 -0.1901  0.2042  0.0475
20996W        W39743  30.204   0.400   4.039  0.0862 -0.0607 -0.3790
20997W        W39744  17.959  13.591  11.683  0.1959 -0.2060  0.2189
20998W        W39745  10.035   8.305  22.931 -0.2028  0.0057  0.0327
20999W        W39746   7.726  20.553  13.416  0.3135 -0.1786 -0.0082
21000W        W39747  32.059  15.993  20.124  0.1975 -0.2017 -0.1252
21001W        W39748  11.052  28.045  15.020 -0.0949  0.1979 -0.3779
21002W        W39749  10.323  13.344  21.767  0.1482 -0.0024  0.1168
21003W        W39750  15.142  17.688  24.451 -0.0048  0.0659 -0.0886
21004W        W39751   9.223   5.549   0.983  0.1343  0.1123 -0.1835
21005W        W39752   3.622  17.693  25.767  0.1338 -0.1769  0.2684
21006W        W39753  33.637  34.838   0.033 -0.1917 -0.3044  0.3383
21007W        W39754   1.888  18.452  17.709 -0.0814 -0.0244 -0.2917
21008W        W39755  29.278  34.055   1.625 -0.1296  0.0505 -0.0279
21009W        W39756  27.268  23.657  12.168  0.0172  0.1332 -0.3127
21010W        W39757  12.250  16.423  20.879 -0.1351  0.0482 -0.0694
21011W        W39758  27.616  13.497   7.627 -0.1179 -0.1847 -0.3004
21012W        W39759  26.526  19.820  13.443  0.0644  0.1830  0.0168
21013W        W39760   0.341   2.948  20.681 -0.0628 -0.3266 -0.3786
21014W        W39761  27.424  21.538  15.382  0.3086  0.0223 -0.0510
21015W        W39762  30.801  25.491  18.940 -0.0996  0.0117 -0.0877
21016W        W39763  15.594  16.056  12.074 -0.2930  0.0807 -0.0597
21017W        W39764  12.821  28.370  17.051  0.0450 -0.0651 -0.0552
21018W        W39765  16.819  22.453   4.356  0.0783 -0.0753  0.0388
21019W        W39766  32.327  25.279   0.171  0.2336 -0.2316  0.1466
21020W        W39767   2.886   4.663   5.007 -0.2889  0.1058 -0.0609
21021W        W39768  13.260  31.574  25.907  0.3977 -0.0890 -0.0024
21022W        W39769  15.661  13.226   5.465  0.1536 -0.0861 -0.0851
21023W        W39770  27.055  24.957  16.865 -0.1533  0.1298  0.0055
21024W        W39771  11.129  26.917  25.299 -0.0145  0.1475 -0.3612
21025W        W39772  31.899  17.665  20.752  0.2072  0.0512  0.0469
21026W        W39773   7.774  24.602   8.680 -0.1012 -0.1745  0.1957
21027W        W39774  20.668  21.125   1.533 -0.0898  0.1068 -0.4045
21028W        W39775  11.365  30.943  24.311 -0.1027 -0.3567 -0.2022
21029W        W39776   6.234  27.255  24.735  0.0067 -0.1887 -0.0531
21030W        W39777  22.009  10.622   6.197  0.1097  0.0153 -0.1330
21031W        W39778  16.890  31.774  22.050  0.0048 -0.0518 -0.0251
21032W        W39779   2.462  32.525   3.313  0.0309 -0.0480 -0.2522
21033W        W39780   5.657   3.564  23.590  0.1933  0.1657  0.2086
21034W        W39781  12.718   4.102  20.406 -0.0606 -0.0456  0.0916
21035W        W39782  20.667  18.922   2.706  0.3261  0.1324  0.1015
21036W        W39783  11.239  25.509   6.304  0.0669 -0.1045  0.2239
21037W        W39784  28.957  33.413  24.529 -0.2268  0.1400  0.1011
21038W        W39785   3.322  18.816  22.268  0.0472 -0.2961 -0.1623
21039W        W39786  32.494  22.611  24.972  0.1642 -0.1014  0.0410
21040W        W39787  33.036  27.612   0.751  0.0611  0.0067 -0.0540
21041W        W39788   7.310   6.208   6.438 -0.3386 -0.2253  0.0631
21042W        W39789  31.534  24.437   9.467  0.2102  0.1652 -0.0682
21043W        W39790   3.636  28.939   1.720  0.0528 -0.1223 -0.1574
21044W        W39791   1.472  33.127   9.171 -0.0455 -0.1130 -0.3604
21045W        W39792  32.011   4.935  24.001  0.0650 -0.3143 -0.0083
21046W        W39793  28.012   1.686   1.726  0.1815  0.0283 -0.0337
21047W        W39794  20.731  18.460   6.194 -0.0737 -0.0178  0.1050
21048W        W39795  28.081  12.094  13.579  0.2489  0.0399 -0.2190
21049W        W39796   1.789  16.488  23.325 -0.2053 -0.3619  0.0724
21050W        W39797   4.145  10.047   1.359  0.3558  0.1447 -0.0034
21051W        W39798  15.732  15.456   4.125  0.3144  0.1253 -0.2631
21052W        W39799  25.256  29.569  23.874  0.2197 -0.1484 -0.1993
21053W        W39800   3.191  12.627  23.219 -0.0149 -0.2098 -0.1966
21054W        W39801  34.794   0.346  22.222 -0.0261  0.0409 -0.0032
21055W        W39802  18.460   5.128   1.300  0.0656  0.2793  0.0143
21056W        W39803  32.989  32.943   1.673  0.0513  0.3960  0.2267
21057W        W39804  31.736  12.946  24.764 -0.1577 -0.0387  0.1068
21058W        W39805  26.257  18.136  23.758  0.0465 -0.5962  0.0658
21059W        W39806  13.714  21.692  10.436  0.1757 -0.1955 -0.0301
21060W        W39807  10.132  35.228  22.396  0.0966 -0.1505 -0.0715
21061W        W39808  25.096  34.505  22.627 -0.0601 -0.0829  0.0008
21062W        W39809  29.762  25.713  22.957 -0.0381  0.1438 -0.0915
21063W        W39810  25.565  18.824  17.776 -0.2025 -0.0762 -0.2438
21064W        W39811  33.594   8.152  17.053 -0.1556 -0.0457  0.2846
21065W        W39812  35.239  34.037  15.522  0.2154  0.0137 -0.4078
21066W        W39813  27.808  18.358  24.684  0.2733 -0.2534 -0.1639
21067W        W39814  12.387  13.267  23.833  0.0293 -0.0618  0.1829
21068W        W39815  29.601   1.434  24.971 -0.1777  0.2832  0.0603
21069W        W39816  14.007   1.978  23.464 -0.0807 -0.1425 -0.1015
21070W        W39817  14.755  30.741   8.578 -0.2088 -0.1461  0.1720
21071W        W39818  25.248  30.327  24.726 -0.0290 -0.1168 -0.0117
21072W        W39819  27.996  12.595  12.886 -0.1877  0.1225 -0.0950
21073W        W39820  32.565  13.436   6.943  0.0415 -0.0434  0.1177
21074W        W39821  14.122  15.314  12.090  0.3305  0.0953  0.3011
21075W        W39822  27.571  11.621   6.328  0.0730 -0.0581 -0.0878
21076W        W39823  28.634  35.359  19.269  0.0918  0.0571 -0.1867
21077W        W39824   8.466  25.385   1.733 -0.3870 -0.0790  0.0185
21078W        W39825   7.375  28.732  11.438 -0.0175 -0.0488 -0.1740
21079W        W39826  25.857   0.549  25.480  0.3209  0.3007 -0.1648
21080W        W39827  19.237  20.824   8.233 -0.1068  0.0614  0.0945
21081W        W39828  32.749  25.347  11.823 -0.0740  0.1110 -0.5159
21082W        W39829  33.467  18.774  11.451  0.1646 -0.2455 -0.0553
21083W        W39830  25.664  13.051  15.563 -0.0490  0.2140  0.0211
21084W        W39831  21.944  25.786  16.222 -0.0631  0.1972  0.0967
21085W        W39832  30.711  34.989  25.300  0.0877 -0.3933 -0.0318
21086W        W39833  16.844  30.915  20.063 -0.2700  0.0605 -0.2395
21087W        W39834   7.965  32.728   3.158  0.0425 -0.0033  0.0944
21088W        W39835  12.338  17.039   6.734 -0.2163 -0.0516 -0.1866
21089W        W39836  26.775  34.756  20.282 -0.2426  0.1827  0.0332
21090W        W39837  17.004   2.113  25.062 -0.2883 -0.1556  0.3392
21091W        W39838  25.171   9.177  11.758  0.0155 -0.1792 -0.1539
21092W        W39839  34.831   3.450  14.919  0.2895  0.0394 -0.2790
21093W        W39840  13.438   3.097  13.311  0.1949  0.3267  0.1813
21094W        W39841  33.860  14.632  25.325 -0.1702 -0.1948 -0.0187
21095W        W39842  25.779  30.929  24.651 -0.1461 -0.0861  0.1623
21096W        W39843  14.157   7.053   1.055 -0.1072  0.2860  0.1170
21097W        W39844   5.541  10.521  10.518  0.2408 -0.2877  0.0979
21098W        W39845  33.279  19.897  18.948  0.0213  0.2655  0.0603
21099W        W39846  34.858  32.111  26.082  0.1652 -0.1179 -0.1702
21100W        W39847  32.535  12.126  13.548 -0.2716 -0.1454 -0.2519
21101W        W39848   4.961  19.543  26.232  0.1913  0.0793 -0.0430
21102W        W39849  31.148   5.316  20.591 -0.0465 -0.3840 -0.1666
21103W        W39850  13.345  26.428  11.002  0.1172 -0.0571  0.0575
21104W        W39851   9.335  20.084   4.617  0.2161  0.1925  0.3568
21105W        W39852   0.092  11.145  10.947 -0.2754  0.1949  0.0775
21106W        W39853  29.203   9.601  24.116  0.1378 -0.1172 -0.0304
21107W        W39854  18.424  14.058  10.643  0.2122 -0.0302 -0.0563
21108W        W39855  20.635   5.168  26.218 -0.0269 -0.1527 -0.0511
21109W        W39856  12.812  14.778   0.284  0.0630  0.0239 -0.2105
21110W        W39857  14.223  18.867  20.297 -0.0288 -0.0910  0.1290
21111W        W39858  22.298   5.323  23.059  0.1853  0.1619  0.1298
21112W        W39859  22.941  34.479   3.435  0.0285  0.0260  0.1865
21113W        W39860  32.922  26.340  12.051 -0.0664  0.1112 -0.1094
21114W        W39861   8.391  32.168   5.869  0.0185 -0.0932  0.2261
21115W        W39862   9.641  12.546   1.885  0.0572  0.2193 -0.3056
21116W        W39863  18.506  31.480  24.237 -0.0764 -0.1017 -0.1705
21117W        W39864  24.916  28.040  10.403 -0.0210  0.1068  0.1713
21118W        W39865  16.990  15.602   3.887  0.0263  0.0375 -0.1572
21119W        W39866  13.097   0.242  12.321  0.2356 -0.0973 -0.6023
21120W        W39867  29.728  13.550  16.125  0.1715  0.1373  0.1428
21121W        W39868  15.374  17.230  21.564  0.1333 -0.1316 -0.3332
21122W        W39869  14.402   9.454  11.335 -0.3871  0.2033 -0.1620
21123W        W39870  29.613  32.877  22.675 -0.4315  0.0741 -0.0842
21124W        W39871   2.620  35.160  16.530 -0.2569  0.2107 -0.0559
21125W        W39872   8.243  16.183  19.308  0.0293 -0.0813  0.1566
21126W        W39873   7.314  12.291  11.656 -0.0921 -0.2203  0.0752
21127W        W39874   7.443   1.235   8.322 -0.2944 -0.0912 -0.2301
21128W        W39875  33.355  33.279  20.109  0.2290  0.4190 -0.1329
21129W        W39876   6.015   1.810   8.615 -0.1699 -0.1808  0.0157
21130W        W39877  20.972  19.695   2.234 -0.3063 -0.2116 -0.2397
21131W        W39878  14.462  26.306   5.958  0.0841  0.0470 -0.0794
21132W        W39879  11.152  31.165   6.490  0.1321 -0.1131  0.0407
21133W        W39880  26.622   2.194  19.313  0.0202 -0.1071  0.1155
21134W        W39881  25.375  17.006  13.052  0.1732  0.0592  0.2345
21135W        W39882  22.628   3.519  17.318 -0.4514  0.1424  0.1887
21136W        W39883   7.638  33.032  26.223  0.1301 -0.0808 -0.0511
21137W        W39884  32.921  21.172   9.443 -0.0649 -0.1355 -0.0950
21138W        W39885  19.825  29.483   5.839 -0.2005  0.1894 -0.1527
21139W        W39886  17.459   9.831   9.196  0.3092  0.0594  0.0842
21140W        W39887  17.250  21.725  11.108 -0.1210 -0.0670  0.0100
21141W        W39888  28.588   1.229  23.899  0.1040 -0.2379  0.0279
21142W        W39889  28.657  14.200  13.613 -0.2423  0.0360  0.0171
21143W        W39890  32.178  11.880  13.266  0.1122 -0.0632  0.1354
21144W        W39891  11.759  20.802   8.842 -0.0206 -0.1007  0.2996
21145W        W39892   9.569  18.809   5.000  0.1798 -0.0796 -0.1586
21146W        W39893   4.482  15.276  16.589 -0.0644 -0.0315 -0.1548
21147W        W39894  20.352  34.859  23.589 -0.2363 -0.0389  0.0540
21148W        W39895   7.660  18.895  19.793  0.2660 -0.1652  0.0467
21149W        W39896  10.128  17.384   3.445  0.0112 -0.1707 -0.1440
21150W        W39897  24.194   6.579   0.494 -0.1522 -0.0634  0.2075
21151W        W39898  14.130   6.561  22.078  0.2561 -0.0439  0.2065
21152W        W39899  25.283   6.990  22.180  0.0867 -0.2507 -0.1944
21153W        W39900   0.412  17.966  14.071 -0.2310 -0.1846  0.2965
21154W        W39901  31.191  25.303  25.513 -0.1466 -0.0099  0.1832
21155W        W39902   3.881  12.749  18.903 -0.3491 -0.1199  0.0246
21156W        W39903  26.856  25.510   8.540  0.1211 -0.5219 -0.3520
21157W        W39904  23.500   7.941  14.998 -0.0539  0.3357  0.2828
21158W        W39905  12.754  24.187   8.736 -0.0101 -0.0176  0.0176
21159W        W39906  22.873  10.136  16.150 -0.2695  0.2738  0.0698
21160W        W39907  28.813  23.196  16.179  0.2253 -0.2687 -0.0458
21161W        W39908   4.503  13.269  21.955 -0.0924 -0.0679  0.2051
21162W        W39909  30.943  11.839   7.238  0.0762  0.3038 -0.0109
21163W        W39910  18.834  30.580  17.079  0.1611 -0.3317 -0.0772
21164W        W39911   1.577   1.011  22.149 -0.0368  0.0314  0.1360
21165W        W39912  18.063  30.637   2.017  0.0312  0.1194  0.0193
21166W        W39913  12.579  13.234   8.296 -0.2228  0.2024 -0.4530
21167W        W39914   5.001   7.208  22.018 -0.0951  0.1250  0.0690
21168W        W39915  23.288  21.006  20.972 -0.2416  0.0418 -0.1148
21169W        W39916  31.720   0.422   1.368 -0.2485 -0.1393 -0.3592
21170W        W39917  19.999  15.526   0.396 -0.2872 -0.1295 -0.1411
21171W        W39918   3.688  31.795   7.367 -0.5012  0.1287  0.4641
21172W        W39919  10.988   4.350  21.199 -0.2329  0.3112  0.1930
21173W        W39920  15.339  19.233   8.635 -0.0050 -0.2236 -0.2993
21174W        W39921  19.139  13.033  24.617 -0.1055  0.2446  0.0468
21175W        W39922  27.230  12.262  23.349  0.0273  0.0458 -0.1466
21176W        W39923  16.919   3.740  22.387  0.0618  0.0161 -0.0214
21177W        W39924  19.767   8.322  18.471 -0.1554 -0.2965  0.0692
21178W        W39925  24.073  15.861  15.895 -0.1966  0.0910  0.1661
21179W        W39926   1.140   0.564  15.196 -0.0826  0.3432  0.2008
21180W        W39927  13.928   8.896   6.725  0.0268 -0.2657  0.4114
21181W        W39928  29.430  33.058  21.737 -0.1726  0.1149  0.1220
21182W        W39929  14.697  32.976  25.463 -0.0378 -0.2154  0.2603
21183W        W39930   8.368   1.751   3.305  0.2700 -0.0941  0.2214
21184W        W39931  21.884  20.720  20.396 -0.1434 -0.3089 -0.1083
21185W        W39932   3.923  31.375   9.279 -0.0456  0.5777 -0.1504
21186W        W39933  31.656  32.791   4.561 -0.1519 -0.0134  0.1182
21187W        W39934  13.393   9.970  11.126 -0.2222  0.5495 -0.0188
21188W        W39935   9.279   9.027   2.952 -0.1894 -0.1499  0.1216
21189W        W39936  20.600  30.634   2.858  0.1495  0.0747 -0.0484
21190W        W39937  12.329  19.200  13.596 -0.0365 -0.0548  0.2211
21191W        W39938   9.233  26.817  11.207 -0.1253  0.0438 -0.1429
21192W        W39939   8.741   4.137  20.965  0.4033 -0.1099 -0.2644
21193W        W39940  11.260  28.787  23.989  0.1574 -0.1175 -0.0222
21194W        W39941  21.168  16.854  21.817 -0.4527 -0.0661 -0.2132
21195W        W39942  22.878  26.465  13.540  0.4646 -0.2061  0.4345
21196W        W39943  15.495   4.719   9.116 -0.2425  0.0608 -0.1419
21197W        W39944  15.776  25.643   0.093 -0.1072  0.0316  0.2358
21198W        W39945  13.835   7.629   7.533  0.0042 -0.4124  0.1001
21199W        W39946   4.537  15.056  26.233  0.3464  0.1556 -0.2130
21200W        W39947  26.935   1.257   3.302 -0.1095 -0.0670 -0.0582
21201W        W39948  13.493  34.695   4.932  0.0813 -0.0726 -0.0942
21202W        W39949  12.735  10.308   9.825 -0.0257 -0.0470 -0.2640
21203W        W39950  26.748  34.401  19.826  0.0351  0.1627  0.1116
21204W        W39951  31.323  25.411  12.464 -0.0594  0.0261  0.2098
21205W        W39952  10.228  10.486  13.357 -0.1788  0.0803  0.0992
21206W        W39953  31.821  32.721  17.752 -0.3120  0.5080  0.1456
21207W        W39954   6.522  29.792   8.006 -0.0395 -0.0175  0.0091
21208W        W39955  15.062  35.289   4.943 -0.0942 -0.1632 -0.0695
21209W        W39956  26.365  25.900  21.091  0.1897 -0.2764 -0.0851
21210W        W39957   3.217   1.416   0.335  0.0215 -0.2056  0.1104
21211W        W39958  15.291   6.219  17.781 -0.2499 -0.1526 -0.0669
21212W        W39959  10.365  26.063   2.669 -0.1058  0.0083 -0.0766
21213W        W39960  26.137  28.152   0.038 -0.4274 -0.1327  0.0975
21214W        W39961  33.579  14.653  21.899 -0.0054 -0.0840 -0.3750
21215W        W39962  18.649   4.567   1.970  0.5029  0.3335 -0.2614
21216W        W39963  17.407  13.094   3.247 -0.1297 -0.1721  0.1063
21217W        W39964  10.145  19.325  23.383 -0.0165  0.1032  0.3157
21218W        W39965  18.174  18.058  18.748 -0.0308  0.1352 -0.1641
21219W        W39966  32.729  23.993  10.290 -0.0910  0.0909 -0.1565
21220W        W39967  10.541  18.678  10.327  0.0482 -0.0764 -0.4007
21221W        W39968  13.180  22.810  13.783  0.2229  0.1561 -0.0224
21222W        W39969  16.696   4.028   9.259  0.2324 -0.2066  0.1938
21223W        W39970   6.790  17.383  19.234  0.2106 -0.4407  0.1459
21224W        W39971   0.317  13.313  16.788 -0.2696 -0.1660  0.0318
21225W        W39972  14.833  15.803  13.560  0.0465 -0.0966  0.2019
21226W        W39973  26.173   4.708  19.346  0.0768  0.1775 -0.0242
21227W        W39974  16.712   5.975  23.071  0.0843  0.1999  0.3837
21228W        W39975   8.765   6.589  21.838 -0.2211 -0.2239  0.2849
21229W        W39976   7.722  17.972  23.652 -0.2088  0.2382 -0.0220
21230W        W39977  24.275   3.276  13.307 -0.2113  0.0540 -0.1734
21231W        W39978  33.339  25.551  15.627 -0.3600 -0.1420  0.3938
21232W        W39979  18.871  32.053  19.300  0.0680 -0.1667 -0.0939
21233W        W39980   7.950  32.314   6.714  0.3891 -0.0841 -0.1800
21234W        W39981  29.079  10.312  25.480  0.1597 -0.0404 -0.1592
21235W        W39982  21.797  11.543  19.949  0.4313 -0.0351 -0.1024
21236W        W39983  15.709  10.429  21.008  0.0646  0.1446 -0.0246
21237W        W39984  10.067   1.358  22.955 -0.2560 -0.2705  0.1714
21238W        W39985  20.086  28.672   6.128  0.3249 -0.3777 -0.0962
21239W        W39986  13.102  16.099  12.138  0.2387  0.0749  0.1964
21240W        W39987  10.532   3.137  24.802  0.0122 -0.1256  0.0182
21241W        W39988  12.752  16.415  22.611  0.0012 -0.0525  0.0695
21242W        W39989   9.798  18.497   6.312  0.3340  0.1866 -0.1308
21243W        W39990  20.249   0.187   2.820  0.1351  0.2444  0.2546
21244W        W39991  11.691  33.237  15.049  0.2593  0.0568  0.0502
21245W        W39992  28.931  34.364  22.293 -0.0937  0.3360  0.0962
21246W        W39993  17.111  22.433   7.352 -0.1661  0.1124  0.0333
21247W        W39994  23.940   6.267  15.542 -0.0659  0.0161  0.1200
21248W        W39995   0.066   1.572  25.846 -0.3811 -0.0296 -0.0427
21249W        W39996  20.585   5.060   2.772  0.2485  0.0428  0.1907
21250W        W39997  26.990  35.058  17.349  0.3051 -0.2277 -0.1146
21251W        W39998   4.889   1.186   1.331  0.2963  0.1189 -0.0986
21252W        W39999   7.761  16.096  20.285 -0.1446 -0.0911 -0.1023
21253W        W40000  14.459  11.877  14.101 -0.2196 -0.0028  0.1301
21254W        W40001   6.528   8.177  19.638 -0.1211 -0.0513  0.2167
21255W        W40002  14.666  22.337  25.054  0.0429  0.1657  0.3016
21256W        W40003   3.279  21.855  23.106  0.1136  0.0624  0.1461
21257W        W40004   0.825  19.536  23.423 -0.0291  0.2739  0.2034
21258W        W40005   7.083  24.040   0.519 -0.0478 -0.0939  0.2447
21259W        W40006  20.949   0.281  16.107  0.0995 -0.0178 -0.2278
21260W        W40007  35.248  30.245   3.968  0.0491  0.4264 -0.2876
21261W        W40008  23.240  25.949  13.564  0.0104  0.1308 -0.4015
21262W        W40009  31.569  27.198  12.478  0.2166  0.2891 -0.3293
21263W        W40010   4.161  32.243   1.596 -0.1603  0.1287  0.0345
21264W        W40011  26.189  16.685  24.334  0.0782  0.0944 -0.1520
21265W        W40012  33.188  23.238  22.628 -0.2336 -0.3836 -0.3208
21266W        W40013   9.304  10.924   5.432  0.1435 -0.0905  0.2168
21267W        W40014   8.948   1.948  24.880 -0.2541 -0.2736 -0.1416
21268W        W40015  31.356  31.601  22.880 -0.0823  0.0873 -0.2262
21269W        W40016  32.176  25.141  17.115  0.2566 -0.0814  0.2464
21270W        W40017  27.828  13.494  14.777  0.1249  0.0679  0.3645
21271W        W40018   0.928  28.447   2.054  0.3603  0.0410  0.2330
21272W        W40019  32.720  33.365   3.494 -0.1791  0.3623 -0.1821
21273W        W40020  31.950  19.733  22.141 -0.0941  0.0318  0.2212
21274W        W40021   1.462  11.363  13.512 -0.0471  0.1911 -0.1394
21275W        W40022   0.455   3.270   3.555 -0.0506  0.1010  0.1617
21276W        W40023  12.909  28.716   1.388  0.2269  0.1527  0.2279
21277W        W40024  11.381  10.899   7.277 -0.2658 -0.0649  0.0820
21278W        W40025  10.183  34.211   6.521 -0.0629 -0.1847 -0.1076
21279W        W40026  17.615  29.064   5.047 -0.0568  0.0172 -0.0564
21280W        W40027  33.594  19.091  22.081 -0.0514  0.3059 -0.0609
21281W        W40028  14.220  20.163   0.657  0.1082 -0.2320 -0.0854
21282W        W40029   9.028  12.498   5.152 -0.0179 -0.1401 -0.0666
21283W        W40030   4.054   3.213   2.697  0.0593 -0.4095  0.0353
21284W        W40031  26.295  33.401  10.716  0.2206 -0.3080 -0.0535
21285W        W40032  21.066  11.048  16.740 -0.0081 -0.0161 -0.0689
21286W        W40033   4.263   4.970   5.471 -0.3658  0.0063  0.1236
21287W        W40034  18.667  15.520  17.651  0.3124  0.0909  0.2573
21288W        W40035   8.512   0.436  11.459  0.1514  0.3714  0.0166
21289W        W40036   7.689  29.345  26.151 -0.0392  0.1710 -0.1114
21290W        W40037   2.063  25.687   1.052  0.2480  0.5596  0.1890
21291W        W40038  16.741  10.215  22.324 -0.4834 -0.0463  0.2008
21292W        W40039  27.055  23.047  23.392 -0.0266 -0.1243 -0.0655
21293W        W40040   8.112  16.807   4.262 -0.0441  0.1228  0.0848
21294W        W40041  20.033  29.045  24.426 -0.1519 -0.1966 -0.0524
21295W        W40042  20.692   3.939  23.504 -0.2800 -0.0426  0.0438
21296W        W40043   1.948  13.941  16.679 -0.0000  0.1008  0.0948
21297W        W40044   7.015  25.495  10.280  0.4109 -0.1683  0.0389
21298W        W40045  30.719   7.089   0.037 -0.2584 -0.3438 -0.2241
21299W        W40046  21.895   5.117  21.534  0.0223 -0.0432 -0.0763
21300W        W40047  22.401  29.186  23.937 -0.0134 -0.2461 -0.0143
21301W        W40048  35.031  13.624  10.750 -0.2414  0.0633  0.2991
21302W        W40049  35.246  32.753  20.107  0.4470 -0.0596  0.3223
21303W        W40050  10.640   5.656  14.299 -0.0729  0.1188  0.2924
21304W        W40051  31.131  21.011  20.647  0.0971  0.0225 -0.0760
21305W        W40052  28.676   3.490  25.742 -0.3759 -0.2897  0.1578
21306W        W40053  29.235   7.587   1.242 -0.1181  0.0255  0.2461
21307W        W40054  34.279  15.842  11.432  0.1107  0.2943  0.1356
21308W        W40055   0.433  20.921   8.591  0.1433 -0.2540  0.2122
21309W        W40056  11.364  32.144  12.692 -0.0607  0.2371  0.2112
21310W        W40057  23.396   9.269   2.970 -0.1207  0.1430 -0.4705
21311W        W40058   1.489   3.612  25.438 -0.2308  0.2189 -0.1434
21312W        W40059  24.966   5.484  14.447  0.2776 -0.2615  0.2588
21313W        W40060   1.915  34.307  26.020 -0.0231  0.1228 -0.0294
21314W        W40061  17.225  20.269   6.518 -0.2070  0.0107  0.1273
21315W        W40062   7.145  21.061   4.906  0.0765  0.1161 -0.1642
21316W        W40063  22.516   1.388  25.795  0.0215  0.1406  0.3522
21317W        W40064   5.748  26.906  20.415  0.0586  0.1168  0.0488
21318W        W40065  26.882  30.304  17.673 -0.1004  0.0269  0.0341
21319W        W40066  15.582  19.658   1.141 -0.1638 -0.0174  0.2236
21320W        W40067  21.308  32.636  18.179 -0.0824  0.2638 -0.3317
21321W        W40068  32.237  18.920   5.027 -0.3251 -0.0922 -0.1808
21322W        W40069  13.153  10.947  21.203  0.1674  0.1560  0.0030
21323W        W40070  11.480  22.273  21.974  0.2484 -0.3146  0.3305
21324W        W40071  28.554   6.412  22.436  0.0801 -0.0240 -0.2794
21325W        W40072  22.261  22.700  19.874 -0.1382 -0.1090 -0.1334
21326W        W40073   4.380  15.709   1.108 -0.2339 -0.0977  0.0275
21327W        W40074  25.645   8.136  18.198 -0.1275 -0.0247  0.0684
21328W        W40075  17.652  10.923  23.013 -0.3844 -0.2333 -0.1564
21329W        W40076  11.219  34.032   3.098  0.3514 -0.2601 -0.3187
21330W        W40077  10.977  33.178   4.143 -0.1390  0.1038  0.2711
21331W        W40078  28.605  31.856   1.043  0.0359 -0.4117 -0.0593
21332W        W40079  30.443  20.275   8.868 -0.0075  0.0570 -0.1720
21333W        W40080  32.228   5.733  13.769  0.0776  0.2130  0.0647
21334W        W40081  16.067  13.513  23.066 -0.1227  0.1649  0.0801
21335W        W40082  28.008   3.793  19.775 -0.0644 -0.0665 -0.2992
21336W        W40083   8.076  23.494   2.036 -0.1107  0.1582 -0.0269
21337W        W40084  31.880  22.812  16.835  0.2477 -0.1187 -0.1296
21338W        W40085  24.869   4.951  23.807 -0.2123  0.1800  0.2492
21339W        W40086   4.906  25.643  24.318  0.2091  0.2522  0.4111
21340W        W40087   3.900   5.482   4.107 -0.0355 -0.1098  0.0861
21341W        W40088  25.481  26.943  25.799 -0.0726 -0.1650  0.0286
21342W        W40089   5.661  21.410  23.130 -0.0889  0.1129 -0.3168
21343W        W40090  29.505  34.867  22.838  0.0012 -0.0524 -0.0159
21344W        W40091  14.543  31.667  23.680 -0.0869 -0.1438 -0.1792
21345W        W40092  13.313   9.761   9.940  0.0837  0.1008  0.0383
21346W        W40093   2.115  14.997  19.632  0.1874  0.2192  0.2273
21347W        W40094  20.860  15.117  19.703  0.2183 -0.0977 -0.1066
21348W        W40095   3.047  11.880  25.253  0.0754  0.1087  0.1206
21349W        W40096  20.508  20.806   7.120  0.0051 -0.0169  0.3245
21350W        W40097  11.678   6.099  21.137  0.1251  0.2525  0.2993
21351W        W40098  34.954   0.974   8.271  0.1807  0.0894  0.2276
21352W        W40099  29.408  18.585  11.639 -0.2840 -0.1882 -0.0391
21353W        W40100  24.042   1.310  23.829  0.4271  0.1281 -0.0082
21354W        W40101   5.274  24.741   9.795  0.1732  0.1435 -0.0584
21355W        W40102  30.286  15.926  10.826 -0.4307 -0.1302 -0.0660
21356W        W40103  24.624  23.092  20.561 -0.1739 -0.0893  0.1100
21357W        W40104   7.588  27.582  22.583 -0.0558 -0.1843 -0.2433
21358W        W40105  14.305  29.039   3.823  0.0686  0.1705  0.3421
21359W        W40106  23.968  30.993   1.949 -0.2765 -0.0622  0.4145
21360W        W40107   4.570  14.770  19.642 -0.1061 -0.3208  0.0396
21361W        W40108  35.370  23.498  26.037 -0.0819 -0.1246 -0.3954
21362W        W40109  14.875   6.434  10.013 -0.0215 -0.2647  0.0562
21363W        W40110  34.634   3.533   2.030 -0.1552 -0.1421  0.0367
21364W        W40111  18.851  10.681   3.440  0.0116  0.2182  0.5806
21365W        W40112  14.498   8.321   9.355  0.1574  0.2204  0.2971
21366W        W40113  31.237  15.751   0.868 -0.0159  0.0330 -0.1864
21367W        W40114  17.561   5.159   5.178  0.1098  0.1415 -0.2412
21368W        W40115  18.626   3.330  23.786  0.2016 -0.1989 -0.2714
21369W        W40116  12.855   8.566  13.533  0.1811 -0.0940  0.1500
21370W        W40117  19.518  25.831   1.309 -0.0920  0.0690  0.1313
21371W        W40118   6.780  25.042  10.391 -0.1034  0.3334 -0.0827
21372W        W40119   1.006  11.226  16.544  0.2371 -0.2194  0.1809
21373W        W40120   4.501  13.761  24.174 -0.1346  0.2682  0.2049
21374W        W40121  20.017  17.465  24.289  0.1562  0.2619 -0.3315
21375W        W40122  23.698  20.809  19.505 -0.2766  0.0854  0.0470
21376W        W40123  20.734   4.610  22.329 -0.1737 -0.0874  0.0864
21377W        W40124  15.508   3.981  23.125  0.0682 -0.1743  0.2986
21378W        W40125  29.509  29.459  11.564  0.0114 -0.0556 -0.1439
21379W        W40126  11.408   4.945  20.029  0.0645 -0.2287 -0.3213
21380W        W40127  26.800   6.051  10.628 -0.3008 -0.3552 -0.1023
21381W        W40128  12.781  18.532   3.941  0.0248 -0.0317  0.2066
21382W        W40129  11.372   6.945   9.520 -0.0326 -0.1937  0.0665
21383W        W40130  18.901  10.571   3.972 -0.1016 -0.1792 -0.1243
21384W        W40131   8.454  29.564  21.048 -0.0690 -0.2341  0.1560
21385W        W40132  31.310  33.430  23.992  0.1554  0.0586 -0.1615
21386W        W40133  18.913  13.753  19.691 -0.0095  0.0775  0.1796
21387W        W40134  12.380  17.025  23.805 -0.2822 -0.4388  0.2696
21388W        W40135   5.799  20.909   3.167 -0.0955 -0.2853 -0.1295
21389W        W40136  24.083  19.216  13.066  0.1258  0.3228  0.1187
21390W        W40137   2.879  33.262  11.324 -0.1944 -0.4571  0.1222
21391W        W40138  33.257  32.112  14.522 -0.1928 -0.5251  0.0928
21392W        W40139  10.055  32.449  14.886  0.0728 -0.2086 -0.1184
21393W        W40140   4.438  27.355  21.273 -0.0450  0.0198  0.1577
21394W        W40141  35.306   4.419   1.330  0.2110  0.2126  0.1911
21395W        W40142   2.065  32.942  25.436 -0.0112  0.1671 -0.0794
21396W        W40143  24.149  19.373  17.589 -0.0291 -0.1915  0.3830
21397W        W40144  25.473  35.060  20.030 -0.0695  0.0060 -0.1127
21398W        W40145  12.845  22.429  23.155 -0.2648  0.2242 -0.0365
21399W        W40146  13.874   3.821   8.147 -0.2080 -0.2566  0.1705
21400W        W40147  24.050  14.733  25.857  0.1409  0.0922 -0.1714
21401W        W40148  27.464  13.130  24.300 -0.2128 -0.1023 -0.0161
21402W        W40149  24.200  29.167   0.916  0.1843 -0.2858 -0.0976
21403W        W40150  35.152  28.971  16.275 -0.0605 -0.3493  0.0805
21404W        W40151   0.123  17.553  16.952 -0.0289 -0.0461  0.0732
21405W        W40152  21.995   6.571  18.508 -0.2539 -0.1967  0.1060
21406W        W40153  12.361   0.028  21.334  0.2165 -0.1394  0.3091
21407W        W40154  30.801   7.673   8.853  0.1821 -0.2667 -0.0524
21408W        W40155  21.010  21.279   2.324  0.0065 -0.2709  0.1932
21409W        W40156  12.746   6.049  11.931 -0.4002 -0.1605  0.1561
21410W        W40157  27.904  29.934   0.482  0.0171  0.0945 -0.1657
21411W        W40158  10.781  22.024  10.407 -0.0838 -0.1675 -0.2529
21412W        W40159  31.544  29.672  25.425 -0.0157  0.0851 -0.0218
21413W        W40160  18.136   1.165   3.776  0.2249 -0.0683  0.2497
21414W        W40161  15.705  12.845   1.508 -0.0340 -0.0190  0.0924
21415W        W40162  12.731   6.077   9.029  0.0371  0.0716  0.2532
21416W        W40163  31.227  26.684   3.429 -0.1415  0.1074  0.1421
21417W        W40164  23.115  26.186  17.658  0.2365 -0.1288  0.1625
21418W        W40165  16.491  26.416  23.081  0.1534  0.1604 -0.1592
21419W        W40166  31.416  33.369  20.121 -0.0177 -0.2114 -0.0156
21420W        W40167  23.728  28.353  18.206  0.2202 -0.1221  0.0400
21421W        W40168  26.454   3.011   1.632 -0.0269 -0.2847 -0.0555
21422W        W40169   3.501  33.668   9.389 -0.2008  0.1563  0.1739
21423W        W40170  18.544  15.831   3.677 -0.2313  0.2047 -0.1670
21424W        W40171  32.926  34.205   3.307 -0.3708 -0.1951  0.1972
21425W        W40172  29.034   8.482   2.100 -0.4288  0.0743 -0.2041
21426W        W40173  23.142  27.017  19.980  0.2467 -0.1361  0.0381
21427W        W40174  12.215  13.964  24.447  0.0020  0.0627  0.1109
21428W        W40175  17.389   6.306   1.396  0.0970  0.0899 -0.0817
21429W        W40176   9.618   2.321   4.078  0.1913  0.0976 -0.1161
21430W        W40177   8.908   5.794  25.787  0.0590  0.2154 -0.0703
21431W        W40178   4.305  33.201  23.864 -0.0756 -0.1834  0.0434
21432W        W40179  15.334  31.135  19.938  0.1545  0.2122  0.1247
21433W        W40180  10.592  21.245  25.688 -0.2477  0.0352  0.0887
21434W        W40181  24.432  19.082  10.660  0.1770  0.1989  0.2398
21435W        W40182   0.452  13.754  24.881  0.1588  0.0053 -0.2174
21436W        W40183  21.843   4.977  23.685 -0.0604  0.2925  0.1530
21437W        W40184   9.030  30.557  12.520  0.1692 -0.1433 -0.2694
21438W        W40185  12.063  17.307  12.362 -0.0019 -0.2019  0.2232
21439W        W40186  10.469  20.586   0.599 -0.0850 -0.1822 -0.0578
21440W        W40187  15.022  14.102   0.519 -0.1233 -0.2076  0.1706
21441W        W40188   1.099  35.075   5.343 -0.1099 -0.0221 -0.2716
21442W        W40189   3.149  25.802   2.637  0.0896  0.1774  0.0326
21443W        W40190  25.666  15.065  14.678  0.1786  0.2563 -0.0980
21444W        W40191   1.904   7.779   2.760  0.1209  0.0036 -0.0237
21445W        W40192  12.148  16.296  21.616  0.0833  0.1017 -0.0952
21446W        W40193  12.670  24.252  17.929  0.0877 -0.0169  0.0870
21447W        W40194   2.366  19.876   1.397 -0.3829  0.1256  0.2911
21448W        W40195  28.733  30.731  20.666 -0.2372 -0.1291  0.3232
21449W        W40196   7.229   5.543   1.899 -0.0943  0.0495  0.0754
21450W        W40197   1.493  16.987  23.196  0.2375  0.0256  0.0777
21451W        W40198  15.479   0.224  25.082  0.0072 -0.2601 -0.1715
21452W        W40199  24.570  33.968  14.679 -0.1842 -0.1327 -0.0686
21453W        W40200  11.036  28.560   0.351  0.2564  0.0776 -0.1206
21454W        W40201   8.703  25.788   1.846  0.3913  0.0336 -0.1930
21455W        W40202   2.948  31.358   0.010 -0.0120  0.0672  0.4441
21456W        W40203  34.226  15.549  17.260  0.0912 -0.2395 -0.1840
21457W        W40204   8.791  28.094   0.341 -0.0806 -0.0018 -0.0421
21458W        W40205  19.265  35.261   7.791  0.2215 -0.2195  0.0994
21459W        W40206   3.247   2.130  18.903 -0.0657  0.0232  0.0762
21460W        W40207  34.177  26.706  15.949  0.0885  0.1304  0.0826
21461W        W40208  20.708  23.081  26.092 -0.0624  0.4381 -0.1496
21462W        W40209   7.811  24.815  22.322  0.0215  0.2705  0.1052
21463W        W40210  28.871  18.952  24.153 -0.1227 -0.0745  0.0036
21464W        W40211   0.938  32.708  19.836 -0.4889  0.0727 -0.0430
21465W        W40212  31.223  19.155  17.526  0.0815  0.1022 -0.1236
21466W        W40213  30.146   0.840  25.008  0.0768 -0.1762  0.0911
21467W        W40214  19.523   2.410  23.870 -0.0566 -0.1530  0.2948
21468W        W40215   4.297  10.494  23.854 -0.0771 -0.0735  0.1534
21469W        W40216  21.195  33.438  25.801 -0.0654 -0.0823 -0.0305
21470W        W40217  33.728   2.986  23.721  0.2112 -0.0132  0.1872
21471W        W40218  10.422  29.796  14.182  0.2325 -0.2082  0.1858
21472W        W40219  25.009  26.946  12.575 -0.2710 -0.0582  0.1015
21473W        W40220  29.291  32.183  23.259 -0.2633  0.0415 -0.1024
21474W        W40221  25.771  14.315  13.837  0.0737  0.2323  0.0043
21475W        W40222  13.717   5.707  22.979 -0.0624 -0.0708  0.1393
21476W        W40223  25.755  32.262  17.072  0.0906 -0.1589 -0.1493
21477W        W40224  35.113  17.350  20.167  0.1756  0.0621  0.0575
21478W        W40225  24.788  20.308  22.588 -0.0868 -0.1971 -0.1306
21479W        W40226  32.985   0.058  26.023 -0.0095 -0.0656 -0.0661
21480W        W40227  10.148  22.086  22.785 -0.1537 -0.1399 -0.2879
21481W        W40228  27.973  34.363  15.422  0.3210 -0.2272 -0.1711
21482W        W40229  14.908  16.869  13.567  0.0336  0.1649 -0.1553
21483W        W40230   9.997   7.391  22.713  0.0301 -0.0653  0.1969
21484W        W40231  14.514  30.715   4.021 -0.0865 -0.3479  0.0304
21485W        W40232  27.628  20.586  22.639 -0.2233 -0.0354 -0.0477
21486W        W40233  14.114  25.478  15.688 -0.3540 -0.4627  0.3031
21487W        W40234   3.763   4.022   1.329  0.1083  0.0373 -0.3027
21488W        W40235   1.003  25.231   5.076 -0.0815  0.0755 -0.3570
21489W        W40236   7.555  14.622   2.835  0.2689 -0.3612 -0.1060
21490W        W40237  28.839  13.722  23.088  0.0323 -0.1108 -0.4487
21491W        W40238  25.481  10.552  24.257 -0.0922 -0.2037  0.2194
21492W        W40239  18.130  34.902  24.921 -0.2135  0.2494 -0.2233
21493W        W40240   0.960   7.308  19.931  0.1033 -0.0768 -0.0408
21494W        W40241  14.132   0.371  19.699  0.2365  0.2808  0.0341
21495W        W40242  29.310   8.962  20.791 -0.0163  0.3723 -0.2567
21496W        W40243  11.085  32.217  15.978 -0.1463 -0.2146  0.0422
21497W        W40244   2.454  30.962   8.152  0.1593  0.0858 -0.1175
21498W        W40245   6.831   6.240   7.779  0.0002  0.0195 -0.1503
21499W        W40246  26.486  16.650  14.250  0.1002  0.3059  0.0191
21500W        W40247  23.334   0.889   3.025  0.2376 -0.0409  0.1252
21501W        W40248  12.376  17.082   4.910  0.1774 -0.1749  0.0120
21502W        W40249   4.107   0.525  18.366 -0.0440 -0.1931  0.0233
21503W        W40250  29.110  21.763  15.569 -0.3239 -0.0014  0.2173
21504W        W40251  33.170  18.105  22.349  0.1660 -0.1818 -0.2226
21505W        W40252  33.637  13.791  16.843  0.2642 -0.1133 -0.1572
21506W        W40253  30.933  20.889   6.044 -0.0274 -0.0009 -0.1194
21507W        W40254  11.383  17.752  20.102 -0.2750  0.3959  0.3760
21508W        W40255  34.708   9.492  19.550 -0.1571 -0.2172 -0.1262
21509W        W40256   3.623  25.855  18.736 -0.1134  0.4918 -0.1164
21510W        W40257  11.371  17.198  25.213  0.0928  0.1597 -0.2116
21511W        W40258  23.782  18.589  11.856  0.1074 -0.0185 -0.0460
21512W        W40259   4.256   5.461  23.696  0.0134  0.1889 -0.0901
21513W        W40260  34.011  21.051  22.303  0.1361  0.0290  0.2225
21514W        W40261  13.070  29.808   1.223 -0.1004 -0.0614  0.3659
21515W        W40262  33.903  10.176  24.527 -0.1234  0.0405 -0.2171
21516W        W40263  30.265   6.613  15.826  0.0624 -0.0750 -0.0915
21517W        W40264  28.912  30.885   5.001 -0.0588 -0.1179 -0.0585
21518W        W40265  31.059  23.809   7.824 -0.1892  0.1736  0.0124
21519W        W40266   5.717  31.278  21.837 -0.1219  0.0268 -0.0555
21520W        W40267  17.854   0.759  20.648 -0.0587 -0.0175  0.1643
21521W        W40268  32.283  12.882  18.092 -0.1049  0.2016 -0.0154
21522W        W40269  13.538  24.638   8.835  0.0053 -0.1430 -0.0793
21523W        W40270   9.579   4.511  22.630 -0.0893 -0.0162  0.1337
21524W        W40271  24.824  13.103  20.909 -0.4618 -0.0004  0.1666
21525W        W40272  20.470  32.213  24.839  0.4195  0.0281  0.0049
21526W        W40273  34.946   8.324   0.776 -0.2414 -0.0312  0.2884
21527W        W40274  29.841  14.399   7.255 -0.1505  0.1775  0.3341
21528W        W40275   7.729  35.219  12.862 -0.1905 -0.1242  0.3056
21529W        W40276  21.825   8.876  19.733  0.0951 -0.0799  0.0248
21530W        W40277   1.642  31.011  22.161  0.0934  0.3059  0.0227
21531W        W40278  12.497  33.820   7.446  0.1522  0.0434 -0.0868
21532W        W40279   6.529  19.460  20.661 -0.0286 -0.1771 -0.1275
21533W        W40280  18.628  18.700   7.854  0.2007 -0.1024 -0.1911
21534W        W40281  13.651   4.165   8.826  0.0183  0.3158  0.2108
21535W        W40282  11.398  10.348  24.341 -0.0267 -0.0329  0.0125
21536W        W40283  13.207   6.572  23.351 -0.0187 -0.3289 -0.1810
21537W        W40284   7.851  18.014   4.065 -0.2290  0.4105  0.0483
21538W        W40285   7.394   8.370   8.940  0.0236  0.1183 -0.0209
21539W        W40286  35.155  15.155  18.134 -0.1478 -0.0070  0.1087
21540W        W40287   7.505  24.258  24.541 -0.0738 -0.2537 -0.1299
21541W        W40288  20.485  20.395  25.926 -0.0400 -0.1328  0.0564
21542W        W40289   4.683  10.383   7.153 -0.1000  0.0382  0.1732
21543W        W40290  17.085   4.377   5.740 -0.0117 -0.0325 -0.1189
21544W        W40291   6.497  13.559  23.126 -0.1526 -0.3485  0.2109
21545W        W40292  29.682  18.533   6.487  0.4216  0.3364  0.1101
21546W        W40293  30.348   7.564   3.361  0.3909 -0.0869  0.0246
21547W        W40294  20.685  34.985   1.782  0.0990  0.3005  0.0114
21548W        W40295  20.105  12.647   3.329 -0.1374  0.1961  0.2344
21549W        W40296   4.327  30.457  25.531 -0.3014  0.2075 -0.2182
21550W        W40297  22.141  23.266   0.630  0.0083 -0.0712 -0.0557
21551W        W40298  27.287  28.782  13.408  0.1503  0.3261  0.1192
21552W        W40299  33.002   4.286   2.269  0.0644  0.2569 -0.0020
21553W        W40300  15.541  21.242  15.031 -0.3864 -0.2030  0.0904
21554W        W40301  31.245  14.210   9.019  0.3085 -0.0217 -0.0916
21555W        W40302  14.468  14.338  14.236 -0.1472  0.0799  0.2548
21556W        W40303   7.397   1.920   6.330 -0.1491  0.0334  0.1595
21557W        W40304  19.223   0.027   2.702  0.0764  0.1850 -0.0902
21558W        W40305  13.106  22.020   7.526  0.0065 -0.2637  0.1330
21559W        W40306  21.361  17.547   1.554 -0.6270  0.1993  0.0296
21560W        W40307   2.821  33.903   3.138  0.2332  0.0717  0.0087
21561W        W40308   5.314   9.037  20.403  0.1954 -0.2504 -0.0275
21562W        W40309  33.379  25.860  21.155  0.1303  0.0766 -0.2018
21563W        W40310   2.547   4.804  18.351 -0.0906 -0.2011 -0.2726
21564W        W40311   6.618   0.576   6.693 -0.1249  0.1926 -0.2760
21565W        W40312  13.816   6.761   1.895  0.2492 -0.1453 -0.0634
21566W        W40313  27.229  10.022  18.394  0.0747 -0.4038 -0.1484
21567W        W40314   6.968   6.145  13.576  0.3153 -0.0838 -0.4961
21568W        W40315  14.551  13.236   7.288  0.0695  0.3028  0.0789
21569W        W40316  23.538  11.443  21.429 -0.1197 -0.1800  0.3056
21570W        W40317  33.405  18.843  19.617 -0.1695 -0.0573 -0.0488
21571W        W40318  13.463  26.948  24.528  0.1166  0.1943  0.0068
21572W        W40319   3.545   1.047   9.370  0.1083 -0.0787  0.2635
21573W        W40320   5.917  11.982   4.164 -0.2371  0.0071 -0.1521
21574W        W40321  27.369  32.256  14.888  0.2130 -0.0090  0.0893
21575W        W40322  28.049   3.839  12.658 -0.0834 -0.1939  0.2178
21576W        W40323  17.033   4.897  19.215  0.1585  0.2106 -0.3483
21577W        W40324  33.366  12.214  24.245  0.0946  0.0657  0.2549
21578W        W40325  27.950  16.665  13.838  0.0140  0.2252 -0.0641
21579W        W40326  14.073  16.032  22.705 -0.2266  0.0749  0.3815
21580W        W40327  23.197   6.612  19.972 -0.3145 -0.0199 -0.1174
21581W        W40328  13.208  19.922  11.955  0.0585  0.1688 -0.0416
21582W        W40329  11.882   7.145   7.707 -0.1610 -0.0174 -0.0509
21583W        W40330  12.441   9.083   2.841  0.1670 -0.1681 -0.1177
21584W        W40331  11.706   0.329  12.433  0.1197 -0.0363  0.2673
21585W        W40332  26.029  10.539  24.615 -0.0054  0.2199 -0.0099
21586W        W40333  13.331  30.915   9.837 -0.2608  0.2439 -0.2755
21587W        W40334  20.864   8.023  16.995  0.0508 -0.0499 -0.0002
21588W        W40335  30.036  11.996  18.986  0.1378 -0.1196  0.0146
21589W        W40336   8.463   5.212   1.039 -0.0628 -0.0116 -0.0083
21590W        W40337   6.519  31.974  25.017 -0.1997  0.0071 -0.2031
21591W        W40338  20.784   6.916   3.338 -0.0614  0.1882 -0.3848
21592W        W40339  11.152  19.315  25.686  0.3150 -0.4138 -0.2573
21593W        W40340  26.552  16.101  10.980  0.2097 -0.0059 -0.0956
21594W        W40341  13.033  12.533   1.142  0.1164  0.0591  0.0024
21595W        W40342  22.511  27.087  23.172 -0.1766 -0.0507 -0.2537
21596W        W40343  32.221  29.248   1.560 -0.0142  0.1872 -0.3204
21597W        W40344  30.128  34.045  20.339 -0.1553 -0.1132 -0.1984
21598W        W40345  16.820  29.237  21.030 -0.0935 -0.0723 -0.0158
21599W        W40346  23.255   2.603  17.937  0.0284  0.1726  0.4024
21600W        W40347  29.350  21.580   4.889 -0.1456 -0.0737  0.3888
21601W        W40348  34.650   3.116  15.846 -0.1986  0.2044  0.0630
21602W        W40349  28.639  29.481  23.874 -0.1218 -0.1916 -0.3242
21603W        W40350   8.428   4.188   2.105  0.1853  0.1553  0.2171
21604W        W40351  33.554  15.703   8.679 -0.0641  0.0130  0.1037
21605W        W40352  30.234   5.983   1.755  0.0592 -0.2304  0.0811
21606W        W40353  26.396  27.804  14.927 -0.3381  0.0932  0.0316
21607W        W40354  19.571  13.320  26.022 -0.1042 -0.0364 -0.2223
21608W        W40355   4.939  25.092   6.477 -0.0619 -0.0491 -0.1573
21609W        W40356   1.477   3.462  24.939 -0.1452  0.2519 -0.2253
21610W        W40357  21.500   9.308  19.907  0.0404 -0.0023 -0.2867
21611W        W40358  12.770  16.222   6.647  0.4041 -0.2384 -0.0616
21612W        W40359  16.686  27.303  26.010 -0.5406 -0.0754  0.1096
21613W        W40360  22.081  26.427  20.716  0.1604 -0.1581  0.2293
21614W        W40361  21.810  29.575  24.461  0.4063  0.1895 -0.1298
21615W        W40362  10.251  14.522   5.928 -0.1094 -0.2513 -0.1396
21616W        W40363  33.020  11.250  18.845  0.0219  0.1217  0.0097
21617W        W40364  14.495   9.580   6.244  0.3362  0.0914  0.1248
21618W        W40365  22.211  29.179  18.266  0.1372 -0.2176  0.0232
21619W        W40366  32.034  25.468  17.617  0.0860  0.1334 -0.1442
21620W        W40367   0.220   1.999  20.945 -0.0539  0.0179  0.1088
21621W        W40368  29.654   5.614  13.950 -0.2086 -0.0498  0.0407
21622W        W40369   3.066  23.808   3.898 -0.3252  0.1582  0.0006
21623W        W40370   7.899   1.332   5.150 -0.1376  0.0711 -0.1908
21624W        W40371  14.233   7.457  21.031  0.4644  0.0851  0.1827
21625W        W40372   4.416  11.919   7.804 -0.0200 -0.0598 -0.1789
21626W        W40373   6.221  25.361   6.255 -0.2093  0.2844 -0.2847
21627W        W40374   8.669  25.594  23.161  0.1558 -0.1677  0.1135
21628W        W40375  34.789  12.518  24.019  0.2022  0.0100  0.0332
21629W        W40376  14.024  17.579  23.831  0.0569 -0.1332 -0.0311
21630W        W40377   7.117  20.735   6.570  0.1105 -0.2677  0.0375
21631W        W40378  30.209  11.639  13.845 -0.2128  0.3253 -0.0281
21632W        W40379  28.352  20.495  12.353  0.0707  0.0495  0.0912
21633W        W40380  18.497  19.613  19.713 -0.0351 -0.2846 -0.1586
21634W        W40381  29.536  21.570  13.007 -0.1380  0.5251 -0.2252
21635W        W40382   5.203   1.068  20.163  0.0795  0.3083  0.3064
21636W        W40383  15.656  19.589  20.272 -0.1841  0.0925  0.1085
21637W        W40384  20.658   1.853  21.628  0.1408 -0.1285 -0.2385
21638W        W40385   4.489  26.183   3.880 -0.3155 -0.2958 -0.0367
21639W        W40386  28.928  26.958  26.011 -0.1271 -0.0087  0.0610
21640W        W40387  26.814  26.164   2.826  0.0176 -0.3874 -0.3448
21641W        W40388  17.531  33.306  23.356  0.1875 -0.0607 -0.3477
21642W        W40389  18.543  26.809   1.649  0.0406 -0.1193  0.1676
21643W        W40390   7.134   3.143   0.738  0.1846  0.0944  0.0090
21644W        W40391  34.140  25.167  16.592  0.3959  0.0824 -0.3018
21645W        W40392  13.390  12.640  25.884  0.0856  0.0284 -0.2203
21646W        W40393   8.631   8.718  22.892 -0.0992  0.0217 -0.2385
21647W        W40394  29.513  17.915  20.477 -0.3738 -0.0680  0.2207
21648W        W40395  13.409  16.175   7.952  0.1608  0.1305  0.2360
21649W        W40396  26.611  16.144   6.253  0.1495  0.0433  0.1688
21650W        W40397   2.258  16.692  12.394  0.0045  0.0007 -0.0428
21651W        W40398  30.095  28.286  17.736  0.3459 -0.2984  0.0131
21652W        W40399  30.950  17.346  22.506  0.0082 -0.1933  0.2570
21653W        W40400  18.973  25.396   4.847 -0.0134  0.0694  0.0024
21654W        W40401  13.135  32.393   0.621 -0.0363 -0.0553  0.0062
21655W        W40402  29.393  32.623   4.110  0.0058  0.2786  0.0628
21656W        W40403  19.550  20.027  20.948 -0.1578  0.1508  0.0122
21657W        W40404  31.612  17.335  20.986 -0.1685  0.0269  0.3466
21658W        W40405   7.502  34.128  11.139 -0.0022  0.1680  0.0254
21659W        W40406  29.025  12.683   6.551  0.3123 -0.3953 -0.0414
21660W        W40407  15.981  26.021  21.576 -0.1902  0.1155  0.0083
21661W        W40408  33.474   2.241  18.848  0.2739 -0.1397  0.0970
21662W        W40409   1.177  23.318   3.359 -0.4179  0.2129  0.1289
21663W        W40410   7.484  16.212  19.905  0.2073  0.1423 -0.2176
21664W        W40411   7.155  32.090  24.334 -0.0300 -0.0592 -0.0783
21665W        W40412   9.706   7.883  10.006 -0.1706 -0.0134  0.0781
21666W        W40413  23.458   5.371  22.448  0.0287 -0.0689 -0.1371
21667W        W40414  19.189   4.739   0.648  0.1437 -0.1349  0.2627
21668W        W40415   1.386  20.477  20.018  0.5527 -0.0884 -0.0006
21669W        W40416  30.261   6.803  21.131 -0.0585 -0.2874  0.2063
21670W        W40417  30.662  28.408  22.839  0.1013  0.3040 -0.0954
21671W        W40418   5.522  29.448  23.032 -0.0719  0.4341  0.0603
21672W        W40419  33.069   6.445  12.026  0.1286 -0.0198  0.2137
21673W        W40420  26.079  33.876   6.029 -0.0244 -0.1019  0.0171
21674W        W40421  21.436   7.592  22.439  0.1989 -0.4297 -0.0241
21675W        W40422   9.833  15.755   5.107 -0.0917  0.1357  0.1019
21676W        W40423  12.984  28.446  16.568  0.0341  0.0721 -0.2561
21677W        W40424  30.282  19.180  20.523  0.2392 -0.1818 -0.1179
21678W        W40425  15.006   3.322   4.440  0.0221  0.1631 -0.2239
21679W        W40426  18.323   8.529  20.724  0.3614  0.1699 -0.3987
21680W        W40427  14.310   2.886   7.181  0.1323 -0.0020 -0.2657
21681W        W40428  25.475  23.350  23.524  0.2765  0.3492 -0.1660
21682W        W40429  19.632   4.715   1.722  0.0934 -0.1341  0.1317
21683W        W40430  19.775   0.838  24.451 -0.0469  0.2547 -0.0890
21684W        W40431   5.483  16.176   7.459 -0.1797 -0.3670  0.1722
21685W        W40432  17.118   4.741   6.460  0.1210 -0.4904 -0.0363
21686W        W40433  29.516  20.478   5.782  0.3124  0.0185  0.0514
21687W        W40434   7.564   8.652  10.206 -0.1745 -0.0444  0.2220
21688W        W40435   9.875  26.039  23.803 -0.2893  0.0973 -0.0086
21689W        W40436  16.740  27.021  10.478  0.2094  0.1651  0.0642
21690W        W40437  30.014  24.364  24.627 -0.1038  0.1461 -0.1360
21691W        W40438  21.168  16.245   0.185 -0.0965  0.4167  0.3244
21692W        W40439  27.609  13.764  21.441 -0.2310 -0.0105 -0.2836
21693W        W40440  24.439   4.698  14.751 -0.3012  0.0923  0.1484
21694W        W40441   7.177  21.683   7.173 -0.4281 -0.0219  0.0198
21695W        W40442  21.876  13.231  14.271 -0.0030  0.2254  0.1239
21696W        W40443  27.871  33.824  21.023 -0.1467  0.0007  0.0149
21697W        W40444  28.526  13.459  20.814 -0.1364  0.2513 -0.2145
21698W        W40445  30.093  23.547  12.138  0.0810  0.4225  0.0920
21699W        W40446   4.909  12.671  20.527 -0.2418  0.0469  0.0150
21700W        W40447   4.871  16.520  22.634  0.2120 -0.1052  0.2868
21701W        W40448  31.015   3.794  19.285  0.0663  0.0869  0.2136
21702W        W40449   9.729  31.039  14.191 -0.2536 -0.0744  0.3094
21703W        W40450  14.882  26.362  23.332 -0.0135 -0.0612  0.1072
21704W        W40451   4.222  20.155  25.479 -0.3730 -0.0863 -0.1494
21705W        W40452  32.300  19.818  20.558  0.1709  0.0113  0.1867
21706W        W40453   3.565  15.900   4.672 -0.0302  0.1711 -0.1228
21707W        W40454   1.328  14.000  24.298 -0.2743  0.3760 -0.1689
21708W        W40455  21.104   7.596  25.028  0.3196  0.3352 -0.1932
21709W        W40456   9.276   9.657  11.107  0.0701 -0.0768 -0.0864
21710W        W40457  12.223  21.603   7.528  0.0232  0.1274 -0.0079
21711W        W40458  19.845  20.223  25.612  0.0755 -0.2624  0.3666
21712W        W40459  13.444  12.974   0.569 -0.3538 -0.1700  0.0358
21713W        W40460  18.170  14.586   1.668 -0.1425  0.0434 -0.0988
21714W        W40461  34.920  12.263  20.052  0.0967 -0.2440  0.2174
21715W        W40462   0.753  35.044   2.573 -0.0734  0.1160 -0.2213
21716W        W40463  11.070  16.713   4.295  0.1741 -0.4061  0.0587
21717W        W40464  34.524  30.600  18.273  0.0241  0.2616 -0.2844
21718W        W40465  12.861  22.614  21.977  0.0244  0.1701  0.1415
21719W        W40466  16.657  29.926  19.908 -0.0827  0.2656  0.2942
21720W        W40467  35.078  23.530   0.816  0.3271 -0.0537 -0.2840
21721W        W40468  25.529  33.823   3.812  0.0093  0.0381 -0.1714
21722W        W40469  27.620  14.241  21.782 -0.0917  0.1083  0.0617
21723W        W40470   1.334   4.846  19.683  0.0894  0.0089 -0.0383
21724W        W40471  15.217  16.920   2.778 -0.1890  0.0620 -0.2320
21725W        W40472  24.089  30.820   4.662  0.0043  0.1288 -0.0654
21726W        W40473  26.908  17.601  17.474 -0.0024  0.0789 -0.0455
21727W        W40474  26.308   0.969  15.334  0.2535 -0.0474 -0.0436
21728W        W40475   0.812   2.670  19.158 -0.1896  0.0235  0.0938
21729W        W40476  22.152   5.543  25.565 -0.1187  0.1178  0.5083
21730W        W40477  28.391  32.877  20.142  0.0303 -0.3078  0.1854
21731W        W40478  22.831   2.653  15.539  0.1601  0.1773  0.4849
21732W        W40479  26.257  29.146  15.307 -0.0837  0.2351 -0.1798
21733W        W40480   8.296  10.718  17.936 -0.1166 -0.3247 -0.3696
21734W        W40481  17.319  13.999  18.448 -0.0735 -0.3010 -0.1104
21735W        W40482  10.681  26.557   1.818  0.1772 -0.1383  0.2988
21736W        W40483  15.108  25.986   5.342 -0.1752 -0.2563 -0.0314
21737W        W40484   2.317  29.935   3.344 -0.3832  0.2849  0.1251
21738W        W40485  29.784  11.729  23.815  0.1780  0.0955 -0.1374
21739W        W40486  17.078   8.100   0.254  0.1095  0.0009 -0.3463
21740W        W40487   9.989  16.799   9.036 -0.1588 -0.0598  0.2010
21741W        W40488   3.073  11.214  17.075 -0.0578  0.2285  0.0231
21742W        W40489  13.307  25.600   1.825 -0.1144  0.0375  0.2182
21743W        W40490  23.860  18.600  16.215  0.2337  0.2676 -0.0351
21744W        W40491  24.142   0.967  21.107 -0.4046  0.0781 -0.0893
21745W        W40492   9.746  29.005   6.700  0.1988 -0.2549 -0.1806
21746W        W40493  26.709  10.424  22.321  0.3550  0.0871 -0.1129
21747W        W40494   2.785  15.040  25.346  0.0477 -0.4604  0.0170
21748W        W40495   1.783   5.826  21.921  0.2611  0.3438 -0.1691
21749W        W40496  33.728  17.216  23.824  0.0736  0.1192  0.3692
21750W        W40497  11.077   4.191  13.937 -0.3408  0.0630 -0.0620
21751W        W40498   4.811   1.082  20.984 -0.0611  0.2620  0.2091
21752W        W40499   0.864  16.575   9.432 -0.1684 -0.0321 -0.0478
21753W        W40500  21.393  11.716   0.997 -0.1641 -0.2952  0.0593
21754W        W40501  25.081  33.883  13.313  0.0611 -0.0902  0.1912
21755W        W40502  18.679  22.690  11.230 -0.0644  0.1829  0.1589
21756W        W40503  33.345  17.605  12.647  0.1318 -0.0529  0.3333
21757W        W40504  19.041  11.171   4.675  0.1864  0.0543 -0.0704
21758W        W40505  13.490  17.914  24.472  0.1877  0.0385  0.0370
21759W        W40506   1.556   5.175  15.007 -0.0525 -0.0845  0.0898
21760W        W40507   7.904  11.625   8.315  0.0681 -0.0490 -0.2159
21761W        W40508  21.938  26.089  23.325  0.3098 -0.1202  0.1550
21762W        W40509  10.370  17.003  23.273  0.0842  0.2892 -0.1593
21763W        W40510  16.588  26.145  22.210 -0.0512  0.0880  0.0145
21764W        W40511  23.441   5.172   6.015  0.1626 -0.1299  0.0040
21765W        W40512   4.987   5.484   4.492  0.1493  0.0764  0.0705
21766W        W40513  33.768   3.281  16.361 -0.0014  0.1046  0.0626
21767W        W40514  27.202  12.517   9.807 -0.0455 -0.2311  0.0655
21768W        W40515  11.036   9.629  25.465 -0.2214 -0.0775 -0.0059
21769W        W40516  10.972  13.696  13.132  0.0486 -0.1617 -0.1428
21770W        W40517   4.267   8.382  21.956 -0.0216 -0.2814 -0.2102
21771W        W40518   5.305  26.829  25.104 -0.1045 -0.0359 -0.0416
21772W        W40519  31.588   5.116  24.207 -0.0163  0.1585  0.1833
21773W        W40520  34.541  30.463  20.673 -0.1327  0.1384 -0.1533
21774W        W40521   8.996  13.525  23.037  0.1289 -0.1066  0.1070
21775W        W40522   9.446  25.437   3.346  0.0313  0.1825 -0.1410
21776W        W40523  20.619  15.664  22.271  0.1639 -0.0174 -0.1014
21777W        W40524  14.151  29.434   9.231 -0.0451 -0.0988  0.1917
21778W        W40525  34.037   0.716  18.347 -0.0073  0.0741 -0.1684
21779W        W40526  25.456  26.783  11.898 -0.0533  0.0613  0.1300
21780W        W40527  14.454  12.644   2.127 -0.2627  0.1497  0.1004
21781W        W40528  29.964  18.795   9.776  0.2888 -0.0854 -0.2202
21782W        W40529  28.269  12.367  10.122 -0.1639 -0.2003 -0.6096
21783W        W40530  29.995  31.685  15.300 -0.2816 -0.1895  0.0765
21784W        W40531  22.147  23.991  21.558  0.0174  0.2961  0.2861
21785W        W40532  22.463  20.953  16.628 -0.1128 -0.2238  0.2525
21786W        W40533   3.307  11.483  25.223 -0.0108  0.1356  0.1888
21787W        W40534  15.396   2.066  21.261 -0.1162 -0.2947 -0.0596
21788W        W40535  14.346  13.782   5.736  0.3965 -0.2459 -0.0586
21789W        W40536  28.406  13.347   8.142  0.1382  0.1390 -0.2412
21790W        W40537  22.793  23.538  18.582 -0.1661 -0.3471  0.0047
21791W        W40538   9.333  14.659  11.182 -0.2187 -0.0559 -0.4794
21792W        W40539  34.408  20.032  20.621  0.0011 -0.1427 -0.1425
21793W        W40540   9.126  17.607   0.371  0.1484  0.0112  0.0014
21794W        W40541  12.447  11.484  11.166 -0.0358  0.4396  0.0957
21795W        W40542  11.517   0.761   4.113  0.0305 -0.5793 -0.0029
21796W        W40543  31.120  17.083  14.537 -0.2431 -0.0293  0.2247
21797W        W40544  23.066  32.358  19.026  0.0277 -0.0168  0.1576
21798W        W40545  16.373  27.030   7.741  0.0301  0.1464 -0.0542
21799W        W40546  22.351  15.373   3.166 -0.0028 -0.1176  0.3520
21800W        W40547   5.869   6.708   4.654  0.2237  0.1692  0.2124
21801W        W40548  18.304  31.396  22.551  0.0165 -0.2765 -0.1411
21802W        W40549  15.909  33.762  23.045 -0.0859 -0.4953  0.1825
21803W        W40550   1.993  28.274   4.191  0.3434 -0.1620  0.1125
21804W        W40551  27.613   1.125  24.793  0.2005  0.1160  0.0092
21805W        W40552  15.586   3.804  17.282 -0.2154 -0.4879  0.1297
21806W        W40553  21.019   7.739  23.945  0.2154  0.2245  0.0096
21807W        W40554   4.058  23.411  24.251 -0.1021 -0.0417  0.1971
21808W        W40555   2.772  27.869  25.832 -0.0650  0.1474 -0.0282
21809W        W40556  14.079  14.463  19.310 -0.0399 -0.1735  0.0068
21810W        W40557   1.672  22.931  25.488  0.0087 -0.1847  0.0732
21811W        W40558  31.024  26.474  16.813 -0.2363  0.2245 -0.1927
21812W        W40559  30.268  27.440  22.791  0.0551  0.1068 -0.1044
21813W        W40560  24.961   0.077   5.066  0.2346  0.0459 -0.1281
21814W        W40561   9.898   9.055   3.486  0.1843 -0.1991  0.3436
21815W        W40562  22.251  14.103   0.278  0.2971 -0.1300  0.0374
21816W        W40563  19.280  24.317  22.029  0.0987 -0.1131  0.2466
21817W        W40564  20.185  35.240   3.930  0.0246  0.0175 -0.0376
21818W        W40565  30.367  32.160  24.597 -0.0843 -0.1013  0.0265
21819W        W40566   8.166  11.297   7.824 -0.2174  0.2077  0.1743
21820W        W40567  11.000  13.964   9.657  0.0987 -0.1952 -0.3563
21821W        W40568  33.199  33.273   6.137 -0.2224 -0.1573  0.0396
21822W        W40569   2.165   9.901   3.250  0.0671 -0.1005  0.0655
21823W        W40570  14.066  33.631   6.251  0.1324  0.0631  0.0853
21824W        W40571   7.116  26.681  22.131  0.1034 -0.1329  0.2813
21825W        W40572  11.654   1.445   3.512  0.1896  0.0769  0.3585
21826W        W40573  27.419  15.145  10.342 -0.0581  0.0154  0.1457
21827W        W40574  12.823   2.071   5.648  0.1800  0.2372 -0.1120
21828W        W40575   1.219  15.724  24.315 -0.0278 -0.0730 -0.0921
21829W        W40576  25.141  28.366  10.027 -0.1154  0.3981  0.3681
21830W        W40577  29.188  29.413  19.916 -0.0039  0.1232  0.3562
21831W        W40578   5.814   4.932   8.539 -0.0875 -0.0112  0.0885
21832W        W40579  10.395  18.866  14.051 -0.1459  0.0227 -0.1055
21833W        W40580   4.671  29.059   3.649  0.1687 -0.0818  0.1596
21834W        W40581  12.194   6.007  21.215  0.0159 -0.3998  0.1806
21835W        W40582   1.276  13.624   0.407  0.1089 -0.1428  0.2685
21836W        W40583  15.546   7.555   0.383  0.3395 -0.0995  0.2400
21837W        W40584   0.348  17.348   9.940  0.1093 -0.3259 -0.1764
21838W        W40585   1.166  31.196  17.714  0.0405 -0.1524 -0.1860
21839W        W40586   9.225  33.129  23.886  0.2531 -0.1292 -0.1882
21840W        W40587  16.091   5.973   9.388  0.0776  0.0861 -0.1124
21841W        W40588   0.879  13.350  21.286  0.0347 -0.1469 -0.0569
21842W        W40589  10.554   5.051   1.209  0.1390  0.1542 -0.2050
21843W        W40590  30.865  34.613   0.407  0.2302 -0.0637 -0.0353
21844W        W40591  19.112   0.422  17.345 -0.3908 -0.0658 -0.1425
21845W        W40592  13.797  13.218   4.587  0.1487 -0.0479 -0.0530
21846W        W40593   5.640   5.926   0.505 -0.0382 -0.2884 -0.0003
21847W        W40594  34.076  23.128   0.830  0.1737  0.0355 -0.0188
21848W        W40595  28.170  25.646  11.392  0.0266 -0.0701 -0.0373
21849W        W40596  23.929   3.498  16.196  0.1022 -0.4315 -0.0198
21850W        W40597  18.241  34.697   3.190 -0.3303  0.1413 -0.1206
21851W        W40598  12.099  32.664   2.031  0.3348  0.0976  0.0560
21852W        W40599   4.092   3.679   5.801 -0.1456 -0.2894 -0.3132
21853W        W40600  18.264  33.029   6.515 -0.2486 -0.3237 -0.0937
21854W        W40601  34.809   3.948  25.873 -0.0320  0.4169  0.0178
21855W        W40602  34.977  26.808  18.187  0.3068  0.4301  0.0216
21856W        W40603   0.990  21.470  13.033  0.1675 -0.1905  0.0093
21857W        W40604  22.308   5.482  24.932 -0.0381 -0.2645  0.4071
21858W        W40605  25.063  16.865  14.108  0.0535 -0.1054  0.2175
21859W        W40606  15.558  29.893  22.109  0.0559  0.0516  0.2419
21860W        W40607  22.876  18.584  18.505 -0.3283 -0.0159  0.0018
21861W        W40608  30.169  11.390   7.147 -0.2729 -0.1012  0.1743
21862W        W40609  28.687  21.290  21.776 -0.2065  0.0008  0.1548
21863W        W40610   9.762  33.980  26.218 -0.0186  0.1518 -0.2517
21864W        W40611  25.406   8.548  11.639  0.2503 -0.2588 -0.0361
21865W        W40612  10.839   7.390   8.377 -0.2235  0.5769  0.1156
21866W        W40613   2.104   5.060   1.859  0.2495 -0.0948 -0.3395
21867W        W40614  35.053   7.270  16.096 -0.0239 -0.1963 -0.6975
21868W        W40615  14.712   1.388   6.205 -0.2449 -0.3283  0.0323
21869W        W40616  34.659   5.063   0.396 -0.2111 -0.1114  0.0779
21870W        W40617  20.450  21.423  18.170  0.1580  0.1362 -0.2648
21871W        W40618   7.333   5.928  25.092  0.0623  0.0177 -0.2168
21872W        W40619  14.613   1.690  24.886  0.1061  0.3906 -0.0394
21873W        W40620  18.103   3.118  19.423  0.0842  0.4072 -0.1062
21874W        W40621   8.526  27.673  25.242  0.0191 -0.0626  0.1038
21875W        W40622  28.545   8.033  19.951  0.1059  0.1188  0.0602
21876W        W40623  29.219   0.573  14.015 -0.0570  0.0628  0.1446
21877W        W40624  22.331   3.516  19.326 -0.2407 -0.2216 -0.0824
21878W        W40625  27.721   1.801  12.614 -0.2602  0.3592 -0.1161
21879W        W40626  21.650  29.460  22.241 -0.0526  0.0611  0.1319
21880W        W40627  23.904   5.475  19.292 -0.3249  0.0394 -0.0914
21881W        W40628   0.390  24.919   4.481  0.2500 -0.2148  0.0830
21882W        W40629  20.642  16.062  26.201 -0.0234 -0.2717 -0.1773
21883W        W40630  24.747  17.364  26.161  0.1054 -0.0104  0.1328
21884W        W40631  17.001   2.769  22.162 -0.1121  0.1629  0.1640
21885W        W40632  12.167  19.388  14.065  0.0038  0.3475  0.0096
21886W        W40633   5.907  26.043  22.422 -0.1117 -0.2028  0.0165
21887W        W40634  18.692  11.616   0.949  0.0669  0.1928 -0.3913
21888W        W40635   6.870   7.932  11.592  0.3080 -0.0879  0.1137
21889W        W40636  12.137   5.734  23.134  0.1030  0.0174  0.2565
21890W        W40637  20.546   5.426   4.285  0.0858  0.0866  0.2055
21891W        W40638  21.804  35.138  17.137 -0.1622 -0.1490 -0.0082
21892W        W40639  20.908   7.181  25.186 -0.0803 -0.2275  0.0082
21893W        W40640  24.256  12.970  25.907 -0.2174 -0.0064  0.0949
21894W        W40641  18.836  17.895  20.914 -0.2731  0.0028  0.0792
21895W        W40642  26.017  28.230   9.607  0.4188  0.1566  0.1692
21896W        W40643  25.550  28.600   1.794 -0.0849  0.1075 -0.1001
21897W        W40644  12.749  11.516  18.649  0.1495  0.2071 -0.1830
21898W        W40645  27.261  13.880  10.638  0.1797 -0.1317 -0.0001
21899W        W40646   1.943   2.011  24.486 -0.0090  0.4595  0.0996
21900W        W40647  34.064  12.344   1.846  0.0229  0.0962  0.1394
21901W        W40648   8.081  24.118   5.632  0.1717  0.0532 -0.2536
21902W        W40649  13.247  12.581   6.369  0.0085 -0.1142 -0.0417
21903W        W40650  11.056  32.837   1.429 -0.0279  0.4885 -0.2664
21904W        W40651  12.743  28.779  10.976  0.0702  0.1150 -0.2312
21905W        W40652  34.639   7.625  21.972 -0.1663 -0.0091 -0.1496
21906W        W40653   6.092   5.885  21.919  0.0745 -0.0505  0.0904
21907W        W40654  25.199  11.177  14.314  0.0380  0.0085  0.0998
21908W        W40655  10.619  17.037   6.614 -0.2969 -0.1071 -0.1906
21909W        W40656  28.608  29.044  10.775 -0.1148 -0.1547  0.0857
21910W        W40657   2.662  33.803  25.268  0.2429 -0.1245 -0.1352
21911W        W40658  32.662   0.171  19.536 -0.1457  0.0841 -0.2997
21912W        W40659  22.992  11.238   1.541  0.2521  0.3484  0.2379
21913W        W40660  14.138   9.287  21.595  0.3103  0.3199  0.3670
21914W        W40661   4.858  19.709  18.796 -0.4665 -0.0523 -0.1519
21915W        W40662   5.359   5.302   7.795  0.0115 -0.1746  0.0702
21916W        W40663  17.507  16.269  11.730 -0.0583 -0.0148  0.0921
21917W        W40664   7.084  25.129  21.108 -0.1931 -0.3475  0.4353
21918W        W40665  11.763   5.567   0.865 -0.0235  0.1661 -0.2542
21919W        W40666  25.255   3.783  17.483  0.1659  0.3483 -0.2852
21920W        W40667  27.216   1.309  10.908 -0.1586 -0.0314 -0.1661
21921W        W40668   1.208   2.232   5.424  0.0902 -0.0842  0.5637
21922W        W40669  27.167  30.808   0.925  0.0232 -0.0524  0.0455
21923W        W40670   6.337   5.472   9.170 -0.0546 -0.0951  0.0658
21924W        W40671   8.974   5.406  11.224 -0.0495  0.0558  0.1351
21925W        W40672  25.674   2.578   3.843  0.1268 -0.0009  0.1191
21926W        W40673   7.096  30.400  13.929  0.0622 -0.2729 -0.0132
21927W        W40674  31.654   2.529  24.037 -0.0921 -0.1290  0.1713
21928W        W40675  13.808  11.220   1.184 -0.0367 -0.4307 -0.1902
21929W        W40676  32.693  17.589  16.964 -0.1042  0.1662 -0.0996
21930W        W40677  32.022  33.002   2.630  0.3859 -0.3253 -0.0562
21931W        W40678  10.480  25.309   1.325 -0.0819  0.1673  0.0905
21932W        W40679  12.265  16.529  22.530  0.0686  0.2642  0.2520
21933W        W40680  14.879  18.233   7.947  0.2855 -0.0802 -0.1015
21934W        W40681  31.551  24.325  14.217 -0.1367 -0.0198  0.1129
21935W        W40682  19.776   6.895  25.910 -0.2421  0.3489  0.2278
21936W        W40683  30.750  11.536   8.678  0.1149 -0.0750 -0.0528
21937W        W40684   1.662  17.221  18.327 -0.0859 -0.2738  0.0425
21938W        W40685  12.051  13.567   7.516  0.1967  0.3081  0.5401
21939W        W40686  15.876  21.298   3.751  0.1988 -0.4520 -0.2569
21940W        W40687  21.131  16.748  15.474  0.0608 -0.0018  0.1816
21941W        W40688  34.495  17.419  21.373  0.0751  0.0041 -0.2533
21942W        W40689  18.595  11.244  24.505 -0.0414  0.1711 -0.0672
21943W        W40690  27.534  28.963  15.864  0.1027 -0.0952 -0.2341
21944W        W40691  29.108  20.783   5.939 -0.2262  0.0055  0.2764
21945W        W40692   4.389  31.194  11.855 -0.2011  0.2277  0.1468
21946W        W40693  15.291  16.117  24.218 -0.4345 -0.1807  0.4991
21947W        W40694   1.756  29.398  19.790 -0.2142  0.2805  0.1382
21948W        W40695   8.735  10.681  24.016  0.0209 -0.0619  0.0416
21949W        W40696  24.906  32.448   1.316  0.0059 -0.1636 -0.0861
21950W        W40697  10.279  11.708  23.774 -0.3008 -0.0081 -0.1272
21951W        W40698  18.271   4.643  10.126  0.0766  0.1091  0.0523
21952W        W40699  19.096   4.440  20.201 -0.0441 -0.3244 -0.2013
21953W        W40700   5.279  22.196  25.934  0.0677 -0.1496  0.0130
21954W        W40701  25.288   0.587  20.655  0.1340  0.0288 -0.2122
21955W        W40702  15.235  27.296   4.281  0.0892  0.1971  0.2019
21956W        W40703  17.803  34.323  25.394 -0.0504  0.0229 -0.0455
21957W        W40704   4.079   2.627   2.760 -0.1315  0.0158 -0.2918
21958W        W40705  10.591  19.029   6.845  0.1884  0.4372 -0.2795
21959W        W40706  23.986  12.608  17.788  0.1836  0.1901  0.0899
21960W        W40707  21.656   8.328   0.486 -0.0156 -0.0055 -0.0718
21961W        W40708   7.929  35.338  13.295  0.0389  0.1793 -0.3256
21962W        W40709  14.514   2.500  18.325  0.0819  0.0418 -0.1233
21963W        W40710  26.638  27.264  14.074  0.1077  0.1392  0.0135
21964W        W40711   4.104  28.029  22.588 -0.0028 -0.0810 -0.0637
21965W        W40712  18.547   0.794  23.716 -0.0809  0.1585  0.3027
21966W        W40713   4.147  22.557  23.886 -0.1041 -0.1427 -0.1786
21967W        W40714  27.559  18.479  13.990  0.2984  0.3524  0.0543
21968W        W40715  29.068  27.039   0.402 -0.0989 -0.2423 -0.0820
21969W        W40716  28.756  14.533  15.864 -0.0473  0.0598  0.0975
21970W        W40717  31.433  18.086   7.928 -0.0206  0.2614 -0.0862
21971W        W40718  11.874  23.324  22.302  0.1040 -0.2274 -0.1274
21972W        W40719  27.571  16.189  19.425 -0.1282  0.1500 -0.1734
21973W        W40720  21.678  32.476  23.519  0.1933  0.2052 -0.1523
21974W        W40721  21.319  21.690  21.664  0.2780  0.2389  0.0100
21975W        W40722  15.191  23.862  12.043 -0.2846  0.2907 -0.0092
21976W        W40723  12.465  29.059  24.309 -0.0272 -0.0814  0.0492
21977W        W40724   3.926  32.861   5.262 -0.0379  0.1016  0.0911
21978W        W40725   6.349   0.591   7.487 -0.0560  0.0392  0.0922
21979W        W40726   2.114  30.138   6.414  0.1465  0.0973  0.2928
21980W        W40727   2.555  33.585   4.896  0.0403  0.2060 -0.0516
21981W        W40728  30.734   9.958   8.861 -0.2002 -0.2665 -0.0075
21982W        W40729   6.919  13.211  12.171 -0.0286  0.3518 -0.1297
21983W        W40730   0.303  17.801  10.978 -0.2135  0.2266 -0.1661
21984W        W40731   4.041   0.531  24.448  0.0584 -0.2215  0.0477
21985W        W40732  20.537   6.460  22.520 -0.5158  0.1095  0.0252
21986W        W40733  25.224   5.034   5.812  0.3112 -0.0751  0.2677
21987W        W40734  18.534   9.949  10.594  0.0379  0.1713 -0.0887
21988W        W40735  16.405  17.091   8.008  0.2179  0.0425 -0.0270
21989W        W40736   2.194  29.915   5.197 -0.2779  0.1105 -0.1561
21990W        W40737  12.583  16.543  22.145 -0.3888 -0.2149 -0.1999
21991W        W40738  26.414  34.382  12.951  0.0603 -0.1566 -0.1128
21992W        W40739  10.268  11.518  11.173  0.0402 -0.0248  0.1120
21993W        W40740  31.652  31.982  16.762 -0.2343 -0.1823 -0.1404
21994W        W40741   2.408  26.942  20.454  0.3110 -0.0314  0.1955
21995W        W40742  31.499  21.797  22.722  0.1287 -0.1794 -0.1480
21996W        W40743   1.675  31.875  20.834 -0.0277  0.3069 -0.3084
21997W        W40744  24.549  31.904  18.051  0.1287  0.1957  0.2768
21998W        W40745   4.364  16.628  17.410  0.0272  0.0462 -0.0621
21999W        W40746  26.864  23.443   8.087 -0.0928  0.1518 -0.2918
22000W        W40747  18.608  10.333  25.007 -0.3160 -0.0220 -0.0891
22001W        W40748  34.181  18.727  17.371  0.1394  0.4219  0.3426
22002W        W40749  11.120   2.248  22.113 -0.0231  0.0377  0.1908
22003W        W40750  32.434  20.928   8.655  0.2090 -0.3737  0.3674
22004W        W40751  15.672   5.592   9.456  0.2614 -0.0066  0.1910
22005W        W40752  28.065  24.005   0.471 -0.0334 -0.0640  0.2086
22006W        W40753  29.355  30.469   5.674 -0.1743  0.1548  0.0324
22007W        W40754   9.962  23.634   0.604 -0.0910 -0.1966 -0.0393
22008W        W40755  32.824   9.813  19.193 -0.1129  0.3621 -0.3222
22009W        W40756   8.235   8.952  19.283  0.0698 -0.2846  0.0479
22010W        W40757   2.317   4.488   1.710 -0.0435 -0.3701 -0.0801
22011W        W40758  21.481  30.511  18.455  0.1760  0.1302  0.1566
22012W        W40759  12.954  31.104  21.059 -0.0047  0.0361  0.1412
22013W        W40760  14.651   8.997  13.104 -0.0268 -0.1378  0.0902
22014W        W40761  20.491  11.303   1.565 -0.0956  0.1932  0.0165
22015W        W40762  14.870  32.026  22.434  0.0097  0.0686  0.2652
22016W        W40763  22.870  20.982   2.959 -0.1956  0.1146 -0.1045
22017W        W40764  30.090  33.618  20.003  0.2323 -0.0098 -0.0712
22018W        W40765  25.611  24.398  10.227  0.0838  0.0093  0.1163
22019W        W40766  29.282   6.529  19.959  0.1943  0.1556  0.3975
22020W        W40767  29.820   9.885   7.212  0.0331  0.0513 -0.0590
22021W        W40768  19.620   2.026   6.894 -0.0907 -0.1060  0.0318
22022W        W40769  33.779  31.660   0.535 -0.0399  0.1003  0.1408
22023W        W40770   4.698   9.947   0.241  0.3466 -0.1048 -0.2940
22024W        W40771   5.190   1.902  10.420 -0.0583  0.1016 -0.0654
22025W        W40772  31.000  26.969  22.327  0.1936  0.2679  0.0769
22026W        W40773  15.238  27.940  24.484  0.1374  0.4278  0.1108
22027W        W40774   1.419   9.745  21.102  0.0637 -0.0896  0.2397
22028W        W40775  25.709  11.570   0.547 -0.0640  0.1062 -0.1063
22029W        W40776  12.233  24.161   6.537 -0.3622 -0.1302  0.1416
22030W        W40777  18.760  14.760  24.659 -0.2178  0.0538 -0.0061
22031W        W40778  12.761  20.787  13.800  0.0104  0.2567  0.0094
22032W        W40779   8.163   5.442  24.930 -0.2458  0.0414 -0.0087
22033W        W40780   4.273  10.247   6.109  0.0678 -0.0939 -0.2601
22034W        W40781   3.886  27.036  21.089  0.1082  0.0616 -0.0472
22035W        W40782   6.483  10.265  17.724  0.0507 -0.0677 -0.0995
22036W        W40783   7.383   5.819   8.145 -0.3162  0.2030  0.0736
22037W        W40784  30.963  11.375  11.096 -0.0246  0.1681 -0.1233
22038W        W40785  27.723  18.996   8.423 -0.1570  0.1103  0.0520
22039W        W40786  18.881  23.503   2.181  0.1572  0.0204 -0.0578
22040W        W40787  15.173  22.922   2.463 -0.1419 -0.0922 -0.1069
22041W        W40788  31.105  10.727  10.704 -0.3133  0.3744 -0.5053
22042W        W40789   5.674  29.392   4.801  0.1165  0.3377  0.3150
22043W        W40790  27.663  14.801  18.410  0.2025 -0.1373 -0.0337
22044W        W40791   6.862  32.936  10.034 -0.1018 -0.0329  0.1291
22045W        W40792   2.476  15.758  21.338 -0.0245  0.1476 -0.1964
22046W        W40793   8.897  14.758   4.996 -0.0400  0.0987 -0.0378
22047W        W40794  23.840  35.101   1.566  0.1973 -0.0286  0.3354
22048W        W40795  13.160   1.164   6.233  0.0481  0.0363  0.0559
22049W        W40796  31.940  34.982  14.532 -0.1802 -0.2061  0.0985
22050W        W40797  13.145  27.297  11.220  0.0255 -0.0426 -0.0313
22051W        W40798  17.315  16.354   6.561  0.0677 -0.1295 -0.1378
22052W        W40799  30.212   8.884   0.300  0.0675 -0.3309  0.2321
22053W        W40800  12.357   3.237  22.656 -0.2724  0.1512  0.2765
22054W        W40801   8.749  10.582  26.220 -0.1832 -0.0069  0.0371
22055W        W40802  16.760  29.587   0.176  0.1671 -0.2227  0.3186
22056W        W40803  12.627  17.455   6.080 -0.0760  0.0211 -0.3300
22057W        W40804  27.441  19.721  24.558 -0.0420 -0.0804  0.2324
22058W        W40805  25.157   7.054  24.689  0.0643  0.1078 -0.1625
22059W        W40806  13.654  16.955  13.099 -0.2760  0.2892 -0.0904
22060W        W40807  34.864  31.448   5.199  0.0532  0.1227 -0.0032
22061W        W40808   5.954  21.631  25.271 -0.2090  0.0201  0.0512
22062W        W40809  35.006  19.134   9.326 -0.3093  0.1419  0.1669
22063W        W40810  26.084  13.665  26.045  0.2254  0.1717 -0.0403
22064W        W40811   7.358  31.427  11.968  0.1868  0.0495  0.2271
22065W        W40812   3.365  25.471   0.750 -0.0725 -0.1932 -0.3020
22066W        W40813  10.437  29.381   9.620 -0.0885 -0.0936 -0.1721
22067W        W40814   1.056   6.537  20.248  0.2739  0.0935 -0.0042
22068W        W40815   4.599  29.226  22.954 -0.2211 -0.0157  0.0801
22069W        W40816  19.730  29.499  21.944 -0.0707 -0.2430 -0.0630
22070W        W40817  15.062   4.096   8.495 -0.1352 -0.3460 -0.2900
22071W        W40818  16.392  17.591   6.003 -0.3783  0.1088 -0.2188
22072W        W40819  30.019  11.211  14.035  0.2410 -0.0653  0.0273
22073W        W40820  30.117   8.011   2.392  0.3578  0.0011 -0.0598
22074W        W40821  23.800  15.151  26.102 -0.1889 -0.0624  0.0967
22075W        W40822  29.406  34.977  26.129 -0.2520  0.0581  0.3728
22076W        W40823  20.637  32.419  18.541  0.1490 -0.0208  0.0585
22077W        W40824   1.441  33.338  22.834 -0.1479 -0.0168 -0.0865
22078W        W40825   7.255   2.121   4.878  0.0776 -0.1083  0.2108
22079W        W40826  27.172  16.326  25.372  0.0742  0.0298 -0.1487
22080W        W40827   6.949  15.579   0.041  0.0569 -0.1371 -0.2779
22081W        W40828  34.700  12.019   0.522  0.1911  0.0530  0.2265
22082W        W40829  15.391   0.308  19.511 -0.2637  0.0638 -0.0032
22083W        W40830  34.208  19.744  22.794  0.1613 -0.3868 -0.0810
22084W        W40831  12.317  28.831  22.524  0.2832 -0.0684 -0.0340
22085W        W40832  19.788  12.938   5.461  0.1363 -0.1710 -0.1034
22086W        W40833  13.179  34.787   6.690  0.0900 -0.3898 -0.0217
22087W        W40834   8.250  31.695  10.115 -0.0716 -0.1728  0.2677
22088W        W40835   9.972   4.441  25.474 -0.1667 -0.0545 -0.0023
22089W        W40836  19.773  23.768  22.673 -0.0916  0.0627  0.0666
22090W        W40837  17.087  15.027  25.464  0.2628 -0.0031  0.2224
22091W        W40838   8.122  13.258  19.927 -0.2373 -0.0870  0.1273
22092W        W40839   7.192  25.988   3.997  0.1799 -0.0079  0.0338
22093W        W40840  34.514  32.247  21.666  0.1376  0.0829 -0.0176
22094W        W40841  18.525  17.170   3.854  0.0785 -0.1240  0.2830
22095W        W40842   3.801   5.726   0.588 -0.0775 -0.3519 -0.2540
22096W        W40843  29.148  21.213  13.875  0.1068  0.1391 -0.3601
22097W        W40844  34.101   1.999  12.680 -0.3815  0.1954  0.0303
22098W        W40845  24.781  31.999   2.697 -0.1680 -0.0260  0.1106
22099W        W40846  18.851  30.848   4.551  0.3013  0.1840 -0.0634
22100W        W40847  28.901   4.735  23.071 -0.1881  0.3577 -0.2095
22101W        W40848  34.506  24.225  19.703  0.0288  0.0068 -0.0711
22102W        W40849  20.260  10.984   6.534  0.1737 -0.2339  0.1293
22103W        W40850  25.332  15.088  18.328  0.2431  0.0730  0.3483
22104W        W40851  29.838  30.676  19.267 -0.0065 -0.1189 -0.0716
22105W        W40852  12.403   6.600  23.761  0.2761 -0.0304 -0.2219
22106W        W40853   5.496  34.877  10.083  0.0218  0.3657 -0.1003
22107W        W40854  28.633   2.862   5.760 -0.0450  0.1609 -0.0307
22108W        W40855   0.830  33.692   2.976  0.1749 -0.0988 -0.1148
22109W        W40856  31.810  14.319  20.125 -0.0372 -0.3901  0.2330
22110W        W40857  20.576  16.157  22.183  0.1917 -0.0542 -0.2924
22111W        W40858  17.156  34.079  24.319  0.0419 -0.1009  0.0487
22112W        W40859  15.395  17.281  10.982  0.1270  0.2312 -0.1320
22113W        W40860  10.701  11.538  21.797 -0.4829  0.3465 -0.2419
22114W        W40861  11.404   7.278  11.653 -0.0995 -0.3998  0.0773
22115W        W40862  32.512  17.526  12.756 -0.0234  0.1296 -0.0904
22116W        W40863  29.404  30.238  17.239  0.1894  0.2792  0.0907
22117W        W40864  11.589   8.502  11.541 -0.0218 -0.1922  0.1374
22118W        W40865  29.299  16.139  14.203 -0.4179 -0.0246 -0.3276
22119W        W40866  15.866   9.882  19.219  0.0613  0.1425 -0.0743
22120W        W40867  31.595  24.277  19.481  0.1150  0.0217  0.5178
22121W        W40868  15.725   5.835   5.309  0.0132  0.3789 -0.0635
22122W        W40869   5.530  14.709  20.438  0.2820 -0.4471  0.0871
22123W        W40870   3.802  30.727  10.271 -0.1069 -0.0455  0.2781
22124W        W40871  15.409  33.345   4.928  0.0311 -0.0048  0.1814
22125W        W40872   9.501  34.490  23.896 -0.1598  0.1349 -0.3594
22126W        W40873   3.377   3.959  24.153  0.2367 -0.1047  0.2481
22127W        W40874   8.255   7.740   4.261  0.0022  0.0190  0.0390
22128W        W40875  27.039  29.439  24.627  0.3220 -0.0497 -0.0618
22129W        W40876  10.096  29.989   5.762  0.1291  0.1691 -0.3662
22130W        W40877  28.273  12.948   6.065  0.0354 -0.0949  0.1732
22131W        W40878   7.617  34.530   0.987  0.0083 -0.1993  0.1620
22132W        W40879   6.617  24.941  14.324 -0.2296 -0.0504  0.0933
22133W        W40880  17.669  10.933  23.783 -0.5423 -0.0555  0.0968
22134W        W40881  19.939  10.126   5.993 -0.0723  0.1546  0.0470
22135W        W40882  25.307  24.048  20.086 -0.0525  0.0437 -0.0996
22136W        W40883   0.676  18.474  18.885  0.1775 -0.0967 -0.0157
22137W        W40884  12.167  14.073  11.989  0.2952  0.1192  0.0893
22138W        W40885  23.486   1.581   0.104  0.2006  0.3196  0.0359
22139W        W40886  16.119  28.366   7.037 -0.2461 -0.0534  0.2205
22140W        W40887  21.396  20.355  18.583 -0.2915 -0.0225  0.0929
22141W        W40888  23.207   2.785   6.475 -0.0524  0.0987  0.0862
22142W        W40889  31.321  16.509  23.909 -0.2078  0.2656  0.1962
22143W        W40890  34.480   1.020  19.305 -0.0655 -0.0904  0.2849
22144W        W40891  19.110  20.086  26.100  0.2000  0.0782 -0.0266
22145W        W40892  16.351   9.086  20.445  0.1315 -0.0591 -0.0171
22146W        W40893  23.142  32.809  23.065  0.0286  0.2554 -0.1404
22147W        W40894   7.112  33.235   0.785  0.1723 -0.2361 -0.3324
22148W        W40895  30.210  15.901  16.102 -0.0166 -0.0367  0.0794
22149W        W40896  29.653  22.058  25.427 -0.0280  0.0580  0.3855
22150W        W40897  27.107  10.418  22.815  0.0388  0.2567  0.1918
22151W        W40898  21.868  35.134   3.745  0.0136  0.1005  0.1693
22152W        W40899  16.526   8.599   1.894 -0.1655  0.1920  0.0016
22153W        W40900   9.943  26.938  10.521 -0.1376  0.2280 -0.0306
22154W        W40901   8.147  33.481  15.082 -0.0438 -0.0090 -0.2684
22155W        W40902  32.783  27.465  13.035 -0.2672 -0.1131 -0.0774
22156W        W40903  31.470  21.223   6.016  0.0662  0.1160 -0.1954
22157W        W40904  34.489  14.038  25.154  0.2927  0.0001 -0.1467
22158W        W40905  22.826  19.166  25.994  0.0524 -0.3470  0.1068
22159W        W40906  31.796  19.734  18.025  0.2650  0.0631 -0.4054
22160W        W40907  10.749   2.912   2.959  0.0350 -0.0174  0.1334
22161W        W40908   5.035  26.732  24.704  0.3308 -0.0200 -0.0093
22162W        W40909   6.182   9.540  11.374 -0.1264 -0.1674 -0.0181
22163W        W40910  26.943  25.665  25.076  0.2723 -0.1610 -0.1942
22164W        W40911  31.606  27.598  21.252 -0.0743 -0.0548  0.0224
22165W        W40912  27.287   9.389  20.039 -0.2856 -0.2038  0.1614
22166W        W40913  15.520  34.545   2.821 -0.2142  0.1137  0.0419
22167W        W40914   0.268  18.152  22.531 -0.0547  0.1295  0.1943
22168W        W40915  22.508  15.622   0.002 -0.1007 -0.1923  0.2885
22169W        W40916  12.416  29.114   3.370 -0.1273 -0.0863  0.0557
22170W        W40917  29.893  18.738  15.404  0.1297 -0.1947  0.0431
22171W        W40918   3.144   2.244  18.336  0.0223 -0.1375 -0.0633
22172W        W40919   1.675   3.009   8.383 -0.0862  0.1488 -0.1480
22173W        W40920  15.762  27.725   1.138  0.0577 -0.0334 -0.1426
22174W        W40921  21.499  12.148  23.921 -0.0937  0.0440 -0.2729
22175W        W40922  15.583  10.660   1.997 -0.1314 -0.1370 -0.3507
22176W        W40923  17.570   4.433  24.885 -0.0338  0.1304  0.0737
22177W        W40924  23.713  29.014   3.404  0.3400 -0.2547 -0.0157
22178W        W40925   6.071  25.764   3.740  0.0417  0.0984  0.2747
22179W        W40926   8.192  25.795  24.823  0.1884  0.2342 -0.1252
22180W        W40927  14.795   6.143  21.051 -0.1324 -0.2018 -0.0766
22181W        W40928   0.293  26.576  22.086  0.1402 -0.1476  0.2855
22182W        W40929   6.396   0.585  13.045  0.2263 -0.0679  0.0755
22183W        W40930   2.087  14.671  21.836  0.1295  0.0468 -0.1091
22184W        W40931   7.826  30.039  16.658 -0.4088  0.2953 -0.0818
22185W        W40932  20.570  15.746  23.798 -0.2936 -0.0554  0.2178
22186W        W40933  23.142  28.418  14.116 -0.2857  0.1695  0.2228
22187W        W40934   7.518  20.479   0.870  0.0831  0.0935 -0.0230
22188W        W40935  31.460  27.670  19.890 -0.1054 -0.1047  0.3501
22189W        W40936  21.773  27.956  12.488  0.3111 -0.0517  0.1396
22190W        W40937  14.242   3.671  20.075  0.1858 -0.1830  0.0846
22191W        W40938  26.225   8.626  13.364  0.0811 -0.1489 -0.1502
22192W        W40939  31.507  28.693  18.761 -0.2053  0.3417  0.0748
22193W        W40940   1.590   9.087  15.698  0.1464 -0.1663 -0.2358
22194W        W40941  34.319   4.656   4.545  0.2249  0.0699  0.1254
22195W        W40942  21.743  22.023  17.134  0.0955  0.1507  0.0943
22196W        W40943  22.415  31.099   0.247 -0.0562  0.1271 -0.0275
22197W        W40944  15.747  25.740  11.794 -0.0626  0.0838  0.0676
22198W        W40945  28.230  14.473  13.399  0.1558  0.0722 -0.0996
22199W        W40946  33.450  14.384  12.732  0.0979  0.0644  0.3198
22200W        W40947  12.273  11.850   5.573  0.0141  0.0962  0.0538
22201W        W40948   3.350   4.180   4.096  0.3119 -0.1636 -0.1005
22202W        W40949  14.662  16.636  25.012 -0.1388 -0.2083  0.0903
22203W        W40950  35.184  21.925  12.299 -0.1148 -0.1432 -0.0161
22204W        W40951  32.837  22.066  13.892  0.3221 -0.1724 -0.3103
22205W        W40952  12.391  13.293  11.763 -0.1975 -0.3180 -0.0563
22206W        W40953  26.272  28.542  18.621  0.1182 -0.3047 -0.1059
22207W        W40954  30.083  10.151  13.259  0.0916  0.3545 -0.2666
22208W        W40955  18.066  26.305  19.495 -0.1431  0.0878 -0.0526
22209W        W40956  18.918  21.066  20.431 -0.4447 -0.0321  0.0821
22210W        W40957  28.658  26.492   2.337  0.1589 -0.1634 -0.2122
22211W        W40958  19.036  11.059   5.183 -0.3343 -0.0132 -0.1867
22212W        W40959  19.054  33.780   4.559  0.0050 -0.0417 -0.0634
22213W        W40960   2.542  33.191  10.875  0.0291  0.0555 -0.2478
22214W        W40961  13.148  16.955   7.087  0.0959  0.1698  0.0518
22215W        W40962  35.378  13.319  20.424 -0.0390  0.1356 -0.0503
22216W        W40963  24.609  33.026  13.184  0.2147  0.0657 -0.2238
22217W        W40964  25.888  33.997  17.123 -0.2516  0.1994  0.2563
22218W        W40965  25.025  27.653  21.371 -0.0039 -0.1133  0.0642
22219W        W40966  30.760  18.005  24.170  0.0930 -0.1244  0.0174
22220W        W40967   0.926  18.474  22.499  0.0825  0.0882 -0.0700
22221W        W40968  19.081   5.454  18.110 -0.4219 -0.1179  0.0327
22222W        W40969  26.426  34.973  16.517  0.3382  0.1443 -0.0260
22223W        W40970  29.426  23.202  10.687  0.0328  0.2844  0.0434
22224W        W40971   5.828   2.302  10.964 -0.0712  0.3260 -0.4075
22225W        W40972  31.446   4.772   1.945  0.0555 -0.0430  0.1803
22226W        W40973  27.325  13.166  15.422  0.0155 -0.4686  0.1266
22227W        W40974  33.935  30.103   7.122 -0.3261  0.2046 -0.2320
22228W        W40975  25.381  32.755   2.141 -0.2174  0.1429 -0.0535
22229W        W40976   8.982   2.236   8.361  0.4398 -0.1585 -0.0753
22230W        W40977   9.217   6.213  20.529  0.2898 -0.1312  0.1372
22231W        W40978   3.903  27.241   7.437  0.1834  0.2725  0.0926
22232W        W40979  18.200  35.194   2.070 -0.0711 -0.2018  0.1801
22233W        W40980  13.986  33.801  13.855  0.0981  0.1584 -0.3547
22234W        W40981  29.730  18.758  11.097  0.2332  0.1947 -0.0185
22235W        W40982  17.460  15.548   0.426 -0.3258 -0.1360  0.0865
22236W        W40983  31.128  16.323  12.720  0.0336  0.1487 -0.0476
22237W        W40984  11.857  21.248   4.293  0.0069 -0.2018  0.3003
22238W        W40985  20.797  11.055  21.597  0.2706 -0.1975 -0.0060
22239W        W40986   8.397  12.440   2.910 -0.1387  0.0648  0.0275
22240W        W40987  18.441  31.734   1.087  0.3706  0.2471  0.0753
22241W        W40988  28.608   2.527  14.945 -0.1458 -0.0446  0.0295
22242W        W40989   8.205  22.258   9.493 -0.1713 -0.0815  0.0317
22243W        W40990  33.248  25.078  21.427 -0.1383 -0.0287 -0.0636
22244W        W40991  32.537  13.112  19.478  0.3617 -0.0560 -0.0719
22245W        W40992  34.324  12.562  19.767 -0.2615 -0.1059  0.0264
22246W        W40993  19.251   8.658   5.008 -0.0217 -0.3836  0.0167
22247W        W40994   5.795   3.976   6.764 -0.1865 -0.0426 -0.1547
22248W        W40995  11.492  35.113  14.238  0.0401  0.0980 -0.2623
22249W        W40996  28.224  20.133  25.009  0.0694 -0.3712  0.1913
22250W        W40997  22.366  10.353  21.209  0.0783  0.0289  0.0558
22251W        W40998  15.307  22.052  15.774 -0.0764 -0.2110 -0.1499
22252W        W40999  20.700  30.695  23.143 -0.1257 -0.1139 -0.0786
22253W        W41000  23.832  17.131  19.844  0.0304 -0.0031  0.2136
22254W        W41001  17.301  29.751  25.149  0.2169 -0.0754 -0.2216
22255W        W41002  34.941   6.716  11.674 -0.0684 -0.1701  0.3796
22256W        W41003  29.859  28.430  12.196  0.2351 -0.1889 -0.2990
22257W        W41004   3.013   3.320   2.717 -0.0175  0.1781 -0.3611
22258W        W41005  33.671  29.919  15.893 -0.2033  0.4488 -0.3557
22259W        W41006  31.988   9.340  12.632  0.2231 -0.2724 -0.0767
22260W        W41007   0.824   9.092   0.413 -0.1916 -0.1091 -0.1728
22261W        W41008  21.085  30.230   1.397 -0.0762  0.1470  0.1406
22262W        W41009   6.073  26.714   9.536 -0.0394 -0.0918  0.1762
22263W        W41010  15.961  32.971  25.938 -0.1349  0.1826  0.0352
22264W        W41011  30.272   3.026  14.856 -0.2025 -0.2425  0.1328
22265W        W41012   1.262  22.554   0.711  0.2298  0.0741 -0.0638
22266W        W41013   2.263  15.218  23.617 -0.0799 -0.1171  0.2605
22267W        W41014  18.408   0.514   3.297 -0.2999  0.2329 -0.0760
22268W        W41015  34.943  25.461  14.752 -0.1101  0.1737  0.0893
22269W        W41016   8.621   0.060   5.105 -0.1164 -0.0091  0.0134
22270W        W41017  21.470  33.915  20.618 -0.0771 -0.0906  0.0713
22271W        W41018  28.044  22.559   9.459  0.3429  0.0885  0.2064
22272W        W41019  30.002  15.301   9.429 -0.0579  0.0160 -0.0917
22273W        W41020  12.990  13.083   8.617  0.1005 -0.1180  0.1912
22274W        W41021  30.330  11.605  20.450  0.1365  0.0229 -0.0648
22275W        W41022   9.201   6.911  12.901 -0.1122  0.1578 -0.1151
22276W        W41023  23.372   1.964  12.328  0.2686 -0.0527  0.4268
22277W        W41024  14.095  31.967  23.653  0.2334 -0.0739 -0.0107
22278W        W41025   7.531   0.057   5.103 -0.1370 -0.2647 -0.0019
22279W        W41026  35.046  34.980  14.916 -0.0612 -0.0821 -0.1440
22280W        W41027  34.142  33.677  19.023  0.1108  0.2293 -0.2728
22281W        W41028  11.190   6.290  26.247  0.2241 -0.4547 -0.4393
22282W        W41029   1.175   2.497  23.313 -0.3092 -0.1018  0.0111
22283W        W41030  20.208  10.031  17.908 -0.6023 -0.0224 -0.0212
22284W        W41031  25.674  26.034  18.950  0.1269 -0.2290  0.0939
22285W        W41032  32.731   6.529  12.761  0.0384 -0.2574  0.3275
22286W        W41033   1.685   4.684   2.733 -0.1439  0.2746  0.0113
22287W        W41034   5.001   3.550  22.319  0.1929  0.1322  0.0060
22288W        W41035  14.656   9.381   5.783  0.0342  0.0370  0.0753
22289W        W41036  26.352  31.022  25.287 -0.2872  0.0221 -0.2804
22290W        W41037  24.787   3.863  17.372  0.0474  0.0476  0.1213
22291W        W41038  14.392  19.398   7.146  0.2419  0.1881 -0.1674
22292W        W41039   5.487  10.679  24.801  0.2243 -0.0914 -0.0591
22293W        W41040  24.476  16.276  10.142  0.0193  0.0925 -0.0269
22294W        W41041  15.908   7.721  23.807  0.0427 -0.0443  0.0511
22295W        W41042   3.457  29.758  21.552  0.2281  0.0178 -0.1450
22296W        W41043   3.649  24.243  24.810  0.0137  0.0718 -0.2467
22297W        W41044   9.170   7.962  11.615 -0.0041 -0.5496 -0.0495
22298W        W41045  13.429   1.195   4.111  0.0165  0.0201  0.0564
22299W        W41046  12.471  18.880   1.213  0.2183  0.0854 -0.0838
22300W        W41047   5.983  11.914  20.664  0.1485  0.1277  0.0072
22301W        W41048  15.274   8.589  24.587  0.1355 -0.0921  0.4042
22302W        W41049  34.219  10.804  17.534  0.0559 -0.1583  0.1996
22303W        W41050  31.429   5.557   2.477 -0.0427 -0.0306  0.1331
22304W        W41051  12.274   0.974  12.148  0.5323 -0.0613  0.0021
22305W        W41052  18.649   3.211  17.492  0.0124  0.1458 -0.0779
22306W        W41053  17.820  26.052  24.252 -0.3422 -0.0045 -0.0980
22307W        W41054  15.955   6.457   7.540  0.0533 -0.2760  0.0509
22308W        W41055  14.953  24.360  16.326  0.3271  0.2027 -0.0196
22309W        W41056  23.290  32.767  19.861  0.1360 -0.0946  0.0014
22310W        W41057  33.914  34.828   3.302  0.1604  0.1572 -0.1276
22311W        W41058   2.724  10.028  20.689  0.0489  0.1219  0.0260
22312W        W41059   0.937  14.435  24.023 -0.1208 -0.0358  0.2508
22313W        W41060  10.712  11.749  25.319  0.1530  0.4189  0.2285
22314W        W41061   2.540  31.077   1.266  0.0799  0.0335 -0.2332
22315W        W41062  14.339  24.373   4.826  0.0415  0.2225 -0.0526
22316W        W41063   9.647   8.194  21.606 -0.1231  0.0376 -0.2071
22317W        W41064   1.925   9.460  18.507  0.0496 -0.0636  0.0073
22318W        W41065  20.481  32.996  18.582 -0.1511 -0.1745 -0.0238
22319W        W41066   7.702  25.533  24.990 -0.0299  0.1413 -0.1875
22320W        W41067   3.094   8.265  16.173  0.2682 -0.2319  0.1283
22321W        W41068   8.267   1.393  10.460 -0.1097  0.0897 -0.2965
22322W        W41069  33.554  34.355   1.020 -0.1598 -0.1890 -0.1016
22323W        W41070  19.386  11.766   5.858  0.1144  0.0061  0.1081
22324W        W41071   4.562  17.763   0.215 -0.0724 -0.1295  0.1615
22325W        W41072  14.636  35.155  19.094 -0.1745 -0.0581  0.2147
22326W        W41073  25.062  34.196  12.323  0.2646  0.0172  0.1945
22327W        W41074  26.313   9.568  24.308 -0.0700  0.0418  0.0159
22328W        W41075  24.159  35.317  17.433 -0.0067 -0.0536 -0.2187
22329W        W41076  30.930  19.569  15.124  0.1368 -0.0791 -0.1951
22330W        W41077   6.523  31.313   4.489  0.3512 -0.2222 -0.1189
22331W        W41078   7.222   6.068   2.915  0.0418 -0.3124  0.3699
22332W        W41079  23.263  23.542  11.794  0.1869 -0.1985 -0.2873
22333W        W41080  13.110  25.324  10.101  0.2095 -0.2287  0.1053
22334W        W41081  19.848  29.431   4.797 -0.1720  0.0926 -0.0179
22335W        W41082   4.767  10.552   5.835  0.1627 -0.0255 -0.2404
22336W        W41083  11.625  20.909  16.753 -0.3455 -0.3305  0.0244
22337W        W41084  25.206   9.269  17.097 -0.1559 -0.0815 -0.0535
22338W        W41085  18.516   2.924  20.776 -0.0176 -0.0016 -0.2011
22339W        W41086   9.820   0.811  11.756 -0.1236 -0.1224 -0.0609
22340W        W41087  23.117  19.491  25.685  0.1444 -0.3546  0.2297
22341W        W41088   3.386   1.735   3.230  0.2791 -0.1994 -0.1019
22342W        W41089  33.579  23.959   0.090  0.0788  0.1193  0.0815
22343W        W41090   7.670  16.551   8.201 -0.1590  0.1837  0.0299
22344W        W41091  20.213  26.486   6.109  0.0157  0.1501  0.0032
22345W        W41092   2.490   1.685  22.835 -0.1573  0.1097 -0.2267
22346W        W41093  17.048  18.105   0.462 -0.2993 -0.4281 -0.0236
22347W        W41094   2.053   3.332  19.037 -0.2758 -0.0513 -0.2878
22348W        W41095  14.660   2.415   2.492 -0.1279  0.0543  0.4134
22349W        W41096  31.446   4.179  24.552  0.0104 -0.1507  0.3524
22350W        W41097  15.516   2.205   8.538  0.3217 -0.0862  0.2149
22351W        W41098  10.261  28.248  23.848 -0.1297  0.4065  0.1496
22352W        W41099  10.087  18.069  21.779  0.2997  0.4351 -0.0501
22353W        W41100   6.284  35.130   9.500  0.1418 -0.0409 -0.0241
22354W        W41101   7.486   5.526  24.249  0.1771  0.3552 -0.0867
22355W        W41102  19.818  29.182   0.012 -0.0057  0.0213 -0.0160
22356W        W41103  22.592  21.704  25.613  0.0650  0.4338  0.0023
22357W        W41104  20.280   7.559   2.890  0.1285  0.2553 -0.0774
22358W        W41105  22.767   0.437  19.083  0.3115  0.0755 -0.1808
22359W        W41106  19.483   1.938  18.741  0.2592 -0.3530  0.2116
22360W        W41107  32.499  14.102  18.987 -0.0429  0.0532  0.2437
22361W        W41108   8.248  32.739  13.409 -0.3216  0.2723  0.0990
22362W        W41109  31.657   2.914  18.723  0.2224  0.1363  0.2258
22363W        W41110  28.464  32.741  12.051 -0.0951  0.1177  0.0557
22364W        W41111  30.096   7.782   1.885 -0.1537  0.0032 -0.2702
22365W        W41112  19.243  14.738  18.933  0.1327 -0.1174  0.2109
22366W        W41113  24.250   7.714  22.587 -0.0473 -0.1744 -0.1343
22367W        W41114  12.823  27.049   6.813  0.1692 -0.0969 -0.1752
22368W        W41115  28.047  30.307  13.732 -0.1807 -0.1451 -0.0909
22369W        W41116  35.340  26.759   1.387  0.1510 -0.1026 -0.2832
22370W        W41117  10.241  16.672   5.813 -0.1572  0.0623  0.1493
22371W        W41118   1.590  35.227   4.568  0.0625 -0.2037 -0.0401
22372W        W41119  14.855   5.269   3.287 -0.1038  0.0176 -0.2209
22373W        W41120  21.075  10.728   6.036  0.1936 -0.1079 -0.0712
22374W        W41121  13.226  31.528   0.254  0.0164 -0.2113  0.0327
22375W        W41122  34.857  34.611   0.814 -0.0563  0.0485  0.1890
22376W        W41123  14.522  28.718   5.293  0.0791 -0.1499 -0.0175
22377W        W41124  32.801  29.518  17.322 -0.3500  0.0894  0.0903
22378W        W41125  33.602  31.491   3.322 -0.1728  0.2479 -0.1900
22379W        W41126  33.381  25.351  13.254 -0.2822 -0.1704 -0.1305
22380W        W41127  14.815  25.247  13.531 -0.2223  0.3263  0.0363
22381W        W41128  22.230  15.258  23.253  0.0969  0.1158 -0.0145
22382W        W41129  32.656  28.766  19.426  0.1281  0.0638 -0.1151
22383W        W41130   4.433  16.502   0.456  0.1180  0.1890  0.2814
22384W        W41131  16.597  35.259   2.110 -0.1532 -0.0154 -0.3685
22385W        W41132   9.134  12.760  21.057  0.2948 -0.0322  0.0891
22386W        W41133  22.529   4.465  16.349 -0.0819 -0.0568  0.2111
22387W        W41134  30.141  19.986   9.293  0.0076 -0.0772 -0.1714
22388W        W41135  26.342  24.191  20.903  0.0390  0.1777 -0.0719
22389W        W41136  21.067  18.441  22.193  0.0781 -0.1067 -0.1656
22390W        W41137  25.297   3.901  22.954  0.1602  0.0223 -0.2307
22391W        W41138  25.620  19.834   9.023 -0.0452 -0.0107  0.1785
22392W        W41139   0.750   8.220  24.281  0.1597  0.1750 -0.0777
22393W        W41140   3.317   0.939  17.344  0.4293  0.0734 -0.3156
22394W        W41141  24.200  21.702  14.192  0.3401 -0.3244 -0.1216
22395W        W41142  33.283   2.214   4.499  0.3146  0.1492  0.0667
22396W        W41143  31.005  30.903  18.465  0.0368  0.1475 -0.2262
22397W        W41144  22.290  19.807   3.046 -0.0677 -0.1610  0.2603
22398W        W41145  15.912  11.144  24.965  0.0179 -0.1764 -0.1461
22399W        W41146  33.157  27.170  22.396 -0.1596 -0.0472  0.2543
22400W        W41147  12.028  31.280  13.678 -0.0078  0.2325  0.4651
22401W        W41148  29.326  21.900   9.391 -0.0855  0.1356 -0.2380
22402W        W41149  13.900  31.841   6.488  0.0384  0.2513  0.2225
22403W        W41150  27.903   0.401  18.951  0.0262 -0.0004  0.4644
22404W        W41151  31.982  29.566  24.603  0.1013 -0.1565  0.2752
22405W        W41152  12.302   4.332   1.290  0.1409  0.1086  0.1935
22406W        W41153  24.612  30.883   3.430  0.1959 -0.0221 -0.1553
22407W        W41154  14.167  14.819   8.877  0.0131 -0.0866 -0.0696
22408W        W41155  21.626  30.521   6.185  0.0881  0.0050 -0.0800
22409W        W41156  18.023  18.978  22.377 -0.1971 -0.4066  0.1202
22410W        W41157  26.852  12.382  22.324 -0.0144  0.0316 -0.0863
22411W        W41158   8.848  13.061  24.033  0.2085 -0.1471  0.0671
22412W        W41159  30.620  12.128  15.965  0.0244 -0.2021 -0.0970
22413W        W41160  17.166  18.646  22.361  0.2888 -0.2629 -0.0565
22414W        W41161  25.191  15.058   0.211 -0.4669  0.1013 -0.2980
22415W        W41162   3.114  27.748   5.153  0.0056  0.3643 -0.0576
22416W        W41163  20.126  30.512   6.840  0.2236  0.0015 -0.2896
22417W        W41164  19.966  11.647  17.956 -0.2942  0.0222  0.2300
22418W        W41165   4.691   6.734   2.217 -0.2543  0.1301  0.3459
22419W        W41166  18.186   7.976   0.012 -0.1633  0.3215 -0.0231
22420W        W41167   6.534  31.755   5.534  0.3629 -0.0236  0.0571
22421W        W41168  30.191   5.260  19.497  0.1063 -0.1233 -0.3163
22422W        W41169  21.996  28.403   4.254  0.1516  0.1871  0.2252
22423W        W41170  23.025  24.987  25.907  0.2961  0.1423  0.0949
22424W        W41171   1.629   2.771  17.695  0.1073 -0.0132  0.2441
22425W        W41172  19.426  30.806   2.084 -0.0548 -0.1889  0.1355
22426W        W41173  32.503  24.023  20.156 -0.2745 -0.2984 -0.0359
22427W        W41174  13.731  35.359  10.677 -0.0036  0.1200 -0.0102
22428W        W41175  20.630  12.996  20.531 -0.2080 -0.3580  0.2114
22429W        W41176  21.216   6.051  18.783  0.0252  0.0468  0.0236
22430W        W41177  26.568  23.455  23.673  0.2502 -0.1797  0.1289
22431W        W41178  29.594  23.367  22.093 -0.0421 -0.0944  0.1173
22432W        W41179  24.990   6.086  16.459  0.1858  0.2917  0.1633
22433W        W41180  29.131   8.687  19.893 -0.0396 -0.0329 -0.0736
22434W        W41181   1.006  10.700   2.073  0.0322 -0.0105 -0.1488
22435W        W41182  30.102  28.172  21.644 -0.2332  0.4275  0.1269
22436W        W41183  31.659   6.230  11.602 -0.2841  0.0250  0.1635
22437W        W41184   7.476   2.152  13.798  0.1382 -0.1141  0.1079
22438W        W41185  15.215  17.662   0.161 -0.1570  0.0105  0.0692
22439W        W41186   0.883  33.431  20.808  0.0161 -0.1083  0.0122
22440W        W41187  23.649  32.446  24.417 -0.4444  0.1618  0.0558
22441W        W41188  25.851  10.514  20.045 -0.0024 -0.2843 -0.0909
22442W        W41189  25.801   3.067  13.619 -0.2785  0.2526 -0.0082
22443W        W41190  33.591   8.452  20.510  0.2922  0.1518  0.0855
22444W        W41191  14.042   0.326  11.973 -0.0492  0.3522  0.0470
22445W        W41192   7.817  35.278  10.949  0.0987  0.0318 -0.1633
22446W        W41193  11.002  26.297  22.792 -0.3977 -0.0793  0.0377
22447W        W41194  11.299  16.565  20.034 -0.0249 -0.4737 -0.0971
22448W        W41195  24.869  28.679  25.672 -0.1458 -0.1652  0.1367
22449W        W41196   2.228   6.103  15.207  0.1052  0.0399 -0.0056
22450W        W41197  24.350   2.221   5.161  0.3357  0.1589  0.0408
22451W        W41198  11.308   1.125   8.647  0.2411 -0.2637  0.4377
22452W        W41199  22.717  10.408   1.010 -0.0103 -0.1833 -0.0024
22453W        W41200  17.572  18.311  12.233 -0.1153  0.1187 -0.1743
22454W        W41201  16.354  14.323   2.831  0.5415  0.1845  0.1238
22455W        W41202   9.147  22.835   6.404 -0.1140 -0.2079 -0.2078
22456W        W41203  31.371   6.378   0.875 -0.0297  0.0110 -0.0573
22457W        W41204   3.254  16.117  25.609  0.0596  0.0794  0.0022
22458W        W41205  30.195   9.217  25.016 -0.1644  0.0947 -0.2149
22459W        W41206  25.071   5.895  24.076 -0.1094 -0.2492 -0.0611
22460W        W41207  26.628  12.957  23.513 -0.3744 -0.0274 -0.0993
22461W        W41208  28.748  29.327  11.204  0.4110  0.0796 -0.0193
22462W        W41209  28.584  16.113  16.717  0.2508 -0.0321  0.1074
22463W        W41210   0.507  24.312  20.552  0.0089 -0.1345 -0.2347
22464W        W41211   0.664  20.675  19.908 -0.1348 -0.0502  0.2853
22465W        W41212  13.202  20.511   4.014 -0.0057 -0.4543 -0.0369
22466W        W41213  34.529   2.186   2.533 -0.0300 -0.4324  0.1393
22467W        W41214   3.587  27.561   0.200 -0.1991 -0.0920 -0.0639
22468W        W41215  21.502  30.784   3.172  0.3383  0.0740 -0.0409
22469W        W41216  29.451  26.439  17.479  0.2317 -0.1509  0.4314
22470W        W41217   7.955   6.920  12.898 -0.0695 -0.1109  0.3243
22471W        W41218   6.501  16.613  10.181  0.2616  0.2629  0.0296
22472W        W41219  31.881  29.129  25.992  0.2003  0.0515  0.3054
22473W        W41220   6.774  17.167  24.062  0.0978 -0.1383  0.0452
22474W        W41221  31.387   1.616  23.937 -0.1724 -0.2407  0.4283
22475W        W41222   3.005  21.925   0.257  0.1449  0.0916 -0.1832
22476W        W41223  19.351  17.553   5.934 -0.2492  0.1036 -0.2692
22477W        W41224   9.063  11.466  24.863 -0.0779  0.3538 -0.3616
22478W        W41225   2.765  31.585  23.941  0.0037  0.1694  0.0812
22479W        W41226  13.947   6.145   2.901  0.3719  0.1128  0.0197
22480W        W41227  31.052  20.470  20.525 -0.1181 -0.2023 -0.0703
22481W        W41228   6.810  33.148  21.589  0.0535  0.1210  0.1107
22482W        W41229  31.472  20.736  10.143 -0.1781 -0.1805  0.2166
22483W        W41230  22.249  10.139   6.308  0.1770  0.0450  0.1977
22484W        W41231  18.924  17.598  20.422 -0.2573  0.0611  0.3718
22485W        W41232   7.877  25.287  24.628 -0.4899 -0.0458  0.1164
22486W        W41233   9.645  11.709   8.814  0.2770  0.2551 -0.2030
22487W        W41234  26.377  34.660  25.247 -0.1939  0.2661  0.2067
22488W        W41235  10.105   6.219  25.235 -0.0720  0.0081  0.2296
22489W        W41236   0.467  19.990  23.554  0.0055  0.2358  0.0374
22490W        W41237  24.949  18.005  15.495  0.2460 -0.1647  0.3745
22491W        W41238  14.425  29.686  22.114  0.0174  0.1941  0.1111
22492W        W41239  23.695  32.367  22.841 -0.0772  0.2473 -0.1961
22493W        W41240  16.401  11.055  22.731  0.1193  0.2386 -0.1110
22494W        W41241  27.089   3.026  13.290  0.4153 -0.0805  0.2877
22495W        W41242  21.256  33.628   2.852  0.1223  0.2519  0.1335
22496W        W41243  31.130  28.722  11.668  0.3047  0.2498 -0.1017
22497W        W41244  23.039  18.849   1.667 -0.0270  0.1184 -0.2774
22498W        W41245  24.564   4.220   1.977  0.0529 -0.0712 -0.0853
22499W        W41246  31.184   4.925  22.729  0.1589 -0.1264 -0.1273
22500W        W41247  23.650   9.891  21.883  0.0695  0.1515 -0.0757
22501W        W41248   0.544   8.052   4.888  0.2321  0.1071 -0.1032
22502W        W41249  24.563  15.148   7.659 -0.2874  0.0708  0.1872
22503W        W41250   3.984   5.363  25.934  0.0367 -0.0477  0.0353
22504W        W41251  29.260  20.262  20.118  0.1001  0.2278  0.1804
22505W        W41252  11.666  21.720  17.212 -0.1261 -0.1056 -0.0341
22506W        W41253   6.124   0.305  19.400 -0.0556 -0.1103 -0.1609
22507W        W41254  17.907  29.647  18.697 -0.1579 -0.2122  0.2011
22508W        W41255   5.472   0.976  23.808  0.1534  0.0493  0.2506
22509W        W41256  23.680  18.673  14.583  0.4353  0.2274  0.1988
22510W        W41257  29.380   8.144  13.026 -0.0039 -0.0876  0.2933
22511W        W41258  10.106  33.639   4.221  0.0467  0.2004 -0.0142
22512W        W41259  26.194   6.811  23.742  0.1000 -0.2518 -0.0878
22513W        W41260  16.658   4.445   7.652 -0.0425 -0.0212  0.5796
22514W        W41261  17.252   6.777   1.335 -0.1435  0.0470  0.3075
22515W        W41262  32.297  18.891  13.511  0.1049  0.1406 -0.5025
22516W        W41263  12.646   8.702   1.345 -0.2009  0.2087 -0.2628
22517W        W41264  13.588   1.722  24.231 -0.0020 -0.1995 -0.1195
22518W        W41265   7.593  15.606  19.284  0.1554  0.0699 -0.6437
22519W        W41266  13.883  20.771  12.912 -0.2059 -0.0398  0.0139
22520W        W41267  13.031   0.408  20.159  0.0697 -0.1888  0.0777
22521W        W41268  14.504  25.289   0.502 -0.1110  0.3026 -0.0645
22522W        W41269  15.669  22.846   1.789  0.1083 -0.2429 -0.1493
22523W        W41270  26.578  22.734  19.630 -0.2944  0.0892 -0.0901
22524W        W41271   8.818  20.977   6.113 -0.0624 -0.1856  0.0570
22525W        W41272  26.482  29.712   2.064  0.2162 -0.2823 -0.0124
22526W        W41273  23.725   4.664   6.003 -0.1661  0.1597 -0.0995
22527W        W41274   4.389  19.823  22.096  0.1866 -0.1165  0.0134
22528W        W41275   5.903  24.504   7.388 -0.4715 -0.3327  0.0135
22529W        W41276  16.305  18.042  12.541  0.0668 -0.3120  0.2921
22530W        W41277  12.352  26.814   9.389  0.1955 -0.2176 -0.2754
22531W        W41278  31.492  31.457   4.450 -0.3149 -0.0471 -0.2681
22532W        W41279  28.011  23.488  12.828  0.0024  0.3651 -0.0494
22533W        W41280   4.064  25.848   8.363 -0.1040  0.0754  0.1510
22534W        W41281   6.583  22.849  25.136  0.1543 -0.1522 -0.0937
22535W        W41282   9.058  32.308  12.283  0.1059 -0.0693  0.2376
22536W        W41283   0.533  20.167   0.107  0.1059 -0.1935 -0.0604
22537W        W41284   0.296  32.180   2.481 -0.1396 -0.2958  0.0978
22538W        W41285  24.483  34.562   3.283 -0.2265 -0.1484  0.0447
22539W        W41286  32.473  33.191   2.423  0.0389  0.1293 -0.0671
22540W        W41287  31.325  12.020  20.383 -0.0749 -0.2624 -0.0820
22541W        W41288  14.055   8.947  13.428 -0.3206  0.0389  0.2929
22542W        W41289   8.250  25.071   2.214  0.2500  0.2215 -0.5635
22543W        W41290   4.570  29.238  12.396  0.0640 -0.1657  0.0206
22544W        W41291  10.932  14.317   9.277 -0.1987 -0.1637 -0.1977
22545W        W41292  34.598   6.283  23.939 -0.0854 -0.0344  0.3263
22546W        W41293  27.660  15.178  25.401 -0.2178 -0.2006  0.0634
22547W        W41294   8.304  33.031  23.814  0.1067  0.3494  0.0608
22548W        W41295  30.684   0.320   6.025  0.1768 -0.1532  0.2903
22549W        W41296  13.007  28.092   1.899 -0.0925  0.1640  0.0454
22550W        W41297  32.871  13.210  16.379 -0.0590 -0.0324 -0.1044
22551W        W41298  28.506  11.467  12.683 -0.0172 -0.0545 -0.1137
22552W        W41299  28.035  31.031  16.417 -0.1689 -0.3170 -0.3132
22553W        W41300   8.419  33.564  12.491 -0.2551  0.1891 -0.2777
22554W        W41301   8.851  34.077   9.448 -0.0220  0.0619 -0.0499
22555W        W41302  31.627  19.298  13.028  0.1385  0.1296 -0.0286
22556W        W41303  17.484   8.672  12.432  0.1742 -0.0962 -0.0252
22557W        W41304  32.559  10.080   8.558  0.2357 -0.2216  0.1352
22558W        W41305  17.166   2.872   5.779  0.0619 -0.0040  0.1739
22559W        W41306   3.238   3.636   1.128  0.0104  0.0138 -0.1973
22560W        W41307   6.290  13.244  22.687 -0.0476 -0.0854  0.2818
22561W        W41308  23.767  28.533  19.561  0.2274 -0.2276 -0.0487
22562W        W41309  15.675  21.807   5.839 -0.2470  0.3766 -0.1710
22563W        W41310  28.755  17.358   9.980 -0.2198 -0.0499 -0.0116
22564W        W41311  27.071  32.940  24.648 -0.2673  0.1055  0.1140
22565W        W41312  11.555   8.643  19.445  0.1806  0.1511  0.0970
22566W        W41313   5.133  11.327  15.855  0.1037  0.3109  0.0411
22567W        W41314  18.746  33.323  23.150  0.1495 -0.2217  0.0400
22568W        W41315  15.848  25.094  25.002  0.1983 -0.1115 -0.2797
22569W        W41316   8.127  31.312  14.427  0.3331  0.0137 -0.0312
22570W        W41317   8.278   9.897   6.038  0.0323 -0.0728  0.0580
22571W        W41318  29.781  29.689  11.113 -0.0699  0.0825  0.2854
22572W        W41319   0.015  18.792  17.714 -0.2440 -0.2455  0.0691
22573W        W41320   0.569  26.405  18.030  0.0803  0.3060  0.4034
22574W        W41321  32.611   1.547   2.000  0.2042  0.1991  0.0093
22575W        W41322  33.092  29.480   6.675  0.0387  0.0167  0.1805
22576W        W41323  20.398   9.825  19.215  0.0136  0.2833  0.3856
22577W        W41324  14.155  10.015  20.222  0.1519  0.0635  0.3943
22578W        W41325  16.430  11.910   1.664  0.1371 -0.1459  0.1743
22579W        W41326  28.869  18.230  13.253  0.2564 -0.1590 -0.0250
22580W        W41327  30.036   5.619  22.482 -0.0240 -0.3652  0.1693
22581W        W41328  25.296  16.368  14.046  0.0323  0.1671  0.1457
22582W        W41329  12.427   5.661  11.256 -0.0143  0.1412 -0.0614
22583W        W41330  25.051  30.194   4.474 -0.1193  0.0426  0.1235
22584W        W41331   1.500  20.161  20.432  0.3928  0.2136  0.2821
22585W        W41332  15.723  28.820  25.995 -0.0627  0.2356  0.4433
22586W        W41333  24.030  34.330  17.466  0.1330  0.3127 -0.1754
22587W        W41334  14.651  22.196  10.161  0.5074 -0.2502  0.4772
22588W        W41335   3.191   6.040  22.575 -0.0232  0.1805 -0.1016
22589W        W41336  34.320   1.158  15.595 -0.0938  0.1286 -0.0120
22590W        W41337  11.404  15.872   9.104 -0.5865 -0.1793 -0.0821
22591W        W41338  16.707  28.835  11.698  0.4570  0.0137  0.1491
22592W        W41339   4.495  12.503   3.774  0.0156 -0.0232  0.1224
22593W        W41340  19.842  12.048   5.797  0.4373 -0.2600 -0.3871
22594W        W41341  31.034  22.832  20.912  0.4543  0.0977 -0.0265
22595W        W41342  21.768  29.514   2.701  0.1664  0.2258 -0.1326
22596W        W41343   8.204   3.189  11.720  0.1745 -0.0375  0.0629
22597W        W41344   3.149  14.924   3.054 -0.0135  0.2555 -0.1133
22598W        W41345  17.340  33.735  20.694  0.1891  0.0353 -0.1559
22599W        W41346  22.744  20.148  13.323  0.0187 -0.0208 -0.0674
22600W        W41347  24.486   1.076   2.963 -0.0433  0.1177 -0.0256
22601W        W41348   3.786   1.271  22.842 -0.1415  0.0093 -0.0716
22602W        W41349  16.633  32.150  22.932 -0.0584  0.0343 -0.1294
22603W        W41350  28.750  22.565  18.005 -0.0222 -0.0166  0.0439
22604W        W41351   8.184  29.088  12.332  0.3732 -0.0686 -0.0909
22605W        W41352   2.106  24.362   1.550  0.1028 -0.0630 -0.2580
22606W        W41353  19.790  33.667   7.287  0.1573  0.1518  0.0613
22607W        W41354  34.716  13.670   1.045 -0.1535  0.0247 -0.1500
22608W        W41355   1.400   7.871  22.590 -0.0004  0.1610  0.0355
22609W        W41356  15.670  17.994  21.189 -0.0716  0.2486  0.2465
22610W        W41357  29.162  31.378   3.067 -0.1158 -0.0984 -0.1661
22611W        W41358  12.309  34.311   9.962 -0.2165 -0.3277 -0.0952
22612W        W41359  33.850  10.244  20.901  0.0588 -0.2013 -0.2684
22613W        W41360  26.903  15.931  18.214  0.3108 -0.0428  0.2194
22614W        W41361   2.939  19.616   2.651 -0.2189 -0.1002 -0.1662
22615W        W41362  28.439  23.192  12.742  0.1534  0.0552  0.0726
22616W        W41363  16.341  23.176   7.770 -0.0053  0.0932 -0.0241
22617W        W41364  19.608  26.070  18.769 -0.0892  0.0796  0.1249
22618W        W41365  10.014  23.681   5.091  0.0647 -0.5028 -0.0851
22619W        W41366  30.937  26.304  16.115 -0.3301 -0.0712  0.0818
22620W        W41367  24.114   9.553  21.708 -0.0500  0.0542  0.0968
22621W        W41368  12.233   0.942   5.755 -0.0041  0.2730  0.1788
22622W        W41369   2.515  12.182   0.447 -0.4028  0.3836  0.2491
22623W        W41370  27.897  33.725  21.648  0.1477 -0.1181  0.0067
22624W        W41371  26.597  17.212   6.736  0.0905 -0.2307  0.1982
22625W        W41372   2.520   7.405  18.827  0.3845  0.0168  0.1006
22626W        W41373  24.312   1.350   1.641  0.3528 -0.0133  0.0935
22627W        W41374  18.091  17.866  11.105  0.1413 -0.2383 -0.2607
22628W        W41375  24.332   3.225  20.452 -0.1077 -0.0743  0.2730
22629W        W41376  24.999   1.479  26.007  0.2968  0.2986  0.1805
22630W        W41377  10.523  31.240  10.387  0.0358 -0.0740 -0.3982
22631W        W41378  32.325  34.323  14.376  0.1543 -0.2650 -0.1944
22632W        W41379  18.521  10.997  25.585  0.0334  0.1660 -0.2267
22633W        W41380   2.234   1.062  23.668 -0.0525  0.1755  0.1827
22634W        W41381   8.841  17.126   7.375 -0.0777  0.2487  0.1660
22635W        W41382  25.626  19.955  24.090  0.0496  0.0441 -0.1150
22636W        W41383  19.276  22.907   3.601 -0.0539  0.0266 -0.1421
22637W        W41384  16.235  26.727   6.193  0.0601  0.1393  0.0202
22638W        W41385  12.494  30.720   4.137 -0.2104 -0.2335 -0.1736
22639W        W41386  15.744  35.332  10.309 -0.0384 -0.0820  0.2943
22640W        W41387  32.865  23.175  20.389 -0.3396  0.0179 -0.1400
22641W        W41388   9.764  15.198   6.747  0.1243  0.1787 -0.1196
22642W        W41389  15.094   6.004  23.609  0.2316  0.0339  0.1005
22643W        W41390  34.256   7.286  15.382 -0.3207  0.1101 -0.1201
22644W        W41391  23.627   7.751  19.391 -0.1351 -0.0737  0.2761
22645W        W41392  27.318   0.828  17.626  0.0593 -0.0184  0.0403
22646W        W41393  13.067  23.223   1.946  0.2146 -0.0893  0.0911
22647W        W41394  34.097   8.165  16.273 -0.2069 -0.0041  0.1017
22648W        W41395  26.464   2.790  14.319 -0.0851  0.0018  0.2825
22649W        W41396  34.000  26.019  20.805 -0.0753  0.0451 -0.1786
22650W        W41397  32.918  26.654  24.586  0.0181 -0.1234  0.1930
22651W        W41398  28.454  16.501  11.147  0.2223 -0.1740 -0.0346
22652W        W41399  24.070   7.156  16.749  0.0011 -0.0168 -0.1254
22653W        W41400  28.211  26.812  19.930  0.1209  0.1072  0.0241
22654W        W41401   3.800   4.705  23.812 -0.2574 -0.0508  0.6537
22655W        W41402  32.049  23.710  21.340 -0.0182 -0.0742 -0.0287
22656W        W41403  22.117  22.839  23.885  0.4467 -0.0960 -0.3079
22657W        W41404  17.692  16.170  20.524 -0.3132  0.0609  0.4064
22658W        W41405  34.626  16.442  18.222  0.2572  0.1739 -0.0730
22659W        W41406  34.624  33.440   0.235  0.1088 -0.3249 -0.0289
22660W        W41407  10.402  17.431  22.171 -0.1064  0.0047 -0.0424
22661W        W41408  33.326  35.144  17.039  0.0064  0.0884  0.0739
22662W        W41409  15.641  31.731  10.242 -0.0309 -0.0260  0.2345
22663W        W41410   7.185   4.894  12.849 -0.0092 -0.3169  0.1169
22664W        W41411   9.039  24.736   1.141 -0.0291 -0.2217  0.0403
22665W        W41412   9.765   0.952   4.622 -0.1771  0.4528  0.1054
22666W        W41413  17.090  10.143   9.003 -0.2320 -0.3245  0.0653
22667W        W41414  20.010   4.075   9.669 -0.3101  0.2130 -0.2042
22668W        W41415  23.699  29.452   3.918 -0.0209 -0.0527 -0.2816
22669W        W41416  26.240  20.157  18.897 -0.4351  0.3742 -0.2070
22670W        W41417   5.497  11.726  22.063 -0.3580 -0.0147 -0.1040
22671W        W41418  21.205  11.267   1.296 -0.2513  0.3942 -0.0445
22672W        W41419  10.225  24.171  15.733  0.2293  0.1936 -0.0121
22673W        W41420   1.133   2.889  16.286 -0.1712 -0.1581 -0.0285
22674W        W41421  33.934  23.691  10.473 -0.2331 -0.0431  0.3993
22675W        W41422  10.129  12.453  23.173  0.0297  0.1854  0.2747
22676W        W41423  23.335  33.297   0.335 -0.3102  0.3132 -0.1851
22677W        W41424  14.844  28.159   2.280 -0.0965  0.3377 -0.1008
22678W        W41425  30.314   8.829  16.806  0.1373  0.3624  0.2524
22679W        W41426  10.789  27.384  13.644 -0.1742  0.1916 -0.2978
22680W        W41427  22.334  27.396  17.463  0.2804  0.3202 -0.4112
22681W        W41428  19.550  12.319  24.256  0.1272  0.0746 -0.0032
22682W        W41429  13.070  33.130   4.294 -0.1116 -0.0869 -0.0947
22683W        W41430  34.556  32.431   6.988  0.1120  0.0677 -0.4105
22684W        W41431   1.179   0.037  21.027  0.1258  0.4026  0.1302
22685W        W41432  19.545  12.024  25.901  0.1037 -0.3747  0.0557
22686W        W41433  30.716  27.250   2.080  0.0570  0.0393  0.1572
22687W        W41434  33.061   5.513  17.957  0.0128  0.2108  0.4578
22688W        W41435  13.822  23.192  11.046 -0.2837 -0.3363 -0.0452
22689W        W41436  11.290   0.973  20.734 -0.1894  0.2577  0.2585
22690W        W41437  33.739  20.098  11.118  0.0966 -0.0906 -0.0759
22691W        W41438  15.142  21.512   2.151  0.2419  0.0328 -0.1923
22692W        W41439  10.418  11.094   0.243  0.0236 -0.2779  0.2465
22693W        W41440  32.337   4.882   3.489  0.0307 -0.2700 -0.0004
22694W        W41441  25.215   9.432  26.208 -0.0910 -0.1982  0.0899
22695W        W41442  12.400  27.313  12.456 -0.0666  0.0148  0.1566
22696W        W41443  12.489  23.242   1.124  0.0546  0.0548  0.3245
22697W        W41444  25.012   7.496   0.967  0.0338 -0.0715  0.2501
22698W        W41445  20.175   2.679  21.727 -0.0690  0.1299  0.2032
22699W        W41446  11.295  17.870   2.122 -0.3187  0.1028 -0.1907
22700W        W41447   6.449  14.925   5.923 -0.1799  0.1141 -0.0207
22701W        W41448  21.490  12.038  18.228 -0.1401  0.2118 -0.0731
22702W        W41449  10.018  19.053   5.027 -0.1716 -0.3226 -0.3216
22703W        W41450  24.763  15.521  23.435  0.1056 -0.0325 -0.0510
22704W        W41451  16.256   7.408   4.305 -0.3115  0.0211  0.1660
22705W        W41452  23.830  28.045  11.887  0.1104 -0.1389 -0.0103
22706W        W41453  26.392   0.618  16.648 -0.1315 -0.2566  0.0160
22707W        W41454  23.470  10.315  23.387  0.0367 -0.0706 -0.1932
22708W        W41455   6.752  30.291   5.986  0.3187  0.2937  0.0470
22709W        W41456   0.274   6.587  19.628  0.6365 -0.5052  0.2695
22710W        W41457  23.935   4.578   3.783 -0.1843  0.1951  0.0896
22711W        W41458  14.961  32.641   7.274 -0.1478 -0.0805 -0.0059
22712W        W41459  11.817  29.330  23.548  0.1355  0.1214 -0.0697
22713W        W41460  11.907  34.836  14.426 -0.0228 -0.0137  0.0192
22714W        W41461  32.594  28.613  22.375  0.0672 -0.1709  0.0607
22715W        W41462   4.933   1.444   4.152 -0.3481  0.1093 -0.0877
22716W        W41463  35.123  10.850   1.206 -0.2876  0.2010 -0.0904
22717W        W41464   3.229   5.193  21.779  0.1153 -0.2671  0.2756
22718W        W41465  30.737   6.534   3.510 -0.1311 -0.0671 -0.6289
22719W        W41466   7.316  29.158  22.341  0.6422 -0.0046 -0.3203
22720W        W41467  32.726  16.789   9.341  0.2029 -0.2490 -0.1891
22721W        W41468  32.928  16.276  13.790  0.0374 -0.1101  0.0544
22722W        W41469  16.358  25.224  22.071 -0.0571 -0.1160  0.1577
22723W        W41470   1.380  26.622   3.258 -0.0873  0.1270 -0.0615
22724W        W41471  15.644  16.255   7.595  0.0091 -0.3825  0.4197
22725W        W41472  22.044   4.257  21.389 -0.0431  0.0284  0.2315
22726W        W41473  17.271  16.150   5.776 -0.2178  0.2526 -0.0097
22727W        W41474   8.626  27.461  15.450  0.0977  0.1358  0.2684
22728W        W41475   9.852  26.667   1.737 -0.0597 -0.3866  0.1501
22729W        W41476  16.646   2.680  18.945  0.0948 -0.1525  0.0278
22730W        W41477  25.892   5.711  17.096  0.0212 -0.1594 -0.0413
22731W        W41478   9.258   6.914   9.414  0.2068 -0.0106 -0.2290
22732W        W41479  11.752  15.199   8.307  0.1941 -0.0822  0.0924
22733W        W41480   0.300  27.082  24.344 -0.0921 -0.0018 -0.1599
22734W        W41481  22.366  30.065   0.978  0.1762  0.1138  0.1195
22735W        W41482  27.896  25.261  13.508 -0.1303 -0.0047 -0.0783
22736W        W41483  30.185  23.546  10.979  0.2556 -0.0234 -0.1530
22737W        W41484  22.446  10.231   1.929 -0.0928  0.0949  0.2849
22738W        W41485  26.745  13.375  16.599  0.0625  0.0331  0.2261
22739W        W41486   2.187  27.669   4.873 -0.0033 -0.1570  0.0681
22740W        W41487  15.061  14.720  13.105  0.0044  0.1271  0.0812
22741W        W41488   6.979   7.972   5.265 -0.3260  0.0590  0.1648
22742W        W41489  13.911  34.717  24.086 -0.0287 -0.1268 -0.1108
22743W        W41490   6.180  17.536  18.554 -0.2748 -0.1654 -0.1561
22744W        W41491   7.039  20.942   1.522  0.0064  0.0465 -0.0417
22745W        W41492  23.217  15.776  12.703 -0.0551 -0.2687 -0.1343
22746W        W41493  31.349  24.827  10.995 -0.1112  0.1775  0.0938
22747W        W41494  30.520  31.905   1.226 -0.1776 -0.2765 -0.0270
22748W        W41495  25.892  30.956   0.220  0.0851 -0.1514 -0.1116
22749W        W41496  14.357  31.104   5.038 -0.2871  0.3042 -0.0976
22750W        W41497   4.988  34.032   7.306 -0.0861 -0.1180  0.1448
22751W        W41498  25.941  35.110  11.826  0.1623  0.2390  0.0393
22752W        W41499  34.922  20.953  17.062 -0.1507  0.3502 -0.1951
22753W        W41500   8.588  31.397  24.365  0.0622 -0.0591  0.3757
22754W        W41501  15.921   9.413  19.482  0.3011 -0.0099  0.1062
22755W        W41502  18.914  24.401   6.357 -0.1783 -0.1103  0.2476
22756W        W41503  31.276  31.382  21.899 -0.1293  0.1891  0.1172
22757W        W41504  11.644  31.381   4.456  0.3200 -0.1625 -0.1487
22758W        W41505  31.474  27.976   1.345 -0.3448 -0.3195 -0.0409
22759W        W41506   3.754   1.879  10.256 -0.2404 -0.1428 -0.1276
22760W        W41507  17.345   0.102  20.447  0.0418 -0.2994  0.1737
22761W        W41508   5.364   6.144   5.842  0.1975  0.1108  0.1951
22762W        W41509  14.458  28.826  23.415  0.0936  0.0107 -0.0105
22763W        W41510  27.707  32.332  20.445 -0.0477  0.1682  0.1097
22764W        W41511   3.685  17.438  23.180 -0.0296 -0.0128  0.1897
22765W        W41512  26.529  16.255  17.979 -0.0698  0.2526 -0.0602
22766W        W41513  23.621  29.114  16.814  0.0838 -0.4043 -0.1241
22767W        W41514  32.595  20.294  13.095 -0.1496 -0.2057 -0.0398
22768W        W41515   5.321  14.883   2.700  0.0917  0.0591 -0.0514
22769W        W41516   5.415  27.840  12.997 -0.0619  0.1148  0.0484
22770W        W41517   1.720   3.707  23.198  0.0200  0.0035 -0.2418
22771W        W41518   9.730  20.148   1.572 -0.1158  0.0867 -0.0951
22772W        W41519  35.190  33.293   0.966 -0.1175 -0.1294  0.1131
22773W        W41520  25.000  23.983  12.429 -0.0253 -0.4277 -0.1278
22774W        W41521  34.514   7.278  21.653  0.1650  0.3209 -0.3582
22775W        W41522  18.662  23.194  11.242  0.2149  0.0638  0.1415
22776W        W41523  25.684   9.781  17.656 -0.1036  0.1009 -0.1548
22777W        W41524   0.498  22.635  21.504 -0.0603 -0.1396 -0.3701
22778W        W41525  24.665  18.446  18.853 -0.0985  0.1627  0.1319
22779W        W41526   2.281  18.242  16.822 -0.0856 -0.2174  0.2422
22780W        W41527  15.834  23.130  14.197  0.2663  0.0776  0.3208
22781W        W41528   6.402  11.874  17.735  0.0068  0.2207  0.1492
22782W        W41529  13.658  25.292   0.698  0.1236 -0.1572 -0.3811
22783W        W41530  15.026  18.601  13.323 -0.0268 -0.0037 -0.3283
22784W        W41531  17.876   0.206  21.738  0.0079 -0.0782  0.0967
22785W        W41532  12.753   1.846   6.406 -0.0116  0.2463  0.1318
22786W        W41533  33.456   0.522  23.440 -0.2123  0.1543  0.0326
22787W        W41534  21.453  25.989  14.797  0.0018 -0.0514 -0.2511
22788W        W41535  30.040  15.738   9.108  0.1412 -0.0682  0.1239
22789W        W41536  35.009  30.594   7.079 -0.2593 -0.1289 -0.1323
22790W        W41537  20.627  24.685  25.186  0.2806  0.1359  0.0965
22791W        W41538   6.706  30.078  21.734 -0.1940 -0.2356 -0.0280
22792W        W41539   8.076  23.879  15.920  0.0078 -0.0574  0.0374
22793W        W41540  17.345  21.402   7.351 -0.0897 -0.1807  0.1475
22794W        W41541  10.782   4.304   3.988 -0.3342 -0.2828  0.2100
22795W        W41542  31.706  26.838  17.984  0.1704  0.0528  0.0068
22796W        W41543  29.927  35.168  18.409 -0.0475 -0.2050  0.1692
22797W        W41544   9.529  13.601  25.036  0.2201  0.0723 -0.3995
22798W        W41545  10.233  20.794  14.587 -0.0641 -0.1431  0.4326
22799W        W41546  12.378  12.227   9.344  0.2287  0.0831 -0.0080
22800W        W41547  32.117  34.967  17.011 -0.1032  0.1177  0.1573
22801W        W41548  29.112   3.235   2.735  0.0814  0.3399  0.1184
22802W        W41549   0.761   3.214   6.854  0.0123  0.0064  0.0691
22803W        W41550  30.414  17.351  25.573 -0.0985  0.2139  0.1219
22804W        W41551  26.417  23.431   7.182  0.0088  0.0520 -0.2132
22805W        W41552  23.296  16.542  23.138 -0.2712 -0.2735 -0.0741
22806W        W41553  29.589  34.373  14.903  0.1206 -0.2115  0.3650
22807W        W41554  16.183   7.031  24.215 -0.1457  0.1111 -0.1563
22808W        W41555   3.513   1.282   6.294 -0.1559 -0.1370 -0.2259
22809W        W41556   3.577  18.011  16.177  0.0826  0.1308  0.0985
22810W        W41557  21.300   1.239  23.693  0.1315  0.0453  0.1118
22811W        W41558  24.082  24.897   3.632  0.1992 -0.1112  0.0486
22812W        W41559  18.043  15.730  12.291  0.0648  0.0184  0.0682
22813W        W41560  25.375  19.134  15.408  0.2382  0.0119  0.1215
22814W        W41561   8.908  30.609   3.708 -0.3315 -0.1375 -0.0144
22815W        W41562  19.535   4.095  24.674  0.0446  0.1286  0.1741
22816W        W41563   0.894  14.619   1.441  0.1550 -0.0899 -0.2042
22817W        W41564   0.093  20.825  10.059  0.0357  0.0718  0.0992
22818W        W41565   7.264   5.192   7.204 -0.2813 -0.2143 -0.1474
22819W        W41566   0.751   8.289  23.412 -0.1647 -0.0952  0.0370
22820W        W41567  13.231  26.216  10.485  0.0798 -0.0254  0.1140
22821W        W41568  33.970  11.678  20.792  0.1269 -0.0318 -0.0478
22822W        W41569  29.035  13.869   6.862 -0.0312 -0.0331 -0.0880
22823W        W41570  33.955  26.361  12.265 -0.0487 -0.1536  0.3163
22824W        W41571  28.321   7.350  23.043  0.0942  0.0350  0.1773
22825W        W41572  31.169  25.867  12.386 -0.1414 -0.1033 -0.2152
22826W        W41573  17.805  15.579   7.577 -0.0577  0.0329 -0.0131
22827W        W41574   7.720  14.197  11.433 -0.3397 -0.0098 -0.0387
22828W        W41575  34.544  22.603  19.776 -0.1049  0.1797  0.1545
22829W        W41576  22.924  35.080   3.627  0.3975  0.1697  0.4078
22830W        W41577  30.380  13.090  18.634 -0.2019  0.0325 -0.0953
22831W        W41578  29.353   8.745  16.772 -0.2339  0.2076 -0.1753
22832W        W41579   6.595   3.113   6.171 -0.2532 -0.1763  0.0822
22833W        W41580  26.246  27.957  13.380  0.3607  0.0196 -0.1088
22834W        W41581  21.297  12.409   3.206  0.0118  0.0497  0.2797
22835W        W41582  15.601   1.487   8.997  0.0290  0.1211 -0.0926
22836W        W41583  25.535  14.001  24.396 -0.0609 -0.2737 -0.2917
22837W        W41584   1.570  30.273   2.321  0.1281 -0.0752  0.4245
22838W        W41585  21.457  30.605  22.846 -0.1157 -0.3851  0.0596
22839W        W41586  34.436  16.436  17.475 -0.1721 -0.1228 -0.2226
22840W        W41587   1.910  26.690  21.445 -0.4162 -0.3565 -0.0588
22841W        W41588   7.334  26.941  16.069  0.1019 -0.2076 -0.3215
22842W        W41589   1.456  13.043  24.280  0.3358 -0.0238  0.1848
22843W        W41590   3.112  27.408  21.007  0.0905 -0.1664  0.2839
22844W        W41591  10.077  28.929  10.739 -0.0107 -0.0885  0.0168
22845W        W41592  18.703  27.472  21.632 -0.2034 -0.2204  0.1358
22846W        W41593  10.629  14.519  21.200  0.0116  0.2662 -0.1507
22847W        W41594   4.274  32.004   9.208 -0.0559  0.0001  0.1405
22848W        W41595  31.626   3.462  21.917 -0.3017 -0.2529 -0.1115
22849W        W41596  35.008  15.421  12.586 -0.0107  0.1489  0.4140
22850W        W41597  21.848  33.940   1.498 -0.1871  0.1883 -0.2318
22851W        W41598   5.824  32.361   1.755  0.0843  0.2499  0.0233
22852W        W41599  21.793   0.152   4.705  0.4663 -0.1137 -0.0142
22853W        W41600  19.771  18.904   7.740 -0.0212 -0.0107 -0.0594
22854W        W41601   8.016  25.118   6.759  0.0508  0.0931 -0.3386
22855W        W41602   5.265  10.966  21.449 -0.2112  0.1735 -0.0582
22856W        W41603   5.634  13.762   3.622  0.1365 -0.1033  0.0620
22857W        W41604  11.296  15.674  22.730  0.1039  0.1164 -0.0094
22858W        W41605  21.389   6.337   3.344 -0.1706 -0.2029 -0.0649
22859W        W41606   6.710  31.909   7.009  0.0314  0.1963  0.0578
22860W        W41607   1.145  25.403   0.580  0.0034 -0.1575 -0.0405
22861W        W41608  25.678   6.674  22.208 -0.0449  0.2459  0.3777
22862W        W41609  31.134  31.207  15.148  0.0727 -0.3404 -0.0174
22863W        W41610  17.516  31.637  25.692  0.0857 -0.2158  0.1278
22864W        W41611  33.010  15.078  22.432  0.0449 -0.1612  0.0913
22865W        W41612   7.946  13.085  12.238  0.0478  0.1474  0.0102
22866W        W41613  22.483  13.091  20.749  0.2156  0.5318  0.3607
22867W        W41614  32.928  25.169  13.344  0.1499 -0.2434 -0.0153
22868W        W41615   4.851  35.270  24.782 -0.2096  0.2117 -0.1704
22869W        W41616   5.993  14.486  24.806  0.2640 -0.0513 -0.4311
22870W        W41617   9.936  11.210  12.043  0.2456 -0.0580  0.1538
22871W        W41618   4.425   6.367  23.337  0.0594  0.1226  0.1848
22872W        W41619  28.577   4.195  12.431  0.0503 -0.0051  0.2004
22873W        W41620   9.219   6.292  21.074  0.0996 -0.2030 -0.0945
22874W        W41621  21.897   7.272  21.229 -0.0224 -0.4623  0.1073
22875W        W41622   8.782  10.106  25.489 -0.1640 -0.3141  0.1768
22876W        W41623   5.129   6.991   3.196 -0.2802 -0.0937  0.1382
22877W        W41624  24.179  19.567  23.570  0.2311  0.1027 -0.0981
22878W        W41625   6.747  31.973  22.832 -0.0077  0.1515 -0.3266
22879W        W41626  24.819  34.304  17.990 -0.1373 -0.2885 -0.1748
22880W        W41627  13.033   6.003  20.065  0.1723  0.2012 -0.2422
22881W        W41628   1.400  28.307  22.783 -0.1532  0.2502  0.0955
22882W        W41629  21.047  15.827  21.999  0.2302  0.0854 -0.2035
22883W        W41630  26.290  15.528  13.302 -0.0320 -0.2497 -0.1914
22884W        W41631  20.162  24.958  25.094  0.0593 -0.0807 -0.0156
22885W        W41632  10.446  30.634  13.148  0.1026  0.3082 -0.0946
22886W        W41633  14.494  24.595   2.441 -0.4562  0.2497  0.0884
22887W        W41634   4.200   9.344   1.944 -0.0763 -0.2589  0.1209
22888W        W41635   4.778   8.120  24.028  0.1192 -0.2268  0.1119
22889W        W41636  24.903  29.952  24.015 -0.3415 -0.0899 -0.1278
22890W        W41637  28.895  27.207  19.519  0.0945  0.1403  0.2798
22891W        W41638  31.725  15.534   8.002  0.1434 -0.0732 -0.3649
22892W        W41639  34.908  24.612  14.212 -0.0800  0.2242  0.0083
22893W        W41640  30.833   2.713  20.771  0.2662 -0.2859  0.1879
22894W        W41641   3.483  33.397  11.509 -0.1065  0.3371  0.2348
22895W        W41642  18.760  22.319   4.125 -0.0277 -0.1402 -0.0735
22896W        W41643  23.710   4.091  19.177 -0.0496  0.0269 -0.3536
22897W        W41644  34.004  17.742   7.488 -0.0554  0.2648 -0.0330
22898W        W41645   7.243  31.565   9.245  0.1021 -0.0583  0.1413
22899W        W41646  32.283  21.353   9.022  0.0720  0.0474 -0.1639
22900W        W41647   9.651  22.881  13.716  0.1512  0.0696 -0.0002
22901W        W41648  10.884   3.797   1.073 -0.1806  0.2558  0.0358
22902W        W41649  14.142  34.171  21.906  0.0770 -0.1148  0.3741
22903W        W41650  19.592   0.311   7.761 -0.1854 -0.2331 -0.1683
22904W        W41651  11.275   9.122  21.710 -0.0119 -0.1271  0.2010
22905W        W41652   7.066  12.618  19.380 -0.0868 -0.0586  0.1014
22906W        W41653   1.512  25.266  20.387  0.3369 -0.2030 -0.2261
22907W        W41654  26.162  31.783  22.841 -0.0176 -0.0706 -0.1305
22908W        W41655  15.610  22.614   0.352 -0.1163  0.0453  0.1954
22909W        W41656  10.939  34.694   7.849 -0.0264 -0.3095  0.3141
22910W        W41657   2.826  12.798   4.431 -0.1511  0.0515 -0.1374
22911W        W41658   9.424  15.690  18.029 -0.3446  0.0998 -0.2460
22912W        W41659  21.717   0.489  16.498 -0.3156  0.2158 -0.0936
22913W        W41660  23.466  15.735  19.750 -0.3184  0.4127  0.2307
22914W        W41661  29.992  34.885  23.201 -0.0368 -0.0553 -0.0998
22915W        W41662  30.700  24.425  11.263 -0.1064 -0.0891 -0.1748
22916W        W41663  16.571  18.364  24.954 -0.0434 -0.0860  0.0239
22917W        W41664  17.388   7.093   5.009 -0.2044 -0.1003 -0.0685
22918W        W41665   8.885  31.066   9.621 -0.1207  0.1124 -0.0386
22919W        W41666  35.187  23.137  23.471 -0.2808 -0.3522  0.1069
22920W        W41667  33.229  20.294  18.276 -0.0685  0.0716 -0.0830
22921W        W41668  15.753  31.750   3.160  0.1840  0.0601 -0.0047
22922W        W41669  32.298  25.215  23.883  0.2759  0.2019 -0.0125
22923W        W41670   2.400  18.896  25.867 -0.0093 -0.0358  0.0388
22924W        W41671   9.303   7.628   4.223  0.0178 -0.0483  0.1381
22925W        W41672  32.067   0.006   4.261 -0.3964  0.0676 -0.0091
22926W        W41673  24.321  25.031  24.241  0.0043 -0.1271  0.1630
22927W        W41674  30.787  17.117  17.487  0.0090 -0.2096 -0.1616
22928W        W41675  27.557   6.237  15.240 -0.1101  0.3274 -0.1358
22929W        W41676   3.327   8.552  26.030  0.0083  0.0720 -0.0697
22930W        W41677  35.290  23.137   1.630  0.0608  0.2704  0.1635
22931W        W41678  25.128  26.782  18.568 -0.2257  0.0540 -0.0382
22932W        W41679   2.098  22.672  21.478 -0.0748  0.2037 -0.1466
22933W        W41680   3.858   6.897  18.764  0.0700 -0.2439  0.0424
22934W        W41681  19.502  28.447   2.234 -0.3522 -0.2245  0.3528
22935W        W41682   9.291  21.431  11.757  0.0876  0.0790  0.0293
22936W        W41683   0.275  34.813  20.288 -0.1292 -0.0295  0.0787
22937W        W41684   2.894   6.386  24.509  0.4439  0.1263  0.3907
22938W        W41685  21.050  22.409  16.760  0.3137  0.0095 -0.0371
22939W        W41686  22.236  17.928   3.711  0.2355  0.0898  0.1657
22940W        W41687  13.610  21.956   2.784  0.0665 -0.0606  0.1027
22941W        W41688   2.180   7.129  25.105 -0.0025  0.0051  0.1345
22942W        W41689  31.945  26.995  20.741 -0.4676 -0.1296  0.2843
22943W        W41690  18.676  10.485  10.432  0.0960  0.0466 -0.0443
22944W        W41691  33.807  10.479  16.204 -0.1572 -0.1623  0.0033
22945W        W41692   6.061  29.967   8.016  0.1922 -0.1634 -0.0168
22946W        W41693  23.244   3.078   0.007  0.3013 -0.2752 -0.2365
22947W        W41694   6.102   8.877  19.703 -0.0310 -0.2155 -0.0480
22948W        W41695   9.291  32.333   8.940 -0.1865  0.0469 -0.0506
22949W        W41696  12.322   2.128  24.160  0.2059 -0.2617  0.0800
22950W        W41697  17.824  26.427  26.113 -0.0669  0.2428 -0.0693
22951W        W41698  13.792  25.200  22.291  0.3518  0.0907 -0.2126
22952W        W41699  34.175  15.330  23.662 -0.2605  0.1088 -0.1923
22953W        W41700  11.445   2.763  22.721 -0.4624 -0.0623 -0.1979
22954W        W41701  23.648  20.775  22.097 -0.2276 -0.1343  0.0393
22955W        W41702  23.061   2.224  13.158 -0.2234 -0.0553  0.2904
22956W        W41703  13.636  10.007  25.309 -0.4403  0.0677  0.0555
22957W        W41704  21.654   6.005  24.726  0.1177  0.1202 -0.0090
22958W        W41705  31.136  15.456  15.081  0.2249 -0.0247 -0.1484
22959W        W41706  14.493  32.144  24.007  0.0361  0.0852 -0.2540
22960W        W41707  15.599   7.226   5.102  0.0051  0.0322  0.1593
22961W        W41708  15.493  29.505   5.908 -0.0325  0.3369  0.0478
22962W        W41709  29.432   8.658  20.332 -0.1014  0.0407  0.0660
22963W        W41710   3.049  24.061   2.976 -0.4590  0.1136  0.1252
22964W        W41711  28.296  22.958  25.835 -0.5172 -0.1929 -0.2315
22965W        W41712   6.151   5.852  17.754 -0.1235 -0.0610  0.1627
22966W        W41713   0.735  21.856   9.402 -0.0806 -0.2317  0.1218
22967W        W41714  26.705   4.621  19.028 -0.2059  0.1938  0.0036
22968W        W41715  15.627  17.886  24.327 -0.1530  0.1368  0.0310
22969W        W41716  14.804  14.977   7.268 -0.0952  0.2341  0.0809
22970W        W41717  15.592  28.324  15.779  0.0762 -0.2619 -0.0821
22971W        W41718  17.309  30.726   1.087  0.0229 -0.2622  0.0904
22972W        W41719  20.063   7.090   6.617  0.1583  0.0641 -0.0991
22973W        W41720   5.664  29.006  12.539 -0.4626 -0.1073 -0.1359
22974W        W41721   4.330   8.974   3.227  0.2298  0.0511  0.2765
22975W        W41722  30.480  23.930   8.628 -0.0583  0.1994 -0.2821
22976W        W41723  20.953   0.016   5.648  0.1459 -0.0273 -0.1273
22977W        W41724  21.876   8.078  23.696  0.1810 -0.0083 -0.1445
22978W        W41725  30.250  34.555   3.123 -0.2721 -0.1921  0.4835
22979W        W41726   2.495  35.066  17.010  0.4292 -0.0422 -0.0905
22980W        W41727  22.288  31.078  25.165 -0.2636  0.3714 -0.1965
22981W        W41728   6.206   7.545   9.507  0.1523  0.2728 -0.0175
22982W        W41729   5.482   3.186  11.212  0.1061 -0.1170  0.4380
22983W        W41730  25.023   1.222  19.878  0.1701  0.0466  0.1674
22984W        W41731   4.235   0.543  19.856  0.3975 -0.0131  0.0050
22985W        W41732  30.329  16.793  24.579  0.0576  0.1427 -0.0552
22986W        W41733  34.461  30.321  17.236  0.0775  0.2811  0.0953
22987W        W41734   4.155  22.528   0.587  0.1713 -0.0332  0.1553
22988W        W41735  12.722  16.800   1.501 -0.0903  0.0281 -0.1565
22989W        W41736  18.564  28.738   2.040  0.3036  0.0845  0.0793
22990W        W41737  26.197  21.968   9.382  0.1503  0.1542  0.0236
22991W        W41738  18.768  11.293   4.202 -0.2519  0.0724 -0.0953
22992W        W41739   9.784  21.169   7.699 -0.0692 -0.0212  0.0555
22993W        W41740  32.415   3.618  14.400 -0.1436  0.2898 -0.0973
22994W        W41741  18.360  30.903  20.988  0.0397  0.1476  0.1997
22995W        W41742   0.123   7.095  20.838  0.0889  0.1043 -0.0751
22996W        W41743  26.028  25.677  18.338 -0.6817 -0.0547 -0.1222
22997W        W41744   4.367  26.179  23.785  0.0588 -0.1422  0.3685
22998W        W41745  15.120  30.047  20.348 -0.2925 -0.0549  0.1417
22999W        W41746  12.285  25.112  13.554 -0.0448 -0.0394  0.0004
23000W        W41747  15.668  33.929   5.707 -0.1636  0.0802  0.3883
23001W        W41748  30.106  29.924  10.850  0.1350 -0.0121  0.0211
23002W        W41749  34.146   3.211   3.239 -0.1115  0.1026  0.2138
23003W        W41750   2.428  23.841   1.448  0.2252  0.0287  0.0600
23004W        W41751  10.227  27.088   2.651  0.2061  0.1880 -0.1655
23005W        W41752  18.109  30.484  19.111  0.0330 -0.0575 -0.0346
23006W        W41753  31.317   8.337  25.037  0.0251  0.0410 -0.1348
23007W        W41754  33.903  13.793  15.419  0.1731 -0.0164 -0.0103
23008W        W41755  21.651  16.434  23.389 -0.0996  0.0676  0.0933
23009W        W41756   8.845   1.275  22.159  0.1551  0.0923  0.1049
23010W        W41757  16.651   7.117  10.211  0.1967 -0.3316 -0.2474
23011W        W41758  18.829  22.981  23.399  0.0427  0.1361  0.0577
23012W        W41759  27.356  23.075  13.298  0.0415  0.0296 -0.1413
23013W        W41760  26.661  21.373   8.055  0.0968 -0.2547 -0.2782
23014W        W41761  26.153   3.026   3.141 -0.0651  0.0064 -0.0814
23015W        W41762  27.971  34.818  16.633 -0.3804  0.0271  0.1522
23016W        W41763  20.507  15.133  16.170 -0.0599 -0.1467 -0.2071
23017W        W41764  14.933  10.681  10.754  0.2319  0.1412 -0.1685
23018W        W41765  28.312   4.600   4.535 -0.1053 -0.0216 -0.2365
23019W        W41766   1.830  29.499  26.058  0.0846  0.1340 -0.0426
23020W        W41767  10.323  15.812   6.663  0.3515  0.0455 -0.0149
23021W        W41768  32.090  20.065   9.004  0.1469 -0.1419 -0.0370
23022W        W41769   6.601   8.688  23.923 -0.1992  0.1819  0.3910
23023W        W41770   7.587   5.180  22.566  0.0995 -0.1627 -0.3784
23024W        W41771  30.044  11.194  19.164 -0.1363 -0.0483  0.1998
23025W        W41772   7.146  33.385  22.108  0.4092 -0.1477  0.4850
23026W        W41773  24.819   9.068  16.854 -0.0553 -0.2705 -0.3171
23027W        W41774  21.757  15.971   0.818 -0.2862  0.0168  0.1109
23028W        W41775  11.075  24.334   9.601  0.3184  0.1826 -0.0218
23029W        W41776  11.931   4.318   0.391 -0.3616  0.0684 -0.0766
23030W        W41777  29.763   0.652   5.096  0.1001 -0.1192  0.0189
23031W        W41778  30.055  17.390  10.677 -0.0107 -0.2831 -0.1870
23032W        W41779  26.155   7.671  10.269  0.1535  0.2052 -0.1114
23033W        W41780  34.333  30.576   6.257  0.1956  0.2430  0.0919
23034W        W41781  23.261  13.319  18.337 -0.0247 -0.0184 -0.0903
23035W        W41782  26.311   0.683   4.854  0.0953 -0.1410 -0.1790
23036W        W41783  25.307  30.006   1.253  0.1919 -0.0486 -0.4090
23037W        W41784  28.905  10.185  11.653 -0.1928  0.2603  0.2136
23038W        W41785  14.269  29.947  23.493 -0.0383 -0.1428 -0.1036
23039W        W41786  31.651  26.795   3.828 -0.2995  0.1410 -0.3921
23040W        W41787  20.697  30.712  20.627  0.1544  0.0454  0.0853
23041W        W41788  35.010  33.151   8.568  0.0395 -0.0152 -0.0626
23042W        W41789  25.073  34.057   5.120 -0.3250 -0.2762 -0.1181
23043W        W41790  25.121  25.515   0.888  0.0192 -0.1036 -0.0554
23044W        W41791  27.527  19.171  20.505 -0.3631  0.0720 -0.0070
23045W        W41792  22.256  12.142  16.968  0.1425  0.5423 -0.0144
23046W        W41793  17.170  27.459  25.190 -0.2206 -0.3264  0.0788
23047W        W41794  24.773  12.719   1.299 -0.1128  0.0307  0.0608
23048W        W41795  28.750  30.866  21.205  0.1500 -0.1655  0.2537
23049W        W41796   0.363  20.930  23.782  0.0956 -0.1565 -0.0846
23050W        W41797  13.199  19.160  26.071  0.1800  0.0401  0.0273
23051W        W41798  10.953   6.696   5.037 -0.0263  0.0226  0.1522
23052W        W41799  34.191  26.809  24.147 -0.2442 -0.1981 -0.0737
23053W        W41800  27.619  23.125  11.165  0.0247 -0.1804 -0.1954
23054W        W41801  23.116   7.167   0.920  0.1370 -0.0299 -0.2864
23055W        W41802  12.673  27.567   7.001  0.0456 -0.0478  0.0151
23056W        W41803  18.985  22.041  25.641  0.0555 -0.1583 -0.1329
23057W        W41804  34.021  15.089  20.157  0.1957 -0.0613  0.0325
23058W        W41805   7.590  35.094  13.726  0.0227 -0.1087  0.0810
23059W        W41806  27.936  21.367  22.136  0.1055  0.0455 -0.0067
23060W        W41807   6.086  11.848   1.087  0.1341 -0.3115 -0.0766
23061W        W41808  29.213  16.618   7.958  0.0921  0.0407  0.2842
23062W        W41809  12.206   4.307   9.375 -0.2273  0.1653  0.0810
23063W        W41810  12.659  22.182  13.580  0.0669  0.1639 -0.0514
23064W        W41811   4.058  27.237  23.040 -0.3204 -0.1551  0.0590
23065W        W41812  33.632  30.200  25.173  0.1797  0.2220 -0.2968
23066W        W41813  27.057  10.099  23.970  0.3040  0.1714  0.0412
23067W        W41814   4.240  27.748   8.246  0.1877  0.2586  0.0535
23068W        W41815  11.695  29.403  13.706  0.1589 -0.0987  0.2377
23069W        W41816  11.987  28.057  17.001 -0.1206  0.0538  0.1946
23070W        W41817  14.795   6.840   4.457  0.0425 -0.0279 -0.1442
23071W        W41818  21.853  25.772   5.809  0.0183 -0.2785  0.1179
23072W        W41819   5.822  12.963  23.517 -0.1883  0.0923  0.1905
23073W        W41820  11.595   3.622  23.966  0.0216  0.0531 -0.1961
23074W        W41821   5.222  33.857   4.399 -0.0620  0.2008 -0.3251
23075W        W41822   9.299  24.714  10.614 -0.1758  0.2097 -0.0880
23076W        W41823   9.510  30.028  22.473  0.0064 -0.2548 -0.0801
23077W        W41824  17.582   7.191  20.616 -0.3806 -0.2377 -0.0304
23078W        W41825  19.219  17.104   5.026  0.2508 -0.2792 -0.0906
23079W        W41826  33.197  28.690  20.254 -0.2693 -0.1576 -0.0016
23080W        W41827   9.174   3.684   4.766 -0.0098 -0.0114 -0.0353
23081W        W41828  31.131  13.212  12.473  0.2778 -0.0322 -0.0913
23082W        W41829  19.570  12.088   6.255 -0.3249  0.0565  0.0986
23083W        W41830  17.951   6.875  19.854  0.2175  0.1752  0.0589
23084W        W41831  16.999  12.569  11.480 -0.4250  0.0959  0.0262
23085W        W41832  13.781   3.353   8.013 -0.1775  0.1766 -0.1047
23086W        W41833  19.889   6.875   7.185  0.1047 -0.2112  0.0325
23087W        W41834  12.841  11.689   3.573 -0.0841  0.1839  0.0729
23088W        W41835  25.862  11.534   6.931 -0.2165  0.2170 -0.2165
23089W        W41836   1.738  20.806   0.032 -0.0102 -0.0450  0.0493
23090W        W41837  19.889   9.425   8.788 -0.0699  0.1528  0.3091
23091W        W41838  25.708  32.841  13.896 -0.0195  0.2358  0.4446
23092W        W41839  18.968   9.890   2.222  0.2203  0.2129  0.1795
23093W        W41840  30.378  34.937  14.263 -0.0545 -0.1686  0.1801
23094W        W41841   1.021  33.674   5.330 -0.1332 -0.0931 -0.1344
23095W        W41842  22.395   9.093   4.229 -0.5321  0.2677  0.0624
23096W        W41843  23.989  30.568  15.168  0.2398  0.0136  0.1204
23097W        W41844  27.103   4.157   2.853 -0.0222  0.0385  0.1197
23098W        W41845   4.840  28.727   1.829 -0.0355 -0.0520  0.0806
23099W        W41846  26.248  28.447  17.546  0.1465  0.0638  0.0238
23100W        W41847  19.267   3.140   3.143  0.0969 -0.3318  0.2630
23101W        W41848  22.070  14.955  24.106  0.1243  0.2527  0.0074
23102W        W41849   1.004   5.327  19.127  0.3247 -0.1068  0.1652
23103W        W41850  11.557  32.183  15.807  0.1255 -0.3491  0.1673
23104W        W41851  16.018   5.917   7.519  0.2012  0.2260 -0.0780
23105W        W41852  24.119  29.209  25.589  0.0190  0.3380 -0.0427
23106W        W41853   1.420  26.377  16.593  0.4936  0.0742 -0.0351
23107W        W41854  31.534  31.392   2.804  0.1211  0.5277 -0.0923
23108W        W41855  12.523   7.015  21.150  0.0278  0.2214  0.2590
23109W        W41856  24.654   7.892   4.437 -0.1787 -0.1083  0.1353
23110W        W41857  18.434  18.138  24.129  0.2962  0.2790  0.2168
23111W        W41858  28.209  19.385  19.447 -0.1167  0.0279  0.3516
23112W        W41859  27.939  19.149  10.563 -0.3466 -0.2937 -0.1135
23113W        W41860  17.107  19.128   5.148 -0.2693 -0.1883  0.0028
23114W        W41861  28.524  12.349  17.209  0.0692 -0.1150  0.3142
23115W        W41862  15.274  16.165   3.506 -0.0904  0.2165 -0.0366
23116W        W41863  34.018  21.732  16.585 -0.0291 -0.1431  0.1636
23117W        W41864   0.868   9.409  17.806  0.0700 -0.1151  0.2069
23118W        W41865   2.976   4.927   4.136  0.3300 -0.0195 -0.0729
23119W        W41866  21.106   1.523  18.562  0.1603  0.0216  0.1506
23120W        W41867   6.882  25.003  14.776  0.0519  0.0538  0.0531
23121W        W41868  12.367   7.407  24.049  0.0264 -0.1515  0.1199
23122W        W41869  13.865  14.708   2.786  0.1367 -0.5179  0.2637
23123W        W41870   9.503  34.438  20.619 -0.1229  0.0446 -0.3699
23124W        W41871   8.912  20.332   0.799  0.5087  0.2090  0.1013
23125W        W41872  12.894  20.074   0.214  0.0268 -0.0164 -0.0321
23126W        W41873  31.475   4.442  15.219  0.2041 -0.0928  0.1828
23127W        W41874  13.580  22.978   5.529 -0.0322  0.1261 -0.3235
23128W        W41875  33.209  17.209  24.873  0.2894 -0.3368  0.1276
23129W        W41876  21.266  27.868   1.811 -0.0960  0.2743 -0.1539
23130W        W41877   2.077   0.461  10.075 -0.6644  0.1633 -0.4247
23131W        W41878  11.719  16.026  25.495  0.0827  0.1421  0.1921
23132W        W41879  14.297  33.669   4.358 -0.3471 -0.1035 -0.0629
23133W        W41880   7.569  32.015  23.223 -0.1335 -0.1249  0.0345
23134W        W41881   8.581  24.050  24.291  0.2334 -0.1552 -0.1290
23135W        W41882  32.623  27.881  15.359 -0.0414 -0.1342 -0.0848
23136W        W41883  33.255  28.014  24.906  0.2301  0.2830  0.0376
23137W        W41884  29.487  10.149   8.687 -0.1054 -0.2948 -0.1810
23138W        W41885  30.029  34.978  13.198 -0.1174 -0.0801  0.2136
23139W        W41886  28.124  27.421  18.505  0.0873 -0.0513  0.0830
23140W        W41887  10.069   8.435   8.395  0.1567  0.0152  0.0630
23141W        W41888  33.065  23.189   8.348  0.0388 -0.2284  0.0777
23142W        W41889  15.732  17.497  13.678  0.2435  0.1282 -0.0627
23143W        W41890  18.674  34.823   4.109 -0.4001  0.1638 -0.1655
23144W        W41891   0.734  33.230  17.843  0.0044 -0.0635 -0.1825
23145W        W41892   1.139   2.173  22.146 -0.0635  0.2600 -0.0850
23146W        W41893  16.805   4.199   1.588 -0.1530 -0.0805 -0.2791
23147W        W41894  27.326  24.073  23.341  0.1873 -0.2652  0.0566
23148W        W41895  20.257  25.382   0.267  0.0175  0.0888 -0.0829
23149W        W41896  20.563   5.365   1.407 -0.0208 -0.3615 -0.0258
23150W        W41897   5.409  16.829  19.361 -0.0375  0.2573  0.3439
23151W        W41898  22.975   1.087  14.554  0.0732  0.0999 -0.0672
23152W        W41899   4.627  19.773   5.735  0.1175  0.2073 -0.2396
23153W        W41900   8.070  24.584   7.541  0.0085 -0.4303 -0.0275
23154W        W41901  27.960  24.468  25.377 -0.1842 -0.1005  0.1052
23155W        W41902  25.526  13.786   8.941 -0.0695  0.2236 -0.0899
23156W        W41903  19.104  21.223   6.522  0.0726  0.2351  0.4774
23157W        W41904  26.555  32.906   0.296 -0.0074 -0.1962  0.2169
23158W        W41905   9.872   9.926   8.110  0.1256  0.1808 -0.1939
23159W        W41906   0.690  23.441   0.573  0.0588 -0.2040 -0.0769
23160W        W41907   9.618  19.906   3.167  0.0815  0.3386 -0.0632
23161W        W41908   5.748  34.148   1.858  0.2217  0.2989 -0.0381
23162W        W41909  25.602  17.782  25.098 -0.0610 -0.5058  0.1049
23163W        W41910  11.051   0.838   4.043 -0.0883 -0.0567  0.3828
23164W        W41911  27.318  32.199  20.685 -0.3756 -0.0962  0.1212
23165W        W41912  13.559   0.695   7.558  0.2443 -0.0544 -0.1847
23166W        W41913   6.623   6.413   3.185 -0.1859  0.2824  0.0500
23167W        W41914   7.668  11.247   8.478  0.0881 -0.0162  0.0641
23168W        W41915   6.310  25.722   4.227  0.0766 -0.1487  0.2079
23169W        W41916  34.286  32.637  25.510 -0.2230 -0.4558  0.1908
23170W        W41917   4.739  18.780  25.533  0.0371  0.3634 -0.2362
23171W        W41918  27.107  18.247  12.752 -0.0084 -0.0121  0.0174
23172W        W41919   3.397  12.918   0.348  0.0914  0.2297  0.1300
23173W        W41920  27.141  19.403  13.939  0.3094 -0.0722 -0.1380
23174W        W41921  19.409  24.104   4.245  0.2385 -0.1923  0.1295
23175W        W41922  33.808  30.370  19.498  0.2725 -0.3978  0.0048
23176W        W41923   0.058  26.546  16.002 -0.0474  0.0386  0.2544
23177W        W41924   2.439   1.749   4.850  0.0427  0.0848  0.2345
23178W        W41925  22.683  28.503  16.851  0.1908 -0.1331  0.0252
23179W        W41926  13.262  33.926   0.918 -0.1422  0.0325 -0.2694
23180W        W41927  20.832   4.001  17.376  0.4157  0.1388 -0.0210
23181W        W41928   3.770  15.069  17.810  0.1250 -0.4480  0.6141
23182W        W41929  16.264  35.056   6.005 -0.1712 -0.0860 -0.3887
23183W        W41930  11.579  27.311   2.170 -0.0365  0.0846 -0.1110
23184W        W41931  29.287  11.525   8.698 -0.1808 -0.2443  0.3814
23185W        W41932  25.709  25.627  21.780 -0.0067 -0.0583  0.0039
23186W        W41933  34.254  20.726  22.047 -0.1607  0.2237  0.1342
23187W        W41934   5.937  33.614  20.203  0.1598  0.3128  0.3388
23188W        W41935  12.409   1.922   7.381  0.2629  0.0581 -0.0363
23189W        W41936  25.982  27.350  20.854  0.3572  0.0404 -0.2230
23190W        W41937  17.813   5.182  20.937  0.0291  0.0458 -0.1447
23191W        W41938   9.746   9.029   9.881  0.0350  0.1124  0.0177
23192W        W41939   3.467  32.992  22.946 -0.2286 -0.0810  0.1936
23193W        W41940  15.800   2.869  10.352  0.2969  0.0799  0.1758
23194W        W41941  27.499  17.808  11.298 -0.0648 -0.2386  0.0663
23195W        W41942   9.465  27.357  26.003 -0.0715 -0.0030  0.2215
23196W        W41943   9.924   3.594  25.452  0.3985 -0.1429  0.0693
23197W        W41944  23.854  22.914   1.228 -0.1100  0.0275 -0.1264
23198W        W41945   8.067  20.223  24.981  0.2693  0.0017 -0.0229
23199W        W41946  26.872  19.560  25.277  0.0117  0.0906 -0.1537
23200W        W41947  24.169  23.286  20.613  0.1958 -0.0679  0.0696
23201W        W41948  21.284  28.578   1.842  0.2683 -0.0011  0.2245
23202W        W41949  16.068  25.459   3.098 -0.0817  0.1351 -0.1042
23203W        W41950   5.036   1.519  24.549 -0.3653  0.3655  0.1566
23204W        W41951  29.774   6.928  25.455  0.0119 -0.3779 -0.0285
23205W        W41952  32.245  11.981  17.316  0.2682 -0.1033  0.1077
23206W        W41953  33.562  34.501  21.367  0.1455 -0.0324  0.0278
23207W        W41954  30.429  22.320  10.848  0.1356  0.2186  0.0600
23208W        W41955  30.219  31.904  23.099  0.1061  0.2755 -0.2647
23209W        W41956   5.398  35.077  13.081  0.3037  0.3420  0.0013
23210W        W41957  30.435  30.604  20.358 -0.2350  0.2796  0.1138
23211W        W41958  11.475  14.542   7.014 -0.1484 -0.0095  0.0221
23212W        W41959   9.660  24.830  12.785  0.3308  0.0241 -0.1397
23213W        W41960  29.336  19.238  18.530  0.2613  0.0047 -0.0715
23214W        W41961  19.053  14.149  21.078  0.1382 -0.0877 -0.1176
23215W        W41962  18.682  16.045   6.071 -0.1984 -0.1872  0.3630
23216W        W41963  30.125   4.816  17.659  0.2735  0.0620 -0.1916
23217W        W41964  24.369   4.630  16.092 -0.2348 -0.0017  0.1505
23218W        W41965   9.029  16.425  21.597  0.3357 -0.2218  0.0405
23219W        W41966  20.399  21.059  19.118  0.0995 -0.2339  0.0228
23220W        W41967  27.733  34.493  22.315  0.0915 -0.1682 -0.0397
23221W        W41968  34.010  34.064   4.461  0.1447 -0.3766  0.0600
23222W        W41969  33.681  22.688  12.178  0.0114 -0.1885 -0.3770
23223W        W41970  31.825  26.086   1.798 -0.1446 -0.1241  0.0447
23224W        W41971   1.459  33.811   6.548 -0.3493 -0.2915 -0.0761
23225W        W41972  15.616  14.684   6.681  0.0844  0.2753 -0.0327
23226W        W41973  30.703  27.084  10.949  0.0931  0.1608  0.3744
23227W        W41974  23.386  12.957  25.496  0.1295 -0.4205  0.3102
23228W        W41975  16.928  33.670  24.502  0.0244  0.2147 -0.1831
23229W        W41976  12.656   1.416   9.953  0.0168  0.3246  0.1253
23230W        W41977  24.441  13.035  22.695 -0.3208 -0.1052  0.0008
23231W        W41978  32.165  18.719  23.306 -0.0414 -0.1225  0.1599
23232W        W41979  17.625  29.528   5.932  0.1481 -0.1118 -0.0837
23233W        W41980   5.643  19.144   3.072  0.0605 -0.1733  0.0475
23234W        W41981  11.411  11.826   9.809 -0.3005 -0.1312  0.1264
23235W        W41982   2.956  13.863  22.687  0.1946  0.0103  0.1178
23236W        W41983  15.472  25.252   4.955  0.0403  0.1302 -0.2344
23237W        W41984   9.408  12.704  23.442  0.1778  0.0360 -0.0175
23238W        W41985   6.697   5.939  20.762 -0.1798  0.2059  0.2465
23239W        W41986  34.580   7.810  21.397 -0.0446 -0.3508 -0.4736
23240W        W41987  27.228   8.879  11.208  0.0516 -0.2691 -0.2002
23241W        W41988  26.309  16.488  25.201 -0.1910  0.1131  0.0327
23242W        W41989   4.518   7.481  17.407  0.0208  0.2160  0.1126
23243W        W41990  34.394  16.168  11.091 -0.1460 -0.1725  0.0288
23244W        W41991  32.331   5.883  17.348 -0.2377  0.2795 -0.0526
23245W        W41992  27.672   5.863   4.406 -0.0151 -0.0310  0.1132
23246W        W41993  16.236  24.470   5.934 -0.0488 -0.0867  0.1972
23247W        W41994  14.213  22.360  24.952 -0.1499  0.0891 -0.2310
23248W        W41995   1.160  11.687  13.676 -0.0454  0.3073 -0.1217
23249W        W41996  27.919  26.264  15.929 -0.1670 -0.2482  0.0895
23250W        W41997  28.706  21.958  18.819  0.0755  0.2935  0.1974
23251W        W41998  14.652  12.862   0.874 -0.1546 -0.0628 -0.2015
23252W        W41999  10.871   0.969   3.171 -0.0268  0.0516  0.0078
23253W        W42000  29.628   6.174  14.020 -0.2249  0.2167  0.1834
23254W        W42001   5.422  16.704   0.649 -0.0483 -0.1716 -0.1616
23255W        W42002   4.070  12.596  16.063 -0.2087  0.0142  0.0086
23256W        W42003  12.345  10.667  19.031  0.1816  0.2990  0.1236
23257W        W42004  10.794  33.142  22.771  0.0387  0.0229  0.1776
23258W        W42005  29.270  13.399  10.125 -0.0304  0.3170 -0.0357
23259W        W42006  22.341  31.823   3.265 -0.1365  0.1147 -0.0124
23260W        W42007  29.581  16.892  21.823  0.0130  0.1560  0.0247
23261W        W42008  30.040  24.415   9.991 -0.3387  0.1352 -0.0580
23262W        W42009  23.401  21.457  21.146 -0.1797 -0.4333 -0.0989
23263W        W42010   4.650  13.267  22.499  0.3076 -0.3406 -0.2365
23264W        W42011  22.080  25.088  15.049 -0.3543  0.0410  0.0719
23265W        W42012  21.002  16.006  22.478 -0.0481 -0.0427  0.2387
23266W        W42013  22.784  16.084  17.554  0.3354  0.3183 -0.2298
23267W        W42014   5.438  12.141  19.483  0.0010 -0.2410  0.1356
23268W        W42015  26.027  10.900  20.911  0.0405  0.2857  0.3959
23269W        W42016  35.138  22.730  16.169 -0.0257  0.2260  0.3647
23270W        W42017  14.524  12.404   4.777 -0.1238  0.0400  0.0878
23271W        W42018  11.714  35.102  22.699  0.1927 -0.0057 -0.1717
23272W        W42019  13.133  24.485   6.648  0.3838  0.0237 -0.1199
23273W        W42020  33.414  23.922  21.536  0.0942  0.2587  0.0012
23274W        W42021  29.160  31.658  21.919  0.1332  0.0273 -0.2238
23275W        W42022  35.031  22.751  11.550 -0.0846  0.0339  0.1859
23276W        W42023   2.436  30.011   4.222 -0.1880  0.0060 -0.0074
23277W        W42024  10.718  19.285   4.117 -0.0821 -0.1857 -0.1219
23278W        W42025  23.788   4.426  23.171  0.0625  0.0017 -0.1940
23279W        W42026  20.314   3.042   8.177 -0.1398  0.4578  0.1028
23280W        W42027  29.761   0.973  16.885  0.1008  0.3286  0.3168
23281W        W42028   6.815  23.327   3.220  0.1776  0.1753 -0.2265
23282W        W42029  15.966  13.871  13.496 -0.3813 -0.2649  0.1311
23283W        W42030   6.183   3.191   9.502 -0.0530  0.3251 -0.3318
23284W        W42031  22.445  22.894  24.702 -0.1334 -0.0736  0.0057
23285W        W42032  13.283   3.523  20.817 -0.1370  0.0753 -0.1390
23286W        W42033  19.057   5.210  19.022  0.3405 -0.2083  0.0043
23287W        W42034  25.543   6.015  21.514  0.1689  0.1318 -0.1160
23288W        W42035   8.731   7.382  23.367 -0.1993  0.0907  0.0853
23289W        W42036   2.386   9.546  21.756  0.0962 -0.1758 -0.0497
23290W        W42037  16.959  11.153   0.329  0.0172 -0.3279  0.1162
23291W        W42038  34.815  24.309  12.457  0.0310 -0.1272  0.1013
23292W        W42039  23.220   4.579  19.255  0.1017 -0.2159 -0.5322
23293W        W42040  27.644  33.452  16.288  0.1850  0.1478 -0.0029
23294W        W42041   1.645  30.433   4.537  0.0485  0.2274 -0.0365
23295W        W42042  27.097   3.925  20.086 -0.0131  0.3196 -0.0429
23296W        W42043  34.222  12.623  20.372 -0.1915  0.3330 -0.1745
23297W        W42044  30.483   7.408   1.313  0.0001  0.0882 -0.1873
23298W        W42045  26.070  18.462  16.821 -0.0746  0.0075 -0.2369
23299W        W42046  30.086  31.908   1.626 -0.2326 -0.0603  0.0421
23300W        W42047  19.119  20.378  24.813  0.0479 -0.2991 -0.2134
23301W        W42048  24.991  19.755  20.003 -0.1542  0.4076 -0.0010
23302W        W42049  33.346  16.946  14.418  0.2831 -0.3327  0.2014
23303W        W42050   6.926   3.640   3.561  0.0488 -0.3494 -0.0307
23304W        W42051  20.767  33.767  25.848  0.3212 -0.1240 -0.1645
23305W        W42052  34.321   2.380  26.177  0.3420 -0.3718 -0.2484
23306W        W42053   4.902   8.982  24.851  0.2667 -0.1558 -0.0693
23307W        W42054  11.471  27.481  16.712 -0.3267  0.0041  0.1053
23308W        W42055  17.481  15.417  23.445  0.1320 -0.2252  0.1225
23309W        W42056  30.481  27.212  26.171 -0.2677 -0.4863  0.0577
23310W        W42057   3.511  30.439   9.022  0.0026  0.1262  0.3080
23311W        W42058   5.468  22.154   6.723  0.1222  0.0663 -0.1689
23312W        W42059  20.354  13.177  22.019  0.1880  0.3634 -0.4251
23313W        W42060   0.777  16.069   0.256 -0.0397  0.3372 -0.0035
23314W        W42061  28.693  29.519  18.057  0.2266  0.2117  0.0094
23315W        W42062  19.845  12.712  18.949  0.1730  0.0940 -0.0849
23316W        W42063   0.474   1.588  22.253  0.1450 -0.0499 -0.1822
23317W        W42064  23.628   1.065  22.371 -0.0833 -0.2123 -0.3458
23318W        W42065   9.669  35.038   6.442  0.2524  0.2614 -0.2570
23319W        W42066   3.127  20.310  20.868  0.0223 -0.0726  0.3753
23320W        W42067  27.523  29.011   2.019  0.1231 -0.0651 -0.0124
23321W        W42068   4.649  19.074   3.869 -0.0336 -0.3154 -0.0794
23322W        W42069   5.591  34.079   9.565 -0.2292 -0.0294 -0.2124
23323W        W42070  21.368  27.348   1.892 -0.2157  0.1370 -0.2103
23324W        W42071  14.455   6.514   0.377 -0.3521 -0.0725 -0.1680
23325W        W42072   9.068  35.129  13.541 -0.1593  0.0992 -0.1790
23326W        W42073  33.455   9.978  10.085  0.3635 -0.2852  0.0189
23327W        W42074  29.080   3.181  15.736  0.1994  0.2432  0.2622
23328W        W42075  24.843  23.367  14.881 -0.0861  0.1986  0.1402
23329W        W42076  29.963  31.921  22.648 -0.6374  0.0680 -0.0974
23330W        W42077  23.912   4.841   4.212 -0.2903 -0.0154  0.0568
23331W        W42078  10.822   1.139   2.321  0.1991 -0.0174 -0.1280
23332W        W42079   5.636  28.548  21.057  0.1607  0.2347  0.1665
23333W        W42080   5.818   8.350   5.836  0.3407 -0.2073  0.0149
23334W        W42081   2.641  18.808  22.255  0.0165 -0.2062  0.1084
23335W        W42082   7.966  17.092  25.343 -0.3564 -0.0068 -0.0125
23336W        W42083   4.494  14.929  20.095  0.1745 -0.0486 -0.0607
23337W        W42084  16.819  26.123  21.652 -0.0370  0.1276  0.0535
23338W        W42085  29.991  15.237  25.493  0.0051  0.0154  0.1018
23339W        W42086   1.173   9.676   3.207 -0.0006 -0.0605  0.1144
23340W        W42087  10.215   5.214  21.814  0.2176  0.0193 -0.0143
23341W        W42088  20.679  26.340  18.944  0.1062  0.0926 -0.2065
23342W        W42089  14.934  26.972  16.427 -0.5117  0.0064  0.0660
23343W        W42090   6.764  29.388  11.638  0.0598 -0.0569 -0.2491
23344W        W42091  21.661  13.774  16.868  0.0434  0.1455 -0.2436
23345W        W42092   0.356   8.410  25.584 -0.0775  0.1082  0.0914
23346W        W42093  28.119  29.987  15.404 -0.3128 -0.1613  0.0840
23347W        W42094  22.877  15.570  24.903  0.0461  0.0744 -0.1834
23348W        W42095  17.393  26.023  11.847  0.1509 -0.2788  0.0692
23349W        W42096   9.531  23.194   3.420 -0.0522 -0.0438  0.1096
23350W        W42097  33.199  26.963  14.901  0.1419  0.1340  0.1888
23351W        W42098   5.120  21.096  19.778 -0.0631  0.0908 -0.2780
23352W        W42099  32.295  19.150   4.480  0.0313  0.0990 -0.0955
23353W        W42100  33.884   5.972  24.731 -0.0196  0.0223 -0.0523
23354W        W42101  19.020  26.395  25.494 -0.0277  0.1389 -0.0536
23355W        W42102  14.320   1.190   6.391  0.0760 -0.0455 -0.2286
23356W        W42103   9.866   6.301  24.809  0.0192  0.0776  0.1883
23357W        W42104  20.745   1.489   5.526  0.0228 -0.2679  0.0119
23358W        W42105   0.729   6.983  19.567  0.2168 -0.2301  0.2428
23359W        W42106  13.421  29.957  13.052 -0.1650  0.1370  0.1398
23360W        W42107  24.780  16.172  25.793  0.0305 -0.0886 -0.1017
23361W        W42108  20.073   1.128  22.496  0.3807  0.0716  0.2322
23362W        W42109  10.409  17.958  12.628 -0.1855 -0.1831 -0.1819
23363W        W42110  34.565  24.322  23.188  0.1037 -0.2378  0.0111
23364W        W42111  29.020   9.076  11.040 -0.0022 -0.0316  0.2329
23365W        W42112  14.053   9.307   3.825 -0.1023 -0.2050 -0.2760
23366W        W42113  26.503  17.993  21.383 -0.0567 -0.2571  0.0296
23367W        W42114  20.005  31.890  25.896  0.0049  0.1458  0.1920
23368W        W42115   1.452   7.833  21.563  0.2822  0.0121  0.0056
23369W        W42116   0.290  29.804   8.200  0.0921 -0.0398 -0.1066
23370W        W42117   9.900   4.851   3.800 -0.0759  0.0676  0.1313
23371W        W42118  34.955  29.469   6.158 -0.0132 -0.1730  0.0356
23372W        W42119  19.581   3.988   9.926 -0.2071  0.0139  0.3700
23373W        W42120  18.689  17.543  23.857  0.1372  0.1544  0.0157
23374W        W42121  29.431  27.157  18.576 -0.1320 -0.0348 -0.0921
23375W        W42122  16.994   3.376  23.325  0.0224 -0.3395 -0.2083
23376W        W42123  18.421  15.668   8.090 -0.1046  0.0520 -0.0984
23377W        W42124   9.386  11.829   3.448  0.0088  0.0797 -0.1112
23378W        W42125  13.100  21.591  13.001  0.1874  0.0991 -0.1433
23379W        W42126  10.798  25.400  14.632  0.1396  0.0849 -0.0562
23380W        W42127  20.022  32.008   3.036 -0.4671 -0.2006  0.4792
23381W        W42128  17.565   3.810  18.772 -0.1693  0.0134  0.0021
23382W        W42129   3.104  15.178  24.875  0.1225 -0.3433  0.0928
23383W        W42130  22.988  31.284   2.217 -0.3360  0.2198 -0.0520
23384W        W42131   4.919   3.766  24.979 -0.3767 -0.2195  0.0448
23385W        W42132  24.189   9.118  18.967 -0.1191 -0.2282 -0.3034
23386W        W42133  32.764  27.898  25.213 -0.1879  0.1809 -0.1222
23387W        W42134  19.996  24.142   3.237 -0.2062 -0.0768 -0.2298
23388W        W42135   1.186  21.371  17.611 -0.2895  0.0713 -0.1090
23389W        W42136   2.798  18.271  24.117 -0.2815 -0.0080  0.1640
23390W        W42137  23.463   8.124  17.772 -0.2491 -0.0665  0.1928
23391W        W42138  16.282  33.077   2.357 -0.1049  0.1061 -0.0838
23392W        W42139   7.837   4.457  25.844 -0.2470 -0.0927 -0.2372
23393W        W42140  24.442   6.245  23.952  0.2154  0.1945  0.0498
23394W        W42141   6.747   1.159   0.944 -0.1304  0.0255  0.0689
23395W        W42142   6.228  19.580  23.881 -0.0667 -0.1210  0.0257
23396W        W42143  16.595   7.092   2.008  0.3238  0.2918 -0.2626
23397W        W42144  29.079   8.843  25.684 -0.0147  0.2501 -0.1119
23398W        W42145  21.083   3.303  24.392  0.2010 -0.0767 -0.0494
23399W        W42146  12.378  24.808   9.754  0.4753  0.3303 -0.3094
23400W        W42147  29.600  33.546  12.243 -0.1031 -0.0971 -0.0255
23401W        W42148   3.312  18.760  19.335 -0.2567 -0.2640  0.1102
23402W        W42149   9.883   0.287  12.040 -0.0990 -0.0791  0.2002
23403W        W42150   1.810  24.357  20.752  0.0399 -0.0178 -0.1034
23404W        W42151  20.033  31.183   4.098  0.0550 -0.3175  0.2545
23405W        W42152   6.632   9.940  25.104 -0.3108 -0.0532  0.1943
23406W        W42153   2.684   5.334   4.247  0.1051  0.0137 -0.1048
23407W        W42154  21.140   8.676   1.768 -0.0093 -0.2644  0.1466
23408W        W42155   3.758  32.827  19.135 -0.2082 -0.1484 -0.1355
23409W        W42156  26.049  14.799   9.202 -0.0395 -0.1251 -0.1255
23410W        W42157   6.608  24.789  26.114  0.2192  0.2375 -0.0935
23411W        W42158   8.194  13.427  21.307 -0.4213 -0.3662 -0.1401
23412W        W42159   8.836  19.945  25.504  0.2572  0.0143  0.2348
23413W        W42160  29.599  23.521  24.595 -0.0672  0.3144  0.0745
23414W        W42161  19.604   0.763   7.471 -0.1096  0.0465 -0.1554
23415W        W42162  19.450  31.190  20.238  0.0873 -0.1339 -0.0025
23416W        W42163  23.383  20.000  17.844  0.0168 -0.0289  0.4042
23417W        W42164  10.036   2.554   1.539 -0.1430 -0.0302 -0.2567
23418W        W42165   6.694  12.425   4.717  0.1233 -0.1620 -0.0738
23419W        W42166  19.642  17.939   7.578  0.0073  0.0469 -0.0509
23420W        W42167   1.776  14.608  25.735  0.0028 -0.2783 -0.0515
23421W        W42168   1.354  30.867   7.212 -0.1567  0.1011  0.3554
23422W        W42169  18.006   1.559  23.107 -0.1369 -0.1278  0.2034
23423W        W42170   8.048  24.323  26.160 -0.1991  0.4221 -0.0935
23424W        W42171  21.866  34.670  13.473 -0.0684 -0.0186 -0.1590
23425W        W42172  30.198   6.940  11.133  0.1129  0.1022  0.0910
23426W        W42173   4.198   5.408  25.473  0.2613 -0.1938 -0.0088
23427W        W42174   9.833   1.772   8.164 -0.0025 -0.0109  0.3063
23428W        W42175  30.872  16.202  25.082  0.0203  0.1512  0.1136
23429W        W42176  15.762   4.343  21.143 -0.1058  0.3997  0.0976
23430W        W42177   1.038   1.414   7.811  0.1194  0.0953 -0.0220
23431W        W42178   6.880  32.475  22.662  0.2126 -0.0259 -0.1684
23432W        W42179  12.509   9.415  14.137  0.1684  0.0005 -0.1004
23433W        W42180   4.733   0.106   2.418 -0.2502  0.0060  0.2905
23434W        W42181   4.393   9.755  20.232 -0.0389 -0.2453 -0.0207
23435W        W42182  10.018  14.222   6.797  0.2120 -0.0521  0.0491
23436W        W42183   9.387   8.225   4.986  0.0252 -0.0195  0.2004
23437W        W42184  29.800  11.426  14.648  0.1535  0.0066  0.2579
23438W        W42185   1.279  21.198  25.292 -0.1041  0.3028  0.0640
23439W        W42186  18.803   8.824   0.869  0.1614 -0.1169 -0.2825
23440W        W42187  26.800  30.910  12.002 -0.0021  0.0095 -0.2940
23441W        W42188  23.737   0.846  16.618  0.3443  0.0298  0.2285
23442W        W42189   1.841  17.224   3.094 -0.0898  0.1297  0.0421
23443W        W42190  22.814   8.737  25.735  0.0202  0.0848  0.3531
23444W        W42191  27.486  26.877  11.798  0.3200  0.2512  0.2855
23445W        W42192  33.254  19.275  21.501  0.0314 -0.3121 -0.1091
23446W        W42193   8.608  29.769   6.717  0.2784 -0.6135 -0.0015
23447W        W42194  30.289  23.439   7.620  0.2694  0.4739 -0.1704
23448W        W42195  14.802  19.701  14.853 -0.0068  0.1080  0.0459
23449W        W42196   7.254  28.024   2.852  0.2586  0.0843 -0.4585
23450W        W42197  14.625  35.073  24.054 -0.0982 -0.2485 -0.0021
23451W        W42198   3.735  19.029  14.810 -0.2100 -0.3659 -0.2313
23452W        W42199  18.020  31.485  26.220 -0.0295 -0.0544 -0.1032
23453W        W42200   6.010   0.204   7.444  0.2213  0.0474  0.3530
23454W        W42201  17.469   6.606  18.028  0.0386 -0.2637 -0.1828
23455W        W42202  28.311  25.492  14.668 -0.0333  0.0386 -0.0161
23456W        W42203  13.576  26.966   2.622 -0.0639 -0.2260  0.2749
23457W        W42204  27.607  24.481  16.366 -0.2423 -0.1244 -0.0259
23458W        W42205   7.941  19.562   2.808  0.3516 -0.1632 -0.0659
23459W        W42206  13.555  28.743   6.120  0.2249  0.0353 -0.0455
23460W        W42207  16.809  12.229  10.110  0.0745 -0.0768 -0.0827
23461W        W42208  28.449  25.175  15.120  0.0273  0.1053  0.2825
23462W        W42209  17.774   6.400   7.698  0.0111  0.1763 -0.3687
23463W        W42210  25.051  30.385  22.026  0.0908  0.1984  0.1262
23464W        W42211  13.278  23.195   5.021 -0.0922 -0.1383 -0.3628
23465W        W42212  15.481  28.606  23.212  0.0431  0.0075 -0.0423
23466W        W42213  15.817  30.063   4.146  0.0718 -0.0571 -0.0382
23467W        W42214  26.394  13.886  21.950 -0.0904  0.2391 -0.1241
23468W        W42215  10.077  21.086   8.436  0.1144 -0.1543  0.2101
23469W        W42216   9.054   2.645   9.950  0.1113  0.3947  0.1343
23470W        W42217  34.982   2.266  17.882 -0.0078  0.0801 -0.1275
23471W        W42218   6.131  15.885   2.189 -0.0395  0.4118 -0.3332
23472W        W42219  33.244  24.930  12.510  0.0806  0.0236 -0.0614
23473W        W42220  22.705  16.854  18.305 -0.1144 -0.1910  0.3537
23474W        W42221  11.393  22.911  14.580  0.1242 -0.1055 -0.1541
23475W        W42222  33.697  32.712   4.721  0.1186 -0.0651  0.1546
23476W        W42223  30.135  22.468   5.940 -0.1659 -0.1154  0.0773
23477W        W42224  13.792   3.275   9.350 -0.0625 -0.1066 -0.0686
23478W        W42225   5.639  24.084   7.042  0.0313  0.1126 -0.1671
23479W        W42226   2.320  29.812  26.187  0.1851 -0.3011 -0.2407
23480W        W42227  13.372  23.164   2.426  0.0008  0.0390  0.1082
23481W        W42228  21.203   1.899  25.436 -0.0759 -0.0594 -0.2788
23482W        W42229   0.873   8.619  12.689 -0.2633 -0.2136 -0.1786
23483W        W42230   0.737  33.330   1.184  0.1340 -0.1778 -0.1263
23484W        W42231   8.982  24.163   6.119 -0.1475  0.0888  0.2559
23485W        W42232  34.225  15.105  13.516  0.2184  0.0444 -0.0445
23486W        W42233   9.492  33.327  24.485  0.0405  0.0358  0.0233
23487W        W42234  30.520  19.340  15.016  0.4260  0.0737  0.1236
23488W        W42235   9.580  18.166  24.780 -0.4648  0.0273 -0.2094
23489W        W42236  11.031  27.640   0.262  0.0908 -0.1805 -0.0085
23490W        W42237  34.403  13.560  21.280  0.2547 -0.0867 -0.0121
23491W        W42238  11.513  22.780  22.067 -0.0061  0.2083 -0.0577
23492W        W42239  15.378  18.520  20.577  0.0037  0.1196  0.2088
23493W        W42240  14.443  15.805  24.622  0.0040 -0.2947 -0.1382
23494W        W42241  12.623  28.170   5.026  0.1482 -0.0725  0.3056
23495W        W42242  27.679  18.019  23.110  0.0602  0.1720 -0.0413
23496W        W42243  24.881   3.690   2.552 -0.1687  0.2319  0.0371
23497W        W42244  19.259  31.535   6.502 -0.0295  0.0490 -0.1707
23498W        W42245  11.099   2.762   5.690 -0.1449  0.2508  0.3825
23499W        W42246   6.813  30.810   2.841  0.3487  0.0098 -0.4068
23500W        W42247  32.102  34.474   5.187 -0.1381  0.0228 -0.1969
23501W        W42248   3.484  16.598  17.209  0.0872  0.1702 -0.1652
23502W        W42249   3.042  28.856  19.564 -0.0504 -0.0532 -0.2305
23503W        W42250  25.378   4.658  17.581  0.1817  0.0916  0.1309
23504W        W42251  33.033  34.302  16.014  0.2333  0.0497  0.1454
23505W        W42252  23.712  20.073  25.293  0.1070 -0.0327 -0.1399
23506W        W42253  18.480  15.401   9.986 -0.1524 -0.0698 -0.3390
23507W        W42254   9.469  17.398  25.780 -0.1255 -0.2152  0.1822
23508W        W42255  19.978  29.721  26.145 -0.2082 -0.2764 -0.2092
23509W        W42256  31.127  12.118  11.160 -0.2633 -0.2821 -0.0311
23510W        W42257   8.074  13.158   1.873 -0.1104 -0.1967  0.2606
23511W        W42258  27.118  13.503  23.059 -0.2133 -0.0422  0.1099
23512W        W42259  33.375   3.714  24.736 -0.1433 -0.1999  0.0754
23513W        W42260  17.182   5.575  18.198 -0.0724 -0.2295  0.1009
23514W        W42261  10.016  20.430   5.916  0.0350 -0.1777 -0.0931
23515W        W42262  21.083  20.385  24.409  0.2158 -0.1979 -0.0831
23516W        W42263   2.015   6.240  18.204  0.3941 -0.0024 -0.4947
23517W        W42264  21.696  32.446   4.677 -0.2608 -0.0549 -0.0488
23518W        W42265  25.721  17.094  22.164  0.1935 -0.1621  0.2190
23519W        W42266  27.368  19.764  22.712  0.0827 -0.1621  0.1454
23520W        W42267  30.147  14.830   9.449  0.2001  0.0152  0.1336
23521W        W42268   2.965  27.922   5.994  0.4644 -0.1734  0.0624
23522W        W42269  21.698   4.927  18.036 -0.2700  0.3328 -0.1010
23523W        W42270  28.833  31.335   0.188 -0.1545 -0.1678 -0.0276
23524W        W42271  11.056   7.459   2.215  0.3220  0.0288 -0.0853
23525W        W42272   6.111  25.809   4.927 -0.2158 -0.0615 -0.0920
23526W        W42273  28.767  13.146  15.720  0.0599  0.1023 -0.0684
23527W        W42274   8.244  18.060  24.445 -0.2772 -0.0015 -0.0016
23528W        W42275  31.006  16.043   9.263 -0.0621  0.0781  0.1576
23529W        W42276  29.830  20.959   7.012  0.0008 -0.2247 -0.2296
23530W        W42277  30.727  10.735  18.449  0.0010  0.0274 -0.1136
23531W        W42278  25.137   2.256  20.555  0.2876  0.0030 -0.1619
23532W        W42279   5.355   1.414   3.864 -0.0380  0.1061 -0.0583
23533W        W42280   6.034   6.626   3.962 -0.0807  0.1694  0.1101
23534W        W42281   1.766   4.525  21.548 -0.1869  0.0365  0.2992
23535W        W42282  17.971  19.229   8.035 -0.0075  0.1768  0.0239
23536W        W42283   2.401   8.476  24.558 -0.1375  0.1690  0.4679
23537W        W42284  33.753   1.565  18.706 -0.2745  0.0807  0.3195
23538W        W42285  12.378  22.830  17.258 -0.1506 -0.0615  0.3308
23539W        W42286  21.254   9.284   5.184 -0.0658 -0.1162  0.0301
23540W        W42287  11.053   5.087  24.921  0.4401  0.1811  0.0635
23541W        W42288   2.941   5.615   6.446 -0.2185 -0.1266 -0.0080
23542W        W42289   7.165  16.411  25.084 -0.3001  0.0827  0.0029
23543W        W42290  17.051  12.083  11.281 -0.2327 -0.0530 -0.2828
23544W        W42291  26.137  13.203  12.326  0.0136 -0.1346  0.0718
23545W        W42292  28.274  32.125  17.994  0.0284  0.3000 -0.1297
23546W        W42293  26.696  22.759  18.592  0.0027 -0.1381 -0.0422
23547W        W42294  33.616   8.622  21.752 -0.3248 -0.1271  0.2045
23548W        W42295  25.066   6.898  12.768 -0.0948 -0.2268  0.0515
23549W        W42296  24.497  29.960  10.893 -0.0445 -0.0109 -0.2572
23550W        W42297  22.348  26.613  20.300  0.0718  0.0182  0.0292
23551W        W42298  12.596  25.043   1.493 -0.2621 -0.1541 -0.2455
23552W        W42299  30.414   7.998  15.190 -0.1273 -0.1253  0.1897
23553W        W42300   6.892  30.827  21.894 -0.3511  0.3505  0.0514
23554W        W42301   9.942  27.667  11.797 -0.0349 -0.0096  0.0008
23555W        W42302  19.229  27.964   7.873  0.4430 -0.4868 -0.1746
23556W        W42303   3.331  21.738  25.041 -0.1296  0.0267 -0.1103
23557W        W42304  13.418  33.541  24.302  0.3015  0.0886  0.0034
23558W        W42305   0.271  24.867  19.338  0.2363 -0.1326  0.0412
23559W        W42306  18.852  33.381   5.778 -0.1638 -0.4062  0.1695
23560W        W42307   2.736  21.239  22.163  0.6660  0.2985 -0.0465
23561W        W42308  16.633  18.933  20.884  0.3289 -0.0758  0.1198
23562W        W42309  10.075  22.634  11.907 -0.3046 -0.0323  0.1084
23563W        W42310  31.653  15.110  25.494 -0.0092 -0.1810  0.1498
23564W        W42311  17.325   7.536  20.133 -0.0715  0.0973 -0.0208
23565W        W42312  32.352  32.762  17.642 -0.2896  0.0392  0.0347
23566W        W42313  34.572   4.132   0.748 -0.3516  0.0561 -0.2400
23567W        W42314   4.424  20.142  17.151 -0.0101 -0.1075 -0.1672
23568W        W42315   4.932  10.187   8.058 -0.0743 -0.2234 -0.3462
23569W        W42316  10.530  28.929   8.265  0.0205 -0.1063  0.1809
23570W        W42317  32.472  18.827  13.050 -0.1149  0.2112 -0.1520
23571W        W42318  29.504  24.988  14.993  0.1702  0.1583  0.2582
23572W        W42319  33.332   6.943   1.485  0.1085  0.0364  0.4145
23573W        W42320  11.101   8.550   1.460 -0.1156  0.2022 -0.4348
23574W        W42321  10.471   2.627  25.186 -0.1866 -0.0132  0.2118
23575W        W42322   2.401   1.731  17.311  0.0266 -0.3372 -0.2382
23576W        W42323  18.448   9.370  20.774 -0.2250  0.4092  0.2750
23577W        W42324   5.563  27.240  24.801 -0.1672  0.1011 -0.1329
23578W        W42325  17.193  35.360   4.320 -0.0478 -0.0835  0.2628
23579W        W42326  10.925   9.114   3.755 -0.0688 -0.0204 -0.1452
23580W        W42327  14.643  27.597  13.437 -0.0570 -0.0952 -0.1366
23581W        W42328   7.467   9.553   8.640  0.1473 -0.0492  0.1360
23582W        W42329  24.932  19.131  13.047 -0.0525  0.1637  0.0229
23583W        W42330   0.452   1.945   3.502 -0.0716  0.1847 -0.3025
23584W        W42331  30.813  22.213  18.401  0.1714  0.0541 -0.2759
23585W        W42332   9.944   8.888  20.827  0.1919 -0.0564 -0.1134
23586W        W42333  27.228   5.497  22.636  0.2004  0.2629 -0.2382
23587W        W42334  29.069  34.068   0.853  0.0907 -0.0240 -0.0709
23588W        W42335   8.036  27.019   0.432 -0.0419 -0.1250  0.0801
23589W        W42336   1.732   3.757   7.105  0.3095  0.4317 -0.2865
23590W        W42337  16.639  21.043  23.074  0.1065 -0.0223  0.0248
23591W        W42338  23.451  29.712  18.235 -0.1258 -0.0237 -0.1870
23592W        W42339  17.625  17.688  10.166  0.0041 -0.0561 -0.0271
23593W        W42340  10.265  13.750  23.472 -0.0107  0.0781 -0.2978
23594W        W42341  11.525  18.511  24.281  0.1182  0.0284 -0.4118
23595W        W42342  23.843   7.371  22.445  0.1461  0.0333  0.4919
23596W        W42343  24.993   8.079  13.076  0.0583  0.3601 -0.0434
23597W        W42344   1.076  32.258  19.580 -0.2524  0.1558 -0.0023
23598W        W42345  21.447  32.476  17.222 -0.1255 -0.0040 -0.2067
23599W        W42346   3.151  26.602  24.588  0.2475 -0.0561  0.2204
23600W        W42347  15.156  19.301  25.089  0.1729  0.1959  0.1999
23601W        W42348  16.017   2.726   3.689  0.1557 -0.0825 -0.0472
23602W        W42349  35.298   1.355  24.333  0.1102  0.0358 -0.2234
23603W        W42350   5.213  11.325  25.816  0.0679  0.1121 -0.2674
23604W        W42351  14.278  23.589  25.762 -0.3190 -0.0589 -0.2643
23605W        W42352  25.781  32.252   0.990  0.2285  0.0637 -0.0043
23606W        W42353   3.435   5.762   4.021 -0.1850  0.0010 -0.0094
23607W        W42354  19.750  32.408   4.778  0.3423 -0.1496 -0.2052
23608W        W42355   3.228   1.304   9.046  0.3468  0.1580  0.0621
23609W        W42356  24.205  28.650  10.313 -0.1056  0.0982 -0.0292
23610W        W42357  26.435  33.664   2.510 -0.4592  0.1484  0.1481
23611W        W42358  28.103  17.410  19.701  0.0857 -0.3529  0.1576
23612W        W42359   6.641  24.180  13.059 -0.0564  0.2664 -0.3408
23613W        W42360   6.188  19.582   4.049 -0.0571  0.1722  0.0188
23614W        W42361  30.933   1.706  22.879  0.1928  0.1542  0.1889
23615W        W42362   2.760  25.537  19.849  0.1291  0.3129  0.1499
23616W        W42363  19.404  12.547   5.382 -0.0641  0.0956 -0.0315
23617W        W42364  32.955  24.514  17.057 -0.0255 -0.2679 -0.3455
23618W        W42365  25.810   3.557  25.355 -0.0301 -0.0931 -0.0153
23619W        W42366  34.588  23.311   9.546  0.4131 -0.1850 -0.1724
23620W        W42367   0.836  27.072   0.551  0.4669 -0.1150  0.2929
23621W        W42368   8.927  25.961  17.488  0.0891  0.1339  0.2626
23622W        W42369  13.813   1.605   7.873  0.1565 -0.3831  0.1547
23623W        W42370   8.048  17.080  19.432 -0.2695 -0.1427 -0.2401
23624W        W42371  15.533   3.096  24.993 -0.0972  0.0189 -0.3559
23625W        W42372  14.591  29.717  10.313  0.1396  0.0319 -0.0311
23626W        W42373  12.914  19.700   6.914  0.0566  0.1579  0.0012
23627W        W42374  33.736  10.486  18.739  0.2349  0.3660  0.3235
23628W        W42375  33.563  12.236   9.279  0.0705  0.0442 -0.0477
23629W        W42376  13.918  13.762   7.822 -0.0333 -0.0900  0.3879
23630W        W42377   1.933   8.279   3.628  0.0567 -0.2111 -0.1988
23631W        W42378   7.430  33.775  21.057 -0.2323  0.3014 -0.1110
23632W        W42379  31.702   6.220  16.340  0.2764  0.3286  0.1214
23633W        W42380  13.554  12.312  24.085 -0.1719 -0.0921 -0.2273
23634W        W42381  12.638  29.931   6.154 -0.2871 -0.0805  0.1301
23635W        W42382  24.178  18.967  24.625 -0.0696  0.1912  0.1536
23636W        W42383  22.163   3.216   2.702  0.1829  0.0659  0.1949
23637W        W42384   8.954  20.797   5.115 -0.2726  0.0357 -0.2915
23638W        W42385  14.668  30.672   8.078 -0.2057 -0.1762 -0.0768
23639W        W42386  30.182   9.593  16.297  0.3012 -0.1424  0.2050
23640W        W42387  22.771  33.625   3.475 -0.0641 -0.0210 -0.3219
23641W        W42388  23.477  34.169   0.442 -0.1012 -0.1321  0.4437
23642W        W42389  11.686  21.595   9.320 -0.0205 -0.0649 -0.1034
23643W        W42390  26.709  12.410  25.841  0.1188 -0.4656  0.0220
23644W        W42391  29.152   5.260  12.256 -0.3759 -0.2279 -0.0882
23645W        W42392  29.506  29.230  18.100 -0.2605  0.4818  0.2416
23646W        W42393  14.838  26.862  10.971  0.0742  0.0822  0.0980
23647W        W42394  21.739  20.039  16.705  0.1060  0.0132 -0.2602
23648W        W42395  21.553   0.176   8.369 -0.0638 -0.0025 -0.0058
23649W        W42396  20.574  27.420  16.347  0.1832 -0.3608  0.0119
23650W        W42397  23.610   0.715  14.742 -0.2454  0.0597 -0.3294
23651W        W42398  27.955  28.796   0.403 -0.1242  0.1443  0.4628
23652W        W42399  29.123  34.298  14.382  0.0341 -0.0647  0.0823
23653W        W42400  33.697  19.618  18.021 -0.0313 -0.0840  0.0948
23654W        W42401  29.806  16.161  10.641  0.2739  0.1022 -0.2048
23655W        W42402  19.848   9.806  24.832  0.0161  0.0837  0.0122
23656W        W42403  25.053  22.875  18.689 -0.0842  0.0501 -0.1129
23657W        W42404   8.740  21.486   2.209 -0.0557  0.3831 -0.2377
23658W        W42405  11.076  13.718  24.157 -0.1189 -0.0667 -0.1063
23659W        W42406  30.801  26.515  23.039  0.1073 -0.0423  0.1170
23660W        W42407  35.355   3.296  19.322 -0.0606 -0.0935  0.1219
23661W        W42408  27.195  17.986  24.590 -0.1596 -0.1814  0.3325
23662W        W42409  26.101  25.393  15.031  0.1079 -0.0782 -0.0619
23663W        W42410  29.881  16.491  24.594  0.4984 -0.0412 -0.0088
23664W        W42411   4.617   5.604  25.692 -0.0150 -0.2090 -0.0680
23665W        W42412  13.134  21.204  17.180  0.0205  0.0920 -0.3020
23666W        W42413  22.212   3.928  22.823  0.0478  0.0953  0.1090
23667W        W42414  13.283  27.257  15.775 -0.2847 -0.0312  0.1204
23668W        W42415  11.780   7.938  25.506 -0.1640  0.1995 -0.1767
23669W        W42416  25.710  28.371  25.402 -0.2284 -0.2119 -0.0242
23670W        W42417  28.787  33.990   2.328 -0.1178 -0.1835 -0.2215
23671W        W42418  26.702   3.642  18.150 -0.2284 -0.3033  0.1139
23672W        W42419  17.475   1.959  25.678  0.1250 -0.2226  0.0240
23673W        W42420  16.072  32.026   4.567 -0.0457  0.0334  0.0883
23674W        W42421   1.062   9.706  25.396  0.4324 -0.1346 -0.2379
23675W        W42422  28.164   2.226  19.214  0.1305 -0.0158 -0.0469
23676W        W42423  24.714  26.052  21.984  0.1188 -0.1434 -0.2511
23677W        W42424   6.658  21.889   5.269  0.1344 -0.0256 -0.0994
23678W        W42425  10.777  23.423   4.179 -0.0326 -0.3391  0.1427
23679W        W42426   1.213   9.092  14.804 -0.1042 -0.0908  0.1683
23680W        W42427   7.120   0.731   4.275 -0.1381 -0.0702 -0.1300
23681W        W42428  31.447  16.597  12.416 -0.1104  0.3244  0.1267
23682W        W42429  31.313  31.967   4.498  0.4789  0.0300  0.2597
23683W        W42430  19.632  20.375  19.783 -0.1094 -0.3125 -0.0501
23684W        W42431  13.156  19.532  14.268  0.1291 -0.0275 -0.4932
23685W        W42432  29.099  19.542   4.788  0.2177  0.0376 -0.0193
23686W        W42433  32.511  29.149   5.959  0.0464  0.1294  0.1264
23687W        W42434  10.033  30.345  15.363 -0.0043  0.3905  0.2575
23688W        W42435   4.110  28.122  21.842  0.3452  0.0970  0.1132
23689W        W42436   6.296  18.369  23.500 -0.1232  0.3844  0.0122
23690W        W42437  21.034  11.446   3.963 -0.0994 -0.0370  0.2133
23691W        W42438   5.268   6.304  25.531  0.1995 -0.2360  0.0427
23692W        W42439  16.834  34.456   0.845  0.3593  0.3185  0.2736
23693W        W42440  16.224  23.335  11.119  0.3392  0.1545 -0.1430
23694W        W42441  32.430  21.116  13.479 -0.0314 -0.1591 -0.0001
23695W        W42442   8.368  18.470  25.488 -0.1930 -0.0777  0.3180
23696W        W42443  17.512  10.302   9.984  0.1329  0.0118  0.3002
23697W        W42444   6.635  19.764  22.189  0.1666 -0.2774  0.2179
23698W        W42445   3.573  20.028  18.837  0.0529 -0.1378  0.2417
23699W        W42446   7.672  27.740  21.745 -0.0827 -0.1141 -0.0588
23700W        W42447  13.156   2.406  22.909  0.4078 -0.3140 -0.0276
23701W        W42448  18.829  12.964   2.155 -0.2084  0.2433  0.1592
23702W        W42449  32.448  21.857  23.034 -0.1463  0.0231  0.0281
23703W        W42450  11.719  16.988   0.759 -0.1536  0.1314 -0.2089
23704W        W42451  28.436  12.612  17.728 -0.0672 -0.4215  0.0222
23705W        W42452  26.899  17.699  25.780  0.1212  0.1731  0.1373
23706W        W42453   9.477  13.924   4.490  0.0069  0.0855  0.1534
23707W        W42454  34.200  14.946  17.077  0.1119 -0.0252 -0.1373
23708W        W42455  21.826  28.928  16.966  0.0395  0.3418 -0.2305
23709W        W42456  27.350   4.654  16.131  0.0151 -0.1966 -0.2014
23710W        W42457   0.232  34.311  16.526 -0.3520  0.1821  0.0593
23711W        W42458   5.512   6.394   7.485  0.2200 -0.1219  0.2812
23712W        W42459  17.931   3.337  23.454 -0.0292 -0.4094 -0.3223
23713W        W42460   7.662  20.418  25.772 -0.0808  0.2444  0.0450
23714W        W42461  26.994  12.027  20.397  0.1914 -0.0574 -0.0064
23715W        W42462   3.620   0.495  17.986 -0.0917 -0.1015 -0.2833
23716W        W42463  33.919  18.662  21.638 -0.0705  0.2173  0.0689
23717W        W42464  34.097  18.104  24.100  0.1237 -0.1826 -0.0003
23718W        W42465  28.351  34.242  13.518  0.0385 -0.0910  0.0944
23719W        W42466  15.760  15.309  23.254 -0.4082  0.2206  0.1397
23720W        W42467  28.543   2.389  17.423  0.3576  0.0360 -0.1319
23721W        W42468   8.812  11.165  23.958  0.1692 -0.3476 -0.0682
23722W        W42469   8.763  32.103  23.727  0.1264 -0.3396 -0.0186
23723W        W42470  21.890   3.411  19.584  0.1288  0.0930  0.1264
23724W        W42471  31.346   8.139   1.011 -0.0291 -0.2683 -0.4356
23725W        W42472  26.504  18.439  25.637 -0.2919  0.0620 -0.1857
23726W        W42473   4.836  27.599   7.651 -0.1323  0.0692  0.0962
23727W        W42474  31.164  25.835  25.849 -0.0498  0.4820 -0.0376
23728W        W42475   1.498  26.401   7.177 -0.0142  0.1298 -0.3919
23729W        W42476  13.846  33.296   5.494 -0.0055  0.0541  0.2651
23730W        W42477  30.544   7.663   0.844 -0.2253  0.1282  0.1685
23731W        W42478  33.721   4.821  26.196  0.1687  0.3143 -0.0976
23732W        W42479  25.849  32.240  11.912  0.3492 -0.1679  0.2977
23733W        W42480  16.508  14.386   6.025 -0.0725  0.2436  0.0023
23734W        W42481  30.204   0.954  20.943  0.0741  0.2361  0.3327
23735W        W42482   7.430  35.317  22.068 -0.1570 -0.1422  0.2195
23736W        W42483  25.320  32.305  18.697  0.0795  0.1344  0.2708
23737W        W42484  11.470  21.840   0.129  0.1302  0.1643  0.2904
23738W        W42485  19.777   1.740  16.509 -0.0841 -0.0191  0.1588
23739W        W42486  33.106   4.381   3.851 -0.1619 -0.0733  0.1337
23740W        W42487  32.720  12.751  15.652 -0.2337 -0.0585  0.2748
23741W        W42488   6.611  32.443  22.059  0.4004  0.3362 -0.1978
23742W        W42489  29.297   3.987  21.172 -0.0284  0.1884  0.1161
23743W        W42490  19.467  13.849   7.916  0.1708  0.0872 -0.1682
23744W        W42491  19.475  29.384  23.667  0.0086  0.0786 -0.1927
23745W        W42492  22.531  22.485  22.562 -0.1514  0.3462  0.0786
23746W        W42493  13.476  24.091   2.931  0.3001 -0.2019  0.2196
23747W        W42494  27.446  16.210  14.511  0.0118  0.5630  0.1698
23748W        W42495   2.419  34.066   4.973 -0.1314 -0.1153 -0.1711
23749W        W42496  28.856  29.074  17.218  0.0660 -0.2618 -0.0687
23750W        W42497   7.231   7.157  18.102 -0.0032  0.0692  0.0947
23751W        W42498   8.257  17.740  22.276  0.0364 -0.0075  0.1819
23752W        W42499  22.158  23.579  18.619 -0.0493  0.0015  0.1887
23753W        W42500   8.374   3.174  25.007 -0.2314  0.3645  0.1729
23754W        W42501  32.741   1.436   4.376 -0.2791 -0.0308  0.2756
23755W        W42502  33.321  16.445  16.207  0.0969  0.1972 -0.0900
23756W        W42503   9.920  12.427  12.327  0.2112  0.0816 -0.2905
23757W        W42504  33.821  33.783  15.244 -0.2858 -0.2180 -0.1276
23758W        W42505  18.951  29.709   5.018 -0.1070  0.4191 -0.1432
23759W        W42506  11.716  24.128  17.830 -0.0876  0.2543 -0.0861
23760W        W42507  23.029  23.539  15.044 -0.2177 -0.0929 -0.0894
23761W        W42508  34.772  19.677  18.664 -0.3166  0.0083  0.4173
23762W        W42509  22.972  15.021   1.258 -0.1475  0.0251  0.0041
23763W        W42510   5.459  33.541  21.426 -0.0204  0.0806  0.2295
23764W        W42511  33.650  12.666  16.531  0.3527  0.0174  0.3260
23765W        W42512  28.824  18.852  17.862  0.1420 -0.1558 -0.1296
23766W        W42513  24.322  11.940  19.923  0.2364 -0.0616 -0.2813
23767W        W42514  29.305   6.367  26.053  0.3382 -0.3194 -0.2345
23768W        W42515  12.809   1.196   8.723  0.1051 -0.0045  0.2150
23769W        W42516   9.671  25.352   9.667 -0.0365 -0.0250 -0.0169
23770W        W42517  20.378   5.503   2.835 -0.0528 -0.0961  0.1392
23771W        W42518  16.156  32.473  25.607  0.0558 -0.0251  0.0030
23772W        W42519  32.311  21.302  22.081  0.0707  0.0029 -0.2302
23773W        W42520  32.890  14.462   9.315 -0.1581 -0.0209  0.0862
23774W        W42521  11.603  33.102   6.858 -0.2267  0.0775 -0.1794
23775W        W42522  17.123  31.347   7.378 -0.0555  0.0802  0.1625
23776W        W42523  29.906   2.697   4.057  0.2513 -0.3085 -0.2212
23777W        W42524  14.121  23.366  10.656  0.1507 -0.2669  0.1365
23778W        W42525  29.113  34.424   1.262  0.2286  0.1696  0.0967
23779W        W42526  27.771   0.478  12.859 -0.3592  0.1450 -0.2072
23780W        W42527  25.316  14.066  25.412 -0.0981 -0.0772 -0.0062
23781W        W42528  18.029  10.993  25.277 -0.0310 -0.1898 -0.0285
23782W        W42529   0.732   1.428  14.345  0.0230  0.3282 -0.0215
23783W        W42530  19.677   7.050   0.901  0.0091 -0.1267 -0.0698
23784W        W42531  28.089   0.489  23.036  0.0823  0.1625 -0.3732
23785W        W42532  18.182  25.700  20.222  0.0483 -0.0062 -0.1875
23786W        W42533  33.736  28.993   4.770 -0.1773  0.1257  0.2146
23787W        W42534  23.892   5.984  13.028 -0.1191  0.0181 -0.2788
23788W        W42535  33.061   0.120   1.676  0.1387 -0.5385  0.0053
23789W        W42536   9.440   9.217  19.466 -0.0022  0.0536 -0.0010
23790W        W42537   0.999   7.391  15.459 -0.3212 -0.2098  0.0804
23791W        W42538   8.546  17.129  22.780 -0.1284  0.0472  0.0054
23792W        W42539  20.281  22.414   6.043 -0.2150 -0.2538  0.0594
23793W        W42540  33.376  28.823  15.897  0.0152  0.2020  0.3076
23794W        W42541  20.294   0.331  25.789 -0.2541 -0.0239 -0.2281
23795W        W42542   8.401  34.964  14.476 -0.0174 -0.2387  0.1052
23796W        W42543  24.944  17.882  13.060  0.2958 -0.0186  0.1053
23797W        W42544  23.138   7.602   2.586  0.3275 -0.1451  0.1876
23798W        W42545  18.984  30.469   0.730  0.1657 -0.3102 -0.1660
23799W        W42546  24.416   6.723   3.144 -0.0959  0.0119  0.1998
23800W        W42547  30.202  31.623   6.605  0.0002  0.0384  0.4505
23801W        W42548  29.230  12.209   6.611 -0.0538  0.1278 -0.1471
23802W        W42549   7.008  11.481  19.148 -0.0395  0.6313 -0.0861
23803W        W42550  32.755  17.707   5.269  0.0259  0.1741 -0.0208
23804W        W42551  33.866  35.213   3.785 -0.1863 -0.2030 -0.0542
23805W        W42552  14.474  26.146  13.163  0.3700 -0.1096  0.0722
23806W        W42553  29.254  18.830  15.704  0.2000 -0.4414  0.0829
23807W        W42554  30.669   9.745  16.393 -0.1379 -0.2443 -0.0811
23808W        W42555  32.098  12.571  10.288 -0.2515 -0.0493  0.1180
23809W        W42556  33.204  20.024  22.547 -0.0464  0.0850  0.1619
23810W        W42557  21.339  24.759  18.099  0.2104  0.2118  0.3070
23811W        W42558   5.131   9.101   5.248 -0.0087  0.0414 -0.0486
23812W        W42559  10.335  33.698   6.542  0.1891  0.1192 -0.0231
23813W        W42560  21.533  13.705   3.851  0.0354  0.2058 -0.0949
23814W        W42561   0.827  27.275   5.930  0.1258 -0.1092 -0.2545
23815W        W42562  17.487   5.632  17.189  0.0831 -0.2488 -0.1907
23816W        W42563   6.198   1.738  24.817  0.5199 -0.0956 -0.0800
23817W        W42564  22.731  18.468  21.769 -0.0786  0.1747  0.2206
23818W        W42565  32.460  24.954  21.978 -0.0509  0.0101  0.6239
23819W        W42566  29.261  17.386   5.864 -0.1224  0.1403 -0.0415
23820W        W42567  18.533  28.191  20.443 -0.2480 -0.2741  0.2104
23821W        W42568  19.124  17.002  21.339 -0.5663  0.0560  0.1711
23822W        W42569  21.068   1.149   7.673  0.1914 -0.0042  0.1806
23823W        W42570  17.308   6.794   8.461  0.1883 -0.1280 -0.0665
23824W        W42571  24.576  23.352  20.065  0.0161 -0.1131 -0.1351
23825W        W42572  11.714  23.101  10.697  0.1450 -0.0286 -0.1781
23826W        W42573  19.788  35.056  20.793 -0.1324  0.2100 -0.4268
23827W        W42574  11.009  11.848   5.667 -0.1061 -0.0922 -0.1823
23828W        W42575   1.136  20.411  17.829 -0.1627  0.0814 -0.1661
23829W        W42576  34.027  32.565   0.172  0.2125  0.0697 -0.0961
23830W        W42577  26.427  13.643  16.382 -0.1230  0.1694 -0.1243
23831W        W42578  34.113  23.906  19.493 -0.2157  0.2520  0.1363
23832W        W42579  10.603  30.886   0.301  0.1804 -0.2759  0.1814
23833W        W42580  27.294  29.251  15.048  0.2258  0.4714 -0.2481
23834W        W42581   6.189  31.565   1.218  0.1032 -0.0860  0.2496
23835W        W42582  32.819   6.266   3.460 -0.0341  0.1106  0.0167
23836W        W42583  10.343  27.011   8.021 -0.0882 -0.3886 -0.0550
23837W        W42584  27.364  20.468  25.978 -0.2296  0.1579  0.1114
23838W        W42585   8.295  19.312  10.033  0.2348  0.0495 -0.1974
23839W        W42586  21.316  14.642  18.751  0.1043 -0.0550  0.1357
23840W        W42587  17.306  20.584   2.168  0.1516 -0.0295 -0.1188
23841W        W42588   4.510  11.024   7.899 -0.2522 -0.4191  0.1134
23842W        W42589  31.492   1.069   3.034 -0.0488 -0.0214 -0.0651
23843W        W42590   8.948  10.404  24.364  0.3012  0.1075  0.1827
23844W        W42591  25.867  27.684  14.658 -0.1902 -0.0694 -0.0176
23845W        W42592  30.037   2.380  20.890 -0.4286  0.3779 -0.1981
23846W        W42593  24.372  26.373  19.927  0.2176 -0.0217 -0.2480
23847W        W42594  18.355   3.344  17.931  0.0982  0.3171  0.0147
23848W        W42595  29.935  34.485  20.104  0.2664  0.0971  0.3941
23849W        W42596  25.717  19.054  23.356  0.1654  0.2160  0.0507
23850W        W42597  22.761  21.287  22.962 -0.1303  0.1170  0.1799
23851W        W42598  32.518  28.257   4.040  0.1882  0.3213  0.0418
23852W        W42599   3.291  28.824  10.584 -0.0574 -0.0770  0.0332
23853W        W42600  14.071  34.286  22.458 -0.2760 -0.1265 -0.3531
23854W        W42601  14.806  29.592  14.879  0.5704  0.0610 -0.1313
23855W        W42602  12.867   3.445  24.145 -0.2334 -0.1135 -0.0556
23856W        W42603  23.118  13.942  16.226  0.1854  0.0534  0.0457
23857W        W42604  12.863  31.080  22.778 -0.0780  0.0970  0.2150
23858W        W42605  33.984  11.361  26.061  0.1993 -0.0890  0.1891
23859W        W42606  31.246  35.259  19.830  0.1603  0.1570  0.1730
23860W        W42607  20.689  12.108   1.107  0.0141  0.0208 -0.1457
23861W        W42608   5.229  10.323  23.839  0.0226 -0.1361  0.1183
23862W        W42609   1.507   0.396  21.159 -0.0153  0.0393  0.0800
23863W        W42610  32.111  24.151  18.944 -0.0677  0.0921 -0.1224
23864W        W42611  17.841  34.114   8.906  0.0282 -0.1983  0.2257
23865W        W42612   7.274   2.992   4.148  0.0587 -0.0209  0.1500
23866W        W42613  16.108  20.207   8.600  0.1351 -0.1643  0.2318
23867W        W42614   7.955  26.639  22.882 -0.1046  0.1119  0.0539
23868W        W42615  25.049  34.972  25.527  0.1223 -0.1096 -0.1417
23869W        W42616   2.230  15.272  24.079  0.3163  0.2952 -0.0707
23870W        W42617   5.118   9.447   0.911 -0.1286 -0.1561  0.3076
23871W        W42618  28.687  14.296  16.705 -0.2219 -0.1987 -0.1733
23872W        W42619   6.993  17.115   3.007 -0.0176 -0.4120  0.1635
23873W        W42620  23.296  10.143  14.926 -0.1128 -0.0769  0.2771
23874W        W42621  34.731  13.552  24.444  0.0609 -0.1164  0.2275
23875W        W42622  26.578  32.808  10.182 -0.1521 -0.2739  0.1051
23876W        W42623   4.892  23.866  22.907  0.0660 -0.2071 -0.2117
23877W        W42624  32.911  13.074  20.375  0.0059 -0.0279  0.1281
23878W        W42625  29.366  27.395  19.498 -0.3647 -0.0183  0.1868
23879W        W42626  26.190   3.631   5.691 -0.1288  0.2730 -0.0398
23880W        W42627  33.081  10.591  23.837  0.2032 -0.0488 -0.0960
23881W        W42628  31.386  29.692  10.672  0.3325 -0.1787 -0.0597
23882W        W42629  25.508   4.413  12.908 -0.3159 -0.1204 -0.3373
23883W        W42630  21.335   4.592   1.519 -0.0748 -0.1019 -0.1092
23884W        W42631  26.517  21.211  24.619  0.1377  0.0889  0.2824
23885W        W42632  18.496  13.730  19.937  0.0470  0.0259  0.0944
23886W        W42633  29.568  15.887   6.510 -0.0979  0.4728  0.1906
23887W        W42634  10.720  26.191   8.546 -0.1005  0.4226  0.0366
23888W        W42635   9.369  24.968   7.224 -0.0010 -0.3367 -0.2663
23889W        W42636  28.741  30.885  13.720  0.3206 -0.1230  0.0589
23890W        W42637   4.567  13.624  25.156  0.1387  0.1853 -0.3762
23891W        W42638  26.519  17.571  16.673  0.1064 -0.2951  0.0345
23892W        W42639   4.662   4.655  24.701  0.0477  0.2002 -0.1349
23893W        W42640  10.671  27.938   2.347 -0.4312  0.0306 -0.3367
23894W        W42641   8.099  13.843  19.022  0.1798 -0.0977  0.1360
23895W        W42642  30.540  20.954  25.125 -0.2831  0.3958 -0.0715
23896W        W42643  27.935   4.306  26.088  0.1362  0.0359  0.0971
23897W        W42644   6.549  25.851  15.013 -0.3701 -0.1525 -0.1637
23898W        W42645  11.603  19.776  21.804 -0.1905 -0.2754 -0.1001
23899W        W42646  14.528  23.499   9.597 -0.1814  0.3100 -0.0658
23900W        W42647   7.470  33.197  12.475  0.3616 -0.1510  0.4043
23901W        W42648  31.888  33.494  24.169  0.1790  0.0224  0.1898
23902W        W42649   3.449   0.220   5.939 -0.1028  0.0592 -0.1109
23903W        W42650  31.362   9.149  20.280 -0.3513 -0.1641  0.0173
23904W        W42651  15.391   4.689  12.881  0.1660  0.0885  0.2197
23905W        W42652   3.462  29.773   2.697 -0.0902 -0.0389 -0.0139
23906W        W42653   8.736   7.984  24.077 -0.0957  0.1730 -0.3679
23907W        W42654  20.120  23.957   8.493  0.3448  0.2485  0.0509
23908W        W42655  22.130   3.107   8.138 -0.0340  0.0466  0.2565
23909W        W42656  13.068   7.887   9.357  0.0777  0.0612  0.1143
23910W        W42657  22.646  31.953  15.183  0.2510  0.0219  0.2639
23911W        W42658  32.299   1.722   5.713  0.0258 -0.1134 -0.1029
23912W        W42659   6.327   4.120   7.858  0.3136  0.0991  0.3048
23913W        W42660  11.258  11.627   0.831  0.0613 -0.1777 -0.0422
23914W        W42661   3.392  28.074  24.864  0.1094 -0.1567 -0.3156
23915W        W42662   1.320  17.023  21.712 -0.1018  0.2310 -0.1702
23916W        W42663  15.342  12.525   7.195 -0.0042  0.3983  0.3420
23917W        W42664  23.322  23.493  19.664  0.1323 -0.2643 -0.2073
23918W        W42665   1.624   0.359   4.538  0.4306  0.0301  0.1277
23919W        W42666  31.038  30.161  14.188 -0.2753  0.0048  0.1282
23920W        W42667  20.226   1.356   5.622  0.0830  0.2189  0.1639
23921W        W42668   9.514  29.618  13.634 -0.1320 -0.0364  0.1534
23922W        W42669  34.698  29.965  25.647  0.3612  0.3022  0.0324
23923W        W42670   1.232   8.626   4.169  0.0324 -0.2638  0.0045
23924W        W42671   0.290  18.642  20.817  0.0197 -0.0120 -0.2226
23925W        W42672   2.794  25.263  24.671  0.1466 -0.2809 -0.0172
23926W        W42673   6.984  11.173  22.833  0.0112  0.3560 -0.0182
23927W        W42674  17.542   0.675  21.097 -0.0134 -0.1441 -0.0623
23928W        W42675   7.660  27.267   3.282 -0.0067 -0.3316  0.0786
23929W        W42676  15.682   6.315   9.492  0.0789  0.0756 -0.4268
23930W        W42677   3.404  28.525  22.131 -0.2283  0.3963 -0.0231
23931W        W42678   6.023  32.016   9.273  0.1070 -0.1084  0.3312
23932W        W42679  30.568  14.000  25.812 -0.0618 -0.0219  0.1525
23933W        W42680  15.112   8.365   7.564 -0.2877  0.0068 -0.1215
23934W        W42681  18.120   7.943   5.155 -0.0224  0.1552  0.1031
23935W        W42682   1.828  22.211  18.322 -0.4221 -0.0909  0.3030
23936W        W42683  15.057  10.329  24.517  0.0046 -0.0560  0.3345
23937W        W42684  20.281   8.200  18.392  0.2802  0.0731 -0.3497
23938W        W42685   4.111  15.197  18.150 -0.1325  0.1611  0.0879
23939W        W42686  27.898  24.928  25.252 -0.6823 -0.3364 -0.4844
23940W        W42687  20.392  23.527  21.374  0.1316  0.1256  0.1132
23941W        W42688  33.352  22.781  22.751  0.2414  0.1275  0.2205
23942W        W42689  23.418  27.718  13.935  0.0711  0.0192  0.1551
23943W        W42690  31.274  27.734  10.803 -0.1456 -0.2253  0.0051
23944W        W42691  23.265  29.327  13.217 -0.0166  0.2317 -0.3097
23945W        W42692   7.433   1.850   5.422 -0.3856  0.0735 -0.0834
23946W        W42693   0.408  22.154  10.688 -0.0861  0.2909 -0.1248
23947W        W42694  27.148  33.943  19.011  0.0756 -0.0792 -0.0307
23948W        W42695  19.600  12.660   3.136  0.0893  0.1032 -0.2982
23949W        W42696  15.852  31.242  21.853 -0.2357 -0.2220 -0.3791
23950W        W42697  29.926   1.830  14.646  0.0382  0.0916 -0.0553
23951W        W42698  19.577  31.051  22.092 -0.0219 -0.0453  0.0231
23952W        W42699  27.352  14.892  15.795 -0.1507 -0.2529 -0.1470
23953W        W42700   1.006   1.963   5.036 -0.0812 -0.1114  0.2642
23954W        W42701  28.395  17.910  18.006 -0.0748 -0.1919  0.1178
23955W        W42702  30.428  31.420   6.155 -0.1058 -0.1037  0.0459
23956W        W42703  30.750  16.733  10.029 -0.0453 -0.0929 -0.0350
23957W        W42704  23.810  28.944  11.142 -0.0845 -0.3442 -0.6140
23958W        W42705  11.665   9.193  24.955  0.2090 -0.0442 -0.1343
23959W        W42706  18.626   6.956   9.325 -0.0374 -0.1871  0.4345
23960W        W42707  16.534  14.668  20.047 -0.2773 -0.0752  0.1476
23961W        W42708  11.897  16.313   7.821 -0.0453 -0.2558  0.1428
23962W        W42709  22.671  25.503   3.971  0.2378 -0.3774  0.0934
23963W        W42710  27.993  10.087  15.226 -0.1161  0.0326 -0.1198
23964W        W42711   8.815   2.992   2.795  0.2312 -0.1088  0.0388
23965W        W42712   1.794  25.177   4.003  0.0836 -0.0189 -0.3707
23966W        W42713   6.780  30.522   0.417 -0.1534 -0.2012 -0.1295
23967W        W42714  13.053  18.322   7.700  0.4026  0.2040 -0.0959
23968W        W42715  30.527   6.078  17.421 -0.0930  0.2521 -0.1956
23969W        W42716  15.730   5.027  26.125 -0.0949  0.1708  0.0796
23970W        W42717   6.802  10.450  25.974 -0.1637  0.0568 -0.0286
23971W        W42718  16.997  15.130   5.166  0.2714  0.0238  0.1425
23972W        W42719   8.764  21.012   9.631  0.0935  0.1914  0.3564
23973W        W42720   1.790  30.898   6.917 -0.0371 -0.0660  0.1371
23974W        W42721   7.902  29.883   7.401 -0.2806 -0.1723 -0.2315
23975W        W42722   6.594  31.586   0.349 -0.0523 -0.2769  0.2840
23976W        W42723  33.570  10.414   9.279  0.2365  0.0316 -0.0470
23977W        W42724  23.168  34.873   2.198  0.0230 -0.1360  0.1365
23978W        W42725  31.091  12.243  16.245  0.0394  0.0791  0.0184
23979W        W42726  17.948  25.435  10.822 -0.0748 -0.1644 -0.0229
23980W        W42727   8.012  25.586   5.955 -0.1133 -0.2670  0.0520
23981W        W42728  11.564  15.910   1.525  0.0414  0.1344  0.2448
23982W        W42729  14.240   8.593  25.324  0.2068 -0.2677 -0.1858
23983W        W42730   2.028  10.069  19.585  0.0247 -0.3237 -0.1370
23984W        W42731  15.370  32.539   0.450  0.1977 -0.0929  0.0631
23985W        W42732   5.262   0.218  25.101 -0.0576  0.2613  0.0387
23986W        W42733  27.230  19.846   5.179 -0.2645 -0.1867 -0.0460
23987W        W42734  17.734  30.875   2.372  0.0762 -0.1851 -0.2470
23988W        W42735  22.102  21.072  16.135  0.2542  0.1776 -0.1754
23989W        W42736  21.917   6.081  19.412  0.0757 -0.0729 -0.0409
23990W        W42737  11.840  28.033   1.211 -0.0676  0.1416 -0.1667
23991W        W42738  18.594   0.307  22.411 -0.1883 -0.2832 -0.0240
23992W        W42739   9.539  22.447  23.409 -0.3601 -0.0696 -0.2381
23993W        W42740  25.103  19.958  24.300  0.3069 -0.1479  0.0641
23994W        W42741  19.506  30.944   8.871  0.0117  0.1823  0.2047
23995W        W42742  26.172  25.384   0.261  0.0335 -0.1022 -0.0167
23996W        W42743   9.710  21.469  22.365 -0.3692 -0.4066  0.2126
23997W        W42744  22.025  29.520   4.954  0.0364 -0.0523 -0.1595
23998W        W42745  25.374   2.444  16.177  0.0677  0.0227 -0.0360
23999W        W42746  26.342  28.344  25.570 -0.0589  0.0061  0.1431
24000W        W42747   9.463  26.848  12.269  0.0240  0.1738  0.1136
24001W        W42748  18.706  31.701   4.108  0.3605 -0.0726 -0.1547
24002W        W42749  30.440  35.301  18.556  0.1075  0.1692  0.3351
24003W        W42750  17.604  17.415   4.074 -0.5296 -0.0086  0.4113
24004W        W42751  25.515  20.598  22.002  0.2377  0.1677  0.0147
24005W        W42752   6.510  21.221  25.886 -0.1343  0.3912  0.1584
24006W        W42753  17.513  29.285   7.570  0.2590  0.0180 -0.2147
24007W        W42754  20.727  35.197  18.790 -0.0687 -0.1886 -0.2351
24008W        W42755  33.423  30.422  17.281  0.1307  0.1674  0.0836
24009W        W42756  30.190   9.922   9.475 -0.1885 -0.0665  0.1735
24010W        W42757  27.852  21.251  18.943 -0.1951 -0.0070 -0.1592
24011W        W42758  29.532  30.862  18.932 -0.0908  0.0413 -0.0159
24012W        W42759  16.006   7.066   8.816  0.0936 -0.1345  0.0566
24013W        W42760  23.291  35.364   0.536  0.2319 -0.2554 -0.1278
24014W        W42761  14.865  25.023  12.972 -0.0576  0.0581 -0.1499
24015W        W42762  28.810  13.811  25.828  0.0804  0.0878 -0.4093
24016W        W42763  16.475  30.205   7.019  0.2573 -0.1264  0.1294
24017W        W42764  29.193  25.849  23.143  0.0478  0.0298  0.1856
24018W        W42765  19.598   4.860  16.785  0.0800  0.2361  0.1022
24019W        W42766  23.248  32.704  17.097 -0.0391 -0.2032  0.0412
24020W        W42767   8.786   5.470  19.737  0.1843 -0.0729  0.0546
24021W        W42768  28.100  19.980  15.893 -0.0368  0.1675 -0.0644
24022W        W42769  10.023  23.193   9.366  0.0761 -0.0250 -0.0193
24023W        W42770  10.348  34.384   1.009  0.0896  0.0656 -0.0810
24024W        W42771  12.980  27.812  24.308 -0.1185 -0.0664  0.2391
24025W        W42772  27.417   1.059  22.795 -0.5761 -0.0041  0.1406
24026W        W42773   7.153  14.910  12.539 -0.0856  0.0321 -0.1789
24027W        W42774   6.151   7.169   4.845  0.0679 -0.2468 -0.2670
24028W        W42775   1.556  13.947   1.577 -0.3001 -0.0962  0.2720
24029W        W42776  35.001   2.432  12.966  0.3033  0.0473 -0.0260
24030W        W42777  14.364  26.806  22.034 -0.4129 -0.0944 -0.1563
24031W        W42778  29.447  30.367   5.182  0.3269 -0.1547  0.3953
24032W        W42779   7.418  20.348   2.330 -0.1206 -0.0250 -0.1085
24033W        W42780   7.492  28.026  16.328  0.1389  0.0243  0.1076
24034W        W42781  22.899   0.351  25.881 -0.0025  0.2833 -0.2674
24035W        W42782   0.864  12.852  26.117 -0.0431 -0.2477  0.1406
24036W        W42783   8.954  11.948  25.082 -0.0900  0.0093  0.3040
24037W        W42784   8.569   5.133   8.306 -0.0706  0.0249 -0.1779
24038W        W42785  10.681   5.984   9.040 -0.0424 -0.1753 -0.1492
24039W        W42786  31.329  31.127   3.308 -0.1710 -0.1727  0.1838
24040W        W42787  34.919  12.461  21.532  0.1445  0.0195  0.1784
24041W        W42788  14.178   3.595   3.180  0.3355 -0.1218 -0.3789
24042W        W42789  24.745  24.685  25.159  0.0700  0.2173 -0.0777
24043W        W42790  16.393   3.089   7.308 -0.1716  0.0211  0.0466
24044W        W42791   8.973   6.159   2.170  0.1173  0.0300 -0.1479
24045W        W42792  15.136  13.097   4.893  0.1651 -0.0420  0.0413
24046W        W42793  28.528  31.802  24.607  0.1158 -0.1137 -0.0630
24047W        W42794  12.525   6.266  12.619 -0.0797  0.1141  0.0529
24048W        W42795  25.928  35.110  16.465 -0.0848  0.2493 -0.1362
24049W        W42796   1.939  35.069  23.986  0.1166  0.3409  0.0925
24050W        W42797  15.265  17.130  14.411  0.2083 -0.2409 -0.1191
24051W        W42798   6.190  30.949   7.789  0.1322  0.1600  0.0369
24052W        W42799  21.042   9.378  17.836  0.1201  0.4406  0.3602
24053W        W42800  13.745  24.934  13.127  0.0681 -0.1200 -0.0476
24054W        W42801  23.562  16.218   0.519 -0.0301  0.0054  0.0076
24055W        W42802  24.487  34.006   4.740 -0.3507  0.2456  0.1934
24056W        W42803  24.208  18.308  22.489  0.1187  0.1127  0.2503
24057W        W42804  17.705  29.329   2.026 -0.3177  0.1369 -0.2298
24058W        W42805  31.841  34.773   2.548  0.1903  0.2791 -0.0639
24059W        W42806  31.086  19.774  23.221  0.0225  0.1899 -0.0417
24060W        W42807  27.106   8.148  25.962 -0.0454  0.0758  0.0064
24061W        W42808  18.228  23.738   6.689 -0.0374 -0.1695 -0.1228
24062W        W42809  23.515  19.296  23.290 -0.1570 -0.2799 -0.1746
24063W        W42810   1.627  22.106  14.289  0.0644 -0.3071 -0.1047
24064W        W42811  16.964  14.207  11.667  0.0423 -0.0594 -0.2678
24065W        W42812  25.500  11.588  13.432  0.0544  0.0039 -0.3953
24066W        W42813  25.216  13.204  15.356 -0.0312  0.2807 -0.0958
24067W        W42814  30.029   4.665  16.143  0.1577  0.0147 -0.5656
24068W        W42815  22.516   5.251   6.207 -0.2052 -0.1320  0.2512
24069W        W42816   5.005  25.970   8.413 -0.0832 -0.1454 -0.2640
24070W        W42817  27.849  16.544   6.021  0.0119  0.1199  0.3669
24071W        W42818  13.505   0.081  20.103 -0.0419  0.0195  0.0340
24072W        W42819  25.102  19.705  23.768 -0.0897  0.1006 -0.3226
24073W        W42820  19.170  18.515   8.273  0.3786  0.1424 -0.2629
24074W        W42821  10.405  14.769   3.123 -0.1347 -0.0533 -0.0227
24075W        W42822  12.685  19.420  25.939  0.1138 -0.0961 -0.0222
24076W        W42823   4.848   2.617  23.362 -0.1172 -0.3334  0.0166
24077W        W42824  32.808  15.681   5.698  0.0982  0.5521 -0.1006
24078W        W42825  27.010   4.428   3.316 -0.0540 -0.0623 -0.1677
24079W        W42826  27.969   4.203  19.476 -0.1229 -0.0865 -0.1739
24080W        W42827   8.658  24.020  14.472 -0.0134 -0.0443  0.0179
24081W        W42828  24.928   9.385  17.611  0.3694 -0.2179 -0.2928
24082W        W42829  11.647   3.695   5.364 -0.0367  0.1245  0.0055
24083W        W42830   7.028  11.886   9.826 -0.1620  0.0320 -0.2198
24084W        W42831  20.579  29.746  24.497 -0.1822 -0.2894 -0.3035
24085W        W42832  13.710  22.672  15.579 -0.0135  0.0710  0.1644
24086W        W42833  25.817  16.734  12.001  0.0611 -0.0352  0.0643
24087W        W42834   2.898  12.338  17.946  0.1568 -0.0751  0.0219
24088W        W42835  21.207  11.371  22.509 -0.0445 -0.1452 -0.1701
24089W        W42836  18.132  29.276  25.065  0.0675  0.1048 -0.1211
24090W        W42837   9.105  21.102   0.500 -0.0195 -0.1179  0.0311
24091W        W42838  28.722  22.477  15.652 -0.0242 -0.2318  0.3318
24092W        W42839  17.880  32.950  23.283  0.1426  0.0553  0.2091
24093W        W42840  14.905   1.715   4.104  0.0227  0.0320 -0.0047
24094W        W42841  15.246  31.552  25.247  0.0854 -0.1933  0.1804
24095W        W42842  18.328   9.930  21.629 -0.0022  0.1135 -0.0527
24096W        W42843  29.705  18.646  24.650  0.1731 -0.0679 -0.3086
24097W        W42844  22.711  13.587  21.317  0.2730 -0.0124  0.2871
24098W        W42845  33.123   9.909  14.894 -0.0108  0.1451  0.1276
24099W        W42846  33.710  29.898  24.722  0.0781 -0.0236 -0.3031
24100W        W42847  21.060  16.767  16.259 -0.2517 -0.2886 -0.0252
24101W        W42848  32.042  34.934  15.754 -0.0270  0.2857  0.2728
24102W        W42849  35.261  21.379  10.522  0.0826 -0.0201  0.1184
24103W        W42850  19.377   1.809  20.548  0.0235 -0.0202 -0.0335
24104W        W42851  18.493   5.182   4.157  0.2603  0.0971  0.2092
24105W        W42852  32.092   2.438  14.107 -0.0324  0.1017 -0.1716
24106W        W42853  26.489  21.595  25.853 -0.3678 -0.1575 -0.2831
24107W        W42854  16.132  23.809   8.334 -0.1224 -0.0573  0.0305
24108W        W42855  34.425  29.046   3.826 -0.0502 -0.0998 -0.4948
24109W        W42856  11.058  33.828   3.901  0.0516  0.1313  0.1965
24110W        W42857  23.975  16.720  14.876 -0.1803 -0.0705  0.1116
24111W        W42858  23.488   9.721   0.625  0.0023 -0.0161 -0.1886
24112W        W42859  32.111  10.930  14.759  0.1279  0.1752  0.2221
24113W        W42860  16.676  23.972   4.718  0.4773 -0.0669  0.4100
24114W        W42861   0.877  28.445  16.401  0.2954  0.0304 -0.3583
24115W        W42862   9.785  22.886   1.293 -0.3783  0.0124 -0.0919
24116W        W42863   5.963  14.158   4.863  0.1970 -0.0549 -0.1158
24117W        W42864  29.844  31.745  26.061 -0.4754 -0.0022 -0.2550
24118W        W42865  18.525   4.490   7.477  0.0783 -0.0028 -0.1283
24119W        W42866   8.721  24.281  12.787 -0.2670  0.2332  0.0206
24120W        W42867  12.961   5.742   3.214  0.1124 -0.0737 -0.0257
24121W        W42868   7.900   8.223   3.401 -0.1094  0.2488 -0.2380
24122W        W42869  12.997  30.108   4.680 -0.1022  0.2817  0.0440
24123W        W42870  33.660  11.607  14.507  0.1583 -0.1379 -0.1783
24124W        W42871  29.063  15.253  22.522 -0.0700  0.0118 -0.1525
24125W        W42872   9.398   8.119  24.986 -0.1559  0.2748  0.0473
24126W        W42873  28.335   0.323   0.318  0.2522  0.1360 -0.1571
24127W        W42874   6.733  20.483  24.796  0.2600  0.1274 -0.0749
24128W        W42875   4.834   5.737  24.844 -0.4583 -0.2058 -0.2381
24129W        W42876   7.847   1.605   7.182  0.0426  0.0436  0.0062
24130W        W42877  23.307  30.415  19.985 -0.1177  0.0533 -0.0424
24131W        W42878  22.010  11.956  19.758 -0.2183  0.0267 -0.1826
24132W        W42879  25.419   5.681   2.788  0.3517  0.0642  0.3473
24133W        W42880   2.638  35.360   9.354 -0.1149  0.0887 -0.0581
24134W        W42881  27.249   3.418   1.288 -0.0903  0.0129  0.1353
24135W        W42882   2.475  24.210   1.871 -0.0296  0.3451  0.2382
24136W        W42883  35.095  33.927   1.085 -0.1062  0.2036  0.0687
24137W        W42884  33.763  14.374  10.536 -0.0173 -0.2300  0.0219
24138W        W42885   5.608   2.912   0.225 -0.0509 -0.1993 -0.1120
24139W        W42886  21.248  25.244  17.965 -0.1930 -0.0096 -0.1319
24140W        W42887  20.435  31.209  18.251  0.3871 -0.0666  0.0874
24141W        W42888   3.547  17.221  24.250  0.2289  0.2062  0.0253
24142W        W42889   7.421  24.851   1.729 -0.0073  0.1922  0.0676
24143W        W42890   4.336  23.045  22.557  0.1390 -0.0959  0.2739
24144W        W42891  10.133   1.332   8.139 -0.0776 -0.1577 -0.3319
24145W        W42892  28.753  23.581  13.606 -0.0991 -0.1647 -0.1144
24146W        W42893  22.298  16.751  16.739 -0.2286  0.2069 -0.2332
24147W        W42894  25.788  29.521  26.056  0.0260  0.2687 -0.3369
24148W        W42895  35.175   7.976  13.568 -0.0432  0.1322  0.1510
24149W        W42896  34.155  17.192  10.539 -0.1017 -0.4419 -0.1114
24150W        W42897  10.641  26.238  24.770  0.1872 -0.0697 -0.1427
24151W        W42898  24.102   7.303  20.467  0.1328  0.0648 -0.1647
24152W        W42899  28.375  23.447  22.550  0.1297  0.1671 -0.1119
24153W        W42900  13.893  33.847  11.390 -0.0505 -0.1227 -0.1335
24154W        W42901  30.943   1.364   2.137  0.0752 -0.1950 -0.0188
24155W        W42902  32.300  28.105  17.309  0.1244  0.0349  0.0792
24156W        W42903  35.351   0.309  15.625  0.1484 -0.3183 -0.1109
24157W        W42904  34.684   4.313  20.272  0.0166 -0.1146  0.1382
24158W        W42905  12.933  17.117   1.822  0.0747 -0.3152 -0.0435
24159W        W42906  11.917  19.349  10.391  0.1059 -0.0612 -0.0918
24160W        W42907  29.201   1.776  19.360 -0.1245  0.0669 -0.1086
24161W        W42908   7.946  16.575  21.059  0.4137 -0.0391 -0.5363
24162W        W42909  20.729  20.089  21.211  0.3559 -0.1168  0.1401
24163W        W42910  15.206   6.996   6.499  0.0372 -0.3134  0.1104
24164W        W42911  12.999  10.609   1.145 -0.0977 -0.4910 -0.0290
24165W        W42912   1.150   2.253  20.843  0.1709  0.0783  0.0772
24166W        W42913  26.057  13.598  14.362 -0.2826  0.1381 -0.1951
24167W        W42914  15.169  23.433   0.427  0.2848  0.0014 -0.1681
24168W        W42915   3.857  16.455   3.901 -0.1440  0.2620 -0.1604
24169W        W42916  26.584   2.481  24.225 -0.2219 -0.0053  0.0261
24170W        W42917  21.236  10.800  21.511 -0.0467  0.0279 -0.0645
24171W        W42918  26.680   1.265  12.551 -0.0891  0.1518  0.1941
24172W        W42919  34.078  17.396  25.290 -0.3008 -0.1363  0.1388
24173W        W42920  19.259  34.013   5.512 -0.3334 -0.0829  0.2075
24174W        W42921  19.719   3.258  18.099  0.0316  0.0168 -0.1188
24175W        W42922  20.954  28.784  14.605  0.1907  0.0296  0.0946
24176W        W42923  27.247   5.860  24.969  0.1258 -0.0957  0.1412
24177W        W42924  34.375  27.666  23.610 -0.0270  0.3626  0.3210
24178W        W42925  27.150  31.443  24.352  0.0225 -0.1496 -0.0213
24179W        W42926  13.585  21.188   3.611 -0.1995 -0.1316  0.2337
24180W        W42927  15.574   1.334  24.936 -0.1588 -0.0199  0.0664
24181W        W42928  22.126  26.680   0.218  0.3662  0.0644  0.0613
24182W        W42929  28.446  35.291  18.322 -0.3378  0.0887  0.0085
24183W        W42930  29.213  13.672  19.199 -0.1514  0.1215 -0.2218
24184W        W42931  11.570  21.735  24.802 -0.0476  0.0582  0.1159
24185W        W42932  21.658  24.022  17.790 -0.1101 -0.2065 -0.3530
24186W        W42933  34.969   6.780  15.986  0.2174  0.1887  0.2342
24187W        W42934  21.743   5.610  19.430  0.1087  0.3198 -0.0702
24188W        W42935  13.231  29.603  26.237 -0.1831  0.0233 -0.0956
24189W        W42936   9.790   5.929  25.573  0.0851 -0.1027  0.1562
24190W        W42937  10.220  31.945  21.306 -0.0043 -0.2821  0.2763
24191W        W42938   3.112  25.603  19.467 -0.0500 -0.1072 -0.1323
24192W        W42939   4.342  12.732  16.878 -0.0257  0.0277 -0.1460
24193W        W42940  27.420  18.191  25.561 -0.1495  0.0835  0.1256
24194W        W42941  24.106  14.062  19.107  0.0096  0.1065  0.2261
24195W        W42942  14.082   9.399   5.997  0.2213  0.0997 -0.1393
24196W        W42943  24.631  11.038   3.084  0.2719  0.1428 -0.1465
24197W        W42944   5.787  15.706  16.449  0.0638 -0.2630  0.1399
24198W        W42945  25.450  15.595   6.297 -0.2247 -0.0181  0.1017
24199W        W42946  25.951  17.262  24.960 -0.3878 -0.0625  0.1582
24200W        W42947  30.345  14.991  13.329  0.1379 -0.3608 -0.2923
24201W        W42948   5.421  11.137   0.441 -0.1204  0.1010  0.0610
24202W        W42949  18.053  28.111   5.999  0.1159  0.0845 -0.3485
24203W        W42950  30.024  17.571  19.076 -0.2504 -0.1594 -0.3868
24204W        W42951   1.435   4.428  22.984 -0.2351 -0.1408  0.1153
24205W        W42952   7.969  32.089   1.572  0.0398  0.2022 -0.0811
24206W        W42953  34.673  17.238   0.142 -0.1919 -0.1594 -0.3651
24207W        W42954  17.255   9.332   9.152 -0.0367  0.1974  0.0087
24208W        W42955   7.085  31.876  21.371 -0.2149 -0.3070 -0.3737
24209W        W42956   0.783  19.842  16.972  0.0877  0.5551 -0.2826
24210W        W42957  25.506  21.934  23.395 -0.0166  0.0844  0.0616
24211W        W42958  18.054  12.486  23.591  0.2492 -0.0824 -0.0124
24212W        W42959  33.361  18.466  20.376  0.0849  0.1652 -0.1124
24213W        W42960   7.987   2.158  22.762 -0.3226  0.3942  0.0871
24214W        W42961  32.318   9.043   1.144 -0.0156  0.0010  0.0271
24215W        W42962  18.223   2.015  23.460 -0.1398 -0.1785  0.0617
24216W        W42963  10.364  32.116  12.656 -0.1719 -0.0961  0.1911
24217W        W42964  18.283  15.053  23.872 -0.4217  0.2175 -0.0184
24218W        W42965   2.977   8.504  24.884  0.0328  0.0078  0.1188
24219W        W42966  10.055  35.199  25.461  0.1555  0.0332  0.4001
24220W        W42967  19.869  23.065  23.176  0.1770  0.3696  0.0192
24221W        W42968  12.098  27.001   2.863 -0.2259 -0.0099 -0.5951
24222W        W42969  29.362  25.947   7.834  0.0869  0.1008 -0.1342
24223W        W42970  14.460   4.243   2.926 -0.3250  0.2938 -0.2282
24224W        W42971   0.134  11.072   9.857  0.0754 -0.0406  0.3040
24225W        W42972  29.258  30.607  23.537  0.0001 -0.1344  0.0199
24226W        W42973  11.067   3.382   8.167 -0.0741  0.2170  0.2842
24227W        W42974   5.315  13.649   2.834 -0.0607  0.1504 -0.0310
24228W        W42975  21.316   1.849  15.265  0.1596 -0.2448  0.1614
24229W        W42976   8.804  13.144   8.385  0.6015  0.1491  0.5322
24230W        W42977  15.135  17.582  22.469  0.0356  0.0474  0.2592
24231W        W42978   8.446   7.423   0.952 -0.1082  0.2699 -0.0303
24232W        W42979  22.355  31.560  14.997 -0.3254 -0.0165 -0.1946
24233W        W42980  27.803   4.692  11.353 -0.0975  0.1744 -0.1348
24234W        W42981  15.688  14.458  11.181 -0.0303 -0.0648  0.2593
24235W        W42982  18.299  15.135  22.303  0.1131 -0.1747 -0.3819
24236W        W42983   2.755  11.375   3.192 -0.0548  0.1454  0.1145
24237W        W42984  27.116  19.726  18.632  0.2381 -0.4566 -0.0311
24238W        W42985   4.875  21.938   0.413 -0.0327 -0.0104 -0.0820
24239W        W42986  10.474  31.853  14.449  0.1085 -0.1167  0.0011
24240W        W42987  22.472   4.199  15.502 -0.0978  0.0452 -0.1112
24241W        W42988  14.369  18.557  10.139  0.1489 -0.1857  0.2945
24242W        W42989   8.745  10.789  10.556  0.0234 -0.0546 -0.0053
24243W        W42990  27.002  20.061  25.542 -0.0863  0.3236  0.0266
24244W        W42991  19.906  16.791  21.890  0.2840  0.0792 -0.2828
24245W        W42992  26.920  15.262  18.884 -0.0287 -0.1517  0.0897
24246W        W42993  33.211  33.010  19.289  0.4220  0.4387  0.1803
24247W        W42994  10.101   2.771   6.817  0.0982 -0.0994 -0.0317
24248W        W42995  19.575   9.234  24.081 -0.1406  0.0258 -0.2311
24249W        W42996   6.860  25.739  11.519  0.0064  0.0386 -0.1095
24250W        W42997  31.911   3.235  25.018 -0.0102  0.0313  0.2756
24251W        W42998   2.317  22.066   4.305 -0.0177  0.3548 -0.1157
24252W        W42999  27.769  28.879  21.035  0.0254  0.1846  0.3569
24253W        W43000  13.375  21.485  24.406 -0.2438 -0.2272 -0.1684
24254W        W43001   1.019  13.137   0.284 -0.0440  0.0961 -0.0241
24255W        W43002  24.386  28.776  25.349 -0.1088  0.2787 -0.2820
24256W        W43003  34.340  30.558   3.955 -0.3176  0.1502 -0.4215
24257W        W43004   2.015   1.550  21.609 -0.0983 -0.0024 -0.0727
24258W        W43005  25.960  15.701  14.420  0.0402 -0.1625 -0.1276
24259W        W43006  27.472   1.891  14.615  0.1516  0.1450  0.4179
24260W        W43007  22.258  34.077  15.014 -0.0206 -0.1709  0.2485
24261W        W43008   7.928  34.944  21.556  0.0553  0.1662 -0.1052
24262W        W43009  13.862   6.121  22.601 -0.1821  0.4877 -0.0685
24263W        W43010  22.555  13.378  12.897 -0.0455  0.1133  0.0780
24264W        W43011   8.970  25.562  22.590  0.0485  0.0583  0.0271
24265W        W43012  29.737  31.929  12.865  0.0515 -0.0874  0.3336
24266W        W43013  32.887   9.996  24.598 -0.2584  0.1379 -0.2984
24267W        W43014   9.894  11.427   9.125 -0.0529 -0.1586 -0.2927
24268W        W43015   9.460  10.451  25.571  0.1223  0.0066  0.0584
24269W        W43016  28.736  15.316   9.192  0.1269  0.0034  0.1025
24270W        W43017   8.250  23.225  23.112 -0.2003 -0.0419  0.1829
24271W        W43018  28.663  11.782  12.351  0.1037 -0.0421 -0.1736
24272W        W43019   6.107  29.460  10.542 -0.0899 -0.3021  0.0873
24273W        W43020  27.733  11.590  20.562  0.1788  0.0881 -0.2290
24274W        W43021  11.563  25.931  24.464 -0.2568  0.1983  0.2138
24275W        W43022   0.209  31.072   2.488  0.0345 -0.1726  0.0529
24276W        W43023   1.935  18.995  18.055 -0.2869 -0.1535 -0.1715
24277W        W43024  11.313  29.817   9.913 -0.0739 -0.0353 -0.1497
24278W        W43025  27.444  10.343   7.754  0.0603 -0.2646 -0.3696
24279W        W43026   3.416  27.173   6.276 -0.1885  0.0979 -0.3944
24280W        W43027  22.863  18.724  16.912 -0.2102  0.0330  0.0149
24281W        W43028   5.483  27.189  22.237 -0.0445  0.0980  0.4557
24282W        W43029  10.910   3.007  19.824 -0.1139  0.1540 -0.3461
24283W        W43030  19.429  28.056  24.076 -0.1571  0.0719  0.0511
24284W        W43031   2.433  34.196  17.404  0.0234 -0.2900 -0.2866
24285W        W43032  12.801  35.127   1.158  0.1980  0.4847  0.2994
24286W        W43033  11.040  12.298  24.234 -0.2755 -0.0386 -0.2273
24287W        W43034  14.828  33.322   1.547 -0.3628 -0.0979 -0.0008
24288W        W43035   8.469  31.729  26.199 -0.3835  0.0278 -0.0212
24289W        W43036  22.996  33.005   4.800 -0.1147  0.0871 -0.5055
24290W        W43037  25.333  32.290  23.467  0.1119  0.2899  0.0506
24291W        W43038   3.151   5.336   3.342 -0.0745 -0.2230  0.0426
24292W        W43039   9.078   6.618  23.297  0.0824 -0.0996  0.0875
24293W        W43040  11.266  33.330  22.971 -0.4729  0.1601 -0.3636
24294W        W43041   2.828  20.589  18.471  0.0159  0.1295 -0.1064
24295W        W43042   5.774  18.042  25.708  0.3493  0.0589  0.2128
24296W        W43043  31.148  23.091  11.360 -0.1675 -0.1249  0.1202
24297W        W43044   9.523   5.204  24.239  0.2074 -0.0462  0.0615
24298W        W43045   7.619  14.301  12.443  0.2606  0.2780  0.1324
24299W        W43046  29.360   7.342  23.755  0.0495  0.1446  0.0391
24300W        W43047  27.660  31.107  11.484  0.3843  0.3218 -0.1662
24301W        W43048  13.915   4.719  19.031  0.1621 -0.5895 -0.3170
24302W        W43049  11.425  19.932  15.319  0.1724 -0.0279 -0.0178
24303W        W43050  13.246  12.999  21.381  0.3188 -0.2236  0.3873
24304W        W43051  29.792  35.276  12.497  0.1230  0.1585 -0.1617
24305W        W43052  22.046  26.421  19.380  0.3941 -0.3209 -0.2563
24306W        W43053  21.724   6.575   6.070  0.0865  0.1661  0.1703
24307W        W43054  31.328  28.014  21.712 -0.2907 -0.0537 -0.3707
24308W        W43055  30.745  18.299  20.320  0.2923 -0.2820  0.0720
24309W        W43056  11.787  24.965  10.271 -0.4094  0.1231  0.1913
24310W        W43057   6.457   6.567  24.725 -0.1368 -0.1655 -0.2197
24311W        W43058   4.843  32.592   7.605 -0.0024  0.3257 -0.0275
24312W        W43059  31.145  13.994  20.067  0.3257 -0.0389  0.2242
24313W        W43060   0.314  30.962   4.432 -0.1189 -0.3276  0.0031
24314W        W43061  18.359  32.292   6.859 -0.2127  0.1262 -0.2576
24315W        W43062  23.703   5.058  20.090 -0.0160  0.0234 -0.1445
24316W        W43063  27.420  24.689  10.589  0.2526  0.1797 -0.0544
24317W        W43064  26.692   8.308  17.622 -0.1324 -0.2528  0.1407
24318W        W43065   7.091  35.373   4.236 -0.4271  0.4951 -0.0600
24319W        W43066  13.073  14.405   4.367  0.0737 -0.1317 -0.0580
24320W        W43067  15.514  26.020  25.007  0.0835  0.0337  0.0351
24321W        W43068  11.100   1.143   1.224 -0.1126  0.4135 -0.1061
24322W        W43069  17.580   8.140  12.273  0.4070 -0.0003 -0.0404
24323W        W43070   7.205  21.984  22.599 -0.0087  0.7238 -0.1850
24324W        W43071   2.046   3.778  20.421 -0.1133  0.1846 -0.2084
24325W        W43072  13.365  23.486   7.267  0.2907  0.1263  0.0889
24326W        W43073  27.996   6.315   2.956  0.1058 -0.0906  0.1056
24327W        W43074  17.231  25.629   2.434 -0.1151  0.2530 -0.0905
24328W        W43075  14.788  24.157   7.975  0.1753 -0.1584 -0.1500
24329W        W43076  17.052  10.125   4.779  0.3252 -0.0302 -0.0019
24330W        W43077  18.061  29.404   6.859  0.0180  0.1876 -0.0600
24331W        W43078   8.123  13.911  21.028  0.0776 -0.1749 -0.3045
24332W        W43079  23.996  12.916  21.825  0.2910  0.0884 -0.0071
24333W        W43080   4.875  21.212   1.622  0.2345  0.1239  0.0182
24334W        W43081  15.421  27.203  11.353 -0.1491  0.3771 -0.2298
24335W        W43082   1.416  12.086  25.421 -0.1094 -0.0214  0.0681
24336W        W43083  22.856  24.573  16.554 -0.0699 -0.0202 -0.0491
24337W        W43084   3.892  28.430   7.015  0.0760 -0.1399 -0.2361
24338W        W43085   5.105  16.017  16.079  0.0842 -0.0022  0.0703
24339W        W43086  34.106   7.363  16.702  0.1294 -0.0130 -0.1134
24340W        W43087   1.664  33.443   2.521  0.0863 -0.2004 -0.2310
24341W        W43088  21.490  18.634  16.354  0.0898  0.2649  0.3366
24342W        W43089  15.241  20.362   9.120  0.0997 -0.0805 -0.0408
24343W        W43090   0.784  30.095  19.936 -0.0794  0.1180  0.2019
24344W        W43091  25.101  11.162  11.665 -0.0059  0.0761  0.2437
24345W        W43092   7.556  21.937   9.832 -0.1168  0.3495 -0.0211
24346W        W43093  31.838  29.181   1.892  0.0263  0.2737 -0.1285
24347W        W43094   2.094   1.945   4.276  0.0238  0.0541 -0.1019
24348W        W43095  13.744  19.356   3.597  0.0502 -0.0972 -0.1383
24349W        W43096   3.818   3.244   2.186  0.0213 -0.1244 -0.0388
24350W        W43097  10.781   0.645   2.064  0.0198  0.0890 -0.0386
24351W        W43098  11.077  25.495  13.851  0.0033  0.0001 -0.1097
24352W        W43099  33.944   4.331   1.371  0.4508 -0.2358 -0.0160
24353W        W43100   2.814   8.916   1.986 -0.0497  0.0968  0.4856
24354W        W43101  10.083   8.007  12.852  0.1130 -0.1904 -0.2138
24355W        W43102   9.322   0.509  21.974 -0.1937  0.2887 -0.1874
24356W        W43103  25.732  30.347   3.391 -0.0793  0.0649 -0.1155
24357W        W43104  20.356   9.930  24.790  0.0444 -0.0976 -0.0826
24358W        W43105  32.628  34.131  23.193 -0.0475 -0.0156 -0.1503
24359W        W43106  25.848  31.787   1.199  0.3893  0.3431  0.0156
24360W        W43107   1.741   0.151   2.452 -0.0639  0.1519  0.1200
24361W        W43108   8.953  23.967  11.485 -0.1089  0.3097  0.3890
24362W        W43109  32.077  19.997  10.605  0.1743  0.2706 -0.1393
24363W        W43110  13.614  28.908  15.147 -0.2026 -0.1417  0.0622
24364W        W43111  33.828  14.655  13.420 -0.1549 -0.0828 -0.2994
24365W        W43112  17.556   5.088   3.816 -0.4395  0.0293  0.3318
24366W        W43113  21.997  13.412  23.470 -0.2087 -0.0559  0.0465
24367W        W43114   0.504  31.518   0.268 -0.0426 -0.0742 -0.1181
24368W        W43115  27.811  23.688  24.241  0.0906  0.1513  0.0919
24369W        W43116  12.505  20.073   1.241 -0.0986 -0.1607 -0.3318
24370W        W43117  11.980  35.289  14.119  0.2939 -0.4195 -0.5419
24371W        W43118   2.875   2.056  21.504  0.1192 -0.1160  0.1230
24372W        W43119  27.870  21.022  15.790 -0.1419 -0.1701 -0.2055
24373W        W43120  24.074  28.939  12.706  0.0037 -0.1831 -0.0800
24374W        W43121  16.580  25.460   4.526  0.0389  0.0339  0.0694
24375W        W43122  25.383  14.807  16.636  0.1745  0.0268  0.1956
24376W        W43123  17.162   6.014  11.758 -0.4244 -0.3350 -0.0162
24377W        W43124  29.254  32.564   0.069 -0.0782  0.0033  0.0338
24378W        W43125   0.215  31.792  22.411  0.0734 -0.0608 -0.0191
24379W        W43126  30.778   5.878  14.715  0.0148 -0.1016  0.0853
24380W        W43127  25.539   2.007  14.371 -0.2516 -0.0098 -0.0270
24381W        W43128  34.764  31.088  18.395  0.2687 -0.0608  0.0907
24382W        W43129  34.408  15.512  17.910 -0.2184  0.0098 -0.1815
24383W        W43130  34.808   3.666  22.895  0.4758 -0.2823 -0.0225
24384W        W43131   1.113  13.583   1.912 -0.1103  0.1029  0.0582
24385W        W43132  14.437  33.371  22.499  0.1583 -0.0925  0.2506
24386W        W43133  23.186  18.263   0.163  0.0814 -0.0534 -0.0102
24387W        W43134  13.536  27.590   1.069 -0.0160 -0.0979  0.0645
24388W        W43135  14.870   2.530  25.882  0.0373 -0.0812  0.1095
24389W        W43136  22.304  32.962  22.402  0.1337  0.0131 -0.0000
24390W        W43137  30.460   2.927  11.983  0.2198 -0.3832 -0.0123
24391W        W43138  31.522  14.736  12.979 -0.1728 -0.0408  0.1040
24392W        W43139  17.405  10.304  18.727 -0.1697 -0.1475 -0.0174
24393W        W43140  21.857  10.560  19.951 -0.1629  0.0240  0.3785
24394W        W43141  16.564   2.168  23.225  0.1018 -0.0766 -0.0362
24395W        W43142  32.481  27.860  26.155  0.2786  0.0091  0.0416
24396W        W43143  16.139  13.583   2.909 -0.1082  0.1191  0.0142
24397W        W43144  18.336  31.025   4.681 -0.0691  0.5632 -0.1162
24398W        W43145   0.108  15.364  25.082 -0.4402 -0.1484  0.1281
24399W        W43146  20.106  21.234   1.644 -0.1308  0.0342  0.2860
24400W        W43147  30.049   2.434  16.385  0.4141 -0.2640  0.3226
24401W        W43148  31.268  33.299  14.138 -0.2777 -0.0102  0.0708
24402W        W43149   5.600  32.930   1.078  0.4592 -0.0852 -0.0278
24403W        W43150  32.223   3.972   5.364 -0.5096  0.3129  0.2612
24404W        W43151  13.313  17.024   9.074  0.0673 -0.0720 -0.2822
24405W        W43152  28.470  11.517   8.143 -0.2544  0.0949 -0.0407
24406W        W43153   1.000  16.015  14.723  0.1329  0.1190 -0.1123
24407W        W43154  15.200  15.288  24.890 -0.1731  0.1637 -0.0955
24408W        W43155  10.472  20.721  22.321 -0.1713 -0.1382 -0.0075
24409W        W43156  33.878  20.499   9.446  0.5085 -0.1593 -0.0486
24410W        W43157   5.853   6.255   4.890  0.3147 -0.1338  0.1393
24411W        W43158  11.731  12.712   0.358 -0.1688  0.1800  0.2535
24412W        W43159  33.330   8.565  17.006 -0.0941 -0.0182  0.4562
24413W        W43160   4.008  21.714   3.208 -0.1872 -0.0014  0.0647
24414W        W43161  27.224  11.403  19.612 -0.0864  0.0850 -0.3295
24415W        W43162  20.256   1.154  15.311 -0.1519  0.0550 -0.0695
24416W        W43163  31.249  12.902  16.834  0.1428  0.0139  0.1062
24417W        W43164  24.500  15.157  13.575  0.1864  0.1752  0.2828
24418W        W43165  25.114  21.857  26.036 -0.0654  0.1706  0.1596
24419W        W43166  33.705  33.475   7.261  0.1816  0.2234 -0.0288
24420W        W43167  34.139  30.752   2.289 -0.3369 -0.0840  0.0584
24421W        W43168   8.257  12.300   8.590  0.1122 -0.0656  0.1448
24422W        W43169  28.768  23.275  10.253  0.4205  0.0348  0.0271
24423W        W43170  28.734   6.480  21.982  0.4256 -0.0830  0.1249
24424W        W43171   8.578   3.696  23.288 -0.1232  0.1715 -0.1978
24425W        W43172  19.770  34.896  15.906  0.1974  0.0522 -0.0978
24426W        W43173  13.541   5.397  21.062  0.4358  0.2011  0.0622
24427W        W43174  31.685   4.345  21.162 -0.0801  0.0186  0.2997
24428W        W43175  29.903   2.528   1.275 -0.0260  0.1161 -0.4596
24429W        W43176  10.099  11.555  13.112  0.1730  0.1946  0.2869
24430W        W43177  15.635  24.159  10.015 -0.0501 -0.1092  0.0532
24431W        W43178   9.860   1.169   3.458  0.2572  0.0630 -0.2430
24432W        W43179  20.678  30.584   1.430 -0.2809  0.3549 -0.0522
24433W        W43180  22.774  10.306  23.723 -0.2358 -0.1261 -0.0262
24434W        W43181  14.849  29.970   5.485 -0.1405 -0.1971 -0.0966
24435W        W43182  21.234   7.107  21.358 -0.0577 -0.1098  0.0152
24436W        W43183   7.409  23.421   3.773 -0.1854 -0.1440 -0.0700
24437W        W43184  33.816  18.516  24.448 -0.0265  0.1561 -0.4587
24438W        W43185  24.759   1.030   5.917 -0.0168 -0.3948 -0.2830
24439W        W43186   8.267  22.744   6.109  0.1030 -0.2098 -0.0491
24440W        W43187  27.201   9.131  17.421  0.2679 -0.0516  0.1331
24441W        W43188   8.868  32.152   7.738  0.2525 -0.0458 -0.1254
24442W        W43189   7.824  35.077  14.333  0.0218 -0.1178 -0.1730
24443W        W43190   4.286  25.830  22.853  0.0615  0.1175  0.0712
24444W        W43191   6.041   6.287  24.630  0.2057  0.5824 -0.0104
24445W        W43192  35.012  25.102  23.810  0.0497  0.1241  0.0479
24446W        W43193  34.729   5.987  25.020  0.0495 -0.0823  0.1194
24447W        W43194  15.847  21.313  11.223 -0.1485 -0.0068 -0.3673
24448W        W43195  33.653  18.163  24.755  0.0455  0.0687  0.2959
24449W        W43196  24.087  31.562  21.921  0.0996  0.3034 -0.1605
24450W        W43197  18.817   9.045   3.705  0.3237 -0.0375 -0.2786
24451W        W43198  10.017  18.752  25.483  0.1607 -0.2159  0.3218
24452W        W43199  12.450  21.779   0.828 -0.1079  0.1347  0.2006
24453W        W43200  24.444   2.864  19.224  0.1500  0.1475 -0.1663
24454W        W43201   5.813  25.782  12.224 -0.0449  0.0650  0.1209
24455W        W43202   9.927  16.187   8.496  0.1087 -0.0013  0.2543
24456W        W43203  32.934  34.124   7.116 -0.0572 -0.2616 -0.1187
24457W        W43204  23.243  24.246  24.079 -0.1022 -0.2393  0.0892
24458W        W43205  30.185  25.677   9.043  0.1698  0.4192 -0.1785
24459W        W43206  16.301  28.019   4.834  0.2495 -0.1140 -0.0244
24460W        W43207  20.110   5.617  23.998 -0.2719 -0.1105  0.0742
24461W        W43208   9.732   7.179  20.934 -0.1574  0.1179 -0.0637
24462W        W43209   9.230  31.580  13.358  0.3074 -0.2109  0.2593
24463W        W43210  29.275  19.001  11.389  0.1414  0.3029  0.1127
24464W        W43211  23.574  32.993  14.103 -0.1165  0.0576 -0.2089
24465W        W43212   3.317  25.596  23.000  0.2299  0.2676 -0.0831
24466W        W43213  16.246  23.771  15.329 -0.1530  0.0882  0.1811
24467W        W43214  28.760  35.082  12.943  0.0163 -0.0587  0.4551
24468W        W43215   9.585  19.656  25.385  0.1137  0.0455 -0.0531
24469W        W43216  15.579  12.867   6.315  0.5079  0.3214 -0.0363
24470W        W43217  18.990  15.534  20.661 -0.3231 -0.2007  0.0935
24471W        W43218  30.675  32.396  19.584 -0.0506 -0.4570  0.0817
24472W        W43219  15.683  29.971  20.079  0.0155 -0.4029  0.0192
24473W        W43220   8.839  23.881  12.392  0.2145  0.0960 -0.1925
24474W        W43221  21.352  20.656  23.562 -0.0860  0.0250  0.0984
24475W        W43222   8.823  18.320   1.881  0.1668 -0.2578  0.1448
24476W        W43223   8.518  28.606   0.506  0.0125 -0.4175 -0.1265
24477W        W43224   6.010  20.620   4.045  0.0870  0.1455  0.0455
24478W        W43225  19.046   7.967   3.892  0.2252  0.0958  0.0302
24479W        W43226  11.135  35.027  25.798  0.0505 -0.2930  0.0719
24480W        W43227   6.612  12.475  20.078  0.1497  0.0865 -0.1750
24481W        W43228   7.876   6.019   3.610 -0.3000 -0.0156  0.1578
24482W        W43229  13.301  20.223   1.861  0.3024  0.0391 -0.0266
24483W        W43230  23.732   4.378  17.457  0.5137  0.3133  0.1356
24484W        W43231  23.649  11.698  17.046  0.1436 -0.0165  0.0505
24485W        W43232  12.624  33.154  22.207  0.1478  0.0917  0.2942
24486W        W43233  11.730   6.607  25.992 -0.4728 -0.1276  0.0285
24487W        W43234   5.121  29.826  12.219 -0.3122 -0.0234 -0.1590
24488W        W43235  35.275  28.435   3.777 -0.0263  0.1913  0.0465
24489W        W43236  29.818   8.897  25.078 -0.4106 -0.1853  0.0806
24490W        W43237   5.582  22.196  19.618 -0.0614  0.3249  0.0847
24491W        W43238  12.595   1.061  25.073 -0.3095  0.0698 -0.5416
24492W        W43239  28.364   0.754  20.888 -0.2424 -0.1665 -0.1027
24493W        W43240  25.159   3.024  18.013  0.1325  0.0314  0.0206
24494W        W43241  33.015   0.257  24.990  0.0029 -0.0014  0.0270
24495W        W43242   4.547   2.900  21.762 -0.0071  0.2184  0.1780
24496W        W43243  13.200  33.583  23.853  0.1198 -0.0645  0.0510
24497W        W43244  35.072   9.383  18.271 -0.2153  0.0620 -0.3648
24498W        W43245  29.533   2.567  12.080 -0.0660  0.1343  0.2624
24499W        W43246  34.104   7.183   3.025 -0.0079 -0.0226  0.1509
24500W        W43247  17.590  26.444   2.717  0.2068 -0.0504 -0.1438
24501W        W43248   1.511  33.992  17.372 -0.0926 -0.0208 -0.1264
24502W        W43249  25.329  31.505  20.992  0.0348  0.1025  0.1374
24503W        W43250   4.954  25.392  23.803  0.1041  0.0051 -0.0633
24504W        W43251   0.066  33.583  24.011 -0.1381  0.0355  0.0365
24505W        W43252  35.362  31.065  15.171 -0.3886  0.0266 -0.0465
24506W        W43253  34.943  23.706  14.602 -0.4636  0.0112 -0.0422
24507W        W43254  17.492  27.116   1.803  0.2294 -0.4019 -0.2249
24508W        W43255  20.161   6.772   5.089  0.1210 -0.0313  0.1521
24509W        W43256  18.578  24.015   3.441 -0.5546  0.1447  0.2037
24510W        W43257  31.683   6.091   1.339 -0.1411  0.1138 -0.1125
24511W        W43258  10.610   3.199   0.288  0.2393  0.1743  0.0601
24512W        W43259  18.960   8.662  11.925 -0.1255  0.3759 -0.0319
24513W        W43260  22.767   2.004  25.732 -0.1363 -0.1910 -0.1580
24514W        W43261  23.613  19.904  12.675 -0.2759  0.4252  0.0376
24515W        W43262  33.667   3.701   3.813  0.0033  0.2022  0.2807
24516W        W43263   8.177   4.737   9.639 -0.2750  0.0361 -0.0055
24517W        W43264  24.686  21.481  14.392  0.0497 -0.5672 -0.1567
24518W        W43265  25.453  30.700  14.108  0.1153 -0.2293 -0.0034
24519W        W43266  30.685  20.733  10.362  0.3446 -0.1236 -0.0078
24520W        W43267  24.656  35.059   4.764 -0.3658 -0.1987 -0.2401
24521W        W43268  11.433  19.061  11.185  0.4621  0.0079 -0.0271
24522W        W43269  19.346  23.697  10.242  0.3792 -0.1215 -0.1195
24523W        W43270  13.862  23.328  26.007  0.1264  0.0236 -0.0182
24524W        W43271   7.383  31.738   0.843  0.3193  0.1508  0.0907
24525W        W43272  16.334  14.311  24.401  0.3775  0.0128 -0.3750
24526W        W43273  15.714  20.322   4.785 -0.0826 -0.1084 -0.2601
24527W        W43274  20.728   6.106  19.018  0.4269  0.0208 -0.0517
24528W        W43275   3.329   9.312   4.546  0.1344 -0.1290  0.0463
24529W        W43276  11.053  25.116  13.369  0.0503  0.3886 -0.1875
24530W        W43277   0.577   8.522  17.692  0.2384  0.2525  0.0073
24531W        W43278  31.681  34.236   2.077 -0.1569 -0.1125 -0.0590
24532W        W43279  13.907  16.011  11.077  0.0005  0.0106 -0.0712
24533W        W43280  34.627  22.809  11.260 -0.0156 -0.0001 -0.0190
24534W        W43281  12.029  27.736   9.704  0.0777 -0.1194 -0.0506
24535W        W43282   9.300  28.590  10.150  0.2188 -0.2015 -0.2184
24536W        W43283  34.390  13.569  22.047  0.1157 -0.1058 -0.0761
24537W        W43284  18.732  24.339  12.133 -0.0760  0.3390 -0.0114
24538W        W43285  24.425  11.247  12.714  0.0190  0.0300  0.0616
24539W        W43286   6.617   8.161  25.112 -0.0407 -0.0146  0.1630
24540W        W43287  13.490  29.774   2.257 -0.2686  0.1252  0.2573
24541W        W43288  22.734  13.870  15.790  0.1805 -0.0123 -0.1218
24542W        W43289  32.484   0.602   2.304 -0.0916 -0.1678  0.1046
24543W        W43290  33.038  15.652  18.970 -0.1020  0.1990 -0.1173
24544W        W43291  32.416  13.708  22.336  0.0263  0.0497  0.2206
24545W        W43292   0.669  12.548   2.488  0.1601  0.0009  0.1656
24546W        W43293  31.409  23.053  18.670  0.0111 -0.0951 -0.3508
24547W        W43294  21.679  24.910   6.394  0.1108  0.4330 -0.1208
24548W        W43295  18.973  15.137   1.131 -0.0073  0.0493 -0.2131
24549W        W43296  17.006  14.993  12.891 -0.0143 -0.0273 -0.0429
24550W        W43297  13.709  11.505  25.731  0.1024  0.0380  0.4147
24551W        W43298  30.448  28.295  12.390  0.1345  0.0241  0.2410
24552W        W43299   3.359  24.804  19.971 -0.0267  0.1273  0.1525
24553W        W43300   2.464   1.712   2.180  0.2696  0.2056 -0.2654
24554W        W43301   4.751  20.924   0.192 -0.0348 -0.2792  0.0879
24555W        W43302   5.732  24.599   9.770  0.0973  0.0083  0.2205
24556W        W43303   0.529  31.062  16.007  0.3100  0.1560  0.3595
24557W        W43304   3.261  17.932   0.533  0.0879  0.0386 -0.0774
24558W        W43305  18.020  34.131  18.062  0.2682  0.0774 -0.0073
24559W        W43306  22.970  15.448  18.132  0.0486  0.1082  0.0884
24560W        W43307  24.513   7.703  14.791 -0.2169  0.2634 -0.0377
24561W        W43308   7.050  21.683  25.636  0.0633 -0.0339  0.2551
24562W        W43309   2.340  23.269  16.217  0.1161  0.1285 -0.2311
24563W        W43310  16.932   6.822  25.119  0.2997 -0.1671  0.1079
24564W        W43311  33.461  33.533  18.659 -0.1404 -0.1264 -0.1152
24565W        W43312   5.626   9.085  19.475  0.5120  0.1535 -0.3269
24566W        W43313   5.985  17.416  20.667  0.0138  0.0638 -0.5774
24567W        W43314   1.885   6.879  18.256  0.1136  0.1059 -0.0806
24568W        W43315   8.304  10.920  20.825  0.0993  0.3490 -0.2913
24569W        W43316  33.484  30.814   5.027 -0.3396  0.1614  0.1108
24570W        W43317   4.413   7.760   0.475  0.0619 -0.1850  0.3819
24571W        W43318  31.151   0.050   4.215  0.0427  0.0206 -0.1077
24572W        W43319  25.211  32.800   4.511  0.1889 -0.1516 -0.1591
24573W        W43320   9.602  34.820  21.127 -0.1939 -0.2280  0.1553
24574W        W43321  22.980   1.904   4.379  0.1730 -0.1716  0.0050
24575W        W43322  24.691  25.690  11.744  0.0856  0.1427 -0.0900
24576W        W43323  24.324  10.948  15.171  0.0322  0.1556 -0.0935
24577W        W43324   0.248   6.213   4.846  0.2676 -0.3502  0.0643
24578W        W43325   4.792  33.052   8.836 -0.1155  0.1069  0.0566
24579W        W43326   1.192  32.853   3.617  0.0797  0.0243 -0.1663
24580W        W43327  29.038  28.994  20.286  0.1243 -0.0858 -0.0542
24581W        W43328  10.624   0.916  12.793 -0.1368  0.0204 -0.1930
24582W        W43329  35.199  23.576  23.717  0.1718 -0.1209  0.3060
24583W        W43330  19.457   2.110   6.050 -0.0540  0.0389  0.1307
24584W        W43331  13.440  19.285   1.634 -0.3524  0.3047  0.0954
24585W        W43332   7.223   0.669   0.571  0.0515  0.0585 -0.1528
24586W        W43333  30.939  19.149  16.139 -0.0519  0.1620 -0.2965
24587W        W43334  34.990   1.841  26.121  0.0069 -0.0294 -0.0670
24588W        W43335  16.302  12.493  20.225 -0.3567  0.3113  0.2932
24589W        W43336   1.179   4.069  18.650  0.0542 -0.2228  0.1467
24590W        W43337  24.497  17.903  16.186  0.1668  0.0195  0.3579
24591W        W43338  11.793   2.312   7.089 -0.2809 -0.3819  0.0140
24592W        W43339   4.250  34.581  24.921  0.3321  0.0647 -0.2219
24593W        W43340  23.819  11.570  16.473  0.1779  0.1323 -0.0149
24594W        W43341  13.847  32.320  12.874 -0.2992  0.2577 -0.0582
24595W        W43342  11.858  20.770   0.824  0.0785 -0.2123 -0.0302
24596W        W43343  11.010   8.704   3.999 -0.0631 -0.1006 -0.1858
24597W        W43344   2.055   0.826  18.391  0.2451  0.0923  0.1801
24598W        W43345  23.933   1.774   3.135 -0.1189 -0.0991 -0.2943
24599W        W43346  13.075  10.238   2.739 -0.3114 -0.0754  0.4080
24600W        W43347   0.315   2.037  22.235  0.2523 -0.3042 -0.3345
24601W        W43348  30.593   0.310  16.706 -0.0342  0.0149  0.0681
24602W        W43349  12.538  15.249   6.640  0.1242  0.0986 -0.3337
24603W        W43350   9.792   9.490   7.840  0.0615  0.1264  0.2111
24604W        W43351  31.895  29.013  20.005  0.0068  0.0605 -0.1154
24605W        W43352  17.110  20.548  12.146 -0.0128 -0.2301 -0.1316
24606W        W43353  31.838  28.950  14.964 -0.1805 -0.2187  0.0720
24607W        W43354  18.753  27.261   8.045 -0.4450 -0.0293 -0.2742
24608W        W43355  16.749  16.973   1.301  0.2767 -0.0266 -0.0875
24609W        W43356  26.481   6.122  22.947 -0.2769 -0.0459  0.1544
24610W        W43357  28.185  31.736  15.781  0.2389 -0.0293  0.2096
24611W        W43358  32.034  15.430  24.271  0.4190  0.1561  0.0879
24612W        W43359  10.063  16.924  22.898  0.1187  0.6326  0.1333
24613W        W43360  12.676  21.176  11.766  0.4900  0.2286  0.0561
24614W        W43361   0.303  26.901   2.187  0.0352  0.0508 -0.0424
24615W        W43362  10.049  13.982  24.947 -0.1404 -0.1660  0.0503
24616W        W43363   2.939   0.259   5.033  0.1928 -0.2898 -0.2297
24617W        W43364  10.954  25.797   3.251 -0.0776 -0.0991 -0.1165
24618W        W43365  13.845  21.829   4.365 -0.1704 -0.1779  0.0878
24619W        W43366  23.801  18.106  13.570 -0.3403 -0.0006 -0.0070
24620W        W43367  22.576  19.927  16.688  0.1125 -0.3430 -0.5459
24621W        W43368  31.738  13.940  10.763 -0.0873 -0.1992 -0.0895
24622W        W43369  18.366   8.916   6.461  0.0957  0.0861 -0.2377
24623W        W43370  30.962  11.275  16.312  0.0643  0.1422 -0.2333
24624W        W43371  16.928  23.924   7.918 -0.1585 -0.4155 -0.1339
24625W        W43372  30.326  14.288   9.503 -0.6322 -0.1182  0.1569
24626W        W43373  30.750  10.510   8.778  0.0378 -0.0626  0.1601
24627W        W43374  25.012  33.195   4.144 -0.0790 -0.2242  0.1095
24628W        W43375  17.031   2.481   5.356  0.2571  0.2101 -0.2454
24629W        W43376  20.729  23.673  18.726  0.0712 -0.1277 -0.1170
24630W        W43377  16.968   0.209   5.981  0.2775  0.0385 -0.1181
24631W        W43378   5.009   7.456   5.564  0.0031  0.2922  0.2950
24632W        W43379  13.557  11.397   2.157 -0.1726  0.0517  0.1197
24633W        W43380  12.869  23.730   6.257  0.3971  0.0317  0.2532
24634W        W43381  21.594   5.907   0.649  0.1836 -0.2666 -0.2460
24635W        W43382  26.807  15.360  14.138  0.1218  0.1609  0.2886
24636W        W43383  25.847  13.847  15.260 -0.1970 -0.4928  0.1480
24637W        W43384  22.383   9.443  21.869  0.2608  0.0146  0.0161
24638W        W43385  22.152  16.058  16.247  0.1701 -0.0790 -0.1578
24639W        W43386  29.736  19.452  12.086 -0.0051  0.1524  0.2384
24640W        W43387  16.297  31.685  11.322 -0.3315 -0.3248  0.2148
24641W        W43388  27.621   5.108  21.903 -0.0492  0.1148  0.0859
24642W        W43389  10.790  34.655  25.820 -0.1573 -0.1233 -0.2225
24643W        W43390  17.875  11.461   9.186  0.1310  0.1282  0.0758
24644W        W43391  24.715   7.941  22.976 -0.1081 -0.0571 -0.1582
24645W        W43392  30.946  12.042  15.616 -0.4242 -0.0559  0.4262
24646W        W43393  29.322  17.988  15.227  0.0806 -0.3781  0.1843
24647W        W43394   4.564  17.956  20.491 -0.1224  0.5445  0.0491
24648W        W43395  25.052  12.441  24.053 -0.1279 -0.2411  0.1996
24649W        W43396  35.352  35.267  21.728 -0.4541  0.0254  0.1474
24650W        W43397  28.344   4.893   1.255 -0.2172  0.0866  0.0003
24651W        W43398   6.388  27.359  24.189 -0.2708 -0.1405  0.2645
24652W        W43399  34.247  19.507  18.916  0.3508  0.0398  0.1625
24653W        W43400   5.196  32.288  12.903 -0.2372  0.1352  0.1499
24654W        W43401  14.916  11.365  22.471 -0.0036 -0.0667 -0.1840
24655W        W43402  28.246  13.543  22.508 -0.0799  0.5410 -0.2557
24656W        W43403   7.263  18.690   1.218 -0.0482 -0.1388  0.0791
24657W        W43404  23.376   5.317   1.627  0.4059  0.3624  0.1840
24658W        W43405  33.040  14.300   7.666  0.1205 -0.0441 -0.1777
24659W        W43406  20.591  15.935  16.173  0.1814 -0.0205 -0.0348
24660W        W43407  33.880  31.618  22.708 -0.0178 -0.1064 -0.2527
24661W        W43408   5.617  18.706  25.975 -0.0881 -0.0203 -0.0669
24662W        W43409  33.137   7.581  14.622 -0.0018  0.0051 -0.2175
24663W        W43410   1.782  12.339  22.894 -0.1585  0.3150  0.2549
24664W        W43411  15.706   1.214  17.985 -0.1129  0.0344 -0.2000
24665W        W43412  29.522   5.517  24.641  0.0828 -0.0374  0.0813
24666W        W43413   7.954   2.301  26.214  0.1548 -0.0256 -0.2505
24667W        W43414   8.113  28.349  22.071 -0.1821  0.0112 -0.1936
24668W        W43415   0.609  27.602  20.779 -0.1478  0.0609 -0.0066
24669W        W43416  23.098  31.670   5.034  0.1267  0.1816  0.3837
24670W        W43417   7.159  29.130   1.880  0.0513 -0.1023 -0.2517
24671W        W43418  18.309  25.788   0.313  0.0145  0.2463 -0.0806
24672W        W43419  10.305  25.327   8.906 -0.3329  0.0715 -0.0521
24673W        W43420  20.120  20.237  22.526 -0.0356 -0.1715  0.0117
24674W        W43421   5.651   6.878  25.104 -0.0024 -0.1805 -0.0361
24675W        W43422  14.128   7.470   3.054 -0.0322  0.0166 -0.0635
24676W        W43423  12.988  29.597   1.655 -0.0014  0.1267 -0.2358
24677W        W43424  31.675  10.096  12.006 -0.0167  0.4109  0.1469
24678W        W43425  17.107  22.618   3.872 -0.3600  0.2226  0.0935
24679W        W43426  15.932   2.782  20.555 -0.3096  0.2353  0.3334
24680W        W43427  30.212  22.688  15.028  0.2585  0.2625 -0.0194
24681W        W43428  10.528  22.578   1.020  0.0529 -0.4211 -0.0687
24682W        W43429   4.771  27.221  22.761  0.1490  0.1760  0.1462
24683W        W43430  19.825  15.273  24.073  0.0279  0.1632  0.0912
24684W        W43431  16.670  28.495  23.112  0.0758 -0.0812 -0.0160
24685W        W43432   1.321  22.191  23.697  0.0517  0.0834  0.0543
24686W        W43433   2.573  19.293  15.744  0.1343  0.1708  0.2625
24687W        W43434  22.992  18.221  23.350 -0.0587 -0.2367 -0.1391
24688W        W43435  10.115  13.666  22.662  0.2514  0.1571 -0.1593
24689W        W43436  16.251   5.451   8.630 -0.1968  0.0002  0.0547
24690W        W43437  13.309  29.922  16.904  0.0642  0.0806 -0.0613
24691W        W43438  26.725   2.151   1.527 -0.0435 -0.0902  0.4086
24692W        W43439  30.860  18.953  22.132 -0.3925  0.2764  0.0900
24693W        W43440  25.391  27.485   9.846  0.4003  0.0736  0.1411
24694W        W43441  32.936  15.583  18.109 -0.2166  0.0857  0.1883
24695W        W43442   2.540  32.098  24.763  0.0056  0.2133  0.2856
24696W        W43443  32.398  21.900   9.886 -0.0517  0.1775 -0.1049
24697W        W43444  25.458  31.884  19.211 -0.0391  0.1484  0.0440
24698W        W43445  25.316  26.874  14.268  0.0824  0.2352 -0.1479
24699W        W43446  17.944   2.432  10.484  0.0733  0.2084  0.0526
24700W        W43447  25.159   3.017  14.307  0.1853 -0.2475 -0.0485
24701W        W43448  10.455  31.458  10.830 -0.1105  0.3157  0.0821
24702W        W43449  10.403  13.927   8.357  0.0106  0.3175  0.1485
24703W        W43450   2.456  26.844  19.772  0.0954  0.1291  0.2714
24704W        W43451  19.237  27.080   2.355  0.1809  0.1594  0.0074
24705W        W43452  23.838  15.336  23.500  0.3787 -0.0565  0.3202
24706W        W43453  10.979  33.590   9.782 -0.2351  0.2499 -0.0415
24707W        W43454   4.175  13.215   5.308  0.0217 -0.0777  0.0308
24708W        W43455  23.698   2.237  24.853  0.1057  0.0867  0.2069
24709W        W43456   3.726   4.478   1.457  0.0541 -0.0111 -0.1397
24710W        W43457  28.794  32.990   5.913 -0.1002  0.0052  0.1572
24711W        W43458  31.833  33.065   0.716  0.1205  0.2193 -0.2233
24712W        W43459  27.098  15.087  21.635 -0.1923  0.1089 -0.0644
24713W        W43460  31.948   9.341  16.926  0.3704  0.1413  0.1005
24714W        W43461  27.815  28.486  20.446 -0.2721  0.2838 -0.1501
24715W        W43462   6.058  26.791  23.023 -0.0224 -0.1224  0.0168
24716W        W43463  15.483  25.507   3.862 -0.2418 -0.3527  0.1319
24717W        W43464  15.915  15.766  12.404  0.0555 -0.0749  0.0585
24718W        W43465   5.604  33.394  11.513  0.0575 -0.1142  0.0764
24719W        W43466  27.749  34.934  24.474  0.0201 -0.2301  0.0857
24720W        W43467  14.352   1.830   7.402 -0.1239  0.1269 -0.1602
24721W        W43468  30.920  25.671  20.102  0.0071 -0.0116 -0.1993
24722W        W43469  10.140   7.106   0.791  0.1478 -0.1474 -0.1987
24723W        W43470  27.950   5.543  25.374  0.0196  0.0722  0.2638
24724W        W43471  24.956  33.805  21.883  0.2851  0.1193  0.1101
24725W        W43472   7.678  20.271   8.857 -0.1157 -0.2390  0.2019
24726W        W43473  34.941  13.447  16.286  0.1571 -0.0463 -0.0620
24727W        W43474  24.659  35.010  19.660 -0.2601 -0.0518 -0.0826
24728W        W43475  17.860   2.370  26.201 -0.2099 -0.3192 -0.0161
24729W        W43476  16.991  24.476   4.257  0.0568 -0.1156  0.1066
24730W        W43477  16.377   4.577  24.911 -0.1869 -0.0416  0.0102
24731W        W43478  29.406  30.222   1.363  0.1107 -0.2618  0.2656
24732W        W43479  18.938   3.672   5.158  0.1274 -0.0717 -0.1181
24733W        W43480  20.843  11.286   8.369  0.3458  0.1028 -0.2525
24734W        W43481  17.616   4.717  25.356  0.0761  0.0754  0.0863
24735W        W43482  10.378   8.573   5.800  0.4366 -0.0597  0.0089
24736W        W43483  19.771   8.898  23.259 -0.1164 -0.1197  0.0590
24737W        W43484  29.101  17.622  21.565  0.0116  0.0998 -0.0066
24738W        W43485  12.047   8.466  12.582  0.0451  0.0621  0.2232
24739W        W43486   1.631  22.678   1.942  0.2427  0.2968  0.2625
24740W        W43487  30.555  34.586  19.608 -0.0588  0.0031  0.0020
24741W        W43488  25.238  16.077  11.305  0.0372 -0.3476 -0.0646
24742W        W43489   0.161   4.273   3.869  0.0944 -0.2459 -0.1320
24743W        W43490   5.827  23.007   6.884  0.1875  0.0254 -0.0660
24744W        W43491   2.591   4.191   1.335 -0.2065  0.1214  0.2314
24745W        W43492   5.177  25.175   3.615 -0.0878 -0.0426  0.0898
24746W        W43493  17.764   5.305  10.836 -0.0496  0.0979  0.0124
24747W        W43494  19.334  21.046  19.213 -0.0043 -0.0942  0.1414
24748W        W43495   7.344   0.857  24.342 -0.0611  0.0021  0.2385
24749W        W43496  10.087  22.065   3.130 -0.2433 -0.1773 -0.1594
24750W        W43497  26.619  33.118  17.855  0.0490  0.3795 -0.0704
24751W        W43498  25.980   7.881   9.783  0.2076 -0.2761  0.0644
24752W        W43499  34.754  21.426  24.880  0.0418 -0.0609 -0.2130
24753W        W43500  11.011  19.395   7.992 -0.0111 -0.1005 -0.2312
24754W        W43501  34.603   5.313  18.229 -0.0874 -0.0124  0.1592
24755W        W43502  21.251  34.711   4.199 -0.1826 -0.1778  0.2130
24756W        W43503   2.870   0.669   5.326  0.3388  0.1023  0.1505
24757W        W43504  27.827   1.375  15.111 -0.0931  0.3535 -0.0071
24758W        W43505   3.221  22.918   6.025 -0.0834 -0.0576 -0.3297
24759W        W43506  17.759  16.567   6.487  0.3149 -0.2006 -0.0425
24760W        W43507   1.113  20.570  13.159 -0.2956  0.0833 -0.2459
24761W        W43508  10.643   8.928  24.890  0.0678  0.0934 -0.1553
24762W        W43509   1.873  14.427  17.298 -0.0434  0.2262 -0.1442
24763W        W43510  30.434  32.673  17.308  0.0621 -0.0629 -0.0053
24764W        W43511   2.766  18.538  18.873 -0.0183 -0.1392 -0.0552
24765W        W43512  15.218  15.495   4.899  0.0536 -0.2036 -0.1486
24766W        W43513  34.655   6.801  19.996 -0.0219  0.3842 -0.3743
24767W        W43514  12.949   2.760  18.948  0.4034  0.0499 -0.0239
24768W        W43515  16.009   1.177   8.100 -0.2115  0.3257  0.2136
24769W        W43516  23.215  31.947  18.807  0.0713 -0.4200  0.4830
24770W        W43517   5.601  25.640  25.350  0.0860  0.2810  0.2410
24771W        W43518  24.954  30.358  13.276 -0.0342  0.0833 -0.2093
24772W        W43519  28.038  20.636   8.566  0.0713 -0.0256  0.2584
24773W        W43520  20.882  14.959  25.714  0.1258  0.0809  0.1290
24774W        W43521   3.012  31.844   2.401  0.2014 -0.0961 -0.1385
24775W        W43522  21.708  34.025  17.481  0.1897 -0.0608  0.1968
24776W        W43523  27.577   3.863  20.998  0.0358 -0.0963 -0.1375
24777W        W43524   2.642  21.056  18.455 -0.1709 -0.0217  0.1954
24778W        W43525  34.035   3.910  23.426  0.0933 -0.1137  0.2544
24779W        W43526   7.402  23.061   6.416 -0.3179 -0.0171 -0.1534
24780W        W43527   8.007  12.220  22.749 -0.1757  0.1841  0.0985
24781W        W43528   9.040  34.370   7.149  0.2163  0.0639 -0.1304
24782W        W43529  30.427  27.374  23.889  0.0009 -0.1561  0.1580
24783W        W43530  25.591  11.330  20.667  0.2889  0.1279 -0.1864
24784W        W43531   5.264  31.875   2.255  0.2549  0.0673  0.3488
24785W        W43532  33.264  19.083  13.210 -0.0601 -0.1945 -0.4183
24786W        W43533  28.846  30.059   1.953  0.3123 -0.2533  0.0335
24787W        W43534  22.295  19.125  24.510  0.1534 -0.3991  0.1017
24788W        W43535  34.739   0.835   2.421 -0.0151 -0.4510  0.2817
24789W        W43536  15.391  26.968   5.067 -0.0760 -0.0783  0.2866
24790W        W43537   3.255   4.627  17.279  0.1928 -0.4068  0.1162
24791W        W43538  30.467  21.629  16.638  0.1242  0.0550  0.2676
24792W        W43539  26.491  27.898  25.491  0.0142  0.0446  0.0676
24793W        W43540   3.509  23.707  24.750 -0.0144 -0.1679  0.1065
24794W        W43541  15.955   6.069  20.046 -0.1476 -0.2275 -0.1075
24795W        W43542  30.515  24.502   9.997 -0.2429 -0.0908  0.0397
24796W        W43543  12.575   2.318  18.932  0.0883  0.1202  0.0439
24797W        W43544   8.864   9.916   8.294 -0.0400  0.1346  0.2032
24798W        W43545   0.154   5.762  26.244  0.2187  0.0191 -0.2455
24799W        W43546  28.484  11.187  10.786 -0.0744  0.2460  0.0674
24800W        W43547   3.762   0.519   1.032  0.0542 -0.1582  0.1360
24801W        W43548  26.286   1.336  23.780  0.0399 -0.3246  0.4382
24802W        W43549  26.348  13.451  12.754 -0.0582 -0.1430 -0.0192
24803W        W43550  31.018  10.218   7.896  0.3573  0.2884 -0.2586
24804W        W43551  15.435   6.294   2.764  0.0967 -0.3825 -0.0334
24805W        W43552  24.071  14.628  21.010 -0.5860  0.0478 -0.0737
24806W        W43553  29.396  33.205  20.318 -0.0184 -0.0198 -0.0807
24807W        W43554  22.652  13.695  24.788 -0.0590  0.1061 -0.3091
24808W        W43555  11.679  26.447  12.682 -0.2037 -0.3164  0.1284
24809W        W43556  35.362  12.574  11.528  0.2173  0.0824  0.0413
24810W        W43557  27.617  21.406   7.695 -0.2512  0.1265 -0.2003
24811W        W43558  30.276  34.295   4.070  0.2447  0.3728  0.2473
24812W        W43559  21.370  14.492  23.959 -0.0367  0.0388  0.3764
24813W        W43560  33.446  13.722  11.514  0.0064  0.1304 -0.0283
24814W        W43561  27.090   5.022  21.893  0.1268  0.1870 -0.1804
24815W        W43562   6.977  25.961  23.588 -0.3887 -0.0310 -0.3671
24816W        W43563  19.168  20.023   1.424  0.0286 -0.0498  0.0247
24817W        W43564   6.017  13.693   2.536 -0.2812 -0.0373 -0.3327
24818W        W43565   1.799  26.817  23.204 -0.0119  0.0765 -0.2651
24819W        W43566  25.833   2.383   1.255 -0.0713 -0.0057 -0.2504
24820W        W43567  29.956   8.391  12.409 -0.1065  0.0858 -0.2693
24821W        W43568   1.881   1.487  20.329 -0.2059  0.0889 -0.1907
24822W        W43569  11.248  23.878   9.582  0.1678 -0.0706  0.2817
24823W        W43570  10.777  10.064  12.211 -0.1661  0.1317  0.2161
24824W        W43571  29.058   5.896  13.408 -0.0225 -0.2427 -0.2613
24825W        W43572  18.244  29.410  26.249 -0.0700  0.0646  0.4109
24826W        W43573  23.224  24.227   2.305  0.0380  0.2904  0.1456
24827W        W43574  16.498  25.041   0.198 -0.0060  0.0854  0.1455
24828W        W43575  22.904  34.912  20.841  0.2986  0.0412 -0.0123
24829W        W43576  13.474   7.022  10.268  0.1213 -0.1125 -0.0381
24830W        W43577  10.735  27.740  23.111 -0.2788 -0.1498 -0.0349
24831W        W43578   6.734  11.329   5.537  0.1855  0.0921  0.2426
24832W        W43579  19.441  10.976   4.000 -0.0819 -0.0305  0.0932
24833W        W43580   0.463   9.972  11.735 -0.1494 -0.2050 -0.0622
24834W        W43581   6.814  23.095   6.349  0.0957 -0.4089  0.0638
24835W        W43582   9.459  31.990  13.827 -0.1753  0.0469  0.1600
24836W        W43583   7.973  26.212   2.933 -0.0526 -0.0354  0.0213
24837W        W43584   8.768  31.630   7.009 -0.5041 -0.0703  0.3103
24838W        W43585  30.626  19.714   5.714  0.0609  0.2772 -0.0919
24839W        W43586  26.898   7.984  10.042 -0.0243  0.0871 -0.0808
24840W        W43587  11.163   6.564   6.472 -0.2417 -0.0394  0.1822
24841W        W43588  28.227   5.614  20.426 -0.0798 -0.0248 -0.0354
24842W        W43589  12.574   1.661   5.577  0.0977  0.1809 -0.0139
24843W        W43590  20.323   7.257   5.689 -0.1116  0.0026  0.1425
24844W        W43591  26.538  32.955   4.576 -0.2354  0.2453 -0.0642
24845W        W43592  31.868  21.731  25.640  0.1809 -0.0140  0.2076
24846W        W43593  15.947  33.515  21.111 -0.0792  0.3036 -0.0117
24847W        W43594  11.104  25.263  11.785 -0.0268 -0.4000  0.1586
24848W        W43595   4.252   8.928  21.363 -0.1684  0.0813  0.1293
24849W        W43596   8.360   6.528  23.832  0.0380  0.2558  0.0078
24850W        W43597  30.139  16.000   7.040  0.1411  0.2066  0.1040
24851W        W43598  24.243  25.544  11.954  0.0588 -0.0460 -0.0715
24852W        W43599  19.905  20.878  23.828  0.1222  0.2555  0.1313
24853W        W43600   0.865   9.850  15.698  0.2425  0.0224  0.1726
24854W        W43601  11.999  13.947  23.873 -0.2653  0.0691 -0.2289
24855W        W43602  28.436   1.792  13.785  0.0093 -0.0452  0.2109
24856W        W43603   1.029  21.881  22.276 -0.0458  0.2827  0.2266
24857W        W43604  18.339  27.850  22.774 -0.4334  0.2389  0.0476
24858W        W43605   2.916  26.028  25.205  0.2043  0.1733 -0.1782
24859W        W43606  22.467  32.128  17.217 -0.1273 -0.0408 -0.3064
24860W        W43607  10.238  10.812   3.079  0.0404  0.3483  0.3591
24861W        W43608  13.160  24.142   5.627  0.3223 -0.1812 -0.2609
24862W        W43609   9.496  13.866  10.341 -0.1697 -0.3006 -0.2377
24863W        W43610   8.713  29.627   5.116 -0.0412  0.0912 -0.0339
24864W        W43611  18.121  19.962   6.864  0.1462 -0.0765 -0.2188
24865W        W43612  32.292  15.303   7.215 -0.2433 -0.1838 -0.0474
24866W        W43613  35.293  11.288  13.614 -0.2432 -0.1663  0.1630
24867W        W43614  18.541   1.440  24.183  0.1518  0.4172 -0.3766
24868W        W43615  27.412  24.140  13.980  0.0920  0.2305  0.0688
24869W        W43616   9.279  18.411  26.107 -0.0668 -0.2198  0.1134
24870W        W43617  21.887  16.304  24.766 -0.0614  0.1855  0.1715
24871W        W43618  12.964  25.909  10.825  0.0529  0.1311  0.2251
24872W        W43619  15.959  15.237  24.425 -0.0019 -0.0372 -0.1749
24873W        W43620  11.638  10.497   0.910  0.1427  0.1577 -0.2085
24874W        W43621   0.886   7.090  21.514 -0.1118 -0.2467  0.3465
24875W        W43622  16.968  17.705  21.279 -0.0237  0.0203  0.1218
24876W        W43623  10.738  29.487   2.493 -0.1239 -0.1449  0.0167
24877W        W43624  11.904   4.124   7.999 -0.2595  0.1836 -0.1320
24878W        W43625   8.811   3.834   7.785  0.0547  0.1038  0.3060
24879W        W43626   1.832   4.845   6.670 -0.1206  0.2003  0.1006
24880W        W43627  15.551  14.305   3.413  0.1983  0.1178  0.0726
24881W        W43628   2.976  31.659  20.280 -0.4125  0.0727 -0.0468
24882W        W43629  15.065   9.976  20.339  0.0710  0.0166 -0.1159
24883W        W43630   6.415  23.861  10.354 -0.0761 -0.0021 -0.1191
24884W        W43631   6.640  17.688  23.965 -0.1675 -0.1086  0.1303
24885W        W43632  17.853   1.599  17.047  0.0152  0.0566 -0.4315
24886W        W43633  17.381   9.206   1.390  0.2004 -0.1247  0.2134
24887W        W43634  17.543   3.388  17.776 -0.0478  0.2206  0.3022
24888W        W43635  26.756  15.392  11.706  0.1462 -0.0895 -0.0553
24889W        W43636  17.979  17.343   9.153 -0.0514  0.1089  0.1305
24890W        W43637   0.620  32.916  21.833 -0.0577 -0.2304 -0.0532
24891W        W43638  25.102   6.602  24.470  0.0718  0.0397  0.0375
24892W        W43639   9.827   3.758  13.373 -0.1681 -0.1615 -0.1926
24893W        W43640   9.044   9.175   8.009  0.1776  0.0295  0.0712
24894W        W43641  10.600  16.731  22.500 -0.0600 -0.1411  0.1086
24895W        W43642   0.327   7.298   2.061 -0.0914  0.0213  0.2189
24896W        W43643  18.824  13.942   7.148  0.0362 -0.3198  0.1041
24897W        W43644  12.596  13.845  22.029  0.1501 -0.0492 -0.0369
24898W        W43645   3.355  17.229  15.812 -0.2040  0.0431  0.1906
24899W        W43646  16.424   6.995   9.373 -0.4931  0.0365 -0.0552
24900W        W43647   7.040   1.676  11.970  0.3280 -0.0337 -0.2573
24901W        W43648  22.439   7.564  25.549 -0.0786 -0.0521 -0.4105
24902W        W43649  31.117   3.315   5.119 -0.2426  0.2961  0.0805
24903W        W43650  31.486   8.836  13.671 -0.2456 -0.5183  0.1149
24904W        W43651  25.729  19.338  22.919  0.0705 -0.2304  0.0366
24905W        W43652  10.660  23.069   8.543 -0.1234  0.0071 -0.4832
24906W        W43653   2.739   3.907  15.195  0.2547  0.2001  0.2079
24907W        W43654  25.519  18.794  24.738  0.1649  0.3521  0.2011
24908W        W43655   2.134   9.771  22.833 -0.1316 -0.0922  0.1428
24909W        W43656   4.142   1.068  11.739  0.0235  0.0790 -0.1196
24910W        W43657  18.692   3.328   5.779 -0.0059 -0.3838  0.1041
24911W        W43658   7.656   5.270  12.706  0.3089 -0.1518  0.0852
24912W        W43659  13.823  22.231   8.553  0.2388 -0.0869 -0.0686
24913W        W43660   9.573  29.786  25.967 -0.1619  0.0594  0.2300
24914W        W43661  15.309  26.786  13.467 -0.3963 -0.0936  0.3451
24915W        W43662  19.127  15.675  20.149 -0.1642  0.0403  0.0667
24916W        W43663   9.877  31.904  10.660  0.2829  0.0772  0.1161
24917W        W43664  28.433   0.011  25.852 -0.3802  0.0462 -0.2513
24918W        W43665  13.476  12.307   3.314  0.0979 -0.0002 -0.2706
24919W        W43666   2.196  34.148  16.975  0.0136 -0.0362 -0.1645
24920W        W43667  10.616   7.174   2.342 -0.0041  0.3398  0.1564
24921W        W43668  15.377  33.526  22.939 -0.1269  0.1645  0.0728
24922W        W43669   8.627  24.194  11.765 -0.0122  0.5637 -0.1479
24923W        W43670  19.982   4.844  18.169 -0.2414 -0.1269 -0.2700
24924W        W43671  16.615  10.358  10.658  0.2948  0.1828  0.0110
24925W        W43672  17.136  24.421  12.900 -0.0426 -0.1758 -0.1252
24926W        W43673  16.322  13.138  14.070  0.2744  0.4135  0.1835
24927W        W43674   5.718   8.844  10.116  0.1212 -0.0266  0.1594
24928W        W43675  25.177  25.146   1.150 -0.0877 -0.0040  0.0235
24929W        W43676   5.332  32.514   3.341  0.0560 -0.1791  0.0673
24930W        W43677  12.275  26.566  14.548 -0.1078  0.1888 -0.1542
24931W        W43678  15.591  23.916   4.967  0.1118  0.1738  0.0973
24932W        W43679  29.381   7.323  15.780  0.1349  0.1636  0.1040
24933W        W43680  12.337   1.998  23.235 -0.2114  0.0507 -0.1918
24934W        W43681  33.311  33.417   1.233 -0.0010 -0.0628  0.0747
24935W        W43682  19.159   9.386  19.559 -0.1401  0.0352  0.3962
24936W        W43683  10.054  19.569   8.503 -0.1732 -0.2515  0.0633
24937W        W43684  29.797  24.747  17.726  0.1125 -0.0692 -0.0025
24938W        W43685  14.647  15.319  19.345  0.1235  0.0821  0.0806
24939W        W43686  10.908  33.502  11.717 -0.2174  0.0616 -0.0314
24940W        W43687  13.291  23.782  22.150  0.1382  0.1414  0.1385
24941W        W43688  20.427  30.815  19.645  0.1914  0.1050 -0.3674
24942W        W43689  28.155   9.970  10.974 -0.0218 -0.0502 -0.1091
24943W        W43690  16.050  27.635  23.947  0.0301 -0.0334  0.0059
24944W        W43691   3.697   1.449  23.361 -0.1499  0.3721 -0.0532
24945W        W43692  32.515  33.710  19.555 -0.1409  0.0189  0.0957
24946W        W43693  20.243  29.999   6.956  0.0406  0.3781  0.2949
24947W        W43694  29.842   9.717   9.885  0.2352 -0.3575 -0.1433
24948W        W43695  17.815  13.094  19.378 -0.2627 -0.0535  0.1812
24949W        W43696  34.892  16.046  20.035  0.2263 -0.2041 -0.1024
24950W        W43697   2.390   2.873  25.030  0.1511  0.0451  0.1283
24951W        W43698   3.422  15.215  24.444 -0.2090  0.0468  0.1362
24952W        W43699  11.845  10.157  20.688 -0.4129  0.0229  0.0553
24953W        W43700   4.424   8.776   3.706 -0.0912  0.1472  0.2365
24954W        W43701  11.794  14.445  12.157  0.0381 -0.1482  0.0656
24955W        W43702  10.717   9.394   5.515  0.0056 -0.2752  0.0963
24956W        W43703   8.486  29.959  13.548  0.3233 -0.3522 -0.2556
24957W        W43704  28.932  13.781  21.668  0.0559  0.3290  0.0363
24958W        W43705   6.246  12.353  17.787 -0.1431 -0.2533 -0.0954
24959W        W43706   9.631  31.676  23.436  0.0011 -0.0612  0.1434
24960W        W43707   1.347  28.195   0.318 -0.0919 -0.2496 -0.1912
24961W        W43708   1.832  12.657   0.397  0.2223 -0.1574  0.0529
24962W        W43709  18.844  15.373   3.471  0.2848 -0.1744  0.0765
24963W        W43710  27.314  30.601  17.934  0.2183 -0.0460  0.2455
24964W        W43711  26.843  29.841  13.975 -0.1772 -0.2038 -0.2560
24965W        W43712  32.723   8.112  12.509 -0.1314 -0.0012  0.0273
24966W        W43713  20.154  29.906  17.924 -0.0100 -0.1536  0.1231
24967W        W43714   3.601  25.481  25.340 -0.0648 -0.2016  0.1553
24968W        W43715   1.510  18.965   1.646  0.2206  0.0372  0.2628
24969W        W43716  12.865  14.805   6.222 -0.0568  0.3591  0.1328
24970W        W43717  27.138  21.108  23.379 -0.2503  0.0842 -0.1407
24971W        W43718  32.926  20.832  15.138 -0.0819  0.1222 -0.0501
24972W        W43719  23.963  29.006  11.913 -0.0980 -0.1977  0.2097
24973W        W43720  26.181  20.416  12.153 -0.1979 -0.2392 -0.2003
24974W        W43721  10.968   1.321  20.543  0.1085 -0.3178  0.1521
24975W        W43722  12.379   8.230   6.248  0.1779  0.0176 -0.0823
24976W        W43723   3.569  10.022   3.864  0.0737 -0.4411 -0.2413
24977W        W43724  26.864   1.723   4.204 -0.0275 -0.1954  0.1988
24978W        W43725   9.996  26.432   4.781  0.0667 -0.0396  0.2159
24979W        W43726   0.098   3.673  13.888 -0.1026 -0.0330 -0.2209
24980W        W43727   2.851  13.294   4.555 -0.5678 -0.0314  0.4846
24981W        W43728  22.165  14.656  24.526  0.1449  0.0242 -0.1964
24982W        W43729  25.509  26.752   1.444 -0.2927 -0.2124  0.3555
24983W        W43730  13.441  31.727   4.286  0.2815  0.2306  0.2453
24984W        W43731   6.498   6.275   6.014  0.0682 -0.0729 -0.0681
24985W        W43732  30.997  31.759  25.943 -0.0706  0.1403  0.1775
24986W        W43733   1.867   8.979  15.160  0.0008 -0.1009  0.2624
24987W        W43734  10.896  21.124   5.868  0.6346 -0.1394 -0.0150
24988W        W43735  23.923  29.196  15.275 -0.3173 -0.3670  0.1995
24989W        W43736  25.273  31.917   4.623 -0.0469 -0.0531  0.1961
24990W        W43737  17.545   2.785  25.488  0.1898  0.0385 -0.3306
24991W        W43738   5.930  28.151  11.511 -0.2419  0.0454  0.1301
24992W        W43739  13.393  29.285  15.487  0.5756 -0.0624  0.0512
24993W        W43740  25.736   3.112  16.571  0.1249 -0.0075  0.0187
24994W        W43741   9.365   8.916  21.861  0.4135 -0.1961 -0.0166
24995W        W43742  19.968   3.258   7.651  0.1451 -0.4277  0.0190
24996W        W43743   2.421   9.282  17.121  0.1781  0.1555 -0.1593
24997W        W43744  25.453  32.002   3.728  0.0418  0.1389 -0.1005
24998W        W43745  25.700  10.954   0.774  0.0552 -0.3716 -0.1633
24999W        W43746   7.312   1.500  14.277  0.0574  0.1019  0.0959
25000W        W43747  15.192  10.533  20.256  0.1601 -0.1059 -0.1724
25001W        W43748  12.871  26.629   1.658 -0.1135  0.1881 -0.1556
25002W        W43749  16.956  33.635   7.284  0.1722 -0.0489 -0.1057
25003W        W43750  13.928  10.482  25.289  0.4299  0.2264  0.0414
25004W        W43751  25.092  32.886  15.207  0.2607  0.1768 -0.0355
25005W        W43752  26.147  24.904   8.902 -0.0883  0.0300  0.1381
25006W        W43753  12.041   5.506  12.139 -0.2646  0.1812  0.1627
25007W        W43754  13.207  30.029  13.794  0.0282 -0.3081  0.1297
25008W        W43755  23.074   1.647  24.690  0.3200 -0.1539  0.0038
25009W        W43756  14.541  30.157   4.949 -0.1923 -0.3399 -0.1023
25010W        W43757   6.986  20.400  10.150 -0.0299  0.0158 -0.0417
25011W        W43758  12.051   6.200  25.948 -0.2598  0.4376 -0.4471
25012W        W43759  15.583  34.931  23.613  0.1889 -0.1593  0.0622
25013W        W43760  25.330  17.302  12.516  0.2881 -0.1604 -0.0780
25014W        W43761   8.053  11.947  12.433  0.1172  0.3438 -0.0225
25015W        W43762  26.703  18.429  21.047  0.1584  0.1479  0.3294
25016W        W43763  28.720  19.551   5.531  0.2787  0.2540  0.0135
25017W        W43764  32.230  33.241  17.334 -0.0112  0.2627 -0.0917
25018W        W43765   0.200  32.235  19.211 -0.0110 -0.0256 -0.1757
25019W        W43766  10.074  23.065  15.106  0.0830 -0.2131 -0.0214
25020W        W43767  15.526  18.101  24.828  0.1412 -0.0195  0.2287
25021W        W43768  11.442   1.414   0.479 -0.0668 -0.1949 -0.0292
25022W        W43769   3.495  12.929   2.604  0.0895 -0.0183  0.0614
25023W        W43770   6.281   1.005  11.156 -0.0699 -0.0573  0.0928
25024W        W43771   2.533  15.756  19.451 -0.1394 -0.1674  0.1403
25025W        W43772   9.212   7.192  19.923 -0.0202  0.1304  0.0836
25026W        W43773  11.953  19.637  25.813 -0.2076  0.1851 -0.4747
25027W        W43774  34.178  33.067   1.466  0.2499  0.3101  0.0523
25028W        W43775  20.407  32.266  26.174 -0.0791 -0.3299  0.4135
25029W        W43776  29.955  30.368   1.175  0.0904 -0.1352  0.0641
25030W        W43777  24.185  27.630  17.185 -0.0294  0.0835 -0.0596
25031W        W43778  20.230   2.183  18.840 -0.1434  0.0424 -0.0088
25032W        W43779  26.145  34.689  15.592  0.1130 -0.0605 -0.0161
25033W        W43780   2.456  33.735  17.225  0.2310 -0.2991 -0.1494
25034W        W43781  19.893   7.678   1.535 -0.3621 -0.0224 -0.2895
25035W        W43782  13.904  28.790  22.183 -0.0255 -0.1571 -0.1630
25036W        W43783  15.042  20.555   3.033  0.2484 -0.1532  0.2423
25037W        W43784  24.226   8.213  14.671 -0.1751  0.0735 -0.1543
25038W        W43785  24.214  17.732  13.203  0.0671 -0.1607  0.0751
25039W        W43786  34.363   4.256  19.083 -0.2004  0.2028  0.1320
25040W        W43787  26.529   3.004  12.521 -0.0334 -0.0238 -0.0966
25041W        W43788  11.135  23.721   7.245 -0.0080  0.0871  0.0823
25042W        W43789  34.225   9.339  21.040 -0.0950 -0.1164  0.3353
25043W        W43790  17.245  16.444  20.440  0.0441  0.1674  0.1414
25044W        W43791   9.902  15.850  11.273 -0.1017 -0.1061  0.1070
25045W        W43792   3.316  13.948  20.890 -0.2537  0.0644  0.1654
25046W        W43793   5.100  14.552  21.482  0.0134  0.2302  0.0748
25047W        W43794  24.756   0.721   7.349 -0.1054  0.1274  0.1756
25048W        W43795  34.039  27.773  14.414 -0.2497  0.1867 -0.0061
25049W        W43796  17.203   1.804  22.852 -0.0655 -0.0556  0.0476
25050W        W43797  21.702  18.354   0.206  0.0049 -0.1950  0.0953
25051W        W43798  13.452  16.437   4.913  0.0952 -0.0610  0.2870
25052W        W43799  12.488  31.776  14.501 -0.5012 -0.0479  0.1343
25053W        W43800  17.051  26.145   5.307 -0.2441 -0.3250 -0.1720
25054W        W43801  12.405  22.813   0.841  0.1443  0.1507  0.1533
25055W        W43802  24.467   0.286  17.644 -0.0618 -0.2565 -0.2154
25056W        W43803  12.911  30.424   1.130  0.0260  0.1194 -0.1863
25057W        W43804   4.195   4.392  18.260  0.1021  0.6490 -0.0528
25058W        W43805  31.584   8.346   9.130 -0.3347  0.1465 -0.0201
25059W        W43806   2.269   8.923   6.495  0.1652 -0.3063  0.0729
25060W        W43807  19.304  23.360   0.201  0.1247 -0.1020  0.1898
25061W        W43808  25.639  19.507   9.544 -0.1835  0.0424 -0.1497
25062W        W43809  10.432  15.180  23.422 -0.0875 -0.2608  0.1089
25063W        W43810  10.251  25.694  16.995 -0.0306  0.1718  0.2300
25064W        W43811   4.091   0.616   4.520  0.1369  0.0844 -0.0740
25065W        W43812  17.429  10.674  21.104 -0.1300  0.2150  0.1040
25066W        W43813  21.059   3.023   2.804 -0.2164 -0.0371  0.0085
25067W        W43814  28.720   8.076  18.796  0.0018 -0.0465 -0.0625
25068W        W43815  22.049  21.848   3.251  0.1864  0.2451 -0.0546
25069W        W43816  19.806  22.339  25.321  0.0439  0.3935  0.0798
25070W        W43817  31.808  30.697  23.652  0.1287  0.2181  0.0366
25071W        W43818  22.696   7.212  20.163 -0.2672 -0.4185 -0.1559
25072W        W43819  24.088   4.377  14.103  0.2308 -0.1910  0.0748
25073W        W43820  31.266  30.343  19.261 -0.0945 -0.1249  0.2417
25074W        W43821  13.520  28.672   6.703 -0.1003  0.2036  0.0190
25075W        W43822  29.620  19.084  22.232 -0.0910 -0.0886 -0.1184
25076W        W43823  26.460   7.631  16.367  0.0263  0.1611 -0.2132
25077W        W43824  10.550  17.422   9.440  0.1884  0.0038  0.0891
25078W        W43825  27.202  22.507  21.129  0.1973  0.1720  0.1871
25079W        W43826  12.863  12.666   5.006 -0.4405 -0.3318  0.0321
25080W        W43827  17.256  11.633   1.138  0.1128  0.2510  0.2450
25081W        W43828   9.851   3.124   9.907  0.0252  0.0438 -0.2321
25082W        W43829  29.328   0.667  11.378 -0.4271  0.1769  0.2877
25083W        W43830   0.419   9.381   1.185 -0.3826  0.0246 -0.2479
25084W        W43831   3.497   9.263   6.568  0.2054 -0.0540  0.1371
25085W        W43832   5.980  10.214   8.119  0.2339  0.1450 -0.0465
25086W        W43833  22.357  32.087  19.586  0.1783  0.3766 -0.2093
25087W        W43834  26.073  18.830  15.819 -0.2596  0.2801  0.0640
25088W        W43835   1.320  10.953   0.216  0.1832  0.2479  0.0969
25089W        W43836  28.308  25.135  24.974 -0.1036 -0.2842  0.0334
25090W        W43837  20.235  29.137  22.833 -0.1525 -0.0838  0.1475
25091W        W43838  33.765   4.945  22.327 -0.1938  0.0614 -0.1064
25092W        W43839  16.742  22.772  11.787 -0.1780 -0.1548 -0.0921
25093W        W43840  26.964   8.741  18.920  0.0761 -0.1798 -0.1422
25094W        W43841  31.278  10.916   9.465 -0.0117 -0.3043  0.0076
25095W        W43842  17.228  23.131   4.989  0.0635  0.0386 -0.0811
25096W        W43843  26.206  16.268  25.706  0.2809 -0.1125  0.2665
25097W        W43844  17.862  26.473   4.260  0.1043  0.2072  0.1907
25098W        W43845   1.650  21.824  16.073  0.0956 -0.5928  0.3971
25099W        W43846  11.851   7.692  20.150 -0.0200  0.1254  0.2872
25100W        W43847  35.345   6.899  14.733 -0.1693  0.0578  0.1304
25101W        W43848  14.758   1.384   8.254  0.1650  0.1648  0.0326
25102W        W43849  20.761   8.085  21.253  0.0273 -0.1336 -0.2492
25103W        W43850  10.047  16.906  25.755 -0.0139  0.2340  0.3464
25104W        W43851  16.474  23.566  12.852 -0.0368 -0.1042 -0.0448
25105W        W43852  27.682   9.217  20.293  0.1736  0.3563  0.0211
25106W        W43853  11.344  14.415  25.945  0.0928 -0.2232 -0.1575
25107W        W43854   1.090  30.556   8.712  0.2565  0.2048 -0.0379
25108W        W43855  31.198  25.973  21.938  0.0991 -0.0103  0.0933
25109W        W43856  19.127  32.369  24.892 -0.0215 -0.1967 -0.0478
25110W        W43857  14.223   3.430  10.793  0.3808  0.0805 -0.0447
25111W        W43858   0.635  22.989  15.640  0.0742 -0.3802 -0.4144
25112W        W43859  26.101  31.880  20.858  0.0856  0.4337  0.0651
25113W        W43860  12.569  24.737  17.633  0.1104 -0.1417 -0.2172
25114W        W43861  16.114  24.158   4.186  0.0229 -0.1568  0.3107
25115W        W43862   4.441  31.859  10.858  0.1111 -0.0282  0.2461
25116W        W43863  20.649  34.634  16.138  0.2626  0.1385 -0.2250
25117W        W43864  29.136  32.196  14.772  0.2785 -0.0624 -0.2961
25118W        W43865  17.616  13.531  24.009  0.0515  0.0314  0.0322
25119W        W43866  16.185  29.926   8.572  0.1048  0.0414  0.0894
25120W        W43867  11.382  28.415  23.617 -0.1327  0.0008  0.1357
25121W        W43868  29.248   5.275  15.661 -0.1798  0.1025  0.1027
25122W        W43869  30.409  32.223  18.592  0.2070 -0.1677  0.0642
25123W        W43870   4.200  12.514  19.295 -0.2502 -0.1051  0.1028
25124W        W43871  24.189  31.567  18.198 -0.1165  0.0498  0.1066
25125W        W43872  24.525  15.645  23.021  0.1835 -0.1009  0.2083
25126W        W43873  11.284   7.678  24.680 -0.3661  0.0501 -0.2748
25127W        W43874  29.241  26.242  17.026 -0.0023 -0.1742 -0.0512
25128W        W43875   2.041  30.526  18.541 -0.0932 -0.1142  0.2900
25129W        W43876   9.407  28.175  11.400  0.1097 -0.1147 -0.2605
25130W        W43877  21.338  21.926  24.679  0.1442 -0.0358 -0.1462
25131W        W43878  18.187   6.575  24.222 -0.2648 -0.2011  0.1581
25132W        W43879  24.061   1.467  26.056 -0.0285  0.0802  0.0195
25133W        W43880  30.065  32.274  21.153 -0.2304 -0.1266  0.1359
25134W        W43881   3.040  29.350  19.743 -0.1403 -0.1468 -0.1467
25135W        W43882  14.214  12.865  20.058 -0.1503  0.2466 -0.0755
25136W        W43883  21.921   4.821  25.469  0.1280 -0.2383  0.0845
25137W        W43884  11.246  33.238   5.716  0.0091  0.0391 -0.1816
25138W        W43885  34.998  16.606  10.173 -0.1406  0.0568 -0.2177
25139W        W43886  27.523   4.081  24.865 -0.1266  0.0352 -0.0914
25140W        W43887  16.867  27.592   8.693  0.0404  0.0961  0.0444
25141W        W43888  19.084  22.562   0.822 -0.2761 -0.1170 -0.1267
25142W        W43889  13.003  14.533   1.302  0.0240  0.0042  0.1981
25143W        W43890  12.396  11.505  19.431 -0.1284 -0.1045 -0.1216
25144W        W43891   2.066  23.186  18.142 -0.0366 -0.1513 -0.1219
25145W        W43892   3.073  33.473   5.320  0.0310 -0.1437 -0.1446
25146W        W43893   0.164   3.264  14.182  0.2818 -0.0394  0.1169
25147W        W43894  32.987   3.605   0.310 -0.2061 -0.1543 -0.3576
25148W        W43895  11.998   5.472  11.618  0.0144  0.1184  0.2376
25149W        W43896  11.517  28.515  14.275 -0.3044  0.0894 -0.0303
25150W        W43897  18.938   7.264  23.413  0.0287  0.0801 -0.1818
25151W        W43898   2.653   7.916  22.221 -0.3660  0.3192 -0.0593
25152W        W43899  27.361  23.015  25.233 -0.3064 -0.0418  0.1697
25153W        W43900  32.771  34.347  18.323 -0.0422 -0.2803  0.2803
25154W        W43901   4.530  21.978   1.793 -0.1311  0.0428  0.0891
25155W        W43902   4.608   4.447  17.899 -0.3412 -0.1036  0.0330
25156W        W43903  32.116  24.601  12.344  0.0896  0.0668  0.0199
25157W        W43904   2.444  28.433  24.305  0.1110  0.1944 -0.1674
25158W        W43905  27.151   9.127  22.471 -0.0171 -0.1728 -0.0646
25159W        W43906  12.671  26.204   8.789 -0.2876  0.0424 -0.0670
25160W        W43907  18.440   4.391   0.553  0.0691 -0.1552  0.1878
25161W        W43908  26.388   4.458  17.073 -0.0772  0.0533 -0.1040
25162W        W43909   7.263  22.490  22.292 -0.0718  0.0338  0.1815
25163W        W43910  29.794  17.817  23.880 -0.1283  0.0134  0.2423
25164W        W43911  25.842  18.405  15.960 -0.1342  0.0184 -0.1592
25165W        W43912  27.168   1.786   5.141 -0.0981 -0.1164  0.0249
25166W        W43913  19.357   1.383  24.138 -0.1582  0.0387 -0.2815
25167W        W43914  10.398  30.967  12.765 -0.0813 -0.1231 -0.2128
25168W        W43915  26.301  17.460  13.891 -0.0149  0.1287  0.2599
25169W        W43916  27.615  33.114   4.939  0.2386 -0.2556  0.1514
25170W        W43917  13.114  21.911   5.245 -0.0671  0.1731  0.0687
25171W        W43918   0.232  12.336   2.498  0.2575  0.3348 -0.2947
25172W        W43919  13.780  12.802  25.024  0.1376 -0.0637  0.0809
25173W        W43920  10.154  21.046   1.954  0.0291  0.1272 -0.0871
25174W        W43921  19.127  13.120  18.407  0.1663  0.0521  0.1012
25175W        W43922  31.521  34.994   3.015  0.2307 -0.0237  0.0940
25176W        W43923  34.267  30.150  21.903 -0.0530  0.0751 -0.0348
25177W        W43924  12.322   2.621  11.665  0.2240 -0.3408 -0.1681
25178W        W43925  16.604   7.277  13.270 -0.0944  0.0969 -0.2509
25179W        W43926  10.635  26.800  22.255  0.0208 -0.1054 -0.3151
25180W        W43927  22.767  23.767   1.542 -0.0262  0.0441 -0.0964
25181W        W43928  14.005   0.834  11.793  0.3433 -0.1316 -0.1290
25182W        W43929  26.791  12.214   9.755 -0.0868 -0.1544  0.3956
25183W        W43930   4.365   3.207  20.559  0.2957 -0.2642  0.0596
25184W        W43931   0.123  24.049   1.020  0.0962 -0.2482  0.0902
25185W        W43932  24.068   0.263   6.256 -0.1976  0.0947  0.2109
25186W        W43933   2.402   4.865  20.958 -0.2646 -0.0524  0.2559
25187W        W43934  29.524  11.042  15.792  0.3684  0.1273 -0.0111
25188W        W43935  29.250  34.147  16.463 -0.0721 -0.0211  0.0098
25189W        W43936   1.142  20.044  20.040  0.2215 -0.2141 -0.0997
25190W        W43937  19.594   1.015  22.721 -0.1394 -0.1069  0.0149
25191W        W43938  30.031  15.996  22.287  0.1213 -0.1410 -0.1217
25192W        W43939  21.310  22.395   6.266  0.3354  0.1009 -0.1026
25193W        W43940   3.650  27.315   2.137 -0.0102 -0.0351 -0.1514
25194W        W43941  32.221  27.292   0.572  0.1263  0.2518 -0.0256
25195W        W43942  12.604   6.603  22.860 -0.2551 -0.3082  0.0994
25196W        W43943   2.559  34.254  17.966  0.1848 -0.3287 -0.1877
25197W        W43944  14.546  23.759   4.980  0.0336 -0.0314  0.0871
25198W        W43945  34.908  21.177  13.663  0.1632  0.0328 -0.3279
25199W        W43946  28.805  17.696  24.966 -0.0752  0.0263 -0.1044
25200W        W43947  19.765  31.019   3.715  0.1664  0.1358 -0.0983
25201W        W43948  26.258   6.133  14.661  0.0388 -0.1079  0.0320
25202W        W43949   6.349   3.545  19.675 -0.4930 -0.2685 -0.3844
25203W        W43950   2.188  34.377  16.486  0.0612 -0.1474  0.0059
25204W        W43951  25.638  10.721  16.636  0.0802 -0.0512 -0.1792
25205W        W43952  11.422   6.194  24.193 -0.1861 -0.1239  0.1491
25206W        W43953   7.827   4.284  12.993  0.3778  0.4409  0.3574
25207W        W43954  21.465   6.576   5.368 -0.0436  0.0250  0.2913
25208W        W43955  13.281  13.003   1.523 -0.1620  0.1903 -0.3406
25209W        W43956  35.092  34.862   5.383  0.0614 -0.1485  0.0012
25210W        W43957  21.418  10.240  18.780 -0.0999 -0.1627  0.1974
25211W        W43958  25.897   6.687  25.858  0.4219 -0.1862  0.1353
25212W        W43959   5.631   2.020   5.247  0.0310  0.3998 -0.1695
25213W        W43960   2.516  31.290   0.825 -0.0456 -0.1359  0.4305
25214W        W43961  18.350   9.479  18.601  0.2286  0.3597 -0.0151
25215W        W43962  10.023  18.048   4.738 -0.0441 -0.2044 -0.1430
25216W        W43963  29.368  12.933  25.752  0.0646  0.3179 -0.0117
25217W        W43964   3.808  22.165   0.816  0.4573 -0.0296 -0.0490
25218W        W43965  10.616  25.176   4.568  0.0822  0.0782 -0.0414
25219W        W43966  10.673   7.789   1.824 -0.3401  0.1850 -0.0400
25220W        W43967  10.608  24.421   7.037 -0.0750 -0.1119  0.0619
25221W        W43968  14.722  19.116   3.077 -0.5340  0.1315  0.0117
25222W        W43969  24.337  26.826  23.201  0.2412  0.1315 -0.1583
25223W        W43970  15.313  16.935   7.028  0.0992 -0.0489 -0.3425
25224W        W43971  28.502  30.943  24.685 -0.2446 -0.1023  0.0915
25225W        W43972   5.697   9.012  18.167  0.0632  0.2456 -0.1131
25226W        W43973  23.246  27.538  25.644  0.0421 -0.1799 -0.1707
25227W        W43974  31.258   5.153  15.017  0.1275  0.1873 -0.0155
25228W        W43975  35.359  11.780  11.345  0.0889  0.2427 -0.1003
25229W        W43976   4.317   6.533  21.618 -0.3320 -0.0099 -0.4365
25230W        W43977  18.403   2.580   8.442  0.0626 -0.0677  0.3634
25231W        W43978  31.161  30.172  15.102  0.1350 -0.2483  0.2401
25232W        W43979  24.832   1.173   1.598 -0.0010  0.1192 -0.1286
25233W        W43980  24.845  19.782  14.973 -0.0208 -0.4285 -0.1338
25234W        W43981  32.726  17.514  10.082 -0.2271  0.0459  0.2008
25235W        W43982   2.903  26.526  25.477  0.3779 -0.0055  0.0268
25236W        W43983  32.215  21.692  16.514 -0.2604  0.0112  0.1699
25237W        W43984  24.538   0.305  19.966  0.1475  0.1569 -0.1984
25238W        W43985  32.606   0.805   6.021 -0.0379  0.1805 -0.0782
25239W        W43986  24.938  20.555  25.151 -0.2977 -0.0262  0.0778
25240W        W43987  12.363  21.170  11.334  0.2659 -0.2282  0.0952
25241W        W43988  33.737  32.576   2.033  0.1691 -0.1147  0.1473
25242W        W43989  11.760  27.947   6.585 -0.2281  0.0880 -0.0532
25243W        W43990  25.854   2.920  19.883 -0.2389  0.3318 -0.2281
25244W        W43991  11.346  26.098  14.152  0.0277  0.2387 -0.1715
25245W        W43992  26.689  16.961  24.127 -0.2980 -0.1017 -0.0313
25246W        W43993  34.157  34.749  24.962  0.0025 -0.1031 -0.2217
25247W        W43994  31.867   1.288  17.203 -0.2813  0.0076 -0.2872
25248W        W43995  20.181  17.715  21.169  0.0360 -0.1099 -0.0057
25249W        W43996  33.314  30.806   6.946  0.4438 -0.0266 -0.1373
25250W        W43997  25.610   5.408  12.484  0.1065 -0.0067 -0.1018
25251W        W43998  27.133   5.888  18.020 -0.1357 -0.3328 -0.0337
25252W        W43999  22.887   9.452   1.269 -0.1298 -0.1698 -0.0162
25253W        W44000  17.465  11.284   1.670 -0.0102  0.2761  0.1484
25254W        W44001  11.544  34.442   7.744  0.0068 -0.0071  0.0277
25255W        W44002  14.625  19.085   5.204  0.2069 -0.0758  0.0140
25256W        W44003   6.024   5.960  20.055 -0.0128 -0.2183  0.2257
25257W        W44004  23.214  23.135  14.129  0.0051 -0.0329 -0.0839
25258W        W44005  12.705  32.455  26.095  0.1018 -0.3188  0.3353
25259W        W44006  10.747   5.799  12.939  0.3946 -0.1555  0.2160
25260W        W44007  31.776  12.869  20.640  0.1797 -0.2495  0.5588
25261W        W44008  15.138  22.017   4.489 -0.2612  0.3096  0.2699
25262W        W44009  16.030  33.456  18.301 -0.2143 -0.1911  0.0616
25263W        W44010  30.621  22.772   9.388 -0.0558  0.1566 -0.0721
25264W        W44011  13.530  26.973  25.218  0.1576  0.1952 -0.0240
25265W        W44012  25.575   9.850  19.194 -0.1655  0.1915  0.3471
25266W        W44013  12.025  14.947  18.805 -0.1310 -0.0666  0.0131
25267W        W44014  21.766  12.470   5.149  0.0515 -0.3804  0.0150
25268W        W44015  27.132  34.041  22.985 -0.2825 -0.1890  0.3024
25269W        W44016  13.604   0.455  19.269 -0.0569 -0.2155  0.0319
25270W        W44017   8.257  28.399  15.073 -0.0139  0.1234  0.1347
25271W        W44018   7.701  34.143  22.809 -0.0959 -0.2406 -0.0425
25272W        W44019  15.068  15.204  23.065 -0.1368  0.0674 -0.1808
25273W        W44020   4.482   0.417   1.971 -0.0853  0.2356  0.1117
25274W        W44021  19.496   8.511  24.962 -0.2940  0.2200  0.2470
25275W        W44022  28.345  32.082   0.627  0.0935  0.1859 -0.1358
25276W        W44023  14.850  15.009  23.603  0.2313 -0.0410  0.0004
25277W        W44024   3.320  28.388   2.917  0.1074  0.2271 -0.0766
25278W        W44025  23.674  19.407   1.262 -0.3268  0.0117 -0.1565
25279W        W44026   8.907  11.144  20.107 -0.1596  0.3000 -0.1855
25280W        W44027  18.239  10.242  12.217  0.0114 -0.1198  0.2754
25281W        W44028  18.302  14.253   9.627 -0.2288 -0.2089 -0.3078
25282W        W44029  18.525  26.461  22.839  0.0392  0.2748  0.0045
25283W        W44030  32.062  24.902   9.311 -0.1447 -0.1331 -0.1309
25284W        W44031  19.796  19.765   5.926 -0.0876  0.1343  0.0233
25285W        W44032  29.216   9.395  21.140 -0.3315  0.0718 -0.0533
25286W        W44033   2.374   3.675  15.990 -0.3208  0.2412 -0.1303
25287W        W44034   6.912   7.325   0.898  0.3070  0.2114  0.1288
25288W        W44035  16.064  24.671  15.670 -0.1236  0.2354 -0.0235
25289W        W44036  16.217  11.183  24.504  0.1603  0.1024  0.1199
25290W        W44037   7.615  22.828   5.984  0.1623 -0.2682 -0.2146
25291W        W44038  16.101  32.279   6.359  0.1751 -0.3043 -0.3397
25292W        W44039  17.409  15.828  23.161 -0.0223 -0.0747  0.0970
25293W        W44040  11.752   1.316  23.803  0.0102 -0.0506 -0.0498
25294W        W44041  31.013  18.679   5.321 -0.0215 -0.0735  0.2474
25295W        W44042  16.815  26.447   8.606  0.0918 -0.3010 -0.0584
25296W        W44043  23.183  30.126  18.103 -0.2340 -0.0555 -0.1180
25297W        W44044  25.730  31.154  16.608  0.1974 -0.2122  0.1274
25298W        W44045  22.957   4.493   3.739  0.0070  0.1389 -0.0280
25299W        W44046  34.291  16.330  19.663 -0.0224 -0.0373 -0.2319
25300W        W44047  14.879  25.264   1.813 -0.2547  0.0933 -0.1953
25301W        W44048  29.550   1.537  22.391  0.2658 -0.0207  0.2114
25302W        W44049  25.878  31.053  14.943  0.0551  0.1943 -0.0071
25303W        W44050  34.154  24.659  22.539  0.1533  0.1217  0.1480
25304W        W44051  18.280  32.355  19.134 -0.0526 -0.3018  0.0692
25305W        W44052   0.613   5.444  14.134 -0.1791 -0.1165  0.1981
25306W        W44053  16.354   6.219  22.751  0.2178  0.1394  0.1125
25307W        W44054  25.856  11.153  16.356 -0.0923  0.0845  0.1016
25308W        W44055  27.235  18.373  16.842 -0.1026 -0.4053 -0.0528
25309W        W44056   1.037   8.568  24.559 -0.0383  0.0202  0.2664
25310W        W44057  28.926  24.930  16.058  0.1681  0.1311  0.1349
25311W        W44058  11.947   7.121  12.706  0.0053  0.3481 -0.1508
25312W        W44059  13.330  23.106   1.542  0.3817 -0.1413 -0.0393
25313W        W44060  19.101  35.105  23.372  0.0472  0.2029  0.1045
25314W        W44061  18.737   8.901  18.704  0.1534  0.0337  0.0600
25315W        W44062   3.963  18.555   3.797 -0.1898 -0.0377 -0.1332
25316W        W44063   6.323  31.558  12.969 -0.2140 -0.3941  0.1721
25317W        W44064   7.452  29.053  15.530  0.0157  0.0855 -0.0325
25318W        W44065  26.419  28.060  17.862  0.1545  0.1651 -0.4081
25319W        W44066   4.837   9.337   3.982  0.1682 -0.3826  0.2981
25320W        W44067   3.258   2.052   7.772 -0.0763  0.1114  0.0068
25321W        W44068  34.351  33.184  14.993  0.0205  0.0103 -0.2173
25322W        W44069   5.252  34.952  21.210 -0.2152 -0.2619 -0.0858
25323W        W44070  11.445  11.890  22.921 -0.0504  0.0487  0.1552
25324W        W44071  29.535  30.086  14.481  0.2289  0.2298  0.0755
25325W        W44072  10.846  31.512  11.921  0.2352  0.0048  0.0323
25326W        W44073  19.935   9.326  11.156 -0.2479  0.0007  0.3105
25327W        W44074  16.800  33.280  10.589  0.2337 -0.6853  0.0718
25328W        W44075  23.203  20.731  19.428  0.0906 -0.2552 -0.2239
25329W        W44076  25.137  32.463  25.406  0.3343 -0.0689  0.0909
25330W        W44077   9.537   1.831   3.014  0.0844  0.0263 -0.0320
25331W        W44078  28.517  24.272  21.489  0.2417 -0.1143 -0.0008
25332W        W44079  32.570  30.777  16.962 -0.2263 -0.0585 -0.0869
25333W        W44080   7.977  24.108  13.743 -0.1850  0.0370 -0.2702
25334W        W44081  31.679  17.815  25.689  0.1598  0.2915 -0.0570
25335W        W44082  33.751   3.027  20.826 -0.1884  0.1867  0.2222
25336W        W44083  17.614   5.666  17.950 -0.2745 -0.0422  0.1574
25337W        W44084   7.456  25.603   8.508 -0.2016 -0.0848 -0.2124
25338W        W44085  35.053  31.434  20.841 -0.1817 -0.1356 -0.2487
25339W        W44086   4.447  26.372   1.557  0.0806  0.0126  0.0475
25340W        W44087   0.947  22.253  13.592  0.1413 -0.1890 -0.0377
25341W        W44088   5.517  11.512   9.108  0.1159  0.1698  0.2639
25342W        W44089  34.333  15.195  15.345  0.0590  0.0982 -0.1347
25343W        W44090  32.568  18.434   8.058  0.1265 -0.1301  0.0719
25344W        W44091  31.309  26.729   1.920 -0.1118 -0.0221 -0.0310
25345W        W44092   1.957   6.590  21.436  0.2466  0.1361 -0.1342
25346W        W44093  32.429  31.562  14.115  0.0889  0.1446  0.0584
25347W        W44094  15.138  25.815  14.437 -0.0981  0.1393  0.0538
25348W        W44095   8.581  28.866   4.548  0.1334  0.1127 -0.1127
25349W        W44096   9.237   1.729  22.313 -0.2112 -0.1760  0.1475
25350W        W44097  33.692   4.093   2.367  0.0567  0.1917  0.3197
25351W        W44098  23.257  33.925  13.666 -0.2088  0.0739 -0.3360
25352W        W44099  15.902   5.088   7.293  0.3173  0.0032  0.0835
25353W        W44100   8.076  26.636   2.044  0.2422  0.3384 -0.0891
25354W        W44101  16.864  23.992  11.488 -0.0254  0.1480  0.3588
25355W        W44102  23.886   3.899  13.453 -0.0689 -0.1272 -0.2013
25356W        W44103  32.029   5.679   2.930  0.0451  0.3194  0.2515
25357W        W44104   9.609   7.906   4.633  0.0370 -0.0645 -0.0842
25358W        W44105  17.967   8.870   7.131  0.0306 -0.1579 -0.0705
25359W        W44106   6.498  30.013  10.984  0.0676  0.2734 -0.0482
25360W        W44107  21.871  19.311  21.415  0.1053  0.1203 -0.0160
25361W        W44108   3.846  15.453  15.730  0.1825 -0.2373 -0.2576
25362W        W44109   3.166  32.196   5.341 -0.1363  0.0443 -0.2071
25363W        W44110  31.935  16.407  16.676 -0.2647  0.0964 -0.1585
25364W        W44111  10.699   1.333  14.374 -0.1479 -0.0518 -0.0568
25365W        W44112  18.016  25.070  19.925  0.0600 -0.0727  0.2588
25366W        W44113   2.688  17.331  18.053  0.2087  0.0993  0.0421
25367W        W44114   7.776  31.723  11.097 -0.2794 -0.2460  0.1267
25368W        W44115  17.031   6.776  10.316 -0.0135 -0.1875  0.2481
25369W        W44116   7.766  25.993   5.275  0.4626 -0.3671  0.0045
25370W        W44117  31.630  10.784  24.062  0.1822  0.1978 -0.0752
25371W        W44118  17.881  24.876   8.486 -0.3716 -0.1989  0.2642
25372W        W44119  10.884  20.969  15.627 -0.3165  0.1875  0.0818
25373W        W44120  19.534  20.440   2.416  0.1235 -0.1442  0.1770
25374W        W44121   9.911  24.130  11.696  0.0749  0.1870 -0.3842
25375W        W44122  11.213  28.915  23.110  0.0215 -0.0640 -0.4308
25376W        W44123   8.232  10.212  18.147  0.0967 -0.0991 -0.0244
25377W        W44124  15.714   3.009  23.329  0.1490 -0.1219 -0.1742
25378W        W44125  25.321  33.095   2.477 -0.1169  0.1908 -0.0728
25379W        W44126  34.504  13.187  16.136 -0.5018  0.3271 -0.0207
25380W        W44127   7.749   6.042  12.254 -0.1396 -0.3737 -0.1469
25381W        W44128  18.883  22.660   7.249 -0.0484  0.0159 -0.1007
25382W        W44129  23.078  32.611  12.278  0.1847 -0.1257 -0.2552
25383W        W44130  14.944   2.476   4.873  0.1873 -0.0327  0.0934
25384W        W44131   0.621   3.567  17.068 -0.2065  0.1968  0.0787
25385W        W44132  22.179   9.479  22.976  0.1601  0.2560 -0.1956
25386W        W44133   2.174  10.302   2.337 -0.2683 -0.0349 -0.1109
25387W        W44134  13.887  10.262   5.265  0.4000 -0.0452 -0.0882
25388W        W44135   5.228   5.689  26.251 -0.0848 -0.2547  0.3043
25389W        W44136  18.015  17.566  23.015 -0.0328  0.1338  0.3942
25390W        W44137   8.465   9.881  20.874  0.0875 -0.2151  0.2590
25391W        W44138  13.112   3.526   5.397  0.0081  0.0877 -0.0761
25392W        W44139   6.495  18.932   1.718  0.0346  0.0778 -0.0243
25393W        W44140  11.096  26.480  10.151 -0.1503  0.0115 -0.1650
25394W        W44141  12.659  13.786  14.359  0.4905 -0.0737 -0.2704
25395W        W44142  12.123  12.519   6.811  0.0822  0.1891  0.0792
25396W        W44143  35.244  12.915  11.882 -0.1326 -0.0831 -0.0550
25397W        W44144  25.987   2.580  13.768  0.0034 -0.2212 -0.2782
25398W        W44145   8.266   2.768   5.219  0.0925  0.0677  0.0202
25399W        W44146  29.735   3.636  22.322 -0.2227 -0.4679  0.1615
25400W        W44147  18.839  27.608  20.638 -0.1772  0.2234  0.4101
25401W        W44148   0.480   7.070  13.710  0.0325  0.1277 -0.0423
25402W        W44149  30.435   4.189  11.816  0.1568  0.1078  0.0114
25403W        W44150  20.114  22.281   9.536 -0.0341  0.0525 -0.2853
25404W        W44151   8.491   2.439  26.216 -0.0942 -0.1754  0.1220
25405W        W44152  18.614  33.128   0.233 -0.2541  0.1986  0.0196
25406W        W44153  29.745   6.564  12.664 -0.2601  0.0695  0.0343
25407W        W44154   4.010  10.499  16.894  0.0634  0.2288 -0.2147
25408W        W44155  17.555  11.976   9.088 -0.0610  0.0410  0.3073
25409W        W44156  12.551   7.942   2.240  0.0352  0.0355  0.2342
25410W        W44157  20.261   0.131  17.166 -0.2326  0.1370 -0.2069
25411W        W44158  14.829   4.666  10.419  0.0022  0.0366 -0.0663
25412W        W44159  34.231   1.632  19.961 -0.0857 -0.2455  0.0399
25413W        W44160  26.323   3.220  22.949  0.0897 -0.0817 -0.0076
25414W        W44161  12.657  16.110  22.986 -0.0400 -0.0779 -0.2759
25415W        W44162  28.888   5.193  21.278  0.1198 -0.1871  0.1080
25416W        W44163   2.740  15.204  17.681  0.0283  0.0325 -0.2719
25417W        W44164   3.120  31.420   9.088  0.2163 -0.2504 -0.0461
25418W        W44165  21.394  21.769  16.038 -0.2170 -0.1834  0.2384
25419W        W44166  14.770  33.603  10.996 -0.0461 -0.0971  0.0816
25420W        W44167  12.223  20.015   2.287 -0.1710 -0.0209 -0.1044
25421W        W44168  26.752  19.849  19.089  0.2327 -0.1947 -0.0078
25422W        W44169  33.539  14.986   7.328 -0.1230 -0.2022  0.2279
25423W        W44170  31.164  18.628  19.846 -0.0221 -0.0162  0.1353
25424W        W44171  17.022   0.963   4.351 -0.1599  0.0590  0.0619
25425W        W44172   9.302   4.945  20.505 -0.1678  0.1694  0.0052
25426W        W44173  24.761  10.194  14.572  0.2808 -0.1099  0.1483
25427W        W44174  25.535  22.324  12.450  0.1039 -0.1289  0.1615
25428W        W44175  18.194  13.758  18.502 -0.0363 -0.1123  0.0053
25429W        W44176  23.319  11.233   2.403  0.1082 -0.0541  0.0015
25430W        W44177  18.901  13.766   4.788 -0.2284  0.3714 -0.0374
25431W        W44178  26.607   1.116  16.023  0.2312 -0.0450 -0.2514
25432W        W44179  26.397  13.516  13.586 -0.0510  0.2342  0.0244
25433W        W44180  27.367  27.089   2.663 -0.1166  0.1765 -0.5857
25434W        W44181   0.361  13.963  10.054 -0.1046  0.1449  0.1459
25435W        W44182  16.121  14.187  24.823 -0.5484  0.3688  0.0833
25436W        W44183   9.477   8.912   7.984 -0.0186  0.0503 -0.1689
25437W        W44184  12.859  22.497  12.554  0.3121 -0.1834 -0.0151
25438W        W44185  29.060  10.386  16.099 -0.0561 -0.0471 -0.1601
25439W        W44186  28.739   1.718   4.653  0.1790  0.0042 -0.1106
25440W        W44187  34.013  30.512   5.320  0.2844  0.0756  0.2715
25441W        W44188   2.045  23.960  17.514  0.0236  0.1982 -0.3326
25442W        W44189  23.200  15.888   0.784  0.0184  0.1234 -0.0781
25443W        W44190  15.554  32.130  25.561 -0.1140 -0.3424 -0.2349
25444W        W44191  27.872   7.946  22.495 -0.0898 -0.0205 -0.1076
25445W        W44192  16.765  16.136  19.439 -0.1417  0.3659 -0.2134
25446W        W44193  33.034  15.977  17.745  0.2540  0.2249 -0.3595
25447W        W44194  14.287  22.035   3.522  0.0383  0.0337  0.1808
25448W        W44195  19.006  28.157  20.988  0.1041  0.2819 -0.0196
25449W        W44196  13.754   8.591  19.688 -0.0269 -0.0201  0.0891
25450W        W44197  26.739  22.570  16.727 -0.0546 -0.2770 -0.2158
25451W        W44198  15.746  28.184  10.199  0.1028 -0.0204  0.0939
25452W        W44199  25.338  14.616  10.004  0.0517 -0.0139  0.1505
25453W        W44200  13.791  23.895  14.573  0.1232  0.0311  0.1253
25454W        W44201   7.436  19.603  22.144 -0.0005  0.4916  0.2148
25455W        W44202  34.402   6.259  15.312  0.1184 -0.0447  0.2980
25456W        W44203  23.865  26.867  16.534 -0.2077  0.0707 -0.0343
25457W        W44204  24.495   9.651  13.330 -0.1409  0.2215  0.0474
25458W        W44205  34.781  23.825  10.721 -0.2276  0.1986 -0.3574
25459W        W44206  16.811  34.428  18.856  0.0495 -0.2663  0.0144
25460W        W44207  19.708  29.058   5.963  0.0719 -0.0287 -0.3306
25461W        W44208  16.690   7.856  21.356 -0.1258  0.1514  0.1008
25462W        W44209  18.977  26.120   2.369  0.2306 -0.0914 -0.3465
25463W        W44210  15.861  10.861   2.438 -0.0944  0.1274 -0.0115
25464W        W44211  25.824  32.740  12.183  0.1295  0.1757  0.1540
25465W        W44212   1.634  18.028  19.743 -0.0082 -0.0993  0.1557
25466W        W44213  17.445  31.895   3.278  0.1130 -0.2259 -0.1621
25467W        W44214  13.350  31.044  15.870 -0.1009 -0.1838  0.0148
25468W        W44215  32.144  14.701  16.405 -0.1830 -0.0461  0.0053
25469W        W44216  21.452  14.160   3.016  0.1886 -0.2047  0.0599
25470W        W44217  13.502  30.149  10.674  0.1955 -0.2204  0.0393
25471W        W44218  22.666   1.102   5.558 -0.1125 -0.0283 -0.1694
25472W        W44219  11.688   0.950   5.317 -0.0672 -0.1551  0.1327
25473W        W44220  10.705   9.529   4.527 -0.0500 -0.0654 -0.1997
25474W        W44221  34.693  15.728  22.267  0.3132 -0.0167 -0.1053
25475W        W44222  12.286  30.932  24.701 -0.1097 -0.1362 -0.0656
25476W        W44223  20.583   8.428   3.812  0.0943  0.3084 -0.0828
25477W        W44224  34.905  19.429   6.909  0.1108  0.1404  0.1279
25478W        W44225  19.110  30.520  24.931 -0.0208  0.1866 -0.2127
25479W        W44226  29.795   5.225  18.486  0.1393  0.4267  0.0259
25480W        W44227   7.157   3.361  22.366 -0.1039  0.0234 -0.0122
25481W        W44228  28.492  28.950  23.378 -0.0592  0.1814  0.1295
25482W        W44229  26.350  10.473  12.932 -0.3541 -0.2326 -0.0974
25483W        W44230  24.337  33.341  15.641  0.0464 -0.1282 -0.0996
25484W        W44231  17.977  13.217   8.766  0.0008 -0.0332 -0.3196
25485W        W44232   2.075  16.310  18.417  0.2129 -0.0447 -0.2928
25486W        W44233  28.507  29.622  11.832  0.2694  0.1135 -0.1224
25487W        W44234  14.526   4.237   2.371  0.0335 -0.0174 -0.0071
25488W        W44235   9.953  22.792  23.401  0.1164  0.0412 -0.0150
25489W        W44236  29.764  21.685  23.661 -0.1997  0.1709  0.0560
25490W        W44237  16.049  18.569   6.982 -0.1607  0.2166 -0.0204
25491W        W44238  32.674  23.191  23.857 -0.1564  0.2662  0.0411
25492W        W44239  20.865   9.499  16.103  0.3159 -0.0609  0.1015
25493W        W44240  33.483   3.980  19.220 -0.0162  0.1127  0.1671
25494W        W44241  33.729   5.764  23.792  0.0921  0.0604  0.3035
25495W        W44242  15.553  12.052   5.032  0.0095  0.1211  0.0807
25496W        W44243   7.950  15.839  11.492 -0.0936 -0.1083 -0.0955
25497W        W44244   7.131  32.479   7.878 -0.1654 -0.0257  0.0853
25498W        W44245   7.431  34.269  20.875  0.2798 -0.1086  0.3248
25499W        W44246  12.360   9.377   9.709  0.1969  0.3374 -0.2039
25500W        W44247  11.412  32.955   7.788 -0.0042 -0.0965 -0.1407
25501W        W44248  32.219  30.207   0.335  0.0231 -0.1992  0.1273
25502W        W44249   7.033  28.356  23.645  0.0321 -0.0605 -0.0603
25503W        W44250  26.239   5.110  19.604 -0.2557 -0.0069 -0.0124
25504W        W44251   9.521  31.830   5.707 -0.0119 -0.1641  0.0968
25505W        W44252  31.902  25.116  24.289  0.0402 -0.0207  0.2156
25506W        W44253  14.918   7.609  24.649 -0.2593 -0.1973 -0.0889
25507W        W44254   8.836  15.993   9.878  0.0733  0.0502  0.1573
25508W        W44255  22.842  11.724  20.974 -0.1426 -0.1221  0.3534
25509W        W44256  18.907   8.677   7.522 -0.1024  0.2807  0.2246
25510W        W44257  24.857  16.138  20.789  0.0181 -0.0508  0.1927
25511W        W44258   7.352  21.929  24.120 -0.0983 -0.0277 -0.3585
25512W        W44259   7.742  23.935   2.851 -0.2691 -0.0631 -0.1347
25513W        W44260  21.397   8.247  25.579 -0.1932 -0.1665 -0.0162
25514W        W44261  29.156  18.511  10.308 -0.1365 -0.0450  0.1079
25515W        W44262  28.338  21.514  15.226 -0.0069 -0.3068 -0.3142
25516W        W44263   0.471   9.988  12.445 -0.1618 -0.2433  0.0915
25517W        W44264  33.268  18.363  17.158 -0.1624  0.0175  0.3818
25518W        W44265   1.287  13.045   2.635 -0.2810 -0.1221 -0.1714
25519W        W44266  26.887   5.139  11.654  0.0079  0.0681  0.1142
25520W        W44267  14.692  15.046  24.942  0.1322 -0.1534 -0.1241
25521W        W44268  15.978  34.225  22.373  0.3364  0.1129  0.1319
25522W        W44269   0.094  32.079  22.006  0.5329 -0.2025 -0.2517
25523W        W44270  22.584  14.898  23.301  0.1721 -0.1014 -0.2084
25524W        W44271   0.975   0.492   5.813  0.0739 -0.2164 -0.1525
25525W        W44272  14.665  29.451   5.991  0.0392  0.0860 -0.2102
25526W        W44273   8.087  33.934  12.507 -0.0762 -0.1324 -0.2862
25527W        W44274  31.828   8.566  23.100  0.2014 -0.2954 -0.0679
25528W        W44275  20.022   8.390  25.842 -0.0942 -0.0102 -0.2412
25529W        W44276  33.087  18.702  22.853 -0.3767  0.0129  0.1019
25530W        W44277  26.291  14.259   5.603 -0.1531 -0.2154  0.2378
25531W        W44278  12.397  32.378   8.479 -0.1777  0.0098 -0.0092
25532W        W44279  12.648   4.829   7.166 -0.0508  0.1472  0.3268
25533W        W44280  27.372   9.841   9.138  0.0639 -0.1573  0.0674
25534W        W44281   2.393  20.208  12.655  0.0517  0.2269  0.0188
25535W        W44282  30.559  19.917   6.637  0.1640 -0.1126  0.0481
25536W        W44283   1.894  28.861   2.510  0.1458  0.1953 -0.0510
25537W        W44284   8.299  25.994   3.244  0.0468  0.0580  0.0970
25538W        W44285  11.355   5.145   4.586 -0.1207 -0.0230 -0.1328
25539W        W44286  15.467  26.259  22.345 -0.1916 -0.0781 -0.3083
25540W        W44287   6.563  21.727  20.514  0.1365 -0.0191  0.3502
25541W        W44288  16.252  33.831   8.213 -0.0577 -0.1863 -0.3332
25542W        W44289  17.511  29.044   4.299  0.2235  0.2118 -0.0662
25543W        W44290  21.465  26.041   1.624  0.2695 -0.2828 -0.1762
25544W        W44291  15.718  20.921  23.241 -0.1635  0.0782  0.3194
25545W        W44292   4.311  14.465   6.235 -0.2808 -0.0849 -0.0569
25546W        W44293  15.693   6.003   0.215 -0.1403  0.1204 -0.0860
25547W        W44294  12.059  25.714  26.194 -0.0771 -0.0700 -0.4552
25548W        W44295  30.152  31.643  15.836 -0.0259  0.0440  0.2859
25549W        W44296  20.867  18.078   2.108 -0.1683  0.1413 -0.0026
25550W        W44297  35.261   2.456  17.109  0.0422  0.0350  0.4104
25551W        W44298  12.412   6.018   6.608 -0.1028 -0.1668  0.0213
25552W        W44299  31.314   1.004   1.766 -0.0391  0.0650  0.1441
25553W        W44300  28.554  27.211  16.783  0.2074 -0.2339  0.1146
25554W        W44301   5.847  14.766   6.940  0.1963 -0.0849  0.0589
25555W        W44302  18.763   3.726   6.063  0.3028 -0.0680  0.0322
25556W        W44303  29.164   1.863   1.434 -0.1263  0.0555 -0.0551
25557W        W44304  10.244  14.705  18.537 -0.0907 -0.0809 -0.2688
25558W        W44305  22.865   6.141  15.586  0.1489  0.0211  0.0154
25559W        W44306  29.806  25.433  20.767  0.1958 -0.1282 -0.1170
25560W        W44307  16.028  19.614  25.316  0.1658  0.2141  0.2690
25561W        W44308  33.132  28.436  24.070  0.2025  0.3469  0.3258
25562W        W44309   5.207  15.560  16.992  0.1762 -0.2555 -0.0952
25563W        W44310  19.535  22.752   8.020  0.2830 -0.1354  0.0774
25564W        W44311  24.389  10.621  13.768  0.2366 -0.0714  0.1368
25565W        W44312   0.757  29.488  17.556 -0.2107 -0.0067 -0.1565
25566W        W44313   3.423   7.674   1.531 -0.3189 -0.0262 -0.0163
25567W        W44314  34.771  30.625   0.796  0.3286 -0.3038  0.5544
25568W        W44315  10.788  20.612   6.379 -0.3355  0.1475 -0.0429
25569W        W44316  20.561  14.443   3.165 -0.1575  0.5421  0.1126
25570W        W44317  13.840  34.649   5.328 -0.1186  0.3682 -0.0045
25571W        W44318  15.513   9.300   4.054  0.5049 -0.3328 -0.0372
25572W        W44319  33.681  17.261  11.361  0.2154  0.0242 -0.2299
25573W        W44320   8.233  30.550  21.277  0.2907 -0.0077  0.2029
25574W        W44321  34.694  13.764  25.514 -0.0357 -0.0555  0.2673
25575W        W44322  32.907   9.548  19.638 -0.3500  0.0281  0.1358
25576W        W44323  18.866  31.406  17.570  0.4846  0.0978  0.0203
25577W        W44324  33.589  23.618  11.793  0.1795 -0.2295 -0.2920
25578W        W44325  18.502  29.631   8.634  0.1551  0.1779  0.1616
25579W        W44326   3.309  31.607  10.982  0.0611 -0.1681  0.0156
25580W        W44327  34.242  15.511  16.266  0.2184  0.0442  0.0517
25581W        W44328  34.739   5.232  22.403 -0.0853  0.2714 -0.0056
25582W        W44329   5.356  12.365  17.744  0.0817 -0.0361 -0.0201
25583W        W44330   9.695  32.153  23.261 -0.2401 -0.0548 -0.0627
25584W        W44331  24.222  14.706  13.296 -0.2162 -0.0681 -0.1978
25585W        W44332  29.363   5.905   9.943 -0.1725  0.1959 -0.2045
25586W        W44333   2.463  31.598  21.231 -0.1615  0.0252  0.0206
25587W        W44334  24.026   4.254  20.378 -0.2404 -0.1963 -0.1964
25588W        W44335  26.821  24.409  15.569 -0.3203  0.2001  0.1508
25589W        W44336  31.380  27.652  17.873  0.2623 -0.1245 -0.1425
25590W        W44337  34.250  31.407  25.654  0.0948  0.3294  0.0235
25591W        W44338  19.025   1.650  23.284  0.5742 -0.0688 -0.2088
25592W        W44339  29.566  15.559   9.465 -0.0094  0.1337  0.3207
25593W        W44340  31.950  35.382  25.647 -0.1415  0.2390  0.1868
25594W        W44341  26.229  34.703  22.751  0.2736  0.2052 -0.1903
25595W        W44342  33.820  25.089  18.867 -0.1015 -0.1369  0.0886
25596W        W44343   8.200  18.974  19.314  0.1849  0.0029  0.0470
25597W        W44344  28.833  31.430  18.192  0.0932 -0.0523 -0.1574
25598W        W44345   6.231   3.668  24.186  0.0979 -0.0484 -0.2878
25599W        W44346   4.223  22.799  18.049 -0.0626  0.1747  0.1823
25600W        W44347  10.492   4.950   9.613 -0.1200  0.0741 -0.1324
25601W        W44348  23.754   4.332  22.443 -0.2998  0.0540 -0.1871
25602W        W44349   7.831   4.795  12.339 -0.0243  0.0137  0.0183
25603W        W44350  23.184   8.827  15.434 -0.0240  0.2532  0.0478
25604W        W44351  29.614  16.031  21.119 -0.1051 -0.0010 -0.1269
25605W        W44352  24.115  34.785  20.354 -0.2229  0.3024 -0.0771
25606W        W44353  27.859  21.068  10.241 -0.1293 -0.2269 -0.1833
25607W        W44354  27.846  11.288  19.698 -0.3719  0.2547 -0.0194
25608W        W44355  17.862   4.264  16.895 -0.0177  0.0086  0.1159
25609W        W44356  25.144   6.544   2.190  0.2505 -0.0092 -0.1032
25610W        W44357  16.379  19.555  24.083  0.2522  0.0529 -0.0342
25611W        W44358  29.879  21.369  21.674 -0.2952  0.0964  0.1011
25612W        W44359  24.491   8.787  13.824 -0.1443  0.1393  0.0956
25613W        W44360  26.134  19.902  23.706  0.0512  0.2511 -0.0457
25614W        W44361  34.831  26.442  15.263  0.3253  0.0560 -0.1058
25615W        W44362  30.032  30.555   0.623  0.0526  0.2210  0.0923
25616W        W44363  34.960  35.167   6.505  0.1817  0.2049 -0.1848
25617W        W44364   7.708  10.518  10.397 -0.0839 -0.0238  0.1515
25618W        W44365  22.909  17.427  25.551 -0.2405  0.0169  0.1915
25619W        W44366  22.884  27.048  18.615  0.0044  0.0349  0.2243
25620W        W44367  27.401   9.477  18.283  0.0137  0.0697  0.1627
25621W        W44368  34.971   2.866  17.546  0.0867  0.0776  0.0971
25622W        W44369  11.854   1.515   7.456 -0.0307  0.2078  0.2726
25623W        W44370  35.127   8.285   4.667  0.2517 -0.2911  0.0508
25624W        W44371  29.201   0.830  22.334  0.2523  0.1218  0.0940
25625W        W44372  19.022  28.612  21.139 -0.0198  0.3430 -0.5433
25626W        W44373   1.506   2.730  23.673  0.0602  0.1894  0.2604
25627W        W44374  32.386  17.319   5.704  0.1489 -0.0323  0.3864
25628W        W44375   9.094   1.887   7.424  0.3166 -0.1435  0.1043
25629W        W44376  17.003  22.181  22.469  0.0502 -0.2008 -0.2875
25630W        W44377   5.480  25.742  11.310 -0.0062 -0.0595 -0.1230
25631W        W44378   6.425  16.981   8.229 -0.0486  0.1728  0.2639
25632W        W44379  19.600  26.575   1.432  0.2195 -0.2914  0.2074
25633W        W44380  34.232  11.476  11.463 -0.2178 -0.2333  0.3729
25634W        W44381  13.351  10.230  20.512 -0.3888 -0.1789 -0.1721
25635W        W44382   8.072   9.114   4.474  0.5268  0.1013 -0.1605
25636W        W44383  22.658  25.116  22.762  0.1759  0.3109 -0.0349
25637W        W44384  20.188  15.374   4.055  0.1450 -0.2496  0.4105
25638W        W44385  29.964  20.641  13.247 -0.0136 -0.1062  0.1840
25639W        W44386  10.662   6.831   0.013 -0.0499 -0.0212  0.1385
25640W        W44387  17.523   5.669  11.587 -0.1954 -0.1315  0.1554
25641W        W44388   9.280  14.226  22.371  0.3535 -0.2479 -0.3666
25642W        W44389  17.583   8.157   7.447 -0.1645 -0.2393 -0.0059
25643W        W44390  32.953  21.566   8.559  0.1499 -0.1652  0.1301
25644W        W44391   4.302  25.601   7.669 -0.0505  0.2131 -0.3733
25645W        W44392  27.390  13.483  16.305 -0.0086  0.0927 -0.0711
25646W        W44393  28.913  11.940  19.243  0.1437  0.2283  0.5194
25647W        W44394   6.121  17.477   3.310  0.0474 -0.0101  0.3097
25648W        W44395  31.729  12.188  10.201 -0.1220 -0.1587 -0.3772
25649W        W44396  26.804  23.408   7.563 -0.3669  0.1342 -0.1381
25650W        W44397  16.297  18.154  11.614  0.1044 -0.0557 -0.0032
25651W        W44398  19.559   5.252  20.007  0.0085  0.0608  0.2808
25652W        W44399  30.924  28.534  16.053 -0.0754  0.1996  0.1278
25653W        W44400  32.338   8.976  25.395 -0.1009  0.2276  0.0139
25654W        W44401  28.906  13.707  24.918 -0.0295  0.2874 -0.0561
25655W        W44402  34.066   7.043  22.008 -0.2459  0.1726 -0.5339
25656W        W44403   7.038  22.100   3.191 -0.1616 -0.0405  0.1745
25657W        W44404  16.605  15.252  24.587 -0.1842 -0.1247  0.1281
25658W        W44405  12.545  23.763  13.270  0.0506 -0.4266 -0.1525
25659W        W44406  18.603   6.526  21.397 -0.0009  0.1668 -0.1075
25660W        W44407  20.731  14.824   2.118 -0.0139 -0.3411  0.4198
25661W        W44408   4.531  30.050  10.254  0.0515 -0.1628 -0.0538
25662W        W44409   0.078   3.465   4.636  0.3485 -0.2999  0.3008
25663W        W44410  22.722   7.945  15.779  0.1309 -0.2573 -0.1137
25664W        W44411  13.208  17.553   3.190  0.1756  0.1377  0.1546
25665W        W44412  20.479   0.820  14.987  0.4688 -0.0272  0.1486
25666W        W44413  24.243  15.082  19.257 -0.2187 -0.0281  0.1485
25667W        W44414  21.610  21.578   0.428  0.1202 -0.0408 -0.0407
25668W        W44415  17.474   3.717   8.773 -0.2671  0.1684  0.2707
25669W        W44416  16.237   9.515   0.671 -0.1545 -0.1016  0.2879
25670W        W44417  23.410   7.504  24.156 -0.1214  0.0204 -0.2715
25671W        W44418  22.596  22.139  20.499  0.0854  0.2548 -0.0009
25672W        W44419  23.912  23.330  25.882  0.0057 -0.2503 -0.1138
25673W        W44420  14.908  19.229  12.363  0.1942  0.2386 -0.3326
25674W        W44421  17.368   4.480  21.066  0.2125  0.2350  0.1947
25675W        W44422  16.452  19.947   7.591 -0.1773  0.1019 -0.0362
25676W        W44423  24.513   1.206  26.249  0.1956 -0.0009  0.4752
25677W        W44424  17.767  14.746  17.886 -0.1272 -0.4041  0.0851
25678W        W44425  18.857  28.603   4.413 -0.2373  0.0024  0.0053
25679W        W44426  14.936  28.613  24.182  0.3642  0.5588 -0.3056
25680W        W44427  20.312   2.734  19.550  0.1924  0.0908  0.0499
25681W        W44428  28.797  13.143   9.983 -0.0239 -0.0703  0.0134
25682W        W44429  22.048   7.680   1.867 -0.1993  0.3862  0.0561
25683W        W44430  24.549   5.902  18.292  0.0139 -0.0315  0.0240
25684W        W44431  18.695  23.766  19.643 -0.1317 -0.0289 -0.0319
25685W        W44432  18.436  19.735  19.198 -0.2558  0.0592 -0.0659
25686W        W44433  13.370  27.936  15.073 -0.2365 -0.0630 -0.1245
25687W        W44434  17.969   5.916  23.669  0.1494 -0.0429  0.0678
25688W        W44435  13.479  28.858  22.619  0.1054 -0.0732 -0.0677
25689W        W44436  26.911  32.705  19.084  0.1615  0.2149  0.0744
25690W        W44437   7.575  18.862  11.000 -0.0593 -0.2340  0.0582
25691W        W44438  17.503  15.734   4.790 -0.0592  0.0439 -0.0220
25692W        W44439  28.570  15.434  13.249 -0.1057  0.1982  0.0139
25693W        W44440  13.583  16.758   4.460  0.0156  0.1851 -0.1710
25694W        W44441  21.476   7.542   8.152 -0.0536 -0.0324 -0.1881
25695W        W44442  30.579  13.179  11.602  0.2273  0.0312 -0.1278
25696W        W44443  17.966  11.107  24.162  0.0934  0.2112 -0.0140
25697W        W44444   9.275  25.061  12.514  0.3400 -0.4654 -0.1318
25698W        W44445  28.291  31.209  13.511 -0.0654 -0.0519  0.2329
25699W        W44446  30.506  12.128  24.194  0.0833 -0.0823 -0.0960
25700W        W44447   0.371  28.292   1.210 -0.2589  0.0298  0.1548
25701W        W44448  21.347   2.225  25.957  0.1629  0.1296 -0.1682
25702W        W44449  10.234  18.025  24.804  0.2847 -0.1569  0.3443
25703W        W44450  28.965  31.088  25.555  0.1059 -0.0049  0.0329
25704W        W44451  12.378  33.595  23.804 -0.1515  0.1054 -0.0702
25705W        W44452   2.477  28.302   3.837  0.0588 -0.1238 -0.0003
25706W        W44453  34.201   2.081  18.385 -0.0772  0.1266  0.0764
25707W        W44454  34.901   5.788   5.439 -0.0164  0.1771 -0.1396
25708W        W44455  29.701  12.067  22.962  0.1814 -0.1706  0.1707
25709W        W44456  32.418  25.428  14.216  0.0989 -0.1028  0.1655
25710W        W44457   7.052  10.418  10.393  0.1057  0.1052  0.1128
25711W        W44458  13.302  11.042  19.547 -0.0378  0.0434  0.0116
25712W        W44459   2.189  18.020  17.803  0.2469  0.0226  0.0202
25713W        W44460  11.093  28.264   1.908 -0.0558 -0.3405 -0.1050
25714W        W44461  20.968   0.680   0.391  0.0932 -0.1812 -0.1269
25715W        W44462  11.544  21.033   3.356 -0.2277 -0.0945 -0.0033
25716W        W44463  35.097  30.924  25.649  0.2136  0.2045  0.2845
25717W        W44464  31.855   6.747  11.588 -0.1157  0.0306  0.2034
25718W        W44465   9.340   7.401   6.879 -0.4453 -0.2467 -0.0291
25719W        W44466   6.148  25.058   0.328 -0.0651  0.0363 -0.0214
25720W        W44467   6.439  20.607   7.767  0.0536 -0.4172 -0.2714
25721W        W44468  28.302  23.043  24.585  0.2045  0.1980 -0.1468
25722W        W44469  13.100  26.467   4.025 -0.1008  0.1524  0.3245
25723W        W44470  27.628  21.982   6.112  0.0945 -0.3423  0.0341
25724W        W44471   1.328   6.704  26.224 -0.3101 -0.1034 -0.3132
25725W        W44472  32.977  28.760  15.604 -0.1174  0.0783 -0.0263
25726W        W44473  21.623  12.959  15.594  0.1223  0.0939  0.1847
25727W        W44474  27.606  30.322   2.598 -0.0972  0.0774 -0.0817
25728W        W44475  29.362  27.087  12.748 -0.1919 -0.1193  0.0779
25729W        W44476  13.757   8.280  12.765  0.3542  0.1129 -0.3878
25730W        W44477  29.565   2.558  18.895  0.4802 -0.0651  0.4410
25731W        W44478  24.712  29.411  24.025 -0.0228  0.1424 -0.1392
25732W        W44479  13.204   3.325  23.766 -0.0377  0.3448  0.1342
25733W        W44480  33.552   0.316  21.740 -0.3491  0.2795  0.0068
25734W        W44481  24.547  26.829  16.020  0.0122 -0.0836  0.0260
25735W        W44482   8.357   5.565  19.382  0.2324 -0.2427 -0.2332
25736W        W44483   6.407  16.160   6.557  0.4225  0.3162 -0.3640
25737W        W44484   0.153   3.774  19.680  0.3061  0.3187 -0.1724
25738W        W44485  24.477  25.108  15.676  0.2159  0.2408 -0.0730
25739W        W44486  32.903  15.457  23.871 -0.2465  0.2097 -0.0444
25740W        W44487   6.495  34.052  25.370 -0.0525  0.2103  0.3304
25741W        W44488  12.253  22.730   3.450 -0.1752 -0.0039  0.0060
25742W        W44489  16.507   5.364   0.929 -0.1642 -0.1777 -0.1499
25743W        W44490   4.534  14.678   0.816 -0.1830 -0.0623  0.1385
25744W        W44491  33.977  24.611  11.880 -0.1399  0.2239 -0.0604
25745W        W44492  34.228   3.011  24.982  0.1633  0.0607  0.0454
25746W        W44493  12.969  21.078  15.243  0.1225  0.0587  0.2212
25747W        W44494   3.874  19.100  16.840 -0.0374  0.3026 -0.2770
25748W        W44495  13.668   1.004   9.362 -0.2646 -0.1795  0.0787
25749W        W44496  15.209   0.001  22.351  0.2158 -0.2473  0.3325
25750W        W44497   6.817  19.428   8.186 -0.4236 -0.1433  0.1605
25751W        W44498  17.542  34.040   6.077 -0.1623  0.2871  0.1964
25752W        W44499   3.515  28.565   9.374  0.0259 -0.4067 -0.0801
25753W        W44500   2.758   1.427  24.567 -0.2244 -0.0382 -0.0172
25754W        W44501  17.099   2.881  18.876 -0.0642 -0.1302 -0.2573
25755W        W44502  18.037   7.789   3.392 -0.0432 -0.0220 -0.1042
25756W        W44503  17.962   9.881  11.165 -0.0650  0.1715  0.0395
25757W        W44504  21.035  11.651   4.456  0.2202 -0.2569 -0.1364
25758W        W44505  15.344   7.513   9.617  0.1314  0.3592  0.1012
25759W        W44506   0.735  12.795  13.213 -0.1654 -0.0965  0.2724
25760W        W44507  32.761   7.248  21.650 -0.1407 -0.0685 -0.3613
25761W        W44508  27.730   5.603  23.924 -0.0493  0.2637  0.4616
25762W        W44509  10.172  18.527  26.000  0.0231  0.2318 -0.1490
25763W        W44510  17.835  20.917   3.181  0.0031  0.0377 -0.2193
25764W        W44511   6.603   4.631  23.302 -0.2109  0.2066  0.1356
25765W        W44512  10.356  13.246  19.659 -0.2035  0.1529 -0.0013
25766W        W44513   7.772   4.664   4.197  0.0202 -0.0822 -0.1399
25767W        W44514  28.043  25.513  20.455  0.0029 -0.0854 -0.0286
25768W        W44515   2.484   6.676  16.567  0.1621  0.0761  0.1139
25769W        W44516  27.408  31.864  22.596 -0.0269  0.0087  0.0634
25770W        W44517  19.273   5.199   1.012  0.1437 -0.0313  0.0223
25771W        W44518  19.228  15.347   8.296  0.0041 -0.1995 -0.0335
25772W        W44519  23.045  14.125  20.273  0.1133 -0.0327 -0.1893
25773W        W44520  28.131  12.992  22.438  0.2755 -0.0567 -0.2681
25774W        W44521  10.272  26.207   4.449  0.2144 -0.0835 -0.1278
25775W        W44522  19.204   9.727  18.475 -0.1101  0.0317  0.4500
25776W        W44523   3.479  10.628   6.423 -0.2797 -0.0748 -0.1709
25777W        W44524  24.303  21.565  22.455  0.3126  0.1891  0.0854
25778W        W44525  24.484  31.226  12.223  0.3784 -0.1378 -0.1190
25779W        W44526  19.709   6.870   6.297  0.0756  0.1851  0.2722
25780W        W44527   8.644  29.274  16.242 -0.0101  0.0438  0.3059
25781W        W44528  11.254  25.992   1.344 -0.0785  0.1347  0.1363
25782W        W44529  20.711   0.627   7.414  0.0035 -0.1364 -0.1709
25783W        W44530  30.989   9.394  18.048  0.0006 -0.2122  0.0074
25784W        W44531   2.252  30.180   9.609  0.0169  0.1066 -0.1430
25785W        W44532  16.936  28.208   0.710 -0.0563 -0.1202 -0.0290
25786W        W44533   7.390  12.472  22.483  0.2498 -0.2675 -0.1647
25787W        W44534  34.232   4.639  12.155  0.0679  0.0678  0.1867
25788W        W44535  24.499   0.072  13.990 -0.1624  0.4437  0.3501
25789W        W44536  20.583  20.520  19.937  0.0128 -0.0848  0.0507
25790W        W44537  17.889   7.379  17.267 -0.2695 -0.0168  0.1335
25791W        W44538  15.632   8.738   6.356 -0.1322 -0.0521  0.2436
25792W        W44539   7.182  34.814  24.879  0.0724 -0.1896 -0.0538
25793W        W44540  27.242  30.840  19.064  0.2748  0.2139 -0.1002
25794W        W44541   9.561  22.583  12.804 -0.1418 -0.0143  0.1030
25795W        W44542  16.148   5.110  17.657  0.0450  0.0576  0.0706
25796W        W44543  18.420   9.790  23.883 -0.1905 -0.1195  0.2051
25797W        W44544  19.329  15.550  22.077  0.1125 -0.0227  0.2021
25798W        W44545  26.321   3.953  22.630 -0.2773 -0.2824 -0.2036
25799W        W44546  14.452   6.049  18.938 -0.0983  0.1704 -0.2364
25800W        W44547  26.949  26.143  22.428  0.1106 -0.1472  0.0837
25801W        W44548  22.580  18.145   1.087 -0.2540  0.2131 -0.0581
25802W        W44549   7.010  20.845  23.659 -0.0585 -0.1993 -0.2799
25803W        W44550   6.455   9.300   2.977 -0.2707  0.0929 -0.2160
25804W        W44551  20.021   3.172   2.043 -0.0001 -0.2065  0.0027
25805W        W44552  18.144   3.937   9.801 -0.0829 -0.1395  0.0976
25806W        W44553  25.256  25.189  16.541 -0.5610  0.0716 -0.0175
25807W        W44554  33.025  13.644  22.996  0.2552  0.0548 -0.2354
25808W        W44555  18.665  14.225  19.840 -0.2944 -0.1489 -0.1538
25809W        W44556  14.498  34.532   4.369 -0.0454 -0.0472 -0.0408
25810W        W44557  15.031   6.340   3.928 -0.0358  0.2757 -0.0988
25811W        W44558  15.139   6.665  18.788 -0.4589 -0.0343 -0.1522
25812W        W44559  30.015   4.215  18.598 -0.0607 -0.0317  0.1155
25813W        W44560  21.927  11.084   1.521 -0.5567  0.0777 -0.0958
25814W        W44561   5.891  14.417   7.617 -0.5286 -0.0619 -0.1323
25815W        W44562  22.025  25.744  23.684 -0.0165  0.1938  0.2111
25816W        W44563   5.897  30.512  15.162  0.0746 -0.2412  0.0215
25817W        W44564  19.219  24.343   0.882  0.0916  0.1359  0.1316
25818W        W44565  10.671  10.344   7.742  0.0695  0.5153  0.1010
25819W        W44566   4.233   6.012  18.572  0.0451 -0.2476 -0.0917
25820W        W44567  32.257  24.269  22.815 -0.2895 -0.1478  0.3588
25821W        W44568  21.310  20.701  17.169 -0.1893 -0.0185  0.1620
25822W        W44569   6.371  16.252   4.555 -0.0283 -0.0962 -0.1164
25823W        W44570  15.508   2.983   8.708 -0.2311  0.4007 -0.1633
25824W        W44571  21.219  11.116   2.132  0.0560  0.0554  0.0644
25825W        W44572  33.007  28.811  21.492  0.4129  0.1718 -0.1588
25826W        W44573  20.957  28.540  22.963 -0.3078 -0.0077 -0.0407
25827W        W44574  26.390  13.677  16.909 -0.3460 -0.3576  0.1457
25828W        W44575  16.051  33.350  24.269 -0.3246  0.1794  0.4075
25829W        W44576  32.278  12.943  22.736 -0.2506  0.1998  0.0402
25830W        W44577  13.160  29.864   5.788 -0.0836 -0.0954 -0.1129
25831W        W44578  32.199  25.582   8.743  0.2786 -0.0877 -0.2969
25832W        W44579  13.978  21.255  10.131  0.2300  0.4989  0.2495
25833W        W44580  17.842  20.701   1.433 -0.1667 -0.1365  0.1040
25834W        W44581  34.234  31.539  22.065 -0.0884 -0.1181 -0.1335
25835W        W44582   9.291  27.102  24.012  0.1422 -0.0388 -0.1211
25836W        W44583   6.697  20.447   1.325  0.1114 -0.1596  0.0858
25837W        W44584   3.199  29.961   0.288  0.2441  0.2841 -0.5533
25838W        W44585   0.731  22.857  16.170  0.2773 -0.2365  0.2984
25839W        W44586  11.310  21.372   9.771  0.0669 -0.0866  0.1154
25840W        W44587   2.967  22.860  23.481  0.1295  0.0113 -0.2049
25841W        W44588  13.245   3.866  19.047 -0.0365  0.1748 -0.0544
25842W        W44589  25.439   2.741  21.780  0.0055 -0.0214 -0.2026
25843W        W44590   1.331  12.355  20.109 -0.1644 -0.1233 -0.3209
25844W        W44591   1.947  14.857  18.693 -0.1864  0.1006 -0.3735
25845W        W44592   6.734  10.787   9.400  0.0079  0.1871  0.0642
25846W        W44593  15.975   1.005   0.358 -0.2268 -0.2688 -0.0308
25847W        W44594  34.397   8.320  15.022 -0.1159 -0.0054  0.1271
25848W        W44595  14.060  24.843   4.637  0.0169 -0.0261  0.0681
25849W        W44596  30.619  21.689   5.674  0.0578 -0.1011  0.1061
25850W        W44597  28.425  27.294  19.676 -0.0800 -0.0458  0.0881
25851W        W44598  15.824  30.487   0.462 -0.5252 -0.0246  0.0485
25852W        W44599  13.864  11.320  23.052  0.1690 -0.1664  0.1622
25853W        W44600  35.236  10.093  10.706 -0.1306  0.0173 -0.1025
25854W        W44601   5.238   8.523  17.022 -0.4709 -0.2461  0.1130
25855W        W44602  12.270  15.927   4.410 -0.0794  0.1270 -0.1110
25856W        W44603  12.241  27.170  25.349  0.3655  0.3142  0.3113
25857W        W44604  30.160   6.701   0.565 -0.1953 -0.0774  0.3048
25858W        W44605  16.718   0.512   3.394  0.0739  0.0791  0.0226
25859W        W44606  20.634  26.503   6.979 -0.1963  0.0733 -0.0688
25860W        W44607  24.769  34.192   5.608 -0.1026  0.0650 -0.3253
25861W        W44608   5.700   4.137  11.100 -0.0065  0.0240  0.2418
25862W        W44609  17.680  29.276  21.796 -0.1422 -0.1469 -0.1856
25863W        W44610  10.399  30.930  25.845  0.0785 -0.2827 -0.1377
25864W        W44611   8.805   6.198   5.143  0.1708 -0.0471  0.0166
25865W        W44612   0.745  28.192  23.570  0.3242  0.0708 -0.0497
25866W        W44613  21.244  23.142  23.726  0.0073 -0.0470  0.1218
25867W        W44614  13.897  28.286  10.463 -0.0533  0.0178  0.2981
25868W        W44615  34.808   8.536   0.289  0.1226 -0.1386  0.1223
25869W        W44616  28.162   4.841   2.302  0.2513  0.0612 -0.0139
25870W        W44617   3.897   5.575   6.593  0.0688 -0.1010  0.1126
25871W        W44618  11.874  14.755  11.744  0.3353  0.0046  0.3616
25872W        W44619  32.332   4.604  11.275  0.2822  0.4538  0.3892
25873W        W44620   1.160   3.512  23.333  0.2471  0.0522  0.1914
25874W        W44621  14.755  32.387  10.617 -0.1965  0.1510  0.1134
25875W        W44622  28.953  14.825   9.099  0.0654 -0.0271 -0.0122
25876W        W44623  22.475  14.338  22.416  0.0723 -0.3235  0.2411
25877W        W44624  26.797   3.161  19.901 -0.1587 -0.0822 -0.3079
25878W        W44625  13.611  27.281   4.201  0.0671  0.3097 -0.1098
25879W        W44626  27.995  12.587   0.467 -0.1204  0.1983  0.0404
25880W        W44627   7.448  12.798  24.294 -0.1477 -0.2788  0.1337
25881W        W44628  15.040  23.636  17.241  0.1054  0.4353 -0.0820
25882W        W44629   3.022  31.805  21.224  0.0289  0.2666  0.2505
25883W        W44630  32.847  13.683  10.018 -0.0845  0.2722  0.1547
25884W        W44631  12.901   4.350  10.547  0.0944 -0.0377 -0.2224
25885W        W44632  12.302  24.602  22.267 -0.0040  0.0599  0.1476
25886W        W44633  30.697  29.395  18.233 -0.0408 -0.3412  0.5419
25887W        W44634   8.372  19.204  23.479  0.3184 -0.3076 -0.2082
25888W        W44635  34.991   1.812  21.803 -0.2497  0.1420 -0.2678
25889W        W44636  18.181  33.957  20.930  0.1602  0.0095  0.0472
25890W        W44637  25.617   3.894  25.013 -0.0389 -0.0879  0.0356
25891W        W44638  10.229  25.457   9.708 -0.1009 -0.1228 -0.0607
25892W        W44639  25.118  10.115  24.383 -0.4640 -0.0313  0.1090
25893W        W44640  34.180  27.326  19.735 -0.0429 -0.3216 -0.4099
25894W        W44641  13.351   6.134   8.740  0.0153 -0.0423 -0.1137
25895W        W44642  19.734  14.163  25.700 -0.1717  0.2405  0.2781
25896W        W44643   4.492  27.685   6.333 -0.2996  0.3302 -0.3300
25897W        W44644   9.986   2.139   8.532  0.0821  0.0321  0.0886
25898W        W44645  15.275  23.317   4.625 -0.2037  0.0046 -0.0090
25899W        W44646  35.231   6.902  19.912  0.0290 -0.0451  0.1105
25900W        W44647  27.556  30.177   3.857  0.1113 -0.2331  0.3003
25901W        W44648  21.421  10.192   5.437  0.0800 -0.1776 -0.0430
25902W        W44649   8.289   3.034  23.650 -0.0695 -0.1678 -0.1579
25903W        W44650  27.546  25.456  13.832  0.1121 -0.5786 -0.1368
25904W        W44651  21.429  32.967   7.700 -0.2053  0.3700 -0.0311
25905W        W44652   3.712  33.818   1.012 -0.0184  0.1745 -0.1093
25906W        W44653   6.082  19.507  19.002 -0.2080  0.0880 -0.0650
25907W        W44654  27.703  33.630  22.154 -0.2512 -0.0432  0.1699
25908W        W44655  33.418   0.695  15.062 -0.1319  0.2953  0.0317
25909W        W44656  19.286   3.105   0.136  0.0455 -0.2546 -0.0054
25910W        W44657  14.448   2.763  24.484  0.0756 -0.2018 -0.1480
25911W        W44658   4.553   3.730  22.287 -0.0672 -0.1713  0.2373
25912W        W44659  13.027   2.481  10.337 -0.0324 -0.1813  0.1191
25913W        W44660  19.836  34.261   1.578 -0.0295 -0.0781  0.3421
25914W        W44661   2.848  22.072  18.626  0.1250  0.0144 -0.0151
25915W        W44662   3.525  11.557  18.744 -0.0307 -0.2976  0.2574
25916W        W44663  18.033  33.127   7.784 -0.4156  0.0531 -0.1218
25917W        W44664   9.408  18.261   4.708 -0.1294 -0.1402  0.1619
25918W        W44665   8.011  20.819  22.573 -0.1758  0.1740 -0.2903
25919W        W44666  26.237  23.526  25.896  0.0474 -0.0799 -0.1999
25920W        W44667  30.064  10.738  20.593 -0.0499 -0.1228 -0.0701
25921W        W44668  20.491  31.397  24.670  0.2139  0.0043  0.2438
25922W        W44669  25.121  28.718  14.560  0.0529 -0.2907  0.0312
25923W        W44670  23.433  10.830  22.196 -0.1373  0.1399 -0.1541
25924W        W44671  34.576  27.743   2.270  0.0964 -0.2506 -0.0921
25925W        W44672  19.598   5.727   8.099 -0.3752 -0.2202 -0.1231
25926W        W44673  10.715   5.364   5.490  0.1620  0.2427  0.1460
25927W        W44674   7.420   8.179   7.878 -0.1696  0.0409  0.2905
25928W        W44675  27.024  26.495   1.640 -0.1610  0.3568 -0.1456
25929W        W44676  34.870  17.704  13.958 -0.0195  0.1981 -0.0760
25930W        W44677   6.749  28.441  25.893  0.4367  0.0736 -0.2161
25931W        W44678   6.274  25.012   8.530 -0.2851 -0.2481  0.0691
25932W        W44679  22.508   2.180  25.298  0.3778  0.2072 -0.1708
25933W        W44680  13.973   2.740   3.725 -0.2575 -0.0562 -0.1163
25934W        W44681  34.663  31.662  13.671  0.2691 -0.0810  0.0301
25935W        W44682  17.853   3.687  21.887 -0.1762  0.2329 -0.1016
25936W        W44683  26.451  32.828  20.178 -0.1782  0.0197 -0.0305
25937W        W44684  25.010  10.422  14.153 -0.0858 -0.0392 -0.0298
25938W        W44685  11.471  11.083  11.706 -0.3625  0.1596 -0.2261
25939W        W44686  23.336  24.403  14.550 -0.0228  0.4029 -0.0672
25940W        W44687   9.252  15.684  22.381 -0.0242 -0.0778  0.0201
25941W        W44688  19.283  35.177   1.632 -0.0149 -0.0311 -0.2246
25942W        W44689  33.302  11.815  19.567  0.0001  0.1847 -0.1324
25943W        W44690  31.764  26.128   0.301  0.0528  0.1794  0.0182
25944W        W44691  24.876  16.931  18.268 -0.4606  0.3124  0.1448
25945W        W44692  13.454  13.359   3.378  0.3619  0.2558 -0.0463
25946W        W44693  25.384  22.234  12.962  0.0671 -0.1142  0.1531
25947W        W44694   6.227   3.594   1.374 -0.0069 -0.0641 -0.0296
25948W        W44695  32.085  23.745  25.834  0.1474 -0.0048  0.1518
25949W        W44696  17.416  14.336  21.560 -0.2732  0.0024 -0.1457
25950W        W44697  32.042   0.533   0.910 -0.2517 -0.1700 -0.0325
25951W        W44698  14.924   5.838   4.052 -0.3341  0.1475 -0.2392
25952W        W44699  10.040  13.243   5.181  0.2598 -0.1866  0.0981
25953W        W44700  32.114  30.440   4.964 -0.2383  0.1515  0.1825
25954W        W44701  34.183  27.430   2.559 -0.0174  0.0829 -0.0941
25955W        W44702  24.468  33.304  11.599  0.1737  0.0063 -0.0946
25956W        W44703  10.559  31.630   6.071  0.0632 -0.0496  0.1109
25957W        W44704  29.160   0.768  24.356 -0.3521 -0.1009  0.0348
25958W        W44705  23.431   8.586  23.990 -0.2246  0.0464 -0.0490
25959W        W44706  10.702   1.783  20.415 -0.3125 -0.0011  0.1905
25960W        W44707  15.908  24.738   0.926  0.0028 -0.1848  0.0520
25961W        W44708   7.967  15.229   5.218 -0.2816  0.0066  0.0217
25962W        W44709  27.878   4.839  15.984 -0.3699 -0.0989  0.0345
25963W        W44710  29.822  14.449   9.767  0.0114  0.0298  0.0529
25964W        W44711   5.178  17.770   1.581 -0.1231 -0.0069 -0.1665
25965W        W44712  11.340   0.357   5.901 -0.0645 -0.0557 -0.1396
25966W        W44713   1.708  34.134   4.258 -0.1460  0.0551 -0.1989
25967W        W44714   1.742  21.299  12.962 -0.0792 -0.1177  0.0868
25968W        W44715  30.678  18.409  17.398  0.0431 -0.1703 -0.0281
25969W        W44716   5.385  22.953   7.145  0.1915  0.0467  0.0683
25970W        W44717  16.517  33.821   2.427  0.0407 -0.1678  0.0997
25971W        W44718  25.669   9.267  22.023 -0.1598  0.0153 -0.0341
25972W        W44719  32.873  25.674  14.014  0.1627 -0.1037 -0.1281
25973W        W44720  15.036  16.478  25.616  0.0086 -0.2215  0.2213
25974W        W44721  10.747  17.232  21.030  0.1390  0.2078  0.0658
25975W        W44722  21.035  12.039  20.605  0.3565  0.0568  0.0963
25976W        W44723   6.308  23.444   5.451 -0.1184  0.2462 -0.3870
25977W        W44724   2.859  27.118   7.986 -0.1652 -0.0804 -0.3325
25978W        W44725  32.853  11.178  13.453  0.2520 -0.1099  0.0250
25979W        W44726  23.611  22.289  17.552 -0.3782 -0.2810  0.2189
25980W        W44727  13.367  31.607   7.877  0.2733 -0.1815 -0.0296
25981W        W44728   2.680   5.529   1.166 -0.1426  0.0160 -0.1883
25982W        W44729  13.746   2.273   1.561  0.1792  0.1180 -0.1687
25983W        W44730  13.827  33.425   7.111 -0.2099  0.1484  0.3757
25984W        W44731  13.823  33.440   9.225  0.0708  0.0776  0.3810
25985W        W44732  26.374  17.463   8.661  0.1484  0.4433  0.0233
25986W        W44733  25.149  24.154   9.240 -0.1668 -0.2057 -0.0897
25987W        W44734  17.146  29.113  20.593  0.0185  0.0175 -0.1151
25988W        W44735   9.280   5.109  24.999 -0.1621  0.0858  0.0614
25989W        W44736   1.311   5.262  22.628  0.0663 -0.0331  0.1324
25990W        W44737   7.256   6.807  13.289 -0.0066  0.2078  0.2700
25991W        W44738  34.904   2.337  21.578 -0.2637 -0.2893 -0.1579
25992W        W44739  29.450   2.841   5.803 -0.1716 -0.1654 -0.0336
25993W        W44740  13.687  31.053  10.137  0.0584  0.0582  0.0243
25994W        W44741   4.903  23.566   2.966  0.1379 -0.1526  0.3673
25995W        W44742  14.292   1.245   0.701 -0.2752 -0.1667  0.1377
25996W        W44743  25.510   4.967  17.049 -0.1122 -0.0714 -0.0980
25997W        W44744  18.401  22.668   7.445  0.0102  0.4269 -0.0195
25998W        W44745  10.713  14.573  25.357 -0.1603  0.2141  0.0916
25999W        W44746  30.203  30.828   4.880  0.3190  0.2641 -0.2942
26000W        W44747  25.422  17.651  13.777 -0.0441  0.4338  0.4318
26001W        W44748  27.709  11.893  16.756 -0.3474  0.0973 -0.1618
26002W        W44749  21.068  17.737   1.186  0.1218  0.0823  0.0234
26003W        W44750   1.930  29.790  21.667 -0.3850 -0.0474 -0.0991
26004W        W44751  31.295   0.268  25.349  0.1600  0.1307  0.0488
26005W        W44752  31.658  29.298  10.919  0.1068  0.1921 -0.0874
26006W        W44753   3.618  22.541  22.405 -0.0106  0.3679 -0.2492
26007W        W44754   6.616  12.227   8.081 -0.2379 -0.1684 -0.0586
26008W        W44755  28.266  24.635   9.366  0.2460  0.0374  0.2959
26009W        W44756  13.206   1.454  24.090 -0.1260  0.1019  0.1612
26010W        W44757  25.837  11.597  24.473  0.4674 -0.0318  0.0915
26011W        W44758   7.944  23.138  22.758 -0.2026 -0.0862  0.2465
26012W        W44759  14.684   0.797  23.826  0.1322  0.2986 -0.0058
26013W        W44760   7.445   1.559  23.078  0.2115 -0.1029 -0.2891
26014W        W44761  12.821  18.603  12.191  0.1157  0.1018  0.0432
26015W        W44762  11.762   0.960  20.468 -0.0430 -0.0664  0.2253
26016W        W44763  27.622   3.195   2.427 -0.1390 -0.2924  0.0592
26017W        W44764  12.118   0.380  24.786 -0.2193 -0.2433 -0.0067
26018W        W44765  10.496  23.669  10.800  0.1146  0.0258  0.1989
26019W        W44766  31.671  20.126  17.812  0.1961  0.0389 -0.2777
26020W        W44767  27.951  30.123  20.217 -0.0274 -0.0647 -0.2903
26021W        W44768  31.199  24.525  24.911  0.0978  0.1050  0.0164
26022W        W44769   4.251   0.508   5.413 -0.0492 -0.1345 -0.1712
26023W        W44770  27.759  12.907  19.308  0.1973  0.3113  0.0382
26024W        W44771  29.476  27.762  25.062  0.0729 -0.1214 -0.0205
26025W        W44772  14.654  20.438   0.636  0.1441  0.0405  0.3721
26026W        W44773  27.217  27.893  11.342 -0.2516  0.0279  0.2907
26027W        W44774  30.371   5.084  23.504 -0.1373 -0.4209  0.0966
26028W        W44775  14.497  29.907   0.676  0.0527  0.3568 -0.0812
26029W        W44776  15.503  16.962   3.873  0.0922 -0.0368 -0.0668
26030W        W44777  23.902  20.939  13.657  0.2671 -0.5501 -0.2027
26031W        W44778  27.179  27.037  17.096 -0.0759  0.3326  0.2030
26032W        W44779  15.245   2.889  21.179 -0.0626 -0.1036 -0.2479
26033W        W44780  12.666  14.212  13.188  0.1118  0.2194 -0.1302
26034W        W44781  29.619  10.696  13.791 -0.0171 -0.1269  0.2764
26035W        W44782  30.844   0.591  14.805  0.0469 -0.2386  0.0421
26036W        W44783   4.375  26.817   6.201 -0.1224 -0.1707 -0.2671
26037W        W44784  11.427  20.852   7.600  0.1005  0.0410 -0.0375
26038W        W44785  16.697  18.574  20.522 -0.1002 -0.0597 -0.0998
26039W        W44786   0.756  18.004  26.033  0.0811 -0.1156 -0.1927
26040W        W44787  25.152  13.828  24.120 -0.0854 -0.1218  0.2991
26041W        W44788  32.007   0.214  11.976 -0.0446  0.1197 -0.0789
26042W        W44789   6.368  13.069  23.166  0.4123  0.0621 -0.1178
26043W        W44790   0.416  11.791   2.203  0.2441  0.1319 -0.4245
26044W        W44791  21.942  35.051  14.061 -0.3045  0.3721 -0.0882
26045W        W44792   5.447  24.680   2.207 -0.3320 -0.0295  0.0298
26046W        W44793   8.578  12.263  22.445  0.0516 -0.1413 -0.4397
26047W        W44794   7.607  12.538   0.008  0.1450 -0.1289 -0.2233
26048W        W44795  23.801   1.220  24.370 -0.1405 -0.1779 -0.0257
26049W        W44796   0.533  10.834  14.836  0.0184 -0.3204 -0.4477
26050W        W44797  26.039  30.221  25.743 -0.0347  0.3759  0.2706
26051W        W44798   8.207  19.039   8.502 -0.3123  0.1148  0.2653
26052W        W44799  12.226  25.913   3.964 -0.0980 -0.0459  0.0772
26053W        W44800  35.012  19.258   9.843  0.0080 -0.0211  0.1118
26054W        W44801   6.159  11.319   9.978 -0.1302  0.4840 -0.1786
26055W        W44802   3.268  21.370  24.323  0.1713 -0.3586  0.0411
26056W        W44803  32.758  30.589  15.714 -0.0335 -0.0122 -0.1387
26057W        W44804  33.658  11.787  12.622 -0.0171 -0.4126 -0.2141
26058W        W44805  21.782   3.637  22.126 -0.1886  0.0559  0.3571
26059W        W44806  25.345  32.823  25.078  0.0365  0.0713  0.1885
26060W        W44807   4.635  11.155  15.968 -0.1298 -0.2342 -0.2291
26061W        W44808   3.136   0.219  11.011 -0.2540 -0.1068 -0.2826
26062W        W44809  28.976   4.074   0.177 -0.5019 -0.3536  0.0985
26063W        W44810  19.903  31.399  25.789 -0.2734  0.1047 -0.3227
26064W        W44811  32.648   9.714  16.765 -0.0830  0.1850 -0.2837
26065W        W44812  33.314  16.967  23.017 -0.2639 -0.1288 -0.2771
26066W        W44813  21.928  20.643  19.861  0.0354  0.3643  0.0890
26067W        W44814  17.301   1.351   8.500 -0.1640 -0.2408 -0.1041
26068W        W44815  23.006  21.067  18.199  0.0732  0.0382 -0.2817
26069W        W44816   3.486  25.204  20.382  0.1131 -0.0071 -0.2753
26070W        W44817  35.350  23.547  17.703 -0.3560  0.0968  0.2084
26071W        W44818  30.608   4.050  22.516 -0.1761  0.0745 -0.2434
26072W        W44819  25.641  28.526   3.285 -0.1686 -0.1072 -0.1737
26073W        W44820  22.634  16.091  13.481  0.2067 -0.1192 -0.0208
26074W        W44821  30.194  29.749   4.465  0.0975  0.1993  0.1474
26075W        W44822  20.011  31.015  16.810  0.0781  0.6053 -0.0275
26076W        W44823  15.896  34.260   1.724  0.0460 -0.0336 -0.2102
26077W        W44824  13.708   0.546  19.831  0.0449  0.0019 -0.0648
26078W        W44825  32.753  31.836  22.812  0.3557 -0.1524 -0.1249
26079W        W44826  23.851  20.851  21.573 -0.2077  0.1805  0.0124
26080W        W44827   1.459  14.072  16.076  0.3187 -0.0900 -0.4205
26081W        W44828   3.912  31.334  22.855 -0.0580 -0.3050  0.4368
26082W        W44829   6.391  22.665   3.162 -0.4101  0.2371  0.1621
26083W        W44830  17.784  19.596  11.714 -0.3132  0.3232 -0.0577
26084W        W44831  25.172  31.923  16.776 -0.0015 -0.4150 -0.0802
26085W        W44832  29.582  11.096  19.231 -0.1398 -0.0794  0.3302
26086W        W44833  25.176  28.286  18.621 -0.0280 -0.0177  0.0133
26087W        W44834  34.602  14.587  16.822 -0.2262 -0.0816 -0.2258
26088W        W44835   5.287  13.449  18.381 -0.0696  0.2221  0.0899
26089W        W44836  35.330  13.126  10.333 -0.1812 -0.1403 -0.0277
26090W        W44837  16.663  17.336  23.529 -0.0766 -0.3108 -0.0360
26091W        W44838   6.111  19.585  19.489 -0.1692  0.0044 -0.2462
26092W        W44839  13.916  11.902   8.854  0.2814 -0.1657 -0.2012
26093W        W44840  10.168  20.563  10.356 -0.4434 -0.2859 -0.0225
26094W        W44841   1.697   5.192  23.023 -0.0530 -0.1951 -0.2891
26095W        W44842  17.021   0.937   6.326 -0.1714  0.1173  0.0952
26096W        W44843   6.581   2.940   2.539  0.1142 -0.0599  0.1400
26097W        W44844   4.715  23.334  25.508 -0.0481 -0.0926 -0.0409
26098W        W44845   9.674   7.236  21.751  0.3008  0.3634  0.1551
26099W        W44846   4.629  34.074   8.745 -0.1751 -0.2507 -0.1375
26100W        W44847   5.975  16.905   2.484  0.0123  0.3216 -0.4543
26101W        W44848  27.155  29.487  12.039 -0.0871 -0.2023 -0.0494
26102W        W44849  20.196  11.518   5.708 -0.1554 -0.1983 -0.1813
26103W        W44850  21.443  25.691  23.243 -0.0067  0.1497 -0.2169
26104W        W44851  21.168   9.501   4.279 -0.1400  0.2233 -0.0555
26105W        W44852  16.111   3.820   3.214  0.1474  0.0303 -0.2457
26106W        W44853   6.303  16.141  10.139 -0.0266  0.0712 -0.1773
26107W        W44854  32.989  32.753  24.154 -0.4260  0.0226 -0.1038
26108W        W44855  17.339  20.475  10.119  0.0945  0.0285 -0.0845
26109W        W44856  10.533  10.678   9.333 -0.0655 -0.0818  0.1807
26110W        W44857  33.849  27.639   0.912  0.0283 -0.2347  0.1065
26111W        W44858  12.849  11.187  19.384  0.3119 -0.4111 -0.0795
26112W        W44859  25.041   0.717  22.028  0.0071  0.4764 -0.1977
26113W        W44860   9.844  16.504   3.419  0.0599  0.1712  0.0677
26114W        W44861   7.490  10.869   7.278  0.2205  0.0698  0.1864
26115W        W44862  16.804   7.742  10.988  0.0516 -0.3109  0.1495
26116W        W44863   1.692   0.212  23.154 -0.0551 -0.2285  0.0850
26117W        W44864  14.531  28.930  12.860 -0.0409  0.1070 -0.0107
26118W        W44865  28.225  10.824  15.642 -0.3572  0.3603 -0.2987
26119W        W44866  10.573  21.147  15.259 -0.0634  0.0989 -0.2099
26120W        W44867   8.402  14.597  22.559 -0.0848 -0.0437 -0.0470
26121W        W44868   7.487  19.450  24.174 -0.1336  0.2070 -0.0350
26122W        W44869  22.585  19.970  15.783  0.0643 -0.3086 -0.1144
26123W        W44870  24.099  27.729  24.777  0.1827  0.0287  0.4490
26124W        W44871  35.174   4.181  23.668  0.0318  0.2097 -0.4571
26125W        W44872  17.660   9.959  24.901  0.3570 -0.5762  0.2360
26126W        W44873  29.485  26.372  22.285  0.0933  0.0188  0.0993
26127W        W44874  26.863   5.980  19.160 -0.0938  0.0060 -0.4605
26128W        W44875  23.291  19.753  20.922  0.0493  0.4897 -0.1547
26129W        W44876  33.272  14.675  22.803 -0.0670 -0.2426 -0.0309
26130W        W44877   2.395  26.899  18.951 -0.0136  0.1336 -0.0955
26131W        W44878  31.606  22.423  10.179 -0.0383  0.1085  0.2305
26132W        W44879  17.450  18.940   6.068  0.1300 -0.1784 -0.1077
26133W        W44880   8.799  22.615  14.596  0.2211  0.2131  0.3484
26134W        W44881  26.901  31.242  14.043 -0.1485  0.1942 -0.0688
26135W        W44882   6.034  17.940  21.639 -0.3312  0.0312  0.2463
26136W        W44883  23.171  22.652   3.749  0.1009 -0.1377 -0.0065
26137W        W44884  35.271  26.557   0.230 -0.0884  0.0720 -0.1471
26138W        W44885  24.851   2.052   5.373 -0.0305 -0.2032  0.2071
26139W        W44886  33.319  27.521  24.640 -0.2389  0.4824 -0.1852
26140W        W44887   5.246   1.968  24.711  0.1104  0.1592  0.4406
26141W        W44888   4.673  14.279  16.404  0.0821 -0.0446  0.1027
26142W        W44889  27.767  15.306  25.932 -0.3810  0.1690  0.4853
26143W        W44890  12.947   1.741  20.308 -0.2035  0.2237 -0.0122
26144W        W44891  18.247  27.296  11.026 -0.1836  0.5351  0.1260
26145W        W44892  28.182  18.274   8.365 -0.2842 -0.2288 -0.1034
26146W        W44893  25.184  21.561  18.046  0.4568 -0.2272 -0.0879
26147W        W44894  19.070  24.284   3.629  0.2777  0.1356  0.2650
26148W        W44895   2.077   7.357  26.047  0.0475  0.0594  0.1670
26149W        W44896   8.573  23.695   8.622  0.0945  0.0021 -0.0334
26150W        W44897  26.875   9.343  13.334  0.0066  0.1007  0.1789
26151W        W44898   5.082   0.017   5.756  0.5018  0.0619  0.0484
26152W        W44899  34.865  33.057  26.218  0.4199 -0.2739 -0.0293
26153W        W44900  14.342  22.365  11.389  0.2823 -0.0251  0.0690
26154W        W44901   2.305  15.750   1.664 -0.1990  0.0292  0.0172
26155W        W44902  28.354  27.360  25.387 -0.1886  0.0865  0.2125
26156W        W44903  31.977  31.209  19.289  0.1802 -0.2364 -0.0159
26157W        W44904  25.424  12.124  21.992 -0.0578 -0.0398 -0.0748
26158W        W44905  22.304  19.629  18.445  0.0600  0.6068 -0.1522
26159W        W44906   7.709  23.854   3.937  0.1567 -0.1156  0.1094
26160W        W44907   4.595  20.292  21.359 -0.0770  0.0283  0.2060
26161W        W44908  33.758  34.295   4.861  0.2513 -0.0113 -0.2109
26162W        W44909  22.124  20.153  20.357  0.0216 -0.0788 -0.1512
26163W        W44910  30.348  23.328  19.329 -0.1437  0.4795 -0.0281
26164W        W44911  31.521  19.537  22.967  0.0009  0.0605  0.1202
26165W        W44912  11.430   1.931   7.553 -0.0053 -0.0672  0.0774
26166W        W44913  21.220  14.930  24.784 -0.0655 -0.0051 -0.0763
26167W        W44914  24.465  27.966  14.758 -0.2503 -0.0194 -0.4240
26168W        W44915  34.887   8.579  17.919 -0.1416  0.1120 -0.0662
26169W        W44916  16.977  17.180  10.592  0.0951  0.0035 -0.2850
26170W        W44917  30.744  13.622  20.905  0.2172 -0.2626  0.0114
26171W        W44918  10.180  25.486  13.906 -0.1065 -0.0657 -0.2226
26172W        W44919  32.211  11.777  11.908 -0.1063  0.0262 -0.1601
26173W        W44920  24.030  27.752   2.525  0.3668 -0.0496  0.1447
26174W        W44921   7.436  25.523  12.339 -0.1628 -0.2030  0.3666
26175W        W44922  15.887   0.269  22.077 -0.1085  0.1469 -0.2222
26176W        W44923  30.491   3.548  18.274 -0.1085  0.0481  0.2814
26177W        W44924   8.812  14.043   9.263 -0.1215  0.1585 -0.1542
26178W        W44925  31.998   7.812  15.412 -0.1910  0.0723 -0.0739
26179W        W44926  15.530  33.058  25.753  0.4790 -0.2576  0.1179
26180W        W44927  25.367   3.086  20.808  0.3575  0.0038 -0.0130
26181W        W44928  17.545  27.276   7.298 -0.0477 -0.4679 -0.1481
26182W        W44929  28.736   0.910  25.915 -0.1746  0.2478 -0.0539
26183W        W44930  25.273  24.105  11.489 -0.1275 -0.0360  0.2166
26184W        W44931  31.980  19.097   8.771  0.0382  0.2457  0.0592
26185W        W44932  32.952  10.401  14.749 -0.1720  0.1319  0.1173
26186W        W44933  32.320  17.439  19.069 -0.0876  0.0857 -0.2249
26187W        W44934  16.416  22.357   3.317 -0.2770 -0.1771  0.0781
26188W        W44935   6.860  15.136   6.891 -0.0085 -0.2767 -0.0357
26189W        W44936   0.012   4.428  19.151  0.1637  0.0156  0.3934
26190W        W44937  19.725   0.122  22.743 -0.0279  0.2425 -0.0371
26191W        W44938  10.462  13.812   2.668  0.0668  0.0235  0.1917
26192W        W44939  20.448  14.713   7.526 -0.1195 -0.1094 -0.3274
26193W        W44940  14.372   4.386  21.989  0.0117  0.0756  0.1370
26194W        W44941  30.748   6.862  14.567  0.0371 -0.0880  0.1670
26195W        W44942  23.886  16.144  14.426 -0.0404  0.2188  0.0977
26196W        W44943   0.215  10.573  25.848 -0.0625  0.3024  0.2811
26197W        W44944   7.254  29.150  14.533  0.2798  0.3170 -0.1147
26198W        W44945  21.748  15.887   2.910 -0.0501  0.0237 -0.4044
26199W        W44946  16.623  24.762  24.487  0.0754 -0.0374 -0.1611
26200W        W44947   8.141  29.778  14.402  0.0183  0.0635  0.3261
26201W        W44948  21.087  13.067  25.393  0.0596  0.0014  0.0536
26202W        W44949  12.221   7.408   5.178 -0.0004  0.2241 -0.1469
26203W        W44950  34.383  29.689  25.272 -0.0894  0.2106 -0.0647
26204W        W44951  18.288  21.803   2.848 -0.0692 -0.0581  0.0385
26205W        W44952   1.073  29.341   8.170 -0.3080  0.0077  0.2258
26206W        W44953  22.498  18.878  15.689  0.2801  0.1038  0.2800
26207W        W44954  12.364   4.294  10.782 -0.2920  0.1098  0.2835
26208W        W44955  12.331   7.233  19.646 -0.2044  0.1382 -0.0894
26209W        W44956   2.398  12.778  17.182  0.0132 -0.2099 -0.1063
26210W        W44957  28.874  11.437   8.434  0.1971  0.0635 -0.1684
26211W        W44958  17.443   6.091  11.156  0.0354  0.0979 -0.0976
26212W        W44959   4.695  13.683   7.988  0.1676 -0.1933  0.2961
26213W        W44960  17.413  26.122  26.156  0.1063 -0.1703 -0.0362
26214W        W44961   4.296  23.829   3.773  0.3213  0.1022  0.0259
26215W        W44962   1.823  32.950   6.795 -0.2062  0.1512  0.1344
26216W        W44963  14.882  33.820  22.301 -0.1592 -0.2594 -0.0318
26217W        W44964  18.298  31.071  24.012 -0.3374 -0.0176 -0.0221
26218W        W44965  16.846  21.921  21.195 -0.0327  0.0828 -0.2610
26219W        W44966  18.155  16.671  19.115 -0.1221  0.0471  0.0788
26220W        W44967  34.508  21.107  21.697 -0.0050  0.0160 -0.1558
26221W        W44968  32.141   1.045  20.802  0.3225 -0.3938  0.1839
26222W        W44969  16.424   4.755   5.275 -0.0169  0.4754  0.0714
26223W        W44970  10.260   6.872  18.780  0.4804 -0.0341  0.0946
26224W        W44971  13.648   2.009   8.280 -0.1121 -0.3112 -0.0407
26225W        W44972   8.368  12.050   9.651  0.2575  0.0688  0.1734
26226W        W44973  14.664  13.879   0.968  0.0814 -0.0650 -0.0875
26227W        W44974  21.040  32.722   7.446 -0.0136 -0.1288  0.0629
26228W        W44975   8.562   2.313   4.011  0.0031 -0.1429 -0.0807
26229W        W44976  11.650  12.565  10.589 -0.2453 -0.1676  0.1844
26230W        W44977  11.145   1.788   0.677 -0.1638 -0.1206 -0.1724
26231W        W44978   4.488  31.351   6.227 -0.1843  0.2044 -0.1337
26232W        W44979  28.149  15.861  11.386  0.0235  0.0692 -0.2410
26233W        W44980  16.139  18.888  13.692 -0.0996 -0.4228 -0.0330
26234W        W44981  17.842  18.186  12.642  0.1142  0.1166 -0.0289
26235W        W44982  17.632   6.626  11.180  0.2442  0.2385  0.2476
26236W        W44983   7.667  19.074  23.274 -0.0783 -0.1302  0.1633
26237W        W44984  19.834   3.183  21.900  0.0600  0.1186 -0.1640
26238W        W44985   2.083  12.520   1.311  0.3241 -0.2269 -0.0258
26239W        W44986  31.669  29.630   0.528 -0.1325  0.0545  0.0236
26240W        W44987   8.515  14.303   7.727 -0.2707  0.1556  0.1742
26241W        W44988  33.311  28.012   4.393 -0.1246 -0.2367  0.3335
26242W        W44989  14.877  11.164   5.866 -0.1874  0.0667 -0.0051
26243W        W44990   1.107  30.059  25.513  0.2387 -0.1327  0.1435
26244W        W44991  11.924  10.340  24.244 -0.2332  0.0596 -0.3253
26245W        W44992  34.493   7.134   2.642 -0.2061 -0.2574 -0.1004
26246W        W44993  19.886  27.039   4.816 -0.3816 -0.1034  0.1693
26247W        W44994  27.458   3.625  14.888  0.0657 -0.2643 -0.1694
26248W        W44995   3.219  21.546  25.506  0.2121  0.0401 -0.1211
26249W        W44996   0.913  34.227   7.074  0.3413 -0.1432 -0.4519
26250W        W44997   0.057   0.860   6.645  0.0763  0.0684 -0.1556
26251W        W44998  22.002   5.468   2.822  0.1601  0.0700  0.0976
26252W        W44999   5.971  31.736   8.841 -0.1221 -0.3287 -0.3059
26253W        W45000   5.830  19.745   2.571  0.0278  0.2337 -0.0935
26254W        W45001  23.052  11.542  24.806 -0.1487 -0.0700  0.0169
26255W        W45002  20.022   6.036  22.244 -0.2303 -0.2304  0.2320
26256W        W45003  29.789   1.634   0.500  0.0692  0.1253  0.1797
26257W        W45004   7.576  23.340   4.753  0.0088 -0.1769  0.1099
26258W        W45005  30.286  15.804  23.786 -0.3146 -0.0298  0.0713
26259W        W45006  10.102  34.695   6.419 -0.2795 -0.1994  0.0778
26260W        W45007   1.000   9.982   3.788 -0.0172  0.0734 -0.3752
26261W        W45008  14.474  17.713   8.121  0.1861  0.1846 -0.0184
26262W        W45009  34.882  11.505  21.014 -0.1814  0.1612  0.0628
26263W        W45010   6.219   1.612  13.138  0.2753  0.0718 -0.1696
26264W        W45011  34.894  22.675  10.791  0.2542 -0.1291  0.2585
26265W        W45012  31.615  11.060  15.596  0.3488  0.0356 -0.0394
26266W        W45013  24.870  27.592   1.668 -0.0402 -0.1823 -0.2036
26267W        W45014   5.536  10.295   4.752  0.1370  0.0838 -0.1928
26268W        W45015  13.068  11.099  13.866  0.1097  0.1960  0.3623
26269W        W45016   2.099  26.708  20.088  0.0675  0.0836  0.0653
26270W        W45017  26.108  18.191   8.322  0.1567  0.0184 -0.2768
26271W        W45018  19.049   8.423  22.820 -0.1235  0.0729  0.3497
26272W        W45019   6.074  28.902  22.074 -0.1820 -0.2796  0.1665
26273W        W45020  35.370   3.805  26.159  0.2146 -0.0657  0.0669
26274W        W45021  13.857  29.467  15.187  0.0946  0.1075  0.0421
26275W        W45022  13.542  15.269  23.855  0.3365 -0.0991  0.0859
26276W        W45023  28.988   7.759  20.817 -0.0355 -0.0250  0.2098
26277W        W45024  26.511  19.939  24.589 -0.0279  0.0819 -0.1424
26278W        W45025  21.096  16.139  22.985 -0.1412  0.0020  0.0946
26279W        W45026  14.057  33.997  11.951 -0.1158 -0.0716 -0.0109
26280W        W45027   5.809  27.239  11.780  0.1558  0.0717 -0.3553
26281W        W45028  18.468   6.521  21.954 -0.1177 -0.1257 -0.2271
26282W        W45029  21.191  27.503  17.989 -0.2306 -0.1361  0.0451
26283W        W45030  17.551   8.773  19.660 -0.0590 -0.0035  0.0105
26284W        W45031  28.506  18.351  17.450 -0.0766  0.3592  0.3237
26285W        W45032   9.808  22.080  12.812 -0.0064 -0.0462 -0.0408
26286W        W45033  33.789   9.718  22.805  0.3161  0.1004 -0.0821
26287W        W45034   9.204  12.763  21.995 -0.4050  0.4544  0.0545
26288W        W45035  15.674  22.955   3.252 -0.1534  0.1261 -0.0444
26289W        W45036  25.582   3.367  24.992 -0.0882 -0.0987 -0.1808
26290W        W45037  13.651   9.503  21.567  0.0353  0.2472 -0.3693
26291W        W45038  30.854   1.959  20.406 -0.0926  0.0350 -0.4093
26292W        W45039   5.218   0.771  26.016  0.3241 -0.1844  0.2648
26293W        W45040  25.428  15.532   0.395 -0.1448 -0.0310 -0.0505
26294W        W45041  27.854  16.467   5.500 -0.1972  0.0446  0.0195
26295W        W45042  22.333  18.598  14.066  0.1017 -0.4100 -0.3430
26296W        W45043   0.294  13.512   9.116  0.1553  0.1728  0.2371
26297W        W45044  28.538  29.568  12.876 -0.2829  0.1980  0.0095
26298W        W45045  15.748   8.567  22.471 -0.3095  0.0556 -0.0739
26299W        W45046  34.985  29.709  19.504 -0.0670 -0.0178  0.0547
26300W        W45047  35.163  19.151  13.372 -0.0575  0.1319 -0.2366
26301W        W45048   0.940  30.180  22.646  0.3405 -0.0194  0.0378
26302W        W45049  11.589   9.500   1.011  0.1365  0.3301  0.0646
26303W        W45050  10.770   9.195  23.674 -0.1376 -0.4275 -0.0613
26304W        W45051   3.826  16.242  15.873  0.0568  0.2657 -0.1933
26305W        W45052   1.192  24.454  24.378  0.1221 -0.2698  0.0896
26306W        W45053   0.200  32.794  22.893  0.2272 -0.2537  0.2200
26307W        W45054  25.569   1.541  25.967  0.1343 -0.0742  0.3011
26308W        W45055  13.544  13.977  25.560 -0.2507  0.1632 -0.1183
26309W        W45056   9.742  13.692  23.553  0.1579  0.2862  0.0624
26310W        W45057  29.092  22.738  19.030 -0.0327 -0.1135  0.0254
26311W        W45058  27.731  15.566   5.175 -0.0744 -0.1884 -0.0369
26312W        W45059  29.752  13.944   7.438 -0.0396  0.0171 -0.0924
26313W        W45060  10.059  14.170  22.683 -0.1734 -0.1193  0.2858
26314W        W45061  31.839  20.421  24.003 -0.2156 -0.0825 -0.0477
26315W        W45062   6.647   1.299   5.874 -0.4237  0.0558 -0.2023
26316W        W45063  27.807  17.749  14.747 -0.2328  0.3463  0.0159
26317W        W45064  17.468  10.139   2.695 -0.0164  0.0279 -0.2534
26318W        W45065  24.541  13.187  11.480 -0.0386 -0.0407 -0.2180
26319W        W45066  17.666  25.306  25.175  0.0025 -0.2011 -0.0749
26320W        W45067  12.911  12.193  10.947  0.1449  0.2716  0.1966
26321W        W45068  13.643  14.915   1.555 -0.1155  0.2934 -0.2400
26322W        W45069  15.978  19.139   5.781  0.2574  0.2049  0.0419
26323W        W45070   6.766  27.663   5.795 -0.2305  0.1206 -0.0188
26324W        W45071   4.312   3.727   8.015  0.0488 -0.1280 -0.0100
26325W        W45072  29.582   1.091  20.065  0.1547 -0.2633 -0.4042
26326W        W45073  25.044  31.628  18.267  0.1697  0.1979 -0.0758
26327W        W45074   1.809   7.109  15.835  0.0028  0.4490  0.0076
26328W        W45075  24.290  14.503  14.524 -0.0981 -0.2402  0.0651
26329W        W45076  16.941  11.486  11.237 -0.5604  0.0294  0.0215
26330W        W45077  14.163  31.904   9.667 -0.0406 -0.0622  0.3515
26331W        W45078  14.088   8.248  20.575  0.1022 -0.1490  0.1546
26332W        W45079   5.579  17.604  20.927  0.2324 -0.2188  0.1895
26333W        W45080  12.691  34.278  12.126 -0.2465 -0.2190  0.2946
26334W        W45081   1.377  19.588  23.988 -0.2734 -0.0336 -0.2239
26335W        W45082  10.878   4.648  25.440 -0.2015  0.0798 -0.0919
26336W        W45083   9.621  25.283  10.923  0.0500 -0.1175  0.2362
26337W        W45084  25.344   0.105   0.832  0.1192 -0.0455 -0.2545
26338W        W45085  32.175   9.457  13.719  0.2822 -0.4067 -0.1225
26339W        W45086   7.688  33.732   8.075 -0.1299 -0.1993  0.1332
26340W        W45087  10.785  31.540   2.467 -0.2192  0.0561  0.3466
26341W        W45088   1.954  13.540  21.661 -0.0767 -0.2022 -0.1840
26342W        W45089   5.003   4.821  21.380  0.2328 -0.0261 -0.0387
26343W        W45090  27.435  11.698   6.979  0.4018 -0.2200 -0.1458
26344W        W45091  29.283  21.067   8.307 -0.2666 -0.1513 -0.3830
26345W        W45092   8.365  16.489   5.127  0.1112  0.0799 -0.0498
26346W        W45093  22.906  10.873  15.896  0.1692 -0.3476  0.1940
26347W        W45094  25.140  27.338  21.807  0.2531  0.0203 -0.2163
26348W        W45095  27.948  26.973   9.984 -0.2160 -0.1170 -0.1164
26349W        W45096  28.580  27.896   0.395  0.2106 -0.1597  0.2494
26350W        W45097  28.401   0.105  18.893 -0.2340  0.0961 -0.1604
26351W        W45098  29.607  28.335  11.203 -0.1971  0.1128  0.1002
26352W        W45099   6.162  12.213   6.648 -0.1331  0.1186 -0.1960
26353W        W45100  19.702  22.080  10.646 -0.0858  0.0163 -0.0122
26354W        W45101  16.148  25.838  24.082  0.2069 -0.2727 -0.0327
26355W        W45102  34.298  10.831  23.208 -0.2975 -0.1196  0.1051
26356W        W45103  16.361   5.594   6.895 -0.3965  0.0268 -0.0267
26357W        W45104   5.959  24.234  25.343  0.0005 -0.0133  0.0701
26358W        W45105  27.889  16.573   5.025 -0.0734 -0.0453  0.1100
26359W        W45106  22.210  30.601   4.151  0.2649  0.2428 -0.1877
26360W        W45107  28.669   6.421  10.888 -0.1125 -0.2992 -0.1530
26361W        W45108  21.347  30.735  16.556  0.0226  0.1494  0.0104
26362W        W45109   5.565  22.199   4.555  0.2030  0.2527 -0.0860
26363W        W45110   8.752  20.528   9.515  0.0138 -0.1583 -0.4294
26364W        W45111  27.609  32.926  17.107 -0.0521  0.0758 -0.0266
26365W        W45112  31.517  30.295  19.722  0.2917  0.3053  0.0088
26366W        W45113  15.307   5.506  12.641 -0.2506 -0.0584 -0.1836
26367W        W45114  24.414  12.235  14.609  0.0233 -0.3353 -0.0001
26368W        W45115   6.583  21.367   0.884  0.0551 -0.1331 -0.0321
26369W        W45116  24.826   5.263   5.130 -0.0480 -0.1886  0.1970
26370W        W45117  16.417  12.688   4.642 -0.0934 -0.1392 -0.3835
26371W        W45118   0.598  26.018  20.237 -0.1044 -0.0833  0.0377
26372W        W45119  34.347  25.236  12.583 -0.1625  0.0966 -0.1854
26373W        W45120  15.477  31.270  22.806 -0.2392  0.0333 -0.1348
26374W        W45121  15.505   7.198   6.915  0.0122  0.1995 -0.0347
26375W        W45122   2.576  13.274  25.034  0.2133  0.1982 -0.1993
26376W        W45123  14.509  23.448  13.997  0.0071 -0.1347  0.2187
26377W        W45124  23.339   1.810   3.952  0.0621 -0.1251  0.0737
26378W        W45125   5.697  35.017  21.770  0.0286 -0.1539 -0.0574
26379W        W45126   2.495  17.360   2.512 -0.2160  0.2181 -0.1553
26380W        W45127   7.503   7.813   2.666 -0.1466  0.3497  0.3603
26381W        W45128  28.925  11.409   6.806  0.2668  0.0463  0.2096
26382W        W45129   6.748  30.836  12.511 -0.2278  0.0341  0.1511
26383W        W45130  20.233   5.948   7.038  0.0689 -0.1206  0.1539
26384W        W45131   9.758  28.783  15.322  0.0975  0.0144 -0.0327
26385W        W45132  11.148  17.106  19.877 -0.2343 -0.4986 -0.0172
26386W        W45133  20.851  28.642   5.039  0.0325 -0.1997  0.0398
26387W        W45134   4.467  29.378   6.779 -0.0265 -0.0088  0.2156
26388W        W45135  14.996  32.951   9.079 -0.0036 -0.0500 -0.0396
26389W        W45136  27.117   1.828  19.643 -0.1157 -0.1457 -0.1766
26390W        W45137  20.597  31.683  20.901 -0.0807  0.0542 -0.0306
26391W        W45138  14.186  23.024   4.278  0.1120 -0.0168  0.2418
26392W        W45139  33.627  27.178  24.409  0.0161  0.0254  0.0092
26393W        W45140  30.037  12.161   8.256  0.3446  0.1287  0.0308
26394W        W45141  26.591  18.659   0.368 -0.3052 -0.2336  0.1079
26395W        W45142   4.201  28.274   3.608  0.0037 -0.1484 -0.1572
26396W        W45143  35.158   2.853  20.152 -0.0208  0.0122  0.0012
26397W        W45144  29.743   0.128   2.156 -0.2631  0.1149 -0.2181
26398W        W45145   0.107  30.958   9.018  0.1150  0.1398  0.1809
26399W        W45146  29.821  16.338   6.543 -0.0252  0.2066 -0.0801
26400W        W45147   3.418  31.381   7.389  0.1484  0.2123 -0.1615
26401W        W45148  30.336   8.333  17.748 -0.3424  0.0951  0.2408
26402W        W45149   0.297   7.953  25.358 -0.1285  0.2212  0.0255
26403W        W45150  22.688  28.438   3.535  0.0836 -0.0045  0.4429
26404W        W45151  29.803   9.775  20.447  0.1051 -0.0658  0.0176
26405W        W45152  15.057  27.576  13.158  0.2076  0.0254  0.2443
26406W        W45153  18.739   8.854   6.811 -0.1459  0.3590  0.1200
26407W        W45154  15.435  11.087   6.212  0.0809  0.2382 -0.0582
26408W        W45155  29.760  10.813  22.590  0.1325  0.2218  0.1210
26409W        W45156  15.056   1.269  17.703 -0.3102  0.0964  0.1271
26410W        W45157  32.062  34.951   3.580  0.1718  0.2638  0.0469
26411W        W45158  21.961  34.733  21.065 -0.0284 -0.1363 -0.2859
26412W        W45159  26.438  20.063   1.080  0.2782  0.2125 -0.2787
26413W        W45160  14.985  24.461   2.129 -0.2119 -0.4749  0.0939
26414W        W45161   8.787   9.376  19.453  0.0984  0.2795  0.0595
26415W        W45162  31.896   0.240   0.482 -0.2312 -0.1050 -0.2594
26416W        W45163  13.701  29.783   1.049  0.2480 -0.1118 -0.0768
26417W        W45164   2.403  20.400  17.829  0.2339  0.0849  0.2213
26418W        W45165   7.525  27.347  21.493 -0.4076 -0.0378 -0.0003
26419W        W45166  18.565  26.261   0.484 -0.0125  0.0794  0.0195
26420W        W45167  27.696   6.787   0.953  0.3617 -0.0569  0.1191
26421W        W45168  34.241  18.115   7.833 -0.0333  0.2794 -0.1982
26422W        W45169  26.943   4.276  23.358 -0.1741 -0.5598 -0.0730
26423W        W45170  18.268  21.670  24.643 -0.0394 -0.0852  0.0841
26424W        W45171  25.684  26.019  15.019 -0.0421  0.2090  0.1347
26425W        W45172  29.034   4.420  23.809  0.1735  0.0443  0.1343
26426W        W45173  10.622  26.657   0.247  0.0138 -0.2227  0.0528
26427W        W45174   8.769  13.995  18.256  0.0859  0.0033 -0.0273
26428W        W45175  30.209   0.229   6.102  0.0763  0.0081  0.3593
26429W        W45176  34.023   7.576  13.163 -0.1417  0.3610  0.1096
26430W        W45177  10.758  11.517  11.098 -0.0947 -0.1968  0.0660
26431W        W45178  17.333   1.928  18.963  0.0975 -0.0252 -0.2012
26432W        W45179  34.420  17.680   8.649  0.1160 -0.1932  0.0291
26433W        W45180  20.283   6.191   4.455 -0.0924  0.2064  0.0573
26434W        W45181   6.459  11.585  20.535 -0.0634  0.0218 -0.0947
26435W        W45182  24.896  21.921  18.662 -0.2291 -0.2380 -0.0709
26436W        W45183  25.853   2.974  21.934  0.0302 -0.1684  0.0027
26437W        W45184  30.330  27.027   0.434 -0.2994  0.0488  0.4975
26438W        W45185  16.083  31.591   2.351 -0.4167 -0.2428  0.1112
26439W        W45186  22.184  26.579  21.614 -0.0628 -0.2207 -0.0219
26440W        W45187   6.843   7.254  24.937  0.0734 -0.0437 -0.0727
26441W        W45188   3.690  17.560  18.770  0.2736  0.1765  0.1007
26442W        W45189  11.149   9.403  24.168 -0.2431  0.2252 -0.1682
26443W        W45190  27.962  32.079  17.582  0.0421  0.0217  0.1949
26444W        W45191   6.520  33.748   3.533  0.0169  0.1019  0.2522
26445W        W45192  34.067  11.900  13.571  0.2954 -0.2628  0.1521
26446W        W45193  21.710   7.072   8.301  0.1291 -0.4589 -0.0035
26447W        W45194  25.982  12.188  20.963 -0.1245 -0.2639  0.0529
26448W        W45195  16.870  32.424  19.656  0.0952  0.0282  0.0371
26449W        W45196  28.377   0.856   2.216  0.1303 -0.0529  0.2227
26450W        W45197   5.173  31.171   0.082  0.2622  0.0178 -0.0764
26451W        W45198  34.270  22.035  21.627  0.0628  0.2043 -0.0647
26452W        W45199  30.345   3.326   3.454  0.2326  0.3646  0.1534
26453W        W45200  27.452  27.728   1.812 -0.2429  0.2941  0.0278
26454W        W45201  30.795   8.245  18.410 -0.2280  0.3048  0.0949
26455W        W45202   2.505  17.101   1.913 -0.0889 -0.0783  0.2837
26456W        W45203  13.234   8.465   2.787  0.0776 -0.1017 -0.0511
26457W        W45204  18.550   6.867  12.900 -0.4882 -0.1109 -0.2189
26458W        W45205   5.378   2.218  21.077 -0.1206  0.1393  0.2190
26459W        W45206  13.979   3.790  21.579  0.2968  0.0930 -0.1746
26460W        W45207   1.273   7.007   6.237 -0.3006  0.3132  0.1343
26461W        W45208  32.288   6.555   2.649  0.0153 -0.0909  0.0699
26462W        W45209  21.055  11.264   5.977  0.3488 -0.0007 -0.0734
26463W        W45210  21.748  20.823  22.653 -0.0471 -0.0161 -0.3237
26464W        W45211   9.865   0.460   4.811 -0.0147 -0.5509  0.0653
26465W        W45212  19.240   2.503  22.568 -0.0937  0.3480  0.1966
26466W        W45213  19.459   0.954  20.233  0.1130 -0.1774  0.2283
26467W        W45214  17.237   6.338  12.139 -0.2491 -0.2672 -0.0725
26468W        W45215  24.678   8.080  16.380  0.0909  0.0858  0.0878
26469W        W45216  20.200  24.567  24.737 -0.0952 -0.1537  0.1963
26470W        W45217  12.943  20.100  12.806 -0.1531  0.1037  0.1593
26471W        W45218  28.938   3.600   5.099  0.0549 -0.0387  0.4545
26472W        W45219  12.652   6.280  13.081  0.0570  0.5160  0.0240
26473W        W45220  14.444  15.482  22.767  0.2136 -0.1597  0.4258
26474W        W45221  33.151   9.876  17.875  0.1946  0.0428  0.2730
26475W        W45222  17.742  21.805  22.680 -0.0237 -0.3536 -0.0876
26476W        W45223  31.197  20.507   9.076  0.0223 -0.0090  0.0437
26477W        W45224   3.902  13.810   0.334  0.0060  0.2441  0.2217
26478W        W45225  16.682  25.890   9.935 -0.1358 -0.1610 -0.2290
26479W        W45226  12.985  26.986   9.887  0.0198 -0.1560 -0.1573
26480W        W45227  29.573  28.873   1.462  0.2082  0.1011  0.0893
26481W        W45228  30.331  28.277  24.052  0.1191 -0.3087 -0.2795
26482W        W45229   4.292  14.244   1.632 -0.1491 -0.0572 -0.3850
26483W        W45230   3.942  15.700   5.392  0.1971 -0.0138  0.1390
26484W        W45231  10.210  28.835   0.692  0.0140  0.1036 -0.0476
26485W        W45232  33.435  19.735  13.646  0.4383  0.2108  0.0208
26486W        W45233  31.935  11.751   0.394  0.1481 -0.1165 -0.0620
26487W        W45234  19.908  16.308   3.332 -0.1679  0.0893  0.1843
26488W        W45235   8.666  19.512   6.334 -0.2983 -0.1753  0.1171
26489W        W45236  11.427   0.723   6.488  0.4649 -0.0613  0.2476
26490W        W45237  26.123   7.534  20.620 -0.2314  0.1353 -0.2744
26491W        W45238  24.991  30.199  16.219  0.3425 -0.3724 -0.0631
26492W        W45239   3.135   6.862  23.913 -0.0759 -0.0219 -0.4013
26493W        W45240   1.515  21.374   0.043  0.1855 -0.0130  0.1363
26494W        W45241   1.205  20.713  16.353 -0.2461 -0.2617  0.0332
26495W        W45242  29.601   1.147  24.456 -0.0368  0.0072  0.0499
26496W        W45243  31.909   2.409   0.705 -0.2045  0.0167 -0.1413
26497W        W45244  30.977  27.400  12.205 -0.2194  0.2271  0.0311
26498W        W45245  16.883  19.940  12.646  0.1420  0.1482 -0.3554
26499W        W45246   5.145  27.797  11.710  0.0707 -0.2564  0.0957
26500W        W45247  11.825   3.984   7.005  0.0223  0.3122  0.1500
26501W        W45248  32.014  15.787  23.061  0.1908 -0.2232  0.1703
26502W        W45249  31.630  27.448   1.261  0.0397  0.2258 -0.0295
26503W        W45250   5.144  15.061  17.172 -0.1039  0.2385  0.0125
26504W        W45251  12.173  28.946  11.923  0.3631  0.4216  0.2618
26505W        W45252  17.955  10.382   3.016 -0.0167 -0.0076  0.3431
26506W        W45253  15.258  28.064   3.783 -0.1090 -0.2390  0.0550
26507W        W45254   2.900  18.789  25.705 -0.2696  0.0644 -0.4052
26508W        W45255  21.835  11.787  24.220  0.1436  0.0472 -0.1987
26509W        W45256  19.522   5.108   5.141  0.2236 -0.1442 -0.4070
26510W        W45257  25.590  23.120  17.898 -0.2204  0.1760 -0.0272
26511W        W45258  22.627   6.391  25.094 -0.3621  0.1767  0.2656
26512W        W45259   7.542  24.954   0.474 -0.0066  0.0402  0.3241
26513W        W45260  12.489   9.079  19.773  0.1548  0.0603 -0.0791
26514W        W45261  16.692  20.995   1.918 -0.0261 -0.2188  0.0906
26515W        W45262   0.935   5.449  13.118  0.0218 -0.0523  0.0401
26516W        W45263  13.445  10.725  25.262  0.3158 -0.1032  0.0716
26517W        W45264  14.506  27.874   4.320  0.0655  0.1642  0.0295
26518W        W45265   7.263  27.625  23.897  0.2516 -0.2125 -0.2292
26519W        W45266  33.345  13.412  12.581 -0.0515 -0.2736 -0.0149
26520W        W45267  11.197  17.058  10.839  0.0284  0.4935  0.2051
26521W        W45268  27.695   3.778  16.188 -0.2833 -0.2087  0.1542
26522W        W45269  12.094   1.322   8.350  0.2705 -0.0134 -0.0031
26523W        W45270  28.066  22.703  16.058  0.0232  0.1195 -0.0507
26524W        W45271  20.640  13.149   6.748  0.1287 -0.1142 -0.1051
26525W        W45272   3.572   3.596   6.378  0.0888 -0.3800 -0.1025
26526W        W45273   2.835   5.469   1.629 -0.0861 -0.1550 -0.2849
26527W        W45274   4.329  23.024  23.906  0.1283 -0.1144  0.2721
26528W        W45275  30.885  33.990   6.099  0.0125 -0.1441  0.2660
26529W        W45276  35.231   7.527   0.663  0.0702 -0.2822 -0.4177
26530W        W45277  21.438  16.534  15.966 -0.0512 -0.1915 -0.0440
26531W        W45278  20.914  32.605  25.200 -0.0581  0.2617  0.1053
26532W        W45279  21.319  33.272   8.107  0.0793  0.1739  0.0897
26533W        W45280  30.651  29.404   2.238 -0.0427 -0.0951 -0.0968
26534W        W45281  17.606  17.570  11.279  0.0875 -0.1308  0.1436
26535W        W45282   7.219  21.791   1.033 -0.0042 -0.1945  0.0866
26536W        W45283  13.032  24.953  16.187 -0.2206  0.0768  0.1470
26537W        W45284  34.649  18.141  24.235 -0.3819 -0.0553 -0.1563
26538W        W45285  18.836   0.892  19.026 -0.2058 -0.1048  0.1710
26539W        W45286  14.459  30.531  12.400  0.1394  0.0989 -0.5751
26540W        W45287   5.152   6.415   5.516 -0.0483 -0.0098 -0.0044
26541W        W45288  11.168  23.018  24.960  0.1153 -0.2366  0.0112
26542W        W45289   7.016  19.693   7.762 -0.3632 -0.0686  0.2306
26543W        W45290   3.593  18.915  17.824  0.0262 -0.0318  0.1465
26544W        W45291   2.818   5.972   2.245 -0.0613  0.0999  0.2434
26545W        W45292   2.110  18.202   1.250  0.0149 -0.2237  0.3528
26546W        W45293  27.401  19.427   8.472  0.2401 -0.2542 -0.0557
26547W        W45294   8.658   4.924  25.043  0.1620  0.3899 -0.1008
26548W        W45295  29.940  32.393  23.471 -0.0561  0.2757  0.0725
26549W        W45296  23.585   0.655  25.623  0.2255 -0.2310  0.1983
26550W        W45297   4.470   2.415  23.101  0.0485  0.1531  0.0251
26551W        W45298  26.978   7.304  23.617  0.1546  0.3335 -0.3011
26552W        W45299  24.285  15.529   0.347  0.4769 -0.2989  0.2046
26553W        W45300  14.226  28.594  15.623 -0.1946 -0.1412 -0.1465
26554W        W45301  33.006  27.843  14.293  0.1420  0.0958  0.0920
26555W        W45302  30.306  17.093   7.849  0.0019 -0.3270 -0.0030
26556W        W45303  33.112  32.841  17.090  0.0412  0.0391 -0.0046
26557W        W45304   2.562   6.830   2.549  0.1429 -0.0990  0.1115
26558W        W45305   2.085  18.021   0.221 -0.0973  0.1882 -0.0471
26559W        W45306  24.767  12.724  17.065 -0.3427 -0.3529  0.2054
26560W        W45307  15.387  10.716   2.476  0.1148 -0.0572 -0.3081
26561W        W45308  12.593   9.277   7.540  0.0138 -0.1383  0.3700
26562W        W45309  25.211  21.331  12.492 -0.1464 -0.2279  0.0633
26563W        W45310   1.616   8.803  16.115  0.1300 -0.0494  0.0344
26564W        W45311   4.876  28.710  19.489 -0.1125 -0.3517 -0.0316
26565W        W45312   3.226  19.025  20.906  0.1216 -0.2552  0.1028
26566W        W45313  23.967  24.030  15.246 -0.1362 -0.0110  0.1943
26567W        W45314  35.351  35.070  24.619 -0.4195  0.0480  0.2229
26568W        W45315  23.100  13.565   2.808 -0.0685  0.1482  0.0131
26569W        W45316  27.086   8.739  21.695 -0.0010 -0.4239 -0.1383
26570W        W45317   5.574  29.847  25.502 -0.1784 -0.0501  0.0423
26571W        W45318  18.312  32.068  20.624  0.0416 -0.3527 -0.1680
26572W        W45319  30.285  16.883  15.978  0.2183 -0.0449  0.0304
26573W        W45320  17.034  26.362   4.820  0.0721 -0.1243  0.0815
26574W        W45321  14.836  31.939   4.035  0.1284  0.1881  0.2288
26575W        W45322  28.432  19.139  25.509 -0.2692 -0.1675  0.3406
26576W        W45323  13.475  34.719  13.196  0.1596  0.0357 -0.2868
26577W        W45324  26.799  18.673  24.026 -0.2606 -0.1491  0.4621
26578W        W45325  32.698  34.914  16.727 -0.1464  0.0235 -0.0455
26579W        W45326  12.437  30.083  11.377 -0.0426 -0.1861 -0.0038
26580W        W45327   1.833  34.583  24.045  0.0849  0.2290  0.1835
26581W        W45328  18.821  19.578  22.352  0.0609  0.1305 -0.0804
26582W        W45329  21.419  34.443  16.543  0.0454 -0.1394  0.1245
26583W        W45330  30.118  24.669   8.615 -0.0449  0.1644  0.1389
26584W        W45331   6.047  28.390  14.339 -0.1869 -0.1469  0.1049
26585W        W45332  24.602  17.420  13.147  0.0074 -0.3726 -0.0531
26586W        W45333  16.192   4.788   4.630 -0.0937 -0.1255 -0.1548
26587W        W45334   8.772  20.193   7.908 -0.0950 -0.0754  0.0108
26588W        W45335  30.323  16.501  11.610  0.3846 -0.0404 -0.2759
26589W        W45336  12.957   1.344  20.551  0.1042 -0.1107  0.1213
26590W        W45337   1.924  21.167   2.150 -0.2978 -0.0166  0.0222
26591W        W45338   6.144  15.018   4.736  0.0807  0.0734  0.0728
26592W        W45339  26.166  20.594  18.593 -0.0971 -0.0518 -0.2049
26593W        W45340   1.523   6.049   3.795  0.1982  0.0574  0.1393
26594W        W45341  10.184   0.543   9.171  0.1251  0.0870  0.0014
26595W        W45342  27.583   7.824  16.605 -0.1989  0.2922  0.1712
26596W        W45343  24.741  26.611  11.222  0.2517 -0.0582  0.1923
26597W        W45344   4.784  11.440  25.549  0.0049 -0.3351  0.0764
26598W        W45345  19.385  32.821   8.693 -0.2267 -0.1471  0.2059
26599W        W45346  29.085   1.042  17.228  0.3192 -0.3657 -0.4251
26600W        W45347  22.390  15.515  20.265 -0.0604  0.1423  0.2315
26601W        W45348  29.493   3.375  18.415  0.1760 -0.1126 -0.0206
26602W        W45349  30.087   0.124   1.414 -0.1015  0.0816  0.1117
26603W        W45350  27.627   0.061   4.592  0.0245 -0.2630 -0.1165
26604W        W45351   1.840   3.475   5.036 -0.0010  0.1355 -0.2767
26605W        W45352   8.122  26.408  14.221 -0.0429 -0.0800 -0.0503
26606W        W45353  26.043   9.472  16.853  0.1582  0.1070 -0.0110
26607W        W45354  34.837  14.973   1.367  0.1935  0.3128 -0.1026
26608W        W45355  15.776   4.677  18.857 -0.0666 -0.1542  0.0720
26609W        W45356  14.833  30.430   5.285 -0.0412  0.0661  0.3271
26610W        W45357  28.053  17.712  21.914  0.1958 -0.4621 -0.1481
26611W        W45358  12.275  34.242  25.517  0.1600  0.1234  0.1109
26612W        W45359   5.371   7.391  25.116 -0.0636 -0.1009  0.0730
26613W        W45360  20.110  22.726  22.800 -0.3404 -0.0231 -0.0199
26614W        W45361  28.692  21.098  15.881 -0.2125 -0.1670  0.0902
26615W        W45362   4.076  26.174   9.742 -0.2509 -0.4730  0.1710
26616W        W45363   1.605  11.113  21.536 -0.1587 -0.3333 -0.0136
26617W        W45364   4.965  19.933  20.622 -0.3869  0.4040 -0.1235
26618W        W45365  18.013  14.670  20.605  0.1431 -0.1546 -0.0959
26619W        W45366   6.127   1.049   7.492 -0.3634 -0.2349  0.0315
26620W        W45367  32.284  32.312  22.411 -0.1058 -0.0309  0.0053
26621W        W45368   8.135   4.915   7.978  0.0143  0.2382  0.1208
26622W        W45369  17.382  11.267  18.188 -0.1817 -0.1435 -0.2566
26623W        W45370  33.112  25.955   2.548  0.1574  0.3034  0.0591
26624W        W45371  21.783  19.208  15.125 -0.1102  0.1183 -0.0308
26625W        W45372  28.047  31.588  26.118 -0.3434  0.0510 -0.0792
26626W        W45373  11.747   8.472  13.745 -0.1757 -0.0004 -0.1826
26627W        W45374   7.752  31.957   1.088 -0.2444 -0.3153 -0.1332
26628W        W45375  33.351  19.145   9.056  0.3355 -0.0802 -0.4040
26629W        W45376  34.518  18.089  12.697  0.2195 -0.1650 -0.1573
26630W        W45377  24.936  22.937  15.047  0.1213 -0.0012 -0.2246
26631W        W45378   8.448  16.137  10.184 -0.0105  0.2468 -0.0083
26632W        W45379  19.279   2.936   0.800  0.0977  0.0508  0.1834
26633W        W45380   4.893  11.323  21.624 -0.0592 -0.2143 -0.1268
26634W        W45381  16.777  24.158  23.048  0.2208 -0.0743 -0.0837
26635W        W45382   9.629   3.709  11.661 -0.0010  0.2045  0.0856
26636W        W45383  29.004  27.574   9.949  0.4159 -0.0186  0.0451
26637W        W45384  25.735  20.159  25.928  0.1988 -0.1470  0.2348
26638W        W45385  10.783  32.076  24.812 -0.2034  0.3824  0.5032
26639W        W45386  34.329   6.633   2.868 -0.0816 -0.2881  0.0023
26640W        W45387  21.215  22.529  25.902  0.0114  0.1809  0.2675
26641W        W45388  12.168  32.154  14.639  0.3980 -0.1811  0.0662
26642W        W45389   6.231   5.412  23.777 -0.1729 -0.0218 -0.0823
26643W        W45390   0.324   9.617  23.804  0.0733  0.1239 -0.1268
26644W        W45391  32.936  16.864  13.677  0.1788  0.1512  0.1574
26645W        W45392  25.176   4.859   3.960  0.1397 -0.3671  0.1196
26646W        W45393   7.567  21.135   2.937  0.1652  0.3809 -0.1421
26647W        W45394   8.966  26.896  12.362  0.3443  0.1050 -0.1013
26648W        W45395   2.331  33.296   3.395  0.0158 -0.2223  0.0315
26649W        W45396  22.479   0.120  20.528  0.1742 -0.2130  0.0008
26650W        W45397   7.672  18.630   6.958 -0.0333 -0.1553 -0.0107
26651W        W45398  12.458   0.117   2.671 -0.1495  0.0788 -0.0159
26652W        W45399  32.673   9.101  24.367  0.0449 -0.0003 -0.1056
26653W        W45400  25.949  33.635   2.198  0.0571  0.0300  0.2664
26654W        W45401  20.549  11.838   6.602  0.1628 -0.3270 -0.4996
26655W        W45402   4.999  17.985  19.213  0.1396 -0.0806 -0.0679
26656W        W45403   4.781  31.422  23.555 -0.1329 -0.0637 -0.1868
26657W        W45404  15.255  21.633  14.972 -0.1812  0.0963 -0.1393
26658W        W45405  18.449  17.824  19.687  0.0636  0.1024  0.1202
26659W        W45406  30.910  35.252  16.484 -0.0972 -0.0045  0.1601
26660W        W45407   4.105  28.583   1.242 -0.0868  0.1384 -0.0234
26661W        W45408   5.448  29.184   8.445 -0.1031  0.2325 -0.1828
26662W        W45409  20.484   7.052  22.468  0.2731  0.1323 -0.1331
26663W        W45410  35.313  33.889   2.843  0.3565  0.0591  0.0730
26664W        W45411  27.909  21.993  20.640 -0.2185 -0.0691 -0.1222
26665W        W45412  28.657   5.263   3.078 -0.1653 -0.2417  0.0018
26666W        W45413  28.413  13.373  20.350  0.2054 -0.1715 -0.0522
26667W        W45414  21.468  22.061  19.487  0.2347 -0.1187  0.0596
26668W        W45415  34.087   6.395   0.573 -0.0397  0.0614 -0.0121
26669W        W45416   8.311   9.445  12.421  0.3270 -0.0344  0.1370
26670W        W45417  33.016  35.296  16.064 -0.1356  0.0883  0.0363
26671W        W45418  17.273  32.523   9.845  0.0501 -0.1773 -0.1918
26672W        W45419  11.396  16.420   1.507  0.0005 -0.1373 -0.1353
26673W        W45420  10.231   8.087  19.805  0.0220 -0.1042  0.3357
26674W        W45421  28.875  22.648  15.176 -0.1551 -0.0826 -0.2841
26675W        W45422  12.567   2.256   6.752  0.1010 -0.3172 -0.1033
26676W        W45423  28.704  20.623  22.102 -0.2131 -0.4470  0.0487
26677W        W45424  32.327  33.644   5.916  0.1269 -0.1169 -0.3223
26678W        W45425  12.766  18.121  23.246  0.1547  0.2157  0.1756
26679W        W45426  18.514  29.859   1.928  0.1739  0.2927  0.1261
26680W        W45427  12.141   8.681   6.294 -0.0495  0.1303  0.1415
26681W        W45428   9.374  17.457   5.352  0.1356 -0.1715  0.1808
26682W        W45429  23.150  14.261  18.873  0.3040  0.0150  0.1782
26683W        W45430  27.202  29.004  24.934 -0.0980  0.0318 -0.0666
26684W        W45431  20.892  31.076  17.825 -0.1185  0.0608  0.0060
26685W        W45432  17.829   9.339  10.810 -0.4326  0.0310  0.3644
26686W        W45433  33.932  11.764  18.168 -0.2803  0.1836 -0.0720
26687W        W45434  24.052  17.657  14.597 -0.0588 -0.2010 -0.1845
26688W        W45435  34.310  14.587  18.447  0.0440  0.3361  0.2327
26689W        W45436   7.881   2.478  15.419 -0.0822 -0.1566  0.0995
26690W        W45437  18.506  22.957   5.599 -0.1154 -0.1294 -0.2582
26691W        W45438  18.782  24.292   8.277 -0.5208  0.2900  0.2150
26692W        W45439  16.603  12.110  24.084  0.2303 -0.0940 -0.4790
26693W        W45440  17.090  17.269   7.818  0.0199 -0.0590 -0.1630
26694W        W45441  21.183   5.553  19.554 -0.0679 -0.0600  0.0703
26695W        W45442   2.405  16.679  21.328  0.0028  0.1155 -0.0657
26696W        W45443  24.373  16.514   1.548  0.2692  0.1857  0.3839
26697W        W45444  14.046  15.802   5.483 -0.3459 -0.1799  0.1048
26698W        W45445  11.922  28.511   9.574  0.1176  0.3249  0.2066
26699W        W45446  16.887  35.079  20.853  0.0547  0.1909 -0.2928
26700W        W45447   6.671  25.991  21.657  0.0632  0.1896  0.0721
26701W        W45448  27.492  21.261  25.338  0.2217  0.1166  0.2933
26702W        W45449   7.625   8.332   2.467 -0.0973  0.1515  0.0070
26703W        W45450  11.181  12.415   4.847 -0.1009 -0.0664 -0.0755
26704W        W45451  26.574  20.309  25.998 -0.0886  0.1457 -0.1282
26705W        W45452   8.174  16.218   9.761  0.1387 -0.3173 -0.0004
26706W        W45453  16.804  16.711  24.762  0.1887 -0.0085  0.3272
26707W        W45454  15.950  29.851  23.852  0.4321 -0.0409  0.1146
26708W        W45455   7.094  31.693   0.259 -0.0645 -0.1905  0.0469
26709W        W45456  10.191  20.754  13.351  0.0066  0.2711  0.0054
26710W        W45457  28.875   6.576  16.252  0.2878  0.2938 -0.2783
26711W        W45458   5.252   8.522  25.041  0.0217 -0.3237 -0.1954
26712W        W45459  25.104  34.510  18.345  0.1329 -0.1183  0.1739
26713W        W45460  21.387   1.930  22.046 -0.2293 -0.0054  0.3413
26714W        W45461  11.903   5.317   6.166 -0.0652  0.0823 -0.2126
26715W        W45462  26.181  14.137   0.650 -0.0879 -0.0977 -0.2041
26716W        W45463  28.361  32.226  12.182 -0.3042 -0.0691  0.0023
26717W        W45464   5.720  14.274  17.460  0.0441 -0.1528 -0.2167
26718W        W45465  33.659  24.141  14.189  0.4210 -0.0914 -0.0081
26719W        W45466  13.946   1.970  24.458 -0.1644  0.0515  0.0370
26720W        W45467  24.979  14.706   9.486 -0.4927  0.0746 -0.0371
26721W        W45468  16.777  33.779  10.669 -0.3782  0.2239  0.1372
26722W        W45469  31.141  34.849  14.861 -0.1464  0.0881  0.0415
26723W        W45470  34.255  30.471  16.343  0.2196 -0.2956  0.2733
26724W        W45471  15.854  23.422  14.687  0.1789  0.0863  0.3480
26725W        W45472  16.972   4.310  18.518 -0.0865  0.0820  0.0766
26726W        W45473  19.006   8.380   0.140  0.4546 -0.2973  0.1526
26727W        W45474  10.176  22.552  15.916 -0.2665 -0.1148 -0.0010
26728W        W45475  16.191  19.135  23.941 -0.4969 -0.1751  0.0824
26729W        W45476  22.618  26.536  15.154 -0.3986 -0.0350 -0.0679
26730W        W45477  23.950  22.570  13.722 -0.2102  0.0657  0.3045
26731W        W45478  13.686  35.369   1.783  0.0646  0.1422 -0.2735
26732W        W45479   6.161  34.863   8.721 -0.2900  0.0743  0.0067
26733W        W45480   0.866  22.385  19.243 -0.0911  0.1962  0.1552
26734W        W45481  16.894  13.047  19.418  0.0157  0.1583 -0.1202
26735W        W45482  10.696  16.798   3.782 -0.1878 -0.2261 -0.3452
26736W        W45483   2.171  30.446  25.187  0.1420  0.2506 -0.0778
26737W        W45484   7.179  10.120  19.317 -0.0556 -0.1611 -0.1744
26738W        W45485  35.183  24.403  25.570  0.0045  0.0475  0.3955
26739W        W45486   2.647  19.357  16.257  0.0836  0.0910 -0.1707
26740W        W45487   4.195   5.806  25.880 -0.1464  0.0452  0.0412
26741W        W45488  30.997  11.699   0.220  0.2626 -0.0207  0.2726
26742W        W45489  32.102  30.031  17.284 -0.2250 -0.1971  0.2370
26743W        W45490   8.924  12.694   3.119  0.3073 -0.5293 -0.3592
26744W        W45491  26.262  20.629   8.205  0.2029 -0.0269  0.2913
26745W        W45492   5.630  16.835  11.198 -0.0034 -0.0021  0.0782
26746W        W45493  18.454  30.129  21.373 -0.5890 -0.2346  0.0542
26747W        W45494   8.383   1.764   1.461 -0.0241  0.2486 -0.1988
26748W        W45495   5.639  19.190   0.618  0.0315  0.3574  0.3842
26749W        W45496  26.918  18.392  13.293  0.1392 -0.4265 -0.0530
26750W        W45497  33.138  13.478  18.488  0.0528  0.1535  0.0668
26751W        W45498  25.060  14.585  25.580 -0.0253  0.0581 -0.0576
26752W        W45499  18.242  13.632   7.621 -0.1181  0.2308 -0.0617
26753W        W45500   6.764  22.563   3.497 -0.1207 -0.0774  0.2534
26754W        W45501  23.085   5.720  20.279  0.2388 -0.2127 -0.0449
26755W        W45502   5.854  30.606   0.655  0.0830  0.1885 -0.1145
26756W        W45503  13.453  14.059   1.842 -0.1531  0.0126 -0.0711
26757W        W45504  29.675   0.550  20.344 -0.1053  0.2163 -0.1602
26758W        W45505  20.785  10.210  17.001 -0.0951 -0.1433  0.0269
26759W        W45506  13.669  14.161  11.830  0.2478  0.1426  0.3745
26760W        W45507  28.320   2.500   4.956  0.2510  0.0363 -0.1007
26761W        W45508  19.251  12.234   9.791  0.2020  0.0014  0.2008
26762W        W45509  27.769  15.461   9.099 -0.1082 -0.1903 -0.1017
26763W        W45510  16.463  20.840   4.944 -0.1358  0.0191  0.2147
26764W        W45511  20.486  34.954   2.753 -0.1102 -0.1736 -0.1152
26765W        W45512   8.523  23.907  13.831 -0.1858 -0.3241  0.0107
26766W        W45513  15.514   6.992  19.206  0.0679  0.0787 -0.2240
26767W        W45514  34.525  18.915   7.545 -0.1940 -0.1634 -0.0825
26768W        W45515  23.748   8.239  21.933 -0.1585  0.0026 -0.2787
26769W        W45516   4.226  30.714   6.926  0.3293 -0.0764 -0.0859
26770W        W45517  16.056  21.663  10.632 -0.0777  0.0615  0.2592
26771W        W45518   4.916  30.187  24.434 -0.0582 -0.2077  0.3035
26772W        W45519  13.443  28.923   2.522 -0.1048  0.0606  0.0075
26773W        W45520  31.421  15.166  16.438 -0.1415  0.0673 -0.0428
26774W        W45521  29.471   8.691   9.404 -0.1244  0.3532  0.3005
26775W        W45522  34.488  30.831  18.717  0.0502  0.0037  0.1373
26776W        W45523  21.610  25.853   3.181  0.0040  0.0008  0.2308
26777W        W45524  20.652  33.733  16.672  0.2257  0.2507  0.2617
26778W        W45525  30.495   6.579  11.696  0.2000 -0.2462 -0.0796
26779W        W45526  20.710  27.947   2.967  0.0042 -0.0821  0.1875
26780W        W45527  10.138   7.877  20.659  0.0497  0.1771  0.2143
26781W        W45528  26.501  14.124   7.280 -0.0271 -0.1193 -0.1491
26782W        W45529  33.080  33.686  23.410  0.1161 -0.2347  0.2593
26783W        W45530   2.244   7.834  19.110 -0.3165  0.0487  0.1588
26784W        W45531  17.054  21.206  24.826 -0.2643 -0.0873  0.0983
26785W        W45532  25.027  14.545  10.401  0.1338 -0.0951  0.1641
26786W        W45533  32.934  12.425  23.830  0.2469 -0.1249  0.0034
26787W        W45534   5.193   0.773  24.188 -0.1756  0.3092 -0.0381
26788W        W45535  28.450  26.834  20.753  0.0944 -0.0032 -0.1984
26789W        W45536  28.452  29.832  17.717  0.1557 -0.1256 -0.0290
26790W        W45537  32.937  18.453  21.401  0.1891 -0.1675  0.0786
26791W        W45538  10.813  14.448   7.794  0.0960 -0.2265  0.0055
26792W        W45539  21.132  14.176  20.908 -0.3613  0.1206 -0.2603
26793W        W45540  15.820  20.432   1.885 -0.1279 -0.0417 -0.1207
26794W        W45541  14.196  29.493   9.971  0.1196  0.2652 -0.4739
26795W        W45542   8.254  17.924   2.243 -0.2515 -0.0046 -0.0900
26796W        W45543  33.520  24.301   0.821 -0.1938 -0.0856  0.1215
26797W        W45544  25.817  22.567  24.474  0.1475 -0.4945 -0.0538
26798W        W45545  25.941  24.651  15.796  0.1446 -0.0150 -0.0356
26799W        W45546   4.630   8.991   8.668  0.3040 -0.1163 -0.1655
26800W        W45547  23.941   2.388  13.165  0.0106 -0.0026  0.0269
26801W        W45548  10.233  26.341   2.049  0.2859  0.3037  0.1988
26802W        W45549  13.456  10.078  20.964  0.3155 -0.0098  0.1596
26803W        W45550   7.560   5.092   4.324 -0.1324  0.0761 -0.4767
26804W        W45551   7.639  11.445   7.921 -0.1447 -0.0788 -0.2181
26805W        W45552  12.948  13.662  12.221  0.2895  0.0902 -0.2391
26806W        W45553  32.541  30.882  19.329  0.0988  0.0465  0.1698
26807W        W45554   0.617   6.608   1.416  0.0282  0.3225 -0.1915
26808W        W45555  28.083  25.690  22.306  0.0142  0.2392  0.0157
26809W        W45556   6.741  15.395  23.986  0.1341  0.2379  0.2352
26810W        W45557  20.633  23.489  21.819 -0.0376  0.0229  0.2942
26811W        W45558   1.157  10.674  17.743 -0.0113 -0.0216 -0.1433
26812W        W45559   8.196  10.194   7.223  0.2157 -0.2552  0.0530
26813W        W45560  22.070  14.100   2.355  0.4664 -0.0174 -0.2242
26814W        W45561   5.113  15.310   1.240 -0.0714 -0.2760 -0.2254
26815W        W45562  18.884   3.703  22.912 -0.2658  0.1133 -0.2179
26816W        W45563  33.027  21.672  20.199 -0.0904 -0.1446  0.0204
26817W        W45564  11.406  31.773  16.690  0.0477  0.0224 -0.0434
26818W        W45565  22.044  12.534  15.274  0.0354 -0.2212  0.0500
26819W        W45566  11.067   0.030  23.417  0.1713 -0.1887 -0.0711
26820W        W45567  17.341   3.365   4.157  0.0383 -0.1188  0.0361
26821W        W45568  32.987  14.672  21.946  0.0002 -0.1150 -0.0494
26822W        W45569  16.981  27.815  23.716 -0.2260 -0.0435  0.2976
26823W        W45570   0.560   0.565   5.355 -0.2310  0.2717  0.1415
26824W        W45571   9.841  12.792  10.477  0.0681  0.4572 -0.1236
26825W        W45572  25.590  34.825  21.408 -0.2128 -0.2242  0.0101
26826W        W45573  10.925   9.196  24.605  0.0563  0.3870  0.2099
26827W        W45574  12.578  13.418  20.390  0.0716 -0.0486 -0.1074
26828W        W45575  22.326  30.395  21.638  0.2369 -0.2276 -0.2221
26829W        W45576  13.242  29.925   6.916  0.0582 -0.2053 -0.0023
26830W        W45577   8.145  17.808  11.429 -0.1919  0.4089  0.2756
26831W        W45578   4.245  30.599   2.267  0.1914  0.1443 -0.0416
26832W        W45579  22.576  31.850  24.136 -0.0305  0.2296 -0.1032
26833W        W45580  24.819  33.407  24.008  0.2449 -0.0952  0.0020
26834W        W45581  24.730  19.955  23.562  0.2416  0.0866  0.0293
26835W        W45582  18.382  22.034  21.574  0.2954 -0.1253  0.1239
26836W        W45583  30.076  33.818  23.014  0.0261  0.0510 -0.0181
26837W        W45584  12.918  17.924  11.089 -0.0281  0.0364  0.4370
26838W        W45585   9.152  31.223  13.004 -0.2054 -0.0274 -0.1941
26839W        W45586  26.887   3.132   5.290  0.0340  0.3029 -0.2352
26840W        W45587  21.419  27.139   4.932  0.1962  0.2652 -0.0743
26841W        W45588   4.167  26.331  25.430  0.2297  0.2758 -0.0930
26842W        W45589  20.263   7.845  21.891  0.0864 -0.1951 -0.0546
26843W        W45590  19.815  18.950  17.827  0.1972  0.3277  0.0330
26844W        W45591  25.727   6.352   4.107 -0.1279  0.1938  0.0393
26845W        W45592   8.747  30.539   6.373  0.1770 -0.2792 -0.1049
26846W        W45593   8.480  29.591   9.587  0.1579 -0.1529 -0.0656
26847W        W45594  30.571  33.695  24.782 -0.2968 -0.0548  0.0717
26848W        W45595  33.284  20.238  23.852 -0.0486 -0.0902  0.2061
26849W        W45596  30.794  16.148  18.709 -0.1107  0.1041  0.0131
26850W        W45597  27.325   2.282  18.247 -0.0244 -0.1260  0.2357
26851W        W45598  33.952  24.070  20.329  0.3018 -0.0139  0.1612
26852W        W45599  22.636  23.743  22.775  0.1453  0.1305  0.0113
26853W        W45600  13.196  21.005   7.302  0.2915  0.0706 -0.0179
26854W        W45601  15.090  19.621   4.155  0.2999 -0.2221  0.1819
26855W        W45602  16.739   2.428   8.652  0.2220 -0.1774  0.1028
26856W        W45603   9.639  33.854  13.720 -0.0958 -0.3039 -0.0725
26857W        W45604   0.264  13.368  13.932 -0.0547  0.1216  0.0158
26858W        W45605   3.418  29.470  12.196 -0.2117  0.1639 -0.2154
26859W        W45606  13.612  19.676   7.737  0.1198 -0.1581  0.1788
26860W        W45607  28.723   5.248  17.163 -0.0526 -0.0789  0.2296
26861W        W45608   1.174   1.851   1.225 -0.1602 -0.2599  0.1064
26862W        W45609  24.060   5.476  20.844 -0.0070 -0.0662  0.0005
26863W        W45610  32.087  34.603  19.308  0.1619 -0.2250  0.1453
26864W        W45611  20.085  22.299   4.350 -0.2299  0.1102 -0.0698
26865W        W45612  25.320  22.532   7.876  0.2983  0.1649  0.2008
26866W        W45613  33.119   5.460   0.365  0.1853 -0.1927  0.3094
26867W        W45614  34.712  16.507  23.498 -0.1279  0.0017 -0.1257
26868W        W45615  22.534   8.591  19.319  0.0320 -0.2113  0.2741
26869W        W45616  20.865   3.247  20.498 -0.2144 -0.0985  0.1159
26870W        W45617   5.946  14.826  26.174  0.2389 -0.0464  0.1121
26871W        W45618   0.646   2.903   5.015  0.1772  0.0988 -0.2627
26872W        W45619  20.920  24.397  17.330  0.0715 -0.1191 -0.0416
26873W        W45620   5.535  19.087   7.377  0.0419  0.2836 -0.0311
26874W        W45621   2.894  28.452  10.234  0.0945  0.2148 -0.1354
26875W        W45622  26.680  10.601  25.200 -0.0443  0.2155 -0.0587
26876W        W45623  32.696   9.778  22.563 -0.2839  0.1556  0.1173
26877W        W45624  27.511  15.444  14.354  0.1028  0.2528 -0.1713
26878W        W45625  11.063   8.739  14.023  0.0090  0.0560  0.1152
26879W        W45626  25.809  33.231  18.154  0.1281  0.1046  0.0154
26880W        W45627  13.144  22.617  15.371  0.1840  0.3498  0.0177
26881W        W45628   5.100  32.269   2.614  0.0306 -0.2779  0.1670
26882W        W45629  27.878  29.072   1.692 -0.0095 -0.0396 -0.2406
26883W        W45630  28.038  18.830  18.132 -0.1403  0.3831  0.0133
26884W        W45631   3.818  20.152   1.787 -0.0089  0.0585  0.1231
26885W        W45632  10.803   7.862   8.464 -0.0156 -0.0447  0.1995
26886W        W45633  22.761   9.158  20.825  0.3180 -0.1589  0.1612
26887W        W45634  10.681  33.763  11.129  0.0425  0.2186  0.0415
26888W        W45635  29.051  34.179  15.836 -0.0129  0.1043  0.0508
26889W        W45636  31.090  30.993  24.288  0.3268 -0.0568  0.2828
26890W        W45637  12.446  28.808  13.704  0.1607  0.2852  0.0403
26891W        W45638   4.756   5.783  19.750 -0.1232  0.1612 -0.4317
26892W        W45639  30.875  10.956   7.426 -0.0730  0.1306  0.1270
26893W        W45640  12.349   5.005   0.276 -0.1002  0.0355 -0.2845
26894W        W45641  34.608  26.203  22.856 -0.1051  0.1234  0.0695
26895W        W45642  20.237  20.615  17.329 -0.0086  0.2152  0.0306
26896W        W45643  11.575  21.824   3.035 -0.2963  0.1812  0.0621
26897W        W45644  28.750   2.974  18.673  0.0294 -0.1784  0.0514
26898W        W45645   7.472   5.484  25.510 -0.2587  0.0363  0.0572
26899W        W45646  28.192  16.581  20.140 -0.0288 -0.1910  0.0087
26900W        W45647   8.342  25.099   4.157 -0.3008 -0.3433 -0.2218
26901W        W45648  30.094  26.762  16.000 -0.2670  0.1244  0.2352
26902W        W45649   2.576   7.490  21.059 -0.3679  0.4448 -0.3094
26903W        W45650  16.595   6.495   1.477 -0.5687 -0.1057  0.0300
26904W        W45651  28.047   8.919  17.071 -0.1169  0.3158  0.0228
26905W        W45652  13.793  16.097  25.304  0.3440  0.2243 -0.0840
26906W        W45653  11.201   4.527  13.348  0.1123 -0.2683  0.5306
26907W        W45654  32.185  15.555  19.363 -0.1371 -0.2236 -0.0140
26908W        W45655  21.831   3.894  17.874  0.0994 -0.0466 -0.1052
26909W        W45656  25.294  14.344  12.986  0.3802 -0.3158  0.2984
26910W        W45657  32.392  19.255  15.830  0.2796 -0.2559  0.0134
26911W        W45658  22.356   2.819  15.372 -0.0747 -0.1401 -0.5455
26912W        W45659  27.562   7.567   8.690 -0.0375  0.1146  0.2122
26913W        W45660  10.598  35.007   1.729 -0.0756  0.2164 -0.1423
26914W        W45661  22.212   9.929  18.391 -0.3706  0.0898  0.1391
26915W        W45662  19.683  14.252   6.709  0.1632  0.0240  0.0576
26916W        W45663  30.485  25.593  19.760 -0.0776  0.0868 -0.1560
26917W        W45664   1.901  31.148   7.383 -0.4845  0.3298  0.2284
26918W        W45665   1.354  21.144  24.761 -0.2136  0.2053 -0.2417
26919W        W45666  31.163  12.586  11.970 -0.1649 -0.4193 -0.2103
26920W        W45667  28.685  34.996  23.961 -0.0662  0.0734 -0.0514
26921W        W45668   5.280   3.450  24.775 -0.1087 -0.1139 -0.1316
26922W        W45669  31.763  24.177  23.133  0.0596  0.2185 -0.1900
26923W        W45670  22.322  10.689   1.641 -0.2601 -0.0486 -0.0083
26924W        W45671  34.870  30.309   2.542 -0.1155 -0.0439 -0.4026
26925W        W45672  31.789  28.512  20.013 -0.0293  0.1291  0.2133
26926W        W45673   6.371  20.083   7.780  0.1722  0.0187  0.1060
26927W        W45674  11.278  28.088   0.449 -0.0448 -0.0096 -0.1581
26928W        W45675  18.102  31.941  24.592  0.0849  0.4131 -0.1622
26929W        W45676   8.057   9.794  12.070 -0.1284  0.1228 -0.1291
26930W        W45677  28.123  31.073  21.644 -0.2274 -0.1959  0.1031
26931W        W45678  15.074  30.715   5.994  0.1690 -0.0722  0.0767
26932W        W45679   4.894  29.540   2.958  0.0451  0.2797 -0.4244
26933W        W45680  30.098  21.830  25.224 -0.1620  0.0971 -0.2463
26934W        W45681  14.303   5.439   6.805 -0.1246 -0.2298 -0.2712
26935W        W45682  13.884  16.917  21.306  0.0817  0.1081 -0.0080
26936W        W45683   7.383   9.023  10.583 -0.3205  0.1063  0.4469
26937W        W45684   2.655  12.571  15.532  0.1897  0.0213 -0.1579
26938W        W45685   1.564  28.042   1.656 -0.0757  0.3389 -0.1864
26939W        W45686  12.642  24.496   6.483  0.0345 -0.1222  0.0188
26940W        W45687  23.338   6.764  18.196  0.0718 -0.2735  0.0179
26941W        W45688  22.606  25.852  24.901  0.0106 -0.1327  0.0976
26942W        W45689  27.887  20.936  21.249  0.0549 -0.2033 -0.0647
26943W        W45690  19.443   2.863  22.263  0.0739 -0.2619  0.0538
26944W        W45691   2.343  10.523  24.174  0.0839 -0.4712 -0.2278
26945W        W45692  22.757  22.924  25.191 -0.0729 -0.1334 -0.1091
26946W        W45693  33.395   4.421   1.998 -0.1681  0.1283 -0.2775
26947W        W45694  16.844  33.884   8.015 -0.2492 -0.0181 -0.0230
26948W        W45695  19.376   6.182  24.178  0.1535 -0.1470  0.1703
26949W        W45696   0.032  10.328  16.926 -0.3335  0.1585  0.1185
26950W        W45697   4.220  12.577   1.046 -0.1776  0.0321 -0.4076
26951W        W45698   9.393  22.927  25.727  0.0547 -0.3516  0.0564
26952W        W45699  23.290  27.406  18.692  0.3274  0.1185 -0.0342
26953W        W45700   7.817  30.151  12.792 -0.2206 -0.0820 -0.1729
26954W        W45701  22.770  33.839  20.086  0.0918  0.3957 -0.1857
26955W        W45702  12.116   7.568  21.657 -0.0026  0.2132 -0.2771
26956W        W45703  32.844   8.113  10.769  0.2482  0.0591 -0.0196
26957W        W45704  23.731  17.846  23.683  0.4013  0.0581 -0.0071
26958W        W45705  30.705  19.376  22.391  0.2084  0.0677  0.0252
26959W        W45706  32.245  10.330   1.211 -0.4157 -0.0966  0.2051
26960W        W45707  11.472   7.046  12.852  0.2356  0.2001 -0.2777
26961W        W45708  28.574  20.157   5.932 -0.0402  0.5901 -0.1199
26962W        W45709  12.012  14.264  20.903  0.1123  0.0176  0.3133
26963W        W45710  33.694  15.912  21.794  0.0193  0.3748 -0.2044
26964W        W45711  19.090  16.282  23.818  0.0384 -0.3158 -0.1072
26965W        W45712  14.052   0.559   3.921 -0.0375 -0.1449  0.5210
26966W        W45713  31.750  26.012  10.775 -0.1123 -0.1347 -0.1292
26967W        W45714   3.306  26.194   1.242  0.1396  0.4111  0.0696
26968W        W45715  15.189   8.368  24.149 -0.1773  0.0305  0.2806
26969W        W45716  26.549  11.076  13.963 -0.0016  0.2383  0.0978
26970W        W45717  32.395   9.548   0.627  0.0280  0.0130 -0.2116
26971W        W45718  20.785  33.042   0.975 -0.1486  0.1039 -0.0520
26972W        W45719  11.058  20.412  23.210 -0.1780  0.1506 -0.1075
26973W        W45720  16.887   3.921  25.524  0.3903  0.2466 -0.0007
26974W        W45721   8.192  17.826   9.691 -0.0056  0.2798  0.1479
26975W        W45722  28.824  15.097  14.721 -0.0902  0.2426 -0.0876
26976W        W45723  27.444   5.783  15.414  0.2513  0.0935 -0.0248
26977W        W45724  15.961   3.187  25.256 -0.1071 -0.0650  0.1784
26978W        W45725  11.841  28.710  10.994  0.0086 -0.0569 -0.2961
26979W        W45726  27.749  22.657  10.901 -0.0359 -0.1908  0.1987
26980W        W45727  34.062   6.981  20.310 -0.1240  0.4620  0.1386
26981W        W45728  32.070  10.864  10.485  0.2322  0.1176 -0.1549
26982W        W45729   1.388  11.404  14.041  0.0480 -0.3121 -0.2357
26983W        W45730   3.815  15.850   0.294 -0.0511 -0.0942  0.1336
26984W        W45731   8.932  27.655  15.957  0.2414 -0.2907 -0.1076
26985W        W45732  22.939  11.012  20.836  0.2620  0.0057 -0.3471
26986W        W45733   1.720  29.716  25.305  0.4638 -0.2294 -0.3802
26987W        W45734  31.553  10.633  21.130  0.2246 -0.2097 -0.2916
26988W        W45735  14.512   2.922  17.254  0.2023 -0.0278  0.0593
26989W        W45736  32.906   4.435  14.041 -0.3509  0.1362  0.1557
26990W        W45737   5.204  11.066  20.426 -0.2316  0.0258 -0.0311
26991W        W45738  12.722  17.409   8.406  0.0436  0.2489  0.1742
26992W        W45739   2.460  35.144   4.058 -0.1432  0.0101 -0.0354
26993W        W45740  19.640   1.399  15.155  0.0798 -0.0153 -0.1530
26994W        W45741  22.152  18.094  23.163  0.0728  0.0106 -0.0964
26995W        W45742  30.910  21.274   6.449  0.0220  0.0879 -0.3832
26996W        W45743   3.226  29.289   2.420  0.5141  0.3487 -0.1702
26997W        W45744  12.351  16.050   5.439  0.2401 -0.1804 -0.0911
26998W        W45745   8.375  32.820  21.615 -0.0263  0.2415  0.1379
26999W        W45746   4.436   3.956   2.439  0.1926  0.1789  0.0015
27000W        W45747  22.756   5.324   2.301  0.0977  0.2016 -0.1203
27001W        W45748   7.310   8.903   0.335  0.2392  0.1317 -0.0737
27002W        W45749  11.662  22.091   8.509 -0.0316  0.0291 -0.0748
27003W        W45750  18.768  33.898   2.271 -0.1761  0.0301 -0.0431
27004W        W45751  23.957  19.703  15.664  0.2407 -0.2113 -0.0153
27005W        W45752  17.566  17.859   9.706  0.1795  0.0932  0.1651
27006W        W45753  33.904   2.299  20.120 -0.0875  0.0784  0.3759
27007W        W45754  35.218  30.036  22.503 -0.1246  0.2804  0.3265
27008W        W45755   6.061  18.898   7.602  0.4267  0.0892  0.1614
27009W        W45756  26.404   9.941  11.661  0.1383 -0.1126 -0.0069
27010W        W45757  33.619   5.289  19.454 -0.1347  0.0308 -0.0730
27011W        W45758   0.922  30.270   1.039 -0.2267 -0.0480 -0.0851
27012W        W45759  31.243  16.573  24.887 -0.0282 -0.1497  0.0284
27013W        W45760  18.913  30.682  21.020  0.0594  0.1466 -0.2186
27014W        W45761  27.091  12.228   0.699  0.1304  0.2308 -0.0819
27015W        W45762  31.859   8.150  16.799  0.0816 -0.0534 -0.0239
27016W        W45763  31.229   2.096  22.893 -0.0182  0.0360 -0.2387
27017W        W45764   9.510  20.422   0.837  0.1794  0.1103 -0.2662
27018W        W45765  18.261  15.540  21.229  0.0750 -0.0497 -0.3119
27019W        W45766  24.145  11.806  14.933 -0.1159 -0.2064  0.1711
27020W        W45767   1.217   8.844  21.808  0.0533  0.0430  0.2887
27021W        W45768   5.375   7.351   9.884 -0.0707  0.2229 -0.0191
27022W        W45769  27.626  15.543  16.873 -0.1591 -0.0990  0.1632
27023W        W45770  18.520  10.218  20.008 -0.1171  0.0836  0.1125
27024W        W45771  28.725   3.787   4.698 -0.1909 -0.1357  0.2390
27025W        W45772   6.888   5.749  24.841  0.0187 -0.1638 -0.0556
27026W        W45773  28.868  10.273  17.470  0.0781  0.0682  0.3811
27027W        W45774   1.694  34.897  19.029 -0.0112  0.0801 -0.0854
27028W        W45775   1.854  34.192   8.986 -0.0366 -0.4929 -0.3292
27029W        W45776  13.141  29.079  10.093  0.2761 -0.0720 -0.0180
27030W        W45777  15.933   0.016  21.105 -0.0510 -0.1023  0.2426
27031W        W45778  12.824   6.615   4.127  0.2524  0.0187 -0.0107
27032W        W45779  15.207  12.132   1.995  0.3071 -0.3356 -0.2239
27033W        W45780  23.165   1.977  15.155  0.1216 -0.1654  0.3086
27034W        W45781  14.680  18.927   1.688  0.1535  0.1092  0.0625
27035W        W45782   7.137  11.325   2.074 -0.0017  0.2193 -0.2195
27036W        W45783  31.759  31.772  12.685 -0.0688 -0.2565  0.1369
27037W        W45784   9.553  35.365  25.949 -0.3947  0.1165  0.2186
27038W        W45785  13.487   8.730   0.956 -0.0874 -0.0865 -0.0630
27039W        W45786  14.501  21.976   8.255 -0.0785 -0.1419 -0.0305
27040W        W45787  32.132  12.912   7.896 -0.0781  0.0871 -0.1660
27041W        W45788  12.248   9.195   4.651 -0.2618  0.0197 -0.2064
27042W        W45789  33.492   1.721  12.175  0.0974  0.0477 -0.0820
27043W        W45790   8.262  16.117  23.613 -0.1476 -0.0869 -0.2950
27044W        W45791  29.611  24.372   0.431  0.1955 -0.3353  0.0027
27045W        W45792  30.383   2.951  18.493  0.0753 -0.0730  0.4687
27046W        W45793  10.845  15.350  21.342  0.2264 -0.1043  0.0225
27047W        W45794   9.597   0.911  21.475  0.0478 -0.0509 -0.0971
27048W        W45795  25.345  17.084  16.033 -0.1695  0.2236  0.0145
27049W        W45796  15.075  11.285   0.570 -0.2153 -0.2986 -0.2012
27050W        W45797   1.318   4.955  22.230 -0.0955 -0.0999 -0.1466
27051W        W45798   1.660  14.191  26.143  0.0759 -0.3342  0.0790
27052W        W45799  11.851  25.819  23.145  0.1049 -0.2040  0.0173
27053W        W45800   1.325  23.498  23.236  0.0037 -0.2586  0.1593
27054W        W45801   2.360   0.677  24.650 -0.3892 -0.3023 -0.0919
27055W        W45802   8.081  30.166  10.481  0.0742  0.0687 -0.3250
27056W        W45803  14.406  33.996   5.411 -0.1509  0.0561 -0.1746
27057W        W45804  29.215  17.718  25.482  0.1196  0.0547 -0.0933
27058W        W45805  22.322   4.775  25.848  0.2638  0.1185  0.1192
27059W        W45806  12.567   6.988   4.331 -0.0515 -0.4145 -0.0953
27060W        W45807  33.489  26.052  22.928 -0.0047 -0.1818 -0.1873
27061W        W45808   8.111   8.649  10.297  0.3692 -0.0390  0.1097
27062W        W45809  27.118  17.077   6.564 -0.1173  0.0654  0.0599
27063W        W45810  23.180  18.558  20.536  0.2909  0.0091 -0.1016
27064W        W45811  25.358   3.368  14.761 -0.0134  0.0088  0.1754
27065W        W45812   0.276  23.365  11.911  0.1922  0.0273  0.1700
27066W        W45813  25.285  32.907  17.893  0.0315  0.0855 -0.1447
27067W        W45814   4.823  13.496  17.630  0.2943  0.1713 -0.0930
27068W        W45815  19.882  26.971   7.027  0.5615 -0.1493 -0.2694
27069W        W45816   3.718   9.094  22.349 -0.0741  0.1444  0.0163
27070W        W45817  30.133  22.448  11.277 -0.0436  0.0455 -0.4208
27071W        W45818  31.680   2.381  18.354 -0.0538  0.0958  0.0449
27072W        W45819  15.898  10.393   3.471 -0.1175 -0.1449  0.0858
27073W        W45820  22.576  21.684  15.056  0.1529 -0.1468 -0.1341
27074W        W45821  20.156  23.490   1.370 -0.0415  0.2802 -0.0972
27075W        W45822  26.506   3.835  17.706  0.3892 -0.2076  0.2158
27076W        W45823  14.358   9.885  20.909  0.1280 -0.0313  0.3071
27077W        W45824  11.024  32.732   4.918 -0.0374  0.1202  0.1851
27078W        W45825   5.222  18.901  18.264  0.1506  0.1072  0.2395
27079W        W45826  32.176  34.866  16.458 -0.1755  0.1333  0.1193
27080W        W45827  11.324   1.777  22.918 -0.4497 -0.2272 -0.0484
27081W        W45828  31.074  32.217  15.467 -0.0457 -0.0904  0.0589
27082W        W45829  15.395  12.992   9.640 -0.0147  0.1469  0.0170
27083W        W45830   0.923  21.721  23.648 -0.0713 -0.2094  0.1150
27084W        W45831   5.634  30.188  21.594  0.1175  0.1571  0.0126
27085W        W45832  17.125  32.696   4.559 -0.1263 -0.2044  0.0203
27086W        W45833   8.125  24.559  14.102 -0.0198  0.1456  0.0571
27087W        W45834   2.754   7.218   2.805 -0.0327 -0.2396 -0.1656
27088W        W45835  32.356  15.555  21.900  0.0759 -0.1267 -0.2163
27089W        W45836  20.244  34.138  18.291 -0.0409 -0.0223 -0.4031
27090W        W45837  30.921  30.356  12.590  0.0446  0.0947 -0.2252
27091W        W45838  21.090  22.370  21.244 -0.0101 -0.0114  0.2121
27092W        W45839   9.708   2.455   1.109 -0.0824 -0.0714  0.0689
27093W        W45840  28.207  34.035  14.565 -0.1272  0.2274  0.4420
27094W        W45841  27.247  26.037   0.941  0.0936  0.1617  0.0901
27095W        W45842  27.877  12.800  11.967  0.3060  0.0227 -0.1286
27096W        W45843  26.986  33.093  23.649 -0.0573  0.2428  0.1627
27097W        W45844   5.487  31.130  13.497 -0.1588  0.1214  0.2142
27098W        W45845   6.042  31.417   7.970  0.0866  0.0201 -0.1238
27099W        W45846   6.804  14.924  17.621  0.2153  0.3211 -0.1321
27100W        W45847  24.370  34.656   5.919 -0.1986 -0.2246 -0.2372
27101W        W45848  10.614   1.773  26.243 -0.1713 -0.1356 -0.0308
27102W        W45849  33.510  19.927  10.031 -0.0520 -0.1610 -0.0061
27103W        W45850   3.833   2.037  20.829 -0.2150  0.1786  0.1806
27104W        W45851  23.029   4.081  20.204 -0.1603  0.0513  0.3279
27105W        W45852  11.751   7.934   8.265  0.0996 -0.0579 -0.1107
27106W        W45853  22.266  12.940  24.078 -0.3895  0.1123  0.1747
27107W        W45854  17.062  17.407  12.868  0.2776 -0.0025 -0.2942
27108W        W45855  16.907  11.543  25.922 -0.0227  0.2141 -0.1638
27109W        W45856   2.681  18.122  24.624 -0.2042  0.0911  0.1221
27110W        W45857   6.339   7.061   9.893 -0.1228  0.1241 -0.2054
27111W        W45858   1.873  15.431  16.030  0.0367  0.2164 -0.1215
27112W        W45859   0.190  28.043  21.314  0.2685  0.0077 -0.3602
27113W        W45860  34.375  13.288  18.949 -0.0448 -0.0164 -0.0469
27114W        W45861   5.337   6.974   3.737  0.0847 -0.3499  0.0407
27115W        W45862   1.666   8.983  22.001 -0.1258 -0.0546 -0.0201
27116W        W45863   2.799  13.382  16.510  0.3043 -0.2281 -0.1983
27117W        W45864  29.291  31.102   2.680  0.2368 -0.0174 -0.0033
27118W        W45865  23.659  17.285  14.338 -0.4132  0.1191 -0.1110
27119W        W45866  30.957   7.543  25.568 -0.0729 -0.0131  0.0893
27120W        W45867  33.889  34.795  21.167 -0.2374 -0.1141  0.0359
27121W        W45868   6.001  16.764   1.545 -0.0943  0.2066  0.0151
27122W        W45869  21.668  25.700   3.673  0.0730 -0.0289  0.0540
27123W        W45870  24.799  13.572  23.005  0.0580 -0.0623  0.2225
27124W        W45871   2.560  34.486  20.669 -0.1837 -0.0970 -0.1896
27125W        W45872  18.867  24.418  25.235 -0.1235  0.1416  0.2204
27126W        W45873  22.002   2.586  16.931  0.2204  0.2848 -0.0663
27127W        W45874  23.519   3.018  25.180  0.1061 -0.0477 -0.1365
27128W        W45875  21.534   8.625   4.336 -0.0122  0.1499  0.1988
27129W        W45876   3.609  13.452   0.077  0.1442  0.2199  0.0646
27130W        W45877  15.305  23.655  15.773 -0.3651 -0.0174  0.5052
27131W        W45878  22.177  25.465   0.420 -0.0543 -0.1648 -0.0407
27132W        W45879  22.988   8.002   4.715 -0.0682 -0.0173 -0.5123
27133W        W45880  27.235   9.657  25.932 -0.0351  0.2891  0.0313
27134W        W45881   5.338  28.386  20.253 -0.1724  0.3251  0.1505
27135W        W45882   9.688  20.580  23.977 -0.1914 -0.0905  0.2943
27136W        W45883  27.145  33.183  11.337  0.0058  0.0339  0.2184
27137W        W45884   0.652  24.290  19.973 -0.0725 -0.1600 -0.0442
27138W        W45885  24.096   7.787  15.533 -0.4170 -0.0427  0.0609
27139W        W45886  10.769  35.354   2.825  0.3449  0.1765 -0.0331
27140W        W45887  20.422  34.685  23.066 -0.0493 -0.1025 -0.4668
27141W        W45888  34.249  28.210  23.948 -0.1242 -0.1549 -0.1279
27142W        W45889  16.871  10.457   6.699  0.0781  0.1919  0.0342
27143W        W45890  20.508   9.285  19.168 -0.4561  0.4479  0.0507
27144W        W45891  29.617  26.899   9.479 -0.0611 -0.0644  0.1205
27145W        W45892  11.368  19.634   1.120  0.4400  0.0742  0.1067
27146W        W45893  20.465   6.033  23.166 -0.0943 -0.3680 -0.1378
27147W        W45894  32.854  20.793  25.757 -0.1528  0.1052 -0.1119
27148W        W45895  24.220  17.397  15.026 -0.0011 -0.1306 -0.0550
27149W        W45896  27.616  22.325  17.805  0.0107  0.1095  0.0344
27150W        W45897   7.207  12.754   3.343  0.0271  0.2462 -0.3912
27151W        W45898  32.316   0.877  12.635 -0.0520  0.1020 -0.1392
27152W        W45899  22.747  27.722   5.870  0.0998 -0.0734 -0.1765
27153W        W45900  20.985  20.998   7.089 -0.1769 -0.1030 -0.2030
27154W        W45901  25.685   0.940  13.518  0.1938 -0.2007 -0.1688
27155W        W45902  28.276  28.107  17.927 -0.1455 -0.2433 -0.3262
27156W        W45903  26.337  30.441  17.573 -0.0155 -0.0940 -0.0247
27157W        W45904  11.969   4.632  10.540  0.1207  0.1472  0.1608
27158W        W45905   1.011  22.557   0.275  0.2571  0.2168 -0.2102
27159W        W45906  15.665  32.887  19.337  0.1520 -0.1041  0.0748
27160W        W45907  21.483  23.984  23.587 -0.0176  0.0841 -0.2490
27161W        W45908  16.979  30.751   7.659  0.1257  0.0875 -0.1955
27162W        W45909   4.023  27.145   4.064  0.0049 -0.0354  0.4010
27163W        W45910   8.014  25.401  11.236 -0.2374 -0.1534  0.1421
27164W        W45911   7.471   6.134   6.927 -0.3352 -0.0132 -0.0187
27165W        W45912   4.088   5.129  25.080  0.0729  0.0075  0.1624
27166W        W45913  17.258  22.146   0.534  0.1248  0.1083  0.0859
27167W        W45914   1.880  16.756  13.672 -0.1731 -0.1444  0.0139
27168W        W45915  11.836   3.573   1.108 -0.0650  0.0349 -0.1137
27169W        W45916   0.462   6.067   1.500 -0.3441 -0.1607 -0.3073
27170W        W45917  31.617  14.423  15.352  0.1489 -0.1839 -0.1601
27171W        W45918   6.286   9.445  25.075 -0.1192  0.3280 -0.1454
27172W        W45919  13.844  11.155   8.371  0.0430  0.0650  0.2496
27173W        W45920   0.654  12.514  20.089  0.4645 -0.0308  0.1588
27174W        W45921  32.752  16.330  10.405 -0.0256  0.2331 -0.0715
27175W        W45922   9.677   8.048  20.701 -0.2343 -0.0372 -0.3147
27176W        W45923  34.622   2.922  20.929 -0.2459 -0.3094  0.2388
27177W        W45924   4.062  12.184   2.876 -0.0827 -0.2529  0.1669
27178W        W45925  17.910  15.965  25.817 -0.0025  0.0793 -0.2512
27179W        W45926  15.228  33.543   8.332 -0.2719 -0.0139  0.0854
27180W        W45927  21.328  16.763  19.562 -0.3105  0.0638  0.2542
27181W        W45928   3.272  10.368   1.102 -0.1135 -0.0291  0.0348
27182W        W45929  25.954  17.458  15.154 -0.0705  0.1600 -0.3792
27183W        W45930  13.008   3.462   4.062  0.1413  0.0737 -0.0321
27184W        W45931  20.141  34.327  25.313  0.0161  0.4492  0.1991
27185W        W45932  14.195   9.680  13.034  0.1003 -0.0451  0.0234
27186W        W45933   5.481  24.551  24.474  0.1338 -0.1532  0.0285
27187W        W45934   8.386   0.675  13.844  0.0390  0.3834 -0.1340
27188W        W45935  31.440   0.894   4.737 -0.2785  0.0572  0.0291
27189W        W45936   8.571  16.676   8.789  0.0874  0.0880 -0.1338
27190W        W45937  19.883  35.090   1.457  0.0272  0.0156  0.0029
27191W        W45938  31.451   6.291  10.757  0.0220 -0.2572 -0.1340
27192W        W45939   8.531  10.224   0.302  0.1103  0.1622  0.1453
27193W        W45940  33.956   9.267  12.979  0.4270  0.1621 -0.1795
27194W        W45941   8.857  10.085  26.100  0.1198  0.0575  0.0594
27195W        W45942  16.505   3.586  21.438 -0.0967 -0.1419 -0.1316
27196W        W45943   5.368  29.861   5.850 -0.0868  0.0615 -0.1358
27197W        W45944  20.318  33.525   6.634 -0.5141 -0.1369  0.4926
27198W        W45945   0.416  22.485  20.077 -0.0375  0.1971  0.1583
27199W        W45946  34.921   6.624  24.402 -0.0400  0.1846  0.2106
27200W        W45947  26.647  21.390   6.840 -0.1546  0.3037  0.1270
27201W        W45948  19.731   2.482   1.509 -0.0946  0.1828  0.1813
27202W        W45949  10.846   4.202   0.027  0.0100 -0.2961  0.0132
27203W        W45950  28.943  12.771   9.633 -0.1426 -0.0046 -0.2971
27204W        W45951  28.086   0.245  16.789  0.1806  0.0503 -0.1719
27205W        W45952  33.330  23.763  23.415 -0.1820  0.0904  0.0167
27206W        W45953  16.086  12.160  20.615 -0.0281  0.1614 -0.0122
27207W        W45954  33.739   8.478  13.227  0.0850  0.0110  0.1439
27208W        W45955   3.964  21.627  22.514 -0.3854  0.1945 -0.0768
27209W        W45956  21.737  20.409   1.553 -0.2371 -0.1289  0.3188
27210W        W45957   7.261  30.032  12.712  0.3557  0.0508 -0.0152
27211W        W45958  17.012   2.089   3.362  0.0759  0.0411 -0.0121
27212W        W45959  12.197  29.670   4.054 -0.0617 -0.1206 -0.2340
27213W        W45960   5.343   0.900   5.326  0.0752  0.1505  0.0850
27214W        W45961  21.987  18.183   2.855 -0.1486 -0.0015  0.1508
27215W        W45962  11.926   7.208  11.192 -0.1039  0.0324  0.1931
27216W        W45963  30.898   7.738  10.184  0.0946  0.1592  0.3145
27217W        W45964  34.631  28.781  22.107 -0.2536 -0.0320 -0.0664
27218W        W45965   1.889  28.854  22.131 -0.0746 -0.3681 -0.0253
27219W        W45966  26.410   0.548  22.658 -0.4131 -0.0664  0.1044
27220W        W45967  30.175  18.904  21.008  0.1203 -0.1808 -0.2392
27221W        W45968  19.253  15.859   7.424  0.1875  0.0519 -0.2286
27222W        W45969  13.159  27.539  17.750  0.5338  0.1392 -0.0802
27223W        W45970  23.093  28.253  13.371  0.2054  0.1454 -0.1481
27224W        W45971  23.250  24.341  21.174 -0.0468  0.0093 -0.1138
27225W        W45972  19.093  28.221  25.256 -0.1793 -0.2044 -0.0015
27226W        W45973  25.714   6.456  19.665  0.2883  0.3290 -0.0983
27227W        W45974  33.501  27.677  11.967 -0.2337 -0.0994  0.3174
27228W        W45975  12.404  11.792   1.335  0.0528 -0.2046 -0.0154
27229W        W45976   1.043  24.502  16.076  0.0257 -0.1665  0.3321
27230W        W45977  32.600  24.578  21.604  0.1073  0.1883  0.0389
27231W        W45978  26.995  24.306  20.171 -0.3044  0.1369 -0.3183
27232W        W45979  22.202  15.629  17.829 -0.0818 -0.0612 -0.0662
27233W        W45980  12.076  20.918  22.559 -0.0949  0.0646 -0.0086
27234W        W45981  29.408   6.054  18.704 -0.2225  0.2469 -0.0583
27235W        W45982  31.614  29.552  15.860  0.0569  0.0773  0.3223
27236W        W45983  24.898   5.173  18.706 -0.2991 -0.1408 -0.0976
27237W        W45984   8.241  27.705  22.642  0.2536 -0.3679 -0.1393
27238W        W45985  29.589  15.140  21.508  0.0854 -0.0237 -0.0912
27239W        W45986  20.802  27.857  18.189  0.4333 -0.3412  0.3552
27240W        W45987  14.208  17.101  13.325  0.1837  0.1783  0.1161
27241W        W45988  31.389   0.503  12.440 -0.1182 -0.2314  0.2665
27242W        W45989  26.595  14.341  18.789  0.2493 -0.0511 -0.1438
27243W        W45990  15.636  17.462   2.311 -0.0581 -0.1050  0.0650
27244W        W45991  34.343   7.678  18.989  0.0472  0.0834 -0.2960
27245W        W45992  23.070  23.321   2.293 -0.1095 -0.2346  0.0989
27246W        W45993  11.880  15.784   9.056  0.0583  0.1289 -0.1759
27247W        W45994  33.274  26.732  13.541  0.1692  0.1259 -0.0762
27248W        W45995   2.503  16.219   0.142  0.0734 -0.2116  0.0453
27249W        W45996  30.426   3.597  15.745  0.3296 -0.0029  0.1593
27250W        W45997  15.712   6.341  22.724 -0.0570 -0.0976  0.0805
27251W        W45998  18.972   0.488  20.715  0.0653 -0.2673  0.0913
27252W        W45999   4.605   7.391   5.948  0.2474  0.0197  0.0381
27253W        W46000  14.651  27.278  24.939 -0.0555  0.1855  0.1472
27254W        W46001   4.394  14.008  19.811 -0.0833 -0.2136  0.0871
27255W        W46002  34.874  29.688   3.304  0.1235 -0.2232  0.1013
27256W        W46003  17.786  20.383   6.775 -0.2308  0.2248  0.5668
27257W        W46004  34.901   6.536  22.233  0.1451  0.2010 -0.0803
27258W        W46005   1.464  10.388  23.818  0.1243 -0.0932 -0.1897
27259W        W46006  31.674   7.365  10.779  0.2261  0.2766 -0.0832
27260W        W46007   2.403   8.375  22.375  0.0022  0.1207  0.1055
27261W        W46008  27.714  11.234  12.263 -0.0784 -0.1355 -0.1568
27262W        W46009  16.264  31.358  22.133 -0.0356  0.1321  0.0745
27263W        W46010  29.168  15.744  21.242 -0.0043  0.0199  0.2473
27264W        W46011  13.038  22.325   6.711  0.3851  0.0722 -0.3429
27265W        W46012  15.917  27.161   9.038  0.2677 -0.0867 -0.0580
27266W        W46013   0.735  12.763   1.505  0.1439  0.1456 -0.0010
27267W        W46014   6.110  29.235   7.836 -0.1806 -0.0730  0.1998
27268W        W46015  32.791  27.893   2.981 -0.2816 -0.0635 -0.1253
27269W        W46016  19.467   1.346   1.166  0.2062  0.3476 -0.2565
27270W        W46017  27.387  19.784  14.350  0.1708  0.1468  0.1680
27271W        W46018  19.627  29.694  23.234 -0.1509 -0.1914 -0.4051
27272W        W46019  16.598   8.719  13.292  0.1255  0.1466  0.0950
27273W        W46020   0.169  14.028   8.396  0.2662 -0.1055 -0.2837
27274W        W46021  26.153  27.014  19.503  0.1976 -0.0291 -0.0181
27275W        W46022   7.112  17.354  23.737 -0.0567 -0.0676  0.1629
27276W        W46023  26.583  12.095   6.647 -0.0727 -0.0734  0.1510
27277W        W46024  25.761   8.990   0.312 -0.0259  0.3444 -0.2267
27278W        W46025  22.994  14.181  22.947 -0.1489 -0.0593 -0.0817
27279W        W46026  10.010   8.477   3.552  0.2352 -0.2130  0.0113
27280W        W46027  29.165  15.161  12.412  0.0105 -0.0068  0.0959
27281W        W46028  30.605  24.134  24.210 -0.1243  0.0840  0.4125
27282W        W46029  22.009   0.757  16.993  0.1255  0.3385 -0.2490
27283W        W46030  17.935  19.329  22.033  0.0227  0.0357  0.2208
27284W        W46031  34.003   4.184  24.578  0.0211  0.2952 -0.0409
27285W        W46032  13.911  34.400   0.874 -0.0660 -0.1136 -0.0033
27286W        W46033   5.457  28.465  15.025 -0.0960  0.1045  0.0993
27287W        W46034  19.657  30.581   5.864 -0.2639  0.0631 -0.0263
27288W        W46035  15.873   7.877  19.672 -0.4656  0.2135 -0.1360
27289W        W46036  19.028  16.274   9.545  0.2954  0.0019 -0.0072
27290W        W46037   1.626   8.585   2.338 -0.0464  0.1628 -0.1733
27291W        W46038   9.181  30.995  24.117  0.0942  0.1451 -0.0460
27292W        W46039   7.671   7.291   7.861  0.0643  0.1884 -0.0842
27293W        W46040  13.154  12.952  10.811 -0.1508 -0.0229  0.2691
27294W        W46041   8.551  31.378   7.858 -0.0065 -0.3533 -0.0396
27295W        W46042   8.991  15.367  20.464 -0.1991  0.0537  0.1092
27296W        W46043   3.316  14.875  19.379  0.4084 -0.0544  0.1434
27297W        W46044   1.534  24.827  16.090 -0.3998 -0.1984  0.2689
27298W        W46045  12.939  10.326   4.638 -0.1044  0.2776 -0.0822
27299W        W46046  11.679   8.511  25.914 -0.0347  0.1805 -0.1052
27300W        W46047  31.412   0.065  22.214  0.1452  0.1414 -0.2439
27301W        W46048   7.308  15.949  25.954  0.4523 -0.0138 -0.3092
27302W        W46049  19.890  17.479  18.076  0.0749 -0.2369  0.0296
27303W        W46050  16.004  33.670  23.602  0.1310 -0.0183  0.0010
27304W        W46051  32.702  25.409  17.017  0.1638  0.3972 -0.0484
27305W        W46052  22.901   8.942  16.981 -0.1247  0.1479 -0.2370
27306W        W46053   1.154   9.535  12.896  0.1717 -0.1570 -0.0015
27307W        W46054   6.617  18.175  25.366  0.1774  0.1954  0.3153
27308W        W46055  14.575  21.387  16.210  0.0743  0.1909  0.5473
27309W        W46056  29.950  19.793  25.867  0.1280 -0.1898 -0.0671
27310W        W46057   1.665   9.855  14.263  0.1138 -0.0463  0.0470
27311W        W46058  17.245  11.472   0.075  0.0123  0.1016  0.1595
27312W        W46059   5.042   8.464  18.108 -0.1831  0.1117  0.0418
27313W        W46060   5.250  33.455  10.353  0.0392 -0.2169  0.0484
27314W        W46061  13.978  19.550  25.615 -0.4415  0.0337 -0.0546
27315W        W46062  13.341   9.050  14.313 -0.1350  0.1196  0.0026
27316W        W46063  13.269  18.039   3.043 -0.0725  0.0328  0.1962
27317W        W46064  13.561  33.577  26.182 -0.0941 -0.1455 -0.1300
27318W        W46065  30.651  14.381  17.594 -0.2168  0.0451  0.1714
27319W        W46066   9.410   2.759   7.362  0.1191 -0.0034  0.0989
27320W        W46067  21.987   3.147  20.066  0.1147 -0.3672 -0.0918
27321W        W46068  34.650   1.847  23.981 -0.4850 -0.1527  0.1850
27322W        W46069  25.878  24.769  18.657 -0.0367 -0.0749  0.6432
27323W        W46070  19.533  33.605  20.376 -0.2649 -0.0205  0.1852
27324W        W46071  11.771   4.075  24.294 -0.1256  0.0030  0.0477
27325W        W46072  27.501  16.760  24.405  0.0370 -0.1803  0.1155
27326W        W46073  23.156  27.073  23.149 -0.0886  0.4531 -0.0989
27327W        W46074  29.391  19.726   8.420 -0.1535  0.3391  0.3374
27328W        W46075  33.921   8.128   1.117  0.1058  0.1513 -0.0459
27329W        W46076  14.522  12.679  21.789 -0.2924 -0.0602 -0.3286
27330W        W46077  14.059  33.424   7.847  0.2409 -0.1774  0.1988
27331W        W46078   0.348  10.979  12.475  0.0012 -0.3759  0.1006
27332W        W46079   2.352  27.577   3.952 -0.0356  0.0166 -0.1007
27333W        W46080  23.526  34.732  16.661 -0.3048 -0.1694 -0.0964
27334W        W46081   7.938  15.127  26.074 -0.0900 -0.0135 -0.0355
27335W        W46082   9.107  35.281  22.750 -0.0265 -0.0942 -0.3891
27336W        W46083  14.219  27.974   3.231 -0.0484 -0.0666  0.0621
27337W        W46084  34.574  30.770  22.620  0.3413  0.0341 -0.2067
27338W        W46085   5.582  35.098   4.177 -0.2464  0.1637 -0.3600
27339W        W46086   7.151  32.348   3.733  0.4600 -0.2593  0.4567
27340W        W46087   3.967  30.168   1.280  0.2712  0.1686  0.1517
27341W        W46088  24.987  10.800  18.505  0.1198  0.0383  0.1774
27342W        W46089  29.938  14.143   7.838 -0.0297 -0.2443 -0.1292
27343W        W46090  33.660   0.937   7.425  0.0737  0.3175 -0.0665
27344W        W46091  23.243  25.188   2.595  0.0221  0.0262 -0.0749
27345W        W46092  26.831  16.288   7.804  0.1738  0.0083 -0.0531
27346W        W46093  14.516   8.236  12.272 -0.2979 -0.1082 -0.0266
27347W        W46094   0.336   9.069  19.675 -0.0002 -0.1886 -0.2139
27348W        W46095  11.081  20.763  24.441 -0.2024 -0.2868 -0.2292
27349W        W46096  17.968  14.266  10.418 -0.1172  0.0725 -0.3019
27350W        W46097  18.180  23.284  10.702  0.4153 -0.0745  0.0029
27351W        W46098  34.893  25.120  26.194  0.1302  0.1381  0.2050
27352W        W46099   5.190   2.765  22.999 -0.1629  0.0501 -0.0214
27353W        W46100  12.989   5.275   3.437  0.1678 -0.0846 -0.1647
27354W        W46101  14.466  22.630  25.477 -0.0086 -0.2361 -0.0509
27355W        W46102   5.085  34.838   8.219 -0.0448 -0.0823 -0.0761
27356W        W46103  13.066  28.134   4.154 -0.1179  0.0306  0.0425
27357W        W46104  25.008   1.774  21.877  0.1913  0.2947  0.3241
27358W        W46105   1.764  16.625  20.549  0.2691  0.2427 -0.1466
27359W        W46106  14.963   8.093   5.400  0.0455  0.4452  0.0691
27360W        W46107  11.193   9.935  11.765 -0.0430 -0.1041 -0.1032
27361W        W46108   6.564   3.555   8.886  0.2540 -0.1212  0.2088
27362W        W46109  10.701  33.047  16.449 -0.0522 -0.0303  0.0604
27363W        W46110   9.603   7.264  13.738  0.0879  0.1212  0.0769
27364W        W46111  20.254  33.345  16.692 -0.0261  0.1328 -0.0029
27365W        W46112   3.372   7.109   5.652 -0.0168 -0.2314  0.1804
27366W        W46113  23.929   8.336  18.203  0.0043  0.0023  0.1461
27367W        W46114  22.182  24.481  21.083 -0.3667 -0.2278 -0.1277
27368W        W46115  32.818  18.988  17.975  0.0542 -0.2055  0.0983
27369W        W46116   2.228  17.936  13.882 -0.0338  0.3050  0.0467
27370W        W46117  30.527   3.085  16.474  0.0977  0.1595  0.0544
27371W        W46118  28.340   9.853   7.537  0.3172 -0.1645 -0.0499
27372W        W46119  12.672   6.616  13.464  0.2050 -0.0888  0.2180
27373W        W46120   4.144  22.209  22.286 -0.4073 -0.1108  0.0485
27374W        W46121  27.603  13.667  23.865  0.1191  0.0974  0.0724
27375W        W46122  15.766  10.149  10.159 -0.0285  0.0951  0.1550
27376W        W46123   5.111  25.063   4.492  0.2214  0.1078 -0.0198
27377W        W46124   9.672  18.120   5.149  0.1234 -0.2440  0.2445
27378W        W46125   9.340  15.132   8.030  0.0257 -0.3140  0.1659
27379W        W46126   6.441  12.205  22.142  0.0835 -0.0298 -0.0921
27380W        W46127  26.676  14.784  21.750 -0.0526 -0.0792  0.0078
27381W        W46128  15.289  23.885   4.546  0.4092 -0.0654 -0.1860
27382W        W46129  21.232  10.134   2.931 -0.0846 -0.1164  0.0289
27383W        W46130  14.102  26.755  15.856 -0.3950 -0.4624  0.1334
27384W        W46131  11.932  35.322  26.078 -0.0031 -0.3500  0.1824
27385W        W46132   7.141  32.896   5.703 -0.3556 -0.0520  0.1139
27386W        W46133  30.517  32.544  22.529 -0.1303  0.3353  0.0646
27387W        W46134  11.039  34.773  14.600  0.1802 -0.0282  0.1080
27388W        W46135   0.949  24.157   1.086  0.2794  0.0160  0.0172
27389W        W46136   2.944   2.517   4.438  0.0072  0.0626  0.3274
27390W        W46137  20.312  27.006  17.148  0.4210  0.0707  0.4117
27391W        W46138  17.777  21.268   4.030  0.1793  0.4554 -0.0619
27392W        W46139  18.416  25.633   5.301  0.1041  0.0831  0.3206
27393W        W46140  13.945  18.881   2.294 -0.1416 -0.1030 -0.0913
27394W        W46141  11.825  23.535   0.841 -0.2979  0.3963 -0.1308
27395W        W46142  12.376  23.648  15.832  0.3220 -0.0020 -0.1155
27396W        W46143  31.700  29.730   1.126  0.1716  0.0061 -0.0124
27397W        W46144  13.205  26.697  12.777 -0.0357 -0.2837  0.1314
27398W        W46145   0.922  24.092  20.800 -0.0023  0.1716 -0.1706
27399W        W46146  27.771   0.538  23.532  0.1557 -0.0830  0.0256
27400W        W46147  19.116  12.208  18.227 -0.2401 -0.7022  0.1582
27401W        W46148  32.289  13.726  24.569 -0.1108 -0.0471  0.0199
27402W        W46149  30.194   2.641   4.454 -0.2282  0.0460  0.3679
27403W        W46150  30.894  32.372   4.033  0.0317 -0.0731 -0.0676
27404W        W46151  15.795   7.738   9.304  0.2573  0.2273  0.0856
27405W        W46152  33.927  25.957  18.668 -0.0716 -0.4390 -0.0520
27406W        W46153  15.402  17.044  11.494  0.0889 -0.1724  0.1153
27407W        W46154  32.151   9.876  23.029  0.0623  0.1419  0.5039
27408W        W46155   6.221  22.539   3.621 -0.1027 -0.0441 -0.0805
27409W        W46156  17.890  35.254  24.373  0.3041  0.0089 -0.3295
27410W        W46157  28.913  27.461   0.726 -0.0677 -0.0928  0.3164
27411W        W46158  22.301   4.751   2.957  0.0722 -0.1454 -0.1522
27412W        W46159  27.890  35.281  20.227 -0.2772 -0.0519  0.2033
27413W        W46160  32.823  34.413   0.100 -0.2504  0.0919 -0.2747
27414W        W46161   8.394   9.351  18.332 -0.1158 -0.2542  0.2628
27415W        W46162  22.374  28.027  18.041  0.3789  0.1008 -0.0750
27416W        W46163  29.164  23.491  16.995 -0.0630 -0.3692  0.3826
27417W        W46164   2.942  27.491  10.537 -0.0982 -0.2776  0.0553
27418W        W46165  28.403  23.016  21.564  0.4965  0.2336 -0.1532
27419W        W46166  30.351   7.172  14.491  0.2896 -0.0041 -0.1389
27420W        W46167  26.307   1.097  22.401  0.2636 -0.3051 -0.1159
27421W        W46168  20.754   1.789   3.110 -0.0990  0.0667 -0.2022
27422W        W46169  35.012  33.815  24.934  0.0463  0.3415  0.0236
27423W        W46170  33.001  17.169   6.066  0.0346 -0.1975 -0.0531
27424W        W46171  15.425  32.266   2.456  0.0275  0.2700  0.1491
27425W        W46172  19.313   5.422  10.000  0.4506 -0.2053 -0.1186
27426W        W46173   9.202  32.041  23.982  0.0246  0.2221  0.0385
27427W        W46174  23.071   9.001  23.749  0.1178  0.0729  0.1914
27428W        W46175  10.154   8.953  13.662 -0.0251 -0.1641  0.1500
27429W        W46176   1.975  13.469  15.791 -0.0864 -0.0070 -0.0158
27430W        W46177   5.978  28.931  21.173 -0.0206  0.1933  0.0332
27431W        W46178  12.849  10.248   6.461 -0.0234 -0.1336 -0.0239
27432W        W46179  29.295  16.242  10.793  0.3285  0.2008  0.1523
27433W        W46180   6.815  31.969  13.215 -0.2551  0.1786 -0.3204
27434W        W46181   0.485  29.354  21.400  0.0655  0.0067 -0.0655
27435W        W46182  19.830   9.233  10.183 -0.1206  0.0450 -0.1493
27436W        W46183  26.115   6.945  20.825  0.1888  0.0119  0.0439
27437W        W46184  35.344   6.606  11.404 -0.0831 -0.0972 -0.0715
27438W        W46185  14.545  15.060  18.914 -0.0413  0.1149 -0.0159
27439W        W46186   7.775   1.914   5.068 -0.1444  0.0811 -0.0203
27440W        W46187   7.537  10.985  12.203  0.0873 -0.0777 -0.2631
27441W        W46188   3.388   3.898   1.774  0.1532  0.0973  0.2350
27442W        W46189   3.856   3.485   0.302  0.4874 -0.0244 -0.0290
27443W        W46190  15.666  32.025  21.223  0.3728 -0.0010 -0.2461
27444W        W46191  14.769  26.600  22.868 -0.2780  0.0651  0.0611
27445W        W46192  10.274   7.179  19.198 -0.1986 -0.0734 -0.1445
27446W        W46193  30.935   8.356  19.428 -0.0279 -0.1273 -0.0871
27447W        W46194  24.897  32.457   4.884 -0.2839  0.1389  0.0455
27448W        W46195   3.969   6.418  17.494  0.0841  0.0144 -0.1380
27449W        W46196   4.464  20.385  17.609  0.1077  0.0678 -0.1538
27450W        W46197   8.203   0.184  23.581  0.1411  0.2926  0.2952
27451W        W46198  15.927  20.149  12.332  0.0176 -0.1770 -0.0612
27452W        W46199  21.260   0.795   7.186 -0.0431  0.3333  0.0241
27453W        W46200  21.866   0.428  17.968  0.4144 -0.1902 -0.0853
27454W        W46201  24.684   9.278  23.842  0.0990 -0.1319 -0.2347
27455W        W46202  29.385   5.103  18.771  0.1951 -0.3038 -0.2871
27456W        W46203  31.107  14.366  15.240  0.2011 -0.6960  0.3130
27457W        W46204  34.905   4.488   1.014 -0.0283  0.0873 -0.0125
27458W        W46205   6.279  24.630  23.228 -0.2869 -0.2921  0.3369
27459W        W46206  32.937  34.947   4.406 -0.2489  0.2967 -0.4682
27460W        W46207  32.202  14.629  15.798  0.1856  0.0470 -0.0696
27461W        W46208  23.519  17.315  18.456 -0.1855  0.1121  0.3540
27462W        W46209  28.124  14.439  15.727  0.0348 -0.2158 -0.0224
27463W        W46210  21.791  28.713   1.615 -0.2626  0.2607 -0.0318
27464W        W46211   2.016  27.700   7.504 -0.0330  0.2011 -0.1485
27465W        W46212  26.472  26.540  13.073  0.3005 -0.5828  0.1088
27466W        W46213   2.928  10.035  16.002  0.1609 -0.4395 -0.2936
27467W        W46214   9.860  34.882  21.528 -0.2309 -0.6230 -0.5391
27468W        W46215  28.343   6.698  17.971 -0.0954 -0.2485  0.0699
27469W        W46216  10.839  12.195  25.946  0.2678 -0.1385  0.1026
27470W        W46217  23.057  27.164   4.715  0.1164  0.0304  0.4106
27471W        W46218   6.548  28.935   5.889  0.0297  0.1029  0.0214
27472W        W46219  18.748  15.908  18.425 -0.4166 -0.3556  0.3123
27473W        W46220  30.092  17.972  25.352  0.0154  0.3555 -0.0923
27474W        W46221   4.403  25.178  25.873  0.1365  0.3875 -0.0124
27475W        W46222  25.304   6.184  19.803  0.0725 -0.4168  0.2856
27476W        W46223  26.483  25.316   8.290 -0.0525  0.0460 -0.1554
27477W        W46224  17.491  21.545   5.256  0.1791 -0.0480 -0.0187
27478W        W46225   6.988   6.416  10.106  0.2491 -0.0052  0.0016
27479W        W46226  10.605  20.061   9.150  0.1723 -0.0567 -0.0444
27480W        W46227  12.720  18.246   2.612 -0.1144  0.2079  0.1828
27481W        W46228  22.071  26.702  15.935  0.2168 -0.1496 -0.0710
27482W        W46229   9.902  20.748   7.996  0.2372 -0.1962 -0.0457
27483W        W46230  33.249   4.259  22.299 -0.3062  0.1859  0.0130
27484W        W46231  18.381  25.028  23.478 -0.0552  0.0275 -0.0226
27485W        W46232  23.706  23.974  17.895  0.0440 -0.2346 -0.0943
27486W        W46233  20.038  14.643   7.318 -0.2479 -0.2276  0.3368
27487W        W46234   7.635  34.643   6.695  0.1934 -0.0124 -0.3417
27488W        W46235  11.450  34.413   3.390 -0.0989 -0.0361  0.0963
27489W        W46236   2.169   1.323   4.313 -0.0685 -0.1380 -0.0419
27490W        W46237   2.023  15.987  25.694  0.3396  0.2601  0.1777
27491W        W46238   9.623  24.247   6.796  0.1265  0.0739 -0.0928
27492W        W46239   4.750   0.674  12.408  0.0208  0.0536 -0.2888
27493W        W46240  34.018  16.757  23.746 -0.0990 -0.1189 -0.0172
27494W        W46241  17.274  22.539  11.676 -0.2212  0.1462 -0.1968
27495W        W46242   4.898   3.157  19.363 -0.1437  0.0418 -0.2773
27496W        W46243  28.315   0.099  20.440 -0.2318  0.2922 -0.1660
27497W        W46244  32.373  31.161  18.248  0.0661 -0.0044  0.2020
27498W        W46245  20.047   0.431   6.493  0.0831 -0.4217 -0.3140
27499W        W46246  15.932  19.809  21.317  0.1751 -0.1560  0.1225
27500W        W46247  34.979  29.182   7.325 -0.1755 -0.1614  0.0833
27501W        W46248   7.093  28.648  24.706 -0.2254  0.2769  0.2607
27502W        W46249   7.872  21.413  12.370 -0.2145  0.2336  0.1564
27503W        W46250   8.818  11.702   5.578  0.0299 -0.0722  0.2063
27504W        W46251   4.303  20.227  23.605  0.1281  0.0969  0.0118
27505W        W46252   4.159  13.396   1.524  0.1921  0.2382 -0.2647
27506W        W46253  22.536  30.653  20.625 -0.0507  0.0682 -0.3343
27507W        W46254  13.196  13.792  14.490  0.2642 -0.0284 -0.4604
27508W        W46255  34.580  22.625   1.618 -0.0903 -0.1051  0.0862
27509W        W46256  32.343  15.376   6.509 -0.1390  0.0751 -0.0609
27510W        W46257  18.831  28.307  21.492  0.2688  0.1554  0.0093
27511W        W46258  10.264  34.453   1.538  0.2520  0.2767  0.1781
27512W        W46259  17.048  17.926  20.506 -0.1013  0.0059  0.0916
27513W        W46260   3.898  10.237  21.385 -0.1279 -0.1074  0.1172
27514W        W46261  16.540  12.457  19.048 -0.0003  0.0019 -0.1958
27515W        W46262  32.757  19.471  21.714  0.1392 -0.1324 -0.0140
27516W        W46263  25.040  10.773   1.534  0.1131  0.1193 -0.0345
27517W        W46264   8.806  11.937  25.640 -0.0373  0.4227 -0.1606
27518W        W46265  14.754  10.504   3.010 -0.2327  0.0584  0.0441
27519W        W46266  29.773  33.977  18.529 -0.3605 -0.1724  0.1903
27520W        W46267  29.672  12.596  20.499 -0.2058 -0.1312 -0.0741
27521W        W46268  15.977  23.498  22.320 -0.2069  0.0030  0.0639
27522W        W46269  20.615  14.426  20.136  0.1720  0.1534  0.0923
27523W        W46270  31.470   8.057   2.083 -0.0271 -0.1908 -0.1863
27524W        W46271  21.473  18.416  24.822  0.1469  0.0254  0.0712
27525W        W46272  18.528   3.121  18.448 -0.1673 -0.1598 -0.1244
27526W        W46273  21.273  12.363   4.682  0.1970  0.1659  0.0876
27527W        W46274  20.604   1.704   7.540  0.2178 -0.1753 -0.1269
27528W        W46275  12.088   0.278   1.366 -0.0458 -0.1345 -0.0156
27529W        W46276   8.427  16.492  11.245 -0.1841 -0.2459  0.2426
27530W        W46277  20.512  10.024  20.513 -0.0338  0.0711  0.0216
27531W        W46278   8.350   1.949   7.633  0.1243  0.0067 -0.1073
27532W        W46279  11.703  10.161   8.782  0.2799  0.4002  0.1276
27533W        W46280  26.874  30.723  25.281  0.0830  0.1690 -0.0351
27534W        W46281   0.762   2.795  16.625  0.1975  0.2015 -0.0782
27535W        W46282  21.664  12.174   2.520  0.1281 -0.3695  0.0771
27536W        W46283  26.258  29.072  23.449  0.1189 -0.3061  0.0502
27537W        W46284  16.376  20.878   7.831  0.5644  0.2903  0.3301
27538W        W46285  27.820  19.495  21.741 -0.0414 -0.1943 -0.1511
27539W        W46286   9.001  25.490   9.398  0.0002  0.4330 -0.2665
27540W        W46287  28.221  26.031  24.508  0.0989 -0.3040 -0.1565
27541W        W46288   9.287  21.860   9.381 -0.0274  0.1273 -0.4556
27542W        W46289  23.147  24.789  19.825 -0.2726  0.3254 -0.2293
27543W        W46290   4.334  12.666  18.475  0.1879  0.0213 -0.1689
27544W        W46291  21.324   2.377  14.450 -0.2357 -0.1445 -0.2523
27545W        W46292   5.372   3.678   1.266  0.0600  0.1355 -0.1453
27546W        W46293  16.723  27.404   2.819 -0.3372  0.0211  0.0509
27547W        W46294  34.491   1.844  15.834 -0.3420 -0.2812 -0.0874
27548W        W46295   7.485  16.114   0.563  0.1665 -0.0981  0.0140
27549W        W46296  10.267   4.381  19.194  0.1098 -0.0622 -0.1963
27550W        W46297  26.086  19.009  22.779 -0.2473 -0.0079 -0.4070
27551W        W46298  26.792  27.854  13.495 -0.0581  0.3475 -0.0012
27552W        W46299  34.063   3.845   4.083 -0.0310  0.1485 -0.0349
27553W        W46300  29.498  29.140  12.614 -0.3591  0.1631  0.1342
27554W        W46301   6.417  22.427  21.505 -0.1587 -0.2555 -0.1398
27555W        W46302  13.819  32.080  25.904 -0.2720  0.0984  0.1267
27556W        W46303  30.727  16.226   4.349 -0.1232 -0.1068  0.1520
27557W        W46304  31.603  30.160  25.374  0.1476 -0.2854 -0.0552
27558W        W46305  13.480   5.634  13.918 -0.0790  0.0890 -0.0901
27559W        W46306   2.474   7.077   3.141  0.1492  0.1312 -0.2448
27560W        W46307   4.367  11.080   0.755  0.2597 -0.2592  0.0611
27561W        W46308  24.605  26.466  14.013  0.1635  0.4104  0.1841
27562W        W46309   0.729   5.873  16.809  0.1675  0.0220  0.0582
27563W        W46310  32.488  13.825  13.491  0.2845  0.1584  0.2416
27564W        W46311  24.324  30.038  24.971  0.2572  0.0006  0.1275
27565W        W46312  25.471  32.149   1.982  0.1650 -0.1276  0.3094
27566W        W46313  27.210   3.013  12.116  0.0484 -0.4072 -0.1932
27567W        W46314  32.091  19.193   7.382  0.1496 -0.0297  0.0882
27568W        W46315  33.608  12.624  20.860 -0.1212  0.2191  0.1915
27569W        W46316  15.343  19.396   4.498  0.1617  0.0610  0.1198
27570W        W46317  14.852  21.691  22.704  0.0105  0.2553 -0.0691
27571W        W46318  23.186  35.006   6.656 -0.0003  0.2814 -0.0048
27572W        W46319  19.063   6.322   7.501 -0.2387 -0.0063  0.0194
27573W        W46320   1.564  31.405   9.196  0.0475  0.3049 -0.2163
27574W        W46321  11.087  24.982   3.561  0.5500  0.0614 -0.4459
27575W        W46322  30.928   2.259   0.252  0.3718 -0.0921 -0.1522
27576W        W46323  21.019  33.483  22.681  0.5891 -0.1374  0.0225
27577W        W46324  32.342  25.105   8.956 -0.5002 -0.0738  0.0415
27578W        W46325  29.437  18.271   8.151 -0.3839  0.3870 -0.1077
27579W        W46326  13.134   1.965  22.614  0.2704  0.2217  0.1380
27580W        W46327   8.415  32.364   1.805 -0.1229  0.0363  0.1280
27581W        W46328  17.695   0.264   7.492  0.2366 -0.1974 -0.3362
27582W        W46329  32.987  31.289  20.523  0.1657 -0.0611 -0.1339
27583W        W46330   1.046  22.101  18.745  0.1686  0.0018 -0.1453
27584W        W46331  12.948  16.356  25.134 -0.0254 -0.1274 -0.3503
27585W        W46332   7.818  19.083  13.225 -0.1271 -0.0037  0.0721
27586W        W46333  13.844  34.951  23.120 -0.1963  0.0242 -0.0594
27587W        W46334  14.369   3.347   5.971 -0.3217  0.1342  0.1912
27588W        W46335  13.552   0.720   7.048 -0.1809 -0.0068 -0.0571
27589W        W46336  18.970  21.553   6.037  0.0689  0.0193  0.2369
27590W        W46337   7.022  31.162   6.312 -0.1742 -0.1064 -0.0163
27591W        W46338   0.712  34.808  21.949 -0.3043  0.1896 -0.1247
27592W        W46339  19.021   2.448  17.970  0.2668  0.5041  0.1217
27593W        W46340   1.475  15.942  19.810  0.1977  0.2436 -0.0060
27594W        W46341   9.520  13.835  21.041  0.1114 -0.0528 -0.0668
27595W        W46342  25.590  13.036  13.362 -0.0901  0.1196 -0.1256
27596W        W46343  29.378  31.895  19.595 -0.1551 -0.1016  0.2652
27597W        W46344  22.512  28.891  26.226 -0.1034 -0.1189 -0.4093
27598W        W46345  27.665  15.355  18.476  0.2743 -0.0627 -0.1043
27599W        W46346  25.650   1.671   1.121 -0.1053  0.0625  0.0363
27600W        W46347  33.112   8.916   9.897  0.5739 -0.0828  0.0284
27601W        W46348  23.241  23.742  13.990 -0.0301  0.4305 -0.0757
27602W        W46349  12.440  35.294  13.202  0.0442 -0.2924  0.0473
27603W        W46350  11.680  21.915  22.569  0.2450 -0.1152  0.0978
27604W        W46351  18.652  23.040   2.987 -0.0901  0.0203 -0.1362
27605W        W46352  17.973  31.870   2.294  0.0072 -0.3397 -0.1532
27606W        W46353  24.284  28.577  13.692 -0.2632  0.2584  0.1088
27607W        W46354  20.911  30.626  15.420  0.0461  0.0581  0.2680
27608W        W46355  13.362  30.917   0.162  0.2072  0.2073 -0.2713
27609W        W46356  11.979   3.842  23.770  0.1387 -0.1598 -0.0228
27610W        W46357   2.544  28.366  11.694  0.0984  0.5786 -0.1829
27611W        W46358   6.293  10.902   1.048 -0.1747 -0.1745 -0.0805
27612W        W46359  12.926  34.020  14.687  0.0552  0.1021  0.1024
27613W        W46360  12.275  31.339  26.117  0.0663  0.1404 -0.1202
27614W        W46361   1.727   8.205  17.946 -0.3794  0.2408 -0.1244
27615W        W46362  16.024  27.170  13.427  0.2431 -0.1566 -0.1176
27616W        W46363   5.191   6.834  20.158 -0.1283 -0.0861 -0.2060
27617W        W46364   1.933  23.197  16.944 -0.1442 -0.2872 -0.0825
27618W        W46365  22.151  25.611  21.659 -0.1770 -0.0576 -0.1624
27619W        W46366   9.679  31.821   0.477  0.4037 -0.1904 -0.0569
27620W        W46367  25.278   5.033   0.242 -0.0359 -0.2677  0.0546
27621W        W46368   6.301   4.096   6.855  0.0429  0.4809  0.0317
27622W        W46369  28.666  25.522  18.897  0.2334  0.1289  0.1819
27623W        W46370  27.663   8.513   0.897 -0.2838 -0.2523  0.1445
27624W        W46371  34.442  21.059  11.124  0.0879 -0.0631 -0.0292
27625W        W46372  32.415   3.827  22.075 -0.2828 -0.1391 -0.2906
27626W        W46373   8.182  10.408  21.560  0.2651 -0.2657 -0.1933
27627W        W46374  33.320  11.812  12.227 -0.0630  0.0822 -0.1182
27628W        W46375  29.815  18.861  16.111  0.1940 -0.0879  0.6192
27629W        W46376  19.281   9.295  20.671  0.1086 -0.2761  0.2336
27630W        W46377  16.554   0.474   1.497 -0.2015 -0.1001 -0.0828
27631W        W46378  27.957  13.436  23.018 -0.0609  0.1411  0.2059
27632W        W46379  21.994   6.249   6.680 -0.0559  0.1633 -0.0242
27633W        W46380  23.993  11.686  17.427 -0.0129 -0.2386 -0.0503
27634W        W46381   7.408  13.163  12.884  0.2230 -0.1595  0.1660
27635W        W46382  30.664  32.730  23.873  0.1307 -0.1497 -0.1401
27636W        W46383  10.837  11.598   7.980 -0.1571 -0.1087  0.4170
27637W        W46384  30.250  34.925   0.137  0.0216 -0.4427 -0.1357
27638W        W46385  29.723  30.744  23.644  0.3382 -0.0527 -0.3403
27639W        W46386  32.365  10.560  23.145  0.0954 -0.0615  0.0556
27640W        W46387   7.063   7.936   8.373 -0.1918 -0.1364  0.2046
27641W        W46388   0.158  11.066  18.109  0.2810 -0.0006 -0.1256
27642W        W46389  27.104   8.643  17.147  0.0053  0.1171  0.1464
27643W        W46390  12.879  33.587  10.433  0.0253 -0.3099  0.0654
27644W        W46391  27.189  20.387  24.815  0.1441  0.0959  0.3781
27645W        W46392  20.049  24.876   0.590 -0.0578  0.0485  0.1418
27646W        W46393  18.801  23.846   8.074  0.3698  0.1085  0.3601
27647W        W46394  32.327   4.682  24.272 -0.1580 -0.0003  0.2692
27648W        W46395   4.051  12.171  15.106 -0.1688 -0.1716  0.0294
27649W        W46396  18.233  11.674   2.046 -0.0594  0.1669  0.1087
27650W        W46397   7.986  31.216  22.413 -0.0834  0.3891  0.4007
27651W        W46398   9.007  33.971   0.003 -0.2282  0.1482  0.1751
27652W        W46399  28.709   7.079  23.275 -0.1916 -0.0009  0.3409
27653W        W46400   6.890  28.356  15.515 -0.0355 -0.1995 -0.1427
27654W        W46401  24.566  29.872  16.290 -0.3972 -0.1482 -0.0590
27655W        W46402   9.421  33.036  11.049  0.0517  0.2344 -0.2636
27656W        W46403  13.601  14.932   7.105 -0.0627 -0.0968 -0.1813
27657W        W46404  16.387   2.668   7.660  0.4029 -0.2848 -0.1095
27658W        W46405  15.858  22.448   4.447 -0.2188 -0.3860  0.0431
27659W        W46406  32.531  20.843  23.762 -0.1944  0.0038 -0.0077
27660W        W46407  22.683   5.736  19.920  0.1498  0.0525  0.1266
27661W        W46408   5.349  32.363  21.021 -0.2768  0.2317  0.3280
27662W        W46409  24.212   8.479  15.148 -0.1438 -0.2890  0.2994
27663W        W46410  10.585  11.462   1.633 -0.1694 -0.1354  0.1049
27664W        W46411  17.696  28.790  18.719  0.0711 -0.0885 -0.0049
27665W        W46412  16.410   0.670  18.895 -0.2372 -0.0976  0.2604
27666W        W46413  18.910   2.566   2.292  0.1619 -0.0595  0.4204
27667W        W46414  19.613  22.674   7.187 -0.1099  0.1483  0.1310
27668W        W46415  22.631   7.790   1.904  0.1101 -0.2257 -0.2422
27669W        W46416   4.740   2.841   0.452  0.2037  0.1642  0.1658
27670W        W46417  21.438  30.511   5.622 -0.1821  0.0746 -0.0931
27671W        W46418   0.795  22.856  18.965 -0.0599  0.0132 -0.2821
27672W        W46419  32.728  12.735  17.726  0.1680  0.0175 -0.2996
27673W        W46420  12.547   0.815   9.597 -0.1083 -0.0223  0.1104
27674W        W46421  21.056  10.562   3.237  0.1393  0.0955 -0.0882
27675W        W46422  30.844  15.989  12.225  0.0704 -0.0618 -0.2081
27676W        W46423  13.141  25.185  15.744  0.1113 -0.1580  0.4553
27677W        W46424  19.954  21.913  24.801  0.1980 -0.0385  0.0287
27678W        W46425  28.218  27.680  25.744 -0.0172  0.1944 -0.1226
27679W        W46426   5.571  32.187   3.660  0.5042  0.1142 -0.0047
27680W        W46427  23.734  16.149  22.813  0.3013  0.0772 -0.1847
27681W        W46428  19.247  17.965   6.251 -0.1445  0.0847 -0.0439
27682W        W46429  16.536  17.029  23.148  0.1114  0.0436 -0.0038
27683W        W46430  32.478  34.730  12.012 -0.0669 -0.2230  0.1322
27684W        W46431   1.397   7.749  18.159  0.1170 -0.0927  0.2440
27685W        W46432  29.504  13.281  14.390 -0.1724 -0.2865  0.4272
27686W        W46433   0.983   3.280  16.569  0.1762  0.0244  0.0001
27687W        W46434   6.167   2.800   0.600  0.2869 -0.2787 -0.0754
27688W        W46435   4.102   4.007  21.368 -0.2124 -0.3095  0.0690
27689W        W46436  24.916  18.022  24.011 -0.0921  0.0262  0.3151
27690W        W46437  19.819  25.116   0.188  0.1203 -0.3480 -0.0334
27691W        W46438   5.953  14.250  23.674 -0.4351  0.1681 -0.1204
27692W        W46439   2.805  16.540  22.476  0.1423 -0.1100 -0.3542
27693W        W46440  18.865  19.030  10.791 -0.2306  0.0207  0.0304
27694W        W46441  10.866  29.731   7.837 -0.0488  0.0815  0.1470
27695W        W46442  29.197   3.448   3.284 -0.0276  0.3844 -0.0544
27696W        W46443  21.494  23.310  21.463  0.1187 -0.0398 -0.3244
27697W        W46444  25.177   8.211  16.699  0.0454 -0.0223 -0.3763
27698W        W46445   7.454   8.073  10.296  0.3257 -0.2151 -0.1575
27699W        W46446  27.083   7.499  21.097 -0.1460 -0.0607 -0.0706
27700W        W46447  25.447  34.929   0.685 -0.0200  0.0011 -0.0287
27701W        W46448   9.504   0.703   1.008 -0.0861 -0.0007  0.1535
27702W        W46449   0.883   4.559  21.708  0.3486  0.2951  0.1458
27703W        W46450  31.197   9.567  14.317  0.0502  0.3969  0.0121
27704W        W46451  16.733   9.385   9.580  0.1223  0.1860  0.2005
27705W        W46452  13.843  21.157   0.227  0.0483 -0.1234 -0.1165
27706W        W46453  19.362  13.481   5.017  0.4051 -0.1025 -0.2133
27707W        W46454  18.077  33.395  18.260  0.1855  0.0619  0.0321
27708W        W46455  30.831  20.462   4.965  0.1321  0.1057 -0.4820
27709W        W46456   9.260  27.834  13.512  0.0148  0.1732 -0.0570
27710W        W46457  14.743  16.704   2.720  0.1561 -0.0203 -0.0371
27711W        W46458   2.505  17.556  19.030  0.1094 -0.1308  0.0951
27712W        W46459  23.225  26.619   0.575 -0.3160  0.3414 -0.1606
27713W        W46460  26.393   9.956  22.392  0.0301 -0.1312 -0.0355
27714W        W46461  15.437  27.173  24.303  0.0827 -0.2974  0.0351
27715W        W46462   7.634  28.122   8.659 -0.0612  0.0920  0.1364
27716W        W46463  12.883  31.314   2.986  0.1617  0.1279  0.1524
27717W        W46464  31.864  24.827  18.904 -0.0671 -0.1763 -0.1955
27718W        W46465  13.057   1.604   1.230 -0.4555 -0.0213  0.1127
27719W        W46466  33.685  26.310  13.305  0.1059 -0.0038  0.1440
27720W        W46467   4.049  18.592   0.203 -0.3305  0.2289  0.1387
27721W        W46468  24.626  11.653   2.102  0.0397 -0.1881  0.1275
27722W        W46469   7.018  20.102  24.733  0.1105 -0.1542 -0.1314
27723W        W46470  23.672   3.173  19.731  0.1684 -0.0344  0.1154
27724W        W46471   2.271  32.559  25.184 -0.2391  0.1000  0.0031
27725W        W46472  34.855  19.704  13.017  0.3778 -0.4754  0.1300
27726W        W46473  14.822  29.378   1.621 -0.3786  0.0959  0.0632
27727W        W46474   1.320  12.696  11.393  0.1080  0.1013 -0.2648
27728W        W46475  32.596  32.055  26.177  0.2418 -0.0321 -0.0277
27729W        W46476  34.616  28.133  18.837  0.1420  0.2104 -0.0195
27730W        W46477  32.129  12.747  16.878  0.0789 -0.0900  0.0331
27731W        W46478  17.770  19.831  20.241  0.2025  0.0874  0.3027
27732W        W46479  23.527  14.797  12.802  0.0425  0.1005  0.3560
27733W        W46480  18.302   7.426  23.831 -0.1200 -0.1698 -0.0805
27734W        W46481  32.927   8.158   0.730 -0.0527  0.1017  0.0608
27735W        W46482   3.498  16.567  16.257  0.0036  0.1569  0.2379
27736W        W46483  10.025  11.149  13.447  0.0560 -0.0483 -0.0147
27737W        W46484  28.499  25.063  15.628 -0.0168 -0.0529  0.0420
27738W        W46485   3.541  16.808  15.199 -0.1222  0.3502 -0.0164
27739W        W46486  13.840  17.931   1.126  0.0012  0.0641 -0.2676
27740W        W46487  15.026  25.161   5.675  0.2631 -0.1578 -0.2101
27741W        W46488   8.272  11.619  24.454 -0.1323 -0.1284  0.0529
27742W        W46489  20.560   6.356  17.432  0.1261  0.1425  0.0097
27743W        W46490  11.935   6.511   2.692  0.1200 -0.1683 -0.1671
27744W        W46491  21.366  28.538   7.476 -0.0227  0.3590  0.1240
27745W        W46492  29.058  29.164  13.520 -0.3020 -0.0554  0.0290
27746W        W46493  33.752  25.664  20.286 -0.2812 -0.4389  0.1611
27747W        W46494  27.441  33.793  24.866  0.2787  0.0386 -0.0499
27748W        W46495   6.296  10.570  10.013 -0.2165 -0.0795  0.1956
27749W        W46496   3.329  30.209  20.409 -0.0006 -0.0595 -0.2869
27750W        W46497  17.838  31.820   3.701  0.1425 -0.1524 -0.1577
27751W        W46498  12.572  21.873   9.873 -0.1189 -0.1060  0.2165
27752W        W46499  11.983  34.897   8.287  0.2061 -0.2435  0.2093
27753W        W46500  25.467  33.514  11.154  0.0079 -0.0181  0.3602
27754W        W46501  12.689  21.036   3.149  0.1676  0.1294 -0.0822
27755W        W46502   3.613  34.481   6.803  0.2804  0.1945  0.0911
27756W        W46503   9.581   7.657   0.090  0.2222  0.0088  0.6479
27757W        W46504  20.656  18.913  22.276 -0.1119  0.1429 -0.0043
27758W        W46505   2.492   4.985  19.518 -0.1662  0.1599  0.0497
27759W        W46506  28.254  20.921  14.099  0.0374 -0.3389 -0.2025
27760W        W46507   9.368   1.182  10.997  0.0267 -0.3950  0.2515
27761W        W46508   5.126  28.152  10.942  0.1232 -0.0181 -0.3396
27762W        W46509  25.569  24.617  12.169  0.1247  0.1171  0.0253
27763W        W46510  12.110   3.728  25.204  0.2253 -0.0041 -0.1806
27764W        W46511   7.389  15.014   1.432  0.0054 -0.4335  0.0158
27765W        W46512  12.565   2.402   9.360 -0.0023  0.0916 -0.3927
27766W        W46513  12.913  18.760  25.783 -0.1670 -0.3302 -0.2878
27767W        W46514  30.494  21.669  10.275 -0.2415 -0.1190 -0.2114
27768W        W46515  19.589   8.488  25.579 -0.2527  0.0882  0.0813
27769W        W46516   1.965  31.330  24.601  0.6381 -0.3055  0.3167
27770W        W46517  22.965   8.236   3.213  0.0087  0.2369  0.2039
27771W        W46518   8.179  22.634   5.157 -0.1401  0.1524  0.2113
27772W        W46519  21.313   7.515   2.043 -0.2474 -0.1571  0.1092
27773W        W46520  13.853  30.315  14.444 -0.1943  0.0044  0.1361
27774W        W46521  22.879  20.609   1.639 -0.2044  0.3952 -0.2078
27775W        W46522  12.125  23.223   6.176  0.3142  0.0787  0.0430
27776W        W46523  28.731  10.478   7.924  0.0685 -0.1252 -0.0166
27777W        W46524  23.331  33.927   6.477  0.1447 -0.0571 -0.3114
27778W        W46525  35.383  14.604   9.665 -0.0711 -0.1521 -0.2109
27779W        W46526  14.679  27.335   8.279  0.0319  0.4851  0.0344
27780W        W46527  21.144  25.080  16.124  0.0678 -0.2768 -0.1328
27781W        W46528  33.944  34.274  24.092  0.0568 -0.2727  0.3449
27782W        W46529  22.691   0.654   6.050  0.0892 -0.0060  0.3306
27783W        W46530  31.033   3.165   5.662  0.0146  0.1490 -0.1619
27784W        W46531   2.688  13.720  25.296 -0.1508 -0.0362  0.0095
27785W        W46532   9.931  14.008   2.841 -0.1485  0.3285  0.1274
27786W        W46533  16.609   5.251   1.440 -0.2005  0.2173  0.0727
27787W        W46534   4.471  12.411  23.802 -0.0587 -0.2771 -0.1535
27788W        W46535   8.715  17.634   0.698  0.0157 -0.1564 -0.1678
27789W        W46536   1.192  27.805  25.128 -0.2117  0.0404  0.1851
27790W        W46537  26.972   5.778  24.585 -0.0622  0.0115 -0.2396
27791W        W46538  31.980  11.749   9.270  0.0684  0.4324 -0.1596
27792W        W46539   0.164  30.863   8.137  0.0138 -0.0378  0.1179
27793W        W46540  22.472  22.101   2.375 -0.0973  0.3133 -0.0963
27794W        W46541  15.617  30.404  10.341  0.3147 -0.1401  0.0993
27795W        W46542  10.042  14.593   8.656  0.0034 -0.1197 -0.1777
27796W        W46543  10.604  11.517   9.704  0.0691  0.2437 -0.1730
27797W        W46544  21.095  31.912   6.517  0.2193 -0.2413 -0.3253
27798W        W46545  29.211  26.097   9.049 -0.0065  0.1620 -0.4499
27799W        W46546  31.073  33.376  25.806 -0.1398  0.2453 -0.0161
27800W        W46547  23.532   0.839   1.602  0.1246 -0.0349 -0.2410
27801W        W46548  20.815  22.194  21.647 -0.0668  0.1828  0.0409
27802W        W46549  11.440   6.291   1.056 -0.0307 -0.0623 -0.2374
27803W        W46550  15.025   1.537  10.630 -0.0267  0.0127  0.1399
27804W        W46551  30.821   2.586  23.024 -0.2952 -0.1309  0.1216
27805W        W46552   2.641  14.817   0.763  0.3122  0.1744 -0.0912
27806W        W46553   7.569  30.073  24.429 -0.2188  0.0466  0.2291
27807W        W46554  26.904   7.843  22.520  0.2185  0.2619  0.1059
27808W        W46555  13.373   7.159  24.559 -0.0363  0.3121  0.0606
27809W        W46556  21.660   1.982  21.298 -0.1768 -0.2687  0.0105
27810W        W46557   6.762  25.645  15.974 -0.1136 -0.0190  0.1434
27811W        W46558  17.525  17.124  22.982  0.1245  0.0944 -0.1934
27812W        W46559  22.019   9.527   5.520 -0.1739 -0.3473  0.0498
27813W        W46560  28.253  22.321  20.625  0.0103  0.1142  0.2212
27814W        W46561  19.996   0.585   7.983  0.2536 -0.1691 -0.4707
27815W        W46562  31.856  32.289  24.566  0.1010 -0.0674 -0.0864
27816W        W46563  11.972   4.117  12.743  0.1797 -0.2020  0.3101
27817W        W46564  32.197  27.657  15.672 -0.0248  0.0244 -0.0728
27818W        W46565  13.237  25.089   5.364  0.0144  0.2463  0.5132
27819W        W46566   5.752   5.138   6.233  0.0245  0.1344 -0.3300
27820W        W46567   4.967  18.431   6.672  0.1513  0.0296 -0.0554
27821W        W46568   3.430  13.954   2.095 -0.0393 -0.0342  0.2357
27822W        W46569  17.294  13.857   7.111  0.2016 -0.0319  0.1468
27823W        W46570   6.880  26.382  13.913  0.3441  0.1786 -0.0373
27824W        W46571   1.363   6.167   2.282 -0.0020  0.3169 -0.0278
27825W        W46572   7.342  33.014  24.565 -0.2184  0.0667  0.3060
27826W        W46573   2.291  11.648  19.161  0.1634 -0.0433 -0.0219
27827W        W46574  18.827  18.577   3.575  0.0400 -0.0468 -0.0446
27828W        W46575  15.820   7.958  11.559 -0.3104  0.0333 -0.0377
27829W        W46576  11.159   8.325  12.608 -0.0729  0.3461  0.2161
27830W        W46577  18.040   9.272  12.150  0.1291 -0.2460  0.0274
27831W        W46578   9.970   7.056   4.188 -0.1922  0.1858  0.0403
27832W        W46579   3.504  34.784   1.101 -0.1722 -0.1888 -0.1092
27833W        W46580   1.014  13.159  18.516 -0.1647 -0.2456 -0.1381
27834W        W46581   5.328  27.751  25.749 -0.0165 -0.0860 -0.0123
27835W        W46582  19.173   9.570  25.224  0.0240  0.2729  0.0785
27836W        W46583  23.886   5.329  17.102 -0.2383 -0.2443 -0.1193
27837W        W46584   0.856   8.580  22.062 -0.0872  0.3188  0.1248
27838W        W46585  22.126   2.689   2.340  0.2763  0.1836  0.0835
27839W        W46586  23.752  26.218  19.388 -0.0362  0.0394 -0.2039
27840W        W46587  15.202  12.369  23.616  0.4832  0.1925 -0.2926
27841W        W46588  30.678  16.329   9.531 -0.1830  0.0592 -0.5305
27842W        W46589  20.505  14.491  21.601 -0.0002 -0.3833 -0.0894
27843W        W46590  15.901   9.475   2.657  0.4745 -0.0635  0.1947
27844W        W46591  34.691  26.435  25.291  0.0730  0.0006  0.0436
27845W        W46592   4.930  12.092  17.894  0.0385  0.0025  0.1666
27846W        W46593  14.873   8.747  10.268 -0.2896  0.0393 -0.0186
27847W        W46594  20.381   8.163   4.758  0.1080  0.0313  0.2176
27848W        W46595  16.461  28.519   3.686  0.0386 -0.1271 -0.2454
27849W        W46596  35.307   4.807   4.451  0.1975 -0.1211 -0.1625
27850W        W46597  30.116   2.741  24.372  0.1446 -0.2630 -0.1314
27851W        W46598  32.019  28.361  24.087 -0.0130  0.4384 -0.1466
27852W        W46599   2.934  20.346  14.510 -0.0809 -0.0909  0.1479
27853W        W46600  24.503  33.467  22.760  0.1973 -0.0041  0.1892
27854W        W46601  33.346  25.836  19.374 -0.5443 -0.0395 -0.0007
27855W        W46602  27.019  10.837  10.625  0.2349 -0.0975 -0.6288
27856W        W46603  22.004  26.806  22.055  0.0934 -0.0815  0.0123
27857W        W46604  10.539  10.353  21.972  0.1084 -0.2852  0.2236
27858W        W46605  13.851  18.220  26.170  0.0316 -0.1833  0.2105
27859W        W46606  27.994  22.233   9.956  0.1113 -0.2951  0.1875
27860W        W46607  19.290  12.740  25.689  0.1816 -0.1365  0.0008
27861W        W46608  22.072  20.588  15.373 -0.0644  0.0500 -0.0217
27862W        W46609  20.863  14.324  23.322 -0.0589 -0.0071 -0.0795
27863W        W46610  11.985   5.042  10.212 -0.1537  0.1767  0.0096
27864W        W46611  29.606  28.894  23.812 -0.0847 -0.0212  0.0179
27865W        W46612  34.375  20.119   0.538  0.3528  0.1526 -0.2749
27866W        W46613  12.835  26.661  16.206  0.0042 -0.1197  0.3243
27867W        W46614  29.931  28.745  11.349 -0.2934  0.0687 -0.1048
27868W        W46615   6.697  32.617  21.340 -0.1105 -0.2632  0.2685
27869W        W46616  29.254  14.971  21.107  0.4736 -0.2595  0.3379
27870W        W46617  20.076  30.084  25.748  0.0364  0.0823 -0.0833
27871W        W46618  11.213  18.439   4.008  0.0035 -0.0620  0.0717
27872W        W46619  20.683  26.145   3.033  0.0429 -0.0144  0.0191
27873W        W46620  14.770  21.246  15.164 -0.1176 -0.0232 -0.1351
27874W        W46621  34.555  30.463  24.089  0.0519  0.0092  0.3489
27875W        W46622  17.755  16.829   1.411 -0.3285  0.0861  0.1175
27876W        W46623   1.389   1.099  18.683  0.0732  0.1003  0.0030
27877W        W46624  32.346   9.368  16.546  0.2286 -0.0058  0.3620
27878W        W46625  24.434   7.419   0.283  0.1267 -0.3108 -0.2720
27879W        W46626  19.741  29.575  25.723 -0.1376 -0.1537 -0.1307
27880W        W46627  19.035  32.071   3.945 -0.2180 -0.2224 -0.0313
27881W        W46628   6.223  15.003   3.837  0.0603  0.0749  0.2585
27882W        W46629   9.325  15.257  19.545 -0.2231  0.2580  0.0295
27883W        W46630  32.688  21.555   9.157 -0.1328 -0.0617 -0.3149
27884W        W46631  32.807  14.409  14.254 -0.1503  0.1128  0.1296
27885W        W46632   5.812  32.719   3.392  0.1928 -0.0970 -0.1219
27886W        W46633  19.327  21.047  20.770  0.1844 -0.0398  0.0263
27887W        W46634  31.465  10.277  25.645  0.2696  0.2308 -0.0241
27888W        W46635   3.873   1.339  25.617  0.1383 -0.0695 -0.1370
27889W        W46636  17.149  33.109   5.421 -0.2390 -0.0394 -0.0280
27890W        W46637  33.974  24.103  21.759  0.0958  0.1801  0.1525
27891W        W46638  19.812   3.997   7.409  0.0436  0.2275 -0.0312
27892W        W46639  26.561   1.269  20.403 -0.1322  0.0431 -0.1311
27893W        W46640  26.681   8.940  10.352 -0.1631  0.1767 -0.1305
27894W        W46641  10.253  16.646   6.839  0.0182 -0.1530 -0.0375
27895W        W46642  23.728  22.158  25.815 -0.3241 -0.0948  0.0964
27896W        W46643  11.446   7.682   5.470  0.0090 -0.0790  0.1772
27897W        W46644  13.058  34.013  22.610  0.0105  0.0356 -0.3360
27898W        W46645   9.537  31.964   6.930 -0.2281 -0.1345  0.2507
27899W        W46646   7.120   0.795  21.758  0.2791  0.2420  0.1384
27900W        W46647  31.337  10.092  13.048 -0.0692  0.1711 -0.0439
27901W        W46648   7.819   9.977   3.343  0.2209 -0.0854 -0.0022
27902W        W46649  32.489  14.860  17.087 -0.1554 -0.0740 -0.1575
27903W        W46650  31.815   3.252  19.055  0.3858 -0.2277  0.2274
27904W        W46651   7.483  15.067  19.341  0.0709 -0.1778 -0.4233
27905W        W46652  29.220  19.231   6.323  0.0193 -0.0821  0.1865
27906W        W46653  18.534  16.747  18.765 -0.0417 -0.1107 -0.0361
27907W        W46654   3.547  31.617  23.906  0.0991 -0.1690  0.0911
27908W        W46655  29.505  23.172  13.192  0.2780  0.2918 -0.0014
27909W        W46656  10.960  32.373   8.604  0.0049  0.3084 -0.1314
27910W        W46657  28.209  11.972  15.850  0.0468 -0.1421 -0.0709
27911W        W46658   6.026  23.687  25.265 -0.0701 -0.0083 -0.0717
27912W        W46659  12.539  19.029  14.022  0.1732 -0.1060  0.0501
27913W        W46660  22.660  23.064  23.235 -0.1253  0.1475 -0.1362
27914W        W46661  14.951  13.455   9.692  0.2207  0.1011 -0.0854
27915W        W46662  26.012   1.231  13.835  0.1900  0.1626 -0.0395
27916W        W46663  20.322  30.068   3.832 -0.2087 -0.0962 -0.1287
27917W        W46664  28.892  23.444  18.252 -0.1407  0.1931 -0.1229
27918W        W46665  13.408   4.317   9.818  0.2097 -0.1514  0.2212
27919W        W46666  32.566  35.277  25.852 -0.2410 -0.1388 -0.1376
27920W        W46667  14.587  16.059  20.134 -0.1788 -0.2823  0.0142
27921W        W46668  21.843  34.370  18.145 -0.1688 -0.0215 -0.0419
27922W        W46669   0.367  28.393   0.333 -0.1599 -0.0861 -0.1312
27923W        W46670   1.204  30.962   0.198 -0.0321 -0.0470 -0.1012
27924W        W46671  25.635   1.925  14.999  0.1128  0.0841  0.0663
27925W        W46672  24.574  31.925  23.244 -0.0715 -0.1652  0.1369
27926W        W46673   7.601  18.305   7.707 -0.1911  0.0636  0.1875
27927W        W46674  21.785   1.839  23.229 -0.0866  0.3720  0.3069
27928W        W46675  34.461  16.139   7.379 -0.2351  0.1959  0.0031
27929W        W46676   0.048   4.671  16.223  0.0806 -0.1687 -0.4263
27930W        W46677  20.416  24.149  25.752  0.0019 -0.0328  0.0830
27931W        W46678  13.836  19.674   5.552 -0.1543 -0.0613 -0.0284
27932W        W46679   9.450  23.690  11.944 -0.1558 -0.0730  0.1002
27933W        W46680  31.939   9.631  23.935 -0.2789 -0.0941  0.1328
27934W        W46681  15.763   2.168  23.687 -0.0165  0.0530  0.0845
27935W        W46682   0.292  21.511  11.776 -0.0726 -0.0932  0.2163
27936W        W46683   7.966   9.947  21.687  0.1154 -0.1198 -0.0580
27937W        W46684  24.668   5.779   6.186  0.0631 -0.3955  0.0560
27938W        W46685  10.077  20.156   9.032  0.1276  0.0221 -0.1951
27939W        W46686   0.029  29.047   0.648  0.0656  0.0300  0.0764
27940W        W46687  15.654  24.165  15.769 -0.2893  0.1038 -0.3120
27941W        W46688  25.357   6.169  21.109 -0.0710  0.2226  0.0635
27942W        W46689  13.800   0.551  22.501  0.2672  0.1667  0.2597
27943W        W46690  23.121   1.468   1.579  0.0013 -0.1480 -0.1343
27944W        W46691  26.736  19.354  15.024  0.1118  0.0914 -0.0751
27945W        W46692  12.660  10.133   2.988 -0.0975 -0.1612 -0.0536
27946W        W46693   0.309  27.876   0.492  0.2251  0.0376  0.2938
27947W        W46694  23.419  26.912  26.166 -0.1218 -0.3051 -0.2378
27948W        W46695  29.538  12.207  12.177 -0.1382 -0.0259 -0.0111
27949W        W46696  19.228  12.103   4.620  0.0853  0.0986 -0.2711
27950W        W46697  27.357   4.819  22.275 -0.0487  0.3953 -0.1369
27951W        W46698  27.633   9.854  12.925  0.0872 -0.0614 -0.0979
27952W        W46699  22.243   4.605   6.850  0.2349 -0.2507 -0.3403
27953W        W46700  25.158  29.361   4.922 -0.0992 -0.0900 -0.3125
27954W        W46701   9.958  21.463  25.182 -0.2427  0.0886 -0.3092
27955W        W46702  24.826  27.108  13.009  0.1422 -0.0604  0.0383
27956W        W46703  16.390  23.554  10.109 -0.0241 -0.2459  0.1244
27957W        W46704   5.742   4.048  22.724 -0.0694  0.1809  0.2717
27958W        W46705  34.582  27.784   3.685  0.3367 -0.3285  0.0346
27959W        W46706  12.747  24.754   2.521 -0.0406  0.1347  0.0860
27960W        W46707  26.561   5.147  26.235  0.0631  0.1642 -0.1144
27961W        W46708  29.972  17.781  21.706  0.0004  0.0135  0.0528
27962W        W46709  17.737  35.374   5.873  0.2338 -0.0037 -0.1489
27963W        W46710   7.791  22.696  23.065  0.4381 -0.1589  0.2137
27964W        W46711   9.288   7.306   0.338  0.0050  0.4623 -0.2026
27965W        W46712  13.406   9.605   9.419  0.1880  0.1277 -0.0893
27966W        W46713   7.394  16.283   5.179  0.2180  0.1772 -0.1095
27967W        W46714  29.620  10.469  24.949  0.2623  0.1756 -0.3037
27968W        W46715  26.792   9.936  16.814  0.1000 -0.0305  0.1737
27969W        W46716  18.925  26.174  22.881 -0.1202 -0.0221  0.1233
27970W        W46717  27.685  28.757  18.301  0.0426  0.2321  0.0642
27971W        W46718   5.510  14.294   0.793 -0.0703 -0.0621 -0.1148
27972W        W46719  28.850   3.820   3.493  0.3709 -0.1557  0.1252
27973W        W46720  23.658   1.669  22.347  0.0358 -0.1388  0.3016
27974W        W46721  24.708  34.402  13.429  0.1052 -0.0874  0.0454
27975W        W46722  32.325   4.248   6.278  0.1086  0.0183  0.3304
27976W        W46723   0.862  28.538  20.767 -0.0185  0.1048 -0.1256
27977W        W46724   8.013  27.239   5.666  0.0523  0.1853  0.2369
27978W        W46725  10.612  20.770   3.202 -0.0967  0.1762 -0.1596
27979W        W46726  30.739  23.135  11.014  0.1526 -0.2360 -0.0267
27980W        W46727  33.007  24.666  21.829  0.1042  0.2092  0.0437
27981W        W46728  18.986  24.425  10.714  0.0653 -0.1578  0.2881
27982W        W46729  16.376  28.859   8.702 -0.1188 -0.0062 -0.0007
27983W        W46730  29.851  33.415  24.991  0.1287 -0.1837 -0.4375
27984W        W46731  31.609   4.146  17.737 -0.0368 -0.0406 -0.0725
27985W        W46732  16.905  22.977  10.072  0.1255 -0.2623 -0.2527
27986W        W46733  15.034   9.682   4.925  0.2790  0.2258  0.0251
27987W        W46734  17.568   4.654  17.481 -0.1032 -0.0434  0.1943
27988W        W46735  27.601   5.354   1.714 -0.1595 -0.3136  0.3199
27989W        W46736   9.325  19.053  11.705  0.1378 -0.0895  0.3871
27990W        W46737   4.420  11.006   8.466  0.0879 -0.1835 -0.0451
27991W        W46738  16.061   6.831   5.852 -0.3217  0.0411  0.1920
27992W        W46739  13.127   5.352  21.945 -0.0365  0.1796  0.1517
27993W        W46740  20.108   4.853   4.746  0.0086  0.0138 -0.0271
27994W        W46741  34.392  10.254  15.332  0.2477 -0.0007 -0.2257
27995W        W46742   1.708  25.698  17.143  0.0835  0.1418 -0.2193
27996W        W46743  18.923  19.571   1.323  0.1383  0.1625  0.0300
27997W        W46744  11.350  15.037   3.983  0.2390 -0.0138 -0.0025
27998W        W46745   8.161  31.398  24.704 -0.0490 -0.0267  0.0949
27999W        W46746   1.179   7.682  26.030 -0.2382 -0.2749 -0.0020
28000W        W46747  33.101  31.532  12.654  0.0094 -0.0106 -0.3455
28001W        W46748  14.260  10.907  23.164 -0.2071 -0.0865 -0.0516
28002W        W46749   1.546  13.210  13.539 -0.0285  0.1078 -0.2088
28003W        W46750  28.103  12.553  23.340 -0.2074  0.0877 -0.0431
28004W        W46751   5.236  15.998  20.629 -0.1545 -0.1899  0.0576
28005W        W46752  30.428  33.805   4.178  0.1354 -0.0422 -0.0322
28006W        W46753   2.374  11.187  16.054 -0.1359 -0.2734  0.3497
28007W        W46754  33.160   4.462   3.299  0.3498  0.4064 -0.2618
28008W        W46755  24.541  25.459  18.306 -0.1421 -0.0629 -0.1286
28009W        W46756  11.955  29.071   8.487  0.0903 -0.1160  0.0019
28010W        W46757  29.807   6.120  26.091 -0.1411  0.0732 -0.1337
28011W        W46758  24.899  10.643  23.119  0.1556 -0.1504 -0.0801
28012W        W46759  12.020  32.421   5.457 -0.0947 -0.1270  0.2218
28013W        W46760   9.618  18.423  21.634  0.0757 -0.0000  0.1444
28014W        W46761  34.717  23.781  17.627  0.0047 -0.1828 -0.1722
28015W        W46762   9.688  30.721  25.884  0.1147  0.0807 -0.1571
28016W        W46763   1.276  12.039   2.725 -0.1978  0.2989  0.0005
28017W        W46764  28.880  18.940  19.029 -0.1087  0.0708 -0.1852
28018W        W46765  10.763   4.588   3.545 -0.0689  0.2090 -0.1867
28019W        W46766  31.046   5.107   2.156  0.1591 -0.2355  0.0038
28020W        W46767  10.213   2.174  21.479 -0.0274 -0.0683  0.1349
28021W        W46768  34.696  17.213  14.471  0.0430  0.1690 -0.1069
28022W        W46769   4.880  22.165  20.528 -0.0900  0.1118 -0.2335
28023W        W46770  15.460   5.372  20.394  0.0651  0.2118  0.3850
28024W        W46771  22.187  28.102  21.674  0.0454 -0.1197 -0.0544
28025W        W46772  27.309  13.886  17.129  0.1438  0.3425 -0.3421
28026W        W46773   2.854  20.131  24.433  0.0878 -0.2455  0.1683
28027W        W46774   9.482  16.201   1.258  0.1844  0.1748  0.0765
28028W        W46775   7.754  13.565   1.913  0.2247  0.0852 -0.2620
28029W        W46776   5.512  16.097   5.209 -0.3642 -0.0625  0.2764
28030W        W46777  11.301  11.493   8.224 -0.0149 -0.3201 -0.1467
28031W        W46778   1.319  27.749   7.924 -0.5540 -0.3004  0.1317
28032W        W46779  17.041   9.580   4.890  0.1784 -0.1327  0.0996
28033W        W46780  14.701  26.113  14.681 -0.1135  0.0954 -0.0695
28034W        W46781  13.127   2.256  24.738  0.2749  0.0577  0.2132
28035W        W46782  16.132  27.974  11.270  0.0198  0.0232  0.1833
28036W        W46783   7.412  13.824  21.834  0.2946 -0.0035  0.0374
28037W        W46784  19.247  10.222   4.110 -0.1024  0.2258 -0.1530
28038W        W46785  33.600  14.142  10.118  0.0640 -0.1606 -0.0631
28039W        W46786   6.524  35.384  23.756  0.1527  0.1800  0.1134
28040W        W46787   9.311  14.917  20.583  0.4155 -0.0717 -0.3040
28041W        W46788  27.370  17.057  17.875  0.1927 -0.0016 -0.2271
28042W        W46789  13.612  27.138  16.502 -0.0502 -0.0533  0.0306
28043W        W46790  20.960   4.745   1.940 -0.1837 -0.1978  0.3441
28044W        W46791   3.210  27.684   1.454 -0.1877  0.2344 -0.2214
28045W        W46792  18.226  30.801   3.763  0.1757 -0.2822 -0.1552
28046W        W46793  33.949  30.618  23.439 -0.1682 -0.0147 -0.1170
28047W        W46794   2.444  17.435  13.193 -0.0573  0.4064 -0.2715
28048W        W46795  29.109  13.264  11.613 -0.0935 -0.0923  0.1029
28049W        W46796  10.421   5.609   2.210  0.0100  0.1015  0.1660
28050W        W46797  34.616  29.411   1.779  0.0281 -0.0306 -0.2594
28051W        W46798  10.416  10.487  11.356  0.2528 -0.0282 -0.2605
28052W        W46799  19.609  11.706  16.882 -0.1523 -0.1611 -0.4787
28053W        W46800  17.414  10.228  20.776  0.0954 -0.2725  0.2057
28054W        W46801  10.878  29.402   0.849 -0.1694 -0.0288  0.0794
28055W        W46802  34.386  11.578  12.820 -0.0304  0.2244  0.1114
28056W        W46803  24.904  12.014  10.930  0.1116 -0.2209  0.2028
28057W        W46804   7.533  33.158   4.013 -0.0320  0.0389 -0.0293
28058W        W46805   0.256  17.394  10.393  0.0331  0.0668 -0.0828
28059W        W46806  19.430  18.466   0.167 -0.2498  0.0043 -0.1174
28060W        W46807  34.045   7.033  24.139  0.0234 -0.0846  0.0755
28061W        W46808  23.165  21.721  15.150  0.1056 -0.2909 -0.0857
28062W        W46809  23.895  24.765  20.539 -0.1295 -0.0009  0.0142
28063W        W46810   6.017  32.272  10.293  0.1946 -0.0302 -0.1807
28064W        W46811  15.526  31.342  11.624  0.4147  0.2243 -0.0117
28065W        W46812  10.116  11.511   6.581 -0.0004  0.3855 -0.1234
28066W        W46813  11.463  11.715  18.920  0.1037 -0.2179 -0.4164
28067W        W46814  14.197  23.118  22.990 -0.0116  0.2653  0.2271
28068W        W46815  34.488   8.156  17.833 -0.2266  0.3799  0.3798
28069W        W46816  20.828   6.000   3.432 -0.1540  0.2867 -0.0949
28070W        W46817  17.168  14.514  12.003 -0.2917  0.0124 -0.0376
28071W        W46818   0.492  26.399  25.109  0.0470  0.0518  0.0781
28072W        W46819  12.195   2.964  12.574 -0.1384  0.2414  0.0540
28073W        W46820  13.401   8.763   7.374 -0.2256 -0.0473  0.1292
28074W        W46821  12.301  14.863  21.079  0.0678  0.1426  0.1467
28075W        W46822  32.559  25.868  24.985 -0.0810 -0.3209 -0.0017
28076W        W46823  24.451  16.664  17.978 -0.2230  0.1235 -0.0099
28077W        W46824   8.585  33.258  25.887  0.2340  0.2033  0.1868
28078W        W46825  26.728   3.469   0.631 -0.3206  0.0717  0.0712
28079W        W46826   5.778  34.374   8.162  0.1753 -0.1022  0.0863
28080W        W46827   9.474   6.347  13.583 -0.0979  0.1561 -0.0081
28081W        W46828   2.813  19.252  24.168  0.2651  0.0614 -0.2614
28082W        W46829   7.950  22.773  14.053 -0.2224  0.1325 -0.0641
28083W        W46830  27.630   9.426  16.567  0.1054 -0.1823  0.1656
28084W        W46831  16.067  12.299   5.647 -0.1449 -0.1018 -0.4434
28085W        W46832  34.485  27.731  24.595  0.1391 -0.0797  0.0256
28086W        W46833  21.191  20.994  21.033 -0.1770 -0.1284  0.1624
28087W        W46834  20.477  11.886   6.098 -0.0200 -0.5299  0.1152
28088W        W46835  25.643   8.089   3.427 -0.1423  0.0930 -0.0315
28089W        W46836  31.509  17.627  12.709 -0.0121 -0.0420 -0.2494
28090W        W46837  11.391  19.185   5.567  0.0444 -0.1745  0.2416
28091W        W46838  21.923  30.279  22.492 -0.1282  0.1856  0.0690
28092W        W46839   2.955  34.228  17.526 -0.3028  0.0764 -0.0964
28093W        W46840  26.435   1.299  18.035 -0.1303 -0.2035  0.0773
28094W        W46841  20.417  26.244   2.546 -0.0922  0.1620 -0.1309
28095W        W46842  27.941  15.479  11.156 -0.0944  0.1945  0.3045
28096W        W46843  11.306   5.935  25.485 -0.1924  0.2319  0.4998
28097W        W46844   1.662  32.623   2.570  0.2621  0.0339  0.0746
28098W        W46845  10.507  29.795  12.236  0.2280  0.1672  0.0514
28099W        W46846  34.019   1.933  16.896  0.1489  0.2214  0.2799
28100W        W46847   5.556  10.080  17.336 -0.1332 -0.0382 -0.0747
28101W        W46848  18.299   9.245  22.080  0.2344 -0.3694  0.1957
28102W        W46849   6.520  26.301   7.794  0.0096  0.0514 -0.1332
28103W        W46850  10.690  18.290  20.344  0.2853  0.0626 -0.0113
28104W        W46851   2.673   6.893   6.059  0.0572  0.2324 -0.2389
28105W        W46852  18.753   2.426  20.752 -0.1282  0.0657  0.1597
28106W        W46853  12.024   6.578   0.380 -0.1481 -0.1027  0.0588
28107W        W46854  23.328   5.263   4.055 -0.2628 -0.0424  0.0444
28108W        W46855  22.006  31.299  18.948 -0.1370 -0.2162 -0.1222
28109W        W46856  31.771   3.803   3.571  0.0601  0.1630  0.1560
28110W        W46857  16.733   3.482   9.684  0.1242  0.1592  0.3832
28111W        W46858   8.062   9.855  24.054 -0.1788 -0.0395 -0.1210
28112W        W46859  20.121   3.039  20.002 -0.3810  0.0937  0.0502
28113W        W46860   4.914  29.977  13.125 -0.0329  0.1395 -0.4124
28114W        W46861   1.528   8.707   1.781  0.3300  0.3624  0.1345
28115W        W46862  33.594   6.862  16.805  0.0041  0.1604  0.2377
28116W        W46863  17.592   0.055  26.127 -0.2025 -0.1769 -0.0969
28117W        W46864  30.374  31.597  12.420  0.0713 -0.1748 -0.0395
28118W        W46865   1.385   7.694  13.466 -0.0174 -0.0257  0.4177
28119W        W46866   8.614  27.545  11.144  0.3231 -0.0718  0.4982
28120W        W46867  13.540   6.324  24.625  0.0220 -0.2624 -0.5386
28121W        W46868   5.450  26.572   9.253  0.3205  0.2678 -0.3501
28122W        W46869  30.323  21.850  14.656 -0.2532  0.2002  0.0399
28123W        W46870  12.644  25.807  11.290 -0.1972  0.1461 -0.2815
28124W        W46871  22.323  30.254   4.458  0.0051  0.1386  0.0727
28125W        W46872   0.009  32.170   7.630 -0.0360 -0.0088 -0.0004
28126W        W46873  34.134  16.670   8.758 -0.2949  0.2009  0.0177
28127W        W46874  23.853  23.449  13.033  0.0834 -0.1141 -0.0502
28128W        W46875  28.336   4.262  25.787 -0.1828 -0.0484 -0.0015
28129W        W46876  11.299   3.420  22.433  0.2138  0.0728  0.0043
28130W        W46877  13.141   4.181   3.416 -0.2260 -0.0165  0.2502
28131W        W46878  26.910   8.697  23.002 -0.0473 -0.0209  0.1905
28132W        W46879  11.105  34.588   2.362  0.0768 -0.0321  0.0549
28133W        W46880  10.938  34.401   8.994 -0.1793  0.0207  0.1085
28134W        W46881   1.680  15.987  16.364  0.1284 -0.2020 -0.1515
28135W        W46882  13.062  14.293   7.991 -0.1245  0.2167  0.2192
28136W        W46883  22.145   9.328   3.802  0.2499 -0.3878 -0.1012
28137W        W46884  17.252  12.460   8.179  0.0332 -0.0321 -0.0845
28138W        W46885  29.494   7.392  16.786  0.0382 -0.1789 -0.1285
28139W        W46886   2.255   4.907  15.506  0.2132 -0.1080  0.3333
28140W        W46887  32.669   5.642  15.203  0.0754  0.0627 -0.0188
28141W        W46888  14.481   4.010   3.391  0.3645  0.2284  0.2972
28142W        W46889  28.828   2.629  16.610  0.1303  0.2058  0.1789
28143W        W46890  20.607  35.020   5.939  0.0506  0.0667  0.1078
28144W        W46891   6.947   6.496  20.750 -0.1921 -0.3445  0.1980
28145W        W46892  17.805   4.830  18.372 -0.2751 -0.0059  0.2991
28146W        W46893   0.829   4.588  16.262  0.0285  0.2158  0.0616
28147W        W46894  26.814  26.051  11.650  0.2153  0.0889  0.1374
28148W        W46895  22.092   2.060  17.028  0.3139 -0.1415 -0.4555
28149W        W46896  18.165  16.005   5.899  0.3065  0.2086  0.3186
28150W        W46897   4.276  21.298  23.689 -0.0285 -0.0873  0.0049
28151W        W46898   2.562  25.446   2.434  0.0029  0.1146  0.1424
28152W        W46899  21.992   8.439   2.204  0.0627 -0.1674 -0.0916
28153W        W46900  25.490   3.303  15.341  0.1074 -0.0745  0.1165
28154W        W46901   0.993  14.668   0.973 -0.0489  0.0596 -0.0403
28155W        W46902  11.387   0.730  14.215 -0.0208  0.0280  0.2164
28156W        W46903   0.436  16.749  15.314  0.0271  0.0464  0.3453
28157W        W46904   6.400   2.964   4.712  0.0729  0.0437  0.2380
28158W        W46905  16.894   8.049   7.177  0.1918 -0.0472  0.0545
28159W        W46906  25.680  19.629  23.673  0.0147 -0.0808 -0.0969
28160W        W46907  11.962  27.925  26.025 -0.1046  0.2960  0.0274
28161W        W46908  21.103  22.186   3.586 -0.2247 -0.2205  0.0696
28162W        W46909  16.973  15.857   7.253 -0.1756  0.0632 -0.1283
28163W        W46910   0.816   5.746   1.359 -0.1107  0.0270 -0.0895
28164W        W46911  20.618  24.722   3.646  0.0592  0.1097  0.1291
28165W        W46912  31.547   7.013  25.988  0.2267  0.1207 -0.1388
28166W        W46913  22.018  19.941  23.045  0.1202  0.0797  0.0720
28167W        W46914  19.531   7.866  20.374 -0.0928  0.1117 -0.0471
28168W        W46915  10.642  20.306   8.317 -0.1030  0.2879  0.0425
28169W        W46916  22.562   1.538   5.724 -0.1182  0.0513 -0.2843
28170W        W46917  15.679  13.263   2.258 -0.1426 -0.1271 -0.1334
28171W        W46918  27.561   5.268  18.768 -0.3342  0.0390 -0.1429
28172W        W46919  23.175  30.558   1.778 -0.2596  0.0365  0.0584
28173W        W46920  23.635  23.742  20.058  0.2228 -0.2037  0.0835
28174W        W46921  17.738  20.020  21.285 -0.1848  0.0399  0.1820
28175W        W46922   9.113   7.692  26.138 -0.2290  0.2654  0.3283
28176W        W46923   4.266  32.080  26.240 -0.0611 -0.0279 -0.0602
28177W        W46924  13.260   2.659   5.319 -0.1806  0.0718 -0.1176
28178W        W46925  20.057  29.067  16.205  0.5273 -0.1222 -0.0145
28179W        W46926  29.978  34.101  21.424 -0.0264 -0.1758 -0.0296
28180W        W46927  17.635  18.605   7.874  0.4594 -0.0618 -0.2186
28181W        W46928   2.654   5.314  18.314  0.1883  0.1159 -0.3208
28182W        W46929  16.138   3.454  17.827  0.0270  0.2719  0.0158
28183W        W46930  26.288  19.584  18.982  0.1992  0.1322  0.0310
28184W        W46931  32.569   3.567   1.151 -0.0257 -0.0441  0.0669
28185W        W46932  23.468  25.749  22.100 -0.0373  0.0701 -0.2813
28186W        W46933   2.869  22.427  23.703 -0.0044  0.0367  0.0832
28187W        W46934   3.090  30.399   5.488 -0.1655  0.2102  0.1018
28188W        W46935  12.114   3.312   0.201 -0.0895 -0.3992  0.0551
28189W        W46936   8.981  21.828  22.048  0.0803  0.2903 -0.1512
28190W        W46937   9.745  33.291   9.541 -0.1145 -0.0214 -0.1610
28191W        W46938   6.397   5.576  20.933  0.0314  0.0093 -0.1756
28192W        W46939  27.576  29.825  25.503  0.0787 -0.0302  0.0442
28193W        W46940  15.693  28.102  13.115  0.2804 -0.2086  0.0377
28194W        W46941  29.487  32.041   4.827  0.2291 -0.2209  0.0997
28195W        W46942  28.793   5.138   3.903 -0.2172 -0.1264  0.1647
28196W        W46943  25.974  20.986  21.431 -0.2628 -0.2160 -0.0072
28197W        W46944  29.379  11.323   9.125  0.0628  0.0446 -0.2732
28198W        W46945   3.313   9.314  24.925  0.1320  0.0186 -0.4608
28199W        W46946  13.596   2.630   4.901 -0.0228  0.4222 -0.1329
28200W        W46947  29.259   7.480  21.098  0.0961 -0.2817  0.3968
28201W        W46948  27.508   4.451  25.203  0.0348 -0.0257 -0.0493
28202W        W46949   3.624   5.361  22.086 -0.1695  0.1757  0.4112
28203W        W46950   6.299   4.331  22.021 -0.0050 -0.0081  0.0202
28204W        W46951   0.146  12.146  25.417 -0.0057  0.0760  0.3244
28205W        W46952  11.743   2.847   7.335 -0.0062  0.0531 -0.1532
28206W        W46953  16.415  16.313   8.853 -0.1526 -0.2652  0.1634
28207W        W46954   3.782  16.528  17.788  0.0947  0.0122  0.1064
28208W        W46955  24.960  30.759   1.859  0.1649  0.1220 -0.0017
28209W        W46956  16.842  21.721  22.124  0.0616 -0.2795 -0.1525
28210W        W46957  19.450  31.991  25.248  0.0021  0.0653 -0.1940
28211W        W46958   2.314   0.405   0.139  0.2312  0.1097 -0.1396
28212W        W46959  15.937  30.303   2.349 -0.0352 -0.1769 -0.0365
28213W        W46960   2.819  18.509  18.344 -0.2086  0.1455  0.0441
28214W        W46961  11.459  19.633  10.338 -0.0423  0.1014  0.1249
28215W        W46962  16.264  30.914  23.281 -0.1837 -0.1570 -0.4769
28216W        W46963   3.400   4.158   3.202  0.0199  0.1655 -0.1072
28217W        W46964  11.277   0.341  25.550  0.2882  0.1382 -0.1449
28218W        W46965  21.437  20.156   5.544 -0.1092  0.3130 -0.5056
28219W        W46966  29.190   6.093  25.133 -0.0854  0.1810 -0.0012
28220W        W46967  11.094  27.859  25.259 -0.1610 -0.2072 -0.1086
28221W        W46968  30.673  15.920  21.314 -0.0230 -0.0574  0.1114
28222W        W46969  22.512  17.776  15.868 -0.1257 -0.1585 -0.1529
28223W        W46970  24.349   4.899   5.795  0.0406 -0.1117  0.1526
28224W        W46971  27.143  10.011  23.205  0.0692  0.0686  0.0132
28225W        W46972   5.201  31.012  22.485 -0.0753  0.0814  0.2784
28226W        W46973  33.369  19.571  14.583  0.3129  0.1301 -0.0099
28227W        W46974  12.716  22.809  15.195 -0.0359 -0.2287 -0.0346
28228W        W46975  35.326  30.319  18.393 -0.0664  0.2036  0.2741
28229W        W46976   6.955  10.312   8.140  0.4159  0.0340  0.2668
28230W        W46977  24.827   4.411   3.242 -0.2030  0.0929  0.1930
28231W        W46978  33.563  32.162  17.904 -0.3982  0.1467 -0.0824
28232W        W46979  19.115  32.958   0.304 -0.1811  0.1421  0.1597
28233W        W46980  21.624  32.354   5.296 -0.4753 -0.0070  0.3219
28234W        W46981  28.062   7.179  26.073 -0.1125 -0.0585 -0.0195
28235W        W46982  32.854  27.684  18.617 -0.1865  0.0855  0.2882
28236W        W46983  17.565  12.726  11.395 -0.1476  0.0426  0.0319
28237W        W46984  14.693   3.489  26.188  0.0267  0.1029  0.1730
28238W        W46985  25.486  26.865  12.751  0.2021 -0.0922 -0.1095
28239W        W46986  19.875  18.898   7.201 -0.0624  0.0385  0.1677
28240W        W46987  22.104  32.307   5.125  0.0570 -0.2517  0.1885
28241W        W46988  20.284  23.144  21.837  0.2315  0.1038 -0.1823
28242W        W46989  23.112  32.054   2.134  0.1530  0.0404 -0.0211
28243W        W46990  18.615  26.785   3.667 -0.1707 -0.0671 -0.3546
28244W        W46991  32.767  30.660  18.437  0.1996  0.2431  0.1428
28245W        W46992  13.087  19.500   5.421  0.3506  0.0912  0.1116
28246W        W46993   5.649  34.174   5.105 -0.0541  0.3566  0.0685
28247W        W46994  31.384  23.118  25.919 -0.0249  0.0590  0.2518
28248W        W46995   6.034   4.755   1.056 -0.1253  0.0497 -0.0015
28249W        W46996  19.476   1.642   3.863  0.0278 -0.0672 -0.3782
28250W        W46997  23.170  29.956  19.039 -0.2015 -0.0543  0.1236
28251W        W46998  13.158   5.479   8.376 -0.0540 -0.0314 -0.2189
28252W        W46999  23.296  17.547   0.813  0.1719 -0.0607  0.0972
28253W        W47000  24.616  15.751  18.984  0.0532 -0.0470 -0.1841
28254W        W47001  18.230   0.143   5.171 -0.2431  0.0472  0.1208
28255W        W47002  32.933  34.017  17.352  0.0945  0.2929  0.1116
28256W        W47003  26.082  13.517  15.602 -0.0116 -0.0470  0.2110
28257W        W47004   3.307  17.930  13.473  0.0546  0.0057 -0.1282
28258W        W47005  28.926  23.593   9.781 -0.1523 -0.2562 -0.2482
28259W        W47006  18.480  16.353   4.435  0.3875 -0.1727 -0.2913
28260W        W47007  11.444  31.659  23.782  0.0000 -0.0266  0.2333
28261W        W47008   8.861  25.477   8.535  0.2247  0.3470 -0.0974
28262W        W47009  19.700   6.026  20.352  0.3357  0.0616 -0.2462
28263W        W47010  11.149  25.618  16.752 -0.2672  0.0319 -0.0822
28264W        W47011  18.828  14.976  20.679 -0.2083  0.1320 -0.0305
28265W        W47012   6.502  22.090  23.082  0.1958  0.0743 -0.2528
28266W        W47013  27.011  33.827  22.233  0.2119  0.2204  0.0281
28267W        W47014  21.453  15.755  25.547  0.1273  0.2240  0.0874
28268W        W47015   5.106   2.037  22.309 -0.1590  0.0451  0.1602
28269W        W47016   5.838  28.166   3.181 -0.1730  0.1780  0.2399
28270W        W47017  12.098  34.150   1.422  0.0936  0.1738 -0.2625
28271W        W47018  15.864  20.943  23.755 -0.0552 -0.0943 -0.0667
28272W        W47019  18.616   5.203  23.986  0.0478  0.1222 -0.1213
28273W        W47020  18.972   4.864   7.367  0.2328 -0.1561  0.3461
28274W        W47021  24.660  20.738  24.728  0.0334  0.0331  0.1379
28275W        W47022  11.114  26.690  22.329  0.0231 -0.2930 -0.1170
28276W        W47023  23.221  20.459  16.426 -0.1430 -0.2420  0.0554
28277W        W47024  33.824  32.509   6.360  0.1821 -0.0976 -0.0383
28278W        W47025  24.589  22.190  19.527  0.0918 -0.0661 -0.3665
28279W        W47026   7.751  34.027   7.313 -0.2425 -0.0696 -0.0413
28280W        W47027  21.315  27.870  19.582 -0.0643 -0.2004  0.1853
28281W        W47028  12.435   2.785   4.167 -0.4026  0.0621  0.0507
28282W        W47029  10.489   4.079   2.099  0.1837 -0.0869 -0.0342
28283W        W47030  33.407   0.936   4.841  0.1532  0.2417 -0.0631
28284W        W47031  34.532   3.119  13.374 -0.2146  0.1477  0.5445
28285W        W47032  14.915   5.545   0.579  0.0030  0.3850 -0.1166
28286W        W47033  14.118  10.155   8.401  0.4009 -0.1534  0.0974
28287W        W47034   2.097  16.557  17.914 -0.1417  0.2337 -0.2438
28288W        W47035   3.789   4.445  26.190  0.0624 -0.0784 -0.1966
28289W        W47036  26.524  25.840  18.312 -0.2057 -0.1535 -0.2324
28290W        W47037  20.595  34.852   4.394 -0.2010  0.1390 -0.1623
28291W        W47038   4.472  27.204   7.447  0.1306 -0.0661  0.0903
28292W        W47039  31.496  20.886  16.940 -0.2461  0.1346  0.1183
28293W        W47040  25.340  24.672  11.653 -0.1452  0.2191  0.3168
28294W        W47041  10.282  22.645   0.567 -0.1768 -0.2054 -0.2350
28295W        W47042  12.689   5.999   3.572 -0.3674  0.0753 -0.1897
28296W        W47043  13.353   8.088   7.099  0.1086 -0.0256  0.2014
28297W        W47044  20.379  33.106   6.268 -0.0036  0.1477  0.1958
28298W        W47045   4.013   0.316   7.367  0.1237 -0.1867  0.2422
28299W        W47046  34.086  22.031  25.708 -0.2267  0.0065 -0.0054
28300W        W47047  12.661   7.261   8.832 -0.2416 -0.2195 -0.2093
28301W        W47048  18.892   9.194   2.914  0.4426  0.3104  0.1448
28302W        W47049  32.944   9.973  25.739  0.2785  0.2350  0.0568
28303W        W47050  34.676  31.463   0.620 -0.0674  0.2470  0.0608
28304W        W47051  33.442  10.759   7.398 -0.0555 -0.1781 -0.0562
28305W        W47052  30.477  24.099  17.660  0.1257  0.1023 -0.0386
28306W        W47053  13.244  29.150   1.631 -0.0681  0.1232  0.0034
28307W        W47054  16.525   6.145   9.692 -0.1003 -0.3173 -0.2711
28308W        W47055  15.806  19.332   3.654 -0.0816 -0.0907  0.1160
28309W        W47056  29.361  10.896  16.356  0.2506 -0.2351  0.1862
28310W        W47057  11.246   0.056  20.442 -0.2033 -0.2226 -0.2336
28311W        W47058   9.720  28.935   4.578  0.0138 -0.1342  0.1021
28312W        W47059   2.697  25.977  18.148  0.1159 -0.1252 -0.0923
28313W        W47060  22.949  24.920   0.172 -0.1551  0.1096 -0.0471
28314W        W47061  20.658  13.275  17.873 -0.0282 -0.0643  0.0409
28315W        W47062  33.272  20.336  16.938 -0.0476 -0.1295  0.1833
28316W        W47063  19.759   4.874   5.586 -0.2105 -0.0269  0.0611
28317W        W47064  13.538   4.658  11.754 -0.0648 -0.1353  0.0500
28318W        W47065   8.827   0.854  25.503 -0.2376  0.2088 -0.0041
28319W        W47066  35.281   5.261  14.613 -0.0436  0.2054 -0.0601
28320W        W47067  27.484  18.538   6.015  0.1114  0.0718  0.3785
28321W        W47068  27.833  31.060   4.720  0.2634 -0.1753 -0.2880
28322W        W47069  15.278  10.916   5.752  0.1125  0.1018  0.0700
28323W        W47070   9.179   3.078   6.024 -0.0573  0.1526  0.0085
28324W        W47071  15.496  20.965   8.376 -0.1684 -0.1990  0.3041
28325W        W47072   6.613  21.432   0.083 -0.1529 -0.0138  0.1368
28326W        W47073  25.599  29.224  20.522 -0.0084 -0.1919  0.2656
28327W        W47074  12.428  10.286   1.983  0.0119  0.1687  0.2266
28328W        W47075  19.000   7.615  21.806  0.3653  0.0567  0.0808
28329W        W47076  34.991  31.091   9.026  0.2735  0.2077 -0.1669
28330W        W47077  10.664   1.243   1.840 -0.0708  0.0175 -0.2427
28331W        W47078  30.156  25.961  12.144  0.1829  0.2744 -0.0149
28332W        W47079   9.153  24.375   1.729  0.1170  0.3522  0.0088
28333W        W47080  34.337  26.770  19.033 -0.1237 -0.1622  0.0904
28334W        W47081   0.832  32.446   0.547 -0.2149  0.0769 -0.2586
28335W        W47082  12.896  33.524  13.257 -0.1180  0.0751  0.0847
28336W        W47083  26.929  23.113  16.782  0.1558  0.4181  0.0212
28337W        W47084  28.199  10.350  21.252  0.1689 -0.2623  0.0948
28338W        W47085   8.680  33.124  12.709  0.0900 -0.2503 -0.1201
28339W        W47086  18.006  10.341   9.848  0.0557  0.1484 -0.1542
28340W        W47087  34.627  21.564   9.967 -0.1278  0.0287  0.0983
28341W        W47088  27.292  15.904  19.030  0.0613 -0.2010  0.0381
28342W        W47089  21.102  19.652   1.715 -0.3539 -0.1630 -0.1846
28343W        W47090  10.716  23.175   9.956 -0.0189  0.0326 -0.0324
28344W        W47091   2.478  29.389   2.342 -0.1263 -0.0490 -0.3870
28345W        W47092   7.052  29.521   7.121  0.1238 -0.0966 -0.1957
28346W        W47093   3.768  32.878  25.804 -0.2072 -0.1847  0.1752
28347W        W47094  13.250  19.398  11.280  0.2545  0.2054 -0.1569
28348W        W47095  15.628   7.108   2.257 -0.2191  0.3757 -0.1038
28349W        W47096  24.701  17.962  18.732  0.2450 -0.0594 -0.1558
28350W        W47097  23.467  28.200  13.833  0.1415 -0.1696  0.0858
28351W        W47098   9.579  31.332  20.663  0.2834  0.0111  0.0683
28352W        W47099   6.076   3.886  11.193 -0.1344  0.0972  0.0472
28353W        W47100  21.100  24.764  22.570  0.2539  0.0570  0.3387
28354W        W47101  34.049   0.339  14.221 -0.0408  0.0966 -0.0917
28355W        W47102  25.197  13.014  13.702 -0.1322  0.0815 -0.0270
28356W        W47103  17.179  25.278  25.008 -0.2350  0.0933  0.1108
28357W        W47104  31.670  16.318  12.763 -0.1551  0.1191 -0.1406
28358W        W47105  11.876  28.747  13.714 -0.2950  0.0922 -0.2220
28359W        W47106  23.911   2.553   1.465  0.0754 -0.1765  0.0087
28360W        W47107  30.146  27.396  14.382  0.3958  0.0116  0.2856
28361W        W47108  27.283  16.430  19.885  0.0504 -0.4202 -0.0690
28362W        W47109  26.823  30.063  19.150 -0.1929 -0.1023 -0.2768
28363W        W47110   1.983  25.177   5.577  0.0740 -0.1358  0.0631
28364W        W47111  20.181  19.621   1.379 -0.0754 -0.0970 -0.1562
28365W        W47112  19.112   6.563   7.969 -0.1153 -0.0609  0.0564
28366W        W47113  21.315   0.176  14.548  0.3755 -0.0593  0.2997
28367W        W47114  20.428  23.325   9.609 -0.0616 -0.2369  0.1950
28368W        W47115  23.890   5.555  17.513  0.0212 -0.1026  0.0252
28369W        W47116  34.300   8.593  16.885 -0.1130  0.2731 -0.0939
28370W        W47117  30.725  27.917  22.769  0.1944  0.2569  0.2030
28371W        W47118  30.456  15.007  12.052  0.3386  0.0642  0.3719
28372W        W47119  22.826   8.984  26.159 -0.3090 -0.2800 -0.0354
28373W        W47120  19.480   1.672   7.198 -0.0983 -0.0015 -0.0285
28374W        W47121  14.568  17.210  12.778  0.0497  0.1241 -0.0602
28375W        W47122   7.892   6.723  17.980  0.0372  0.0657  0.1012
28376W        W47123  15.957  17.169   0.711 -0.0752  0.2814 -0.2120
28377W        W47124  25.114   2.069  17.429  0.1101 -0.0216  0.1171
28378W        W47125  11.548  23.251   0.071 -0.1165 -0.3673  0.2816
28379W        W47126   1.819  18.644  18.614 -0.0340  0.1262  0.1661
28380W        W47127  27.043  17.480  17.937 -0.0430 -0.1949  0.1908
28381W        W47128   6.177  33.049  20.271 -0.0201 -0.0872  0.0444
28382W        W47129  23.004  23.910  18.263 -0.0833  0.5466  0.0222
28383W        W47130   8.040   4.831  23.850 -0.0015  0.0411 -0.0337
28384W        W47131  16.150  30.561   1.034 -0.1103  0.0034 -0.0670
28385W        W47132  30.731   4.465  22.976 -0.2005 -0.1263  0.2100
28386W        W47133  11.753   8.082   5.152 -0.1469  0.0468  0.1055
28387W        W47134   2.091  25.825  23.517  0.0465 -0.1731 -0.1827
28388W        W47135  19.646  22.814   9.867  0.3439 -0.1670  0.4899
28389W        W47136  18.363  20.501  23.700 -0.1227 -0.3040  0.3414
28390W        W47137   3.139   7.019  20.657  0.0401 -0.1288 -0.0308
28391W        W47138  24.676  21.697   8.978 -0.1333  0.1782 -0.2106
28392W        W47139   4.011  29.916  20.700 -0.1748 -0.3496 -0.2059
28393W        W47140  12.019   6.775   7.947 -0.0315 -0.3889 -0.1831
28394W        W47141  31.377  24.703  15.451 -0.0016  0.1785 -0.1538
28395W        W47142  22.647   2.431   3.561  0.1230 -0.2184  0.3234
28396W        W47143  17.194  12.445  19.829  0.0171 -0.1203 -0.3809
28397W        W47144  31.573   0.858  19.977  0.4359 -0.0836  0.1068
28398W        W47145   3.000  32.786   2.746 -0.1860  0.1341  0.1204
28399W        W47146  23.681  18.302  21.680  0.1611  0.4916 -0.0381
28400W        W47147   9.615  12.675   5.811 -0.0615  0.2145  0.1516
28401W        W47148  18.433   9.588  25.471  0.0494 -0.1457 -0.1015
28402W        W47149  23.961  32.659   0.721  0.1229 -0.1381 -0.2340
28403W        W47150  27.408  30.194  15.712 -0.0367  0.0183  0.0942
28404W        W47151  20.004  17.521  20.676  0.0014 -0.1004 -0.0573
28405W        W47152  18.175  25.116   0.764 -0.1449 -0.3257  0.1493
28406W        W47153   4.649  29.358   4.701 -0.0298  0.1678 -0.1170
28407W        W47154  22.478  11.263   5.013  0.1164  0.0878  0.0582
28408W        W47155  11.180   0.712   0.941  0.0098  0.1540  0.0527
28409W        W47156  23.440   4.730  24.731  0.3142 -0.1995  0.0335
28410W        W47157   2.255  13.291  26.013  0.3141  0.1169 -0.2297
28411W        W47158  13.227  31.025  21.449 -0.0579 -0.0228 -0.0689
28412W        W47159  18.825  17.056  22.647 -0.0941  0.2220  0.1478
28413W        W47160  14.287  26.061  25.908  0.0329 -0.0637  0.0582
28414W        W47161  23.983  16.499  13.083  0.2054 -0.1739 -0.3569
28415W        W47162  12.335  27.125  11.984  0.4276  0.1361 -0.2695
28416W        W47163  20.962  10.710   0.387 -0.1023  0.0881 -0.1371
28417W        W47164  12.526  26.343   4.143  0.0362  0.0263  0.2888
28418W        W47165  10.949  26.969   0.935 -0.0876  0.0579 -0.1573
28419W        W47166  10.260   9.441  23.695 -0.1421  0.1367 -0.0848
28420W        W47167   8.902   6.134  10.557 -0.3662  0.3151 -0.0520
28421W        W47168   2.581   1.872  24.210 -0.0903  0.0374 -0.0024
28422W        W47169  13.437   3.266  11.957 -0.1825  0.1088  0.3061
28423W        W47170   4.560  22.648  26.113  0.2226  0.1995 -0.0508
28424W        W47171  32.015  29.126  17.048 -0.3252  0.4167 -0.3070
28425W        W47172  14.034  21.716  25.206  0.0471 -0.1289  0.0873
28426W        W47173   6.520  34.953   9.092  0.0175  0.2266  0.0190
28427W        W47174  12.294  11.313  21.879  0.1846  0.0445 -0.0841
28428W        W47175  33.871  32.268  17.575  0.0920  0.0062 -0.2936
28429W        W47176  15.599  25.419  14.955  0.0077 -0.0618 -0.1872
28430W        W47177  12.119   4.897   4.668 -0.0440 -0.0088  0.1626
28431W        W47178   4.655  33.280  22.312  0.1795  0.0624 -0.0716
28432W        W47179  25.303   3.157  16.874 -0.2784  0.0364 -0.0820
28433W        W47180  25.775  25.972  20.972 -0.0871  0.0349 -0.0384
28434W        W47181  13.968   3.611  23.888 -0.0478  0.1920  0.1848
28435W        W47182   9.249  18.131  23.421 -0.0106 -0.0038 -0.1318
28436W        W47183  33.194  26.354  24.282 -0.2854 -0.2082 -0.0669
28437W        W47184  13.812   5.987  13.627  0.0493 -0.0038  0.0163
28438W        W47185  32.723  30.921   3.742 -0.0817 -0.1314  0.1478
28439W        W47186  20.491   4.097   9.490  0.2022  0.1251 -0.0821
28440W        W47187  30.828   3.727  21.821 -0.3767  0.0140 -0.0923
28441W        W47188  22.892  21.486  21.275 -0.1323  0.0140 -0.0944
28442W        W47189  29.209  26.221   0.343  0.0460 -0.0216  0.0699
28443W        W47190   1.593  31.898   8.395 -0.1707 -0.0824  0.0608
28444W        W47191  23.084   4.994  22.492 -0.0122 -0.1002 -0.0428
28445W        W47192  14.606  16.618   9.701  0.4174  0.2330  0.3389
28446W        W47193  28.191   3.394  26.055  0.1122  0.0931  0.2742
28447W        W47194  13.890  14.847  25.527  0.4371  0.1271 -0.0954
28448W        W47195  25.848   2.752   2.168 -0.6020 -0.1405  0.0560
28449W        W47196  21.880  34.115  18.664 -0.2049  0.0032 -0.2052
28450W        W47197  13.687   2.319  19.347 -0.1769 -0.1393  0.0285
28451W        W47198  35.022  15.797  16.393 -0.1144 -0.0695 -0.1529
28452W        W47199  31.988  29.789   5.677 -0.1289  0.3279 -0.0854
28453W        W47200  13.155  14.773  12.929 -0.3454 -0.0854 -0.2460
28454W        W47201  14.583   0.751   5.047  0.1325 -0.0125 -0.1555
28455W        W47202  21.320  30.554  21.461 -0.0113  0.0713 -0.0980
28456W        W47203  33.918  26.040  26.200  0.3064  0.0682  0.1796
28457W        W47204   9.956  35.293  13.361 -0.0066  0.0193 -0.0097
28458W        W47205  25.662   8.299  20.133 -0.3708  0.0948 -0.1087
28459W        W47206  17.374  12.302  19.399  0.0713 -0.0487  0.1198
28460W        W47207  20.817  14.237  16.685  0.4112 -0.0323 -0.2312
28461W        W47208   7.863  28.612   8.156  0.1518  0.1593 -0.4764
28462W        W47209  11.209  31.979   8.969  0.0573  0.1869 -0.1124
28463W        W47210  21.809  12.882  14.588  0.2070  0.1514 -0.0656
28464W        W47211  10.276  23.410  17.667 -0.0031 -0.3350 -0.1780
28465W        W47212  16.828  28.563  12.052 -0.0277  0.0733  0.0416
28466W        W47213   7.791  25.507   8.150 -0.0961  0.0567 -0.1311
28467W        W47214  20.620  31.864  22.822 -0.1886  0.1391 -0.3950
28468W        W47215  10.307  23.273  15.487 -0.4226  0.3588  0.2051
28469W        W47216   9.917  18.250  10.785 -0.0022  0.1668  0.1234
28470W        W47217  12.133   6.092  22.856  0.1128 -0.1005 -0.2042
28471W        W47218  16.031  27.310   4.552  0.0802 -0.1393 -0.0380
28472W        W47219   4.688  16.190  19.075 -0.0881 -0.0107  0.1338
28473W        W47220   3.358  31.136   2.184 -0.1189  0.2744  0.0246
28474W        W47221  12.873  32.111   5.429  0.1522 -0.2124 -0.1258
28475W        W47222  24.455  23.254  13.975  0.1508  0.0200  0.2684
28476W        W47223   0.956  27.537  25.464  0.0705 -0.2214 -0.1697
28477W        W47224  26.634  20.002  12.900 -0.0988  0.1906 -0.1212
28478W        W47225  23.520  31.765  15.796  0.2019 -0.0216  0.0841
28479W        W47226  24.454   0.509   1.752 -0.1202  0.3703 -0.0085
28480W        W47227   5.086  11.329   1.408  0.0602 -0.1219 -0.2387
28481W        W47228  20.744  10.993  25.836 -0.0841 -0.3155  0.1418
28482W        W47229   8.586   1.287  21.779 -0.1511  0.1386  0.0735
28483W        W47230   1.661  24.006  17.876 -0.0245  0.1346  0.2060
28484W        W47231  24.314  12.643   0.866  0.1311 -0.0650 -0.0134
28485W        W47232  22.735   8.447  20.362 -0.2445  0.0928  0.0385
28486W        W47233  17.290  19.516   5.419 -0.4196  0.2160 -0.2216
28487W        W47234   1.119  18.994  22.743  0.2783 -0.0426 -0.1038
28488W        W47235   3.421   2.138   6.741 -0.2823  0.0694  0.0894
28489W        W47236   8.553  29.407   6.302 -0.1959 -0.0473 -0.1588
28490W        W47237  13.523   9.554  22.526 -0.0685 -0.0604  0.1210
28491W        W47238  27.708   5.234   2.192 -0.0117  0.1828  0.0894
28492W        W47239  26.655  22.985  20.209  0.0232 -0.1670  0.0600
28493W        W47240  11.410  15.361   3.438 -0.3462  0.0538  0.1283
28494W        W47241  12.468  18.636   2.529 -0.1864  0.0738  0.0666
28495W        W47242  33.004  17.512  15.237 -0.0580 -0.1157  0.2926
28496W        W47243  27.568  15.968  10.398 -0.1692  0.2733  0.3304
28497W        W47244   1.583  18.601  14.116 -0.1910 -0.3663 -0.3734
28498W        W47245  35.054   4.790   6.537  0.1148 -0.0401  0.2461
28499W        W47246   0.373  29.415  19.404  0.1373 -0.2291 -0.0868
28500W        W47247   0.699  31.709   3.497  0.1567 -0.2046 -0.0741
28501W        W47248   5.857  19.685   1.815 -0.5406 -0.0176  0.1929
28502W        W47249  17.986   4.232  10.214 -0.1385 -0.0803  0.2691
28503W        W47250   8.623  11.484  18.619 -0.0370  0.2335 -0.0310
28504W        W47251  34.131  15.764  22.111 -0.2285  0.1219 -0.3739
28505W        W47252   8.065  28.924   9.072  0.1974  0.1033  0.3607
28506W        W47253  27.333   3.736  24.278  0.1644  0.0392 -0.2456
28507W        W47254   7.715   7.960  25.063 -0.1380  0.1549  0.1031
28508W        W47255  27.993   1.764  19.511  0.0312  0.2740  0.2817
28509W        W47256  16.906   0.258   4.031 -0.1857  0.2307 -0.0098
28510W        W47257   1.356   4.425  19.098 -0.2936 -0.1770 -0.0390
28511W        W47258   4.163  32.295   2.488  0.0373  0.1390  0.0978
28512W        W47259  27.666  13.160  12.921  0.0580 -0.0053  0.3460
28513W        W47260  10.376  11.299  20.880  0.0135 -0.2304 -0.1158
28514W        W47261  23.248   7.564  20.751 -0.0906  0.0335  0.6704
28515W        W47262   3.833   7.497   9.170  0.0996 -0.0104  0.0906
28516W        W47263  25.147  11.631  18.890 -0.0300  0.2621  0.1090
28517W        W47264  13.337  18.438  24.516 -0.3340  0.6152  0.1389
28518W        W47265  15.382  22.720  25.211 -0.0639 -0.1283 -0.0414
28519W        W47266  12.907  27.167   8.266  0.0516 -0.0238  0.1262
28520W        W47267  11.954   2.758   4.832 -0.0247  0.0138 -0.2324
28521W        W47268  19.196  13.115   1.838 -0.1945 -0.1516  0.0326
28522W        W47269  31.545  13.868  21.927  0.0034  0.0732 -0.0113
28523W        W47270  16.384   4.060  10.631 -0.6103 -0.1058 -0.3841
28524W        W47271  22.631  11.743   4.308 -0.2507 -0.2442  0.0660
28525W        W47272  24.241  35.187  11.919 -0.4080  0.2322  0.0825
28526W        W47273   1.783   4.836  19.467  0.4623 -0.0062  0.2515
28527W        W47274   3.389   5.526   5.351 -0.0731 -0.2086  0.0810
28528W        W47275   0.289   6.430   5.244 -0.4898  0.4454  0.2154
28529W        W47276  17.150  30.139   2.452  0.3110  0.0031  0.2540
28530W        W47277  14.323  31.829   6.805 -0.3927  0.0368  0.3493
28531W        W47278  31.103  20.828   4.706 -0.0164 -0.0449 -0.0221
28532W        W47279   7.681  13.753   9.021 -0.1222  0.0810  0.1330
28533W        W47280  33.050   5.200  17.132 -0.0265 -0.2993  0.0311
28534W        W47281  15.880   7.465  24.612  0.0597 -0.1498  0.1282
28535W        W47282   7.170   4.856  23.659  0.2823 -0.0684 -0.2361
28536W        W47283  32.409  20.801  17.912  0.0449  0.0245  0.0090
28537W        W47284   8.734  26.217   2.474 -0.1927 -0.2430  0.1802
28538W        W47285  10.077  16.918  19.653 -0.2292 -0.0749 -0.0508
28539W        W47286  10.511   2.313   7.762 -0.1155  0.0518 -0.4356
28540W        W47287   9.539  35.061  25.537 -0.1116  0.1221 -0.0584
28541W        W47288  24.289  21.199  21.943 -0.1688 -0.1993 -0.4080
28542W        W47289  27.155   7.744  12.407 -0.2367 -0.2674 -0.1338
28543W        W47290  29.745  12.864  16.772  0.3925 -0.3345  0.4704
28544W        W47291  14.118  13.064   7.084 -0.3652  0.1457 -0.2870
28545W        W47292   2.629  34.000   5.956 -0.2714  0.2815 -0.0783
28546W        W47293  15.206  21.327  13.496 -0.0766  0.3328 -0.1633
28547W        W47294   9.828   5.339  25.732  0.0565  0.1977 -0.2561
28548W        W47295  19.150  32.301  22.262 -0.0819 -0.0442  0.1621
28549W        W47296   6.254   9.049   2.164 -0.0634 -0.0294 -0.0120
28550W        W47297  22.209   3.993  20.485 -0.2879  0.3492 -0.0242
28551W        W47298   2.620  30.176  24.938  0.2657 -0.0438 -0.0148
28552W        W47299   8.220   5.686  10.250  0.0584  0.4855  0.1370
28553W        W47300  11.144   3.048   7.795 -0.0857  0.0908  0.3730
28554W        W47301   2.159  27.364  17.355  0.0680  0.0956 -0.2575
28555W        W47302  28.170  30.690  23.637 -0.0482 -0.0077 -0.0737
28556W        W47303   8.227   1.209  14.636 -0.2777 -0.2453 -0.3323
28557W        W47304  30.781   3.924  14.060 -0.1897  0.1927 -0.0193
28558W        W47305  24.626  17.082   8.955  0.1685  0.1342 -0.0613
28559W        W47306  14.448  28.612  13.417 -0.1208 -0.1123 -0.0512
28560W        W47307   2.404  15.477   0.822 -0.3390 -0.0651  0.2866
28561W        W47308  32.590   3.713   5.177  0.2258 -0.1389 -0.0646
28562W        W47309  20.115   8.554   0.178 -0.2097  0.1658 -0.0053
28563W        W47310  15.376  29.149  25.952  0.1884 -0.0223  0.1610
28564W        W47311  32.431   0.218  21.963  0.0427  0.2904  0.0300
28565W        W47312  29.159  22.077  24.808  0.2916 -0.1345 -0.0727
28566W        W47313  33.227  24.014  24.899 -0.1479 -0.1607  0.4884
28567W        W47314   2.364   6.878  20.634  0.2001  0.1593 -0.3216
28568W        W47315   4.289  10.817  22.900  0.0639 -0.0314 -0.0970
28569W        W47316   3.729   7.547   6.405  0.0106 -0.1327  0.2038
28570W        W47317   5.003  14.598  20.552 -0.2236 -0.2010 -0.2393
28571W        W47318  16.443  20.712   0.104 -0.0111  0.3879 -0.1764
28572W        W47319  23.796  28.205  11.376  0.1403  0.1602  0.1666
28573W        W47320  31.684  22.253  22.882 -0.1834  0.0417 -0.0106
28574W        W47321  13.526  34.108   4.930  0.1073  0.2073  0.1077
28575W        W47322  27.846  29.471  21.336  0.0362 -0.0264 -0.1086
28576W        W47323  16.217  15.664   9.907  0.0504 -0.0478 -0.0696
28577W        W47324  33.432  31.361   2.486  0.1355  0.1825 -0.0864
28578W        W47325  19.949  32.247  18.516  0.2628  0.0897 -0.1318
28579W        W47326   0.038   9.671  25.573 -0.1925  0.0979 -0.2145
28580W        W47327  10.317   9.633   4.208 -0.1797 -0.2022  0.0827
28581W        W47328  34.631   0.779  22.414 -0.1142  0.0769 -0.2033
28582W        W47329   7.423   9.760  20.057 -0.1500 -0.2985  0.1893
28583W        W47330  28.588  26.713   1.293  0.0208  0.1454  0.1414
28584W        W47331  30.146  25.639  11.664  0.2388  0.2513  0.0007
28585W        W47332  29.886  32.415  10.865  0.0193  0.0952 -0.0110
28586W        W47333   8.158  15.357  20.674 -0.1864  0.2144  0.0674
28587W        W47334   6.006  30.790  12.452 -0.2158 -0.2282 -0.0339
28588W        W47335  12.074  18.319   1.937  0.0776 -0.0502  0.0101
28589W        W47336  34.285  16.083  12.468  0.1790 -0.0068 -0.0559
28590W        W47337  15.979  26.575  26.062 -0.2233  0.0683 -0.0577
28591W        W47338  19.071  13.779  20.672 -0.1815 -0.0014  0.0812
28592W        W47339  13.432  34.161  24.839  0.3941 -0.1115 -0.1532
28593W        W47340  11.817  18.576   2.899  0.0490 -0.0088  0.0653
28594W        W47341  19.724  13.331  18.933  0.2784  0.0404  0.0324
28595W        W47342  23.097  32.703  13.446  0.2080 -0.2783 -0.2151
28596W        W47343  28.234   2.437  21.847 -0.3097 -0.0927  0.2640
28597W        W47344  11.250  28.796  22.139 -0.2637 -0.0144  0.0189
28598W        W47345  30.438  18.547  23.946  0.1720  0.2051 -0.3054
28599W        W47346  23.934  25.048  21.007  0.0980 -0.0638 -0.2279
28600W        W47347  14.214  19.370   5.413  0.3698  0.0638  0.1120
28601W        W47348  10.150   0.143   6.877  0.0009  0.1544  0.1008
28602W        W47349   9.105   2.591   8.747 -0.0301  0.0507  0.2196
28603W        W47350  12.506  31.530  21.659  0.0953 -0.0902 -0.3639
28604W        W47351  21.481   6.448   4.044 -0.0431  0.1983 -0.1508
28605W        W47352  31.465  28.720  14.814 -0.1923 -0.4648  0.0238
28606W        W47353   9.778   3.150  21.028  0.2990 -0.1542  0.0393
28607W        W47354  34.272  13.229  22.374  0.1575  0.2171 -0.2205
28608W        W47355   5.630  21.038   3.914 -0.0642  0.0740  0.0160
28609W        W47356  11.750  32.534  10.245 -0.2902 -0.0237  0.1633
28610W        W47357  16.275  16.905  21.487  0.2560  0.0900 -0.0222
28611W        W47358  31.090  32.879  25.397  0.0807 -0.0002  0.1765
28612W        W47359  34.398  18.887  13.905  0.1026  0.5270 -0.2029
28613W        W47360  34.818   7.330  21.301  0.0007 -0.1155 -0.0358
28614W        W47361  34.736  12.052  24.240 -0.0123  0.0677 -0.1349
28615W        W47362   5.198  15.937   3.992  0.3466  0.2145 -0.3512
28616W        W47363  13.332  34.858   0.321  0.1459 -0.0029  0.1022
28617W        W47364  22.189  23.717  25.910 -0.0397 -0.0936  0.0822
28618W        W47365  17.329   8.152   6.997  0.0721 -0.0560 -0.1191
28619W        W47366  27.157  22.745  12.582  0.1340  0.1710  0.1499
28620W        W47367  11.569   0.025  10.577 -0.2354 -0.1994  0.1485
28621W        W47368  16.977  22.812  11.031  0.0531  0.1490 -0.1091
28622W        W47369  14.318  30.967   8.680  0.0761 -0.2584  0.0694
28623W        W47370  13.564  21.749   6.902 -0.2000  0.0547 -0.3925
28624W        W47371  34.933  34.293  17.371  0.2070 -0.0695  0.1180
28625W        W47372  10.351  14.284  12.993  0.1852 -0.2971 -0.3592
28626W        W47373  12.896   8.046   7.120  0.1288  0.1501 -0.0025
28627W        W47374   2.910  26.374  23.157 -0.1567  0.1150 -0.3136
28628W        W47375  18.935   0.221  19.098  0.0931  0.0840  0.0887
28629W        W47376  13.523   2.261  24.370  0.2322 -0.2834 -0.1789
28630W        W47377   8.226   3.353  13.342  0.3230 -0.0028  0.0558
28631W        W47378  28.450   6.485   1.250  0.1297 -0.0697 -0.0834
28632W        W47379  19.828   7.183  24.146  0.1118 -0.1103 -0.0059
28633W        W47380   1.569  18.987  23.033 -0.3852 -0.0593  0.1337
28634W        W47381   2.144   9.786  19.960 -0.1126 -0.3907  0.1043
28635W        W47382  16.948  27.207  21.585  0.3282  0.0165  0.2962
28636W        W47383  10.328   8.129  24.967 -0.0390 -0.1961 -0.0221
28637W        W47384  27.381  14.349  23.266 -0.1389 -0.1917  0.0214
28638W        W47385  22.419   0.502  23.241 -0.1647  0.0034 -0.1111
28639W        W47386  23.741  10.025  16.575  0.1354  0.4225  0.2287
28640W        W47387  31.254  25.058  13.631 -0.0169 -0.3003 -0.0359
28641W        W47388  21.347   3.187   8.365 -0.1091 -0.0090 -0.2437
28642W        W47389  15.566   0.336  23.979  0.1153 -0.4849 -0.4467
28643W        W47390  11.075   1.616  25.315 -0.2286  0.0953 -0.4354
28644W        W47391  27.519   7.032  22.502  0.0891  0.0332 -0.2250
28645W        W47392   7.392  16.132  19.062 -0.2156  0.1124 -0.0210
28646W        W47393  24.360  29.528  24.974  0.2490  0.1841  0.1678
28647W        W47394  16.762  25.281  21.796 -0.0833 -0.0590  0.4458
28648W        W47395  19.553  25.792   4.944  0.0899 -0.0378  0.0994
28649W        W47396  15.400  16.021  19.504  0.1396  0.0749  0.1713
28650W        W47397  11.805  13.164  12.897 -0.2439  0.2299  0.0177
28651W        W47398  34.913   4.453  20.830 -0.2377  0.0528  0.3089
28652W        W47399  23.422  27.658  19.074 -0.2317 -0.1445  0.2181
28653W        W47400  31.479  15.782   5.772  0.1459 -0.0424 -0.0180
28654W        W47401   5.271  21.697  22.913  0.1546  0.1661 -0.0022
28655W        W47402  13.296   8.831   9.508 -0.0760 -0.3360 -0.3187
28656W        W47403  34.589  30.953  25.485  0.3833  0.1622 -0.1745
28657W        W47404   8.935  24.577   8.144 -0.0812  0.1569  0.3508
28658W        W47405  24.395  14.565  11.255  0.1748 -0.2931 -0.0669
28659W        W47406   5.699  16.757   6.158 -0.3132 -0.1902 -0.1575
28660W        W47407   8.886   0.160  11.868 -0.0797  0.1366 -0.0372
28661W        W47408  30.589  31.560   2.519  0.1557  0.0324  0.0618
28662W        W47409  19.148   4.245   9.710  0.1301  0.0146  0.0503
28663W        W47410   9.114   8.369  19.790 -0.1808 -0.0690 -0.1789
28664W        W47411   0.452   3.557  19.239 -0.1302  0.1797 -0.1320
28665W        W47412  16.432   5.439  20.547 -0.3198 -0.0743  0.1988
28666W        W47413   8.547  17.521   1.148 -0.0161 -0.0828 -0.0488
28667W        W47414  21.448   1.450   8.079 -0.1931  0.2420  0.0074
28668W        W47415   2.202  12.018  21.381  0.1503 -0.1193  0.1352
28669W        W47416   1.010  28.174  18.570  0.1190 -0.1634 -0.1057
28670W        W47417  19.937  32.395  17.990  0.2303 -0.0483  0.1045
28671W        W47418  28.787  26.805  10.590 -0.0777  0.2258 -0.1206
28672W        W47419  34.307  25.911  17.375 -0.0147  0.0813  0.2054
28673W        W47420  25.718  33.608   4.289  0.3157 -0.1253  0.1715
28674W        W47421  25.129  14.147  16.660  0.4283  0.0245 -0.0337
28675W        W47422   4.245  13.510  22.296 -0.0170 -0.0751 -0.4518
28676W        W47423  27.434  20.052  15.272  0.0217  0.1375 -0.1051
28677W        W47424  27.796  19.271  21.024  0.0381  0.1193  0.0155
28678W        W47425  22.145   9.290  17.889  0.1008 -0.1339 -0.1566
28679W        W47426   7.520  25.477  14.978 -0.0979  0.0506  0.1038
28680W        W47427  15.942  22.896  11.444 -0.2792  0.0246  0.3860
28681W        W47428  25.070  26.556  21.621  0.2354  0.2585  0.0418
28682W        W47429  15.100  27.563  23.983  0.0844  0.1452  0.6134
28683W        W47430   9.579  13.120   8.803  0.0664 -0.1786  0.2043
28684W        W47431  16.742   0.659   8.753  0.0377  0.1526  0.2567
28685W        W47432  22.960  20.195   2.522 -0.0405  0.1698  0.0196
28686W        W47433  15.831  11.402  11.155  0.4484  0.2835  0.0107
28687W        W47434  23.367  28.806  10.911  0.2018  0.2064  0.0909
28688W        W47435  12.916  33.635   4.155  0.0599 -0.1269 -0.0137
28689W        W47436  18.896  10.612   7.359 -0.0734  0.0822  0.4353
28690W        W47437   3.219  27.193   6.850  0.0757  0.1181 -0.0593
28691W        W47438  20.379  17.343   6.094 -0.0903 -0.0775 -0.2241
28692W        W47439  24.034   3.690   1.277  0.3505 -0.1836  0.2511
28693W        W47440  24.758   4.092  18.344  0.1071 -0.0815 -0.3297
28694W        W47441  13.410  26.042   3.877  0.1023  0.2116 -0.0163
28695W        W47442  30.751   0.309  23.940 -0.0736 -0.1796  0.0414
28696W        W47443   0.030  19.287  14.351 -0.1145  0.1140  0.2124
28697W        W47444  16.871  16.108   8.639 -0.2427 -0.1810  0.0165
28698W        W47445  32.698  26.929  18.414 -0.2628 -0.2369  0.0837
28699W        W47446  23.668  26.700  17.158  0.0249  0.3473 -0.1360
28700W        W47447  24.447  16.753  20.476  0.0028  0.2714  0.1674
28701W        W47448  27.489  21.187  22.885 -0.0668 -0.1252  0.0690
28702W        W47449   5.588   7.574  10.280  0.0175 -0.4108  0.4130
28703W        W47450  19.556  14.924  10.011  0.1807 -0.0138  0.1865
28704W        W47451  32.506  21.274  13.957 -0.0602 -0.2953  0.1683
28705W        W47452  28.412  23.087  21.082 -0.0605  0.2779 -0.2924
28706W        W47453  15.991  14.799   7.557  0.0221 -0.2485  0.0415
28707W        W47454  13.166  14.357  20.892 -0.1635  0.1737 -0.1202
28708W        W47455  34.302  31.363   1.152  0.1036  0.0024 -0.2749
28709W        W47456  28.643   1.581  14.635 -0.2551 -0.0888 -0.2042
28710W        W47457  19.846  34.973  20.237 -0.0167  0.1268 -0.1956
28711W        W47458  18.531  28.891   3.013  0.1971  0.1854  0.0832
28712W        W47459  28.942  25.200  17.740  0.0138 -0.0637  0.2531
28713W        W47460  34.859  31.465   1.137  0.0279  0.1748  0.0348
28714W        W47461  33.056   1.309   2.376 -0.6315  0.0528 -0.2862
28715W        W47462  18.583  34.505  16.301 -0.2945 -0.1080  0.5058
28716W        W47463  14.350  15.013  10.768  0.0613 -0.0481  0.1295
28717W        W47464  10.533  14.425   9.454  0.2390  0.0039 -0.0154
28718W        W47465  35.374   2.625  17.850 -0.2962 -0.0206  0.1573
28719W        W47466  33.056  18.848   0.190  0.1427  0.2628  0.2448
28720W        W47467  11.816   6.164   9.521  0.4120  0.2717 -0.1754
28721W        W47468   3.135  28.908   8.018 -0.1933 -0.1905 -0.2884
28722W        W47469  10.467   0.853  25.630 -0.2784  0.0597  0.0557
28723W        W47470   8.496   9.046  11.523 -0.4391  0.0023 -0.4089
28724W        W47471   7.640  14.786   1.076  0.0427 -0.1932  0.0608
28725W        W47472  24.415  22.598  17.330 -0.1934  0.2102  0.0760
28726W        W47473  26.328  19.327   8.731 -0.0224 -0.2302 -0.1014
28727W        W47474  33.145  14.907  15.528 -0.2881 -0.1337  0.0193
28728W        W47475   8.002   4.774   8.990 -0.2670  0.1354  0.1150
28729W        W47476  23.061  20.478  17.882  0.5015 -0.0412 -0.0731
28730W        W47477  20.335  32.108  21.558 -0.1850 -0.2927  0.0813
28731W        W47478   8.851  20.587   1.658 -0.2202  0.1197  0.0350
28732W        W47479  13.516  18.904   5.262  0.1759 -0.0298  0.4558
28733W        W47480  23.570  21.428  17.237  0.1564 -0.2223  0.0881
28734W        W47481   1.549   1.244  21.703  0.0963  0.0615 -0.1089
28735W        W47482   4.079  28.651   4.699 -0.0919 -0.0885  0.2232
28736W        W47483  19.276   3.093  24.142 -0.0396 -0.1928  0.0017
28737W        W47484   0.984  22.446  24.612 -0.0787 -0.1200  0.0974
28738W        W47485  34.518  12.265  20.602 -0.1164 -0.0386  0.2683
28739W        W47486   3.879  32.973  20.085  0.0215 -0.0130  0.0815
28740W        W47487  22.314  24.364   2.004 -0.2470  0.2895 -0.3712
28741W        W47488  28.278  33.708  25.320 -0.1646 -0.5622 -0.1996
28742W        W47489  24.848  20.753  23.951 -0.0820 -0.0026 -0.3571
28743W        W47490  29.577  12.341   7.479 -0.0214 -0.0494  0.1182
28744W        W47491  34.220  18.387  18.731 -0.0070  0.1938  0.4647
28745W        W47492   8.332   4.616   3.135 -0.1926  0.0776 -0.1963
28746W        W47493   3.693  33.287  10.718  0.0729 -0.0775 -0.0573
28747W        W47494   2.322  34.870   1.856  0.2740  0.2171  0.0027
28748W        W47495  14.946  13.210   6.938  0.2387 -0.0517  0.0533
28749W        W47496   2.123   3.291   5.494 -0.1202 -0.4942  0.4909
28750W        W47497  23.376   9.780  13.573  0.1784 -0.0983 -0.4617
28751W        W47498   9.671   0.322  24.646 -0.0639 -0.0340 -0.3052
28752W        W47499  31.606  25.245  17.012  0.4360 -0.2711 -0.1442
28753W        W47500  16.773   3.031  20.330  0.1508  0.0532 -0.1398
28754W        W47501  30.101  29.916  19.545  0.2802  0.2769 -0.0334
28755W        W47502  18.535  17.638  24.322  0.2630  0.1494  0.3673
28756W        W47503   3.073  13.479  13.896 -0.2469 -0.1349 -0.0650
28757W        W47504   5.013  13.362  22.798  0.0218 -0.2748  0.2251
28758W        W47505   3.552  16.439  18.486  0.1267  0.0531  0.0382
28759W        W47506  29.329  10.008   7.346  0.0818  0.0024  0.0219
28760W        W47507   0.292  23.776  22.270 -0.0729  0.0458  0.3633
28761W        W47508  28.224  10.572   8.073 -0.0692 -0.0384 -0.0852
28762W        W47509  19.143  26.346   2.877 -0.0437  0.1334  0.1923
28763W        W47510  15.690  23.002   9.552  0.1555  0.2051  0.2328
28764W        W47511   2.103  16.383   0.964  0.1349 -0.0084  0.1080
28765W        W47512   3.909   5.336  22.939  0.0627  0.0870  0.0573
28766W        W47513   1.558  12.779  23.788 -0.2984 -0.0178 -0.0865
28767W        W47514  34.161  14.113  23.492 -0.0264 -0.3495 -0.2388
28768W        W47515   4.653  24.054   0.967 -0.3403 -0.0568 -0.1307
28769W        W47516  23.795  28.204  13.032  0.0828  0.0849 -0.0174
28770W        W47517  14.781  17.902  11.563  0.1400 -0.0572  0.0361
28771W        W47518  18.441   2.951   5.965  0.1250 -0.0021 -0.0545
28772W        W47519  30.505   6.954  17.095 -0.4454  0.1595  0.3330
28773W        W47520  12.137  29.970  12.264  0.2609 -0.0580  0.0586
28774W        W47521  25.661  33.029  13.420 -0.0345  0.0664  0.3410
28775W        W47522  21.746   3.415   5.403  0.0610  0.2878  0.1644
28776W        W47523  22.733   8.273   0.508  0.0359  0.1232 -0.0215
28777W        W47524  13.102   7.720  21.992  0.0384 -0.1391 -0.2706
28778W        W47525  19.810  32.162   5.592 -0.0516 -0.1292  0.0581
28779W        W47526  32.950  21.506  15.833 -0.0760  0.4329  0.1345
28780W        W47527   9.448  31.147  21.206 -0.0494 -0.1718  0.2949
28781W        W47528  26.290  26.328  25.342  0.0975  0.1914  0.0387
28782W        W47529  34.538  24.750  15.855 -0.2330  0.0674 -0.0054
28783W        W47530   7.824  28.141  15.226 -0.0297 -0.1035  0.0490
28784W        W47531  23.370  17.296  25.650  0.2092 -0.2782  0.3207
28785W        W47532  19.040  13.293   0.859 -0.0432  0.0107  0.0373
28786W        W47533  28.885   8.733  20.462  0.0630  0.1370  0.2206
28787W        W47534  34.017  33.322  18.678  0.0695  0.1848  0.0567
28788W        W47535   4.738  24.420  19.318  0.2248  0.2031  0.0059
28789W        W47536  16.674  34.909  23.269  0.2024  0.4734  0.2776
28790W        W47537   9.353  25.145  16.994  0.0283  0.0158 -0.0944
28791W        W47538  11.407  14.110   9.395 -0.4833  0.1031 -0.1256
28792W        W47539   0.076   8.222  20.682  0.0744  0.4336 -0.2241
28793W        W47540  27.558  22.850  26.158  0.1434  0.1090  0.0912
28794W        W47541   2.301  15.464  21.769 -0.3276  0.1360  0.2019
28795W        W47542   9.671  16.752   9.855  0.2737 -0.1460  0.2035
28796W        W47543   9.767  11.428  19.210 -0.2512 -0.2872  0.1189
28797W        W47544  27.341   0.355  22.743  0.0978  0.2119 -0.0317
28798W        W47545  33.878  11.595  25.190 -0.1014 -0.2197 -0.2893
28799W        W47546   5.426   3.931   3.554  0.0326  0.0694  0.2181
28800W        W47547   4.739  19.509  19.287  0.0525  0.0672  0.0779
28801W        W47548  25.604   4.237  20.394 -0.0571 -0.0491  0.0559
28802W        W47549  12.667  25.014  15.766  0.0704 -0.2002 -0.2370
28803W        W47550   5.200   4.182   9.297  0.0634  0.2343 -0.1807
28804W        W47551  26.513   9.694  25.516  0.0161  0.0714 -0.0030
28805W        W47552  17.048   0.916  25.734 -0.0480 -0.1342 -0.2130
28806W        W47553  15.738   3.148  11.909 -0.0791  0.0377 -0.0912
28807W        W47554  25.613  30.200  16.204  0.2943  0.0592  0.4097
28808W        W47555  23.087  25.696  13.082  0.1708  0.2141  0.1100
28809W        W47556  16.267  22.379   8.761 -0.2166  0.1549 -0.0125
28810W        W47557  24.753  13.127  21.444  0.0366 -0.1218 -0.3020
28811W        W47558  28.914  23.404   0.274  0.0737 -0.0359  0.2556
28812W        W47559  19.626  32.338   2.933 -0.2543  0.0533 -0.3351
28813W        W47560  16.111  30.083   1.334 -0.0711 -0.0670  0.0506
28814W        W47561  17.065  16.635  13.301  0.2517  0.6455  0.2966
28815W        W47562   4.079  33.929  25.526 -0.3641 -0.2842  0.0371
28816W        W47563   7.176  30.070  13.568  0.1161  0.0662  0.3287
28817W        W47564   2.532   4.616  22.880 -0.4692  0.3624  0.3694
28818W        W47565  12.099  30.076   7.816  0.1651  0.0923  0.2404
28819W        W47566  21.917  23.335  15.013  0.1349  0.0872 -0.1041
28820W        W47567  10.544  22.516   6.868  0.1525 -0.2173  0.0080
28821W        W47568  13.163  19.596   6.482 -0.1005 -0.2390 -0.1976
28822W        W47569   8.726   5.898   7.041 -0.0606  0.1930  0.0842
28823W        W47570  25.249  33.336  20.128 -0.0063 -0.4497 -0.1864
28824W        W47571  30.528   2.661  17.728  0.3250  0.2514  0.0298
28825W        W47572   8.560   0.497  11.985 -0.1816 -0.2413  0.0204
28826W        W47573  22.323   4.351   1.484  0.1800 -0.1956  0.1898
28827W        W47574  22.995  32.506  26.030 -0.1563  0.0755 -0.1487
28828W        W47575  29.512  32.834  12.587 -0.0231  0.1323 -0.1946
28829W        W47576  25.684  35.346   6.048  0.1299  0.3017 -0.1609
28830W        W47577  19.254  30.677   8.091  0.2021  0.2897  0.1606
28831W        W47578  15.130  10.013  18.570  0.2888 -0.0743  0.0627
28832W        W47579  13.481  33.129  11.200  0.1896  0.0533  0.0852
28833W        W47580  26.485  28.537  15.794 -0.1202 -0.0870  0.2386
28834W        W47581  29.326   6.314  11.385 -0.1475 -0.0046 -0.3458
28835W        W47582  25.969  19.713  25.376  0.0079 -0.4075  0.1137
28836W        W47583  21.520  27.187   1.032  0.1931 -0.0019 -0.1667
28837W        W47584  12.951  27.140   8.755 -0.1287 -0.3624  0.1992
28838W        W47585  34.733  26.717  20.546  0.4036 -0.0373 -0.1851
28839W        W47586   2.601  34.482   1.542  0.1002  0.1061 -0.2071
28840W        W47587  15.642  28.008   6.954  0.1611 -0.1539  0.1916
28841W        W47588   5.911  22.787  23.592  0.1852 -0.1251 -0.1385
28842W        W47589   0.029   6.462   0.483 -0.0828  0.1682 -0.0264
28843W        W47590  29.862  20.859  21.703 -0.1218  0.1558 -0.1546
28844W        W47591   0.167  15.342  14.495 -0.1390 -0.0424  0.0697
28845W        W47592  22.077  12.092  25.690 -0.1419  0.1515  0.0714
28846W        W47593   2.792  12.651  14.907 -0.0088  0.4346  0.3000
28847W        W47594  33.069  13.513  22.298 -0.1678 -0.4519 -0.3012
28848W        W47595  14.910  22.336  11.462 -0.3129  0.0699 -0.1623
28849W        W47596  19.225  18.512   4.068 -0.1734 -0.0133  0.1863
28850W        W47597  14.410  16.172  24.282  0.1016 -0.0896 -0.1649
28851W        W47598   9.404  27.289   1.445 -0.0147 -0.0123  0.0949
28852W        W47599  30.552  29.944  25.872 -0.0724  0.2362  0.0013
28853W        W47600  16.019  20.313  21.333 -0.0822  0.2795  0.4393
28854W        W47601  23.616  25.577   0.556  0.1039 -0.0088 -0.3031
28855W        W47602  12.586  12.353   5.725 -0.0265  0.0625 -0.3350
28856W        W47603  19.399   6.144   7.849  0.2201 -0.0554 -0.1521
28857W        W47604   1.520   4.361   4.982 -0.0806 -0.0949 -0.0087
28858W        W47605  19.385  27.859   5.997  0.2483 -0.0896 -0.1380
28859W        W47606  34.503  35.308  23.363 -0.2603  0.1685 -0.0104
28860W        W47607  15.005   3.773   6.422 -0.1010 -0.0721  0.1409
28861W        W47608  31.845   4.335  18.264  0.0230  0.3105 -0.0497
28862W        W47609  22.535  26.456   0.299  0.2138 -0.1929  0.2032
28863W        W47610  17.425  34.236  23.001 -0.1743 -0.0003 -0.0383
28864W        W47611  12.507  24.571  15.659 -0.0546 -0.0239  0.0673
28865W        W47612  31.389  23.708  23.884  0.1779 -0.2467  0.1783
28866W        W47613  17.421  14.150  11.269  0.0448  0.1186  0.0984
28867W        W47614  18.018  18.216   3.167 -0.0364  0.0066  0.3256
28868W        W47615   7.655  12.031  12.189 -0.1867  0.1027  0.1152
28869W        W47616  18.671  33.445  23.639  0.1315  0.0092 -0.1280
28870W        W47617  27.870  12.832  25.879 -0.0278  0.2174 -0.0817
28871W        W47618  16.113  21.110  22.725  0.0824 -0.0973 -0.0406
28872W        W47619   9.362  11.935  12.024  0.0541  0.1671  0.0763
28873W        W47620  26.440  16.297  22.937 -0.1089  0.1978  0.0401
28874W        W47621  27.885  34.954  14.417 -0.1111  0.2283 -0.1489
28875W        W47622   6.156  34.096   5.783  0.3823 -0.2031  0.4643
28876W        W47623  18.649  12.949  18.419  0.1215  0.1935  0.0110
28877W        W47624  20.096   0.371  20.787  0.1277 -0.0220 -0.0342
28878W        W47625  29.186  26.698  19.726  0.1712 -0.3080 -0.0577
28879W        W47626  13.680  34.271  12.995  0.3442  0.1142  0.0568
28880W        W47627  14.779  25.429  21.744  0.1992  0.0859 -0.2231
28881W        W47628  25.757  27.461  18.362  0.2465 -0.0023 -0.1577
28882W        W47629  31.632  14.279  16.768 -0.0833  0.1068  0.1857
28883W        W47630   7.509   8.467  12.657  0.3325 -0.2456  0.4088
28884W        W47631   0.043  31.596  24.818  0.1893  0.3835 -0.1015
28885W        W47632  30.304  34.135   5.105  0.2134 -0.1548 -0.0639
28886W        W47633  23.313  16.379  22.527 -0.0830  0.0724  0.2524
28887W        W47634  23.456   6.518   2.132 -0.1536  0.0700 -0.0108
28888W        W47635   8.291   5.535   7.629  0.1476  0.1825 -0.1425
28889W        W47636   9.592  25.777  24.249 -0.1211  0.0535  0.2983
28890W        W47637  15.451   3.763  22.685 -0.3104  0.2140  0.3647
28891W        W47638  29.617  30.468  11.355 -0.2136  0.0801 -0.3461
28892W        W47639  12.186  18.166   5.658  0.4615  0.0748  0.1919
28893W        W47640  12.056  28.939  16.507  0.3734 -0.0207 -0.0448
28894W        W47641  22.168   8.632  15.981 -0.1207 -0.1693  0.5986
28895W        W47642  33.198  25.573  25.574 -0.0512 -0.5293  0.0056
28896W        W47643  33.696  14.290   8.814  0.4427  0.3070  0.1956
28897W        W47644  35.249  15.219  23.526 -0.1944 -0.0484  0.0724
28898W        W47645  30.202   3.543  22.599 -0.0193 -0.1388 -0.1911
28899W        W47646  25.055  25.032  19.008 -0.2841 -0.0262 -0.0964
28900W        W47647   9.117  11.177   9.641  0.1683 -0.0816 -0.2112
28901W        W47648   1.046  21.153   2.451  0.0543 -0.2211 -0.0431
28902W        W47649  20.254  27.577   1.443 -0.1022  0.0506 -0.1433
28903W        W47650  17.538  16.399  18.173 -0.2908 -0.0387 -0.4142
28904W        W47651  11.206   6.516   1.438  0.0538 -0.0190 -0.2446
28905W        W47652  19.865   6.424  22.546  0.0289  0.2491  0.0407
28906W        W47653   7.045  11.570  20.186  0.4052  0.1684 -0.2061
28907W        W47654   2.724  20.695   0.803  0.4541  0.2262 -0.0440
28908W        W47655   0.960  32.748   7.700  0.1896  0.1074 -0.0211
28909W        W47656  21.598  20.531  21.728  0.3713  0.1950  0.1522
28910W        W47657   8.290  17.031  21.229 -0.1043  0.0745 -0.3216
28911W        W47658  16.115   3.177   1.934 -0.1596 -0.4490  0.0193
28912W        W47659   7.978  30.681  13.832 -0.0858 -0.0675  0.0545
28913W        W47660  15.394  22.391  23.708  0.2864 -0.1131 -0.2011
28914W        W47661  28.732   1.229  17.609 -0.4272  0.0836 -0.0933
28915W        W47662  29.971  34.536  19.604 -0.2193 -0.5691 -0.5058
28916W        W47663  29.391   6.019  17.227 -0.0331 -0.2514  0.0002
28917W        W47664  15.348  28.524   1.813  0.1617 -0.3620  0.0389
28918W        W47665  15.133  30.158  21.517 -0.0003 -0.1981 -0.0818
28919W        W47666  20.126  18.469   5.220 -0.1152  0.0826 -0.0733
28920W        W47667  30.707  29.470  20.536 -0.3010  0.1573 -0.4604
28921W        W47668  22.598   6.749  23.663  0.0987 -0.2108 -0.2877
28922W        W47669   3.226  21.167  22.444  0.1818  0.0969  0.1191
28923W        W47670  13.743  14.837  24.971  0.1224  0.2723 -0.0355
28924W        W47671  11.840  31.213   8.200  0.0510  0.3495  0.2711
28925W        W47672  22.386  10.894  19.985 -0.1373  0.0641  0.0289
28926W        W47673   9.696  25.215  16.193  0.0434 -0.3221  0.1789
28927W        W47674  24.696   6.991  19.094  0.3399  0.4039  0.0984
28928W        W47675  34.787  17.504  23.868 -0.0274 -0.2492  0.1205
28929W        W47676   2.388  18.428  17.948  0.0556  0.0229 -0.2109
28930W        W47677  25.847   1.508  19.299 -0.2892  0.1666 -0.0409
28931W        W47678   8.180  30.838   5.448  0.2798  0.2530 -0.0161
28932W        W47679  18.676  23.888   9.611  0.0651 -0.2772 -0.2836
28933W        W47680  28.043  26.553   2.410  0.0447  0.2541  0.1342
28934W        W47681   0.416  16.203  21.403 -0.0956 -0.1094  0.1077
28935W        W47682  25.011   0.613  14.185 -0.2913 -0.3554  0.3880
28936W        W47683  31.645  28.628  11.585 -0.3221 -0.0084  0.0069
28937W        W47684  25.740  13.071  25.245  0.1228  0.0686 -0.1255
28938W        W47685  22.353  23.295   3.577  0.0790 -0.0138  0.0804
28939W        W47686  34.309  34.910  17.846  0.2597  0.1934 -0.0089
28940W        W47687   8.076  12.046  19.738  0.0729  0.4015 -0.0229
28941W        W47688  21.647  12.252   0.422  0.3241  0.2059  0.2448
28942W        W47689  17.981  27.171   5.982  0.2763  0.1631 -0.2270
28943W        W47690  10.032  22.615  24.791  0.1200 -0.0690  0.1680
28944W        W47691   4.114  10.289  17.573 -0.1632  0.4313 -0.2225
28945W        W47692  15.367  33.484   1.764 -0.4178  0.3180 -0.0412
28946W        W47693  27.629  34.923  15.822 -0.1872 -0.0788  0.0380
28947W        W47694  30.753  24.361   7.006 -0.1189  0.0691  0.1179
28948W        W47695  27.117   7.052  21.529 -0.3874 -0.0667  0.2800
28949W        W47696  21.484  28.190  15.697 -0.4095  0.0724  0.2926
28950W        W47697  13.521  10.900  22.338 -0.1457 -0.0943  0.0940
28951W        W47698  31.479  23.288  10.387 -0.1518  0.1031  0.0214
28952W        W47699  28.468  19.138  13.787 -0.3433  0.0842  0.1708
28953W        W47700  24.351  30.568  25.805  0.0215  0.2283 -0.0849
28954W        W47701  19.724   7.148  22.831  0.0634  0.1101  0.0567
28955W        W47702   7.143  17.436  25.036 -0.1782  0.3964 -0.1323
28956W        W47703  19.842  33.357   2.551 -0.0969  0.1208 -0.1275
28957W        W47704  15.990  14.063   4.129  0.2405 -0.1602  0.0677
28958W        W47705  15.751  23.617   5.887  0.4276  0.1747  0.0862
28959W        W47706  35.363  30.118  21.199 -0.0924  0.2251 -0.0023
28960W        W47707  35.072  27.274   5.034  0.2183 -0.3077 -0.3800
28961W        W47708  29.075   2.786  21.596 -0.0719 -0.0568 -0.3565
28962W        W47709  11.075  26.167  12.864  0.1420 -0.0398  0.0764
28963W        W47710   5.415   6.053   9.428 -0.2077 -0.0754 -0.1111
28964W        W47711   5.635   5.063   5.304  0.2468 -0.1669  0.1760
28965W        W47712   8.391  30.953   2.794  0.1344  0.1930 -0.1498
28966W        W47713  15.929   8.672  12.471 -0.2054  0.2014  0.2894
28967W        W47714   7.084   0.646  11.884  0.2887 -0.0606 -0.3412
28968W        W47715   2.772  14.469  14.524  0.2062  0.0252 -0.1028
28969W        W47716   6.819   6.302  19.422 -0.0781 -0.2014  0.0367
28970W        W47717  16.723   2.859   5.562  0.2185  0.1390 -0.2367
28971W        W47718  33.599   2.876  22.456  0.3349 -0.0982  0.0943
28972W        W47719  26.471  17.339  18.810  0.2371 -0.1672 -0.3675
28973W        W47720  26.807  31.228  25.244  0.2046  0.0856  0.0234
28974W        W47721  22.481  12.866   3.309 -0.2700 -0.0159  0.0456
28975W        W47722  28.086  17.615  12.542 -0.3073 -0.0262  0.3126
28976W        W47723  15.836  26.509  24.766  0.2177  0.0735 -0.0108
28977W        W47724   9.151  19.528  21.094 -0.1864 -0.0057 -0.1557
28978W        W47725  30.154   4.530   2.365  0.0313  0.0313  0.0381
28979W        W47726   9.227  13.916   6.935  0.1068 -0.0053 -0.1221
28980W        W47727  32.733  19.420   7.884  0.0289  0.0710  0.2329
28981W        W47728   1.742  17.954  17.948 -0.0697 -0.0075 -0.1650
28982W        W47729  10.124  20.451  15.879 -0.1543  0.0201  0.2826
28983W        W47730   9.625   9.920   6.061  0.5376  0.1774 -0.1223
28984W        W47731   8.566  18.690  12.894 -0.1364 -0.0085 -0.3079
28985W        W47732  23.757   8.671   1.544 -0.0726 -0.0006  0.1086
28986W        W47733   8.230  19.441   8.971 -0.1479 -0.1708  0.0984
28987W        W47734   7.058   3.942  18.886 -0.1975  0.2557  0.2428
28988W        W47735   1.436  21.724  23.479  0.1412 -0.2510 -0.1664
28989W        W47736   9.845  17.114  23.269  0.4643 -0.0899 -0.1813
28990W        W47737  12.013  28.786   0.339  0.2209  0.1818 -0.0581
28991W        W47738   9.597  23.372  24.458 -0.0020  0.1254 -0.2540
28992W        W47739  10.235   7.353  12.914 -0.0078  0.3293  0.0988
28993W        W47740  27.644  23.843  14.290 -0.2333 -0.1175 -0.3662
28994W        W47741   0.443   7.989  22.363 -0.1259  0.3282 -0.1610
28995W        W47742  31.819  13.681   6.887  0.0201  0.1904  0.0415
28996W        W47743  18.203   3.130  10.996 -0.0060  0.0182 -0.2057
28997W        W47744   4.578  28.479   4.335 -0.1224 -0.0015 -0.0979
28998W        W47745   8.298   4.576  19.551 -0.2152 -0.1328  0.0858
28999W        W47746  14.188  31.364   6.652  0.1780  0.1596  0.5208
29000W        W47747  31.406  29.450  10.015  0.1003  0.1833 -0.0681
29001W        W47748  31.602  33.581   2.019 -0.1758  0.3243 -0.1602
29002W        W47749  29.375   2.328   5.987  0.1923 -0.3262 -0.0673
29003W        W47750  33.430   3.975  16.595  0.1041  0.0138  0.1473
29004W        W47751  22.032  14.102  17.006 -0.0309  0.4377  0.6710
29005W        W47752  11.237   2.959  20.743  0.2241 -0.2361 -0.3130
29006W        W47753  18.146   6.078  22.669  0.5690  0.0299  0.3461
29007W        W47754  26.988  19.211  19.515  0.0994 -0.0091 -0.1217
29008W        W47755  23.044  27.887   2.379 -0.0011  0.1772 -0.1019
29009W        W47756  31.225   2.634  14.817 -0.2068 -0.0208 -0.1678
29010W        W47757  35.017  29.109  22.302 -0.0293  0.1068  0.0559
29011W        W47758   6.586  25.482   9.942  0.2957 -0.0107  0.1317
29012W        W47759   1.484   0.752   4.866 -0.1246  0.0263  0.0576
29013W        W47760  11.142  17.601   2.889  0.0422 -0.2798  0.1195
29014W        W47761  25.206  27.114  22.936  0.0274 -0.1461 -0.0275
29015W        W47762  33.303   6.996  20.144 -0.0247 -0.1799  0.0382
29016W        W47763  11.634  15.446   9.287  0.1398  0.1441  0.1899
29017W        W47764   6.002  11.013  24.126 -0.1285  0.0874  0.2075
29018W        W47765   0.340   4.854   0.503  0.1361  0.2201  0.2151
29019W        W47766  25.561  33.811   3.034  0.1242  0.2259  0.2900
29020W        W47767  13.344  33.195   5.371 -0.1022 -0.0230 -0.1473
29021W        W47768  29.900   0.103  11.856  0.1741 -0.2031 -0.3000
29022W        W47769  23.084   6.052   5.307  0.1160  0.1677  0.1397
29023W        W47770  28.493   1.389  12.070 -0.3080 -0.1038 -0.1192
29024W        W47771  30.249  18.048  24.015 -0.0454 -0.0750 -0.0187
29025W        W47772  14.430  10.048   7.349  0.0300  0.1448 -0.0991
29026W        W47773  22.518   9.543  16.587  0.0417  0.1064 -0.0692
29027W        W47774  14.721   7.360  23.300 -0.1739 -0.1740  0.3175
29028W        W47775  26.302   9.426  22.643  0.1013 -0.0549  0.1432
29029W        W47776  32.155  32.942  20.204 -0.1439  0.2485 -0.2151
29030W        W47777  13.781  34.706  12.796  0.5034 -0.2080 -0.0621
29031W        W47778   8.717  34.631  23.489  0.0748  0.2304 -0.0376
29032W        W47779  32.432   9.103  11.290  0.3375  0.1098  0.1724
29033W        W47780  25.334   1.278  11.410 -0.0280 -0.0477 -0.0114
29034W        W47781  28.149  21.594  18.801 -0.0503 -0.2917  0.0368
29035W        W47782  29.003   6.742  22.883  0.3061  0.1732 -0.3100
29036W        W47783   7.943  16.619   1.838 -0.2548  0.0471 -0.0772
29037W        W47784   9.767  27.013   9.403  0.0349  0.0529 -0.1192
29038W        W47785  11.847  30.971   7.705  0.1665 -0.0501 -0.0608
29039W        W47786  31.715  16.919  15.778 -0.1317  0.0480 -0.0604
29040W        W47787   9.234  31.206   4.752 -0.3030 -0.0890  0.1193
29041W        W47788   6.395  33.817   1.141 -0.3015 -0.0699  0.0643
29042W        W47789   1.326  24.443  23.247 -0.2476  0.1312 -0.3845
29043W        W47790   0.282  22.910   1.419  0.0431 -0.1013 -0.1328
29044W        W47791   8.984  27.229   8.194 -0.1830  0.0873  0.3911
29045W        W47792  35.374  29.924   6.777  0.1720  0.0480 -0.2233
29046W        W47793  14.214  18.840   1.866  0.1133  0.2134 -0.0923
29047W        W47794  30.635  32.898  18.978  0.0003 -0.2993  0.0274
29048W        W47795  18.582  35.282   6.471 -0.1673 -0.2321  0.2683
29049W        W47796  30.958  22.757   8.711  0.0317  0.0625  0.2222
29050W        W47797  13.994   6.602   0.009 -0.3765 -0.0280  0.1414
29051W        W47798   2.103  22.402  16.577  0.2129  0.1814 -0.0503
29052W        W47799  11.018  33.144  25.830  0.1484 -0.0959 -0.0424
29053W        W47800  24.629  12.448  25.076 -0.3184  0.1987  0.0773
29054W        W47801  16.094  15.807   8.906  0.2364  0.1614 -0.3085
29055W        W47802   8.171  34.751  20.569  0.1340 -0.2135 -0.2509
29056W        W47803  15.270  18.113  20.855 -0.0593  0.1200 -0.1316
29057W        W47804   1.664  18.878  12.728 -0.0952  0.0547  0.3115
29058W        W47805  12.894   4.405   7.197 -0.1271  0.0607  0.0512
29059W        W47806  18.099   3.390   2.080  0.0018 -0.1232 -0.0136
29060W        W47807   7.301   0.764  12.934  0.2204 -0.1826  0.3662
29061W        W47808  20.055  19.399  18.570  0.4417  0.2065  0.1430
29062W        W47809  10.033   2.962  24.808 -0.1696  0.2174 -0.2045
29063W        W47810   3.143   9.327   2.959  0.0711  0.1437  0.1530
29064W        W47811   4.696  30.900   2.060  0.1687  0.3420 -0.0276
29065W        W47812  10.691   4.524  18.432 -0.1169  0.0211  0.1355
29066W        W47813  32.498  27.898  13.788  0.1247 -0.4472  0.1755
29067W        W47814  31.127  15.203  21.203  0.0234 -0.0467  0.1198
29068W        W47815  13.907  28.609   3.154 -0.0454  0.5715 -0.1149
29069W        W47816  16.792   5.907  12.455  0.3657 -0.1191 -0.2412
29070W        W47817  31.913  34.827  21.388 -0.1100 -0.0870 -0.1437
29071W        W47818  19.659  20.723   2.886  0.0185  0.1206 -0.2150
29072W        W47819  14.435  20.482   6.997 -0.3124 -0.0718  0.1479
29073W        W47820  13.310   7.527  10.385  0.0997  0.1215  0.2454
29074W        W47821  28.905  32.068   5.598 -0.1657 -0.2738  0.0309
29075W        W47822  33.153  18.179   9.377  0.0436 -0.0410  0.1806
29076W        W47823  20.365  21.655  10.127  0.1176  0.1135 -0.1252
29077W        W47824  18.791  23.985   5.885  0.0039  0.2047 -0.1510
29078W        W47825   1.484  27.613   3.076  0.0389  0.1036 -0.1073
29079W        W47826   6.627  23.071  22.005  0.0997  0.3809 -0.3941
29080W        W47827   5.291  12.625   6.249  0.1094  0.1210  0.1631
29081W        W47828  22.208  20.362   1.536 -0.2164 -0.1130  0.1310
29082W        W47829  17.522  20.446   1.732 -0.1574  0.0422  0.2931
29083W        W47830   3.027  21.339   2.727  0.1999 -0.0530  0.0484
29084W        W47831  18.613  19.163  22.167 -0.2434 -0.0374  0.0445
29085W        W47832  25.340   9.137  18.584 -0.1669 -0.1287 -0.1910
29086W        W47833  25.270  16.161  18.023 -0.0195 -0.0899 -0.0809
29087W        W47834  19.131  15.614   6.836  0.0564  0.3856 -0.3740
29088W        W47835  24.398  26.180  10.137  0.4133  0.0047 -0.0669
29089W        W47836   0.235  11.727  20.001 -0.0207 -0.1765 -0.0276
29090W        W47837  18.529  14.319   1.431  0.2164  0.2477 -0.2502
29091W        W47838  34.056  34.244   5.876  0.2817  0.0600  0.0174
29092W        W47839  23.647  16.749  13.604 -0.0618 -0.1451 -0.3895
29093W        W47840  25.198   9.237  22.191 -0.2060  0.1545  0.0764
29094W        W47841   7.432  17.518  10.276  0.0312  0.1364 -0.0017
29095W        W47842   3.926  26.217  23.539 -0.0937 -0.3310 -0.0674
29096W        W47843  22.799  17.950  25.235 -0.0404  0.0058 -0.2694
29097W        W47844  26.083  15.361  20.850 -0.3161  0.0140 -0.2963
29098W        W47845  31.672   0.114  12.305  0.4486 -0.0255  0.0192
29099W        W47846  15.072   5.418   6.401  0.1137  0.1416 -0.1244
29100W        W47847  18.999  16.452   6.898 -0.3375  0.1629  0.0162
29101W        W47848  29.566   6.121  20.964 -0.1712 -0.2711  0.1156
29102W        W47849  31.137  13.739   8.169 -0.0674  0.1305 -0.0364
29103W        W47850  26.989  35.382  24.298 -0.0131 -0.2194 -0.2860
29104W        W47851  14.896   6.190   4.879  0.1922 -0.1161  0.1539
29105W        W47852  24.521  10.958  24.862  0.1202 -0.2729 -0.1600
29106W        W47853  26.435  21.452  10.452  0.0089 -0.0864  0.1490
29107W        W47854   1.203  15.583  20.001  0.2276  0.1432 -0.1703
29108W        W47855  17.960  27.910  25.580 -0.0570 -0.0504 -0.3573
29109W        W47856  13.345  32.668   5.439 -0.3102  0.1116 -0.1433
29110W        W47857  27.807  24.840   0.814 -0.2778  0.1407 -0.1503
29111W        W47858  32.371  30.035  24.961  0.1369 -0.0525 -0.1864
29112W        W47859  19.216  16.172   6.015 -0.1891  0.1117 -0.2396
29113W        W47860   9.425  16.455  10.250 -0.1306 -0.0636  0.1321
29114W        W47861   0.654  14.185  17.339 -0.1546 -0.2165 -0.1433
29115W        W47862   1.616  32.278  24.531  0.1280 -0.1018 -0.3691
29116W        W47863  11.559   7.326   1.021  0.5047 -0.1677  0.2177
29117W        W47864  16.871  10.519  19.394 -0.4135  0.0625 -0.0014
29118W        W47865  30.567  18.691  17.006 -0.0432 -0.1518  0.1277
29119W        W47866  21.890  34.070   6.947 -0.0512  0.2217 -0.1063
29120W        W47867  20.723   6.453   5.960 -0.0800  0.1934  0.1555
29121W        W47868  30.685  12.022  11.568 -0.3313 -0.0702 -0.2889
29122W        W47869  13.183  24.618  10.002  0.4687  0.0291  0.1380
29123W        W47870  17.731  26.937   6.451  0.3195 -0.0634  0.1457
29124W        W47871  21.333  23.409   4.088 -0.2549  0.1714 -0.0168
29125W        W47872  28.816  33.370  20.714  0.1572  0.1022 -0.0764
29126W        W47873   1.449  19.654  21.804  0.1438 -0.1280 -0.1852
29127W        W47874   7.180  34.365   1.018  0.0629  0.2962 -0.0921
29128W        W47875  10.662   4.769  12.545  0.1581 -0.2351  0.1000
29129W        W47876  28.769   3.072   3.298  0.1397  0.0561  0.2318
29130W        W47877  25.514   9.785  12.182  0.3008  0.0672  0.1077
29131W        W47878   6.627   2.453  21.147 -0.1892 -0.2066 -0.0017
29132W        W47879  23.182  32.978  12.620 -0.2188 -0.3040 -0.2551
29133W        W47880   4.576   2.536  20.825  0.3804  0.0243  0.0049
29134W        W47881   5.080  19.538  22.308  0.0529 -0.0807 -0.0182
29135W        W47882  33.101  20.008  12.636  0.1318  0.0974  0.0097
29136W        W47883  30.083  17.344  22.589  0.0128 -0.0587 -0.1880
29137W        W47884  32.667  34.459   6.807  0.0565 -0.1166 -0.0498
29138W        W47885  18.687  31.685  23.497 -0.1961  0.1654  0.3313
29139W        W47886  29.206  25.399  16.670  0.4517  0.4109  0.1120
29140W        W47887   8.918  33.024  24.926 -0.0497 -0.2429 -0.1790
29141W        W47888  34.425  30.509  22.206 -0.1792 -0.1362 -0.0574
29142W        W47889  26.656  34.883   1.932  0.0526  0.0785  0.2631
29143W        W47890  29.268  34.558  16.084  0.0722  0.0869 -0.0939
29144W        W47891  27.410  17.595  24.979  0.3060  0.1636 -0.1579
29145W        W47892  24.196   9.611  19.006 -0.0795 -0.0083 -0.0926
29146W        W47893  32.411  22.856   8.788 -0.0916  0.1043 -0.0347
29147W        W47894   4.960  15.936  25.258 -0.0856  0.2654 -0.0676
29148W        W47895   2.319  21.574  25.377  0.1529 -0.1241  0.3599
29149W        W47896  17.779   9.001  11.199  0.2368  0.1179  0.2080
29150W        W47897  35.007  13.373  25.590  0.1295 -0.1312 -0.4170
29151W        W47898  30.863  32.417  18.544 -0.1007 -0.1127 -0.2698
29152W        W47899   3.396   7.693  19.226 -0.0619 -0.0104  0.0641
29153W        W47900   0.536   5.109   4.433  0.1848  0.3410  0.0296
29154W        W47901  14.380   2.385  23.695 -0.0577  0.1465  0.2128
29155W        W47902  26.934   0.777   2.099  0.3472 -0.2713 -0.0827
29156W        W47903  19.372  10.257  19.272  0.1158  0.0775 -0.1821
29157W        W47904  22.766  21.580  15.537  0.2799  0.4062 -0.2112
29158W        W47905   8.197  20.411  15.040 -0.0280 -0.2550 -0.1954
29159W        W47906  28.178  15.678  15.153  0.1533  0.1155 -0.0937
29160W        W47907  31.610  19.696  19.677 -0.1640  0.0872  0.0173
29161W        W47908  26.065  28.280  10.220 -0.2131 -0.2035  0.1185
29162W        W47909  10.076  21.243   3.153  0.2195 -0.2031  0.3323
29163W        W47910   2.428   8.156  25.546  0.0563  0.0379  0.0299
29164W        W47911  20.698  25.411  18.755  0.1501 -0.5039  0.0993
29165W        W47912   8.890  25.066  23.987 -0.1792  0.3020  0.0372
29166W        W47913  26.823   0.149   0.571 -0.0013  0.2371  0.2162
29167W        W47914  16.633  17.200   7.535  0.0119 -0.0103 -0.0610
29168W        W47915  30.612  14.335  10.299  0.2930  0.2252  0.1524
29169W        W47916  11.702  29.015  14.263 -0.0397 -0.1744 -0.0615
29170W        W47917  29.617  20.290  25.136 -0.2263 -0.0014  0.3052
29171W        W47918  27.971  17.284   7.293  0.0219  0.1037 -0.2624
29172W        W47919   8.130   0.721  20.638  0.1996  0.2180  0.3415
29173W        W47920  19.646  26.856  19.060 -0.2610  0.0097 -0.1158
29174W        W47921  30.023  28.926  15.548  0.0360 -0.1055  0.1293
29175W        W47922   9.253  24.258  14.168  0.0221 -0.0095  0.0672
29176W        W47923  12.549   9.500   0.921 -0.2055  0.1679 -0.0461
29177W        W47924   0.132   7.828  20.288 -0.0707  0.2979  0.3166
29178W        W47925  15.182  34.881  22.344  0.4943 -0.2421 -0.0124
29179W        W47926  26.941  17.037   8.291  0.1108 -0.0505 -0.0812
29180W        W47927  27.315  28.365  15.146 -0.2067 -0.0112 -0.0185
29181W        W47928  11.757  30.261   0.852 -0.3728 -0.0499  0.1823
29182W        W47929  25.807  24.486   1.955 -0.2210  0.1220 -0.1140
29183W        W47930  34.664  30.862  24.944 -0.1517  0.2518 -0.1653
29184W        W47931  27.523  18.094  20.365 -0.1891  0.0688 -0.0814
29185W        W47932  27.070   6.375  21.530 -0.0146 -0.0460 -0.0870
29186W        W47933  23.982  10.674  14.380 -0.1109  0.0450 -0.3457
29187W        W47934   4.218   8.626   1.271 -0.0247 -0.1107  0.0364
29188W        W47935  13.706   0.488  10.565  0.2186  0.0198 -0.1015
29189W        W47936  25.690  34.389  11.122 -0.0525  0.0932 -0.0052
29190W        W47937  11.298  29.804   7.187 -0.0055  0.0222 -0.2102
29191W        W47938   7.474  12.574   4.854  0.1242 -0.1227  0.0412
29192W        W47939   6.830  27.785  22.079 -0.2704  0.0392  0.0459
29193W        W47940  30.439  21.786  10.897  0.4728 -0.0446  0.2110
29194W        W47941   4.626   8.431  21.184 -0.0200 -0.2409  0.2964
29195W        W47942  12.250  15.913  18.075 -0.1535 -0.1103  0.3132
29196W        W47943   8.614  21.230  11.134  0.2443  0.0763  0.3994
29197W        W47944  30.194   5.855   3.949  0.5180 -0.0614  0.1333
29198W        W47945   5.410   2.019   4.773  0.1013  0.3981 -0.1319
29199W        W47946  23.505  24.995  15.935 -0.0509 -0.1533 -0.2585
29200W        W47947  29.144  17.182  18.156 -0.1303 -0.2328 -0.1151
29201W        W47948  23.084   1.334   2.864  0.2891  0.0260  0.0855
29202W        W47949  35.314  28.524  16.449  0.0274  0.1611  0.1464
29203W        W47950  23.901  29.883   2.617 -0.0588 -0.4577  0.0245
29204W        W47951  16.289  23.231  25.377 -0.1396  0.1009  0.3390
29205W        W47952  33.712  24.732  23.769 -0.1330  0.0506 -0.0422
29206W        W47953   6.789  24.767   2.960  0.2867  0.1247  0.0541
29207W        W47954  15.785   7.490   2.640 -0.0817 -0.0507  0.0664
29208W        W47955  13.118  31.518   9.883  0.0202  0.1138 -0.1670
29209W        W47956  32.737   7.311  14.744 -0.0293 -0.0131  0.0881
29210W        W47957  25.766  31.410  14.415 -0.4119 -0.3194 -0.1305
29211W        W47958  28.294   4.608  21.856  0.3824  0.0740  0.1330
29212W        W47959  14.828  27.471   6.803 -0.0438  0.0918  0.2047
29213W        W47960   1.670   1.652   7.092 -0.0033  0.1955 -0.3150
29214W        W47961  24.434  10.417  13.271 -0.1089 -0.1387  0.0018
29215W        W47962  18.287  35.129  19.645  0.1246  0.2341 -0.0274
29216W        W47963  22.622  18.026  22.986 -0.0962  0.1608 -0.0321
29217W        W47964  28.845  28.437  20.569 -0.0259  0.0690 -0.0828
29218W        W47965  19.321   6.808  22.163  0.1302  0.1352  0.1212
29219W        W47966  20.108  20.082   4.593  0.1531  0.1286  0.0097
29220W        W47967  32.829  32.269  24.105 -0.1596 -0.0423 -0.1538
29221W        W47968  29.953  12.803  14.361  0.2092 -0.3246 -0.0690
29222W        W47969   8.086   4.926   4.992  0.0772 -0.0300 -0.0627
29223W        W47970  33.106  35.359  24.572  0.1768  0.1655  0.2420
29224W        W47971  19.324  16.973   2.804  0.2806  0.1314 -0.0156
29225W        W47972  18.492  34.093  16.492  0.0161 -0.3312  0.1052
29226W        W47973  33.710   3.857  24.358 -0.0645  0.3706 -0.0380
29227W        W47974  25.365   0.208  21.076 -0.0044 -0.0744  0.3070
29228W        W47975  28.778  32.481  15.408 -0.0133 -0.0197 -0.2038
29229W        W47976  29.808  32.145   2.081 -0.0012 -0.0225 -0.0000
29230W        W47977  26.943  21.141   0.145  0.2274  0.0787  0.1014
29231W        W47978  25.488  11.180  16.664  0.0461 -0.1422 -0.4736
29232W        W47979  21.619  34.440  20.772 -0.0116 -0.1690  0.2080
29233W        W47980  15.333  11.846  11.606 -0.1817 -0.0851 -0.0423
29234W        W47981  15.557   2.287   0.027 -0.1984 -0.1540 -0.2000
29235W        W47982  31.298  30.146   3.865  0.0846  0.0098 -0.0047
29236W        W47983   3.531  20.799  22.537  0.0903 -0.1705 -0.0544
29237W        W47984  33.735  21.526  13.739 -0.2978 -0.0569 -0.0974
29238W        W47985  20.242  24.024  22.981 -0.0724 -0.3861  0.2493
29239W        W47986  21.795  13.059  17.161  0.2867 -0.4367 -0.1196
29240W        W47987   6.756  10.566   7.729  0.1367  0.0017 -0.0355
29241W        W47988   5.427  34.044  21.694  0.1956  0.0568  0.0222
29242W        W47989  20.051  19.787  10.841  0.0698 -0.0070 -0.1262
29243W        W47990  15.302   3.238  11.069 -0.0628 -0.2304  0.0983
29244W        W47991  27.297  34.031  11.198  0.0511 -0.1945  0.1096
29245W        W47992   0.060  28.358   0.786  0.1016 -0.1347 -0.0846
29246W        W47993   9.673  27.175  23.701 -0.0929  0.0083 -0.0163
29247W        W47994   7.233  27.698  21.248  0.0096 -0.1441  0.1441
29248W        W47995  11.103  19.073   2.765  0.1344 -0.4345  0.0645
29249W        W47996  33.647  13.056  20.011  0.0954  0.3898  0.0570
29250W        W47997  33.061  30.418  24.213  0.0740 -0.3418 -0.2285
29251W        W47998  21.785  10.328  23.594  0.1732 -0.3398  0.1713
29252W        W47999  17.647   3.280  24.679 -0.4514 -0.3243 -0.3415
29253W        W48000  21.948  21.801  18.059  0.0867  0.0480  0.1450
29254W        W48001   2.173  29.687   3.794 -0.2624 -0.0749 -0.1878
29255W        W48002  32.359  34.074   6.699  0.1987  0.4340 -0.1593
29256W        W48003  22.175  11.451   2.551 -0.2028 -0.1035 -0.0009
29257W        W48004   8.922  18.491  10.840 -0.1772 -0.0122  0.0329
29258W        W48005   3.401  14.884   2.242 -0.0896  0.1208 -0.1699
29259W        W48006  27.828  23.479  23.367  0.2847 -0.0131  0.0186
29260W        W48007   3.040   1.004   4.183  0.2694 -0.1552  0.1072
29261W        W48008   7.216  12.772  23.710  0.1772  0.2581 -0.0232
29262W        W48009  30.573  21.353  14.250  0.3423 -0.0419 -0.4922
29263W        W48010  17.570  33.479   6.630  0.0199  0.0966  0.1828
29264W        W48011  11.638   9.576  22.488 -0.0069 -0.2581  0.1912
29265W        W48012  28.725  20.698  18.128  0.1523  0.1864  0.3845
29266W        W48013   4.689  28.015  10.723  0.3457  0.0307 -0.2076
29267W        W48014  21.489   3.601  21.552 -0.0908 -0.3158 -0.4935
29268W        W48015  27.749   4.515  12.101  0.1324  0.1255  0.1391
29269W        W48016   7.539   6.032   9.055  0.0185  0.0543 -0.3859
29270W        W48017  20.367  15.031   2.468 -0.0715 -0.0098 -0.0741
29271W        W48018  19.396  33.896  21.170  0.0817 -0.0715 -0.0936
29272W        W48019  19.830  29.971  24.647  0.1259  0.4342  0.0614
29273W        W48020  24.580  30.431  12.604  0.0594 -0.0935 -0.1079
29274W        W48021  17.125   4.468  21.583  0.1729 -0.2245 -0.0975
29275W        W48022  13.249  10.123  21.639 -0.2981  0.1972 -0.1589
29276W        W48023  18.389  23.125  24.155  0.3114  0.3916  0.0149
29277W        W48024   9.849  13.023   3.502  0.2211  0.2540 -0.0836
29278W        W48025  15.374  32.660   3.791 -0.4079 -0.1601  0.1924
29279W        W48026   5.001  17.830   3.677  0.0228 -0.0879 -0.2064
29280W        W48027  35.179   0.859   1.147 -0.3855 -0.0575  0.2465
29281W        W48028  13.018  24.543  17.548 -0.1096  0.0884 -0.0991
29282W        W48029  19.409   4.396  23.011 -0.0922  0.1310 -0.0214
29283W        W48030  31.073   6.448   2.718  0.0647  0.1161 -0.3993
29284W        W48031  12.391  13.467  25.344  0.0451  0.2314 -0.4156
29285W        W48032  31.512   6.022  24.595 -0.1756  0.2505  0.1004
29286W        W48033   8.948   0.503   0.093  0.4340  0.0636 -0.0923
29287W        W48034   1.134  16.861   1.813 -0.2052  0.1252  0.0575
29288W        W48035   2.423  31.780  20.409  0.0900 -0.1841  0.2611
29289W        W48036  12.868  17.527   2.706  0.0402 -0.1772 -0.4017
29290W        W48037  21.031   0.631  14.964  0.3647  0.3748 -0.0143
29291W        W48038  12.696  29.226  12.695 -0.1592  0.1391  0.0212
29292W        W48039   0.821  21.218  19.924  0.1697 -0.1643 -0.2007
29293W        W48040  15.494   5.845   8.255  0.2650 -0.0982  0.2190
29294W        W48041  34.096  20.113   8.532 -0.1759 -0.1918 -0.2039
29295W        W48042  23.942   3.283   4.040 -0.1076 -0.0540 -0.0784
29296W        W48043  10.301  34.932  14.433  0.1116 -0.1742 -0.0608
29297W        W48044   7.567  30.812   4.500  0.2539  0.1118  0.1287
29298W        W48045  27.851  16.075  15.238  0.1427  0.0288 -0.1153
29299W        W48046  34.485   0.653  14.877 -0.1771 -0.3982  0.1524
29300W        W48047  34.828  19.857  23.563  0.0850  0.2177  0.0827
29301W        W48048   7.044   8.827  22.303 -0.0550  0.1160  0.4579
29302W        W48049   5.273   4.779  21.772 -0.2379 -0.0529  0.0909
29303W        W48050   1.609   2.253   5.866  0.0146 -0.2327 -0.1493
29304W        W48051   7.157   0.302  10.265 -0.0093  0.2905  0.0283
29305W        W48052  22.647  29.158   4.297 -0.1033 -0.0570 -0.0616
29306W        W48053  21.578  15.454  19.628 -0.0201  0.1692 -0.2002
29307W        W48054  21.460  12.038   7.456 -0.1908 -0.3127 -0.2654
29308W        W48055   7.020  13.557  20.302  0.2657  0.0731  0.3000
29309W        W48056  23.624   4.322  25.790  0.0715 -0.1750  0.0371
29310W        W48057  31.187  15.273  20.669  0.0196  0.1650  0.2180
29311W        W48058  34.559  15.008   0.874 -0.4819 -0.2223 -0.0982
29312W        W48059  14.320   9.533   0.817  0.3129  0.2009 -0.0555
29313W        W48060  13.491   4.032   5.308  0.2263  0.0938 -0.2245
29314W        W48061  29.389  31.828  25.645  0.1634 -0.1475 -0.1774
29315W        W48062  10.899  11.072   4.553  0.1106  0.0252  0.1631
29316W        W48063  16.439  14.464  25.871  0.2698  0.0721  0.4091
29317W        W48064  15.889   7.499   7.713 -0.0257 -0.0586 -0.1187
29318W        W48065  12.583   8.920  21.215 -0.0274 -0.0025  0.0867
29319W        W48066   8.638   8.804  25.238  0.0938  0.0017 -0.1098
29320W        W48067  11.016  29.231   7.892 -0.0753  0.0638 -0.1737
29321W        W48068  33.475  30.857   1.024  0.1648  0.3861  0.2331
29322W        W48069  30.339  23.471   7.114 -0.0297  0.0428 -0.0324
29323W        W48070  25.653  29.302   9.524  0.0614  0.1931  0.0679
29324W        W48071   8.416  31.280  26.020  0.0836  0.2108 -0.1046
29325W        W48072  11.149  21.978   5.908  0.3912 -0.2011  0.3676
29326W        W48073  22.784  16.424   1.343 -0.0034 -0.2278  0.0729
29327W        W48074  19.648  27.576  23.126 -0.1381 -0.0593  0.0511
29328W        W48075  28.544  30.540  19.766  0.1771  0.2525  0.1149
29329W        W48076  11.873  25.879   9.340 -0.2818 -0.0572  0.3622
29330W        W48077  33.277  14.382  15.589  0.0643  0.1608 -0.0119
29331W        W48078  30.834  15.474  12.883  0.1618 -0.0188  0.1393
29332W        W48079   7.874   0.013   9.567 -0.0436  0.1213 -0.1164
29333W        W48080   8.126  26.626   4.982  0.3876 -0.2266  0.3366
29334W        W48081   0.491   9.214  15.957  0.1840  0.0687 -0.3207
29335W        W48082  19.323   5.833   1.595 -0.1242  0.0450 -0.2993
29336W        W48083  17.832  15.414  22.170  0.0270  0.1810 -0.3390
29337W        W48084  18.320  34.310  25.495  0.0391 -0.0542 -0.0709
29338W        W48085  15.935  26.654  22.315 -0.1457  0.1229 -0.1048
29339W        W48086   1.348   1.340   5.218 -0.3226 -0.0862 -0.0601
29340W        W48087   0.490  28.221  25.164 -0.0969  0.1719 -0.0039
29341W        W48088  16.344  10.417   8.449 -0.2795 -0.3767  0.1588
29342W        W48089  13.684  19.253   0.582  0.2482  0.0631  0.1646
29343W        W48090  10.886  28.300   0.888 -0.3006 -0.1426  0.0269
29344W        W48091  31.364   1.615  20.363 -0.0623 -0.1666  0.0845
29345W        W48092  30.152  21.424  24.503  0.2304 -0.1980  0.1781
29346W        W48093  25.804  16.127  23.483 -0.0573 -0.0401 -0.0332
29347W        W48094   8.491  15.510   6.747  0.2779  0.1662  0.1852
29348W        W48095  24.554   7.872   1.112  0.1628 -0.0045 -0.0012
29349W        W48096  20.551   9.851   8.038  0.1845 -0.0513 -0.1435
29350W        W48097  13.190   8.513  11.379  0.1508 -0.2805  0.0055
29351W        W48098  22.448   6.442  15.598  0.1572  0.2017  0.2268
29352W        W48099   7.236   7.846   4.099 -0.1549 -0.3804 -0.1330
29353W        W48100  34.122  15.027  23.174  0.1450 -0.0766  0.0408
29354W        W48101  31.801  30.777  20.817  0.0325  0.1107  0.3359
29355W        W48102  10.733   0.510  22.791 -0.5627  0.2155 -0.2076
29356W        W48103  19.422   1.844  16.857 -0.0737  0.1743 -0.0261
29357W        W48104  22.725  17.033   2.233 -0.1731 -0.0791  0.0450
29358W        W48105  31.583  21.627  13.916  0.1116  0.0143  0.0192
29359W        W48106   8.327  13.776  25.885 -0.3158 -0.3967 -0.1648
29360W        W48107  29.467  28.047   0.105 -0.1526  0.0839  0.0941
29361W        W48108  16.084   3.893  23.650  0.0750  0.1825 -0.1570
29362W        W48109   5.040   4.593   1.214  0.4448  0.1236  0.1806
29363W        W48110   9.477  29.883   5.049  0.1011 -0.0032  0.0890
29364W        W48111  19.204  21.530  25.800 -0.0284  0.3347  0.0407
29365W        W48112  26.079   9.101  14.830 -0.0445 -0.1201 -0.1131
29366W        W48113  12.283  14.336  25.904  0.0255  0.3835 -0.1421
29367W        W48114  17.336   1.955  16.486 -0.3831  0.4922 -0.1382
29368W        W48115  12.429   6.811  13.098 -0.2671  0.0829 -0.1049
29369W        W48116  12.026  23.652  11.632 -0.4389  0.1946  0.2122
29370W        W48117  28.006  14.281  22.464 -0.3119  0.0158  0.1566
29371W        W48118  27.701  11.847  15.276 -0.0253  0.4276 -0.0746
29372W        W48119   6.931  12.735  12.043 -0.1461  0.0605 -0.1251
29373W        W48120  32.197   0.894  16.644  0.0753 -0.1293  0.0587
29374W        W48121  12.196  20.873  23.053  0.0978 -0.3935 -0.3497
29375W        W48122   3.232   7.941  20.980 -0.3073  0.1927  0.1086
29376W        W48123  29.601  34.971  16.068 -0.0573 -0.2753  0.0274
29377W        W48124  32.832  22.542  15.171  0.4558  0.0753 -0.0923
29378W        W48125  18.116  12.788   2.334 -0.1446 -0.0105  0.1737
29379W        W48126   7.434  33.122   1.827 -0.0336 -0.0012  0.1447
29380W        W48127   3.950  24.155   3.515  0.0936 -0.0660 -0.2508
29381W        W48128  29.954  26.726  22.429  0.0464 -0.1802  0.1940
29382W        W48129  18.269   6.990   7.701  0.2440  0.3733  0.2689
29383W        W48130  17.567   2.687  21.183 -0.1021 -0.4599 -0.2183
29384W        W48131  26.978   4.314  24.336  0.0852  0.3156  0.1416
29385W        W48132  12.024  30.762   8.187 -0.0864 -0.0124  0.0520
29386W        W48133   7.734  29.347  22.631  0.1389  0.1404 -0.1195
29387W        W48134  33.530   0.403  18.439 -0.4676  0.2448  0.2559
29388W        W48135  34.862  15.196  21.984 -0.2038 -0.0539  0.1817
29389W        W48136  18.319  28.451  21.482  0.0833 -0.1636 -0.1864
29390W        W48137  14.626  12.709   3.314 -0.2857 -0.0521  0.1443
29391W        W48138  13.615  29.701   4.003 -0.3844  0.1285  0.2070
29392W        W48139  23.395   2.138  23.859  0.2143 -0.0506 -0.0957
29393W        W48140  15.112  12.805   2.634  0.1267 -0.1077 -0.0954
29394W        W48141  34.385  34.116  22.703 -0.4571 -0.1043 -0.2357
29395W        W48142   3.454  31.033   2.734 -0.0490  0.0673 -0.1974
29396W        W48143  20.340   5.594   1.019  0.0423 -0.1006 -0.0717
29397W        W48144  31.598  23.221  12.274  0.0274 -0.0827  0.2905
29398W        W48145   9.408  22.334  23.871  0.1861 -0.0765  0.1714
29399W        W48146  19.753  31.128   5.344  0.1910  0.2247 -0.0392
29400W        W48147  27.988  16.278  11.207 -0.1175  0.0001  0.2205
29401W        W48148  35.356  11.701  14.479 -0.3084  0.0618  0.0363
29402W        W48149  22.610  14.856  21.920  0.0732 -0.1039  0.0784
29403W        W48150   6.574  33.874   1.736  0.0358  0.0356 -0.1412
29404W        W48151  26.824  19.492  17.064  0.0760 -0.2552  0.6604
29405W        W48152  15.824  19.644  11.629  0.4357  0.2174  0.2391
29406W        W48153   5.176   8.029  18.320 -0.1519  0.2295 -0.2173
29407W        W48154  18.504   0.319   4.618  0.0332  0.1718  0.1461
29408W        W48155  32.782  13.290  10.330 -0.0148 -0.0781  0.0533
29409W        W48156  33.188  18.844   7.455 -0.3361 -0.0116 -0.1732
29410W        W48157  18.570  28.207  19.779 -0.0378 -0.3589  0.1480
29411W        W48158   2.378  32.305   0.763 -0.2531  0.0861 -0.1649
29412W        W48159  20.356  34.767   3.919  0.4386  0.2327  0.0162
29413W        W48160  29.371   0.736  22.774 -0.1932  0.0557  0.1961
29414W        W48161  23.194  32.024   3.447  0.0229 -0.0623 -0.1019
29415W        W48162  14.958  34.941   2.325 -0.0934  0.0130 -0.1165
29416W        W48163  25.005  18.318  18.474  0.3153  0.1102 -0.1698
29417W        W48164  17.682  25.358   3.632 -0.2110 -0.0431  0.1508
29418W        W48165  19.200   7.208  21.612  0.1237  0.0887  0.0774
29419W        W48166  20.183  15.998  18.153  0.1041  0.0012  0.0441
29420W        W48167  29.540  25.016  19.910 -0.1955  0.1417  0.2599
29421W        W48168   4.705   7.342   3.157  0.1139 -0.0553  0.1000
29422W        W48169   6.368  12.046  20.902 -0.2738  0.4377  0.0265
29423W        W48170  21.236  19.231  23.030  0.0678  0.1449  0.1044
29424W        W48171  31.961   6.273  15.014 -0.0632  0.0189  0.1161
29425W        W48172   1.006   6.136  20.577  0.2798 -0.0260 -0.0321
29426W        W48173  31.256  10.401  18.028 -0.5087 -0.1020 -0.0519
29427W        W48174  30.697  17.115   6.606 -0.0415  0.2298  0.1286
29428W        W48175  25.842  29.815   3.121  0.1803 -0.0074  0.2472
29429W        W48176  34.088  19.242  15.127  0.1354  0.3741  0.0812
29430W        W48177  15.070  29.724   2.395 -0.0609  0.0164  0.2546
29431W        W48178   1.499  22.172   0.499  0.3903 -0.1988 -0.0290
29432W        W48179   8.403   5.930   2.507  0.3074 -0.0015 -0.0198
29433W        W48180   9.452  31.872   9.801 -0.2569  0.0381 -0.0850
29434W        W48181   6.074   3.185   1.549 -0.3316  0.3755 -0.1415
29435W        W48182  31.883  20.181   7.541  0.3169  0.0039  0.2461
29436W        W48183  12.411   3.910  12.808  0.2120  0.0104 -0.1977
29437W        W48184  25.252  18.472  12.489  0.5276  0.0213 -0.2647
29438W        W48185  13.423  15.002  18.975 -0.4236  0.3025  0.0008
29439W        W48186  15.390  22.534  22.689  0.2255 -0.1919  0.2832
29440W        W48187  23.764  19.060  11.680  0.1703 -0.2132 -0.0378
29441W        W48188  27.584  10.893   7.770  0.0644  0.2874 -0.2907
29442W        W48189  32.919  32.430   4.828 -0.3016  0.0203  0.3082
29443W        W48190   4.501  35.186   4.290  0.4267 -0.2664 -0.3723
29444W        W48191  29.791   8.434  22.846 -0.0588  0.2940 -0.1817
29445W        W48192  12.383  26.515   8.364 -0.3088  0.0457  0.1004
29446W        W48193  13.810  24.097  23.732 -0.1947  0.0071  0.0380
29447W        W48194  31.028   4.774  11.586 -0.1857 -0.0385 -0.2733
29448W        W48195  29.029  14.286  10.247  0.2101 -0.0448  0.1507
29449W        W48196  29.534  29.325  15.636  0.1944 -0.0712  0.4060
29450W        W48197  34.525  34.411  26.244 -0.2902  0.0619  0.3594
29451W        W48198  20.813   3.466   2.841  0.4235 -0.2177  0.4119
29452W        W48199   2.638   2.371   4.822 -0.1533  0.2866  0.4379
29453W        W48200  10.427  23.436  22.827 -0.4693  0.0408  0.3633
29454W        W48201   3.242  12.335   3.483 -0.0782 -0.2378  0.1007
29455W        W48202   8.860  20.185  21.815 -0.0038  0.3775  0.1025
29456W        W48203  12.115  20.372  13.066 -0.0918 -0.0054 -0.1732
29457W        W48204   0.474   3.077  16.928 -0.0281  0.3035 -0.0468
29458W        W48205   8.104  17.076   5.697  0.0111 -0.0226  0.2606
29459W        W48206  25.502  17.932  23.188 -0.2035 -0.1321  0.2897
29460W        W48207  31.610  22.095  25.378 -0.3673  0.1068 -0.0190
29461W        W48208  26.887  23.890  13.173 -0.0730  0.0889  0.0305
29462W        W48209  26.568  29.832  16.109  0.1219  0.0424  0.2071
29463W        W48210  23.202   8.138   2.426 -0.0799  0.2594  0.3023
29464W        W48211   6.491  23.497  23.988  0.0355  0.0292  0.3198
29465W        W48212   8.319  15.863  10.590 -0.2476  0.2368 -0.3531
29466W        W48213  14.915   0.821  11.492 -0.1411  0.0432 -0.1481
29467W        W48214   7.194  31.251  21.720  0.1571  0.3619  0.1901
29468W        W48215  13.260  27.946   0.839  0.1399 -0.1180  0.3079
29469W        W48216  26.729  28.267  18.711  0.0282 -0.1590  0.2401
29470W        W48217  33.542  20.949  22.148  0.2697  0.0420  0.1522
29471W        W48218   2.179  12.487  18.911  0.3659  0.0170  0.1650
29472W        W48219   9.222  13.998   2.750 -0.4154 -0.2391 -0.0594
29473W        W48220   2.509  28.924   3.169  0.0933 -0.1019 -0.3306
29474W        W48221  20.601   9.608  25.091 -0.0570 -0.2974  0.1743
29475W        W48222   0.508  15.411  20.397  0.0031  0.1399 -0.2261
29476W        W48223  33.045  25.978  25.820 -0.1113  0.0369 -0.1296
29477W        W48224  11.290  15.394  11.359  0.1868 -0.0759 -0.2676
29478W        W48225  22.379  28.030   6.104  0.0142 -0.1017  0.1776
29479W        W48226  16.217   7.851  10.220 -0.1470  0.0077 -0.1506
29480W        W48227  17.059  12.544  20.970 -0.3336  0.1322 -0.0461
29481W        W48228  16.222   7.041  19.952  0.0254 -0.0546  0.0665
29482W        W48229   6.365  28.371  22.979 -0.3073  0.5234  0.3060
29483W        W48230   2.939  24.539   2.718  0.1990  0.0807 -0.3226
29484W        W48231  22.868   0.874  15.158 -0.2201 -0.1245  0.1664
29485W        W48232  24.480  20.168  21.236  0.0887 -0.0041  0.1119
29486W        W48233  25.887   6.587  13.868  0.3649 -0.1220 -0.0320
29487W        W48234  16.716   9.227   4.180 -0.1278 -0.0840 -0.2998
29488W        W48235  25.460  14.834  23.568  0.0909  0.0164 -0.1259
29489W        W48236  18.742  33.325  20.746 -0.2815  0.1570 -0.1382
29490W        W48237  10.413  18.280   4.568 -0.0175  0.0124  0.0221
29491W        W48238  28.546  31.964  17.567 -0.0026  0.1618 -0.2119
29492W        W48239  25.747  16.201  14.277 -0.0740 -0.0753  0.2199
29493W        W48240  25.124  19.893   9.721  0.0989 -0.2695 -0.2563
29494W        W48241  25.724  34.973  18.752 -0.0752 -0.0131 -0.2775
29495W        W48242  35.383  32.266  16.609  0.1182  0.0041  0.1170
29496W        W48243  11.184   5.037  13.167  0.1255  0.0651 -0.1195
29497W        W48244  27.045  26.321  20.941 -0.4978 -0.1736  0.0103
29498W        W48245  33.332  28.784  13.096  0.1814 -0.1566 -0.1833
29499W        W48246  22.272  19.345  15.429 -0.0711  0.0330  0.3834
29500W        W48247  21.698  17.278  15.871 -0.3286  0.0446  0.0830
29501W        W48248   9.990   1.921   4.758  0.1604  0.0823 -0.2390
29502W        W48249   7.728  22.204   9.425  0.0250  0.1325  0.0017
29503W        W48250  32.807  32.969   3.796  0.0550 -0.0412 -0.1529
29504W        W48251  16.846  28.013  11.944 -0.1956 -0.0019 -0.1269
29505W        W48252   5.400  11.996  25.776 -0.2801  0.2234  0.1760
29506W        W48253   9.888  14.682  18.915 -0.1758 -0.1224  0.1195
29507W        W48254   7.461   2.905   0.451 -0.2045  0.1275  0.1093
29508W        W48255  31.314  26.027   1.637  0.0613 -0.1598 -0.1448
29509W        W48256  16.576  12.042   0.841  0.1376  0.0307  0.0034
29510W        W48257  30.313   3.033  19.556 -0.2674 -0.1978 -0.2220
29511W        W48258  32.454  22.376   8.569 -0.1798 -0.2906 -0.3862
29512W        W48259  25.917  18.940  21.398 -0.0046 -0.1365 -0.0614
29513W        W48260  24.637  29.249  21.504 -0.0469  0.1147  0.2666
29514W        W48261  19.412   6.252  21.096  0.1482 -0.0206  0.0052
29515W        W48262  23.577   9.337  23.591  0.1056 -0.0480 -0.1183
29516W        W48263   1.163  17.123  19.299  0.0559 -0.2118 -0.1632
29517W        W48264  21.595  10.009  21.040  0.1648 -0.0840 -0.0069
29518W        W48265  16.120   7.425   1.687  0.2692  0.0534 -0.2513
29519W        W48266  24.199  15.233  19.744 -0.3191 -0.1662 -0.2613
29520W        W48267   4.864   9.183   1.327 -0.2760 -0.2061 -0.2734
29521W        W48268  26.654  15.950  21.302 -0.0144  0.1613 -0.2650
29522W        W48269  17.186  30.242   5.850 -0.1469 -0.1055  0.0572
29523W        W48270  27.971  28.614   3.702 -0.2099  0.1787 -0.0932
29524W        W48271  20.887   2.632  17.449 -0.0487  0.1914 -0.0805
29525W        W48272  24.631   8.788   1.176  0.0792 -0.1514  0.1530
29526W        W48273  18.773  28.523  20.133  0.0080  0.0053 -0.0068
29527W        W48274  30.844   2.422  12.908  0.2017 -0.0512 -0.2097
29528W        W48275  14.172   8.468   6.865 -0.2253 -0.0316  0.3528
29529W        W48276  22.953  11.922   3.493  0.3080  0.1955 -0.1096
29530W        W48277  23.973   6.630   2.693 -0.4020 -0.1262 -0.0826
29531W        W48278   3.999  27.666   4.438 -0.0223 -0.3867  0.1434
29532W        W48279  34.025   4.931   7.110  0.1157 -0.1898 -0.1013
29533W        W48280  18.518  30.626   3.360 -0.0631 -0.0479 -0.2207
29534W        W48281  27.177  20.877  23.963  0.1193 -0.1731  0.0830
29535W        W48282   4.511   4.778  17.495 -0.1348 -0.1984 -0.0131
29536W        W48283  11.379  17.351  24.711 -0.3377  0.1017  0.0060
29537W        W48284  13.571  21.879  23.568 -0.2878 -0.1752 -0.1138
29538W        W48285  24.583   2.565  18.844 -0.1039 -0.2111 -0.0112
29539W        W48286   1.836  31.132  10.671  0.0715 -0.0415 -0.3101
29540W        W48287   8.450   6.225  24.545 -0.0027 -0.0531  0.3219
29541W        W48288  21.766  32.389  24.113 -0.0862 -0.0581 -0.1093
29542W        W48289   0.979  11.715  15.768  0.2862  0.0090 -0.0493
29543W        W48290  13.686  27.357  13.680 -0.4050 -0.3968  0.1516
29544W        W48291  20.785   8.748  22.753  0.0284 -0.1676  0.1222
29545W        W48292   3.834  25.656   9.722 -0.1026  0.1005 -0.0048
29546W        W48293  30.871  28.750  13.948  0.3126 -0.1586  0.1667
29547W        W48294   6.924   5.642  25.566  0.0326  0.2155 -0.0987
29548W        W48295  16.718  17.456   7.095  0.3684  0.1259 -0.3507
29549W        W48296  10.477  11.729   4.018 -0.0611  0.1539 -0.2605
29550W        W48297   1.894  25.948   0.599 -0.2610  0.0926 -0.0796
29551W        W48298  22.685   3.830   4.518 -0.1174 -0.0188  0.0642
29552W        W48299  10.292  25.520  10.521  0.0407 -0.1455 -0.0527
29553W        W48300  30.786  10.149  22.189  0.3399  0.0030  0.1667
29554W        W48301  30.278   9.550  18.452 -0.1569  0.3259 -0.0905
29555W        W48302   0.201  23.112  10.968  0.2086  0.0325 -0.1772
29556W        W48303   6.049  33.952  12.116 -0.0530 -0.3128 -0.2045
29557W        W48304  28.713  13.571  19.737  0.1474 -0.3585  0.1319
29558W        W48305  23.224  34.791   5.981 -0.0277 -0.0002 -0.2200
29559W        W48306  26.662   0.578  18.719  0.0150  0.1491 -0.0057
29560W        W48307  21.284  29.286  17.363 -0.0489  0.0313 -0.1959
29561W        W48308   0.321  34.148   0.984  0.0397  0.1629 -0.0644
29562W        W48309  16.041   1.099  21.401  0.0689  0.1900 -0.0184
29563W        W48310  31.255  16.764  19.418  0.2434  0.0928 -0.1003
29564W        W48311  32.932   9.569  13.044  0.0316 -0.1107  0.0795
29565W        W48312  23.845  10.133   2.637  0.3836 -0.4407 -0.2107
29566W        W48313   3.414  10.695  25.467  0.2391  0.1832 -0.3084
29567W        W48314   1.786  27.029  21.758 -0.0181 -0.0706 -0.1095
29568W        W48315   3.557   4.776  20.329 -0.2764 -0.0171  0.1200
29569W        W48316  25.794  29.965   0.107 -0.0720  0.3053 -0.0037
29570W        W48317   1.175   4.080   4.724  0.2845 -0.1429  0.0725
29571W        W48318  34.087  33.076  24.312 -0.1864 -0.1830  0.5534
29572W        W48319  27.993  11.063   9.445  0.0762  0.1689  0.0293
29573W        W48320  20.615   9.870   0.432  0.0681  0.1448  0.1412
29574W        W48321  17.300  19.763  13.571  0.2362  0.2930 -0.1873
29575W        W48322  13.349  27.481   8.445  0.0422  0.0464 -0.1256
29576W        W48323   3.786  19.493  17.089  0.2732  0.0857 -0.0602
29577W        W48324  32.458  24.924   1.023 -0.0730 -0.0535 -0.2232
29578W        W48325  33.196  27.378  23.266 -0.1011 -0.1494 -0.1223
29579W        W48326  24.333   7.042   1.423 -0.2022  0.3711 -0.2394
29580W        W48327  35.351  34.021  22.932 -0.3576 -0.2696  0.0793
29581W        W48328  30.741   4.674  12.046 -0.0352 -0.0233 -0.1110
29582W        W48329  15.403  32.049   9.490  0.0961  0.4989  0.0422
29583W        W48330   5.577  32.122   0.828 -0.2558  0.1340  0.0392
29584W        W48331  11.890  15.759  22.599  0.3652  0.0322 -0.1281
29585W        W48332  30.545  10.156  21.757 -0.2550  0.0639 -0.1330
29586W        W48333  25.522  21.870  17.423 -0.2693  0.1210  0.0604
29587W        W48334   9.402  17.089  26.157  0.0523 -0.1912  0.2204
29588W        W48335  17.557  33.134   3.964 -0.0636  0.0385 -0.1831
29589W        W48336   1.260  15.990  18.776 -0.0469  0.1971  0.2432
29590W        W48337   1.280  22.431  16.290 -0.2283 -0.3720  0.0606
29591W        W48338  27.785  18.636  13.483 -0.0479 -0.1951 -0.1635
29592W        W48339  12.330  32.874   9.862 -0.0509  0.1597 -0.3497
29593W        W48340   1.830  24.450   2.005  0.1136  0.2062  0.0469
29594W        W48341  20.331  11.379  18.110  0.1828 -0.2471  0.1893
29595W        W48342  20.552  31.821   2.670  0.1746  0.0535  0.2399
29596W        W48343   7.727   1.387  22.140  0.3361 -0.0089  0.0065
29597W        W48344  23.575  26.078  13.102 -0.1572  0.0845 -0.0065
29598W        W48345   2.787   1.363   6.080  0.0583  0.0867 -0.1750
29599W        W48346  15.769  32.400  23.462  0.0557  0.0174 -0.2972
29600W        W48347  32.899  12.999  16.858 -0.3239 -0.0318 -0.4134
29601W        W48348  26.791  25.477  10.783  0.0137  0.3763  0.0255
29602W        W48349  18.785   4.528  10.145  0.0508  0.0150 -0.3439
29603W        W48350   1.590  12.609   3.551 -0.0445 -0.1581 -0.1565
29604W        W48351   3.643  28.665   1.359  0.0597  0.2498  0.0049
29605W        W48352  12.245   2.846  20.303  0.2885 -0.1213  0.2597
29606W        W48353  27.836  16.292  25.644 -0.3083 -0.1217  0.3433
29607W        W48354  13.640  33.407   4.939  0.1311 -0.0164  0.1374
29608W        W48355   4.090  28.205  12.890  0.0907 -0.3030  0.1545
29609W        W48356   2.035   1.925   5.239  0.0721 -0.1780  0.0539
29610W        W48357  35.225   0.171   8.078 -0.1839 -0.1084  0.1241
29611W        W48358  10.735  20.438  24.131  0.1006 -0.0358 -0.1566
29612W        W48359   3.351   2.219  19.892  0.0376  0.2002  0.0476
29613W        W48360   5.357  12.726  19.576 -0.1175  0.0804  0.0898
29614W        W48361  19.218  13.086   9.304 -0.4855 -0.2289 -0.2431
29615W        W48362  19.872   1.118   1.150 -0.1737 -0.1913  0.3284
29616W        W48363  18.891  21.136   8.032 -0.3598  0.0374 -0.0720
29617W        W48364  23.937  28.209  26.101 -0.1401 -0.0909  0.1379
29618W        W48365   5.919  28.434  15.338 -0.0693  0.0374  0.0251
29619W        W48366   1.704   7.009   2.252  0.2405  0.1918  0.3770
29620W        W48367   7.776  21.136   8.332 -0.0229  0.0120 -0.3603
29621W        W48368  26.945   5.187  23.115 -0.0330  0.2051  0.3159
29622W        W48369   1.161  35.130  18.914 -0.0516  0.2096 -0.2876
29623W        W48370  15.647  25.985  11.359 -0.1689  0.5367  0.1141
29624W        W48371   7.822  17.908   1.279  0.0851 -0.4246 -0.2017
29625W        W48372  33.708  28.427  17.097  0.2223  0.0804  0.1687
29626W        W48373   7.493  19.621   5.405 -0.0966 -0.0383 -0.0370
29627W        W48374   0.973  23.485   2.446 -0.0798  0.2154 -0.1919
29628W        W48375  18.424  32.136   5.997 -0.0376  0.0613  0.3683
29629W        W48376  12.393   3.545  21.688  0.0461  0.2538  0.3004
29630W        W48377  12.746  11.346   7.161 -0.0677 -0.1605 -0.3130
29631W        W48378  10.122  13.468   3.421  0.0352  0.1206  0.0278
29632W        W48379  10.009  31.568   3.294  0.1123  0.1352 -0.0373
29633W        W48380  14.187  18.515   9.074  0.0021 -0.1061 -0.1768
29634W        W48381  15.793  33.928   4.016  0.0141  0.2001  0.0013
29635W        W48382   5.148   1.612  11.404 -0.3286  0.1685 -0.1337
29636W        W48383   1.545  29.486   7.949 -0.2466  0.0778 -0.0429
29637W        W48384  16.658  31.730   9.033  0.0792 -0.1298  0.0186
29638W        W48385   4.606  12.145   2.065  0.1881 -0.0145  0.1083
29639W        W48386  22.861   4.477  19.994  0.1684  0.3762  0.0449
29640W        W48387  10.680  14.760   7.260  0.1489 -0.1266  0.0267
29641W        W48388  11.071  12.961   5.546  0.1592  0.1136 -0.0705
29642W        W48389   6.392  10.373   4.391 -0.0831 -0.1699  0.2691
29643W        W48390  23.380  16.029  18.768 -0.1375  0.0065  0.0237
29644W        W48391  34.117  12.678   8.329 -0.0122  0.0505 -0.0370
29645W        W48392  32.795  35.259  21.925 -0.1962 -0.1094  0.1043
29646W        W48393   1.464  32.701   4.071 -0.3274 -0.0887 -0.1266
29647W        W48394  12.225  25.684  23.823  0.0655 -0.2310 -0.0871
29648W        W48395   2.209  29.249   5.818  0.1004  0.2935 -0.0141
29649W        W48396  26.338  33.788  17.167  0.0847 -0.0784  0.1409
29650W        W48397  29.196   6.592  17.427  0.1639  0.1617 -0.0034
29651W        W48398  29.137  18.278   8.513 -0.2428 -0.2326  0.0600
29652W        W48399   5.122  34.562   3.484 -0.0049  0.2944 -0.1826
29653W        W48400  15.403  11.735  22.727 -0.3602  0.0332  0.2716
29654W        W48401  12.247  18.154  20.124  0.0505  0.0952 -0.4681
29655W        W48402   4.407   5.593  24.652 -0.2331 -0.1614 -0.2680
29656W        W48403  27.473  34.254  18.826  0.2349 -0.0644  0.2782
29657W        W48404  19.904  24.223   2.040 -0.2396  0.0025 -0.1900
29658W        W48405  11.535  32.905  21.458  0.0664 -0.0788 -0.1542
29659W        W48406   4.788   4.367  23.368  0.5219 -0.3222  0.1498
29660W        W48407  31.160  31.598  20.397  0.0452 -0.2992 -0.1991
29661W        W48408   8.097  14.786   4.387  0.0712 -0.0253  0.0279
29662W        W48409  33.909  19.380  19.378 -0.3482  0.0796  0.1559
29663W        W48410   6.857  33.724  23.511  0.0514 -0.1186 -0.3713
29664W        W48411  34.607  11.752  18.817  0.0451  0.0807  0.0603
29665W        W48412   5.715  10.497  23.072 -0.3865 -0.0554 -0.2382
29666W        W48413   2.578  18.032   3.773 -0.2042  0.0468  0.1109
29667W        W48414  22.907  10.083  19.003 -0.2305 -0.2923 -0.0547
29668W        W48415  26.063   2.489  16.327 -0.1990 -0.2278 -0.1533
29669W        W48416   4.425  33.836   4.127  0.0783 -0.1897  0.1077
29670W        W48417   7.579  31.166  12.797  0.1987  0.0140  0.2146
29671W        W48418  12.231   8.807  22.649  0.1363 -0.1104  0.1750
29672W        W48419  12.017  29.486   1.936 -0.0292  0.1702 -0.4434
29673W        W48420  34.045  33.917  18.043  0.1766  0.1939 -0.1552
29674W        W48421   5.584  17.544  24.462  0.3195 -0.1021  0.4025
29675W        W48422   5.531  20.579   0.911 -0.1593  0.0055  0.5575
29676W        W48423  25.125   1.199  13.901  0.2720 -0.1852  0.0941
29677W        W48424  34.793  10.467  16.230 -0.0033  0.1182  0.2954
29678W        W48425   1.290  24.615   4.786  0.1328  0.1077 -0.0837
29679W        W48426  21.032   6.938   2.599  0.1831 -0.0279  0.2580
29680W        W48427   4.122  11.673   7.062  0.1744  0.2697  0.2119
29681W        W48428  30.569  28.161   9.698 -0.2926  0.0589  0.0532
29682W        W48429   1.504  28.167  21.310  0.0906  0.0531 -0.0904
29683W        W48430  26.498   4.751  25.166  0.1447  0.1439  0.3373
29684W        W48431   0.400  19.671  15.792 -0.2049  0.1335  0.1079
29685W        W48432  12.558  31.793  25.768  0.1523 -0.0474  0.1742
29686W        W48433   9.487   9.358  24.193 -0.0822  0.2406 -0.0933
29687W        W48434  11.665  24.884   5.504  0.0850 -0.0560  0.1799
29688W        W48435   0.206  26.307   1.578 -0.2972  0.3120 -0.2939
29689W        W48436   4.997  13.138  18.168 -0.0347  0.1173 -0.0851
29690W        W48437   8.145  27.959  21.774 -0.1410 -0.0516 -0.1608
29691W        W48438   0.688   4.005   1.508  0.1451  0.1230  0.0686
29692W        W48439  12.905  26.467   0.617  0.3002 -0.1999  0.0433
29693W        W48440  15.091  24.827  11.782  0.3749  0.1297  0.0016
29694W        W48441   2.988  33.721   6.936 -0.0438  0.0613  0.2551
29695W        W48442   8.507  31.899   1.201 -0.1651 -0.3666  0.0760
29696W        W48443  18.715  29.734  19.581 -0.1562 -0.2707 -0.1977
29697W        W48444  32.100   5.684  16.876  0.1751  0.1540 -0.1667
29698W        W48445  34.990  26.333  22.631 -0.4606 -0.1309  0.2318
29699W        W48446   4.113   9.113   0.353 -0.0680  0.1481 -0.1013
29700W        W48447  13.136   5.185  19.293  0.1388  0.0693  0.3240
29701W        W48448  17.365   0.430   0.408 -0.0184 -0.0505  0.3047
29702W        W48449  16.668  25.931   5.665 -0.1327 -0.0839  0.0099
29703W        W48450  20.181   8.782   9.811  0.2490 -0.0154 -0.3531
29704W        W48451  35.039  27.116  24.045  0.1194 -0.0305 -0.0737
29705W        W48452  13.973   9.794   7.378 -0.0899  0.0881 -0.0365
29706W        W48453  27.374   0.440   2.890 -0.0350  0.0242  0.1921
29707W        W48454  23.965  12.367  20.617  0.1906 -0.0648  0.3024
29708W        W48455  13.352  31.082  21.952  0.1802  0.0753  0.0582
29709W        W48456  31.481   6.126  12.149  0.0316 -0.4643  0.0421
29710W        W48457  12.967  25.594  26.158 -0.2177  0.0793  0.1393
29711W        W48458  25.620  33.729  25.657  0.1544  0.0323  0.1361
29712W        W48459  24.146   1.165   3.410 -0.0863 -0.2017 -0.0290
29713W        W48460  31.143  15.101  14.686  0.0336  0.0835 -0.1501
29714W        W48461   7.162  25.866  12.555 -0.0852 -0.1649 -0.2385
29715W        W48462  33.876   1.487   6.766  0.1579 -0.0107 -0.2932
29716W        W48463   5.267   4.327   3.309  0.1970  0.2373  0.1766
29717W        W48464  23.777  31.078  23.046  0.1503 -0.2266 -0.1378
29718W        W48465  29.150   1.313   2.395 -0.0390  0.0105 -0.0014
29719W        W48466  17.068  20.496   6.920  0.0588  0.1527  0.0423
29720W        W48467   4.695  17.598   1.404  0.0973  0.4066 -0.3483
29721W        W48468   7.711   0.587  10.065  0.1389  0.1169 -0.1308
29722W        W48469  34.747   4.207   4.217 -0.0808  0.0020 -0.0306
29723W        W48470   4.564  27.204   3.770 -0.1552  0.0365  0.4043
29724W        W48471  29.224  24.544   7.162 -0.1843 -0.2884  0.0148
29725W        W48472  29.273  24.525  12.343  0.0334  0.2774 -0.0512
29726W        W48473  21.806  30.415   4.460  0.4068  0.0519 -0.1542
29727W        W48474   9.201  23.973  16.788 -0.2383  0.1559  0.5210
29728W        W48475  11.466   7.987   0.714 -0.0543 -0.4570  0.2840
29729W        W48476   3.435  16.093  16.115 -0.1119 -0.3321 -0.2246
29730W        W48477  16.631   7.134  22.257  0.0915  0.3845  0.0192
29731W        W48478  10.191   0.479   6.496 -0.0423 -0.1895 -0.2688
29732W        W48479  29.331  20.751   6.993  0.0790  0.1306 -0.1169
29733W        W48480  10.819  14.542   1.432 -0.1856  0.1575 -0.1722
29734W        W48481  33.137  12.557   9.441 -0.1182  0.3774 -0.1305
29735W        W48482  31.820   6.626   1.031 -0.0158  0.3617 -0.2525
29736W        W48483  22.055  21.979  15.852 -0.0046 -0.0504 -0.2801
29737W        W48484  16.280   6.026  19.052 -0.0334  0.1063  0.0413
29738W        W48485  27.501  10.003  25.172  0.1515  0.1437 -0.1863
29739W        W48486  29.598   4.937  21.868 -0.0040  0.2522 -0.1129
29740W        W48487  19.099  26.808  20.874 -0.1501 -0.2805  0.0295
29741W        W48488  22.379  15.435  24.970 -0.1285 -0.1346 -0.1914
29742W        W48489  18.452   1.081   5.294 -0.0915 -0.0289 -0.1723
29743W        W48490  31.635   3.175  22.802  0.1155  0.0661 -0.0588
29744W        W48491  32.394  29.451  12.242 -0.1372  0.1889 -0.2262
29745W        W48492  15.476   5.473   9.039  0.0053  0.1308 -0.0037
29746W        W48493  28.976  15.344  19.875 -0.1003 -0.0810  0.0213
29747W        W48494  13.541  19.130  24.040 -0.2913  0.1629 -0.0158
29748W        W48495  31.337   2.010  20.646  0.2241  0.0539  0.0425
29749W        W48496  16.035   7.802   6.967 -0.2823 -0.2779 -0.0614
29750W        W48497  12.554  25.104   6.466 -0.1397  0.2741  0.0218
29751W        W48498  17.832  26.872   2.130 -0.1117  0.0478  0.0381
29752W        W48499  34.402  33.385  23.716  0.1345  0.0503  0.1465
29753W        W48500  22.633   8.249   6.643  0.0141 -0.2491 -0.1447
29754W        W48501  11.164  14.775   0.680  0.4113 -0.2069 -0.2040
29755W        W48502  18.414   6.916  19.501  0.2540  0.0207  0.0556
29756W        W48503  24.319  24.196  20.300 -0.0194  0.0713 -0.0282
29757W        W48504  21.156  18.570  21.331 -0.1675 -0.1434  0.2836
29758W        W48505  13.190  26.564   7.585  0.2464  0.3163  0.0774
29759W        W48506  12.518  28.392  14.532 -0.0881 -0.1665 -0.1039
29760W        W48507  16.311  12.793  18.755  0.1266  0.0125  0.1140
29761W        W48508   6.130   6.038  12.068 -0.0361  0.2147 -0.5817
29762W        W48509  23.243  26.300   3.011 -0.1365 -0.0166  0.1948
29763W        W48510   9.713  10.035  11.063  0.2429 -0.0323 -0.2043
29764W        W48511   8.754  16.406  12.180 -0.0607 -0.2617  0.1059
29765W        W48512  32.771  34.642  15.185  0.0059 -0.0113 -0.2523
29766W        W48513   3.000  32.060  18.661  0.0598 -0.0378 -0.1032
29767W        W48514  14.938  22.120   7.046 -0.0608 -0.0999 -0.0413
29768W        W48515  22.997  22.516  13.299  0.2297  0.0869 -0.0606
29769W        W48516   3.514  19.703  15.005 -0.2092 -0.4369  0.0899
29770W        W48517  12.330  19.164  22.135  0.0409  0.1424  0.2343
29771W        W48518  28.623  23.431  16.570 -0.2907 -0.0113  0.0901
29772W        W48519  13.135  25.140  10.547 -0.0334 -0.2646  0.1526
29773W        W48520   8.319  25.042   7.795 -0.0644 -0.0115  0.2325
29774W        W48521   3.167  28.676   9.759 -0.0295 -0.1333 -0.1649
29775W        W48522   5.248   6.448  22.831 -0.1890 -0.3595 -0.1183
29776W        W48523   8.518   5.621  25.226 -0.0385  0.1695 -0.0688
29777W        W48524  31.181  11.907  13.158  0.1202  0.0113  0.3559
29778W        W48525   2.084  35.177   6.162 -0.4390 -0.3234 -0.1344
29779W        W48526  27.386  10.878  17.632 -0.2607 -0.1422  0.1326
29780W        W48527   7.738  31.140   9.608  0.0262 -0.2333 -0.0090
29781W        W48528  28.726  15.691   5.969 -0.0128 -0.2306  0.2272
29782W        W48529  11.376  29.871  14.521  0.0452 -0.5185  0.2275
29783W        W48530  11.623  18.910  21.771  0.0216 -0.1059  0.1492
29784W        W48531  23.796  12.666  12.279 -0.0805 -0.2950 -0.3067
29785W        W48532  11.629  25.811   7.473 -0.4466 -0.2813 -0.0531
29786W        W48533   0.621  33.699   0.850 -0.4040 -0.1760 -0.2423
29787W        W48534  32.181  24.613  23.261  0.1198 -0.2903  0.0892
29788W        W48535  26.399  10.318  11.164  0.3018 -0.1322 -0.0602
29789W        W48536   0.393  14.897  25.969  0.0286 -0.0574 -0.1685
29790W        W48537  26.275   7.439  14.696 -0.1613 -0.3911 -0.0712
29791W        W48538  21.573  23.031  25.243 -0.0468  0.0702  0.1224
29792W        W48539   5.260  25.584   2.069  0.1045  0.0471  0.0694
29793W        W48540  16.119  22.385  26.008 -0.1356 -0.1797 -0.4740
29794W        W48541   9.265  24.669   0.657  0.0297 -0.1496 -0.0600
29795W        W48542  20.359  23.652   0.937  0.0245 -0.2342  0.0683
29796W        W48543  10.046  20.433  25.971 -0.0761  0.2680 -0.0342
29797W        W48544  14.145  18.775  22.437  0.1581 -0.0802  0.2215
29798W        W48545  35.274  22.421   9.571 -0.3171 -0.5128  0.2376
29799W        W48546   8.650   2.776   9.695  0.1100 -0.4824 -0.0944
29800W        W48547  24.577  13.936  23.993  0.1118  0.1442  0.0445
29801W        W48548  28.937  27.403  12.161 -0.1392 -0.0375 -0.0503
29802W        W48549  25.601   7.905  17.280  0.0479 -0.0168  0.0174
29803W        W48550  12.430  16.553   5.123  0.1611  0.2039  0.0804
29804W        W48551  26.669   3.072  13.023 -0.2265 -0.1285 -0.0269
29805W        W48552  18.321   3.065   9.062  0.3170 -0.1524  0.2956
29806W        W48553  15.245  22.098  15.218  0.1921 -0.2570 -0.2743
29807W        W48554   5.438  17.859  22.542  0.0081  0.3177 -0.0890
29808W        W48555  29.882  22.631  10.885  0.2682  0.1884  0.2052
29809W        W48556   0.104  29.029  21.130 -0.1954  0.1728 -0.0452
29810W        W48557   3.374  28.369  11.214 -0.0765 -0.0127 -0.1013
29811W        W48558  32.559  34.083  16.065  0.0449  0.1611  0.2734
29812W        W48559  17.606   4.539   0.875 -0.2252 -0.1333  0.2076
29813W        W48560  28.310   1.364  18.154 -0.0279 -0.1436 -0.0975
29814W        W48561   4.868   1.664   0.007 -0.3602 -0.5351 -0.2936
29815W        W48562  21.245  19.186   0.342 -0.1661 -0.2042 -0.1846
29816W        W48563  13.474  30.085   0.183  0.2615  0.1059  0.2358
29817W        W48564  12.173  11.722  24.610 -0.0458  0.1731 -0.0062
29818W        W48565   2.098  21.006  15.909 -0.4081  0.0319  0.1580
29819W        W48566  21.346   4.140   3.413  0.0563  0.0699  0.0743
29820W        W48567  18.570   4.987  24.478  0.3634 -0.0592  0.0566
29821W        W48568  21.863   8.720   0.811 -0.4592  0.0235 -0.3231
29822W        W48569  18.163   8.049  20.502  0.2597 -0.0578  0.0269
29823W        W48570  13.471   6.837  22.783  0.0944 -0.0431  0.1151
29824W        W48571  28.061  21.915  25.697 -0.0449 -0.0131  0.0449
29825W        W48572   0.821  22.488  25.236 -0.0309 -0.2527  0.2156
29826W        W48573  22.606  18.307   0.420  0.1940  0.2846  0.3054
29827W        W48574   3.938  17.569  21.089 -0.3925  0.0930  0.1080
29828W        W48575  29.565  15.122  19.527  0.0804  0.1324 -0.1398
29829W        W48576   7.690  32.024  12.628  0.2754 -0.1411 -0.0769
29830W        W48577  30.294  20.004  14.319 -0.0646  0.1500 -0.0191
29831W        W48578  22.997  12.463   1.899  0.0505 -0.0496  0.2112
29832W        W48579  15.951  14.365  13.620  0.0692  0.1521 -0.0437
29833W        W48580   6.972   7.832  20.131  0.0564 -0.0508 -0.0071
29834W        W48581  17.210   2.377   4.282 -0.1980 -0.0430  0.0042
29835W        W48582  14.731  13.626   3.419 -0.1760 -0.2325  0.0090
29836W        W48583   7.615  30.182   9.581  0.1976  0.1597  0.1293
29837W        W48584  26.261  22.032  26.028 -0.2812 -0.0346  0.0410
29838W        W48585   6.293  15.910  25.176  0.2978  0.0809  0.1036
29839W        W48586  19.943  12.917  22.165 -0.1892  0.0863 -0.1868
29840W        W48587  35.268  30.001   1.543 -0.2335 -0.6276 -0.1377
29841W        W48588  14.634  15.817  10.817 -0.2848 -0.0437 -0.1980
29842W        W48589  33.235   5.024  20.235 -0.1365  0.0832 -0.0199
29843W        W48590  28.862  11.223   7.480 -0.3463  0.2638 -0.2518
29844W        W48591   9.587  17.255   4.901 -0.2550  0.1609  0.2426
29845W        W48592  27.532  15.903   6.616 -0.2684  0.2125  0.0083
29846W        W48593   4.294  30.451  21.851 -0.0883  0.4739 -0.1559
29847W        W48594   4.721  22.648   2.417  0.2479 -0.0965 -0.0946
29848W        W48595  12.582  30.436  14.077  0.2785 -0.3613 -0.2742
29849W        W48596  18.020  23.028   5.715 -0.0675  0.1336 -0.0501
29850W        W48597  34.625   3.582  16.318 -0.1490  0.1553 -0.0278
29851W        W48598  27.960   3.026   3.793  0.1878  0.3254  0.0349
29852W        W48599  31.710  19.085  19.427 -0.1962 -0.1143 -0.0410
29853W        W48600  26.236   2.279  14.154 -0.1343 -0.0491  0.0637
29854W        W48601  19.707  23.716   3.357 -0.1783  0.1339 -0.0954
29855W        W48602  12.361  10.780   7.514 -0.0044  0.0137 -0.0925
29856W        W48603  23.946  33.538   4.123  0.3407  0.0953 -0.0374
29857W        W48604  22.426  33.362  20.235 -0.0537  0.4667 -0.2531
29858W        W48605   9.461  19.320  22.560 -0.0153  0.1055 -0.1435
29859W        W48606  28.253  33.552   4.864  0.0710  0.0464 -0.2050
29860W        W48607  33.531   7.559  13.531 -0.0666 -0.1984  0.2558
29861W        W48608   9.539  17.580   0.019  0.2400 -0.2935 -0.4634
29862W        W48609  22.161  25.958  20.694 -0.1932 -0.2017  0.0182
29863W        W48610  25.591   7.379  20.110  0.4657  0.0078 -0.3994
29864W        W48611   6.649   3.292  23.303 -0.1135  0.3758  0.0589
29865W        W48612  22.979   0.901   6.398  0.1003 -0.1192  0.1752
29866W        W48613  12.509  11.563  11.724 -0.1471 -0.1389 -0.2056
29867W        W48614  26.065  32.855   3.864  0.0564 -0.1707 -0.2701
29868W        W48615  31.457  20.281  13.692  0.0385  0.5091  0.0059
29869W        W48616  26.606   9.794  15.295  0.0464 -0.0071 -0.1684
29870W        W48617  35.241  30.541  23.261  0.0488 -0.3342 -0.2505
29871W        W48618  31.962   6.309  12.944  0.1316 -0.0303 -0.0631
29872W        W48619  18.922  19.872  19.273 -0.0218  0.1705  0.0063
29873W        W48620   9.543  32.491   8.486 -0.3998 -0.0697  0.1054
29874W        W48621   2.375   4.540   3.919 -0.2903 -0.2305 -0.1291
29875W        W48622  29.733  26.409  15.600  0.1688  0.2218  0.1207
29876W        W48623   5.301  28.396   6.330  0.1397 -0.1011  0.3785
29877W        W48624  28.464  33.600  11.657 -0.1053  0.0015 -0.0137
29878W        W48625  27.838  18.556  22.825 -0.3053  0.0454 -0.2209
29879W        W48626  19.112  28.162  23.177  0.1507  0.0145  0.2316
29880W        W48627   5.411   8.695  21.526 -0.0578 -0.0587  0.0482
29881W        W48628  31.623   2.892   6.300 -0.1742  0.4966  0.2411
29882W        W48629  14.890  18.724   6.988 -0.2230  0.4530 -0.0126
29883W        W48630  33.373  22.978  11.514  0.1840  0.0275  0.1695
29884W        W48631  24.075   5.380  23.534  0.1426  0.1055 -0.2588
29885W        W48632  21.106  35.247   0.999 -0.0978  0.2418 -0.3557
29886W        W48633   7.610   7.263  11.743 -0.0192 -0.2282 -0.1720
29887W        W48634   5.852   6.057   5.684  0.2191 -0.1687  0.0426
29888W        W48635   2.423   0.010   1.740 -0.1956 -0.3097 -0.0492
29889W        W48636  16.095  26.578   9.608 -0.0373 -0.1354 -0.0922
29890W        W48637  24.570  33.309  18.839  0.2404  0.0696 -0.1763
29891W        W48638  15.514   1.227   2.394  0.0466  0.0428  0.3714
29892W        W48639   6.774  31.357   7.149  0.0758  0.1363  0.1120
29893W        W48640   4.581   3.249  18.286  0.4328 -0.0494  0.1898
29894W        W48641  12.273   2.194  25.137  0.0854  0.0563  0.0009
29895W        W48642   9.308  31.876  14.808 -0.2608 -0.2189 -0.0715
29896W        W48643   8.976  20.653  23.536  0.3406  0.1832  0.0361
29897W        W48644  27.877  20.104   7.690  0.1200  0.0216 -0.3340
29898W        W48645  27.211   4.774  11.420  0.1632  0.4216  0.2131
29899W        W48646  25.955   3.641  12.425  0.1855  0.3499  0.3984
29900W        W48647   5.593  28.196   3.790  0.2581 -0.0807 -0.2375
29901W        W48648  33.703  33.001  19.293 -0.0757  0.0187 -0.2565
29902W        W48649  24.879  12.247  13.755 -0.3549 -0.1883  0.3163
29903W        W48650  16.890  11.841   3.008 -0.2936  0.1084  0.1843
29904W        W48651  32.318   4.905  12.097  0.0119 -0.1946  0.0321
29905W        W48652  12.127  30.924  22.694 -0.1133 -0.0696  0.3918
29906W        W48653  34.122  18.219  17.208 -0.0623 -0.0156  0.0391
29907W        W48654  18.658  13.200  23.348 -0.0102  0.4656  0.1478
29908W        W48655  16.903  14.645   5.144 -0.1528  0.0183  0.2679
29909W        W48656   8.890   1.275  25.208  0.2203 -0.3630 -0.2697
29910W        W48657  29.618  30.804  21.537 -0.1139  0.1461  0.2163
29911W        W48658   6.451  17.651   7.375  0.1521  0.0020 -0.0298
29912W        W48659   9.636  23.994  25.909 -0.1810 -0.1060  0.1500
29913W        W48660  13.988   5.245  24.178  0.0030 -0.1249  0.0100
29914W        W48661  20.779   7.367   7.788  0.1251  0.1282  0.0702
29915W        W48662  13.195  29.007  16.436  0.1051 -0.1117 -0.2156
29916W        W48663   8.098  26.342   9.091 -0.0384  0.3701 -0.1794
29917W        W48664  18.595   4.060   2.191  0.0549 -0.1950 -0.1351
29918W        W48665  12.139  24.796  16.540 -0.0443 -0.0552 -0.0706
29919W        W48666   8.987   0.921  20.523  0.0103 -0.2126 -0.1171
29920W        W48667  33.287  21.477   6.601  0.1257 -0.2001 -0.0931
29921W        W48668  16.890   4.199  19.796 -0.2159 -0.1012 -0.0487
29922W        W48669  16.613  18.458  25.502  0.0917 -0.0069  0.0213
29923W        W48670  31.721  16.198  23.954 -0.3160  0.0159  0.3363
29924W        W48671  16.364  27.627  12.160  0.0716  0.0819 -0.1518
29925W        W48672  22.634   9.065  24.048  0.0460 -0.2910  0.0659
29926W        W48673  10.690  29.224  14.338  0.0505 -0.1688  0.1039
29927W        W48674  18.743  13.105  22.792  0.0391 -0.0377 -0.2965
29928W        W48675  28.134  26.338  12.149 -0.1628 -0.1975 -0.1632
29929W        W48676  31.428  31.675  13.885 -0.2371  0.0403 -0.2680
29930W        W48677   6.516  13.399  19.684  0.0353  0.1169 -0.1635
29931W        W48678  30.173  22.520  18.199 -0.2615  0.0487 -0.0596
29932W        W48679  18.980   5.555  18.610  0.0534 -0.0288  0.0350
29933W        W48680  25.187  23.921  15.852  0.1212 -0.0305  0.1752
29934W        W48681   5.788  22.646   5.813  0.2516 -0.0118  0.1918
29935W        W48682  22.380  32.978   2.250 -0.0599  0.0174 -0.2658
29936W        W48683  16.823  11.262   3.836 -0.3903  0.0882  0.1236
29937W        W48684  25.194  30.452  19.900 -0.0745  0.0595 -0.0216
29938W        W48685  18.371  14.430  10.211 -0.3994  0.1226  0.1580
29939W        W48686  10.463  32.723   7.462 -0.1536 -0.0149  0.2867
29940W        W48687   8.865  32.311   3.116 -0.0452 -0.0676 -0.1748
29941W        W48688  24.440   2.442  19.921  0.0309  0.0965  0.1509
29942W        W48689  14.772  21.351   2.431  0.2380 -0.1022 -0.0900
29943W        W48690  14.613   9.186  19.811  0.3175 -0.0453  0.0756
29944W        W48691  13.238   0.841   7.897  0.0997  0.1715  0.0040
29945W        W48692   2.458   4.016  20.862 -0.2926 -0.3505  0.0571
29946W        W48693  20.906   8.237   8.052  0.1132  0.1893 -0.0467
29947W        W48694  20.115  11.244   4.315  0.1474  0.1257 -0.1035
29948W        W48695  26.388  15.529  16.047  0.0366  0.1948  0.0919
29949W        W48696  18.337   7.263  24.766 -0.2530  0.1554  0.3648
29950W        W48697  31.615  31.685  19.511 -0.0831 -0.1042  0.3054
29951W        W48698  16.708   9.913   5.075 -0.3777 -0.0113  0.2089
29952W        W48699  29.833  25.602  17.829  0.1644 -0.2728 -0.3599
29953W        W48700  17.444  19.701  12.599 -0.0768  0.0255 -0.1375
29954W        W48701   9.824  30.921  11.176  0.3009  0.0035 -0.0150
29955W        W48702  25.974  15.873   7.007 -0.0890 -0.3380  0.1098
29956W        W48703   7.532  34.385   5.508  0.1757 -0.3153  0.3213
29957W        W48704  11.653  12.636   5.962 -0.0975  0.3869  0.1847
29958W        W48705  26.554  16.563   8.960 -0.0898  0.0748 -0.1118
29959W        W48706   6.662  32.482  13.178  0.3675 -0.4488  0.0400
29960W        W48707  19.378  18.656   3.533 -0.1726 -0.4331  0.1319
29961W        W48708  32.614   7.722  11.459  0.0231 -0.0970  0.4176
29962W        W48709   9.692  33.574  11.977 -0.2280  0.0438 -0.0665
29963W        W48710   6.163  21.812   6.557  0.0716 -0.1055 -0.0706
29964W        W48711  17.834  26.869   0.222 -0.0331 -0.1571  0.0297
29965W        W48712  16.284  14.825  22.325  0.2697  0.1404 -0.0774
29966W        W48713   9.723  20.490  10.746  0.0818 -0.4176  0.2349
29967W        W48714  18.679  11.524   5.266 -0.1468 -0.0079 -0.0151
29968W        W48715  24.790  32.865   3.324  0.3743 -0.1489  0.0658
29969W        W48716  33.139   8.478  24.533  0.2770  0.2332 -0.0883
29970W        W48717  29.477   1.303  13.146 -0.1603 -0.0422 -0.1459
29971W        W48718   5.195  10.011   4.384  0.4133  0.1717  0.0009
29972W        W48719  31.034  18.751  16.993 -0.2855 -0.1407  0.1061
29973W        W48720  28.628  12.090  17.744  0.1470 -0.2719 -0.1169
29974W        W48721   3.613  25.626  24.399 -0.1703  0.0826  0.2103
29975W        W48722  23.804   8.845   2.486  0.2386  0.0899  0.0856
29976W        W48723  27.844  28.016  21.602  0.5540  0.1865 -0.0341
29977W        W48724  25.893   8.964  17.665 -0.0862  0.0362  0.0479
29978W        W48725  14.525  28.171   7.558  0.4047 -0.0622  0.0259
29979W        W48726   7.278  29.636   6.507 -0.0639  0.3608  0.0489
29980W        W48727  12.389   7.930   8.881  0.0483  0.3028 -0.3008
29981W        W48728  33.239  16.159  10.959  0.1659  0.0191  0.0992
29982W        W48729  21.064  11.621   5.644 -0.0046  0.0972  0.1417
29983W        W48730  25.615  30.365   1.416 -0.0758 -0.0962  0.1671
29984W        W48731  17.622  13.801  26.092  0.0369  0.2139 -0.0504
29985W        W48732  26.248  17.692  16.137 -0.0184  0.0069 -0.2672
29986W        W48733  31.754  21.467   8.957 -0.0694 -0.2494 -0.1491
29987W        W48734  33.360  32.007  16.292  0.1102  0.0427  0.3430
29988W        W48735   9.039   5.637  12.649  0.0882 -0.0719 -0.0611
29989W        W48736  14.524  24.207  15.040 -0.1224 -0.0319 -0.0099
29990W        W48737  11.745   2.969  10.520 -0.2625  0.2027 -0.2910
29991W        W48738  16.275  30.767  20.154  0.1166  0.0602 -0.1206
29992W        W48739  27.272  28.622   2.404 -0.0281 -0.0054  0.0928
29993W        W48740  25.383  14.512  24.318  0.1995 -0.0019 -0.1153
29994W        W48741  34.708  19.746  17.246 -0.0101 -0.4889 -0.1513
29995W        W48742  10.124  16.977   4.585  0.0897 -0.1915 -0.1864
29996W        W48743   7.645  27.128   8.142 -0.1767  0.4271 -0.2448
29997W        W48744   7.761  21.050   2.456  0.0714  0.1810  0.1957
29998W        W48745  24.876  34.996  24.229 -0.0432  0.1074  0.1600
29999W        W48746   4.215   6.049  19.588 -0.0318 -0.1440  0.0258
30000W        W48747  15.043   0.392  23.359 -0.1394 -0.2332  0.1313
30001W        W48748  15.190  17.804  25.101  0.1830  0.0382 -0.1099
30002W        W48749  17.767  13.881  24.795 -0.0613  0.0547  0.2440
30003W        W48750  30.026   7.947  10.952  0.1500 -0.0768  0.0592
30004W        W48751  29.389  25.866  12.729  0.1955  0.0230 -0.0219
30005W        W48752  12.963  26.889   6.358  0.0636 -0.2591  0.1938
30006W        W48753   6.095  16.464  20.276 -0.0880 -0.0858  0.0194
30007W        W48754  27.463   5.590  11.057 -0.0894 -0.2323 -0.1437
30008W        W48755  15.899   3.615   1.508 -0.2764 -0.2029  0.1668
30009W        W48756  16.626   4.540  21.691 -0.2777  0.1241  0.1865
30010W        W48757  21.925  34.649  24.786  0.3930 -0.1465  0.0430
30011W        W48758  11.730  19.757   2.153 -0.2188 -0.1318 -0.1423
30012W        W48759   7.203  23.816   8.667 -0.1650 -0.0481 -0.1382
30013W        W48760  18.190  14.659   4.914  0.0603  0.1569 -0.1613
30014W        W48761   1.865   1.783  25.955  0.0516 -0.0501 -0.3753
30015W        W48762  20.638  16.207   2.496 -0.0989 -0.0630 -0.2368
30016W        W48763  12.524  24.333  25.409  0.1248 -0.1486 -0.3100
30017W        W48764  10.955  14.282  25.005  0.1030 -0.3442 -0.0845
30018W        W48765  30.810   2.192  22.596 -0.4708 -0.0456  0.0855
30019W        W48766   9.800  14.315  22.218 -0.0290  0.4081 -0.0675
30020W        W48767  10.512  12.080   5.724  0.2798  0.2887  0.2902
30021W        W48768  33.389  13.456  21.393  0.1200  0.2458 -0.1035
30022W        W48769  21.360  15.152  22.866  0.0714 -0.0946 -0.1567
30023W        W48770   8.392  10.026  21.360  0.0607  0.1453 -0.0584
30024W        W48771   8.688  30.902   5.346  0.1569 -0.2959  0.1384
30025W        W48772  11.191  24.880  25.087 -0.0479 -0.2489  0.2526
30026W        W48773  14.317  28.833   8.702 -0.1299 -0.0923 -0.0962
30027W        W48774  29.333  29.437  15.159  0.2315  0.0551 -0.2783
30028W        W48775  33.769  29.860   1.934  0.0331 -0.0139 -0.1252
30029W        W48776  25.710  18.723   9.796  0.0288  0.2006  0.0095
30030W        W48777  30.123  33.541  24.587  0.0576  0.0492  0.1186
30031W        W48778  21.794  25.532  25.503 -0.1345  0.1709  0.2045
30032W        W48779   1.375  12.540  17.942 -0.3206  0.1571 -0.1047
30033W        W48780   4.364  10.822   3.488 -0.0383 -0.0893  0.1297
30034W        W48781  19.133   2.241  24.426  0.1780 -0.0227  0.1597
30035W        W48782  33.936  33.261  20.844 -0.0041  0.1130 -0.0339
30036W        W48783  17.730   5.305  22.992 -0.2325  0.0472  0.0040
30037W        W48784  19.390  29.886  24.180 -0.0583 -0.0058  0.2329
30038W        W48785   4.925   8.081  20.837  0.2906  0.1480  0.0495
30039W        W48786  14.950   9.766  10.468  0.0359 -0.0588 -0.1295
30040W        W48787  18.803   1.716  22.810 -0.0111  0.1186  0.0940
30041W        W48788   2.107   1.854  22.107  0.0643  0.1520 -0.0491
30042W        W48789  19.021  21.885   9.363 -0.3696  0.1134  0.2047
30043W        W48790  22.850  33.727  20.554 -0.2972 -0.1165  0.1548
30044W        W48791  18.153   7.948   6.559  0.1266  0.0431 -0.0975
30045W        W48792  27.066  26.435  13.833  0.1977  0.1766 -0.1217
30046W        W48793  29.736  14.673  10.700  0.1833  0.3614 -0.1656
30047W        W48794  30.931  34.897  23.533  0.2496  0.1445 -0.1644
30048W        W48795  31.361  12.893  19.918  0.0598  0.3371 -0.1181
30049W        W48796  21.016   7.459  26.088 -0.1089  0.0460 -0.1439
30050W        W48797   6.389  30.480  10.653  0.2588 -0.0578 -0.1468
30051W        W48798  29.105  15.246  11.090  0.0994 -0.0686 -0.0554
30052W        W48799   9.421  33.180   2.188  0.1513  0.1679 -0.2333
30053W        W48800   5.361  34.973   1.752  0.1430  0.1570  0.1540
30054W        W48801  28.698  24.666  22.971 -0.1200  0.0918  0.4822
30055W        W48802  14.667  34.561   2.500  0.1899  0.0927 -0.1563
30056W        W48803  35.029  27.952   1.436  0.0136 -0.4385  0.2588
30057W        W48804  30.818  17.819  21.598 -0.2605  0.0923  0.1821
30058W        W48805  15.521  23.563   5.325  0.2028 -0.1347  0.2870
30059W        W48806  23.850  22.696  21.732 -0.0819  0.3278 -0.1356
30060W        W48807  18.201  28.383   3.621 -0.0341  0.1132 -0.1903
30061W        W48808  16.224  17.668  10.331  0.0329  0.1849  0.4186
30062W        W48809  30.877  21.646   7.769  0.1552  0.0053 -0.1825
30063W        W48810   8.792  28.978   2.746 -0.3230 -0.4120  0.0862
30064W        W48811  30.896   1.160  12.274  0.0626 -0.0595 -0.0286
30065W        W48812   2.637  10.725  13.974  0.1616  0.0344 -0.0416
30066W        W48813  28.095   3.186   0.239 -0.0815 -0.3839 -0.1891
30067W        W48814  16.036  23.023   1.012 -0.2270 -0.0148 -0.0384
30068W        W48815  19.928  10.091   1.163 -0.0866 -0.0405 -0.0369
30069W        W48816   5.453  27.764   9.741 -0.0706  0.2529 -0.0407
30070W        W48817  22.243   1.802  25.794  0.1667 -0.1349  0.2126
30071W        W48818  31.846   8.543  12.511  0.2016 -0.1485  0.1017
30072W        W48819  29.324  23.853  20.507 -0.2620 -0.1705 -0.1757
30073W        W48820   9.168  20.364   9.770 -0.0881  0.1918 -0.3102
30074W        W48821  35.127  31.218  23.134 -0.1059 -0.0486  0.1954
30075W        W48822   9.558   3.086  22.817 -0.2058  0.0498  0.0192
30076W        W48823  15.662  21.456   9.759 -0.0695 -0.0432 -0.1310
30077W        W48824  15.913   4.072  12.533 -0.0270 -0.0202  0.1041
30078W        W48825  11.052  11.934   4.593 -0.0513  0.2080 -0.4069
30079W        W48826  21.673   2.718  14.735  0.1268 -0.0096 -0.2078
30080W        W48827  17.296  30.067   1.805 -0.0414  0.2158  0.0633
30081W        W48828   7.291  20.513   3.431  0.0041  0.2079 -0.0785
30082W        W48829  17.743  10.631  19.606 -0.3078  0.0115 -0.0552
30083W        W48830  19.048  18.114   3.369 -0.0952  0.0438  0.0983
30084W        W48831  13.939  27.293  10.142 -0.1956  0.1358  0.2719
30085W        W48832  16.073   9.791   5.241 -0.0393 -0.2344 -0.0004
30086W        W48833  18.153   3.131  23.940  0.0001 -0.1502 -0.4251
30087W        W48834  24.795  24.568  22.389 -0.3179 -0.0968  0.1000
30088W        W48835   7.358  26.467   7.490  0.0495 -0.3254 -0.2080
30089W        W48836  26.920  27.950  25.828  0.1522 -0.2874  0.0316
30090W        W48837  25.907  33.835   3.375  0.0745  0.3028 -0.0711
30091W        W48838  12.923  18.212   7.212 -0.2245 -0.2229 -0.0980
30092W        W48839  14.118  12.997  24.771 -0.1925  0.2789  0.0815
30093W        W48840  21.660  35.067  20.790 -0.0208  0.0322 -0.0899
30094W        W48841  28.607  12.856  13.934 -0.1823  0.1017 -0.1249
30095W        W48842   0.886  13.249  13.190  0.0852 -0.0796  0.0423
30096W        W48843   5.551   4.081   0.558 -0.3600 -0.1296 -0.1584
30097W        W48844  24.476  14.304  24.837  0.2556  0.2625 -0.1035
30098W        W48845  18.434  10.911  23.209 -0.0879 -0.0378 -0.0580
30099W        W48846  29.848  32.927  14.746  0.1308  0.0167 -0.0717
30100W        W48847   2.643  29.504   3.690  0.0207  0.2715 -0.0944
30101W        W48848   8.786   1.418   8.848  0.3010 -0.1455  0.1074
30102W        W48849  25.221  12.608   0.492  0.0539 -0.0999 -0.0064
30103W        W48850  35.006  17.361  23.002  0.1289 -0.0923 -0.1875
30104W        W48851   0.694  10.976  16.207  0.2869 -0.2135 -0.0555
30105W        W48852  35.293  25.719  24.838  0.1438  0.2458  0.3621
30106W        W48853  30.723  34.935  22.726 -0.1577  0.2667  0.0594
30107W        W48854  11.554  11.001  25.341  0.0242  0.1218  0.0046
30108W        W48855  11.462  27.811   4.360  0.1417  0.2696 -0.1184
30109W        W48856  25.682  20.738  12.105 -0.1477  0.0314 -0.2268
30110W        W48857   9.896   8.250  24.693  0.1644  0.0001  0.2324
30111W        W48858   9.133  34.700  13.881 -0.0630  0.0363 -0.1281
30112W        W48859   3.616  28.387   3.733 -0.0507  0.3258  0.2978
30113W        W48860  11.480   4.150  23.738  0.0058  0.0134  0.0465
30114W        W48861  22.454   0.517  19.622  0.0987  0.1576 -0.0838
30115W        W48862  13.978  21.628   7.650 -0.1866 -0.1927 -0.0960
30116W        W48863  27.755   6.762  21.090  0.0592  0.2418  0.1397
30117W        W48864   6.922  34.614  23.288  0.2680 -0.0934 -0.1960
30118W        W48865  32.713  24.243  18.911 -0.0854 -0.3172  0.1119
30119W        W48866  26.119  18.437  12.645 -0.0143  0.3119  0.1478
30120W        W48867  20.545  35.169  15.266  0.0720 -0.0925  0.2213
30121W        W48868   5.414   6.643  21.545  0.1254 -0.0060  0.0241
30122W        W48869  29.035   4.125  22.069  0.2478 -0.0869 -0.0820
30123W        W48870  25.724   4.479  19.392  0.1130  0.1992  0.1719
30124W        W48871  23.705  23.794  13.990  0.5111  0.3396  0.1472
30125W        W48872  20.714   1.844  18.933 -0.0469  0.0298  0.2784
30126W        W48873  21.772  31.593  22.426 -0.1452  0.1888  0.1571
30127W        W48874  12.320  22.062   9.308  0.1553 -0.0061 -0.0337
30128W        W48875  16.230  31.927  11.778  0.2789 -0.1435  0.4196
30129W        W48876  32.340  30.249  15.614  0.0264 -0.0274 -0.2077
30130W        W48877  26.795  16.591  20.813  0.3429 -0.1270 -0.1742
30131W        W48878  27.064  24.461  23.783  0.1173  0.1933 -0.0864
30132W        W48879   7.252  11.211  21.701 -0.0140  0.1197 -0.2062
30133W        W48880   9.855  23.845   2.461 -0.2668 -0.1057  0.1624
30134W        W48881  22.319  20.977  20.706  0.0783 -0.2112  0.0363
30135W        W48882   6.405  18.994   2.576  0.3852  0.1226  0.1774
30136W        W48883  16.277  29.010  23.770 -0.1226 -0.0886 -0.1165
30137W        W48884   3.463   5.880  25.183  0.1665 -0.2703  0.0212
30138W        W48885   2.213  13.119  24.642  0.1414 -0.0493 -0.0379
30139W        W48886  28.592  11.988  13.455 -0.3090  0.2146 -0.3006
30140W        W48887  29.723   8.819  15.831 -0.0301  0.6614 -0.1368
30141W        W48888  29.074  31.664  18.644  0.2773 -0.1160  0.3608
30142W        W48889  16.581   5.299  17.922  0.0151  0.1398  0.2092
30143W        W48890  22.552  10.392  19.159 -0.1528 -0.2038 -0.2619
30144W        W48891   9.282  19.373  26.184 -0.0580  0.1180  0.1498
30145W        W48892  21.488  11.036  20.983 -0.1296 -0.1926  0.1180
30146W        W48893  25.373  13.688  15.160  0.4043  0.2066  0.2489
30147W        W48894   8.482  22.484  25.430  0.1762 -0.3139  0.0287
30148W        W48895  20.710   1.162  24.656 -0.3062 -0.2624  0.0387
30149W        W48896  32.033   1.323  17.958  0.2377  0.0342  0.2306
30150W        W48897  34.055  29.333  16.046  0.3385  0.2193  0.0491
30151W        W48898  12.690   4.855  24.092 -0.1306  0.2761  0.0657
30152W        W48899  10.058   5.811   9.830 -0.2500  0.3853  0.2181
30153W        W48900  31.340  22.817  10.392  0.0114  0.1264 -0.0379
30154W        W48901  29.448  13.043   6.414  0.3607  0.0347 -0.1906
30155W        W48902  30.731  30.394   2.322  0.2884  0.1532 -0.0307
30156W        W48903  22.388  11.246  22.297  0.1954  0.0188  0.1280
30157W        W48904   3.134  26.114   3.554 -0.0087  0.1383  0.0008
30158W        W48905  28.794   6.851   0.916 -0.2373  0.1136  0.0007
30159W        W48906  15.499  31.285  12.903  0.1800  0.0374  0.3497
30160W        W48907  24.219  33.446  20.180 -0.0657 -0.0328 -0.1434
30161W        W48908  30.572  33.759   5.369 -0.1851 -0.0502  0.1535
30162W        W48909   1.688   1.451  14.489 -0.1714  0.1366 -0.1557
30163W        W48910  19.202  30.443   6.711 -0.2599  0.2412 -0.3165
30164W        W48911  26.624  12.914  17.296  0.0134  0.2222  0.3143
30165W        W48912  19.829  17.781  24.676  0.0550 -0.2761  0.0274
30166W        W48913  22.841   2.529   4.121 -0.0815  0.0512 -0.0791
30167W        W48914  20.352   2.436   3.141  0.0974  0.0955  0.1140
30168W        W48915  23.302   6.822  20.800  0.2054  0.0701  0.1481
30169W        W48916  26.675  13.245  24.035 -0.0013 -0.0430 -0.5389
30170W        W48917  12.775   3.700  23.312 -0.1715 -0.4422  0.0392
30171W        W48918   5.983   1.156   5.368  0.0915 -0.1436 -0.0003
30172W        W48919  10.975  13.674   1.792 -0.5171 -0.2492 -0.2267
30173W        W48920   6.471   2.490   1.656 -0.0570 -0.1448  0.3495
30174W        W48921  20.908  17.784  21.871 -0.0193  0.0419  0.2484
30175W        W48922   2.426  11.131   2.038  0.2933 -0.2909 -0.2246
30176W        W48923  18.962  12.418   2.179 -0.2951  0.1622 -0.0712
30177W        W48924  26.277  34.321  10.829 -0.0177 -0.0418 -0.1589
30178W        W48925  21.953   2.885  25.754 -0.2040  0.1880 -0.2114
30179W        W48926  15.699   6.749   9.708 -0.1209 -0.0337 -0.1251
30180W        W48927   4.908   9.015   6.732 -0.1749 -0.1707  0.0845
30181W        W48928  35.186  19.613  26.045  0.1996 -0.0801  0.1983
30182W        W48929  18.972  20.449  21.459  0.0870  0.2533 -0.0716
30183W        W48930  21.419  14.946   4.113 -0.1043 -0.1302 -0.3503
30184W        W48931  11.403   3.917  20.913  0.0468 -0.0651 -0.1642
30185W        W48932  30.558  10.972  10.349 -0.2877 -0.0790  0.0970
30186W        W48933   8.215  11.977   0.689 -0.2413  0.0581 -0.0119
30187W        W48934   6.567   6.366   6.633  0.0952  0.2160  0.1811
30188W        W48935  30.721   2.719  21.418 -0.1270  0.0384 -0.1596
30189W        W48936  28.277   4.347  23.191  0.3021 -0.0426  0.1733
30190W        W48937  12.177  26.986  15.741  0.1908  0.1516  0.1906
30191W        W48938   2.775  18.573  13.198  0.1047 -0.1839 -0.1575
30192W        W48939  23.719  12.107   2.964 -0.4383  0.1379  0.1163
30193W        W48940  20.061  20.369   1.538 -0.3554 -0.0357  0.0097
30194W        W48941  26.631  11.763   8.342  0.0245 -0.0086  0.1393
30195W        W48942  16.108  14.119  26.103  0.2207  0.1117  0.1801
30196W        W48943  11.184   0.841  23.870  0.0765  0.2445 -0.0515
30197W        W48944   8.250  22.420  14.469 -0.0454  0.1544  0.3465
30198W        W48945   4.936  22.464  21.079  0.2208  0.3149  0.1070
30199W        W48946  18.967  23.891   3.141 -0.0746 -0.0627  0.0801
30200W        W48947  10.518  35.121  10.884 -0.1196 -0.2787 -0.0701
30201W        W48948  14.146  28.376   5.693  0.0186  0.0583 -0.1170
30202W        W48949  32.931   7.024  21.249  0.0597  0.1560  0.1915
30203W        W48950  28.287  29.437   3.901 -0.3166 -0.3031 -0.2840
30204W        W48951  35.301  27.136   1.707  0.0436 -0.0433  0.1701
30205W        W48952  29.494   6.902  17.059 -0.0527 -0.0745  0.2099
30206W        W48953   2.468  18.342  14.736 -0.0746  0.0486  0.1385
30207W        W48954  10.077  19.964  23.114 -0.0384 -0.2617 -0.1968
30208W        W48955   0.177  22.070   9.290  0.3946 -0.1340  0.0888
30209W        W48956  16.269  30.209   4.796  0.5988 -0.3763  0.0565
30210W        W48957  25.605   9.862  10.589  0.3156  0.1047  0.0818
30211W        W48958  29.914   5.502  20.300  0.2229  0.2965 -0.3847
30212W        W48959  15.734  16.607  10.427  0.0876  0.1825  0.3610
30213W        W48960  29.976  34.829  16.326  0.0907 -0.1084  0.1294
30214W        W48961  31.422   9.536  22.749  0.2037  0.3641 -0.1283
30215W        W48962   4.593  12.115   0.706 -0.1848  0.0591 -0.2958
30216W        W48963  14.384  14.740  26.201 -0.1407  0.1203  0.0656
30217W        W48964  10.144   2.436   6.410  0.1804  0.1755 -0.0749
30218W        W48965   5.463  24.127   5.706  0.2014  0.0214 -0.1300
30219W        W48966  19.887  12.534  22.466  0.3156 -0.0985  0.1664
30220W        W48967  31.579  31.690  12.270 -0.4372  0.0671  0.2829
30221W        W48968   8.012  14.665  17.408 -0.1993 -0.0156 -0.2579
30222W        W48969  22.862   6.613  19.613 -0.0598 -0.0468 -0.0052
30223W        W48970   9.467   0.815   7.314 -0.3367 -0.1516  0.1953
30224W        W48971   9.190  28.132  16.077  0.2180 -0.1895 -0.0687
30225W        W48972  19.366  19.212   0.564 -0.0652 -0.2131  0.1643
30226W        W48973  17.492   4.225  10.631  0.0040  0.0638  0.1050
30227W        W48974   9.923  10.962   3.893  0.3568  0.2063 -0.2626
30228W        W48975  10.185   3.347  24.473  0.0704 -0.1823  0.3083
30229W        W48976   6.936   6.948   7.309 -0.0474  0.0997  0.1531
30230W        W48977  18.868  25.212   2.747  0.3042  0.1228  0.3352
30231W        W48978  34.769  13.893  13.017  0.0368 -0.1463 -0.0105
30232W        W48979  10.357  29.609  10.993  0.0728 -0.0271  0.0527
30233W        W48980  13.063   6.547   7.833 -0.1672  0.1730 -0.4704
30234W        W48981  23.000   5.732  17.135 -0.3231 -0.1261 -0.2889
30235W        W48982  26.176  27.316  18.677  0.1712  0.0596  0.1589
30236W        W48983   6.707  18.341   4.813 -0.3447 -0.2191 -0.1918
30237W        W48984  14.043  11.358  10.445  0.1484 -0.0170 -0.0018
30238W        W48985   5.323   8.952  21.001  0.0198  0.0546  0.0716
30239W        W48986   7.567   2.486  11.401 -0.1378  0.1566 -0.2077
30240W        W48987  14.396   3.011  12.792 -0.1763 -0.1900 -0.2155
30241W        W48988  16.528   9.491  18.136  0.1035 -0.4451 -0.2697
30242W        W48989  11.053   4.478  10.492 -0.1348  0.3657 -0.0969
30243W        W48990   6.748   6.301   5.260  0.0280  0.0096 -0.0868
30244W        W48991  30.053   0.431  22.835 -0.2448  0.0209 -0.0087
30245W        W48992  25.516  29.180  11.854 -0.2211 -0.1421 -0.1276
30246W        W48993  21.704  22.347   5.177 -0.2699 -0.0168 -0.1114
30247W        W48994  21.310  15.240  14.796 -0.1134 -0.2015  0.0573
30248W        W48995  13.500  21.749   4.717 -0.0679  0.0752  0.3908
30249W        W48996  10.956  18.965  10.034  0.0255 -0.1091 -0.1249
30250W        W48997   0.913  32.874  21.059  0.1158  0.2502  0.0953
30251W        W48998   9.065  17.065   6.092 -0.2456 -0.0742  0.0355
30252W        W48999  29.220  14.331  14.633  0.0566 -0.5004 -0.1633
30253W        W49000  21.137  18.060  24.760 -0.1151 -0.1082  0.1875
30254W        W49001   6.403  24.797   3.766  0.1359  0.2254  0.2422
30255W        W49002  16.887  18.243   3.333  0.1948 -0.1525  0.0928
30256W        W49003  28.685  16.426   0.181  0.0213  0.0434 -0.1363
30257W        W49004  28.518  24.203  16.987 -0.0134  0.1400  0.1538
30258W        W49005  14.516  16.263   2.860 -0.0505  0.3632 -0.4476
30259W        W49006  32.729   7.370  24.044  0.0305 -0.1647 -0.0609
30260W        W49007  29.218   9.762  11.616  0.0315  0.1805  0.2718
30261W        W49008  11.870   3.706   4.841 -0.2119 -0.1639 -0.2290
30262W        W49009   7.487   7.599  11.351  0.1661  0.0878 -0.1220
30263W        W49010   2.442  11.893   1.269  0.0258 -0.0257  0.0364
30264W        W49011   1.925  35.168  18.610 -0.2100  0.0754  0.1985
30265W        W49012  28.519   7.732  22.815 -0.1578 -0.0976  0.4385
30266W        W49013  20.958   3.952   4.098  0.4442 -0.0862 -0.0791
30267W        W49014  25.966   2.688  16.804 -0.0250  0.1578 -0.0589
30268W        W49015  21.374  27.937   2.309  0.0545 -0.0188 -0.1209
30269W        W49016  17.992  29.879   6.944  0.0802  0.0282 -0.1819
30270W        W49017  34.843  18.693  20.592  0.0871 -0.1236 -0.1119
30271W        W49018  29.583   6.638   0.416 -0.3946 -0.1112 -0.2690
30272W        W49019  30.381   4.721   1.965 -0.2036 -0.0202  0.0274
30273W        W49020   5.377  30.575   7.699 -0.2543  0.0428  0.1726
30274W        W49021  30.319   7.775  24.439  0.1473 -0.0758 -0.0565
30275W        W49022  17.759   4.918  24.901 -0.1867 -0.2293  0.0486
30276W        W49023   9.421  29.796   3.011  0.1445 -0.0537  0.1543
30277W        W49024  10.125  33.791  24.366  0.1728 -0.1316  0.1193
30278W        W49025  28.009   7.426  18.684  0.0286  0.2292 -0.0006
30279W        W49026  22.759  20.781  22.809  0.0441 -0.0853  0.0141
30280W        W49027  26.716  32.498   1.337  0.2632  0.0493  0.1078
30281W        W49028  10.360   3.454  22.059 -0.1878  0.1722 -0.1250
30282W        W49029  11.865   6.465  22.717 -0.1294 -0.0868 -0.0100
30283W        W49030  13.275   3.275   8.149 -0.2139  0.0610 -0.2628
30284W        W49031   7.611   0.287  21.184 -0.0951  0.1976 -0.2307
30285W        W49032  17.940   3.470  24.322  0.0562  0.0876  0.0082
30286W        W49033  11.328  27.309  10.927  0.0488 -0.1298 -0.1787
30287W        W49034  33.236  15.258   6.309 -0.0282 -0.1459  0.1238
30288W        W49035  25.387  15.471   1.175  0.3223  0.2736  0.1108
30289W        W49036  29.798   1.845  19.330  0.1620 -0.0169  0.2494
30290W        W49037   4.584  15.187  18.377 -0.0934 -0.1114 -0.1594
30291W        W49038   1.977  30.537   2.345 -0.3396  0.1126  0.1183
30292W        W49039  33.927  18.085   9.448 -0.0695 -0.2807  0.2539
30293W        W49040   0.918  31.039   1.829  0.0033 -0.1592 -0.2956
30294W        W49041  17.026  35.078   1.951 -0.1218 -0.0231  0.1863
30295W        W49042  13.101   7.938   5.171  0.1699  0.0327 -0.4053
30296W        W49043  15.334  16.019  24.724 -0.1400  0.2350  0.0411
30297W        W49044  31.283   2.657  18.514  0.2548  0.6041  0.0428
30298W        W49045  32.383  15.232  12.854 -0.0940  0.1935  0.1501
30299W        W49046  31.000  31.487   4.664 -0.1276  0.2812 -0.3076
30300W        W49047  21.420   2.416  13.980 -0.3129 -0.3770  0.0621
30301W        W49048   3.912  14.092   4.757  0.1822 -0.3549  0.4050
30302W        W49049  33.091   0.213  17.605 -0.0347  0.0476 -0.2712
30303W        W49050  24.991  31.954  11.930 -0.2340 -0.0693  0.2802
30304W        W49051   2.300  18.190  22.949 -0.1293  0.1253  0.1122
30305W        W49052  32.964  24.945   9.586  0.0250  0.0185  0.1355
30306W        W49053  24.360  32.077  25.635 -0.1715  0.1534 -0.1077
30307W        W49054  17.260  22.727   3.357  0.2420  0.1738 -0.1557
30308W        W49055  33.413   2.266  21.420  0.2484 -0.1815 -0.1160
30309W        W49056  32.986  25.147  22.176  0.4603 -0.1416  0.0836
30310W        W49057  18.643  18.383   8.571  0.3218  0.0850  0.1867
30311W        W49058  15.548  35.212   3.319  0.2991 -0.2408 -0.0318
30312W        W49059  19.399  12.484  17.821 -0.4924  0.0467 -0.0567
30313W        W49060  27.136  23.781  10.307  0.0060 -0.1539 -0.0643
30314W        W49061   0.733   6.523  18.557 -0.1446  0.0337  0.2737
30315W        W49062   8.872  17.137  12.551  0.2714 -0.4713  0.0226
30316W        W49063  33.627  30.767   0.117 -0.1201  0.2848  0.1283
30317W        W49064  31.361   9.086  15.939 -0.0085 -0.1240 -0.3690
30318W        W49065  15.329  10.598  11.046  0.1984  0.1355  0.3214
30319W        W49066   9.268   3.365  24.409  0.2936  0.3342 -0.2292
30320W        W49067   3.436  12.644   2.999 -0.0427 -0.0008  0.0289
30321W        W49068  20.274   7.321  21.728 -0.0694 -0.0016  0.1500
30322W        W49069  17.337   7.284  12.064  0.0271  0.4693  0.1547
30323W        W49070  14.621   4.241   4.661  0.1057 -0.0041 -0.0753
30324W        W49071   0.353  14.787   1.509  0.3026 -0.0674 -0.0415
30325W        W49072  32.574  26.010  12.333 -0.1061  0.0070 -0.1323
30326W        W49073  23.555   1.302  15.761 -0.0370 -0.2196  0.0664
30327W        W49074   5.410  10.455  21.213  0.3475  0.6095  0.5604
30328W        W49075  14.596  28.728   6.895  0.1338  0.1201 -0.0011
30329W        W49076   3.430  19.662  18.194 -0.1743 -0.0764 -0.3041
30330W        W49077   0.164  11.412  12.552  0.3819 -0.1736 -0.2139
30331W        W49078  22.211  21.429  17.902 -0.1658  0.1328  0.1665
30332W        W49079  20.760   4.645  23.324 -0.0409 -0.1130  0.0147
30333W        W49080   7.576   4.299  22.947 -0.0128  0.0601  0.2768
30334W        W49081  31.935  12.111  23.061  0.0082 -0.1818  0.1503
30335W        W49082  34.944  33.368  23.943  0.0264 -0.0223 -0.1969
30336W        W49083   1.965  33.475   1.269 -0.5626 -0.1732 -0.1554
30337W        W49084  17.965   4.768  12.494 -0.0330  0.1206  0.0014
30338W        W49085  13.224  10.860  24.786 -0.2180 -0.1520 -0.0175
30339W        W49086  14.448  10.838  13.601  0.0879 -0.1577  0.1429
30340W        W49087  30.988   8.725  15.285 -0.0835 -0.1120 -0.4443
30341W        W49088  24.395   5.620  17.699  0.0482  0.1590 -0.1988
30342W        W49089   6.867  30.016  11.482 -0.0685 -0.0064  0.3618
30343W        W49090   8.198  28.811   2.337 -0.1642  0.0590 -0.0605
30344W        W49091   0.198  16.668  14.654 -0.1580  0.2806  0.2191
30345W        W49092  15.535   3.122   5.107 -0.1578 -0.0020 -0.0132
30346W        W49093  31.155  13.934  15.505 -0.2844 -0.2059 -0.1313
30347W        W49094  17.289  35.078  17.394 -0.1208 -0.0901  0.1339
30348W        W49095  14.550  33.326   7.930  0.0459  0.1350 -0.3307
30349W        W49096   7.514  24.991  13.080 -0.1112 -0.0560 -0.3331
30350W        W49097   8.724  29.256  24.826  0.1593  0.2161 -0.2688
30351W        W49098  22.920   1.616  23.210 -0.2258 -0.0224  0.0064
30352W        W49099   6.086   7.434  17.508  0.0969  0.1038 -0.1556
30353W        W49100  25.993  32.161  21.967  0.0812 -0.0879 -0.2252
30354W        W49101  34.754   9.403  21.486  0.0359 -0.2324 -0.2280
30355W        W49102   0.492  22.464  11.441 -0.1231  0.0478 -0.1465
30356W        W49103  16.819   0.139  24.115 -0.2866  0.0018  0.1623
30357W        W49104  30.868   2.331  18.617  0.2689 -0.1174 -0.0143
30358W        W49105  30.421  29.153   1.918  0.0809 -0.3429 -0.1885
30359W        W49106  18.401  20.527   3.920 -0.1387  0.0872 -0.0378
30360W        W49107  17.387  33.271  21.124 -0.0082  0.0189 -0.0565
30361W        W49108  28.628  10.591  15.880 -0.3332  0.1169  0.0970
30362W        W49109  19.280   3.467   5.682 -0.0050  0.0915 -0.4923
30363W        W49110  13.350  18.640  14.185  0.3303  0.1427 -0.0284
30364W        W49111  27.295   0.358  23.912  0.0541 -0.2071  0.1395
30365W        W49112  27.064  32.234  21.693 -0.2348 -0.2207 -0.1332
30366W        W49113  18.414  13.730   0.179  0.0489 -0.0710  0.3110
30367W        W49114  21.897  26.220  25.128 -0.2042 -0.0485  0.2183
30368W        W49115   8.259  15.713  11.901 -0.0684  0.1393  0.1137
30369W        W49116  30.489   1.431   1.305 -0.4316  0.0422 -0.1436
30370W        W49117  23.006  16.906  17.183  0.1957  0.1237 -0.0529
30371W        W49118  10.379   3.374  23.260  0.0859 -0.0649 -0.4811
30372W        W49119   9.461  27.655  15.470  0.0506 -0.1114  0.0554
30373W        W49120  15.346   1.800   1.319 -0.0340  0.0249 -0.1085
30374W        W49121  24.661   0.119  23.015  0.2096  0.1148  0.1018
30375W        W49122  20.490  20.218  16.371  0.0594  0.0072  0.4795
30376W        W49123   6.583  14.747  21.908  0.0241 -0.1263  0.1201
30377W        W49124  30.240  14.986  11.216  0.1423  0.1239 -0.1843
30378W        W49125   7.710  13.538   8.581  0.2959 -0.0851  0.1334
30379W        W49126  20.063   7.382  18.785  0.1687 -0.0526 -0.0028
30380W        W49127   1.839   6.472   2.200  0.1210 -0.1425 -0.0234
30381W        W49128   9.274   5.771  11.966 -0.1068 -0.0246 -0.0722
30382W        W49129  13.138  18.035   6.331  0.0901 -0.2470 -0.0233
30383W        W49130   2.267   6.636  15.833 -0.2746 -0.1885  0.1649
30384W        W49131  14.361   0.455  10.093 -0.1667  0.0693  0.2482
30385W        W49132   9.170  12.388   6.033  0.3084 -0.0815 -0.0295
30386W        W49133   7.281  23.166   0.388 -0.0156 -0.0019 -0.0444
30387W        W49134  21.931  10.961  16.563  0.0105  0.1384  0.1438
30388W        W49135  10.065  16.845  22.095 -0.2478  0.2590 -0.3022
30389W        W49136   4.653   3.670   8.832 -0.2472  0.0503 -0.0589
30390W        W49137  14.893  17.847   4.602  0.0752  0.0819 -0.0711
30391W        W49138  11.978  16.729   5.002 -0.0048 -0.1116  0.1105
30392W        W49139  10.789  30.717  22.723 -0.0701  0.1757 -0.5261
30393W        W49140   4.805  22.911   1.941 -0.0684  0.5198 -0.4004
30394W        W49141   0.034  11.684   1.689  0.1360  0.0956 -0.0577
30395W        W49142  19.830   1.999   6.379 -0.1269 -0.0480 -0.0456
30396W        W49143   6.060   5.470   4.553  0.0173 -0.1667 -0.2190
30397W        W49144  31.427  32.544  20.486 -0.2820 -0.1878 -0.2535
30398W        W49145  34.559  22.335  10.537  0.1249  0.1246 -0.3036
30399W        W49146  24.447  15.371  17.039  0.2489 -0.0615  0.0970
30400W        W49147  10.324   4.659  13.464  0.3289 -0.0176 -0.0545
30401W        W49148  14.080  18.992   4.389  0.2402 -0.3159  0.3938
30402W        W49149  17.854  16.489   1.781 -0.0738  0.1599 -0.2442
30403W        W49150   6.108  25.070   9.726 -0.1673 -0.2990 -0.0590
30404W        W49151   1.589  27.449  17.457  0.0901 -0.1950  0.1185
30405W        W49152  17.802  33.516  20.866 -0.1914 -0.0225  0.0229
30406W        W49153  28.041  27.303  10.451 -0.0772 -0.0739  0.0597
30407W        W49154  30.199  30.457   4.568 -0.0383 -0.0733 -0.0076
30408W        W49155  34.182  20.630  17.553  0.1233  0.4138  0.2403
30409W        W49156   1.916  31.046  25.498  0.0389 -0.2266  0.6826
30410W        W49157  15.185  10.768  22.534  0.0510 -0.3953 -0.1128
30411W        W49158   8.131  29.333   0.996  0.0883 -0.1264  0.2165
30412W        W49159  25.248  25.209  21.106  0.1523  0.1903  0.0271
30413W        W49160  33.787  34.665   2.817  0.0251  0.1171  0.2007
30414W        W49161  20.260  18.677  23.343 -0.3534  0.0940 -0.2211
30415W        W49162   7.680   4.968   3.702 -0.0887 -0.1886  0.0181
30416W        W49163  27.937  19.603  14.282  0.0541  0.1692 -0.2376
30417W        W49164  23.377  29.411   1.500 -0.0228 -0.3824  0.1085
30418W        W49165   0.656  13.454  14.734  0.0317  0.2305 -0.0279
30419W        W49166  28.213   9.799  13.823 -0.1093 -0.0262 -0.1905
30420W        W49167  23.033   7.956  15.229 -0.0717  0.1750 -0.0806
30421W        W49168  21.420   8.687  25.850 -0.0880 -0.1018 -0.4310
30422W        W49169  28.939  24.101   8.350 -0.2040  0.0666 -0.1008
30423W        W49170  29.947  34.710   1.919  0.1302  0.2742  0.1600
30424W        W49171  22.425  31.444  23.103  0.1977 -0.1227 -0.0934
30425W        W49172   2.412  10.976  18.891 -0.1072 -0.2860  0.1378
30426W        W49173  15.694  13.535  11.587  0.0644  0.1015 -0.1245
30427W        W49174   4.431  35.280  19.612  0.0194 -0.2756 -0.0306
30428W        W49175  12.372  10.830   3.687 -0.0138 -0.1324  0.2185
30429W        W49176  30.233  12.977  17.783 -0.2508  0.0878 -0.2044
30430W        W49177  32.005  15.170  15.060 -0.1424 -0.0161  0.1447
30431W        W49178  24.564   1.999   4.408  0.0048 -0.3061  0.1637
30432W        W49179  29.450  32.528  18.809 -0.0331  0.0658 -0.3042
30433W        W49180  15.849  18.769   4.765 -0.1187  0.1308  0.0266
30434W        W49181  24.949  29.777  23.049  0.1730  0.3897 -0.1099
30435W        W49182  17.415  14.732  25.073 -0.1071  0.1586 -0.0243
30436W        W49183  21.504  22.980  23.187 -0.1233  0.0616 -0.1845
30437W        W49184  34.858   2.728  17.043  0.2845 -0.2131  0.1929
30438W        W49185  25.574  14.976  15.324  0.0723  0.0313  0.0022
30439W        W49186   0.159  34.099  23.967  0.1782 -0.2705 -0.2149
30440W        W49187  31.082  10.251  24.335  0.1121 -0.1500  0.1758
30441W        W49188  11.650  13.489  22.997  0.4893 -0.0231 -0.2851
30442W        W49189  13.761   6.609  10.398  0.0888 -0.3220  0.2052
30443W        W49190  31.162   3.005   2.325 -0.0834 -0.0207 -0.1909
30444W        W49191   3.442   0.501  10.239 -0.1851  0.0755 -0.0005
30445W        W49192  23.431  31.742   1.266  0.0850  0.2593  0.2078
30446W        W49193   9.537  18.238  11.678 -0.6964 -0.0775 -0.0971
30447W        W49194  11.908  12.986  23.780 -0.0534  0.1246 -0.0130
30448W        W49195  19.049  34.415  15.982  0.1193 -0.1652 -0.0157
30449W        W49196   7.441  18.279  26.016 -0.0580 -0.2081  0.2668
30450W        W49197  10.921  31.240   9.296 -0.0645  0.4155 -0.2012
30451W        W49198  19.043  18.916   6.575  0.1597  0.1828 -0.2546
30452W        W49199  16.927  32.684   3.238  0.6705 -0.0149  0.0592
30453W        W49200  20.968   5.552  21.396 -0.3007 -0.1057 -0.2651
30454W        W49201  23.298  32.906  16.489 -0.5430  0.0611 -0.4340
30455W        W49202  10.358  25.096  14.107  0.4197  0.0119 -0.1865
30456W        W49203   4.698  25.166  24.706  0.2841  0.0921  0.2379
30457W        W49204  25.789  19.935   6.662  0.1794 -0.0047  0.0589
30458W        W49205  34.175  28.201  16.990 -0.1705 -0.4570 -0.0367
30459W        W49206  16.975   5.853   8.617  0.0644 -0.0550  0.0800
30460W        W49207  19.349  34.850   0.204  0.1089  0.0304  0.0319
30461W        W49208  34.809  23.287  11.431 -0.1070  0.4142  0.1003
30462W        W49209   9.409   5.564  11.510  0.0152  0.3922 -0.0147
30463W        W49210  29.312  26.645   8.720 -0.0428  0.1508  0.0464
30464W        W49211  26.739  22.562  22.467  0.4159 -0.0388  0.1711
30465W        W49212   1.656  34.785  25.258  0.2891  0.1290 -0.0211
30466W        W49213  16.673  34.168  23.179  0.0968  0.4055  0.0766
30467W        W49214  31.554   0.616   3.862 -0.1796  0.1724  0.1024
30468W        W49215  34.773  30.105   4.087  0.0760  0.1872 -0.1016
30469W        W49216  23.051  30.915  15.419 -0.3830 -0.2625  0.0822
30470W        W49217  10.536   9.396  12.157 -0.0152  0.0959  0.4573
30471W        W49218  11.322  27.282  12.432  0.1394 -0.2799 -0.1250
30472W        W49219  16.112  24.261  13.549 -0.1320  0.0721 -0.0270
30473W        W49220  14.678   0.739  10.581 -0.0540  0.0234  0.3421
30474W        W49221  13.894   4.480   1.696 -0.1728  0.0454  0.0153
30475W        W49222   5.151  10.433   3.235  0.1479  0.0185  0.0652
30476W        W49223  16.458  21.448  22.836 -0.2148  0.0031 -0.0553
30477W        W49224  21.260   9.621   2.772 -0.1950 -0.0806  0.3141
30478W        W49225  21.555  26.628  22.863 -0.0912  0.0101  0.1083
30479W        W49226  32.746  19.723   7.453 -0.0224  0.1744  0.3232
30480W        W49227  31.684  27.619  16.348 -0.2813 -0.0997 -0.3631
30481W        W49228   4.189  34.771   3.287 -0.1303  0.0709 -0.3287
30482W        W49229  28.802  22.143  16.045 -0.0347 -0.1096  0.0475
30483W        W49230   7.039   9.318  20.031  0.1064 -0.0538  0.2214
30484W        W49231  29.646  15.027  24.045  0.3016 -0.1643  0.2206
30485W        W49232   5.507  26.229   7.848 -0.0201 -0.2176 -0.2487
30486W        W49233   0.569   2.391   5.222 -0.0767  0.1959  0.0600
30487W        W49234   0.643  13.497  14.254 -0.0338 -0.0500 -0.1177
30488W        W49235  21.951  14.444   1.771 -0.1029 -0.1845 -0.3953
30489W        W49236   0.096  29.623  21.269  0.0649  0.3060 -0.0467
30490W        W49237   6.961  20.577  24.362 -0.0626 -0.3309  0.0298
30491W        W49238  13.542  31.270  15.457 -0.1626  0.1160 -0.2185
30492W        W49239  12.473  30.184  16.183  0.2386 -0.0846 -0.3065
30493W        W49240  15.196  23.409  11.744  0.0295  0.1244  0.1802
30494W        W49241   6.504  21.162   3.748 -0.0978  0.0166  0.3987
30495W        W49242  25.902  16.161  21.634 -0.2087 -0.0950  0.2093
30496W        W49243   3.109  13.529   4.182  0.2048 -0.0015 -0.1888
30497W        W49244  28.574  19.601  22.525 -0.1876 -0.3913  0.0318
30498W        W49245  28.519  30.464  25.366  0.1489  0.0348  0.0765
30499W        W49246  21.531   4.982   3.675 -0.0387  0.0825  0.0435
30500W        W49247   8.481  33.636  23.788 -0.1941  0.2843  0.0030
30501W        W49248  35.082   7.312  20.758 -0.3637 -0.0292 -0.1325
30502W        W49249  26.406  20.598  19.147 -0.2034 -0.1146  0.6134
30503W        W49250  28.320  26.647  11.849 -0.2109  0.1005  0.1936
30504W        W49251  31.784  26.263  25.251 -0.4839 -0.0673 -0.1157
30505W        W49252   2.963  34.127   3.651  0.1652  0.0834  0.1108
30506W        W49253  34.002   6.068   4.325  0.1822  0.1942  0.2280
30507W        W49254   4.583  10.634  25.986  0.0910  0.4420 -0.0351
30508W        W49255  18.854  24.758   8.659 -0.0985  0.1980  0.2007
30509W        W49256   2.725   6.104  22.878  0.1110 -0.2987  0.1173
30510W        W49257  25.981  33.323  18.649 -0.2598  0.2969  0.0171
30511W        W49258  15.202  30.739  11.095  0.0368 -0.1400 -0.2157
30512W        W49259  11.020  15.953   2.810 -0.1720  0.1992 -0.5103
30513W        W49260   1.672  21.602  11.243  0.0715 -0.0022  0.2471
30514W        W49261  22.364   0.552  24.704  0.0636 -0.0237  0.1717
30515W        W49262   0.619  22.175  10.230  0.4408 -0.0362  0.1319
30516W        W49263  32.868  34.882   5.361 -0.2547 -0.1655  0.1663
30517W        W49264  11.699   2.307   4.781 -0.2075 -0.3274  0.1794
30518W        W49265   6.993   4.569   3.040  0.0264 -0.2294 -0.0451
30519W        W49266  32.086  12.611   8.337 -0.2361  0.0050  0.0712
30520W        W49267   1.709  17.375  12.816  0.3122 -0.0724 -0.1483
30521W        W49268   6.746  30.396  22.145  0.1457  0.1118  0.2290
30522W        W49269  27.909  14.631  12.796  0.1531  0.0842  0.0382
30523W        W49270  14.762  21.781   7.852  0.1466  0.0220 -0.2931
30524W        W49271  33.359  30.156   1.783 -0.1273  0.1821 -0.0024
30525W        W49272  23.472  13.015  18.834 -0.0892  0.1463  0.2399
30526W        W49273   0.622  35.096  18.902  0.2628  0.1991 -0.1397
30527W        W49274   9.302  14.564  23.361  0.1380  0.3220  0.1578
30528W        W49275   7.516  16.603   2.273 -0.0352  0.5289 -0.0881
30529W        W49276  10.331  15.017  18.980  0.1511 -0.1879 -0.0692
30530W        W49277  34.183  27.186  18.598  0.0809  0.0468  0.3381
30531W        W49278  30.204   6.370   1.387 -0.0263 -0.1788 -0.1141
30532W        W49279   7.875  29.804   5.683 -0.3958  0.2336 -0.0966
30533W        W49280  33.512  20.905  15.825  0.0484  0.2380 -0.0804
30534W        W49281  34.446   7.080   4.219 -0.0521 -0.2631 -0.2956
30535W        W49282  31.948  30.953  18.173  0.0607 -0.1545 -0.0701
30536W        W49283   4.647  19.949  22.596 -0.1583 -0.3813 -0.1721
30537W        W49284  13.032  11.970   3.974 -0.0099 -0.0646  0.2719
30538W        W49285  14.079  22.067   2.597  0.0912  0.0627  0.1879
30539W        W49286  19.589  10.615   8.284 -0.1863 -0.3713  0.1640
30540W        W49287  33.804  21.805  15.866 -0.0864 -0.1792 -0.0849
30541W        W49288   6.923  29.609  21.699  0.1543  0.2312  0.1648
30542W        W49289  12.003  26.313   1.565 -0.0492  0.0575  0.1366
30543W        W49290  33.546  26.193  23.894  0.2400 -0.1964  0.0813
30544W        W49291   7.057   8.136  12.562  0.2042  0.1338 -0.1448
30545W        W49292   1.730  16.499  21.203 -0.0656  0.1149  0.1589
30546W        W49293   3.450  31.273   1.695 -0.4479 -0.0245  0.0910
30547W        W49294  10.697  25.454   7.570 -0.0664 -0.0094 -0.3717
30548W        W49295  30.041  31.064  20.583  0.1266 -0.4213 -0.0150
30549W        W49296   6.569  23.068  12.233  0.1740 -0.1690  0.1123
30550W        W49297  27.416  16.034  24.800  0.2728 -0.1508  0.3613
30551W        W49298  14.076  32.625   4.326 -0.0955 -0.0276 -0.0684
30552W        W49299   8.606  18.674   4.971 -0.0265  0.0182 -0.2252
30553W        W49300   0.217   1.573   7.806 -0.0706  0.0070  0.2289
30554W        W49301  23.673  31.128  20.661  0.1593  0.0950  0.2232
30555W        W49302   7.115   3.334   4.518 -0.0424  0.0541  0.0809
30556W        W49303  33.415  22.723  10.137  0.1144 -0.0462  0.1485
30557W        W49304  31.691  21.095  23.723 -0.3255  0.0648  0.0368
30558W        W49305  30.706   3.710  19.630  0.3081 -0.2674 -0.0015
30559W        W49306  28.402  30.306  20.466  0.0069  0.1430 -0.2015
30560W        W49307  33.389  30.193  25.695 -0.1441  0.0296  0.1262
30561W        W49308   7.225   9.815  23.657 -0.1794  0.0188  0.3043
30562W        W49309  16.733  12.811   2.793  0.1086 -0.0034  0.0868
30563W        W49310  31.584   1.122  17.630  0.3654  0.2026  0.1030
30564W        W49311  13.613  17.488   8.311  0.2325 -0.0996 -0.2254
30565W        W49312   9.173  10.868  24.102  0.0850  0.2066  0.1098
30566W        W49313  28.720  20.891  12.427  0.0590 -0.0430 -0.1779
30567W        W49314   0.208  21.562  14.725  0.0069  0.0089 -0.1994
30568W        W49315   0.388  23.206  16.533  0.2141  0.0718 -0.2369
30569W        W49316  12.457  16.692  20.537  0.1794  0.2279 -0.3123
30570W        W49317  12.018   7.265  24.473 -0.1153 -0.2560  0.1596
30571W        W49318  13.050  24.270  17.093 -0.0277  0.2429 -0.1975
30572W        W49319   1.574   1.748  15.625 -0.0773  0.1229 -0.1159
30573W        W49320   8.929  33.636   7.717  0.1544  0.0027  0.0045
30574W        W49321  14.092  14.113  21.099 -0.0688  0.5053  0.2980
30575W        W49322  31.047  15.362   7.899  0.1253 -0.0928 -0.0518
30576W        W49323   6.697  34.087   0.297 -0.0757  0.2533 -0.1336
30577W        W49324  10.892  23.713   5.845  0.2061  0.3094  0.1261
30578W        W49325  11.856  11.899   1.381 -0.1013  0.3460  0.3807
30579W        W49326  34.565  16.419  13.388  0.1626 -0.2668 -0.0916
30580W        W49327   0.534  19.267  15.194 -0.6101 -0.1454 -0.4225
30581W        W49328  22.283   6.241  20.350  0.2057  0.0220 -0.0202
30582W        W49329  11.772   2.752   3.010  0.0973 -0.2022  0.0858
30583W        W49330   4.655  18.888   4.912 -0.0064  0.1595  0.0457
30584W        W49331   6.785   7.813  26.200 -0.2189 -0.1416 -0.0833
30585W        W49332  27.695  25.890  14.068  0.2382 -0.2370  0.0052
30586W        W49333  30.148  14.599  14.631 -0.1572 -0.0429  0.1033
30587W        W49334  31.245  23.423   8.718  0.0570 -0.1127 -0.0705
30588W        W49335  23.927  33.147   1.068 -0.1614  0.3913  0.0237
30589W        W49336   0.561  16.887  23.893  0.2863 -0.0404  0.2058
30590W        W49337   8.546  21.225   0.185  0.3688  0.2403 -0.1285
30591W        W49338  15.243   1.159   6.315  0.1354 -0.1606  0.2005
30592W        W49339  29.262   1.906  25.938 -0.1630 -0.0400 -0.2191
30593W        W49340  34.033  31.363   5.592 -0.0594  0.1543 -0.0508
30594W        W49341  34.409  33.138  20.043  0.1176 -0.2165  0.2214
30595W        W49342   0.062   6.154  12.721  0.0759 -0.1890 -0.1218
30596W        W49343   2.844  17.434  21.953  0.0267 -0.0757 -0.0026
30597W        W49344  26.133  11.029   1.080 -0.4570 -0.1627  0.0747
30598W        W49345  19.764  24.280   5.782  0.2755 -0.2345  0.1258
30599W        W49346  33.415  29.432  15.092 -0.1140  0.0436  0.1886
30600W        W49347  12.597   6.706  11.279  0.1521  0.1727  0.2722
30601W        W49348  28.673  16.422   7.225  0.0182 -0.3349 -0.0123
30602W        W49349  15.244  15.169  25.873  0.1952  0.0490 -0.1163
30603W        W49350  22.609  20.650   0.030  0.2269 -0.0974 -0.1031
30604W        W49351  33.690  29.718  21.728 -0.0586  0.1994  0.2212
30605W        W49352  24.928  26.721  23.118 -0.0681  0.1914  0.0184
30606W        W49353   6.932  27.067   9.422 -0.1618  0.0162  0.1043
30607W        W49354  20.839   0.363   8.266 -0.2496  0.0409 -0.0443
30608W        W49355  35.016   0.961  17.369 -0.0469  0.1189 -0.0860
30609W        W49356  20.197   8.421   1.976 -0.3035 -0.0286  0.0923
30610W        W49357   7.256   7.849  22.049  0.2612 -0.0391 -0.0859
30611W        W49358   4.459  35.258   6.084  0.3767 -0.4402  0.0586
30612W        W49359   1.360  32.680   9.487  0.2913 -0.4063 -0.0559
30613W        W49360  10.660  14.196  19.580  0.1889 -0.1492  0.1061
30614W        W49361   1.180  35.222   8.216  0.1312  0.1662  0.0418
30615W        W49362   0.962  33.949   9.265 -0.0484 -0.3019 -0.4438
30616W        W49363  34.843  30.982   3.872 -0.2886  0.1858 -0.0411
30617W        W49364  30.459  29.649  12.493  0.0027  0.0782 -0.1806
30618W        W49365  30.942  10.567   6.958 -0.3520 -0.1604 -0.0973
30619W        W49366  27.780   1.149  12.200  0.1702 -0.0492  0.0712
30620W        W49367  18.407  34.361  22.223  0.1738  0.0190  0.2326
30621W        W49368  28.869  20.293   8.923  0.0845  0.1022  0.0451
30622W        W49369   8.104  22.661  21.453  0.1518  0.0193 -0.0693
30623W        W49370  21.989  31.024  25.935  0.3508 -0.1100  0.2932
30624W        W49371  22.148  35.255  18.638 -0.0077  0.1258 -0.3525
30625W        W49372  11.410  14.634  13.519 -0.1202 -0.2036  0.0023
30626W        W49373  19.655   5.257  23.180  0.0003  0.2007  0.0307
30627W        W49374   1.642   2.269  20.786 -0.3162  0.2076  0.0735
30628W        W49375  31.815   1.171  16.742  0.2400 -0.2535  0.1807
30629W        W49376  12.499  26.547  26.073 -0.0400  0.1438 -0.2036
30630W        W49377  33.725  17.810  23.272 -0.0298 -0.2262 -0.2030
30631W        W49378  16.565  29.192  11.345 -0.1054  0.1571 -0.0262
30632W        W49379  20.917  34.282  25.944  0.0784 -0.1755 -0.2060
30633W        W49380  17.884  31.940  18.164 -0.0339  0.0261 -0.0654
30634W        W49381  27.341  23.518   8.273 -0.1722 -0.0960 -0.3353
30635W        W49382  32.421  25.585   1.719  0.0421  0.2798  0.1310
30636W        W49383  33.675  21.967  23.236  0.1421 -0.1089  0.1666
30637W        W49384   8.627  12.425  11.759  0.1964  0.0543  0.1119
30638W        W49385  15.787   3.452   1.007 -0.0751 -0.3131  0.1991
30639W        W49386  28.174  17.737  10.107 -0.2478 -0.0929  0.1689
30640W        W49387   1.618  18.033  25.141  0.1663  0.1667 -0.0130
30641W        W49388  16.234  31.849   6.179 -0.1442  0.1432 -0.0388
30642W        W49389   6.594  24.810   1.474 -0.3809  0.6851  0.0279
30643W        W49390   5.839   5.262  25.965  0.2846  0.1614  0.2149
30644W        W49391  33.148  28.363  19.839  0.1221  0.1335 -0.3066
30645W        W49392  28.017  33.382  23.378  0.0245 -0.0528 -0.1479
30646W        W49393  18.182  19.276  19.882  0.0891  0.1470  0.0776
30647W        W49394   3.923  31.739   8.951 -0.0018 -0.2341 -0.1699
30648W        W49395  32.484  21.543   0.053 -0.0588  0.0010 -0.0235
30649W        W49396   3.535   9.400   0.315 -0.1145  0.0577  0.0070
30650W        W49397   8.952  11.608  26.005  0.2349  0.3170 -0.1140
30651W        W49398  26.302   5.121   4.948  0.3306  0.2483  0.0831
30652W        W49399  13.305  31.104  14.968  0.2407 -0.0096  0.1469
30653W        W49400  26.980  16.856   6.953 -0.0861  0.0163 -0.1344
30654W        W49401   3.045  33.062   2.169  0.1552  0.0503  0.0689
30655W        W49402  23.017   9.555  18.617  0.1455  0.1463 -0.0779
30656W        W49403  33.566  14.318  19.036 -0.0198  0.0108  0.1245
30657W        W49404  35.190   5.511   5.170 -0.2226 -0.0072 -0.1588
30658W        W49405  15.176  28.130  14.808  0.1933 -0.3435 -0.0825
30659W        W49406  28.059   4.368  10.648  0.3010  0.2922  0.1690
30660W        W49407   1.827   1.346   7.834  0.2643  0.0131  0.0173
30661W        W49408  29.224  31.534  15.867  0.0758  0.0050 -0.4198
30662W        W49409  31.615  33.849  23.967  0.1341 -0.2614 -0.1653
30663W        W49410  27.464   5.650  13.092  0.0801  0.2246  0.2026
30664W        W49411   5.061  11.871  19.331  0.0397 -0.1299 -0.1926
30665W        W49412   6.048  14.629  19.333  0.0880 -0.0482 -0.2635
30666W        W49413  19.325   6.592   7.126 -0.0710 -0.2009  0.0570
30667W        W49414  12.671  30.487  15.832 -0.1483  0.0006 -0.0901
30668W        W49415  24.817  31.233   1.686  0.1693  0.1365 -0.0283
30669W        W49416  13.169  13.613  26.082  0.1253  0.0620 -0.0973
30670W        W49417  29.094  23.561  22.594 -0.3409 -0.0512  0.0053
30671W        W49418  12.871   8.867  24.520  0.0646  0.2372  0.1967
30672W        W49419   6.915  34.687  24.226  0.3206  0.0910  0.2950
30673W        W49420   5.391   7.567   5.223 -0.3276  0.0990 -0.0755
30674W        W49421  33.638   4.822  22.854 -0.0061  0.0026  0.0181
30675W        W49422  24.247  14.617   0.061  0.1153  0.0024 -0.1625
30676W        W49423  29.363  11.721  13.774 -0.0028  0.1360  0.0458
30677W        W49424  34.051  26.468  24.614 -0.1967 -0.0343 -0.2894
30678W        W49425  27.547  17.340  12.609  0.3674  0.1076  0.2040
30679W        W49426  14.195  12.077  11.165 -0.2325 -0.1409  0.0849
30680W        W49427  28.344  21.432  10.836 -0.0345  0.2920 -0.4276
30681W        W49428  24.704   1.472  13.954  0.3017 -0.4811 -0.1228
30682W        W49429   2.001  17.604  14.629 -0.1334  0.0483 -0.0202
30683W        W49430  35.336   8.665  23.075 -0.1550  0.0290 -0.2023
30684W        W49431   4.425   9.815   1.786 -0.1720 -0.0872 -0.1260
30685W        W49432  15.489  11.525   5.199 -0.2052 -0.1967 -0.3710
30686W        W49433   9.096   3.590   5.841 -0.2193 -0.0056 -0.0285
30687W        W49434  19.244   5.562   3.922  0.1978  0.3073 -0.0744
30688W        W49435   9.477  20.104   5.135 -0.2967  0.0556  0.1584
30689W        W49436   8.054  14.932   9.877 -0.1674  0.4132  0.4138
30690W        W49437  13.667   2.694   8.022  0.1172  0.1943 -0.0622
30691W        W49438   7.354  34.781   2.743  0.1992  0.0241  0.0495
30692W        W49439  16.124  28.169   2.048 -0.0847  0.1411  0.1415
30693W        W49440   0.072   3.737   8.135  0.2422  0.1136 -0.1415
30694W        W49441  18.216  30.207  17.346 -0.0019 -0.1530  0.1170
30695W        W49442  10.630   6.982  12.726  0.0413  0.1105 -0.2208
30696W        W49443   3.795   9.290   6.145 -0.1420  0.0192 -0.0615
30697W        W49444  28.029  22.993  12.105 -0.0560 -0.1294 -0.0405
30698W        W49445  28.838  21.404  26.034 -0.4210 -0.2032  0.0159
30699W        W49446  34.557  24.854  13.426  0.0489  0.1264  0.4509
30700W        W49447  32.438  18.589   6.675  0.0365  0.2208 -0.1748
30701W        W49448  15.077  24.322  12.247 -0.1398 -0.0179 -0.0165
30702W        W49449  28.541  32.686  11.398 -0.2745 -0.3146 -0.2487
30703W        W49450  25.144  18.635  13.540  0.0264 -0.3640  0.1214
30704W        W49451  27.834  26.312  21.644 -0.1718  0.4526  0.1000
30705W        W49452  19.680  18.307  17.819 -0.1949 -0.2090  0.2018
30706W        W49453  33.743   1.360   1.126  0.3722  0.1687  0.2987
30707W        W49454   6.136  24.221  11.439  0.3402  0.1115  0.1789
30708W        W49455  12.446  29.108   5.945  0.1498 -0.0028 -0.0088
30709W        W49456  19.067  10.217   6.477 -0.1381  0.3877  0.2328
30710W        W49457  25.652  19.687  13.171 -0.0671 -0.1796  0.0686
30711W        W49458  10.725  31.653  26.007  0.0009  0.1310  0.4268
30712W        W49459  11.138  27.025  14.005  0.4932  0.0307  0.0705
30713W        W49460  14.021  26.570   1.157 -0.0527  0.0392  0.0054
30714W        W49461   3.996   5.783   3.629 -0.4757  0.1176 -0.1083
30715W        W49462  31.669  34.221  22.625  0.0399 -0.1110 -0.1596
30716W        W49463   7.631   1.238  25.376  0.0252 -0.1325 -0.1775
30717W        W49464   9.243   8.390   5.857 -0.0984  0.3978 -0.1283
30718W        W49465  15.439  13.739   1.423 -0.2012  0.2723 -0.2848
30719W        W49466  23.377   2.647   0.438  0.0482 -0.4305 -0.0992
30720W        W49467  35.306  14.357   9.169  0.0590 -0.1262 -0.0744
30721W        W49468  27.160  25.205  21.325  0.2833 -0.1291 -0.1559
30722W        W49469  25.348   0.433  16.695 -0.0847 -0.3295 -0.2605
30723W        W49470   1.549  16.613   2.226 -0.1394 -0.0918  0.2287
30724W        W49471  10.733  14.899  24.947 -0.0269 -0.0283 -0.1897
30725W        W49472  33.414   1.541   6.554 -0.1873 -0.1845  0.0431
30726W        W49473  20.683  26.311   4.170  0.2252  0.2263  0.1130
30727W        W49474  13.331  24.075   2.416 -0.3266 -0.1535  0.2313
30728W        W49475  30.900  17.350   5.763 -0.1871 -0.0601  0.0227
30729W        W49476  13.668  13.230  22.666  0.2616  0.0238 -0.0259
30730W        W49477  12.847  16.818  11.861 -0.2145 -0.0164 -0.0337
30731W        W49478  23.671  29.380  11.957  0.1830  0.2474  0.0559
30732W        W49479  11.658  17.153  23.471 -0.4242 -0.0338  0.0579
30733W        W49480   6.796  29.452  25.691 -0.5279  0.0521  0.0221
30734W        W49481  11.271  15.804  19.625  0.2197 -0.1683 -0.1475
30735W        W49482  34.361  34.487  23.916 -0.0481  0.1491 -0.2878
30736W        W49483   2.856  18.759  13.646 -0.1666 -0.0870 -0.0963
30737W        W49484   7.464  11.636   3.878 -0.3314 -0.1142 -0.0461
30738W        W49485  13.947  11.205  10.959 -0.0636 -0.2124 -0.0622
30739W        W49486   8.527  30.187  22.140  0.0933 -0.1202 -0.1230
30740W        W49487   7.902  21.476   6.072  0.0487 -0.1370 -0.2715
30741W        W49488  28.371   9.594  22.456 -0.1332  0.1631  0.1486
30742W        W49489  10.533   4.567   1.317 -0.0255  0.2326  0.0654
30743W        W49490  12.543  22.411  24.328  0.0420 -0.0267  0.2148
30744W        W49491  31.728  33.099   2.192  0.2431  0.2612 -0.0372
30745W        W49492  29.594  22.021  16.810  0.0651 -0.3627 -0.1266
30746W        W49493  30.015  28.518  22.094  0.2259 -0.0823 -0.0348
30747W        W49494  22.879   8.359  23.972 -0.0575  0.0563  0.1248
30748W        W49495  21.005  23.714  23.871 -0.2873  0.0091  0.1592
30749W        W49496  16.353  35.321   7.767 -0.0268  0.1544  0.0352
30750W        W49497  17.246  15.057  24.216 -0.1370  0.2748 -0.0374
30751W        W49498  24.753  15.062  14.162  0.0809 -0.3270 -0.0802
30752W        W49499  10.653  20.144   5.153  0.2188 -0.2368  0.3286
30753W        W49500   0.891  26.321  17.253 -0.0482 -0.1737 -0.1336
30754W        W49501  14.498  29.675   4.685 -0.5135  0.3797  0.0802
30755W        W49502  31.584  34.617  12.920 -0.3265  0.0536  0.0796
30756W        W49503   9.469   0.321   3.467  0.2029 -0.0613  0.0197
30757W        W49504   6.581   5.034  22.823  0.0814 -0.0381  0.2204
30758W        W49505  14.841   0.352   5.240 -0.2550 -0.1535  0.0329
30759W        W49506  25.066  23.943  21.779  0.0473 -0.1828 -0.0064
30760W        W49507   4.959   7.034  10.111 -0.0115  0.0354  0.2924
30761W        W49508  18.881  12.652  17.499  0.2037  0.3206 -0.1661
30762W        W49509  17.304  10.468   7.632 -0.0288 -0.0496 -0.1192
30763W        W49510  22.669   4.007  19.628  0.2191  0.0739 -0.1705
30764W        W49511  12.644  34.411  24.125 -0.1188  0.1331  0.1797
30765W        W49512  33.766  18.887  22.560 -0.2483 -0.0233  0.1091
30766W        W49513  17.763  20.449  23.731  0.1641  0.0289 -0.0931
30767W        W49514  17.804  23.172  12.264  0.4206  0.2290  0.1944
30768W        W49515  22.999   0.683   3.445 -0.0116 -0.3913 -0.2120
30769W        W49516  17.370   2.739   7.970  0.1575 -0.0425  0.1328
30770W        W49517  27.621  31.549  20.944  0.1103  0.1100 -0.0470
30771W        W49518   5.940  28.269  10.374  0.4936 -0.1281 -0.3948
30772W        W49519  11.535  19.903  24.586 -0.0201  0.1188  0.0287
30773W        W49520  24.064  31.838   4.852 -0.0153 -0.0294  0.1582
30774W        W49521  19.451  26.092   0.010 -0.1462  0.2193 -0.1986
30775W        W49522  11.085  31.417  14.897  0.0769 -0.0910 -0.2155
30776W        W49523  13.451  30.332  22.823  0.0801 -0.6416 -0.1681
30777W        W49524   1.098  22.080  25.313  0.1643 -0.0781 -0.0851
30778W        W49525  28.784   1.294  16.349  0.2248  0.2224  0.0130
30779W        W49526  26.314   8.044  16.679 -0.2459 -0.0535 -0.0719
30780W        W49527  10.433  22.158  25.474 -0.2592  0.3222 -0.0406
30781W        W49528  21.620  17.070  24.260 -0.1263 -0.1301 -0.0701
30782W        W49529  13.229  25.386  12.279  0.0771  0.0243  0.0238
30783W        W49530   8.943  19.933  13.271  0.0940  0.3084  0.1919
30784W        W49531  32.521  20.174  20.854 -0.2424  0.2091  0.3283
30785W        W49532  14.674  15.002  20.956 -0.1851  0.0665 -0.0621
30786W        W49533   9.257  31.547   7.200 -0.0703 -0.1995 -0.0331
30787W        W49534  31.527  30.821  24.130  0.0010 -0.1738 -0.1992
30788W        W49535   3.402  14.234  24.004 -0.0454 -0.2272 -0.1194
30789W        W49536   7.368  18.249  20.670 -0.1857 -0.2455  0.1522
30790W        W49537   9.784  22.472   0.562 -0.0176  0.1387 -0.2013
30791W        W49538  12.923  30.512  22.676  0.0733 -0.1964  0.2597
30792W        W49539  15.973  24.562  11.236  0.2400  0.1477 -0.2236
30793W        W49540  28.844   3.884  15.237  0.0442 -0.0665  0.4458
30794W        W49541   6.200  15.274   9.308 -0.3046 -0.3195  0.0884
30795W        W49542  26.248  20.000  12.533  0.3241 -0.1769  0.0120
30796W        W49543  17.130  24.000   1.406  0.0728  0.0904  0.2078
30797W        W49544   5.717   1.766   2.015 -0.1251  0.1205 -0.0669
30798W        W49545  10.176  26.453  22.282  0.0794  0.1788 -0.1657
30799W        W49546  32.647   3.975   2.464 -0.0731 -0.0865 -0.0651
30800W        W49547  31.079   0.766   0.736  0.3103 -0.1074  0.4927
30801W        W49548   7.240   4.367  13.397  0.4012  0.2573 -0.0315
30802W        W49549  31.866  34.422   0.438 -0.1941  0.0027  0.4145
30803W        W49550  10.066  34.030  24.806  0.1431  0.0705  0.0032
30804W        W49551   1.154  15.715  13.382  0.1528  0.0174 -0.3125
30805W        W49552   0.755  11.064  19.032  0.1543 -0.4423 -0.0896
30806W        W49553  26.567  33.651  16.736 -0.2882  0.0681 -0.2815
30807W        W49554  21.156  35.004  20.468 -0.1909 -0.0402 -0.2404
30808W        W49555  18.897   8.794  21.271  0.2283  0.1071  0.3507
30809W        W49556   7.196   6.560  12.777 -0.1352  0.0247 -0.1842
30810W        W49557  26.388  14.125  16.120 -0.1554 -0.3830 -0.0602
30811W        W49558  14.027  20.822   8.401  0.0056 -0.0227 -0.0150
30812W        W49559   6.186  20.678   2.308  0.1384 -0.0518 -0.0121
30813W        W49560   8.901  14.610  22.291  0.2283  0.1471 -0.0182
30814W        W49561   3.830   4.311  24.995 -0.0035  0.0038  0.5751
30815W        W49562  20.853  16.531  23.656 -0.1843 -0.2419 -0.0286
30816W        W49563   2.047   1.205   9.073 -0.2059 -0.3041  0.1284
30817W        W49564  15.856  31.564   1.421 -0.0738 -0.0684 -0.2016
30818W        W49565  19.291   8.145   1.838 -0.2698  0.0162 -0.0400
30819W        W49566  14.158   0.566   2.925 -0.1632  0.0696 -0.1074
30820W        W49567   8.973  15.022   5.412 -0.0818 -0.1688  0.3674
30821W        W49568  33.572  15.238  11.225  0.0971  0.0081 -0.0012
30822W        W49569  29.780   4.009  13.955 -0.3898  0.0718 -0.0457
30823W        W49570  11.132  31.931   6.807  0.3652 -0.3011  0.2566
30824W        W49571  32.992  29.445  18.243 -0.2976  0.1285  0.0510
30825W        W49572  29.379  18.149  12.473 -0.3441  0.1253 -0.1875
30826W        W49573  30.124   6.226  16.572 -0.2160  0.3035 -0.1174
30827W        W49574   9.673  32.936  10.519  0.0532  0.1675 -0.0180
30828W        W49575  31.824  14.446  25.376  0.1011 -0.0046  0.5008
30829W        W49576   5.079  18.228  24.909  0.0356 -0.0536 -0.2398
30830W        W49577  23.274   4.776  20.076  0.0996  0.1923  0.2473
30831W        W49578  11.893   7.507   3.606  0.4186  0.0847  0.4653
30832W        W49579  31.251  28.994   2.601 -0.0917 -0.0339  0.0096
30833W        W49580  13.062   3.732  22.197  0.0667 -0.1786  0.1618
30834W        W49581  28.069  14.487  25.068  0.0710  0.0852 -0.0905
30835W        W49582   6.675  25.845  12.774 -0.1913 -0.1623 -0.1277
30836W        W49583  16.068   1.542  18.421  0.0030  0.0240 -0.0385
30837W        W49584  31.628  13.919  18.987 -0.1623  0.1365  0.2963
30838W        W49585  28.715  12.939  24.555  0.2505  0.1322 -0.0128
30839W        W49586   7.656  29.915   4.109 -0.0164 -0.1212  0.4429
30840W        W49587   9.392   7.490  14.722 -0.0329 -0.3009  0.2366
30841W        W49588  21.119  34.873  14.029  0.0516  0.0044 -0.0132
30842W        W49589   7.546  17.267   9.789  0.2515  0.0603  0.1800
30843W        W49590  17.175  18.692  24.713 -0.1137  0.2271  0.2074
30844W        W49591  24.400  31.535  20.776  0.1801  0.0868 -0.3630
30845W        W49592  30.761  26.163  22.058  0.0968 -0.2534 -0.1092
30846W        W49593   6.210   7.417  18.030 -0.1306 -0.1226 -0.1343
30847W        W49594   7.430  15.011  11.397  0.0819 -0.2454  0.0351
30848W        W49595   0.291  15.516  19.952  0.0626 -0.0457 -0.0813
30849W        W49596   1.547   8.889   5.455  0.0689 -0.0033  0.0170
30850W        W49597  30.406   6.643  12.284 -0.0875  0.1002  0.2012
30851W        W49598   8.215   5.492   8.662 -0.0435  0.6009 -0.0731
30852W        W49599  20.492  34.520  22.017  0.1338  0.2198  0.3709
30853W        W49600   4.457  14.227   3.737 -0.1019 -0.1675  0.0910
30854W        W49601  14.334  26.463   7.980 -0.0061 -0.0109 -0.0145
30855W        W49602  21.398  15.889   3.711 -0.0241  0.1014  0.0484
30856W        W49603  27.715   3.029  24.811  0.1015  0.1565  0.1792
30857W        W49604  25.401   8.053  11.863 -0.3178  0.1589 -0.1571
30858W        W49605   9.454  26.252   3.344  0.2957  0.2804 -0.1898
30859W        W49606   7.531  32.991  24.111  0.2563  0.0529  0.1738
30860W        W49607  16.950   6.179  23.481 -0.0580 -0.0984 -0.2220
30861W        W49608  28.793  17.947   9.521  0.0526  0.1081 -0.0579
30862W        W49609  30.611  27.897  23.831 -0.0680  0.2273  0.1840
30863W        W49610  10.623  33.777  12.091  0.2797  0.0650  0.2039
30864W        W49611   7.627   1.578  15.269  0.3661  0.2384 -0.1928
30865W        W49612  19.952   3.992  17.459  0.0470 -0.1856 -0.0467
30866W        W49613  29.418   2.076  17.817 -0.0749 -0.0607 -0.1713
30867W        W49614   1.353  34.288  25.979 -0.0004  0.2628  0.2136
30868W        W49615  19.209   6.893  17.630 -0.3036 -0.0968  0.0800
30869W        W49616   1.972   0.299   8.082 -0.0898 -0.2160 -0.0941
30870W        W49617  12.955  29.964  15.035  0.1170  0.3148 -0.1593
30871W        W49618  22.527  30.233  19.619  0.0714  0.1759  0.2695
30872W        W49619   8.815  13.687   6.712 -0.0517 -0.3444 -0.1281
30873W        W49620   9.560   6.998   0.746  0.0576 -0.1267  0.1210
30874W        W49621  26.777  26.324  23.446  0.3137 -0.1531  0.1937
30875W        W49622  24.794  13.980  24.653  0.1501 -0.0130 -0.3121
30876W        W49623  17.851   0.092   2.247  0.1409  0.0619  0.1374
30877W        W49624  17.993  32.343   4.533  0.1336  0.0362 -0.3063
30878W        W49625  21.557  25.910   4.483 -0.3616  0.0141  0.3939
30879W        W49626  20.956   3.724   0.448 -0.1417  0.1991  0.0630
30880W        W49627   7.748   5.000   1.677 -0.1810  0.1386  0.0736
30881W        W49628  11.548  19.552  14.403 -0.1369  0.0460 -0.3239
30882W        W49629   8.406  26.981   8.837 -0.1325  0.0509  0.0046
30883W        W49630   4.398  24.750   3.385  0.0076  0.2417  0.0305
30884W        W49631  23.467   4.332   1.602  0.0057  0.0284  0.2070
30885W        W49632  26.077   1.824  15.775  0.1010  0.0789  0.0584
30886W        W49633   8.047  18.393  22.860 -0.1288  0.1806 -0.3254
30887W        W49634  13.148  13.752  19.062  0.0589  0.0735 -0.0442
30888W        W49635   8.404  28.266  23.677  0.1160 -0.2231 -0.0726
30889W        W49636  28.574  14.223  25.158  0.1467 -0.0223 -0.3332
30890W        W49637  32.719  29.787   5.427  0.1566  0.1295 -0.2554
30891W        W49638  16.371  27.827   5.807  0.0284 -0.0242  0.1840
30892W        W49639  22.920   1.214  18.579  0.4864 -0.2845 -0.1245
30893W        W49640  33.389  32.392   6.068 -0.4050 -0.1017  0.2418
30894W        W49641  18.862  18.582  25.518 -0.0574  0.0015 -0.3043
30895W        W49642  31.826  31.434   3.752 -0.2071  0.2614  0.5279
30896W        W49643  23.726  10.737  18.270 -0.1971  0.0302 -0.0484
30897W        W49644  15.172  33.892   9.175 -0.1353  0.1533  0.0570
30898W        W49645  18.116   3.850  20.979 -0.0749 -0.1651  0.1666
30899W        W49646   5.407  35.347   0.800  0.1248 -0.0418 -0.2349
30900W        W49647  14.510  17.590  21.646  0.3774  0.1457  0.1848
30901W        W49648  11.781  32.138  15.018  0.0595  0.1514  0.0086
30902W        W49649  34.770   6.520  18.622  0.2351 -0.1429 -0.1764
30903W        W49650   9.255  19.226  25.692  0.0913  0.3008  0.1252
30904W        W49651  14.592   1.968   2.967 -0.0033  0.0402 -0.2626
30905W        W49652   7.516  33.028   7.695  0.3902  0.0236 -0.1045
30906W        W49653  26.530   1.924  23.216  0.0397 -0.0331 -0.2181
30907W        W49654  31.043  23.236  10.126 -0.2341  0.0685  0.2854
30908W        W49655  32.882  18.428  15.824 -0.0812  0.4345 -0.0622
30909W        W49656  21.018  19.273  20.550  0.2090  0.2627 -0.0225
30910W        W49657  31.936  28.242  20.535 -0.2097 -0.1767  0.0037
30911W        W49658  24.524   9.211  17.280  0.2590 -0.4037 -0.3633
30912W        W49659  25.952   8.415  12.410 -0.0285  0.2427  0.2202
30913W        W49660  24.124   4.415  19.150  0.4460 -0.1536  0.0659
30914W        W49661   1.270  17.866  12.178  0.2142 -0.2814 -0.1917
30915W        W49662  30.632   7.768  14.342 -0.2596  0.2630 -0.2488
30916W        W49663  32.189  12.454  16.295  0.2854 -0.1859  0.0149
30917W        W49664  12.834  24.362  15.267  0.0515  0.1163 -0.1142
30918W        W49665  26.663  34.569   3.897  0.0613 -0.2729  0.0956
30919W        W49666  11.822   0.463  26.054 -0.0554  0.1233  0.0367
30920W        W49667   8.561  28.908   5.408  0.0314 -0.1743  0.0191
30921W        W49668  18.131   1.285   8.256 -0.0518 -0.0844  0.0020
30922W        W49669  13.175  31.396  25.253 -0.3641  0.2196  0.0175
30923W        W49670  31.622  16.217  20.227  0.3132 -0.1442 -0.3472
30924W        W49671  34.285  20.386   0.004 -0.3176  0.2442  0.1001
30925W        W49672   4.383   5.148  23.199  0.1726  0.3678 -0.1714
30926W        W49673  17.093   8.048  21.713 -0.0285 -0.1293 -0.0139
30927W        W49674  24.817  23.725  15.628 -0.2655  0.1268 -0.2752
30928W        W49675  35.277  20.040  10.947  0.2849 -0.0147 -0.1522
30929W        W49676  27.526  17.974  18.045 -0.2185 -0.2722 -0.0063
30930W        W49677  14.502  29.092   2.499 -0.0040 -0.0169 -0.0348
30931W        W49678  10.136  34.923  13.056 -0.2139  0.0564  0.0027
30932W        W49679  31.334  32.053  13.512  0.1495 -0.0051 -0.0972
30933W        W49680   3.674  26.357  25.785 -0.0049 -0.1092 -0.1473
30934W        W49681  22.087  21.226  22.822 -0.1351 -0.0612  0.2277
30935W        W49682  28.906   8.265  12.367  0.1109 -0.0755  0.2100
30936W        W49683   1.182  21.702  11.495 -0.0612 -0.0970 -0.0465
30937W        W49684   1.227  29.032  17.593  0.0965 -0.0317  0.3941
30938W        W49685  29.540  21.822  23.245 -0.1313 -0.2062 -0.1807
30939W        W49686  33.017  14.012  24.432 -0.2614 -0.0577 -0.2163
30940W        W49687  21.256   2.377   0.954 -0.1364  0.0216  0.2587
30941W        W49688  33.382  29.716   4.250 -0.1038  0.0845 -0.3151
30942W        W49689   8.123  11.080   1.694  0.3819 -0.1999  0.1960
30943W        W49690   9.240  22.008  25.961 -0.0161  0.1877 -0.0645
30944W        W49691  11.115  13.823  25.110  0.4264 -0.1305 -0.3306
30945W        W49692  12.494  18.932   5.140 -0.0778  0.0495  0.0237
30946W        W49693   1.008  14.507  25.381  0.0241 -0.0125  0.0143
30947W        W49694  23.739   3.139  23.858 -0.0815  0.1919 -0.2097
30948W        W49695  13.770  12.280   3.736 -0.0490 -0.2767 -0.1933
30949W        W49696  31.388  21.189  21.892  0.1816 -0.2190 -0.1961
30950W        W49697  35.279  23.736  25.016  0.4412  0.3143 -0.1524
30951W        W49698   8.396  22.672   5.642 -0.2878 -0.2450  0.2897
30952W        W49699   4.191  21.178  22.150 -0.3747  0.0823 -0.2416
30953W        W49700  30.239  22.154  20.005  0.2924 -0.2549 -0.1299
30954W        W49701  15.109   0.187   9.025  0.1987  0.0197 -0.0456
30955W        W49702   9.173   3.582  10.814  0.0131  0.0525  0.3204
30956W        W49703  33.113   9.971  17.395 -0.1016 -0.0061  0.1383
30957W        W49704  25.578   9.807   1.135 -0.3248 -0.3518 -0.0739
30958W        W49705  12.027  34.855  12.352 -0.3003  0.1027 -0.0061
30959W        W49706  25.093  12.508  23.350 -0.2913 -0.1265  0.0499
30960W        W49707  11.237  14.867  10.533  0.1334 -0.2287  0.2548
30961W        W49708   6.999  10.031  10.698  0.0790  0.1713  0.0747
30962W        W49709  32.585  20.729   9.110 -0.1788 -0.4617 -0.0229
30963W        W49710  15.386   0.887  25.165  0.1952 -0.0086 -0.0511
30964W        W49711  11.653  20.643   9.290  0.0383 -0.0068  0.3487
30965W        W49712  32.926   5.499  25.203  0.1270  0.0969  0.0348
30966W        W49713  21.146  26.596  22.422  0.0177 -0.0406  0.0569
30967W        W49714  15.577  21.500  16.418  0.4029  0.2548 -0.1230
30968W        W49715  32.285  17.540  25.591 -0.0830 -0.2844 -0.1640
30969W        W49716  13.929  22.297   6.700  0.1181 -0.2423 -0.0259
30970W        W49717  30.895  27.498  24.004  0.0282  0.1811  0.1725
30971W        W49718  34.306   2.372  22.563  0.2552 -0.0620  0.1178
30972W        W49719  32.639  28.142  12.753 -0.1105 -0.0585 -0.4195
30973W        W49720  23.825  34.777   4.125 -0.1137 -0.0958 -0.0621
30974W        W49721  33.372   1.037  20.971 -0.2630 -0.0072 -0.2209
30975W        W49722  30.597   8.035   0.039  0.0407  0.0043  0.1202
30976W        W49723  17.190  17.365   6.506  0.0579  0.0215  0.1155
30977W        W49724   8.319   7.376   1.483 -0.0181  0.0877 -0.0756
30978W        W49725  28.849  31.533  20.087 -0.1623  0.1365  0.2127
30979W        W49726   9.505   2.707   3.592 -0.1040  0.2093 -0.0957
30980W        W49727  31.289  15.931  14.723 -0.0531  0.0509  0.1710
30981W        W49728  34.736  30.001  24.465 -0.0135 -0.2126  0.2024
30982W        W49729   8.721   1.669   1.820  0.0659  0.2587 -0.2105
30983W        W49730   9.028  35.181  25.152  0.0310  0.1222 -0.4616
30984W        W49731  17.150   8.563  18.264  0.1956 -0.0587  0.3408
30985W        W49732  32.760  11.833  14.029 -0.2600  0.2981  0.0412
30986W        W49733   0.454  13.182  13.436  0.0991  0.2722  0.1386
30987W        W49734   1.879   6.806  15.403 -0.0168  0.0511 -0.1301
30988W        W49735  20.154  24.986   1.865 -0.1702 -0.0675  0.0265
30989W        W49736  30.721  15.755  25.380 -0.0833  0.1807  0.1940
30990W        W49737  18.819   5.474   4.794  0.1287  0.1730 -0.0525
30991W        W49738  10.081  17.736   0.041  0.1186 -0.0048 -0.0529
30992W        W49739  15.066  10.421   8.648  0.3221 -0.1440 -0.0267
30993W        W49740  32.383  10.251  16.437  0.2435 -0.0293 -0.1077
30994W        W49741   5.383  24.636   8.777 -0.0082 -0.0221 -0.0425
30995W        W49742   0.853  24.463  17.816  0.0520  0.1298  0.2258
30996W        W49743  25.834  11.879  23.613  0.1802  0.0880 -0.1351
30997W        W49744  22.475  22.484  22.070  0.1036  0.1001  0.3948
30998W        W49745   2.140  32.063  23.843 -0.0650  0.1259 -0.3472
30999W        W49746  15.049   7.193   2.106 -0.0642  0.3053 -0.0049
31000W        W49747  27.415  17.760  19.982 -0.3320 -0.2361 -0.0255
31001W        W49748   7.601  14.166   5.201  0.1286  0.0820 -0.2043
31002W        W49749  20.046  25.575  22.237  0.4498  0.2475 -0.3021
31003W        W49750   2.652  33.037  11.919  0.2014  0.0397  0.3186
31004W        W49751  26.271  26.397   9.099 -0.2966 -0.1654 -0.0238
31005W        W49752  14.829  24.071  13.090 -0.2108 -0.1918  0.0361
31006W        W49753   1.852  21.283  16.905  0.2253 -0.0646 -0.0003
31007W        W49754  25.250  30.078   2.554  0.1586 -0.0478 -0.0296
31008W        W49755  17.129  15.883   2.120 -0.3110  0.1520 -0.0789
31009W        W49756   4.342  32.753  24.600  0.3844 -0.0489  0.2844
31010W        W49757  21.985  14.429  16.166  0.1916  0.0453  0.1177
31011W        W49758  33.334  31.786  13.882  0.1392  0.1642 -0.1882
31012W        W49759   4.630  19.317  25.176 -0.0605  0.0097 -0.2392
31013W        W49760  16.501  23.905  13.488  0.0488  0.2362  0.0215
31014W        W49761   1.262  29.562  23.693  0.0514 -0.0154 -0.1856
31015W        W49762  19.556   3.169   2.302 -0.0312  0.2892  0.0071
31016W        W49763  20.712  20.502   4.051  0.1206  0.1849 -0.1805
31017W        W49764   1.148   4.661  20.918  0.1699 -0.0106  0.1189
31018W        W49765  29.522   9.093  16.457 -0.1481 -0.0510  0.0469
31019W        W49766  15.863   0.607  16.957 -0.1803  0.0312 -0.0571
31020W        W49767  22.500  25.822  25.833 -0.0145  0.3164 -0.2896
31021W        W49768   4.216  29.935   9.125 -0.1009 -0.3606 -0.2894
31022W        W49769  32.641   1.727   2.585  0.3569  0.1017 -0.0898
31023W        W49770  14.224  32.518   3.062  0.0385  0.0138  0.0290
31024W        W49771  22.501  33.119  19.856 -0.0489  0.1893 -0.0365
31025W        W49772  33.941   2.001  26.156 -0.1235  0.1962 -0.3008
31026W        W49773  22.047  27.587  15.138  0.2680  0.0010 -0.0204
31027W        W49774  32.486   4.796  14.102 -0.2005 -0.1017  0.0582
31028W        W49775  28.343  34.181  23.526 -0.0377 -0.0674  0.3212
31029W        W49776   6.538  12.496  22.506 -0.0280 -0.0135 -0.0266
31030W        W49777   1.970  22.016  15.754  0.1213 -0.0803 -0.1676
31031W        W49778  32.978   0.842  21.298 -0.1709  0.1819  0.0509
31032W        W49779  10.982   4.934  10.314 -0.2833  0.5464 -0.0276
31033W        W49780   4.737   2.048  10.517 -0.1510 -0.1038  0.0786
31034W        W49781   4.726  16.255   2.264 -0.2429  0.5066 -0.0661
31035W        W49782  30.038  19.657   5.952 -0.0305  0.1340 -0.1760
31036W        W49783  15.587   6.129   2.295 -0.1214  0.2587 -0.0045
31037W        W49784  25.409  18.728  14.490  0.0309  0.1613  0.0470
31038W        W49785  31.036  31.675  14.665  0.1460 -0.0902 -0.2468
31039W        W49786  30.662  20.886   5.220 -0.0790  0.0552  0.0161
31040W        W49787  34.373  16.376  19.151  0.1946  0.2058  0.0834
31041W        W49788  10.116  15.299   6.067 -0.0378 -0.0897  0.1341
31042W        W49789   2.434  10.564  25.921  0.1206  0.0345  0.0099
31043W        W49790  24.523  14.397   0.665  0.1705 -0.2214 -0.0520
31044W        W49791   7.492   1.751  25.523 -0.1150  0.2626  0.1877
31045W        W49792   3.512  29.578  24.908 -0.0221 -0.1049  0.2100
31046W        W49793  12.880  26.516   2.123  0.1534 -0.0477  0.1899
31047W        W49794  33.009  12.375  18.457 -0.0584  0.1093  0.0303
31048W        W49795  27.820  18.150   7.107  0.1333  0.1079 -0.0941
31049W        W49796  19.998  11.308  21.811  0.0437 -0.1560  0.1716
31050W        W49797   5.624  25.926   3.937  0.3247 -0.4326 -0.2933
31051W        W49798  34.607  14.755  10.459 -0.4181  0.0382  0.0128
31052W        W49799  35.102   8.715   1.118 -0.1052  0.2923  0.1598
31053W        W49800   9.427  16.527  26.135  0.1174 -0.0442 -0.0474
31054W        W49801  17.985  31.281  10.088 -0.3759  0.2311 -0.3523
31055W        W49802  30.529   9.724  17.424 -0.0614 -0.0837 -0.0833
31056W        W49803  15.494   4.258   0.911  0.0958  0.0091  0.3435
31057W        W49804  31.017   1.772   1.238 -0.3686 -0.1639 -0.1575
31058W        W49805  23.958   5.477  19.863 -0.2210 -0.0113 -0.0114
31059W        W49806  17.423  17.818  12.836 -0.3783 -0.4443 -0.3092
31060W        W49807  20.035  15.562  18.389  0.0816 -0.0211  0.0349
31061W        W49808   9.874  24.301   6.390  0.2868  0.2096  0.0553
31062W        W49809   9.970   0.932   5.670  0.1717  0.0823  0.0558
31063W        W49810   6.171  12.306   8.260 -0.0512  0.0026 -0.0410
31064W        W49811   0.558  19.845  24.740  0.1701  0.1221  0.0273
31065W        W49812  21.114  16.897  18.144 -0.0866 -0.0351 -0.1040
31066W        W49813  31.837  23.116  24.110  0.2556  0.3652  0.2980
31067W        W49814  19.268  34.633  19.276  0.1913 -0.0851 -0.0338
31068W        W49815  16.135  11.823  21.006  0.2536  0.0197 -0.0664
31069W        W49816   5.869  33.552   8.422 -0.1380  0.1287  0.2929
31070W        W49817  34.365  32.719  15.931  0.0030  0.3083 -0.1407
31071W        W49818  28.915   2.768  10.394 -0.0047  0.1000 -0.0665
31072W        W49819   4.480  25.250  23.659 -0.1127  0.0538  0.0136
31073W        W49820  28.897  26.653  22.360 -0.2535 -0.0947  0.0074
31074W        W49821  24.858   6.822  21.420  0.0566  0.3517 -0.1228
31075W        W49822   6.157  29.533  12.634  0.0684 -0.3421  0.2025
31076W        W49823  30.732  10.138   8.400  0.1721  0.0960 -0.1070
31077W        W49824   4.610  25.623   3.924 -0.0156  0.0109 -0.2022
31078W        W49825  27.639   4.714  18.788 -0.1456 -0.1150  0.3167
31079W        W49826   7.234   4.933  11.214 -0.0991  0.0259 -0.3285
31080W        W49827   2.941  19.602  25.416  0.0506 -0.1649 -0.2337
31081W        W49828  21.662   0.605   6.053 -0.2185 -0.0532  0.1076
31082W        W49829  26.481   3.285  18.939  0.0375  0.0176 -0.0197
31083W        W49830  14.011  10.289   7.297 -0.0646  0.1015 -0.1299
31084W        W49831   1.247  17.308  12.494 -0.1371  0.0587  0.3918
31085W        W49832  26.167   6.375  10.495  0.0407  0.2636 -0.0990
31086W        W49833  29.764  35.111  14.027 -0.0304  0.1180 -0.0286
31087W        W49834   9.198  28.936  23.278 -0.0121  0.0555 -0.1342
31088W        W49835  21.684   8.236   7.165 -0.1032 -0.0378 -0.1071
31089W        W49836  17.062  17.252  22.057 -0.2333 -0.2730 -0.0952
31090W        W49837  25.797  35.126   5.580 -0.4660  0.0005 -0.3240
31091W        W49838  32.906   4.586  18.522 -0.1537  0.1626  0.0338
31092W        W49839   7.846   3.813   6.092  0.1061  0.0289 -0.2088
31093W        W49840   2.546  31.564   5.721  0.0908  0.0454  0.0073
31094W        W49841   4.917  15.874  21.952 -0.1130 -0.0277  0.0428
31095W        W49842  24.970  34.145   4.659 -0.0931 -0.0654  0.1865
31096W        W49843  16.492  20.779  22.626 -0.0936  0.2006  0.2149
31097W        W49844  19.238  14.252  23.304  0.2076  0.0361  0.1465
31098W        W49845   8.067  18.208   2.784  0.0036 -0.1168 -0.0430
31099W        W49846  32.876  26.422  15.912 -0.0567  0.0924 -0.3371
31100W        W49847   6.581   9.139  17.941  0.0966 -0.1555  0.3795
31101W        W49848  13.363  14.259   6.770  0.1016  0.2118  0.0636
31102W        W49849  12.596  14.864   5.771  0.0150  0.1959  0.1591
31103W        W49850   6.992  26.344   3.674  0.0968 -0.0274 -0.1872
31104W        W49851   8.020  18.801  10.196 -0.2689  0.1866  0.0672
31105W        W49852  13.313  31.730  15.384 -0.0132  0.0861 -0.1284
31106W        W49853  26.564  28.790  17.671  0.2050 -0.0449 -0.2331
31107W        W49854   4.285  34.761  21.915 -0.1042 -0.0389  0.0869
31108W        W49855   0.509   1.099  18.511  0.0825  0.1312 -0.0126
31109W        W49856  10.149  18.767   5.882  0.3576 -0.1220 -0.3143
31110W        W49857   5.121  26.631   6.780 -0.0437 -0.0011 -0.2381
31111W        W49858  13.831  22.893  22.251 -0.1183  0.0616  0.0132
31112W        W49859  28.011  20.848   5.652  0.0226  0.2081  0.0441
31113W        W49860  30.545  32.093   1.827 -0.0457 -0.2791  0.1561
31114W        W49861  22.770  20.243   3.455  0.0182  0.0249  0.3122
31115W        W49862   4.779  30.369   4.685 -0.1819 -0.1408 -0.0815
31116W        W49863  34.943   5.866   2.667 -0.3861  0.1675  0.0326
31117W        W49864  12.116  21.095   1.168  0.3455  0.2428 -0.3143
31118W        W49865  15.687  28.520   1.321  0.1528  0.1712  0.2504
31119W        W49866   7.276   2.193  20.024 -0.0592  0.3371 -0.0371
31120W        W49867  10.580  22.918  25.814 -0.0523 -0.1348 -0.0562
31121W        W49868  28.918   9.491  16.954 -0.2651  0.4996  0.1124
31122W        W49869  28.886  17.447   6.885  0.2951 -0.3779 -0.2879
31123W        W49870  28.190  22.702   7.563 -0.0687 -0.2006 -0.0541
31124W        W49871  25.098   1.330   0.458  0.0874  0.2584 -0.1347
31125W        W49872   0.348  31.707  24.472 -0.2394 -0.3524  0.0129
31126W        W49873  13.666   6.341   7.903 -0.1461  0.0774 -0.0669
31127W        W49874  13.165   8.448  19.569  0.0722 -0.2781 -0.2773
31128W        W49875   4.742  11.084  15.493  0.1177 -0.0686 -0.1435
31129W        W49876  14.549  17.687   2.965 -0.0520 -0.1326  0.0478
31130W        W49877  20.676   1.155  15.733 -0.1796 -0.0196  0.0206
31131W        W49878  28.407  32.760   4.940 -0.4037  0.0381  0.0433
31132W        W49879  25.296  12.231  12.027 -0.2979  0.2151  0.1751
31133W        W49880  17.662  13.954   8.628  0.2817 -0.1256  0.0852
31134W        W49881  15.272   4.271  19.354 -0.2075 -0.0825  0.0338
31135W        W49882  14.607   5.764   6.599 -0.0689  0.0736  0.1254
31136W        W49883   0.189   7.472  18.084  0.2496  0.2072 -0.2013
31137W        W49884  30.443  32.345  21.916  0.0087  0.2491 -0.2952
31138W        W49885   3.823   8.684  26.054  0.1211 -0.2818 -0.0080
31139W        W49886  23.914  29.695  22.545 -0.2097  0.2250  0.1031
31140W        W49887  31.912   7.812  14.557  0.4361 -0.0018 -0.0138
31141W        W49888   7.697   0.737  26.244 -0.3559  0.0472 -0.0364
31142W        W49889  34.694  21.571  21.694 -0.0368  0.1787 -0.2512
31143W        W49890   7.367  10.226  18.821  0.0408  0.0856 -0.0414
31144W        W49891  15.421  30.189   0.541 -0.0783 -0.3440 -0.0098
31145W        W49892  10.726   1.831  14.521  0.3245 -0.1805  0.0112
31146W        W49893  11.530   6.681   5.355  0.1525 -0.1443  0.1044
31147W        W49894  33.055  19.500  13.469 -0.1908 -0.2357 -0.0043
31148W        W49895  12.712  24.009  11.034 -0.2353 -0.3028 -0.0847
31149W        W49896   8.938  26.047  24.138  0.1115 -0.1862  0.1292
31150W        W49897  22.389  34.886  18.457 -0.2889 -0.0758 -0.0065
31151W        W49898  15.571  11.231  23.190 -0.3384  0.2453 -0.4436
31152W        W49899  22.225  26.720   0.715  0.0340 -0.0016 -0.0455
31153W        W49900  33.706   9.912  13.804 -0.1775 -0.1794 -0.1243
31154W        W49901   5.055  32.769  20.924  0.0837 -0.0905  0.1837
31155W        W49902  28.216  29.737   4.364 -0.0026 -0.0325  0.3084
31156W        W49903  19.742  20.407   3.853 -0.2761 -0.1263  0.1916
31157W        W49904   9.221  10.492  13.580 -0.1413  0.3252 -0.0560
31158W        W49905  28.514  19.499   8.495 -0.2481  0.2310 -0.2427
31159W        W49906  22.154  30.586  12.051 -0.0172 -0.0658  0.0317
31160W        W49907   9.657  24.567  22.001  0.1129 -0.1115  0.0828
31161W        W49908  13.103  33.533  25.117  0.2059 -0.1060  0.1944
31162W        W49909  25.292  30.261  20.894 -0.1403 -0.2357  0.1321
31163W        W49910   8.616  34.841   1.062  0.0270  0.0385  0.1198
31164W        W49911  19.474  11.386   3.600 -0.0350  0.0497  0.0750
31165W        W49912  17.695  18.826  12.153 -0.0833  0.3338 -0.3155
31166W        W49913   3.686  27.258  24.760  0.0429 -0.0983  0.0211
31167W        W49914  33.761   9.272   1.751 -0.0398 -0.1171 -0.0471
31168W        W49915   7.481  29.262   5.344  0.4022 -0.1281  0.2659
31169W        W49916   4.728  12.535  24.671  0.1460 -0.2003 -0.5003
31170W        W49917  14.681   9.792   2.180  0.1957 -0.0119 -0.0408
31171W        W49918  31.179  25.389  13.225 -0.0583 -0.3517 -0.1628
31172W        W49919   0.919  21.899  15.609  0.2359  0.1643 -0.2621
31173W        W49920  29.664  29.300  14.719  0.1044  0.4489 -0.1366
31174W        W49921  18.465  11.440   3.493 -0.1479  0.2581  0.2054
31175W        W49922   0.060   5.156   2.985  0.2725 -0.0121 -0.0710
31176W        W49923  12.134  16.753   3.673  0.0709  0.2538  0.0978
31177W        W49924  25.076  29.524  13.731 -0.0111  0.0089 -0.0460
31178W        W49925  10.087   5.937   1.555 -0.0751  0.1717 -0.0222
31179W        W49926   6.867  24.467   0.261  0.2148  0.3183  0.0796
31180W        W49927   9.589  31.336   6.913 -0.0589  0.0002 -0.0612
31181W        W49928  29.081   0.649   6.058 -0.1587  0.2679  0.3009
31182W        W49929  16.706  11.826   5.987  0.0944  0.1167 -0.0708
31183W        W49930   3.676  23.386   3.248  0.1315 -0.1000 -0.0483
31184W        W49931  16.563  18.680   7.100 -0.0095  0.0562 -0.1303
31185W        W49932  28.297  23.482  10.404  0.1559  0.0476  0.1889
31186W        W49933  16.659  13.321  20.091  0.3489 -0.3354  0.3612
31187W        W49934  10.716  10.179   0.878  0.2719  0.0401  0.1677
31188W        W49935  12.884   9.926  12.882  0.0547  0.0569 -0.1314
31189W        W49936  10.555  27.711  25.548 -0.2658  0.2142  0.1000
31190W        W49937  19.344  29.882   6.639  0.2695  0.3333  0.2432
31191W        W49938   7.911  14.738  11.536 -0.0198 -0.0525  0.1321
31192W        W49939   3.681  11.701   7.317  0.0484 -0.0376 -0.2501
31193W        W49940   8.837  14.071   2.390  0.1039 -0.0981 -0.1443
31194W        W49941  12.065   2.742  21.307 -0.1020 -0.2662 -0.2905
31195W        W49942   5.223  20.699   3.777 -0.1917 -0.2505  0.0452
31196W        W49943  31.260  12.950  10.267  0.1219  0.0557  0.1207
31197W        W49944   2.510  13.800  16.893  0.0805 -0.2646  0.4221
31198W        W49945  21.139  32.015  22.697 -0.0437 -0.2147 -0.0072
31199W        W49946   9.975  30.167   9.788  0.0993  0.0474 -0.2880
31200W        W49947  26.141  25.660   0.911  0.2061 -0.3516 -0.0417
31201W        W49948  30.993  21.557  21.860  0.0901  0.2499  0.2390
31202W        W49949  23.752  28.393  20.438 -0.0117  0.0649 -0.0656
31203W        W49950  24.287   6.825  24.944  0.0552 -0.0523 -0.2305
31204W        W49951   8.737  24.096   4.927  0.1839  0.0548 -0.0391
31205W        W49952   8.432   0.882  10.327 -0.2335 -0.1257 -0.1485
31206W        W49953  29.991  33.683  19.546 -0.2918  0.0254 -0.0863
31207W        W49954  14.832  32.122   6.221 -0.1792  0.2939  0.5802
31208W        W49955  35.213  11.444  11.881  0.0097  0.0820  0.4441
31209W        W49956  28.692   7.936  12.038  0.0712 -0.2578 -0.0432
31210W        W49957  25.383  27.034   0.966  0.1404  0.0182 -0.3024
31211W        W49958  27.049  23.941  24.628  0.0215  0.1280  0.1664
31212W        W49959  21.732  25.140  22.025 -0.3205  0.1424  0.1667
31213W        W49960  27.558  12.671  23.227 -0.0061 -0.0924  0.1539
31214W        W49961  28.546  32.010  12.632 -0.1025 -0.2127 -0.0020
31215W        W49962   2.941  15.973  24.769 -0.0926  0.0437  0.2776
31216W        W49963  24.606   9.669   3.542  0.2979  0.1077 -0.3398
31217W        W49964   0.204   8.401  25.059 -0.4647  0.0455 -0.0046
31218W        W49965  16.902  28.735   0.807  0.1547 -0.0909 -0.3741
31219W        W49966   4.448  29.616  10.378  0.0590  0.0705 -0.0420
31220W        W49967  20.856  27.177  16.705  0.2331  0.0520 -0.1396
31221W        W49968  31.147  14.593   9.542 -0.0005 -0.4891 -0.0772
31222W        W49969  19.778  27.806  24.806  0.3034  0.0353  0.1760
31223W        W49970   7.789   1.400  13.336 -0.0677 -0.1386  0.1591
31224W        W49971  31.475  24.153  16.682  0.0350 -0.2862  0.0634
31225W        W49972  33.311   6.013  12.386  0.1387  0.1451  0.0145
31226W        W49973   1.138   2.400   0.378 -0.0328 -0.0883  0.2233
31227W        W49974  32.653  28.888   2.789 -0.1410 -0.0357  0.0832
31228W        W49975  12.713  14.027  26.026 -0.0821 -0.0866 -0.0264
31229W        W49976  21.654   1.495  26.070 -0.1200 -0.0803 -0.1000
31230W        W49977  29.479  16.848  18.328  0.0995 -0.0039  0.0933
31231W        W49978  12.989   4.241   0.209  0.1051 -0.1345 -0.0246
31232W        W49979   0.031  24.461   1.336  0.0157  0.1508 -0.1460
31233W        W49980   9.367  10.504   6.878  0.2808  0.0303  0.1782
31234W        W49981   3.348  13.264   3.769 -0.2828  0.2256 -0.2115
31235W        W49982  17.351  10.901  25.258 -0.0098  0.1574 -0.0019
31236W        W49983  29.196  15.698  16.661 -0.1218 -0.0851 -0.0366
31237W        W49984  28.805  30.384   4.566  0.2682 -0.2836  0.0200
31238W        W49985  30.269  28.588  15.801 -0.0312 -0.4973 -0.0698
31239W        W49986  24.418  22.050  16.418  0.0212  0.2224  0.0903
31240W        W49987  19.333  10.897   3.489  0.0499 -0.1112 -0.0151
31241W        W49988  23.047  20.678  25.145 -0.1372  0.1959  0.0956
31242W        W49989  13.109  11.513  19.585  0.0858  0.1168 -0.1485
31243W        W49990  24.922   1.781  19.119 -0.0433  0.0793 -0.2406
31244W        W49991  14.926   6.495   0.645 -0.0102 -0.2484 -0.3190
31245W        W49992   1.258  29.663  22.476 -0.0403 -0.2819 -0.0400
31246W        W49993   1.967   9.463  21.922  0.1814  0.0186  0.1711
31247W        W49994   5.120  14.249  23.215  0.0063 -0.4644 -0.1011
31248W        W49995   8.381   0.421   4.737 -0.1933  0.0356 -0.1481
31249W        W49996   8.680  33.393  24.643 -0.1819  0.0455 -0.0972
31250W        W49997  21.569  13.611   0.652 -0.2217  0.1430 -0.1741
31251W        W49998   8.131  10.944   3.486 -0.3628  0.1440 -0.2652
31252W        W49999  17.645  25.193  21.981 -0.1164  0.0577 -0.2135
31253W        W50000  17.807   0.496   5.959  0.2555 -0.0093 -0.1272
31254W        W50001  20.390   1.047  17.479 -0.2638 -0.2445  0.0021
31255W        W50002   0.420  30.662  17.687 -0.0750  0.3453  0.1938
31256W        W50003  25.988   1.037   0.704 -0.0294 -0.1368  0.4050
31257W        W50004  31.566  28.200   3.644 -0.0109  0.1035  0.2419
31258W        W50005  34.587  27.383   5.754 -0.0782  0.2807  0.3394
31259W        W50006  23.758  34.185  16.051  0.0326 -0.2307  0.2364
31260W        W50007   8.615   1.476   1.160 -0.1465 -0.1212 -0.2387
31261W        W50008   7.883  10.266  24.321 -0.0224 -0.2238  0.0535
31262W        W50009  13.381  32.317  23.085 -0.2118 -0.0536  0.5359
31263W        W50010   0.482  13.050  21.395  0.0225 -0.0529 -0.1304
31264W        W50011  11.615  13.757   8.026 -0.0741  0.2007  0.2491
31265W        W50012  31.056  13.530  23.457  0.2443  0.1262  0.0096
31266W        W50013  27.969  10.658  22.983 -0.1778  0.0191 -0.3716
31267W        W50014   7.960  33.552  21.718  0.0010  0.1689  0.0553
31268W        W50015  16.817   5.178   6.902 -0.1547  0.0300  0.3320
31269W        W50016   7.968  28.979  11.822  0.0652  0.3071 -0.1319
31270W        W50017  12.114  30.109  23.362  0.0074 -0.1619 -0.2191
31271W        W50018   7.163  24.252  11.770 -0.0618  0.0355  0.1221
31272W        W50019  23.516  15.233  18.708 -0.1639 -0.1202 -0.0749
31273W        W50020  14.962  32.010  23.840 -0.0247  0.2792  0.2819
31274W        W50021  14.569  23.983   6.059 -0.2329  0.0707 -0.0227
31275W        W50022  27.503  12.548  24.262 -0.3109  0.2028 -0.2203
31276W        W50023  17.356  16.743  24.138 -0.0202  0.2095  0.1628
31277W        W50024  23.078  25.779   0.429 -0.0806  0.3981  0.0107
31278W        W50025   2.004  13.015  22.009  0.2685 -0.0879 -0.1616
31279W        W50026  11.678   2.512   2.208 -0.4777  0.2019  0.0759
31280W        W50027  11.807  21.872  25.862 -0.3069 -0.0533 -0.1529
31281W        W50028   3.653  28.888  25.411  0.0197 -0.1039 -0.1562
31282W        W50029  30.011  27.645  24.991 -0.1813  0.1770  0.1581
31283W        W50030  11.369  29.211  25.799 -0.0412 -0.0829  0.3109
31284W        W50031   5.561  13.781  21.266  0.0511  0.0643  0.0691
31285W        W50032   0.477  31.782  19.154  0.0956  0.0539 -0.1849
31286W        W50033  21.769   5.707   6.492  0.1856  0.4012 -0.2368
31287W        W50034  30.347   5.792  16.621 -0.2318  0.1137 -0.0681
31288W        W50035  27.178  15.756  13.555  0.1944  0.0338 -0.0976
31289W        W50036  33.922   9.744  17.788 -0.2784  0.1205 -0.2826
31290W        W50037  23.811  29.847  12.040  0.1414 -0.2572  0.0849
31291W        W50038  20.489  34.131   8.386 -0.2355 -0.1230  0.1117
31292W        W50039   5.738  24.990  23.213  0.3776  0.1483 -0.1469
31293W        W50040  23.850   5.833  24.758 -0.1685 -0.1304  0.0383
31294W        W50041   6.203   3.438   6.086  0.3666  0.2134  0.1550
31295W        W50042  26.446   9.612  16.548  0.0913  0.1763 -0.0446
31296W        W50043  30.514  30.463  25.883  0.1757 -0.1315 -0.2727
31297W        W50044  16.665   7.268  25.111  0.1434 -0.1399  0.0011
31298W        W50045  12.528   0.616   3.927  0.0468  0.1534 -0.0447
31299W        W50046  18.155   5.332  20.605 -0.2279 -0.0243 -0.3241
31300W        W50047  13.221  31.864   3.672 -0.1878  0.0725  0.0050
31301W        W50048  18.643   8.771  23.735  0.0736  0.0473 -0.2796
31302W        W50049  17.019  29.341   8.796 -0.0103  0.0398  0.2186
31303W        W50050  33.590  29.433   2.159  0.0558  0.0572 -0.0822
31304W        W50051  35.338  29.408   5.887 -0.0796 -0.0178  0.1043
31305W        W50052   7.368  31.739  12.960  0.1734  0.1799 -0.0062
31306W        W50053  20.234  25.659   6.633 -0.1202  0.0844 -0.0012
31307W        W50054  11.122  28.270  26.191  0.1137 -0.0948  0.1056
31308W        W50055  29.708  10.362  11.942  0.0215 -0.0434  0.1147
31309W        W50056  16.428   9.826   0.256 -0.3800  0.2581  0.1483
31310W        W50057   8.068  23.571  12.478 -0.1500  0.0236 -0.2148
31311W        W50058  11.468   6.424  25.241 -0.2026 -0.0214  0.0225
31312W        W50059  31.581  12.885   6.133  0.0058 -0.2223 -0.2268
31313W        W50060  26.453  25.978  23.659  0.2002  0.1379  0.0675
31314W        W50061   3.505   0.908  25.549  0.1973  0.1335 -0.0045
31315W        W50062  31.715   3.401   1.273  0.2149  0.1580  0.1045
31316W        W50063   4.006  21.099  22.564  0.0120 -0.0748 -0.0399
31317W        W50064  31.899  29.945  14.510  0.0135 -0.0381  0.0973
31318W        W50065  15.629   3.832   0.719  0.2570 -0.0097 -0.0634
31319W        W50066   1.918   6.405  19.957 -0.1484  0.0586 -0.3396
31320W        W50067  15.170  15.991   7.836  0.1750 -0.1882 -0.0215
31321W        W50068  29.228   3.153  10.887 -0.3789  0.0808 -0.1365
31322W        W50069  17.690  32.416   9.052  0.0970  0.1329 -0.0252
31323W        W50070  25.717  17.552  21.453 -0.0200 -0.0010 -0.2241
31324W        W50071   2.830   3.881  24.601  0.0644  0.1750 -0.0450
31325W        W50072   5.737  31.841   0.411  0.1457  0.0598  0.1182
31326W        W50073  32.373  24.957   9.867 -0.1652  0.0244  0.1794
31327W        W50074  34.083  11.989  15.084  0.0404  0.3901  0.3155
31328W        W50075   1.299   1.434  25.210  0.0627  0.2275 -0.0125
31329W        W50076  10.247   8.468   7.048 -0.5095 -0.0701  0.0591
31330W        W50077   7.424  18.785   3.944  0.1695  0.2131  0.0658
31331W        W50078   6.851   5.143   2.516  0.1550 -0.0850  0.0222
31332W        W50079  25.526  10.630  10.197  0.3940 -0.1678  0.3697
31333W        W50080  33.234  10.134  11.921  0.3343 -0.2429  0.1016
31334W        W50081  31.929  33.722   1.706  0.1667 -0.0229 -0.1167
31335W        W50082   2.285  28.022  22.688  0.0480  0.0365 -0.0632
31336W        W50083  26.088  15.512   7.988 -0.1854  0.0200  0.0531
31337W        W50084  24.090  12.800  20.359 -0.0413 -0.1604 -0.1754
31338W        W50085  14.728   5.481  12.635 -0.1029 -0.1337  0.2255
31339W        W50086  15.714  11.709   9.798  0.1467  0.0815 -0.2034
31340W        W50087   9.849  35.101  23.506 -0.1366 -0.0547  0.2519
31341W        W50088   9.454  13.735  19.676  0.1836  0.2071  0.1167
31342W        W50089  22.999  20.798  20.005 -0.1703  0.0632 -0.5885
31343W        W50090  21.767   5.380  17.151 -0.2089 -0.1098  0.0387
31344W        W50091  17.527  10.536  18.304  0.0173  0.0501 -0.2251
31345W        W50092  14.098  20.706  13.390  0.1729  0.0766 -0.0262
31346W        W50093   3.893  26.791  23.196  0.1181 -0.0436  0.2623
31347W        W50094  14.886  16.616   5.777 -0.1636  0.1206 -0.3782
31348W        W50095   5.343  19.082   6.008 -0.0202  0.1929 -0.0471
31349W        W50096  12.527  21.077   6.263 -0.0154 -0.5945 -0.0229
31350W        W50097  29.936   8.378  25.473 -0.5217 -0.2099 -0.0283
31351W        W50098  22.961  18.212  12.924 -0.2628 -0.2446  0.3110
31352W        W50099  23.090  33.433  14.454  0.1001 -0.1662 -0.0729
31353W        W50100   7.407   0.175  10.694 -0.3327  0.4487 -0.1239
31354W        W50101  11.827  28.027   2.839 -0.0850  0.3072 -0.1283
31355W        W50102  13.883  10.476  20.431  0.1933  0.1223  0.0118
31356W        W50103   5.126  13.340  25.503 -0.0904 -0.0637  0.3161
31357W        W50104  31.870   7.563  20.114 -0.0253  0.1014 -0.0719
31358W        W50105   5.636  10.012  21.082 -0.1591  0.1732  0.0071
31359W        W50106   1.635  10.555  21.400  0.3279 -0.0879 -0.0459
31360W        W50107   3.420  18.404  21.374 -0.3608  0.1801  0.0880
31361W        W50108  12.236  20.757  11.629  0.0591 -0.0538 -0.0302
31362W        W50109  30.446  13.486  13.966  0.0087 -0.0255  0.2860
31363W        W50110  20.912   1.006  15.244  0.1103  0.1712  0.1398
31364W        W50111   5.737   0.454  23.961  0.1088  0.2327  0.1598
31365W        W50112  31.517  31.395  25.470 -0.2458  0.0855 -0.2083
31366W        W50113   2.854   9.565  21.580  0.0886  0.0070 -0.4266
31367W        W50114  23.168  13.199  23.783 -0.0857 -0.4229 -0.4185
31368W        W50115  19.748  27.826  18.300 -0.1654  0.1541 -0.0437
31369W        W50116  23.975   1.009  18.553 -0.4801  0.0509 -0.2150
31370W        W50117  31.019   4.226   4.992  0.3484 -0.0168 -0.1220
31371W        W50118   9.252  15.742   5.913 -0.0401 -0.0511 -0.0995
31372W        W50119  30.614   6.183  18.972 -0.2112  0.0134 -0.1747
31373W        W50120  32.695  21.664  16.762 -0.1858  0.0688 -0.0437
31374W        W50121  29.284  23.192   8.751 -0.2594  0.2742 -0.1389
31375W        W50122  30.141  12.820  18.257  0.4904  0.2675  0.1705
31376W        W50123  27.608  10.346   9.030  0.1140  0.1857 -0.0094
31377W        W50124  20.225   1.542   7.840  0.1247  0.1334 -0.0221
31378W        W50125  14.829   9.651   9.585 -0.4225  0.1521 -0.0305
31379W        W50126  28.706  34.341  18.427  0.2352 -0.0460 -0.0914
31380W        W50127   5.885  31.337   5.951  0.0777 -0.1056 -0.2763
31381W        W50128  22.958   1.824   5.398  0.1475 -0.1317 -0.2296
31382W        W50129  20.142  11.196   1.068 -0.0161 -0.0107 -0.0348
31383W        W50130  12.350  24.725   6.826  0.3488 -0.0431 -0.0272
31384W        W50131  25.309  31.930  22.439  0.0694  0.0404  0.1250
31385W        W50132  28.574  24.016  20.179 -0.2295  0.3293 -0.0601
31386W        W50133  10.048   8.532  19.795  0.0526 -0.1402 -0.0636
31387W        W50134  14.461  22.432  16.008 -0.0808  0.1370  0.3234
31388W        W50135  12.133   6.239  13.376  0.2888  0.0998 -0.0653
31389W        W50136   5.043  34.396   3.020  0.3281 -0.0252 -0.0384
31390W        W50137  21.199  31.998  15.283 -0.0417 -0.0480  0.3970
31391W        W50138  10.224  26.212  16.937  0.2461 -0.1398 -0.0130
31392W        W50139  21.106  34.913  24.999  0.1600 -0.1931 -0.1995
31393W        W50140  19.152   4.233   2.080 -0.3501  0.0954  0.2937
31394W        W50141  13.892  21.026  15.213  0.0730  0.0985  0.2374
31395W        W50142  29.006  35.197  11.405  0.0232 -0.1807 -0.2206
31396W        W50143  35.074   3.411  21.921  0.1572 -0.0980  0.1698
31397W        W50144  24.912  31.116  11.653  0.0565 -0.0820 -0.2536
31398W        W50145   0.034   8.219   2.888  0.1057 -0.0473  0.2413
31399W        W50146  14.050  27.544  23.759  0.1615 -0.2544  0.1629
31400W        W50147   7.885  34.369   0.267  0.3043  0.2755  0.2266
31401W        W50148  29.182  28.266  12.010 -0.0807  0.0240 -0.1001
31402W        W50149  33.730  31.827   2.417 -0.0797  0.1388  0.0270
31403W        W50150  15.797  10.288   7.294 -0.3899 -0.0559 -0.0637
31404W        W50151  20.220   9.535  17.836 -0.1165 -0.1120  0.0772
31405W        W50152  20.559   8.893  17.294 -0.2549 -0.3024  0.0270
31406W        W50153  11.269  33.083   0.014 -0.1205  0.1349  0.3735
31407W        W50154   0.941  11.218  17.058 -0.2478  0.0893 -0.1623
31408W        W50155  15.114  26.768  22.349 -0.0500  0.1207 -0.0388
31409W        W50156  17.890  14.329  20.278  0.1002  0.1067 -0.0358
31410W        W50157  10.761  25.221   3.171 -0.1198  0.2220 -0.1227
31411W        W50158   8.095  31.266  16.007 -0.0310 -0.0177 -0.0502
31412W        W50159  20.375   2.164  25.636 -0.1913 -0.0157 -0.2944
31413W        W50160   7.668  22.434   9.856  0.0630 -0.2317 -0.0767
31414W        W50161  20.994  32.117  26.162  0.0725 -0.0729 -0.2373
31415W        W50162  18.921  34.720   1.579 -0.4764 -0.1089 -0.2657
31416W        W50163   4.280  18.630  24.681  0.2183  0.0529  0.1310
31417W        W50164  11.784   2.403  22.977 -0.1060 -0.0187  0.3209
31418W        W50165  17.017  17.602  11.963  0.1062  0.2850  0.4362
31419W        W50166  34.616  20.090  16.719 -0.0512 -0.0297  0.2391
31420W        W50167   3.220   4.914   0.878 -0.2857 -0.0708  0.1507
31421W        W50168  24.971  22.226  16.561 -0.1430  0.1194 -0.0032
31422W        W50169  27.116  17.243   4.701  0.0782 -0.0687  0.0830
31423W        W50170  18.961   6.301   2.774 -0.1144  0.3792 -0.0775
31424W        W50171  30.976  28.753  15.233 -0.2277  0.1882  0.2372
31425W        W50172  19.321  32.003   4.488 -0.1492 -0.3733 -0.2278
31426W        W50173  17.079   7.082   3.874 -0.1515 -0.1350  0.3129
31427W        W50174  14.615  15.199  20.144 -0.3648  0.0245  0.1364
31428W        W50175  22.781   3.727  20.418  0.2474  0.0667 -0.0624
31429W        W50176  17.530  33.514   3.040  0.0950 -0.0361 -0.0822
31430W        W50177   7.399  31.588   6.327 -0.1989 -0.1486  0.0753
31431W        W50178  11.544  17.722  12.682 -0.1873 -0.1246 -0.0308
31432W        W50179  30.135  17.001  19.127  0.1145  0.2706 -0.2392
31433W        W50180  34.153  23.562  25.728  0.2505 -0.2708  0.1822
31434W        W50181  31.728  17.581   5.281 -0.1383 -0.1515  0.1070
31435W        W50182  28.187  33.405  16.403 -0.1799  0.2357 -0.0454
31436W        W50183   6.241  32.497   3.194 -0.1893 -0.2007  0.5741
31437W        W50184  32.061  31.955   4.978  0.1150  0.0455  0.0115
31438W        W50185  15.214   1.193   5.631 -0.1030  0.1672 -0.0860
31439W        W50186  18.056  34.686  18.253 -0.0649  0.3137  0.1764
31440W        W50187  26.788   9.315  15.516  0.0183  0.0006 -0.3143
31441W        W50188  22.039  26.021  17.482 -0.0084  0.1603  0.1982
31442W        W50189  21.002  13.713  21.242 -0.1501 -0.3190  0.1575
31443W        W50190  10.681  12.858  13.255 -0.2484  0.1538 -0.0034
31444W        W50191  17.182  13.424   4.660  0.2340  0.2581  0.0295
31445W        W50192  16.044   2.719   5.111  0.2491  0.0336 -0.1095
31446W        W50193  12.564   2.224  13.245 -0.0901 -0.1065 -0.1020
31447W        W50194  19.320   1.059  18.919 -0.3737 -0.0061 -0.1196
31448W        W50195  21.994  33.507   1.279  0.0475  0.2078 -0.1259
31449W        W50196  27.621  20.651   9.413 -0.1408 -0.0214 -0.3537
31450W        W50197   1.198  13.992  17.909 -0.0304 -0.1045 -0.0197
31451W        W50198   6.858  26.642   0.975 -0.0089 -0.0771 -0.2654
31452W        W50199  13.998   4.072   6.389  0.0588  0.0444 -0.2140
31453W        W50200  15.104   6.862  21.371 -0.1079 -0.2237 -0.0268
31454W        W50201  28.960  21.531  16.371  0.0489  0.0853  0.0751
31455W        W50202  31.307  28.751  16.307 -0.1681  0.0239 -0.0756
31456W        W50203  24.877   6.796  20.395 -0.4170  0.1215 -0.0617
31457W        W50204  25.375  27.577  10.359  0.1728 -0.3051 -0.0141
31458W        W50205  26.009  30.017  18.467  0.3769 -0.1791 -0.1041
31459W        W50206  16.076   8.839   5.450  0.1789  0.1868  0.1030
31460W        W50207  23.304  24.665  18.358 -0.0728  0.0476  0.1076
31461W        W50208  10.323   2.522  24.725 -0.1607 -0.0534 -0.2036
31462W        W50209   1.183   8.750   1.435  0.0222 -0.2055  0.4154
31463W        W50210   9.328  34.706   8.740  0.0485  0.3385  0.0456
31464W        W50211  12.758   8.187   2.716 -0.3725  0.1651  0.1572
31465W        W50212   2.217  25.882  17.998  0.4352 -0.0001  0.1082
31466W        W50213  22.424  13.413   3.520  0.0768 -0.0489  0.0665
31467W        W50214  21.784  10.178   8.987  0.0522 -0.1588  0.2046
31468W        W50215  15.660  25.709  25.835  0.2918  0.0371  0.1373
31469W        W50216   9.623  22.349  25.688  0.0747  0.1134  0.3464
31470W        W50217   9.273  19.259  13.617 -0.0303  0.2231  0.1495
31471W        W50218   5.402  11.971   4.247  0.3413 -0.3072  0.0589
31472W        W50219  35.054  14.805  22.851  0.3142 -0.1575  0.1781
31473W        W50220  25.972  30.482  10.531 -0.0625  0.0542  0.0592
31474W        W50221  14.217  31.069  13.214  0.0607 -0.0135 -0.2466
31475W        W50222  24.078  23.941  19.923 -0.1754  0.0674 -0.1271
31476W        W50223  26.217  10.114  14.693 -0.0975 -0.0460 -0.3253
31477W        W50224   3.285   8.383  21.914  0.0247  0.1085  0.1598
31478W        W50225  20.444   8.332   9.710  0.0843  0.3033  0.1843
31479W        W50226  33.017  23.061  23.491  0.0328 -0.3684  0.1264
31480W        W50227  29.729   5.092  14.147 -0.1144 -0.1397 -0.2017
31481W        W50228  34.146  32.781  17.764 -0.2139  0.1278  0.1427
31482W        W50229   0.473  22.003   9.765  0.1324 -0.2371  0.3008
31483W        W50230  19.090  21.621   9.885 -0.1325  0.3082  0.0355
31484W        W50231  17.145  32.968   6.031  0.0447  0.2175 -0.0551
31485W        W50232  30.455   1.949  20.788  0.0573 -0.0181 -0.0991
31486W        W50233   9.614  24.153   1.667  0.2080 -0.2418  0.2914
31487W        W50234   7.058  29.624   8.445  0.2322 -0.0047 -0.2676
31488W        W50235  12.688  35.012   8.891 -0.2275 -0.0051 -0.0582
31489W        W50236  31.231  33.264  17.337 -0.0597  0.1507 -0.0840
31490W        W50237  15.035  26.267   1.242 -0.0107 -0.0878 -0.2202
31491W        W50238  29.995  25.654  20.380  0.1048 -0.1970 -0.1236
31492W        W50239  23.630  26.938  13.274 -0.0338 -0.2594 -0.1973
31493W        W50240   0.478  21.162  18.266  0.1832  0.1417 -0.1444
31494W        W50241   5.292  22.192   5.048  0.2457 -0.1511 -0.0548
31495W        W50242  28.794  20.520   7.644  0.1782 -0.0751 -0.2553
31496W        W50243  13.726   6.313  23.932  0.1310 -0.0181  0.1331
31497W        W50244   3.666   8.288  25.776  0.1916  0.3040 -0.1534
31498W        W50245  15.590  21.716  15.283 -0.2261  0.1990 -0.1770
31499W        W50246  19.034   9.275   8.768  0.0627 -0.3186  0.0397
31500W        W50247  33.667  13.216   1.371 -0.4008  0.1283  0.2270
31501W        W50248   7.346  27.759   1.023 -0.1369 -0.2102 -0.2016
31502W        W50249  13.647  26.218  23.690 -0.1496 -0.0276 -0.1037
31503W        W50250  15.005  31.441  10.986  0.2884  0.3764  0.2560
31504W        W50251  13.534   5.155   1.064 -0.1261 -0.1666 -0.2380
31505W        W50252  19.075  13.476  17.457  0.0088  0.1308 -0.4212
31506W        W50253   9.293   6.912  12.380 -0.1941  0.1650  0.0119
31507W        W50254   5.695   7.026  19.352 -0.3571  0.1012  0.1386
31508W        W50255  28.671  22.937   8.915  0.1575 -0.1892  0.0675
31509W        W50256  17.001  25.478   8.450  0.1728 -0.2456 -0.2956
31510W        W50257  28.357  27.079   9.220 -0.3170  0.1774  0.0092
31511W        W50258  31.875  31.677  15.720  0.4601 -0.0516 -0.1888
31512W        W50259   5.390   4.425   4.501 -0.4077  0.1720  0.0005
31513W        W50260  34.518   9.925   2.153  0.0334  0.3483  0.0999
31514W        W50261  18.230   7.657  20.839  0.0485 -0.2442  0.1050
31515W        W50262   7.415  28.425  25.055 -0.0316  0.0926  0.2442
31516W        W50263   2.265   0.813   5.433  0.2733  0.0584  0.1591
31517W        W50264  26.511   7.506  24.737 -0.1558  0.2125 -0.2575
31518W        W50265  15.996   9.180  21.927 -0.0409 -0.2253  0.3038
31519W        W50266  14.299  16.824   2.152 -0.0586  0.0475 -0.0863
31520W        W50267  15.265  29.331   6.805 -0.2834 -0.0673  0.0012
31521W        W50268  32.363  20.860  23.248  0.1837  0.2155  0.0063
31522W        W50269  20.432  13.106   0.207  0.2312  0.4530  0.0194
31523W        W50270  28.628   6.118  24.306 -0.0267 -0.0081  0.0694
31524W        W50271   4.858  12.376  16.216 -0.1331 -0.1756 -0.0629
31525W        W50272  13.287   9.778  11.702  0.1780  0.0645 -0.0844
31526W        W50273  10.585   3.705  24.245 -0.1965  0.2295 -0.1020
31527W        W50274   9.190  11.488   7.943 -0.0898  0.1783 -0.0883
31528W        W50275  25.592   6.932  20.798  0.0698 -0.0155  0.0336
31529W        W50276  15.421   2.052  10.388  0.0148  0.0802 -0.1346
31530W        W50277  13.623   6.100  10.194 -0.1151 -0.1615  0.0426
31531W        W50278  17.006  28.967   4.324  0.0352 -0.1839  0.2078
31532W        W50279  24.953  17.695  14.464 -0.1648 -0.1150  0.3782
31533W        W50280  33.352  13.801  21.020  0.1684  0.2437  0.1507
31534W        W50281   0.810  22.051   0.032 -0.2699  0.1865  0.1263
31535W        W50282   5.031  34.246   1.275  0.1406 -0.2972  0.3693
31536W        W50283   3.508   5.727  18.743  0.0771 -0.0817 -0.1819
31537W        W50284  26.809  25.673  12.551  0.2265 -0.1135 -0.0529
31538W        W50285   8.648   6.579  13.589  0.4679 -0.4323  0.1095
31539W        W50286  17.796  33.615   3.872 -0.0498 -0.2402 -0.1833
31540W        W50287   3.713   3.793  25.526  0.0240  0.1275 -0.3021
31541W        W50288   3.697   1.091   0.239 -0.1795  0.3392  0.1312
31542W        W50289  15.032  33.011   4.031 -0.0208 -0.0552  0.0037
31543W        W50290  30.996  17.785   7.907  0.0571  0.0520  0.1138
31544W        W50291  16.237  11.230  10.255 -0.1533  0.0669  0.0586
31545W        W50292   6.396  25.981  26.243  0.2208  0.1969 -0.0730
31546W        W50293  26.608  26.651  10.773  0.2062  0.1346  0.0451
31547W        W50294   7.458  35.059   6.527 -0.6430  0.4570  0.1259
31548W        W50295   4.927  32.125   7.938 -0.0974 -0.2137 -0.1324
31549W        W50296  30.340  32.090  12.101  0.2553 -0.2044  0.1288
31550W        W50297  24.998  33.604  18.605  0.2502  0.3002 -0.4256
31551W        W50298  17.087   4.753  17.320  0.3069 -0.2105  0.0847
31552W        W50299  18.097  25.950  22.111 -0.5238  0.1304  0.0622
31553W        W50300   6.060   1.236   0.284 -0.0919 -0.2505  0.0754
31554W        W50301  26.051  11.395   9.830 -0.1101  0.1198  0.4981
31555W        W50302  25.148  28.341  21.851  0.2617 -0.0706 -0.1885
31556W        W50303  29.122  27.291  14.489  0.1803  0.1135  0.3996
31557W        W50304  20.548  17.392   4.949  0.1476 -0.2662 -0.1092
31558W        W50305   7.484  11.702   1.059 -0.4999 -0.1485  0.0822
31559W        W50306  26.148  27.435  25.368  0.3081 -0.3281 -0.1088
31560W        W50307   9.918   8.811  22.685  0.1899  0.2802 -0.0554
31561W        W50308  31.425   8.717  24.218  0.1708 -0.0497  0.1618
31562W        W50309  16.875  20.415   5.138  0.3875 -0.2699  0.1722
31563W        W50310  15.495  19.863  21.062 -0.0794  0.4436  0.2637
31564W        W50311  32.896   8.536   3.279 -0.0343 -0.2873  0.1393
31565W        W50312   2.176   2.524  15.588  0.0606 -0.1900 -0.0900
31566W        W50313  26.703  30.956  25.660  0.1669  0.2335  0.0439
31567W        W50314   9.631   8.184  23.770 -0.3007 -0.2139 -0.0171
31568W        W50315  20.428  31.199   7.997  0.1913  0.0042  0.1834
31569W        W50316  20.888  12.846  19.238  0.0656 -0.3730  0.0982
31570W        W50317  17.720  27.707   3.255  0.2663 -0.3061  0.2261
31571W        W50318  32.826  34.450   1.827  0.1346  0.2778  0.2385
31572W        W50319   3.073  35.268  10.542  0.0663 -0.1774 -0.0680
31573W        W50320  20.105  26.241   6.830 -0.1853 -0.0498 -0.2454
31574W        W50321  16.892  22.892   5.427  0.1373 -0.1093 -0.2562
31575W        W50322  23.407  22.554   2.692  0.3705 -0.2373  0.0755
31576W        W50323  30.857   6.574  19.236 -0.0110 -0.0115 -0.2025
31577W        W50324  12.444  31.300   3.956 -0.1088 -0.0156  0.0605
31578W        W50325  32.223   3.249  17.673 -0.1325  0.4257  0.3447
31579W        W50326  17.889  10.411  24.123  0.2969 -0.0770 -0.2508
31580W        W50327   2.960  21.383   1.912  0.2276  0.0673 -0.0956
31581W        W50328  27.513  19.318  17.813 -0.0250  0.1279  0.1438
31582W        W50329   6.574   7.001   1.231 -0.2249  0.2230  0.0612
31583W        W50330   9.488   7.015   0.024 -0.1557 -0.0966 -0.0838
31584W        W50331  12.348  20.356   4.561 -0.1707 -0.1427 -0.0188
31585W        W50332  19.354  19.381   2.456  0.0163 -0.1016 -0.1467
31586W        W50333  20.869  11.536   5.150 -0.1710  0.2256 -0.0520
31587W        W50334  29.964  25.376   8.302  0.0685 -0.3616  0.1339
31588W        W50335  30.147   7.266  23.719  0.2884 -0.1231  0.2631
31589W        W50336   5.956  28.947   4.191 -0.1544  0.2071  0.2546
31590W        W50337  26.938  15.295  10.092  0.2192  0.1362 -0.0210
31591W        W50338  11.376  21.340   2.967 -0.0835 -0.3829  0.1336
31592W        W50339  30.683   8.408  13.510  0.1377  0.0859 -0.0939
31593W        W50340  17.849  15.167  21.475  0.1252  0.1076 -0.0950
31594W        W50341  26.521  29.704   1.080 -0.0522 -0.2411  0.0609
31595W        W50342  11.636   6.334   1.589 -0.5109 -0.2441  0.0401
31596W        W50343  17.458  14.211   1.192 -0.1941 -0.2035 -0.2888
31597W        W50344  12.483  16.082  21.290  0.1208 -0.1146 -0.2270
31598W        W50345  28.351   4.178  24.975  0.0824 -0.1345  0.0648
31599W        W50346  14.637  18.290   9.231 -0.3346  0.0695  0.1154
31600W        W50347  15.493  19.090   6.252 -0.0130 -0.3468 -0.0537
31601W        W50348   0.758  17.274  10.471  0.0898 -0.1476  0.3656
31602W        W50349   8.204   6.149   7.855  0.2556  0.0385 -0.1591
31603W        W50350   1.079   5.663   3.826  0.0981 -0.1362 -0.0413
31604W        W50351   3.705  15.605   2.500 -0.2365 -0.1017 -0.2071
31605W        W50352  15.710   5.133  19.135  0.0727 -0.1247  0.2328
31606W        W50353  33.590  33.233  21.194  0.0701 -0.4060 -0.0105
31607W        W50354  11.389  32.626   5.246  0.1495 -0.0772  0.0625
31608W        W50355  18.671  16.324  20.455  0.0076 -0.0930  0.2627
31609W        W50356  34.937  32.945   6.349 -0.3054  0.0927 -0.0802
31610W        W50357  26.095   1.831  25.179  0.3066 -0.0612 -0.2502
31611W        W50358  23.914   0.631  22.228 -0.1394  0.2048 -0.0242
31612W        W50359   9.166  19.417   6.366 -0.2384  0.1908  0.1285
31613W        W50360  28.791  22.762  22.273 -0.0235  0.1720 -0.1726
31614W        W50361   8.482  18.533  10.360 -0.0317  0.1471  0.0533
31615W        W50362   8.033   4.032   4.786  0.0254  0.1142 -0.1835
31616W        W50363  27.442  18.392  22.212  0.1694  0.0876 -0.4347
31617W        W50364  10.078  30.806  24.526  0.0884 -0.4158 -0.0319
31618W        W50365  24.611  25.314  15.177  0.0760 -0.1650 -0.0028
31619W        W50366  35.231  19.436  18.508 -0.2516  0.2222 -0.2586
31620W        W50367  13.121  21.192  16.236 -0.1386  0.0408  0.2690
31621W        W50368  33.037  34.704  20.482 -0.3181 -0.3196 -0.1148
31622W        W50369  17.277   4.729  18.319  0.1803  0.0868 -0.1182
31623W        W50370  33.434   2.345  22.042  0.1434  0.2661  0.2271
31624W        W50371  12.717  17.640  10.717 -0.0089  0.0567  0.2183
31625W        W50372  22.905  21.717  23.304  0.3422  0.0557  0.1296
31626W        W50373   8.702  34.414   2.815  0.0521 -0.0463  0.0691
31627W        W50374  16.608  35.313   0.857  0.1712  0.1053 -0.1188
31628W        W50375  26.778   6.901  12.137  0.1978 -0.1713  0.2449
31629W        W50376  13.344   1.034  23.125  0.2847 -0.0673  0.2178
31630W        W50377   9.942  11.659   3.371 -0.3094 -0.0095  0.2199
31631W        W50378  14.240   9.818   1.255 -0.0320  0.0069 -0.2047
31632W        W50379  11.340  22.131  10.636  0.0084 -0.1455  0.1670
31633W        W50380  31.997  13.871   8.727 -0.3543 -0.3208  0.1743
31634W        W50381  24.739   9.630  18.745  0.2028  0.0899 -0.1619
31635W        W50382  12.238   1.321   8.848 -0.0055 -0.0525 -0.3067
31636W        W50383   1.323   7.301  15.898  0.3073  0.0131 -0.3955
31637W        W50384  23.477  33.599   2.554  0.0083 -0.0236  0.1294
31638W        W50385  26.643  33.707  12.307 -0.4028 -0.1513  0.1477
31639W        W50386  29.163  14.396  19.220 -0.5220 -0.1502  0.1815
31640W        W50387   3.639  21.313  22.315 -0.0450  0.0170  0.1698
31641W        W50388  30.663  28.032  25.310 -0.1357  0.3217 -0.0156
31642W        W50389   0.785  34.868  22.866  0.0579 -0.1401  0.0418
31643W        W50390  24.214  16.622  14.310 -0.4148  0.1294 -0.1554
31644W        W50391  19.429   0.988   6.144  0.1178  0.0710 -0.0554
31645W        W50392  24.430  26.362   1.499 -0.1560  0.0240 -0.1562
31646W        W50393  18.224  20.638  13.117 -0.1386 -0.1044  0.1575
31647W        W50394   4.953  15.479  21.492 -0.0720 -0.0182 -0.0928
31648W        W50395  21.201  34.030  17.419 -0.1930 -0.1556 -0.0640
31649W        W50396   2.505  17.160  15.445 -0.1513 -0.0388  0.2239
31650W        W50397  21.350  21.102   4.606  0.2962 -0.4106  0.1427
31651W        W50398  10.070  18.194   3.189 -0.1368  0.1260  0.1965
31652W        W50399  17.790  30.950  24.368  0.0473  0.2449  0.0360
31653W        W50400  11.265  24.853   1.087  0.0312  0.0548 -0.0653
31654W        W50401  25.501  33.172   4.360  0.0241 -0.1808  0.0584
31655W        W50402  34.741   3.544  16.832  0.0163 -0.1966  0.1817
31656W        W50403   9.344   1.755  14.578  0.1920 -0.1316 -0.0617
31657W        W50404  14.701  14.633   1.717  0.2319 -0.2612  0.2434
31658W        W50405  28.207  31.088   2.416 -0.1768  0.3176 -0.1365
31659W        W50406   6.868  19.899  22.748 -0.2167  0.0031 -0.0911
31660W        W50407  26.932  27.511  13.174 -0.4051  0.0060  0.0534
31661W        W50408  29.416   4.062  17.763  0.1883 -0.0905 -0.1861
31662W        W50409  31.486  20.782  16.015  0.1370 -0.2050  0.2131
31663W        W50410  15.362  29.348  10.733 -0.0445 -0.2098  0.3352
31664W        W50411  12.474  26.844  17.617 -0.0477 -0.2634 -0.0648
31665W        W50412  26.929  14.455  12.886 -0.2043  0.1420 -0.0810
31666W        W50413   9.951  25.752  16.038 -0.2190 -0.0236  0.0794
31667W        W50414  10.493  20.082  26.008  0.2432 -0.1084  0.0268
31668W        W50415  14.755  12.222   5.221  0.1490  0.0680 -0.0497
31669W        W50416  25.288  28.685  18.377 -0.0062  0.1314 -0.1664
31670W        W50417  25.930   1.640  14.701 -0.0112 -0.3362  0.1082
31671W        W50418  15.934   8.000   2.521  0.1068  0.1009  0.0670
31672W        W50419  14.112  20.690   5.215  0.0769 -0.0802  0.0077
31673W        W50420   9.523  31.452  14.402  0.2392 -0.1018  0.1082
31674W        W50421  32.361  10.315  25.794  0.2696 -0.2412  0.4084
31675W        W50422   5.168  23.539   4.100  0.1092  0.2807  0.1307
31676W        W50423  22.029  28.024  26.016  0.0480 -0.2119  0.0234
31677W        W50424  11.919  35.081  24.157 -0.2740 -0.0807 -0.0578
31678W        W50425  15.384  18.022   1.164 -0.1797 -0.0039 -0.2934
31679W        W50426   5.729  24.063   7.577 -0.0806  0.1472 -0.0514
31680W        W50427  16.978  23.752  13.709  0.0661  0.0550 -0.3675
31681W        W50428   7.191  11.280   7.146  0.0759 -0.4522  0.1762
31682W        W50429  12.644  10.308  25.776 -0.0997 -0.0894  0.3660
31683W        W50430  11.486  27.794   8.973  0.0759 -0.0402  0.0113
31684W        W50431  32.516  15.919   8.247 -0.0837  0.3059 -0.1019
31685W        W50432  34.037  32.081  14.229 -0.1004 -0.1573 -0.1412
31686W        W50433   1.082   3.186   5.200  0.0740  0.0278 -0.0243
31687W        W50434  34.162  31.051  15.536  0.1085  0.1112 -0.0215
31688W        W50435  15.280   5.895   8.765  0.0480  0.1908  0.0335
31689W        W50436  16.613  16.499  11.998  0.0610 -0.0023 -0.0037
31690W        W50437  29.488   5.687  20.597  0.2207 -0.4123  0.1357
31691W        W50438  33.709  19.927   8.294  0.0089 -0.0219  0.2835
31692W        W50439  12.069  19.864  24.359  0.2858  0.4049  0.0865
31693W        W50440  14.086  24.033   8.891 -0.1062 -0.0742  0.2839
31694W        W50441  30.021  14.745  19.305 -0.2764 -0.0253  0.0676
31695W        W50442  24.699  24.617  25.699 -0.0333 -0.1030  0.0344
31696W        W50443  31.957  18.650   7.379  0.0727  0.1599 -0.0641
31697W        W50444  21.353  18.569   3.842 -0.1262 -0.0462  0.2587
31698W        W50445   9.062  34.037  11.310  0.0384 -0.1713 -0.0012
31699W        W50446  30.349  15.933  12.116  0.1187  0.1556  0.2539
31700W        W50447   3.808  25.189  18.661 -0.2158 -0.2150 -0.0518
31701W        W50448  32.665  31.572   6.895  0.0098  0.3161  0.0898
31702W        W50449  34.601   8.543  15.467  0.2781  0.2523 -0.0771
31703W        W50450  14.808  25.610   1.433 -0.0209 -0.0424 -0.1814
31704W        W50451  13.526  21.508   9.991 -0.2921 -0.1111  0.0780
31705W        W50452  30.047   2.321  11.902 -0.3019  0.1969 -0.0532
31706W        W50453  16.939   4.512   1.962  0.2251  0.2794 -0.0760
31707W        W50454  10.957   4.574  24.853 -0.0160 -0.1759 -0.1174
31708W        W50455   7.255  13.466  18.110 -0.1364  0.1858 -0.3736
31709W        W50456  10.217  20.256  25.560  0.2698  0.1408 -0.1140
31710W        W50457  22.336   2.459  19.553  0.0766 -0.2443 -0.0158
31711W        W50458  16.516   1.010   2.084 -0.0748 -0.0221  0.1983
31712W        W50459  26.725   0.439   0.987  0.0158 -0.0795  0.1530
31713W        W50460   8.512   1.812   4.381  0.0231 -0.1033 -0.1984
31714W        W50461  14.844   1.608  17.311 -0.1968 -0.0874  0.1592
31715W        W50462  21.259  10.227  18.255 -0.2642  0.1055 -0.0299
31716W        W50463  29.189  30.460  14.419  0.3243 -0.0403 -0.1989
31717W        W50464  20.328  28.855   1.996 -0.2996  0.0626  0.4368
31718W        W50465   3.900   4.429  24.245 -0.0063  0.2924 -0.2264
31719W        W50466   5.723  24.541   4.876  0.2508 -0.0096  0.3016
31720W        W50467  32.463  15.160  10.465  0.1939  0.0011 -0.1125
31721W        W50468  14.620  12.461  20.698  0.0125 -0.0742 -0.2086
31722W        W50469  11.560  32.636  12.977 -0.0964 -0.3246  0.0263
31723W        W50470   8.086  12.764   4.959 -0.1602 -0.0095  0.0358
31724W        W50471  24.351  24.678  21.050 -0.0846  0.0285  0.1910
31725W        W50472   5.852   0.713   5.218 -0.1050 -0.1855 -0.1507
31726W        W50473  26.781   3.317  18.538 -0.1300  0.0552 -0.1741
31727W        W50474   5.320  28.501   2.517  0.0668  0.1900 -0.0214
31728W        W50475   0.603   1.494   3.282  0.0206 -0.3730 -0.0515
31729W        W50476   5.597   4.587   1.260 -0.2264  0.0208 -0.2339
31730W        W50477  14.414  20.783   7.431  0.1834  0.2439 -0.2999
31731W        W50478   3.570  20.487   1.320 -0.0682 -0.0108  0.0170
31732W        W50479   7.792  30.666  12.827  0.2611 -0.0884 -0.1337
31733W        W50480  27.507  28.927  22.577 -0.0012  0.0734  0.1279
31734W        W50481   2.354  34.032  21.440 -0.2670 -0.2704 -0.1418
31735W        W50482  10.245  13.607   6.165 -0.0928  0.0387  0.2274
31736W        W50483  35.306   9.041  24.664  0.2404 -0.2011  0.0230
31737W        W50484   7.775  14.324   3.500 -0.1042  0.1105  0.0151
31738W        W50485  22.433  27.396  20.906 -0.1112 -0.0980  0.2868
31739W        W50486  24.517  31.374  14.794  0.0742  0.0287 -0.1241
31740W        W50487  32.310   8.887  20.839 -0.0971 -0.1325  0.2641
31741W        W50488  32.843  13.272  25.135  0.0349  0.2767  0.4610
31742W        W50489  32.573   0.737  16.275 -0.1977 -0.1081 -0.0177
31743W        W50490  22.253  19.328   3.373  0.2167  0.3688  0.0182
31744W        W50491  15.185  33.902   7.418  0.1505  0.1315 -0.2628
31745W        W50492  27.161   1.138   6.572 -0.0011 -0.1619 -0.3151
31746W        W50493  24.301  21.982  12.865 -0.1219 -0.1150 -0.2027
31747W        W50494   1.622  25.373   2.327 -0.1153  0.3082  0.1733
31748W        W50495  20.480  19.645   0.372 -0.4649  0.1059 -0.1457
31749W        W50496  14.536  15.727  21.932 -0.0327  0.2824 -0.0286
31750W        W50497  29.519  14.245  16.918 -0.0056  0.1726  0.3211
31751W        W50498  10.888  23.728  16.848  0.2391  0.0759  0.3025
31752W        W50499  29.413  16.419  13.257  0.0014 -0.1094  0.2511
31753W        W50500  21.665  18.103  19.525  0.2225 -0.0439  0.0862
31754W        W50501  26.064  11.393  11.601  0.1452 -0.0850  0.0013
31755W        W50502  26.926  17.290   8.704 -0.0216 -0.0241 -0.0840
31756W        W50503   0.168  27.689  17.452 -0.1401 -0.2867  0.1341
31757W        W50504  32.137  27.309  20.323 -0.1657  0.0580 -0.0407
31758W        W50505  14.213  31.820  22.930  0.5408  0.0482  0.1855
31759W        W50506   8.066  11.602   4.501  0.1726 -0.1068  0.0513
31760W        W50507  17.576  15.236  20.408 -0.2564  0.3255  0.3423
31761W        W50508  18.365  28.654   4.473 -0.1297 -0.2222 -0.1755
31762W        W50509  24.048  30.827   4.158 -0.0431 -0.0311  0.0640
31763W        W50510   0.933  32.584  15.375 -0.0829 -0.0138  0.2134
31764W        W50511   5.046   4.744   6.698  0.3248 -0.2073  0.1586
31765W        W50512  27.290  29.438  12.853 -0.0827  0.1476 -0.0646
31766W        W50513   0.343  14.218  16.172 -0.2526 -0.1578 -0.5180
31767W        W50514   9.000  33.692   6.468  0.0557  0.0843  0.0417
31768W        W50515  27.254  27.840  25.511  0.0744 -0.3072 -0.1181
31769W        W50516  26.633  27.869   0.903 -0.3407  0.0417 -0.0096
31770W        W50517  20.604  22.331  20.642  0.0903 -0.0786  0.0507
31771W        W50518  16.289  11.293  21.881 -0.1532  0.0103  0.1893
31772W        W50519  21.730   5.636   9.322  0.0823 -0.0790  0.1153
31773W        W50520  15.880  19.272  24.310 -0.0709  0.3103  0.2707
31774W        W50521  15.568  16.514  24.107 -0.3350 -0.0520  0.2695
31775W        W50522  17.609   0.458  17.093 -0.0632  0.2282  0.1514
31776W        W50523  10.400   3.499  12.501  0.1087 -0.1411 -0.1663
31777W        W50524  11.365   4.529   8.753  0.1802  0.1010 -0.1227
31778W        W50525   6.313  27.623  14.179 -0.2420  0.1020  0.1722
31779W        W50526  21.238  14.681  23.509  0.0749  0.0932 -0.0737
31780W        W50527  20.237   6.341   5.857  0.3123  0.1805  0.0630
31781W        W50528  25.989   0.577  17.705 -0.0625  0.0015  0.1970
31782W        W50529   9.554   6.719   5.033 -0.1144  0.1107 -0.5102
31783W        W50530  30.837   4.143  17.457 -0.1570  0.0493 -0.1620
31784W        W50531  26.651  14.173  20.534 -0.0020 -0.0556 -0.0310
31785W        W50532  27.561   4.354  15.768  0.1680 -0.0496 -0.1556
31786W        W50533  26.286  24.484  25.671  0.0616 -0.1799  0.1719
31787W        W50534   2.438  18.307  17.440 -0.0088  0.0186 -0.1342
31788W        W50535  18.128   1.827  21.008 -0.2882  0.0852 -0.2469
31789W        W50536  25.786  24.279  22.407  0.2471 -0.1353  0.1128
31790W        W50537  12.058  13.685   4.130 -0.0242 -0.1335 -0.3402
31791W        W50538  28.648  33.111   3.486  0.1104 -0.1062 -0.1754
31792W        W50539  26.501  15.697  12.286 -0.1335 -0.1055  0.0476
31793W        W50540  31.786  19.060  10.801 -0.1139  0.2490  0.4103
31794W        W50541   9.434   9.591  25.587  0.0466  0.0997  0.2268
31795W        W50542   3.157   5.552   2.154 -0.0060 -0.3935 -0.1829
31796W        W50543   6.522  17.906  18.518  0.0968 -0.0591 -0.3601
31797W        W50544   7.152  34.646   6.509  0.0445  0.0326 -0.4303
31798W        W50545  11.586  10.056  13.487 -0.0595 -0.0033  0.0543
31799W        W50546   5.588  12.545  26.155 -0.2839 -0.0347 -0.1056
31800W        W50547  17.864   9.071   0.934  0.1456  0.3482 -0.2067
31801W        W50548   9.831   2.563   9.903 -0.0725  0.2332  0.1229
31802W        W50549  30.771  14.618  24.421  0.0084  0.1487 -0.2282
31803W        W50550   8.310   4.486  12.716  0.0372  0.1691  0.2683
31804W        W50551  17.103  14.758  21.656 -0.1464 -0.0234  0.1436
31805W        W50552  25.780   6.736   3.738 -0.0124  0.2781  0.2676
31806W        W50553  34.226  29.410  23.946  0.0847  0.0798 -0.1117
31807W        W50554  35.136  34.772  21.887 -0.0559  0.2971  0.2536
31808W        W50555  19.589   5.821   5.044  0.2471  0.1286  0.1739
31809W        W50556  28.418  10.346   7.521  0.0937 -0.0508  0.2531
31810W        W50557   9.216  20.911   6.427 -0.2512 -0.3986  0.0747
31811W        W50558  28.373   0.850  11.501 -0.1046 -0.1303 -0.1104
31812W        W50559  32.684  19.157  24.435 -0.2818 -0.1016 -0.0271
31813W        W50560  24.084   6.805  20.297  0.2072 -0.3130 -0.0427
31814W        W50561  15.600  30.292  10.926 -0.3483 -0.1123  0.1777
31815W        W50562   3.399  21.454   3.794  0.3291  0.0158 -0.2051
31816W        W50563  23.001   7.645  22.303 -0.0339  0.0930  0.4252
31817W        W50564  11.368  12.199   8.393  0.1459  0.1039  0.1434
31818W        W50565   8.692   7.997   7.665  0.1724 -0.0560 -0.0457
31819W        W50566  23.099  21.841   0.701 -0.0118 -0.0091  0.0410
31820W        W50567  10.874   3.815  20.913  0.0810  0.1094  0.1393
31821W        W50568  13.906   4.920  20.487 -0.2063 -0.1677 -0.0789
31822W        W50569  12.336  32.252  22.764  0.3279 -0.1812 -0.3847
31823W        W50570  13.712  11.506   6.915 -0.0286 -0.1001 -0.2728
31824W        W50571  28.017  31.512  21.954  0.0542 -0.4635 -0.0186
31825W        W50572  19.570   7.189   1.916 -0.2995  0.3543  0.3134
31826W        W50573  26.664  27.643  17.798  0.1340 -0.0451  0.1049
31827W        W50574  22.133  34.963   2.027  0.1039 -0.0075 -0.3621
31828W        W50575   5.959  12.905  16.614 -0.2944  0.1477  0.0489
31829W        W50576  25.976  11.354   8.916 -0.1673  0.1263  0.4541
31830W        W50577   9.817  10.564   1.640 -0.0385  0.0257 -0.2379
31831W        W50578   2.790   9.004   2.444 -0.3386 -0.1984  0.1194
31832W        W50579   9.612   8.354  22.557  0.0801 -0.0977 -0.1257
31833W        W50580  21.146  31.617   2.563  0.4464  0.1102  0.0883
31834W        W50581   6.265  34.081  14.085 -0.1007 -0.1095  0.0541
31835W        W50582  21.627  32.823  17.814 -0.2722  0.1617 -0.1641
31836W        W50583  19.578  28.304  25.450  0.0837 -0.1347 -0.1010
31837W        W50584  24.296  25.442  18.928  0.0640 -0.1859 -0.2311
31838W        W50585  16.882  28.962   9.119 -0.5912 -0.0812 -0.0882
31839W        W50586   5.137  19.688  21.360  0.0483  0.2268  0.0852
31840W        W50587   8.908  33.774  25.173 -0.1425 -0.0580 -0.0056
31841W        W50588  28.355  31.700  18.279  0.0582  0.0542 -0.0975
31842W        W50589  26.662  12.018  21.322 -0.4159  0.4601 -0.0562
31843W        W50590  16.321   7.210   5.702  0.0768  0.0675 -0.0108
31844W        W50591  17.001   0.453  17.767  0.0601  0.1841  0.4403
31845W        W50592   8.208  17.355  23.088 -0.0443  0.3761  0.1198
31846W        W50593  30.615   0.245  10.971 -0.1471 -0.0162 -0.1339
31847W        W50594  16.241   5.361  24.683 -0.0167  0.0166 -0.2110
31848W        W50595  20.706  10.011   0.965 -0.0771  0.3851  0.0875
31849W        W50596  31.619   7.335   2.553 -0.0527 -0.3493  0.0107
31850W        W50597  31.229  28.343  20.926  0.1355 -0.1451  0.1328
31851W        W50598  12.989  19.147  10.881 -0.3923 -0.1963 -0.2387
31852W        W50599  30.021  20.723  26.033 -0.0785  0.2013  0.3663
31853W        W50600  14.054  32.663  11.856 -0.0702  0.1810 -0.0588
31854W        W50601   8.014  26.286   8.557  0.0275 -0.0721  0.3356
31855W        W50602   3.748  24.057  26.198 -0.0372 -0.1304 -0.2611
31856W        W50603  31.647  28.938  16.740 -0.2281 -0.0031 -0.0082
31857W        W50604   0.733  25.100  23.222 -0.0658 -0.0512 -0.0415
31858W        W50605  11.535  23.209  16.223 -0.3741  0.2376 -0.1040
31859W        W50606  21.205  19.791   2.803 -0.2027  0.3037  0.2158
31860W        W50607  32.472  14.193  10.123 -0.4128  0.1260  0.2107
31861W        W50608   1.509   8.206  18.446  0.0088  0.1704  0.1576
31862W        W50609  15.860  20.609   8.485  0.0010  0.0121 -0.0166
31863W        W50610  24.912   9.083  24.793  0.1457  0.2264  0.1874
31864W        W50611  25.235  23.384  23.095  0.0347 -0.0655  0.1264
31865W        W50612  33.924  22.918  11.632  0.2555  0.1371  0.2319
31866W        W50613  10.034  32.604  24.340 -0.1438  0.0374 -0.0486
31867W        W50614   4.305  16.022   0.446 -0.2509  0.0468  0.0502
31868W        W50615   9.371   6.616   4.444 -0.2115  0.1273 -0.0612
31869W        W50616  19.486  33.763  17.275 -0.0301  0.3303 -0.3104
31870W        W50617  15.817  21.141  21.204  0.0347  0.1766 -0.2140
31871W        W50618  25.273  12.607  10.368 -0.1261  0.1324  0.0092
31872W        W50619  12.474   6.307   6.191  0.0939  0.1053  0.0796
31873W        W50620   3.316   3.170   3.164  0.0085 -0.0020 -0.0813
31874W        W50621  12.292   4.550   2.718 -0.2210 -0.0032  0.2376
31875W        W50622  28.797  16.709  18.299  0.1091 -0.1054  0.1648
31876W        W50623   2.048   1.062   1.554  0.0157  0.3939  0.0098
31877W        W50624  14.099   9.825  21.338  0.1637  0.0014  0.1356
31878W        W50625  20.258   7.881   0.691  0.2016 -0.3026 -0.1156
31879W        W50626   4.692  27.953  14.069  0.1193 -0.0038  0.0327
31880W        W50627   8.976  30.232  14.759  0.0472  0.1151  0.2534
31881W        W50628  14.682   3.420  17.285 -0.0465  0.1014 -0.2299
31882W        W50629  16.199   9.683  13.806  0.1461  0.0715  0.2201
31883W        W50630  16.384   3.551   1.888 -0.2021  0.0524 -0.0351
31884W        W50631  31.592  35.254   6.688 -0.2471 -0.1328  0.0109
31885W        W50632  19.075  19.462  20.022  0.2075 -0.2508  0.2929
31886W        W50633  15.343   4.549  10.498  0.1303 -0.0045 -0.0738
31887W        W50634  10.356   8.751  22.880 -0.0191 -0.3285 -0.1112
31888W        W50635  30.160  34.490  20.596 -0.0262  0.2309 -0.2576
31889W        W50636  34.987  10.516  10.886  0.0697  0.1585  0.1822
31890W        W50637  21.046  10.542  21.122  0.0876  0.2729 -0.2460
31891W        W50638   2.169  30.984   3.983  0.0306 -0.2886  0.2855
31892W        W50639  24.207  30.920  24.586  0.1403  0.0029  0.0142
31893W        W50640  21.293  16.397  22.553  0.2679  0.0036  0.0699
31894W        W50641  13.754  13.830  20.740  0.3781 -0.2950  0.3222
31895W        W50642  20.941   7.974  23.032 -0.1389  0.4270  0.2576
31896W        W50643   0.014  16.141  12.725 -0.1766 -0.1619  0.1483
31897W        W50644  15.790  19.449   2.765 -0.1613 -0.0571 -0.0701
31898W        W50645   2.921   9.807  24.265 -0.2296 -0.0104  0.0350
31899W        W50646  28.558  30.800   5.335 -0.2899 -0.1375 -0.0145
31900W        W50647  21.191   9.135  21.811 -0.0040  0.2041  0.2706
31901W        W50648   8.349   2.703  21.226  0.0285 -0.2189 -0.2822
31902W        W50649  30.745  31.014  23.956 -0.0921 -0.1095  0.5253
31903W        W50650  27.816   3.691  11.724 -0.1206  0.2029  0.1991
31904W        W50651  19.288  29.272   3.722  0.0323 -0.0937 -0.0840
31905W        W50652  28.713  29.431   0.231  0.0136 -0.0249 -0.0711
31906W        W50653  11.262  10.275  23.586  0.1477  0.2139  0.0250
31907W        W50654  18.253   3.337   7.857  0.2359  0.2362 -0.2365
31908W        W50655   8.082   3.237  21.617 -0.2918 -0.0435 -0.1471
31909W        W50656  29.385  18.879   5.270  0.0647  0.1164 -0.0821
31910W        W50657  33.092  22.643  19.059  0.0576 -0.0861  0.0759
31911W        W50658   0.839  33.096  18.452  0.1823  0.1091 -0.1124
31912W        W50659  31.119  26.229  14.066  0.0531 -0.4023  0.3487
31913W        W50660  18.422  24.721   8.171 -0.0934  0.4373 -0.0481
31914W        W50661   5.613  18.087   2.239  0.0650  0.0563 -0.0322
31915W        W50662  12.880  18.559  21.203  0.1434 -0.2584 -0.0258
31916W        W50663   7.418  13.256   4.117  0.2297  0.0172  0.1194
31917W        W50664  12.790  35.161  20.751 -0.0360  0.1199 -0.1895
31918W        W50665   9.900  18.177  13.376  0.0071  0.0303 -0.1018
31919W        W50666  18.225   7.406  19.527 -0.3760 -0.1526 -0.4448
31920W        W50667  13.012  13.634  14.026  0.2781  0.0782  0.3122
31921W        W50668  34.717  19.209  13.024 -0.0145 -0.0701  0.1719
31922W        W50669  22.573   8.719   0.318  0.0914  0.2696 -0.1282
31923W        W50670  33.214   5.506  18.486  0.2055  0.0509  0.2453
31924W        W50671  26.023  23.689  13.996  0.1957 -0.4070  0.2680
31925W        W50672  16.734  31.619  26.010 -0.1098 -0.2611  0.0024
31926W        W50673   1.264  32.859   8.820 -0.2372 -0.0827  0.1310
31927W        W50674   5.326  15.837  17.838  0.0111 -0.0984  0.1843
31928W        W50675   8.221  27.688  24.635  0.0184  0.2604 -0.1564
31929W        W50676  33.985  30.474  26.120 -0.0448 -0.1152  0.1217
31930W        W50677  25.659   7.090  12.777  0.0874 -0.3820 -0.1312
31931W        W50678  32.723   1.447   4.859 -0.0445  0.1844 -0.3393
31932W        W50679  22.434  10.989   0.742 -0.0325 -0.1268  0.1193
31933W        W50680   2.527   9.122   5.747 -0.2353 -0.2777 -0.1513
31934W        W50681   1.590  14.270  19.103  0.0306 -0.2072 -0.1300
31935W        W50682   8.949  24.700  14.396  0.0850  0.0702 -0.0872
31936W        W50683   7.686   8.379  24.651  0.2060 -0.3969  0.0560
31937W        W50684  27.546  31.271  12.454  0.0944 -0.0276 -0.1609
31938W        W50685  32.605   4.048  23.024 -0.0534  0.3557 -0.0421
31939W        W50686  11.392  19.727  12.109 -0.4036 -0.2582  0.1285
31940W        W50687  19.714   3.182  24.467 -0.0819 -0.3377  0.0767
31941W        W50688   2.336  17.310  25.173 -0.0999 -0.0094  0.0951
31942W        W50689  15.757  31.874  19.335  0.1188 -0.4860  0.0069
31943W        W50690   2.818  29.627  23.351 -0.1363 -0.1018  0.1102
31944W        W50691  28.105   5.583   9.422  0.0392 -0.2140 -0.0048
31945W        W50692   7.359  29.784   9.779  0.1260 -0.0004 -0.1047
31946W        W50693  17.726  32.526   6.955  0.0657 -0.0158 -0.0400
31947W        W50694  11.671   9.031   7.876 -0.0527 -0.1060 -0.0283
31948W        W50695  34.348  20.518   6.673  0.0430  0.1489  0.0468
31949W        W50696  34.516   5.841  16.528 -0.1540  0.0704  0.1238
31950W        W50697  25.596   6.914  23.804  0.0451 -0.0600 -0.5263
31951W        W50698  25.268   7.773  12.738  0.0396  0.0897 -0.5118
31952W        W50699   2.392  19.375  19.859  0.2436  0.0389 -0.0472
31953W        W50700  20.847  32.911   3.512 -0.3554  0.0563 -0.1494
31954W        W50701  32.914   0.434  18.180  0.2681  0.0359 -0.0643
31955W        W50702  16.817   6.755  21.880 -0.0678  0.0143  0.2874
31956W        W50703  15.197  25.362  15.280  0.0623  0.0650 -0.0574
31957W        W50704  15.846  34.775  20.074 -0.2712  0.0122 -0.2685
31958W        W50705  14.035  27.733  12.617 -0.0004  0.0115 -0.5567
31959W        W50706  27.134   4.035   2.043 -0.1925 -0.0581  0.1957
31960W        W50707  23.983  24.716  19.579 -0.0929 -0.0251  0.1842
31961W        W50708   5.818   0.179   5.104 -0.2867  0.5192 -0.0998
31962W        W50709  15.907   5.303  10.960 -0.0608  0.1589  0.0564
31963W        W50710  13.691  21.109  13.451 -0.0663 -0.2094 -0.1507
31964W        W50711  20.736  32.420  21.955  0.1755  0.3667 -0.2296
31965W        W50712  24.825  25.873  10.113  0.3566 -0.0757  0.0606
31966W        W50713   2.740  35.111  23.852  0.1851  0.0537 -0.0576
31967W        W50714  24.784   6.617  18.569 -0.2023  0.1784 -0.1860
31968W        W50715  30.134  33.607  17.734 -0.1573 -0.1514  0.0599
31969W        W50716   1.176  30.686   8.117 -0.0781 -0.0480 -0.2307
31970W        W50717  28.463  17.667  24.132  0.2601  0.1229 -0.2856
31971W        W50718  12.614   3.938   1.617 -0.0972  0.0759  0.0561
31972W        W50719   0.276  10.358  14.568 -0.2823  0.1566 -0.1969
31973W        W50720  32.930  21.277  16.305  0.0384  0.0065  0.1242
31974W        W50721  33.055  19.031   1.132 -0.2602  0.3367  0.1055
31975W        W50722   1.668  19.488  15.715 -0.0169 -0.0226 -0.0459
31976W        W50723  25.568   3.150  12.264 -0.3708 -0.0521 -0.3264
31977W        W50724   9.720   1.944  22.456  0.1379 -0.1601  0.2595
31978W        W50725  30.736   0.635  20.269 -0.1518  0.2141  0.2025
31979W        W50726  26.203  31.488  18.422  0.1056 -0.1371 -0.0105
31980W        W50727  26.310  12.991   0.865 -0.0820 -0.0073 -0.0082
31981W        W50728  12.269  22.297   2.731 -0.1154 -0.1222  0.2147
31982W        W50729  20.590   2.789   1.665  0.1904  0.4258 -0.3480
31983W        W50730   3.516  18.161  15.462  0.2522 -0.0680  0.0669
31984W        W50731  19.245  11.201  19.792  0.1962 -0.0135 -0.0795
31985W        W50732  33.124  16.075  15.861 -0.2159  0.1122  0.3130
31986W        W50733  19.658  30.262  24.074 -0.1014 -0.0040  0.2023
31987W        W50734   9.364  15.018  11.642  0.3803 -0.2622 -0.3081
31988W        W50735  30.512  23.502  25.808  0.0402  0.0838  0.1489
31989W        W50736   6.639  34.654   8.689  0.0745  0.0009 -0.3681
31990W        W50737  16.986   7.514   9.464 -0.0301  0.0432  0.2112
31991W        W50738  23.515  13.316  16.062 -0.3852  0.1584 -0.2577
31992W        W50739   2.565   0.409  23.130  0.1335 -0.0919 -0.3109
31993W        W50740  16.776   4.776  24.388 -0.0066 -0.1603  0.3061
31994W        W50741  15.792   0.176  19.215  0.1527  0.1411 -0.1705
31995W        W50742  27.496  22.724   5.943  0.3931 -0.0520  0.4387
31996W        W50743  33.073   5.028  15.924 -0.1134 -0.2029  0.1638
31997W        W50744  12.219   0.203   5.233 -0.1939 -0.2003  0.0019
31998W        W50745   8.559  34.159   9.008  0.0084 -0.0799 -0.1537
31999W        W50746   5.769   3.828  24.451  0.0582 -0.6060  0.1869
32000W        W50747  21.789  29.543  20.234  0.0514  0.3411  0.0034
32001W        W50748   9.006  26.314   1.934 -0.0674  0.2196  0.0619
32002W        W50749   5.245   5.025  25.137  0.0745 -0.0579  0.0672
32003W        W50750  24.132   1.476  16.123  0.1707 -0.3177 -0.2702
32004W        W50751  17.277  15.743  22.004  0.2167  0.1683 -0.1644
32005W        W50752  14.606   0.874   0.606 -0.0378  0.0463 -0.0725
32006W        W50753  16.236  14.889  25.760 -0.2524  0.1146  0.1254
32007W        W50754  20.376  31.284   1.190  0.1394 -0.0139 -0.1479
32008W        W50755  19.469   8.967   8.946  0.1580 -0.0427  0.2469
32009W        W50756  29.764  17.356  18.733  0.2529  0.2544  0.0682
32010W        W50757  10.805   5.880   0.808  0.1452 -0.1011  0.0185
32011W        W50758  13.503  16.058  13.470 -0.0411  0.2802  0.1179
32012W        W50759  34.115  31.487  24.659 -0.5034 -0.1415 -0.0697
32013W        W50760  28.962   9.452  18.408 -0.0030  0.2829 -0.0946
32014W        W50761  10.097  34.309  23.340  0.2257 -0.0257 -0.1139
32015W        W50762  19.269  16.380   7.334  0.4174  0.1193 -0.1718
32016W        W50763   5.536  26.716   6.414 -0.2839 -0.0221  0.0600
32017W        W50764   1.871   3.550  17.290  0.0480 -0.1854  0.2395
32018W        W50765  24.382  17.976   8.821 -0.1053  0.0010  0.0670
32019W        W50766  31.278  19.971   6.804  0.1138 -0.1268  0.0163
32020W        W50767  17.678  16.580  20.174 -0.1840 -0.3780 -0.3560
32021W        W50768  15.354  33.760  11.737  0.3725 -0.1261 -0.2250
32022W        W50769  26.382   3.790   1.416  0.1268  0.0304  0.0443
32023W        W50770  20.875   5.052  24.419  0.0617  0.1191 -0.2314
32024W        W50771  25.130  22.942  19.712  0.2257 -0.2272 -0.0613
32025W        W50772  33.605   5.240   0.377  0.0835  0.1371 -0.2180
32026W        W50773  12.824   8.401  13.054  0.1679 -0.2523 -0.2169
32027W        W50774  25.216  26.439  12.728 -0.0877  0.1328  0.1693
32028W        W50775  23.909  34.288  15.508  0.0759  0.2357 -0.0632
32029W        W50776  16.676  17.325  10.149  0.0813 -0.0802 -0.1794
32030W        W50777  30.254  30.570   6.273  0.1700 -0.1321 -0.1706
32031W        W50778  20.227  31.750  20.514 -0.1506 -0.3423  0.0451
32032W        W50779  24.500  22.452  12.538 -0.0389  0.0798  0.0269
32033W        W50780  29.221   5.915  16.174 -0.1355 -0.1337 -0.0764
32034W        W50781  19.677  30.470   0.567  0.1042 -0.0713 -0.1903
32035W        W50782  32.484  11.992   7.106 -0.0619 -0.2651  0.1061
32036W        W50783  10.169  27.082  15.627 -0.2946 -0.1625  0.0548
32037W        W50784   8.169  17.825  10.346 -0.0797 -0.1364  0.0733
32038W        W50785  16.416   6.897   3.048  0.2584  0.0669  0.1671
32039W        W50786  11.883  14.715   1.413  0.0004  0.3465 -0.0589
32040W        W50787  30.988   9.730   7.145 -0.1571 -0.0435 -0.1576
32041W        W50788  21.954  32.878   3.005 -0.2453 -0.2031  0.1353
32042W        W50789  22.103   7.612  23.835 -0.0579  0.0726  0.3103
32043W        W50790  27.796  30.979   0.078 -0.1018 -0.2821 -0.0232
32044W        W50791  13.597  16.488  13.243 -0.3707 -0.0281  0.0019
32045W        W50792   7.815   9.228  22.210  0.0517 -0.0882 -0.2002
32046W        W50793  11.560   0.388  23.989  0.0568  0.0661  0.2485
32047W        W50794  27.853  14.497  19.925  0.1460 -0.0534 -0.1539
32048W        W50795  22.411   7.148   5.687  0.0924  0.1015  0.0953
32049W        W50796  19.631  24.646  21.572  0.0935 -0.0145 -0.0177
32050W        W50797  29.818  24.267  13.058 -0.3764 -0.1470  0.0462
32051W        W50798  18.755  17.128   4.571  0.3113 -0.0966  0.2420
32052W        W50799   6.719  13.869  19.917 -0.0153 -0.2938 -0.1810
32053W        W50800  20.328  22.672  26.008 -0.0783  0.2302 -0.0315
32054W        W50801  19.321   3.851   9.455 -0.1092  0.1838 -0.0275
32055W        W50802  27.863  18.259   9.055  0.0624 -0.1891 -0.2759
32056W        W50803  16.758  33.415  23.601  0.2542 -0.4824  0.2003
32057W        W50804  19.893  25.944   8.856  0.0424 -0.1012  0.0626
32058W        W50805  32.236  26.847  12.306 -0.0361 -0.0024 -0.4268
32059W        W50806  18.223   0.314  25.013 -0.2349 -0.2840  0.0897
32060W        W50807  22.382  30.281  18.955  0.1434 -0.0640  0.0364
32061W        W50808  12.083  10.476  23.750 -0.0487  0.0368  0.0591
32062W        W50809  11.837   0.448  14.609  0.1013  0.0061  0.1130
32063W        W50810  11.142   7.468   1.740 -0.1790  0.0326 -0.0131
32064W        W50811  12.140  15.383  12.411 -0.0945  0.3617 -0.2779
32065W        W50812  28.828  31.823   0.506  0.1301 -0.2246 -0.0556
32066W        W50813   0.396  19.511  26.031  0.1166 -0.2032  0.0524
32067W        W50814  25.183   4.060  14.416 -0.0101 -0.1074  0.1098
32068W        W50815   6.764   4.310   9.516  0.0965 -0.1131  0.0774
32069W        W50816  14.479   3.250  20.702  0.0578  0.0233  0.1291
32070W        W50817   1.207  11.976  24.503  0.0698 -0.1502  0.1541
32071W        W50818  22.013  24.517   3.537  0.1232 -0.1952  0.0678
32072W        W50819   6.228  34.584   3.916 -0.0155  0.0748 -0.0128
32073W        W50820  15.757  24.454   4.819 -0.2042  0.0913  0.0273
32074W        W50821  10.827   2.306  19.137 -0.1334 -0.1878  0.0756
32075W        W50822  33.123  26.086  24.729  0.2246  0.2996 -0.0645
32076W        W50823   1.945  28.806   3.312 -0.0803  0.3648 -0.1354
32077W        W50824  11.768  21.696   5.187 -0.2051 -0.1344  0.1468
32078W        W50825   1.615  26.180  22.859  0.0877  0.0406 -0.1053
32079W        W50826  24.796  29.025  12.389 -0.0065 -0.1623 -0.0752
32080W        W50827   7.999  28.139  24.621 -0.1542 -0.1564  0.1349
32081W        W50828   6.585   8.818  12.437 -0.3216 -0.3305  0.0576
32082W        W50829  23.335   7.543  25.292 -0.0690 -0.0616 -0.0844
32083W        W50830  33.614  31.919  21.265  0.1891  0.3238  0.0470
32084W        W50831  27.716  25.393   7.799  0.1950 -0.1889  0.1587
32085W        W50832  19.715   3.549   8.528  0.4171  0.0650  0.0421
32086W        W50833  23.225  27.128  20.448 -0.2441  0.0739  0.1697
32087W        W50834  12.393   2.346  10.848 -0.0755 -0.4464 -0.0589
32088W        W50835  15.668  27.645   4.396 -0.0402  0.2613  0.0904
32089W        W50836   2.081  26.440  21.919 -0.1394  0.1658  0.1310
32090W        W50837  24.821  28.288  21.441  0.0477  0.1735  0.0322
32091W        W50838   4.561  16.817  15.469 -0.0737 -0.2215  0.0495
32092W        W50839   9.077  23.198  24.483  0.0080 -0.0798  0.2345
32093W        W50840  32.545   2.228   3.893 -0.2122 -0.1240  0.0141
32094W        W50841  32.080  19.799  24.741  0.1940 -0.0209 -0.2729
32095W        W50842   4.148  28.153   7.804 -0.4870  0.1972 -0.0388
32096W        W50843  16.929  29.519  24.308 -0.2911 -0.0060 -0.1032
32097W        W50844   3.416   8.211  22.353 -0.0374  0.0202  0.0661
32098W        W50845  15.747  30.563   7.454 -0.0589  0.0227 -0.2459
32099W        W50846  28.384   8.015  25.078 -0.0830 -0.2441 -0.0172
32100W        W50847  30.395   6.942  20.514  0.0188 -0.2170  0.1095
32101W        W50848  35.328  17.709  19.315 -0.0439 -0.0194  0.0466
32102W        W50849  31.167  11.780  15.990  0.2045  0.2853 -0.3864
32103W        W50850  11.520  26.216   1.790 -0.1284  0.0902  0.4922
32104W        W50851  17.718  12.646   8.237  0.1927 -0.3051 -0.2175
32105W        W50852  29.439   2.337  22.870  0.2189  0.1881 -0.1648
32106W        W50853  27.876  10.990  22.612  0.2904 -0.3296 -0.3236
32107W        W50854  23.756   2.636  20.037 -0.3130 -0.0538 -0.3271
32108W        W50855   2.897  26.562  23.705 -0.0312  0.0241 -0.1015
32109W        W50856  33.002  25.793  19.766 -0.0946 -0.3314 -0.0661
32110W        W50857  31.288   7.043  14.592  0.2129  0.2275 -0.2249
32111W        W50858  13.574  28.389   5.315 -0.0622  0.1064 -0.1802
32112W        W50859  27.837  24.420  24.495  0.0578 -0.0512 -0.1922
32113W        W50860  11.361  23.555  25.948  0.2565 -0.0154  0.0683
32114W        W50861  29.810   0.615  20.962 -0.0650  0.1350  0.0622
32115W        W50862  33.596  29.467  17.642  0.1647  0.1594 -0.1000
32116W        W50863  26.889  17.661   8.308  0.0189 -0.2282 -0.0410
32117W        W50864   1.738  21.653  19.272  0.2407  0.0025 -0.0382
32118W        W50865  29.106   5.801  24.619  0.2683  0.2815 -0.1640
32119W        W50866  13.347  23.832  25.665  0.7237  0.0202 -0.3073
32120W        W50867  16.190  21.138  15.259 -0.3115  0.3080 -0.0092
32121W        W50868  11.685  18.197   0.114 -0.0915 -0.0066  0.0417
32122W        W50869   6.189  35.229   0.049 -0.1732 -0.0120 -0.1636
32123W        W50870  30.803   8.803  11.327 -0.3091  0.1365  0.2142
32124W        W50871   1.692   7.670   0.101 -0.0622 -0.1183 -0.0835
32125W        W50872  22.614  12.802  19.317  0.0412  0.0659  0.2380
32126W        W50873  14.789  29.732   7.733 -0.2644  0.3691  0.1372
32127W        W50874  21.610  19.089   4.567  0.2355  0.1598  0.4794
32128W        W50875  20.971  20.400   5.266  0.1898 -0.1551  0.0979
32129W        W50876  16.911  24.647  12.076 -0.1593  0.0788 -0.1856
32130W        W50877  23.060  26.660   3.363  0.0250  0.1212  0.0255
32131W        W50878  27.586  28.665  25.645 -0.0427  0.0333  0.0490
32132W        W50879  14.170  20.049  23.514  0.4175 -0.4123  0.1450
32133W        W50880  31.280  15.457   9.859 -0.0660 -0.0020  0.1158
32134W        W50881  18.468  10.902  24.182 -0.2120 -0.1495  0.2001
32135W        W50882  18.682  16.320   1.476  0.0503 -0.1167  0.0717
32136W        W50883  26.210  14.280  15.156 -0.0345 -0.3721 -0.1085
32137W        W50884  14.975  27.134   9.060  0.1919  0.1981 -0.4500
32138W        W50885  11.892  14.194  20.434 -0.0903  0.0056  0.0027
32139W        W50886  22.430  34.129  24.664  0.1146  0.2661  0.1205
32140W        W50887  13.147   7.501  14.898 -0.0057  0.2888  0.1142
32141W        W50888  11.183   3.723  13.676  0.4445  0.1501  0.1547
32142W        W50889  27.433  11.260   8.722  0.0875 -0.1460 -0.0705
32143W        W50890  23.963  31.020  11.510 -0.1516  0.1417  0.1595
32144W        W50891  12.540  30.072   4.889 -0.3002 -0.2123 -0.3885
32145W        W50892  28.483  17.641  16.795 -0.2061 -0.0559 -0.2487
32146W        W50893  11.381   8.077  11.385 -0.1739  0.0586 -0.1203
32147W        W50894  24.659  18.944  11.876  0.1005 -0.1147  0.3439
32148W        W50895  16.009  14.515  11.847  0.0073 -0.0331  0.0174
32149W        W50896  24.690  19.644   9.813 -0.2679  0.4403 -0.4336
32150W        W50897   6.004   5.260   1.072  0.0212 -0.2279 -0.0638
32151W        W50898  20.045  33.578  20.468  0.0258  0.0913 -0.1378
32152W        W50899  15.445  25.916  13.087  0.3548 -0.0204 -0.2007
32153W        W50900  28.366  19.042  19.757  0.0679  0.2010 -0.5419
32154W        W50901   3.430   9.719   6.827 -0.1202 -0.0888 -0.1327
32155W        W50902  32.533  16.345  16.621 -0.5181  0.1151  0.0096
32156W        W50903   3.431  21.707   0.062 -0.1980  0.1052  0.2894
32157W        W50904  17.024  31.158  23.806  0.2638 -0.1117 -0.0741
32158W        W50905  34.507  12.611  22.931 -0.0125  0.1579  0.0014
32159W        W50906  16.686  21.992   4.374  0.0934  0.0060  0.0954
32160W        W50907  10.871  21.685   5.015  0.0405  0.0469  0.4243
32161W        W50908  17.662  29.002  20.101  0.3331 -0.1638  0.1813
32162W        W50909  13.297   4.062   7.358 -0.0952  0.1801 -0.2012
32163W        W50910  11.138  34.201   5.991  0.1200  0.2395 -0.0556
32164W        W50911  11.277   1.258  14.532  0.1430 -0.2613  0.0923
32165W        W50912   9.236  29.565   2.036 -0.0299  0.4713 -0.0427
32166W        W50913  29.015  31.512  10.772 -0.3168 -0.0071 -0.0285
32167W        W50914  26.591  27.221  24.360  0.1780  0.1918 -0.1099
32168W        W50915  11.007  14.299  12.455  0.0792  0.1666 -0.0203
32169W        W50916  14.686  17.053   2.404 -0.3374 -0.1037 -0.1241
32170W        W50917  16.163  29.750  19.923 -0.1784 -0.1935 -0.3432
32171W        W50918   8.410  27.565   5.151  0.3217 -0.2625  0.3408
32172W        W50919   3.410  19.865  21.780  0.4524  0.1353  0.1453
32173W        W50920  13.835  31.459  23.710  0.2995 -0.1851 -0.1616
32174W        W50921  19.531   5.800   2.475  0.0565 -0.0308 -0.2580
32175W        W50922  12.342  16.556   6.946 -0.0765 -0.0456  0.1213
32176W        W50923  30.300  33.152   4.810 -0.0944 -0.3820  0.0744
32177W        W50924  10.059  11.679  18.320  0.0871 -0.2179  0.1219
32178W        W50925   8.979  15.762   6.756  0.0905 -0.1073 -0.0273
32179W        W50926  18.986  12.739  18.093 -0.1952 -0.1515 -0.2378
32180W        W50927  15.258  24.207   8.188 -0.2588  0.0074 -0.0268
32181W        W50928  12.204  28.158  10.602  0.0476  0.0810 -0.2754
32182W        W50929  14.506   5.715  11.777 -0.0911  0.0033 -0.2923
32183W        W50930  35.044  10.936  20.584  0.1532 -0.6057  0.0264
32184W        W50931   7.549   2.567  25.694 -0.0693 -0.2209  0.1933
32185W        W50932  10.788  25.029   5.788 -0.0791  0.1606 -0.2592
32186W        W50933  23.049  21.986   1.252 -0.0743 -0.4026 -0.0453
32187W        W50934  32.419  11.251  21.853  0.3082  0.1777 -0.3473
32188W        W50935  19.156  32.804  19.875 -0.3028 -0.3938  0.0606
32189W        W50936  33.479  10.575  11.779  0.0621  0.0687  0.2716
32190W        W50937   9.383  19.591   2.733  0.2056  0.0569 -0.1887
32191W        W50938  25.223  14.148  20.205  0.0085 -0.1184  0.2456
32192W        W50939  13.419  21.127  21.850 -0.0296  0.0399  0.0675
32193W        W50940  27.482  29.642   3.693  0.0070 -0.2532  0.3147
32194W        W50941  20.821  29.361   4.462 -0.0595  0.1070  0.3194
32195W        W50942  21.147  17.081  24.507  0.1147 -0.1737 -0.0874
32196W        W50943  28.470  26.152  18.527  0.0787 -0.1260 -0.0969
32197W        W50944  23.572   3.718  18.565 -0.2714  0.1642  0.0700
32198W        W50945   6.230  29.353  11.774  0.1152 -0.1138 -0.1246
32199W        W50946  23.563   3.704   4.002 -0.2095  0.2769  0.1111
32200W        W50947   5.309  32.927  10.334  0.1723 -0.1876  0.2396
32201W        W50948   2.531  27.867   5.192  0.0741  0.2854 -0.2035
32202W        W50949  31.380  18.918  23.703  0.2365  0.0769 -0.1154
32203W        W50950   3.971   0.725   7.653  0.4624  0.0015  0.1333
32204W        W50951  18.567  10.588   6.238  0.0102 -0.3250 -0.0257
32205W        W50952  34.656   3.141   7.269  0.1743  0.0661 -0.1306
32206W        W50953  26.237  11.820  23.928  0.0635 -0.0805  0.2734
32207W        W50954  26.637   3.792  18.694 -0.1384 -0.0892  0.0367
32208W        W50955   4.710  30.505  24.767 -0.1598 -0.0993  0.1461
32209W        W50956  15.957  16.401  22.804 -0.1877  0.1062 -0.3127
32210W        W50957   4.073  10.722   2.276  0.1984 -0.0642 -0.0903
32211W        W50958  30.790  18.953   8.915  0.2205  0.0767  0.1601
32212W        W50959  35.154  35.120   1.788 -0.1626  0.1688  0.1288
32213W        W50960  12.357  21.707  26.003 -0.0273  0.1012  0.0314
32214W        W50961  20.943  20.395   7.746  0.1306 -0.3950  0.0742
32215W        W50962  23.416  21.709  25.363 -0.0282  0.0813 -0.4285
32216W        W50963   8.944  30.300   8.552 -0.1478  0.0968 -0.1378
32217W        W50964   1.620  10.448  22.974  0.2574  0.0702  0.4125
32218W        W50965  20.861   1.602   0.949  0.0684 -0.4053  0.0376
32219W        W50966  30.792  31.265   1.630 -0.2322  0.0463  0.2557
32220W        W50967  12.269  18.528  12.115 -0.0293  0.0282 -0.0766
32221W        W50968   1.262  15.561  15.563 -0.0785 -0.0909 -0.2261
32222W        W50969   2.727   2.930  25.580  0.1527 -0.1004  0.0744
32223W        W50970  33.845   2.008   3.878 -0.0216 -0.1553 -0.0393
32224W        W50971  14.112   8.429   5.896  0.0446  0.1575  0.0778
32225W        W50972   2.676  18.885  12.816 -0.0624  0.4427 -0.2799
32226W        W50973   6.166  15.017  25.020  0.0757 -0.2784  0.2032
32227W        W50974  15.071  22.781  15.609  0.0382 -0.2349 -0.0562
32228W        W50975  27.571  33.196  13.471 -0.0044 -0.1238 -0.0979
32229W        W50976  14.384   2.751  12.284  0.1185 -0.0944 -0.3102
32230W        W50977  13.031  10.620  21.626 -0.1379  0.1075 -0.2079
32231W        W50978  28.525  26.690  23.102 -0.0678 -0.0437  0.0370
32232W        W50979  24.678  26.635   3.856 -0.1534  0.2608  0.0166
32233W        W50980   9.434  16.094  13.044  0.2899  0.1630  0.1442
32234W        W50981  15.267   6.103  22.781  0.0982  0.1090  0.1016
32235W        W50982   2.969  24.131   4.989 -0.0900 -0.3754  0.0105
32236W        W50983  20.509   3.681  19.718 -0.2255  0.2343  0.1986
32237W        W50984  32.070  22.788  24.491  0.2757 -0.4406 -0.2393
32238W        W50985  31.876   9.637  14.877 -0.1908  0.2992 -0.1688
32239W        W50986  28.381   5.635  16.994  0.1738  0.2571  0.0473
32240W        W50987  34.003  31.286  18.558 -0.0290 -0.1576 -0.1291
32241W        W50988  29.816  12.835  19.738  0.0214  0.2138 -0.4043
32242W        W50989   4.897  14.440   6.848 -0.1051 -0.1350  0.1063
32243W        W50990  24.328  18.374  19.179  0.0466 -0.3949 -0.0413
32244W        W50991  15.662  16.139  10.459 -0.4836 -0.2991  0.1906
32245W        W50992  22.234  30.221  23.001 -0.2061 -0.1537  0.1781
32246W        W50993  30.812  10.032  15.973  0.0238 -0.1684 -0.2334
32247W        W50994  16.333  11.706  13.517 -0.0680 -0.0150  0.0065
32248W        W50995  16.681  22.334   3.875  0.1057  0.1667 -0.1195
32249W        W50996  12.833   8.922   7.364 -0.4434  0.0272 -0.1135
32250W        W50997  26.555  24.514   0.233  0.1114  0.0941 -0.5328
32251W        W50998  10.099   4.170   6.173 -0.1346  0.0198 -0.2384
32252W        W50999  15.142   7.388   6.077  0.0577 -0.2790 -0.0605
32253W        W51000  17.580   5.882  19.316  0.1348  0.2306  0.0852
32254W        W51001   6.493  19.718  23.112 -0.0737 -0.1631 -0.0221
32255W        W51002  15.991   3.756  19.881 -0.1078  0.2725  0.3973
32256W        W51003  29.216  16.251   6.560  0.3227  0.2583  0.0697
32257W        W51004  11.403  30.712  15.608  0.2453 -0.0264  0.0067
32258W        W51005  24.871  18.656  20.424 -0.1498 -0.0001  0.1337
32259W        W51006   7.882  21.662   5.427  0.2639  0.0762  0.1400
32260W        W51007   8.176  10.194  22.208  0.1663  0.0944 -0.0005
32261W        W51008  26.533  18.623  26.113  0.2439 -0.1566 -0.4117
32262W        W51009   9.312   7.020   6.124  0.0352  0.0472  0.1268
32263W        W51010  27.056  32.050   5.644 -0.1205 -0.0430  0.2774
32264W        W51011   8.678  32.712   5.312 -0.2125  0.0915  0.0973
32265W        W51012  12.637  26.255   9.320  0.0859 -0.1107  0.0031
32266W        W51013  26.086   1.595  24.190  0.1533  0.1111 -0.0438
32267W        W51014  29.289  34.252   2.259 -0.2032  0.1952 -0.0142
32268W        W51015  35.333   5.084  23.648 -0.2911  0.0576  0.1150
32269W        W51016  27.508  24.157  20.440  0.0365 -0.3681 -0.0404
32270W        W51017  30.110  34.930  19.380  0.0474 -0.0336 -0.0904
32271W        W51018  20.531  32.055   7.368 -0.1560 -0.2769 -0.0348
32272W        W51019  22.223   2.280  25.750 -0.0668  0.0280  0.1928
32273W        W51020  11.662   2.798  10.021 -0.0404  0.0066 -0.3600
32274W        W51021  32.218  24.206  16.038  0.2518  0.0082 -0.0017
32275W        W51022  29.510   7.105  22.269  0.1876 -0.5690  0.3726
32276W        W51023  12.255  23.330   5.442 -0.0767  0.1545 -0.0658
32277W        W51024  11.472   5.499  11.819  0.0401 -0.2353  0.1524
32278W        W51025  16.917  18.798  10.727 -0.0567 -0.1410 -0.0889
32279W        W51026   8.039   0.472  24.285 -0.3364 -0.2189 -0.2796
32280W        W51027  12.500  22.092   0.262 -0.0384  0.1480 -0.0060
32281W        W51028  33.467  23.806  15.373 -0.1334 -0.2727 -0.2044
32282W        W51029  19.808  32.431  16.172  0.0204  0.0470 -0.1464
32283W        W51030  22.613   4.272  20.431 -0.0499 -0.2041 -0.0856
32284W        W51031   5.222  11.460  17.906 -0.0075  0.1302 -0.1196
32285W        W51032  16.612  10.749   3.867  0.1988 -0.0137  0.1937
32286W        W51033   4.297  28.561   9.894 -0.1280  0.0505  0.0990
32287W        W51034  16.486  27.029   3.315  0.4390 -0.0773  0.0283
32288W        W51035  18.822   8.461  22.384 -0.0049  0.1186 -0.1571
32289W        W51036  23.415  32.894   5.827 -0.0694 -0.0727  0.0023
32290W        W51037  31.198  13.900   9.469 -0.0358 -0.1711 -0.3723
32291W        W51038   9.902  18.907  24.989  0.1032  0.1234 -0.1829
32292W        W51039  11.835  29.634   3.083  0.1191 -0.1191 -0.2979
32293W        W51040   5.897  20.086  23.817  0.0919  0.2012 -0.0740
32294W        W51041  13.867   5.989   7.662 -0.2111 -0.3459 -0.0553
32295W        W51042  23.867  19.662  26.099  0.0068 -0.0683 -0.1064
32296W        W51043  11.276  25.614  23.223 -0.1575  0.1759  0.3791
32297W        W51044  17.270   3.096  16.867  0.0656  0.4673  0.1146
32298W        W51045  26.476  13.550   9.437  0.1793  0.0354  0.1683
32299W        W51046  24.216  19.734  21.155 -0.2228  0.1569 -0.0994
32300W        W51047  25.747  30.335  12.962 -0.1268  0.1129  0.0479
32301W        W51048   1.242  28.114  19.501  0.0909  0.1081  0.1570
32302W        W51049  31.966  27.029  10.884 -0.2064  0.0150  0.1247
32303W        W51050  25.394   3.839   3.946  0.0660  0.1080  0.1781
32304W        W51051  24.852  15.250  25.136  0.0608 -0.5288 -0.2937
32305W        W51052  27.431  29.832  16.133 -0.0699 -0.0494 -0.1749
32306W        W51053   9.737   6.513  23.885 -0.1792 -0.2249  0.3465
32307W        W51054  25.418   0.897   0.366  0.0613  0.1111 -0.3500
32308W        W51055   0.628  11.900  20.787 -0.3676  0.0087  0.2184
32309W        W51056   8.978  24.992  10.284 -0.0224  0.2469 -0.0772
32310W        W51057   3.698   0.176  21.023  0.3685 -0.1025 -0.1773
32311W        W51058   5.019   4.483  10.609 -0.1322  0.0074 -0.1107
32312W        W51059  34.441  18.212  25.515 -0.4474 -0.0131  0.0253
32313W        W51060  33.260   7.368  15.617 -0.1142 -0.1629 -0.2221
32314W        W51061  16.649  24.284   8.732 -0.3448  0.0895  0.0378
32315W        W51062  23.868   1.492   0.360  0.0077 -0.1085  0.1762
32316W        W51063  10.666  21.478  12.883  0.0658 -0.1161 -0.2275
32317W        W51064  28.199  26.637  21.658  0.1643  0.0603 -0.0433
32318W        W51065  24.843   9.475  19.667  0.1800  0.0659 -0.0596
32319W        W51066  10.360   2.999   9.901  0.1309 -0.1206  0.3984
32320W        W51067  14.208  22.126  25.468 -0.0666  0.0504 -0.1467
32321W        W51068  20.470  30.131   5.108 -0.2110 -0.0634 -0.0171
32322W        W51069  22.396   2.688  26.019 -0.1415  0.0515  0.2325
32323W        W51070  19.088  27.751   4.979 -0.1516 -0.1284 -0.0089
32324W        W51071   5.215   3.156  22.024  0.2073  0.0586  0.1748
32325W        W51072  28.723  11.538   8.939 -0.2355  0.1671  0.4592
32326W        W51073  14.394  15.366  25.350 -0.1415 -0.4101  0.1254
32327W        W51074   8.652  25.240  23.515  0.0767  0.3416  0.2637
32328W        W51075  20.251   3.876  25.902 -0.2147  0.3158  0.3282
32329W        W51076  18.910  16.892   0.147  0.0273 -0.2222  0.1437
32330W        W51077   2.978   6.324   0.045  0.0515  0.1274 -0.1330
32331W        W51078   4.074  34.600  13.202  0.1096 -0.4964 -0.3701
32332W        W51079  10.998  12.547   1.461 -0.0681  0.1169 -0.1949
32333W        W51080  23.475  19.075  17.736 -0.1276 -0.1388 -0.1634
32334W        W51081   9.987  25.677  25.744  0.3873  0.1748 -0.0162
32335W        W51082   1.360  33.973   6.093  0.3721 -0.0062  0.0370
32336W        W51083  30.670  16.304   7.072 -0.0310 -0.3713  0.2167
32337W        W51084   4.494   2.964   2.294  0.0235  0.1380 -0.1747
32338W        W51085  17.261  25.401  22.486  0.2291  0.0533  0.0731
32339W        W51086   1.950  11.125   0.738  0.1481  0.0625  0.2201
32340W        W51087  22.460  26.319  18.987  0.0308 -0.1476 -0.2805
32341W        W51088  28.453   2.434   2.608 -0.0714 -0.1592  0.2997
32342W        W51089  23.949  28.724  20.111 -0.0260 -0.3785 -0.2019
32343W        W51090  29.026   7.392  11.169  0.0777 -0.2334 -0.2953
32344W        W51091  21.441  32.016   4.150 -0.2467 -0.2445  0.6512
32345W        W51092   7.046   5.290   0.828 -0.2466 -0.0985  0.0535
32346W        W51093  24.700  19.690  22.632 -0.4099  0.1588 -0.6269
32347W        W51094  27.212   3.200  25.300  0.2149  0.1199 -0.3913
32348W        W51095   5.712  17.386  22.316  0.2831  0.0149 -0.2389
32349W        W51096   8.454  17.563   8.836  0.1041  0.3414 -0.3489
32350W        W51097  19.148  11.531   0.217  0.0651 -0.0945 -0.0916
32351W        W51098  18.517   1.340  16.835 -0.1755 -0.1078  0.0350
32352W        W51099  15.723  11.482   6.352  0.2502 -0.1676 -0.1057
32353W        W51100  23.588  29.572  19.885  0.0422 -0.4677 -0.0921
32354W        W51101  34.704  30.126  22.321  0.1700 -0.0300  0.0327
32355W        W51102   8.970   0.534  12.266  0.0331  0.0858  0.2520
32356W        W51103  13.489  18.533   0.057  0.0544  0.0316  0.2248
32357W        W51104   1.938  34.456  10.665 -0.0374 -0.2743 -0.0159
32358W        W51105  14.945  28.219   0.550 -0.2275  0.1472 -0.1982
32359W        W51106  29.411  18.631   9.499  0.0354 -0.1841 -0.4568
32360W        W51107  11.605   1.031   7.448  0.2642 -0.2473  0.3972
32361W        W51108  26.770  18.339  10.276 -0.0738  0.0795  0.2152
32362W        W51109  11.728   6.140  19.742  0.0186 -0.2254 -0.2960
32363W        W51110  11.283  12.923   7.621  0.0264  0.0867  0.2226
32364W        W51111  34.496  23.256  12.874  0.2326  0.0131  0.1508
32365W        W51112  20.092  18.268  20.393 -0.2844  0.0513  0.2501
32366W        W51113  26.555   3.360  16.321  0.0142  0.1039  0.0198
32367W        W51114  12.373  33.278  25.535  0.0964  0.0613  0.6620
32368W        W51115  25.392  34.446  17.910 -0.0221 -0.0711  0.1381
32369W        W51116  15.938  26.279  24.315  0.1485 -0.1785  0.2767
32370W        W51117   4.918   8.778  22.876 -0.1133  0.0053 -0.0446
32371W        W51118   3.673  17.441  17.867 -0.0859 -0.1103 -0.4848
32372W        W51119   6.915  33.161   1.989  0.1563  0.1230  0.1015
32373W        W51120   3.421  26.968  20.191 -0.1403  0.0932 -0.1514
32374W        W51121  30.005  18.385  23.724  0.1516 -0.3554 -0.1118
32375W        W51122  12.837  20.361   2.095  0.4577  0.2485 -0.3082
32376W        W51123   0.128  31.773  23.315 -0.2769 -0.2533 -0.1475
32377W        W51124  29.865   1.397  17.234 -0.0050 -0.0872  0.0306
32378W        W51125  23.673  25.834  12.144 -0.0776  0.2208  0.0374
32379W        W51126  13.228   9.245   7.740 -0.0481  0.1560 -0.3764
32380W        W51127  24.803  20.254  23.988  0.0606  0.1321 -0.2887
32381W        W51128  29.359  19.582  13.832  0.0661 -0.1661  0.0187
32382W        W51129  28.816  10.582  12.925  0.0249 -0.0766  0.0761
32383W        W51130  15.637  11.051  12.040 -0.0110 -0.2049 -0.2724
32384W        W51131   7.815  28.805  10.763 -0.2331  0.2245 -0.2865
32385W        W51132  17.127  13.433  19.140  0.0081  0.3611 -0.1515
32386W        W51133  21.097  29.104  24.675 -0.0718  0.4323  0.0706
32387W        W51134  29.515  31.255  25.724  0.4137 -0.2729  0.0954
32388W        W51135   6.100  13.558   3.683 -0.2752 -0.0668  0.1160
32389W        W51136   4.512  30.382   1.947  0.2067  0.3253  0.2253
32390W        W51137  11.366  14.895  26.084  0.1114  0.2612  0.1743
32391W        W51138   8.171  14.773   0.679 -0.4762  0.2359 -0.2632
32392W        W51139  26.090   1.991  16.246  0.1667  0.3528 -0.2997
32393W        W51140  29.973  11.463  24.957 -0.0865 -0.2253 -0.2381
32394W        W51141  28.164  20.878  15.006 -0.1950 -0.1523 -0.3348
32395W        W51142   8.485  13.956   1.533 -0.0485 -0.2894  0.0181
32396W        W51143  12.513  25.607   8.132  0.1517  0.1043 -0.1540
32397W        W51144  22.047   2.106   5.082 -0.0800 -0.0094  0.2665
32398W        W51145  13.817  14.414   3.714  0.5408 -0.1022 -0.1362
32399W        W51146  14.602   2.476   8.728 -0.1812 -0.2804  0.1266
32400W        W51147  23.703   2.104  13.760 -0.1310 -0.3101  0.0081
32401W        W51148  10.192  18.101   7.339  0.0086  0.2064 -0.2150
32402W        W51149  33.417  25.970  25.280 -0.1204  0.1193  0.3216
32403W        W51150  15.301  33.208   2.691 -0.1641  0.1190 -0.0703
32404W        W51151   1.465  26.378   2.244 -0.0833  0.1717 -0.0347
32405W        W51152  18.748  21.595  24.525  0.0214  0.0403  0.1011
32406W        W51153  14.874  10.159  19.034 -0.0828 -0.0338 -0.3710
32407W        W51154  18.633   9.120  10.587 -0.2337  0.0202  0.2231
32408W        W51155  13.159   1.646   3.582 -0.0688  0.2038  0.1141
32409W        W51156   2.442  25.660   3.737 -0.1008 -0.1077  0.0157
32410W        W51157   8.619   2.683  13.931  0.0250 -0.2067  0.1877
32411W        W51158  28.370   0.062  23.078  0.2606  0.1907 -0.0509
32412W        W51159  34.646  25.129  13.936  0.0397 -0.0499  0.2995
32413W        W51160  26.157   8.677  23.778  0.1332  0.0359 -0.2126
32414W        W51161  14.823  21.306  23.765  0.0346 -0.1409 -0.0744
32415W        W51162  24.247  32.718   0.267 -0.3101 -0.0932  0.3032
32416W        W51163  22.287  26.242  18.481 -0.1488  0.1834  0.0862
32417W        W51164  33.863  29.612  25.977 -0.1950  0.0486  0.0125
32418W        W51165  30.111  19.467   5.017  0.0102  0.3503  0.1063
32419W        W51166   5.311  27.362   0.639 -0.0800  0.1592  0.0121
32420W        W51167  19.139  14.688  10.167 -0.1106  0.1456  0.1094
32421W        W51168  13.315   0.570   9.169 -0.2983 -0.0703  0.0559
32422W        W51169  31.683  32.296  14.603  0.0646  0.0843 -0.0583
32423W        W51170   3.446  20.202  18.101  0.0844  0.1478  0.0517
32424W        W51171  25.183   5.765  24.579  0.1723  0.1352 -0.2538
32425W        W51172   0.594  32.871  22.414  0.1758 -0.1095  0.4930
32426W        W51173   5.295  22.226   0.209 -0.2374  0.3413 -0.0946
32427W        W51174  30.158  26.951  21.075  0.3357 -0.1951 -0.1178
32428W        W51175  14.131  27.972  14.343  0.4639 -0.0922  0.0209
32429W        W51176  28.907   3.561  13.030 -0.2867  0.0731  0.0480
32430W        W51177  34.565   3.412  24.135  0.0642 -0.0448 -0.1530
32431W        W51178  26.109   1.546  12.059  0.0081 -0.4294  0.0895
32432W        W51179   8.954   1.066  15.219 -0.2149  0.0346 -0.0731
32433W        W51180  26.350  34.708  11.704  0.2359  0.0135 -0.0690
32434W        W51181  28.581  19.934   9.395 -0.0513 -0.1593  0.1760
32435W        W51182  11.578   3.503  23.078 -0.0258 -0.2480  0.1889
32436W        W51183  21.977  20.097  17.588  0.0784 -0.2392  0.5652
32437W        W51184   4.872   5.996   4.672 -0.0305  0.0909  0.2022
32438W        W51185  27.703  23.130  17.406  0.3399 -0.1647 -0.1119
32439W        W51186  12.513  28.719   4.736  0.4402 -0.0311  0.0629
32440W        W51187  20.720   2.336  18.775  0.0397 -0.3168  0.4024
32441W        W51188  11.260  30.751  17.003  0.0600 -0.2890  0.0746
32442W        W51189   3.873  16.959   3.744  0.2440  0.0178 -0.1770
32443W        W51190   7.523   2.749   3.724  0.2633 -0.0245  0.1169
32444W        W51191  19.696   4.764   6.581  0.2417  0.0131 -0.0437
32445W        W51192   2.205  12.258  12.903  0.1709 -0.0762 -0.3912
32446W        W51193  14.073  28.897  11.406  0.4207 -0.1721  0.0782
32447W        W51194  31.585   1.175   5.172 -0.0768  0.3504  0.1948
32448W        W51195  23.931  30.941  24.122 -0.1108 -0.0924  0.0253
32449W        W51196  13.836   3.148   7.307  0.1007  0.1361  0.1875
32450W        W51197  13.387   7.472   9.470  0.1931  0.6355  0.0814
32451W        W51198  12.462  27.462  14.109  0.1852 -0.2242  0.3737
32452W        W51199  25.878  26.595  22.837 -0.3461 -0.0583  0.1744
32453W        W51200   2.513   6.842   3.935 -0.2761 -0.2326  0.3276
32454W        W51201  26.145   8.032  22.054  0.0196 -0.0909 -0.0852
32455W        W51202  13.358  16.604   9.732 -0.2504 -0.0316 -0.1005
32456W        W51203   9.388   9.407  21.788 -0.0850 -0.1684  0.0809
32457W        W51204  34.872  19.450  24.192 -0.0265  0.1012  0.1881
32458W        W51205   3.583  26.016   3.806 -0.2679  0.0214  0.2324
32459W        W51206   0.152  35.033   8.368  0.1517  0.1376 -0.0712
32460W        W51207   9.108   6.067   6.631 -0.0137 -0.1549 -0.0693
32461W        W51208  20.968   5.147  17.109  0.1684  0.1902  0.0131
32462W        W51209  11.748  30.506  21.381  0.1321 -0.1054 -0.0162
32463W        W51210  31.840  31.304  24.820  0.0738 -0.0462 -0.0700
32464W        W51211   7.504  15.506   6.524 -0.1435 -0.0384  0.0890
32465W        W51212  34.451  13.764  18.625 -0.1561  0.1092 -0.2649
32466W        W51213  23.138  24.787  22.905 -0.1170 -0.1173  0.0520
32467W        W51214  30.367   4.334  19.026 -0.1138 -0.1387 -0.1532
32468W        W51215   0.326  32.946   1.223  0.2376  0.0650 -0.1013
32469W        W51216   3.073  29.274  12.941  0.3803 -0.3010 -0.0141
32470W        W51217   1.836  30.285  22.370 -0.0200  0.0774  0.2075
32471W        W51218  12.615  22.198   1.782 -0.3447  0.3827  0.2005
32472W        W51219  19.190   3.621  20.763 -0.0965  0.0719 -0.2325
32473W        W51220  30.737   2.727  24.241 -0.1524  0.1106  0.3065
32474W        W51221  16.578  15.833  25.217  0.1984  0.0607 -0.1079
32475W        W51222  28.721  20.904  13.039  0.2951 -0.2680  0.1331
32476W        W51223  12.920  13.174  20.724  0.2244 -0.0761 -0.0287
32477W        W51224  16.047  22.817   4.148 -0.3533 -0.3121  0.0355
32478W        W51225  10.859  15.522  13.242 -0.1176  0.0800  0.1644
32479W        W51226  32.305  31.286  16.057 -0.4360  0.1256  0.0402
32480W        W51227  10.170  21.633  22.199 -0.0988 -0.0979  0.1839
32481W        W51228   3.310   8.812  20.357  0.3365 -0.3662  0.1728
32482W        W51229   7.711  10.378  20.800 -0.0788 -0.0358 -0.1784
32483W        W51230  22.001   4.972   2.665  0.2612 -0.0339 -0.2026
32484W        W51231  33.418  27.580  15.474 -0.0420 -0.1765  0.2611
32485W        W51232  32.016   6.537  10.274 -0.2080  0.1587  0.3309
32486W        W51233  10.228  31.848  11.136  0.2350 -0.1991  0.1635
32487W        W51234  32.948   3.313  17.479  0.2387 -0.0778 -0.0555
32488W        W51235  15.496   5.084   3.596  0.0124 -0.0678  0.0066
32489W        W51236   6.236  33.473  25.460  0.2882 -0.0438 -0.1122
32490W        W51237   7.348   6.831  10.193  0.1787  0.0246  0.2407
32491W        W51238   7.405  12.892  25.836  0.0568  0.0312 -0.1093
32492W        W51239  12.600  34.067  10.278 -0.2332 -0.0210 -0.0362
32493W        W51240  17.566  11.968  10.684 -0.0075 -0.1228 -0.0570
32494W        W51241   8.861  13.016   5.986  0.0600  0.4294  0.0826
32495W        W51242   5.212  27.815   0.792  0.2306  0.0546 -0.2582
32496W        W51243  17.980  29.075   0.263  0.2392  0.0077  0.0614
32497W        W51244  13.970  21.369  17.353  0.1905 -0.3310  0.1860
32498W        W51245   6.040  17.359   7.160 -0.1765  0.0475 -0.0473
32499W        W51246   8.614  21.175   6.663 -0.0713  0.0590  0.2200
32500W        W51247  15.815  27.720  12.680  0.1106 -0.1022 -0.3426
32501W        W51248  18.567  11.775  10.579  0.2314  0.1450 -0.0930
32502W        W51249  35.246  14.852  21.842 -0.3397 -0.4626  0.2263
32503W        W51250  10.271  16.013  20.130  0.0032 -0.0294  0.2727
32504W        W51251  19.678  28.146   2.848  0.3598 -0.3195 -0.0281
32505W        W51252   1.616   6.452  18.506 -0.1870  0.0990  0.1075
32506W        W51253   8.612   9.418  18.915 -0.1388 -0.1580 -0.3038
32507W        W51254  14.250  23.065  13.742  0.2309  0.0509  0.0211
32508W        W51255  25.913  13.602  16.725  0.2407  0.0758  0.1511
32509W        W51256  16.826  28.304   2.629  0.1493 -0.1391  0.3180
32510W        W51257  19.361   9.280   2.048 -0.0020  0.1736  0.0510
32511W        W51258  31.051  34.216   1.427  0.0843  0.4538 -0.1117
32512W        W51259  13.190   6.629  21.745 -0.0811  0.1305  0.1216
32513W        W51260  27.344  11.761   0.085  0.4340 -0.1229  0.1651
32514W        W51261  17.454  20.299  20.821 -0.1601 -0.0603  0.0241
32515W        W51262   8.912   3.547  21.050  0.1027  0.2842  0.1281
32516W        W51263  16.313   3.384   0.030 -0.0050  0.3095  0.3388
32517W        W51264  13.846  27.060   8.367 -0.0680 -0.0310  0.0620
32518W        W51265  31.460  25.817  10.320  0.1227 -0.0337 -0.2012
32519W        W51266  17.869  23.993  14.086 -0.1278 -0.0164 -0.3766
32520W        W51267  14.509  23.631  15.275  0.2463 -0.2158 -0.1192
32521W        W51268  29.107  17.830   7.484  0.1413  0.0214 -0.1874
32522W        W51269  30.807  13.175   9.346 -0.1226  0.2468 -0.0264
32523W        W51270  34.621  14.973  21.609 -0.0849  0.1339  0.2868
32524W        W51271  15.675  32.859  23.607  0.0134  0.0865  0.0430
32525W        W51272  28.775  16.878  15.978 -0.3254  0.1851 -0.0847
32526W        W51273  14.615  15.643  19.767 -0.1652 -0.0793 -0.0940
32527W        W51274  16.583  18.471  10.983 -0.1949 -0.1427  0.1697
32528W        W51275  12.640  18.459   7.957 -0.1751  0.2088 -0.2281
32529W        W51276  25.754  18.720  12.843  0.0967  0.0965 -0.3367
32530W        W51277  19.960  19.462   5.590  0.3183  0.2971 -0.0268
32531W        W51278  15.949  28.579  10.505  0.1518  0.4109  0.1951
32532W        W51279  13.929  21.679  12.338 -0.1231  0.1252  0.1292
32533W        W51280   8.262   2.728  21.707 -0.3317  0.1801 -0.1116
32534W        W51281   0.280   9.715  16.991 -0.0060  0.1337 -0.1048
32535W        W51282   7.002  19.219   3.175 -0.1071 -0.1773 -0.0112
32536W        W51283  11.767  14.264   8.000 -0.0092  0.0982  0.0661
32537W        W51284  17.952  34.380  19.580 -0.2785 -0.0606 -0.0433
32538W        W51285   3.690  31.491   2.484 -0.1369 -0.0780  0.1163
32539W        W51286  18.358  15.499   2.649 -0.0379  0.2061 -0.1534
32540W        W51287   5.049  28.628   3.961  0.0200 -0.3209 -0.1179
32541W        W51288  35.138   0.665  22.355  0.1845  0.0524 -0.1606
32542W        W51289  15.489  21.590  15.794  0.3224  0.0190 -0.1375
32543W        W51290   5.408  18.458   6.349 -0.0653 -0.0747 -0.0274
32544W        W51291   0.386   2.128   4.356 -0.0739  0.1486 -0.0377
32545W        W51292   5.869   5.501  11.392  0.1127  0.0950  0.0640
32546W        W51293   2.624   8.475   4.323  0.2319  0.1766 -0.0335
32547W        W51294  14.030  30.221   8.843 -0.0756 -0.1024 -0.2375
32548W        W51295  33.920  32.887  16.563  0.1543  0.0543 -0.1274
32549W        W51296   3.150  16.028  18.596  0.2553  0.1633  0.0176
32550W        W51297  25.360  10.437  17.093 -0.1747 -0.1478 -0.0031
32551W        W51298  13.499   1.819   9.162 -0.0449  0.0893  0.1237
32552W        W51299  20.902  33.259   1.911  0.0411  0.1037 -0.1332
32553W        W51300  18.505  21.122  22.542  0.0256 -0.2024 -0.1981
32554W        W51301  30.914  28.374   1.992  0.3668 -0.1817  0.0082
32555W        W51302  12.185  29.759  13.507 -0.0093  0.1444 -0.0345
32556W        W51303  23.606   1.899  13.287  0.1488 -0.0208 -0.1348
32557W        W51304  16.208   2.842   6.916  0.1790 -0.1466 -0.0054
32558W        W51305  32.482  14.482  13.686  0.2332 -0.2329 -0.0657
32559W        W51306  21.660  19.025  16.565 -0.1315 -0.2762  0.3038
32560W        W51307  17.641   4.263   9.797  0.1120 -0.0537 -0.3798
32561W        W51308  29.158   9.873  25.827  0.1615 -0.0004 -0.2262
32562W        W51309  30.512  15.168  21.882  0.2051 -0.2963  0.1494
32563W        W51310  28.955  12.245  23.753  0.2291  0.2314  0.1268
32564W        W51311  15.447   8.713   3.491 -0.1356 -0.0694  0.1028
32565W        W51312   8.821  23.339   8.894  0.0423  0.2755 -0.0544
32566W        W51313  11.817  18.588   5.869  0.2945  0.0180  0.0037
32567W        W51314  33.157  28.771   3.115  0.1262 -0.2341 -0.2510
32568W        W51315  19.301  27.791  20.658  0.1006 -0.3394 -0.1066
32569W        W51316  33.988  29.785  24.081 -0.1970  0.0274 -0.3571
32570W        W51317   3.934  29.530   3.988 -0.0983 -0.4825 -0.1702
32571W        W51318  27.364  17.437  11.571 -0.1983  0.2893  0.1761
32572W        W51319  10.814  32.368   7.533  0.2811 -0.3085 -0.1285
32573W        W51320  29.420   9.052  13.512  0.2476 -0.2233 -0.0624
32574W        W51321  15.493   7.347  20.187  0.0770 -0.2551  0.0590
32575W        W51322  31.823  21.330  20.020  0.2463  0.2266 -0.0021
32576W        W51323  14.517  23.194  23.411 -0.0750 -0.0894  0.2101
32577W        W51324   7.606  25.274  15.593  0.1826  0.1937 -0.2515
32578W        W51325  25.795  20.463   7.864  0.1731  0.3021  0.1013
32579W        W51326   3.368  34.935   2.952 -0.2343 -0.3161 -0.1054
32580W        W51327  33.335  13.059  15.741  0.1589  0.2757 -0.0259
32581W        W51328   4.141  27.502  22.556 -0.1105  0.3018  0.1982
32582W        W51329  18.012  30.967  22.566 -0.2390 -0.1818  0.1476
32583W        W51330   6.010  29.563   0.498  0.0880 -0.1584 -0.0783
32584W        W51331  23.542  29.857  17.791  0.3729 -0.2542 -0.1439
32585W        W51332  26.437  34.003  15.841  0.0299 -0.1816 -0.2387
32586W        W51333   2.351  30.905  25.286  0.1532  0.0213  0.0760
32587W        W51334   7.866   3.088   3.559 -0.0996 -0.2011 -0.1185
32588W        W51335  18.660  21.719   0.670  0.1787 -0.4351 -0.1267
32589W        W51336  21.439  27.238  25.422 -0.1281  0.0208  0.0564
32590W        W51337  19.414   0.696   6.956 -0.0368  0.2504  0.1253
32591W        W51338  33.722   3.737  19.638  0.2014  0.0201 -0.4305
32592W        W51339  12.804  32.221  23.742 -0.3570  0.3264  0.0655
32593W        W51340  21.831   0.466   4.222  0.1396  0.1312 -0.0980
32594W        W51341  24.623  16.010   1.554  0.1558  0.0008 -0.1007
32595W        W51342  34.340  13.904  12.633 -0.0742  0.0870  0.0645
32596W        W51343   5.583  23.173  22.259  0.2589  0.2117 -0.0089
32597W        W51344  30.880  19.073   7.058 -0.2359 -0.1501  0.1920
32598W        W51345  27.391   3.852  11.573 -0.3431 -0.2336 -0.1976
32599W        W51346  19.432   5.718  19.067  0.0947  0.1715 -0.2589
32600W        W51347  15.580  33.480  23.396 -0.1591  0.2205 -0.4942
32601W        W51348  12.992   7.363   1.641 -0.2858  0.1192 -0.0898
32602W        W51349  28.408  17.145  16.797  0.0238  0.1003 -0.1043
32603W        W51350  33.257  12.827  14.559  0.0699 -0.0533 -0.0788
32604W        W51351  34.262  12.415  24.118  0.5144 -0.0448  0.3213
32605W        W51352  10.718   6.788  23.013  0.1186 -0.0853  0.0683
32606W        W51353  22.923  10.414   0.119  0.0294  0.0288  0.1261
32607W        W51354   8.030   7.305  18.767  0.0656  0.0030 -0.1769
32608W        W51355  17.278  17.429   5.081  0.0407 -0.1658  0.0446
32609W        W51356  25.626   1.326  24.222 -0.1006  0.0019 -0.2928
32610W        W51357  32.308   1.901  20.271  0.0546 -0.0696  0.1295
32611W        W51358   6.878   9.275  24.104 -0.0640  0.2219 -0.1117
32612W        W51359   6.723  18.631   9.546 -0.1829 -0.0672 -0.0492
32613W        W51360   8.184  23.712  23.483  0.1130 -0.1010 -0.0611
32614W        W51361   7.325  10.522   5.498 -0.1509 -0.2602  0.2471
32615W        W51362   9.140  20.538   6.857  0.1516 -0.3436 -0.1867
32616W        W51363  20.539  14.333   1.940  0.2442  0.0145 -0.0154
32617W        W51364  31.241  32.073  20.266 -0.0258  0.0165 -0.0291
32618W        W51365  29.238  26.280  24.174  0.2997  0.0415  0.1130
32619W        W51366  35.282  13.689  13.861  0.0083  0.0862 -0.4578
32620W        W51367  29.328  14.483  11.739 -0.1494 -0.4425  0.2471
32621W        W51368  13.854  10.884   4.189 -0.1306  0.2470  0.0965
32622W        W51369  34.385   2.536   5.153  0.0977 -0.3795  0.1323
32623W        W51370  15.847   5.710  20.356 -0.0251  0.0964  0.3436
32624W        W51371  16.502  30.635   8.273 -0.1409  0.1239  0.1464
32625W        W51372   5.208  33.407   8.992  0.1842 -0.3943 -0.1559
32626W        W51373  23.043  27.235  13.863 -0.1475 -0.0905  0.4712
32627W        W51374  21.536   8.119   2.840 -0.2344  0.0434 -0.0504
32628W        W51375  20.352   2.022   6.297 -0.2248 -0.1277 -0.0708
32629W        W51376  22.047   6.131   5.196  0.1577 -0.2333 -0.0978
32630W        W51377  27.861   3.208  14.960  0.1387  0.0364 -0.0727
32631W        W51378   9.746  16.166   9.820  0.0346  0.0499 -0.0789
32632W        W51379  13.696  13.999   1.342  0.0783  0.0677  0.0260
32633W        W51380  26.697   7.237  25.700  0.1972  0.2012 -0.0569
32634W        W51381   2.840  19.585  14.927 -0.1386  0.1508 -0.1564
32635W        W51382   9.387   6.700  20.769 -0.0294 -0.0873  0.2408
32636W        W51383  18.724   5.293  24.836  0.0302  0.1263 -0.4726
32637W        W51384  30.836  21.923  14.380 -0.1174 -0.1370 -0.1901
32638W        W51385   2.737  19.886  22.012  0.0100  0.1849  0.0992
32639W        W51386  19.660  13.313  17.625  0.1834 -0.0404  0.0661
32640W        W51387   9.790  34.878  25.108 -0.1405 -0.0501  0.0402
32641W        W51388  33.651  10.749  10.357 -0.0131  0.0677 -0.0605
32642W        W51389  22.153   8.391  19.580  0.0264  0.2059 -0.0412
32643W        W51390  31.459  34.294  12.558  0.0491 -0.1067 -0.0889
32644W        W51391  34.739   6.071  19.510  0.2613 -0.2764  0.0301
32645W        W51392  19.100  18.461  23.119 -0.0875  0.0412  0.0033
32646W        W51393   0.223  21.871  18.991 -0.2519 -0.1006  0.0289
32647W        W51394   7.793  33.411  14.712 -0.2359 -0.3696 -0.3021
32648W        W51395   6.902  18.522   8.187  0.1504  0.0965 -0.0497
32649W        W51396  33.401   1.221  15.076 -0.1351 -0.1173 -0.0010
32650W        W51397  13.105  27.175  25.445 -0.2752 -0.2193  0.0350
32651W        W51398   5.764  34.985  24.763  0.3575  0.2053 -0.0436
32652W        W51399   6.561  34.504  10.398 -0.0162 -0.1911 -0.2452
32653W        W51400  12.874  19.874   9.783  0.0773  0.2371  0.1103
32654W        W51401   9.934  27.442  15.386 -0.0433  0.2905  0.0907
32655W        W51402   6.687   9.739   7.314  0.3066 -0.0809 -0.4260
32656W        W51403   2.708  22.675  17.228 -0.3958  0.1617  0.0592
32657W        W51404   5.649  20.326   0.518  0.4765 -0.1574  0.3624
32658W        W51405   0.537  23.329  17.267 -0.0058  0.1447 -0.1105
32659W        W51406  24.726  17.207  24.258 -0.0777 -0.0410 -0.0225
32660W        W51407  16.422  30.847  11.880 -0.0961 -0.0630 -0.0030
32661W        W51408   3.773   0.695  19.900 -0.3503  0.3478  0.1800
32662W        W51409   6.152   7.928  24.917  0.0288 -0.0126  0.0689
32663W        W51410  34.970  28.097  15.775  0.2050 -0.0995  0.0687
32664W        W51411   1.641   9.931   2.968  0.1724 -0.2949  0.0369
32665W        W51412  17.444  24.085   5.968 -0.1360 -0.3095  0.3434
32666W        W51413   7.681  23.878   2.095  0.1285  0.3716  0.1108
32667W        W51414  13.118  10.000   0.137 -0.3310  0.0225 -0.1159
32668W        W51415   8.624  28.591  11.404  0.0557  0.0976 -0.4249
32669W        W51416  10.981  11.524  23.030  0.0504 -0.1300 -0.2523
32670W        W51417   5.848   7.678   1.468  0.0237 -0.0028  0.0286
32671W        W51418   6.176  29.632   6.206  0.0241  0.0133 -0.2522
32672W        W51419  32.785   8.737  14.527  0.1492  0.0223  0.0033
32673W        W51420  30.339  17.788  24.458  0.1245 -0.0978  0.1151
32674W        W51421  28.270  20.608  17.978 -0.2399  0.0213  0.1312
32675W        W51422  19.344  19.768  10.813  0.0577  0.0340  0.4807
32676W        W51423  35.000  18.542  20.077  0.0229  0.1727 -0.0811
32677W        W51424  10.648  18.783  26.021  0.0213 -0.3398  0.1841
32678W        W51425   2.689   8.631  18.767  0.1223  0.0928  0.4295
32679W        W51426  33.895  16.730   9.194  0.2919 -0.0797 -0.0801
32680W        W51427   1.145   7.507   0.731  0.0129 -0.0174  0.0685
32681W        W51428  18.560  13.609   2.356  0.1676  0.3080 -0.0263
32682W        W51429  15.663  23.125   7.675  0.0009 -0.0431 -0.0440
32683W        W51430  23.867  34.371   2.336  0.0541 -0.0718  0.1022
32684W        W51431  34.234  27.616  18.789  0.0719  0.1445 -0.4201
32685W        W51432   9.999  30.880  10.393 -0.0628 -0.3131  0.2913
32686W        W51433  33.876  17.941  19.747  0.0831 -0.0299  0.1265
32687W        W51434   7.408  29.013  22.835  0.1321  0.0793  0.1327
32688W        W51435   2.749  24.342  26.232  0.1109  0.1063  0.0451
32689W        W51436   4.472  26.838  25.450 -0.0986 -0.3489 -0.1396
32690W        W51437   3.012  34.672  10.231 -0.2249  0.4134  0.1578
32691W        W51438  31.559  34.847  17.120  0.3128  0.2259  0.0690
32692W        W51439  13.861  24.367  11.709 -0.0509 -0.2808 -0.0367
32693W        W51440  22.975  34.065  25.413  0.1769 -0.1485  0.2164
32694W        W51441  22.991  16.796  22.323  0.3703  0.2113 -0.0799
32695W        W51442  14.957  17.960   2.738  0.1285 -0.1158 -0.0887
32696W        W51443  28.932  32.705  11.781 -0.1754  0.1451 -0.1122
32697W        W51444  20.779  33.783  23.015 -0.0261  0.0514  0.1218
32698W        W51445  15.130   9.762  11.992  0.0097 -0.0129 -0.4681
32699W        W51446  27.383  32.942  26.224 -0.0017 -0.0315 -0.1710
32700W        W51447  25.256  21.056   9.102 -0.2760  0.1082 -0.0227
32701W        W51448  15.415  27.408  25.650  0.0959  0.0783 -0.3234
32702W        W51449  15.426   2.473   5.217  0.0061 -0.4501 -0.0385
32703W        W51450  22.461  32.132  20.289  0.4869 -0.0402  0.1411
32704W        W51451  17.500  14.964  23.189 -0.2608  0.3408 -0.2576
32705W        W51452   0.102  17.036  15.089 -0.2802  0.0655 -0.0054
32706W        W51453  14.645  20.792  15.528 -0.0984  0.2452 -0.4245
32707W        W51454  30.864   9.710  18.998  0.1108  0.1891 -0.1267
32708W        W51455  28.656  14.446  19.584  0.2060 -0.1538 -0.2408
32709W        W51456   5.821  31.223  13.849 -0.0190  0.2846  0.0053
32710W        W51457  17.141  22.186  25.253  0.1923 -0.2547 -0.0784
32711W        W51458  34.202  14.350  13.215  0.0683 -0.2001 -0.1277
32712W        W51459  29.505  19.759   6.188  0.1635  0.0963 -0.0476
32713W        W51460  12.619  12.190   6.630 -0.0052  0.0524 -0.0342
32714W        W51461   0.307  16.907  22.938 -0.0958 -0.0370 -0.2456
32715W        W51462  35.106   3.123  16.104 -0.2058  0.3928  0.3481
32716W        W51463  16.175   2.986   0.395  0.0506  0.0935 -0.1822
32717W        W51464  15.290  28.997  24.574  0.0425 -0.1299 -0.2477
32718W        W51465  19.920  30.400  19.965 -0.0470 -0.0371 -0.3200
32719W        W51466  12.422   7.651  12.075 -0.0103  0.4210 -0.1098
32720W        W51467  12.826  23.958   2.344  0.0533 -0.0251  0.0182
32721W        W51468  34.149  19.445  24.562  0.3822 -0.1102  0.0736
32722W        W51469  23.016  29.625  14.829  0.1749  0.2257  0.0176
32723W        W51470  16.548  27.060   2.487  0.0070  0.0074 -0.1756
32724W        W51471  11.540  22.703  17.514 -0.0731 -0.1419  0.1419
32725W        W51472   4.141  27.923   2.690  0.0008  0.1211 -0.0225
32726W        W51473  25.916  11.743  23.122 -0.1656  0.2478 -0.0448
32727W        W51474  21.635  20.512  22.258 -0.2020  0.0622  0.0726
32728W        W51475  14.551  16.699  20.154 -0.3109 -0.3370  0.2681
32729W        W51476  12.625  11.900   7.884  0.2634 -0.2995  0.1392
32730W        W51477  17.606  34.901  25.030  0.2595 -0.0271  0.1522
32731W        W51478  16.297  12.046  25.665  0.0967 -0.3765  0.3933
32732W        W51479   7.656  21.537   1.906 -0.2224 -0.2080  0.0657
32733W        W51480  14.077  17.383   1.040  0.1237 -0.1722  0.0293
32734W        W51481  19.571  13.271   0.644 -0.0214  0.0658 -0.7065
32735W        W51482   3.998   4.702  18.601  0.0235  0.0538 -0.1752
32736W        W51483  29.297  32.989   4.693 -0.1146 -0.0036 -0.1580
32737W        W51484   7.518  11.631  23.168 -0.2551  0.1893 -0.1523
32738W        W51485   6.029  31.955  22.322 -0.1313 -0.0448 -0.0807
32739W        W51486  13.647  30.751  23.082 -0.0854  0.3012 -0.3782
32740W        W51487  21.726  21.907   1.702  0.0373  0.3934  0.1813
32741W        W51488  28.385   8.009   0.843 -0.1759  0.2318 -0.4813
32742W        W51489  26.562  22.246   9.577  0.0247 -0.2532 -0.2210
32743W        W51490  31.540  13.362  14.676 -0.2458  0.0114 -0.1029
32744W        W51491  24.257  27.280  25.793 -0.0316  0.0154 -0.0844
32745W        W51492  17.238  22.188  23.403  0.0732  0.1729  0.2148
32746W        W51493  10.211  10.890  11.760  0.1165  0.2550 -0.0010
32747W        W51494  30.019  23.667  16.961 -0.1638  0.0322  0.0981
32748W        W51495  28.589   3.946  23.125  0.1290 -0.0276 -0.0217
32749W        W51496   1.830  23.246  25.955 -0.1502  0.1581  0.1549
32750W        W51497  11.299  16.389   9.944  0.1399 -0.0932  0.0079
32751W        W51498   7.542  23.541  24.102  0.0678  0.1823 -0.2671
32752W        W51499   8.309  30.604   2.255  0.2055 -0.1595 -0.3759
32753W        W51500  19.221  20.892  20.063  0.6816 -0.0212 -0.0315
32754W        W51501  21.776   7.061  22.422 -0.2060  0.1666 -0.1312
32755W        W51502   6.832  31.580   3.378  0.0400 -0.1334 -0.3605
32756W        W51503  30.646   3.894  25.569  0.0571  0.0221  0.0111
32757W        W51504  18.881  25.570  10.359 -0.0217  0.1054 -0.0341
32758W        W51505  31.999  29.542  21.283  0.0135 -0.0677  0.3153
32759W        W51506  12.021  19.346   3.679  0.3629 -0.0479  0.2875
32760W        W51507   5.420   3.893   4.866  0.0659  0.1902  0.1189
32761W        W51508  30.825   9.687  21.846  0.1760  0.3258 -0.0966
32762W        W51509  19.589  22.222   2.455  0.1576  0.0050 -0.1021
32763W        W51510  33.928  29.078  22.709  0.1885 -0.0302 -0.1441
32764W        W51511  10.296   6.500  21.371  0.1231 -0.0800 -0.2883
32765W        W51512   2.511   8.354  26.188  0.1565  0.2353 -0.4001
32766W        W51513  20.308  13.955   9.514  0.0948 -0.3297  0.0442
32767W        W51514  22.812  28.279  23.460  0.2564  0.3815  0.3853
32768W        W51515   4.828  32.160   5.401 -0.0861 -0.0931 -0.3835
32769W        W51516  32.475  32.353  21.077 -0.1306 -0.0703 -0.0373
32770W        W51517   8.379  22.739   1.396  0.0470 -0.0040  0.2091
32771W        W51518  29.731  34.179  22.437  0.2374  0.0769 -0.2393
32772W        W51519  33.611  28.766   0.389 -0.2426  0.4158  0.0478
32773W        W51520  29.691  12.422  13.503  0.3631  0.1565  0.1914
32774W        W51521   6.385  25.526   4.661 -0.2323 -0.1128 -0.0087
32775W        W51522  15.151  14.357  24.317 -0.0382  0.0053 -0.0352
32776W        W51523   4.047  31.596   8.513 -0.2439 -0.1638 -0.2464
32777W        W51524  17.820  31.321  23.962 -0.1541  0.1667  0.5890
32778W        W51525  11.832   3.952  13.174  0.0964  0.1652 -0.2629
32779W        W51526  17.028  12.163  21.398 -0.0966  0.4121 -0.2271
32780W        W51527   8.338  28.841  12.765 -0.0227 -0.1538 -0.2398
32781W        W51528  12.726  10.583  21.200  0.1493 -0.0965  0.1968
32782W        W51529  25.934  20.125  25.095  0.1787 -0.2674  0.0736
32783W        W51530  30.673  17.284  14.669 -0.0960 -0.1849  0.1269
32784W        W51531  31.356  19.812  14.458  0.2241 -0.1817 -0.0761
32785W        W51532  15.916   6.676   3.805  0.0556 -0.0835  0.1153
32786W        W51533  10.857  14.040  24.495  0.0998  0.1627  0.4060
32787W        W51534  22.780  32.512  22.874 -0.2194  0.0568 -0.2153
32788W        W51535  13.736  17.167  23.104  0.1227  0.1168 -0.0047
32789W        W51536  17.205  11.870   9.920  0.2204  0.0588 -0.1281
32790W        W51537   5.144  23.930  10.696 -0.0143 -0.0786  0.3748
32791W        W51538  14.082  14.156  11.071  0.1001 -0.1573  0.1039
32792W        W51539  16.664  23.355   1.103  0.0211 -0.2841 -0.1660
32793W        W51540  29.556  20.833  10.100 -0.2091  0.1469  0.2512
32794W        W51541   5.940  31.660  21.513  0.0904  0.1628  0.1064
32795W        W51542  33.553  22.125   7.598  0.0270 -0.0029  0.2604
32796W        W51543  30.120   3.572   4.489  0.0382  0.1389 -0.2243
32797W        W51544  34.720  33.561  17.536  0.1903  0.3251 -0.1363
32798W        W51545  22.279  10.634  24.719 -0.0369  0.0069 -0.0178
32799W        W51546  24.779  25.043  20.321 -0.2684 -0.0630  0.0855
32800W        W51547  15.394  22.482  12.102 -0.0423  0.0986  0.1668
32801W        W51548   6.584   8.621   8.539  0.2061  0.0723 -0.0142
32802W        W51549  24.240  31.516  15.271  0.1274 -0.0542  0.1045
32803W        W51550  27.647  15.302  23.455  0.1068 -0.1024  0.2340
32804W        W51551  13.605  15.872  13.896 -0.2366  0.1260  0.2277
32805W        W51552  11.560  15.505   7.865 -0.4151 -0.0499  0.1863
32806W        W51553  19.114   1.800   6.253 -0.1407  0.0426  0.0609
32807W        W51554  28.858  33.963   1.320 -0.3057 -0.1353  0.3668
32808W        W51555  18.652  31.950   7.936 -0.4280  0.1014  0.1461
32809W        W51556  28.585  17.926   4.646 -0.1963  0.2966 -0.3982
32810W        W51557  34.255  14.552  24.376 -0.0191 -0.2072 -0.2703
32811W        W51558   1.980   5.439  24.568  0.4908  0.1517  0.2673
32812W        W51559   0.282   0.486  14.482 -0.0013 -0.1034  0.1913
32813W        W51560  33.579  19.404  15.030  0.0721  0.3335  0.1370
32814W        W51561  11.719  32.662   0.712  0.2260  0.0244 -0.0988
32815W        W51562   6.992  22.243   4.432  0.0526  0.1977 -0.0708
32816W        W51563  19.175   3.142  23.570  0.3887  0.2933  0.1306
32817W        W51564  31.729  13.327  19.983  0.0772  0.1657  0.0022
32818W        W51565   3.955  24.546   3.864 -0.3189  0.1477 -0.1965
32819W        W51566  31.975   3.367  20.946  0.0829 -0.2970 -0.0828
32820W        W51567  29.265  24.030  26.013 -0.3109  0.1478 -0.0193
32821W        W51568  21.958  28.375  14.073 -0.0434 -0.0940  0.0258
32822W        W51569   2.865  22.056   0.738  0.1458  0.1604  0.2485
32823W        W51570  22.198   7.944  25.482  0.1359 -0.1771 -0.1437
32824W        W51571  26.118  10.762  22.905 -0.1254 -0.1083  0.4337
32825W        W51572  29.088  23.934  13.727 -0.3435  0.0518 -0.0817
32826W        W51573  30.432  34.087   4.587  0.4492 -0.2860  0.0536
32827W        W51574   1.203   5.152   0.962 -0.0813  0.2224 -0.1276
32828W        W51575  26.752   2.055  14.093  0.2044 -0.2247 -0.2553
32829W        W51576   8.648   1.550   0.190  0.2120  0.2682 -0.2924
32830W        W51577  22.701   4.603   7.205  0.1401  0.2505  0.1357
32831W        W51578  12.502  15.941   1.908  0.0938  0.0360  0.1850
32832W        W51579  13.912  32.944  21.014  0.2489 -0.0533  0.1182
32833W        W51580   0.841  34.143   1.567  0.0794 -0.0223  0.2090
32834W        W51581  13.551  24.656   0.876  0.1712 -0.1612 -0.4311
32835W        W51582   1.354  11.095  15.040 -0.0660  0.1221  0.0089
32836W        W51583  17.216   0.412  24.833 -0.0030  0.1124 -0.0081
32837W        W51584  31.870  21.016  18.758  0.0538  0.2394  0.1800
32838W        W51585  13.293   7.642   1.991  0.1477  0.3604  0.0770
32839W        W51586   7.029  33.078  13.459  0.0948  0.1375 -0.0421
32840W        W51587  19.057   6.070   0.805 -0.0814  0.0113 -0.2610
32841W        W51588  16.165  28.278   5.239 -0.1716  0.1155 -0.1054
32842W        W51589  32.619  29.819  12.003  0.1936  0.2373  0.0496
32843W        W51590  23.331   6.002   1.052 -0.2865  0.3758 -0.0452
32844W        W51591  14.384  29.901   6.728 -0.1481 -0.1040  0.1516
32845W        W51592  22.977  29.657  16.452  0.0994  0.0302 -0.0320
32846W        W51593  23.305  33.690  25.621  0.0229  0.1168  0.1617
32847W        W51594  16.405  19.744  21.952 -0.1033  0.0417  0.3800
32848W        W51595   9.308  31.430   4.197 -0.3776 -0.0980 -0.0904
32849W        W51596  21.647   2.734  15.776 -0.1192 -0.0413 -0.0851
32850W        W51597   3.197  27.554   0.920 -0.1274 -0.0793 -0.1785
32851W        W51598   7.179  31.724   2.550 -0.1984  0.2478  0.0458
32852W        W51599  15.599  14.300  22.140  0.1544  0.5179  0.0404
32853W        W51600  11.721  15.054  23.199  0.2298  0.1136  0.2816
32854W        W51601   5.918   0.521  24.625  0.1038  0.2964  0.2784
32855W        W51602  18.462  33.599   6.061 -0.0611 -0.1129  0.0312
32856W        W51603   0.068  22.873  20.138 -0.1432 -0.1934  0.0673
32857W        W51604  33.399  18.275  25.724 -0.0015 -0.0876 -0.1048
32858W        W51605  27.776  23.078  11.658 -0.1750 -0.0670 -0.1041
32859W        W51606  10.763   6.581  12.408  0.0784 -0.0104  0.1483
32860W        W51607  16.540   0.918   8.079 -0.1771  0.0384  0.1027
32861W        W51608  30.356   2.151  16.855 -0.0791  0.2374  0.0478
32862W        W51609  32.705   4.811  17.062  0.0573 -0.3757 -0.2774
32863W        W51610  17.245  24.537   3.838  0.1288  0.0753 -0.2855
32864W        W51611  27.082  21.079   6.200 -0.0119  0.1082  0.2460
32865W        W51612   4.494  33.296  12.580 -0.0376 -0.1787 -0.0820
32866W        W51613  17.676  20.982   9.277 -0.1091  0.2051  0.2994
32867W        W51614  12.107  24.667   5.204 -0.1120  0.2038 -0.1222
32868W        W51615  19.137   0.306  18.324  0.1670  0.0661  0.0388
32869W        W51616   6.710  13.533  10.058  0.0667  0.3124 -0.1881
32870W        W51617   6.197   7.224  11.263  0.0321 -0.2150  0.0544
32871W        W51618   5.131  30.600  20.859  0.0146  0.1588  0.0521
32872W        W51619  18.322  10.002   3.925 -0.0155 -0.3330  0.0008
32873W        W51620  23.648  15.860  11.773  0.1289  0.1488 -0.1093
32874W        W51621   3.481  10.478   1.792 -0.0746 -0.1572  0.0205
32875W        W51622  16.193  18.475   0.945 -0.1885 -0.0109 -0.4533
32876W        W51623  28.471   6.197  21.574  0.0757  0.0624 -0.2057
32877W        W51624   4.546  33.001   6.827 -0.0784  0.2296 -0.2173
32878W        W51625  26.012  29.821  17.952 -0.1105 -0.2053  0.1439
32879W        W51626   0.562  24.403   2.765 -0.0239 -0.0952  0.1605
32880W        W51627  34.052   5.236  21.939 -0.3891 -0.0229 -0.3075
32881W        W51628  22.871  27.025  26.145  0.1691  0.2080 -0.2000
32882W        W51629   3.513  22.533   5.309 -0.1420  0.0084  0.0294
32883W        W51630  31.487  35.230  18.199 -0.0289 -0.0580  0.3501
32884W        W51631  33.071  20.989  15.685 -0.3048  0.1498  0.1603
32885W        W51632  15.568   3.599  22.170  0.1738  0.1816  0.1127
32886W        W51633   5.368  20.247   2.484  0.0607  0.1578 -0.0630
32887W        W51634  26.612  19.174  11.476 -0.1282 -0.2944  0.1513
32888W        W51635   5.581  34.612  13.041  0.0081 -0.1284  0.0959
32889W        W51636  32.457  26.893  10.861  0.1416 -0.0066  0.1052
32890W        W51637   9.358   6.696   2.987  0.0265 -0.0821 -0.0265
32891W        W51638   4.280  31.064   3.270 -0.1799  0.1296 -0.0885
32892W        W51639   7.669  26.555  12.066  0.1196 -0.0652  0.3880
32893W        W51640   4.312  29.273  24.849 -0.1384 -0.1900 -0.0850
32894W        W51641   6.612  17.597  26.080  0.2793 -0.1333 -0.2459
32895W        W51642   5.008  12.320   3.733  0.0701  0.5476 -0.1035
32896W        W51643   5.300  12.542   2.049  0.4169 -0.0931  0.1439
32897W        W51644  35.363  30.258  18.984  0.0318 -0.2137  0.0375
32898W        W51645   9.680  30.274  11.095 -0.2831  0.1562 -0.0522
32899W        W51646  24.412   7.605  12.975 -0.0718  0.1640  0.1528
32900W        W51647  26.394  26.873  18.564  0.2899 -0.2361 -0.0352
32901W        W51648   2.670   9.274   6.683  0.2838 -0.2146  0.0445
32902W        W51649   3.764  29.555  24.089 -0.0097  0.0243  0.1012
32903W        W51650   3.506   4.060   6.631  0.0749  0.0649 -0.1780
32904W        W51651   2.353  14.323  14.322 -0.0414 -0.0515  0.2070
32905W        W51652  27.882  13.484  16.024  0.1592 -0.0866 -0.2899
32906W        W51653  12.974  26.700  12.261 -0.2997  0.1535 -0.0926
32907W        W51654  28.301  29.910   1.353  0.0383 -0.1248 -0.4132
32908W        W51655  19.959  25.632   8.410 -0.1758 -0.0652  0.1400
32909W        W51656   0.292  16.933   8.253 -0.3029 -0.6194  0.4705
32910W        W51657   7.789  17.010   9.424  0.1330  0.1400 -0.2748
32911W        W51658  14.770   1.967   6.287 -0.1707 -0.1873 -0.4631
32912W        W51659   1.611  23.728  20.273 -0.0632  0.2277 -0.0282
32913W        W51660   4.401  28.655  19.410  0.0423 -0.0639  0.0914
32914W        W51661  30.233   8.588  13.713  0.0291  0.2297 -0.1768
32915W        W51662  29.660  31.394  12.927  0.2605  0.0992 -0.0666
32916W        W51663  30.389  12.712   6.982  0.0458 -0.2273 -0.1725
32917W        W51664   2.409   1.726   7.934 -0.1414 -0.0286 -0.0554
32918W        W51665  30.308  20.510   5.318  0.0551  0.1281  0.1671
32919W        W51666  12.528   4.414   6.391  0.1421  0.0007  0.1064
32920W        W51667  27.952  23.673  18.233  0.1195  0.1671 -0.1354
32921W        W51668  11.041  29.877   3.417  0.2287  0.2349 -0.1534
32922W        W51669  24.274  31.353   3.382 -0.0361 -0.2350  0.2034
32923W        W51670  19.645   4.095   8.235 -0.0503  0.1256  0.0803
32924W        W51671  29.179  21.139  14.831 -0.0028 -0.1097  0.3017
32925W        W51672  19.257  12.828  20.579  0.2844  0.1989 -0.0174
32926W        W51673  26.815  34.127  13.625  0.5028 -0.0965 -0.0189
32927W        W51674   9.697  16.001   6.034 -0.2369 -0.1310 -0.0995
32928W        W51675  12.915   8.830  22.162  0.1286  0.1412  0.1271
32929W        W51676  16.165  23.786   3.618  0.0087 -0.0716 -0.1624
32930W        W51677  10.921  33.293   0.531  0.0673  0.0559 -0.2347
32931W        W51678  19.942   7.052  23.384 -0.1833 -0.2574  0.2367
32932W        W51679  32.743   1.954  26.030  0.3179  0.2805 -0.2535
32933W        W51680  10.863   1.642   2.154  0.0085 -0.0152  0.0818
32934W        W51681   8.460  33.946  14.248 -0.0791 -0.3407 -0.3905
32935W        W51682  25.536   2.367  12.648  0.4662  0.0598  0.2469
32936W        W51683  31.639  14.095  25.744 -0.1003 -0.2349 -0.2958
32937W        W51684  16.806  23.419   4.904  0.0741 -0.0293 -0.4610
32938W        W51685  23.320  17.851  15.228  0.1219  0.0653  0.1152
32939W        W51686  34.019  13.658  18.368 -0.1924 -0.1365  0.1632
32940W        W51687  34.682  12.380  13.982 -0.1740  0.1259  0.1421
32941W        W51688  24.936  34.748  22.041 -0.0985 -0.0994 -0.2091
32942W        W51689  31.024  30.836  17.675  0.2297 -0.0634  0.0957
32943W        W51690   0.147   2.016  15.604 -0.1368 -0.1210 -0.0038
32944W        W51691   3.727  24.235   1.978  0.1955  0.1697  0.0946
32945W        W51692  30.471  24.966  24.886  0.0498 -0.1687  0.3368
32946W        W51693  24.637  14.870  16.238  0.0161 -0.0631  0.1272
32947W        W51694   7.381   5.773   4.995 -0.3102 -0.0780 -0.1871
32948W        W51695  30.936  18.229  10.573  0.0995  0.0126 -0.1297
32949W        W51696   9.963   9.459  10.183  0.3257  0.0620 -0.2280
32950W        W51697  18.556  21.807   1.168 -0.3058 -0.2062 -0.1044
32951W        W51698   2.447  29.351  25.386  0.0169  0.0189  0.1180
32952W        W51699   9.389   9.556   8.150  0.1863 -0.0458 -0.2514
32953W        W51700  25.151  21.956  17.786  0.1208 -0.3027 -0.1501
32954W        W51701   7.829   5.758   7.872  0.1516  0.1582  0.0127
32955W        W51702   9.513  27.499  11.493  0.0670  0.1287 -0.0227
32956W        W51703  23.217  10.460  25.645  0.1154 -0.2120 -0.2491
32957W        W51704  19.568  21.775  20.178 -0.0781 -0.2761  0.0539
32958W        W51705  33.476  34.082   4.462 -0.1649  0.3790 -0.0356
32959W        W51706  23.609  22.099  24.984  0.0293  0.1528  0.0171
32960W        W51707  21.402  28.555  25.473  0.1729 -0.1474  0.1232
32961W        W51708  13.126  15.333   2.491  0.0522  0.2749  0.0915
32962W        W51709  23.261   8.052  21.329 -0.0246  0.0005 -0.2423
32963W        W51710  29.339  32.544  24.549 -0.3008  0.0637 -0.2101
32964W        W51711  21.570  16.656   3.685 -0.2083  0.0030 -0.2202
32965W        W51712  25.433  35.118   1.221  0.1440  0.1773 -0.1608
32966W        W51713  33.037  34.582   3.625  0.0405  0.3374  0.1996
32967W        W51714   0.199  26.286   2.119  0.3071 -0.0993  0.0128
32968W        W51715  33.948  15.931   8.307  0.2003  0.0464  0.0869
32969W        W51716  27.463   7.683  17.557  0.0004 -0.1931 -0.2140
32970W        W51717  28.888  24.549   7.671 -0.0104 -0.0688 -0.2965
32971W        W51718  33.098   3.584  21.672  0.1734 -0.0155 -0.0583
32972W        W51719  28.726  28.740  11.159 -0.2990 -0.2175  0.1187
32973W        W51720  31.976   9.958  11.518 -0.0174 -0.0071  0.1608
32974W        W51721   6.001  32.616  11.573  0.0425  0.0558  0.0282
32975W        W51722  32.426  24.041  16.624 -0.2382 -0.1796 -0.1602
32976W        W51723   1.998  31.098  21.784 -0.0789 -0.3723 -0.2895
32977W        W51724   9.362   2.363  10.207 -0.3770 -0.1737  0.2133
32978W        W51725  21.155   1.563  14.025 -0.0792 -0.2081 -0.2221
32979W        W51726   6.446  30.740  22.263 -0.3796  0.1054 -0.0938
32980W        W51727  35.349   5.870   4.663  0.1018 -0.0127 -0.1093
32981W        W51728  30.107  35.140  25.955  0.0609 -0.4214  0.2443
32982W        W51729  34.652  33.975  16.990 -0.3977 -0.0342 -0.0394
32983W        W51730  30.160  27.911  16.619 -0.1116  0.3046  0.3241
32984W        W51731  25.401  18.027  13.467  0.1325 -0.0070  0.1614
32985W        W51732   1.067  26.731  17.499 -0.0174 -0.0965  0.2995
32986W        W51733  16.919  19.279  14.340 -0.1266 -0.0295 -0.0511
32987W        W51734   7.969  31.075   3.053 -0.2334 -0.1357 -0.2377
32988W        W51735  18.686  13.839  20.377  0.1731  0.1800 -0.0520
32989W        W51736  32.146  29.309   4.314 -0.0431 -0.0714  0.2757
32990W        W51737  20.313   3.105   4.975  0.0610 -0.0011 -0.1191
32991W        W51738   8.042  32.177   4.352  0.3018  0.0432 -0.3969
32992W        W51739   4.869   0.770   9.104  0.1162  0.3225 -0.1960
32993W        W51740   8.664  29.893  12.971 -0.1316 -0.2560 -0.0319
32994W        W51741  31.052  22.539  16.438 -0.2357 -0.3922  0.1391
32995W        W51742  27.936  23.459  11.403  0.0855  0.0063  0.0724
32996W        W51743  34.767  17.324  23.432  0.1307  0.0056  0.1515
32997W        W51744  10.116  22.091  16.177  0.1010 -0.0772  0.1097
32998W        W51745   9.108  22.965   8.035 -0.5869  0.1135 -0.3635
32999W        W51746  33.058  34.905   0.180  0.1398  0.1406  0.0923
33000W        W51747  16.195  23.726   4.883 -0.1501 -0.1829 -0.0475
33001W        W51748  16.591  29.259   7.831  0.1704 -0.0452  0.0381
33002W        W51749  34.652   6.529   4.765 -0.0473 -0.0644  0.0586
33003W        W51750   0.535   5.123  19.280 -0.2750  0.0505  0.1828
33004W        W51751   7.802  26.345  15.187  0.2306  0.0037 -0.1545
33005W        W51752  25.661  13.090  21.047 -0.0210  0.0241  0.3071
33006W        W51753   0.736  35.226  21.199  0.2579 -0.1402  0.3647
33007W        W51754   7.385   1.970  14.438  0.0068  0.2415 -0.0593
33008W        W51755  18.252  31.149   3.270  0.2437  0.1854 -0.2200
33009W        W51756  32.751  15.176   1.424 -0.0363  0.0095  0.1534
33010W        W51757   5.556   6.810  22.586  0.2002  0.1802  0.1529
33011W        W51758   1.493   6.243  13.201  0.0128  0.0807  0.0627
33012W        W51759  12.551  28.707  15.657  0.2770 -0.2351  0.1922
33013W        W51760  21.913   2.615   6.893 -0.0414  0.0627 -0.2817
33014W        W51761  20.954  20.751   3.185  0.2238  0.0188 -0.0775
33015W        W51762  21.426  23.407  25.610 -0.4169 -0.1067 -0.2090
33016W        W51763  27.265  21.908  15.772 -0.1209 -0.1469 -0.1058
33017W        W51764   4.946  20.330  22.841 -0.1298  0.0063 -0.2542
33018W        W51765  18.388   4.041   9.082 -0.1390 -0.2277  0.2590
33019W        W51766  20.356   5.287   5.543 -0.1978  0.1296  0.1751
33020W        W51767   1.015  28.105   6.554 -0.0769 -0.0425 -0.2286
33021W        W51768  23.555  26.655  25.777 -0.0282  0.1490  0.3442
33022W        W51769  17.213   5.594   4.378  0.3932  0.1850 -0.1380
33023W        W51770   2.154   5.907  17.889 -0.0651 -0.1042  0.0026
33024W        W51771  33.640  25.871  16.957 -0.1097 -0.2292  0.3193
33025W        W51772  11.304  10.936  14.298 -0.2195  0.1181  0.1728
33026W        W51773  15.822   1.282  25.331 -0.0522  0.1152 -0.4794
33027W        W51774  24.457  19.960  12.532  0.2137  0.1489  0.0726
33028W        W51775  11.080   4.312   4.745  0.0864  0.0027 -0.1653
33029W        W51776  29.761  25.241   6.826  0.1125 -0.0035  0.3504
33030W        W51777   5.089  22.416  19.679 -0.0568 -0.1193 -0.1656
33031W        W51778  14.524  10.261  24.981  0.0852 -0.0140  0.0166
33032W        W51779   5.941   1.337  24.151 -0.3853 -0.1154 -0.0666
33033W        W51780   1.968  14.259  15.221 -0.1043  0.1268 -0.1874
33034W        W51781  21.946  17.906   0.466 -0.0804  0.2057  0.0011
33035W        W51782  23.801  22.477  23.570 -0.1039 -0.1252  0.2241
33036W        W51783  10.756  28.823  14.597 -0.2456  0.1073  0.0848
33037W        W51784   1.705  23.290  24.665 -0.1089 -0.0314  0.0818
33038W        W51785  19.580   0.042  18.098  0.1736  0.1226  0.1705
33039W        W51786  19.710  13.147  24.751  0.2964 -0.1897  0.1976
33040W        W51787   5.399  24.833  25.979 -0.0099 -0.0282  0.1383
33041W        W51788  22.014  23.763  23.518  0.0578 -0.0614  0.0464
33042W        W51789   6.231  14.966   0.310  0.2193  0.1044 -0.2221
33043W        W51790  18.871  26.350  25.028  0.1295 -0.2608  0.1157
33044W        W51791  33.859  16.565   7.093  0.3267  0.2179 -0.2624
33045W        W51792  23.819  25.701   1.910  0.1504 -0.0216 -0.0756
33046W        W51793  31.375   4.969  17.109  0.1590  0.3359  0.4331
33047W        W51794  16.869  30.553  25.959  0.3744 -0.0408  0.4357
33048W        W51795  27.129  10.145   8.112  0.1528  0.2650 -0.0252
33049W        W51796   3.825  12.536   2.692 -0.1403 -0.1757 -0.2719
33050W        W51797  27.101  30.003   4.592  0.0722  0.0310  0.3710
33051W        W51798   0.535  18.300  20.578 -0.0068  0.1438  0.1337
33052W        W51799   6.817   4.619   3.729 -0.2242  0.1407  0.2816
33053W        W51800  35.005  23.319  12.767 -0.0278 -0.1651  0.1312
33054W        W51801  34.896  14.382  17.173 -0.0486 -0.0363 -0.1312
33055W        W51802   3.588   2.413  18.615  0.1784 -0.1125  0.1307
33056W        W51803   8.171  32.743  24.276 -0.3421 -0.0963  0.1423
33057W        W51804   4.813  34.066  11.264 -0.2639  0.0886  0.0089
33058W        W51805  31.075  13.470   9.770 -0.1259 -0.1372 -0.0814
33059W        W51806   5.345   6.977  23.056 -0.0059  0.1463  0.1634
33060W        W51807  34.701  31.566  23.031 -0.0613 -0.0576  0.3600
33061W        W51808  10.734  14.774  18.290  0.1207 -0.0114  0.2612
33062W        W51809   8.268  22.162   4.257 -0.3641 -0.3185 -0.0260
33063W        W51810  32.123  34.400   2.966 -0.1277  0.0779 -0.0399
33064W        W51811  10.718  28.503  10.239 -0.0307 -0.1440 -0.0605
33065W        W51812  20.095  23.040  18.711  0.0017  0.2822 -0.1748
33066W        W51813  24.553  18.387  14.217 -0.0736 -0.2092 -0.1072
33067W        W51814  27.441  13.734  13.874 -0.2096  0.0890 -0.1088
33068W        W51815   2.708   9.524   5.485  0.1118  0.1754  0.0547
33069W        W51816   6.766  29.716  24.163 -0.1147 -0.2590  0.2908
33070W        W51817  25.265  16.838   8.867  0.2242  0.2087 -0.0645
33071W        W51818   2.023  21.495   0.022  0.0625  0.1329  0.1915
33072W        W51819  34.020  25.410   2.256  0.0010 -0.1117  0.0093
33073W        W51820   4.657  30.908  22.347  0.1978  0.0472 -0.1004
33074W        W51821  27.429  15.651  12.487 -0.0029 -0.0496  0.0496
33075W        W51822   9.690  24.164  14.488 -0.0087  0.2528  0.0145
33076W        W51823  35.192  21.110  24.973  0.1350 -0.0576 -0.0994
33077W        W51824   7.507  11.732   2.341 -0.2632 -0.0876 -0.1349
33078W        W51825  25.317   7.164  13.172  0.0295 -0.0075 -0.2881
33079W        W51826   6.362  21.003   2.633  0.1268  0.3203 -0.3948
33080W        W51827  16.429  32.444  21.639 -0.1793 -0.1353 -0.1133
33081W        W51828   0.041   9.516  18.593 -0.1890 -0.0320 -0.1067
33082W        W51829   7.354   7.741  12.299  0.0570 -0.4347  0.1171
33083W        W51830  10.002  27.442  11.325 -0.1478  0.1064  0.2644
33084W        W51831  21.866  33.458  24.836 -0.1317  0.0513  0.0540
33085W        W51832  28.777   3.680  18.196  0.0091 -0.0537  0.0080
33086W        W51833  30.788  13.532  19.238  0.0790  0.1369 -0.2603
33087W        W51834   4.607   1.481   0.808  0.1652 -0.2427 -0.2123
33088W        W51835  14.277   1.558  18.381 -0.1047  0.1334 -0.2466
33089W        W51836   5.940  16.472   0.739 -0.1248  0.0466 -0.4086
33090W        W51837  29.270  17.197   9.838  0.0690  0.0815  0.2191
33091W        W51838   7.083   4.111  11.587  0.1032  0.0250 -0.1460
33092W        W51839   1.730  27.693   3.513  0.4034 -0.0620  0.1780
33093W        W51840   7.497  25.506  22.913 -0.0866 -0.0985 -0.0032
33094W        W51841  29.855  21.033  25.640 -0.1858 -0.1737  0.1675
33095W        W51842  17.184  28.592   1.960 -0.0884  0.0318 -0.1261
33096W        W51843  33.014   2.556  21.120 -0.1324  0.1007 -0.0581
33097W        W51844  14.634  14.626  10.423  0.0820 -0.0935  0.1968
33098W        W51845  15.773   3.739  18.446 -0.1081  0.2103 -0.2740
33099W        W51846  31.425  13.538  24.845 -0.1832 -0.2497  0.1296
33100W        W51847   9.663  19.389   5.071  0.0955  0.1918 -0.2161
33101W        W51848  16.503  29.583  20.762 -0.0072 -0.0548  0.1225
33102W        W51849  20.133  10.713  25.285 -0.1163 -0.0866  0.2842
33103W        W51850  29.398  14.602  21.436  0.3009  0.0055  0.0351
33104W        W51851  10.172  16.710   1.503 -0.0266 -0.0463 -0.0456
33105W        W51852   5.743  32.446   2.613 -0.2189  0.0885 -0.2925
33106W        W51853  33.530  19.239   1.084  0.1066 -0.0419  0.1042
33107W        W51854  29.835  26.944  18.078  0.4188  0.0856 -0.0807
33108W        W51855  28.303   6.319  14.502 -0.2222  0.1819  0.2629
33109W        W51856   1.351  24.090  16.895  0.2389  0.2324 -0.1968
33110W        W51857  15.257   3.717   9.185 -0.1259  0.1973  0.0179
33111W        W51858  12.188  24.050  13.229  0.0341  0.1376  0.0020
33112W        W51859  29.303   6.984  19.774 -0.0293 -0.2261 -0.0278
33113W        W51860  22.603  11.018  14.201 -0.2130 -0.0886 -0.1056
33114W        W51861  29.334  15.335  10.252 -0.0720 -0.1949  0.0598
33115W        W51862  21.544  13.614   1.135  0.0445 -0.2878  0.0607
33116W        W51863  25.179  20.581   9.104  0.1250  0.0761 -0.3484
33117W        W51864  13.752   9.007  23.250 -0.3563 -0.1394  0.0273
33118W        W51865  12.802  10.821   0.663 -0.2523 -0.3404  0.2449
33119W        W51866   9.597  32.466   3.334  0.0324 -0.1214 -0.3332
33120W        W51867  26.148  18.917  11.252  0.2847  0.1450  0.2176
33121W        W51868  23.216  20.647  23.014  0.0322 -0.1288  0.1945
33122W        W51869   7.053   7.733   2.347 -0.0553  0.1578  0.0336
33123W        W51870  19.089  15.392  25.695 -0.2783  0.2137 -0.4267
33124W        W51871  31.414  34.824  12.421 -0.1842 -0.4689 -0.0985
33125W        W51872  26.515  22.316  18.296  0.1302 -0.0750 -0.2636
33126W        W51873  28.075   6.993  25.248 -0.0357  0.1753 -0.1491
33127W        W51874  34.490  13.821   9.416  0.1350 -0.0193  0.3062
33128W        W51875   3.057  32.460   3.169  0.3247  0.2322  0.0873
33129W        W51876   1.020  29.798   1.679 -0.2703  0.0340 -0.1063
33130W        W51877   2.996   1.485  26.113  0.0212  0.2608  0.0918
33131W        W51878  17.860  24.717   1.742 -0.0523 -0.1297  0.0743
33132W        W51879  33.469  29.908   6.476  0.3008  0.1323 -0.0984
33133W        W51880   1.485  24.350   1.097  0.0127  0.5429  0.0183
33134W        W51881   1.900  12.234  24.544 -0.2296 -0.1462  0.0169
33135W        W51882  21.926  23.097  18.579 -0.1473  0.0317 -0.0751
33136W        W51883  30.297  25.226  25.237 -0.0855 -0.0101 -0.1956
33137W        W51884  24.444  14.636  15.415  0.2478  0.1820 -0.1685
33138W        W51885  21.519   8.790  17.085 -0.1573  0.1608  0.2376
33139W        W51886  32.567  23.561  17.968 -0.0210 -0.1538  0.2468
33140W        W51887  24.969   9.847  17.957  0.1203 -0.0301 -0.1033
33141W        W51888  20.706  22.823   6.605  0.0181  0.0131 -0.0450
33142W        W51889  13.953   3.743  25.728  0.2976 -0.3758  0.2388
33143W        W51890  12.125  16.917  19.744  0.0715  0.4154 -0.0305
33144W        W51891  18.858  28.931   8.624 -0.0005 -0.1563  0.2507
33145W        W51892   0.525  15.429  21.527  0.1586 -0.1900  0.0904
33146W        W51893  26.805  10.622  20.999  0.0534 -0.2202  0.0890
33147W        W51894  34.024   2.028   4.585  0.2782 -0.0924  0.1553
33148W        W51895   4.314   6.537   1.462  0.0372  0.0037  0.1989
33149W        W51896  32.277   8.410  16.965  0.1965 -0.1310  0.2034
33150W        W51897   6.163  33.043  14.542 -0.0874 -0.1268  0.1125
33151W        W51898  14.748  28.428  13.881  0.2330  0.0769  0.3584
33152W        W51899  28.842  26.563  16.234  0.0266  0.2431 -0.0346
33153W        W51900   5.843   4.787  10.936 -0.2158 -0.1821 -0.3465
33154W        W51901  17.451  10.064  18.091  0.1065  0.0312 -0.0850
33155W        W51902  30.564  18.925   6.678  0.0867 -0.1813 -0.1446
33156W        W51903  26.460  22.745  20.637 -0.0127 -0.0493  0.2484
33157W        W51904  18.345  16.742   3.785  0.1901 -0.2786  0.0073
33158W        W51905  30.489   5.207  10.011 -0.0246  0.0352  0.0149
33159W        W51906  12.170  35.024   5.587 -0.0965  0.1141 -0.1511
33160W        W51907  14.565  30.843   7.301 -0.0231  0.1030  0.1055
33161W        W51908   5.470  17.201  25.496 -0.0517  0.0313 -0.4301
33162W        W51909  21.024  28.786   0.353 -0.3100 -0.0631 -0.1664
33163W        W51910  11.507  18.145  10.075  0.0890  0.1362 -0.1483
33164W        W51911  22.974  13.725  18.424 -0.1569 -0.0952 -0.2222
33165W        W51912  22.096   4.076   7.825 -0.1231 -0.0571 -0.2066
33166W        W51913   0.983   1.257   4.057 -0.0749 -0.1256  0.0085
33167W        W51914  26.020  32.338   4.095  0.1489  0.0420  0.1890
33168W        W51915  33.432   9.826  10.552  0.2084 -0.0451 -0.0431
33169W        W51916   7.299  32.076   9.402  0.0222  0.2412  0.2556
33170W        W51917   6.022   0.644  10.712 -0.1850  0.0077 -0.1295
33171W        W51918  16.175  27.918   6.755  0.0482 -0.2456  0.1092
33172W        W51919   9.144   3.571  11.781 -0.1596 -0.0445 -0.0793
33173W        W51920  24.861  27.967  21.036 -0.4245  0.1826  0.2255
33174W        W51921  21.989   9.341  19.734  0.2201  0.1885  0.1013
33175W        W51922  18.191  27.690  23.659  0.0467  0.1013 -0.2395
33176W        W51923  13.056  15.669   6.711 -0.0815 -0.3243  0.3635
33177W        W51924   9.334   3.488   0.127  0.2774 -0.2417  0.1458
33178W        W51925  18.192  15.708  10.963  0.1592 -0.0507  0.0607
33179W        W51926   0.193   9.962  14.939 -0.1117  0.0391  0.2212
33180W        W51927   7.615  15.437   1.169 -0.2180 -0.1388  0.1693
33181W        W51928  30.116  33.445  16.295 -0.0362 -0.0371  0.0448
33182W        W51929  17.974  33.484   2.264 -0.1054  0.2361  0.1165
33183W        W51930  16.225   4.123  20.591  0.0649 -0.0660 -0.2689
33184W        W51931   8.850  19.312  22.465 -0.1077  0.1574 -0.0275
33185W        W51932  29.317  16.265  11.980 -0.0718  0.0282  0.0176
33186W        W51933  10.007   9.304  20.504  0.3450 -0.0194  0.0573
33187W        W51934   2.344  21.515  20.935 -0.0200  0.3441  0.3447
33188W        W51935  25.115  14.651   8.660  0.0919 -0.0927  0.0157
33189W        W51936   5.486  25.439   4.495  0.0013 -0.2351 -0.1033
33190W        W51937   9.951   4.805  22.449 -0.0297  0.1161  0.1027
33191W        W51938  16.533   8.125   0.152  0.1777 -0.0296  0.0158
33192W        W51939  23.219   2.370   2.752  0.0120 -0.3146 -0.1518
33193W        W51940  26.520   8.583  11.575 -0.2334  0.1749 -0.0691
33194W        W51941   9.350  17.748  10.071  0.3107 -0.3307  0.0118
33195W        W51942  31.276  11.513  20.289  0.0526  0.1048 -0.0741
33196W        W51943  32.148   2.706  21.612 -0.0114 -0.0662 -0.1014
33197W        W51944   2.540   3.137  17.486  0.1351  0.0554  0.3984
33198W        W51945  33.570   7.098  13.684  0.1055  0.2714  0.2985
33199W        W51946   2.379   8.307  19.903 -0.0466 -0.1102 -0.2321
33200W        W51947  18.406   0.281  19.905  0.1861  0.0879 -0.0550
33201W        W51948   0.111   6.742  25.118  0.1240  0.0252 -0.0257
33202W        W51949  10.703  20.214  16.627  0.0003  0.1976 -0.0249
33203W        W51950  18.530   4.932  19.125 -0.0284 -0.1591  0.1271
33204W        W51951  16.550  12.408  13.606 -0.1445 -0.3169  0.4915
33205W        W51952   3.185  11.734  22.947  0.1467  0.0673 -0.0452
33206W        W51953  27.820  29.794  10.978 -0.1866  0.0005  0.1524
33207W        W51954  17.357  17.009  25.614  0.1179  0.1734 -0.1886
33208W        W51955  32.174  12.472   8.846 -0.1397  0.1681  0.1725
33209W        W51956  13.361   0.530  24.526 -0.1604  0.0658 -0.1091
33210W        W51957   5.938  24.822   9.345  0.0375 -0.0233  0.3160
33211W        W51958   7.465   3.227   6.711 -0.1685  0.1171  0.1476
33212W        W51959  27.266   1.057   2.941 -0.2714  0.0118 -0.1095
33213W        W51960  14.765   9.254   9.188 -0.2215 -0.2312  0.0721
33214W        W51961  15.230  11.309  12.256  0.1496 -0.2318  0.1781
33215W        W51962   6.721  22.239   2.851 -0.1067 -0.0245 -0.0688
33216W        W51963   3.596   9.830   7.873 -0.3737 -0.1353  0.1586
33217W        W51964  14.835  15.036  12.379 -0.0415  0.3266 -0.1622
33218W        W51965   5.015  17.712  17.591  0.1084  0.0073 -0.2061
33219W        W51966  30.120  32.688  14.385  0.2273 -0.2308  0.0862
33220W        W51967   9.794  20.354   5.428  0.3692  0.0473  0.0284
33221W        W51968  33.315  11.633  26.107 -0.0733 -0.1424 -0.0321
33222W        W51969  19.531   9.524  19.988 -0.1331 -0.0623  0.0434
33223W        W51970  22.267  30.189  21.166  0.0024  0.1506  0.1646
33224W        W51971   3.504  32.726   7.675 -0.1230  0.0103 -0.0380
33225W        W51972   2.051   0.049  24.480  0.1477 -0.0527  0.1249
33226W        W51973  14.470   2.242   7.129 -0.1768 -0.0539 -0.0252
33227W        W51974   2.449   4.169   5.980 -0.3003  0.0238  0.0693
33228W        W51975  28.762  19.384  10.215  0.2823 -0.0922  0.0092
33229W        W51976  32.541   8.324  23.208  0.3380 -0.1721  0.1768
33230W        W51977  16.827  20.948  12.346 -0.2604  0.1880 -0.3465
33231W        W51978  16.491  22.022  25.889  0.0853 -0.3073  0.0181
33232W        W51979  29.889  18.316   8.489  0.1583  0.1203 -0.0354
33233W        W51980   0.965   9.102  22.154  0.0673  0.2486  0.0296
33234W        W51981  31.799  16.771  22.798 -0.0231  0.1353  0.0286
33235W        W51982  15.685  24.525  25.679  0.0257  0.0932 -0.0094
33236W        W51983   2.383   8.693  15.797  0.0417  0.1726 -0.1640
33237W        W51984  12.143  31.158   8.657 -0.2938 -0.1169 -0.0263
33238W        W51985  14.407  33.626  24.006  0.1482 -0.0145  0.1908
33239W        W51986   7.181  25.448   4.138 -0.0148 -0.0545  0.0977
33240W        W51987  11.805   9.846   3.444 -0.1396 -0.0436 -0.1988
33241W        W51988   0.351  20.338  17.173 -0.0606 -0.0865 -0.1865
33242W        W51989   6.206  19.766   9.290  0.0651 -0.5484  0.3465
33243W        W51990   0.689  28.004   0.808 -0.1725  0.0520  0.1325
33244W        W51991  25.807  10.164  25.849 -0.1760 -0.0315  0.1518
33245W        W51992  31.141  31.567  10.864 -0.1771  0.1478  0.3803
33246W        W51993  24.415   5.451   3.564 -0.0771 -0.0040 -0.3548
33247W        W51994  13.607  20.655  15.294  0.0271  0.0775 -0.0501
33248W        W51995  17.259  16.334   4.096  0.3539 -0.0257 -0.0840
33249W        W51996   4.418  10.481  19.554  0.0753  0.0438  0.6221
33250W        W51997   5.426  21.028   4.561 -0.1302  0.0409  0.0676
33251W        W51998   3.017   7.179  24.473  0.0812 -0.2886  0.5045
33252W        W51999   6.531  10.272   3.474 -0.0484 -0.0813  0.0381
33253W        W52000  27.599  26.521  18.611 -0.0251  0.2157 -0.2104
33254W        W52001  12.670   5.368  24.414 -0.0515  0.2831  0.1122
33255W        W52002  27.397  13.042  10.163 -0.5002  0.5379  0.0080
33256W        W52003   4.027  35.127  24.872  0.0185 -0.2393  0.4529
33257W        W52004  29.675  18.410  18.550  0.1204  0.1001 -0.1314
33258W        W52005  25.991  32.539  22.279  0.2346 -0.0416 -0.1596
33259W        W52006  11.541  22.588  23.008  0.0059  0.2083  0.3381
33260W        W52007   1.142   5.428  14.600 -0.0433  0.0617  0.0359
33261W        W52008  10.654  10.012   9.898 -0.2689 -0.4658 -0.0501
33262W        W52009  30.685  17.665  15.748 -0.1460 -0.1888  0.0269
33263W        W52010  22.406   0.979  21.908 -0.0741 -0.1522 -0.4698
33264W        W52011  10.661  35.029  21.052  0.0781  0.1070  0.0874
33265W        W52012  29.641  28.599  10.086 -0.1092  0.1897 -0.1394
33266W        W52013  33.862  23.398  14.888 -0.0509  0.1786 -0.2158
33267W        W52014  34.270  12.124  25.826  0.3182 -0.0340  0.2140
33268W        W52015  19.467  20.224   7.980 -0.2965  0.3516  0.2164
33269W        W52016  28.841  13.918  18.884  0.1782  0.1083 -0.2277
33270W        W52017  25.174   1.930   2.708 -0.1047  0.3238  0.1572
33271W        W52018  17.345  15.546   2.977 -0.2722  0.1892 -0.0919
33272W        W52019   2.384  32.704  25.854 -0.1235  0.2654  0.0400
33273W        W52020   5.415  12.274  21.748  0.2506 -0.0314  0.1835
33274W        W52021   4.887  10.710   8.224 -0.0722 -0.0035  0.2142
33275W        W52022  23.115  17.210  22.067 -0.0401  0.0889 -0.2231
33276W        W52023   3.125   4.557   3.185  0.0433 -0.0605  0.4051
33277W        W52024  15.311  24.931  23.003  0.1724 -0.2204  0.0410
33278W        W52025   8.175  17.238  22.073 -0.0328 -0.1524 -0.0130
33279W        W52026  18.258  22.006  10.769 -0.1476  0.0822  0.0335
33280W        W52027  13.047   6.405  22.872  0.1851 -0.0787 -0.3555
33281W        W52028  30.912  23.335  17.380  0.3695  0.0261 -0.1234
33282W        W52029  15.514  19.871   4.599  0.0392  0.1631 -0.2906
33283W        W52030  26.870  18.613   8.476 -0.0463 -0.3272 -0.0749
33284W        W52031  32.931   1.112   0.487  0.0680 -0.0299  0.1194
33285W        W52032  21.701   1.805  15.734 -0.0777  0.1560  0.0025
33286W        W52033  28.868  16.935  25.702 -0.1652 -0.0194  0.1099
33287W        W52034  14.015  35.378   1.412 -0.0827 -0.2322 -0.4217
33288W        W52035  28.985  25.494  18.139  0.3893  0.1139 -0.1513
33289W        W52036   1.157  26.553  23.973 -0.3456 -0.1468 -0.2227
33290W        W52037   8.028  16.848   7.633 -0.1040  0.2728  0.0881
33291W        W52038  17.040  20.757   1.696 -0.2840 -0.1350 -0.0056
33292W        W52039   8.489  17.300   7.875 -0.2878  0.1143  0.0821
33293W        W52040  20.938   0.853  16.238 -0.2500  0.2090 -0.1296
33294W        W52041  22.139   5.009   5.952  0.3066  0.1704 -0.1028
33295W        W52042  25.129  32.034  21.522 -0.1934 -0.3902 -0.0336
33296W        W52043  10.309  16.540   3.105 -0.1741 -0.2984  0.1994
33297W        W52044  23.236   1.491  15.301  0.3219 -0.0217  0.0460
33298W        W52045  31.798   7.450  20.739  0.1118  0.3983 -0.0883
33299W        W52046  12.011   1.153  22.446 -0.0618 -0.3658 -0.0045
33300W        W52047  28.558  14.258   5.661 -0.1169  0.1375  0.0452
33301W        W52048   6.299   7.890   7.923  0.0370 -0.0064 -0.3403
33302W        W52049   2.129   0.149  20.042  0.1063  0.1865  0.0778
33303W        W52050  11.562  29.458   2.220 -0.1943 -0.0776  0.0252
33304W        W52051  22.421  31.033  12.109  0.0216 -0.2273 -0.0989
33305W        W52052  12.803   5.950  10.820  0.0764 -0.2413 -0.2035
33306W        W52053  21.372  33.694   4.408  0.2691 -0.2575 -0.0170
33307W        W52054  12.614  30.061   2.490  0.0995 -0.1823  0.1835
33308W        W52055   6.444   7.573  20.283 -0.1549  0.0153 -0.1673
33309W        W52056   5.688  17.475  18.749  0.3547 -0.0262 -0.0856
33310W        W52057  16.678  22.999   8.103 -0.0609  0.0001  0.2147
33311W        W52058  34.548  18.471   7.749  0.1255 -0.3198 -0.0646
33312W        W52059   1.398   7.655  15.546 -0.1034  0.1624 -0.1872
33313W        W52060  27.944  20.520  16.748  0.4311 -0.0249 -0.1360
33314W        W52061   6.710  18.709   0.965 -0.3751 -0.0986 -0.1703
33315W        W52062   7.079  14.765  18.899  0.2083  0.1136  0.0145
33316W        W52063   4.219  11.013   6.647 -0.1297  0.3232  0.3325
33317W        W52064   8.826  19.043  11.948 -0.2665 -0.0751 -0.1588
33318W        W52065  29.711  16.490   5.663 -0.3234 -0.1923  0.0208
33319W        W52066  27.119   1.112  26.210 -0.1217  0.3293 -0.1382
33320W        W52067   6.693   6.857   0.442 -0.0048  0.0368  0.0896
33321W        W52068  22.600   4.094   2.441  0.2154 -0.2184 -0.2052
33322W        W52069  29.087  17.385  13.822  0.3494 -0.0246 -0.0247
33323W        W52070   9.623  28.299  16.346  0.2313  0.1811  0.1241
33324W        W52071  10.725  13.317   8.066 -0.0244  0.1300 -0.2322
33325W        W52072  22.591   4.138   5.441  0.0086  0.0220 -0.3542
33326W        W52073  12.098  27.177   9.585  0.1947  0.2794  0.1308
33327W        W52074   1.479  29.062   3.179  0.1424 -0.1452 -0.1416
33328W        W52075  14.269   1.740  17.916 -0.0900 -0.0352 -0.2171
33329W        W52076  12.947  11.620   6.747 -0.1282 -0.1106  0.4296
33330W        W52077  32.558  23.047  12.464  0.4528  0.1894  0.0484
33331W        W52078  27.104  10.277   9.032 -0.1578  0.2768  0.0677
33332W        W52079  24.510  22.894   2.040  0.2669 -0.0525 -0.2293
33333W        W52080  33.026  31.470   1.255  0.0857 -0.1908 -0.0439
33334W        W52081  31.030  25.224  23.117  0.1980 -0.3278  0.0386
33335W        W52082  24.828   6.450   1.759  0.1473  0.2821  0.0203
33336W        W52083   2.583   0.720  16.774 -0.0421  0.0366 -0.2675
33337W        W52084   4.888  15.332  24.413 -0.1789  0.1606 -0.2220
33338W        W52085  14.283  30.904   0.444  0.2523  0.0866  0.0133
33339W        W52086  15.334  12.669  19.854 -0.1108  0.2201  0.1410
33340W        W52087  31.311  18.015  17.554  0.0651 -0.0616  0.2499
33341W        W52088  27.448  32.666   3.167 -0.1371 -0.3892  0.2072
33342W        W52089  10.077  11.997  22.839 -0.0078 -0.2121  0.3147
33343W        W52090  28.267  34.204  19.704  0.2646 -0.2575  0.1638
33344W        W52091  24.130  25.088  10.957 -0.1934 -0.3030  0.2733
33345W        W52092   6.946  18.837   4.062 -0.1835  0.2029  0.0216
33346W        W52093   5.735  34.513   9.407  0.3331 -0.2620 -0.1370
33347W        W52094  12.840   7.302  11.990 -0.3001  0.1369  0.1755
33348W        W52095  13.486  13.263  12.715 -0.3413  0.0049 -0.0802
33349W        W52096   7.621  13.855  21.184  0.0036 -0.1233  0.0362
33350W        W52097  32.839  10.819  16.416  0.1372  0.4179  0.1807
33351W        W52098   7.904  24.513  23.922  0.3481  0.2161 -0.1535
33352W        W52099  17.065  22.412  13.448  0.3649  0.0117  0.0109
33353W        W52100  27.303  11.319   6.659  0.0146  0.4292  0.1571
33354W        W52101  11.368  24.765   4.355 -0.4845  0.0450 -0.1515
33355W        W52102  25.703  21.034   8.895  0.2595  0.0372 -0.0325
33356W        W52103   4.128  13.711   2.482 -0.2049 -0.1503 -0.0203
33357W        W52104   2.473  10.750  22.667  0.1268 -0.0788  0.2124
33358W        W52105   4.675  13.130   5.707 -0.2086 -0.0814 -0.4243
33359W        W52106  31.301  33.138   1.863  0.1603  0.0194 -0.1849
33360W        W52107  10.874   3.580  25.730  0.3465  0.0711  0.0722
33361W        W52108  30.648  34.814  20.644 -0.1115 -0.0141 -0.0063
33362W        W52109   1.292  34.857   0.387  0.0147 -0.1745  0.0673
33363W        W52110  23.937  16.572  19.035 -0.1563 -0.1158 -0.0939
33364W        W52111   5.807  19.690   4.392  0.0512 -0.0520 -0.0949
33365W        W52112  27.496  27.693  21.836  0.1092 -0.0380 -0.1163
33366W        W52113  32.671  20.838  14.057 -0.0146 -0.0235 -0.0123
33367W        W52114   8.087  14.198   5.157  0.1566  0.0121  0.1867
33368W        W52115  30.588  17.263  12.558 -0.0745 -0.1002  0.0214
33369W        W52116  20.967   2.118  16.207 -0.1374 -0.0996 -0.0901
33370W        W52117  30.136  26.088  21.155  0.0077  0.1577 -0.2595
33371W        W52118  24.945  11.436  24.182 -0.0763  0.2966 -0.0631
33372W        W52119  32.403   2.701   5.519  0.3557  0.0182 -0.0520
33373W        W52120  31.735   5.660  17.900 -0.1127 -0.1280 -0.1747
33374W        W52121  13.749  12.351   9.706 -0.1459  0.0760  0.0904
33375W        W52122  25.910  28.781   0.791 -0.0485 -0.0892  0.1983
33376W        W52123  12.533   0.472  12.949  0.1769  0.2568 -0.3075
33377W        W52124  27.501  20.303  11.980 -0.3017 -0.1549 -0.1174
33378W        W52125  30.053  28.806   0.274  0.0704 -0.1966  0.0351
33379W        W52126  29.115  18.640   8.073  0.2228  0.1783  0.0463
33380W        W52127  19.819  31.747  14.960  0.2755  0.2745 -0.1015
33381W        W52128  18.277  28.924   6.852 -0.4108  0.2080  0.2137
33382W        W52129  33.183  25.328  17.575  0.3105 -0.3315  0.0708
33383W        W52130  28.894  29.160  20.800 -0.0721  0.0568 -0.5229
33384W        W52131   6.142  16.434   5.996  0.0061 -0.2887 -0.1616
33385W        W52132  23.061  24.646  18.968 -0.1551 -0.1449  0.0467
33386W        W52133   8.001  33.615  14.285  0.0074 -0.2786 -0.1841
33387W        W52134  30.612  26.758   9.549  0.0692  0.1801  0.0920
33388W        W52135  13.060  20.603  13.460  0.1366 -0.0605  0.1110
33389W        W52136  14.022  27.997  25.008 -0.0186 -0.0454 -0.0497
33390W        W52137  31.157   7.324  12.379 -0.0681  0.1907  0.0709
33391W        W52138  18.050  34.151   3.867 -0.1642 -0.3108 -0.0504
33392W        W52139  19.945  15.726  19.631  0.1325 -0.2701  0.0213
33393W        W52140  14.677  31.609   0.236 -0.0357  0.2656 -0.1146
33394W        W52141   6.462   5.552   2.590 -0.1426  0.0469 -0.3801
33395W        W52142  23.733  29.607  21.126 -0.0840 -0.0833  0.1314
33396W        W52143  26.707  34.344  11.509  0.0901 -0.2618 -0.1399
33397W        W52144   6.513  32.790   4.923 -0.1184  0.0511 -0.3790
33398W        W52145  12.078  11.500  25.878  0.1185 -0.2196 -0.0894
33399W        W52146   3.053   5.590   4.440  0.0123 -0.1309 -0.0452
33400W        W52147  26.090  10.177   9.260 -0.3577  0.3607  0.3612
33401W        W52148  12.312  31.518   7.011  0.1457  0.3143  0.2232
33402W        W52149  14.248   0.589  23.999  0.0057  0.1588  0.1284
33403W        W52150  17.181  33.098   6.609 -0.0186  0.1167  0.1045
33404W        W52151   9.144  29.949  13.467 -0.1129  0.3014  0.2961
33405W        W52152  23.875  24.455  22.450  0.1690  0.0613  0.0165
33406W        W52153  23.234  29.177  18.211  0.2321 -0.2875  0.1339
33407W        W52154  10.343  10.094   8.114  0.0442  0.1288 -0.3256
33408W        W52155  10.976   7.718  20.002 -0.0039  0.1718 -0.1758
33409W        W52156  26.079  20.841  13.859 -0.2552  0.0441  0.2585
33410W        W52157   0.883  32.353  21.737 -0.0427 -0.0578  0.1867
33411W        W52158   5.274  24.649  21.375 -0.0408 -0.1799  0.0028
33412W        W52159   9.204  28.277  14.569  0.3284 -0.0783  0.0710
33413W        W52160  27.656  17.635  19.567 -0.2364  0.0631  0.0255
33414W        W52161  14.981  32.590   5.393 -0.1343  0.2483  0.3430
33415W        W52162   3.676   4.425  25.555 -0.1068 -0.0346  0.0780
33416W        W52163  32.508  30.233   4.258 -0.2311 -0.0382  0.1387
33417W        W52164  11.290  24.106   9.134 -0.1703 -0.4382 -0.1194
33418W        W52165   8.362  19.957  13.725  0.0256 -0.0384  0.0455
33419W        W52166  31.410   9.335  16.387  0.1510  0.1473 -0.2052
33420W        W52167  10.805   8.818   0.655 -0.1334 -0.1069  0.3698
33421W        W52168  13.332   1.466   2.073 -0.2850  0.0428  0.2735
33422W        W52169   7.885  14.520  11.990 -0.0186  0.2897  0.2002
33423W        W52170  28.595  21.140   5.151 -0.1071 -0.1022  0.0538
33424W        W52171  31.878  24.255  23.672 -0.0478  0.0498  0.0879
33425W        W52172   7.768  12.150  24.994 -0.1577  0.0794 -0.0918
33426W        W52173  20.478  14.413  17.056  0.0755  0.0521  0.1371
33427W        W52174  12.138  28.863   6.479 -0.2793 -0.2323  0.4267
33428W        W52175   0.349  18.427  26.067 -0.0103 -0.1856  0.1061
33429W        W52176  25.319  28.105  21.354 -0.0339  0.1986 -0.1275
33430W        W52177  31.813  28.314  10.437  0.1092  0.2999 -0.2529
33431W        W52178  19.959   5.157   8.834 -0.1029  0.0385 -0.2024
33432W        W52179  29.068  19.749  24.489  0.2978  0.0030  0.0543
33433W        W52180  17.642   1.988  17.611  0.0018  0.1562  0.0879
33434W        W52181  29.155  21.557  13.503 -0.0833 -0.2281  0.1344
33435W        W52182  34.847  21.238  17.488  0.0631 -0.0769 -0.1992
33436W        W52183  33.915  12.722  16.959  0.2063 -0.0501 -0.1275
33437W        W52184  10.962  20.600  26.017  0.0859 -0.0088  0.1219
33438W        W52185  34.563  31.098   6.980 -0.1345 -0.2708 -0.3943
33439W        W52186   6.208  17.487   8.228 -0.4818  0.0327  0.1081
33440W        W52187  26.426  33.733   4.958  0.1854  0.0877  0.1846
33441W        W52188  18.351  24.668   7.025 -0.2005 -0.1328  0.3178
33442W        W52189   8.375  23.696   7.827  0.0398 -0.2422  0.1482
33443W        W52190  20.103  33.451  15.335  0.0362  0.0578  0.0727
33444W        W52191  20.696  18.503  23.163  0.2493 -0.1135 -0.1274
33445W        W52192  23.594   5.073  19.083 -0.1546  0.1221  0.0369
33446W        W52193  12.609  21.070   2.604 -0.0855 -0.3123 -0.4344
33447W        W52194  23.969  28.021  22.630 -0.1675  0.3094  0.2017
33448W        W52195  25.027  15.662  14.737  0.0729  0.1938  0.4582
33449W        W52196   7.184   0.941   1.101 -0.2490 -0.1773 -0.1170
33450W        W52197  35.314  16.112  20.598  0.1314 -0.0474  0.2513
33451W        W52198  14.548  27.328  14.980  0.2710 -0.0691 -0.0942
33452W        W52199  20.284  21.205  21.343  0.2357  0.3390 -0.0151
33453W        W52200  26.902  30.144  14.572 -0.1586  0.1855  0.2614
33454W        W52201  24.004  25.868  12.532  0.2225 -0.1936 -0.2371
33455W        W52202   3.533  23.897  25.733  0.2647 -0.0413  0.0098
33456W        W52203   5.966  21.365   6.765  0.1710  0.2789 -0.0103
33457W        W52204  32.471  20.280  11.431  0.0499  0.1745  0.1252
33458W        W52205  27.958  34.203  20.188 -0.0857 -0.2876 -0.0698
33459W        W52206  28.268  28.694  22.907 -0.0871  0.2472  0.1877
33460W        W52207  21.893   6.635  22.158 -0.2806  0.0019  0.1465
33461W        W52208  25.667  29.098  17.547  0.2090  0.1902  0.1754
33462W        W52209  26.875  12.719   8.998  0.2922 -0.1067  0.1825
33463W        W52210  10.598  31.332   8.946 -0.3272 -0.0316  0.1194
33464W        W52211   8.235  34.149  24.864  0.1274 -0.3221 -0.1904
33465W        W52212  19.146   6.201   1.291  0.1455  0.1266 -0.1998
33466W        W52213  18.034  22.942   3.661 -0.0548  0.1506 -0.0149
33467W        W52214  12.846   3.927   8.544  0.2462 -0.1708  0.0148
33468W        W52215  13.882  15.531   5.854 -0.0491  0.3771  0.0323
33469W        W52216  18.127  15.331   9.593 -0.6507 -0.1453 -0.0726
33470W        W52217  26.569  17.316   8.176 -0.1334 -0.3700 -0.0210
33471W        W52218  29.298   9.360  13.874 -0.0735  0.2612  0.1230
33472W        W52219  31.511   2.152   2.069  0.0981 -0.0144  0.2975
33473W        W52220  14.030  23.712   9.713 -0.0370 -0.1299  0.1691
33474W        W52221   6.365  17.104   4.250 -0.2121 -0.0739  0.3339
33475W        W52222  14.669  31.917  21.959  0.3515  0.0326 -0.3182
33476W        W52223  27.315  17.314  13.963  0.0276  0.0219  0.0166
33477W        W52224  10.846   9.707   2.948 -0.0428  0.1527  0.0458
33478W        W52225   4.988  17.864  20.240  0.1175 -0.0524 -0.0197
33479W        W52226  10.190  26.477  23.070 -0.4439  0.1506  0.1605
33480W        W52227  14.136   4.578   7.214 -0.1250 -0.2424  0.2431
33481W        W52228  32.897  16.408  11.691  0.1219  0.1696  0.0075
33482W        W52229  19.015  21.328  22.471  0.1651 -0.1752 -0.2013
33483W        W52230  30.140  28.484  14.854 -0.3825  0.4481  0.0249
33484W        W52231  12.813  25.238   7.949  0.1400 -0.2135 -0.0506
33485W        W52232  12.358  31.871   8.518 -0.1108 -0.3083 -0.0050
33486W        W52233  30.513  35.018  23.260 -0.2985 -0.0016  0.0099
33487W        W52234  32.207  30.421  25.253  0.0213  0.1432  0.2044
33488W        W52235   9.783  19.836   9.947  0.1609 -0.2931  0.0611
33489W        W52236  35.158   2.027  25.614  0.0382  0.1211  0.2508
33490W        W52237  22.949   9.584  14.291  0.2435 -0.0899  0.2091
33491W        W52238  25.172  31.975  20.453  0.2262  0.0519 -0.1513
33492W        W52239  29.426  13.321  17.275  0.0751  0.0674 -0.2077
33493W        W52240  10.835   2.333  11.736 -0.1460 -0.1124  0.3499
33494W        W52241   8.782  21.832   2.868  0.0607 -0.0093  0.0257
33495W        W52242  34.141  22.257   7.429 -0.0532  0.2959  0.3373
33496W        W52243  15.320  25.550   9.375 -0.1539  0.0183 -0.1156
33497W        W52244   6.166  25.035  25.526 -0.0431  0.2271  0.1524
33498W        W52245  20.937  18.433  20.838 -0.2994 -0.2487  0.1088
33499W        W52246  21.671  30.277   5.261 -0.0336  0.1092  0.1925
33500W        W52247  20.272  29.860  22.052 -0.0553  0.0771 -0.1782
33501W        W52248  15.730  33.750  20.243 -0.0644  0.0026 -0.0066
33502W        W52249  23.596  14.668  18.465 -0.2137  0.1521  0.0373
33503W        W52250   7.904   1.878  24.547 -0.1294 -0.1225 -0.0088
33504W        W52251  35.344  14.439  24.693 -0.1086 -0.1557 -0.0204
33505W        W52252  30.565  32.603  16.314  0.0737  0.1245 -0.2378
33506W        W52253  32.595  17.541   7.754  0.3187 -0.3294 -0.1194
33507W        W52254  22.527  29.309  15.609  0.0404  0.2526 -0.3623
33508W        W52255  22.845  10.242  15.653 -0.1671 -0.0060  0.1619
33509W        W52256  19.477   5.750  23.050 -0.0137  0.0571  0.2505
33510W        W52257   3.794  25.871   0.926  0.2886 -0.1791 -0.0287
33511W        W52258  30.815  16.848  22.428 -0.0804 -0.3897  0.3951
33512W        W52259  29.467   3.068  17.420  0.2702 -0.1452  0.0088
33513W        W52260  31.910  20.140  21.823  0.2824 -0.4634 -0.4245
33514W        W52261   1.303  15.720   9.807  0.1296 -0.1934 -0.3271
33515W        W52262  30.706   7.534  23.536  0.0030  0.1115  0.1783
33516W        W52263  13.305  10.008  22.649 -0.0721  0.1353 -0.1542
33517W        W52264   5.050   6.246   5.041  0.1726 -0.2067 -0.2152
33518W        W52265  20.201  22.615   1.566 -0.4321 -0.1756 -0.1482
33519W        W52266   0.971  10.366  23.981  0.1942 -0.0265 -0.0588
33520W        W52267   7.048  32.635  21.696  0.1510  0.2059  0.0370
33521W        W52268  23.531  33.213  15.297  0.2823 -0.2479 -0.2593
33522W        W52269  13.333  13.274  20.498  0.1376  0.0559  0.4225
33523W        W52270   1.288  17.111  11.371 -0.2511  0.0698 -0.0203
33524W        W52271   9.432  30.136   8.954 -0.0920 -0.1310  0.0775
33525W        W52272   4.172  18.140  23.849  0.3418 -0.4036 -0.3683
33526W        W52273  27.872  14.457  10.906  0.0158  0.0454  0.1265
33527W        W52274  33.103  26.375  23.006  0.1568  0.1157  0.1329
33528W        W52275  17.277  20.544   0.403 -0.0617 -0.0599  0.0917
33529W        W52276  17.493   6.455  18.514 -0.0736 -0.2760 -0.1318
33530W        W52277  10.463  20.891  24.399  0.0201 -0.5065 -0.1934
33531W        W52278   4.522   1.171   7.400  0.2941  0.0597  0.3059
33532W        W52279  30.892   8.513  21.932 -0.1898 -0.0295 -0.2715
33533W        W52280  10.328  14.299  25.280 -0.0845  0.4697 -0.3589
33534W        W52281  20.663   3.154  25.670 -0.1389 -0.0869  0.0979
33535W        W52282  16.702  23.220  13.606 -0.0331 -0.0055 -0.0711
33536W        W52283  16.767   7.777  22.404 -0.1769  0.1244 -0.0204
33537W        W52284   7.754   6.614  10.389  0.0691  0.0876 -0.1310
33538W        W52285  10.020   5.340  14.554  0.0687  0.1091 -0.0952
33539W        W52286  15.739  29.636  10.631 -0.0418 -0.0190  0.2430
33540W        W52287  26.563  14.735  16.176  0.2974  0.2256  0.0071
33541W        W52288  18.735  33.594  21.542  0.0753  0.2854 -0.3605
33542W        W52289   0.880  11.614  21.781 -0.0628  0.0657 -0.2482
33543W        W52290  32.551  12.846  15.102  0.0117 -0.2820  0.3679
33544W        W52291  22.023   1.987  25.340  0.1451  0.3009 -0.2523
33545W        W52292  15.431  31.591  20.119 -0.3249  0.1615  0.0467
33546W        W52293  17.500  17.170  20.159 -0.0198  0.0058  0.1949
33547W        W52294  31.103  33.013  23.694  0.0132  0.1972  0.5408
33548W        W52295   6.719   7.403  24.456 -0.1104 -0.1036  0.1279
33549W        W52296   9.271  34.398   1.657  0.0406  0.3176 -0.0198
33550W        W52297   1.691  35.115  24.475  0.0147  0.0956  0.0583
33551W        W52298  23.107  14.448  13.530 -0.1592 -0.0784 -0.0132
33552W        W52299  26.191  34.987   4.885  0.1477 -0.1856  0.0294
33553W        W52300  12.396  21.601   0.359 -0.4433  0.2113 -0.0050
33554W        W52301  10.781  19.238  25.380  0.0366  0.1429  0.2979
33555W        W52302  25.662  21.244  10.105  0.2955 -0.0174 -0.1653
33556W        W52303  11.805  13.813   7.089  0.1374 -0.2369 -0.1599
33557W        W52304   2.146   0.692  23.386  0.2875  0.0835  0.0624
33558W        W52305  19.818  32.463   5.992 -0.2002 -0.1071 -0.0284
33559W        W52306  11.162  26.755  24.029 -0.0780 -0.2561 -0.1286
33560W        W52307  21.727  15.442  16.565  0.2595  0.3121  0.0364
33561W        W52308  34.039  30.194  17.671  0.3861 -0.2361  0.0832
33562W        W52309  24.896  19.658  26.212  0.1544  0.0869  0.3151
33563W        W52310   4.651  26.052  21.665 -0.2035  0.0445  0.1124
33564W        W52311   6.419   7.590   4.010  0.2139 -0.0257  0.0328
33565W        W52312  12.888  19.386  22.284 -0.0009 -0.4139  0.0100
33566W        W52313   1.470  13.964  12.243  0.2385 -0.1447 -0.3059
33567W        W52314  35.077  22.209  15.097  0.0592  0.0456  0.1615
33568W        W52315  21.875  20.371   2.505 -0.1873 -0.0132  0.0462
33569W        W52316  12.555  25.323   8.993  0.1118  0.1033  0.0761
33570W        W52317  14.485  17.269  25.022 -0.1181  0.0136  0.3675
33571W        W52318  18.826   3.720  26.031 -0.0068 -0.0994  0.1389
33572W        W52319  29.967   2.474   2.731 -0.0353 -0.2445  0.1574
33573W        W52320  29.276   4.987   3.723  0.0568  0.2345  0.2335
33574W        W52321  14.753  22.660   2.865 -0.0096  0.0825 -0.5513
33575W        W52322  29.343   0.116  23.555  0.0708 -0.1209 -0.2236
33576W        W52323   1.290  29.714   3.359  0.0193  0.1510 -0.2444
33577W        W52324  27.820  27.970   9.822  0.1005  0.2267  0.2765
33578W        W52325  29.851  31.483  13.365  0.3048  0.0182 -0.2763
33579W        W52326  21.595  35.284   4.263 -0.1233 -0.0355 -0.2388
33580W        W52327  13.493  18.948  14.811  0.3041  0.1628  0.2141
33581W        W52328   5.315  11.093   5.839 -0.0537  0.0349  0.0267
33582W        W52329  20.570  15.689  25.718  0.1921 -0.0137 -0.0818
33583W        W52330   5.441  31.883   4.755 -0.1964  0.0727  0.1741
33584W        W52331   6.733  30.866  13.048 -0.3347  0.0628 -0.0374
33585W        W52332  32.009  26.959  25.964  0.1350  0.2042 -0.0118
33586W        W52333  16.489   8.277   4.181 -0.2642 -0.1200  0.0392
33587W        W52334  10.241  34.815  22.103  0.2798  0.2090  0.0615
33588W        W52335  21.376   1.519  14.446  0.1101  0.1446 -0.1183
33589W        W52336  17.879  20.963  25.907  0.1246  0.2170 -0.0054
33590W        W52337   9.286  25.624  17.217  0.3231  0.1897  0.0942
33591W        W52338  24.288   5.272  22.311  0.0072 -0.2287 -0.1752
33592W        W52339  20.802  29.985  17.388 -0.3990 -0.0024  0.2261
33593W        W52340  12.552  21.097  22.854 -0.1779  0.0663  0.4236
33594W        W52341  13.727  33.229   3.352 -0.2065  0.0560  0.0773
33595W        W52342  10.994  13.800  12.638  0.0791 -0.1181 -0.2115
33596W        W52343   2.192   8.450   2.329  0.0673 -0.2929  0.1200
33597W        W52344   5.172   8.619   3.085 -0.0355  0.1744 -0.1462
33598W        W52345   1.037   1.543  22.997  0.3341 -0.1469  0.0725
33599W        W52346  19.670  27.886   8.264 -0.1559 -0.0688 -0.0251
33600W        W52347  17.021  31.327  19.316 -0.0160  0.1539 -0.0889
33601W        W52348   1.815  18.343  21.050  0.1925 -0.0794  0.3691
33602W        W52349  10.147  30.198   0.227  0.2047  0.2926  0.2725
33603W        W52350  33.365  30.139  15.257  0.0603  0.1903 -0.0086
33604W        W52351   2.158  25.711  22.235 -0.1074  0.3077 -0.0854
33605W        W52352   2.614  13.288   2.175  0.1465  0.0393 -0.1124
33606W        W52353  11.776  11.185  21.998 -0.0711  0.0527  0.1179
33607W        W52354  29.489  10.924  22.197 -0.4137  0.0274  0.1345
33608W        W52355   9.061  29.191   7.623 -0.1019  0.3006  0.1253
33609W        W52356  15.054  18.201   6.199  0.1171 -0.0936  0.4146
33610W        W52357  17.859  33.800   6.345  0.4263  0.0554  0.2430
33611W        W52358   0.222   9.414  16.506 -0.0527  0.4352  0.0526
33612W        W52359  19.771  33.635   6.665 -0.1040  0.0036 -0.1796
33613W        W52360  27.249  29.106  12.370 -0.1378  0.2129 -0.0341
33614W        W52361  27.314  33.807  14.865 -0.0991 -0.1705 -0.2384
33615W        W52362   9.272   8.695  11.343 -0.1175  0.0837  0.0776
33616W        W52363  24.457  27.328  23.316 -0.0146 -0.4407 -0.2695
33617W        W52364   2.661  15.720  13.229 -0.0812 -0.0875  0.0830
33618W        W52365  27.240  24.148  18.264  0.1557  0.1365 -0.0371
33619W        W52366  26.656   7.672  16.851 -0.1716  0.2345  0.0934
33620W        W52367  16.624  27.800   6.607  0.0913 -0.0230  0.0519
33621W        W52368   4.265  22.539   1.063 -0.0981  0.0204  0.0061
33622W        W52369  23.637  30.825   2.430  0.0186 -0.2459 -0.3457
33623W        W52370   2.002  12.009  17.149  0.1524 -0.0133  0.1644
33624W        W52371  14.212  13.347  10.526 -0.2685 -0.2629 -0.2260
33625W        W52372   8.175   1.531  19.070 -0.3214  0.1045 -0.1617
33626W        W52373   9.373  35.085   4.427 -0.3039 -0.0527  0.1537
33627W        W52374  18.108  26.452   8.935 -0.1493 -0.3666 -0.2253
33628W        W52375  34.685  31.976   5.519  0.1611 -0.1057  0.2558
33629W        W52376  35.268  18.181   8.818  0.0125  0.0772  0.1027
33630W        W52377  14.187  29.146  10.948 -0.1768 -0.0258 -0.1519
33631W        W52378  23.821  12.677  14.966  0.1656  0.0215 -0.0184
33632W        W52379  15.925   3.136   9.707 -0.0796  0.0006 -0.1255
33633W        W52380  18.999  19.000   4.004  0.1571  0.1501  0.2459
33634W        W52381  25.120  23.792  20.918 -0.2141  0.1557 -0.1141
33635W        W52382  30.120   4.597  12.914  0.1876  0.0011  0.0384
33636W        W52383   3.634  34.066  23.036 -0.0031 -0.1111 -0.2396
33637W        W52384  18.298  34.502  19.111 -0.3193 -0.0148  0.2023
33638W        W52385  18.250  29.431   9.750 -0.0168 -0.0147  0.1770
33639W        W52386   6.432  13.316   4.285  0.1983  0.0762  0.1020
33640W        W52387  21.238  13.985   0.507  0.0141 -0.2239  0.1705
33641W        W52388  29.699  15.465   9.959 -0.0431  0.0423  0.1313
33642W        W52389  24.439  25.005  10.061 -0.3060 -0.0972 -0.1551
33643W        W52390   2.113   1.890   6.573  0.0377  0.1241 -0.0134
33644W        W52391  24.980  11.779  22.006 -0.1107  0.0997 -0.2452
33645W        W52392  12.314  29.351  16.464 -0.1497  0.0857  0.0685
33646W        W52393   9.129  10.401  10.470  0.1180  0.3499 -0.0282
33647W        W52394   0.602  33.931  15.737 -0.0716  0.0315  0.3790
33648W        W52395  12.988  15.474  13.887 -0.4429 -0.3377  0.0897
33649W        W52396  31.948  11.729   8.304  0.0777  0.1318  0.2000
33650W        W52397  13.676  31.255  11.972 -0.4495 -0.1543  0.0615
33651W        W52398   5.021  23.869   5.542  0.0271 -0.0485  0.1334
33652W        W52399  22.574   3.537  15.959 -0.5148  0.0371  0.0560
33653W        W52400  22.105   1.760   7.255  0.2704 -0.0172  0.2700
33654W        W52401   6.409  11.232  25.549 -0.2081 -0.5558  0.1193
33655W        W52402  35.253  29.183  18.840  0.1492 -0.2201  0.2277
33656W        W52403  24.070  18.915  11.227 -0.1745  0.1749 -0.0645
33657W        W52404  25.382  24.362   0.437  0.3378  0.2314 -0.0601
33658W        W52405   2.226  30.528   4.847 -0.3104 -0.1056 -0.1849
33659W        W52406  20.514   8.005  17.326  0.0411 -0.0440 -0.1025
33660W        W52407  12.845  20.328   1.594  0.0374  0.0988 -0.2596
33661W        W52408  29.430  19.972  19.587 -0.0673  0.3041  0.1190
33662W        W52409  27.633   6.122  13.290 -0.2754 -0.0140  0.1039
33663W        W52410  22.193  28.483   0.157  0.1874  0.2301 -0.1635
33664W        W52411  16.562  26.224   3.992  0.2139 -0.0928 -0.4701
33665W        W52412  16.380  20.075   9.625  0.2564 -0.0853  0.1541
33666W        W52413  15.626  20.416   6.215  0.1170  0.1052 -0.3003
33667W        W52414   0.780   8.852  24.122 -0.2639 -0.2708  0.2481
33668W        W52415  19.785  18.455   2.197 -0.2536 -0.1619 -0.2457
33669W        W52416  17.852  19.235  21.547 -0.0931  0.1226  0.0610
33670W        W52417  34.109   1.428   7.721  0.1290  0.1337 -0.1660
33671W        W52418  20.055   6.261  15.942 -0.3491  0.1474  0.0208
33672W        W52419  31.498  23.617   7.549  0.0058 -0.0208 -0.2298
33673W        W52420  19.470   2.363  14.915 -0.1956  0.1926 -0.1609
33674W        W52421  27.446   2.923   3.838  0.0929  0.0106 -0.1144
33675W        W52422  34.534  34.749  25.318  0.1911  0.0766  0.1292
33676W        W52423  28.726   2.155   0.823 -0.0566  0.2325 -0.0386
33677W        W52424  13.556   1.094   2.354  0.1300 -0.1430 -0.0924
33678W        W52425  28.334   7.322  20.876 -0.4341  0.1251 -0.2439
33679W        W52426   6.472  28.876  22.793 -0.1899 -0.0316 -0.1421
33680W        W52427  32.812  27.477  26.124 -0.0984  0.1634  0.0159
33681W        W52428  13.669   9.535  25.997 -0.0079  0.0568  0.0244
33682W        W52429  21.171  35.190  25.407  0.0642  0.4010 -0.3386
33683W        W52430  23.961   0.963   4.557 -0.0389 -0.0199  0.2237
33684W        W52431  14.856  12.188   5.740 -0.0381  0.0577 -0.0830
33685W        W52432   6.680  31.040   6.673  0.0987 -0.2698  0.1103
33686W        W52433  20.603   0.588   2.812 -0.0661  0.1543  0.3058
33687W        W52434  22.012   1.815  26.178  0.0942 -0.1942 -0.3449
33688W        W52435   9.699  11.294   6.994  0.1382  0.1915 -0.3101
33689W        W52436  32.748   5.669  23.299 -0.0713 -0.2001 -0.2436
33690W        W52437  34.825  34.170  18.216  0.0089  0.0119  0.1041
33691W        W52438  19.518  27.143   0.105 -0.1503 -0.1255  0.4700
33692W        W52439  18.882  30.825  25.279 -0.2821  0.2227  0.0785
33693W        W52440  15.167   2.131   0.334  0.1998 -0.0992 -0.0676
33694W        W52441  19.849   4.685   4.321 -0.2568 -0.0874  0.0193
33695W        W52442  16.979   3.929  19.382  0.1575  0.1485  0.0745
33696W        W52443  11.721  20.020   5.625 -0.0125  0.0499 -0.2042
33697W        W52444  13.331  32.814   8.223  0.0697  0.0738  0.0310
33698W        W52445  33.564  22.355  20.130  0.1293 -0.0158  0.6179
33699W        W52446  34.491  29.581   6.305  0.0994  0.1711 -0.0144
33700W        W52447  15.487  24.213   2.036  0.0751 -0.1864 -0.2437
33701W        W52448   2.383  24.251  17.709 -0.0182 -0.0236  0.3936
33702W        W52449   4.753  12.140  24.110 -0.1658 -0.1320  0.0843
33703W        W52450  19.928  24.641   0.027  0.1427 -0.0594 -0.0153
33704W        W52451   0.576   3.019  22.728  0.0099  0.0024 -0.3997
33705W        W52452  19.461   3.526   4.402  0.2583  0.0092  0.0579
33706W        W52453  21.165   0.679  14.512 -0.0906 -0.2084 -0.0230
33707W        W52454  23.334  24.542  22.060 -0.2265  0.1534 -0.1665
33708W        W52455  31.402  18.344  14.728 -0.0718  0.0305  0.0103
33709W        W52456  26.897  22.523   7.558  0.0835 -0.2078 -0.3411
33710W        W52457   0.559  10.260  24.844  0.0540  0.1452 -0.0383
33711W        W52458  25.813   2.654   5.863 -0.2149 -0.0911 -0.0375
33712W        W52459  18.227   5.411  11.037 -0.1865  0.0196  0.0627
33713W        W52460   2.986  29.822  19.703 -0.1035 -0.0142  0.2334
33714W        W52461   8.165  26.748  15.103  0.0705  0.0229 -0.0644
33715W        W52462  29.294  22.341  12.548  0.3840  0.1328  0.1507
33716W        W52463  33.468  27.697  16.946  0.2490  0.1462 -0.0422
33717W        W52464  26.699  21.257  12.257 -0.2589 -0.0289 -0.1818
33718W        W52465   2.591  19.296   3.605  0.0897  0.1611 -0.0566
33719W        W52466  15.932  31.530   7.000  0.0039 -0.1606  0.1508
33720W        W52467   8.537   0.667  10.917 -0.1610  0.0451 -0.0677
33721W        W52468  26.191  11.991  17.361  0.3468 -0.1354 -0.0632
33722W        W52469   1.920  29.792  23.109  0.1323 -0.0594 -0.1374
33723W        W52470  24.340  22.570  26.144 -0.0268  0.1701 -0.1537
33724W        W52471  27.267  17.714   8.680  0.0902  0.1733  0.0220
33725W        W52472  10.360  31.001  13.531 -0.1872  0.0169  0.0121
33726W        W52473   3.239  17.297   1.545 -0.1851  0.1155 -0.3679
33727W        W52474   2.238  30.808   7.064 -0.3419  0.0358 -0.5925
33728W        W52475  18.597   9.870   9.220  0.0703  0.0961  0.0202
33729W        W52476  15.473  13.275   1.814 -0.0052 -0.1523 -0.3508
33730W        W52477   1.630  17.346   2.358  0.0496  0.0717  0.2080
33731W        W52478   4.010  12.086   5.853 -0.1295 -0.3112 -0.4593
33732W        W52479  14.951  16.322  14.446 -0.2771  0.0709 -0.1706
33733W        W52480  25.661  12.558   0.242  0.0823 -0.1439  0.2755
33734W        W52481  16.155  14.433   9.437  0.0988 -0.1275 -0.0019
33735W        W52482  21.988   0.991  21.579 -0.0291 -0.0362 -0.0693
33736W        W52483  29.208  29.560  12.323  0.0801 -0.0482  0.2361
33737W        W52484   2.559  28.048  11.337 -0.0649  0.1816 -0.4344
33738W        W52485  17.951   2.389   0.799  0.0024  0.2565  0.1564
33739W        W52486  18.272  21.161   8.993  0.0313  0.0508  0.0682
33740W        W52487  20.414  10.785   2.780 -0.3185 -0.2632  0.0897
33741W        W52488  26.800  14.825  21.275 -0.2705 -0.0356  0.0643
33742W        W52489   6.477  26.400  14.744 -0.2141  0.0013  0.0001
33743W        W52490   8.710   3.878   6.093  0.0065 -0.2642 -0.0859
33744W        W52491  21.625  29.458  17.105 -0.1959  0.1282  0.0772
33745W        W52492  29.359  33.754  19.826 -0.0620 -0.2379 -0.0086
33746W        W52493  19.075  26.676   1.568 -0.1613  0.1120  0.2253
33747W        W52494  22.799  19.863  23.709  0.0438 -0.0525 -0.6928
33748W        W52495  34.431  30.241  23.576  0.0754  0.1431 -0.0342
33749W        W52496   4.091   0.593  17.676  0.0938 -0.1430 -0.1443
33750W        W52497  24.156  19.267  21.002  0.0105 -0.0419 -0.2959
33751W        W52498   3.338  26.859   0.952  0.1497 -0.0899 -0.1806
33752W        W52499  29.099  27.294  13.707 -0.0214  0.2138 -0.1438
33753W        W52500  10.802  23.533   4.803  0.3225  0.0597 -0.3295
33754W        W52501  19.358  22.800  23.786 -0.2992 -0.0381 -0.1334
33755W        W52502   5.699  19.499   6.860 -0.4437 -0.3167  0.0388
33756W        W52503   3.542  14.060  20.457  0.1489  0.2280  0.2936
33757W        W52504  23.033  24.091  13.735 -0.0138  0.2215  0.1738
33758W        W52505  10.840  33.272  11.233 -0.0206 -0.2180 -0.2681
33759W        W52506  20.719   0.563  23.938 -0.1489 -0.2016  0.1118
33760W        W52507  30.317  14.061  10.995  0.1184 -0.0767  0.1083
33761W        W52508  27.410  28.073  12.484  0.0776 -0.1421 -0.2083
33762W        W52509  27.787  35.055  24.935  0.2555  0.1693 -0.0765
33763W        W52510  29.150  25.030  18.444 -0.0792 -0.2510 -0.0702
33764W        W52511   6.202  28.869  13.092 -0.0601  0.1328  0.1300
33765W        W52512  15.444  25.680   8.444  0.1745  0.1849  0.0297
33766W        W52513  10.659   8.704   6.230  0.0445  0.2437 -0.0059
33767W        W52514   2.922   1.513  24.057  0.0606  0.0732  0.0723
33768W        W52515  19.528   4.697   8.982  0.3497  0.3048 -0.0194
33769W        W52516  14.517  12.022  20.127  0.0156  0.0405  0.0166
33770W        W52517  34.504  11.319  10.626 -0.1495  0.1587 -0.3924
33771W        W52518  10.025  16.275  10.951 -0.2287 -0.2894  0.1944
33772W        W52519   2.232  34.540   8.794 -0.1049  0.1281 -0.1090
33773W        W52520  27.906  19.043  15.960 -0.1373  0.2733 -0.0334
33774W        W52521  17.419  30.428   7.171  0.0659  0.2159  0.0051
33775W        W52522  10.462   7.764  21.634  0.0469 -0.1114  0.0305
33776W        W52523  12.719  11.644   2.235 -0.1353 -0.1197 -0.4911
33777W        W52524  12.211  27.569   7.875  0.0213  0.0270  0.0892
33778W        W52525  14.650  11.801   1.505 -0.1543 -0.3058 -0.0834
33779W        W52526   0.463  22.169  16.266  0.4308 -0.0662 -0.1852
33780W        W52527  25.211   7.301  12.536  0.2551  0.2095 -0.0811
33781W        W52528   5.683  11.453   5.215 -0.0499  0.1582  0.0810
33782W        W52529  31.207   6.450  24.960 -0.1478  0.0383 -0.1163
33783W        W52530  25.030  29.214  20.656  0.1890 -0.0489  0.0475
33784W        W52531  34.226  16.258  13.679 -0.3116 -0.0915 -0.3227
33785W        W52532  18.188  11.934  25.496  0.1260  0.2348  0.3129
33786W        W52533   2.325  24.269   2.412  0.1501 -0.1268 -0.2134
33787W        W52534  11.212   4.375  19.368 -0.0684  0.1164  0.2793
33788W        W52535  25.129  32.671   4.049 -0.0845 -0.1138  0.0386
33789W        W52536   2.463  32.019   8.257 -0.0948 -0.2016  0.0472
33790W        W52537   5.144   7.183   1.415 -0.3218  0.2361  0.0204
33791W        W52538  20.721   4.965  23.700  0.1653 -0.0773  0.0968
33792W        W52539  13.164   7.531   5.450 -0.0804  0.0513  0.0520
33793W        W52540  31.959  32.410  21.389  0.3089  0.0769  0.2086
33794W        W52541  33.947   2.142   7.788  0.4131 -0.2631 -0.1698
33795W        W52542  12.125   8.904  20.594 -0.4828 -0.3144 -0.0714
33796W        W52543  14.805  25.966  22.844 -0.2823  0.0699 -0.1030
33797W        W52544   3.594   0.767  19.110 -0.0147  0.0815  0.0286
33798W        W52545   2.649  24.611  20.784  0.1327  0.1661  0.0473
33799W        W52546  34.011  14.015   1.696  0.2827  0.4984 -0.1288
33800W        W52547  10.244  17.478  23.174 -0.1404  0.2029 -0.0330
33801W        W52548  22.832  32.550  15.872 -0.0530  0.2057  0.1581
33802W        W52549   0.542  25.152  16.756 -0.0392  0.3664 -0.0293
33803W        W52550  32.187  18.688   5.457  0.0451 -0.1508 -0.3505
33804W        W52551  10.933  29.528  24.259  0.0954  0.1794  0.2606
33805W        W52552  22.338  13.159  20.243 -0.0298  0.2316  0.1670
33806W        W52553   2.470   0.602   6.686 -0.4027 -0.0229 -0.0391
33807W        W52554   4.401  30.102   4.498  0.0612  0.3713 -0.1068
33808W        W52555  30.961  35.170  23.095  0.2372  0.1383  0.2633
33809W        W52556   8.134   1.309  24.472  0.2299 -0.1780  0.0795
33810W        W52557  14.859  28.755  21.647  0.1318  0.0327  0.1907
33811W        W52558  12.396   7.084  14.265 -0.1276 -0.2069  0.0150
33812W        W52559  34.357  21.492  19.686 -0.1556  0.0567 -0.2344
33813W        W52560  11.343   1.205   3.045 -0.0337 -0.1783 -0.1352
33814W        W52561  19.593  18.201   8.901  0.2888  0.2706 -0.2038
33815W        W52562  30.178  32.020  22.199 -0.0668  0.2462  0.0787
33816W        W52563  16.490   9.664  10.441  0.2004 -0.0372 -0.4107
33817W        W52564  15.768  19.808   3.635  0.3017  0.0505  0.0786
33818W        W52565   6.391  19.754   2.593 -0.0428 -0.0259  0.2055
33819W        W52566   2.657  19.775  18.668 -0.4252 -0.1921 -0.0147
33820W        W52567  30.895  18.130   7.577 -0.1965 -0.1914 -0.0315
33821W        W52568  12.620  25.284  14.915  0.0521 -0.1461  0.3521
33822W        W52569  12.313  18.877   3.029 -0.0286  0.0627  0.0198
33823W        W52570   7.630   7.361  24.834  0.0159 -0.1662 -0.0587
33824W        W52571  27.522  24.553  19.047  0.1118  0.0964 -0.3337
33825W        W52572  27.317  15.350   7.240 -0.1574 -0.1542  0.0621
33826W        W52573  24.275   8.516   1.420  0.0362  0.0636  0.3644
33827W        W52574   2.160  15.784  20.365  0.0406  0.1421  0.1139
33828W        W52575   3.856   3.225  19.736  0.1278 -0.2758  0.0304
33829W        W52576  17.900  28.519   7.835 -0.1243 -0.1787  0.1820
33830W        W52577  33.148  29.135   4.699  0.0468 -0.0601  0.1332
33831W        W52578   5.053   5.900  20.614 -0.0425  0.1617 -0.1374
33832W        W52579  23.440  29.205  23.481  0.1582 -0.0233  0.1933
33833W        W52580   3.671   9.936  20.893 -0.1047  0.0499  0.0889
33834W        W52581  24.503   1.807  22.093  0.1142  0.2362  0.0404
33835W        W52582  23.285   4.662   5.337  0.1964  0.4421 -0.0782
33836W        W52583  20.620  35.300   8.164  0.0488  0.2200  0.2141
33837W        W52584  18.402   2.731   4.194 -0.1205  0.0436 -0.2811
33838W        W52585  15.780  31.705   8.616  0.0484 -0.0804 -0.0421
33839W        W52586  16.377  16.358  25.252  0.2606  0.2727 -0.0495
33840W        W52587  17.053   1.871   1.846  0.6301 -0.0035  0.0745
33841W        W52588   1.984  11.216  17.227 -0.0833  0.0889 -0.0283
33842W        W52589  20.616  30.229   1.089  0.0542 -0.2914  0.2957
33843W        W52590  31.654  15.986  15.852  0.1227 -0.0798 -0.2586
33844W        W52591  15.171  24.753  11.329  0.0077 -0.0075 -0.3331
33845W        W52592  15.378  14.441   5.662 -0.0102  0.2140  0.3751
33846W        W52593  14.480  22.083   6.807  0.1339  0.1785  0.0547
33847W        W52594   4.733  15.774   7.384  0.0887 -0.0603  0.0191
33848W        W52595  27.479  19.473   8.977  0.1408  0.2420  0.0627
33849W        W52596   4.274  18.637   5.058 -0.1683  0.3414 -0.0985
33850W        W52597   2.614  15.014  25.802  0.0294  0.4137  0.0161
33851W        W52598   4.616  19.637  18.308  0.0524 -0.1714  0.1783
33852W        W52599  11.975  11.724  20.588 -0.0048 -0.2052  0.2414
33853W        W52600  34.748  32.207   3.147  0.1052 -0.0404 -0.2037
33854W        W52601  26.479   1.347  11.529 -0.1053 -0.0733  0.0016
33855W        W52602   3.490  26.155  21.048 -0.0570  0.1950 -0.2697
33856W        W52603  15.714   9.501  22.990  0.1997 -0.4090  0.2218
33857W        W52604  14.590   4.588   5.001  0.0846  0.1668  0.0573
33858W        W52605  24.800  12.367   0.288 -0.1114  0.2365  0.0310
33859W        W52606  32.059  32.265  21.900  0.2675 -0.0963 -0.1424
33860W        W52607  32.367  26.477  16.066 -0.1819  0.3748 -0.3582
33861W        W52608   9.688  32.250   5.998 -0.2293  0.3241 -0.1065
33862W        W52609  19.989   7.800  24.601 -0.1618 -0.3385 -0.0157
33863W        W52610  13.131  16.458   7.035 -0.0887  0.1844 -0.2696
33864W        W52611   5.769  16.252  21.687 -0.3872 -0.0607  0.2937
33865W        W52612  34.876  25.564  25.863 -0.0565 -0.1376 -0.0648
33866W        W52613  13.652  20.476  25.906 -0.0699 -0.0192  0.1685
33867W        W52614   5.331  26.958  24.214 -0.1153 -0.0383  0.1196
33868W        W52615  18.220  10.254   6.116  0.0259 -0.0068  0.1532
33869W        W52616  15.656  13.653   2.596 -0.2391  0.1493  0.1034
33870W        W52617   1.414  17.624   2.839  0.0159  0.1759 -0.0437
33871W        W52618  26.336  12.008  10.458 -0.3009 -0.0433  0.3635
33872W        W52619   1.249   9.900   2.457 -0.1537  0.0949 -0.1130
33873W        W52620   6.763  34.212   2.087  0.2365 -0.1095  0.2527
33874W        W52621  18.830  31.056   6.426 -0.1510 -0.1002 -0.2050
33875W        W52622  11.294  24.416   5.337 -0.3518  0.0655 -0.0340
33876W        W52623  11.057  20.848   1.214 -0.1874  0.1935  0.3675
33877W        W52624   8.329  27.381   1.621 -0.0971 -0.3579  0.4389
33878W        W52625  33.810   4.630   0.982  0.0026 -0.0637  0.0769
33879W        W52626  25.167   5.980   3.126  0.1464 -0.0511  0.2973
33880W        W52627   5.031  22.161   3.030 -0.1243 -0.2076  0.2720
33881W        W52628  28.663  25.693  24.727 -0.2392 -0.0250 -0.1320
33882W        W52629  29.306  29.819  22.360 -0.0347 -0.1431  0.1670
33883W        W52630  30.737   9.889  18.519  0.1412 -0.0152 -0.1683
33884W        W52631  10.266  21.186  13.622 -0.2286 -0.2669 -0.1213
33885W        W52632  12.005  19.894   5.259 -0.1283 -0.2363 -0.0408
33886W        W52633   9.783  14.856  10.336  0.2166 -0.0672 -0.3653
33887W        W52634  11.298  15.818   2.412  0.1049  0.1031 -0.0062
33888W        W52635  34.493  19.278   9.925 -0.1141 -0.0288 -0.3186
33889W        W52636  30.942  32.549   2.938  0.0072  0.1497 -0.1355
33890W        W52637  24.081  35.029  22.592  0.4009 -0.1770  0.0196
33891W        W52638  24.894  26.715  16.387  0.2087  0.4257 -0.1271
33892W        W52639   7.448   8.661   7.992  0.0353 -0.2170 -0.1328
33893W        W52640   1.617  14.240  16.522  0.3603  0.1431 -0.0501
33894W        W52641  22.028   1.558  17.016 -0.0112  0.0916  0.4356
33895W        W52642  33.966  27.777  17.013 -0.2348 -0.0867  0.1745
33896W        W52643  30.065   9.885  14.138 -0.0999  0.0963  0.0170
33897W        W52644   5.697   0.525   8.695 -0.0368 -0.0576  0.2010
33898W        W52645  21.035   6.782  24.926 -0.3748 -0.1863 -0.1080
33899W        W52646  24.489  32.666  10.878 -0.1231 -0.2174  0.1817
33900W        W52647   5.362  32.045   6.527 -0.1492  0.0423 -0.0009
33901W        W52648  22.186  22.470  16.583  0.0447 -0.1498 -0.2331
33902W        W52649  33.522  29.896  19.612  0.0311  0.1287 -0.0410
33903W        W52650  16.507   4.132  11.357 -0.1290  0.0001  0.1210
33904W        W52651   0.661  24.226   3.553  0.2611 -0.3458 -0.0595
33905W        W52652   8.750  27.307  21.927 -0.2959 -0.1246  0.0299
33906W        W52653  29.260  12.228  18.370  0.2462 -0.1277  0.0726
33907W        W52654  29.274   1.509  24.639  0.1937 -0.0860 -0.2190
33908W        W52655  29.998   8.762  17.248 -0.2486  0.0265  0.1729
33909W        W52656  28.142   3.774  20.235  0.0203 -0.0998 -0.1537
33910W        W52657  28.277  26.213  23.088  0.0084  0.0598 -0.1517
33911W        W52658   1.672   3.142   1.660  0.0350  0.1427 -0.0240
33912W        W52659  29.450  12.015  10.003  0.2344 -0.2300  0.4098
33913W        W52660   8.391  24.563  24.104 -0.1903 -0.1009 -0.1035
33914W        W52661  24.933   9.138  19.267 -0.1535  0.0312  0.2871
33915W        W52662  20.071  26.604   0.556  0.3014  0.1717 -0.1764
33916W        W52663  33.474  19.368   6.554  0.0169  0.0627 -0.1371
33917W        W52664  17.089  32.757  10.877 -0.0804 -0.0783  0.2166
33918W        W52665   9.227  13.288  11.009 -0.3628  0.2211  0.0342
33919W        W52666  14.520  30.009  13.145 -0.1462  0.0865  0.0216
33920W        W52667  13.881  13.784  13.343  0.2996  0.0922 -0.1410
33921W        W52668  26.501   6.319   0.793 -0.2950  0.2835  0.1061
33922W        W52669  32.144   8.748  12.169  0.0176  0.1206 -0.2725
33923W        W52670  27.225  13.063   0.161 -0.2618  0.3529 -0.0667
33924W        W52671  34.235   4.848   0.719  0.1158 -0.1544 -0.2827
33925W        W52672  20.319  19.381   0.873  0.1192  0.2673  0.1165
33926W        W52673  29.554  32.258   2.530 -0.1541 -0.1667 -0.2447
33927W        W52674  14.941  16.229  12.637  0.0174  0.1249  0.2688
33928W        W52675  19.833  23.736   0.930  0.2436  0.2970 -0.0243
33929W        W52676  16.961  21.783  23.430 -0.2043  0.2087  0.0837
33930W        W52677  10.420  10.904   4.491 -0.0004 -0.1013 -0.1031
33931W        W52678  13.628  20.893  10.354  0.0530  0.3152 -0.1173
33932W        W52679  31.225  14.109  18.778  0.2001 -0.1818 -0.1984
33933W        W52680  23.360   3.131   4.691 -0.0848 -0.3262 -0.1711
33934W        W52681   4.276  31.301  22.154  0.0340  0.1289  0.0568
33935W        W52682  22.343  15.492   2.322 -0.1609  0.2841 -0.1623
33936W        W52683  18.446   3.050   3.586 -0.0880  0.0232 -0.0341
33937W        W52684  25.679   0.682  25.050  0.0632 -0.1342  0.4002
33938W        W52685   5.321   5.315  18.140  0.2388  0.1398  0.0506
33939W        W52686  15.253  27.609  11.648 -0.5445 -0.0479  0.1224
33940W        W52687  31.254   4.733  19.421  0.1047 -0.0719  0.1781
33941W        W52688   2.198  30.290  23.828 -0.1390 -0.0061  0.0868
33942W        W52689  24.912   7.368   0.156  0.0106  0.0721 -0.1242
33943W        W52690  25.047  31.370  24.819 -0.1524 -0.0912  0.1847
33944W        W52691   9.594  10.891  19.797  0.0727 -0.2650 -0.0162
33945W        W52692  16.706  29.846   5.038 -0.0353 -0.1391  0.1579
33946W        W52693  26.654   4.988   3.063  0.1554 -0.1679 -0.1123
33947W        W52694  11.433  23.816   8.640  0.0309  0.0402 -0.1792
33948W        W52695  24.233   3.807   4.165 -0.0956 -0.3299  0.2530
33949W        W52696   7.113  28.257  15.935  0.0570  0.3284  0.4224
33950W        W52697  14.165   1.710  22.645  0.0870  0.2018 -0.0969
33951W        W52698  30.642  17.526  19.328 -0.1883 -0.4304 -0.1830
33952W        W52699  28.210  23.936  17.304 -0.2818 -0.1871 -0.4311
33953W        W52700   0.820  13.392   9.957  0.0610  0.0715 -0.2287
33954W        W52701  17.762  13.442   1.602 -0.1028 -0.1310 -0.1205
33955W        W52702  17.798   2.414   2.282  0.2665 -0.1453  0.0790
33956W        W52703  26.003  13.805  22.291  0.1989 -0.1531 -0.0440
33957W        W52704  34.937   4.160  18.165 -0.0531  0.0968 -0.0507
33958W        W52705   0.538  35.177   6.390  0.0480 -0.0368 -0.0119
33959W        W52706  19.841  21.909  22.648 -0.0964 -0.0398  0.1072
33960W        W52707   9.308  20.928  10.693  0.0359 -0.1069  0.1768
33961W        W52708  22.017  14.224  22.256 -0.2433 -0.0890 -0.0086
33962W        W52709  17.600  16.315  25.857 -0.0800  0.1739 -0.1457
33963W        W52710  33.660  31.611  18.648  0.5546  0.1649 -0.1421
33964W        W52711  29.591   8.397   8.665  0.0166 -0.1257  0.0239
33965W        W52712  16.731   0.108   3.047  0.1233 -0.1228  0.2821
33966W        W52713  35.333  24.406  12.837  0.1239 -0.1002  0.0331
33967W        W52714  14.158   8.556   3.892  0.1981  0.2073  0.0397
33968W        W52715  24.627  25.802  18.658 -0.2025  0.1211  0.0576
33969W        W52716  34.670  15.293  25.813  0.0959 -0.0618 -0.2749
33970W        W52717  30.070  10.554  25.256 -0.0136 -0.1894  0.1329
33971W        W52718   5.929   7.442  22.116  0.0010  0.1903  0.1727
33972W        W52719  15.523  33.589   6.162  0.1166  0.1156 -0.3293
33973W        W52720   5.567   6.209   2.885 -0.1220  0.3999  0.0644
33974W        W52721   7.101  31.274  12.729 -0.0353 -0.0265 -0.0097
33975W        W52722  13.475  17.291  10.068  0.1912 -0.3085  0.3980
33976W        W52723  21.258  23.422  19.424 -0.1116  0.2946 -0.0261
33977W        W52724  27.401  19.908  11.481  0.0246  0.0894 -0.1256
33978W        W52725  18.460  10.341   9.531  0.0917 -0.0412  0.3189
33979W        W52726  13.719   2.130   5.187 -0.1337 -0.0897 -0.0635
33980W        W52727  20.026   0.319   0.807  0.0585 -0.6178  0.1189
33981W        W52728  21.933  14.594  22.664  0.0700  0.2210 -0.2069
33982W        W52729  14.007  14.516  12.042 -0.1946 -0.0035 -0.1907
33983W        W52730  29.990   0.803  12.689 -0.0119  0.2671 -0.1962
33984W        W52731  16.236   1.390  10.048  0.0679  0.0600 -0.2873
33985W        W52732  20.223  17.745  23.931 -0.0028 -0.1358 -0.0431
33986W        W52733   4.222  25.519   1.125 -0.0550 -0.2772  0.0108
33987W        W52734  31.822  32.872  18.576 -0.0024  0.1082 -0.1107
33988W        W52735  30.798  24.364  14.780  0.0820 -0.2111 -0.1251
33989W        W52736  24.000  33.850  21.833 -0.2345 -0.0447  0.0925
33990W        W52737   1.915   6.550  16.273  0.0963 -0.2287 -0.0450
33991W        W52738  28.834  14.051  23.569  0.4489 -0.0162  0.5692
33992W        W52739  10.651  14.147   0.657 -0.4409 -0.1584 -0.0978
33993W        W52740  25.367   4.028   4.639 -0.1331 -0.5277 -0.2587
33994W        W52741  30.445  15.524  18.220 -0.1370  0.1112  0.0075
33995W        W52742   7.318  23.411   8.101  0.2990 -0.2996 -0.0623
33996W        W52743   1.036   0.751   0.773  0.2943  0.2703  0.4058
33997W        W52744   9.717  17.491   1.757  0.0964 -0.1308  0.0143
33998W        W52745  30.150  17.727  18.508  0.0168  0.2041  0.1709
33999W        W52746   5.694  17.203   2.856  0.0146  0.0223  0.1178
34000W        W52747   7.588  22.614  11.321  0.2467  0.3121  0.2543
34001W        W52748   5.663  16.418  21.235  0.1117 -0.4077  0.1990
34002W        W52749   8.520   8.556   9.262 -0.1074 -0.1166 -0.1769
34003W        W52750  34.054  18.644  23.358  0.0990  0.0271 -0.1109
34004W        W52751  19.707  31.507  23.839 -0.0510 -0.0165 -0.2211
34005W        W52752   1.543   4.165   1.973 -0.0642 -0.0225  0.1649
34006W        W52753   5.204  17.423   3.718 -0.1097 -0.0329 -0.0365
34007W        W52754  23.441   3.861   2.549 -0.3362  0.1343 -0.0665
34008W        W52755  25.572  22.000  22.895  0.1036 -0.1605 -0.0857
34009W        W52756  12.502  18.738  21.493  0.2884  0.0570  0.0770
34010W        W52757   6.799  16.506  19.511 -0.1006 -0.0501 -0.0663
34011W        W52758   0.182  33.399  14.916  0.0447  0.1860  0.2423
34012W        W52759   2.364  16.908  24.790  0.0414 -0.1038 -0.1460
34013W        W52760  21.940  18.352  23.588  0.0961 -0.0243  0.0031
34014W        W52761  29.801   7.431   9.072  0.0514  0.0869  0.1397
34015W        W52762  33.841   1.232  24.412 -0.0861  0.0477 -0.3578
34016W        W52763  12.008  12.764  20.792 -0.0165 -0.2564  0.3128
34017W        W52764  24.536  23.694  11.553  0.4386 -0.1352 -0.2006
34018W        W52765  10.650  25.797  12.928 -0.2441  0.1728  0.2878
34019W        W52766  28.912  33.949  11.763 -0.0144 -0.1868 -0.0345
34020W        W52767  29.653  31.641  21.740  0.1018  0.1779  0.0973
34021W        W52768  21.695  22.960   0.809  0.0780  0.0243  0.0675
34022W        W52769  23.279  13.726  24.793 -0.0669 -0.2335 -0.0080
34023W        W52770  26.464   7.983  15.509 -0.2394  0.0947 -0.4016
34024W        W52771  24.063  20.478  17.915 -0.2104 -0.2204 -0.1578
34025W        W52772  21.141   8.500   9.098 -0.0101  0.1626  0.0592
34026W        W52773   1.837   4.801  16.633  0.0513  0.1904 -0.0853
34027W        W52774  18.398   2.116   3.108  0.0261 -0.0490 -0.1088
34028W        W52775   0.711  13.412  17.067 -0.0293 -0.0949  0.0048
34029W        W52776   6.433  20.260   2.347 -0.0161 -0.2328 -0.2144
34030W        W52777  15.094  23.858  11.533  0.0088  0.0009 -0.0169
34031W        W52778  17.072   8.060   0.785  0.2599  0.4587 -0.0374
34032W        W52779   5.115   4.815  20.576 -0.1198 -0.2147  0.0646
34033W        W52780  19.651   3.316  17.628  0.1020  0.1867 -0.0151
34034W        W52781   7.690  31.835  23.702  0.0558  0.1675 -0.1564
34035W        W52782   7.450   5.079   0.994 -0.0296 -0.0829  0.0684
34036W        W52783  24.660   7.861  18.190  0.3271 -0.2127  0.1040
34037W        W52784   2.201  29.722  21.241  0.1764 -0.2432 -0.0244
34038W        W52785  18.448  33.553  21.068  0.2305  0.1150 -0.2628
34039W        W52786  16.894   4.280  24.272 -0.1625 -0.3340 -0.1297
34040W        W52787  30.452  12.025  22.437 -0.0024  0.0081  0.0984
34041W        W52788  16.765   9.222   9.107 -0.4272 -0.2894 -0.1308
34042W        W52789   4.621  33.920   1.157 -0.0398  0.1467  0.0105
34043W        W52790  23.969  18.502  25.638 -0.0847  0.1493 -0.2195
34044W        W52791   8.347   6.219   8.364 -0.2115  0.0892  0.0055
34045W        W52792  27.000  11.355  15.680 -0.0390 -0.1419 -0.5218
34046W        W52793  20.002  15.855   0.799  0.2561  0.0382  0.1058
34047W        W52794  31.429   6.101   4.114 -0.1853  0.1267 -0.1594
34048W        W52795  22.204  29.275  16.910 -0.0243 -0.0163  0.1082
34049W        W52796  24.032  15.541   0.989  0.1002 -0.0083 -0.0793
34050W        W52797   0.769  21.117  17.782 -0.1911  0.1392 -0.3437
34051W        W52798   0.009   6.527  20.703  0.3035  0.6468 -0.0238
34052W        W52799  18.062  33.198  21.142  0.0236 -0.0624 -0.0040
34053W        W52800   6.593  33.435   4.237 -0.0559 -0.2001  0.1316
34054W        W52801  24.475  27.827   1.846 -0.3385  0.0251  0.1472
34055W        W52802  25.024  28.742  22.210  0.2018  0.1023 -0.0823
34056W        W52803  18.330  25.708   3.631 -0.0314 -0.1497 -0.1530
34057W        W52804  34.546   1.645  21.020 -0.2530  0.0896 -0.2013
34058W        W52805   1.715  15.385  17.987 -0.0868 -0.1857  0.1002
34059W        W52806  27.672  24.488  18.136  0.2945  0.2988  0.1682
34060W        W52807   6.429  27.047   9.661 -0.0680 -0.1827 -0.2783
34061W        W52808   8.265   8.578   4.694  0.1599 -0.0996  0.1060
34062W        W52809  28.221  17.122  10.381  0.2672 -0.1248 -0.2596
34063W        W52810   7.111   7.473  26.098 -0.0952  0.0122 -0.0446
34064W        W52811  25.049   1.152  18.091  0.3784 -0.1700 -0.3631
34065W        W52812   9.040  25.694   1.155  0.1362 -0.0593  0.0576
34066W        W52813  22.137  20.489  20.772 -0.0387 -0.2259 -0.1208
34067W        W52814  16.544   7.273  19.026  0.1821  0.1419 -0.1919
34068W        W52815  28.778  23.157  20.787  0.0645 -0.2966 -0.2109
34069W        W52816   1.972  31.174  22.853  0.3927 -0.1762  0.3771
34070W        W52817   5.939  24.948   5.053  0.0081 -0.0308 -0.2205
34071W        W52818  14.973  30.588   7.134 -0.1274 -0.1981  0.3107
34072W        W52819   2.233  12.900  15.638 -0.1582 -0.1442  0.0546
34073W        W52820  30.284  33.667  26.148  0.0330 -0.1925 -0.0259
34074W        W52821  30.421   8.531  15.139  0.0401 -0.0328  0.1140
34075W        W52822  28.234  33.552  21.339  0.2671 -0.1331 -0.0067
34076W        W52823  33.975  15.601  15.224 -0.1373 -0.4291  0.3017
34077W        W52824  30.180  14.586  22.349  0.2793  0.1036  0.0564
34078W        W52825  26.019   3.810  13.497 -0.2248 -0.1930  0.1013
34079W        W52826  26.596   3.311   1.181 -0.2036 -0.1527 -0.1636
34080W        W52827  31.200   9.336  11.318  0.2154 -0.3397 -0.0917
34081W        W52828  26.103  22.985  25.938  0.3057 -0.1724  0.0378
34082W        W52829  26.793  24.104  11.719  0.0092  0.0440 -0.2976
34083W        W52830   8.442   8.566  13.218 -0.2878  0.0731 -0.0710
34084W        W52831  18.453  28.424   0.438  0.0633 -0.1973  0.0634
34085W        W52832  34.579   2.683  22.281 -0.0025 -0.0984 -0.0976
34086W        W52833  12.766   4.653  22.451  0.1812 -0.0449  0.0688
34087W        W52834  14.583   4.366   3.741 -0.0334 -0.0394  0.1618
34088W        W52835  15.920  32.976   5.136  0.0421 -0.0145  0.1543
34089W        W52836  12.198  11.209   7.341  0.0016 -0.3711  0.0271
34090W        W52837  28.039  21.593  11.910 -0.1284  0.0132 -0.1042
34091W        W52838   8.025  11.286  19.422  0.0520 -0.0710 -0.2677
34092W        W52839  20.055   5.115  22.817 -0.2105 -0.0007 -0.1749
34093W        W52840  31.281  12.336  25.084 -0.2031  0.1323  0.1860
34094W        W52841  32.999  15.591  16.146 -0.0887 -0.0978  0.2720
34095W        W52842  28.160   2.632  23.744 -0.2957  0.4147 -0.4343
34096W        W52843  29.131  30.098  13.604 -0.1180 -0.1928  0.3139
34097W        W52844  28.714   4.968  22.253 -0.0352  0.1623 -0.1241
34098W        W52845  34.087  31.906   0.936 -0.0641 -0.1565  0.1256
34099W        W52846   0.313  28.118   5.722 -0.0770  0.0812  0.3582
34100W        W52847  34.048  24.982  17.051  0.0973  0.4066 -0.1280
34101W        W52848  22.249  23.564   2.824 -0.0461  0.0913  0.0318
34102W        W52849   1.242   6.667   1.384 -0.0111 -0.0062  0.0458
34103W        W52850   9.132  14.641  19.474 -0.1611 -0.1680  0.1144
34104W        W52851  10.506   8.506  21.441  0.1691 -0.2742  0.3752
34105W        W52852  13.936   4.012   7.654  0.1060  0.0932  0.2402
34106W        W52853  23.296  25.766  16.293 -0.1475 -0.0165 -0.2880
34107W        W52854  19.143  25.940  18.683  0.2304 -0.1511  0.1756
34108W        W52855  15.485   7.932  22.155 -0.2061 -0.0223 -0.0931
34109W        W52856   1.570  26.659   1.000  0.0468 -0.2351  0.2592
34110W        W52857   4.404  34.667   2.021 -0.1470  0.0993 -0.1008
34111W        W52858  24.052   6.207  20.385  0.0024  0.0429  0.2130
34112W        W52859  19.035  27.886   0.866 -0.2260 -0.3473  0.2203
34113W        W52860   5.470   3.054   8.592  0.2210 -0.0602 -0.0457
34114W        W52861   2.437  25.285  22.176  0.3127 -0.0384 -0.0976
34115W        W52862  32.973  34.808  16.179 -0.3981 -0.1322 -0.4128
34116W        W52863  23.626  28.959  13.290 -0.0499 -0.0619 -0.0446
34117W        W52864   6.886  26.701   4.031  0.0912 -0.1437 -0.3773
34118W        W52865  19.270   9.330   0.090 -0.2300 -0.2134  0.0146
34119W        W52866   8.914  20.023  11.828  0.0202  0.0442 -0.1466
34120W        W52867  12.551  20.768   1.679 -0.0600 -0.1100 -0.0517
34121W        W52868   0.542   2.520   4.688 -0.0761  0.2181  0.1101
34122W        W52869  24.814  21.983  15.114  0.1834  0.0142  0.1058
34123W        W52870   6.976  17.243  12.941 -0.0763 -0.0246 -0.0985
34124W        W52871  26.633   4.108   5.748  0.1253 -0.1701 -0.2006
34125W        W52872  19.016   4.924  21.849  0.0765  0.0236 -0.1848
34126W        W52873  17.650  13.597  19.272  0.3236 -0.0141  0.0650
34127W        W52874  24.996  31.205   5.255  0.0273 -0.2362  0.0773
34128W        W52875  20.684  21.549  22.195  0.1805 -0.0375 -0.0890
34129W        W52876  27.867  32.521  24.725 -0.0089 -0.0701  0.3616
34130W        W52877  26.042  32.027   5.448  0.1626  0.3084  0.2888
34131W        W52878  21.472  11.070  25.955  0.0551 -0.1886 -0.0192
34132W        W52879  13.501  15.573   6.153 -0.1296  0.3843  0.2303
34133W        W52880  26.745   6.745  12.869  0.1761  0.3509  0.2801
34134W        W52881   4.613  34.272  10.016 -0.4333  0.0335  0.2559
34135W        W52882  33.753  21.650   9.607  0.1280  0.3276  0.1010
34136W        W52883  18.489  29.470  20.403 -0.1673  0.3004 -0.2527
34137W        W52884  15.276   9.357  26.018  0.0380  0.0491 -0.0318
34138W        W52885  15.858  17.703   8.992 -0.0664 -0.0612  0.2397
34139W        W52886  18.995  18.457  19.726 -0.2709  0.0614  0.2625
34140W        W52887  28.772  14.963  22.288 -0.0273  0.0267  0.0646
34141W        W52888  35.205  19.031  15.836  0.0165 -0.0123  0.2027
34142W        W52889  31.135  31.307   5.201  0.2120  0.1241  0.1346
34143W        W52890  15.586  25.705  14.202 -0.0629  0.0829 -0.0685
34144W        W52891   6.331   4.316   4.825 -0.1254 -0.1787 -0.0307
34145W        W52892  12.681  15.073  23.773 -0.1546 -0.2504  0.1185
34146W        W52893  17.518  31.495  26.213 -0.2022  0.0020 -0.1986
34147W        W52894   6.873  29.803  13.218  0.2010 -0.0621 -0.1234
34148W        W52895  34.461   6.120  13.082  0.0343 -0.1462 -0.0802
34149W        W52896   5.194  23.289  23.582  0.0983  0.1384  0.1645
34150W        W52897  15.295  14.516  24.773  0.0996  0.2216  0.1316
34151W        W52898  15.163  15.559   0.198  0.1467 -0.1750 -0.2657
34152W        W52899  11.014  17.686  26.017  0.3207  0.0568 -0.0602
34153W        W52900  24.209  28.124  20.619  0.3420  0.0549  0.5758
34154W        W52901  28.553   5.804   0.046  0.4610  0.0387 -0.3053
34155W        W52902   1.045  27.010   4.648 -0.0180 -0.1464  0.0974
34156W        W52903   0.439  26.936  25.708  0.1683  0.0456  0.0078
34157W        W52904   1.917   9.115  20.574 -0.2412 -0.1477 -0.0471
34158W        W52905  28.012  29.480  16.424  0.0964  0.1239  0.0163
34159W        W52906  30.623  27.538  17.543 -0.1226 -0.1331 -0.0608
34160W        W52907  16.369   5.193  18.434 -0.1945  0.1298  0.1119
34161W        W52908  32.726  26.267  19.921  0.2935 -0.0925 -0.1475
34162W        W52909   1.935   6.770  24.782  0.2039 -0.2759  0.0503
34163W        W52910   2.595  25.162   0.621 -0.0547 -0.1706  0.1372
34164W        W52911   9.250   0.983  11.593  0.0577  0.0701  0.2036
34165W        W52912  12.006  17.788   2.060  0.2596  0.0444  0.0704
34166W        W52913   9.865  33.824   6.687 -0.0809 -0.0876  0.1539
34167W        W52914  24.099   5.741   1.719  0.1414  0.1227  0.3025
34168W        W52915  25.166  20.231  15.185  0.1692  0.1444  0.0097
34169W        W52916   3.793  31.837   9.481  0.2315 -0.3175 -0.0646
34170W        W52917  33.973  34.119   5.398  0.1404  0.2166  0.1635
34171W        W52918  18.166  19.993   0.309 -0.0215  0.0921 -0.1251
34172W        W52919   4.674   3.090  23.488 -0.2156 -0.0608  0.0330
34173W        W52920   2.526  31.929   0.357 -0.0567  0.0775 -0.0728
34174W        W52921   0.644   6.679   0.430 -0.0427 -0.2342 -0.0996
34175W        W52922   4.386  27.539   4.727 -0.1971 -0.0399  0.1538
34176W        W52923   9.931  12.778  24.928 -0.3782 -0.1648 -0.0399
34177W        W52924  24.060  27.826  14.169 -0.3651 -0.1254 -0.0711
34178W        W52925  33.482  33.939  24.091  0.0368  0.1594 -0.0056
34179W        W52926  27.823  31.153  10.651  0.1775  0.0261  0.1453
34180W        W52927   9.563  19.612   7.840  0.0697 -0.2975  0.2598
34181W        W52928  30.616  16.016  11.251 -0.0302 -0.1094 -0.2722
34182W        W52929  18.868  35.152  21.717  0.2126  0.2815  0.0746
34183W        W52930  20.906  15.039   4.745 -0.1962  0.0860  0.0887
34184W        W52931   2.604  14.619   1.211 -0.1103 -0.1494  0.0033
34185W        W52932   2.758   9.792   4.032  0.1735  0.1332 -0.0571
34186W        W52933   3.303  33.578   1.173 -0.0660 -0.2757 -0.2467
34187W        W52934   9.204  16.884   6.563  0.2774  0.0806 -0.1365
34188W        W52935  22.967  22.683  23.202 -0.3584  0.2307  0.0325
34189W        W52936  19.474  29.505  22.439 -0.1018 -0.2287  0.1382
34190W        W52937  19.548  31.244  16.610 -0.0350 -0.1358  0.2308
34191W        W52938  13.791   8.657  20.273 -0.1132  0.0649 -0.1164
34192W        W52939  26.384  11.180   9.164  0.3364  0.0628 -0.0140
34193W        W52940  13.392  23.237  23.572 -0.3315 -0.0274 -0.0678
34194W        W52941  24.672  30.077  19.204  0.2288 -0.0065 -0.2626
34195W        W52942   4.649  19.822   4.456 -0.2250  0.1183  0.0777
34196W        W52943  16.040  19.485   5.252  0.1785 -0.2042 -0.0131
34197W        W52944  18.136  13.276  12.084  0.2596 -0.1848  0.0786
34198W        W52945  26.120  19.549   7.694  0.0821  0.1232 -0.0694
34199W        W52946  19.551   1.408  21.759 -0.0089  0.0144 -0.0603
34200W        W52947  19.851  31.755   5.841  0.0800 -0.1481 -0.2943
34201W        W52948   1.398  23.719   1.142  0.0525  0.1393  0.0703
34202W        W52949   4.910  17.205  20.219  0.1769 -0.2919  0.0533
34203W        W52950  24.355   3.126  12.796 -0.4121  0.2129 -0.4872
34204W        W52951  33.559   5.693  25.929  0.1438  0.0531  0.4440
34205W        W52952  14.001  29.261  21.588 -0.1596  0.4809 -0.1149
34206W        W52953   9.668  20.190  11.122  0.0428 -0.3073 -0.1304
34207W        W52954   2.398   4.498  15.193  0.1426  0.1751 -0.2754
34208W        W52955  28.192  19.972  23.510  0.0364  0.1986 -0.2013
34209W        W52956   6.646  19.415   9.112  0.0197  0.3294  0.1469
34210W        W52957  31.074   6.481   0.457 -0.0008  0.1131  0.0671
34211W        W52958  29.956   5.725   3.484 -0.4593 -0.1847  0.1557
34212W        W52959  18.102  10.610   2.201  0.2050 -0.3417  0.0139
34213W        W52960  13.029  26.388   5.699  0.0705  0.0291 -0.0123
34214W        W52961  34.881   1.235   6.343  0.0922 -0.2963 -0.3696
34215W        W52962   1.024  11.509  18.994  0.1755  0.2661 -0.1918
34216W        W52963  27.722  13.025  12.365  0.2082  0.0383 -0.0723
34217W        W52964   8.520  27.181  22.506  0.0491  0.1813 -0.0058
34218W        W52965  28.606  20.762  21.628  0.3399 -0.2403 -0.1236
34219W        W52966   6.198  20.508   6.893  0.0529  0.0778 -0.2141
34220W        W52967  20.825   4.376   5.847 -0.1325 -0.1951 -0.0676
34221W        W52968  10.858  11.513   1.203 -0.0581  0.2133  0.3623
34222W        W52969  15.256   7.986  24.537  0.0387  0.0391 -0.0667
34223W        W52970  28.763  17.614  12.428  0.1640 -0.1297 -0.2608
34224W        W52971  12.573   6.842   7.868  0.0507 -0.0628 -0.0790
34225W        W52972  24.355  10.945  19.848 -0.2080 -0.2450  0.1142
34226W        W52973  26.789   1.490   0.212 -0.1485 -0.1867  0.1835
34227W        W52974  27.454   8.521   1.527  0.1171 -0.0243 -0.1223
34228W        W52975  14.499   2.568   4.552 -0.3567 -0.0306  0.0945
34229W        W52976   0.965   8.363   1.106 -0.0341 -0.1774  0.0522
34230W        W52977  32.630  25.275  13.705 -0.2428 -0.1024 -0.0062
34231W        W52978  10.892  16.716  13.058 -0.0166  0.1343 -0.2974
34232W        W52979  29.376  25.983  13.824  0.0094  0.3087 -0.0640
34233W        W52980  35.095   4.493  16.984 -0.1430 -0.1376 -0.0605
34234W        W52981  27.516  28.473  21.038  0.1965 -0.0465  0.2052
34235W        W52982   9.835  10.042   0.227 -0.1362  0.0314 -0.0655
34236W        W52983  28.474  16.464   9.086 -0.0237 -0.2529  0.0421
34237W        W52984   4.122  17.125   3.280 -0.1214  0.1396  0.3162
34238W        W52985  30.837  30.346   3.364 -0.3061  0.1257  0.1476
34239W        W52986  31.532  26.467   1.515 -0.2167 -0.2846  0.0390
34240W        W52987  19.024  15.628   0.380 -0.0759 -0.0948 -0.0841
34241W        W52988   3.078   8.841   6.663  0.3248 -0.1421  0.1083
34242W        W52989   3.089   4.498  23.049  0.1681 -0.2519 -0.0300
34243W        W52990  20.430   3.727   5.475  0.1269  0.1407 -0.0121
34244W        W52991  24.004  16.601  24.065 -0.0723  0.1672  0.1009
34245W        W52992  30.257  21.842   9.724  0.3214 -0.0140 -0.3894
34246W        W52993  24.754   5.839  14.205 -0.1129  0.0857  0.3925
34247W        W52994  13.075  21.851  25.512 -0.0282  0.0979  0.3966
34248W        W52995  12.157  11.722   2.427 -0.0697 -0.2882 -0.1444
34249W        W52996  10.336   9.302  26.166  0.1007 -0.0491 -0.2082
34250W        W52997  30.702   5.306  11.444  0.1865 -0.2922 -0.2968
34251W        W52998  21.156  26.664   2.917 -0.1565 -0.3492  0.0575
34252W        W52999  23.589  19.250  13.369 -0.0415 -0.0265  0.1589
34253W        W53000  10.537  33.776  21.091  0.2253  0.0269  0.2213
34254W        W53001   4.655  24.810  23.896  0.0528  0.0335 -0.1685
34255W        W53002   0.053   2.750  22.522 -0.0511 -0.3410 -0.0259
34256W        W53003  29.947   8.928  26.123 -0.2516 -0.2969 -0.0031
34257W        W53004  29.738  11.263   7.339  0.0302  0.1759 -0.0176
34258W        W53005  14.850  29.587  20.452  0.0501 -0.0979  0.0330
34259W        W53006  23.552  31.939   1.765 -0.3398  0.0398  0.3946
34260W        W53007  34.030  14.823  17.755  0.0223 -0.1579 -0.1114
34261W        W53008  11.532  30.032  16.398 -0.4560 -0.0172 -0.3288
34262W        W53009   2.837  23.518  22.970 -0.0612  0.1137 -0.1554
34263W        W53010  10.828  34.040  15.953 -0.0226 -0.0403 -0.0590
34264W        W53011  29.539   7.576   0.682 -0.3888  0.3842  0.1873
34265W        W53012   2.744  29.158  23.312 -0.2731  0.0584 -0.0010
34266W        W53013  33.026  21.749   0.252 -0.2419 -0.0454 -0.0661
34267W        W53014   1.338  13.015  22.388 -0.1825  0.0172  0.0138
34268W        W53015   7.604  11.375  18.685 -0.2661  0.0598 -0.1718
34269W        W53016   3.093  31.927  18.142  0.0474 -0.1563  0.0615
34270W        W53017  16.662  17.860   3.073  0.2699  0.1561  0.5128
34271W        W53018  32.848  19.645  25.112  0.4913  0.2509 -0.2347
34272W        W53019  11.514   6.296   3.687  0.0760  0.2811  0.0496
34273W        W53020  22.004  19.201  20.538 -0.2562 -0.1356 -0.1377
34274W        W53021  10.208  30.605  21.378 -0.0823  0.2543  0.1643
34275W        W53022   0.264  25.705  19.075  0.1301  0.1178 -0.1964
34276W        W53023   7.497  13.794  11.139 -0.1417  0.1965 -0.0111
34277W        W53024  16.824   5.927   7.563  0.0842  0.1522  0.0619
34278W        W53025  21.303   3.294   0.467 -0.0042 -0.1781  0.1388
34279W        W53026  10.394   1.651   7.090 -0.1547  0.2765 -0.0114
34280W        W53027  18.775  25.300  10.765  0.2278 -0.0749 -0.0874
34281W        W53028  27.380  33.068   2.903 -0.0403 -0.3426  0.4184
34282W        W53029  14.202  35.115  23.588 -0.0845 -0.0695  0.0982
34283W        W53030  13.212   5.261  13.702  0.0304  0.2286 -0.0939
34284W        W53031  32.813  12.374  23.339 -0.2478  0.0444 -0.0103
34285W        W53032  29.517  14.188   0.013 -0.0227  0.0728  0.0576
34286W        W53033  14.956  24.477   6.700  0.1105 -0.0498  0.0094
34287W        W53034  31.253   0.672  20.900  0.0050 -0.1467  0.0238
34288W        W53035  13.719   9.462  23.057  0.1276 -0.1149 -0.2957
34289W        W53036   5.072  28.899  13.128 -0.0985  0.0836  0.0977
34290W        W53037  26.224  21.532  19.472  0.2287  0.0939  0.0693
34291W        W53038   0.972  20.333  12.261 -0.0506 -0.0376 -0.1248
34292W        W53039   9.049  16.071   2.095 -0.5091 -0.2053 -0.0906
34293W        W53040  11.854  19.528   5.536 -0.1448  0.0730  0.0413
34294W        W53041  27.843  34.904  17.076  0.0899 -0.0075 -0.3857
34295W        W53042  16.173  22.256  14.044 -0.0222 -0.0751  0.2024
34296W        W53043  22.765  31.015  14.172  0.1512  0.0206 -0.1563
34297W        W53044  26.788  15.841  13.988  0.1321  0.0111  0.3636
34298W        W53045  10.743   8.564   9.594 -0.0357  0.4887 -0.1984
34299W        W53046  30.998  32.562   5.685 -0.1584  0.1267 -0.1832
34300W        W53047  16.402   8.904   6.917  0.0323  0.1631 -0.0536
34301W        W53048  30.967   3.783  12.857  0.0671  0.2518 -0.3489
34302W        W53049  16.396   0.009  20.321  0.2107 -0.0357 -0.0519
34303W        W53050  27.645  29.768  11.960  0.0485 -0.0018 -0.0001
34304W        W53051  25.678  33.779  13.012 -0.1196  0.0146 -0.1966
34305W        W53052  31.039  18.277   4.845 -0.2775  0.0015  0.2763
34306W        W53053  29.330   3.885  17.040  0.0692  0.2375 -0.1200
34307W        W53054   1.856  28.407  22.432 -0.0985  0.2145 -0.1187
34308W        W53055  34.328   1.155  24.781 -0.1094 -0.2230 -0.0764
34309W        W53056  18.611  26.165   8.959  0.1532 -0.3032  0.2782
34310W        W53057  22.194  24.044  20.158 -0.5082  0.0076  0.1081
34311W        W53058  13.845  13.668  11.900 -0.2145  0.2767 -0.0163
34312W        W53059  28.043  21.072  19.636 -0.0705  0.3901  0.0964
34313W        W53060  14.677  21.294   7.104  0.1100  0.0552  0.1270
34314W        W53061   7.679  29.946  25.601 -0.2793  0.4178 -0.0302
34315W        W53062  28.902  34.857  22.023  0.1816  0.0059  0.0400
34316W        W53063  32.154  14.252  24.528  0.1901  0.1641  0.1824
34317W        W53064  14.638   5.989  23.817  0.0318  0.2418  0.0720
34318W        W53065  12.943   6.315   5.990 -0.0237  0.1287  0.5827
34319W        W53066  16.560  16.994  22.398 -0.0294 -0.1917  0.3684
34320W        W53067   5.843   5.941  22.351 -0.1013 -0.0344 -0.1882
34321W        W53068  18.478  25.022  20.172 -0.0713  0.2490  0.1787
34322W        W53069  18.677  13.703   5.744  0.2715 -0.1299 -0.0496
34323W        W53070  26.493  17.771   6.029  0.0378 -0.0101 -0.0910
34324W        W53071  29.539  28.625  14.151 -0.2183 -0.4549  0.0354
34325W        W53072  19.019  27.202   1.615  0.3054 -0.3061  0.3253
34326W        W53073  24.222  18.837  11.688  0.1839  0.0444  0.2593
34327W        W53074  16.519  28.315  22.184  0.1692  0.0257 -0.3713
34328W        W53075  28.201  29.028   2.176  0.3939 -0.3535  0.0228
34329W        W53076   7.222  23.163   4.325  0.1697 -0.2031  0.1597
34330W        W53077  26.923  16.073  12.768 -0.1682 -0.2554  0.1985
34331W        W53078   4.553   0.863  19.966  0.3310  0.1208  0.1754
34332W        W53079  31.892   8.569  19.052 -0.1591 -0.0582  0.2564
34333W        W53080  10.712   6.716  11.432 -0.1904 -0.1255  0.0773
34334W        W53081  11.968  19.822   9.768 -0.1091 -0.1896  0.0952
34335W        W53082  15.127  33.292  11.062  0.1629 -0.1057  0.0441
34336W        W53083  11.329  30.748   7.001  0.1068 -0.1080  0.2407
34337W        W53084   6.228  10.114   2.504 -0.1973  0.2881  0.0518
34338W        W53085   1.520  26.659  23.595 -0.0333  0.2075  0.1981
34339W        W53086  17.548  13.139  22.281 -0.0894 -0.2025  0.0239
34340W        W53087   6.458  24.645   0.498  0.1203 -0.0464  0.1147
34341W        W53088   0.832  13.534  12.654 -0.2909  0.2983 -0.0565
34342W        W53089  30.249  22.291  14.052 -0.1264 -0.2416 -0.1557
34343W        W53090   3.010   1.058  10.790  0.0600  0.2032 -0.1523
34344W        W53091  18.051   9.407   8.589 -0.0496  0.1011 -0.0658
34345W        W53092  26.411  18.771  20.055 -0.0684  0.0813 -0.0286
34346W        W53093  32.957  23.863  21.025  0.1452 -0.1795 -0.0649
34347W        W53094  23.232  34.497   6.456 -0.0614  0.0630  0.0523
34348W        W53095  11.224   2.646   3.171 -0.1363 -0.2394  0.0348
34349W        W53096   9.830   3.505  22.702 -0.0052  0.2075  0.2287
34350W        W53097   1.728  10.459  20.612 -0.1362  0.3391  0.0932
34351W        W53098  29.581  19.838  21.694  0.3040  0.1574  0.0198
34352W        W53099  30.320   0.245  11.500 -0.0664  0.0401  0.0995
34353W        W53100  29.428  10.698   7.522 -0.1876 -0.1551 -0.1934
34354W        W53101   5.655  34.489  21.755 -0.1574 -0.0382 -0.1090
34355W        W53102  29.728  21.893   9.795 -0.1693  0.0025 -0.0131
34356W        W53103  23.675  34.611  25.803  0.0661 -0.0454  0.2696
34357W        W53104  34.395  13.298   0.893  0.1667 -0.3049 -0.1187
34358W        W53105   9.769  22.387   6.808 -0.2745  0.1344 -0.1052
34359W        W53106  21.145   6.971  26.240  0.2478  0.0963  0.1206
34360W        W53107  10.051  10.966  10.088  0.1135  0.1313 -0.0645
34361W        W53108  15.631  25.906   6.516 -0.0171  0.2679 -0.1937
34362W        W53109  19.429  29.922  22.789 -0.0659  0.1955  0.0001
34363W        W53110  26.481  24.397  10.133 -0.3575  0.2549 -0.1292
34364W        W53111  24.121  10.885   1.623 -0.3966 -0.2681  0.1686
34365W        W53112  34.839   7.144  14.701 -0.1935 -0.0280  0.0607
34366W        W53113  12.105  30.209   2.496 -0.1184 -0.0709  0.1545
34367W        W53114  20.568  15.543  15.885 -0.0542  0.1171 -0.1161
34368W        W53115  18.693  13.524  21.553 -0.0785  0.1786 -0.1053
34369W        W53116  13.737  27.730  21.352  0.0933  0.0777 -0.0481
34370W        W53117  13.055  33.058  21.280  0.2565  0.3138 -0.1366
34371W        W53118  34.516  24.550  14.505 -0.0938  0.2195  0.2307
34372W        W53119   5.627  12.480   7.881 -0.0633 -0.2168 -0.1128
34373W        W53120   0.965  31.137  16.698  0.0482 -0.0335 -0.0584
34374W        W53121  27.663  25.397  21.435 -0.0275 -0.2315 -0.0385
34375W        W53122  18.495   1.243  23.052 -0.2056  0.1832 -0.1867
34376W        W53123   1.818  11.478  16.077  0.1447  0.0165  0.2106
34377W        W53124   2.780  33.338  21.785 -0.0221 -0.0761 -0.2792
34378W        W53125   6.918   7.513   6.994  0.0507  0.0464  0.0973
34379W        W53126  17.992  21.672  12.169  0.0708 -0.2676 -0.0702
34380W        W53127   9.194  25.055   7.714  0.1353 -0.1722  0.3308
34381W        W53128  22.737  32.473  11.876 -0.1347 -0.2392 -0.0605
34382W        W53129   5.887  10.957   3.125 -0.0216 -0.0309  0.0874
34383W        W53130  15.636  33.860  21.708 -0.0186 -0.0345 -0.3855
34384W        W53131   6.948  32.951  22.057  0.1348 -0.0223 -0.0818
34385W        W53132  33.851  26.557  25.933  0.0806  0.0118 -0.0369
34386W        W53133   5.535  12.379   3.989  0.1796 -0.0432 -0.1943
34387W        W53134  24.825  17.233  15.098 -0.1469  0.1134 -0.1921
34388W        W53135   4.570  20.177   5.333  0.1378  0.1402  0.2028
34389W        W53136  29.017   1.566  11.429  0.2089  0.1593 -0.2303
34390W        W53137  30.762   3.317   2.246 -0.1111 -0.0803 -0.0317
34391W        W53138  31.109  12.689  17.289  0.1064 -0.3339 -0.1173
34392W        W53139  11.118   5.225   2.334  0.1965 -0.1716 -0.0032
34393W        W53140  17.637   8.901  21.469  0.1310 -0.1012 -0.1981
34394W        W53141  18.901   0.329   4.949  0.1395 -0.1381  0.3228
34395W        W53142   9.176  15.918   3.632 -0.2670  0.0460  0.0177
34396W        W53143  32.604  14.191  12.751  0.0845 -0.1843 -0.0225
34397W        W53144  31.127  34.017  18.824 -0.0067  0.0444  0.2843
34398W        W53145  11.661   1.674   4.637  0.0767  0.2289 -0.0710
34399W        W53146   9.904  20.756  15.488 -0.1944 -0.0782  0.0604
34400W        W53147  29.942  14.696  10.262  0.1732  0.5622  0.3103
34401W        W53148  25.094   7.843  23.644 -0.0058  0.1369  0.3428
34402W        W53149  26.901   0.517  21.582 -0.1850 -0.0510 -0.0946
34403W        W53150  17.944   7.935   5.766 -0.2002 -0.1692 -0.1853
34404W        W53151   7.173  14.990   8.547 -0.2642  0.1330  0.1185
34405W        W53152   8.567  34.927   1.989 -0.2357  0.5384 -0.1600
34406W        W53153  32.884  14.029  16.637 -0.3798  0.1904  0.2329
34407W        W53154  16.992   8.540  20.124  0.1352  0.3613  0.5010
34408W        W53155  12.908   5.382  13.336  0.0791 -0.5202  0.0155
34409W        W53156  13.039  27.438  13.529  0.1984  0.1182  0.1245
34410W        W53157   8.631  13.968  21.853 -0.3276 -0.2924 -0.2105
34411W        W53158   1.546  17.849  21.431  0.3462  0.3129 -0.1087
34412W        W53159  28.050  34.919  21.812 -0.1924 -0.4091  0.2557
34413W        W53160  26.946  15.496  23.159 -0.4040  0.0058  0.1391
34414W        W53161  20.927   3.038  17.820 -0.2179  0.4150  0.0959
34415W        W53162  29.655  10.266  10.564  0.1952  0.0861  0.0395
34416W        W53163   9.540  26.678   6.710 -0.1790 -0.0790  0.0718
34417W        W53164  31.146   3.233  17.327 -0.2228 -0.1646  0.1301
34418W        W53165  30.941   5.190   3.414  0.0654  0.0291 -0.1690
34419W        W53166   2.758   6.248   5.544 -0.2052  0.1305  0.1739
34420W        W53167  21.305  31.008  24.618  0.1096 -0.1104 -0.0634
34421W        W53168  21.013  13.283  15.305 -0.3235 -0.2667  0.2104
34422W        W53169   3.564  29.313  10.769 -0.4122  0.1515 -0.2534
34423W        W53170  21.371  16.223  24.122  0.0832 -0.2555  0.0466
34424W        W53171  14.705  23.067  13.548 -0.1860  0.4574 -0.2270
34425W        W53172   3.830  20.231  21.237  0.1010 -0.1110 -0.3122
34426W        W53173  33.766  27.487  13.190  0.2242  0.2389 -0.3507
34427W        W53174  27.407  21.783  18.985  0.2980 -0.2326  0.3223
34428W        W53175  31.940   5.868  25.181 -0.3697  0.0310  0.0630
34429W        W53176  26.349  29.724  17.346 -0.0082 -0.0452  0.1394
34430W        W53177  18.062  20.236  19.991  0.1691 -0.0114  0.1055
34431W        W53178  35.225   7.893  24.083 -0.0429  0.0766  0.1308
34432W        W53179  33.858   6.729   3.164 -0.3252  0.0245  0.0619
34433W        W53180  19.612   4.622  17.322  0.0414 -0.1246 -0.4179
34434W        W53181  32.995   7.492  11.895  0.1660 -0.0080 -0.0820
34435W        W53182  29.415  19.198  12.873 -0.0554  0.0473  0.1597
34436W        W53183  26.290  34.908   1.101 -0.0330  0.0108  0.0389
34437W        W53184   7.586  10.352  19.286 -0.0423  0.2612 -0.5098
34438W        W53185  29.857  24.175   0.032  0.3883 -0.3137  0.3471
34439W        W53186  19.664  11.134  18.106  0.0680 -0.0726 -0.1495
34440W        W53187  29.425   3.591  21.433 -0.0421 -0.0991  0.3401
34441W        W53188  13.163  14.084  26.220  0.1137  0.0544  0.1352
34442W        W53189  12.644  13.470  19.621 -0.3476  0.1908  0.1184
34443W        W53190  26.375  27.885   1.779  0.1170 -0.0775 -0.3643
34444W        W53191  31.189   4.063  22.483 -0.0624  0.1021 -0.0433
34445W        W53192  19.267   3.931   4.835 -0.1018 -0.0357 -0.2367
34446W        W53193  25.764  32.620   1.832 -0.1169  0.2316  0.2101
34447W        W53194   4.151  10.387   7.582 -0.3550 -0.0326  0.0258
34448W        W53195  13.816  16.320   7.691 -0.0543 -0.1577  0.0288
34449W        W53196  24.096   6.265   0.941 -0.3679  0.2615 -0.2519
34450W        W53197  28.854   4.576  10.541  0.0423  0.1022  0.0217
34451W        W53198  24.392  31.994  17.520  0.0711  0.0110  0.0373
34452W        W53199   8.787   1.545  23.408  0.1007  0.2884  0.1110
34453W        W53200  15.428  31.586   3.955 -0.4861  0.0497  0.1076
34454W        W53201  29.985  21.771   6.437  0.1280  0.2550 -0.0706
34455W        W53202  11.855  29.905  13.859 -0.0119  0.2632  0.1088
34456W        W53203  12.589   6.974  22.080  0.1457  0.0089 -0.1442
34457W        W53204   5.107  13.657   3.873 -0.3738 -0.1691  0.0384
34458W        W53205   2.500  28.290  18.691  0.1276 -0.2382  0.1072
34459W        W53206  29.541  18.399  15.468 -0.0724 -0.2332  0.2344
34460W        W53207   8.875   5.228   0.235  0.2749 -0.3788  0.2626
34461W        W53208  20.519  35.072   6.933 -0.4298 -0.2411  0.2147
34462W        W53209   7.053  22.340  25.675 -0.1883 -0.0564  0.0885
34463W        W53210  14.386  26.707   4.510 -0.0593  0.2110  0.2644
34464W        W53211   6.925   0.239  22.886 -0.0336  0.0874  0.1051
34465W        W53212   7.867  26.099   1.316 -0.2201  0.0154 -0.3027
34466W        W53213   1.556  19.061  20.730 -0.3660  0.0809  0.1067
34467W        W53214   7.887   9.667   6.249 -0.1638 -0.0577  0.3609
34468W        W53215  12.343  18.466   1.522 -0.1453  0.0354  0.0441
34469W        W53216  28.281  16.393  24.131  0.0540  0.0519  0.0971
34470W        W53217  25.659  18.016   9.587  0.0973 -0.0219 -0.0241
34471W        W53218   6.725  21.238   7.017  0.1593 -0.0331 -0.0450
34472W        W53219  29.755  30.686  16.913 -0.1372  0.1940 -0.1628
34473W        W53220  11.666  24.190  24.603 -0.1241 -0.0600 -0.3515
34474W        W53221  23.921  14.467  15.026 -0.0541 -0.0561 -0.1144
34475W        W53222  24.596  26.122   2.352 -0.1674  0.0912 -0.0247
34476W        W53223  14.595  33.542  13.845  0.2464 -0.0162  0.0219
34477W        W53224  13.839  12.746   6.855 -0.2317  0.2046  0.1406
34478W        W53225  22.561   6.721   1.360  0.0709 -0.3029  0.0147
34479W        W53226  19.909   6.161   9.931  0.3526 -0.0212 -0.1462
34480W        W53227   3.095  17.363  24.407 -0.3021 -0.0329  0.2981
34481W        W53228  29.006  34.460  14.849  0.0026 -0.1843  0.1790
34482W        W53229  15.142  25.732  11.110  0.0207  0.1971  0.0307
34483W        W53230   5.810   6.368  25.205 -0.1136  0.0936 -0.4096
34484W        W53231  22.649   2.753  21.728  0.1901 -0.1072 -0.1736
34485W        W53232  16.587  35.381   0.249  0.2485  0.1350  0.3005
34486W        W53233  30.317  14.673  11.668  0.2512 -0.0483 -0.0402
34487W        W53234   6.056  22.033  21.865  0.0023  0.2118 -0.0035
34488W        W53235   9.057   4.211  19.643  0.3392 -0.2808 -0.0666
34489W        W53236  29.001  19.034   7.791 -0.0744  0.2302  0.0788
34490W        W53237  19.059  20.383   4.495 -0.0177  0.2506 -0.2394
34491W        W53238  35.208  10.066  14.644 -0.0636 -0.1255 -0.4577
34492W        W53239  10.943  19.102  13.250  0.1145  0.1374 -0.1669
34493W        W53240  19.194  24.974  23.839  0.1766  0.0976  0.2558
34494W        W53241  29.038  27.118  16.786 -0.0164  0.0478 -0.1692
34495W        W53242  18.582   5.095   8.111  0.1299 -0.0082 -0.1440
34496W        W53243  21.857  22.786   2.572 -0.0782  0.2169  0.1104
34497W        W53244  18.917  11.127   1.388  0.1308  0.1483 -0.4193
34498W        W53245   5.888   9.155   2.998 -0.0215  0.0441 -0.0640
34499W        W53246  22.083  32.234  12.558  0.0160  0.0854 -0.0900
34500W        W53247   4.487   3.073   1.359 -0.4304 -0.3286  0.0403
34501W        W53248  11.111  33.536   0.931 -0.3012  0.1286 -0.1459
34502W        W53249  21.099  12.243   0.850 -0.0510  0.1918  0.2488
34503W        W53250  16.208  29.357  20.309 -0.1178  0.1201  0.1053
34504W        W53251  35.349   2.666  15.066  0.0380  0.2236 -0.1179
34505W        W53252  16.367   3.650  20.887 -0.1848  0.0468 -0.1515
34506W        W53253  30.067  23.874  10.004 -0.3665 -0.2048  0.1736
34507W        W53254  15.319  22.723  23.240  0.3260  0.0456 -0.3013
34508W        W53255  27.928  10.946  13.100  0.0798  0.0146  0.0179
34509W        W53256  14.865  15.105  21.617 -0.0836 -0.1412  0.2176
34510W        W53257  31.457   6.620   0.052 -0.0533 -0.0033 -0.1251
34511W        W53258  10.747  14.129   4.504 -0.1550  0.0511 -0.0433
34512W        W53259  25.408  34.165  14.271  0.1612 -0.0911  0.1338
34513W        W53260  34.339   8.623  17.948  0.2731  0.1566  0.0600
34514W        W53261   0.435  33.802  24.405 -0.0210 -0.0334  0.1404
34515W        W53262  27.315  28.651   0.755  0.3823 -0.0245 -0.0421
34516W        W53263  14.057  29.212  12.677 -0.1149  0.0495  0.1107
34517W        W53264  19.653  24.179   2.452 -0.0836 -0.4338  0.0255
34518W        W53265   8.102  17.184   0.883  0.1410  0.1754 -0.2273
34519W        W53266   7.807  21.477  11.721  0.1287  0.2527  0.1973
34520W        W53267  22.122  10.672  19.152 -0.2302 -0.0242  0.1011
34521W        W53268  34.223   1.591   5.886  0.0122 -0.1162 -0.1732
34522W        W53269  22.342  21.021  22.085 -0.0142 -0.0420  0.0371
34523W        W53270  33.656  26.661  23.570 -0.0708  0.0373 -0.2207
34524W        W53271  22.110   5.998   3.920 -0.1921  0.2228 -0.1765
34525W        W53272  27.930  33.993  17.260  0.1500  0.0930  0.2527
34526W        W53273  28.974  13.785   0.540  0.0264 -0.3192 -0.1134
34527W        W53274  30.934  32.730  15.571 -0.4252 -0.1354  0.1653
34528W        W53275  25.152  20.893  13.319 -0.2851 -0.2215 -0.0962
34529W        W53276  29.609  12.414  19.451  0.4583 -0.1407  0.1801
34530W        W53277  20.596  20.162  24.549  0.1780 -0.1105 -0.1048
34531W        W53278   6.175   0.573  21.841 -0.0056  0.0089 -0.1076
34532W        W53279  24.068  18.386  20.938  0.1515  0.0554 -0.1957
34533W        W53280  11.629  15.190  25.747  0.0661  0.1136  0.0546
34534W        W53281  15.751  14.042   9.415  0.1608 -0.0295  0.2009
34535W        W53282  33.061  22.215  23.846 -0.0421 -0.4082  0.3253
34536W        W53283  30.775  30.943  23.410 -0.4735  0.2063  0.5328
34537W        W53284  10.985  29.592   4.925  0.0113 -0.2631  0.3361
34538W        W53285   3.475   5.346  17.222 -0.0567  0.2054 -0.2066
34539W        W53286  11.002  31.045  13.531 -0.2193  0.1733 -0.1427
34540W        W53287  20.747   6.182  22.121  0.2404  0.0461 -0.4845
34541W        W53288  34.798   5.359  13.111  0.0095  0.5341  0.0486
34542W        W53289  22.917  31.764  12.760  0.1028  0.0962 -0.1469
34543W        W53290  27.885   6.219   2.065  0.0453  0.3721 -0.1156
34544W        W53291  30.062  22.295   6.404 -0.0123 -0.1168  0.1636
34545W        W53292  24.366  14.998  18.211 -0.2751 -0.0090  0.0028
34546W        W53293  34.198   4.430  20.332 -0.1469 -0.1522 -0.2036
34547W        W53294  14.350  21.383   0.374  0.3169  0.0325  0.1153
34548W        W53295  14.783  15.707   0.904 -0.2245 -0.2779  0.0989
34549W        W53296  19.112  12.962   0.445  0.0116 -0.2928 -0.3294
34550W        W53297  29.596  22.728  10.446 -0.1518  0.1035 -0.0162
34551W        W53298  32.885  16.578   8.851  0.0924 -0.0587 -0.3299
34552W        W53299  15.348  25.863  10.024 -0.2246 -0.0519 -0.2329
34553W        W53300  14.496  21.378   1.937  0.1688 -0.3319 -0.0443
34554W        W53301  25.805  25.119  19.127  0.0801 -0.0888  0.0742
34555W        W53302  21.868  19.864  21.318 -0.1305  0.1396  0.1252
34556W        W53303  25.549  22.414  15.403  0.2621 -0.3052 -0.0547
34557W        W53304  26.207  16.882  11.728 -0.1466 -0.2100  0.0097
34558W        W53305  25.273   4.955  22.233 -0.5072  0.2343  0.1730
34559W        W53306   2.621  17.826  17.991 -0.0249  0.1867 -0.0847
34560W        W53307  23.997  26.771   3.861 -0.1003 -0.1578  0.0639
34561W        W53308  13.994   6.209  11.168  0.0523  0.0382  0.1532
34562W        W53309   6.157  13.454   1.669  0.0327  0.0523  0.2392
34563W        W53310  24.618  20.067  14.555  0.1500 -0.3022 -0.1890
34564W        W53311  15.148  16.133   9.383 -0.2200 -0.2876 -0.0044
34565W        W53312  14.180   2.824  19.939  0.0544  0.0399  0.2025
34566W        W53313  18.480   9.302  11.362  0.1001  0.1048 -0.1849
34567W        W53314  16.934  25.761   7.603 -0.1238 -0.1507  0.4198
34568W        W53315  31.346   1.873  12.390  0.0029 -0.0103  0.2226
34569W        W53316   8.316  33.853   3.534  0.0019 -0.6827  0.4717
34570W        W53317   2.582  28.170   1.037  0.0634 -0.0657  0.0900
34571W        W53318  15.133  13.738   0.794  0.1394 -0.1268 -0.2212
34572W        W53319  33.602   9.862   1.889  0.1386 -0.0540  0.1582
34573W        W53320  25.339  29.130  18.654 -0.0639  0.0545 -0.1044
34574W        W53321  29.505   7.272  25.632  0.0876 -0.0907  0.1215
34575W        W53322  30.784   4.507   4.720 -0.0004  0.1829 -0.0227
34576W        W53323   6.316  34.296  12.397  0.1659  0.0937  0.0144
34577W        W53324  31.449  30.405   2.802  0.3114 -0.0768 -0.0413
34578W        W53325  19.021  10.491  17.792 -0.0749 -0.2842 -0.1273
34579W        W53326  33.394  31.929  17.452 -0.0747  0.2302  0.0376
34580W        W53327  27.078  13.923   9.413  0.0700  0.0601  0.0924
34581W        W53328   7.935   5.431   2.515  0.1162 -0.0368  0.1100
34582W        W53329  25.347  20.380  10.620 -0.1411 -0.2496  0.3560
34583W        W53330  31.805  30.499  24.499  0.2057 -0.1529 -0.0924
34584W        W53331  29.286  31.737  16.712 -0.1188 -0.2350  0.0684
34585W        W53332   3.937  32.783  10.787  0.0963  0.2647 -0.1876
34586W        W53333  19.573  24.692   0.534 -0.0662  0.2371 -0.0248
34587W        W53334  11.782  30.143   9.388  0.1740 -0.0360  0.6429
34588W        W53335  33.967  13.763   0.381  0.2694  0.0674 -0.3287
34589W        W53336   6.217  18.567   6.271 -0.1868  0.0045  0.0943
34590W        W53337  15.300   2.074   9.489  0.0821 -0.2334  0.0274
34591W        W53338  33.490  19.964  13.027 -0.1144 -0.2774  0.2703
34592W        W53339  28.512   1.260  17.069 -0.1388  0.0076  0.2283
34593W        W53340  14.323  10.225   1.975  0.0621  0.2937 -0.1320
34594W        W53341  22.251  29.443  17.762  0.3566 -0.2681 -0.1791
34595W        W53342   6.883   2.195  11.157  0.1017 -0.0603 -0.0122
34596W        W53343  23.841  11.076   3.077 -0.0209 -0.3263  0.0268
34597W        W53344   6.247  22.015  24.012  0.1167 -0.0087  0.3073
34598W        W53345  15.320  21.111  10.492 -0.0486  0.0855 -0.1485
34599W        W53346   7.195  10.157  25.034 -0.0188 -0.1668 -0.1572
34600W        W53347   8.398  21.059  14.541  0.1845  0.0519  0.1508
34601W        W53348  14.286   7.331  13.295  0.3779 -0.1944 -0.1193
34602W        W53349  25.061   6.754  18.137 -0.2977 -0.2324  0.2758
34603W        W53350  18.658  22.396   9.957  0.4490 -0.1881  0.1453
34604W        W53351   2.416  11.215  16.920  0.1201 -0.3839  0.1067
34605W        W53352   4.442  11.325  16.461 -0.1467  0.0532  0.3643
34606W        W53353  33.539  29.630  24.238  0.0629 -0.1327 -0.2348
34607W        W53354  11.711  14.447   5.528  0.2204  0.1330 -0.0014
34608W        W53355  27.773  20.063  24.827 -0.2190  0.1613  0.0690
34609W        W53356   5.430   7.252  20.825  0.1764 -0.1763 -0.2882
34610W        W53357  24.255   7.499   1.295 -0.1122 -0.0598  0.0326
34611W        W53358  31.739   7.851  25.027  0.2114 -0.1539 -0.0151
34612W        W53359  19.811   4.909   7.053 -0.1282 -0.1192 -0.0672
34613W        W53360  18.508   7.333   9.799  0.2361  0.0628  0.0094
34614W        W53361  22.107   7.519  21.833  0.0880 -0.1460  0.1300
34615W        W53362  25.481  26.203   1.437  0.3000  0.1776  0.1614
34616W        W53363   2.289  28.776   7.721  0.0829  0.0342  0.1727
34617W        W53364  33.222  10.091  15.372  0.0718 -0.2139 -0.1345
34618W        W53365  10.830   4.082   3.489 -0.1137 -0.1382  0.0211
34619W        W53366  33.474  21.348  17.709 -0.2378 -0.0661  0.2408
34620W        W53367  10.255   0.478   2.398 -0.1985 -0.1549 -0.3514
34621W        W53368  24.428   3.675  22.089 -0.2416  0.3181  0.1285
34622W        W53369  28.105  13.674  21.130 -0.3296  0.0482  0.1542
34623W        W53370  27.995  35.138   4.498 -0.1832  0.1818 -0.2389
34624W        W53371   4.344  13.160  15.974  0.0383 -0.0827  0.0275
34625W        W53372  10.567  28.351  15.419 -0.3641  0.3516  0.2563
34626W        W53373  27.473   1.130  18.367  0.2238 -0.1565 -0.0439
34627W        W53374  15.000  12.800  12.754  0.3865 -0.0365  0.0787
34628W        W53375   0.029  13.179  12.554 -0.0886  0.1697  0.5624
34629W        W53376   4.659  33.168   7.728  0.0268  0.0318 -0.2745
34630W        W53377  21.069  17.767   4.389 -0.0105  0.0949  0.0877
34631W        W53378  29.716  28.942  12.050  0.1072 -0.1786 -0.2800
34632W        W53379  25.872  27.804  15.151 -0.3350  0.2328 -0.1828
34633W        W53380   0.533   7.835   3.140 -0.0521 -0.3693 -0.1114
34634W        W53381  11.003  21.980  11.826  0.0553  0.2070 -0.0171
34635W        W53382   9.430  13.220  18.523  0.2209 -0.2185 -0.2812
34636W        W53383  34.401  24.406  10.659 -0.4697 -0.0704  0.0716
34637W        W53384  34.783  25.230  22.931 -0.4360 -0.1102  0.1194
34638W        W53385  10.834   6.670  14.113 -0.0303 -0.1343 -0.1148
34639W        W53386  16.746  12.331  12.450  0.0195  0.0194 -0.0369
34640W        W53387   3.002   7.711   1.812 -0.0001  0.1691 -0.0783
34641W        W53388   5.940   5.125   2.007 -0.0653 -0.2896  0.2578
34642W        W53389   6.928  21.795   4.122 -0.0568 -0.0415  0.0703
34643W        W53390  22.530  32.490   5.125  0.2202  0.2410 -0.0554
34644W        W53391   5.346  12.638   5.609  0.5417 -0.2776  0.0514
34645W        W53392   3.391  34.167  26.102 -0.0535 -0.0973 -0.0387
34646W        W53393   9.960  18.319  11.963  0.0386  0.0086 -0.3596
34647W        W53394   9.770  12.184  12.685 -0.2085  0.0128 -0.1694
34648W        W53395  15.096  29.217   9.914  0.3131 -0.1255  0.2553
34649W        W53396  34.427  33.146  25.266 -0.2644  0.0215 -0.0118
34650W        W53397  12.944   0.717   1.695  0.2496  0.0921 -0.1900
34651W        W53398  28.561   9.263  12.464 -0.0934 -0.1301 -0.3411
34652W        W53399  10.887  15.998  18.951 -0.0161 -0.2077  0.0007
34653W        W53400   2.448  15.579   3.703 -0.0695 -0.0554  0.1507
34654W        W53401   2.445  21.810  23.399  0.1019  0.3381 -0.0540
34655W        W53402   9.188  11.516  13.027 -0.3915 -0.0468 -0.2881
34656W        W53403  21.377  32.314  15.724 -0.1048 -0.1028 -0.0162
34657W        W53404   5.566  15.725  17.394  0.1075  0.1487  0.2562
34658W        W53405  34.880   6.434  15.195  0.2232 -0.2179 -0.0056
34659W        W53406  11.218   8.806   4.837  0.2333  0.5378  0.0973
34660W        W53407   8.053   1.324   1.238  0.1644 -0.0071  0.1353
34661W        W53408  31.770  27.484   0.546  0.1448  0.0692 -0.0038
34662W        W53409  16.763   6.333   7.810  0.0307 -0.0864  0.1822
34663W        W53410  27.805  30.537  14.604 -0.0752 -0.0746  0.2063
34664W        W53411  23.960  26.483   0.237 -0.0428  0.2404 -0.0796
34665W        W53412   9.771  16.039   9.245 -0.4120 -0.0204  0.0596
34666W        W53413  33.886   3.180  22.772 -0.0285  0.0438 -0.3308
34667W        W53414   8.220  14.894  20.432  0.0761 -0.0767  0.1708
34668W        W53415   3.639  26.409   0.884 -0.2072  0.5731 -0.0111
34669W        W53416  27.257  33.748   5.296  0.1120 -0.0662  0.0598
34670W        W53417  12.538   2.759  21.506  0.1113 -0.2213 -0.1279
34671W        W53418  24.743  26.044  16.618  0.1749 -0.1218  0.0356
34672W        W53419   1.866  14.196   2.936 -0.0335  0.3743 -0.0879
34673W        W53420  17.007  32.528   7.362  0.3213 -0.2726 -0.3052
34674W        W53421  15.195   9.804  11.470 -0.0418 -0.0860  0.3840
34675W        W53422  15.131   2.792  11.507 -0.0622  0.4392 -0.1619
34676W        W53423   6.805   8.450  18.753 -0.1504  0.0572 -0.2009
34677W        W53424   1.853   2.220  21.212 -0.2600  0.0804  0.0425
34678W        W53425  28.021  11.173  20.728  0.1190 -0.0226 -0.1403
34679W        W53426   3.568  10.839  15.234  0.0117  0.3481 -0.2326
34680W        W53427   1.547  24.990  18.449  0.2924 -0.4712 -0.1886
34681W        W53428   7.997  25.078  16.451  0.1171 -0.1193 -0.0029
34682W        W53429  23.303  28.707  19.581 -0.0087 -0.0360 -0.0743
34683W        W53430  30.139   7.265  24.779  0.2097  0.3394 -0.0713
34684W        W53431  28.489  18.292  16.021 -0.0956  0.0741 -0.0439
34685W        W53432  32.142  30.851  25.891 -0.1864 -0.0024 -0.2063
34686W        W53433  17.666  28.325   5.711  0.0084  0.2153  0.2517
34687W        W53434  16.540   6.783  18.747  0.3639 -0.0526  0.1719
34688W        W53435   8.652  23.061  11.946  0.1836 -0.0554  0.0632
34689W        W53436   8.948  23.921  14.084  0.1371  0.1571 -0.2845
34690W        W53437  31.303  14.158  10.998  0.0745 -0.0050  0.1116
34691W        W53438   7.384   2.011   9.792 -0.0655  0.2213 -0.1511
34692W        W53439   4.561   5.808  20.810 -0.1489 -0.2349  0.0560
34693W        W53440  17.509  21.555  12.968 -0.0692  0.3334 -0.0241
34694W        W53441  14.857   9.517  13.939  0.1611  0.2550  0.1134
34695W        W53442   4.535  11.400   1.510  0.0465 -0.1372  0.0793
34696W        W53443  15.184  14.573   9.202  0.2732 -0.3219 -0.0634
34697W        W53444  13.280  12.092  24.490 -0.0949  0.3004 -0.3253
34698W        W53445   6.891  24.231   3.997  0.0515  0.1346  0.2520
34699W        W53446   0.453   7.941  15.945  0.1576 -0.0102 -0.0798
34700W        W53447  31.283  30.909   1.122  0.2829  0.1863 -0.0411
34701W        W53448  19.448  12.578  23.270  0.3500 -0.1098  0.3100
34702W        W53449  31.588  28.360  24.381 -0.0620  0.0542 -0.1094
34703W        W53450  17.790  35.326   5.340 -0.2727 -0.0657 -0.0357
34704W        W53451  26.236   2.274  22.966  0.2131 -0.0114 -0.2053
34705W        W53452   8.210  14.423   1.625  0.1477 -0.0123  0.1463
34706W        W53453  18.553  16.040  25.203 -0.3128 -0.0634  0.6076
34707W        W53454  32.400  23.299  18.729 -0.1584 -0.0946  0.2020
34708W        W53455  34.235   5.192  13.232  0.1074  0.2101 -0.1820
34709W        W53456  32.426   0.795  15.242  0.0174 -0.0678  0.0753
34710W        W53457  14.784   6.632  21.723  0.0538  0.3180  0.0637
34711W        W53458  21.436  34.157   1.889  0.1093  0.0130  0.3993
34712W        W53459  25.633   8.597  19.437  0.1410  0.0166 -0.0008
34713W        W53460  20.560  25.666  24.758  0.3159  0.4171 -0.3569
34714W        W53461  28.702  24.748  19.343 -0.1505 -0.3448 -0.0995
34715W        W53462  27.807  23.067  14.744  0.1097 -0.2110  0.2385
34716W        W53463  12.633  21.760  14.775 -0.1508 -0.2608 -0.3004
34717W        W53464   4.226  23.005  21.012  0.0773  0.0129  0.1441
34718W        W53465   3.155  13.897   2.543  0.0114 -0.1354 -0.0055
34719W        W53466  22.897  34.702  21.820  0.0053 -0.0647 -0.2071
34720W        W53467  18.068   0.757  25.296  0.0592 -0.1330  0.0349
34721W        W53468   8.695  27.058  24.301  0.0945  0.0274  0.1677
34722W        W53469   1.601  31.830  18.842  0.1673  0.3067 -0.0003
34723W        W53470  19.189  11.567   2.779  0.4273 -0.2013 -0.0687
34724W        W53471  14.463   5.446   8.819  0.1618  0.1689 -0.3191
34725W        W53472  35.011   0.115   6.942 -0.0056 -0.1885  0.1426
34726W        W53473  24.953  23.485  14.353  0.2037  0.0362  0.0463
34727W        W53474  23.006  20.272  14.143  0.1042 -0.0954 -0.0626
34728W        W53475  12.313  14.701  11.285 -0.1495 -0.0940 -0.0289
34729W        W53476  22.096  26.856  14.980 -0.0007  0.0153 -0.1121
34730W        W53477  33.522   1.227  15.561 -0.1998 -0.0132 -0.0270
34731W        W53478  31.073  26.659  13.676 -0.0565 -0.0613  0.1039
34732W        W53479  12.838   9.344   9.694 -0.0242 -0.0490 -0.0208
34733W        W53480  11.372  16.171  22.816 -0.2466 -0.1371  0.0470
34734W        W53481  12.415   4.571   2.123 -0.2036  0.2704  0.1089
34735W        W53482  19.548   6.241  22.828 -0.0208  0.1869 -0.4476
34736W        W53483  31.546   1.528   6.055 -0.1484 -0.2385 -0.1455
34737W        W53484  25.903  17.853   7.625 -0.0675  0.1260 -0.0439
34738W        W53485   1.271   3.598   4.008 -0.3852  0.0564 -0.0792
34739W        W53486  10.708   4.366  19.445  0.2834 -0.1128 -0.1940
34740W        W53487   4.609   3.559  23.683  0.0507  0.2404 -0.0556
34741W        W53488  12.992  26.866  24.755 -0.0862 -0.1812  0.2991
34742W        W53489  20.879   8.327  20.782 -0.0274  0.1041 -0.3346
34743W        W53490   1.303   2.236  20.284  0.1909 -0.0389  0.1150
34744W        W53491  29.452  21.547  11.641 -0.3290  0.1441  0.1172
34745W        W53492   2.793  31.432   3.953 -0.3036  0.1645 -0.0485
34746W        W53493  20.363  18.536   3.606  0.2432  0.0184 -0.2327
34747W        W53494  32.218  31.658  19.284  0.2906 -0.0098  0.0668
34748W        W53495  29.123  33.148   5.549  0.2261 -0.1466  0.0518
34749W        W53496  29.337  24.130  16.075  0.2693  0.3447  0.1101
34750W        W53497   8.249  21.505  24.470 -0.1749  0.4223 -0.4364
34751W        W53498   5.705  31.258   0.304  0.1095  0.0271 -0.2630
34752W        W53499   6.442  35.057  12.992  0.0372 -0.2308 -0.0419
34753W        W53500  29.340   3.563  13.765  0.0645  0.1881 -0.0625
34754W        W53501  18.147  11.513  20.321 -0.2219  0.0247  0.2287
34755W        W53502   7.093  29.044  14.063 -0.3784 -0.0983 -0.2483
34756W        W53503  22.628  15.875  14.821  0.0164  0.1529  0.1980
34757W        W53504  24.165  13.114  18.734  0.3349  0.2311 -0.0199
34758W        W53505  11.940  25.629  11.913 -0.1521  0.3631  0.1579
34759W        W53506   5.121  34.599   6.273 -0.1823 -0.3249 -0.0514
34760W        W53507  11.472   0.604  12.850  0.0599 -0.2110  0.2587
34761W        W53508  15.305   4.293   5.315  0.1167  0.2554  0.0956
34762W        W53509   9.249   4.665  19.164  0.2878 -0.2868  0.1806
34763W        W53510  22.390  25.285  21.905  0.0749  0.2217 -0.0904
34764W        W53511   8.625  17.845  20.064  0.1765 -0.1138  0.4527
34765W        W53512   5.620   7.009   0.063  0.1641  0.2843  0.2049
34766W        W53513  33.562  35.104  19.866  0.3275  0.0223  0.3626
34767W        W53514  32.700   1.687  15.667 -0.1667 -0.0400  0.0704
34768W        W53515  23.424   6.176  20.629  0.1802  0.0754 -0.2134
34769W        W53516  17.538  35.197  16.535 -0.0055  0.2272 -0.2742
34770W        W53517  18.763  33.708   4.159  0.0171 -0.1391  0.0006
34771W        W53518  32.459  20.546  20.485  0.2605  0.1855  0.2563
34772W        W53519  22.485  32.589  18.432  0.1599  0.1957  0.3392
34773W        W53520  13.565   1.821  24.745 -0.1427  0.1589 -0.1622
34774W        W53521   4.386   8.826  23.694 -0.1904 -0.2289 -0.0550
34775W        W53522  15.522   7.200   0.722  0.4196  0.0085 -0.1978
34776W        W53523  16.836  22.494   6.854 -0.1263 -0.3502  0.1411
34777W        W53524  26.764  19.301   7.606 -0.0136  0.1855  0.2937
34778W        W53525  16.915  31.622   0.649 -0.1737  0.2091  0.1440
34779W        W53526  21.334  23.175   5.731 -0.3432 -0.0851 -0.0076
34780W        W53527  15.506  18.811   7.888  0.4074  0.2013 -0.0511
34781W        W53528  31.442   3.011  23.832  0.2423 -0.1346 -0.0652
34782W        W53529  19.897   0.632   3.103 -0.0288  0.0247  0.3284
34783W        W53530  14.356   0.864  10.935  0.2494  0.1465 -0.3421
34784W        W53531  34.823  15.649  10.067  0.0277 -0.2534 -0.0728
34785W        W53532   1.422  26.136   4.170 -0.0311  0.2364  0.1320
34786W        W53533  12.635  33.379   7.112  0.0708  0.0641 -0.1270
34787W        W53534  11.346  16.855  10.251  0.0376 -0.3494 -0.0718
34788W        W53535  15.262  11.942  21.247 -0.0384 -0.2464 -0.2744
34789W        W53536  10.349   5.043  22.240  0.0020  0.0784 -0.0414
34790W        W53537  31.888  32.943  19.121 -0.2675  0.0037 -0.0733
34791W        W53538  25.817  26.654  23.323 -0.1562 -0.2200  0.0309
34792W        W53539  19.746   4.573  10.396 -0.0359  0.1929 -0.1778
34793W        W53540  25.010   1.772  24.558  0.1038 -0.3382  0.0107
34794W        W53541  32.750  19.279  13.091  0.0089  0.2527  0.1791
34795W        W53542  26.506   0.037  14.131 -0.2578 -0.1959  0.1267
34796W        W53543   7.453  10.014   6.345  0.1722  0.0398 -0.0784
34797W        W53544  24.107  11.157  11.824  0.0604  0.1808 -0.2464
34798W        W53545   8.963  33.517   5.520 -0.1964 -0.3145 -0.0027
34799W        W53546  19.904  21.363   2.549  0.1897  0.1239 -0.2637
34800W        W53547  19.156  18.473   6.263  0.1408  0.0762 -0.0863
34801W        W53548   9.354  30.661  11.229  0.2306  0.1978  0.2596
34802W        W53549   2.767  14.249  14.069  0.0344 -0.2966 -0.1289
34803W        W53550   9.658  21.894   6.733  0.1003 -0.3182 -0.1902
34804W        W53551  13.275   7.681  22.585 -0.1874 -0.0935  0.1891
34805W        W53552  11.835  19.025  13.622 -0.1967 -0.0463  0.0234
34806W        W53553   6.918  34.266  25.113  0.0651 -0.4619  0.1033
34807W        W53554   5.225   8.921   1.128 -0.5360 -0.1060 -0.0802
34808W        W53555  25.071  28.972  24.277 -0.1164 -0.1403 -0.0932
34809W        W53556   7.414  12.856   1.581 -0.0617 -0.0130  0.1202
34810W        W53557  15.051  25.808  15.442 -0.0524 -0.0234  0.0247
34811W        W53558   7.807  33.881   1.886  0.1523 -0.2045  0.2017
34812W        W53559  28.616  33.555  21.749  0.4803  0.3333  0.2323
34813W        W53560   4.191  27.088  26.002  0.0822  0.0121 -0.2329
34814W        W53561  24.327  25.526  10.806 -0.1901  0.2187 -0.1174
34815W        W53562  21.479  28.932  14.749  0.0795  0.1728  0.2295
34816W        W53563  10.356   6.997  22.160 -0.1455  0.0955 -0.2894
34817W        W53564  24.387   0.404   5.869  0.2294  0.2209 -0.1381
34818W        W53565  14.168   1.721   4.549 -0.1413 -0.2086 -0.1057
34819W        W53566  31.144  34.336   4.878  0.1385 -0.0642  0.0373
34820W        W53567  13.452  13.884   0.397  0.1296 -0.0448 -0.2682
34821W        W53568  30.447  24.451  25.875  0.0147  0.1862 -0.0253
34822W        W53569   3.898  19.650  16.348  0.2034 -0.1732 -0.1625
34823W        W53570   5.187  11.339  10.081 -0.2799  0.1311 -0.0009
34824W        W53571  14.648  21.147   3.376 -0.1408  0.0522 -0.0617
34825W        W53572  32.013   2.036   2.155 -0.1862 -0.0228  0.2519
34826W        W53573  34.499  27.226   3.041  0.1592 -0.1600 -0.0321
34827W        W53574   1.053  19.811  25.753  0.1997  0.2516  0.0838
34828W        W53575   6.214   2.228  11.777 -0.0848 -0.1099  0.2760
34829W        W53576   0.359  29.029   7.871  0.1941 -0.6348 -0.0512
34830W        W53577  25.119  11.910  24.242 -0.2751 -0.0223 -0.1184
34831W        W53578  22.278  16.886  20.553  0.0922  0.2818 -0.0405
34832W        W53579  34.169  20.318  14.842 -0.0881  0.3000 -0.1485
34833W        W53580  33.056  16.047  23.165 -0.1082 -0.0079 -0.0109
34834W        W53581   5.514   8.612  20.689 -0.1349  0.0672 -0.2258
34835W        W53582  10.579  33.305   2.175  0.2035  0.0741 -0.2017
34836W        W53583   4.984   6.296  26.099  0.1599  0.0851  0.3465
34837W        W53584  11.466  11.724   5.776  0.0906  0.1501 -0.0468
34838W        W53585  10.490  31.413   3.745  0.2553 -0.1622 -0.2364
34839W        W53586  30.602   4.985  13.802  0.1305  0.0037 -0.2004
34840W        W53587  16.819   3.981   2.529 -0.0242 -0.1114 -0.2998
34841W        W53588  12.027  30.674   8.666  0.2011  0.2103 -0.0361
34842W        W53589  32.905  22.228  18.209  0.1623 -0.1677  0.1281
34843W        W53590   7.963  18.471   6.331  0.0497 -0.1810  0.1770
34844W        W53591  35.116  10.169  17.247  0.2314  0.2032  0.0324
34845W        W53592  15.207  22.706  25.668 -0.0744 -0.0792  0.0808
34846W        W53593   8.130   1.470  25.311 -0.0931  0.2698  0.0913
34847W        W53594   8.355   8.553   1.959  0.2295  0.3338 -0.1559
34848W        W53595  15.837  12.043  10.216  0.0179  0.2889 -0.1701
34849W        W53596   5.289   8.572  23.272  0.0386  0.3541  0.1168
34850W        W53597  17.663   1.087  18.439  0.2852 -0.2873 -0.4367
34851W        W53598   6.355  12.407  23.867 -0.2829  0.0793 -0.2444
34852W        W53599  24.856  22.718   9.238  0.0353 -0.0635  0.5853
34853W        W53600  18.081  23.115   7.278 -0.0490  0.3076 -0.2040
34854W        W53601  34.676   6.279   1.318 -0.2723  0.1111  0.0722
34855W        W53602  27.770  28.251  25.846 -0.4442 -0.1417 -0.0294
34856W        W53603  31.439  32.283   2.917  0.1756  0.0050 -0.0716
34857W        W53604  28.929   3.291  11.674 -0.1493 -0.1614 -0.2031
34858W        W53605  27.503  18.917   6.952 -0.1764 -0.2074  0.0335
34859W        W53606   3.471  32.679  24.829 -0.1427 -0.1204 -0.1528
34860W        W53607  34.737  26.994  23.196  0.1566  0.4623  0.2929
34861W        W53608  16.298  21.929  12.730 -0.2369 -0.0873  0.1137
34862W        W53609  13.434  27.267   8.929  0.0184  0.0482  0.1245
34863W        W53610   3.901   7.856  18.992  0.0379 -0.1159  0.1962
34864W        W53611  33.747  17.233  22.988  0.2343 -0.0288 -0.3500
34865W        W53612  10.278  21.558  22.697 -0.1992 -0.0004  0.2086
34866W        W53613   7.182  17.200   8.220  0.0729  0.2241 -0.3620
34867W        W53614  17.943   0.201   1.201  0.0741 -0.0632 -0.0129
34868W        W53615  18.391  31.469   2.472  0.2476  0.1909  0.0645
34869W        W53616  14.940  16.047  14.026 -0.0398  0.0911  0.0939
34870W        W53617  14.843   7.175   2.542 -0.0027  0.0798  0.1224
34871W        W53618  33.212  34.546  13.458  0.0271 -0.0297  0.0899
34872W        W53619  23.172  26.648  17.269 -0.0865  0.1874  0.1944
34873W        W53620  31.592  29.441  19.922  0.1851  0.0195  0.1389
34874W        W53621  21.600  10.755   2.073 -0.2244 -0.2656  0.1418
34875W        W53622  28.012  11.641   8.346 -0.2193 -0.1115 -0.0172
34876W        W53623   4.539  19.457  22.438 -0.3255 -0.0570 -0.2336
34877W        W53624  30.351  23.243  20.356 -0.0523  0.2681  0.2928
34878W        W53625  30.306   1.970  19.434 -0.0165  0.0904  0.1401
34879W        W53626  21.403  23.995   1.132 -0.0546  0.2043  0.3856
34880W        W53627  25.641   6.516  15.861 -0.1959 -0.2525  0.0394
34881W        W53628  32.377  33.581  13.278  0.0289 -0.1954  0.0191
34882W        W53629  30.675  29.471   1.562 -0.1005 -0.3415  0.0150
34883W        W53630  19.769  16.507   5.322 -0.2390 -0.2380 -0.2187
34884W        W53631   3.821  11.403  23.535 -0.2586 -0.2971  0.0642
34885W        W53632   8.462  22.745  21.905 -0.3843 -0.1443  0.3857
34886W        W53633  29.234  17.308  21.951 -0.1550 -0.0776  0.0468
34887W        W53634   2.277   4.701  13.923 -0.0570  0.2793 -0.1352
34888W        W53635  21.357  20.938  17.648 -0.2457  0.3127 -0.2159
34889W        W53636  33.249  20.870   9.948  0.2275 -0.0648  0.1889
34890W        W53637   6.540  15.422  10.882  0.0050 -0.1835  0.0176
34891W        W53638   2.863  18.887   3.503  0.1590  0.3774  0.0827
34892W        W53639  14.592   8.711  24.597  0.2883 -0.1009  0.0015
34893W        W53640   7.058   0.299   3.017  0.1920 -0.2697  0.4837
34894W        W53641   4.793   7.799   2.492 -0.2536  0.3027 -0.1417
34895W        W53642   6.982  30.829   3.864  0.0308  0.0474  0.1502
34896W        W53643  32.585   2.890   1.985  0.0111  0.0444  0.1438
34897W        W53644  22.681  14.769  17.628  0.2044  0.1139  0.1734
34898W        W53645  11.827   7.094   5.347 -0.0114 -0.1675  0.2023
34899W        W53646  27.073  18.371   5.455  0.0292  0.0334 -0.1663
34900W        W53647  20.928   0.851  21.171  0.1311  0.1193  0.4159
34901W        W53648  14.916  31.711   4.902 -0.0051  0.0067  0.1235
34902W        W53649  15.347  21.223   4.698  0.2328 -0.0456 -0.2547
34903W        W53650   2.312   0.693  22.673 -0.1725 -0.3419  0.1210
34904W        W53651  34.300   9.864  14.668 -0.0773  0.3249 -0.1074
34905W        W53652  31.475  10.355  10.114 -0.1874  0.1352 -0.1171
34906W        W53653   2.775  27.544   1.225  0.0811  0.1670 -0.0300
34907W        W53654  17.149  26.990   7.391 -0.1560 -0.3433  0.0470
34908W        W53655  28.389  25.342  20.902 -0.0973 -0.0222  0.2686
34909W        W53656  13.033  19.987  14.162 -0.1196  0.0623 -0.1338
34910W        W53657  30.002  19.096   4.047  0.0134 -0.2532  0.0088
34911W        W53658  11.288  21.631   6.334  0.0670  0.0337  0.2130
34912W        W53659  11.335  14.479   5.926 -0.0525 -0.0020 -0.1378
34913W        W53660  18.526  27.233  22.557 -0.3019 -0.1915 -0.0414
34914W        W53661  22.350  28.668  24.234 -0.0719 -0.0825  0.2806
34915W        W53662  20.381   2.033   2.830  0.0181 -0.0945  0.2476
34916W        W53663   9.766  17.657  12.489 -0.2143 -0.3667 -0.2643
34917W        W53664   3.161  23.307  26.121  0.0778  0.2058 -0.1764
34918W        W53665  14.502  19.540  14.079 -0.0483  0.1104 -0.0391
34919W        W53666  11.806  21.331  10.020 -0.0051  0.2880  0.0293
34920W        W53667   5.789  29.183   3.766 -0.2072 -0.3859  0.0583
34921W        W53668  14.710   0.776   4.425  0.1402 -0.0682  0.1072
34922W        W53669  33.755   6.892  19.885 -0.1579 -0.1230 -0.2394
34923W        W53670  20.791  10.220  20.101 -0.2621  0.0245  0.0587
34924W        W53671  25.377   5.730  22.212  0.0737  0.1897 -0.0692
34925W        W53672  29.006  34.964   5.178 -0.0349  0.0971 -0.2456
34926W        W53673  29.358  29.257  24.027  0.2567 -0.3821  0.1143
34927W        W53674  23.993  23.294  15.929  0.1400 -0.1649  0.0020
34928W        W53675  12.105  10.308  12.015  0.1391 -0.2360  0.0584
34929W        W53676  31.049  27.930  25.795  0.0605 -0.2665 -0.2772
34930W        W53677  32.895  30.320   1.923 -0.0392 -0.2294 -0.0543
34931W        W53678  16.461   5.647  19.330 -0.1555  0.1306 -0.2171
34932W        W53679  12.025   3.514   9.773 -0.1270  0.0288 -0.0840
34933W        W53680   4.142   4.809  26.122  0.0130 -0.0963 -0.0157
34934W        W53681  23.413   3.610  26.214  0.1612  0.1563 -0.0113
34935W        W53682  32.468  17.782  17.883 -0.1991  0.0420  0.1973
34936W        W53683  33.563   9.702  20.330 -0.0278 -0.0889  0.3806
34937W        W53684  29.393  18.418   4.995  0.0128 -0.0612 -0.1012
34938W        W53685  12.852  15.046  26.125 -0.2424  0.0930  0.1508
34939W        W53686  12.626   4.110  24.824 -0.0511 -0.1022  0.1669
34940W        W53687  25.516   1.900   2.383  0.1707  0.0518 -0.0267
34941W        W53688  31.790  28.873  12.915  0.2172  0.0761  0.2643
34942W        W53689  20.047  24.034  23.460  0.1895  0.3986 -0.1388
34943W        W53690  16.049   6.398   8.942  0.2236  0.0723 -0.0087
34944W        W53691   2.697  26.670   3.583 -0.2160  0.0756 -0.1475
34945W        W53692   9.937  30.105  15.807  0.2334  0.0851 -0.1153
34946W        W53693   1.422  33.950   7.449  0.2258  0.2096  0.1015
34947W        W53694  13.491  16.391   2.383  0.2421  0.0277  0.3326
34948W        W53695  33.247  19.600   7.620  0.2338  0.2819 -0.0013
34949W        W53696  31.822  17.674  17.144  0.0100  0.3930  0.2850
34950W        W53697  29.746   4.639  26.231 -0.2184  0.0386 -0.2166
34951W        W53698  21.048   4.336   2.413 -0.0940  0.0963  0.0313
34952W        W53699  20.878  21.217   5.856  0.0890  0.1770 -0.0622
34953W        W53700   3.222   8.439   6.171  0.0926  0.4151 -0.4494
34954W        W53701   5.833  23.974   6.222  0.1535  0.0420 -0.0598
34955W        W53702  33.714  14.101  23.814 -0.3901  0.1268  0.0691
34956W        W53703  15.678  22.531   8.774 -0.0890  0.0467  0.0581
34957W        W53704  25.107  35.188   2.764  0.0385  0.2276  0.0289
34958W        W53705  25.183   0.217  21.866 -0.2451 -0.4003 -0.0040
34959W        W53706  29.576  15.909  12.146  0.0353 -0.1157  0.0008
34960W        W53707  26.490  18.146  22.285  0.4323  0.1223  0.1074
34961W        W53708  26.345  14.686  23.027 -0.0802  0.1865  0.1040
34962W        W53709  24.426  16.898  24.824 -0.0311  0.0946  0.1173
34963W        W53710  20.507  11.097  19.961  0.0514 -0.2151 -0.1192
34964W        W53711   9.033   8.238  21.813 -0.0336  0.2091  0.2776
34965W        W53712   4.388  33.783   9.916  0.4205 -0.1089 -0.1205
34966W        W53713   5.476  24.206  23.586  0.0538 -0.2021 -0.0226
34967W        W53714  32.950  30.939  15.338 -0.0290 -0.0936  0.0846
34968W        W53715  34.601   3.937   5.429  0.0692  0.2168 -0.0444
34969W        W53716  20.784   3.709  15.283  0.1098 -0.0357  0.0960
34970W        W53717  19.392  14.277   4.127  0.1262  0.0033  0.3259
34971W        W53718  26.801  13.931  12.745  0.2219 -0.0783 -0.0947
34972W        W53719  19.592  31.121  22.817 -0.2820 -0.0964 -0.3079
34973W        W53720  12.038  26.591  13.044 -0.0867  0.0992 -0.2878
34974W        W53721  31.633   8.488   2.394 -0.0148 -0.2642  0.1668
34975W        W53722  17.436   0.162  19.421  0.0331 -0.0743 -0.3760
34976W        W53723   0.553  15.019  11.471 -0.1102  0.1256 -0.2687
34977W        W53724   6.810  17.428  18.665  0.0547 -0.1057  0.1738
34978W        W53725   0.798  11.419  13.138  0.2766  0.2187 -0.1953
34979W        W53726  30.894  21.478   8.645  0.1501  0.2057 -0.0973
34980W        W53727  19.339  17.638  22.765  0.1638  0.0921  0.1853
34981W        W53728  27.566  15.503  21.047 -0.0502  0.0123  0.0588
34982W        W53729  34.782  27.489  14.776 -0.0041  0.2509 -0.2007
34983W        W53730  18.861   8.576  23.330 -0.2586  0.4588 -0.0481
34984W        W53731  16.666   7.078   5.325  0.2577  0.0156  0.1442
34985W        W53732  14.782  15.239  10.150 -0.0511  0.0130 -0.0688
34986W        W53733   4.247   0.624   3.126 -0.1113 -0.1069 -0.0361
34987W        W53734  20.473  25.789   4.537  0.0481  0.0361 -0.2145
34988W        W53735  34.850  10.508  10.367 -0.1806 -0.1072 -0.0702
34989W        W53736  15.584   0.489  23.491  0.1221 -0.4328 -0.3318
34990W        W53737   2.181  19.502  18.030  0.0309  0.0092  0.0026
34991W        W53738  29.869  10.433  12.833 -0.2267  0.0360  0.0461
34992W        W53739  12.377   4.393  12.653  0.1321 -0.2096  0.0106
34993W        W53740  31.727  25.578  20.201 -0.5798  0.4749 -0.0585
34994W        W53741  23.744   9.303  20.981  0.1852 -0.2329 -0.2945
34995W        W53742  33.313  25.059  18.364 -0.1314 -0.1205  0.1543
34996W        W53743  15.564  30.979   0.362 -0.0301 -0.3274 -0.2904
34997W        W53744  14.701  22.730   3.343  0.2117 -0.0288 -0.0904
34998W        W53745   6.863  12.482   0.422 -0.0974  0.3610  0.1788
34999W        W53746   3.160  14.616  23.474  0.0363 -0.4014  0.0345
35000W        W53747   5.932  13.609   3.167  0.1313 -0.2308 -0.0761
35001W        W53748  25.562  35.255   1.743 -0.2016 -0.4901 -0.1737
35002W        W53749  31.370   9.613  15.138  0.2468  0.0477 -0.0499
35003W        W53750  15.870  13.438   6.859  0.0411  0.1479  0.1767
35004W        W53751  14.922  19.937   8.188 -0.2766 -0.0010  0.0952
35005W        W53752  26.941   3.977   4.918 -0.1587  0.0942  0.5598
35006W        W53753  26.200  35.186  21.875 -0.1852 -0.1960  0.0523
35007W        W53754   2.464  28.232  20.026  0.1951 -0.0555 -0.1554
35008W        W53755  27.169  11.377  23.982  0.1621 -0.0280 -0.2160
35009W        W53756  25.725   4.457  16.322 -0.1098 -0.3738 -0.0182
35010W        W53757  10.356   8.872  10.043  0.0959 -0.0298 -0.0175
35011W        W53758  22.348  13.012  18.932  0.2653 -0.0643 -0.0908
35012W        W53759  30.298  25.250  20.586  0.1525  0.0370  0.2028
35013W        W53760  10.994  35.000   7.451 -0.0130  0.1269  0.0535
35014W        W53761  12.962   6.094  18.522 -0.0353  0.0317 -0.0035
35015W        W53762   9.713  12.468  13.091  0.0878 -0.0454 -0.1363
35016W        W53763  26.345  13.145  19.295  0.1685 -0.3015 -0.2191
35017W        W53764  31.644   9.022  10.824 -0.0414 -0.2246  0.2471
35018W        W53765  17.168   2.899  20.602 -0.2715 -0.0047 -0.2640
35019W        W53766  27.261  13.239  13.687 -0.3620 -0.0390  0.0605
35020W        W53767  28.756  25.222  14.064 -0.0698 -0.0218 -0.0186
35021W        W53768   2.069  13.175  13.680  0.3460  0.0303  0.3977
35022W        W53769  11.298  13.717   8.761 -0.1071 -0.0358 -0.1748
35023W        W53770  17.986  12.060   5.149 -0.0850  0.1377  0.0582
35024W        W53771  29.455   8.844  17.249 -0.3023  0.4645  0.0192
35025W        W53772  30.252  22.302  13.255 -0.0426  0.1031  0.0222
35026W        W53773   7.117  33.923   6.850  0.0623  0.1148  0.1063
35027W        W53774   9.268  34.139   6.749  0.0716  0.3200  0.3254
35028W        W53775   9.029   3.329   2.112  0.0655 -0.3135 -0.1693
35029W        W53776  31.515   4.572  13.555 -0.2270  0.2546  0.0486
35030W        W53777   9.041  19.535   0.687 -0.0223 -0.1097 -0.0610
35031W        W53778  17.342  29.565  20.348 -0.0318 -0.0431  0.2644
35032W        W53779  23.359  31.310  20.302  0.1071 -0.0697 -0.0945
35033W        W53780  12.747  20.009   9.342  0.4312  0.2825 -0.0407
35034W        W53781  25.412  31.060   5.039 -0.2936 -0.2577 -0.0749
35035W        W53782  17.850   6.159   8.787  0.1462 -0.0955  0.0629
35036W        W53783  17.783  13.420   3.394 -0.0815 -0.2773 -0.5504
35037W        W53784  18.436   8.540   7.762 -0.0108 -0.1703  0.0064
35038W        W53785  29.966   1.488   5.336 -0.0626 -0.1783  0.1097
35039W        W53786   5.899  33.988  10.000  0.1916 -0.2095  0.5410
35040W        W53787  29.894   3.751  15.836 -0.2625  0.1856  0.0346
35041W        W53788  21.282   0.638   1.007 -0.1606 -0.0220  0.0692
35042W        W53789   5.422  13.465   6.049 -0.1288 -0.0729 -0.1763
35043W        W53790  31.312   7.587  10.493  0.0378  0.0917 -0.0609
35044W        W53791  22.214  24.661  24.066 -0.3498  0.0109  0.0429
35045W        W53792   0.184  34.182  21.456  0.0674  0.2716 -0.1961
35046W        W53793   3.026  28.864  23.649 -0.1127  0.0831 -0.3342
35047W        W53794   7.790  35.030  22.304  0.2557 -0.4117  0.1831
35048W        W53795   3.809  34.668   9.882  0.0044  0.3963 -0.1126
35049W        W53796   6.657  30.380   9.804 -0.0134  0.2853  0.0614
35050W        W53797  30.790  25.252  25.142 -0.3906 -0.0759  0.1510
35051W        W53798  31.441  21.078  18.426 -0.3260  0.0414 -0.2999
35052W        W53799  29.614   4.698  12.861 -0.1296  0.0730  0.0611
35053W        W53800  19.362  28.535   4.671 -0.0648 -0.0707  0.1346
35054W        W53801   0.651  11.612  25.008  0.3729  0.3170 -0.0917
35055W        W53802  11.399  10.796   6.268 -0.2343 -0.1343 -0.1178
35056W        W53803  30.895  15.237  25.464  0.2765 -0.2003  0.2474
35057W        W53804  23.735  10.326  14.750  0.1783 -0.0975  0.1634
35058W        W53805  30.320   0.269  12.114  0.1566  0.0512  0.0880
35059W        W53806   8.693   7.552   8.037 -0.1632 -0.3659  0.0840
35060W        W53807  18.363   4.528   4.257  0.2817 -0.1442  0.0750
35061W        W53808  29.465   8.532  11.522 -0.1682 -0.1290 -0.2823
35062W        W53809  30.283  10.740  12.089  0.1627 -0.1199 -0.2740
35063W        W53810  34.286  10.047   0.581 -0.4476  0.1074 -0.0916
35064W        W53811   6.206  30.588   5.437 -0.1931 -0.1559  0.0983
35065W        W53812  27.628   3.176  12.400 -0.0651  0.0033 -0.0340
35066W        W53813  13.965   5.583  22.549  0.1863  0.3636  0.2748
35067W        W53814  12.191   9.253  22.747  0.2048  0.0869 -0.1919
35068W        W53815  31.631  13.388   7.275 -0.0723  0.5647  0.1367
35069W        W53816  25.095  29.957  15.355  0.0166  0.0125 -0.0016
35070W        W53817   6.831   5.219  23.899  0.0458  0.1957  0.3477
35071W        W53818  19.893  12.509   2.125  0.2714  0.0821  0.0972
35072W        W53819   5.407  12.536  20.369 -0.1540  0.0895  0.2395
35073W        W53820  22.151  16.258  19.626 -0.0052  0.2502 -0.0352
35074W        W53821  27.299  29.649  11.607 -0.2821 -0.3760 -0.0090
35075W        W53822  20.210   1.649   3.046  0.1557  0.0756 -0.0763
35076W        W53823  19.897  29.177  23.247  0.1694 -0.0366 -0.2316
35077W        W53824  29.798   7.749  14.660  0.3367  0.0520  0.1462
35078W        W53825   3.873  27.419  10.335  0.1697 -0.0737  0.0532
35079W        W53826   0.843  15.228  18.826 -0.1647 -0.0947 -0.0888
35080W        W53827  33.476  20.053  25.135 -0.0568 -0.0798 -0.0090
35081W        W53828   8.863  15.538   5.238  0.0604 -0.2719 -0.2077
35082W        W53829  11.771  31.894   4.527  0.2218 -0.2155  0.0751
35083W        W53830  30.830  11.451  19.498  0.2563 -0.1199 -0.3383
35084W        W53831  15.748  35.186  22.195 -0.2000  0.0365  0.1023
35085W        W53832  25.851  32.205  11.314 -0.0028 -0.3395  0.1581
35086W        W53833   0.020  15.132  17.713 -0.2126  0.0913 -0.0465
35087W        W53834   9.078   9.645  26.093 -0.0597  0.1193 -0.0023
35088W        W53835  22.495   1.541   0.878 -0.4520 -0.0520  0.1567
35089W        W53836  20.335  15.669   2.603  0.2975 -0.2684  0.1248
35090W        W53837   3.400   4.669   3.902 -0.0954 -0.0865 -0.1096
35091W        W53838   9.625  10.860  11.020  0.0262 -0.3002 -0.1675
35092W        W53839  18.107  11.451  24.655 -0.1196  0.0498 -0.0182
35093W        W53840  13.849   2.995  25.041 -0.4249  0.0906  0.2445
35094W        W53841   8.595  34.246  26.166  0.4709 -0.0805  0.2005
35095W        W53842  29.362  19.637  15.966 -0.3256  0.2679 -0.1557
35096W        W53843  31.567  32.040   4.980  0.1353  0.0754 -0.2182
35097W        W53844  20.254  18.298  18.495 -0.0068  0.0039 -0.0545
35098W        W53845  25.528  30.255  15.379 -0.1502 -0.1254 -0.0229
35099W        W53846  19.335   7.719  11.087  0.1584 -0.0319  0.2428
35100W        W53847   7.552  27.495  20.843  0.0189 -0.2782 -0.2555
35101W        W53848   9.569  31.643   7.899  0.3693 -0.0050 -0.2499
35102W        W53849  23.498  13.665  16.411 -0.3375  0.0841  0.1012
35103W        W53850   4.339  23.633  20.251 -0.1916 -0.1757 -0.1688
35104W        W53851  21.327  30.618  19.857 -0.3497 -0.1033  0.0504
35105W        W53852  24.242  34.281  14.069  0.0706  0.2130  0.2895
35106W        W53853  24.342  17.459  22.591  0.0398  0.1636  0.0805
35107W        W53854  23.612  10.915  15.382  0.0395 -0.0739  0.0762
35108W        W53855   7.994  25.348  25.933  0.2106  0.5313  0.2465
35109W        W53856  11.825  27.179  23.567 -0.2988 -0.2285 -0.0859
35110W        W53857  25.063   4.633  17.139 -0.2504 -0.2304 -0.1001
35111W        W53858  32.792   8.697  22.756  0.1117  0.0031 -0.0854
35112W        W53859  17.936  35.350  19.214  0.0039  0.1490 -0.1687
35113W        W53860   9.382  23.316   0.486 -0.2054 -0.0958  0.2959
35114W        W53861  20.754  14.526  22.016 -0.0008  0.0454 -0.2851
35115W        W53862  17.487   9.084  10.539  0.2192 -0.6356 -0.2058
35116W        W53863  14.423  18.464  22.148 -0.1941 -0.0114  0.4025
35117W        W53864  23.888  33.196  23.936  0.1925  0.1656  0.1617
35118W        W53865  15.338   3.259   3.013 -0.2063 -0.3951 -0.2006
35119W        W53866  28.129  30.823  22.884 -0.1110  0.1232 -0.2535
35120W        W53867  32.020  32.168   1.919  0.1094 -0.0799 -0.0104
35121W        W53868  21.149   4.055   1.219  0.0173  0.0781  0.1137
35122W        W53869  16.429  10.942  11.569  0.0231 -0.1186  0.0069
35123W        W53870   5.947  26.257   6.670 -0.1144 -0.2392 -0.2144
35124W        W53871  22.075  32.831  16.030 -0.0300 -0.4403  0.2589
35125W        W53872  20.587   3.440  20.101 -0.0125 -0.1473  0.1014
35126W        W53873  22.255   1.400  13.995  0.4094 -0.0930  0.3200
35127W        W53874  15.327  14.437  23.722 -0.2512 -0.0710 -0.1725
35128W        W53875  30.460  18.606  18.341 -0.2127  0.2604 -0.2958
35129W        W53876  12.249  14.947   8.086  0.1811 -0.0002 -0.0484
35130W        W53877  27.389   4.668   3.656 -0.0423  0.1978  0.0985
35131W        W53878  27.367  12.562  16.191  0.0938 -0.0484 -0.0646
35132W        W53879  20.425  26.676  18.699 -0.1671  0.2345  0.0039
35133W        W53880  26.690  18.102  18.395  0.0871  0.1954 -0.0652
35134W        W53881  32.058  20.433   5.381 -0.1123 -0.2567 -0.1788
35135W        W53882  20.137   8.291   3.936 -0.1390 -0.3924 -0.2223
35136W        W53883  18.474   6.250  24.503  0.1535 -0.0263  0.0585
35137W        W53884   3.055   8.207   0.083  0.0739 -0.1486  0.1114
35138W        W53885   9.236  24.174   3.132 -0.1447  0.0470 -0.1211
35139W        W53886   6.075  26.863  16.118  0.1278 -0.0113 -0.2419
35140W        W53887  26.111  10.483   0.215  0.3171  0.0496 -0.2266
35141W        W53888  25.452  22.776  17.599  0.2047  0.3297 -0.1569
35142W        W53889   6.784  18.888   6.456 -0.1620  0.5331 -0.1923
35143W        W53890   3.420  28.564  18.911  0.1152  0.0769  0.0108
35144W        W53891  17.491  11.800  19.400  0.1485 -0.3576  0.0542
35145W        W53892  26.394   7.649  11.653  0.1033 -0.1592 -0.2459
35146W        W53893   5.340   1.551   2.360 -0.2339 -0.0513  0.0317
35147W        W53894  33.114  20.455  17.522 -0.1779  0.1301 -0.3743
35148W        W53895  32.897  27.624   2.581  0.3514  0.1484  0.3852
35149W        W53896  32.552  21.080   7.317  0.0874  0.0210  0.1313
35150W        W53897  28.323  29.238  11.587  0.4263  0.2439  0.4501
35151W        W53898  34.946  30.948   3.303 -0.1798  0.0871 -0.1194
35152W        W53899  32.175  33.536   4.848 -0.1947  0.1086  0.0792
35153W        W53900  26.169   2.601  22.076  0.2099 -0.0371 -0.0628
35154W        W53901  24.956  16.426  15.655  0.2223  0.2209  0.2211
35155W        W53902  11.257   8.330  21.526 -0.1516  0.2981  0.1004
35156W        W53903  31.796  23.436  25.539 -0.0956 -0.2045 -0.2636
35157W        W53904  16.021  34.389   5.640 -0.0179  0.0840  0.1326
35158W        W53905  31.938  26.499  10.698  0.2483 -0.2667 -0.0139
35159W        W53906  23.021  13.768  19.020  0.0378  0.0376 -0.0789
35160W        W53907   7.542  14.003   5.720  0.0901  0.0045  0.0741
35161W        W53908   2.832   8.759  24.479 -0.1123  0.2551  0.0539
35162W        W53909  35.012  24.383   1.001  0.1012  0.0192  0.0123
35163W        W53910  21.625  20.281  19.056  0.3509  0.4485 -0.2563
35164W        W53911   2.163  13.311   3.585 -0.0553 -0.0041  0.0812
35165W        W53912  19.712  32.989  22.253  0.2469  0.2572 -0.0267
35166W        W53913  33.898  21.592  22.348 -0.0870  0.3713 -0.0484
35167W        W53914   6.680  29.026   1.021  0.3734  0.1447 -0.2278
35168W        W53915   0.228  25.207  22.235  0.1512 -0.0729 -0.2695
35169W        W53916  26.175  17.481  10.505  0.1117  0.0776 -0.1410
35170W        W53917   8.494  10.185  11.231  0.1549 -0.2583  0.0285
35171W        W53918  30.337  35.327  20.072  0.1263  0.1782 -0.0005
35172W        W53919   4.138  10.141  22.295 -0.3360 -0.1574 -0.1000
35173W        W53920  16.424  27.678   4.492  0.0405 -0.2293  0.0707
35174W        W53921  11.339  20.349   6.331 -0.0968  0.3934  0.0631
35175W        W53922  28.356  35.293   2.041 -0.1687  0.4307 -0.1393
35176W        W53923  34.664   0.655  16.489 -0.3751 -0.0218 -0.0253
35177W        W53924   0.729  28.771   6.310 -0.2273  0.0197  0.0303
35178W        W53925  22.778  24.266  14.169  0.1563 -0.2134 -0.1898
35179W        W53926  20.099  20.372  21.929 -0.0555  0.2215 -0.0454
35180W        W53927   5.589  14.238   0.309 -0.0980  0.2125 -0.2853
35181W        W53928  25.002   5.098  22.874 -0.0080 -0.1838 -0.0700
35182W        W53929  29.251  26.912  24.959 -0.1453  0.1159 -0.1311
35183W        W53930   3.844   2.652  17.695  0.1293 -0.4532 -0.1662
35184W        W53931  25.424   3.152  22.287 -0.1410 -0.0385  0.0351
35185W        W53932   8.739  20.461  10.027  0.0758  0.2432  0.1590
35186W        W53933  27.147  20.137  12.704  0.1334 -0.2276 -0.4137
35187W        W53934  20.591   3.289   5.933  0.1225 -0.0034  0.1221
35188W        W53935  11.996  15.336  10.124  0.1708  0.1837 -0.0836
35189W        W53936  31.675  10.580   8.725 -0.0331  0.2873  0.0723
35190W        W53937   6.061  22.278  24.444 -0.1543  0.2172 -0.3173
35191W        W53938  18.962  20.976   0.260 -0.2505 -0.1626  0.2056
35192W        W53939   3.981  19.624  19.569  0.0999  0.0575  0.1524
35193W        W53940  22.504   5.130  24.240 -0.2720 -0.0791 -0.0593
35194W        W53941  18.583  17.979   9.494  0.1925  0.1338 -0.0055
35195W        W53942  29.532  23.843  21.776  0.0239  0.3068 -0.1607
35196W        W53943  12.618  32.409   4.216 -0.2375  0.2527  0.2810
35197W        W53944  30.756   6.899  10.189  0.1244 -0.2477 -0.1380
35198W        W53945   0.659  31.085  22.246 -0.0269 -0.1259  0.0742
35199W        W53946  31.416  25.905   8.956 -0.2419 -0.0319 -0.2211
35200W        W53947  18.975  30.313   2.262  0.0975 -0.1859 -0.0277
35201W        W53948  28.290  11.519  14.667  0.1771 -0.0954  0.3019
35202W        W53949  19.731   3.419   3.781 -0.0610 -0.1524  0.0776
35203W        W53950  23.446  19.826  22.963 -0.0392 -0.3687 -0.1244
35204W        W53951  18.323   3.762   8.200 -0.0732 -0.1348  0.3801
35205W        W53952  18.291  22.910  21.818 -0.2171  0.2709 -0.2748
35206W        W53953   9.348   6.167  25.624 -0.2697 -0.1941 -0.1918
35207W        W53954  33.708  33.510  14.901  0.2047  0.2688  0.2726
35208W        W53955   2.878   4.172   6.861 -0.0495  0.1472  0.1259
35209W        W53956  13.691  11.837  14.562 -0.1865 -0.3166  0.3006
35210W        W53957  17.797  29.374  25.400 -0.2098  0.3650 -0.0106
35211W        W53958   6.207  27.847   4.754  0.0759 -0.1447  0.0292
35212W        W53959   0.835   9.863  25.020 -0.2695 -0.0797  0.0190
35213W        W53960   7.478  17.784  20.557 -0.2513 -0.1208 -0.3052
35214W        W53961   4.713  15.085   5.449 -0.0269  0.1162 -0.1099
35215W        W53962   0.836   7.026   1.317 -0.1516  0.3628  0.3258
35216W        W53963  28.046  16.265   4.658 -0.3431 -0.0340  0.1323
35217W        W53964   7.851  32.835   2.697 -0.0594 -0.1926  0.1207
35218W        W53965  33.926  31.855  17.966  0.0021  0.1451  0.0480
35219W        W53966  20.567  29.285   3.369 -0.1332 -0.0295  0.0664
35220W        W53967   9.102  31.918   3.849  0.3378 -0.0809 -0.0437
35221W        W53968  18.688  19.283  10.180 -0.1661 -0.4446  0.0060
35222W        W53969  23.542   9.514  25.354  0.2873 -0.2094  0.1405
35223W        W53970  29.252  15.816  13.823  0.6034  0.2503 -0.0868
35224W        W53971  17.081  23.324  12.881 -0.4151 -0.1063  0.3148
35225W        W53972   0.585   0.536  14.035  0.2250  0.0413  0.3321
35226W        W53973  24.851   1.683  23.160  0.2904  0.0966 -0.0914
35227W        W53974  30.192  24.587  12.639 -0.0959 -0.2193  0.2048
35228W        W53975  30.200  18.154  14.738  0.0920 -0.1646  0.0907
35229W        W53976  16.328   5.240   0.478  0.0351  0.0152  0.0559
35230W        W53977   0.640   3.086  16.219 -0.0949 -0.0356 -0.2105
35231W        W53978  29.467   1.058  18.741  0.1527  0.1704  0.1287
35232W        W53979  19.425  17.083   3.779 -0.2075 -0.0435 -0.1092
35233W        W53980   5.096   6.131   7.103 -0.0435  0.0320 -0.0595
35234W        W53981  26.923  29.433   9.732  0.0412  0.1034  0.1682
35235W        W53982  28.507  15.076  25.740 -0.6306  0.1459  0.2853
35236W        W53983  32.692  16.691  13.209 -0.0834 -0.0851  0.0969
35237W        W53984  22.609   6.073  17.559  0.0273 -0.2023  0.0634
35238W        W53985  16.275   1.371   3.918  0.0440 -0.0418  0.0283
35239W        W53986  16.881  29.509   5.316  0.3703  0.4321 -0.1301
35240W        W53987  28.893  10.159   7.553 -0.0975  0.2887  0.0866
35241W        W53988  23.007   2.271  18.231  0.1467 -0.0998 -0.0353
35242W        W53989  24.440   6.371   0.040  0.1017 -0.1247  0.1049
35243W        W53990   4.858  15.064  20.539  0.1916 -0.0855  0.0361
35244W        W53991  12.271  11.259  19.857  0.2380  0.2930 -0.2273
35245W        W53992  30.648  34.921  13.440  0.0006  0.2799  0.0352
35246W        W53993  24.616  20.416   0.528 -0.2548 -0.0263  0.0861
35247W        W53994  21.107  29.949  25.525  0.1783 -0.1491  0.0039
35248W        W53995  13.909  29.867  25.773  0.0067  0.2446 -0.1800
35249W        W53996  26.678  31.030   0.071  0.1377  0.1603  0.0329
35250W        W53997   5.154  22.128   7.458 -0.1923  0.0652 -0.3778
35251W        W53998   4.745  19.651  21.043 -0.0110  0.0902  0.0884
35252W        W53999  29.131   0.331  15.140  0.1349 -0.0330  0.0779
35253W        W54000  27.345   3.310  25.793 -0.0581  0.0801  0.2549
35254W        W54001  26.968  13.286   5.416  0.2074  0.0001  0.1371
35255W        W54002  10.240  23.160  10.979  0.0523 -0.0019 -0.0038
35256W        W54003  34.866   1.945   4.944 -0.0648  0.1333  0.1743
35257W        W54004  31.714  15.748  19.306 -0.1101 -0.0300 -0.0013
35258W        W54005  34.385   7.368  14.708  0.0848  0.1707  0.0279
35259W        W54006  13.120  28.454   6.483 -0.1862  0.0577 -0.1563
35260W        W54007  25.044  17.885  12.551  0.6075  0.0417 -0.3491
35261W        W54008   7.195  31.714  13.408  0.0815 -0.0953  0.3422
35262W        W54009   5.091  34.901  25.880  0.1216  0.0060  0.2263
35263W        W54010  32.075   7.204  11.378  0.1723 -0.1903  0.2546
35264W        W54011  24.037   4.051   2.682  0.1179 -0.1108 -0.1260
35265W        W54012  24.727  18.481  18.031  0.0946 -0.0262 -0.2133
35266W        W54013  28.300  22.952  24.010  0.1556 -0.3143  0.0382
35267W        W54014   0.611  25.949   1.429 -0.0376  0.2009  0.3385
35268W        W54015   2.744   9.400   2.134  0.2983 -0.2303 -0.2163
35269W        W54016  28.710   1.203  23.043  0.0012  0.1475 -0.1342
35270W        W54017  34.941  19.162  24.920  0.2205  0.1841  0.0526
35271W        W54018  17.090   0.067   0.149 -0.1109 -0.0017  0.0394
35272W        W54019   3.660  12.659  15.075 -0.1570 -0.2123  0.3778
35273W        W54020  23.452  16.364  24.809 -0.0689 -0.1129 -0.1481
35274W        W54021  19.466   4.171  25.234 -0.2065  0.2600  0.1085
35275W        W54022  17.882  21.940  24.681  0.0638 -0.0768  0.1393
35276W        W54023  26.501  15.619  17.668  0.1424  0.0096  0.2336
35277W        W54024   2.297  30.590   1.316  0.0954  0.2617  0.3034
35278W        W54025   8.065  22.810  25.279 -0.3385  0.0419 -0.0664
35279W        W54026  30.388  32.839  11.018  0.1920 -0.1750 -0.0564
35280W        W54027   0.443  35.193  25.467  0.1639 -0.1680 -0.2140
35281W        W54028  32.924   7.397  20.025 -0.2404 -0.1236  0.1368
35282W        W54029  32.672  25.361   1.177 -0.0652  0.0016  0.0917
35283W        W54030   9.329   7.478  19.010 -0.1948 -0.2633 -0.1506
35284W        W54031  15.596  24.946   4.622 -0.0075  0.1548 -0.1748
35285W        W54032  21.976  25.478  17.446  0.1606  0.0205 -0.1738
35286W        W54033  16.549   1.816   3.139  0.0268 -0.1136  0.0933
35287W        W54034  27.669   6.888  20.616 -0.0076  0.0957  0.0255
35288W        W54035  13.682   3.332   1.772  0.3150 -0.2488 -0.2103
35289W        W54036  21.259  27.545   1.370 -0.1799  0.0496 -0.0150
35290W        W54037  25.855  27.631  24.963  0.1417  0.0232 -0.1495
35291W        W54038   9.468   0.073  23.721  0.0402  0.0977  0.0957
35292W        W54039  25.285  24.084  13.873  0.0248  0.2952 -0.0391
35293W        W54040  13.655  14.224  13.605 -0.0650  0.1842 -0.0137
35294W        W54041  13.944  34.273   5.869  0.0281 -0.1808  0.0538
35295W        W54042   0.286   4.443  18.655 -0.1055 -0.0454 -0.2928
35296W        W54043  32.657  25.774  23.844 -0.1049  0.0909 -0.0179
35297W        W54044  21.203  16.542  23.273 -0.2923  0.0577 -0.1162
35298W        W54045   1.758  26.546   2.981 -0.0349  0.0808 -0.3277
35299W        W54046  30.791   3.406  16.108 -0.0841 -0.0913  0.0534
35300W        W54047  35.302  18.333  11.722  0.3093  0.1303 -0.0694
35301W        W54048  33.151  32.467   2.948  0.3296  0.2667  0.0208
35302W        W54049  29.321   5.029  19.318 -0.1264 -0.1496  0.2525
35303W        W54050  29.389  15.252  20.106  0.0202 -0.0775  0.1041
35304W        W54051  25.070   6.992  22.879  0.1205 -0.0190 -0.1009
35305W        W54052  10.947  11.254   0.219  0.5673  0.3152 -0.2305
35306W        W54053  11.829  31.614   8.578  0.0462  0.1904  0.1699
35307W        W54054   8.090  35.380  15.226  0.1773  0.0057 -0.1435
35308W        W54055  29.245  24.175  20.907  0.2692 -0.0433  0.0477
35309W        W54056  26.612  29.743   0.557  0.0759 -0.3656  0.0240
35310W        W54057  10.885   0.659   3.576 -0.0024  0.0207 -0.0360
35311W        W54058   0.472  33.851  23.094 -0.1084 -0.1479  0.0918
35312W        W54059  21.369  16.962  18.585  0.0257  0.0640 -0.3512
35313W        W54060  19.317  10.029   7.147  0.0495 -0.0673  0.1056
35314W        W54061   2.533  11.712   0.312  0.1510  0.1399  0.0740
35315W        W54062   5.745   3.348   6.322 -0.0293 -0.0289  0.2745
35316W        W54063  27.816  24.300  14.478  0.1225 -0.1032  0.1726
35317W        W54064   6.693  27.311  21.329 -0.0578 -0.0074  0.0902
35318W        W54065  17.833  16.323   9.151 -0.1268  0.1022 -0.4338
35319W        W54066   7.587  27.451  13.618 -0.3536 -0.0391 -0.0272
35320W        W54067   2.783  27.278  23.683 -0.0870  0.0868  0.0344
35321W        W54068  24.178  19.735  22.320  0.2901  0.1474 -0.2426
35322W        W54069  25.783   4.888  12.265  0.1750  0.0066  0.3298
35323W        W54070  31.369   7.336  18.051 -0.1015 -0.1648  0.2924
35324W        W54071  25.526  25.891  16.162 -0.1115  0.0090  0.2408
35325W        W54072  16.266  32.997   5.523 -0.0697  0.2937  0.1735
35326W        W54073  26.147  12.400  10.703 -0.1723  0.0201  0.4750
35327W        W54074  18.033  17.033  25.944  0.5792 -0.1752 -0.1626
35328W        W54075  18.109  20.848   7.585  0.0595  0.3290  0.1049
35329W        W54076  26.731   5.709  16.419 -0.2129  0.0618  0.2159
35330W        W54077  25.286  14.638  22.693  0.2518  0.1083 -0.3534
35331W        W54078   5.292  14.121  19.645  0.1664 -0.5264  0.0199
35332W        W54079  10.378  30.466  13.639  0.0023 -0.2823 -0.0986
35333W        W54080   3.700  22.581  26.103 -0.0214  0.3176  0.1428
35334W        W54081   3.136   6.765  16.774  0.0069 -0.3831 -0.2249
35335W        W54082  20.674  34.081  23.621  0.1768 -0.3496  0.3045
35336W        W54083  13.820  20.013  11.841 -0.1632 -0.0546  0.0727
35337W        W54084  14.863  34.465  25.256 -0.0408 -0.2642  0.0881
35338W        W54085  25.868  35.377   4.830 -0.1825 -0.1126 -0.0148
35339W        W54086   2.724  31.116  18.378 -0.2448 -0.0519  0.0124
35340W        W54087   8.492  29.751   8.079 -0.1758  0.1662 -0.2145
35341W        W54088  26.613  14.244   6.776  0.1852  0.0941  0.1271
35342W        W54089  34.547   1.742  17.072  0.1762  0.0184 -0.4899
35343W        W54090  33.334   4.552  12.639 -0.0969 -0.2774 -0.0427
35344W        W54091  19.988  10.633   9.204  0.0253 -0.5833 -0.3556
35345W        W54092   1.777   3.014  24.033  0.1097  0.1176  0.1510
35346W        W54093  30.490  33.838  11.201 -0.0532  0.0761 -0.1928
35347W        W54094  10.456  30.072  22.787  0.0814  0.3094 -0.0643
35348W        W54095   0.025   3.314  22.761  0.1018  0.0174 -0.0890
35349W        W54096  13.115  22.976  25.684 -0.1606 -0.5773  0.0635
35350W        W54097   2.537  13.661   2.542  0.0268 -0.0433  0.0195
35351W        W54098   6.886  18.141   1.205 -0.0885 -0.3273 -0.2019
35352W        W54099  31.038  22.289  12.939  0.0851 -0.1192  0.0258
35353W        W54100  17.781   5.049   6.216 -0.0889 -0.2095 -0.3128
35354W        W54101  12.398  19.423  10.636 -0.0119 -0.1074 -0.0599
35355W        W54102   0.167  16.525  18.043  0.1231 -0.0714  0.3538
35356W        W54103  30.117  16.300  11.188 -0.1319  0.1793 -0.1005
35357W        W54104  13.621   4.039   5.917 -0.0514 -0.0448 -0.2385
35358W        W54105  17.751  19.189   2.574 -0.0610  0.1513 -0.0898
35359W        W54106  26.864   3.570  13.238 -0.2059  0.1820 -0.0962
35360W        W54107  20.637   9.609   3.827  0.1277 -0.0779  0.2891
35361W        W54108  29.957  17.086  22.163 -0.2795  0.1833  0.0807
35362W        W54109  30.968   1.616   3.039 -0.0978 -0.2731  0.2789
35363W        W54110  18.483   3.567   2.443  0.0498 -0.0170  0.0301
35364W        W54111  32.225  15.490   8.148  0.1468 -0.1765 -0.0042
35365W        W54112  10.118  25.103   5.779  0.2311 -0.3547 -0.1886
35366W        W54113  33.151  24.267  24.383  0.1292 -0.0035 -0.1307
35367W        W54114  22.728   4.754  18.531 -0.1597 -0.2656 -0.0300
35368W        W54115  29.314  28.147  22.246 -0.2357 -0.0581  0.2468
35369W        W54116   5.136  16.152   6.159  0.0544 -0.0010  0.0368
35370W        W54117   2.553  30.105  19.768  0.1452  0.0338 -0.1480
35371W        W54118  20.888   7.071  23.285 -0.0124  0.3683  0.0731
35372W        W54119  32.499   9.104  12.144 -0.0338 -0.0216  0.1599
35373W        W54120  19.337   5.556  23.497 -0.1863  0.0867  0.0999
35374W        W54121  16.222  12.755  11.954  0.0423 -0.2886 -0.3335
35375W        W54122   8.786  25.001  22.559 -0.0839 -0.2302 -0.0402
35376W        W54123  14.341  23.156   1.922  0.1124  0.0289 -0.0683
35377W        W54124  33.265  30.348  13.950  0.0904  0.0846  0.0821
35378W        W54125  19.967  13.003   4.499 -0.2880  0.2958 -0.1712
35379W        W54126   9.935  29.157   5.076 -0.2062 -0.0011 -0.1299
35380W        W54127  18.322  33.789   1.965 -0.3590  0.2242 -0.2325
35381W        W54128  35.310  33.926   0.252 -0.0953 -0.2415 -0.2132
35382W        W54129   4.321   0.049   5.631 -0.1671 -0.2520  0.0960
35383W        W54130   3.321  17.558  23.500  0.2078  0.2443  0.5082
35384W        W54131  34.201  26.856  16.979  0.2113 -0.1966  0.4533
35385W        W54132  11.228  12.955   6.016  0.2319 -0.2810 -0.0848
35386W        W54133  31.834   8.364   9.660  0.0701  0.0077 -0.2458
35387W        W54134  10.879  25.281  25.466 -0.2000  0.1170  0.2217
35388W        W54135   6.453   4.404   9.917  0.3695 -0.5037  0.0862
35389W        W54136  33.086  21.202  22.240 -0.2066  0.2555  0.0317
35390W        W54137  15.926   3.040   2.383 -0.0177 -0.0390  0.2352
35391W        W54138   9.266   3.522  24.890  0.2603  0.4280 -0.2744
35392W        W54139  34.224  20.528  20.528  0.1757  0.0248 -0.3451
35393W        W54140  16.322  26.719   1.681 -0.1470 -0.0419 -0.1865
35394W        W54141  22.114  19.416  23.226  0.0465  0.2881  0.2118
35395W        W54142  23.816  21.124   0.722 -0.1460  0.0484 -0.1602
35396W        W54143  29.436  26.201  11.896 -0.1991 -0.3222 -0.2733
35397W        W54144   6.925  10.793   8.343 -0.2025 -0.0115 -0.0645
35398W        W54145  30.304  19.112  13.705  0.1606  0.1005  0.0620
35399W        W54146  16.961  29.819   1.409  0.0100  0.2693 -0.2767
35400W        W54147  12.521  11.030  24.409 -0.0313  0.0168  0.2114
35401W        W54148   2.399  28.819  23.730 -0.3080 -0.2074 -0.1007
35402W        W54149  12.312  34.115   5.948  0.1137  0.1113  0.6248
35403W        W54150  30.507   8.632  15.648  0.1734 -0.0935  0.2182
35404W        W54151  11.529  28.322   9.370  0.1441 -0.1303 -0.1413
35405W        W54152  26.560   6.250  16.017 -0.0902  0.1161  0.0094
35406W        W54153  22.704  12.890   1.443  0.0306  0.0612 -0.1236
35407W        W54154  33.227   5.997  26.232  0.1870 -0.2699  0.1341
35408W        W54155   7.108  14.626   5.069  0.2694  0.0514  0.0104
35409W        W54156  28.149   6.119  13.520  0.1180 -0.0878  0.3536
35410W        W54157  20.804  26.211  23.974  0.1261  0.2140 -0.1291
35411W        W54158   7.018  28.701  14.466  0.1142  0.0143 -0.0244
35412W        W54159  21.208   7.016   1.854  0.2618 -0.0976 -0.1903
35413W        W54160  19.407  25.622   4.491 -0.4606 -0.0914 -0.3858
35414W        W54161   5.504  17.535   5.490  0.0932 -0.3801  0.3319
35415W        W54162  33.708   3.923   2.861  0.1654  0.1145  0.1023
35416W        W54163   3.853  14.717   3.858  0.1192  0.0099 -0.2796
35417W        W54164  31.697  17.971   9.448  0.1577 -0.0297 -0.4451
35418W        W54165  31.202  15.096  12.784 -0.2356  0.1495  0.2876
35419W        W54166   8.219  22.387  20.604 -0.0280  0.1704 -0.2556
35420W        W54167  26.591   6.087  24.353 -0.2093 -0.1942  0.2620
35421W        W54168  13.138  21.507   5.574  0.4368  0.0764  0.0907
35422W        W54169  28.678   5.310  22.673  0.0823  0.0440 -0.0770
35423W        W54170  17.597  22.644   0.514 -0.1020  0.2433 -0.0205
35424W        W54171  29.761   5.196  24.909  0.0054  0.1526  0.1443
35425W        W54172  29.241  12.823   4.819 -0.0859 -0.1156 -0.0863
35426W        W54173  18.863   8.426  24.174 -0.1522 -0.4489  0.0420
35427W        W54174   6.851  20.418  23.841 -0.0158  0.1825 -0.1100
35428W        W54175  10.809   8.381  13.591 -0.2705  0.1080 -0.2522
35429W        W54176  21.828   8.407  26.062  0.0668  0.1862  0.0034
35430W        W54177  16.970  25.785  10.967  0.4276 -0.2834  0.0314
35431W        W54178  29.304   8.488  14.175  0.2318  0.3734 -0.2258
35432W        W54179   2.489  28.008  25.200 -0.2710  0.1579 -0.0025
35433W        W54180  31.595  16.551   9.445 -0.1036 -0.0156 -0.1923
35434W        W54181   7.782   0.449  13.115  0.0513 -0.0678 -0.1571
35435W        W54182  23.218   9.449  16.017 -0.2064  0.1448 -0.2137
35436W        W54183  33.125  16.247  17.343 -0.1400  0.1070 -0.1522
35437W        W54184  17.492  32.305  24.374 -0.2120  0.0827  0.0883
35438W        W54185  25.399  18.824  23.754  0.2444  0.0729 -0.0271
35439W        W54186  19.379  21.435   9.350 -0.2271  0.1354  0.0200
35440W        W54187  16.763  13.383   4.436  0.0716 -0.3150  0.0226
35441W        W54188  11.568  23.698  24.915  0.0360  0.1743 -0.0503
35442W        W54189   3.523   2.663   1.022 -0.0718  0.1786  0.1755
35443W        W54190  28.807  14.047  14.625  0.1741 -0.1152  0.4289
35444W        W54191  12.567   2.749   1.073 -0.2243  0.1459 -0.0163
35445W        W54192  26.580   4.001   0.561  0.1420 -0.1321  0.0669
35446W        W54193   6.453   2.388  12.443 -0.4578  0.0505  0.0013
35447W        W54194  24.575   8.015  25.782 -0.2506  0.2294  0.1564
35448W        W54195  26.776   9.294  17.699  0.2137 -0.4064  0.1468
35449W        W54196   9.419  21.489  25.922  0.2464 -0.4110  0.1046
35450W        W54197  22.013  34.264  15.667  0.1757 -0.0433  0.0095
35451W        W54198  28.304  13.312  11.336 -0.1219 -0.2624 -0.2267
35452W        W54199   9.428  24.547  25.066 -0.1645 -0.0504 -0.1310
35453W        W54200   8.230   3.104   1.651  0.3445 -0.1846 -0.3327
35454W        W54201  26.501  29.139  15.770  0.2457 -0.0458 -0.0259
35455W        W54202  32.637   4.613  21.595  0.3737 -0.0691 -0.1520
35456W        W54203   8.789  34.936   9.662 -0.0587  0.0347  0.0238
35457W        W54204  29.532   6.148   0.258  0.1379  0.0067  0.0111
35458W        W54205  15.370  20.562  11.665 -0.1426 -0.1666 -0.0874
35459W        W54206  29.137  26.767   8.139  0.2362  0.4124 -0.1906
35460W        W54207   6.378  24.943  12.010 -0.1093  0.0792 -0.0708
35461W        W54208   1.728  23.255  21.700 -0.0474 -0.0072 -0.2057
35462W        W54209  16.244  24.851  12.532 -0.2001  0.1049  0.2234
35463W        W54210  12.386   6.300   0.235 -0.2772 -0.1559 -0.1833
35464W        W54211  11.298   3.918  23.174  0.0734 -0.0970  0.0428
35465W        W54212   4.358  25.693   9.873  0.2850 -0.0815 -0.1644
35466W        W54213  30.462   7.672  10.437  0.0999  0.0522  0.1485
35467W        W54214   2.056  32.233  10.078  0.0668  0.1211  0.1692
35468W        W54215  11.619  28.582   1.207  0.0017 -0.0555 -0.1840
35469W        W54216  29.210  31.206  18.477  0.0774 -0.2879  0.0053
35470W        W54217  23.463  29.903   1.590 -0.1440  0.1239 -0.0593
35471W        W54218  19.477  31.501   2.922 -0.0578 -0.0013  0.0007
35472W        W54219  31.398  30.159  18.265 -0.0269  0.1794 -0.1503
35473W        W54220  32.782   7.699  15.005  0.0165 -0.3517 -0.0404
35474W        W54221  33.572  21.151  24.588 -0.0607 -0.1250  0.0635
35475W        W54222   0.556  35.313   4.335 -0.3559  0.0047  0.2402
35476W        W54223  13.266  29.121  21.562  0.2778  0.1195 -0.1674
35477W        W54224  22.940  11.420  16.967 -0.0592 -0.1891  0.2353
35478W        W54225  29.066   0.435   2.815  0.1166  0.1143  0.1569
35479W        W54226  24.820  12.410  15.939 -0.1615  0.2912  0.0607
35480W        W54227  33.122  31.450  24.446  0.4084  0.1161 -0.4073
35481W        W54228  26.987   0.891   4.625  0.1430  0.0563 -0.0355
35482W        W54229  22.185  12.942  15.713  0.1258  0.0752 -0.0418
35483W        W54230  14.805  19.544   1.573 -0.0019 -0.2102 -0.1019
35484W        W54231   5.213  16.936  20.475 -0.2481  0.2626  0.4821
35485W        W54232  29.762  13.987  21.026  0.1477 -0.1723 -0.0714
35486W        W54233   9.569   0.427   1.443  0.2057  0.0979  0.1090
35487W        W54234  18.689  13.763   1.557  0.0150 -0.0044  0.1679
35488W        W54235   1.807   0.430  20.317 -0.1278 -0.1814  0.3623
35489W        W54236   7.465  27.151  22.361 -0.3926  0.0807 -0.1124
35490W        W54237  11.978  29.834   0.045  0.0397  0.1449  0.4309
35491W        W54238  13.970  10.539   1.125 -0.0213 -0.0067 -0.2572
35492W        W54239   8.366  34.435   6.786 -0.0725 -0.0298 -0.1362
35493W        W54240   6.768   4.359  19.020 -0.0427  0.1566 -0.1664
35494W        W54241  15.064   6.512   7.466  0.3788  0.1963  0.1758
35495W        W54242  20.901  32.738  16.460 -0.0316  0.1454 -0.1155
35496W        W54243   3.003   2.563   7.106 -0.1261  0.0974  0.0145
35497W        W54244  17.487  34.861   9.269  0.0101 -0.0261  0.0788
35498W        W54245  23.852  14.435  14.256 -0.3157 -0.2812 -0.3314
35499W        W54246   4.320  26.490  21.777  0.0275  0.0682  0.2354
35500W        W54247   3.451   9.250  15.466 -0.1101  0.0451  0.3841
35501W        W54248  27.524   4.830  15.616 -0.0516  0.3779 -0.1718
35502W        W54249  26.260  15.324   8.443 -0.1168  0.2846 -0.0604
35503W        W54250  31.706   3.669  25.272  0.2398  0.0413  0.0083
35504W        W54251  18.650   5.104   6.514  0.0826 -0.2198 -0.1531
35505W        W54252  25.295   4.496  25.836 -0.0269  0.1371 -0.0659
35506W        W54253  33.019  26.870  15.715  0.1942  0.1933 -0.0499
35507W        W54254  30.735  25.019  13.957 -0.3851 -0.0254  0.3123
35508W        W54255  27.710   1.732  23.869  0.1968 -0.2357  0.0980
35509W        W54256  27.162   1.920  25.285  0.0687 -0.0581  0.4016
35510W        W54257   9.009  31.335   2.380 -0.2504  0.2437 -0.1367
35511W        W54258  34.248  15.913  18.864  0.1061 -0.0013  0.2854
35512W        W54259  16.581  22.663  22.977  0.1078 -0.0173 -0.2742
35513W        W54260  15.926  32.472  21.258  0.1587  0.2240  0.2475
35514W        W54261  16.645  20.035   3.204  0.2160 -0.0586 -0.0263
35515W        W54262  16.947   3.441  19.436  0.3033 -0.2644  0.1045
35516W        W54263  15.372   7.398   7.635 -0.1349  0.4085  0.0285
35517W        W54264  12.877   4.602   6.727  0.0526  0.2521  0.4911
35518W        W54265  17.690   4.091  20.071  0.3239  0.0308 -0.0018
35519W        W54266  14.791  12.954  24.335  0.2693 -0.2833  0.1568
35520W        W54267  26.334  32.587   4.833  0.2157  0.2146 -0.0231
35521W        W54268   9.860  24.514  24.530  0.3089  0.3419 -0.3171
35522W        W54269  33.568  15.887  19.713 -0.1673 -0.1071  0.0706
35523W        W54270  28.494   4.676   0.815  0.1502 -0.0261  0.0353
35524W        W54271  10.399   8.630   4.738  0.1356 -0.0939 -0.2870
35525W        W54272   5.186   8.026  25.986  0.1348 -0.0666  0.2200
35526W        W54273   2.927   4.177  22.360  0.1563  0.0686 -0.0743
35527W        W54274   5.460  14.822  16.850  0.1445  0.1897 -0.0636
35528W        W54275  11.646  24.655  25.255  0.3901 -0.2939 -0.0252
35529W        W54276  27.537  16.411   9.700  0.0265 -0.0157  0.0152
35530W        W54277  21.349  13.126  18.090 -0.2647  0.2947 -0.1868
35531W        W54278   6.883  22.775  11.921 -0.1515 -0.0359 -0.0165
35532W        W54279   0.286  19.708  10.883  0.3508  0.0721 -0.1666
35533W        W54280   4.644  26.755  10.968 -0.1279 -0.2417 -0.1289
35534W        W54281   9.804  18.520  22.885  0.0391 -0.0652 -0.2397
35535W        W54282  14.413  13.629   2.948 -0.1398  0.2707 -0.0313
35536W        W54283   6.254  14.203  20.694 -0.0684  0.1051 -0.0666
35537W        W54284   1.413   1.510  19.621 -0.2464 -0.0340  0.2064
35538W        W54285  21.624   2.672   1.084 -0.1148  0.1943  0.2640
35539W        W54286  15.502  14.590  13.624  0.0136  0.2837  0.0633
35540W        W54287  28.984  23.876  14.326  0.0384  0.1907  0.2998
35541W        W54288  20.656  31.611   6.296  0.0149 -0.1364 -0.1433
35542W        W54289  14.648  33.660  23.549 -0.1822 -0.2418 -0.0465
35543W        W54290  26.496  19.416  16.646  0.2161 -0.1325  0.0314
35544W        W54291  30.693   2.819  12.549  0.0299 -0.1822  0.1979
35545W        W54292  33.083  25.718   1.168 -0.4332 -0.1038  0.2551
35546W        W54293  30.316   5.480  13.051  0.0740  0.0057 -0.4072
35547W        W54294  29.390   6.413  16.440  0.1947 -0.3584  0.2389
35548W        W54295   9.748  32.226  10.038 -0.2152  0.0833 -0.1921
35549W        W54296  33.217   2.614  25.458  0.0156 -0.1763  0.0523
35550W        W54297  11.185  19.540   0.691  0.0943  0.2151 -0.0120
35551W        W54298  20.591  13.352   5.136 -0.0049 -0.3415 -0.0677
35552W        W54299   4.241  33.845  26.086  0.0315  0.0449  0.1802
35553W        W54300  34.310  27.173  11.944 -0.1958 -0.0289 -0.5489
35554W        W54301   3.473  21.658  18.433 -0.0349  0.1794  0.0999
35555W        W54302   0.646  16.343  14.476 -0.0411 -0.1252  0.2139
35556W        W54303  34.848   9.144  22.146 -0.4922  0.0129 -0.1479
35557W        W54304  26.957  20.476  24.333  0.1846 -0.2107  0.1225
35558W        W54305   8.304  24.593  10.879  0.2510  0.0592  0.1020
35559W        W54306  26.830  16.115  10.502 -0.2051 -0.1942  0.0459
35560W        W54307   2.518  32.376   9.797  0.1292 -0.0405  0.3518
35561W        W54308  15.851  31.322   9.948 -0.0745  0.1781 -0.1462
35562W        W54309  32.960   1.452  12.106 -0.1092  0.4058 -0.1161
35563W        W54310  35.107  13.952  12.501  0.0007  0.3616 -0.4676
35564W        W54311  16.137  23.580  21.250  0.2294  0.4748 -0.1566
35565W        W54312  29.040  17.750   4.675  0.2410  0.3025  0.1403
35566W        W54313  34.609  13.899  17.326  0.0475  0.0819 -0.0239
35567W        W54314  15.390  25.049  12.823 -0.2309 -0.0951  0.4099
35568W        W54315  33.521  17.731   5.694  0.3323 -0.4423 -0.0379
35569W        W54316  11.827  21.046  25.440 -0.3899  0.0839  0.0359
35570W        W54317  19.624  16.931  19.188  0.2060  0.1302  0.1981
35571W        W54318  20.561  17.478  21.707 -0.2487  0.2081 -0.1528
35572W        W54319  26.187  11.758  20.365 -0.1701  0.0817 -0.1772
35573W        W54320  23.831   0.858  19.511  0.1954 -0.3093 -0.2664
35574W        W54321  33.345   5.895  24.676 -0.2073 -0.1603 -0.0454
35575W        W54322   5.147  32.688   4.769  0.1755 -0.1953 -0.1509
35576W        W54323  16.892   0.712   3.846 -0.0547  0.2720 -0.1570
35577W        W54324  16.284   8.173   9.224 -0.3866 -0.4549  0.0350
35578W        W54325  18.184  22.281   6.611  0.3888 -0.1017  0.1613
35579W        W54326  20.441  16.072   4.754 -0.0103 -0.1363 -0.0013
35580W        W54327  24.818  13.294  12.135  0.0841 -0.1858  0.0023
35581W        W54328  10.096  19.737  13.962 -0.0634  0.2308 -0.1068
35582W        W54329  19.385  12.455  25.276 -0.1530  0.2384 -0.0711
35583W        W54330  21.104  15.124  18.839 -0.0133 -0.2249  0.0320
35584W        W54331   2.363   4.715  20.409 -0.0979 -0.0004  0.1273
35585W        W54332   5.134  11.619   8.826  0.1474 -0.0376 -0.0918
35586W        W54333  31.821  22.412   6.690 -0.1139 -0.0567 -0.0891
35587W        W54334  29.779  24.045   9.639 -0.1545 -0.0014 -0.2782
35588W        W54335  28.975  15.737  25.697 -0.0854  0.0598  0.1008
35589W        W54336   0.958  19.357  12.349 -0.2448  0.0425  0.0357
35590W        W54337  35.071   9.392  11.394  0.1971 -0.1092  0.1181
35591W        W54338  12.058  14.962   7.233 -0.0583  0.3485  0.0550
35592W        W54339  15.680  31.692  25.417  0.0230 -0.0490  0.1224
35593W        W54340   1.570  35.308  21.332 -0.0881 -0.0520  0.1978
35594W        W54341  10.073  34.875  15.396 -0.1525  0.0431 -0.0671
35595W        W54342   0.625  34.386  22.960  0.0567 -0.4464  0.3877
35596W        W54343   3.768  29.328   6.805  0.0394 -0.0153 -0.1664
35597W        W54344  27.441   0.508   1.840 -0.2568 -0.0752  0.1070
35598W        W54345  18.574  33.317   7.654  0.1673  0.0464  0.0097
35599W        W54346  35.184  19.221  24.464 -0.1118 -0.0253 -0.0039
35600W        W54347  25.195   3.653  21.629  0.2592 -0.2286 -0.1194
35601W        W54348  31.780  32.454   7.111  0.2738  0.0225  0.1788
35602W        W54349   8.457  18.433   2.485  0.3650  0.1049  0.2272
35603W        W54350  32.645   4.457  21.007 -0.3160 -0.1280  0.0461
35604W        W54351  24.398  15.739  19.505  0.3416 -0.0493 -0.0130
35605W        W54352   2.336  20.352  15.323  0.0464 -0.0136 -0.1480
35606W        W54353  22.929  23.575  23.926 -0.1286 -0.0700  0.0990
35607W        W54354  21.646  21.317  20.136  0.1041 -0.5617  0.1020
35608W        W54355  17.610  30.608  26.104 -0.1953 -0.0605 -0.0684
35609W        W54356  13.610  28.087  25.208 -0.1021 -0.1232  0.0152
35610W        W54357  16.609   8.875   2.366 -0.2124 -0.1956  0.1174
35611W        W54358  15.136  24.265  11.242  0.0861 -0.1144 -0.0815
35612W        W54359  31.920  27.645   3.468 -0.1067  0.0829 -0.2543
35613W        W54360   9.327  13.486   4.685  0.0701  0.2098 -0.2457
35614W        W54361   0.014  17.125  23.257  0.3764 -0.3169 -0.2455
35615W        W54362  29.332  26.134  16.019 -0.0342 -0.1816  0.0964
35616W        W54363  19.092  14.437  19.753 -0.2456 -0.3231 -0.4842
35617W        W54364   7.302  12.139  23.683  0.1435  0.5382 -0.0031
35618W        W54365  24.018  25.463  19.885  0.2249 -0.2693  0.0977
35619W        W54366   2.479   9.465  16.515  0.0105 -0.2634  0.0647
35620W        W54367  32.204   4.514  17.126 -0.0161  0.1875  0.0065
35621W        W54368  29.399  22.378   9.651  0.0697  0.1079  0.0375
35622W        W54369  22.502  14.921  20.250 -0.2237  0.0120  0.1186
35623W        W54370  20.319  18.943  20.967 -0.1098 -0.0843 -0.1178
35624W        W54371   2.169   5.913   7.076  0.4125 -0.0879  0.1046
35625W        W54372  17.012  22.826   1.269 -0.1009  0.0600 -0.0453
35626W        W54373   4.754  12.868  22.200 -0.4140  0.0503 -0.0483
35627W        W54374   4.592  28.985   0.904 -0.0172  0.2028  0.0894
35628W        W54375  22.727  11.455  14.418  0.0276  0.0310  0.2582
35629W        W54376  12.005  21.107   6.455 -0.0978  0.1198 -0.3686
35630W        W54377  13.696   6.325   7.351 -0.0754  0.2203  0.1141
35631W        W54378   5.740  24.595   6.551  0.1976  0.1635  0.0910
35632W        W54379   9.496  22.629   1.654  0.1801 -0.2933  0.0707
35633W        W54380  33.053   3.139   6.656 -0.0427  0.0113 -0.0370
35634W        W54381  32.571  26.016  15.554 -0.1474  0.1158  0.1721
35635W        W54382   5.812  11.971  10.571 -0.0924 -0.2922  0.3767
35636W        W54383   9.715  34.904   0.377  0.0498 -0.0734  0.1183
35637W        W54384  13.933   8.040   2.002  0.1344  0.1444 -0.0710
35638W        W54385  11.478  26.038  15.096 -0.0596  0.1938 -0.0964
35639W        W54386  30.629  29.867  19.868 -0.1109 -0.0861  0.4584
35640W        W54387  33.452  11.786  17.971  0.4056 -0.0735 -0.2270
35641W        W54388  22.162  31.591  17.729 -0.0291  0.0249 -0.2837
35642W        W54389  34.628  28.072   1.789 -0.0149  0.0387 -0.0844
35643W        W54390  31.074   7.354   1.920  0.0904  0.2610 -0.0058
35644W        W54391   4.685  16.799   5.111  0.2819  0.1034  0.2088
35645W        W54392   2.105  26.800  18.031 -0.1549 -0.0923  0.0061
35646W        W54393   6.429  27.004   9.142 -0.0261  0.1286 -0.0011
35647W        W54394  21.114  26.335  16.816 -0.0714 -0.4956  0.0673
35648W        W54395  13.898  23.396   0.852 -0.1089  0.1017  0.0435
35649W        W54396  28.950  23.770   7.032  0.1733 -0.2335 -0.0071
35650W        W54397  15.564   5.356   1.181  0.1867 -0.0182 -0.2779
35651W        W54398  28.613   0.035  21.403 -0.1981 -0.1191 -0.2165
35652W        W54399   6.556  24.320  10.196 -0.0914  0.0262  0.0624
35653W        W54400   5.793   6.345  25.725  0.1746  0.2106  0.0216
35654W        W54401  25.617  27.628  20.605  0.1354 -0.0890  0.0556
35655W        W54402   9.676   4.994  14.735  0.0620  0.0728  0.0169
35656W        W54403   0.439   0.226  18.918  0.2862 -0.0350  0.0281
35657W        W54404   8.015  19.425   6.766  0.3587 -0.0967 -0.2503
35658W        W54405   1.224  13.601  13.158  0.2093  0.0556  0.0356
35659W        W54406   0.152  22.359  15.057 -0.1291 -0.5781  0.0675
35660W        W54407   3.884  21.738   1.773  0.3191  0.0419 -0.0007
35661W        W54408  33.705   2.128  18.390 -0.0576 -0.3341 -0.1323
35662W        W54409  14.450  17.038  22.443  0.1312  0.1733 -0.3374
35663W        W54410  31.856   0.717  16.335 -0.0617  0.0444  0.1826
35664W        W54411  31.182  32.600   1.288 -0.0180  0.2740 -0.3084
35665W        W54412   8.246  11.834  22.542  0.0218 -0.0103  0.1137
35666W        W54413   4.730   0.063  20.329 -0.1556  0.1569 -0.4984
35667W        W54414   8.438  10.896  20.267 -0.1802  0.0571  0.2840
35668W        W54415  10.835  34.216  12.183  0.0837 -0.1942  0.0562
35669W        W54416  28.694  11.930  12.965 -0.0451  0.0996 -0.0498
35670W        W54417   2.754   3.760   7.977  0.3039  0.0591  0.2400
35671W        W54418  21.149  22.789   0.115  0.0517 -0.1121 -0.1538
35672W        W54419  34.659  32.856  24.652  0.3810  0.2055  0.0882
35673W        W54420  18.270   1.517   0.138  0.1227  0.1533  0.2275
35674W        W54421  26.831  17.118  17.689 -0.1577 -0.2493  0.0141
35675W        W54422  20.711  26.147  20.624  0.0157 -0.1661  0.0352
35676W        W54423  12.795  26.257  24.373 -0.1754  0.0087 -0.1010
35677W        W54424  31.522   2.075   1.117 -0.2426  0.2045  0.0778
35678W        W54425  13.213  17.383  10.517  0.1165  0.3382  0.0545
35679W        W54426  18.943  23.458   1.052 -0.2134 -0.1479  0.1375
35680W        W54427  19.629  24.926   2.681 -0.0066 -0.3364  0.4869
35681W        W54428   5.928  24.438   7.883 -0.0571 -0.1231 -0.0367
35682W        W54429   6.758  30.256  15.170  0.1197 -0.1139 -0.0124
35683W        W54430  29.970   4.770  23.473  0.0305  0.1565  0.3215
35684W        W54431  13.142  18.106  13.057 -0.2465 -0.0005 -0.1441
35685W        W54432  34.942   7.097   0.921 -0.1250 -0.1545  0.1659
35686W        W54433   6.995  16.174   3.400 -0.3799  0.2556  0.0176
35687W        W54434  33.046  32.612   7.579  0.2047 -0.2495 -0.1749
35688W        W54435   3.586  22.134   1.812  0.1282  0.2159  0.0050
35689W        W54436  20.972  21.104   2.773  0.1952 -0.0557 -0.2881
35690W        W54437   9.743  18.905   1.626  0.1023 -0.1053  0.3300
35691W        W54438  13.462  34.097   9.553 -0.0214 -0.0039  0.3725
35692W        W54439   4.144  15.325   6.563 -0.1454 -0.0344  0.1450
35693W        W54440  25.091  20.134   0.674  0.0114  0.0664  0.1447
35694W        W54441  22.687   0.149  21.966  0.0474  0.1053  0.1400
35695W        W54442  17.434  22.095  11.861  0.2393  0.0492 -0.0715
35696W        W54443  10.013  17.577   5.916  0.1222 -0.2861 -0.0501
35697W        W54444  24.829   7.110  24.276 -0.3643  0.0662  0.1432
35698W        W54445  14.829  34.253  21.245  0.1756 -0.3579 -0.0987
35699W        W54446  20.971  16.998  25.794 -0.1357  0.0726 -0.2581
35700W        W54447  25.206  28.040   0.196  0.1003  0.1225  0.2603
35701W        W54448  21.246  28.615   5.842 -0.3211  0.2016  0.0424
35702W        W54449  27.589  31.168  15.807 -0.0574  0.2919 -0.1005
35703W        W54450   8.552   2.787   9.232  0.1850  0.1541 -0.0679
35704W        W54451  25.373   4.618  12.052 -0.1589 -0.0633 -0.1336
35705W        W54452  24.279   2.820  16.669  0.1735 -0.1543  0.0640
35706W        W54453  33.578  25.705  20.719 -0.3273 -0.0580 -0.0022
35707W        W54454   0.696  20.021  13.763 -0.0387 -0.0535 -0.1214
35708W        W54455  30.155  16.195  18.619 -0.0328  0.1085 -0.0545
35709W        W54456  32.429  22.053  21.336  0.6039  0.0551  0.0157
35710W        W54457  18.550   5.222  25.392  0.1952  0.3109  0.1818
35711W        W54458  12.354  16.501   8.499  0.3662  0.0788 -0.2004
35712W        W54459  27.506  25.523  20.531 -0.3865 -0.0599  0.0289
35713W        W54460  11.202   3.533   3.521  0.1847 -0.0523  0.1020
35714W        W54461   1.925   9.599  21.124 -0.0110 -0.0283  0.0747
35715W        W54462   1.726  20.764  15.186  0.1884 -0.0944 -0.2603
35716W        W54463  13.409  24.399  16.816  0.0666  0.0915  0.2588
35717W        W54464  25.267  28.608  13.707 -0.2091  0.0539  0.5981
35718W        W54465  19.037  10.453   5.416  0.2332 -0.1286  0.1344
35719W        W54466  11.471  29.678  16.783 -0.1647 -0.0470 -0.0071
35720W        W54467  13.880  31.385   5.226  0.0875 -0.1496  0.1364
35721W        W54468  14.922  24.915  15.899  0.1671 -0.1358 -0.0190
35722W        W54469  28.124  13.133  25.510 -0.2786  0.0151 -0.0090
35723W        W54470  32.826  18.424  10.399  0.1422  0.0347  0.0752
35724W        W54471  14.136  21.380   5.852  0.0940  0.2541  0.0191
35725W        W54472  13.279  24.985  13.398 -0.2724 -0.3745  0.1130
35726W        W54473  18.171   9.133  10.405 -0.0696 -0.0354  0.0357
35727W        W54474   2.540   2.695  23.469 -0.3671  0.0438  0.1325
35728W        W54475   0.307  29.842   7.357  0.0380 -0.2652  0.1508
35729W        W54476  13.633  16.388  21.967  0.2984  0.5097  0.1852
35730W        W54477  26.020  23.371  10.122  0.1251  0.0862  0.1298
35731W        W54478  11.135  24.574   4.765  0.4041  0.2840 -0.0531
35732W        W54479  20.442  14.153   6.358  0.2510  0.1540  0.1311
35733W        W54480  33.848   7.960   0.154  0.0346 -0.0943  0.1831
35734W        W54481  34.732   0.198   8.334 -0.0179  0.0609  0.1975
35735W        W54482  10.634  18.944  23.979  0.1755  0.0006  0.0901
35736W        W54483  22.319   9.542  17.481 -0.2672 -0.1128  0.0759
35737W        W54484  20.900  30.301   4.799  0.0292 -0.0633  0.1455
35738W        W54485  11.910  13.704  25.464  0.0103 -0.0451  0.3867
35739W        W54486  10.578   4.412  11.307 -0.1589  0.0832  0.0377
35740W        W54487  32.679   5.557  25.639 -0.0330  0.4251 -0.0085
35741W        W54488   5.497  15.100  24.327 -0.0550 -0.0571  0.1324
35742W        W54489   4.421   7.727  21.312  0.2506  0.1352  0.0451
35743W        W54490   5.495  29.145  13.367 -0.2254 -0.4257  0.0524
35744W        W54491  18.849   1.620  21.830  0.0932  0.2396 -0.0765
35745W        W54492  17.191  26.341  13.565  0.0738  0.1588 -0.0710
35746W        W54493   8.476  23.716  10.610  0.1105 -0.5789  0.0295
35747W        W54494  22.042   4.652  16.188 -0.0969 -0.0868  0.3657
35748W        W54495   5.834  29.803   4.490 -0.1109 -0.0732 -0.3052
35749W        W54496  14.081  29.951  16.265  0.2412 -0.0218  0.1113
35750W        W54497  12.304   6.778  19.794  0.0732  0.0345  0.0887
35751W        W54498  33.703   1.641   1.660 -0.0637  0.3520  0.1007
35752W        W54499  30.987  12.395  19.135 -0.1804  0.1431 -0.0962
35753W        W54500  12.709  22.839   0.437 -0.1756 -0.2398 -0.0007
35754W        W54501  18.898   0.418  20.019 -0.1921  0.2572  0.1671
35755W        W54502  25.264   6.453  23.941  0.0150 -0.1162  0.2391
35756W        W54503   6.698  20.115  23.388  0.5368  0.1444 -0.0834
35757W        W54504  11.012  34.192   3.604 -0.1816  0.1658 -0.2409
35758W        W54505  27.190   1.954  15.161 -0.3268  0.3132  0.1477
35759W        W54506   3.181  32.373   0.124 -0.0005  0.1543  0.1488
35760W        W54507  22.253  12.393  24.574  0.3464  0.0072  0.1768
35761W        W54508  22.703  32.980  25.919  0.1229 -0.0984 -0.3390
35762W        W54509   0.976  33.712   6.393  0.0324  0.3424 -0.1684
35763W        W54510  23.809   5.288  26.092  0.1221 -0.0370 -0.0659
35764W        W54511   5.010  15.201  18.015  0.0887  0.0027  0.0352
35765W        W54512  10.872  27.239  13.185  0.0459  0.1278 -0.2447
35766W        W54513  12.443  14.909   7.640  0.1377 -0.1007 -0.0944
35767W        W54514   4.647  28.232   7.513  0.1951 -0.1358  0.1292
35768W        W54515  12.579  29.904  23.224 -0.0737  0.0643  0.0195
35769W        W54516  20.232   6.307  20.860  0.1024 -0.0868 -0.1188
35770W        W54517   4.364  31.693  23.481  0.1933 -0.0723 -0.5815
35771W        W54518  16.304  32.355  11.525 -0.2014 -0.1454  0.2993
35772W        W54519  34.574  19.033  15.016 -0.2635  0.0144 -0.1367
35773W        W54520  24.884  30.964   5.751 -0.0701  0.3166  0.1193
35774W        W54521  18.318   2.475   2.208  0.0571  0.0968  0.0378
35775W        W54522  10.518   3.658   4.613  0.0004  0.1563 -0.1758
35776W        W54523  25.581  29.648  18.804 -0.2689  0.1331  0.2591
35777W        W54524  35.057   7.886  22.165  0.0129  0.1312 -0.2511
35778W        W54525  13.428  14.289  22.449 -0.0557 -0.2396 -0.0230
35779W        W54526   5.462  27.799   5.449 -0.0850  0.2936  0.1030
35780W        W54527   1.808  28.640  18.124  0.1084 -0.1011 -0.1085
35781W        W54528  18.396  23.709  20.586 -0.1198 -0.1559  0.0811
35782W        W54529   2.578   9.167   3.597 -0.3032 -0.1351 -0.0364
35783W        W54530  11.346  16.897  11.319 -0.0311  0.0561  0.3120
35784W        W54531   0.966   8.253  18.991 -0.1259 -0.0142 -0.0906
35785W        W54532  24.565  15.393  12.106 -0.1352  0.2023 -0.0881
35786W        W54533   9.548  29.923   3.853 -0.3978 -0.0123  0.0856
35787W        W54534  10.981   4.599   7.339 -0.1275 -0.1289 -0.0317
35788W        W54535  17.247  10.334   3.949 -0.0240  0.2040 -0.0776
35789W        W54536   1.976  17.805  22.842 -0.0269 -0.3211  0.2600
35790W        W54537   5.046  29.067  23.976 -0.0668 -0.2173 -0.1366
35791W        W54538   2.315  27.468   7.153 -0.2069  0.0904 -0.2280
35792W        W54539  30.293  14.755  15.661 -0.0609  0.1413 -0.0655
35793W        W54540  13.147  10.352  11.429 -0.2477 -0.1382  0.1973
35794W        W54541  14.697   4.903   8.859  0.0810  0.2707 -0.0128
35795W        W54542  14.199  15.881  23.598 -0.0115  0.0058  0.0465
35796W        W54543  26.312  28.518  14.722  0.1196  0.0683  0.2597
35797W        W54544  22.978  16.736   1.884  0.0396 -0.0258 -0.1014
35798W        W54545  33.347  23.083  13.164  0.1102  0.1282 -0.0103
35799W        W54546  23.633  22.694  12.857 -0.2085  0.0008  0.3199
35800W        W54547   4.515  10.152  18.309  0.3638 -0.0998  0.0363
35801W        W54548  31.531  25.275  18.488  0.2442 -0.1721  0.1394
35802W        W54549  15.868  14.938  25.383  0.0360  0.3115 -0.1686
35803W        W54550   6.981  25.158   9.828  0.0603 -0.2234  0.0043
35804W        W54551  14.797  20.840   6.950 -0.1577  0.3205  0.0762
35805W        W54552   9.921  11.191  22.341  0.0271  0.3450  0.1027
35806W        W54553  11.845   7.195  21.821  0.0840 -0.0588 -0.0003
35807W        W54554  21.374   8.156   8.071  0.1608  0.0555  0.1140
35808W        W54555   6.999  26.170  24.872  0.0020 -0.1770  0.0750
35809W        W54556  27.812  14.245   6.302 -0.2722 -0.0874 -0.1727
35810W        W54557  22.539  16.002  18.344 -0.0147 -0.0766 -0.1874
35811W        W54558  28.773  15.359  26.068 -0.3005  0.1610 -0.0920
35812W        W54559  17.444   4.679   6.066 -0.2419 -0.5045  0.2078
35813W        W54560  17.499   6.201  20.148 -0.4988 -0.4415  0.0971
35814W        W54561  17.844   0.649  25.975  0.2609 -0.1488  0.0109
35815W        W54562  25.453   9.282  16.182  0.2998 -0.2096 -0.2736
35816W        W54563  33.177  32.384   6.993 -0.1760  0.2778  0.0348
35817W        W54564  30.845  17.048  16.083  0.1304  0.1685 -0.3638
35818W        W54565  12.216  34.526   1.029 -0.2289 -0.2754 -0.1083
35819W        W54566  13.553  16.390  11.206 -0.0832 -0.0540 -0.2054
35820W        W54567   9.863   2.880  25.906  0.3236  0.1440  0.1468
35821W        W54568  32.596  30.085   3.407  0.1791  0.3317 -0.2237
35822W        W54569  13.258  31.619  15.935 -0.1741  0.1299 -0.2149
35823W        W54570   0.262   5.121  20.978 -0.1376 -0.2683 -0.0988
35824W        W54571   0.051   6.357  16.479  0.3790  0.0712 -0.1914
35825W        W54572  10.681  19.190  10.515 -0.0660 -0.1924  0.0243
35826W        W54573   4.632  23.014  19.299  0.0122  0.0746 -0.3942
35827W        W54574  34.839  22.417   0.186  0.0291 -0.2213  0.0681
35828W        W54575  22.453  30.627  14.206 -0.0103 -0.1663 -0.1744
35829W        W54576  19.136  21.970   8.340 -0.1343  0.0448 -0.1886
35830W        W54577   7.662  11.668  19.669 -0.1718  0.1970  0.2047
35831W        W54578  13.664  11.532  20.271  0.0868  0.1875  0.0926
35832W        W54579  32.107  10.188   8.780  0.0087 -0.0275 -0.1829
35833W        W54580  28.467  25.224  22.555 -0.2072 -0.3067  0.0130
35834W        W54581  27.200  13.857  21.818 -0.0934  0.0131  0.1103
35835W        W54582   4.462  31.242  23.125  0.2477 -0.0344 -0.1906
35836W        W54583  33.497  16.929  13.610 -0.0973 -0.1750 -0.2537
35837W        W54584  32.059  18.877  25.041  0.0015 -0.4452 -0.0021
35838W        W54585  10.385   6.193   8.647  0.0251 -0.0299  0.0786
35839W        W54586  16.955  30.024  20.331  0.2698 -0.3560 -0.2836
35840W        W54587  34.439  22.650  21.545  0.1798 -0.4017 -0.0911
35841W        W54588   8.217  16.373   3.418  0.1074 -0.0662  0.0756
35842W        W54589  26.160   9.136  13.236  0.0260 -0.0144 -0.2209
35843W        W54590  19.151  29.109   9.049  0.2868  0.0120  0.4515
35844W        W54591  19.170   2.182   1.521 -0.2455 -0.1796 -0.1941
35845W        W54592  22.302  19.642  22.784 -0.0496 -0.0981 -0.2880
35846W        W54593   8.056  12.950  21.169 -0.2831  0.3489  0.0616
35847W        W54594   9.744  14.865  12.824  0.3480 -0.2147  0.2850
35848W        W54595  29.167  17.002  22.780 -0.0859  0.1437  0.1806
35849W        W54596  33.260  20.096  14.583 -0.2909  0.2121 -0.0244
35850W        W54597   9.174   9.571  22.944 -0.0774  0.1419  0.1342
35851W        W54598  29.919  22.048  10.986  0.2911  0.0201  0.1055
35852W        W54599  11.650  19.255   9.329  0.1554 -0.1818 -0.1568
35853W        W54600   4.999   4.549   8.357  0.1786  0.1763 -0.4138
35854W        W54601  23.992   7.440   2.069  0.0248 -0.1841 -0.0830
35855W        W54602   3.793  30.102   0.838 -0.2884 -0.0753  0.0048
35856W        W54603   2.134  31.991  25.657 -0.0035  0.3861  0.0616
35857W        W54604  29.158  11.983  16.780  0.0785 -0.2763  0.2602
35858W        W54605  22.515  31.217  17.660  0.0437 -0.2044  0.2496
35859W        W54606  11.559  14.705  21.335 -0.2537 -0.0433  0.2001
35860W        W54607  29.645  34.733   0.285  0.2480  0.2293  0.1485
35861W        W54608  11.488  35.366   9.915 -0.2190  0.1260 -0.0636
35862W        W54609  23.457  26.310  18.019  0.2811  0.0476  0.0697
35863W        W54610  23.237   2.711  19.125  0.0779 -0.1190 -0.0366
35864W        W54611  23.219  31.298  13.224 -0.4459  0.2998  0.0675
35865W        W54612   8.457   9.834  25.276 -0.1550  0.0581 -0.2737
35866W        W54613  34.894  21.591   0.558  0.1383  0.1128 -0.1427
35867W        W54614  18.023  14.526  24.159  0.0750  0.5491  0.3493
35868W        W54615  21.798  18.380   1.350  0.1323 -0.1265  0.0570
35869W        W54616   0.563   9.875  20.699 -0.1445 -0.2464 -0.1070
35870W        W54617   2.135  18.521   1.572 -0.0132 -0.1620 -0.0345
35871W        W54618  22.448   4.924  21.505 -0.2162 -0.0114  0.2918
35872W        W54619  20.377  15.156  20.902  0.0217 -0.1177  0.2119
35873W        W54620  14.295   7.227   9.488 -0.1108  0.0023  0.2824
35874W        W54621   4.022   9.934   5.152 -0.0095  0.2142 -0.1434
35875W        W54622  30.694   1.716  16.588 -0.0514  0.0731 -0.0878
35876W        W54623  17.473  23.001  22.980  0.0947 -0.1321  0.1413
35877W        W54624   9.867   4.100   1.681 -0.0077  0.2059 -0.0610
35878W        W54625  35.331  22.540  15.692  0.1862 -0.0931 -0.2507
35879W        W54626  10.720  26.697   1.265 -0.1311 -0.3230 -0.1703
35880W        W54627  31.477  21.030  14.783 -0.1756  0.1559 -0.0902
35881W        W54628  13.101   4.537  24.232  0.0459  0.2352  0.0807
35882W        W54629   5.233   1.859   7.995 -0.0933  0.0775 -0.1030
35883W        W54630  18.378  14.605  25.052  0.2219 -0.1747 -0.2428
35884W        W54631  16.723  15.660  13.512 -0.2423 -0.0338  0.2027
35885W        W54632  14.216  13.098   0.598  0.0526  0.0463 -0.0239
35886W        W54633   4.830  13.201   2.480  0.1006  0.2439 -0.2728
35887W        W54634   8.481  20.482   5.121  0.0358  0.2313  0.1281
35888W        W54635  15.267  20.111   4.966  0.2359  0.1105  0.2416
35889W        W54636  32.310  13.522  19.713  0.2048  0.1941 -0.1111
35890W        W54637  27.955  12.311   9.185 -0.1322  0.0091 -0.0508
35891W        W54638  14.727  15.449   2.556 -0.0047  0.0155 -0.2235
35892W        W54639   4.184  14.629  24.592  0.0800  0.1473  0.0287
35893W        W54640   2.619   9.048  25.363 -0.0833  0.0664 -0.3632
35894W        W54641  32.575   0.762  15.743 -0.0031  0.0932 -0.1476
35895W        W54642   7.126  33.701   6.297 -0.2567 -0.0066  0.0068
35896W        W54643  32.401   2.405  13.672 -0.0979  0.2987 -0.1782
35897W        W54644  23.085   2.326   3.722 -0.0085 -0.4728 -0.0764
35898W        W54645   8.438  28.704  14.083 -0.0152 -0.3051  0.0740
35899W        W54646  25.592  10.191  24.605 -0.1587 -0.1178 -0.3683
35900W        W54647  17.026  24.451  24.405 -0.0716 -0.1145 -0.1055
35901W        W54648  14.303  32.883   1.155 -0.0105  0.2009 -0.3128
35902W        W54649   7.685  16.167   9.750 -0.2549 -0.4970  0.3008
35903W        W54650  11.897  32.662  25.924  0.2602  0.1160  0.2026
35904W        W54651  35.193   4.065   1.008  0.3389  0.0237  0.1200
35905W        W54652   9.911  28.518   5.029  0.0443  0.0822  0.2620
35906W        W54653  34.093  22.483  25.429  0.0508  0.1592 -0.2564
35907W        W54654   9.979   7.027  12.063 -0.3096  0.1033  0.2407
35908W        W54655  34.145  20.715  15.142  0.0476  0.1206 -0.0747
35909W        W54656  27.981  27.170   0.587 -0.1253  0.1998 -0.0575
35910W        W54657  22.039  27.199   0.232  0.1805  0.3394  0.0824
35911W        W54658  29.871  22.873  18.467  0.3885 -0.0061  0.0071
35912W        W54659  26.222  12.818  18.838 -0.4583 -0.0165  0.0965
35913W        W54660  10.970  24.056   8.509 -0.0530  0.1431  0.3398
35914W        W54661  28.402   1.932  25.849  0.2154 -0.2619  0.1684
35915W        W54662  18.019  11.934  20.141  0.1800  0.1734  0.3073
35916W        W54663   7.094  19.298   5.479  0.0183  0.0239 -0.5136
35917W        W54664   4.602  34.630  22.651  0.1874  0.0470  0.1467
35918W        W54665  27.802  22.526  23.226 -0.0358  0.0044 -0.2243
35919W        W54666  28.059  16.615  16.335  0.0387  0.0970  0.0541
35920W        W54667  10.210  25.587   0.254  0.1428  0.2647 -0.0714
35921W        W54668   7.790  23.672  14.277 -0.0469  0.3007 -0.2151
35922W        W54669  34.412   2.428  20.286  0.5517  0.0497  0.3239
35923W        W54670  12.317  32.804  21.868  0.5216 -0.1740 -0.1598
35924W        W54671   8.355   2.270  15.549 -0.0688 -0.2114  0.1129
35925W        W54672  24.264   5.138  17.477 -0.2102 -0.1412  0.3505
35926W        W54673  15.512  23.451   3.071 -0.0038  0.0758 -0.0557
35927W        W54674   0.385  31.947  22.883  0.0744  0.0657 -0.1073
35928W        W54675   9.865   9.785  20.179  0.0810  0.1910 -0.1411
35929W        W54676  10.408   6.245   0.747  0.2996  0.3202  0.2048
35930W        W54677   6.691  34.170  10.780 -0.1754 -0.1290  0.1606
35931W        W54678  28.681   3.226  22.298 -0.0833 -0.0161  0.2053
35932W        W54679   5.834  29.277  23.451  0.0324  0.1053  0.0020
35933W        W54680  10.558  27.030  25.216  0.1538  0.1251  0.1157
35934W        W54681   5.714   7.813  20.800 -0.0231 -0.2084 -0.1721
35935W        W54682  18.512  25.310  25.675 -0.2535 -0.1017  0.3093
35936W        W54683  28.278   3.727  16.917  0.2479  0.1642  0.1578
35937W        W54684  29.560  23.750  21.252 -0.2154 -0.4313  0.5166
35938W        W54685   8.522  10.944  11.965 -0.3950  0.3754  0.2774
35939W        W54686  10.479  23.294   1.920  0.2656 -0.0748 -0.0295
35940W        W54687  31.231  20.009  13.303 -0.0508  0.1765 -0.1790
35941W        W54688  27.707  22.543   8.966 -0.2915  0.1669  0.3361
35942W        W54689  18.967  20.402   8.273 -0.0463 -0.1457 -0.0121
35943W        W54690   6.082   2.487  25.870  0.2351  0.1341  0.0745
35944W        W54691   2.951  20.672  15.785 -0.0077 -0.0297 -0.1572
35945W        W54692  19.294   4.184   3.777 -0.0405  0.0977 -0.2148
35946W        W54693  14.737   3.878  23.816 -0.0801 -0.0039 -0.1919
35947W        W54694  27.154  26.077  24.637 -0.0343  0.1072 -0.0142
35948W        W54695  20.934   0.859  25.768  0.2706  0.0173  0.2221
35949W        W54696   0.323  25.564  20.316  0.0250 -0.4098  0.0022
35950W        W54697  11.694  15.875   4.876 -0.0040 -0.3838  0.2532
35951W        W54698   4.069  12.433  26.042  0.3034 -0.0522 -0.1023
35952W        W54699  27.011   3.954  24.716 -0.1899  0.1348 -0.1199
35953W        W54700   2.674  31.752  22.727  0.1929 -0.0305 -0.1285
35954W        W54701  21.812  34.979   4.621 -0.1644  0.2545  0.0367
35955W        W54702  26.318  14.615  25.533 -0.0309  0.1508 -0.4494
35956W        W54703  10.218  33.891   0.814  0.0243 -0.0159 -0.1237
35957W        W54704  24.336   4.620   4.446  0.0447 -0.1704  0.3095
35958W        W54705  11.992   9.420   3.809 -0.1937  0.0909 -0.3698
35959W        W54706  20.612  16.082  21.639  0.2149  0.1231  0.0479
35960W        W54707   3.398  23.293  18.402 -0.2207 -0.2028  0.3090
35961W        W54708   6.267   2.377   9.636  0.4077  0.4884  0.3581
35962W        W54709   9.985  19.855   9.448  0.0989 -0.2147 -0.2778
35963W        W54710   9.226  21.604   2.710 -0.1782 -0.0439  0.0839
35964W        W54711   5.293   6.385  24.255  0.1728  0.2826  0.0993
35965W        W54712  23.175  18.811  23.329 -0.1796  0.2281  0.0905
35966W        W54713   7.142  11.525  19.687 -0.1399  0.0176  0.1295
35967W        W54714  15.916   3.413  10.072  0.1321 -0.2000  0.0159
35968W        W54715  18.577  18.805   4.815  0.0737 -0.0760 -0.0673
35969W        W54716   7.881  13.408  18.995 -0.2321  0.1726  0.0811
35970W        W54717  33.756  14.675  12.456 -0.0256 -0.0845 -0.0188
35971W        W54718  14.087   5.090  10.043  0.0106 -0.1454  0.0581
35972W        W54719   0.315   0.111  24.613  0.1500  0.2667 -0.1551
35973W        W54720   5.587   8.147   4.081  0.0941 -0.0469  0.0768
35974W        W54721   2.219  21.910  18.202 -0.1300  0.2379  0.2394
35975W        W54722   2.390  18.004   3.159  0.0048 -0.0761  0.0410
35976W        W54723  34.625  25.776  20.066  0.0967 -0.1158 -0.0208
35977W        W54724   1.771  26.904  20.968 -0.0170  0.2863  0.1031
35978W        W54725  10.646   9.132  22.590 -0.3887 -0.2854  0.0797
35979W        W54726  25.820  17.831  11.415 -0.0198  0.0751  0.1960
35980W        W54727   1.153  11.120   2.395 -0.2806 -0.1100 -0.0070
35981W        W54728  18.137  12.096   2.969 -0.0107 -0.0220 -0.3009
35982W        W54729  29.502   6.126  23.545 -0.1744  0.2494 -0.0122
35983W        W54730  22.665  26.414  12.793  0.1589  0.1937 -0.0274
35984W        W54731  31.770  12.909  13.298 -0.2051 -0.2150 -0.0598
35985W        W54732  14.627  18.932   7.375 -0.0966  0.0639 -0.1557
35986W        W54733  11.472  10.971   2.568  0.1444  0.2072 -0.0528
35987W        W54734  31.722  22.772  15.950 -0.2345  0.0786  0.2149
35988W        W54735   0.236  28.288   5.079  0.0054  0.5032  0.3521
35989W        W54736  22.629  20.473  15.847  0.0472 -0.3315  0.0140
35990W        W54737   8.073  11.230  25.609 -0.2744 -0.0415 -0.0729
35991W        W54738   1.024  24.988  17.954 -0.1027  0.1426  0.0155
35992W        W54739  32.441  16.915  10.732 -0.1192  0.3490  0.2409
35993W        W54740  34.415  35.283  18.195  0.0814  0.0913 -0.0875
35994W        W54741  24.881  23.765  24.111  0.1307  0.2159  0.1675
35995W        W54742  14.130   1.090  24.466  0.2473  0.0872 -0.1819
35996W        W54743   0.060  16.430  10.030 -0.0668 -0.0303  0.3552
35997W        W54744  34.082  33.378  15.733  0.1485 -0.0664 -0.1357
35998W        W54745   4.622   3.009  25.432 -0.1856 -0.0140 -0.0084
35999W        W54746  15.255  14.804  23.356 -0.0341  0.0639 -0.1825
36000W        W54747  29.202  16.310   9.817  0.1588 -0.1232 -0.3636
36001W        W54748   9.225   1.423   6.049  0.1619 -0.3059  0.0365
36002W        W54749  31.316  33.177  24.969  0.1043  0.0887  0.2347
36003W        W54750   4.375  20.452  25.815  0.0231 -0.1780  0.0972
36004W        W54751  15.178  30.962   8.739 -0.0183  0.0380  0.0748
36005W        W54752  25.702   3.094  19.474  0.1972  0.3988  0.0014
36006W        W54753   2.919  11.685  18.698  0.0637 -0.0079 -0.2550
36007W        W54754   0.814   1.009  26.210 -0.4580 -0.2663  0.1575
36008W        W54755   8.542  24.178  10.539 -0.1093 -0.1955 -0.0263
36009W        W54756  21.878   2.268  14.564 -0.1405 -0.1283 -0.1928
36010W        W54757  19.086   6.477  22.965 -0.4676  0.3098 -0.4247
36011W        W54758  31.616  13.444  23.625  0.1228 -0.0661  0.0667
36012W        W54759  24.039   5.687  25.762  0.0211  0.0430 -0.1088
36013W        W54760  29.016  10.615  19.913 -0.2706 -0.1481  0.0375
36014W        W54761   9.385   8.039   9.324 -0.4872 -0.1260 -0.1300
36015W        W54762  32.719  15.603   6.212  0.0103  0.1390 -0.2172
36016W        W54763  24.979  21.545  13.961 -0.3717  0.0430  0.0100
36017W        W54764  11.396  28.911  10.698  0.2257 -0.0285 -0.2522
36018W        W54765  32.708  30.309   5.437 -0.2141 -0.2789 -0.2864
36019W        W54766   0.122  19.993  14.875  0.4627  0.3178 -0.2680
36020W        W54767  22.111  12.112  20.682  0.1257  0.3037  0.2063
36021W        W54768  32.901   5.460   1.381 -0.1270 -0.0959  0.1760
36022W        W54769   4.653  14.262  23.282  0.0994  0.3186  0.0122
36023W        W54770   1.877  25.457  25.328  0.4136  0.0213 -0.0147
36024W        W54771  17.596  25.530  20.650 -0.2785  0.2082 -0.0285
36025W        W54772  35.118  21.451  25.397 -0.0507 -0.0343  0.3282
36026W        W54773  32.248  14.339   0.216 -0.0502  0.2231  0.1915
36027W        W54774  31.970  14.617   6.564  0.1363  0.2290 -0.0003
36028W        W54775  27.412  21.616  19.937 -0.0220 -0.0450 -0.3598
36029W        W54776   2.687  28.996   9.759 -0.0195  0.0592 -0.0854
36030W        W54777  16.758  20.658   6.215 -0.2944  0.2103 -0.0315
36031W        W54778   9.064  17.351   6.936  0.2725  0.1088 -0.1826
36032W        W54779  31.866  17.587  24.305 -0.0109 -0.0661  0.0204
36033W        W54780   3.675  31.407   2.951 -0.4225  0.0741  0.1241
36034W        W54781   7.239   7.638  19.773  0.2361  0.0211 -0.1408
36035W        W54782  17.607  24.074  21.879  0.0908  0.2016 -0.5067
36036W        W54783   6.779  12.244   5.466 -0.0254 -0.2221  0.0358
36037W        W54784  24.587   2.493   4.128 -0.1578 -0.0837  0.0236
36038W        W54785  10.928  34.125  21.876  0.0118 -0.0484  0.0780
36039W        W54786  23.265  10.532  18.224 -0.2307 -0.0190  0.0040
36040W        W54787  17.623  25.675   1.478  0.2842 -0.1609  0.2710
36041W        W54788  21.995  13.724  18.217 -0.1041  0.0108  0.1765
36042W        W54789  12.547  34.989  22.249 -0.1992 -0.0912 -0.2485
36043W        W54790   5.354   1.021  19.637 -0.1311 -0.1259  0.2364
36044W        W54791  17.064  27.694   9.298 -0.0379  0.0298  0.0781
36045W        W54792  13.456  28.424  15.173  0.0713  0.4535 -0.0457
36046W        W54793  31.158  29.813  12.056 -0.2558  0.0581  0.0873
36047W        W54794  28.969  19.423  14.100 -0.0105  0.1011  0.0253
36048W        W54795   8.228  29.169  14.174  0.4584 -0.3241 -0.1715
36049W        W54796  28.776  28.430  18.423  0.0524  0.0474  0.1518
36050W        W54797  23.905  19.334  18.462 -0.1605 -0.0851  0.1179
36051W        W54798  32.870  15.564  23.358 -0.1071 -0.5648 -0.0937
36052W        W54799  16.257  33.119  24.915 -0.0329  0.2138 -0.2840
36053W        W54800   0.150  20.134  15.692  0.2793 -0.1414  0.0952
36054W        W54801   5.428   8.170  20.483  0.0471 -0.1921  0.1288
36055W        W54802  22.458  17.678  24.574 -0.2025 -0.0533  0.2411
36056W        W54803   8.879  15.599  24.114  0.2074  0.0409 -0.1179
36057W        W54804   9.562   3.094  13.953  0.0298 -0.1956 -0.2667
36058W        W54805  14.962  21.982   4.993  0.1854  0.1222 -0.1755
36059W        W54806  30.629  31.721  24.825  0.3693  0.0270 -0.0628
36060W        W54807  19.406  34.912   9.260 -0.1956 -0.1802 -0.0991
36061W        W54808  26.286  25.018  15.748  0.1860  0.1881 -0.0411
36062W        W54809  19.025  26.752   5.494 -0.0700 -0.0720  0.0501
36063W        W54810   5.571   2.795   9.026  0.1190 -0.0048  0.0284
36064W        W54811  32.739  20.291  18.700  0.1345  0.1447  0.0493
36065W        W54812   7.746  33.501  13.857 -0.2834 -0.0681 -0.0955
36066W        W54813   8.913  33.721  14.862 -0.0812 -0.0586  0.0953
36067W        W54814  33.013  34.214  20.465  0.0339 -0.0047 -0.0636
36068W        W54815  23.224   9.372   1.620  0.1829  0.0489  0.0320
36069W        W54816  17.610   6.556  24.152  0.0416  0.2058  0.1370
36070W        W54817  10.430   6.685  13.595 -0.0314  0.0836  0.2225
36071W        W54818   8.534  28.326  21.656 -0.1992 -0.0304 -0.0097
36072W        W54819  31.699  31.212  17.386 -0.2342  0.4255 -0.4968
36073W        W54820  30.500  33.240   0.144 -0.4183  0.0136  0.0217
36074W        W54821  25.547  24.805  22.837 -0.0554  0.1333  0.1910
36075W        W54822   7.298   8.603   3.629  0.0500  0.0416 -0.3659
36076W        W54823  27.277  24.696  11.107  0.0925  0.0534  0.4250
36077W        W54824  31.473  32.221  12.750  0.1174 -0.2825 -0.0640
36078W        W54825   7.610  20.653   5.887 -0.1688 -0.0272 -0.0078
36079W        W54826   5.807  21.255   7.384  0.3774 -0.4666  0.3039
36080W        W54827   3.393   3.946   8.749 -0.0004 -0.0606 -0.2373
36081W        W54828   7.962  23.566  21.440  0.3081 -0.2134  0.1591
36082W        W54829  23.698  30.312  20.407 -0.1077 -0.1739 -0.2421
36083W        W54830   0.596  23.241  13.531 -0.0752  0.1831 -0.2328
36084W        W54831  29.215   1.095   5.534 -0.2122 -0.1394 -0.3579
36085W        W54832  10.282  22.504  13.901 -0.2516 -0.2466  0.1318
36086W        W54833   5.511   9.710   7.756 -0.2381  0.0006  0.1021
36087W        W54834  27.351   1.348  17.922  0.1916  0.2157 -0.0797
36088W        W54835  22.429  29.404   5.338  0.1306 -0.1567  0.0643
36089W        W54836  30.630  18.473  10.011 -0.0626 -0.0264  0.2306
36090W        W54837  30.211  26.576  10.396  0.0038  0.1829  0.0779
36091W        W54838  32.669  32.630  23.805  0.1751  0.0325 -0.2124
36092W        W54839   0.228   5.633  19.441 -0.0088  0.0690  0.2223
36093W        W54840  21.780   4.765   6.682  0.3465 -0.0977 -0.0829
36094W        W54841   3.963  28.711   3.612 -0.0851  0.1522  0.0825
36095W        W54842  24.754  28.621  16.311  0.1511  0.1149 -0.1247
36096W        W54843  13.186  26.805  15.882 -0.0556 -0.0607  0.3807
36097W        W54844  31.787   0.558   4.565 -0.3557 -0.0489 -0.1753
36098W        W54845  13.190  20.445  25.214 -0.2440  0.0477  0.2292
36099W        W54846  17.915  25.928   8.035  0.2243  0.0136  0.0920
36100W        W54847  29.179   7.801  23.998 -0.2085 -0.0910 -0.1309
36101W        W54848  16.666   0.936  21.262  0.0980  0.0011 -0.0837
36102W        W54849  25.105  10.675  22.484 -0.4207 -0.1427 -0.2136
36103W        W54850  24.604  20.751  20.351 -0.0129 -0.1408 -0.3346
36104W        W54851  18.240  28.536  20.665 -0.0359  0.0434  0.3344
36105W        W54852  12.902   4.238  23.527 -0.1581 -0.0169 -0.1318
36106W        W54853  15.583  27.430   5.624 -0.0918 -0.0226  0.3483
36107W        W54854  31.547   9.393  24.222  0.2558  0.2201 -0.1206
36108W        W54855  12.039  18.062  14.500  0.1906 -0.0956  0.0670
36109W        W54856  26.437  34.193  12.485 -0.2888 -0.0938 -0.1250
36110W        W54857  11.165  18.047   2.655 -0.1201 -0.1102 -0.0268
36111W        W54858  13.030   8.954  12.628 -0.0307 -0.1494  0.2902
36112W        W54859   7.151   2.039   0.113  0.1821 -0.2315  0.1016
36113W        W54860   5.846   8.095   8.993  0.1161 -0.1015 -0.3894
36114W        W54861  33.216  30.796  21.587  0.1199  0.1077  0.3237
36115W        W54862  10.698   2.476  13.665  0.0121 -0.2663  0.1558
36116W        W54863  25.308  32.389  16.553  0.1952  0.1691  0.0411
36117W        W54864  17.250   7.261  24.212 -0.0792  0.2023  0.1736
36118W        W54865  26.068  14.983  22.681  0.2401  0.1284  0.0706
36119W        W54866  15.355  23.026   7.265  0.0633  0.3724  0.3844
36120W        W54867  10.056  25.704   2.733  0.0160 -0.1396 -0.3905
36121W        W54868  30.862  32.851   2.540 -0.0775  0.1856  0.1579
36122W        W54869  18.947  13.434   5.296 -0.0413  0.2777 -0.0514
36123W        W54870  11.926   2.384   0.583 -0.2044  0.3679 -0.0981
36124W        W54871  13.150  21.560   4.309  0.1481 -0.2651  0.1098
36125W        W54872  21.551   0.198   0.035  0.1859  0.1494  0.0116
36126W        W54873  26.645  32.367  21.497 -0.1943 -0.0703 -0.1986
36127W        W54874  26.884  33.691   2.952  0.1214 -0.2207 -0.2117
36128W        W54875  35.228  35.004  24.072  0.2783 -0.0160  0.4461
36129W        W54876   3.294  19.158   3.459 -0.3634 -0.0437 -0.0741
36130W        W54877  10.618   3.754  20.394  0.3190 -0.1426  0.3483
36131W        W54878  11.451  16.633   4.942 -0.2835  0.0411  0.0607
36132W        W54879  34.287  30.140  25.908 -0.2183 -0.2511  0.1350
36133W        W54880   7.964  22.375   8.413  0.2735 -0.1064  0.1337
36134W        W54881   1.087   8.885  16.129 -0.0062  0.0388  0.0055
36135W        W54882  24.209   1.804   7.531  0.0074  0.1210  0.1818
36136W        W54883   5.936  13.419  15.873 -0.0811 -0.1628  0.1484
36137W        W54884  16.035  23.060   0.446 -0.0671  0.0768 -0.1489
36138W        W54885  32.216  10.307   7.311  0.2360 -0.0126 -0.0085
36139W        W54886  16.089  12.736   3.566 -0.2564  0.1543 -0.4178
36140W        W54887   8.923   4.427   9.040  0.2908 -0.0645 -0.0092
36141W        W54888  13.595   3.249  20.510 -0.0340  0.0730 -0.0430
36142W        W54889  18.037   7.658  19.059 -0.1854  0.0653  0.1251
36143W        W54890   2.633   5.309  17.003  0.0516 -0.0539 -0.0074
36144W        W54891  31.652  20.142  19.269 -0.2730  0.2460 -0.1588
36145W        W54892   8.663  35.233  23.056  0.1096 -0.2407  0.3292
36146W        W54893   9.527  21.146  23.384 -0.2244  0.5155 -0.1451
36147W        W54894  34.477  24.228   0.551 -0.2135  0.2714  0.1378
36148W        W54895  18.869   8.474   5.895 -0.1487 -0.3515 -0.1935
36149W        W54896  11.731  14.794  22.531  0.0086 -0.0292 -0.4008
36150W        W54897  21.617  30.932  18.974  0.2053  0.0103  0.1305
36151W        W54898  33.885  31.037  25.822  0.4078  0.1004  0.3689
36152W        W54899   2.246   1.528  24.367  0.3115 -0.0954  0.1552
36153W        W54900  18.157  19.594   0.729  0.0625  0.3302 -0.1666
36154W        W54901   6.737  10.708  17.898 -0.1657  0.3330 -0.0175
36155W        W54902   5.966  27.561  25.093 -0.1055 -0.0207  0.1377
36156W        W54903  30.222   4.745  13.475  0.0828  0.1032  0.1903
36157W        W54904  19.466  27.367  24.874 -0.0715  0.0441  0.1406
36158W        W54905  32.249  10.011  11.056  0.0380  0.2155  0.2336
36159W        W54906  27.138   6.255  24.318  0.1229  0.0751 -0.1685
36160W        W54907  18.894   3.556  22.165 -0.0700 -0.1256  0.3687
36161W        W54908  29.925  22.371  15.965 -0.0828  0.3807 -0.2847
36162W        W54909  28.034  22.107  20.038  0.0193 -0.3976  0.1730
36163W        W54910   6.085   2.182  24.094  0.3810  0.2288 -0.0302
36164W        W54911   0.322   2.711  16.311 -0.4389 -0.2017 -0.1824
36165W        W54912   8.515  27.790   9.659 -0.0860  0.2733  0.0461
36166W        W54913  29.305  14.175  18.039  0.1581 -0.0918  0.2165
36167W        W54914  27.165   1.727  20.590 -0.0428 -0.2268 -0.0236
36168W        W54915  25.876  20.564  16.105 -0.1783  0.0210  0.2193
36169W        W54916   5.672  19.343   2.214 -0.0103  0.1813 -0.2220
36170W        W54917  27.157   8.783  25.206 -0.0558  0.1483 -0.1544
36171W        W54918  23.300   4.052   3.654  0.1944  0.1986  0.0850
36172W        W54919  10.508  26.984   3.063 -0.1423  0.2209 -0.3956
36173W        W54920   4.635  26.714   7.379 -0.2891 -0.2178  0.3204
36174W        W54921  32.553  18.622   5.872 -0.2856 -0.3626 -0.3231
36175W        W54922  31.270  32.558   1.867  0.0798  0.2387 -0.0165
36176W        W54923   8.306  16.926   2.355 -0.0280 -0.3056 -0.1749
36177W        W54924  23.120   2.712   5.616 -0.1329  0.1717  0.1696
36178W        W54925   6.628  16.115   5.792  0.2698 -0.2904 -0.0911
36179W        W54926  21.199  16.081  23.655  0.0685  0.0113  0.0251
36180W        W54927  29.852  10.366   7.794  0.0826 -0.0358 -0.0405
36181W        W54928  21.718  28.707   5.423  0.0780 -0.2011  0.0385
36182W        W54929  25.623  35.292  17.402 -0.0065 -0.2199  0.0881
36183W        W54930  24.230   8.338  16.910  0.0555  0.4350 -0.0724
36184W        W54931  23.585  20.791   0.980 -0.1155  0.1431 -0.0646
36185W        W54932   3.203  34.241  10.025 -0.0123  0.1165 -0.0422
36186W        W54933  22.056  15.324  19.921  0.1169 -0.0629 -0.0287
36187W        W54934  34.677  29.678   5.272 -0.0930  0.0823  0.1393
36188W        W54935  10.829  28.517  24.003  0.0257 -0.0955  0.1907
36189W        W54936  28.999  20.364  19.290  0.1112 -0.1788  0.4798
36190W        W54937  25.214  33.178   6.603 -0.4641 -0.4342 -0.0971
36191W        W54938   2.337  32.846  18.544  0.3124  0.0160  0.1640
36192W        W54939  22.186  27.473   1.883 -0.0019 -0.1147 -0.0024
36193W        W54940  28.967   5.922  12.823  0.1449  0.0315  0.0087
36194W        W54941  10.958   0.557   1.357 -0.6230  0.1207 -0.0344
36195W        W54942   5.904  13.197   8.191  0.3815  0.1987  0.0757
36196W        W54943  28.539  27.296  10.734  0.3558 -0.2280  0.1444
36197W        W54944  12.345  11.766  13.465 -0.3358  0.0424  0.2032
36198W        W54945   8.654   5.397  10.122  0.2076 -0.1264  0.0026
36199W        W54946  27.389  15.937  15.981 -0.0823  0.0432 -0.1527
36200W        W54947   8.904  32.976  22.900  0.2400 -0.1144 -0.0582
36201W        W54948  26.555  28.352   0.900 -0.0382  0.0869 -0.2618
36202W        W54949  30.016  19.181   4.556  0.0527 -0.0467  0.1339
36203W        W54950   2.696   4.764  20.009  0.1143 -0.1737 -0.0382
36204W        W54951  22.617  33.933   1.995  0.0683 -0.1816 -0.1057
36205W        W54952  28.753  30.477   3.134 -0.0955  0.1415  0.4408
36206W        W54953  28.259  31.957   5.495  0.1821 -0.0425 -0.0419
36207W        W54954  12.027  26.049  14.983 -0.2844 -0.1323  0.3044
36208W        W54955  10.537  30.879  22.315 -0.1930 -0.1660 -0.0011
36209W        W54956  27.246  11.974  17.256  0.1386  0.1197 -0.2328
36210W        W54957  19.848   2.910   6.401 -0.0779 -0.2568  0.3557
36211W        W54958   2.518   9.650  18.095  0.1911 -0.0648  0.1038
36212W        W54959   7.697  23.768   8.370  0.1359 -0.0217  0.0846
36213W        W54960  23.996  25.669  24.944  0.4802 -0.2746  0.0712
36214W        W54961   4.997  28.464  23.142  0.1855 -0.1166  0.0045
36215W        W54962   2.009  17.594  21.036 -0.0176  0.0221  0.2385
36216W        W54963   6.735  16.612   4.369 -0.0076  0.1699 -0.1368
36217W        W54964  26.182   6.816   3.314  0.3538  0.0303  0.1555
36218W        W54965  17.208  13.807   8.431 -0.0509 -0.0696 -0.2451
36219W        W54966   0.475  11.610  11.144 -0.1982 -0.1380  0.0461
36220W        W54967  16.109  31.624   9.605 -0.2650  0.1809 -0.0296
36221W        W54968   5.298   1.181   5.774  0.2577  0.0168 -0.0405
36222W        W54969  13.007   6.514  11.534 -0.0644 -0.0332  0.1828
36223W        W54970  14.083  17.226   4.936 -0.0608 -0.4120  0.0246
36224W        W54971  27.775  13.714  13.065  0.1381 -0.2790 -0.1722
36225W        W54972  13.048  11.011   8.306  0.3079  0.0208  0.3023
36226W        W54973  33.911   3.054   6.927  0.2445 -0.0504  0.0199
36227W        W54974  18.628  20.096   0.556 -0.2958 -0.0137  0.0439
36228W        W54975   0.834  15.417  19.753  0.0544 -0.2882  0.1726
36229W        W54976  10.202  16.546  21.490 -0.1061  0.0729  0.1035
36230W        W54977  31.298  21.135  10.987  0.2281 -0.0351 -0.3884
36231W        W54978  17.189  26.813   5.082 -0.0210 -0.1260  0.3108
36232W        W54979   4.864  27.570  25.638  0.2726 -0.2141  0.2568
36233W        W54980  15.249  33.932  25.525  0.0525 -0.1271  0.2838
36234W        W54981  11.320  26.135   3.614  0.0738  0.0708 -0.0208
36235W        W54982  24.036  24.673  18.124 -0.0972  0.3032 -0.0084
36236W        W54983  27.025  22.209  23.756  0.0405  0.0917  0.3316
36237W        W54984  31.131   1.049  19.669 -0.0844 -0.1385 -0.1909
36238W        W54985  17.132  24.820  23.623  0.2062 -0.0692  0.2484
36239W        W54986  19.758   8.565  11.104  0.2393  0.1318 -0.0336
36240W        W54987  20.347   5.649  18.387 -0.0888  0.0244  0.4276
36241W        W54988  15.884   8.918   4.292 -0.0884 -0.0328  0.1295
36242W        W54989  20.383   9.192  22.675  0.1615 -0.0092  0.1275
36243W        W54990  12.819  15.795   1.291  0.1024  0.1091 -0.1691
36244W        W54991  22.300  14.576  19.245 -0.4319  0.0538 -0.1043
36245W        W54992   5.868   3.924   1.234  0.1469  0.1836  0.0214
36246W        W54993  18.119  18.120  22.821 -0.1237 -0.2926 -0.0127
36247W        W54994  28.267   2.528   0.548  0.2162 -0.0337  0.1200
36248W        W54995  20.503  27.141  18.823 -0.2465 -0.0415 -0.0396
36249W        W54996   7.792  34.150  23.328 -0.2099  0.1241  0.1307
36250W        W54997  18.000   8.935   3.254  0.3533  0.0483 -0.0792
36251W        W54998  29.793  12.250   6.009  0.0432 -0.5599 -0.0649
36252W        W54999  23.589  15.705  14.587 -0.2387 -0.1420  0.3491
36253W        W55000  32.005   3.991   0.322  0.1570  0.1196  0.2403
36254W        W55001  30.461  18.003  21.949  0.0349  0.0750  0.1653
36255W        W55002   0.441   6.793  25.491  0.0803  0.0925 -0.2136
36256W        W55003  16.259  18.073   6.176 -0.2505 -0.1997 -0.0032
36257W        W55004  24.713  28.339  14.574  0.1166  0.1028  0.0772
36258W        W55005   4.901  31.340  22.292  0.3357  0.0317 -0.0894
36259W        W55006   0.767   6.924  14.685 -0.0102 -0.1572  0.1695
36260W        W55007  29.289  21.689   6.207 -0.4764 -0.1547 -0.1146
36261W        W55008  31.442   4.909  23.689 -0.2542  0.2434 -0.2468
36262W        W55009  15.115  29.626  10.290 -0.1719  0.1456  0.4985
36263W        W55010  16.713   0.677  25.019  0.0870  0.1671 -0.4206
36264W        W55011  20.417  26.447   5.026 -0.1846 -0.0395 -0.1573
36265W        W55012   6.514  19.107  19.843 -0.1129  0.0708  0.0130
36266W        W55013  19.807  21.315   0.366 -0.3543 -0.2186 -0.0326
36267W        W55014  22.537  24.697   0.684  0.0637 -0.0257 -0.2183
36268W        W55015  34.065   4.473  23.749  0.1316  0.1293 -0.2157
36269W        W55016  24.109  30.063   1.654 -0.3165  0.1921 -0.1632
36270W        W55017  27.478   2.769  18.225  0.0860  0.0050  0.3947
36271W        W55018  23.294  34.311   1.541  0.1672  0.3335  0.3049
36272W        W55019   2.797   6.728   3.180  0.0365 -0.1132 -0.1571
36273W        W55020  26.406   0.659   6.166 -0.1070  0.0850 -0.1979
36274W        W55021   5.464  19.952  25.019  0.2363  0.0522 -0.3425
36275W        W55022  30.982   1.122  22.149  0.4192  0.0849  0.0751
36276W        W55023   0.910   7.784   4.682 -0.1671  0.0404  0.1679
36277W        W55024  17.586  12.922  10.917  0.0791 -0.1580 -0.1061
36278W        W55025   5.270   7.443   6.033  0.1148 -0.0807 -0.2745
36279W        W55026   5.398   0.294  25.977  0.0689  0.0841  0.0926
36280W        W55027  20.595  14.920  20.092  0.2333 -0.0848  0.3643
36281W        W55028  23.215  28.404  15.406  0.0531  0.0693  0.3613
36282W        W55029  21.573   0.015  22.016  0.2991 -0.2353  0.2529
36283W        W55030   1.470   6.247   1.762 -0.1598 -0.0071  0.2083
36284W        W55031  16.476  24.735   1.926 -0.0036 -0.6268 -0.0683
36285W        W55032   1.617  20.431  19.577  0.1493 -0.0758  0.1889
36286W        W55033  13.553  10.472  11.779 -0.1681  0.0731  0.3920
36287W        W55034   5.036  21.375  20.781  0.4613  0.1139 -0.0940
36288W        W55035  13.855   8.400  23.020  0.1554 -0.0490 -0.1089
36289W        W55036  12.426  27.701   2.463 -0.1316 -0.0202  0.2262
36290W        W55037  16.924  31.746   2.867  0.2310  0.2869 -0.4568
36291W        W55038  11.450  26.276   9.889 -0.0730 -0.0942  0.0441
36292W        W55039   7.945   3.470   3.891  0.3221 -0.0915  0.0306
36293W        W55040  17.187   9.304  22.024  0.1332  0.1610 -0.2870
36294W        W55041  25.145   3.278   2.659  0.1782 -0.1083 -0.1094
36295W        W55042   1.567  17.230  21.395  0.1420 -0.0523 -0.1333
36296W        W55043  23.182   3.218  19.247 -0.1111  0.2817 -0.0019
36297W        W55044  25.641  31.720  22.861 -0.1363 -0.0761 -0.1903
36298W        W55045  16.055   5.585   0.806 -0.0520 -0.0962  0.0637
36299W        W55046  34.945  28.251   0.930  0.0926 -0.0061 -0.1196
36300W        W55047  14.606  34.848   6.651 -0.1354 -0.1085 -0.1975
36301W        W55048   6.621   9.154  21.029  0.0024 -0.2124  0.1879
36302W        W55049  14.903  21.896  25.004  0.0201  0.2223  0.1869
36303W        W55050   5.473  22.193   0.684  0.1103 -0.0942  0.2286
36304W        W55051  15.864  23.422   4.659 -0.0673  0.0735  0.1376
36305W        W55052   2.088  33.819  21.914 -0.1952  0.1121  0.1128
36306W        W55053  33.967  24.752  10.792  0.1585  0.1016  0.0351
36307W        W55054  17.107  10.545   3.213  0.2328 -0.1876 -0.1492
36308W        W55055   8.855   6.442   4.599  0.0089  0.0161  0.0155
36309W        W55056   1.177  17.707  22.272  0.2630 -0.2334  0.0049
36310W        W55057  18.001   2.468  21.274  0.1316 -0.0004  0.2610
36311W        W55058  29.638  21.094  15.227 -0.0218 -0.2451  0.0329
36312W        W55059  16.694  27.872  25.104 -0.2012  0.0373  0.1915
36313W        W55060   3.825   6.494  19.680 -0.1692 -0.1659  0.2199
36314W        W55061  24.711   4.751   6.225 -0.0038 -0.2671 -0.2989
36315W        W55062  26.996  20.904  14.980 -0.0174  0.0408  0.1534
36316W        W55063  34.520   1.975  17.999 -0.2520  0.1768 -0.1675
36317W        W55064  15.791  13.222  20.262 -0.1830  0.2046 -0.3202
36318W        W55065  13.411   9.939   1.668 -0.0117  0.0230 -0.2648
36319W        W55066  32.416   5.234  19.468 -0.2130  0.1140  0.0351
36320W        W55067  12.744  26.105   8.294 -0.2368 -0.0911  0.3346
36321W        W55068  20.070  10.439  10.094  0.1133  0.0304 -0.1196
36322W        W55069  27.821  24.257  17.279 -0.3250  0.1811  0.2759
36323W        W55070  31.654  21.927  10.836  0.2048  0.5348 -0.1157
36324W        W55071   2.413  33.073  19.420  0.1657  0.1562 -0.3101
36325W        W55072  10.393  18.635   4.194  0.0961 -0.1170  0.2223
36326W        W55073  28.717  29.608   3.500 -0.0844 -0.1628 -0.2440
36327W        W55074   5.692  13.933  22.569 -0.1947  0.1668  0.0637
36328W        W55075  32.751   7.317  23.281  0.2095  0.0362  0.3396
36329W        W55076  20.923   6.925  11.281 -0.1061  0.0864  0.1776
36330W        W55077   2.390  31.648  23.649  0.0708 -0.0628 -0.0705
36331W        W55078  18.756  22.062   6.364 -0.0601 -0.0585  0.1595
36332W        W55079  26.886  26.153  18.047  0.2411 -0.1784 -0.0288
36333W        W55080  14.166  27.015   5.191  0.0139  0.1724  0.2099
36334W        W55081  15.755  16.459  10.884  0.3294 -0.0184  0.0965
36335W        W55082  19.725   8.097   7.811  0.0867  0.4637  0.0803
36336W        W55083  26.380  23.212  14.379  0.2066 -0.4486  0.0960
36337W        W55084  27.804  27.844  19.253  0.1444  0.3848  0.1755
36338W        W55085  19.391  31.732  15.710 -0.2511  0.0789  0.0713
36339W        W55086   5.857   2.203  20.520 -0.3615  0.0458 -0.1715
36340W        W55087   9.354  35.321  20.494 -0.3193  0.0357  0.0867
36341W        W55088  24.753   4.382   5.791 -0.3077  0.0360 -0.1685
36342W        W55089  31.669  24.529  20.901 -0.1855  0.1812  0.3543
36343W        W55090  25.499  33.033   6.070  0.2660  0.1010 -0.1136
36344W        W55091   4.382  11.179  21.632  0.0353  0.0188 -0.1352
36345W        W55092  12.579  22.387  15.471 -0.0310  0.0867 -0.1280
36346W        W55093   3.151  33.278   3.956 -0.1583  0.1566  0.1700
36347W        W55094   0.230   7.767   1.135  0.1517  0.1030  0.0976
36348W        W55095  33.220   4.656  22.593 -0.0958  0.0435 -0.0910
36349W        W55096  11.823  10.101   6.799  0.0291  0.1867  0.2198
36350W        W55097  31.073  10.811  15.013  0.1358  0.0824  0.4164
36351W        W55098   5.391  34.074   7.024  0.0101 -0.0115 -0.1433
36352W        W55099  23.426   7.888  20.368 -0.1515  0.1432  0.5676
36353W        W55100  25.561  30.403  11.593 -0.1614 -0.0304 -0.0307
36354W        W55101  26.446  21.319  24.146  0.0634 -0.2308  0.2543
36355W        W55102  29.914  10.917  12.358 -0.2493 -0.1429  0.0945
36356W        W55103   2.190  29.940   9.133 -0.0068 -0.2701  0.3409
36357W        W55104  21.030  30.756   6.166  0.2559 -0.0620 -0.2295
36358W        W55105  26.480  23.937  22.652  0.0560 -0.2329 -0.0384
36359W        W55106  30.650  23.824  21.780 -0.0546 -0.0161  0.0551
36360W        W55107  16.312   9.631   6.575 -0.1167 -0.0124 -0.3390
36361W        W55108  16.875  24.785  21.594 -0.3081  0.0387 -0.2131
36362W        W55109  32.558  13.721  18.161  0.1646  0.6231 -0.1434
36363W        W55110   8.591  16.995   4.130 -0.0701 -0.0106 -0.1968
36364W        W55111  13.088   9.523  22.782  0.0407 -0.0318 -0.0216
36365W        W55112   1.662  34.869  25.807 -0.3070 -0.0402  0.1631
36366W        W55113  33.021  23.580  17.655 -0.0732  0.1445  0.1474
36367W        W55114  34.248  24.752  22.022  0.0395 -0.1602  0.0547
36368W        W55115  12.817  32.333  11.155 -0.1793 -0.0189 -0.3696
36369W        W55116  34.470   0.086  20.198 -0.0432 -0.0610  0.0376
36370W        W55117  10.317  30.345   8.847  0.0149 -0.3357  0.0589
36371W        W55118   0.843  24.032  14.104  0.4743  0.0084 -0.0957
36372W        W55119   9.018  15.316   3.164 -0.1957  0.1130  0.3470
36373W        W55120   0.258  22.707  16.349 -0.5372  0.2457  0.1997
36374W        W55121  13.620  25.331  10.264 -0.1825  0.0816 -0.0876
36375W        W55122  16.752  30.359  22.878  0.4405  0.0687 -0.0552
36376W        W55123   2.461  17.873  16.289 -0.0880 -0.1963  0.2420
36377W        W55124  13.567  21.660  24.947  0.0744  0.0473  0.1224
36378W        W55125  20.300  31.668   7.853  0.3455  0.0934 -0.0872
36379W        W55126   2.011  33.881  17.343  0.3045 -0.1634  0.0265
36380W        W55127  33.904  23.455  22.327 -0.3094 -0.1342  0.1695
36381W        W55128  15.294  12.704  21.212 -0.1416 -0.1338 -0.2448
36382W        W55129  28.218  21.135  24.870 -0.0119 -0.1907  0.1147
36383W        W55130   5.057  27.386   8.934  0.3385 -0.1776 -0.0741
36384W        W55131  22.107  25.645   5.302 -0.0514  0.0087  0.2214
36385W        W55132   4.755  29.539  13.691  0.0741  0.2017 -0.0048
36386W        W55133   8.261   4.439  22.367 -0.4146 -0.1142 -0.1165
36387W        W55134  22.287   6.743  23.256  0.2039 -0.0880 -0.3824
36388W        W55135  11.846  28.490   7.428 -0.2949  0.4705 -0.0630
36389W        W55136  14.553   2.023  11.091  0.0184 -0.0798 -0.0165
36390W        W55137  25.660   1.316  17.018  0.3657  0.4333 -0.0876
36391W        W55138   3.257   5.911  16.625  0.1226  0.0414 -0.3025
36392W        W55139  29.876  21.867  14.057 -0.1815  0.0087  0.0737
36393W        W55140  21.295  23.753  25.944  0.0722 -0.0100  0.1123
36394W        W55141  31.415  32.427   3.778 -0.1943 -0.3826  0.0408
36395W        W55142  30.100  34.307   1.582  0.0561  0.1966 -0.0932
36396W        W55143  19.467  22.237  24.504 -0.3321 -0.0891 -0.0345
36397W        W55144  30.841  31.211   3.075 -0.1644  0.1603 -0.3612
36398W        W55145  14.898  20.875   2.466 -0.3158  0.2864 -0.3316
36399W        W55146  26.429  26.708  12.113  0.0893 -0.0220  0.0987
36400W        W55147  17.324   4.472  11.925  0.0946 -0.0395 -0.2519
36401W        W55148  33.409   2.422   1.118 -0.2180 -0.2276  0.0605
36402W        W55149   6.427  33.814  12.515 -0.0493 -0.0814 -0.1259
36403W        W55150  16.452  11.981  20.185  0.0972  0.3056  0.1062
36404W        W55151   3.463   7.959  25.309 -0.3430  0.0864 -0.0982
36405W        W55152  22.800  12.183  24.508  0.3327  0.0577  0.0653
36406W        W55153  33.628  28.216  12.583  0.1539 -0.3379  0.1325
36407W        W55154  20.277  13.417   4.716  0.1690 -0.0406  0.0243
36408W        W55155  27.817   0.755   1.015 -0.2989  0.3379  0.3053
36409W        W55156  15.457  18.244  25.349 -0.1788  0.0512 -0.0619
36410W        W55157  30.676   2.779  14.846  0.2017 -0.0548 -0.4130
36411W        W55158  29.653   0.959  17.358 -0.3014  0.2691 -0.2927
36412W        W55159   3.442   5.547  24.799 -0.0264  0.1119 -0.2155
36413W        W55160  18.136  24.851  21.774  0.1825  0.1107  0.1670
36414W        W55161  27.723  16.027   9.938 -0.0144  0.0886  0.0577
36415W        W55162  23.321  15.416   0.970 -0.0434  0.1646 -0.0656
36416W        W55163  29.759  32.293  19.611 -0.1729 -0.1447 -0.1457
36417W        W55164  10.629   4.949  20.983 -0.1134 -0.1029 -0.1361
36418W        W55165   9.529  23.214   1.823 -0.0683 -0.0774 -0.0793
36419W        W55166  11.934  10.719   6.507 -0.0434  0.0076 -0.0453
36420W        W55167   1.340  20.898  22.090  0.1204  0.0336 -0.4644
36421W        W55168   5.111  20.035  22.409  0.4672  0.3123  0.0821
36422W        W55169  14.952   7.856  21.552 -0.3324  0.1823 -0.0097
36423W        W55170  20.293  22.671   4.692  0.0220 -0.0698  0.0133
36424W        W55171  19.062  34.694  16.431  0.2649  0.1313  0.1135
36425W        W55172  15.929  11.198   8.196 -0.3115  0.2315 -0.0232
36426W        W55173  32.708  11.888  21.278 -0.1931 -0.3388 -0.2054
36427W        W55174   4.988  33.269   1.148  0.2380  0.2100 -0.0576
36428W        W55175   3.505  16.374  19.024 -0.2382 -0.0200  0.3575
36429W        W55176   2.775  23.859  23.292  0.3740  0.0626  0.1465
36430W        W55177  17.698  15.720  11.890 -0.0646 -0.0724 -0.0738
36431W        W55178  23.125  24.608   2.683 -0.3277  0.1752  0.0286
36432W        W55179  21.161   2.899  18.330 -0.1537  0.1147 -0.2814
36433W        W55180  16.107  18.698  14.127 -0.0817  0.0713  0.5150
36434W        W55181  25.550   0.649  14.455  0.3046 -0.4695 -0.0998
36435W        W55182  24.482  13.858  10.561  0.2074 -0.0065  0.0478
36436W        W55183   1.673  14.625   2.997 -0.3042  0.2048 -0.0339
36437W        W55184  17.382  26.221  10.393 -0.0124  0.0699  0.1955
36438W        W55185  11.584   0.789   2.718 -0.5288 -0.2452  0.0880
36439W        W55186   9.136  18.150  11.343  0.1979  0.1902  0.2176
36440W        W55187  17.867  24.896  25.292  0.0871  0.1535  0.1786
36441W        W55188   9.326   1.700  10.128  0.0672 -0.1166 -0.1245
36442W        W55189  30.937  26.924  14.281 -0.1746  0.0588  0.1021
36443W        W55190   9.270  19.689   4.899  0.1031  0.0747 -0.4083
36444W        W55191  19.101  25.807   5.879  0.0331 -0.2867 -0.0469
36445W        W55192  29.061  28.561   2.401 -0.3452 -0.0369 -0.1169
36446W        W55193  28.486  31.911  11.437  0.3645  0.3053 -0.0563
36447W        W55194  26.753  17.634  14.023 -0.1818  0.0450 -0.1078
36448W        W55195  10.527  27.113   3.721  0.0522  0.0639  0.2559
36449W        W55196  20.192  25.530   1.988 -0.2991 -0.2328  0.2057
36450W        W55197  23.921   9.240  15.825 -0.0500  0.1404  0.1083
36451W        W55198   2.890  14.828   2.642 -0.0365  0.0336  0.5304
36452W        W55199   3.421  11.783   1.420  0.2047 -0.0440  0.2265
36453W        W55200   5.446  30.874   3.143 -0.1643  0.0994  0.4004
36454W        W55201  32.618  30.625   5.078 -0.0734 -0.1053 -0.0945
36455W        W55202  31.378   8.753  21.124  0.0615  0.1286 -0.0817
36456W        W55203  11.506  12.250   4.021 -0.0509  0.0910  0.0653
36457W        W55204  31.843  25.734  16.365  0.0537  0.2682  0.2963
36458W        W55205  14.118  27.610   0.415  0.1410  0.0914  0.1338
36459W        W55206  32.731  14.645  19.085  0.0353  0.3415  0.0976
36460W        W55207  11.826  18.358  25.156  0.0145  0.1068  0.0109
36461W        W55208  14.018  17.030  24.190  0.0525  0.0001  0.0434
36462W        W55209   6.896   0.288   8.012  0.0768  0.1777  0.3005
36463W        W55210  31.692  18.272  17.336  0.1487  0.2140 -0.3750
36464W        W55211   9.065   0.572   4.202 -0.1932 -0.1081 -0.0616
36465W        W55212  23.598   6.355   4.653 -0.2472 -0.0490  0.1480
36466W        W55213  25.273  23.363  24.051  0.0287  0.0309  0.0596
36467W        W55214  11.662   5.025   0.863 -0.1139  0.1398  0.3199
36468W        W55215  10.707  13.420   5.673 -0.1214 -0.2244 -0.0055
36469W        W55216   3.584  23.306   2.435  0.1120  0.0969 -0.2335
36470W        W55217  21.023  26.415   0.401  0.2223  0.4764  0.3258
36471W        W55218  10.306  24.511   2.988  0.0917 -0.0660  0.0584
36472W        W55219  19.124  16.242   8.846 -0.2416 -0.0280  0.0520
36473W        W55220   4.011  29.076   4.185  0.0608 -0.0897  0.2970
36474W        W55221  20.292  34.734  24.882  0.1044  0.1447  0.0549
36475W        W55222  31.703  15.369  20.403 -0.4859  0.1061 -0.1940
36476W        W55223  18.057   0.866   4.963  0.1090 -0.2677 -0.1620
36477W        W55224  26.243  29.017  25.026 -0.1092  0.0877  0.0625
36478W        W55225  18.566  29.289  19.399 -0.1274  0.1111  0.0415
36479W        W55226  16.611  12.860   1.082 -0.2080 -0.1668  0.1800
36480W        W55227  18.211  30.105  22.320  0.0293  0.0208 -0.1858
36481W        W55228  12.925  15.937   2.856 -0.1202  0.2629  0.3379
36482W        W55229  30.972  33.189   0.415 -0.1340  0.0216  0.0179
36483W        W55230  16.918  11.035   5.088  0.0939  0.3563  0.0252
36484W        W55231  12.886  23.254  13.744 -0.0711  0.1216  0.1806
36485W        W55232  16.011  25.725  15.929  0.0047  0.0057  0.1335
36486W        W55233  34.543  20.756  25.842  0.0139 -0.0001 -0.0984
36487W        W55234   7.428  25.588   3.729 -0.2866  0.0082 -0.2904
36488W        W55235  21.121  29.580  21.608 -0.0456 -0.3036  0.4086
36489W        W55236  33.070  21.203  11.520  0.2609  0.0118  0.1858
36490W        W55237   8.138   7.192   2.416 -0.2238  0.2796 -0.1115
36491W        W55238  12.051   9.229   0.829  0.2807 -0.2231  0.2125
36492W        W55239   9.324   9.556   1.744  0.0209 -0.2068  0.0848
36493W        W55240  25.262   5.068  12.193  0.2100  0.1580  0.2281
36494W        W55241   0.737   5.973  22.734  0.3609 -0.2920  0.1832
36495W        W55242  35.108   3.479   4.993  0.1691  0.0687 -0.0167
36496W        W55243   0.121  30.285  24.770  0.0696 -0.0436 -0.1537
36497W        W55244  34.721  18.053  21.452  0.0725  0.0078  0.1849
36498W        W55245  30.325  15.177   0.287 -0.0477  0.2498  0.0532
36499W        W55246  10.021   7.441  20.085  0.1634  0.0136  0.1775
36500W        W55247   5.926   1.785  25.312  0.2690  0.0491  0.0465
36501W        W55248  24.038  27.779  13.252  0.0267 -0.0534  0.0253
36502W        W55249  33.441   6.697   1.910  0.2829 -0.1148 -0.2173
36503W        W55250  16.913   9.309   1.545 -0.1279  0.2869  0.2596
36504W        W55251  25.653   1.127   1.725 -0.1886 -0.0448  0.2466
36505W        W55252   4.025  16.626  25.496  0.0043  0.0274 -0.1106
36506W        W55253  10.153  18.343  20.444 -0.0774 -0.2502  0.1751
36507W        W55254  17.470  22.915   8.001 -0.4716  0.1253  0.6024
36508W        W55255  16.567  28.098  25.597 -0.3638 -0.0703  0.0381
36509W        W55256   5.578  11.431  18.246  0.0657 -0.2076  0.0743
36510W        W55257  21.080   1.183   1.025  0.2141  0.0305 -0.0921
36511W        W55258  32.672  13.959  17.106  0.2373 -0.2575 -0.3141
36512W        W55259   0.071   6.301   1.955  0.3791  0.0065  0.2519
36513W        W55260  14.158   5.861   8.555  0.3586  0.0491 -0.1100
36514W        W55261  16.101  19.579  13.064 -0.1672 -0.3041 -0.0604
36515W        W55262  24.190  13.535  12.384  0.3432  0.2656  0.0071
36516W        W55263  20.312   4.752   8.119 -0.1054  0.0699  0.3194
36517W        W55264  10.559  24.530  14.225 -0.1493 -0.2791  0.0745
36518W        W55265  29.162  22.555  24.977 -0.0013  0.1091 -0.2996
36519W        W55266  28.151  10.054  11.478 -0.0352 -0.4139  0.1539
36520W        W55267  18.371  35.288  21.535 -0.0544  0.3167 -0.1777
36521W        W55268  12.352   4.882  25.135  0.0019 -0.1743 -0.2176
36522W        W55269  12.598  31.251   0.323  0.4675  0.0023  0.2199
36523W        W55270  16.999  27.046   2.227  0.0530 -0.3322 -0.1847
36524W        W55271  35.241   4.283  16.504  0.0188  0.1385  0.0426
36525W        W55272  22.691  23.919  17.417  0.0934 -0.1425 -0.3578
36526W        W55273  22.685   8.113  21.258 -0.1806 -0.3692  0.0262
36527W        W55274   2.559  18.180  23.411 -0.0964  0.1809  0.0889
36528W        W55275   3.761  11.750  18.331 -0.0024 -0.2883 -0.3172
36529W        W55276   7.256  31.454   7.512 -0.2704  0.4168 -0.0529
36530W        W55277  15.004  29.730  15.702  0.0530 -0.0756 -0.0729
36531W        W55278  32.699  31.732  24.604  0.2117 -0.1767 -0.2930
36532W        W55279  15.628  27.433  11.946  0.1581 -0.3250 -0.1846
36533W        W55280  13.955  13.079  13.534  0.0401 -0.1208  0.1336
36534W        W55281  21.941  34.635   2.401 -0.0607  0.0813 -0.0889
36535W        W55282   2.028   6.948  16.502 -0.0673 -0.0463 -0.2694
36536W        W55283  14.327  25.646   6.881  0.1095 -0.1708 -0.0681
36537W        W55284  26.273  11.093  21.839  0.1353 -0.0338 -0.2518
36538W        W55285  23.229  33.890  20.213  0.1549  0.0543 -0.5251
36539W        W55286  24.867   1.503  11.659  0.1715  0.1754  0.0002
36540W        W55287  17.204  12.276  20.434 -0.0304  0.3792  0.2870
36541W        W55288  23.027  32.165  24.478 -0.1196  0.2433  0.2031
36542W        W55289  14.923  29.476   5.507  0.1372 -0.0042  0.0276
36543W        W55290  18.508  22.815  20.334 -0.2847  0.2468 -0.0860
36544W        W55291  18.051  17.327  11.966  0.1211  0.2172 -0.2395
36545W        W55292  20.932   8.257   4.946  0.0015  0.1554 -0.1856
36546W        W55293  25.857   2.440   4.864 -0.1737 -0.0107  0.0294
36547W        W55294  21.765   7.269  23.693  0.0432  0.2383  0.0125
36548W        W55295  31.478  32.611   3.340 -0.1197 -0.0387 -0.2109
36549W        W55296  21.399   5.437  25.979  0.1871  0.2985  0.0179
36550W        W55297  28.706  14.547  24.310 -0.2228 -0.1820 -0.0502
36551W        W55298   4.236  30.334  20.886  0.3575  0.0360  0.3030
36552W        W55299   5.295  24.629   3.054  0.3438 -0.0617 -0.0246
36553W        W55300  32.421  12.705  21.109 -0.2526  0.0457 -0.0903
36554W        W55301  25.115  13.846  17.621 -0.0105 -0.1324 -0.0961
36555W        W55302   9.641  34.822   5.087  0.1457  0.3686 -0.1802
36556W        W55303  30.974  25.015  10.768  0.0449 -0.0086  0.1022
36557W        W55304  18.627   2.047   6.045 -0.1008 -0.0979 -0.0167
36558W        W55305   4.997  34.640  23.506 -0.2007 -0.1628  0.1078
36559W        W55306  32.492  34.992  22.979 -0.1360 -0.0215 -0.2036
36560W        W55307  25.623  25.502   0.161  0.0146  0.0398 -0.0055
36561W        W55308  12.915  31.995  24.203  0.2363 -0.2062  0.0062
36562W        W55309  10.631   1.831   7.654  0.1645  0.1052  0.2194
36563W        W55310  25.744  17.908  23.918  0.2346  0.1593 -0.0026
36564W        W55311  30.423  11.266  24.688  0.1520  0.1069 -0.0316
36565W        W55312   6.891   1.577   6.250  0.1998  0.0350  0.1374
36566W        W55313  12.929   0.884  22.726 -0.1193 -0.0160 -0.1273
36567W        W55314  12.200  34.282   2.341 -0.1643 -0.1675  0.1130
36568W        W55315  20.177  33.004   1.484 -0.0273 -0.3452  0.2062
36569W        W55316  31.632   5.102  19.391  0.0554  0.2958  0.5206
36570W        W55317  11.253   1.959  11.058  0.0719 -0.3204 -0.0101
36571W        W55318  20.061  17.473  25.645 -0.1039 -0.2608  0.0348
36572W        W55319  28.345   5.412  25.020  0.1759 -0.2250  0.2421
36573W        W55320  33.346  15.831  18.537 -0.2313  0.2521 -0.1985
36574W        W55321  24.906  23.708  22.832 -0.2671 -0.2005 -0.0349
36575W        W55322   6.014   5.405  25.489  0.0973  0.0334 -0.1287
36576W        W55323  26.277  31.027  24.528  0.1067 -0.0808 -0.2159
36577W        W55324  30.019  19.687   6.463 -0.1144  0.0322 -0.6378
36578W        W55325  21.316  28.865  16.390 -0.1657 -0.3517 -0.0955
36579W        W55326  31.251   7.789   1.675 -0.1129  0.0638  0.0774
36580W        W55327   9.098  19.946  21.431  0.3059 -0.0294 -0.0985
36581W        W55328  31.511  22.400  14.958 -0.0363 -0.1885 -0.1276
36582W        W55329  11.234   5.564  24.849 -0.2346  0.0115  0.0689
36583W        W55330   3.062  16.979  17.075  0.1945  0.1169 -0.3420
36584W        W55331  10.392  25.505  13.287 -0.3793  0.0629  0.0221
36585W        W55332   7.317  29.066  15.036  0.2617 -0.0812 -0.0145
36586W        W55333  19.218  31.566  22.754  0.1367  0.2855 -0.0292
36587W        W55334  24.616   1.490  12.147 -0.0519  0.1859  0.2454
36588W        W55335  33.212   8.574  14.613  0.0334  0.3037  0.1679
36589W        W55336  29.147   1.525  12.219  0.1153 -0.2156 -0.3305
36590W        W55337  25.754  31.185   5.417  0.0611  0.0745 -0.5498
36591W        W55338  31.667  24.412  11.592 -0.2240 -0.1612 -0.1391
36592W        W55339  28.753  18.365  25.670  0.0810 -0.3146  0.2162
36593W        W55340  34.067   4.426   7.002  0.1236  0.0698 -0.0698
36594W        W55341  35.104  22.401  11.195 -0.2152  0.3583 -0.1387
36595W        W55342   3.317   4.456  25.069 -0.2833  0.0303 -0.1830
36596W        W55343  33.915  25.850  23.080 -0.0257 -0.2582 -0.1726
36597W        W55344  29.352  15.128  14.866  0.0334 -0.1108  0.0484
36598W        W55345  32.467  27.387  18.398  0.2857  0.1113 -0.1228
36599W        W55346  14.707  28.202  12.133  0.0951  0.1130  0.1924
36600W        W55347  31.503   8.856  25.185 -0.2643  0.2496 -0.0354
36601W        W55348   8.109  30.130   9.316  0.1603 -0.0530 -0.2599
36602W        W55349  18.887   0.745  18.184  0.1216  0.0935  0.1403
36603W        W55350  11.573   7.810  14.590 -0.1827  0.0211 -0.1848
36604W        W55351   9.885  11.416  23.464 -0.3006  0.0349  0.0588
36605W        W55352  33.985   6.051  14.259 -0.1444  0.0468 -0.0705
36606W        W55353  11.945  32.827  13.347  0.0808 -0.1304 -0.1539
36607W        W55354  18.341   4.529  17.288  0.1902  0.2027 -0.0337
36608W        W55355  16.929   1.322  20.960  0.1260  0.1976 -0.0662
36609W        W55356  16.797   2.645   8.031 -0.2233 -0.0929 -0.1204
36610W        W55357  14.862  25.630   8.135 -0.1151 -0.0393 -0.1014
36611W        W55358  31.682   1.148   5.766 -0.1973  0.1058 -0.0981
36612W        W55359   3.713   0.833  24.811  0.1920  0.4387  0.1078
36613W        W55360   3.406  17.648   2.192 -0.3019  0.0039  0.1701
36614W        W55361  14.198  15.002  19.259  0.1333  0.1654 -0.1196
36615W        W55362  15.080   6.336  12.998 -0.3230 -0.5928 -0.0328
36616W        W55363  16.453  26.482  24.861  0.0245 -0.4042 -0.2542
36617W        W55364   2.703  34.231  10.169 -0.3355  0.0226 -0.1049
36618W        W55365   1.182  31.086  18.222 -0.1220  0.0749  0.2996
36619W        W55366   0.286   9.113  16.894 -0.1376 -0.0059  0.0551
36620W        W55367  33.642   2.332  13.660 -0.0898  0.2137  0.3599
36621W        W55368  26.857  10.267   9.903 -0.3678  0.1275 -0.0012
36622W        W55369  26.436  17.295  15.869 -0.0290  0.1456 -0.0990
36623W        W55370  13.675  16.407  13.762 -0.0231 -0.0673  0.4213
36624W        W55371  24.637  29.153  22.110 -0.1482 -0.2556 -0.0565
36625W        W55372   1.459  32.823  22.776 -0.0627  0.3338  0.0767
36626W        W55373   8.614  16.326   0.656 -0.1086  0.0872  0.1520
36627W        W55374   1.350  24.053  20.514  0.0170 -0.2959 -0.0245
36628W        W55375  28.112  28.019  11.289  0.1069  0.0359 -0.3368
36629W        W55376  28.296  17.337   8.755 -0.0627 -0.1172 -0.0819
36630W        W55377  10.878  23.992  12.730  0.4581 -0.1499 -0.0218
36631W        W55378  33.991  29.117   0.655 -0.0499 -0.1581  0.0075
36632W        W55379  32.047  20.548  14.803 -0.2670  0.0929  0.2554
36633W        W55380  13.483  31.965  25.560  0.2564  0.0812 -0.2064
36634W        W55381   6.427  23.904  21.485 -0.0605  0.0575 -0.3581
36635W        W55382  25.995   3.149  25.807  0.0180  0.1243 -0.0558
36636W        W55383  33.544  34.695  22.471 -0.0388  0.1774  0.1539
36637W        W55384   7.336  23.641   0.237 -0.0618 -0.2156  0.0038
36638W        W55385  14.120   2.164  22.407 -0.0133  0.1623 -0.1054
36639W        W55386  25.493  26.288  11.695 -0.3058  0.1714  0.2632
36640W        W55387  25.988  30.727  13.182  0.2160 -0.1834  0.1569
36641W        W55388   4.630  28.924  21.437  0.2076  0.0431 -0.1314
36642W        W55389   1.868  27.011  20.477 -0.0740  0.1125 -0.1217
36643W        W55390  26.628  15.182  12.514 -0.0314  0.3673  0.3565
36644W        W55391  23.419  12.933  12.638 -0.1473  0.1410 -0.0374
36645W        W55392  30.454  33.013  14.148  0.3137  0.0303  0.0673
36646W        W55393  14.194  16.403  25.205 -0.0686  0.0276 -0.2141
36647W        W55394  18.717   6.725  11.145 -0.0361  0.1003  0.0481
36648W        W55395  12.766   0.087   9.753  0.0020 -0.0217 -0.0211
36649W        W55396  14.903  15.938   9.017 -0.2104  0.1643 -0.2557
36650W        W55397  11.784  22.636  15.642 -0.2209  0.0940 -0.3147
36651W        W55398   6.283  13.533   7.439 -0.2704  0.1797  0.0385
36652W        W55399  14.078  25.580  15.124  0.0576  0.0969 -0.1238
36653W        W55400  32.433  14.306   6.635 -0.0567 -0.1889  0.0422
36654W        W55401   6.541  28.751  21.185  0.0544 -0.3353  0.0940
36655W        W55402  34.274  18.225  18.177  0.4125  0.2973 -0.0402
36656W        W55403  27.856  24.700   7.269 -0.0280 -0.0436  0.2956
36657W        W55404  12.587  22.031   2.329 -0.1629  0.0483 -0.1869
36658W        W55405  11.299  33.609   2.830  0.1514 -0.2106  0.0395
36659W        W55406  29.797  30.441  24.520 -0.1296  0.3454  0.0965
36660W        W55407  30.015  25.360  19.538  0.1853  0.4947  0.2073
36661W        W55408  32.005  29.823  20.507  0.1562  0.1202 -0.5010
36662W        W55409  14.828  12.296   0.667  0.2123 -0.0908 -0.0387
36663W        W55410  14.344   3.014  21.772  0.1674  0.2378  0.1721
36664W        W55411   9.836   1.435   5.746  0.0268 -0.2574  0.0109
36665W        W55412  30.861  10.834  11.857  0.1960 -0.1487 -0.0178
36666W        W55413  22.945  34.575  15.839  0.3141  0.1782 -0.0831
36667W        W55414  21.762   9.979  15.381  0.1385  0.2608  0.0847
36668W        W55415  24.181  16.964  26.102 -0.1482 -0.1287  0.3362
36669W        W55416   1.924  13.859  20.778  0.0053 -0.3614  0.1112
36670W        W55417  33.872  19.227   6.822  0.1275 -0.0627  0.1762
36671W        W55418  13.313   2.856  25.147  0.3808 -0.0555  0.0215
36672W        W55419  25.319   8.955  26.222 -0.1437  0.2002 -0.0672
36673W        W55420  29.560  35.161   2.654 -0.0497  0.3553  0.3738
36674W        W55421  30.316  34.397  15.142 -0.0304 -0.3155 -0.0735
36675W        W55422  10.457  30.020  17.003 -0.0611 -0.2569 -0.1414
36676W        W55423  16.917  34.800  24.801  0.0147  0.0823  0.2464
36677W        W55424  17.673  34.088  21.526 -0.1814  0.2705 -0.2561
36678W        W55425  34.215   9.278  21.573  0.1444 -0.0880 -0.1759
36679W        W55426  31.109  21.417  17.549 -0.1405 -0.0438 -0.1105
36680W        W55427  34.079  34.859  20.694 -0.0042 -0.2465 -0.0773
36681W        W55428  30.006  29.416  19.300 -0.0039  0.0494  0.0278
36682W        W55429  18.476   4.945   7.629  0.2552 -0.0649 -0.4644
36683W        W55430  18.353  27.777   6.462 -0.3376  0.0980  0.0203
36684W        W55431   7.235  20.527  10.985  0.1485 -0.2811 -0.0171
36685W        W55432  28.462  32.738  21.232 -0.2004 -0.0449  0.0362
36686W        W55433   9.988  22.307  11.000  0.1060  0.3279  0.2022
36687W        W55434  18.403  18.379   9.851 -0.2117 -0.4238  0.2361
36688W        W55435  16.962   9.292   7.116 -0.2361  0.2363 -0.0377
36689W        W55436  11.283   7.455   3.395 -0.4298 -0.0853  0.2072
36690W        W55437   0.156   5.961  15.555  0.0712 -0.1454  0.2594
36691W        W55438  13.236   3.661  23.085 -0.0288  0.0121  0.1210
36692W        W55439  24.287  32.338  16.688 -0.0805  0.2010 -0.0592
36693W        W55440  32.185  27.775  18.142  0.2427 -0.2919 -0.0541
36694W        W55441   6.117  22.998   3.624  0.0570 -0.1395 -0.0653
36695W        W55442  32.294   2.371   4.739  0.0528 -0.0384  0.2665
36696W        W55443  29.261  13.155   7.340  0.3411 -0.2658 -0.2174
36697W        W55444  16.730  31.100  22.235  0.1302 -0.2035  0.2020
36698W        W55445  22.395  17.456  26.003  0.0375  0.0365  0.0330
36699W        W55446  19.562  19.879  18.327  0.1114 -0.1678  0.1118
36700W        W55447  33.809   3.069   2.807 -0.1613  0.0039  0.0641
36701W        W55448   5.206   5.703   6.817  0.3207 -0.0623  0.3196
36702W        W55449  24.861  12.507   0.838  0.3875 -0.0726  0.1170
36703W        W55450  14.559  19.191   0.631  0.1311 -0.2819  0.1202
36704W        W55451   3.160  23.200  23.876 -0.2345  0.1520 -0.1156
36705W        W55452  18.546  13.442   7.990  0.0425  0.0015 -0.2413
36706W        W55453  10.654   6.680  23.473  0.0812  0.1039 -0.3973
36707W        W55454  22.736  30.124   5.528  0.1037  0.0947 -0.0561
36708W        W55455  10.552  30.763  25.376  0.2026  0.0969 -0.1628
36709W        W55456   9.295  23.784   1.108  0.2020 -0.3563 -0.3023
36710W        W55457   8.550  10.404   0.831 -0.1544  0.2384  0.1609
36711W        W55458   0.531   0.361  22.840  0.1530 -0.1101 -0.1795
36712W        W55459  22.401  24.572  16.251 -0.0499 -0.3107  0.2142
36713W        W55460  27.782  24.069  14.990 -0.1204 -0.0982 -0.0800
36714W        W55461  29.624  35.323   1.620 -0.4420  0.1780  0.0784
36715W        W55462   6.854   6.772  24.945  0.0614 -0.2118 -0.1461
36716W        W55463  19.850   4.108  23.010  0.2208 -0.1403 -0.0155
36717W        W55464   8.851   4.498   4.911 -0.0943  0.0885 -0.0484
36718W        W55465   7.600  13.645  23.709  0.1836 -0.2093  0.1872
36719W        W55466   7.883  34.266  25.214  0.2363  0.2786 -0.3985
36720W        W55467  14.904  25.948   3.357  0.3517  0.1324  0.1736
36721W        W55468  23.180   3.509  15.450  0.0004 -0.1167 -0.1812
36722W        W55469  30.342  21.427  25.502 -0.2255 -0.0756  0.0989
36723W        W55470   8.862   2.919   6.808 -0.2601 -0.0944  0.0254
36724W        W55471  33.519  20.796  17.198 -0.0113  0.2265  0.1016
36725W        W55472  31.962  22.409  13.877 -0.2142  0.0179  0.2827
36726W        W55473   1.486  29.784  20.652 -0.1006 -0.0874  0.2898
36727W        W55474  27.560   7.657  23.210  0.1978 -0.0893  0.0944
36728W        W55475   7.755   9.421  25.884  0.0953 -0.0287 -0.2468
36729W        W55476  12.008  23.789   8.084 -0.2701 -0.0629 -0.0132
36730W        W55477   5.652  14.423   6.426 -0.4183  0.4327  0.5233
36731W        W55478  23.479  22.198  12.625 -0.2246 -0.3384 -0.0430
36732W        W55479  16.032   1.476   7.107  0.2187 -0.0102  0.0509
36733W        W55480  18.272   4.541  24.655 -0.1658  0.1294  0.0136
36734W        W55481  17.555  34.045  19.455 -0.0177 -0.1636  0.0756
36735W        W55482  12.809  21.236  25.160  0.2108 -0.0006  0.6303
36736W        W55483  23.373  12.199   1.626  0.2174 -0.1659  0.0575
36737W        W55484   5.425  11.381   8.362  0.2167  0.1038 -0.0307
36738W        W55485  27.488  11.257  15.961 -0.0003 -0.1538  0.0052
36739W        W55486  15.157  31.190  26.101  0.2225  0.2063 -0.2722
36740W        W55487   5.721  30.068  24.143 -0.0976  0.2590 -0.1719
36741W        W55488   6.737  25.568  23.506 -0.0337  0.0000 -0.1665
36742W        W55489  33.301  15.133   9.901  0.1853  0.0186 -0.1348
36743W        W55490  13.674  32.412  24.599  0.1252 -0.1591 -0.0563
36744W        W55491  34.921  15.259  11.285 -0.2404  0.1170  0.2936
36745W        W55492   6.962   2.528   0.100 -0.0429  0.3220 -0.0163
36746W        W55493  20.141  17.712   8.345  0.3914 -0.3314 -0.0403
36747W        W55494   3.293   9.016  16.975 -0.1943 -0.6336 -0.0841
36748W        W55495  12.135  27.159   9.087  0.0143 -0.2450  0.3791
36749W        W55496  32.752  10.637   1.051  0.1172  0.1448 -0.0429
36750W        W55497  14.855  32.980  24.354 -0.2005  0.3613  0.0511
36751W        W55498  35.051  20.640   9.833 -0.0905  0.1951 -0.2544
36752W        W55499  21.790   5.183   0.882 -0.0283  0.1439 -0.0906
36753W        W55500   8.772   4.496  23.521 -0.1754 -0.3739 -0.0291
36754W        W55501  30.504  34.735  12.532  0.1178 -0.0920 -0.2320
36755W        W55502   0.227  29.548   5.109 -0.1170  0.1984 -0.0288
36756W        W55503  18.266  20.608   1.706 -0.0623  0.1914 -0.0808
36757W        W55504  19.337  34.400  22.083  0.2748 -0.0801 -0.2614
36758W        W55505  19.046   3.144   9.681 -0.0515  0.1107 -0.2360
36759W        W55506  13.648  26.702  23.610  0.3504  0.1255 -0.1234
36760W        W55507  27.918   2.836  16.698  0.0053  0.2991 -0.0715
36761W        W55508   5.309  14.908  16.393 -0.0681  0.2491 -0.0959
36762W        W55509  28.434   3.808  13.970  0.0894 -0.4509 -0.0952
36763W        W55510   7.215  25.340   6.207 -0.2949 -0.4796  0.0163
36764W        W55511   8.913  15.006  25.319 -0.1903 -0.0700  0.1926
36765W        W55512  24.907  13.351  12.641 -0.1549 -0.1463  0.2524
36766W        W55513  20.948   5.595   9.901 -0.2111 -0.2692  0.0933
36767W        W55514  29.828  19.411   9.128 -0.3128  0.0424  0.0025
36768W        W55515   1.904   0.596   7.313 -0.0373  0.0803 -0.0380
36769W        W55516   9.922  19.365   2.742  0.0538  0.1282 -0.2930
36770W        W55517  27.244  32.984  12.807 -0.0887 -0.0442  0.1391
36771W        W55518  35.096  12.750  16.606 -0.3866  0.0971 -0.1357
36772W        W55519   1.093  28.682   7.869 -0.2272 -0.2020  0.1064
36773W        W55520  19.325  10.069  18.138  0.1313 -0.1311 -0.1903
36774W        W55521  14.012  16.099  24.768  0.1973  0.0141  0.0277
36775W        W55522   0.402  11.320  14.982 -0.0476  0.3030 -0.0068
36776W        W55523  18.079  13.702  19.482  0.2462  0.0530 -0.1636
36777W        W55524   6.482   9.590   6.103  0.2170  0.1120 -0.0734
36778W        W55525  11.939   3.601  24.350 -0.2513 -0.0559 -0.0058
36779W        W55526  17.935  31.610   9.653 -0.0739 -0.2469  0.3036
36780W        W55527   3.918  12.775   5.171 -0.1416  0.0235 -0.2153
36781W        W55528   2.748   2.266   2.651  0.4255 -0.0032  0.0442
36782W        W55529  14.866   7.255   7.714  0.1419 -0.2014 -0.2595
36783W        W55530  10.562  14.849   3.718 -0.2538  0.1420  0.0263
36784W        W55531  34.209   9.356  22.903 -0.1180 -0.2771 -0.0082
36785W        W55532  29.975   1.877  20.934  0.1241  0.3910  0.1793
36786W        W55533  29.700  24.997  19.415 -0.1385  0.2181 -0.3798
36787W        W55534  20.592   4.232   1.136  0.1695  0.1141  0.1665
36788W        W55535  35.378  23.675  15.449  0.1843  0.2326  0.3786
36789W        W55536  31.044   6.224   3.293  0.1839 -0.0023  0.0472
36790W        W55537  13.133   3.979  19.502 -0.1665 -0.0092 -0.0970
36791W        W55538   6.562   9.172  10.047  0.1126  0.1280 -0.2062
36792W        W55539   1.567  30.268  20.441 -0.2819 -0.0403 -0.1970
36793W        W55540  26.517  19.598  20.613 -0.3279 -0.0074  0.1126
36794W        W55541  10.026  23.535  16.231 -0.1423  0.0521 -0.0200
36795W        W55542   5.154  15.366  18.922 -0.0852 -0.0303  0.0105
36796W        W55543  31.801  25.332   0.687 -0.2275  0.1064  0.0240
36797W        W55544  25.977  16.464  12.424 -0.2651 -0.0260  0.3405
36798W        W55545  10.340  20.587  16.309 -0.1879 -0.2384 -0.1256
36799W        W55546  24.548  31.175  21.252  0.0263  0.1522 -0.0257
36800W        W55547   7.665  13.189   5.402  0.0492 -0.0181  0.1071
36801W        W55548  25.579  20.077  21.832 -0.2895 -0.0128 -0.0066
36802W        W55549   7.088  11.814  10.363 -0.3319 -0.1299  0.1347
36803W        W55550  24.241  12.348  22.738  0.1685  0.2022 -0.2597
36804W        W55551  25.066  26.638  17.668  0.1324 -0.0912  0.2693
36805W        W55552  19.482   5.741   7.573 -0.2337  0.2359 -0.4440
36806W        W55553   1.195  21.979   1.560 -0.2715 -0.1604  0.0164
36807W        W55554  18.937  30.153  19.361 -0.0123 -0.1928 -0.2173
36808W        W55555  32.556   3.629  20.382  0.1522 -0.1232  0.1352
36809W        W55556  24.206  18.990  14.731 -0.0445 -0.2970 -0.2417
36810W        W55557  23.817  24.341   2.312  0.3259  0.1766  0.0934
36811W        W55558  29.333  23.907   9.337 -0.1365  0.1730  0.1153
36812W        W55559  35.342  30.669  26.055 -0.0747 -0.2184  0.2923
36813W        W55560  26.684  10.041  23.672 -0.2207 -0.0366  0.5048
36814W        W55561  23.689  22.466   2.136  0.0611 -0.0013 -0.0363
36815W        W55562  24.285  16.779  10.845 -0.0601 -0.3509  0.0031
36816W        W55563   4.295  29.688   4.806  0.0067 -0.0071 -0.3689
36817W        W55564   9.093  16.046  23.320  0.1897 -0.0274 -0.2275
36818W        W55565  11.589  18.171  22.578  0.2744  0.1116 -0.1721
36819W        W55566  15.672   3.803  21.309 -0.1505 -0.0855 -0.5002
36820W        W55567  17.762   7.914  24.631  0.1976 -0.1323  0.0059
36821W        W55568  17.607   6.238   2.846  0.0179 -0.0125  0.0861
36822W        W55569  31.216   3.817  11.685 -0.2627  0.1185  0.1573
36823W        W55570  15.688  12.788  13.841 -0.2228  0.0285  0.1406
36824W        W55571  16.395  18.284   5.759 -0.1824 -0.1520 -0.1039
36825W        W55572  20.778  34.919   2.268 -0.1218  0.0557  0.1338
36826W        W55573  15.280  35.128  25.000 -0.0316 -0.2001  0.0799
36827W        W55574  28.955   6.122  21.688  0.0322 -0.0172  0.1199
36828W        W55575  20.182   8.000  19.712  0.1938  0.1104 -0.0749
36829W        W55576  29.462   2.275  14.544 -0.2430 -0.0089 -0.0226
36830W        W55577  27.882   5.867   2.907  0.1158 -0.0136  0.2008
36831W        W55578   0.102  11.793  24.878 -0.0746 -0.2761  0.3378
36832W        W55579  33.193  14.609   7.281  0.1816 -0.3252 -0.3459
36833W        W55580  26.473  34.988   2.712  0.1640 -0.1705  0.1723
36834W        W55581  26.217  24.345   0.687 -0.2139 -0.1889 -0.1529
36835W        W55582  33.651  29.601  12.371 -0.0662  0.0362 -0.2656
36836W        W55583  31.487  15.040  10.806 -0.1785  0.0240  0.1433
36837W        W55584   8.810  12.095  11.244 -0.1462  0.0234 -0.1450
36838W        W55585  14.973  25.277   6.132 -0.2774  0.2058  0.3195
36839W        W55586  20.627  22.649   7.642 -0.3731 -0.1866  0.0241
36840W        W55587  22.905  34.200   7.146 -0.1604  0.0822  0.0020
36841W        W55588   2.108  34.418  21.138  0.2216  0.0291 -0.2750
36842W        W55589   8.631  17.210  21.835  0.1071 -0.1752 -0.0255
36843W        W55590   5.286  21.434  23.525  0.2186 -0.1769 -0.1166
36844W        W55591  21.534   6.799  19.178  0.0832 -0.0286  0.1478
36845W        W55592  31.741  27.037   0.284 -0.3180  0.0531  0.0600
36846W        W55593  34.607  25.206  11.626  0.1944  0.2370  0.0162
36847W        W55594   9.125  27.467  11.825  0.1501  0.2935 -0.0788
36848W        W55595  27.796  14.040  12.523 -0.0929 -0.4339 -0.3553
36849W        W55596  27.437  25.151  10.890 -0.0434 -0.0819 -0.0728
36850W        W55597   4.214  20.204  20.077 -0.1097 -0.0677 -0.0639
36851W        W55598  22.371  22.124  24.771  0.2044 -0.0565 -0.1178
36852W        W55599  20.632  14.531  24.358  0.0534  0.0648  0.0847
36853W        W55600   4.768  14.528  20.092  0.0258 -0.1175  0.0883
36854W        W55601  30.632  25.262  16.163 -0.0217  0.1334 -0.0485
36855W        W55602   2.254   7.343  22.971  0.0652 -0.2463  0.0431
36856W        W55603  18.220  28.631   9.050  0.1822  0.1348 -0.0174
36857W        W55604  15.205  25.596   2.074 -0.1970 -0.2745  0.0097
36858W        W55605  13.817   4.559  25.087 -0.2648 -0.1894  0.2305
36859W        W55606  27.066  27.495   9.763 -0.3109  0.2593 -0.2053
36860W        W55607   1.501  18.677  23.945 -0.3101  0.1068 -0.1265
36861W        W55608  31.529  10.402   7.869 -0.0051  0.1370 -0.0092
36862W        W55609   8.780  10.740  20.847  0.2034  0.1164 -0.0611
36863W        W55610   2.608  22.784  18.578  0.1379 -0.3888  0.2207
36864W        W55611  22.299   0.552  21.678  0.0736 -0.0372  0.2479
36865W        W55612  32.902  30.737   4.716  0.2233 -0.3924  0.4473
36866W        W55613   3.957  13.819  21.699  0.0217 -0.0764 -0.2292
36867W        W55614  26.266   4.880  12.257 -0.0939 -0.0885 -0.1874
36868W        W55615   4.297  27.874   1.193  0.1786 -0.1446  0.1859
36869W        W55616  20.054   3.979   8.571 -0.0868  0.1421 -0.1875
36870W        W55617  34.513  17.761   6.174 -0.0177  0.1270 -0.1793
36871W        W55618  30.800  16.753  26.029  0.3841  0.2033 -0.2166
36872W        W55619  28.650   6.915  22.261  0.0340 -0.1471 -0.3190
36873W        W55620  22.158  29.889  13.547 -0.2491  0.1911  0.0106
36874W        W55621  28.493   5.796  14.537 -0.1247  0.0685 -0.1558
36875W        W55622  25.721  22.254  19.865 -0.1627 -0.0681 -0.0314
36876W        W55623  32.194  16.744  12.245  0.0985  0.0300  0.2783
36877W        W55624  21.972  11.378   4.934 -0.2626  0.2077  0.3320
36878W        W55625  29.332  20.775  22.763  0.0310  0.0076  0.1244
36879W        W55626  11.455  11.972  22.074  0.0462  0.0528 -0.3024
36880W        W55627  25.197   6.441  16.765 -0.4446  0.0364 -0.0252
36881W        W55628   3.309  31.305  23.570  0.2005  0.3743 -0.0852
36882W        W55629  17.938  19.570  12.704 -0.2418  0.0609 -0.0803
36883W        W55630  30.639   1.350   2.601 -0.0427 -0.1763  0.1312
36884W        W55631  24.854  26.777  10.146  0.1783  0.0179  0.0398
36885W        W55632  32.689  30.096   0.469 -0.2290 -0.0044 -0.3358
36886W        W55633  31.235  10.417   8.365 -0.1706 -0.0674 -0.0217
36887W        W55634   7.371  19.803  24.495 -0.1925  0.1526  0.3199
36888W        W55635  22.577  11.928  22.952 -0.0800  0.1568  0.0923
36889W        W55636  26.419  11.621  23.021  0.0152 -0.3409  0.1634
36890W        W55637  33.538   8.287  25.843 -0.1083 -0.0974 -0.1820
36891W        W55638  28.619   4.945  24.385  0.1076  0.0570 -0.1271
36892W        W55639  16.516  15.205  19.527  0.0364 -0.1299 -0.0917
36893W        W55640  31.712  15.475  18.397 -0.3246 -0.2960 -0.1575
36894W        W55641   0.244   0.336   0.441 -0.0235  0.0613  0.2158
36895W        W55642  28.972   8.731   9.138  0.3211  0.1450 -0.0867
36896W        W55643   3.739   3.691   7.856  0.1392  0.2024  0.0300
36897W        W55644  22.471  13.640  15.354 -0.0797 -0.0286  0.0982
36898W        W55645  23.295   1.073  25.552  0.3539 -0.0546 -0.0031
36899W        W55646  10.835  18.641  21.918 -0.1355  0.0071 -0.0905
36900W        W55647  35.093  14.949  19.528  0.1622  0.2138  0.1446
36901W        W55648  16.795  25.415   0.224 -0.1841  0.1707  0.2218
36902W        W55649   2.247   7.669  14.014 -0.0818 -0.1263 -0.0785
36903W        W55650  23.868   7.532  25.067  0.0250  0.0721 -0.3755
36904W        W55651  26.111  10.231  16.093  0.3112  0.2937  0.0045
36905W        W55652   7.466   2.016  22.729  0.3810 -0.0400  0.0011
36906W        W55653  10.364   3.839  13.923 -0.1021 -0.1409  0.2138
36907W        W55654  26.762   7.933  21.027 -0.4104  0.0323 -0.0943
36908W        W55655  25.353   5.843  12.636 -0.2834  0.3834  0.1036
36909W        W55656  12.962   2.998  19.593  0.0659 -0.2483  0.1810
36910W        W55657  22.183   9.123   0.970  0.2430 -0.0353 -0.0824
36911W        W55658   6.801  26.866   0.408 -0.1510 -0.1122  0.0713
36912W        W55659   9.205  10.243   6.019 -0.0005  0.0423 -0.3688
36913W        W55660  11.121   5.789   5.197 -0.2726 -0.1801  0.1135
36914W        W55661  25.125  25.534  22.727 -0.0735 -0.0185 -0.1827
36915W        W55662   4.850   8.888   3.404  0.1431 -0.1913 -0.3504
36916W        W55663  16.156  28.231  12.928  0.0941 -0.1073  0.3549
36917W        W55664   2.597  21.439  20.381  0.0195 -0.1282 -0.1560
36918W        W55665   0.554  20.754   9.321 -0.1205 -0.1824 -0.1108
36919W        W55666  33.243  17.328  23.971 -0.4920  0.1145  0.1014
36920W        W55667  10.073  29.265  25.063  0.2568 -0.2248 -0.1604
36921W        W55668  18.447  23.502  25.637 -0.0352 -0.0353  0.0119
36922W        W55669   3.740  15.630   1.610  0.4074  0.1578 -0.1718
36923W        W55670  26.856  17.031  11.271 -0.1925 -0.0753 -0.0854
36924W        W55671  16.318  21.227  10.772  0.1258  0.0468  0.0612
36925W        W55672  33.298  23.505  17.127  0.1619 -0.0711  0.1611
36926W        W55673  23.165  21.220  23.314 -0.2408 -0.5400  0.0247
36927W        W55674   7.228  22.554   1.037  0.0858 -0.1491  0.0467
36928W        W55675  17.593  27.669   0.780 -0.0814  0.0449 -0.0609
36929W        W55676  14.881  34.344   8.631  0.3647 -0.5249 -0.1425
36930W        W55677   5.722   5.877   8.527  0.0639  0.4596  0.1103
36931W        W55678  32.607  24.040  18.334 -0.0600 -0.1758 -0.1516
36932W        W55679  32.428  34.650   2.569 -0.1583 -0.0537 -0.0811
36933W        W55680  34.655  22.754  22.372 -0.1245 -0.0805  0.3249
36934W        W55681  22.436  10.370  22.358 -0.2877  0.1964  0.0857
36935W        W55682  12.977   9.204   2.172  0.1345  0.0437 -0.3400
36936W        W55683   5.070   9.754   1.326 -0.1121  0.1900 -0.0373
36937W        W55684  32.968   2.999   4.852  0.0466  0.0566 -0.2148
36938W        W55685  23.100  23.447  14.569  0.1928  0.0624  0.0335
36939W        W55686   8.869   0.657   2.097  0.0485  0.0238  0.0979
36940W        W55687   9.810  28.122   4.185 -0.1244 -0.2340  0.2347
36941W        W55688  31.364  20.201  15.306 -0.1028  0.0274  0.0172
36942W        W55689  28.239  35.128   2.931  0.0450 -0.1276  0.0052
36943W        W55690  26.685  18.885  11.916 -0.1757 -0.0823 -0.0805
36944W        W55691  22.730  28.141   5.080  0.1491  0.0487  0.1813
36945W        W55692   4.591  26.688   0.605  0.3238  0.0419  0.0320
36946W        W55693  34.377  29.394  19.563  0.0664  0.0697 -0.0597
36947W        W55694  28.903   8.155  12.908 -0.2774 -0.1798 -0.3330
36948W        W55695  25.301  21.803  24.585 -0.0962  0.2233  0.3723
36949W        W55696   8.536  16.326  23.957  0.3922  0.0953  0.0577
36950W        W55697   4.016  25.519  22.358  0.5123  0.3902 -0.1099
36951W        W55698   8.705  21.050  10.161 -0.0417 -0.2157  0.2246
36952W        W55699  12.418  17.315   2.638 -0.0036 -0.0282 -0.1375
36953W        W55700  29.810  29.630  14.315  0.2105  0.5133 -0.0001
36954W        W55701  29.371   4.478  19.415 -0.3853  0.0793 -0.0241
36955W        W55702  22.922  25.563  17.033  0.0941 -0.3270  0.0626
36956W        W55703  35.186  30.258   2.102 -0.1345  0.0442 -0.0401
36957W        W55704  10.261  24.831  17.497 -0.0405  0.0831  0.1671
36958W        W55705  30.836  29.762  17.682 -0.2127 -0.0237  0.1442
36959W        W55706  26.700  12.003  17.246 -0.1289  0.0093  0.1561
36960W        W55707   4.507   1.194   4.357 -0.1603 -0.3086 -0.0287
36961W        W55708   5.462  19.806  25.510 -0.0449  0.1059  0.1556
36962W        W55709   3.183  10.508  15.893 -0.0337 -0.4262  0.0369
36963W        W55710  17.596  20.955   3.662 -0.1025  0.0810  0.1993
36964W        W55711  11.696   8.180  12.305 -0.0230  0.0481 -0.0073
36965W        W55712  26.960  35.286  24.782 -0.2571  0.1143 -0.0286
36966W        W55713  15.609   0.635   4.907  0.2387 -0.0015 -0.0750
36967W        W55714   8.604  13.833   7.627  0.1469  0.1522 -0.2182
36968W        W55715  29.187  32.533  16.969  0.0148 -0.1053  0.1626
36969W        W55716  34.081  24.969  24.036 -0.1368  0.0708  0.0313
36970W        W55717  32.681   5.124  17.458  0.1717 -0.1809  0.0649
36971W        W55718   0.123  31.621  18.446 -0.1438  0.1609  0.0364
36972W        W55719  33.590  27.221  16.287 -0.0450 -0.1026 -0.2720
36973W        W55720  29.408   3.571  22.719  0.0646  0.0246  0.2333
36974W        W55721  24.901  30.358  19.497 -0.1323  0.1563 -0.1610
36975W        W55722  23.964  29.016   2.913 -0.2572 -0.1086 -0.1821
36976W        W55723  20.832   6.924  16.671  0.1805 -0.2197 -0.0792
36977W        W55724  15.726  31.786   9.305  0.0779 -0.2682  0.1472
36978W        W55725   6.269  23.983   1.518 -0.0535 -0.1291  0.1518
36979W        W55726  21.521  21.133  16.908 -0.1591  0.2151  0.3002
36980W        W55727  33.469  10.300  22.349 -0.0316  0.0767 -0.2038
36981W        W55728  16.340   3.181   9.378 -0.1702  0.0765 -0.1570
36982W        W55729  30.764  23.850  22.505 -0.0769 -0.1272 -0.1823
36983W        W55730  14.419   7.548  25.496  0.4158 -0.0468  0.3191
36984W        W55731  35.317  25.302  25.097 -0.1851 -0.1002  0.0862
36985W        W55732  23.458  10.322  13.566 -0.4083  0.1640 -0.0760
36986W        W55733   0.381  27.321   1.891  0.3504 -0.3541  0.1529
36987W        W55734  27.257  32.228  24.516 -0.2822  0.4157 -0.1493
36988W        W55735  19.605   8.474   0.951  0.0026 -0.1262  0.0964
36989W        W55736  15.553   2.425   3.348  0.1394 -0.0278 -0.1109
36990W        W55737   8.354   1.148  25.634 -0.0342  0.1514 -0.1653
36991W        W55738  29.911  25.733   0.855  0.2605 -0.0240  0.2723
36992W        W55739  10.023   5.333  12.429 -0.3789  0.0167 -0.2074
36993W        W55740  20.218  11.149   6.052 -0.1113 -0.0846  0.0023
36994W        W55741   3.701   2.269   7.662 -0.2367 -0.0462 -0.0462
36995W        W55742   5.855  18.467  18.718 -0.0729 -0.3288 -0.1264
36996W        W55743  10.651  34.999   9.586  0.0893  0.2590  0.3154
36997W        W55744  30.959  30.539  12.084  0.1836  0.2465 -0.3856
36998W        W55745   2.685  10.067  14.624 -0.0401 -0.0522 -0.2176
36999W        W55746  23.066   8.529   0.245 -0.0191  0.3269 -0.1873
37000W        W55747  34.401  30.222   7.022  0.1132 -0.0361  0.1630
37001W        W55748  30.567  17.457   6.972  0.1005  0.1805  0.0285
37002W        W55749   0.812  24.753  20.060 -0.0381 -0.2144  0.3220
37003W        W55750  13.773  11.010   6.820 -0.0431  0.0531  0.0864
37004W        W55751  23.511  18.495  13.553  0.0079  0.2077  0.1389
37005W        W55752  12.549   5.223  22.586  0.1922 -0.2193  0.0448
37006W        W55753  22.296  18.974   1.654 -0.2351  0.0176 -0.0077
37007W        W55754  12.112  28.473  15.713  0.1052 -0.4972 -0.1866
37008W        W55755   8.596  33.394   8.426  0.0598  0.0643  0.0234
37009W        W55756  18.973  22.760  22.936 -0.1624  0.1375 -0.0680
37010W        W55757  18.368  13.833   8.465  0.3549  0.0904 -0.1274
37011W        W55758   8.976   0.486  23.764  0.1835 -0.0981  0.2547
37012W        W55759  23.355  16.644  17.567 -0.2822 -0.2451 -0.1340
37013W        W55760  18.627  26.021   1.240 -0.0390  0.1678  0.4256
37014W        W55761   2.035  22.096  19.126  0.1336  0.1661  0.0197
37015W        W55762   2.545   6.803   1.652 -0.1007 -0.0143 -0.3320
37016W        W55763  12.321  14.343  24.837  0.1589 -0.0760 -0.0999
37017W        W55764  18.517  35.351   2.393  0.1991  0.2407  0.0312
37018W        W55765  34.226  18.660  22.889 -0.0714 -0.2367  0.0557
37019W        W55766  22.687  21.890  20.036 -0.0500  0.0444 -0.3866
37020W        W55767  14.491  33.113  12.893 -0.0125  0.0840  0.0804
37021W        W55768  30.862  13.381  17.625 -0.2049 -0.0570 -0.0212
37022W        W55769  11.235  13.283  23.317 -0.2960  0.0951 -0.0668
37023W        W55770   6.985  17.395  20.604  0.2942  0.1826  0.0840
37024W        W55771  12.289  17.794  10.436  0.0060  0.0932 -0.2910
37025W        W55772  22.540   4.428   3.991  0.1242  0.1016  0.1140
37026W        W55773  15.184  26.833  22.871  0.0789 -0.0985  0.1501
37027W        W55774  34.498  27.941  17.833  0.2375 -0.1218  0.1112
37028W        W55775  32.003  27.206  15.479  0.0491  0.2431 -0.1451
37029W        W55776  18.221   6.558   7.432  0.2474  0.2637 -0.0988
37030W        W55777  28.700  15.530  24.282 -0.0785  0.2632 -0.0075
37031W        W55778  31.879   0.635  17.748  0.2162 -0.0064 -0.0438
37032W        W55779  26.586  22.982   7.378  0.1612  0.0734 -0.2139
37033W        W55780   9.006  29.513   6.548 -0.1147  0.1998 -0.0447
37034W        W55781  18.191  15.329  12.551 -0.4028  0.1345 -0.2797
37035W        W55782  23.767  30.486  13.226 -0.2107 -0.0247  0.3116
37036W        W55783  24.204  31.322  23.852  0.2928 -0.2604 -0.0036
37037W        W55784  21.598  33.318  20.389  0.2148  0.0223  0.2891
37038W        W55785  31.293  17.363  11.963 -0.0531  0.2188 -0.1913
37039W        W55786  13.479   2.747  20.690  0.0578  0.3546 -0.0225
37040W        W55787  25.377  28.549   4.535  0.2221 -0.0669 -0.1255
37041W        W55788  15.430  10.825  11.618  0.2983 -0.4070 -0.1768
37042W        W55789   4.351   2.572  18.877 -0.0194  0.1278  0.0689
37043W        W55790  13.864  23.298  14.564  0.0896 -0.0136 -0.1429
37044W        W55791  19.774  10.551   7.827  0.1803 -0.0306  0.3933
37045W        W55792   4.334   2.999   9.443 -0.1677  0.0182  0.3558
37046W        W55793  12.776  11.029  19.906  0.1870  0.2030  0.2171
37047W        W55794  34.424  19.166   0.172 -0.0011 -0.2304 -0.0124
37048W        W55795   7.219  30.257   6.333  0.2423 -0.0022  0.1636
37049W        W55796  21.949  11.497  22.821 -0.0399  0.2584  0.1311
37050W        W55797  25.022   1.638  11.208 -0.2512  0.2757 -0.2418
37051W        W55798  33.539   8.863  22.228  0.0853  0.1103  0.1284
37052W        W55799  29.496  15.289   6.507 -0.0912 -0.2986  0.0179
37053W        W55800  11.175  12.074   0.598  0.1610 -0.1088 -0.0819
37054W        W55801   9.328   0.479   8.786 -0.1562 -0.0479  0.2629
37055W        W55802  27.979   1.734   5.012  0.2063 -0.3605  0.1340
37056W        W55803   2.132   6.528  17.828  0.1101  0.1319  0.2451
37057W        W55804  16.215  23.294  11.679 -0.3868 -0.0012  0.0328
37058W        W55805  18.480  13.520  22.501  0.2448 -0.3202 -0.0205
37059W        W55806  34.943   9.444   1.794  0.0100 -0.1971 -0.1281
37060W        W55807  28.910  22.099   7.252  0.1088 -0.2304 -0.1086
37061W        W55808   4.984  33.774  20.167 -0.1028 -0.1063  0.0468
37062W        W55809  14.439   3.486  11.688  0.0078  0.2801 -0.0106
37063W        W55810   5.050  12.863  17.613  0.0074 -0.2869 -0.0135
37064W        W55811  11.929  32.088  26.138 -0.1702 -0.2752  0.1970
37065W        W55812   3.561  28.295  24.340  0.1278 -0.0930 -0.1169
37066W        W55813   9.318  27.703  10.591  0.1290 -0.0301 -0.1168
37067W        W55814  11.455  23.283   6.677  0.1890  0.3575 -0.1897
37068W        W55815  33.564  32.822  24.101  0.0766 -0.1601 -0.0235
37069W        W55816  27.534  28.750  20.071  0.0174 -0.0065  0.0772
37070W        W55817  32.705  11.524  24.998  0.0497 -0.0294  0.0491
37071W        W55818  28.290  24.475  13.824  0.0214  0.0438 -0.3731
37072W        W55819   9.562  14.389   4.214 -0.3920  0.2224  0.1348
37073W        W55820  33.134  13.231   0.307  0.1441  0.1986 -0.3234
37074W        W55821   8.574  14.807   1.823 -0.1333  0.2346 -0.1405
37075W        W55822  29.118   7.819   8.280  0.0808 -0.0567 -0.1755
37076W        W55823  19.376  28.371   6.018 -0.2499  0.2619 -0.3393
37077W        W55824   5.574   8.136   1.271  0.0775  0.1054 -0.1238
37078W        W55825  15.411  17.779   2.869  0.4459 -0.0483  0.2034
37079W        W55826   5.142  12.600   8.268  0.3037 -0.1550  0.0790
37080W        W55827   3.062  30.344   1.614 -0.0016 -0.3542  0.0540
37081W        W55828  17.872   4.463  19.727  0.1179 -0.3533  0.0503
37082W        W55829   4.476   6.021  22.065  0.0323 -0.3526  0.0286
37083W        W55830   2.250  11.295   3.061 -0.2047 -0.3743 -0.1884
37084W        W55831  34.332  20.534   8.227  0.1211 -0.3991 -0.2688
37085W        W55832  11.787   9.352   0.405  0.1841 -0.0271 -0.4122
37086W        W55833  11.749  30.185  24.325  0.0773 -0.1351  0.1701
37087W        W55834  31.621  17.630   4.746  0.2303  0.0618 -0.2337
37088W        W55835  29.728  27.987  25.462  0.0986 -0.0356 -0.0960
37089W        W55836  24.601  23.053   1.398  0.0737  0.3245 -0.2347
37090W        W55837   5.179  25.404   9.282  0.0130  0.0039 -0.3128
37091W        W55838  21.235   2.067  18.032 -0.2126 -0.0138  0.3520
37092W        W55839   8.112  15.413  21.451  0.4034 -0.0197  0.1741
37093W        W55840  12.820   1.059  20.101  0.0343 -0.2679 -0.0983
37094W        W55841  14.613   2.600  11.488 -0.1299 -0.0942 -0.0122
37095W        W55842   0.237  33.256  22.625  0.1320 -0.0062  0.2042
37096W        W55843  11.101   2.945  24.141  0.1083  0.0235 -0.0461
37097W        W55844   2.262  23.506  26.072  0.0879 -0.5786  0.0396
37098W        W55845  14.140  23.391  11.610  0.0416  0.1175  0.0489
37099W        W55846   0.939  31.693   4.479 -0.2669  0.3176  0.2032
37100W        W55847  27.781   2.061   0.100  0.0744  0.0080  0.0926
37101W        W55848  32.292  19.172  19.414  0.2422 -0.1830  0.0409
37102W        W55849   3.724  33.751  19.871 -0.4097  0.0597  0.1417
37103W        W55850   5.111   1.722   7.044 -0.0129  0.0211  0.1695
37104W        W55851  14.983  26.235  15.116 -0.1294  0.2649 -0.0820
37105W        W55852  20.828   7.926   4.606  0.0844  0.0719  0.3123
37106W        W55853   5.606   5.754  21.877 -0.0116 -0.0483 -0.0624
37107W        W55854  23.817  34.179  24.896  0.1480  0.1906 -0.1261
37108W        W55855  18.107  13.520   6.539 -0.0285 -0.0952  0.1900
37109W        W55856   2.581   1.186  19.439  0.0280 -0.0355 -0.1311
37110W        W55857   1.804  18.372   1.978  0.0218 -0.3143 -0.0545
37111W        W55858   6.458   1.033  22.675 -0.0102  0.1821 -0.1717
37112W        W55859  29.731   5.372  15.496 -0.2574 -0.4542 -0.1439
37113W        W55860  14.847  26.606  14.601  0.1121 -0.4109  0.2812
37114W        W55861  26.066  14.553   9.624 -0.2793  0.1802  0.0706
37115W        W55862  19.649  17.338  20.027  0.2677 -0.2018 -0.0764
37116W        W55863  12.255  28.007  16.516  0.0119  0.0848  0.1268
37117W        W55864  26.742   4.732  23.238 -0.0788 -0.1005 -0.0167
37118W        W55865  10.815   1.788  22.785  0.1644  0.1292  0.0861
37119W        W55866  25.678   4.232  12.388  0.0313  0.3920 -0.1761
37120W        W55867  12.566  30.671   0.141  0.0732  0.0938 -0.0980
37121W        W55868   7.429  18.022   6.843 -0.1777 -0.2550 -0.2005
37122W        W55869   3.222   2.978   0.856 -0.2367  0.0133  0.0910
37123W        W55870   3.424  34.979  10.219 -0.1162  0.0504  0.2735
37124W        W55871   4.792  14.202  16.855  0.1284 -0.1090  0.1676
37125W        W55872   3.623  34.712   9.008  0.1439  0.0350 -0.0852
37126W        W55873  15.747  30.049  24.239 -0.4408  0.0558  0.3029
37127W        W55874  34.214  25.792  14.156  0.2101  0.1635 -0.1153
37128W        W55875   9.875  23.780  17.707 -0.1958  0.1030  0.0872
37129W        W55876  10.876   5.805  23.544  0.3681 -0.2677 -0.2850
37130W        W55877  23.941   1.377   6.001  0.1555  0.1086 -0.1728
37131W        W55878   1.255  30.499   0.515  0.0399 -0.4566 -0.1421
37132W        W55879  13.916   1.312  22.842  0.1804  0.0029  0.0701
37133W        W55880   1.898   1.902   6.150 -0.1904 -0.1920  0.0908
37134W        W55881  16.711  14.082  21.343 -0.1937 -0.1739  0.0834
37135W        W55882   5.418   2.672  23.920 -0.2103 -0.0046  0.2316
37136W        W55883   6.966   4.033  21.513 -0.4876 -0.0925  0.0436
37137W        W55884  11.696   3.366   0.571 -0.1494  0.3565 -0.0562
37138W        W55885  31.037   0.768  23.069 -0.0697  0.0335  0.1161
37139W        W55886  19.341  26.436   5.209  0.2991 -0.0760 -0.0790
37140W        W55887   8.862  34.632   6.004  0.0558 -0.0961 -0.1273
37141W        W55888  17.062  29.306   7.759 -0.0328  0.1403  0.2279
37142W        W55889  26.031   7.720  17.490  0.0971  0.1244 -0.1927
37143W        W55890  24.340  34.368   1.478  0.1846  0.1903  0.0513
37144W        W55891  12.293   8.034  11.063 -0.0299 -0.0844  0.1593
37145W        W55892   4.746   0.452  20.772 -0.1128 -0.2810 -0.1616
37146W        W55893  16.685   3.206   1.957  0.0196  0.0980  0.1581
37147W        W55894  34.620  18.877  22.141 -0.2485 -0.2020 -0.1333
37148W        W55895   4.985  30.078   2.815 -0.0785 -0.0053 -0.0479
37149W        W55896   3.202  11.635   0.930  0.2657 -0.0023  0.0279
37150W        W55897  17.631  31.252   7.423  0.0849 -0.0572  0.0149
37151W        W55898  31.281  33.647   5.935 -0.2322  0.2574 -0.1331
37152W        W55899  17.970  25.481   3.139  0.2103 -0.1163  0.1796
37153W        W55900  21.514  32.912  12.961  0.4176  0.0467  0.1870
37154W        W55901  29.941  28.276  12.705  0.3079 -0.1690  0.1411
37155W        W55902  24.664   7.429  25.512 -0.2320  0.1708  0.0780
37156W        W55903  29.539  21.959  19.397 -0.1464  0.0610 -0.0233
37157W        W55904  34.555   6.741   6.233  0.2750 -0.1595 -0.0334
37158W        W55905  26.598   6.479  23.971 -0.0372 -0.1998 -0.0710
37159W        W55906  11.362   5.188   1.877  0.2279  0.1370 -0.0183
37160W        W55907  19.857  27.728   1.159  0.2551  0.3748 -0.0166
37161W        W55908   1.899   4.117  24.455  0.1609  0.0827 -0.1593
37162W        W55909  19.860   8.146   0.072  0.1949 -0.0614 -0.0703
37163W        W55910   1.297   0.449  20.726 -0.2669 -0.0537  0.0733
37164W        W55911  16.351   7.306  12.821  0.4118 -0.0560  0.0856
37165W        W55912  26.597   4.581  23.758 -0.5005 -0.1464  0.0355
37166W        W55913  18.201   6.695   1.666 -0.0475  0.4170  0.1649
37167W        W55914   1.201  14.443  12.152  0.1250 -0.3376 -0.1016
37168W        W55915  24.276  27.597  22.944  0.2460 -0.1785 -0.0163
37169W        W55916  12.494  21.609   6.289  0.0423 -0.0619  0.0703
37170W        W55917  27.443  30.353  20.787 -0.0399  0.1420 -0.1421
37171W        W55918   0.413  32.822   0.511 -0.1512  0.0133 -0.0864
37172W        W55919  19.844  19.523   1.004 -0.2104  0.0313  0.1117
37173W        W55920  34.536  25.976  25.101  0.5301 -0.0330 -0.1766
37174W        W55921  17.494  12.667  25.844  0.1720  0.1212 -0.2264
37175W        W55922   8.632  29.168  15.712  0.1066 -0.0436  0.0192
37176W        W55923   1.569  23.133  21.056  0.0585 -0.1493 -0.0372
37177W        W55924  34.586  13.567  23.945 -0.0028  0.0916 -0.0612
37178W        W55925  10.528  32.318   6.914 -0.1966  0.2294  0.0247
37179W        W55926  18.699   9.992   4.876 -0.2519  0.1005  0.2063
37180W        W55927  24.828  30.298  14.453  0.0405  0.1718 -0.0342
37181W        W55928  31.638  26.486  22.136 -0.1134 -0.3981  0.2523
37182W        W55929  15.330   6.130  19.568 -0.2153 -0.0376 -0.3566
37183W        W55930  30.281  14.363  21.361  0.1439  0.0493 -0.0154
37184W        W55931  17.977  34.665   3.612 -0.3051  0.2090 -0.0535
37185W        W55932   8.707  29.723  24.590  0.1402  0.0992  0.1250
37186W        W55933   6.591  11.591   4.138 -0.2051 -0.0699  0.3966
37187W        W55934  10.058  11.951   8.227  0.0375 -0.4359  0.2128
37188W        W55935  17.849  30.716  17.432 -0.1763  0.1417 -0.1110
37189W        W55936  13.741   4.401   4.093 -0.0373  0.1783 -0.0928
37190W        W55937  26.990  18.794  20.771 -0.0880  0.0741 -0.1778
37191W        W55938  10.556  15.781  24.881 -0.0599  0.0486  0.1031
37192W        W55939  30.840  25.388   7.807  0.0639  0.3687 -0.3164
37193W        W55940   5.979  14.050   2.096 -0.1330 -0.1245  0.2029
37194W        W55941  13.459  10.999   4.938 -0.1595 -0.1704 -0.0564
37195W        W55942   9.150   8.434   9.959  0.0972 -0.6922 -0.3022
37196W        W55943  16.805   5.154   7.400  0.0975  0.0882  0.0942
37197W        W55944  27.664  15.126   6.547 -0.0844 -0.0050  0.0584
37198W        W55945  23.567  27.115   2.751 -0.0073  0.1487 -0.2300
37199W        W55946   8.719  32.375  16.400  0.2546  0.3558 -0.0311
37200W        W55947  22.940  22.991  17.764  0.1420  0.2485  0.1638
37201W        W55948  22.061  31.020  14.527  0.0891 -0.0795 -0.2445
37202W        W55949   1.474  20.458  12.741 -0.0690 -0.1132  0.0802
37203W        W55950  16.375  24.783   1.045 -0.0264  0.1592 -0.1835
37204W        W55951  19.931  19.305   5.106 -0.2069  0.2084  0.0767
37205W        W55952  24.486  33.021  12.030 -0.0164 -0.1707 -0.1013
37206W        W55953   0.559  23.826   1.055  0.2999  0.1280 -0.1082
37207W        W55954  12.692  28.656   7.299 -0.0466 -0.1947  0.4733
37208W        W55955  20.695   6.638  20.659  0.0860 -0.0716  0.4142
37209W        W55956  12.969   7.216   4.146  0.2719  0.1163  0.0215
37210W        W55957   7.916  18.453   4.197 -0.0503  0.4535  0.0027
37211W        W55958   3.614  34.099   4.300 -0.3359  0.0407  0.1624
37212W        W55959   4.846   2.492   2.866  0.0937 -0.1480  0.1304
37213W        W55960  17.670  32.636  19.845  0.2580 -0.1737 -0.2770
37214W        W55961  28.738  21.606  15.931  0.0293  0.0234 -0.0034
37215W        W55962   8.989  25.966   5.913 -0.0444  0.0618  0.1498
37216W        W55963   3.902  30.875  23.045 -0.2464 -0.1140  0.0728
37217W        W55964  19.932  12.876   0.569 -0.5065  0.1485  0.0023
37218W        W55965   8.026  33.867   7.693 -0.1833  0.1244  0.2327
37219W        W55966   8.038  27.234   8.572  0.1629  0.1042  0.0317
37220W        W55967  12.628  22.615   1.292  0.1828 -0.0691 -0.1206
37221W        W55968   7.001  16.573  22.648  0.0750  0.2954 -0.3060
37222W        W55969   2.248   4.462  23.396  0.1605  0.0880  0.1013
37223W        W55970   0.482  10.801  10.707 -0.0769  0.2656 -0.2638
37224W        W55971   3.042  19.446  18.786 -0.2584 -0.0238 -0.2353
37225W        W55972  17.637  26.383   0.322  0.3637 -0.1307  0.0142
37226W        W55973   6.817   9.411  21.408  0.3594  0.1943  0.3228
37227W        W55974  17.561   0.794  23.246 -0.0239 -0.4998  0.1230
37228W        W55975  15.620  14.552  10.613 -0.0983  0.1812 -0.1604
37229W        W55976  24.081  13.862   1.196 -0.1512  0.1027  0.0614
37230W        W55977  15.219  12.463  20.750  0.1033 -0.0083  0.1510
37231W        W55978  26.768  23.305  16.251 -0.0664  0.0952 -0.0999
37232W        W55979  22.975  11.831  23.564 -0.1148  0.1027  0.0136
37233W        W55980  12.744  34.980  25.323 -0.0790  0.2209 -0.3670
37234W        W55981  29.972  34.030   4.714  0.1144  0.0731  0.2606
37235W        W55982  30.828   1.164   4.295 -0.0037 -0.2847 -0.1489
37236W        W55983   8.529  32.176   2.218  0.0213  0.4060  0.1138
37237W        W55984   1.063   0.329  17.714 -0.2331  0.0940  0.0165
37238W        W55985  25.258  22.535  16.963 -0.1395 -0.2868  0.1332
37239W        W55986  32.947  20.434  11.152 -0.4257  0.0542 -0.1639
37240W        W55987  10.652   0.364   6.799 -0.1431 -0.0039  0.0140
37241W        W55988  35.248  33.819   9.187 -0.1027  0.1808 -0.1357
37242W        W55989  26.439  34.227  11.958 -0.1750  0.0565  0.0766
37243W        W55990  11.783  17.129  25.767  0.0266 -0.2766 -0.1501
37244W        W55991   9.183  21.248   3.036 -0.0948 -0.2217 -0.0247
37245W        W55992  15.836  32.050  25.996 -0.1617 -0.0076 -0.1128
37246W        W55993  14.844   2.789  18.094  0.4485  0.1041 -0.0109
37247W        W55994   2.107   9.828  23.630  0.1074 -0.1686  0.0713
37248W        W55995  27.710   9.386   0.739  0.0933  0.3542 -0.2931
37249W        W55996   5.906  12.811  17.176  0.0863 -0.2571 -0.0295
37250W        W55997  19.185  11.213  24.425 -0.1452 -0.1111 -0.2110
37251W        W55998  23.771  33.150   0.565  0.1934  0.1766 -0.0226
37252W        W55999   9.602  34.065  12.660  0.1005  0.1383  0.3544
37253W        W56000  24.562  30.658  21.421 -0.1326 -0.2543 -0.0243
37254W        W56001  24.840  18.484  20.999  0.1316 -0.1950 -0.2042
37255W        W56002  11.478   4.760  19.143 -0.1847  0.1352 -0.0609
37256W        W56003   0.211  11.051  24.124 -0.2038  0.1413  0.2321
37257W        W56004   4.972  14.150   3.665  0.1000 -0.1050  0.0016
37258W        W56005   0.824   2.036  17.360 -0.2623  0.0534 -0.1281
37259W        W56006   6.455  30.718  14.442  0.2347 -0.1570  0.1725
37260W        W56007  10.596  24.723   6.644  0.0535  0.0897 -0.0972
37261W        W56008  29.873   4.651  24.559 -0.0732 -0.0183  0.2305
37262W        W56009  19.162  25.698  24.518  0.4003  0.0455  0.0863
37263W        W56010  23.034  25.219   1.673  0.3222  0.1340  0.3958
37264W        W56011  13.299  14.460  21.468 -0.0109 -0.0869 -0.1064
37265W        W56012  15.057   2.241   4.397  0.0872 -0.0106 -0.1955
37266W        W56013  17.143  21.793   4.369 -0.1255  0.1030  0.3104
37267W        W56014  30.380  15.879  25.745  0.0496  0.3478 -0.0081
37268W        W56015   2.810   9.191  21.946 -0.0832  0.0892  0.1086
37269W        W56016  30.587  11.555  19.937 -0.0575 -0.1505 -0.0946
37270W        W56017  26.925  17.160   7.327  0.0580  0.1025 -0.0674
37271W        W56018  14.129  22.812  14.727 -0.1206 -0.1243 -0.4089
37272W        W56019   6.303   4.473   0.666 -0.0410  0.0523  0.1112
37273W        W56020  20.743   7.265  18.146  0.2432 -0.0311  0.4456
37274W        W56021  27.387  14.654  12.707 -0.2325  0.0487  0.2767
37275W        W56022   7.633  12.933  18.033  0.3585  0.3482  0.0736
37276W        W56023  14.517  28.576   0.615 -0.0992 -0.3736 -0.1606
37277W        W56024  31.134  25.295  22.496 -0.2337  0.0704  0.0817
37278W        W56025  10.875   9.955  10.456  0.2104  0.0047  0.1267
37279W        W56026   2.219   6.349  22.721 -0.0657 -0.1838 -0.1884
37280W        W56027  15.463  19.705   6.900  0.2933  0.1560  0.4344
37281W        W56028  19.221   7.070   0.704 -0.0868  0.2724  0.4978
37282W        W56029  32.910  15.264  17.171 -0.3538  0.4318  0.1463
37283W        W56030  12.899   0.588   6.915  0.1977 -0.1653  0.1081
37284W        W56031  14.187  11.055   8.747 -0.1937  0.0448  0.1561
37285W        W56032  14.639   8.560  21.954 -0.1615  0.4521 -0.0447
37286W        W56033   6.415  33.360   9.246 -0.0216  0.0658  0.1162
37287W        W56034  18.637  11.880   2.240  0.2444 -0.0544  0.3190
37288W        W56035  15.707   0.419   9.888  0.2972  0.0665 -0.0275
37289W        W56036  32.674   4.193   5.382 -0.5958 -0.2455  0.1756
37290W        W56037  22.673   0.262  21.447  0.0674  0.0279  0.1362
37291W        W56038   1.254  15.712  23.115  0.4839 -0.0918 -0.0083
37292W        W56039  22.852   8.987  22.419 -0.1901 -0.1763 -0.0270
37293W        W56040   0.006  15.671  17.635 -0.1683  0.0161  0.1548
37294W        W56041  21.402  16.445  21.720  0.2171 -0.1800  0.1044
37295W        W56042   2.739  14.022  17.783 -0.2747 -0.0239  0.2984
37296W        W56043  25.772  18.426  21.069 -0.0405 -0.0187  0.0877
37297W        W56044  12.552   5.825   5.166 -0.1181 -0.1928  0.0775
37298W        W56045  31.755   0.396  20.396 -0.1959  0.2896 -0.0441
37299W        W56046  35.172  29.823  14.814  0.1309  0.1889  0.3077
37300W        W56047  29.792  23.721   7.788 -0.3042  0.0333 -0.0531
37301W        W56048   0.779  35.060   4.967 -0.3999 -0.3172  0.0067
37302W        W56049  27.895  29.187  20.322 -0.3368 -0.1719 -0.1311
37303W        W56050  31.624  26.818  13.604  0.3707 -0.0021 -0.0830
37304W        W56051  28.064   4.466  14.443  0.0862  0.2157  0.2997
37305W        W56052  14.362   5.183  18.647  0.3830  0.4541 -0.0533
37306W        W56053  25.061  22.365  23.236  0.0943  0.0878 -0.1062
37307W        W56054  29.741  35.018  18.953 -0.3870 -0.0351  0.1773
37308W        W56055  26.948   3.585  25.440 -0.4683 -0.1754 -0.1375
37309W        W56056  24.302   4.158  14.631  0.3198 -0.0861  0.1621
37310W        W56057  19.302   4.844  23.198  0.1184  0.0718 -0.1794
37311W        W56058  17.518  28.120   3.402 -0.0915  0.2384 -0.0074
37312W        W56059  24.529   1.865  14.956  0.0798 -0.4866 -0.2924
37313W        W56060  23.336   8.115   4.400  0.0882  0.0557 -0.2035
37314W        W56061  34.920  18.690  10.856  0.2877  0.1533  0.2019
37315W        W56062  13.245  26.193  12.719 -0.3235  0.0258  0.1587
37316W        W56063  13.919   1.132   3.705  0.0904  0.0788 -0.1102
37317W        W56064  25.851  21.663  18.527  0.0014 -0.3268  0.0278
37318W        W56065   9.612  13.897   1.029 -0.1966  0.2832 -0.0099
37319W        W56066  22.982   3.626  19.493  0.2959 -0.1490  0.1132
37320W        W56067  26.297  10.584  19.641 -0.0943 -0.2696 -0.1340
37321W        W56068  15.596   1.660  19.305  0.1426  0.5902 -0.2491
37322W        W56069   8.856  25.257  14.307 -0.2477 -0.0424 -0.2979
37323W        W56070   1.115   1.605   9.233  0.0720  0.0816 -0.0821
37324W        W56071  33.886  31.511   4.988  0.2473 -0.1429  0.0747
37325W        W56072  19.885   5.491   4.802 -0.2154 -0.2271  0.0706
37326W        W56073  16.791   0.580   5.679  0.2967  0.0071  0.0724
37327W        W56074   3.200  22.958   0.650  0.0103 -0.1286 -0.2471
37328W        W56075  12.263  30.804   7.352  0.1518  0.2138 -0.1326
37329W        W56076  22.536  28.731  23.788  0.1941 -0.3021  0.1658
37330W        W56077  15.334  17.350  22.002 -0.2063 -0.0450  0.2180
37331W        W56078  11.805  27.642  23.255 -0.1004  0.0632  0.2132
37332W        W56079   9.853  19.027   8.816 -0.0474  0.1701  0.2489
37333W        W56080  34.017  27.859  18.312 -0.2258 -0.1324  0.0595
37334W        W56081  28.854  21.934   8.984 -0.5301 -0.0256 -0.3709
37335W        W56082  26.576  24.303  23.026  0.2165 -0.0329 -0.0026
37336W        W56083  23.862  23.481  22.128  0.1788 -0.1421 -0.0191
37337W        W56084   5.694  10.524   0.901  0.0723  0.0199 -0.0222
37338W        W56085  18.094  33.928   5.841  0.0818  0.0066  0.1885
37339W        W56086  27.960  18.275  14.781 -0.1024 -0.1205 -0.0448
37340W        W56087  26.907   2.021  16.296 -0.1762  0.0586 -0.3397
37341W        W56088  14.422  13.079  12.904  0.1124 -0.0466 -0.6722
37342W        W56089  10.656  14.269   3.127 -0.0290  0.2122 -0.0004
37343W        W56090  20.253  29.962   7.615  0.2708 -0.0993  0.0614
37344W        W56091  30.917   9.294  10.493  0.1902  0.4135  0.2324
37345W        W56092  17.580  24.446   7.398 -0.1194 -0.0026 -0.1490
37346W        W56093  11.199  31.024   5.286  0.3178  0.1664  0.1827
37347W        W56094   4.880  32.889  23.908  0.0525 -0.1096  0.1563
37348W        W56095  30.231  12.995  23.610  0.1328  0.3096  0.2022
37349W        W56096  27.159  19.201  15.475  0.2218 -0.0786  0.2148
37350W        W56097  28.761  23.410  11.247 -0.3973 -0.1414 -0.0144
37351W        W56098  33.647  13.565  23.690 -0.0138 -0.1999  0.0072
37352W        W56099   5.496  21.305   2.885 -0.1107  0.2021  0.1251
37353W        W56100  27.222   2.528  13.450 -0.5592 -0.0364  0.1415
37354W        W56101  27.946  23.069  19.945  0.0708 -0.0696 -0.1496
37355W        W56102   5.369   8.882  23.989 -0.0050 -0.1340  0.0607
37356W        W56103  28.755  34.870  20.295  0.0054 -0.0388 -0.3072
37357W        W56104  18.890  33.164   1.351 -0.0535  0.2135 -0.1153
37358W        W56105  33.228   0.592  25.443  0.0257 -0.0842  0.2278
37359W        W56106  25.515   6.519  16.371 -0.3575  0.1971 -0.1820
37360W        W56107  25.185  16.487  17.430 -0.0526 -0.1497  0.3025
37361W        W56108   4.952  27.971  26.109  0.2223 -0.0410 -0.0680
37362W        W56109  30.043  15.302  17.853 -0.0116 -0.1429 -0.0076
37363W        W56110   9.138   5.760   7.833 -0.0112  0.1848  0.2277
37364W        W56111   7.825  20.650   7.590  0.2132  0.1482  0.0466
37365W        W56112   1.959  22.194  13.677 -0.3857  0.1206 -0.1373
37366W        W56113  31.801  10.427  14.886 -0.0377  0.2979  0.0951
37367W        W56114  19.577   8.111   4.782  0.3218  0.3203 -0.1972
37368W        W56115  21.614   3.890  22.639  0.1780  0.1385 -0.0650
37369W        W56116  25.529   5.315   4.043  0.1077 -0.3144 -0.1850
37370W        W56117   3.418  14.320  17.536  0.0038  0.1517  0.1209
37371W        W56118  33.815   1.770  22.097 -0.4972 -0.3641 -0.1799
37372W        W56119  26.085   9.604  25.885  0.2683  0.0599 -0.0247
37373W        W56120  21.620  28.194   5.019  0.3849  0.0899 -0.3432
37374W        W56121   2.636  21.656   1.161 -0.1790  0.1388 -0.1757
37375W        W56122  14.382   5.555  19.320 -0.2833 -0.0914  0.1448
37376W        W56123  29.344  14.108   6.343 -0.1258  0.0209 -0.0982
37377W        W56124  11.896   2.190  10.098  0.0472 -0.1401 -0.0847
37378W        W56125   8.313   1.432   8.464  0.2690  0.0776 -0.2727
37379W        W56126   4.640   3.746   0.920  0.1850  0.1530  0.3018
37380W        W56127   9.367   9.863   3.738  0.3000  0.3629  0.0516
37381W        W56128  30.596  26.071  11.839  0.0193 -0.1754  0.1049
37382W        W56129   6.825  25.388  25.136  0.0221  0.0567  0.1341
37383W        W56130  20.099  10.187  25.128  0.0829 -0.1157  0.1716
37384W        W56131  11.378   1.517   7.276 -0.2541  0.1263 -0.1660
37385W        W56132   8.215  11.685   3.219  0.0814 -0.1849 -0.2789
37386W        W56133  13.994   7.334   1.395  0.0969  0.2951  0.0812
37387W        W56134  27.735  30.555  13.212  0.2495  0.3507 -0.1601
37388W        W56135  25.880  32.508  23.204  0.1370  0.3371 -0.1712
37389W        W56136  26.900   5.659  21.170  0.6544  0.1728  0.0904
37390W        W56137  15.259   7.091  22.583 -0.0428 -0.2579 -0.0884
37391W        W56138  29.162  23.973  18.704  0.0224 -0.1396 -0.1491
37392W        W56139  25.847   5.739  12.748 -0.1806 -0.2459 -0.1273
37393W        W56140  27.481  22.606  24.302 -0.1655  0.2893 -0.0779
37394W        W56141   2.285  19.876  25.048  0.2463 -0.1083 -0.0367
37395W        W56142  33.879  27.810  15.200 -0.1807  0.0153 -0.0896
37396W        W56143  17.280  19.676  10.693 -0.1083 -0.1453  0.1676
37397W        W56144  20.127  20.796   9.624 -0.0619 -0.2691 -0.1940
37398W        W56145  10.161  31.230  16.549 -0.1672  0.1589  0.0961
37399W        W56146  27.816  21.342  13.986 -0.0959 -0.5067  0.2149
37400W        W56147  16.653  30.943   7.386 -0.1432 -0.0109 -0.4330
37401W        W56148   7.050  30.555   7.782  0.0376  0.4515  0.2488
37402W        W56149   3.672  15.166  17.295 -0.3402 -0.0359 -0.1032
37403W        W56150  33.556  11.773   9.093  0.0214  0.1766 -0.3731
37404W        W56151  18.068  21.024  11.116 -0.1231 -0.1376 -0.0937
37405W        W56152  33.418   2.211  20.164 -0.2025  0.2030 -0.3087
37406W        W56153  19.830  12.141  20.893  0.2471 -0.2781  0.0049
37407W        W56154  25.326   0.319   4.826 -0.3344  0.0293  0.3052
37408W        W56155  16.876  16.884  20.807  0.2665 -0.0903  0.1265
37409W        W56156  19.675  30.999   2.952 -0.1611  0.0552 -0.0874
37410W        W56157   9.560  28.212  10.673 -0.1216  0.4635  0.1801
37411W        W56158   8.559  17.305   2.658  0.1775 -0.2186  0.0439
37412W        W56159   5.822  28.523  12.514  0.0281  0.2293 -0.1167
37413W        W56160  27.750   3.608  25.897  0.1779 -0.2050  0.3232
37414W        W56161  12.279  32.683   8.113 -0.0031 -0.3279  0.0175
37415W        W56162   7.250   5.314   8.560  0.0391  0.1339  0.1967
37416W        W56163   5.741  34.888   1.457  0.1034  0.0001 -0.0220
37417W        W56164  22.230   9.887  19.842  0.3468  0.0213 -0.1685
37418W        W56165  28.546  22.425   8.330  0.2568  0.0406 -0.2515
37419W        W56166  12.979  28.303  25.083 -0.0161  0.1511 -0.3218
37420W        W56167   8.282  27.152  11.162 -0.0520  0.3147  0.2100
37421W        W56168  27.185  28.071  15.494  0.2418  0.0863 -0.1395
37422W        W56169  32.335  17.619  24.321  0.0235 -0.1875  0.1028
37423W        W56170  30.493  10.429  10.675  0.1387 -0.0957  0.2396
37424W        W56171  11.119  10.985   2.967 -0.0439 -0.1199 -0.0629
37425W        W56172  25.944   0.065  15.312 -0.1084  0.1313 -0.0119
37426W        W56173  29.379  30.572  13.663  0.4292 -0.1215  0.0795
37427W        W56174   5.969  10.791  20.056 -0.0273  0.1496 -0.1647
37428W        W56175  18.270  14.129   7.366  0.1662  0.1020 -0.0996
37429W        W56176  19.048  20.113   7.825  0.1436 -0.1197  0.0450
37430W        W56177  24.244  17.929  24.705 -0.1515  0.0275  0.3369
37431W        W56178  21.225  11.348   0.253 -0.3179 -0.1105 -0.0398
37432W        W56179  34.417  19.639  18.295  0.0176 -0.4519 -0.3046
37433W        W56180  25.934  16.822  25.243  0.1781 -0.1843 -0.2037
37434W        W56181  14.955  24.738   1.601  0.0887 -0.2410 -0.0588
37435W        W56182  23.072  19.897  26.013 -0.3061 -0.0591  0.0443
37436W        W56183  22.464  17.620  22.053  0.0067 -0.0838 -0.0865
37437W        W56184  30.486   2.050  13.659 -0.2719  0.4232  0.0211
37438W        W56185  25.633  34.504  25.155  0.6412 -0.0567  0.1965
37439W        W56186  33.213   2.640  14.260 -0.1362  0.0645  0.2572
37440W        W56187   7.711  18.080  22.214 -0.0924  0.0619 -0.2053
37441W        W56188   9.977  13.780   4.315 -0.2256 -0.1446  0.0184
37442W        W56189  10.039  12.878   0.191 -0.0034 -0.0623  0.0709
37443W        W56190  35.067  16.189  10.486  0.4537 -0.1357 -0.0025
37444W        W56191  13.110  25.581  23.288  0.2759  0.0850  0.0287
37445W        W56192  25.617  20.608  13.983  0.0838 -0.1151  0.1770
37446W        W56193  11.471   8.735   4.399  0.3786 -0.1808  0.1244
37447W        W56194  15.418  21.538   4.357  0.2214 -0.3096 -0.1732
37448W        W56195   2.624  31.212   4.746 -0.1671 -0.0254 -0.0258
37449W        W56196  26.101   0.275  11.787 -0.2131 -0.0688  0.0275
37450W        W56197  20.781  33.886   0.574 -0.2840 -0.2335  0.0678
37451W        W56198  25.512   2.663  10.758 -0.1171  0.0564 -0.1530
37452W        W56199  14.519  32.344  22.297  0.1435  0.0415  0.4211
37453W        W56200  24.075  25.394  16.454 -0.0031  0.0708 -0.2669
37454W        W56201   7.653  26.618   8.435 -0.0231  0.1227 -0.2912
37455W        W56202  15.056  12.387  20.263  0.2769  0.2593 -0.1453
37456W        W56203  11.739  16.699   0.271 -0.2360  0.1738 -0.1579
37457W        W56204  15.311  11.977   2.528 -0.0879 -0.2265  0.2519
37458W        W56205  19.966  34.644  17.482 -0.0220 -0.3284  0.0378
37459W        W56206  12.610  27.119  13.415 -0.0386 -0.3887 -0.0741
37460W        W56207   9.412  26.641   3.837  0.1466  0.3158 -0.1596
37461W        W56208   6.801   4.394  11.287 -0.1913  0.1751 -0.0989
37462W        W56209   0.527  16.383  22.437 -0.0939 -0.2273  0.3685
37463W        W56210  32.098  16.181  23.530  0.1487 -0.1992  0.1117
37464W        W56211  29.740  15.546  13.780 -0.1595 -0.1293  0.0087
37465W        W56212   0.704  33.291  17.339 -0.0347  0.1767 -0.0947
37466W        W56213  17.013   7.991  13.492  0.2224  0.1873  0.1755
37467W        W56214  24.263  32.975  18.533 -0.1565 -0.0458 -0.2687
37468W        W56215  16.637  18.844  13.645  0.0655 -0.1515 -0.0241
37469W        W56216   9.924  33.880  23.857  0.1395 -0.1450  0.0897
37470W        W56217  32.670  24.049  20.607  0.0057  0.2702 -0.1988
37471W        W56218  30.859   5.146  16.273 -0.0154 -0.0710 -0.0246
37472W        W56219  31.861  13.500  10.684  0.3272  0.3607  0.0330
37473W        W56220  26.653   1.370  17.488  0.1518 -0.1319 -0.2987
37474W        W56221  28.153  26.104  13.987 -0.0143  0.0451 -0.1687
37475W        W56222  24.671  23.432  17.474  0.1014 -0.1635 -0.0449
37476W        W56223  30.950   3.189  24.298  0.0355  0.2264 -0.0804
37477W        W56224  35.057  24.923  17.171 -0.0033 -0.1530 -0.0500
37478W        W56225  10.352  31.748  24.419 -0.4294 -0.0315 -0.1743
37479W        W56226  28.897  29.071   0.506  0.1735  0.0297  0.5479
37480W        W56227  29.057  23.639  22.071 -0.0434  0.2407 -0.2824
37481W        W56228  10.409  13.040  13.654  0.3443  0.0942  0.2744
37482W        W56229  25.100  30.404   2.157 -0.1402  0.0391 -0.0065
37483W        W56230  27.839  17.198  10.811 -0.0803 -0.1422  0.2480
37484W        W56231  11.208  11.273  24.718  0.0363 -0.0119 -0.2083
37485W        W56232  14.817   8.196   7.983 -0.0187  0.3294 -0.0965
37486W        W56233   1.707  13.908  20.251  0.1123  0.2829 -0.0779
37487W        W56234  10.672  28.752   9.252 -0.3071  0.0127 -0.0219
37488W        W56235  17.888  14.630   7.338 -0.4032  0.3298 -0.3014
37489W        W56236  29.338   7.048  20.668 -0.0070 -0.1557  0.1630
37490W        W56237  22.435  11.438  25.037  0.0696  0.1516  0.0187
37491W        W56238  10.775  12.023  10.944  0.1630 -0.0775  0.1230
37492W        W56239  20.292  34.282   1.327  0.1466 -0.1079 -0.2852
37493W        W56240  23.381  17.905  23.315  0.0934  0.0517 -0.1290
37494W        W56241  26.609  20.450  13.395  0.0287 -0.1432  0.4307
37495W        W56242  19.703  21.283   6.843 -0.1003  0.0199  0.0182
37496W        W56243  33.968  25.431  20.678  0.3168 -0.0943 -0.0603
37497W        W56244  10.268  12.065  25.393  0.1605  0.0294 -0.1208
37498W        W56245  32.370  31.795   3.942 -0.2633 -0.0625  0.4192
37499W        W56246   8.305   5.950   5.097 -0.0036  0.1629  0.0804
37500W        W56247   3.402  35.352  19.700  0.2090 -0.2415 -0.1134
37501W        W56248   7.210  26.582  24.162 -0.0181 -0.1006  0.3429
37502W        W56249  23.159  10.804  20.239  0.4253 -0.0339  0.0161
37503W        W56250  27.924  28.453  17.955  0.0777  0.3097  0.2469
37504W        W56251   1.340  25.210   4.312 -0.2319  0.0619  0.0370
37505W        W56252  19.998   0.161   2.289  0.1006 -0.2064 -0.0148
37506W        W56253  15.859  35.339  20.619 -0.0991 -0.0682 -0.1032
37507W        W56254  16.919  33.698  20.295 -0.1614  0.0759  0.1074
37508W        W56255  18.530   2.337   0.308  0.1598 -0.1369 -0.0507
37509W        W56256  12.178  26.534  24.851 -0.0006 -0.0604  0.0983
37510W        W56257  20.506  24.321  22.222 -0.2986  0.0015  0.2716
37511W        W56258  25.395  34.677  17.455 -0.1160 -0.1595 -0.0015
37512W        W56259   9.616  34.383  14.802 -0.1932 -0.4023 -0.0479
37513W        W56260  34.253   3.367   5.999 -0.4175  0.0408 -0.0991
37514W        W56261  16.388   9.891   8.402  0.3114  0.1629 -0.1784
37515W        W56262  10.249  21.249   7.479 -0.1116  0.1444 -0.1000
37516W        W56263  20.621  16.939  17.023 -0.0997 -0.0925  0.1141
37517W        W56264   6.772   1.647   0.303  0.1581  0.1936 -0.0644
37518W        W56265   0.048  22.084  12.751  0.1563 -0.1078 -0.3410
37519W        W56266  31.383  27.827  24.439 -0.0673  0.4350 -0.0556
37520W        W56267  30.775  14.781  25.295  0.0722  0.1618 -0.1305
37521W        W56268  35.176  18.692  23.087 -0.3095  0.1354  0.0927
37522W        W56269   2.856  19.355  14.310 -0.0520  0.0363  0.1091
37523W        W56270  14.371  31.995   3.874  0.0575 -0.0896  0.2144
37524W        W56271  11.249  34.447  12.052  0.3220  0.1017 -0.1336
37525W        W56272  19.205   5.556  19.510  0.1150 -0.2412  0.3502
37526W        W56273   2.177  29.829  10.092 -0.3097 -0.1680 -0.0498
37527W        W56274   6.271  29.210   6.472 -0.1413  0.2904  0.0413
37528W        W56275  15.649  20.788   6.586 -0.0473  0.1197  0.0507
37529W        W56276   1.430   5.080   2.430  0.2043  0.2219 -0.0136
37530W        W56277  15.365  12.827  25.861  0.1183  0.1944  0.0063
37531W        W56278  15.785  14.308   7.836 -0.1849 -0.0171  0.1552
37532W        W56279  14.984  25.400  22.758 -0.1669  0.3092  0.0312
37533W        W56280  35.190  20.144  15.304  0.0713 -0.1371 -0.0783
37534W        W56281  23.188   3.354   3.655  0.3089 -0.3272  0.0591
37535W        W56282  27.329  19.476  25.128  0.5158 -0.1902 -0.1473
37536W        W56283  15.082   6.674   3.480 -0.0879  0.1662  0.1617
37537W        W56284   1.084  35.196  17.630 -0.3485  0.0506 -0.0831
37538W        W56285  30.890  15.114  18.351  0.0606 -0.1435  0.1547
37539W        W56286  28.767  21.781  23.357  0.1232  0.3276 -0.2271
37540W        W56287  11.599   6.423   7.569  0.2807 -0.3086 -0.3044
37541W        W56288  11.830  13.177   4.474  0.0032  0.2608  0.3584
37542W        W56289  35.208   8.230  18.145  0.0239  0.3087  0.0661
37543W        W56290  26.322   6.732  12.118  0.2213 -0.0637  0.0933
37544W        W56291  13.804  15.527  20.171 -0.0156 -0.0436  0.2402
37545W        W56292   6.390  32.583  24.640  0.0736  0.0248  0.1114
37546W        W56293  32.018  25.959  12.096 -0.2619 -0.1719  0.1353
37547W        W56294   6.574   9.554   0.678  0.0403  0.0132 -0.2256
37548W        W56295  13.586  14.030  11.095  0.4674 -0.1201 -0.1614
37549W        W56296  22.197  20.328   0.139 -0.0093 -0.2759  0.1044
37550W        W56297   0.768  24.585   3.203 -0.3193 -0.1126  0.0993
37551W        W56298  19.616  16.616   3.041 -0.1889 -0.0818  0.2155
37552W        W56299  21.786  30.414  13.477  0.1331 -0.3128 -0.0011
37553W        W56300  27.661  27.105  13.878 -0.4078 -0.1591 -0.0323
37554W        W56301  17.460  22.638   9.362 -0.0104  0.2373 -0.1073
37555W        W56302   1.201  13.461  13.776  0.0340  0.1277  0.5238
37556W        W56303  27.467  10.690  21.852  0.0509 -0.0299 -0.0551
37557W        W56304   2.062  20.857  17.624  0.1498 -0.0621  0.2362
37558W        W56305  33.125  32.346  14.071  0.0751 -0.0308 -0.0525
37559W        W56306   5.084  17.130  19.724 -0.0579  0.0294 -0.0710
37560W        W56307  30.668   2.833   2.025  0.0360  0.0311  0.0468
37561W        W56308  32.561   3.395   0.591  0.0200 -0.3379  0.4020
37562W        W56309  24.157   2.931   0.148  0.1002  0.3401 -0.1004
37563W        W56310  23.272  13.897   0.709 -0.0342  0.0736 -0.1780
37564W        W56311  19.220   0.137  24.653 -0.1768 -0.1434 -0.0020
37565W        W56312   4.188   8.257  22.538  0.3685 -0.0809  0.2765
37566W        W56313  25.075   5.977  13.895 -0.0430  0.1346 -0.2180
37567W        W56314  21.332  21.008  19.257 -0.0985 -0.4818  0.1040
37568W        W56315  18.721   7.115   7.508 -0.0575  0.0676 -0.2458
37569W        W56316  18.610  16.072  17.544  0.2918 -0.0866  0.0772
37570W        W56317  32.379   0.787  21.991 -0.0986 -0.0464 -0.1161
37571W        W56318  15.713  34.417   4.262  0.1335 -0.0047 -0.0146
37572W        W56319  22.476   4.680   6.382 -0.2565 -0.1204  0.2998
37573W        W56320  34.315  33.749   0.454 -0.0803 -0.0199 -0.2526
37574W        W56321  15.664  14.908   0.207  0.0325 -0.1761 -0.1459
37575W        W56322  26.245   9.235  19.082 -0.0468  0.2103  0.0469
37576W        W56323   7.135  12.530   9.507 -0.0057  0.0257 -0.0413
37577W        W56324   9.439  35.381  11.838 -0.1819 -0.2166 -0.1171
37578W        W56325   4.059   6.211   1.787 -0.0660 -0.0696 -0.1564
37579W        W56326  20.942  21.902  19.356 -0.2961 -0.2337  0.3407
37580W        W56327   8.004  13.620  12.299  0.1312 -0.1864  0.2739
37581W        W56328  23.991   4.064  12.889 -0.1046  0.0288 -0.0631
37582W        W56329   2.266  12.166  16.120 -0.1500 -0.0574  0.2787
37583W        W56330  13.221   7.503   4.897 -0.2035 -0.1791 -0.2646
37584W        W56331  26.846  13.780  24.381 -0.0835  0.2293 -0.2146
37585W        W56332  11.443   4.044   1.041 -0.0343 -0.0723 -0.3513
37586W        W56333   8.667  25.021  25.713  0.1347 -0.0050 -0.1502
37587W        W56334  27.426   0.744   5.599 -0.1486  0.0467 -0.1142
37588W        W56335   6.498   3.757  23.575 -0.1398 -0.5023  0.1393
37589W        W56336  12.089  26.173  12.158  0.0516  0.1086 -0.1300
37590W        W56337  26.235  26.852  23.094 -0.2173 -0.2244 -0.2261
37591W        W56338  30.898  19.577  13.329  0.1327  0.3762 -0.0307
37592W        W56339  15.088  13.370  19.110 -0.1413  0.1485  0.2520
37593W        W56340  23.965  15.261  18.466 -0.0351 -0.1564 -0.0362
37594W        W56341  27.714  26.820  15.627 -0.2743  0.0952  0.3753
37595W        W56342  26.965  11.830  20.922  0.1039 -0.0192  0.2187
37596W        W56343  22.587  19.651  25.374 -0.3995  0.2064 -0.0444
37597W        W56344  10.091   1.736   9.890 -0.0527  0.1018 -0.1443
37598W        W56345  33.199  30.799  17.023  0.1528  0.1374  0.0514
37599W        W56346  31.548  29.883   2.584  0.0812  0.0306  0.1124
37600W        W56347  25.833   5.602   3.715  0.0410  0.0571 -0.2330
37601W        W56348  28.042  23.065  25.063  0.3623  0.0429  0.5831
37602W        W56349  32.182  33.884  17.105  0.0029  0.1057  0.0187
37603W        W56350  32.239  14.642   9.767 -0.0140 -0.1288  0.0316
37604W        W56351  27.348  29.887  14.295  0.1722  0.5027  0.0003
37605W        W56352  13.323  10.542  24.389  0.1111  0.1212 -0.0442
37606W        W56353   9.201  23.232  11.867 -0.1097 -0.0061 -0.0231
37607W        W56354  30.062  10.654  21.825  0.0259 -0.0976 -0.0367
37608W        W56355  23.812   3.908  24.977 -0.0229  0.0413  0.1129
37609W        W56356  18.236  34.996   2.790 -0.3130  0.1061  0.0536
37610W        W56357  20.151  33.293  17.671  0.1956  0.0993  0.1398
37611W        W56358   6.651  21.622  21.139 -0.2567  0.4407 -0.0666
37612W        W56359  20.892  25.109  22.179 -0.0141 -0.0973  0.0782
37613W        W56360  16.004  14.879  12.657 -0.5533  0.3781 -0.4376
37614W        W56361   5.722  24.423  23.169  0.3779 -0.1484  0.0868
37615W        W56362  27.393  21.588  20.537 -0.1232 -0.0160  0.0459
37616W        W56363  23.313   2.970  14.273 -0.0977 -0.0547 -0.0360
37617W        W56364  12.836  34.907  21.628  0.1171  0.2064  0.0159
37618W        W56365  18.784  22.529  12.203 -0.0990 -0.2016  0.2307
37619W        W56366  21.221  32.190  17.961  0.0362  0.3154  0.2302
37620W        W56367  13.499   5.717  20.666  0.1350 -0.0906 -0.0106
37621W        W56368  34.873  13.604  19.177  0.1586  0.1891 -0.3736
37622W        W56369   7.985  30.192  25.855 -0.0798 -0.0682 -0.2058
37623W        W56370  26.752  34.368  14.045  0.0334 -0.0595  0.1188
37624W        W56371  24.682  14.222   9.802 -0.2151 -0.2602 -0.2185
37625W        W56372   8.973  17.044  19.636  0.0730 -0.4206  0.1114
37626W        W56373  30.439  27.589  25.259  0.1868  0.3403 -0.1018
37627W        W56374  33.253   6.392  14.890  0.1328  0.2994 -0.0190
37628W        W56375  30.452   1.654  24.764  0.3362  0.1858  0.2473
37629W        W56376   4.249  24.783   7.921  0.2154 -0.1465  0.2968
37630W        W56377  31.006  27.148   1.661 -0.1984 -0.2915  0.2915
37631W        W56378  26.871   2.113  26.236 -0.0889 -0.0487 -0.0576
37632W        W56379  22.220  12.532  25.998  0.1055 -0.0458  0.2272
37633W        W56380   7.240   7.402  25.142 -0.0974 -0.3549 -0.1134
37634W        W56381  31.921  34.284  20.137 -0.1776 -0.2633  0.0140
37635W        W56382   8.646  33.756  11.179 -0.2820  0.1988  0.1718
37636W        W56383  35.281  22.679  17.200  0.0692 -0.0536  0.0551
37637W        W56384  34.746  35.345   4.155  0.1538  0.1849  0.2830
37638W        W56385  15.653  21.204   5.136  0.0984 -0.0535  0.0019
37639W        W56386   3.695  14.446  14.692  0.1858 -0.0131 -0.2868
37640W        W56387  15.990   1.823   8.782 -0.1100  0.0165 -0.3102
37641W        W56388  33.817  29.413  13.983 -0.0635 -0.0882 -0.0844
37642W        W56389   0.304  22.610  22.968 -0.1236 -0.0164 -0.0404
37643W        W56390  34.410   6.346  23.088 -0.2116 -0.1203 -0.2773
37644W        W56391   6.908   9.549  22.214  0.3917 -0.1092 -0.1698
37645W        W56392  12.800  25.979   0.635 -0.1741  0.2252 -0.1908
37646W        W56393  22.833   3.033  24.483  0.1846  0.4077  0.2743
37647W        W56394  32.985  31.685  17.037  0.1218 -0.1061 -0.1812
37648W        W56395  27.920   2.042  21.388 -0.0439  0.1072 -0.0584
37649W        W56396  11.239   3.624   6.213 -0.0560 -0.2564 -0.2553
37650W        W56397  21.990  25.572  19.148 -0.2733  0.1049 -0.0369
37651W        W56398  32.625   7.528  18.064 -0.0394  0.1830  0.1501
37652W        W56399  24.793  30.858  23.706  0.1511 -0.3551  0.0231
37653W        W56400  14.267  28.596  14.680  0.3116 -0.1049  0.4050
37654W        W56401  13.362  33.795   0.391  0.0558  0.2663  0.4369
37655W        W56402  32.392   1.257   0.213  0.1011 -0.1234  0.3528
37656W        W56403  25.981  32.034   3.105 -0.1719  0.0085 -0.2856
37657W        W56404   9.598  35.257  22.522  0.1953  0.0300 -0.0577
37658W        W56405   5.749   1.296   1.660 -0.3607  0.2232  0.0804
37659W        W56406   6.330  12.329  21.386 -0.1499  0.0296 -0.2913
37660W        W56407  14.376  15.224  21.699  0.0449 -0.3787 -0.0009
37661W        W56408  31.383   7.825   2.542 -0.1612 -0.1069 -0.0277
37662W        W56409  28.257  16.111   7.969 -0.0210 -0.1018 -0.1063
37663W        W56410  33.540   0.408  19.984 -0.0146  0.1491  0.4459
37664W        W56411  29.467  17.294  15.640  0.0177 -0.4063  0.1781
37665W        W56412  20.643  20.562   4.889 -0.5062 -0.1590 -0.2527
37666W        W56413  15.742  19.147  26.168  0.1349  0.2418  0.3398
37667W        W56414  25.978  15.903   9.087  0.1846  0.0591 -0.0271
37668W        W56415  34.574   5.070  15.038  0.1759  0.0995  0.0845
37669W        W56416   8.894  12.235  10.340  0.1212 -0.0789 -0.0040
37670W        W56417  27.275   4.385  14.711  0.0198 -0.0997  0.0374
37671W        W56418  16.452  34.124  19.770 -0.3184 -0.0608  0.0948
37672W        W56419  13.332  34.559  12.334  0.0609 -0.1644 -0.2760
37673W        W56420   7.871   0.417   6.151 -0.0389 -0.1532 -0.0589
37674W        W56421   9.876  20.126   8.590 -0.4175  0.1477 -0.0922
37675W        W56422  23.718  26.613   0.673 -0.2645  0.4927 -0.1081
37676W        W56423   8.715   1.405   3.097 -0.1249  0.1295  0.1022
37677W        W56424  20.310  22.516   3.555  0.1679  0.0127  0.0977
37678W        W56425  32.518  15.327  17.988 -0.0753 -0.1416  0.0399
37679W        W56426   7.408  22.628   2.720  0.0048 -0.0573  0.0222
37680W        W56427   0.270  30.339  21.581 -0.1074 -0.0602 -0.1422
37681W        W56428   6.931  31.178  14.936 -0.3366  0.1593 -0.0920
37682W        W56429  20.827   2.837   6.839  0.0444  0.0701 -0.1299
37683W        W56430  11.782  34.655   8.709 -0.0629  0.1892  0.4252
37684W        W56431  35.351   0.414   7.598  0.0005 -0.1454  0.1573
37685W        W56432   8.654  13.072  20.948  0.1640  0.2450 -0.3232
37686W        W56433  34.818   0.501  20.407 -0.0441 -0.0897  0.0697
37687W        W56434  11.760  31.631  10.328 -0.0607  0.4307  0.2301
37688W        W56435  28.883  24.214  24.296  0.1133  0.1367 -0.1927
37689W        W56436  27.877   4.504   5.336 -0.2662  0.0842  0.0146
37690W        W56437  35.300  34.788   0.710  0.1211  0.4242  0.1412
37691W        W56438  25.263  16.437   0.106 -0.1574 -0.1759 -0.1808
37692W        W56439  20.670  18.106  24.034 -0.2182  0.0461 -0.3437
37693W        W56440  19.054  21.743  21.262  0.1603  0.0352 -0.1713
37694W        W56441  15.938  28.908  11.821  0.5261 -0.2519  0.1377
37695W        W56442  31.100  20.325   7.931  0.3587  0.1292  0.0552
37696W        W56443  13.098  32.092   0.197  0.0266  0.2332  0.0731
37697W        W56444  12.666  32.168   0.820  0.0412 -0.3400  0.0906
37698W        W56445  13.131   7.276  19.974 -0.1707 -0.2111 -0.1251
37699W        W56446   1.803  28.924   7.168 -0.0923  0.0580 -0.0891
37700W        W56447   4.327  32.717   7.558  0.0118  0.0917  0.1972
37701W        W56448  12.691  30.485   6.104 -0.1756  0.1333  0.1610
37702W        W56449  15.214  34.081  20.923  0.0470  0.1698 -0.2079
37703W        W56450  10.586  27.806  22.117 -0.4821 -0.1023 -0.1192
37704W        W56451   6.273  29.671  22.686  0.3654  0.0039  0.0536
37705W        W56452  26.707  29.211  13.740 -0.4194 -0.2402 -0.0014
37706W        W56453   0.986  19.372  25.915  0.1375  0.1078 -0.1064
37707W        W56454  32.604   8.612   2.911 -0.2511  0.2549 -0.1354
37708W        W56455  14.794  29.519  11.571  0.2656  0.2369 -0.1232
37709W        W56456   8.019  24.225  12.637  0.2537 -0.0986  0.0340
37710W        W56457   7.845  20.042  24.482 -0.1834 -0.0406  0.2428
37711W        W56458   0.575  14.258  10.931 -0.1127 -0.1699 -0.0624
37712W        W56459  33.833  23.010  17.621 -0.0419 -0.2142 -0.2852
37713W        W56460   5.171  16.632   3.306 -0.0530  0.2062 -0.1108
37714W        W56461  34.043  29.855  19.505 -0.0965 -0.1194 -0.1331
37715W        W56462  16.240  11.082   4.560  0.2965  0.0291  0.1371
37716W        W56463  10.370  31.531   6.573 -0.2973 -0.4081  0.0354
37717W        W56464   0.182  10.831  13.692 -0.0942 -0.3545  0.1404
37718W        W56465   3.353  23.217  24.779  0.1513  0.1192 -0.0709
37719W        W56466  19.236  22.486   5.022  0.1866 -0.2099 -0.2050
37720W        W56467   6.591  27.875   6.248 -0.0531 -0.2128 -0.1323
37721W        W56468  28.305  32.496   2.878 -0.3059  0.0954  0.0419
37722W        W56469   5.932   9.738   2.860 -0.0848 -0.0019  0.0287
37723W        W56470   3.887   7.899  16.264  0.2266  0.1862  0.1409
37724W        W56471   8.724   3.947  22.826  0.3886  0.0540 -0.2528
37725W        W56472  33.750  11.810  11.660 -0.3517 -0.1155 -0.1018
37726W        W56473   3.285  25.449  18.561 -0.0961 -0.2052  0.0887
37727W        W56474  22.065  34.651  14.347  0.1041 -0.0656  0.1099
37728W        W56475   7.757   1.183  10.740 -0.0097 -0.3226  0.1493
37729W        W56476   5.324   9.686   9.764  0.0960  0.0939 -0.0458
37730W        W56477  32.634  31.732  15.835 -0.2021 -0.2547 -0.2577
37731W        W56478   9.193  24.890   8.622  0.0875 -0.0403  0.0235
37732W        W56479   0.238   6.377  22.054  0.0748 -0.0162 -0.1437
37733W        W56480  22.450  21.563   4.015  0.2633  0.0164 -0.3552
37734W        W56481  19.245   3.454   1.002 -0.1113 -0.0563 -0.1571
37735W        W56482  34.163  14.469   8.230 -0.1409 -0.2540 -0.1007
37736W        W56483   7.876  32.965  13.693 -0.3927 -0.0802 -0.2453
37737W        W56484  29.493   5.882  17.725  0.3433 -0.1271 -0.0947
37738W        W56485  11.274  15.307   0.923  0.1970 -0.0506  0.3302
37739W        W56486  22.969  28.393  12.060 -0.2511  0.0554 -0.0695
37740W        W56487  27.398   8.970  21.304  0.1595 -0.4552  0.0930
37741W        W56488   4.539  25.877  11.132  0.0741  0.0480 -0.2660
37742W        W56489  22.489   6.103   6.765  0.1143  0.4469 -0.3169
37743W        W56490   6.101  24.082   1.948  0.2536  0.0052 -0.0148
37744W        W56491  13.598  14.573  10.865  0.2907 -0.0332 -0.0937
37745W        W56492   0.525   3.329   0.694  0.2577 -0.3736 -0.0820
37746W        W56493  27.126  21.371   7.612  0.0429  0.3431 -0.0103
37747W        W56494  22.263  23.157  23.506 -0.3693  0.0995 -0.2392
37748W        W56495  13.016  31.480   8.207  0.2624 -0.1589 -0.0436
37749W        W56496  18.517   5.648   1.264  0.1702  0.2147 -0.0004
37750W        W56497  30.395  25.149  22.932  0.2640 -0.1602  0.0416
37751W        W56498   6.987  10.165   8.869 -0.1111 -0.2392  0.1464
37752W        W56499   0.630  24.428   0.399 -0.1293  0.1554  0.3114
37753W        W56500   5.559   2.763  19.846 -0.0395 -0.0141  0.0176
37754W        W56501  12.159  35.123   3.375  0.2040  0.3027 -0.0602
37755W        W56502  25.875  18.867  14.161  0.0479 -0.3689 -0.1386
37756W        W56503  20.932   0.793   8.016  0.0189 -0.2833  0.1179
37757W        W56504  13.419  21.939  11.412 -0.2649  0.1549 -0.1444
37758W        W56505   7.650  26.907  14.403 -0.1167  0.0408 -0.1566
37759W        W56506  33.432   8.891  18.227  0.2362  0.0811 -0.4949
37760W        W56507  19.058  34.773  17.011 -0.3289  0.1284  0.0978
37761W        W56508  29.426  15.491   5.186 -0.0305 -0.1658  0.1891
37762W        W56509   7.696  32.592   4.269  0.0360 -0.1018 -0.1095
37763W        W56510  19.564  21.903  23.829  0.1599 -0.0131 -0.2746
37764W        W56511  10.455  22.550   8.979 -0.0970  0.3924 -0.1964
37765W        W56512  33.082  21.816  11.359  0.4280 -0.1771 -0.1176
37766W        W56513  25.365  22.976  10.174 -0.0180  0.3386 -0.0344
37767W        W56514  17.121  33.142   3.209 -0.1374  0.0558 -0.1296
37768W        W56515   4.419   5.525   2.021  0.2552 -0.2782  0.0415
37769W        W56516  27.338  12.641   9.114  0.0228  0.1338  0.0548
37770W        W56517  14.226  34.163   6.281 -0.2381 -0.2221 -0.0023
37771W        W56518  35.051  27.989   2.030 -0.0263  0.0748 -0.1073
37772W        W56519  33.574  25.663  17.414  0.0143 -0.2427 -0.1427
37773W        W56520  13.182  30.901  15.419 -0.1552  0.1472 -0.1368
37774W        W56521  29.165  11.715  25.879  0.1619 -0.0468 -0.0939
37775W        W56522   6.060   2.029  12.800 -0.2982  0.0950 -0.1751
37776W        W56523  19.146  12.699  21.371 -0.1487  0.3640  0.1037
37777W        W56524  20.096  10.003  18.819  0.0363  0.4342  0.2448
37778W        W56525  29.973   0.719  23.772 -0.2119 -0.0540 -0.3007
37779W        W56526  26.441   0.480   1.475  0.5697  0.1167  0.0752
37780W        W56527  14.718  19.949  13.171 -0.2359  0.1812  0.0744
37781W        W56528  14.647  12.883   7.758  0.0681  0.1034  0.1084
37782W        W56529  28.603  15.821  18.340 -0.0623  0.0861 -0.1161
37783W        W56530  35.265  29.804   4.276  0.0194 -0.2798 -0.0740
37784W        W56531  25.964   0.199  21.730  0.0179 -0.1253 -0.0636
37785W        W56532  21.955   3.931  25.658 -0.1753 -0.3700  0.0816
37786W        W56533  28.776  25.469  23.256 -0.3636  0.0216 -0.0603
37787W        W56534  33.151  18.498  14.330  0.1801 -0.0914 -0.0856
37788W        W56535  18.297  20.042   2.979  0.2167  0.2917 -0.0053
37789W        W56536  24.686  30.254  21.681  0.0778 -0.0180  0.1040
37790W        W56537   3.871  31.171  23.923 -0.0754  0.1212  0.1024
37791W        W56538  32.340   1.702   1.091 -0.2972  0.1455 -0.0921
37792W        W56539  26.675  21.574  14.403 -0.1966  0.0567  0.1468
37793W        W56540   8.821   0.953  11.889 -0.0762 -0.0794 -0.0188
37794W        W56541  34.591   8.053  18.720  0.2328 -0.2337  0.1190
37795W        W56542  17.277  16.720   9.211  0.0693 -0.1985 -0.3189
37796W        W56543  25.186  18.402  10.397  0.1796 -0.1227 -0.2802
37797W        W56544   6.476  29.255  24.182  0.1604  0.3042 -0.2920
37798W        W56545  28.595   3.128  13.088  0.2564  0.0805 -0.2839
37799W        W56546  28.140   4.414  18.983 -0.0412 -0.0918 -0.2308
37800W        W56547  22.031  30.303   2.431 -0.1889 -0.1019 -0.2431
37801W        W56548  23.232  22.779  21.683  0.0955  0.0506 -0.0649
37802W        W56549  14.927  15.573  22.752 -0.0691 -0.1033  0.1483
37803W        W56550  32.063  11.022   8.218 -0.1553 -0.0929 -0.0205
37804W        W56551  32.088  25.408  13.565  0.0231  0.0244  0.1628
37805W        W56552   3.992   3.695   2.501 -0.1893 -0.1555  0.0539
37806W        W56553  21.610   0.941  15.730 -0.1890  0.1124  0.1912
37807W        W56554   1.316  20.750  18.827  0.0594 -0.1571 -0.0116
37808W        W56555   2.646   7.188   0.499 -0.0271 -0.1686 -0.1758
37809W        W56556  15.424   0.224  21.322  0.1059 -0.2904  0.0678
37810W        W56557  33.969  15.558  23.125 -0.2805 -0.0353 -0.2567
37811W        W56558  30.261  21.953  11.343 -0.2751  0.0324  0.1141
37812W        W56559  12.689   5.322   7.582 -0.2052 -0.0387 -0.1751
37813W        W56560  19.836   4.678   2.551 -0.1797  0.4139  0.1614
37814W        W56561  28.968   9.271  12.114 -0.1406 -0.1521  0.3157
37815W        W56562  10.553  22.717  11.562 -0.3444  0.0753 -0.2396
37816W        W56563  15.550  32.810  21.399 -0.0697  0.1154 -0.2027
37817W        W56564  20.296  27.773  17.236 -0.0590  0.0034  0.0552
37818W        W56565  32.440  28.368  20.483  0.1786 -0.1394  0.3434
37819W        W56566  28.537   0.159  12.962 -0.1837 -0.1100  0.1903
37820W        W56567  16.858  17.105   3.003 -0.1262  0.1658  0.0486
37821W        W56568  20.498  21.881  19.631  0.1245  0.0217  0.1571
37822W        W56569  32.461   3.227  14.041  0.1636 -0.1270  0.0788
37823W        W56570  11.830  15.907  10.471  0.0536  0.0328 -0.0590
37824W        W56571  31.043   8.829  10.402  0.0297  0.4505 -0.0703
37825W        W56572  25.982  22.724  23.041 -0.1542  0.0364 -0.2817
37826W        W56573   9.264  24.453   5.697  0.3516 -0.1272  0.0526
37827W        W56574  10.910  22.674  16.896  0.1851 -0.0927 -0.1268
37828W        W56575   7.603   0.309  12.608  0.0473 -0.1080 -0.4290
37829W        W56576   6.254  25.179  22.695  0.3000 -0.0652  0.0174
37830W        W56577   4.399  23.085   6.451 -0.3014 -0.0849  0.0149
37831W        W56578  33.835   8.340  14.395 -0.1321 -0.2642 -0.1662
37832W        W56579  24.833   6.788  16.656 -0.1975  0.2433  0.0566
37833W        W56580  27.432  23.920  22.465 -0.1979  0.1340  0.0239
37834W        W56581  14.090  16.502  11.454  0.0985 -0.1564  0.0902
37835W        W56582  22.063   4.444  23.701 -0.1331 -0.0921 -0.1289
37836W        W56583  22.849  27.504  23.101 -0.0063 -0.2441  0.0068
37837W        W56584  11.725   5.321  13.855 -0.2278 -0.3586 -0.1731
37838W        W56585  15.251  14.163   0.012  0.2560  0.0496  0.0659
37839W        W56586  18.949  20.728  19.158  0.1170  0.0345  0.0139
37840W        W56587  16.414  25.727   7.396 -0.0715  0.1820 -0.0215
37841W        W56588   8.157  21.530   2.247  0.1503 -0.1495  0.0877
37842W        W56589  25.578  29.293  12.372  0.1716 -0.0674  0.2229
37843W        W56590  13.156  28.038  23.856  0.0629  0.0152  0.3597
37844W        W56591  10.440  22.879  12.635  0.3660  0.0303  0.2663
37845W        W56592  33.849  27.926  20.572 -0.3052 -0.1973  0.0020
37846W        W56593   0.636  10.300  13.434  0.0342  0.1722  0.1647
37847W        W56594  19.001  22.150   6.775  0.2396 -0.1800  0.0655
37848W        W56595  14.575  30.257   8.913  0.0590  0.2588 -0.0719
37849W        W56596  16.248  21.687  13.247  0.2227  0.1238  0.2146
37850W        W56597  12.312   0.338  13.417  0.0832 -0.1950  0.0070
37851W        W56598  18.941   3.296   2.017 -0.1531  0.1616 -0.0343
37852W        W56599   3.129   0.909   0.169  0.1516 -0.0854 -0.0738
37853W        W56600  16.750  20.578   8.340  0.0306 -0.2156 -0.1320
37854W        W56601  18.393  17.353  22.865 -0.1660 -0.3865  0.0050
37855W        W56602  28.001  28.586   2.079 -0.0921  0.3140 -0.2078
37856W        W56603  17.112  21.075   2.134 -0.0507  0.2032 -0.3260
37857W        W56604  12.039  28.902   8.988 -0.0180  0.2240 -0.0410
37858W        W56605   6.113  26.551   1.715  0.3187 -0.0297  0.3996
37859W        W56606  16.462  13.260   0.089  0.3786 -0.3368 -0.1317
37860W        W56607  17.738   2.879  24.996  0.1074 -0.1204  0.2169
37861W        W56608  33.979  17.022  10.987  0.1776  0.1013  0.0742
37862W        W56609   7.331  24.108  12.242  0.1639 -0.0271  0.4376
37863W        W56610  16.741  34.629  19.879 -0.1685  0.0680 -0.0760
37864W        W56611   3.795  33.619   6.014 -0.1326 -0.0052 -0.2006
37865W        W56612  17.170  18.280   8.832  0.1037  0.0176  0.0266
37866W        W56613  10.810   1.808   8.533  0.1836  0.1435 -0.0156
37867W        W56614  32.007  23.142   8.685 -0.1430  0.3316  0.0830
37868W        W56615   6.958  11.320   1.185  0.1906 -0.3986  0.0018
37869W        W56616  31.930  33.429   6.005 -0.1088 -0.0349  0.1855
37870W        W56617   2.586  33.614   9.019  0.0548 -0.1408  0.0239
37871W        W56618   4.435  29.511   2.258 -0.1208 -0.2304  0.3353
37872W        W56619  23.094   1.745  13.997 -0.1504 -0.1242 -0.0124
37873W        W56620  10.404  35.146  22.868  0.0447  0.0410  0.1329
37874W        W56621   9.065  17.252  11.479 -0.0712  0.1663 -0.1132
37875W        W56622  23.563  25.008  18.056  0.1542 -0.3134 -0.0206
37876W        W56623   0.419  29.965   0.419 -0.2533  0.1134  0.1046
37877W        W56624  27.107  14.259  14.513 -0.0285  0.1407 -0.0559
37878W        W56625  32.287  21.203   7.740 -0.1845  0.1961  0.3167
37879W        W56626  28.167  29.032  24.807  0.0336  0.2182 -0.1075
37880W        W56627  17.382  22.679  10.708  0.2500  0.0093  0.0030
37881W        W56628  12.610  15.294   4.240 -0.5026  0.2095 -0.1703
37882W        W56629  33.064   9.330  12.123 -0.3272  0.0020  0.0236
37883W        W56630  27.247  21.600   7.156  0.4164  0.1164  0.0383
37884W        W56631  32.363   8.752  19.872 -0.0466  0.2144  0.0906
37885W        W56632  11.972  24.623  12.494  0.1275  0.2499 -0.1428
37886W        W56633  28.734  21.535  24.118 -0.3364 -0.1346 -0.1525
37887W        W56634   3.462  20.810  24.060 -0.1005  0.2859  0.0154
37888W        W56635  10.478  32.045  25.755  0.1014  0.0839  0.1534
37889W        W56636  25.697  12.439  16.649 -0.0197  0.3031 -0.1483
37890W        W56637  19.221  35.185  19.508 -0.0639 -0.1389 -0.1033
37891W        W56638   5.561  26.766  11.583  0.0925 -0.1728  0.0458
37892W        W56639   9.998  14.008   6.355 -0.0934 -0.0940  0.1367
37893W        W56640  33.792  14.790   0.401 -0.1218  0.1460 -0.0903
37894W        W56641  18.778  31.897  16.775 -0.2001  0.1786  0.2015
37895W        W56642  10.667  14.639  13.201  0.1255  0.1623 -0.0874
37896W        W56643   4.312  29.707  25.167 -0.2686 -0.0348 -0.2630
37897W        W56644  13.526  15.841  20.457  0.1401 -0.0465  0.3515
37898W        W56645   6.345  24.902   7.575 -0.0855 -0.2410 -0.0440
37899W        W56646   8.051  15.155   1.007 -0.2240  0.0349 -0.1266
37900W        W56647  25.267  33.424  23.874  0.3728  0.0168 -0.1998
37901W        W56648  25.101  23.015  14.547  0.4570  0.1524  0.1535
37902W        W56649  28.602   4.785  20.298  0.1412 -0.2269  0.1066
37903W        W56650   7.687  31.934  12.002 -0.1361 -0.1027  0.0800
37904W        W56651  29.292  11.461  10.115  0.2618 -0.1574 -0.3651
37905W        W56652  24.225   3.419   5.311  0.0058 -0.3350  0.1621
37906W        W56653  21.999  35.160  20.353 -0.2905  0.0677  0.1551
37907W        W56654  25.758  24.571  14.686 -0.1274 -0.1178 -0.2428
37908W        W56655  22.039  34.316   1.788 -0.1047 -0.0808 -0.0154
37909W        W56656  11.765  29.730   6.607 -0.1594  0.1295  0.0241
37910W        W56657  11.335  34.603  12.996 -0.0439 -0.0100  0.1727
37911W        W56658  17.650  33.646  25.292  0.1256  0.1338  0.0165
37912W        W56659  31.639  33.639   0.733 -0.3035 -0.0374 -0.0446
37913W        W56660  14.624  13.080  25.842  0.0237  0.3825  0.0331
37914W        W56661  35.356  29.508   2.798 -0.0040  0.1055  0.4104
37915W        W56662  15.953  14.671   3.550  0.1635 -0.2068  0.1101
37916W        W56663  20.626  34.142   3.292  0.2995  0.4794  0.0340
37917W        W56664  33.994  31.676   8.528 -0.0778  0.1525  0.0682
37918W        W56665  19.976  28.123   0.907 -0.0179  0.1546  0.1509
37919W        W56666  32.486   2.986  15.297  0.1506 -0.1535 -0.1670
37920W        W56667  15.330   4.965  20.624 -0.1254 -0.2414 -0.3266
37921W        W56668   5.452   3.165  20.641  0.0434 -0.1745 -0.0275
37922W        W56669   6.218  29.936   9.338 -0.1376 -0.2495 -0.2556
37923W        W56670  24.629   8.446  16.053  0.4085 -0.1350  0.2028
37924W        W56671  16.652  23.132  25.041  0.1182 -0.1392 -0.4039
37925W        W56672  17.598  17.573  23.254  0.0587 -0.2062  0.1024
37926W        W56673  31.090   8.498  10.813  0.1206 -0.0824  0.1801
37927W        W56674  18.833   3.310  20.663 -0.2138 -0.0449 -0.0484
37928W        W56675   0.580  12.785  18.425  0.1027  0.2195  0.2782
37929W        W56676   6.847  11.955   4.982  0.2085 -0.0941  0.0869
37930W        W56677  25.386  17.782  22.695  0.0118  0.0671  0.2697
37931W        W56678   5.607  16.965  18.064 -0.2738 -0.0364 -0.0410
37932W        W56679  27.393  15.914   8.936 -0.0212  0.2493  0.0435
37933W        W56680   8.933  33.715  14.240  0.0043 -0.1178 -0.0103
37934W        W56681  20.131   5.041  19.386  0.2041  0.0534 -0.0225
37935W        W56682   1.095  30.445  20.194  0.0513  0.1397  0.1448
37936W        W56683  29.988  26.170  10.703  0.0778 -0.2007  0.2662
37937W        W56684  25.062  14.681  14.245 -0.0597  0.0192  0.0639
37938W        W56685  13.071  15.395   6.126  0.2959  0.1221  0.0179
37939W        W56686  21.405   3.334  25.180  0.0472 -0.0127  0.1787
37940W        W56687  29.551   5.950  14.436  0.0730  0.3485  0.0999
37941W        W56688   2.720  20.702  18.942 -0.2254  0.1887  0.1188
37942W        W56689  17.109  13.378  12.878  0.1154  0.0879  0.1380
37943W        W56690  25.170  30.021  18.652  0.1172  0.1507 -0.1578
37944W        W56691   5.680  21.698  20.295  0.3533  0.2904 -0.2447
37945W        W56692  15.031  16.457   0.380  0.1084  0.0920  0.0125
37946W        W56693  25.199   5.169  13.679 -0.1467 -0.2632 -0.0335
37947W        W56694   9.594  25.656   6.707 -0.0987  0.1132 -0.2054
37948W        W56695   0.451   5.263  21.436 -0.0901  0.2514  0.1485
37949W        W56696  32.810  27.968  21.682 -0.0762 -0.1808  0.0488
37950W        W56697  31.398   1.663  14.075  0.1476 -0.1391  0.0289
37951W        W56698  17.421   8.040  20.410  0.0314  0.0086 -0.0657
37952W        W56699  11.462  31.261  20.811 -0.0018  0.1139 -0.2279
37953W        W56700  23.862   9.923  18.742 -0.0490 -0.0264  0.2073
37954W        W56701  21.567  31.554   2.267 -0.3276 -0.0703 -0.0032
37955W        W56702  23.181   7.077   4.322 -0.1920  0.0624 -0.0507
37956W        W56703   8.310  29.377   6.760 -0.1596  0.3066 -0.4268
37957W        W56704  34.401  33.498  20.807 -0.1045  0.4023 -0.1655
37958W        W56705  17.202  24.092   3.463  0.0342  0.0490 -0.3494
37959W        W56706  12.650  26.542   9.751 -0.1029  0.0189 -0.0133
37960W        W56707   2.314  33.448   1.671 -0.1184 -0.0370  0.2195
37961W        W56708  29.831   7.233  20.506  0.1157  0.2023  0.3447
37962W        W56709   1.208  14.105  19.332  0.0475  0.0583 -0.1204
37963W        W56710  10.100   4.630  19.584 -0.1058  0.3017 -0.0563
37964W        W56711   3.441   7.734  19.717  0.0376 -0.1379 -0.2217
37965W        W56712   4.770  18.503   4.504  0.2398  0.1500 -0.1629
37966W        W56713  18.416  27.617   2.217  0.2048 -0.1691 -0.3970
37967W        W56714  31.634   9.033  22.847  0.1536 -0.1025  0.0735
37968W        W56715  29.538   0.603   2.985  0.1743 -0.2720 -0.1170
37969W        W56716  34.790  27.104  19.102  0.0035  0.1318 -0.0367
37970W        W56717   1.241  25.587  17.049  0.1980 -0.0428 -0.0815
37971W        W56718  13.034  29.925   0.392 -0.1724  0.1786 -0.1307
37972W        W56719  33.964   6.817   5.841 -0.0108  0.0377  0.2080
37973W        W56720  11.173   0.983  12.932 -0.4132 -0.3422 -0.0205
37974W        W56721  11.467   3.829   1.549 -0.1127  0.1144 -0.1041
37975W        W56722  12.162   9.729  11.398 -0.0639  0.0138 -0.0057
37976W        W56723  27.535   5.764  14.102 -0.0822  0.1320 -0.0868
37977W        W56724  26.059  11.650  14.456  0.2130  0.1119  0.2999
37978W        W56725  23.192  14.593  20.721  0.1367  0.1252 -0.0599
37979W        W56726   7.452  10.131   0.998 -0.0162 -0.0974  0.2104
37980W        W56727  30.719  22.047  24.509  0.1165 -0.1795  0.2020
37981W        W56728  30.163  19.048  22.479 -0.2746 -0.2310  0.1139
37982W        W56729  22.765   3.190  19.579  0.0584 -0.3227 -0.2041
37983W        W56730  18.433  10.494  24.555 -0.2289 -0.2231  0.1121
37984W        W56731  15.108  16.249  13.560 -0.2111  0.4219  0.0921
37985W        W56732  23.964  17.896  24.200 -0.1030  0.1398 -0.2052
37986W        W56733  13.087   4.795  26.025 -0.0143 -0.1137  0.0208
37987W        W56734  13.796  21.956  14.850 -0.0636 -0.0779  0.0932
37988W        W56735  32.084  34.394   3.682 -0.1294  0.0339  0.1051
37989W        W56736   3.089  26.993   3.580 -0.0638 -0.2160 -0.1196
37990W        W56737   8.754   2.275   7.609  0.1534 -0.0506 -0.1185
37991W        W56738  24.806  26.504  19.903  0.0146 -0.0869  0.0528
37992W        W56739  28.301  16.612   8.591  0.1641 -0.0649 -0.2383
37993W        W56740   2.912  32.549  23.726 -0.2808  0.1415 -0.0453
37994W        W56741  19.242  15.795   9.521  0.0089  0.0751 -0.2781
37995W        W56742   2.537  21.941  25.592 -0.0911 -0.2114 -0.1997
37996W        W56743   1.112  14.266  15.015  0.1419 -0.2604 -0.1159
37997W        W56744  23.799  29.460  15.954 -0.3424  0.2556  0.3539
37998W        W56745  31.720  22.152  17.916  0.0045 -0.0213  0.0586
37999W        W56746   8.732   1.818  23.901 -0.1220  0.3465  0.3587
38000W        W56747  26.530  27.194  18.124 -0.1341 -0.0796  0.3134
38001W        W56748  16.266  25.007   1.533 -0.1019 -0.0853  0.0042
38002W        W56749   4.922   6.838   4.216 -0.5101  0.2500 -0.1176
38003W        W56750  22.234   3.362  15.271  0.1159  0.1235  0.0969
38004W        W56751  25.671  33.595  24.233  0.2144 -0.1664 -0.1347
38005W        W56752  25.092   9.497  25.644 -0.0382 -0.2270  0.1615
38006W        W56753  31.937  17.350  25.305  0.0313  0.1195 -0.0735
38007W        W56754  23.861  29.755  13.747 -0.1348  0.3151  0.1577
38008W        W56755  12.761  10.253  21.983  0.0079  0.3701  0.1080
38009W        W56756   4.133  18.693  20.568  0.1545 -0.1079 -0.2311
38010W        W56757  32.244  32.241  13.996 -0.1454 -0.1290 -0.0563
38011W        W56758  34.279  17.686  17.864 -0.4039  0.2041 -0.2023
38012W        W56759  34.655   7.660  11.873 -0.0897 -0.0308  0.1009
38013W        W56760   8.515  26.282  16.738  0.2829  0.0294  0.1027
38014W        W56761  26.294  12.257  20.514  0.0665 -0.2928  0.0917
38015W        W56762   2.311  30.467  25.739  0.0169  0.0233  0.0462
38016W        W56763   5.962   2.379  25.368  0.1316 -0.0213  0.0171
38017W        W56764   5.469  18.125  20.887  0.1445  0.1825  0.0198
38018W        W56765  22.901   3.529   4.086 -0.4263 -0.2769 -0.2130
38019W        W56766   2.599  13.266  21.911 -0.0538  0.2189  0.0026
38020W        W56767  20.633  30.574  24.306 -0.1335  0.0329 -0.1448
38021W        W56768  16.716   5.011  23.656  0.2292 -0.1065 -0.0517
38022W        W56769  21.076  10.937   3.969  0.1864 -0.2445 -0.2826
38023W        W56770  26.041  32.954   4.382 -0.1035 -0.0512 -0.1020
38024W        W56771  24.768  19.309  15.087 -0.0204  0.1807 -0.0974
38025W        W56772  30.224  12.754  19.140 -0.1090  0.1636  0.2094
38026W        W56773  28.619   8.097  24.632  0.0909  0.0428 -0.0210
38027W        W56774  11.139  27.797  22.312 -0.2649  0.1080 -0.0376
38028W        W56775  13.359   5.798  24.717 -0.0954 -0.3738 -0.3685
38029W        W56776  18.781   8.287   0.755  0.0604  0.5206  0.4422
38030W        W56777  14.280  21.653  13.903  0.1341  0.0763  0.1504
38031W        W56778  26.316  14.783   8.395  0.4660 -0.1337  0.0173
38032W        W56779  15.010  19.508  10.870  0.0497 -0.0726 -0.1832
38033W        W56780  26.221  34.552   2.627 -0.2770 -0.0419 -0.0614
38034W        W56781  21.549  30.227   2.529  0.2175  0.2393  0.0039
38035W        W56782  19.746  19.809  22.469 -0.3322 -0.3374  0.1239
38036W        W56783  31.651  28.646  25.843 -0.1513 -0.2538  0.0304
38037W        W56784  18.890   7.314   3.430  0.2564 -0.1736 -0.0033
38038W        W56785   6.027  31.712  10.156 -0.2616 -0.2502 -0.1609
38039W        W56786  11.580  11.516   8.643 -0.2568  0.0534  0.2067
38040W        W56787   5.546  30.807  12.694 -0.0688  0.0865  0.0598
38041W        W56788  10.595   8.331   8.539 -0.1195  0.2692 -0.0498
38042W        W56789  17.104  29.669   2.622  0.0319  0.0692 -0.2642
38043W        W56790  13.284   2.150  21.122 -0.4494 -0.5460  0.3559
38044W        W56791  29.347  29.746  12.883 -0.1422  0.0731 -0.2629
38045W        W56792  16.406  32.839   5.071 -0.0450 -0.0443  0.1513
38046W        W56793  28.948  18.591  17.462  0.0253  0.1348 -0.0334
38047W        W56794  30.132   7.826  15.659 -0.1404 -0.0476 -0.1169
38048W        W56795  31.873  16.092   5.798 -0.1215  0.0184  0.0027
38049W        W56796  29.600  20.022  16.166 -0.1393 -0.1385  0.2589
38050W        W56797   6.428  23.826   2.172 -0.0399 -0.3512  0.0905
38051W        W56798  28.957  16.647  13.516 -0.1395  0.1579 -0.2317
38052W        W56799  12.819  30.965  11.648 -0.1498  0.1366  0.1222
38053W        W56800  17.170  18.286  19.405 -0.2005 -0.0726 -0.2877
38054W        W56801  30.691  29.301  21.577 -0.1010  0.0633  0.2073
38055W        W56802  31.360  30.294  12.317  0.0161  0.1528  0.1265
38056W        W56803  13.429  20.643   2.246  0.1697  0.1546  0.0634
38057W        W56804  10.286   5.698   6.688 -0.2375  0.4868  0.1435
38058W        W56805  17.516   1.964   3.303 -0.3857  0.1573 -0.0109
38059W        W56806   9.753  29.455   3.701 -0.0883 -0.0526 -0.0547
38060W        W56807   1.464  12.170   0.257  0.2171 -0.0066  0.1915
38061W        W56808  30.442  24.608  19.871  0.0593 -0.0730 -0.0504
38062W        W56809  22.119  28.254  18.735 -0.1639 -0.1201  0.1586
38063W        W56810  11.561   8.179   1.424 -0.2053  0.0560 -0.0874
38064W        W56811  23.179   0.804  17.367  0.1664 -0.1689 -0.1817
38065W        W56812  12.743  13.447   3.476  0.2723  0.1022  0.1392
38066W        W56813  17.359  13.874  12.270 -0.1759 -0.1925  0.0798
38067W        W56814   9.684  30.294   7.938  0.1130 -0.0347  0.0611
38068W        W56815  29.829  24.199  22.502  0.0593  0.2661 -0.2851
38069W        W56816  10.651  20.606  10.094  0.1338  0.1856 -0.1545
38070W        W56817  25.234  22.423  20.157  0.0519 -0.0677 -0.0538
38071W        W56818  11.531   4.030   4.997  0.0432 -0.1661  0.1675
38072W        W56819   7.123  14.640  24.409 -0.2674  0.2174  0.0439
38073W        W56820  12.937  29.105  15.707  0.2395 -0.1700 -0.0660
38074W        W56821  11.397   3.873   5.805 -0.2007 -0.2227 -0.0173
38075W        W56822   7.542   0.633  15.246 -0.1074  0.0443 -0.1546
38076W        W56823   4.942  13.752   6.975 -0.2448 -0.1710  0.2655
38077W        W56824  14.208  11.110   0.379  0.0892  0.1757 -0.2452
38078W        W56825  22.725   7.744  19.197 -0.2674  0.3627  0.2487
38079W        W56826  23.535  29.899   4.259  0.2167 -0.1893 -0.2463
38080W        W56827  13.111  23.072   3.689  0.1532 -0.3974 -0.1718
38081W        W56828  16.241  13.361   6.304  0.0082 -0.0637  0.6427
38082W        W56829  31.537  34.468   3.674  0.0265  0.0852 -0.0087
38083W        W56830  12.336  33.944  21.670  0.0277 -0.2596  0.4307
38084W        W56831  22.868  30.271  25.005  0.0398  0.1494 -0.2635
38085W        W56832   0.471  20.693  25.434 -0.2078  0.0408 -0.1912
38086W        W56833   5.592  18.315   3.336  0.1336  0.0450  0.1904
38087W        W56834   2.478   0.676  17.374 -0.5091  0.4115 -0.0982
38088W        W56835  26.436  31.508  24.342  0.0616 -0.2442  0.1017
38089W        W56836  31.229  25.707  15.134 -0.0649 -0.0732  0.0813
38090W        W56837  20.618  11.940  20.361 -0.0742  0.1231 -0.0965
38091W        W56838  28.337  14.444   7.450  0.2842  0.2553  0.1404
38092W        W56839  29.387  32.122   4.268  0.0483 -0.0485  0.1149
38093W        W56840  11.590   0.165   7.607 -0.1183  0.2092 -0.2737
38094W        W56841  26.953  22.491   0.110  0.4488  0.2794  0.0533
38095W        W56842  25.509   1.972  21.791 -0.0100  0.1000  0.0740
38096W        W56843  33.997   9.384  10.627 -0.0262  0.1404  0.2131
38097W        W56844   2.006  25.990  26.026 -0.0326 -0.1338 -0.1200
38098W        W56845  13.730  20.949   9.653 -0.0900 -0.1831 -0.0805
38099W        W56846  11.627  32.335  11.420  0.0014  0.0941  0.0970
38100W        W56847  16.179  24.097   8.810  0.2727 -0.1316 -0.0186
38101W        W56848  15.146   9.810  22.734 -0.0971  0.2338  0.2186
38102W        W56849   0.120  11.064  17.529 -0.0556  0.1857  0.0471
38103W        W56850  11.356  13.228   3.701 -0.2639 -0.0351 -0.0473
38104W        W56851  27.758  12.403  22.406 -0.0594 -0.2383  0.0717
38105W        W56852   2.895  15.304   2.495  0.0608  0.0418  0.0364
38106W        W56853  20.459  10.452  17.993 -0.1238 -0.1030  0.3386
38107W        W56854   7.986  24.063  25.188 -0.1682  0.0445 -0.0726
38108W        W56855  28.049  17.212  18.118  0.1315 -0.0636  0.0779
38109W        W56856  10.513  27.751  13.411 -0.2582  0.2797 -0.0504
38110W        W56857  17.738   8.869  12.050  0.1782 -0.0500  0.1804
38111W        W56858  20.283  28.917  20.027  0.1972  0.0728  0.0864
38112W        W56859   7.686   3.499  21.712 -0.2273  0.0532 -0.4478
38113W        W56860  35.126  29.279   3.158 -0.1173 -0.0527 -0.0352
38114W        W56861  31.631  12.272  14.705 -0.0693  0.0170 -0.1001
38115W        W56862  16.668  14.735   1.155  0.2899 -0.0149 -0.0401
38116W        W56863  15.195  31.403   6.624 -0.0605  0.2745 -0.3151
38117W        W56864  28.117   2.907  16.204  0.0678  0.0552 -0.1028
38118W        W56865  18.370  13.913  22.223  0.0497  0.0554  0.1208
38119W        W56866  12.448  22.495   5.817  0.1960 -0.0734  0.0324
38120W        W56867   7.057  14.390  12.561 -0.0321  0.1030  0.2003
38121W        W56868   4.573  32.354  22.201  0.2076 -0.2774  0.2270
38122W        W56869  15.938  12.352   2.468  0.0672 -0.2192  0.0113
38123W        W56870   9.148   7.037  23.038 -0.1790 -0.2210 -0.2560
38124W        W56871  34.674  31.667  14.867  0.2314 -0.1169 -0.0910
38125W        W56872  14.570   3.497  22.260  0.0956 -0.3170 -0.1802
38126W        W56873  22.602  32.028   1.331  0.1018 -0.2054 -0.1794
38127W        W56874  21.310  13.909  19.653 -0.0597  0.0223 -0.0647
38128W        W56875   1.176   1.055   7.519 -0.1974 -0.1694  0.1933
38129W        W56876  31.661  32.021   3.587 -0.0266  0.3470  0.2048
38130W        W56877  20.361   0.425   6.071  0.0372 -0.0178  0.2229
38131W        W56878  16.257  13.128   4.719 -0.1174 -0.0966  0.2476
38132W        W56879   6.466  10.332  19.944  0.1598 -0.1111 -0.0480
38133W        W56880   5.942   3.869   7.600  0.1273  0.2163 -0.4193
38134W        W56881  13.894  22.571  13.154 -0.3642  0.1931 -0.2107
38135W        W56882   7.025   8.340   7.262  0.4092  0.2973 -0.5194
38136W        W56883   9.233   0.129   5.705 -0.1191  0.1200  0.1080
38137W        W56884  10.001  34.530   0.664  0.1467 -0.5929 -0.1423
38138W        W56885  11.384  11.572  19.810 -0.0202 -0.1140 -0.0882
38139W        W56886  21.321  32.204  24.251 -0.0204 -0.4855  0.2667
38140W        W56887  30.848   3.429  24.758  0.0276 -0.0174  0.3298
38141W        W56888  11.128  23.608   9.036  0.1777  0.2151  0.2203
38142W        W56889  12.538  29.948   1.153 -0.1130  0.0200 -0.3493
38143W        W56890  24.409  18.109  24.251  0.0640  0.1139  0.2184
38144W        W56891  14.723   0.732  23.326 -0.0995 -0.0149 -0.2042
38145W        W56892   9.603  18.861  20.668 -0.1578  0.0534  0.0631
38146W        W56893  16.555  13.781  10.976  0.2850  0.0928  0.0763
38147W        W56894  35.089  32.593   3.268  0.2342  0.0966 -0.1699
38148W        W56895   6.901  23.928  21.703 -0.0463 -0.2432 -0.0047
38149W        W56896   6.135  25.664  15.079  0.0223  0.1099 -0.1968
38150W        W56897  10.528  18.861  14.539  0.2716  0.2234  0.2338
38151W        W56898  19.207  13.334  21.479 -0.2655 -0.2856  0.0175
38152W        W56899  18.915  11.480  25.311  0.4113 -0.2387 -0.2229
38153W        W56900   3.216  21.297  25.970 -0.1560 -0.0563  0.0264
38154W        W56901  35.273  35.118  20.089  0.3198  0.2139 -0.4103
38155W        W56902  19.262  18.063  21.610  0.4887 -0.2257 -0.0965
38156W        W56903  24.355  34.537   2.326  0.1217 -0.1075 -0.1917
38157W        W56904  31.788  32.547  18.198 -0.2585  0.0347 -0.1538
38158W        W56905  13.905  28.937  14.386 -0.1374 -0.2107  0.0259
38159W        W56906  10.607  10.042  14.063  0.0970 -0.1221 -0.0921
38160W        W56907  29.789  22.750  13.245  0.2593 -0.0835 -0.0890
38161W        W56908  10.289  21.616  10.427 -0.3504 -0.1945  0.3432
38162W        W56909  34.692   8.356  14.613 -0.1056  0.0640  0.1196
38163W        W56910  33.426  22.589  24.795  0.1182  0.1653 -0.1151
38164W        W56911  20.064  26.040  17.455 -0.0049 -0.0734 -0.2769
38165W        W56912  14.445   4.871  13.127  0.0941 -0.0681 -0.0569
38166W        W56913   5.684  31.025  10.660 -0.0790 -0.0697  0.0693
38167W        W56914  16.976  28.510  24.352 -0.3104  0.0446  0.1520
38168W        W56915  16.242  22.962   3.363  0.0323 -0.0635  0.0993
38169W        W56916  27.344  18.453  25.933  0.0394 -0.0948 -0.2032
38170W        W56917  10.743  20.524  22.765  0.1319  0.0150  0.2245
38171W        W56918  29.160  28.542  11.514  0.1456 -0.2102  0.1054
38172W        W56919   1.558  18.222  25.644 -0.0472  0.0520  0.0171
38173W        W56920  31.203  29.714   1.394 -0.0392  0.2760  0.0113
38174W        W56921   0.403  13.184   1.655 -0.1054 -0.0243 -0.0622
38175W        W56922   0.784  31.787  25.652  0.0971  0.0274  0.0939
38176W        W56923   9.271  20.183   1.360 -0.1756  0.1034  0.0776
38177W        W56924   2.812   6.179   8.614 -0.0397 -0.2007 -0.1659
38178W        W56925  30.899  19.095  19.703 -0.1897  0.0196  0.0102
38179W        W56926   7.435  10.729   4.052  0.1924 -0.0420 -0.0909
38180W        W56927  10.681  17.526   8.158  0.2328 -0.2647 -0.2623
38181W        W56928  19.362  29.555   4.703  0.1777 -0.2159  0.3143
38182W        W56929   2.546   1.833  26.150  0.1274  0.3277 -0.4098
38183W        W56930  34.357  19.362   8.685 -0.1064  0.2843  0.2448
38184W        W56931  18.862  32.301   4.479  0.2912 -0.0311 -0.0675
38185W        W56932   5.831  32.824   1.505 -0.0672 -0.1841 -0.1478
38186W        W56933  31.592   1.225  21.920  0.3324  0.1916 -0.1456
38187W        W56934  17.972  22.814  13.213 -0.1232  0.1832  0.2954
38188W        W56935  28.863  24.278  26.168 -0.0075  0.0138 -0.2874
38189W        W56936   9.881  30.961   6.371  0.0235  0.2420  0.0146
38190W        W56937   5.228  29.330   3.304 -0.2662 -0.3127 -0.2437
38191W        W56938   3.946   1.643   9.900 -0.0953 -0.1390 -0.3216
38192W        W56939  16.697  12.626  24.939 -0.0646 -0.2584 -0.1018
38193W        W56940  16.242  22.846  25.720  0.3658 -0.0808 -0.0919
38194W        W56941  25.898  25.150  18.395  0.1423 -0.1000  0.1131
38195W        W56942  26.028  17.295  19.033  0.1207  0.2778  0.1437
38196W        W56943  10.220  15.662  26.083 -0.1511 -0.2554 -0.5144
38197W        W56944  27.341  17.573  14.839  0.2324  0.1564 -0.1275
38198W        W56945  12.093  15.430   4.184 -0.0914 -0.0077 -0.0456
38199W        W56946  28.497  19.659  25.297  0.0200 -0.2115 -0.2276
38200W        W56947  22.188  33.325   2.612 -0.1787 -0.2966  0.1581
38201W        W56948  24.575   2.631   7.026  0.1165 -0.0796  0.1155
38202W        W56949  21.872   5.899  21.630 -0.0028 -0.2724  0.1139
38203W        W56950   3.763  31.428   7.834  0.2410 -0.3477  0.0710
38204W        W56951   8.790  28.384  24.970 -0.1412  0.0657 -0.0698
38205W        W56952   5.625   0.231   7.870  0.1453  0.1962 -0.0286
38206W        W56953  21.570   7.472   6.409 -0.1877  0.1878 -0.1290
38207W        W56954  16.426   9.980  20.061 -0.0687 -0.2568  0.2581
38208W        W56955  25.966  11.486  19.414  0.1280  0.0384  0.3569
38209W        W56956  18.236  24.690   9.965 -0.0840  0.1082  0.1355
38210W        W56957  25.359  10.682  17.543  0.1740  0.0189 -0.3383
38211W        W56958   7.392  17.870  19.334  0.4052  0.1776 -0.4302
38212W        W56959  27.638   8.624  15.373  0.2405 -0.0177  0.0694
38213W        W56960  17.037  26.653   5.970 -0.1308  0.0293  0.2092
38214W        W56961  18.444   5.842  10.127 -0.1512 -0.0486  0.2036
38215W        W56962  33.627  30.387   3.850 -0.1962 -0.2240  0.2377
38216W        W56963  25.496  27.923  14.862 -0.0007 -0.1576  0.0874
38217W        W56964  21.684   6.297  25.934 -0.0364 -0.3311  0.1391
38218W        W56965  32.013  14.857   8.965 -0.1850  0.0609 -0.3035
38219W        W56966  11.046   3.055   3.361  0.0979 -0.3296  0.0319
38220W        W56967  23.829  31.938  15.442  0.0095 -0.0035  0.3646
38221W        W56968  12.641  21.518  11.132 -0.0501 -0.1606  0.2677
38222W        W56969  28.907  21.833   5.752 -0.2816 -0.0399  0.0762
38223W        W56970  20.700   8.223  22.647  0.0145  0.2449  0.2741
38224W        W56971  15.497  15.196  22.003  0.0754  0.3689 -0.0352
38225W        W56972   8.046  17.506  21.138  0.3314 -0.1823 -0.1657
38226W        W56973  31.319  30.191  11.804 -0.1105  0.2385 -0.3339
38227W        W56974  23.108  12.890  18.555  0.2332  0.1212  0.0452
38228W        W56975  22.200  13.482  21.462 -0.0409  0.0954 -0.0542
38229W        W56976  29.715  12.921  13.376  0.0264  0.0490  0.1106
38230W        W56977  28.766  29.723  17.300  0.0310  0.1477  0.1179
38231W        W56978  30.409  18.930   9.942 -0.1814  0.0915 -0.2147
38232W        W56979  15.439  26.032  15.647  0.2782  0.0842 -0.0652
38233W        W56980   6.276   9.067  18.752 -0.4540  0.2660 -0.1954
38234W        W56981  33.585  25.524  22.203  0.2158 -0.2347 -0.2614
38235W        W56982  32.721  18.769  14.537 -0.0835  0.0727  0.2023
38236W        W56983  10.739   7.192   1.827  0.0440 -0.1798  0.2457
38237W        W56984   6.065   6.762  25.419  0.0223 -0.1630 -0.1876
38238W        W56985  26.891  28.262  17.743 -0.1115  0.2412  0.2002
38239W        W56986   4.845  24.599   5.240 -0.1624 -0.1189  0.1580
38240W        W56987  26.516  35.323  20.956 -0.0657 -0.2387  0.0813
38241W        W56988  13.825  19.793   1.938 -0.0608  0.1107 -0.1290
38242W        W56989  16.046  12.256   1.620 -0.3426 -0.0503 -0.1022
38243W        W56990   4.956  18.695  19.203 -0.2047 -0.1524  0.1658
38244W        W56991  20.248  22.380   3.051 -0.0549  0.1754 -0.0913
38245W        W56992   3.808  33.324   6.404  0.1675 -0.0438 -0.1872
38246W        W56993  34.292  15.741   9.972  0.0605  0.0905  0.1176
38247W        W56994  14.650  34.343  22.869  0.0517 -0.0099 -0.0041
38248W        W56995  15.192  29.408   2.017  0.0735 -0.2015 -0.0784
38249W        W56996   5.537  16.378   2.459 -0.1159  0.0519  0.0218
38250W        W56997  26.379   7.284  12.014  0.0640  0.0284  0.2290
38251W        W56998  17.238  18.837   1.798 -0.1252  0.1765 -0.1256
38252W        W56999  11.957  22.413   8.000 -0.0200 -0.2115  0.3367
38253W        W57000  20.443  21.685  25.861  0.1236 -0.1791  0.0028
38254W        W57001  32.400  31.325   2.936  0.0359 -0.1643 -0.1443
38255W        W57002  34.452  24.283   0.067 -0.0112  0.1030  0.1535
38256W        W57003  13.749  18.675  12.371  0.1629 -0.3367  0.3359
38257W        W57004  21.302  10.409  24.326 -0.3529  0.0789 -0.1441
38258W        W57005  30.692  15.706   7.819  0.1135  0.2859  0.4212
38259W        W57006  25.115   8.626  16.884  0.2489  0.0346 -0.0810
38260W        W57007  14.394   2.169  21.810 -0.1169  0.3177 -0.0958
38261W        W57008  34.265  11.080  21.998 -0.1677  0.0383  0.3202
38262W        W57009  24.750  22.125  20.644  0.0383 -0.0125 -0.0327
38263W        W57010  27.845  34.196  12.624  0.2862  0.0904 -0.1264
38264W        W57011  31.047  27.723  16.362 -0.1461  0.3672  0.0186
38265W        W57012  18.247  14.619  17.707  0.1568  0.1028 -0.0966
38266W        W57013   3.082   5.861  26.141  0.0198 -0.0931 -0.0780
38267W        W57014  33.400   5.105  15.168 -0.2382  0.0790 -0.1826
38268W        W57015  33.832  25.846   1.528  0.0839 -0.0069 -0.1013
38269W        W57016   5.479  20.199   7.667  0.0359 -0.2835 -0.0274
38270W        W57017   1.801   0.457  19.325 -0.2839  0.2269 -0.0040
38271W        W57018  29.390  33.776   1.220 -0.1759 -0.0924 -0.1457
38272W        W57019  23.329   9.130  14.348  0.0893 -0.2715 -0.0348
38273W        W57020   1.747  31.127   5.568  0.1590  0.0644  0.2914
38274W        W57021  15.236  32.797   6.590 -0.2539  0.2315  0.2213
38275W        W57022  16.251  34.996   9.543 -0.1109 -0.0814  0.0332
38276W        W57023  17.989  10.343  17.912 -0.0366  0.2227 -0.0971
38277W        W57024   3.483  21.946   1.355 -0.1167  0.0145  0.2210
38278W        W57025  26.365   2.191   2.598 -0.0137 -0.1286  0.2332
38279W        W57026   6.924  15.863   1.767  0.1270 -0.4716  0.2982
38280W        W57027  19.691  20.824  18.048  0.2200  0.2597  0.1433
38281W        W57028  15.018  13.694  20.059  0.0915 -0.1220 -0.0235
38282W        W57029  14.063   7.918   2.715 -0.3977 -0.1754  0.2110
38283W        W57030  35.278   1.377  19.884 -0.0483  0.2475  0.0825
38284W        W57031  19.530  16.634  23.853 -0.2536 -0.0394  0.2953
38285W        W57032  18.321   4.851   0.292  0.0466 -0.1077  0.1045
38286W        W57033  15.127  27.889   0.860  0.1968  0.1915  0.0131
38287W        W57034  29.367  11.758   6.695  0.2270  0.0609  0.1185
38288W        W57035  13.530  33.386   7.943 -0.2903 -0.0772  0.1616
38289W        W57036  11.417  33.979   4.590  0.1094  0.0268  0.0801
38290W        W57037   7.769  14.529   1.860  0.2116 -0.0402  0.1528
38291W        W57038  24.959   2.667  15.955 -0.0559 -0.0340  0.1125
38292W        W57039  32.073  20.028   9.574 -0.1672 -0.1516 -0.0429
38293W        W57040  16.947  31.212   9.926 -0.1425  0.2778 -0.0662
38294W        W57041  22.156  24.445  26.236 -0.0364  0.3268  0.0365
38295W        W57042   8.642   9.708  24.188 -0.1972  0.0343 -0.0927
38296W        W57043  18.788  21.192  19.978 -0.0020  0.3795 -0.0297
38297W        W57044  30.960  26.678  24.321 -0.1404 -0.0180  0.1450
38298W        W57045  30.230  29.385  21.341  0.1440 -0.3621  0.0364
38299W        W57046  29.278  32.968  16.539  0.1524  0.1012 -0.1457
38300W        W57047  34.812  30.361  19.141 -0.1252 -0.1339 -0.0461
38301W        W57048  27.042  16.117  11.281  0.0206  0.0206  0.2907
38302W        W57049  15.139   6.694  11.908 -0.0372 -0.0194  0.1685
38303W        W57050   4.991  25.102  24.273 -0.0198 -0.0146 -0.1675
38304W        W57051  30.540  18.521  10.844  0.3443  0.1238 -0.1072
38305W        W57052   9.369  14.573  10.049  0.0172  0.2021  0.0347
38306W        W57053  16.087   1.190  24.643  0.2969 -0.2916  0.0356
38307W        W57054  25.478  33.028  12.449 -0.1727 -0.1863  0.1164
38308W        W57055   7.353   1.790  13.186  0.0779 -0.0419 -0.2394
38309W        W57056   1.965  32.759  23.568  0.0605 -0.1169  0.0408
38310W        W57057   0.042  16.377  22.288 -0.2893 -0.3409 -0.0575
38311W        W57058  33.631  20.961  21.326  0.0068 -0.1235  0.1771
38312W        W57059  29.157  17.892  23.277 -0.0942  0.1608 -0.0336
38313W        W57060  12.430   1.854  21.858 -0.2117 -0.0118  0.0614
38314W        W57061  23.494  19.792  15.962  0.0425 -0.1366 -0.3203
38315W        W57062  26.835  31.703  11.263  0.0792  0.0653  0.1837
38316W        W57063  10.202   9.119  22.324 -0.1564 -0.1896 -0.3380
38317W        W57064  13.356   4.574   8.870 -0.2428  0.1636  0.1679
38318W        W57065  23.693  35.133  17.635  0.0828 -0.1918 -0.0583
38319W        W57066   8.032  23.936  10.544  0.1737 -0.0041  0.2614
38320W        W57067  28.628   8.520  12.688 -0.0301 -0.0116 -0.0901
38321W        W57068   8.537  28.569  12.321 -0.2337 -0.1184 -0.2574
38322W        W57069  30.853  16.605  11.693  0.2507  0.1985 -0.0736
38323W        W57070  33.666   6.223  25.975 -0.1258  0.1039  0.1736
38324W        W57071  29.001   5.198  14.537  0.3225 -0.0398 -0.0274
38325W        W57072   1.980   5.584   7.591  0.2801 -0.0679 -0.4068
38326W        W57073   9.897   2.738  11.471  0.0683  0.0059 -0.2880
38327W        W57074  14.615  18.320   4.687 -0.2590 -0.1188  0.1995
38328W        W57075  28.686   6.605  17.637  0.2722  0.1934  0.1930
38329W        W57076  27.621   9.615   9.907  0.0037 -0.2392  0.1340
38330W        W57077   7.571  27.102   2.138  0.3648 -0.0038 -0.1018
38331W        W57078   2.833  16.559   0.231 -0.0813 -0.1343  0.0845
38332W        W57079  25.242  21.283  10.831 -0.1682  0.3118 -0.0965
38333W        W57080  17.600   2.499   6.732 -0.3206  0.0426  0.1832
38334W        W57081  18.844  17.634  26.026 -0.3745 -0.0402 -0.0372
38335W        W57082  10.225   1.967  20.649 -0.2270  0.1403 -0.0780
38336W        W57083   3.590   9.165  22.817  0.0171 -0.1869  0.1345
38337W        W57084  32.525  23.796  18.912  0.0730 -0.4949  0.0413
38338W        W57085   8.806   2.681  22.887  0.0777  0.0607 -0.0249
38339W        W57086  29.138  26.475  13.846  0.2706 -0.0204  0.0738
38340W        W57087  14.575   3.763  18.265  0.3768 -0.2992  0.0789
38341W        W57088  28.369  14.106  18.664  0.0622  0.3320  0.3009
38342W        W57089   0.196  30.938  23.108  0.2464 -0.1329 -0.0907
38343W        W57090   6.016   6.294  24.125 -0.0611  0.0040  0.2256
38344W        W57091  11.209   7.827  22.235  0.0404  0.1468 -0.0664
38345W        W57092  19.098  24.521  25.655  0.1694 -0.1589  0.1468
38346W        W57093  28.042  10.892   7.145  0.0169  0.1983  0.1890
38347W        W57094  12.605   4.377  23.931  0.0044 -0.1369  0.3209
38348W        W57095   3.224  28.817   4.895 -0.1148  0.1446  0.1042
38349W        W57096  13.944  12.243  13.184 -0.0642  0.0243  0.0716
38350W        W57097  34.624   7.440  20.867 -0.1190 -0.0818  0.0192
38351W        W57098   4.885  20.492  22.356 -0.0502  0.1847  0.0869
38352W        W57099  23.022   3.328  15.913 -0.0369  0.1460 -0.1263
38353W        W57100  21.410   3.618  24.751  0.1279  0.1916  0.1252
38354W        W57101  30.845   7.950   9.304  0.0914  0.2671 -0.0135
38355W        W57102  14.045  31.774  21.161  0.1251  0.0860 -0.1209
38356W        W57103   8.538  11.595   6.561  0.1335 -0.1002 -0.0284
38357W        W57104  23.398  33.647  18.074 -0.1415 -0.0268  0.0662
38358W        W57105  13.920  33.198  25.710  0.3284  0.1464  0.0370
38359W        W57106   9.220  29.773   4.207 -0.1880 -0.1080  0.0413
38360W        W57107  33.904   5.262  20.589  0.0131  0.3125 -0.0174
38361W        W57108   9.135  23.663   5.211  0.2031 -0.1163 -0.2090
38362W        W57109  15.959   0.361  19.755  0.1633 -0.0220 -0.1020
38363W        W57110  19.286  13.436   0.137  0.3100  0.1711 -0.2967
38364W        W57111  23.140  16.026  24.985  0.0391  0.3316  0.3062
38365W        W57112   0.986  29.103  20.811  0.2926  0.0231 -0.0893
38366W        W57113   6.253  16.625   3.051 -0.1254 -0.0784  0.0429
38367W        W57114  25.324   2.497  15.223 -0.0843  0.0654  0.0350
38368W        W57115  22.914   0.570  23.459  0.0130 -0.1678 -0.0373
38369W        W57116  22.301  30.764  22.366 -0.2709 -0.0047  0.0368
38370W        W57117  23.113  28.724  23.375 -0.0115 -0.2595 -0.1938
38371W        W57118   2.118  25.773   3.453 -0.0786  0.2687 -0.0901
38372W        W57119   6.898  28.658   4.959  0.1509  0.0120  0.3924
38373W        W57120  15.634  31.689   2.681 -0.2425  0.0321 -0.1329
38374W        W57121   9.827  16.065  22.577  0.4068  0.0273  0.3404
38375W        W57122   6.015  10.470  23.966 -0.2230 -0.1504 -0.1986
38376W        W57123  20.477  28.959  22.075  0.0403  0.0205  0.0248
38377W        W57124  20.160  20.917   3.809 -0.2046  0.2937 -0.2583
38378W        W57125   9.551   5.712  23.898  0.1847 -0.0104  0.1991
38379W        W57126  11.863   3.930  12.226 -0.1481 -0.0931  0.1224
38380W        W57127  14.374  26.155   1.017  0.1269  0.3701 -0.0275
38381W        W57128  32.642   1.320  19.109  0.0125 -0.3397  0.0883
38382W        W57129  18.461  15.111  25.255 -0.0523 -0.1153 -0.1322
38383W        W57130  23.445   3.402   0.445 -0.1761  0.0065  0.1555
38384W        W57131  25.607  13.609  15.685  0.0570 -0.0991  0.0338
38385W        W57132  32.171  21.510  16.006 -0.0805  0.0470  0.0025
38386W        W57133  25.589  12.726  15.970 -0.1069 -0.1122  0.3021
38387W        W57134  34.197   6.755  19.103 -0.0315 -0.1172  0.1080
38388W        W57135  25.489  28.086  20.866 -0.3500 -0.0915 -0.2978
38389W        W57136  13.085  23.043  13.358  0.1016 -0.1941 -0.2407
38390W        W57137   7.843  26.436  11.055  0.1590 -0.0683 -0.1910
38391W        W57138  10.482  17.933   3.089  0.1795  0.0373 -0.4102
38392W        W57139  29.853   3.831   0.109 -0.1299 -0.1213 -0.1369
38393W        W57140   6.445  21.168  20.820  0.1883  0.2016 -0.1010
38394W        W57141   1.062  32.221  25.383 -0.0378  0.2113  0.3080
38395W        W57142  28.729  28.180   9.526  0.2077 -0.2350  0.1377
38396W        W57143  13.574  28.292   4.394  0.1727 -0.1457  0.1607
38397W        W57144  25.572  25.514  22.307 -0.0719  0.3663  0.1891
38398W        W57145  20.933  24.340   3.437 -0.1705  0.2000  0.0227
38399W        W57146  11.389  29.847   3.966  0.2734  0.0330  0.0862
38400W        W57147  16.105  21.110  21.612  0.1340 -0.0957  0.0828
38401W        W57148  26.321  17.941  13.712  0.1250 -0.1516  0.0457
38402W        W57149  21.345  34.919   6.418  0.2486  0.3048  0.0564
38403W        W57150  13.123   7.182  22.013 -0.2566 -0.0736  0.1056
38404W        W57151  14.768  13.701   7.838  0.0494 -0.0561  0.1399
38405W        W57152  19.922   5.360  10.739 -0.0930 -0.3033 -0.1876
38406W        W57153  26.808  15.050   9.644 -0.1312 -0.3327  0.1221
38407W        W57154   2.262   9.984   4.692 -0.1653  0.4076  0.2978
38408W        W57155   5.566   1.991   0.126 -0.1978 -0.1555  0.1352
38409W        W57156   9.677  14.972   2.486 -0.1912  0.0959 -0.1929
38410W        W57157  18.075  18.963   5.121 -0.1039  0.2464 -0.1118
38411W        W57158  33.674   4.466   5.175 -0.0277 -0.1293  0.3219
38412W        W57159   6.050  16.989   7.886  0.1425 -0.0082  0.4677
38413W        W57160  20.336  21.408  23.146  0.2874  0.4722  0.3693
38414W        W57161  13.843   6.941  11.934  0.0551  0.4756  0.4275
38415W        W57162  29.604  13.865  22.836  0.0354  0.1597  0.1422
38416W        W57163  30.113  11.472   9.668  0.0129  0.2114  0.0264
38417W        W57164  12.132  11.791  11.488 -0.0845 -0.0352 -0.2404
38418W        W57165  20.142  20.057   3.795  0.0123  0.1346  0.1309
38419W        W57166   3.615  23.083  19.256 -0.3842  0.1042  0.0467
38420W        W57167  28.765  32.205  17.217 -0.2743 -0.3704  0.0555
38421W        W57168   4.326   3.872   6.787  0.0708  0.0271 -0.0643
38422W        W57169  11.217   4.652   4.282  0.1157  0.3318  0.0648
38423W        W57170  13.622   1.670  25.273  0.1464  0.0519  0.1485
38424W        W57171  13.179  23.617   2.209  0.2112 -0.1887  0.0065
38425W        W57172  28.223  20.084   9.947 -0.4503  0.0877 -0.3030
38426W        W57173  29.095  12.873   0.008  0.2168 -0.1171  0.2327
38427W        W57174  18.981  12.357  19.021 -0.4373 -0.0265  0.1334
38428W        W57175   1.827  23.993  25.290 -0.1822  0.0543 -0.1907
38429W        W57176   8.443  28.551  15.635 -0.4008  0.1058  0.0306
38430W        W57177  17.149  27.645   1.036 -0.0119  0.1641 -0.0848
38431W        W57178  10.471  29.370   7.971  0.0726 -0.0976 -0.1545
38432W        W57179  28.744  10.465  12.039  0.0206 -0.0759  0.0955
38433W        W57180  28.637  24.943  18.078 -0.3871  0.1431  0.0402
38434W        W57181   1.449  12.614  22.671  0.1422 -0.4394 -0.1020
38435W        W57182  32.233  15.872  24.938  0.2247 -0.1635  0.1234
38436W        W57183  21.506  33.098  15.991 -0.1299 -0.0366 -0.0278
38437W        W57184  12.259  21.393  13.333  0.0037 -0.0183  0.0883
38438W        W57185  17.416  20.251  13.696 -0.3745 -0.1592  0.1453
38439W        W57186  14.024  25.222  23.176  0.2131  0.4270 -0.0866
38440W        W57187  35.309   8.813  23.957  0.0480 -0.0748  0.1079
38441W        W57188   2.030   0.163  23.965 -0.1715 -0.1211 -0.0661
38442W        W57189   3.532  17.291   2.537 -0.0498  0.1107 -0.1829
38443W        W57190   5.280  12.653  22.079 -0.0210 -0.0510  0.2634
38444W        W57191  16.067  24.240  25.962  0.1057 -0.0936  0.2541
38445W        W57192  19.288  33.008  16.139 -0.1017  0.0971  0.3103
38446W        W57193  33.085  22.283   7.749 -0.3788  0.0649  0.0481
38447W        W57194  20.975  31.867  16.317 -0.2740 -0.1489  0.2917
38448W        W57195  10.037  32.100  24.157 -0.0062 -0.1855  0.0320
38449W        W57196   4.742  26.926  25.037  0.0901  0.0691 -0.0927
38450W        W57197  13.828   1.613   6.426 -0.0239 -0.2872  0.3052
38451W        W57198  15.091   9.704   7.833  0.1089  0.3147 -0.3356
38452W        W57199   1.876   9.383   2.088  0.3455  0.0737  0.0943
38453W        W57200  17.603  32.397   0.499  0.2383 -0.0404  0.0676
38454W        W57201   8.225  16.897  18.870 -0.0974 -0.0410 -0.1813
38455W        W57202  19.498  20.999  24.332  0.1293  0.2561 -0.2030
38456W        W57203  23.864   8.275   3.368 -0.1200 -0.1754 -0.4586
38457W        W57204  13.764   7.293  21.837  0.0056 -0.0613 -0.1130
38458W        W57205  12.262   9.504   8.926 -0.4882 -0.1963 -0.1117
38459W        W57206   5.393  20.675   4.229 -0.2462  0.1492  0.0183
38460W        W57207  24.675  18.430   8.629  0.0587  0.0258 -0.0802
38461W        W57208   6.095  30.328  13.669  0.1484  0.1110  0.0037
38462W        W57209  24.746   1.103  23.187 -0.1914 -0.0173  0.2925
38463W        W57210  23.105  31.050  17.721  0.0925  0.2219 -0.3971
38464W        W57211   2.502  12.633  22.191 -0.3229  0.0613  0.1643
38465W        W57212  34.823   9.874  16.111  0.1379 -0.1156 -0.1418
38466W        W57213  33.273  10.766  10.643 -0.0231  0.0647 -0.1236
38467W        W57214  28.031  30.891  12.492  0.1453 -0.0048 -0.0417
38468W        W57215  19.428   2.672   2.278 -0.1206 -0.0296 -0.1464
38469W        W57216  17.369  10.940  21.502  0.0054 -0.1013 -0.3837
38470W        W57217   8.037   8.555  12.792  0.2705 -0.0239  0.1460
38471W        W57218  17.123  34.369   1.912  0.0130  0.2773  0.0797
38472W        W57219   0.174  27.684   7.047  0.0497 -0.0177  0.0240
38473W        W57220  23.909   6.802  16.422  0.1782  0.2017 -0.2700
38474W        W57221   1.182   9.630  16.491  0.1385 -0.1083 -0.0874
38475W        W57222   5.483  29.814   8.257 -0.1311  0.0489 -0.0230
38476W        W57223   9.774  33.465   0.125 -0.1907  0.0146  0.2046
38477W        W57224  11.958  20.421   5.253  0.0712  0.1021 -0.3117
38478W        W57225  15.644  15.417  20.117  0.2402 -0.1508 -0.1440
38479W        W57226  16.621  16.379  25.738 -0.0732  0.1321 -0.0809
38480W        W57227  21.547  19.118   0.949  0.0099 -0.0583 -0.0171
38481W        W57228  28.742   6.662   9.911 -0.0140 -0.2785 -0.2610
38482W        W57229  11.302  29.413   8.802 -0.0035 -0.2642  0.2135
38483W        W57230  22.459   5.705   2.518  0.3143  0.2157  0.2259
38484W        W57231  28.407  19.850  15.536  0.3221  0.1462  0.2684
38485W        W57232  20.121  13.445  21.650 -0.1975 -0.1845  0.3652
38486W        W57233  28.247  13.741  18.181 -0.1379  0.3725 -0.0928
38487W        W57234  21.932   9.490  25.966  0.3469  0.0207  0.1792
38488W        W57235   3.815   8.698  19.427 -0.2246  0.2630 -0.0927
38489W        W57236  21.398   8.196  19.212 -0.1692  0.0609 -0.1262
38490W        W57237  22.885  28.630   3.123  0.0957  0.1444  0.0672
38491W        W57238  19.081   6.493  17.108  0.0232  0.2017  0.1889
38492W        W57239  30.057  15.385  18.911  0.4492  0.1898 -0.2554
38493W        W57240   6.888  24.871  11.345  0.1294  0.0312  0.2210
38494W        W57241  22.845  17.791  20.127 -0.1332  0.3304  0.0972
38495W        W57242   4.116  17.759  23.202 -0.4944  0.6768  0.0809
38496W        W57243  20.406  10.223   0.150 -0.0792  0.0290  0.0610
38497W        W57244  15.990  14.210  25.322  0.0061 -0.0940  0.1528
38498W        W57245  35.129  17.585  13.554 -0.1475 -0.0811  0.1889
38499W        W57246  12.695  23.506  10.812  0.0077 -0.0505 -0.2280
38500W        W57247   0.472  12.494  19.140  0.1438 -0.0343  0.2341
38501W        W57248  15.941  11.234   9.851  0.0585  0.0362 -0.1645
38502W        W57249  33.686  28.490   1.235 -0.1302 -0.1417 -0.1349
38503W        W57250  17.341  18.081   0.873 -0.1855  0.3584 -0.0888
38504W        W57251  35.316  22.455  12.154 -0.1400 -0.0088  0.0257
38505W        W57252  30.069  11.435  24.318  0.0355  0.1588  0.3080
38506W        W57253   1.892  28.955  24.982 -0.1127 -0.0237  0.2545
38507W        W57254  32.026   4.116  25.029 -0.0110 -0.1372 -0.0720
38508W        W57255  31.219  32.380  22.226  0.1790 -0.0278 -0.1357
38509W        W57256  16.568   6.867  12.761 -0.0824 -0.2902 -0.1688
38510W        W57257   8.509  10.542  19.175  0.0974 -0.3294 -0.3516
38511W        W57258  31.324  19.431  23.493  0.4551 -0.2349  0.0878
38512W        W57259   1.530   7.607   1.195  0.2212  0.2029  0.0875
38513W        W57260  28.742  29.629  19.274 -0.1023 -0.0939 -0.1932
38514W        W57261  12.857   6.675   5.347  0.1751  0.1681 -0.1266
38515W        W57262  11.097  12.804  21.833 -0.0091 -0.3311  0.0562
38516W        W57263  22.493  33.102   6.315  0.0579  0.0500 -0.3471
38517W        W57264  10.894  14.544  19.206  0.4960 -0.3565  0.0075
38518W        W57265  18.038  12.125   4.630  0.0453 -0.0178 -0.1001
38519W        W57266   7.707  35.187  15.009  0.1753  0.0678  0.0173
38520W        W57267   7.338  30.204   9.091  0.2604 -0.1098  0.1428
38521W        W57268  32.637  11.704   8.562  0.0469 -0.0901 -0.1923
38522W        W57269   0.184  17.721   1.185  0.2540  0.1606 -0.2099
38523W        W57270  19.389  13.176  20.190 -0.0649 -0.1783 -0.0804
38524W        W57271  15.787  29.406  13.098 -0.0601 -0.0589 -0.1727
38525W        W57272  31.079  25.657  12.797  0.0942 -0.0216  0.3808
38526W        W57273  10.001   9.592  24.275 -0.1059 -0.0126  0.0330
38527W        W57274  30.049  22.654  17.414  0.0874  0.1804  0.0201
38528W        W57275  12.868  34.566   0.430  0.4127 -0.1969  0.4433
38529W        W57276   3.741   0.709   9.004  0.4640  0.2133  0.0992
38530W        W57277  30.445  26.811  17.202  0.1605  0.0273  0.0618
38531W        W57278  17.156   6.358   6.422 -0.2319 -0.1010 -0.0874
38532W        W57279  32.594   2.835   4.496 -0.0430  0.2227 -0.0476
38533W        W57280  25.558  19.871  18.599  0.0244  0.3882  0.0150
38534W        W57281   8.477   7.698   2.879  0.0232 -0.1955 -0.0961
38535W        W57282  31.155  29.643   1.918  0.1807  0.1626  0.0971
38536W        W57283   3.730  13.455   4.166  0.0705 -0.1044 -0.4256
38537W        W57284   9.417   0.559  11.948  0.1030  0.0800 -0.1773
38538W        W57285  32.917  18.312  16.801 -0.0411  0.0568  0.4020
38539W        W57286  27.336  34.312  21.924 -0.0879 -0.0051  0.1809
38540W        W57287   7.808   3.135   8.185 -0.1000 -0.2311 -0.1214
38541W        W57288   8.041   2.391   5.067  0.1044  0.0556 -0.2698
38542W        W57289   4.198   4.721   6.462  0.0933  0.0396 -0.0835
38543W        W57290   9.244  28.702  24.818  0.0301 -0.0261  0.1501
38544W        W57291  35.252  22.042  22.576 -0.0846 -0.1865 -0.2715
38545W        W57292  34.374  15.483  19.417 -0.0723  0.2416  0.1395
38546W        W57293  30.714  21.962   9.858 -0.0786  0.3009  0.0091
38547W        W57294  25.303  11.742  12.979 -0.3185  0.1738  0.0276
38548W        W57295  29.160   8.184   8.612  0.1738 -0.1152 -0.3201
38549W        W57296  27.517  35.183  10.387  0.0409  0.1864 -0.0618
38550W        W57297   8.166   4.791  10.288 -0.0278 -0.0768 -0.0883
38551W        W57298  34.966  21.731  23.708  0.1811  0.0589 -0.1856
38552W        W57299   3.620   4.702   6.394 -0.3033  0.2445  0.1722
38553W        W57300  29.647  16.548  11.056 -0.1880  0.4508 -0.0836
38554W        W57301  28.067   5.033  14.813  0.1020 -0.0867 -0.0839
38555W        W57302  14.858   1.450   1.219 -0.2066 -0.1840  0.0758
38556W        W57303  27.143  14.233  12.496  0.3735  0.0782 -0.0258
38557W        W57304  27.718  21.815  18.399 -0.0019 -0.1577  0.0761
38558W        W57305  27.996  11.769   7.873 -0.0741  0.0246  0.2776
38559W        W57306   4.142  19.537   4.574 -0.0297  0.2382 -0.1395
38560W        W57307  14.108  20.690  22.087 -0.1825 -0.0828 -0.0674
38561W        W57308  12.378  14.567   0.569  0.0404 -0.0221  0.1868
38562W        W57309   8.877  23.206  17.050  0.0813 -0.0921  0.2227
38563W        W57310  31.888  11.522  15.597 -0.2161 -0.1179 -0.2980
38564W        W57311  23.968   2.391  17.134  0.2106  0.1966 -0.1085
38565W        W57312  19.064  10.053   5.964  0.0913  0.1319  0.2528
38566W        W57313   2.000   4.486  15.749  0.1655  0.1517  0.1552
38567W        W57314  23.658  19.248  21.752  0.0376  0.0082 -0.1465
38568W        W57315  13.749  24.424  22.807  0.2379  0.3672 -0.3596
38569W        W57316  24.860   4.590   2.031  0.2397  0.1363 -0.1143
38570W        W57317  25.822   7.297   0.635  0.0978 -0.0034  0.1367
38571W        W57318  33.479  27.728  19.220 -0.2939 -0.1399 -0.1493
38572W        W57319  15.799  11.729   7.399  0.3391  0.3180 -0.1067
38573W        W57320  26.056  17.784  14.687 -0.0574  0.0363 -0.0214
38574W        W57321  18.355  14.090   4.104  0.0034  0.0527 -0.1106
38575W        W57322  21.739  17.065  19.681  0.2873 -0.0761  0.2168
38576W        W57323  28.099   6.917  23.332 -0.3738 -0.1335 -0.2659
38577W        W57324  15.110   7.203  24.883 -0.3635 -0.0334  0.0048
38578W        W57325  20.730  25.359  21.634  0.3898 -0.3373 -0.0949
38579W        W57326   0.214  10.494  11.767 -0.0438  0.1100  0.0671
38580W        W57327  20.413  27.240  25.239 -0.1429 -0.5541  0.0331
38581W        W57328   5.906  35.021  12.858  0.1958 -0.0194  0.0376
38582W        W57329   9.593  27.099  22.645  0.0479  0.0453 -0.2201
38583W        W57330  30.251  13.578   7.199 -0.2614 -0.0627 -0.1125
38584W        W57331   6.114   9.941   8.510  0.0801  0.3373 -0.0040
38585W        W57332   1.768   6.005   1.399 -0.0996 -0.3016  0.2281
38586W        W57333   8.185  30.088  13.104  0.0956 -0.0673  0.0460
38587W        W57334  25.884  31.633  19.899  0.3485  0.1631  0.0477
38588W        W57335  33.729  23.272  20.020 -0.3457 -0.0401 -0.0507
38589W        W57336  27.661  18.476  18.201 -0.0649 -0.0209  0.2453
38590W        W57337  23.641  24.339  15.091 -0.2252  0.2178  0.2492
38591W        W57338   1.721   1.301  16.865  0.0276  0.0116  0.1915
38592W        W57339  23.253  15.983  17.281  0.0053  0.2988  0.2045
38593W        W57340   1.383  25.560  18.829 -0.1477  0.0621  0.0549
38594W        W57341  27.111  31.501  12.610 -0.1608  0.0300 -0.0802
38595W        W57342  30.571  19.366   5.192  0.3451 -0.1394  0.0687
38596W        W57343  26.231  11.615  16.291  0.3019  0.1949 -0.0612
38597W        W57344  15.763  32.904   9.447 -0.0614  0.2428 -0.1641
38598W        W57345  27.833   3.709   4.263  0.1209  0.0359 -0.1242
38599W        W57346  33.802  16.516   6.130 -0.1223  0.4039 -0.3164
38600W        W57347   2.554  18.428   1.303  0.1128 -0.2399  0.0473
38601W        W57348  10.701  16.428  20.726 -0.1696 -0.0824 -0.3248
38602W        W57349  14.215  30.433  13.209 -0.1090 -0.2980 -0.0209
38603W        W57350  25.623  29.024   9.971  0.5645 -0.0067 -0.2419
38604W        W57351  23.384  10.670   3.876 -0.1930 -0.2493  0.2793
38605W        W57352  19.183   0.848   3.614  0.0926  0.1872  0.0001
38606W        W57353  29.639  27.967  15.448  0.0273 -0.0556 -0.0854
38607W        W57354   6.548  16.189  25.636 -0.1413 -0.4020 -0.0947
38608W        W57355  26.787   4.468   2.169 -0.1682  0.1987 -0.0449
38609W        W57356  18.955  24.727  22.082  0.0318  0.1145 -0.1693
38610W        W57357  30.006  25.538  17.265  0.0161  0.0816 -0.0101
38611W        W57358  22.910  14.744  19.682  0.0466 -0.2988 -0.0782
38612W        W57359  12.089  25.437  22.817 -0.0995 -0.0827  0.1510
38613W        W57360  17.605  10.753   8.366 -0.2089  0.1237 -0.3473
38614W        W57361  14.991  22.849  12.198 -0.2378 -0.1955  0.0555
38615W        W57362  34.262  31.963  14.665 -0.0150  0.3164  0.1664
38616W        W57363   6.953  14.075  17.747 -0.0511  0.1530 -0.0798
38617W        W57364  33.559  32.603  17.346  0.0380 -0.4856 -0.2756
38618W        W57365   2.846  10.295   0.657 -0.1546 -0.1746 -0.1184
38619W        W57366  14.798   2.615  12.776 -0.1560  0.0266  0.2161
38620W        W57367  16.325  28.241  10.053 -0.0717  0.0366  0.2410
38621W        W57368  21.960  29.286  21.176  0.0531  0.2140  0.0621
38622W        W57369  28.125   4.091   5.542  0.2419 -0.4363 -0.1436
38623W        W57370  20.778  17.999   5.894 -0.0715 -0.0325 -0.1530
38624W        W57371   6.056   2.758   9.294 -0.0492  0.2477 -0.0349
38625W        W57372  10.161  26.544   9.141  0.1012 -0.2158 -0.1643
38626W        W57373  18.257  14.443   7.777  0.2159  0.0385  0.2089
38627W        W57374  29.551  10.592  12.389  0.1377  0.0296 -0.0591
38628W        W57375   9.106  23.772   7.733 -0.0626 -0.1523  0.0164
38629W        W57376  23.393   6.017  16.884 -0.2596  0.0671 -0.3338
38630W        W57377   3.332   8.534  20.904  0.4020 -0.2399  0.1389
38631W        W57378  30.197  17.683  14.875  0.0779  0.4211  0.1000
38632W        W57379   3.484  31.131   4.296  0.0172 -0.0158 -0.0552
38633W        W57380  15.196   2.039  18.021  0.2732 -0.0812  0.0587
38634W        W57381  21.491  13.074   1.676 -0.0159  0.2072  0.1250
38635W        W57382   3.171  25.031  19.497  0.2264  0.2171 -0.2528
38636W        W57383   0.836  34.398  25.903 -0.1988 -0.1138  0.1087
38637W        W57384  23.148  33.049   4.324 -0.1248  0.1646 -0.1421
38638W        W57385  24.309   8.154   5.292  0.1020 -0.1639 -0.0292
38639W        W57386   7.270  22.541  26.090 -0.0026  0.0271 -0.0864
38640W        W57387  20.317  22.336  18.757  0.3394  0.1245 -0.2902
38641W        W57388  13.978  28.497   0.663  0.0895  0.2373 -0.0414
38642W        W57389   3.291   9.401   5.404  0.2702  0.0692  0.2798
38643W        W57390  31.979  14.719  12.853 -0.0540 -0.0210  0.0045
38644W        W57391  29.919  34.975  24.673 -0.3124  0.2533  0.0605
38645W        W57392  34.396   7.623  17.111 -0.2682  0.1105  0.0901
38646W        W57393   7.258   9.898   1.416  0.0618 -0.1167 -0.0195
38647W        W57394  17.984  28.132  20.499 -0.0590  0.1234 -0.0296
38648W        W57395   3.990  12.721  16.527  0.3132 -0.1353  0.1943
38649W        W57396   6.746  29.089   7.061  0.0627  0.0391  0.0777
38650W        W57397  16.755   3.448   4.125 -0.1121  0.2976 -0.3020
38651W        W57398   5.880  11.584  24.047  0.3868 -0.1855  0.1580
38652W        W57399   7.412   9.782  24.811 -0.1767  0.1268  0.0770
38653W        W57400   6.704  27.233  14.386 -0.0137 -0.2545 -0.1612
38654W        W57401   1.382   2.399  21.263  0.1175  0.2030  0.1169
38655W        W57402   9.866   2.599  23.465  0.0899 -0.1415  0.0313
38656W        W57403  25.973   9.603  22.256 -0.0768  0.1715  0.1781
38657W        W57404   0.836  27.181  24.908  0.2481  0.0255 -0.3997
38658W        W57405   5.460  34.133   3.387  0.0863  0.0114 -0.0603
38659W        W57406  20.994  28.916  23.299  0.3286 -0.0997  0.0744
38660W        W57407  26.023  13.410  17.796 -0.1650 -0.1628 -0.2035
38661W        W57408  16.601  14.936  21.547  0.0234 -0.3461  0.2940
38662W        W57409   7.323  10.160   6.802  0.0841  0.3854 -0.3392
38663W        W57410  25.437  22.607  25.691 -0.1148 -0.1682  0.0707
38664W        W57411  17.381  11.870   7.976 -0.5232 -0.0322 -0.1616
38665W        W57412  13.401  12.245  11.874 -0.2435  0.1232  0.0336
38666W        W57413   7.213  31.491   3.934 -0.4023  0.1903  0.1366
38667W        W57414   8.053  20.968   0.166 -0.0484 -0.1996  0.0876
38668W        W57415  22.130  35.347   1.662 -0.5162 -0.0446  0.5344
38669W        W57416   8.313  10.502  10.467 -0.2315 -0.3653 -0.1593
38670W        W57417  11.192  33.375   3.720  0.1901  0.0837  0.2678
38671W        W57418  20.874  13.272  21.923 -0.0772  0.0566 -0.0218
38672W        W57419  17.016  14.351  22.652 -0.0648 -0.3172 -0.2181
38673W        W57420   8.866   3.716   1.701  0.2076  0.1160  0.1139
38674W        W57421  33.492  29.402  14.338 -0.1505  0.0788 -0.1097
38675W        W57422  27.217  21.998   9.627  0.2523  0.0145 -0.3368
38676W        W57423  34.704   3.230   5.776  0.3287  0.2826 -0.0570
38677W        W57424  15.871  28.667  12.284 -0.2870  0.0394 -0.0634
38678W        W57425  14.139  23.848   1.388 -0.0890 -0.2912 -0.1008
38679W        W57426  34.598  32.470   8.013 -0.0243 -0.0331  0.1580
38680W        W57427  29.545  13.327  18.936  0.1018 -0.0000  0.0588
38681W        W57428  18.157   5.760  24.576 -0.2416  0.1252 -0.2162
38682W        W57429   4.070  30.381  21.358  0.1643  0.0937  0.0822
38683W        W57430  27.199  31.112   3.145  0.1505  0.4133  0.0059
38684W        W57431   2.689   0.936  18.878  0.0606  0.4962  0.0335
38685W        W57432  12.147   7.694  20.930 -0.0670  0.0470 -0.2307
38686W        W57433  33.867  19.198  16.142  0.1745  0.1591 -0.2096
38687W        W57434   6.030  13.822  18.428 -0.3517  0.0324  0.1239
38688W        W57435   9.685  29.544  22.488 -0.0740 -0.0376  0.1150
38689W        W57436   6.452  20.008   6.985 -0.0871  0.0500 -0.1300
38690W        W57437   8.280  11.930   6.919 -0.0211  0.0321 -0.2317
38691W        W57438  34.929  35.242  24.795  0.0888 -0.1478  0.0123
38692W        W57439  33.447  19.191  18.455 -0.0252  0.1096 -0.0026
38693W        W57440  30.705   1.197   1.715 -0.3728  0.0424  0.0449
38694W        W57441  15.329   0.732   9.972  0.1695  0.2726 -0.0520
38695W        W57442  34.730  23.366  23.491  0.3281  0.1935  0.3017
38696W        W57443  27.071  24.770  24.707 -0.1095  0.0117 -0.3631
38697W        W57444   5.653  24.689  20.745  0.3460 -0.1511 -0.2175
38698W        W57445  17.424   1.434   2.297  0.0501  0.3811  0.1097
38699W        W57446  23.150  31.836   3.948  0.1404  0.3411 -0.2298
38700W        W57447   8.576   9.597  22.107 -0.1315  0.1082 -0.3220
38701W        W57448  18.493   6.407  23.863 -0.0426 -0.0962 -0.0719
38702W        W57449  19.690  11.300   5.739 -0.1368  0.2424  0.2418
38703W        W57450   5.707   6.242  22.729 -0.1733 -0.2327 -0.0923
38704W        W57451  31.661  27.619  15.464 -0.1230 -0.1991  0.1576
38705W        W57452  12.839  13.545   0.993 -0.3053  0.2090  0.0864
38706W        W57453  16.460  33.102  23.861  0.1470  0.0688 -0.1760
38707W        W57454  28.459  20.173  17.884  0.1938 -0.3719  0.0554
38708W        W57455  12.367  33.816   7.906  0.0276 -0.1155  0.3004
38709W        W57456  34.153  35.340  15.117  0.1169 -0.2170  0.2770
38710W        W57457  26.704  18.010   9.759 -0.1822 -0.0609  0.0102
38711W        W57458   0.127  26.910  19.989  0.2118  0.1952  0.0852
38712W        W57459  29.503  14.675  20.626  0.2246  0.2067  0.2485
38713W        W57460   9.615  27.790   5.989 -0.4777  0.3203 -0.2258
38714W        W57461  22.503   0.501   3.452 -0.0503  0.0903 -0.1557
38715W        W57462  22.934  21.334   0.608 -0.1591  0.0676  0.2437
38716W        W57463  13.556  23.749   8.708  0.2319 -0.0200 -0.2356
38717W        W57464  16.867  22.425   3.431  0.0474 -0.3720  0.2502
38718W        W57465  25.787  27.582  23.058  0.0443 -0.3212 -0.3027
38719W        W57466  10.010   1.534   6.825 -0.0256  0.0751  0.0215
38720W        W57467   4.788  30.187  19.510 -0.0367 -0.2681 -0.3645
38721W        W57468  30.952  14.188  16.902 -0.0869  0.2392 -0.0781
38722W        W57469  21.051  22.818  24.083  0.0033 -0.3199  0.2199
38723W        W57470   6.050  30.366  14.185  0.1881  0.3151 -0.2648
38724W        W57471  21.285  32.920   0.740  0.1380 -0.0967 -0.1107
38725W        W57472  22.591  11.593  24.385 -0.0370 -0.0733 -0.1201
38726W        W57473  20.001   4.340   7.807 -0.1573  0.1631  0.1097
38727W        W57474  12.299  24.204   5.296 -0.1717 -0.0632 -0.0465
38728W        W57475   7.613  11.230  25.184 -0.0956 -0.0777 -0.1257
38729W        W57476   4.546  33.161   3.462 -0.1088 -0.1032  0.1088
38730W        W57477   8.343   0.308  21.665  0.1242 -0.0774 -0.0569
38731W        W57478  23.670  16.436   0.087 -0.2489  0.0483 -0.5625
38732W        W57479  11.586  15.722   1.030  0.1445  0.0991 -0.0310
38733W        W57480  11.462  12.788  21.496  0.0393  0.4200 -0.0017
38734W        W57481   2.656  32.573   6.895 -0.0161  0.0949  0.1617
38735W        W57482   7.246  28.557  22.725  0.2682 -0.1338  0.0429
38736W        W57483   9.885   5.734   5.064 -0.0246  0.2322 -0.3256
38737W        W57484  17.221   3.285   8.831  0.1311  0.1198  0.1593
38738W        W57485  18.562  30.422   3.799 -0.0151  0.1512 -0.1012
38739W        W57486  17.449  35.309  25.325  0.3151 -0.1517 -0.3167
38740W        W57487  20.556   6.206  23.919  0.0096 -0.0790  0.2157
38741W        W57488   6.353  31.966   4.921 -0.0776  0.0552  0.3730
38742W        W57489  24.416  23.109  21.634 -0.1664 -0.2481  0.0775
38743W        W57490   2.492  33.297  19.884 -0.1852 -0.0666 -0.0422
38744W        W57491  12.338  31.326   7.709  0.2165 -0.0905 -0.0739
38745W        W57492  14.660   6.671  21.145  0.0264 -0.2366  0.2203
38746W        W57493  25.312  25.016  24.062  0.0503  0.5395 -0.1940
38747W        W57494  24.639   3.625  18.181  0.0568 -0.1076 -0.1029
38748W        W57495  35.227  32.379  25.536  0.1327 -0.0509 -0.0871
38749W        W57496  34.193  15.009   8.040 -0.0331  0.3290  0.0663
38750W        W57497   7.503  26.438   2.813 -0.2837  0.0340 -0.2359
38751W        W57498   6.813  26.555  11.972  0.1875  0.0983  0.1465
38752W        W57499  33.887  28.983  13.640 -0.3159 -0.2307 -0.3716
38753W        W57500   7.151  24.358   7.469 -0.0189 -0.4297 -0.2445
38754W        W57501  32.362  11.885  12.429 -0.0560  0.2142  0.0738
38755W        W57502  27.096  15.409   8.319  0.1257  0.2517  0.0602
38756W        W57503  14.394  31.106  10.851 -0.0875 -0.1567 -0.0614
38757W        W57504   1.759  34.992  10.567 -0.1110  0.3885 -0.0556
38758W        W57505   9.022  22.047  13.869  0.0265  0.1873 -0.0770
38759W        W57506  14.284  25.891  11.683 -0.1845  0.1897  0.0153
38760W        W57507  35.040  29.159   1.284  0.2717 -0.1115 -0.1471
38761W        W57508  31.296  12.853  22.931 -0.1434 -0.0968  0.2079
38762W        W57509  18.485   0.911  16.482  0.1500  0.0144  0.1044
38763W        W57510  25.925  31.551  13.923  0.0185  0.0103  0.1411
38764W        W57511  24.739   8.578  22.636 -0.0274 -0.1292 -0.4262
38765W        W57512  18.838  29.448   7.733 -0.1234  0.1121 -0.1439
38766W        W57513   9.752  34.647  23.223 -0.0378  0.2868  0.0739
38767W        W57514  16.350  20.238  22.007  0.1078  0.0416 -0.1068
38768W        W57515   4.475  19.302  19.836 -0.4806 -0.0052 -0.1745
38769W        W57516   4.010  34.236  12.885 -0.1506 -0.1361  0.1161
38770W        W57517  14.364  19.186  11.847 -0.0312  0.2030 -0.0362
38771W        W57518   7.959   2.972  12.984  0.0690  0.0280 -0.0828
38772W        W57519   9.963  11.235  25.098  0.1477  0.1039 -0.0778
38773W        W57520  19.044  34.963  20.301  0.0959  0.1196  0.1294
38774W        W57521   0.902  16.583  12.561  0.3252 -0.1009  0.0968
38775W        W57522   3.187  28.558  20.416 -0.1714  0.0232 -0.1740
38776W        W57523  23.661   8.143  20.005 -0.0126  0.2753 -0.2812
38777W        W57524  32.506  26.232  21.658 -0.0717 -0.0591 -0.4088
38778W        W57525  22.735  22.241   1.544 -0.1238  0.1962 -0.0237
38779W        W57526  22.102  15.696  23.071 -0.1261  0.0542  0.0078
38780W        W57527  20.877  22.271   5.579  0.1436  0.3164 -0.0001
38781W        W57528   0.165  29.683   0.047 -0.1498  0.1573 -0.0061
38782W        W57529  35.153  25.153  22.436 -0.0853 -0.0705 -0.3410
38783W        W57530  12.425  22.589  18.055  0.4400 -0.1193 -0.0683
38784W        W57531  10.346   1.706  25.283  0.2337 -0.0465  0.0326
38785W        W57532  19.318   8.153  25.338  0.1314 -0.0743 -0.0609
38786W        W57533  28.679   1.511  18.496  0.1170  0.2374 -0.3449
38787W        W57534  21.672  18.782  17.373  0.1355  0.1679 -0.0759
38788W        W57535   8.481  26.873   2.756 -0.5118 -0.1628  0.0150
38789W        W57536  23.298  30.042   5.537  0.3272 -0.1626  0.2723
38790W        W57537  31.813  27.426  18.008  0.1872  0.1570 -0.0211
38791W        W57538  24.789  22.084  20.152  0.2231  0.0501 -0.1110
38792W        W57539  32.322  17.128  11.265 -0.0703  0.1279  0.2923
38793W        W57540  16.822  29.897  10.036 -0.2012  0.2556 -0.2840
38794W        W57541  15.434  10.406  22.002  0.1012 -0.0581  0.3031
38795W        W57542  15.519   9.672   5.167  0.1342 -0.2615  0.0512
38796W        W57543  13.540  26.282  22.689  0.1369  0.0408  0.1385
38797W        W57544  14.452   8.198   1.669 -0.0963  0.0353  0.3038
38798W        W57545  29.040   2.782  19.937 -0.0015 -0.1101  0.3385
38799W        W57546   9.364  16.989  22.972 -0.0785  0.3482 -0.0818
38800W        W57547  13.774   9.695   2.626  0.2044 -0.0376  0.2568
38801W        W57548  30.632  27.144   4.003 -0.1654  0.0760  0.3916
38802W        W57549   1.329  14.084  13.161 -0.1921 -0.0319 -0.1267
38803W        W57550  20.212   4.734   2.966  0.2021 -0.2245  0.0141
38804W        W57551  26.498   4.322  17.560  0.1172 -0.1929  0.3755
38805W        W57552  28.728   3.379  19.480  0.0003  0.3486 -0.1921
38806W        W57553   7.710   2.446  23.365 -0.0651 -0.0908  0.2746
38807W        W57554  34.608  12.172  12.707  0.3804  0.1009  0.1923
38808W        W57555   7.732  29.911  23.166  0.0607 -0.1011  0.1011
38809W        W57556  15.692   3.989   4.382 -0.1784 -0.0828 -0.1142
38810W        W57557  19.372   6.352  18.942  0.1663  0.0654  0.0133
38811W        W57558  16.315  10.610   2.626 -0.1753  0.0756  0.0696
38812W        W57559  23.831  32.480  16.863  0.2092  0.1649 -0.0057
38813W        W57560  17.284  33.253  24.053  0.2512  0.0450 -0.2887
38814W        W57561   2.476  18.238  11.181 -0.3485 -0.1226  0.2440
38815W        W57562  32.427   1.334  22.051 -0.1297 -0.0032 -0.0323
38816W        W57563  26.363  21.717  14.839 -0.4129  0.1866 -0.1969
38817W        W57564  31.321  16.162  12.256 -0.1170  0.4930  0.2209
38818W        W57565  24.807  16.364  18.213 -0.1689  0.3264 -0.0506
38819W        W57566  21.136  17.161  24.978 -0.3811 -0.1979 -0.0320
38820W        W57567   2.713   4.089   5.523 -0.3986  0.0312 -0.0218
38821W        W57568  33.457  26.509  22.018  0.2008 -0.1162 -0.0328
38822W        W57569  19.902  23.789   6.775  0.3724  0.4576 -0.0444
38823W        W57570  25.012  16.918  16.475  0.0573  0.2136  0.1412
38824W        W57571  12.061   7.682  23.750  0.1450 -0.0769 -0.1164
38825W        W57572  30.326   2.706  23.196  0.1396 -0.3195 -0.1634
38826W        W57573  27.611  13.105  17.756 -0.0502 -0.3369 -0.2861
38827W        W57574   7.146  29.236  25.343 -0.0539 -0.0598 -0.1989
38828W        W57575  33.535   3.407   0.369  0.0924  0.0202 -0.0233
38829W        W57576  16.895  19.471  21.562  0.2722  0.0153  0.2165
38830W        W57577  15.100  34.049  26.052  0.2267 -0.2110 -0.2480
38831W        W57578  27.701  14.932  12.390 -0.2242  0.0734  0.4546
38832W        W57579  23.252  32.901   6.939 -0.0056  0.0101  0.2036
38833W        W57580  21.422  10.646   3.630  0.0210 -0.0431 -0.2773
38834W        W57581  26.008  21.922  25.645 -0.0710 -0.3127 -0.1079
38835W        W57582  25.620   1.607  16.154 -0.2746  0.3366  0.3357
38836W        W57583   9.267  20.085   7.200 -0.2733  0.0061  0.1048
38837W        W57584  35.321  26.599  23.479 -0.1478 -0.1218  0.0896
38838W        W57585   5.264   3.907   2.997  0.1240  0.4825 -0.0018
38839W        W57586   9.505  28.974  15.693  0.0263 -0.4000 -0.2117
38840W        W57587  26.852   8.871  12.673  0.1864  0.1864 -0.4849
38841W        W57588  26.027  26.141  18.078  0.1865  0.0569  0.0137
38842W        W57589  10.654  22.014   3.004 -0.2369 -0.0751  0.2787
38843W        W57590  12.469  34.592  13.638 -0.2540  0.3208  0.1230
38844W        W57591  31.739  15.482  19.714 -0.3713 -0.4099  0.3022
38845W        W57592  22.599  32.360  24.048 -0.0621  0.0180  0.0667
38846W        W57593  31.433  26.072  23.169 -0.1229 -0.2639 -0.3132
38847W        W57594   4.697  33.160   5.875 -0.0216  0.0551 -0.2721
38848W        W57595   0.807  17.144   0.655 -0.0647  0.2356 -0.1180
38849W        W57596  15.409  32.532  23.879 -0.3111  0.0985 -0.3965
38850W        W57597  19.899  18.396  22.624 -0.2540  0.4020 -0.1669
38851W        W57598  29.230   0.713  16.821  0.2052  0.3002  0.0152
38852W        W57599  33.514  34.589  19.652  0.1911 -0.0202  0.0573
38853W        W57600  28.534  11.638  17.863 -0.1095 -0.1981 -0.0222
38854W        W57601   9.162   4.248   9.415  0.1607 -0.0152  0.1110
38855W        W57602   6.590  25.724   8.415 -0.0585  0.5660 -0.0715
38856W        W57603  22.857  13.943   2.466 -0.2897  0.0975  0.0445
38857W        W57604  19.233  25.293   5.822  0.3312  0.0606 -0.1800
38858W        W57605  18.412  33.269  19.497 -0.2271  0.0365 -0.0006
38859W        W57606  32.009  14.332  23.965  0.1173  0.0198  0.0833
38860W        W57607   9.092  27.967   5.005 -0.1969  0.1456  0.2419
38861W        W57608   2.079  17.665  12.602 -0.2167  0.0234 -0.4369
38862W        W57609   7.534   9.791   4.915 -0.2812 -0.0351 -0.0091
38863W        W57610  24.193   3.496   5.888 -0.3718 -0.0606  0.0739
38864W        W57611  15.260  21.682   0.426 -0.1706  0.2478 -0.1339
38865W        W57612  23.483  31.071  11.768  0.1747  0.0015 -0.1841
38866W        W57613  28.853   2.190  15.344  0.2460 -0.2511 -0.1898
38867W        W57614  13.081  21.504  11.488 -0.3785  0.1398  0.1275
38868W        W57615  22.248   2.719  23.025 -0.0774 -0.0998  0.1782
38869W        W57616  15.644   3.758  24.732 -0.0743  0.2034 -0.1437
38870W        W57617   5.693  22.290   5.437 -0.0114 -0.1954  0.0785
38871W        W57618  24.913   5.289  19.777  0.1493 -0.2017 -0.1571
38872W        W57619  21.250  16.365  19.831  0.2041 -0.1026  0.1312
38873W        W57620   2.583  12.085  25.205  0.1214  0.1708 -0.0975
38874W        W57621   4.708   8.696   1.972  0.0215  0.0384 -0.1370
38875W        W57622  18.731   7.701  23.543 -0.1975  0.3487 -0.0492
38876W        W57623  18.445  30.435   7.310  0.0489  0.1466  0.0167
38877W        W57624  14.848  26.670   4.696 -0.0307 -0.0026  0.1398
38878W        W57625  25.407  23.883  24.811  0.2132 -0.1616 -0.3172
38879W        W57626  31.027  18.720  13.442 -0.0181 -0.0535  0.0715
38880W        W57627  27.796  19.736  10.984  0.0716  0.1875  0.3208
38881W        W57628   5.628  15.145   5.547 -0.2208 -0.3630 -0.1549
38882W        W57629   5.261  14.437  17.783  0.3313 -0.2661 -0.2560
38883W        W57630  12.482  32.373  22.025  0.0705  0.1915  0.0450
38884W        W57631  21.871  32.626  21.650  0.3837  0.0482  0.2226
38885W        W57632  13.283  19.383  12.470 -0.2732  0.1644 -0.0411
38886W        W57633  26.671  31.233   3.261  0.2485 -0.1578 -0.3788
38887W        W57634  19.676  22.757  24.327  0.1085  0.1270 -0.1202
38888W        W57635   5.776   8.687  21.132  0.1305 -0.2823  0.1258
38889W        W57636  27.249  16.735   8.004 -0.0731  0.1404  0.0719
38890W        W57637  16.468  30.625  26.194 -0.1947 -0.0887  0.0894
38891W        W57638  18.724  23.542   3.502  0.2184 -0.2210  0.0630
38892W        W57639  28.879  10.006   8.127  0.1636  0.0600 -0.0354
38893W        W57640  28.346  14.953   7.304  0.1155 -0.1840  0.1024
38894W        W57641  25.136  12.217  22.925 -0.2191 -0.0318  0.1572
38895W        W57642  27.977   1.856  20.029 -0.0658 -0.2424 -0.2245
38896W        W57643  10.545   7.774  10.944 -0.2668  0.2200 -0.0374
38897W        W57644   7.143  23.616   4.635  0.1986  0.0140  0.1807
38898W        W57645  20.273   7.063   9.354 -0.1018 -0.0117 -0.1150
38899W        W57646  34.868  23.233  22.576 -0.0765  0.2021 -0.1809
38900W        W57647  11.950  30.640   6.204 -0.0722  0.0978 -0.1346
38901W        W57648  10.104  15.036  19.482 -0.1914  0.0274  0.2841
38902W        W57649  14.414   2.351  17.259 -0.0218 -0.1467  0.3037
38903W        W57650  29.027  24.263  15.630 -0.2057  0.1445  0.1033
38904W        W57651  26.587   8.911  17.972  0.1036  0.0959 -0.1024
38905W        W57652  34.017  11.025  10.522 -0.2113 -0.3123  0.4282
38906W        W57653   9.662   0.646   9.230 -0.3356 -0.2089 -0.2764
38907W        W57654  23.437   2.094   1.481 -0.4097  0.4349  0.1001
38908W        W57655   7.100  34.081   5.329  0.1511 -0.2210 -0.1172
38909W        W57656  11.531  31.210  13.528  0.0739  0.1476  0.0524
38910W        W57657  25.463  34.832  24.792  0.2279 -0.1381 -0.1210
38911W        W57658  34.706  29.360   4.811  0.6086 -0.1306  0.2176
38912W        W57659   7.457  22.351  23.741 -0.2980  0.0535  0.0143
38913W        W57660  12.000  16.321   9.790 -0.1598  0.0793  0.1206
38914W        W57661  24.698   4.884  12.944  0.2455 -0.0469  0.3445
38915W        W57662   3.157   2.799   6.101  0.1010  0.2300 -0.0629
38916W        W57663   3.026  29.861   1.142 -0.3518 -0.2104 -0.1093
38917W        W57664   8.227  33.108  24.691 -0.0032 -0.0924  0.0687
38918W        W57665  20.853  25.581   6.638  0.1564  0.0249  0.2215
38919W        W57666  34.826  17.438   6.976  0.0004  0.4356 -0.4846
38920W        W57667  24.480  24.558   1.418 -0.3579 -0.1106  0.3120
38921W        W57668  18.402   4.634  20.917  0.1989  0.2233 -0.1122
38922W        W57669  13.952  26.087   2.475  0.0472  0.2338 -0.3854
38923W        W57670  33.685  35.311   7.565  0.0336  0.0760 -0.0362
38924W        W57671  34.064  24.497   9.429  0.2589 -0.0919  0.0446
38925W        W57672  20.091  25.569  22.756  0.1277 -0.0930 -0.0007
38926W        W57673  21.014   2.506   3.740 -0.0401 -0.4727 -0.3499
38927W        W57674  26.587  30.555   2.423  0.2048  0.2406  0.1034
38928W        W57675  35.186  30.529  16.978  0.1134  0.3823  0.0024
38929W        W57676  23.249   2.072  23.236  0.1620 -0.1870 -0.1507
38930W        W57677   4.079  24.411  26.152 -0.0818  0.2310 -0.1586
38931W        W57678  30.323  18.621  16.559  0.1814  0.0496 -0.0064
38932W        W57679  20.450  10.348   4.376  0.2895 -0.1736  0.1227
38933W        W57680   9.198   4.321  13.081 -0.0801 -0.0038  0.1137
38934W        W57681  24.579  30.703  21.920  0.0835 -0.0413 -0.1764
38935W        W57682  32.702   9.714  24.126  0.0640 -0.1434  0.0825
38936W        W57683  25.730   0.533   3.778  0.2017 -0.1567  0.0723
38937W        W57684  22.241  28.928  19.957  0.1760 -0.0383  0.2039
38938W        W57685  20.156   2.249  26.077  0.2244 -0.2181 -0.0999
38939W        W57686  27.840   8.190  14.474 -0.1503 -0.3042 -0.1650
38940W        W57687  18.324  34.292   4.951  0.5358  0.2922 -0.0653
38941W        W57688  15.526   9.558   0.289  0.4043  0.1379 -0.1411
38942W        W57689  18.120  19.838  19.609  0.1831  0.2178  0.0707
38943W        W57690  23.861   4.003   1.628 -0.0249 -0.1691  0.0396
38944W        W57691   6.769  27.073   1.232  0.1364  0.0515  0.0507
38945W        W57692  32.133  21.823  12.324  0.2714 -0.0948  0.0712
38946W        W57693  13.917   4.149  25.432  0.0596  0.1435  0.1665
38947W        W57694   2.317   9.936   1.314  0.0133  0.2803  0.5377
38948W        W57695   3.703  18.031   2.246 -0.3622 -0.0874 -0.2713
38949W        W57696  32.736  11.009  19.717 -0.0546 -0.0036 -0.0156
38950W        W57697  31.843  12.451  20.168  0.0626 -0.3640 -0.0726
38951W        W57698   9.928   9.587   2.328 -0.0131  0.2945  0.0342
38952W        W57699  29.709   1.482  16.625  0.0582  0.0203 -0.3607
38953W        W57700  26.467  25.512  22.059  0.0599  0.1500 -0.1267
38954W        W57701  14.207  12.460   9.421  0.0193 -0.0377  0.0958
38955W        W57702   5.059   7.082  25.362  0.0306 -0.3451  0.0996
38956W        W57703  19.305  27.496   8.043 -0.2223  0.0166  0.0656
38957W        W57704   7.143  35.254   7.884 -0.1093 -0.3420 -0.0071
38958W        W57705   0.067  28.772   0.257  0.0315 -0.2785 -0.2410
38959W        W57706  14.765   7.467   9.648  0.0582  0.0749  0.0630
38960W        W57707   4.425  16.867   3.026  0.4163  0.0211 -0.0490
38961W        W57708  30.019   0.431   1.811  0.0027  0.0299  0.1232
38962W        W57709   3.635   4.699   9.948  0.2225 -0.1139  0.1807
38963W        W57710  34.257  15.132  10.466 -0.0633 -0.1667  0.1227
38964W        W57711   8.402   8.997   6.393  0.0749 -0.2415  0.0271
38965W        W57712  30.047   3.544   3.842 -0.2940 -0.2202 -0.0859
38966W        W57713  20.369  17.604  26.250 -0.3946 -0.2700 -0.0496
38967W        W57714  16.801  18.188   2.781 -0.1133 -0.1950  0.0655
38968W        W57715  23.646  21.412  13.557  0.1117 -0.2430 -0.0725
38969W        W57716  23.782  13.411  18.101 -0.0414  0.0896 -0.0410
38970W        W57717  22.151  32.754   6.588  0.0531  0.0047 -0.1066
38971W        W57718  27.790   8.087  21.206 -0.2049 -0.3830 -0.0901
38972W        W57719   7.811   3.421   4.793  0.2696  0.2800  0.1223
38973W        W57720  16.584   9.818  10.921 -0.2980 -0.0214 -0.0580
38974W        W57721  18.484  28.766  19.126 -0.0422 -0.2384  0.0044
38975W        W57722  10.205  19.796  24.728 -0.3665 -0.2918 -0.2276
38976W        W57723  30.379  30.214  21.806  0.0756  0.1149  0.3250
38977W        W57724  30.715  14.881  23.415 -0.1106 -0.0202  0.1769
38978W        W57725   8.196   5.460  24.236  0.1233  0.0778 -0.3069
38979W        W57726  23.252  15.219  15.997  0.0331  0.2569 -0.4441
38980W        W57727   8.061   9.484   9.424  0.0546  0.1881  0.1063
38981W        W57728  32.307  16.356   0.422 -0.3245 -0.3376  0.2645
38982W        W57729   7.931  32.979   0.880 -0.1719  0.2328  0.1801
38983W        W57730  22.892  35.154  22.586  0.3032 -0.0161  0.0083
38984W        W57731  11.303   8.940  12.624  0.0667  0.0343  0.2232
38985W        W57732   4.582   8.928   0.313 -0.0437  0.0278 -0.3687
38986W        W57733   4.540  31.851  21.121 -0.0887  0.2593 -0.2057
38987W        W57734  16.318  10.805   9.706 -0.2136  0.0575 -0.0375
38988W        W57735  27.872  27.342  24.408 -0.1819  0.2755  0.1400
38989W        W57736  11.575   3.849  25.162  0.2063  0.4694  0.0988
38990W        W57737  13.449  13.576  12.379  0.1106  0.0808 -0.0984
38991W        W57738  32.532  16.766   0.207  0.2305  0.2665  0.0640
38992W        W57739  10.164  10.735   2.382  0.2409 -0.0185  0.0491
38993W        W57740   6.799  29.596  21.249 -0.0888  0.1576  0.3300
38994W        W57741  16.487  19.743  25.404  0.2424 -0.0366 -0.1212
38995W        W57742  20.892  13.258  22.925  0.1034 -0.2530  0.0069
38996W        W57743  12.729  15.504   7.097  0.0856 -0.0278 -0.2502
38997W        W57744   5.088  18.130   2.511 -0.0303  0.1011  0.1264
38998W        W57745   0.062   8.399  17.657 -0.0548 -0.0979  0.0375
38999W        W57746  14.447   0.695   6.181  0.1210 -0.2796  0.1346
39000W        W57747  30.533  18.082  19.430 -0.3179 -0.1848 -0.1294
39001W        W57748  28.809  20.097  25.426 -0.0605  0.2162 -0.0989
39002W        W57749  14.928  10.911  19.984 -0.0450  0.2679 -0.0232
39003W        W57750   3.779   6.117  25.694 -0.3387  0.0303  0.3657
39004W        W57751  29.481  15.954  17.299  0.2452  0.1842 -0.2158
39005W        W57752   1.673  21.617  24.630  0.0066  0.0854  0.1396
39006W        W57753  13.999  11.521   3.759  0.0308 -0.0156  0.1905
39007W        W57754  20.581  25.013   5.672 -0.1201  0.0667 -0.1280
39008W        W57755   8.154  18.079  11.864 -0.3233  0.1520 -0.1195
39009W        W57756  28.716  24.985  21.136  0.3574  0.2387 -0.0446
39010W        W57757   4.554  24.222  20.291  0.1908  0.1894 -0.1426
39011W        W57758   7.393  34.316  24.981  0.2282 -0.0069 -0.0929
39012W        W57759   6.849   1.036  13.673  0.1195 -0.0722  0.1444
39013W        W57760  11.119  12.574  25.153 -0.1667 -0.2364  0.1026
39014W        W57761  30.616  23.265   9.288  0.1161  0.6439 -0.0110
39015W        W57762  13.923  20.176  15.883 -0.0299 -0.1575  0.0233
39016W        W57763   7.875  34.499   4.017  0.2185 -0.2253 -0.1534
39017W        W57764  24.700   1.237  16.567  0.1755  0.0255 -0.1209
39018W        W57765  12.540  16.410  10.983 -0.3197  0.0555 -0.2440
39019W        W57766  28.746   4.134  19.830  0.2767 -0.2335  0.2503
39020W        W57767  19.652   1.860   2.237 -0.1710  0.4101  0.1134
39021W        W57768  23.401  20.558  19.892 -0.0464 -0.0003 -0.0711
39022W        W57769   4.711  34.280  21.258  0.0226  0.1269  0.3702
39023W        W57770  23.478  34.404  26.217  0.0053  0.2644 -0.0372
39024W        W57771  12.054  20.775  24.189 -0.0321  0.0153  0.0963
39025W        W57772  20.633  28.202  24.516 -0.1732 -0.0172  0.0189
39026W        W57773  11.443  18.205  20.793 -0.0757  0.1542  0.3096
39027W        W57774   8.791  24.356  15.634 -0.0500  0.3033  0.0997
39028W        W57775   0.060   6.585  22.506  0.0601  0.1448  0.0423
39029W        W57776  27.449  11.004  22.335 -0.0939  0.2863  0.0615
39030W        W57777  29.798  28.088  17.156  0.0098 -0.2147 -0.1357
39031W        W57778  30.089   0.020  24.942  0.0223 -0.0152  0.0273
39032W        W57779  24.016  23.503   0.712 -0.0701 -0.2429  0.2657
39033W        W57780  21.804   1.509   2.150 -0.0676  0.0583 -0.1150
39034W        W57781  33.169  20.874  14.195  0.1242 -0.0276  0.2930
39035W        W57782  10.490  31.341  14.321 -0.1333  0.0583 -0.0303
39036W        W57783  32.934  17.755  12.115  0.0390 -0.0729  0.4204
39037W        W57784  23.370   6.782   4.817  0.0732 -0.1407  0.3232
39038W        W57785  24.238   2.620  17.495 -0.3910 -0.0798 -0.1602
39039W        W57786   4.951   6.928  20.918  0.2443  0.0580  0.1950
39040W        W57787  15.915   5.003  23.176 -0.0886 -0.0753  0.1144
39041W        W57788   8.125   9.801   8.989  0.0001 -0.1298  0.1980
39042W        W57789   7.205   7.620  18.386  0.0676 -0.0902 -0.1584
39043W        W57790  27.267  23.601  16.261  0.2941 -0.0171  0.0435
39044W        W57791  14.409  24.572   6.287  0.1052  0.0758  0.0138
39045W        W57792  15.975   7.334  20.254  0.1409  0.1857 -0.0799
39046W        W57793   3.197   2.947   6.875 -0.0669  0.1327 -0.0544
39047W        W57794  14.670  17.653   5.516 -0.0942  0.1326 -0.0900
39048W        W57795  12.264   4.095  23.081  0.1798  0.1473 -0.2016
39049W        W57796   6.722  17.393  20.091  0.0968 -0.3853  0.0458
39050W        W57797   5.222  22.619  20.570  0.2084  0.0333 -0.1549
39051W        W57798  26.847  21.424  15.797 -0.1962 -0.3219  0.2531
39052W        W57799   8.206  23.094  24.765 -0.0712 -0.1511  0.1432
39053W        W57800  29.916  13.285  13.663  0.0676 -0.2124 -0.1392
39054W        W57801   6.168  34.294  21.619  0.3395  0.3044 -0.1327
39055W        W57802   9.782   2.448  21.565 -0.1623 -0.0595 -0.4158
39056W        W57803   3.848   2.458  19.140 -0.1437  0.1281  0.0360
39057W        W57804  20.978  27.735   6.984 -0.1612 -0.1988 -0.0376
39058W        W57805   9.714   2.169  14.661  0.2455  0.1678 -0.2408
39059W        W57806  14.060  34.179   5.048 -0.1601 -0.0321  0.1306
39060W        W57807  12.049  18.103  24.230  0.3406 -0.1571 -0.3538
39061W        W57808  22.829  33.712  25.765 -0.1518  0.0288  0.3000
39062W        W57809  31.874   8.995  20.454 -0.0922 -0.0069 -0.2943
39063W        W57810  19.814   1.700   1.022  0.1061  0.0046 -0.1669
39064W        W57811  25.908  16.131  17.176 -0.0976  0.0613  0.1736
39065W        W57812   9.909  34.108   8.502  0.2107  0.0314  0.1655
39066W        W57813  17.740  31.846   8.401 -0.1008  0.0372 -0.1152
39067W        W57814  13.886  14.224   2.727  0.2228  0.0101  0.0765
39068W        W57815  25.386   9.011  19.494  0.1886 -0.2393  0.1198
39069W        W57816  25.625   7.270  14.342 -0.2316 -0.4247 -0.0696
39070W        W57817   1.384   5.028   2.914  0.0938  0.1570 -0.0001
39071W        W57818   1.483   0.403   5.753  0.2943 -0.2832  0.1287
39072W        W57819  15.254  29.601  20.114  0.3516 -0.0672  0.1720
39073W        W57820   8.678  11.002  10.997 -0.1768  0.0135  0.2053
39074W        W57821   2.680   0.161  10.652 -0.0686  0.3903  0.2360
39075W        W57822  22.995   9.186  18.303  0.1628 -0.1768 -0.0834
39076W        W57823  28.975  18.598  25.299 -0.3347 -0.0685 -0.0396
39077W        W57824  28.795  28.201  11.659  0.1912  0.1981 -0.1647
39078W        W57825  13.016  24.520   0.889  0.2012 -0.0615 -0.1282
39079W        W57826  31.334   3.586  18.289 -0.2122  0.2822 -0.0736
39080W        W57827   6.994  25.712   5.725 -0.0416 -0.2751  0.4625
39081W        W57828   7.919  14.479  22.435 -0.1130 -0.4583 -0.2807
39082W        W57829  17.373   3.186   7.824  0.2014 -0.1677 -0.0955
39083W        W57830  10.066  27.743  14.129 -0.3059  0.1186  0.1035
39084W        W57831  14.672  10.914   4.167  0.3241 -0.0153  0.0398
39085W        W57832   2.805  30.675   7.928 -0.1817 -0.4782 -0.0624
39086W        W57833   1.736  32.683  25.067 -0.0103 -0.0667 -0.1783
39087W        W57834  18.712  23.012   3.580 -0.2054  0.2037  0.3087
39088W        W57835  24.084  26.856  12.515  0.1194  0.2141  0.0714
39089W        W57836  28.277  16.206  25.872  0.0746  0.0551  0.0599
39090W        W57837  23.264  30.259  23.113 -0.0617  0.3057  0.1964
39091W        W57838   5.328  28.274  24.168 -0.2765 -0.0693 -0.2248
39092W        W57839   9.573   9.774  10.274  0.1109 -0.2911  0.0468
39093W        W57840   7.131  19.141  24.311  0.1058 -0.1904  0.0024
39094W        W57841  11.172  18.559  26.094 -0.0721  0.1414  0.0142
39095W        W57842  14.335  15.023  10.268  0.0373  0.1812 -0.0802
39096W        W57843  19.156  28.195  20.334  0.0910  0.0781 -0.0027
39097W        W57844  18.792  23.341   7.981 -0.1338  0.1665 -0.5370
39098W        W57845  14.168   7.375  24.138 -0.1350 -0.0781 -0.0551
39099W        W57846  12.741  21.492   7.106  0.1286  0.0980  0.0059
39100W        W57847   9.533  10.512  13.094  0.0078 -0.0633  0.1210
39101W        W57848  23.558  12.885  16.408  0.2201 -0.0335 -0.2687
39102W        W57849   9.847   3.296  22.125 -0.2604 -0.1272  0.0729
39103W        W57850  10.551  21.846   2.047 -0.2401 -0.0928  0.0517
39104W        W57851   1.080  12.954  13.558  0.1398 -0.1223  0.0635
39105W        W57852  10.707  12.928   3.275  0.0034  0.2019 -0.1711
39106W        W57853  19.556  26.532  24.229  0.1724  0.0547  0.5438
39107W        W57854  12.015  30.565   4.931 -0.1802  0.1971 -0.2302
39108W        W57855  19.269  13.494  24.949 -0.0132 -0.1353 -0.1626
39109W        W57856  18.208  24.265  19.276  0.0750 -0.0864 -0.2648
39110W        W57857  27.626  13.928   5.627  0.3438  0.1134  0.3198
39111W        W57858  15.252   5.233   7.485 -0.0306 -0.0424  0.3423
39112W        W57859  34.723  18.881  23.026 -0.0068 -0.4784 -0.0102
39113W        W57860  14.112  35.240   7.945  0.1269  0.1748  0.0226
39114W        W57861  33.179   8.397  12.564 -0.0596 -0.4595 -0.1323
39115W        W57862  29.502  16.297   6.104 -0.0057 -0.2563 -0.1448
39116W        W57863  29.889   1.182   5.927  0.0283  0.1777 -0.1234
39117W        W57864  33.356  11.251  17.552 -0.1316 -0.0879 -0.3076
39118W        W57865  18.158  33.957  21.714 -0.0848 -0.1392 -0.5002
39119W        W57866  27.318  27.862  14.318  0.2796  0.3830  0.0582
39120W        W57867   6.336   2.898  21.977 -0.0171  0.0750 -0.0688
39121W        W57868  17.471   8.898  21.942  0.2002 -0.3675  0.0955
39122W        W57869  24.647  25.977  19.673  0.0388 -0.3553 -0.2840
39123W        W57870  29.849   3.603   5.433 -0.4780 -0.3287  0.5075
39124W        W57871  18.468   7.921   0.760 -0.1732 -0.0119  0.0239
39125W        W57872   0.345   3.235   8.019 -0.2653  0.1186 -0.1033
39126W        W57873  10.136   3.133  21.732 -0.0061 -0.0971 -0.3866
39127W        W57874   5.092  27.165  12.965  0.1090  0.1059 -0.0212
39128W        W57875  35.059  21.747  21.006 -0.1482  0.3142  0.2298
39129W        W57876  30.437  13.175  17.201  0.2748  0.0129  0.1346
39130W        W57877   6.466  30.539  23.268 -0.1065  0.0941 -0.2886
39131W        W57878   5.841   7.944   2.594 -0.1571 -0.0277  0.1157
39132W        W57879  13.977   6.527  24.293 -0.1800  0.2401  0.1040
39133W        W57880   1.487  11.484  20.718 -0.2087 -0.0724  0.1601
39134W        W57881   3.114  28.196  21.437  0.0423  0.1653 -0.1425
39135W        W57882  22.154   1.393   4.435  0.1727 -0.1463 -0.0943
39136W        W57883  35.266   3.369  18.154  0.0735  0.3182 -0.1674
39137W        W57884   5.002  33.940  25.999 -0.0949  0.2045 -0.0839
39138W        W57885  26.691  25.706  24.534 -0.4105  0.0433 -0.2057
39139W        W57886  29.053  20.287   4.979 -0.0416 -0.1726 -0.1050
39140W        W57887  27.673   2.308  17.465 -0.0470 -0.2429 -0.1894
39141W        W57888  16.677  13.174  23.361 -0.1748  0.2055 -0.0849
39142W        W57889  26.257  33.794  23.803 -0.1086 -0.2935 -0.0385
39143W        W57890   4.338  32.147   0.482 -0.2533  0.1286 -0.1616
39144W        W57891  10.969  21.537  16.243  0.2988  0.2376 -0.1735
39145W        W57892  11.388   0.003   8.365 -0.0109 -0.2561  0.1834
39146W        W57893   4.428   0.258   8.395  0.0783 -0.3291  0.2121
39147W        W57894  23.436  19.301  19.091  0.2882  0.1323 -0.0534
39148W        W57895  28.876  18.790   5.759  0.1676  0.2443  0.0085
39149W        W57896   0.922  31.183   0.850 -0.0716 -0.0607  0.1418
39150W        W57897  20.441  12.295   5.269  0.0458 -0.0052  0.2548
39151W        W57898  20.953  31.242   4.478  0.1767  0.0687  0.3090
39152W        W57899  31.142  14.502  13.236  0.1374  0.1580  0.1777
39153W        W57900   8.279   3.054   3.891  0.0882 -0.3543 -0.0070
39154W        W57901   1.914  24.317  23.383  0.0103 -0.0744 -0.0492
39155W        W57902  21.182   0.654  20.587 -0.1262  0.0194  0.1422
39156W        W57903   3.266  25.972   1.735 -0.1041 -0.0631  0.1590
39157W        W57904  14.103  31.010  22.727  0.0219 -0.0525  0.2088
39158W        W57905   9.143  24.089  11.944  0.1802  0.0380  0.3142
39159W        W57906  30.636  27.504  12.710  0.2407  0.0486  0.2854
39160W        W57907  31.636  28.602  15.330 -0.1875 -0.0334 -0.0837
39161W        W57908  13.818   7.382  24.543 -0.0464 -0.4290  0.2324
39162W        W57909  25.051  25.213  14.866 -0.0268  0.0227 -0.2672
39163W        W57910  10.900   4.160   6.485  0.1983  0.0497 -0.1625
39164W        W57911  21.197  20.468   4.042  0.2607 -0.0337 -0.1814
39165W        W57912  27.758   8.479  22.462 -0.0368  0.0013 -0.0741
39166W        W57913   5.252   9.169  23.013 -0.0144 -0.2212  0.1839
39167W        W57914   9.686  15.383   6.291 -0.4433 -0.1449  0.1392
39168W        W57915   3.842  15.326   2.890  0.0219 -0.0633  0.3978
39169W        W57916  18.842   9.974   5.493  0.0833 -0.0163  0.1032
39170W        W57917  32.785  34.491  22.872  0.0517  0.2841  0.0153
39171W        W57918  17.596  26.746   1.435 -0.1683 -0.1541 -0.0294
39172W        W57919  13.418  25.611   8.515 -0.0570 -0.0466  0.0489
39173W        W57920   9.662  28.472   7.236  0.1005 -0.4754  0.0733
39174W        W57921  25.569  22.035  22.265 -0.3695 -0.1731 -0.0559
39175W        W57922  13.788   9.993  12.975 -0.1785  0.4806  0.0413
39176W        W57923   3.730  35.275   0.058  0.1399 -0.2550  0.1090
39177W        W57924   5.863   4.132   8.071 -0.1167 -0.1975  0.0227
39178W        W57925  12.289  18.514   3.929  0.0955  0.0170 -0.0936
39179W        W57926  18.778   2.429  18.915 -0.1237 -0.1455 -0.0790
39180W        W57927   7.882  26.382  22.416 -0.1731  0.0124 -0.0424
39181W        W57928  34.210  14.021  19.962  0.1084  0.1896 -0.0355
39182W        W57929   8.358  26.973  10.669  0.3707  0.0217 -0.1549
39183W        W57930  21.400   0.327   4.386 -0.1625  0.0331  0.0635
39184W        W57931  33.960  15.489  20.702  0.2329 -0.1563 -0.1670
39185W        W57932  13.981  26.911  11.358  0.0567  0.0838 -0.0915
39186W        W57933  32.235  22.518  21.588  0.3536  0.4879  0.1022
39187W        W57934  10.556   7.183  23.736 -0.2474 -0.4467  0.1361
39188W        W57935  32.388  14.930  24.366 -0.1857  0.0146  0.0326
39189W        W57936  17.718  17.449  20.784  0.0498  0.0790  0.1301
39190W        W57937  17.798   8.669  10.209  0.1379 -0.0654 -0.2382
39191W        W57938  31.856   3.226   4.029 -0.0810  0.1106 -0.0885
39192W        W57939  12.967   7.127   2.432  0.2583  0.2430  0.0875
39193W        W57940   9.632   4.222   5.330  0.1072 -0.1908  0.0573
39194W        W57941   1.981  29.511  20.806 -0.2171  0.0872 -0.0072
39195W        W57942  10.282  16.515  20.362 -0.1969 -0.0233 -0.0495
39196W        W57943  20.407   2.323  14.841 -0.0774 -0.1049  0.0010
39197W        W57944  15.927   8.337   2.975  0.0582  0.1311  0.0888
39198W        W57945  22.130   0.349  25.549  0.1035  0.0038 -0.0677
39199W        W57946  23.014   3.114  22.565 -0.0335  0.2999 -0.3720
39200W        W57947   3.777  29.147  24.954 -0.0816 -0.2470  0.1726
39201W        W57948  19.732  25.535   3.183  0.0081  0.0188 -0.1182
39202W        W57949  25.572  35.369   4.468  0.1728  0.2480  0.1383
39203W        W57950  23.710  15.125  19.127  0.0739  0.0334  0.1346
39204W        W57951   4.998   9.275  20.775 -0.1570  0.2211 -0.2577
39205W        W57952  11.260   3.374  10.428 -0.0729  0.0876 -0.1626
39206W        W57953  16.500  11.018  25.885 -0.3762 -0.1137 -0.1810
39207W        W57954  19.077   0.336   5.708 -0.3067 -0.1182  0.2933
39208W        W57955  13.545  27.639   3.483  0.1277  0.0499  0.1276
39209W        W57956  26.427  15.200  10.867 -0.0688  0.0534 -0.1581
39210W        W57957  33.366  19.477  22.388 -0.1188 -0.1435 -0.2720
39211W        W57958  22.125  16.287   1.735 -0.3979 -0.0496  0.1277
39212W        W57959  11.092   1.506   5.062 -0.0153 -0.1724 -0.2125
39213W        W57960  26.832  13.798  20.841  0.3216  0.2542 -0.0242
39214W        W57961   6.496  29.534   1.159  0.0178 -0.2137  0.0579
39215W        W57962   0.829  17.984  24.951  0.1948 -0.0931 -0.2074
39216W        W57963  24.502   9.702  23.984  0.4178  0.1420  0.0593
39217W        W57964  29.183  28.712  10.419 -0.3132  0.3630  0.0402
39218W        W57965  11.520  16.632  23.434 -0.1774  0.1812 -0.0115
39219W        W57966  18.414  21.031   5.265  0.1571 -0.1634 -0.1402
39220W        W57967  11.901  33.546  24.480 -0.1066 -0.1385  0.1058
39221W        W57968  10.177  17.653   5.446 -0.2453 -0.3617  0.0640
39222W        W57969  14.994  34.441   5.852  0.0596 -0.3270 -0.2889
39223W        W57970   6.355  35.338  10.262  0.1120  0.0433 -0.1657
39224W        W57971  18.935   4.268   0.547 -0.2057 -0.1211  0.0424
39225W        W57972  25.251  18.267  20.895  0.0534 -0.0215 -0.0955
39226W        W57973  31.970  20.824  21.300  0.1550 -0.2331 -0.0921
39227W        W57974   6.471  30.236   0.043  0.2659 -0.1994 -0.1217
39228W        W57975   4.537  16.743   3.517 -0.3029  0.0853 -0.3952
39229W        W57976  15.847  23.219   6.211 -0.0638  0.0686  0.0665
39230W        W57977   2.356  18.292  22.253 -0.0982 -0.0197  0.0264
39231W        W57978  31.961  23.636  22.243 -0.0314 -0.4287 -0.0613
39232W        W57979   3.237  14.628  14.701  0.0461 -0.2997 -0.0206
39233W        W57980  31.210   4.402  22.883  0.2964  0.4106  0.4190
39234W        W57981  32.684  20.439   5.784  0.2802 -0.0759  0.0756
39235W        W57982   4.118  23.982   1.743 -0.2619 -0.0773 -0.1673
39236W        W57983  18.461  25.079  21.087 -0.2017  0.2457 -0.1633
39237W        W57984  16.363  21.762   7.175 -0.2226  0.0946  0.0994
39238W        W57985  33.180   9.303  20.434  0.0390  0.0503 -0.1494
39239W        W57986   4.864  30.743  11.260 -0.0334  0.1272 -0.2334
39240W        W57987  18.292   8.385  20.147  0.0946  0.0453  0.1445
39241W        W57988   9.461  34.118  21.646  0.0149  0.0030  0.2435
39242W        W57989  11.370  14.881   5.506 -0.1284 -0.2813  0.0608
39243W        W57990  26.710  26.324  16.495  0.0152  0.1957 -0.2620
39244W        W57991  32.331  17.062  13.559  0.1506 -0.1051  0.1092
39245W        W57992  18.790   5.553  11.172 -0.2290  0.0142 -0.1784
39246W        W57993  31.883  19.613  12.552  0.3431  0.0408 -0.1735
39247W        W57994  17.397   5.410  20.751  0.0901 -0.2879  0.5844
39248W        W57995   2.653   4.409   2.467 -0.0817 -0.0349 -0.0649
39249W        W57996  10.593  19.420  24.684  0.2739  0.0709  0.1693
39250W        W57997  16.675  26.969   6.280 -0.0914 -0.1770  0.2547
39251W        W57998   1.797   6.170  17.672  0.2989  0.2341  0.2770
39252W        W57999   7.141   3.136  25.106  0.2238 -0.1780  0.1186
39253W        W58000  17.056  14.418  19.230  0.1342  0.1002 -0.1022
39254W        W58001  14.003  23.642   6.715 -0.0281  0.1536  0.1850
39255W        W58002  28.616   0.438  26.109 -0.0800 -0.0389 -0.2327
39256W        W58003  21.840  26.190   4.780 -0.1877 -0.0466  0.1294
39257W        W58004  21.712  26.217   5.762  0.0478 -0.1710 -0.1729
39258W        W58005  31.655  10.163   9.131 -0.1127 -0.2466 -0.0590
39259W        W58006  28.137  24.387  23.661 -0.0696  0.2596  0.3792
39260W        W58007   0.543  25.513   2.725  0.1224 -0.1243  0.0467
39261W        W58008   1.647  13.629  16.269 -0.3950 -0.1606 -0.0778
39262W        W58009   9.188   0.233  25.028 -0.1430  0.1554 -0.1383
39263W        W58010  33.823  20.242  16.367 -0.1496 -0.1252  0.0127
39264W        W58011  23.674  33.750  18.575  0.1596 -0.0574 -0.0151
39265W        W58012   3.500  11.351  22.760  0.0215  0.1318 -0.1898
39266W        W58013  29.628   8.887   0.394  0.1908 -0.1112 -0.1147
39267W        W58014  25.869  27.360  12.656  0.2063  0.0848 -0.1668
39268W        W58015  33.536   5.448  20.336 -0.2768  0.1181  0.3538
39269W        W58016  25.072  21.608   9.297  0.2352 -0.0892 -0.1260
39270W        W58017   0.175  17.413  24.836 -0.2477 -0.0704  0.1075
39271W        W58018  32.715   1.432  24.454 -0.0415  0.1553  0.0691
39272W        W58019  32.296  15.856  19.722 -0.0268 -0.3901  0.4262
39273W        W58020   8.495   9.441   9.796  0.2018  0.0072 -0.0660
39274W        W58021  27.774  25.040  12.210  0.1372 -0.1439 -0.0156
39275W        W58022  34.251  20.020  16.364  0.0680  0.2162 -0.1393
39276W        W58023  34.898  11.287  19.276 -0.3424 -0.0074 -0.1875
39277W        W58024  26.468  30.334  18.138  0.1594  0.0918  0.0524
39278W        W58025  29.834   7.212  18.975 -0.0185 -0.0777 -0.0641
39279W        W58026  14.829   7.450  13.328 -0.0472  0.1368 -0.1339
39280W        W58027   6.389  28.315  10.563  0.0077  0.0061  0.1589
39281W        W58028  22.318  23.327  19.862  0.0729  0.1003 -0.0551
39282W        W58029   2.275  10.303  16.424  0.0034 -0.1655  0.0975
39283W        W58030   1.548  11.231  15.675  0.0144  0.1493  0.1439
39284W        W58031  14.641  20.159   9.012 -0.0367 -0.1373 -0.3245
39285W        W58032  32.238  29.812   2.424 -0.0608 -0.0655 -0.2054
39286W        W58033   9.476  34.862   2.312  0.2167 -0.2745 -0.1379
39287W        W58034  13.490   3.897  19.859 -0.2435  0.2532  0.1810
39288W        W58035  17.545  12.229   0.002 -0.0616  0.1198 -0.1423
39289W        W58036  21.672  24.439   6.753  0.1377  0.5055 -0.0696
39290W        W58037  26.658   4.230  15.931 -0.1492 -0.2128 -0.0174
39291W        W58038  20.477   0.821  25.964  0.1064  0.0489 -0.0315
39292W        W58039  35.021  19.385  25.440 -0.2634 -0.0619  0.0915
39293W        W58040  28.347   4.591  16.742 -0.2153  0.0239  0.0261
39294W        W58041  25.690  12.549  17.108 -0.1358  0.0968  0.1428
39295W        W58042  16.751   1.316   9.918  0.0587 -0.0696 -0.3279
39296W        W58043   8.049   5.399  23.250  0.0290 -0.0196 -0.0102
39297W        W58044   0.205  28.418  22.807 -0.0219 -0.0060  0.0766
39298W        W58045  33.287  32.688  13.521 -0.1963 -0.4086 -0.4488
39299W        W58046  14.006   0.737  22.098  0.1222 -0.0029 -0.1901
39300W        W58047  31.429   7.063   3.444 -0.0405  0.0526  0.2105
39301W        W58048  12.744  15.842  11.151  0.3374 -0.0738 -0.0532
39302W        W58049   0.599   1.276  21.302 -0.0062 -0.2406 -0.5411
39303W        W58050  34.053  35.123  26.168 -0.0596  0.0210 -0.1845
39304W        W58051  14.294  34.828  24.491  0.1805 -0.0981 -0.2674
39305W        W58052  11.984  23.576   5.850  0.1702 -0.0164  0.0491
39306W        W58053  26.093  14.423  12.236 -0.1056 -0.0722  0.3005
39307W        W58054   1.376  15.388  14.204 -0.0868  0.2886  0.2629
39308W        W58055  26.121  18.693  25.483 -0.0372 -0.1711  0.0087
39309W        W58056  19.750   8.985  24.863 -0.0232  0.3937  0.0350
39310W        W58057   7.672   6.813  22.871 -0.0097 -0.0156  0.3504
39311W        W58058   9.364  10.441  18.919 -0.2292 -0.1672 -0.2054
39312W        W58059   3.565  11.434   1.952 -0.0434  0.2650  0.1974
39313W        W58060  31.841   8.409  17.349  0.1046  0.2527 -0.0685
39314W        W58061  24.592  12.605  22.427  0.4156  0.0248  0.0392
39315W        W58062   1.290  35.262  22.930 -0.2574  0.1153  0.2555
39316W        W58063   3.557  27.287   1.110  0.1548  0.4004 -0.0401
39317W        W58064  29.730   2.718  14.610 -0.0486  0.0707 -0.0833
39318W        W58065  24.248  25.525  14.282  0.0350 -0.0307  0.0606
39319W        W58066  18.845  33.107   5.204  0.0539 -0.1305 -0.1691
39320W        W58067  29.178   2.777   3.171  0.0823 -0.0179 -0.1398
39321W        W58068  12.995  22.070  11.566  0.0635 -0.2789  0.3111
39322W        W58069  13.519  22.355  10.982 -0.2693  0.1032 -0.0103
39323W        W58070  31.588  22.918  19.478 -0.2642  0.2660 -0.4305
39324W        W58071  21.769  18.624  19.209 -0.3373  0.0984  0.0929
39325W        W58072  29.010  30.527  24.896 -0.3344 -0.4120  0.0588
39326W        W58073  24.159  13.885  21.017 -0.0932  0.3513 -0.3107
39327W        W58074  14.415  29.468   7.520  0.0946  0.0647  0.0381
39328W        W58075  18.840  30.016  25.152  0.1855 -0.0583 -0.0989
39329W        W58076  19.148  24.906  10.814 -0.2024  0.0603  0.1549
39330W        W58077   0.437  27.339   2.462 -0.1654 -0.0012 -0.0424
39331W        W58078  18.520  34.876  22.508  0.2578 -0.0922  0.2202
39332W        W58079  30.460  18.728  25.185 -0.1485 -0.1058 -0.1047
39333W        W58080  33.106   4.553  13.577 -0.2016  0.2501 -0.1002
39334W        W58081  15.925  21.477   7.274 -0.3389 -0.1943 -0.4203
39335W        W58082  11.737  16.431  20.865  0.3837  0.1551  0.0233
39336W        W58083  12.843  26.054   5.354  0.0504 -0.1148 -0.0843
39337W        W58084  32.383   1.051  21.296  0.3177 -0.1263  0.2640
39338W        W58085  32.158  24.887  18.411  0.2354  0.1888  0.1217
39339W        W58086  34.886   2.953  13.706  0.2263  0.3187 -0.0119
39340W        W58087  15.912  22.675  14.306  0.2505  0.1117  0.0278
39341W        W58088  27.655  18.728  21.894 -0.1009  0.0499  0.2697
39342W        W58089  16.294  13.371  12.631 -0.1631 -0.0402  0.2242
39343W        W58090  23.621  11.914  17.676 -0.3728  0.1292  0.3584
39344W        W58091  21.002  31.032  20.366  0.0515  0.0735 -0.0278
39345W        W58092  24.406   4.670  20.220  0.2890  0.0920  0.2891
39346W        W58093  30.591  34.999   0.549  0.1088  0.2711  0.1297
39347W        W58094   2.266   4.214  26.145 -0.1589  0.2636  0.0100
39348W        W58095   1.003  19.137  24.693 -0.0578  0.2100 -0.1533
39349W        W58096   2.430  24.746  17.708 -0.0165  0.0316 -0.0843
39350W        W58097  23.744  23.910  16.065  0.1809  0.1938 -0.0547
39351W        W58098   5.769  27.798  21.638  0.2687  0.1487 -0.0356
39352W        W58099   9.489  13.872   8.549 -0.0437  0.0155 -0.0624
39353W        W58100  32.775  23.014  15.010 -0.1260 -0.1697  0.0300
39354W        W58101   6.714  16.158  17.870  0.0129  0.2493  0.2915
39355W        W58102  15.270  19.860  25.435  0.2967  0.0913 -0.0990
39356W        W58103  16.490  13.744  12.071  0.2067  0.0596 -0.2141
39357W        W58104   8.721   7.398  24.110 -0.0389 -0.0076 -0.2392
39358W        W58105  12.003  31.939   5.274  0.0852 -0.1569 -0.1183
39359W        W58106   8.866  34.889  24.794 -0.1110 -0.0600  0.0796
39360W        W58107  34.334  17.932   9.091  0.2178  0.0085 -0.3560
39361W        W58108  15.089  11.834  23.670  0.1484  0.1464  0.1696
39362W        W58109  25.088  22.158  19.416 -0.0633  0.3225 -0.2046
39363W        W58110  20.329   2.674   2.105  0.0676 -0.1011 -0.0856
39364W        W58111  23.007  28.011  12.574 -0.2978 -0.3515 -0.0134
39365W        W58112  22.299  26.947   3.209 -0.0551  0.0734  0.1565
39366W        W58113  18.013   4.248   5.716  0.0787 -0.0801  0.1368
39367W        W58114  18.528   2.489  23.343  0.0489 -0.3580 -0.3312
39368W        W58115  10.427  16.262  24.749  0.0057 -0.2912  0.0017
39369W        W58116   9.278  30.216  25.161  0.0635 -0.3706  0.4158
39370W        W58117  17.333   9.687  23.868 -0.0081  0.0677  0.0062
39371W        W58118  31.200  32.907   5.960 -0.1043 -0.2292  0.2269
39372W        W58119  21.150  27.620  25.345  0.3579  0.2032  0.3015
39373W        W58120  18.874  17.249   8.770  0.0755 -0.2357 -0.3515
39374W        W58121  15.329  28.178   6.583 -0.2687  0.1422 -0.1615
39375W        W58122  31.127   0.418  17.518 -0.0178 -0.0987  0.1566
39376W        W58123  13.337  22.525   6.293 -0.1763  0.1736  0.1924
39377W        W58124   5.623  12.934   0.497 -0.0112  0.2280 -0.0563
39378W        W58125  20.213  31.671   4.047 -0.1491 -0.1682 -0.1177
39379W        W58126   4.182  21.180  17.094 -0.1383 -0.1547  0.4454
39380W        W58127  12.514  34.623  23.715 -0.2103 -0.1710 -0.0643
39381W        W58128   9.918   5.974   6.879 -0.0499 -0.0030  0.3898
39382W        W58129  13.822  26.852   3.439  0.2855 -0.0791 -0.1947
39383W        W58130   6.502  34.184   6.157  0.0119  0.2697  0.2762
39384W        W58131   8.166  33.724  11.389  0.0877 -0.2978  0.1418
39385W        W58132  14.492  20.648   3.092 -0.1210 -0.2059 -0.2804
39386W        W58133  13.334  31.660  14.298  0.3161  0.0291 -0.0876
39387W        W58134  30.571   2.659  16.733 -0.1613 -0.2697 -0.1349
39388W        W58135  30.924   2.593   1.575 -0.0142  0.2173  0.0417
39389W        W58136   9.018  26.164   0.563 -0.0702 -0.2569  0.1458
39390W        W58137  18.588  31.535  20.006  0.1114 -0.1641  0.0238
39391W        W58138  14.185   6.986  12.305  0.1320  0.2585  0.4890
39392W        W58139  24.635   0.373   3.348 -0.0373  0.0344  0.0913
39393W        W58140  19.500  18.685  22.843  0.1477  0.1785  0.5746
39394W        W58141  26.144   2.215  21.051  0.1104  0.0628  0.0682
39395W        W58142  10.512  29.308   0.530  0.0285 -0.1124 -0.1113
39396W        W58143  13.957  19.278   1.915 -0.3260  0.1532  0.4072
39397W        W58144  24.417  12.031  18.647  0.1531  0.2111 -0.2204
39398W        W58145  27.772  24.727   9.602  0.0977  0.4011  0.0261
39399W        W58146  34.194   0.146   5.882  0.0963  0.3562 -0.4413
39400W        W58147   7.536  30.750   6.970  0.0851 -0.1776  0.1016
39401W        W58148   5.030  10.291   2.773 -0.0102 -0.1303 -0.1398
39402W        W58149  33.366  31.134  15.465 -0.0417 -0.0355 -0.3240
39403W        W58150  25.709  31.161  20.730 -0.1501  0.1219  0.0396
39404W        W58151  19.577  17.149   7.592  0.1710 -0.1126  0.0609
39405W        W58152  20.795  16.240  19.702  0.1639 -0.0232 -0.1700
39406W        W58153  14.068  35.100  11.576  0.0940  0.0065  0.0943
39407W        W58154   3.937  19.481   3.632  0.1571 -0.0251  0.1040
39408W        W58155  33.109  30.565  20.038 -0.1199  0.1713 -0.3396
39409W        W58156   9.119  19.884  23.222  0.2048  0.0738  0.2003
39410W        W58157  23.250  24.154   2.967  0.0935  0.0102  0.1514
39411W        W58158   4.162  22.760  24.424 -0.0972  0.2921 -0.1144
39412W        W58159   7.508  15.826  10.126  0.2762  0.1579  0.0973
39413W        W58160   7.512  26.476  16.996  0.0626  0.0157  0.1585
39414W        W58161  16.192  21.523  21.281 -0.2939  0.0507  0.0345
39415W        W58162  30.453  15.342  24.589 -0.1528 -0.0396  0.0823
39416W        W58163  13.900  18.658   5.563 -0.2770 -0.0962  0.3323
39417W        W58164  19.200  34.227   8.777  0.0386 -0.1846  0.1199
39418W        W58165  25.925  23.006  20.523  0.1159  0.0184 -0.1867
39419W        W58166  23.693   4.732  14.250  0.1501 -0.0216  0.1469
39420W        W58167   0.855  32.184   6.221 -0.1321  0.0338 -0.0513
39421W        W58168  14.157  15.864  19.910 -0.0938  0.1310 -0.4180
39422W        W58169   7.108  32.748   1.775  0.0406  0.2045  0.0879
39423W        W58170   1.912  34.990   0.297 -0.1018 -0.2506  0.2092
39424W        W58171  22.634  27.347  23.648 -0.1540 -0.3497 -0.1123
39425W        W58172  25.251   2.895  20.349  0.0030  0.1913 -0.0620
39426W        W58173  28.563  34.499  15.310  0.1013 -0.0482 -0.0269
39427W        W58174   9.065  10.666   5.898 -0.0022  0.2389  0.1204
39428W        W58175  15.464   4.340   6.559  0.3307  0.1262  0.0084
39429W        W58176  15.745  12.244   0.161  0.1550 -0.3445 -0.1467
39430W        W58177  19.154  34.191   1.585 -0.1275 -0.0425 -0.1700
39431W        W58178  34.611  12.889   1.096 -0.1949 -0.2601  0.2047
39432W        W58179   5.720   7.206   8.002  0.1808  0.1573 -0.0734
39433W        W58180   5.755  16.711   9.294 -0.0654 -0.2072 -0.0779
39434W        W58181  28.347  18.118  25.415 -0.2938  0.0140 -0.0444
39435W        W58182   7.905   4.451  10.043  0.1634  0.0733  0.3109
39436W        W58183  34.563  24.763  22.880  0.0573 -0.0669  0.2184
39437W        W58184  16.233  25.187  11.107 -0.0688 -0.0728 -0.0905
39438W        W58185  17.287  12.152  10.340  0.1140 -0.3066  0.0475
39439W        W58186   1.439   8.390  17.444  0.3096  0.0191  0.1478
39440W        W58187  19.549   9.835   6.722 -0.1474 -0.0645  0.1520
39441W        W58188  16.958  17.232  18.955  0.0816 -0.1354 -0.1735
39442W        W58189  15.611   4.248   0.392 -0.1336  0.2101 -0.1658
39443W        W58190   8.683  28.471  23.097 -0.3643  0.1308  0.0598
39444W        W58191   8.501   3.941   0.895  0.3561 -0.0162  0.0649
39445W        W58192  34.534   1.966  16.631 -0.0874 -0.1008 -0.1494
39446W        W58193  14.720  26.519   8.418  0.3402  0.0395 -0.1747
39447W        W58194  25.824  25.294   8.870  0.1775  0.4631  0.1943
39448W        W58195  34.403   9.301  13.753  0.2857  0.2239 -0.0329
39449W        W58196  27.037  19.677  15.321  0.0500  0.0186  0.1587
39450W        W58197  18.401  15.225  10.995 -0.0624  0.2310  0.3545
39451W        W58198  34.930   7.627  23.120  0.0305 -0.0440 -0.1933
39452W        W58199  15.961  28.458  21.198 -0.0871  0.3064  0.2041
39453W        W58200   7.265  22.816   8.870 -0.0622 -0.0113  0.2305
39454W        W58201  19.678  18.330  18.837 -0.0386  0.3000  0.0830
39455W        W58202   7.996  35.109  26.136 -0.1509 -0.0920 -0.1545
39456W        W58203  33.686   4.781  20.411 -0.1562  0.3563  0.2743
39457W        W58204  33.335   3.876   0.091 -0.3015 -0.2186  0.1223
39458W        W58205  28.969   5.123   1.390  0.1240 -0.4877 -0.0084
39459W        W58206   0.442  17.178  16.090 -0.1857  0.2036  0.0144
39460W        W58207  27.931  16.870  21.896 -0.2776 -0.2955 -0.0317
39461W        W58208  20.214  13.260  20.630 -0.0287 -0.2413  0.1241
39462W        W58209  26.619  25.203  17.699  0.0338 -0.1517  0.0579
39463W        W58210  24.318   9.892  24.809  0.1251 -0.0350  0.4029
39464W        W58211  33.522  18.842  10.940 -0.3078  0.0329  0.0252
39465W        W58212  13.442  13.006   8.287 -0.1419  0.1005  0.2319
39466W        W58213  16.760   6.455  22.972 -0.1093  0.0837  0.1039
39467W        W58214   3.650  29.178  22.975  0.0690  0.3087 -0.4132
39468W        W58215   6.748  26.975  10.586  0.0196 -0.0494  0.0156
39469W        W58216  26.457  21.536  22.788  0.0987 -0.0226 -0.1532
39470W        W58217  17.881  20.256  12.294  0.2075 -0.2350 -0.1413
39471W        W58218  28.519  24.030  11.801  0.2223 -0.2337 -0.2150
39472W        W58219  35.291  20.380  12.521  0.1209  0.0169  0.4422
39473W        W58220   6.045   2.774   8.716  0.0749  0.0706 -0.1458
39474W        W58221  19.767   8.266   1.652 -0.2293 -0.0747  0.0695
39475W        W58222   8.653  12.803   1.078 -0.0937  0.0748 -0.1443
39476W        W58223  15.319  32.079   5.238  0.0622 -0.2173 -0.0293
39477W        W58224  17.684  11.487  24.320 -0.0700 -0.1481  0.1415
39478W        W58225  19.589  29.350  17.287 -0.1216  0.3143 -0.0408
39479W        W58226  13.765   5.584   4.595  0.2122  0.0219 -0.0084
39480W        W58227  13.150   4.067   2.384  0.2075  0.0998  0.0618
39481W        W58228  29.630   7.771  15.913  0.1022  0.1800 -0.0441
39482W        W58229   6.827  20.016  20.984 -0.1436 -0.0289  0.1281
39483W        W58230  11.229  17.690  11.533  0.0045 -0.0649 -0.0660
39484W        W58231  21.208  16.007  19.108  0.2662 -0.5012  0.2641
39485W        W58232  17.433   0.845  18.025  0.3276 -0.0853  0.0638
39486W        W58233  19.549  34.662  17.197  0.5950 -0.0711 -0.2000
39487W        W58234   6.410   7.550  23.766 -0.3139 -0.0746 -0.1260
39488W        W58235  28.652   3.141  18.038  0.1095 -0.0947  0.2276
39489W        W58236   3.761   5.639   8.811  0.2161 -0.3267 -0.2095
39490W        W58237   8.481   0.324  14.993  0.1051  0.2430 -0.1048
39491W        W58238   7.116  35.060  13.629  0.0341 -0.3203 -0.1161
39492W        W58239  33.633  28.010  15.598  0.2674  0.0669 -0.3446
39493W        W58240   3.699   0.247  19.261 -0.1004  0.1821  0.1319
39494W        W58241  20.169  12.252   7.754 -0.3199 -0.1860 -0.2364
39495W        W58242  26.832  28.759  12.599 -0.1353  0.1916 -0.1949
39496W        W58243   8.950  13.693   8.917  0.0362 -0.2503 -0.0201
39497W        W58244  28.810  12.402  22.667  0.2666  0.3220  0.2065
39498W        W58245  28.020  10.430  14.818 -0.1445  0.0428 -0.1511
39499W        W58246  23.047  23.362  19.143 -0.1619  0.2130  0.0629
39500W        W58247  34.864  31.233  17.378 -0.1881 -0.2284  0.2492
39501W        W58248   7.650   2.064  24.949 -0.1632  0.2283  0.2461
39502W        W58249   9.528  16.263   2.924  0.1076 -0.2776 -0.0892
39503W        W58250  33.659   3.292  25.814  0.0729 -0.0941 -0.1791
39504W        W58251   9.992  19.494   8.045 -0.0041  0.0939 -0.1802
39505W        W58252  12.573  32.805   7.661 -0.0756  0.1666 -0.1503
39506W        W58253   1.658  16.776  19.861 -0.1530  0.0947  0.2900
39507W        W58254  28.258  16.309  14.992  0.1597 -0.2191  0.3158
39508W        W58255  22.476  21.144  26.245  0.1234  0.2087 -0.1369
39509W        W58256   5.479  15.589  25.206 -0.1111  0.2629  0.2542
39510W        W58257  23.758  25.369  25.805 -0.2405  0.3738 -0.1016
39511W        W58258  29.454  20.024   7.456 -0.0200 -0.1359 -0.0159
39512W        W58259   1.782  19.629  12.228 -0.2261 -0.4575  0.1316
39513W        W58260  15.644   6.355  20.994  0.0239 -0.4512  0.1211
39514W        W58261  29.017   0.092  23.989  0.2781 -0.0693 -0.0581
39515W        W58262   2.142  12.464  19.510  0.0413 -0.1709  0.1476
39516W        W58263  31.952  28.858  24.148 -0.1489 -0.0447  0.2518
39517W        W58264  10.690  26.595  24.020  0.0495 -0.1309  0.2323
39518W        W58265  15.369  15.995   5.212  0.5285 -0.0522  0.0869
39519W        W58266  24.689   2.292   2.763 -0.2368  0.1268  0.4766
39520W        W58267  24.575   2.789  22.252  0.0208  0.0446 -0.2601
39521W        W58268   1.047  17.507  16.432 -0.0256 -0.0028 -0.1720
39522W        W58269  32.424  31.591  25.559 -0.1070 -0.2360 -0.3221
39523W        W58270  22.858  22.144  17.424 -0.1074 -0.2369 -0.2779
39524W        W58271  12.445  16.614  23.520 -0.0728  0.2069 -0.0501
39525W        W58272   0.889  32.483  25.770  0.0126 -0.3264  0.1194
39526W        W58273   0.205  28.874  23.435  0.1166  0.1811  0.0570
39527W        W58274   2.749  10.078   0.151  0.2281 -0.1467  0.4453
39528W        W58275  22.382  25.479  26.179 -0.1284 -0.1868  0.0598
39529W        W58276  12.154   2.520  23.293 -0.2469 -0.0586 -0.0061
39530W        W58277  30.907   0.104  18.913 -0.1336 -0.1433 -0.1033
39531W        W58278  18.460  20.690   2.298 -0.2360 -0.3514  0.0337
39532W        W58279  24.185  11.884  19.431 -0.0196 -0.0987 -0.0082
39533W        W58280  10.018  10.701  25.174 -0.0805 -0.4424  0.0324
39534W        W58281  26.156  28.374  22.317 -0.2152  0.1748  0.0613
39535W        W58282  17.661  34.892  22.012  0.2291 -0.1073  0.1646
39536W        W58283   9.505  17.182  18.861  0.0429 -0.1705 -0.1662
39537W        W58284  11.198  32.446   9.109  0.0448 -0.0830 -0.0716
39538W        W58285  29.424  31.869  14.505  0.2130 -0.2298  0.1501
39539W        W58286   0.418  16.450  20.472  0.1808 -0.2284  0.3772
39540W        W58287  33.806  27.482  18.925 -0.1668  0.0174  0.1493
39541W        W58288   2.028  16.355   2.911  0.4496 -0.0781 -0.0086
39542W        W58289   0.346  31.555  23.798 -0.3287 -0.1120  0.2025
39543W        W58290  23.000   6.551  26.099  0.0250 -0.0505  0.3053
39544W        W58291  18.305   6.366  17.891 -0.0042 -0.1146  0.0464
39545W        W58292  16.033  32.877   7.177 -0.0914  0.0682 -0.1359
39546W        W58293  15.018  20.250  21.762 -0.2500  0.2099  0.2328
39547W        W58294  15.847   6.096  11.304  0.2245 -0.1676  0.1006
39548W        W58295  10.321  10.636   5.298  0.0643 -0.1169 -0.4613
39549W        W58296  13.618  23.244   8.995 -0.0335 -0.2793  0.1804
39550W        W58297  12.560   6.128  20.142  0.1192 -0.0658  0.3497
39551W        W58298  17.172  12.328  24.193 -0.1348  0.0158  0.0633
39552W        W58299   0.590  24.670  22.839  0.1113 -0.1994  0.1665
39553W        W58300  25.205  26.526   2.457 -0.0713  0.0282 -0.0786
39554W        W58301  11.006   0.553  23.455  0.3368  0.3748 -0.0623
39555W        W58302  13.235  20.492   4.546  0.0657 -0.3588  0.0222
39556W        W58303  32.142   5.066  17.142  0.2038  0.0030 -0.1209
39557W        W58304  30.941  11.167   0.124  0.2624  0.3112  0.0393
39558W        W58305  32.315   4.803   1.996 -0.1926  0.0702 -0.0319
39559W        W58306  13.631   4.160   1.152 -0.0780 -0.2708  0.0307
39560W        W58307  28.770   0.717  17.756  0.1384 -0.0469 -0.0506
39561W        W58308  34.358  33.181  22.644  0.2093  0.1699 -0.3904
39562W        W58309   1.580  11.711  14.385  0.1260 -0.0484 -0.2216
39563W        W58310  25.778   7.783  15.978  0.0841 -0.1860  0.2512
39564W        W58311  30.783   2.767  25.604  0.3470 -0.0019  0.0063
39565W        W58312  19.090  31.198  23.042  0.0726 -0.4093  0.2043
39566W        W58313   1.621   8.029  23.054 -0.4884  0.0144 -0.0625
39567W        W58314   0.335  30.468  17.239  0.0030 -0.1381  0.2622
39568W        W58315  28.412  23.276   5.815  0.0727  0.0552  0.0984
39569W        W58316  24.373   3.017   5.544  0.0204 -0.3066 -0.2157
39570W        W58317   8.633  34.941  20.704 -0.1117  0.0629 -0.0918
39571W        W58318  20.111   5.453  17.513  0.1874  0.0659  0.0582
39572W        W58319   8.400  18.576  22.467 -0.1327  0.0414 -0.1854
39573W        W58320  22.021  18.598  26.036  0.0028 -0.0356  0.1895
39574W        W58321  21.951  31.493  23.497 -0.3834  0.0492  0.0695
39575W        W58322   7.625   9.138   6.838  0.1009 -0.1729  0.3486
39576W        W58323  21.031   8.592   3.598 -0.0517 -0.0867 -0.0331
39577W        W58324   3.698  30.351  10.852 -0.0201 -0.3765 -0.0472
39578W        W58325  19.682  21.946   1.862 -0.2538  0.0786  0.0925
39579W        W58326  23.607  35.113   6.169 -0.1679 -0.0871  0.1467
39580W        W58327  18.308  21.364  23.649  0.0221  0.3300 -0.0618
39581W        W58328  31.836  19.413  14.274  0.0956  0.2423  0.0245
39582W        W58329  24.534  21.209  22.710 -0.0758  0.0765 -0.1373
39583W        W58330  13.697  15.020  11.426  0.0727 -0.0456  0.4114
39584W        W58331   8.149  19.272   1.243  0.1219 -0.2135  0.0761
39585W        W58332   9.653   4.213  20.933 -0.0296 -0.0836  0.2309
39586W        W58333  27.316  13.379  18.042 -0.3149 -0.0340  0.2114
39587W        W58334   9.412  23.924  21.886 -0.2489 -0.1234  0.1855
39588W        W58335  25.606  26.493  18.584  0.0860  0.1638  0.1685
39589W        W58336  32.055  32.771  23.762  0.3157  0.0785  0.1605
39590W        W58337  10.960  26.621   8.668  0.0625 -0.1343 -0.1381
39591W        W58338  28.753  15.082   6.571  0.1045  0.0423 -0.2933
39592W        W58339  15.976  13.329  19.412 -0.1783  0.0480  0.0750
39593W        W58340  22.128  20.021  25.231  0.3835 -0.0264  0.3460
39594W        W58341   2.015  18.103  25.639  0.2230  0.0313  0.0075
39595W        W58342  12.370  20.795   8.390  0.0103 -0.4089  0.3551
39596W        W58343  11.549  20.472  13.204 -0.0744  0.3477 -0.0555
39597W        W58344  18.216  32.708  21.336 -0.1543 -0.0364  0.1530
39598W        W58345  10.244  28.328   9.672  0.0196 -0.0450 -0.0105
39599W        W58346  27.064  23.832  10.806  0.1813  0.0704 -0.3699
39600W        W58347  30.870  17.126  23.783  0.0589 -0.2230 -0.2652
39601W        W58348  30.479  30.548   4.150 -0.3417 -0.1089  0.2065
39602W        W58349   5.802  15.970  25.175 -0.2132  0.1540  0.0844
39603W        W58350   2.422  22.222  21.974  0.0121  0.0544 -0.0754
39604W        W58351  31.902  31.822  14.693 -0.1878  0.3124 -0.1159
39605W        W58352   6.519  19.537  20.159 -0.1044 -0.1763  0.0349
39606W        W58353  18.019  29.326   0.722 -0.1712 -0.0264  0.2481
39607W        W58354  33.423   3.357  22.597 -0.1088  0.1226  0.1123
39608W        W58355   4.845  28.465  14.166  0.0188 -0.0030  0.1027
39609W        W58356  10.459  12.562   0.048  0.1624 -0.0609  0.1067
39610W        W58357  25.988  17.163   9.759 -0.1258 -0.2987  0.1552
39611W        W58358  28.989   0.751   4.687 -0.0195  0.2826 -0.2195
39612W        W58359  10.866  18.694   0.201  0.1001 -0.3407 -0.2015
39613W        W58360   7.988   1.634   0.856  0.0066 -0.0225  0.2516
39614W        W58361  14.816  12.566  11.843 -0.1622 -0.1326  0.1838
39615W        W58362  14.343  14.504   3.673 -0.0858 -0.0908  0.0700
39616W        W58363  10.161   5.619  12.020 -0.0803 -0.2781  0.1198
39617W        W58364  34.248  14.922   8.542  0.1888 -0.1004 -0.0090
39618W        W58365  32.852   0.464   4.439  0.0583 -0.0374  0.0285
39619W        W58366  31.744  35.273  17.293 -0.4421 -0.0979  0.0254
39620W        W58367  17.704   3.487  11.110 -0.0487  0.0359  0.0597
39621W        W58368   3.984  32.665   0.427 -0.0587  0.2799  0.2035
39622W        W58369   3.549   3.242   7.733 -0.0314 -0.1771 -0.0709
39623W        W58370  34.409  12.294  18.135  0.1764  0.2927 -0.1119
39624W        W58371  25.260  24.928  21.544  0.1816  0.3023 -0.2064
39625W        W58372  25.166  20.956  24.266  0.0379  0.0038 -0.2228
39626W        W58373  10.901   4.868  19.651 -0.1007 -0.0063  0.2878
39627W        W58374  22.678  19.456   1.071 -0.0043  0.1948  0.0340
39628W        W58375   1.255  12.591  21.504  0.0611  0.0296 -0.1200
39629W        W58376   9.374   8.557  14.142 -0.2367  0.2334 -0.1985
39630W        W58377  27.155  25.827  18.412  0.0351  0.0872  0.1534
39631W        W58378  26.602  25.485  19.078  0.0815  0.0478 -0.0569
39632W        W58379  35.111   9.823   1.477 -0.1194  0.1630  0.2981
39633W        W58380  26.385  14.770  12.351  0.0652 -0.0001 -0.0890
39634W        W58381   3.241  17.696  17.888 -0.0837  0.2602  0.2325
39635W        W58382  27.730  32.762  19.635  0.0281 -0.0845 -0.1131
39636W        W58383   5.933  24.361  24.039  0.2795 -0.1058  0.3309
39637W        W58384  12.305  19.478   8.461  0.1744  0.1613 -0.2171
39638W        W58385  34.263   2.886  23.545 -0.0814 -0.0533  0.0947
39639W        W58386  22.888   3.463   7.151 -0.2480  0.0796  0.1573
39640W        W58387  16.248  11.750   5.734  0.1483 -0.2340 -0.1835
39641W        W58388   8.140   9.720  23.570  0.1569 -0.1658 -0.1263
39642W        W58389   9.263   9.988   5.592 -0.1483  0.2703 -0.0280
39643W        W58390   1.981  22.971   3.525  0.1017  0.2570 -0.0617
39644W        W58391  15.886   0.155  17.856 -0.0216 -0.1109  0.2682
39645W        W58392  28.560  13.180  23.889 -0.1787 -0.0522  0.0589
39646W        W58393   3.120  24.735  20.390  0.2081 -0.2936 -0.2216
39647W        W58394  19.613  29.854   5.056  0.1872  0.2065 -0.1335
39648W        W58395  30.185   1.651  16.832 -0.0102  0.4241  0.2893
39649W        W58396  20.754  14.273  21.279  0.2234 -0.1903  0.1686
39650W        W58397  13.494  32.235  12.398  0.2303 -0.1259 -0.0866
39651W        W58398   6.090  27.969  12.585 -0.1963  0.1694 -0.2702
39652W        W58399  10.247  34.834   5.794 -0.0131 -0.3713  0.0136
39653W        W58400   0.303  10.479  12.259  0.1491 -0.0501  0.0901
39654W        W58401  28.916  11.426  18.805 -0.1662  0.2409 -0.0140
39655W        W58402  12.458  27.963   7.988  0.1145  0.0041 -0.0177
39656W        W58403  19.293  35.305   7.078 -0.1055  0.0513  0.1520
39657W        W58404  29.189   3.520  17.867 -0.1349  0.1503  0.1071
39658W        W58405  32.787  17.444  16.309  0.2076 -0.0485  0.3303
39659W        W58406  23.813  26.782  19.367  0.0489  0.0683 -0.1039
39660W        W58407  35.211  12.492   8.875 -0.1553  0.2872 -0.0309
39661W        W58408  24.241  23.188   1.058  0.0598  0.1733  0.0410
39662W        W58409  14.504  30.444   4.486 -0.0159 -0.1256 -0.1930
39663W        W58410   9.435  21.928  13.127 -0.5330  0.0463 -0.0005
39664W        W58411  13.204   1.863   6.969  0.1313  0.2048  0.0837
39665W        W58412  31.616  25.412  13.434 -0.1336 -0.2564  0.1519
39666W        W58413   8.012  20.072  12.221  0.4394 -0.1176  0.0802
39667W        W58414   1.928  32.353  22.254 -0.1959  0.0237 -0.2623
39668W        W58415  15.690  22.041  10.491 -0.0448  0.1814 -0.1483
39669W        W58416   0.205  26.859  25.167  0.2386  0.2558 -0.0570
39670W        W58417  25.677  12.187  25.031 -0.0293  0.0727 -0.1158
39671W        W58418   1.116   5.422  16.856  0.0255  0.4026 -0.1419
39672W        W58419  22.038  32.415  20.259 -0.2153  0.0792  0.2045
39673W        W58420   7.168   8.012   6.022 -0.0366  0.1297 -0.1484
39674W        W58421  35.091  16.449   8.570  0.0472  0.0491 -0.1040
39675W        W58422  29.175  12.090   7.213  0.1146  0.5194  0.4854
39676W        W58423  24.351  14.286  10.777  0.0818  0.0031 -0.1947
39677W        W58424  33.781  30.015   0.359 -0.0072 -0.2511  0.0712
39678W        W58425  29.453  13.975  16.495 -0.0602 -0.1179 -0.3778
39679W        W58426   5.903  12.102  21.122 -0.1976  0.0560 -0.2110
39680W        W58427  24.902   9.372  20.834  0.3185  0.1913 -0.1620
39681W        W58428  18.699   1.438  17.295  0.3971  0.0518 -0.1365
39682W        W58429  20.451  19.352   3.157 -0.3340  0.0630  0.1116
39683W        W58430  22.942  14.516  21.986  0.1346  0.2401 -0.1624
39684W        W58431  15.499  13.608  21.098 -0.0563 -0.0989 -0.0310
39685W        W58432  24.382   7.460  19.083 -0.1048  0.2651 -0.0027
39686W        W58433   1.261   7.218   2.143  0.3059  0.0923  0.0589
39687W        W58434  27.581  22.420   9.642 -0.0930 -0.0556  0.0753
39688W        W58435  25.908  17.423  23.641  0.0828 -0.4505 -0.2667
39689W        W58436  19.750  22.995  21.576  0.0304  0.2881  0.2299
39690W        W58437  13.534  21.998  24.160  0.3259  0.0154  0.0485
39691W        W58438  17.139   6.591  23.233 -0.3170  0.1749  0.1887
39692W        W58439  12.552  30.771  12.323  0.0864  0.0700 -0.0757
39693W        W58440  33.661  30.386  13.105 -0.1874  0.2861 -0.1447
39694W        W58441   0.808  15.292  22.035 -0.0115  0.1762 -0.1172
39695W        W58442  28.496  18.220  24.025 -0.0615 -0.2625 -0.1420
39696W        W58443  11.794  31.369  10.906  0.2506 -0.0182  0.1268
39697W        W58444  31.213   0.866  14.568 -0.1349  0.2582 -0.1904
39698W        W58445  11.856  14.603  26.013 -0.2588  0.2078 -0.2985
39699W        W58446  29.517  18.665  23.105  0.0248 -0.1376  0.1120
39700W        W58447  31.953   6.247  22.232 -0.1104  0.1680  0.0094
39701W        W58448  23.685  17.090  21.091  0.0588 -0.2251  0.2000
39702W        W58449  19.563  26.871   6.592 -0.1612 -0.1827  0.0433
39703W        W58450   8.325  17.378  25.002  0.2032  0.2238 -0.3791
39704W        W58451   0.750  16.484   1.771 -0.0613 -0.1873  0.1146
39705W        W58452  23.544  11.155  18.603  0.1749  0.0514  0.0907
39706W        W58453   7.707  23.033  14.854 -0.1463 -0.1656 -0.1202
39707W        W58454   4.234  17.722  21.490 -0.1342  0.0130  0.1833
39708W        W58455   6.204   6.379   4.439  0.0491 -0.0642  0.1478
39709W        W58456  11.315  24.312  17.195 -0.3915 -0.1611 -0.0504
39710W        W58457  30.519  34.112   5.758  0.3086  0.2576  0.0983
39711W        W58458  28.610  33.365  17.476  0.1176 -0.1870 -0.3247
39712W        W58459   8.976  16.972  24.266  0.0965  0.0136 -0.1559
39713W        W58460  17.171  25.955  20.674  0.0116  0.0554  0.1313
39714W        W58461  19.288  24.837   2.988 -0.2667 -0.0164  0.0583
39715W        W58462  25.754  10.248  13.430  0.3391  0.0791  0.2895
39716W        W58463  28.275  14.283  13.903 -0.1549 -0.3277  0.0144
39717W        W58464  25.948   5.413  24.553 -0.1737 -0.0271  0.1142
39718W        W58465   9.048  17.981   7.962 -0.0241 -0.2080  0.1535
39719W        W58466  28.952   6.076  15.195  0.2696 -0.1969  0.0037
39720W        W58467  21.083  34.124  21.317 -0.2184  0.0223 -0.1685
39721W        W58468  33.106  30.390   6.639  0.2350  0.0044  0.0023
39722W        W58469  20.714   5.881  20.954 -0.0894  0.1363  0.0915
39723W        W58470  20.825   8.605  16.327 -0.1387 -0.0774  0.2845
39724W        W58471  13.578   5.731  19.668 -0.2979 -0.2565  0.0686
39725W        W58472  12.643   6.304  10.327 -0.1774 -0.3848 -0.2572
39726W        W58473  23.111  25.294  16.107  0.0921  0.0097 -0.2679
39727W        W58474  26.018  11.236  15.794  0.0676  0.2640 -0.0596
39728W        W58475  19.948  23.640  25.736  0.0438 -0.1166  0.3862
39729W        W58476  19.164   4.816   4.976 -0.0514  0.0586  0.1135
39730W        W58477  13.156  23.627   1.531 -0.0270  0.0026  0.0174
39731W        W58478  32.129  29.626   1.916 -0.0980 -0.1842  0.1134
39732W        W58479  14.989  19.491   8.403  0.0111 -0.0933  0.1869
39733W        W58480  16.071  10.452   8.900  0.1470  0.0207 -0.2116
39734W        W58481  13.320   6.628  12.672 -0.0722 -0.1926  0.0983
39735W        W58482  32.327  22.380  10.099  0.0617 -0.1407  0.1138
39736W        W58483   2.555  30.794  21.981  0.3043 -0.1398 -0.2565
39737W        W58484  16.176   1.684  19.612 -0.0166  0.0207  0.0379
39738W        W58485  29.820  30.503  16.379  0.0775  0.1807 -0.3066
39739W        W58486   6.718   8.045   3.985  0.0894 -0.0720 -0.0355
39740W        W58487  26.056   3.953  13.943 -0.1722 -0.0465 -0.0419
39741W        W58488  22.625  22.702  13.589  0.1012 -0.0060  0.1464
39742W        W58489   5.914  14.288  16.931 -0.2504 -0.0628 -0.0688
39743W        W58490  12.301  15.712  20.389 -0.0761  0.1949  0.1858
39744W        W58491  10.167  20.121   1.864  0.1189  0.1372  0.2090
39745W        W58492   7.591  24.413  26.011 -0.0352 -0.0580 -0.2546
39746W        W58493   2.061  31.289   0.016  0.0832  0.2189 -0.0788
39747W        W58494  28.301  22.714  23.062 -0.0508 -0.3416 -0.0169
39748W        W58495  18.443   9.395   9.580  0.1783  0.0855  0.1220
39749W        W58496   4.802  34.859  24.299  0.0360  0.0305  0.0142
39750W        W58497  15.168   3.286   8.955  0.3519  0.2358 -0.2485
39751W        W58498  20.659  12.137   3.687 -0.0426 -0.0643  0.1580
39752W        W58499  33.875  19.674  15.827  0.0088 -0.1488 -0.1660
39753W        W58500  17.204  11.492  10.790  0.1155 -0.0654 -0.1937
39754W        W58501  14.538  22.684  23.355  0.3322 -0.0880 -0.1593
39755W        W58502  35.260   1.780  14.086  0.2813 -0.2090 -0.1449
39756W        W58503  34.073  18.447   9.199 -0.0969 -0.0517 -0.2778
39757W        W58504  27.817  23.413   8.336 -0.0192 -0.2624  0.1322
39758W        W58505  27.012  29.278  11.522  0.2031  0.3640 -0.0196
39759W        W58506   9.049   2.935  24.258 -0.0476  0.4409  0.0719
39760W        W58507  15.805  34.018  10.178  0.0247  0.2693  0.0482
39761W        W58508  23.743   2.406  21.130 -0.1639 -0.1353  0.1436
39762W        W58509   0.119  16.508  13.402 -0.0611  0.0286  0.0281
39763W        W58510  29.950  10.971  24.298  0.0911  0.2872 -0.1112
39764W        W58511  21.629   6.567  20.530  0.2492 -0.1000  0.0694
39765W        W58512  21.431  10.204  25.398 -0.1809 -0.1284 -0.1725
39766W        W58513   2.508   1.163   1.359 -0.0006 -0.3097 -0.1133
39767W        W58514  28.819   5.529  18.247  0.1234  0.1231 -0.0849
39768W        W58515  18.549  15.623   6.819 -0.0410 -0.1479  0.2893
39769W        W58516  29.104  29.627  18.956 -0.1446  0.1746  0.3213
39770W        W58517  21.041   4.704  21.396 -0.1181  0.1930 -0.2370
39771W        W58518  35.194   6.180  22.229  0.1456 -0.1973 -0.0081
39772W        W58519  13.467  11.218   7.266  0.0334  0.0946 -0.1266
39773W        W58520  19.973   7.364   4.377  0.0354  0.0250  0.1767
39774W        W58521  32.842  12.774  25.039  0.0085  0.1558 -0.1902
39775W        W58522  34.672  15.586  13.985 -0.0754  0.0703 -0.0743
39776W        W58523  26.590   4.067  14.657 -0.1467 -0.1895  0.6223
39777W        W58524  23.917   7.964  17.767  0.1122  0.1153  0.4295
39778W        W58525  28.842   4.054  13.785 -0.1441 -0.0875 -0.1585
39779W        W58526   8.259   2.413   1.424 -0.1185 -0.0775  0.1275
39780W        W58527  15.686  19.769  14.493  0.2126 -0.0545  0.0832
39781W        W58528  20.984   5.153   4.375 -0.2710  0.2128  0.1360
39782W        W58529  23.725   6.996  16.020 -0.3032  0.1724 -0.3820
39783W        W58530  18.229   0.257  23.413 -0.2040 -0.0712 -0.1222
39784W        W58531  25.492  24.875  25.820 -0.2572  0.0036  0.2483
39785W        W58532  21.973  32.707  15.091 -0.1068 -0.0305 -0.1255
39786W        W58533   9.588  13.865   0.135 -0.2268 -0.2107  0.0795
39787W        W58534  16.982  14.313   6.349  0.3669  0.2266  0.3399
39788W        W58535  22.532  24.183  19.238  0.2548  0.2859 -0.1210
39789W        W58536   1.963   8.158  18.628 -0.0343  0.0391 -0.2242
39790W        W58537  32.952  31.587  20.953  0.0468  0.1628 -0.0680
39791W        W58538  19.780   2.808  17.276  0.2998 -0.1452  0.1182
39792W        W58539   0.856  18.243   9.176  0.0272 -0.3408 -0.0343
39793W        W58540  14.596  30.929  22.637  0.2517  0.0130 -0.2415
39794W        W58541   9.217  34.735  11.252 -0.0771  0.3191 -0.3139
39795W        W58542  35.054  27.563   5.509  0.5541 -0.1100  0.0602
39796W        W58543  31.147  30.957  23.107  0.1134  0.0189 -0.0401
39797W        W58544  24.749  29.634  11.770  0.1124  0.2256  0.0253
39798W        W58545  27.752   9.765  25.520 -0.3388  0.4209  0.0154
39799W        W58546   3.940  15.697  22.396  0.3346 -0.0588  0.0349
39800W        W58547  24.922  33.936  16.637 -0.3928 -0.2439  0.3453
39801W        W58548   4.849  31.570  10.339  0.3612 -0.0195  0.0538
39802W        W58549   6.626  27.082   4.659  0.2097 -0.0629  0.1744
39803W        W58550  27.912   9.043  26.191  0.1535  0.1728  0.2519
39804W        W58551   2.957  11.907   1.286 -0.0547  0.3015  0.2219
39805W        W58552   4.169   9.359  21.660 -0.0665  0.2222  0.1546
39806W        W58553  30.824  34.822  22.207  0.2193  0.2330  0.1094
39807W        W58554   9.759  11.618  21.561  0.2173 -0.2032 -0.1771
39808W        W58555  30.085  13.658  14.821  0.1450  0.2215  0.0971
39809W        W58556  21.001   1.322  17.484 -0.3863 -0.3070  0.2328
39810W        W58557  15.118  31.807   7.576 -0.0539 -0.2960 -0.0469
39811W        W58558  20.430  27.500  22.641 -0.1307  0.3575  0.0841
39812W        W58559   7.444  14.938  19.945 -0.0049 -0.0333  0.1336
39813W        W58560  33.387  10.129  13.398  0.2354 -0.1067 -0.2601
39814W        W58561   5.519  29.719  21.994  0.6080  0.3859 -0.0385
39815W        W58562  14.486  18.100   5.482 -0.1822 -0.1561  0.0446
39816W        W58563  14.659  19.803  22.546  0.0370  0.2778  0.2797
39817W        W58564   9.017   7.029  11.885  0.3377  0.2160  0.2625
39818W        W58565  10.926  16.064  24.679  0.4713 -0.2669  0.2186
39819W        W58566   0.704   8.225  17.048 -0.1023 -0.1729  0.0242
39820W        W58567  31.161  20.614  14.877  0.0573  0.0566 -0.1629
39821W        W58568   5.934  17.559   6.262  0.0236  0.2338  0.0389
39822W        W58569   0.148  17.243   8.945  0.0411  0.1314  0.1936
39823W        W58570  10.479  27.780   9.531  0.1437 -0.1363 -0.0598
39824W        W58571   9.237   6.430  10.781  0.1130  0.0216  0.0183
39825W        W58572  32.054  29.848  15.800  0.0041 -0.0507 -0.0548
39826W        W58573  16.120  22.534  12.834  0.0899  0.2234  0.1714
39827W        W58574  31.016   6.355  14.808 -0.1102  0.1310 -0.5033
39828W        W58575   8.361  12.433  12.855 -0.1440  0.3330 -0.1112
39829W        W58576  16.672  10.899  13.192 -0.3030  0.1936  0.1482
39830W        W58577  12.630  22.792  23.557 -0.2452 -0.0830 -0.0677
39831W        W58578  34.779  22.379   9.575  0.3578  0.1377 -0.3531
39832W        W58579   5.410   9.064   3.175 -0.1184  0.2305  0.2234
39833W        W58580  21.479  28.960   3.530 -0.0540  0.2467  0.1639
39834W        W58581  26.799   6.873  10.069 -0.3311 -0.1684  0.1949
39835W        W58582  19.029  31.331  19.768 -0.0856 -0.0401  0.1968
39836W        W58583  16.470   7.404  20.205  0.1042 -0.1889 -0.1952
39837W        W58584  28.329  16.593  24.798  0.2773 -0.2677 -0.2057
39838W        W58585   9.540  25.853  16.209 -0.1596 -0.3281  0.2036
39839W        W58586  20.461   5.212  25.047 -0.0321 -0.0087 -0.1284
39840W        W58587   0.346  33.200  24.401 -0.2277  0.0786  0.2317
39841W        W58588  34.673   0.865   0.970  0.0341 -0.1345 -0.3371
39842W        W58589  20.155  34.956   5.562 -0.2936 -0.1382  0.1366
39843W        W58590  10.766   4.463  13.579 -0.0120 -0.2033  0.0577
39844W        W58591  12.486  15.370  20.041 -0.3409  0.0397  0.3018
39845W        W58592  27.037  15.242  23.765  0.1453 -0.0141  0.0472
39846W        W58593  30.308  13.056   9.317  0.2501 -0.2014 -0.1304
39847W        W58594  24.024  27.072  25.059  0.1418  0.2000  0.4070
39848W        W58595   9.764  16.169  11.746  0.2823 -0.1062 -0.2307
39849W        W58596   0.444  23.335  20.805 -0.2173  0.3047 -0.0384
39850W        W58597  16.733   1.497   4.951 -0.2101 -0.3151  0.0216
39851W        W58598  10.975  34.055  20.913 -0.1550 -0.2283  0.0493
39852W        W58599  31.033  23.640  19.267  0.5145 -0.2835  0.2739
39853W        W58600  29.733  26.620   9.082  0.2794 -0.1117 -0.1254
39854W        W58601  15.973  22.377  11.732  0.0480  0.0203  0.0195
39855W        W58602  14.987  27.123  14.725 -0.1464  0.1641 -0.1472
39856W        W58603   5.634   0.073  25.501 -0.2490  0.1225 -0.1303
39857W        W58604   7.681  23.260  11.137  0.1712  0.0788  0.1589
39858W        W58605  32.062  34.776   4.114 -0.0471  0.0136  0.2849
39859W        W58606   7.588  21.943   2.297 -0.0666  0.1240 -0.1851
39860W        W58607  26.774   5.694  17.112  0.0794 -0.0715  0.3050
39861W        W58608   6.293  28.284  14.830  0.1161 -0.2795 -0.2539
39862W        W58609  31.926   2.715  20.248  0.1027  0.3197 -0.2886
39863W        W58610  22.649  15.620  13.607 -0.1181 -0.0356 -0.0883
39864W        W58611  23.347  12.099  14.819  0.0194 -0.0703 -0.1588
39865W        W58612  18.207  12.058   6.996 -0.1016  0.1704 -0.0840
39866W        W58613  23.849  30.566  20.886 -0.3201  0.1034 -0.0144
39867W        W58614   4.342  26.353   9.341  0.2581 -0.3425 -0.0036
39868W        W58615   9.849   3.315  12.178 -0.1079  0.0166  0.0760
39869W        W58616   6.577  14.998  21.424 -0.0090  0.2343  0.1086
39870W        W58617   2.232  10.058   5.192 -0.3980  0.0946  0.3847
39871W        W58618  33.714   2.069  25.445 -0.0594 -0.4303 -0.0249
39872W        W58619  16.694  10.972   5.559 -0.0464  0.0646 -0.2842
39873W        W58620   1.930  29.066  23.935 -0.3017 -0.0643  0.0791
39874W        W58621  29.702   0.066   6.294  0.1594  0.1757  0.4229
39875W        W58622  34.056  11.595  15.469  0.0224  0.0814  0.0108
39876W        W58623  21.562   2.321   6.460  0.2228 -0.0460  0.1659
39877W        W58624  24.517  20.646  10.302 -0.1018  0.0585 -0.0675
39878W        W58625  35.091  27.048   4.503 -0.0228 -0.0658 -0.1644
39879W        W58626  11.329  23.327  13.301 -0.2280  0.2035  0.1880
39880W        W58627  22.224  19.327  21.856  0.0991 -0.1686 -0.0584
39881W        W58628  28.416  12.905  17.065 -0.1432  0.1378  0.0711
39882W        W58629   8.625   2.373  13.501 -0.1529  0.1288 -0.2845
39883W        W58630  27.417  20.415   9.746  0.4328 -0.1063  0.2115
39884W        W58631  31.735  19.774   9.299 -0.4591 -0.0871  0.0123
39885W        W58632   5.657  25.096  24.517  0.0703 -0.1832 -0.0634
39886W        W58633  15.566  21.658  26.235  0.0694 -0.0621  0.0735
39887W        W58634   7.182   2.614   8.786 -0.0059  0.3158 -0.3677
39888W        W58635  33.532  31.429  12.915  0.3203  0.3551  0.0163
39889W        W58636  20.361  19.125  22.614 -0.0559  0.2134  0.1814
39890W        W58637   6.409  18.253   2.426 -0.1090  0.0658  0.1578
39891W        W58638  26.385  15.634  15.557 -0.0039 -0.0737  0.1251
39892W        W58639  34.936  28.950   6.197 -0.0072 -0.0704 -0.0024
39893W        W58640  21.843   5.903  24.252  0.1441 -0.1075 -0.0621
39894W        W58641  21.041  15.733   0.044  0.1055  0.1194 -0.1875
39895W        W58642   9.242  15.821  21.231  0.2316  0.1311 -0.0528
39896W        W58643  26.009   2.852   4.587  0.1949  0.4086 -0.0225
39897W        W58644  15.319   1.035   4.973  0.0561  0.0962 -0.0111
39898W        W58645   8.831  26.391   5.703  0.1241  0.0598  0.2308
39899W        W58646  13.547  15.780  25.738  0.0271 -0.1112 -0.0942
39900W        W58647  27.946  14.993  24.711 -0.1133 -0.0197  0.4152
39901W        W58648   9.489  17.056  12.330 -0.0507  0.1485  0.1334
39902W        W58649  32.787  21.649  10.080  0.1828  0.0696 -0.1774
39903W        W58650   7.293  14.667   9.785 -0.1105  0.0351  0.2452
39904W        W58651   8.617   3.128  13.117  0.0528 -0.0437  0.0095
39905W        W58652  14.819  20.108  25.607  0.2420  0.0905  0.2664
39906W        W58653   6.829  15.386   8.655  0.1878  0.1742  0.4882
39907W        W58654  26.518  11.114  17.067 -0.2029 -0.0296  0.0416
39908W        W58655   6.976  25.002   6.753 -0.0357  0.0371 -0.2266
39909W        W58656  13.211  28.364  25.554 -0.0042 -0.0431 -0.2571
39910W        W58657  31.550  10.986  22.803 -0.1437 -0.1357  0.1118
39911W        W58658  10.576   8.273   2.964 -0.0949 -0.0859  0.1977
39912W        W58659  22.693  30.795  15.083 -0.0860  0.0900  0.0607
39913W        W58660   9.578   0.698   3.972 -0.1579 -0.2072 -0.0479
39914W        W58661  30.041   0.849  22.484  0.1793 -0.0358  0.1555
39915W        W58662   7.829  34.359  24.733 -0.0682  0.2148  0.2660
39916W        W58663   7.604  15.206  20.573  0.0512 -0.2059 -0.0933
39917W        W58664   3.438  10.400  21.700  0.0861 -0.2670 -0.0017
39918W        W58665  29.361  23.918  22.359  0.1039  0.3503 -0.1920
39919W        W58666  14.447   4.615  20.486 -0.1446  0.0550 -0.1553
39920W        W58667  19.848  30.032  25.178  0.5164  0.0056  0.1084
39921W        W58668  28.165  32.343  19.294 -0.1383 -0.0251 -0.1027
39922W        W58669   7.378  23.857  23.545  0.2119 -0.0497 -0.4412
39923W        W58670   1.096  18.965   0.555  0.0657  0.0189 -0.1157
39924W        W58671   5.512  16.950   7.715 -0.1357 -0.0176  0.0397
39925W        W58672   3.218  28.917   1.319 -0.3142  0.0785  0.3109
39926W        W58673  16.044   9.928  11.315  0.0255  0.1571  0.2634
39927W        W58674  28.145   9.759  17.751  0.0982 -0.2675 -0.1293
39928W        W58675  31.099  25.079   6.922 -0.2250 -0.1773 -0.1618
39929W        W58676  22.581   4.444  23.516 -0.0423 -0.2208  0.0459
39930W        W58677   8.559  22.921  14.835  0.1863  0.2059 -0.0948
39931W        W58678  30.030   3.748  14.343 -0.0399 -0.1555  0.2530
39932W        W58679  27.150  27.901   1.478  0.2740 -0.1388 -0.0536
39933W        W58680  29.026  32.960  25.988 -0.1706  0.0562 -0.0216
39934W        W58681  19.226   9.975   7.662 -0.2098  0.0675 -0.2730
39935W        W58682  27.518  11.308  10.621  0.2031  0.4208 -0.1956
39936W        W58683   1.820   6.135  16.007  0.0337 -0.0248  0.2527
39937W        W58684  23.303  34.225  14.123  0.3016 -0.1304  0.0284
39938W        W58685  10.377  35.328   3.150  0.2516 -0.4436 -0.1081
39939W        W58686   4.671  30.435  20.636  0.1279  0.2390  0.0727
39940W        W58687  24.697  21.646   1.358 -0.0543 -0.1336  0.1107
39941W        W58688  21.903   1.863   2.430 -0.0749 -0.0604  0.1943
39942W        W58689  17.064  32.752   1.395  0.0081  0.2616 -0.0088
39943W        W58690   1.114  29.952   4.282  0.0143  0.1643 -0.2151
39944W        W58691  27.935   0.787  12.542  0.1558 -0.1409 -0.0476
39945W        W58692  26.442  15.888   7.790  0.2062 -0.0467  0.0728
39946W        W58693   3.182  27.341  23.329  0.2140 -0.0318  0.1901
39947W        W58694   3.253  18.467  18.701  0.0910 -0.0508 -0.1161
39948W        W58695   3.065  13.156  25.223 -0.0643 -0.1649 -0.2286
39949W        W58696  27.448   0.471  19.279 -0.1288  0.0885 -0.1794
39950W        W58697   0.535  21.315  16.504 -0.1660  0.0328 -0.1004
39951W        W58698  17.780  29.327  24.555  0.0287  0.1670  0.6346
39952W        W58699   1.744  31.921  21.335 -0.0759  0.0080 -0.2416
39953W        W58700  32.831  23.763  14.428  0.2907  0.0603  0.2031
39954W        W58701  29.842  27.362  21.048 -0.1953 -0.0720  0.0257
39955W        W58702  34.749   6.875  15.501  0.0046 -0.3098  0.2994
39956W        W58703  32.959   4.871  23.663  0.2743  0.1588 -0.0468
39957W        W58704  20.365  28.293  22.884 -0.1946  0.1253  0.2430
39958W        W58705  29.795  19.950   6.919 -0.1323 -0.0011  0.0520
39959W        W58706  23.705   7.167  22.902  0.2339 -0.1348  0.2313
39960W        W58707  28.241  12.441  25.266 -0.1144 -0.0578 -0.0362
39961W        W58708  23.040  27.477   1.578 -0.1360  0.2388  0.2790
39962W        W58709  23.934  29.187  10.714  0.1037  0.1099  0.1758
39963W        W58710   8.281   9.910   3.489  0.1267  0.1775 -0.0010
39964W        W58711   6.209  27.593   7.705  0.2586  0.0615 -0.1904
39965W        W58712   6.575  27.451  23.533 -0.3565 -0.1098 -0.0543
39966W        W58713  19.178  19.558  25.365  0.0837 -0.4834 -0.0782
39967W        W58714  14.882  15.625  20.227  0.0374  0.0383  0.0031
39968W        W58715  14.570   3.222   3.089  0.2167 -0.0735 -0.0162
39969W        W58716   2.921  10.212  23.340 -0.1188 -0.0793  0.0743
39970W        W58717  35.271  33.977  18.147  0.3067 -0.3151  0.1846
39971W        W58718  20.366  19.289   4.783  0.0188  0.2900  0.1754
39972W        W58719  25.108  15.003  19.788  0.0583 -0.0490  0.1560
39973W        W58720   9.750  15.281   9.975  0.0687 -0.0159  0.0548
39974W        W58721  23.892  19.116  23.545  0.1681  0.0886 -0.1486
39975W        W58722  33.859  20.078  13.432  0.2338 -0.2210 -0.0258
39976W        W58723  32.184  10.814  11.158  0.1074  0.1314 -0.0042
39977W        W58724  11.942   7.120  14.039  0.2338  0.2031  0.0710
39978W        W58725  28.978  20.626   9.741 -0.0230 -0.0521  0.2329
39979W        W58726   4.452  12.406   3.274 -0.0752  0.2809 -0.1471
39980W        W58727  19.435  25.746   8.761 -0.2247 -0.0870  0.0383
39981W        W58728  29.549   7.812  24.882 -0.0167  0.0916 -0.0300
39982W        W58729   8.208   3.689   5.137 -0.1557  0.1329 -0.2725
39983W        W58730  11.411   9.728   5.450  0.2717  0.2031  0.1372
39984W        W58731   3.435  31.392  22.146 -0.0561  0.0620 -0.3767
39985W        W58732   3.880  11.052   1.097  0.1610  0.0981  0.1705
39986W        W58733  17.541  16.561   0.416  0.3167  0.1884 -0.1952
39987W        W58734   9.980   8.852  20.175 -0.0395  0.0169 -0.0501
39988W        W58735  24.479   4.480  13.166 -0.2858 -0.0267  0.1457
39989W        W58736   1.986  25.459  25.842 -0.0880  0.1659 -0.0150
39990W        W58737   0.477   9.949  17.571  0.1062 -0.1401  0.2490
39991W        W58738  14.079  25.952  22.657 -0.0531  0.1762 -0.1793
39992W        W58739   8.259  12.174  11.516 -0.2383 -0.2049  0.1952
39993W        W58740  20.236  21.723   3.179 -0.1168  0.0267 -0.0743
39994W        W58741   9.831   9.588   9.158 -0.0431 -0.3107 -0.0766
39995W        W58742  22.153  11.594   4.084 -0.0785 -0.1580  0.1546
39996W        W58743  11.537   6.117   7.991 -0.4616 -0.0893  0.2541
39997W        W58744  18.682  21.152  25.633 -0.1545 -0.2573 -0.0650
39998W        W58745  18.297  11.340   7.199  0.1515 -0.2848  0.0015
39999W        W58746  21.614  21.651  24.115  0.2305 -0.0187 -0.2040
40000W        W58747  33.510  29.585   2.676 -0.2086  0.1772  0.1984
40001W        W58748  18.900   3.661   0.439  0.0694  0.0927 -0.2368
40002W        W58749  29.263  32.032  15.713  0.2101  0.1963 -0.0234
40003W        W58750   1.751  29.390   3.475  0.2145  0.1581 -0.2221
40004W        W58751  24.608   2.802  26.166 -0.2240 -0.1612  0.1608
40005W        W58752   5.381  30.592  10.497  0.1145 -0.0526 -0.1641
40006W        W58753  14.048  22.108  13.681  0.1966  0.3371 -0.4494
40007W        W58754  34.047  32.917  19.610 -0.0024  0.1556 -0.1494
40008W        W58755  33.528  23.748  25.389  0.3076 -0.0769  0.0910
40009W        W58756  26.524  20.201   5.618 -0.1492  0.1200 -0.0344
40010W        W58757  14.681  26.409  25.887 -0.2158 -0.3789 -0.0969
40011W        W58758   0.534  17.135   8.615  0.1136 -0.2589  0.1319
40012W        W58759  30.757   3.556   0.088  0.0259 -0.2534  0.1062
40013W        W58760   0.151  13.504  14.381 -0.3856 -0.1946 -0.1650
40014W        W58761  11.826   8.401  18.850  0.1351 -0.0397 -0.0150
40015W        W58762  17.796  17.566  22.110 -0.1638  0.2412  0.1273
40016W        W58763  33.745  27.543  19.970  0.2216  0.0954 -0.1600
40017W        W58764  15.798  11.540  10.247  0.0560  0.3410 -0.3128
40018W        W58765   3.243   8.441  25.491 -0.0174  0.4274 -0.0544
40019W        W58766  18.678  20.155  18.439  0.0071 -0.2298 -0.3820
40020W        W58767  19.529  15.208   2.189  0.4267 -0.2524  0.1270
40021W        W58768  30.296   1.255  15.846  0.2619 -0.0029  0.0199
40022W        W58769  34.840  28.597   2.694 -0.2499  0.1250  0.0779
40023W        W58770   5.640  32.132  12.137 -0.3824  0.2636  0.0594
40024W        W58771  10.566  10.343  23.037 -0.1166 -0.1536 -0.3001
40025W        W58772  17.223  19.843  20.917 -0.0382 -0.0745  0.1762
40026W        W58773  13.261  20.202  13.170 -0.0374 -0.0644 -0.1416
40027W        W58774   1.140   8.031  21.928  0.0291  0.2700  0.0135
40028W        W58775  27.880   7.135   9.987 -0.0240 -0.2103  0.0472
40029W        W58776  31.415   2.917  19.201  0.2118 -0.0618 -0.1082
40030W        W58777  19.891  17.457   4.386 -0.0267 -0.0757 -0.2899
40031W        W58778   6.379  33.823  21.965  0.0260  0.0606  0.1375
40032W        W58779   2.447  28.702  10.234 -0.0389 -0.2905  0.1929
40033W        W58780   3.673  13.480  21.477 -0.2160 -0.2556 -0.1755
40034W        W58781  15.608   5.169  22.298 -0.0306 -0.0164 -0.1950
40035W        W58782   9.161   6.768   8.524 -0.3046 -0.2191 -0.3485
40036W        W58783  15.048  21.686   6.793  0.1068  0.1162 -0.1024
40037W        W58784   2.745  14.698  15.971 -0.2019 -0.2051 -0.0235
40038W        W58785  10.209  11.021   0.687 -0.3665  0.3841  0.0557
40039W        W58786  20.180   1.890   0.265  0.3979  0.2115 -0.1872
40040W        W58787  20.838  16.051  16.658  0.0321 -0.1739 -0.0013
40041W        W58788  18.662   2.823  19.493 -0.0944 -0.0826  0.0655
40042W        W58789   5.043  22.611  26.222 -0.0603 -0.0054 -0.1904
40043W        W58790   9.881   0.520   7.531  0.2840  0.0220  0.1901
40044W        W58791  20.904  18.884   3.183 -0.0792  0.2167  0.3747
40045W        W58792   0.442  29.482   5.576 -0.0741  0.2268  0.0732
40046W        W58793  21.946  17.127  24.688  0.1761 -0.3171 -0.0138
40047W        W58794  15.577  15.617  22.280 -0.1056 -0.1117  0.1520
40048W        W58795  16.290  27.824  25.931  0.0380  0.2662 -0.1125
40049W        W58796   2.945  32.745  11.581  0.4057  0.1157  0.0729
40050W        W58797   5.328   3.222  21.593  0.0602 -0.1668  0.0292
40051W        W58798   3.822  12.357  25.587 -0.1399  0.2662 -0.0326
40052W        W58799  21.832   1.111  17.272  0.1460 -0.2547 -0.3323
40053W        W58800  23.741  31.777  21.625 -0.0001 -0.2929 -0.2180
40054W        W58801   6.181  24.521   4.699  0.0076 -0.0884 -0.2099
40055W        W58802  21.018   3.245   2.357 -0.1769  0.0390 -0.1734
40056W        W58803   1.658   4.498   5.872  0.0211  0.1930 -0.1134
40057W        W58804  13.559  22.859  16.600 -0.0886  0.0379 -0.4887
40058W        W58805  17.484   0.317  16.652 -0.0761 -0.1842  0.2808
40059W        W58806  13.777  12.041  20.420  0.0796  0.0478 -0.1652
40060W        W58807   5.607  22.196  21.817 -0.1390 -0.0770  0.1573
40061W        W58808  25.815   7.537  12.001  0.0133 -0.0807 -0.0096
40062W        W58809   9.143   2.137  25.366  0.2078 -0.0275 -0.1849
40063W        W58810  34.331   9.064  10.873  0.1983 -0.1661  0.2684
40064W        W58811  22.409  31.432  23.774  0.0632 -0.0553 -0.2992
40065W        W58812  11.230   8.155  19.972 -0.0599  0.0353 -0.1675
40066W        W58813  14.338   7.033  18.482 -0.0509 -0.1220 -0.0329
40067W        W58814   0.012   2.618  21.522 -0.1582  0.0976  0.2786
40068W        W58815   6.719  13.652   1.578  0.1142  0.1097 -0.1356
40069W        W58816   2.887  13.699   2.947 -0.0496  0.1859 -0.0483
40070W        W58817  21.655  14.871  23.673 -0.0427 -0.0790  0.1335
40071W        W58818  11.370   2.112   8.010 -0.0612  0.5383  0.0142
40072W        W58819   8.079  26.499   1.550 -0.1035 -0.0448 -0.0289
40073W        W58820  24.005  10.236  20.363  0.2634  0.0030  0.1360
40074W        W58821  29.503  22.585   7.958  0.1399 -0.0652  0.3804
40075W        W58822   4.281  29.244   8.574 -0.0654  0.2312  0.3629
40076W        W58823  15.898  10.745  13.808 -0.0142  0.0813  0.1992
40077W        W58824  23.748  23.100  17.676 -0.0754  0.0905 -0.0436
40078W        W58825  19.542  35.263   5.046  0.0976  0.0583  0.0985
40079W        W58826  26.252  13.280  20.580 -0.2278  0.2493 -0.0651
40080W        W58827  13.981  30.354  12.177  0.0127  0.1319  0.0440
40081W        W58828  19.032   2.131   1.049  0.0518 -0.0175  0.1550
40082W        W58829  11.441   3.545   2.371  0.0116 -0.0724  0.1120
40083W        W58830  32.270  30.914  19.937  0.0277  0.2782  0.2812
40084W        W58831  14.070  11.093   3.444 -0.2214  0.1213 -0.1990
40085W        W58832  18.592   3.248  19.241  0.1023 -0.1563  0.0344
40086W        W58833   0.479   3.072  21.654  0.0319 -0.1950  0.0029
40087W        W58834  10.600  28.191   9.294 -0.0792  0.0810 -0.2008
40088W        W58835  33.102   0.529  14.709 -0.2645  0.0822 -0.3091
40089W        W58836  26.571  14.249  11.054  0.2349 -0.0099 -0.1519
40090W        W58837  33.707  16.109  26.017 -0.0806 -0.0148 -0.1607
40091W        W58838  32.458  31.428  22.306  0.0536 -0.0446 -0.0313
40092W        W58839  15.797   2.348   4.801  0.1025 -0.1222 -0.0709
40093W        W58840   8.749  33.955   6.832 -0.0394  0.0952 -0.4082
40094W        W58841  21.674  30.719  24.439  0.1342  0.1387 -0.0885
40095W        W58842  27.699  19.232  11.021  0.1944 -0.1552  0.1066
40096W        W58843  21.275   0.988  17.229  0.4034  0.0379 -0.0693
40097W        W58844  20.878  15.357  24.895  0.0677  0.1181 -0.2073
40098W        W58845  25.294   0.875   1.399 -0.1222 -0.2299 -0.1357
40099W        W58846  17.294  12.843  21.312  0.2876 -0.1047  0.1089
40100W        W58847   3.118  30.513   4.805  0.2340  0.3691  0.0297
40101W        W58848  23.943  10.429   3.954  0.0902 -0.4173  0.0911
40102W        W58849  28.644  33.909  12.890 -0.3447 -0.4384  0.1838
40103W        W58850  14.570   3.031  25.616  0.1372 -0.0130  0.0023
40104W        W58851  21.051  16.008   5.346 -0.2154 -0.1779 -0.0870
40105W        W58852  13.258  24.037   9.620  0.1540 -0.0398 -0.0215
40106W        W58853  24.969  26.959  14.640  0.1374 -0.3925 -0.0133
40107W        W58854   5.008  26.296   9.367  0.2936 -0.0774  0.2315
40108W        W58855  25.403  32.252   4.222  0.1769 -0.1407 -0.0783
40109W        W58856  27.243  11.922  11.730 -0.2483  0.0857  0.2371
40110W        W58857   0.871  25.802  17.265  0.0201 -0.3231 -0.0112
40111W        W58858   2.550   0.569   2.563  0.0347  0.2691  0.1855
40112W        W58859  13.660  18.751  10.195 -0.0769  0.0983 -0.0166
40113W        W58860  19.791   7.508   7.276 -0.0424 -0.0112  0.3253
40114W        W58861  28.929   6.679   2.704 -0.0519 -0.0212  0.1666
40115W        W58862  10.896  32.045  12.723  0.0857  0.0987 -0.1424
40116W        W58863  29.397  20.488  11.471  0.0016  0.1726 -0.0734
40117W        W58864  13.286  22.087   5.704  0.3833  0.1887  0.0395
40118W        W58865   3.697  15.047   3.321  0.1161 -0.1156 -0.1308
40119W        W58866  11.040   1.693  23.755 -0.0634 -0.0542 -0.3430
40120W        W58867  35.030   7.769  20.495 -0.0241  0.1846  0.0550
40121W        W58868  13.569   1.119  12.052 -0.4476 -0.1888  0.0891
40122W        W58869  15.624  28.835   8.247 -0.0887  0.0057  0.1551
40123W        W58870  10.722  23.817   0.316 -0.1384 -0.1427  0.1800
40124W        W58871  34.530  16.380   0.176  0.0561  0.0139 -0.1210
40125W        W58872  27.011  24.534  10.366  0.0224  0.1836 -0.0696
40126W        W58873  11.881   4.763  21.563  0.1413 -0.1458  0.1407
40127W        W58874  19.947   0.709  22.856  0.0065 -0.0598 -0.1091
40128W        W58875  31.847  20.106  18.321  0.1728  0.0345  0.1856
40129W        W58876  29.426  14.700  20.049  0.2498 -0.2121  0.2924
40130W        W58877  16.123   4.328   7.927  0.2559  0.2973 -0.0598
40131W        W58878   4.482  34.746  19.751  0.3432  0.0187 -0.2532
40132W        W58879   4.577  26.433   1.066 -0.1197 -0.1865  0.0912
40133W        W58880  24.029  31.082  15.375 -0.0347  0.4425  0.1341
40134W        W58881   6.627  31.991   6.033  0.0408  0.1899  0.1435
40135W        W58882   6.232  26.708  21.967 -0.2134  0.1329  0.0729
40136W        W58883  22.126   3.390   5.697 -0.2909 -0.0199  0.0187
40137W        W58884  28.598  30.123  22.860  0.1625  0.1109 -0.0227
40138W        W58885  30.189   5.851   0.031 -0.0590 -0.0029 -0.1306
40139W        W58886  32.242  20.796  13.823  0.2666  0.2072 -0.0716
40140W        W58887   2.374   7.234  21.510 -0.2082 -0.1428  0.1909
40141W        W58888  23.641  23.087   1.794 -0.0354 -0.0282  0.4960
40142W        W58889   4.645  30.371   2.577 -0.2302 -0.0085  0.1244
40143W        W58890   2.101   6.227  19.543  0.1092 -0.3170  0.0384
40144W        W58891  25.688  25.354  24.940 -0.0083 -0.2528 -0.0187
40145W        W58892  18.552   8.986   4.153  0.3152  0.0542  0.3079
40146W        W58893  15.418   9.302  12.032  0.1897  0.1122 -0.0675
40147W        W58894  27.922  35.233   1.353 -0.1395 -0.0153  0.0790
40148W        W58895  21.044  28.880  19.175 -0.0487 -0.5419 -0.0160
40149W        W58896  26.698  29.742  23.958 -0.0897  0.1862 -0.0530
40150W        W58897  25.126   1.419   6.791  0.0842 -0.0094  0.0083
40151W        W58898  16.609  11.892  24.625  0.2689  0.1480 -0.0800
40152W        W58899   7.139  31.646  10.446 -0.3257  0.2114 -0.0457
40153W        W58900   5.400   6.852   9.855 -0.2909  0.1429  0.0128
40154W        W58901  29.223  18.326  11.190 -0.1019  0.0837  0.0503
40155W        W58902  13.308  34.079  23.121 -0.4476  0.0395  0.1007
40156W        W58903  28.409  21.086   8.551  0.2812  0.2757  0.0403
40157W        W58904   5.854  31.643  12.922  0.0305  0.0685  0.2773
40158W        W58905  13.749  17.640   3.792 -0.1867 -0.2965 -0.0097
40159W        W58906  18.860  19.992   6.200  0.3009  0.2161  0.1371
40160W        W58907  21.403   4.645   3.232 -0.1237  0.2670 -0.0985
40161W        W58908  24.396  14.252  24.359 -0.0912 -0.0282 -0.0413
40162W        W58909  22.382   0.783   5.224 -0.1948 -0.1614  0.1096
40163W        W58910  32.517  34.874   6.072 -0.0215 -0.1967  0.1586
40164W        W58911   5.099  27.847  25.275  0.1279  0.0790 -0.2176
40165W        W58912  22.562   6.421   3.787 -0.2203 -0.0755 -0.0910
40166W        W58913   1.724  32.054   7.707 -0.2799 -0.0781 -0.0009
40167W        W58914   4.330   4.624  23.284  0.1443  0.3354 -0.1691
40168W        W58915  28.438  31.710  15.312 -0.0641 -0.1957 -0.0880
40169W        W58916  20.583  15.484   0.418 -0.1565  0.2207  0.3339
40170W        W58917  27.078  26.544  17.833 -0.2151  0.3027  0.3587
40171W        W58918  24.936   9.207  13.527 -0.2333 -0.0760 -0.0031
40172W        W58919  26.625   9.989   9.456  0.1735 -0.3929  0.1817
40173W        W58920  10.165   9.274  22.817  0.0721  0.2436 -0.2880
40174W        W58921  17.059   8.545   0.891 -0.0764 -0.1633 -0.0554
40175W        W58922   0.742  21.920  24.493  0.0786 -0.0906 -0.1014
40176W        W58923  25.142  30.635  21.142 -0.0553 -0.2580  0.4779
40177W        W58924  17.870  34.620   1.489  0.3825  0.3008 -0.0209
40178W        W58925   2.793   6.433  25.087 -0.0407 -0.0862 -0.1728
40179W        W58926  11.591  11.190   6.550 -0.0931 -0.3287  0.1367
40180W        W58927  12.363  30.459  22.681 -0.0980 -0.1834  0.0489
40181W        W58928  14.118  10.659   6.901  0.2725 -0.3780  0.0646
40182W        W58929  15.474  28.138  11.141  0.2126  0.1820  0.0553
40183W        W58930  12.342   3.793   1.239 -0.0898  0.1943  0.2739
40184W        W58931  33.423  23.307  23.674 -0.0715 -0.3988  0.2880
40185W        W58932  31.026  31.450  11.760  0.3283  0.1181 -0.1846
40186W        W58933  27.995  18.194  16.154 -0.0213 -0.0854 -0.2348
40187W        W58934  11.830  24.166  11.830 -0.4784  0.1748  0.1369
40188W        W58935  28.544  17.502  23.227  0.5614 -0.0474 -0.2902
40189W        W58936  10.410  22.241  13.081  0.3210  0.1438  0.2159
40190W        W58937   8.533  34.125   6.366  0.1707  0.0354 -0.2824
40191W        W58938  32.973  19.852   0.537 -0.0871 -0.0478 -0.0442
40192W        W58939  20.544  11.687   2.318  0.1193 -0.1595 -0.1928
40193W        W58940  14.641  10.145   9.534 -0.0860  0.0205 -0.3304
40194W        W58941  18.026  23.787   7.154 -0.4485 -0.1894  0.1485
40195W        W58942  34.480  20.833  13.872 -0.2069  0.1034  0.2867
40196W        W58943  34.792  21.595  15.673 -0.0178  0.2624  0.0724
40197W        W58944   7.568  22.287  21.296 -0.0515  0.0820 -0.0399
40198W        W58945   8.950  19.051  13.249 -0.1179  0.0686 -0.0406
40199W        W58946  31.150  27.186  10.730 -0.2372  0.0670  0.0853
40200W        W58947  29.606  31.030  22.664  0.0700 -0.2615  0.2348
40201W        W58948  28.101  28.914  12.478 -0.0802 -0.1222  0.0755
40202W        W58949   0.985  11.904  25.843  0.2011 -0.0595  0.0668
40203W        W58950  17.889  14.275  23.436 -0.1593 -0.2002 -0.0789
40204W        W58951  32.664  22.139  25.012 -0.1354  0.1306 -0.1721
40205W        W58952  10.821  13.845  11.403  0.1952 -0.0202 -0.0433
40206W        W58953   2.604   5.368  21.701 -0.0036 -0.2038 -0.0486
40207W        W58954  20.928  11.265  18.235  0.0732 -0.0112  0.0254
40208W        W58955  31.996  22.988  18.447  0.1156  0.6124  0.3685
40209W        W58956   5.350  33.886   2.688  0.1320 -0.0986 -0.1051
40210W        W58957  17.614   3.276  12.121  0.0042  0.3436 -0.3311
40211W        W58958  16.491  32.344   4.802  0.0610  0.1373 -0.2777
40212W        W58959   3.780  12.028   7.781  0.1374  0.1062 -0.0780
40213W        W58960  12.926  18.575  21.772  0.0280 -0.3603  0.1250
40214W        W58961   8.119  13.772  21.791  0.1226 -0.0893  0.2680
40215W        W58962  30.249  20.155  23.912  0.2711  0.2364 -0.2388
40216W        W58963   4.410   6.053   8.268 -0.1048  0.0486 -0.2146
40217W        W58964   3.980  34.032  12.282  0.0659 -0.0631 -0.1827
40218W        W58965  19.899   7.604  23.024 -0.2680 -0.1355  0.3024
40219W        W58966  14.215   7.347  23.290 -0.1907  0.1396  0.1309
40220W        W58967   0.377  15.966  20.380  0.1636 -0.1027 -0.1870
40221W        W58968  10.132  12.172  20.946  0.0671 -0.0355 -0.0383
40222W        W58969  30.801  10.376  23.634 -0.0209  0.0084 -0.1017
40223W        W58970   1.287   3.685   1.188  0.1263  0.2177  0.2796
40224W        W58971  17.626  35.041  18.914 -0.0931  0.1015  0.0075
40225W        W58972   0.836   3.124   1.909  0.2256  0.0878  0.1038
40226W        W58973   3.940  22.927   2.456  0.2259  0.1197  0.0610
40227W        W58974   5.262  12.111  26.214  0.1469 -0.0801 -0.1545
40228W        W58975  13.132  30.094  12.195 -0.1236 -0.4610 -0.0041
40229W        W58976  25.157   1.419  16.242  0.0256  0.1350 -0.2418
40230W        W58977  21.571  34.559   3.260  0.0649  0.2949 -0.1546
40231W        W58978   5.113  29.489   9.779  0.0548  0.1744  0.0652
40232W        W58979  20.863  32.153  24.056  0.1740 -0.0390 -0.0471
40233W        W58980  33.966   6.156  19.094  0.5164  0.1491 -0.1018
40234W        W58981  30.272  32.892  22.149 -0.4812  0.1275  0.2912
40235W        W58982   4.554  23.323   2.070  0.3438  0.0281 -0.1160
40236W        W58983  11.617  10.444   7.124  0.1122  0.0892 -0.0617
40237W        W58984  23.903  11.167  20.071  0.2474 -0.4482 -0.0382
40238W        W58985   6.727  33.392   1.569 -0.1397  0.0949 -0.1733
40239W        W58986   7.043  10.565  18.583 -0.0176  0.1045  0.2249
40240W        W58987   6.603  26.091   6.179 -0.1597 -0.0720 -0.2901
40241W        W58988  24.089  32.872  18.984 -0.4387 -0.4014  0.1352
40242W        W58989  18.237  20.276  25.468  0.1720 -0.1712 -0.0797
40243W        W58990  14.815   5.187   6.038  0.0263 -0.2245 -0.0285
40244W        W58991  19.094  11.928  25.274 -0.5651 -0.1406  0.3539
40245W        W58992  34.754  16.836  25.114  0.1714 -0.3800 -0.0034
40246W        W58993  15.644  22.365   3.053  0.0384 -0.0811  0.2101
40247W        W58994   6.641  17.257   8.681 -0.1237 -0.2189  0.0827
40248W        W58995  11.520  18.561  23.744 -0.0780  0.1820  0.0651
40249W        W58996  33.811   4.845  24.211  0.0772 -0.0111 -0.1180
40250W        W58997  26.572  21.198  22.466 -0.0800 -0.2690 -0.0358
40251W        W58998  13.796  35.380  25.454 -0.0709  0.0529  0.0051
40252W        W58999  34.576  12.104  10.705 -0.1585 -0.0844 -0.1830
40253W        W59000   7.313  24.068  11.265 -0.1276 -0.2566 -0.0344
40254W        W59001   5.834  25.494  21.053 -0.2189  0.1847  0.1125
40255W        W59002  18.956   6.099   8.092  0.2720 -0.2047  0.0014
40256W        W59003  24.802  22.041   1.658 -0.0292 -0.2612 -0.0487
40257W        W59004  28.207  13.458   7.692  0.3586 -0.0179  0.3493
40258W        W59005  31.759  26.509  23.146  0.0071 -0.2861 -0.1954
40259W        W59006  31.683  25.202   9.528  0.1268 -0.1632 -0.0156
40260W        W59007  12.505  34.396   0.676  0.0428  0.0169  0.0612
40261W        W59008  25.234   8.843  22.500 -0.0138 -0.1842 -0.1127
40262W        W59009  23.317  13.725  14.115 -0.2780  0.1608  0.2620
40263W        W59010   6.682  15.754  20.202 -0.1131 -0.1230  0.3450
40264W        W59011  28.030  31.520   2.564 -0.0071  0.0625 -0.2265
40265W        W59012  21.361  26.330  17.271 -0.1551 -0.1186 -0.1254
40266W        W59013  33.731  13.747  24.184  0.2820  0.0484 -0.0917
40267W        W59014   8.251   4.564  20.133  0.2885  0.2643  0.1396
40268W        W59015  15.074   6.466  26.053  0.0258  0.3662  0.0856
40269W        W59016   6.812   7.116  23.977  0.0447 -0.0240  0.1796
40270W        W59017  11.513  21.799   2.411  0.0054  0.0171  0.2778
40271W        W59018  15.038   8.794  21.316  0.0901 -0.0012 -0.0263
40272W        W59019   2.514   3.965  19.614  0.3676 -0.1117 -0.3539
40273W        W59020  10.017   8.505  10.817  0.1482 -0.3256 -0.0256
40274W        W59021  14.505  14.273   4.137 -0.0740 -0.1389  0.0978
40275W        W59022  32.066  32.506  20.917 -0.0555  0.0536  0.2210
40276W        W59023  11.245  23.960  10.282 -0.0602 -0.0343 -0.1942
40277W        W59024  20.456  30.116  21.482  0.0585 -0.0169 -0.0423
40278W        W59025  31.553  27.548   4.184 -0.0771 -0.0889  0.4030
40279W        W59026  34.151   4.206  15.399 -0.1504 -0.1382  0.0354
40280W        W59027  14.006  22.786  25.193 -0.2131  0.1489 -0.0107
40281W        W59028   7.842  33.160  25.727  0.0042 -0.1768 -0.1451
40282W        W59029  19.122  13.506   3.043 -0.2263  0.1058  0.1014
40283W        W59030   8.103  29.441  11.310  0.2864  0.0117  0.3061
40284W        W59031   1.275  12.987  14.042  0.0032  0.1056  0.0858
40285W        W59032  24.475  34.974  11.219  0.1113  0.0631 -0.0540
40286W        W59033  28.440  12.151  23.008 -0.2440 -0.1975 -0.0040
40287W        W59034  24.361  23.692  20.365 -0.0681 -0.0563  0.2434
40288W        W59035  31.892  34.316  21.367 -0.0367 -0.0712 -0.0556
40289W        W59036  24.126  30.589  16.081 -0.0928 -0.0780  0.0339
40290W        W59037  32.394  23.460  21.773 -0.0783  0.0608 -0.2884
40291W        W59038  15.475  34.002  23.153  0.0587 -0.1083  0.2184
40292W        W59039   3.204  10.694   0.729  0.0268  0.1816  0.0127
40293W        W59040   7.472  32.218  13.138 -0.0855 -0.2365 -0.3041
40294W        W59041  31.257  27.101   1.214  0.1883 -0.3338  0.2326
40295W        W59042  24.019   1.024  21.918 -0.5241 -0.2420  0.1458
40296W        W59043   8.087  33.174   7.729 -0.4081  0.0678 -0.0209
40297W        W59044  29.860   3.485  13.433  0.1074  0.1518 -0.1111
40298W        W59045   0.601   7.573  13.719 -0.0844 -0.0520  0.1180
40299W        W59046   6.378   2.145   2.767  0.2263 -0.2753  0.1805
40300W        W59047  16.284   8.362   8.236  0.2444  0.2296 -0.1792
40301W        W59048  16.537  19.701   5.779 -0.0292  0.0034  0.0081
40302W        W59049  12.217   9.436   3.251 -0.0234  0.1727 -0.1922
40303W        W59050  15.885  24.715   1.411  0.2445  0.0849  0.1015
40304W        W59051  30.421   6.556  24.477 -0.3582  0.4252 -0.1670
40305W        W59052  28.922   8.787   8.261 -0.1571  0.0871  0.0351
40306W        W59053  23.021   7.598   1.581 -0.0096 -0.1435  0.1218
40307W        W59054  10.630  27.287  11.790  0.2012 -0.1038  0.3150
40308W        W59055  10.447  27.962  23.467  0.0975 -0.4680  0.3680
40309W        W59056  34.836  19.156   1.129  0.2820  0.0297  0.1141
40310W        W59057   2.267  27.027   6.232 -0.1749  0.0849 -0.1182
40311W        W59058  18.985  11.127  10.884  0.1308 -0.1574 -0.1183
40312W        W59059  34.704  21.336  15.241 -0.1767 -0.1115 -0.1925
40313W        W59060   2.842  17.110  23.616  0.0869  0.0134 -0.0673
40314W        W59061   4.821  33.660   9.644  0.2937 -0.1040 -0.0033
40315W        W59062  10.515  10.484   4.727  0.0316 -0.1288 -0.2907
40316W        W59063  17.095  33.247   1.631  0.1463 -0.1012  0.2039
40317W        W59064   9.849   1.852  13.869 -0.1949  0.1141  0.3263
40318W        W59065   7.128  27.188   2.355  0.0434  0.0816  0.0557
40319W        W59066   4.604  34.639  23.195  0.0022 -0.0679 -0.3183
40320W        W59067  33.532   3.853  23.310  0.1457  0.3920 -0.0734
40321W        W59068  14.660  10.319   3.957  0.1825 -0.0135 -0.0414
40322W        W59069  31.269  27.840  17.165  0.2899 -0.2914  0.1260
40323W        W59070  18.626  32.454  20.485 -0.3037  0.0254  0.2259
40324W        W59071   4.575  31.089  13.256  0.3469  0.3037  0.0023
40325W        W59072   8.960  10.844   5.015  0.1972  0.1905  0.0048
40326W        W59073  25.016  16.274  10.294  0.0396 -0.4015  0.3122
40327W        W59074  26.946  15.807  24.598  0.2078 -0.3305 -0.0577
40328W        W59075   5.114  34.252   2.404  0.3577 -0.1368  0.2116
40329W        W59076  25.612   1.767  18.867  0.0238 -0.3384 -0.0753
40330W        W59077  18.506  17.699   0.878 -0.1449 -0.1044 -0.0701
40331W        W59078  19.975  18.920   3.515  0.1692 -0.2579 -0.0970
40332W        W59079   8.284  29.472  24.965 -0.2433 -0.0211 -0.0344
40333W        W59080  19.769  15.499  22.413 -0.3559 -0.0675 -0.1991
40334W        W59081  17.626  21.462   4.500  0.2530  0.4185 -0.1214
40335W        W59082  22.300  33.691   3.676 -0.1248  0.1319  0.2285
40336W        W59083  21.451   4.597   0.056 -0.1097 -0.1438 -0.2693
40337W        W59084  16.124  10.251  25.282  0.0883 -0.0584  0.2976
40338W        W59085   9.649   3.332   0.611 -0.0317 -0.1106  0.1218
40339W        W59086  33.197   3.148  18.516 -0.2856  0.0242  0.2150
40340W        W59087   4.530   1.882  10.048  0.1510 -0.2397 -0.0856
40341W        W59088  29.950   6.066  10.351 -0.0845 -0.1144  0.3421
40342W        W59089  21.482  22.637  24.382 -0.2013 -0.2700  0.1873
40343W        W59090  33.314  30.810  19.193  0.2661 -0.1970  0.0907
40344W        W59091  34.063  31.173  22.736 -0.0273 -0.2620 -0.3498
40345W        W59092  27.391   8.531  20.442  0.1574  0.0690 -0.0836
40346W        W59093  15.899   4.456  17.184 -0.1241  0.1862 -0.4112
40347W        W59094  10.545  34.639  10.538  0.0526 -0.0960 -0.2639
40348W        W59095  26.013   0.294  14.198  0.1827  0.1069 -0.0921
40349W        W59096   4.048  31.752   9.952 -0.0879 -0.2029  0.1665
40350W        W59097   0.997   5.876   4.817 -0.0216  0.4144 -0.0032
40351W        W59098  33.000  10.090  13.011 -0.1616 -0.0136 -0.0045
40352W        W59099  18.519  32.052   1.486  0.0310 -0.1466  0.2281
40353W        W59100  31.272   3.679   1.751 -0.0703  0.0364  0.0079
40354W        W59101  27.584   2.277  12.502 -0.0581  0.0244  0.1277
40355W        W59102  26.606   2.384  16.557  0.2002 -0.0923  0.1013
40356W        W59103  32.737  34.469  14.183  0.3183 -0.1195  0.2164
40357W        W59104  29.812   2.165  18.696 -0.1280 -0.3006 -0.1717
40358W        W59105   1.221  16.376  19.798  0.0013 -0.0758 -0.0126
40359W        W59106   1.732   0.881   7.735  0.3658  0.1005  0.3044
40360W        W59107   1.629  12.695  16.492  0.2303 -0.2142  0.2733
40361W        W59108   8.780  11.772   0.340  0.2416  0.0060  0.0522
40362W        W59109  30.987  13.230  22.888  0.0212 -0.3533  0.0885
40363W        W59110  27.300  24.032  18.775 -0.2383 -0.1401 -0.0555
40364W        W59111  14.585   6.164  21.957  0.4968  0.0747 -0.2544
40365W        W59112   6.633  13.570  10.720 -0.2478 -0.0904 -0.1635
40366W        W59113   0.715  31.595  17.486  0.1657  0.1765 -0.0806
40367W        W59114   4.642  26.591   9.881  0.1464 -0.0707 -0.0749
40368W        W59115  31.015  33.750  20.626 -0.0000 -0.2519  0.4244
40369W        W59116   1.093   0.199  19.580 -0.1663 -0.3426  0.2278
40370W        W59117  34.628  34.538   2.606 -0.0215  0.1342 -0.0868
40371W        W59118  29.099   1.154   6.553  0.2852  0.3333 -0.1033
40372W        W59119  26.788  23.346  20.692  0.1332  0.2571  0.2612
40373W        W59120  17.705   3.587  23.842  0.0194  0.2513  0.1896
40374W        W59121  10.461   8.297  11.707 -0.1209  0.0061 -0.0582
40375W        W59122  11.492  10.503  20.945 -0.4453 -0.1209  0.0304
40376W        W59123   9.568  16.290  24.122  0.1376  0.2989 -0.1879
40377W        W59124  30.671   6.244  20.090  0.0316  0.2601  0.2585
40378W        W59125  12.690  20.141   8.767 -0.1156  0.1128  0.0755
40379W        W59126  33.263  11.474  13.721 -0.3122 -0.0624 -0.2854
40380W        W59127   8.317  32.823  22.385  0.2399 -0.0585 -0.1415
40381W        W59128   2.813  13.900  25.750 -0.4056 -0.0198 -0.3199
40382W        W59129  16.474  18.782   4.114  0.0436 -0.0961 -0.2974
40383W        W59130  21.498  33.718   2.431 -0.1785 -0.0959 -0.1696
40384W        W59131  22.050  29.523  13.888  0.1696  0.0528 -0.0816
40385W        W59132  25.003  16.725  25.004  0.2304 -0.2859  0.3358
40386W        W59133  15.168  28.719  25.918 -0.1173  0.1857 -0.0561
40387W        W59134  13.903   4.129   7.150  0.2963  0.1171  0.0857
40388W        W59135  20.231  12.141   4.687 -0.0600  0.0662  0.0335
40389W        W59136  14.981  17.186  10.745 -0.0888 -0.2437  0.0012
40390W        W59137   6.944  15.606  22.961  0.2927 -0.0897  0.0467
40391W        W59138   3.689   0.810   9.947 -0.0121 -0.0887 -0.0043
40392W        W59139  22.684  14.474  20.083  0.0051  0.0517  0.4439
40393W        W59140   0.157  12.928  23.832  0.0671 -0.1449  0.0304
40394W        W59141  31.312  16.388  13.861 -0.1421 -0.1409 -0.2672
40395W        W59142  34.025  28.186  18.854  0.1891 -0.3014 -0.2623
40396W        W59143  12.747   3.190  21.731  0.2321  0.4020  0.1410
40397W        W59144  26.351   2.699  11.192  0.3983  0.4385 -0.4402
40398W        W59145  33.448   4.741  13.187 -0.3603  0.1794  0.1886
40399W        W59146  32.893  12.319  21.376  0.0183  0.0291 -0.2505
40400W        W59147   0.977   7.772  15.776  0.1899 -0.0897  0.0613
40401W        W59148  20.262  12.720   7.927 -0.0454  0.0159 -0.0180
40402W        W59149   2.767  30.018   5.454 -0.0888 -0.1963  0.1772
40403W        W59150   6.798  33.396  25.338 -0.2340 -0.1538  0.1717
40404W        W59151   2.353  30.928  19.100 -0.3078 -0.0219  0.2966
40405W        W59152  25.721   4.265   1.555  0.0581  0.0654  0.0569
40406W        W59153   4.521   7.381  18.214  0.3094 -0.0035 -0.4851
40407W        W59154  16.081   2.272   7.549 -0.1919 -0.0437  0.1737
40408W        W59155  31.023  21.576   9.755 -0.2534 -0.2358  0.3055
40409W        W59156   7.364  13.856   0.826  0.1390  0.1661 -0.0073
40410W        W59157  33.371  30.213   4.195 -0.2316  0.0280  0.0390
40411W        W59158   9.515  32.256  24.333 -0.0342  0.1449 -0.1602
40412W        W59159  27.186   7.729  13.203  0.2546 -0.0869 -0.0375
40413W        W59160  25.470  33.034  11.391  0.3567  0.0093  0.2254
40414W        W59161  32.508  12.947   9.023 -0.1499  0.5284 -0.0206
40415W        W59162   6.066  19.885  24.742  0.0308  0.2167 -0.1158
40416W        W59163   9.316  28.166  16.761  0.0006 -0.2394  0.2020
40417W        W59164  16.009  19.941   4.448  0.2463 -0.0383 -0.0227
40418W        W59165  23.699  24.634  21.219 -0.2509 -0.2572 -0.2224
40419W        W59166  34.749  13.910  11.483 -0.2264  0.1156  0.1436
40420W        W59167  20.345  13.931  20.104  0.1707 -0.0099 -0.1375
40421W        W59168  33.259  31.148  22.368 -0.0731 -0.1873  0.0874
40422W        W59169   7.992  18.705  10.714  0.1082 -0.0392  0.1303
40423W        W59170  28.460  30.386   5.634  0.2336 -0.0664 -0.0082
40424W        W59171  24.024  35.066  21.721 -0.1091  0.0806  0.1529
40425W        W59172  20.230  10.102  17.027  0.0291 -0.0652  0.0049
40426W        W59173  15.639  33.978   9.234 -0.2041 -0.2179  0.2248
40427W        W59174  24.547  29.239  25.364 -0.0869 -0.0402 -0.2514
40428W        W59175   8.503  28.449   1.531  0.3566 -0.1605  0.0666
40429W        W59176  21.766  15.343  19.153 -0.0033  0.1999 -0.2212
40430W        W59177   1.049  33.294   2.807  0.0311  0.4508  0.0186
40431W        W59178   4.115  33.787   5.626 -0.0063  0.0096  0.3188
40432W        W59179   9.111  11.493   2.998  0.1306 -0.3046  0.3126
40433W        W59180   4.570  33.018  25.270 -0.1740  0.3912 -0.2610
40434W        W59181  27.999  22.257  15.349 -0.1459 -0.2489  0.2512
40435W        W59182  27.909   0.367  19.556 -0.3230  0.0505  0.2321
40436W        W59183  15.578   8.670   3.004  0.0758  0.1100  0.5640
40437W        W59184  10.072  10.766  21.531 -0.2664 -0.1532  0.1380
40438W        W59185   7.766  28.496  11.675 -0.0812 -0.1578  0.0770
40439W        W59186  14.235   3.619   6.396  0.0474  0.1262 -0.0530
40440W        W59187  24.412  19.459  15.824  0.0809  0.2226 -0.0298
40441W        W59188  16.665   6.358  21.197  0.0949 -0.0763 -0.3595
40442W        W59189  19.854  21.982  20.545 -0.0956 -0.0442 -0.0825
40443W        W59190  14.212   7.735  24.997  0.1132 -0.2954  0.2701
40444W        W59191  30.584   3.474  13.423 -0.3087  0.0367  0.0442
40445W        W59192  28.709  15.798   7.979  0.1997 -0.0738 -0.3520
40446W        W59193   7.667  10.362   9.457  0.0096  0.1363  0.3651
40447W        W59194  12.674  29.583  25.713  0.3481 -0.0041 -0.3520
40448W        W59195  18.476  30.261   0.731 -0.0515 -0.0853  0.0426
40449W        W59196   2.028  21.925  25.589  0.0489  0.0048 -0.1485
40450W        W59197   9.793  22.083   6.324 -0.0092 -0.1446  0.0044
40451W        W59198  28.311  21.801  11.429  0.0730  0.3218  0.1025
40452W        W59199  30.034  24.169   8.643 -0.1466 -0.0285  0.0564
40453W        W59200  23.237  15.837   1.866 -0.2952 -0.3788 -0.2848
40454W        W59201   6.683  14.771   8.452  0.0384 -0.0979 -0.1482
40455W        W59202  28.281  28.073  21.455 -0.3489  0.0043 -0.0903
40456W        W59203  25.515   7.152  11.282 -0.0142  0.1797 -0.1584
40457W        W59204   2.327  32.542   7.804 -0.3278  0.0108 -0.0205
40458W        W59205  18.428  28.354   2.919  0.0152  0.0236 -0.2570
40459W        W59206  16.995  32.235   4.711  0.0943  0.2336  0.1525
40460W        W59207   9.243   2.272  14.607 -0.2094 -0.0567  0.2148
40461W        W59208  25.826  29.662   1.795  0.1997  0.0126  0.0929
40462W        W59209  22.826   6.541  25.610  0.0337  0.0561 -0.2630
40463W        W59210  10.162  33.214  23.488  0.0227  0.1174  0.0850
40464W        W59211  18.907   6.260  20.989  0.2572  0.0434  0.0594
40465W        W59212  10.900  29.022   2.355 -0.2501  0.2747  0.0874
40466W        W59213  16.898   7.989   7.735 -0.1433 -0.1051  0.0207
40467W        W59214   2.916  10.692  25.704  0.1386 -0.1534  0.0721
40468W        W59215  16.235   1.197   7.582  0.1971  0.0047 -0.2805
40469W        W59216  28.612  10.137  23.565 -0.0782 -0.1182 -0.0872
40470W        W59217   6.103   3.967  21.707 -0.4425  0.2993 -0.0220
40471W        W59218  29.696   8.364  10.104  0.0874 -0.4611  0.3302
40472W        W59219   9.642  31.450  11.164  0.2539 -0.0648  0.0859
40473W        W59220  26.997  19.442   5.967 -0.1513 -0.3076 -0.2295
40474W        W59221   8.086  32.108  10.852  0.0935  0.0394 -0.0579
40475W        W59222  14.500  24.372   6.763  0.3497 -0.0990  0.5074
40476W        W59223  10.398  28.913   1.480  0.2305  0.1143 -0.2264
40477W        W59224   9.359  11.042   0.432 -0.2257  0.2238  0.0920
40478W        W59225  30.589   1.816  11.257 -0.1045  0.1117 -0.2670
40479W        W59226  32.027  35.305   6.948  0.1952  0.0625 -0.1113
40480W        W59227  34.623   7.738   1.433  0.1298  0.1443 -0.1816
40481W        W59228  27.576  23.013   8.206  0.0115 -0.2491  0.0841
40482W        W59229  11.674  11.030   1.811  0.1671  0.1380 -0.2561
40483W        W59230  14.557  22.696   8.941 -0.0135  0.5645 -0.1189
40484W        W59231   0.254  29.122  18.504  0.0006 -0.0571 -0.3603
40485W        W59232   3.672  28.219   3.273 -0.0900 -0.1033 -0.0002
40486W        W59233  18.517  33.958  21.323  0.0630  0.0567  0.2263
40487W        W59234  21.995   4.521  18.680  0.1267  0.0701  0.2327
40488W        W59235  22.760   3.786   3.670  0.4781  0.0080 -0.1421
40489W        W59236  29.342  12.419  16.917 -0.6594 -0.0463 -0.1000
40490W        W59237  33.186   7.576  23.442  0.1606 -0.0817 -0.0371
40491W        W59238   8.816  32.824  10.993 -0.1326 -0.0624  0.1183
40492W        W59239  31.507   7.121  15.797 -0.0903 -0.1852  0.2517
40493W        W59240  19.508  20.947   8.705  0.0289 -0.2325  0.0829
40494W        W59241  30.114  22.520  10.376  0.5207  0.1730  0.0264
40495W        W59242  11.981  19.661  10.763 -0.1731 -0.0445  0.0291
40496W        W59243   8.134  19.107  22.532 -0.0376 -0.0712  0.1544
40497W        W59244   9.441  10.843   3.699  0.0466 -0.0754 -0.1150
40498W        W59245  33.565  23.117  11.987 -0.1411 -0.0776 -0.0776
40499W        W59246  30.290   1.536   6.237 -0.0684 -0.0614  0.0911
40500W        W59247  17.841  10.288   1.140  0.0399  0.0321  0.1796
40501W        W59248  28.442  28.109   1.376  0.0895 -0.1839 -0.1444
40502W        W59249  25.524   4.810   2.717 -0.2987 -0.0410  0.0441
40503W        W59250  27.827  22.987  14.211 -0.0610 -0.0262  0.2625
40504W        W59251  32.259  23.673  16.987 -0.1855  0.2924  0.2069
40505W        W59252  28.119  28.511  21.849  0.1705  0.0539  0.4178
40506W        W59253  10.307  24.078  11.369 -0.0280  0.0978 -0.2274
40507W        W59254  10.894  24.882   8.113 -0.2002 -0.0196  0.1829
40508W        W59255   7.343  30.342   3.506 -0.2973 -0.1636  0.3931
40509W        W59256  24.215  11.321  17.139 -0.0504  0.4082 -0.0257
40510W        W59257  18.548   8.848  24.249  0.0921 -0.0642 -0.3173
40511W        W59258  30.185  13.471   4.692  0.1513 -0.0733  0.1064
40512W        W59259  15.965  13.465  21.273 -0.1222  0.0972 -0.1581
40513W        W59260   2.770   6.283  15.193  0.3523  0.1641 -0.0969
40514W        W59261  29.495   5.057  23.823 -0.0087 -0.1463 -0.0292
40515W        W59262  17.900   2.323  25.138  0.1827  0.1313 -0.1394
40516W        W59263   8.039  10.485   4.753  0.0629 -0.3565 -0.3870
40517W        W59264  31.651  14.608  16.341  0.0896  0.1212 -0.3417
40518W        W59265  31.941   3.865   6.346  0.2190 -0.0823 -0.3955
40519W        W59266  28.120  28.199  24.426  0.0231  0.1716 -0.3249
40520W        W59267  23.502   9.043   2.016 -0.0619 -0.1986  0.1445
40521W        W59268  12.102   8.804  12.969  0.4249 -0.0474 -0.1489
40522W        W59269  30.270  22.370  23.090 -0.0257  0.1949  0.0213
40523W        W59270  11.343   2.752   6.950 -0.0946 -0.2285 -0.0456
40524W        W59271   1.966  26.632   6.949 -0.1089  0.0732  0.1184
40525W        W59272  30.782   0.128  25.458  0.1947 -0.0960 -0.2126
40526W        W59273  22.006  28.256  21.183  0.0948  0.2947 -0.1975
40527W        W59274  10.269   2.989   1.357  0.0605 -0.0828 -0.1130
40528W        W59275   7.695  16.100   5.626  0.0244  0.0494  0.0939
40529W        W59276   9.419  24.479   2.621  0.0083  0.0341  0.1389
40530W        W59277   5.847  11.429   0.628  0.0387 -0.1564  0.0201
40531W        W59278   1.561  17.462  22.497  0.1041  0.1590 -0.0327
40532W        W59279  35.242  15.336  12.071  0.0486 -0.0684 -0.1020
40533W        W59280   4.281   0.511   1.086 -0.0832  0.1488  0.2883
40534W        W59281   0.520   3.816  25.960  0.3304 -0.0344  0.1764
40535W        W59282   7.110  15.286   2.808 -0.1728  0.0373 -0.0494
40536W        W59283  20.357  14.033  19.393  0.1367 -0.0415  0.0917
40537W        W59284   8.230  29.544   1.501  0.1375 -0.1304 -0.0840
40538W        W59285  16.355   6.718   2.403 -0.2943  0.0614  0.1825
40539W        W59286  24.867  10.373  18.674 -0.2952  0.4585 -0.1685
40540W        W59287  29.448  16.832  13.513 -0.0089  0.1070  0.0850
40541W        W59288  17.519   6.846  19.528 -0.1170  0.0924  0.0536
40542W        W59289  32.900  26.530  14.822 -0.3153  0.1007 -0.3566
40543W        W59290  21.802  28.043   0.189  0.0271 -0.2575 -0.0368
40544W        W59291  15.015   2.908  22.558 -0.0420 -0.3757 -0.2148
40545W        W59292  24.991   4.223  21.236  0.2484  0.2114 -0.2388
40546W        W59293   1.015   2.441   2.555  0.0934 -0.2633  0.3358
40547W        W59294  15.092  28.253   8.788 -0.0121 -0.0950 -0.1565
40548W        W59295  35.241   7.374  20.284  0.0991 -0.1524  0.0626
40549W        W59296   7.722   2.081   9.335  0.3038  0.2449 -0.1862
40550W        W59297  30.488  10.731  20.262  0.1852  0.1951 -0.0382
40551W        W59298  28.564  24.653  15.168  0.1701 -0.1961  0.2275
40552W        W59299   4.597   0.470  22.664  0.0461 -0.0828  0.3087
40553W        W59300   3.913  13.378   2.135  0.1057 -0.2632  0.0036
40554W        W59301  12.893   9.853  25.379 -0.1854 -0.3077  0.3267
40555W        W59302  26.010   4.340   0.866 -0.2656  0.0186  0.2627
40556W        W59303  32.441  15.096  22.605  0.1335  0.3628 -0.1821
40557W        W59304   1.251  10.282   0.769  0.1113  0.1575  0.0139
40558W        W59305  15.701   5.042   4.685  0.0591 -0.2529  0.2182
40559W        W59306  33.197  15.519  22.305  0.0346  0.0804  0.1163
40560W        W59307  31.186   1.186  13.163 -0.0135 -0.0953  0.1767
40561W        W59308  20.059  14.765   4.600 -0.3347 -0.1114 -0.1804
40562W        W59309  18.993  24.417  24.322 -0.0669 -0.4153  0.1308
40563W        W59310   8.460   1.412  21.185 -0.0044  0.0918 -0.0109
40564W        W59311   3.396   9.591   0.730  0.6191  0.0390 -0.2460
40565W        W59312  19.050  14.795   9.674  0.2424 -0.1198 -0.1667
40566W        W59313  30.185   4.867   0.266 -0.1687  0.0379 -0.0204
40567W        W59314  11.607  33.638  11.082 -0.1524 -0.1566 -0.1757
40568W        W59315  20.789  22.463   6.051 -0.3238  0.1453  0.0683
40569W        W59316  28.208  30.152  10.763  0.1742 -0.2262 -0.0870
40570W        W59317  24.168   1.932  19.445 -0.1154 -0.2111  0.1084
40571W        W59318  16.297  14.146  10.727  0.3933 -0.1732  0.0062
40572W        W59319  21.567  18.469   2.675 -0.1468  0.0374 -0.0256
40573W        W59320  15.356   6.645   5.698 -0.0140 -0.1319 -0.0373
40574W        W59321  34.108  19.474   1.151  0.1704  0.0238  0.1891
40575W        W59322  19.885  27.385  26.034 -0.3700  0.0790 -0.2666
40576W        W59323  16.415  17.190  13.697 -0.1326 -0.0167  0.1067
40577W        W59324  17.770  33.217  21.551  0.1021  0.0019 -0.0092
40578W        W59325   8.092  32.232  14.810  0.0210  0.1412 -0.1104
40579W        W59326  33.762  31.159  14.176 -0.2273 -0.4122 -0.1077
40580W        W59327   2.495   4.236   7.152  0.0711  0.0305 -0.0654
40581W        W59328  27.231  11.501  11.345 -0.0825  0.0021  0.1188
40582W        W59329  13.750  27.883  12.222  0.1738  0.0932  0.4162
40583W        W59330   7.162  32.156  22.941  0.1898  0.0799 -0.0110
40584W        W59331  17.267   7.604  20.730 -0.1100 -0.3162 -0.2158
40585W        W59332  23.367  11.789   3.131 -0.0587  0.0906  0.1512
40586W        W59333   1.760  18.696   1.282  0.0564 -0.1312  0.0035
40587W        W59334  35.119   1.640  20.844 -0.2152  0.0092  0.0348
40588W        W59335  32.466  10.344  11.573  0.0472 -0.1772 -0.0056
40589W        W59336  13.537  19.345   6.751  0.3380 -0.0935 -0.1476
40590W        W59337  12.742   7.336   9.444 -0.2811 -0.2739 -0.2003
40591W        W59338  11.974  22.600  14.510 -0.2065  0.1057  0.2462
40592W        W59339   0.750   9.722  23.433 -0.0643 -0.3330 -0.1615
40593W        W59340  30.914  19.946  18.262  0.1060 -0.0951 -0.2876
40594W        W59341  13.402  23.851  16.990  0.0435 -0.1355  0.1930
40595W        W59342  27.218  32.647  24.102 -0.1745  0.0791  0.0193
40596W        W59343   1.318   6.376  14.156 -0.0027 -0.0499 -0.2564
40597W        W59344   9.408  20.436   2.398 -0.2543  0.1579  0.0925
40598W        W59345  23.989   9.575  16.630 -0.1028  0.1081  0.0697
40599W        W59346  30.764  26.808  23.440  0.0465 -0.0914  0.2875
40600W        W59347   8.727   2.730  23.808  0.0363 -0.2650 -0.3024
40601W        W59348   4.625  18.354  20.823 -0.1164  0.0453  0.1202
40602W        W59349  16.737  11.198  23.140  0.3334  0.0523 -0.0484
40603W        W59350  33.388  34.026  15.742  0.1378  0.1280 -0.0774
40604W        W59351  28.680  21.056   4.635 -0.0806 -0.2074 -0.1505
40605W        W59352  19.453  17.537   1.783 -0.1266  0.3148 -0.0789
40606W        W59353  22.734  12.716  12.779  0.0030  0.0321  0.2631
40607W        W59354  21.707  23.693   3.088 -0.0489  0.0283  0.0144
40608W        W59355   8.662   2.329  23.500 -0.1849 -0.1147  0.0997
40609W        W59356   8.756   0.525  25.181 -0.2432 -0.1487 -0.0064
40610W        W59357  21.489   5.499  21.425  0.1669  0.0943  0.0798
40611W        W59358  29.292  33.742  21.260 -0.1401 -0.1306  0.1399
40612W        W59359  28.322  14.160  14.351  0.0665  0.2461 -0.0604
40613W        W59360  12.024  29.220  11.117  0.1505 -0.0503 -0.1884
40614W        W59361  22.110   1.102   2.403 -0.1229  0.1335  0.2640
40615W        W59362  22.024  17.582  21.008 -0.0444 -0.1169  0.0474
40616W        W59363  33.192   3.889   3.958  0.1156 -0.1670  0.0894
40617W        W59364   5.542  24.920  21.854  0.0378 -0.0671  0.0084
40618W        W59365  19.220   5.678  25.952  0.2801  0.3503  0.0269
40619W        W59366   5.586  28.259  11.153  0.1595  0.0365 -0.5302
40620W        W59367   9.478  14.695  22.447  0.3683  0.0545  0.1213
40621W        W59368  30.793   7.600  26.049 -0.1455 -0.1242  0.3369
40622W        W59369   7.113  21.372   2.963 -0.6493 -0.0435  0.0050
40623W        W59370  32.176  29.438  19.058  0.2418  0.0473  0.1871
40624W        W59371  26.953  18.042   7.896 -0.3564  0.1372  0.0095
40625W        W59372  10.876  16.903  22.859  0.0186  0.5023  0.2606
40626W        W59373  16.204   5.845  22.092  0.0295  0.1015 -0.0982
40627W        W59374  28.931  24.669  22.524 -0.1929  0.2835 -0.3320
40628W        W59375  14.456  27.999  12.527  0.2521 -0.1228 -0.0011
40629W        W59376   2.615  29.509  21.213 -0.0476  0.1007 -0.1295
40630W        W59377  14.244  30.632  22.423 -0.2008  0.0446 -0.1340
40631W        W59378  24.776   8.405  23.214 -0.0258  0.0951 -0.1197
40632W        W59379  13.128  21.522  13.506  0.0278 -0.0190  0.0053
40633W        W59380  13.439  12.106  10.397  0.2149 -0.1063  0.3653
40634W        W59381  14.826   7.765  19.525  0.1061 -0.0698 -0.3905
40635W        W59382  32.485  16.920  21.721  0.0104 -0.1289  0.2583
40636W        W59383  16.803  13.436  24.568  0.2804  0.5065 -0.2222
40637W        W59384  10.045   1.022   9.071 -0.1343 -0.0942  0.4125
40638W        W59385  21.613  29.701  21.103  0.0642 -0.0309 -0.0693
40639W        W59386  21.100   3.476  25.529 -0.1216  0.0357  0.0876
40640W        W59387  22.389  34.373  18.541  0.0444  0.1882 -0.0936
40641W        W59388  11.807  20.924  11.881  0.2132 -0.2872  0.3183
40642W        W59389  16.572   8.621  19.775  0.0538  0.1939  0.2295
40643W        W59390  14.829  30.279   9.911 -0.1411 -0.2299 -0.1023
40644W        W59391  24.146  15.668  20.415  0.1272 -0.0910 -0.1659
40645W        W59392  16.748  23.506  25.389  0.3297  0.2089  0.1477
40646W        W59393  13.445  33.774   4.143  0.1083 -0.0775 -0.1628
40647W        W59394  20.873  27.874  23.654 -0.1414 -0.2400 -0.0649
40648W        W59395  17.632  31.975   7.863  0.0444  0.0867 -0.0030
40649W        W59396   8.746   3.730   2.767  0.1479 -0.5137  0.3282
40650W        W59397  34.210  31.019  18.222 -0.1299 -0.4359 -0.4098
40651W        W59398  33.917   3.349  22.280  0.0270  0.4473 -0.2395
40652W        W59399  34.764  23.897   0.269  0.2804  0.0334 -0.3417
40653W        W59400   6.071  13.469  24.912 -0.2442 -0.0198 -0.1836
40654W        W59401   1.039   0.439  24.239  0.2430  0.1604  0.1085
40655W        W59402  26.794  14.352   0.140 -0.0209  0.1853 -0.2276
40656W        W59403  24.432  15.269  22.674 -0.3046  0.1899  0.0194
40657W        W59404  12.880   5.790  10.291 -0.2694  0.5083  0.1433
40658W        W59405   5.420   1.124   8.435 -0.0256  0.1563  0.1647
40659W        W59406   7.221  24.891   3.198 -0.1480 -0.0052 -0.0712
40660W        W59407  13.353  22.595  25.383 -0.2568  0.0123  0.0279
40661W        W59408  22.967   4.054   4.152  0.0675  0.3117  0.0218
40662W        W59409  22.220  30.155   5.322  0.1091  0.0823  0.2963
40663W        W59410   5.811  26.157   7.181 -0.0015  0.1648 -0.0712
40664W        W59411  18.134  27.565  25.309  0.0114  0.3880 -0.0273
40665W        W59412   4.586  27.561   9.831 -0.1436 -0.0968  0.2336
40666W        W59413  10.121  19.860   6.748 -0.0211 -0.3669  0.0430
40667W        W59414   7.239   5.522  10.403 -0.0825  0.0498  0.0974
40668W        W59415   3.848  30.851   5.606 -0.0698  0.2641  0.1754
40669W        W59416  30.038  15.357  20.445 -0.1737  0.0908  0.1840
40670W        W59417  28.200  29.763  22.495 -0.0500 -0.0314  0.0429
40671W        W59418  16.766  14.063  24.653 -0.0036  0.0690  0.1580
40672W        W59419  16.017  22.133  24.501  0.1665  0.1190  0.1433
40673W        W59420  31.360  15.549   9.368 -0.2264 -0.0507  0.1223
40674W        W59421   6.551   4.616  25.580  0.3828  0.2475 -0.4772
40675W        W59422  19.997   7.062  17.081 -0.0460 -0.2743 -0.1697
40676W        W59423  21.190  14.476  16.469  0.0387 -0.0666  0.2970
40677W        W59424  28.627   2.756  14.394  0.0020 -0.1321  0.1077
40678W        W59425  32.096  32.170  19.110  0.2287 -0.0175 -0.0295
40679W        W59426  10.517  10.911  21.137  0.0503 -0.1524  0.1161
40680W        W59427   5.627  18.905  18.575 -0.0921 -0.2074  0.2163
40681W        W59428   3.351   5.860  17.150  0.0207 -0.0118 -0.3438
40682W        W59429  32.794  14.596   6.895 -0.0057 -0.1294 -0.2483
40683W        W59430  31.649  25.555  21.530  0.0493 -0.1850  0.2259
40684W        W59431  12.790  14.621   5.303  0.1253  0.2825 -0.1511
40685W        W59432  22.499  23.645  23.697  0.0842  0.4675 -0.1003
40686W        W59433  14.680  11.990   2.973 -0.1151 -0.1547 -0.0927
40687W        W59434  16.047   7.859  20.724  0.1665  0.1779 -0.1085
40688W        W59435  30.327  31.065   0.593 -0.4005  0.0245  0.2965
40689W        W59436  13.170   5.512   0.904  0.0788 -0.0391  0.1805
40690W        W59437   4.378   6.134  17.557 -0.2435  0.1042  0.1871
40691W        W59438  17.972  35.222   8.239  0.0235 -0.0538  0.1217
40692W        W59439   1.078   7.832   6.420 -0.4570  0.3820  0.3343
40693W        W59440  20.908  10.577  17.362 -0.1853 -0.2068  0.0150
40694W        W59441  14.358  22.037  14.554  0.1616 -0.0484  0.2018
40695W        W59442   2.526  18.875  16.055  0.1952  0.1106  0.2708
40696W        W59443  18.172  33.737   3.568 -0.2254 -0.0439  0.2446
40697W        W59444   6.553   9.623  20.773  0.1491  0.0938 -0.0494
40698W        W59445   6.161  23.806   0.074  0.2252 -0.0515  0.0702
40699W        W59446  14.772   9.983   8.599 -0.1068 -0.0718 -0.1769
40700W        W59447  13.287  16.430   5.887  0.1858 -0.2491  0.0966
40701W        W59448   6.832  25.387  12.661  0.2777 -0.0837  0.2442
40702W        W59449  31.229  33.664   3.258  0.3781  0.1384  0.1568
40703W        W59450  10.675  26.813   9.914  0.1088 -0.0173  0.0897
40704W        W59451   0.463   2.003  21.772 -0.0332 -0.2380  0.0918
40705W        W59452  27.136  18.068   8.398 -0.0189  0.2067  0.2912
40706W        W59453  20.080  30.239  15.729  0.2959  0.1148  0.0600
40707W        W59454   0.710  29.782   3.329 -0.1781  0.0840  0.2633
40708W        W59455  23.802  11.273  18.208 -0.0609 -0.3056 -0.4930
40709W        W59456  20.035  22.166  23.665  0.0414 -0.0789  0.2401
40710W        W59457  23.765  28.488   5.736  0.1546  0.0254  0.3420
40711W        W59458   3.911  11.620   2.381 -0.1524 -0.2247  0.1107
40712W        W59459  32.877  25.307  14.924 -0.0458 -0.0866  0.0762
40713W        W59460   1.991  32.707   1.708 -0.2701 -0.0811 -0.0741
40714W        W59461  30.266   3.529  25.428  0.0463 -0.2739 -0.0622
40715W        W59462   3.361  28.658   3.329  0.1341  0.2222 -0.0162
40716W        W59463  17.242  22.181   4.749 -0.0109 -0.0954  0.0030
40717W        W59464   7.318  24.429   3.481 -0.1657 -0.1055 -0.0904
40718W        W59465  29.991   1.367  12.160 -0.1988 -0.1641  0.1066
40719W        W59466   0.602  14.387  12.833 -0.3089  0.1465  0.2624
40720W        W59467  35.243  31.697  21.844  0.1925  0.1039 -0.1189
40721W        W59468  34.008   0.388   2.550  0.1082  0.0161 -0.1696
40722W        W59469  31.713  24.625  16.785 -0.3276 -0.0261  0.2428
40723W        W59470  11.540  19.352  10.792  0.1331  0.1816 -0.0788
40724W        W59471  27.893  25.447  25.264 -0.2322  0.1153  0.0522
40725W        W59472  12.619  26.830   8.004 -0.0589  0.0839  0.2397
40726W        W59473  17.641   9.114   8.593 -0.2182  0.2095  0.0377
40727W        W59474  14.996  18.354  23.636 -0.1218 -0.2341  0.1091
40728W        W59475  26.245  11.877   0.453 -0.1109  0.0498  0.0395
40729W        W59476  32.873  27.505  13.559  0.1060 -0.0652 -0.1966
40730W        W59477   6.469   4.163  26.057 -0.1955  0.0675 -0.1818
40731W        W59478  33.891   7.972  13.382  0.1138  0.1364  0.0287
40732W        W59479  33.390   0.570  16.663  0.2461 -0.4004  0.2394
40733W        W59480  18.187   9.890   7.306 -0.2895  0.1625  0.3534
40734W        W59481  22.614  18.266  18.969  0.3444 -0.1054  0.0897
40735W        W59482  33.270   3.333  22.105 -0.0601  0.1094  0.1755
40736W        W59483  15.880  20.307   6.631 -0.1027 -0.3297 -0.1175
40737W        W59484  20.042  25.003  23.470  0.0178 -0.0513 -0.0818
40738W        W59485  16.198   7.785  21.585  0.1934  0.1581 -0.3937
40739W        W59486   1.345  24.070  26.095 -0.3217  0.1382 -0.0094
40740W        W59487  17.506  23.605   7.856 -0.0290  0.0959 -0.2863
40741W        W59488  26.486  23.506  21.783 -0.3911 -0.2295 -0.1541
40742W        W59489   1.530  12.333  24.206  0.1818  0.1715  0.1903
40743W        W59490  35.328  20.221  20.894  0.0140  0.2444 -0.0488
40744W        W59491   8.755  17.057   2.186 -0.0867 -0.3100  0.1914
40745W        W59492  20.800  28.544  25.419 -0.0656  0.1753  0.0059
40746W        W59493  29.915  13.155   5.504  0.3674  0.1291 -0.1617
40747W        W59494  17.776   0.874   3.445  0.0929 -0.0117  0.3133
40748W        W59495  20.014  12.375   8.742  0.2185 -0.1563  0.1410
40749W        W59496   2.506   1.088   6.474  0.0174 -0.1051  0.4599
40750W        W59497   4.672  33.543  11.403  0.3157 -0.0667  0.0576
40751W        W59498   0.420   4.213   2.556  0.1537 -0.0212  0.0763
40752W        W59499  33.860  27.503  15.649  0.2132 -0.2925  0.2490
40753W        W59500  23.422  22.535  13.618  0.0292 -0.4089 -0.1427
40754W        W59501  29.785  18.317  25.050 -0.1083 -0.0947 -0.0190
40755W        W59502  30.005   6.875   9.319  0.0663 -0.0304  0.0208
40756W        W59503   9.354  19.049  14.082 -0.3417  0.0706  0.0684
40757W        W59504  32.187  18.676   0.024  0.0269  0.0886 -0.1897
40758W        W59505  11.022  10.820  19.763 -0.1480 -0.1319 -0.0411
40759W        W59506  10.499   6.640  19.259  0.2530 -0.4032  0.0239
40760W        W59507   5.199   5.753   8.672  0.2967 -0.0074 -0.3052
40761W        W59508  30.705  34.543  23.850 -0.2274  0.1160 -0.1852
40762W        W59509  32.056  21.679  21.266  0.0696 -0.1379  0.1241
40763W        W59510  21.355  18.950  23.543  0.1066 -0.2374  0.3928
40764W        W59511  15.195  13.346  22.028  0.1687 -0.3642  0.2790
40765W        W59512   1.250  29.384  16.774 -0.0840  0.0130 -0.2943
40766W        W59513   9.703   1.035  25.870  0.3061 -0.1850 -0.2492
40767W        W59514  30.035  29.894  23.616  0.3401  0.0813  0.1111
40768W        W59515   2.912  15.635  21.530  0.1094 -0.2514  0.0412
40769W        W59516   2.816  31.119   7.223  0.2573  0.2148 -0.0371
40770W        W59517  13.813  16.053   2.177 -0.2443 -0.1337 -0.0247
40771W        W59518  17.653  10.071   4.327 -0.1401  0.2414  0.1585
40772W        W59519  22.434  30.555  18.509 -0.2331  0.0608 -0.2221
40773W        W59520  33.353  27.551   1.151  0.1464 -0.2311  0.0205
40774W        W59521  29.622  18.863  18.328 -0.0886 -0.0749 -0.0719
40775W        W59522   5.339  34.983   6.508 -0.0578 -0.0250 -0.0561
40776W        W59523  20.329  19.250  21.435  0.0383  0.2773 -0.1526
40777W        W59524  14.906  23.882  14.039 -0.2934 -0.4399  0.1430
40778W        W59525  31.899  33.246  21.644  0.1395 -0.2253 -0.0761
40779W        W59526  12.270  28.670  10.680 -0.5639 -0.0566  0.1127
40780W        W59527  24.560  14.258   1.743  0.2618  0.1524 -0.0887
40781W        W59528   0.024  33.029   4.395  0.0495 -0.1090 -0.2513
40782W        W59529  12.288   2.824  25.968 -0.1493  0.2591 -0.0532
40783W        W59530  16.536   6.026  25.103 -0.2125  0.0333 -0.0778
40784W        W59531  30.424  13.744  23.843  0.2127 -0.0536 -0.0909
40785W        W59532  11.125  15.696  12.242 -0.0632  0.3186  0.0268
40786W        W59533  27.708  14.999   9.759 -0.1951 -0.2084 -0.1168
40787W        W59534  33.022  29.588   3.988 -0.1010  0.2131 -0.3931
40788W        W59535  16.172  12.920  11.388 -0.1960 -0.0195 -0.2562
40789W        W59536  18.000  10.338   7.504 -0.1158 -0.2198  0.2058
40790W        W59537   3.254  13.601  16.562 -0.2332 -0.0912  0.0446
40791W        W59538  22.055  18.158  16.928 -0.0442  0.1676  0.1232
40792W        W59539   0.784  10.829  20.640 -0.2931  0.3626 -0.2407
40793W        W59540  22.661  33.104   4.465 -0.3620  0.5556 -0.0050
40794W        W59541   9.101  23.411  26.073  0.2513  0.0054  0.1208
40795W        W59542  35.070  13.422  24.039  0.0422  0.2051 -0.2420
40796W        W59543  23.116  18.773  25.144  0.0373 -0.5059 -0.2732
40797W        W59544  17.258   2.423   3.173 -0.2177  0.0865 -0.0351
40798W        W59545  29.238   0.211  15.747 -0.0122  0.0717  0.1947
40799W        W59546  30.434  15.425  14.225 -0.0257  0.1802  0.1247
40800W        W59547  33.470   1.769   5.376  0.3816 -0.0774  0.2684
40801W        W59548  14.504  31.478   8.659 -0.0165 -0.0854  0.2377
40802W        W59549  27.603  34.736  15.305 -0.1356 -0.0185 -0.0947
40803W        W59550   7.677  20.333  12.462  0.1801  0.2720  0.1245
40804W        W59551   6.371  11.865   7.458  0.0439  0.0641  0.0211
40805W        W59552  15.419  27.386  12.784 -0.0773 -0.1967 -0.0801
40806W        W59553  22.520  26.948   0.387 -0.2280 -0.1996  0.0321
40807W        W59554  27.689  23.256   7.277 -0.1334 -0.3710  0.0850
40808W        W59555  33.592  21.843  13.141  0.0021  0.0653 -0.0712
40809W        W59556   3.173   8.105   2.666 -0.2741  0.3576  0.0236
40810W        W59557  29.715  16.896  25.431  0.0261  0.2100 -0.2294
40811W        W59558  29.689  13.707   7.920 -0.0370  0.0186 -0.0647
40812W        W59559  21.527  30.881   0.387 -0.1235 -0.2420 -0.2452
40813W        W59560  21.127   9.930   7.249 -0.1099  0.0959  0.1267
40814W        W59561   4.472  31.020  18.972  0.0672  0.0431  0.1554
40815W        W59562  19.353  22.534   5.918  0.1589  0.0554  0.0648
40816W        W59563  24.419   3.016   4.685  0.0705  0.1286 -0.0268
40817W        W59564  11.328  30.445  24.223 -0.1071 -0.0526 -0.1801
40818W        W59565   5.742   5.503   4.987 -0.3315  0.0828  0.0943
40819W        W59566  29.248  13.965   7.770  0.1912 -0.1210  0.2541
40820W        W59567  29.786  25.238  22.703  0.0932  0.0786  0.3545
40821W        W59568  15.003   3.527   5.092  0.0246 -0.1313  0.2279
40822W        W59569  18.472   0.810  22.161  0.2824 -0.0259  0.1202
40823W        W59570  27.466  13.293   5.762 -0.0724 -0.0266 -0.0837
40824W        W59571  16.328  21.950   3.882  0.2225  0.0116 -0.2532
40825W        W59572  14.768  10.952  22.795 -0.0689  0.2309 -0.1812
40826W        W59573   0.034  22.557  18.473 -0.3185  0.0474  0.1392
40827W        W59574   2.373  16.530   2.619 -0.0131 -0.3365  0.0435
40828W        W59575  15.733  12.555  25.560 -0.0152 -0.0360 -0.0604
40829W        W59576  34.008  21.796  21.234  0.2012  0.0662  0.0588
40830W        W59577  27.664   6.116  13.790  0.0231  0.1255 -0.0486
40831W        W59578  19.310   5.091   3.493  0.0109 -0.2167 -0.2312
40832W        W59579   9.209  24.044   8.271  0.0636  0.0607  0.1770
40833W        W59580   2.176  26.599  25.359  0.3499  0.5413 -0.1106
40834W        W59581  15.150   6.426   6.405 -0.0528  0.1592 -0.2468
40835W        W59582   5.412  25.014   6.230  0.1489 -0.0923 -0.0042
40836W        W59583  31.632  20.747  13.966 -0.3716  0.1758  0.0808
40837W        W59584  30.479  24.731  13.449 -0.2732  0.2027  0.0113
40838W        W59585   5.813  17.385   3.727  0.0965 -0.2043  0.0402
40839W        W59586  13.114   4.335  22.548 -0.2200  0.4046 -0.0642
40840W        W59587  33.750  16.309  22.627  0.3144 -0.3391  0.0866
40841W        W59588  13.637  10.885   0.234  0.2146 -0.2907 -0.1677
40842W        W59589  31.643   2.852   4.367  0.1205  0.1198 -0.2690
40843W        W59590   8.654   9.018   0.183  0.0514 -0.2039 -0.2069
40844W        W59591   5.980  15.668  22.472  0.0056  0.1109  0.0681
40845W        W59592   0.478  19.279  24.116  0.1907 -0.1376  0.1245
40846W        W59593  24.580   8.744  19.170  0.1097 -0.1050  0.1044
40847W        W59594  16.215  24.862   6.472 -0.1462  0.0721  0.0435
40848W        W59595  27.403  23.766  21.551 -0.1731 -0.0049 -0.3056
40849W        W59596  11.246  30.862   3.137 -0.1739 -0.0652  0.1549
40850W        W59597  30.098  11.271  18.693  0.0902  0.1224  0.0421
40851W        W59598  23.330  10.323  22.044 -0.4334 -0.0771  0.0217
40852W        W59599   3.362   4.804   1.344 -0.1567  0.2570 -0.1084
40853W        W59600  22.443   0.519  13.261  0.2118 -0.2385  0.1560
40854W        W59601   4.482  32.596   6.473 -0.2910 -0.0602  0.1541
40855W        W59602  29.216  23.331  20.456 -0.0818 -0.2339 -0.1661
40856W        W59603  31.840   1.849  21.526 -0.0001  0.0472 -0.1332
40857W        W59604   3.210   9.194  22.450  0.1141 -0.1797  0.3574
40858W        W59605  20.128   2.261   8.634 -0.2116  0.3067  0.2126
40859W        W59606  23.204  27.270  21.295  0.2767 -0.1317 -0.1119
40860W        W59607  32.616  33.601  15.939 -0.2061 -0.1045 -0.0657
40861W        W59608  18.524  28.568   8.598  0.1741  0.2406  0.1302
40862W        W59609   2.046  32.235  16.393 -0.2722  0.4630 -0.0583
40863W        W59610  15.688   5.772  19.734 -0.0956  0.0407 -0.0726
40864W        W59611  32.468  32.765  13.277  0.0862  0.1409 -0.1014
40865W        W59612  11.341  24.139   5.799  0.0033  0.3425  0.0793
40866W        W59613  13.376   8.883  20.601 -0.0804  0.0239 -0.1336
40867W        W59614  31.106  10.701  23.373 -0.4058  0.2535 -0.1482
40868W        W59615  28.263  28.212  11.706 -0.2741 -0.1174 -0.0898
40869W        W59616  34.853   4.062  19.137 -0.0894 -0.1811 -0.2006
40870W        W59617  20.833  30.470  18.527 -0.0928 -0.0354  0.1046
40871W        W59618  27.273  33.909   0.076  0.3579 -0.3925  0.1207
40872W        W59619   6.520  25.600   3.089  0.1183 -0.0061  0.2055
40873W        W59620  11.762   9.220  13.629 -0.1054  0.0805 -0.0480
40874W        W59621  19.971   1.377   4.029 -0.0177 -0.1749 -0.0191
40875W        W59622  20.555  31.097   3.221  0.1110 -0.0318 -0.0631
40876W        W59623  24.595  32.793  18.935 -0.0895 -0.0863 -0.1580
40877W        W59624  23.285  25.406  25.931 -0.3072 -0.3417  0.0934
40878W        W59625   5.812  32.414   5.377 -0.0757 -0.3068 -0.1423
40879W        W59626  29.060  22.530   5.082  0.0817  0.0170  0.0396
40880W        W59627  18.893  30.496   1.729 -0.0393 -0.1058 -0.0902
40881W        W59628  28.775  17.255  15.037 -0.4456  0.1027 -0.1938
40882W        W59629   8.681  33.136   3.571  0.0033  0.1200  0.2524
40883W        W59630   0.988  29.070   2.962  0.4741  0.0604  0.1254
40884W        W59631   6.764   3.589   2.996  0.1453 -0.1881 -0.1619
40885W        W59632  29.584   2.300   4.065 -0.2543 -0.1164 -0.2302
40886W        W59633   1.288   6.154   0.068  0.1566  0.1171 -0.0140
40887W        W59634  26.397   3.809  13.205  0.1785 -0.0463  0.0810
40888W        W59635  17.703  32.567  10.106  0.0578  0.1469  0.2199
40889W        W59636   3.696   9.870  18.744  0.1986  0.1181  0.0037
40890W        W59637  14.333  14.659  22.923 -0.0197 -0.5409  0.0157
40891W        W59638   5.144   5.248   4.919 -0.1671  0.0394  0.1981
40892W        W59639  27.053  14.552   7.964 -0.2162  0.5013 -0.1564
40893W        W59640  29.977   3.800  10.522 -0.2046  0.0430  0.0759
40894W        W59641  12.122   4.924   2.447  0.2300  0.1426 -0.1219
40895W        W59642  32.132   4.955  19.765 -0.0887  0.1955  0.1983
40896W        W59643  33.988  23.487  24.524  0.0254 -0.0781 -0.1343
40897W        W59644  22.111  23.427  21.526  0.0128  0.2573 -0.2190
40898W        W59645  27.634  23.130   6.296  0.0353 -0.3358 -0.1598
40899W        W59646  25.260  20.121   9.301 -0.0266  0.0954  0.0951
40900W        W59647  10.761   0.286  20.229 -0.1133  0.0200  0.1613
40901W        W59648  14.448  11.178   7.180 -0.2199 -0.0560  0.0741
40902W        W59649   3.470   3.941  20.909 -0.4721 -0.1057  0.1118
40903W        W59650  22.005  13.030   3.409 -0.0063 -0.0172  0.1252
40904W        W59651  32.982  29.080  17.268  0.1265 -0.1111  0.1209
40905W        W59652   9.578   8.424   4.462  0.2562 -0.0794 -0.1084
40906W        W59653   4.058  34.716  11.398  0.0398  0.1380  0.1482
40907W        W59654  15.107  13.030   3.042 -0.0421  0.1459 -0.0857
40908W        W59655  19.308  20.247  21.738 -0.0088 -0.2595 -0.2963
40909W        W59656  22.443   5.026   0.002  0.2816  0.1662  0.0437
40910W        W59657   3.977   4.455   6.128  0.1029  0.0810  0.1993
40911W        W59658  25.587  16.159  18.379 -0.1873 -0.3650 -0.1721
40912W        W59659   3.885   0.487   5.777  0.0068  0.3142 -0.0092
40913W        W59660   9.340  18.946   0.656 -0.0311  0.0858 -0.0206
40914W        W59661   7.920  20.724  24.276 -0.1107  0.1628  0.3961
40915W        W59662  22.460  33.452  26.114  0.0578  0.0895 -0.0235
40916W        W59663  17.036  11.719  18.963  0.0796  0.1682 -0.0532
40917W        W59664   7.788   0.299   0.841 -0.1157 -0.0937 -0.3277
40918W        W59665  18.700  15.084  10.582 -0.0820 -0.1135 -0.1027
40919W        W59666  35.162  16.572   0.629 -0.0910 -0.1339  0.1380
40920W        W59667   3.234   7.257  21.948 -0.1359  0.4295  0.3361
40921W        W59668  22.917  30.430  12.873 -0.1024 -0.2762 -0.4246
40922W        W59669  35.354   1.837  17.831 -0.1091  0.0610 -0.1922
40923W        W59670  31.600  20.124   8.286  0.1028 -0.0249  0.0824
40924W        W59671  34.803  25.488  22.364 -0.2044  0.2246 -0.0237
40925W        W59672  17.949  13.410   5.473  0.1146 -0.1867 -0.0263
40926W        W59673  18.288   6.564  12.623 -0.2345 -0.2091  0.0951
40927W        W59674   1.612  31.447   8.668 -0.3378 -0.0252 -0.1256
40928W        W59675  15.114   8.977   1.731 -0.0428 -0.0592 -0.3762
40929W        W59676   5.455  32.442   5.054  0.2007 -0.0497  0.0836
40930W        W59677   8.660  32.753  26.193  0.0669 -0.2561 -0.1511
40931W        W59678   8.656  11.107   1.254  0.1317  0.0151 -0.0654
40932W        W59679   4.574  14.697   7.175  0.1257 -0.1719 -0.0732
40933W        W59680  29.973  18.224   4.885  0.6206  0.1623 -0.0134
40934W        W59681  19.615  10.328   6.776  0.2286  0.1756 -0.1002
40935W        W59682  16.288  16.781  12.623  0.2287 -0.0409 -0.0965
40936W        W59683  17.425  34.681  25.431  0.0662  0.1274 -0.3056
40937W        W59684  23.243  28.473   1.887 -0.1252  0.1167  0.3599
40938W        W59685  23.540  27.333  12.600 -0.0666 -0.2061  0.0970
40939W        W59686  20.109  28.114   7.855  0.1048 -0.1373 -0.1402
40940W        W59687  23.906  13.909  12.220 -0.0354  0.2866 -0.0229
40941W        W59688   8.272   6.437  14.166 -0.2083  0.3264 -0.0192
40942W        W59689   7.400  18.926  23.736 -0.0033  0.3862  0.0987
40943W        W59690   7.131   8.242  25.582 -0.2244  0.0776  0.3821
40944W        W59691  30.749  13.161  21.586 -0.0988  0.1831 -0.3250
40945W        W59692  19.565  25.522   7.167  0.0778  0.0933 -0.1876
40946W        W59693  24.455   7.862  22.171  0.0854 -0.1159 -0.2678
40947W        W59694   9.580  23.443  25.776  0.1120  0.0181 -0.2426
40948W        W59695   4.293   9.468  21.114 -0.0768  0.2717  0.1267
40949W        W59696   3.198  24.095  23.326  0.2564  0.1261  0.1230
40950W        W59697  27.087   9.312  21.029 -0.1923  0.1097 -0.3981
40951W        W59698  28.520  33.675  24.366  0.0173  0.0375  0.3396
40952W        W59699  14.496  14.825   1.308  0.1989  0.0919 -0.1795
40953W        W59700   1.422  31.844   0.225  0.1320 -0.2092 -0.3434
40954W        W59701  29.707  17.232  19.250  0.2931 -0.2004 -0.2008
40955W        W59702  34.095  22.982  25.593 -0.0947 -0.0058  0.1173
40956W        W59703   6.793  35.213  10.390 -0.0098 -0.1199 -0.1410
40957W        W59704   3.354  14.569   1.767  0.1125  0.1559 -0.0044
40958W        W59705   1.029  34.960  22.415  0.2161  0.3560 -0.2250
40959W        W59706  12.220   9.254  12.869  0.1353 -0.3574 -0.1518
40960W        W59707   2.334  33.302  22.213 -0.1086  0.0362 -0.3098
40961W        W59708  12.196   6.114  20.554 -0.0690 -0.2272  0.0690
40962W        W59709  10.807   2.729  24.787 -0.2171 -0.0521  0.2082
40963W        W59710   8.705  20.615  12.657  0.1888 -0.1714 -0.0230
40964W        W59711  29.082  28.405  17.247  0.2708  0.3442 -0.0504
40965W        W59712   3.012  25.783  22.580  0.1726 -0.1146 -0.3862
40966W        W59713   7.592  32.175   7.358  0.0193 -0.0475  0.3386
40967W        W59714  22.226  17.839  20.080  0.1451  0.1429 -0.1172
40968W        W59715  28.186   7.848  15.427 -0.0775 -0.1160  0.1379
40969W        W59716  21.442   8.034   6.135 -0.0098 -0.0190 -0.0302
40970W        W59717  25.896  32.603  21.788  0.1737 -0.3456  0.0859
40971W        W59718  12.924  15.415   3.056 -0.0937  0.4454 -0.0410
40972W        W59719  20.841  13.925  18.425  0.0137 -0.2092  0.2363
40973W        W59720  34.694   0.655  17.560  0.1845 -0.3494 -0.1039
40974W        W59721  20.846  19.192   2.241  0.1299  0.2006  0.4139
40975W        W59722  13.199   7.784  19.976  0.4064 -0.1377 -0.1997
40976W        W59723  17.134   3.325   3.149  0.2955  0.0559 -0.2999
40977W        W59724  18.248   9.728   6.241 -0.3158 -0.4550 -0.3365
40978W        W59725   5.178  30.257  11.613 -0.3256 -0.2616 -0.3120
40979W        W59726   9.096  26.335   6.213  0.3187 -0.1156  0.2223
40980W        W59727  20.924  28.119  19.466  0.0136 -0.0614  0.1268
40981W        W59728  25.259   6.008  13.113 -0.1028  0.0249 -0.0749
40982W        W59729  20.595  10.978   7.265  0.2133 -0.0711 -0.0775
40983W        W59730  33.903  19.110   8.728 -0.0116  0.0863 -0.1294
40984W        W59731  13.703   2.204   8.724 -0.1882  0.0276 -0.0375
40985W        W59732  29.857  32.254   1.172  0.0312  0.0605  0.0062
40986W        W59733  34.517  10.850  10.158 -0.3406  0.0582 -0.1531
40987W        W59734  22.099  30.240  23.889 -0.1907  0.0918 -0.1262
40988W        W59735   8.391  24.635  11.777  0.3405  0.2768 -0.0408
40989W        W59736  28.005  23.536  14.163 -0.0825  0.1232  0.3059
40990W        W59737  25.736  17.145  21.121  0.0887  0.0320  0.0396
40991W        W59738  14.576   0.950  20.983 -0.1403 -0.3462 -0.2368
40992W        W59739   7.331  20.482  24.056  0.0557 -0.1726 -0.1870
40993W        W59740  25.734  11.426   0.996  0.0639  0.1033 -0.0206
40994W        W59741   7.596   1.082  14.335  0.2036 -0.0019 -0.2466
40995W        W59742  34.864  24.038  25.491  0.1258 -0.0795 -0.0054
40996W        W59743   7.582  20.357  21.551 -0.0249 -0.0626  0.1547
40997W        W59744  11.721  18.679  12.055  0.0864  0.0759  0.0721
40998W        W59745  32.309   5.466  13.348 -0.1299  0.0822  0.0570
40999W        W59746   3.489  30.321   1.923 -0.0265 -0.1516 -0.0326
41000W        W59747  26.633   5.541  17.647  0.0241  0.1367 -0.0965
41001W        W59748   1.128   3.760  20.617 -0.0167 -0.0434 -0.0080
41002W        W59749  31.169  11.810  13.769  0.1553  0.0544  0.0095
41003W        W59750  25.862  31.743  17.022  0.0491 -0.3465  0.2128
41004W        W59751  14.174  22.931  10.867  0.2698 -0.0979 -0.1055
41005W        W59752  20.918   1.372   6.013  0.0588 -0.2311  0.1658
41006W        W59753   0.696   4.064  20.278  0.0724  0.2651 -0.1651
41007W        W59754   2.588   5.724  25.229 -0.1647 -0.1340 -0.0869
41008W        W59755  23.821  14.671  19.393  0.1740 -0.0443  0.0210
41009W        W59756  25.513  30.314   2.901  0.1559 -0.1447 -0.1829
41010W        W59757   3.857   5.678  20.730  0.3753 -0.1877 -0.2052
41011W        W59758  34.830   7.153   5.511 -0.1414  0.0003 -0.0330
41012W        W59759  18.813  22.084   1.590  0.2008  0.0106 -0.0555
41013W        W59760  22.018  17.658   2.735  0.1424  0.1875  0.1145
41014W        W59761  34.206  20.684  15.630  0.2766  0.0207 -0.2261
41015W        W59762  14.554  30.093  12.211 -0.0216 -0.0064 -0.2780
41016W        W59763   6.375  17.172  10.540 -0.1000  0.0172 -0.2760
41017W        W59764   3.395   8.457   2.381 -0.0537 -0.0387 -0.1289
41018W        W59765  24.921  22.518  22.738 -0.4474  0.2427  0.3139
41019W        W59766  15.035  20.310   7.144 -0.3499  0.0926  0.1173
41020W        W59767  13.746  22.423  23.836  0.2228 -0.2826  0.0732
41021W        W59768   5.959   8.571   2.061  0.0523  0.2241  0.2749
41022W        W59769   9.728   5.873   8.593  0.1627  0.0351  0.0110
41023W        W59770  27.960   7.620   9.069  0.4830  0.2725 -0.1346
41024W        W59771  10.472  31.689   0.779 -0.2845  0.1825 -0.0768
41025W        W59772  23.044  20.459  13.713  0.1656  0.2123  0.1761
41026W        W59773   2.029   8.890  24.718  0.0629  0.1112  0.2773
41027W        W59774  10.547   0.469  13.012  0.1399  0.2116 -0.0157
41028W        W59775  11.900  33.037  15.784 -0.3896 -0.3071  0.2033
41029W        W59776   7.550  24.059  23.996 -0.0146 -0.0443 -0.1495
41030W        W59777  22.282   8.438  25.750 -0.0050  0.0078 -0.0677
41031W        W59778  29.603  20.946   6.438 -0.0131 -0.1764  0.0906
41032W        W59779  13.276  35.381  12.720 -0.0462  0.2639 -0.0015
41033W        W59780  30.469   1.836  25.500 -0.1895 -0.1307 -0.1294
41034W        W59781  19.913   9.234   1.746  0.2685 -0.1291  0.0758
41035W        W59782  17.434  34.146   2.223  0.0493 -0.0542  0.0015
41036W        W59783   4.100  29.993   7.435  0.1090 -0.0314  0.0110
41037W        W59784  28.873  30.635  22.172  0.0264  0.0454  0.0112
41038W        W59785  21.497  13.725  23.550  0.0353  0.3480 -0.0592
41039W        W59786  11.544   3.420   9.596  0.1432  0.0509 -0.0541
41040W        W59787  17.084  26.406  23.140  0.1806 -0.0397  0.0290
41041W        W59788   7.712  35.096  10.268 -0.0933  0.1306  0.1875
41042W        W59789   8.303  14.136   0.028  0.2154  0.1205 -0.0822
41043W        W59790  32.167  16.128  12.650  0.6475  0.0807  0.0042
41044W        W59791  17.734  24.327  11.592  0.1924 -0.0490 -0.0043
41045W        W59792  10.084  17.156  24.131 -0.0819  0.0769  0.5979
41046W        W59793  30.302  13.557  21.917 -0.1113  0.1740 -0.1051
41047W        W59794  28.844   5.446  12.627  0.0502 -0.0734 -0.0570
41048W        W59795   2.468  18.832   2.490  0.2493 -0.2115  0.0284
41049W        W59796  11.930  24.430   6.270  0.2471 -0.2127 -0.0350
41050W        W59797  24.956  21.053  25.177 -0.1751  0.1809  0.2467
41051W        W59798   0.457  20.449   9.792  0.2527  0.1895  0.0913
41052W        W59799   9.163  35.343   1.434  0.0875 -0.2282 -0.0963
41053W        W59800  27.361  18.207  13.577 -0.2596 -0.2133  0.0358
41054W        W59801  18.131   8.246  11.474  0.1589 -0.0247  0.0417
41055W        W59802  13.237  10.415  20.078 -0.0076  0.3114  0.0348
41056W        W59803  33.699  22.139  21.477 -0.1207  0.0545  0.3421
41057W        W59804   6.108  15.538  20.279  0.2368 -0.0048  0.0020
41058W        W59805  33.634  23.064  17.019 -0.2177 -0.2595  0.0129
41059W        W59806   0.847   3.645  14.294 -0.2929  0.0365  0.0295
41060W        W59807  11.303  34.554  10.953  0.2698 -0.0808  0.0541
41061W        W59808  35.340  30.764  21.960 -0.1515 -0.1666  0.1238
41062W        W59809  20.943  15.107   4.181 -0.0657 -0.1153  0.0868
41063W        W59810  13.927  10.086  20.795 -0.5559 -0.2584 -0.0882
41064W        W59811   1.936  23.966   0.269  0.0062  0.1015  0.0382
41065W        W59812   5.228   7.939  23.241  0.1636  0.0149 -0.1131
41066W        W59813  20.126  33.117  19.602 -0.0511  0.1444 -0.0420
41067W        W59814   1.993  17.510  21.686 -0.0475 -0.0273  0.2468
41068W        W59815  10.830  15.809   8.633  0.0829 -0.0508  0.4130
41069W        W59816  24.812  31.605  20.175  0.1501  0.0734 -0.3427
41070W        W59817   0.349  20.476  20.710  0.0014 -0.1705 -0.1182
41071W        W59818   0.697  17.330  16.956  0.0731 -0.3125 -0.0472
41072W        W59819  34.394   8.771  22.915 -0.1013  0.0402  0.3063
41073W        W59820  32.984  32.372  24.980  0.0643  0.2230 -0.0177
41074W        W59821  33.972  29.314  20.844 -0.2709 -0.1241  0.3223
41075W        W59822  22.369   7.839   2.830  0.4100 -0.2568 -0.0578
41076W        W59823  12.976  17.619  13.309  0.4034 -0.1595 -0.1143
41077W        W59824  32.243  30.223   5.774  0.0231 -0.1392  0.0669
41078W        W59825  28.445   1.617  10.502 -0.0646  0.2931 -0.1862
41079W        W59826   5.000  20.280   3.630 -0.1879  0.1107 -0.0332
41080W        W59827   4.786   6.094  22.556  0.0136 -0.0192 -0.1073
41081W        W59828   0.608  19.674   1.212  0.1057  0.1244 -0.1066
41082W        W59829  30.654   1.812  21.858 -0.3194 -0.0634  0.1849
41083W        W59830  14.870  26.499  16.138  0.0486  0.3027  0.2868
41084W        W59831  12.196   7.387  26.138  0.0859 -0.0550  0.1110
41085W        W59832  10.080   9.763  10.575  0.0202 -0.0089  0.1685
41086W        W59833  32.410  26.935   2.463 -0.0094 -0.2714  0.1858
41087W        W59834  11.192  20.849   5.050 -0.1637 -0.1073  0.1717
41088W        W59835   8.154  11.858   5.260  0.1780  0.2918 -0.2242
41089W        W59836  35.007  12.087  16.794  0.2310 -0.1921 -0.0128
41090W        W59837   2.742  24.103  19.870 -0.0076  0.0866 -0.0155
41091W        W59838  14.754   9.646   7.476  0.0398  0.0259  0.0495
41092W        W59839   3.875  33.588   4.203 -0.2909 -0.2964  0.0397
41093W        W59840  21.443  17.996   1.327 -0.0938 -0.1442 -0.0566
41094W        W59841  22.695  19.075  15.262  0.2311  0.0162 -0.2026
41095W        W59842  19.960  24.590   9.391 -0.1188 -0.1927  0.2032
41096W        W59843  30.249  22.556  14.559 -0.0433 -0.2442  0.1576
41097W        W59844  33.438  11.520  13.090 -0.0240 -0.1854  0.0451
41098W        W59845  12.143   3.677  13.517 -0.0251 -0.2606 -0.0662
41099W        W59846   1.348  25.807  16.478  0.1464 -0.3214  0.0931
41100W        W59847  31.642  12.762   6.593 -0.0920  0.1188 -0.3075
41101W        W59848   0.485  30.840   7.483 -0.2419  0.2156 -0.4232
41102W        W59849  17.423  14.862  21.304  0.1114 -0.3310  0.2075
41103W        W59850  16.651  25.362  11.854 -0.0821 -0.2055 -0.1741
41104W        W59851   7.258  32.302  20.731 -0.0323 -0.1233  0.0497
41105W        W59852  17.756  34.468   0.989  0.2901  0.0034  0.0149
41106W        W59853   8.330  17.199   7.355 -0.1641 -0.1842  0.4033
41107W        W59854   8.903  19.027   0.767  0.2292  0.1439  0.1416
41108W        W59855   5.021  17.302   4.380 -0.0209 -0.2463  0.0106
41109W        W59856  12.983  22.442  11.233  0.3134 -0.2838 -0.0261
41110W        W59857  26.104   9.030  18.146  0.1471 -0.0051 -0.0024
41111W        W59858  32.178   5.605  14.267 -0.1183  0.0331  0.2657
41112W        W59859  27.746  10.888   9.024  0.1275  0.3295 -0.3290
41113W        W59860  14.281  21.140   4.917  0.0649 -0.2761 -0.1233
41114W        W59861   5.413  31.590   0.061  0.2117 -0.1916  0.2432
41115W        W59862  31.629   2.842  24.682 -0.0854  0.1098  0.0564
41116W        W59863  27.598   3.987   5.485  0.0785  0.0690 -0.1596
41117W        W59864  16.397   9.660   4.777  0.2712 -0.1983  0.3084
41118W        W59865   9.590  18.206   5.640  0.0674  0.0040  0.0620
41119W        W59866  25.720   1.760  17.236  0.1518  0.2840 -0.0588
41120W        W59867   9.066  28.182   6.802 -0.2299  0.2015  0.2917
41121W        W59868  21.110   4.483   9.135 -0.3798 -0.4512  0.1990
41122W        W59869  24.433  17.506  16.493 -0.1126  0.1936  0.0526
41123W        W59870  31.856  28.001   2.258  0.0759  0.1153 -0.1550
41124W        W59871  12.050  28.436  10.153  0.1172 -0.0093  0.1316
41125W        W59872  23.490  10.051  17.554  0.1042  0.1301 -0.1388
41126W        W59873  31.613  29.975  24.473 -0.2034  0.0157  0.0358
41127W        W59874  20.701  34.613  15.275 -0.0780 -0.0749  0.1050
41128W        W59875  25.868  24.310  14.082  0.1564 -0.4224 -0.0943
41129W        W59876  21.718   5.489   3.809  0.0625 -0.2095 -0.0463
41130W        W59877  18.722   0.507   0.389 -0.2151  0.1663 -0.0783
41131W        W59878  12.358  23.234  23.834  0.0478 -0.0002 -0.0164
41132W        W59879   9.166  33.897   3.929  0.2029 -0.0650  0.0595
41133W        W59880  25.528   1.143  20.538  0.0870  0.0461 -0.3691
41134W        W59881   9.503  21.465  13.483  0.1083  0.1075  0.3728
41135W        W59882  35.262   8.212  15.435  0.0144  0.1438  0.3697
41136W        W59883   1.114  23.319  23.692 -0.5404  0.4166 -0.0262
41137W        W59884  15.393  29.853  25.161  0.2020  0.4037  0.3017
41138W        W59885  19.909   4.255  19.572 -0.1066 -0.2222  0.0844
41139W        W59886   5.887  33.796  21.459  0.1609 -0.3356 -0.0141
41140W        W59887   8.525   5.111   5.416 -0.1577  0.2166  0.1922
41141W        W59888   4.229  17.812  17.206  0.0635 -0.0239 -0.2367
41142W        W59889  32.576  22.397  10.611  0.2196  0.0692  0.0872
41143W        W59890   3.944   5.827  18.943 -0.1552 -0.2982  0.0291
41144W        W59891  19.866   6.698   9.743  0.1436 -0.2113 -0.0608
41145W        W59892   9.462   6.996  10.662 -0.1012 -0.2069  0.1669
41146W        W59893  17.523   2.301  16.881  0.0617 -0.1823 -0.1563
41147W        W59894   6.975   3.174   9.201  0.2561 -0.1300  0.0212
41148W        W59895  15.298  29.783   7.078  0.0139  0.1266 -0.1553
41149W        W59896   3.441  28.632  24.038  0.2445  0.0826 -0.0701
41150W        W59897  26.897   9.826   0.144 -0.1394 -0.2046  0.4359
41151W        W59898  16.156  11.502   6.769 -0.0238  0.0834 -0.0419
41152W        W59899  30.359  33.106  21.580  0.2740 -0.1525  0.0311
41153W        W59900  33.659  19.296  20.375  0.3687  0.2279 -0.1260
41154W        W59901  27.042   7.366   1.983  0.0122  0.2701  0.1521
41155W        W59902  25.674  13.048  19.786 -0.4733  0.0288 -0.1754
41156W        W59903  21.984   2.408   5.884 -0.1674 -0.1645  0.1207
41157W        W59904  13.556   3.471  18.905 -0.0394 -0.2488 -0.2044
41158W        W59905  14.214  28.881   1.528 -0.0309 -0.0713 -0.4126
41159W        W59906  27.213  12.670  22.544 -0.0161 -0.1132  0.0620
41160W        W59907   7.176  13.779  22.354 -0.1170 -0.2443  0.1564
41161W        W59908  23.313  34.671   5.074 -0.0033 -0.0470 -0.1291
41162W        W59909  14.913  27.465   3.410 -0.0550  0.1886 -0.0723
41163W        W59910  30.787  29.076   0.750  0.0312  0.0976  0.0506
41164W        W59911   6.023  34.843  14.558 -0.1500  0.2043 -0.1681
41165W        W59912  10.441  25.911   9.742 -0.1015 -0.0751 -0.1538
41166W        W59913   8.425  31.891  21.936 -0.0978  0.1908 -0.2438
41167W        W59914  31.513  15.090   9.529 -0.0975 -0.2337 -0.0260
41168W        W59915   3.654   4.922  16.997 -0.0538  0.0959 -0.0031
41169W        W59916  33.730  27.770  25.047 -0.1273 -0.0456 -0.0224
41170W        W59917  12.292  23.135  15.901  0.0070 -0.1099  0.0577
41171W        W59918  19.779  19.272   4.465  0.0439  0.0978 -0.2082
41172W        W59919   9.919   0.704   2.714  0.1929  0.1405  0.1052
41173W        W59920  34.853  35.383   2.522 -0.0515  0.0656  0.1948
41174W        W59921  28.038  12.664   9.525  0.2540  0.1942  0.1757
41175W        W59922   1.306   4.237  21.566  0.0102  0.0713  0.0044
41176W        W59923  35.169  22.689  23.726 -0.2769  0.0336  0.2752
41177W        W59924  17.729   8.960   1.912  0.3199 -0.2407  0.1702
41178W        W59925   7.699  24.942   2.950 -0.2555  0.0874  0.2930
41179W        W59926  15.825   5.294  12.118  0.2039 -0.2141 -0.0538
41180W        W59927   3.090   4.698   7.271 -0.6237  0.2425  0.1052
41181W        W59928  32.462  16.306   9.553  0.2293 -0.2388  0.2381
41182W        W59929  25.954  10.782  10.116 -0.0478  0.2420  0.1410
41183W        W59930  16.079  20.469  25.703 -0.2527  0.1191  0.0441
41184W        W59931  10.271  10.661   4.061 -0.0887  0.0517  0.1298
41185W        W59932  22.826  26.058  17.221 -0.1413  0.0254  0.2781
41186W        W59933  29.254  18.243  18.342 -0.1939  0.1346 -0.0126
41187W        W59934  34.891   3.785  21.478 -0.0336  0.0600  0.1815
41188W        W59935  32.969  30.000   4.423 -0.1189  0.0123 -0.0755
41189W        W59936  19.191  12.492   4.917 -0.3340 -0.1074 -0.0329
41190W        W59937  26.230  18.741  10.091  0.2091  0.1978 -0.0678
41191W        W59938  28.135  24.874   0.437 -0.2744 -0.1018 -0.0771
41192W        W59939  31.905  26.099  10.160  0.0555  0.1675  0.1855
41193W        W59940  27.116  21.773  17.468 -0.0598  0.3258 -0.1157
41194W        W59941  19.793  12.533  21.843 -0.0652 -0.1078 -0.4017
41195W        W59942  31.133   5.582  25.782 -0.0226 -0.0140  0.0448
41196W        W59943   3.129  25.263  25.725  0.1610 -0.2317  0.1660
41197W        W59944  17.590  32.344   3.753  0.0749  0.1608 -0.3589
41198W        W59945  11.956   5.896   2.617 -0.1538 -0.0705 -0.1649
41199W        W59946   7.829  18.098   9.859  0.1776  0.0645 -0.0561
41200W        W59947  28.711  26.962  14.607 -0.1032  0.0778  0.2531
41201W        W59948  29.765  32.898  13.054  0.1338 -0.0553 -0.0938
41202W        W59949  16.719  16.751  13.685  0.0187 -0.0027 -0.2807
41203W        W59950  31.225  29.276  14.254  0.1881 -0.0998  0.0579
41204W        W59951  32.719  22.613  11.070  0.1476 -0.1884 -0.2136
41205W        W59952  28.513   6.559  25.610  0.0541  0.1963  0.2739
41206W        W59953   8.548  25.501   4.611 -0.0737 -0.0042 -0.2162
41207W        W59954   2.591   4.136  19.106  0.0652  0.1084 -0.2088
41208W        W59955  17.792  21.135   0.084 -0.0657  0.0174  0.4439
41209W        W59956   0.124   7.807  12.100 -0.1096  0.3172 -0.3073
41210W        W59957   4.485  21.714  23.851  0.0662 -0.3807  0.1064
41211W        W59958   7.751   7.210   3.815 -0.0523  0.3259 -0.2052
41212W        W59959  18.975  30.548   5.422  0.1694  0.1383 -0.3164
41213W        W59960   9.694  18.903  12.046  0.1299  0.0536 -0.3099
41214W        W59961  18.277  18.033  25.240 -0.3309 -0.0284  0.1554
41215W        W59962  19.308  33.683  23.652 -0.3227 -0.2192  0.0361
41216W        W59963   7.370  31.333  21.188  0.1178  0.3153  0.0087
41217W        W59964  16.471   1.391  21.217 -0.0133  0.3485 -0.0648
41218W        W59965  20.533   4.657  21.382  0.1951  0.0569  0.0887
41219W        W59966   1.124   7.147  21.039 -0.0119  0.2329 -0.1860
41220W        W59967  18.157  14.117  20.709 -0.2013  0.0351  0.2783
41221W        W59968  22.755  29.055  24.218  0.0766 -0.2566  0.3575
41222W        W59969   4.406  25.254   1.583 -0.4329  0.1039 -0.0461
41223W        W59970  31.058   1.340  16.364 -0.2970  0.0604  0.2538
41224W        W59971  33.051   5.331  15.451 -0.0333  0.1132 -0.3638
41225W        W59972  18.800   8.621  18.251  0.0743 -0.1595  0.1064
41226W        W59973  16.325  14.464  21.548 -0.2098  0.0571  0.2955
41227W        W59974  28.887  24.127  23.702 -0.1630  0.1291 -0.0469
41228W        W59975   7.426  34.362  21.924  0.1069 -0.3147  0.2201
41229W        W59976  30.773  34.986  21.126  0.0969 -0.2226 -0.0601
41230W        W59977  31.661  21.981  24.842  0.2014 -0.1278  0.0091
41231W        W59978  29.574  25.632  23.464  0.0807 -0.1815 -0.2978
41232W        W59979  10.345  33.205  15.489  0.0550  0.2941  0.1365
41233W        W59980  20.392  28.221  25.361  0.0580  0.0517 -0.1390
41234W        W59981   7.899  34.849   8.645  0.0410  0.0565  0.1807
41235W        W59982  15.882  11.777  23.996 -0.0334  0.3481 -0.0323
41236W        W59983   7.399  32.626  13.729  0.0306  0.0424 -0.1407
41237W        W59984  30.840  11.428  14.592 -0.0705  0.3150 -0.2517
41238W        W59985  10.444  19.074   5.661 -0.0393 -0.2457 -0.1610
41239W        W59986  13.285  26.593   2.791 -0.1322  0.1942  0.0195
41240W        W59987   1.554  19.094  18.759  0.0051  0.0937  0.1480
41241W        W59988   7.272  32.969   8.112 -0.0134  0.0944  0.0629
41242W        W59989  15.799  28.599  12.846 -0.2903  0.0528  0.0661
41243W        W59990   1.494  29.076  20.583 -0.2458 -0.0489 -0.2350
41244W        W59991  25.759  22.726  17.152 -0.2676 -0.1982  0.1595
41245W        W59992  16.564  10.455  26.104 -0.4277  0.4112 -0.2066
41246W        W59993  17.000   8.362   3.621  0.1885  0.0340  0.1923
41247W        W59994  20.139  29.804   4.950  0.1909 -0.0853  0.2563
41248W        W59995   4.715  23.099   0.024 -0.1904 -0.0085  0.0926
41249W        W59996  28.465   4.459  10.928 -0.3376  0.1169 -0.1165
41250W        W59997  30.673   4.792   2.385  0.1492 -0.1894  0.3568
41251W        W59998  12.394   0.471  10.461 -0.4427 -0.2971 -0.0164
41252W        W59999   1.320  32.982  20.774  0.1810  0.1541 -0.1385
41253W        W60000  34.774  15.399  18.312 -0.1594  0.3110  0.1801
41254W        W60001  15.908   0.062   3.152 -0.3167  0.1527  0.1391
41255W        W60002  19.360  26.072   7.097 -0.1733 -0.1309  0.0063
41256W        W60003  32.720   2.285  18.070 -0.0435  0.0614 -0.2423
41257W        W60004  20.910  20.718   1.412  0.2497 -0.1084 -0.1897
41258W        W60005  31.191  23.903  13.405  0.0594 -0.1426  0.1564
41259W        W60006  11.488  24.596  13.450  0.0563 -0.2283  0.1171
41260W        W60007   1.849  10.138  24.985  0.0483  0.1132 -0.1705
41261W        W60008  33.489  15.430   9.527 -0.1962  0.2151 -0.3544
41262W        W60009  35.263  20.455  19.582  0.2825  0.0464 -0.0634
41263W        W60010  10.638   6.943  10.626  0.3913 -0.3329  0.2535
41264W        W60011  34.800  33.722   7.166  0.2190  0.0909  0.0349
41265W        W60012  22.652  24.431  25.383  0.3047  0.1847 -0.0667
41266W        W60013  21.003   9.674   3.309  0.0767 -0.2015  0.1255
41267W        W60014   0.367  23.184  17.750 -0.0303 -0.1340  0.0701
41268W        W60015  27.888   9.480   0.203  0.3637 -0.1284 -0.0059
41269W        W60016  13.331  26.555  23.981  0.0474  0.4138  0.1131
41270W        W60017  34.025   0.855  14.147 -0.3307  0.1046 -0.4958
41271W        W60018  29.867   6.118  20.535 -0.2834  0.2800 -0.1592
41272W        W60019   6.140  16.735  24.807  0.1825 -0.4428  0.1298
41273W        W60020   8.555  13.278  25.087 -0.0371  0.0269  0.3853
41274W        W60021  33.341  27.420  12.746 -0.0110  0.1743  0.0225
41275W        W60022  12.936   5.721   7.877  0.2218 -0.1089 -0.2451
41276W        W60023  14.429   5.573  24.201  0.0141  0.1645  0.1588
41277W        W60024  28.092  23.039  13.783 -0.2141 -0.3252  0.1516
41278W        W60025  25.792  34.191   0.849 -0.0958  0.1027  0.1214
41279W        W60026   8.131  16.959  12.489  0.1824  0.2099 -0.2431
41280W        W60027  34.290  24.190  22.438  0.0512 -0.3940  0.1943
41281W        W60028  19.186  25.171   8.602 -0.2320 -0.2854  0.1506
41282W        W60029  25.267   6.515   1.168  0.1075 -0.3628  0.2389
41283W        W60030  20.248   6.366  19.000  0.0962  0.1954 -0.5810
41284W        W60031  13.335  13.454  10.285 -0.3153 -0.0332  0.0577
41285W        W60032  10.657  24.417   4.758  0.0412 -0.2801 -0.2924
41286W        W60033   0.066  20.454   0.024 -0.1651 -0.1274 -0.1891
41287W        W60034  30.177  21.660  18.022 -0.1578 -0.0524 -0.0448
41288W        W60035   1.366  32.975   7.030  0.0238 -0.2374  0.2267
41289W        W60036  31.022   6.462  10.916 -0.0606 -0.2623  0.0837
41290W        W60037  24.509  23.257   0.614 -0.1238  0.0614 -0.1232
41291W        W60038  22.666  21.896   0.503 -0.0110 -0.1695  0.0196
41292W        W60039   2.976   2.541  25.330  0.1331 -0.1455  0.3892
41293W        W60040   1.341  22.149  13.311 -0.2204  0.0647 -0.2994
41294W        W60041  33.339   4.952  18.666  0.0261 -0.1995  0.1346
41295W        W60042   1.935  31.060   6.085 -0.0466 -0.1297 -0.2006
41296W        W60043  18.848   4.335   8.779 -0.0568  0.0324 -0.0544
41297W        W60044  26.916   1.310  18.152 -0.0636 -0.0040 -0.2185
41298W        W60045   0.684   8.070   2.432  0.0295 -0.1781  0.0724
41299W        W60046  10.411  11.072   7.277  0.3026  0.0732 -0.1418
41300W        W60047  22.915  23.079  24.265  0.0597  0.0512 -0.0165
41301W        W60048   0.545  33.820   1.308  0.2844  0.0423  0.1693
41302W        W60049   7.571   5.258  13.741  0.1238  0.4666  0.1863
41303W        W60050  13.210   0.796  19.662 -0.0256 -0.0301 -0.1668
41304W        W60051   9.134  31.321   0.633  0.1312 -0.1615 -0.2368
41305W        W60052  10.855  31.928  22.971 -0.2577  0.0806  0.0844
41306W        W60053  31.599   4.605  17.888 -0.1058  0.0711  0.2971
41307W        W60054  16.806  10.619   1.857 -0.1297 -0.0040 -0.0258
41308W        W60055  28.557   5.204   1.961 -0.2716 -0.0244 -0.0499
41309W        W60056  15.664  27.537  14.709 -0.1855 -0.0241 -0.0088
41310W        W60057  20.897   7.236  19.597 -0.1374 -0.0511  0.2867
41311W        W60058   8.152   8.074  13.165 -0.0246  0.2343 -0.2978
41312W        W60059  11.223  32.204  14.785 -0.0827  0.1110  0.0146
41313W        W60060  18.386  14.573  10.872  0.1044 -0.0583 -0.1169
41314W        W60061  22.935  27.104  12.003  0.0321  0.3268  0.0818
41315W        W60062  18.057  16.754   8.332 -0.1630  0.0656 -0.1534
41316W        W60063  29.518  11.454   7.839  0.0247 -0.3402  0.0099
41317W        W60064  34.202  22.946   9.827 -0.1125 -0.1672 -0.1058
41318W        W60065   0.922  19.593  20.964  0.1738  0.1211  0.2515
41319W        W60066  20.631  21.165  21.746 -0.2276  0.1366  0.0923
41320W        W60067  27.406   4.940  24.985 -0.1159 -0.1635 -0.0984
41321W        W60068   9.983  18.771  20.932 -0.0838  0.1506 -0.1274
41322W        W60069  26.422  23.674  16.229 -0.2583  0.1942  0.0453
41323W        W60070   1.846  31.897  19.333  0.3567 -0.3589 -0.2355
41324W        W60071   8.774  13.440   4.557 -0.0043  0.1462 -0.1379
41325W        W60072  24.722  22.074  21.159 -0.0624  0.2629  0.2437
41326W        W60073   0.942  34.074  18.866  0.0033 -0.2015 -0.0701
41327W        W60074  31.130  16.450   9.692 -0.0771  0.0327  0.2766
41328W        W60075  30.116   6.370  18.261  0.1412 -0.0151 -0.1445
41329W        W60076  25.796  28.985  25.960  0.0531  0.3407  0.1503
41330W        W60077  25.914  24.376  24.467  0.0464 -0.0472 -0.1557
41331W        W60078  27.711  10.547  19.372  0.0622  0.0009  0.2944
41332W        W60079   8.626  30.227  15.205 -0.0739  0.1962 -0.3179
41333W        W60080   8.560   4.253  20.395  0.0213 -0.0386  0.0437
41334W        W60081  21.789  23.455  24.398  0.0246  0.0513 -0.3211
41335W        W60082  28.266  16.087  16.214 -0.0656 -0.1504 -0.1649
41336W        W60083  23.122   8.474  14.984  0.1887 -0.0885 -0.0208
41337W        W60084  26.786   3.750  24.217 -0.2722 -0.1246  0.1074
41338W        W60085  15.862  13.479  25.281 -0.1582  0.1942  0.0901
41339W        W60086  27.581  23.819  23.737 -0.2218  0.0655 -0.1960
41340W        W60087  17.778  23.495  22.092 -0.0813 -0.1228 -0.2756
41341W        W60088  11.982  12.215  24.167  0.3087 -0.2426  0.1207
41342W        W60089   8.994  17.846   4.364  0.0404  0.1953 -0.2231
41343W        W60090  28.977   0.317  22.999  0.4651 -0.2118 -0.1171
41344W        W60091  13.628  21.600  21.877 -0.2845  0.1501 -0.1559
41345W        W60092   3.971  30.948  12.360 -0.1351 -0.1640  0.3674
41346W        W60093  21.410  13.977  18.480 -0.0559  0.2457  0.0420
41347W        W60094  31.822  12.679  16.021  0.2554 -0.1016  0.0690
41348W        W60095  33.251   8.906  18.881  0.2435 -0.0591 -0.0929
41349W        W60096  17.240  15.297   5.579 -0.1548  0.0022 -0.1156
41350W        W60097  12.976  35.230   3.361 -0.3220  0.1580 -0.0396
41351W        W60098  12.354  18.823   0.293 -0.0525 -0.0121 -0.2720
41352W        W60099   9.505  27.008  24.985  0.4293  0.1196 -0.4336
41353W        W60100  15.388  12.662  12.477 -0.0676  0.1183 -0.1312
41354W        W60101  16.386  15.264   2.342 -0.2142  0.0221 -0.0834
41355W        W60102  12.130  32.298  10.580  0.1565  0.1043 -0.2044
41356W        W60103  16.761   1.337  22.062 -0.0119 -0.0657  0.1512
41357W        W60104  19.177   6.943   6.286  0.0490  0.1737 -0.0013
41358W        W60105   6.612  22.415   7.259 -0.1845 -0.1282 -0.0090
41359W        W60106  19.447   5.299  22.039 -0.0196 -0.1135  0.1099
41360W        W60107  28.929  23.700   7.527 -0.0310 -0.0041 -0.1596
41361W        W60108  28.153  23.703  25.045 -0.0493 -0.2160 -0.1160
41362W        W60109  14.610  30.290  22.691  0.0223  0.3129 -0.0129
41363W        W60110  29.989   5.391   9.364  0.0033  0.4997 -0.1715
41364W        W60111  25.760   2.305  25.966 -0.0440 -0.4151  0.1250
41365W        W60112   5.220   3.706  20.613 -0.0621  0.1487 -0.0404
41366W        W60113  33.147   6.601  17.463  0.0508 -0.1248 -0.2336
41367W        W60114   0.013   7.241   1.038 -0.2680  0.2407 -0.1567
41368W        W60115  12.528  10.865   1.088 -0.0509 -0.0121  0.3038
41369W        W60116  12.331   8.536   8.126  0.0278 -0.0275 -0.0273
41370W        W60117  28.123  33.663   0.749  0.3116 -0.2628  0.0407
41371W        W60118  13.132  12.720   0.068 -0.1863 -0.0752  0.0674
41372W        W60119   5.464  16.193   8.226  0.2090  0.1423 -0.2366
41373W        W60120   3.124  13.948  18.997  0.2345 -0.2238  0.0017
41374W        W60121  27.220  14.711  18.181  0.1140 -0.1673  0.1455
41375W        W60122  16.713  15.555  26.056 -0.1221  0.0588  0.0067
41376W        W60123   4.219  31.038  23.506  0.0189 -0.1185 -0.2156
41377W        W60124   6.136   7.029   0.175 -0.0275 -0.0430 -0.0040
41378W        W60125  16.282   7.280  23.107  0.1594  0.0410 -0.0414
41379W        W60126  19.744   7.244   9.287 -0.0796  0.0886  0.0845
41380W        W60127  18.627  21.370   6.457 -0.0993 -0.1881  0.0542
41381W        W60128  24.062   4.987   0.984 -0.0607  0.0289 -0.1454
41382W        W60129  20.974  22.173  23.095  0.1715 -0.1314  0.0583
41383W        W60130   6.133   8.594   9.142  0.0813 -0.0377  0.1495
41384W        W60131  21.552  15.613   3.321 -0.0371  0.0001 -0.1698
41385W        W60132   5.128  13.507  21.491  0.1563 -0.2378  0.4113
41386W        W60133  28.939   8.899  17.525 -0.2035  0.1079  0.1253
41387W        W60134  32.818  14.514  21.100 -0.1369 -0.2891  0.2859
41388W        W60135  25.162  24.840  12.081  0.1902  0.2400 -0.0557
41389W        W60136   4.185  32.398  12.214 -0.0856  0.0641 -0.1068
41390W        W60137   2.603  32.745  24.879  0.1403  0.1409 -0.1626
41391W        W60138  16.399  25.234   4.947  0.5905  0.1654  0.2483
41392W        W60139  14.474  35.158   6.270  0.4390  0.3997  0.0452
41393W        W60140  15.452  11.323  11.544 -0.1711  0.4050 -0.0166
41394W        W60141  34.930  21.247  10.210 -0.0876  0.3040 -0.1899
41395W        W60142  28.447   9.679  23.289 -0.3226  0.0042 -0.0358
41396W        W60143  19.761  25.588   9.155 -0.1012 -0.0122 -0.0831
41397W        W60144  10.800  17.371  25.610  0.2544 -0.0253 -0.1671
41398W        W60145   6.944  13.475  12.591 -0.1938 -0.1582 -0.0534
41399W        W60146   6.471   0.903  20.703 -0.0545  0.0735  0.0386
41400W        W60147  34.983  13.248  18.858  0.2631  0.2545 -0.4224
41401W        W60148  16.523  18.651   9.917  0.0781 -0.1585 -0.0227
41402W        W60149   9.730  25.156  16.728  0.1648 -0.0110  0.0754
41403W        W60150   4.022   6.462  23.704  0.0027 -0.0001 -0.0197
41404W        W60151  14.390  28.257   8.070  0.1263 -0.0962  0.1085
41405W        W60152  23.754   6.076  13.590 -0.1547 -0.1949  0.0922
41406W        W60153  21.828  15.977  20.736 -0.0848 -0.0053 -0.1188
41407W        W60154   9.440   3.426  22.348 -0.1184  0.1923 -0.0358
41408W        W60155  17.880  27.490  21.265  0.0136  0.1975 -0.0801
41409W        W60156  23.159  30.332  17.257 -0.0282 -0.1015  0.3007
41410W        W60157   7.719   5.288   5.801 -0.2076  0.0606 -0.1291
41411W        W60158  29.117  16.095  17.016 -0.1470  0.0982 -0.0974
41412W        W60159  10.452   4.629  22.525  0.0374 -0.5238 -0.0039
41413W        W60160  31.905  32.655   0.326  0.1349  0.2272 -0.1333
41414W        W60161  10.002  10.030  11.483  0.1351  0.2130  0.1427
41415W        W60162   7.583  33.103  10.284  0.2270 -0.1778 -0.3518
41416W        W60163  23.304  34.475  13.620 -0.2765 -0.1024  0.0345
41417W        W60164  14.435  28.222   6.610  0.0738 -0.1861 -0.1360
41418W        W60165  29.891   9.311  14.551  0.0756 -0.0229 -0.0481
41419W        W60166   2.498  19.617  20.543 -0.0109 -0.4509 -0.1165
41420W        W60167  25.271  12.636  11.695 -0.2130 -0.2466 -0.2590
41421W        W60168  34.621   6.444  25.904 -0.2866  0.3437 -0.3862
41422W        W60169   2.288   2.640  21.814  0.1588  0.1298 -0.1855
41423W        W60170   8.393  14.383  19.750  0.1353 -0.1715  0.2862
41424W        W60171  23.090  30.682  16.399 -0.0167 -0.2749  0.2529
41425W        W60172  30.890   7.579  20.224 -0.0935  0.3445  0.0559
41426W        W60173   2.917  28.269   8.661  0.1476 -0.0111 -0.0111
41427W        W60174  11.239  28.044  15.866  0.0268  0.1113  0.1150
41428W        W60175  11.810  29.750  11.717  0.0787  0.0438  0.1978
41429W        W60176  18.047  33.887  22.234 -0.2140  0.3025 -0.2819
41430W        W60177   3.747   8.677  20.662  0.0451 -0.0453  0.2298
41431W        W60178   0.782   3.102  24.181  0.1226 -0.1172  0.0644
41432W        W60179  22.229   8.937  23.692 -0.0659  0.0369 -0.2338
41433W        W60180  12.507  32.709  14.085  0.0556 -0.1336  0.0093
41434W        W60181  12.268   9.820   1.807 -0.1356  0.0425  0.2545
41435W        W60182   2.423  17.066  25.666  0.0390  0.0503  0.4088
41436W        W60183  17.587   0.239   0.846 -0.0109  0.0878  0.1838
41437W        W60184  33.440   0.321   1.282 -0.1032  0.1002  0.0989
41438W        W60185  19.322  23.607   7.432 -0.1398 -0.3351 -0.0096
41439W        W60186   2.558  19.514  25.982 -0.1947 -0.2387 -0.0329
41440W        W60187   7.437  20.906  25.077  0.1631 -0.0856 -0.2051
41441W        W60188  21.604  22.682   6.536  0.2199  0.1606 -0.0269
41442W        W60189  22.416  31.891  25.843 -0.0304  0.1836 -0.1138
41443W        W60190  14.090   9.235  26.033  0.2362 -0.1823 -0.1564
41444W        W60191  15.583   9.840   2.521 -0.0452  0.2167  0.0368
41445W        W60192  11.883  14.694   9.480  0.1903 -0.1585 -0.1325
41446W        W60193  32.663  11.063  22.841  0.1463  0.0230 -0.2087
41447W        W60194  18.177   1.165  23.937 -0.0175 -0.3304 -0.3983
41448W        W60195   8.537  34.350  13.280  0.1553 -0.1970 -0.3725
41449W        W60196  33.716   9.630   0.449 -0.0909  0.0287  0.2694
41450W        W60197  14.543  25.125  26.180 -0.0619 -0.2048 -0.1105
41451W        W60198  17.074  16.456  13.905 -0.1985  0.0857  0.1825
41452W        W60199  30.238  13.610  22.418  0.2169 -0.1509  0.3817
41453W        W60200  27.900  10.952  21.658  0.0967 -0.2300 -0.1188
41454W        W60201  20.168  34.687   3.200  0.0441  0.0198 -0.2372
41455W        W60202   2.636  32.311   9.294  0.2011  0.3228  0.0384
41456W        W60203  26.738  17.778  24.569 -0.1631 -0.0381 -0.0257
41457W        W60204  15.785  12.659   8.580  0.0248 -0.1004 -0.2414
41458W        W60205  21.544  29.960  15.229 -0.1568  0.2841  0.1666
41459W        W60206  18.299  20.469   0.485 -0.1712  0.0365  0.0655
41460W        W60207  34.559   9.417   2.222 -0.1076  0.0452  0.0039
41461W        W60208  33.049  30.017   5.110 -0.1557  0.2498 -0.1685
41462W        W60209  17.177  19.001  23.961 -0.1699  0.2695 -0.1774
41463W        W60210   8.416  26.893  13.168  0.2138 -0.1406 -0.3636
41464W        W60211  23.700  33.806   6.120 -0.1174  0.0387 -0.2158
41465W        W60212  15.314  16.090  22.005 -0.2663 -0.1496  0.0820
41466W        W60213  34.103  11.775  21.652 -0.2867 -0.2012 -0.1677
41467W        W60214   2.218   5.490  22.047 -0.0452  0.0915 -0.2052
41468W        W60215  31.560  25.326   9.063  0.4737 -0.1473 -0.1560
41469W        W60216  13.210   5.117   2.067  0.0890 -0.0433  0.0110
41470W        W60217  34.388  28.482   2.470  0.1645  0.0267  0.0027
41471W        W60218   5.262  23.240   7.568  0.0093  0.1043 -0.1954
41472W        W60219  20.485  25.829  25.684  0.1205  0.1190  0.0088
41473W        W60220  23.872  35.131  20.616 -0.1024  0.2396 -0.1413
41474W        W60221   2.617  21.905  24.383  0.1861  0.2884 -0.0805
41475W        W60222  10.293  14.517  11.487 -0.1089 -0.0948  0.0928
41476W        W60223  17.534  21.522  12.051 -0.1233 -0.0534 -0.1047
41477W        W60224   7.481  11.116  24.769  0.0832  0.2359 -0.0099
41478W        W60225  13.198  30.191   8.368  0.3129 -0.2276  0.0243
41479W        W60226  15.862   4.936   3.131  0.0615 -0.1495  0.0900
41480W        W60227   2.827   3.248  25.046 -0.4134 -0.1458 -0.2139
41481W        W60228  35.207  28.976   3.588 -0.0266 -0.0843 -0.3253
41482W        W60229   1.328  31.673   4.933  0.0662  0.1244 -0.3800
41483W        W60230  28.867  14.992   7.391  0.3239  0.4077 -0.2190
41484W        W60231   4.949  34.730   7.759 -0.0983  0.6189  0.0672
41485W        W60232  30.327  12.713  22.353 -0.0421  0.0892 -0.0237
41486W        W60233  21.638  26.818   2.215 -0.0688 -0.0418 -0.2801
41487W        W60234  27.820  12.265   6.608 -0.0750 -0.1837 -0.0518
41488W        W60235  32.483   4.576   1.112  0.0246  0.2587 -0.1539
41489W        W60236   2.571  14.549  23.034 -0.1562  0.0551  0.1672
41490W        W60237   2.544  32.452   4.061  0.0337 -0.0147 -0.1554
41491W        W60238  28.475  29.893  26.251 -0.1988 -0.0617  0.2236
41492W        W60239  20.085  23.494   3.566 -0.1053  0.2121  0.0556
41493W        W60240  33.335  23.441  12.278 -0.0126 -0.0337 -0.2848
41494W        W60241   7.210   1.046  14.008  0.0069  0.0589 -0.2713
41495W        W60242   1.068  27.580  20.970 -0.1247 -0.2915 -0.4826
41496W        W60243  11.968  17.141   3.991 -0.1590 -0.4253  0.0551
41497W        W60244  30.254  32.380   6.095 -0.0276  0.0392 -0.0343
41498W        W60245  23.151  22.198  17.033 -0.3032  0.0869  0.1835
41499W        W60246   4.381   9.760  25.917 -0.0838  0.1121  0.0609
41500W        W60247   5.641  28.660   3.911 -0.1303 -0.1219  0.1868
41501W        W60248  30.445  14.232  24.578  0.1406 -0.3385  0.2686
41502W        W60249  26.450  27.485   2.060  0.2693  0.2048  0.0629
41503W        W60250   8.729   2.248  11.976 -0.0308  0.2208  0.0252
41504W        W60251  28.957   4.284  11.583 -0.1575  0.4436 -0.0160
41505W        W60252  26.578   8.890   9.237  0.1890  0.0735 -0.0081
41506W        W60253  11.102  18.181  11.612  0.1170 -0.3194 -0.1545
41507W        W60254   5.211   5.290   2.706 -0.1071  0.0635 -0.0907
41508W        W60255   5.321   2.072   2.182 -0.0785 -0.0228 -0.0153
41509W        W60256   5.761  26.327  14.888 -0.0494 -0.0726 -0.1958
41510W        W60257  19.598  10.856   5.984  0.0905 -0.2478 -0.3605
41511W        W60258  16.972  30.835   8.199 -0.1154 -0.0687  0.2238
41512W        W60259   7.262  29.164   5.938  0.2656  0.0564 -0.0774
41513W        W60260  15.104   9.938  12.889 -0.1020  0.1684  0.1786
41514W        W60261   4.753   5.861  26.105 -0.1271 -0.0304 -0.0314
41515W        W60262  11.254  12.108  12.197  0.0980 -0.1574  0.1974
41516W        W60263   6.399  12.533  24.876  0.0445  0.1578 -0.1216
41517W        W60264   9.908  33.434  15.007  0.0697 -0.0186  0.2239
41518W        W60265  29.622   3.927  13.465  0.0896 -0.1645 -0.1176
41519W        W60266   2.889  20.342  20.050  0.0036 -0.1568 -0.0147
41520W        W60267  24.428  19.887  13.649 -0.0802 -0.3857  0.4911
41521W        W60268  23.650   0.868   7.316 -0.0087  0.0729  0.1158
41522W        W60269  34.576  23.991  21.157  0.0539 -0.2210  0.1284
41523W        W60270  19.114  24.593   4.184  0.2855 -0.0300 -0.0161
41524W        W60271  25.629   2.171   1.882  0.2024  0.2461  0.2744
41525W        W60272  11.220  32.634  24.967 -0.2353 -0.2575 -0.0722
41526W        W60273  31.420  26.676  17.584 -0.2080 -0.1251  0.1195
41527W        W60274   8.530  21.513   4.901  0.0573 -0.3194  0.0478
41528W        W60275   4.838   0.576  10.582  0.0820 -0.0289 -0.1104
41529W        W60276  30.866   5.635  12.645  0.1580 -0.1726  0.2629
41530W        W60277  23.551  23.466  23.547  0.1972  0.1532 -0.0886
41531W        W60278  29.565  19.200  10.229  0.1373  0.0127 -0.0277
41532W        W60279   9.090   2.376  13.585  0.3752  0.0225 -0.0594
41533W        W60280   5.492  11.917   5.465 -0.0965 -0.0906 -0.0027
41534W        W60281  23.347   4.811  21.721  0.1322  0.0681 -0.0376
41535W        W60282  27.153   3.712   0.670  0.0066  0.0875 -0.0802
41536W        W60283  16.557  27.221   4.640 -0.0696 -0.1474 -0.1393
41537W        W60284   8.059  26.581  25.111 -0.1134  0.2251 -0.5369
41538W        W60285  11.892   1.932  11.941 -0.0715  0.0906  0.1579
41539W        W60286  32.321   3.821  19.739  0.2532 -0.0651  0.1647
41540W        W60287  30.728  12.911  17.532  0.2170 -0.0817 -0.3532
41541W        W60288   5.204   2.473   9.674  0.1109  0.2522 -0.2411
41542W        W60289   3.965  33.961   3.751 -0.0565 -0.0786 -0.1286
41543W        W60290   2.777   2.763  22.055  0.0892 -0.2774 -0.1634
41544W        W60291  13.433  30.346   6.559 -0.1447 -0.0864  0.1588
41545W        W60292   9.662  32.244  12.050  0.2011  0.0589  0.0392
41546W        W60293  12.449  20.002  12.905 -0.0412 -0.1323 -0.1954
41547W        W60294  24.746   3.652   4.969  0.0412 -0.0030 -0.0687
41548W        W60295  16.481  23.631  13.922  0.0691  0.1235 -0.0361
41549W        W60296  29.790  32.640  19.248 -0.0999  0.0533 -0.1619
41550W        W60297  29.343   4.191  13.786  0.0478 -0.3456 -0.2608
41551W        W60298   7.064  33.501  21.339 -0.1454 -0.2804 -0.3927
41552W        W60299  17.885  14.454  25.427  0.2731 -0.0373  0.2045
41553W        W60300  29.879  18.803  25.132 -0.0724  0.0969  0.1142
41554W        W60301   1.578   6.018  18.168  0.2210  0.0055 -0.1847
41555W        W60302   2.580  32.129   4.992 -0.0598 -0.0592  0.3873
41556W        W60303   2.819  35.256  25.050  0.2817 -0.0381  0.2742
41557W        W60304  21.454   6.944  16.074  0.0854 -0.2398 -0.0795
41558W        W60305   4.643   1.217  11.994 -0.1381 -0.4044 -0.1204
41559W        W60306  12.869  19.788   1.462 -0.0052  0.1319 -0.0354
41560W        W60307  28.379  24.297  20.538  0.2121 -0.1285 -0.2192
41561W        W60308  23.361  12.282  21.275 -0.0360 -0.2841  0.2878
41562W        W60309  29.071  10.277  14.310  0.1565  0.3369  0.4111
41563W        W60310  23.179   7.146  17.911  0.2012  0.1939 -0.1489
41564W        W60311  31.123  27.375  11.189 -0.3436 -0.0627  0.0099
41565W        W60312  26.973   8.951  24.660  0.1683 -0.4417 -0.0843
41566W        W60313  16.144  24.895   2.926 -0.1424 -0.2910 -0.1700
41567W        W60314  19.886  19.891   1.911 -0.1068 -0.1650  0.1360
41568W        W60315  21.833   0.576  21.343 -0.4065  0.3009 -0.3251
41569W        W60316  14.339  18.852  14.540 -0.2937 -0.0764 -0.0601
41570W        W60317   0.596   4.563  16.716 -0.2729 -0.0808  0.1256
41571W        W60318  14.178  31.986  13.118  0.1173  0.1379 -0.1887
41572W        W60319  17.559   5.998  24.742 -0.0613  0.2699  0.0135
41573W        W60320   6.562  24.285   2.237 -0.1996  0.0421 -0.1075
41574W        W60321  26.142  27.326  13.454  0.1659 -0.0118 -0.0590
41575W        W60322  30.981   1.898  12.792 -0.2574 -0.2238  0.3234
41576W        W60323  11.250  16.917   1.096 -0.3459 -0.0773  0.1906
41577W        W60324  26.334   0.174   6.385  0.1202 -0.4568  0.0088
41578W        W60325  27.950  33.909   3.760  0.1306 -0.0761 -0.2551
41579W        W60326   2.388  17.754  23.165 -0.1793  0.3814 -0.1032
41580W        W60327  17.401   3.986  25.054  0.2271 -0.0628 -0.2752
41581W        W60328  21.209  18.323  16.150 -0.1063 -0.1955  0.1380
41582W        W60329  34.545   4.371   7.051 -0.2078  0.4805 -0.2457
41583W        W60330   3.962   6.067  24.647 -0.1550 -0.4497  0.3474
41584W        W60331   7.048  16.764  20.698 -0.1567 -0.0237 -0.1504
41585W        W60332  25.767  11.703  18.138 -0.1788 -0.0992 -0.0071
41586W        W60333   1.861  28.242  25.536  0.2416 -0.1530 -0.0964
41587W        W60334  30.923  19.924  20.660 -0.0904  0.1870  0.0902
41588W        W60335  20.192  23.095  21.199  0.1719  0.0518  0.2207
41589W        W60336  33.487  31.701  24.619 -0.1170  0.2550 -0.2295
41590W        W60337  12.727  34.539   6.287 -0.1363 -0.1774 -0.0852
41591W        W60338  13.074   9.586   1.464 -0.1319 -0.0588 -0.3366
41592W        W60339  27.269  19.698  21.742  0.2045 -0.4337 -0.1136
41593W        W60340  19.085  15.863   8.362 -0.0876  0.2757  0.0211
41594W        W60341  28.186  11.441  23.809 -0.0828 -0.3544  0.1107
41595W        W60342  29.190  30.398   2.184  0.1341  0.0454 -0.2580
41596W        W60343  26.973   4.703   4.318 -0.2806  0.2518 -0.2978
41597W        W60344  19.826  30.501   4.683 -0.1442  0.3645  0.0326
41598W        W60345  28.440  10.310   8.394  0.0431 -0.1423 -0.0292
41599W        W60346  25.823   1.600  21.433 -0.1436 -0.0904 -0.1293
41600W        W60347   6.376  20.343   5.971 -0.2974 -0.1069 -0.1409
41601W        W60348   0.658   1.815   8.460  0.0149  0.2481 -0.2747
41602W        W60349  29.225   2.035   5.561  0.1190  0.0405 -0.2545
41603W        W60350  32.516   3.853  23.632  0.1189  0.0637 -0.0681
41604W        W60351  29.937  30.925  11.253 -0.1300 -0.2136 -0.2035
41605W        W60352   1.590  18.833  12.242 -0.0742  0.0603  0.1093
41606W        W60353   2.874  21.360  14.721 -0.0040 -0.2314  0.0533
41607W        W60354   5.665  24.914   0.213 -0.0766 -0.0170 -0.1718
41608W        W60355   2.996  13.542   1.570  0.1692 -0.2368  0.1242
41609W        W60356  19.164   8.707  25.336 -0.0712  0.2226  0.1154
41610W        W60357  10.239   8.152  11.119  0.0044 -0.0211 -0.0792
41611W        W60358   0.800   5.798  12.785  0.2391 -0.0225 -0.2834
41612W        W60359   0.011  27.074  17.945 -0.1373  0.0322  0.0789
41613W        W60360   7.513  30.605   6.491  0.0349  0.2670  0.0256
41614W        W60361  22.068  19.471  18.938 -0.1515 -0.0642 -0.1166
41615W        W60362  26.664  13.554  14.947  0.2517  0.0866  0.1056
41616W        W60363   7.382  13.051  12.213  0.0631  0.0070  0.3713
41617W        W60364   7.672   5.090  23.506 -0.3098  0.0000 -0.1253
41618W        W60365  29.100  30.129  19.129  0.3002  0.0098 -0.0582
41619W        W60366   9.653  10.285  20.129 -0.2522 -0.0680 -0.1564
41620W        W60367  16.690  23.171  11.378  0.0967 -0.5973  0.0076
41621W        W60368  17.970  28.205   3.186 -0.1361 -0.2550  0.0468
41622W        W60369  32.408  20.465  22.427 -0.1690  0.1689 -0.3171
41623W        W60370  34.402  28.316  20.312  0.0236 -0.0968 -0.0841
41624W        W60371  18.370  20.588  25.048  0.0405  0.0869 -0.2211
41625W        W60372   1.246  31.851  25.795 -0.2391 -0.1878  0.0302
41626W        W60373  16.028   1.901   3.028  0.0879 -0.0841  0.2782
41627W        W60374   7.885  18.563   9.215  0.0685  0.2401 -0.0350
41628W        W60375  15.913  10.513   4.075 -0.0769  0.2216  0.1450
41629W        W60376  20.510   8.905   0.123 -0.0584  0.1134  0.1655
41630W        W60377  30.640  34.418   2.767  0.1419 -0.1410 -0.1005
41631W        W60378  18.749   2.505  21.775  0.1413 -0.0375 -0.0467
41632W        W60379  10.517  32.182  22.745  0.0207  0.2092 -0.0308
41633W        W60380   5.411  13.957  19.134  0.2574  0.0682 -0.0795
41634W        W60381   9.607   7.709  21.991  0.1399 -0.1530  0.2732
41635W        W60382  29.550  27.895   1.545  0.4400 -0.3928 -0.0542
41636W        W60383  19.050  11.764   9.720  0.1010  0.4445  0.0524
41637W        W60384  20.629   7.649  22.604 -0.0462  0.1862  0.3874
41638W        W60385   0.020   4.874  23.211  0.0729 -0.1206  0.1789
41639W        W60386  15.977  27.910   2.635 -0.2138  0.3160 -0.0971
41640W        W60387  24.305   6.701  16.767 -0.2159 -0.1474  0.0912
41641W        W60388   9.695   5.035   0.476 -0.1237  0.0695 -0.1340
41642W        W60389  25.698  14.215   9.876  0.0433 -0.0321  0.2020
41643W        W60390  33.899   4.700  23.274 -0.0206  0.1000  0.0032
41644W        W60391   2.676  16.278  13.889  0.2004  0.0454 -0.0595
41645W        W60392   4.351   8.420   1.699 -0.0975  0.2464 -0.0871
41646W        W60393  26.754  17.569   6.457  0.1338  0.1403  0.0867
41647W        W60394  13.883   2.053  18.032  0.1008 -0.1229  0.0516
41648W        W60395  17.016  21.813  14.763 -0.0278 -0.1220 -0.3188
41649W        W60396   3.266   3.614  23.096  0.0203 -0.1049 -0.0344
41650W        W60397  32.849  27.844   1.145 -0.3219  0.3208 -0.0112
41651W        W60398  17.239   9.859  18.589 -0.1730  0.1098  0.2131
41652W        W60399   6.607  18.729  21.079  0.0803  0.0751  0.0951
41653W        W60400   5.493  16.605  20.168  0.1673  0.2802 -0.2985
41654W        W60401  34.909  27.979  14.810 -0.0234  0.1076 -0.2009
41655W        W60402   0.654  18.998  23.462  0.1087 -0.0060 -0.0775
41656W        W60403   8.843  13.461  24.386 -0.0074  0.1978  0.0805
41657W        W60404  20.688  28.343   2.579 -0.0434  0.2182  0.1190
41658W        W60405   8.385  23.307   9.213 -0.2665 -0.0334  0.1597
41659W        W60406  32.604  28.709  15.217 -0.2533  0.3053 -0.1444
41660W        W60407   9.586   2.284   1.662  0.1019  0.2557 -0.0981
41661W        W60408  32.931  29.824  22.876 -0.4718  0.0324  0.3410
41662W        W60409   0.366   6.821   2.284  0.2146  0.0831  0.1862
41663W        W60410   9.904  25.707   4.267  0.1106 -0.0647  0.1532
41664W        W60411  26.526   4.498   4.247  0.1152 -0.0134  0.0842
41665W        W60412  29.584  29.150  16.122  0.1577 -0.2197  0.0328
41666W        W60413   1.363  11.013  21.033  0.0232 -0.1984  0.1708
41667W        W60414  30.170   3.960  17.065  0.1800  0.0638  0.0603
41668W        W60415  13.435  22.244  14.289  0.4648 -0.0677 -0.0665
41669W        W60416  13.121  18.095   9.840  0.0684 -0.1522 -0.3229
41670W        W60417  22.972  26.434  19.722  0.0154  0.5321  0.2572
41671W        W60418  22.523   4.230  23.914 -0.0322  0.0715  0.1824
41672W        W60419  25.823   5.274   5.008  0.0343  0.2155  0.1287
41673W        W60420   2.962  31.340  22.883 -0.1447 -0.0415  0.1896
41674W        W60421   8.159  22.157   0.895 -0.0193  0.0195 -0.2402
41675W        W60422  31.246   2.474  19.524  0.1248 -0.2179 -0.1033
41676W        W60423  33.290   8.572   0.462  0.0299 -0.1904 -0.1366
41677W        W60424   4.096  13.006   2.602 -0.0643 -0.1024 -0.2682
41678W        W60425  28.439  21.336  19.863 -0.0890  0.0388 -0.0129
41679W        W60426  30.448   0.322  25.849 -0.1662  0.1657  0.0383
41680W        W60427  23.205  31.018   4.331  0.0963 -0.1444  0.0424
41681W        W60428   6.896   6.916  22.334  0.0150 -0.1490  0.0194
41682W        W60429  22.785   7.841  18.657 -0.0402  0.1482 -0.2353
41683W        W60430   4.448  32.658   3.535 -0.1731 -0.0156 -0.1558
41684W        W60431  16.870  18.408  13.571  0.0033 -0.0553 -0.0442
41685W        W60432  14.945   7.605  18.934 -0.0473 -0.0234 -0.2731
41686W        W60433  14.231  31.193   1.504 -0.1319 -0.1997 -0.0968
41687W        W60434  11.198  30.886   4.287  0.1597 -0.0105  0.0242
41688W        W60435  11.208   7.706   0.325 -0.2328  0.2371  0.0839
41689W        W60436  25.663  28.433   2.751  0.1232 -0.1537  0.0643
41690W        W60437  12.506  32.974  24.297 -0.0981 -0.0060 -0.3268
41691W        W60438  14.237   6.497  19.757  0.1651  0.0389  0.2509
41692W        W60439   5.669   2.600   0.724  0.1134  0.2595  0.0549
41693W        W60440  23.129  14.997  22.576 -0.0061 -0.2552 -0.1693
41694W        W60441  26.554  16.671  23.327 -0.1692 -0.0044 -0.1541
41695W        W60442  12.178  14.341  21.360  0.0766  0.2253  0.2084
41696W        W60443  14.903   2.697   4.326  0.0975 -0.2150 -0.0152
41697W        W60444  12.514  20.273   8.273 -0.0459  0.3724  0.1151
41698W        W60445   5.690   7.549  11.208 -0.2892 -0.0406  0.1170
41699W        W60446   9.790  32.608  25.036 -0.1920  0.2726 -0.1467
41700W        W60447  33.456  21.012  25.509  0.1663  0.0266  0.2057
41701W        W60448   2.965  29.048   0.468  0.0071 -0.1260  0.1058
41702W        W60449  25.627  31.450  17.451 -0.2353  0.1321  0.1184
41703W        W60450  25.661   3.468  23.940 -0.1340  0.1002  0.1074
41704W        W60451  27.108  35.203   4.567 -0.1367 -0.0628 -0.5366
41705W        W60452  11.201  10.271   2.268 -0.3981  0.1725  0.0562
41706W        W60453  14.044  18.148   6.825  0.1130 -0.0592  0.2755
41707W        W60454   0.742  22.080  12.018 -0.2577 -0.2607 -0.1937
41708W        W60455  24.379   5.151  19.751  0.1913  0.1465  0.1741
41709W        W60456  17.646  17.173   6.384 -0.0227  0.4932 -0.0505
41710W        W60457   8.622  18.577   3.664  0.1594  0.3313  0.1710
41711W        W60458  20.767  17.623   2.322 -0.2141  0.2264 -0.1336
41712W        W60459  15.872  31.552   3.664 -0.0636  0.1447 -0.4940
41713W        W60460  12.668   7.126   6.676  0.0459 -0.0346  0.0118
41714W        W60461   8.786  16.334  20.130  0.0097 -0.1147 -0.1876
41715W        W60462  23.383  19.722  17.237  0.1626 -0.4673  0.0070
41716W        W60463   3.873  30.704   2.585 -0.0316  0.0164 -0.1353
41717W        W60464  31.403  33.412   3.758  0.0464 -0.4411  0.1235
41718W        W60465  26.920  16.255  25.877  0.2540 -0.2415  0.0102
41719W        W60466  18.625   4.398   3.122 -0.1274 -0.1374 -0.1588
41720W        W60467  10.007  22.720   0.172  0.0180  0.0074  0.0371
41721W        W60468  28.428  17.270   7.028 -0.0370 -0.1967  0.0267
41722W        W60469  17.379  26.020   2.891 -0.1219  0.0237 -0.0580
41723W        W60470  25.593  33.688  16.818  0.2385  0.0902 -0.4948
41724W        W60471  18.725   6.050   4.898 -0.2606 -0.0565 -0.2131
41725W        W60472   5.355  17.055   0.986  0.0553  0.1025 -0.1319
41726W        W60473   0.397  22.574  15.868  0.0875  0.0887 -0.0165
41727W        W60474  10.628  25.536   0.621  0.2864  0.1922 -0.1419
41728W        W60475   0.148   7.799   5.203 -0.0503  0.1261 -0.1264
41729W        W60476  33.265  11.691  21.909 -0.1981  0.0608  0.0785
41730W        W60477  11.762  31.514   1.506 -0.5645 -0.0256  0.1876
41731W        W60478   0.237   1.523   5.421  0.0352 -0.1721  0.2944
41732W        W60479  14.280  26.909  15.400 -0.2541 -0.1027 -0.1264
41733W        W60480   6.843  25.152   3.972  0.1483 -0.2715  0.2481
41734W        W60481  16.809  28.669  22.346 -0.2181  0.1971 -0.0571
41735W        W60482   0.920   2.947   3.411 -0.1645  0.0012  0.1523
41736W        W60483  14.701  12.866  19.825 -0.0244  0.0710 -0.0305
41737W        W60484  11.512  13.097  11.891 -0.0201 -0.4725  0.2059
41738W        W60485  23.092   5.185   5.001 -0.0058  0.0980 -0.1083
41739W        W60486   4.003   4.725  24.656  0.1158 -0.0324  0.1535
41740W        W60487  19.583   2.672  23.451  0.1907  0.0586  0.2359
41741W        W60488   8.425   7.074   5.882 -0.2007  0.2011  0.2512
41742W        W60489  15.954  16.359   2.354  0.1948 -0.5103  0.3078
41743W        W60490  25.599   3.100   4.706  0.2412  0.0456  0.2718
41744W        W60491   4.701  10.832  20.614 -0.0754  0.0022 -0.0032
41745W        W60492  10.470  23.348   1.423  0.1233 -0.2634 -0.1358
41746W        W60493   7.067   2.907   6.049  0.0395 -0.2381 -0.0249
41747W        W60494  32.067   7.527  18.638  0.1929  0.1020  0.0577
41748W        W60495  17.494  30.508  21.801 -0.0255  0.2117 -0.0441
41749W        W60496  26.619  18.890  25.353 -0.2400 -0.3672 -0.3002
41750W        W60497   3.741   8.057   4.060 -0.1288 -0.1926  0.0724
41751W        W60498   8.580   7.266  12.087  0.1330  0.1665  0.0571
41752W        W60499  27.332  22.095  20.779  0.1232  0.2188  0.0438
41753W        W60500  30.603  27.786   0.847  0.1904 -0.0398  0.0938
41754W        W60501  33.646  33.251   4.936  0.0921  0.3043 -0.0569
41755W        W60502  24.510   2.947   2.226 -0.0503 -0.1382  0.3112
41756W        W60503   7.761   0.714  21.011  0.1142  0.1721 -0.1785
41757W        W60504   9.296   6.096  23.632  0.1579 -0.0234 -0.2077
41758W        W60505  26.392  20.291  10.779  0.1599 -0.4825  0.1130
41759W        W60506  15.946   4.352  11.146  0.1106 -0.0604  0.0838
41760W        W60507  20.148   8.421  17.052  0.2126 -0.0979 -0.0720
41761W        W60508   0.917  10.264   2.450 -0.5878 -0.1058  0.3330
41762W        W60509  15.581  11.177  23.708  0.2870 -0.1369  0.2429
41763W        W60510  33.414  28.189  22.536 -0.0799  0.0547 -0.0481
41764W        W60511  20.083  29.252   3.402 -0.1549 -0.0182 -0.1154
41765W        W60512  32.065  10.978  21.521 -0.0946 -0.1694  0.0691
41766W        W60513   4.072  25.591  19.067  0.1282  0.2809  0.0135
41767W        W60514  19.426  19.471  24.900 -0.0156  0.5815  0.0925
41768W        W60515   6.545  15.654   5.214 -0.0503  0.0835  0.0208
41769W        W60516  11.965  29.772  22.584  0.0966 -0.2306 -0.1331
41770W        W60517  33.097  34.177  18.004  0.2560  0.0419  0.0915
41771W        W60518   5.247  15.422   2.448  0.1302 -0.1695 -0.3703
41772W        W60519  24.985   7.330  16.149 -0.2007 -0.1385 -0.0803
41773W        W60520  10.706  11.397  10.230 -0.1584 -0.0085 -0.0547
41774W        W60521  18.461  18.107  10.271  0.1155  0.0895  0.0813
41775W        W60522  19.900   1.689   5.853  0.3754 -0.2004 -0.0849
41776W        W60523  29.198  20.172  24.143  0.1270 -0.1480 -0.1806
41777W        W60524   8.117   7.554  12.945  0.0865 -0.1803 -0.3171
41778W        W60525   6.123  31.202   6.745  0.0726  0.0519 -0.3040
41779W        W60526   9.744  30.190  23.833  0.1056  0.1329 -0.3572
41780W        W60527   7.642   9.601   6.737  0.2918  0.0111 -0.2566
41781W        W60528  21.810   1.015  22.049 -0.0959 -0.0569  0.1656
41782W        W60529  21.057  11.641  16.633  0.0056  0.2754 -0.1301
41783W        W60530   3.677   8.105   7.205  0.1036 -0.0461 -0.1213
41784W        W60531  20.608  21.726   0.685 -0.1483  0.3130  0.2354
41785W        W60532  21.035  30.678   3.348  0.1417  0.3463 -0.1539
41786W        W60533  13.028  25.832  14.488 -0.0467  0.1588 -0.3987
41787W        W60534   2.375   6.340  23.236 -0.2631  0.0846  0.3202
41788W        W60535  20.936  23.206  18.876 -0.0190  0.1234 -0.0579
41789W        W60536  17.192  20.217   3.035  0.0677  0.1272  0.0540
41790W        W60537  23.305   4.722  17.363 -0.0775 -0.1251 -0.1024
41791W        W60538  27.245  28.432  11.824 -0.3826  0.2523 -0.1512
41792W        W60539   4.973  12.616   1.629  0.1562 -0.1824  0.2469
41793W        W60540  32.543  19.938  25.552 -0.1460 -0.2166 -0.0064
41794W        W60541  26.456  29.304  10.757  0.1585 -0.1827 -0.0493
41795W        W60542  29.934  19.842  19.467  0.1044  0.0619 -0.3000
41796W        W60543  12.504  20.701   0.091  0.2575 -0.1028 -0.1463
41797W        W60544  11.785  23.498  12.424 -0.0097  0.0366  0.0984
41798W        W60545   1.271  24.227  22.655 -0.3839 -0.1267  0.1329
41799W        W60546  20.736   1.167  17.923  0.1594 -0.0392 -0.2880
41800W        W60547  12.498   6.860  10.418 -0.2516  0.1625 -0.0171
41801W        W60548  23.022  24.987  25.311 -0.1693 -0.0575  0.0061
41802W        W60549  22.701  11.632  12.752 -0.1022  0.4486  0.1024
41803W        W60550  16.554  22.458   9.594  0.2839  0.2288  0.1167
41804W        W60551  12.932  33.133  12.004  0.3389 -0.1528  0.1726
41805W        W60552  30.635  18.257  18.020  0.1821  0.3460  0.0210
41806W        W60553   8.555  19.289  11.331  0.0978 -0.0110 -0.1770
41807W        W60554   6.335  13.048   4.931 -0.3464 -0.1088  0.1721
41808W        W60555   8.922  18.968   3.386 -0.0693 -0.1232  0.1209
41809W        W60556  11.308  21.195  14.771  0.2575  0.0966  0.1083
41810W        W60557  12.365  30.321  10.023 -0.1155 -0.1291 -0.1590
41811W        W60558  14.543   0.051   1.359  0.1786 -0.0234 -0.1359
41812W        W60559  29.413  12.960  18.596  0.2713 -0.1262  0.3798
41813W        W60560  12.722  11.003  13.517 -0.0829 -0.1709  0.0994
41814W        W60561  18.492  15.474  23.552  0.4389 -0.0185  0.1372
41815W        W60562  16.627  16.470   4.495  0.0886  0.0048 -0.3467
41816W        W60563  24.863   5.493   3.344  0.1814  0.0419  0.4667
41817W        W60564  31.731  31.889  23.206  0.3933  0.1218 -0.1696
41818W        W60565  17.593  23.507  12.646  0.3474  0.0063  0.3031
41819W        W60566  27.981  35.315  18.376  0.0432  0.0597  0.2732
41820W        W60567  28.899  34.948  14.565 -0.0642 -0.0192  0.0575
41821W        W60568   8.294  30.315  21.758  0.0416  0.0542  0.0647
41822W        W60569  23.361  21.977  16.356  0.2579  0.1693 -0.2271
41823W        W60570  18.933  16.832   0.726 -0.1414 -0.0089  0.0920
41824W        W60571  26.375  11.459  10.220 -0.2177  0.2924 -0.1753
41825W        W60572  17.680  11.865   2.210 -0.2060  0.1927 -0.1315
41826W        W60573  33.246  21.629   7.201  0.2706  0.0405 -0.0380
41827W        W60574   5.201  33.317   9.821  0.1715 -0.0555  0.1435
41828W        W60575  11.977  16.254  12.506 -0.0893  0.3601  0.3496
41829W        W60576   9.416   5.838   7.309  0.1138  0.2369  0.1326
41830W        W60577   8.309  12.172  10.954 -0.0996  0.2433  0.0849
41831W        W60578   6.937  16.786  21.377  0.0859  0.2401 -0.2587
41832W        W60579  35.083  21.078  18.717 -0.0618 -0.4931  0.0065
41833W        W60580  15.604  16.980   0.244  0.4820  0.0498  0.4197
41834W        W60581  25.689  23.488  11.004  0.1591 -0.1484 -0.4056
41835W        W60582  15.974   8.012  13.505  0.3770 -0.1278  0.1517
41836W        W60583  12.937  13.597   8.668  0.4151  0.0737  0.1438
41837W        W60584  12.172  16.189  25.273 -0.3453 -0.1109  0.3497
41838W        W60585  30.404  16.739  14.824 -0.0496 -0.0968 -0.2302
41839W        W60586  11.418  27.117   3.958  0.1014  0.2347  0.1882
41840W        W60587  24.313   4.778   1.878 -0.0256  0.0296  0.0387
41841W        W60588   0.493   1.806  17.706 -0.1769 -0.0182  0.3068
41842W        W60589  24.515  11.413  15.065  0.0518 -0.2069  0.2201
41843W        W60590  30.010  10.819  24.800  0.2240  0.2945  0.1352
41844W        W60591  17.608   2.792  19.810 -0.0665  0.0482  0.1498
41845W        W60592   9.018   9.782   4.119 -0.0945 -0.4165  0.1427
41846W        W60593  23.384  29.520   1.974  0.2758 -0.1133  0.0414
41847W        W60594  31.930  32.335   6.010  0.0449 -0.3250  0.1270
41848W        W60595  16.361  14.529   5.192 -0.1249 -0.1345 -0.0787
41849W        W60596   1.667  22.306   1.236  0.0716 -0.0400 -0.1422
41850W        W60597   8.342  21.499   5.487 -0.3774  0.0919 -0.0159
41851W        W60598   9.212  14.613   6.166  0.0067  0.1512  0.0679
41852W        W60599  25.819  21.871  14.635 -0.4602 -0.0852 -0.0057
41853W        W60600  24.412   6.795  25.917  0.0999  0.0708  0.1646
41854W        W60601   2.927  21.724  23.504 -0.0488 -0.0563 -0.2702
41855W        W60602  21.700   9.123  25.527 -0.0733  0.1294 -0.1765
41856W        W60603  30.232  26.291  16.265 -0.0393  0.1188 -0.1459
41857W        W60604  20.103  12.052  23.555  0.1829 -0.0273 -0.0449
41858W        W60605   0.060  12.502  14.234  0.1025 -0.1474 -0.1430
41859W        W60606  17.227  28.356   6.226 -0.3521  0.0844 -0.0203
41860W        W60607  29.859  19.342  18.545  0.0143  0.0625 -0.0984
41861W        W60608  21.205  25.397  26.199 -0.0962  0.0619  0.4243
41862W        W60609  17.146  20.552   3.737 -0.1831  0.2280  0.0606
41863W        W60610  34.384  18.117  16.592 -0.1688 -0.1169  0.0734
41864W        W60611   0.440  21.807  25.948 -0.0153 -0.0654  0.1341
41865W        W60612  14.647   1.520   2.447 -0.2092 -0.1650 -0.2588
41866W        W60613  15.984  33.506  21.687  0.2385  0.0103  0.4526
41867W        W60614   4.896  31.852  13.129  0.1969 -0.0543  0.3130
41868W        W60615  12.514  10.238   6.941 -0.1769 -0.4099 -0.1277
41869W        W60616  22.130  24.936  19.878  0.1482 -0.1937 -0.1635
41870W        W60617   8.270   1.345   8.986 -0.0146  0.2529  0.1415
41871W        W60618   0.152  24.089  25.372 -0.2968  0.0762  0.0449
41872W        W60619  30.953  22.429   9.582 -0.0982 -0.4044  0.0922
41873W        W60620  15.768  21.960  16.206  0.1351  0.0834 -0.0729
41874W        W60621  14.451  30.100   7.573  0.0126  0.3695 -0.0365
41875W        W60622  20.285  19.958  25.950  0.1058  0.0322 -0.1083
41876W        W60623  18.658   6.712   6.261 -0.2747  0.0680  0.1977
41877W        W60624  18.861  19.865   4.941  0.0132 -0.0434 -0.1077
41878W        W60625  16.257  31.759  22.936 -0.0988  0.2584 -0.3152
41879W        W60626   8.927  30.523  11.574  0.0252 -0.1554  0.0717
41880W        W60627  18.870  16.052   0.109 -0.0853  0.1190 -0.2864
41881W        W60628   5.265  19.862  20.229  0.1997 -0.0207  0.2780
41882W        W60629  28.399  33.739   1.153  0.1111  0.0565 -0.2973
41883W        W60630   2.264   8.812  14.174  0.0585 -0.1444  0.0358
41884W        W60631  10.312  18.583   2.378 -0.0971 -0.4970  0.0182
41885W        W60632   0.461  30.637  20.201 -0.0971 -0.3029 -0.2260
41886W        W60633   6.819   5.312  21.904  0.1792  0.2221 -0.0652
41887W        W60634  12.451  22.981   4.967 -0.1707 -0.3130 -0.0612
41888W        W60635   2.835   3.788  20.590 -0.0805 -0.0839  0.1612
41889W        W60636   7.703  16.682   5.054  0.1467 -0.1873  0.1781
41890W        W60637  33.628  26.574  13.836  0.1815  0.0677  0.1312
41891W        W60638  24.510   7.107   3.452  0.1864  0.3763 -0.0746
41892W        W60639   7.994  13.840  13.122 -0.1004 -0.1368  0.1283
41893W        W60640   1.777  12.431  25.264  0.2067  0.1287 -0.0359
41894W        W60641   9.389  12.749  18.811 -0.2241 -0.0273 -0.1598
41895W        W60642   3.636  22.956   4.857  0.0117  0.0061  0.1903
41896W        W60643  15.042   0.211  25.965  0.2014  0.0308  0.3374
41897W        W60644  28.617   5.839  24.867  0.0058  0.0840  0.1640
41898W        W60645   7.885   1.971  19.880 -0.3119  0.0749 -0.0094
41899W        W60646  17.949  20.147   1.812  0.0100 -0.1653 -0.0856
41900W        W60647  14.680  25.232   9.064  0.1171  0.1672  0.1719
41901W        W60648  21.793   2.861  20.456  0.0759  0.1174 -0.1033
41902W        W60649  19.050  30.000  18.845  0.0857  0.1079  0.0776
41903W        W60650   7.640  30.074   6.568  0.1515  0.3447 -0.0802
41904W        W60651  19.541  11.378  17.614 -0.4098 -0.0072  0.2150
41905W        W60652  32.265  35.232  14.046 -0.3392  0.0937 -0.0705
41906W        W60653  30.977   5.230  22.416  0.0172 -0.1050  0.0953
41907W        W60654  32.386   3.530  14.896  0.0693  0.1151  0.1981
41908W        W60655  32.630   8.314  16.639  0.2639 -0.2038  0.2399
41909W        W60656  13.882  23.770  10.739 -0.0418  0.0301 -0.1738
41910W        W60657  32.171   9.354  15.588  0.0041 -0.2069 -0.1304
41911W        W60658  30.386  16.229  14.776  0.1951 -0.1784  0.1972
41912W        W60659  11.509  16.323   9.528 -0.4040  0.1399 -0.0459
41913W        W60660  11.869  24.782   1.619 -0.1474  0.3694  0.1668
41914W        W60661  22.041   7.460   8.821 -0.2094 -0.2438 -0.4148
41915W        W60662  28.923  18.685  16.047  0.1066 -0.0089  0.0526
41916W        W60663   2.929  14.107  16.628  0.0101 -0.0030 -0.1225
41917W        W60664  15.730   7.845   3.691  0.0111 -0.0714 -0.1514
41918W        W60665   9.540   2.477  19.555  0.0073 -0.1160 -0.3265
41919W        W60666  11.862  30.995  15.453  0.0680  0.1844 -0.2919
41920W        W60667  34.687  14.324  11.755 -0.0604  0.0977 -0.1907
41921W        W60668  26.925  23.633  21.495  0.1856 -0.0306 -0.0876
41922W        W60669  31.554   6.890  25.193 -0.2533 -0.0510  0.3916
41923W        W60670   9.315  11.284  12.488  0.1242  0.3073  0.2603
41924W        W60671  12.838   4.060  12.544 -0.2529 -0.0782  0.0035
41925W        W60672  33.728  15.526  22.244 -0.0828 -0.2186 -0.2038
41926W        W60673  13.991   9.447  12.600  0.0444  0.0775 -0.0151
41927W        W60674  13.558  29.172   6.761 -0.1143  0.0868 -0.1308
41928W        W60675  32.730   4.333  17.196 -0.0395 -0.0025 -0.0237
41929W        W60676  13.240  31.424  22.702 -0.0423 -0.1406 -0.1794
41930W        W60677  15.103   2.517  10.670  0.0414 -0.0280  0.0201
41931W        W60678  28.169  11.362  18.114 -0.1210  0.4233  0.1028
41932W        W60679   5.620   9.642  24.344  0.0013 -0.2232 -0.1429
41933W        W60680  12.428  16.926   9.225  0.1257 -0.0132  0.3845
41934W        W60681   9.756  19.758   4.755  0.0615 -0.0042 -0.0735
41935W        W60682  25.459   3.558   0.516 -0.0272  0.0556  0.1813
41936W        W60683   2.104  11.288  23.436 -0.1310 -0.0449  0.1850
41937W        W60684  11.642  18.979   2.644  0.2886 -0.0276 -0.3121
41938W        W60685  24.844   4.535   3.767 -0.1949 -0.0300  0.0135
41939W        W60686  22.479  11.165   3.083 -0.1976 -0.0012  0.2521
41940W        W60687  18.559  29.231  23.843 -0.0033  0.3198  0.1852
41941W        W60688  10.578   6.509   8.924 -0.6728  0.2961 -0.1484
41942W        W60689   0.235  15.730  21.814  0.1191 -0.2334 -0.3239
41943W        W60690  19.790  15.213  19.412  0.1399 -0.0158 -0.0438
41944W        W60691  11.869   8.315  11.005  0.3870 -0.2372  0.5847
41945W        W60692  28.968  26.030  18.032  0.1848 -0.5024 -0.3967
41946W        W60693  24.679  28.260  20.637 -0.3061  0.0952 -0.3188
41947W        W60694  26.407  11.551  25.491  0.1601 -0.2740 -0.1547
41948W        W60695  13.698  12.275   8.431 -0.3084  0.0322 -0.0305
41949W        W60696  29.097  20.105  17.945 -0.0056  0.0486  0.2600
41950W        W60697  32.343  31.694  14.878  0.2342 -0.0063 -0.3350
41951W        W60698  32.815   6.996  20.287  0.0993 -0.0752  0.0135
41952W        W60699  26.144  20.597  12.590  0.2282 -0.2217 -0.0577
41953W        W60700  18.721  21.795  10.277  0.0053  0.1708  0.3543
41954W        W60701  24.026  13.760   0.111 -0.2522  0.2707  0.0150
41955W        W60702  12.710   6.041   7.497 -0.2150 -0.0336 -0.1481
41956W        W60703   3.858  33.661  11.803  0.1248  0.0480 -0.1984
41957W        W60704   1.498   1.500   8.171 -0.0390  0.0503 -0.1315
41958W        W60705  16.412   2.638  21.805  0.0421 -0.2415  0.0398
41959W        W60706  34.635   9.527   1.387 -0.0690  0.0500 -0.1803
41960W        W60707   1.927  21.852  20.935 -0.1063 -0.2882  0.0690
41961W        W60708  35.342  15.502   0.426  0.0330  0.1101 -0.1063
41962W        W60709  26.004  17.387  11.239  0.1485 -0.1591 -0.0342
41963W        W60710  20.341  15.590  25.113 -0.1058 -0.1635 -0.1413
41964W        W60711  10.203  23.110  26.198 -0.0417  0.1615 -0.0109
41965W        W60712   2.350  27.778   2.532 -0.3930  0.1106  0.0544
41966W        W60713  27.378  25.031  24.310  0.3450  0.2993 -0.0684
41967W        W60714   5.195   5.058  18.547 -0.0338  0.1974  0.1748
41968W        W60715  34.087  14.914  21.681 -0.4008  0.1921  0.0451
41969W        W60716   5.860  21.120   4.347 -0.0668 -0.0315  0.0164
41970W        W60717  10.599  23.525  14.381  0.0876  0.0612 -0.0087
41971W        W60718  34.745   0.820  15.967 -0.1865 -0.2057 -0.1298
41972W        W60719   1.910   5.047  23.449 -0.0141  0.0677 -0.1205
41973W        W60720  31.920  22.427  20.748 -0.2224 -0.0038  0.1947
41974W        W60721   8.464  20.688   0.086  0.0736 -0.0409 -0.0195
41975W        W60722   0.805  35.088  23.276  0.1021 -0.0159 -0.1134
41976W        W60723   3.528  33.101  18.103 -0.3043 -0.2056  0.1306
41977W        W60724  30.495   6.031  20.747 -0.2122 -0.2050 -0.1751
41978W        W60725  30.287  18.567  11.438  0.0070  0.0447 -0.0551
41979W        W60726  17.548  29.776  20.872  0.0291  0.0309 -0.1277
41980W        W60727  33.222   6.078  25.112  0.2974  0.2323 -0.0159
41981W        W60728   5.846  14.754  17.205 -0.0939  0.0461 -0.3025
41982W        W60729  16.656  23.417  14.569  0.2129  0.0965  0.3739
41983W        W60730  25.035  33.429  23.160 -0.1101 -0.0360  0.1486
41984W        W60731  13.092  15.440  21.992 -0.1083 -0.0155 -0.3242
41985W        W60732  13.432  22.588  25.916 -0.0595  0.0904  0.2089
41986W        W60733  17.700  30.861   8.424 -0.1371  0.2972  0.0404
41987W        W60734  34.326  24.211  17.915 -0.1042 -0.0006  0.0497
41988W        W60735  32.712   1.785  14.275  0.1115  0.0907  0.1642
41989W        W60736   6.675  34.421   5.218  0.2542  0.0925 -0.0744
41990W        W60737  23.086   6.795  14.576  0.0998 -0.0360 -0.2941
41991W        W60738  24.381  32.523  12.449 -0.0409 -0.3259  0.1047
41992W        W60739  34.180   9.453  18.267 -0.1542  0.0571 -0.1641
41993W        W60740  21.674  24.820   5.441 -0.0279 -0.1068  0.0404
41994W        W60741   8.098   7.101   6.881  0.1133  0.0337  0.1350
41995W        W60742  20.031  10.293   5.426 -0.1531 -0.2676  0.0178
41996W        W60743  26.547   8.168  11.305  0.0552  0.1308  0.1391
41997W        W60744  32.368  31.112  24.085  0.2011  0.1069  0.2519
41998W        W60745  15.268  13.407  13.070 -0.0194  0.1615  0.1744
41999W        W60746  15.504  29.657   2.720 -0.0764 -0.0091  0.0929
42000W        W60747  17.942   8.109   1.032  0.1353 -0.0159  0.0410
42001W        W60748  15.359   3.170   1.201 -0.1415  0.1335 -0.0850
42002W        W60749  32.853   5.787  24.722  0.0595 -0.0351  0.2022
42003W        W60750  21.591   4.206   2.441  0.2113  0.1113 -0.1892
42004W        W60751  32.542  34.760  25.696 -0.1162  0.0015  0.2998
42005W        W60752  18.439  23.425   7.011  0.2875  0.3522 -0.0439
42006W        W60753  32.261   1.762  21.956 -0.2007  0.1022 -0.1667
42007W        W60754  25.448   2.879  23.615  0.0643 -0.2460 -0.1153
42008W        W60755  25.188  34.712  26.014 -0.0606  0.0019  0.1380
42009W        W60756  35.320  13.835  24.311 -0.1667  0.0963 -0.0363
42010W        W60757  33.408   1.310  20.110  0.1768  0.0110  0.0481
42011W        W60758  14.957  30.616  24.961  0.0381 -0.1147  0.0866
42012W        W60759  14.146  25.984  23.613  0.5731 -0.0080 -0.0419
42013W        W60760  17.531   6.151   0.873  0.1635  0.0468  0.0193
42014W        W60761  16.841  33.594  26.058  0.3393 -0.3014 -0.1093
42015W        W60762  18.363  24.006  21.091 -0.2017 -0.0952 -0.0161
42016W        W60763  19.757  13.493   4.603 -0.0759  0.1275  0.1007
42017W        W60764  30.444   3.895  18.659  0.1066  0.0022 -0.0219
42018W        W60765  20.794  34.193  18.150 -0.2094 -0.0173 -0.1664
42019W        W60766  13.497  31.421  21.647  0.2766 -0.4245  0.1649
42020W        W60767  15.075  18.063   7.497 -0.1566  0.1027 -0.1764
42021W        W60768  25.735   1.839   6.199  0.0206  0.1910 -0.3188
42022W        W60769  27.010   8.128  21.503  0.2329 -0.0856 -0.1639
42023W        W60770   0.441   5.886   1.005  0.0035  0.0217  0.1762
42024W        W60771  35.181  30.095  16.603 -0.2234 -0.0272 -0.1770
42025W        W60772  26.664  11.474   0.584 -0.0696  0.0325  0.3179
42026W        W60773   9.135  25.994  22.408  0.3462  0.1123  0.3585
42027W        W60774  17.805  31.020   0.015 -0.0616 -0.3317 -0.4601
42028W        W60775  32.201   6.526   0.728  0.0383 -0.2999 -0.1399
42029W        W60776   2.886  29.994  10.416 -0.1469 -0.0092  0.0820
42030W        W60777   4.681  17.265   2.943 -0.2006  0.1893 -0.0540
42031W        W60778  13.283   5.078   6.039  0.1339 -0.2531  0.2164
42032W        W60779  21.249  17.431  18.143 -0.2710  0.0762  0.0926
42033W        W60780  19.575   1.280  16.878  0.0367 -0.0498 -0.1728
42034W        W60781  22.471  28.039   0.109  0.1406 -0.0061  0.3106
42035W        W60782  20.756  33.975  24.638 -0.1298 -0.0211 -0.4185
42036W        W60783  33.676  16.136  10.647  0.0698  0.0125 -0.3818
42037W        W60784  10.838   8.291   4.885  0.0941 -0.0204  0.2223
42038W        W60785   9.056  33.606   4.929 -0.3105 -0.2618  0.3183
42039W        W60786  10.532   0.615  13.642  0.0499 -0.0967 -0.1401
42040W        W60787  33.894  26.932  25.586 -0.0450 -0.2481 -0.0906
42041W        W60788   2.137  23.253   1.475 -0.2615 -0.0125 -0.1303
42042W        W60789  33.565   9.703  14.197 -0.2569 -0.2853 -0.2073
42043W        W60790  35.233   3.399  13.541  0.0947 -0.0461  0.0695
42044W        W60791   6.376   8.424  22.556 -0.1645  0.1861 -0.2050
42045W        W60792  16.305   5.388  23.709  0.0410 -0.2260  0.0013
42046W        W60793   1.388  17.638  17.657 -0.1452 -0.1418  0.0083
42047W        W60794   3.604  14.641  23.247 -0.0676  0.1388  0.4756
42048W        W60795   3.347  21.211  25.111  0.0821  0.0877  0.1625
42049W        W60796  33.221  15.184  18.727  0.1511 -0.0127  0.3517
42050W        W60797   8.906  11.746   7.504  0.1809 -0.3927  0.1290
42051W        W60798  32.043  20.008  12.275 -0.3925 -0.0709  0.1331
42052W        W60799  20.666  23.019  19.911  0.1761  0.1467 -0.1131
42053W        W60800   3.103  34.340   0.292  0.0951 -0.0324 -0.2396
42054W        W60801  13.223  33.083   3.134 -0.0025 -0.2154 -0.1151
42055W        W60802  13.769   6.785   3.605 -0.0558  0.0105 -0.1890
42056W        W60803  17.436   3.568  24.324  0.0605 -0.0066 -0.0640
42057W        W60804  34.488  15.674  12.791  0.0408  0.0051  0.2369
42058W        W60805  22.508  32.329   3.413 -0.1746  0.3725 -0.0905
42059W        W60806  31.842  20.485  16.965 -0.0185 -0.0268  0.0264
42060W        W60807  22.995  14.078  18.072 -0.3365 -0.0025 -0.1962
42061W        W60808  23.376  34.020   2.833 -0.1523  0.0919 -0.1899
42062W        W60809  19.173   6.518  11.105  0.1932 -0.0005 -0.2267
42063W        W60810  18.720   8.060   9.354 -0.0793 -0.1848  0.1592
42064W        W60811  13.355  21.204   6.358 -0.0485  0.1240  0.1310
42065W        W60812   7.038  21.057  20.779  0.1811 -0.0233 -0.0309
42066W        W60813  27.236  10.124  12.624 -0.0087 -0.0556 -0.2267
42067W        W60814   4.876  14.562  17.215  0.2455  0.3368  0.2159
42068W        W60815  21.693  30.859  23.220  0.3225 -0.0764  0.1844
42069W        W60816  20.048  20.495  26.150 -0.3922 -0.0165 -0.0950
42070W        W60817  12.316  18.062   6.672 -0.0383 -0.1517 -0.2737
42071W        W60818  27.944   5.735  13.239 -0.3941  0.0148  0.0325
42072W        W60819  15.106  27.319   8.585  0.0080 -0.1377  0.1521
42073W        W60820  26.261  26.060  12.901 -0.1362 -0.0860  0.1509
42074W        W60821  30.644   1.911   3.233 -0.0653  0.2852  0.3026
42075W        W60822  29.476  15.235  25.207  0.2556  0.0189  0.2448
42076W        W60823  30.847  25.223  21.567 -0.1570 -0.0491 -0.4361
42077W        W60824  18.698   9.323   0.954  0.0338 -0.0346  0.0985
42078W        W60825  14.640   2.921   6.379 -0.0211 -0.0701  0.2155
42079W        W60826  16.959  10.171  20.951 -0.4074  0.2087 -0.3559
42080W        W60827  33.973  16.933   0.574  0.0747 -0.0138 -0.1373
42081W        W60828  13.280  18.359   6.801 -0.4102  0.0393 -0.0097
42082W        W60829  19.359   1.840   2.693  0.0711 -0.2069  0.0258
42083W        W60830  24.949  24.778   1.477  0.1487 -0.0526 -0.0862
42084W        W60831   8.239  11.798   8.658  0.2772  0.1840  0.1825
42085W        W60832   4.160   2.552  22.671 -0.0889  0.0529 -0.1427
42086W        W60833  15.214  23.249   2.092  0.2296  0.1354 -0.4347
42087W        W60834   8.404  29.063  11.435 -0.2874 -0.0845 -0.2012
42088W        W60835   2.537  10.206  23.004  0.0479  0.0636 -0.1060
42089W        W60836  25.788  33.774  21.441  0.0624  0.1859  0.0561
42090W        W60837  28.418   8.674  13.317  0.1993 -0.1841 -0.2288
42091W        W60838   0.548   4.973  23.616  0.0546 -0.2496 -0.0498
42092W        W60839  25.784  10.443  21.116  0.1300 -0.0042  0.1377
42093W        W60840  16.661   0.923   9.166 -0.1303 -0.1105 -0.0070
42094W        W60841  20.153  17.579   3.432  0.0194 -0.2952  0.0581
42095W        W60842  19.808  20.822   3.397  0.1758 -0.0122  0.1180
42096W        W60843   9.973  17.392  12.104 -0.0687  0.0117  0.3277
42097W        W60844   8.040  14.882  24.845  0.1694 -0.1076  0.1917
42098W        W60845   0.122  19.129  22.669  0.0892 -0.0102  0.0987
42099W        W60846   4.917   8.375   3.468  0.1843  0.3169  0.0005
42100W        W60847  14.869  24.122   7.020  0.0160 -0.1727  0.0752
42101W        W60848   4.028   4.266   8.686 -0.2244 -0.2027 -0.3922
42102W        W60849  19.598  18.462   7.095 -0.0162 -0.2137 -0.1252
42103W        W60850   0.546  29.636  17.121 -0.0781 -0.2795 -0.0281
42104W        W60851  28.509  23.943   8.176 -0.0973  0.2935  0.0230
42105W        W60852  30.716   6.090  15.158  0.1362  0.1484 -0.0584
42106W        W60853  21.677  30.495  20.576  0.1779 -0.2978  0.2438
42107W        W60854  20.763  30.996  18.642  0.0387 -0.1199 -0.1704
42108W        W60855  33.418  26.993  21.820 -0.0888 -0.0953  0.0526
42109W        W60856  32.683  17.413  19.434  0.2726  0.3795  0.1394
42110W        W60857  34.917  30.663   4.853 -0.0302  0.0753 -0.0798
42111W        W60858  13.456  25.513   7.424 -0.0990  0.0455 -0.1041
42112W        W60859  34.268  10.457  10.277  0.0244  0.1196  0.1205
42113W        W60860   8.675  27.906   8.632 -0.2247 -0.1393 -0.2789
42114W        W60861  15.789   8.196   8.937  0.2939  0.1464  0.1273
42115W        W60862  21.757  27.697   0.977  0.0476  0.1410  0.4220
42116W        W60863  30.808  32.220   5.299 -0.1193  0.3604  0.1168
42117W        W60864  21.977   8.591  20.990  0.1339  0.0303 -0.0257
42118W        W60865  23.871   8.402  24.633  0.3612 -0.1065  0.0685
42119W        W60866  13.291  12.735  11.584  0.0462  0.4398  0.0828
42120W        W60867  12.787  26.441  24.864 -0.0065  0.1971  0.1314
42121W        W60868  19.273  11.606   4.749  0.2236 -0.1084  0.0094
42122W        W60869  13.640  17.397   6.203 -0.2525  0.1494 -0.3149
42123W        W60870  10.028  10.512  22.780  0.0890  0.2342  0.0719
42124W        W60871  27.253  17.290   9.421 -0.1273 -0.0695 -0.2735
42125W        W60872  26.243  30.685  24.053  0.2289 -0.1301 -0.2095
42126W        W60873   3.863   2.998   0.912  0.0123 -0.2134 -0.4135
42127W        W60874   7.361   2.213  25.393 -0.1612  0.1086  0.1073
42128W        W60875   8.648  18.962  10.931  0.0301 -0.2127  0.0430
42129W        W60876  13.241  15.563   4.844  0.1429  0.0005 -0.2639
42130W        W60877  19.392  18.810  18.698  0.0015 -0.1491 -0.1526
42131W        W60878  19.294  32.102  18.263  0.2269 -0.1797  0.0107
42132W        W60879   6.293  10.744  18.153  0.0398  0.0676  0.3192
42133W        W60880   7.894  24.240   3.699  0.1183  0.0571  0.1370
42134W        W60881  32.945  13.830  25.789 -0.1612  0.3826 -0.1957
42135W        W60882  28.055  22.283  10.690 -0.0949  0.1847  0.2302
42136W        W60883   2.365  26.409  17.788 -0.4546  0.1505  0.2258
42137W        W60884   3.093  20.246  21.718 -0.2787  0.4614  0.4095
42138W        W60885  30.416  18.558  14.983  0.1451 -0.1748  0.2198
42139W        W60886  16.693  22.463   8.204  0.0465 -0.1319 -0.0838
42140W        W60887   8.328  16.977  10.964 -0.1386  0.2812 -0.2190
42141W        W60888  12.596   6.615  24.236 -0.0721 -0.1164 -0.1062
42142W        W60889   3.525   1.781  22.977 -0.1924  0.2081 -0.0148
42143W        W60890   9.156  11.579  21.484 -0.1850  0.1286  0.0728
42144W        W60891  30.396  29.905  16.435  0.0057  0.3282 -0.0477
42145W        W60892  25.879   9.095  20.226 -0.1401 -0.0415 -0.0182
42146W        W60893   3.932  12.157  20.569  0.1718  0.1887  0.2374
42147W        W60894  23.173  18.115  24.511  0.0464  0.0697 -0.0623
42148W        W60895  22.060   1.195   6.283 -0.1049  0.2591  0.0058
42149W        W60896  32.781  28.149  22.538  0.0462 -0.1946  0.2352
42150W        W60897  28.820   0.178  25.275  0.0385  0.1859  0.0014
42151W        W60898  34.209  19.534   6.219 -0.0468 -0.2502 -0.1583
42152W        W60899   6.315  19.908   5.036  0.0814  0.0106 -0.2048
42153W        W60900  18.739  30.962  23.388 -0.2021 -0.0169  0.0870
42154W        W60901  27.499  22.576  25.605  0.0822  0.3085 -0.2776
42155W        W60902  24.932   0.941  11.431 -0.1565 -0.4992  0.2564
42156W        W60903  34.558   3.303   6.758  0.0706 -0.0867 -0.0691
42157W        W60904   1.726  20.388  25.418 -0.1060 -0.2543  0.3130
42158W        W60905  34.869  14.910  26.227  0.1246  0.4132  0.0274
42159W        W60906  16.507  16.419   5.028 -0.1037  0.0738  0.1032
42160W        W60907  15.587  28.100   7.468 -0.0532  0.0242  0.0484
42161W        W60908  26.294   1.023  17.584  0.2180  0.1692  0.3748
42162W        W60909   7.859  14.808   6.048 -0.0113  0.1136  0.0607
42163W        W60910  19.221  33.274  23.316  0.0216 -0.1165  0.1436
42164W        W60911  32.140  18.850   7.810 -0.0909 -0.1378 -0.2245
42165W        W60912  23.089  28.005  16.040 -0.0490 -0.1326  0.0190
42166W        W60913  10.875  11.450  20.887  0.0580  0.0189 -0.0150
42167W        W60914   6.225  32.849  11.959  0.3431 -0.1463  0.0721
42168W        W60915  20.226  17.225  22.090  0.3242 -0.0689  0.0553
42169W        W60916  13.499  21.955  13.761 -0.4108 -0.0642  0.0563
42170W        W60917   4.471  20.148  18.791  0.1035  0.0393  0.3431
42171W        W60918   3.992   4.020  20.845  0.1101  0.4095  0.1340
42172W        W60919  28.191   3.377  19.558 -0.3034  0.0337  0.1073
42173W        W60920  15.359  32.743   4.306  0.2626 -0.0855  0.0834
42174W        W60921  19.826  33.182   5.320 -0.0527  0.4078 -0.0170
42175W        W60922  20.932  11.731  23.320 -0.0944  0.2284 -0.3020
42176W        W60923  17.342  19.841   2.763  0.1800  0.3428  0.1360
42177W        W60924  22.712  11.579  21.654  0.4723  0.2092 -0.2843
42178W        W60925  20.251  12.456  25.776  0.1249 -0.0447  0.0447
42179W        W60926  27.570  35.024  22.407 -0.0364  0.3372  0.3094
42180W        W60927  31.422  23.126  16.915 -0.1567  0.2707  0.1577
42181W        W60928  12.602  19.047  22.608 -0.0820 -0.0799  0.0629
42182W        W60929  26.184   5.329  20.499 -0.0842  0.1603  0.0899
42183W        W60930   0.917   2.850   6.501  0.2668  0.0421 -0.1054
42184W        W60931  26.993  21.047   5.605  0.3226  0.3225  0.1602
42185W        W60932  26.862  11.703  19.369  0.3788 -0.1136 -0.1528
42186W        W60933  33.601  16.091  12.436  0.0120  0.3245  0.0418
42187W        W60934   6.565   1.055   8.927 -0.0144  0.2557 -0.0881
42188W        W60935  16.373  26.892  26.006 -0.1972 -0.2887  0.0433
42189W        W60936  12.047  12.035  18.840  0.0224  0.1083  0.2054
42190W        W60937   0.360  18.753  12.868 -0.2518  0.1693 -0.1804
42191W        W60938   7.083  21.914   1.493  0.1371  0.0425  0.3424
42192W        W60939   4.044  26.561   3.179  0.0528 -0.0651 -0.1578
42193W        W60940  15.153  13.578   6.698  0.1312  0.0280 -0.0775
42194W        W60941   3.707  33.952   7.722  0.3565 -0.0506  0.4141
42195W        W60942  29.703  17.217  14.575 -0.1524  0.1407  0.0900
42196W        W60943  13.611  25.933   3.457 -0.1653 -0.1768  0.2303
42197W        W60944  10.611  23.721   3.334 -0.3727  0.0489  0.0449
42198W        W60945  29.507  21.787  17.984  0.0468 -0.1385 -0.0376
42199W        W60946  24.399  20.035  21.767  0.1084  0.3800 -0.0130
42200W        W60947   1.340   1.541  15.189 -0.0485  0.0151 -0.1645
42201W        W60948  11.274   7.488   4.571 -0.1452 -0.0582 -0.0377
42202W        W60949  35.354   5.625  25.726  0.0597  0.1101 -0.0033
42203W        W60950   0.790  17.736  18.207 -0.0701  0.6520  0.0894
42204W        W60951  30.017  17.666  16.966 -0.1948 -0.1497 -0.0507
42205W        W60952  15.790  22.223   2.564 -0.0615  0.2416 -0.0589
42206W        W60953  34.038  30.928   0.483 -0.0299  0.1306  0.2383
42207W        W60954  29.135  33.476  10.959 -0.1880 -0.0589 -0.2164
42208W        W60955  17.930   1.919  25.885 -0.2241  0.0775  0.3479
42209W        W60956  27.029  32.190  21.191  0.1741  0.2964 -0.1274
42210W        W60957  14.506  32.318   3.478 -0.1995 -0.1751  0.1924
42211W        W60958  16.210   8.302  19.982  0.0973 -0.1456 -0.2765
42212W        W60959   9.694  10.961  19.285 -0.1296 -0.2169  0.3221
42213W        W60960  16.586  23.026  22.353  0.1701 -0.0785 -0.1595
42214W        W60961  13.948  29.361   7.022  0.2264  0.0061 -0.1092
42215W        W60962  25.125   7.559  18.597  0.1073 -0.1134 -0.0074
42216W        W60963  20.256  10.073   6.586  0.1502  0.1183  0.1901
42217W        W60964  22.486  30.322  22.473  0.0824  0.2867  0.2061
42218W        W60965   8.923  31.861   9.712 -0.2014 -0.1667  0.0429
42219W        W60966  32.088  10.396   9.758  0.1208  0.1499  0.1073
42220W        W60967  11.804  29.928   5.502  0.2023 -0.3355  0.2168
42221W        W60968  31.724  25.866  13.666 -0.1337  0.0800  0.1576
42222W        W60969   9.476  27.573  15.994  0.3020 -0.1709  0.1510
42223W        W60970   3.112   0.711  23.771  0.1269  0.1727  0.3806
42224W        W60971  28.354  30.742  20.185  0.2320  0.1400 -0.0182
42225W        W60972  23.455  32.362   1.336  0.0124  0.0421 -0.3563
42226W        W60973  12.121  22.627   9.271  0.0525  0.3292  0.1892
42227W        W60974   6.207   6.559   9.180 -0.5033 -0.0775  0.2989
42228W        W60975  22.619  34.503   3.062 -0.1900 -0.0987  0.0069
42229W        W60976  30.905   5.392   0.413  0.1721 -0.0679 -0.0835
42230W        W60977  30.262  29.468  20.793  0.0826  0.1200  0.0982
42231W        W60978   7.871   2.350  11.760  0.3275 -0.0347  0.2081
42232W        W60979   8.029  18.308  10.417 -0.3284  0.1053  0.0613
42233W        W60980  15.944  16.164   5.068  0.1956 -0.1708  0.2929
42234W        W60981  34.682  29.876  15.027  0.0165 -0.2412 -0.0700
42235W        W60982  22.504   1.425  13.336  0.0013 -0.3602  0.1207
42236W        W60983   4.716  10.446  24.071 -0.0508  0.3946  0.1823
42237W        W60984  12.581   1.586   8.556  0.1851 -0.4671  0.1105
42238W        W60985  30.202  17.091   6.888 -0.0139 -0.3329  0.0873
42239W        W60986   4.159  33.449   0.144 -0.2811  0.1163 -0.0567
42240W        W60987   8.896   7.763   4.869  0.0557 -0.3947  0.0596
42241W        W60988  11.338  24.839   1.580 -0.3709  0.2897  0.0889
42242W        W60989  19.300   5.972   3.637  0.3555  0.3168 -0.0321
42243W        W60990  22.336   1.858  22.329  0.1658  0.3353  0.2168
42244W        W60991  18.180  19.919   7.735 -0.0278  0.0875 -0.1028
42245W        W60992  30.311  21.082   7.214  0.2465  0.0112 -0.5972
42246W        W60993  33.847  30.649   6.281 -0.0737 -0.3135 -0.0243
42247W        W60994  26.294  34.798  20.788  0.0084 -0.0879 -0.1989
42248W        W60995   1.187  27.493  18.924  0.0243  0.1783 -0.2208
42249W        W60996   7.292  20.440   5.536  0.2008  0.1207  0.2251
42250W        W60997  28.533  17.463  21.104 -0.0605  0.2971 -0.1824
42251W        W60998   2.644   7.930  17.909  0.1262  0.2915  0.0657
42252W        W60999  13.587  23.163   9.887  0.1353 -0.2957 -0.1712
42253W        W61000   4.249  14.812  20.542 -0.0201 -0.0818  0.0292
42254W        W61001   0.889  26.139   0.442  0.3490 -0.0345  0.0042
42255W        W61002  28.930  27.610  20.892  0.2204  0.1870  0.0469
42256W        W61003  28.058   3.516  17.546  0.2239  0.0646  0.0361
42257W        W61004   7.805  13.912   3.756 -0.1792  0.1068  0.0892
42258W        W61005   5.065   7.470  21.606  0.1863  0.0158  0.2476
42259W        W61006   1.261  10.000  24.761  0.0269  0.0358 -0.1581
42260W        W61007  22.149   3.834   1.223 -0.0812 -0.0103 -0.1809
42261W        W61008   5.520  33.203   9.365 -0.0077 -0.3013 -0.0916
42262W        W61009  10.522  23.149   9.474 -0.3333 -0.2214 -0.0022
42263W        W61010  30.726  23.945  16.727 -0.2447 -0.3325  0.0372
42264W        W61011   6.046   6.829  23.868  0.3149 -0.1134  0.1392
42265W        W61012  11.944  32.810  20.479  0.1216  0.1627  0.0710
42266W        W61013  16.200  26.411  13.977 -0.3265 -0.1304  0.0950
42267W        W61014  24.599  31.422  23.547 -0.0058 -0.0941  0.0469
42268W        W61015  13.852  25.318  24.670 -0.1575  0.2560  0.0918
42269W        W61016   6.180  31.336  22.972 -0.1978 -0.0865 -0.0788
42270W        W61017  10.358   4.083  26.106  0.0060 -0.4000 -0.0676
42271W        W61018  34.412   9.764  24.020  0.1511 -0.1677 -0.0215
42272W        W61019  15.631  16.686  25.044  0.0974  0.0841  0.0039
42273W        W61020  18.820   7.735   5.669  0.1703 -0.1755  0.0824
42274W        W61021  15.024  24.099  14.903 -0.1088 -0.0525  0.2404
42275W        W61022  27.534  12.740  12.784 -0.0471 -0.0515 -0.2997
42276W        W61023  21.255  21.457  24.426 -0.1681  0.1756  0.1363
42277W        W61024   6.602  25.913   0.827 -0.2456  0.1397  0.4652
42278W        W61025  22.750  26.312   3.587  0.1022  0.0412 -0.1560
42279W        W61026  18.346  23.699  11.543  0.1097  0.0215 -0.2940
42280W        W61027  26.916  32.679   9.823 -0.1625 -0.0207 -0.1210
42281W        W61028  15.026  25.903   8.581  0.2337  0.2237 -0.2277
42282W        W61029  12.909   8.283   5.595  0.1341 -0.0905 -0.0242
42283W        W61030  19.169  21.950  18.760 -0.2049 -0.1195 -0.0398
42284W        W61031   7.900  29.164  23.781  0.4199  0.0880  0.1332
42285W        W61032  13.733   3.635   7.166 -0.0250 -0.3160 -0.0023
42286W        W61033   2.090  29.469   5.341 -0.1558  0.2664 -0.1587
42287W        W61034   6.933  23.551  21.983 -0.2834  0.1201 -0.0641
42288W        W61035   8.986  32.500   8.536 -0.1398 -0.3116  0.0959
42289W        W61036  30.397  29.473  19.586  0.1743  0.0287  0.0630
42290W        W61037  34.832   9.239  17.164  0.2360  0.2957  0.3512
42291W        W61038  31.458  17.067  25.862 -0.0279  0.1156  0.1650
42292W        W61039  20.859  21.858   9.226 -0.3330  0.3562 -0.0559
42293W        W61040   0.247  19.654  11.975 -0.0123 -0.3139 -0.0573
42294W        W61041  26.034   2.674  18.217 -0.0087  0.3574  0.1440
42295W        W61042  34.492  22.098  22.939 -0.1512 -0.2768  0.3685
42296W        W61043  34.150  31.032   7.286  0.0107  0.2545 -0.1566
42297W        W61044   2.336   3.732   2.362  0.0906  0.0791 -0.3566
42298W        W61045  10.464  26.076  13.317 -0.0317 -0.3024 -0.2006
42299W        W61046   6.670  21.863   0.253  0.2501 -0.2479 -0.1314
42300W        W61047  31.101   1.040  25.900 -0.0196 -0.0927 -0.0883
42301W        W61048  29.451  18.834  21.728 -0.3037  0.1772  0.0267
42302W        W61049  19.620  12.474  21.290  0.1614  0.0599 -0.2222
42303W        W61050  17.083   1.524  10.258 -0.0663 -0.1784 -0.0083
42304W        W61051  19.262  10.007   4.976  0.1335  0.0592 -0.0334
42305W        W61052  26.096  12.197  15.673 -0.0791 -0.0468  0.1389
42306W        W61053  18.178   0.593  23.994  0.0446  0.2126  0.0752
42307W        W61054  30.861  26.079  14.808 -0.1573  0.1207 -0.0018
42308W        W61055   2.856   9.839  21.158  0.4258  0.0234 -0.0996
42309W        W61056  32.946  34.933  20.933 -0.0726  0.0678  0.1075
42310W        W61057  22.663  25.595  14.642 -0.0667 -0.0549 -0.0103
42311W        W61058  11.009  17.996   4.591  0.1992 -0.1610  0.2769
42312W        W61059  29.435  26.520  13.424  0.0365  0.4102  0.0857
42313W        W61060  29.242  31.287  22.847 -0.4462 -0.1608  0.0150
42314W        W61061   8.638   2.496  19.657  0.2196 -0.2666 -0.2711
42315W        W61062   4.227   8.934  26.101  0.0870  0.1779 -0.4136
42316W        W61063  22.859  29.861  19.388  0.1652 -0.0750  0.1501
42317W        W61064  27.173  20.304  22.602  0.0906 -0.2040  0.1197
42318W        W61065   1.727  27.954   5.906  0.1965  0.1400  0.0155
42319W        W61066  22.660   3.297  23.377  0.0227 -0.1263  0.0791
42320W        W61067  15.850   8.433   1.450 -0.0849  0.3019  0.0428
42321W        W61068   8.881  28.444   3.821 -0.1108  0.2660  0.0403
42322W        W61069  13.188   4.861  12.733 -0.0776 -0.1774 -0.1089
42323W        W61070  12.247  32.979   3.830  0.0152 -0.2051  0.0899
42324W        W61071  26.992  13.378  10.690 -0.1604 -0.0060 -0.4585
42325W        W61072  12.582  13.643   5.783  0.1005  0.0353 -0.0856
42326W        W61073   3.532  31.963   8.048  0.0026  0.0439  0.0864
42327W        W61074  10.597  33.758  25.104 -0.2087 -0.1046  0.1520
42328W        W61075  32.543   0.393  23.441 -0.0778  0.1840  0.0130
42329W        W61076   7.655  12.062  18.996 -0.0771  0.1702  0.2714
42330W        W61077  10.111  20.436   1.351 -0.0261 -0.0356  0.0245
42331W        W61078  26.184  18.792  19.584 -0.0817  0.1235  0.0321
42332W        W61079  34.465  11.778  13.272  0.2139 -0.0233  0.1619
42333W        W61080  18.894  12.062   0.922 -0.0590 -0.2382 -0.1404
42334W        W61081  13.219  24.756   2.572 -0.0403  0.0048 -0.0103
42335W        W61082   7.403   1.192   8.942 -0.2862  0.1009 -0.1121
42336W        W61083  35.043  19.814  21.187 -0.2353 -0.0196  0.3502
42337W        W61084  17.384  11.539   7.114  0.1792 -0.0706 -0.1275
42338W        W61085   2.211   9.543   5.440 -0.1161  0.2315  0.0048
42339W        W61086  32.772  23.039  19.139 -0.0738  0.1200  0.0707
42340W        W61087  27.811  31.381  22.430  0.0107 -0.2264  0.1271
42341W        W61088   9.261   9.201   8.436 -0.2252 -0.0076  0.1649
42342W        W61089  22.574  26.975  25.685 -0.1885  0.2686  0.1010
42343W        W61090   9.682  24.160   4.514  0.2577 -0.0781 -0.1813
42344W        W61091  12.364  13.147   4.669  0.3118 -0.2793 -0.0914
42345W        W61092  12.840  23.691   9.540 -0.1930 -0.1375 -0.1634
42346W        W61093   8.696   1.115  13.784  0.1013 -0.0245 -0.3397
42347W        W61094  33.709  24.603  17.522 -0.1729  0.2093 -0.0131
42348W        W61095   9.767   7.480   4.383  0.2223 -0.2893  0.1649
42349W        W61096   1.747  32.262  23.666 -0.1141 -0.2040 -0.2481
42350W        W61097   7.979  24.616  13.552  0.0043 -0.3473 -0.1936
42351W        W61098  32.934   4.151  16.513  0.3454 -0.0864  0.2199
42352W        W61099   2.382  14.796  16.838  0.5593 -0.1081  0.2151
42353W        W61100  13.754  15.963  22.274 -0.0342  0.0762  0.2014
42354W        W61101  20.718  24.696   6.259  0.3625 -0.1536 -0.3341
42355W        W61102   2.686   7.166  22.686 -0.0702 -0.1398  0.0911
42356W        W61103  20.154  14.097   3.818  0.0606 -0.0555  0.1391
42357W        W61104  28.104  14.709  15.234 -0.0665  0.1418  0.0231
42358W        W61105   7.477  23.966   3.305 -0.0238 -0.1207 -0.3000
42359W        W61106  24.714   5.676  24.375  0.2972 -0.3680 -0.2148
42360W        W61107  18.918   0.989  25.009  0.0198  0.2039 -0.2047
42361W        W61108  28.735  18.335   6.425 -0.2706  0.2480 -0.1328
42362W        W61109  15.222  25.251  14.664  0.3667  0.1767  0.0278
42363W        W61110   6.577  18.906  23.419  0.1452 -0.5739  0.1390
42364W        W61111  31.600  14.411  19.147  0.1020  0.0121 -0.0949
42365W        W61112  21.349   7.264  23.320  0.1673  0.1416 -0.2232
42366W        W61113   7.067  12.224   5.833  0.0289  0.0632 -0.0206
42367W        W61114  20.405  14.054  24.599 -0.0465  0.2741 -0.2313
42368W        W61115  10.378   6.482  24.866 -0.2090  0.1873  0.1013
42369W        W61116  25.938  15.646  16.370  0.2016 -0.3353 -0.2307
42370W        W61117  12.789   3.588   1.268 -0.2135 -0.1051  0.0081
42371W        W61118  32.701   1.397   1.539 -0.2686 -0.0369 -0.0628
42372W        W61119   6.478  27.745   8.742 -0.1578  0.0592  0.2485
42373W        W61120  29.013  10.597  12.497 -0.0419 -0.0335 -0.3395
42374W        W61121   1.312   0.435  15.962 -0.1396  0.1580 -0.3120
42375W        W61122  12.648  19.415   1.116 -0.0097 -0.1493 -0.1125
42376W        W61123  26.897  34.491  25.451 -0.2667  0.2675 -0.1053
42377W        W61124  27.856  10.332  15.883  0.3506 -0.2324 -0.0837
42378W        W61125  18.629  28.495  23.592  0.2019  0.0420 -0.0865
42379W        W61126  15.375  27.382   6.833  0.1054 -0.0120  0.1176
42380W        W61127  22.778  29.410  12.188 -0.1906  0.0891 -0.1301
42381W        W61128  12.116  22.366  16.290 -0.2597 -0.0692  0.0151
42382W        W61129  32.586   0.532  20.485 -0.1134 -0.0349  0.0770
42383W        W61130  23.293  21.938  17.433 -0.0952 -0.1351  0.0890
42384W        W61131   8.234   0.500  21.188 -0.0505  0.1365  0.0405
42385W        W61132   5.925  19.856  24.232  0.0719 -0.1997  0.0383
42386W        W61133   8.999   7.734  11.189 -0.3224  0.0641  0.4262
42387W        W61134   6.389  31.735   7.699  0.0739 -0.0328  0.2463
42388W        W61135   0.502   0.206   7.489 -0.0334  0.3617 -0.0356
42389W        W61136  24.848  14.749  18.057 -0.0894  0.1365  0.3003
42390W        W61137   5.235  32.128   9.835  0.2545 -0.1722  0.0156
42391W        W61138   2.281  20.145   1.885  0.3885 -0.0216  0.0584
42392W        W61139  33.414   2.413  22.564  0.0108  0.1011 -0.0535
42393W        W61140  29.426  13.085  22.153  0.0263 -0.2812  0.1455
42394W        W61141  26.787  33.314  18.255  0.0109 -0.0147  0.0646
42395W        W61142  25.778   1.056  14.534  0.2260  0.0669 -0.1941
42396W        W61143  19.401  13.631  21.058 -0.4890 -0.1104  0.2583
42397W        W61144  32.566  15.941   0.370  0.1152  0.0120  0.2872
42398W        W61145  25.929   5.009  15.494 -0.3739  0.0896 -0.1778
42399W        W61146  33.907   5.524   1.211 -0.3189  0.3904  0.0309
42400W        W61147   1.931   2.016  20.363 -0.4253 -0.1084  0.0877
42401W        W61148  28.543  23.084   0.584 -0.2855 -0.0695 -0.3013
42402W        W61149  21.085   0.403   5.967  0.1556  0.1149  0.0973
42403W        W61150  20.250  28.574  17.776 -0.2584 -0.0496 -0.0315
42404W        W61151   0.943  22.122  16.084  0.0856  0.0552  0.1924
42405W        W61152  33.314  14.431  25.314 -0.3009 -0.0967  0.2703
42406W        W61153  35.091  25.382   1.269 -0.2301 -0.0256  0.2035
42407W        W61154   5.631  14.814  25.634  0.1035  0.1608 -0.1526
42408W        W61155  30.067  16.410  15.999 -0.2166  0.0448 -0.1231
42409W        W61156  10.693  23.110  11.888 -0.0959  0.0019 -0.0355
42410W        W61157  28.308   3.546  12.966 -0.1798  0.0695 -0.1272
42411W        W61158   2.418  23.779  24.669 -0.1565  0.1622 -0.2221
42412W        W61159  14.550  17.110   4.681 -0.1189 -0.2274  0.1016
42413W        W61160   5.083  22.398   6.482  0.4416  0.0398 -0.3336
42414W        W61161  34.083   5.743  21.833 -0.2059  0.1160  0.0870
42415W        W61162  35.272   2.898  12.754 -0.0330  0.2654  0.0045
42416W        W61163   9.839   5.400  19.704 -0.1819  0.1375  0.1365
42417W        W61164   6.658  15.655  24.358 -0.0707  0.3450 -0.2760
42418W        W61165  32.427   9.862  13.729 -0.0510 -0.0611  0.0843
42419W        W61166  29.022  14.515   5.424 -0.0378  0.0187  0.1005
42420W        W61167  25.258  28.636  23.391  0.3032  0.2526 -0.0192
42421W        W61168  25.188  24.327   2.581  0.1504 -0.0861  0.0404
42422W        W61169  17.676   5.620   6.471 -0.2082  0.2419 -0.1785
42423W        W61170   9.365  25.313   1.315  0.0642 -0.1594  0.0781
42424W        W61171   1.942  35.275   9.317 -0.1863  0.0740 -0.1035
42425W        W61172  33.427   8.832  23.223 -0.2351 -0.0474 -0.1068
42426W        W61173  29.004  15.803   4.503  0.1278 -0.1829 -0.1846
42427W        W61174  21.014  24.316   7.990 -0.1585  0.3193  0.0471
42428W        W61175  34.501  34.789  15.277 -0.0467  0.3501  0.1079
42429W        W61176  33.792  10.134  11.763  0.2252 -0.1969  0.0770
42430W        W61177  16.978  29.521  22.533 -0.1640 -0.2684  0.2683
42431W        W61178  19.348   8.717   7.694 -0.0411  0.2414 -0.0667
42432W        W61179  24.632   1.754  14.440  0.2771 -0.1030 -0.3227
42433W        W61180  22.584  29.019  11.932 -0.2093 -0.1067 -0.0457
42434W        W61181   9.613  30.496  12.890  0.1271  0.1843  0.2702
42435W        W61182  14.089   3.623   4.595 -0.2514  0.0640 -0.2678
42436W        W61183  22.107  12.736  18.639  0.1110  0.2618  0.2304
42437W        W61184  29.521  31.376  22.208 -0.5035  0.1020  0.2568
42438W        W61185   5.282  12.154  19.941  0.0497  0.2781 -0.0208
42439W        W61186   8.121   6.392   2.381  0.1146 -0.0459  0.0186
42440W        W61187  32.681   6.416  11.675  0.1955  0.0773  0.1351
42441W        W61188   9.045   4.065   8.701  0.1017 -0.0330 -0.0306
42442W        W61189   9.284  26.289  23.322  0.2276  0.0276  0.0572
42443W        W61190   9.655   6.067   2.897 -0.0122  0.2518 -0.4985
42444W        W61191   9.301   6.588   8.991  0.1264 -0.0515 -0.2166
42445W        W61192  34.827  32.573  21.590 -0.0163 -0.0939 -0.1663
42446W        W61193  30.326   1.827  14.144 -0.2012  0.1166 -0.0328
42447W        W61194  26.807  17.917  12.969  0.0197 -0.0339  0.1151
42448W        W61195  13.135  17.276  14.420 -0.0172 -0.0207 -0.3572
42449W        W61196  13.233  22.266  23.787 -0.3836 -0.0176 -0.2173
42450W        W61197  12.289  28.921  24.757  0.0708 -0.2333 -0.2356
42451W        W61198  17.578  12.889  12.259 -0.2368 -0.1146 -0.3307
42452W        W61199  30.623  34.343  22.174  0.1281  0.1489 -0.3583
42453W        W61200  27.630  26.870  22.752 -0.0531 -0.1458  0.1594
42454W        W61201  21.037  34.232   0.248  0.0395 -0.1468 -0.1561
42455W        W61202  18.559   3.586  17.176  0.2767 -0.2649 -0.1950
42456W        W61203  17.958  17.390   0.058  0.0705 -0.1130  0.1416
42457W        W61204  17.384  28.799   5.786  0.1273  0.1701 -0.0072
42458W        W61205  13.064  11.760  25.744 -0.1028 -0.1761 -0.2276
42459W        W61206  27.136  13.377  19.042  0.2419  0.2112  0.2062
42460W        W61207  35.337   4.794  14.795  0.5265 -0.4512  0.0047
42461W        W61208   7.327  12.982   9.399 -0.1170 -0.1778 -0.0583
42462W        W61209   3.045   8.585   5.288 -0.3245  0.1297  0.0454
42463W        W61210  12.406  17.503   0.802  0.0772 -0.0850 -0.0790
42464W        W61211  11.346   0.797   4.577  0.2233  0.0403  0.0546
42465W        W61212  24.925  25.622  23.266 -0.1271  0.1299 -0.0156
42466W        W61213  32.172  33.720  16.117 -0.0505 -0.5045  0.0903
42467W        W61214  15.758   5.278  11.519 -0.0223  0.2392  0.0883
42468W        W61215  11.083  25.405   4.544 -0.1597  0.0085 -0.1138
42469W        W61216  27.039  19.017   6.897  0.1418 -0.3459  0.3164
42470W        W61217  29.146   7.280  17.064 -0.0416  0.0437  0.1763
42471W        W61218   4.483   1.098   8.295  0.0443 -0.1182 -0.0980
42472W        W61219   9.211  29.101  24.523  0.0922 -0.0388  0.0132
42473W        W61220  19.523  29.625   8.046 -0.0903 -0.0092  0.1322
42474W        W61221  28.917  34.538  22.855  0.2681 -0.3890  0.0883
42475W        W61222  28.153  15.108   6.848 -0.0473 -0.0239 -0.0813
42476W        W61223   4.311  25.372   9.520  0.0756 -0.2405 -0.0596
42477W        W61224   8.790  15.774  21.630 -0.2741 -0.0516 -0.0486
42478W        W61225   5.704   3.140   5.392 -0.1757 -0.1645 -0.1413
42479W        W61226  33.130  17.511  17.842 -0.1946  0.4079  0.0195
42480W        W61227  28.557  22.903  11.928 -0.0510 -0.2582 -0.0299
42481W        W61228  32.426  23.612  23.562 -0.0265 -0.0169 -0.2108
42482W        W61229   0.862  18.732   2.225 -0.1821  0.0624  0.2309
42483W        W61230  22.119   0.605  22.218 -0.3545  0.1972 -0.0965
42484W        W61231  35.167   5.246  18.243 -0.2768 -0.1336 -0.0018
42485W        W61232   1.184   1.645  18.275  0.0708  0.0252  0.0335
42486W        W61233  34.764  11.463   2.118 -0.2244  0.0374 -0.0558
42487W        W61234  35.214  31.465  21.336 -0.1173 -0.1252  0.0653
42488W        W61235  20.805  33.107  24.611 -0.3399 -0.2885 -0.2117
42489W        W61236  19.890  23.632  23.166  0.0148  0.0301  0.2152
42490W        W61237  13.070  26.152  25.240 -0.1509 -0.1280 -0.1462
42491W        W61238  17.222  26.153   3.793  0.3165 -0.0314 -0.1262
42492W        W61239   3.644   7.580   7.772  0.0716 -0.0311 -0.1338
42493W        W61240  17.014   9.705  11.140 -0.0288  0.0375  0.3564
42494W        W61241  27.289  22.609  24.835 -0.1556 -0.0033  0.1031
42495W        W61242   6.456   0.517  24.642 -0.1223 -0.0907 -0.0960
42496W        W61243  26.829   0.214  22.645 -0.0600  0.1777  0.1070
42497W        W61244  23.958   1.706  20.243  0.0724  0.0901 -0.0822
42498W        W61245   0.178   0.318   4.219  0.0558  0.2934  0.2094
42499W        W61246  10.353  30.927  10.074  0.3908 -0.2741  0.4741
42500W        W61247   2.270  20.745  19.174 -0.1376 -0.2548 -0.2898
42501W        W61248  27.800  15.807  20.355 -0.0847 -0.0416  0.0615
42502W        W61249  17.321  35.317  22.770  0.2413 -0.3541 -0.0470
42503W        W61250   7.892  27.400  10.990  0.1021 -0.0200 -0.1723
42504W        W61251   3.101  26.550   3.873  0.2590  0.2849  0.2147
42505W        W61252  34.125  13.025  16.603  0.1605 -0.1877  0.0485
42506W        W61253   1.330   9.387  21.941 -0.2706 -0.1477 -0.0312
42507W        W61254  18.598  12.880  21.506 -0.2201  0.2397  0.2232
42508W        W61255   3.006  10.101  24.710 -0.0716 -0.0123 -0.0586
42509W        W61256  12.014  15.446  23.004 -0.0566  0.0664  0.1125
42510W        W61257  26.389  14.542   6.322 -0.3238  0.2608 -0.0836
42511W        W61258  16.828   7.441  21.064 -0.0157  0.1356 -0.0039
42512W        W61259  22.356  31.339   4.681  0.0947 -0.1035  0.2761
42513W        W61260   7.673  31.991  25.865  0.0397 -0.3170  0.0437
42514W        W61261  25.267  25.043  20.619 -0.1073 -0.1235  0.0988
42515W        W61262   3.219  24.980  18.891 -0.0344  0.3232  0.1824
42516W        W61263  13.610   3.575   8.426 -0.0220 -0.0522 -0.1252
42517W        W61264  30.638  21.729  13.760  0.2090  0.0874 -0.1775
42518W        W61265   5.983  18.230   1.485  0.0449  0.0123 -0.1617
42519W        W61266  33.926   5.372   1.710  0.0916  0.0043 -0.1443
42520W        W61267  32.856   2.914   0.100 -0.3382  0.2576  0.1071
42521W        W61268  25.009   1.188  20.412 -0.0338 -0.0661 -0.1653
42522W        W61269  11.507  22.273   4.002  0.0558  0.0662  0.0607
42523W        W61270  31.731  25.691   9.377  0.3010 -0.1543  0.4054
42524W        W61271  31.388   6.905  10.943  0.1795 -0.1434 -0.0556
42525W        W61272  12.741  12.401   6.204  0.2133  0.0345 -0.2054
42526W        W61273  21.747  10.570   4.846 -0.0754  0.0332  0.1433
42527W        W61274  23.515   7.959  20.905  0.0456 -0.0578 -0.2474
42528W        W61275  30.691  22.198  20.240 -0.0432 -0.2760 -0.2952
42529W        W61276   2.937   9.682   0.787 -0.0497  0.4691 -0.2430
42530W        W61277   4.730   6.118   4.219 -0.2600 -0.0379  0.0009
42531W        W61278  15.773  28.093   3.655  0.0176  0.0864 -0.3089
42532W        W61279  29.049  20.564  15.050 -0.1249 -0.2791 -0.3805
42533W        W61280   9.362  11.220  21.815  0.0774  0.1976 -0.0820
42534W        W61281   8.965  23.654  22.066 -0.2138  0.1440  0.2281
42535W        W61282  15.767  25.099  15.401  0.1149 -0.1558  0.6584
42536W        W61283  14.432   5.375   4.736  0.1415 -0.0681  0.2360
42537W        W61284  21.430  20.319   5.006  0.3922  0.2507 -0.1695
42538W        W61285  18.372  18.277   2.107  0.1743  0.0929  0.4557
42539W        W61286   5.885  17.836  23.169  0.0361 -0.2798 -0.2561
42540W        W61287   6.994  27.135   0.788 -0.4637 -0.3120  0.0355
42541W        W61288  12.020  29.001  15.006  0.1873 -0.3221 -0.1505
42542W        W61289  23.104  33.560  18.517  0.2505 -0.0740 -0.0136
42543W        W61290   6.320   9.073  24.050  0.1820  0.0749 -0.0538
42544W        W61291  16.711  13.655  21.625 -0.0763 -0.1391  0.1808
42545W        W61292  32.895  21.535  26.007 -0.0113  0.0997 -0.2262
42546W        W61293  32.509  24.599  17.970  0.0106 -0.0268  0.1411
42547W        W61294  25.789  33.364   2.603 -0.2706  0.1372 -0.2516
42548W        W61295  19.408  18.208   3.745 -0.0616 -0.3048  0.0475
42549W        W61296   8.455  12.810  25.094  0.1465 -0.3291 -0.1658
42550W        W61297  14.980   8.380  21.564 -0.0017 -0.1905 -0.3156
42551W        W61298  30.299  15.960   8.539  0.1246  0.3250  0.0183
42552W        W61299  29.662   6.640  18.195 -0.0433 -0.0003 -0.1523
42553W        W61300   1.335   2.895   0.286 -0.0999 -0.0454  0.2377
42554W        W61301  24.799  12.889  16.205  0.0021 -0.1319  0.2883
42555W        W61302  22.755  10.468  16.754  0.1281 -0.0362  0.0577
42556W        W61303  30.559   4.272  12.309  0.0326  0.0299  0.2858
42557W        W61304  32.000  35.053  18.205  0.1180 -0.0854 -0.1174
42558W        W61305  15.779   4.614   4.438  0.1034 -0.1271 -0.2562
42559W        W61306  17.686  29.078  11.007  0.0762  0.0486 -0.0820
42560W        W61307  19.160  29.556  25.691  0.0086  0.0540  0.0182
42561W        W61308  17.053  23.352   1.360  0.1326  0.2824 -0.1893
42562W        W61309  17.154  18.040   9.298 -0.0569  0.4620  0.1017
42563W        W61310  28.911   9.556   0.203  0.1195 -0.0016 -0.0199
42564W        W61311  27.803  14.007  17.166 -0.0041 -0.1578 -0.3354
42565W        W61312   2.639   2.668   6.338 -0.1294  0.2568 -0.1080
42566W        W61313  16.654  35.242  19.807 -0.1613 -0.1539 -0.3682
42567W        W61314   6.917  28.278   6.898  0.0082 -0.3494  0.1138
42568W        W61315  18.243  35.037   4.033 -0.4296 -0.2154  0.1376
42569W        W61316  19.939  25.113   3.791  0.2030  0.0516 -0.1729
42570W        W61317  30.175  28.987  11.792  0.2954  0.0054 -0.4073
42571W        W61318  15.651  30.178  20.546  0.1062  0.3402 -0.3955
42572W        W61319  13.257  27.244   7.027 -0.0892 -0.3694 -0.0332
42573W        W61320  32.429   7.099  23.614 -0.0149 -0.1014  0.1472
42574W        W61321  25.269   0.753   4.055  0.1214  0.2733  0.3564
42575W        W61322   9.427  30.521   9.231  0.0450  0.1351  0.2688
42576W        W61323   8.091  15.668   1.242 -0.2317 -0.0646 -0.1991
42577W        W61324  25.204   3.426   3.685  0.3259  0.1321 -0.1232
42578W        W61325  24.911  18.595  25.624  0.0453 -0.1668  0.0656
42579W        W61326  25.296  32.467  19.592  0.0404  0.2140  0.0873
42580W        W61327  34.351  14.518  25.783  0.1329 -0.0534  0.2490
42581W        W61328   5.960  34.844   9.778  0.0319  0.1527 -0.2180
42582W        W61329  31.207  27.955  15.690 -0.1573 -0.2077 -0.0880
42583W        W61330   5.990   3.375  11.306 -0.1308  0.0884 -0.0309
42584W        W61331  25.289  23.744  14.670 -0.2093 -0.0294  0.0830
42585W        W61332  10.756  26.126   1.389  0.1128 -0.0288  0.0157
42586W        W61333  16.657  24.082   7.564 -0.3321 -0.1034  0.3085
42587W        W61334   6.723  11.810   8.377  0.0310 -0.0929  0.2659
42588W        W61335  21.224  28.206   2.768 -0.0701 -0.2886  0.2140
42589W        W61336   3.395   8.575   1.847 -0.4347  0.0316 -0.1485
42590W        W61337  19.743   7.554  19.980 -0.0990  0.1822  0.0366
42591W        W61338  34.120  10.267  21.316 -0.0964 -0.0318 -0.4392
42592W        W61339  34.892  34.240  19.891 -0.0667 -0.0438 -0.1362
42593W        W61340  31.194   4.007  21.175 -0.1185 -0.3823 -0.0366
42594W        W61341   6.390   6.392  25.708  0.1415 -0.0180  0.5470
42595W        W61342  34.133  24.409  19.242  0.2662 -0.1544  0.1221
42596W        W61343   8.956   7.760  14.124  0.1762  0.1125 -0.1795
42597W        W61344  26.904  28.197   9.413  0.0886  0.0445 -0.1843
42598W        W61345  26.463  11.117  15.708 -0.0922  0.3513 -0.0303
42599W        W61346  32.540  17.107  24.715 -0.1029  0.3357 -0.1041
42600W        W61347  24.426  16.730  23.404 -0.0961  0.1218 -0.1674
42601W        W61348  20.403  33.625  14.279 -0.1190  0.1923 -0.1261
42602W        W61349   0.355  27.322   0.373  0.2046  0.0398 -0.1028
42603W        W61350  32.433   1.601  13.097 -0.3029 -0.0050 -0.3013
42604W        W61351  24.606   4.007  14.988  0.1647  0.1807  0.0056
42605W        W61352   1.358  13.219  15.434 -0.0287 -0.0850 -0.2204
42606W        W61353   4.989  12.128   1.687  0.2914 -0.1972  0.0704
42607W        W61354  15.798  18.119   4.181 -0.0752  0.2505 -0.4925
42608W        W61355  35.128  18.346   1.483  0.1891  0.0497 -0.2591
42609W        W61356  28.044   8.092  25.713  0.0517  0.0770  0.0019
42610W        W61357   4.731  17.756   0.939  0.0703  0.0163  0.0747
42611W        W61358   8.491   0.145   5.581 -0.2553  0.0116 -0.2194
42612W        W61359  11.190   6.877   4.537 -0.2306 -0.0765 -0.6201
42613W        W61360  19.198  23.726  22.693  0.2656 -0.4945  0.0279
42614W        W61361  33.153  23.034  17.269 -0.1100 -0.2852 -0.3520
42615W        W61362  27.712   7.426  11.246 -0.1600 -0.2443  0.1999
42616W        W61363  31.763  27.840  13.171 -0.2832  0.1479  0.2921
42617W        W61364   4.302  14.161  22.861 -0.1898 -0.1800  0.2661
42618W        W61365  26.711  10.080  24.773  0.1752 -0.2191 -0.0604
42619W        W61366   4.956  12.393   0.590  0.2549 -0.0591 -0.0530
42620W        W61367  20.974  27.751  14.630 -0.0497 -0.0273 -0.0523
42621W        W61368  22.667  10.735  25.555 -0.0364  0.1277 -0.2862
42622W        W61369  11.457   8.960  11.374  0.4038 -0.0209  0.0134
42623W        W61370  14.321   4.634  18.527 -0.1418  0.1569  0.1018
42624W        W61371  29.738  24.290   8.226 -0.0392 -0.2711 -0.0725
42625W        W61372  25.626   3.137  14.346 -0.2370 -0.1025 -0.0362
42626W        W61373   6.151   2.946  20.619 -0.3075 -0.1158  0.0759
42627W        W61374  22.539  28.364  18.391 -0.2654  0.0652 -0.4078
42628W        W61375  20.464   2.723   5.232 -0.4227 -0.1033  0.0952
42629W        W61376   7.208  18.136   4.491 -0.0578  0.0894 -0.1403
42630W        W61377  29.408  12.243  11.665 -0.0381  0.0086 -0.1767
42631W        W61378   8.998  31.148  15.888  0.1655  0.0256  0.0741
42632W        W61379  10.963  11.376   8.680  0.0831  0.0483 -0.1071
42633W        W61380  17.313   1.017   3.799  0.3547 -0.2771  0.2428
42634W        W61381  15.434  27.627  12.349  0.0054  0.0460 -0.0738
42635W        W61382  14.339  25.742  10.515  0.1274  0.0394 -0.1740
42636W        W61383   3.338  33.598   6.475 -0.0085 -0.1149 -0.1532
42637W        W61384   0.243   9.266  20.088  0.3093  0.0275  0.4687
42638W        W61385  17.670  26.443   0.780  0.2145 -0.0850  0.2001
42639W        W61386  17.029  25.082  21.104 -0.2475 -0.0120  0.2532
42640W        W61387   9.130  25.218   9.805  0.0783  0.3358  0.0105
42641W        W61388   4.000   3.973   0.335  0.1176 -0.1656  0.1091
42642W        W61389  16.557  17.718   4.005 -0.0570 -0.4018  0.0545
42643W        W61390   5.866  14.576  20.747  0.0518  0.1674  0.3000
42644W        W61391   6.981  24.298  23.517 -0.0133 -0.1536  0.1982
42645W        W61392  17.911   6.611  10.544  0.1557 -0.2197  0.2361
42646W        W61393  13.930  34.107   2.712 -0.2655 -0.2718  0.0212
42647W        W61394  23.574   9.431  20.543  0.1859  0.0771  0.1218
42648W        W61395  19.713  28.820  18.542 -0.2754  0.2000 -0.1428
42649W        W61396  27.505  15.107   4.143  0.1044 -0.1982  0.2976
42650W        W61397  10.507  15.575  21.679  0.2129  0.2151 -0.0919
42651W        W61398   5.212   5.640   5.821  0.2632  0.0215 -0.1983
42652W        W61399  26.606  26.682  21.538  0.1482  0.2794 -0.0077
42653W        W61400  24.201  16.233  25.963  0.0294  0.2155 -0.3250
42654W        W61401   9.903  19.375   9.149  0.0272 -0.0384  0.3773
42655W        W61402  14.646  13.300  21.244 -0.1948 -0.0074 -0.0107
42656W        W61403   8.241   9.171  22.421  0.2819 -0.1434  0.1141
42657W        W61404  34.896  20.752  22.228 -0.0055 -0.1188  0.2546
42658W        W61405  19.711  11.734  21.306 -0.0153 -0.2615 -0.4311
42659W        W61406   7.147  18.824   5.273 -0.0759 -0.1061  0.2076
42660W        W61407   9.834   7.949  10.526  0.0262 -0.0182 -0.3141
42661W        W61408   4.791  11.621  18.154 -0.0204  0.2884 -0.0058
42662W        W61409  14.472  11.261  20.675 -0.1263  0.1195  0.1424
42663W        W61410   3.506   2.266   5.337 -0.3548 -0.0402  0.2443
42664W        W61411   3.658  30.007   9.366  0.1560  0.0642 -0.1578
42665W        W61412   6.519   5.201   4.361  0.0683  0.3352 -0.0099
42666W        W61413  35.359  11.402  16.635  0.1141  0.1664  0.2689
42667W        W61414  21.332  17.476  16.789 -0.1914  0.5223 -0.0232
42668W        W61415  17.825  22.124   6.236  0.0947 -0.0351  0.0138
42669W        W61416  14.915   1.069  25.762  0.2229  0.0419  0.2731
42670W        W61417  21.944  29.220  17.383 -0.2266 -0.0769 -0.0676
42671W        W61418  34.402   7.821  23.942 -0.1314  0.1439 -0.0918
42672W        W61419  12.454  15.066  22.499  0.0304 -0.1856  0.0831
42673W        W61420  29.369   3.210  20.515 -0.0586 -0.1080 -0.2610
42674W        W61421  14.433  21.131   8.312 -0.4042 -0.0461  0.0538
42675W        W61422  19.912   2.486  14.653 -0.1730 -0.1424 -0.0378
42676W        W61423  21.731  25.499   4.188 -0.1067  0.1236  0.0831
42677W        W61424  23.934  34.701  21.378  0.0862  0.1723 -0.2583
42678W        W61425  21.894  34.441  13.937 -0.1511 -0.0372  0.3123
42679W        W61426  23.424  12.405  16.536 -0.0946  0.1534  0.1918
42680W        W61427  12.307  10.738   5.023  0.0039 -0.1252  0.1934
42681W        W61428  12.063   7.951  25.054 -0.1073 -0.1167  0.3520
42682W        W61429  13.856  26.506   2.771  0.1852  0.1845 -0.0746
42683W        W61430  11.876  13.073  21.637  0.0105  0.2222  0.0983
42684W        W61431  17.632  12.701   2.213  0.2068  0.2885 -0.0599
42685W        W61432   0.968   2.853  15.842  0.0708 -0.0078 -0.3231
42686W        W61433  35.238  14.999  13.299  0.0666 -0.0476 -0.2555
42687W        W61434  14.294   9.253  10.907 -0.0082 -0.1142  0.1633
42688W        W61435  13.660  14.848  12.708  0.0696 -0.2299  0.1107
42689W        W61436  14.274  23.036   6.065 -0.0772  0.1528 -0.0811
42690W        W61437  17.792  28.348  22.394  0.0164 -0.1331  0.0255
42691W        W61438  23.239  19.336  24.833  0.0564 -0.2961 -0.1317
42692W        W61439   3.793  27.784   1.348 -0.2510  0.2274 -0.1355
42693W        W61440  27.917  23.634   0.178 -0.0979 -0.1155  0.1600
42694W        W61441  16.625   1.698   4.169 -0.1137 -0.2839 -0.1460
42695W        W61442  27.916   4.409  20.913  0.0909 -0.0220  0.1395
42696W        W61443  33.108  21.540  10.901 -0.1351  0.0931 -0.0351
42697W        W61444  21.144  21.919   1.893 -0.0695  0.0310  0.1928
42698W        W61445   7.704  21.153  26.076  0.2387  0.0006  0.0795
42699W        W61446  32.393  17.143  24.222 -0.1304 -0.4442  0.1718
42700W        W61447   7.419  32.859   0.925  0.1731  0.1742  0.0587
42701W        W61448  22.432  16.790  21.707  0.0350 -0.1414 -0.1211
42702W        W61449  16.944   9.151  23.570 -0.1636  0.1301 -0.1879
42703W        W61450   8.110   8.011  24.722  0.1377  0.2402  0.0672
42704W        W61451  35.014  18.241  15.083  0.2846  0.0539  0.1569
42705W        W61452   4.656   7.599  20.541 -0.1460  0.0071  0.1347
42706W        W61453  30.105  13.074  25.015  0.2627  0.1311 -0.0480
42707W        W61454   3.081  29.094  25.988 -0.2627  0.0812  0.1944
42708W        W61455  27.217   4.810  17.410  0.2124 -0.1054 -0.1146
42709W        W61456   3.832   0.235  24.796 -0.0285 -0.1860  0.2271
42710W        W61457   6.161   6.381   3.523 -0.0655 -0.0324  0.0991
42711W        W61458   1.092  12.701  18.349 -0.4396 -0.1283 -0.2440
42712W        W61459   0.815   5.004  17.388 -0.1226  0.1111  0.0718
42713W        W61460  21.175  34.168  19.206 -0.2345 -0.1679  0.2515
42714W        W61461  10.858  22.880   0.703  0.1684 -0.1044 -0.1282
42715W        W61462  12.282  32.811   1.549  0.3352  0.1016 -0.1475
42716W        W61463  26.363  27.742  24.991  0.0103 -0.0489  0.0505
42717W        W61464  29.461  15.109   8.183 -0.0193  0.1409  0.1270
42718W        W61465  34.639   9.043   1.894 -0.1712  0.0808  0.5568
42719W        W61466  10.401  13.940  22.966  0.1155  0.1099  0.0275
42720W        W61467  15.220  18.404   0.883 -0.0252 -0.0520 -0.1093
42721W        W61468  16.424   7.311  26.251 -0.2034  0.1875 -0.1198
42722W        W61469   6.510   9.995   8.784 -0.1013 -0.3028 -0.4407
42723W        W61470  32.972  14.303  13.702 -0.0284  0.2008 -0.1532
42724W        W61471   2.135  27.143  20.878  0.0583 -0.0080  0.2934
42725W        W61472  25.460  14.236   0.796  0.0362  0.0945  0.4228
42726W        W61473  20.047   1.827   8.862 -0.1836 -0.0559  0.1123
42727W        W61474   1.018  25.825  18.619 -0.2395 -0.0983  0.2167
42728W        W61475  15.829  32.498   3.488 -0.0363 -0.1444 -0.0180
42729W        W61476  13.572   9.019  21.048 -0.0659  0.1776  0.3293
42730W        W61477   7.354   0.308   3.838  0.2119  0.1864 -0.0363
42731W        W61478  34.886  27.549  24.835 -0.0264 -0.0224  0.0331
42732W        W61479  33.576  34.247   6.341  0.0322  0.3402  0.0347
42733W        W61480   4.939  15.986   1.827 -0.3088 -0.1782 -0.0704
42734W        W61481   8.523   9.445   0.405  0.3223 -0.3839 -0.1622
42735W        W61482   5.173  34.250  13.537  0.0442  0.3721 -0.0377
42736W        W61483  30.278  20.793  20.422 -0.0508  0.3004  0.0652
42737W        W61484  17.285  33.900   2.846  0.2471 -0.0110  0.1494
42738W        W61485   6.519  31.796  25.526  0.2092 -0.0391 -0.0199
42739W        W61486  34.059  33.482  18.230 -0.4539 -0.4118 -0.1119
42740W        W61487  12.827  33.617   7.973 -0.1540 -0.3445  0.2463
42741W        W61488   1.471   5.488  24.453 -0.1698  0.1424  0.1210
42742W        W61489  18.819  15.257   8.915  0.1514 -0.0400 -0.3705
42743W        W61490  16.271  19.136   0.879 -0.0204  0.0428  0.1734
42744W        W61491  30.485  17.590  16.646  0.2030 -0.0383  0.3033
42745W        W61492  13.863  11.980  10.647 -0.0917  0.0664  0.2644
42746W        W61493  13.866   0.453   6.689 -0.1632  0.2162  0.0749
42747W        W61494  32.661  11.220   9.979 -0.1809 -0.3735  0.1122
42748W        W61495  10.874  25.147  23.768  0.1423 -0.0228  0.2249
42749W        W61496  12.239   1.916   6.390 -0.0409  0.0228  0.0483
42750W        W61497   5.348  15.565  16.168 -0.3227  0.0440 -0.0311
42751W        W61498  13.187  28.145  10.298  0.2466  0.2229 -0.0249
42752W        W61499  19.394   9.692   8.047  0.4163 -0.2199 -0.2077
42753W        W61500  26.448  27.476  25.746 -0.0159  0.1178  0.0316
42754W        W61501  21.774  32.254  20.648  0.0288 -0.2268 -0.0830
42755W        W61502  15.905  16.646   7.996 -0.0504 -0.1228  0.1219
42756W        W61503   2.252  20.529  23.932  0.5240 -0.2577 -0.0482
42757W        W61504   3.080   6.158  18.621  0.1273  0.3688  0.3601
42758W        W61505   9.512  25.583   0.914 -0.0516  0.1754  0.0162
42759W        W61506   8.072   0.010  21.367  0.1560 -0.0016 -0.1160
42760W        W61507  34.152  23.031  24.257 -0.1779  0.0618  0.0607
42761W        W61508  16.232  28.852  10.160  0.0071 -0.2385  0.1554
42762W        W61509  22.525  25.905  20.155 -0.1146 -0.0093 -0.0073
42763W        W61510   8.639  25.780   0.812 -0.1090  0.2211  0.0143
42764W        W61511   6.275  34.982   1.839 -0.0269 -0.0780  0.4570
42765W        W61512   4.360   7.186   3.664 -0.1239 -0.3034 -0.1611
42766W        W61513  12.047   8.768   4.481  0.3772 -0.1101 -0.1712
42767W        W61514   5.899  27.383   1.268 -0.2144  0.0412  0.1017
42768W        W61515  19.264   9.396   4.352  0.4875 -0.0088 -0.1446
42769W        W61516   6.816   6.542  13.370 -0.0591  0.1517  0.0003
42770W        W61517  14.701   0.629  21.999  0.4009  0.1724 -0.0150
42771W        W61518  16.273  32.080   2.199  0.1619  0.1260  0.2316
42772W        W61519   1.635  26.569  17.993  0.2377  0.0752 -0.1487
42773W        W61520  34.200  24.589  17.353 -0.2351  0.0849 -0.4070
42774W        W61521  27.118  13.456  23.935 -0.0027 -0.1043 -0.2037
42775W        W61522  11.963  28.313  14.613  0.1922  0.0601 -0.0391
42776W        W61523  13.159  33.871  25.522 -0.0432  0.0699  0.0233
42777W        W61524  26.037  12.100  16.502  0.5248 -0.2734 -0.0704
42778W        W61525  10.898  15.171   6.974  0.2722  0.1851  0.0945
42779W        W61526  34.174  33.676  16.110  0.0899 -0.0720 -0.0230
42780W        W61527  23.967   2.193  25.277 -0.0723 -0.0571 -0.1401
42781W        W61528   0.023  23.689  25.577 -0.0239 -0.2334  0.0900
42782W        W61529  34.373   4.400  17.475 -0.4537  0.1833  0.2013
42783W        W61530  17.605  18.966  19.439  0.2711 -0.0158 -0.0626
42784W        W61531  26.184  30.810   3.408 -0.0788  0.1769  0.1607
42785W        W61532  10.425   7.454  11.948 -0.3097 -0.2190  0.2159
42786W        W61533  33.726  19.084  18.026  0.0114  0.0476 -0.2178
42787W        W61534  31.295   5.359  14.012 -0.0973  0.3011  0.0092
42788W        W61535  11.120  17.908  22.012 -0.4149 -0.0850  0.1016
42789W        W61536  17.290  31.960  17.130  0.0036  0.0890 -0.1344
42790W        W61537   9.427  11.462   9.312  0.2131  0.0521  0.1127
42791W        W61538  29.934   7.930  10.270  0.1675 -0.2659  0.1828
42792W        W61539   5.765  12.590  18.584  0.2897  0.5342 -0.1818
42793W        W61540  32.074  22.747  16.317 -0.1646  0.0423 -0.4570
42794W        W61541  30.616  15.526  15.270  0.1329  0.1591 -0.1532
42795W        W61542  31.642  17.508  23.841  0.0518 -0.1519  0.2907
42796W        W61543  13.138  17.020  23.385 -0.1205  0.0658 -0.0586
42797W        W61544  25.596  28.268  11.087  0.4281  0.0451  0.1363
42798W        W61545  26.880  12.692  11.110 -0.1339 -0.4736  0.2531
42799W        W61546  13.096   3.257   6.365  0.1167  0.3790 -0.0111
42800W        W61547  32.414  14.963   6.836  0.0848 -0.2325 -0.1653
42801W        W61548  29.343  30.794  18.259 -0.0056  0.0654  0.0032
42802W        W61549   0.213  16.353   8.365  0.1749 -0.1773  0.0864
42803W        W61550  23.828  34.224  16.593  0.0008 -0.0577 -0.0778
42804W        W61551   9.532   2.021  14.199 -0.0766 -0.1508 -0.2893
42805W        W61552  16.898  16.038  23.030 -0.1510  0.0029  0.1386
42806W        W61553  25.056  11.479  17.148  0.2759  0.0456 -0.2122
42807W        W61554  31.493   6.572  25.735  0.1177 -0.2213 -0.0106
42808W        W61555   4.000   6.288   5.289  0.2048 -0.0872 -0.0972
42809W        W61556  30.198   4.697  14.015  0.1907  0.0232  0.0572
42810W        W61557  21.585   6.263   2.329 -0.1279  0.0920 -0.1020
42811W        W61558  17.310  10.406   8.615 -0.2044 -0.2229 -0.0125
42812W        W61559  14.663  23.615  23.690 -0.0330  0.0408  0.1892
42813W        W61560  28.004   3.560  23.633 -0.4522 -0.1894 -0.0497
42814W        W61561  34.176  33.145  23.164 -0.0914  0.1445  0.2577
42815W        W61562  21.228  20.067  25.684 -0.0193  0.2405  0.2022
42816W        W61563  19.844  28.941  17.938  0.1998 -0.3881 -0.1847
42817W        W61564  22.988  18.919  19.854 -0.2235  0.0644 -0.1612
42818W        W61565   8.215  12.141   7.396  0.2478  0.1841  0.2613
42819W        W61566  14.454   0.711   7.480 -0.0343 -0.0039  0.1234
42820W        W61567  24.681  32.295  15.313 -0.2144  0.0885 -0.1310
42821W        W61568  30.828   3.571  18.782 -0.1416  0.2888 -0.2574
42822W        W61569  29.089   7.258  20.129  0.1433  0.0387  0.0030
42823W        W61570  19.407  34.098   4.127 -0.1001 -0.3958 -0.1516
42824W        W61571   0.031  25.386   2.000 -0.2176  0.0844  0.0087
42825W        W61572  26.307   1.627  21.606 -0.2120 -0.1525 -0.1966
42826W        W61573   1.266   5.569  15.198 -0.2028 -0.2855 -0.3276
42827W        W61574   5.074  35.317  26.175 -0.1421 -0.0531 -0.0774
42828W        W61575  21.676   9.645   7.299 -0.2134 -0.1583 -0.1460
42829W        W61576  32.670   0.961   3.695  0.3536 -0.3704 -0.3238
42830W        W61577  17.728  33.217  26.165 -0.1755 -0.1827  0.1762
42831W        W61578  12.807  22.613   6.277 -0.2341  0.0814  0.0401
42832W        W61579   8.431  19.745  13.282 -0.0419 -0.2252  0.1904
42833W        W61580  25.546  34.327  13.421 -0.2227 -0.0844 -0.1031
42834W        W61581   3.125   3.025   3.614 -0.0254  0.1058  0.1794
42835W        W61582  30.473  11.979  16.461 -0.0579 -0.4434  0.0528
42836W        W61583  27.522   8.259   1.942  0.1193 -0.1116 -0.0882
42837W        W61584  19.555   7.089   2.653  0.3517 -0.0751  0.0414
42838W        W61585  13.322   2.525  25.554  0.3522  0.1268 -0.1470
42839W        W61586  14.282  14.484  25.521 -0.0822  0.2167 -0.1357
42840W        W61587   5.256  35.052  19.679  0.1978  0.1039 -0.2803
42841W        W61588   1.702  27.359  20.731  0.1483 -0.1555  0.0780
42842W        W61589  15.092   4.598   1.408  0.1979 -0.3768  0.0304
42843W        W61590  24.303   1.902   6.843 -0.2547  0.2458  0.0931
42844W        W61591   5.587  18.371  24.827 -0.0274 -0.1599  0.0626
42845W        W61592  15.004  25.628   2.900 -0.1250  0.0589 -0.0781
42846W        W61593  15.976  30.665   4.142 -0.0300 -0.0540 -0.0682
42847W        W61594  30.497  13.801  12.996 -0.3869 -0.1271  0.2201
42848W        W61595   1.279  17.534  18.248 -0.0297 -0.0955  0.1314
42849W        W61596  31.319  28.345  23.619 -0.1236  0.0789 -0.0203
42850W        W61597  12.416   2.578   8.862 -0.0559 -0.0245 -0.0638
42851W        W61598  29.569   5.521  11.144 -0.3112  0.0943  0.2050
42852W        W61599   5.120  31.000  25.306 -0.3206  0.1685 -0.0503
42853W        W61600  32.615   2.413  26.186  0.0456  0.0752 -0.2282
42854W        W61601   8.095   1.897  10.408 -0.0919  0.4297 -0.0047
42855W        W61602  28.754   3.122   5.283 -0.2577  0.1044 -0.0109
42856W        W61603   9.007  22.253   6.356 -0.1230  0.0268 -0.0915
42857W        W61604  28.804  19.173   4.847 -0.3067 -0.1552 -0.2016
42858W        W61605   1.180   7.286   2.611 -0.3299  0.1186 -0.1501
42859W        W61606  14.338  34.624  25.211 -0.0819  0.1703  0.0746
42860W        W61607  20.218  14.485  16.543 -0.2057 -0.0604 -0.0101
42861W        W61608  13.877  23.869   0.982  0.1075 -0.3583 -0.1686
42862W        W61609  28.675  16.536  16.279 -0.0592  0.0105  0.1713
42863W        W61610   9.813  14.463   6.288  0.0485  0.1460 -0.2547
42864W        W61611  18.279  18.355   1.377  0.0998 -0.1794  0.0515
42865W        W61612  35.287  27.576  17.926 -0.1400  0.2053 -0.2231
42866W        W61613   3.782  27.879   5.930  0.2102  0.2345 -0.3046
42867W        W61614  14.250  22.031   0.101  0.0402 -0.2344 -0.3232
42868W        W61615  27.796   2.521   5.245  0.2239 -0.0384  0.1570
42869W        W61616   7.785   0.483  14.369 -0.2729 -0.1306 -0.0408
42870W        W61617  28.799  20.519   6.270 -0.1940 -0.2086 -0.1212
42871W        W61618  21.862   6.297   4.397  0.0493 -0.0179 -0.0683
42872W        W61619  15.712  12.653  25.026 -0.0480 -0.3788  0.2402
42873W        W61620  34.973  20.747  23.184 -0.1476  0.5960 -0.0554
42874W        W61621  17.275  27.622   2.975  0.0302 -0.4270 -0.3060
42875W        W61622  32.516  25.968  21.226  0.0530 -0.1092 -0.1866
42876W        W61623  29.049  35.091  21.470  0.1255  0.0882 -0.4602
42877W        W61624   6.256  12.662   6.368  0.0540 -0.1618 -0.0977
42878W        W61625  19.373   0.467   2.969 -0.1923  0.0432  0.2851
42879W        W61626  15.142   5.798   5.393  0.0714  0.1352  0.1384
42880W        W61627  23.153  27.933  23.650  0.0948  0.1411  0.1640
42881W        W61628  27.630  32.277  19.441 -0.3031 -0.1990  0.0076
42882W        W61629  10.331  18.531  22.812 -0.1806 -0.3127  0.3864
42883W        W61630  16.000  28.061   7.768  0.0016 -0.1440  0.0089
42884W        W61631  14.714   8.053  21.187  0.1588 -0.1422  0.2286
42885W        W61632   7.552  20.531  22.015  0.0724  0.2407 -0.0275
42886W        W61633  10.689  31.326  16.549  0.2136  0.3343 -0.3650
42887W        W61634  22.251  21.775   0.901  0.0206  0.0880  0.0856
42888W        W61635   7.204  12.940   7.029 -0.2156 -0.1029 -0.3655
42889W        W61636   0.269  17.502  25.546  0.0839 -0.0389  0.0779
42890W        W61637  22.885   5.196  23.978 -0.0163 -0.0098  0.1037
42891W        W61638   8.428   3.086   0.636  0.0561  0.2286 -0.1893
42892W        W61639  25.439  17.650  15.838  0.0810  0.0281 -0.1100
42893W        W61640  30.926   9.355   0.921 -0.1281  0.1501  0.1960
42894W        W61641  19.390  34.100  24.031 -0.1909  0.0344  0.1637
42895W        W61642   8.384  25.910  14.902 -0.2930  0.0306  0.0437
42896W        W61643  32.537  23.169  23.358 -0.3121  0.1169 -0.2007
42897W        W61644  15.988   0.080   3.670 -0.1885  0.1096 -0.0195
42898W        W61645   8.253  16.102  22.445 -0.0034 -0.2649 -0.3166
42899W        W61646  16.841  25.113  25.330  0.2310  0.0902 -0.1920
42900W        W61647  31.609  18.419   4.569  0.2082 -0.0225  0.0494
42901W        W61648  17.153  14.373  24.868 -0.0032 -0.1718  0.0873
42902W        W61649  18.433  17.945   1.646  0.0945 -0.0889 -0.2141
42903W        W61650  25.197   0.491   5.378  0.1071  0.1091 -0.3023
42904W        W61651  30.715  28.217  23.347  0.1090  0.2432 -0.1059
42905W        W61652  10.288   8.136  23.701 -0.0446 -0.0498 -0.0396
42906W        W61653   9.034  34.013   2.644 -0.0959  0.1870 -0.1011
42907W        W61654  26.651  22.033  22.651 -0.1542 -0.1179  0.2114
42908W        W61655  26.164  32.147   4.980 -0.2546 -0.0755 -0.2081
42909W        W61656  22.794  28.603  12.631  0.0675 -0.1132 -0.0190
42910W        W61657  28.636  15.433   4.177 -0.2595  0.0496 -0.3265
42911W        W61658  16.678  22.498  12.238 -0.2277  0.0755  0.1433
42912W        W61659  22.010  22.410  21.273  0.0852  0.1664  0.0618
42913W        W61660  30.370  13.853  19.896  0.0670  0.0993  0.0696
42914W        W61661   7.687   0.666  24.716 -0.3973 -0.1289  0.2685
42915W        W61662  31.767  17.192  17.109 -0.4137  0.3085 -0.2176
42916W        W61663  17.871  11.051   0.585 -0.1763  0.1279  0.1212
42917W        W61664  13.511  23.498   1.842 -0.1827 -0.0706 -0.3221
42918W        W61665   7.752   5.312  20.209  0.0407  0.0245 -0.1061
42919W        W61666  30.836  33.014  17.625  0.0788  0.3124 -0.1231
42920W        W61667   9.775   3.634  21.012  0.0826  0.1088  0.2468
42921W        W61668  31.719  18.914  13.448 -0.0884  0.0159 -0.1836
42922W        W61669  35.012   2.908   2.585 -0.2402  0.2872 -0.1615
42923W        W61670  20.810   1.523  25.963  0.0838 -0.0558 -0.0388
42924W        W61671  14.149  24.338  10.660  0.1685  0.0385 -0.1200
42925W        W61672  10.977   9.243  12.371 -0.2678 -0.2350 -0.1357
42926W        W61673  18.409   2.252  22.115 -0.1711  0.1860 -0.1725
42927W        W61674   1.048  23.178  22.754 -0.1454 -0.0247  0.0273
42928W        W61675  21.733  30.869   1.260 -0.0803  0.1702 -0.1200
42929W        W61676  28.278   7.642   2.323 -0.0839 -0.1059 -0.0804
42930W        W61677  25.311  13.286  20.756 -0.0190 -0.0025  0.1928
42931W        W61678   5.938   2.993   8.255  0.2384  0.1946  0.0267
42932W        W61679  26.866  29.925  21.529 -0.0570 -0.2550  0.2863
42933W        W61680  20.506  24.149  19.680  0.0864 -0.1582  0.4208
42934W        W61681   7.094   6.786   0.807  0.0045 -0.1353 -0.0016
42935W        W61682  30.774   0.572  16.319  0.0310 -0.0476 -0.1328
42936W        W61683  31.090  21.145   5.143  0.3936 -0.4650 -0.0233
42937W        W61684  33.297  34.189  24.778 -0.2544 -0.1184  0.2486
42938W        W61685   7.285   9.132   1.890  0.1582  0.1723 -0.0157
42939W        W61686   5.125  24.752   1.688 -0.4400  0.2325 -0.0342
42940W        W61687  31.649  31.793  20.384 -0.1506  0.2498 -0.1300
42941W        W61688  34.671   2.642   2.339 -0.0779 -0.0737 -0.0767
42942W        W61689  32.311  27.779  24.863 -0.1337 -0.1175 -0.0228
42943W        W61690  14.433   2.216   5.115 -0.2434 -0.1348  0.2614
42944W        W61691  20.997  33.168   7.685 -0.3577  0.0333  0.2875
42945W        W61692  29.237  21.065  17.123  0.2071 -0.1387  0.2179
42946W        W61693   4.016  26.578  26.107  0.0708 -0.2170 -0.3696
42947W        W61694  11.342  24.427  15.051 -0.3380 -0.2451 -0.0059
42948W        W61695   2.869  17.383   2.093  0.0757  0.2410  0.2356
42949W        W61696  27.831  11.650   0.345 -0.0915 -0.0742  0.1984
42950W        W61697  33.030  31.428  15.564  0.2742 -0.0180 -0.0693
42951W        W61698   3.766  16.046   4.210  0.0303 -0.1141 -0.3078
42952W        W61699  13.377  19.005   9.871  0.2860 -0.0381  0.1313
42953W        W61700   1.290  19.901  17.462 -0.0086  0.1751  0.1888
42954W        W61701  11.799  13.783  22.481 -0.2041 -0.3112  0.0898
42955W        W61702  19.211   8.110  17.003 -0.1994  0.0889 -0.2617
42956W        W61703   7.668  16.403   2.683  0.0782  0.3104  0.2731
42957W        W61704  34.977   0.897   7.577  0.0403  0.0853 -0.2829
42958W        W61705  15.503  34.339  22.617 -0.1682  0.0472  0.2677
42959W        W61706  12.616  29.471  13.338  0.2644 -0.3574  0.1422
42960W        W61707   6.680  32.565  12.056 -0.1000  0.0826  0.0428
42961W        W61708  10.893  22.630  24.165  0.1870  0.3916  0.2634
42962W        W61709   7.280  11.126   7.650 -0.1670  0.0624 -0.0174
42963W        W61710   6.767   9.807   5.216  0.0100 -0.0710  0.3925
42964W        W61711  24.672  34.227  16.202 -0.0108  0.2866 -0.1570
42965W        W61712  28.352  24.375  24.555 -0.0174  0.2533 -0.3298
42966W        W61713   9.865  33.037  22.767 -0.0993  0.0222  0.0629
42967W        W61714  14.027  28.311  24.635  0.0939 -0.1995 -0.0756
42968W        W61715  11.287  12.350  19.435 -0.1059  0.1694 -0.2477
42969W        W61716  21.049   2.832  22.982  0.0415  0.0927 -0.0428
42970W        W61717   6.199   5.907   4.760  0.4860 -0.1799  0.3440
42971W        W61718  20.607  35.369   0.398  0.2430 -0.0069  0.1226
42972W        W61719   4.474  27.746  19.536 -0.1197 -0.2039 -0.0138
42973W        W61720  20.315  22.865   5.130 -0.1822 -0.4161 -0.0096
42974W        W61721  30.294   0.968  19.906 -0.1313 -0.0836  0.2490
42975W        W61722  15.093  11.578  13.825  0.2072  0.3317 -0.2674
42976W        W61723  29.058  18.321   6.036  0.4075 -0.0861 -0.1792
42977W        W61724  19.617  16.547  22.765  0.2550  0.0259  0.0654
42978W        W61725   6.120  21.350  26.241 -0.3153  0.0853  0.1881
42979W        W61726  31.906   2.274  19.980 -0.0572  0.1012 -0.3393
42980W        W61727   6.566  16.854  24.604 -0.3434  0.3140  0.3148
42981W        W61728  21.923  14.710  25.535  0.1014  0.2174 -0.1537
42982W        W61729  15.694  30.591  25.334 -0.1190  0.2585  0.2820
42983W        W61730  21.738  27.697   4.188 -0.0992 -0.1631 -0.2873
42984W        W61731   2.708  20.933  20.049 -0.1703  0.0562  0.2219
42985W        W61732  24.259   4.941  15.644  0.0261 -0.1500  0.0218
42986W        W61733  15.779   7.887  18.558 -0.0972 -0.1980  0.0535
42987W        W61734  22.070  13.397  15.558 -0.1405  0.2566  0.0102
42988W        W61735  22.408   9.208   0.261 -0.0045 -0.2274  0.0357
42989W        W61736  31.257  21.902   7.097  0.3045  0.1153 -0.1385
42990W        W61737  28.366  28.430   4.018  0.0238  0.0947 -0.0926
42991W        W61738  29.487  25.362  22.271 -0.0392 -0.2085 -0.0901
42992W        W61739  15.374  19.199   7.017  0.1969  0.0425 -0.1449
42993W        W61740   8.547  25.977  25.626 -0.0966  0.0265  0.0519
42994W        W61741  13.090   2.749  18.369  0.0693  0.0613  0.1136
42995W        W61742  10.493  30.203  14.484  0.1237 -0.1158 -0.2387
42996W        W61743  10.819   7.290  11.354 -0.0722 -0.0891  0.0154
42997W        W61744  24.873  12.447  11.994  0.1089 -0.0969 -0.1478
42998W        W61745   1.574  25.236   5.894  0.0483  0.0776 -0.1107
42999W        W61746  13.324  15.270   5.213 -0.1036 -0.2443 -0.2642
43000W        W61747  31.949  25.982   0.860  0.0409 -0.1093 -0.1102
43001W        W61748  31.167  25.439  26.210  0.1726  0.0872 -0.3298
43002W        W61749  28.919  21.661  15.132 -0.5034 -0.2044 -0.0506
43003W        W61750  16.264  16.777  18.847  0.1349 -0.0310  0.3101
43004W        W61751  24.730  27.475  22.159  0.2753 -0.1231 -0.1442
43005W        W61752   7.067   4.768  25.954 -0.0647  0.2701  0.5027
43006W        W61753  30.907  30.453  11.529  0.1915 -0.0662 -0.2110
43007W        W61754   4.106   3.472   9.365  0.2299 -0.1884  0.0625
43008W        W61755  22.073  34.845  23.087 -0.1326 -0.1877  0.1214
43009W        W61756  23.766   3.306  13.293 -0.1681  0.1421 -0.1281
43010W        W61757   6.909  23.531   0.460  0.2574  0.1688 -0.2299
43011W        W61758  32.636  21.692  17.921 -0.2551  0.0398 -0.0221
43012W        W61759  11.109  23.901  18.554 -0.0222  0.0614  0.3098
43013W        W61760  22.942   1.193  13.436  0.0389 -0.1486 -0.3829
43014W        W61761  28.311  25.214  25.438 -0.1568 -0.2222  0.0607
43015W        W61762   4.034   8.766   6.938 -0.2513  0.0691 -0.2028
43016W        W61763  15.006  30.585   1.460 -0.0826 -0.1848  0.1277
43017W        W61764   8.138  19.001  19.850  0.2846  0.1498  0.1799
43018W        W61765  22.816   1.820  20.504  0.1012  0.2819 -0.2268
43019W        W61766   7.434  29.274  15.983 -0.2054  0.0083 -0.4409
43020W        W61767  23.275  30.521   2.265  0.1857 -0.0501 -0.2093
43021W        W61768  34.596  27.449  25.834 -0.0907  0.0652 -0.1047
43022W        W61769  16.947  12.434   1.045 -0.2610  0.2641 -0.3244
43023W        W61770   1.606  31.110  20.172  0.2126  0.1381 -0.3500
43024W        W61771  26.723   1.643  23.671  0.2630 -0.2594  0.1541
43025W        W61772   0.934  11.325  22.783  0.0162  0.0378 -0.0127
43026W        W61773  14.029  23.145   4.843 -0.0619  0.2265  0.1730
43027W        W61774   7.172  11.087   3.215  0.0741 -0.0848  0.0997
43028W        W61775  22.786  29.493  24.904 -0.6605 -0.1201  0.1307
43029W        W61776  10.891  32.297   1.501  0.0507 -0.1393 -0.0726
43030W        W61777  28.554  17.554  19.621  0.0754  0.0413 -0.2575
43031W        W61778   3.663  12.992  15.961 -0.1677 -0.4762  0.0212
43032W        W61779  13.808  17.558   7.816 -0.1412 -0.0478 -0.0205
43033W        W61780   1.540  28.076  20.015  0.1632 -0.1748  0.3121
43034W        W61781   9.303  19.296  22.071  0.3351  0.0107 -0.1295
43035W        W61782   8.743  11.229  12.404 -0.0992 -0.0438  0.0042
43036W        W61783  26.342   0.017   1.087 -0.0250  0.0029 -0.1675
43037W        W61784  14.831  27.795  15.569 -0.0606  0.1875  0.0528
43038W        W61785  29.612  13.753  10.378  0.1331 -0.2573  0.1528
43039W        W61786  21.230  23.221  17.410 -0.3432  0.1799  0.0388
43040W        W61787  13.793   8.970   3.598 -0.2355 -0.2579 -0.0324
43041W        W61788  13.639   6.338   0.194  0.2988  0.4304  0.0152
43042W        W61789  22.388   2.797   6.586 -0.0375  0.3831  0.0391
43043W        W61790   8.889  27.932  12.671 -0.0817 -0.0507  0.0708
43044W        W61791  24.169   9.033  14.156 -0.0784 -0.0791 -0.1175
43045W        W61792   8.603  15.212  12.119  0.0075 -0.0778  0.2234
43046W        W61793  34.077   7.134  22.634  0.1225 -0.1213  0.1849
43047W        W61794   9.966  34.686   2.450  0.5541  0.1809  0.0148
43048W        W61795  17.755  24.779   0.398  0.3284  0.1660 -0.0700
43049W        W61796  27.719  28.677  17.502  0.1910 -0.1735  0.2958
43050W        W61797  14.825   8.534   6.224 -0.4102  0.0122  0.1246
43051W        W61798  27.278  14.221   9.784  0.0520  0.1991  0.0655
43052W        W61799  33.415  23.199  23.155  0.1993  0.0293  0.2969
43053W        W61800   7.022   1.114  26.122 -0.0142  0.0574  0.0339
43054W        W61801  32.598  10.328  13.007 -0.1674  0.0150  0.1361
43055W        W61802   9.777  10.730   7.755 -0.0011 -0.0242  0.2852
43056W        W61803  23.342  26.002  20.105 -0.2760  0.0647  0.1699
43057W        W61804  13.968  20.656  10.007 -0.3573 -0.2339 -0.1469
43058W        W61805  30.456  29.655  23.809 -0.1019 -0.1865 -0.0079
43059W        W61806  16.603  23.980   9.322  0.2133 -0.3507 -0.2674
43060W        W61807  17.141   2.261   7.951 -0.2515 -0.1367 -0.1137
43061W        W61808  12.376  29.854   2.899  0.3141  0.0717 -0.0057
43062W        W61809   9.435  15.718  19.718  0.0899  0.1327 -0.3018
43063W        W61810  28.754  31.687   3.100 -0.1868 -0.2205  0.2461
43064W        W61811  14.361  23.434  24.053  0.3790 -0.5441  0.0704
43065W        W61812  10.334   8.715   9.383  0.1827 -0.0041  0.0426
43066W        W61813   9.471  16.640  13.112 -0.1532  0.1299  0.1391
43067W        W61814  26.579  25.013   0.163 -0.2086  0.2918  0.1139
43068W        W61815  33.822  13.020  14.129  0.0924  0.1844 -0.1122
43069W        W61816  29.387  19.048  17.904 -0.0325  0.0064 -0.2068
43070W        W61817  13.573  27.198   0.020 -0.2123  0.0878 -0.1588
43071W        W61818  11.870   8.339  13.271 -0.2301 -0.0783  0.2602
43072W        W61819   0.690   9.018  17.545 -0.1083  0.1290  0.0000
43073W        W61820  11.722  14.854   5.941 -0.0467  0.1961  0.1881
43074W        W61821  21.964  20.057  20.867 -0.0841  0.1820 -0.1557
43075W        W61822  17.182  12.342  23.608 -0.2742 -0.1453  0.2108
43076W        W61823  23.212  21.445   1.417  0.0232  0.1650  0.2547
43077W        W61824  20.625   4.237  25.908  0.0324 -0.0082 -0.1439
43078W        W61825  33.347  10.685  25.980  0.2584  0.1181  0.3833
43079W        W61826   1.833  21.915  12.701  0.1883 -0.0122  0.0746
43080W        W61827   5.039   1.383  21.549  0.2336 -0.1929 -0.3683
43081W        W61828  29.210  10.458  20.331 -0.0092 -0.1373 -0.1342
43082W        W61829  28.000  10.477  16.891 -0.0665  0.1236 -0.3579
43083W        W61830  26.003  17.088  10.273 -0.1360 -0.1642 -0.1569
43084W        W61831   0.238  23.978  22.744  0.0603  0.3338 -0.1041
43085W        W61832   7.275  11.740  24.059  0.0314  0.1632  0.1213
43086W        W61833   2.946  26.953   4.595 -0.0342 -0.0462 -0.1060
43087W        W61834  27.342  14.794  13.640 -0.2335 -0.0717  0.0714
43088W        W61835   5.873   1.587  26.223  0.2079  0.1481  0.1749
43089W        W61836   0.684  11.547  20.185  0.3695  0.1616  0.0267
43090W        W61837  17.067   1.624   3.172 -0.3714  0.0985  0.1308
43091W        W61838  10.319  33.909   9.317  0.2857 -0.1205 -0.0364
43092W        W61839  31.980  31.520  25.269 -0.0447  0.0240 -0.0127
43093W        W61840  27.723  32.446  18.897  0.0842  0.2063 -0.2515
43094W        W61841  34.720  26.380  25.888 -0.1045 -0.2030 -0.2704
43095W        W61842  12.355  17.518   4.618  0.0718  0.1500  0.0387
43096W        W61843  31.393  11.903   7.096 -0.0412 -0.1943 -0.2023
43097W        W61844  33.447  15.476  13.646  0.0063 -0.1181 -0.0097
43098W        W61845  13.945  18.017   4.254  0.0605 -0.2546 -0.0026
43099W        W61846  26.940  22.881  20.624  0.2058  0.1643  0.1286
43100W        W61847  28.216   9.833   9.669 -0.1188  0.1771 -0.3574
43101W        W61848   0.276  28.777  15.488  0.4128  0.2347  0.1945
43102W        W61849  18.931  24.137   7.678 -0.0874 -0.3122 -0.0183
43103W        W61850   7.367  15.528   4.367 -0.0860 -0.0600  0.1121
43104W        W61851   8.476  34.484  10.701  0.0070 -0.2063  0.1220
43105W        W61852  22.367  15.785   0.825 -0.4528  0.1347 -0.0414
43106W        W61853  33.320  28.751  14.334 -0.1140 -0.0217 -0.0286
43107W        W61854   1.800  28.861   6.103  0.0734 -0.0130  0.1985
43108W        W61855  26.563  25.963  23.025 -0.1301  0.1224 -0.2356
43109W        W61856  29.160  18.248  22.922 -0.1910 -0.1497  0.1097
43110W        W61857  35.235  19.522  23.580 -0.1065 -0.1921  0.0302
43111W        W61858   8.258   7.864  11.810 -0.0079  0.1027 -0.3314
43112W        W61859  31.433  29.231  13.159  0.1305  0.1329 -0.0199
43113W        W61860   4.359   5.192   1.277  0.3056  0.0897 -0.1331
43114W        W61861   8.230   1.537   4.751 -0.3308 -0.0051  0.1939
43115W        W61862  18.573  26.809   4.904 -0.1501  0.0687 -0.2418
43116W        W61863   6.474   8.603  18.137  0.1404  0.0317  0.0898
43117W        W61864  21.528   8.568  18.129 -0.0022  0.1550  0.3315
43118W        W61865  31.239  18.881   9.972  0.1165 -0.2191  0.3162
43119W        W61866  25.100  13.285  26.010 -0.4577  0.0794 -0.0144
43120W        W61867  26.411  30.217  22.604 -0.1001  0.1625 -0.0519
43121W        W61868  14.998   8.701   3.175 -0.0508 -0.1657 -0.3311
43122W        W61869  13.582   0.775   3.859 -0.1592  0.2621 -0.0578
43123W        W61870  24.006  24.317   1.432  0.2221  0.0124 -0.0559
43124W        W61871  27.806  18.730  20.394 -0.3794  0.1314  0.0867
43125W        W61872   2.717  16.355  25.534 -0.1144  0.1184 -0.0668
43126W        W61873  25.088   5.235  23.423  0.5280 -0.0368 -0.1100
43127W        W61874  30.108  26.995  24.792  0.2072  0.3487 -0.0377
43128W        W61875   3.443  34.528   7.334  0.1396  0.3374  0.1484
43129W        W61876  12.698   5.011   2.361  0.0344  0.1623  0.0425
43130W        W61877  30.366  35.328  13.329 -0.1052  0.1235  0.0986
43131W        W61878  26.215  16.751  25.717 -0.1060 -0.2632  0.0348
43132W        W61879  20.275   2.507  18.292  0.2550 -0.2177 -0.0321
43133W        W61880  21.280  13.577   0.188 -0.2393  0.0069 -0.0782
43134W        W61881  34.380  29.280  21.263 -0.4246  0.2384  0.1720
43135W        W61882   5.434   2.533  24.681  0.5168 -0.0243  0.2731
43136W        W61883  32.034  27.248  25.502  0.1444 -0.1605  0.0493
43137W        W61884   9.260   8.364   8.962 -0.1749 -0.1009 -0.0682
43138W        W61885  30.286   8.386  16.491  0.2840  0.4264 -0.1209
43139W        W61886  30.526  31.662  22.302  0.1355  0.1269  0.3830
43140W        W61887  13.669  21.680   0.048  0.3149  0.1277 -0.3179
43141W        W61888   9.150  29.635  25.552 -0.1660 -0.2293  0.0181
43142W        W61889   6.036  25.843   2.858  0.1222 -0.0900 -0.1161
43143W        W61890  19.611   2.651  16.813 -0.0023  0.0964 -0.4226
43144W        W61891  34.251  21.052  19.883 -0.1885 -0.1800  0.1149
43145W        W61892   8.353   8.382  25.037  0.2981 -0.4756  0.1374
43146W        W61893  29.730  14.014  12.867  0.0792 -0.1080 -0.1406
43147W        W61894  16.703  24.246  11.903 -0.0035 -0.0290  0.0367
43148W        W61895  26.859  23.861  13.817  0.1047 -0.0667  0.0876
43149W        W61896  11.259  34.823  24.522  0.0508  0.0992  0.1980
43150W        W61897  12.291  10.365  13.903  0.2820  0.0011 -0.0997
43151W        W61898  18.110  26.456   2.770  0.1285  0.3134 -0.3092
43152W        W61899   4.941  21.609  24.588 -0.2089  0.1829 -0.2135
43153W        W61900  11.225  15.695  23.717 -0.3496  0.2365 -0.2332
43154W        W61901  33.011  33.366   3.048  0.3456 -0.0687 -0.2182
43155W        W61902   2.026  17.260  11.809 -0.0578  0.3410  0.1287
43156W        W61903  26.857   7.394   9.960  0.0247 -0.1492 -0.0474
43157W        W61904  20.111  21.529   6.573  0.2613 -0.3026 -0.0166
43158W        W61905  28.132  13.158  24.212  0.0490  0.0879 -0.0229
43159W        W61906   8.533  31.727   8.736  0.1639  0.0849 -0.2475
43160W        W61907   3.025   4.978  23.148 -0.0949 -0.3247  0.1505
43161W        W61908  31.408  22.438  23.907  0.0685 -0.0001 -0.2019
43162W        W61909  25.181   6.936  15.727 -0.3047  0.1244 -0.0886
43163W        W61910  34.553  27.989   1.150  0.1806 -0.0749 -0.1831
43164W        W61911   6.587  16.932  19.079  0.1315 -0.0397  0.0643
43165W        W61912  25.585  24.251  23.642  0.0861  0.1383 -0.1458
43166W        W61913  14.767  30.486  11.943 -0.0058  0.1700 -0.0595
43167W        W61914   0.925  26.897   1.553  0.1656  0.3183 -0.2321
43168W        W61915  16.691  12.753   2.056  0.0793 -0.4547  0.2833
43169W        W61916  16.591  12.859   7.352 -0.1490  0.1274 -0.0944
43170W        W61917  18.512   5.162  22.432 -0.0271  0.1412  0.1002
43171W        W61918  22.084  18.512  20.990 -0.0873 -0.2152  0.0680
43172W        W61919  14.474  15.674   9.915 -0.1856  0.0234  0.2801
43173W        W61920  20.359   0.947  23.768  0.0039 -0.3026 -0.0550
43174W        W61921   8.467  30.668   5.847 -0.0349 -0.1702 -0.2559
43175W        W61922  10.278  34.941   3.512 -0.0510  0.0528 -0.2169
43176W        W61923  15.624   2.413   9.378 -0.1660  0.0535 -0.0744
43177W        W61924  24.063  26.703  16.043  0.1229  0.0822  0.1424
43178W        W61925  27.352  27.146  21.487  0.0357  0.1245 -0.1709
43179W        W61926  26.309  16.896  19.152 -0.0795 -0.0465  0.3390
43180W        W61927   9.327  30.986  21.672 -0.1336 -0.0187  0.1202
43181W        W61928  32.519  30.881   6.341 -0.2043 -0.3718 -0.0473
43182W        W61929  12.800  24.124   5.209 -0.1907 -0.2337  0.0584
43183W        W61930  25.691  13.716  25.723  0.1269 -0.2229 -0.1387
43184W        W61931  11.604  11.053   3.080 -0.0358  0.1341  0.0388
43185W        W61932  24.249  22.049  20.822 -0.2333  0.1270  0.0289
43186W        W61933   1.904  22.873  17.638 -0.0019  0.1509  0.2121
43187W        W61934   4.602  28.874  20.350 -0.1085  0.2907  0.1866
43188W        W61935   1.496  33.045  20.058 -0.2653  0.1158  0.2405
43189W        W61936   0.121  18.974   9.333 -0.0641 -0.3459  0.0692
43190W        W61937  16.909  24.417   2.689 -0.1432  0.0808  0.4148
43191W        W61938  32.624  25.476  22.582  0.1302 -0.1610  0.0663
43192W        W61939   2.906   3.585  16.193  0.3280 -0.0073  0.0790
43193W        W61940  29.340  27.508  11.333 -0.1373 -0.0480  0.0517
43194W        W61941  15.365  28.289  15.300 -0.0323  0.0815 -0.2244
43195W        W61942   9.081  29.488   2.632 -0.0389 -0.1438  0.2581
43196W        W61943  26.319  14.066  11.875  0.1250 -0.0725 -0.0499
43197W        W61944  16.314   2.221  22.796  0.1989 -0.0478  0.2172
43198W        W61945  16.230  24.131  11.506 -0.0825 -0.1709  0.2498
43199W        W61946  31.683   2.171   4.071 -0.0028  0.0324  0.0377
43200W        W61947  23.385  25.662  15.163  0.1493  0.5222  0.0764
43201W        W61948   2.925  32.390  17.960  0.1743  0.0136  0.0054
43202W        W61949  11.412  12.279   7.379 -0.1499 -0.4072  0.0646
43203W        W61950  13.228   6.544   0.009  0.3069 -0.2271 -0.1469
43204W        W61951  23.612  33.666  19.948  0.2020  0.0094  0.0007
43205W        W61952   7.755   9.562  20.428 -0.0633 -0.0992  0.0167
43206W        W61953  32.352  28.565  16.338  0.2290  0.0046 -0.0639
43207W        W61954   7.204  27.822   3.284  0.1880 -0.4529 -0.1477
43208W        W61955  12.112  12.020   0.945  0.4530  0.4234  0.0295
43209W        W61956  14.577  29.646  13.983 -0.1749  0.0355  0.1096
43210W        W61957   9.729  12.176   9.788 -0.1628  0.0869 -0.1317
43211W        W61958  13.009  21.137  25.757  0.0174 -0.1223  0.2940
43212W        W61959  34.393  16.085  24.337 -0.0048  0.3865 -0.0434
43213W        W61960  31.140   9.656  25.185  0.1904  0.3349 -0.0817
43214W        W61961  14.349  26.689  16.291 -0.1280 -0.2916 -0.2559
43215W        W61962  33.688  27.242  19.572 -0.3177  0.2117 -0.3336
43216W        W61963  23.565  19.703  21.505 -0.0336  0.1943  0.0147
43217W        W61964  11.800  32.160  23.014 -0.0254  0.2110 -0.1080
43218W        W61965   8.880  25.751   8.946 -0.1177 -0.1135 -0.2898
43219W        W61966  11.835  10.993   7.034 -0.1475 -0.2645 -0.1378
43220W        W61967  20.920  26.495   0.885 -0.1548 -0.1291  0.0640
43221W        W61968  27.040  16.387   8.914 -0.1119  0.1018  0.2827
43222W        W61969  26.559  20.344   0.246 -0.0649  0.2884  0.0222
43223W        W61970  34.156  33.628  22.699 -0.1559 -0.1225  0.1543
43224W        W61971  14.720  17.469  24.571 -0.0839 -0.2163  0.0400
43225W        W61972  28.188  23.127   7.094  0.3078 -0.2285 -0.3502
43226W        W61973  15.330  17.036  22.877  0.1199  0.0367 -0.0424
43227W        W61974  20.393   0.787   7.883 -0.4228 -0.2771  0.1810
43228W        W61975  26.939   9.136  22.005 -0.1275 -0.2553 -0.3797
43229W        W61976  22.324  16.766   2.467 -0.2127 -0.2999  0.3077
43230W        W61977  32.979  18.257   0.617 -0.3570 -0.1326  0.1955
43231W        W61978   3.101   4.502   8.286  0.0376 -0.0633 -0.3033
43232W        W61979  26.064   2.271  24.041  0.2852 -0.1574 -0.3534
43233W        W61980  31.863  23.805  15.760 -0.0116  0.0001  0.0185
43234W        W61981  19.092   5.672  16.829 -0.5122  0.1260  0.0098
43235W        W61982  11.029  23.300  16.632 -0.4249  0.0750  0.1045
43236W        W61983   8.121  20.995   3.690 -0.0190  0.0842 -0.1603
43237W        W61984  35.270   4.380  14.582  0.1894 -0.2697 -0.0350
43238W        W61985  13.977   7.648  11.038  0.0514  0.2105  0.0327
43239W        W61986   7.595  32.313  10.242 -0.2835  0.1638 -0.3115
43240W        W61987  25.944  17.332  19.767  0.2127  0.0884  0.4768
43241W        W61988  25.551  17.301   9.377 -0.0381  0.2471 -0.1164
43242W        W61989  28.935  34.178  16.819  0.1693  0.1718 -0.2313
43243W        W61990  17.051  21.356   5.459 -0.3396  0.3941  0.0056
43244W        W61991  29.280  31.974   1.995 -0.0731  0.0271 -0.0175
43245W        W61992  16.105  32.350  24.602  0.1367  0.2037 -0.2483
43246W        W61993   1.361  27.202  21.189 -0.0658  0.0555 -0.0480
43247W        W61994   8.788  29.623  13.358 -0.1329 -0.3881  0.3295
43248W        W61995   0.752  15.780  20.117  0.3383 -0.1384  0.1959
43249W        W61996  21.858   6.687   6.542 -0.1080 -0.0789 -0.1477
43250W        W61997   0.205  21.752  22.609 -0.1687 -0.1280 -0.2781
43251W        W61998  11.000  18.775  10.492  0.2823  0.3258 -0.1324
43252W        W61999  19.051   0.500  25.022 -0.0397 -0.2654  0.2164
43253W        W62000   2.304  34.096  25.472 -0.1993 -0.1382  0.2318
43254W        W62001  16.644  34.222   9.684 -0.0385 -0.1407  0.0113
43255W        W62002   8.863  10.957  11.465  0.0552  0.2051  0.1707
43256W        W62003  19.021  35.368   2.212 -0.0171  0.3265  0.0105
43257W        W62004  21.954  20.797  16.793  0.4625 -0.1921 -0.2323
43258W        W62005  11.686  14.005  11.892 -0.1754  0.0651 -0.0981
43259W        W62006   3.757  30.423  20.193 -0.0493  0.0499 -0.0739
43260W        W62007  32.328  16.671   9.869  0.0041 -0.0334 -0.3486
43261W        W62008  33.076  19.127  14.631 -0.3408 -0.2473 -0.1227
43262W        W62009  17.956   8.424   5.232 -0.1482 -0.2528 -0.0900
43263W        W62010  15.496  21.162   7.928 -0.1668  0.1517 -0.1463
43264W        W62011  35.176  30.236   4.583  0.4407 -0.1587 -0.4050
43265W        W62012  13.149  10.880  11.969  0.0297  0.2184 -0.3177
43266W        W62013  31.905  25.024  15.339  0.0400  0.1189  0.1821
43267W        W62014   9.983   3.571  12.909  0.1675 -0.3667 -0.1355
43268W        W62015   9.567  14.124  23.389  0.0216  0.1785  0.0438
43269W        W62016   8.537  28.637   4.125 -0.0430 -0.0288  0.1091
43270W        W62017   8.722   4.375  10.224  0.0091 -0.5419  0.0325
43271W        W62018   4.559   4.761   8.203 -0.0340 -0.0533 -0.0644
43272W        W62019  17.443  26.937   2.506  0.0700  0.0252  0.0706
43273W        W62020  12.845  25.202   8.494  0.2603  0.1059  0.2327
43274W        W62021  12.964  23.770  17.945  0.1867 -0.0478  0.0077
43275W        W62022   3.147   6.683  15.896 -0.2540 -0.2845  0.3107
43276W        W62023   8.594   5.428  22.332 -0.1340  0.2669  0.2286
43277W        W62024  19.449  12.494  19.052  0.1452  0.2158 -0.2946
43278W        W62025  18.325  20.582   6.701  0.2312 -0.1380 -0.1676
43279W        W62026  20.649   5.941   4.200  0.2102 -0.0557 -0.0424
43280W        W62027   1.942  18.156  18.658 -0.1617  0.3506 -0.1294
43281W        W62028  27.115   9.894   9.644  0.2127 -0.0832 -0.0114
43282W        W62029  33.162  29.586  16.973 -0.0357 -0.1432  0.0398
43283W        W62030   7.202  15.762  19.987  0.1594  0.0835 -0.3995
43284W        W62031  30.693  14.310  20.067 -0.3585  0.1566  0.2113
43285W        W62032  16.041  34.537  17.281 -0.0756 -0.0723  0.0449
43286W        W62033  25.445  13.669  25.157  0.1583  0.0377 -0.2193
43287W        W62034   8.082   0.137   4.265 -0.3115 -0.2480  0.0886
43288W        W62035   9.676  27.404  22.251 -0.1771 -0.2329 -0.1815
43289W        W62036  22.586  34.880   7.520 -0.0591  0.0385 -0.0466
43290W        W62037  21.462  12.428  21.860 -0.4210 -0.1827 -0.0356
43291W        W62038  10.314  22.599   6.011 -0.2530 -0.2003  0.2578
43292W        W62039  21.913  20.360   4.658 -0.1421  0.2294  0.1758
43293W        W62040  21.921  17.874  18.589  0.0044  0.2419  0.0535
43294W        W62041   8.320  32.058   3.074 -0.0258 -0.0742  0.0716
43295W        W62042  22.598   3.374  22.562 -0.4184 -0.2116  0.0777
43296W        W62043  25.471  21.702  12.246  0.1894  0.3428 -0.0604
43297W        W62044  26.399  19.525  14.661 -0.0407 -0.1020 -0.2765
43298W        W62045  27.074  13.217  23.523  0.0890  0.0425  0.1036
43299W        W62046  34.193  23.856  19.957 -0.1156  0.0272  0.2473
43300W        W62047  10.452  23.827  13.099  0.0949  0.0024 -0.2966
43301W        W62048  17.152  30.235   7.589 -0.2114 -0.1408  0.0454
43302W        W62049  32.850  22.598   9.717  0.2133  0.1014 -0.1222
43303W        W62050  22.408   0.926  20.072 -0.1008  0.2211 -0.3248
43304W        W62051  23.745  32.684  15.830 -0.2436 -0.0128 -0.4434
43305W        W62052   6.704   5.999  11.014 -0.0529  0.0631  0.0944
43306W        W62053  27.526  26.934  10.800 -0.0338 -0.1443 -0.3320
43307W        W62054  28.199  30.444   3.181 -0.0582 -0.0895 -0.1709
43308W        W62055  33.743  35.293  21.994  0.4605 -0.0982  0.1614
43309W        W62056  18.706   2.068   4.511 -0.0515  0.1638 -0.2586
43310W        W62057  19.605  14.262  26.210  0.3224  0.1659  0.1253
43311W        W62058  22.834  34.994  24.879  0.1298 -0.1242  0.0121
43312W        W62059  24.683  11.397  22.990 -0.0810  0.0000 -0.1826
43313W        W62060  20.408  27.766   5.031 -0.1697 -0.0527  0.0767
43314W        W62061  31.345  11.984  23.747  0.0176  0.0024  0.0612
43315W        W62062  18.177  18.715  11.392  0.0617  0.0808  0.1205
43316W        W62063  22.864  35.021  23.837 -0.1325 -0.1203 -0.0803
43317W        W62064  15.285  10.050  10.205 -0.1085 -0.2254 -0.1718
43318W        W62065  20.735  11.374   8.867  0.3549 -0.2902  0.0641
43319W        W62066  34.281   5.061  14.613 -0.0573 -0.0330 -0.2714
43320W        W62067   8.508  14.372   0.766 -0.0468  0.1837 -0.0692
43321W        W62068   9.425  11.991  21.622 -0.1565  0.3121 -0.0138
43322W        W62069  34.081   8.663  18.808  0.0771 -0.1423 -0.1595
43323W        W62070  31.119  21.005  13.144 -0.0267  0.1292  0.1613
43324W        W62071  31.684  33.649  24.706  0.2509  0.4765 -0.0854
43325W        W62072  19.271   9.686   5.340  0.2453 -0.0419  0.1480
43326W        W62073  33.589   9.401  19.021 -0.2243 -0.2718 -0.0253
43327W        W62074  19.805  34.110   8.845  0.0266  0.0971 -0.1775
43328W        W62075   5.922   4.307   5.435 -0.1489  0.1895 -0.0804
43329W        W62076   5.497  30.653   3.584 -0.1497  0.2318 -0.0338
43330W        W62077   8.827  17.721  10.285 -0.0101  0.5804 -0.2140
43331W        W62078  23.749  12.960  25.840  0.1192 -0.1616  0.0384
43332W        W62079   0.195   3.160  22.309 -0.1000  0.1178 -0.1258
43333W        W62080  31.838  29.250  18.085 -0.2420 -0.2359  0.1216
43334W        W62081  26.599  24.679  19.209 -0.0206  0.1446 -0.3342
43335W        W62082   8.424   0.352  22.228  0.1864  0.0327 -0.0783
43336W        W62083  12.068  32.820  23.543  0.0076 -0.0094 -0.0461
43337W        W62084  12.581   6.862  12.295 -0.0605 -0.1872 -0.1370
43338W        W62085  18.441   6.084  20.605 -0.1327  0.1083  0.4378
43339W        W62086  12.582   5.898  22.201  0.3881 -0.0498  0.1632
43340W        W62087  27.658  29.914  21.065  0.1738  0.3622 -0.0793
43341W        W62088   6.431  10.576  23.219  0.1502  0.2576  0.1448
43342W        W62089  29.127  22.216  18.808 -0.0777  0.2961  0.1145
43343W        W62090  27.759  24.122  21.813 -0.2770 -0.0016  0.0858
43344W        W62091  34.146  32.265   5.610 -0.2550  0.0463  0.0650
43345W        W62092  28.262  12.030  12.721  0.1561 -0.0238  0.0928
43346W        W62093   0.051  16.342  19.555 -0.0437 -0.0815  0.0890
43347W        W62094   0.317   2.226   5.933 -0.0110 -0.0887 -0.2212
43348W        W62095  29.372  12.065   5.349 -0.2081  0.0486  0.1892
43349W        W62096  22.554   3.554  24.503  0.1166  0.0277 -0.1731
43350W        W62097  35.055   7.950  24.588  0.1482  0.2233 -0.0568
43351W        W62098  15.876   6.297   5.911 -0.3234  0.1269 -0.1127
43352W        W62099  12.134   6.877  22.914  0.0108 -0.1757 -0.1042
43353W        W62100  29.617  26.756  14.757 -0.0870 -0.2193  0.5281
43354W        W62101  21.387   9.050  18.059  0.1801  0.0870  0.0709
43355W        W62102  13.422   2.634   2.523 -0.2581  0.1235  0.0700
43356W        W62103   1.614   8.697  17.816  0.2238  0.0875  0.1143
43357W        W62104  32.394  28.580  17.204  0.0690  0.0332 -0.2491
43358W        W62105  12.841  18.549   1.363  0.0776  0.1713  0.1146
43359W        W62106  27.871  33.682  14.551 -0.0755  0.2305  0.0502
43360W        W62107  35.124   7.716   3.849 -0.1711  0.1736  0.2200
43361W        W62108  14.896  24.581   7.204 -0.2703 -0.0643 -0.2829
43362W        W62109  24.910  10.615  20.295 -0.0515 -0.0259  0.0493
43363W        W62110  22.504   1.809  15.403 -0.2080 -0.1249 -0.0135
43364W        W62111   7.804  20.928  11.664 -0.0852  0.2934 -0.2550
43365W        W62112  12.916   6.029   1.207 -0.1104 -0.0847  0.0233
43366W        W62113   0.440  14.982  12.845 -0.1126  0.0132 -0.2833
43367W        W62114   3.475  31.291   3.795 -0.0647  0.2385 -0.0954
43368W        W62115  19.988  32.359  15.624 -0.2438  0.1563  0.1665
43369W        W62116  27.628   6.535  13.523 -0.2302 -0.1990  0.0147
43370W        W62117   0.783  13.297  23.208  0.3644  0.1577  0.0456
43371W        W62118  31.701  35.356  13.176  0.0443  0.0076  0.1486
43372W        W62119  16.782  22.429  10.190  0.4219 -0.2761 -0.2052
43373W        W62120   4.030  11.203   1.750 -0.2679  0.2555  0.4123
43374W        W62121  14.992   4.925  21.013 -0.0246  0.2207  0.3519
43375W        W62122  32.854   9.632   9.650  0.1138  0.1596 -0.1028
43376W        W62123  10.067  16.042  23.411  0.1322 -0.0697 -0.0961
43377W        W62124  24.148  25.925   3.416  0.0045  0.1349 -0.1212
43378W        W62125  25.319  16.775  12.017  0.2621  0.1425 -0.0697
43379W        W62126  13.582  15.604   5.418  0.0994 -0.3033  0.0303
43380W        W62127  28.375  21.896  20.888  0.5643 -0.1060  0.0024
43381W        W62128  10.075  19.003   2.379  0.3225  0.2240 -0.1268
43382W        W62129  21.575  32.188   6.393  0.2101 -0.1077 -0.2072
43383W        W62130   3.651  33.977  24.325  0.2966 -0.1076  0.4136
43384W        W62131  21.377  28.713  21.668 -0.0732 -0.3026  0.1656
43385W        W62132  11.020   3.903   9.074  0.1534  0.0446  0.2972
43386W        W62133  25.615  28.094  26.177  0.2710  0.0040 -0.0987
43387W        W62134  27.853  11.183  21.209 -0.1726  0.2253 -0.2048
43388W        W62135  18.966  14.325  18.880 -0.0049  0.3829 -0.1662
43389W        W62136   9.764   4.985   8.815  0.1350 -0.1455 -0.0445
43390W        W62137   7.149  20.396   8.792  0.2786 -0.1258 -0.4408
43391W        W62138   9.016  29.642   9.554  0.2626  0.0004 -0.0226
43392W        W62139  25.818   0.629  16.663 -0.1001  0.0180  0.2293
43393W        W62140   8.628  19.110   1.248 -0.1046 -0.1705  0.1160
43394W        W62141  21.630   2.333  21.745  0.0587 -0.3928 -0.3536
43395W        W62142  32.568  31.850  23.864 -0.0710 -0.3943 -0.3000
43396W        W62143   8.865  27.572  25.629 -0.1193 -0.0950  0.1186
43397W        W62144  25.509  22.535  23.013  0.1180  0.0245 -0.2107
43398W        W62145  10.417  25.384  10.987  0.1144 -0.0493 -0.2338
43399W        W62146  26.484  34.302  18.765 -0.0359 -0.0500 -0.1444
43400W        W62147  32.199  31.024  11.758  0.2983 -0.2886 -0.1612
43401W        W62148   0.970  34.557  23.277 -0.2249  0.1256  0.1863
43402W        W62149   5.722  13.290  19.164  0.0496 -0.0335 -0.1621
43403W        W62150   2.416  18.640  25.449 -0.3428  0.0659 -0.0778
43404W        W62151  23.642  32.983  24.809  0.0285  0.0091  0.2468
43405W        W62152   7.391  15.457   2.320 -0.2109  0.0205  0.1199
43406W        W62153  20.742   6.293   9.397  0.4502  0.1010  0.0712
43407W        W62154  21.507  16.863  24.971  0.1541 -0.0684  0.1821
43408W        W62155   5.834  15.996   3.304  0.3835 -0.0810  0.1855
43409W        W62156  24.783  21.180  20.571  0.0706  0.3433  0.0364
43410W        W62157   1.587  26.939  25.554 -0.0290 -0.0091  0.2480
43411W        W62158  12.912   8.098  23.778  0.4122 -0.1212  0.0405
43412W        W62159  14.248  16.723   5.069  0.1249  0.1839 -0.0496
43413W        W62160  19.268  12.151   0.561  0.1258 -0.0270 -0.0619
43414W        W62161  10.547  11.563   8.416  0.0550 -0.1832 -0.0312
43415W        W62162  22.961   6.656  16.460  0.1203 -0.1477  0.1016
43416W        W62163  20.466  31.758   5.854 -0.2307 -0.1898  0.1965
43417W        W62164  29.761  21.513  24.157 -0.2213  0.1719 -0.2164
43418W        W62165  12.372  13.583  10.386 -0.3059  0.0905 -0.2292
43419W        W62166   1.616  34.677   0.017  0.0872 -0.0307 -0.2073
43420W        W62167  14.150   2.238  21.245 -0.1290  0.5300  0.0740
43421W        W62168   3.677  13.530  20.944  0.1136 -0.1032 -0.2626
43422W        W62169  17.517  34.340  15.878 -0.0876 -0.0790  0.0600
43423W        W62170  29.982   6.998  14.233  0.1386  0.2268  0.0355
43424W        W62171  22.328   3.345   1.239  0.1495 -0.3403 -0.3236
43425W        W62172  25.191  33.291   1.980  0.1065 -0.2575  0.0892
43426W        W62173  27.759  22.168  21.976 -0.0767  0.0323 -0.1173
43427W        W62174  24.984  17.210   8.709  0.1344 -0.0713  0.0333
43428W        W62175  32.873   5.823  15.603  0.1080 -0.0343 -0.0439
43429W        W62176   8.525   8.245  20.305  0.0228 -0.0365 -0.1090
43430W        W62177  32.560   9.168  22.731 -0.3146  0.2640  0.1744
43431W        W62178  12.612  22.597  16.247  0.0225 -0.0400 -0.1563
43432W        W62179  32.312   2.004  13.979 -0.0651  0.1281 -0.0344
43433W        W62180  26.475  31.215  19.295 -0.0158 -0.0091  0.1618
43434W        W62181  35.291  16.803  12.080 -0.1809  0.3317  0.1682
43435W        W62182  10.674  20.520  12.028  0.1172  0.1428 -0.0737
43436W        W62183  35.092  16.060  10.047  0.0593  0.1485  0.0069
43437W        W62184   7.028   6.248   8.275  0.0841  0.1299 -0.0085
43438W        W62185   5.618  13.385   1.591 -0.0191  0.1283 -0.0342
43439W        W62186  25.196  19.810  20.438 -0.1889 -0.0168 -0.3152
43440W        W62187  27.614   1.666  11.044 -0.0120 -0.4429  0.0593
43441W        W62188   2.736  28.280  20.469  0.4880 -0.2369  0.1075
43442W        W62189   6.203   8.742  25.547  0.1807 -0.2341  0.4141
43443W        W62190   5.624   8.631   1.228 -0.5795 -0.1389  0.0218
43444W        W62191  26.344  22.988  12.223 -0.2445  0.3683 -0.0743
43445W        W62192  25.587  19.750  16.298 -0.0423 -0.1194  0.0484
43446W        W62193  11.522  25.180  25.450 -0.0967  0.0765 -0.0819
43447W        W62194  10.064  19.607   3.918  0.1686  0.2453 -0.3163
43448W        W62195   3.797  34.944  21.394  0.0573 -0.0306  0.2684
43449W        W62196  28.340   4.504  18.442  0.0548  0.1647  0.0363
43450W        W62197  25.484  28.990   0.491 -0.0513 -0.4718 -0.2752
43451W        W62198   8.918  19.217  14.001  0.2743 -0.0614  0.3780
43452W        W62199   1.003  21.657  24.145  0.1319  0.0929  0.0641
43453W        W62200  10.385   5.862  10.508 -0.2528 -0.0679 -0.0946
43454W        W62201  24.069   0.289  13.731  0.0291  0.1393 -0.0465
43455W        W62202  30.111  33.964   2.012 -0.0683 -0.1103  0.0489
43456W        W62203  15.113  16.829  21.377  0.2796  0.3341 -0.1147
43457W        W62204  20.164  26.803   5.727  0.2638  0.0080 -0.2166
43458W        W62205   7.383   6.647  11.158 -0.0086  0.0359 -0.1587
43459W        W62206   3.632  30.614   0.910  0.0286 -0.3795 -0.0368
43460W        W62207  20.389  32.841   2.709 -0.1826  0.1303  0.4543
43461W        W62208  19.120  12.753  11.319 -0.2398 -0.0869 -0.0129
43462W        W62209   5.820  13.865  25.215 -0.0587 -0.4732 -0.2763
43463W        W62210   9.079  10.431   1.360 -0.0587 -0.2292  0.0039
43464W        W62211  15.924  26.592  12.693  0.3048  0.1734  0.3810
43465W        W62212  12.858  22.373   2.653 -0.1966 -0.0220  0.2794
43466W        W62213  10.241  23.719   1.679 -0.3411  0.2286 -0.0299
43467W        W62214  31.799  34.617   3.290  0.4893  0.0366 -0.0792
43468W        W62215  30.928   3.983  14.593  0.1064 -0.2172 -0.1145
43469W        W62216  10.069   5.893  10.869  0.2857  0.0621 -0.1188
43470W        W62217   0.216  15.445  13.359  0.0761  0.0197 -0.0682
43471W        W62218  17.449   7.416  18.513  0.1633 -0.0551  0.2476
43472W        W62219  26.796  16.655  10.397  0.1842  0.2527 -0.1605
43473W        W62220   5.334  20.786   5.589  0.0708 -0.4494  0.1836
43474W        W62221  32.949  16.510  25.124  0.0153  0.0314  0.0134
43475W        W62222  23.835  18.143   0.708  0.1874  0.4204 -0.2623
43476W        W62223  24.660   9.662  25.381  0.2687  0.0546  0.1357
43477W        W62224  28.759  34.043  19.914 -0.0351 -0.2736  0.2609
43478W        W62225   1.269  20.669  11.570 -0.1187 -0.2059 -0.3466
43479W        W62226   7.260  21.395   0.378  0.2515  0.0572 -0.1358
43480W        W62227   8.829  14.213  19.547  0.2448  0.1640 -0.0408
43481W        W62228  26.490   2.390  11.726  0.0103  0.0734 -0.1244
43482W        W62229  26.586  19.878  18.621  0.0970  0.1232  0.0259
43483W        W62230  10.350  30.659   2.530 -0.1152  0.2768  0.0442
43484W        W62231   2.127  20.824   2.545 -0.0359  0.1342 -0.1586
43485W        W62232  10.943  29.889  17.158  0.1297  0.0990 -0.6456
43486W        W62233   9.404  16.783  23.972  0.2911  0.1615 -0.2802
43487W        W62234   9.752  26.169  25.763  0.0212  0.0126  0.2508
43488W        W62235  10.325  28.143   7.441 -0.0125 -0.2035 -0.2867
43489W        W62236  27.384  16.860  13.770 -0.2553  0.5381 -0.0184
43490W        W62237  32.039  23.977  13.203 -0.0657 -0.2290  0.0202
43491W        W62238   1.685  21.772   1.223  0.1560 -0.3157 -0.0718
43492W        W62239   5.946   1.586   6.318 -0.1470  0.1577  0.2255
43493W        W62240  16.343   6.332   5.843  0.1602 -0.2296  0.0389
43494W        W62241  22.465  33.107  15.140 -0.1144  0.3016  0.0771
43495W        W62242  17.396   4.805   4.844  0.2603 -0.2980  0.0652
43496W        W62243   1.486   5.637  23.106 -0.0656  0.0014 -0.0046
43497W        W62244   0.787   2.241   6.284 -0.0488 -0.1031 -0.0831
43498W        W62245   4.692  13.625  19.082 -0.0167  0.5438 -0.0554
43499W        W62246   9.261   3.286  23.862  0.0544 -0.2958  0.1485
43500W        W62247  25.263  20.239  20.103 -0.0773 -0.0977  0.0264
43501W        W62248  28.594   7.260   0.165 -0.1981 -0.2817 -0.0435
43502W        W62249   3.873  14.651  17.500  0.0088  0.0907  0.5292
43503W        W62250  29.301  30.768  12.336  0.1547 -0.0748  0.0055
43504W        W62251  29.251  29.580  13.318 -0.0087 -0.0968 -0.3668
43505W        W62252  20.090  30.867  18.108 -0.2423 -0.1730 -0.2599
43506W        W62253  24.813   6.586   0.377 -0.3741  0.0992  0.2517
43507W        W62254  17.853  11.476   7.391  0.0878 -0.0292  0.0435
43508W        W62255   0.617  27.186  19.664  0.0828 -0.1793 -0.2728
43509W        W62256   3.014  34.569  21.511 -0.1954  0.1589  0.0992
43510W        W62257  25.942  32.483  15.569  0.0913  0.1968 -0.1192
43511W        W62258   0.972   1.012   5.432 -0.0220  0.2614 -0.1099
43512W        W62259  18.073  17.490   7.314 -0.1053 -0.0953  0.1152
43513W        W62260  21.060  14.968  23.943 -0.2168  0.1803  0.2604
43514W        W62261  33.074  25.681   0.569  0.1445 -0.0277 -0.2068
43515W        W62262   9.480  25.432  21.727  0.0187  0.0979  0.1994
43516W        W62263  12.483  33.257   8.866 -0.1974 -0.2620 -0.3134
43517W        W62264  10.263   6.370   3.358 -0.1345 -0.1465 -0.0192
43518W        W62265   7.972  27.812  13.809 -0.0284 -0.1598  0.3863
43519W        W62266   9.928  25.775  22.833  0.0351 -0.0384 -0.0686
43520W        W62267   8.924  12.806   1.497 -0.0296  0.1621  0.3844
43521W        W62268  17.415  20.407  24.304 -0.0153  0.3410  0.1705
43522W        W62269   3.243  34.204  20.441  0.0907 -0.2495  0.2238
43523W        W62270  23.437  32.935   3.365  0.0609 -0.2921 -0.0547
43524W        W62271   2.022   9.108   4.094  0.2884 -0.2038  0.0103
43525W        W62272   8.219  15.968  24.860 -0.0976  0.0005  0.0504
43526W        W62273  24.830  30.797  12.461 -0.2463 -0.1302  0.0200
43527W        W62274   5.138   0.613   9.613  0.2985 -0.3347 -0.1219
43528W        W62275  33.507   4.205  22.735  0.0527  0.2482  0.0267
43529W        W62276  10.225  11.537   8.018  0.1243 -0.1384  0.0747
43530W        W62277   8.773  34.089   3.200 -0.0277  0.2099  0.3193
43531W        W62278   9.349  21.509   5.008  0.3141  0.3017  0.0580
43532W        W62279   4.473  24.970   5.204  0.0324  0.1211 -0.1860
43533W        W62280   0.276  30.133   4.369  0.0749  0.1116 -0.0417
43534W        W62281   2.732  18.846  14.077  0.1110 -0.1308 -0.0666
43535W        W62282  15.718  17.805  10.559 -0.0586  0.1817  0.2743
43536W        W62283   4.178  18.121  22.304  0.2930 -0.1245  0.0439
43537W        W62284  34.532  10.991  23.631 -0.2272 -0.1742 -0.0384
43538W        W62285   3.749  32.750   0.876 -0.1568  0.1046  0.0513
43539W        W62286  25.510  22.178  14.152 -0.0253 -0.3153  0.2446
43540W        W62287  33.798  29.540  13.465 -0.1581  0.1420  0.0773
43541W        W62288   5.447   1.326   6.977 -0.1243 -0.0578 -0.0566
43542W        W62289   8.422  12.235  23.897  0.0611  0.0936 -0.3127
43543W        W62290   2.984  24.335  25.768  0.2938  0.2598  0.0997
43544W        W62291  27.828  28.937  11.458  0.1040 -0.2614 -0.4404
43545W        W62292   8.509  15.853  22.784  0.0877  0.0272 -0.0843
43546W        W62293  12.859   5.368   0.051  0.0444 -0.0165  0.2122
43547W        W62294  25.120  11.177  17.555 -0.2295 -0.2054  0.0161
43548W        W62295  25.937  30.456  19.234  0.1494 -0.2018  0.0865
43549W        W62296   3.133   4.510  19.914  0.0315  0.2861 -0.0480
43550W        W62297  26.645  14.858  11.548 -0.4468  0.1298  0.1495
43551W        W62298  15.172   5.105   8.907  0.0227 -0.1998 -0.2349
43552W        W62299  23.728  15.905  16.896  0.0799 -0.0223  0.0817
43553W        W62300  11.215  19.538  11.210  0.7039 -0.0191 -0.1990
43554W        W62301   1.704   4.732   1.053  0.0326 -0.0912 -0.0855
43555W        W62302   0.877  25.250  21.007  0.0486  0.0029  0.0304
43556W        W62303  23.657   2.158  22.516  0.0361  0.0270 -0.3255
43557W        W62304  12.527  20.551  13.374 -0.0002  0.2569  0.3170
43558W        W62305  23.000  30.570  23.379 -0.0836  0.2903  0.4354
43559W        W62306   8.300  24.275  15.551 -0.4287  0.2937  0.3047
43560W        W62307  20.477  12.673  23.555  0.0899  0.1255  0.0702
43561W        W62308  15.408  32.844  21.917 -0.1178  0.2869 -0.1194
43562W        W62309  21.659   5.300   3.313 -0.1700 -0.2096  0.1450
43563W        W62310   3.458  32.022  18.929  0.1416  0.0894 -0.0265
43564W        W62311  26.205  18.593  13.191 -0.1753 -0.1162 -0.0403
43565W        W62312  26.137  20.016  22.238 -0.2932 -0.1415 -0.0007
43566W        W62313  25.787  20.843  11.357  0.1334 -0.3002  0.1376
43567W        W62314  34.248  17.448  24.737  0.1123  0.2281  0.0763
43568W        W62315  13.106  13.987  24.767  0.0839 -0.1473  0.0794
43569W        W62316   9.559  22.680  14.169  0.2076  0.3920 -0.0205
43570W        W62317  10.778  21.139  14.682  0.0054  0.3310 -0.0038
43571W        W62318  10.189   3.793  23.919 -0.0144 -0.0025 -0.0626
43572W        W62319   8.723   0.101  24.916 -0.1766  0.0200  0.0729
43573W        W62320  33.361   1.047  14.113 -0.0701 -0.1877  0.1909
43574W        W62321  30.255   8.962   9.562  0.0062  0.3866 -0.1081
43575W        W62322   0.024   3.849  23.925  0.0667 -0.0452 -0.2042
43576W        W62323  30.075  23.622  10.485  0.1591 -0.2297  0.0442
43577W        W62324  12.027  10.454  10.301 -0.0816 -0.1266 -0.1391
43578W        W62325  10.016  21.585  24.036 -0.2083 -0.1789 -0.0106
43579W        W62326  33.218   0.191   6.282  0.3138  0.1201  0.1022
43580W        W62327   0.430   7.390  15.789  0.1068  0.3350 -0.2098
43581W        W62328  13.081  15.531  10.225 -0.4119 -0.3771  0.0449
43582W        W62329   4.960   2.632   7.607 -0.1105 -0.0255  0.0009
43583W        W62330   0.781   8.630  18.219 -0.2046 -0.0185  0.3063
43584W        W62331   4.243  10.532   0.166 -0.0773  0.1425 -0.2073
43585W        W62332  15.807  23.744  14.305 -0.1356  0.0605 -0.0975
43586W        W62333  15.243  17.445   6.318 -0.0032 -0.0092  0.0607
43587W        W62334  30.477  18.014   5.707  0.3538 -0.2396  0.0007
43588W        W62335  15.502   7.959  11.994 -0.1064  0.2434 -0.2385
43589W        W62336  26.939  13.750  11.433  0.2164 -0.0969 -0.2471
43590W        W62337  34.129   3.979   7.107 -0.0607  0.1760  0.2780
43591W        W62338  23.039  21.764  25.795  0.3145  0.2604  0.0613
43592W        W62339   8.034   2.641   3.791  0.3674  0.2195 -0.0486
43593W        W62340  12.035  34.520  12.913 -0.0524  0.0296 -0.0963
43594W        W62341  11.403  17.414   1.062  0.1164  0.0537 -0.2986
43595W        W62342  19.481  17.045  10.042  0.1717 -0.3045 -0.0049
43596W        W62343   9.576   5.266  14.331 -0.1087 -0.2166  0.1978
43597W        W62344  15.891  17.173   8.107  0.0314  0.1898  0.1430
43598W        W62345   8.787   3.447  26.208 -0.0501  0.1896  0.0957
43599W        W62346  24.882   0.128  24.295  0.0447 -0.5286  0.0557
43600W        W62347  27.785  21.015   7.416  0.1774 -0.2317  0.2899
43601W        W62348  10.620   5.292   6.625 -0.0741  0.0897  0.0852
43602W        W62349  16.217  11.878   2.130  0.0646 -0.1624 -0.2472
43603W        W62350  26.561   5.909  23.431 -0.0052  0.1346  0.4433
43604W        W62351   0.902  30.237   6.815  0.1959  0.2077  0.3799
43605W        W62352  33.527   0.438   7.599 -0.0320 -0.0226 -0.0038
43606W        W62353  26.357  20.939  16.752 -0.0704  0.0403 -0.1633
43607W        W62354  25.252  22.064  11.981  0.0301 -0.0874 -0.4506
43608W        W62355   5.060   6.948   9.069 -0.0828  0.0958 -0.0023
43609W        W62356   1.100  28.302   0.847  0.1818  0.3155 -0.1455
43610W        W62357  12.683   7.942  12.965 -0.1490  0.2565 -0.2721
43611W        W62358   6.304   5.529  21.589  0.4811  0.3789 -0.0364
43612W        W62359   2.037  29.549  24.988  0.0299 -0.1780  0.0232
43613W        W62360  29.853   8.252   2.046 -0.3915  0.1305  0.0770
43614W        W62361   9.192   7.125   5.595  0.2135 -0.0476 -0.0182
43615W        W62362   9.816  30.770   6.871  0.2515  0.0898 -0.2161
43616W        W62363  16.125  25.535  24.666 -0.2039 -0.1865 -0.1878
43617W        W62364  35.005   5.898  12.407 -0.4477 -0.0430 -0.0002
43618W        W62365   6.181   6.716  24.325  0.0765  0.1338  0.1890
43619W        W62366  35.037  31.323  14.760 -0.0575  0.1605  0.1007
43620W        W62367   9.034  32.257  15.830  0.3932 -0.0905  0.1965
43621W        W62368  19.867  30.113   7.293 -0.3845 -0.2679 -0.0983
43622W        W62369   9.483  23.944   7.438  0.3185 -0.1034  0.0940
43623W        W62370   2.164   5.592  16.567  0.1207 -0.3593  0.0738
43624W        W62371  12.305   5.886  12.956 -0.4226  0.4354 -0.0312
43625W        W62372  33.051  18.241   6.036 -0.6283 -0.1817 -0.1368
43626W        W62373  24.546  24.658  22.935 -0.1324 -0.0004  0.1266
43627W        W62374  32.527  31.596  20.645  0.0734 -0.1090 -0.1835
43628W        W62375  25.150   5.205   3.604  0.1975 -0.1608  0.0224
43629W        W62376  20.039  27.699   3.562 -0.0381 -0.1584 -0.2941
43630W        W62377  11.215   7.800   1.293  0.0567 -0.3038 -0.0411
43631W        W62378   3.556  15.288   2.010  0.1450 -0.1269 -0.2503
43632W        W62379  11.217   0.034   0.669 -0.0428  0.2032 -0.3301
43633W        W62380  29.808  18.826  14.535 -0.3727  0.2440 -0.2285
43634W        W62381   3.609  11.988  21.423  0.1084  0.0675 -0.5794
43635W        W62382   7.273  34.960  22.426  0.1373 -0.0032 -0.3116
43636W        W62383  32.004  30.811   0.248 -0.2157 -0.0487 -0.0253
43637W        W62384  12.856   7.949  22.466 -0.0179 -0.1638 -0.1609
43638W        W62385  34.742  20.250  15.852  0.0465 -0.3048  0.2451
43639W        W62386  26.473  30.157  13.622 -0.1960  0.0536 -0.1226
43640W        W62387   5.724  15.645  25.697 -0.0085 -0.0008 -0.2831
43641W        W62388  19.463   1.141   6.630  0.2009 -0.2870  0.0425
43642W        W62389  29.195   3.558  25.644 -0.1383 -0.1473  0.2392
43643W        W62390  34.923  24.694  13.691  0.2019 -0.1094  0.0788
43644W        W62391   8.601  17.783   8.230 -0.0656  0.0939  0.1393
43645W        W62392  30.724  26.946  18.797  0.1680 -0.2251 -0.0103
43646W        W62393   7.999  15.191  11.360 -0.1520 -0.0312  0.2292
43647W        W62394  30.995  13.523  13.181 -0.1044 -0.1400  0.0518
43648W        W62395  33.014  29.889  20.398  0.2506  0.1873  0.0350
43649W        W62396   0.929  15.430  22.505  0.0345  0.0493  0.0161
43650W        W62397  11.111  13.641   8.137  0.0638  0.0111 -0.0979
43651W        W62398  26.287  27.842  22.342 -0.0211 -0.0640 -0.1343
43652W        W62399  30.730  22.373  24.918  0.3408  0.0268  0.1556
43653W        W62400  12.567  31.857   6.004 -0.1972  0.1406  0.2444
43654W        W62401  17.733  15.804  23.655  0.4232 -0.0540  0.3297
43655W        W62402   7.628  11.705   5.437 -0.0183  0.0318 -0.1258
43656W        W62403  11.275  30.513  16.496  0.3146  0.0665 -0.4860
43657W        W62404   1.999  31.494   2.009  0.0985  0.4455  0.1141
43658W        W62405  32.764   9.660  18.710  0.3866  0.0491  0.1019
43659W        W62406  13.083  28.398  23.180 -0.2096  0.0836 -0.1945
43660W        W62407  13.295  28.580  11.604 -0.1489 -0.2671  0.3697
43661W        W62408  32.520  21.558  15.639  0.1020  0.1933  0.0108
43662W        W62409  20.179   4.499  20.127 -0.0110 -0.2510 -0.0098
43663W        W62410   2.076  14.504   1.095 -0.2995 -0.1874  0.0114
43664W        W62411  26.451   9.516  13.423 -0.1065  0.0343 -0.3033
43665W        W62412  11.255  11.785   8.879 -0.0494 -0.1753  0.1133
43666W        W62413   2.850  15.889  18.945  0.0450  0.0982  0.0352
43667W        W62414  24.435  27.537  24.211  0.1832  0.0825  0.0238
43668W        W62415   5.017  16.421  17.552 -0.1598 -0.1227 -0.1115
43669W        W62416  26.260  33.320  22.405 -0.0540 -0.1137  0.0227
43670W        W62417  26.676  18.526   9.828 -0.2384 -0.2943 -0.2093
43671W        W62418   8.889  34.884  26.224  0.4090 -0.1581 -0.0740
43672W        W62419  31.377   6.200  25.997 -0.2469 -0.2347 -0.0071
43673W        W62420  31.091   9.404   9.068 -0.0850 -0.0813  0.0559
43674W        W62421  19.206  20.239  23.583  0.0429  0.3411 -0.3815
43675W        W62422   0.204  34.840   0.086  0.2169  0.4263 -0.0764
43676W        W62423  31.973  31.049  24.439  0.1751 -0.0742  0.0918
43677W        W62424  27.492  28.651  14.779  0.0421 -0.0585  0.1703
43678W        W62425  22.434  21.642  21.460  0.0126  0.3167 -0.3044
43679W        W62426   4.865   6.758   8.676  0.2669  0.2201  0.0457
43680W        W62427  26.451  30.556  12.868 -0.0634  0.2179  0.2603
43681W        W62428  19.690  12.340   7.620  0.0962  0.2273 -0.3645
43682W        W62429  18.210   3.556  22.224  0.1346  0.2668 -0.2670
43683W        W62430  29.253   4.367  21.632  0.0727  0.1109  0.0495
43684W        W62431  32.489  29.174  21.472  0.1991  0.1191 -0.2328
43685W        W62432  19.481  19.673  20.288  0.3040 -0.0558 -0.4391
43686W        W62433  34.338  17.067  11.939 -0.3684  0.0204  0.1879
43687W        W62434  10.942  19.131  14.402 -0.0530 -0.0699  0.2493
43688W        W62435  10.301  21.147  14.190  0.3874 -0.0512 -0.3722
43689W        W62436  24.812  33.869  22.894 -0.2654 -0.1760  0.0557
43690W        W62437   8.056  10.988   7.078  0.0855  0.2415 -0.2001
43691W        W62438  19.185  22.957   8.868 -0.0447  0.2507  0.0968
43692W        W62439  11.922   5.143  23.885  0.2053 -0.4461  0.0469
43693W        W62440   6.799  22.854  22.595  0.0042 -0.2813 -0.2035
43694W        W62441  27.800  32.665   4.576  0.1326 -0.1216 -0.0303
43695W        W62442   6.877  22.258  26.183 -0.2428  0.2115 -0.0666
43696W        W62443   0.902  21.085  22.408 -0.2007 -0.0087 -0.1852
43697W        W62444   3.368  20.774  19.461 -0.0782  0.4248 -0.1882
43698W        W62445  26.944  22.693  18.113 -0.0086  0.1146 -0.0430
43699W        W62446   3.665  27.741   0.799  0.0554 -0.1354  0.3418
43700W        W62447  17.834   3.401  21.026  0.0570 -0.4727 -0.1500
43701W        W62448  35.364  10.275  19.843  0.2166 -0.0195 -0.1266
43702W        W62449  27.419  26.723  15.168  0.2499 -0.3210  0.1227
43703W        W62450  35.278  13.924  11.609  0.3968 -0.1161 -0.0572
43704W        W62451   1.307  34.591  19.378 -0.0894 -0.1524  0.3515
43705W        W62452  29.694   3.151  17.905 -0.0330 -0.2291 -0.3002
43706W        W62453  24.915   8.876  20.330 -0.2333  0.1250 -0.0792
43707W        W62454  32.819  28.525  13.133  0.1264  0.2931  0.1226
43708W        W62455  30.959   2.270  21.651 -0.1023 -0.1143 -0.2796
43709W        W62456   0.867  34.185   2.995 -0.0214  0.1533  0.2652
43710W        W62457  32.455   1.677   5.258  0.0449 -0.0828 -0.1250
43711W        W62458  14.062   6.741  23.799  0.1439  0.0017 -0.1596
43712W        W62459  12.289   4.451   3.345  0.3202  0.1160 -0.2764
43713W        W62460  18.436  19.139   3.314 -0.1880  0.0768  0.0261
43714W        W62461   3.123  17.415  23.932  0.1713 -0.0181  0.0407
43715W        W62462   0.336   4.772  15.350  0.0204 -0.1692 -0.1692
43716W        W62463   6.779  21.139   1.975 -0.1718 -0.0004 -0.0741
43717W        W62464  34.383   9.048  16.220  0.2534  0.2226 -0.1643
43718W        W62465   6.024  14.120   9.510  0.0198 -0.1577  0.1890
43719W        W62466   0.561  28.947   5.583  0.0300 -0.3638 -0.1346
43720W        W62467  28.039   1.647  24.469 -0.1511 -0.1287 -0.0408
43721W        W62468   9.632   5.008   3.387 -0.0916 -0.2465  0.1449
43722W        W62469  28.520  33.800  13.761 -0.0688 -0.1641 -0.1365
43723W        W62470   8.084  15.041   3.448  0.0495  0.0822 -0.0500
43724W        W62471  26.341  18.177  24.639 -0.1639  0.2528 -0.3546
43725W        W62472  30.049  28.487  10.865 -0.1710 -0.1143 -0.0876
43726W        W62473  15.796  21.699   0.438 -0.1433  0.1529 -0.0651
43727W        W62474  34.838  29.507  18.150  0.1426 -0.0323 -0.1175
43728W        W62475  16.246  10.030  25.825 -0.2249  0.3597  0.0465
43729W        W62476  18.107  25.593   6.981 -0.2198  0.0515 -0.0200
43730W        W62477  33.744  32.453   3.092  0.0920  0.1384 -0.1476
43731W        W62478  24.002   7.132   2.489 -0.0606 -0.1220 -0.1400
43732W        W62479  19.967   8.811   8.944  0.2114 -0.0788  0.1965
43733W        W62480  11.528  28.991  11.229 -0.0895 -0.0748 -0.1362
43734W        W62481  18.541   1.881   4.952 -0.0793  0.0024 -0.0059
43735W        W62482  11.573  15.795   5.696  0.2888 -0.2955 -0.2312
43736W        W62483  12.732  29.500   5.756 -0.1183 -0.0464  0.2194
43737W        W62484  32.237   3.242  25.927 -0.1818  0.1758  0.0193
43738W        W62485  35.046  26.132  25.073  0.1772  0.2761  0.0763
43739W        W62486   1.897  28.736  21.062 -0.0896  0.0373  0.0688
43740W        W62487  16.048   5.670   4.101  0.5315  0.2619 -0.1697
43741W        W62488   1.207  30.133  19.608  0.1321  0.0347 -0.0777
43742W        W62489   5.761   4.227   4.930  0.3155 -0.4354 -0.5139
43743W        W62490  15.952   7.416  12.520  0.0876  0.0248  0.0687
43744W        W62491  22.388  27.180  20.050  0.0141  0.1910 -0.2775
43745W        W62492  26.098  15.004  25.265  0.0078 -0.1408 -0.0632
43746W        W62493  22.529  21.931  23.929  0.2295  0.1600 -0.1592
43747W        W62494   9.947  32.474   2.240  0.1498 -0.0754 -0.3679
43748W        W62495   8.006   8.962  11.646  0.0627  0.2856 -0.1932
43749W        W62496   6.039  11.058   7.736 -0.0671 -0.2735  0.4505
43750W        W62497  23.950   1.581   3.689  0.1632  0.1998  0.1935
43751W        W62498   3.585  20.760   0.312 -0.3860  0.2458 -0.1711
43752W        W62499   9.216  33.572  11.380  0.0710  0.1535  0.0061
43753W        W62500  17.139  17.339   5.582 -0.2144 -0.0515  0.0783
43754W        W62501  15.438  34.790  24.055  0.0849 -0.3376  0.0092
43755W        W62502   1.681  19.150  13.182 -0.1307  0.1499  0.0808
43756W        W62503   4.750  25.663   1.752  0.3356  0.5960 -0.0280
43757W        W62504   7.390   1.362  19.215  0.0792  0.0023  0.2572
43758W        W62505  24.241  32.336  18.189  0.0152  0.4350  0.0536
43759W        W62506  22.036  21.129  18.722 -0.2201 -0.1022  0.1292
43760W        W62507  29.353  21.304   7.013  0.3768  0.0993 -0.1692
43761W        W62508  28.012  30.684  11.321  0.0239  0.1001  0.0077
43762W        W62509  18.623  17.777   7.946  0.0590 -0.1124  0.1045
43763W        W62510  25.588  31.810  16.055  0.0237  0.0928 -0.2667
43764W        W62511  11.235  21.087  16.374  0.2628 -0.0698 -0.0841
43765W        W62512  18.729  13.161   9.062  0.3432  0.0084  0.0027
43766W        W62513  26.140  21.959  11.622  0.1081  0.0981 -0.2180
43767W        W62514  34.801  18.288  16.383 -0.2881  0.1403 -0.0145
43768W        W62515   9.317   0.616  25.345  0.1205 -0.0234  0.0098
43769W        W62516  27.823  33.276  24.269  0.0370 -0.0266  0.0319
43770W        W62517  13.100   6.603  18.716  0.1532  0.0391 -0.2274
43771W        W62518  14.753  18.880  10.140  0.1256 -0.0267 -0.0298
43772W        W62519  25.476  24.567  24.205  0.0831 -0.1614 -0.1263
43773W        W62520  24.876   3.743   1.188  0.0664  0.1737  0.1763
43774W        W62521   6.781   8.653   6.696 -0.1322 -0.1773  0.0904
43775W        W62522   9.617  30.528  14.126 -0.2478  0.0664  0.2876
43776W        W62523   3.016   8.804  22.727  0.3792  0.2139 -0.0408
43777W        W62524  30.636   7.599  17.356 -0.0387  0.2680 -0.0292
43778W        W62525  35.053  17.453  24.729  0.3452 -0.1078  0.0420
43779W        W62526  15.999  12.775   5.004  0.2177 -0.1181  0.0282
43780W        W62527   1.172  10.798  21.798  0.1493  0.0580 -0.2630
43781W        W62528   8.663   7.785  19.437 -0.1603 -0.0143 -0.1154
43782W        W62529  13.223  33.407   0.833  0.1238 -0.1687 -0.1880
43783W        W62530  22.461  23.522  23.191 -0.0544 -0.1799 -0.1387
43784W        W62531   5.119  16.074  24.516 -0.0470 -0.0779 -0.4315
43785W        W62532  20.603  29.784  20.897  0.2797  0.1840 -0.1890
43786W        W62533   8.007   5.464   0.791 -0.3455 -0.1941 -0.2680
43787W        W62534  22.853  24.066  16.492 -0.1588 -0.2459  0.0291
43788W        W62535  13.107   5.944   8.274  0.1005 -0.0028  0.2471
43789W        W62536  28.831  30.562  20.175 -0.3037 -0.4138 -0.0908
43790W        W62537  15.225  19.923   5.980 -0.2731 -0.1600  0.4692
43791W        W62538   0.490   8.742  19.989 -0.0610  0.1905  0.2159
43792W        W62539  13.202   1.804  25.952 -0.0512 -0.1341 -0.2734
43793W        W62540  22.097  22.684   3.898  0.1207  0.0489  0.1135
43794W        W62541  11.227   4.551  23.556 -0.2127  0.2179 -0.1184
43795W        W62542  17.604   5.371   1.328 -0.1629  0.0464  0.1485
43796W        W62543  22.890   0.211  22.930  0.1314  0.1751 -0.0341
43797W        W62544  31.607  17.230  15.354  0.1304 -0.0613 -0.3138
43798W        W62545   5.688  27.543  20.438  0.1516  0.1935 -0.2170
43799W        W62546  27.203  25.973  16.069  0.1917 -0.0747 -0.1377
43800W        W62547  27.822  26.218  11.814  0.1112  0.3630 -0.0283
43801W        W62548  12.480   9.071   0.093 -0.2473  0.2268  0.2904
43802W        W62549   1.244  22.872  19.345  0.1010 -0.1914 -0.0633
43803W        W62550  34.261  21.637  16.134 -0.0352 -0.2660  0.0836
43804W        W62551  12.631  30.202   7.180  0.3885  0.3577  0.0808
43805W        W62552  17.357  18.607  19.888 -0.0905  0.0180  0.2693
43806W        W62553  33.519  10.148  19.491 -0.0086  0.2278 -0.1192
43807W        W62554   9.460   0.672  20.751 -0.0304 -0.2840 -0.1891
43808W        W62555  35.140   3.767  24.432  0.0805  0.1288 -0.0431
43809W        W62556   6.904  32.420  23.729  0.0451 -0.3543  0.1688
43810W        W62557   1.647  20.504  16.620 -0.0433  0.0885 -0.1153
43811W        W62558  19.590  30.350  23.132 -0.0384 -0.0640 -0.0710
43812W        W62559   5.348  35.109   5.010  0.2050  0.0128  0.0926
43813W        W62560   1.842  15.032  23.815  0.0736  0.1984  0.2359
43814W        W62561  31.758  10.100  11.029 -0.2454 -0.0572  0.0577
43815W        W62562  29.014  31.395   5.107  0.1273 -0.2151 -0.0554
43816W        W62563  29.633  20.407   7.319 -0.0308 -0.2304 -0.0820
43817W        W62564  21.310  18.299  25.787 -0.2808 -0.1931  0.2704
43818W        W62565  23.523  17.998  21.257 -0.2965  0.1115  0.2097
43819W        W62566  16.836   6.653   2.125 -0.0670  0.1844 -0.1318
43820W        W62567  19.545   9.546   1.669 -0.1525  0.6091 -0.0503
43821W        W62568   3.820  11.455  17.352  0.2319 -0.0816  0.0412
43822W        W62569  20.684  16.315   6.173 -0.2467 -0.2768  0.0971
43823W        W62570  32.009  14.122   9.872  0.1721  0.2018  0.0116
43824W        W62571  22.037   6.213  15.811 -0.2229  0.2933  0.1523
43825W        W62572   0.752  18.761   1.259 -0.0469 -0.1027 -0.2538
43826W        W62573   6.662   3.815  11.409 -0.0787 -0.0573  0.0161
43827W        W62574  13.752   7.756   1.387  0.2961 -0.2401  0.2560
43828W        W62575   5.579  29.658   2.109  0.1039 -0.0072  0.0850
43829W        W62576  25.341  22.060  16.939 -0.0955 -0.3627  0.0085
43830W        W62577  14.958  28.992  25.528  0.1636  0.3725 -0.2827
43831W        W62578  33.269  25.248  18.890  0.4323 -0.1153  0.3239
43832W        W62579  21.316  18.306  16.678  0.1278 -0.1865 -0.4408
43833W        W62580   6.247  28.293   0.422 -0.3910 -0.2753  0.2500
43834W        W62581  34.648  21.419  18.954 -0.2889 -0.2891 -0.0400
43835W        W62582  26.274  12.876  13.513  0.1281  0.1145  0.0613
43836W        W62583  22.754   5.281  20.073 -0.1042 -0.0650 -0.0302
43837W        W62584  21.230  24.649  26.133  0.1596 -0.1945  0.0340
43838W        W62585   2.360  29.370   1.610  0.0875 -0.2742  0.0175
43839W        W62586  32.118  23.974   0.079 -0.1247  0.1863 -0.1678
43840W        W62587  14.484  14.084  19.438 -0.2505  0.0511 -0.2605
43841W        W62588  18.024  34.506  17.261  0.0123  0.0339  0.0637
43842W        W62589  23.199  34.020  18.322  0.2111 -0.2466  0.0677
43843W        W62590  15.705  28.147   1.722  0.1075 -0.0909 -0.0140
43844W        W62591  26.626  25.846  15.429 -0.1062 -0.1446 -0.0592
43845W        W62592  28.251   8.945  25.081  0.0935 -0.3692 -0.1171
43846W        W62593   1.402  30.845   9.098 -0.0250  0.1998 -0.4538
43847W        W62594   1.610  16.143  25.966 -0.1390  0.2190  0.2385
43848W        W62595  24.540  20.867  21.627 -0.0911  0.0296  0.0387
43849W        W62596   1.676  13.786  23.935  0.1026  0.3292  0.0283
43850W        W62597   7.467  30.295  22.991 -0.2713 -0.2897 -0.0563
43851W        W62598   7.852  27.503   5.255  0.1869 -0.2111 -0.2421
43852W        W62599  19.556  32.623  17.728  0.0251  0.0313  0.3502
43853W        W62600  10.687   7.699  23.169  0.0037 -0.0703 -0.0681
43854W        W62601  22.748  11.566  18.110  0.3510 -0.1952 -0.0134
43855W        W62602  12.622   7.585   4.391  0.2071 -0.0095  0.1074
43856W        W62603  17.124   0.869   5.478 -0.2105 -0.0692 -0.2108
43857W        W62604   2.266  24.215  17.106 -0.2277  0.4633 -0.1210
43858W        W62605   0.656   7.682  14.548 -0.0156 -0.0574 -0.0538
43859W        W62606   6.436  25.948   1.335 -0.2346  0.1405  0.2075
43860W        W62607  18.462  18.647  24.418  0.1441  0.2929 -0.1820
43861W        W62608  19.467  23.261   8.014 -0.1267 -0.1580 -0.3341
43862W        W62609  20.415   1.690  25.589 -0.1748  0.0426  0.0064
43863W        W62610  21.511  28.220   4.088 -0.1943  0.2419 -0.1405
43864W        W62611   8.283  12.310  24.799  0.1490  0.0188 -0.1252
43865W        W62612  21.429  31.971  13.758 -0.0853  0.2596  0.2896
43866W        W62613  24.273   4.320  24.958 -0.0044 -0.0180 -0.0737
43867W        W62614  12.315  17.257  20.490 -0.2887  0.1678  0.1269
43868W        W62615   3.562  33.855  18.283  0.2713 -0.1620  0.0790
43869W        W62616   9.531  33.620  13.155 -0.0391  0.3900 -0.0056
43870W        W62617  26.646  29.298  18.455  0.2293  0.1568 -0.0405
43871W        W62618  19.060   8.229   7.779 -0.1575 -0.1231  0.2399
43872W        W62619   7.062  16.582  19.929 -0.1771 -0.0279 -0.0086
43873W        W62620   7.741   4.077   2.500  0.1579 -0.3127 -0.1270
43874W        W62621   3.656  10.157   4.801  0.0340  0.1505 -0.0510
43875W        W62622  17.844  31.482  25.261 -0.0933  0.1198 -0.1719
43876W        W62623  18.108   2.349   6.809 -0.1663  0.2836  0.2757
43877W        W62624   0.136   4.016  21.817 -0.0759 -0.0762 -0.2921
43878W        W62625  13.370  11.362   6.536  0.0777  0.2934 -0.1151
43879W        W62626  21.162  10.137  16.227 -0.2319  0.1530 -0.1275
43880W        W62627   6.241   6.328   5.164 -0.1100 -0.1726  0.1347
43881W        W62628  11.093  22.266  22.870 -0.2301 -0.1691 -0.4778
43882W        W62629  13.684  31.351  22.919  0.2831 -0.0356 -0.3313
43883W        W62630  12.842   4.832   4.177  0.1798 -0.1428 -0.1147
43884W        W62631  12.049  10.369  22.051  0.3885 -0.0124  0.1448
43885W        W62632  27.647  11.377  13.964  0.0818 -0.2657  0.1000
43886W        W62633   2.139   2.816  19.083  0.1153 -0.0685 -0.2484
43887W        W62634  11.102   6.539  10.414 -0.4038  0.1358  0.1720
43888W        W62635   3.574  18.624   0.483 -0.0381 -0.0166 -0.3426
43889W        W62636  11.558   5.882   1.370 -0.0357 -0.2314 -0.1231
43890W        W62637  18.418  10.737  21.222 -0.1428 -0.1693 -0.2187
43891W        W62638  20.299  34.351  21.181 -0.2798 -0.1095 -0.0729
43892W        W62639  12.666  20.652  11.886 -0.0064  0.1650 -0.0339
43893W        W62640  20.831  24.884  23.203  0.0515  0.0233  0.1881
43894W        W62641  23.629  20.837  22.714  0.0569  0.2003  0.1579
43895W        W62642   6.282  28.680  11.049 -0.0073 -0.3164 -0.0611
43896W        W62643  16.270  34.639  10.673 -0.2872 -0.0649 -0.3379
43897W        W62644   8.738  13.625   2.641 -0.4301  0.1221  0.2066
43898W        W62645  15.363   9.113  20.473 -0.0360 -0.2870 -0.0967
43899W        W62646  30.681  18.996  20.702  0.1409 -0.2895  0.0163
43900W        W62647   5.329  28.380  26.202  0.0507 -0.2074  0.2174
43901W        W62648   3.666  19.063  22.722  0.0403 -0.2480  0.2383
43902W        W62649   4.733   9.508   7.434 -0.3259 -0.1431  0.1607
43903W        W62650  30.318   9.097  12.895  0.2818 -0.0733  0.0683
43904W        W62651  16.197   4.830  22.606 -0.2178  0.2206 -0.1642
43905W        W62652   1.153  10.357  18.819  0.1186  0.0927 -0.1473
43906W        W62653  30.279  13.740   7.741  0.1979 -0.0624 -0.1858
43907W        W62654   2.342   9.413   1.457 -0.2507 -0.0631  0.2361
43908W        W62655  33.369   5.762  17.072  0.3852 -0.2574 -0.2726
43909W        W62656  28.080   5.230  19.638  0.3469  0.2109 -0.0151
43910W        W62657  30.362  25.908  17.423  0.2019 -0.1484  0.0917
43911W        W62658   6.718   6.918  24.417  0.1816 -0.1464  0.0283
43912W        W62659  20.949   7.597  22.210 -0.0300  0.0412 -0.0621
43913W        W62660  19.274   6.355  22.390  0.1694  0.0492  0.1768
43914W        W62661  32.905   0.125  20.585 -0.2066  0.1640 -0.1027
43915W        W62662   3.852  12.422  23.939  0.2153  0.3261  0.1437
43916W        W62663   7.778   0.311  14.889 -0.0604 -0.1074  0.2207
43917W        W62664  31.233   7.362  26.224  0.0957  0.0651 -0.1125
43918W        W62665  35.141   4.143  21.291 -0.1980 -0.1310  0.0789
43919W        W62666   9.341  27.550  22.586 -0.0215 -0.1736  0.0397
43920W        W62667  31.888   1.224   0.317 -0.1064 -0.1909 -0.3882
43921W        W62668  26.343  15.334   0.284 -0.0636 -0.2115 -0.0493
43922W        W62669  18.895  26.922  23.668 -0.1349  0.0394 -0.1880
43923W        W62670   4.266  22.819  20.520  0.2291 -0.0221  0.1883
43924W        W62671   5.148  30.099  25.618  0.2967  0.0490 -0.2846
43925W        W62672  11.540  19.249  22.550  0.0601 -0.0394 -0.5605
43926W        W62673  24.809  11.212  19.001  0.0209  0.0931  0.4227
43927W        W62674  25.455   3.500  17.934 -0.2493  0.1586  0.0604
43928W        W62675   7.368   3.010   8.446  0.3730 -0.2669  0.3195
43929W        W62676  31.110   1.202  23.792 -0.2366 -0.2813  0.4887
43930W        W62677  28.646  19.932  24.133 -0.2206 -0.7771 -0.1058
43931W        W62678  12.698   8.875   2.433  0.4775 -0.1143  0.2634
43932W        W62679  11.152  11.843  22.506  0.0212  0.0477 -0.1639
43933W        W62680  16.226   2.058   6.645  0.1856 -0.1194  0.0544
43934W        W62681   7.040  30.404  14.837 -0.2537  0.2733 -0.1003
43935W        W62682   4.583  24.604   0.130  0.1434  0.3629 -0.1285
43936W        W62683  28.739   5.631  16.461  0.0402  0.1940  0.0753
43937W        W62684   7.253  23.652   1.853 -0.1207  0.1623 -0.1352
43938W        W62685   9.575   3.770   5.565  0.1190  0.0345  0.2391
43939W        W62686   9.105   6.604   5.421  0.0690 -0.0186 -0.1331
43940W        W62687   4.414  19.805   0.249 -0.2931 -0.1930 -0.0439
43941W        W62688   8.329   3.327  10.877 -0.0616  0.2196  0.0103
43942W        W62689   2.309  13.848  15.332 -0.2167  0.1078  0.0996
43943W        W62690   5.968   8.862  21.582  0.0573  0.2534  0.3318
43944W        W62691   8.556  21.879   0.883  0.1050 -0.1687 -0.0320
43945W        W62692   7.868   9.044  10.570 -0.4830 -0.2717 -0.1311
43946W        W62693  18.130  32.123   1.891 -0.0136 -0.1073 -0.0094
43947W        W62694   5.730  25.308   1.164  0.2687 -0.1254  0.1619
43948W        W62695   3.099   6.727   2.723 -0.1184  0.2066  0.0831
43949W        W62696  29.772  12.984  12.401 -0.2009 -0.1956 -0.0291
43950W        W62697  17.936   2.054  17.176 -0.1069  0.4327  0.0221
43951W        W62698  18.208  22.053   5.768  0.1289 -0.2548 -0.0080
43952W        W62699  34.135  23.527   9.606  0.2398 -0.1588  0.1853
43953W        W62700  31.105  29.015  12.821 -0.0168  0.0024 -0.2920
43954W        W62701  19.063  29.295  24.627 -0.2482 -0.0560  0.1701
43955W        W62702  21.465   0.503  16.942 -0.0150 -0.0419 -0.0540
43956W        W62703  20.677  29.312  23.007 -0.1084  0.2188  0.3259
43957W        W62704  20.763  33.137   7.229  0.0977 -0.1785 -0.2445
43958W        W62705   9.361  18.002  13.306 -0.1680  0.0596  0.1910
43959W        W62706  21.840   6.519   4.821  0.2862  0.1015 -0.1525
43960W        W62707  28.327  23.007   8.507 -0.0579 -0.0292 -0.0377
43961W        W62708  16.928  24.183  13.347  0.3208 -0.0655  0.1098
43962W        W62709  29.135  23.754  24.340 -0.3684 -0.0594 -0.2928
43963W        W62710  26.228  18.262   9.874  0.1546  0.3232  0.0318
43964W        W62711  13.219  20.871   0.451  0.0994  0.1374 -0.0722
43965W        W62712  23.737  30.056   3.502  0.1864  0.0753 -0.3317
43966W        W62713   1.399  14.242  23.767 -0.0012  0.1130 -0.0242
43967W        W62714  11.246  29.288  23.464  0.0148  0.1001  0.0790
43968W        W62715  16.012   6.328  23.817 -0.0538 -0.2478  0.0182
43969W        W62716  19.554   8.199   4.048  0.1580 -0.1617 -0.2825
43970W        W62717   6.610  18.427  21.687 -0.0666 -0.1463  0.0212
43971W        W62718  25.015  19.103   8.715 -0.1187  0.0633 -0.0952
43972W        W62719  30.263  32.029   2.959  0.1573  0.0644 -0.1151
43973W        W62720  15.823  26.386   2.243  0.1074 -0.2207  0.3483
43974W        W62721  14.493  30.442  23.332  0.0362  0.1279  0.0518
43975W        W62722  28.530  12.683  23.026  0.2775 -0.2258  0.0896
43976W        W62723   0.402  25.870  23.778  0.0698 -0.1438  0.0286
43977W        W62724  20.321  11.357  25.124  0.3221 -0.0891 -0.1619
43978W        W62725   8.471  16.126   2.987 -0.3755  0.1814  0.1605
43979W        W62726   8.780   9.044  22.535 -0.3023 -0.1446 -0.0752
43980W        W62727  13.786  31.033   0.434 -0.0880 -0.0093 -0.1437
43981W        W62728   2.311  35.307  18.330  0.3428 -0.1509  0.0928
43982W        W62729  20.321  14.910  25.873  0.1272  0.0459  0.0832
43983W        W62730  16.090  28.048   3.189 -0.2950  0.2448 -0.2447
43984W        W62731  20.138  15.232  23.675 -0.0524  0.0569 -0.0683
43985W        W62732  21.530   0.873  24.427  0.0987 -0.1804  0.0276
43986W        W62733   6.844   6.308  18.619  0.0569 -0.0219  0.1918
43987W        W62734   9.561  13.391   0.852 -0.1153 -0.0403 -0.1618
43988W        W62735  16.672  29.411   5.758  0.5132  0.0328 -0.1739
43989W        W62736  15.123   7.542   6.623 -0.0225  0.3961 -0.0285
43990W        W62737  31.114  16.992   9.893  0.2283 -0.1249  0.0029
43991W        W62738  10.941  32.197  14.213 -0.3522 -0.0865 -0.2741
43992W        W62739  29.659   9.569  23.865  0.5187 -0.3327 -0.2356
43993W        W62740  16.495  33.248  18.308 -0.0075 -0.0133 -0.0163
43994W        W62741  26.854  34.101  20.253 -0.1615 -0.0246  0.1987
43995W        W62742  26.013  26.261  18.620 -0.1151 -0.2790 -0.4448
43996W        W62743  15.398   9.927  19.032  0.2306 -0.3758 -0.1404
43997W        W62744  12.482   8.433  23.820 -0.2044  0.2317 -0.3129
43998W        W62745  30.936  17.127  11.705  0.0353  0.0081 -0.2081
43999W        W62746  24.662  25.267  25.913 -0.1985  0.0831  0.2519
44000W        W62747  23.288  15.133  20.585 -0.2053 -0.1289  0.0624
44001W        W62748   4.635  32.330   7.234 -0.2143 -0.2357 -0.0616
44002W        W62749  23.074  15.987  13.935 -0.5049  0.0531 -0.1285
44003W        W62750   1.626   9.521  19.777 -0.3671  0.1823 -0.1597
44004W        W62751  19.105  21.688  22.003  0.1165  0.2763 -0.2232
44005W        W62752  18.059  30.003   1.233 -0.2575 -0.3318  0.0582
44006W        W62753   2.712  20.902   4.012 -0.4565 -0.0217  0.1108
44007W        W62754  21.331  21.850  19.008 -0.2919  0.4087  0.2464
44008W        W62755  21.828  32.767   4.301 -0.1668  0.0040 -0.2621
44009W        W62756  30.856   5.229  20.173  0.0091 -0.0615  0.1228
44010W        W62757   2.548  31.185  22.716 -0.0709 -0.1720 -0.1201
44011W        W62758   3.941   5.452   0.180  0.3397 -0.1941 -0.2182
44012W        W62759  28.860  10.825  14.394 -0.1810  0.0934  0.0585
44013W        W62760  15.384  33.996   1.557  0.2527 -0.1504 -0.0346
44014W        W62761   4.229   2.722  20.483  0.1842  0.0893 -0.1900
44015W        W62762  13.620  31.133  22.473 -0.2180 -0.4415 -0.0510
44016W        W62763   4.216  18.242  16.886  0.0550  0.2581 -0.1906
44017W        W62764   9.063  29.211  15.961 -0.1671 -0.2239  0.4381
44018W        W62765   6.154  29.672  23.288 -0.1691  0.0359  0.0301
44019W        W62766  31.177  14.729  12.249 -0.1298  0.1556  0.1653
44020W        W62767  12.025   2.749   3.447 -0.2065  0.2432 -0.0044
44021W        W62768  25.001  26.127  25.208 -0.1001 -0.4327  0.3238
44022W        W62769  12.281  29.757   1.579 -0.0018 -0.0829 -0.1071
44023W        W62770   4.589  16.276  26.233  0.1302 -0.2173  0.0343
44024W        W62771  13.244  20.233  10.001  0.0607 -0.0619 -0.0297
44025W        W62772  15.584  27.097  22.826 -0.3993 -0.0980 -0.3697
44026W        W62773  31.386  35.276  16.807  0.0863 -0.2529 -0.0302
44027W        W62774  26.680  23.415  13.341 -0.1318  0.1232 -0.0142
44028W        W62775  24.883  29.000  23.278 -0.1278  0.0172 -0.0533
44029W        W62776  14.620   4.652   6.988 -0.2102 -0.0549  0.2120
44030W        W62777  14.007  28.701  24.286  0.0362 -0.3529 -0.0085
44031W        W62778  21.115  10.620  16.483 -0.2062  0.0155  0.3541
44032W        W62779   8.352  16.572  11.886  0.1930  0.1134  0.0042
44033W        W62780  17.749  30.981   4.488  0.3739 -0.0180 -0.0835
44034W        W62781  16.012  11.406  23.379 -0.1316  0.1269  0.1352
44035W        W62782  13.501  32.313  20.651  0.0317 -0.0778 -0.6765
44036W        W62783  19.540   6.104  10.306 -0.1225 -0.1698  0.0661
44037W        W62784   2.871  32.875   3.410 -0.2044 -0.0819  0.0749
44038W        W62785   9.237  35.139  10.956 -0.0156  0.2849  0.1969
44039W        W62786  31.771  11.990  25.770  0.1807 -0.2103 -0.3184
44040W        W62787  19.707  16.311   0.703  0.2583 -0.1179 -0.0793
44041W        W62788  21.440   2.228  16.122  0.2871  0.2691  0.0100
44042W        W62789  16.357  10.774   4.910 -0.3171  0.1723 -0.0229
44043W        W62790  25.318  30.978   5.534  0.2376 -0.2182  0.3060
44044W        W62791  17.773  14.588   5.210  0.1747 -0.3110 -0.0075
44045W        W62792  16.977   5.585  10.828  0.0216 -0.2501 -0.1073
44046W        W62793  33.658  32.680  15.183 -0.1668  0.2269 -0.1007
44047W        W62794  31.180  25.467  17.081  0.1557 -0.0288 -0.5086
44048W        W62795   7.471  21.791   0.556  0.1097 -0.2079  0.4002
44049W        W62796  15.720   5.285  21.478  0.0617 -0.1642  0.0034
44050W        W62797   5.485   8.157   4.749  0.3526 -0.1600  0.3949
44051W        W62798  29.702  31.314  16.882  0.0980 -0.0556 -0.0831
44052W        W62799   8.798  27.676  24.721  0.1674  0.1778 -0.0515
44053W        W62800   8.187  26.497   7.139  0.4128  0.0987 -0.2636
44054W        W62801  32.912  16.332  21.513 -0.1458 -0.5234 -0.4134
44055W        W62802  11.616  18.430   7.685  0.1526  0.0470  0.2216
44056W        W62803   4.191  16.896   5.331 -0.0682 -0.0477  0.1356
44057W        W62804  35.153   1.489   5.479  0.1657 -0.0936 -0.1401
44058W        W62805  33.929  18.531  10.199  0.1630  0.3989  0.2152
44059W        W62806  19.783  31.870   4.840  0.2654  0.1370  0.1094
44060W        W62807  26.177   2.559   0.833  0.3601 -0.1047 -0.0429
44061W        W62808  30.860  15.279  12.395 -0.0129  0.0849 -0.0229
44062W        W62809  29.866  34.614  15.871 -0.0261  0.1714 -0.2608
44063W        W62810   4.170  14.945  16.368  0.1969  0.2145 -0.2830
44064W        W62811   2.237  14.221  13.861  0.2595  0.1402 -0.1696
44065W        W62812   9.545  19.628  13.967  0.0089 -0.2114 -0.0878
44066W        W62813   9.762  31.440  16.223  0.1633 -0.0267  0.2323
44067W        W62814  10.581   2.302   8.571  0.0024  0.2065  0.0259
44068W        W62815   4.420  10.168   8.023  0.1147 -0.0794  0.2824
44069W        W62816  26.144   3.964   4.590  0.0252 -0.0405  0.3482
44070W        W62817  18.001  17.221  19.184  0.1870  0.1536 -0.3172
44071W        W62818  20.807   4.393  23.767 -0.1658 -0.1705 -0.1157
44072W        W62819   0.639  20.017  11.988 -0.1403  0.0151  0.1796
44073W        W62820  25.577  32.515   3.668 -0.0000 -0.1920 -0.2587
44074W        W62821   1.445  34.376  16.039  0.0114 -0.0593 -0.2592
44075W        W62822  24.190  22.655   1.053  0.3244  0.0519 -0.0757
44076W        W62823  29.712  12.021   7.026  0.0129  0.0897  0.1133
44077W        W62824   3.230  24.940   2.992 -0.2903  0.3031  0.0909
44078W        W62825  29.804   6.052  25.287 -0.0513  0.1682 -0.0422
44079W        W62826  22.461  19.056  18.920 -0.3578  0.0678  0.3030
44080W        W62827  27.526  25.101  21.847  0.3402  0.0798  0.0811
44081W        W62828  18.146   1.543  20.248 -0.0770  0.1075 -0.1272
44082W        W62829  30.287  33.204  15.854 -0.2490 -0.1618 -0.0089
44083W        W62830  18.063  21.469  20.831 -0.0433 -0.2112  0.1781
44084W        W62831  31.416   2.186  25.941  0.2192  0.0012 -0.2134
44085W        W62832  34.577   5.411  21.088 -0.1049 -0.0791 -0.0967
44086W        W62833  12.902  11.434   9.836 -0.0851  0.4208 -0.0546
44087W        W62834   8.500   2.179  13.075  0.3671 -0.0737  0.0205
44088W        W62835  13.674   9.068  20.029  0.1684 -0.2253  0.0284
44089W        W62836   6.895  25.913   3.372  0.0248 -0.1940 -0.0268
44090W        W62837   5.912  28.773   7.893  0.1330  0.0045 -0.4741
44091W        W62838   1.620   6.798  20.117  0.1635 -0.0213  0.0277
44092W        W62839  22.008   3.937   0.443  0.0217 -0.0493 -0.2566
44093W        W62840  25.173  30.839   4.301  0.0735  0.1384 -0.2203
44094W        W62841   1.042  10.630  21.022  0.2541  0.0212 -0.3191
44095W        W62842  30.867   8.156  12.529 -0.1735 -0.0820  0.1133
44096W        W62843  26.215   4.409  13.063  0.3649  0.0692 -0.0311
44097W        W62844   1.205  15.035  13.879  0.0847 -0.0281  0.0444
44098W        W62845  24.791  25.467  10.493 -0.1669 -0.0203 -0.3019
44099W        W62846  22.235  28.808   5.543  0.0680  0.0135  0.2134
44100W        W62847  18.829  27.435  25.880 -0.0298 -0.0002 -0.2171
44101W        W62848  25.478  12.859  24.306  0.1380  0.2943  0.2915
44102W        W62849  22.311   6.220  18.106  0.2201  0.0502 -0.1443
44103W        W62850   5.313   6.872   2.261 -0.0467  0.1137  0.1911
44104W        W62851  25.119  13.747  15.822  0.0873 -0.1901 -0.0041
44105W        W62852  23.011  31.380  13.838 -0.0553  0.2251  0.1399
44106W        W62853  11.643  18.634   3.572 -0.0745  0.3071 -0.4895
44107W        W62854  15.552   5.145  18.602  0.2313 -0.0764 -0.0612
44108W        W62855   3.581  15.979  23.440  0.2655 -0.1039  0.2277
44109W        W62856   1.954  13.007  18.649 -0.0851 -0.2992  0.0570
44110W        W62857  15.055  33.313   0.906  0.0114  0.2177  0.0282
44111W        W62858   2.195  29.050   9.058 -0.0370 -0.0306  0.1208
44112W        W62859  28.714  18.021   8.478 -0.2018 -0.0083 -0.0728
44113W        W62860   3.326   8.098   1.215 -0.0487  0.1520  0.0334
44114W        W62861  23.147  24.692  23.477  0.0498 -0.3005 -0.0059
44115W        W62862  17.180   2.170  21.119 -0.2262 -0.0834 -0.2327
44116W        W62863   0.002  11.611  22.708 -0.0900  0.0715  0.0355
44117W        W62864  26.593   0.963   4.008 -0.0807 -0.0252  0.1955
44118W        W62865  15.093  13.440  10.725 -0.1007 -0.1591 -0.0350
44119W        W62866  35.019   7.639  12.195  0.0595 -0.0766  0.0335
44120W        W62867   6.856  10.618  22.367  0.1367  0.0230  0.1306
44121W        W62868   1.836   7.637  21.297 -0.1130 -0.1136  0.3201
44122W        W62869   2.502  14.212   3.723 -0.2151  0.0819 -0.0185
44123W        W62870  32.995   3.704  18.433  0.0398 -0.1770 -0.0790
44124W        W62871  19.648  17.212   1.438  0.3528 -0.1978 -0.0753
44125W        W62872  23.541   4.782  20.595  0.0957  0.0080 -0.1766
44126W        W62873  17.816  12.805   4.974  0.0121 -0.1323 -0.0900
44127W        W62874  16.579  25.247   7.388 -0.2976  0.1516 -0.2734
44128W        W62875  31.284  21.758  13.503 -0.1754 -0.0411 -0.1674
44129W        W62876  23.706  11.263  14.636  0.3036  0.1352  0.0776
44130W        W62877  12.549  17.133  21.004  0.4359 -0.0038  0.2170
44131W        W62878  31.917  11.080  23.695  0.2062  0.0354  0.0057
44132W        W62879   3.276   5.687  20.573 -0.0633 -0.3516 -0.0174
44133W        W62880  24.906  33.730  23.519  0.3339 -0.1107 -0.3257
44134W        W62881   0.845  20.573  20.349 -0.0973 -0.1673  0.2059
44135W        W62882   3.649  27.015   8.050  0.1712  0.4348 -0.1880
44136W        W62883   0.512  22.819  12.731  0.0630 -0.0383  0.1183
44137W        W62884  23.714  31.204  24.581  0.0359 -0.2620 -0.2750
44138W        W62885  22.386  30.833   2.925 -0.1829 -0.1396  0.0011
44139W        W62886   1.768  19.172  25.058  0.2303 -0.3358  0.3303
44140W        W62887   2.640  27.387   4.304 -0.2463  0.1519 -0.0142
44141W        W62888  23.495  20.620  19.021 -0.3181 -0.0669  0.0214
44142W        W62889  27.652  19.251  10.156  0.0837  0.1605  0.1546
44143W        W62890  30.402  26.011  23.184  0.0644 -0.1442 -0.0590
44144W        W62891   7.554  28.374   0.149 -0.0596 -0.0365  0.2981
44145W        W62892  23.630   4.632   0.818 -0.1230 -0.0885 -0.1448
44146W        W62893  26.020  18.110  17.261 -0.1794 -0.0356  0.2888
44147W        W62894  26.781  22.348  16.046  0.1087  0.0442  0.3022
44148W        W62895  25.540  28.400  15.975 -0.0560 -0.1435  0.1118
44149W        W62896  11.565  26.771   3.657 -0.0258  0.0508  0.1702
44150W        W62897   6.130  35.136   2.798  0.4078 -0.1255 -0.0792
44151W        W62898  30.863   1.343   0.009 -0.2240  0.0374 -0.0049
44152W        W62899  29.251  18.077   9.374 -0.0322 -0.0744  0.1362
44153W        W62900  13.187  15.357   8.466 -0.2471  0.0614  0.1105
44154W        W62901  10.302   8.858  21.841 -0.2419 -0.2210 -0.3575
44155W        W62902   2.534  34.961   1.338 -0.1915  0.1574  0.2185
44156W        W62903   1.355  26.641   1.455  0.2555  0.3857  0.5254
44157W        W62904  26.197  22.905  15.721  0.0899 -0.4095  0.1822
44158W        W62905  25.439  29.646  21.992 -0.1674 -0.0728  0.0497
44159W        W62906  25.421  33.114  22.993  0.1696 -0.0496 -0.0074
44160W        W62907  33.577   0.539  21.144 -0.1446  0.0644  0.2934
44161W        W62908   6.338  13.796   1.295 -0.0641 -0.0130 -0.2366
44162W        W62909  17.139  31.067  20.478 -0.0978  0.0689  0.0139
44163W        W62910  19.826  27.801  20.644  0.0802 -0.1854  0.1412
44164W        W62911  18.087   3.217  21.831  0.2119 -0.0602 -0.3288
44165W        W62912   9.718  33.572   2.030 -0.1931 -0.0333  0.1249
44166W        W62913   3.766  27.631   7.850  0.1311  0.2324 -0.1305
44167W        W62914  14.758  12.670  22.315  0.3216  0.2606  0.2601
44168W        W62915  28.965  32.471  23.599 -0.0708 -0.0237 -0.0799
44169W        W62916   3.909  23.483   3.738 -0.0303  0.2064  0.1947
44170W        W62917  15.430  28.654   2.886  0.4720  0.2924 -0.0424
44171W        W62918  19.883  30.401  16.721 -0.0714 -0.1821 -0.0987
44172W        W62919  12.307  23.250  23.102 -0.1873  0.1953  0.0600
44173W        W62920  33.130  11.107  26.208  0.0928  0.0839 -0.3091
44174W        W62921  34.679  21.024   9.685  0.0696 -0.1563 -0.0511
44175W        W62922  20.604  18.715  16.799  0.2023 -0.2866 -0.2247
44176W        W62923  31.489  12.917  11.560  0.0364  0.0544 -0.0469
44177W        W62924   3.430  26.710  25.472 -0.1556 -0.1291  0.1957
44178W        W62925   7.341  11.382  20.846 -0.5014  0.0485  0.3251
44179W        W62926   9.887  21.401  13.885 -0.0055 -0.2048 -0.1370
44180W        W62927  24.812  10.999  14.941 -0.1633  0.1986  0.2668
44181W        W62928   3.629   5.804   7.101  0.2139  0.1242 -0.5004
44182W        W62929  11.005   2.378   7.695 -0.0629 -0.1353  0.0540
44183W        W62930   6.302   3.403  13.717  0.0043  0.2463 -0.2291
44184W        W62931  25.644  18.723   7.483  0.2892  0.0108  0.2424
44185W        W62932   3.161   3.610  17.158 -0.0614  0.5910 -0.3399
44186W        W62933  25.675  33.215   2.075  0.0122  0.1605  0.2770
44187W        W62934  14.270   1.585   5.431 -0.1278  0.5347 -0.2752
44188W        W62935  21.874  32.752  22.598  0.2203  0.0725 -0.3798
44189W        W62936  27.970   9.448  21.759 -0.0991  0.0589  0.1022
44190W        W62937  20.809  28.621   2.102  0.2652 -0.1225  0.1711
44191W        W62938  22.025  17.043  16.368  0.2130  0.0604 -0.0785
44192W        W62939  29.701  17.494  14.135  0.0534 -0.1647  0.0268
44193W        W62940  25.972  33.531   5.295 -0.2464  0.0688  0.0565
44194W        W62941   9.047  13.519  10.044  0.2554  0.1972  0.1395
44195W        W62942  27.135   7.177  14.646  0.0245  0.0367 -0.0677
44196W        W62943   3.420  31.335  22.639 -0.0842 -0.0209  0.1137
44197W        W62944  16.658   7.683  19.410 -0.3073  0.1548 -0.2191
44198W        W62945  17.029  21.003   8.495  0.1086  0.3164  0.0509
44199W        W62946   8.252  25.773   2.102  0.1374  0.0905 -0.1764
44200W        W62947  10.243  11.937  21.375 -0.0473  0.0085 -0.0181
44201W        W62948  30.529  28.120   1.811  0.2209  0.1381 -0.1460
44202W        W62949  10.459  19.814   3.286 -0.2069 -0.0475  0.0251
44203W        W62950   0.408  13.675  24.385  0.1111 -0.4275 -0.1095
44204W        W62951  29.532  29.842  23.320 -0.1032 -0.1499 -0.1630
44205W        W62952  18.048   0.502   6.503 -0.3656 -0.0279  0.0271
44206W        W62953  34.484   6.412   4.300 -0.1460  0.0521 -0.0756
44207W        W62954  19.893  27.594   2.295  0.2080  0.0269  0.0798
44208W        W62955  18.185   4.280   0.115 -0.3806 -0.0305  0.2280
44209W        W62956  26.985   6.531  25.721 -0.1638 -0.1433 -0.0816
44210W        W62957  28.388  26.310   2.729  0.0412  0.0193 -0.0309
44211W        W62958  18.676  18.509   6.450 -0.2290  0.0679  0.1452
44212W        W62959  17.646  28.678   0.201 -0.1793 -0.0664  0.4095
44213W        W62960   9.367  15.343   9.503  0.1684  0.3861 -0.3636
44214W        W62961  11.860   1.406  12.325  0.1855 -0.1873 -0.0788
44215W        W62962   2.337  28.096  25.648 -0.1349 -0.1881  0.0598
44216W        W62963  30.910  31.357  13.917 -0.1659  0.2541 -0.1420
44217W        W62964  32.192   3.624  25.239 -0.0937  0.1378 -0.1361
44218W        W62965  25.825  33.676  22.448  0.2537 -0.0233  0.2330
44219W        W62966  30.263  17.008   9.798 -0.1817  0.0183 -0.1555
44220W        W62967  20.843  33.155  19.905 -0.0233  0.2893 -0.2618
44221W        W62968  14.894  32.842   4.440  0.0750 -0.0075  0.1320
44222W        W62969  27.261  34.226  24.743  0.1693  0.0707 -0.0410
44223W        W62970  27.089  24.874  11.878 -0.1409  0.0208  0.2129
44224W        W62971  11.766  32.281  23.866  0.2154 -0.0783  0.2026
44225W        W62972  24.805  32.958   4.882 -0.2570  0.0177 -0.0021
44226W        W62973  21.521  12.338  16.800 -0.0365  0.3599  0.1992
44227W        W62974  33.309   0.563  23.982 -0.2405  0.3657 -0.1373
44228W        W62975  25.520  24.078   1.274 -0.1553 -0.1023 -0.0909
44229W        W62976  34.078   3.438  21.715 -0.2714  0.0937 -0.0071
44230W        W62977  28.483  15.154  21.200 -0.2152 -0.1670  0.1316
44231W        W62978  15.175   0.008  11.141 -0.0230  0.2917 -0.0374
44232W        W62979  17.010   7.202  20.577 -0.1545 -0.0355 -0.0851
44233W        W62980  21.759  26.755   0.792 -0.1325  0.0226  0.0515
44234W        W62981   5.220  21.112  23.158 -0.1248  0.0134  0.0381
44235W        W62982   0.306  32.347   4.749  0.2337 -0.0450 -0.0262
44236W        W62983  16.682  30.825   8.700 -0.1531  0.0965 -0.2310
44237W        W62984  31.562  31.468  16.619 -0.2521 -0.0192  0.0110
44238W        W62985  16.697   3.452  24.710  0.0657  0.0245 -0.0061
44239W        W62986  15.592  27.037  14.734 -0.0766  0.1735 -0.2031
44240W        W62987   0.642   5.032  17.910 -0.1962  0.6409 -0.2280
44241W        W62988  16.092  13.907  20.186 -0.1556 -0.3083  0.3025
44242W        W62989  31.881  13.026  10.240 -0.0791 -0.2020  0.0117
44243W        W62990  13.651  14.593   1.974  0.0623  0.2562  0.0856
44244W        W62991  32.703  13.455   9.159  0.0533 -0.0044 -0.2538
44245W        W62992  28.197  22.854  22.636  0.1127  0.1914 -0.0258
44246W        W62993  29.567  24.705   8.797 -0.0965 -0.1718  0.0975
44247W        W62994  13.648  26.940  24.093 -0.0016  0.2483  0.2106
44248W        W62995  30.918   7.663  22.748  0.0154  0.2996  0.1405
44249W        W62996  28.049   7.263  13.405  0.4984 -0.0800 -0.0703
44250W        W62997   4.980   1.552  22.161  0.0977  0.1759  0.2615
44251W        W62998  15.750  26.839   3.140 -0.0664  0.1403 -0.1750
44252W        W62999   0.911  16.039   1.942  0.0054 -0.0454  0.0956
44253W        W63000  33.196  22.102  23.387  0.1084 -0.1910  0.0874
44254W        W63001   7.998   5.738   2.127  0.0715  0.0912 -0.2053
44255W        W63002  17.895  12.866  22.034  0.0872  0.1893  0.1806
44256W        W63003   9.550  32.711   5.751 -0.1175  0.0238  0.1845
44257W        W63004  31.202  19.628  25.827 -0.0959  0.2656 -0.0634
44258W        W63005   7.188   1.538  22.612 -0.0803 -0.1099  0.1097
44259W        W63006   9.048  25.379  25.835  0.1939 -0.1177  0.0988
44260W        W63007   2.648   6.356  21.825 -0.2796 -0.0787  0.1619
44261W        W63008   4.021  28.295  24.571  0.1374  0.0429 -0.3640
44262W        W63009  22.008  10.656  15.293  0.0488 -0.0714  0.0766
44263W        W63010  27.848   0.809  21.631  0.1461 -0.0808  0.0867
44264W        W63011  23.285  19.275  20.761 -0.1736  0.2168  0.0801
44265W        W63012  12.560   3.217   6.336 -0.0047 -0.0428  0.0914
44266W        W63013  33.395  16.346   9.240 -0.3274 -0.2114 -0.0458
44267W        W63014  10.359  34.102   4.133  0.1214  0.0010 -0.0737
44268W        W63015  19.828   1.820  21.963 -0.2195  0.1709  0.1523
44269W        W63016  26.306   0.258  15.727  0.3557  0.0644  0.0351
44270W        W63017   4.465   3.822  22.741 -0.0292  0.5525 -0.5439
44271W        W63018  21.679   8.300  17.165  0.0035 -0.0174  0.0575
44272W        W63019  22.981  33.519   0.662  0.1775  0.1501  0.0314
44273W        W63020   4.791  19.299   6.495 -0.2023 -0.4004  0.2415
44274W        W63021  31.875  22.930  17.954  0.0985 -0.1678 -0.0524
44275W        W63022  34.302  24.641   0.421  0.0549 -0.0292  0.1463
44276W        W63023   2.031   9.174  21.499  0.2559  0.2906  0.0740
44277W        W63024  20.368  31.542  16.479 -0.1551  0.0287  0.2581
44278W        W63025  27.979   7.125  17.179 -0.3289 -0.0110 -0.1277
44279W        W63026   2.895  27.705  25.216  0.5774  0.0393  0.1138
44280W        W63027  12.068   3.420  23.041 -0.1078  0.2172  0.1168
44281W        W63028  17.126   0.017  17.973  0.0851  0.1736 -0.1186
44282W        W63029   9.803   0.550  25.073 -0.1136  0.3464  0.1238
44283W        W63030   9.054   7.064   8.904 -0.2599 -0.1914 -0.1600
44284W        W63031   9.018   5.320  20.275 -0.1402  0.2164  0.2483
44285W        W63032   3.253  21.116  21.947 -0.0867  0.2143 -0.0135
44286W        W63033  15.961  22.728  13.821  0.0064 -0.3096  0.1300
44287W        W63034   9.708  19.807   5.857  0.0242  0.0747 -0.4042
44288W        W63035  10.564   8.797  12.692 -0.1839  0.0033  0.0027
44289W        W63036  17.904  21.741   4.848  0.2332  0.1551  0.1386
44290W        W63037  20.845  29.715  15.991  0.0613 -0.1415  0.2299
44291W        W63038   8.678   0.921  11.348  0.0038  0.2513  0.1078
44292W        W63039   6.934  33.580  11.720  0.2122 -0.2869 -0.1563
44293W        W63040  30.568  15.491  24.115 -0.1583  0.0992  0.0359
44294W        W63041  10.084  31.217   8.561  0.1802 -0.1937  0.1150
44295W        W63042  29.002  28.358  12.949 -0.1470  0.0658 -0.5668
44296W        W63043  10.072  26.230  26.213  0.1495 -0.0894  0.0650
44297W        W63044  25.545  22.221  11.096 -0.1322 -0.1701  0.2122
44298W        W63045  10.144   9.368  20.058  0.1026 -0.2086  0.1926
44299W        W63046  14.108  31.963   3.469 -0.0447  0.3117  0.0201
44300W        W63047  12.426  14.861  25.868 -0.1940  0.2652  0.0528
44301W        W63048  35.111  12.791  12.361  0.0346  0.1660 -0.1373
44302W        W63049  18.416  30.680  17.494 -0.0298 -0.1202 -0.0654
44303W        W63050   2.038  21.082  20.658 -0.0322 -0.2224 -0.3902
44304W        W63051   4.614  18.276   2.243 -0.1702 -0.0886  0.1165
44305W        W63052  25.002  21.423   8.312 -0.0261  0.0764  0.1226
44306W        W63053   9.019  33.094   5.149 -0.0863  0.2409 -0.2415
44307W        W63054   4.936  28.950  14.943 -0.0997  0.0408 -0.1055
44308W        W63055  20.819  16.896  22.816 -0.0989  0.3648  0.0579
44309W        W63056  12.225  16.126   8.786 -0.2449  0.1290  0.0353
44310W        W63057   8.022   9.216  21.718  0.1136 -0.0103 -0.2378
44311W        W63058  16.129  14.416  22.019  0.0723  0.1714 -0.1029
44312W        W63059   3.933  28.584   6.061 -0.2125 -0.0950 -0.1148
44313W        W63060  11.047   1.336   5.929 -0.0820 -0.0978 -0.3707
44314W        W63061   8.430  31.685  25.570 -0.1088  0.0415  0.0156
44315W        W63062  24.575  17.202   9.984 -0.0229 -0.2837 -0.4488
44316W        W63063  10.104  25.654  25.011  0.1938  0.0240 -0.0091
44317W        W63064  33.754  34.214  24.540  0.2627  0.2154  0.2131
44318W        W63065   0.321   4.636  14.534 -0.2169  0.2603 -0.2593
44319W        W63066   9.275  23.321  17.347 -0.0369 -0.0083 -0.1331
44320W        W63067  32.617  21.631  16.220  0.1576  0.0197 -0.1302
44321W        W63068  20.507  23.044   1.485  0.0652  0.0051 -0.0226
44322W        W63069  24.865  16.945  23.280  0.3408 -0.0959 -0.0125
44323W        W63070   3.685  25.380  10.300  0.2204 -0.2032 -0.2316
44324W        W63071  22.692  13.919  26.120  0.0938 -0.0163  0.1763
44325W        W63072  18.097   0.893  21.863  0.1620  0.0829  0.0254
44326W        W63073  16.330  10.778  24.949  0.2894  0.1612 -0.0127
44327W        W63074  31.898  23.319  13.503  0.0153 -0.3056 -0.2751
44328W        W63075  11.596   9.336   7.110  0.2201  0.1007  0.0951
44329W        W63076   4.854  34.410   3.831  0.4770  0.3031 -0.0400
44330W        W63077   7.932  30.013  21.979  0.1637 -0.0067  0.2593
44331W        W63078  31.330   1.963   1.655  0.0458 -0.2965  0.0938
44332W        W63079  31.798  21.067   9.351  0.0645 -0.0595  0.1144
44333W        W63080  18.753   1.582  19.120 -0.0544  0.0217 -0.0793
44334W        W63081   7.897  27.991  25.101 -0.2125 -0.1321 -0.0464
44335W        W63082  33.812  13.910  11.951 -0.2887 -0.2088  0.1049
44336W        W63083  16.464  25.426   9.824  0.2146 -0.5312  0.1378
44337W        W63084  12.420  30.947  15.614  0.1554  0.2851  0.1267
44338W        W63085  25.711   2.284  18.027 -0.2922 -0.1721  0.3019
44339W        W63086  28.472   9.875  10.125 -0.2509 -0.0529 -0.0728
44340W        W63087  25.166  31.453  15.082  0.1024  0.2482 -0.0144
44341W        W63088  15.591  23.221  15.635 -0.0116 -0.0446 -0.0619
44342W        W63089  31.626  18.768  19.783  0.1354  0.4260  0.1181
44343W        W63090  13.332   1.923   9.635  0.1469  0.1097  0.3813
44344W        W63091  22.568   1.122   6.073 -0.4235  0.2931  0.2177
44345W        W63092  14.502  12.198  13.321  0.0255 -0.1728 -0.2083
44346W        W63093   8.769  22.939  23.111  0.0218 -0.0046 -0.1542
44347W        W63094   9.483  18.933  23.041  0.0844 -0.1291  0.3064
44348W        W63095   1.859  24.936   1.958  0.0350 -0.1131  0.2934
44349W        W63096   5.510  32.444  21.925 -0.2773  0.0741 -0.0231
44350W        W63097  27.821  11.753  10.897  0.0214  0.3752  0.1430
44351W        W63098  25.628  24.312  11.169 -0.0538 -0.0988 -0.0306
44352W        W63099   7.571  34.664  12.428  0.4846  0.1202 -0.2449
44353W        W63100  16.926   5.047   0.961  0.2587  0.0950 -0.1230
44354W        W63101  17.870  31.714  21.750  0.1054 -0.0560  0.0477
44355W        W63102  11.148   4.914  13.678 -0.2077  0.2648 -0.2652
44356W        W63103   2.003  13.098   1.956 -0.2893 -0.0358  0.0503
44357W        W63104  31.902  25.283  14.379 -0.0262  0.0218  0.3755
44358W        W63105  15.733   1.525   4.271  0.0298  0.2819 -0.1128
44359W        W63106   8.094  13.274   0.561 -0.2641  0.0740 -0.4271
44360W        W63107  31.092  31.210  22.607 -0.0634  0.1576  0.0812
44361W        W63108  15.737  22.352   1.955  0.0668  0.2895 -0.4456
44362W        W63109  22.976  31.750  25.631  0.0021 -0.0714  0.0944
44363W        W63110  32.857   9.180  12.544 -0.0757  0.1421 -0.2248
44364W        W63111   2.218  28.163  19.506  0.1107  0.0030 -0.1423
44365W        W63112   8.477  23.837  11.432 -0.3129 -0.0238 -0.2515
44366W        W63113  29.791  26.775   8.235 -0.0646  0.0051 -0.2395
44367W        W63114  16.323  14.144  12.357 -0.1286  0.2954  0.0861
44368W        W63115   0.922   7.748  17.844 -0.1666 -0.3027  0.0377
44369W        W63116  27.237   6.493  13.161 -0.4104  0.0889 -0.0332
44370W        W63117   8.223  15.584  11.074  0.0540  0.0415  0.0592
44371W        W63118  13.966  18.671  25.199 -0.0188  0.1179 -0.1347
44372W        W63119  28.157   3.500  25.571  0.0437 -0.1800  0.3932
44373W        W63120  34.317   8.201   1.534 -0.1548 -0.2296 -0.0673
44374W        W63121  32.934  34.814  13.077  0.1101  0.3050 -0.2617
44375W        W63122  31.604   2.395  13.894 -0.0388  0.1416 -0.0735
44376W        W63123  13.755  12.516  24.559  0.1601 -0.0998 -0.3137
44377W        W63124  32.736  10.211  15.677 -0.2320 -0.0155 -0.0822
44378W        W63125   6.299  33.924   0.653 -0.1188  0.4420 -0.2010
44379W        W63126  14.704  23.013  14.705  0.0278  0.1402  0.0070
44380W        W63127  20.236  31.024  17.197 -0.0102  0.3378 -0.2229
44381W        W63128  25.022  26.215   2.076 -0.1172 -0.1019 -0.1800
44382W        W63129  11.774  30.644   6.711  0.4937 -0.0837 -0.1538
44383W        W63130  12.283  11.492  20.264 -0.2522 -0.1719  0.1291
44384W        W63131  15.315  23.732   9.945  0.0445 -0.3655 -0.2695
44385W        W63132  27.264  16.734  18.673  0.3023  0.1555  0.1534
44386W        W63133  34.826  34.597   7.121  0.1077 -0.1670 -0.0671
44387W        W63134  30.296   5.050  25.457  0.0821  0.2673  0.0273
44388W        W63135  17.157  17.983   3.682  0.1621  0.3489  0.1003
44389W        W63136   6.305  30.586   6.135  0.2287 -0.1078  0.1060
44390W        W63137  25.788  22.644   7.819  0.1527  0.1010  0.3173
44391W        W63138  18.310  15.319  18.912  0.4296  0.0369  0.1754
44392W        W63139   3.905   1.064   1.797  0.1201 -0.4002  0.0916
44393W        W63140  24.180  13.100   1.986  0.0079  0.3648  0.1486
44394W        W63141  18.057  25.146  11.965  0.1050 -0.0062 -0.0313
44395W        W63142   7.821  23.224   9.654  0.3054 -0.0189  0.3455
44396W        W63143  13.620  21.434   8.024 -0.1776 -0.4458 -0.0434
44397W        W63144   7.140  13.479   7.935  0.0423  0.0908  0.2881
44398W        W63145   0.446  11.401  25.473 -0.3895 -0.0752  0.0116
44399W        W63146  34.546   9.255   0.462 -0.2823  0.3343 -0.1049
44400W        W63147   5.440  12.385  18.225  0.0474  0.1667  0.1695
44401W        W63148  10.115  14.170  13.450 -0.2282 -0.1196  0.0952
44402W        W63149  14.745  23.689   7.258 -0.0342  0.0792  0.0401
44403W        W63150  28.998  26.306   8.067 -0.0486  0.2503 -0.0553
44404W        W63151  30.711   9.991  16.886 -0.1020  0.0358  0.1942
44405W        W63152  32.966  30.471  22.532 -0.0607  0.0106 -0.0556
44406W        W63153  33.042   4.057  23.235 -0.1724  0.2838  0.1011
44407W        W63154   0.620  10.118   0.033 -0.0017  0.1260  0.3840
44408W        W63155  12.701  34.039  13.125 -0.3474 -0.1774 -0.4393
44409W        W63156  29.045   8.692  21.946 -0.1298  0.2139 -0.0534
44410W        W63157  23.514  24.745   2.441 -0.1070 -0.0394  0.0968
44411W        W63158  29.023  23.594  23.873  0.4261 -0.0379 -0.3727
44412W        W63159  14.113  31.518   3.790  0.2490  0.1226 -0.1408
44413W        W63160  20.240  20.477   6.843 -0.1280  0.1540  0.2388
44414W        W63161  28.200  31.041   2.913 -0.1875  0.0277 -0.2782
44415W        W63162   8.906  28.536   8.182  0.0101  0.1195  0.2979
44416W        W63163  31.960  26.502  20.426  0.1170  0.1107  0.0588
44417W        W63164  15.297  17.524  13.213  0.2531 -0.1737  0.4586
44418W        W63165   2.275  34.628  10.269 -0.0843  0.3975 -0.1814
44419W        W63166  13.931  21.148  11.601 -0.1422 -0.1940  0.3713
44420W        W63167   5.331  17.464  20.396  0.1827 -0.2646  0.2890
44421W        W63168  34.237   1.171  18.157  0.1273 -0.0449 -0.0349
44422W        W63169   8.740  26.977  11.017 -0.4040  0.0843 -0.3210
44423W        W63170  29.768   8.445  17.568  0.0887 -0.0985  0.1038
44424W        W63171  24.929  13.780  25.133 -0.1794  0.2299 -0.0855
44425W        W63172  11.498  30.286  13.613 -0.3761  0.1776 -0.0581
44426W        W63173  12.690  17.647  25.536 -0.1635  0.1485  0.0551
44427W        W63174  19.639  13.154  22.462 -0.0495  0.0223  0.1531
44428W        W63175  22.659  29.850  18.913  0.0516 -0.0196 -0.1566
44429W        W63176  32.012  14.289  18.898  0.0703 -0.2483 -0.2011
44430W        W63177  29.189  23.445   6.207 -0.0570  0.0228  0.1474
44431W        W63178   7.904   5.118   1.221  0.0028  0.2249  0.2112
44432W        W63179   3.309   7.223  16.506  0.0224  0.1460 -0.1679
44433W        W63180  15.900   2.789   6.083 -0.3078  0.1782 -0.1318
44434W        W63181  33.371   5.712   5.353  0.0784 -0.1952 -0.1400
44435W        W63182  21.241   6.042  17.451 -0.1729  0.1076 -0.1749
44436W        W63183   2.814  15.531  17.100 -0.0731 -0.2811 -0.0286
44437W        W63184  16.849  25.677   6.080  0.2208  0.2734  0.2002
44438W        W63185   2.243  20.826  21.485  0.0801  0.1149 -0.1881
44439W        W63186  32.149  24.459  11.840  0.0317 -0.0382  0.2550
44440W        W63187  33.723  16.614  12.559 -0.0528 -0.2445  0.4919
44441W        W63188   5.478  26.300   6.639 -0.3328 -0.2260  0.4529
44442W        W63189  15.060  18.100   0.512 -0.2410  0.5118  0.1145
44443W        W63190  23.182  16.750  21.132  0.2655  0.0860 -0.3859
44444W        W63191  11.186  35.108  22.543  0.1302 -0.4686  0.2376
44445W        W63192  14.051  10.581   2.264  0.2537  0.1085 -0.0076
44446W        W63193  28.561  22.697  20.781  0.0772  0.0572  0.1599
44447W        W63194  10.554  34.431   2.304 -0.3740  0.2394  0.2154
44448W        W63195  28.067  21.595  16.524  0.1213  0.0803  0.0624
44449W        W63196  14.849  19.512  21.254  0.0501 -0.0256  0.0800
44450W        W63197  19.116  10.506   8.317 -0.2569  0.0166 -0.3177
44451W        W63198  17.048  23.332   8.033 -0.0067  0.0890  0.3105
44452W        W63199  11.776  25.554  23.642  0.1313  0.1082  0.3904
44453W        W63200  16.079   3.117   2.890  0.0837 -0.0352  0.0416
44454W        W63201  26.410   3.497  25.443 -0.1693  0.3304  0.1127
44455W        W63202   8.973   4.342   3.069 -0.1249  0.0092  0.3131
44456W        W63203  24.593  28.065  11.130  0.3256 -0.0346  0.0347
44457W        W63204   0.653   0.346  22.382 -0.2121  0.0795  0.2766
44458W        W63205  26.873  18.483   6.955  0.1572 -0.0601  0.0354
44459W        W63206   1.625   8.137  13.309  0.0036  0.2937  0.0816
44460W        W63207   5.090  22.670   4.555 -0.1381  0.0862  0.3019
44461W        W63208  15.832  18.331   1.292  0.1407 -0.1834 -0.2667
44462W        W63209  23.288   4.641   7.763 -0.0703 -0.0298  0.1399
44463W        W63210  33.515  12.672  22.052  0.1237 -0.3716  0.1308
44464W        W63211  35.239  34.303   3.063 -0.2173 -0.0993 -0.0103
44465W        W63212  24.762  16.028   9.712  0.1454  0.0388  0.2988
44466W        W63213  11.063  26.797   3.024  0.1041  0.1444  0.0352
44467W        W63214  13.713   4.506   0.259 -0.3036 -0.1532  0.4017
44468W        W63215  12.879   1.536   6.023  0.1192 -0.1240  0.0634
44469W        W63216  23.258  21.126   3.627  0.1390  0.0703 -0.2641
44470W        W63217  33.116   0.534  20.893 -0.0600  0.0016  0.1339
44471W        W63218  25.791  16.302  16.099 -0.0499 -0.0797  0.0914
44472W        W63219  22.345   9.480   1.293 -0.1885 -0.0810 -0.0990
44473W        W63220  27.481   7.418   9.810  0.1454  0.2457 -0.4369
44474W        W63221  23.062   5.901  20.876  0.2401  0.2777 -0.1664
44475W        W63222   7.181   6.727   3.777  0.0903 -0.1166  0.0220
44476W        W63223   7.514   4.768  18.795  0.0151 -0.1625  0.3771
44477W        W63224  26.575   7.483  22.277 -0.1139 -0.2609  0.0159
44478W        W63225   2.240   1.428  19.979  0.1278 -0.0354 -0.4389
44479W        W63226  32.370  10.036  21.311 -0.1392 -0.1222 -0.2747
44480W        W63227   4.815  13.514  16.535  0.0452  0.1932  0.3277
44481W        W63228  11.645  15.407   3.905 -0.2288 -0.0077 -0.2813
44482W        W63229   6.328  30.795  21.177  0.1656  0.1523 -0.2208
44483W        W63230  33.911  19.926   9.204  0.3555  0.2033 -0.4118
44484W        W63231  16.666  26.945   5.781 -0.1372 -0.0692 -0.0820
44485W        W63232  31.902  12.144  19.804 -0.2184 -0.2817 -0.1314
44486W        W63233   7.464  34.551   8.360  0.1937  0.0054  0.2554
44487W        W63234  26.707  30.258  25.054  0.2546  0.1153  0.0062
44488W        W63235  14.271   4.226  23.524  0.0448 -0.2145  0.0250
44489W        W63236  29.576   2.468   0.914 -0.1906  0.2018 -0.1208
44490W        W63237  10.101  25.681  23.602  0.0817  0.4216  0.0462
44491W        W63238  20.812  33.050  20.757 -0.0046  0.1228  0.5142
44492W        W63239   9.088   1.369  13.784  0.1086  0.0394  0.0725
44493W        W63240  19.883  18.394   3.547 -0.0977  0.1690  0.0014
44494W        W63241  29.718   8.461  25.933 -0.0668  0.0114 -0.0540
44495W        W63242  29.988  12.315  21.302  0.3064  0.1936  0.0946
44496W        W63243  33.736  18.557  17.058 -0.0750  0.0750  0.2615
44497W        W63244  25.876  19.470  24.981  0.2109  0.0736 -0.0488
44498W        W63245  17.639  12.479  12.012 -0.0135  0.2112  0.0217
44499W        W63246   0.026  25.158   1.546 -0.0674 -0.0502  0.1131
44500W        W63247  33.886   9.040   3.128  0.1158 -0.1347 -0.2795
44501W        W63248  10.129  10.425  23.728  0.1253  0.2613  0.5041
44502W        W63249  33.339   3.124  16.773  0.0797  0.0964  0.2262
44503W        W63250  21.184  18.245  21.723 -0.3116  0.0826 -0.0010
44504W        W63251  29.145   8.201  22.048  0.0456 -0.0487  0.1482
44505W        W63252  33.899  31.758  19.575  0.2157 -0.1879  0.0957
44506W        W63253  25.449  14.188  23.839  0.1871 -0.1190  0.2197
44507W        W63254  31.868  34.234  19.067 -0.1370 -0.1214 -0.3035
44508W        W63255   5.508   2.091   7.687 -0.0763 -0.2650  0.3714
44509W        W63256  14.135   1.663  25.228  0.2223  0.2564  0.1084
44510W        W63257   4.977  32.832  20.263 -0.2063 -0.3166  0.2152
44511W        W63258  16.462  27.708   9.097 -0.2196  0.0357 -0.2135
44512W        W63259  31.605   1.375  12.131  0.0422 -0.1192 -0.0323
44513W        W63260  35.157  32.792  25.843 -0.0681 -0.0219 -0.0151
44514W        W63261  32.190  18.031  18.694  0.3381  0.1540 -0.0583
44515W        W63262  13.261  17.034  14.819 -0.2396  0.1219 -0.0094
44516W        W63263  12.338  11.823  22.568  0.0962  0.0792 -0.1266
44517W        W63264  24.519  15.396   0.736  0.1333  0.2621 -0.0724
44518W        W63265  19.733  20.902  19.933  0.1272 -0.2050  0.1807
44519W        W63266  32.676   2.425   1.760  0.0560 -0.2847  0.3115
44520W        W63267   6.488  35.149   5.556 -0.0857  0.1529  0.2841
44521W        W63268   2.000   2.422  16.302  0.2111  0.1608 -0.2074
44522W        W63269  26.363  10.934  11.343  0.0021  0.0463  0.1705
44523W        W63270  23.026  24.412   0.451  0.0428  0.0865 -0.1240
44524W        W63271  34.116  12.312  14.721  0.0792 -0.0459  0.1087
44525W        W63272  27.027  24.672  18.955 -0.1513 -0.0047 -0.2703
44526W        W63273  14.924  18.823  24.998  0.4652 -0.2457 -0.0805
44527W        W63274  11.690  14.706  20.793  0.2563 -0.1203  0.2467
44528W        W63275  21.913   3.024  16.106  0.0128 -0.1996  0.0899
44529W        W63276  15.012   1.537  24.573  0.0194 -0.0361  0.0908
44530W        W63277   5.031   4.404  21.035 -0.0137  0.1504 -0.2351
44531W        W63278  19.017   2.580  15.381  0.1962  0.0180  0.0492
44532W        W63279  23.960  26.962   3.252 -0.0156 -0.2332  0.2693
44533W        W63280   0.159   5.107  15.952  0.1140  0.4658 -0.2629
44534W        W63281  26.684   4.145  12.963  0.2172  0.0281  0.1339
44535W        W63282   0.215  31.408  17.991  0.1986 -0.1352  0.1817
44536W        W63283  32.747   5.339  12.925  0.1270  0.3044  0.1783
44537W        W63284  23.592  34.279   3.289  0.0258  0.0089 -0.2488
44538W        W63285  35.311   0.216   2.474  0.0045 -0.2924  0.0769
44539W        W63286   8.383   8.735   2.697 -0.3385  0.2098 -0.0761
44540W        W63287   7.975  24.392  22.031  0.0999 -0.1268  0.1677
44541W        W63288   7.213  18.180  18.949 -0.2272 -0.2657 -0.0277
44542W        W63289  29.835  30.415  21.896 -0.3674  0.0088 -0.0537
44543W        W63290   0.975  18.195   2.184  0.0387 -0.2255  0.0003
44544W        W63291   2.524   1.473   7.397 -0.1048 -0.1233  0.1976
44545W        W63292  19.479  18.082  23.157  0.0207  0.1041  0.0829
44546W        W63293  20.505  25.287  17.358 -0.4498 -0.0307 -0.2580
44547W        W63294  34.836  10.284  19.549 -0.0511 -0.0260  0.1280
44548W        W63295   4.984  29.682  25.865  0.0842  0.1103  0.3411
44549W        W63296  32.204   4.039  11.878 -0.2081  0.1916  0.2720
44550W        W63297  13.113  14.924   7.870  0.0270  0.2452 -0.2172
44551W        W63298  11.643   0.958  24.112 -0.1315  0.5321 -0.1438
44552W        W63299  10.078   0.052   9.053 -0.0490 -0.1267 -0.0060
44553W        W63300  30.300  27.534  13.069  0.3416  0.0270 -0.0260
44554W        W63301   4.072   0.244  25.203  0.0730 -0.1244 -0.4987
44555W        W63302   7.040  16.880  24.368  0.0417  0.3596 -0.4146
44556W        W63303  11.792  28.461   3.052  0.1082  0.1831  0.1463
44557W        W63304  24.735  25.086  19.428  0.1703 -0.2941  0.1189
44558W        W63305   6.795  10.447  24.517 -0.2136 -0.3712 -0.2152
44559W        W63306  19.506   6.960   5.839 -0.0835 -0.0720 -0.0326
44560W        W63307   5.324   8.340   5.607 -0.0579  0.0457  0.2595
44561W        W63308  17.353   9.479  19.133  0.0656  0.0665  0.2431
44562W        W63309  17.406  11.886  24.087 -0.1003  0.0690 -0.1095
44563W        W63310  30.456  28.533  16.230  0.0910  0.1164  0.0386
44564W        W63311  31.660   2.897   3.579  0.2176 -0.0991 -0.0348
44565W        W63312  30.860  32.026  20.611 -0.0733  0.2455 -0.0842
44566W        W63313   7.150  18.656   8.632 -0.0065 -0.1120  0.0588
44567W        W63314  25.146  20.305  25.580 -0.1824 -0.0622  0.1940
44568W        W63315   6.233  33.054   2.359  0.5092  0.2156  0.0341
44569W        W63316  17.901  18.630   6.986  0.0338  0.4792 -0.0701
44570W        W63317  20.896  15.053  16.525 -0.1022 -0.0649  0.2858
44571W        W63318  31.394  27.341  24.667 -0.1927  0.0018 -0.0777
44572W        W63319  29.161  20.723  13.674  0.0286 -0.5218 -0.0337
44573W        W63320  25.621  17.418  23.140 -0.2535  0.0114 -0.3780
44574W        W63321  15.696  23.722   2.616 -0.1995  0.2377  0.1984
44575W        W63322  31.856   3.692   5.251 -0.0226  0.0586  0.0950
44576W        W63323   8.402  14.970  25.136  0.1060 -0.2306 -0.3312
44577W        W63324   5.122   0.137  21.812  0.4916 -0.0000  0.1649
44578W        W63325  17.794  18.851  11.655 -0.2160 -0.1883  0.0987
44579W        W63326  32.579   6.362   5.112  0.1247  0.0202  0.3037
44580W        W63327  30.072   7.402  19.873 -0.0091  0.0335  0.0706
44581W        W63328   2.890   7.665  19.711  0.0070 -0.1413  0.2163
44582W        W63329  26.919   5.836  18.504 -0.1171 -0.0703  0.3021
44583W        W63330  29.188  10.504   8.950  0.1196  0.1617  0.1831
44584W        W63331  33.004   8.530  11.056  0.2421  0.0584  0.0363
44585W        W63332   4.762   2.023   5.473  0.0312  0.1991 -0.0592
44586W        W63333  32.809  28.603  20.757  0.1072  0.1715 -0.1661
44587W        W63334  21.650   6.201  17.675  0.3190 -0.0085 -0.1344
44588W        W63335   5.279  18.173   5.940 -0.0387  0.3603  0.1833
44589W        W63336  28.359  20.099  10.545 -0.1973 -0.0302  0.2480
44590W        W63337   7.438   7.891  18.917 -0.1256  0.0983 -0.0875
44591W        W63338  26.175  15.595   7.456  0.0252  0.2884 -0.1602
44592W        W63339  10.051  11.127   3.399  0.0116  0.1905 -0.1763
44593W        W63340  15.353  17.855   9.069  0.0357 -0.0795  0.0782
44594W        W63341  34.240  12.593   0.932 -0.0174  0.0640  0.1262
44595W        W63342  24.364   0.622  14.266 -0.0160 -0.1903  0.3226
44596W        W63343  20.079   0.724  25.509 -0.3441 -0.0020 -0.4928
44597W        W63344   5.875  17.291  21.252  0.3371 -0.2197 -0.6288
44598W        W63345  19.121   6.578   0.888  0.0524 -0.3804  0.0108
44599W        W63346  13.255  30.002  15.750  0.0759 -0.2970 -0.2738
44600W        W63347  24.015  11.732  23.440 -0.1513  0.2446 -0.0427
44601W        W63348  12.138   8.258  25.853 -0.1602 -0.0774  0.3932
44602W        W63349   2.921  28.025  11.674 -0.1731  0.1486 -0.3212
44603W        W63350   6.972   2.468  20.801 -0.0506  0.0213 -0.0630
44604W        W63351  12.481  10.633   4.545 -0.1475 -0.1365 -0.3586
44605W        W63352   1.555  34.676   4.368 -0.0676  0.1550 -0.1407
44606W        W63353  22.527  24.049  15.667 -0.0644 -0.2898  0.1101
44607W        W63354  25.753  32.745  17.914  0.2611 -0.1269 -0.1340
44608W        W63355   9.910  21.221  15.272 -0.0479 -0.1894  0.3076
44609W        W63356  26.966  30.014  12.925  0.1475  0.1663  0.1609
44610W        W63357  34.197  35.125  18.616  0.2735 -0.0974  0.1884
44611W        W63358  23.178  22.051  18.328 -0.0280 -0.0476 -0.0518
44612W        W63359  14.076  24.727  23.166  0.0133  0.1919 -0.0237
44613W        W63360  21.978   4.076   4.989 -0.1001 -0.0279 -0.2473
44614W        W63361  25.247   3.579  18.873  0.2220 -0.1810  0.1742
44615W        W63362  23.542   1.885  15.582 -0.0066  0.1974 -0.0849
44616W        W63363  30.108  15.984  23.198  0.0302  0.2522  0.1280
44617W        W63364  21.630  17.399  24.954 -0.1991 -0.0276  0.0446
44618W        W63365  11.434  18.961   5.117 -0.0758  0.0853 -0.0855
44619W        W63366  15.122   2.347  25.440  0.0529  0.1181 -0.0194
44620W        W63367  23.307  34.524  19.612 -0.1730 -0.2294  0.1276
44621W        W63368  31.771  13.337   8.718 -0.1221 -0.0512  0.0707
44622W        W63369  18.014   5.689  11.693 -0.2337 -0.1531 -0.2571
44623W        W63370  19.789  14.243   1.318  0.3492  0.1664  0.1007
44624W        W63371  29.701  27.277  16.700  0.1787  0.0844 -0.4145
44625W        W63372  19.224   0.015   9.290  0.0091 -0.0180 -0.0078
44626W        W63373  31.966   8.081  15.952  0.1098 -0.1226  0.0962
44627W        W63374  29.152  12.258  21.554 -0.4646  0.2559 -0.1056
44628W        W63375  34.710  10.477  22.248 -0.2441 -0.0825 -0.2185
44629W        W63376  29.920  29.963   2.135  0.1438  0.2378  0.0246
44630W        W63377  27.831  19.034  18.591 -0.0715 -0.1335 -0.1189
44631W        W63378  27.868   6.126  11.414 -0.2398 -0.1572  0.1433
44632W        W63379  12.069  11.853  13.830 -0.5149  0.2274  0.0051
44633W        W63380  15.512  17.795   6.525  0.2126  0.1588  0.0005
44634W        W63381  33.133  14.913  25.263 -0.1117  0.3387 -0.0536
44635W        W63382  27.432  30.245  24.443  0.0815 -0.1243 -0.1702
44636W        W63383  28.871  32.659  19.424  0.0364 -0.0547 -0.1127
44637W        W63384   2.350   4.059  15.561 -0.0805  0.1377  0.0979
44638W        W63385  26.050   6.847  12.554  0.0565  0.3846  0.1578
44639W        W63386  34.149  26.381  17.096 -0.0101  0.2278 -0.0651
44640W        W63387  10.725  23.702   1.637 -0.0148  0.1150 -0.0413
44641W        W63388  34.223   8.787  11.324  0.0149  0.0245  0.1581
44642W        W63389  35.173  14.233   0.299 -0.2464  0.0146  0.0483
44643W        W63390   2.448  17.435  13.685 -0.1082 -0.2711 -0.1677
44644W        W63391   5.706  24.010  10.539 -0.1789 -0.1911  0.2475
44645W        W63392  21.822  27.429   2.885 -0.1213 -0.0820 -0.0406
44646W        W63393  34.312  23.455  12.358 -0.0994 -0.0341 -0.4665
44647W        W63394  12.064   8.773   7.727 -0.1485  0.0935  0.3436
44648W        W63395  32.368  18.706  10.283 -0.1519 -0.0073  0.1154
44649W        W63396  27.899  10.406  10.685 -0.0799  0.3491 -0.1115
44650W        W63397   6.259   3.405   2.790  0.0142  0.1051 -0.0269
44651W        W63398  12.957  16.188   2.289 -0.2017  0.0720 -0.1325
44652W        W63399  22.852  30.286   2.058  0.1677 -0.3767  0.0127
44653W        W63400  24.326   7.894  24.422  0.0734  0.0691 -0.2648
44654W        W63401  19.933  22.964  25.747 -0.0081 -0.2310  0.1145
44655W        W63402  31.526  20.791   6.852  0.1353  0.0132  0.0783
44656W        W63403  15.723  31.311   9.353 -0.0381  0.0471 -0.2921
44657W        W63404  28.198  22.149  21.680  0.2239 -0.1924  0.3136
44658W        W63405  21.229  15.656  24.675  0.1322  0.0717 -0.1072
44659W        W63406   7.299   5.049  20.151 -0.0925 -0.0306 -0.1175
44660W        W63407  10.604  34.778   8.910 -0.1065  0.4096  0.0880
44661W        W63408   9.534   8.893   1.600  0.0147 -0.4199 -0.0306
44662W        W63409  20.027  23.374   3.087  0.0098 -0.2406 -0.0122
44663W        W63410  30.796   3.641  23.323 -0.0311  0.1582 -0.2396
44664W        W63411  16.407   8.889   0.463  0.2306 -0.0411 -0.4391
44665W        W63412  15.097   9.932  24.254  0.0701 -0.1008 -0.1364
44666W        W63413  20.577  29.436  23.964 -0.0855 -0.3164 -0.4894
44667W        W63414  27.701  13.827  20.890  0.0202  0.2106  0.0655
44668W        W63415  16.884  29.914  12.111  0.1455 -0.0861 -0.0344
44669W        W63416  30.170   6.818  23.487 -0.0952 -0.1023 -0.2554
44670W        W63417   4.669  10.708  24.994 -0.1044  0.0429  0.1207
44671W        W63418  19.909   3.338  25.073 -0.2958  0.0588  0.1212
44672W        W63419  26.468  22.925   8.914 -0.3480 -0.0698 -0.0681
44673W        W63420  25.150  23.419  20.571  0.2175  0.3687  0.0297
44674W        W63421   3.166  22.620   2.956  0.0929  0.0842  0.2816
44675W        W63422  21.242   2.449   6.820 -0.0782 -0.2217 -0.1632
44676W        W63423  14.364  25.161  13.286 -0.3612 -0.2818  0.1502
44677W        W63424  25.981   1.260  21.833  0.2339 -0.1426  0.1258
44678W        W63425   9.682   3.533  24.124  0.0356  0.1489  0.1066
44679W        W63426   4.988  15.493  19.353 -0.1613 -0.1656  0.0289
44680W        W63427   4.420   2.759  26.190  0.1505 -0.1863  0.4945
44681W        W63428  29.781   7.283   9.553  0.1099  0.0331 -0.2480
44682W        W63429   7.863   2.103  20.434  0.0709  0.2630 -0.0973
44683W        W63430   2.364   8.392   6.387 -0.1181 -0.0903  0.0584
44684W        W63431   2.647  25.246  25.890  0.2356 -0.1631 -0.4954
44685W        W63432  26.488   2.702  23.157  0.1617  0.0197 -0.2200
44686W        W63433  18.632  34.917   1.089  0.3000 -0.1950  0.2052
44687W        W63434  18.457  18.805  19.924 -0.1375 -0.1896 -0.0690
44688W        W63435  17.637  15.429  25.684  0.0516  0.0017 -0.0897
44689W        W63436  19.289  20.135  11.993 -0.2941  0.2136  0.2284
44690W        W63437  30.261   8.532  21.210 -0.0504  0.1205 -0.2028
44691W        W63438   2.298  19.860  13.833  0.1742 -0.0917  0.5770
44692W        W63439  17.068  33.418  16.457 -0.2434  0.2542 -0.1254
44693W        W63440   2.801  15.989  14.407  0.1248  0.0154 -0.3467
44694W        W63441  25.883  15.890  25.720  0.2906  0.0913 -0.1708
44695W        W63442  14.061  31.185  25.794 -0.0831 -0.0327 -0.0321
44696W        W63443  23.031  13.189  17.456 -0.1117  0.4231  0.2691
44697W        W63444  34.274   2.431  16.070  0.0789 -0.0744 -0.1119
44698W        W63445  22.342   7.298  16.207  0.2969 -0.0814 -0.0797
44699W        W63446   8.360  11.680  22.097  0.0068  0.2529 -0.1293
44700W        W63447  29.406  28.321   1.078  0.0227 -0.2121 -0.1185
44701W        W63448  19.125  21.396   2.669  0.0955  0.0216  0.2678
44702W        W63449   4.822   1.206  10.947  0.0957  0.1115 -0.0981
44703W        W63450  27.846  30.320  23.276 -0.0641  0.0407  0.0712
44704W        W63451  12.245  26.064  24.449  0.1383 -0.1249  0.1570
44705W        W63452  22.975   4.103   0.747 -0.2101  0.1345  0.2065
44706W        W63453   7.654  28.198   7.888  0.4655  0.0231  0.1971
44707W        W63454   0.409  22.122  13.670  0.4119 -0.1124  0.1893
44708W        W63455  30.319  24.011  22.412 -0.2647  0.2406  0.2725
44709W        W63456  12.564   0.477   5.062  0.1754 -0.1953  0.2034
44710W        W63457  26.450  29.638  12.501 -0.2181  0.0152 -0.1026
44711W        W63458  16.559  15.309   8.269 -0.0546  0.0731  0.2484
44712W        W63459  31.082   0.015   5.123 -0.2580 -0.0805  0.1902
44713W        W63460   3.915  14.584  18.781  0.1172  0.1366  0.0502
44714W        W63461  23.157   2.920   6.952 -0.2130 -0.1709  0.0195
44715W        W63462  10.973  10.194  24.569  0.2294  0.3549 -0.0113
44716W        W63463  17.240   5.605  26.152 -0.1453 -0.0994  0.0425
44717W        W63464  14.219  10.492   9.269  0.0438  0.1310  0.1511
44718W        W63465  28.569  28.830  20.318  0.2219 -0.0654 -0.1952
44719W        W63466  22.080  12.901   0.901  0.2936  0.0397  0.0235
44720W        W63467  22.463  17.704   2.898  0.0455  0.0848 -0.1619
44721W        W63468  18.232  12.934   9.071  0.1273 -0.1326  0.0086
44722W        W63469  11.411  14.099   8.436  0.3489  0.0173  0.1014
44723W        W63470  21.482   6.386  18.508 -0.0709  0.0728  0.3192
44724W        W63471   4.870  22.939   4.227  0.0512 -0.0604 -0.1074
44725W        W63472  15.767   8.860  11.857  0.2797 -0.1410 -0.1429
44726W        W63473  18.782   4.610  17.114 -0.2393 -0.2020  0.2480
44727W        W63474   4.744  28.228   6.386  0.0511  0.4241  0.2718
44728W        W63475  18.808  25.625   9.892 -0.0120 -0.1771 -0.0081
44729W        W63476  32.198   1.343   1.480 -0.0326 -0.1707 -0.0969
44730W        W63477  28.613  15.224   7.015  0.0852  0.2208 -0.0736
44731W        W63478   0.723  22.099  21.439 -0.3426  0.0188 -0.1343
44732W        W63479   2.723  10.632  23.796 -0.2692 -0.4008  0.4646
44733W        W63480  10.203  29.410  10.073  0.1857  0.1723  0.3231
44734W        W63481  19.184  27.330  20.841  0.1041  0.0248  0.0802
44735W        W63482  11.056  31.617  25.078 -0.0076 -0.0600 -0.4109
44736W        W63483  22.308   7.835   3.375 -0.0533 -0.2084  0.0648
44737W        W63484   3.795  28.683  11.893  0.1765 -0.0005 -0.1128
44738W        W63485  27.676  16.982  14.174  0.1773  0.3018  0.2974
44739W        W63486  31.980  21.459   9.542  0.1871  0.0435 -0.0266
44740W        W63487  33.237  27.585   3.015  0.2247  0.0047 -0.4411
44741W        W63488  12.694  10.369   5.048  0.1324 -0.1887 -0.2256
44742W        W63489   1.859  12.983  13.238  0.0192  0.2460  0.3576
44743W        W63490  24.566  31.823   3.163  0.1825  0.3478  0.0569
44744W        W63491  25.459  10.175   0.859  0.0511 -0.1559  0.2896
44745W        W63492  22.514  33.467   1.003 -0.2197  0.2171  0.0541
44746W        W63493   1.689  34.320  19.597  0.1069  0.1474 -0.0661
44747W        W63494   5.489  18.841   0.232 -0.1883 -0.1595  0.3742
44748W        W63495  10.508  19.439   3.659 -0.0864  0.2344  0.2593
44749W        W63496  14.908  11.436   3.350  0.2898 -0.1689  0.1321
44750W        W63497  26.683   1.617  20.747  0.1463 -0.3162  0.0149
44751W        W63498  21.538   1.314  19.466  0.0762  0.1186  0.1787
44752W        W63499   0.423  10.161  18.917  0.0087  0.0595 -0.0607
44753W        W63500  12.962  24.860  14.141  0.0691  0.1059  0.0539
44754W        W63501   0.141  33.030  23.874  0.1299 -0.3027  0.3631
44755W        W63502   4.387  35.143   4.796  0.0217  0.1861 -0.0161
44756W        W63503  12.277   4.056   8.290 -0.1111  0.0907 -0.1594
44757W        W63504  35.337  28.151  24.528  0.0553 -0.0005  0.1652
44758W        W63505   9.518   7.650   9.553  0.0313  0.0739 -0.0330
44759W        W63506   8.118  20.152  14.530  0.2850  0.0261  0.2076
44760W        W63507  32.088  17.356  17.533 -0.3055 -0.3644 -0.1508
44761W        W63508  29.894  23.544  23.090  0.0858 -0.0769  0.1072
44762W        W63509   0.353   3.894  15.720  0.1071 -0.1176 -0.0224
44763W        W63510  17.384   0.252   1.388  0.0915  0.0469  0.0975
44764W        W63511   1.032  22.265  15.316  0.3241  0.0315  0.1576
44765W        W63512   9.735  13.136   8.121  0.0020 -0.0117 -0.2806
44766W        W63513  12.144   7.997  21.357 -0.0750  0.0010  0.3188
44767W        W63514  10.933  35.065   5.421 -0.0982  0.2992  0.1893
44768W        W63515  25.775   2.868  12.634 -0.0127 -0.4227 -0.1265
44769W        W63516  35.303   8.754  15.733 -0.0363 -0.0802 -0.2118
44770W        W63517   2.656   9.557  25.311  0.0181 -0.1087 -0.0799
44771W        W63518   6.435  21.470  25.405  0.0154 -0.0183  0.0095
44772W        W63519   0.858   7.714   4.161 -0.0285 -0.3679 -0.1786
44773W        W63520  12.449  23.623   8.671  0.2642 -0.2193  0.0551
44774W        W63521  20.661   6.644  17.037 -0.0794 -0.0315  0.1894
44775W        W63522  31.272  12.433  13.898 -0.1671 -0.0779 -0.1871
44776W        W63523  20.418   7.212   8.921  0.2221  0.4346  0.1194
44777W        W63524  12.369  12.018  22.067 -0.1419  0.0623 -0.0826
44778W        W63525  12.016  32.880   6.886 -0.3128 -0.1659  0.0230
44779W        W63526  17.897   8.314   6.868 -0.0707 -0.0822 -0.3947
44780W        W63527  26.446  35.265   1.629  0.1621  0.1697 -0.1200
44781W        W63528   3.265  27.840  19.772  0.1105  0.0035  0.0684
44782W        W63529   2.001  32.304   8.153  0.1888 -0.2257  0.2269
44783W        W63530  15.877  10.553  11.290  0.2293  0.2009  0.2164
44784W        W63531   3.704  29.613   5.420  0.0928 -0.2100 -0.3634
44785W        W63532   8.565   5.504   6.796  0.0932  0.2484  0.1329
44786W        W63533  28.847   0.116   3.729  0.2696  0.2203 -0.1064
44787W        W63534  35.026  28.710   0.809 -0.0534  0.1312 -0.1443
44788W        W63535   1.490   4.211   1.030 -0.2881 -0.2662 -0.4273
44789W        W63536  33.027  13.058   9.171  0.0552 -0.1547  0.0092
44790W        W63537  30.774  28.839   2.779  0.1910  0.1150  0.0983
44791W        W63538   4.501  20.198   2.127  0.1998 -0.1159 -0.2740
44792W        W63539  25.838  31.596  19.335 -0.1321 -0.0278 -0.2584
44793W        W63540   5.896   3.361  24.557  0.1895 -0.2949 -0.3366
44794W        W63541  11.200  22.720  14.179 -0.0854 -0.0564 -0.2090
44795W        W63542   6.495  26.386   5.792 -0.0479 -0.0538 -0.2977
44796W        W63543  32.946   3.385  22.805 -0.1847 -0.1680 -0.2543
44797W        W63544  34.456  16.654  11.198 -0.0892  0.1236  0.0469
44798W        W63545  33.954   0.352  22.019 -0.1548  0.2125  0.0302
44799W        W63546  22.275   9.949  21.548 -0.1280 -0.1747  0.1933
44800W        W63547  27.937  21.369  16.126 -0.2586  0.3099  0.1424
44801W        W63548   5.127  31.356   7.810  0.1206  0.2848  0.2943
44802W        W63549  16.744   2.450   5.835  0.0372 -0.0246  0.1540
44803W        W63550  24.944   3.468  19.659 -0.0538  0.0043  0.2732
44804W        W63551  26.471  33.383  17.435 -0.0899  0.1558  0.0478
44805W        W63552   5.810  33.629   0.651 -0.0820 -0.0325 -0.0050
44806W        W63553  14.687  23.126   4.281 -0.0027  0.1031 -0.4801
44807W        W63554   3.338  22.149  18.632 -0.0133  0.2816 -0.1444
44808W        W63555  26.152  16.310   6.456  0.0566  0.1799 -0.1869
44809W        W63556  28.918  17.951  11.384  0.0225 -0.2034  0.0379
44810W        W63557  17.327  17.863  25.106 -0.0685 -0.1574 -0.1511
44811W        W63558  13.697   9.887  13.503  0.1183  0.0797  0.0021
44812W        W63559   1.077  28.416   8.781 -0.1365  0.2751  0.1958
44813W        W63560   4.599  12.773   4.701  0.1019 -0.2720 -0.1147
44814W        W63561  12.999  29.163   1.172 -0.3703  0.0731 -0.1909
44815W        W63562   8.518  27.172  13.815 -0.3027 -0.4081 -0.0138
44816W        W63563   3.462  31.740   1.488  0.1088  0.3023 -0.0465
44817W        W63564  21.696   2.837   1.998  0.0101  0.1563  0.0668
44818W        W63565  15.111  12.850  10.489 -0.0027  0.3321  0.0328
44819W        W63566  19.852   2.709  25.906  0.0095 -0.1533  0.5173
44820W        W63567  30.765  21.626  18.252  0.3556 -0.1017  0.1208
44821W        W63568  10.011  26.577   5.531  0.0805 -0.1727 -0.0793
44822W        W63569   3.597  14.279   3.830 -0.0173 -0.0342 -0.0446
44823W        W63570  26.659  29.587  15.481 -0.1948  0.3337  0.0571
44824W        W63571  20.978  12.058   4.071  0.0062 -0.2527  0.0771
44825W        W63572   1.925   8.615  17.478  0.0444 -0.0634 -0.1606
44826W        W63573   1.625   3.297  15.855 -0.0130 -0.0979  0.1790
44827W        W63574  18.791   5.791  10.683 -0.1254  0.1216  0.0542
44828W        W63575   3.673   3.540  23.359 -0.0699 -0.0962 -0.3140
44829W        W63576  26.655  21.903  15.695 -0.0502 -0.1049  0.2976
44830W        W63577   3.412  23.475   1.265 -0.0227  0.1094 -0.1063
44831W        W63578  14.671   8.062   0.938 -0.0121  0.4032 -0.0113
44832W        W63579  16.362  19.838  12.719 -0.1349  0.2409 -0.0320
44833W        W63580  34.020   0.516   7.744  0.1415 -0.1737  0.0956
44834W        W63581  21.165  12.103  15.157  0.2180  0.1876 -0.1631
44835W        W63582   9.763  28.759  12.115  0.3968 -0.0244 -0.0749
44836W        W63583  18.040   6.791   5.625  0.0398 -0.0387  0.1100
44837W        W63584  11.413  25.064   0.309 -0.1141 -0.1934  0.2231
44838W        W63585  33.619   7.214  11.505  0.2117  0.1755 -0.0011
44839W        W63586  30.312   5.096  24.869 -0.1906 -0.0084 -0.0012
44840W        W63587   9.547   8.650  19.594 -0.3770 -0.2325 -0.1626
44841W        W63588   6.597  13.985  22.243  0.0894 -0.1194 -0.1455
44842W        W63589   9.087  17.219  23.851 -0.2479 -0.1609 -0.0509
44843W        W63590  31.620   3.598  15.178  0.0272 -0.0220 -0.0959
44844W        W63591  26.551  10.540  24.672 -0.0735 -0.3486 -0.0317
44845W        W63592  22.283   4.064  19.224  0.1986 -0.0230  0.3002
44846W        W63593  10.410  34.175  22.517 -0.0550 -0.2826 -0.2213
44847W        W63594  33.269  22.203   1.224 -0.1939 -0.0888  0.1396
44848W        W63595  13.691  25.243   7.846 -0.0730 -0.2899  0.0251
44849W        W63596  31.596  29.226  21.383  0.0540 -0.0229  0.1289
44850W        W63597   8.238  31.716  14.120 -0.0193 -0.1170  0.0654
44851W        W63598  29.987  20.711  16.113 -0.2158  0.5063 -0.0081
44852W        W63599  16.346  18.640   6.143 -0.4659 -0.2346  0.1233
44853W        W63600  10.477  32.023   7.365 -0.0168  0.0754 -0.0104
44854W        W63601  17.756  33.057  23.787 -0.2240  0.1126 -0.1015
44855W        W63602  12.746  11.348   0.498  0.1159 -0.2878 -0.1371
44856W        W63603  34.491  27.356  13.772  0.0874 -0.0972  0.4585
44857W        W63604  27.312  14.932  20.484 -0.0412  0.3012 -0.0222
44858W        W63605  12.062  24.756  14.386  0.2612 -0.1398  0.3263
44859W        W63606  14.126  30.083  20.833 -0.2728  0.1522 -0.0323
44860W        W63607  12.480  15.934  21.783 -0.0757  0.1020 -0.3725
44861W        W63608  12.664  32.260   7.983 -0.1073  0.1376 -0.0642
44862W        W63609  10.790  28.310  15.989 -0.0473  0.1736  0.3691
44863W        W63610  26.806   8.936  26.037  0.2045 -0.0567 -0.2602
44864W        W63611  18.352  21.434  24.218 -0.2681  0.1117 -0.0850
44865W        W63612   5.610  13.135  21.150 -0.0555  0.1556  0.1861
44866W        W63613  27.755  11.186  25.571  0.1301 -0.3308  0.0536
44867W        W63614  11.891  20.379  24.505  0.2148  0.3430 -0.1680
44868W        W63615  23.677  27.324  17.951  0.0460  0.0318 -0.1505
44869W        W63616  17.283   3.005  24.536  0.1448  0.2247 -0.1057
44870W        W63617  14.036  35.335  24.705 -0.1672  0.0517 -0.2436
44871W        W63618  30.946  34.564  19.921  0.4723 -0.0702 -0.1091
44872W        W63619  13.546   6.374  22.966 -0.2508  0.2974  0.2773
44873W        W63620  31.078  28.925  17.380 -0.1002  0.0813  0.2355
44874W        W63621  13.190  28.729  14.887  0.1586 -0.1153  0.2750
44875W        W63622  23.362  32.845   3.879  0.1503  0.0347 -0.0475
44876W        W63623   2.448  11.186  19.341  0.0524 -0.1591 -0.0560
44877W        W63624  28.215   5.512  14.881  0.2417 -0.2813  0.1662
44878W        W63625  12.408   4.732   9.474  0.1829 -0.2522 -0.1062
44879W        W63626   1.185  25.341   2.529 -0.0205 -0.0027  0.1215
44880W        W63627  10.449  10.945   3.666  0.1284 -0.0121 -0.0982
44881W        W63628   9.985  31.755   5.440  0.1215  0.1725 -0.1697
44882W        W63629  33.413  14.037  13.597  0.2541  0.3603  0.0077
44883W        W63630  32.866  28.857  24.162  0.1072 -0.2407 -0.0932
44884W        W63631  12.579  26.231   1.052 -0.0671  0.0732  0.4324
44885W        W63632   3.534  11.119  19.236 -0.2674  0.1378 -0.0451
44886W        W63633   5.992   0.020  11.123  0.1026  0.1063  0.1320
44887W        W63634  10.425  15.394   4.472 -0.0353  0.5708  0.0425
44888W        W63635  14.355   5.454   7.790 -0.3036  0.1740  0.2703
44889W        W63636  28.844  10.062   9.720 -0.0741 -0.1486  0.0099
44890W        W63637   3.007   7.372  25.609  0.3094  0.0945  0.3717
44891W        W63638   9.761  16.488  22.197  0.0267  0.3707  0.0402
44892W        W63639   2.043   3.169  20.506  0.3049  0.0702  0.0590
44893W        W63640   7.251  14.501  23.571  0.0519 -0.1213 -0.0704
44894W        W63641  25.636  17.525  20.127  0.3892 -0.0314  0.0174
44895W        W63642  28.399  25.656  22.954  0.1146  0.1513  0.0251
44896W        W63643  15.043  31.280   0.428 -0.1358 -0.0612  0.0946
44897W        W63644  23.022  30.477  24.060  0.3552  0.3395  0.2151
44898W        W63645  12.740  14.885  20.811 -0.1148 -0.1439 -0.1509
44899W        W63646  31.313  21.270  11.954  0.0362  0.1169  0.0108
44900W        W63647  20.912  20.727  23.872  0.0402 -0.0114  0.3988
44901W        W63648  29.985  28.992  20.262 -0.1267 -0.1410  0.1357
44902W        W63649   3.041  10.577   1.562 -0.0385 -0.0820 -0.0366
44903W        W63650  11.879  10.533  20.271  0.2443 -0.1639 -0.1537
44904W        W63651   6.911  24.352  25.286  0.1842  0.2897  0.1860
44905W        W63652  27.580  28.069  13.848  0.1294 -0.1326  0.1896
44906W        W63653  27.477  32.939  16.355  0.1208  0.1871  0.0031
44907W        W63654   7.367  32.544   1.372  0.3131 -0.3605  0.0410
44908W        W63655  17.496  13.963  23.352  0.0676 -0.1105  0.0385
44909W        W63656   8.564  15.980   2.192  0.0477 -0.2200  0.1265
44910W        W63657  12.134  16.974  22.783 -0.0402 -0.0897  0.1969
44911W        W63658  18.727   8.580  10.725  0.1687  0.0192  0.1647
44912W        W63659  13.851  26.453   5.188 -0.0716 -0.0179  0.1301
44913W        W63660  14.876   4.314  25.461  0.1123 -0.2306 -0.2247
44914W        W63661  21.453  28.960   6.188 -0.0010 -0.0347  0.0697
44915W        W63662   0.117   2.921   2.405 -0.2179  0.3073  0.0266
44916W        W63663   6.684  28.967  25.361 -0.0430 -0.2496 -0.2137
44917W        W63664  24.326   6.086  25.664  0.0542  0.2458  0.0279
44918W        W63665   9.631   8.002  25.908 -0.0245  0.0201  0.2893
44919W        W63666   2.812  11.128  14.569  0.0101 -0.3508 -0.3319
44920W        W63667  21.270  31.584  22.231  0.0090 -0.1302  0.1886
44921W        W63668  32.165  29.486  16.223  0.0334 -0.1111 -0.1340
44922W        W63669  30.872  26.810  16.323  0.0731  0.0232 -0.1509
44923W        W63670   6.546   7.840   9.918  0.3520  0.1600  0.0560
44924W        W63671  15.814   6.220  17.817  0.0749 -0.0120 -0.1386
44925W        W63672  24.872   1.454  19.464  0.0384  0.1710  0.2320
44926W        W63673  28.501  25.827  14.304  0.0868  0.0575  0.1929
44927W        W63674   7.381  24.671  10.670  0.1704 -0.3973 -0.2676
44928W        W63675  24.833   2.021  25.288 -0.0171 -0.2178  0.0532
44929W        W63676   8.792  16.669  21.934  0.1185  0.4850 -0.3011
44930W        W63677  30.324   2.572  17.223 -0.2277 -0.3167  0.0530
44931W        W63678  21.599  22.870  18.027 -0.0237  0.1134 -0.0352
44932W        W63679  34.733  23.750  12.700 -0.1138  0.3385 -0.2256
44933W        W63680  18.637   5.748  24.170 -0.1742  0.0168 -0.3827
44934W        W63681   5.325  19.355  24.328 -0.0084  0.2096  0.0630
44935W        W63682  14.259   6.308   9.089  0.0069 -0.1393  0.1257
44936W        W63683  22.459  25.594   2.656 -0.0995 -0.3366 -0.0935
44937W        W63684  30.352   3.559  10.895 -0.1722  0.1223  0.0760
44938W        W63685   9.648  34.417   9.932 -0.2529 -0.0538  0.0138
44939W        W63686  13.127  13.079   3.127  0.4159  0.1013  0.0967
44940W        W63687   6.986  22.646   8.458 -0.0023  0.0001  0.0923
44941W        W63688  32.175  27.821  20.661 -0.0653 -0.0403 -0.0986
44942W        W63689   9.388   8.027  22.835  0.3464  0.1843  0.0398
44943W        W63690   7.725   5.658   3.300  0.1738 -0.1362  0.0203
44944W        W63691  10.451   2.534  12.094 -0.1237 -0.0005  0.1688
44945W        W63692   7.382  33.317  23.727  0.2411  0.1307  0.2160
44946W        W63693   1.921  33.115  22.947  0.1296 -0.2131  0.0004
44947W        W63694  18.468  34.040   4.503  0.1930  0.2097  0.0572
44948W        W63695  10.465   2.944  13.524  0.1443  0.2142  0.0711
44949W        W63696  14.448   5.278   0.527 -0.1954  0.1951  0.1016
44950W        W63697   1.844  10.925  19.612  0.0945  0.0148  0.1363
44951W        W63698  28.124  30.996  17.519  0.3403 -0.0188  0.0861
44952W        W63699  31.406   5.065  13.471  0.0379  0.1731 -0.4404
44953W        W63700  34.807  15.490  20.160  0.1274  0.3999  0.0516
44954W        W63701   5.068  32.116   0.948 -0.1256  0.4341 -0.1480
44955W        W63702  22.600  32.188   0.281 -0.2650 -0.0850  0.1250
44956W        W63703  15.630   9.094  24.457  0.2798 -0.3302  0.0766
44957W        W63704  33.397  27.764  13.498 -0.1865 -0.0535 -0.1825
44958W        W63705  20.495  17.468  23.500  0.1858  0.1747  0.1025
44959W        W63706  30.432  31.620   3.682 -0.0220 -0.3040  0.1979
44960W        W63707   2.016   1.373   6.416 -0.1629 -0.2532  0.0806
44961W        W63708   5.398  28.745  24.013  0.3699  0.1773 -0.1196
44962W        W63709  25.769  30.872  25.206  0.2135  0.3563  0.1325
44963W        W63710   8.445  11.509   9.219  0.0938  0.0993 -0.0471
44964W        W63711  32.686  25.048  20.558  0.2608  0.0723  0.0074
44965W        W63712   1.623   7.932  22.076 -0.1685 -0.0359 -0.3851
44966W        W63713   8.062  22.282  13.780 -0.0014 -0.2440  0.1034
44967W        W63714   6.916  31.214  12.126  0.1324  0.1957  0.3423
44968W        W63715  32.946  31.965   2.923 -0.3604 -0.2011 -0.2130
44969W        W63716  25.462  31.762  11.929 -0.3240 -0.1459  0.0223
44970W        W63717  25.603  35.066  11.439  0.2207 -0.1124 -0.1456
44971W        W63718  31.858  27.920   3.933  0.0580  0.0415  0.0690
44972W        W63719  14.661   2.766   3.443  0.0631  0.0178  0.0549
44973W        W63720  16.591   9.108  22.782  0.1338 -0.0972 -0.0456
44974W        W63721  17.298   7.271  19.234 -0.2412 -0.2946  0.5342
44975W        W63722  17.419  15.984   0.916  0.2464  0.0272  0.2060
44976W        W63723   1.977  13.481   1.144  0.1626  0.2198 -0.0264
44977W        W63724  15.966  13.525  19.838  0.1797  0.1550 -0.0581
44978W        W63725   3.284  27.665   6.753 -0.2550 -0.0342  0.0042
44979W        W63726   5.401  17.834  18.978 -0.0523  0.1123 -0.1060
44980W        W63727  34.191  16.679   6.664 -0.1702  0.2957 -0.0579
44981W        W63728  31.092  26.643  10.111  0.1564  0.1369  0.0213
44982W        W63729  12.522  28.240  26.154 -0.0981 -0.2135  0.4840
44983W        W63730  19.601  30.469  20.864 -0.0057 -0.1862 -0.1855
44984W        W63731  28.884   9.176  16.073 -0.3213  0.3385  0.0728
44985W        W63732   5.814  26.479   8.508  0.0416  0.1054  0.3320
44986W        W63733  33.072   5.457  21.792  0.1619  0.1406 -0.4830
44987W        W63734  33.470  17.056   8.038  0.1554  0.2498  0.0064
44988W        W63735  25.144   8.096  21.884 -0.0715 -0.1753 -0.1636
44989W        W63736   5.317  18.342  18.814  0.4350  0.4343  0.2189
44990W        W63737   5.113  16.323  23.953 -0.1178  0.0742  0.1285
44991W        W63738   8.756  35.325   4.651 -0.0089  0.0100 -0.1403
44992W        W63739  32.362   6.037   0.575  0.1616  0.1178  0.1171
44993W        W63740   7.081  11.618   4.298 -0.4450  0.0356  0.2053
44994W        W63741  18.852   8.184  10.410 -0.0278  0.0416 -0.2366
44995W        W63742   6.027   7.273  23.545  0.1270  0.2650  0.0042
44996W        W63743  28.458   6.018   1.030  0.0175 -0.0015 -0.2551
44997W        W63744  31.924  34.246   1.595 -0.0491  0.2292 -0.0830
44998W        W63745   8.315  33.627  22.043  0.1562 -0.3914 -0.3769
44999W        W63746   2.520   0.870   5.034  0.3255 -0.0891  0.4503
45000W        W63747  24.110  25.921   1.600  0.0527 -0.1578  0.1922
45001W        W63748  22.273   8.862   3.718  0.0016  0.0603 -0.2830
45002W        W63749   9.324   4.578  13.553  0.2816  0.0439  0.3600
45003W        W63750  10.077  28.005  25.383 -0.0484  0.3881 -0.5753
45004W        W63751  11.568  17.729  24.974  0.2033  0.1888 -0.0895
45005W        W63752  32.515  24.252  21.995  0.1695  0.1858 -0.1730
45006W        W63753  35.211  24.427  15.690  0.0199  0.1136 -0.0055
45007W        W63754  13.567   0.739   6.462 -0.0205  0.1264  0.2269
45008W        W63755  30.939  29.312   2.861  0.0857  0.0578 -0.2262
45009W        W63756  23.008  25.925  16.688  0.2895 -0.1496  0.0496
45010W        W63757  21.654  33.217  26.002 -0.3244 -0.4431  0.4556
45011W        W63758  13.573  16.723  21.605 -0.1733  0.0049  0.0325
45012W        W63759  28.214   7.790  16.369 -0.3287 -0.0101  0.1741
45013W        W63760   6.921  14.511   3.920  0.1632  0.1576 -0.0421
45014W        W63761  27.966  16.208  10.659 -0.0403  0.0329  0.1773
45015W        W63762  35.259   0.911  15.894  0.3491  0.3578 -0.2464
45016W        W63763  21.422  33.587   7.685 -0.0482 -0.3271  0.1365
45017W        W63764  10.417  23.051   4.052 -0.2634 -0.3245  0.0005
45018W        W63765  22.531   5.935   0.480 -0.0295  0.0832  0.0711
45019W        W63766  14.758   1.063  20.503 -0.1896  0.1252 -0.1483
45020W        W63767  22.616   5.812  20.447 -0.4203  0.1740  0.0187
45021W        W63768   8.577  18.703  20.701  0.2329 -0.1395 -0.0893
45022W        W63769  17.019  16.049   4.795  0.1186 -0.3356 -0.2530
45023W        W63770  15.324  19.432  21.085 -0.0662  0.1551  0.1088
45024W        W63771  27.581  17.032  24.857 -0.1358  0.1769  0.0436
45025W        W63772  27.905  27.246  15.561 -0.1879 -0.1722  0.0328
45026W        W63773  10.525  22.497  21.693  0.0764  0.2469 -0.2816
45027W        W63774   6.868  27.675   8.248 -0.0894  0.1514 -0.0881
45028W        W63775  34.587   4.257   4.717  0.4076 -0.0152  0.1464
45029W        W63776  14.708   0.323   0.594 -0.2305  0.1279 -0.0124
45030W        W63777  11.403  13.078   0.695 -0.0107  0.0769 -0.1982
45031W        W63778  34.154  29.528   5.878 -0.0497  0.1925  0.3636
45032W        W63779  15.957  35.017   6.726 -0.1170  0.2446 -0.0065
45033W        W63780  25.044  22.071  25.470  0.1052  0.1833 -0.0812
45034W        W63781   6.988  24.717   8.243  0.2370 -0.3646 -0.4821
45035W        W63782  24.972   6.845  17.212 -0.2195  0.0472 -0.0909
45036W        W63783   8.523   0.777   0.673  0.0240 -0.0104  0.0139
45037W        W63784  25.767  13.506  18.359 -0.0913  0.3787 -0.2790
45038W        W63785  22.573  12.573  15.206 -0.0115  0.3044 -0.1121
45039W        W63786  11.348  17.522  11.974 -0.0349 -0.0647 -0.0110
45040W        W63787   2.738  25.489   1.917 -0.2394  0.0983 -0.0517
45041W        W63788  14.486  30.789  20.850  0.0257  0.1310 -0.4116
45042W        W63789  28.180   4.513  25.310 -0.0348 -0.1193 -0.1636
45043W        W63790  33.877  33.767  24.332  0.1307 -0.3021 -0.3285
45044W        W63791   5.039  29.793   5.486  0.1009 -0.2215 -0.0120
45045W        W63792  22.211  32.234  15.989 -0.3163 -0.2894  0.1276
45046W        W63793   4.061   4.337  22.953 -0.0051  0.2473 -0.0873
45047W        W63794   5.220   7.307  10.465  0.0870  0.1160  0.1470
45048W        W63795  32.862  10.588   8.100  0.1464  0.0245 -0.4296
45049W        W63796   8.823   8.268   2.995 -0.1037 -0.1045  0.0058
45050W        W63797  21.519  12.838  21.315  0.0500  0.0392  0.1939
45051W        W63798  29.991  12.568  20.925 -0.0482 -0.0206 -0.4997
45052W        W63799  25.423   4.563   2.255 -0.1855  0.0185  0.2622
45053W        W63800  21.426  23.563  19.919 -0.1236 -0.1528 -0.0745
45054W        W63801  15.225  23.846  21.844  0.0655  0.0233 -0.2518
45055W        W63802   9.480  29.270  11.314  0.1441  0.0933 -0.1613
45056W        W63803  30.360   8.928  10.498 -0.1900 -0.0946  0.1109
45057W        W63804  34.786  15.897  14.953  0.1157  0.0067 -0.0285
45058W        W63805  30.267  10.331  24.839  0.1012 -0.1587 -0.2533
45059W        W63806  30.115  14.110   8.680 -0.1011 -0.0573 -0.2289
45060W        W63807   3.273  18.369  20.561 -0.1721 -0.3242 -0.0207
45061W        W63808   8.418  20.944   1.069  0.3448  0.0262  0.0856
45062W        W63809   1.535  11.773   2.302 -0.0896 -0.0520  0.2807
45063W        W63810  29.768  18.575   5.350  0.3942 -0.1295  0.3954
45064W        W63811   2.027  13.660  24.708 -0.0153  0.1465  0.1387
45065W        W63812  24.948  27.308  10.039 -0.1667  0.1432  0.4864
45066W        W63813  35.317  32.664  16.907 -0.1137  0.1490 -0.1564
45067W        W63814   1.989  30.396  20.729  0.0854 -0.3284 -0.0313
45068W        W63815  31.092   2.651  22.629  0.2633  0.4534 -0.2552
45069W        W63816   1.505  31.701   2.216  0.0587  0.0460  0.1579
45070W        W63817  20.000  15.388  17.434  0.0291  0.0347  0.0948
45071W        W63818   5.923   1.832  10.876 -0.1574 -0.1310  0.2263
45072W        W63819  30.519  18.241  25.575  0.1202 -0.2863  0.1765
45073W        W63820  13.279   7.298  20.572 -0.2157  0.1031 -0.2259
45074W        W63821   0.153  27.781  18.970  0.1614 -0.0828 -0.1744
45075W        W63822  31.486  15.917  18.369 -0.2994 -0.2146  0.0023
45076W        W63823  19.634   4.762  19.318  0.1939  0.3399  0.1158
45077W        W63824   6.297  34.393  23.781 -0.0974  0.1178  0.2251
45078W        W63825   9.137   4.607   4.495  0.1657  0.0122 -0.1435
45079W        W63826  32.170  12.550  14.750 -0.0234  0.2046  0.1527
45080W        W63827  33.203  20.222  19.602 -0.0797 -0.1084 -0.0934
45081W        W63828  18.018   7.389  21.622 -0.0313 -0.1022  0.0803
45082W        W63829   0.097  34.183   1.993 -0.5003 -0.0767 -0.1009
45083W        W63830  12.361  22.484  12.253  0.1289 -0.3440  0.0750
45084W        W63831  16.571  13.798  19.942 -0.0822  0.3540 -0.1197
45085W        W63832  11.569   9.952  10.951 -0.2705 -0.3543  0.2127
45086W        W63833   0.193   1.756   3.883  0.2382  0.2802  0.1114
45087W        W63834  33.264  29.491  20.159  0.2897  0.1575 -0.3801
45088W        W63835  33.303  34.248   1.436 -0.3403 -0.2181  0.0752
45089W        W63836  33.308  20.683  13.237  0.0402 -0.1214  0.0438
45090W        W63837  31.945  23.591  18.082  0.3572 -0.1213  0.1054
45091W        W63838   1.773  22.449  25.312 -0.0224  0.4214  0.2647
45092W        W63839   8.875   7.263   4.978 -0.0085 -0.1900 -0.2252
45093W        W63840  32.281  12.895  17.540  0.0626 -0.0284 -0.1273
45094W        W63841  26.597  19.870  15.205  0.3758  0.4205 -0.3451
45095W        W63842  28.312  16.651  18.041 -0.0142  0.4007 -0.3055
45096W        W63843  30.001  34.426   1.027 -0.1221  0.1645 -0.1071
45097W        W63844  12.027  11.225  23.207  0.0373 -0.0901  0.1893
45098W        W63845  26.566  15.593  20.153 -0.2451 -0.1700  0.1124
45099W        W63846  20.044   9.718   3.460 -0.1057  0.1478  0.3978
45100W        W63847  18.070   5.520   1.488 -0.3627 -0.2680 -0.1670
45101W        W63848  16.285   7.816  19.078 -0.0264 -0.0217  0.0221
45102W        W63849   5.073  25.796   6.241 -0.0539  0.2506  0.3812
45103W        W63850   4.281  34.679   4.674  0.0730  0.0429 -0.1385
45104W        W63851  34.181   1.901  14.846  0.0707 -0.2090 -0.0478
45105W        W63852   7.730  33.553  11.213 -0.0305 -0.0543  0.2135
45106W        W63853   0.410   4.826  25.865  0.0804 -0.1570 -0.0901
45107W        W63854  12.725  27.198  25.110 -0.0793 -0.1067 -0.0715
45108W        W63855  10.618   8.055  20.796 -0.3402 -0.0398 -0.0769
45109W        W63856  26.636  34.070   1.156 -0.0389 -0.2074  0.1359
45110W        W63857   4.636   3.640  17.998 -0.3607  0.1034  0.1698
45111W        W63858  19.944   1.999   3.243  0.0788 -0.2747 -0.2091
45112W        W63859  24.737  21.299   0.552 -0.0125 -0.1403 -0.3584
45113W        W63860  23.639  11.473  20.892 -0.0668 -0.3123  0.3351
45114W        W63861  17.124  11.948   5.700 -0.1176 -0.0417 -0.1582
45115W        W63862  10.819  35.226   3.416  0.1154  0.1894 -0.0033
45116W        W63863   1.829   9.505  22.449  0.0818 -0.3543  0.2266
45117W        W63864   2.661  10.116  25.907 -0.0462 -0.0508  0.2514
45118W        W63865   7.103  16.187   0.176  0.1044 -0.0974 -0.3125
45119W        W63866  24.449  11.830  17.263 -0.0879 -0.1629 -0.1648
45120W        W63867  33.751   7.659  18.718 -0.3736  0.1703 -0.1274
45121W        W63868  16.670   9.623   8.816 -0.0031  0.0144 -0.1394
45122W        W63869  26.058  16.617  16.462 -0.0754 -0.2006  0.1290
45123W        W63870  33.732  20.421  24.107  0.2713  0.3058 -0.3000
45124W        W63871  11.388  26.059  23.974 -0.1957 -0.1417  0.0154
45125W        W63872  17.415   7.038   0.091 -0.0447  0.4404 -0.0219
45126W        W63873  24.524  12.970  18.320 -0.1364 -0.2877  0.1739
45127W        W63874  32.708  26.983  12.488  0.1944  0.0877  0.1395
45128W        W63875  34.457   6.607  22.058  0.0318  0.1125  0.0366
45129W        W63876  20.907  20.090  19.874  0.0926  0.4016 -0.0641
45130W        W63877   8.977  15.079   8.724 -0.2329 -0.0568 -0.0687
45131W        W63878   6.771   1.122  22.213  0.1311  0.1780  0.1581
45132W        W63879   9.566  20.522  24.479 -0.1560 -0.0455  0.1625
45133W        W63880   9.909   5.396   8.621 -0.3916 -0.2869 -0.1828
45134W        W63881  28.372   8.744  14.671 -0.0560 -0.2465  0.1361
45135W        W63882   9.085  19.381   8.096 -0.0338  0.2593  0.2235
45136W        W63883  27.262  30.026  10.592 -0.1061  0.1453  0.0449
45137W        W63884   1.969  17.767  11.862  0.1176  0.0027 -0.1535
45138W        W63885  14.094  27.875   7.846 -0.0793  0.1821  0.0153
45139W        W63886   4.904  18.069  21.158  0.2240 -0.3016  0.0497
45140W        W63887  21.872  27.773  17.963 -0.1199  0.2694  0.1830
45141W        W63888  24.945  25.872  20.591  0.2006 -0.0108 -0.2845
45142W        W63889  27.120  25.839   9.887 -0.0935 -0.2437 -0.4769
45143W        W63890  27.584  32.124  10.672  0.1379  0.2443 -0.1388
45144W        W63891   8.298  21.492   3.505 -0.3092 -0.0314  0.5229
45145W        W63892  25.203  19.187  14.485 -0.0949  0.1178  0.1331
45146W        W63893  15.136   5.068  18.081  0.0867  0.3250 -0.2947
45147W        W63894   7.106  32.209   1.770 -0.1916  0.0699 -0.1254
45148W        W63895  28.111  26.612  23.409 -0.0335 -0.0412  0.0803
45149W        W63896  19.549  32.013  18.750 -0.0218 -0.0078 -0.0217
45150W        W63897  31.507   9.441  25.579 -0.4223 -0.2501 -0.4289
45151W        W63898   7.714   1.588  24.951  0.0188  0.2382 -0.1215
45152W        W63899  27.723   1.236  25.263 -0.0435 -0.0494  0.1297
45153W        W63900  10.341  17.717   9.116 -0.1861  0.0615 -0.2380
45154W        W63901   5.052  12.039  23.145  0.1076 -0.0569  0.0572
45155W        W63902   0.284   6.358   3.169  0.0117  0.0129  0.1562
45156W        W63903  23.049   5.230  19.338  0.1030  0.2600 -0.0483
45157W        W63904  32.686  24.927  18.288 -0.3202  0.1741  0.2468
45158W        W63905   7.226  16.001   4.597 -0.4356 -0.0459 -0.2012
45159W        W63906   0.381   1.261  17.248  0.0424  0.1300  0.2028
45160W        W63907   1.743  11.700   1.838  0.3152  0.0032 -0.1931
45161W        W63908  24.431   7.329   2.308  0.0916 -0.3055  0.0638
45162W        W63909  11.139  24.261   1.761 -0.1206 -0.0394  0.0153
45163W        W63910  32.636  26.770  20.073  0.0037 -0.0735 -0.3389
45164W        W63911  15.348  11.235   3.464  0.0694 -0.1542 -0.2177
45165W        W63912  13.665  22.833   8.123  0.2787  0.2232  0.2339
45166W        W63913   4.248  15.595   3.691 -0.0766  0.0468  0.0957
45167W        W63914  33.567  34.181  13.712 -0.1823  0.0524 -0.1713
45168W        W63915   6.176   0.821  26.001 -0.2852  0.1669 -0.5352
45169W        W63916  24.515  21.552  16.409 -0.0293 -0.4107 -0.0070
45170W        W63917  21.839  30.954  18.527  0.0795  0.1824 -0.3960
45171W        W63918  13.373   4.347  25.211 -0.1351 -0.1917 -0.1345
45172W        W63919   6.105  12.136  25.592  0.3317 -0.3788 -0.0524
45173W        W63920  25.877  28.965   2.680  0.1439 -0.0560  0.2043
45174W        W63921  33.359  10.428  20.946 -0.3816  0.0918  0.1770
45175W        W63922  31.991   8.082  13.253  0.0773 -0.2363  0.2439
45176W        W63923   5.844  24.232  10.078 -0.1170  0.3105 -0.4029
45177W        W63924  33.972  31.834  20.549 -0.0168 -0.0510  0.0719
45178W        W63925   1.356  15.752  19.391  0.4908  0.0705  0.3568
45179W        W63926  17.798  18.936   5.741 -0.2333  0.1888 -0.0043
45180W        W63927  11.180  25.784  15.461  0.3940  0.1320  0.1397
45181W        W63928  31.169  29.921  25.083 -0.2474  0.1727  0.1143
45182W        W63929   6.792  12.553   3.156 -0.1878 -0.0504 -0.1485
45183W        W63930  29.870  10.046  11.422 -0.2343 -0.1647 -0.0075
45184W        W63931   1.108  18.835  12.509  0.0092 -0.1975  0.0710
45185W        W63932   9.500  32.021  17.010 -0.0514 -0.0660  0.0234
45186W        W63933  22.437  33.625  23.897 -0.0558  0.0693  0.2072
45187W        W63934  15.286  31.259  23.308 -0.0287 -0.0188  0.2643
45188W        W63935  33.664   8.374  24.441  0.0127 -0.3287 -0.1280
45189W        W63936  17.657  24.266   3.332 -0.2386 -0.2169 -0.1002
45190W        W63937  26.607  13.794  26.050  0.0696 -0.6680 -0.2816
45191W        W63938  25.806   3.674  19.638 -0.1659  0.1447  0.0824
45192W        W63939  20.226  20.449   4.081 -0.0882  0.0276  0.1695
45193W        W63940  26.415  12.674  18.389  0.0678 -0.1122 -0.1791
45194W        W63941   9.304  27.824   7.930  0.0570 -0.1266 -0.1195
45195W        W63942   8.998   3.399  22.078 -0.1360 -0.0560 -0.2023
45196W        W63943  31.790  29.698  17.106 -0.0757 -0.1277  0.3858
45197W        W63944  34.618  17.267   8.164 -0.0487  0.1430 -0.0221
45198W        W63945  20.937   0.006  21.492 -0.0038  0.1785 -0.0391
45199W        W63946  13.972  26.536  12.169  0.1586  0.3540 -0.0994
45200W        W63947  31.852  14.023   9.262  0.2872  0.1214 -0.0580
45201W        W63948  31.329  20.268  24.182 -0.1556  0.0553 -0.0930
45202W        W63949  10.903   9.235  11.828  0.0101 -0.3201 -0.0946
45203W        W63950   2.923  30.546   2.188  0.0931  0.0377  0.2902
45204W        W63951  29.247  23.791  12.863  0.2384 -0.0507  0.2576
45205W        W63952  24.427  32.388  20.954 -0.2115  0.2551 -0.0320
45206W        W63953  33.005  12.599   7.957  0.1053 -0.1324 -0.1244
45207W        W63954  17.785  14.386  25.921  0.1074 -0.0911 -0.2699
45208W        W63955   7.196  35.376  14.091  0.0341 -0.1869  0.0111
45209W        W63956  33.111  26.806  12.195 -0.1543 -0.2481 -0.0527
45210W        W63957  21.667  22.403   3.837 -0.2644  0.0122 -0.0919
45211W        W63958   5.002  30.604   9.015  0.1203 -0.0689 -0.2273
45212W        W63959  20.777   3.112   7.289 -0.2271  0.2789 -0.0383
45213W        W63960   0.290  31.697   6.779 -0.0329 -0.1137  0.1489
45214W        W63961  22.351   2.425   3.115  0.2934 -0.0990 -0.0935
45215W        W63962  10.358  21.684   7.101 -0.1519 -0.1121 -0.0838
45216W        W63963  16.140   4.356  18.956  0.1065 -0.0007 -0.1169
45217W        W63964  22.569   1.504  16.593  0.0382  0.0136 -0.2707
45218W        W63965  15.869  18.262  23.955  0.2004  0.0222 -0.0524
45219W        W63966  25.729  12.248  18.851 -0.0955 -0.1698  0.2147
45220W        W63967   6.845  26.985   6.495 -0.0474  0.0206 -0.1535
45221W        W63968  33.614  24.645   1.906  0.0285 -0.3494 -0.1104
45222W        W63969  31.344  15.147  12.115  0.3476 -0.1150  0.3644
45223W        W63970   7.587  24.472  13.278 -0.3647 -0.0248  0.3427
45224W        W63971   8.963  28.761   5.066  0.1766 -0.3514  0.0146
45225W        W63972  24.716  26.340  18.868 -0.0599  0.0697  0.0225
45226W        W63973  17.208  32.252  18.143 -0.2407  0.0275 -0.3809
45227W        W63974  24.849   3.116  13.057  0.0053  0.0687 -0.2201
45228W        W63975   6.842   9.000  24.520 -0.1571  0.2578  0.0446
45229W        W63976  25.723  17.273  13.207 -0.3810  0.1440  0.0080
45230W        W63977  30.086  14.943  12.513  0.0299  0.1541 -0.0902
45231W        W63978  28.745   5.651  21.536 -0.0312 -0.0425 -0.1362
45232W        W63979   1.440  31.778   7.411  0.2853  0.0773 -0.3735
45233W        W63980   5.557  17.236   6.203  0.0207 -0.2628 -0.2049
45234W        W63981  33.469  12.765  17.770 -0.1314  0.2485  0.1545
45235W        W63982  30.794  24.624  22.049 -0.0689  0.0845  0.0883
45236W        W63983  13.197  32.793   4.833  0.2901  0.0737  0.3842
45237W        W63984  23.306   0.683  22.161 -0.1654  0.0354  0.1316
45238W        W63985  18.793  23.162  24.405 -0.0498  0.0898  0.0044
45239W        W63986  12.090  18.867  14.051  0.2290 -0.1690 -0.0747
45240W        W63987   0.917  20.507   9.695  0.1471  0.1170 -0.1143
45241W        W63988  13.269   8.911  25.960  0.2452  0.2582 -0.2781
45242W        W63989  19.214  27.025   4.533  0.2129  0.2005 -0.0026
45243W        W63990  10.163   3.307   8.958  0.1949  0.1236 -0.1463
45244W        W63991   4.250  22.496  19.062  0.1858 -0.2643  0.3270
45245W        W63992  27.861  27.313  25.664 -0.0745  0.1825 -0.0560
45246W        W63993  19.981  22.459  20.030  0.0944  0.3761  0.3435
45247W        W63994  34.110  35.230  19.137 -0.3149  0.0175 -0.0525
45248W        W63995   7.509   2.923   3.236  0.0602  0.0079  0.2380
45249W        W63996   5.068  33.794  18.873  0.0061 -0.2392  0.2016
45250W        W63997  17.052  23.799   0.968 -0.0647 -0.0139  0.0625
45251W        W63998  27.017  24.116  21.363 -0.0435  0.2318 -0.0157
45252W        W63999   4.136   5.217  22.533 -0.1938 -0.0475  0.1145
45253W        W64000  20.569  28.749   3.479 -0.0912  0.0389 -0.2494
45254W        W64001  29.568  24.516   6.823 -0.3236  0.2006 -0.2954
45255W        W64002   5.286  15.065  24.828 -0.2110 -0.0728 -0.3281
45256W        W64003   1.984  14.124  25.664  0.1824  0.2190  0.2091
45257W        W64004  12.470  26.396   5.542 -0.3955 -0.1330  0.4275
45258W        W64005  34.165  18.911  24.709  0.0590  0.0504  0.3317
45259W        W64006  25.781  35.074  24.454  0.2407  0.1013  0.0903
45260W        W64007   6.906   1.013   0.352  0.0714  0.1397  0.3341
45261W        W64008  34.409  26.818   0.282 -0.2570  0.1158  0.3145
45262W        W64009  32.039   3.400  12.843  0.0571  0.3626  0.2338
45263W        W64010  15.073  23.615  22.768 -0.0579  0.1125 -0.4131
45264W        W64011  12.696  25.976  13.330 -0.3501  0.4313 -0.0880
45265W        W64012  27.638   4.463  25.695 -0.0177 -0.1541 -0.0677
45266W        W64013  20.366  30.441  22.840 -0.0994 -0.0091 -0.3901
45267W        W64014  28.883   6.820   1.422 -0.2760 -0.2431 -0.0093
45268W        W64015   5.936   6.029   7.450  0.0336  0.0487 -0.1296
45269W        W64016  15.710   8.067   1.168  0.0942  0.3902  0.0129
45270W        W64017  11.606   8.324  12.803 -0.2498  0.0378 -0.2419
45271W        W64018  16.685  32.775  19.298 -0.0660 -0.1024  0.2289
45272W        W64019   9.273  16.725  11.045  0.2078  0.0154 -0.1434
45273W        W64020   4.875   8.411  24.556 -0.1643  0.3069 -0.0611
45274W        W64021  27.193  31.148   5.310  0.0833 -0.0076 -0.1961
45275W        W64022  25.713  13.684  24.748  0.1742 -0.1681  0.5632
45276W        W64023  11.609  28.649  23.107 -0.0067  0.3087 -0.3672
45277W        W64024  23.071  12.027   1.167 -0.1657 -0.2250 -0.2395
45278W        W64025  32.486  34.607  16.120  0.0992 -0.1179 -0.0361
45279W        W64026   1.209  27.167  25.847 -0.2304 -0.0490 -0.2213
45280W        W64027  13.368  29.388   2.737  0.3462 -0.1191 -0.0120
45281W        W64028  23.338  14.388  19.367 -0.2888  0.0874  0.2148
45282W        W64029  34.046   2.409  24.919 -0.1565  0.3047 -0.0175
45283W        W64030  12.774   4.036  18.310  0.1543 -0.4344 -0.0505
45284W        W64031  26.823  12.158  19.583 -0.0936 -0.2770  0.1561
45285W        W64032  16.900  10.002   6.436 -0.1640  0.1829 -0.2232
45286W        W64033  31.235  20.313  11.596 -0.2323  0.1791 -0.2125
45287W        W64034   4.569   7.030  20.599 -0.1299  0.1869  0.1543
45288W        W64035  12.137  27.964  10.142 -0.0548  0.0911 -0.0065
45289W        W64036  15.067  15.325   8.406 -0.0008  0.0144  0.2027
45290W        W64037   6.340  22.238   6.282 -0.1378 -0.0713 -0.4741
45291W        W64038   5.782   4.209  24.822  0.2432  0.4687 -0.3264
45292W        W64039  18.015  34.051   9.412 -0.1005  0.1189  0.2502
45293W        W64040  11.085  18.016  22.827  0.2550  0.0052  0.2215
45294W        W64041   0.979  23.493   1.018  0.3449 -0.0351  0.0531
45295W        W64042  18.029   1.548   0.566 -0.0573 -0.1440  0.0889
45296W        W64043  15.695   4.922  10.773  0.0146  0.1731  0.1294
45297W        W64044   8.195  30.068   8.411 -0.2048  0.0323 -0.3388
45298W        W64045  32.874  29.663  23.696  0.0166 -0.4699  0.0518
45299W        W64046   2.640   9.019   4.746  0.1877 -0.0745  0.0051
45300W        W64047  14.907   0.466   7.398 -0.2994 -0.0684 -0.3486
45301W        W64048  13.987  11.865   4.647  0.1424 -0.0496 -0.1117
45302W        W64049   0.526   3.470   7.276  0.0644 -0.4277 -0.2621
45303W        W64050   7.159  33.263  25.049 -0.0523  0.0206 -0.1985
45304W        W64051  35.299  17.217  19.259  0.4033  0.2490 -0.5259
45305W        W64052  13.584  25.169   2.719  0.4151  0.1140 -0.2042
45306W        W64053  17.389   0.198  22.278 -0.2473  0.2294 -0.1287
45307W        W64054  19.898  22.374  23.012 -0.2396  0.3108 -0.1138
45308W        W64055  25.087  26.018  12.515 -0.1381 -0.1955  0.1025
45309W        W64056  22.630  13.262  21.697 -0.1590  0.0502 -0.3646
45310W        W64057  28.529   3.726  12.178  0.0817 -0.0950 -0.2046
45311W        W64058   3.967   5.451  24.656  0.2309 -0.4021  0.2147
45312W        W64059  32.479  23.532  20.217 -0.0208 -0.0612  0.3644
45313W        W64060  26.915   0.510  11.457  0.2575 -0.0098 -0.0368
45314W        W64061  19.925   2.106  24.105 -0.2526  0.2146  0.0161
45315W        W64062  28.468  26.998  17.175  0.1117 -0.0142  0.0077
45316W        W64063  12.430  17.722   5.714  0.0276  0.0566 -0.0067
45317W        W64064  26.402   1.442  25.209  0.1441 -0.1209 -0.2923
45318W        W64065  19.003  29.348  22.261  0.2924  0.3307  0.3593
45319W        W64066  16.384  12.044   4.337  0.0022 -0.0747  0.3641
45320W        W64067   9.693   9.386   5.779  0.2320  0.0481  0.3784
45321W        W64068  14.818   9.891  25.228 -0.0023  0.1135 -0.4882
45322W        W64069   3.052   4.312  19.007  0.2749  0.0293 -0.0673
45323W        W64070  11.949  12.392  12.617 -0.1254  0.0800  0.0429
45324W        W64071  34.466  12.338  15.063  0.1873  0.0912  0.0487
45325W        W64072  29.409  34.851  17.311 -0.2215  0.1730  0.0605
45326W        W64073  10.889   8.114  11.236  0.2011  0.0980  0.0543
45327W        W64074  25.167   9.725  10.385 -0.2063 -0.0873  0.0465
45328W        W64075   6.571  10.424  18.437  0.3093  0.0920 -0.0657
45329W        W64076   9.819  24.469   2.066 -0.0153 -0.0204 -0.0282
45330W        W64077  35.233   6.302   3.416 -0.0754 -0.1907  0.0193
45331W        W64078   2.142  26.279   3.464  0.0311  0.0831 -0.0755
45332W        W64079  22.367  31.033   5.344 -0.1550 -0.0123  0.0798
45333W        W64080   4.471   1.200  10.030  0.2217 -0.2339  0.0684
45334W        W64081   2.174  11.555   1.586 -0.1115 -0.0821 -0.2047
45335W        W64082  19.245  16.114   2.423 -0.1000 -0.1862  0.0135
45336W        W64083  32.635  16.961  16.391 -0.1619  0.0510  0.1662
45337W        W64084  33.340  13.911  15.842 -0.1984 -0.1367 -0.1167
45338W        W64085  24.267   9.945  16.409 -0.2671  0.0090  0.1031
45339W        W64086  30.693  26.222   0.792 -0.1374 -0.2489  0.2636
45340W        W64087  28.558  30.781   2.672  0.1339 -0.0929  0.2580
45341W        W64088  33.558  22.665  13.021  0.1099 -0.2282  0.0215
45342W        W64089  17.738  30.838   6.261  0.0925  0.3128  0.0537
45343W        W64090  34.050  24.606  11.296  0.1309  0.0611  0.0590
45344W        W64091   4.896  10.879  21.866  0.2860  0.0561  0.0987
45345W        W64092   5.416   2.543  25.232  0.1129 -0.1666  0.2605
45346W        W64093  23.022  19.248  23.488 -0.2530  0.0727 -0.0577
45347W        W64094  26.959  31.968   3.646  0.1549 -0.1823  0.0078
45348W        W64095  22.971  29.735  13.883  0.0310  0.4400  0.1265
45349W        W64096  16.028   9.960  12.933  0.3502  0.1072  0.2039
45350W        W64097  10.680  11.643  20.399 -0.0666 -0.4366  0.0267
45351W        W64098   3.864  15.680  19.063 -0.0135 -0.0595 -0.2462
45352W        W64099  13.483   5.166  25.748 -0.3831 -0.1061 -0.1478
45353W        W64100  32.149  15.562  21.415 -0.2632  0.1251 -0.1966
45354W        W64101  11.534   3.036  23.943  0.0145 -0.1557  0.3157
45355W        W64102   8.056  17.951  13.492  0.1695  0.0877 -0.1130
45356W        W64103  27.328  18.689  20.419  0.3575  0.2281 -0.3216
45357W        W64104   5.298  16.382  19.149  0.3204 -0.3560  0.0679
45358W        W64105  16.993   3.944   8.510 -0.1661  0.2717  0.0715
45359W        W64106   5.985   3.116  18.833 -0.1164 -0.1565  0.1833
45360W        W64107  23.800  15.341  22.578  0.3593  0.0288  0.0470
45361W        W64108  30.203  34.492  16.601 -0.0965 -0.5022 -0.0042
45362W        W64109   7.747   7.794   0.949 -0.1344  0.0283 -0.0118
45363W        W64110   6.266  28.625  25.793  0.0203  0.1588 -0.2842
45364W        W64111   5.204   8.034  22.308 -0.4381  0.0606 -0.3981
45365W        W64112  31.352  15.346  25.844 -0.0416 -0.0500 -0.0120
45366W        W64113  27.414  26.338  25.080  0.0596  0.1586 -0.2244
45367W        W64114   9.033  13.766   8.276 -0.3627  0.0377 -0.0148
45368W        W64115  11.335  15.581   2.857  0.0497 -0.1462  0.2022
45369W        W64116  22.172  30.788   6.011 -0.0482 -0.3062 -0.0856
45370W        W64117  35.355   1.081  18.571  0.0447  0.0034 -0.1802
45371W        W64118   2.807  20.470  25.540  0.0503  0.0124 -0.0262
45372W        W64119   8.584  26.788  15.407  0.0881  0.2391  0.1522
45373W        W64120   2.050  19.868  16.787 -0.2398 -0.1742  0.0024
45374W        W64121  15.813  15.450  19.100 -0.1806 -0.0350  0.2086
45375W        W64122  32.980  24.430  17.932  0.1974 -0.1117  0.0652
45376W        W64123  14.283  31.355   6.120  0.1886  0.0529 -0.1213
45377W        W64124   9.507  10.198  22.129 -0.0176  0.1852 -0.0038
45378W        W64125   0.791  19.248   2.097  0.2675  0.1371 -0.1621
45379W        W64126  25.702  24.901  10.195  0.0874 -0.1204  0.1855
45380W        W64127   8.422  22.602  11.922  0.1468  0.2306  0.1415
45381W        W64128  34.319   2.211  25.316  0.0436  0.0055 -0.0981
45382W        W64129  27.401  24.835   1.352 -0.0409  0.1915  0.2776
45383W        W64130  26.246  27.738   1.282  0.2293  0.2987 -0.0012
45384W        W64131   6.018  15.604  23.059  0.0675 -0.2656  0.1133
45385W        W64132  23.455  24.787  21.624 -0.0670  0.0485  0.1912
45386W        W64133   9.912  21.430   2.177  0.2183  0.3317  0.0694
45387W        W64134  21.938   3.887  16.105  0.0611  0.2649 -0.2913
45388W        W64135  22.438   8.711  17.172 -0.1640  0.4050  0.1228
45389W        W64136  27.473   1.563  15.321 -0.0057  0.0134 -0.1532
45390W        W64137  13.432  24.610   5.304  0.0822 -0.0175  0.0244
45391W        W64138   5.953  14.924   2.213  0.0021  0.3932  0.0850
45392W        W64139  25.725  20.500  19.723  0.2917  0.3464  0.0252
45393W        W64140  11.723  28.658  10.422  0.0457  0.4495 -0.2971
45394W        W64141   8.740  34.772  13.469  0.0764 -0.0768  0.0280
45395W        W64142   9.100  30.347   7.300  0.0203  0.0720 -0.2106
45396W        W64143   5.204  19.588   0.869  0.3590  0.0982 -0.2127
45397W        W64144  21.726  20.133  25.517  0.2737  0.0879 -0.1907
45398W        W64145   0.139   3.698   3.108 -0.1372  0.2523 -0.3638
45399W        W64146  19.755  15.199  25.037 -0.0305 -0.1229 -0.1581
45400W        W64147  13.813  11.324   1.711 -0.1356  0.1769  0.0948
45401W        W64148   8.884  14.973  19.754  0.0531  0.1241  0.0767
45402W        W64149  30.522  34.578   4.414  0.0767  0.2018  0.1278
45403W        W64150   6.002  13.567  23.869 -0.1665 -0.0629 -0.2858
45404W        W64151   8.703  27.134   7.735 -0.2219 -0.2946 -0.0983
45405W        W64152   9.350  13.525  20.610 -0.0366 -0.1027 -0.0851
45406W        W64153  15.946  12.468  14.591 -0.1475  0.0301 -0.1340
45407W        W64154  28.674  34.261  20.970  0.2892  0.0073  0.1821
45408W        W64155  10.976  23.782   0.797  0.0902  0.1195  0.0157
45409W        W64156   8.916   0.625  10.401 -0.1453  0.1357 -0.2282
45410W        W64157  33.098   7.724  13.369 -0.1363  0.1501 -0.1361
45411W        W64158   1.658  33.336   5.200 -0.0222 -0.0243  0.2222
45412W        W64159  27.631  33.300  15.713  0.0807  0.0313 -0.0612
45413W        W64160  19.660  21.684   8.709  0.2546  0.0133  0.1432
45414W        W64161  29.061  16.180  13.545  0.3151 -0.3158  0.1855
45415W        W64162   8.074  24.479  22.590 -0.1633 -0.0754  0.1414
45416W        W64163  10.653   9.688   7.390  0.1632  0.0327 -0.2048
45417W        W64164  11.989  10.979   9.373 -0.2106 -0.0184 -0.0226
45418W        W64165   8.576   1.547  20.056  0.2932  0.1115 -0.1418
45419W        W64166   1.961  32.330  20.525 -0.1530  0.0017 -0.3258
45420W        W64167  29.571  15.125  22.307  0.2385 -0.0586 -0.2235
45421W        W64168  17.818  13.695   9.729 -0.4483  0.1701  0.0070
45422W        W64169  10.004  30.836  13.100 -0.2280 -0.1507  0.0868
45423W        W64170  33.672  15.210  20.993  0.0256  0.0303  0.2026
45424W        W64171  11.860  26.843  16.102  0.0797  0.1388  0.1528
45425W        W64172   6.185   2.797   7.814 -0.1789 -0.2282  0.1808
45426W        W64173  29.583   1.311   6.788  0.3118  0.1254  0.0166
45427W        W64174   6.009   6.950  20.263 -0.2774 -0.0918  0.0139
45428W        W64175   0.811   0.183   0.512 -0.0035 -0.1211 -0.1274
45429W        W64176  19.104  18.713   7.794  0.0365 -0.1084 -0.2330
45430W        W64177  16.527  14.535  24.851 -0.0150 -0.2331 -0.0067
45431W        W64178   5.555   7.088   6.893  0.2556  0.1550 -0.1458
45432W        W64179  35.025  34.522   8.632 -0.1407 -0.0127 -0.1730
45433W        W64180  11.101  25.813  22.412  0.0806 -0.0824  0.1476
45434W        W64181   5.279  15.475  20.146 -0.0197  0.3013  0.1485
45435W        W64182  32.843  28.030  11.352 -0.3164 -0.1095 -0.0033
45436W        W64183  17.920  13.881  24.269 -0.2032  0.1114  0.0109
45437W        W64184  23.951  31.203  22.428 -0.1002  0.0378 -0.2877
45438W        W64185  14.306  15.533   6.655 -0.1218 -0.1632  0.3675
45439W        W64186   5.895  27.489   2.851 -0.0979 -0.2767  0.2160
45440W        W64187  30.516  20.783  17.076  0.1134 -0.4136  0.1957
45441W        W64188  29.251   1.014  25.589 -0.0218 -0.2175 -0.2097
45442W        W64189  33.369  20.329   8.322 -0.1140  0.0858 -0.0107
45443W        W64190   4.473  27.319   1.228  0.0736 -0.0677 -0.3119
45444W        W64191  31.423  28.273  10.883 -0.0363  0.1169  0.1731
45445W        W64192  29.714  16.473  18.557  0.1060  0.2064 -0.2103
45446W        W64193  16.237   0.394  25.743 -0.0651 -0.0100  0.2875
45447W        W64194  10.945  24.536   1.398 -0.0587  0.1723  0.1062
45448W        W64195  27.883  22.726  15.145  0.1172 -0.2573  0.1715
45449W        W64196  28.093  33.215  22.342  0.5434 -0.0724  0.1055
45450W        W64197  12.192   7.488   9.124  0.0948 -0.0065  0.0892
45451W        W64198  34.810  22.409  23.849 -0.1909  0.0108 -0.2078
45452W        W64199  11.470   8.429   8.532 -0.0646 -0.4329 -0.0602
45453W        W64200  33.640   5.629  20.900  0.0745 -0.0088 -0.0265
45454W        W64201  12.554   7.619  23.141 -0.1394  0.0447 -0.2746
45455W        W64202  25.888   1.484   3.461 -0.0989  0.0695 -0.3467
45456W        W64203   8.634  23.743   2.377 -0.1599 -0.1290  0.0819
45457W        W64204  28.374  20.488   9.716 -0.0433  0.0962 -0.1595
45458W        W64205  35.086  16.710  24.797 -0.1062 -0.0425  0.3320
45459W        W64206  28.019  20.359  24.322 -0.2024 -0.0881  0.0872
45460W        W64207  22.094  32.647   1.296 -0.2212  0.2053 -0.3930
45461W        W64208  18.745   5.825   7.202 -0.0313 -0.0567  0.0606
45462W        W64209  27.541  32.429  25.800  0.0153 -0.1792  0.0944
45463W        W64210   1.665  30.882  23.971 -0.1447 -0.2711 -0.1116
45464W        W64211   5.091  23.112  23.065  0.1020 -0.5653  0.4253
45465W        W64212  13.016  25.864   2.976  0.1520  0.4248  0.1169
45466W        W64213  16.167  13.052  22.302  0.0671  0.2102  0.2490
45467W        W64214  11.105  32.559   0.148 -0.0564  0.0727 -0.1002
45468W        W64215  11.767  15.843   9.529  0.2599 -0.1629  0.3431
45469W        W64216  10.875   3.435  24.813  0.1946 -0.2222 -0.2581
45470W        W64217   1.153  32.683   5.483 -0.2637 -0.1237  0.2011
45471W        W64218   9.046   2.734   6.394 -0.4251 -0.0473  0.3501
45472W        W64219  23.446  14.689  19.769 -0.1996 -0.1925  0.0737
45473W        W64220  16.639  29.978  23.205 -0.2838 -0.2384 -0.0103
45474W        W64221   5.855   5.630  10.915  0.1598  0.1823  0.1284
45475W        W64222   9.579  20.815  22.983  0.2463  0.0435  0.1771
45476W        W64223  27.505   0.574  19.796 -0.0522 -0.0643  0.0292
45477W        W64224  33.848   7.111  13.157 -0.0561  0.0020 -0.0572
45478W        W64225  31.001  15.121  10.624 -0.0086 -0.1230  0.1275
45479W        W64226  19.731  10.224   4.798  0.0582  0.3328 -0.1596
45480W        W64227   6.344  32.541   4.114  0.4551 -0.2022  0.0174
45481W        W64228   8.148  29.540   7.687 -0.1818 -0.1020 -0.0381
45482W        W64229  22.601  16.553  20.967 -0.2198  0.1738  0.1877
45483W        W64230  34.133  27.534  22.164  0.0851 -0.0735 -0.0454
45484W        W64231   3.111   1.122   5.093  0.3151 -0.2351 -0.0288
45485W        W64232  33.852  23.211   9.054 -0.1201 -0.1210 -0.2271
45486W        W64233   2.688   3.667   1.003 -0.4242 -0.0555 -0.3788
45487W        W64234  19.612  20.404   5.198 -0.2897 -0.2618 -0.0002
45488W        W64235  27.102  31.399   3.572 -0.0293 -0.2283 -0.1875
45489W        W64236  24.449  29.948  12.402 -0.5762  0.2604  0.1817
45490W        W64237  22.722   0.650  17.464 -0.0556 -0.0728 -0.0594
45491W        W64238  14.795  34.067   6.964  0.0870 -0.1865 -0.3036
45492W        W64239  35.345  25.660  22.376  0.1910  0.3544 -0.0634
45493W        W64240  10.436   0.152  22.646  0.2598 -0.0723  0.2884
45494W        W64241  34.029  34.982   2.146  0.2867  0.1286  0.1134
45495W        W64242   7.253  24.815  23.564  0.3325 -0.1736 -0.1797
45496W        W64243   1.357  14.622  26.184 -0.0520 -0.2464 -0.0653
45497W        W64244  30.618  34.174  18.963  0.3418 -0.1208 -0.0430
45498W        W64245  15.346  32.062   8.528  0.3558 -0.1020  0.0609
45499W        W64246  10.717  14.758   8.162 -0.2008  0.1353 -0.0963
45500W        W64247  30.657  11.009   8.877 -0.1206  0.1001 -0.2630
45501W        W64248  16.617  32.728   9.032 -0.2921 -0.0761 -0.1123
45502W        W64249  24.347  31.904  22.199 -0.0002  0.0662  0.0141
45503W        W64250  17.196   3.837   2.791  0.0182 -0.1319 -0.2171
45504W        W64251   0.159  10.892   0.929  0.0827 -0.0311 -0.2656
45505W        W64252  16.773   2.467   9.652 -0.0329  0.0503  0.1570
45506W        W64253  30.690   5.535  22.052 -0.2293 -0.2256  0.0508
45507W        W64254  11.156   1.140   5.467 -0.1467 -0.0709 -0.3829
45508W        W64255  28.284   2.747   3.453 -0.0992 -0.0860 -0.0680
45509W        W64256  22.517   0.173  16.552 -0.1633 -0.0385  0.0277
45510W        W64257  31.904  25.914  21.099 -0.0492 -0.2791 -0.0161
45511W        W64258  34.559   3.146  25.763 -0.0288  0.3542  0.0583
45512W        W64259  32.148  28.144  25.194  0.2991 -0.0822  0.1340
45513W        W64260  11.755  16.863  22.425  0.3209 -0.2496 -0.0337
45514W        W64261  31.813  15.235   9.955 -0.0961 -0.0394 -0.1888
45515W        W64262  32.881  30.168  13.603 -0.0655  0.1108 -0.2687
45516W        W64263  15.833  34.884  10.562  0.3288 -0.2189 -0.1553
45517W        W64264  14.066   2.701  17.306  0.3630 -0.1677 -0.2512
45518W        W64265  29.917  17.231  11.864 -0.2500  0.2531  0.2729
45519W        W64266  26.151  23.772  18.802 -0.0336 -0.0486 -0.0197
45520W        W64267   5.288  30.411  12.957  0.0098  0.1206 -0.0978
45521W        W64268  30.119  12.517  13.194  0.0802  0.1466 -0.0903
45522W        W64269  33.082  19.932  25.440 -0.3276 -0.2321  0.0483
45523W        W64270  28.180  15.047  10.786  0.4142 -0.0159  0.2610
45524W        W64271   5.050  10.461   7.456  0.1120  0.3051  0.1141
45525W        W64272  10.490  15.716  23.226  0.1137 -0.3547  0.1132
45526W        W64273  28.631  29.873   0.904 -0.0960  0.0827  0.1773
45527W        W64274  11.162  13.143  20.115 -0.1563  0.3124  0.1077
45528W        W64275  13.590  21.481  11.203 -0.1255  0.0774  0.0199
45529W        W64276  22.616   5.070   1.881 -0.1795 -0.1797 -0.2363
45530W        W64277   9.695   0.118   6.624 -0.1193  0.0402  0.2084
45531W        W64278   8.630  32.050  10.066 -0.0811 -0.1089  0.4571
45532W        W64279  33.628   3.541  16.790  0.3836  0.1800 -0.0225
45533W        W64280   2.600   6.908  24.722 -0.3237  0.5157  0.0756
45534W        W64281  24.510   9.848  21.819  0.1222  0.3660  0.2065
45535W        W64282  20.156  21.361   7.056  0.1299 -0.2272  0.2071
45536W        W64283  13.790  27.985  22.456  0.1155  0.1171 -0.0819
45537W        W64284   3.610  27.185  23.444  0.0148  0.2927 -0.0338
45538W        W64285  33.078  21.743  16.325 -0.1894  0.0319 -0.0732
45539W        W64286  18.645   8.730   2.014  0.1913 -0.0649 -0.0065
45540W        W64287  10.017  27.210   0.983  0.1481  0.1403 -0.2781
45541W        W64288  15.332   5.991   1.165  0.0040  0.3290 -0.1143
45542W        W64289  33.590  22.060  22.470 -0.2614 -0.0377 -0.1470
45543W        W64290  24.371   4.949  13.338 -0.1950 -0.3235 -0.1580
45544W        W64291   7.453  24.359   7.033  0.1844 -0.0959  0.0551
45545W        W64292  16.849  25.629  20.975 -0.2427  0.0563 -0.3081
45546W        W64293   6.416  15.190   4.262 -0.1987  0.0976  0.0453
45547W        W64294  30.669  26.482   9.057  0.0182 -0.1561 -0.0183
45548W        W64295  20.461  11.854   5.538 -0.4903  0.0086  0.0782
45549W        W64296  16.223  22.736   6.148  0.0630  0.0182  0.0170
45550W        W64297  26.398   7.204  19.423 -0.2093  0.2582 -0.1824
45551W        W64298   4.190  15.603   6.058  0.0455  0.1464 -0.1307
45552W        W64299   7.587   7.879  20.098 -0.1206 -0.1283 -0.1411
45553W        W64300  15.869  19.958  23.561 -0.3742  0.2041 -0.0107
45554W        W64301  28.093  14.385  12.333 -0.4169  0.1730 -0.1111
45555W        W64302  15.781  32.946   3.928  0.2543  0.6092  0.1958
45556W        W64303  27.045  11.884  24.975 -0.2538  0.0278  0.5572
45557W        W64304  17.303   1.939  22.429  0.2002  0.1767 -0.1441
45558W        W64305   8.577   7.598   1.891  0.2984 -0.0715 -0.1788
45559W        W64306  33.656  26.808   1.161  0.2973 -0.1043  0.3323
45560W        W64307  20.750   6.849   9.608 -0.0352 -0.0347 -0.0935
45561W        W64308  18.963  17.117  25.951 -0.1803  0.2640 -0.1546
45562W        W64309   0.080  12.855  24.629  0.1241 -0.0477 -0.3882
45563W        W64310  35.062   4.296  14.114 -0.0600 -0.1170 -0.2247
45564W        W64311   7.769  26.777   0.771  0.0775  0.2218  0.1022
45565W        W64312  17.010   4.260   0.298 -0.2988  0.1666  0.1166
45566W        W64313  14.865   3.891  17.275  0.2200  0.1210  0.2569
45567W        W64314  19.957   3.343   1.235  0.2634 -0.1668 -0.0817
45568W        W64315   6.486  21.850   2.687 -0.3274  0.0019  0.2994
45569W        W64316  27.805  17.568  15.584  0.0181  0.1557 -0.0899
45570W        W64317  28.639  16.956  10.502  0.2872 -0.1044  0.2557
45571W        W64318  15.586  20.105   0.965  0.3207  0.0764 -0.2979
45572W        W64319  14.624  17.311   6.257 -0.0158 -0.2493  0.0890
45573W        W64320   5.146  11.443  21.110 -0.1856 -0.3630 -0.1551
45574W        W64321  28.670  19.462  15.406 -0.0632 -0.0403 -0.1165
45575W        W64322   6.061  21.824   5.498 -0.0479  0.1298 -0.0752
45576W        W64323  10.030  13.429  22.153  0.1786  0.3114 -0.1694
45577W        W64324  11.856  24.121  25.094 -0.0136  0.3983  0.1521
45578W        W64325   2.195   2.391  19.732  0.2811  0.1848 -0.3668
45579W        W64326  20.712  34.629  17.090 -0.0927 -0.0228 -0.2285
45580W        W64327   9.363  34.040  23.860  0.3618  0.1033 -0.0798
45581W        W64328  28.097  25.645  24.800 -0.0564  0.3369  0.1904
45582W        W64329  18.574  33.683  25.145  0.0504 -0.2459  0.0955
45583W        W64330  16.658  23.730   7.218  0.2401 -0.0053 -0.1010
45584W        W64331  11.360   1.266   4.062 -0.0525 -0.0133  0.2197
45585W        W64332  26.491  34.443   0.305  0.3698 -0.0567 -0.0566
45586W        W64333  12.643  22.039   3.410 -0.0031  0.1371  0.4064
45587W        W64334  16.410  24.683  10.988 -0.2188  0.1904  0.0308
45588W        W64335  27.359  29.801  22.866 -0.0192  0.2719 -0.0447
45589W        W64336  25.735   9.282  24.350 -0.1033  0.0690  0.1267
45590W        W64337  17.540  26.501   2.009 -0.0567  0.1423  0.0256
45591W        W64338  22.819  34.939  21.358  0.5811  0.0384 -0.1860
45592W        W64339  21.752   8.826  23.941 -0.1122 -0.0595  0.0792
45593W        W64340  15.545  10.597  14.256 -0.2977 -0.1089  0.1342
45594W        W64341   4.948  11.665  22.816 -0.1325 -0.1304 -0.1714
45595W        W64342   1.754  33.468  26.132  0.0504  0.5622  0.0957
45596W        W64343  22.644  31.766  14.646 -0.0046  0.0522 -0.2582
45597W        W64344  27.964  30.180  24.050 -0.0822  0.1961  0.0619
45598W        W64345  15.764   5.464   4.488 -0.1682  0.1037  0.0725
45599W        W64346  14.483   7.350  20.193  0.0093 -0.2387  0.3699
45600W        W64347  24.485   4.177   2.943  0.0319  0.0489 -0.1110
45601W        W64348  29.916   5.621  18.937  0.0419  0.0743 -0.3077
45602W        W64349  33.824   4.182   1.817 -0.1655 -0.2206 -0.0410
45603W        W64350  22.367  32.679   4.332  0.1129  0.3158 -0.1307
45604W        W64351   0.808   6.796  12.372 -0.1621 -0.0172  0.0550
45605W        W64352  26.727  31.459  16.088 -0.2977  0.1117 -0.0841
45606W        W64353   0.687  34.290   0.127 -0.0787  0.0503  0.1453
45607W        W64354  28.699   2.552   5.278  0.0291 -0.3045 -0.0729
45608W        W64355  27.914   4.471  13.921 -0.1672 -0.4014 -0.1264
45609W        W64356  24.544  11.002  25.470 -0.2579  0.0411 -0.0158
45610W        W64357  27.945   2.118  23.597  0.0503 -0.3503 -0.1279
45611W        W64358  27.981   5.568  10.751  0.1314  0.5699  0.1379
45612W        W64359   6.033  31.077   8.890  0.2575 -0.0357 -0.1461
45613W        W64360   9.499   4.165   8.237  0.3382 -0.1418 -0.1112
45614W        W64361  13.162  12.412  21.666  0.0550 -0.0506 -0.1278
45615W        W64362   4.093   1.034   8.603  0.1406  0.0107  0.0774
45616W        W64363   5.219  20.964  18.673 -0.2323  0.1978 -0.1462
45617W        W64364  10.007  25.633  10.969  0.1125  0.0482  0.1042
45618W        W64365  35.169   7.001   1.515 -0.2560  0.3838  0.2078
45619W        W64366  33.124   9.813  18.326 -0.0654  0.4036  0.0245
45620W        W64367  30.187   9.990  15.120 -0.2005 -0.2564 -0.0234
45621W        W64368  20.271  25.786  21.393 -0.0660  0.3328  0.3396
45622W        W64369  13.295   8.304   4.304 -0.0235 -0.3312  0.4029
45623W        W64370  12.383   4.275   5.578 -0.3249  0.3317  0.1043
45624W        W64371  24.272  22.564  24.354 -0.3475  0.2139 -0.0186
45625W        W64372  29.724  10.626  16.623 -0.1922  0.0803 -0.1745
45626W        W64373  16.666   7.566  22.897 -0.0590  0.1849  0.2236
45627W        W64374  20.529  24.896  22.564 -0.1790  0.3032 -0.0364
45628W        W64375   1.967  11.832   0.022 -0.2386 -0.1092  0.2233
45629W        W64376   9.044  20.363  13.014 -0.1036 -0.4074 -0.1509
45630W        W64377  29.244   1.310  17.575  0.1771  0.2434 -0.1576
45631W        W64378  16.338  15.751  13.864  0.2810  0.2441 -0.1875
45632W        W64379  28.769   0.581   0.398  0.0079  0.1345 -0.0227
45633W        W64380  15.327  17.958  13.003 -0.2490 -0.2270  0.0652
45634W        W64381  21.733   8.004  22.261  0.0611 -0.0677  0.2794
45635W        W64382   0.435  30.271   0.860 -0.0931  0.1978  0.0290
45636W        W64383   2.532  30.654  18.648  0.4221  0.0165  0.3803
45637W        W64384  29.292  30.815  20.276  0.1869  0.0306  0.0006
45638W        W64385  18.330   1.146   2.017  0.0232 -0.1379  0.3865
45639W        W64386  10.041  30.484   1.107  0.1570  0.0482  0.0727
45640W        W64387  27.466  34.540  24.334 -0.1601  0.1429  0.0321
45641W        W64388  28.548  19.173  20.581 -0.0018 -0.1352  0.0400
45642W        W64389  12.802  23.033   1.548 -0.1365 -0.1645  0.1360
45643W        W64390  21.027   4.751  24.037 -0.0161 -0.1673  0.0644
45644W        W64391  34.394  29.263  17.928  0.0649  0.0043  0.3643
45645W        W64392  11.489  23.403  17.472 -0.4395  0.2110 -0.0311
45646W        W64393  26.400   4.838  15.755  0.1918 -0.0987 -0.3983
45647W        W64394   7.356   2.791   5.194 -0.1888 -0.1810  0.1295
45648W        W64395   0.278  27.664  23.604 -0.2266  0.0837  0.1920
45649W        W64396  21.197  23.825  18.986 -0.0270 -0.1591 -0.0910
45650W        W64397  14.077   1.299  10.629  0.0334  0.1465 -0.1707
45651W        W64398   2.838  11.786  14.650 -0.2620  0.2658  0.1265
45652W        W64399  13.922  30.377  10.547  0.1790  0.0921  0.1266
45653W        W64400  26.213  13.837  10.676 -0.2420 -0.1813 -0.1021
45654W        W64401   6.562  12.892  19.680 -0.4132  0.2487  0.0505
45655W        W64402  31.854  24.525   9.021  0.2420  0.0320 -0.1439
45656W        W64403  11.450  34.429   9.902 -0.2097 -0.0393 -0.2623
45657W        W64404   1.424  33.230  22.077  0.0504  0.1399 -0.3110
45658W        W64405   8.297  17.937   1.336  0.0311 -0.2382  0.1010
45659W        W64406  12.360   0.852  11.208 -0.0451  0.0378  0.0317
45660W        W64407  16.934   4.051   3.617  0.0810  0.0604  0.1825
45661W        W64408  23.856   9.743  23.960 -0.1366 -0.1053 -0.0647
45662W        W64409  21.014  26.552  22.929 -0.0930  0.3846  0.3628
45663W        W64410  10.738   6.880  14.537  0.2245  0.0855  0.2981
45664W        W64411  27.724  13.102   6.185 -0.0530 -0.0375  0.2040
45665W        W64412  21.450  30.004   0.111 -0.0842 -0.1422 -0.0503
45666W        W64413  31.688   3.910   1.504  0.0411 -0.3655 -0.0312
45667W        W64414  12.051  15.321  21.815  0.0175 -0.0072 -0.0137
45668W        W64415   4.770  23.149  24.974 -0.1883  0.2738 -0.0890
45669W        W64416  19.422  10.808  20.101 -0.2975  0.2270  0.3606
45670W        W64417  20.399  23.299   2.774  0.0357  0.2652  0.0303
45671W        W64418   8.801  26.483  25.902  0.1809 -0.1857  0.0379
45672W        W64419  25.635  27.639  15.562 -0.0253  0.2318 -0.0601
45673W        W64420  10.117  22.441   7.217 -0.1598  0.0244  0.3947
45674W        W64421   5.182   2.913   9.476  0.3617 -0.0598 -0.0479
45675W        W64422   8.121   1.957   2.469  0.2559 -0.3215  0.2304
45676W        W64423  29.027  32.577  12.596 -0.0817 -0.1295  0.1373
45677W        W64424  16.754   6.106   4.980  0.1476 -0.1835  0.1386
45678W        W64425  23.477  10.646  24.819 -0.2683 -0.0633 -0.0379
45679W        W64426  33.235  16.609  24.221  0.1148 -0.1145 -0.3250
45680W        W64427   8.188  17.894  24.903  0.3092 -0.2466 -0.0368
45681W        W64428  31.573  32.037  11.780  0.0012 -0.0830 -0.2688
45682W        W64429   1.637   7.435  21.861  0.1649  0.4311  0.0288
45683W        W64430   8.301  20.864  10.929  0.0537  0.3393  0.2777
45684W        W64431  24.539  34.405   3.760  0.1307  0.3896  0.0095
45685W        W64432  16.147  27.706   0.299 -0.0602  0.1335 -0.1789
45686W        W64433  14.346  17.425   7.738 -0.1085 -0.0912 -0.3093
45687W        W64434   9.286   4.467  23.554 -0.0562  0.3892 -0.0907
45688W        W64435  18.726  16.217  12.022  0.0355 -0.3116  0.1577
45689W        W64436  14.491  29.678  25.774 -0.0641 -0.0925  0.0968
45690W        W64437  15.582  28.056  22.279  0.2926  0.1657  0.1497
45691W        W64438   9.997  30.582   9.403  0.0551 -0.4251 -0.0296
45692W        W64439  26.709   3.175  14.661 -0.0832 -0.2309 -0.0980
45693W        W64440   2.707   0.692   8.722  0.3076 -0.0344  0.0740
45694W        W64441  34.015  35.273  23.650 -0.0837 -0.1436 -0.1456
45695W        W64442  23.393   8.843  17.159 -0.5035 -0.1270  0.1349
45696W        W64443  12.703  10.777   1.716 -0.1255  0.0978  0.0165
45697W        W64444  13.820  12.398  10.436  0.2102  0.1859 -0.0431
45698W        W64445  31.099  22.403  20.625  0.1729 -0.1916  0.1766
45699W        W64446   8.060  34.676   3.339  0.1329 -0.0552  0.0367
45700W        W64447   2.241  31.134   6.684 -0.1286 -0.1445 -0.0396
45701W        W64448  26.771  32.026   1.276  0.0936 -0.2249 -0.0884
45702W        W64449  11.961   2.813   6.905  0.1249  0.0185 -0.0432
45703W        W64450  28.132  30.098  22.026 -0.0993  0.0043  0.0070
45704W        W64451  25.727   2.793  17.227 -0.0533  0.1037  0.1159
45705W        W64452   7.372  27.756  15.910  0.2590 -0.1312  0.0052
45706W        W64453   2.757   9.893  15.199 -0.1030 -0.0209  0.0510
45707W        W64454  33.353  15.341  15.818  0.1540  0.0540  0.4087
45708W        W64455  20.619  33.334  23.186  0.1635 -0.0687 -0.0227
45709W        W64456  18.284  11.258   0.322  0.1186 -0.1611  0.2060
45710W        W64457  18.632   7.015   2.448 -0.0173  0.2884  0.0367
45711W        W64458   5.671  12.429  22.791  0.2101  0.1389  0.0904
45712W        W64459   0.983   6.733  22.184  0.0703  0.3084 -0.1217
45713W        W64460  21.794  32.792  25.617 -0.0131  0.3958  0.1886
45714W        W64461  19.200   9.996  17.696  0.1851  0.0524  0.2347
45715W        W64462  12.604  11.738  12.282 -0.2000  0.1380 -0.0422
45716W        W64463   5.818  26.611  24.088 -0.1409  0.0190 -0.0411
45717W        W64464   6.190  26.203  15.107  0.1315  0.0370  0.0688
45718W        W64465  12.671   5.968   2.306 -0.1405  0.1050  0.2569
45719W        W64466   4.803  35.132  19.877 -0.2423  0.0721  0.0493
45720W        W64467  26.393   2.691  10.636 -0.3185 -0.0529 -0.0340
45721W        W64468  16.580  32.672  10.014  0.0666  0.2101  0.2127
45722W        W64469  32.468  31.759  25.017 -0.0778  0.1511 -0.1219
45723W        W64470  15.104   9.067  13.955  0.1347  0.2307  0.1576
45724W        W64471  24.363  18.771  19.540  0.2675  0.1104 -0.0089
45725W        W64472   5.271  16.659  18.265 -0.1116  0.3050  0.0587
45726W        W64473  24.238  33.081  13.597  0.0711 -0.0276 -0.0329
45727W        W64474  11.664  13.537   0.726  0.1350 -0.1874  0.1938
45728W        W64475  16.889  24.229  13.839 -0.1325  0.1319  0.1785
45729W        W64476   7.563   9.401   3.272  0.2031 -0.4269 -0.0435
45730W        W64477  13.888  27.340   6.592 -0.0639  0.1109  0.1193
45731W        W64478  13.436  27.337   9.820 -0.2377  0.0615 -0.0670
45732W        W64479  12.024   9.371   5.097  0.0306  0.2235 -0.0422
45733W        W64480  10.197   2.247  13.533  0.0341 -0.0369 -0.3779
45734W        W64481   5.762  30.863   1.505  0.1237 -0.1709  0.1891
45735W        W64482  17.312   5.511   2.279  0.1269 -0.2590  0.1926
45736W        W64483  21.422  10.886  14.504  0.1013  0.1732 -0.1127
45737W        W64484   1.739  26.013  22.102  0.2271  0.1088 -0.0345
45738W        W64485  18.962  20.852  12.289 -0.3006  0.1228  0.1412
45739W        W64486  18.332  27.194   4.670  0.1621 -0.2995 -0.0483
45740W        W64487   6.049  26.930   8.747  0.0100  0.2240 -0.1496
45741W        W64488  22.803  14.106   1.037  0.0652  0.0215  0.1808
45742W        W64489  21.272  11.395  17.164  0.0930 -0.0469  0.1305
45743W        W64490   5.806  14.094  20.888  0.0282 -0.2359  0.0199
45744W        W64491  17.302  33.503   9.839 -0.1363  0.0585  0.2047
45745W        W64492  20.734  32.782  17.203  0.1273 -0.0613 -0.1496
45746W        W64493  20.508   9.596  25.643 -0.2734  0.2192 -0.1975
45747W        W64494  35.044  14.082  20.654 -0.1244  0.2364 -0.1974
45748W        W64495  19.429  33.896  22.013  0.3096  0.0106  0.1832
45749W        W64496  22.349  10.415  25.774 -0.2414 -0.2151  0.3869
45750W        W64497  31.701  30.576   6.044  0.1118 -0.1481 -0.1275
45751W        W64498  16.629   3.541   2.332  0.3851 -0.0450 -0.0866
45752W        W64499  15.174   7.606   7.095  0.1883  0.1614  0.1533
45753W        W64500   2.464  10.669  14.851 -0.0156 -0.3206  0.0136
45754W        W64501   1.299  17.094  22.737 -0.0270  0.1056 -0.1495
45755W        W64502   8.500   5.285  24.589 -0.0473  0.2027 -0.1154
45756W        W64503  22.010  28.254   5.444  0.0128  0.3385  0.2773
45757W        W64504  31.836  18.531  19.285 -0.0924 -0.1405 -0.1217
45758W        W64505  14.232  31.558   8.163 -0.2641  0.0535  0.1521
45759W        W64506   6.515  21.765  22.242 -0.1817  0.1948 -0.1045
45760W        W64507  15.905  34.986   5.052  0.0556 -0.0061 -0.0283
45761W        W64508   0.918  22.731  11.716 -0.0353  0.0141  0.0391
45762W        W64509  10.129   3.074  25.320  0.0656 -0.0576 -0.0030
45763W        W64510   8.493  10.807   2.760 -0.0848  0.0898  0.1261
45764W        W64511  17.228   3.439   9.409  0.0017  0.1330 -0.0874
45765W        W64512   0.278  23.583  21.227  0.2105 -0.0675 -0.0304
45766W        W64513  26.975   0.480  17.853 -0.1180 -0.0048  0.2145
45767W        W64514  35.060  14.216  17.718 -0.1277  0.3794 -0.4720
45768W        W64515  25.299  25.596  20.783  0.0366  0.2584 -0.2570
45769W        W64516   2.838  30.790  20.281  0.1231  0.0162  0.0851
45770W        W64517   3.682   1.674   0.855  0.0672  0.1386 -0.2082
45771W        W64518  21.381  34.919  17.970  0.0484  0.3114 -0.0120
45772W        W64519   7.302  22.549   3.224  0.0080 -0.2037 -0.1510
45773W        W64520  35.225  15.303  10.190  0.0026 -0.0998 -0.0806
45774W        W64521   9.931   0.925   7.253 -0.0417 -0.2671 -0.1249
45775W        W64522  11.576  29.018  16.867 -0.2328  0.0565  0.3218
45776W        W64523  19.734   3.227   1.659 -0.1555  0.2215  0.3083
45777W        W64524  26.599  11.082   0.264 -0.3169 -0.3191  0.2157
45778W        W64525  34.531  10.218   9.440 -0.0420 -0.4178 -0.1176
45779W        W64526   9.092   0.021  21.449  0.1855  0.1487  0.2838
45780W        W64527   8.802  20.974  14.860 -0.0764 -0.3305  0.1429
45781W        W64528   4.381   2.351   8.247 -0.1535 -0.2832 -0.0394
45782W        W64529  14.013  14.479  24.775  0.0370 -0.0706  0.1147
45783W        W64530  16.206   0.819  21.008  0.0454  0.3031  0.2239
45784W        W64531  23.691   9.118  25.612 -0.0597  0.2441  0.2288
45785W        W64532   8.552  28.860  21.799 -0.0881  0.0724  0.2628
45786W        W64533   6.601   6.273  21.656 -0.0480 -0.0422 -0.1267
45787W        W64534   7.931  27.840  23.553  0.0917  0.0510  0.1617
45788W        W64535  25.854  27.942  22.174 -0.0720  0.1322  0.1748
45789W        W64536  26.127  15.393  12.467  0.4254  0.0678  0.0004
45790W        W64537  32.414  28.288  16.719 -0.4036 -0.1894  0.3070
45791W        W64538  16.505   5.256  17.320  0.1005  0.0024  0.0827
45792W        W64539  14.472  15.071   7.674  0.1723  0.1699  0.1318
45793W        W64540  23.333  19.753  22.446  0.2783  0.0736 -0.1942
45794W        W64541   3.895   2.532  23.711 -0.1569  0.0781  0.2599
45795W        W64542   1.277   7.414   4.178 -0.0689  0.2156 -0.4074
45796W        W64543  14.594  11.424  21.738 -0.2701 -0.0644  0.0223
45797W        W64544  22.907  24.059  25.703 -0.1911  0.1533  0.0513
45798W        W64545  21.953   1.352  22.944  0.1936 -0.1651 -0.0660
45799W        W64546  30.607   7.163  21.144 -0.1009  0.1101  0.0666
45800W        W64547   4.239  34.687  25.751 -0.1254 -0.1123 -0.0899
45801W        W64548  17.007  19.821  11.196  0.1359 -0.2036  0.0674
45802W        W64549  34.052   7.181  16.192 -0.0937  0.1691  0.0437
45803W        W64550  28.689  31.631  21.977  0.0861  0.1120 -0.0995
45804W        W64551  23.270   4.100  14.679 -0.2624  0.0794  0.2671
45805W        W64552  16.746   8.595  18.812  0.0358  0.0496  0.2335
45806W        W64553  27.542  22.238  22.845 -0.0920 -0.1416 -0.2004
45807W        W64554  27.918  26.590  23.895 -0.1228  0.2494 -0.1302
45808W        W64555  26.855  28.496  15.403 -0.1944  0.1270  0.0530
45809W        W64556  26.907  27.962  19.104  0.1091  0.2123 -0.0019
45810W        W64557  26.466  20.221   6.228 -0.0201  0.2144  0.4144
45811W        W64558  29.016  20.843  11.255  0.0277  0.2803  0.1125
45812W        W64559  28.574   2.894  20.815 -0.4080  0.3304 -0.0109
45813W        W64560  22.663  18.838  25.344 -0.0843  0.3714  0.0012
45814W        W64561   2.124  24.229  24.333  0.0562  0.2908 -0.0318
45815W        W64562  32.719  13.844   9.541  0.0661 -0.0310  0.3204
45816W        W64563  27.420  34.399  23.260  0.2780  0.0874  0.1535
45817W        W64564   1.552   8.329  24.010 -0.3150  0.1341 -0.0470
45818W        W64565  27.073  16.798  23.223 -0.0309  0.4276 -0.0008
45819W        W64566  19.422  14.654  16.667  0.0783  0.2477 -0.4893
45820W        W64567  12.773   7.534  24.645  0.5412 -0.2573  0.1691
45821W        W64568  34.482  32.785   6.452  0.0170 -0.0100  0.1262
45822W        W64569  20.192  33.371   0.743  0.0241 -0.1532  0.0373
45823W        W64570   4.182  10.208  21.811 -0.0410  0.2000  0.0335
45824W        W64571   6.074  32.143  24.829 -0.0118 -0.2129 -0.2049
45825W        W64572  21.698  30.790  19.521 -0.3231  0.3716 -0.0255
45826W        W64573   2.541  22.110  19.076 -0.1032  0.0817  0.1433
45827W        W64574  25.059  22.977  21.552  0.1042 -0.1780  0.1373
45828W        W64575  14.254  12.660  22.884 -0.0306 -0.0470  0.0995
45829W        W64576   4.399   7.720  17.827 -0.2306 -0.0257  0.3085
45830W        W64577  14.299  22.278   2.157  0.1092  0.0805 -0.2632
45831W        W64578  21.338   6.716  16.911 -0.1961  0.0731  0.0201
45832W        W64579  32.482   7.016  14.453  0.1464  0.2282  0.1770
45833W        W64580  24.051   1.015  12.902  0.3294 -0.2262 -0.1319
45834W        W64581  26.626  19.197   6.621  0.0533  0.0045  0.1866
45835W        W64582  19.634  19.311   0.168 -0.2153  0.2094 -0.0601
45836W        W64583  33.114  24.878  24.368 -0.1824 -0.0992  0.2959
45837W        W64584  25.737   6.524   3.324 -0.1217  0.0338  0.1927
45838W        W64585  22.342  27.942  21.026 -0.2943  0.0808 -0.0848
45839W        W64586  26.687  34.256  26.102  0.2338  0.0227 -0.0855
45840W        W64587   4.882   9.954   6.511 -0.1977 -0.0533  0.0285
45841W        W64588  15.518  11.294  22.562 -0.4619 -0.3649  0.0963
45842W        W64589  19.545  34.802  19.849  0.2131 -0.1125  0.0919
45843W        W64590  30.496  26.695  12.575  0.0341  0.0738  0.2258
45844W        W64591  12.379  33.655   0.655  0.0743  0.0358  0.0329
45845W        W64592  16.967  30.594   4.202  0.2106 -0.0475 -0.0457
45846W        W64593  23.061  32.700  23.685  0.1941  0.1496 -0.0609
45847W        W64594  11.847  28.622  15.272 -0.0343  0.0577  0.3590
45848W        W64595  28.504   7.722  23.339  0.2870 -0.0891  0.0564
45849W        W64596  33.122   4.787   2.867  0.1674  0.0099  0.2065
45850W        W64597   3.932  14.824  21.269  0.1284  0.0358  0.2354
45851W        W64598  28.890  27.093   9.890  0.3596  0.3160 -0.1722
45852W        W64599  27.558   6.852  16.870  0.2654 -0.0945  0.5205
45853W        W64600  18.220  12.002  22.339  0.2000  0.0713  0.1961
45854W        W64601  17.342  21.293  25.666 -0.1513 -0.0696 -0.0775
45855W        W64602   3.465  20.947   3.563  0.0328 -0.0793  0.0529
45856W        W64603  18.498  17.229   6.693  0.2482  0.0900  0.1465
45857W        W64604  25.772   2.648  24.389 -0.0990 -0.0280  0.1373
45858W        W64605  27.007  30.327  18.208  0.0221  0.2422 -0.0753
45859W        W64606   6.121   3.873  25.760 -0.0430  0.0344 -0.3073
45860W        W64607  27.736  16.183  23.152  0.3088  0.1754 -0.0189
45861W        W64608   2.971  31.717   8.238 -0.1828 -0.1055  0.1285
45862W        W64609  31.973  16.543  14.760 -0.2040 -0.0269  0.1517
45863W        W64610  23.552  24.867  24.524  0.2362 -0.0082 -0.4255
45864W        W64611  22.582   3.734   6.875 -0.0893 -0.0435 -0.5511
45865W        W64612  31.452   5.729  23.581 -0.2491 -0.2125 -0.1329
45866W        W64613  32.523  16.673   6.645  0.0986 -0.2157 -0.2307
45867W        W64614  31.850  33.419  15.400  0.0096 -0.2957  0.0781
45868W        W64615  27.625  33.694   4.121  0.1143 -0.1594 -0.1412
45869W        W64616  19.689  12.372   9.497 -0.1986  0.1038 -0.1368
45870W        W64617  31.071  15.848  12.645  0.2378 -0.1812  0.0876
45871W        W64618  16.526  33.740   6.082 -0.0466 -0.4431  0.0153
45872W        W64619   0.751  23.818  16.042  0.2184  0.0651  0.1478
45873W        W64620  12.466  24.053  15.532  0.2700 -0.0085  0.2232
45874W        W64621  15.382  19.346  12.482  0.1317 -0.1944 -0.3122
45875W        W64622  21.564  21.249  21.639 -0.1488  0.0956 -0.0196
45876W        W64623   7.410  28.597  12.041 -0.0209 -0.1731  0.1714
45877W        W64624  34.164  19.572  19.740  0.0324  0.0190 -0.1067
45878W        W64625   4.707  32.960   4.900 -0.2006  0.4039 -0.1076
45879W        W64626   6.334   7.412   6.206 -0.3344  0.0290  0.2322
45880W        W64627  34.521  11.469  22.300  0.2564  0.0683 -0.1550
45881W        W64628  20.581   7.651   5.468  0.2934 -0.3421  0.0237
45882W        W64629  28.937   1.281  11.815  0.0439  0.2520 -0.2069
45883W        W64630  20.338   3.109   3.546 -0.2093  0.0444 -0.1562
45884W        W64631  26.439  26.612  19.751  0.3190 -0.0309 -0.1190
45885W        W64632  24.331  21.882   1.734  0.1559  0.1759  0.0698
45886W        W64633  32.132   8.590  21.301 -0.1572  0.2782  0.0998
45887W        W64634   0.532  35.076  15.908  0.2054  0.1046  0.1722
45888W        W64635  13.706  33.871   1.648  0.2826  0.0492  0.0487
45889W        W64636  17.693  33.348   0.396 -0.1307 -0.1765 -0.0086
45890W        W64637  23.531  17.119  12.501  0.1589 -0.0949  0.2659
45891W        W64638  23.071  27.020   1.812  0.0129 -0.3066  0.0690
45892W        W64639  35.317   2.567   3.854 -0.2194 -0.2739 -0.0046
45893W        W64640  18.264   6.957   7.145 -0.3104  0.4937  0.1531
45894W        W64641  28.738  10.634  15.386  0.0720  0.2894  0.0606
45895W        W64642  20.151   2.218   4.163 -0.0450 -0.0242 -0.0456
45896W        W64643  13.342  25.807   9.348  0.1319  0.3484  0.2167
45897W        W64644   6.616  13.594   7.989  0.1501  0.0096 -0.0121
45898W        W64645  15.217  25.984  12.622  0.0946  0.1571  0.0378
45899W        W64646  12.798  23.174  16.050  0.1638 -0.1769 -0.2456
45900W        W64647  31.383  22.920  24.137  0.1271 -0.1508  0.0855
45901W        W64648  11.028  29.732  15.654  0.0886 -0.1829 -0.0251
45902W        W64649  12.513  20.004  14.965 -0.0406  0.2729 -0.3645
45903W        W64650  28.229  31.461   2.039 -0.1017 -0.0693  0.0778
45904W        W64651  10.159  15.858   6.127  0.0464  0.2007  0.0113
45905W        W64652   0.629  18.749   0.732 -0.0470  0.0896 -0.0795
45906W        W64653  27.213   7.282  17.730 -0.0241  0.0696 -0.3532
45907W        W64654  31.115  26.585  18.808  0.0843  0.1658 -0.0832
45908W        W64655  15.291  31.864   2.253  0.1103  0.0634  0.0376
45909W        W64656  24.241  20.566  23.198 -0.2662 -0.0548 -0.0025
45910W        W64657   9.073  29.197   1.715  0.0225 -0.0175  0.0972
45911W        W64658  33.737  26.797  17.855 -0.1074  0.0358  0.3803
45912W        W64659  14.720  23.353  24.961 -0.1850  0.2066  0.3101
45913W        W64660  22.163  13.837  16.181  0.0326 -0.0768 -0.0421
45914W        W64661  26.048  15.876  24.708  0.1343  0.0410  0.0230
45915W        W64662  27.292  35.193  15.394 -0.0150  0.2623 -0.1169
45916W        W64663  20.256  21.482  21.823  0.1853 -0.0507  0.2337
45917W        W64664   9.414  30.901   6.705  0.1470  0.0255  0.1069
45918W        W64665  34.683  34.969  14.224 -0.1184  0.1250 -0.0793
45919W        W64666   4.981  23.321   5.095 -0.1116  0.1569  0.0929
45920W        W64667  25.019  23.772  18.503  0.1463  0.4265  0.1315
45921W        W64668  22.186  24.645  19.394  0.1154 -0.0154  0.1439
45922W        W64669  16.681  29.624   3.958  0.1875 -0.1447  0.0720
45923W        W64670   3.933  29.436  10.413  0.0118 -0.2859 -0.0497
45924W        W64671  14.618  12.877   6.864 -0.2668 -0.2716 -0.0851
45925W        W64672  27.465  25.335   1.525  0.0390  0.3960 -0.3007
45926W        W64673  20.517   7.576  20.292 -0.3391 -0.1179 -0.1959
45927W        W64674  33.843  33.770   0.290  0.0674 -0.0917  0.0706
45928W        W64675  14.259  11.709   4.145 -0.0073  0.0342 -0.5060
45929W        W64676   4.087  24.794  25.699  0.0698  0.5304  0.1591
45930W        W64677  26.892  24.974  10.896  0.4658  0.1321 -0.2493
45931W        W64678  11.610  32.058   8.217  0.2847  0.0745 -0.0057
45932W        W64679  13.910  20.790  26.204 -0.2585  0.0608  0.2265
45933W        W64680  29.190  11.241  22.648  0.1119 -0.0925  0.0160
45934W        W64681  12.022  21.943   0.581 -0.1377 -0.1156 -0.1025
45935W        W64682   3.942  20.512  22.676 -0.0186 -0.0950 -0.1344
45936W        W64683   6.385   8.019   0.797  0.2689  0.0239  0.3887
45937W        W64684  19.719  23.463   2.615  0.0728  0.2822 -0.0581
45938W        W64685  28.071   7.695   0.532  0.3428  0.3994  0.1011
45939W        W64686   9.976   7.815  11.392 -0.0246 -0.0415  0.0596
45940W        W64687   9.967   7.974  25.531 -0.1330  0.0924  0.1671
45941W        W64688  27.497  21.131  12.545 -0.0941 -0.0473  0.2017
45942W        W64689   5.834   7.846   5.751 -0.3088  0.0287 -0.2053
45943W        W64690  34.335  23.599  23.601 -0.1783 -0.1004 -0.1958
45944W        W64691  35.194  32.035   6.351 -0.0069  0.3256 -0.1559
45945W        W64692   4.618  26.356  12.521  0.0169  0.0091  0.0722
45946W        W64693   7.683  27.950  11.579 -0.0083 -0.2073  0.2873
45947W        W64694  19.338   6.381   3.177  0.0700 -0.0847 -0.1253
45948W        W64695  30.284  14.639  21.897  0.3557  0.1505 -0.3465
45949W        W64696  23.861   0.554  21.279  0.2375 -0.0505 -0.1041
45950W        W64697  11.701  24.066   5.083  0.2336  0.3635  0.1459
45951W        W64698  33.225   3.734  21.195  0.2889  0.1574 -0.0682
45952W        W64699  28.906  16.082  22.087  0.0351  0.1732 -0.0881
45953W        W64700   4.850  17.868  18.238  0.0137 -0.0523  0.1100
45954W        W64701   0.359  12.798  12.516 -0.1116 -0.1743 -0.0269
45955W        W64702   2.292  22.838   3.998  0.2641 -0.0855 -0.1757
45956W        W64703  23.573  33.660  15.412 -0.3635  0.0224 -0.0521
45957W        W64704  21.162  32.971  19.380  0.0319  0.1251  0.1402
45958W        W64705  18.355  26.204   3.327 -0.1201  0.1714 -0.0440
45959W        W64706  28.041  20.690  11.997 -0.0230  0.2010  0.2562
45960W        W64707  10.887  23.572   6.690 -0.0304 -0.0234  0.2151
45961W        W64708   5.709  11.915   0.429  0.3031 -0.1413  0.3381
45962W        W64709   1.238  31.876  24.889  0.3890  0.0993 -0.2372
45963W        W64710  30.995   4.948  25.711 -0.0897 -0.0335 -0.1290
45964W        W64711  32.995   6.916   4.287  0.0443 -0.1539  0.0953
45965W        W64712  33.639  11.421  12.289  0.0818  0.0450 -0.0932
45966W        W64713   3.246  18.292  14.350 -0.1674 -0.2620 -0.1307
45967W        W64714   4.813  34.237  11.749  0.0949  0.1394 -0.0652
45968W        W64715  21.189  34.802   5.109  0.0598 -0.0587  0.1995
45969W        W64716  33.787  17.616  13.092  0.1832  0.0954 -0.0628
45970W        W64717   2.761  27.733  10.116 -0.0859  0.0463  0.0901
45971W        W64718   1.450  12.052  23.236  0.0324 -0.0259 -0.0920
45972W        W64719  31.859   6.138  17.706  0.0357 -0.0031 -0.0264
45973W        W64720  18.327  25.425  24.013 -0.1000 -0.2059  0.1816
45974W        W64721  13.670  34.817   2.810  0.0319 -0.0105  0.2286
45975W        W64722   6.730   2.653  19.102  0.1566  0.0788  0.1419
45976W        W64723  33.097  11.309  19.558 -0.1472 -0.1375 -0.1400
45977W        W64724  31.661   6.756  16.373 -0.0960  0.2447  0.1507
45978W        W64725  18.416  21.623   5.888 -0.1567  0.0193 -0.2373
45979W        W64726  12.737  33.814   1.829 -0.3519  0.0505  0.0362
45980W        W64727  26.251  28.410  21.404  0.0846 -0.0481 -0.1123
45981W        W64728  10.265   6.613  12.408 -0.1631  0.3056 -0.2877
45982W        W64729   3.649  19.524  23.849  0.1293  0.2181 -0.0183
45983W        W64730  18.297  33.243  23.022 -0.2766  0.0607 -0.2491
45984W        W64731  28.178  33.641  22.685 -0.0313  0.1236 -0.0863
45985W        W64732  10.583   9.098   9.109 -0.0198  0.1192  0.1641
45986W        W64733  25.990   7.274  10.484 -0.1306  0.0589  0.1376
45987W        W64734  10.251  14.281  21.445 -0.1052  0.0314  0.1351
45988W        W64735  22.005  33.263  25.625 -0.1075 -0.1449  0.0566
45989W        W64736  32.465   3.666   5.655  0.0107  0.0995  0.1136
45990W        W64737   3.585  13.473  15.072  0.3403 -0.1099  0.2439
45991W        W64738  34.260  25.853   1.328  0.1278  0.1498  0.0219
45992W        W64739  28.042   2.861  25.943  0.0990 -0.1768 -0.1656
45993W        W64740   8.001   7.481   5.765  0.1928  0.0853  0.1061
45994W        W64741  28.612  28.338  19.575 -0.0184  0.0813 -0.0102
45995W        W64742   6.582  22.770   6.859  0.1873 -0.4001  0.3821
45996W        W64743  10.766  21.927  17.377  0.1582  0.1202  0.2627
45997W        W64744  31.003  33.255  15.817 -0.2147 -0.0675 -0.0093
45998W        W64745  28.602   8.202  22.568  0.0916 -0.0991 -0.4546
45999W        W64746  21.508   2.852  18.853 -0.3044 -0.0403  0.3248
46000W        W64747  29.943  11.888  10.458  0.2735  0.0822 -0.3726
46001W        W64748  20.895  12.489   7.176  0.0629 -0.1421 -0.0289
46002W        W64749  13.170  32.805  13.794 -0.0302  0.0389  0.3386
46003W        W64750  15.423  29.025  11.944 -0.1046  0.0434 -0.1775
46004W        W64751  19.746  34.287  24.868 -0.2656 -0.0548  0.1163
46005W        W64752   5.228   9.650   3.978 -0.1140  0.1210  0.0936
46006W        W64753  26.489  15.792   9.477  0.2662  0.1723  0.2343
46007W        W64754  31.973   1.164   1.917 -0.4099  0.1672 -0.0268
46008W        W64755   9.531  15.080  26.152 -0.3926  0.1446  0.0469
46009W        W64756  28.655  26.340  21.639  0.0001 -0.1423  0.1168
46010W        W64757  13.944  21.162   9.245  0.1590  0.1696  0.4159
46011W        W64758  21.934  34.161   5.569 -0.2270 -0.1054 -0.3371
46012W        W64759  23.701   2.319  12.098  0.2969 -0.1869  0.0435
46013W        W64760  11.331  18.953  22.918 -0.2341 -0.0757  0.0922
46014W        W64761  27.284   4.093  23.069 -0.2415  0.1870 -0.2179
46015W        W64762  31.242  12.222  14.391  0.0264 -0.1398 -0.0788
46016W        W64763  13.190  30.540   4.860  0.0951 -0.0100  0.1965
46017W        W64764  11.558   7.399  18.575 -0.1326 -0.0660 -0.3485
46018W        W64765  14.751  25.752  10.160 -0.1653 -0.3011  0.3584
46019W        W64766  23.275  16.939  18.678  0.1373 -0.0151  0.1379
46020W        W64767  10.152  33.191   5.956 -0.0427  0.1101  0.0734
46021W        W64768   3.357  32.779  26.065 -0.0578 -0.1258 -0.1619
46022W        W64769  15.865  26.193   9.226 -0.0096 -0.0591 -0.2726
46023W        W64770  29.555  15.244  23.237  0.3367  0.0155  0.0448
46024W        W64771  16.548  30.888  23.734 -0.2627 -0.3738  0.0509
46025W        W64772  26.727   6.299  18.792 -0.1770  0.1235 -0.0903
46026W        W64773  20.083  34.394  22.819  0.1574  0.3657  0.4769
46027W        W64774   7.616  10.986  21.962 -0.1526 -0.0249 -0.0717
46028W        W64775   6.347  33.720   5.507 -0.0441  0.2285 -0.2445
46029W        W64776  13.474   2.999  11.156  0.2133  0.4183 -0.1081
46030W        W64777  25.030  30.848  19.357 -0.0082  0.0949  0.0895
46031W        W64778  27.140  20.701   8.032 -0.3188 -0.0023  0.3462
46032W        W64779   8.996   8.635  22.139  0.3069  0.0042  0.2819
46033W        W64780   6.276  31.118   2.212  0.0638  0.0358  0.2142
46034W        W64781  24.302  18.619  15.718 -0.0442  0.2038  0.0653
46035W        W64782   9.122  10.485   7.741  0.3754  0.2100  0.2290
46036W        W64783  34.701   1.946   0.632  0.1864 -0.0188 -0.1686
46037W        W64784  11.187  22.306  15.630  0.0919  0.3843 -0.0321
46038W        W64785  28.538  30.408  13.819  0.0936  0.3265  0.2029
46039W        W64786  26.358  22.468   9.187  0.0633 -0.4006 -0.1116
46040W        W64787  24.391  32.722   1.121  0.1445  0.3941 -0.1754
46041W        W64788   6.863  15.395  22.418 -0.3699 -0.4023  0.1912
46042W        W64789   5.052  32.071  22.859 -0.2574 -0.1031 -0.0406
46043W        W64790  25.709  34.466  17.043  0.6012 -0.3014 -0.1133
46044W        W64791  31.478  10.413  21.572  0.3997 -0.0196  0.0013
46045W        W64792   7.977  16.466  20.557  0.0505 -0.0645 -0.1143
46046W        W64793  25.791  16.788  16.096 -0.0951 -0.0123  0.1093
46047W        W64794   7.225  15.820   6.247 -0.3786  0.0325 -0.3796
46048W        W64795   6.724  15.912   3.728  0.1680  0.2949  0.2220
46049W        W64796   1.019  17.302  21.397  0.2571  0.1717  0.2242
46050W        W64797  17.955  18.338  21.112  0.0424  0.0445 -0.0287
46051W        W64798  31.455  25.603  18.018  0.1335  0.3333 -0.1892
46052W        W64799  21.582  27.105   5.883 -0.2276  0.0617 -0.1530
46053W        W64800   2.607   9.019  21.536 -0.2743  0.1967  0.2299
46054W        W64801  31.347  18.372  14.262 -0.1302 -0.2226  0.3681
46055W        W64802   9.890  19.183  11.330  0.1265  0.3068 -0.0802
46056W        W64803  33.517  10.573  13.099  0.1192 -0.4309  0.0706
46057W        W64804   8.021   6.885  23.827  0.3585  0.1828 -0.1640
46058W        W64805  12.044  25.497   1.018 -0.0497  0.1781 -0.0304
46059W        W64806  12.974  12.088  25.187  0.1126 -0.0499 -0.0255
46060W        W64807  33.704   1.720  18.186  0.0172 -0.0703 -0.1076
46061W        W64808   4.293  30.176   4.989 -0.2502  0.2385 -0.0446
46062W        W64809  25.699   7.569  12.518 -0.4761  0.2294  0.1210
46063W        W64810  22.134   0.828   0.663 -0.0172 -0.1840 -0.1431
46064W        W64811  24.401  12.716   0.316  0.1880 -0.2741  0.1724
46065W        W64812  31.450  11.243  11.131  0.1005 -0.0928  0.1149
46066W        W64813  13.912   5.051  21.014 -0.1923 -0.0279  0.0198
46067W        W64814  10.538   8.246  24.458 -0.1749  0.3031  0.0400
46068W        W64815   8.198  26.379   9.601 -0.1638 -0.2421  0.0157
46069W        W64816   1.572   8.110   7.010 -0.0934 -0.0549  0.0756
46070W        W64817   6.984   1.753  25.449 -0.0816  0.0308  0.4185
46071W        W64818  10.387  29.600  15.124  0.3241 -0.0755 -0.1419
46072W        W64819  33.166   1.082  22.233 -0.1482 -0.0684  0.0432
46073W        W64820  24.038   3.225  19.277 -0.2541 -0.0483  0.1583
46074W        W64821  13.755  11.464  19.381  0.4413 -0.1698  0.0567
46075W        W64822  22.642  21.972  21.847 -0.0207 -0.0946 -0.3647
46076W        W64823  32.066  22.505  17.667  0.1823 -0.0307  0.2979
46077W        W64824  19.387  19.139  10.703 -0.4125  0.0984 -0.4270
46078W        W64825  24.670  20.843  12.201  0.3114  0.0101  0.2379
46079W        W64826  27.851  34.156  21.969 -0.0487  0.2551 -0.0183
46080W        W64827   6.408   6.526  25.207 -0.2095  0.1623 -0.0374
46081W        W64828  16.540  19.631   6.311 -0.0756  0.2003  0.0289
46082W        W64829  32.976   7.138   0.571 -0.3842 -0.1563 -0.0191
46083W        W64830  13.352   0.098  11.949 -0.1424  0.0274 -0.0929
46084W        W64831  11.873  17.462   4.490 -0.4226  0.0120  0.0987
46085W        W64832  19.876  12.681  18.035  0.0548  0.0175  0.0511
46086W        W64833  32.151  29.436  20.805 -0.1073  0.1186 -0.0896
46087W        W64834  13.384  26.108  15.636  0.2254 -0.0139 -0.0135
46088W        W64835  26.953  26.946  13.257 -0.0589  0.1277  0.1382
46089W        W64836  22.985  17.277  18.268  0.0137 -0.2538  0.1066
46090W        W64837  26.863  32.975  15.853  0.4639 -0.2697  0.3509
46091W        W64838   8.744   0.566  20.876  0.1926 -0.0105  0.0345
46092W        W64839  27.277  14.317   6.708  0.1690 -0.0905  0.1113
46093W        W64840  14.263   2.284   2.782 -0.5483 -0.0520  0.0389
46094W        W64841   9.455   9.680  25.086  0.1857  0.1938 -0.2402
46095W        W64842  21.820  19.140  22.223  0.0000 -0.0066 -0.0905
46096W        W64843   6.566   7.002   8.352 -0.1034 -0.1632  0.0542
46097W        W64844  31.135  34.415  17.810 -0.0541  0.1220  0.1124
46098W        W64845   4.252   9.716   6.784  0.1863  0.0121 -0.0967
46099W        W64846  28.665  29.905  18.866 -0.4765 -0.0182  0.1784
46100W        W64847   9.667   6.729  13.039  0.0705  0.0365  0.4418
46101W        W64848  10.014  10.118   0.683 -0.0300  0.0573 -0.2150
46102W        W64849  22.742  25.883  18.934  0.0489 -0.0571 -0.1453
46103W        W64850  32.585  18.172  17.621 -0.0417 -0.0557 -0.1859
46104W        W64851  21.926   5.850   1.898  0.4756 -0.3191  0.1117
46105W        W64852  32.656   0.996  16.854 -0.1991 -0.2722 -0.2738
46106W        W64853  35.366  12.526  17.687  0.1564  0.0211 -0.2168
46107W        W64854  19.467  26.081   9.204  0.2278 -0.0363 -0.2102
46108W        W64855  15.347  13.099   3.767  0.0821 -0.0927  0.0981
46109W        W64856  29.458  28.716   1.977  0.2592  0.0459 -0.2353
46110W        W64857  24.428   3.158  24.495 -0.2012 -0.1579  0.0087
46111W        W64858  34.226  24.267  18.386 -0.1112 -0.1505 -0.1892
46112W        W64859  28.656  14.748   7.769  0.0450 -0.1928  0.2945
46113W        W64860  10.183   0.731   3.934  0.0551 -0.1649 -0.3215
46114W        W64861   2.933   9.785   3.122  0.1049  0.0191  0.0115
46115W        W64862  24.107   6.290   3.054  0.1597 -0.2265 -0.1322
46116W        W64863  30.589   0.616  21.097 -0.0665 -0.2022 -0.0619
46117W        W64864  27.530  11.717  12.630  0.0923 -0.2784 -0.2087
46118W        W64865  27.470  10.896   6.932  0.1624 -0.6017 -0.0684
46119W        W64866  26.503   0.593  14.094 -0.1572 -0.1157 -0.0149
46120W        W64867  18.505  18.616   1.743 -0.0215  0.4020 -0.2173
46121W        W64868   2.439  19.388  22.837 -0.0982 -0.0619  0.2563
46122W        W64869  22.189  28.826  17.663  0.1119  0.1939  0.0299
46123W        W64870  24.678  11.946  25.174 -0.1257  0.2670 -0.3812
46124W        W64871   6.671   2.080   4.953 -0.1495  0.0171 -0.3199
46125W        W64872  25.573  33.819  16.105 -0.1766  0.3127 -0.1097
46126W        W64873  18.888  14.406  25.817 -0.0965  0.3347 -0.0474
46127W        W64874   2.576  15.706   0.051 -0.1178 -0.3140 -0.2041
46128W        W64875  13.756   7.621  19.598 -0.2047 -0.2006  0.0293
46129W        W64876   3.997   4.847  22.965  0.1931  0.2099 -0.2728
46130W        W64877  25.858  12.360  23.858  0.1902  0.2497  0.2642
46131W        W64878  30.264  32.709  15.536 -0.0998 -0.0776 -0.1274
46132W        W64879  32.834   7.357  18.874 -0.0168 -0.1043 -0.2216
46133W        W64880  29.848  21.415  23.287  0.0128 -0.3637  0.0196
46134W        W64881  10.749  31.064   9.776  0.2122  0.1390  0.1517
46135W        W64882  12.498  12.375   2.451  0.1300  0.1011 -0.0524
46136W        W64883   7.619   8.165   5.885 -0.1888 -0.0436  0.1694
46137W        W64884  33.184   0.280  17.053  0.0010  0.3869 -0.2244
46138W        W64885  24.564  32.211  11.761  0.2356  0.0742  0.0592
46139W        W64886  30.080  22.817  20.796  0.1540  0.3223 -0.0653
46140W        W64887  14.440   2.280  22.762 -0.2803  0.0491 -0.1070
46141W        W64888  11.052   2.092  20.115 -0.2957 -0.1755  0.0547
46142W        W64889  13.456  15.213  24.893  0.0701  0.0241  0.0575
46143W        W64890  11.607  20.512  10.959 -0.0227  0.0643  0.4274
46144W        W64891  28.421  20.992   8.023 -0.3780 -0.2322 -0.0091
46145W        W64892  17.853  32.279   0.064  0.0752 -0.0186 -0.2094
46146W        W64893  16.809   7.539  11.496 -0.0820  0.1150 -0.0493
46147W        W64894  12.052  29.169  17.264 -0.3217 -0.0730 -0.1476
46148W        W64895  24.474  25.152  12.411 -0.1335  0.3160  0.0590
46149W        W64896  28.709   9.362  15.195 -0.0535  0.2558  0.1448
46150W        W64897   3.832   3.469  24.743  0.0421 -0.0194 -0.1345
46151W        W64898   0.031  31.396   5.917  0.2839 -0.1942 -0.2255
46152W        W64899   0.014   5.930   1.314 -0.3362 -0.1300 -0.0635
46153W        W64900  33.797  14.108  21.027  0.2223  0.0571  0.0513
46154W        W64901  18.480  21.352  11.468 -0.0925  0.1585 -0.1193
46155W        W64902  29.546  11.658  20.077  0.0946  0.3860 -0.1188
46156W        W64903  29.845  29.606  24.495  0.2412  0.1271  0.0872
46157W        W64904  30.827  13.050   5.409 -0.2276  0.1278 -0.0348
46158W        W64905  28.862   0.668  18.265 -0.2325 -0.0277 -0.0668
46159W        W64906  13.547  12.314  22.989 -0.1087  0.1260 -0.5636
46160W        W64907  15.152  32.143   7.180 -0.4589  0.4098 -0.2391
46161W        W64908  12.905  11.088   5.832 -0.1114 -0.1945 -0.2351
46162W        W64909  12.535  32.660   5.555  0.1344 -0.2438 -0.1310
46163W        W64910  13.164  19.785   8.260  0.2293 -0.4049  0.0260
46164W        W64911  18.429  28.311   6.269 -0.0639 -0.0450 -0.3328
46165W        W64912  30.279   0.971  18.622  0.0133  0.2764 -0.0650
46166W        W64913  28.072  34.250   0.872  0.0759 -0.0817 -0.1958
46167W        W64914  23.629   2.234   0.701 -0.1619  0.3596 -0.0062
46168W        W64915  11.056  24.471  21.861  0.1395 -0.0448  0.2069
46169W        W64916  22.890  21.861   2.234  0.0222 -0.1983  0.1830
46170W        W64917   9.024  26.639   9.853  0.1272  0.3368 -0.1053
46171W        W64918  25.774  24.805  24.863 -0.0301 -0.2480  0.1625
46172W        W64919  34.897  17.837  23.418 -0.1805  0.0068 -0.0971
46173W        W64920  29.921   0.022  16.354  0.2133  0.1382 -0.2928
46174W        W64921  26.843   0.604  16.888  0.0100 -0.0018  0.1627
46175W        W64922  25.256  17.740   9.182 -0.0706  0.1135 -0.4427
46176W        W64923   8.092  21.289  22.303  0.0488 -0.1362  0.1526
46177W        W64924  16.091  11.559  18.795 -0.0295 -0.2181  0.1965
46178W        W64925  16.517  34.867   4.942 -0.3857  0.3607  0.1926
46179W        W64926  11.927  31.792   1.090 -0.0596  0.0792  0.2171
46180W        W64927  21.393  15.055  19.246 -0.2322  0.3606  0.1468
46181W        W64928  13.208  12.684  12.049  0.0499  0.0083  0.0725
46182W        W64929  16.897  21.801   9.668  0.6164 -0.0700  0.3629
46183W        W64930  16.269   3.835   7.839  0.1852  0.2698  0.1134
46184W        W64931  31.061  10.074  13.964 -0.1510 -0.0620  0.0184
46185W        W64932  32.062   2.760  13.658 -0.1161 -0.0800  0.0696
46186W        W64933  13.701  18.537   8.769  0.0634 -0.0699 -0.0274
46187W        W64934  29.110  18.026   5.210  0.1067 -0.2157  0.0505
46188W        W64935  28.669   7.615  18.049 -0.1815 -0.0974 -0.4515
46189W        W64936  32.935  18.433   6.526  0.0565 -0.0609 -0.1966
46190W        W64937   7.020   4.246  19.925  0.3072  0.1255 -0.2171
46191W        W64938  19.199   6.767  20.201  0.1280 -0.0327  0.0873
46192W        W64939  21.674   8.331  24.065 -0.1445 -0.0434 -0.0584
46193W        W64940  25.612   1.181  25.173 -0.1541 -0.2283 -0.1465
46194W        W64941  34.907  20.780  21.275 -0.2329 -0.1561  0.2677
46195W        W64942  14.870  16.259  11.017 -0.0317 -0.0650  0.0211
46196W        W64943  33.514  17.480  19.141 -0.0599 -0.0192  0.1908
46197W        W64944  32.825  15.165   6.528 -0.0489  0.1553 -0.0087
46198W        W64945  29.606  23.373  16.787  0.1448  0.1375 -0.0119
46199W        W64946   7.557   8.215   3.855  0.0501 -0.0233 -0.1048
46200W        W64947  30.356  16.730  22.249 -0.3879  0.0437 -0.0837
46201W        W64948  26.110  19.417  23.489 -0.1285  0.2313  0.1605
46202W        W64949  12.903  22.380   0.004  0.2973 -0.2164 -0.1379
46203W        W64950  33.370  33.906  17.628 -0.2759 -0.0547  0.0956
46204W        W64951  24.895  26.855  24.297 -0.0720 -0.3142  0.0214
46205W        W64952  26.690  10.755  14.317  0.1465  0.2958  0.2734
46206W        W64953   5.350   4.570   0.728 -0.0175 -0.1899 -0.3301
46207W        W64954  18.837  17.812  11.354 -0.2210  0.0377 -0.1180
46208W        W64955  31.057   8.441  13.956  0.0269 -0.0210 -0.1576
46209W        W64956   7.106  30.277   3.928 -0.0110  0.0845 -0.2337
46210W        W64957  17.619  17.886  23.659 -0.1803 -0.3335  0.0387
46211W        W64958   8.369  18.842   5.659  0.3200 -0.0612  0.0231
46212W        W64959  15.141  34.462   0.131  0.0744 -0.0806  0.2732
46213W        W64960   7.461   2.148   5.862  0.1332  0.0714 -0.3283
46214W        W64961  12.549  29.523   1.894 -0.3635 -0.1261 -0.0354
46215W        W64962   2.881  34.631  22.609  0.0929 -0.0455 -0.0280
46216W        W64963  21.291   4.200   5.641 -0.1338 -0.1803  0.2674
46217W        W64964   5.698  29.177  11.729  0.1251  0.0521  0.3502
46218W        W64965  20.530  11.583   9.489 -0.0438 -0.4003  0.3044
46219W        W64966  26.270  24.075  17.829 -0.1490 -0.0983 -0.0368
46220W        W64967  16.069  30.658  24.178 -0.1073 -0.0128 -0.0943
46221W        W64968  34.955  31.627  26.036 -0.1457  0.1605 -0.3913
46222W        W64969   5.078  19.907   3.122  0.3456 -0.0680  0.2309
46223W        W64970  10.553  21.574  14.544  0.0563  0.3418 -0.4155
46224W        W64971  13.498   6.075   1.095  0.2196 -0.0809  0.1498
46225W        W64972   5.623  31.320  10.247  0.2377  0.0621  0.1038
46226W        W64973  31.937  20.131  23.333  0.0940  0.1387  0.0007
46227W        W64974  22.052  12.494  22.740 -0.0170 -0.0103  0.5037
46228W        W64975  10.657   7.050  25.476 -0.0087  0.0582  0.3548
46229W        W64976   0.598  35.327  23.680 -0.2077 -0.0893  0.0267
46230W        W64977  33.844  31.530   7.475 -0.1216  0.0113  0.0839
46231W        W64978  29.069  15.416   7.593  0.2230  0.2280  0.1271
46232W        W64979  33.870   1.883  14.497 -0.3371 -0.1409  0.2153
46233W        W64980   0.108   6.291  18.796 -0.0890 -0.0021 -0.0442
46234W        W64981  17.838  29.821   3.168 -0.1212  0.3654  0.1413
46235W        W64982   0.492  32.175   1.399 -0.1558  0.1098  0.2686
46236W        W64983  19.014   7.987   7.249 -0.4889 -0.0540 -0.0945
46237W        W64984  32.343   5.898  22.204  0.1878  0.2230  0.1442
46238W        W64985  24.762  24.194   2.188 -0.1077 -0.0582  0.1271
46239W        W64986  18.444   7.576   1.660  0.2178 -0.0726 -0.1899
46240W        W64987   9.354  32.869   0.620 -0.1249  0.2732 -0.0614
46241W        W64988  18.700  23.555  24.801 -0.1279  0.2769  0.0615
46242W        W64989  25.164   1.687   3.989  0.2522  0.2346 -0.0855
46243W        W64990  26.503  24.200  11.341  0.0517 -0.1406 -0.1811
46244W        W64991  24.816  19.257  18.220  0.0133  0.2286 -0.4375
46245W        W64992  30.110  27.125   1.972  0.2847 -0.2573 -0.1855
46246W        W64993   5.775  31.745   4.387 -0.2250 -0.1248 -0.1027
46247W        W64994  23.877  22.400  20.774  0.2240 -0.1712 -0.0252
46248W        W64995  33.999  34.856  22.543 -0.1436  0.1663  0.1422
46249W        W64996  19.468   5.153   5.939 -0.1092 -0.1421 -0.3791
46250W        W64997  24.258  25.450  12.773 -0.1130 -0.0085  0.1245
46251W        W64998   8.146  10.793   9.224  0.1485 -0.1734  0.1658
46252W        W64999  32.325   5.567  21.789  0.2611 -0.1420 -0.0423
46253W        W65000  25.104   3.978  20.435  0.4957  0.0988  0.2639
46254W        W65001  21.667  12.634  20.109 -0.4577 -0.0262  0.1353
46255W        W65002   0.415  17.322  10.879 -0.3487 -0.3239  0.2104
46256W        W65003   4.836  30.184  11.218  0.1049  0.2646  0.1002
46257W        W65004  34.755   0.408  26.019  0.1417 -0.0242 -0.1250
46258W        W65005  19.655  16.772  18.040 -0.3225 -0.0483 -0.2134
46259W        W65006   0.017  35.137  15.721  0.0638  0.1095  0.1434
46260W        W65007  25.385  14.618  18.095 -0.0628  0.1693 -0.1098
46261W        W65008  18.615  28.810   7.598  0.2147  0.1781 -0.4056
46262W        W65009  27.996  10.156  14.417 -0.0407  0.1296  0.0294
46263W        W65010   2.534  24.905   2.465 -0.0709 -0.3876 -0.1290
46264W        W65011   4.805   8.194  19.852  0.3779 -0.1710 -0.1417
46265W        W65012   7.324  16.080  23.807 -0.0861 -0.0927 -0.1239
46266W        W65013  29.043  31.498  25.787  0.1323 -0.0387  0.0596
46267W        W65014  22.873  12.318  24.994 -0.0108 -0.1559 -0.1043
46268W        W65015  11.022  21.527  10.539 -0.1638 -0.0897  0.0346
46269W        W65016   9.686   5.199   5.300  0.1172 -0.0442  0.0905
46270W        W65017   6.428   4.389   2.503 -0.0922 -0.1356 -0.1985
46271W        W65018  24.114   9.611   3.811  0.0769  0.0972 -0.0464
46272W        W65019  13.305   0.920  21.708  0.0274 -0.2864  0.0386
46273W        W65020  27.132  32.850  10.278 -0.0423 -0.2266 -0.2610
46274W        W65021  17.063  11.111   6.314  0.0376  0.0427 -0.1916
46275W        W65022   9.970  27.310  23.263  0.1090 -0.0116 -0.0833
46276W        W65023  15.734  28.397  23.660 -0.2503  0.1795  0.0460
46277W        W65024  31.569  27.307  20.842 -0.1959  0.0078 -0.0452
46278W        W65025  21.794   3.255  24.840 -0.0009 -0.0505  0.0982
46279W        W65026  27.346   2.541  20.599  0.1569 -0.0461 -0.1793
46280W        W65027   1.761  18.377   0.347 -0.0424  0.1069  0.2647
46281W        W65028  13.121   2.875   9.757  0.0562  0.0792 -0.1277
46282W        W65029  35.121  35.062   7.824 -0.0586 -0.3453  0.0646
46283W        W65030   9.957   2.172  23.247  0.1908  0.5103  0.1594
46284W        W65031  13.351  15.927  10.939 -0.0028 -0.4192 -0.0609
46285W        W65032  27.804  20.408  25.173  0.0661  0.3056 -0.1992
46286W        W65033  33.134   7.438   2.957  0.1194  0.2905  0.0045
46287W        W65034  10.577   9.442  24.086  0.3120  0.1627  0.0707
46288W        W65035  17.188  18.290   4.503  0.1098 -0.0445  0.2514
46289W        W65036   9.334  20.158   1.884 -0.0486  0.0562 -0.0923
46290W        W65037  16.636  32.222   7.065 -0.1389  0.1802 -0.0460
46291W        W65038  21.483  25.195   3.862 -0.2959 -0.1585  0.0715
46292W        W65039  23.052   5.722   4.904 -0.2163 -0.1542 -0.2163
46293W        W65040  18.397   0.683  24.745 -0.1737 -0.1880  0.1980
46294W        W65041   7.298  24.860  10.171 -0.2045 -0.0966 -0.2382
46295W        W65042   4.073  20.552   1.994 -0.0612  0.1339 -0.3318
46296W        W65043   2.455   7.177   7.110  0.0747 -0.0323  0.1262
46297W        W65044  27.714   2.801  17.690 -0.0250  0.0096  0.0115
46298W        W65045  21.553  16.603   0.280  0.2085 -0.2293  0.1155
46299W        W65046  20.619   8.827  16.797 -0.0440  0.0601  0.0773
46300W        W65047  17.890  27.120  21.640 -0.1003  0.2418  0.1528
46301W        W65048   5.059  24.548   7.335  0.0237 -0.2382 -0.1047
46302W        W65049   4.115  31.189   8.808 -0.2115  0.0906  0.0677
46303W        W65050   7.683  33.917  14.565 -0.1004 -0.0792  0.0019
46304W        W65051  34.101   8.290  20.099  0.0127 -0.0285 -0.0636
46305W        W65052  31.061   3.522  14.918  0.0056 -0.0655  0.0095
46306W        W65053  11.611  15.538   0.498 -0.2478 -0.0031 -0.0157
46307W        W65054   7.464  23.559  15.477 -0.2122 -0.1922 -0.2880
46308W        W65055  27.524   4.663  12.854 -0.1647 -0.4069 -0.1354
46309W        W65056  29.156  18.630   9.013 -0.0819 -0.0342 -0.3507
46310W        W65057  27.927  29.632  22.117  0.1319 -0.0097 -0.0686
46311W        W65058  29.909  16.697   4.585 -0.1185 -0.2419 -0.1388
46312W        W65059  24.756   4.940  21.870 -0.1075  0.3324  0.1409
46313W        W65060  17.249   5.483  23.078 -0.3106 -0.0401  0.1669
46314W        W65061  33.083  32.118  13.566  0.2493  0.1701  0.1710
46315W        W65062  12.763  30.132   6.739  0.2149  0.1688  0.0765
46316W        W65063   2.220   3.289  18.182 -0.1230 -0.0279 -0.2692
46317W        W65064  17.177  29.003  22.382  0.0715 -0.0563 -0.2419
46318W        W65065  32.432  24.658  19.627  0.1695 -0.1214 -0.1260
46319W        W65066  22.604  33.245  12.959 -0.0519  0.0027 -0.0377
46320W        W65067   4.250  19.425  23.770 -0.2074 -0.0220 -0.0809
46321W        W65068  31.217  21.386  19.254 -0.1146  0.3622  0.1072
46322W        W65069  16.758  30.626  25.082  0.0943 -0.0494 -0.1046
46323W        W65070   3.655  16.346   3.414 -0.1087  0.1136  0.1126
46324W        W65071  28.301  26.342  20.091  0.2814  0.0760  0.1021
46325W        W65072   8.230  27.737  10.749  0.2694 -0.1056 -0.0229
46326W        W65073  17.957  19.261   0.393 -0.4104 -0.2432  0.4963
46327W        W65074  27.420  11.186  21.643 -0.3232 -0.1125  0.2080
46328W        W65075   2.732   6.799  24.189  0.2189 -0.3205 -0.4014
46329W        W65076   2.653  35.022  10.375 -0.0913  0.2968 -0.0850
46330W        W65077  16.559   6.997  22.792  0.0004  0.0765  0.3221
46331W        W65078   9.723   7.972   0.478  0.1557  0.2031 -0.1729
46332W        W65079  21.644  15.683  20.111 -0.1062  0.1945 -0.4121
46333W        W65080   3.006   4.137  23.803  0.0630 -0.2375  0.0195
46334W        W65081  13.244   9.548  26.239  0.0568 -0.4861  0.1896
46335W        W65082   3.911  25.096   6.058 -0.2591 -0.0115  0.2158
46336W        W65083  31.997  16.053  21.187  0.1886 -0.3919 -0.1582
46337W        W65084  10.714  16.121  20.280 -0.1094  0.1817 -0.1461
46338W        W65085  24.060  33.855  19.917  0.0965  0.0007 -0.0749
46339W        W65086   0.558  28.220  18.888  0.2075  0.0467 -0.0363
46340W        W65087  13.921  21.669  13.575 -0.0314  0.1890 -0.0297
46341W        W65088  27.451  33.852  13.520 -0.0741 -0.2224  0.0609
46342W        W65089  26.020  14.310  17.637  0.1318  0.0867  0.0644
46343W        W65090  11.828  20.190   9.323 -0.1977 -0.3445 -0.0713
46344W        W65091  32.569  19.130  18.928  0.0987  0.1863  0.2540
46345W        W65092  27.898   8.371  10.636 -0.0843 -0.2221 -0.0049
46346W        W65093  13.257  33.572   1.785 -0.2418 -0.1454 -0.2221
46347W        W65094   6.588  33.069   0.663 -0.3563  0.1699  0.0665
46348W        W65095   6.783  10.869   0.024  0.2232 -0.0269 -0.1332
46349W        W65096  20.165  22.273  19.578 -0.1372 -0.1762  0.3199
46350W        W65097   4.611   4.725   7.626 -0.1274 -0.0064 -0.1121
46351W        W65098  14.950   0.556  25.440  0.3095 -0.3195  0.1993
46352W        W65099  15.403  18.901  11.674 -0.1950 -0.1498  0.3508
46353W        W65100  15.042  33.104  25.803 -0.0631  0.0335  0.1735
46354W        W65101  18.733  14.610  21.128 -0.1981 -0.3569 -0.0620
46355W        W65102  27.381   4.407  21.928  0.2175 -0.3455 -0.3116
46356W        W65103   2.590  31.073   4.256  0.0365 -0.0087  0.0096
46357W        W65104  25.391   1.054   0.892 -0.2178 -0.2098  0.1313
46358W        W65105   9.463  22.952  12.477  0.3925 -0.0246  0.0389
46359W        W65106  21.843  12.134  20.262 -0.3070  0.0701 -0.0940
46360W        W65107  21.647  12.066  19.271  0.3124  0.2640  0.3210
46361W        W65108  27.056  28.378   1.559 -0.1939  0.3198 -0.1966
46362W        W65109  31.875  34.098  16.777  0.2348 -0.0476  0.1692
46363W        W65110  23.664   4.383   2.577 -0.0029  0.0147 -0.0997
46364W        W65111  28.499   6.025  25.641  0.0146  0.0369  0.0382
46365W        W65112  18.976  21.076  17.876 -0.2330  0.1293  0.0703
46366W        W65113  18.960  29.564   8.841  0.1679  0.1272  0.1796
46367W        W65114  12.571  25.593   6.220 -0.5314 -0.0223 -0.2411
46368W        W65115  23.100  17.569  20.454 -0.3352  0.1799 -0.3566
46369W        W65116  16.338  34.050  10.717  0.1122  0.1298 -0.1160
46370W        W65117  27.610  22.718  13.827  0.0639  0.0979  0.1168
46371W        W65118  25.136  24.281  20.775  0.0451 -0.3244  0.1344
46372W        W65119   9.630  18.667  12.547 -0.2332 -0.0133  0.1444
46373W        W65120   0.944  31.524  22.360  0.2745  0.3469  0.1271
46374W        W65121  14.962  10.468   2.538  0.0660 -0.1647  0.3706
46375W        W65122   3.525  20.021  20.799 -0.1760  0.3173  0.1766
46376W        W65123   8.105  19.695  21.240  0.1224 -0.0786 -0.3459
46377W        W65124   7.086  25.814  13.117  0.1504 -0.2609 -0.2413
46378W        W65125  20.458  33.087   4.168 -0.3586  0.0719 -0.0025
46379W        W65126   1.975   7.269  20.042  0.0598 -0.0923  0.3722
46380W        W65127   7.384  19.876  24.982  0.5059 -0.5838  0.1351
46381W        W65128  24.898  32.390   3.070  0.1561  0.3704 -0.2683
46382W        W65129  23.029  20.722   0.805 -0.2299 -0.0286  0.1732
46383W        W65130  15.789   1.468   0.097 -0.3679 -0.4530  0.0439
46384W        W65131  30.017  30.961  23.994 -0.2390  0.0819  0.0691
46385W        W65132  31.692  16.705  13.100 -0.0535  0.0651 -0.0913
46386W        W65133  31.807  23.915   7.285  0.1495  0.0548 -0.0393
46387W        W65134  11.024   6.168   2.782 -0.1137  0.1389 -0.2551
46388W        W65135   0.096  25.868  22.872  0.0365  0.2928  0.0948
46389W        W65136  26.305  21.246  20.646 -0.0230 -0.1583 -0.0251
46390W        W65137  20.030   9.445   0.699  0.1870 -0.4309  0.0265
46391W        W65138  34.921   9.726  17.858 -0.1349  0.2307 -0.0392
46392W        W65139  24.877   6.635  15.250  0.1854  0.1622 -0.3243
46393W        W65140  31.849  26.258  23.545  0.0490  0.0892  0.0583
46394W        W65141  20.592  25.267  20.808 -0.1319 -0.3449  0.0446
46395W        W65142  28.369  14.388   7.952 -0.0408  0.0291  0.0958
46396W        W65143  21.435   7.591   5.434 -0.0183 -0.2132  0.0709
46397W        W65144   3.519   0.153  25.958 -0.0276 -0.0726  0.1562
46398W        W65145   4.366  26.923  21.510  0.0938  0.1334 -0.2012
46399W        W65146  31.698  10.335   6.500 -0.2296 -0.2085  0.0738
46400W        W65147  19.309  18.732  25.648  0.0339  0.1350 -0.2315
46401W        W65148  20.416  11.650  23.288  0.1945 -0.2053 -0.2316
46402W        W65149  18.533  28.672   1.288 -0.0841  0.2253  0.0130
46403W        W65150  29.585  13.430  18.410 -0.3190 -0.1336 -0.3639
46404W        W65151  10.597  26.286  12.761  0.2005 -0.0398  0.0647
46405W        W65152  13.971  18.689   6.081 -0.1383 -0.2176  0.5140
46406W        W65153  31.008   2.515  25.997 -0.0387 -0.1199 -0.1050
46407W        W65154  18.170  28.647  23.741 -0.0908 -0.0723 -0.1008
46408W        W65155  33.248  21.218  20.109  0.1451 -0.1895 -0.2790
46409W        W65156  27.840   0.828  19.314 -0.0351 -0.0181 -0.1955
46410W        W65157   8.679  15.864   8.449 -0.2001 -0.0732  0.2450
46411W        W65158  35.121  15.178   8.847  0.0879  0.2779 -0.0907
46412W        W65159  22.018  12.188  18.756 -0.2315 -0.1546  0.2336
46413W        W65160   2.682   2.378   3.654  0.2096 -0.0956 -0.0530
46414W        W65161  17.218  21.241  11.568 -0.1690  0.1976  0.0400
46415W        W65162  15.308   2.536  20.756  0.0896  0.3336 -0.1793
46416W        W65163  23.954  25.524  22.094 -0.0558 -0.0392  0.0329
46417W        W65164   1.442  13.579  20.684 -0.0756  0.0563  0.3736
46418W        W65165   4.684  18.816  22.973 -0.2114 -0.1736 -0.2644
46419W        W65166   6.693  12.415   1.420  0.1307 -0.0595 -0.0178
46420W        W65167  35.043  16.537  18.531  0.0667 -0.0745  0.1541
46421W        W65168  29.521  15.956  18.453 -0.0328 -0.3784 -0.1370
46422W        W65169   2.853   4.251   7.888  0.0072 -0.0981 -0.1007
46423W        W65170  24.921   7.241  18.234  0.2436  0.0609  0.1405
46424W        W65171   2.854  17.340  21.232 -0.1007  0.3334 -0.1205
46425W        W65172  22.692  19.449  14.964 -0.4051  0.0744  0.2347
46426W        W65173  11.654  19.578  13.449  0.0918  0.1016 -0.1198
46427W        W65174  29.952  28.492  20.580  0.1125  0.1665  0.0272
46428W        W65175  13.177  30.100   2.406 -0.1063 -0.1814 -0.0740
46429W        W65176  18.575   2.521   5.647  0.1560 -0.0176  0.0221
46430W        W65177  24.881   8.400  26.110  0.0282  0.0715  0.4883
46431W        W65178  17.331  25.535  21.116  0.0767 -0.1148  0.0779
46432W        W65179  27.424  13.577   8.131  0.2516  0.0658  0.1827
46433W        W65180  16.581  14.336  22.328 -0.0836  0.1248  0.1296
46434W        W65181   1.022  18.127  10.793  0.3846  0.0126  0.0116
46435W        W65182  29.975  18.828  10.278  0.0155  0.1242  0.3810
46436W        W65183  17.840  21.690   6.017  0.3581  0.0777 -0.4396
46437W        W65184  10.130   8.863   3.902 -0.2683 -0.0136  0.2592
46438W        W65185   4.205   7.339  25.827  0.0478  0.0391 -0.2188
46439W        W65186  27.972  34.487   3.941  0.2470 -0.0217 -0.0871
46440W        W65187  32.940   2.265  18.841  0.0539  0.2791 -0.2315
46441W        W65188  16.304  23.153   4.412  0.1933 -0.0023 -0.1125
46442W        W65189   9.732  15.355  21.521 -0.0505 -0.1934 -0.0941
46443W        W65190  11.616  24.157  25.857 -0.2951 -0.0258 -0.0770
46444W        W65191  11.624  34.165   6.738 -0.0127 -0.2500 -0.0476
46445W        W65192   6.064  34.589  24.698  0.2649  0.0503  0.0751
46446W        W65193   7.439   1.670   7.430 -0.2850  0.0884 -0.1386
46447W        W65194  25.350  10.089  22.493 -0.1287 -0.5437 -0.0043
46448W        W65195   1.352  34.901   4.954 -0.0390 -0.2577 -0.0782
46449W        W65196  31.397  26.441   9.764 -0.1239  0.2996  0.0380
46450W        W65197  27.224   9.671  24.124 -0.3160  0.2746 -0.0445
46451W        W65198  29.460  24.737  21.618  0.1659 -0.1814 -0.0449
46452W        W65199  32.224   7.536  13.763 -0.0541  0.1170  0.0800
46453W        W65200  25.847  23.735  14.541  0.0650  0.2024 -0.0528
46454W        W65201  13.598  25.142  10.758 -0.0100 -0.0562  0.2944
46455W        W65202  23.010  33.019  13.843  0.3191  0.1769 -0.2203
46456W        W65203   8.941  11.122  12.852  0.0160 -0.1233 -0.1019
46457W        W65204  32.259  17.256  17.022 -0.1733  0.0555  0.0479
46458W        W65205  21.085  12.981   7.819  0.0513  0.2792 -0.0841
46459W        W65206   8.912   7.844   2.609  0.0040 -0.1277 -0.0488
46460W        W65207   2.525   9.986  15.628  0.1766 -0.0361  0.2521
46461W        W65208  23.583  21.821  19.508 -0.0329  0.2093  0.2218
46462W        W65209   8.962  34.027  15.399  0.0335  0.2606 -0.2200
46463W        W65210   6.978   9.894  24.551  0.1047  0.2593 -0.0687
46464W        W65211  34.854  13.910   0.066 -0.1469  0.1049 -0.1794
46465W        W65212  25.444  28.583  14.249 -0.1610  0.2782  0.1296
46466W        W65213  35.210  24.226  25.040 -0.0151 -0.5472 -0.0255
46467W        W65214  17.358  32.712   5.632 -0.1450  0.2568 -0.0517
46468W        W65215  24.964   3.956   1.627 -0.0108  0.0804  0.4679
46469W        W65216  14.198  26.383  26.236 -0.1489 -0.1819 -0.0360
46470W        W65217  13.507  14.697  14.049  0.2985 -0.3124 -0.3059
46471W        W65218  11.180  21.529   9.332 -0.0062  0.0240 -0.1618
46472W        W65219   4.819  16.172   0.439  0.0443  0.3471 -0.0000
46473W        W65220   7.191  10.352  21.501  0.1779  0.1228 -0.0443
46474W        W65221  22.632   8.943  20.307 -0.0518  0.2690  0.4017
46475W        W65222  12.432   9.736  10.754 -0.1300  0.1925  0.0779
46476W        W65223  21.843   7.992   8.178 -0.1115 -0.3241 -0.0714
46477W        W65224  24.920  17.001  23.797 -0.1055 -0.0760  0.2203
46478W        W65225  25.116  28.598  11.346  0.1369  0.1226 -0.1069
46479W        W65226  11.405  32.614  15.079 -0.0060  0.0276  0.1707
46480W        W65227   7.501   5.707  10.799  0.1199  0.0673  0.1028
46481W        W65228  11.685   1.990   2.359 -0.2658  0.0964 -0.2660
46482W        W65229  21.546  29.071  25.313  0.2060  0.2818  0.2039
46483W        W65230   8.470   9.095  11.015 -0.1209  0.3928  0.0950
46484W        W65231  17.226  13.388  11.759  0.1026  0.1492 -0.0446
46485W        W65232  32.226  24.024  23.259  0.3700  0.0028  0.1066
46486W        W65233  29.619  18.381  20.022 -0.2178  0.0160  0.1735
46487W        W65234   2.085  34.172  11.111  0.1571 -0.1281 -0.3838
46488W        W65235  11.875  17.726  23.864 -0.1818 -0.4429 -0.0262
46489W        W65236   2.466  14.584   2.904 -0.1054  0.0482  0.1548
46490W        W65237  27.103   2.155  20.058 -0.1176 -0.2789  0.1105
46491W        W65238  21.605   3.678  23.568 -0.1722  0.4270  0.2979
46492W        W65239   8.089   2.329   4.203  0.0060  0.1504  0.1231
46493W        W65240   0.051   4.752  26.140 -0.2004 -0.0266 -0.3166
46494W        W65241  32.686  33.984   5.116 -0.1502  0.0421 -0.1472
46495W        W65242  34.865  11.689  10.696 -0.2124  0.2504  0.2871
46496W        W65243  14.464  20.190  22.161 -0.4793  0.0552  0.2600
46497W        W65244   4.062  26.287   1.219 -0.4321  0.1965  0.2135
46498W        W65245  19.336   9.181   6.185  0.4525  0.1386 -0.0190
46499W        W65246   1.648   4.483   1.495 -0.1615  0.3750  0.0194
46500W        W65247  28.260  25.862   7.064  0.5737  0.2119  0.1721
46501W        W65248  32.932   7.579   4.199 -0.1210 -0.3045  0.0964
46502W        W65249   4.542   6.617  24.811 -0.1649  0.0553  0.5408
46503W        W65250  10.857  13.995  12.133 -0.0580  0.0375 -0.0047
46504W        W65251  33.996   1.330  22.004 -0.0545 -0.3107 -0.1837
46505W        W65252  19.313  19.666  23.206 -0.1815  0.3743  0.2003
46506W        W65253  17.219  13.228   0.749 -0.2076 -0.4136  0.0062
46507W        W65254   3.558   6.748  15.677  0.0765 -0.0827  0.1856
46508W        W65255  20.508   9.615   8.819 -0.1018  0.1986  0.2521
46509W        W65256  18.389  15.271   1.806  0.1373 -0.1871 -0.0522
46510W        W65257  10.907   5.781  25.148  0.1010  0.3028  0.4603
46511W        W65258   7.538   6.055   4.606 -0.1760 -0.0563  0.2383
46512W        W65259   3.307  34.586   4.347 -0.1329 -0.2111 -0.0575
46513W        W65260  13.033  26.999   7.783  0.0825 -0.3039  0.1121
46514W        W65261  23.369   2.334  15.503 -0.0759 -0.0970 -0.1531
46515W        W65262  28.345   3.106  19.171 -0.4056 -0.1430  0.0384
46516W        W65263  29.074   8.664   7.812  0.0650  0.5651  0.2319
46517W        W65264  13.152  14.257   2.160  0.1059 -0.2277 -0.2171
46518W        W65265  21.849   7.119   2.864 -0.0378  0.4029  0.0132
46519W        W65266  31.784  31.211   4.750  0.3785 -0.0990 -0.0707
46520W        W65267  27.191  29.566  18.065 -0.1051  0.0639  0.2216
46521W        W65268  27.571  31.492   1.430  0.0894 -0.2466  0.1301
46522W        W65269  14.108  10.829  13.269 -0.2046  0.1638 -0.0645
46523W        W65270  34.094   5.095   0.337  0.0733  0.2043  0.1806
46524W        W65271  29.355  14.959  11.457  0.2253 -0.2594 -0.0099
46525W        W65272  15.155   1.633   9.151 -0.1343 -0.0822 -0.2470
46526W        W65273  20.490  14.064   2.817  0.1473 -0.1652 -0.0596
46527W        W65274  25.036  18.156  22.647 -0.0359  0.1724  0.4055
46528W        W65275  30.805   9.090  20.280 -0.1821 -0.0572 -0.0284
46529W        W65276  15.570  18.354  22.533 -0.0134  0.0771  0.0890
46530W        W65277  12.594  27.378  22.379 -0.2103  0.2077 -0.0120
46531W        W65278  20.922  32.883  18.332  0.1438 -0.1486 -0.2279
46532W        W65279   8.144  13.490   8.820 -0.1058 -0.0668 -0.0303
46533W        W65280   9.460   0.666  13.165 -0.0613 -0.2141 -0.3348
46534W        W65281  28.882  32.649  18.792 -0.0021 -0.2012 -0.0110
46535W        W65282  16.202  34.765  18.748  0.0786  0.2039 -0.0484
46536W        W65283  26.806  32.366   4.599 -0.0995 -0.0045 -0.1748
46537W        W65284  18.079  15.026   6.917 -0.0807  0.3729  0.2235
46538W        W65285  15.918  16.685  12.933  0.0381 -0.3321 -0.1967
46539W        W65286  18.117   9.807   8.314  0.1922  0.0971  0.4223
46540W        W65287  13.591  11.123   3.816 -0.2739  0.0614 -0.1770
46541W        W65288   0.024  24.113  23.787 -0.0211 -0.1121  0.1715
46542W        W65289  19.081  26.187  24.557  0.1162 -0.1679  0.0664
46543W        W65290  31.139   9.391  25.925 -0.0345  0.0598  0.2048
46544W        W65291  23.256  29.141  11.413 -0.0714 -0.0525  0.2238
46545W        W65292  34.212   2.488   7.482  0.2897  0.3558  0.2615
46546W        W65293  26.992  15.816  26.211  0.2833  0.1251 -0.1044
46547W        W65294   9.458  17.361   0.688 -0.0624 -0.0523  0.2311
46548W        W65295  26.056  26.764   1.518  0.1922  0.0707  0.1241
46549W        W65296   5.319  16.803  21.157  0.3261  0.3974 -0.0831
46550W        W65297   9.653  14.823   8.365  0.0797  0.3332 -0.0471
46551W        W65298  24.240  32.108   2.854 -0.0002 -0.0495 -0.0616
46552W        W65299  14.867  31.043  25.213  0.3265 -0.1944  0.1287
46553W        W65300   6.252  15.042  20.193 -0.2729 -0.0035 -0.0495
46554W        W65301  16.582   3.919   4.167  0.2515  0.2228 -0.0513
46555W        W65302  22.864   9.949  24.073 -0.3658  0.1287 -0.1376
46556W        W65303  16.082  21.241   9.662  0.0822  0.0007  0.1872
46557W        W65304  13.448  25.186  21.858  0.0859 -0.2851 -0.0371
46558W        W65305  26.797   6.020  12.212 -0.0554  0.0468 -0.5208
46559W        W65306  30.200  19.705  12.924  0.1286  0.0761  0.2022
46560W        W65307   8.378   5.817  13.418  0.0849  0.0508  0.2957
46561W        W65308   3.963   4.870   3.207 -0.0406 -0.4234  0.2292
46562W        W65309  23.956  32.186   4.387 -0.1552 -0.0537 -0.1200
46563W        W65310  25.350   3.739  25.438  0.0234  0.2049  0.2318
46564W        W65311  21.173   9.190  15.867  0.0463 -0.0740  0.2148
46565W        W65312  21.795  27.366  15.719  0.0482 -0.1355  0.0214
46566W        W65313  14.664  29.979  24.479  0.1259 -0.1843 -0.0120
46567W        W65314   8.172   0.068   2.672 -0.1976  0.0758 -0.0944
46568W        W65315   2.682   9.385  19.901 -0.0408  0.1608 -0.1985
46569W        W65316   0.664  22.570  22.440  0.1088  0.0577 -0.0407
46570W        W65317  31.196  23.355  23.349  0.0910  0.2578  0.2195
46571W        W65318   0.865   2.838   0.698  0.0478 -0.2141  0.3561
46572W        W65319  32.248  23.124   7.858 -0.0113 -0.0790 -0.1901
46573W        W65320  13.242  18.520   8.235  0.1714 -0.0953  0.3375
46574W        W65321   6.429   7.516   0.820 -0.0218 -0.3948  0.2073
46575W        W65322   4.744  27.884   4.820 -0.0209  0.1862  0.1958
46576W        W65323  32.112  21.014  20.385 -0.1232  0.0715  0.0301
46577W        W65324  18.662   8.057  22.613  0.3192  0.0951  0.0077
46578W        W65325  29.828   3.474  23.577 -0.0661 -0.1297  0.2176
46579W        W65326  13.453  34.476   1.101  0.2687 -0.1982  0.2749
46580W        W65327  27.561   0.033  18.681 -0.0701  0.1772  0.2645
46581W        W65328  21.635   0.181  21.542 -0.0293  0.1295 -0.2991
46582W        W65329   2.829  32.753   1.388 -0.1867  0.2190  0.4388
46583W        W65330  11.092  16.003   1.406  0.4219  0.3240 -0.1166
46584W        W65331  23.348   1.532  17.189  0.0620  0.3411 -0.1978
46585W        W65332  28.553  14.710   6.934 -0.0120 -0.1430 -0.1733
46586W        W65333   5.228   9.408  21.200  0.0167 -0.2453 -0.0679
46587W        W65334  27.004  17.414   6.903 -0.1891 -0.0291 -0.1094
46588W        W65335   5.325  29.592   6.302 -0.0613  0.0679  0.3498
46589W        W65336  12.808  27.323  12.139  0.2832 -0.0841  0.5272
46590W        W65337  23.380  18.211  14.796  0.0063  0.0988 -0.0469
46591W        W65338  34.062  30.291   6.569 -0.0561  0.0039 -0.2829
46592W        W65339  29.724  17.477   6.092  0.1727 -0.1629 -0.1028
46593W        W65340  28.734  31.926  25.676 -0.2564  0.0590  0.1891
46594W        W65341  15.045   8.522   1.913 -0.2821  0.2491 -0.1583
46595W        W65342  20.356  24.482   1.900  0.2134  0.1206  0.0439
46596W        W65343  23.325   2.630   1.021  0.0134 -0.0439 -0.1022
46597W        W65344   1.089  20.446  23.221  0.1264  0.1299 -0.2030
46598W        W65345  10.183  31.174   8.052  0.3425 -0.1452  0.0320
46599W        W65346  29.849  25.127  25.472 -0.1403 -0.1534  0.0214
46600W        W65347   0.011   3.390   2.464 -0.0102  0.1693 -0.0357
46601W        W65348  23.462  20.206  21.223  0.2106 -0.2571 -0.1179
46602W        W65349   8.853  10.681   0.499 -0.1058 -0.0788 -0.1795
46603W        W65350  12.595   3.684  24.983 -0.1331 -0.1136  0.1836
46604W        W65351  28.002   3.572  13.896  0.0075  0.0860 -0.0686
46605W        W65352   5.582   1.777   9.945  0.1675 -0.1302  0.0711
46606W        W65353  32.986  21.428  21.459  0.1466  0.4030  0.2959
46607W        W65354   4.603  22.255   3.404  0.3102  0.1835  0.0633
46608W        W65355  28.173  18.573   5.752 -0.0246 -0.4203  0.0926
46609W        W65356  12.954  14.835  23.182  0.1158  0.1618  0.1924
46610W        W65357   6.286  10.855   9.114  0.1311  0.1801  0.0538
46611W        W65358  28.752  21.458  18.971  0.0855 -0.0631  0.1057
46612W        W65359  13.205   3.192   3.680  0.1626 -0.2009 -0.0793
46613W        W65360  29.646   3.074  13.183 -0.2258 -0.2064  0.1979
46614W        W65361  15.094  14.385  10.665  0.0937  0.0430  0.0258
46615W        W65362  19.697  13.677   2.297 -0.0358  0.1077 -0.0297
46616W        W65363  20.829  30.056  19.987  0.0945  0.0516 -0.0747
46617W        W65364  11.870  11.756   2.982  0.0014  0.0400 -0.0516
46618W        W65365  33.617   9.971  15.666  0.0597 -0.1527 -0.0142
46619W        W65366  27.417   7.354  21.859  0.4225  0.3836 -0.0009
46620W        W65367  25.442  17.530  18.437  0.2425  0.0467  0.1519
46621W        W65368  14.432   7.990   3.139  0.3138 -0.2852  0.0554
46622W        W65369  14.262  23.171  14.348 -0.1758 -0.0309  0.2766
46623W        W65370  14.146   0.712  12.670 -0.1140 -0.1660  0.3788
46624W        W65371  13.976  24.601  12.181 -0.1191 -0.1980  0.1330
46625W        W65372  13.513  34.281  22.577 -0.2420 -0.0246 -0.0150
46626W        W65373  29.829   6.469   9.018 -0.0192 -0.0424  0.2240
46627W        W65374   3.343  27.927  11.414  0.0536  0.0757 -0.2111
46628W        W65375  32.472   1.225  16.420 -0.1239  0.0345  0.0697
46629W        W65376  15.914  21.418  25.206 -0.1641 -0.2760  0.1952
46630W        W65377  21.760  12.506  16.357 -0.0387  0.1442 -0.1220
46631W        W65378  24.040   0.936  20.606  0.2607 -0.1665  0.0167
46632W        W65379  22.693   7.971  17.752 -0.1958  0.0191 -0.1348
46633W        W65380  30.448   4.182   0.565 -0.0550 -0.0320  0.0434
46634W        W65381  28.789  18.119  22.193 -0.0450 -0.0098 -0.1187
46635W        W65382   4.504   8.132   6.190  0.2033  0.2867 -0.3235
46636W        W65383   9.482  15.122   5.237  0.0954 -0.0969  0.0595
46637W        W65384  15.650   7.783  25.322  0.0627 -0.1876 -0.1910
46638W        W65385  27.834  17.430  26.244  0.0143  0.0695 -0.0578
46639W        W65386  34.366  31.203   5.156 -0.1244  0.0591 -0.0989
46640W        W65387  17.152  21.503   1.252 -0.0634 -0.2338  0.0395
46641W        W65388   6.021  13.069   1.374  0.0117 -0.1789  0.0786
46642W        W65389   7.139  10.951   0.475 -0.0705 -0.3436 -0.0973
46643W        W65390  16.719   8.653  22.577  0.1630 -0.0661 -0.1013
46644W        W65391   0.920   2.647   4.356  0.2613  0.1469  0.1271
46645W        W65392  29.501  30.590  19.760  0.2702 -0.0737 -0.1186
46646W        W65393   9.973   0.706  20.085  0.0154  0.2708  0.0328
46647W        W65394  17.403  32.386  22.557  0.0196 -0.1766  0.2683
46648W        W65395  26.539   2.761   1.075 -0.1422 -0.0269 -0.2227
46649W        W65396  20.871  28.963   2.507  0.3739 -0.1470  0.2835
46650W        W65397   6.277   0.385  20.722  0.2402 -0.1871  0.0897
46651W        W65398  35.326  18.034  26.109  0.2767 -0.3088 -0.2064
46652W        W65399  12.768  12.874  25.947 -0.0486  0.0579 -0.0129
46653W        W65400  13.333  23.232  23.020 -0.0928 -0.0660  0.0311
46654W        W65401  27.668  23.046  12.460 -0.1544 -0.1382  0.1871
46655W        W65402   8.939  24.921   6.909  0.1161 -0.1091 -0.1733
46656W        W65403  33.531   1.684  15.808 -0.3353 -0.1200  0.1716
46657W        W65404   7.503  28.861  21.979  0.0380  0.1555 -0.0419
46658W        W65405  15.902  19.692   8.828  0.0625 -0.0632  0.1344
46659W        W65406  32.598  14.176  23.122  0.0729  0.1486  0.0111
46660W        W65407  34.056  10.718   0.465  0.3078 -0.1758 -0.1248
46661W        W65408  13.066   4.063   1.846  0.0481 -0.1738  0.2165
46662W        W65409  11.617   3.147  20.477  0.2335  0.0645  0.0869
46663W        W65410  12.625  25.144  10.077 -0.1854  0.1174  0.0411
46664W        W65411  20.144  15.270  22.218 -0.3511  0.0635  0.0026
46665W        W65412  19.601  28.660   6.327 -0.2101 -0.2690 -0.2207
46666W        W65413   1.741  17.041  11.473  0.0604  0.0263 -0.1246
46667W        W65414  25.721  25.283  25.953 -0.0658 -0.0282 -0.1312
46668W        W65415  15.317   0.830  19.324 -0.0476 -0.0929 -0.1095
46669W        W65416   8.802  19.173  20.554 -0.1052  0.3270 -0.0158
46670W        W65417  18.851   9.085   9.634 -0.0143 -0.0673  0.1368
46671W        W65418  18.961  34.505   3.884 -0.0042 -0.2185  0.5815
46672W        W65419   7.483  22.214   0.761 -0.1351 -0.1211  0.3244
46673W        W65420   3.791  31.610  25.367  0.2462 -0.3414  0.2160
46674W        W65421  16.535  20.511  25.383 -0.3807  0.2354  0.1295
46675W        W65422  32.704  20.220  19.165  0.0977 -0.2569 -0.1473
46676W        W65423   4.757  23.544  23.756 -0.1159 -0.1902 -0.0849
46677W        W65424   7.420  19.089   1.518  0.1930 -0.0175 -0.0109
46678W        W65425  17.309  16.256  26.237 -0.0676  0.0256  0.0496
46679W        W65426   9.294   4.480  11.591  0.1438  0.3604 -0.0124
46680W        W65427   0.556  13.475   2.060 -0.2218 -0.0370  0.2980
46681W        W65428  18.979  34.421   5.761 -0.0226  0.1459 -0.0718
46682W        W65429  17.469   8.135  18.173 -0.0710  0.0383 -0.0821
46683W        W65430  16.447  22.398  13.676  0.0881 -0.2788 -0.0448
46684W        W65431  16.323  12.255  10.204 -0.3206  0.1405  0.1257
46685W        W65432  21.521  27.881  14.698 -0.0780 -0.1685  0.1327
46686W        W65433   1.693   2.081  19.472  0.1339 -0.2034 -0.1945
46687W        W65434  32.457  15.505  24.035  0.2535 -0.0350 -0.2435
46688W        W65435   6.381  16.284   0.843 -0.2328  0.1785  0.2884
46689W        W65436   2.212   7.263   1.873  0.1154  0.0110 -0.1653
46690W        W65437  12.753  30.955  15.204  0.1991  0.0054 -0.0749
46691W        W65438   6.253  29.575  20.409  0.0733 -0.0087 -0.2584
46692W        W65439   6.758  13.347  25.024 -0.0818  0.2115 -0.2154
46693W        W65440   8.282  34.231   4.184  0.1790  0.1696 -0.0583
46694W        W65441  32.077  26.505  23.924 -0.1163 -0.1097 -0.1686
46695W        W65442  20.855  14.133   0.883  0.1049 -0.1387  0.1325
46696W        W65443  11.824  34.348   9.053  0.1029 -0.2067  0.0195
46697W        W65444  16.750  17.762   5.697 -0.4757  0.0744 -0.1003
46698W        W65445  34.795   6.972  12.114  0.0885  0.0920  0.0458
46699W        W65446   2.778  14.410   0.294  0.1592  0.3865  0.0839
46700W        W65447  35.281  32.081   4.618 -0.0675 -0.0441 -0.2983
46701W        W65448   0.710  17.285  25.609  0.0886 -0.1920 -0.0852
46702W        W65449   7.152  19.410  23.735  0.2050  0.0720  0.0737
46703W        W65450  30.823  28.312   0.033 -0.1641  0.0178 -0.0485
46704W        W65451   4.980  26.784  25.548 -0.0921  0.0539 -0.1963
46705W        W65452  23.914  27.044  15.684 -0.2037  0.0645  0.0873
46706W        W65453  31.379  34.124  24.648 -0.1206 -0.1721  0.0668
46707W        W65454   9.629  15.533   4.267 -0.0843 -0.1916  0.1741
46708W        W65455  27.722  30.751  14.065 -0.4015  0.3419 -0.0854
46709W        W65456  31.720  17.417  11.706  0.4853  0.0200 -0.2822
46710W        W65457  27.487   7.079  12.697  0.2156 -0.1921 -0.2390
46711W        W65458  25.466  24.557  16.388  0.1937 -0.1488 -0.0921
46712W        W65459  25.825  28.603  22.691 -0.0885 -0.1830 -0.2009
46713W        W65460   3.418  21.532  23.430  0.0013  0.2308  0.1162
46714W        W65461  25.139  23.545  17.177 -0.2277  0.3408 -0.5750
46715W        W65462  29.804  22.261   8.846 -0.0536 -0.1429 -0.2091
46716W        W65463  16.175   4.575  17.677 -0.0119 -0.1046  0.2180
46717W        W65464  21.154   6.736   0.458  0.0682  0.0023 -0.1311
46718W        W65465  24.288   9.575   0.945 -0.1813  0.0822  0.0327
46719W        W65466  30.956  17.438  16.399  0.0481 -0.0735 -0.2372
46720W        W65467  34.056  33.121  16.131  0.2898 -0.2391  0.0619
46721W        W65468  18.367  22.878  12.799 -0.2360 -0.0951 -0.0755
46722W        W65469   8.370  20.014   0.129  0.1059 -0.1893  0.2506
46723W        W65470  13.421   6.058  13.339  0.1450  0.2687  0.1874
46724W        W65471  21.794   0.737   6.911  0.1228 -0.1513 -0.0084
46725W        W65472   3.540   1.921  18.424  0.1094  0.0197 -0.3571
46726W        W65473  24.902   2.609  20.194  0.2690  0.3283  0.1430
46727W        W65474  25.315  24.560   1.087  0.1360 -0.4455  0.1144
46728W        W65475   6.675  11.428   3.524 -0.1502 -0.2111 -0.3068
46729W        W65476  16.130  15.923   7.614 -0.1729  0.0314 -0.0119
46730W        W65477  22.142   1.515   3.839  0.3580  0.0779  0.1419
46731W        W65478  34.489  20.157  12.195  0.2277  0.1197 -0.1472
46732W        W65479  19.632  30.154   1.513 -0.0971 -0.1034 -0.0234
46733W        W65480  11.052  32.683   9.574 -0.2529 -0.0503  0.2196
46734W        W65481  20.434  31.405   6.744 -0.2771  0.0905 -0.0115
46735W        W65482   0.694  25.017  19.650 -0.1384 -0.1142 -0.3744
46736W        W65483  25.748   9.560   8.671 -0.1086 -0.0448 -0.2472
46737W        W65484   6.101  13.692  20.892 -0.0532  0.0137 -0.1914
46738W        W65485  26.510  25.784  25.942  0.1208 -0.3633 -0.0081
46739W        W65486  28.701  21.942  11.741 -0.1336  0.0867 -0.2480
46740W        W65487   6.426  16.258   3.389  0.2712  0.2002  0.0618
46741W        W65488  25.356  31.248  21.842 -0.3308 -0.1413  0.0930
46742W        W65489  17.924   8.962   9.413  0.0208 -0.3216  0.1124
46743W        W65490   4.698  35.169  21.921 -0.1427  0.1753  0.1847
46744W        W65491  15.144  31.710  22.026 -0.1612 -0.0873 -0.2559
46745W        W65492  34.400  20.128  19.495 -0.3268  0.0729  0.0220
46746W        W65493  10.940  24.974   0.501  0.2669 -0.1600  0.3889
46747W        W65494  25.603   4.501   4.374  0.0693  0.2918  0.1408
46748W        W65495  16.847  25.380  11.293 -0.1949 -0.0037 -0.0772
46749W        W65496  30.174  28.356  23.242  0.0145  0.5042  0.1659
46750W        W65497  12.109  12.719   4.032 -0.1791  0.2267  0.0184
46751W        W65498  19.823   3.037  20.421  0.0672 -0.0269 -0.0032
46752W        W65499   3.370  22.441  25.752 -0.0249 -0.0187 -0.2358
46753W        W65500  20.043  25.910   5.590  0.0315 -0.0746 -0.0508
46754W        W65501  32.841  11.475  21.630 -0.0739  0.0019  0.1409
46755W        W65502   9.104  27.296  15.493  0.2086 -0.1265 -0.2527
46756W        W65503  24.296  21.869   1.113 -0.2209 -0.0490  0.0851
46757W        W65504  25.908  22.782  10.099 -0.2068  0.1416 -0.2451
46758W        W65505  22.959   3.109   5.374 -0.0464  0.2815  0.0675
46759W        W65506   3.771   7.798  23.476 -0.0335 -0.1966 -0.0439
46760W        W65507  28.392   8.001  12.916 -0.3120  0.2164 -0.2736
46761W        W65508  26.424  33.181  13.013 -0.0460 -0.4035  0.0303
46762W        W65509  18.731  24.278   5.390  0.3291 -0.0398  0.4531
46763W        W65510  28.470  32.337   1.183  0.0047 -0.2095 -0.2206
46764W        W65511   6.753  18.935   5.639  0.1844  0.3413 -0.3373
46765W        W65512  33.066  18.381  15.191  0.0419  0.0059  0.0479
46766W        W65513  35.304  32.235  26.002  0.0279 -0.0821 -0.1352
46767W        W65514   8.902   1.050  10.012 -0.1060  0.0166  0.4594
46768W        W65515  16.583  19.220  23.128  0.1223 -0.2455 -0.5160
46769W        W65516  15.696  25.173   9.253 -0.2431 -0.2502 -0.0473
46770W        W65517  31.867  26.433  15.040 -0.0760 -0.1103  0.1335
46771W        W65518  14.436  24.622  26.081  0.1710  0.0980  0.1647
46772W        W65519  16.800   9.574  10.053  0.3669 -0.1833  0.1544
46773W        W65520  21.539  24.785  23.895 -0.2784 -0.2208 -0.4085
46774W        W65521  19.737  31.482  20.490 -0.3981  0.2150 -0.1997
46775W        W65522   1.871  32.593   0.717 -0.2496  0.1965 -0.0121
46776W        W65523  29.403   6.955  13.042 -0.0451  0.0344  0.4306
46777W        W65524  15.310  35.022   9.204  0.1414  0.0678  0.3594
46778W        W65525   8.838  32.712   3.414 -0.2370 -0.0996  0.3229
46779W        W65526   0.581  28.811   4.616  0.1308  0.1661  0.0290
46780W        W65527  22.953   2.060  15.554 -0.1276 -0.0588  0.0516
46781W        W65528  34.111  15.510  11.773  0.2503 -0.1045  0.0397
46782W        W65529  33.734  12.260  12.414  0.1928  0.2100  0.2287
46783W        W65530  26.056  16.273  22.577 -0.1497  0.2583  0.1817
46784W        W65531  13.277   1.470  23.481 -0.2959  0.2411 -0.1967
46785W        W65532   0.469  17.898   1.607  0.0284  0.2197  0.2053
46786W        W65533   4.739  21.370  23.503 -0.0445  0.1035  0.0643
46787W        W65534  15.565  12.243  11.821 -0.0475 -0.0681  0.2646
46788W        W65535   0.452   3.333   1.417  0.1462 -0.4925 -0.0818
46789W        W65536  13.573  22.957  24.459  0.1083  0.2496 -0.2070
46790W        W65537  14.782  33.092   6.508  0.1718  0.3080 -0.0493
46791W        W65538  17.810  19.724  21.688 -0.2500  0.3544 -0.0077
46792W        W65539  11.380   3.609  21.986  0.0394  0.0273 -0.2876
46793W        W65540  26.449  22.505  22.888  0.1030  0.0376  0.0976
46794W        W65541  33.439  13.941  16.411  0.1129  0.1042 -0.3054
46795W        W65542  16.107   1.170   4.419  0.1220  0.1876 -0.2406
46796W        W65543  27.882   6.934   2.100  0.7996 -0.0916  0.3027
46797W        W65544  22.740  29.979  12.846  0.0171 -0.0227 -0.0506
46798W        W65545  17.686   1.951  23.350 -0.1038 -0.1287  0.1565
46799W        W65546   1.048  20.704  15.865 -0.1791 -0.0943  0.0362
46800W        W65547  31.124  34.245  25.074 -0.0045 -0.1295  0.1661
46801W        W65548  35.333  26.007   3.104  0.2056  0.2834  0.1859
46802W        W65549   8.746   4.481   3.555  0.1653  0.0805 -0.0119
46803W        W65550   1.322  23.640  18.022 -0.0346  0.0946  0.3988
46804W        W65551  29.582   4.520   2.449  0.1692 -0.0267 -0.0616
46805W        W65552  32.107   8.527  18.593  0.1733 -0.0471  0.5715
46806W        W65553  34.956   7.065  17.678  0.1304 -0.2509  0.1181
46807W        W65554  11.053  27.747   7.902 -0.2776 -0.3322 -0.2709
46808W        W65555  15.002  31.791  24.701  0.0613 -0.1951 -0.0114
46809W        W65556  31.001  13.794   6.546  0.0657 -0.0380  0.2837
46810W        W65557   8.174  23.480  21.947 -0.1070  0.0937 -0.0956
46811W        W65558   8.533  18.228  23.502  0.2989  0.1924  0.2501
46812W        W65559  29.065  34.441  21.705  0.1149 -0.0548 -0.3014
46813W        W65560  26.985  32.682   4.177 -0.1378 -0.0506 -0.1402
46814W        W65561  29.114  20.060  20.526 -0.0211 -0.3488 -0.2231
46815W        W65562  28.386  23.360   8.853  0.0239 -0.1671  0.3743
46816W        W65563  30.067  23.185  22.065 -0.0026  0.1630  0.0705
46817W        W65564   5.820  10.646   3.707 -0.1801 -0.0182 -0.2963
46818W        W65565  21.292   4.713  23.041  0.1766 -0.1979 -0.1158
46819W        W65566  26.253   2.053   5.564 -0.1456 -0.1676  0.4186
46820W        W65567  16.448  12.135   2.666  0.0816 -0.0564 -0.0034
46821W        W65568  30.043   0.712  15.001 -0.4694  0.3234 -0.0541
46822W        W65569  33.853  30.201  17.132  0.0776  0.0831 -0.2127
46823W        W65570  18.407   8.874   9.435 -0.0526  0.0329 -0.2261
46824W        W65571  29.303  14.315  10.827  0.1029  0.1899 -0.4309
46825W        W65572  17.537  16.660  12.175  0.2055 -0.1081 -0.1016
46826W        W65573   7.072  10.571  25.522  0.1807 -0.1964 -0.0429
46827W        W65574  16.281   5.260  26.166 -0.0793 -0.1094  0.1153
46828W        W65575  14.007  23.385   0.283  0.0186  0.0551  0.1538
46829W        W65576  13.721  20.275   8.807  0.0869  0.1888  0.0551
46830W        W65577  30.826  18.079   9.018  0.0455  0.1120 -0.0522
46831W        W65578   7.985  29.947   1.762  0.0998 -0.2318 -0.1138
46832W        W65579  19.356  16.940  25.509  0.0953  0.1500  0.1395
46833W        W65580  26.338  15.931  19.896 -0.1567 -0.1969  0.2433
46834W        W65581   0.741  13.919  19.504 -0.6403 -0.0775 -0.2902
46835W        W65582   6.576  10.306  19.428 -0.2292 -0.4000  0.1480
46836W        W65583  24.055  32.618  17.769  0.2034 -0.4431 -0.2890
46837W        W65584  32.665  24.605  22.759 -0.2278 -0.2790 -0.2967
46838W        W65585   6.860  10.975   6.865 -0.1388  0.2923 -0.0225
46839W        W65586  15.296  22.066   5.438  0.1561  0.1437  0.2327
46840W        W65587  27.405  18.784   6.448 -0.1747  0.2187  0.2433
46841W        W65588  13.576  32.122   7.915 -0.0271 -0.0856  0.0955
46842W        W65589  20.471  24.241   0.061 -0.2255  0.0393  0.4706
46843W        W65590   1.312  14.082  11.778 -0.1734 -0.0787 -0.0186
46844W        W65591  24.842  12.055   9.934 -0.3281  0.0394  0.1309
46845W        W65592   2.904  12.563  14.074 -0.3934 -0.2153  0.2907
46846W        W65593  33.294  13.485   0.767 -0.0489 -0.3360 -0.2391
46847W        W65594  22.747  10.435  18.633  0.1280 -0.1562 -0.0175
46848W        W65595  20.390  27.329  17.540  0.2355 -0.0125 -0.0486
46849W        W65596  24.816  20.516  14.742  0.2423  0.0258  0.2524
46850W        W65597   4.740  20.731  18.854 -0.1440  0.0842 -0.4926
46851W        W65598  14.913   5.163   9.733 -0.2062 -0.2714  0.3136
46852W        W65599   5.045   7.234   8.695  0.1881  0.1602  0.4194
46853W        W65600  35.307  35.292  15.147  0.0222 -0.5637 -0.3210
46854W        W65601   7.812  29.945  14.741  0.3042  0.0873  0.1660
46855W        W65602   2.275   6.170  16.310 -0.0408 -0.0465 -0.4342
46856W        W65603   0.394  14.963   2.887 -0.0143  0.0091 -0.3527
46857W        W65604  27.566  13.006  18.239 -0.0167  0.0927  0.0584
46858W        W65605   5.743  16.562   3.216 -0.0414  0.0713 -0.1959
46859W        W65606   1.999   7.707  22.729  0.1765  0.2722  0.0261
46860W        W65607  14.295  16.562   5.850  0.0872  0.0273  0.1246
46861W        W65608   7.153  26.083  10.596 -0.1086  0.2494  0.0873
46862W        W65609   6.545  17.280   5.186  0.0602  0.1804 -0.0145
46863W        W65610   6.782  33.485  12.288  0.1770 -0.0510 -0.1879
46864W        W65611  12.921   0.463  23.681 -0.1684 -0.0690 -0.1796
46865W        W65612  11.808   6.484  12.015 -0.0232  0.2035 -0.1117
46866W        W65613   9.854  13.382   9.520  0.2432 -0.1484  0.1697
46867W        W65614  25.185  31.166  17.253 -0.0889  0.2429  0.0430
46868W        W65615  15.861  24.655  14.292  0.0879  0.3353 -0.0744
46869W        W65616  33.553  26.423  18.368  0.1575  0.2676  0.0903
46870W        W65617  23.160  33.570  21.612  0.0879 -0.0621  0.0298
46871W        W65618  11.143  34.534  22.131 -0.5924 -0.2131  0.2059
46872W        W65619  12.648  12.854   3.947  0.2253 -0.0202  0.1681
46873W        W65620  18.135   8.620   2.867  0.0280  0.2036 -0.0186
46874W        W65621   5.548  31.291  25.507  0.1379 -0.0004  0.1062
46875W        W65622  35.220  28.558   6.261  0.0315  0.1114 -0.0236
46876W        W65623  30.363  18.462  21.107 -0.2904  0.1686  0.1489
46877W        W65624  30.125   9.807  13.623 -0.1068  0.1371  0.0781
46878W        W65625   8.591  23.622  23.776  0.0332  0.1239  0.0466
46879W        W65626  25.576  16.097   7.803  0.0337  0.3259 -0.0423
46880W        W65627  35.264   6.665  12.820  0.1164  0.2216  0.0252
46881W        W65628  20.692  34.273  19.104  0.0834  0.0369  0.0577
46882W        W65629   1.888   6.384  21.935  0.1119  0.1094 -0.4894
46883W        W65630  23.274  12.145   2.746  0.0709 -0.0689 -0.2792
46884W        W65631  15.636   9.054  10.449  0.0941 -0.0748  0.3103
46885W        W65632   8.510   4.978  19.864  0.0227  0.0893 -0.3813
46886W        W65633  34.077   0.398   6.325  0.2054  0.2085 -0.0392
46887W        W65634  12.129   7.848   4.891  0.0075  0.0267  0.0317
46888W        W65635   1.366   0.824   8.441  0.1513 -0.1314  0.1154
46889W        W65636  13.332  12.997  23.602  0.0679 -0.2720 -0.3138
46890W        W65637  18.841  24.014   0.642 -0.2073 -0.4761  0.1604
46891W        W65638  28.460   3.831   4.146  0.3677 -0.1014 -0.0324
46892W        W65639   0.581   1.444   2.681 -0.2163 -0.4860  0.3714
46893W        W65640  35.214  16.205  18.841  0.0579 -0.2159  0.0202
46894W        W65641  14.060  35.035   8.377  0.1859  0.0043  0.0506
46895W        W65642  32.763  21.232  14.423 -0.2296  0.0069  0.1083
46896W        W65643  32.427   6.097   4.668 -0.0910  0.2083  0.2659
46897W        W65644  30.713  24.288  21.419 -0.0077 -0.1511  0.3600
46898W        W65645  23.640   1.995  16.881  0.1005 -0.1558 -0.2502
46899W        W65646  12.559  14.867  20.301 -0.1022  0.2125 -0.2437
46900W        W65647  15.834   5.401   8.189 -0.2553  0.4905 -0.0015
46901W        W65648   7.743   1.316   3.888 -0.2703  0.1060 -0.1993
46902W        W65649  24.624   4.703   2.870 -0.0276 -0.0528  0.0762
46903W        W65650  28.544   5.935  21.985 -0.1489  0.1043 -0.1164
46904W        W65651  30.652  30.660  22.205 -0.1577 -0.4028 -0.0847
46905W        W65652  10.269   7.409   2.054 -0.2913  0.3630  0.0378
46906W        W65653  29.454  21.126   8.789 -0.1850  0.0840 -0.4361
46907W        W65654  25.530   3.623   3.321  0.0904 -0.1872  0.1497
46908W        W65655  26.794   2.319   1.018 -0.0913  0.1223  0.2706
46909W        W65656   2.341   2.121   3.886  0.0197  0.3724 -0.3080
46910W        W65657  10.509  33.229   0.875  0.1280 -0.3461 -0.0630
46911W        W65658  32.200  16.080   7.156 -0.4335  0.2272  0.0410
46912W        W65659   6.831   9.137  20.508 -0.0473  0.2173  0.2680
46913W        W65660  19.894   1.703  23.257  0.2302 -0.1844 -0.0573
46914W        W65661   2.661  31.935  22.277  0.0767  0.0215 -0.0579
46915W        W65662  19.524  27.851   4.793  0.1457 -0.0539  0.3619
46916W        W65663  24.642  21.769  22.069  0.3219  0.0881  0.0722
46917W        W65664  12.410  22.403   8.874 -0.0496 -0.0964  0.2112
46918W        W65665   9.343   3.347   9.564 -0.0258 -0.4048  0.0404
46919W        W65666   4.544   0.200   9.946 -0.0182 -0.2189  0.1059
46920W        W65667  27.513  27.260  24.824  0.2598 -0.2354 -0.1475
46921W        W65668   8.497  13.659   3.182  0.4026  0.2433 -0.1489
46922W        W65669  25.283  30.050  25.184 -0.0972 -0.2871  0.2964
46923W        W65670  18.667  25.797   7.534 -0.1112  0.1218 -0.0360
46924W        W65671  34.788  34.276  23.740  0.1056 -0.3185  0.2414
46925W        W65672  20.948  16.657   2.106  0.1212  0.2524 -0.3151
46926W        W65673  24.495  33.258  23.543  0.2158  0.2666  0.0551
46927W        W65674  24.390  34.118  26.164 -0.0529  0.0701  0.1355
46928W        W65675  18.049  20.499  11.511 -0.1603 -0.0975  0.1113
46929W        W65676   9.843  13.252  26.220  0.1316 -0.2389 -0.2710
46930W        W65677  13.716  24.140   6.484 -0.1289  0.1582 -0.2415
46931W        W65678  29.883  26.702  17.342  0.2151  0.2884  0.4174
46932W        W65679  30.990  25.263  19.835 -0.0977 -0.0856  0.2643
46933W        W65680  35.242  14.078  22.003  0.3137  0.3388  0.1017
46934W        W65681   0.127  12.972   1.138  0.0414 -0.4373 -0.1061
46935W        W65682  23.911   2.190  23.897  0.2677 -0.0771  0.2963
46936W        W65683  24.932  14.037  18.488 -0.0665  0.0200 -0.2743
46937W        W65684  22.474  21.851  17.874 -0.1467 -0.0889  0.0724
46938W        W65685   4.421   9.563  19.808  0.1411 -0.0176  0.0266
46939W        W65686  20.354  20.936  20.879 -0.3124  0.0988 -0.2657
46940W        W65687  17.455   8.415  19.978 -0.1281 -0.1063  0.0398
46941W        W65688  33.306   3.914   4.687 -0.2921 -0.1864 -0.0362
46942W        W65689  23.818  21.845  14.819 -0.0622 -0.2281  0.3705
46943W        W65690   9.554   3.255  19.966 -0.1589 -0.3318  0.0817
46944W        W65691   9.778  27.236   2.578  0.1182  0.1985 -0.1404
46945W        W65692   5.895  23.514   3.533  0.1661  0.0512 -0.2112
46946W        W65693  23.132  18.249  17.607 -0.1768 -0.0418  0.2318
46947W        W65694  30.866   1.854  13.929  0.0837  0.2330 -0.1375
46948W        W65695  30.206  28.987  21.606  0.0482 -0.1002 -0.2698
46949W        W65696   3.353  27.030  24.413  0.2530  0.0206  0.5264
46950W        W65697  19.517   5.021   4.145 -0.0232 -0.1095  0.3104
46951W        W65698  17.042  28.928  25.607 -0.0147  0.0454  0.0301
46952W        W65699  26.557   6.631  16.785 -0.0275 -0.1239 -0.1325
46953W        W65700  29.888  28.022  26.033 -0.1068 -0.2513 -0.2479
46954W        W65701  18.230   2.699  25.033 -0.4094  0.1175  0.0600
46955W        W65702   0.438   7.558   4.620 -0.3335 -0.0189 -0.2772
46956W        W65703  21.917   6.029  22.926 -0.2166  0.2754 -0.1001
46957W        W65704   1.341  16.895  14.108  0.0417 -0.0313 -0.0763
46958W        W65705   9.105  32.792  10.586 -0.1437  0.2264  0.1245
46959W        W65706  33.861   9.133  11.465 -0.1680  0.0560 -0.0862
46960W        W65707   8.373   4.116  11.146  0.0592  0.1119 -0.1516
46961W        W65708  34.602   4.719  20.503 -0.3130  0.0552 -0.5064
46962W        W65709  29.336   3.141   4.846  0.2872  0.2509 -0.0273
46963W        W65710   7.444   8.189   4.446 -0.1324 -0.0003 -0.3164
46964W        W65711  25.630  19.461   8.079 -0.3387 -0.0248  0.0285
46965W        W65712  29.527  17.089   9.079 -0.0409  0.2216 -0.1305
46966W        W65713   0.681  34.925  17.695  0.1329  0.0638 -0.0709
46967W        W65714  22.179  16.562  17.563 -0.0754  0.2761  0.0695
46968W        W65715  17.113  16.244   3.575 -0.0680 -0.0935  0.4022
46969W        W65716  10.606  33.896   3.666 -0.0907 -0.2333 -0.0134
46970W        W65717  11.729  10.374   6.227 -0.0491  0.0858  0.2825
46971W        W65718  32.170   4.692  18.034  0.1555  0.0717  0.0145
46972W        W65719   9.484   6.133   7.702 -0.0207 -0.2228  0.0568
46973W        W65720  23.287  17.030  25.173  0.0429 -0.0261 -0.1247
46974W        W65721  15.685  30.896  10.252 -0.0820 -0.1738  0.1022
46975W        W65722  18.034  11.615   5.943 -0.0824  0.1759 -0.1236
46976W        W65723   3.826  12.113  15.943 -0.0404  0.2915 -0.4618
46977W        W65724  34.498   2.573  21.293 -0.2709 -0.1091  0.2946
46978W        W65725  22.848  19.977  17.822  0.0989 -0.0430 -0.0497
46979W        W65726  29.690   6.377  14.532  0.0195  0.1216  0.3046
46980W        W65727  21.906   6.631   3.055 -0.0224 -0.0883 -0.0579
46981W        W65728  34.944   8.289  25.972  0.1679 -0.0368 -0.2324
46982W        W65729   4.075  28.175  19.946  0.0622 -0.0677  0.2689
46983W        W65730  21.785  23.410   5.419 -0.0705 -0.1647 -0.0710
46984W        W65731  32.766  19.205  14.216 -0.1090  0.1525  0.0822
46985W        W65732  20.717   3.403   0.146 -0.3919 -0.0026  0.4166
46986W        W65733  23.600  27.227  25.796 -0.1038  0.0160  0.0063
46987W        W65734  27.751   5.931  18.134 -0.1596  0.1257  0.3735
46988W        W65735  14.471   3.335  10.407 -0.3034  0.3395  0.2065
46989W        W65736  11.683   4.618   3.286  0.1588  0.1703  0.0888
46990W        W65737  17.799  22.183   0.420 -0.3543 -0.0356 -0.0706
46991W        W65738   1.265  34.522  20.410 -0.0811 -0.0610 -0.0947
46992W        W65739   2.091   1.902  14.865 -0.1157 -0.0764 -0.1663
46993W        W65740  13.028   3.289  23.334 -0.1594  0.0340  0.2972
46994W        W65741  29.964   8.884  17.728  0.1848  0.2154 -0.0802
46995W        W65742  26.948  27.393  14.421  0.1845 -0.2129  0.1917
46996W        W65743  14.398  17.358  25.833  0.3671 -0.2860  0.2120
46997W        W65744  23.384  32.990  11.546 -0.0724  0.0339  0.1927
46998W        W65745   8.089  20.212   3.595  0.0192  0.0854  0.0616
46999W        W65746  14.112   9.207   5.112  0.0814  0.0609 -0.0977
47000W        W65747  33.818   9.274  22.505  0.0731 -0.0109  0.2197
47001W        W65748  14.209  14.517  24.285  0.0177  0.1799  0.4313
47002W        W65749   4.943   1.799  23.786 -0.0841  0.1642 -0.2176
47003W        W65750  28.802  33.142  18.938  0.0204  0.1393  0.0354
47004W        W65751  32.602  11.554  25.489  0.1256  0.0484  0.3978
47005W        W65752   0.016  28.093   6.147 -0.0306 -0.3918  0.0580
47006W        W65753  11.278  31.779  10.102 -0.1626 -0.0006 -0.0026
47007W        W65754  16.555  19.529  12.146 -0.1895 -0.0184 -0.3147
47008W        W65755  31.488  16.265  21.701 -0.2868  0.1014 -0.0356
47009W        W65756  30.595  35.384  26.231  0.1337 -0.5101 -0.0119
47010W        W65757  11.803   4.000  23.055 -0.3071  0.1616 -0.3280
47011W        W65758  17.337  24.262   6.964  0.0414 -0.1028  0.0173
47012W        W65759  27.630  31.138  21.296 -0.0778 -0.0007  0.1599
47013W        W65760  31.464   3.865  12.107 -0.0709  0.2583 -0.1628
47014W        W65761  13.943  11.539   5.994 -0.0946 -0.0410  0.0970
47015W        W65762  19.419  24.463  18.414 -0.3825 -0.1870 -0.2225
47016W        W65763  12.058  15.656  24.488 -0.1159 -0.1159  0.1757
47017W        W65764  24.329  29.912   1.232 -0.0284 -0.1170 -0.3373
47018W        W65765  20.095   8.075   2.593  0.2480  0.3375 -0.0225
47019W        W65766  26.187  17.838  14.209 -0.3277  0.2397  0.1870
47020W        W65767  13.000  17.960  25.877 -0.1186  0.0105 -0.1691
47021W        W65768  33.858  20.203   6.488 -0.0134 -0.1306  0.0627
47022W        W65769  13.607  29.793  15.495  0.1901  0.2530 -0.1839
47023W        W65770   8.678   8.367   2.438  0.0725  0.4585  0.2199
47024W        W65771  26.814  31.799  21.430  0.2154  0.1287  0.1197
47025W        W65772   2.158  18.831  12.732  0.1403  0.1100 -0.0600
47026W        W65773  33.217  12.245  14.550  0.1913 -0.3658 -0.1102
47027W        W65774  17.690  23.912   8.280  0.0706 -0.1810 -0.2881
47028W        W65775  30.423  17.394  21.637 -0.0524 -0.4211 -0.0562
47029W        W65776  30.242  34.036  24.764  0.1138 -0.0573  0.0462
47030W        W65777  17.654  18.534   6.585  0.1634 -0.2464  0.0725
47031W        W65778  13.677  18.187  19.861 -0.0445  0.1262  0.1637
47032W        W65779  14.452  28.283  24.890  0.1020 -0.0925  0.1496
47033W        W65780  32.882  32.922   2.729 -0.1083  0.0044  0.2789
47034W        W65781  33.978  30.967   5.029  0.0673 -0.0691  0.1420
47035W        W65782  32.632   8.300  14.810 -0.0600  0.2339 -0.0703
47036W        W65783   8.390   1.852   8.800 -0.3524  0.0669  0.1774
47037W        W65784  18.693   8.099  18.290  0.2257  0.1471  0.1248
47038W        W65785  23.193   9.759  16.400  0.2689  0.1168  0.0132
47039W        W65786  30.871  18.129  23.340  0.2748 -0.0008  0.0501
47040W        W65787   1.016  24.393  16.631 -0.1057  0.2328  0.0924
47041W        W65788  33.066   9.332  17.537  0.0452  0.1358 -0.1004
47042W        W65789  14.754  26.399  11.083 -0.2435 -0.0862  0.1306
47043W        W65790  18.468  20.580  21.689  0.0716 -0.0725 -0.3312
47044W        W65791  11.335   7.678  25.672 -0.0096  0.0503  0.1030
47045W        W65792   4.779  19.131   2.707  0.2744  0.1854  0.4240
47046W        W65793  10.131  34.995   8.785 -0.1603 -0.4868  0.0095
47047W        W65794   7.192   3.954  25.838 -0.0071 -0.0901 -0.3257
47048W        W65795  29.739  19.305   6.183  0.1137  0.3404  0.1433
47049W        W65796  15.789  11.784   5.955 -0.1616  0.2468  0.1681
47050W        W65797  24.217  13.961   0.636 -0.0330 -0.1294 -0.0287
47051W        W65798  18.886  32.111  23.477  0.2933  0.0250  0.2605
47052W        W65799  19.650  32.948  19.786  0.0017  0.0673 -0.1616
47053W        W65800   2.294  29.914   8.586 -0.0773 -0.1190  0.0410
47054W        W65801   6.627   3.835   9.739  0.4678 -0.1639  0.1654
47055W        W65802  33.715   6.869  24.992  0.1034  0.0854  0.1812
47056W        W65803  17.090  24.376   4.825  0.1224 -0.1486 -0.1985
47057W        W65804  30.104  16.304   6.104  0.0131  0.2045 -0.1063
47058W        W65805  15.188   0.696  24.353  0.0257 -0.0115 -0.0521
47059W        W65806  25.750  30.749  17.917 -0.1819  0.0732  0.1343
47060W        W65807  14.661   9.016  14.208  0.3043 -0.0683 -0.2860
47061W        W65808  17.498   6.112  17.818 -0.2781  0.0017  0.0753
47062W        W65809  20.915   3.075   3.669 -0.0123  0.0307 -0.2215
47063W        W65810  19.699  28.484  17.942 -0.2420  0.1317 -0.0205
47064W        W65811  24.403  20.198  18.853  0.4220  0.0309 -0.3851
47065W        W65812  24.856  17.303  16.226  0.2460 -0.1523 -0.1657
47066W        W65813   0.176  15.976  19.174 -0.1753 -0.4170 -0.1529
47067W        W65814  30.021   8.048  23.744 -0.0002  0.1638 -0.1452
47068W        W65815  23.541  32.308  20.097  0.1412 -0.0650 -0.0381
47069W        W65816   2.515  18.465   3.565  0.2084 -0.0810  0.0403
47070W        W65817  32.218  28.879   0.548  0.0591  0.0470  0.1404
47071W        W65818  13.844  20.041   5.105 -0.1121 -0.4381 -0.3881
47072W        W65819  22.432  31.716   6.314 -0.2597  0.0587 -0.0513
47073W        W65820   3.525   1.162   7.763  0.0172  0.1612  0.0024
47074W        W65821   2.301  24.839  25.553 -0.1611  0.0983  0.2978
47075W        W65822   8.221  11.043   6.557 -0.1826 -0.2081  0.1196
47076W        W65823  20.836   2.283   3.318  0.1315  0.0832  0.2255
47077W        W65824  31.998   4.676   2.912 -0.3441 -0.1244 -0.2429
47078W        W65825  28.877   6.102  16.469 -0.0688 -0.0028 -0.1353
47079W        W65826   4.933   0.706  19.676 -0.2868 -0.0001 -0.0664
47080W        W65827  12.165  16.645   5.555  0.2830 -0.0641  0.2755
47081W        W65828   1.873   3.804  25.024 -0.1234 -0.1004  0.0356
47082W        W65829  21.519  11.052   6.274 -0.1494 -0.0263 -0.0191
47083W        W65830   6.933  24.664  10.846  0.1217 -0.1388  0.1761
47084W        W65831  15.559  34.680   6.319 -0.0330  0.0358 -0.3415
47085W        W65832  21.439   8.315   3.695  0.1840 -0.0816  0.0985
47086W        W65833  22.574  26.151  22.971  0.0315 -0.0866 -0.0548
47087W        W65834  26.930  16.383  20.315  0.0032  0.2039 -0.0841
47088W        W65835  31.633  13.946  13.663  0.0149  0.4971  0.4247
47089W        W65836  10.457  11.110  21.638  0.0907  0.2074  0.0334
47090W        W65837  35.239   4.863   1.571  0.1616 -0.1597 -0.0159
47091W        W65838  34.370  15.476  24.902  0.0555  0.1257  0.0064
47092W        W65839   0.454  27.539   5.664 -0.3993 -0.2207 -0.1107
47093W        W65840  17.508  32.393  20.914  0.4753 -0.0928 -0.0011
47094W        W65841  23.549   5.597  20.116 -0.2760  0.1056  0.1088
47095W        W65842  16.409   5.261   8.186 -0.1330  0.0664  0.0816
47096W        W65843   0.371   5.444  23.660 -0.1685 -0.3416 -0.2041
47097W        W65844  25.374  10.887  10.863 -0.3427  0.1010 -0.1009
47098W        W65845   6.877  35.166  22.760  0.2370  0.1793 -0.0929
47099W        W65846  13.391  30.636   0.578 -0.0451 -0.1815  0.4339
47100W        W65847  10.198  33.722  22.136  0.1574  0.1220 -0.6271
47101W        W65848   1.092  18.634   9.483 -0.0601 -0.2694 -0.2987
47102W        W65849  32.457  14.617  12.958  0.2188  0.0717  0.4358
47103W        W65850  25.642  20.401   9.201 -0.0582 -0.0910  0.0227
47104W        W65851   8.229  24.804   4.646 -0.0963  0.0998  0.2956
47105W        W65852  18.827  32.419  16.852 -0.1625  0.3665 -0.1359
47106W        W65853  28.466  20.453  16.958  0.0132 -0.0250  0.0532
47107W        W65854  15.647   6.625   6.244  0.1318  0.0449 -0.0159
47108W        W65855  21.156  21.529  16.927  0.1640  0.1362  0.0210
47109W        W65856  21.809  18.038  20.944  0.3038  0.1276 -0.0034
47110W        W65857  28.917  17.753  10.848 -0.0789  0.0389  0.0460
47111W        W65858  20.019   4.438  21.962 -0.1302  0.0210  0.4181
47112W        W65859   3.433  14.959   5.205  0.0278 -0.2413  0.3215
47113W        W65860  19.051   0.257   1.552  0.2094 -0.0993  0.1212
47114W        W65861  25.801   0.876  18.494 -0.0999  0.1616 -0.1656
47115W        W65862  29.768  30.937  12.474 -0.2037 -0.2012 -0.1601
47116W        W65863  14.364   8.591  13.201  0.0128  0.1780 -0.0970
47117W        W65864   7.410  18.263   4.012 -0.0607 -0.2153  0.1141
47118W        W65865   9.992  24.298  23.715 -0.0093 -0.0287 -0.0996
47119W        W65866  22.932   6.186   1.233 -0.0775  0.1236 -0.2250
47120W        W65867   4.698  13.102  25.434 -0.1256 -0.0048 -0.0121
47121W        W65868  25.991  23.283  22.009  0.0166 -0.0182  0.5340
47122W        W65869  15.299  30.976  20.398 -0.0407 -0.0284 -0.0046
47123W        W65870   9.274   1.715  11.452 -0.0091 -0.2826 -0.1459
47124W        W65871  32.067   0.643   6.317 -0.1578  0.2863  0.0088
47125W        W65872  31.291  19.624  13.699 -0.0553 -0.3921  0.1055
47126W        W65873  26.647  20.489   7.929 -0.2474 -0.0062 -0.2453
47127W        W65874  21.588  17.066   1.436 -0.0869 -0.2477 -0.1425
47128W        W65875   6.463  17.793  23.440 -0.4455 -0.2025  0.3887
47129W        W65876   0.333   3.508   0.304 -0.1583 -0.2751  0.2507
47130W        W65877   2.504  18.104  13.450 -0.1791  0.2539  0.0908
47131W        W65878   5.819   3.873   6.290 -0.0767  0.1660 -0.2285
47132W        W65879  16.784  24.320   3.705  0.3400  0.2395  0.0103
47133W        W65880  26.742  13.766  23.842  0.0757  0.1561  0.0458
47134W        W65881  22.800  27.349  15.638  0.0863 -0.4135  0.2114
47135W        W65882  10.645  12.621   4.073  0.0209 -0.0058  0.1675
47136W        W65883  30.531   7.804  24.895  0.0937  0.1293 -0.2157
47137W        W65884  18.905   2.589  19.888  0.0730 -0.3266 -0.2478
47138W        W65885   0.695  17.820  20.235 -0.1722 -0.0881 -0.0185
47139W        W65886  20.263  14.305  25.715  0.1897 -0.1750 -0.1893
47140W        W65887  14.734  15.725   9.437 -0.1416  0.1229 -0.1709
47141W        W65888  14.469   4.356  10.238  0.0993 -0.2053 -0.2265
47142W        W65889   0.188   0.556   5.657 -0.2502  0.1094 -0.1890
47143W        W65890  29.417  29.687   1.325 -0.0741 -0.0436 -0.1148
47144W        W65891  24.598   4.312   5.321  0.1774 -0.0887  0.3227
47145W        W65892  31.828  25.892  17.770 -0.0269 -0.1275 -0.1011
47146W        W65893  14.517  34.787  11.427  0.3329  0.1054 -0.0531
47147W        W65894  34.718  29.230  20.897  0.1753  0.0587 -0.2369
47148W        W65895  20.805  20.606   6.145 -0.4717  0.3307 -0.0199
47149W        W65896  27.982  31.293  14.073  0.3362 -0.1178  0.0346
47150W        W65897   7.661  16.119   7.827 -0.0881  0.1588 -0.0564
47151W        W65898  14.126  19.647   5.027 -0.3993  0.1085  0.1751
47152W        W65899  16.200   7.384   8.490 -0.1234  0.2320  0.0476
47153W        W65900  24.702   3.017  16.282 -0.2115  0.3265 -0.1908
47154W        W65901  12.262   6.826   7.032  0.1690 -0.4698  0.0360
47155W        W65902  23.205  30.935   0.468  0.1112 -0.3232 -0.1179
47156W        W65903  22.164  31.526  25.641 -0.3978 -0.2511 -0.0084
47157W        W65904   7.042  21.296  10.531  0.1279 -0.2998 -0.0617
47158W        W65905  23.700  33.443  13.068  0.1027  0.0687  0.0973
47159W        W65906  24.963  28.984  23.764  0.2724 -0.5197 -0.0506
47160W        W65907   6.647  34.128   5.649  0.0837  0.2586  0.0068
47161W        W65908  35.007  25.621  25.285  0.2115  0.2345 -0.2641
47162W        W65909  27.429   0.700   3.818  0.1923  0.1991  0.1386
47163W        W65910   6.644  21.604   6.174 -0.1847 -0.1661  0.0324
47164W        W65911  23.423  11.306   1.795 -0.0182 -0.0801 -0.1905
47165W        W65912  14.941  19.688   9.835 -0.3169  0.1097 -0.2089
47166W        W65913  28.514   3.232  11.388 -0.0755 -0.2400 -0.1113
47167W        W65914  18.347  25.762  25.647  0.1121  0.0026  0.0086
47168W        W65915   8.257  29.353   5.473 -0.0817  0.2916 -0.3632
47169W        W65916  30.973   0.338  14.342  0.0206 -0.1416  0.0869
47170W        W65917  31.663  20.052  24.502 -0.2032  0.2509 -0.0342
47171W        W65918   5.291  19.847  17.515  0.3063  0.2436  0.1176
47172W        W65919   5.957  26.616  10.805  0.0864  0.1427  0.0709
47173W        W65920   7.927  29.840  25.134 -0.1748 -0.0500  0.2685
47174W        W65921  15.277  19.378  25.580 -0.1962 -0.3596  0.1406
47175W        W65922  15.676  21.141  13.602  0.1378  0.2596  0.2859
47176W        W65923  28.727  22.322   6.845 -0.2161 -0.3050 -0.1544
47177W        W65924   9.253  24.939  13.001 -0.3012 -0.1575 -0.1773
47178W        W65925  25.344  32.499   5.240  0.0888  0.0661  0.0823
47179W        W65926   9.108   6.204   8.032 -0.0933 -0.2336  0.1829
47180W        W65927  17.760   9.035  25.409 -0.1351 -0.1061 -0.4627
47181W        W65928  17.614  33.005  20.749 -0.2469 -0.1620 -0.0140
47182W        W65929  20.928  18.318   0.110 -0.1945 -0.0183 -0.0010
47183W        W65930  22.535  32.387  25.222  0.1755 -0.0062 -0.0317
47184W        W65931   4.539   1.288  20.155  0.0193 -0.0076 -0.2244
47185W        W65932   9.636   2.978  21.508 -0.1329  0.3049 -0.2810
47186W        W65933   7.290  26.336   0.024  0.1669  0.0997  0.1300
47187W        W65934   8.090   6.630   9.635 -0.0442  0.3833 -0.2284
47188W        W65935  22.716   8.340  18.157  0.2371 -0.1746  0.0485
47189W        W65936  20.601  10.786   6.811  0.1843  0.0571 -0.0645
47190W        W65937  34.664   4.807  11.946 -0.0945  0.0876  0.2147
47191W        W65938  21.472  15.848  25.060  0.0893  0.1532 -0.1406
47192W        W65939   1.980   8.031  25.296 -0.0355 -0.1617  0.1571
47193W        W65940  17.746  27.901   1.348 -0.0838 -0.0603 -0.0494
47194W        W65941  23.568  15.793  20.602  0.1836  0.2545  0.1124
47195W        W65942  12.791  22.003  25.956  0.1233 -0.0860  0.1336
47196W        W65943  25.571  11.366   9.912  0.3414 -0.0589 -0.0716
47197W        W65944  10.165   8.393  14.078  0.2363 -0.1187  0.2635
47198W        W65945  13.717   1.700   6.911 -0.0158  0.0512  0.2827
47199W        W65946   4.855   5.961  19.227  0.2797 -0.0870  0.2508
47200W        W65947  23.017   2.204   1.783 -0.5101  0.0459  0.1749
47201W        W65948  13.192   1.911  23.121 -0.0470  0.1183  0.2726
47202W        W65949   6.561   9.966  22.956 -0.0982  0.1366 -0.2299
47203W        W65950  29.648  27.205  11.082 -0.1468  0.0953  0.0267
47204W        W65951  27.715  14.824  20.273 -0.2434 -0.0794  0.0393
47205W        W65952   1.845   5.131   2.727 -0.0808 -0.1882 -0.1290
47206W        W65953   9.691  19.842   6.972  0.4107  0.4799  0.0207
47207W        W65954  19.472   8.852  10.172 -0.1129  0.2877  0.0161
47208W        W65955   5.857   2.397  21.051  0.1776  0.0588 -0.1923
47209W        W65956  29.604  25.744  21.993  0.0717  0.2425  0.1049
47210W        W65957   6.131  34.812  21.731 -0.1080  0.2046 -0.1367
47211W        W65958   6.942  10.229  19.789 -0.3476  0.0175 -0.1009
47212W        W65959   0.633  10.368  21.996  0.0842 -0.1440  0.0442
47213W        W65960   3.841   3.701   4.569  0.2473 -0.0177 -0.0708
47214W        W65961   9.372   0.609  24.267  0.2939  0.3100  0.1855
47215W        W65962  28.416   4.462  19.983 -0.3720 -0.0783 -0.2490
47216W        W65963   0.224   8.335  17.145 -0.1630  0.0830 -0.0160
47217W        W65964   6.200   0.587   1.596  0.0216  0.0923 -0.0757
47218W        W65965   2.448  26.105  24.394  0.2263  0.0659  0.0549
47219W        W65966   7.608  28.524  16.660 -0.0629 -0.1641  0.3475
47220W        W65967  12.885  19.515  12.224  0.1241 -0.3777  0.3632
47221W        W65968  30.682  35.290  22.378 -0.0485 -0.0241 -0.1648
47222W        W65969  22.118  22.388  15.554 -0.0157  0.0623 -0.0708
47223W        W65970  17.503  12.285   2.485 -0.2752 -0.0903 -0.1788
47224W        W65971  34.491  17.619   7.303 -0.0654 -0.1005 -0.1684
47225W        W65972   9.677  28.048  15.819 -0.2018  0.1262  0.2085
47226W        W65973  18.557  16.514  25.210 -0.0058 -0.1437 -0.0937
47227W        W65974  19.424  18.728  19.585 -0.0480 -0.2132 -0.1058
47228W        W65975  21.198  22.011  20.835  0.5043  0.0861 -0.1750
47229W        W65976  13.294  13.155  11.278 -0.1970  0.1905  0.1601
47230W        W65977   7.466  16.268  21.739  0.2624  0.1160  0.2110
47231W        W65978   4.787  33.549   4.330  0.0089 -0.1520  0.0442
47232W        W65979  18.362   4.534   2.457 -0.0734 -0.1502 -0.0531
47233W        W65980  20.703  15.238  23.723 -0.1111 -0.3189  0.0298
47234W        W65981  21.111   5.019   0.251 -0.1259  0.0360  0.0714
47235W        W65982  31.611  22.528  17.351 -0.1200  0.0536  0.2745
47236W        W65983   5.649  32.887   8.002  0.3782 -0.0413 -0.1436
47237W        W65984  19.245  27.687  22.188 -0.0877  0.0945 -0.1374
47238W        W65985  27.441   7.367  16.046  0.0962 -0.0834 -0.0474
47239W        W65986   7.763   1.581  20.566  0.1532 -0.5371  0.1987
47240W        W65987   9.981   9.971  19.307  0.0003 -0.0776  0.0432
47241W        W65988  14.051  12.552  11.362 -0.2771 -0.1577  0.0788
47242W        W65989  31.591   5.442   1.514  0.1840  0.0656  0.0954
47243W        W65990  17.664  27.133  25.387  0.0269 -0.1242 -0.1831
47244W        W65991  26.643  29.481  21.611  0.0174  0.0091 -0.1647
47245W        W65992  28.139  23.739  11.876  0.4882  0.1315 -0.1187
47246W        W65993  19.792   8.056   2.204 -0.1089  0.2075 -0.0776
47247W        W65994   7.723  18.301   4.727  0.0374 -0.0618 -0.3378
47248W        W65995  15.557   4.121  26.158 -0.4785  0.1001 -0.0943
47249W        W65996  18.810  34.038   6.345 -0.0858 -0.0962 -0.2594
47250W        W65997   0.182   6.139  16.928 -0.0688 -0.4610  0.0339
47251W        W65998  27.347  35.347   4.993  0.2357  0.0493 -0.0501
47252W        W65999   7.464  32.232   6.797 -0.3018 -0.0924 -0.1460
47253W        W66000  22.773  15.801  20.226 -0.1301 -0.1120  0.1830
47254W        W66001  13.363   4.690   5.134  0.1100 -0.3840 -0.0188
47255W        W66002   8.225  32.149  25.921 -0.1743  0.1131 -0.1631
47256W        W66003  22.574  29.935   1.858 -0.3448  0.1988  0.1281
47257W        W66004  18.468  12.613  18.767  0.4658  0.2117  0.6271
47258W        W66005  14.060   3.353  19.718  0.0906  0.2935  0.0855
47259W        W66006  14.013  33.482  11.810  0.0028  0.0743  0.0322
47260W        W66007   2.205  11.772  13.115 -0.1517  0.1431 -0.0319
47261W        W66008  33.505   2.244   5.231  0.1444 -0.2396 -0.0024
47262W        W66009  11.295  31.780  24.691  0.1695 -0.1487 -0.2074
47263W        W66010   4.438  32.279   3.146  0.0508 -0.0839 -0.0237
47264W        W66011  30.670  30.243  22.507 -0.1197 -0.2386  0.1856
47265W        W66012  25.999   9.387  20.697 -0.3928 -0.2084  0.4032
47266W        W66013  34.694  30.015  15.594 -0.3105  0.1717 -0.0966
47267W        W66014   4.419   5.588  18.895 -0.1123  0.0969  0.1842
47268W        W66015  16.777  28.247  22.671 -0.3670  0.0941 -0.0721
47269W        W66016   7.925  25.783   4.495 -0.1368 -0.0834  0.1020
47270W        W66017  19.550  34.281  19.000 -0.1423 -0.1947  0.1046
47271W        W66018   7.368   0.205   7.547 -0.2272 -0.0988 -0.3746
47272W        W66019   0.151  18.084  18.977  0.1236  0.0942 -0.0315
47273W        W66020  24.249   5.259  16.762  0.1289 -0.2157  0.1432
47274W        W66021  19.551  31.484   0.085  0.0839  0.2256 -0.0306
47275W        W66022   4.618  25.705  11.611 -0.0229  0.0838 -0.3461
47276W        W66023  27.322  29.098  10.623  0.0037 -0.1250  0.1093
47277W        W66024   7.013  21.721   7.692  0.0364  0.0253 -0.0466
47278W        W66025  22.551  34.618  14.112  0.3127 -0.2876  0.0316
47279W        W66026  34.359  27.629  21.165 -0.1653 -0.0339 -0.0593
47280W        W66027  11.057  26.239   1.960  0.0068  0.2346  0.2151
47281W        W66028   7.839  28.938   1.830  0.0749 -0.2246  0.0418
47282W        W66029  21.849  24.290   0.758  0.1975  0.2673 -0.0564
47283W        W66030  30.072   5.007   0.847  0.1953 -0.3715 -0.3022
47284W        W66031  10.036  12.309   0.053  0.0177 -0.0191  0.1517
47285W        W66032   7.062  13.842  21.466  0.1727 -0.1987 -0.1683
47286W        W66033  12.288  23.213   4.193  0.0556 -0.1413  0.1941
47287W        W66034   2.423  13.650  21.726 -0.0918 -0.0984  0.0876
47288W        W66035  18.780  33.017   3.794 -0.3013  0.1387 -0.0572
47289W        W66036   2.129  15.687  23.280 -0.2460 -0.2269  0.0498
47290W        W66037  34.625  15.071  19.253 -0.0507  0.0939 -0.2014
47291W        W66038  23.380  11.816  14.414 -0.1358  0.0032  0.1356
47292W        W66039  29.184  12.519  20.395  0.0753  0.0352  0.0453
47293W        W66040   0.019   4.068   5.441  0.0388 -0.0388 -0.2624
47294W        W66041  22.763  29.751  21.157  0.1010  0.3640  0.0224
47295W        W66042  34.478   1.656   1.598  0.0400  0.0776  0.1802
47296W        W66043  33.576   1.885   0.469 -0.1103  0.3900  0.0318
47297W        W66044  15.716  14.375  21.638  0.0078 -0.0043 -0.3112
47298W        W66045  32.130   4.918  19.240  0.1948 -0.1971 -0.0674
47299W        W66046  32.944  22.081   7.298 -0.0912 -0.2121 -0.1030
47300W        W66047  29.449  18.233  14.747 -0.2296  0.3158 -0.0990
47301W        W66048  28.553  25.635  13.754  0.1624  0.0102 -0.0957
47302W        W66049   9.328  31.347   1.964 -0.1698 -0.0144 -0.2867
47303W        W66050  14.022  12.195  22.738 -0.1614 -0.5930 -0.3213
47304W        W66051   9.621  16.973   6.272  0.0551  0.1512 -0.2781
47305W        W66052   3.456  13.327  24.458  0.0044  0.0863  0.2908
47306W        W66053   5.694  34.068   8.616 -0.2099  0.2538  0.2303
47307W        W66054  18.775  20.789   1.884  0.0680 -0.1291  0.0550
47308W        W66055  19.832  19.775   6.747  0.1933 -0.1108  0.2387
47309W        W66056  25.634  19.243  10.596  0.2062  0.2244 -0.1677
47310W        W66057  22.163  16.498  13.876  0.2317  0.3090  0.1736
47311W        W66058  22.885   0.949  21.140 -0.0973  0.1879  0.2517
47312W        W66059  26.767  13.629  21.708 -0.0073 -0.3604 -0.2861
47313W        W66060  16.776  12.013  23.547  0.0182 -0.1595 -0.1212
47314W        W66061   8.671  34.853   6.781  0.1118  0.0949  0.1413
47315W        W66062   6.864   1.572  26.052 -0.3087  0.1213  0.1848
47316W        W66063  33.688  35.341  18.580  0.0058 -0.0088 -0.1806
47317W        W66064  11.795   0.087  21.014  0.1269  0.0245  0.2255
47318W        W66065  15.979  12.118   9.645 -0.0213  0.1629  0.0299
47319W        W66066  10.788  19.961   2.375 -0.2295  0.0627  0.4538
47320W        W66067  20.448   4.205  24.354 -0.2765 -0.1093 -0.0296
47321W        W66068  11.702  11.943  11.249  0.0444  0.1385 -0.5115
47322W        W66069   2.142  19.851  15.116 -0.1005  0.1006  0.0654
47323W        W66070   4.887   6.513   1.088  0.1461 -0.2227  0.1973
47324W        W66071   7.052   5.098  22.870  0.1386 -0.0409  0.1315
47325W        W66072   9.240  15.855   9.559  0.1223  0.0137  0.0823
47326W        W66073  10.889  17.727   9.012 -0.0102  0.1171  0.1463
47327W        W66074   3.203  29.723   8.168 -0.0088  0.1236 -0.3843
47328W        W66075  22.552  20.860  19.807 -0.0978  0.0824 -0.4765
47329W        W66076   4.845   5.310   2.299  0.4812 -0.0001 -0.2355
47330W        W66077  34.051   9.519  14.479  0.1521 -0.0234 -0.2113
47331W        W66078  20.212   7.871  22.492  0.3660  0.1164  0.0589
47332W        W66079  12.082   3.325  20.522  0.2367  0.0219  0.2301
47333W        W66080  31.190  13.011  23.482  0.0993  0.1112  0.4423
47334W        W66081  16.301   9.248   5.673 -0.2160 -0.0912 -0.0451
47335W        W66082  20.217  22.334  22.518 -0.3530  0.0114  0.1895
47336W        W66083   5.673   3.700   4.406 -0.0076 -0.0323  0.0445
47337W        W66084  13.803  32.429   3.474  0.0593  0.0398  0.0867
47338W        W66085   2.667  32.439   2.808  0.2407 -0.2583 -0.2258
47339W        W66086  10.040  12.484  18.516 -0.3098 -0.0211 -0.0802
47340W        W66087  11.112  15.391   8.853  0.0926  0.0160 -0.0198
47341W        W66088   5.258  27.371   3.288 -0.1238  0.1433 -0.1142
47342W        W66089  22.450  33.455  13.374 -0.3392 -0.1512 -0.2440
47343W        W66090  30.919  23.589   7.417 -0.1817 -0.1379  0.0301
47344W        W66091  33.936  23.174  10.560  0.1549  0.1833  0.1966
47345W        W66092  18.413  22.216   7.214 -0.0808  0.3674  0.0509
47346W        W66093  29.191  15.024  23.603  0.1976 -0.2362 -0.0297
47347W        W66094  10.772  18.258  26.123 -0.1491  0.2794  0.1284
47348W        W66095  25.471  10.283  13.987 -0.1568  0.0282 -0.1635
47349W        W66096  29.887  32.840   4.783  0.1289 -0.1347  0.0511
47350W        W66097  10.261  13.450  17.883 -0.2059  0.0320 -0.0819
47351W        W66098  34.654  10.527   9.027 -0.0843  0.0240  0.1767
47352W        W66099  23.167  12.855  13.798 -0.4157 -0.3613 -0.1157
47353W        W66100   9.217   8.841   7.553 -0.1510  0.1050 -0.0065
47354W        W66101  15.398  27.372  10.316 -0.1358  0.1085  0.1761
47355W        W66102  21.186   6.191  25.100 -0.1490 -0.0513  0.0406
47356W        W66103  21.136  33.511   1.046 -0.3102  0.3226 -0.0859
47357W        W66104   1.797  22.602  23.752  0.0883  0.0643 -0.3470
47358W        W66105  19.120  22.090   9.823 -0.1224  0.1636  0.0287
47359W        W66106  10.755  34.030  14.857  0.0053  0.2484  0.0403
47360W        W66107  12.517  29.586  11.033  0.3083 -0.1138  0.0071
47361W        W66108  17.649  34.138  23.527 -0.0433  0.2532 -0.0540
47362W        W66109   9.420   8.866   7.101  0.1134 -0.1617 -0.0270
47363W        W66110   0.182   5.966  19.839  0.1771 -0.2079 -0.0445
47364W        W66111  21.632   7.740  17.367 -0.1159  0.1465  0.1560
47365W        W66112   3.083  13.049  25.731 -0.2669  0.0875 -0.0447
47366W        W66113   3.630   7.693  21.902  0.3806 -0.0967 -0.0108
47367W        W66114  19.640  22.632   0.382  0.0270 -0.3143 -0.1953
47368W        W66115  29.233  10.969  21.343  0.1156 -0.1836 -0.0393
47369W        W66116  19.497  19.759   0.025  0.0309 -0.0431  0.0827
47370W        W66117   6.766  24.889   2.452 -0.1459  0.0730 -0.2263
47371W        W66118  35.184  20.860  15.133 -0.1024 -0.0015  0.0859
47372W        W66119   4.383  23.453   3.463  0.1559 -0.1655 -0.3330
47373W        W66120  13.881  13.167   2.508 -0.2423 -0.0676 -0.1391
47374W        W66121   7.982  33.447   8.672 -0.0874  0.1138 -0.0411
47375W        W66122  16.057  29.600  12.038  0.4937 -0.1717 -0.1158
47376W        W66123  32.150  18.304   7.761 -0.0202 -0.1800 -0.1510
47377W        W66124  13.644  20.317  12.829  0.1570 -0.0478  0.4062
47378W        W66125   6.779   4.783  12.009  0.0269  0.0638 -0.7406
47379W        W66126  22.434  23.934  19.712 -0.0228  0.4247  0.2268
47380W        W66127   0.702  29.772  16.342 -0.0526  0.0923  0.0513
47381W        W66128  16.545  22.071  23.271 -0.3980 -0.4079 -0.0718
47382W        W66129  10.385  28.364   6.521  0.3028  0.0319  0.1379
47383W        W66130  15.658  25.252   6.952  0.1343  0.5034  0.0014
47384W        W66131  21.550  22.006  17.642 -0.2480 -0.0093 -0.0939
47385W        W66132   4.929  25.575   4.468  0.1479  0.2881  0.0716
47386W        W66133   2.833   9.316  21.088 -0.2824 -0.1908 -0.1365
47387W        W66134  29.112  23.734  17.477 -0.1218 -0.3051  0.1594
47388W        W66135  15.942   9.536  21.571  0.1005  0.2118  0.2818
47389W        W66136   2.125  14.935  25.983  0.1784 -0.1476 -0.2878
47390W        W66137  30.528   7.335   1.851 -0.1720  0.0467  0.2331
47391W        W66138  34.975   6.497   3.913  0.3551  0.1900  0.0421
47392W        W66139  28.047   1.156  16.992 -0.2718  0.4337  0.2528
47393W        W66140   5.820  34.154   0.651  0.3052 -0.0767 -0.2637
47394W        W66141  27.535  17.241  25.280 -0.2334 -0.0358 -0.0076
47395W        W66142  28.415  20.488   8.765  0.2134 -0.2037  0.4149
47396W        W66143  24.658  11.136  21.791 -0.3757  0.1313 -0.0579
47397W        W66144  23.667  10.421  25.453  0.4729 -0.0174 -0.1520
47398W        W66145  27.227  29.884   1.730 -0.0308  0.1160 -0.3351
47399W        W66146  27.345  16.540  11.429  0.2992 -0.0563 -0.2105
47400W        W66147  21.533  26.371  24.107  0.1533 -0.1310  0.0617
47401W        W66148   4.486  10.517  22.080  0.1632 -0.3290 -0.1044
47402W        W66149  23.523   1.803   5.294  0.3481 -0.2879 -0.1859
47403W        W66150  18.876  10.786   8.668  0.2512 -0.1671  0.1210
47404W        W66151   8.424  27.714  23.787 -0.2146 -0.0676 -0.0952
47405W        W66152   0.650  20.913  14.615 -0.4170 -0.0734  0.3698
47406W        W66153  35.229  25.712   0.804 -0.0049  0.0038  0.0073
47407W        W66154  34.200  26.391  20.253 -0.1127  0.3192  0.0988
47408W        W66155   7.677  17.511   0.915 -0.2136 -0.1988 -0.0054
47409W        W66156  21.343  13.160  24.092  0.0719 -0.0281 -0.0539
47410W        W66157   6.592  29.707   3.406 -0.1136 -0.1240 -0.0499
47411W        W66158  20.229   8.382   7.561 -0.1982 -0.2112  0.0195
47412W        W66159  28.745   5.012  13.079  0.3157 -0.2820  0.3666
47413W        W66160  35.001  16.683   9.539  0.0634  0.2082 -0.0300
47414W        W66161  28.854  12.386  18.057 -0.0531  0.0349  0.1195
47415W        W66162   5.898  33.353   6.770  0.0235 -0.0476 -0.1832
47416W        W66163  19.346  10.492   1.877 -0.0541 -0.0471  0.2046
47417W        W66164  12.006  31.228  21.987  0.1891 -0.1163  0.0924
47418W        W66165  10.822  13.623  20.964 -0.0135 -0.0005  0.0810
47419W        W66166   8.635  12.090  20.610 -0.1644  0.1322 -0.1121
47420W        W66167  33.825   2.564  23.514 -0.3299 -0.0881  0.1437
47421W        W66168  20.414  33.475   1.741  0.1423 -0.0135 -0.1106
47422W        W66169  19.645  21.014  10.563 -0.1032  0.0786  0.0334
47423W        W66170  17.439  29.600   0.564  0.0485  0.0175  0.1576
47424W        W66171   5.176   5.209  22.555  0.0779  0.2541 -0.1964
47425W        W66172  22.001  26.354   0.503  0.2937  0.1299 -0.0813
47426W        W66173  10.651  33.993   1.080  0.1567  0.1299  0.1469
47427W        W66174   1.646   7.238   0.790 -0.1141 -0.1708  0.2298
47428W        W66175  29.830  27.829  10.423  0.0430  0.2339 -0.0879
47429W        W66176  32.987   3.356  13.208 -0.0683  0.3542 -0.0363
47430W        W66177   6.888   6.519   5.721  0.0679  0.0491  0.2471
47431W        W66178   1.274   1.007   1.128  0.0665  0.0001 -0.0841
47432W        W66179  33.766  26.060  25.684  0.1423 -0.1545 -0.3203
47433W        W66180  25.406   3.543  22.592 -0.0465 -0.1537 -0.0747
47434W        W66181  22.681  21.295  17.834 -0.0742 -0.1995  0.1246
47435W        W66182  18.610   8.548  24.678  0.0671  0.0626  0.0853
47436W        W66183  11.236  15.530  21.593 -0.1852  0.0641 -0.1261
47437W        W66184  27.482  25.708  24.987  0.1226 -0.1066 -0.1289
47438W        W66185   1.651   7.106  26.099 -0.0959  0.1657  0.1694
47439W        W66186   0.553   6.527   1.946 -0.4428  0.1660  0.0329
47440W        W66187   2.967  11.699  26.013 -0.1437  0.3791 -0.0323
47441W        W66188   8.051  21.110  22.977  0.2365  0.1159 -0.0791
47442W        W66189  19.180   0.168   8.611  0.1114 -0.0807 -0.0772
47443W        W66190  31.303  29.383  19.367  0.1981  0.0897  0.2323
47444W        W66191  20.761  22.317  18.463  0.0422 -0.0141 -0.1481
47445W        W66192  11.351  22.168   6.447  0.0465 -0.0374  0.0362
47446W        W66193  21.992  32.615  25.219  0.1386 -0.0683 -0.1733
47447W        W66194  25.447  12.958  22.194 -0.4340  0.1145 -0.0476
47448W        W66195   3.007  22.498   1.968  0.1874 -0.3070 -0.2131
47449W        W66196   1.706  34.079  18.212 -0.2208 -0.1402 -0.0836
47450W        W66197  23.248   4.667   5.848 -0.0381  0.0781 -0.0658
47451W        W66198  16.810   8.893  11.615  0.2027  0.0102  0.0204
47452W        W66199  20.165  34.289  21.737  0.0315 -0.0144 -0.0414
47453W        W66200  25.837   4.805  22.174 -0.1128 -0.1569 -0.1472
47454W        W66201   9.456  26.906   2.408  0.6068 -0.0482  0.3346
47455W        W66202   4.829   5.354  18.001  0.2169  0.1126 -0.1798
47456W        W66203   0.809  20.555  13.675 -0.0873 -0.1903 -0.2160
47457W        W66204  20.151  20.556   3.006  0.0455  0.0925 -0.1577
47458W        W66205  19.561  14.347  19.913 -0.1118  0.5039 -0.4355
47459W        W66206  26.343  18.908   0.717  0.0501 -0.3735  0.4549
47460W        W66207  10.750   0.510   9.436 -0.0039 -0.1265 -0.2984
47461W        W66208   3.766  25.194  20.904  0.2103 -0.0228  0.1466
47462W        W66209  24.900  10.363   0.400  0.0781 -0.0818  0.2172
47463W        W66210  23.428  24.095  24.876  0.2886  0.1425 -0.0720
47464W        W66211  25.702   6.704   0.922  0.0322 -0.1012  0.0756
47465W        W66212  24.517   0.348   5.141  0.0843 -0.0935 -0.1363
47466W        W66213   1.612  28.545   4.029  0.0351  0.0583 -0.0522
47467W        W66214  17.543  13.150   3.975  0.0145  0.2077 -0.3169
47468W        W66215  25.700  15.751   8.186  0.0792 -0.1151 -0.0714
47469W        W66216  31.098   9.571  24.566 -0.1310  0.1072 -0.1095
47470W        W66217   4.286  15.453   0.236  0.1005  0.0581 -0.0536
47471W        W66218  17.972  12.552  11.151 -0.1532  0.0514  0.0837
47472W        W66219  27.790  28.095   1.451  0.2451 -0.2576 -0.3555
47473W        W66220  15.480  11.404   8.052  0.2073  0.1314  0.1126
47474W        W66221  20.094   7.603   5.339 -0.1935 -0.0933 -0.0091
47475W        W66222  18.260   4.696   1.194 -0.1123 -0.2626 -0.0366
47476W        W66223  12.820   8.401  19.969 -0.2498 -0.0940 -0.0723
47477W        W66224  14.724  16.099   0.142 -0.3480 -0.0572  0.0202
47478W        W66225  19.788  33.035   8.878 -0.1605 -0.0377  0.1810
47479W        W66226  18.602  24.725  25.536  0.2013 -0.4530  0.1916
47480W        W66227   9.378   3.475  13.153  0.1013  0.4508 -0.0359
47481W        W66228  23.818  27.327   2.343 -0.1479 -0.1272  0.0758
47482W        W66229  16.630  29.107  22.282 -0.1314  0.1133  0.0476
47483W        W66230  12.586  30.924   3.070 -0.3044  0.0429 -0.1681
47484W        W66231   9.356  34.830  23.478  0.0035  0.0518 -0.1722
47485W        W66232  22.902  35.194  17.602  0.0291 -0.2249  0.0456
47486W        W66233  20.480  10.963  20.452  0.0052  0.1356 -0.2112
47487W        W66234   5.553   5.035   7.434  0.2242  0.1045 -0.0425
47488W        W66235   4.686  29.463  11.731  0.3277  0.6866 -0.1946
47489W        W66236   6.654  32.879   1.668  0.0157 -0.2252  0.2107
47490W        W66237  12.345   4.078   8.814 -0.1493  0.1488 -0.1408
47491W        W66238  19.866  11.053  24.410 -0.2194  0.2473  0.2143
47492W        W66239  34.612   3.249  22.271 -0.0604 -0.0064 -0.0043
47493W        W66240   6.198   6.557   0.415 -0.2382 -0.0683  0.1981
47494W        W66241   4.334  10.742  23.438 -0.1510  0.2262 -0.1961
47495W        W66242  33.528  24.575  11.310 -0.1622  0.5335  0.0708
47496W        W66243   5.241  28.610   0.494  0.2832 -0.3960 -0.0437
47497W        W66244   0.454  26.106   3.339  0.0252 -0.0032 -0.1440
47498W        W66245  18.111   4.965   2.167 -0.2361  0.2983 -0.1637
47499W        W66246  31.574  27.637  22.445 -0.0826 -0.2199 -0.2990
47500W        W66247  20.913  15.666  18.800 -0.0922  0.3826  0.1814
47501W        W66248  30.255  33.556  24.021  0.1406  0.0601 -0.3450
47502W        W66249   1.731   1.497   5.969  0.0647  0.1569 -0.0008
47503W        W66250   8.825   8.476  21.322 -0.2154 -0.0291  0.2682
47504W        W66251   1.717  25.424  21.997  0.3611 -0.3224 -0.0412
47505W        W66252  16.812  24.605   0.897 -0.0488 -0.2488  0.0603
47506W        W66253   6.507  29.681   0.616  0.2154 -0.2391  0.1696
47507W        W66254  34.416  19.067  12.644 -0.1767 -0.0020  0.0518
47508W        W66255   1.242  10.885  16.920 -0.0605  0.1364 -0.2369
47509W        W66256   6.084  27.033  12.898  0.3422 -0.0544  0.4505
47510W        W66257  22.255  29.345   5.914 -0.0685  0.0424  0.2402
47511W        W66258   5.401  22.462  20.159  0.3720  0.2460  0.0074
47512W        W66259  34.227   5.811  12.688 -0.2306 -0.0632 -0.1781
47513W        W66260  17.706  14.622   1.003 -0.0764  0.0416  0.0317
47514W        W66261   4.433  28.019   1.932 -0.4891 -0.0246 -0.0633
47515W        W66262  17.640  22.957   2.398  0.3589  0.2877  0.1493
47516W        W66263  13.381  16.428  25.327  0.1455 -0.0795 -0.1596
47517W        W66264  15.867  34.725   1.772  0.2865 -0.2017 -0.0899
47518W        W66265  11.590  28.543  12.645 -0.1306  0.0693  0.2443
47519W        W66266  15.803  16.095  23.974  0.2131 -0.1958 -0.2361
47520W        W66267   8.486  17.712   3.643 -0.2878 -0.0569  0.0881
47521W        W66268   3.880  14.438  19.756 -0.3387  0.0802 -0.3521
47522W        W66269   7.910  12.187   6.607 -0.3896  0.1657  0.1750
47523W        W66270  32.923  19.306   6.561 -0.2287  0.1075 -0.2063
47524W        W66271  26.586  27.045  10.347  0.2661  0.1511 -0.1317
47525W        W66272  23.399  18.528   0.968 -0.2011  0.0251  0.0004
47526W        W66273   2.358  13.290  20.936  0.2667  0.1557 -0.1658
47527W        W66274  15.741   7.522  13.624  0.1989 -0.3418 -0.0371
47528W        W66275  12.075  33.434   7.981  0.0242 -0.0723  0.2707
47529W        W66276  19.979  12.111   5.360 -0.1759  0.5622 -0.0027
47530W        W66277   4.841  18.999  20.207 -0.0021  0.0766  0.1413
47531W        W66278  12.798  19.518   7.359 -0.3214  0.2447 -0.1701
47532W        W66279  12.351  23.343  17.398  0.0572 -0.0373  0.2536
47533W        W66280  10.720  31.851  10.890 -0.0319  0.0584 -0.0113
47534W        W66281  34.421   9.610  18.790  0.1473  0.0338 -0.3877
47535W        W66282   6.301  23.986   5.862  0.1213  0.0987  0.2142
47536W        W66283  33.116  23.945  12.229 -0.0977  0.0439 -0.0058
47537W        W66284   4.370  32.866   8.073 -0.1503 -0.2312  0.0595
47538W        W66285  29.103  16.349  15.967 -0.0851 -0.2537  0.1245
47539W        W66286   1.456   5.843  17.236 -0.1266  0.3449  0.1385
47540W        W66287   5.961  15.154  25.692 -0.0092  0.0588  0.1151
47541W        W66288  26.619   9.211  24.275 -0.2646  0.2841 -0.0041
47542W        W66289   9.137   0.790  11.173  0.1452  0.1605  0.0461
47543W        W66290   3.297  30.136   7.911  0.1568  0.2296  0.3618
47544W        W66291  12.289   6.262   3.732 -0.0966  0.0027 -0.2006
47545W        W66292  34.663   5.352   3.309  0.2095 -0.2282  0.4041
47546W        W66293  15.426  20.501  24.020 -0.2760  0.0452  0.0537
47547W        W66294  19.773  31.984  22.098  0.1425  0.0651 -0.1914
47548W        W66295  13.512  26.498   3.683 -0.2218  0.0857 -0.2656
47549W        W66296  22.684  17.790  23.857 -0.1629 -0.3205  0.1731
47550W        W66297  21.514  18.676  21.779  0.3716  0.0244  0.0568
47551W        W66298   3.527  32.808  18.668  0.0306 -0.1738  0.3548
47552W        W66299  27.718   8.761  12.306 -0.3548 -0.3662  0.1108
47553W        W66300  19.131  24.672  21.598 -0.0255  0.1510 -0.2308
47554W        W66301  27.835   0.761  11.524  0.1985 -0.1942 -0.1746
47555W        W66302  29.022  19.379  11.007  0.0902 -0.1067 -0.3839
47556W        W66303  14.708  27.828   4.773  0.0998  0.0132 -0.0043
47557W        W66304  19.835   2.454  24.841 -0.1159 -0.2974  0.3851
47558W        W66305  33.677  19.019  24.659  0.1109 -0.2235 -0.0032
47559W        W66306  30.929   0.748  23.650  0.3808 -0.1181  0.0147
47560W        W66307  13.283  10.901   6.985 -0.2742  0.1499 -0.1488
47561W        W66308  16.654  33.613  25.593  0.0942  0.1796 -0.0792
47562W        W66309   3.192  34.408  23.680  0.2842  0.0798 -0.2014
47563W        W66310   9.887  17.985   0.942 -0.0776 -0.1430  0.1910
47564W        W66311  29.778  30.151  19.888  0.0013 -0.1307 -0.1233
47565W        W66312   4.238  28.122   6.135 -0.0928 -0.2670  0.1905
47566W        W66313  28.719  25.066  14.523  0.1525 -0.1143  0.2833
47567W        W66314  20.464   1.613   5.949 -0.3241  0.0206  0.0613
47568W        W66315  12.700  11.015  21.497  0.2915  0.3349  0.2802
47569W        W66316   7.550  29.143   2.150 -0.1253 -0.2519 -0.2068
47570W        W66317  30.366  31.492  23.333  0.1069 -0.3396 -0.0143
47571W        W66318  24.132  16.249  17.259  0.1235  0.0873  0.3033
47572W        W66319  33.918   2.947  23.219  0.0769  0.1856  0.2063
47573W        W66320  17.144  28.751  22.856 -0.0131  0.0073  0.5049
47574W        W66321   7.478   3.710   2.825  0.1493  0.1975 -0.1689
47575W        W66322  33.547  25.502   1.275  0.0241  0.1845 -0.0085
47576W        W66323   9.735  33.983  25.170 -0.2800 -0.1256  0.0485
47577W        W66324   9.286  28.575  15.950 -0.1751  0.1444 -0.2708
47578W        W66325  22.081   2.575  20.059 -0.0772  0.0753  0.0530
47579W        W66326  29.336   4.834  26.070  0.0369 -0.0745 -0.0756
47580W        W66327  16.178  25.041  14.348 -0.0747  0.1100  0.0777
47581W        W66328   8.003  29.416   4.186 -0.0168  0.2883  0.0143
47582W        W66329  14.014  11.046  14.094  0.3299  0.0459  0.1693
47583W        W66330  27.353   3.391  19.270 -0.0164  0.1130 -0.1181
47584W        W66331  12.218  22.924  13.510  0.2980  0.4371  0.0162
47585W        W66332  19.122  29.841  22.279 -0.1106 -0.1666  0.0555
47586W        W66333  18.833  34.491   6.271  0.1998 -0.0518 -0.1619
47587W        W66334  10.537  35.380  24.208  0.1058 -0.1005 -0.0350
47588W        W66335  19.838  34.119  25.809  0.2030 -0.1003 -0.3421
47589W        W66336  17.636   0.294  25.695  0.0099 -0.1289  0.0449
47590W        W66337  28.881   4.133   5.141  0.0260 -0.0135  0.0359
47591W        W66338  27.173   0.827   5.169 -0.2905 -0.3574 -0.2037
47592W        W66339   6.704  29.175  21.478 -0.2139 -0.1308  0.1012
47593W        W66340  12.776   6.222   3.079 -0.0425 -0.0874 -0.1864
47594W        W66341  15.011  14.474   3.441  0.1462  0.1743 -0.0681
47595W        W66342  14.092  15.489  24.027  0.1465  0.1070 -0.0006
47596W        W66343   7.119  28.441  14.069 -0.1713 -0.1066  0.2406
47597W        W66344  14.491  17.698  20.242 -0.0878  0.2700  0.1161
47598W        W66345  14.331  22.452  24.421 -0.1184  0.0097 -0.1795
47599W        W66346   4.844  33.741   2.247 -0.0263 -0.0460  0.1166
47600W        W66347  20.574  18.319  20.353 -0.2128  0.2470 -0.2016
47601W        W66348   0.980   5.482  24.413  0.2228  0.0342 -0.0981
47602W        W66349  25.554  34.588  25.631  0.0284 -0.0552  0.0468
47603W        W66350   2.031  28.216  17.862  0.1097  0.0811  0.1509
47604W        W66351  10.826  30.081  12.561 -0.3253  0.0275  0.1853
47605W        W66352  22.931  28.697  18.237 -0.1960 -0.0581 -0.0930
47606W        W66353  14.278  13.198   2.056 -0.0724 -0.0312 -0.0736
47607W        W66354  26.944  29.333  22.131  0.2171 -0.0383 -0.2105
47608W        W66355  12.742   0.493  22.104  0.2244 -0.1811 -0.0277
47609W        W66356  27.433  33.319  18.843  0.2528 -0.1331  0.2116
47610W        W66357  30.429  15.791   6.181  0.2303 -0.0363  0.0487
47611W        W66358  33.523  14.353  16.134 -0.3019 -0.0994  0.1114
47612W        W66359  31.008  11.547  17.542 -0.4078  0.1505  0.0585
47613W        W66360  25.856  15.848  22.487  0.2780  0.2638 -0.2388
47614W        W66361   1.726  22.099  20.548  0.2169  0.2976  0.1136
47615W        W66362   2.176  14.064   2.422 -0.2355  0.2114 -0.2253
47616W        W66363  11.294   4.059   3.650  0.2373 -0.2171  0.3968
47617W        W66364  21.931   0.702  15.254 -0.3375 -0.0952 -0.2618
47618W        W66365  24.496  25.909  13.930 -0.2327  0.0591  0.2241
47619W        W66366  16.956  34.967   2.448  0.1349  0.2902 -0.1293
47620W        W66367   8.257  19.042  20.772 -0.0968  0.0854  0.0023
47621W        W66368  11.787  13.477  10.331  0.1423  0.0779 -0.0331
47622W        W66369  24.078  19.612  21.738 -0.3104  0.1653 -0.1687
47623W        W66370   1.743  16.847  12.687 -0.0185 -0.2780  0.1468
47624W        W66371  25.633   9.301   0.949 -0.2262  0.0165 -0.1949
47625W        W66372  18.321  21.996   1.695 -0.1276  0.0310 -0.0682
47626W        W66373  35.289  17.429  10.699  0.2034 -0.1432  0.0339
47627W        W66374  21.141  29.690   0.698  0.0022  0.1004  0.1671
47628W        W66375  34.744   3.555  13.278 -0.2056  0.1506  0.2846
47629W        W66376  34.961  10.098  15.376  0.2826 -0.3814 -0.0697
47630W        W66377  19.137  24.932   0.519 -0.1679 -0.1561  0.1033
47631W        W66378  27.731   2.246  18.858  0.0709  0.1165 -0.3695
47632W        W66379   3.131  10.265   3.076 -0.0351 -0.1455 -0.3923
47633W        W66380  12.660   5.026   5.852  0.0779 -0.0933 -0.0318
47634W        W66381  17.302  23.259  10.974 -0.0972 -0.2556  0.2995
47635W        W66382  16.995  16.777   3.895 -0.0579 -0.2213  0.1950
47636W        W66383  20.095  33.075  21.364 -0.1005 -0.3963  0.0969
47637W        W66384  24.919  27.915  25.850  0.0196  0.0576 -0.2093
47638W        W66385   5.887  27.640   5.250 -0.2998 -0.3623  0.3984
47639W        W66386  19.607   2.442   9.098  0.1002 -0.2354 -0.0517
47640W        W66387   1.019  17.459  11.653  0.2175 -0.0992  0.1044
47641W        W66388  19.401  32.247  23.375 -0.1431  0.3197  0.2328
47642W        W66389  19.391  21.076  23.488 -0.2197  0.1024 -0.2456
47643W        W66390  19.491   5.556  25.333  0.0495 -0.2746 -0.0307
47644W        W66391   4.546  23.836  21.675  0.2213  0.1287  0.0340
47645W        W66392  31.693  28.214  14.468 -0.1556  0.0875  0.2077
47646W        W66393   6.716  17.991   5.723  0.0652 -0.3035 -0.0605
47647W        W66394  13.494  23.136   7.643  0.0374  0.0419 -0.2996
47648W        W66395   6.546  29.258  13.151 -0.1690 -0.2800 -0.0268
47649W        W66396  19.345  24.266  24.809  0.0646 -0.0294 -0.1073
47650W        W66397  29.364  11.747  18.276  0.2839 -0.2453 -0.0388
47651W        W66398  18.718  15.051  21.513  0.1012  0.2563  0.1392
47652W        W66399  29.517   8.970  19.906 -0.0295  0.0634 -0.0410
47653W        W66400  20.464  19.669   3.676  0.2064 -0.2710 -0.2159
47654W        W66401  17.215  19.475   6.700 -0.0323 -0.1293  0.3248
47655W        W66402   5.106  12.299  20.949  0.1976 -0.0727 -0.2150
47656W        W66403  14.308   2.534  20.844 -0.1060  0.0031  0.1122
47657W        W66404  13.200  23.958  14.542  0.0901 -0.2201  0.1415
47658W        W66405   5.827  27.549   4.558 -0.0110  0.0001  0.1342
47659W        W66406   9.191  33.455  15.257  0.2146 -0.0955 -0.0842
47660W        W66407  22.696   1.870  15.954 -0.1483 -0.4025 -0.1162
47661W        W66408  15.403  28.091   1.312 -0.0987 -0.1463  0.2598
47662W        W66409  28.170  25.758  18.768 -0.0865 -0.0979  0.0260
47663W        W66410  19.817  27.338  20.404  0.1892  0.1508 -0.1528
47664W        W66411  19.009   4.171  18.813  0.1783  0.1408 -0.0544
47665W        W66412  26.777  12.016   8.855  0.1769 -0.0133  0.0341
47666W        W66413  23.444  16.719   0.887  0.2444  0.1079 -0.2140
47667W        W66414   9.573   9.679  23.306 -0.1639 -0.0986  0.0933
47668W        W66415   9.568  12.806  12.166 -0.2193  0.0298  0.0350
47669W        W66416   7.819  21.305   3.407 -0.0962  0.1327  0.0569
47670W        W66417  34.250   1.527  24.137  0.1549  0.1858  0.0441
47671W        W66418  16.164  17.229  20.127 -0.0182  0.0911  0.0279
47672W        W66419   2.421  31.783   2.062 -0.0031 -0.1284  0.1817
47673W        W66420  32.872  32.698  26.043  0.2871 -0.1742 -0.1200
47674W        W66421  25.607  20.056   9.672  0.4250 -0.2769 -0.1125
47675W        W66422  27.087  10.375  17.992  0.4739 -0.3097 -0.0168
47676W        W66423  10.925   3.843  22.798  0.0328  0.0057 -0.0741
47677W        W66424  15.759  19.017   3.191 -0.1596  0.1488 -0.0357
47678W        W66425   0.058  26.815   0.894  0.2510 -0.0633  0.0165
47679W        W66426  32.479   3.186  22.904 -0.1681 -0.1173 -0.1854
47680W        W66427   3.659  25.806  22.058  0.1321 -0.1969  0.0821
47681W        W66428  11.412   7.892   3.698  0.0655 -0.0026  0.0244
47682W        W66429  33.430  16.976  22.087 -0.0328 -0.0505  0.1138
47683W        W66430  27.540  26.359  19.165  0.0390 -0.3485 -0.0311
47684W        W66431  27.605  28.701  12.067 -0.0062  0.0684  0.0649
47685W        W66432   7.093  18.771   4.732 -0.0117 -0.2953  0.0165
47686W        W66433  35.355  34.556   2.604 -0.0902 -0.0078  0.1301
47687W        W66434  22.386  32.445  23.375 -0.1230 -0.0730  0.1407
47688W        W66435  34.363  29.342  18.586  0.1618  0.0006  0.2552
47689W        W66436   5.524  28.391  10.675 -0.1933 -0.0065 -0.2302
47690W        W66437  28.922  11.223  14.156  0.2322  0.2653 -0.0669
47691W        W66438   6.338  24.064   0.850 -0.2056 -0.2785 -0.0189
47692W        W66439   1.052  19.978  24.333  0.1741 -0.2680 -0.2203
47693W        W66440  30.754  33.974  15.865 -0.3314  0.0208  0.1106
47694W        W66441  12.378  24.105   7.764  0.0731 -0.0572  0.0706
47695W        W66442   9.463  18.853  12.976  0.2601  0.0226  0.1968
47696W        W66443  31.520   4.996  20.595  0.1544  0.3029  0.2515
47697W        W66444  30.734   4.162  25.105 -0.0056 -0.1825 -0.2525
47698W        W66445  12.249   6.221   2.351 -0.1000 -0.0375 -0.2469
47699W        W66446  25.519  25.628   9.224  0.0292  0.2379 -0.0846
47700W        W66447  20.749  14.305  25.616 -0.4004  0.1231 -0.2487
47701W        W66448   4.309  20.581  21.001 -0.2025 -0.0326 -0.1105
47702W        W66449  27.017  23.310   6.550 -0.3317  0.5876 -0.1101
47703W        W66450   2.402  10.989  17.447  0.2207  0.1528  0.0921
47704W        W66451   7.404  19.157   1.004 -0.3375  0.0511 -0.1890
47705W        W66452  33.079  18.703   6.071  0.1588  0.1611 -0.1547
47706W        W66453   5.432  26.054   1.408 -0.0291  0.1299 -0.1220
47707W        W66454  16.795  13.842   9.911 -0.0187  0.0089  0.1105
47708W        W66455   2.400  30.500  21.033 -0.2155  0.1997  0.0430
47709W        W66456   3.510  13.026  18.235 -0.1712 -0.0851  0.2537
47710W        W66457  10.538   6.371  24.406  0.0803  0.0636  0.0685
47711W        W66458  27.616  20.162  25.597 -0.1643  0.0635  0.2586
47712W        W66459  21.954   6.716  20.146 -0.1570  0.0892  0.3102
47713W        W66460  11.412  35.332  24.264  0.0746 -0.1719 -0.1949
47714W        W66461  23.995  34.450   4.798  0.0271 -0.2189 -0.0933
47715W        W66462   6.055  23.964   8.065  0.0507  0.2400  0.1222
47716W        W66463   2.775  12.338  18.459  0.1546  0.3049  0.0626
47717W        W66464  21.016   3.965   8.916 -0.0855 -0.2093  0.2864
47718W        W66465  25.715   1.865  23.409 -0.0985 -0.1094  0.2658
47719W        W66466  12.532  26.316  14.846 -0.0096 -0.2405  0.0036
47720W        W66467  10.482   6.207  20.436 -0.2017  0.0547  0.1014
47721W        W66468   1.328  12.057  16.011 -0.4420 -0.4019  0.2141
47722W        W66469  20.839  27.322  20.700 -0.4366 -0.1204  0.1625
47723W        W66470   7.330  20.361   6.831 -0.0695 -0.1110 -0.1252
47724W        W66471  10.490  12.700  25.816  0.3199  0.0627  0.1223
47725W        W66472   4.297  27.766  20.107  0.1265 -0.2870  0.0813
47726W        W66473  11.610   9.790  23.394 -0.2315 -0.0990 -0.1049
47727W        W66474   2.771   5.934  16.206 -0.2044  0.0554 -0.0350
47728W        W66475   9.023   8.700   5.528  0.2553 -0.2458 -0.0439
47729W        W66476  26.374  33.730  21.450  0.0246  0.1990  0.1265
47730W        W66477   9.487   6.631  20.245  0.4520 -0.0118 -0.0081
47731W        W66478  10.067  14.372  10.374 -0.2043  0.0896 -0.0052
47732W        W66479  11.695  25.089  17.441  0.3743  0.0212  0.0509
47733W        W66480  23.251  32.117  25.845  0.1120 -0.1357 -0.0225
47734W        W66481  34.550  14.363  17.616  0.1217 -0.2687  0.0926
47735W        W66482  18.500   8.602   8.922  0.1449 -0.2380 -0.0746
47736W        W66483  32.697  23.602  10.691  0.2553 -0.2202 -0.1131
47737W        W66484  32.444  33.409   3.948 -0.3072  0.0029 -0.1696
47738W        W66485  11.822   1.325   9.616  0.1853  0.3326 -0.0632
47739W        W66486  28.114  30.778   5.536  0.0909  0.1118  0.1065
47740W        W66487  20.499   5.995   6.164 -0.1235  0.4441  0.1918
47741W        W66488  17.278  16.080   8.959  0.0756 -0.1080  0.0396
47742W        W66489  17.739   3.733  21.432 -0.1823  0.0047  0.2440
47743W        W66490  13.807  34.449   3.137 -0.0369  0.1671  0.0634
47744W        W66491   0.271  23.065  23.255  0.0387 -0.0732 -0.0023
47745W        W66492   2.481  32.522   8.346 -0.1290 -0.0625  0.0923
47746W        W66493   9.836  23.931   0.203 -0.1791 -0.1395 -0.0138
47747W        W66494  18.285  31.653   1.867  0.3357 -0.0260  0.0010
47748W        W66495  17.487  33.284   9.364 -0.1615 -0.2205 -0.0212
47749W        W66496  12.731  12.131  25.696 -0.1942  0.0756  0.1392
47750W        W66497  32.994  33.304  22.023  0.0155  0.3202 -0.1533
47751W        W66498  22.672  32.729  13.189  0.2055 -0.0075  0.0869
47752W        W66499  16.802  20.044   9.426  0.2189  0.2072 -0.2644
47753W        W66500  19.477  14.769   4.436  0.0954 -0.1913  0.0464
47754W        W66501  19.044  32.910  25.022 -0.1414 -0.3587  0.0802
47755W        W66502   8.922  30.699   0.388 -0.4000  0.1148 -0.1187
47756W        W66503  33.072  21.719  20.739  0.0375  0.0418  0.1027
47757W        W66504  31.123  32.610  23.131 -0.1313  0.1190  0.0165
47758W        W66505  28.414  34.553   0.621  0.0624 -0.2898 -0.3123
47759W        W66506  20.470  17.928  22.107  0.3397  0.0483 -0.1857
47760W        W66507  25.803   3.826  22.907 -0.0170 -0.1636 -0.1663
47761W        W66508  11.739  27.815   3.917  0.1501  0.3222 -0.2802
47762W        W66509  22.559  29.722  14.537  0.0719  0.2903 -0.0365
47763W        W66510  14.519   7.858  11.941  0.2229 -0.3435  0.1829
47764W        W66511  29.043   4.991  24.116  0.2359  0.1366  0.1927
47765W        W66512  23.228   5.590   5.682  0.1029 -0.0027 -0.2963
47766W        W66513  19.507  29.314  19.984  0.2056  0.0034  0.0149
47767W        W66514  28.276   4.408   1.207  0.0246  0.0174  0.0137
47768W        W66515  22.130   5.576  21.969  0.0794 -0.1608 -0.0875
47769W        W66516   2.394   1.163  17.588  0.2415  0.0932 -0.2231
47770W        W66517  33.537   4.447   6.117  0.0105  0.2155 -0.0716
47771W        W66518  13.963  27.037   0.372 -0.2118 -0.0985 -0.0778
47772W        W66519  17.405   6.773   6.637  0.1684 -0.2741 -0.0630
47773W        W66520  34.758  32.799  16.834  0.1978  0.0435 -0.0956
47774W        W66521  19.570  11.878  23.416 -0.1373 -0.4554 -0.2313
47775W        W66522  14.662  14.855   4.886 -0.0769  0.1659  0.4670
47776W        W66523   8.927   4.928   5.852 -0.2012 -0.0676  0.1065
47777W        W66524  23.532  25.977  11.199 -0.0879  0.0504  0.0290
47778W        W66525   9.896  30.360  21.671  0.0563 -0.0712  0.0760
47779W        W66526   2.143   4.550   4.480  0.1258  0.0443  0.1038
47780W        W66527  32.467  19.503  10.804 -0.3980 -0.3210 -0.1455
47781W        W66528  18.316  10.890   7.923  0.1018  0.0385  0.3603
47782W        W66529  25.752  11.327  22.700 -0.1730 -0.0268 -0.2401
47783W        W66530  27.661  26.923  14.769  0.0235  0.1185  0.0925
47784W        W66531  31.768  23.062  13.110  0.1143  0.2827  0.2520
47785W        W66532   8.886  15.387  19.968  0.5838  0.0204  0.1032
47786W        W66533  33.380  26.139   1.969 -0.0850  0.2748  0.2368
47787W        W66534  22.863   5.689  19.250  0.2027  0.0601  0.0248
47788W        W66535   9.750  10.388  13.615  0.1968  0.1338 -0.1599
47789W        W66536  17.556   0.795  25.600 -0.1953  0.4178 -0.4419
47790W        W66537  24.589  15.294  25.539 -0.0958  0.0939  0.1444
47791W        W66538  20.134  17.982   1.363  0.0996  0.0039 -0.0086
47792W        W66539  32.419  31.261  25.942 -0.3018 -0.0909 -0.1652
47793W        W66540  11.191  18.153   7.341 -0.2022 -0.0712  0.1808
47794W        W66541  33.674  33.437  19.099  0.2776 -0.1589 -0.0758
47795W        W66542  33.533   9.510  14.714  0.1299  0.0427 -0.1338
47796W        W66543  30.960  10.174  17.374  0.0507  0.1135  0.1841
47797W        W66544  23.215  10.000  21.642 -0.2198  0.1876  0.3593
47798W        W66545  17.082  32.423  20.565  0.2031 -0.0083 -0.1220
47799W        W66546  24.513  14.855  20.777 -0.0074  0.1826  0.0857
47800W        W66547  14.213  19.603  25.108  0.0648 -0.0088  0.0227
47801W        W66548  28.205  21.837  13.417  0.0502 -0.0067  0.2468
47802W        W66549  29.969   8.174   8.107  0.0139  0.2465  0.0458
47803W        W66550  19.460  19.649  23.709 -0.1217  0.1454  0.3190
47804W        W66551  23.598  30.756  17.840  0.0970 -0.3836 -0.3181
47805W        W66552  18.726  15.501   0.801  0.1195  0.2044  0.0440
47806W        W66553  29.186   4.030  11.110 -0.0559  0.0877  0.1296
47807W        W66554   3.962  32.304   0.853  0.0241 -0.0394  0.0327
47808W        W66555  20.623  20.794  25.519  0.1311  0.1166  0.0505
47809W        W66556   1.451   9.857  25.713  0.2482 -0.1193  0.1033
47810W        W66557  17.155  16.787   0.244  0.2093  0.2557  0.2684
47811W        W66558   8.176  34.684  25.120 -0.0889  0.3746  0.0686
47812W        W66559  29.711  12.828   4.776  0.2717 -0.1299 -0.2740
47813W        W66560  17.585  25.191   0.754  0.0710  0.0082  0.1039
47814W        W66561  12.261   6.640  22.453  0.2054  0.1287 -0.0013
47815W        W66562   8.405   3.263   6.618  0.1202  0.4243  0.1966
47816W        W66563  34.407  17.236  19.477  0.0545 -0.0060 -0.2641
47817W        W66564  13.126  27.539   3.803 -0.0246  0.1017  0.1345
47818W        W66565  30.248  28.350  17.160 -0.1770  0.1740 -0.0045
47819W        W66566  13.154  31.453   6.848  0.3730 -0.1559 -0.0417
47820W        W66567  27.851  31.471  24.351 -0.1277  0.0471 -0.3506
47821W        W66568  14.075  17.835  22.860  0.0177  0.0640 -0.0096
47822W        W66569  33.285  28.620   4.514  0.5361  0.2533  0.1286
47823W        W66570  32.361  12.041   9.015 -0.0080  0.0994  0.0581
47824W        W66571   2.693   8.124   1.887 -0.0959  0.0546 -0.1248
47825W        W66572  11.706  30.415   7.747  0.0276  0.1415 -0.1394
47826W        W66573  15.321  21.936   3.987 -0.3413  0.1338 -0.5434
47827W        W66574   0.589  30.447  18.535 -0.1318  0.0119 -0.0271
47828W        W66575   3.241  21.304   3.281  0.4861 -0.1372 -0.0761
47829W        W66576   1.409  20.737  22.990  0.3510 -0.2997  0.0461
47830W        W66577  11.813   6.342  11.545  0.1195  0.1025 -0.0038
47831W        W66578  32.378   2.168   3.372 -0.1298  0.1264 -0.0032
47832W        W66579  34.736   1.202   5.670  0.0402  0.1168 -0.1659
47833W        W66580  28.575  30.099  11.620  0.1612  0.0060  0.0369
47834W        W66581  11.266   6.810  20.083  0.3039 -0.2547  0.2670
47835W        W66582   6.657   3.853  12.699 -0.0400  0.0423  0.0168
47836W        W66583   0.293  17.865   8.383  0.0279  0.2878 -0.0221
47837W        W66584  30.910  14.780   9.055 -0.0556  0.0689  0.4613
47838W        W66585  13.292  18.879   7.002 -0.2458 -0.1208  0.0773
47839W        W66586  34.122   2.251  23.020 -0.0645  0.1017 -0.3473
47840W        W66587   3.582  14.612  15.593  0.3763  0.1501  0.1928
47841W        W66588  13.839  31.634   2.730  0.2794  0.2883  0.2278
47842W        W66589   5.797   7.175  24.254  0.2395  0.0469  0.0352
47843W        W66590  33.778  22.951  25.995  0.1800 -0.0321 -0.1976
47844W        W66591  27.059   8.715  11.711  0.3071 -0.0306  0.1422
47845W        W66592  21.732  27.956  23.796 -0.1922  0.1476 -0.0950
47846W        W66593  19.386   7.106  24.470 -0.0489  0.4579  0.0875
47847W        W66594  13.098   0.102  21.592 -0.0017  0.0503  0.0112
47848W        W66595   8.020  17.434  12.237 -0.0192  0.2755 -0.2663
47849W        W66596  28.797  34.166   4.561  0.2339  0.0991  0.0912
47850W        W66597  35.360  14.024  21.066  0.3074  0.0043 -0.0484
47851W        W66598   6.579   8.714   1.329  0.1135 -0.3066  0.0588
47852W        W66599  13.954  17.187   0.558 -0.0726 -0.0461 -0.1518
47853W        W66600  25.796  16.388   6.105  0.0750  0.1175  0.1846
47854W        W66601  11.065   2.563   8.636  0.0912 -0.0595 -0.1406
47855W        W66602  15.556  30.203  21.692 -0.0423 -0.0987  0.1617
47856W        W66603   1.231  27.820  22.899 -0.0974  0.1889 -0.2078
47857W        W66604  27.351  25.298   9.862 -0.3175  0.1641  0.5070
47858W        W66605  24.536  31.428   4.936  0.3213  0.2285 -0.5836
47859W        W66606  13.629   8.170   2.949 -0.0738 -0.3441  0.1669
47860W        W66607  32.916  14.786   8.917 -0.0537 -0.0664 -0.1799
47861W        W66608  14.082   1.734  21.039 -0.0281 -0.2172 -0.0379
47862W        W66609  25.714  13.019  17.382 -0.1821  0.1198 -0.0625
47863W        W66610  30.950  11.426  25.565  0.1168 -0.1470 -0.1948
47864W        W66611  20.992  33.035   4.084 -0.1046 -0.1491  0.0808
47865W        W66612   4.769   5.830   6.564  0.2953  0.2724 -0.0560
47866W        W66613  25.546  21.592  22.542  0.0096  0.0923 -0.1685
47867W        W66614  14.657  11.567  24.674 -0.1812  0.0124  0.3273
47868W        W66615  17.916  19.844  22.709 -0.0246  0.0463 -0.0263
47869W        W66616  23.557  24.382  20.767  0.0207 -0.1147  0.0705
47870W        W66617  33.030  31.579   3.231 -0.2955 -0.1258 -0.2256
47871W        W66618   1.558  12.510  14.216  0.0514  0.0034 -0.0774
47872W        W66619   9.054   0.432  13.212 -0.1261 -0.0605 -0.0788
47873W        W66620   4.200  34.248   1.806  0.2908  0.0990  0.0263
47874W        W66621  18.807  10.431  22.034 -0.0381  0.0639 -0.2509
47875W        W66622  25.620  17.832   0.104  0.4539 -0.1046 -0.1471
47876W        W66623   9.965  14.553  13.153 -0.0640  0.0748 -0.0353
47877W        W66624   7.565  21.153  22.600  0.0407  0.0715  0.0512
47878W        W66625  34.321  34.740  18.297  0.2050  0.0125  0.1694
47879W        W66626  15.036  19.539  10.314  0.3044  0.0373  0.0164
47880W        W66627  24.223   5.073   2.588  0.2434 -0.0620 -0.0211
47881W        W66628  12.016  33.214  25.897  0.1434  0.1028  0.1155
47882W        W66629  22.550  34.388   5.260 -0.0023  0.1331 -0.0388
47883W        W66630  21.983   2.544   1.488 -0.0850  0.1460 -0.1495
47884W        W66631  19.001  17.689   0.867  0.0431 -0.0754  0.0939
47885W        W66632   4.922  30.356  12.154  0.0038  0.1037  0.1194
47886W        W66633  12.068  22.802   2.609 -0.1863 -0.0657 -0.0877
47887W        W66634  17.604  27.632  21.717 -0.1777 -0.2546  0.0721
47888W        W66635  17.650  11.113   2.723  0.0983 -0.3342 -0.1993
47889W        W66636  11.848  18.977  22.197 -0.1303 -0.1875  0.1619
47890W        W66637  29.332   6.854   9.657 -0.0288  0.1283  0.0456
47891W        W66638  20.341   9.464   1.604  0.1793  0.1879 -0.2846
47892W        W66639  32.210  15.613  18.330  0.4701  0.1500  0.3309
47893W        W66640  34.140  14.430  22.606  0.1988 -0.0068  0.0223
47894W        W66641  17.611  13.499   8.469 -0.1079  0.2276  0.1772
47895W        W66642  27.344  20.925   4.908  0.2063 -0.2255  0.0715
47896W        W66643  14.097  26.385  22.130 -0.4042  0.1609 -0.2596
47897W        W66644  24.625  23.092  13.161  0.2364  0.1666  0.3970
47898W        W66645  31.691  26.457  14.456  0.2710 -0.2184 -0.1028
47899W        W66646  22.428  17.814  15.377 -0.1937 -0.0879 -0.4080
47900W        W66647   4.754  14.800  25.343 -0.2390  0.0678  0.0812
47901W        W66648  32.218  30.785  21.141 -0.1081  0.0969  0.0595
47902W        W66649  32.310  24.613  15.372  0.3543 -0.0698 -0.0491
47903W        W66650   7.340  31.007   0.540 -0.2394 -0.2448  0.1596
47904W        W66651   1.240  34.056   3.415  0.2250  0.1275 -0.0763
47905W        W66652  15.607  29.559  22.451 -0.0511  0.1351 -0.3239
47906W        W66653  34.171  31.160   3.155 -0.1106 -0.1613  0.2195
47907W        W66654  33.020  16.741   0.338  0.4375  0.1652 -0.0106
47908W        W66655  15.673   2.985  19.110 -0.2076 -0.0151  0.1071
47909W        W66656   6.164  32.891   3.672  0.1427 -0.2498 -0.2818
47910W        W66657   2.284   1.212   6.029  0.1149 -0.2321 -0.1282
47911W        W66658  23.571  14.572  17.531 -0.2905  0.0150  0.1046
47912W        W66659  17.094  18.253  13.117 -0.1602  0.0845 -0.0087
47913W        W66660   2.767  14.799  22.091  0.0592  0.2017 -0.0645
47914W        W66661  24.004  17.004  22.480 -0.0792  0.1559 -0.0742
47915W        W66662   8.166  14.059   1.103  0.0194 -0.1396  0.2508
47916W        W66663   5.568  25.875  25.816  0.2977 -0.0450 -0.0811
47917W        W66664   3.926  17.467   3.533 -0.1366  0.1493 -0.2365
47918W        W66665  10.347  18.349   6.174 -0.2472 -0.2343  0.1336
47919W        W66666  30.787   9.325  11.607 -0.0710 -0.1187  0.1233
47920W        W66667  26.026  12.101  17.832 -0.1450 -0.1239 -0.2954
47921W        W66668  19.295  17.867   0.381 -0.2232 -0.1435  0.3787
47922W        W66669   2.665  33.661  21.413 -0.2446 -0.0403 -0.1255
47923W        W66670  16.021  31.621   4.765 -0.1533  0.1048 -0.1744
47924W        W66671   8.501   1.766  12.831 -0.3044 -0.1970 -0.1031
47925W        W66672   2.060  16.882  22.929 -0.1628  0.1399 -0.0433
47926W        W66673  10.881   8.654  23.749 -0.1806 -0.0068  0.1317
47927W        W66674  35.317  20.273  24.731  0.3014  0.0210  0.1078
47928W        W66675  25.272   2.008   5.867 -0.3543 -0.4668  0.3257
47929W        W66676   0.419  22.429  25.996 -0.0230 -0.0997  0.1257
47930W        W66677   1.894  26.497  20.635  0.3165  0.0013  0.0746
47931W        W66678  14.841  15.175   5.741 -0.2478  0.1441 -0.3144
47932W        W66679  34.981   1.168  14.787  0.4479 -0.0280 -0.0135
47933W        W66680  14.910  28.997   2.281  0.3851 -0.0236  0.0614
47934W        W66681   4.610   7.562  21.781 -0.0020 -0.0409  0.1831
47935W        W66682  16.454   1.688   5.298  0.3764 -0.2943  0.1656
47936W        W66683  10.890  10.207   6.847 -0.2249  0.0219 -0.1422
47937W        W66684  33.591   0.846  25.237  0.0099  0.1962 -0.0329
47938W        W66685  22.473  13.215   1.010  0.0631  0.3582 -0.0658
47939W        W66686  19.359  15.254  23.327 -0.0206 -0.2754 -0.3509
47940W        W66687  15.780   0.287   8.410 -0.1027 -0.0577 -0.0751
47941W        W66688  24.116   2.651  14.459  0.1907 -0.0418  0.0893
47942W        W66689  33.914   3.371  20.476 -0.1143  0.0773  0.0101
47943W        W66690   6.807  23.541  24.883 -0.2706 -0.1945  0.0530
47944W        W66691  12.182  10.975  23.635 -0.0205 -0.1361  0.2333
47945W        W66692  26.174   8.847  25.225 -0.0989  0.0949 -0.1235
47946W        W66693  29.474   8.158  23.802  0.4563  0.0799  0.0590
47947W        W66694  19.003  18.934  23.122 -0.1945  0.0980 -0.0417
47948W        W66695  28.080   4.475  15.031 -0.0230 -0.2692  0.0221
47949W        W66696   1.854  27.310   3.814  0.2395 -0.0066 -0.4246
47950W        W66697  14.780  19.384  20.600 -0.0238  0.0308  0.0901
47951W        W66698  31.627   5.604  15.085  0.1030 -0.1683  0.1168
47952W        W66699  22.584   8.327  18.622 -0.2765 -0.0369 -0.1275
47953W        W66700  13.564  32.555   0.457  0.0958 -0.0460  0.2051
47954W        W66701  32.426   2.067   6.176  0.0028 -0.2518  0.3905
47955W        W66702  35.240  35.286   4.416  0.1459  0.0311  0.0700
47956W        W66703  19.446  32.256   3.755  0.4034  0.0792 -0.0671
47957W        W66704   3.779  18.509  23.724  0.0429 -0.0983 -0.0324
47958W        W66705  23.022   9.959   2.273 -0.1041  0.1650 -0.0311
47959W        W66706   2.093  26.332   6.544 -0.1169  0.1328 -0.0692
47960W        W66707  30.710  33.357   2.518 -0.3142 -0.2017  0.2549
47961W        W66708   6.448   1.459   0.650  0.1504  0.0591 -0.1374
47962W        W66709  21.950   0.531   5.577 -0.0838 -0.2998 -0.1584
47963W        W66710   6.884   1.132  20.535 -0.6030 -0.0788  0.2154
47964W        W66711   5.198  30.253  19.790 -0.2319  0.0239  0.1780
47965W        W66712  26.888  10.854  23.657 -0.0963  0.0006 -0.1498
47966W        W66713  20.398  19.575   5.861  0.0372  0.1178 -0.0936
47967W        W66714   9.049  21.454   6.609  0.1861  0.0019 -0.0215
47968W        W66715   1.769  19.299  21.663 -0.0438  0.1859 -0.1073
47969W        W66716  23.840  24.481  21.826 -0.0854  0.1065  0.0114
47970W        W66717  12.421  24.728  10.787 -0.0410 -0.0752 -0.0239
47971W        W66718  32.417  30.565   4.600 -0.0469  0.0691 -0.2030
47972W        W66719  27.685   9.803  14.307  0.3125  0.0831 -0.0333
47973W        W66720  20.721  19.992  22.660 -0.1858  0.0083 -0.0559
47974W        W66721  10.408  26.322  12.243  0.0344  0.0685 -0.5094
47975W        W66722   5.700  21.056   0.098 -0.1205  0.0923 -0.1363
47976W        W66723  24.780  17.451  10.382 -0.0273  0.2820  0.1829
47977W        W66724   1.487  32.247  25.708 -0.2854  0.1671 -0.0914
47978W        W66725  11.863   9.628  26.004 -0.2142  0.1377 -0.0930
47979W        W66726  19.207  28.355  19.197 -0.0833 -0.3110  0.0661
47980W        W66727  28.569   0.541  23.172 -0.2473  0.0291  0.2368
47981W        W66728  13.394   7.957  23.646  0.2666  0.2390 -0.1760
47982W        W66729  26.589  12.138  24.112 -0.3917  0.2223 -0.2540
47983W        W66730   8.769  24.357   0.930  0.2217  0.3935 -0.0872
47984W        W66731   4.651   1.664  11.272 -0.1563 -0.3217  0.2276
47985W        W66732  21.799  27.996   5.988  0.1216  0.0133 -0.1790
47986W        W66733  27.695  21.714  21.047  0.0349  0.4915  0.0387
47987W        W66734  11.439  20.828  13.528  0.1155 -0.1279  0.2928
47988W        W66735   6.155  15.109   2.816  0.3053 -0.2670 -0.0386
47989W        W66736  16.620   2.018  20.313  0.3457  0.1430  0.0339
47990W        W66737  26.898   8.604  20.314 -0.1334 -0.1829 -0.2739
47991W        W66738  17.022   5.807  17.168  0.1314 -0.0162  0.2499
47992W        W66739   6.114  10.562  19.551 -0.1175 -0.0204 -0.1219
47993W        W66740   5.134  32.083  22.023 -0.2495  0.1439  0.1302
47994W        W66741  29.708  30.212  10.946 -0.0034  0.1394 -0.0689
47995W        W66742  12.727  34.272   9.184  0.0866 -0.3615  0.1304
47996W        W66743  27.608   7.435  14.805  0.0610 -0.3332  0.0326
47997W        W66744   3.986  30.366  12.311 -0.1287  0.1439 -0.0572
47998W        W66745  24.802  34.920  20.446  0.2413 -0.1141 -0.1165
47999W        W66746  35.221  12.479  19.342  0.2276 -0.0176  0.1209
48000W        W66747  22.712  19.626  13.335  0.2907  0.0261  0.2127
48001W        W66748   6.572  32.881  22.389  0.8474  0.1077  0.3227
48002W        W66749  25.754  12.927   9.476 -0.2798  0.2876 -0.2543
48003W        W66750  25.161  20.730  20.497  0.0403  0.0389 -0.0530
48004W        W66751  10.303   9.793   2.046  0.0870  0.2146 -0.2145
48005W        W66752  33.382  10.485  23.069 -0.0669  0.2302  0.1711
48006W        W66753   4.717  14.260   2.641 -0.1242  0.1481 -0.0778
48007W        W66754   5.455  28.241   9.425  0.0600  0.0254  0.1245
48008W        W66755  31.265   9.723  16.092  0.0274  0.0770  0.1034
48009W        W66756  14.191   9.325  19.651  0.0975 -0.0288  0.0276
48010W        W66757  23.731  28.529   1.907  0.0414 -0.2032 -0.0317
48011W        W66758  10.825   4.591   6.706  0.3374 -0.1172 -0.0941
48012W        W66759  17.987  27.088   5.117 -0.1268 -0.1076  0.0837
48013W        W66760  26.382   8.269  15.033  0.2828  0.0169  0.0841
48014W        W66761  14.165  28.618   0.260 -0.3202  0.2873  0.1233
48015W        W66762   7.871   7.398  19.472 -0.1259 -0.1519  0.0856
48016W        W66763  15.084  20.549   5.331 -0.0016  0.1692 -0.4232
48017W        W66764   3.420  30.446  24.862 -0.3464 -0.1981 -0.0862
48018W        W66765   0.161  33.260   6.216  0.1163  0.0021  0.1099
48019W        W66766   3.935  27.314   0.572 -0.1397 -0.2071 -0.2184
48020W        W66767  25.007  22.485  21.144  0.1616  0.0834  0.1240
48021W        W66768   0.363  18.887  18.055 -0.0730 -0.1387 -0.0260
48022W        W66769  29.492   0.353   4.874  0.1776 -0.0311  0.2500
48023W        W66770   7.977  10.645  20.496  0.4485 -0.4077 -0.0228
48024W        W66771  18.869  16.972   6.928 -0.2814 -0.1954 -0.2447
48025W        W66772   8.711  28.859  24.545  0.0114 -0.0686  0.0682
48026W        W66773  30.791  23.107   7.299 -0.0257  0.0339  0.2705
48027W        W66774  18.393  12.831  26.064 -0.1044  0.1362  0.2030
48028W        W66775  14.281   3.836   7.281 -0.0641  0.2226  0.1692
48029W        W66776  12.958  13.748   0.291 -0.0739  0.1988  0.1078
48030W        W66777  31.916  30.930  14.216  0.0237  0.0603 -0.0469
48031W        W66778  24.721  16.859   8.039 -0.0997  0.0485 -0.0701
48032W        W66779  33.882   9.275  17.427  0.1649 -0.0012  0.1022
48033W        W66780  14.505  28.690  15.191 -0.0282  0.1527  0.2833
48034W        W66781   9.314  15.260  21.936  0.1712  0.1943  0.1262
48035W        W66782  16.850  19.866   1.107  0.3103  0.1249  0.2012
48036W        W66783  34.354  26.141  17.893 -0.2207  0.1356 -0.0070
48037W        W66784   3.156  32.903   9.894  0.2620 -0.1327  0.2539
48038W        W66785  26.946  22.378   6.780 -0.1440  0.1669  0.0301
48039W        W66786  34.924   0.831  19.164 -0.0270 -0.1484  0.1178
48040W        W66787   7.199   6.478   9.286 -0.0527  0.1557  0.1805
48041W        W66788   6.675   1.729  24.644  0.1712 -0.1259 -0.1697
48042W        W66789   2.314  17.499   3.001  0.1626 -0.0281 -0.1580
48043W        W66790   9.403  24.831  16.506 -0.0761 -0.1664  0.2732
48044W        W66791  26.169  30.646   5.250 -0.2444 -0.0945 -0.4365
48045W        W66792   1.034   9.355  20.940 -0.0379  0.3127  0.1896
48046W        W66793  32.538  13.147   6.369 -0.3693  0.0546 -0.0526
48047W        W66794   4.809  31.612   0.208 -0.0825 -0.3844  0.2269
48048W        W66795  31.210  22.748  11.006 -0.2929  0.2537  0.1089
48049W        W66796   6.056  29.484  24.819  0.0426  0.1283  0.1180
48050W        W66797  10.527  12.726  12.192 -0.2281  0.1433  0.0855
48051W        W66798  27.362  20.751  17.540 -0.0141  0.2136 -0.1140
48052W        W66799   0.408  28.409  16.681  0.1518  0.3428 -0.3568
48053W        W66800  13.498   3.978   4.140  0.0358 -0.1586 -0.3899
48054W        W66801  10.153   7.508  24.045  0.0170  0.1699  0.0621
48055W        W66802  23.644   9.721  17.866  0.0247 -0.0768  0.2010
48056W        W66803   5.004  19.605  17.159 -0.2502  0.0264  0.0853
48057W        W66804  23.520  13.654  18.922  0.0629 -0.1120 -0.0529
48058W        W66805  29.731  22.762   5.802 -0.1577  0.0015  0.2070
48059W        W66806  18.321   0.204   8.219 -0.0904 -0.2593 -0.2244
48060W        W66807   7.637  24.500   1.382  0.1719 -0.0075 -0.0994
48061W        W66808  11.890   9.852  25.514  0.1204  0.2891  0.0798
48062W        W66809  33.633  18.866  20.626 -0.2710 -0.2780 -0.2260
48063W        W66810  23.876  17.091  18.216 -0.3647 -0.2531  0.4000
48064W        W66811  16.053  10.649  18.942  0.3924 -0.0512  0.1262
48065W        W66812  17.613  32.449  20.368 -0.0056  0.0632 -0.0353
48066W        W66813  29.029  25.822   0.779 -0.2017 -0.0486 -0.0209
48067W        W66814   9.884  15.321  25.939  0.0429  0.0516 -0.1918
48068W        W66815  30.749  31.959  17.621  0.0493 -0.3261  0.1786
48069W        W66816  15.829  17.339  12.094  0.0809 -0.0177  0.0931
48070W        W66817   6.309  27.678  22.167 -0.2430  0.1399  0.2076
48071W        W66818   5.841  19.766   5.282 -0.1883 -0.1166 -0.0887
48072W        W66819  12.682   1.958   1.091 -0.2413  0.0916 -0.1711
48073W        W66820  22.208   0.040  13.597 -0.1612 -0.0331  0.2276
48074W        W66821  22.412  24.859   4.354  0.2961 -0.0095  0.2203
48075W        W66822  22.309  30.639  14.754 -0.0256 -0.1231  0.4227
48076W        W66823  16.037  14.050   0.660  0.1974  0.1718 -0.0222
48077W        W66824  19.479  24.008  23.233  0.2939 -0.2501  0.1118
48078W        W66825  30.473  31.767  14.731  0.0361  0.0226  0.2264
48079W        W66826  16.518  11.178  19.873 -0.1516  0.2067 -0.0087
48080W        W66827  26.050  32.549  18.334  0.2977 -0.0522 -0.1005
48081W        W66828  29.531  19.533   5.770  0.0270  0.0911 -0.0444
48082W        W66829  16.429   1.401   5.790  0.1073 -0.1710 -0.0514
48083W        W66830   7.698  29.429   1.660  0.1049  0.1634 -0.2572
48084W        W66831   3.015  27.132   7.499  0.1037  0.1293  0.0308
48085W        W66832  28.650  30.378   1.229 -0.0315  0.0828 -0.0765
48086W        W66833  14.145   7.504   0.470  0.0620  0.3811 -0.2088
48087W        W66834   8.954   5.384  11.769 -0.0343 -0.0245  0.2153
48088W        W66835  10.877  26.086  14.065 -0.1460  0.2995 -0.2667
48089W        W66836  34.598  14.365   7.969 -0.2186  0.0480 -0.2103
48090W        W66837   8.427   0.082  20.957 -0.0059  0.2107  0.0044
48091W        W66838   4.655  29.851   6.490  0.1988 -0.2596 -0.1018
48092W        W66839   2.508   2.159   5.425 -0.4137 -0.1265  0.0767
48093W        W66840  29.377   5.028   2.656  0.3917 -0.1551  0.0683
48094W        W66841  24.637  29.458  16.527 -0.2534  0.2063  0.0644
48095W        W66842  18.000  20.121  11.849 -0.0521 -0.5739  0.1514
48096W        W66843  32.345   3.338  11.926  0.0404 -0.0103 -0.3171
48097W        W66844  18.538  20.788   8.711  0.1899 -0.2379 -0.0836
48098W        W66845   2.770  18.315  22.008  0.4508  0.2875  0.0849
48099W        W66846  29.333  31.925  11.351 -0.1587  0.4073 -0.2178
48100W        W66847  28.254  11.753  13.214  0.2951  0.0489  0.1024
48101W        W66848   8.307   0.469  14.528  0.0692  0.0537  0.0040
48102W        W66849  33.829  35.193  16.089  0.0013 -0.1355  0.2041
48103W        W66850  10.534  30.370   1.244 -0.2182  0.2045  0.0309
48104W        W66851  17.802  35.308  19.712 -0.1757  0.0883  0.1868
48105W        W66852  11.486  31.520   9.414  0.2521  0.1318  0.0709
48106W        W66853  23.993  18.069  11.073 -0.1942  0.0937  0.2211
48107W        W66854  23.649  10.111  20.045 -0.1554 -0.1217 -0.0385
48108W        W66855  11.250   1.787  22.329  0.0108  0.0643 -0.2375
48109W        W66856  24.629  24.025  23.711 -0.0139 -0.4269 -0.0279
48110W        W66857  12.835  32.159   3.496  0.1623  0.1691 -0.3033
48111W        W66858   6.121  10.116  10.270 -0.2833 -0.0454  0.0671
48112W        W66859  11.201   8.257  24.702 -0.2327  0.1108 -0.3217
48113W        W66860  25.659   4.644  23.512 -0.0208  0.1989 -0.1440
48114W        W66861  12.807  33.887   2.751 -0.3780 -0.3058 -0.0523
48115W        W66862  29.378   8.699   9.924 -0.0128  0.1795 -0.0235
48116W        W66863   6.235  11.211  20.070 -0.0003  0.1011 -0.1073
48117W        W66864   2.799  20.094   2.332 -0.3197 -0.0389 -0.1255
48118W        W66865  32.114  13.349  25.543  0.0238 -0.0771  0.0182
48119W        W66866   4.558   6.261   5.524  0.1101 -0.0649 -0.1464
48120W        W66867  24.394  12.681  23.077  0.0124 -0.3262  0.0401
48121W        W66868   6.958  29.851   2.549  0.2468  0.0848 -0.1160
48122W        W66869  23.485   1.277  17.561  0.1643  0.1313 -0.0815
48123W        W66870  34.106   7.765  20.784  0.3851 -0.1144 -0.0069
48124W        W66871  26.223  21.848  24.166  0.1815 -0.1517  0.0884
48125W        W66872   6.900  12.348   6.440  0.0567  0.1013  0.3147
48126W        W66873  19.880   3.080  16.444 -0.1223 -0.0915  0.0274
48127W        W66874   6.296  32.836   7.010 -0.1523 -0.0974  0.4045
48128W        W66875  14.061  27.140  16.229  0.1187  0.0918  0.0861
48129W        W66876  31.626  24.579  10.657 -0.2168 -0.1946 -0.0196
48130W        W66877  29.126  31.426  19.681  0.5909 -0.1951 -0.0500
48131W        W66878   3.502   5.874   7.868  0.0425  0.1026  0.1589
48132W        W66879   7.310   1.147  11.519  0.0896  0.0563  0.0075
48133W        W66880  19.538   2.470   0.555  0.1390 -0.0962  0.2197
48134W        W66881  31.036   8.923  18.205 -0.1285 -0.2198  0.2655
48135W        W66882  18.094  13.799  22.650 -0.3421  0.1641 -0.0201
48136W        W66883   6.366   0.427  20.226  0.1348  0.1481  0.2134
48137W        W66884   4.279  21.601  21.304 -0.1585 -0.3154 -0.1423
48138W        W66885   0.082  26.718   5.467 -0.2831 -0.0920 -0.1888
48139W        W66886   4.733  18.740  21.840  0.2668 -0.3145 -0.1620
48140W        W66887  35.008   5.022  19.049  0.6653  0.3348 -0.0760
48141W        W66888  28.679  25.021   7.633  0.0084  0.0584 -0.0655
48142W        W66889  21.489  27.656   5.831 -0.1518 -0.1404  0.4125
48143W        W66890   3.843  29.959   3.784 -0.0710  0.4128 -0.1409
48144W        W66891  25.228  21.861  10.787  0.0217  0.2519 -0.0262
48145W        W66892  25.256   0.130  14.948  0.2966 -0.2785  0.2349
48146W        W66893   3.087  24.386  20.707 -0.1432 -0.0360  0.1484
48147W        W66894  15.607  18.843  22.788  0.0285 -0.1061  0.0230
48148W        W66895  29.883  24.535  19.142 -0.0902 -0.0591 -0.1935
48149W        W66896  19.610  21.122   0.812 -0.0697  0.4680  0.1906
48150W        W66897  21.845   8.983  23.333  0.2487  0.2607 -0.2180
48151W        W66898  26.881  15.809  16.302  0.2723 -0.0062  0.3068
48152W        W66899  12.178  17.520  20.978 -0.1590 -0.4004 -0.0760
48153W        W66900  21.540  34.328  25.171 -0.1047 -0.2563  0.1376
48154W        W66901  21.694  29.860  25.647 -0.0122 -0.0858 -0.1467
48155W        W66902  13.027  31.747   8.644 -0.0542  0.0194 -0.0950
48156W        W66903   4.629  25.092   0.055  0.0582 -0.1064 -0.2178
48157W        W66904  15.929   4.871  11.241 -0.1844  0.1918  0.1229
48158W        W66905  33.554  11.531  23.620 -0.2300 -0.0998 -0.1312
48159W        W66906   3.194  20.737   1.018  0.0172  0.1327 -0.2212
48160W        W66907   7.421  22.950  12.795 -0.2278  0.2573 -0.3043
48161W        W66908  25.645   3.497  13.402 -0.1329 -0.1375 -0.0579
48162W        W66909  13.867  22.516  25.587  0.1807  0.0067  0.2160
48163W        W66910   8.593  22.879   2.338  0.1489  0.2284  0.1844
48164W        W66911  27.938   1.397  17.753  0.0186 -0.1610  0.0913
48165W        W66912  15.751  19.766  13.298  0.1592 -0.0118  0.3069
48166W        W66913  17.242  35.265   0.923 -0.0040 -0.0130 -0.1721
48167W        W66914  17.937  34.408   5.844  0.2363 -0.0644  0.0846
48168W        W66915  28.207  15.207   9.837 -0.0313 -0.0184 -0.2184
48169W        W66916  31.906  21.460  18.500  0.2185  0.0771 -0.0032
48170W        W66917   0.980   8.054   2.021 -0.4187  0.0497  0.2764
48171W        W66918  28.222  19.645  24.008 -0.2656 -0.1543 -0.0450
48172W        W66919  27.707   4.246   1.113  0.1155 -0.1549  0.0783
48173W        W66920  15.573  18.404   4.539 -0.1290 -0.0363 -0.0086
48174W        W66921   1.430   9.625  15.741 -0.4914  0.1129 -0.4968
48175W        W66922  22.951  11.036  22.195 -0.0895  0.1646 -0.1427
48176W        W66923  25.012  14.144  15.087  0.0935  0.0238 -0.1366
48177W        W66924  29.293  12.240  11.201 -0.0411 -0.1183 -0.1773
48178W        W66925  35.087  33.149  19.607  0.3709  0.2696  0.1660
48179W        W66926  34.424   1.680   4.994  0.2526  0.0305  0.0312
48180W        W66927  33.990  22.707  10.379 -0.1239  0.0378  0.2478
48181W        W66928  29.916   3.198  25.285 -0.1631  0.1150  0.1269
48182W        W66929   7.826   0.138   7.205  0.1936  0.0981 -0.0684
48183W        W66930  24.468   6.184  14.427 -0.1359 -0.0936  0.0286
48184W        W66931  32.871  18.768  20.979  0.1089  0.1591 -0.0073
48185W        W66932  20.142  17.895   7.345  0.0573 -0.2970  0.0768
48186W        W66933  16.019  11.282   7.423  0.4750 -0.1028  0.0428
48187W        W66934   1.470   0.691  17.514 -0.2873 -0.0714  0.0457
48188W        W66935   0.529  18.413  22.091 -0.1477 -0.0189  0.0002
48189W        W66936  25.270  32.671  10.392  0.4774  0.0060  0.1161
48190W        W66937  11.123  35.320   6.242  0.1403  0.2574  0.1576
48191W        W66938   5.696  25.618   9.856 -0.3415 -0.1107  0.0757
48192W        W66939  28.199  15.558  24.430 -0.1857 -0.1970 -0.3063
48193W        W66940  30.602  29.099  10.468  0.1799 -0.1894  0.0537
48194W        W66941  17.300  33.783  21.208 -0.0181 -0.1580  0.1728
48195W        W66942  27.589   0.249  26.033  0.0994  0.1061 -0.0267
48196W        W66943   4.365  10.956  18.714 -0.3250 -0.0693 -0.1011
48197W        W66944  11.890   5.023  19.027  0.4260 -0.0762 -0.2234
48198W        W66945  16.485  30.757   4.211 -0.0436 -0.1505  0.3257
48199W        W66946   0.558  21.588  24.834  0.0828 -0.3064 -0.2345
48200W        W66947  29.217  29.321  18.464  0.0110 -0.0350 -0.1164
48201W        W66948  17.710   8.617   2.432  0.1662  0.2302 -0.0774
48202W        W66949  29.472   9.016  14.262  0.1165 -0.2578 -0.0907
48203W        W66950   0.040  20.707  25.800  0.2414  0.2176  0.0424
48204W        W66951   0.052  20.327  18.475  0.1355  0.2751  0.1635
48205W        W66952  22.896  20.185  24.705  0.0658  0.0328  0.0600
48206W        W66953  17.759  21.636   6.595  0.2972 -0.3010 -0.0258
48207W        W66954  23.122  28.619   4.503 -0.0778  0.0748  0.0793
48208W        W66955  17.628   6.622   0.796 -0.0744 -0.3658  0.0779
48209W        W66956   3.305  24.564  19.187 -0.0761 -0.0382 -0.0184
48210W        W66957  14.748  27.411   9.462  0.0074  0.3136  0.0813
48211W        W66958  22.932  12.971  15.190 -0.1079 -0.1887  0.2063
48212W        W66959  14.119  13.249  10.027  0.4490 -0.4621  0.0970
48213W        W66960   9.896   4.177  11.592 -0.1058 -0.1160  0.3141
48214W        W66961  12.056  26.805   7.385  0.1569  0.1323  0.0325
48215W        W66962  15.789   0.424   2.053  0.1608  0.0788  0.1235
48216W        W66963  28.766  15.645  10.821  0.0621 -0.3058  0.1397
48217W        W66964  30.401   9.240  24.505  0.0407  0.0842  0.0243
48218W        W66965  25.644  18.415  10.615  0.0561  0.3924  0.1363
48219W        W66966  24.011  12.981  24.515 -0.0997 -0.0664  0.0220
48220W        W66967  16.769   3.426   7.344 -0.0622 -0.5141  0.1221
48221W        W66968   2.633   5.695  14.358  0.0442 -0.0888  0.2217
48222W        W66969   7.846  17.628  19.378 -0.2397  0.2022 -0.0387
48223W        W66970  31.237   5.052  18.194 -0.0412  0.2597  0.0713
48224W        W66971   3.710  12.838  26.122  0.1007  0.1208 -0.0354
48225W        W66972  26.865  22.275   6.312  0.1786  0.1562 -0.2001
48226W        W66973  19.196  21.386   0.589  0.0144  0.1972  0.0236
48227W        W66974  17.811  27.919  10.806 -0.0687 -0.1065  0.0782
48228W        W66975  14.560   3.155  19.595  0.1938 -0.1006 -0.0813
48229W        W66976  12.734  27.761  11.713 -0.0113  0.0678 -0.0004
48230W        W66977  25.472  22.946  16.678  0.1710  0.1328  0.1971
48231W        W66978   0.646  17.599  21.707 -0.0524  0.0571 -0.1482
48232W        W66979  12.178  17.346  11.796 -0.0487 -0.1508  0.0338
48233W        W66980   2.423  19.651  14.280 -0.2547 -0.0043 -0.2271
48234W        W66981  25.532  14.171  19.771  0.1335 -0.1205  0.0232
48235W        W66982  25.049  31.866  23.483 -0.3106  0.0323  0.0088
48236W        W66983  32.355   0.363   6.768 -0.1202  0.1191  0.0124
48237W        W66984   8.448  32.315  21.425 -0.0670  0.1741 -0.1094
48238W        W66985   9.097   1.585  12.688  0.2530 -0.1513  0.0293
48239W        W66986   5.544  31.207   7.990  0.0694 -0.0864 -0.2865
48240W        W66987  31.905  19.069  24.222 -0.0337 -0.1474 -0.1110
48241W        W66988  29.912  28.497  19.324  0.1180 -0.0120  0.1954
48242W        W66989  28.159   7.510  19.281  0.0683  0.2110  0.0028
48243W        W66990   3.771  10.216  18.284 -0.1255  0.0342 -0.1214
48244W        W66991  12.726  19.293   4.145 -0.1089 -0.1101 -0.0735
48245W        W66992   2.690   1.356  18.114  0.2940  0.1378  0.1930
48246W        W66993  25.085  25.425  12.961  0.2323 -0.3306  0.0191
48247W        W66994  16.009  19.760  24.308  0.1561  0.1092 -0.0408
48248W        W66995   7.473  12.279   6.379 -0.0396  0.3311  0.4900
48249W        W66996   3.451  24.162  22.579 -0.0043 -0.2093  0.3401
48250W        W66997  23.259  34.953   5.475  0.5129  0.3015 -0.0097
48251W        W66998  12.513  32.637   0.990  0.0266 -0.2730  0.0840
48252W        W66999  30.083   1.439  13.454  0.1022  0.0166  0.1752
48253W        W67000  30.533  19.552  10.505 -0.2085 -0.0083  0.0125
48254W        W67001  18.288   0.336  17.759 -0.0081  0.1433 -0.0231
48255W        W67002   9.952  28.244   6.178 -0.0453  0.0674 -0.3482
48256W        W67003  25.260  13.684  22.721  0.1418  0.3321  0.1991
48257W        W67004  17.374  18.240  23.409 -0.4528  0.1552 -0.0939
48258W        W67005  14.084  27.242  14.962  0.0581  0.3774 -0.2493
48259W        W67006  32.478   8.515  25.287  0.1229 -0.0212 -0.1520
48260W        W67007  23.706  27.577  14.455  0.0945  0.1912 -0.1384
48261W        W67008   9.968   5.504  23.648 -0.2112  0.1920  0.0517
48262W        W67009  31.472  29.392   4.284  0.1564  0.3168 -0.0440
48263W        W67010   8.662  31.274  12.159 -0.3024  0.0890 -0.0844
48264W        W67011   4.770  16.245  24.884 -0.0654  0.0879  0.2683
48265W        W67012   6.333  20.681  22.171 -0.0080 -0.0659  0.1917
48266W        W67013  25.520  12.620   9.844  0.0541 -0.2801 -0.3447
48267W        W67014   3.044  34.227   7.090 -0.2114 -0.0928  0.2505
48268W        W67015  16.972  15.228   8.549  0.1383  0.1419 -0.0571
48269W        W67016   9.472   5.723   6.812 -0.1246  0.2121  0.0152
48270W        W67017  12.841  23.829  25.198  0.3128 -0.0551  0.0183
48271W        W67018  34.324  10.520  13.036 -0.2446  0.4711  0.3447
48272W        W67019  11.543  24.670  25.784  0.1626  0.1402  0.1761
48273W        W67020   5.914  25.258  21.852  0.0179  0.1477 -0.1219
48274W        W67021   3.420  31.619  26.075  0.0069 -0.1338  0.3418
48275W        W67022   4.772  14.762  23.988  0.0552  0.0189 -0.1594
48276W        W67023  19.242  32.268   0.565 -0.1602 -0.0882  0.0476
48277W        W67024  28.008  14.828  22.664 -0.0561 -0.1193  0.0760
48278W        W67025   3.957   0.034  23.093 -0.2094  0.0838  0.0403
48279W        W67026  22.092  15.260  16.898 -0.1963  0.1789  0.0778
48280W        W67027  34.287  28.126   2.860  0.0021 -0.0171 -0.2022
48281W        W67028  26.436  23.443  19.774 -0.1552  0.0718 -0.0011
48282W        W67029   8.864  22.784  22.213 -0.4104 -0.3067  0.0873
48283W        W67030  25.495   8.134  11.404 -0.0126 -0.2185  0.2053
48284W        W67031   6.813  20.419   3.875 -0.0877 -0.1055  0.4781
48285W        W67032   8.765  18.140  21.718  0.0276 -0.1254  0.5775
48286W        W67033   5.958  23.629   2.295 -0.0810  0.0866 -0.3047
48287W        W67034  28.097   3.969  21.056 -0.1734  0.0945  0.1070
48288W        W67035  21.296  12.401  20.411 -0.2537  0.0408  0.0662
48289W        W67036  29.268  25.931  25.474 -0.1649  0.0566  0.1064
48290W        W67037   0.031  31.468  22.823 -0.2012  0.3231 -0.0750
48291W        W67038  12.668  34.973   7.201 -0.1835 -0.0481 -0.0406
48292W        W67039   6.710  12.630  23.017 -0.0063  0.0023  0.2079
48293W        W67040  33.993  25.758  17.746  0.1290 -0.0660  0.0625
48294W        W67041  18.644  33.144  21.345  0.2143  0.5039 -0.2055
48295W        W67042  32.809   7.205  15.243  0.1216  0.0165  0.1192
48296W        W67043  18.321  21.174  20.092 -0.1686  0.2588 -0.3485
48297W        W67044  30.191   1.850  12.525 -0.1303 -0.4913 -0.0658
48298W        W67045   8.033  34.381   8.519  0.3408 -0.3220 -0.0687
48299W        W67046  22.175   9.919  21.050 -0.1383  0.1803  0.0115
48300W        W67047   2.004  25.500   1.973 -0.0839 -0.1963 -0.2630
48301W        W67048  17.913   6.127  20.489  0.1569  0.2750  0.1568
48302W        W67049   3.209  18.005  22.672  0.2908  0.2627  0.0187
48303W        W67050  31.842  27.051  24.593  0.0951 -0.2350 -0.2507
48304W        W67051  31.716  15.117  17.386  0.1599 -0.0298 -0.0463
48305W        W67052  25.175  30.818  10.254 -0.1110 -0.0631  0.2145
48306W        W67053   2.571   5.231  20.118 -0.0064  0.2143 -0.1512
48307W        W67054  14.535  17.154  24.042 -0.0590 -0.0528 -0.0275
48308W        W67055  26.989  26.694  19.693  0.2622 -0.3416  0.4325
48309W        W67056  14.303  33.041  10.336  0.1488 -0.1261  0.1598
48310W        W67057  10.356  20.071   6.028 -0.2641 -0.2433 -0.2190
48311W        W67058  34.666   2.640   7.304 -0.1786 -0.0095  0.0423
48312W        W67059  10.523  31.991   2.276  0.3266  0.3506  0.1463
48313W        W67060   2.038  27.797  25.378 -0.2207  0.1077  0.0937
48314W        W67061   8.828  13.373  21.304  0.3180  0.1911  0.0099
48315W        W67062   7.208  30.942  11.808 -0.1224  0.1646 -0.1658
48316W        W67063  19.558   1.507  20.220 -0.3209  0.1785  0.0305
48317W        W67064  34.784  29.851   4.556  0.2355  0.2566 -0.1208
48318W        W67065   9.810  31.945   5.001  0.2837  0.4657  0.0433
48319W        W67066  18.064   5.158   8.180 -0.0861  0.3146  0.0171
48320W        W67067  22.127  18.151  16.049  0.2046 -0.0989  0.0922
48321W        W67068  26.710  34.981  11.423 -0.2280  0.1079  0.0985
48322W        W67069  30.179  17.749  15.391 -0.0278 -0.1599  0.2582
48323W        W67070  35.118  23.433  10.916  0.3834 -0.1587 -0.0108
48324W        W67071  16.658  30.102   8.384  0.1680  0.0806 -0.1470
48325W        W67072   3.424   9.047   1.611 -0.1388 -0.0802 -0.0460
48326W        W67073  20.930   8.680   5.369  0.2314  0.0258  0.4018
48327W        W67074   5.819  17.383  24.011 -0.0667 -0.0580  0.0482
48328W        W67075  32.873  22.263  12.890 -0.1548  0.0455 -0.1946
48329W        W67076   8.774   4.672   2.605 -0.0290 -0.0577 -0.1440
48330W        W67077  27.619   6.923  17.966 -0.1572 -0.1356 -0.2288
48331W        W67078  13.618  11.557  22.172 -0.2399  0.0873 -0.0275
48332W        W67079  19.616  26.730   9.912 -0.0949 -0.2945  0.0272
48333W        W67080  28.202   5.415   2.176 -0.2516  0.1971  0.2303
48334W        W67081   8.292  28.535  25.827 -0.1200  0.0153 -0.1410
48335W        W67082  12.400  29.181  11.513 -0.0828  0.2201 -0.2388
48336W        W67083  29.731  23.292  10.317 -0.1272  0.3114 -0.1117
48337W        W67084  27.399  22.209  10.096 -0.0214 -0.0593  0.0885
48338W        W67085  27.907  33.849  15.818  0.0951 -0.0416  0.1827
48339W        W67086   0.721  26.273  24.644  0.0696  0.0388  0.2006
48340W        W67087  30.517  19.726  17.793 -0.1429  0.0253  0.3528
48341W        W67088  25.549   4.115   3.336 -0.4181 -0.1880  0.1222
48342W        W67089   3.398  23.066  21.083  0.1101  0.1981  0.1523
48343W        W67090  14.742  24.675   8.248  0.2396  0.2760 -0.1810
48344W        W67091   4.131  30.703   0.155 -0.1782  0.2270  0.0573
48345W        W67092   7.782  12.914   0.305  0.3527 -0.2976  0.2115
48346W        W67093  19.532  19.711   4.395  0.1594 -0.2453  0.1042
48347W        W67094  32.973  31.943   1.477  0.2275 -0.3585 -0.2551
48348W        W67095  28.082  22.522  14.650  0.2162 -0.0041 -0.1015
48349W        W67096  16.445  20.630   1.011 -0.1768 -0.2606  0.0250
48350W        W67097   1.682  17.099  15.707 -0.0177  0.3860  0.3137
48351W        W67098   7.060   2.422  23.093  0.1484 -0.0019  0.1488
48352W        W67099  27.681  31.784  12.331 -0.0067 -0.1068 -0.0140
48353W        W67100  16.761  31.736   7.755  0.1416 -0.1163 -0.0645
48354W        W67101  32.458   6.127  24.430 -0.0311  0.0506 -0.2176
48355W        W67102  20.865  34.949  17.470  0.1379  0.4000 -0.1778
48356W        W67103  18.381  10.322  18.994 -0.1183  0.3584  0.1606
48357W        W67104  25.396  20.273  25.028  0.1494 -0.1134  0.0581
48358W        W67105   3.919   6.587  19.131  0.0251  0.1612 -0.1931
48359W        W67106  26.184  15.752  10.006  0.0365  0.2197 -0.0347
48360W        W67107  23.156  31.761  21.986 -0.1350  0.1661  0.2046
48361W        W67108  29.606  30.574  20.533  0.1011 -0.3316  0.1223
48362W        W67109  15.812   1.864  24.149 -0.0023  0.1315 -0.3957
48363W        W67110  24.218   4.653  19.686  0.0975  0.1788 -0.0878
48364W        W67111  14.546  31.668  11.097  0.1651 -0.0318 -0.3671
48365W        W67112  20.245  16.663  20.363 -0.0935  0.0091 -0.2871
48366W        W67113   0.370  23.922  24.980 -0.0813  0.0733 -0.1236
48367W        W67114  16.306  27.927  12.572 -0.1267  0.0216  0.2716
48368W        W67115  27.358  17.307   8.438  0.0844  0.0304 -0.3742
48369W        W67116  29.456  11.395  15.071  0.1840 -0.2179 -0.2467
48370W        W67117  24.889  29.572  20.980  0.1395 -0.1416 -0.0541
48371W        W67118  28.974   7.311  10.132 -0.1335  0.1282 -0.4989
48372W        W67119  18.250   1.625  19.326 -0.3037 -0.1868 -0.0054
48373W        W67120   5.405  28.996   6.061  0.1078 -0.6271 -0.3894
48374W        W67121   0.968   6.776  22.660 -0.0447 -0.2074  0.2058
48375W        W67122  17.769   9.500   8.019 -0.2777  0.0370  0.0172
48376W        W67123  29.363  22.459  24.066  0.1287 -0.1266 -0.0035
48377W        W67124   1.282  22.206   0.044  0.1332  0.2075  0.1662
48378W        W67125   2.865  29.444  24.339  0.0281  0.1870 -0.0227
48379W        W67126  35.123  27.461  20.135 -0.3964 -0.0139  0.0602
48380W        W67127  28.029   2.562   6.430 -0.4896  0.1322  0.0454
48381W        W67128  29.226   0.632  19.217 -0.1417 -0.2626 -0.1600
48382W        W67129   7.659  15.521  11.227  0.3490  0.0374 -0.4823
48383W        W67130  26.913  19.990  24.351 -0.2783 -0.1156 -0.0041
48384W        W67131  13.137  23.630  13.451 -0.1336 -0.3853 -0.1390
48385W        W67132  32.021  30.854   6.445  0.0834 -0.0404  0.2106
48386W        W67133   7.692  20.234   7.881  0.0085 -0.1644  0.1585
48387W        W67134  16.330  11.614  22.870  0.3427  0.1881 -0.2675
48388W        W67135   9.109  18.610   3.140  0.1095  0.0128 -0.1988
48389W        W67136  18.020  28.459  10.472 -0.4903 -0.1657  0.0961
48390W        W67137  19.458  10.322  23.220  0.2044 -0.0829  0.0904
48391W        W67138  26.755  32.945  21.223  0.0221 -0.0056  0.1489
48392W        W67139  20.617  10.593   7.690 -0.1393  0.2195 -0.1011
48393W        W67140  29.825   0.175  13.532 -0.0001  0.1715  0.3721
48394W        W67141  34.496   8.547  26.137 -0.0054  0.0007 -0.1187
48395W        W67142  22.341  10.463  25.217 -0.1496  0.0817  0.1518
48396W        W67143  24.378  35.272   7.196 -0.0302  0.2846 -0.1523
48397W        W67144  17.245  31.508   6.086  0.1192 -0.1244  0.1733
48398W        W67145  25.725  32.644  24.763  0.0717  0.1336  0.1634
48399W        W67146   6.816  20.156  21.852 -0.0115 -0.2181 -0.1907
48400W        W67147  27.443  14.844  11.966 -0.0276  0.1304  0.1662
48401W        W67148  33.813   5.667  17.370 -0.1119 -0.2502  0.0780
48402W        W67149  11.207  30.173  16.110 -0.2215 -0.0005  0.0125
48403W        W67150  18.484  16.139   5.478 -0.2568  0.0139 -0.0831
48404W        W67151  11.457  20.514  24.203 -0.0461  0.3955  0.1496
48405W        W67152  31.441   5.578  23.060  0.3390  0.1500 -0.0265
48406W        W67153  25.906   3.272  21.503 -0.2654 -0.0659  0.3108
48407W        W67154   0.936   2.516  14.045  0.0632  0.1728  0.0359
48408W        W67155  32.064  15.456  17.694  0.0873  0.1517 -0.0158
48409W        W67156  16.830   2.878   9.310  0.0587  0.0886  0.0222
48410W        W67157  34.744  27.237  20.442 -0.3355  0.2381  0.0872
48411W        W67158  14.704  17.584  19.762  0.2083  0.3633  0.0366
48412W        W67159  14.014  21.520  22.272  0.1165 -0.2243 -0.2964
48413W        W67160  29.468  13.795   5.458  0.0384 -0.0185 -0.0090
48414W        W67161  14.952  10.030  18.117  0.0823  0.0273  0.1407
48415W        W67162  29.860  33.994  12.484 -0.3089  0.2734  0.0062
48416W        W67163  20.394  19.974   1.145  0.1977  0.4351  0.1568
48417W        W67164   9.192  27.954   8.851  0.2115  0.0514 -0.1188
48418W        W67165  10.505  22.794  22.805  0.1462 -0.2498 -0.0288
48419W        W67166  12.056  12.819   5.474 -0.0259  0.0465 -0.1557
48420W        W67167   7.058  15.116  18.074 -0.2034 -0.3562  0.1019
48421W        W67168  35.021  22.065  22.975  0.3110 -0.0695  0.1296
48422W        W67169   7.485  34.827  23.404 -0.0397  0.1228 -0.0455
48423W        W67170  24.948  11.490  20.111  0.0209 -0.1260 -0.4550
48424W        W67171   6.229  15.838  17.696 -0.1846  0.4655  0.2311
48425W        W67172  25.236  29.284   9.792  0.0420 -0.0971  0.0429
48426W        W67173   4.627  10.688  20.087  0.2081  0.1921 -0.0920
48427W        W67174  34.595   6.167   3.782  0.0856  0.3167 -0.1077
48428W        W67175  24.143  30.237  16.434  0.0549 -0.4010  0.1306
48429W        W67176  16.247  25.705   1.015  0.0703  0.3391  0.0919
48430W        W67177  32.713  30.546   3.295 -0.2230  0.3008  0.1865
48431W        W67178  12.920  17.990   1.584  0.1058 -0.1396 -0.2769
48432W        W67179  28.036   4.401   1.908 -0.0086  0.1095 -0.1667
48433W        W67180  33.569  17.468   0.122  0.3383 -0.3257  0.1973
48434W        W67181  17.351   6.901   8.953  0.2865 -0.3181 -0.0322
48435W        W67182  13.116  28.986  25.081  0.1475 -0.4155 -0.1604
48436W        W67183   8.131  35.209   7.392  0.1798 -0.1716 -0.1605
48437W        W67184  19.603  18.363  20.310 -0.1424  0.1166  0.2982
48438W        W67185  25.587   1.447  13.689  0.0373  0.0104 -0.1760
48439W        W67186  22.012  18.491  16.550  0.1411 -0.4666 -0.1432
48440W        W67187  26.007  23.032  24.492  0.1017 -0.1592 -0.1226
48441W        W67188   7.602  25.001  25.018  0.1757 -0.0709  0.3480
48442W        W67189   0.869  17.998   0.303  0.0089  0.0506  0.3099
48443W        W67190  13.334  21.537  15.974 -0.1321  0.3088 -0.0758
48444W        W67191   3.773  13.437  23.011 -0.0644 -0.1105 -0.1233
48445W        W67192   6.301   0.958  12.142  0.1785  0.2163  0.1139
48446W        W67193  19.282  23.819   7.898 -0.0154  0.1825  0.0746
48447W        W67194  18.905  22.021  19.403 -0.1915 -0.1977 -0.1650
48448W        W67195  30.829   9.310  21.500  0.1875  0.1061  0.1901
48449W        W67196   8.172  25.736  22.340 -0.0955  0.2071 -0.2441
48450W        W67197  20.928   0.703   2.434 -0.0511 -0.0739 -0.1226
48451W        W67198  22.090  17.440   0.284  0.1114 -0.1669  0.1926
48452W        W67199  29.818  30.196  11.855  0.0262  0.0645  0.1703
48453W        W67200  28.864  20.798  14.614 -0.0709  0.2472  0.1268
48454W        W67201  21.083   9.882   5.112 -0.0194 -0.3935  0.2848
48455W        W67202  10.959  29.960  25.873  0.2181 -0.1188  0.1145
48456W        W67203   9.227  32.015  14.297 -0.0559 -0.0314 -0.1150
48457W        W67204  19.822  25.646  19.440 -0.1126  0.2354  0.1068
48458W        W67205  29.744  23.732  12.957  0.0162 -0.3111 -0.1335
48459W        W67206  26.402   4.698   5.580 -0.1350 -0.1043  0.2068
48460W        W67207  17.477  10.449  25.019 -0.0073 -0.1547  0.1440
48461W        W67208  24.001   8.170  22.907  0.0192 -0.2640 -0.2742
48462W        W67209   2.777   2.341   1.268 -0.0826  0.2381 -0.1279
48463W        W67210   4.732  13.767  19.538  0.0736 -0.1326 -0.1834
48464W        W67211  27.267  10.627   8.160  0.1510  0.0970 -0.2222
48465W        W67212  15.057  24.537  22.958 -0.0420 -0.0939  0.0100
48466W        W67213  32.320  21.933   7.339 -0.2983  0.1342 -0.1113
48467W        W67214  17.417  26.262  22.793  0.2541  0.1577  0.2597
48468W        W67215  25.867  19.590  17.612  0.0130  0.2692  0.1595
48469W        W67216  30.855  15.193  13.960 -0.1789  0.1384 -0.3441
48470W        W67217  26.482   2.495   6.736  0.1976 -0.1025 -0.1906
48471W        W67218   3.123  26.910  21.066  0.0713 -0.3947 -0.0871
48472W        W67219  25.108  17.352  20.382 -0.3224  0.2488 -0.2375
48473W        W67220  18.948   7.170  22.201  0.1880 -0.1454 -0.0081
48474W        W67221   8.533  16.507   2.548  0.2660 -0.1063 -0.1523
48475W        W67222  13.038  23.819  12.446 -0.1053  0.0216  0.1361
48476W        W67223  34.015  13.241   7.883 -0.1038 -0.0026 -0.0196
48477W        W67224   7.184  12.868  21.252  0.0636  0.0073 -0.1664
48478W        W67225  30.984  28.235  16.919  0.1864  0.1425  0.0541
48479W        W67226  32.389  26.459   2.251 -0.1150 -0.2346  0.1374
48480W        W67227  10.372   1.257   7.678 -0.0245  0.1623 -0.1873
48481W        W67228  17.812  12.803  21.122 -0.1300  0.0850 -0.1120
48482W        W67229   9.611   6.197   2.332 -0.0236  0.3248 -0.0588
48483W        W67230  33.977   3.828  12.300  0.2503  0.3675 -0.2440
48484W        W67231  26.111   5.960  24.392  0.0731  0.0290  0.0828
48485W        W67232   4.178  35.309   0.221 -0.0523 -0.0126 -0.0761
48486W        W67233  17.342  12.951  19.322  0.1286  0.1850 -0.0172
48487W        W67234  20.027  14.819  21.900  0.1305  0.1938 -0.2057
48488W        W67235  15.760  23.253  23.954 -0.0237  0.2221 -0.1807
48489W        W67236   3.417   3.141  24.723 -0.0026  0.0455  0.2821
48490W        W67237  34.850   0.694  16.981  0.0789  0.0967  0.0776
48491W        W67238   2.858  26.057   1.081  0.0822 -0.0390 -0.0404
48492W        W67239  23.570   1.892  21.934 -0.2593 -0.4384  0.0942
48493W        W67240  25.933  21.632  22.102 -0.0865 -0.1218  0.0144
48494W        W67241  33.501  20.713   1.067 -0.2618  0.2305  0.3929
48495W        W67242  28.919   8.840  24.256  0.1322  0.1394 -0.0526
48496W        W67243  18.336  12.448   4.983  0.2506  0.1017 -0.9116
48497W        W67244  21.335  31.069  18.017 -0.0897 -0.0143 -0.1160
48498W        W67245  18.963   3.248  10.183  0.1244  0.0323  0.2350
48499W        W67246  31.293  10.442  14.792 -0.0194 -0.1185  0.2132
48500W        W67247  28.654  34.748  18.126  0.1717  0.1777  0.2279
48501W        W67248   3.701  18.149   4.758 -0.0338  0.0916  0.0840
48502W        W67249  20.734  32.315  23.401 -0.0886  0.0161  0.1069
48503W        W67250  11.524   3.125  21.188 -0.0213 -0.1432  0.0495
48504W        W67251  17.516  20.094  11.893 -0.1748  0.2377 -0.0373
48505W        W67252  21.368  34.909   5.836 -0.4200  0.3147 -0.1777
48506W        W67253  17.872  23.161  24.111 -0.2041  0.3117  0.2481
48507W        W67254  33.628   7.657   2.855  0.4830 -0.1230  0.0894
48508W        W67255  16.144  23.959  15.847  0.2363 -0.0243  0.4510
48509W        W67256   7.239  34.272  24.085  0.2458  0.0229  0.2190
48510W        W67257  19.449   1.424  25.669  0.2228  0.1415 -0.1282
48511W        W67258  19.829  22.176   9.103 -0.1051  0.1827 -0.0630
48512W        W67259  24.752  12.215  17.160 -0.1482  0.0615  0.0876
48513W        W67260  26.739  31.803  25.206  0.1323  0.1343 -0.0613
48514W        W67261   5.918  21.828   2.186  0.0979  0.1265  0.1550
48515W        W67262  31.885   0.276  15.178 -0.2356 -0.0505  0.0548
48516W        W67263  30.106  24.866  23.214  0.0527  0.0062  0.3135
48517W        W67264   4.707   8.282  18.402 -0.0388 -0.3643 -0.0970
48518W        W67265  20.669  22.590   1.572  0.0404 -0.0344 -0.0371
48519W        W67266  24.901  27.264   0.797 -0.3181  0.0971 -0.0521
48520W        W67267  20.213  10.603   5.875  0.4877  0.0865  0.0952
48521W        W67268  30.602  19.057   8.459 -0.1803 -0.2725 -0.1044
48522W        W67269  23.782  30.386  21.350  0.0194  0.3998  0.2258
48523W        W67270  35.378   3.585   3.613 -0.3700  0.1589 -0.0876
48524W        W67271  13.498  35.325   5.794  0.1533 -0.1236 -0.0629
48525W        W67272   8.289   7.654  25.542  0.0306 -0.0133 -0.0008
48526W        W67273   0.150  19.997  13.688  0.1569 -0.2501  0.2008
48527W        W67274  18.335   6.250   9.072 -0.0064 -0.0966  0.1906
48528W        W67275   6.231  18.136  25.891  0.2194 -0.1258 -0.0086
48529W        W67276  31.316  31.397  13.520  0.1100 -0.0188  0.1241
48530W        W67277   8.911  20.152   8.593  0.0639 -0.2974  0.1818
48531W        W67278  17.883  25.685  24.685 -0.0897 -0.3789  0.0001
48532W        W67279   8.806  18.914  25.683  0.2076  0.0533 -0.1753
48533W        W67280   3.379  21.325   2.308  0.0760 -0.0175  0.1649
48534W        W67281  26.499   4.061  15.183 -0.1541 -0.3673 -0.0837
48535W        W67282  34.993  23.927   1.157 -0.2298 -0.3792  0.0192
48536W        W67283  33.554  14.374  13.917  0.0058  0.1580 -0.0566
48537W        W67284  18.842  30.825  18.314  0.0316  0.1440  0.0711
48538W        W67285  11.374  26.816  13.564 -0.0367  0.1673  0.0205
48539W        W67286   4.662  14.502  24.574 -0.0298  0.2718 -0.1639
48540W        W67287  22.851  12.604  15.610 -0.1505 -0.1972 -0.0653
48541W        W67288   9.331  22.956  16.933 -0.0656  0.1027 -0.1201
48542W        W67289   9.761  21.074  14.825  0.1973 -0.1795  0.1226
48543W        W67290   7.877  13.007   5.849 -0.2235 -0.1416 -0.0765
48544W        W67291  24.086  32.391   2.123  0.0024  0.0576 -0.2144
48545W        W67292  25.256   9.954  23.500  0.2278  0.3735 -0.0896
48546W        W67293  30.270  14.584  25.225  0.0823 -0.0170  0.2299
48547W        W67294  30.794  12.786  13.964  0.0626  0.2035 -0.0631
48548W        W67295  32.700  19.255  10.327  0.1726  0.0683 -0.1769
48549W        W67296   6.087  21.109  25.585 -0.2361  0.0143  0.3548
48550W        W67297   0.171  28.832   3.912  0.1302  0.0844  0.2166
48551W        W67298  31.809   6.213  26.222  0.0203  0.0407  0.0388
48552W        W67299  29.901  16.185   4.643 -0.3839  0.1267 -0.2368
48553W        W67300  19.359  29.481   2.776 -0.2740  0.1447 -0.0459
48554W        W67301  26.777   9.919  10.509  0.2231 -0.2257 -0.0303
48555W        W67302  22.107  29.442  14.792  0.4782  0.1916 -0.2694
48556W        W67303   8.341  22.088  22.658  0.0829 -0.2573  0.2533
48557W        W67304  21.445   3.062   3.590 -0.1003 -0.0187 -0.0993
48558W        W67305  14.879  16.954   1.957  0.1148  0.0017  0.1178
48559W        W67306  20.438  34.437  23.935  0.1323 -0.4340 -0.2643
48560W        W67307  30.839  24.042   9.386 -0.2379  0.1916 -0.1955
48561W        W67308  28.676  15.583   9.644 -0.0635  0.2616 -0.2388
48562W        W67309   6.303  13.700  24.364 -0.2626 -0.1852 -0.1130
48563W        W67310  31.132  15.071  17.347 -0.0114  0.1973 -0.0235
48564W        W67311  16.756   6.431   8.712  0.2745 -0.2590 -0.1196
48565W        W67312  29.620   6.681  23.289  0.2283  0.0016 -0.6075
48566W        W67313   6.145  27.903  14.537 -0.1993 -0.1848 -0.1461
48567W        W67314  28.753  20.395  20.236  0.3350  0.2298 -0.0966
48568W        W67315  18.912   4.022  21.638 -0.2141 -0.1747 -0.1304
48569W        W67316  11.059  12.668  25.771  0.1953  0.0871  0.1431
48570W        W67317  17.714  29.140   8.901 -0.1698  0.1331  0.2382
48571W        W67318  33.073  23.699  12.703  0.2048  0.0695 -0.2035
48572W        W67319   9.926  11.636  13.575 -0.1623 -0.4004 -0.0745
48573W        W67320  18.390  33.647  19.829 -0.4262  0.0275 -0.2273
48574W        W67321   6.620  29.328   8.058  0.0170  0.2818 -0.2271
48575W        W67322   9.112  29.879   0.269  0.0467 -0.2637 -0.1756
48576W        W67323  12.339  11.592  18.920 -0.2642 -0.0477 -0.3218
48577W        W67324  30.679  14.698   6.095  0.0879 -0.0492 -0.0532
48578W        W67325   4.112   4.590   7.452 -0.0262 -0.0961  0.0332
48579W        W67326  24.232   4.190  15.966 -0.1891 -0.0839  0.0206
48580W        W67327  32.001  30.233   4.106 -0.0181 -0.4080  0.1299
48581W        W67328  30.348  18.676  25.831 -0.4675  0.2635  0.1326
48582W        W67329   6.497  18.376   1.431  0.2829 -0.2073 -0.2346
48583W        W67330   5.791  28.517  24.256  0.2220  0.0735  0.0351
48584W        W67331   0.736   4.390  18.381  0.0657 -0.2147  0.2622
48585W        W67332   4.551  25.696  23.812 -0.0197  0.0199 -0.2991
48586W        W67333  19.928  24.692   4.076 -0.2642 -0.0619  0.0360
48587W        W67334  30.518  11.577  11.468 -0.3467  0.0870 -0.1151
48588W        W67335  11.417  27.958  16.880 -0.0181  0.3203  0.2384
48589W        W67336  11.171  11.410  25.386 -0.1948  0.1646  0.1032
48590W        W67337   0.788  20.685  24.002  0.0852  0.2592 -0.2137
48591W        W67338  13.451  26.676   1.330 -0.3071  0.1845 -0.1580
48592W        W67339   7.482   0.972   5.111  0.1931  0.4745  0.0225
48593W        W67340  26.769  16.419  24.986  0.3424 -0.0106  0.1071
48594W        W67341  10.025   4.932   4.361  0.3722 -0.0857 -0.0060
48595W        W67342  27.667  15.483   6.889 -0.1742 -0.3037  0.1922
48596W        W67343  26.755   9.638  24.557  0.3322 -0.0279 -0.2191
48597W        W67344  12.140  20.485  22.383  0.3731 -0.0671 -0.0561
48598W        W67345  33.371  14.525  13.427  0.0512 -0.2279  0.3376
48599W        W67346  30.379  26.081  19.707  0.3180  0.1586 -0.0942
48600W        W67347  18.905  32.563  22.688  0.1319  0.1659 -0.1368
48601W        W67348  23.409  27.463  24.395  0.0295 -0.1757 -0.0317
48602W        W67349  22.700  10.930  20.430  0.1013 -0.1254  0.0031
48603W        W67350   0.277   1.402  22.736 -0.1832  0.2199 -0.0282
48604W        W67351  29.784  23.378   9.780 -0.3751 -0.0575 -0.1802
48605W        W67352  33.218  29.029   0.128  0.1685  0.1899  0.2287
48606W        W67353  10.184  26.079  15.219  0.0900  0.3751 -0.1763
48607W        W67354   8.593   3.733   6.562  0.2000 -0.0005 -0.0255
48608W        W67355   9.951  24.049  23.267 -0.2669  0.5630 -0.0025
48609W        W67356   9.368  10.952   4.236 -0.0983 -0.0828  0.3071
48610W        W67357  12.121  29.119   0.733 -0.0307  0.1037  0.0441
48611W        W67358  34.260  30.944  21.437 -0.1543 -0.1588  0.1752
48612W        W67359  15.978  25.986  15.029 -0.0100  0.2278 -0.0431
48613W        W67360  19.772  30.065  18.866  0.1873  0.0041  0.0924
48614W        W67361   8.909  30.677   8.171  0.0006 -0.2694 -0.0168
48615W        W67362  28.613   1.943  14.304  0.0269  0.2708 -0.0914
48616W        W67363   4.139  16.482   4.937 -0.1279 -0.0782  0.1166
48617W        W67364   8.876   1.558  21.452 -0.2032  0.1225  0.1568
48618W        W67365  14.578  16.629  11.312 -0.2650 -0.3319  0.1754
48619W        W67366   9.124  29.488  22.469 -0.1874 -0.0249  0.1761
48620W        W67367  34.896  18.262   8.090 -0.0554 -0.1871  0.1456
48621W        W67368  29.993  11.748   0.052 -0.0960  0.0100  0.4565
48622W        W67369  31.535  10.932   8.381 -0.1730 -0.3346 -0.2767
48623W        W67370  14.158   6.651   2.893 -0.3267  0.1057  0.2113
48624W        W67371  14.423  34.651   6.190 -0.2201 -0.1900 -0.2417
48625W        W67372  29.922  12.394  25.798  0.4962  0.0517  0.0494
48626W        W67373  17.826   4.403  22.372 -0.0293 -0.1033  0.0704
48627W        W67374  11.566  31.815   5.641 -0.0875 -0.0134 -0.0366
48628W        W67375   1.303  25.775  22.686  0.0772 -0.1043 -0.1109
48629W        W67376  15.070  14.813  13.851 -0.2322  0.3357  0.0156
48630W        W67377  14.073   9.895   3.593 -0.3013  0.1804  0.3942
48631W        W67378  24.101   0.615  25.743  0.1769  0.2561 -0.0410
48632W        W67379  18.666   1.794   7.837 -0.1806  0.1334  0.0848
48633W        W67380   2.662   1.477  22.363 -0.0928 -0.0359  0.0317
48634W        W67381  16.712  10.671  22.596  0.0884  0.0617  0.1130
48635W        W67382   7.101  10.436   2.595 -0.0272  0.0337 -0.2338
48636W        W67383  10.854  31.530  21.056 -0.2660 -0.0239 -0.0214
48637W        W67384  31.306  16.266   6.014  0.1736  0.3459 -0.1237
48638W        W67385  34.593  35.360  19.146  0.3214  0.1456  0.0045
48639W        W67386   3.402  32.597  18.035  0.1189  0.1246  0.2476
48640W        W67387   7.845  18.313   5.814 -0.1578  0.0682  0.0181
48641W        W67388   5.315  25.197  23.546 -0.0580  0.2095  0.1240
48642W        W67389  23.971  30.765  22.693  0.0769 -0.2829 -0.0693
48643W        W67390  25.354  32.648  24.474  0.0091  0.0611  0.0583
48644W        W67391  35.351  31.018  20.996 -0.1728  0.0556  0.0643
48645W        W67392  13.789  26.136   7.981 -0.2740 -0.2254 -0.2276
48646W        W67393  23.057  31.489  14.390  0.4445  0.0144 -0.0650
48647W        W67394  18.702   8.833   5.506  0.0975 -0.1314 -0.1756
48648W        W67395  19.710  30.674  25.831 -0.1891 -0.0112  0.0296
48649W        W67396  15.506  12.160  25.233  0.0618  0.1713 -0.0937
48650W        W67397  23.394   4.247  24.770 -0.0804 -0.1498  0.1369
48651W        W67398  28.718  31.242   3.307  0.0164 -0.0608  0.1287
48652W        W67399  26.577  10.340  21.520 -0.0059  0.1814 -0.3114
48653W        W67400  27.582  24.419  23.689  0.4056 -0.0921  0.1311
48654W        W67401  13.881   9.418  13.493 -0.0409 -0.0679  0.0562
48655W        W67402  27.429  23.322  14.282  0.0377 -0.2008 -0.1095
48656W        W67403  24.210  23.474  23.395 -0.1943 -0.2116  0.1726
48657W        W67404  13.088  13.674  20.401  0.1108  0.2336 -0.1791
48658W        W67405  23.603  34.391  24.437  0.0260 -0.2467 -0.1300
48659W        W67406   5.705  26.677   5.736 -0.2343 -0.1978  0.0288
48660W        W67407  22.091  24.372  24.800  0.0573  0.0744 -0.2397
48661W        W67408  23.597   2.283   0.133 -0.1293 -0.3125 -0.2385
48662W        W67409  13.682  20.265  21.366  0.0884 -0.0585 -0.2221
48663W        W67410  23.508  10.818  23.354  0.2950 -0.0090  0.2170
48664W        W67411  29.852   2.474  23.014  0.1328 -0.0996  0.0085
48665W        W67412   2.349  15.042  15.785 -0.0008  0.0661 -0.1149
48666W        W67413  14.101  20.912  10.611 -0.0961 -0.1943  0.0572
48667W        W67414  23.754  31.486  15.297 -0.0965  0.4901  0.1742
48668W        W67415   2.314   9.175  14.485 -0.4234 -0.2315  0.1923
48669W        W67416  20.494  27.985   0.985 -0.1716  0.2333 -0.2362
48670W        W67417  13.364  35.087  19.637 -0.2917  0.1035 -0.3097
48671W        W67418  14.598  27.524   2.576 -0.2054 -0.0744  0.4176
48672W        W67419   7.504  18.020  10.263  0.2088  0.2311  0.0442
48673W        W67420  12.631  12.258  23.671 -0.1643 -0.1216 -0.5424
48674W        W67421   9.558  14.718   0.365 -0.3031 -0.1139  0.1174
48675W        W67422  30.887  15.212  11.118  0.2340  0.0667 -0.0370
48676W        W67423  32.279  13.801  15.241 -0.1681 -0.2459  0.0936
48677W        W67424  17.035   8.058   4.220  0.0091  0.2274  0.0717
48678W        W67425  10.544  17.024  22.028  0.4433 -0.2092  0.3537
48679W        W67426   5.202  21.179   3.600 -0.1020 -0.1885 -0.0780
48680W        W67427  31.914  18.661   0.449 -0.0101  0.0896  0.0155
48681W        W67428  19.493  28.548  24.018 -0.0235 -0.0639  0.1075
48682W        W67429  28.945  33.063  21.932 -0.0842  0.1963 -0.0370
48683W        W67430   3.834  28.549  11.449  0.0932 -0.0170 -0.1076
48684W        W67431   4.441  27.230  10.227  0.2033  0.0454 -0.1309
48685W        W67432  16.906  16.548  26.151  0.3229 -0.0313 -0.2023
48686W        W67433  20.337  31.137   2.677  0.0011 -0.3207 -0.1228
48687W        W67434   8.776  33.578  10.113  0.0563 -0.1649 -0.2508
48688W        W67435  32.118   2.505  17.227  0.3562  0.0939  0.2846
48689W        W67436  30.210  18.839   7.113 -0.1133 -0.1740 -0.0417
48690W        W67437  10.721  14.964  10.367 -0.1852 -0.0006 -0.0132
48691W        W67438  14.758  25.522  25.872  0.4533  0.1717  0.0765
48692W        W67439  31.451  12.154   7.587 -0.1123  0.0589  0.2042
48693W        W67440   1.592  23.614  15.677  0.0847  0.1546  0.1064
48694W        W67441  23.445   4.833   1.703 -0.2682  0.2074  0.0519
48695W        W67442  24.445  19.904  15.884 -0.1169  0.0936  0.3011
48696W        W67443  26.648  29.894  16.731  0.1154 -0.0126  0.2033
48697W        W67444  12.389  28.644   8.658  0.0333 -0.1779 -0.1384
48698W        W67445  24.590   7.511  20.649 -0.1502 -0.1316 -0.3436
48699W        W67446  14.418  26.353  22.600 -0.2186  0.1546 -0.1733
48700W        W67447   2.066  10.690  14.094 -0.2547 -0.1626 -0.0332
48701W        W67448  23.165   4.570  18.430 -0.0514 -0.0500 -0.1476
48702W        W67449   9.081  14.449   5.600 -0.1686 -0.0189 -0.2217
48703W        W67450  26.687  13.712  11.853  0.0876  0.0316  0.2288
48704W        W67451  33.139  21.157  18.135  0.1252 -0.2892 -0.1907
48705W        W67452  19.669   8.965   4.713  0.1390 -0.0667 -0.1357
48706W        W67453  17.728  11.516  10.612 -0.2025  0.1512 -0.3340
48707W        W67454  17.401  11.664  25.735  0.2147 -0.0314  0.1676
48708W        W67455  35.214   3.084  15.575  0.1730 -0.3507 -0.0569
48709W        W67456  11.171  33.342  15.460 -0.0743  0.0323 -0.2470
48710W        W67457  17.651  20.558  12.782 -0.1335  0.1152  0.1028
48711W        W67458  23.158   1.770  13.183 -0.2383  0.1096 -0.2354
48712W        W67459  10.881  18.124  10.428  0.0534  0.1213  0.0035
48713W        W67460  20.128  33.477  23.026 -0.4409 -0.0445 -0.0452
48714W        W67461  34.736  19.689  22.816 -0.2979  0.0926  0.3830
48715W        W67462  12.588  14.246   4.946 -0.3303  0.2503 -0.3560
48716W        W67463  17.750  19.445  19.605  0.0250 -0.0312 -0.0401
48717W        W67464   5.693  11.238  23.694 -0.1366 -0.0866 -0.2362
48718W        W67465  35.193  14.270  18.770  0.4069  0.1167 -0.2180
48719W        W67466  13.624   8.001  10.324  0.4177  0.0717 -0.1961
48720W        W67467  31.956   6.723  19.046 -0.0720 -0.2193  0.1238
48721W        W67468  32.232  29.919  25.928 -0.0829  0.0380 -0.2177
48722W        W67469  30.642  33.903  20.289  0.2274  0.1869 -0.0894
48723W        W67470  23.852  21.970  20.513  0.0029  0.0888 -0.2184
48724W        W67471  17.077  15.080  20.342 -0.1569 -0.1724  0.0249
48725W        W67472  10.613  26.941   7.627 -0.0676  0.0797  0.1919
48726W        W67473  25.146  21.074  18.217  0.2298  0.1641  0.0071
48727W        W67474   2.160   1.234   8.489 -0.2198  0.0262  0.1144
48728W        W67475  22.452   9.907   1.569  0.0576 -0.0659  0.1364
48729W        W67476   7.568   2.830  25.259  0.2139  0.1423 -0.2550
48730W        W67477  15.312   4.814   4.462 -0.0926  0.0154 -0.3738
48731W        W67478  10.816  21.935   7.677  0.2622  0.2261 -0.0009
48732W        W67479   3.240  21.755  19.657  0.1023 -0.2864  0.2223
48733W        W67480  27.413   5.131  13.608 -0.2225 -0.0842 -0.0306
48734W        W67481   2.149   0.255   5.720 -0.3387  0.1973 -0.0524
48735W        W67482  15.022   9.076   2.263  0.3088  0.2300 -0.5049
48736W        W67483  18.294  15.636  17.347  0.0983  0.0485  0.0518
48737W        W67484  33.086   0.542   6.722  0.1122  0.2153  0.0686
48738W        W67485   4.654  30.744  21.605 -0.0720 -0.1835  0.1210
48739W        W67486  22.880  17.706  23.359  0.0791  0.0147  0.0854
48740W        W67487  34.993  21.984  21.605  0.3403 -0.1709 -0.1322
48741W        W67488  28.333   0.071  25.180  0.0710  0.1120  0.0230
48742W        W67489   6.161  26.772  24.894  0.2040 -0.0415  0.0520
48743W        W67490  30.945  32.968  13.855 -0.0298  0.0489 -0.0740
48744W        W67491  16.235   0.141   1.307  0.1114 -0.0190  0.2955
48745W        W67492   6.620  15.876  18.323  0.1179  0.1803  0.2637
48746W        W67493   9.065  32.304  15.064  0.0184 -0.0666  0.1008
48747W        W67494  33.246   9.269  23.968  0.1781  0.0244  0.2644
48748W        W67495   9.990  12.495  22.078 -0.1379  0.1160  0.2312
48749W        W67496  16.242  32.598   9.297 -0.0866 -0.0398 -0.0059
48750W        W67497  31.131  10.221  19.776  0.4087 -0.0981 -0.3511
48751W        W67498  23.257  10.101  25.965 -0.0748  0.0338  0.0374
48752W        W67499  18.838  35.226  24.453  0.1400  0.0422 -0.0330
48753W        W67500  21.812  23.425   1.011  0.3461 -0.1271 -0.0411
48754W        W67501  31.079  11.139  12.662  0.2175 -0.1037 -0.0389
48755W        W67502  27.304  30.892   2.695  0.2373 -0.0707  0.2708
48756W        W67503  31.343  30.977  13.276  0.0776 -0.0676 -0.1266
48757W        W67504   4.467   3.769   1.793  0.3245 -0.4709  0.1591
48758W        W67505  32.535  29.221  17.677 -0.3771  0.4611 -0.0100
48759W        W67506  22.704  32.176  14.071 -0.0041  0.0989 -0.4114
48760W        W67507  16.153   3.989  26.222  0.1960 -0.0748 -0.0184
48761W        W67508   4.009   1.741  24.169  0.0107  0.2167 -0.0598
48762W        W67509   6.130   4.430  20.454 -0.4593  0.2995 -0.0764
48763W        W67510  31.695  22.191  16.868 -0.1455 -0.1662 -0.0366
48764W        W67511  17.090   3.610  18.944  0.1255  0.1638 -0.3415
48765W        W67512  34.541  30.372  17.813 -0.1057  0.0328 -0.0629
48766W        W67513  34.662  21.994  24.102  0.1054  0.3829 -0.1585
48767W        W67514   5.992  27.882   8.109  0.2300 -0.1572  0.0358
48768W        W67515  23.292  35.150  17.307  0.1854  0.0660  0.1435
48769W        W67516   2.413   7.779   3.528  0.0524 -0.0008  0.2669
48770W        W67517  15.175  15.932   1.711  0.2857  0.1491 -0.2656
48771W        W67518  30.639  30.716  16.822 -0.1288  0.0872 -0.2282
48772W        W67519  28.583   3.850   0.693  0.0491 -0.1283 -0.0311
48773W        W67520   6.830   8.202  20.553  0.0746  0.2700 -0.1131
48774W        W67521  14.192   1.469   6.955 -0.0540 -0.0673 -0.1647
48775W        W67522   0.599  31.317   4.700  0.0035  0.0129  0.0346
48776W        W67523  19.074  28.659  23.525  0.3199  0.1445  0.0787
48777W        W67524   6.442  33.021   7.576  0.3763  0.0566  0.2088
48778W        W67525   7.961  16.358   7.450  0.1863  0.1051  0.0062
48779W        W67526  25.383  17.831  19.747  0.0968 -0.2014  0.1949
48780W        W67527   8.586  16.455   9.774  0.1660  0.0110 -0.1045
48781W        W67528  33.010  32.273  21.697  0.0076 -0.0567 -0.1736
48782W        W67529  14.356  27.441   4.123  0.2269 -0.1782  0.1738
48783W        W67530  10.027  35.248  15.694 -0.0090 -0.1961 -0.1241
48784W        W67531  30.653  24.544   0.464 -0.2405  0.1142 -0.0805
48785W        W67532  22.359   2.019  18.261  0.1256 -0.0087 -0.0954
48786W        W67533  15.554  17.491   1.046 -0.0294  0.0741  0.3213
48787W        W67534  12.195  29.833  25.134  0.0842  0.0551  0.1488
48788W        W67535  15.240   9.127  24.815 -0.0739 -0.0259  0.0694
48789W        W67536  10.892  28.819   1.206 -0.1222  0.1124 -0.1057
48790W        W67537  15.496   4.596  11.094 -0.1165  0.2710 -0.0163
48791W        W67538  28.175  29.756  23.973  0.0054  0.2213 -0.1758
48792W        W67539   2.405  31.376  20.748 -0.1464  0.3746  0.3858
48793W        W67540  14.059  32.925  25.260  0.0118 -0.2224 -0.4451
48794W        W67541   7.614  18.964  10.501 -0.0812  0.2593  0.2740
48795W        W67542  22.093  17.421  13.695  0.0233 -0.2378  0.2130
48796W        W67543  34.218  21.858  18.159  0.1678  0.1225  0.1804
48797W        W67544   1.717  12.011  18.618  0.1120  0.0775 -0.2158
48798W        W67545   2.298  33.667   6.281 -0.2411 -0.0199  0.1333
48799W        W67546  31.782  13.393  20.565  0.0263 -0.2044 -0.0286
48800W        W67547  15.520   8.874  19.988 -0.1211  0.0905  0.0804
48801W        W67548   7.646  27.277   3.873 -0.0400 -0.1389  0.1560
48802W        W67549  10.260  33.040  10.927 -0.0266 -0.0529  0.3196
48803W        W67550  24.736  14.754  19.973  0.2566  0.0602  0.2547
48804W        W67551  23.607  34.552   3.700 -0.2164  0.1359  0.0254
48805W        W67552  10.567  14.413   8.568  0.0017  0.1268 -0.2082
48806W        W67553  14.352   3.744  23.510  0.4076  0.2391 -0.0766
48807W        W67554  25.830  10.023  24.973 -0.2173 -0.0770 -0.0655
48808W        W67555   6.172  15.025  11.008  0.1248 -0.1722  0.1968
48809W        W67556  15.254  11.424  19.981  0.1790  0.0221  0.3819
48810W        W67557   8.882  23.432  10.764 -0.1701  0.0024  0.0339
48811W        W67558   7.258  33.409  12.057  0.1398  0.4761 -0.1425
48812W        W67559   4.431   5.671  21.229 -0.0626  0.1918 -0.2122
48813W        W67560  33.229  22.978  24.958 -0.1342  0.3770  0.0132
48814W        W67561   5.783  20.755  25.295 -0.1360 -0.0916  0.0016
48815W        W67562  25.851   1.021  22.270 -0.3131 -0.0695  0.1851
48816W        W67563  30.923  23.783  23.037 -0.1228  0.0089  0.2534
48817W        W67564   3.272  20.543  16.245  0.2395  0.0974 -0.2639
48818W        W67565  27.097   6.156   1.123 -0.0597 -0.0423 -0.2190
48819W        W67566  28.757   4.714  12.539 -0.3702  0.0412 -0.2557
48820W        W67567  32.022  18.255  10.176  0.1703 -0.1127  0.0521
48821W        W67568  29.050  12.576  15.911  0.0136 -0.2790  0.0431
48822W        W67569  28.941  12.738  20.039 -0.1629 -0.0600 -0.0311
48823W        W67570  20.070  14.872   8.230 -0.0684  0.3311  0.1657
48824W        W67571   5.626  17.804  26.212 -0.1218 -0.1517 -0.0917
48825W        W67572  34.201  19.881  15.055  0.0499  0.2292 -0.2480
48826W        W67573  12.389  19.931   4.358  0.1557 -0.1658 -0.3669
48827W        W67574  15.193  17.210   2.346 -0.3706 -0.0506 -0.1460
48828W        W67575  22.490   8.001  16.561  0.0919  0.0734  0.0191
48829W        W67576  32.479  22.535  16.565 -0.0282  0.0114  0.1457
48830W        W67577   8.595   0.360  13.540  0.2012 -0.4368 -0.3322
48831W        W67578   7.873  15.743   1.956 -0.0615  0.1081  0.0188
48832W        W67579  30.916  16.682   8.697 -0.0518 -0.3253 -0.2346
48833W        W67580  28.511  16.194  22.408 -0.1168 -0.0924 -0.1563
48834W        W67581  30.294  16.969  17.462 -0.0021 -0.1437 -0.1925
48835W        W67582   7.432   8.429   0.493 -0.0619  0.2444  0.0542
48836W        W67583   3.260   2.778  18.313 -0.0230  0.0149 -0.1709
48837W        W67584  17.303  23.564  13.353  0.0831  0.3819  0.1693
48838W        W67585   3.461   7.764   2.462  0.1014  0.1818 -0.0241
48839W        W67586   5.481   7.167   8.960  0.0227  0.1147  0.1604
48840W        W67587   8.880  25.970   7.707  0.0334  0.3429 -0.0438
48841W        W67588  17.327   8.995  23.932 -0.4436 -0.1436  0.1127
48842W        W67589  20.155  17.105   0.940 -0.0233 -0.0829 -0.3998
48843W        W67590  22.724  27.942  25.108 -0.3809  0.3012  0.0848
48844W        W67591  22.198  14.119  23.302 -0.4198  0.1441 -0.0265
48845W        W67592  30.189  28.333   9.510  0.1157 -0.2034  0.2990
48846W        W67593  14.974  13.683  21.239  0.0732 -0.3488 -0.0088
48847W        W67594  28.739  11.649  20.890  0.0546 -0.1715 -0.0963
48848W        W67595  29.106  15.893  11.733 -0.0241 -0.0086 -0.1698
48849W        W67596  17.938  21.145  12.378 -0.1162 -0.0955 -0.1072
48850W        W67597  14.873   2.003  21.467  0.2245  0.3805  0.4506
48851W        W67598  33.276  19.667   5.744 -0.2411  0.2663  0.0519
48852W        W67599  15.638  16.478   3.301 -0.0374  0.0348 -0.0458
48853W        W67600  11.216  13.504   0.414  0.3694  0.0355  0.1946
48854W        W67601  12.559  29.343  23.437 -0.1810 -0.0598 -0.1407
48855W        W67602  20.493  25.083   5.196 -0.2140 -0.2008 -0.0956
48856W        W67603  18.020  31.240  23.004  0.2487  0.3911  0.1362
48857W        W67604   7.134  34.719  22.025  0.3035  0.2012 -0.0945
48858W        W67605  18.820   8.233  25.566 -0.3739 -0.3373 -0.0474
48859W        W67606  30.325   3.235   1.861  0.0164  0.0911 -0.0680
48860W        W67607  25.004  14.076  11.945 -0.0225 -0.3340 -0.0276
48861W        W67608   5.659  10.099   1.213 -0.0439  0.0156  0.1377
48862W        W67609  33.153  26.232  10.061 -0.0014  0.1556  0.1253
48863W        W67610  33.382  16.667  22.469 -0.1514 -0.0375 -0.2447
48864W        W67611  28.581   9.119  16.971 -0.1220  0.0869 -0.2434
48865W        W67612  32.480  25.160  15.219  0.0868 -0.4198 -0.1563
48866W        W67613  32.336  17.925  13.093  0.1859 -0.2844 -0.0603
48867W        W67614  28.815  21.260  16.829  0.2076 -0.2376  0.1350
48868W        W67615   7.719   7.086  20.388 -0.0355  0.0781  0.2724
48869W        W67616   9.106  19.014  25.085  0.0029 -0.2810 -0.3922
48870W        W67617   9.135  15.343  11.268  0.0245  0.3415 -0.0647
48871W        W67618  34.850  17.658  19.354  0.4488 -0.1364 -0.0961
48872W        W67619  22.419  34.842  23.473  0.0946 -0.0979 -0.1145
48873W        W67620  20.643  29.690  22.328 -0.1849  0.0963 -0.0544
48874W        W67621  27.188  29.902   9.994 -0.1748  0.1592 -0.0983
48875W        W67622   4.335   9.866  17.470  0.0466  0.1093  0.1237
48876W        W67623  15.068  12.094   8.940 -0.1236  0.2431  0.2922
48877W        W67624  24.031  11.460   1.174 -0.0380 -0.1473 -0.2171
48878W        W67625  31.376   2.221  18.758 -0.3821  0.1587  0.1940
48879W        W67626   5.304   5.888   6.285  0.0436 -0.0476  0.0976
48880W        W67627  23.769   6.925   5.449 -0.0968  0.0097 -0.1998
48881W        W67628   2.157  31.743  22.148 -0.0400 -0.0641  0.2679
48882W        W67629  10.270  13.914  17.896  0.2455 -0.2206  0.0412
48883W        W67630  18.102  12.120   1.787 -0.1359 -0.1546 -0.3141
48884W        W67631  15.775  11.122   6.637 -0.0720  0.0129  0.2641
48885W        W67632  30.346  15.687   5.114 -0.1638 -0.0867  0.3404
48886W        W67633  19.072  25.225   4.008  0.1513  0.1727 -0.2077
48887W        W67634   2.035  33.393  18.992  0.2659 -0.0981 -0.0566
48888W        W67635  18.744  10.557  25.514  0.4926  0.1849  0.2027
48889W        W67636   9.789  17.367   4.440 -0.1381 -0.0754  0.1445
48890W        W67637   3.947  10.040  23.289  0.0294  0.0555 -0.1277
48891W        W67638  11.653  18.558   6.416  0.2978  0.1806  0.0322
48892W        W67639  33.427   2.785  13.772  0.0205  0.1292 -0.0962
48893W        W67640   4.566  26.299   7.597 -0.0602  0.2643 -0.3247
48894W        W67641  21.607  34.973  25.063  0.1112 -0.3359 -0.2724
48895W        W67642  31.910  17.018  20.065  0.3259 -0.0120 -0.0007
48896W        W67643  18.740  13.169   5.674  0.1342  0.3257  0.1254
48897W        W67644  11.280   4.304  24.566 -0.0879 -0.0177 -0.1843
48898W        W67645  10.614  16.115   9.335  0.1046  0.0676 -0.1851
48899W        W67646  26.719   1.144  14.982  0.2757  0.4987 -0.2500
48900W        W67647  26.387   6.249  21.124 -0.2750  0.1327  0.0004
48901W        W67648  33.944  10.650  22.161  0.0684  0.1558  0.0204
48902W        W67649  22.080  26.003  13.439 -0.3544 -0.3575 -0.0007
48903W        W67650  30.412  17.823   8.242  0.0053 -0.0433 -0.2175
48904W        W67651  24.154  30.248  19.289 -0.3731  0.6000 -0.3924
48905W        W67652  13.589   7.155   7.323 -0.4050 -0.0585  0.0513
48906W        W67653   7.308  16.536  10.408 -0.0489  0.1617  0.1938
48907W        W67654  10.924  14.436  23.114 -0.3289 -0.0134  0.0873
48908W        W67655  10.391  28.411   1.473 -0.1177  0.0777  0.1183
48909W        W67656   4.462   4.280  21.957 -0.2160  0.2392  0.0067
48910W        W67657   0.696  25.194  22.140  0.1858  0.1295 -0.0834
48911W        W67658  29.481  17.897   9.933  0.2820  0.2722  0.1107
48912W        W67659   2.583  27.962   5.650  0.0606 -0.2372 -0.0646
48913W        W67660  27.456   0.611   0.136  0.3828 -0.0192 -0.0154
48914W        W67661  14.645  12.318   8.664 -0.0355  0.4442  0.1280
48915W        W67662  34.363  32.687  20.663  0.4918  0.1305 -0.3730
48916W        W67663   6.380  15.666  25.601 -0.0497 -0.2693  0.0139
48917W        W67664  14.972  28.825  14.194  0.0864 -0.1354 -0.2794
48918W        W67665  24.300  33.504  12.165  0.0413  0.0469  0.0283
48919W        W67666  27.813  18.559  23.920 -0.0715 -0.0513 -0.0673
48920W        W67667   4.873   5.370   6.584  0.1018 -0.1704  0.0478
48921W        W67668  17.856  28.949   6.594 -0.3260 -0.0586  0.1283
48922W        W67669   3.183  32.968   0.726  0.3092 -0.2263  0.1585
48923W        W67670  16.194  17.788  11.950  0.2075  0.3276 -0.1079
48924W        W67671  31.378   2.467  16.190 -0.0918 -0.0556 -0.0156
48925W        W67672  13.852   6.180   8.860 -0.1872  0.0983  0.0168
48926W        W67673  28.049  18.476  20.884 -0.1635  0.1038 -0.1353
48927W        W67674  16.905  21.442   8.088  0.2050 -0.1557 -0.1874
48928W        W67675   0.628  27.417   6.973  0.2987  0.0611 -0.1534
48929W        W67676  32.860  28.294  23.064 -0.0959 -0.0220 -0.1928
48930W        W67677  35.162   5.859  19.588  0.3303  0.0134  0.1118
48931W        W67678  13.857  32.155   2.959 -0.0705  0.3626 -0.0600
48932W        W67679   5.924   6.411  20.210  0.0694  0.1066 -0.0475
48933W        W67680  18.005  34.828  19.910  0.1592  0.2069  0.0163
48934W        W67681   0.132   7.898   4.041  0.2219 -0.0484  0.3158
48935W        W67682  17.774  12.951  10.422  0.2423  0.1050 -0.0618
48936W        W67683  31.501  11.425  12.869 -0.2774  0.0527  0.0245
48937W        W67684   2.515  24.664  18.686  0.3022  0.0695 -0.1565
48938W        W67685  16.530  34.272   8.093 -0.3072 -0.0367 -0.0371
48939W        W67686  27.970  26.817   9.010 -0.1397  0.0151 -0.0701
48940W        W67687   7.780   3.353   3.036 -0.1538 -0.1599  0.2415
48941W        W67688  30.982  17.643   6.784  0.0081  0.1670  0.1622
48942W        W67689   7.374   7.406  20.220 -0.1999 -0.1623 -0.0151
48943W        W67690   0.736  23.228  21.829 -0.0947 -0.1944 -0.0573
48944W        W67691   9.892  21.199  22.815 -0.5229 -0.3059 -0.0936
48945W        W67692   1.607  19.964  19.475 -0.2902  0.0211 -0.0303
48946W        W67693  18.321  22.796   0.289 -0.0762 -0.3091  0.0426
48947W        W67694   6.147   0.687   0.267 -0.2052 -0.2640 -0.5804
48948W        W67695  23.674  11.531   0.775 -0.3761  0.3459  0.1447
48949W        W67696  34.077   7.956  22.189 -0.0013  0.1306 -0.0163
48950W        W67697  33.807  34.271  25.813 -0.1253 -0.1264  0.1292
48951W        W67698  23.005  21.733  20.837 -0.1394 -0.2231  0.0211
48952W        W67699   3.982  27.745  19.717  0.1146  0.3594 -0.1467
48953W        W67700  15.841  14.401   9.823 -0.1650 -0.1563  0.0550
48954W        W67701  22.462  23.257  25.467 -0.2176  0.2100 -0.1372
48955W        W67702   5.771  31.432   6.461  0.1077  0.2044  0.2508
48956W        W67703  10.782   5.402   3.377 -0.1098  0.0817 -0.2939
48957W        W67704  10.554  14.511  24.272  0.3545  0.1661 -0.0152
48958W        W67705  35.338  28.867  19.715 -0.2984  0.1910 -0.0604
48959W        W67706  18.790   4.845  23.279 -0.1573 -0.2948  0.2092
48960W        W67707  33.349  11.565  20.054  0.0716  0.0153  0.1637
48961W        W67708  30.225  34.119  19.834  0.2578  0.1624 -0.1299
48962W        W67709  35.147   3.625  15.408  0.1521 -0.2200  0.1385
48963W        W67710  14.614  26.217   4.571 -0.4403  0.2834 -0.1576
48964W        W67711  28.565   6.956  24.120 -0.0662 -0.0340  0.1647
48965W        W67712  10.973   6.060   4.258  0.1686  0.0845 -0.2864
48966W        W67713   6.338  13.237  21.374  0.2758 -0.0418 -0.1732
48967W        W67714  30.474   9.655  19.361 -0.1153  0.1674  0.2421
48968W        W67715   5.653  29.582   0.819 -0.3366 -0.0149  0.0866
48969W        W67716  28.335  14.259  20.827  0.1342  0.1244 -0.0328
48970W        W67717  33.316  34.187  19.967  0.1175 -0.1650 -0.2844
48971W        W67718   0.055  29.969   7.793  0.1029  0.0960 -0.0316
48972W        W67719  17.201  35.192   1.420  0.3974 -0.0334 -0.0311
48973W        W67720   6.220  14.035  20.225  0.3091 -0.1501  0.2546
48974W        W67721  14.848   4.196   5.640 -0.2895 -0.0802 -0.2668
48975W        W67722  27.691   1.530  26.117  0.3322 -0.1913 -0.0277
48976W        W67723  28.723  28.164  13.999  0.2516 -0.0211  0.3156
48977W        W67724  11.607  11.553   9.111  0.3488 -0.0364 -0.3159
48978W        W67725   7.183  33.544   3.651  0.1133 -0.4016  0.0770
48979W        W67726  22.312  28.706  11.598 -0.1680  0.2901 -0.0351
48980W        W67727  10.716  19.370  26.001  0.0594 -0.2666  0.2691
48981W        W67728  16.936  18.115  11.649 -0.0876  0.2209  0.2797
48982W        W67729  21.241  28.118  18.609 -0.3506 -0.2337  0.3263
48983W        W67730   9.092  17.668  24.105  0.0215 -0.1164 -0.2695
48984W        W67731   9.746  34.654  16.103  0.1434 -0.0459 -0.0991
48985W        W67732   5.392  20.235  21.995 -0.0066 -0.0408  0.0841
48986W        W67733   8.851  31.397  25.857 -0.1655  0.2077 -0.1714
48987W        W67734   7.906   1.286   8.146 -0.5540 -0.0271  0.1866
48988W        W67735  33.226  33.259  13.446  0.0944 -0.2523  0.0875
48989W        W67736   6.289  14.900  17.541  0.1715 -0.0419 -0.0872
48990W        W67737   5.057  21.274  25.131 -0.1986 -0.0850 -0.3827
48991W        W67738   9.290  28.574  13.849 -0.1764 -0.1641 -0.0113
48992W        W67739   3.502  17.793  24.377 -0.1893 -0.2703 -0.0193
48993W        W67740  14.743   3.734   7.284  0.0973 -0.0452 -0.2173
48994W        W67741   3.011   2.440   8.274  0.1525  0.3817 -0.2488
48995W        W67742  14.515  28.892   1.890 -0.0210  0.1760 -0.3150
48996W        W67743   6.851  21.138   6.517  0.0290  0.1507 -0.0641
48997W        W67744  33.647   0.910  21.446 -0.2383 -0.4588  0.1398
48998W        W67745   9.718   6.588  19.763 -0.1986 -0.1832 -0.0535
48999W        W67746  31.787  16.310   0.438 -0.0712 -0.2274  0.2219
49000W        W67747   4.402   5.817   8.782  0.0505  0.2288 -0.1827
49001W        W67748  13.423  11.145  23.234 -0.0793 -0.0556 -0.2112
49002W        W67749   9.948   7.683  19.672 -0.0841  0.1587  0.0786
49003W        W67750  18.291  14.498  21.006  0.0643  0.0149  0.2386
49004W        W67751  24.591  27.031  20.643  0.0979 -0.2057 -0.1158
49005W        W67752  17.688  23.903  23.218 -0.3144  0.1806 -0.2171
49006W        W67753  16.945  17.527   2.808 -0.2390 -0.1354 -0.2256
49007W        W67754   3.909   8.257   8.619 -0.1433  0.2233  0.3931
49008W        W67755  23.089  33.696  21.040 -0.0086 -0.1596  0.0415
49009W        W67756  19.131  10.478  25.067 -0.0397 -0.2228  0.0089
49010W        W67757   6.697  11.350  18.679  0.2862  0.0371  0.1149
49011W        W67758  14.538  29.903  16.019  0.0201  0.0630 -0.0533
49012W        W67759  35.206  19.676  14.513 -0.2343  0.0968 -0.2582
49013W        W67760  27.387   9.129  23.894 -0.0084 -0.0174  0.1734
49014W        W67761   2.951  12.278   2.300  0.1367 -0.2510  0.0862
49015W        W67762   4.534  18.216   4.871 -0.0445 -0.2064 -0.2381
49016W        W67763   2.450  17.395  23.550  0.1070  0.1894 -0.0259
49017W        W67764   5.731   0.907   3.167  0.0313 -0.2244 -0.0490
49018W        W67765  10.214   3.009   4.640 -0.0263  0.0520 -0.2007
49019W        W67766   0.139  15.019  25.411 -0.1098  0.0792 -0.1328
49020W        W67767  31.864  17.379   6.653 -0.0432  0.2107 -0.0105
49021W        W67768   4.347  16.555   2.165 -0.4943  0.0628  0.1924
49022W        W67769  21.635  26.915   2.717 -0.3836  0.1651  0.1495
49023W        W67770   4.994  27.480  23.103  0.0949  0.0788  0.0341
49024W        W67771   6.689  10.737   4.613  0.0473  0.0856 -0.0563
49025W        W67772  18.199  21.900   0.638 -0.0342 -0.1194 -0.0568
49026W        W67773  23.083   4.373  25.705 -0.0227  0.0619  0.2048
49027W        W67774  10.103  16.211   7.133  0.0398  0.1206 -0.3454
49028W        W67775  22.647  23.708  25.534 -0.2875 -0.0118 -0.0279
49029W        W67776   2.093  31.308   4.889  0.1440  0.0043  0.1791
49030W        W67777   2.261   6.080  18.992  0.0701  0.0223  0.2223
49031W        W67778   1.072  18.721  23.757  0.0408  0.1942  0.0563
49032W        W67779  18.199   9.987  19.651  0.0317 -0.1004  0.3066
49033W        W67780   1.832  27.082  23.811 -0.0053 -0.1733 -0.0404
49034W        W67781   6.656   6.799   2.269  0.3160 -0.2504 -0.0810
49035W        W67782  17.570  13.531  20.703  0.0716 -0.1669 -0.1682
49036W        W67783  31.283   9.874  18.799  0.0996 -0.1913 -0.1675
49037W        W67784   6.748   1.268  11.304  0.2374  0.0285 -0.1557
49038W        W67785  10.441  20.540  23.208 -0.2232  0.1341  0.0783
49039W        W67786  10.258  22.590   3.948 -0.0120 -0.0212  0.2077
49040W        W67787  30.451  24.275  20.686  0.2204 -0.0562  0.1956
49041W        W67788  31.035  32.570   6.442  0.1210  0.0979  0.1088
49042W        W67789  27.351   7.984  12.796  0.2712  0.1018 -0.3946
49043W        W67790   2.959  18.621  14.577  0.1856  0.5747 -0.4232
49044W        W67791  10.467  21.256   8.697  0.2502 -0.1350 -0.0597
49045W        W67792   3.233  10.036  22.019  0.2499  0.0988 -0.0536
49046W        W67793   3.904  33.742   2.539 -0.1625  0.1189  0.0490
49047W        W67794  33.337  12.791  16.893  0.1038  0.3065 -0.1613
49048W        W67795  11.220  25.360  25.000  0.0059 -0.2132  0.1655
49049W        W67796  17.021  32.057  23.285  0.0314 -0.1736  0.4596
49050W        W67797  29.881  23.663   6.435 -0.2408 -0.1162 -0.1261
49051W        W67798  19.285   3.526   6.951 -0.2061  0.1601 -0.5128
49052W        W67799  15.054   5.023  12.571  0.0527 -0.1493  0.4118
49053W        W67800   8.374   2.073  19.944 -0.0489  0.4058  0.1452
49054W        W67801  29.049   9.794  17.559 -0.2854  0.2708  0.2376
49055W        W67802   0.250   0.898  20.458  0.0761 -0.1679 -0.3147
49056W        W67803   9.802  19.284   6.799  0.0041  0.2680 -0.3244
49057W        W67804  22.502  25.425  20.064  0.3162 -0.0152  0.2435
49058W        W67805   4.437  11.246  18.148 -0.3563  0.0164 -0.0883
49059W        W67806   1.946  24.598  24.607 -0.1742 -0.2063 -0.2173
49060W        W67807  31.706   3.635   5.969  0.3668  0.2980  0.1537
49061W        W67808  27.477  20.581  16.589 -0.2670 -0.3509  0.1187
49062W        W67809   7.063  27.842  25.919 -0.0443  0.2289 -0.1635
49063W        W67810  30.787  21.196  24.202 -0.2747  0.0501 -0.0292
49064W        W67811  28.581  29.341  13.399 -0.0554  0.6322  0.0431
49065W        W67812  19.117  20.756  23.279 -0.1678  0.0334 -0.0908
49066W        W67813  30.990  25.299  11.198 -0.0093  0.1403 -0.0733
49067W        W67814  11.902  11.480  11.101 -0.3286 -0.0848 -0.0377
49068W        W67815  10.371   6.523  14.515 -0.1128 -0.0515  0.1988
49069W        W67816   7.364  21.865  24.639  0.0555 -0.0721 -0.1043
49070W        W67817  10.481  28.996  23.548  0.0498 -0.3257 -0.0433
49071W        W67818   0.502  32.981   2.073  0.0266  0.2404 -0.0778
49072W        W67819   4.842  28.563  20.612  0.5577 -0.0897 -0.2477
49073W        W67820  22.483  22.286  16.272 -0.1776 -0.2534  0.2095
49074W        W67821  32.340  20.417  24.160 -0.0386  0.3409  0.0020
49075W        W67822  12.600  14.234  23.008  0.0235  0.1172 -0.1397
49076W        W67823  12.394  13.070   1.889  0.0262 -0.1334  0.1247
49077W        W67824  24.860  30.475   4.033  0.0002  0.3386 -0.1593
49078W        W67825  15.583  25.688   2.437  0.0745 -0.1936  0.0083
49079W        W67826  26.978  28.926  24.499 -0.1429  0.0692  0.1326
49080W        W67827   1.281  23.118  25.664 -0.0129 -0.5204  0.3726
49081W        W67828   0.365  12.855  11.590 -0.1769 -0.1418 -0.0975
49082W        W67829  16.198   4.622  12.458  0.0891  0.0137 -0.0350
49083W        W67830  31.277  34.324  24.021  0.0598  0.1946  0.0370
49084W        W67831  32.405   3.657  25.726  0.3336 -0.0299  0.3728
49085W        W67832  19.321  28.061   7.370  0.1127  0.3022 -0.1529
49086W        W67833  15.024  17.231  24.300  0.0599 -0.1685  0.1218
49087W        W67834  12.013  24.310   1.943 -0.1517 -0.4666  0.1473
49088W        W67835   3.333  12.553   4.353 -0.1602 -0.1898  0.1781
49089W        W67836  10.126  11.728  12.587  0.0851 -0.1804  0.0595
49090W        W67837   6.627  31.218  26.135 -0.1879 -0.0869  0.0448
49091W        W67838  29.642  31.489  20.902 -0.1758 -0.1322 -0.0644
49092W        W67839  19.763  33.085   2.130 -0.1607  0.2521  0.0061
49093W        W67840  31.751  15.763  25.991  0.3832 -0.1804  0.0504
49094W        W67841  33.372  17.260  23.417  0.0870  0.0893 -0.2090
49095W        W67842  21.221  14.192   3.967 -0.2330 -0.0436 -0.0773
49096W        W67843  31.719   1.058   1.426  0.1459 -0.4973 -0.0216
49097W        W67844  21.150   5.902  16.648 -0.0817  0.2005 -0.0275
49098W        W67845  10.313  34.687  11.589  0.1585 -0.4009 -0.0614
49099W        W67846   3.068  12.010  22.471 -0.1687 -0.0282 -0.0070
49100W        W67847  27.887  17.565  25.019  0.1819 -0.1233 -0.3118
49101W        W67848  34.390   1.688   2.631  0.0812  0.4028  0.0529
49102W        W67849  30.342  19.906  21.072  0.0637 -0.0899  0.0490
49103W        W67850  16.081   7.275  22.185 -0.2538  0.0956 -0.2018
49104W        W67851   2.510  35.308  18.787 -0.2595  0.2402  0.0185
49105W        W67852   5.319  32.387   1.289 -0.1887 -0.2049  0.0273
49106W        W67853  17.977  24.746  24.455  0.4374 -0.0543 -0.1674
49107W        W67854  20.011  32.048   7.487 -0.1281 -0.3345 -0.3412
49108W        W67855  16.421  21.852  11.005  0.0316  0.3477  0.2169
49109W        W67856  31.220   5.873  13.966 -0.0050  0.0090 -0.1344
49110W        W67857  20.021  14.244  23.867 -0.0679  0.4340  0.2625
49111W        W67858  26.335  11.383   2.079 -0.0695  0.0891  0.0429
49112W        W67859  13.569  23.957  11.725 -0.0259 -0.0072  0.0639
49113W        W67860  32.193  11.011  19.562 -0.1338  0.1860  0.1257
49114W        W67861  30.331  34.833  18.356 -0.0357  0.1309  0.1454
49115W        W67862  32.321  21.082   6.292  0.0323  0.0715  0.0402
49116W        W67863  19.404  33.655  24.365  0.1584 -0.1643 -0.0963
49117W        W67864   2.878   0.686  22.839  0.1766 -0.2037  0.2178
49118W        W67865  30.313  26.656  18.618  0.2726  0.0998 -0.1327
49119W        W67866   2.894  11.248  24.559 -0.0497  0.0086  0.2558
49120W        W67867  26.234  19.559  17.104  0.0326 -0.3156 -0.0620
49121W        W67868  11.047   9.454  10.458  0.1039  0.2102  0.1063
49122W        W67869   6.780   7.245  12.609  0.4190 -0.1096 -0.1616
49123W        W67870  28.859  14.284   6.126  0.1203  0.0872 -0.3418
49124W        W67871  24.180  25.297  26.191 -0.2319 -0.0688  0.0813
49125W        W67872   7.047   3.876  24.541  0.1080 -0.2593  0.0209
49126W        W67873  30.941  24.459  25.806 -0.2337 -0.2275 -0.0718
49127W        W67874  15.979   2.389   7.082  0.1130  0.0941 -0.3513
49128W        W67875   9.773  13.411  20.923 -0.0688 -0.5529 -0.0474
49129W        W67876  27.448   0.716  21.933 -0.3063  0.2350 -0.2927
49130W        W67877  21.125  24.200   2.206  0.0143  0.1396  0.2018
49131W        W67878   6.581  32.121  24.549 -0.0281 -0.2214 -0.0354
49132W        W67879  11.249  30.404  11.060  0.0533 -0.1204 -0.0147
49133W        W67880  13.982  16.099  14.094  0.2084 -0.1918  0.1050
49134W        W67881   4.562  14.400  20.532 -0.0090  0.1367  0.0565
49135W        W67882   9.865  14.856   6.046  0.2367  0.0512 -0.1628
49136W        W67883  34.685   0.268  24.932 -0.2437  0.1366 -0.0492
49137W        W67884  26.490  32.000  11.086 -0.1725  0.0358  0.1097
49138W        W67885   1.396   7.777  16.064 -0.1033 -0.1593 -0.2404
49139W        W67886   4.585  12.330  21.140 -0.3549 -0.2149  0.0524
49140W        W67887  32.436   8.806  16.624  0.3191  0.1257  0.0703
49141W        W67888  28.007  34.729  19.820 -0.0168  0.0965 -0.2968
49142W        W67889   6.630  25.187   0.199  0.0820  0.2831  0.0536
49143W        W67890  32.171  27.507  21.035 -0.1091  0.0573 -0.2989
49144W        W67891   7.539  23.183  21.362 -0.1571 -0.3848  0.1064
49145W        W67892  16.119  34.061   0.903 -0.1720 -0.0757  0.1011
49146W        W67893  17.394  34.393   5.003  0.0139  0.2867  0.2857
49147W        W67894  25.071  12.716  25.079 -0.3414  0.0619 -0.0242
49148W        W67895  32.479  15.003   8.256 -0.0002  0.0945 -0.1976
49149W        W67896   7.539  17.215   5.930 -0.0469  0.1690  0.2710
49150W        W67897  34.661   1.465  19.572 -0.1599  0.0041  0.0210
49151W        W67898  34.606   4.698  18.908 -0.2938  0.1853  0.1798
49152W        W67899  21.504  11.523  21.131  0.0636 -0.1188 -0.3552
49153W        W67900  10.017   8.768   4.429  0.1529  0.2503 -0.0927
49154W        W67901  31.320  14.801  25.214 -0.2016  0.0696 -0.0850
49155W        W67902  21.131   9.372   7.894 -0.1707  0.0308 -0.1700
49156W        W67903  10.273  22.028  17.408 -0.0285  0.1091 -0.1519
49157W        W67904  26.038  13.650  16.081  0.2131  0.3520 -0.1971
49158W        W67905  30.531  32.045   0.371 -0.1380  0.0011 -0.0680
49159W        W67906   3.240  12.007  19.110 -0.1457 -0.0403 -0.0913
49160W        W67907  22.586  22.461  17.190  0.0716 -0.0640  0.1049
49161W        W67908   1.314   9.011   0.526  0.0860  0.2617 -0.0717
49162W        W67909   5.792  28.053   9.125 -0.1416  0.0865  0.1458
49163W        W67910  31.783  21.914  20.860 -0.1789 -0.0887 -0.2104
49164W        W67911  20.064  33.844   1.802  0.0451 -0.0669  0.1773
49165W        W67912   6.092  27.586  23.514 -0.1241 -0.0126 -0.4581
49166W        W67913  20.186  28.718  19.175  0.1229 -0.0247  0.0430
49167W        W67914  17.629   3.251  21.512 -0.2236  0.2560 -0.2124
49168W        W67915  13.222  27.534  11.945 -0.1271  0.0190  0.1803
49169W        W67916  10.573   2.990  12.310  0.1176 -0.0094  0.2197
49170W        W67917  25.508  20.535  19.150  0.0996 -0.0812 -0.0556
49171W        W67918  12.351  32.013   9.764 -0.0433 -0.0445  0.1159
49172W        W67919  22.462  15.273  22.207 -0.3015  0.0692 -0.1638
49173W        W67920   6.662  26.774  22.309  0.1916 -0.2819 -0.1315
49174W        W67921  12.012   6.123   0.522  0.1925 -0.0706  0.1894
49175W        W67922  18.847   9.522   0.500 -0.2732 -0.2482  0.1747
49176W        W67923   7.983  17.208  24.022  0.0360 -0.0486  0.1268
49177W        W67924  32.341  34.386  13.242  0.1365  0.2654 -0.0325
49178W        W67925  28.680   7.902  19.255 -0.3007 -0.0157 -0.4202
49179W        W67926   8.748  25.063  11.824 -0.0926  0.0483 -0.0894
49180W        W67927   2.341  23.795  19.842  0.2481 -0.2778  0.4091
49181W        W67928  27.364  24.075  17.032 -0.1106 -0.0524 -0.0284
49182W        W67929   0.273  13.258  17.320  0.0871 -0.0706  0.1875
49183W        W67930  13.930  28.472  25.106  0.0304  0.0820  0.0377
49184W        W67931  15.182   2.862   8.285 -0.2270 -0.3904  0.0311
49185W        W67932  16.418  21.073  13.205  0.0978 -0.0381  0.2739
49186W        W67933  23.135  11.441  20.733 -0.1983  0.0583 -0.2194
49187W        W67934   6.175  31.378   8.550  0.3370 -0.2414  0.0413
49188W        W67935  19.472   8.306  18.841 -0.2410 -0.3595  0.1336
49189W        W67936   1.990  16.983  17.118 -0.3745 -0.1667 -0.2182
49190W        W67937  30.105   2.957  13.397 -0.1527  0.0897 -0.0585
49191W        W67938  23.440  15.821  17.922  0.3581 -0.2698  0.0727
49192W        W67939   9.327  33.403   9.872  0.1742  0.1633  0.0156
49193W        W67940  24.740  15.234   0.280  0.2062  0.3357  0.1105
49194W        W67941  15.621  17.095  13.953 -0.2383 -0.1442 -0.2131
49195W        W67942   0.140   3.423  20.813 -0.0745  0.0714  0.3987
49196W        W67943   7.248  31.442  25.211  0.0332 -0.1085  0.0714
49197W        W67944  29.925   2.297  15.898 -0.2634  0.1511  0.2413
49198W        W67945  11.750  19.949   6.167  0.0764 -0.1150 -0.2198
49199W        W67946   0.928  26.267  25.090  0.4818 -0.2103 -0.1059
49200W        W67947  35.036  26.203  19.460  0.1302  0.0814  0.0451
49201W        W67948  18.603  14.488  22.500  0.1380 -0.0612  0.2301
49202W        W67949  26.786   1.144  19.409  0.2163  0.1574 -0.0773
49203W        W67950   6.587  27.503  25.065  0.3488 -0.2086 -0.0983
49204W        W67951  19.602  21.164  25.768  0.2512  0.1693 -0.0676
49205W        W67952  14.383  31.883   6.176  0.3070  0.0937  0.1942
49206W        W67953  34.526  31.791  25.876 -0.0161  0.1220  0.0184
49207W        W67954   4.916   6.780  22.921  0.1675 -0.0609  0.1799
49208W        W67955  11.073  33.035   0.929 -0.0863 -0.0669  0.1684
49209W        W67956  10.752   9.712   7.896  0.2827 -0.0334  0.0944
49210W        W67957   8.029   2.644   8.524 -0.0292 -0.0919  0.0681
49211W        W67958  21.634  25.792  20.120 -0.0841  0.0174  0.0026
49212W        W67959  13.147  29.452  13.965  0.2757  0.0116  0.1399
49213W        W67960  21.401  15.918  16.366 -0.2989 -0.2076 -0.1744
49214W        W67961   9.669  29.011   8.277 -0.0363  0.0754 -0.1369
49215W        W67962   3.925   5.347   3.282 -0.3078 -0.2766  0.2114
49216W        W67963  25.732  17.169   5.688  0.2495 -0.1800 -0.4165
49217W        W67964   0.604  29.019  17.521 -0.1180 -0.0428  0.0324
49218W        W67965   9.439  30.451  15.735  0.1175 -0.0789 -0.0063
49219W        W67966  34.230   1.035  25.267  0.1798  0.0317  0.0174
49220W        W67967   3.981  19.411   0.115  0.1302 -0.2103 -0.1512
49221W        W67968   5.388   4.982  19.587  0.0641  0.0864 -0.1532
49222W        W67969   0.236  20.728   0.826 -0.2206 -0.0911 -0.1364
49223W        W67970  29.100  16.922  10.324  0.1301  0.0201 -0.0296
49224W        W67971  33.709   1.282   5.305 -0.2823 -0.2025  0.1812
49225W        W67972  32.865  10.404  25.954  0.0047  0.4296  0.3524
49226W        W67973  13.726  12.194  11.384 -0.1222  0.1209 -0.0307
49227W        W67974  16.803  30.117   3.516  0.5858  0.1384  0.0207
49228W        W67975  29.743  20.609  21.149  0.1358  0.2020 -0.0408
49229W        W67976  33.860  20.185   0.371 -0.0701 -0.3735 -0.1234
49230W        W67977  20.325  34.941  17.205  0.1089 -0.0099 -0.0274
49231W        W67978  16.421  24.478  23.083  0.1816  0.5049  0.0412
49232W        W67979  24.103  10.659  11.487  0.1519  0.0513 -0.2208
49233W        W67980  34.388  18.977  21.505  0.1212  0.0182 -0.0999
49234W        W67981  10.456   0.070   3.652 -0.2985  0.0667  0.1688
49235W        W67982   3.674  26.496   7.049 -0.0391  0.0324  0.2515
49236W        W67983  26.377  32.348  25.898  0.2626 -0.1239 -0.0026
49237W        W67984   4.414  17.842  20.969  0.2122  0.1374  0.0334
49238W        W67985  15.728   3.279  18.077  0.0224  0.0927 -0.0535
49239W        W67986  34.481  34.769   5.449 -0.0816  0.0557  0.1727
49240W        W67987   0.524   2.779  18.772 -0.0786 -0.2903 -0.0489
49241W        W67988  19.046   4.718   9.132 -0.0138 -0.2463 -0.1385
49242W        W67989  14.910   8.497   2.422 -0.4846  0.2042 -0.0385
49243W        W67990   5.591  31.344  21.356 -0.0584 -0.1272 -0.1710
49244W        W67991  32.044  30.978   1.711  0.0893 -0.1857  0.1898
49245W        W67992  33.893  31.919  24.850  0.1724  0.2642 -0.1214
49246W        W67993   4.696  28.771   5.340 -0.1513 -0.2513 -0.0596
49247W        W67994   9.530  21.130  11.328 -0.1143 -0.4516 -0.0869
49248W        W67995   0.172  32.334   8.270  0.2154  0.2393  0.0434
49249W        W67996  11.712  33.632  10.191  0.1326 -0.1783  0.2209
49250W        W67997   6.462  29.937  24.842 -0.1672 -0.1224  0.0301
49251W        W67998  11.060  21.502  12.578  0.5372 -0.0512 -0.1671
49252W        W67999  32.673  32.869   6.476  0.0585  0.2402 -0.1671
49253W        W68000   4.236   3.825   4.256  0.0347 -0.0236  0.0435
49254W        W68001  17.482  22.685  20.252  0.0381 -0.1593 -0.3054
49255W        W68002   1.143   2.801  22.540  0.0583  0.1364 -0.2536
49256W        W68003   1.781  32.131  26.191 -0.1047 -0.3211  0.3154
49257W        W68004  11.307  31.455  21.259  0.0136  0.1746  0.1014
49258W        W68005  14.436  24.900   8.810  0.0164  0.3892 -0.0614
49259W        W68006  16.918  10.856   1.463 -0.1387  0.0679 -0.0428
49260W        W68007  24.789   4.080  13.111 -0.1932  0.2426  0.0909
49261W        W68008   3.507  19.083  19.853 -0.1210 -0.1068 -0.1488
49262W        W68009  14.482   7.732  11.204 -0.0772 -0.1550 -0.4110
49263W        W68010  24.988  12.963  24.171 -0.0357 -0.1340  0.1889
49264W        W68011  32.874   7.084  12.708  0.1937 -0.1689  0.3802
49265W        W68012  22.640   6.341  20.759 -0.7634 -0.0838 -0.0991
49266W        W68013   0.420  22.476   1.918  0.1097 -0.3143  0.1173
49267W        W68014  33.531  25.256  25.731 -0.1408 -0.0837 -0.0048
49268W        W68015   6.884   5.755   3.869  0.1769 -0.1457 -0.2444
49269W        W68016  22.075   1.237   1.076 -0.1350  0.1426 -0.1454
49270W        W68017   0.413  10.446   1.055  0.1750  0.2119 -0.2266
49271W        W68018  31.814  15.694  15.073  0.2171 -0.1430  0.2307
49272W        W68019  12.135  11.085  10.922 -0.0919 -0.0670  0.2620
49273W        W68020  21.240  16.340   3.888  0.0738 -0.0168 -0.0202
49274W        W68021  29.010  10.847  17.240  0.3337 -0.0561  0.1383
49275W        W68022  11.028  14.017  23.630 -0.1206 -0.1637 -0.3451
49276W        W68023  25.234  33.992  17.902 -0.0612 -0.0555  0.0386
49277W        W68024  19.862  29.186  22.317 -0.2719  0.0844  0.0271
49278W        W68025  12.348  12.157  24.950  0.2303 -0.1391  0.2996
49279W        W68026  12.641  12.810  23.932 -0.2636 -0.2359 -0.2241
49280W        W68027   9.022   4.158  19.143  0.1488 -0.0606  0.1420
49281W        W68028  11.497  32.672   2.805  0.1428 -0.0903 -0.0758
49282W        W68029  21.595  27.780  15.376 -0.0519 -0.2538 -0.0042
49283W        W68030   9.707  15.129  11.178 -0.2087 -0.1178  0.3271
49284W        W68031  15.562  16.091  13.458 -0.3785 -0.0307 -0.2978
49285W        W68032  10.191  32.295   6.196  0.0339  0.0687  0.3517
49286W        W68033   4.859  27.333  13.452  0.0909  0.0626  0.0713
49287W        W68034   9.652  15.742  12.077  0.2152 -0.1853  0.1449
49288W        W68035   8.166  20.170   5.430 -0.0450 -0.0836  0.0929
49289W        W68036   8.361  27.454  17.026  0.0319 -0.0473  0.0385
49290W        W68037  28.733   8.500  14.859 -0.1800  0.2252 -0.0324
49291W        W68038  25.088   4.788   4.702  0.0955  0.0930 -0.1815
49292W        W68039   3.759  26.709  23.725  0.1084  0.1044  0.1968
49293W        W68040   3.224  23.729  24.199 -0.1259 -0.1618 -0.0109
49294W        W68041   5.537  26.867   8.410  0.1500  0.0228  0.1824
49295W        W68042  26.683  32.980   3.685  0.0641 -0.2548  0.4733
49296W        W68043  19.796  27.222  22.690  0.2099  0.0965  0.1153
49297W        W68044  12.721   2.916  11.567  0.1628 -0.3494 -0.1078
49298W        W68045   4.096   8.913  21.858 -0.0954 -0.2207 -0.2696
49299W        W68046  17.636  27.475  11.917  0.3205  0.1134  0.0235
49300W        W68047  27.232   4.942  24.499  0.2557  0.0813 -0.1654
49301W        W68048  27.089   4.043  16.654  0.1143 -0.1882  0.0074
49302W        W68049   4.288   3.447   7.055 -0.0261 -0.2748 -0.1518
49303W        W68050  25.140  17.337  18.078  0.1408 -0.3002  0.1052
49304W        W68051   1.954  23.561  19.616 -0.0133  0.0926  0.1692
49305W        W68052  26.415  24.041  14.076  0.0642  0.4417  0.0053
49306W        W68053  29.951  33.155  20.312 -0.1883 -0.1002  0.2001
49307W        W68054  14.723  24.785  23.888  0.0873 -0.0308  0.1956
49308W        W68055  19.592  33.339   7.018  0.0688 -0.2551  0.0357
49309W        W68056   8.649  32.204  15.485  0.2825  0.3359 -0.2091
49310W        W68057   4.178   4.887  16.810 -0.5298  0.2238 -0.4674
49311W        W68058  25.895  15.060  23.677  0.1120 -0.1531 -0.1340
49312W        W68059  24.492   5.556   0.291  0.3584  0.1411  0.2488
49313W        W68060  29.064  17.834  13.386  0.0770  0.0643 -0.2626
49314W        W68061  30.603  26.376  16.552  0.0250  0.0901 -0.1821
49315W        W68062  10.719  18.205   0.382 -0.0084  0.0511 -0.0615
49316W        W68063  17.846   0.631  16.677  0.0210 -0.2801  0.2054
49317W        W68064   6.037  30.110   5.306 -0.2305  0.1806  0.0112
49318W        W68065  12.096  27.454  22.224 -0.1392  0.0116 -0.2392
49319W        W68066  28.044   3.361  18.714 -0.3838 -0.1422 -0.0613
49320W        W68067  16.102  20.203  13.684  0.3476 -0.1050  0.0797
49321W        W68068  10.256  25.681   3.716 -0.0122  0.2719  0.0946
49322W        W68069   7.856  13.126   4.468 -0.3603 -0.0713  0.0058
49323W        W68070  20.588   6.192   5.523  0.0336 -0.2977 -0.1527
49324W        W68071  25.229  23.302  24.945  0.4827 -0.1283 -0.2733
49325W        W68072  33.472  20.545  11.837  0.1813 -0.2047 -0.0821
49326W        W68073  19.730  14.587  20.503 -0.0826 -0.2416 -0.2228
49327W        W68074   9.261  27.154  15.936  0.3520  0.2357  0.2736
49328W        W68075   0.377  28.520   7.808 -0.2081 -0.1600 -0.0086
49329W        W68076  11.183   6.244  14.078  0.0932  0.0044 -0.0376
49330W        W68077  29.033  35.042  16.811  0.3086  0.1205  0.1762
49331W        W68078   3.851  17.484  25.336 -0.0593 -0.0191 -0.1260
49332W        W68079   6.536  25.195   9.541 -0.4132 -0.0274 -0.0153
49333W        W68080  14.209  27.728  16.935 -0.0004 -0.1982  0.1545
49334W        W68081  33.443  23.688  22.339  0.0928  0.2712 -0.1896
49335W        W68082  14.411   7.788  22.510 -0.0951 -0.0614 -0.4714
49336W        W68083   2.063   3.039  16.523 -0.0897 -0.2542  0.1546
49337W        W68084  18.727  13.317  20.759 -0.6197  0.2094  0.2960
49338W        W68085  30.638  29.998  15.924  0.4121 -0.0367  0.1658
49339W        W68086  15.591  33.605   5.320  0.0489 -0.1331 -0.0362
49340W        W68087   4.493   3.433   2.689  0.0121 -0.1848  0.0511
49341W        W68088  22.764   0.555   0.493  0.0933 -0.0546 -0.0935
49342W        W68089  12.260  28.548  25.661 -0.2095 -0.2599  0.3185
49343W        W68090   8.030  13.096  21.632  0.1745 -0.2326  0.0897
49344W        W68091  32.146   3.483   3.754 -0.1083 -0.2401  0.1158
49345W        W68092  21.108  31.411  24.311 -0.0298  0.3125  0.2205
49346W        W68093   7.920   7.588  10.983 -0.1741  0.0710  0.2990
49347W        W68094  24.222  17.097  16.725 -0.1299  0.0576  0.0045
49348W        W68095  10.077  29.702   4.911 -0.0558  0.1790 -0.0727
49349W        W68096  34.453  10.006  24.457  0.3136 -0.1749 -0.3230
49350W        W68097  32.534   5.823  13.013 -0.1490  0.1143  0.0378
49351W        W68098  30.061  17.852  17.418 -0.5275  0.1130  0.1931
49352W        W68099  27.432  27.334  25.334  0.1767  0.2495 -0.0470
49353W        W68100  33.144  17.684   6.090 -0.3000  0.1849  0.0326
49354W        W68101  34.722  30.955   1.215  0.1971  0.1682  0.4578
49355W        W68102  10.385  34.404   7.049 -0.0627 -0.0715  0.3378
49356W        W68103  17.456  12.097  21.738 -0.0866 -0.4269 -0.0187
49357W        W68104  33.009  31.771  20.464 -0.0435 -0.0024  0.2565
49358W        W68105  30.324   7.948   0.457 -0.2444 -0.0363 -0.0701
49359W        W68106   3.927  29.917   4.473 -0.1291  0.2498 -0.0275
49360W        W68107  33.116   7.875   2.781 -0.1089  0.1092  0.0430
49361W        W68108   9.993  14.463   7.761 -0.1253  0.0331 -0.0652
49362W        W68109   6.680  13.576   5.446  0.1918 -0.0929  0.1361
49363W        W68110  27.101  25.866  15.532 -0.1160  0.1903  0.2695
49364W        W68111   9.846  35.208  22.988  0.0495 -0.2278 -0.1589
49365W        W68112   3.711  30.935  10.778  0.2399 -0.2135  0.0370
49366W        W68113  31.295  14.255  14.563  0.1516 -0.0081  0.3032
49367W        W68114  19.926  17.787  20.264  0.0416  0.1733  0.0700
49368W        W68115   8.945  22.566   0.258  0.0520  0.0979  0.4435
49369W        W68116  10.598   8.123  13.986 -0.0592 -0.0459  0.1878
49370W        W68117   0.947  21.712  19.924 -0.1711 -0.0497 -0.0810
49371W        W68118  34.296  12.742  14.829 -0.1872  0.1674 -0.0699
49372W        W68119  10.483   2.726   1.658 -0.3411  0.3019 -0.0067
49373W        W68120   3.368  20.469  25.616 -0.2067 -0.4338 -0.0689
49374W        W68121  21.093  16.701  17.208 -0.2174  0.1087  0.4140
49375W        W68122   6.022   7.911  11.225 -0.0818 -0.3168  0.2162
49376W        W68123  30.296  30.827   5.391  0.1030 -0.0740  0.0471
49377W        W68124  16.981  19.457   7.142  0.1954  0.3011 -0.0628
49378W        W68125  14.685   8.733   7.883  0.0081 -0.0395 -0.2065
49379W        W68126  17.487   3.917  25.669 -0.0977  0.1951  0.4767
49380W        W68127   5.162   2.441   6.972  0.3249  0.1056  0.1469
49381W        W68128  34.101   9.942  16.987  0.3199 -0.0796 -0.2036
49382W        W68129  18.703  34.377   6.764  0.1541 -0.0552 -0.2425
49383W        W68130  32.637   7.743  23.728 -0.1314 -0.4426 -0.1140
49384W        W68131  29.158  15.268   4.447  0.0352  0.0910  0.1605
49385W        W68132   0.566   1.269  25.273  0.0683 -0.0550 -0.0490
49386W        W68133  19.841  26.937   2.667  0.2631 -0.2124 -0.2942
49387W        W68134   0.186  16.240   0.276  0.3344  0.1157 -0.3609
49388W        W68135  24.026  12.581  14.543  0.1437 -0.3726 -0.0390
49389W        W68136  23.262  24.585   4.335  0.1689  0.1277  0.1757
49390W        W68137  17.235  23.546  14.642 -0.1777 -0.0414 -0.4156
49391W        W68138   3.800  18.320  17.222 -0.4156  0.0736  0.0546
49392W        W68139  13.626   1.280  11.587  0.4404 -0.1994  0.0671
49393W        W68140   3.016  14.912  22.535 -0.0796 -0.0566  0.0426
49394W        W68141   6.659  14.779   7.141  0.0807 -0.2263  0.1679
49395W        W68142   0.498  10.146  23.618 -0.3880 -0.0307 -0.3454
49396W        W68143  12.477   2.723   4.668  0.0806  0.4300  0.0577
49397W        W68144  25.950  19.051  19.228  0.1890  0.1967  0.1850
49398W        W68145  27.593  14.548   9.602  0.0056  0.0911 -0.0267
49399W        W68146  30.252  21.011  14.378  0.0090  0.3289  0.2443
49400W        W68147   4.352  29.305  26.101  0.0064 -0.0228  0.2529
49401W        W68148  28.837  26.560   8.589  0.1138  0.3002  0.0396
49402W        W68149  23.720   3.753   0.308 -0.0640 -0.2629  0.0420
49403W        W68150   4.888  29.837   5.990  0.0478 -0.1695  0.0817
49404W        W68151  17.064   3.575   3.732 -0.2465 -0.0630  0.0380
49405W        W68152   0.906   4.185   2.758 -0.0627 -0.0643  0.1224
49406W        W68153  25.336  19.031  22.964  0.4195 -0.0073 -0.0383
49407W        W68154  33.826  19.720   6.424  0.1658  0.1612 -0.0130
49408W        W68155  26.578  25.506  20.522  0.4698 -0.1707 -0.2286
49409W        W68156   4.667  29.637  23.191 -0.2855  0.0826  0.1879
49410W        W68157  11.020  19.567   0.105 -0.1001  0.0452 -0.0513
49411W        W68158  26.076  23.886   9.018  0.0458 -0.1241  0.0575
49412W        W68159  16.331  18.059  21.735  0.0137 -0.1738  0.0754
49413W        W68160  24.581  10.606  18.304 -0.1215 -0.0857 -0.3246
49414W        W68161   9.052  34.131   7.647 -0.0690  0.0388 -0.0842
49415W        W68162   9.628  26.377  24.893 -0.2940 -0.1405 -0.1042
49416W        W68163   9.826  20.631  14.957 -0.4299 -0.1525  0.2350
49417W        W68164   9.361   9.252  18.982  0.3394  0.0377 -0.0047
49418W        W68165  26.354  12.260  25.464 -0.3012 -0.2905  0.1751
49419W        W68166  14.137   3.217  20.240 -0.2058  0.1992  0.0844
49420W        W68167   2.858  30.904   9.043 -0.1344  0.0479  0.2840
49421W        W68168  16.273  29.475  25.326 -0.1044 -0.5284  0.0025
49422W        W68169  15.342   8.025   0.351  0.0926 -0.2686 -0.2317
49423W        W68170  12.897  13.730   9.449  0.0276 -0.0760 -0.3081
49424W        W68171  30.100   3.174   5.281  0.0791 -0.2180  0.0424
49425W        W68172  33.079  11.370  25.742 -0.0410 -0.0190  0.1752
49426W        W68173  17.695  16.647  23.032 -0.0761 -0.0503 -0.0220
49427W        W68174  30.933  33.372   1.213  0.0305 -0.0535  0.2212
49428W        W68175  16.772  24.874   9.702 -0.4609 -0.0995 -0.1977
49429W        W68176   8.373   4.937  13.018  0.2334  0.4496  0.1188
49430W        W68177  29.033   8.071  18.401 -0.0729  0.3335  0.0077
49431W        W68178  12.421   0.910   0.467  0.1061 -0.1515 -0.3183
49432W        W68179  10.728  13.132  21.985 -0.0996 -0.1360 -0.0276
49433W        W68180  19.014  15.853   3.224  0.0375 -0.2084  0.0753
49434W        W68181  16.652  34.699   2.114  0.1240  0.2985 -0.1312
49435W        W68182  32.513  19.629  24.144 -0.1790 -0.1440 -0.0140
49436W        W68183  30.465  21.155  13.707  0.3609 -0.0922 -0.2616
49437W        W68184   3.950   4.978   6.007 -0.0430  0.2903  0.2366
49438W        W68185  28.684   2.154  18.422  0.2303  0.4479  0.1432
49439W        W68186  28.660  27.635  13.882  0.1198  0.1477 -0.0101
49440W        W68187  11.447  22.410  22.445 -0.1777 -0.2055 -0.0847
49441W        W68188  16.258  14.107  23.391  0.1086 -0.1334 -0.3172
49442W        W68189   9.697   3.244   6.165  0.0181  0.0976  0.1902
49443W        W68190   9.181  24.214  17.270 -0.1542  0.1153 -0.3816
49444W        W68191  24.490  17.410  11.592 -0.0850 -0.1984 -0.0085
49445W        W68192  13.914   5.420   7.506  0.1342  0.4362 -0.0545
49446W        W68193  15.832  35.012   2.881 -0.0285  0.3172  0.0691
49447W        W68194  19.437   9.748  20.522  0.0119  0.1142  0.1708
49448W        W68195  17.084  20.691  24.618  0.2616 -0.0227  0.1697
49449W        W68196  21.854   5.457  20.534 -0.1649  0.1939  0.0491
49450W        W68197  20.476  30.279  13.687  0.0736  0.1131  0.0285
49451W        W68198  24.031   2.503  26.165 -0.1918  0.1961  0.2104
49452W        W68199  20.362  23.737   4.008  0.0753 -0.1619  0.1792
49453W        W68200   7.488  19.512  12.568 -0.0520 -0.3678  0.2587
49454W        W68201  21.979   8.609   7.993  0.3123 -0.1785 -0.2765
49455W        W68202  28.091  10.435  11.217 -0.0843  0.1839 -0.2031
49456W        W68203  35.375  29.103   6.384 -0.2572 -0.1882  0.0070
49457W        W68204  16.027   2.909   8.858  0.2279 -0.1782  0.1176
49458W        W68205  13.194  23.495  15.168 -0.0204 -0.0160 -0.2143
49459W        W68206   6.953  29.443  10.163 -0.1511  0.3485 -0.1067
49460W        W68207   7.363   7.618   8.042 -0.1152  0.0371  0.2748
49461W        W68208  18.663   6.681  24.214  0.1657  0.3437  0.0412
49462W        W68209   5.310  33.907   9.990  0.2136  0.1722 -0.1009
49463W        W68210  30.959  16.921  12.455  0.3839 -0.1615  0.0761
49464W        W68211  27.034  29.602  23.175 -0.5889  0.1012 -0.1108
49465W        W68212   2.191  27.083   9.143  0.1911 -0.1862 -0.1266
49466W        W68213  19.170   5.631  20.192  0.2151 -0.2754  0.1285
49467W        W68214   2.969  27.904  11.016  0.0886 -0.0834 -0.2155
49468W        W68215   5.608   3.724   8.940  0.0952  0.2729 -0.0547
49469W        W68216  17.237  23.754  10.890 -0.2769 -0.1519  0.0279
49470W        W68217   9.269   4.286   2.657  0.0618 -0.1702 -0.1750
49471W        W68218  31.632  30.967  25.763  0.0196  0.3129  0.0808
49472W        W68219  19.499  12.602  18.359  0.1513 -0.1926  0.0371
49473W        W68220  19.744  27.103   2.201  0.3401 -0.2913 -0.1175
49474W        W68221   2.570  23.734  20.270 -0.4192  0.1879 -0.1477
49475W        W68222   7.031  21.224   3.721 -0.1610  0.0024  0.0865
49476W        W68223   7.039  29.632  13.718 -0.0816 -0.1497  0.2060
49477W        W68224   8.582  30.837   1.760 -0.0309  0.2922 -0.2763
49478W        W68225  26.953  14.778  19.643  0.3099  0.2168 -0.3021
49479W        W68226   0.186  34.757  25.327 -0.3104  0.2670 -0.1996
49480W        W68227  21.178  12.828   4.682 -0.1652  0.0854 -0.1800
49481W        W68228  30.105  24.952  18.466 -0.0485  0.1742 -0.2736
49482W        W68229   5.334  15.768  19.667 -0.2406  0.1988  0.1138
49483W        W68230  26.995  25.160  12.344  0.3710  0.0314 -0.2214
49484W        W68231  33.533  19.537  11.833  0.1018 -0.0600  0.4908
49485W        W68232   5.242  13.477   2.280  0.1075  0.2777  0.1669
49486W        W68233  12.328  26.333   7.403 -0.0487 -0.1202  0.0894
49487W        W68234  19.833  28.762  20.569 -0.0764  0.1723 -0.0477
49488W        W68235  11.528  30.497  22.390  0.0114 -0.2498 -0.0209
49489W        W68236  10.477  22.498  14.390 -0.0028 -0.3440  0.0551
49490W        W68237  25.673  29.764  24.210  0.3237 -0.2574 -0.0428
49491W        W68238  23.448  11.252  19.938  0.0325 -0.1086  0.0489
49492W        W68239  28.245  27.424  17.259 -0.1085  0.0945  0.0440
49493W        W68240  30.338   2.539  24.813 -0.0287  0.1343 -0.0647
49494W        W68241  28.225  34.246  18.450  0.3195 -0.0917 -0.0208
49495W        W68242  15.589  28.049  23.250  0.2194 -0.0095  0.0955
49496W        W68243  26.655  19.553   9.150 -0.1043 -0.0498 -0.1286
49497W        W68244  32.354   5.924   4.185  0.3254 -0.3159  0.1455
49498W        W68245   1.640  31.294   3.392  0.4446 -0.2150  0.2335
49499W        W68246  24.518  19.200  21.423  0.0044  0.1580  0.0110
49500W        W68247  14.238   7.408   6.336 -0.1513  0.0696  0.0429
49501W        W68248   2.482  13.494  14.571  0.1604  0.1170  0.0757
49502W        W68249  10.873   8.871  13.573 -0.2043  0.2475  0.0833
49503W        W68250   9.330  16.475   3.487  0.3953  0.1912 -0.0839
49504W        W68251  29.569   1.288  23.600  0.0814 -0.1935 -0.1710
49505W        W68252   7.675   7.442  21.841 -0.0726 -0.3833 -0.1968
49506W        W68253  12.180  10.771  24.661 -0.0172 -0.0678  0.0532
49507W        W68254   0.353  22.513   9.796 -0.0960  0.1248 -0.0599
49508W        W68255  25.325  22.422  25.084  0.0177 -0.0301  0.1012
49509W        W68256  11.732   6.806  19.965  0.0506 -0.1057  0.1085
49510W        W68257  27.799  25.253  24.730  0.0493 -0.3615  0.1807
49511W        W68258   3.363  34.611  25.778  0.1205  0.1917  0.3467
49512W        W68259  12.458   8.589   5.487 -0.0299 -0.0249 -0.1207
49513W        W68260  34.682   0.670   0.540  0.0292  0.5653 -0.0320
49514W        W68261   2.930  26.223  24.090  0.2863  0.0155  0.1257
49515W        W68262  14.991  17.443   5.884 -0.2761 -0.1128  0.0754
49516W        W68263   8.421  27.876  13.668  0.1204 -0.0740 -0.2067
49517W        W68264   1.479  20.391  16.117 -0.1955 -0.1125  0.1612
49518W        W68265   2.848  11.197  25.989 -0.2000  0.1765 -0.0120
49519W        W68266  10.233  18.032   8.732 -0.0813 -0.0435  0.1197
49520W        W68267  19.462  22.311   1.063  0.0729 -0.4624  0.1205
49521W        W68268   4.558  24.778   1.896  0.3459  0.1058  0.0109
49522W        W68269  12.768  26.356  12.685  0.2827  0.1402 -0.1164
49523W        W68270   2.126   8.578  23.617 -0.1598  0.0905 -0.0651
49524W        W68271  29.664  13.232  21.342  0.0314  0.1060  0.0360
49525W        W68272  33.924  11.717  13.100  0.2563  0.0672 -0.1750
49526W        W68273  29.833  11.068  11.139  0.0110  0.0202  0.2100
49527W        W68274  12.096   9.670   9.429  0.2500 -0.1043  0.1589
49528W        W68275  27.371  22.520   7.447 -0.0768  0.1099 -0.0906
49529W        W68276  34.585  10.705  11.222  0.0997 -0.0861  0.3336
49530W        W68277  17.452  13.860  11.759  0.1140  0.1354  0.0046
49531W        W68278   9.006  11.265   7.452 -0.0424 -0.1639  0.2566
49532W        W68279  13.488  12.069   7.152 -0.0376  0.1766  0.0076
49533W        W68280  31.387  29.826  17.788 -0.3586  0.1358  0.0849
49534W        W68281   0.660   1.061  19.554 -0.3211  0.0029 -0.0675
49535W        W68282   0.943   3.212   1.372 -0.0400 -0.1635  0.1358
49536W        W68283   7.883  23.315  24.388 -0.1031  0.1569  0.0429
49537W        W68284  26.225  34.564  17.073 -0.2083 -0.1209  0.1137
49538W        W68285   1.635  21.233   1.376 -0.0549 -0.3850  0.1225
49539W        W68286   7.918  26.174   1.919 -0.0978  0.1368  0.1710
49540W        W68287   2.917   9.783  23.001  0.0183  0.3488  0.0831
49541W        W68288  16.091  25.777  23.474  0.2806  0.5266  0.0669
49542W        W68289  12.168   7.083  10.115 -0.3046  0.0711  0.2147
49543W        W68290  29.318   1.777  22.027 -0.2479 -0.0173  0.1493
49544W        W68291   9.571  33.293  21.426 -0.3953 -0.1850 -0.1441
49545W        W68292  25.411  20.483  24.222  0.3791  0.0910 -0.1484
49546W        W68293  12.445  10.334   3.900 -0.0773  0.0005 -0.1994
49547W        W68294  21.277  31.655  13.372 -0.1571  0.0788 -0.0658
49548W        W68295  20.349  22.923  22.351  0.0826 -0.1121  0.0772
49549W        W68296  11.760  23.387   5.364  0.3278  0.0448 -0.3022
49550W        W68297  13.909  22.721  24.246  0.0542  0.0412 -0.3516
49551W        W68298  10.786  25.236   6.231  0.1634 -0.2332  0.0714
49552W        W68299   8.872  13.691  19.671  0.0605 -0.3936  0.2418
49553W        W68300  11.754  13.798  24.879  0.0173 -0.2210  0.2794
49554W        W68301   8.258  14.096   7.287 -0.0887 -0.0432 -0.1295
49555W        W68302   6.591   1.551   1.711  0.1300  0.1356 -0.2484
49556W        W68303  31.210  19.706   0.045  0.0757 -0.4942  0.0661
49557W        W68304  23.069   4.576   3.300  0.0801  0.1799 -0.0599
49558W        W68305  16.642  18.046   9.183  0.4338 -0.3122  0.1649
49559W        W68306  27.194  28.799  14.407 -0.1309 -0.1446 -0.2203
49560W        W68307   6.060   4.199   2.256 -0.1965  0.2185  0.0678
49561W        W68308  25.535  16.424  20.295 -0.2511  0.2151 -0.2008
49562W        W68309   0.141  15.619  20.683  0.1656 -0.1522  0.1647
49563W        W68310   9.116   8.299  11.101  0.2533  0.0536 -0.0825
49564W        W68311   5.220  29.415  26.243  0.3643  0.2969  0.1081
49565W        W68312   6.651  18.663  19.810 -0.3711  0.1799 -0.0746
49566W        W68313   1.764  29.648  22.169 -0.1576  0.3534 -0.1804
49567W        W68314  15.596  15.564  10.642 -0.0567  0.4572 -0.0172
49568W        W68315   1.553  35.203   6.970 -0.1305  0.2936  0.1597
49569W        W68316  16.238  23.257   8.339 -0.2219 -0.1660  0.0205
49570W        W68317  33.906   0.537   5.723  0.1151  0.3444 -0.1420
49571W        W68318  34.177   3.720  14.155  0.2253 -0.3024  0.0529
49572W        W68319  11.064  28.668   7.140 -0.0184  0.0021 -0.2723
49573W        W68320  20.899  29.786  23.798 -0.1671 -0.1294 -0.3645
49574W        W68321  27.716   5.041  18.349  0.3691  0.1786 -0.1386
49575W        W68322  11.998  12.172  10.514 -0.1144  0.0216  0.1959
49576W        W68323   7.452   4.537  12.681  0.1741 -0.2616 -0.2721
49577W        W68324  12.748  31.472   5.690 -0.3534  0.0962  0.0535
49578W        W68325  33.775   7.291  17.433 -0.0868 -0.0953  0.2508
49579W        W68326  19.839   0.184   8.255  0.1276 -0.2159 -0.2312
49580W        W68327  15.582  34.333  26.168 -0.1191  0.0454 -0.0145
49581W        W68328   0.732   0.008  24.355 -0.0444  0.0055 -0.1636
49582W        W68329   5.857  10.836  24.560  0.1770  0.3276 -0.2126
49583W        W68330   9.106  34.527  25.533 -0.0527  0.1058  0.1167
49584W        W68331  30.769   7.667  15.059  0.1403  0.0671 -0.0190
49585W        W68332  17.522  13.312   9.467  0.0091 -0.1677 -0.0589
49586W        W68333  19.841  26.050  25.864 -0.0200  0.1279  0.1932
49587W        W68334  19.124  15.146  21.825 -0.1710 -0.0958  0.2439
49588W        W68335  21.442  24.110  20.940 -0.3452 -0.0193 -0.0370
49589W        W68336  29.465   1.598   0.042 -0.1291 -0.0317  0.0618
49590W        W68337  29.693   0.384  26.165 -0.0751 -0.1453 -0.1108
49591W        W68338  13.075   4.507  20.533 -0.3567 -0.2180  0.0825
49592W        W68339  28.857  13.538  10.760  0.1488 -0.0498 -0.0933
49593W        W68340  31.006   7.512  25.009  0.0934 -0.1694 -0.3865
49594W        W68341  27.266  31.030   2.204  0.0326 -0.2438  0.0413
49595W        W68342  31.921  14.207  18.075 -0.1947 -0.2358  0.3436
49596W        W68343   1.423  14.675  22.155 -0.5211 -0.0008 -0.0941
49597W        W68344  15.758   1.542   1.914 -0.0065  0.1891 -0.2936
49598W        W68345  34.241   1.734   4.171 -0.0097  0.2986 -0.0625
49599W        W68346  12.837  23.633  16.171  0.0609 -0.3759  0.0717
49600W        W68347  29.574  24.062   6.552  0.0116  0.2467  0.0260
49601W        W68348  30.361  27.293   9.712 -0.1878 -0.1989  0.2095
49602W        W68349  16.200   4.604  23.172 -0.0893 -0.1120 -0.0419
49603W        W68350  18.902   7.918   0.378  0.2207  0.4296 -0.1839
49604W        W68351  21.406  32.347   6.868  0.3887  0.0205 -0.0973
49605W        W68352  10.469  32.738  15.482  0.0763  0.1558  0.2022
49606W        W68353   8.952  19.722  14.809 -0.0504 -0.1478  0.0665
49607W        W68354  22.624   4.859   3.600 -0.1904 -0.0074 -0.0065
49608W        W68355  18.041  31.277   6.081 -0.2248 -0.2418  0.0604
49609W        W68356  27.820  27.186  11.278 -0.1162  0.0880 -0.0757
49610W        W68357  21.395  27.434  14.827  0.2477 -0.0455 -0.1428
49611W        W68358  31.154   7.469  19.534 -0.0592  0.0062  0.0150
49612W        W68359   7.695  27.507   0.273 -0.1579  0.3702  0.0985
49613W        W68360  29.210  31.693  15.352 -0.0451 -0.0524  0.1181
49614W        W68361   6.497   0.411   9.289 -0.0353 -0.1201 -0.0646
49615W        W68362  33.750  32.056  25.419  0.1296  0.2234 -0.1507
49616W        W68363  11.973  17.846  22.577  0.1675  0.0158  0.0181
49617W        W68364   9.006  20.943   5.651 -0.0438 -0.3652  0.3422
49618W        W68365  24.168  27.923  23.917  0.1214 -0.1149 -0.0927
49619W        W68366  33.373  20.238  13.564 -0.1621 -0.1082 -0.0986
49620W        W68367  12.875  11.604   7.609  0.0306 -0.2758 -0.1112
49621W        W68368  11.679   7.341   3.066 -0.1659 -0.1629 -0.2664
49622W        W68369  20.070   1.836   8.264  0.4008  0.0210 -0.2247
49623W        W68370  19.420   9.905  23.925  0.0092 -0.1984 -0.0060
49624W        W68371   6.607   3.580   6.463 -0.1502 -0.2276  0.1701
49625W        W68372   3.548  31.731   3.351 -0.0609 -0.3896 -0.1137
49626W        W68373  25.313  26.989  10.068 -0.0280 -0.0358  0.0237
49627W        W68374  26.343  27.811  10.398  0.2522  0.2384 -0.0849
49628W        W68375  26.511  27.079  15.149 -0.2975  0.0353  0.2603
49629W        W68376  14.476  28.841   2.981 -0.0262 -0.0246 -0.0324
49630W        W68377  27.754  26.982  21.783 -0.0560  0.1981 -0.2128
49631W        W68378  18.052  35.336  16.724 -0.2175 -0.2930  0.1321
49632W        W68379  25.169  12.076  19.408  0.2110 -0.3707  0.0507
49633W        W68380  34.817  33.203   7.238  0.1367 -0.1088  0.0193
49634W        W68381  26.238   6.010  15.774  0.2208  0.0396  0.1095
49635W        W68382   1.144  19.386  15.749 -0.1320 -0.0160  0.0652
49636W        W68383  24.391   0.103   0.500 -0.0133  0.1252  0.2605
49637W        W68384  21.443  24.266  18.153  0.1403 -0.5177 -0.1739
49638W        W68385   9.938   2.140   3.083 -0.0317 -0.0567 -0.1916
49639W        W68386  30.145   2.107   3.082  0.1926  0.0844 -0.1660
49640W        W68387  22.837  32.712  17.951  0.0182 -0.0899 -0.0445
49641W        W68388   0.129   0.814   6.077  0.1393 -0.3050  0.4829
49642W        W68389  15.959  14.510  25.828 -0.3345  0.0905  0.2239
49643W        W68390  31.623   5.639  25.606  0.2979  0.4426  0.1380
49644W        W68391   1.154   3.189  15.572 -0.1707 -0.4106 -0.0176
49645W        W68392  28.458  34.630   0.163  0.1248  0.1573  0.0582
49646W        W68393   6.363  15.011   6.812  0.0172  0.0499  0.1847
49647W        W68394  11.210  18.723  12.414 -0.0317  0.2326  0.1517
49648W        W68395  23.636   2.664   5.622  0.1971 -0.1172  0.1657
49649W        W68396  16.163   2.426  26.148 -0.0071  0.1554  0.0417
49650W        W68397  19.519  23.548   6.993 -0.0253  0.4333  0.2249
49651W        W68398  30.769  18.440   8.637 -0.1627 -0.2204  0.0199
49652W        W68399  18.258   1.238  23.480 -0.0424 -0.1038 -0.1104
49653W        W68400  24.954  20.497  24.362  0.0886  0.0884 -0.2170
49654W        W68401   4.349   3.990  23.311  0.0997  0.2780  0.0707
49655W        W68402  15.684  14.428   3.896 -0.1394 -0.0440  0.0588
49656W        W68403  32.439  11.387  12.737 -0.0807  0.1748 -0.1090
49657W        W68404   8.990  31.083  21.091  0.5567 -0.1047  0.1260
49658W        W68405  24.682   0.442  12.996 -0.0727 -0.3525  0.4274
49659W        W68406  18.208  33.187  20.018 -0.0822 -0.0991  0.0999
49660W        W68407  33.534   7.755  14.862 -0.2365  0.1481  0.0540
49661W        W68408   5.376   6.777  18.486 -0.1767 -0.0800 -0.0739
49662W        W68409   1.473   0.844   7.135  0.3581  0.2071  0.1174
49663W        W68410  10.057  23.549  15.030 -0.1421  0.1993  0.0079
49664W        W68411  32.594  30.747  26.022 -0.1363  0.0592 -0.1283
49665W        W68412  16.855  17.458  13.692  0.0011 -0.0988 -0.1645
49666W        W68413   5.299  17.030   5.033  0.2346  0.0904 -0.0344
49667W        W68414  34.679  28.820   4.926 -0.0457  0.0375 -0.0724
49668W        W68415  31.894  26.842  21.868  0.0495 -0.1057  0.2848
49669W        W68416  35.177   9.140  22.899 -0.1551  0.0353  0.1714
49670W        W68417  21.127  22.541  19.512  0.0667 -0.2615  0.0381
49671W        W68418  18.082  19.461   6.694 -0.4902  0.2090 -0.0591
49672W        W68419  30.293  19.812   8.871 -0.1607 -0.1304  0.0652
49673W        W68420  32.363  32.785  22.217 -0.0012 -0.2214 -0.0997
49674W        W68421  17.496   8.241  13.359 -0.1258 -0.0995  0.1714
49675W        W68422  34.992  30.474   3.031  0.4561 -0.3939 -0.1307
49676W        W68423  33.635  16.587  13.085 -0.0626 -0.2780 -0.4524
49677W        W68424  27.378  24.256   7.967  0.0283 -0.1833 -0.1620
49678W        W68425  32.028  15.011  16.872  0.2897 -0.2392  0.0565
49679W        W68426  28.739  19.527  13.555  0.1378  0.1975 -0.0061
49680W        W68427  21.649  27.353  20.225 -0.0272  0.0216 -0.1271
49681W        W68428   7.894   9.867   5.750 -0.0322 -0.2365 -0.0691
49682W        W68429   8.344  16.356   7.853  0.0779  0.1964  0.2452
49683W        W68430  21.766  26.986  22.550  0.3652  0.3967  0.1027
49684W        W68431   1.702  13.298  19.078 -0.4532 -0.0302 -0.0863
49685W        W68432   9.791  17.951   4.011 -0.1456  0.0091  0.1849
49686W        W68433   5.863  14.623   0.357  0.0291 -0.2146 -0.2653
49687W        W68434   0.295  25.523  23.272  0.0080  0.1021  0.1530
49688W        W68435   9.356  13.618  24.451 -0.2459  0.1170 -0.1185
49689W        W68436  17.954  14.017   4.354  0.0477  0.2252  0.0161
49690W        W68437  16.280   4.947   8.579 -0.0210 -0.0522 -0.1105
49691W        W68438   6.790  30.491   3.564 -0.0168  0.1916  0.1431
49692W        W68439  10.204  34.997   9.263  0.0389  0.0469 -0.2746
49693W        W68440  21.705   5.746  22.263  0.0608 -0.2122  0.0470
49694W        W68441   0.479   8.539  13.747 -0.0629 -0.2681 -0.0551
49695W        W68442  25.990  34.839  11.205 -0.0936 -0.0707  0.3801
49696W        W68443  27.764   9.614   9.403  0.0888  0.1079 -0.1611
49697W        W68444  17.739   7.779  17.802 -0.2959 -0.3843  0.2352
49698W        W68445   9.797  33.028   8.511  0.1771  0.1093 -0.1982
49699W        W68446  14.345   9.105   7.957 -0.0019 -0.3628 -0.1744
49700W        W68447  20.848  34.736   3.978  0.0365 -0.1779  0.2618
49701W        W68448   6.833  25.755   1.675 -0.0322 -0.0192  0.1076
49702W        W68449  13.633   7.183  19.758 -0.1708 -0.0267  0.1892
49703W        W68450  30.199  32.147  19.412  0.0190 -0.1939  0.0712
49704W        W68451  30.471  14.130   0.260  0.3349 -0.3606  0.1628
49705W        W68452  10.476  14.859   4.488  0.1378 -0.0168 -0.0190
49706W        W68453  32.969  23.092  18.627 -0.0607 -0.0389  0.3201
49707W        W68454  33.051  27.145   0.884 -0.0019 -0.0441 -0.0169
49708W        W68455  27.357  27.902  22.511 -0.0797 -0.0433  0.0959
49709W        W68456  30.405   5.274   1.122  0.1753  0.1219 -0.0867
49710W        W68457  27.490  22.436   0.154 -0.1512 -0.3654  0.3546
49711W        W68458  20.272  17.986  20.776  0.0964  0.0131  0.0986
49712W        W68459   0.738  19.235   0.805 -0.2095 -0.2034 -0.3697
49713W        W68460  31.321  16.932  10.837 -0.0628  0.0389 -0.0723
49714W        W68461   4.875   5.511  24.387 -0.0030  0.0381 -0.0114
49715W        W68462   5.799  35.082   3.273  0.3528 -0.3650 -0.0269
49716W        W68463   6.536  33.928  23.090 -0.1195 -0.1267  0.2837
49717W        W68464  19.304   4.352  24.379  0.3190  0.0240  0.1164
49718W        W68465  25.682  15.603   7.708  0.0386 -0.4426  0.0043
49719W        W68466  29.183  10.691  18.659  0.0854  0.0562 -0.3059
49720W        W68467   1.928  18.619  13.648  0.0762 -0.3381 -0.0472
49721W        W68468   7.682  30.751  23.107 -0.0233 -0.4034 -0.0242
49722W        W68469  15.101  35.138   3.041 -0.1309 -0.1748  0.0967
49723W        W68470  13.528  34.985   6.361 -0.4344  0.2596 -0.0615
49724W        W68471  31.557   4.022  19.229  0.0981  0.3061  0.1563
49725W        W68472  13.499  24.994   9.803 -0.4938 -0.1520 -0.0788
49726W        W68473  25.806   0.556  13.845  0.3082  0.1560  0.1349
49727W        W68474  20.651  18.963   6.062  0.2441  0.2400  0.1960
49728W        W68475  18.937  31.356  16.609 -0.0575  0.0376  0.1124
49729W        W68476   1.547   3.327   7.386 -0.2769 -0.1304 -0.1145
49730W        W68477  20.048   6.434  23.542  0.4200 -0.2438 -0.1047
49731W        W68478  27.439  16.706  19.442  0.0478  0.1217 -0.1902
49732W        W68479  22.438  15.733  15.993 -0.1955  0.0077 -0.2448
49733W        W68480  25.816  26.233  16.641 -0.2869 -0.2596  0.1785
49734W        W68481   8.598  15.872   1.299 -0.0993  0.2680 -0.0435
49735W        W68482  25.692   3.535  18.474 -0.4739 -0.0399 -0.2292
49736W        W68483  24.189  34.609  26.026 -0.0821 -0.1217  0.4363
49737W        W68484   9.813  25.961  17.197  0.1353  0.1074 -0.0905
49738W        W68485   7.791   8.654   5.890  0.1692 -0.3270 -0.0176
49739W        W68486  34.260   2.271   6.560  0.1114  0.0553 -0.1194
49740W        W68487  30.770   0.685   2.755 -0.1160 -0.3252  0.2091
49741W        W68488  18.148   8.717   2.188 -0.1639  0.1487  0.0849
49742W        W68489  28.409  10.477  17.922 -0.0364  0.3720  0.2417
49743W        W68490   6.131  12.162  22.560  0.1316  0.2100  0.2000
49744W        W68491  18.697  14.213   8.523 -0.1538  0.1334  0.3930
49745W        W68492   3.863   4.000  23.378 -0.0597  0.0524 -0.1313
49746W        W68493  29.985  14.972  25.074  0.2205 -0.2001 -0.0997
49747W        W68494   0.483   8.985  22.212  0.0564 -0.0468 -0.2377
49748W        W68495   3.684  26.683   7.533  0.2165 -0.2302 -0.0963
49749W        W68496  18.200   9.165   1.934 -0.0342 -0.0397  0.2603
49750W        W68497  14.098  19.159   0.829  0.0544 -0.0803 -0.0171
49751W        W68498  23.161  14.832  21.208 -0.1944 -0.1284 -0.1272
49752W        W68499  15.101  25.435  10.301 -0.2288 -0.1829 -0.0863
49753W        W68500   5.587  16.203   6.044 -0.1855  0.0230  0.0554
49754W        W68501  13.165   7.029   6.393  0.1468  0.0794  0.2254
49755W        W68502  35.131  31.245   4.263  0.0438  0.0269  0.0063
49756W        W68503  25.937  24.458  21.030 -0.1341  0.2435  0.1433
49757W        W68504   4.055   5.045  22.034 -0.0137 -0.1068  0.4329
49758W        W68505  12.017  13.337  10.804  0.0495  0.2528 -0.0253
49759W        W68506   0.886   5.114   2.550 -0.1471 -0.1107  0.0051
49760W        W68507  22.184   4.686   1.888  0.4601  0.1034 -0.2757
49761W        W68508  23.138  24.734   3.143  0.1174 -0.0269  0.1839
49762W        W68509  25.189  15.019  24.195 -0.2867 -0.0042 -0.0530
49763W        W68510   2.979  14.475  17.492  0.2491 -0.3426 -0.0150
49764W        W68511  28.138  14.257   6.678 -0.0423 -0.4730  0.1253
49765W        W68512  18.195  31.179   8.197 -0.1391 -0.0294  0.1192
49766W        W68513  18.191  11.825  19.585 -0.1208  0.3623  0.3512
49767W        W68514   6.988   3.304  10.588  0.0995  0.0621 -0.3916
49768W        W68515  32.149  32.965  14.036 -0.2087 -0.0189  0.2927
49769W        W68516  10.167  20.330   8.225  0.1729  0.0626  0.0265
49770W        W68517   7.870   2.567   7.147 -0.2331  0.3018  0.0225
49771W        W68518  32.306  18.004   9.619 -0.2381 -0.2232 -0.0304
49772W        W68519  31.412   2.778  20.243  0.0554  0.2756  0.0227
49773W        W68520  11.590  12.026   0.944  0.1849 -0.1627  0.3432
49774W        W68521   1.291   2.635   3.439 -0.1568 -0.4854  0.2651
49775W        W68522  13.971   2.421   5.933  0.1612  0.0799 -0.0087
49776W        W68523   9.641  18.409   0.782 -0.3322  0.0440 -0.1101
49777W        W68524  30.211  19.262  12.506 -0.3005 -0.1741 -0.1075
49778W        W68525  15.720  31.299  25.104  0.1186 -0.4832  0.1184
49779W        W68526  26.117   5.646  18.074 -0.2398 -0.0089  0.2041
49780W        W68527  25.989  12.678  15.630 -0.0974 -0.1220  0.0254
49781W        W68528  16.348  26.246   8.554  0.1931 -0.0915  0.0091
49782W        W68529  22.922  12.549  17.820 -0.4175 -0.1476 -0.1608
49783W        W68530  13.013  22.412   8.960  0.0019 -0.0756  0.2016
49784W        W68531  30.755   3.019   4.822 -0.1314 -0.1598  0.0836
49785W        W68532  28.096   2.680   1.074 -0.0361 -0.0490 -0.1900
49786W        W68533   9.820   9.292   1.515 -0.0987 -0.2856 -0.0905
49787W        W68534   2.102  12.862   0.006 -0.2216  0.3933  0.2706
49788W        W68535  13.823  18.699  10.898  0.0260 -0.0482 -0.1543
49789W        W68536   9.782  18.831   9.298 -0.1140  0.3346  0.0514
49790W        W68537  33.758   3.592  26.220  0.3570 -0.2667  0.0475
49791W        W68538   6.709  14.614   7.970 -0.2187  0.0143 -0.2255
49792W        W68539  13.191  10.250  10.086 -0.0499  0.2021  0.1309
49793W        W68540  17.033  33.367   8.772  0.1427 -0.1131  0.0945
49794W        W68541  12.712  33.509  23.009  0.1885 -0.0952 -0.1124
49795W        W68542   7.694  15.140  21.597  0.0285  0.0747  0.1774
49796W        W68543  29.527  27.000  23.151 -0.0557  0.0836 -0.1352
49797W        W68544  25.406  19.565  24.194 -0.0007 -0.2084  0.0116
49798W        W68545   8.910  16.398  10.135  0.1143  0.3167  0.4428
49799W        W68546   3.571   8.771  19.966 -0.0570  0.2652  0.7107
49800W        W68547  32.451  23.419  19.240  0.2042 -0.0691  0.1408
49801W        W68548  20.553  27.942   1.586  0.0168  0.1187 -0.4316
49802W        W68549   6.645  19.942  25.882 -0.3511 -0.1108  0.2359
49803W        W68550  27.281  13.556  11.117  0.3904  0.0789  0.1128
49804W        W68551  14.490   4.900   3.075  0.1314 -0.0810  0.1267
49805W        W68552   6.028   0.880  11.645  0.0175 -0.0602  0.1450
49806W        W68553   3.806   6.150  19.292 -0.0564  0.0437 -0.0383
49807W        W68554  16.232   9.282   3.443 -0.2958 -0.0463  0.1194
49808W        W68555  22.217  21.857   2.709 -0.0997 -0.1175  0.0884
49809W        W68556   6.741  27.279  23.062 -0.1241 -0.0769  0.2484
49810W        W68557   2.066  13.793  14.903  0.0758  0.2100  0.0167
49811W        W68558  24.360   0.641  23.577  0.0738 -0.0300  0.0017
49812W        W68559  11.534  12.581  24.520 -0.1329 -0.0641  0.0587
49813W        W68560  22.789  32.688  17.305  0.1604  0.1517 -0.0366
49814W        W68561  21.522  12.245  18.761  0.1174  0.1166 -0.4813
49815W        W68562   3.421   6.270  26.018 -0.1523  0.1490 -0.1913
49816W        W68563  33.499  34.730  17.230  0.1882  0.3930 -0.0437
49817W        W68564  32.436   7.197  12.383  0.1014 -0.2137  0.1757
49818W        W68565  17.000  32.330   5.480 -0.0948 -0.1375 -0.0300
49819W        W68566  25.056  17.227   9.205  0.1023 -0.1141 -0.0240
49820W        W68567  24.741   1.195  16.062 -0.0864  0.2828 -0.0426
49821W        W68568  15.174  13.442   5.772  0.0056  0.1712 -0.0862
49822W        W68569  11.019  31.182  23.466 -0.0628  0.2851 -0.0363
49823W        W68570  32.818  34.970  24.637  0.1056  0.1405 -0.3804
49824W        W68571  19.892  14.901  22.431 -0.4109  0.3867 -0.5037
49825W        W68572   3.292   2.057   9.380 -0.1026 -0.0023 -0.1092
49826W        W68573  32.380  34.307   4.293 -0.1933  0.2188 -0.4665
49827W        W68574  19.155   3.969  21.126 -0.1119  0.0879  0.1204
49828W        W68575  23.478   3.126  18.811 -0.2656 -0.2941  0.0373
49829W        W68576  13.414  24.845  23.813 -0.4151 -0.1551 -0.2168
49830W        W68577  34.074  25.869  19.897  0.1127  0.0678 -0.0649
49831W        W68578   6.313  30.758   2.561 -0.0048  0.0784 -0.2785
49832W        W68579   7.183  32.982   6.719 -0.0031 -0.1741 -0.0928
49833W        W68580  18.847  34.668  23.635  0.0599 -0.2707 -0.1053
49834W        W68581   9.256  24.851  22.192  0.2828 -0.1555  0.0187
49835W        W68582  12.042  29.964   8.561  0.0311  0.0811 -0.1415
49836W        W68583  15.141  11.302  22.887  0.0786  0.1617  0.2923
49837W        W68584   0.721  13.410  24.072 -0.1830  0.1581 -0.0780
49838W        W68585  15.555   1.983  20.732 -0.2680 -0.1765  0.2964
49839W        W68586  33.289  24.292  16.262  0.4012 -0.1246  0.1125
49840W        W68587  23.885  25.123   3.221  0.0949  0.0827 -0.0807
49841W        W68588  19.389   1.991   0.708 -0.0275 -0.2437 -0.0974
49842W        W68589  15.383  32.982  24.939  0.0939  0.2413  0.0021
49843W        W68590  11.700   3.452  20.888  0.1935  0.0362 -0.0442
49844W        W68591   2.210  30.719  24.668 -0.2727 -0.0374 -0.1507
49845W        W68592  15.090   9.422  19.474  0.0855  0.1038 -0.5291
49846W        W68593  24.956  29.876  12.219  0.0936 -0.1782  0.1625
49847W        W68594  15.968  24.160  15.390  0.1532 -0.1784  0.1381
49848W        W68595  16.235   8.442  17.992 -0.2047  0.3129 -0.0660
49849W        W68596  17.688  28.150  19.784  0.1208 -0.1496 -0.3042
49850W        W68597  23.640  25.546  14.749  0.2174  0.2490 -0.0972
49851W        W68598  30.065   6.353  24.833 -0.0643  0.0890 -0.0062
49852W        W68599  34.245  19.481  22.312  0.1186  0.0958  0.1927
49853W        W68600  25.477  21.086  14.242 -0.1970  0.3753  0.2919
49854W        W68601  10.835  14.507  22.050 -0.2022  0.1337  0.0825
49855W        W68602  18.138  23.979   0.143 -0.2835  0.2710 -0.2682
49856W        W68603  10.700   7.356   0.833 -0.0305 -0.0173 -0.0662
49857W        W68604  12.123  23.798   6.904  0.1827  0.1342 -0.0155
49858W        W68605   7.151  18.772  20.470  0.1082 -0.0325  0.3511
49859W        W68606   9.097  10.343   4.856  0.3331  0.0182 -0.1869
49860W        W68607  16.397  30.997   0.295 -0.2021  0.1741  0.0382
49861W        W68608  10.353  20.298  13.666  0.1494 -0.1450 -0.0347
49862W        W68609  32.421   7.674   2.131  0.6182 -0.1853 -0.1501
49863W        W68610  24.309  33.856  21.073 -0.1221 -0.0380  0.2616
49864W        W68611   2.480  30.270   2.156 -0.1983 -0.1037  0.1230
49865W        W68612  31.249   5.147  14.496  0.0023 -0.1357 -0.2534
49866W        W68613  28.314  15.035   9.146  0.1011 -0.1756 -0.0016
49867W        W68614  34.731  21.655  19.969  0.0808 -0.0170  0.2249
49868W        W68615   7.930  15.033  18.626  0.3792 -0.0607  0.0868
49869W        W68616   1.422  22.583  15.719 -0.0384 -0.1028  0.3367
49870W        W68617  13.114  13.950   0.802  0.0726  0.2069  0.0083
49871W        W68618  10.202  16.201  11.960 -0.0748  0.1209 -0.2205
49872W        W68619  23.381  15.865  22.555 -0.0101 -0.3554 -0.1655
49873W        W68620  20.211   4.457  10.442  0.1262  0.0835 -0.0735
49874W        W68621   4.198  32.282  24.848 -0.2410  0.2415 -0.0094
49875W        W68622  29.306  24.414  24.504 -0.4950 -0.2400  0.2026
49876W        W68623  35.355   3.535  21.470 -0.1038  0.2047 -0.2028
49877W        W68624   6.487  29.652   3.906  0.0417 -0.4173  0.1111
49878W        W68625  10.818   9.227  20.844  0.0740  0.3839 -0.0850
49879W        W68626  28.419   7.449  24.245 -0.1092 -0.0929 -0.1640
49880W        W68627  30.579   3.025   5.325  0.1730  0.0056 -0.1966
49881W        W68628  23.918  22.894  17.170  0.0331 -0.0484  0.3772
49882W        W68629  32.883  23.424  15.488 -0.3321 -0.1640  0.0068
49883W        W68630  19.560  27.078  21.697  0.1221 -0.1113  0.1780
49884W        W68631   7.330  34.293   7.106 -0.1526 -0.1870  0.2823
49885W        W68632  31.424  17.944  16.482 -0.0334 -0.1468  0.0137
49886W        W68633   1.902  26.810   6.444 -0.1953  0.1303 -0.4439
49887W        W68634   3.446  32.193   3.742  0.1838  0.0757 -0.2409
49888W        W68635  33.332   5.815  15.561 -0.4117  0.1984  0.1644
49889W        W68636  21.276   3.789  24.251  0.2903 -0.1660 -0.0153
49890W        W68637   8.328  34.712   7.749 -0.0799  0.1995 -0.0873
49891W        W68638  25.689   6.176  11.355 -0.1550  0.5700  0.0863
49892W        W68639   2.880   2.738   2.462  0.1048  0.3268  0.2911
49893W        W68640  22.576   0.394   2.913 -0.0298 -0.1928 -0.2583
49894W        W68641  31.436   9.245  18.299 -0.1550  0.0750  0.0257
49895W        W68642  25.813  22.648  18.055 -0.1559 -0.0140 -0.1539
49896W        W68643  13.137  22.573   9.401 -0.1345  0.1353  0.6188
49897W        W68644  27.486  14.942   6.018  0.1118 -0.2233  0.1383
49898W        W68645  27.572  25.389  24.046  0.5933  0.0300  0.0959
49899W        W68646  13.316  12.433   5.050  0.0231 -0.0318  0.0793
49900W        W68647  14.965   4.924  25.115 -0.4363  0.0407 -0.3167
49901W        W68648  29.619  13.524  15.039 -0.1318  0.3106  0.1026
49902W        W68649  28.548   6.465  10.375 -0.0051 -0.2063 -0.0794
49903W        W68650  25.302  21.734  14.296  0.1873 -0.0449 -0.3222
49904W        W68651  10.980   7.644  20.921  0.1021  0.0813  0.4338
49905W        W68652  14.027  30.847  10.444 -0.1430  0.0661  0.0634
49906W        W68653  10.685  19.823   1.026 -0.0961  0.4669 -0.0655
49907W        W68654  11.018  23.106   7.580  0.3920  0.1235  0.2417
49908W        W68655  25.247   6.275   3.953 -0.1738  0.0064 -0.0732
49909W        W68656   7.255   1.528   0.159 -0.1132 -0.6104 -0.3654
49910W        W68657  12.390   9.404  10.341  0.0950  0.0094 -0.0390
49911W        W68658  22.677   6.599  17.397 -0.3274 -0.2858 -0.0553
49912W        W68659  33.325  19.174   7.054 -0.0999  0.2802 -0.2895
49913W        W68660  24.178   2.229  23.460 -0.2258  0.2256  0.2725
49914W        W68661  11.917  25.167  12.200 -0.2642  0.4355 -0.4012
49915W        W68662   1.147  10.501   1.602  0.2806 -0.0534  0.1049
49916W        W68663  33.750   7.605  21.753 -0.4091 -0.1530  0.0310
49917W        W68664  10.104  23.136  17.103  0.0557  0.0306  0.3992
49918W        W68665   3.499  16.753   5.084 -0.2822  0.0522  0.0556
49919W        W68666  17.873  18.954   3.919 -0.0415 -0.1827  0.2764
49920W        W68667  28.332   0.466  21.354 -0.1932 -0.0034 -0.0171
49921W        W68668   1.904  17.885   2.910 -0.2437 -0.0509 -0.3462
49922W        W68669  25.841  22.499  14.413 -0.0434 -0.3196 -0.0826
49923W        W68670   9.695  34.472   8.255  0.2901 -0.1166  0.1492
49924W        W68671  15.050  29.015  10.442  0.3248  0.2126  0.1701
49925W        W68672  30.823   9.759   9.713 -0.0032  0.1226  0.3839
49926W        W68673   0.719  16.988  15.619 -0.0457 -0.1346  0.1935
49927W        W68674  27.313  14.708  24.431 -0.0406 -0.0271 -0.0074
49928W        W68675  20.946  33.443   4.482  0.3517 -0.1686  0.0457
49929W        W68676  23.196  23.652  25.906 -0.2115 -0.1016  0.1969
49930W        W68677  27.461  12.398  17.468 -0.1286 -0.2034 -0.0278
49931W        W68678  17.410  10.083  11.188  0.0505  0.0367  0.2759
49932W        W68679  15.407  14.163   2.828 -0.0395  0.0310  0.1773
49933W        W68680  33.995  13.055  15.057 -0.4175  0.0338 -0.2311
49934W        W68681  15.972  12.168   5.216 -0.1075 -0.2561  0.2772
49935W        W68682  12.779  27.942  16.627 -0.4070 -0.0412 -0.0048
49936W        W68683  10.225  11.467   7.080  0.0215 -0.2242 -0.1967
49937W        W68684  26.002  35.161  13.354  0.0782  0.0197  0.0442
49938W        W68685  31.869  12.342  13.267 -0.0460  0.1984 -0.0753
49939W        W68686  29.865  14.048  12.249  0.1253 -0.0137  0.1057
49940W        W68687   5.918  31.126  24.470 -0.1365  0.1078 -0.0687
49941W        W68688  12.742   2.270   7.198 -0.0669  0.0125 -0.1366
49942W        W68689  32.904  33.595   4.644  0.1710 -0.0688  0.1324
49943W        W68690  26.450   1.643  14.020  0.1720 -0.3606  0.2933
49944W        W68691  29.713  17.401  11.075  0.1829  0.0757  0.0284
49945W        W68692  21.164   4.998  18.909  0.5891 -0.0457 -0.0566
49946W        W68693   0.811  19.558  24.375  0.0565  0.2179 -0.1942
49947W        W68694   1.611  17.350  23.596 -0.1195 -0.0602 -0.1202
49948W        W68695  17.793  32.558   5.191  0.1088  0.1764  0.1327
49949W        W68696  29.921   1.162  24.048 -0.0589 -0.0265 -0.0257
49950W        W68697  14.284   3.053  18.047  0.0986 -0.0417  0.1509
49951W        W68698  29.932   0.184  17.366 -0.0779 -0.0722 -0.3405
49952W        W68699  19.983   6.866   8.954  0.5318 -0.4019 -0.1175
49953W        W68700  29.033  34.011  25.831  0.0051  0.0114  0.1328
49954W        W68701  14.158  18.866  13.951 -0.0494  0.1328  0.2013
49955W        W68702  27.695  26.710  21.365  0.4547 -0.0078 -0.2143
49956W        W68703  14.394  26.969  12.153 -0.5171  0.1476 -0.1859
49957W        W68704  10.354  32.362   3.442 -0.5089  0.0695 -0.0434
49958W        W68705  22.329  28.026  23.175  0.1660  0.1969 -0.0407
49959W        W68706   4.310  19.621  25.544  0.2646 -0.0090 -0.1031
49960W        W68707  34.569  28.596   4.019 -0.1454  0.0746 -0.0104
49961W        W68708  12.882  13.448  20.021 -0.1886  0.1486 -0.2682
49962W        W68709  16.640  16.532  22.198 -0.2510 -0.1091  0.2812
49963W        W68710  33.358   1.076   2.804  0.3303  0.0426 -0.2258
49964W        W68711  19.675   4.805  23.664  0.0838  0.0698  0.1423
49965W        W68712  13.641  19.481  14.369  0.2178  0.1923 -0.3444
49966W        W68713  26.338  22.151  16.075  0.3005  0.1478  0.3646
49967W        W68714  12.076  11.603   8.701  0.2093  0.1284 -0.0700
49968W        W68715   8.093  28.495  13.002  0.2806  0.2665  0.1168
49969W        W68716  21.468  21.210  20.597 -0.3286 -0.0940  0.0224
49970W        W68717  16.479  27.696  24.160  0.0215 -0.1215  0.2432
49971W        W68718  18.883  14.709  25.233 -0.0613 -0.2387 -0.2055
49972W        W68719   2.510   7.618  20.596  0.1652  0.1953  0.0573
49973W        W68720   5.569  26.798  12.942 -0.0676  0.1216 -0.0997
49974W        W68721   5.007   4.974  17.194 -0.0373  0.1074  0.2189
49975W        W68722  27.843  32.616   6.057 -0.1857  0.1247 -0.0524
49976W        W68723  21.331  13.285  15.919 -0.0331 -0.1092  0.2358
49977W        W68724  16.440  17.326   0.184 -0.1090 -0.0285  0.1695
49978W        W68725   8.608  23.467  24.696 -0.2906  0.0699  0.0128
49979W        W68726  13.778   8.510  24.717  0.1775 -0.0627 -0.2400
49980W        W68727  10.547  14.506   4.165  0.2231  0.1920  0.2105
49981W        W68728  35.108   3.417  23.968  0.1081 -0.2541  0.3461
49982W        W68729  14.173  12.596  12.778 -0.1637 -0.0337 -0.0431
49983W        W68730   2.740  16.208  15.965  0.0054 -0.0481  0.0605
49984W        W68731  27.790  18.333   7.648 -0.2789 -0.1248  0.2765
49985W        W68732  13.550  14.459   1.430 -0.1948  0.0267  0.0035
49986W        W68733  12.256  35.151  21.789 -0.1338 -0.1520 -0.1901
49987W        W68734   0.160  13.674  21.932 -0.0682  0.2204  0.1137
49988W        W68735   2.718  27.918   4.182 -0.1030  0.0880  0.1162
49989W        W68736  10.047  15.161  20.376  0.0764  0.3780 -0.1388
49990W        W68737   3.521  25.408  19.010  0.1105  0.0503  0.0704
49991W        W68738  32.403  27.510   2.397 -0.2323  0.3181  0.1384
49992W        W68739  27.653  27.655  12.191 -0.0344  0.1348  0.1848
49993W        W68740  14.985   3.590   0.445 -0.0366 -0.3240 -0.2669
49994W        W68741   9.444  23.780  25.449 -0.2785 -0.4129  0.2261
49995W        W68742  29.436  34.103  21.539 -0.0595 -0.1179 -0.0012
49996W        W68743   7.903  35.114  25.254  0.3552 -0.2477  0.0798
49997W        W68744  30.860  10.134  12.920 -0.0609  0.0993  0.0732
49998W        W68745  22.890   8.627   2.953  0.1692 -0.2212  0.2410
49999W        W68746  30.949   0.065  20.203  0.1582 -0.2374 -0.1134
50000W        W68747  11.985  33.468  13.400  0.0295  0.2919 -0.2546
50001W        W68748  24.138  20.540  15.456  0.1170 -0.1433 -0.2589
50002W        W68749  16.076  27.502  20.689 -0.0647 -0.0753  0.0752
50003W        W68750  26.741  21.972  21.718 -0.2193  0.1289 -0.0628
50004W        W68751   6.880  18.300   7.719  0.3205  0.0236 -0.0111
50005W        W68752  11.457  31.780   7.287 -0.1943 -0.3014  0.0540
50006W        W68753  14.016  13.877   3.197 -0.2483 -0.0789 -0.0631
50007W        W68754  11.603   8.992  22.596  0.3537  0.0813 -0.3666
50008W        W68755   8.364  13.332  10.487 -0.0002  0.3783 -0.3973
50009W        W68756  26.306  31.584  19.572  0.3035  0.2007 -0.2852
50010W        W68757   8.965  24.939  16.780 -0.0225 -0.0495 -0.1054
50011W        W68758  23.619  14.215   0.246 -0.1960 -0.0250  0.1809
50012W        W68759  14.642  24.316  13.758  0.3360 -0.1692 -0.4012
50013W        W68760   5.419   3.804  22.082  0.0495  0.1014 -0.1830
50014W        W68761  25.597   5.306  15.358 -0.3298  0.0752 -0.4115
50015W        W68762  21.077  28.113  25.521 -0.0137 -0.1741 -0.3013
50016W        W68763  21.080  18.761   4.305  0.0786 -0.1452  0.1904
50017W        W68764  33.230  14.587  10.745  0.0752 -0.1505  0.0035
50018W        W68765  26.525  16.244   9.313  0.0888 -0.0898 -0.1803
50019W        W68766  32.970   5.603   3.010  0.0388  0.0757 -0.0615
50020W        W68767   8.527  29.353  14.954 -0.2195 -0.0299 -0.4883
50021W        W68768  16.091  31.226  22.842 -0.1121  0.2685 -0.2401
50022W        W68769  34.122  13.711  13.591 -0.2451 -0.2597 -0.0588
50023W        W68770  15.817  25.459  13.713  0.0493 -0.0391 -0.1886
50024W        W68771  26.272  34.652  21.985 -0.0014 -0.5476  0.2182
50025W        W68772   6.414   2.923   3.409 -0.0876 -0.0605 -0.0064
50026W        W68773  31.297  28.503  25.187  0.1181  0.1337 -0.1022
50027W        W68774  27.434  33.346  25.938  0.2355  0.2312 -0.0859
50028W        W68775  31.987  24.867  22.084  0.1308  0.2745 -0.2446
50029W        W68776   7.134  24.590  13.156  0.2110 -0.2061 -0.0954
50030W        W68777  26.572  13.433   0.770 -0.0730  0.0339 -0.0491
50031W        W68778  12.465  34.051   5.457 -0.0139  0.1695 -0.1764
50032W        W68779  34.139   7.576  10.885  0.0137 -0.2233 -0.2879
50033W        W68780  24.829  34.068  19.576  0.2371  0.0737  0.1022
50034W        W68781   7.232  20.979   3.233  0.2144  0.2309 -0.0207
50035W        W68782   5.027  26.369   6.360  0.0135  0.0585 -0.0600
50036W        W68783  15.435  13.923   5.753 -0.2699 -0.0978  0.1415
50037W        W68784  31.202  26.315   2.774  0.0351 -0.2918  0.3710
50038W        W68785   3.097  11.392   1.374  0.1341  0.0084  0.2120
50039W        W68786  10.066  28.799  24.501  0.1937  0.1239 -0.1413
50040W        W68787  33.451  34.058  18.498  0.1838 -0.1314  0.0422
50041W        W68788   3.593  31.748  12.154 -0.0662  0.0421 -0.0821
50042W        W68789  24.794  15.423  13.827  0.5241 -0.2680  0.1358
50043W        W68790   5.521  18.461  18.372 -0.3821 -0.0516  0.1491
50044W        W68791   7.448  14.410  22.324  0.0269  0.2492  0.1103
50045W        W68792  15.977   4.431  22.796 -0.3707 -0.2579  0.3499
50046W        W68793  12.751  24.183  11.597 -0.3987 -0.0621  0.1799
50047W        W68794  22.026  20.675   3.391 -0.0070  0.3214 -0.1586
50048W        W68795  23.618   6.335  16.548 -0.0131 -0.1627  0.0327
50049W        W68796  34.646  10.755  20.310 -0.0929  0.1696  0.0219
50050W        W68797  34.152   8.187   2.817 -0.0109  0.2352 -0.0758
50051W        W68798  28.643  30.600   4.136 -0.3300  0.1177 -0.1276
50052W        W68799  13.999  19.855  23.073 -0.0865 -0.1729  0.2287
50053W        W68800  29.679  34.154  11.926 -0.0703 -0.1872  0.0480
50054W        W68801   9.072   4.109   4.539  0.1146  0.3303  0.0377
50055W        W68802  26.449  32.306  22.390 -0.3201  0.1284  0.1008
50056W        W68803   7.429  11.604   7.418 -0.0502  0.1653  0.0613
50057W        W68804  13.437  13.860  23.114  0.3136 -0.0288  0.1634
50058W        W68805   9.230   2.584  12.015 -0.1528 -0.0798  0.1791
50059W        W68806  33.601   3.610  21.443  0.0642 -0.0915  0.0715
50060W        W68807   7.303  10.310  23.671  0.2007  0.2054 -0.1384
50061W        W68808  26.512  25.173  21.613  0.1319 -0.0214 -0.0600
50062W        W68809  28.271  20.519   6.321  0.3021  0.0276  0.0723
50063W        W68810  28.345  20.358   6.775 -0.0281 -0.2251  0.1424
50064W        W68811  33.800  19.033  23.778  0.0446 -0.0592 -0.1202
50065W        W68812  26.676  22.104  22.193 -0.1037  0.2340 -0.0330
50066W        W68813   5.419  29.055  11.249  0.0119  0.1908 -0.0455
50067W        W68814   6.456  22.961   8.147 -0.0384  0.0141  0.0515
50068W        W68815  29.911   1.852  22.218 -0.1237 -0.0129  0.1799
50069W        W68816  25.653  30.032   4.834  0.0630 -0.1357  0.0680
50070W        W68817   0.378  15.310   1.820  0.3371  0.2299  0.0597
50071W        W68818   8.284  32.478  15.244  0.0482  0.0322  0.2384
50072W        W68819  12.788  13.356   0.520 -0.0878  0.1157  0.0633
50073W        W68820   9.042  35.167  14.551  0.0047  0.2777 -0.0912
50074W        W68821   0.112  33.680   4.466 -0.0127  0.2399 -0.0954
50075W        W68822  12.614  21.952   2.860  0.3814 -0.2493 -0.0194
50076W        W68823  35.344  24.794  25.822 -0.1562  0.0448  0.2277
50077W        W68824  16.733   2.478  20.116 -0.3356  0.2339  0.2325
50078W        W68825  28.188  25.487  10.589  0.0595  0.1713 -0.0736
50079W        W68826  33.609   1.001   1.650 -0.1519 -0.0021 -0.2122
50080W        W68827   6.938  14.463  20.610  0.0925  0.1896  0.0816
50081W        W68828  19.369  11.888  19.061  0.3266  0.0214  0.1561
50082W        W68829  18.373  15.881  24.346 -0.1320 -0.2476 -0.1166
50083W        W68830  21.508  29.260  13.432  0.2090  0.0763  0.1147
50084W        W68831  16.140  11.459  25.251 -0.5108  0.1167 -0.0147
50085W        W68832  21.615  12.744  22.413  0.0998  0.0011  0.1060
50086W        W68833   5.578  10.693   5.599 -0.2499  0.2668  0.0538
50087W        W68834  23.016  25.899  25.790 -0.3978 -0.1453  0.0158
50088W        W68835  30.216   0.506  17.052 -0.0766  0.0050  0.3522
50089W        W68836   6.597  29.160  20.961 -0.0032  0.1157 -0.0527
50090W        W68837  30.769  19.875  12.467 -0.4301  0.0261 -0.2018
50091W        W68838   2.142  20.906  20.131  0.0344 -0.0438  0.2515
50092W        W68839  19.369   3.563  23.207 -0.1128 -0.3807  0.1644
50093W        W68840  33.372   0.350  18.912 -0.1009  0.0870  0.0579
50094W        W68841   5.046   0.330   0.658 -0.4149  0.0886 -0.0716
50095W        W68842  26.584  19.576  19.465 -0.2501 -0.0348  0.2090
50096W        W68843  20.178  31.358   1.649 -0.0226 -0.0534 -0.0375
50097W        W68844  23.034  29.616  18.471  0.0732  0.2714  0.2014
50098W        W68845  12.829   2.520  19.860  0.0777  0.2079 -0.0679
50099W        W68846   2.761   5.230  25.234 -0.3521  0.3547 -0.1677
50100W        W68847  22.009   6.300   0.687  0.0282  0.0118 -0.5901
50101W        W68848   7.428  22.204   4.788  0.2506  0.0963  0.0642
50102W        W68849  22.191   1.080   5.618  0.1445 -0.1802 -0.2614
50103W        W68850   9.869  28.431   8.224 -0.0607  0.2211 -0.1909
50104W        W68851   8.562  24.388  12.259  0.1139 -0.2041 -0.2436
50105W        W68852   9.057  28.793   3.161 -0.1004  0.5128 -0.3273
50106W        W68853   8.270  15.590  25.270 -0.0498  0.2017  0.2972
50107W        W68854   2.369  12.982  23.022 -0.4058  0.3096  0.1956
50108W        W68855  28.712   2.256  11.524 -0.0134  0.0984 -0.2130
50109W        W68856  17.961  12.391  24.880 -0.2009 -0.0562  0.2712
50110W        W68857   5.410   6.653  21.040  0.2300  0.0033  0.1134
50111W        W68858  18.798  10.526  24.061  0.0961  0.1171 -0.3935
50112W        W68859  25.074   2.898  13.795 -0.0566  0.0482 -0.0365
50113W        W68860  23.515  27.937   3.273  0.1473  0.0638  0.0054
50114W        W68861  15.770  18.108   6.192 -0.1083 -0.0802  0.0252
50115W        W68862   5.257  14.392  20.165 -0.1559 -0.0756 -0.1422
50116W        W68863  10.276  25.800   7.342 -0.0128  0.0550 -0.1869
50117W        W68864  25.287   6.328   3.448  0.2331  0.2394 -0.0489
50118W        W68865   7.821  28.836   0.087  0.3741  0.1947  0.1043
50119W        W68866   8.216  26.952   1.405 -0.2400 -0.2595  0.0012
50120W        W68867  18.534  30.752  25.743 -0.0362  0.1973  0.0664
50121W        W68868  28.480   3.369  20.904 -0.2591  0.3702 -0.0465
50122W        W68869   0.842  20.812   2.741  0.1467 -0.1861  0.0297
50123W        W68870  28.183  11.867   9.328  0.0997 -0.2150 -0.1586
50124W        W68871  16.853  11.459  13.501 -0.1485  0.1526  0.0232
50125W        W68872   9.717  33.951  11.510  0.2355  0.2024 -0.0538
50126W        W68873  30.587   9.235  16.584 -0.1935 -0.2797  0.0355
50127W        W68874  29.157   2.037   0.147  0.0828 -0.2465 -0.1563
50128W        W68875  21.729  19.279   0.511  0.0014 -0.2308  0.3064
50129W        W68876  12.274  14.154  22.226 -0.0033  0.0718 -0.2385
50130W        W68877  24.346  25.523  15.948 -0.2436 -0.0825 -0.0031
50131W        W68878  15.706   2.980   0.786 -0.0213  0.1135 -0.0604
50132W        W68879   7.534  35.176   2.298 -0.3916 -0.4337 -0.0118
50133W        W68880  13.508  15.153   4.688 -0.0297  0.1018 -0.3233
50134W        W68881  23.307  13.460   0.408 -0.0454 -0.5120 -0.0725
50135W        W68882   5.991   5.456  23.102  0.1342 -0.0010 -0.1098
50136W        W68883  17.163  12.547   1.993  0.1284 -0.0981 -0.0286
50137W        W68884  31.600   5.050  22.425  0.0095 -0.1644 -0.1872
50138W        W68885   1.178  23.489  24.366  0.2255 -0.2896  0.0993
50139W        W68886  31.989  31.492   4.218  0.1666 -0.2282  0.0135
50140W        W68887   0.223  19.903  16.989 -0.0952 -0.0699 -0.1055
50141W        W68888  13.909  14.471  11.489 -0.2801  0.0080  0.1254
50142W        W68889  29.880   3.664  19.340 -0.0287 -0.0966  0.0829
50143W        W68890   4.575   9.324   0.791  0.1125  0.0082 -0.1073
50144W        W68891  14.344  17.421   5.832  0.1257  0.0429 -0.1502
50145W        W68892  11.373  25.256   6.804  0.0403  0.2374  0.0265
50146W        W68893  19.194   4.971  23.664 -0.1499  0.2294 -0.3663
50147W        W68894  34.436  32.483  23.169 -0.4424 -0.0942  0.0744
50148W        W68895   6.009   8.175  25.471 -0.0811 -0.3691 -0.2431
50149W        W68896  31.244  29.695   0.739 -0.0797  0.0359 -0.0014
50150W        W68897  20.184   7.242   1.659  0.3548 -0.1321  0.1566
50151W        W68898  21.699  13.695   2.971  0.0588  0.2101 -0.1359
50152W        W68899  20.618  34.603   3.041 -0.0318  0.0612  0.3209
50153W        W68900   5.837  20.594  23.730  0.2433  0.1324 -0.1011
50154W        W68901  25.619   7.978  19.279 -0.1295  0.0690 -0.0715
50155W        W68902  20.165   3.915  23.419  0.1327 -0.2904 -0.1366
50156W        W68903  10.997  29.094   8.393 -0.1844  0.1648 -0.2438
50157W        W68904  32.453  21.245  17.515  0.1279 -0.2910 -0.0099
50158W        W68905   1.459  31.450  18.580 -0.0496  0.0107 -0.0272
50159W        W68906   9.450  32.220   1.931 -0.1579  0.2489  0.0944
50160W        W68907  17.680   4.013   7.475  0.0731 -0.1327 -0.2123
50161W        W68908   3.337  33.869  17.566 -0.0598 -0.1051 -0.0844
50162W        W68909  25.890  23.207  19.103  0.1071  0.0473  0.0873
50163W        W68910  28.591  14.914  15.614  0.1118 -0.0437  0.0045
50164W        W68911  14.901  34.926   3.730  0.1662  0.0673  0.0312
50165W        W68912  11.857  21.486   0.269  0.0179  0.2077 -0.0291
50166W        W68913  20.773  32.313   6.550  0.0068 -0.1819  0.3669
50167W        W68914  12.717   6.513  26.175  0.1221 -0.3255 -0.3535
50168W        W68915  28.455  12.497   7.808 -0.4224  0.0488  0.3669
50169W        W68916  11.508   9.620  21.732  0.1447 -0.0600 -0.0354
50170W        W68917  14.896   8.810   7.454 -0.0976 -0.1289  0.2617
50171W        W68918  30.803  21.843  20.653 -0.2360 -0.0487 -0.0637
50172W        W68919  15.374  30.668   4.635 -0.0532 -0.1316 -0.3570
50173W        W68920   8.562  18.355  20.315 -0.0727 -0.1016  0.2978
50174W        W68921  33.397   3.055  15.060  0.0989  0.0965  0.1383
50175W        W68922  12.205  12.969  12.642 -0.1389 -0.3341  0.1944
50176W        W68923  21.493  33.025  15.208 -0.3274 -0.1454  0.0645
50177W        W68924  30.893   8.630  21.048  0.0841 -0.1713  0.5202
50178W        W68925  30.632   3.111   4.354  0.1103  0.1094  0.0487
50179W        W68926  33.132  14.145  19.671 -0.4223 -0.2410 -0.0403
50180W        W68927  23.566  27.505  13.165  0.0607  0.2356 -0.2060
50181W        W68928  30.012   8.202  18.615  0.1898 -0.0412  0.0188
50182W        W68929  12.859   6.789   2.889 -0.2294  0.1869 -0.1258
50183W        W68930  28.909  15.817  14.677  0.1177 -0.3609  0.0522
50184W        W68931  14.731   5.872  17.543 -0.0824 -0.0203  0.1532
50185W        W68932  16.672  18.190  24.166  0.2315 -0.0300 -0.1776
50186W        W68933  28.397  21.582  25.322  0.2466 -0.0123  0.1180
50187W        W68934  31.442   2.137  17.689 -0.2714  0.1565 -0.1115
50188W        W68935  29.487   8.091   7.983 -0.1020 -0.0050 -0.0073
50189W        W68936  18.561   3.977   7.368 -0.0927 -0.1405 -0.1282
50190W        W68937   8.221  31.126   2.050 -0.1506 -0.0476 -0.2479
50191W        W68938  34.777  31.377  17.849 -0.0396  0.3386  0.3470
50192W        W68939  19.688  30.567  17.985 -0.2747  0.3173  0.0500
50193W        W68940  33.495  17.137   9.497 -0.1086  0.2936 -0.0457
50194W        W68941  23.851   8.078  24.224 -0.3929 -0.1667 -0.1691
50195W        W68942   1.916  27.727   2.229  0.0176 -0.0136  0.0768
50196W        W68943  14.692  14.916   0.408 -0.1843  0.1094 -0.0264
50197W        W68944  12.079   0.137   4.267  0.2492 -0.0985  0.0367
50198W        W68945   9.916   2.897  22.525  0.1990  0.1824  0.0100
50199W        W68946  27.054  14.079  22.539 -0.0654 -0.2671 -0.1446
50200W        W68947   3.084   3.680   6.561 -0.0754  0.0995 -0.0448
50201W        W68948   6.001  17.385   4.503  0.1647 -0.1139  0.1025
50202W        W68949  12.795  11.143   6.645  0.3492  0.3251 -0.1419
50203W        W68950  25.469  10.867  18.368  0.2710 -0.2599  0.0261
50204W        W68951  32.174  14.926  14.583 -0.2616 -0.1567  0.0397
50205W        W68952  31.056  17.422  12.674 -0.5080 -0.2637 -0.0247
50206W        W68953  15.454  13.003  25.397 -0.1600  0.0559 -0.0240
50207W        W68954  24.227  32.525  16.081  0.0087  0.1042  0.0861
50208W        W68955   5.112  28.860  23.463  0.3715 -0.0996  0.0036
50209W        W68956   1.338   6.598  13.735  0.0206 -0.0505 -0.1256
50210W        W68957  22.093   2.442  20.527  0.0120 -0.0513 -0.1264
50211W        W68958   4.941   0.251   9.224 -0.0790 -0.0135 -0.3580
50212W        W68959   0.351  32.883   4.799  0.1211 -0.1764 -0.1484
50213W        W68960   0.169  14.615  13.047  0.1041  0.0438 -0.0144
50214W        W68961   0.058   4.989  21.714  0.3054 -0.3933 -0.2093
50215W        W68962   3.354  28.288   6.695  0.2541 -0.4158  0.1847
50216W        W68963   2.136   7.265  20.892 -0.0183 -0.1537  0.1442
50217W        W68964   4.670  32.839  22.544  0.2282  0.0679 -0.1776
50218W        W68965   1.530  34.883  15.921  0.3323  0.0924 -0.2984
50219W        W68966   8.506   9.829   0.060 -0.1540  0.2017 -0.0430
50220W        W68967  28.118  33.348  19.573 -0.0050  0.3166  0.1824
50221W        W68968  23.039  21.885  21.511  0.1647 -0.1828  0.0967
50222W        W68969  10.802   7.944  21.288 -0.0744 -0.4214  0.2430
50223W        W68970  34.657  31.879   4.147 -0.1243 -0.0986  0.1842
50224W        W68971  30.291   0.611   5.082  0.3077  0.2332  0.2741
50225W        W68972   1.325  28.354  25.326 -0.4216 -0.2731 -0.1059
50226W        W68973  17.225   8.570   4.069 -0.2679 -0.2591  0.1768
50227W        W68974  26.311  11.808  13.206  0.0287 -0.2069  0.0567
50228W        W68975  10.464   4.705  23.347 -0.0989  0.1486 -0.1550
50229W        W68976  31.437  21.297  13.587 -0.0261  0.3398  0.0449
50230W        W68977  12.559  16.171   0.323 -0.1167 -0.1667  0.2231
50231W        W68978   7.978  16.062  18.533  0.0232  0.2461  0.1012
50232W        W68979   6.572  29.468  10.638 -0.1626 -0.1818  0.0254
50233W        W68980  30.500   3.451   2.719 -0.4398  0.1116 -0.0047
50234W        W68981  15.288  17.588  10.533  0.0511  0.1655  0.1995
50235W        W68982  15.417  14.358   7.069 -0.0308  0.0759  0.1534
50236W        W68983  18.533  33.231  16.437  0.3238 -0.1017 -0.0101
50237W        W68984   6.075   0.377  10.325  0.2399 -0.0874 -0.2490
50238W        W68985  17.087  22.879  25.927  0.0004 -0.1665  0.2024
50239W        W68986  15.322  25.536  16.532 -0.0605  0.0230  0.1661
50240W        W68987   2.472  24.163   4.156  0.1684  0.3094 -0.1624
50241W        W68988  28.663  26.465  25.264  0.0569 -0.2487 -0.0087
50242W        W68989  31.534  35.134   6.187  0.3942  0.2462 -0.0679
50243W        W68990  17.824   4.729   5.192  0.7280 -0.1749  0.0035
50244W        W68991  16.561  26.162  11.691 -0.1803 -0.1713 -0.1557
50245W        W68992  28.828  15.448  15.909 -0.4229 -0.1147 -0.3419
50246W        W68993  23.547  27.481   4.532  0.2982 -0.1849  0.1542
50247W        W68994  17.613  20.550   5.747 -0.1519  0.2019 -0.2348
50248W        W68995   6.970  17.976  22.945 -0.4400 -0.0940 -0.3638
50249W        W68996  25.181  15.699  23.964 -0.0223  0.2128 -0.0087
50250W        W68997   7.498  14.597   7.472 -0.0686 -0.2861 -0.1235
50251W        W68998   8.518   5.693  26.063 -0.0828 -0.1297 -0.0541
50252W        W68999  28.565  24.750  24.855  0.1547 -0.1403 -0.3731
50253W        W69000  31.027  27.910  17.613  0.1768 -0.0667 -0.0473
50254W        W69001  22.578   9.757   2.129 -0.2975 -0.0590  0.3979
50255W        W69002   3.478  15.523  18.638  0.1598  0.3893  0.0066
50256W        W69003  15.135  24.470   5.337 -0.1989  0.0829  0.0156
50257W        W69004  29.786  32.258  15.374 -0.0792  0.5566 -0.2514
50258W        W69005  17.154   2.643   4.742  0.0195 -0.2603  0.3304
50259W        W69006   1.797  14.584   0.199 -0.0388 -0.1730  0.1289
50260W        W69007   7.242  23.965   1.029 -0.0420 -0.0332  0.2413
50261W        W69008  27.508   7.383  10.303  0.0989 -0.5425  0.0326
50262W        W69009  33.635  24.720  18.644 -0.1528 -0.1865 -0.2332
50263W        W69010  30.931   2.256  20.883 -0.0265  0.2059  0.0451
50264W        W69011  31.233  29.878  22.818 -0.0945 -0.2542  0.1364
50265W        W69012  31.828  21.369   5.319  0.3163  0.0331  0.0660
50266W        W69013  31.053  13.446   0.697 -0.0662  0.0789  0.2385
50267W        W69014  28.364   0.533  19.142  0.0424  0.2658 -0.2764
50268W        W69015  29.857  19.245  13.816  0.1160  0.3316  0.1325
50269W        W69016  14.892  16.362  24.544  0.1604 -0.3131 -0.1784
50270W        W69017  17.417  10.247  24.040 -0.2201  0.0633  0.2325
50271W        W69018  30.497   8.014   1.229 -0.1264 -0.2676 -0.0296
50272W        W69019  35.366  18.012  11.366 -0.2887 -0.1732  0.0450
50273W        W69020  30.131  27.144  16.413  0.1017  0.0226 -0.1433
50274W        W69021   1.095  28.664  18.221 -0.1910 -0.0787 -0.2139
50275W        W69022   6.390  15.947  10.989  0.1887  0.1404 -0.1571
50276W        W69023  17.387   2.472  10.409 -0.0456  0.4173  0.1748
50277W        W69024  20.188  28.125  24.801 -0.0930 -0.1665  0.2602
50278W        W69025  14.429   3.498  25.777 -0.0750 -0.5324 -0.1460
50279W        W69026   3.068  11.276  15.438 -0.0819  0.3323  0.0272
50280W        W69027  35.352   9.750  22.497 -0.0084  0.0011  0.1171
50281W        W69028  24.111  33.876   1.653  0.2000 -0.2499  0.1659
50282W        W69029   6.009   0.105  21.684 -0.3304 -0.1369  0.2920
50283W        W69030  30.770   5.675   0.851  0.1618 -0.2967  0.0442
50284W        W69031  14.605  34.392  21.674  0.1906 -0.2542 -0.0169
50285W        W69032   5.593  30.296  22.245 -0.0382  0.1778  0.2194
50286W        W69033  18.708  14.198  23.750  0.0713 -0.0844 -0.0886
50287W        W69034  22.115   1.956  14.855  0.0629 -0.0655 -0.4038
50288W        W69035  29.348  11.039  12.589  0.0451 -0.3040 -0.3129
50289W        W69036  13.499  34.332  25.395 -0.0856 -0.1052 -0.1105
50290W        W69037   0.789  15.917  21.745 -0.0874  0.0164 -0.0564
50291W        W69038  14.987   4.539  18.249 -0.0598 -0.1506  0.3389
50292W        W69039  27.930  20.101   6.666 -0.3161  0.1055  0.1770
50293W        W69040   4.273  19.556  20.630 -0.1246  0.1344 -0.0835
50294W        W69041  24.656   8.018  16.875  0.2471 -0.0699 -0.3243
50295W        W69042  23.679   8.037   0.691  0.0978 -0.0759  0.0967
50296W        W69043   9.098  21.715  12.804 -0.1993  0.0056  0.0452
50297W        W69044   4.355  17.174  17.332  0.0069 -0.1342  0.2965
50298W        W69045  35.137  32.993  24.215 -0.2666 -0.0264  0.0874
50299W        W69046  18.174   9.839   8.886  0.2287 -0.2623  0.1503
50300W        W69047   3.322  27.316  26.154  0.1356  0.2240 -0.3294
50301W        W69048  30.941  26.821  17.181  0.0345 -0.0336 -0.2512
50302W        W69049  30.903  35.180  18.358 -0.3321  0.1581  0.0054
50303W        W69050  14.813  14.174  19.880  0.0479 -0.1435 -0.1811
50304W        W69051   5.144  14.108   2.897  0.3621  0.0210  0.1005
50305W        W69052  14.527  34.122  24.266 -0.1036  0.1230  0.2985
50306W        W69053  16.016  23.355   7.377  0.0630  0.0802 -0.0576
50307W        W69054   4.940  10.999   0.057  0.1326 -0.1160  0.0734
50308W        W69055  26.873  31.164  14.570 -0.1998  0.1924  0.1387
50309W        W69056  33.004  23.755  26.252 -0.5030 -0.0251 -0.1299
50310W        W69057   4.536  11.200   2.015  0.2335 -0.3560  0.3021
50311W        W69058  16.684   7.745  13.106 -0.1278 -0.1408  0.3840
50312W        W69059  15.528  32.714  11.667 -0.1603 -0.0492 -0.0167
50313W        W69060  23.957  10.421  13.571 -0.0375  0.1559  0.0303
50314W        W69061  16.656  28.602  25.629  0.1132  0.1218 -0.1473
50315W        W69062   7.985  24.142  24.706  0.1029  0.0151 -0.3465
50316W        W69063  18.122  15.026   2.749  0.1829 -0.3530 -0.1106
50317W        W69064  31.928   3.564  22.766 -0.0836 -0.0484 -0.2454
50318W        W69065   0.976  25.001   4.569  0.0487 -0.2199  0.1411
50319W        W69066  26.658  31.558   3.760 -0.2104 -0.0591  0.1445
50320W        W69067  22.558  30.377  26.045 -0.0681 -0.2130  0.0464
50321W        W69068  29.316  24.544   0.809 -0.1639  0.0670  0.0190
50322W        W69069  23.263   5.580  23.340 -0.0430  0.2036  0.0534
50323W        W69070  30.242  32.697  20.243  0.1350 -0.0856  0.2182
50324W        W69071   7.751   5.177   7.246 -0.1884  0.0637 -0.4180
50325W        W69072  10.403  22.054  14.259  0.1544 -0.0097 -0.2139
50326W        W69073  19.012  32.115  18.811  0.0003  0.1182 -0.2510
50327W        W69074   1.654  19.558  25.883  0.2975 -0.3047 -0.1561
50328W        W69075   1.328  15.813  24.793 -0.1456  0.2550  0.2690
50329W        W69076  22.036   7.691  16.450 -0.0516  0.1874 -0.2021
50330W        W69077  34.712  10.634  22.744  0.0718  0.0982  0.0545
50331W        W69078   0.918   2.391  15.163 -0.3035 -0.2933 -0.0159
50332W        W69079   8.972  23.570  15.417  0.0587  0.2814 -0.0058
50333W        W69080  17.028  30.263  21.867  0.2204 -0.0987 -0.1923
50334W        W69081  22.799  12.104  24.002  0.0091 -0.1412  0.0014
50335W        W69082   4.469   1.143  25.729 -0.0958  0.1726 -0.1194
50336W        W69083   3.495  10.308   5.246 -0.2815  0.2054  0.2768
50337W        W69084  24.595   7.221  24.733 -0.0977 -0.1077  0.0528
50338W        W69085  30.235   2.315  14.002  0.2167  0.0666  0.0058
50339W        W69086   9.057  32.457  24.340 -0.1879  0.0517 -0.4931
50340W        W69087  28.249  13.325   6.433  0.1003  0.0127 -0.0340
50341W        W69088   4.591  20.332  19.742  0.1683 -0.1969 -0.0369
50342W        W69089  20.380  13.815   5.975 -0.3373 -0.1317 -0.2087
50343W        W69090  27.079  13.470  19.513  0.1275  0.1711  0.1867
50344W        W69091  35.210  34.699  17.356  0.2837  0.0469 -0.0632
50345W        W69092  15.730  16.873   8.694 -0.2157  0.0066 -0.1184
50346W        W69093  18.186  13.485  11.269  0.0456  0.0321 -0.3624
50347W        W69094  20.943  16.006   0.576 -0.1847 -0.5041 -0.2811
50348W        W69095   9.061   0.126   5.258 -0.1997 -0.1524 -0.3634
50349W        W69096  34.536   7.171  13.891 -0.0948  0.2660  0.0531
50350W        W69097   1.238   4.442  25.422  0.1700  0.4184  0.2000
50351W        W69098  16.100   9.891  22.742 -0.1406  0.0186  0.2330
50352W        W69099  19.178   2.863  25.934  0.3275 -0.0972  0.0745
50353W        W69100  24.306  33.314   6.387  0.2044 -0.1260 -0.2275
50354W        W69101  20.183  34.879   6.101 -0.0149 -0.2049  0.2320
50355W        W69102  25.977  16.908   7.443 -0.1007  0.2127  0.0462
50356W        W69103  25.843   9.090  21.186 -0.0297  0.0987 -0.1932
50357W        W69104   7.727  30.105   8.745 -0.2368 -0.1868  0.1831
50358W        W69105  13.024  11.465  13.537  0.0788 -0.1073 -0.1914
50359W        W69106   5.347  22.970   1.903  0.0035 -0.2371  0.1135
50360W        W69107  21.760  28.635   3.026 -0.2586  0.2111 -0.2713
50361W        W69108  14.932   3.027   2.064 -0.0680 -0.1978 -0.0770
50362W        W69109  11.757  10.817  24.402  0.1927  0.2087 -0.2596
50363W        W69110   2.446  16.090  25.896  0.0977 -0.1600  0.1348
50364W        W69111  22.660  28.610   4.343  0.0879 -0.1934 -0.2026
50365W        W69112  14.442  14.144  18.492 -0.2623  0.3486 -0.1604
50366W        W69113  13.832  26.024  16.575 -0.2155  0.0224  0.1739
50367W        W69114  20.050  20.054  19.704  0.0034  0.2030 -0.2112
50368W        W69115  23.373   1.244   0.463 -0.1232  0.0465  0.4125
50369W        W69116  26.290   2.377  13.206  0.1442 -0.0799  0.0125
50370W        W69117  27.707  17.513  13.754 -0.0675 -0.0422 -0.1935
50371W        W69118  25.792   7.896   1.646  0.2989 -0.4320 -0.0413
50372W        W69119  32.512   9.429  25.311  0.4109 -0.0097  0.0882
50373W        W69120   7.522  30.055   0.706 -0.1032  0.1375  0.0258
50374W        W69121  33.816  29.151  21.281  0.0761 -0.0990 -0.1161
50375W        W69122  11.048  11.374  23.988  0.3638 -0.0514 -0.0284
50376W        W69123   4.323  34.298  23.767 -0.3369  0.0015 -0.0615
50377W        W69124   1.781   6.854  21.824  0.1519  0.2774  0.2868
50378W        W69125  12.744  17.055   8.904  0.0514 -0.2519  0.1128
50379W        W69126  15.216  17.724   8.606 -0.1341  0.1456  0.0627
50380W        W69127  10.704   4.559  23.763  0.1520  0.2015 -0.1942
50381W        W69128  16.070  19.660   3.997 -0.1237 -0.0327  0.0488
50382W        W69129   3.653  32.133   1.716 -0.0505  0.1102  0.1499
50383W        W69130  10.737  11.863   6.127 -0.0404 -0.0016  0.0067
50384W        W69131   3.665  11.304  20.966 -0.0283 -0.0599 -0.2213
50385W        W69132  34.973   5.631  20.437  0.0307 -0.2473 -0.3492
50386W        W69133  32.894   2.493   4.765 -0.2133 -0.1360  0.1102
50387W        W69134  22.958  13.140  21.244 -0.1354  0.0224  0.5499
50388W        W69135  27.513  14.037  10.176  0.0407  0.0727 -0.1164
50389W        W69136  24.413  29.764  15.667 -0.0612 -0.1336  0.4222
50390W        W69137   0.956  15.254   1.964 -0.0102 -0.1430 -0.2339
50391W        W69138   7.184  14.139   7.519 -0.1309 -0.3674  0.0285
50392W        W69139  30.431  18.297  23.443 -0.2345 -0.0412  0.3442
50393W        W69140   3.327  19.568   0.172 -0.4678 -0.3755  0.3442
50394W        W69141  11.804  30.723   1.043 -0.1975  0.3341  0.3391
50395W        W69142  14.235  12.499  19.717  0.0908 -0.0964  0.2855
50396W        W69143  14.266  23.770   2.640 -0.3287 -0.1602 -0.1947
50397W        W69144  18.708   7.915   1.887 -0.2335 -0.1372  0.1191
50398W        W69145   9.566  18.303   9.565  0.0312 -0.0262  0.0042
50399W        W69146  30.196  18.585  24.783  0.5280 -0.2652  0.0227
50400W        W69147  14.424  26.724   5.608  0.0029 -0.0699 -0.3057
50401W        W69148  26.970  33.358  12.534 -0.0000  0.0489 -0.2748
50402W        W69149   6.223  32.340   5.735 -0.5205 -0.2174 -0.4119
50403W        W69150   3.041   9.271  25.375 -0.2419  0.1583 -0.3570
50404W        W69151  12.650  30.093  12.416 -0.1386 -0.1316 -0.0474
50405W        W69152  18.522  19.882  20.587  0.1817  0.1892  0.0357
50406W        W69153   8.609  34.144   2.330 -0.0463  0.1248  0.0169
50407W        W69154  12.556  12.934  19.503  0.0849 -0.0817  0.1574
50408W        W69155  26.028   6.673  21.829  0.0550  0.2062 -0.3041
50409W        W69156  20.029  26.403  18.880  0.0154  0.2095  0.1243
50410W        W69157  35.004  29.166   2.554 -0.3314 -0.2265  0.0350
50411W        W69158  34.437   8.526   1.946  0.2608  0.0482  0.2401
50412W        W69159  33.364   1.706  16.470 -0.0878 -0.0331 -0.0767
50413W        W69160  17.788  12.384   7.307 -0.1557  0.2654 -0.0249
50414W        W69161   9.448   8.524   5.383  0.1286  0.0997  0.2506
50415W        W69162  32.787  27.734   2.071 -0.0955 -0.1173 -0.0382
50416W        W69163  22.922  14.822  16.260 -0.1063 -0.1497  0.1676
50417W        W69164  28.391   4.671  24.890  0.0537  0.3036 -0.4340
50418W        W69165  10.985  22.297  22.049 -0.2640 -0.0415 -0.2827
50419W        W69166  27.110  30.369  18.867  0.1203 -0.1459  0.0556
50420W        W69167  35.299  32.876  17.724  0.1519  0.1788 -0.0901
50421W        W69168  33.459  18.749  23.341 -0.0725 -0.0810 -0.1020
50422W        W69169  29.187   0.728  20.266  0.2796  0.1725 -0.2005
50423W        W69170  14.466  24.596  11.052 -0.3033  0.2020  0.2272
50424W        W69171   3.246  24.718   5.705  0.0321 -0.2026 -0.5257
50425W        W69172  26.279  25.625  10.343  0.1390 -0.1404 -0.0244
50426W        W69173  23.605   7.266  21.046 -0.1665  0.1352  0.2704
50427W        W69174  10.927  10.784  13.297 -0.0690 -0.1057 -0.0211
50428W        W69175   7.602  14.797   3.362 -0.3307 -0.1272  0.1206
50429W        W69176  24.026  29.357  12.299 -0.0655  0.1005 -0.0128
50430W        W69177  25.581   3.274   2.314 -0.0183 -0.1808 -0.0727
50431W        W69178   9.598  15.927   4.651  0.1898 -0.1672 -0.2683
50432W        W69179  25.384   4.960  13.172  0.0914  0.1597 -0.0602
50433W        W69180  13.155   5.794  13.620 -0.2357 -0.2426  0.2716
50434W        W69181  34.068   5.647  18.282  0.0115 -0.2701  0.0864
50435W        W69182  28.223  15.925  17.085  0.0426 -0.1510  0.2163
50436W        W69183  19.380  33.244  17.681  0.0059  0.1058  0.0380
50437W        W69184   2.973  33.559   0.663  0.0698  0.0844 -0.0549
50438W        W69185  25.400  35.232  16.510 -0.1276 -0.1612 -0.3490
50439W        W69186  32.561  29.048  23.364  0.2125  0.2254 -0.2753
50440W        W69187  13.722   7.510   4.816  0.2656  0.1229  0.1997
50441W        W69188   3.019  12.246   0.845 -0.2904 -0.2324  0.1573
50442W        W69189   3.174   7.293   7.640  0.0114  0.0914 -0.1092
50443W        W69190  18.922  27.579  24.653  0.1538 -0.3856 -0.1313
50444W        W69191  15.827   0.435   9.338  0.0746 -0.1662  0.0597
50445W        W69192  16.363   8.113   6.086 -0.1190  0.1413  0.1474
50446W        W69193  31.265  28.837  22.275  0.0690  0.4704 -0.1017
50447W        W69194  15.082  14.377  22.237 -0.0688  0.0274  0.1516
50448W        W69195   5.498  23.884   4.125 -0.3962  0.0952 -0.2145
50449W        W69196  23.955   3.598   6.672  0.1887 -0.0020  0.0440
50450W        W69197  14.001  14.586   2.287  0.1536 -0.3620 -0.2162
50451W        W69198  24.088  21.791  17.533  0.0234  0.3762 -0.3988
50452W        W69199  28.206  18.960  12.879  0.0457  0.1512 -0.0560
50453W        W69200   4.443  17.418   2.255  0.2072 -0.0837 -0.0571
50454W        W69201  12.416  30.009  24.198 -0.0633 -0.0333 -0.2517
50455W        W69202   1.299   8.176  24.473  0.0649 -0.3949 -0.0789
50456W        W69203  15.330  33.847  10.715 -0.0719 -0.0564 -0.0616
50457W        W69204  14.477  29.122   0.207  0.0326 -0.0313  0.2697
50458W        W69205  29.182  31.666   4.744  0.0319 -0.1140  0.2473
50459W        W69206  20.020  14.274   3.121  0.0162 -0.0647  0.3236
50460W        W69207  26.510   0.105   2.776 -0.1506  0.1202  0.2836
50461W        W69208  25.098  17.188  19.133  0.2493 -0.2796  0.1759
50462W        W69209  17.888  18.289   9.675 -0.0274  0.2002  0.1371
50463W        W69210  34.140   0.885   6.474 -0.0144 -0.1433  0.3193
50464W        W69211  15.546  17.120  25.599  0.0716  0.0870 -0.0166
50465W        W69212  25.671  10.945  20.032 -0.0223  0.0556  0.1726
50466W        W69213  30.690  11.895  14.414 -0.0613  0.2643  0.3462
50467W        W69214  28.331  31.802  19.220  0.0185  0.0313  0.2185
50468W        W69215  12.285   5.803  19.831  0.1778 -0.2889  0.3437
50469W        W69216  19.700  10.263   1.587  0.0421 -0.5583  0.0230
50470W        W69217   2.954  12.763  18.758 -0.1867  0.0683 -0.0243
50471W        W69218  12.221  19.339   3.181  0.1109  0.0920 -0.2655
50472W        W69219  22.596  10.307   3.580  0.0281  0.1403 -0.2229
50473W        W69220  34.922   8.602   1.829  0.3964 -0.1692  0.3857
50474W        W69221   6.561   6.095  19.029  0.1906  0.0302 -0.3117
50475W        W69222  21.177   4.434  19.995 -0.1355 -0.3528  0.2527
50476W        W69223   7.766  24.548  24.843  0.2386 -0.1648 -0.0886
50477W        W69224  30.018  20.654  23.891 -0.0446 -0.1623 -0.1885
50478W        W69225  11.362   2.265   2.919 -0.2765  0.0192 -0.0320
50479W        W69226  24.025  33.778  17.652  0.4273  0.2211  0.0339
50480W        W69227  29.672  25.234  21.282  0.0851 -0.1888 -0.0638
50481W        W69228  18.690  31.667  22.321  0.0564 -0.1334  0.0058
50482W        W69229  23.455  14.896  23.493  0.2990  0.1690  0.0486
50483W        W69230  19.145  11.288   9.934  0.3955 -0.1309 -0.1251
50484W        W69231  29.292  12.250  13.704 -0.0821 -0.2056  0.0176
50485W        W69232  16.582  34.389   2.565 -0.2540 -0.1756 -0.3692
50486W        W69233  29.924   1.589  16.162  0.1125 -0.1602 -0.1337
50487W        W69234  22.414   3.342  18.107 -0.0725 -0.1626  0.4113
50488W        W69235  23.658  30.803   1.537 -0.0808 -0.4013  0.0491
50489W        W69236  16.189  26.592   3.325 -0.2144  0.3412  0.2475
50490W        W69237  35.357   7.407  21.246  0.0583  0.3432 -0.0501
50491W        W69238  17.932  18.295  13.631  0.1094 -0.0472  0.5434
50492W        W69239  34.936  14.749  12.960 -0.1506 -0.2199 -0.0843
50493W        W69240  22.293  24.602  25.759 -0.0407  0.0813 -0.0475
50494W        W69241  23.670  20.471  24.874 -0.2195 -0.1591 -0.1587
50495W        W69242   7.247  18.822   9.703  0.0482 -0.1928  0.0561
50496W        W69243   2.474  29.204  20.852  0.3313 -0.0798 -0.0098
50497W        W69244   2.657   6.637  22.818 -0.1624  0.2300  0.0193
50498W        W69245   8.276  23.783  13.333  0.2929 -0.4219 -0.1739
50499W        W69246   2.583  30.239   1.609  0.0318 -0.1473  0.2714
50500W        W69247   9.047  33.586  25.692 -0.0875  0.0971 -0.0523
50501W        W69248   8.938  24.611   5.311 -0.2193  0.0795 -0.1360
50502W        W69249   7.482  28.557   8.520 -0.0488 -0.0462  0.0456
50503W        W69250  15.494   4.166  10.857 -0.0702  0.2012 -0.0052
50504W        W69251  24.123  29.850  22.988  0.1705 -0.0216 -0.0276
50505W        W69252   6.069  25.489  22.331  0.2207 -0.1327  0.0755
50506W        W69253   0.913  28.596  17.726 -0.0257 -0.1908 -0.4197
50507W        W69254  16.540  11.341  12.783 -0.0470 -0.0552 -0.2528
50508W        W69255  23.505   3.141  16.271  0.0479  0.1269  0.0426
50509W        W69256   3.409  20.184  15.296  0.1428 -0.1087  0.1060
50510W        W69257  21.800  25.461  24.597  0.4114  0.0436 -0.0937
50511W        W69258  26.863   5.102  12.472 -0.0265  0.4848 -0.0087
50512W        W69259  26.660  17.546  21.181  0.1146 -0.0729  0.0866
50513W        W69260   7.206  28.461   5.615  0.2521 -0.1604 -0.0081
50514W        W69261  33.812  34.168  19.828  0.4846 -0.4621 -0.0739
50515W        W69262   7.561  19.976   0.129  0.4378  0.1390 -0.0777
50516W        W69263  14.355  25.066   6.189 -0.0354 -0.1328  0.3503
50517W        W69264   9.380  15.074  25.035  0.0554 -0.1591  0.1461
50518W        W69265  34.286   4.114  22.011  0.3972  0.1063  0.0203
50519W        W69266  32.525  23.872  15.802  0.0152  0.0599  0.1008
50520W        W69267  27.103  25.108  10.420  0.0162 -0.0089  0.3462
50521W        W69268  19.054  34.262  20.646  0.2764  0.0627  0.0411
50522W        W69269  28.964  11.123   9.870  0.2079  0.0806  0.1813
50523W        W69270  17.152   7.682  22.106 -0.1011  0.1128  0.2585
50524W        W69271   4.850  32.911  21.609 -0.1967 -0.0084  0.2190
50525W        W69272  13.758  10.808   7.307  0.0520  0.2142 -0.2800
50526W        W69273  12.145  16.819  10.962 -0.1455 -0.0223  0.1830
50527W        W69274  14.530  19.033   4.074 -0.2041  0.2367 -0.1274
50528W        W69275  16.884  32.036  25.046  0.1985  0.1729  0.0906
50529W        W69276  13.762  13.333  20.704  0.1622 -0.2147  0.1062
50530W        W69277  16.054   1.926  25.491  0.3098  0.0401 -0.1773
50531W        W69278   7.636  12.326  19.822  0.1718 -0.3070  0.0626
50532W        W69279  26.123   6.986  15.637  0.1269 -0.0261  0.1024
50533W        W69280   5.621   8.607  19.584  0.2146 -0.2543  0.5049
50534W        W69281   4.138   0.514  18.891  0.1783  0.1838  0.3015
50535W        W69282  34.369  33.386  16.545 -0.1409  0.1505 -0.1219
50536W        W69283  23.564  20.999  12.744  0.0290 -0.2080  0.1326
50537W        W69284  26.718  14.783   6.685 -0.1674  0.0980 -0.0363
50538W        W69285  10.581   3.373   7.954  0.0913 -0.1276 -0.1551
50539W        W69286   9.897  29.962   2.799  0.1188  0.1717  0.0223
50540W        W69287   6.189   8.002   5.362  0.3629 -0.0085  0.2547
50541W        W69288  26.530  28.053   0.379  0.1277  0.2737  0.2310
50542W        W69289  22.949   4.077  15.430  0.0486  0.2446 -0.0809
50543W        W69290  32.917  18.612  22.397  0.1348  0.1540 -0.1916
50544W        W69291  19.981  20.857  20.519  0.0307  0.1799 -0.0089
50545W        W69292  20.210   4.236  15.865  0.2130 -0.2697 -0.0766
50546W        W69293  17.994   6.623   4.738  0.2220  0.0546  0.0449
50547W        W69294  26.034  27.778   2.199  0.2211 -0.1300 -0.1288
50548W        W69295  22.461  29.475  18.627 -0.5755 -0.1502  0.1969
50549W        W69296   4.234  32.287  23.645 -0.3032  0.2390  0.3192
50550W        W69297  33.331   9.498   9.867 -0.0206  0.4914 -0.2794
50551W        W69298  27.361  15.057  22.087  0.2280 -0.0592 -0.0641
50552W        W69299  15.274   3.941  11.728  0.0782 -0.0305  0.1026
50553W        W69300  17.353  32.856  20.341  0.0439  0.0229 -0.1897
50554W        W69301  25.254  21.989  18.365 -0.3192 -0.0815  0.1316
50555W        W69302  10.260  24.600   8.625  0.1039  0.1095 -0.1896
50556W        W69303   2.980  12.644   2.686  0.0555 -0.2946 -0.3222
50557W        W69304  12.152  20.418   1.930  0.1374  0.0435  0.2010
50558W        W69305  29.737  12.627  22.316 -0.1119 -0.1575 -0.5988
50559W        W69306   2.359  12.823  21.092  0.1123  0.0416 -0.0181
50560W        W69307  10.737  11.380   3.672 -0.0038 -0.3271 -0.0186
50561W        W69308  20.721  28.835  23.718 -0.0991  0.2205 -0.2896
50562W        W69309  12.447  34.148   0.168 -0.1344 -0.1413  0.1296
50563W        W69310  25.881  20.395  14.837  0.1952  0.0612 -0.0285
50564W        W69311  21.735   5.575  19.955  0.3503 -0.0406 -0.1507
50565W        W69312   1.357  12.574  16.946 -0.1451  0.0029 -0.0016
50566W        W69313  30.415  13.297  15.647 -0.2364 -0.1219 -0.1217
50567W        W69314   8.648  32.451   8.082  0.0290 -0.0954  0.2316
50568W        W69315  33.573  31.590   4.558 -0.0648  0.2106  0.0566
50569W        W69316   9.738  10.545  21.821 -0.0750 -0.1651 -0.2478
50570W        W69317  34.992  31.887  19.752  0.0853  0.1041 -0.2497
50571W        W69318  18.559  10.337   3.581  0.0741 -0.0350  0.0737
50572W        W69319  22.155   4.423  20.323 -0.1162  0.2915 -0.1107
50573W        W69320  22.811  25.466  16.583 -0.5266  0.1483 -0.0381
50574W        W69321  11.563  19.314   7.261 -0.0562 -0.0401  0.1051
50575W        W69322  20.914  29.062  16.119  0.0762  0.2830 -0.1345
50576W        W69323  35.281  24.507  17.586 -0.0828 -0.2882 -0.0728
50577W        W69324  28.045  24.244   8.202  0.1094  0.0993  0.0187
50578W        W69325  30.883   3.050   3.908  0.2396 -0.0532  0.0970
50579W        W69326   0.357  16.063  19.877 -0.0678  0.0612  0.3952
50580W        W69327  13.163  23.483  14.621 -0.3505  0.0273  0.2611
50581W        W69328  30.278   0.568   1.385 -0.0534 -0.0000  0.1780
50582W        W69329  29.082  26.245   9.517  0.3491  0.1746  0.1048
50583W        W69330  17.530  29.452   8.628  0.1777  0.0144  0.0802
50584W        W69331   5.103   6.865  19.361  0.1308  0.1234 -0.1828
50585W        W69332  22.171  13.084  17.564  0.1460 -0.1671 -0.3193
50586W        W69333  24.347  15.177  23.404 -0.0419 -0.2084 -0.0495
50587W        W69334  28.964  12.244  25.909 -0.1266  0.1070  0.0114
50588W        W69335  29.436  31.323   5.400 -0.2357  0.0893  0.0641
50589W        W69336  32.715  15.092  21.973 -0.0753 -0.1182 -0.0194
50590W        W69337   6.983  11.751  26.169  0.3484 -0.1625  0.2860
50591W        W69338  17.386  33.556  21.633 -0.0475 -0.1448  0.1085
50592W        W69339   2.395  16.223  19.522  0.1423 -0.2690 -0.0045
50593W        W69340   9.301   2.386  10.694 -0.0944  0.2542 -0.0146
50594W        W69341   6.647  32.228   6.482 -0.0154  0.0685  0.0102
50595W        W69342  23.458  34.530  12.201  0.0905 -0.2812  0.0950
50596W        W69343  20.461   7.735  24.894  0.1822  0.2769  0.2372
50597W        W69344   5.981  25.393  25.238  0.0447 -0.1914 -0.1482
50598W        W69345  22.953  34.244   1.122  0.1125  0.4222  0.0868
50599W        W69346   4.244  27.980  24.869  0.1745  0.1302  0.0424
50600W        W69347  26.519  13.833   8.191  0.0730  0.0399 -0.0237
50601W        W69348   2.712  17.008  22.776 -0.1983  0.1259 -0.0137
50602W        W69349  17.979  15.295   8.837 -0.2417 -0.0641 -0.0432
50603W        W69350  28.642   1.232  18.917  0.0482  0.0867 -0.1514
50604W        W69351  29.431   9.684  21.535  0.3509  0.0313  0.2217
50605W        W69352  30.153  16.235  24.218 -0.0227  0.3062 -0.1970
50606W        W69353   6.971   6.772   8.308  0.1021 -0.0696  0.2660
50607W        W69354  32.973  12.523   9.964  0.1884  0.1274  0.1362
50608W        W69355  13.859  33.172  20.169  0.1803  0.1358  0.0417
50609W        W69356   4.646  31.639  12.229 -0.0661 -0.2512 -0.2478
50610W        W69357  10.679   8.181   5.934 -0.0005  0.0199 -0.2261
50611W        W69358  33.045  27.759  20.084  0.0591  0.0354 -0.3016
50612W        W69359  25.280   5.525  17.049  0.1161  0.0022 -0.0750
50613W        W69360  15.737  21.241   6.873 -0.0537 -0.2989  0.2404
50614W        W69361   0.750  13.185  16.526 -0.2604  0.0253 -0.0889
50615W        W69362  27.680  19.342  16.805  0.2710  0.5778  0.1290
50616W        W69363   6.010  11.682   5.550 -0.1686 -0.3432  0.0422
50617W        W69364  26.850  16.952  19.047  0.1605 -0.2056 -0.0362
50618W        W69365  15.468  18.748   1.188  0.1042  0.1194  0.1299
50619W        W69366   9.454   2.838  12.861  0.1447 -0.1953  0.3247
50620W        W69367  12.592   9.546  22.372  0.4084  0.1106 -0.1701
50621W        W69368  30.565  18.177  14.259  0.0002  0.0726 -0.3540
50622W        W69369  12.546  21.656  22.940  0.0005 -0.3091 -0.0198
50623W        W69370  20.136   7.370  22.647 -0.2436  0.2324  0.1230
50624W        W69371  14.273  31.584   7.582 -0.0871 -0.2890  0.0024
50625W        W69372   2.369  10.335   0.998 -0.1837  0.0338  0.0054
50626W        W69373   7.668   8.611  10.698 -0.0982  0.0813 -0.0964
50627W        W69374   6.837   8.885  21.766  0.0561  0.1822  0.1245
50628W        W69375   2.812  24.800  25.796  0.1342 -0.1449  0.0532
50629W        W69376  18.375  19.472   9.865 -0.4223  0.0179 -0.1098
50630W        W69377  26.314  14.642  19.891  0.0963  0.2700 -0.1337
50631W        W69378   7.193   0.674   0.063 -0.0405 -0.0874  0.0555
50632W        W69379   0.722   2.303   8.273 -0.0020 -0.1071  0.0512
50633W        W69380  18.258  29.986  24.361 -0.0248 -0.1312 -0.0625
50634W        W69381  30.364  34.108   3.617 -0.1579 -0.0060 -0.0681
50635W        W69382  25.844   2.153  22.579 -0.0330  0.1583  0.0899
50636W        W69383  32.711   5.702  12.592 -0.0775  0.0213 -0.0908
50637W        W69384   5.547  26.974  10.747  0.1076 -0.1229  0.0969
50638W        W69385  13.149   7.986  10.173 -0.0993 -0.0712 -0.2956
50639W        W69386   1.284  27.068  19.191  0.1661  0.0061 -0.2772
50640W        W69387  16.641  19.947  22.339  0.0957  0.1648 -0.0800
50641W        W69388   3.733  11.348  15.755  0.1943 -0.0114  0.0288
50642W        W69389  22.183  13.579  18.922 -0.2667  0.2105 -0.0300
50643W        W69390  14.286  31.197  23.715 -0.1730 -0.0051  0.1723
50644W        W69391  24.038  20.347  13.692  0.0628 -0.0902  0.0928
50645W        W69392  22.971  13.811  15.045 -0.1924 -0.3873 -0.0117
50646W        W69393  32.561   0.280  17.703 -0.2101 -0.1394 -0.2416
50647W        W69394  26.708  19.398   7.099  0.0145 -0.2876  0.1365
50648W        W69395  14.198  34.331  19.507  0.1556  0.1798  0.1473
50649W        W69396  18.673   6.279  19.537  0.0091 -0.0347 -0.2598
50650W        W69397  31.396  34.528  19.328  0.1361  0.1801 -0.0463
50651W        W69398   1.922  31.286  23.719  0.0553  0.3018  0.0128
50652W        W69399  14.857   1.210   4.740  0.1375  0.0739 -0.1394
50653W        W69400  11.246  30.348   2.435 -0.0082  0.0317  0.3013
50654W        W69401  22.833  30.294  24.497  0.0501  0.1550 -0.1788
50655W        W69402  14.819  26.300  11.741 -0.1161 -0.1456  0.2871
50656W        W69403  22.800   8.477   1.796 -0.0121  0.1442  0.2917
50657W        W69404  33.386  26.916  18.262 -0.1041 -0.0891 -0.1846
50658W        W69405  14.429  27.463  22.918  0.0732 -0.3078 -0.3809
50659W        W69406  27.239   9.412  17.806 -0.0648  0.2615 -0.3220
50660W        W69407   8.102   3.975   8.380 -0.0554  0.0360  0.1473
50661W        W69408  17.475  17.379  23.834  0.0951 -0.0436 -0.0813
50662W        W69409  24.202  10.628  25.989  0.1129  0.1112  0.0152
50663W        W69410  16.964  27.043  24.938  0.1768  0.1864  0.2120
50664W        W69411  16.699   0.525   5.057  0.2540 -0.0218  0.0098
50665W        W69412  18.548   4.427  22.509  0.0005  0.0313  0.0267
50666W        W69413  30.479  17.504   8.741 -0.2844 -0.0104  0.0986
50667W        W69414  12.007   4.936  13.127 -0.1075 -0.0234 -0.0255
50668W        W69415  20.944  34.445  14.853  0.0739  0.2728 -0.1126
50669W        W69416  34.511   3.721  23.335  0.2655 -0.1121 -0.2248
50670W        W69417  21.741   7.596  20.894  0.0179  0.0236 -0.3790
50671W        W69418  12.056   0.900  23.258  0.3370  0.1441 -0.0411
50672W        W69419  22.561  30.207  23.448 -0.1075  0.1506  0.0974
50673W        W69420   3.204  12.278   1.546 -0.2682 -0.2466  0.2104
50674W        W69421   8.409  25.682  10.736 -0.2383  0.1987 -0.1892
50675W        W69422  28.642   3.829  14.760  0.0238  0.0549 -0.1485
50676W        W69423  24.841  21.568  10.608  0.1532 -0.1111 -0.0730
50677W        W69424  34.942   2.556  13.469  0.2448 -0.2959  0.2029
50678W        W69425  31.989  17.483  15.673 -0.0275 -0.1672 -0.0092
50679W        W69426  15.283   1.723   5.529 -0.0670 -0.1622  0.0709
50680W        W69427  32.593  18.153   7.596  0.0376  0.4645 -0.0225
50681W        W69428   9.383   1.443   8.838 -0.0506 -0.0343 -0.0004
50682W        W69429  31.069   5.907  23.953  0.0787  0.0920 -0.2837
50683W        W69430  14.891  35.156   6.027  0.0969 -0.0753  0.1297
50684W        W69431  34.416  27.117  25.484  0.0020  0.1377  0.1045
50685W        W69432  16.715  23.397   8.423  0.1728 -0.0523  0.1719
50686W        W69433   9.231  24.036  22.776  0.0497 -0.0492 -0.0188
50687W        W69434  28.945  29.849  12.636  0.0783 -0.1612  0.2494
50688W        W69435  12.165  26.870  23.071  0.2185  0.1560  0.0266
50689W        W69436   2.588  17.336   0.963 -0.3031  0.1357  0.3331
50690W        W69437  18.862   8.602   4.427 -0.2941  0.0184 -0.3039
50691W        W69438  15.555  17.290   4.676  0.1946  0.0788 -0.1159
50692W        W69439  21.475  27.243   3.706 -0.2042  0.1604 -0.1431
50693W        W69440  23.462  28.381  11.885 -0.1368 -0.1705  0.1302
50694W        W69441  22.811  28.854  19.866  0.0678  0.0854  0.1550
50695W        W69442  15.306  11.594  20.588 -0.2667  0.1388  0.2103
50696W        W69443  27.142  21.951  21.260 -0.0462  0.1944 -0.0954
50697W        W69444  33.530   5.481  12.603  0.0916 -0.1727  0.2570
50698W        W69445  16.510  23.618   7.936  0.0767 -0.4269 -0.1275
50699W        W69446   8.409  23.832  12.797 -0.0279 -0.1279 -0.3801
50700W        W69447  18.168  11.486   8.764  0.0328  0.0349 -0.0591
50701W        W69448  19.195  22.604   8.582 -0.0910  0.2876  0.0821
50702W        W69449  31.619  17.025   9.752 -0.1429  0.3893 -0.0287
50703W        W69450  10.100  11.686   0.226  0.0513 -0.0766  0.1111
50704W        W69451  27.027  15.957   8.612 -0.1805 -0.0498  0.0487
50705W        W69452  26.341   0.081  13.107 -0.0037 -0.1019 -0.0528
50706W        W69453  31.573  26.159  20.771  0.1846 -0.3663 -0.0363
50707W        W69454  11.523  22.579   6.703  0.2757  0.0284  0.1447
50708W        W69455  12.678  21.629  22.051 -0.0831  0.0206  0.0656
50709W        W69456  24.987  31.606   3.023  0.0091  0.1318  0.0503
50710W        W69457  33.590  25.231  24.301  0.0139 -0.2356 -0.0130
50711W        W69458  26.220   6.496  24.370  0.1388  0.1338  0.1416
50712W        W69459  33.848  34.061  21.250 -0.0253  0.0415  0.1839
50713W        W69460   4.630  27.855   9.402  0.1568  0.0730 -0.0222
50714W        W69461  14.129  30.786  23.483 -0.1296  0.1609 -0.0318
50715W        W69462  12.594  24.838  14.431 -0.3296  0.0368 -0.0598
50716W        W69463  28.533  12.089  21.420  0.1509 -0.3044 -0.0934
50717W        W69464   6.495  10.046  21.007  0.2393 -0.0089  0.1061
50718W        W69465   1.879   0.701  25.427  0.0554  0.1443  0.1433
50719W        W69466   9.016  19.178   0.308 -0.2032 -0.1117 -0.1039
50720W        W69467  28.194  16.231  10.170 -0.1259 -0.0989 -0.1094
50721W        W69468  30.223  16.973  23.212 -0.2505  0.4638  0.1120
50722W        W69469  24.638  27.529  23.760  0.0024  0.0905  0.2003
50723W        W69470  21.944  20.465  21.261 -0.0348  0.0859 -0.1658
50724W        W69471  33.432  30.632   2.856  0.1166 -0.0362 -0.1010
50725W        W69472  18.183   9.372   1.161 -0.1116 -0.0944  0.0286
50726W        W69473   4.492  12.353   6.580 -0.2138  0.0085  0.0661
50727W        W69474  23.063  19.978  16.497 -0.1086  0.0698 -0.1265
50728W        W69475  28.905  25.075  22.821 -0.2545 -0.0553 -0.0926
50729W        W69476  30.126  31.870  20.181  0.0271  0.0273  0.0520
50730W        W69477   7.199   9.871   7.330  0.2489  0.2011 -0.1361
50731W        W69478   6.392   6.973  19.330  0.1449 -0.0336 -0.0743
50732W        W69479   0.125  28.060  16.203 -0.0605 -0.2730  0.0138
50733W        W69480  30.635  13.559   0.415  0.1543  0.1032 -0.1650
50734W        W69481  33.414  31.228  26.188 -0.3070 -0.0596  0.1584
50735W        W69482   4.873  33.500   8.095 -0.1008 -0.0529  0.2103
50736W        W69483  29.324  18.394  24.890 -0.1030 -0.1087 -0.0944
50737W        W69484  32.379  33.454  16.882  0.0052  0.2155  0.0236
50738W        W69485   9.963  10.513   8.136  0.0681  0.0130 -0.0831
50739W        W69486  21.691  32.301  14.101  0.0680 -0.4808 -0.1432
50740W        W69487  20.308  16.735   5.359  0.2313 -0.2989  0.0231
50741W        W69488  13.953  15.099  23.580 -0.2074 -0.0174  0.0383
50742W        W69489   1.661   7.371  18.329 -0.0943  0.0859 -0.0080
50743W        W69490  29.528  21.872  11.250  0.1301  0.0298 -0.0115
50744W        W69491  16.820  15.530   2.576  0.1375  0.1512 -0.1471
50745W        W69492  22.079   4.877   5.164  0.0244 -0.2955  0.0781
50746W        W69493   9.955  28.637  16.433  0.2196 -0.0172  0.0295
50747W        W69494   3.878  30.008  11.590  0.1242 -0.1086 -0.2411
50748W        W69495  10.239  32.890   8.469  0.1163 -0.0662  0.1063
50749W        W69496  31.347   1.928   6.396  0.4089  0.0946  0.0795
50750W        W69497  28.611  25.403   8.033 -0.0574  0.0065  0.0768
50751W        W69498  34.778  13.761   8.959  0.0052 -0.2044  0.0022
50752W        W69499  12.183  19.805   0.908 -0.1622  0.1954 -0.2603
50753W        W69500   9.845   5.181  25.010  0.2780 -0.1218  0.1077
50754W        W69501  28.462  30.231  22.406 -0.0311 -0.1899  0.0765
50755W        W69502  28.488  24.573  11.822 -0.3787  0.1178  0.0797
50756W        W69503  33.465  30.615  16.505  0.0431  0.1006  0.0505
50757W        W69504  20.524   5.953   0.642  0.1190  0.0044 -0.0299
50758W        W69505  32.864   7.092  15.764  0.0874  0.0969  0.2538
50759W        W69506  24.312   2.431  19.416  0.0071  0.2198 -0.5267
50760W        W69507  27.406   5.600  15.929 -0.2301 -0.1790 -0.1129
50761W        W69508  15.770   9.412  24.884  0.1231 -0.1698 -0.3247
50762W        W69509  19.722   0.257  21.468  0.1366  0.1498  0.2385
50763W        W69510  20.703  34.173   1.012 -0.0674  0.1146  0.1110
50764W        W69511  34.530   5.409  23.728 -0.2597  0.1428  0.0561
50765W        W69512  19.449  24.409   6.909  0.3771  0.1292  0.3420
50766W        W69513  34.725  15.816  25.050 -0.0613  0.3183  0.3857
50767W        W69514   8.216  15.424   3.072  0.1596 -0.1290 -0.1121
50768W        W69515   1.090   5.616   6.447 -0.0594 -0.1049 -0.0839
50769W        W69516  32.658  30.150   0.007  0.0153 -0.0718 -0.0365
50770W        W69517  24.759  34.838   1.301  0.0079 -0.0940  0.0752
50771W        W69518  13.805  30.641  25.662 -0.1800 -0.0370 -0.2859
50772W        W69519   1.274   4.812  15.275  0.0142 -0.0945 -0.0093
50773W        W69520   2.293  15.288  17.352  0.3094 -0.0813 -0.0932
50774W        W69521  31.750  13.051  26.042 -0.0097  0.1787 -0.0232
50775W        W69522  34.029  31.585  14.403  0.1818  0.1835  0.0493
50776W        W69523  33.067   7.288  11.413 -0.2132  0.0297  0.3187
50777W        W69524  35.163  31.475  17.005  0.1673  0.2336 -0.0463
50778W        W69525   3.943  18.991   3.274 -0.1507 -0.1047 -0.1647
50779W        W69526   0.196  25.550   3.638 -0.4532  0.1023 -0.1310
50780W        W69527  11.269  20.747   8.978 -0.0183  0.0910 -0.2187
50781W        W69528  18.405   1.657  18.766  0.0547  0.0930  0.0806
50782W        W69529  12.639  34.888   4.741  0.0549 -0.2817 -0.1693
50783W        W69530  13.142  21.685  22.661 -0.1952 -0.0647  0.1206
50784W        W69531   2.782  19.064  26.101 -0.1054 -0.1060 -0.1434
50785W        W69532   7.447  29.631  23.507  0.0029 -0.0646 -0.0678
50786W        W69533  22.449  14.930  25.081 -0.1592 -0.4760  0.1260
50787W        W69534   0.260   0.179  19.373 -0.1740  0.0627 -0.0099
50788W        W69535  27.090  27.102  10.145  0.0941 -0.1892  0.0482
50789W        W69536   9.625  23.452   0.912  0.0595 -0.0812 -0.1259
50790W        W69537  30.326   3.091  16.975 -0.1158  0.0245  0.0817
50791W        W69538  12.985  22.145   8.565 -0.3405  0.2338  0.0903
50792W        W69539  30.773  31.664  16.324 -0.0597  0.0334 -0.2613
50793W        W69540  21.981  26.212  20.229 -0.4788  0.0214  0.0996
50794W        W69541  25.304  16.026  14.470  0.0163 -0.0162  0.1359
50795W        W69542  32.189  26.527  19.599 -0.0110  0.0082  0.3177
50796W        W69543  21.587   2.248   1.337 -0.2227  0.1953 -0.0995
50797W        W69544  28.059  33.142   5.238 -0.1034  0.1023  0.0665
50798W        W69545  23.475  21.473  17.778  0.0930  0.3465 -0.0667
50799W        W69546  34.897  12.713  21.125 -0.1119 -0.2841  0.1188
50800W        W69547  24.932   6.963  14.026 -0.2925  0.1911 -0.1832
50801W        W69548  34.675  35.116  24.311  0.0953  0.1669  0.0113
50802W        W69549  10.590   1.364  10.699  0.2288 -0.0095 -0.1082
50803W        W69550  29.291   4.031  24.969  0.0145  0.2289  0.0835
50804W        W69551  10.271  19.085   4.060 -0.2736  0.0436 -0.1241
50805W        W69552  19.471   5.516   5.425 -0.2774  0.0115  0.1604
50806W        W69553  31.610   1.772   0.195  0.0522 -0.0179  0.0577
50807W        W69554   9.604  29.404  22.018 -0.1678  0.2503 -0.0442
50808W        W69555  34.127   7.765  12.196 -0.5005  0.0292 -0.1904
50809W        W69556  14.755   4.419   1.808 -0.2279 -0.2003 -0.0721
50810W        W69557   8.326  18.337  21.689  0.0066 -0.1471 -0.2435
50811W        W69558  19.769  17.895   3.524 -0.1026  0.1338  0.2167
50812W        W69559   2.303  24.779  22.326  0.0400 -0.0559 -0.1094
50813W        W69560   1.887   5.582  22.826 -0.0657 -0.1211  0.2037
50814W        W69561  19.859   7.694   4.760 -0.1388 -0.2338  0.1778
50815W        W69562   8.575  16.074  26.190 -0.0771 -0.3948 -0.3022
50816W        W69563  30.165  30.947  18.223  0.0680  0.0541 -0.0502
50817W        W69564  28.817  17.239   3.983  0.0799 -0.0935 -0.0525
50818W        W69565  29.318   6.583   1.261 -0.1785 -0.1927  0.0746
50819W        W69566   8.120  12.196  26.031  0.0384 -0.2734 -0.3399
50820W        W69567   6.902  32.372   9.247 -0.0710 -0.0390 -0.1058
50821W        W69568  28.239  21.045  12.384  0.0692  0.3160  0.0039
50822W        W69569   3.488  32.144   0.431  0.0029 -0.1634 -0.3374
50823W        W69570  15.087   4.262   6.141 -0.2504 -0.1047 -0.1602
50824W        W69571  24.228  24.906  25.881  0.0719  0.0496  0.0459
50825W        W69572  32.838  22.695  23.974  0.5810  0.0080  0.0024
50826W        W69573  13.268  22.076  25.154 -0.4568 -0.1812  0.2397
50827W        W69574   6.007   7.447  19.457  0.0773 -0.3857  0.0307
50828W        W69575   7.268  27.540   0.604  0.3530 -0.2457 -0.1497
50829W        W69576  35.171   2.150  15.924  0.1220 -0.3048 -0.0073
50830W        W69577  11.444  34.596  14.387  0.0998  0.2519 -0.3244
50831W        W69578  10.318  23.324  24.458 -0.1984  0.2081  0.2635
50832W        W69579  32.510   6.704  20.022 -0.1885  0.0040  0.0903
50833W        W69580  34.730  14.675  24.634 -0.1945 -0.4035 -0.2626
50834W        W69581  19.349  30.085  25.040  0.2115  0.2554 -0.0824
50835W        W69582  19.210   8.422  24.550  0.1619 -0.1801  0.0202
50836W        W69583   1.117   9.038  13.456  0.1442  0.0906  0.0920
50837W        W69584  20.019  12.164  21.466  0.0145 -0.0952 -0.0363
50838W        W69585  28.268   0.094  17.745 -0.1442 -0.0442  0.1381
50839W        W69586  29.194   4.849  16.587  0.1403 -0.1634 -0.1313
50840W        W69587  18.018  21.894  21.254  0.0836 -0.0527 -0.0995
50841W        W69588  18.831   8.433  11.347  0.0894  0.0674  0.0825
50842W        W69589  25.831  23.731  25.056 -0.0578 -0.0939  0.1380
50843W        W69590  11.797  33.270  13.856  0.0093 -0.2039 -0.0639
50844W        W69591  23.024   2.778   4.968  0.1283  0.1148 -0.3307
50845W        W69592  18.310   7.465   7.589 -0.2374  0.0398 -0.0443
50846W        W69593   3.502  12.380   6.364 -0.0172 -0.0316  0.1470
50847W        W69594  15.661  34.572  18.115  0.1939 -0.1131 -0.1664
50848W        W69595  25.718  26.515  10.837  0.0713  0.0443 -0.2553
50849W        W69596  28.550   4.445  19.496  0.1247 -0.0493 -0.0308
50850W        W69597  15.139  21.048  21.515  0.1294 -0.0083 -0.2354
50851W        W69598  11.801  30.125   0.372  0.2704  0.1167 -0.1284
50852W        W69599  16.619  26.181  12.201 -0.0314 -0.1261  0.4346
50853W        W69600  11.666   0.866   9.967 -0.0471  0.2148 -0.0847
50854W        W69601  16.656  18.356   4.491  0.2316  0.0592 -0.2894
50855W        W69602  22.820  33.795  21.959  0.1939 -0.0002  0.1029
50856W        W69603  12.334  19.119  23.533 -0.0293 -0.0939 -0.1801
50857W        W69604  19.399   2.337   8.300  0.2223 -0.0328 -0.0961
50858W        W69605  24.320   1.211  14.258  0.0245 -0.0269 -0.1269
50859W        W69606  14.638  24.987  22.384  0.0594 -0.3513  0.2590
50860W        W69607   3.662   1.412  10.338 -0.2218  0.0439 -0.3414
50861W        W69608   6.521  26.005  23.707 -0.3929 -0.1648  0.3726
50862W        W69609  20.563   5.755   4.679  0.0688 -0.1710  0.1202
50863W        W69610  22.900  29.657   5.489  0.1387 -0.0894  0.0245
50864W        W69611  32.432  13.991  24.171 -0.1235 -0.2546 -0.4258
50865W        W69612   1.516  11.303  19.626 -0.2668 -0.0026 -0.0560
50866W        W69613  25.637  10.591  25.196 -0.2564  0.1659  0.0013
50867W        W69614   0.867   5.623  15.503  0.2363  0.0760  0.0311
50868W        W69615   9.210   4.231  22.082  0.2245 -0.1178  0.0827
50869W        W69616  13.880  24.229  15.026 -0.0238  0.1548 -0.1802
50870W        W69617  20.144   6.087  25.539 -0.0244 -0.1981 -0.2262
50871W        W69618  16.212   4.359   9.810  0.0876 -0.0650  0.2206
50872W        W69619   2.154   7.671   5.801 -0.0870  0.3434 -0.3648
50873W        W69620  16.564   9.146   6.521  0.1082 -0.0428 -0.0493
50874W        W69621  13.091   3.678  11.948 -0.4043 -0.1599 -0.1775
50875W        W69622   6.643   0.375  25.072  0.0028  0.1163 -0.1569
50876W        W69623  14.976  28.760   0.498 -0.2203 -0.2737 -0.2474
50877W        W69624  22.212   2.383  18.730  0.0750 -0.2340 -0.2262
50878W        W69625  15.387  28.265  12.415  0.3972 -0.0763 -0.1689
50879W        W69626  32.696   4.468  20.505  0.3569  0.1155  0.2592
50880W        W69627  16.197   8.619   7.773  0.0003 -0.1063  0.0121
50881W        W69628  28.019   1.844  17.910 -0.1892  0.3501 -0.0452
50882W        W69629  22.825  32.701  25.555 -0.1356 -0.0645 -0.3948
50883W        W69630  16.580   2.361  16.881  0.1705  0.1233  0.2169
50884W        W69631  14.384  23.350   6.960  0.1330  0.2474  0.0163
50885W        W69632  19.275   0.206  16.373 -0.2996  0.3992 -0.0447
50886W        W69633  17.008  24.709  13.393  0.4043 -0.2662  0.1960
50887W        W69634  32.811  20.698  23.294 -0.1411 -0.2907  0.4543
50888W        W69635  15.770  13.976   3.096  0.1321 -0.1176  0.1733
50889W        W69636  13.196  35.222  13.318  0.0436 -0.1997 -0.0177
50890W        W69637  14.207  19.738  24.138  0.3926 -0.4644 -0.3384
50891W        W69638  18.906  17.347  21.700  0.1123 -0.1147  0.0362
50892W        W69639  27.352  20.879  25.079 -0.0559 -0.1762 -0.1505
50893W        W69640  10.671   9.077  23.108 -0.2250  0.0907  0.1063
50894W        W69641  33.792  21.734  10.180 -0.5089  0.2077  0.1590
50895W        W69642   5.680  10.549   1.445 -0.0540  0.0518  0.0394
50896W        W69643  24.708   3.856  14.422 -0.0267 -0.1544  0.2002
50897W        W69644  25.177  29.986  19.174  0.1539  0.0149 -0.0979
50898W        W69645   1.180   6.489   5.448 -0.0218 -0.1832 -0.2278
50899W        W69646   5.573  31.212   6.898 -0.2101 -0.0898 -0.0576
50900W        W69647   5.078  21.918  21.975  0.0763 -0.1819  0.0576
50901W        W69648   9.356  19.332   1.620 -0.1538 -0.2941  0.0526
50902W        W69649  31.172   3.501  20.634  0.3079  0.3227  0.1281
50903W        W69650   7.372   2.681   1.390  0.3304  0.1601  0.2483
50904W        W69651  21.850  24.049   0.226  0.0293  0.0554 -0.0458
50905W        W69652   0.659  18.322  19.393 -0.4445  0.0751 -0.0107
50906W        W69653  34.595  27.793  20.570 -0.0424 -0.1309  0.1294
50907W        W69654  18.276  11.252  12.925 -0.0128  0.2957  0.0651
50908W        W69655  23.730  10.547  16.574  0.1160  0.0294  0.3190
50909W        W69656  25.288  24.985  12.931 -0.0517  0.2317 -0.0424
50910W        W69657  32.169  15.091  12.440 -0.0565  0.1649 -0.2166
50911W        W69658  15.792   6.992   0.349 -0.1172  0.0324  0.0100
50912W        W69659  32.884  33.486  24.433  0.0813 -0.1243 -0.1372
50913W        W69660   3.845  11.282  18.030  0.4487 -0.0826 -0.2162
50914W        W69661   4.439   8.630  22.771 -0.1384 -0.1600  0.2953
50915W        W69662   4.777   0.956   6.215  0.3865  0.3186 -0.1908
50916W        W69663  23.812  29.852   2.000 -0.0796  0.2158 -0.1597
50917W        W69664   4.052  20.418  18.089 -0.1563 -0.0975  0.0896
50918W        W69665  29.163   7.743   9.463 -0.3144  0.0585 -0.2239
50919W        W69666  16.646  13.287   5.465 -0.2864  0.0745 -0.2755
50920W        W69667   9.515  30.886  13.252 -0.1042  0.1908 -0.1376
50921W        W69668  29.500  27.630  22.345 -0.0051  0.1090  0.2421
50922W        W69669  20.780   7.246   0.196 -0.0065 -0.0907 -0.2398
50923W        W69670   1.014  31.678  19.005 -0.2635  0.0326 -0.1580
50924W        W69671  29.562  14.414   7.632 -0.1306 -0.0727  0.0103
50925W        W69672  15.618  30.843  10.781 -0.0302 -0.1096 -0.3119
50926W        W69673  33.385  20.299  11.405  0.0834  0.1849 -0.1990
50927W        W69674   8.732  20.407  21.401 -0.3018 -0.0264 -0.1926
50928W        W69675  25.359   2.203   6.291  0.0340 -0.1141 -0.3073
50929W        W69676  30.877  21.620  10.708 -0.0630 -0.0509  0.1129
50930W        W69677  20.518  23.999   4.412 -0.0906  0.1177  0.1664
50931W        W69678  31.845  14.884  22.416  0.1766  0.3420 -0.0566
50932W        W69679   6.008  34.780  23.911  0.2530 -0.0537 -0.1301
50933W        W69680  21.283  29.754  18.008  0.1239 -0.0640  0.3882
50934W        W69681  15.649  33.361   3.246 -0.0556  0.4212 -0.0951
50935W        W69682  21.959  15.456   0.687 -0.4842 -0.0612  0.1534
50936W        W69683  35.251  21.706  23.272 -0.3575 -0.2099 -0.2923
50937W        W69684  21.636  13.503  23.962  0.2203 -0.0714  0.3430
50938W        W69685  27.493   9.001   1.081 -0.0313  0.0663  0.4203
50939W        W69686   7.137  11.331  25.986 -0.0531 -0.1211 -0.2714
50940W        W69687  28.156  32.392  16.453  0.1865 -0.0355 -0.2915
50941W        W69688  21.424  29.626   1.568 -0.2271 -0.1664  0.0162
50942W        W69689  20.509  30.727  15.080  0.2524  0.1961 -0.0604
50943W        W69690   6.149   4.690  22.772  0.0691 -0.1502  0.1336
50944W        W69691  19.457  11.125  19.101 -0.0137 -0.0016 -0.3084
50945W        W69692  23.250   7.898  15.955  0.0507 -0.1155 -0.0602
50946W        W69693  28.659  29.845   9.628  0.1218  0.2218 -0.1491
50947W        W69694   8.859  14.806  11.882 -0.2793 -0.3636  0.3757
50948W        W69695  21.076  13.438   3.979  0.3724  0.0988 -0.1203
50949W        W69696  23.055  25.479  22.023  0.0743  0.2918  0.1131
50950W        W69697  10.605  22.521   4.621 -0.0431 -0.2676  0.1529
50951W        W69698  29.940   1.601  23.675  0.0735  0.1856 -0.0640
50952W        W69699  29.114   6.359  24.464  0.0629  0.0513  0.2087
50953W        W69700   3.699  17.002  14.277  0.0859 -0.6107  0.1565
50954W        W69701   7.003   7.306  12.103  0.1265  0.0450  0.0770
50955W        W69702  18.097  22.151  23.179  0.0471 -0.0357 -0.0477
50956W        W69703   3.377  33.609  22.348  0.1424  0.0013 -0.3084
50957W        W69704  24.176  27.293  17.639 -0.1024  0.2327  0.3859
50958W        W69705  26.638  11.278  23.480 -0.0831  0.3701 -0.0620
50959W        W69706   9.236   6.419  21.599  0.3589  0.2358 -0.3896
50960W        W69707  28.638   5.823  10.220 -0.0977 -0.1953 -0.2390
50961W        W69708   9.394  27.105   4.966 -0.3645 -0.0331  0.0750
50962W        W69709  13.424  30.089  25.021 -0.1085 -0.0308 -0.2065
50963W        W69710   8.766  27.630   3.204 -0.2421  0.1371  0.2858
50964W        W69711  30.750   1.164  20.035  0.0087  0.1663  0.1103
50965W        W69712   2.027   9.584  20.619  0.0846 -0.0606  0.0050
50966W        W69713  13.079  19.338   0.260 -0.0282 -0.0600 -0.0092
50967W        W69714   6.998  15.118   4.959  0.2204  0.0840 -0.0165
50968W        W69715  22.809  26.973  22.109  0.3050  0.0034  0.0466
50969W        W69716   8.185  35.224  23.007 -0.3061  0.1236 -0.1732
50970W        W69717  30.359  16.503  20.552  0.1887 -0.1012 -0.0877
50971W        W69718  27.062  12.919  10.504 -0.3929 -0.0635  0.1967
50972W        W69719  10.623   1.052   4.033 -0.0855 -0.2898  0.1608
50973W        W69720  31.079   3.444   4.152  0.3266 -0.0745  0.1879
50974W        W69721  28.040   7.618  21.317  0.2142  0.0077  0.0583
50975W        W69722  30.260  17.434  17.814 -0.2599  0.0576  0.0182
50976W        W69723  12.791  18.098  20.960 -0.0259 -0.1055 -0.0838
50977W        W69724   0.412  30.346   5.368 -0.1465 -0.0485  0.4192
50978W        W69725  12.580  28.274  16.209  0.0255  0.2509 -0.0517
50979W        W69726  17.358   7.911   4.689  0.3585  0.0139  0.1231
50980W        W69727  25.018  29.093  11.115  0.1472  0.0068 -0.1714
50981W        W69728  13.071   0.496   3.882 -0.0616 -0.0067 -0.1235
50982W        W69729  25.983  19.789  24.577 -0.2599 -0.1192 -0.2386
50983W        W69730  22.099   0.174  21.898  0.1286  0.2446  0.4005
50984W        W69731  20.654   0.108  26.096 -0.0014  0.1214 -0.3991
50985W        W69732  14.433  15.255  11.682 -0.0399 -0.2982  0.0853
50986W        W69733   0.852  13.019  20.746  0.0749  0.1561  0.0862
50987W        W69734   8.245  26.362   4.587  0.0975 -0.2395  0.0504
50988W        W69735   9.150  15.539  24.937  0.2247  0.0068  0.2277
50989W        W69736  27.923   3.994  25.619 -0.0575 -0.4771 -0.0568
50990W        W69737  23.217  33.207  15.676 -0.0084 -0.1069 -0.0200
50991W        W69738  30.328   6.518  17.254  0.0913  0.1613  0.2695
50992W        W69739  11.234  20.447   7.192  0.1488 -0.0339 -0.0295
50993W        W69740  21.083   5.288   2.609  0.1930 -0.5174  0.2555
50994W        W69741  32.997  19.648  11.638 -0.1744  0.1618  0.0832
50995W        W69742  31.411  30.756  12.293  0.0815 -0.1313 -0.1217
50996W        W69743  23.037  21.505  21.824  0.0422 -0.5583 -0.0425
50997W        W69744  32.389  10.809  25.634  0.2183 -0.2468 -0.2990
50998W        W69745  31.772  22.379  19.477  0.0666 -0.0942 -0.1570
50999W        W69746  20.274  21.370   5.181 -0.1795  0.1264 -0.0119
51000W        W69747   4.291   9.172  18.320 -0.3667 -0.1666 -0.0716
51001W        W69748  13.928  25.492  11.231  0.1214  0.0616 -0.2370
51002W        W69749  33.360  19.442  17.209  0.0007 -0.1565  0.1412
51003W        W69750  25.268  29.269  22.962 -0.1738 -0.1722  0.1125
51004W        W69751   0.191  28.565   3.026 -0.1379  0.2523  0.3075
51005W        W69752  19.801  17.083   8.113 -0.0337 -0.0570  0.1583
51006W        W69753  10.836  19.882   3.831  0.2298 -0.0450 -0.2749
51007W        W69754  11.250  22.605  13.640  0.0363  0.0371 -0.0679
51008W        W69755  21.252  34.610  23.662 -0.2784 -0.0027 -0.0452
51009W        W69756  25.065  27.008   1.324  0.0256 -0.0941 -0.0378
51010W        W69757  31.560   7.098  23.165  0.2084 -0.0386 -0.0834
51011W        W69758  26.702  34.864  17.901  0.1656  0.0902  0.2800
51012W        W69759  26.388  24.128  19.082  0.1523  0.2640 -0.2091
51013W        W69760  28.336  33.758  23.195  0.1031 -0.0541  0.1368
51014W        W69761   3.803  15.028  23.908 -0.1849  0.2262  0.3029
51015W        W69762  21.213  23.633  22.531 -0.0671  0.2070  0.0864
51016W        W69763  16.467  17.739   2.594 -0.1742 -0.0774  0.0863
51017W        W69764  21.296  28.416  17.903 -0.2106 -0.0248  0.1700
51018W        W69765  25.610  17.150  25.456  0.1441 -0.1860  0.1222
51019W        W69766  22.170   5.864  22.514 -0.1695 -0.0821 -0.0258
51020W        W69767  16.690   5.040  24.913  0.0921  0.1435 -0.2205
51021W        W69768  33.602   1.427   4.644 -0.0298  0.0767  0.1201
51022W        W69769   9.431  17.385  22.420  0.1296  0.3856  0.2073
51023W        W69770   9.678   8.742   8.948  0.1991 -0.1277 -0.2113
51024W        W69771   3.854  16.321  17.313 -0.1297 -0.3403  0.1069
51025W        W69772  30.194  16.841  21.781  0.1754 -0.1008  0.1987
51026W        W69773  15.208  24.919   7.402  0.3360  0.1360 -0.0875
51027W        W69774  12.724  34.887   0.038 -0.2628  0.2613  0.0861
51028W        W69775   8.535   3.248  21.360 -0.0514 -0.1773  0.0623
51029W        W69776  25.084  20.316  17.735  0.1145  0.2094 -0.1767
51030W        W69777  20.080   3.600  20.383 -0.0166  0.1690 -0.2420
51031W        W69778  12.350   7.641  19.267 -0.1394 -0.0488  0.0768
51032W        W69779   0.235  34.617  19.796  0.0152  0.1109  0.1727
51033W        W69780  31.064  11.154  10.251  0.2288 -0.0842 -0.0277
51034W        W69781  22.098  11.509  24.565  0.1629 -0.2828 -0.2818
51035W        W69782  24.162  30.147  25.443  0.1759 -0.1033 -0.1494
51036W        W69783  27.717  33.410  14.937  0.0638 -0.1424  0.1458
51037W        W69784   9.880   4.511  14.825  0.0211 -0.0040 -0.2257
51038W        W69785   7.664   7.940   0.440 -0.0999  0.0073 -0.0639
51039W        W69786   4.166  24.110   4.572  0.2765  0.2987  0.1334
51040W        W69787  29.105  20.570  22.358 -0.2053  0.0853 -0.1272
51041W        W69788  22.993   7.007  24.235 -0.1719 -0.0612  0.1220
51042W        W69789  23.614  33.841   3.957  0.1191  0.0683  0.2320
51043W        W69790   8.430   8.581  11.823  0.2624 -0.0820 -0.1283
51044W        W69791  34.943   5.913   3.223 -0.3382  0.3074  0.0840
51045W        W69792   0.681  27.111   0.070 -0.0690  0.0328 -0.0437
51046W        W69793  17.392   3.235  23.103  0.0651  0.1998 -0.1804
51047W        W69794  15.049  31.776  11.882  0.0087 -0.3335 -0.2112
51048W        W69795  29.667  13.783  24.627 -0.1182  0.4199 -0.0273
51049W        W69796  25.425  15.179   9.986 -0.3710  0.2374 -0.0775
51050W        W69797  18.491  12.822  24.936 -0.2532 -0.0835  0.3016
51051W        W69798   4.863   2.581  26.243 -0.1053  0.1372  0.3075
51052W        W69799   1.661  30.966  23.478  0.2605 -0.0673 -0.0387
51053W        W69800  29.176   8.509  12.713  0.0969 -0.3788 -0.0361
51054W        W69801  33.063   0.835  19.920 -0.2109  0.0014 -0.2100
51055W        W69802  10.680   8.616  11.231  0.2149 -0.2481  0.0657
51056W        W69803  16.310  28.214  12.146  0.1831  0.1679 -0.1415
51057W        W69804  30.586  26.450  23.997 -0.0519 -0.0270  0.2340
51058W        W69805  16.216   7.918   9.686  0.2017 -0.2094 -0.1443
51059W        W69806  33.227   5.779   1.517 -0.1259  0.2284 -0.0388
51060W        W69807  33.813  23.415  19.043  0.0777  0.2486  0.0725
51061W        W69808   9.991   9.086   6.601 -0.0686  0.2087 -0.0154
51062W        W69809  28.941  25.690  24.059  0.1914 -0.0049  0.0353
51063W        W69810  31.210   3.183  18.862  0.1415 -0.0244  0.2404
51064W        W69811   3.073  28.265  19.992 -0.0454  0.2612  0.0692
51065W        W69812  29.161  28.531  20.165  0.2066  0.1135 -0.0797
51066W        W69813  19.154   8.724  11.029  0.1454 -0.1846 -0.2429
51067W        W69814   8.667   0.121  12.834  0.1469  0.0054 -0.1021
51068W        W69815  24.977  33.114  12.326  0.0377 -0.0023 -0.3298
51069W        W69816  17.090  32.832  25.019 -0.0246 -0.2626  0.0971
51070W        W69817  16.099  23.235   9.724 -0.2115  0.0141  0.0594
51071W        W69818   8.072   5.658  25.363  0.4294 -0.1043 -0.1315
51072W        W69819  12.130  22.801  25.929 -0.2466 -0.1925  0.0786
51073W        W69820  19.983  35.275  24.077 -0.0021  0.0892  0.2820
51074W        W69821  17.593  22.849   5.910 -0.2101 -0.2249  0.2608
51075W        W69822  13.819  34.612  11.401  0.0898  0.2364  0.1582
51076W        W69823  20.218  31.946   2.361 -0.1493  0.1513  0.0934
51077W        W69824  18.595   3.766  21.381  0.0551  0.1465 -0.1030
51078W        W69825   2.358   3.569  21.762  0.0292 -0.0189  0.0102
51079W        W69826  31.335   7.736  23.036 -0.0638 -0.1615  0.3213
51080W        W69827  30.729  26.710  13.354  0.0014 -0.0173  0.2852
51081W        W69828  23.536  13.640  17.356 -0.0514 -0.0362  0.2988
51082W        W69829  23.146  31.277  15.822 -0.2011 -0.0896  0.0630
51083W        W69830  31.326  19.119  10.958  0.2844 -0.1301 -0.3735
51084W        W69831  30.339   0.107  18.133  0.1584 -0.2557  0.0243
51085W        W69832  33.968  28.111   6.037 -0.1171 -0.1044 -0.0503
51086W        W69833  31.259  27.128  13.901 -0.0820  0.0461  0.1828
51087W        W69834  27.716  19.743  18.154  0.2525 -0.0751 -0.1447
51088W        W69835  26.447  10.801  23.283  0.4153  0.0402 -0.3075
51089W        W69836   2.390  11.608  16.403  0.1022  0.0638 -0.1338
51090W        W69837  29.140   4.522  17.570  0.0904 -0.1421  0.1416
51091W        W69838  34.498  21.974  17.011  0.3241 -0.1144 -0.1512
51092W        W69839   8.110  12.118  20.775  0.0131  0.1965 -0.0364
51093W        W69840  19.177  32.827   7.007 -0.1027  0.0858  0.1155
51094W        W69841  29.993  15.081  22.735  0.0221 -0.1160  0.1345
51095W        W69842  30.804  34.693  25.738  0.0034  0.1995  0.0435
51096W        W69843  13.096   1.601   0.740  0.1456  0.0088 -0.0693
51097W        W69844   3.334  35.103   3.742  0.0946 -0.1483 -0.0417
51098W        W69845   0.276  33.439   2.752 -0.0967  0.0475  0.0041
51099W        W69846  30.293  29.842  23.199 -0.1109  0.1152 -0.1996
51100W        W69847   3.635  33.989   6.297  0.2088 -0.0445 -0.0883
51101W        W69848   7.159  17.825   2.459  0.0283 -0.1908 -0.0886
51102W        W69849  28.159  32.771  25.574  0.3128  0.1098  0.0293
51103W        W69850   1.283   9.049  12.991  0.0328 -0.1273 -0.0876
51104W        W69851   3.351   0.277  23.953  0.3874  0.0119 -0.0463
51105W        W69852  12.011  10.239  11.441  0.0020 -0.2116 -0.1518
51106W        W69853  17.612  24.811  12.796 -0.1599  0.1796 -0.2357
51107W        W69854   5.008   0.542   3.715  0.0946  0.2801  0.0005
51108W        W69855   1.448  10.990  24.539  0.1228  0.1731 -0.0423
51109W        W69856  18.638   1.095  17.729  0.5438 -0.1454 -0.1641
51110W        W69857   3.561   5.052  19.891  0.1441 -0.1094  0.1283
51111W        W69858   6.529  27.187   6.859  0.1484  0.0626 -0.1987
51112W        W69859  19.376  32.764   7.800  0.2707  0.3874  0.1001
51113W        W69860   8.287  34.731  13.570  0.1796  0.0645  0.1870
51114W        W69861  30.207  14.924  16.597  0.0898  0.1601 -0.1894
51115W        W69862  22.067   9.594  16.959 -0.0141  0.1618  0.1743
51116W        W69863   6.851  20.186   7.897  0.1517 -0.0955  0.2835
51117W        W69864  22.452   6.491  22.856  0.0823  0.1083  0.0972
51118W        W69865  15.898  17.505  13.195 -0.1554 -0.0230 -0.1220
51119W        W69866  33.777   7.068   1.725 -0.1818  0.0878 -0.1038
51120W        W69867   0.111  15.891  18.599  0.0779  0.0449  0.1390
51121W        W69868  27.357  30.029  13.755  0.0382  0.2605  0.1360
51122W        W69869   2.310  12.359  16.966 -0.0396  0.1705  0.0451
51123W        W69870   7.264   2.495   3.388  0.1122  0.0258 -0.0783
51124W        W69871  13.107  31.813  23.685 -0.2574  0.0570  0.0757
51125W        W69872   7.887  21.385   0.426  0.1769 -0.0527  0.0358
51126W        W69873  14.623  13.004   2.888  0.0669 -0.2603  0.0362
51127W        W69874   5.318  31.278  11.725 -0.0080 -0.2148  0.0998
51128W        W69875  30.604  31.890  21.786 -0.2374 -0.1153  0.2159
51129W        W69876   9.178  33.425   3.739 -0.1907 -0.0396 -0.3190
51130W        W69877  29.241  14.793   4.536  0.3127 -0.1630  0.3302
51131W        W69878  19.242  14.093   4.608 -0.1143  0.0777  0.0080
51132W        W69879  22.415   7.734   5.483 -0.0098  0.1030 -0.0508
51133W        W69880  33.242  20.498  10.253 -0.3044  0.1994 -0.2300
51134W        W69881  18.377  29.177   7.804  0.0014  0.0537  0.0078
51135W        W69882   6.256   6.759  18.125  0.1339  0.1970  0.1455
51136W        W69883   0.051   4.532  22.107 -0.0391  0.0532 -0.0280
51137W        W69884  11.874  30.838  12.562 -0.2033  0.0106  0.0126
51138W        W69885  15.664  32.589  25.733 -0.1563  0.1742 -0.1504
51139W        W69886  26.480   8.264  23.679  0.0634 -0.1465 -0.0826
51140W        W69887  13.982  17.855   6.392  0.0475  0.2753  0.0529
51141W        W69888   5.103  28.102  22.720 -0.2731  0.0731 -0.2375
51142W        W69889  15.184  21.226   7.001 -0.1113  0.1044  0.4528
51143W        W69890  19.262   3.081  20.505 -0.3282 -0.1786  0.0289
51144W        W69891   5.830   5.723  23.567  0.0431  0.0546  0.0395
51145W        W69892   1.427   0.846  22.767 -0.2554 -0.0115 -0.2257
51146W        W69893  25.098   4.050  15.868  0.4194  0.3014 -0.1203
51147W        W69894   9.732  23.998   1.035 -0.2111  0.4077 -0.0752
51148W        W69895  23.767  21.377  19.511  0.2258  0.0837  0.1876
51149W        W69896   0.636   1.859  18.588 -0.0322 -0.1602  0.1650
51150W        W69897  23.783  31.904   2.370  0.0935 -0.1496 -0.0351
51151W        W69898   1.811  15.635  10.127 -0.0668  0.1682 -0.0133
51152W        W69899  11.821  13.790   2.105  0.3070  0.3276 -0.0312
51153W        W69900   0.403   6.338   0.153  0.0883  0.0340 -0.2685
51154W        W69901  18.104  25.797   5.638  0.1759 -0.2713  0.2085
51155W        W69902   3.871  32.797  18.311 -0.1369 -0.4010  0.2306
51156W        W69903  27.537   2.726  15.342 -0.0811  0.0258 -0.1468
51157W        W69904  12.156  23.341   9.847 -0.0619 -0.1095  0.1980
51158W        W69905   4.091   9.490  18.857 -0.2943  0.0395 -0.5299
51159W        W69906  32.774  32.237  22.535 -0.2015 -0.2259  0.1582
51160W        W69907   2.313  33.867   9.781  0.2951 -0.0594  0.3370
51161W        W69908  12.476  27.095   3.245  0.1924  0.2880 -0.0911
51162W        W69909  30.788  15.254   6.896  0.0655 -0.1629 -0.3550
51163W        W69910   3.484  34.263   1.176 -0.2117  0.3031 -0.1771
51164W        W69911  23.509  18.601  12.362 -0.3402  0.2238 -0.0337
51165W        W69912  12.832   5.195   9.686 -0.1654  0.1319  0.2588
51166W        W69913  17.931  29.504   3.529 -0.0147  0.0272 -0.0879
51167W        W69914  24.838  33.518  20.943 -0.1968  0.1005 -0.0134
51168W        W69915  22.470  27.075  13.838  0.0135  0.1417 -0.0002
51169W        W69916  25.988   7.211  13.352 -0.0982 -0.0792  0.3393
51170W        W69917  11.234  35.280   4.160 -0.1999 -0.1062 -0.3175
51171W        W69918   5.239  30.732  23.445 -0.0178  0.2852  0.2481
51172W        W69919  14.017   4.219  22.623  0.0437 -0.0566  0.1484
51173W        W69920  18.664   3.771  20.906 -0.1495  0.2490 -0.1191
51174W        W69921   7.841   2.901  21.270 -0.0242  0.0577  0.4692
51175W        W69922  11.464   5.495  21.300  0.0246 -0.0682 -0.1112
51176W        W69923  26.041  15.497  25.934 -0.0471 -0.1537 -0.4078
51177W        W69924  28.344   3.925  15.237 -0.1642  0.0681  0.2071
51178W        W69925  15.144   7.842   5.798  0.0370  0.0336  0.1822
51179W        W69926  28.876  22.775   6.507  0.3276  0.1365 -0.0002
51180W        W69927  33.386  11.813  23.211  0.1161 -0.1425  0.1299
51181W        W69928  13.650   9.325   2.891 -0.1283  0.0088  0.2415
51182W        W69929   9.383   6.725  24.826 -0.0566  0.0741  0.3996
51183W        W69930   4.312  13.946  18.235 -0.1254  0.4256  0.2688
51184W        W69931   2.502   4.179   4.321 -0.3028 -0.0621  0.1813
51185W        W69932  27.447  11.115   0.230 -0.0544 -0.0988 -0.1406
51186W        W69933  22.817   1.873   0.657 -0.0923 -0.1620 -0.0708
51187W        W69934  29.686  20.863   7.553 -0.1606  0.2693  0.0328
51188W        W69935  14.714   9.536   8.097 -0.1233  0.0683  0.0900
51189W        W69936   2.627  14.197  18.967 -0.1420  0.2179 -0.1033
51190W        W69937  24.130  28.378  25.320 -0.1177 -0.0246 -0.0578
51191W        W69938  23.648  23.031   0.812  0.2703  0.2249  0.0665
51192W        W69939   8.307  14.361   9.041 -0.1061  0.0227 -0.1671
51193W        W69940   3.348  34.653   9.775 -0.4126 -0.3368 -0.1114
51194W        W69941   9.454   9.903   9.484  0.2846 -0.0551 -0.1043
51195W        W69942  23.978  27.564  18.989  0.1304  0.5081 -0.2804
51196W        W69943  19.315  24.778   9.831 -0.2128  0.1828  0.1020
51197W        W69944   8.689   9.225  20.911 -0.1121  0.1040  0.1360
51198W        W69945  24.963  24.789   2.499  0.5347 -0.0225  0.2650
51199W        W69946   4.275  34.355  25.360  0.1749  0.1148  0.0719
51200W        W69947  15.910  31.836  24.989  0.1455 -0.0829 -0.0430
51201W        W69948  20.461   1.612  16.790  0.0962 -0.0829  0.1954
51202W        W69949   5.328   3.840   6.948  0.1406  0.0068  0.0398
51203W        W69950  27.237  13.045  14.158  0.0760  0.1669  0.1223
51204W        W69951  29.215  35.282   3.444  0.0044  0.0129  0.0582
51205W        W69952  16.391  21.672   9.579 -0.3041 -0.1015  0.1067
51206W        W69953  17.966  17.348   2.729 -0.2070  0.2103  0.3678
51207W        W69954   5.977  34.604  23.437 -0.0690 -0.0434 -0.2273
51208W        W69955  19.661  30.389  21.458 -0.2448  0.1539  0.0405
51209W        W69956  14.092  28.290  11.715 -0.0712 -0.0724  0.0116
51210W        W69957  29.906  25.921   8.080  0.1206 -0.0995 -0.1791
51211W        W69958  27.945  19.072  23.964 -0.1324 -0.0509  0.0093
51212W        W69959  33.496   1.718  22.541 -0.1331  0.4390 -0.0228
51213W        W69960  21.540  35.316  18.696  0.3843  0.1790 -0.0595
51214W        W69961  26.359  30.601  19.003 -0.2084  0.1779 -0.2829
51215W        W69962  14.321  18.230   8.038  0.1334  0.2267  0.1298
51216W        W69963  33.720   5.151  12.204  0.0971 -0.0489 -0.1303
51217W        W69964  17.830   9.968  23.897 -0.0959  0.3492 -0.2792
51218W        W69965  34.998  30.325   6.669  0.1816  0.0487 -0.1445
51219W        W69966  22.283  23.242   1.960  0.2094 -0.1426 -0.2457
51220W        W69967   4.069  28.632   9.249 -0.1258 -0.1977  0.0330
51221W        W69968  16.779  13.366   9.804 -0.1394  0.1089  0.1414
51222W        W69969  32.760  15.775  18.528 -0.0080 -0.0252 -0.1636
51223W        W69970  18.223   0.219   7.600  0.1079 -0.2350 -0.0901
51224W        W69971  29.217  29.087  10.732  0.0527  0.1786  0.1421
51225W        W69972  31.437  13.573   7.787  0.1555  0.0213  0.0698
51226W        W69973  27.287  27.633  23.249  0.1236 -0.1148 -0.0305
51227W        W69974  29.893  18.316   7.920 -0.1850  0.1197  0.1608
51228W        W69975  21.591   5.642  17.527  0.2538  0.1606 -0.1122
51229W        W69976  12.634  10.516   8.970  0.1764 -0.0287 -0.2916
51230W        W69977  24.447  31.720  19.797  0.2279 -0.1735 -0.0110
51231W        W69978  31.771   9.010   0.907  0.0564  0.0023 -0.0953
51232W        W69979  10.217  11.503  20.005 -0.1635 -0.5629 -0.1603
51233W        W69980  19.999   4.626  18.902  0.3362 -0.2710 -0.1439
51234W        W69981  26.468   9.228  16.879  0.1156 -0.1309  0.3158
51235W        W69982  14.656   0.891  17.976 -0.0559  0.1340 -0.2756
51236W        W69983  26.252  33.607  10.147  0.0723  0.0282 -0.1102
51237W        W69984   8.175  22.262  22.206 -0.3973  0.1667  0.0165
51238W        W69985  16.064  32.062  21.568 -0.0854 -0.0721  0.0489
51239W        W69986  20.693  18.844  20.684 -0.1825  0.2157  0.1039
51240W        W69987   2.292   6.642  15.210 -0.0541  0.3740 -0.0893
51241W        W69988  28.073   8.151  26.223  0.2230 -0.1336 -0.1551
51242W        W69989  10.566  16.652  25.369 -0.1395  0.0747  0.0999
51243W        W69990  32.829   7.471  22.213  0.2954 -0.5690 -0.0327
51244W        W69991  24.261  34.080   2.175 -0.0583  0.2342  0.0722
51245W        W69992  33.404   4.863   3.296  0.0230 -0.4839 -0.1204
51246W        W69993  11.357  18.841   7.290  0.3288 -0.2846  0.3992
51247W        W69994  23.618  24.618   2.936  0.0619  0.0442  0.2645
51248W        W69995   2.964   2.176  20.257  0.4115  0.0639  0.1252
51249W        W69996   6.827  33.708   9.241 -0.0328  0.0751 -0.2792
51250W        W69997   8.597  34.028  12.727 -0.0940  0.0131  0.1357
51251W        W69998  26.849   6.040  23.808  0.0955 -0.0862  0.3035
51252W        W69999  10.177  16.152  13.188  0.2803 -0.0826 -0.1035
51253W        W70000   3.315  17.365  17.398 -0.1098 -0.0336 -0.2230
51254W        W70001  17.066   2.444  19.089  0.1305  0.1099  0.0995
51255W        W70002  14.571   6.609  22.984 -0.4464  0.4725 -0.0649
51256W        W70003  16.586   3.566   1.247 -0.1498 -0.2493  0.0656
51257W        W70004  13.543  13.027  12.208 -0.2754 -0.2992  0.1486
51258W        W70005   5.494  20.373  24.068 -0.1078 -0.0881  0.2366
51259W        W70006  17.032   6.731  12.917 -0.3860  0.2355 -0.1671
51260W        W70007   2.809  32.517  20.090  0.1443 -0.1305  0.0663
51261W        W70008   1.634  23.676   4.224 -0.1983 -0.1095  0.1267
51262W        W70009  23.140   0.572   3.938 -0.2124  0.2039 -0.1818
51263W        W70010  25.034   5.666   2.381  0.0548  0.0871 -0.1733
51264W        W70011  23.866   9.518  25.753  0.3245 -0.1724 -0.1057
51265W        W70012  24.430  26.828  20.138  0.0067 -0.3233 -0.0732
51266W        W70013   1.987  22.870  23.005  0.5073  0.0118  0.2821
51267W        W70014  15.024   7.207   4.249  0.0712 -0.1221  0.0256
51268W        W70015  18.492   4.841  22.832 -0.2341 -0.0269  0.1342
51269W        W70016   0.622  11.919   0.377  0.0398  0.0183  0.1632
51270W        W70017  13.182  20.641  10.377 -0.3454 -0.1410 -0.1019
51271W        W70018  22.917   0.199   3.571  0.0661 -0.1219 -0.2294
51272W        W70019  35.359  30.557   6.216 -0.2435 -0.1587  0.1626
51273W        W70020  16.948  21.022   1.103 -0.1550  0.0986 -0.0982
51274W        W70021   8.893  22.422  16.470 -0.1015 -0.0150  0.0973
51275W        W70022   1.856  16.715  18.996  0.3297 -0.0400 -0.3070
51276W        W70023  34.969  26.063  21.484 -0.0962  0.3429  0.1284
51277W        W70024   7.669   8.917  18.823  0.2220  0.0570  0.1551
51278W        W70025  33.816  19.359  24.162  0.3992 -0.1811 -0.3145
51279W        W70026  13.740   3.470  20.062  0.0312 -0.1687  0.1433
51280W        W70027  13.139  28.169  13.918 -0.3812  0.0744  0.1176
51281W        W70028   9.438  24.548   6.182 -0.1167  0.1849 -0.1609
51282W        W70029  32.465  20.548  25.499 -0.0389  0.1390  0.0993
51283W        W70030  17.921  13.770  23.660  0.3824 -0.3383  0.0827
51284W        W70031  33.989  34.610  16.480 -0.3310  0.0158 -0.1785
51285W        W70032  13.767  22.562   2.282 -0.0376 -0.1207 -0.1280
51286W        W70033  17.085  12.000  10.804 -0.3003  0.3241 -0.0378
51287W        W70034   7.184   2.830   1.996 -0.2049 -0.1976  0.1898
51288W        W70035   3.058   2.104   3.513 -0.0274 -0.1103 -0.1801
51289W        W70036   4.575  32.589  18.911  0.1340 -0.1894 -0.1432
51290W        W70037  26.146   1.226  12.512 -0.0177 -0.0811 -0.2918
51291W        W70038  30.539  29.256  19.166  0.2653 -0.2136 -0.0853
51292W        W70039  20.587   2.681   3.549 -0.0356  0.0829 -0.0380
51293W        W70040  15.204   4.020  22.198  0.0506 -0.0987  0.1239
51294W        W70041  26.678   1.488  19.869  0.0293 -0.1396  0.4447
51295W        W70042  17.848  20.951   5.989  0.0143 -0.0635  0.3409
51296W        W70043   1.663   3.093  20.885 -0.5585 -0.0497 -0.1047
51297W        W70044  30.792   8.042  19.820  0.2699 -0.0420 -0.0613
51298W        W70045  24.601  18.415  22.849 -0.1343  0.1764  0.0788
51299W        W70046  23.781  31.136  23.632  0.0172 -0.2877  0.2353
51300W        W70047  26.609  30.150  12.536 -0.0367 -0.1957  0.3483
51301W        W70048   1.057  33.728  19.343 -0.0268 -0.1386  0.1568
51302W        W70049   6.062   2.819   9.821 -0.2027 -0.2195  0.1208
51303W        W70050  15.607  26.654   0.103 -0.1245 -0.2679  0.1000
51304W        W70051  25.534  23.467  16.684 -0.1312 -0.1297 -0.2929
51305W        W70052  31.670  13.675  18.033 -0.3568 -0.0276  0.0240
51306W        W70053  12.328  34.742  25.611  0.0627  0.2426  0.1589
51307W        W70054  27.337  21.315  21.463  0.1394  0.2380  0.2172
51308W        W70055  11.214  23.390   5.453 -0.0858 -0.1114 -0.4890
51309W        W70056  22.477  15.051  16.647  0.0334  0.0778  0.2403
51310W        W70057   2.213   8.517  15.365  0.3302 -0.3918  0.0765
51311W        W70058  11.689  30.053  10.841  0.0295 -0.3048  0.0084
51312W        W70059  35.041   4.794  25.854 -0.1125 -0.1189  0.0056
51313W        W70060  34.808  29.895  17.757 -0.1461  0.1226  0.3042
51314W        W70061  27.774  16.858  18.903 -0.1407  0.0594 -0.1067
51315W        W70062  14.960   3.293  20.575  0.0729 -0.1483  0.1286
51316W        W70063  31.290  19.810  18.999  0.0289  0.0125 -0.0299
51317W        W70064  17.089  16.572   0.857 -0.0185  0.0800 -0.2979
51318W        W70065  33.179  19.319  19.639  0.0856 -0.2103  0.0774
51319W        W70066  19.385  10.957  10.269 -0.0239  0.1487 -0.0669
51320W        W70067  17.551  19.445  21.110 -0.1435 -0.2569  0.0685
51321W        W70068  20.489  26.244   3.603 -0.0670 -0.1337  0.1808
51322W        W70069  35.233  29.395  16.007 -0.2640  0.2022 -0.0764
51323W        W70070  19.796   8.082  20.014 -0.0686 -0.0040  0.1026
51324W        W70071  14.051  16.120   5.966  0.2000  0.1997 -0.2053
51325W        W70072   9.351  30.149  26.207  0.1323 -0.1309 -0.2517
51326W        W70073  27.635   2.118  22.800  0.1734  0.3277  0.0587
51327W        W70074  31.546  28.820   1.200  0.4418 -0.2220  0.1124
51328W        W70075  33.398  26.743  25.775  0.0864  0.0302 -0.2353
51329W        W70076   4.410  15.204   1.374  0.3059 -0.3109 -0.2469
51330W        W70077   0.955  10.946  13.257  0.0074  0.0530  0.0625
51331W        W70078  26.911   0.428  14.322 -0.0770  0.1618 -0.0074
51332W        W70079   6.799   0.173  22.411  0.0167 -0.0210  0.2602
51333W        W70080  19.165   2.220  20.207  0.0766  0.1804 -0.2225
51334W        W70081   1.301   1.611   3.392  0.2034 -0.2426 -0.0363
51335W        W70082   4.275  15.879  22.742 -0.2316  0.0620  0.2213
51336W        W70083  28.934  33.543  19.683  0.1774 -0.3798 -0.1045
51337W        W70084   6.171   1.419  22.551  0.1997 -0.0721  0.3209
51338W        W70085   7.831   0.078  11.881  0.3555  0.0602  0.0995
51339W        W70086   0.108  32.059  15.233 -0.3168 -0.4453  0.0179
51340W        W70087  30.365   3.575  21.605 -0.1840 -0.1022 -0.0576
51341W        W70088  31.472  30.619  18.535 -0.3644  0.3156  0.2379
51342W        W70089  27.221   5.903  21.444 -0.0384 -0.1472 -0.2582
51343W        W70090  18.543  20.421  22.499  0.1105  0.1340 -0.0011
51344W        W70091  31.577   6.191   3.638  0.1646 -0.1391  0.1473
51345W        W70092  19.109   0.791   2.263 -0.3436 -0.1808  0.0841
51346W        W70093  19.309  23.293   6.609  0.0311  0.2383  0.0375
51347W        W70094  31.333  12.262  26.038 -0.2218 -0.0714  0.0767
51348W        W70095  19.997  26.133   3.744  0.2207  0.4890  0.1982
51349W        W70096  16.142  21.790  22.733  0.2197 -0.2525  0.3262
51350W        W70097   2.004  30.284  20.078  0.1028  0.1486 -0.1098
51351W        W70098  13.002   5.633   7.367  0.0215  0.2522 -0.0271
51352W        W70099   4.679   5.652  20.342  0.1982 -0.5485  0.2845
51353W        W70100  18.827  20.820  20.829 -0.0982  0.0162  0.1055
51354W        W70101  12.370  33.620   6.199  0.1388 -0.1321 -0.2650
51355W        W70102  10.426   3.421  14.311  0.3128  0.1952  0.0757
51356W        W70103  25.842  26.943  17.178  0.0893 -0.1208  0.1388
51357W        W70104   4.359  30.794  11.493 -0.0335 -0.2654 -0.1907
51358W        W70105  15.028  30.779  23.429 -0.0426  0.0992  0.2186
51359W        W70106  20.322   9.304  21.004  0.0825  0.1920 -0.1801
51360W        W70107  19.019  31.443  24.544  0.2281 -0.1978 -0.0457
51361W        W70108  28.190  18.382  16.615 -0.2513 -0.0154  0.0295
51362W        W70109  17.114   0.610  17.163  0.0616 -0.0539 -0.0544
51363W        W70110  28.611  30.381  18.923 -0.0228  0.1788  0.0719
51364W        W70111  16.232  14.078  10.099 -0.1206 -0.0436 -0.0323
51365W        W70112  33.695   1.585  12.612 -0.2052 -0.2341  0.1345
51366W        W70113  34.164  33.992  19.368 -0.3288  0.1028  0.1249
51367W        W70114  25.656  19.804   8.493  0.2373 -0.0523 -0.0588
51368W        W70115  29.888   3.125  11.378 -0.2918 -0.2093  0.0080
51369W        W70116   1.088  34.103  25.464 -0.0257 -0.1493  0.1352
51370W        W70117  14.213  13.967  14.455  0.0793  0.0584  0.1378
51371W        W70118   5.909  28.568   0.677  0.1848  0.1859 -0.1707
51372W        W70119   4.899  21.370   3.262  0.2180  0.2813  0.2288
51373W        W70120   6.844  13.736  21.906 -0.0143 -0.1715  0.0256
51374W        W70121  31.266  30.700  19.849 -0.3438 -0.1698  0.0599
51375W        W70122  35.127  27.695  16.117 -0.0007  0.0063  0.0510
51376W        W70123  11.952  16.956  20.256  0.0066 -0.1322 -0.1691
51377W        W70124  21.170  13.258   3.427 -0.0432  0.2150 -0.0221
51378W        W70125   8.802  22.486   6.823  0.0967  0.3206 -0.3867
51379W        W70126   3.341   6.209  19.942  0.0352 -0.0030 -0.3610
51380W        W70127  35.365   9.743  20.018 -0.1270 -0.2498 -0.0715
51381W        W70128  30.196   0.382   0.926  0.0141 -0.0172 -0.3595
51382W        W70129  24.159  32.119  15.756  0.1426  0.0006  0.0009
51383W        W70130  12.315   8.309  13.050  0.2514 -0.0099 -0.0873
51384W        W70131  21.623  31.377   1.638  0.0480 -0.3027  0.1104
51385W        W70132  11.713  14.883  23.654  0.0442  0.2316 -0.0137
51386W        W70133   5.743   2.477   5.069 -0.2328  0.0676  0.1271
51387W        W70134  30.398   2.351  12.589 -0.1371 -0.0212  0.2201
51388W        W70135  17.309  28.979   0.636  0.0612  0.4840 -0.1961
51389W        W70136  22.715  13.948  20.898  0.1975 -0.3422  0.2644
51390W        W70137   3.745  33.550  23.172  0.0443  0.2620 -0.1104
51391W        W70138  13.949  24.386  13.139  0.0088  0.2043 -0.1118
51392W        W70139  27.902  23.637  22.763 -0.3042 -0.2529 -0.3629
51393W        W70140  25.030  32.850  26.232 -0.0584 -0.0312  0.0784
51394W        W70141  13.319  19.968  24.166 -0.1674 -0.1752  0.1128
51395W        W70142  34.869  31.430  20.029 -0.2037  0.0929  0.1270
51396W        W70143   3.854  26.733  25.160 -0.0291  0.2600 -0.0127
51397W        W70144  27.549  14.434  12.315  0.2412 -0.4557  0.2242
51398W        W70145  32.241  23.239  25.569  0.0086 -0.1255 -0.2386
51399W        W70146  17.848  18.087  24.056  0.0010  0.0016 -0.0931
51400W        W70147  12.295  35.021   5.095  0.1513 -0.1391 -0.1136
51401W        W70148  27.196  12.403  13.412  0.3322  0.2241 -0.2897
51402W        W70149  20.874  29.583  18.259 -0.2247  0.0956 -0.1288
51403W        W70150  24.348  20.588  22.724 -0.0762 -0.0672 -0.0829
51404W        W70151  12.996   8.355  22.735 -0.2026 -0.1452 -0.2979
51405W        W70152  32.008  20.417  15.455 -0.2253 -0.0743 -0.1118
51406W        W70153   3.717   1.009   6.990  0.2366  0.0722 -0.1783
51407W        W70154  35.084  32.020   2.649 -0.1977  0.1209  0.0842
51408W        W70155  25.664   7.858  23.046 -0.0277  0.0856  0.0223
51409W        W70156   8.349  30.259   9.933 -0.4133  0.0472  0.0528
51410W        W70157  26.061  22.506  15.310 -0.0506 -0.1855 -0.0175
51411W        W70158   6.082  12.217   2.583  0.1904 -0.2059  0.1993
51412W        W70159   4.856  24.789  22.389 -0.1079  0.2563  0.1649
51413W        W70160   4.955  14.593   2.859 -0.2933 -0.1598 -0.1877
51414W        W70161  22.391  13.369   0.097  0.0643  0.1544  0.3921
51415W        W70162  24.089  21.205  16.502 -0.1504 -0.1140 -0.0803
51416W        W70163  29.083  27.797   0.400 -0.2170 -0.1879  0.1211
51417W        W70164   6.992  29.486   9.641  0.0175  0.2402 -0.0758
51418W        W70165  34.172  14.630  15.190 -0.0253 -0.0597 -0.0276
51419W        W70166  10.342  11.516   5.046 -0.0907  0.0143 -0.0130
51420W        W70167  16.857  31.848  19.212 -0.1979 -0.0334 -0.3691
51421W        W70168  15.380  22.652   9.694  0.2042  0.0518  0.2099
51422W        W70169  15.630   4.836  11.673  0.0570  0.0471 -0.1713
51423W        W70170  26.426  16.904   9.870  0.3650  0.1168 -0.0031
51424W        W70171  26.182  23.539  24.569 -0.0610  0.0370  0.1442
51425W        W70172  33.531  22.880  20.814  0.1681 -0.2133  0.2383
51426W        W70173  13.855  21.262  26.027 -0.2127 -0.0228 -0.1313
51427W        W70174  22.078  33.836  13.562 -0.0958 -0.0319 -0.1963
51428W        W70175  32.649  20.791  17.466 -0.0298 -0.0733 -0.1304
51429W        W70176   2.995  32.887  25.578 -0.1170 -0.1196  0.0603
51430W        W70177  11.967   2.452  10.565 -0.0900  0.0745  0.0191
51431W        W70178  27.693  30.624  24.209 -0.5825 -0.0348  0.1796
51432W        W70179   9.904  13.669   1.623 -0.0028  0.0938 -0.1412
51433W        W70180   6.099  32.760  22.760  0.1141  0.1851 -0.0012
51434W        W70181  31.032   3.611   1.188 -0.0555 -0.0692  0.1360
51435W        W70182  31.212   5.788  10.674 -0.0731  0.0419 -0.1458
51436W        W70183  28.357  10.338  10.391 -0.0997  0.0305  0.2239
51437W        W70184  33.555  22.240   0.786 -0.1797  0.0231 -0.2418
51438W        W70185  12.888   9.848  13.825 -0.2727  0.0983 -0.2287
51439W        W70186  10.565  27.938   5.906  0.1409 -0.1316  0.1942
51440W        W70187  27.207  29.961  17.349  0.2624 -0.1363  0.2106
51441W        W70188  28.628   8.509  19.833  0.1716 -0.0203  0.3944
51442W        W70189  30.513   4.370  16.981 -0.0047 -0.0057 -0.0024
51443W        W70190   4.367   3.278   8.940 -0.1210 -0.1262  0.0273
51444W        W70191  18.208   3.957  17.579  0.1401  0.0698  0.0070
51445W        W70192  29.169  12.924  20.743 -0.0844 -0.3298 -0.1845
51446W        W70193  11.219  18.123   0.277  0.3894  0.2283 -0.2920
51447W        W70194   7.254   6.312   5.454 -0.1665 -0.0440  0.3431
51448W        W70195   3.872   4.621  22.496 -0.1010  0.1817 -0.0521
51449W        W70196   3.260   8.935   2.191 -0.0394  0.0095 -0.0674
51450W        W70197  29.855  14.658  26.088  0.0376 -0.1058  0.0394
51451W        W70198  10.142   5.889  12.625 -0.1149 -0.0333  0.0970
51452W        W70199   6.870   7.312  20.115  0.1563 -0.0694  0.4117
51453W        W70200   2.985  32.086   2.863  0.1402 -0.0155  0.0507
51454W        W70201  33.851  15.210  13.913  0.0478  0.1234  0.0281
51455W        W70202  14.944  31.490   3.729  0.2726 -0.0720 -0.0557
51456W        W70203  17.813   8.827  10.726 -0.1177  0.0763 -0.0195
51457W        W70204  30.770  11.104   8.427 -0.1933  0.1446  0.4041
51458W        W70205  30.771   7.665  12.350 -0.1777  0.0592 -0.0626
51459W        W70206  22.553  22.492   0.278  0.2420 -0.3230 -0.0586
51460W        W70207  24.448  16.242  13.708  0.1057 -0.0542  0.1609
51461W        W70208  34.420  24.923  10.476  0.1329  0.1147 -0.1226
51462W        W70209   9.470  18.496  13.336 -0.1341 -0.0704 -0.1157
51463W        W70210  17.727  11.910  25.357 -0.2278  0.0155 -0.1340
51464W        W70211   4.593  22.690  24.242  0.0836  0.2657  0.0517
51465W        W70212  28.499   5.548  19.663  0.0770  0.1929 -0.1586
51466W        W70213  33.615  11.970  20.895 -0.1862 -0.0380  0.0313
51467W        W70214   8.166   3.543   0.802 -0.2360  0.1198  0.0107
51468W        W70215  12.206  26.415  12.550 -0.2197  0.2361  0.1473
51469W        W70216   9.638  12.603   8.649  0.1461 -0.0324 -0.0442
51470W        W70217  25.854  22.226  23.796  0.0692  0.2477  0.1170
51471W        W70218  18.285   4.672  23.290  0.0884  0.4215 -0.1358
51472W        W70219  27.303  16.388  16.091 -0.1523  0.1123 -0.2264
51473W        W70220   8.635  29.528  26.239 -0.2257  0.1295  0.3418
51474W        W70221  13.065   7.769  12.094  0.2232 -0.1824  0.4428
51475W        W70222  28.520  34.405  14.660  0.0774 -0.0597 -0.3088
51476W        W70223   9.873  11.181  21.801 -0.2577 -0.0332  0.4462
51477W        W70224   3.108  31.719  22.526  0.0569  0.0129 -0.1024
51478W        W70225   9.606   5.590  10.513 -0.1529  0.0594 -0.0735
51479W        W70226  15.224   8.905  11.644  0.3536  0.0994  0.1564
51480W        W70227  33.558   1.942   4.793  0.1095  0.3951 -0.0086
51481W        W70228   5.189  15.731   0.230  0.0924  0.0255 -0.0052
51482W        W70229  12.510  27.732  24.450 -0.0481  0.0323  0.0868
51483W        W70230  22.067  21.251  16.631 -0.0216  0.2887  0.3903
51484W        W70231  22.162   3.465  16.273 -0.0744  0.0855 -0.2123
51485W        W70232  11.525  25.682  25.951  0.0940 -0.0229 -0.0314
51486W        W70233  17.538   1.514  16.636 -0.0788  0.0413 -0.2409
51487W        W70234  18.381  12.422  23.212 -0.0895 -0.2744 -0.1715
51488W        W70235   1.602   1.912  18.387  0.2146  0.1790 -0.1186
51489W        W70236  19.240   0.947   1.401  0.1230 -0.1904  0.2079
51490W        W70237  32.971  13.765  13.546  0.1780  0.0550 -0.2963
51491W        W70238  35.101   8.614   2.783 -0.0686 -0.3235 -0.3093
51492W        W70239  21.138   0.334  14.109  0.0380  0.1873  0.4047
51493W        W70240  21.479  32.471   5.910  0.1936  0.1732 -0.0643
51494W        W70241  12.131   4.946  13.641 -0.0823  0.1270 -0.0435
51495W        W70242  20.916   3.480  20.970 -0.1270  0.0548  0.0346
51496W        W70243  19.163  33.178  18.563  0.3061  0.0282 -0.0102
51497W        W70244   5.253  34.386   4.332 -0.0390 -0.0940 -0.0637
51498W        W70245  23.899   8.674  17.186  0.0666 -0.0031  0.1634
51499W        W70246  11.410   6.050  22.248  0.0868  0.1582  0.0805
51500W        W70247  17.257  31.752   6.513  0.1025  0.3992 -0.0613
51501W        W70248  16.266  26.970  11.306 -0.0098 -0.2052  0.2357
51502W        W70249  34.194  22.137   8.667 -0.0372 -0.0985 -0.3875
51503W        W70250   5.129   9.511   8.848 -0.4947 -0.1598  0.0442
51504W        W70251   1.689  32.609  18.708  0.0665 -0.0253 -0.2632
51505W        W70252  33.185  17.883  17.153  0.2688 -0.1940  0.2400
51506W        W70253  12.000  17.539  12.923  0.2212  0.0570  0.1978
51507W        W70254   8.030  10.902  21.624 -0.2281  0.1095  0.0299
51508W        W70255   2.612  21.704   4.529  0.1390 -0.1019 -0.0556
51509W        W70256  34.568  15.380  24.066 -0.5206 -0.0130 -0.2808
51510W        W70257   4.765  14.397   1.428  0.1372  0.2298 -0.0695
51511W        W70258   9.981   7.471  10.301  0.0671 -0.1859  0.3203
51512W        W70259  26.390  14.622  26.018 -0.2446  0.0490  0.1131
51513W        W70260  34.474  17.563   0.514  0.1325 -0.0822 -0.0855
51514W        W70261  22.012  35.123  23.633  0.0373 -0.1901  0.0922
51515W        W70262   2.935  19.482   3.306  0.0456  0.0948  0.3428
51516W        W70263  33.192   5.394  24.667  0.0943 -0.0697  0.3885
51517W        W70264  19.476  32.264  24.401  0.2817  0.1664 -0.4184
51518W        W70265  11.028  17.449  22.769  0.3202  0.1773  0.1082
51519W        W70266   5.871  35.027   0.984  0.1120 -0.0819  0.0467
51520W        W70267  30.399  16.063  18.187  0.1024  0.0830 -0.0852
51521W        W70268  11.077  23.229   4.513 -0.0720 -0.0248 -0.2749
51522W        W70269  14.537   2.521  21.250 -0.0764  0.1931  0.0995
51523W        W70270   6.215  11.714  22.863 -0.0483  0.2295 -0.1203
51524W        W70271  24.296   5.366  13.826  0.0676  0.0570  0.2981
51525W        W70272  11.413  32.416   6.358 -0.2611 -0.2520  0.0056
51526W        W70273  20.992   2.159   4.210  0.1157  0.4728 -0.2577
51527W        W70274  31.584  18.951  25.195 -0.0769 -0.2148  0.0541
51528W        W70275  32.510   8.779  11.781  0.1827 -0.1149 -0.1210
51529W        W70276  13.238   5.136  23.647 -0.1631 -0.0507 -0.0751
51530W        W70277  24.593  12.154  12.606  0.1440  0.1321 -0.0435
51531W        W70278  19.970  19.400  20.408 -0.1629 -0.0939 -0.0985
51532W        W70279  28.078  10.162   0.566  0.0592 -0.2522  0.2306
51533W        W70280  10.501  23.846   1.257  0.1571 -0.0967 -0.2129
51534W        W70281  10.080  29.313   3.314  0.0554 -0.3374 -0.1474
51535W        W70282  24.319  16.226  25.447 -0.0875  0.2323 -0.0663
51536W        W70283  22.122  28.059   0.548 -0.1454  0.2508  0.2929
51537W        W70284  15.406  21.305  25.285  0.0696  0.1545  0.0204
51538W        W70285  21.197   2.420  18.834  0.1362  0.1626  0.1742
51539W        W70286  13.889   0.243   0.542 -0.1520  0.2049  0.1623
51540W        W70287  35.113   6.911  10.990  0.1729 -0.1935  0.0508
51541W        W70288  29.334  26.003  14.348 -0.1769 -0.2133  0.0096
51542W        W70289  19.748  12.255  17.471 -0.0451  0.0418  0.0113
51543W        W70290  27.119   1.026  13.263 -0.2607 -0.2386 -0.0150
51544W        W70291  33.484   1.950  23.885 -0.2476  0.1386  0.1509
51545W        W70292  13.134   0.511  22.438  0.2492  0.2230 -0.0945
51546W        W70293  21.015   2.960   8.691 -0.3707 -0.0544 -0.0749
51547W        W70294  13.426  20.721   3.601  0.1059 -0.2045  0.1480
51548W        W70295  32.879  10.351  23.014  0.3496 -0.1219  0.3176
51549W        W70296  22.912  28.947  15.842  0.1959 -0.0665 -0.0189
51550W        W70297  14.670  28.841  16.566  0.0257 -0.1443 -0.2940
51551W        W70298  24.777  35.057   3.779  0.4007 -0.0372 -0.0314
51552W        W70299  24.615  27.326  13.787 -0.0487  0.1748 -0.1122
51553W        W70300   9.019  19.046  11.315  0.0144 -0.0445  0.1109
51554W        W70301  34.020   4.941  13.749 -0.0426 -0.3181 -0.0818
51555W        W70302  28.118   6.868  14.070 -0.0929  0.0817  0.0420
51556W        W70303  26.757  28.804  14.056 -0.0945 -0.1836  0.0920
51557W        W70304  23.263  32.604  14.008 -0.0610  0.1651  0.1981
51558W        W70305  30.556  15.808  24.898 -0.0949  0.0027 -0.2072
51559W        W70306   4.056  31.248  20.659 -0.1116 -0.0625 -0.0620
51560W        W70307   2.527   7.591   1.099 -0.1610  0.1430 -0.0280
51561W        W70308  35.275   4.776   4.967 -0.2721  0.2275 -0.1435
51562W        W70309  11.518  10.476  19.312  0.0269 -0.2648 -0.0229
51563W        W70310   0.510   1.385  21.800  0.1576 -0.1687 -0.2073
51564W        W70311  25.387  23.275  14.914 -0.2588 -0.0186 -0.1951
51565W        W70312  24.852  18.909  17.631  0.2384  0.5652 -0.3225
51566W        W70313  18.783  14.180   6.301 -0.0314 -0.0417  0.1166
51567W        W70314  18.542  13.945  18.958 -0.0135 -0.3307 -0.0316
51568W        W70315   7.891  13.169  18.528  0.1226  0.1260  0.4734
51569W        W70316   3.334  34.538   3.853  0.1450  0.0887  0.0010
51570W        W70317  21.236  31.079   6.973  0.2267  0.0372  0.0327
51571W        W70318  20.458  24.886   8.570 -0.1662  0.1656  0.0143
51572W        W70319  24.529  14.738   1.852  0.0755  0.0418  0.0140
51573W        W70320  16.215   6.101   0.558 -0.0555  0.0356 -0.3945
51574W        W70321   6.205  23.271   1.331 -0.1638  0.0903 -0.1705
51575W        W70322   2.892  34.498  11.200  0.2501  0.0836 -0.0059
51576W        W70323   7.059  20.573   5.146  0.0923  0.0881 -0.1020
51577W        W70324  27.278  16.967  19.889  0.1176  0.0202 -0.2068
51578W        W70325  29.877   0.355   0.511  0.3568  0.3551 -0.0276
51579W        W70326  26.176   4.257   0.334 -0.0614  0.1776 -0.2390
51580W        W70327  12.319  15.150   0.691  0.0889  0.2262  0.0555
51581W        W70328  20.942  21.130  17.793 -0.1752 -0.1725  0.1524
51582W        W70329   1.538  15.430  13.159  0.2883 -0.0634 -0.2037
51583W        W70330  12.006  24.362  15.560 -0.1310  0.1559 -0.2197
51584W        W70331  27.865   2.850  24.256  0.0505  0.2575 -0.0273
51585W        W70332   4.344   2.981  19.174 -0.3152  0.1872  0.1592
51586W        W70333  17.384  18.433   0.219 -0.1143  0.3075  0.2024
51587W        W70334  14.817  27.008   0.826 -0.1889 -0.2956 -0.1776
51588W        W70335  17.678  33.141  19.878 -0.0041  0.1176 -0.1613
51589W        W70336   9.708  31.301  16.699  0.2004  0.3319  0.2437
51590W        W70337  10.896  12.840   4.985 -0.2581  0.1188  0.5475
51591W        W70338  21.515   8.435  22.422 -0.2292  0.2597 -0.2247
51592W        W70339   2.454  24.703  17.108  0.2620 -0.1719  0.0396
51593W        W70340  29.472  15.451  22.794 -0.1625 -0.1033  0.1298
51594W        W70341  17.745  25.070   9.835  0.1507 -0.0440 -0.0242
51595W        W70342  20.125  23.253   7.740 -0.1878  0.0442 -0.2078
51596W        W70343  35.266   9.174  15.041 -0.0901 -0.1012  0.1060
51597W        W70344  19.501  26.628   2.379 -0.1840 -0.1524 -0.0698
51598W        W70345   3.236  16.367  24.171  0.2777 -0.0587 -0.0166
51599W        W70346   3.517  29.112   9.617  0.0148  0.0320 -0.0269
51600W        W70347  25.523  19.786  19.856 -0.0699 -0.2091 -0.0226
51601W        W70348  25.798  19.683  14.542  0.0059  0.1361  0.2178
51602W        W70349  24.375  33.813  18.031 -0.3229 -0.3272 -0.2276
51603W        W70350  31.286   5.089   0.680  0.3462 -0.1751 -0.1349
51604W        W70351   7.905   7.734  21.062  0.0801  0.2459  0.3257
51605W        W70352  19.328  17.115  20.305  0.2066  0.1189  0.2742
51606W        W70353   8.880  23.702  13.515 -0.1450 -0.2271  0.0581
51607W        W70354  28.094  26.663  14.783 -0.1282 -0.0571  0.1738
51608W        W70355  34.284   3.882   4.834  0.0750 -0.2332  0.2079
51609W        W70356  17.747   4.890  11.122 -0.3067  0.0476  0.0884
51610W        W70357  10.086  24.491  21.766 -0.3788 -0.1264 -0.2950
51611W        W70358  34.608  14.609   1.136 -0.1495  0.1887 -0.0931
51612W        W70359   3.887   8.478   4.521 -0.0233  0.0262  0.0749
51613W        W70360  26.819   4.961   0.454  0.1078 -0.0386 -0.2050
51614W        W70361   6.760  25.675  12.161 -0.1787 -0.1159  0.3572
51615W        W70362  29.100  17.484  14.440  0.0861 -0.0407 -0.2082
51616W        W70363   8.770  16.276  22.922  0.4406 -0.1465  0.2970
51617W        W70364  12.551   0.461   3.122  0.2840  0.1563 -0.0181
51618W        W70365  15.606   1.489   6.160  0.0183  0.0716 -0.0510
51619W        W70366  25.632   0.089  25.415 -0.0383  0.1465  0.0885
51620W        W70367   1.548  18.590  25.261 -0.0688  0.1983 -0.0308
51621W        W70368  13.468  10.424  10.989  0.0943 -0.1190  0.1212
51622W        W70369  19.953  12.399   0.378 -0.0007  0.0191 -0.1997
51623W        W70370  25.979  24.748  13.750  0.0258  0.1760  0.0673
51624W        W70371  15.577  29.593  10.111 -0.3370  0.2052  0.0702
51625W        W70372  14.559  24.473  13.216  0.1463 -0.3049  0.1848
51626W        W70373  28.129  14.201  18.082 -0.0107  0.1968  0.0985
51627W        W70374  29.671  10.617  15.480 -0.1736  0.0676 -0.0981
51628W        W70375  24.545  26.975  26.098  0.1331 -0.0472 -0.1413
51629W        W70376   5.568  20.693   2.429  0.0820 -0.0821  0.3289
51630W        W70377  27.374  31.400   4.465 -0.0562  0.0224  0.1564
51631W        W70378   2.982  27.445  25.688  0.0702 -0.0482  0.0169
51632W        W70379   9.298  22.847   2.727 -0.1418 -0.2883 -0.1753
51633W        W70380  13.269  30.719  20.998  0.3128 -0.1167 -0.3358
51634W        W70381  26.842  21.933  14.731  0.0966 -0.3608  0.3472
51635W        W70382  30.215  23.812  19.261 -0.2843  0.0029 -0.0840
51636W        W70383  10.558  19.142   5.144 -0.3888  0.0666 -0.3324
51637W        W70384  32.617  30.275   2.902  0.1293  0.0020  0.1170
51638W        W70385  26.487  28.861  11.147 -0.4340 -0.1599  0.0208
51639W        W70386  22.096  31.314  24.086 -0.4996 -0.0374  0.1937
51640W        W70387  19.441  22.985  21.966  0.4992  0.0385 -0.0931
51641W        W70388  14.267  13.506  24.988  0.0107  0.5940  0.2668
51642W        W70389   9.809   9.628  23.797 -0.2557 -0.0373 -0.2964
51643W        W70390   4.248   4.541   3.539 -0.3301 -0.1145  0.0679
51644W        W70391  28.269  16.459  14.490 -0.0356 -0.1005 -0.3263
51645W        W70392  29.733  11.691  22.058  0.2730  0.2074 -0.0547
51646W        W70393   4.396  33.531   9.466  0.0561 -0.0697 -0.1875
51647W        W70394  11.725  27.681   1.623  0.2932 -0.0764 -0.0089
51648W        W70395  27.296   1.598  23.594  0.4639  0.1060  0.1547
51649W        W70396  16.143  26.460   6.719 -0.0558 -0.0681  0.1119
51650W        W70397   0.688  32.674   3.325 -0.0327  0.0004 -0.3695
51651W        W70398  30.784  34.115  24.160 -0.1932 -0.2758  0.1455
51652W        W70399   4.073  14.372   4.102 -0.2957 -0.0031  0.2474
51653W        W70400  35.277  12.674  26.131  0.2273  0.3275 -0.1357
51654W        W70401   3.302  26.266  23.754 -0.1343  0.2106  0.0671
51655W        W70402  27.353  26.391  23.759 -0.0780 -0.0797 -0.1172
51656W        W70403  30.679   2.483  11.950  0.0571 -0.0498 -0.1013
51657W        W70404  26.490  19.108  10.508  0.2334 -0.1733 -0.2196
51658W        W70405  20.422  13.830   1.630 -0.3176 -0.2574 -0.0672
51659W        W70406  18.624  34.792   5.752  0.0261 -0.2165  0.2017
51660W        W70407  32.865   5.573  10.999  0.0494 -0.0856 -0.1911
51661W        W70408   9.484  23.664  14.225  0.0529 -0.0771 -0.0569
51662W        W70409  11.313  16.922   6.667 -0.2156  0.2112  0.0409
51663W        W70410   5.236   8.183   7.606 -0.1203 -0.0218  0.0570
51664W        W70411  13.708   6.471  11.735  0.0068  0.0918  0.3748
51665W        W70412  31.444   4.944   3.060  0.2425 -0.2318 -0.1679
51666W        W70413  35.159  31.111  26.129 -0.1375 -0.0715  0.1268
51667W        W70414   3.940  30.005  23.743  0.2159 -0.1142 -0.0261
51668W        W70415  23.710   6.489   0.559 -0.0752  0.2473 -0.1286
51669W        W70416   2.971  31.317  24.727 -0.0752  0.3265  0.0088
51670W        W70417  28.007  33.875  24.794 -0.1792 -0.1752 -0.2146
51671W        W70418   8.102  14.015  20.137  0.1558 -0.0776  0.1569
51672W        W70419   3.788  26.294   5.121 -0.1195 -0.0613 -0.0279
51673W        W70420  33.170  22.341  14.753  0.1391  0.2811 -0.3327
51674W        W70421   2.224  35.363   3.689  0.2959  0.0024 -0.4402
51675W        W70422  26.622  33.180  22.760 -0.0157  0.1385  0.0103
51676W        W70423   3.664  24.950  23.782 -0.3278 -0.0020  0.0118
51677W        W70424  14.141  33.933   8.388  0.3253 -0.0653 -0.2561
51678W        W70425  26.968  11.062  17.279  0.0488 -0.0559 -0.0408
51679W        W70426   8.779  10.672  12.893 -0.0285  0.1131  0.0544
51680W        W70427   3.006  29.207   6.891  0.0521  0.1277  0.1073
51681W        W70428   2.419   3.683   4.328 -0.1690 -0.1582  0.0070
51682W        W70429  14.925   6.711   4.914  0.1435 -0.0952 -0.1563
51683W        W70430  30.046  14.546  11.097  0.1510 -0.2208  0.2509
51684W        W70431  28.618  14.776  24.822 -0.1044  0.1119 -0.2741
51685W        W70432  29.558  12.677  15.961  0.2160 -0.1952  0.0318
51686W        W70433  22.422  31.494  22.569  0.0035  0.0308 -0.0665
51687W        W70434   5.274  27.543  12.113  0.2267  0.1725  0.3745
51688W        W70435  11.615   4.960   6.406  0.3941  0.2556  0.2361
51689W        W70436  13.610  16.890  11.302  0.1451 -0.1401  0.0033
51690W        W70437  16.212  22.758  11.941  0.1155 -0.0275 -0.3381
51691W        W70438   3.630  30.643  21.122  0.0999 -0.0680 -0.1561
51692W        W70439  15.242  20.079  15.452 -0.1722 -0.0266  0.2385
51693W        W70440  32.546   4.777  19.996  0.2862  0.2516  0.0825
51694W        W70441  29.470  32.442  22.350  0.2376 -0.2416  0.2670
51695W        W70442   7.353  14.939   4.683  0.1153  0.0475 -0.0093
51696W        W70443  25.911  10.394   9.736  0.0790  0.2726 -0.0283
51697W        W70444  27.592  27.111  10.298 -0.2310 -0.1012 -0.0736
51698W        W70445   9.342  11.769  19.164  0.2954 -0.0955  0.2122
51699W        W70446  16.040  26.937   0.180 -0.0311  0.2525 -0.3058
51700W        W70447  34.112  22.214  10.707  0.1403 -0.3411 -0.2428
51701W        W70448  16.947   9.525   1.956  0.0330  0.1846  0.1013
51702W        W70449  30.972  26.486  15.007  0.2123 -0.2111  0.3072
51703W        W70450   7.508  20.981  14.077 -0.2634  0.0216 -0.0739
51704W        W70451  23.320  30.697  13.335  0.3834 -0.1179 -0.0667
51705W        W70452   7.274  31.112  23.439 -0.0954 -0.0894  0.0435
51706W        W70453  16.619   7.194  19.720  0.0502  0.0890  0.1746
51707W        W70454  24.449  22.916  10.177  0.1130  0.0587 -0.0706
51708W        W70455   1.145  34.249  22.884 -0.1247  0.2543  0.0095
51709W        W70456  32.194  16.666   9.331 -0.1658  0.3112  0.0131
51710W        W70457   9.987   1.193  10.841 -0.1649  0.0108 -0.4050
51711W        W70458  30.561   2.646  16.206  0.1384 -0.1403 -0.1052
51712W        W70459  12.023  26.570   3.813  0.2464 -0.0165  0.0760
51713W        W70460  16.692  28.096   6.210 -0.5739  0.0578 -0.0833
51714W        W70461  12.035   8.463   5.821  0.0313  0.0577 -0.0374
51715W        W70462  27.461  24.061  21.158 -0.1858 -0.1265 -0.4220
51716W        W70463  10.512  24.327  17.988 -0.1241 -0.1310 -0.1529
51717W        W70464  24.749  13.997  21.194 -0.1929  0.0650  0.1361
51718W        W70465  26.228  21.914  11.118  0.2038  0.2795  0.0995
51719W        W70466  25.919   3.305  20.241  0.6020 -0.2078  0.3413
51720W        W70467   2.515  12.762   3.494 -0.0122 -0.5564  0.0629
51721W        W70468  23.287   2.310   4.244  0.2968  0.0434  0.0220
51722W        W70469  14.783  24.285  10.448  0.3039  0.0854  0.1424
51723W        W70470   6.867  32.064  14.380 -0.0056  0.1006 -0.2852
51724W        W70471  25.583  17.978  20.256  0.0431  0.2601 -0.1150
51725W        W70472  29.151  24.413  17.331 -0.1298 -0.2202  0.2780
51726W        W70473  21.397   8.772  19.065  0.0368  0.0609  0.1669
51727W        W70474  11.924  29.516  15.041 -0.2514  0.1688 -0.2623
51728W        W70475   9.406  15.817   0.489  0.2362  0.0924 -0.3164
51729W        W70476  28.961   2.674  23.441 -0.5009 -0.0768 -0.0174
51730W        W70477  12.138  14.215  11.083 -0.0359  0.1343  0.1419
51731W        W70478  17.048  18.153   6.548 -0.1211 -0.0859  0.1460
51732W        W70479   2.088  29.185   4.466 -0.2089  0.2030 -0.0763
51733W        W70480  28.400   3.863  25.389  0.1338 -0.0806 -0.2218
51734W        W70481  19.927  14.778   1.544 -0.0031  0.1370 -0.0939
51735W        W70482  10.597  17.389   6.248  0.0781  0.0724  0.3831
51736W        W70483   4.020  28.709  25.132  0.2566 -0.0049  0.2239
51737W        W70484   9.740   2.588  23.991  0.2814 -0.2480 -0.2252
51738W        W70485  31.491  30.984  23.538 -0.1191  0.2077 -0.3876
51739W        W70486   5.445   2.834   7.843 -0.0888  0.4609  0.0236
51740W        W70487   1.458  35.208  25.421  0.1925 -0.5438  0.0921
51741W        W70488  29.595   2.405  16.770 -0.2796 -0.1173 -0.1898
51742W        W70489  28.033   4.324  18.057 -0.0929 -0.3267 -0.0534
51743W        W70490  28.101  30.036  16.332  0.0343  0.2877 -0.2099
51744W        W70491   1.420  27.170  19.706  0.0654  0.1171  0.2638
51745W        W70492   9.239  18.865  12.305 -0.0347 -0.0964  0.1227
51746W        W70493  33.263   8.473  13.085  0.0854  0.0283 -0.5219
51747W        W70494  17.174  34.042   3.379 -0.1151  0.3088  0.2337
51748W        W70495  31.878  20.822   5.583  0.1155  0.0575 -0.0142
51749W        W70496  24.268  10.132  19.338 -0.1553  0.5797 -0.1731
51750W        W70497  15.662   2.490  23.321  0.2208 -0.0036 -0.1667
51751W        W70498   0.474  18.623  22.615 -0.1350  0.2341  0.2100
51752W        W70499   9.830  21.828   0.398  0.0154  0.5568 -0.1751
51753W        W70500  23.340  13.071  15.565 -0.0830 -0.0086 -0.1423
51754W        W70501  26.812   0.990  17.715 -0.0521  0.1889 -0.0714
51755W        W70502  26.993  26.786   9.729 -0.2188 -0.1550  0.0109
51756W        W70503   2.485  15.703  17.519  0.1684 -0.1983 -0.1218
51757W        W70504   6.870  18.732   9.081 -0.1314 -0.1520 -0.0221
51758W        W70505   0.709   0.281   6.485 -0.1226 -0.0862 -0.2884
51759W        W70506   9.906   3.974   4.142 -0.6171  0.1301  0.0908
51760W        W70507  15.082   0.821  20.156  0.0058  0.0070  0.0184
51761W        W70508   0.366  13.505  23.027 -0.1567 -0.0668 -0.0468
51762W        W70509  12.626   6.568  11.838 -0.1398  0.1696  0.0767
51763W        W70510  32.953  30.010   1.552 -0.1748  0.0260 -0.0681
51764W        W70511  34.875   2.017   2.938 -0.0202  0.0132  0.1590
51765W        W70512  11.310   9.330  20.678  0.0565  0.0617 -0.5013
51766W        W70513  21.061  25.933   4.382 -0.0806 -0.2853  0.1532
51767W        W70514  21.396  17.404   5.209 -0.0217 -0.0889 -0.2234
51768W        W70515   6.219  28.529  22.518  0.3412  0.2625  0.1491
51769W        W70516   3.880  27.100  22.475 -0.0156  0.2354 -0.1342
51770W        W70517  15.274  19.419  20.605 -0.1857  0.2458 -0.0388
51771W        W70518  12.463   9.449   8.439 -0.0936  0.2358  0.1767
51772W        W70519  24.910   1.034   1.131 -0.0376  0.2895  0.0037
51773W        W70520   4.224  26.612  23.525 -0.3118 -0.0550  0.2646
51774W        W70521  10.180  12.438  21.556  0.0916  0.1219 -0.0743
51775W        W70522  28.365  17.476  17.777  0.0215  0.3420 -0.0764
51776W        W70523  32.745  15.244  11.910  0.3324 -0.2539 -0.0556
51777W        W70524  24.307  13.285  10.696  0.1752  0.2133 -0.4422
51778W        W70525   9.215  25.983   2.718  0.0178  0.1253 -0.1739
51779W        W70526   7.094  18.285  24.699  0.2122  0.2558 -0.1533
51780W        W70527  13.271  27.699  11.464 -0.0909  0.1692 -0.0342
51781W        W70528  33.856   1.525  16.159  0.0879  0.0827  0.0513
51782W        W70529  31.096  17.043  24.759  0.0397 -0.1277  0.1964
51783W        W70530  10.432   4.199  11.805 -0.0694  0.1979  0.1882
51784W        W70531  24.125  30.482   5.534  0.0648  0.0515 -0.0352
51785W        W70532   6.057  31.351  23.495 -0.0311  0.0371 -0.1754
51786W        W70533   1.353   8.689  12.561  0.2130  0.0095  0.0266
51787W        W70534  26.597   6.662  16.256  0.2306 -0.1204 -0.0459
51788W        W70535   6.730  19.127   5.157 -0.2307 -0.2412 -0.1432
51789W        W70536   5.048   4.079   0.619  0.1609  0.1952  0.0384
51790W        W70537   9.930   1.788  21.552  0.1877 -0.1894 -0.2477
51791W        W70538  23.148  28.783  20.246  0.1235  0.1489  0.1228
51792W        W70539  34.479  32.155  24.124  0.0080  0.2486 -0.0919
51793W        W70540  18.749  31.188  25.653 -0.0739  0.1996  0.1321
51794W        W70541  17.212   4.123   2.271 -0.1958 -0.2221  0.2610
51795W        W70542   1.749  10.638  15.717  0.0074  0.1006  0.3501
51796W        W70543   7.167  17.273   3.940  0.0432  0.1291  0.1983
51797W        W70544   9.650  11.555  11.096  0.1258 -0.0262  0.1832
51798W        W70545  34.729  13.003  14.147  0.0618  0.1015 -0.1816
51799W        W70546  11.601  32.227  25.717 -0.0347  0.1706  0.1400
51800W        W70547   3.682  23.039  25.230  0.0796 -0.3306  0.0544
51801W        W70548  28.974   5.340   0.612 -0.2033  0.2991  0.2397
51802W        W70549   0.187   8.850   3.547  0.1438 -0.0183 -0.1897
51803W        W70550  30.971  20.033  24.653 -0.0639 -0.1835  0.0538
51804W        W70551  11.949  16.472  13.876  0.1512  0.0000  0.0809
51805W        W70552  22.639  19.843  19.821  0.2082 -0.1835  0.0679
51806W        W70553  13.866  12.560  23.225 -0.2964  0.1743 -0.2195
51807W        W70554   0.341  27.167  18.866 -0.0374  0.0169 -0.4394
51808W        W70555   4.363   3.479   5.378  0.0840 -0.2683 -0.1132
51809W        W70556  22.676  14.722  13.503 -0.2302  0.0929  0.5406
51810W        W70557  15.764  33.476   4.398 -0.0756 -0.2809 -0.0113
51811W        W70558   9.884  23.842  12.147 -0.0354  0.1314  0.2183
51812W        W70559  29.517   1.665  11.379  0.0259  0.1606  0.0334
51813W        W70560  23.137   0.435   6.215  0.2077  0.1509  0.1995
51814W        W70561  20.720  30.253  16.272 -0.0132  0.4056  0.1414
51815W        W70562  28.188  28.831  12.954 -0.2054 -0.2950  0.0977
51816W        W70563  13.199  35.381   8.095  0.2168 -0.0253 -0.2436
51817W        W70564  32.311   7.373  21.922  0.0163 -0.0414 -0.3246
51818W        W70565  15.130   1.623   5.977 -0.1998 -0.0972  0.3837
51819W        W70566  12.159  34.021  11.794 -0.2884  0.2892  0.0320
51820W        W70567   2.599  30.917   9.544  0.0675  0.0556  0.0406
51821W        W70568   4.578  26.133   5.723 -0.2048 -0.0536 -0.0477
51822W        W70569  26.707   7.333  14.995  0.2242 -0.1275  0.1237
51823W        W70570   0.730   8.942  21.014 -0.1373  0.0530  0.0422
51824W        W70571  33.574  12.235  11.931 -0.2335 -0.2484  0.0980
51825W        W70572  16.810   1.738   7.706 -0.3287 -0.3733  0.1868
51826W        W70573  12.157  17.033   6.184 -0.1120 -0.0156  0.0756
51827W        W70574  18.023  19.177  25.621 -0.1595 -0.0679 -0.2338
51828W        W70575  28.649  25.309  19.368  0.3016 -0.2464 -0.0276
51829W        W70576  11.519  29.566   5.713 -0.4810  0.2678  0.1628
51830W        W70577   6.033   6.377   2.750  0.0656  0.1870  0.0808
51831W        W70578  18.767  32.145  21.961  0.2161 -0.1582 -0.1705
51832W        W70579  30.217  19.080  11.548  0.0925 -0.0976 -0.0532
51833W        W70580   7.589  22.903  22.234  0.3600 -0.1614  0.0823
51834W        W70581  23.306   2.731  18.529  0.1546  0.0477 -0.1302
51835W        W70582   1.566  33.813  25.834  0.2770 -0.1073 -0.0436
51836W        W70583  11.946  24.645  10.707 -0.3588  0.1094 -0.2401
51837W        W70584   2.855  27.413  20.470 -0.2400  0.0281  0.0940
51838W        W70585  12.271  31.985   6.761  0.1852  0.2488  0.1140
51839W        W70586  24.488  25.843  12.929 -0.1396 -0.0113 -0.0904
51840W        W70587  21.469  13.348  20.503 -0.2704  0.3615 -0.2350
51841W        W70588  24.502  34.522  20.496  0.1104 -0.2937  0.2142
51842W        W70589  32.155  26.228  20.011  0.0976 -0.1830  0.0551
51843W        W70590  13.051   6.131  25.372  0.1736  0.0495  0.0132
51844W        W70591  10.956  17.414  24.961  0.4142 -0.0005 -0.1475
51845W        W70592   5.252  20.880  19.232 -0.0011 -0.2943  0.1064
51846W        W70593  15.811  16.785  24.465  0.0162 -0.2033  0.0415
51847W        W70594  24.029   5.673  20.346 -0.1162 -0.3575  0.0330
51848W        W70595  25.589   3.970  14.720  0.0480 -0.1821 -0.1159
51849W        W70596  34.016  25.588  25.777  0.2765  0.0321  0.3490
51850W        W70597  21.084  20.107  17.356  0.1790 -0.1803 -0.0892
51851W        W70598  13.505   7.002  20.195 -0.1009 -0.2360 -0.0630
51852W        W70599   6.790  25.771  24.660  0.4626  0.2831  0.0938
51853W        W70600   8.865  20.636   7.796 -0.2052 -0.0787  0.1216
51854W        W70601  27.807   1.229  25.750 -0.0586  0.0816 -0.2156
51855W        W70602  15.354  18.127   3.336  0.0778 -0.1642 -0.0828
51856W        W70603  13.611  27.553  25.845 -0.1890  0.1100 -0.2926
51857W        W70604  17.376  33.851   9.484 -0.2440 -0.1526  0.1659
51858W        W70605  33.386   4.031  21.736 -0.2218  0.2119 -0.1035
51859W        W70606   0.987  10.514   0.312  0.1757  0.2193  0.2203
51860W        W70607   0.199  25.715  21.939  0.0210 -0.1108  0.2592
51861W        W70608  12.957  19.754   8.909  0.0913  0.1352 -0.2370
51862W        W70609  32.699  27.086  11.575 -0.1263  0.0895 -0.0766
51863W        W70610  29.274  26.000  18.930 -0.2294  0.1527 -0.1315
51864W        W70611  23.323  28.588  18.483 -0.3664  0.2003  0.2769
51865W        W70612  30.152  19.484  21.015  0.3876 -0.0448 -0.0474
51866W        W70613  11.116   2.455  20.536  0.2002  0.0068  0.2044
51867W        W70614  17.386  16.067   0.430  0.0942 -0.1564 -0.2071
51868W        W70615  10.108  10.933  23.819 -0.2033  0.2131  0.1068
51869W        W70616  13.726  20.941   6.526  0.1830  0.3185 -0.2133
51870W        W70617   5.813  13.128  22.179 -0.1421  0.1020  0.2740
51871W        W70618  29.806   5.022  17.998 -0.0533 -0.1303  0.1164
51872W        W70619  25.640   9.570  17.163 -0.2948 -0.1848  0.3228
51873W        W70620  30.334  25.948   1.137 -0.0372 -0.0981  0.0536
51874W        W70621  15.278  24.690  21.607 -0.1527 -0.1049 -0.1845
51875W        W70622  19.468  32.254   5.184 -0.0941 -0.0405  0.2084
51876W        W70623  12.714  30.492   4.729 -0.3572  0.1768 -0.1318
51877W        W70624  20.774  33.805   4.165  0.0266  0.0324  0.0413
51878W        W70625   9.775  32.497  23.884  0.1469  0.1656  0.0727
51879W        W70626  22.493   2.383   1.303 -0.3819 -0.0853  0.0836
51880W        W70627  20.196  31.061   7.091 -0.0218 -0.1678  0.0751
51881W        W70628   9.836  26.525   4.191  0.1574  0.2707 -0.2423
51882W        W70629   0.494  20.287   2.297 -0.1530  0.3978 -0.4568
51883W        W70630  20.197  23.069  20.030 -0.2096 -0.4011  0.0847
51884W        W70631  26.733  11.792  18.265 -0.2591 -0.3125 -0.0086
51885W        W70632  25.831   3.593  16.663 -0.0408 -0.1082  0.0330
51886W        W70633  33.314   5.227   4.668 -0.1834 -0.4597  0.1453
51887W        W70634   5.990  18.709  21.106  0.1610 -0.1221 -0.2234
51888W        W70635   1.249  27.754  20.475 -0.0750 -0.2066 -0.0678
51889W        W70636  27.271  19.166  16.995 -0.0006  0.2291  0.2046
51890W        W70637   6.123  20.831   6.154  0.0081 -0.1048  0.1661
51891W        W70638   2.394  28.639  20.987 -0.2099  0.1868  0.0389
51892W        W70639  25.232  27.029   1.812 -0.2488 -0.0123 -0.1615
51893W        W70640  28.246   9.707  16.378  0.3081 -0.3526  0.3985
51894W        W70641   9.744   8.609  11.196  0.1377 -0.0136  0.0543
51895W        W70642  28.710  26.346  11.838 -0.1338 -0.0802 -0.3638
51896W        W70643  12.037  33.644  25.410  0.0521  0.0330  0.0231
51897W        W70644  17.685  28.151  10.345  0.0196  0.3914  0.1873
51898W        W70645  24.363  12.618  24.446 -0.0709 -0.2604 -0.0464
51899W        W70646   0.800  19.370  16.724  0.2853  0.0100  0.1324
51900W        W70647  24.094   7.550  16.331  0.1203 -0.1613 -0.1285
51901W        W70648  12.919   0.430  11.877  0.1972 -0.1589 -0.0771
51902W        W70649   0.823   5.864  13.854 -0.3804 -0.2667  0.1198
51903W        W70650  32.727  24.328  24.027 -0.0157  0.1104 -0.0463
51904W        W70651  31.365   3.792   2.693  0.2504 -0.0091  0.2843
51905W        W70652   9.834  26.389   3.675  0.0300  0.1140  0.3346
51906W        W70653  29.924   0.208  19.809 -0.0129  0.1794  0.0696
51907W        W70654  28.541  12.296  15.279 -0.1049  0.1825  0.1357
51908W        W70655  18.066  11.890  23.918  0.1309 -0.1400 -0.1454
51909W        W70656  22.552  21.084  22.526  0.3123  0.1850 -0.2805
51910W        W70657  16.328  35.324   6.873 -0.1631  0.0762  0.0162
51911W        W70658  28.367  23.628  15.373  0.0394 -0.1237 -0.1164
51912W        W70659   8.014  13.177  11.730  0.3295  0.1012  0.2153
51913W        W70660  27.586  24.785   8.667  0.1976  0.2900  0.1627
51914W        W70661  31.525  15.014   7.943  0.1237  0.2272 -0.1598
51915W        W70662  19.027   1.624  24.399  0.0214  0.1121  0.0290
51916W        W70663  28.311   9.311  23.606 -0.1545  0.4525 -0.2313
51917W        W70664  20.705   9.697   2.083 -0.0929 -0.1068 -0.0118
51918W        W70665   0.797  21.563   2.706  0.0367  0.0913  0.0174
51919W        W70666  15.325   8.462  20.879 -0.0214 -0.2511  0.1323
51920W        W70667  33.166  17.622  26.173 -0.1084  0.0292  0.1742
51921W        W70668  23.805   3.464  23.486 -0.0855 -0.2021 -0.4614
51922W        W70669  17.587  12.827   0.682 -0.0846  0.3356 -0.0823
51923W        W70670   7.200   5.294   5.783 -0.2139 -0.1617  0.1239
51924W        W70671   4.475  12.964  24.956 -0.1736  0.2111 -0.5599
51925W        W70672  22.452  25.270   5.223 -0.2565  0.0675 -0.0300
51926W        W70673  14.647   9.874  26.222 -0.1880 -0.1268 -0.1609
51927W        W70674  32.455  19.964   5.800  0.0211 -0.1600  0.0774
51928W        W70675  29.654  23.321  14.353  0.0216  0.0408  0.0872
51929W        W70676  34.223  17.660  16.424 -0.0060 -0.2215 -0.1554
51930W        W70677  13.267   9.642   2.970 -0.2905  0.0574 -0.1485
51931W        W70678   7.585  21.899  11.897  0.0728 -0.3236  0.1947
51932W        W70679   5.516   3.090   3.034 -0.1800 -0.1142  0.0236
51933W        W70680   7.388   9.223   8.188  0.1164 -0.2889  0.0244
51934W        W70681   2.209  22.643  25.353  0.1467 -0.0580 -0.1240
51935W        W70682  27.223  14.254  16.120  0.1305  0.0556 -0.0222
51936W        W70683  11.488  23.924   3.194  0.1938  0.0261  0.2669
51937W        W70684   6.901   4.622  10.212 -0.1506  0.4014  0.0737
51938W        W70685  23.674  31.654  23.812 -0.0235  0.0331  0.2661
51939W        W70686  12.293  25.512  12.323  0.0762 -0.0604  0.1875
51940W        W70687  13.417  21.171  15.165 -0.1668 -0.0160  0.0352
51941W        W70688  21.357   0.504  16.008  0.3008  0.2945  0.0956
51942W        W70689   8.030  33.980   1.253  0.0956  0.0736 -0.0475
51943W        W70690  16.014  12.250   2.937  0.1514 -0.2812  0.0244
51944W        W70691   2.128  23.973  21.175 -0.0100  0.0294  0.0126
51945W        W70692   0.129  19.220  15.455 -0.0177  0.1230 -0.0536
51946W        W70693   2.416  34.513   9.298 -0.3683 -0.1854  0.1909
51947W        W70694  20.680  33.231   1.384  0.0464  0.1232 -0.1898
51948W        W70695  15.039  19.154  24.501 -0.0222  0.0891 -0.1748
51949W        W70696  10.840   3.059   8.768 -0.1764  0.1882 -0.1905
51950W        W70697  16.773  23.672  10.545  0.0342 -0.3237 -0.1075
51951W        W70698  22.451   1.196   4.082  0.0723  0.1128  0.4055
51952W        W70699  21.048  27.578  19.857 -0.1380 -0.0750 -0.0523
51953W        W70700  14.961   7.502  25.336  0.0566  0.2046  0.2151
51954W        W70701  25.054  25.748   2.430  0.2155 -0.2342 -0.0916
51955W        W70702  19.677   3.306  19.444 -0.1597  0.0180 -0.1445
51956W        W70703  22.084   3.090  16.685  0.1315 -0.0882  0.2724
51957W        W70704  18.811  10.061   4.030  0.0397 -0.0019 -0.1421
51958W        W70705  33.449  20.318  10.635 -0.4547 -0.3277  0.1776
51959W        W70706  10.125  31.661  23.679 -0.0534  0.0417 -0.2572
51960W        W70707  18.902  11.099  22.889 -0.0685 -0.0496 -0.3121
51961W        W70708   6.088  30.447   4.945 -0.0314 -0.2231 -0.0487
51962W        W70709   1.880   0.896   9.989  0.1759  0.1015 -0.1324
51963W        W70710  22.827  19.531  20.158  0.0749 -0.1828 -0.0066
51964W        W70711  21.034  24.909  21.689  0.1232 -0.0295  0.1550
51965W        W70712   0.919  13.095   3.355 -0.2376 -0.0461  0.4642
51966W        W70713  25.239  11.976  14.602 -0.2652 -0.0029  0.0072
51967W        W70714  19.630  33.316   7.750 -0.1655 -0.1386 -0.0973
51968W        W70715  12.599  24.494  16.712 -0.4394 -0.0085  0.1699
51969W        W70716  27.875  20.749  12.542  0.0759  0.0609  0.0389
51970W        W70717   7.816   1.356   8.657  0.0181  0.1934 -0.3582
51971W        W70718  21.242  34.140   2.464  0.0435  0.0705 -0.2415
51972W        W70719  24.590   9.208   2.958 -0.0257 -0.1863  0.0995
51973W        W70720  22.978  24.202  20.681  0.0104 -0.2366 -0.4363
51974W        W70721   6.396  15.112  19.511 -0.2554  0.0960  0.1529
51975W        W70722  16.764  33.364  24.119 -0.1784  0.0985 -0.0802
51976W        W70723  26.003   8.437  19.159  0.0284  0.0611 -0.0131
51977W        W70724  27.414  29.727   1.261 -0.0869 -0.0839  0.1045
51978W        W70725  20.617  31.351  23.729  0.1664 -0.1338 -0.0180
51979W        W70726  29.095   9.711  15.115 -0.0483 -0.1230 -0.1662
51980W        W70727  34.240   3.636   3.528  0.0415 -0.0477 -0.3338
51981W        W70728   7.604   6.295   2.490  0.0474 -0.1551 -0.1611
51982W        W70729  27.849  19.078  15.073  0.0924  0.0573  0.1224
51983W        W70730   6.983  18.689  21.476 -0.2185 -0.2401 -0.1662
51984W        W70731   6.212   8.824   8.294 -0.1413 -0.1149 -0.3733
51985W        W70732  17.512   7.576   9.790  0.0517  0.2258 -0.2467
51986W        W70733  13.998  34.906   9.722 -0.3331  0.1840 -0.3442
51987W        W70734  33.909  19.304  25.007 -0.0291 -0.3233 -0.2230
51988W        W70735  23.763   4.861  12.594  0.2316  0.1272 -0.2377
51989W        W70736  21.312  28.494   6.967 -0.0596 -0.3504  0.0467
51990W        W70737  12.156  22.478   2.194 -0.3075  0.1658 -0.1538
51991W        W70738  10.309  32.911  14.315  0.2194 -0.1520  0.0137
51992W        W70739  11.293  19.002   2.267 -0.3056  0.1431  0.1663
51993W        W70740  24.873   0.979  25.854 -0.0267 -0.0238  0.2458
51994W        W70741   1.306  14.882  17.953  0.1596  0.0835  0.1009
51995W        W70742  31.194   2.073  18.304 -0.4774 -0.3239  0.1775
51996W        W70743   9.698   8.819   8.451  0.1139  0.3451 -0.1364
51997W        W70744  33.235  31.203   7.819  0.2581  0.3058 -0.1672
51998W        W70745  28.433  33.200  24.105 -0.1413  0.1276  0.1510
51999W        W70746  15.056  21.467  21.795 -0.0565 -0.2383  0.1143
52000W        W70747  17.314  28.670  23.384  0.3132  0.0992 -0.0730
52001W        W70748  14.760  25.952   4.993 -0.2193 -0.0549  0.1480
52002W        W70749  10.666  20.944  25.297  0.3615 -0.1379  0.0171
52003W        W70750  32.164  33.742  15.188 -0.0810  0.2678  0.0167
52004W        W70751  14.575  33.268   8.521 -0.0307  0.1207 -0.1967
52005W        W70752  29.744  30.980   0.618  0.1378 -0.1593 -0.1831
52006W        W70753   3.962   2.688  18.381  0.0970 -0.0983 -0.0889
52007W        W70754  17.590  13.456  12.051  0.0803  0.3533  0.2000
52008W        W70755  12.165  29.317   2.818  0.2842  0.1426  0.1968
52009W        W70756  19.041  33.349  24.452 -0.1546  0.2181 -0.1301
52010W        W70757  29.264  26.599   9.248  0.0329 -0.0747  0.0875
52011W        W70758  33.568  34.254   5.745 -0.0821  0.1141 -0.2348
52012W        W70759  20.266   9.290   4.012  0.3251 -0.0344  0.1060
52013W        W70760  14.886   6.456  23.912  0.3388 -0.1525  0.0385
52014W        W70761  10.548   5.784   1.675 -0.0909  0.0679 -0.1992
52015W        W70762  24.521  30.642   0.590  0.2902 -0.0249 -0.1081
52016W        W70763  19.037  19.949  20.792 -0.0489  0.2518  0.0247
52017W        W70764   3.007  23.004  18.262 -0.2629  0.3255  0.0294
52018W        W70765  13.059  27.541  10.226 -0.2407 -0.1054  0.3638
52019W        W70766   3.689  10.828  23.404 -0.2755 -0.2412 -0.3097
52020W        W70767   1.450  32.679  17.759 -0.0210  0.3376 -0.1672
52021W        W70768  28.251  27.106  21.877  0.1042 -0.3110  0.2102
52022W        W70769  14.571  10.805   2.175 -0.1311 -0.0078 -0.3273
52023W        W70770  23.441   3.634  23.205 -0.2484 -0.3465  0.1988
52024W        W70771  11.054   9.404  23.315  0.0309 -0.1936  0.2359
52025W        W70772  32.993  24.690  21.318 -0.1025  0.1075 -0.0156
52026W        W70773  21.007  24.285   1.252 -0.2110  0.3496 -0.0368
52027W        W70774  15.905  33.456   3.785  0.1117 -0.2083 -0.1403
52028W        W70775  29.390  12.521  23.859  0.1183 -0.2880 -0.0941
52029W        W70776  25.864  19.315   0.057  0.0128 -0.2698 -0.2093
52030W        W70777  16.356  12.591  24.051 -0.2496  0.2556  0.0358
52031W        W70778   8.828  21.070  13.911  0.1718 -0.2875  0.1497
52032W        W70779  24.026  32.735  24.586  0.1817  0.3154  0.1265
52033W        W70780  22.827  17.599  15.065 -0.2691  0.1358 -0.2331
52034W        W70781   2.682  17.172   3.759 -0.0763 -0.0322 -0.1636
52035W        W70782   8.958  12.240  22.853  0.2026  0.1846 -0.0403
52036W        W70783  27.141  20.281  23.942 -0.1726  0.1649  0.1686
52037W        W70784  26.062  33.661  16.683 -0.0652 -0.1587  0.0730
52038W        W70785  16.902  10.267  20.453 -0.0617 -0.3825  0.1208
52039W        W70786  26.213  16.943  19.959  0.0588  0.4152 -0.2137
52040W        W70787  15.960   3.174  18.646  0.3597 -0.3498 -0.2745
52041W        W70788   0.399   4.404  22.389  0.1615 -0.0550  0.0444
52042W        W70789   6.637  16.403  18.328  0.2102 -0.1233 -0.2101
52043W        W70790  34.922  19.351   1.551  0.1151 -0.1291 -0.2255
52044W        W70791   8.388  17.025   1.304 -0.1291  0.0602 -0.0153
52045W        W70792  13.693  28.107   3.287 -0.0099  0.0717 -0.0747
52046W        W70793  13.658   6.749   9.550 -0.2945  0.1095 -0.0608
52047W        W70794  16.021   2.499   6.491  0.1050  0.0101 -0.2052
52048W        W70795   0.857  31.505  21.187  0.0325 -0.2796 -0.0594
52049W        W70796  17.906  26.257   5.533 -0.0932  0.0665  0.1689
52050W        W70797  10.258  33.064  13.507 -0.1155 -0.0695 -0.0488
52051W        W70798  23.992  18.086  16.922  0.1077  0.1427 -0.1327
52052W        W70799  28.709   9.706  11.517  0.0883 -0.2471  0.0956
52053W        W70800  16.795  35.106   4.602  0.3677  0.0671 -0.1682
52054W        W70801   5.218  17.340  24.831  0.1331 -0.1812  0.1604
52055W        W70802  16.257   2.984  26.017 -0.2354 -0.3465 -0.1687
52056W        W70803  10.709  14.632  12.675 -0.1280  0.1985  0.0119
52057W        W70804  25.727  13.811   7.763  0.2859  0.0026 -0.1076
52058W        W70805  14.901  20.451  11.798 -0.2657 -0.1238  0.0844
52059W        W70806  22.929   5.520   1.855 -0.0676  0.3217  0.0634
52060W        W70807  17.733  30.172  19.239  0.1243  0.1844 -0.2932
52061W        W70808  31.300   5.883   1.049  0.2446 -0.3093  0.0376
52062W        W70809   9.194  23.637   6.159  0.0816 -0.3159  0.0513
52063W        W70810  18.915  13.920   8.146  0.0308 -0.0917 -0.1204
52064W        W70811   8.615  21.707  24.865  0.2013  0.1396  0.1591
52065W        W70812  12.240  10.318  12.511  0.0146 -0.3387 -0.0444
52066W        W70813   4.146   2.523   4.094 -0.0322 -0.2108  0.0723
52067W        W70814  17.331  17.668  18.753 -0.0120 -0.3104  0.1464
52068W        W70815  33.339  10.320   1.606  0.0604 -0.0839  0.1516
52069W        W70816  30.269   1.635  23.217  0.0769  0.1280  0.3319
52070W        W70817   9.822  20.431   2.758  0.0223 -0.1074 -0.1766
52071W        W70818   6.193   6.848   7.988  0.1243  0.2455 -0.0470
52072W        W70819   2.169   4.920  19.906 -0.0209 -0.0872 -0.0015
52073W        W70820  15.920   7.081  25.428  0.3320 -0.0942 -0.0604
52074W        W70821  34.924  27.604  23.878  0.0479 -0.4776  0.0335
52075W        W70822  19.522   3.480  20.269 -0.2159  0.2627  0.3313
52076W        W70823   7.740  33.614  12.067  0.1174 -0.2645 -0.0110
52077W        W70824  24.620  33.374   3.476  0.0013  0.0443 -0.1622
52078W        W70825  19.332   9.405   5.742 -0.3648 -0.1291 -0.2101
52079W        W70826  34.084  11.463  22.661  0.0661 -0.1619 -0.1641
52080W        W70827  12.675  22.464   3.119  0.0022  0.1520 -0.0651
52081W        W70828  34.997  34.323   5.574 -0.0131 -0.3157 -0.0484
52082W        W70829   6.414  29.717   5.363 -0.1472  0.0685 -0.0494
52083W        W70830  33.073  24.623  11.503  0.1876 -0.1697 -0.0588
52084W        W70831  23.573  19.055   0.035  0.1056 -0.1913 -0.1710
52085W        W70832  27.338   9.003   1.547 -0.1829 -0.3085  0.0518
52086W        W70833  28.532  29.594  20.869 -0.0936  0.0058 -0.0167
52087W        W70834  30.848  18.775   9.677 -0.0238 -0.2977  0.0641
52088W        W70835   8.933  29.928   2.748 -0.1002  0.1828  0.0374
52089W        W70836  26.413  23.453  17.825  0.1784  0.2224  0.1999
52090W        W70837  29.683  10.366   7.287  0.1343 -0.1155 -0.0781
52091W        W70838   5.941   8.205   4.938 -0.7178  0.1088  0.0903
52092W        W70839  20.845  30.691  16.424 -0.2189  0.0538 -0.0269
52093W        W70840  34.326  20.749  11.594 -0.2720 -0.1950  0.0015
52094W        W70841  22.107  23.056   4.676  0.0718  0.0211 -0.2167
52095W        W70842  33.291  29.189  15.519  0.0496 -0.0941 -0.1164
52096W        W70843  23.367  34.792  21.880 -0.1318  0.1505  0.1003
52097W        W70844   3.731   3.048   0.372  0.0782 -0.2384 -0.2155
52098W        W70845  29.329  27.480  16.984  0.3371  0.0345 -0.0467
52099W        W70846   5.803   4.386   4.221  0.0170 -0.3512  0.2771
52100W        W70847   1.708  35.250  21.793 -0.1534 -0.0973  0.1221
52101W        W70848   7.281  32.604  10.696  0.0522 -0.3862 -0.1314
52102W        W70849  18.048  15.415  24.422 -0.3042  0.1098  0.1838
52103W        W70850  27.215  15.194  17.163 -0.4740 -0.3566  0.1581
52104W        W70851   8.404  34.438  21.741 -0.0703 -0.1014  0.0199
52105W        W70852  12.619  18.014  24.189  0.3265  0.0651 -0.1442
52106W        W70853  22.251   5.982  16.808  0.2649  0.2731  0.2092
52107W        W70854  25.283  12.130  13.332  0.0646  0.2908  0.0575
52108W        W70855  18.621   0.445   7.866 -0.0322  0.1911  0.4031
52109W        W70856  19.626  11.075  20.594 -0.1125  0.1438  0.1915
52110W        W70857  31.872   5.887  19.165  0.1763  0.2126  0.2036
52111W        W70858  13.923  21.600   0.499 -0.6643 -0.1871 -0.1808
52112W        W70859  17.152  33.794  25.313  0.0765 -0.4246 -0.0041
52113W        W70860  28.525  32.884  14.763  0.1751 -0.0211 -0.0112
52114W        W70861   4.111  12.639  20.843  0.1217 -0.1240 -0.2718
52115W        W70862   3.602   5.822  23.899  0.1196  0.3144 -0.0523
52116W        W70863   0.122  31.072  16.886  0.0437 -0.0584  0.1570
52117W        W70864   5.759  11.160   4.535  0.1217  0.1663  0.1580
52118W        W70865  15.423  14.789   3.556  0.1838  0.3996  0.0856
52119W        W70866  23.437   0.928   6.765  0.2804 -0.0498 -0.1520
52120W        W70867  12.507   6.425  18.817 -0.0742 -0.0974  0.3089
52121W        W70868   1.588   6.511   4.671  0.1484  0.1686 -0.0622
52122W        W70869  23.978  26.330  10.508 -0.1898 -0.2018 -0.4364
52123W        W70870  10.080  21.531  11.933  0.0118 -0.1328 -0.0115
52124W        W70871   8.711  29.889  23.545 -0.0326 -0.0923  0.0529
52125W        W70872  30.900  20.323   6.905  0.0854  0.2942  0.1356
52126W        W70873  29.835   7.695  23.161  0.1526  0.1621  0.0452
52127W        W70874  21.890  22.997   5.125  0.1155 -0.0355  0.0478
52128W        W70875  34.621   3.217  18.803  0.0645  0.2181 -0.4185
52129W        W70876  30.080   8.339  16.985  0.1333 -0.1704 -0.0195
52130W        W70877   0.571  34.749   3.937 -0.0377 -0.1414  0.0159
52131W        W70878  30.354   7.123  15.583  0.2885 -0.3139 -0.1746
52132W        W70879   7.066   2.072  20.501 -0.1345 -0.2105 -0.1304
52133W        W70880  19.622   7.139  21.870  0.1669 -0.1261  0.2334
52134W        W70881  24.954  18.821  14.185 -0.0172  0.0732 -0.1322
52135W        W70882  14.497  25.947  15.271 -0.0297 -0.1184 -0.0461
52136W        W70883   0.435  20.615   0.418  0.1574 -0.0448  0.0637
52137W        W70884   6.950  23.392   8.677 -0.0258  0.0422 -0.1254
52138W        W70885   4.699   6.745  25.361  0.1167 -0.2066 -0.3560
52139W        W70886  15.590  35.288   3.891  0.3277 -0.1725 -0.4271
52140W        W70887  33.781  22.281  10.228  0.3045 -0.1271  0.0390
52141W        W70888  10.737   4.131  24.036 -0.1404  0.0202 -0.1374
52142W        W70889   5.977  13.535  21.356  0.0930  0.1628  0.0270
52143W        W70890   0.830   2.339  15.664 -0.0456 -0.0101 -0.0275
52144W        W70891   3.363   6.934  21.553 -0.0255  0.0497 -0.0309
52145W        W70892  27.009   4.875  12.041 -0.1240 -0.2695 -0.2616
52146W        W70893  29.591   1.703  12.392 -0.0696 -0.0914  0.0605
52147W        W70894   2.982  22.821   3.378  0.0567 -0.0210  0.1365
52148W        W70895   2.286   2.499   1.292 -0.0225  0.1483  0.0840
52149W        W70896  22.190   5.197  18.143  0.2240 -0.0380  0.0059
52150W        W70897   8.809  28.579  25.697  0.2571 -0.0576 -0.0267
52151W        W70898  23.369  35.094  14.632 -0.1204 -0.1658 -0.0972
52152W        W70899  30.352  12.262  11.896 -0.0005  0.2215  0.1939
52153W        W70900  24.966   9.814  22.296 -0.1321 -0.0176  0.2731
52154W        W70901  13.881  21.555  22.736  0.0408  0.0158 -0.0308
52155W        W70902  27.419  21.263  17.551 -0.0885 -0.2403 -0.2670
52156W        W70903   0.693  10.784  24.051 -0.3459  0.3498 -0.2253
52157W        W70904  23.920   7.263   3.553 -0.0115 -0.3007 -0.2833
52158W        W70905  32.676   3.870   3.079 -0.0315 -0.0638 -0.0263
52159W        W70906  31.206   6.327   1.332 -0.0097 -0.0868 -0.0159
52160W        W70907  25.401  25.096  17.665 -0.2185  0.5511  0.0422
52161W        W70908   1.531   0.333  22.703 -0.0191 -0.4079  0.1377
52162W        W70909   7.613  12.320   3.742 -0.3390  0.1610  0.0016
52163W        W70910   8.157   5.714   9.648  0.3108 -0.0212  0.0567
52164W        W70911  22.818  30.703  14.582  0.3474 -0.5302  0.0661
52165W        W70912   0.186  13.255   0.332 -0.2880  0.1085 -0.1426
52166W        W70913  20.324  12.223   9.073 -0.0965  0.1470  0.0907
52167W        W70914  18.710  20.744  11.346 -0.1970 -0.0323  0.1364
52168W        W70915  16.793  17.566  20.303  0.1342  0.0227  0.0462
52169W        W70916  26.307  29.873  15.200  0.0400  0.1112 -0.2438
52170W        W70917  17.879  19.776  12.235 -0.2525  0.3912  0.2813
52171W        W70918  32.438  10.873   9.111  0.0296  0.4043 -0.0493
52172W        W70919  18.403   3.240  24.367 -0.1418  0.0039  0.0553
52173W        W70920  33.786  12.276   7.433  0.0907  0.0492 -0.4161
52174W        W70921  35.050  12.180  13.746  0.2460 -0.1057  0.1574
52175W        W70922   0.285  21.992   0.135 -0.1345  0.0622 -0.1853
52176W        W70923   0.228   5.095   3.519  0.0005  0.1446 -0.0405
52177W        W70924  26.315   9.809   0.708 -0.0599 -0.0197  0.0880
52178W        W70925   7.561  25.277  21.158  0.0248 -0.0457  0.1763
52179W        W70926  19.573  31.983   3.292  0.1799 -0.1646  0.0256
52180W        W70927  26.721   5.323  25.797  0.2119  0.2331 -0.1594
52181W        W70928   2.190  25.586  17.166  0.0581  0.3106  0.1062
52182W        W70929   8.498  18.253   5.944 -0.0208 -0.0167  0.1235
52183W        W70930   9.047   0.183   3.072  0.2576 -0.1414  0.0127
52184W        W70931  23.184  17.673  12.878 -0.1631  0.2006 -0.1324
52185W        W70932  18.897  20.825   3.223 -0.1999 -0.0125  0.2415
52186W        W70933  23.587  21.823   0.189  0.1702 -0.2069  0.0117
52187W        W70934  30.854  22.435  23.139 -0.2901  0.1878  0.5781
52188W        W70935  15.968  23.689  11.414 -0.3251 -0.2484  0.1235
52189W        W70936  22.889  12.002  22.536 -0.0288  0.2674  0.2187
52190W        W70937  21.061  26.362   3.781 -0.2947 -0.0304  0.0365
52191W        W70938  20.166  33.910  16.594 -0.1943 -0.2587 -0.0611
52192W        W70939  21.597   1.046  14.412  0.1346 -0.2093  0.0556
52193W        W70940  28.328  19.022  22.303  0.0281 -0.0275 -0.0909
52194W        W70941  12.708  22.739   9.175 -0.3561  0.0116 -0.0892
52195W        W70942   2.657   3.026   8.991  0.0669  0.1091 -0.2398
52196W        W70943   3.717   2.461  22.413  0.1849  0.1519  0.3065
52197W        W70944   3.804  32.367  23.425 -0.2209 -0.1831  0.3221
52198W        W70945   4.488  12.689  23.426  0.1048  0.2283 -0.0684
52199W        W70946   5.102  28.841   3.313  0.0077 -0.1029 -0.1481
52200W        W70947  23.690  32.553   5.529  0.5606 -0.0125 -0.2687
52201W        W70948  16.662  21.360   4.597 -0.1978  0.1026  0.2378
52202W        W70949  12.967  13.011   0.947 -0.0178 -0.0334  0.1286
52203W        W70950   8.001  12.582   8.333  0.1999 -0.1080 -0.1717
52204W        W70951  15.268   8.479   1.356  0.1584  0.0602  0.1233
52205W        W70952  23.440   1.028  18.597  0.0330  0.0649 -0.0286
52206W        W70953  10.186   0.358  23.044  0.0386 -0.0295 -0.0125
52207W        W70954   1.434  13.540  24.511  0.2319 -0.2060  0.1973
52208W        W70955   2.426   5.272   0.110  0.3297  0.1188  0.2514
52209W        W70956  17.765  11.367   8.448 -0.1453 -0.3584 -0.2130
52210W        W70957  30.729  16.792  13.130 -0.0468 -0.1394  0.0629
52211W        W70958   9.566  31.089   3.822 -0.0559 -0.0739  0.0593
52212W        W70959  24.917   7.925  25.385 -0.0504  0.1081 -0.0766
52213W        W70960  24.510  19.332  12.779 -0.1572  0.1222 -0.2927
52214W        W70961   2.963  26.414   2.242  0.2510 -0.5342 -0.0314
52215W        W70962  20.552   9.370  17.520 -0.0734 -0.3344 -0.2308
52216W        W70963  27.612  20.750  17.049  0.1557 -0.0152  0.1389
52217W        W70964  34.475  14.429  22.255 -0.1514  0.0006 -0.0316
52218W        W70965  33.391   7.246  19.739  0.1052  0.0940 -0.0568
52219W        W70966  34.955  20.038  23.125 -0.3938  0.0614 -0.2366
52220W        W70967  34.507  21.346   8.660 -0.0337  0.0089 -0.1948
52221W        W70968  17.439   6.945  25.841 -0.1649  0.2325 -0.1306
52222W        W70969   3.095  23.810  21.262  0.3748 -0.0953  0.1793
52223W        W70970   8.553  11.551   5.161 -0.0893  0.0798 -0.2642
52224W        W70971  22.004  32.867  19.117 -0.1826  0.0858  0.1087
52225W        W70972  10.668  29.151   5.926 -0.0185  0.3580  0.1363
52226W        W70973  18.893  15.220  20.161 -0.0191 -0.1401 -0.2569
52227W        W70974   0.169   5.521  18.509  0.1584 -0.2051 -0.0627
52228W        W70975   7.387  23.533   9.509 -0.0630 -0.0604 -0.0641
52229W        W70976   5.691  20.294  18.332 -0.1381 -0.2637  0.3148
52230W        W70977   0.686  35.269  18.398  0.2018  0.2749  0.1276
52231W        W70978   5.028   0.763   5.675  0.0564  0.4417  0.4400
52232W        W70979   5.299   0.142  20.991  0.0035 -0.3033  0.0235
52233W        W70980   2.927   9.476   3.510 -0.1146  0.1850 -0.1961
52234W        W70981  33.890  21.646  15.284 -0.0303 -0.0987 -0.0158
52235W        W70982  27.235  12.681  17.982 -0.3854  0.1321 -0.0305
52236W        W70983  22.462   6.669  18.724 -0.0317  0.0807  0.3581
52237W        W70984  27.298  29.573  10.847  0.1217 -0.3092 -0.2180
52238W        W70985  27.271  31.745  25.542  0.0337 -0.4158  0.2284
52239W        W70986  21.645  31.492   0.667  0.0944  0.0595 -0.2707
52240W        W70987  32.993  29.202  21.146 -0.0027 -0.0002  0.0675
52241W        W70988  15.664  11.028   2.900  0.0266  0.2173  0.0691
52242W        W70989   5.042   2.840   8.399  0.0402 -0.0412 -0.2447
52243W        W70990  28.523  24.093   0.898 -0.3331 -0.1004  0.0050
52244W        W70991   5.837   2.570  10.320  0.0912  0.2823  0.4890
52245W        W70992   5.315   6.706  22.027 -0.1174  0.3051  0.4353
52246W        W70993  13.578   8.264   6.041  0.0760  0.3886  0.0578
52247W        W70994  14.666  31.742   0.927 -0.1239 -0.2046 -0.0838
52248W        W70995   4.520  34.535   6.762  0.0131 -0.1916  0.0043
52249W        W70996   0.263  31.015   6.214  0.1499 -0.1123 -0.2289
52250W        W70997  24.759  26.433  19.407 -0.0110 -0.0572  0.0527
52251W        W70998  34.226  29.829  22.334  0.0612  0.1839  0.1616
52252W        W70999  30.392  21.797   8.021  0.1487 -0.1441 -0.1536
52253W        W71000   1.985  13.273  11.994 -0.2479 -0.1054 -0.4055
52254W        W71001  17.809  25.245  25.665 -0.2869  0.3205 -0.4785
52255W        W71002  27.766  12.714  20.637 -0.1056  0.0029  0.0273
52256W        W71003   3.318  10.146   6.553 -0.1051  0.1172  0.0064
52257W        W71004  20.631  25.739  26.171 -0.3803  0.1086  0.0902
52258W        W71005  10.945  18.457   4.526 -0.0180  0.4186  0.1367
52259W        W71006  27.838  33.562   5.177 -0.1176  0.3113  0.1499
52260W        W71007  14.047   9.832  19.561  0.3632  0.0029 -0.2161
52261W        W71008  28.887  12.828  25.772  0.3850 -0.0102 -0.1009
52262W        W71009  26.227   0.582  24.189 -0.0476 -0.1086 -0.0214
52263W        W71010  32.539  14.614   5.420 -0.2241 -0.2063 -0.0771
52264W        W71011  30.222  11.913   9.424  0.0481  0.0619  0.2317
52265W        W71012  14.107  31.123  14.140  0.0932 -0.1547  0.0654
52266W        W71013  12.440  22.913  10.035 -0.1154  0.0223 -0.2179
52267W        W71014   7.174  27.456   7.535 -0.1871 -0.1646 -0.2261
52268W        W71015   8.784  28.791  23.643  0.0060 -0.0506  0.3353
52269W        W71016   0.655   0.437   4.438 -0.3426 -0.0874  0.0743
52270W        W71017   1.832  22.730  17.135 -0.0010 -0.1198 -0.1836
52271W        W71018  31.763  26.325  13.489 -0.2995 -0.2050 -0.0334
52272W        W71019  10.449  12.892   0.469  0.1008  0.2525 -0.1878
52273W        W71020   0.314  23.051  10.057 -0.0293 -0.0231 -0.0808
52274W        W71021  23.287  23.149  23.862  0.0716 -0.1197  0.0227
52275W        W71022   9.194  29.171   6.884  0.0735 -0.0927 -0.0460
52276W        W71023   6.732  13.757   4.443  0.2025 -0.1079 -0.2667
52277W        W71024  30.842   6.364  22.760  0.1173 -0.0105 -0.1899
52278W        W71025   9.933  25.195  14.291 -0.2373  0.1033  0.0049
52279W        W71026  29.563  13.355  12.662  0.0955  0.2781 -0.1983
52280W        W71027  13.454   8.885  23.902 -0.2696 -0.1144  0.2366
52281W        W71028   1.138   2.071  25.622  0.2551 -0.2051  0.1397
52282W        W71029   1.907  11.713  25.762  0.0693  0.1862 -0.0333
52283W        W71030   5.956  29.064   8.306 -0.3374  0.0102  0.0746
52284W        W71031  13.493   5.714  22.351  0.0569  0.1045  0.0126
52285W        W71032  18.940   4.660  19.811  0.0430 -0.1698 -0.0346
52286W        W71033  12.319   7.007   8.276  0.1251 -0.0980 -0.0261
52287W        W71034  33.930  20.458   8.905 -0.3238 -0.0020 -0.1967
52288W        W71035  25.623  11.242  17.588  0.2822  0.4105 -0.0680
52289W        W71036  27.816  10.243  25.573 -0.2028  0.2508 -0.0711
52290W        W71037   8.062   5.355   1.883  0.0304  0.1006  0.3569
52291W        W71038   6.633  22.052   3.878  0.0008  0.2521  0.1895
52292W        W71039  35.177   7.900  23.464  0.0032 -0.2184 -0.3078
52293W        W71040   9.402  15.536  22.964 -0.0357  0.2226  0.1451
52294W        W71041  35.152   3.408  19.931  0.4083  0.0747 -0.0274
52295W        W71042  25.162  33.577  13.971 -0.0412  0.0306  0.1779
52296W        W71043  34.493   2.725  19.031  0.0232 -0.2530 -0.1152
52297W        W71044  11.676  15.902   2.143 -0.0541 -0.4175 -0.0061
52298W        W71045   5.373  27.667   0.183 -0.1461 -0.0657  0.0879
52299W        W71046  34.176   7.503  21.940 -0.3040  0.0252  0.0802
52300W        W71047   5.194  29.480  14.588  0.0221  0.0019  0.1091
52301W        W71048  21.513  24.289  23.192  0.3213 -0.0654  0.2292
52302W        W71049  33.428   8.911  21.256 -0.2229  0.2094  0.1853
52303W        W71050  18.103  30.808  24.840 -0.3029  0.2913 -0.1208
52304W        W71051  20.627  18.739   4.012  0.2361  0.2405 -0.0047
52305W        W71052  12.935  24.373   4.640  0.4100  0.1671  0.1302
52306W        W71053  34.580   8.439   2.726 -0.3694 -0.1225  0.1200
52307W        W71054  19.380  17.736   8.841  0.2249 -0.0224  0.2029
52308W        W71055  29.632  31.678   1.914 -0.1811  0.1101 -0.0508
52309W        W71056  30.649  21.086  16.705 -0.0900  0.2589 -0.0604
52310W        W71057  29.471  15.056  15.424  0.3077 -0.0682  0.3030
52311W        W71058   3.311  23.531   2.829 -0.0914 -0.3755  0.5091
52312W        W71059  15.193  10.823   0.077  0.0859  0.0235 -0.2789
52313W        W71060   5.065  22.435   0.695 -0.1124 -0.1193 -0.1287
52314W        W71061  18.292   5.506   0.004  0.0696  0.1985  0.0342
52315W        W71062  11.484  32.430   3.797 -0.1848 -0.0825 -0.2635
52316W        W71063  28.882   6.800   0.099  0.0974 -0.2619 -0.0489
52317W        W71064  20.185  24.654   5.242 -0.0378  0.0037 -0.2596
52318W        W71065  14.482   6.989  10.039 -0.0426  0.1299  0.2495
52319W        W71066  10.696  24.997  17.003  0.2816  0.1875 -0.0384
52320W        W71067  25.277   6.564  23.421 -0.4664  0.1677 -0.0522
52321W        W71068  35.325  26.847  24.688 -0.0979 -0.1614  0.1458
52322W        W71069  32.952   9.050  25.169  0.2927  0.0660  0.2979
52323W        W71070  14.821   6.079  25.787  0.1188  0.0653  0.2951
52324W        W71071  26.907  23.903  11.279  0.1550 -0.2412  0.4386
52325W        W71072  19.706  25.653  20.327  0.0832 -0.0756  0.2672
52326W        W71073   2.449  29.899  24.063 -0.2599  0.0235 -0.3377
52327W        W71074  13.007  18.121   1.040 -0.1894  0.1132 -0.1049
52328W        W71075  35.082  22.088  17.793  0.0894 -0.0274 -0.0119
52329W        W71076  28.133  12.650  17.324  0.0710  0.0277 -0.0524
52330W        W71077  20.735  11.942   7.044  0.0244 -0.0701  0.0548
52331W        W71078  27.745  27.360  20.297 -0.1879  0.0320 -0.2941
52332W        W71079   8.391   7.359  19.714  0.2706 -0.2713 -0.0370
52333W        W71080  18.683   7.038   3.087 -0.0584  0.0076 -0.0487
52334W        W71081  27.082   6.723  10.990 -0.0752 -0.1113 -0.0064
52335W        W71082  34.423  19.577  12.836 -0.1138 -0.0345  0.1858
52336W        W71083  29.381  20.148  24.653 -0.0153  0.2506 -0.2387
52337W        W71084  33.874   5.648  11.587  0.3943 -0.3904 -0.0758
52338W        W71085  20.258  24.043  20.088 -0.1893  0.0792  0.2362
52339W        W71086  21.921  28.486   4.760 -0.0922 -0.2201  0.2974
52340W        W71087  17.622   8.181   6.093 -0.2055 -0.2652 -0.0103
52341W        W71088  16.690   7.516   5.049  0.3043 -0.1272 -0.2241
52342W        W71089  23.285  33.478   1.911  0.3204 -0.1919  0.0345
52343W        W71090   3.253   8.292  18.056  0.0138 -0.1800 -0.2424
52344W        W71091  18.642  29.720  22.487  0.0651 -0.0767 -0.0011
52345W        W71092  21.505   9.267   5.597  0.0925 -0.1588  0.3434
52346W        W71093  31.129  13.443   0.112  0.2364 -0.1083  0.1581
52347W        W71094  27.041  12.620   8.180  0.0822  0.0454  0.2892
52348W        W71095  13.861   2.572   5.471  0.2986 -0.0278 -0.1453
52349W        W71096  34.077  27.448  20.675  0.2572  0.0371  0.0902
52350W        W71097  32.686  10.123  17.694 -0.1292  0.0000 -0.4561
52351W        W71098   5.427  14.102   8.473  0.0109 -0.1843 -0.5513
52352W        W71099  29.747  20.684   8.526 -0.0216  0.2156 -0.1269
52353W        W71100  32.851  24.698  25.349 -0.0966  0.0862  0.2166
52354W        W71101  26.258  10.569  24.178 -0.2181  0.1129 -0.2204
52355W        W71102  17.466  29.125   9.588 -0.1000 -0.1397  0.2241
52356W        W71103   9.773   5.714   1.148 -0.4108  0.0301 -0.1962
52357W        W71104  33.579  18.289  23.399 -0.3179  0.1839  0.0622
52358W        W71105  23.264  11.960  24.922 -0.1184  0.0189  0.0480
52359W        W71106   3.886  15.632  21.306 -0.2886  0.0268 -0.2651
52360W        W71107  21.204  23.929  20.154  0.4067  0.0172 -0.2037
52361W        W71108   7.308   8.582  21.599 -0.2546  0.0703 -0.2451
52362W        W71109  20.977   2.961   0.308  0.0780  0.3795 -0.1541
52363W        W71110  10.697  10.574  24.479 -0.0688 -0.2594  0.3235
52364W        W71111  19.855   2.926  25.465 -0.3916 -0.0320  0.0067
52365W        W71112  23.399  14.729  14.235  0.1189 -0.0597 -0.0918
52366W        W71113  11.087  14.420   3.303  0.1346 -0.0496  0.1258
52367W        W71114  16.975   8.136   2.684 -0.3418 -0.1569 -0.1264
52368W        W71115  30.158  19.892  23.430  0.1482  0.0051 -0.0800
52369W        W71116  26.139  29.570  18.927 -0.0267  0.1640  0.1099
52370W        W71117   2.631  12.302   2.667 -0.0671  0.2283  0.1960
52371W        W71118  20.980  31.517  20.050 -0.0976  0.0513  0.1037
52372W        W71119   6.314  27.369  20.635  0.0739 -0.0662  0.1708
52373W        W71120  21.953  27.748  14.492 -0.0607  0.2773  0.4309
52374W        W71121   0.601  15.492  15.527  0.0781 -0.1644  0.0136
52375W        W71122  33.303  13.103  18.183  0.0614  0.1252  0.0050
52376W        W71123  33.362  18.507  15.587 -0.2697  0.1910  0.3588
52377W        W71124  17.493  10.637  12.179  0.1172  0.1912  0.1337
52378W        W71125  31.058  11.672   8.265 -0.1121  0.2912 -0.0642
52379W        W71126  34.035   7.620  21.329  0.0052 -0.0098  0.2115
52380W        W71127  12.311  33.017   3.010  0.3230 -0.1498  0.2530
52381W        W71128  22.364  14.977  17.220  0.1755  0.3617  0.0009
52382W        W71129  14.151  17.522   9.982 -0.2460  0.0827  0.0713
52383W        W71130  31.961   6.005  12.056 -0.2521 -0.0245 -0.1673
52384W        W71131  21.604   3.430  22.655  0.1311  0.1309 -0.3821
52385W        W71132  18.539  14.581   8.943 -0.0749  0.0524 -0.4373
52386W        W71133  11.870   1.844  25.901 -0.1354  0.1063 -0.1982
52387W        W71134  29.638   4.318  18.885  0.1738  0.3669 -0.4396
52388W        W71135  10.465  11.889   7.224  0.0280 -0.0462  0.0606
52389W        W71136  27.079   0.304  25.915 -0.4017 -0.2440  0.0866
52390W        W71137  27.884  13.616  11.203  0.1601  0.1153  0.3051
52391W        W71138  24.895  19.476  24.254 -0.0478 -0.3300  0.2199
52392W        W71139  21.050   2.763   5.931 -0.1092 -0.0491  0.0919
52393W        W71140  33.920   3.448  17.913  0.0372 -0.1599  0.2465
52394W        W71141   9.636   3.986  20.451  0.0902  0.0738  0.0074
52395W        W71142  24.685  23.128  16.271 -0.0667  0.1386  0.1260
52396W        W71143   9.844  30.030  10.535  0.5974 -0.0593 -0.2480
52397W        W71144  23.164  11.784  26.215  0.1203 -0.1446 -0.1531
52398W        W71145  22.430  19.433  17.040  0.1744  0.2071  0.1118
52399W        W71146  35.184  29.916   3.027 -0.0437  0.0925  0.2175
52400W        W71147  26.879   7.036  19.560  0.2605  0.0324  0.0751
52401W        W71148  10.109  19.739  23.636  0.1610 -0.3410 -0.5869
52402W        W71149  29.634  33.652   1.618  0.4101 -0.0160  0.0480
52403W        W71150  25.670  30.239  18.865  0.0242  0.0696 -0.2187
52404W        W71151   1.530  25.413  19.264 -0.0087 -0.1096 -0.2781
52405W        W71152   4.898  32.274  13.438 -0.0421 -0.0502  0.0522
52406W        W71153  26.175   4.933   3.370  0.0359  0.0465 -0.1109
52407W        W71154   3.705   4.317  18.383 -0.1296 -0.0797  0.2195
52408W        W71155   4.172  30.865   9.197  0.0895  0.0472  0.1317
52409W        W71156  24.466  27.837  10.680 -0.0276  0.0384 -0.0413
52410W        W71157   7.735   9.581  23.844  0.0455 -0.0542  0.1291
52411W        W71158  31.215  18.957  18.534  0.0903 -0.2507 -0.0614
52412W        W71159  11.986  21.125   9.201 -0.0394  0.0130 -0.0440
52413W        W71160  24.795  13.794  12.273  0.1666 -0.2044 -0.0738
52414W        W71161  10.184   6.553   8.037 -0.1351 -0.1081  0.1419
52415W        W71162   8.830  28.861   0.764  0.2610  0.2706  0.1084
52416W        W71163  35.189  10.697  17.399  0.0369  0.3070 -0.0194
52417W        W71164  10.353  27.305  15.180  0.2271  0.0174  0.0533
52418W        W71165  22.423   7.338   2.089 -0.1934 -0.0091 -0.1514
52419W        W71166   7.450   0.523   2.807 -0.2257 -0.0094 -0.1050
52420W        W71167   6.664  19.851   9.427 -0.0209 -0.0253  0.1338
52421W        W71168   7.156  35.384  19.313  0.1808 -0.0052 -0.0979
52422W        W71169   3.498  20.882  26.040 -0.1649  0.1983 -0.1936
52423W        W71170  19.697  15.530  16.159  0.0126 -0.1695  0.1827
52424W        W71171   5.396  34.701   3.922  0.0940 -0.1987  0.0058
52425W        W71172  22.385  24.495  20.239 -0.0726 -0.1778  0.0776
52426W        W71173  25.747  33.794  14.202 -0.1403  0.2915 -0.1821
52427W        W71174   8.336   9.278   2.604  0.2655 -0.0446  0.3432
52428W        W71175  33.947   8.044  25.661 -0.1098  0.0277  0.0277
52429W        W71176   1.696  15.830  24.400 -0.1714 -0.3297 -0.0673
52430W        W71177  34.230  12.355  10.244  0.0356  0.1609  0.1316
52431W        W71178   1.041  15.242  23.378  0.0710 -0.1116 -0.2869
52432W        W71179  32.282  24.905  22.873 -0.0765 -0.3494 -0.1348
52433W        W71180  18.705   6.937  12.260  0.0438  0.3847  0.1917
52434W        W71181  27.052  33.114   3.285  0.0894  0.0695  0.2856
52435W        W71182  29.395  23.755  16.445  0.1241 -0.0324 -0.3994
52436W        W71183   1.690  14.687  15.048  0.1435  0.2039  0.1630
52437W        W71184   3.711   1.588   8.398 -0.1592 -0.0266 -0.1805
52438W        W71185   1.173  27.863   4.633 -0.0288  0.2081  0.3686
52439W        W71186  26.263   4.058   2.803  0.2532  0.2498  0.0166
52440W        W71187  19.957  20.528  25.195  0.0761  0.2037 -0.1188
52441W        W71188  35.002  30.909   8.071  0.1194 -0.0824  0.1115
52442W        W71189  13.679  26.277  24.696 -0.0690  0.0640  0.0477
52443W        W71190  27.796  34.976  17.690  0.2202  0.0045 -0.2379
52444W        W71191  16.741  24.431   8.001 -0.0426 -0.0284  0.1716
52445W        W71192   5.534  27.791  14.005  0.1866 -0.0918  0.1059
52446W        W71193  34.098  28.327   2.110  0.0159  0.2850  0.2116
52447W        W71194  29.045  16.917   6.618 -0.1360  0.0331  0.3987
52448W        W71195   9.791  23.335  15.382  0.2501 -0.2079 -0.2745
52449W        W71196  14.278  25.250  24.491 -0.0263 -0.1506 -0.0801
52450W        W71197  22.048  25.897   0.124 -0.0752  0.0139  0.2634
52451W        W71198   9.202  20.554   0.446  0.1545  0.1483 -0.0515
52452W        W71199   3.936  23.067   1.981 -0.3226 -0.0867 -0.3313
52453W        W71200  16.822  35.295  23.588  0.1394  0.0442  0.0703
52454W        W71201   7.580  28.492   5.997 -0.0344  0.0815 -0.2418
52455W        W71202  25.822  24.027  18.415  0.1276 -0.0519  0.0611
52456W        W71203  34.224  29.292  23.459 -0.0099  0.0458  0.1379
52457W        W71204  32.484  30.899  14.365  0.1744  0.0483  0.0591
52458W        W71205  12.594   9.282   6.987  0.2080  0.2831  0.0954
52459W        W71206  17.271  12.535  21.673  0.0688 -0.3547 -0.0561
52460W        W71207  34.320  21.593  15.024  0.1378 -0.1104 -0.0300
52461W        W71208  11.884  33.618  21.760  0.0327 -0.0056  0.0779
52462W        W71209  21.870  24.035  21.140 -0.3639 -0.1375 -0.1599
52463W        W71210  14.668   1.061  20.018 -0.0415 -0.0786 -0.1175
52464W        W71211  12.112  27.359  10.059  0.0896  0.1079  0.2638
52465W        W71212  21.551  32.776  24.322 -0.1576 -0.0120  0.0138
52466W        W71213   3.299   7.262  17.335 -0.1320 -0.1856  0.0406
52467W        W71214   5.314  27.770  11.242  0.1135  0.1407  0.1897
52468W        W71215   5.053  23.929   4.333 -0.0570 -0.1994  0.0103
52469W        W71216  28.119  13.271   8.641 -0.0152  0.3917 -0.0572
52470W        W71217  27.944  24.051  13.937 -0.0495  0.0902 -0.0460
52471W        W71218  29.221  26.545  15.637 -0.0773 -0.0626 -0.0383
52472W        W71219  23.496  23.428  25.053 -0.0847  0.3763 -0.0497
52473W        W71220  34.690  34.926   1.747 -0.1676  0.0372 -0.1362
52474W        W71221  31.941  19.533  15.805  0.1236  0.1145  0.0167
52475W        W71222   2.502   4.734   1.340 -0.2535 -0.3816 -0.0085
52476W        W71223  27.649   0.080  25.194  0.0310 -0.0105  0.2532
52477W        W71224  17.968   9.207  24.982 -0.1141  0.0625  0.3356
52478W        W71225   7.937  23.483   9.147 -0.0579  0.1393  0.1761
52479W        W71226  27.407   1.392   4.391  0.3593  0.1783 -0.2649
52480W        W71227  13.055  34.908   8.355 -0.2597  0.1773 -0.1193
52481W        W71228  17.015  20.266  11.640  0.4372  0.1253 -0.1439
52482W        W71229  28.675   1.386  15.865  0.0175  0.2205 -0.1287
52483W        W71230   8.612   3.206   7.970 -0.0522 -0.0536 -0.0285
52484W        W71231   2.804   4.381  21.830 -0.0469  0.0856  0.1034
52485W        W71232  20.354  11.999  22.540  0.1304  0.0781  0.0461
52486W        W71233  26.528  10.515  23.754  0.0677 -0.0431 -0.1352
52487W        W71234  11.702  20.100  25.641  0.1373 -0.0310  0.1220
52488W        W71235  23.130  18.417   1.929  0.0807 -0.0929  0.4193
52489W        W71236  25.822  19.279  11.605 -0.1606 -0.0305 -0.1522
52490W        W71237  31.326  22.367  23.356  0.1359 -0.0558 -0.1464
52491W        W71238   4.370  28.988   9.059  0.1627  0.0128 -0.0456
52492W        W71239  27.089  32.876  13.609  0.0175  0.2007 -0.3024
52493W        W71240   7.061  16.120   7.359 -0.2323 -0.0036 -0.2836
52494W        W71241   7.722  10.922   1.426  0.1005  0.0927 -0.0101
52495W        W71242  14.507  32.901   2.755 -0.2095  0.2250  0.1589
52496W        W71243  24.066  22.950  18.085 -0.1329 -0.1929 -0.0902
52497W        W71244   5.113  26.704  10.719  0.0990 -0.0023  0.1310
52498W        W71245   1.321  32.233  22.108  0.1339  0.1107 -0.0023
52499W        W71246  25.912  14.606  20.770  0.2653 -0.0546 -0.2871
52500W        W71247   6.610  34.332  21.234 -0.2288  0.0977 -0.1221
52501W        W71248  10.488   8.191   3.670 -0.1387  0.1387 -0.0829
52502W        W71249  21.932  11.908  14.383 -0.0201  0.0679  0.1014
52503W        W71250  31.887  18.186  11.179 -0.2801  0.1758  0.0488
52504W        W71251   9.533  22.496   1.077 -0.2627 -0.3595  0.0520
52505W        W71252   7.041  12.388   5.067 -0.3036  0.1246  0.2824
52506W        W71253  10.625  21.642   0.837  0.0400  0.1983 -0.0093
52507W        W71254  17.708   7.077  21.864  0.0653 -0.0237  0.0269
52508W        W71255  23.021  29.227   3.003  0.1355  0.2382  0.1655
52509W        W71256  34.317   2.787   6.603 -0.0208  0.1138  0.2935
52510W        W71257   1.447  14.142  20.608 -0.0747  0.0468 -0.2629
52511W        W71258   4.357   3.279  21.483 -0.0983  0.0868 -0.0924
52512W        W71259   1.587  27.638  25.448  0.2023  0.1687 -0.4852
52513W        W71260  31.594  25.026  20.479 -0.0402 -0.2250  0.0811
52514W        W71261  17.637   0.597   4.603  0.1587 -0.0172  0.2046
52515W        W71262   6.249   5.752  11.657 -0.2296 -0.1190  0.1117
52516W        W71263   9.712  12.880  22.999 -0.1508  0.3890  0.1684
52517W        W71264  34.238  19.733  25.076 -0.4141 -0.0035 -0.1349
52518W        W71265  12.968  33.159  25.482 -0.0963  0.0192  0.0879
52519W        W71266  26.412  33.092  19.370  0.0792  0.0925  0.0055
52520W        W71267  30.925  27.975   3.088  0.3812 -0.1304  0.2511
52521W        W71268   7.032  23.739  11.677 -0.0127 -0.1176 -0.0698
52522W        W71269   6.778  15.975  25.211  0.3347 -0.0949 -0.0762
52523W        W71270  13.142  32.557  21.483  0.0421  0.1399 -0.1287
52524W        W71271  17.719  16.164   4.038  0.1742 -0.1205 -0.0440
52525W        W71272  10.044  32.130   8.683  0.0341 -0.2101  0.3179
52526W        W71273   3.107  31.480   9.870 -0.2655  0.0232 -0.0261
52527W        W71274   5.034   0.412  22.330  0.0509 -0.1390 -0.2128
52528W        W71275  13.434  17.683  12.971 -0.2202  0.1935  0.1171
52529W        W71276  13.026   8.036  25.070  0.0994  0.1710  0.3122
52530W        W71277  29.392  10.523  21.764 -0.1770 -0.0054 -0.1649
52531W        W71278   1.741  20.481   2.681  0.1902 -0.3204 -0.2119
52532W        W71279  31.084  25.056  16.843  0.1156 -0.1784 -0.0423
52533W        W71280  12.707   4.470  26.067 -0.0399 -0.1687 -0.3144
52534W        W71281  25.420  26.545   1.979  0.3080 -0.1032 -0.1568
52535W        W71282  28.549   3.997  18.930  0.0241 -0.0822  0.3157
52536W        W71283   8.222  31.700  15.691  0.2158  0.1101 -0.0999
52537W        W71284  24.448  16.459  15.525 -0.0313  0.3731  0.1734
52538W        W71285  28.768   2.778  11.636  0.1636 -0.3435  0.1432
52539W        W71286  13.938  34.564  20.864 -0.0282 -0.0301  0.1451
52540W        W71287  15.694  23.731   3.568 -0.0999  0.2641  0.1406
52541W        W71288  30.118  30.532  19.705  0.1612  0.0193 -0.0121
52542W        W71289  15.991  33.891  18.696 -0.0869 -0.0371 -0.1944
52543W        W71290  18.316   2.680   9.409 -0.2951 -0.1100  0.2283
52544W        W71291  24.928   4.691  17.834  0.0746 -0.2568  0.0122
52545W        W71292  16.847  21.179   4.112  0.2580  0.3190  0.0451
52546W        W71293   7.664  14.429   1.395 -0.1473 -0.0076 -0.3886
52547W        W71294  26.353  17.066  21.472  0.0803 -0.1606 -0.2627
52548W        W71295   3.038   9.173  20.226 -0.0696 -0.0802 -0.0696
52549W        W71296   7.044  13.742  25.984 -0.1907  0.2976  0.1680
52550W        W71297  17.633   9.723   8.462 -0.0415  0.0999 -0.1719
52551W        W71298  13.154  15.087   7.396  0.0332 -0.0963  0.3791
52552W        W71299  26.777   3.818  22.333 -0.2338  0.0767 -0.1973
52553W        W71300  18.522  28.867  21.043 -0.3185 -0.0955  0.2791
52554W        W71301   2.139  33.614  20.732  0.0877  0.1641  0.3398
52555W        W71302  17.111   2.433   9.264  0.2513 -0.0062 -0.2108
52556W        W71303  22.362  29.788  16.547  0.1077 -0.2641  0.5305
52557W        W71304  23.690  13.150  22.405  0.2873  0.0809 -0.2044
52558W        W71305  24.113   7.257   3.082 -0.2819 -0.0197  0.1653
52559W        W71306  16.661  19.372   8.993 -0.2659  0.4695  0.1158
52560W        W71307  30.779  23.321   6.328  0.1032  0.1923 -0.2146
52561W        W71308   2.530  19.290  18.497 -0.1744 -0.3188  0.1411
52562W        W71309   1.335   5.638   1.003  0.2863  0.1503  0.0465
52563W        W71310   0.076  14.392  19.853 -0.2665  0.1367 -0.3665
52564W        W71311  17.868   8.070  23.423  0.0353  0.2037  0.0307
52565W        W71312   8.772  14.919   3.030 -0.0594  0.1188 -0.1355
52566W        W71313  24.064   0.384  14.695  0.1639  0.1510  0.0938
52567W        W71314  24.292  21.348  17.782  0.0082  0.0987 -0.0364
52568W        W71315  24.434  25.593  19.447 -0.0837 -0.1323  0.1565
52569W        W71316  25.140  27.207  20.481  0.2450 -0.1188 -0.0402
52570W        W71317  14.936  10.257   1.352 -0.1457 -0.2737 -0.1417
52571W        W71318  26.775  14.413  17.000 -0.1927  0.0484 -0.1901
52572W        W71319  24.019  17.959   0.213 -0.0278 -0.1959 -0.1145
52573W        W71320  17.969  18.450   1.772  0.1313  0.0354 -0.0024
52574W        W71321  32.603  13.767   6.402 -0.0051  0.3317  0.0273
52575W        W71322  33.468  25.338  15.021  0.1400 -0.1522  0.0107
52576W        W71323  12.241   5.080  21.856 -0.1274 -0.0416  0.0015
52577W        W71324  13.476   5.693   4.166  0.0093 -0.1104  0.1073
52578W        W71325  20.071  25.918  25.428  0.2040  0.1485 -0.0879
52579W        W71326  29.307  32.853  16.078 -0.0386  0.3268 -0.1011
52580W        W71327   6.646   0.252   8.472  0.0527  0.4005 -0.1908
52581W        W71328  10.249   2.023   3.888 -0.2376 -0.3631  0.0571
52582W        W71329  12.168  30.720  25.500 -0.0355 -0.3708 -0.0814
52583W        W71330   6.686  25.412   1.182  0.1560 -0.2060 -0.3015
52584W        W71331  22.211  31.040  20.916 -0.2660 -0.1357  0.0238
52585W        W71332   7.199  32.080  21.893 -0.2079 -0.0209  0.0354
52586W        W71333   3.635   2.819   5.458  0.1217  0.2201 -0.0559
52587W        W71334  25.731   9.011  23.909 -0.0382 -0.0194  0.1648
52588W        W71335   6.707   1.967  25.782  0.0368  0.2788  0.2692
52589W        W71336  20.948   2.870   1.341 -0.0399  0.0780  0.1785
52590W        W71337   0.672   8.242  16.518  0.1604 -0.2382 -0.0983
52591W        W71338  26.095   4.945  13.126  0.1392  0.1163  0.0961
52592W        W71339   7.530  28.436  16.125 -0.0118  0.0406  0.3477
52593W        W71340  10.448  16.236   7.622  0.1626 -0.1306 -0.1067
52594W        W71341  30.002   2.398  19.100  0.0521  0.1046  0.1230
52595W        W71342  25.379  31.259  22.380  0.0954  0.1372  0.0948
52596W        W71343   6.612  20.140   4.437  0.0854  0.1074 -0.0911
52597W        W71344  29.228  28.815  13.850 -0.1664 -0.1392 -0.1865
52598W        W71345  25.291  16.155  19.242  0.3368 -0.0643  0.1046
52599W        W71346  32.596  12.156  20.403 -0.2025  0.0157 -0.0158
52600W        W71347   4.996  15.275  16.641  0.3708  0.1496 -0.2316
52601W        W71348  16.276  13.578   1.764 -0.0564 -0.0441  0.0558
52602W        W71349  31.977   1.016   2.800 -0.0443  0.0243 -0.3326
52603W        W71350  30.582  16.747  18.865 -0.2185  0.0121  0.2345
52604W        W71351  17.540  18.828   1.319  0.1921 -0.2696 -0.1791
52605W        W71352  24.181  11.736  12.646 -0.2459 -0.3038 -0.0040
52606W        W71353  16.802  25.879   3.650  0.2455 -0.1329 -0.0488
52607W        W71354  28.379  23.295  18.503 -0.0407  0.1480  0.0096
52608W        W71355  17.722  10.202  12.378 -0.2026  0.2329 -0.2671
52609W        W71356  20.814  26.812   0.022  0.0685 -0.3369 -0.2232
52610W        W71357  30.376   6.620  22.567 -0.3733 -0.2434 -0.0953
52611W        W71358   7.280  19.768  10.579 -0.2245 -0.1377 -0.2359
52612W        W71359  10.517   2.469   5.575  0.0852 -0.1869  0.1493
52613W        W71360   0.032  31.713  26.142  0.2246  0.2660  0.1297
52614W        W71361  14.043  26.950  14.406  0.0101 -0.1067  0.3721
52615W        W71362  34.721  12.605   9.797 -0.0116  0.0408 -0.1906
52616W        W71363  17.108  20.000  22.674  0.0842  0.0997 -0.0606
52617W        W71364   5.827  28.778  10.909 -0.0802  0.0551  0.0462
52618W        W71365   8.516  17.282  24.385 -0.1113 -0.0208  0.1778
52619W        W71366  10.825  10.585   2.334 -0.0831  0.0017  0.2405
52620W        W71367  22.100  28.096   2.343 -0.0797 -0.0471  0.0560
52621W        W71368  32.687  31.537   1.704  0.1890  0.0120  0.3492
52622W        W71369  13.393   5.590   2.876 -0.0969 -0.0910  0.1670
52623W        W71370  11.109  20.305  16.279  0.1025 -0.3511 -0.2308
52624W        W71371   1.866  22.376  22.851  0.2103  0.0118  0.0052
52625W        W71372  12.718   9.005  20.701 -0.1407  0.0932  0.1507
52626W        W71373  22.145  10.526  15.821 -0.2902 -0.2152 -0.2563
52627W        W71374   7.497  17.281  23.313 -0.2216  0.2239  0.1795
52628W        W71375  33.275  26.556  17.271 -0.1995  0.0620 -0.1559
52629W        W71376  14.847  26.164   2.922  0.0842  0.0310  0.0811
52630W        W71377  17.288  34.358  16.678  0.0211 -0.5662 -0.0615
52631W        W71378  10.001  20.736  24.494  0.1427 -0.2886 -0.1031
52632W        W71379  31.885  15.503   9.531 -0.1221  0.1539 -0.2604
52633W        W71380   1.872  32.850  24.406 -0.1889 -0.0999  0.1277
52634W        W71381  24.544  33.345  25.711  0.0023  0.0803  0.2280
52635W        W71382   6.436  28.307  21.409 -0.0791 -0.3074 -0.2240
52636W        W71383  34.720  33.152   1.300  0.2272 -0.0244  0.0187
52637W        W71384   0.904   5.374  20.431 -0.0376 -0.2405  0.2517
52638W        W71385  11.451  23.722   7.773  0.2363 -0.0753  0.1541
52639W        W71386  15.464   7.337  10.655 -0.0437  0.2387  0.1193
52640W        W71387   7.415  29.332   2.810  0.2001  0.0782  0.0205
52641W        W71388   9.753  17.053  24.956  0.1119 -0.4274 -0.2967
52642W        W71389  29.845   3.397   4.924 -0.0583  0.2660 -0.0383
52643W        W71390   7.259  31.244   3.468  0.1384 -0.2409  0.2078
52644W        W71391   8.985  28.439   8.655 -0.1614 -0.2658  0.1227
52645W        W71392  32.086  16.257  11.849  0.1465 -0.2645 -0.0798
52646W        W71393  19.255   2.789  18.845  0.2382 -0.0593 -0.1834
52647W        W71394  16.917   5.924   2.251 -0.2235 -0.0180 -0.1025
52648W        W71395  12.745  11.845   1.749  0.1348  0.0373 -0.0907
52649W        W71396  12.792  22.600  10.426 -0.0958 -0.1046 -0.0037
52650W        W71397  14.478   8.433   3.449  0.1272 -0.4361  0.2909
52651W        W71398   0.339   6.115   4.379  0.0926 -0.0421 -0.0359
52652W        W71399  12.644  31.122   4.414 -0.0640  0.0733 -0.0139
52653W        W71400   4.213  32.626   1.289 -0.3164  0.0869 -0.0423
52654W        W71401   9.904  16.834   5.039  0.0597 -0.1770  0.1152
52655W        W71402  15.313   0.109   8.515  0.1788 -0.0141  0.1243
52656W        W71403  17.512  11.080  12.947  0.1140 -0.1283  0.1155
52657W        W71404   6.292  12.675   1.557 -0.0175  0.1658 -0.0929
52658W        W71405  28.633  22.610  21.346  0.0141 -0.3122 -0.0193
52659W        W71406  15.950   5.510   6.348  0.1188  0.1089 -0.1608
52660W        W71407  13.276  24.741   4.688  0.0264  0.0953 -0.2168
52661W        W71408  13.934  12.484   3.266 -0.1051 -0.0266  0.1351
52662W        W71409   7.874  14.316   4.061  0.0278 -0.0049  0.0718
52663W        W71410  24.403  22.573  22.617  0.0191  0.0827 -0.0604
52664W        W71411  32.965   1.285  13.076  0.0398 -0.2938 -0.1226
52665W        W71412   2.850   7.437  22.249  0.2107 -0.2076 -0.0399
52666W        W71413  13.916  29.014  25.824 -0.2120  0.2051 -0.0741
52667W        W71414   4.398   3.002  10.127 -0.1455  0.3566 -0.0120
52668W        W71415  22.767  13.024  22.342 -0.0971  0.0167 -0.0249
52669W        W71416  20.731  22.499   3.271  0.0401  0.1666 -0.1843
52670W        W71417  21.516  11.181  19.581  0.1844 -0.3656  0.0813
52671W        W71418   9.085  26.302   3.640 -0.0205 -0.1715 -0.0173
52672W        W71419  13.795  16.263  22.988 -0.0305  0.1334  0.0737
52673W        W71420  27.949   8.602  23.881 -0.4137  0.0901  0.0271
52674W        W71421   6.359  26.689  10.015 -0.2224 -0.0473 -0.0714
52675W        W71422   4.374  20.112  24.091 -0.0479  0.3481 -0.0340
52676W        W71423  32.811  31.683  25.863  0.1864 -0.2795 -0.1544
52677W        W71424  22.029   8.170  16.312 -0.0256  0.0713  0.0802
52678W        W71425  23.247  22.687  23.659 -0.6257  0.0524  0.1119
52679W        W71426  24.591  18.824  10.283 -0.2241 -0.1133  0.0916
52680W        W71427  12.143  29.000  25.770 -0.1421 -0.0389 -0.1157
52681W        W71428  23.182   8.268  20.031  0.0671 -0.0256 -0.3826
52682W        W71429  14.607  26.562  12.290 -0.2820  0.0282 -0.1444
52683W        W71430  24.820   3.793  26.056 -0.1007  0.0160 -0.2825
52684W        W71431   1.222  27.129  20.707 -0.1915 -0.0857 -0.1320
52685W        W71432  34.246  22.649  23.528  0.0674 -0.0913  0.2918
52686W        W71433  34.062   9.988  11.305 -0.1067  0.0895  0.1995
52687W        W71434   6.223  25.999   0.478 -0.0747 -0.2700  0.1272
52688W        W71435  14.188  24.796   4.197  0.3393  0.2051  0.0981
52689W        W71436  15.069  10.690   3.964 -0.3520  0.1844 -0.1228
52690W        W71437  16.416   4.833  21.264 -0.2562  0.0416  0.1907
52691W        W71438  15.756   7.258   9.686  0.2026  0.2664  0.0736
52692W        W71439   5.337  35.013  20.197  0.1239 -0.3407  0.2272
52693W        W71440  34.259  26.923   3.427  0.0627 -0.1592  0.0622
52694W        W71441  34.258  14.876  22.545 -0.2031  0.0091  0.1710
52695W        W71442   0.978  33.906   4.671  0.0805 -0.0176  0.1441
52696W        W71443   2.571  33.540   8.545 -0.0421  0.2362 -0.2271
52697W        W71444  12.971  34.293   0.971  0.0163 -0.0633  0.1034
52698W        W71445  17.272   9.365  10.020  0.0445 -0.0549 -0.1024
52699W        W71446   4.273  34.891  19.313  0.3156  0.2801  0.3032
52700W        W71447  25.734  13.328  15.152 -0.3745  0.3201 -0.0278
52701W        W71448  22.934  18.198  22.168 -0.3564 -0.1663  0.1189
52702W        W71449  32.154   4.304  15.140  0.1674  0.1650 -0.1921
52703W        W71450  15.663  20.433  25.324 -0.3005 -0.0384  0.1557
52704W        W71451  13.917   7.029   5.633 -0.1908  0.3096  0.2618
52705W        W71452  16.243  27.466  11.171 -0.1124  0.1309 -0.0032
52706W        W71453  35.367   2.505   1.106 -0.0968  0.0463  0.0293
52707W        W71454   6.356  21.720  24.943  0.0777 -0.1561  0.4543
52708W        W71455  33.714  12.333  22.335  0.2085  0.0339 -0.1967
52709W        W71456  34.461  22.812   0.665 -0.0202  0.0253  0.1535
52710W        W71457  24.854  10.367  19.379  0.1331 -0.2207  0.2327
52711W        W71458  32.231  15.937  22.240  0.1583  0.0932 -0.0465
52712W        W71459  24.940  33.192  17.380  0.2897 -0.1471 -0.1823
52713W        W71460  11.402  28.448  22.678 -0.2018  0.2643  0.2987
52714W        W71461   7.515   2.407  24.024 -0.1686  0.0734 -0.3072
52715W        W71462  24.999   9.711  21.756 -0.2124  0.3542  0.1819
52716W        W71463  14.320   0.965  25.920  0.0740 -0.0745  0.4584
52717W        W71464   8.290  33.312   9.630 -0.1392 -0.0346 -0.2821
52718W        W71465  33.112  29.029  19.915 -0.2305  0.0560  0.2311
52719W        W71466  28.112  16.674  12.921  0.3039  0.2571  0.0118
52720W        W71467   1.006   7.949  18.451  0.0659  0.1028 -0.1442
52721W        W71468  15.276  28.445  25.471 -0.0521 -0.3339  0.3765
52722W        W71469  34.779  21.839  12.655 -0.1738 -0.0925  0.3093
52723W        W71470   3.595  15.056  15.446  0.2641 -0.1863  0.0010
52724W        W71471  21.889  34.338  14.755  0.3003 -0.1619 -0.3985
52725W        W71472   9.494  16.919   0.891 -0.3286 -0.3508 -0.3464
52726W        W71473  11.667  27.244   5.973 -0.2042 -0.0907 -0.4950
52727W        W71474  23.375  18.529  24.273  0.5808 -0.2543 -0.0363
52728W        W71475   2.795   4.744  16.135 -0.1200  0.2018  0.4165
52729W        W71476  10.299  12.180   5.170  0.0349  0.1010 -0.1744
52730W        W71477  23.378  34.231   6.014 -0.0906  0.1775  0.0964
52731W        W71478  28.478   0.302  16.337 -0.2466  0.0291 -0.2041
52732W        W71479   6.956  27.906   5.072 -0.2967 -0.1393 -0.1445
52733W        W71480  12.114   3.858   0.346 -0.1177 -0.1184  0.1425
52734W        W71481  28.870  17.900  24.103  0.0723 -0.1184  0.1727
52735W        W71482  26.540   5.484   3.949 -0.0882 -0.1011 -0.0502
52736W        W71483   0.830  30.056   5.534 -0.0500 -0.0409  0.1633
52737W        W71484  34.630  23.856  16.631  0.2078  0.0014 -0.0033
52738W        W71485   7.633   1.397   2.090  0.0214 -0.1243  0.0232
52739W        W71486   5.866   2.685  25.012  0.1013  0.4026 -0.0324
52740W        W71487  32.809  17.646  13.243  0.1958  0.2765 -0.4538
52741W        W71488  32.859   4.750   3.547 -0.2271 -0.0119 -0.2405
52742W        W71489   4.013   9.033  18.769  0.0722  0.4320 -0.2222
52743W        W71490   6.324  26.922  21.511 -0.1116  0.3281 -0.1254
52744W        W71491  28.505  18.413  21.684 -0.0276  0.1519 -0.0293
52745W        W71492  20.683   4.522   5.392  0.0405  0.1188 -0.2592
52746W        W71493  33.531   0.260  24.931  0.2749  0.0068 -0.1023
52747W        W71494  23.693  25.178  13.471  0.4294  0.1577  0.4728
52748W        W71495   7.320  21.837   4.484 -0.0322 -0.3085 -0.2528
52749W        W71496  31.332  12.037  19.056 -0.0419  0.0166 -0.2508
52750W        W71497   9.983  27.263   8.436 -0.0609  0.2136  0.2846
52751W        W71498  27.461  28.343  10.133 -0.2556  0.3672 -0.1885
52752W        W71499  16.431  17.155  25.974 -0.3138  0.1809  0.0647
52753W        W71500   8.549  26.314   3.594  0.0144 -0.1526  0.0304
52754W        W71501  27.641  19.633  22.193 -0.0984 -0.0413  0.0249
52755W        W71502  32.205  20.037  21.451 -0.3155 -0.2443  0.2133
52756W        W71503  11.545  17.591  21.134 -0.0271 -0.0561  0.1295
52757W        W71504  19.071  11.778   7.397  0.0329  0.0743 -0.0760
52758W        W71505  12.821  14.195   6.530 -0.3113 -0.1823 -0.3097
52759W        W71506  25.746   1.416  23.125  0.4554  0.0561 -0.0820
52760W        W71507   0.625   6.462   4.025 -0.0548  0.0582 -0.2182
52761W        W71508   1.633   9.842  23.873  0.2633  0.1438 -0.1348
52762W        W71509  10.169  29.582   8.603  0.3531 -0.1463  0.3346
52763W        W71510  10.453   7.887  25.902 -0.2430  0.0311  0.0051
52764W        W71511  13.660  24.437   2.583 -0.0220  0.2924 -0.2327
52765W        W71512  33.669   7.636  15.454 -0.0500 -0.3396 -0.1896
52766W        W71513  34.988  28.288  18.480 -0.1115  0.4269  0.0222
52767W        W71514   0.757   3.198  19.080  0.0780  0.0311 -0.0479
52768W        W71515   1.837  32.626   7.775 -0.0723  0.0029  0.0230
52769W        W71516   4.577   4.162  16.883  0.0632  0.1082 -0.0212
52770W        W71517  17.134  16.365   8.233 -0.0035  0.1671  0.1214
52771W        W71518   7.020   9.766  22.716 -0.0401  0.2265  0.1028
52772W        W71519  21.088  22.869  21.153  0.2490 -0.2454  0.0528
52773W        W71520  17.267  23.161   0.445 -0.1250 -0.3110  0.0611
52774W        W71521  18.263  24.261  11.818  0.0998  0.2919 -0.0918
52775W        W71522   6.256  11.339  18.400  0.1764 -0.2153  0.1471
52776W        W71523  22.935  24.195  26.185 -0.1013  0.0597  0.0605
52777W        W71524   2.510   7.852  22.742 -0.0614  0.1831  0.0393
52778W        W71525  34.097  13.661  21.656  0.0596 -0.0839 -0.1556
52779W        W71526  18.731  24.555   7.794  0.0710 -0.0054  0.0932
52780W        W71527  13.882  28.442  16.567  0.4685 -0.1187 -0.1780
52781W        W71528  13.436  20.717   9.967 -0.0654 -0.0186 -0.3912
52782W        W71529  33.473  23.742  20.025  0.0713  0.0088 -0.2436
52783W        W71530   7.197  21.458  22.498 -0.4975 -0.3998  0.1291
52784W        W71531  32.436   7.998  24.293  0.0342  0.2145  0.1968
52785W        W71532  32.715  19.792  18.965 -0.0388 -0.3963 -0.1639
52786W        W71533  33.815  31.358  22.292  0.1089  0.1667 -0.1556
52787W        W71534   4.766   6.116   8.590  0.5204 -0.0571 -0.0492
52788W        W71535  24.464   2.540  16.178  0.1420 -0.0051 -0.1365
52789W        W71536   8.637  23.693   7.421  0.2708  0.3649  0.2341
52790W        W71537  23.862  28.880  22.925  0.0436 -0.2318 -0.2683
52791W        W71538   7.353   4.169  21.132  0.0224 -0.1387 -0.1078
52792W        W71539  28.005  25.811  14.419 -0.0257 -0.0912 -0.0771
52793W        W71540  30.311   8.077  13.472 -0.0148 -0.1218 -0.1331
52794W        W71541  13.738   7.760  22.706  0.2913 -0.0046 -0.1588
52795W        W71542   9.516  25.230  24.352 -0.0709 -0.0007  0.0012
52796W        W71543   7.160   4.734   2.587 -0.0247  0.3506  0.1026
52797W        W71544  17.559   1.914   1.959  0.2334 -0.1522 -0.0814
52798W        W71545   9.425  23.568  15.093 -0.2373 -0.0102  0.2051
52799W        W71546  29.450  15.622   4.660 -0.2525 -0.0642  0.0087
52800W        W71547  18.493   1.353  15.598 -0.0655 -0.1747 -0.2515
52801W        W71548  10.515   6.926   2.777 -0.1210  0.1945  0.2637
52802W        W71549   2.549  26.433   9.044  0.2825  0.0322 -0.0319
52803W        W71550  25.371   6.066  16.042 -0.0899  0.3299 -0.2073
52804W        W71551   7.877   3.587   2.548  0.0193 -0.1478  0.2386
52805W        W71552  25.260  24.687  10.057  0.0586  0.0566 -0.0558
52806W        W71553  19.095  17.423   2.669 -0.1328  0.0269  0.1338
52807W        W71554   7.151  11.585  23.525  0.0791 -0.0242  0.2873
52808W        W71555  15.588  26.991   1.038  0.0373 -0.1222  0.3877
52809W        W71556  12.806   4.703  21.370  0.2202  0.0180  0.2546
52810W        W71557   6.002   0.412   3.790 -0.0610 -0.2052  0.0897
52811W        W71558  23.406  32.759  18.151  0.0853 -0.2692  0.1276
52812W        W71559  31.832  23.442  10.730  0.0055 -0.2560 -0.4158
52813W        W71560  12.381  18.984   4.052  0.0896  0.1505 -0.1151
52814W        W71561  16.433   9.501  19.348  0.0579  0.1573  0.2703
52815W        W71562  32.862  24.622  19.291  0.2192 -0.1979  0.0499
52816W        W71563  25.752   9.754  19.675  0.1289 -0.0102  0.0902
52817W        W71564   7.519  14.265  19.201  0.0691  0.2355  0.1271
52818W        W71565  21.541   3.300   7.046  0.2177  0.1751  0.1782
52819W        W71566  22.371  27.130  18.346 -0.0486  0.2892 -0.0289
52820W        W71567   8.734   8.127  11.394  0.1175  0.1772 -0.1891
52821W        W71568  26.346  26.552   2.974  0.2068 -0.1999 -0.3752
52822W        W71569   4.476  18.428   0.440 -0.2116  0.1629 -0.1203
52823W        W71570  29.485  28.073  22.759  0.3145  0.4945 -0.1087
52824W        W71571  32.746   5.094  23.266 -0.1375 -0.1815 -0.1315
52825W        W71572   1.445  29.598  25.750  0.1589  0.1743 -0.0295
52826W        W71573   0.830  14.213  11.753 -0.1975  0.0737  0.1525
52827W        W71574  21.057   2.439  15.796 -0.2020 -0.0629 -0.2147
52828W        W71575   3.678   6.614  23.102  0.2001 -0.1352 -0.1425
52829W        W71576  21.261  23.932  22.089  0.1081 -0.0399 -0.1633
52830W        W71577  16.367   2.167  21.819 -0.1492 -0.1691 -0.1152
52831W        W71578  26.750  32.808  21.746  0.0250  0.2253 -0.3405
52832W        W71579   1.859  31.055   8.867  0.1062  0.0388  0.1795
52833W        W71580  29.801  30.104  25.292  0.0749 -0.1054  0.0562
52834W        W71581  15.356  32.057  25.124  0.1704  0.0382  0.0803
52835W        W71582   0.237  34.444   4.208 -0.2453  0.2905 -0.0081
52836W        W71583  10.088  12.958   2.235 -0.0228  0.0222  0.3671
52837W        W71584  33.570  20.623   7.926  0.0883 -0.3702  0.1333
52838W        W71585  29.107   1.183  23.626  0.0837  0.1425  0.0602
52839W        W71586  34.854  18.393   9.987  0.0285  0.0188  0.0099
52840W        W71587  12.203  35.051   4.537  0.1444  0.2183  0.0670
52841W        W71588  16.852  34.273   1.298 -0.0944  0.4723  0.1907
52842W        W71589  26.296   2.411  24.618 -0.0580  0.0622 -0.2390
52843W        W71590  18.914  23.530   0.565 -0.0815  0.0522  0.1972
52844W        W71591  32.498   6.784  26.147  0.1078  0.1601 -0.2845
52845W        W71592  26.114  13.249  13.235  0.0993 -0.4106 -0.1726
52846W        W71593  10.229  21.282  14.807 -0.2899 -0.1718  0.0305
52847W        W71594  25.095   8.396  23.598 -0.1561  0.0368  0.1608
52848W        W71595  17.856   9.126  23.030 -0.0793 -0.0612 -0.0446
52849W        W71596   2.963  26.652   1.181  0.1268  0.0945  0.0750
52850W        W71597  20.110  34.149  19.248 -0.2705 -0.1589 -0.0951
52851W        W71598  32.230  25.923  24.575  0.0609  0.2481 -0.0084
52852W        W71599  25.762   9.394  15.056  0.0071  0.3572 -0.1249
52853W        W71600  14.022  21.347  25.536 -0.1434 -0.1183  0.0469
52854W        W71601  10.771   6.807  20.271  0.1267 -0.0500  0.0196
52855W        W71602  31.882  11.524  20.357 -0.2796  0.3447  0.3933
52856W        W71603   9.506  26.435  11.602  0.0639  0.2969  0.1587
52857W        W71604  29.818   3.503  18.813 -0.0998 -0.1906  0.3021
52858W        W71605  16.515  15.834  23.274 -0.2151  0.1902  0.3244
52859W        W71606  13.835   5.586   2.590  0.2534  0.0814  0.1217
52860W        W71607  22.716  19.424  22.666  0.0355 -0.0718 -0.0223
52861W        W71608  25.236   1.918  16.127 -0.2215 -0.0201  0.0979
52862W        W71609  16.640   0.571  22.632 -0.3277  0.0162 -0.1659
52863W        W71610  28.508  34.004  25.776  0.2548 -0.1082 -0.2355
52864W        W71611  10.979   7.723  21.711  0.0952 -0.1373  0.0065
52865W        W71612   1.594  18.454  11.394  0.0180 -0.3897  0.0403
52866W        W71613  14.266  14.877  25.098  0.1878  0.2236 -0.0661
52867W        W71614  26.976   4.898   2.056  0.3583  0.1676  0.2431
52868W        W71615  14.214  23.782  15.923  0.4090 -0.0322  0.2530
52869W        W71616   1.298   0.929  19.251  0.2275 -0.2494 -0.1569
52870W        W71617  15.291  25.670   6.890 -0.2372  0.1955  0.1070
52871W        W71618  25.697  13.480  22.847  0.3761  0.0198 -0.0531
52872W        W71619  34.569  13.120   9.685 -0.2652  0.1062 -0.1707
52873W        W71620  13.984   1.025   2.106  0.1511  0.1909 -0.2763
52874W        W71621   2.167  11.058   1.505 -0.3490 -0.2207 -0.0237
52875W        W71622  15.814  27.554   9.438 -0.0560 -0.0560 -0.1030
52876W        W71623   4.045  17.809  20.573  0.0095 -0.2033 -0.5476
52877W        W71624  29.327   3.278  19.930 -0.1510 -0.2339  0.0097
52878W        W71625   2.571  17.416  14.728  0.2308 -0.1518  0.1864
52879W        W71626  14.647  31.545   5.273 -0.2512 -0.2166  0.0294
52880W        W71627  17.808  10.213  11.896  0.2821  0.0425  0.2025
52881W        W71628   4.173  17.459   0.293 -0.0737 -0.0503  0.2254
52882W        W71629  35.102   5.024   0.098 -0.0439 -0.0426  0.1257
52883W        W71630   1.285  25.651  18.026  0.1089 -0.0705 -0.0878
52884W        W71631   8.337  26.967  22.974 -0.2725  0.1419  0.2317
52885W        W71632  25.486  14.270  25.819 -0.1644 -0.2163  0.2484
52886W        W71633  28.687  24.984   9.089  0.0041  0.1227 -0.2671
52887W        W71634  18.195  16.761  21.816  0.0387 -0.3612  0.2319
52888W        W71635  19.244   1.700  16.062 -0.0382 -0.2578  0.0374
52889W        W71636   7.633   2.688   2.358 -0.1235  0.0680  0.0564
52890W        W71637   4.688  31.787  11.284  0.2761 -0.0984 -0.2966
52891W        W71638  34.507  29.448  24.361  0.0117 -0.4194 -0.1756
52892W        W71639  14.642   9.638   4.594 -0.0916  0.3940  0.1349
52893W        W71640   0.020   9.109   2.638  0.0242  0.1576 -0.2743
52894W        W71641  16.182  19.685   4.806 -0.1526  0.1715  0.3910
52895W        W71642  19.283  18.275  21.077  0.0183  0.0008  0.1692
52896W        W71643  12.476  26.141  25.327  0.2303 -0.2378  0.0587
52897W        W71644  23.839  23.455  18.016 -0.2424  0.1427 -0.0063
52898W        W71645  10.738   5.859   6.910 -0.0265  0.0650  0.0603
52899W        W71646  33.703  25.121  11.145  0.3338  0.0297  0.3915
52900W        W71647  32.671  26.945  25.999 -0.0589  0.0649  0.2148
52901W        W71648  32.705  11.217  11.192 -0.0774  0.0931  0.2831
52902W        W71649  30.594   6.609  21.904 -0.1129  0.0365 -0.4895
52903W        W71650  27.139  24.190   9.996  0.0568 -0.0159 -0.2157
52904W        W71651  24.731   7.547  23.433  0.1664 -0.0877  0.0763
52905W        W71652   5.149   3.602  19.341 -0.0948  0.0089 -0.0494
52906W        W71653  29.559  28.377  10.629  0.0310  0.1297 -0.0607
52907W        W71654   1.012  23.294  19.162 -0.1835  0.1545  0.1107
52908W        W71655   9.984  23.629  13.165  0.1012 -0.3241 -0.0361
52909W        W71656  30.501  27.482   0.376  0.2362 -0.4843 -0.0438
52910W        W71657   2.974   7.277  16.963 -0.0058  0.1975 -0.0779
52911W        W71658   6.925   8.981  26.234  0.2794 -0.2404  0.1750
52912W        W71659  14.025  24.545   6.620 -0.1200 -0.0926  0.1258
52913W        W71660   4.861   3.886  23.304  0.3448  0.2294  0.0325
52914W        W71661  11.259  31.010  15.251  0.0036  0.1322 -0.0827
52915W        W71662   0.016  28.201  14.761 -0.3015  0.3102 -0.0589
52916W        W71663   9.520  31.930  16.043  0.1783  0.2854 -0.2640
52917W        W71664  34.640   3.856  20.193 -0.1093 -0.2988 -0.0371
52918W        W71665  29.452   9.228  24.967 -0.0988 -0.0644  0.3616
52919W        W71666  28.942  31.758  26.245  0.1569  0.1958  0.1532
52920W        W71667  29.627  11.379  11.763  0.0351 -0.2205 -0.2222
52921W        W71668   7.795  33.168   2.288 -0.0886  0.2463  0.0696
52922W        W71669  29.980  25.678  25.099  0.1687  0.1322  0.4099
52923W        W71670  27.350   7.872   1.639  0.1345  0.1139  0.0404
52924W        W71671  28.093   4.703  23.700  0.0149  0.1423 -0.1083
52925W        W71672  27.513   6.842  21.708  0.2985  0.1470  0.2392
52926W        W71673   7.388  21.029  24.040 -0.2366  0.2620 -0.0294
52927W        W71674  24.811  29.772  18.460  0.0931 -0.0249 -0.1404
52928W        W71675  21.584  18.457  18.010 -0.2116 -0.1653 -0.0166
52929W        W71676   2.495  26.327   1.861 -0.2565 -0.1868  0.0731
52930W        W71677  30.102  30.180  16.163  0.0246 -0.0254  0.0059
52931W        W71678  26.690  13.804   7.641  0.1344  0.2054  0.2893
52932W        W71679  23.783   3.764   0.828 -0.0294 -0.0202 -0.2156
52933W        W71680   4.152   2.171  23.949  0.2404 -0.3599 -0.2706
52934W        W71681  26.713  10.651  17.915  0.0854  0.0326 -0.2239
52935W        W71682  35.341   1.286  20.396  0.0494 -0.0079  0.0712
52936W        W71683  28.916   0.786  16.435 -0.2911  0.2198 -0.0400
52937W        W71684   5.893   7.439   1.889  0.2419  0.2467  0.2370
52938W        W71685  10.778  23.095  23.126 -0.1601 -0.2495 -0.1100
52939W        W71686  22.047  16.978  18.383 -0.0263  0.2678 -0.2461
52940W        W71687  25.786  18.271   7.863  0.0293 -0.0748 -0.1024
52941W        W71688  17.846  32.700   5.698  0.0938  0.0256  0.1292
52942W        W71689  31.563  27.794  23.077 -0.0813 -0.4447  0.1214
52943W        W71690  17.219  10.167  12.417  0.3814 -0.0654 -0.2878
52944W        W71691  14.745   9.820   9.096  0.0892  0.2915 -0.1220
52945W        W71692   5.442  26.314   9.699  0.0791  0.0121  0.2611
52946W        W71693  26.214  31.972  18.661 -0.0477 -0.1962  0.1774
52947W        W71694   6.588   2.617   0.813 -0.0210 -0.0538  0.2217
52948W        W71695   8.597  31.976  15.949  0.0161 -0.1588 -0.2261
52949W        W71696  14.372  23.603   6.365  0.0616  0.0002 -0.2483
52950W        W71697  33.542  35.337  19.131  0.0439  0.2016 -0.1184
52951W        W71698  31.772  18.023  23.703  0.0573 -0.1856  0.0383
52952W        W71699  26.290   0.969  24.912  0.0814 -0.2422  0.1353
52953W        W71700  11.407  31.038   9.227  0.0486  0.1106 -0.0071
52954W        W71701  17.787  35.053  16.080 -0.2514  0.2199 -0.0432
52955W        W71702  11.264  22.004   1.093  0.0194  0.3230 -0.2640
52956W        W71703   9.925  18.816  21.758 -0.1374  0.2426  0.1582
52957W        W71704  10.168   3.546  21.395  0.0679  0.1987 -0.2043
52958W        W71705   6.479  35.264  21.780  0.1253 -0.0253  0.1902
52959W        W71706  23.186  33.403  17.654  0.0169  0.0630 -0.2805
52960W        W71707   1.882  30.475   0.642 -0.4970  0.1379  0.1848
52961W        W71708  33.100  15.041   7.605  0.0119 -0.3109  0.0555
52962W        W71709  30.706  23.672  10.925 -0.2364 -0.0810 -0.2367
52963W        W71710   9.698  14.339  26.173  0.0034  0.0898 -0.1251
52964W        W71711  11.657  16.753   7.460  0.2403 -0.0622 -0.0959
52965W        W71712   3.372   3.632  15.865  0.3091 -0.1173 -0.0242
52966W        W71713  24.709   7.545  24.392 -0.0723  0.0682  0.2833
52967W        W71714  16.885   0.191   1.238 -0.1627  0.2484 -0.1223
52968W        W71715  28.677  21.758  13.769  0.0808  0.2775  0.1894
52969W        W71716  17.112  18.754  12.853  0.1920  0.1731  0.2434
52970W        W71717  34.885   0.164   5.237  0.2816  0.0107 -0.4157
52971W        W71718  16.906  20.517  11.198  0.1225  0.0673  0.0376
52972W        W71719  30.552  29.469  13.800 -0.1901 -0.1726 -0.0420
52973W        W71720  19.389   3.754   3.470  0.2792 -0.2120  0.3753
52974W        W71721  10.513  14.900  11.779 -0.1081  0.0198 -0.1584
52975W        W71722  16.243  18.254  10.030 -0.1658  0.1307  0.2400
52976W        W71723  11.362   8.207   4.256  0.2701 -0.0988  0.0384
52977W        W71724  17.990  20.888  24.968  0.1019  0.0301  0.2019
52978W        W71725   6.869  10.946  24.695  0.3250 -0.0669  0.0757
52979W        W71726   4.637   8.714  22.243  0.0188 -0.1612  0.1341
52980W        W71727  14.268  21.360   3.010  0.0052  0.2019  0.1015
52981W        W71728  21.911  14.367  24.178  0.3364  0.1933  0.2290
52982W        W71729  13.365  30.081  21.389 -0.2241 -0.1798  0.2741
52983W        W71730  35.292  10.768   3.455  0.0246 -0.2144 -0.1401
52984W        W71731   3.580   3.668  16.905 -0.1899 -0.1978  0.3799
52985W        W71732  12.218  27.041   3.722 -0.1577 -0.1557  0.1751
52986W        W71733  31.516  35.349   7.271  0.1846  0.2972  0.2009
52987W        W71734   1.389   5.540  25.722 -0.1403 -0.1855  0.1733
52988W        W71735  15.534  10.568  23.603  0.0832 -0.0087 -0.0413
52989W        W71736  16.315  20.070   7.029  0.0843  0.0327  0.2237
52990W        W71737  26.772  18.169  11.852 -0.1823  0.1234 -0.0168
52991W        W71738  26.278  18.562  22.428 -0.0061 -0.0864  0.3092
52992W        W71739  16.759  19.001  12.220 -0.0082 -0.2167 -0.1772
52993W        W71740  27.245   9.767  21.202 -0.4673 -0.2393  0.0168
52994W        W71741  30.654  19.767  18.800  0.2881 -0.1770 -0.1534
52995W        W71742  14.884  32.311   1.039 -0.0369  0.0852  0.1174
52996W        W71743  22.844  32.829  16.743  0.0872 -0.1031 -0.1403
52997W        W71744  19.034  25.428  24.092  0.5519  0.0428  0.0686
52998W        W71745   9.058  10.792  23.625 -0.0091 -0.2617 -0.0676
52999W        W71746   8.220   5.967  25.734  0.0732  0.1582 -0.1437
53000W        W71747   1.598  30.017   7.988  0.1778  0.2245 -0.0359
53001W        W71748  32.046  29.153  25.472 -0.1356  0.0131  0.0523
53002W        W71749  28.392  33.509   3.698  0.2831 -0.0401 -0.1163
53003W        W71750  11.768   0.105   5.593  0.0718  0.1860  0.1464
53004W        W71751  20.744  26.262  24.604  0.0601  0.0559  0.1301
53005W        W71752  29.127  28.838  12.800  0.0041  0.2908  0.1977
53006W        W71753  34.616  22.028  17.489 -0.0317  0.0048  0.1701
53007W        W71754  20.294   1.820  19.279  0.1192  0.3056  0.0324
53008W        W71755  31.265   6.069  21.890  0.1015 -0.2775  0.0390
53009W        W71756  23.776   6.668  23.650 -0.1916  0.2493 -0.1493
53010W        W71757  21.066  25.115  23.730  0.0395 -0.1401 -0.1334
53011W        W71758  18.453  21.063  25.144 -0.3188  0.1514 -0.0975
53012W        W71759  10.531  19.329   8.222  0.3257 -0.1800 -0.0799
53013W        W71760  27.586  10.018  15.584 -0.1257  0.0343  0.0784
53014W        W71761   9.863  19.071  25.840  0.0667  0.1558 -0.2059
53015W        W71762   8.370   2.950  22.818  0.0588 -0.3261  0.2675
53016W        W71763  13.611   7.773  11.951 -0.0837  0.1016 -0.3391
53017W        W71764  33.612  16.022  17.024  0.1211  0.4156 -0.1324
53018W        W71765  30.459   3.436  24.444 -0.3055 -0.2782  0.0476
53019W        W71766  26.142  26.268  23.947  0.0279 -0.0056 -0.1498
53020W        W71767   0.545  13.259  26.223  0.1672 -0.1551  0.2176
53021W        W71768  12.010  31.258  15.913 -0.2523 -0.0737 -0.1645
53022W        W71769  30.094  32.904  22.672  0.1286 -0.0290 -0.1037
53023W        W71770   3.031  25.264  17.680 -0.0811  0.1047 -0.3532
53024W        W71771   6.882   2.780  13.876 -0.0081 -0.6518  0.1177
53025W        W71772  21.846   4.367  14.765  0.2092 -0.0252  0.0382
53026W        W71773   7.348  27.608  22.112 -0.0918  0.0478 -0.1872
53027W        W71774  16.446  30.902   7.868  0.0182 -0.0267  0.1190
53028W        W71775  34.687   0.626   5.126 -0.0435  0.1602  0.1075
53029W        W71776  20.114  17.146  21.133 -0.1352  0.1144  0.1415
53030W        W71777  22.053  16.516  23.756  0.1536  0.1969  0.0565
53031W        W71778   3.618  34.522  21.581 -0.1613 -0.2033 -0.0630
53032W        W71779  25.001  15.483  19.660 -0.3809 -0.3022 -0.0802
53033W        W71780  24.682   4.119  12.211 -0.2909  0.1764  0.1040
53034W        W71781  11.546   3.237  25.433  0.0844  0.3114  0.1210
53035W        W71782  34.423  31.710  19.756  0.1911 -0.1385 -0.0792
53036W        W71783  27.781  12.597  18.442 -0.0109 -0.0477  0.0412
53037W        W71784  23.959   3.221  21.296  0.0437 -0.0573  0.0645
53038W        W71785  18.743  34.538  15.590 -0.2339  0.2381  0.0393
53039W        W71786  17.653   6.509   6.317  0.0497 -0.3140  0.1066
53040W        W71787  23.638   2.558  23.952  0.0277 -0.0957 -0.3681
53041W        W71788   4.165  20.622  19.862 -0.3521  0.0356 -0.0975
53042W        W71789  26.166  15.909  12.579  0.2352  0.0242 -0.1038
53043W        W71790  24.884  12.880  23.674 -0.2503 -0.0377 -0.1407
53044W        W71791  27.581  21.165   6.296 -0.1221 -0.2730  0.0339
53045W        W71792  31.043   8.855  23.410 -0.0234  0.0486 -0.3006
53046W        W71793   5.854  30.790   4.617  0.1007 -0.0029  0.0340
53047W        W71794  17.750  11.564   7.926  0.0923 -0.2208 -0.0093
53048W        W71795  21.184   2.202   5.169 -0.2709  0.0716 -0.0678
53049W        W71796   0.735  20.186  19.210  0.2357 -0.1157  0.1214
53050W        W71797  16.629   4.576   5.745 -0.2580 -0.0238  0.1615
53051W        W71798  22.334  14.618   0.542  0.2357 -0.2211  0.0017
53052W        W71799  18.662  19.975  23.991 -0.4627 -0.1952  0.1086
53053W        W71800  26.306   8.019  19.847 -0.1903 -0.1943  0.1147
53054W        W71801  34.582  15.424  21.361 -0.0907  0.0282 -0.1481
53055W        W71802  29.985   0.691   0.158 -0.2061 -0.1504 -0.2938
53056W        W71803  20.999   9.148  23.887 -0.0153 -0.1672  0.1412
53057W        W71804  20.924   2.830   5.424  0.2911  0.4355  0.4342
53058W        W71805  22.424   1.306   2.799  0.4383  0.2241 -0.1087
53059W        W71806  28.127  28.376  17.187 -0.1719 -0.1176 -0.0410
53060W        W71807  26.369  27.870  19.985  0.0551 -0.2735 -0.1453
53061W        W71808  26.049   4.757   2.534 -0.2513  0.1961 -0.1105
53062W        W71809  16.427  10.297  11.113  0.2378 -0.2926  0.0381
53063W        W71810  21.670   1.857  16.777 -0.1698 -0.2499 -0.1113
53064W        W71811  33.039   8.958  24.674  0.0763 -0.0812  0.1348
53065W        W71812  15.282   5.857   4.680  0.0195  0.3802 -0.3998
53066W        W71813  14.024   2.912   9.065  0.1147 -0.0801 -0.1646
53067W        W71814   3.004  32.631   9.427  0.0315  0.0575 -0.1450
53068W        W71815   8.342  19.530   8.398 -0.3896 -0.2062  0.0879
53069W        W71816  29.950  33.556  20.728  0.4274  0.0438  0.2043
53070W        W71817  15.882  17.719   5.935  0.2616 -0.1320  0.0669
53071W        W71818  25.323  29.668  25.931  0.0981  0.0866  0.0317
53072W        W71819  26.444  10.536   8.511 -0.0590  0.3075 -0.0173
53073W        W71820   7.132  11.936   5.409 -0.2814  0.0770  0.0067
53074W        W71821  24.730  28.379   4.606 -0.1468  0.0638 -0.0335
53075W        W71822  23.041  34.405  20.994 -0.2593  0.2215 -0.1860
53076W        W71823   8.627  29.152   9.755  0.0049  0.0291  0.0792
53077W        W71824  33.604  21.897   8.993  0.1848 -0.0973  0.0182
53078W        W71825  31.391   0.649  17.890  0.3826 -0.2736 -0.1773
53079W        W71826   2.837   9.739  18.475  0.1982 -0.0759  0.2469
53080W        W71827  30.617  31.710  16.812 -0.3134  0.0554 -0.0171
53081W        W71828  10.860  24.678   5.319 -0.0499 -0.2707 -0.0678
53082W        W71829  20.772  17.533  23.933  0.0174 -0.1553 -0.2587
53083W        W71830  10.249  30.942  23.515 -0.0304  0.0835 -0.0575
53084W        W71831  26.552   0.181  17.147  0.4485  0.3153  0.0367
53085W        W71832   3.570   5.417   2.452  0.2868  0.2451  0.0732
53086W        W71833  11.356  30.985   0.368 -0.3493  0.0159  0.4545
53087W        W71834   5.045   1.681   1.076 -0.1310  0.2706 -0.2675
53088W        W71835  25.407  13.735  21.056  0.1864 -0.0772 -0.1683
53089W        W71836   5.474  32.108  23.932 -0.1301  0.1979 -0.0146
53090W        W71837  16.081  15.418   7.572  0.1067  0.1294 -0.0036
53091W        W71838   9.501  14.901   6.397 -0.2924 -0.2448  0.0602
53092W        W71839  15.379   9.685   6.373  0.0400  0.0223  0.0132
53093W        W71840   2.356  26.378  18.847 -0.1172 -0.2679  0.3134
53094W        W71841   8.184   7.829   7.485  0.1366 -0.0153  0.1056
53095W        W71842  22.923   7.741   4.096 -0.2234  0.1893 -0.0416
53096W        W71843   3.903  16.036   1.404  0.1027 -0.0152  0.0721
53097W        W71844  12.820  29.247  16.687  0.0384  0.1274 -0.0304
53098W        W71845  19.937  15.510  21.184  0.1075 -0.4706  0.0045
53099W        W71846  23.942   7.332  21.424  0.2454 -0.0176  0.1494
53100W        W71847  19.755   3.464   9.972 -0.0786  0.0489  0.2074
53101W        W71848   3.174  34.215   6.010 -0.1853  0.2068 -0.0361
53102W        W71849  31.209   3.201   6.625 -0.0007 -0.1176  0.1841
53103W        W71850  19.635  28.799  20.128 -0.1061  0.0611  0.1025
53104W        W71851  25.255   6.892   1.591 -0.1927  0.0134  0.2312
53105W        W71852  17.107  12.854  25.585  0.0163 -0.1266  0.0010
53106W        W71853  25.869  26.716   1.069  0.2038 -0.0556 -0.1154
53107W        W71854  28.888  29.168  21.270 -0.0722  0.0559  0.0129
53108W        W71855  33.992  15.243  22.726 -0.1795  0.1455  0.2732
53109W        W71856  16.188  21.212  23.195  0.2099  0.0825  0.1108
53110W        W71857  12.063  23.979   0.601  0.2069  0.2188  0.5311
53111W        W71858  23.702  24.166  23.898 -0.0246  0.0282 -0.0508
53112W        W71859  28.854  21.765  21.865  0.2788 -0.2500 -0.2174
53113W        W71860  10.044  28.609  14.302  0.4633 -0.0301  0.1127
53114W        W71861  19.967   9.920  10.985  0.0948 -0.1500  0.1220
53115W        W71862  25.999  30.320  15.195  0.0951 -0.0952 -0.2518
53116W        W71863  13.005  20.556  23.554  0.0005 -0.0555 -0.3654
53117W        W71864  15.951  11.959   7.992 -0.1018  0.0840  0.0220
53118W        W71865  29.546  29.527  26.168  0.1567  0.3020  0.1060
53119W        W71866  10.812   8.984   5.798  0.0885  0.2320  0.0708
53120W        W71867   3.083  26.041   7.281 -0.2317 -0.0695 -0.2026
53121W        W71868   2.847  20.624  19.605 -0.1646 -0.2655  0.0939
53122W        W71869  26.114  14.933  14.769  0.3490 -0.3008  0.0681
53123W        W71870   2.394  34.530  11.080 -0.0630 -0.0732  0.0649
53124W        W71871  34.912   8.303  15.076 -0.0797  0.3298  0.1603
53125W        W71872   5.893   6.315  17.876 -0.2333  0.2447  0.3486
53126W        W71873  32.934  34.496  23.900  0.0061  0.0155  0.0759
53127W        W71874  23.025  29.921  17.014 -0.2699 -0.2878  0.2439
53128W        W71875  13.147   1.279   1.623  0.1049 -0.1051 -0.0653
53129W        W71876  33.784  10.390   1.858 -0.2231 -0.0561 -0.0203
53130W        W71877   9.270   4.559   3.787 -0.0472 -0.3600  0.0597
53131W        W71878  13.897   1.748  11.606 -0.2104 -0.1989 -0.0793
53132W        W71879  14.640   8.059  10.343  0.0414 -0.2642  0.0668
53133W        W71880   6.969  20.639   0.377 -0.1021 -0.0948 -0.3033
53134W        W71881   7.396  19.934  10.115 -0.0526 -0.2778  0.2924
53135W        W71882  23.305   2.151  14.168 -0.2384  0.2157  0.2343
53136W        W71883  30.314  28.449   1.123  0.1157  0.0580  0.3694
53137W        W71884  30.863  19.747  10.851  0.1499  0.4230 -0.1126
53138W        W71885  31.400  13.674  16.206 -0.0259 -0.0706  0.0262
53139W        W71886  35.003  26.483  22.139  0.2700  0.2040 -0.0080
53140W        W71887   6.209  18.163  18.843 -0.0553  0.2236  0.2243
53141W        W71888  25.849   4.921  14.465  0.3012 -0.1699 -0.1496
53142W        W71889   9.518  27.198  24.526  0.0848 -0.1856 -0.2365
53143W        W71890  31.604  15.642  14.274 -0.3331 -0.0420  0.0762
53144W        W71891  11.027  29.426  25.372  0.2940  0.1424 -0.0639
53145W        W71892  21.724  24.671  17.277 -0.5585  0.2402 -0.1731
53146W        W71893  20.597  22.109  16.891  0.0392  0.4460  0.1257
53147W        W71894  15.774  33.549  11.634 -0.0601  0.0196 -0.0109
53148W        W71895   2.299  31.020  20.416 -0.1293  0.1210  0.0687
53149W        W71896   2.575  10.734  19.323 -0.0946  0.3279  0.0214
53150W        W71897   6.089  10.095  22.964 -0.2366 -0.3712  0.1854
53151W        W71898  31.163  13.312  18.098  0.1096  0.1368  0.0494
53152W        W71899  24.597   3.616   5.607 -0.0148  0.0834 -0.0143
53153W        W71900  23.916   5.738  16.678 -0.0424  0.2585  0.1286
53154W        W71901  32.594  22.534  13.274 -0.0942 -0.1651 -0.0472
53155W        W71902  27.598  19.182  25.570 -0.1758 -0.1651 -0.3068
53156W        W71903   8.059  24.689  15.884 -0.4718  0.3432 -0.2280
53157W        W71904  26.767  18.952  21.731 -0.1318  0.2076  0.0775
53158W        W71905  29.433  28.783  24.995 -0.0311 -0.0706  0.2555
53159W        W71906  21.804  20.768  15.903  0.0088  0.2237  0.0879
53160W        W71907  19.150  22.593   9.928 -0.4487  0.1855 -0.1583
53161W        W71908  22.470   9.717  24.389  0.2571  0.1285  0.2811
53162W        W71909  28.185  24.540  21.003 -0.1507 -0.1498 -0.3100
53163W        W71910  30.341  21.601   6.919  0.1098 -0.0505  0.1624
53164W        W71911  12.031   4.391  19.838  0.0102  0.1806  0.2797
53165W        W71912  27.202  10.708  19.298 -0.1311  0.1703  0.2272
53166W        W71913   0.070   5.770  23.969  0.1489  0.0037 -0.2608
53167W        W71914   2.958  20.782   2.635 -0.0312 -0.2282  0.0947
53168W        W71915   2.806  10.934  15.875 -0.3686 -0.0750  0.0517
53169W        W71916  12.760  25.206  24.659  0.0089 -0.0965 -0.0016
53170W        W71917   7.882   2.605  20.667  0.2834  0.1178 -0.0697
53171W        W71918  29.572  13.217   0.755 -0.1898 -0.3731  0.0687
53172W        W71919  13.804  30.203  12.903 -0.1531  0.2328 -0.0428
53173W        W71920  27.371  13.654  11.658  0.0559  0.3882 -0.0973
53174W        W71921   9.121   6.733  13.783  0.1489  0.1657  0.3110
53175W        W71922  18.692  27.376   6.632  0.0003  0.0711 -0.1294
53176W        W71923  20.802  28.060  20.040  0.0712 -0.1061 -0.1414
53177W        W71924   6.675  15.009  20.825  0.0053 -0.0754  0.1179
53178W        W71925  23.968  34.813   2.008  0.1547 -0.0817 -0.1141
53179W        W71926  33.807  10.898  20.734 -0.2216  0.2802  0.0063
53180W        W71927  22.298  18.381  14.644  0.1268  0.3272 -0.1283
53181W        W71928  29.923   3.874  23.277  0.3898 -0.0209  0.2590
53182W        W71929  30.412   8.006  12.383  0.1181  0.4072 -0.1447
53183W        W71930  34.898  10.958  25.456  0.0198  0.3066 -0.0721
53184W        W71931   4.819   3.003   4.201 -0.0109  0.0937 -0.1780
53185W        W71932  19.638  34.164   6.889  0.1491 -0.2266 -0.2388
53186W        W71933   5.549  18.787  21.407  0.0823 -0.2484 -0.4229
53187W        W71934  11.412  33.527  14.209 -0.3098 -0.2267  0.0251
53188W        W71935   9.280  32.619  16.280 -0.2016  0.1874  0.2529
53189W        W71936  31.652  17.711   7.672 -0.1936  0.0766 -0.1572
53190W        W71937   2.757  27.567   6.845 -0.2781  0.0427 -0.0461
53191W        W71938  34.688  28.999   3.184 -0.2234  0.0423  0.1541
53192W        W71939  19.233   2.300   0.152 -0.0071  0.1176 -0.0093
53193W        W71940  17.258  28.095   8.301 -0.0120 -0.3053  0.2145
53194W        W71941  12.980  14.226  22.170 -0.3272 -0.0087 -0.3517
53195W        W71942  20.571  24.100   1.029 -0.2901  0.0336  0.0601
53196W        W71943  17.484  26.478   6.113  0.1546  0.1817 -0.1229
53197W        W71944  14.880  29.124  11.962  0.0657 -0.2107  0.2451
53198W        W71945  19.736  13.377  21.381  0.1539  0.1396  0.1998
53199W        W71946   9.612  12.787   0.440 -0.0014  0.2787 -0.0925
53200W        W71947   9.511  10.774   3.189 -0.0922  0.3663  0.1866
53201W        W71948  30.089  14.839  23.839 -0.2954  0.0291  0.2135
53202W        W71949  18.234  23.372   5.456  0.1336  0.0888  0.1288
53203W        W71950  15.816   3.740  25.210 -0.2268  0.3781 -0.1351
53204W        W71951  27.730  17.948   6.656  0.0224  0.0523 -0.1358
53205W        W71952  14.030  24.783  14.444  0.0651  0.0804  0.0843
53206W        W71953  10.006  22.862  15.605 -0.2257 -0.0284 -0.0324
53207W        W71954   1.345  16.658  22.045 -0.0682 -0.1049  0.0025
53208W        W71955  26.303  16.387  13.361 -0.1625 -0.2289 -0.1285
53209W        W71956  22.232   2.944  24.745  0.1744 -0.0378 -0.0392
53210W        W71957   3.813  28.616   9.793  0.3949  0.3508 -0.1386
53211W        W71958  18.975   6.849   5.832 -0.2146  0.1903 -0.0093
53212W        W71959  26.830  21.510  13.705 -0.0151 -0.0050 -0.0784
53213W        W71960  16.607   6.432   4.578  0.1156 -0.0677 -0.1488
53214W        W71961  20.633   8.902   4.586 -0.0996  0.2195 -0.0859
53215W        W71962  20.966  25.064  25.359  0.2914 -0.1395 -0.0996
53216W        W71963  24.465   0.663   6.297  0.2256  0.0866 -0.0249
53217W        W71964  31.493  14.285   5.719  0.2240 -0.0794 -0.0309
53218W        W71965   1.241  29.132   5.421  0.0578 -0.3310  0.2515
53219W        W71966  18.545   1.181  24.631 -0.1289  0.2102  0.2163
53220W        W71967  21.804   9.620   2.357 -0.1353 -0.2731 -0.2687
53221W        W71968  12.095  10.836  21.652  0.1965  0.0867 -0.2988
53222W        W71969  11.605  33.075  12.661 -0.2209 -0.2404  0.0348
53223W        W71970   4.155  18.539   4.562  0.0525 -0.1224  0.1791
53224W        W71971  13.969  32.789   0.774 -0.1662 -0.0489 -0.0384
53225W        W71972  12.859  10.683  24.301  0.3769  0.0368 -0.0442
53226W        W71973  13.193   7.285  11.426  0.1206  0.2017 -0.1386
53227W        W71974  25.448   1.230  18.392  0.1025  0.2950 -0.1758
53228W        W71975   9.866   6.313   1.207 -0.0082 -0.0750 -0.1849
53229W        W71976  10.936   2.713  12.707  0.0583  0.0853  0.2177
53230W        W71977   9.835  20.860   3.599  0.0543  0.3527 -0.0640
53231W        W71978  24.956   2.622   0.259  0.2363  0.1247  0.0143
53232W        W71979   9.808  13.694   4.808 -0.0422 -0.1705  0.2091
53233W        W71980   3.133  23.096  19.793 -0.2682  0.1312  0.1456
53234W        W71981  31.537  18.275  25.824  0.0028 -0.1728  0.0390
53235W        W71982  10.927  13.182  24.905 -0.3172  0.0406 -0.1108
53236W        W71983  24.784  14.172   9.286  0.1004 -0.1395  0.1192
53237W        W71984   1.777   3.069  25.791  0.2968 -0.0698  0.2177
53238W        W71985  20.709  28.275  24.996 -0.0710 -0.0279 -0.0242
53239W        W71986  17.866  20.449  10.017 -0.1631  0.0718  0.2515
53240W        W71987  30.571   6.915  18.879  0.0043  0.2321  0.1433
53241W        W71988  13.520  12.982  23.086  0.0429 -0.1550 -0.1139
53242W        W71989  18.139   4.036  22.395  0.0841  0.2897 -0.0785
53243W        W71990  13.077   1.184  25.897  0.0997 -0.1428 -0.2305
53244W        W71991  26.890  11.317  20.184 -0.0275 -0.1334 -0.1612
53245W        W71992  27.887  28.138  21.159 -0.0297  0.0181  0.1692
53246W        W71993   2.657   6.983  15.198  0.1586  0.0397  0.0985
53247W        W71994   0.270  15.295   9.035  0.1742  0.1536 -0.3566
53248W        W71995   8.351  32.285   5.391  0.0584  0.2160 -0.1102
53249W        W71996   8.309  34.416   3.715  0.0487  0.3484  0.2665
53250W        W71997  18.812   8.973  11.591  0.0702 -0.3997 -0.2362
53251W        W71998  12.991  18.085   4.078 -0.1733  0.3175 -0.0422
53252W        W71999  29.698   8.286  19.978 -0.3615  0.0045 -0.0077
53253W        W72000   8.510  22.293  14.049  0.2660  0.1104 -0.0065
53254W        W72001   7.453  16.849  23.103  0.1506  0.0555  0.0223
53255W        W72002  26.136   5.939  10.742  0.0719  0.0436 -0.2102
53256W        W72003  27.701   6.624  10.043 -0.1139  0.0688 -0.1843
53257W        W72004  18.452  11.474  11.416 -0.0075 -0.1111  0.0092
53258W        W72005  10.120  26.881  22.803  0.0471 -0.0304 -0.2954
53259W        W72006   5.452  23.777   3.656  0.1036 -0.4451 -0.0014
53260W        W72007  30.340  29.482   5.236  0.3761 -0.2216 -0.1085
53261W        W72008  16.330  11.089   4.035 -0.0483 -0.1209 -0.1348
53262W        W72009  23.494  27.487   1.954  0.1532  0.2465 -0.0470
53263W        W72010  17.282  17.969  26.169  0.0818  0.1001 -0.1539
53264W        W72011  27.583   6.229  23.877  0.2566 -0.0005  0.2691
53265W        W72012   3.462   7.244  15.159  0.2206  0.1073  0.1218
53266W        W72013  35.368  25.133  21.544  0.3028  0.0604  0.0090
53267W        W72014  16.020  26.090  14.391 -0.0818 -0.3431  0.1787
53268W        W72015   6.476  13.371  20.918  0.0304 -0.1108 -0.1183
53269W        W72016   6.954   6.828   1.849 -0.0602  0.3400  0.0203
53270W        W72017  19.702  31.055  19.353 -0.0692  0.3095 -0.3209
53271W        W72018  24.813  23.820   1.752  0.1177 -0.1580 -0.0964
53272W        W72019  14.977  22.829   1.944 -0.0516 -0.0051 -0.2474
53273W        W72020  28.268   6.033  14.096 -0.1006 -0.0074  0.2520
53274W        W72021  18.422  20.181  21.984  0.1041  0.1403 -0.1771
53275W        W72022  14.302  10.176  10.384  0.0614  0.3206 -0.0960
53276W        W72023  26.481  16.830  15.676  0.1349 -0.3275  0.0997
53277W        W72024   7.778   2.916   5.924 -0.2275  0.1223  0.0135
53278W        W72025  24.975  28.347  23.685  0.0029  0.0925  0.1003
53279W        W72026  11.038   8.098  25.267 -0.5143 -0.1488  0.2692
53280W        W72027  22.860  24.417   4.017 -0.2648  0.1273 -0.1956
53281W        W72028  12.088  11.899   9.091 -0.2517 -0.0111 -0.1025
53282W        W72029  27.349   6.074  22.285  0.0583  0.2128 -0.0465
53283W        W72030   1.993  34.724   5.241 -0.0073  0.3258  0.0918
53284W        W72031  18.806   8.062  24.535  0.1810  0.1711  0.2138
53285W        W72032   3.873   9.907  25.414 -0.3272 -0.4530 -0.3990
53286W        W72033  24.428  21.986  17.253 -0.1700 -0.2244 -0.3068
53287W        W72034   1.932  35.089   7.264 -0.2223  0.1240  0.4027
53288W        W72035  16.633  12.849  22.412  0.1369  0.0231 -0.1135
53289W        W72036   1.757   0.673   0.117 -0.2097  0.0262  0.0236
53290W        W72037  26.924  25.412  20.901 -0.1772  0.0216  0.1296
53291W        W72038  11.892  23.128  14.719  0.0883  0.0548 -0.0450
53292W        W72039  22.313   3.053   6.148  0.0558 -0.1005  0.4274
53293W        W72040   1.125  16.103  23.516 -0.1785 -0.2799 -0.0152
53294W        W72041  13.621  33.453  21.792 -0.0358 -0.1610 -0.0509
53295W        W72042   7.651   3.043  11.604 -0.0260 -0.1424  0.0606
53296W        W72043  31.370  15.908  15.220  0.1688 -0.0618  0.4109
53297W        W72044  21.501  28.483  16.867  0.1774  0.0685  0.1295
53298W        W72045   2.924   5.061   1.372 -0.1792  0.1222 -0.2832
53299W        W72046  23.186  19.027  13.724  0.0198 -0.2224  0.1160
53300W        W72047   3.442  10.463  14.961  0.0242 -0.0338 -0.2705
53301W        W72048  24.677  18.069   0.502  0.0207  0.0156 -0.1410
53302W        W72049  30.485   8.167   8.810  0.0013 -0.2856 -0.1523
53303W        W72050  29.435  17.539  20.055  0.1475 -0.2327  0.2755
53304W        W72051  18.512  35.315   5.881 -0.0828 -0.0058 -0.0969
53305W        W72052  29.472  34.579  21.420 -0.1769  0.3829 -0.2255
53306W        W72053  13.708  10.545   9.222  0.0164  0.0803 -0.2872
53307W        W72054   4.904  32.385  19.253  0.4565 -0.3479 -0.3070
53308W        W72055  22.165   6.969   4.959  0.0572 -0.0736 -0.0126
53309W        W72056  12.552  30.107   7.617  0.0744 -0.1899 -0.0840
53310W        W72057  16.609  17.130  20.406  0.1216  0.3497 -0.0515
53311W        W72058  34.221   0.489  25.234  0.2370  0.2110 -0.2237
53312W        W72059  35.127   1.490  22.763  0.3027 -0.0647 -0.1897
53313W        W72060  13.572  15.358   0.609 -0.0160  0.2500 -0.0458
53314W        W72061  26.830  21.175  25.006 -0.1416  0.0377  0.1541
53315W        W72062   9.329   7.880   8.847  0.1051 -0.1587  0.0562
53316W        W72063  16.048  24.801   2.387 -0.0066 -0.0328  0.1438
53317W        W72064  14.629  30.827  10.533 -0.2065 -0.0725 -0.1869
53318W        W72065  33.098   9.900   2.227  0.1536 -0.0522 -0.1485
53319W        W72066  12.866  13.132  23.681 -0.4633  0.0849  0.0211
53320W        W72067  15.304   0.860   4.526 -0.5199  0.2086 -0.1270
53321W        W72068  24.838  20.798  12.667 -0.0682  0.2219 -0.0129
53322W        W72069  13.647   1.748   2.408 -0.1293 -0.1613  0.0764
53323W        W72070  14.564   3.700  21.812 -0.0849 -0.1414 -0.1099
53324W        W72071  22.116   3.458  22.640  0.0124 -0.2829 -0.1474
53325W        W72072  10.201  33.587   3.731  0.0859 -0.1911 -0.1023
53326W        W72073  26.038  13.770  13.864  0.1079 -0.1839 -0.2205
53327W        W72074  20.000  31.593   1.116  0.2236  0.2969 -0.1120
53328W        W72075  10.176  24.651  15.609 -0.1524 -0.0925 -0.0356
53329W        W72076   5.998  34.068   7.759 -0.1698  0.1137 -0.0645
53330W        W72077   5.270   0.241  10.583 -0.3043  0.0398  0.4369
53331W        W72078  33.025   0.946   5.779 -0.1117  0.1089  0.1053
53332W        W72079  24.131  11.571  26.249  0.1234  0.0454  0.2214
53333W        W72080   6.393  12.555   0.648  0.0724  0.3269 -0.1552
53334W        W72081  22.569  15.988   2.220 -0.1540 -0.0657  0.0504
53335W        W72082  35.010  31.861  24.623 -0.1412 -0.1020 -0.0141
53336W        W72083  28.432  23.153  15.774 -0.0205 -0.2569 -0.0462
53337W        W72084  22.617   3.181  20.767 -0.3528 -0.1191 -0.1384
53338W        W72085  27.582  33.814  11.758 -0.1738  0.0483 -0.0677
53339W        W72086  14.771  17.390   4.350  0.0390 -0.2017  0.0666
53340W        W72087  23.226  27.428  21.803  0.3538 -0.5379 -0.3020
53341W        W72088  18.083  30.812   0.602  0.2674  0.0623  0.4132
53342W        W72089   0.348  13.653  19.144  0.2004 -0.0536 -0.0017
53343W        W72090  34.408  27.445  17.773  0.2184 -0.1112 -0.0230
53344W        W72091  11.096   0.999   7.284  0.1380 -0.3005 -0.0794
53345W        W72092   5.101   0.513   4.309  0.1575 -0.3184  0.0306
53346W        W72093  29.477  27.166  15.080  0.0179 -0.1507  0.1823
53347W        W72094  17.891  23.941   8.880  0.0966  0.0360  0.4376
53348W        W72095  18.779  19.847   9.096 -0.0439  0.1998  0.2934
53349W        W72096   4.607  15.213   6.007  0.0230  0.1159  0.0125
53350W        W72097   0.923  30.844   6.863 -0.1869  0.0867 -0.1403
53351W        W72098  20.012  13.434  19.614 -0.1510  0.0422 -0.1245
53352W        W72099  23.081  12.027  25.447  0.0311 -0.1254  0.2237
53353W        W72100  28.930  10.016  17.012 -0.0636  0.1583 -0.3000
53354W        W72101  18.375  34.387  21.644  0.3885 -0.1310 -0.0292
53355W        W72102  29.815  22.416  22.445 -0.1855 -0.4970  0.1745
53356W        W72103  34.883  10.700  19.867  0.0111  0.3152  0.0974
53357W        W72104  23.944  34.243   5.843 -0.1590  0.1298 -0.1573
53358W        W72105   7.849   3.245  12.448 -0.2840 -0.0982 -0.3968
53359W        W72106  15.568   5.606  11.180  0.1341 -0.1549 -0.0703
53360W        W72107  25.743   8.852  13.330 -0.0441 -0.5360 -0.2515
53361W        W72108   9.133  14.548  22.880  0.1311 -0.1017  0.0295
53362W        W72109  19.802  14.446  22.180 -0.0802  0.0083 -0.0258
53363W        W72110  30.875  35.224   1.662  0.2694 -0.0205  0.2986
53364W        W72111  28.965  25.673   1.815  0.0899 -0.0611 -0.1900
53365W        W72112   5.411  16.993   5.761  0.1242  0.0486 -0.3380
53366W        W72113  14.606   7.381  25.049 -0.1133 -0.1760 -0.0947
53367W        W72114   7.151  29.922  11.076 -0.0271 -0.1243 -0.0023
53368W        W72115  29.773  10.869  11.879  0.1002 -0.3066 -0.1787
53369W        W72116  18.905  25.254  23.042  0.1459  0.1583  0.0085
53370W        W72117  28.104  23.751   8.551 -0.2375  0.0284  0.1755
53371W        W72118   2.556  14.708  22.572 -0.1845 -0.3619  0.1415
53372W        W72119  14.207  28.252  12.153  0.2176  0.0312  0.0836
53373W        W72120  19.938   9.779   7.906  0.0397 -0.1763 -0.1312
53374W        W72121  14.648   6.734   2.638  0.1696 -0.0571  0.0846
53375W        W72122  33.674  18.263   9.881 -0.0633 -0.2066  0.4328
53376W        W72123  19.386  30.392  18.852 -0.0138 -0.1871 -0.1211
53377W        W72124   1.459  18.943  15.600  0.0394 -0.0872 -0.0349
53378W        W72125  15.749  12.161  25.887  0.0715  0.1798 -0.1365
53379W        W72126   4.247   4.600  25.137  0.2038 -0.1544  0.2550
53380W        W72127  18.057  30.666   9.377 -0.0664 -0.3005 -0.0616
53381W        W72128   6.901   9.277  19.012 -0.2378 -0.0784  0.4399
53382W        W72129  33.351   0.438  15.775  0.1574  0.3233 -0.0021
53383W        W72130  11.783  23.318  22.753 -0.0190 -0.3155  0.0310
53384W        W72131  26.206   9.501  19.838  0.0359 -0.0383  0.1544
53385W        W72132   4.153   0.859   0.262  0.0803 -0.0302  0.0272
53386W        W72133   1.397  33.574  20.001  0.1042  0.0121 -0.1704
53387W        W72134  11.999   6.248   3.316 -0.1445 -0.0874 -0.5071
53388W        W72135  34.566  11.888  13.765 -0.1337 -0.1542 -0.0104
53389W        W72136  12.430  15.397   9.820  0.1696 -0.0395  0.2382
53390W        W72137   0.336  10.568  22.838  0.0785 -0.0683  0.2120
53391W        W72138  28.129  13.106  12.951 -0.3218 -0.0754 -0.0150
53392W        W72139   8.205  25.437   6.416  0.1421 -0.3922  0.4234
53393W        W72140   2.167  23.800  22.545 -0.0197 -0.2464 -0.1500
53394W        W72141   9.968   0.681  20.634  0.2744 -0.0279  0.0029
53395W        W72142  21.093  22.233   2.349  0.0030  0.1112 -0.1926
53396W        W72143   3.399  32.620  20.664  0.0646 -0.2120  0.1169
53397W        W72144   9.703  32.567  22.927  0.0714 -0.0493 -0.3572
53398W        W72145  32.560  30.794   1.094  0.1628  0.3648 -0.2427
53399W        W72146  29.726  33.304  13.631 -0.0319 -0.2111 -0.1651
53400W        W72147  16.107  16.176   8.112 -0.0207  0.0901  0.2523
53401W        W72148  17.639  25.560   7.089 -0.0374  0.2317  0.0502
53402W        W72149  26.458  27.480  20.310  0.0709 -0.1764  0.0849
53403W        W72150  12.770  17.534  11.316  0.2349 -0.2090  0.0484
53404W        W72151  11.973  34.455   0.105  0.1666 -0.0738  0.2898
53405W        W72152  10.532  16.441  19.859  0.2110  0.2817  0.3027
53406W        W72153  10.369   4.565  20.547 -0.1426 -0.0094  0.1097
53407W        W72154  28.488  23.838   9.774  0.2598  0.1964 -0.0849
53408W        W72155  26.515  28.548  21.820  0.0273 -0.2327 -0.1591
53409W        W72156  30.528  16.473  17.458  0.0002 -0.1851  0.2185
53410W        W72157  25.429  16.180  16.465 -0.1708 -0.0746 -0.1637
53411W        W72158   7.081  24.301   8.595  0.0973 -0.1044  0.1603
53412W        W72159  13.725  30.074  22.439  0.2193 -0.2326 -0.1201
53413W        W72160  23.510   4.279   5.556  0.0184  0.4408 -0.0934
53414W        W72161   8.218   2.003   9.381 -0.1596 -0.4102 -0.0788
53415W        W72162  16.254  27.330   2.800 -0.0797  0.0916 -0.0591
53416W        W72163  22.688  22.454  14.325  0.1201 -0.2324  0.0923
53417W        W72164  16.250   5.337  23.191 -0.2422 -0.0842  0.3513
53418W        W72165  27.817  29.245   3.937 -0.1259  0.0629 -0.1183
53419W        W72166  16.620  12.359  22.270 -0.1145 -0.1798  0.1640
53420W        W72167  30.331   3.251   4.858 -0.2305  0.3020 -0.1521
53421W        W72168   6.956  19.668   5.882  0.0151 -0.0637 -0.1840
53422W        W72169   9.406   1.040  12.050 -0.2928 -0.1772 -0.0150
53423W        W72170   7.603  19.732   8.007 -0.3061 -0.2605 -0.4081
53424W        W72171  32.170  28.113  22.341  0.1107 -0.1120 -0.0011
53425W        W72172  14.736  34.168   3.069 -0.1317 -0.0742 -0.0159
53426W        W72173  16.513  17.546  13.320  0.1910 -0.1167 -0.1595
53427W        W72174  26.826  31.475   5.332  0.1673  0.1567 -0.1054
53428W        W72175  16.318  34.003  22.831 -0.0964  0.1768  0.1737
53429W        W72176  34.411  10.065  19.179 -0.1082 -0.0680  0.0075
53430W        W72177  28.916   3.156  17.547  0.1054  0.1647 -0.0003
53431W        W72178  26.331   7.010  17.444 -0.1213 -0.0577 -0.0640
53432W        W72179  21.575   7.697  21.948 -0.1484 -0.1062  0.1449
53433W        W72180   5.481  29.010  21.144 -0.2530 -0.0203  0.1124
53434W        W72181   0.106   7.682  12.568  0.0122  0.2399 -0.0651
53435W        W72182   9.122   8.434  12.338  0.1808  0.0245 -0.0548
53436W        W72183   6.633   8.288  10.149  0.0246 -0.3259  0.2561
53437W        W72184  33.147  25.900  24.208 -0.1324  0.1526 -0.1198
53438W        W72185  16.298  17.949  13.235  0.0435  0.1092  0.1324
53439W        W72186  19.925  29.238  20.290 -0.1800  0.1839  0.2867
53440W        W72187   7.476  22.077   2.896  0.2621  0.0979 -0.3718
53441W        W72188   6.087  22.798   1.004  0.2089  0.1194  0.0937
53442W        W72189  34.772  33.577   2.781 -0.2269  0.1743 -0.3660
53443W        W72190  18.527  17.206   1.980 -0.1350  0.0106 -0.1237
53444W        W72191  33.717  30.006   3.371 -0.0284  0.1826  0.1951
53445W        W72192  16.675  26.233   7.454  0.0092 -0.0477 -0.1155
53446W        W72193  31.411  21.346  16.669  0.0404 -0.1597  0.0182
53447W        W72194   2.343  29.596  24.488 -0.1944 -0.0975  0.2399
53448W        W72195  31.216  13.720  22.811  0.2624 -0.1156  0.0127
53449W        W72196  11.992  33.119   3.419 -0.0332  0.0282  0.1138
53450W        W72197  12.059  10.324   5.307 -0.0061  0.2965  0.0271
53451W        W72198   1.025  13.493  23.576 -0.0790  0.2810  0.0358
53452W        W72199  19.222  11.569   5.305 -0.1846  0.1756  0.2492
53453W        W72200   9.671  14.826  24.094 -0.3625  0.2464  0.2917
53454W        W72201  25.852  31.667  18.142  0.1588 -0.0016  0.0287
53455W        W72202  33.619  32.031  18.347 -0.1426  0.2395 -0.1395
53456W        W72203   9.567   9.837  11.616 -0.1239 -0.3068 -0.1421
53457W        W72204  30.290  31.115   6.634  0.4747 -0.1233  0.0239
53458W        W72205   2.192   0.801   8.785 -0.0293  0.0789  0.2835
53459W        W72206  16.674  24.132  10.313  0.1446 -0.0587 -0.0331
53460W        W72207   4.084  15.748  23.262  0.2294  0.0178  0.0984
53461W        W72208  20.735  12.568   3.428 -0.3624 -0.0238 -0.1079
53462W        W72209  30.584  13.332   4.350 -0.2065 -0.1204  0.0624
53463W        W72210   1.100  24.143   0.255 -0.0210  0.1980  0.2649
53464W        W72211   9.896  28.189  21.429  0.3009  0.0061  0.0040
53465W        W72212   7.744  24.296  15.874  0.0539 -0.0217 -0.0881
53466W        W72213  20.789  15.853  21.156  0.2241 -0.2266 -0.0580
53467W        W72214  27.071  20.219  14.462 -0.0620  0.2058  0.1039
53468W        W72215   4.545  19.495   3.213  0.0087 -0.1940 -0.2137
53469W        W72216  13.031  33.929  24.510  0.0855  0.1442  0.3951
53470W        W72217   5.583   7.275  23.343  0.0444 -0.1153  0.1687
53471W        W72218  25.921  34.789  20.420  0.1837  0.0368 -0.0864
53472W        W72219  15.303  33.224  11.634  0.2292 -0.0209  0.1813
53473W        W72220  19.786   4.866   9.364  0.0717 -0.0603 -0.3317
53474W        W72221   6.033  15.745  19.507  0.0776  0.0774 -0.0359
53475W        W72222  35.350  23.939  23.298  0.1083 -0.1671  0.0976
53476W        W72223  29.180  17.217  16.037 -0.0530 -0.2731 -0.3519
53477W        W72224  30.929   1.940  13.415  0.0637  0.3247 -0.5131
53478W        W72225  13.440  20.098   7.930 -0.1001  0.1840  0.0698
53479W        W72226   7.660   4.710  20.263  0.0005  0.1091 -0.1282
53480W        W72227  28.097   8.461  25.267  0.3755 -0.1700 -0.0583
53481W        W72228  29.736  12.206  12.966 -0.0791 -0.0473 -0.1563
53482W        W72229  20.887  34.477  24.079  0.0484 -0.0377  0.1180
53483W        W72230  28.457  16.803  14.785 -0.0941 -0.4714  0.2755
53484W        W72231  27.030   7.127   0.554  0.1941 -0.1397 -0.0494
53485W        W72232   8.614  12.549   0.052  0.0918  0.2811  0.1905
53486W        W72233  18.390   5.349   6.894 -0.3311  0.2181 -0.1092
53487W        W72234  11.173   7.710   7.630  0.2373  0.3855 -0.1794
53488W        W72235  14.176  28.968   5.574  0.0050  0.0719 -0.0722
53489W        W72236  28.795  28.441  10.792 -0.0879 -0.3530  0.3362
53490W        W72237  24.743  23.380  24.370 -0.1783  0.0511  0.1263
53491W        W72238  28.776  14.548   4.696 -0.0083  0.4654  0.1102
53492W        W72239  12.609  17.515   1.654  0.3252 -0.2618 -0.1922
53493W        W72240  33.091  33.726  22.270  0.0554 -0.1945  0.0961
53494W        W72241  16.532  20.177  14.182  0.2092  0.2324 -0.2703
53495W        W72242  17.679  28.846   2.383  0.0895  0.1153 -0.2080
53496W        W72243   7.086  16.203  18.189 -0.2816 -0.0621  0.2307
53497W        W72244  32.626  35.336  19.075 -0.1151 -0.1447  0.1420
53498W        W72245   7.690  34.755  25.031  0.0468  0.0975  0.2282
53499W        W72246  16.107   5.067  22.183 -0.1065  0.0216 -0.0354
53500W        W72247  10.356   4.788  11.643  0.0194  0.0000 -0.1947
53501W        W72248  32.673   8.176  11.208 -0.2004 -0.0868  0.3595
53502W        W72249  17.235   5.449   8.439  0.0801  0.1206  0.1461
53503W        W72250  32.468  32.710   0.042 -0.2597  0.1267 -0.2374
53504W        W72251   1.020   3.624  21.907 -0.2286 -0.2131 -0.1521
53505W        W72252   6.723   6.645  19.045  0.0612 -0.1710 -0.3661
53506W        W72253   2.418   8.689   4.955  0.0786  0.0316 -0.2658
53507W        W72254  15.833  25.418   5.269 -0.0389 -0.1594  0.1051
53508W        W72255   0.711   0.781  23.962 -0.2316 -0.2486 -0.0501
53509W        W72256  16.652  18.294  22.058 -0.0172  0.0657 -0.0921
53510W        W72257   1.818  32.887  19.399 -0.0665  0.1313  0.0969
53511W        W72258  27.063  13.152  15.013 -0.3125  0.2943 -0.0534
53512W        W72259  16.847  16.501   0.442 -0.0212  0.2171 -0.1162
53513W        W72260  22.913  26.527  23.848  0.0995  0.0530 -0.0890
53514W        W72261  34.564   2.503  17.784  0.1212  0.1318 -0.0367
53515W        W72262  11.155  10.107  14.788  0.2959 -0.1054  0.1793
53516W        W72263   1.762  22.609  18.063 -0.0010 -0.2536  0.0379
53517W        W72264  15.535  15.042  19.708 -0.2096  0.0745  0.2931
53518W        W72265   1.611  14.850  19.599 -0.4516 -0.0390 -0.0724
53519W        W72266  34.445  13.712   0.563  0.2095 -0.0611  0.0924
53520W        W72267  10.433   8.742   6.680  0.4013  0.0362  0.4715
53521W        W72268  34.337  10.773  22.417 -0.2694 -0.2041 -0.0647
53522W        W72269   9.647   9.532  10.752 -0.1321  0.0179 -0.1638
53523W        W72270  17.895  25.899   3.517  0.0898 -0.0958  0.0505
53524W        W72271  13.498  25.437  23.006 -0.2594  0.1608 -0.2504
53525W        W72272   9.452   8.670  23.554  0.0450  0.0524 -0.1510
53526W        W72273  28.711  34.871   2.077  0.0875 -0.0789 -0.1900
53527W        W72274  32.704  26.513  14.338 -0.0714  0.1982 -0.2005
53528W        W72275   8.829   5.421   1.329  0.0816  0.0060  0.2288
53529W        W72276  13.009   4.478  13.474 -0.2225 -0.0883 -0.5205
53530W        W72277   6.063  33.314   8.866 -0.1310 -0.0326 -0.2172
53531W        W72278   4.828  12.672   2.534  0.3357 -0.4395 -0.1572
53532W        W72279   1.256  28.831   6.395  0.1382  0.0292  0.3010
53533W        W72280  33.333  12.336  18.847  0.1949 -0.1319  0.2632
53534W        W72281  22.516  14.146  19.734  0.2595  0.3092 -0.0879
53535W        W72282   8.429  12.736  24.154 -0.0842 -0.0051 -0.1957
53536W        W72283   6.765  14.675  23.462 -0.2350 -0.0251  0.0121
53537W        W72284   4.539   9.619  22.481  0.2463  0.2884 -0.1784
53538W        W72285  31.026   1.686  11.523 -0.2579  0.0093 -0.0469
53539W        W72286  21.685  15.847  24.253 -0.1110 -0.2317 -0.2576
53540W        W72287   6.556   6.053  13.253  0.1979  0.3087 -0.3871
53541W        W72288   7.634  25.388   4.358 -0.1564  0.2096  0.2385
53542W        W72289  28.221  20.311   9.244  0.1937 -0.1628  0.2245
53543W        W72290  21.697  27.266  21.995 -0.0139 -0.1823 -0.4957
53544W        W72291  23.864  25.863  21.748 -0.1626  0.0244  0.2185
53545W        W72292  15.217   7.205   0.333 -0.1692  0.2279  0.1806
53546W        W72293  23.529  33.753  12.118 -0.1205 -0.3640  0.0690
53547W        W72294  29.617  31.994  10.926 -0.0546  0.2543 -0.3630
53548W        W72295  27.568   1.576  19.661 -0.0868  0.1734  0.0580
53549W        W72296   8.812  27.941   6.402  0.0649 -0.2334  0.2297
53550W        W72297  20.884  13.748  24.678  0.0073 -0.0999 -0.0328
53551W        W72298   7.324   0.673   6.215 -0.3236  0.1631 -0.1077
53552W        W72299  18.569   9.708   7.037 -0.1762  0.1393  0.0990
53553W        W72300   3.384  32.107   6.663 -0.2874  0.0858  0.2198
53554W        W72301   3.586  30.246  12.003  0.4145  0.0321  0.6370
53555W        W72302  33.922  22.638  13.339  0.0121 -0.0074  0.0581
53556W        W72303  19.578  34.012  26.202  0.0773  0.0335  0.2842
53557W        W72304  15.802  23.725  26.028  0.2283 -0.1549 -0.0327
53558W        W72305  30.544   4.965  11.094  0.0228  0.1797 -0.1697
53559W        W72306  17.614  19.463   8.338 -0.0227  0.0454  0.1690
53560W        W72307  14.939  33.383  21.420 -0.2602  0.1204 -0.0439
53561W        W72308  15.133  33.585  21.910 -0.1235  0.0137 -0.0466
53562W        W72309  16.251   9.651   3.014  0.3325 -0.0135  0.2226
53563W        W72310  24.435  25.514   1.806 -0.1868  0.1621 -0.2546
53564W        W72311   5.915   0.742   0.780  0.0912  0.0576 -0.2582
53565W        W72312  22.650  16.045  24.195  0.0354 -0.0259 -0.0066
53566W        W72313  16.751   6.951   7.681 -0.1412 -0.1547  0.2714
53567W        W72314  27.218  30.164  23.920 -0.2334  0.1965  0.1901
53568W        W72315  27.734   2.591  21.441 -0.0066 -0.1545 -0.3303
53569W        W72316   9.116   8.652   4.521 -0.3008 -0.0869  0.0449
53570W        W72317  24.977   4.677  14.068  0.0517  0.0107 -0.3457
53571W        W72318   8.039  32.289   3.515  0.4083 -0.2541  0.0310
53572W        W72319   7.156   1.775  21.690  0.1536 -0.1291 -0.2028
53573W        W72320   4.555  31.184  10.452  0.2600  0.3005  0.0732
53574W        W72321   7.084  25.150  13.314  0.1567  0.3186 -0.0622
53575W        W72322  27.493   7.036   9.466 -0.1983  0.0202  0.1820
53576W        W72323  10.406  11.671   9.181  0.4347 -0.1342 -0.0941
53577W        W72324  19.677  29.306   6.793 -0.1420  0.1301 -0.1265
53578W        W72325  13.487  17.275  14.067  0.1197  0.2345 -0.0064
53579W        W72326  27.594  10.284  22.100  0.2612 -0.3868  0.0673
53580W        W72327  34.688   6.556  13.122  0.3000  0.1885 -0.0216
53581W        W72328  13.563   6.832  19.385 -0.1665  0.1324  0.1128
53582W        W72329   5.013  32.032  24.216  0.1057  0.2263 -0.0869
53583W        W72330  21.083  15.146  23.376  0.3444 -0.1172  0.2556
53584W        W72331  28.790  29.236  19.622 -0.0986  0.0738 -0.0442
53585W        W72332  18.059   6.148  20.015 -0.1061 -0.1609 -0.1121
53586W        W72333  29.387  16.047  20.018 -0.1228 -0.4196  0.0759
53587W        W72334   7.744  20.188   5.639 -0.2536 -0.2483 -0.0572
53588W        W72335  33.858   5.211  14.669  0.1426  0.0105 -0.3939
53589W        W72336  10.790  10.694   8.895  0.1380 -0.0894 -0.1273
53590W        W72337   4.624  23.949   4.655  0.0589  0.1074  0.0029
53591W        W72338  14.797  27.214   3.818 -0.1295  0.1580  0.1632
53592W        W72339  28.367  30.203  13.309 -0.0501  0.1783  0.0310
53593W        W72340   3.953  27.354  20.638 -0.2149 -0.0825 -0.2626
53594W        W72341  26.949   9.824   8.787  0.0982  0.0601  0.2713
53595W        W72342  22.374   5.411  15.548 -0.2084  0.0290  0.1527
53596W        W72343   2.835   0.295   7.114 -0.2659  0.2214  0.1790
53597W        W72344  22.715   8.266   5.812 -0.3724  0.0701 -0.1015
53598W        W72345  17.055   7.852  24.118  0.0186  0.0866  0.2904
53599W        W72346  26.101  11.893  26.240  0.1202 -0.0947 -0.0260
53600W        W72347   4.607  33.721  22.034 -0.0162  0.0267 -0.2237
53601W        W72348  19.147  32.893   8.248 -0.0537 -0.1575 -0.4012
53602W        W72349  23.617   6.864  19.566  0.2142 -0.3449 -0.0893
53603W        W72350  21.991  27.701  21.834  0.0632  0.0159  0.0585
53604W        W72351  17.796   2.341   1.283 -0.0301 -0.3237 -0.1825
53605W        W72352  20.433   4.849  17.135 -0.1572  0.1105 -0.0627
53606W        W72353  26.286  23.397  11.928 -0.1597  0.0155 -0.1533
53607W        W72354  12.856  12.967  24.650  0.2084 -0.0696 -0.3143
53608W        W72355  30.299  27.695  13.526 -0.1653 -0.1458  0.2382
53609W        W72356  30.069  20.062   7.427  0.1125 -0.1383 -0.1034
53610W        W72357  25.565  23.859  17.173  0.1455 -0.1189 -0.0360
53611W        W72358   7.984   0.142  22.571 -0.0074  0.1898  0.1615
53612W        W72359  32.358  30.484  17.292  0.1038 -0.0027  0.1310
53613W        W72360  34.623  13.396  12.240 -0.0636 -0.1139  0.3960
53614W        W72361  25.069  17.913  15.993  0.2285 -0.0486 -0.3773
53615W        W72362  16.122  10.057   2.083 -0.0339 -0.1042 -0.0618
53616W        W72363   7.114   6.719  18.740 -0.1143 -0.0075 -0.2470
53617W        W72364   7.701  19.824   6.407 -0.3151 -0.1938  0.0895
53618W        W72365  11.568  24.640  15.516  0.2485  0.1763  0.4487
53619W        W72366  35.255   7.974   0.272 -0.0763 -0.0533  0.0973
53620W        W72367   0.882  27.541  16.692  0.0796  0.1713 -0.0710
53621W        W72368  28.372  34.788   5.776 -0.2559 -0.0215 -0.1693
53622W        W72369  12.821  14.679   7.499 -0.0792  0.0120 -0.1180
53623W        W72370   6.579   0.829  25.302  0.1471 -0.3135 -0.1540
53624W        W72371  24.806  18.390  24.320  0.0383  0.0004 -0.0793
53625W        W72372  15.661   6.837  25.863  0.0762  0.1656 -0.0509
53626W        W72373   4.303  12.605   4.247 -0.1743  0.3860 -0.0791
53627W        W72374  19.196  27.424  21.522 -0.0485 -0.1108 -0.0238
53628W        W72375  28.377  33.316   4.456  0.2459  0.0868 -0.1387
53629W        W72376   6.163  10.383   8.762 -0.1323  0.0431 -0.1437
53630W        W72377  15.645  15.306  23.918  0.4231 -0.2265  0.1085
53631W        W72378  34.067  16.469  16.737  0.0980 -0.0605  0.0937
53632W        W72379  23.510   4.893  22.857 -0.0285 -0.0590 -0.1137
53633W        W72380  10.258  12.076  12.196  0.1748  0.0594  0.0790
53634W        W72381  15.415   5.905   9.751 -0.1240 -0.1548 -0.1264
53635W        W72382  10.046  29.866   6.781 -0.0338  0.0253  0.0862
53636W        W72383  24.717  21.324  12.392  0.0254 -0.1725 -0.1416
53637W        W72384  18.152  29.116  21.369 -0.2937  0.1351 -0.0958
53638W        W72385   3.059   3.798  25.985 -0.0144  0.0085 -0.1513
53639W        W72386  21.194  14.577  24.418 -0.0364 -0.0866  0.2277
53640W        W72387  10.790  34.276  10.288  0.0555  0.0164  0.0112
53641W        W72388  14.464  20.357  10.906  0.1052 -0.0274 -0.0293
53642W        W72389  18.553   6.230   7.419  0.1258 -0.0018 -0.0022
53643W        W72390  32.043   4.775  16.231  0.0810  0.2598  0.3137
53644W        W72391  33.103  22.259  16.208 -0.0198  0.0989 -0.5375
53645W        W72392  31.142  30.591  13.036  0.1087 -0.1779 -0.3143
53646W        W72393  33.407  17.343  12.246 -0.0380  0.0488  0.3313
53647W        W72394  33.277  30.479   2.231 -0.1909  0.0761 -0.1857
53648W        W72395  27.818  16.207   7.402 -0.1240 -0.1195 -0.0077
53649W        W72396  22.199  13.631   1.166 -0.0434  0.0077 -0.0864
53650W        W72397  21.208   8.132  24.246 -0.0782  0.1420 -0.1869
53651W        W72398   4.887   8.232   7.934 -0.2737  0.0707 -0.0149
53652W        W72399   3.017  14.163   1.902 -0.2714 -0.0215  0.1691
53653W        W72400  14.203   6.872  23.283  0.2558  0.2305  0.1404
53654W        W72401  19.601   2.773  21.693 -0.0114 -0.0766  0.0301
53655W        W72402  26.668   1.070  22.798 -0.3743  0.0633 -0.1487
53656W        W72403   3.574  11.812   2.706  0.1618  0.1598  0.1389
53657W        W72404   6.800  13.143  21.231 -0.3867  0.2080  0.3406
53658W        W72405   2.893  19.541  23.007 -0.2541  0.0202 -0.2598
53659W        W72406  13.359  11.859   3.480  0.0683  0.1661 -0.0171
53660W        W72407  16.839  19.644  24.622 -0.0670 -0.0217 -0.0268
53661W        W72408  20.606  24.450  22.727 -0.0564  0.0617  0.0657
53662W        W72409  15.706  25.780  22.382  0.1417  0.2033  0.1317
53663W        W72410   0.623   9.158  12.122  0.0565  0.0130 -0.0410
53664W        W72411  19.353  18.785   7.369  0.1756  0.0709 -0.1332
53665W        W72412  28.140  26.062   9.808 -0.1169 -0.0730 -0.2607
53666W        W72413   5.830  16.058  20.386  0.0262  0.3815  0.1826
53667W        W72414  17.689  35.137  21.569  0.1433 -0.2750 -0.0312
53668W        W72415  27.938  32.321   0.971 -0.0713  0.1504  0.1379
53669W        W72416  10.906  28.346   1.427 -0.0463 -0.1409 -0.1666
53670W        W72417  31.069  17.322   9.521  0.0091  0.0803 -0.0789
53671W        W72418  26.032  27.946  22.753 -0.3209 -0.0788  0.0410
53672W        W72419   4.003   3.051  24.989  0.0935  0.1137  0.0820
53673W        W72420  22.055  17.814   3.218 -0.2725  0.0487  0.0459
53674W        W72421   9.089   1.029  15.821  0.0348  0.0748  0.0114
53675W        W72422  12.645   9.398  11.402  0.0637 -0.1029 -0.2062
53676W        W72423  26.399  26.300  10.462  0.0536  0.0675  0.2997
53677W        W72424  13.098  25.329  24.102 -0.2511 -0.0377 -0.1238
53678W        W72425   3.472  31.737  18.452  0.0020  0.0077  0.1260
53679W        W72426  14.943  30.857  20.853 -0.1478  0.2605 -0.3136
53680W        W72427   2.470  20.350  23.501  0.2321 -0.1409  0.0744
53681W        W72428  11.001  30.878  11.238  0.1014  0.0104  0.2939
53682W        W72429   6.371   2.916  26.034 -0.0414 -0.3924  0.0804
53683W        W72430   4.767  15.821  25.760 -0.0995 -0.3956 -0.0480
53684W        W72431  15.801   5.090   9.259 -0.1444 -0.4798 -0.0227
53685W        W72432   9.320   0.374  22.469 -0.0262 -0.1150 -0.2423
53686W        W72433  25.841  15.390  21.446  0.0012  0.1094 -0.3145
53687W        W72434   2.668  26.684  21.718 -0.2493 -0.1229 -0.3756
53688W        W72435   9.440  25.879  11.527  0.2682 -0.0875 -0.0042
53689W        W72436  15.168  28.016  13.332  0.0886 -0.1189  0.1469
53690W        W72437   7.379  29.503  12.049  0.1505 -0.0950  0.3463
53691W        W72438  34.934  30.752   7.558 -0.0915  0.0670  0.3786
53692W        W72439   2.812  34.300  24.549 -0.1030  0.0987 -0.3792
53693W        W72440  20.584   5.484  24.676 -0.3457  0.1516  0.1811
53694W        W72441   0.091  31.006  21.496  0.0099 -0.0408 -0.1020
53695W        W72442  14.789  35.105  24.575  0.2247 -0.0322  0.0544
53696W        W72443  15.150  30.422   3.204  0.1246 -0.3920  0.0745
53697W        W72444  31.066  12.640  12.456 -0.2230 -0.1698  0.2459
53698W        W72445  25.295   4.306  24.108  0.1130 -0.1201  0.2252
53699W        W72446  24.071   7.297  25.630  0.5046 -0.1113 -0.0518
53700W        W72447   1.035  26.085  15.454 -0.2721  0.0521  0.0073
53701W        W72448  31.421  35.167   2.492 -0.1507 -0.1145  0.0427
53702W        W72449   4.047  28.685  25.619 -0.0088  0.0997 -0.1968
53703W        W72450  25.280  34.623   1.082  0.0503 -0.2978  0.1394
53704W        W72451   8.630   7.775   1.345 -0.2673 -0.1868 -0.1674
53705W        W72452  21.236  17.645  25.070  0.1485 -0.1081  0.0272
53706W        W72453   6.671   2.635   6.258  0.0828 -0.0856  0.0330
53707W        W72454   6.563  25.778   5.089  0.1628  0.1649  0.0380
53708W        W72455   6.336   7.677  21.924 -0.0696 -0.1168 -0.1218
53709W        W72456  24.421  10.125  22.900  0.0334  0.1530  0.0996
53710W        W72457   9.337   6.636   1.150 -0.1117  0.2929 -0.1354
53711W        W72458  35.328   0.550  19.140 -0.0620  0.0665 -0.0999
53712W        W72459   5.329  14.841   7.883  0.3322 -0.0328 -0.0676
53713W        W72460   1.120  15.208  13.386 -0.1185 -0.2238 -0.1408
53714W        W72461  18.126  15.692   1.295 -0.0550  0.1871 -0.1780
53715W        W72462  24.303  30.122  21.349  0.1176 -0.2982  0.1292
53716W        W72463  29.852   8.510  15.126 -0.2255 -0.0863  0.1586
53717W        W72464  20.319  11.808  24.917 -0.1342  0.0326 -0.1872
53718W        W72465   8.863  29.504   3.545 -0.2128  0.3151 -0.0875
53719W        W72466  12.250  28.239   6.632  0.1835  0.0169 -0.0452
53720W        W72467  27.853   7.262  20.899 -0.2998 -0.2653 -0.1459
53721W        W72468   2.126  13.404  18.510 -0.2664  0.1588  0.0020
53722W        W72469  19.428   3.921   0.449  0.0118  0.1039 -0.1131
53723W        W72470  17.747   3.803  24.676  0.0882 -0.1687  0.1677
53724W        W72471  30.656   4.883  22.595  0.0431  0.0678 -0.1734
53725W        W72472  11.204   1.139  20.153 -0.0915  0.0458  0.1298
53726W        W72473   6.812   2.608  22.196  0.0226 -0.3162  0.3360
53727W        W72474   5.210   0.817  10.834  0.1894  0.0816 -0.1900
53728W        W72475   2.256  18.738  13.276  0.0171  0.0251  0.0749
53729W        W72476  31.738  31.922   4.116 -0.0112 -0.2303 -0.4679
53730W        W72477  31.990   4.670  23.258 -0.1573 -0.1321 -0.2233
53731W        W72478   4.660  17.283  25.560 -0.0499  0.0923  0.0729
53732W        W72479  34.787  35.241  17.808 -0.1722  0.1947 -0.0992
53733W        W72480  21.384  28.727   4.887 -0.1015 -0.2549 -0.0274
53734W        W72481  17.871  15.032   4.884 -0.0380 -0.0078  0.1756
53735W        W72482   0.301   9.235  22.759  0.2650  0.2777  0.1570
53736W        W72483  33.122  24.568  25.755  0.2652 -0.4157 -0.0263
53737W        W72484  16.707  16.830   9.290  0.2924 -0.0058  0.1504
53738W        W72485   2.872  34.244   0.736 -0.0206  0.0132 -0.2279
53739W        W72486   6.001   0.989   9.767  0.0390 -0.0412 -0.0625
53740W        W72487  25.553  21.075  16.343  0.3548  0.3099 -0.0955
53741W        W72488  20.789  25.952  19.548 -0.0994 -0.0485  0.1895
53742W        W72489  24.556   6.902  18.188  0.0202 -0.0900  0.0005
53743W        W72490  10.710  30.335   2.633 -0.2315 -0.1530  0.1063
53744W        W72491   5.556  28.893  24.484  0.0779  0.0168  0.1954
53745W        W72492  32.528  16.080  11.661 -0.1352 -0.0274 -0.1247
53746W        W72493  24.179  26.014  19.564  0.0385  0.0665 -0.1160
53747W        W72494  11.499  23.841  17.013  0.0922  0.1553 -0.3474
53748W        W72495  33.602  15.375  24.491 -0.1343 -0.0796  0.0162
53749W        W72496  10.757  20.072   0.518 -0.1793 -0.0091  0.0823
53750W        W72497  33.814  26.325  11.734  0.0344 -0.1430 -0.0011
53751W        W72498  30.735  18.750  15.841 -0.1921 -0.1105 -0.1180
53752W        W72499  25.186  24.527  12.502  0.0436 -0.0458 -0.1313
53753W        W72500  31.335  28.020  12.816  0.0865 -0.1280 -0.0390
53754W        W72501  16.086  16.420  21.337 -0.0835 -0.5614 -0.1220
53755W        W72502  34.433  30.735  23.431  0.1964 -0.0951  0.3318
53756W        W72503  26.805  23.663  12.557  0.1738  0.1782 -0.1972
53757W        W72504  19.476  20.959   7.333  0.3508 -0.0875 -0.0593
53758W        W72505   6.233  31.723   6.392  0.2832  0.2227  0.2771
53759W        W72506  12.695  29.156   6.426 -0.0130  0.4314  0.4705
53760W        W72507  24.752  34.177   1.952  0.3964 -0.3633  0.1249
53761W        W72508  33.146   2.795  17.074 -0.3004 -0.0951  0.2346
53762W        W72509  16.139  20.561   6.274 -0.1600 -0.0268 -0.3928
53763W        W72510  30.799  13.121  26.146 -0.0728 -0.0827  0.0593
53764W        W72511  30.301  19.736  12.379  0.0636  0.0782  0.0511
53765W        W72512  17.337   5.657  24.325  0.1396 -0.0578  0.0347
53766W        W72513  21.885  12.962  15.134 -0.1213 -0.2088  0.1568
53767W        W72514  12.103  35.298   2.344 -0.1380 -0.0430 -0.0031
53768W        W72515  25.992   9.786  25.424  0.4475  0.0275  0.2132
53769W        W72516  17.679  20.523  21.363 -0.2846  0.1584  0.2166
53770W        W72517  14.912   8.318  24.778  0.0218 -0.0298  0.2425
53771W        W72518  26.958   8.754  24.191 -0.1993 -0.0076 -0.1203
53772W        W72519  10.978  29.046   0.171 -0.0108  0.1013  0.1858
53773W        W72520  29.032  18.927  14.835 -0.0822  0.1896 -0.0773
53774W        W72521  34.584  28.536  17.067 -0.3021  0.2109  0.0145
53775W        W72522  34.812   2.159   7.472  0.2788 -0.0101  0.1840
53776W        W72523  30.231   6.396  19.326  0.3493  0.3029 -0.1078
53777W        W72524  12.182  26.046  23.476 -0.1033  0.0200 -0.0090
53778W        W72525  19.611  10.021  22.188  0.1458 -0.1398 -0.2339
53779W        W72526   6.557  31.059   0.400  0.0571 -0.1041  0.1835
53780W        W72527   6.065  10.196   4.020  0.0215  0.3841 -0.0643
53781W        W72528  28.082  29.107  16.026 -0.2605 -0.3242  0.1093
53782W        W72529  19.299   8.282  11.085  0.1773  0.0229 -0.0650
53783W        W72530  35.225  29.077  20.201  0.2134 -0.2182  0.0914
53784W        W72531  13.762  17.873  23.506  0.1082 -0.0895  0.2676
53785W        W72532   1.663   5.826  15.650 -0.1530  0.0895  0.1418
53786W        W72533  24.893  32.566  18.066  0.1395 -0.0740 -0.1026
53787W        W72534  20.549  29.029  14.891 -0.0681  0.0192  0.0094
53788W        W72535  28.223  20.081   8.186  0.0500  0.0801  0.2089
53789W        W72536  17.425  13.425  12.530  0.1277  0.1872 -0.2717
53790W        W72537  27.095  31.003  20.454  0.1350 -0.0810  0.1225
53791W        W72538  23.787   1.510  15.314  0.2832  0.0973 -0.1318
53792W        W72539  10.924  13.999  10.284 -0.0382 -0.2109 -0.0523
53793W        W72540  12.231  33.542  13.835  0.2516  0.0850  0.0798
53794W        W72541  22.924  17.968  15.511 -0.1177  0.0283 -0.2770
53795W        W72542  26.128  12.012   0.967 -0.3187  0.2547 -0.3487
53796W        W72543  11.475  12.507  14.090 -0.0694  0.0139  0.2100
53797W        W72544  32.759   1.557  20.470 -0.1494  0.5233 -0.2105
53798W        W72545  28.274  33.604   2.886  0.0767  0.1794  0.1968
53799W        W72546  23.781  25.603   3.976 -0.2480 -0.0047 -0.0343
53800W        W72547  22.211  25.428  20.703  0.2550 -0.0469 -0.0763
53801W        W72548  22.517   5.356   4.273  0.4712  0.2919 -0.0375
53802W        W72549  12.986  27.571  16.441 -0.1641 -0.0446 -0.2255
53803W        W72550   4.429  25.967   1.054  0.1037 -0.4809 -0.0561
53804W        W72551   7.847   1.778  22.445  0.1603 -0.1299 -0.0767
53805W        W72552  26.880   3.748   3.845  0.0459  0.1041  0.0557
53806W        W72553  31.105  14.992   7.527 -0.4185  0.1534 -0.3219
53807W        W72554  11.501   2.844  11.213 -0.2069 -0.2930 -0.2415
53808W        W72555  22.832   1.142   6.803 -0.1102  0.0121  0.0093
53809W        W72556  24.198  20.246  23.987 -0.0167 -0.1267 -0.2196
53810W        W72557  32.393   8.372  18.160  0.2916  0.0118 -0.1102
53811W        W72558  25.356   8.595  18.186  0.0746 -0.1794 -0.0301
53812W        W72559  10.604  28.349  22.047  0.0478  0.0101  0.0722
53813W        W72560   5.455   0.853  22.800 -0.0167 -0.2184 -0.1158
53814W        W72561   8.220  30.657  10.267 -0.2602  0.1386  0.2495
53815W        W72562   1.752   6.091  22.855 -0.2183 -0.3910  0.0129
53816W        W72563  34.350  33.505  24.267  0.1627 -0.0652 -0.0490
53817W        W72564  19.537  13.289  10.288 -0.0269  0.3296  0.1912
53818W        W72565  15.147  12.223   7.903 -0.0968  0.1899  0.2081
53819W        W72566  19.924  28.033  25.330  0.1296  0.0943  0.3222
53820W        W72567  22.829  20.802   2.411  0.0631  0.3081 -0.2777
53821W        W72568  33.223  31.325  17.943 -0.1968  0.0548 -0.3347
53822W        W72569  27.357  13.039  25.781 -0.0240 -0.2140 -0.1422
53823W        W72570   6.841   4.261   6.119  0.1335 -0.1025 -0.1150
53824W        W72571  15.321   7.196  21.116  0.3724  0.0504  0.0023
53825W        W72572  18.241   0.886   8.600  0.2239 -0.1215  0.1479
53826W        W72573  15.723   9.769   9.124  0.1841  0.0649  0.0470
53827W        W72574   9.578  28.768   7.741 -0.1816 -0.2668 -0.2375
53828W        W72575  18.570   3.021  22.871 -0.2429  0.2156  0.1916
53829W        W72576   3.272  27.836  10.262  0.0981  0.2614 -0.2151
53830W        W72577  15.198   1.839  25.516  0.0845  0.1497  0.1251
53831W        W72578  29.266   6.590  13.355 -0.0223 -0.3188  0.3249
53832W        W72579  14.663   7.542   7.321  0.3739  0.1094 -0.3873
53833W        W72580  12.267  10.964   2.698  0.0393  0.2515 -0.0334
53834W        W72581  22.530  21.737  24.409 -0.0078 -0.2181 -0.2684
53835W        W72582  26.776  26.597  20.184  0.4877  0.1258  0.0101
53836W        W72583  33.084   9.859  23.237  0.0014  0.1245  0.0824
53837W        W72584  11.255   4.909  25.922  0.1487 -0.1327 -0.2549
53838W        W72585  17.530   8.249   0.788 -0.1418  0.0079 -0.0438
53839W        W72586  16.027  33.824  20.659 -0.1049  0.0454  0.2133
53840W        W72587   8.283   4.747  21.943  0.0266  0.0009  0.1477
53841W        W72588   2.798  20.498   2.008  0.1800  0.4201  0.0345
53842W        W72589  22.035   7.838  15.552  0.1505  0.3404  0.0879
53843W        W72590  19.854  19.279   3.033 -0.1007  0.0841 -0.1720
53844W        W72591   0.936   7.329  19.060  0.0177 -0.0485 -0.2313
53845W        W72592  28.199  28.033  24.954  0.0693  0.1749 -0.0863
53846W        W72593  16.239  33.727  19.193  0.0489  0.0533 -0.5092
53847W        W72594   8.386  21.969  21.786 -0.1137  0.0251  0.1164
53848W        W72595  25.149  20.980  23.447 -0.2474  0.0492 -0.2546
53849W        W72596  33.947  10.946   1.782  0.0301 -0.1104 -0.4156
53850W        W72597  20.398   4.172   5.685  0.1695 -0.0055 -0.0108
53851W        W72598  27.242  29.056  10.066 -0.1366  0.1551 -0.3330
53852W        W72599  30.557   1.437   3.938  0.1017 -0.2702  0.0860
53853W        W72600  26.541  25.257   1.167  0.1157 -0.1545  0.2299
53854W        W72601  34.257  35.038  25.611 -0.1331 -0.1121  0.2696
53855W        W72602  22.344   4.166  20.958 -0.0039 -0.2084  0.1118
53856W        W72603   6.718  27.123  14.859  0.1921 -0.1337 -0.0463
53857W        W72604  24.796  20.445  16.230 -0.2033  0.0330  0.0406
53858W        W72605  12.474  31.666   5.249 -0.0953 -0.1351  0.2138
53859W        W72606  34.364  17.676  23.386 -0.0770 -0.1962  0.0479
53860W        W72607  34.864   2.699   0.445 -0.1819  0.0517  0.2932
53861W        W72608  24.327  16.142  14.215 -0.2292 -0.1507  0.0348
53862W        W72609  14.019  25.473   2.922  0.0060 -0.2632  0.3896
53863W        W72610   3.774   5.710  16.850 -0.0691  0.1572  0.0367
53864W        W72611   5.527   7.214  22.238  0.2379 -0.1393  0.1505
53865W        W72612  30.191  19.441   8.487  0.0122 -0.0777  0.0180
53866W        W72613  29.692  15.956  22.970 -0.1652 -0.0594  0.0238
53867W        W72614  28.683  23.473  13.078  0.0439 -0.1261  0.0791
53868W        W72615  27.098  27.435   2.878 -0.0539  0.1217 -0.2497
53869W        W72616  33.751   1.486   5.804  0.2668  0.3307 -0.2731
53870W        W72617   0.337   6.694  12.564  0.3460  0.1224 -0.0927
53871W        W72618  33.733  25.805   0.441  0.0182  0.0170  0.1848
53872W        W72619  28.816  11.538  22.006  0.2688 -0.1053 -0.0269
53873W        W72620  12.802  18.507   5.325 -0.0497  0.0359 -0.1914
53874W        W72621   9.506  15.530   3.322 -0.1270  0.0266  0.3822
53875W        W72622  14.975  22.509  15.229 -0.0016  0.0596 -0.0042
53876W        W72623   9.013   2.636  11.043  0.0969  0.4945  0.4865
53877W        W72624   2.691   8.916  17.938 -0.1031 -0.1008 -0.4705
53878W        W72625  20.392  34.649   2.111 -0.2971  0.0847 -0.2306
53879W        W72626  32.797  35.171  25.089 -0.2380 -0.2137  0.2419
53880W        W72627  11.205  20.565  22.687  0.0820 -0.0846  0.0799
53881W        W72628   4.588  10.085   7.554  0.2155 -0.3695  0.0050
53882W        W72629  22.258  24.860   1.908  0.2413 -0.3173 -0.2200
53883W        W72630  15.752   4.696   0.533 -0.2309 -0.1483  0.2802
53884W        W72631  10.375  34.480   3.354  0.1770  0.0786  0.2504
53885W        W72632   6.195  19.570  25.715 -0.3754 -0.0936 -0.1027
53886W        W72633  13.868   7.564   4.084 -0.2382  0.1445  0.0277
53887W        W72634  33.655  16.557   6.657 -0.1253  0.1779  0.4152
53888W        W72635   3.099  15.736  20.655  0.2865  0.1943 -0.1081
53889W        W72636  17.227  30.153   4.045 -0.1252 -0.1754 -0.1373
53890W        W72637  17.079   0.005   9.893 -0.3486 -0.1130 -0.0307
53891W        W72638   1.999  19.558  22.523  0.1872 -0.0119 -0.3663
53892W        W72639  12.152  28.434  23.297  0.0965  0.0915 -0.1057
53893W        W72640  24.003  29.616   3.112  0.1197  0.0328  0.1147
53894W        W72641  22.607   3.604  16.446  0.0416 -0.1767 -0.2276
53895W        W72642  23.381  34.392  12.953 -0.2079  0.0646  0.0088
53896W        W72643   1.049   3.476  14.745  0.3359 -0.1117  0.0233
53897W        W72644  14.563  33.196   3.261  0.0769 -0.4294  0.1110
53898W        W72645  16.433  11.646   2.565  0.1709 -0.0993  0.0117
53899W        W72646  22.314  24.215  22.006 -0.0422  0.0611 -0.4136
53900W        W72647   9.233  32.324  12.828  0.0410 -0.0912  0.3012
53901W        W72648  24.984   3.759  24.385 -0.0861 -0.0410 -0.1338
53902W        W72649  21.576  34.603  21.336  0.1281 -0.1122 -0.0880
53903W        W72650  12.137  10.587  12.983  0.0246  0.3709 -0.2475
53904W        W72651  29.250   1.803  13.157 -0.0076 -0.0095  0.2067
53905W        W72652  13.396  30.398   9.860  0.1984 -0.0845 -0.1085
53906W        W72653  22.957  11.344  17.469  0.1805 -0.2218  0.2210
53907W        W72654   2.524  20.865  22.452  0.0761  0.2093 -0.0287
53908W        W72655   9.087   4.657   9.941  0.0340  0.0957 -0.0353
53909W        W72656  16.680  20.026   2.715  0.1140 -0.2473  0.0488
53910W        W72657  33.741  28.634   4.419  0.2377  0.1006  0.0744
53911W        W72658   9.109  19.820   9.547  0.0329  0.0428 -0.1546
53912W        W72659  12.774  32.628   6.283 -0.1390 -0.0095 -0.3484
53913W        W72660  18.637  26.511  24.547 -0.0006 -0.2011 -0.0964
53914W        W72661  35.146  20.855  12.543  0.3429 -0.0855  0.0517
53915W        W72662  29.752   5.630  26.165  0.0930  0.2279 -0.1073
53916W        W72663  26.364   9.726  20.875  0.1037 -0.0351  0.0186
53917W        W72664   1.785  30.781   3.592  0.4451  0.0117 -0.0546
53918W        W72665  10.534   5.699  10.080  0.0041 -0.0657 -0.1163
53919W        W72666   4.669  11.526   0.265 -0.0726  0.1118  0.1179
53920W        W72667  20.763  30.477  21.575 -0.1267 -0.1072  0.0824
53921W        W72668   5.936  24.700  23.587 -0.2122  0.0042 -0.0002
53922W        W72669  24.291  26.081  19.099  0.1850 -0.2296  0.2521
53923W        W72670  15.714  10.635  20.359 -0.0081  0.1292 -0.1334
53924W        W72671  18.688   4.976  18.368 -0.1206  0.3126  0.2360
53925W        W72672   1.224  31.473   1.668 -0.2471 -0.1924  0.2406
53926W        W72673  18.023   4.617  25.680 -0.3395 -0.0180  0.1052
53927W        W72674   5.302  10.158   1.583 -0.2098  0.0069 -0.3628
53928W        W72675  21.575   6.760   2.234 -0.0906  0.1052  0.0969
53929W        W72676  16.438   6.511  12.404 -0.1783  0.4920 -0.0829
53930W        W72677   7.753  30.486   2.315  0.1286  0.3670 -0.3144
53931W        W72678  34.791  26.829  25.659  0.1608  0.0749  0.0773
53932W        W72679  33.154  18.386  19.685 -0.1039  0.0787  0.3614
53933W        W72680  21.653   1.727  19.150 -0.0646  0.0178  0.2021
53934W        W72681   7.110  23.946   3.664 -0.0938  0.2160  0.1069
53935W        W72682  16.009   3.875  18.042  0.0116  0.2261 -0.0306
53936W        W72683   1.212  24.934  23.381 -0.2010 -0.2186 -0.0404
53937W        W72684  21.579  30.634   4.823  0.1850 -0.0588 -0.1449
53938W        W72685   8.137  27.439  25.026  0.1696  0.2047  0.0571
53939W        W72686   8.438  27.535   1.071  0.0063  0.0724  0.0440
53940W        W72687  32.467  32.318  16.919  0.0538 -0.1417 -0.0338
53941W        W72688  28.742  13.412  24.447  0.0174 -0.1150  0.2334
53942W        W72689   5.857  18.221  24.107 -0.0902  0.0236  0.2185
53943W        W72690  30.495  22.798   8.359  0.3610  0.1134 -0.1048
53944W        W72691  12.557   0.601  20.093  0.1614  0.1745  0.1129
53945W        W72692   6.923  30.917   2.340  0.1732 -0.0390  0.1280
53946W        W72693  33.694  30.490  15.049  0.1608  0.0059  0.0775
53947W        W72694   6.922  13.803  11.043  0.0380  0.0133  0.1480
53948W        W72695  21.987  26.473   1.110  0.2608  0.0792  0.2668
53949W        W72696   7.593  15.282   6.086 -0.4054  0.1046  0.2811
53950W        W72697  20.096   5.637   6.619 -0.1446 -0.0684  0.1909
53951W        W72698  27.258   2.411  13.888 -0.0893  0.1285 -0.0341
53952W        W72699  15.121  34.365  20.525 -0.1215 -0.0138  0.1377
53953W        W72700   9.607  22.310   4.524  0.2787  0.1121 -0.3730
53954W        W72701  24.238   7.818  23.152 -0.0296  0.1229  0.1134
53955W        W72702   9.083  29.679   8.012 -0.2157  0.1210  0.0258
53956W        W72703  23.336  22.667  24.886 -0.1005  0.0004 -0.2155
53957W        W72704  32.372  27.369  17.751 -0.1567  0.2099 -0.0189
53958W        W72705   8.566   8.835   5.082 -0.1037  0.0707  0.2055
53959W        W72706  19.455   6.808  20.723 -0.1447 -0.1346 -0.1333
53960W        W72707  28.838  10.693  10.177  0.1608  0.0825  0.1387
53961W        W72708  33.029  18.178  20.134  0.0385  0.1119 -0.5275
53962W        W72709  32.504   7.965  17.872 -0.0479  0.1326  0.1717
53963W        W72710  14.679   9.926  14.125 -0.0231  0.0944  0.0523
53964W        W72711  19.620  13.429   1.761 -0.5297 -0.2492  0.0276
53965W        W72712  25.817  23.013  16.272 -0.2492 -0.0130 -0.0097
53966W        W72713  22.351   6.126  19.881 -0.0047  0.1188 -0.1835
53967W        W72714  28.928  12.566  17.567  0.1312 -0.0902 -0.4880
53968W        W72715   3.134  32.863  18.319  0.0104  0.1090  0.3962
53969W        W72716   9.553   3.401  23.201 -0.2814 -0.3786 -0.0629
53970W        W72717  11.451   1.921   5.134 -0.0597 -0.0872 -0.0891
53971W        W72718  18.597  18.319  21.809  0.1892  0.0406 -0.0141
53972W        W72719  29.359  35.248   3.887 -0.1480 -0.3328 -0.0806
53973W        W72720  18.924   1.641  22.335  0.2566  0.4083 -0.2602
53974W        W72721  25.247  32.606  23.006 -0.1043 -0.0868 -0.1020
53975W        W72722  14.086  10.146  11.890 -0.3849  0.0981  0.0187
53976W        W72723  15.349  20.257  22.618  0.3336  0.1748  0.0193
53977W        W72724  20.688   4.113  22.619 -0.0514 -0.1492  0.1710
53978W        W72725   9.674  15.300   7.220 -0.2020  0.2830  0.0153
53979W        W72726  24.508  30.913   3.995  0.1745 -0.3431  0.0012
53980W        W72727   2.753   0.878   2.208 -0.0638 -0.1086 -0.0040
53981W        W72728  11.173  21.845   8.004  0.1558 -0.1648 -0.2651
53982W        W72729  31.629  23.017   7.311 -0.0085 -0.0350 -0.0744
53983W        W72730   0.902   3.618   4.909  0.1035 -0.0175 -0.0804
53984W        W72731  31.081  11.084  17.472 -0.0722  0.0206  0.0627
53985W        W72732  24.469  10.859  17.375 -0.1330 -0.0847  0.0161
53986W        W72733  15.206  27.728  25.023  0.6326  0.4037 -0.1505
53987W        W72734  28.057  27.883  23.181 -0.2041 -0.0197 -0.2436
53988W        W72735  22.585   3.415   7.548  0.1366 -0.0162 -0.2505
53989W        W72736   6.119   3.172  11.781  0.1479  0.1037 -0.1332
53990W        W72737  31.732  23.048  22.394 -0.0171  0.1585 -0.0650
53991W        W72738   3.352  28.210   9.005 -0.0086 -0.1061  0.0072
53992W        W72739   4.968   0.062   4.414  0.0918 -0.2286  0.3447
53993W        W72740  20.575  13.236  25.436 -0.2352  0.0980  0.2087
53994W        W72741  23.752  18.812  24.395 -0.0261  0.1171 -0.4146
53995W        W72742   4.558  25.744   0.248 -0.0722 -0.0081 -0.2910
53996W        W72743   5.043   3.210  10.249  0.2238  0.1297 -0.0607
53997W        W72744  29.006   2.918   6.110 -0.0549  0.1654 -0.1319
53998W        W72745  21.321  15.141  16.321  0.2606 -0.0012 -0.1534
53999W        W72746   4.991  26.562  21.100  0.1622 -0.0436  0.4287
54000W        W72747  29.478  20.818   4.947  0.2443  0.1110 -0.4598
54001W        W72748   6.726  25.569  26.124  0.1960 -0.0877  0.6207
54002W        W72749  19.862  29.444   2.910  0.1379  0.2545 -0.3121
54003W        W72750  18.106  30.373  17.823 -0.4047  0.0039 -0.0516
54004W        W72751   8.895  35.084  23.532 -0.1301 -0.0057  0.0152
54005W        W72752  11.862  17.686  12.032 -0.1567 -0.0314 -0.3140
54006W        W72753  14.191  22.764  15.298  0.0702  0.3443 -0.1596
54007W        W72754   9.550   1.847   2.498  0.0574 -0.2340  0.0752
54008W        W72755   4.761  27.964  23.084 -0.0009 -0.2213 -0.0560
54009W        W72756  20.648   7.896  19.873 -0.1959 -0.0503 -0.0487
54010W        W72757  32.076  11.016  12.780  0.0984  0.1426  0.3588
54011W        W72758  30.730  15.395   5.460 -0.1992  0.0314 -0.1394
54012W        W72759  25.346  19.255  22.058 -0.0799  0.2381 -0.1720
54013W        W72760  12.365  25.768   1.789 -0.1585  0.0221 -0.1858
54014W        W72761  29.989  20.479   4.008  0.2523 -0.1549  0.1357
54015W        W72762  32.987  25.376  14.415  0.3075  0.0501  0.4053
54016W        W72763  21.255   0.333   4.843 -0.1306 -0.2218 -0.3249
54017W        W72764  13.374  27.931   7.356  0.2177 -0.1175  0.4180
54018W        W72765  14.073  35.071   2.129 -0.3469  0.2352 -0.1255
54019W        W72766   3.642  24.379   6.458 -0.0892  0.0968 -0.0269
54020W        W72767   8.004  24.900   9.881 -0.0611 -0.3884 -0.0529
54021W        W72768  18.459  16.316  18.435 -0.0056  0.1658 -0.1226
54022W        W72769  24.804  29.583  10.853 -0.1910 -0.1895  0.1390
54023W        W72770   6.665   8.937  20.058 -0.1810 -0.1099 -0.0195
54024W        W72771  30.386   8.914  25.812 -0.1289 -0.0893  0.0764
54025W        W72772  31.741  15.270   8.986  0.2662  0.0436  0.3096
54026W        W72773  26.464  26.532  24.864  0.1781 -0.1420 -0.0551
54027W        W72774  14.537  27.401   5.137  0.1066  0.0272 -0.1731
54028W        W72775   5.648   3.124  22.661  0.0741 -0.2943 -0.0023
54029W        W72776  13.079   8.449   1.190  0.0020  0.2469  0.0953
54030W        W72777  29.679   6.162  18.139 -0.1934  0.2678 -0.1860
54031W        W72778   4.863  12.361  23.514 -0.1995 -0.0876  0.1072
54032W        W72779  10.231   6.523   2.439 -0.1012 -0.3521 -0.0229
54033W        W72780   2.996  29.848  20.271  0.0643 -0.2361 -0.1161
54034W        W72781   2.767  10.463   3.635  0.2168  0.2044  0.0364
54035W        W72782  28.309  16.747   6.962 -0.1183  0.1228  0.1642
54036W        W72783   9.256   2.606   8.167 -0.1723 -0.0064 -0.0086
54037W        W72784  24.509   1.422  20.328 -0.0565 -0.1850  0.0646
54038W        W72785  31.167  18.614  16.098  0.0318  0.2302 -0.0595
54039W        W72786   4.601  23.919  21.205  0.0328 -0.0517 -0.4770
54040W        W72787  24.179  24.216  16.988  0.0123 -0.1185 -0.0090
54041W        W72788  30.556  16.334  15.971 -0.0809 -0.2098  0.2274
54042W        W72789  13.954   1.339   0.317  0.0424 -0.1687 -0.0141
54043W        W72790  34.740  20.584  14.292 -0.0089 -0.0531  0.1114
54044W        W72791  27.716   3.244  17.886  0.0934  0.1483 -0.0473
54045W        W72792  33.889  21.192   0.181  0.2007 -0.2288 -0.1967
54046W        W72793   1.340   5.767  21.081 -0.1519 -0.1149  0.0783
54047W        W72794  34.963  29.757   0.336  0.1691 -0.2206 -0.0738
54048W        W72795   7.361  14.065   9.203  0.0830 -0.0078 -0.2171
54049W        W72796  31.613   5.810  26.077  0.0845 -0.0549 -0.2163
54050W        W72797   6.358   6.066   7.041  0.2483  0.1961  0.2897
54051W        W72798  19.764  32.943  24.686  0.4052  0.1478 -0.1249
54052W        W72799  28.350   0.703  19.891  0.0203  0.1608 -0.1462
54053W        W72800  22.358   1.734  14.461  0.1963  0.0812  0.1122
54054W        W72801  31.751   2.059  24.239  0.1110  0.1119  0.2470
54055W        W72802  26.922  14.050   8.047  0.3238  0.0546 -0.0893
54056W        W72803  30.119   3.325   1.317 -0.3550 -0.1494  0.0940
54057W        W72804   3.602  17.893  18.294 -0.0824 -0.2103 -0.1797
54058W        W72805  15.055  32.253  22.019 -0.3099 -0.1106 -0.0524
54059W        W72806   1.870  33.617   4.216  0.2052  0.1751 -0.1180
54060W        W72807   7.640  15.935   4.848  0.0788  0.1836 -0.1056
54061W        W72808  23.687   4.065  20.010 -0.1950 -0.1205  0.2052
54062W        W72809  13.869  15.914   8.769  0.0430  0.0007  0.1556
54063W        W72810  18.656  25.204   3.525  0.0036  0.0533  0.1562
54064W        W72811   7.152   0.754  12.417  0.0130  0.0078 -0.0309
54065W        W72812  23.587  29.511  21.713 -0.0172 -0.0686  0.0881
54066W        W72813  26.231  30.122  15.727 -0.0629 -0.0279  0.1787
54067W        W72814  30.652  34.159  16.323 -0.0215  0.1094 -0.3176
54068W        W72815  13.929  25.377  13.391  0.2583 -0.5144  0.1979
54069W        W72816  19.014  31.695  20.209  0.2591  0.3077  0.0842
54070W        W72817  28.757  19.870  10.228 -0.1600 -0.1298  0.1111
54071W        W72818   1.597  34.173   6.893 -0.2560 -0.1588 -0.2057
54072W        W72819  35.186  25.211   0.768  0.1109 -0.2033 -0.0224
54073W        W72820  28.403   1.007  24.725 -0.1628  0.0834  0.4067
54074W        W72821  17.572  12.115  22.800  0.2295 -0.0177  0.1716
54075W        W72822  22.205  34.809  17.074 -0.1582 -0.0097 -0.0580
54076W        W72823  11.272   2.271   2.408 -0.0401  0.1164  0.1541
54077W        W72824  34.751  22.559  15.908  0.1726  0.0245  0.2306
54078W        W72825   2.261  31.673   1.566 -0.0667 -0.3536  0.2612
54079W        W72826  16.402  26.183   2.402 -0.2293 -0.0142  0.0603
54080W        W72827   4.284  11.044   4.308 -0.3023  0.1988 -0.0140
54081W        W72828  35.059  15.375  20.756  0.0156 -0.0896  0.2285
54082ION    NA+72829  25.104  31.702   1.945 -0.0190  0.0180  0.1654
54083ION    NA+72830  22.546  34.615   7.066  0.2437 -0.2435 -0.1927
54084ION    NA+72831  13.021  28.363   0.593 -0.0381 -0.1562  0.0980
54085ION    NA+72832  21.051   9.715   8.939  0.2823  0.0747  0.0173
54086ION    NA+72833   2.944  30.272   6.441 -0.2738  0.2409 -0.0772
54087ION    NA+72834  31.533   3.353  16.970 -0.0528 -0.0914 -0.1078
54088ION    NA+72835  33.665  25.801  24.902 -0.0404 -0.1238  0.1093
54089ION    NA+72836  22.828   2.698  22.256  0.1514  0.0986  0.2038
54090ION    NA+72837  33.984   8.160  21.256  0.1984  0.2858  0.3089
54091ION    NA+72838  26.479  12.787   1.306 -0.2143 -0.1579 -0.0683
54092ION    NA+72839  15.145  20.115   8.689 -0.3437 -0.0730  0.0045
54093ION    NA+72840  35.273   1.449  17.079  0.1605  0.2371 -0.2486
54094ION    NA+72841   9.607  24.189  16.431 -0.3534 -0.1779  0.1533
54095ION    NA+72842  12.352  16.538   1.760 -0.0788  0.1465 -0.0907
54096ION    NA+72843  12.717  30.918   5.702 -0.2752 -0.0545  0.2472
54097ION    NA+72844  22.630  31.051  24.769  0.3086  0.4292  0.0910
54098ION    NA+72845  16.161  29.488   6.599 -0.0253 -0.2795  0.2373
54099ION    NA+72846  20.254   3.714  23.905 -0.1022  0.2447  0.1194
54100ION    NA+72847   5.547  21.910  25.113  0.1442 -0.2972  0.1820
54101ION    NA+72848  12.437  25.119  25.447 -0.3425  0.1132 -0.0038
54102ION    NA+72849  13.390  13.597   4.116 -0.0051  0.0421 -0.1540
54103ION    NA+72850  16.962  31.021  11.228  0.1212 -0.0570  0.1727
54104ION    NA+72851  29.705  18.293  22.661 -0.1098  0.1163 -0.3620
54105ION    NA+72852  23.223  25.076   4.365  0.1549  0.2138 -0.2008
54106ION    NA+72853  31.245  18.820  14.785  0.0386  0.1348  0.0855
54107ION    NA+72854  14.823  27.280  22.184  0.0513 -0.0433  0.3552
54108ION    NA+72855  23.912  25.244   0.353 -0.0269  0.1594  0.1463
54109ION    NA+72856  24.910   3.327  14.624  0.3189  0.0847  0.2899
54110ION    NA+72857   3.529  10.641   3.041  0.1572 -0.3666 -0.1112
54111ION    NA+72858  19.792   9.757   9.289 -0.1091  0.0751  0.1619
54112ION    NA+72859  26.033   6.250   1.555  0.2834 -0.1201 -0.0543
54113ION    NA+72860  27.608  15.706  19.347  0.0302  0.1697 -0.0504
54114ION    NA+72861   3.209  35.000  24.948  0.0547  0.0732  0.0686
54115ION    NA+72862  19.796  11.855  24.637  0.1053  0.1073 -0.2663
54116ION    NA+72863   8.021  14.583  17.928  0.4909  0.0534  0.0463
54117ION    NA+72864  35.295   2.972  17.100  0.3162  0.1277  0.2337
54118ION    NA+72865  24.608   4.540  23.709 -0.0552  0.0775  0.0159
54119ION    NA+72866  32.941  19.079  25.094  0.5110 -0.0208  0.0074
54120ION    NA+72867   0.094  31.962   1.615  0.0155  0.0508  0.2218
54121ION    NA+72868  34.212   2.878  15.786  0.0153 -0.3287  0.1496
54122ION    NA+72869  30.355  11.806  25.206 -0.3242 -0.1930  0.0186
54123ION    NA+72870  17.262  16.535   6.075 -0.1874 -0.0740  0.1646
54124ION    NA+72871   8.750   8.204  22.304  0.3483  0.1469  0.2801
54125ION    NA+72872  23.805   7.685  20.667 -0.0359 -0.0781  0.1106
54126ION    NA+72873  18.968  15.819  17.371 -0.1297 -0.1424 -0.2752
54127ION    NA+72874  34.668  34.267   8.328 -0.1439  0.1353  0.3612
54128ION    NA+72875  28.686  28.940  13.158  0.0623  0.1342  0.0072
54129ION    NA+72876  18.288  30.054   5.648 -0.0793  0.3463 -0.0683
54130ION    NA+72877  11.276   5.665   7.789  0.0719  0.0587 -0.1065
54131ION    NA+72878   5.169  31.104  24.320 -0.1358  0.0022  0.0937
54132ION    NA+72879  31.229  29.803  19.802 -0.1277 -0.1417  0.0242
54133ION    NA+72880   8.509  34.325  20.787  0.2126 -0.0218 -0.0506
54134ION    NA+72881  15.832  27.318  15.547 -0.2998 -0.1260 -0.2075
54135ION    NA+72882  29.576  14.609   4.223 -0.2341 -0.1266  0.1882
54136ION    NA+72883  15.095  25.329  16.971 -0.0775  0.1071 -0.0808
54137ION    NA+72884   7.567  16.091  24.336  0.0789 -0.0371 -0.3632
54138ION    NA+72885  15.204  12.934  19.379  0.1014  0.0631 -0.0039
54139ION    NA+72886  31.787  11.624   6.992  0.1674 -0.1640  0.0273
54140ION    NA+72887  26.361  17.276   9.471  0.0174 -0.1614 -0.2403
54141ION    NA+72888  10.995  11.761  13.977 -0.1670 -0.1229  0.0967
54142ION    NA+72889  16.835  31.815   8.576 -0.1969  0.3460 -0.0821
54143ION    NA+72890  33.239  33.181  17.945 -0.3061 -0.1722  0.1728
54144ION    NA+72891   1.133  18.795  21.381  0.0592 -0.1471 -0.0337
54145ION    NA+72892  20.221  24.449   0.438  0.2003 -0.1367 -0.4348
54146ION    NA+72893  14.006  14.507  23.264  0.0895  0.4014  0.1459
54147ION    NA+72894  29.003   2.689  18.217 -0.1352  0.0375  0.0931
54148ION    NA+72895  34.587  11.549  15.398  0.1735  0.0637  0.2253
54149ION    NA+72896   0.529  33.691   7.769 -0.6088  0.2359  0.1149
54150ION    NA+72897  21.958  35.024  15.147  0.0311  0.2828  0.3605
54151ION    NA+72898  16.661  15.939  24.388  0.0608 -0.0389 -0.1105
54152ION    NA+72899  20.459  19.763   7.277  0.0891  0.1253 -0.2541
54153ION    NA+72900   7.335  22.596   4.308 -0.1489 -0.1246  0.2596
54154ION    NA+72901  27.852  27.891   9.281  0.0574 -0.5748  0.3173
54155ION    NA+72902  29.138  10.649  11.749  0.1569 -0.1763 -0.1702
54156ION    NA+72903  29.209  17.394  13.143 -0.0849  0.1740  0.1960
54157ION    NA+72904   6.394   5.951   1.582  0.0648  0.1935  0.2025
54158ION    NA+72905  23.270  27.433   2.446 -0.1968 -0.0743 -0.1001
54159ION    NA+72906  10.237   1.529  20.317  0.1229 -0.1802 -0.1713
54160ION    NA+72907  22.008  11.171   3.963 -0.0411  0.1827 -0.2081
54161ION    NA+72908  27.150  14.953   4.939 -0.1915 -0.0574  0.1808
54162ION    NA+72909  24.076  11.926  11.769  0.0568  0.2152  0.0442
54163ION    NA+72910  11.369  20.454   0.046 -0.2113  0.0008  0.0075
54164ION    NA+72911   2.633  10.820  20.806 -0.1357 -0.0777  0.0821
54165ION    NA+72912  17.281   1.682  20.973 -0.1971  0.1581  0.1671
54166ION    NA+72913   8.018  31.289   2.620 -0.2736  0.1252 -0.1190
54167ION    NA+72914  14.685  31.851  21.113 -0.2410 -0.0923  0.2869
54168ION    NA+72915  32.236  23.274  17.751 -0.0261 -0.1090  0.2402
54169ION    NA+72916   8.657   3.335  22.876  0.1354  0.4265 -0.0937
54170ION    NA+72917  20.070   2.478  23.198  0.0298 -0.0257  0.2206
54171ION    NA+72918  23.235  12.824  15.981  0.1457 -0.0587 -0.0607
54172ION    NA+72919  19.802  25.387  23.103  0.1534  0.0182  0.0981
54173ION    NA+72920   7.028  29.860  24.625 -0.0671 -0.2241  0.0788
54174ION    NA+72921  10.311  14.872  12.944 -0.1860 -0.1385 -0.1279
54175ION    NA+72922  19.449   8.714   4.018  0.0508 -0.2251 -0.2044
54176ION    NA+72923  30.802  12.214   8.667 -0.0239 -0.4115  0.2048
54177ION    NA+72924  28.793   7.180  18.767 -0.1141 -0.2679 -0.0414
54178ION    NA+72925  19.072   0.846   2.787 -0.0136  0.2190  0.2692
54179ION    NA+72926  11.839   6.289   8.311 -0.4155  0.0592 -0.0036
54180ION    NA+72927  29.050  33.485  14.576 -0.3974 -0.0771  0.0177
54181ION    NA+72928  29.187  14.833  24.137 -0.1135  0.0979 -0.0513
54182ION    NA+72929   8.786  28.108  24.006  0.0523 -0.3191  0.1053
54183ION    NA+72930  23.160  31.468  19.013 -0.1172 -0.0635 -0.0289
54184ION    NA+72931  29.097  18.240  11.836 -0.3187 -0.0662  0.0737
54185ION    NA+72932  33.506  21.863  12.161 -0.0971 -0.3474 -0.1732
54186ION    NA+72933  18.695   2.036  20.035 -0.2823  0.0840  0.2636
54187ION    NA+72934  26.163  17.211  12.955  0.0180  0.2720 -0.2430
54188ION    NA+72935  20.249  14.575   2.760 -0.0417  0.0753 -0.2801
54189ION    NA+72936   0.551  28.705  19.199  0.0925  0.3249  0.1294
54190ION    NA+72937  11.008  19.739  21.837 -0.4015  0.0938 -0.2192
54191ION    NA+72938  21.683   6.945   5.189  0.0061 -0.0665 -0.1099
54192ION    NA+72939  22.467   4.462  18.870 -0.1342 -0.2618  0.0432
54193ION    NA+72940  29.127  29.863  22.940  0.1505 -0.2384  0.1085
54194ION    NA+72941  13.471  14.563  10.221 -0.2426  0.0251  0.0150
54195ION    NA+72942  33.653  32.010   8.211  0.2252 -0.0298 -0.4809
54196ION    NA+72943  16.967  31.942  10.544 -0.1748  0.3122  0.1710
54197ION    NA+72944  25.806  14.017  23.511  0.0054  0.0317 -0.0950
54198ION    NA+72945   0.776  25.531  20.019  0.1060 -0.0200 -0.2106
54199ION    NA+72946   8.409   6.083  22.004  0.3366 -0.3531 -0.1936
54200ION    NA+72947  17.686   9.829  20.942  0.0623  0.0729 -0.0403
54201ION    NA+72948  12.048   6.855  23.400 -0.2040 -0.1107 -0.1595
54202ION    NA+72949  12.372  29.988  14.082  0.3194 -0.1472 -0.0826
54203ION    NA+72950  16.885  28.669  10.696 -0.1278  0.0611  0.0980
54204ION    NA+72951   4.810  23.885   8.586  0.3093  0.1775  0.0087
54205ION    NA+72952  25.267  27.321   2.730 -0.3916  0.0751  0.4288
54206ION    NA+72953  11.091   1.897   5.498 -0.3327  0.2586 -0.0976
54207ION    NA+72954  15.539  21.877   2.233 -0.0898  0.0242 -0.2177
54208ION    NA+72955  19.603  22.130   4.151 -0.3397  0.1481  0.2447
54209ION    NA+72956  21.904   8.537   2.744 -0.2587  0.0447  0.0698
54210ION    NA+72957  12.791   9.657  21.046 -0.0165 -0.0708 -0.1258
54211ION    NA+72958   2.461  12.334  14.640 -0.1245 -0.0377 -0.0349
54212ION    NA+72959  12.820  14.839   4.373 -0.3529  0.0407 -0.1131
54213ION    NA+72960   2.130  23.847  15.673 -0.1159  0.1889 -0.0659
54214ION    NA+72961   7.252   5.619   3.180 -0.2989 -0.0340  0.2722
54215ION    NA+72962  27.781   3.793  24.543 -0.2375  0.4126  0.0032
54216ION    NA+72963  22.158  13.582  17.245 -0.0627 -0.6169  0.2038
54217ION    NA+72964   0.497  27.654   1.115 -0.0407  0.3189 -0.0223
54218ION    NA+72965  23.339  10.449  14.373  0.0005 -0.2288 -0.0434
54219ION    NA+72966  28.635  31.915  22.570 -0.0608 -0.1206  0.0525
54220ION    NA+72967  28.657   0.236   0.751  0.1724  0.1021  0.1908
54221ION    NA+72968  17.575  22.317   7.169 -0.1687  0.2374  0.1600
54222ION    NA+72969  13.115  27.754  13.013  0.4217 -0.1368 -0.2459
54223ION    NA+72970  19.160  21.697  25.201  0.0283  0.4478  0.2112
54224ION    NA+72971   1.559  26.664   5.608  0.2664  0.0403 -0.0136
54225ION    NA+72972   3.928  17.877  21.950  0.1131  0.1290 -0.1759
54226ION    NA+72973  27.445   1.030   4.687 -0.0473  0.0571  0.1577
54227ION    NA+72974  21.798  19.177   3.616 -0.0675  0.0989 -0.0465
54228ION    NA+72975  10.551   9.521  25.511  0.0311  0.0013 -0.1074
54229ION    NA+72976   8.216  29.997  15.757 -0.0278  0.1882 -0.0765
54230ION    NA+72977  31.490   9.487  15.618 -0.2883 -0.2754 -0.1870
54231ION    NA+72978   9.420  20.251  13.802  0.2527 -0.0080  0.0792
54232ION    NA+72979   3.639  23.696  17.303 -0.1501  0.0108 -0.0402
54233ION    NA+72980   8.519   8.540  21.978 -0.1819  0.0411 -0.1322
54234ION    NA+72981  34.835  11.947  22.294 -0.1620 -0.0514  0.3679
54235ION    NA+72982   3.987   6.440  20.613  0.1135 -0.1693  0.0358
54236ION    NA+72983   4.334  26.437   7.046 -0.1172 -0.0410 -0.0667
54237ION    NA+72984  27.208  34.502  18.462 -0.0294 -0.1240 -0.1656
54238ION    NA+72985   4.040   8.901  24.025  0.1612  0.3583  0.0315
54239ION    NA+72986  11.559   7.398   7.398  0.1604 -0.1652  0.1816
54240ION    NA+72987  11.469  19.469  23.556  0.0399  0.0568 -0.1574
54241ION    NA+72988   9.774  19.978   3.676 -0.2186  0.0292  0.2786
54242ION    NA+72989  35.138  17.965  16.105 -0.1051  0.1397  0.1696
54243ION    NA+72990  18.340  21.694   7.317  0.3080  0.2416 -0.0519
54244ION    NA+72991   8.002  31.691   4.522 -0.0839  0.0044 -0.4025
54245ION    NA+72992  19.114  20.731   2.505  0.1953 -0.0379 -0.1041
54246ION    NA+72993  34.568   6.679  13.928  0.1701 -0.1120  0.0357
54247ION    NA+72994  13.837  32.514   8.140 -0.3343 -0.2030 -0.1952
54248ION    NA+72995  28.123  14.095  11.197 -0.0621  0.0524  0.0949
54249ION    NA+72996   5.974  29.139  20.253 -0.0803 -0.1266 -0.1866
54250ION    NA+72997  16.813   9.209  21.609 -0.2546  0.1920 -0.1264
54251ION    NA+72998  33.816  12.631   7.934  0.1533  0.3244 -0.3408
54252ION    NA+72999  11.183  21.821   1.976 -0.0146 -0.4329 -0.0257
54253ION    NA+73000  24.674  23.733   2.289  0.0386  0.2035 -0.1939
54254ION    NA+73001  31.636  12.857  23.862  0.1666 -0.1249 -0.0320
54255ION    NA+73002  21.621  29.977  18.366 -0.0716  0.0329  0.0250
54256ION    NA+73003  18.778   1.175   4.279  0.1884  0.0536  0.3338
54257ION    NA+73004   1.600  22.647  14.165  0.2288 -0.1521  0.1330
54258ION    NA+73005  20.420  20.942  17.706 -0.0834 -0.1990  0.0500
54259ION    NA+73006  16.608   8.561   9.383  0.0079  0.0947  0.2098
54260ION    NA+73007  33.852  22.391   1.315  0.2724  0.2283  0.2331
54261ION    NA+73008  22.870  16.394  23.305 -0.1025  0.0230  0.2294
54262ION    NA+73009  23.842  26.637  18.430  0.1140  0.3836 -0.0771
54263ION    NA+73010  19.992  13.795   9.130 -0.3342  0.1735  0.0101
54264ION    NA+73011  24.298  10.525   0.259 -0.0711  0.0930 -0.0038
54265ION    NA+73012  29.388   9.011   7.978  0.0574  0.1819 -0.3390
54266ION    NA+73013  19.687  31.615  17.707  0.0577 -0.0253  0.1346
54267ION    NA+73014  28.466  16.848  21.812  0.1532  0.0811 -0.0488
54268ION    NA+73015  20.424  15.141   4.512 -0.0072  0.1244  0.3600
54269ION    NA+73016   8.566  20.758  11.321  0.1420  0.4182  0.1270
54270ION    NA+73017   8.975  16.993   5.601  0.5535  0.0132  0.0308
54271ION    NA+73018  17.221  22.510   8.230 -0.1007  0.2385 -0.0183
54272ION    NA+73019  34.356  31.623  19.253 -0.4233 -0.2658  0.0779
54273ION    NA+73020  34.506  33.751  17.937 -0.0183 -0.1319  0.1672
54274ION    NA+73021   0.172   6.114  25.885 -0.0891  0.2180 -0.1402
54275ION    NA+73022  33.410  12.481  25.362  0.2375 -0.2005  0.0726
54276ION    NA+73023  25.784  31.836  18.852 -0.0543  0.4141  0.1831
54277ION    NA+73024  32.681  14.844  21.504 -0.0638  0.1086 -0.2758
54278ION    NA+73025  24.511  27.751  25.555 -0.1618 -0.0335 -0.1309
54279ION    NA+73026  12.560  19.006   4.524  0.3285 -0.1544  0.1479
54280ION    NA+73027   8.812  10.836   5.509  0.3793  0.0312  0.0950
54281ION    NA+73028  25.479  17.303   7.321  0.1111 -0.0639 -0.2340
54282ION    NA+73029   9.130  25.885   2.146  0.1723  0.1962 -0.2677
54283ION    NA+73030  26.744  22.492   8.826  0.1935  0.0550  0.0044
54284ION    NA+73031  23.715   3.753   2.965  0.0506  0.0105 -0.0658
54285ION    NA+73032   3.011  25.434  22.201  0.0057 -0.0531  0.1252
54286ION    NA+73033   6.359  14.747   2.507 -0.0669  0.0869 -0.2245
54287ION    NA+73034  15.289  20.673   4.029  0.1276 -0.1739  0.2214
54288ION    NA+73035   1.322   0.130  24.537 -0.1190  0.0255  0.0090
54289ION    NA+73036  15.848  18.000   8.078  0.1709  0.2454 -0.1763
54290ION    NA+73037  25.336   3.475   6.252 -0.1244 -0.1126 -0.2418
54291ION    NA+73038  17.421   1.530  23.639  0.1484 -0.0659  0.0867
54292ION    NA+73039  11.511  34.726   4.007  0.0611  0.0598  0.1488
54293ION    NA+73040  24.586  27.467  21.705  0.1040 -0.1487 -0.1380
54294ION    NA+73041  28.490  15.655   6.451  0.1923 -0.5963 -0.2335
54295ION    NA+73042  34.242  29.049  24.499  0.0765  0.2693 -0.0104
54296ION    NA+73043  30.248  24.731   0.886  0.3413 -0.0893  0.0991
54297ION    NA+73044  31.569   3.619  20.092 -0.3700  0.1113  0.0690
54298ION    NA+73045   9.184  19.576   3.284 -0.2228 -0.2946  0.0099
54299ION    NA+73046   6.258  21.907  20.134 -0.1060 -0.0948  0.1394
54300ION    NA+73047  22.166  14.341  14.276  0.0993  0.0771 -0.1112
54301ION    NA+73048  17.999  33.548   1.375 -0.2737  0.1456 -0.2443
54302ION    NA+73049   6.083  27.539   6.589  0.1567 -0.1251 -0.2429
54303ION    NA+73050  30.296   9.461   9.742  0.0402  0.0344  0.2435
54304ION    NA+73051  15.195  20.331  13.978 -0.2404  0.0679 -0.5643
54305ION    NA+73052  27.413  14.763  15.202 -0.1067 -0.1928 -0.5256
54306ION    NA+73053  12.281  31.999  20.356 -0.1242 -0.0546 -0.1435
54307ION    NA+73054   5.258  24.835  10.941  0.1021 -0.0115 -0.1227
54308ION    NA+73055  34.601  16.922  21.394 -0.0089  0.0543 -0.1254
54309ION    NA+73056   2.362   3.908  23.481  0.1059 -0.1151 -0.2881
54310ION    NA+73057   7.475  11.353  20.338 -0.3111 -0.0845 -0.1482
54311ION    NA+73058   3.089   3.981   8.321  0.0587 -0.1976 -0.2324
54312ION    NA+73059   9.205  10.789   0.002 -0.0041  0.0372  0.3645
54313ION    NA+73060  33.019   0.493  14.126  0.1165 -0.0346 -0.1443
54314ION    NA+73061   0.174   4.354   0.717  0.1232  0.1977  0.2357
54315ION    NA+73062  32.786  14.518  25.191 -0.1951 -0.2829 -0.0784
54316ION    NA+73063   2.159  34.335  18.702  0.1620 -0.1190 -0.2922
54317ION    NA+73064   2.463  18.041  19.377  0.1710  0.1493  0.0247
54318ION    NA+73065  13.433  28.784  13.440  0.0177  0.2416  0.1004
54319ION    NA+73066  24.020  29.370  22.921  0.1403  0.1745  0.0428
54320ION    NA+73067  20.160   5.052  11.026 -0.1060  0.2145  0.0619
54321ION    NA+73068  11.071  25.000  12.231 -0.2258 -0.1780 -0.2344
54322ION    NA+73069   7.850   7.386   0.538 -0.1922  0.1119  0.1998
54323ION    NA+73070  26.673  29.145  21.160  0.0218 -0.0416 -0.2821
54324ION    NA+73071  24.322   5.832  26.161  0.0456 -0.0761 -0.4176
54325ION    NA+73072  21.219  26.974  15.192  0.0588  0.2205 -0.1749
54326ION    NA+73073   6.468  34.273  19.553  0.3043  0.1340  0.2554
54327ION    NA+73074  11.960   3.016  20.867 -0.4239 -0.1432 -0.0900
54328ION    NA+73075  12.084   6.077   4.374 -0.0581 -0.1113 -0.4361
54329ION    NA+73076  28.691   9.405   0.675 -0.1197 -0.0336  0.0353
54330ION    NA+73077   8.808  25.956  10.800  0.1912  0.0601 -0.1659
54331ION    NA+73078   9.542   8.124  19.719  0.1549  0.0082  0.0953
54332ION    NA+73079  17.130   5.481  12.687  0.0569 -0.0907  0.0169
54333ION    NA+73080  12.405  13.965  18.592  0.2061 -0.0909 -0.0137
54334ION    NA+73081  13.640   9.665  18.944 -0.1324  0.3483 -0.0994
54335ION    NA+73082  14.878  12.051  14.321  0.3655  0.0296 -0.0256
54336ION    NA+73083  33.346   1.342  16.098  0.0654  0.1144 -0.1290
54337ION    NA+73084  25.652  22.105  10.495  0.1887  0.1776  0.0697
54338ION    NA+73085  25.422  15.183   0.716  0.2710 -0.0333 -0.2893
54339ION    NA+73086  32.625  19.871  16.970  0.2745  0.1075  0.3120
54340ION    NA+73087  33.443  10.133  16.432  0.1919  0.2198 -0.0455
54341ION    NA+73088   3.319   0.043   9.973 -0.1277  0.3198 -0.0431
54342ION    NA+73089  18.545  12.575  11.834  0.1378 -0.1810 -0.0908
54343ION    NA+73090   1.339  16.193  23.006  0.0234  0.1417 -0.3198
54344ION    NA+73091  25.529  16.152  17.468 -0.3737 -0.3458  0.1631
54345ION    NA+73092   3.649  10.580  25.009 -0.2180  0.2398 -0.2263
54346ION    NA+73093  26.582   9.005  13.589 -0.0539 -0.4909  0.2626
54347ION    NA+73094   2.125  19.482   3.565 -0.2769  0.2610 -0.1637
54348ION    NA+73095  21.338  20.442  25.312 -0.0615 -0.1178  0.1040
54349ION    NA+73096  26.987  22.031  19.182  0.1101  0.3173 -0.0041
54350ION    NA+73097  28.706  16.382  18.756  0.0315  0.0571 -0.0781
54351ION    NA+73098  14.055   4.053   1.467  0.0826 -0.3371  0.3436
54352ION    NA+73099  31.085   9.290  12.536 -0.2041 -0.0180  0.0004
54353ION    NA+73100   0.234  34.401   6.260  0.0004 -0.0014  0.2924
54354ION    NA+73101  25.642  33.190  24.768 -0.2751 -0.0942 -0.1239
54355ION    NA+73102  23.004   1.568   0.247 -0.0121 -0.0540  0.0430
54356ION    NA+73103  15.266   6.047  26.198  0.3216 -0.1496  0.0837
54357ION    NA+73104  17.985   9.249  21.659 -0.0368  0.3886 -0.1004
54358ION    NA+73105   4.264  30.872  10.115  0.0856 -0.2109  0.0585
54359ION    NA+73106   6.429  29.408  14.653 -0.0554 -0.0237  0.0045
54360ION    NA+73107  14.191   8.019  21.298  0.0998 -0.0247  0.0835
54361ION    NA+73108  32.499  18.158  18.264 -0.0861  0.0067 -0.1468
54362ION    NA+73109  16.961  32.260   2.833  0.0962 -0.1496  0.0592
54363ION    NA+73110   2.634  19.974  12.257 -0.2492  0.1753 -0.0400
54364ION    NA+73111   3.108  32.989   5.077  0.4717  0.0031  0.0152
54365ION    NA+73112   3.743  28.448   1.870  0.3579 -0.0308 -0.0143
54366ION    NA+73113  18.799   4.092  16.219 -0.0784  0.1403  0.0085
54367ION    NA+73114  15.165  22.701  11.716 -0.0784  0.1511  0.1503
54368ION    NA+73115  17.993  34.624  23.264  0.0220 -0.0665  0.0262
54369ION    NA+73116  21.398   4.693   8.780 -0.2017 -0.0890  0.0489
54370ION    NA+73117  15.712  20.248   8.230 -0.2667  0.1026 -0.2167
54371ION    NA+73118  26.658   3.580   4.756 -0.3406  0.0343  0.2088
54372ION    NA+73119  12.898  27.995  21.685  0.0847 -0.1244  0.1095
54373ION    NA+73120  30.835  32.457  17.073 -0.0855  0.2451  0.3702
54374ION    NA+73121  16.968  32.320  25.934 -0.0878 -0.1400  0.2644
54375ION    NA+73122  21.236  31.571  17.820  0.0071 -0.1895  0.2139
54376ION    NA+73123  29.699   0.352   1.022 -0.0597 -0.1580  0.1001
54377ION    NA+73124  14.443  28.252  25.998  0.0512  0.2064  0.2111
54378ION    NA+73125  31.834  23.998   8.764 -0.4587  0.3753  0.2328
54379ION    NA+73126  15.890  11.898  12.920  0.0588 -0.1139 -0.0301
54380ION    NA+73127   1.792  25.274  23.310 -0.1493  0.0452 -0.0381
54381ION    NA+73128  32.509   5.204  15.350  0.0940  0.2443  0.2804
54382ION    NA+73129  31.912  17.575   8.529  0.0814  0.0740  0.0130
54383ION    NA+73130  29.775   7.185  23.309 -0.0848  0.0215 -0.3549
54384ION    NA+73131   8.123   6.737  20.257 -0.3395 -0.0268 -0.1466
54385ION    NA+73132  29.486   4.795  11.755 -0.2479 -0.1134  0.1021
54386ION    NA+73133  18.836   3.329   3.319  0.3019 -0.4657  0.0606
54387ION    NA+73134  26.097   0.562  12.255  0.0165  0.1761  0.2812
54388ION    NA+73135  27.355  31.353  17.699  0.1279  0.1541 -0.0712
54389ION    NA+73136   3.325   0.322   6.869 -0.2324 -0.4573  0.0491
54390ION    NA+73137  14.733  16.384   3.848 -0.1364  0.3447 -0.1996
54391ION    NA+73138   1.222   5.454   0.073 -0.2720 -0.0592 -0.3372
54392ION    NA+73139  24.429  30.353  10.095 -0.1533  0.0654 -0.1300
54393ION    NA+73140   7.858  24.178   7.216 -0.0422  0.1129  0.2585
54394ION    NA+73141   9.592   2.326   2.211 -0.3051 -0.2989  0.0281
54395ION    NA+73142  22.891  18.887  22.101  0.3011  0.0154  0.0001
54396ION    NA+73143  31.161  17.644  21.165 -0.2624  0.0153  0.2372
54397ION    NA+73144   9.217  17.547  20.356 -0.3159 -0.1385  0.3482
54398ION    NA+73145  19.444  21.605  22.546  0.3021  0.4283  0.1315
54399ION    NA+73146   2.214  15.163  18.396 -0.0490  0.1383 -0.0759
54400ION    NA+73147  14.515  32.310   9.827 -0.1593  0.3640  0.1768
54401ION    NA+73148  25.301  30.078  22.859  0.1309 -0.1964 -0.0656
54402ION    NA+73149   2.582  33.530  11.838  0.0717 -0.0925 -0.0085
54403ION    NA+73150  31.680   5.861  13.096 -0.2901 -0.2599 -0.0367
54404ION    NA+73151   4.114  30.808  21.602  0.0105 -0.3768  0.1310
54405ION    NA+73152  33.008  11.419   1.039  0.0660 -0.1052 -0.1772
54406ION    NA+73153  11.803  28.543  12.197 -0.0211 -0.3769 -0.1266
54407ION    NA+73154  15.575  12.151   9.335  0.1683 -0.1803 -0.4353
54408ION    NA+73155  32.917  11.281   8.500 -0.0157  0.0010  0.2089
54409ION    NA+73156   9.032  27.388  10.850 -0.1077  0.0974  0.0807
54410ION    NA+73157   2.788  23.483  19.629  0.0158 -0.0353 -0.1412
54411ION    NA+73158  10.046  35.234   1.189  0.1873 -0.0191  0.0427
54412ION    NA+73159  24.040   6.280  24.383 -0.0190  0.1696  0.3920
54413ION    NA+73160  32.479   3.944  12.359  0.1423 -0.0102 -0.1344
54414ION    NA+73161  15.182  15.604  21.376  0.0698  0.1517 -0.3393
54415ION    NA+73162  17.794  11.854  12.478 -0.1279  0.0917 -0.1428
54416ION    NA+73163  34.175  31.966  22.976 -0.3798  0.0356 -0.2211
54417ION    NA+73164  19.952  13.784   1.355 -0.3033 -0.3521 -0.0783
54418ION    NA+73165   4.576   7.667   4.645 -0.3435  0.1931  0.0168
54419ION    NA+73166  26.400  14.066  13.563  0.0548  0.1246 -0.0261
54420ION    NA+73167   1.933  26.769   7.596  0.0785  0.1220 -0.4051
54421ION    NA+73168  20.502  10.129  25.426  0.5425 -0.0947  0.2046
54422ION    NA+73169  32.308  27.829  10.681  0.1196 -0.0773 -0.1752
54423ION    NA+73170  17.905   1.983  21.453 -0.1522 -0.2932 -0.2087
54424ION    NA+73171  19.795  24.850   1.388 -0.1187 -0.4461 -0.2765
54425ION    NA+73172  10.041  14.115   1.392  0.0399  0.2534 -0.2041
54426ION    NA+73173  12.985  29.176  14.364  0.1898 -0.1930  0.0649
54427ION    NA+73174  29.672  12.947  18.149  0.0408  0.0081  0.2448
54428ION    NA+73175   3.862  13.613  16.533  0.0847  0.0669 -0.1118
54429ION    NA+73176  30.025   7.921  12.710 -0.1330  0.3267 -0.1453
54430ION    NA+73177  26.641  29.041   0.094 -0.2552 -0.2500 -0.1106
54431ION    NA+73178  27.442  25.985   8.163  0.0153 -0.1818 -0.0782
54432ION    NA+73179  16.331   6.495   0.252 -0.2192  0.1088  0.1563
54433ION    NA+73180  20.047   2.858   1.443 -0.3125  0.1119  0.0613
54434ION    NA+73181  34.530  14.901  14.901  0.2531  0.0926  0.2975
54435ION    NA+73182  28.813  17.941  15.375  0.2222  0.1516  0.0026
54436ION    NA+73183  12.801  22.487  22.486  0.0423 -0.1594  0.2276
54437ION    NA+73184   8.265  24.422  25.075  0.2196  0.1664  0.1762
54438ION    NA+73185  32.953  30.832  20.590 -0.1820  0.2166 -0.0413
54439ION    NA+73186  28.834   6.427  21.185  0.1504 -0.2653 -0.1758
54440ION    NA+73187  17.008  17.879  25.723 -0.0943 -0.0841 -0.0937
54441ION    NA+73188  26.256  29.235  22.553  0.2423 -0.2873 -0.5381
54442ION    NA+73189   0.427  26.437   4.757 -0.1523  0.1143  0.0765
54443ION    NA+73190  29.624  17.856  25.201 -0.0125  0.1831  0.0421
54444ION    NA+73191   5.876  23.679  10.185 -0.0666  0.2090 -0.1348
54445ION    NA+73192  30.805  29.747  19.077 -0.0542  0.1526  0.5246
54446ION    NA+73193   8.103  23.846   0.782 -0.1401  0.0554 -0.1377
54447ION    NA+73194   5.804  24.540   3.172  0.2172 -0.1020 -0.0756
54448ION    NA+73195  29.518   3.998   5.670  0.0032  0.3106  0.2131
54449ION    NA+73196  18.813  31.692   2.772 -0.0503  0.1754 -0.2084
54450ION    NA+73197  12.936   0.449   9.455 -0.0020 -0.1259  0.0710
54451ION    NA+73198  26.884  33.430   6.145 -0.0067 -0.0836  0.0017
54452ION    NA+73199   7.778  33.506   7.437  0.0016 -0.2765 -0.0925
54453ION    NA+73200  34.266   6.780  15.466  0.1579 -0.0886 -0.0699
54454ION    NA+73201  31.176  14.576  26.186  0.0553 -0.1797 -0.3947
54455ION    NA+73202  22.607  17.929  19.454  0.0650 -0.0166  0.0029
54456ION    NA+73203  30.237   3.044  22.814 -0.2434 -0.1089 -0.1700
54457ION    NA+73204   8.992   1.969   8.870 -0.0087 -0.0444  0.2498
54458ION    NA+73205  24.915  29.839   5.361 -0.1245 -0.5665  0.0958
54459ION    NA+73206   9.325   0.589   2.273 -0.0774  0.1114 -0.1656
54460ION    NA+73207  20.772  25.412  17.803 -0.1137  0.1218  0.0354
54461ION    NA+73208  20.406  30.619  15.552  0.0943 -0.2262  0.0962
54462ION    NA+73209  31.521  17.950  14.385  0.4055  0.0650  0.1181
54463ION    NA+73210  15.229   8.560   6.570 -0.0867  0.1205 -0.5028
54464ION    NA+73211  20.822  22.449  24.921  0.1065 -0.3021 -0.2503
54465ION    NA+73212   1.736  31.668  22.815  0.1106  0.2281 -0.0725
54466ION    NA+73213  17.747   8.070   1.474  0.3718  0.0172 -0.5298
54467ION    NA+73214  32.710   6.640   4.704  0.1234  0.0534 -0.2564
54468ION    NA+73215  34.440  16.374  23.114 -0.1935 -0.2631  0.0905
54469ION    NA+73216   1.609   9.849  22.001 -0.0111 -0.1838 -0.3713
54470ION    NA+73217  31.311  11.445  25.069  0.1626 -0.1735 -0.0242
54471ION    NA+73218   8.252  30.692  13.050 -0.0841  0.0509  0.0087
54472ION    NA+73219  29.794  22.838  15.317 -0.1312 -0.4862  0.0061
54473ION    NA+73220  13.580   0.248   3.797 -0.2434 -0.1237 -0.0951
54474ION    NA+73221   7.669  22.115   5.638 -0.1157 -0.4685  0.0292
54475ION    NA+73222   1.320   9.154   5.836  0.0850 -0.2269  0.0689
54476ION    NA+73223  13.333   4.402  21.535 -0.1677  0.0278  0.3480
54477ION    NA+73224  12.493  31.255  11.997  0.0343  0.1281 -0.2481
54478ION    NA+73225  33.371  15.483  21.785 -0.1206 -0.1990  0.1496
54479ION    NA+73226   1.695   9.732  17.307 -0.2832  0.1891  0.3335
54480ION    NA+73227   7.226   6.929  25.289  0.1417 -0.1782  0.0111
54481ION    NA+73228   0.218  18.074  18.149 -0.2369 -0.0583  0.2556
54482ION    NA+73229  21.501   4.007   3.922 -0.1384  0.1062 -0.0993
54483ION    NA+73230  17.971   6.208  12.824  0.1940  0.0143 -0.3748
54484ION    NA+73231  22.608  26.239  20.632  0.0087  0.1612  0.2170
54485ION    NA+73232   6.835   5.456  22.553 -0.0176  0.0986  0.0753
54486ION    NA+73233  10.161  22.693   9.368  0.1772 -0.1332 -0.0361
54487ION    NA+73234   4.022  30.610   7.456  0.3036 -0.0614 -0.1217
54488ION    NA+73235   7.080  11.955  17.341  0.1207 -0.1323 -0.2004
54489ION    NA+73236   5.245  13.870  23.528  0.1199  0.1417 -0.0795
54490ION    NA+73237  26.369  26.673  15.482 -0.1715 -0.1290 -0.2335
54491ION    NA+73238  20.516  32.867  21.844 -0.1259  0.6810 -0.1646
54492ION    NA+73239  27.726  15.106  13.833  0.0044 -0.3091 -0.0388
54493ION    NA+73240  34.130  10.859  20.140 -0.1309  0.4535  0.0273
54494ION    NA+73241  30.772   1.106  18.204 -0.4457  0.0143 -0.3798
54495ION    NA+73242  20.652   2.114  15.714 -0.0913  0.0183 -0.0395
54496ION    NA+73243  18.096   0.054   6.702 -0.1796 -0.0287  0.0371
54497ION    NA+73244  18.943   3.923   6.941 -0.0196  0.0193  0.1364
54498ION    NA+73245   4.725   5.813  17.037  0.1733 -0.0650 -0.3050
54499ION    NA+73246   8.218  34.862  15.939 -0.0582  0.1415  0.3214
54500ION    NA+73247  35.147  34.653   3.449  0.0228 -0.2616  0.0795
54501ION    NA+73248  22.235   7.242  23.385 -0.2194 -0.1439  0.4274
54502ION    NA+73249  20.828   4.150  16.831 -0.0061 -0.0521  0.1097
54503ION    NA+73250  13.751  12.642  20.065  0.1498  0.2205 -0.1794
54504ION    NA+73251  29.637  31.545  11.187 -0.3011 -0.1062  0.2358
54505ION    NA+73252  15.936  29.992  12.311 -0.0695  0.2380 -0.0794
54506ION    NA+73253  27.458  29.037   0.365 -0.2140 -0.0143  0.0380
54507ION    NA+73254  30.057  18.193  11.821 -0.2472 -0.2109  0.0498
54508ION    NA+73255  20.542  21.438   9.168  0.0409 -0.3440  0.2010
54509ION    NA+73256  17.498  22.342   5.902  0.1753 -0.1517 -0.2761
54510ION    NA+73257   3.266  21.541   5.265 -0.0950 -0.2328 -0.2151
54511ION    NA+73258  17.504  31.371   9.869  0.1989 -0.2533  0.0842
54512ION    NA+73259  22.653   9.653   0.349 -0.1535 -0.0588  0.2470
54513ION    NA+73260   6.566  25.963  23.208  0.2489  0.0835  0.0197
54514ION    NA+73261  27.663  20.963  19.303 -0.0407  0.0182 -0.0056
54515ION    NA+73262  23.368  31.566  24.643  0.0548  0.0296 -0.0859
54516ION    NA+73263  25.618   3.645  12.011 -0.1535  0.3543 -0.2256
54517ION    NA+73264  20.472  20.838   4.372  0.1804  0.0550 -0.0232
54518ION    NA+73265  24.206  20.304  10.057 -0.1978  0.2252  0.0551
54519ION    NA+73266  13.261  15.857   2.498  0.0276 -0.2402 -0.0026
54520ION    NA+73267   3.690  25.910  10.586  0.2843  0.2019  0.1458
54521ION    NA+73268   9.259  16.038   9.037 -0.2124 -0.1464  0.0386
54522ION    NA+73269  11.692  29.514   8.376 -0.0992 -0.2183 -0.0150
54523ION    NA+73270  13.221   0.195  13.634  0.2822  0.0310 -0.2384
54524ION    NA+73271  16.096   4.827  19.837  0.3308  0.4389  0.0258
54525ION    NA+73272  18.841  28.210  18.421  0.4237  0.1615 -0.0440
54526ION    NA+73273  25.352  35.244  22.182 -0.0159  0.1898  0.0975
54527ION    NA+73274   5.323  21.721   0.396 -0.1095 -0.0299 -0.5213
54528ION    NA+73275  28.612   5.845  20.625  0.3113  0.0604  0.1913
54529ION    NA+73276   7.017   1.381  13.258 -0.0654 -0.2226 -0.3149
54530ION    NA+73277  16.642   7.984  10.432 -0.1595  0.2329 -0.3022
54531ION    NA+73278  14.053  16.675  12.975  0.0995 -0.1067  0.2038
54532ION    NA+73279   5.755   8.284   8.143  0.2601  0.1999 -0.0776
54533ION    NA+73280  12.959  26.490  14.540 -0.0708 -0.1795  0.1843
54534ION    NA+73281  25.649  13.457   1.475 -0.0131 -0.0338 -0.2059
54535ION    NA+73282  31.708  12.769  11.125 -0.2500 -0.3421  0.1995
54536ION    NA+73283   5.761  23.575  24.592 -0.1926 -0.2853  0.0020
54537ION    NA+73284  13.070  32.650   4.363  0.1596  0.1483  0.0104
54538ION    NA+73285   5.457  32.781  10.821  0.1997 -0.1992  0.2295
54539ION    NA+73286  30.454  21.150  18.714  0.2802  0.1336  0.1206
54540ION    NA+73287   9.422   3.153  21.909 -0.0691 -0.0503  0.0886
54541ION    NA+73288   7.680  34.692  15.057 -0.4937 -0.0835 -0.0955
54542ION    NA+73289  28.693   7.890   8.549 -0.1402 -0.2099  0.2340
54543ION    NA+73290  33.757  33.876  25.472 -0.0330  0.0273 -0.0946
54544ION    NA+73291  15.509  20.949  15.870 -0.1867 -0.0293 -0.1749
54545ION    NA+73292   2.624   6.407   4.672 -0.0833 -0.0932  0.2627
54546ION    NA+73293  10.711  10.977  26.024 -0.0926  0.3408  0.0643
54547ION    NA+73294   3.846  21.729  16.179  0.2277 -0.2416  0.1362
54548ION    NA+73295  34.091   5.455  18.723 -0.0257  0.2573 -0.2344
54549ION    NA+73296   6.874  28.668  12.312 -0.4339  0.0739  0.1434
54550ION    NA+73297   4.379  21.742  25.408  0.0806 -0.2671 -0.0717
54551ION    NA+73298  32.811  34.040  23.668  0.2095 -0.1924  0.1383
54552ION    NA+73299  25.973   2.249   2.312 -0.0696 -0.0658  0.2608
54553ION    NA+73300  12.170  24.211  16.497 -0.0519  0.0121 -0.0515
54554ION    NA+73301   0.490  14.582  25.578  0.0243  0.2483 -0.1242
54555ION    NA+73302  34.818  18.912  13.677  0.0165  0.2331 -0.1876
54556ION    NA+73303  32.312  21.303  21.109  0.1124 -0.1416  0.1033
54557ION    NA+73304  35.299   4.548   3.377 -0.2378  0.0554 -0.4039
54558ION    NA+73305   5.432  23.467  23.188 -0.1267 -0.1040  0.4922
54559ION    NA+73306  17.090  24.551   3.376  0.0585 -0.1135  0.2120
54560ION    NA+73307  32.842  32.015  12.599  0.0623 -0.2464 -0.2628
54561ION    NA+73308  15.160  28.584   5.504 -0.1943 -0.0660 -0.0781
54562ION    NA+73309   5.814   2.336   2.807 -0.0109  0.3679  0.2782
54563ION    NA+73310  26.548  14.334  23.858  0.1410  0.1089 -0.0828
54564ION    NA+73311   1.760  15.763  14.236 -0.3141 -0.2366 -0.0549
54565ION    NA+73312  22.337  29.369   0.071  0.3624 -0.2857  0.1245
54566ION    NA+73313   2.964  23.029   5.624  0.1139  0.3108  0.0158
54567ION    NA+73314  24.802  12.485   9.609 -0.0600 -0.1593  0.1881
54568ION    NA+73315  19.976   8.027   1.165 -0.0799 -0.2530 -0.0994
54569ION    NA+73316   8.610   9.748   8.776 -0.0729  0.3983 -0.1212
54570ION    NA+73317  25.216   2.297  22.046  0.1728  0.0196 -0.0112
54571ION    NA+73318   3.681  29.928   8.887 -0.0054 -0.4129  0.4574
54572ION    NA+73319   6.957  31.731  23.859 -0.0987  0.1827  0.0947
54573ION    NA+73320   8.236  23.137  26.116  0.1413 -0.2948  0.0511
54574ION    NA+73321  14.531  32.072  20.237  0.2847  0.0669  0.2536
54575ION    NA+73322  12.417  14.272   5.431 -0.1262  0.1731  0.0955
54576ION    NA+73323  33.760  18.588  12.791 -0.1955 -0.1070 -0.3894
54577ION    NA+73324  12.200  15.186  11.592  0.0446  0.0391  0.0917
54578ION    NA+73325  32.206  20.482  17.541  0.0308 -0.1855  0.0988
54579ION    NA+73326  16.293  18.697   5.557  0.1824 -0.2372  0.3070
54580ION    NA+73327   5.392  27.002  11.212 -0.3439  0.1632 -0.0976
54581ION    NA+73328  30.850  33.811  23.391 -0.2174 -0.3394 -0.1601
54582ION    NA+73329  18.897   9.151  25.418 -0.1382 -0.1238 -0.1417
54583ION    NA+73330  20.075  14.533   6.453 -0.2936 -0.1468 -0.0722
54584ION    NA+73331  25.211  14.143  22.855 -0.2097  0.1293  0.1195
54585ION    NA+73332   9.100  17.470   8.209 -0.1615  0.0592 -0.3716
54586ION    NA+73333  15.310   1.632  17.523  0.0169  0.8243 -0.2101
54587ION    NA+73334  18.513  17.131   9.193  0.0781 -0.2763  0.0812
54588ION    NA+73335  21.187   8.884   7.259 -0.0069  0.1147  0.1381
54589ION    NA+73336  32.931  19.108  11.659  0.2544  0.2190 -0.2724
54590ION    NA+73337  32.051   1.292   6.770 -0.2810 -0.1384 -0.0254
54591ION    NA+73338   9.696  19.133  14.943  0.0753  0.3852  0.1386
54592ION    NA+73339  12.125  22.162   8.495  0.1189  0.3724 -0.1935
54593ION    NA+73340   6.308   1.857  22.831 -0.1576 -0.1543 -0.0291
54594ION    NA+73341  22.789  33.077   6.765 -0.1712 -0.1331  0.0132
54595ION    NA+73342  23.893  21.617   0.902 -0.2540 -0.1006  0.3375
54596ION    NA+73343  25.005  18.643  11.682 -0.3007 -0.1575  0.0742
54597ION    NA+73344   2.891  19.824   4.578 -0.1772 -0.2236 -0.2427
54598ION    NA+73345  19.521  19.878   2.273  0.2885 -0.0840 -0.2234
54599ION    NA+73346  25.237  22.941   9.500 -0.0418 -0.0294 -0.2939
54600ION    NA+73347  22.330   2.974  25.260  0.0645  0.3964 -0.0705
54601ION    NA+73348   8.953  11.686   4.819 -0.0283 -0.1325 -0.3274
54602ION    NA+73349  21.135  33.016  13.303 -0.0643 -0.2091  0.1193
54603ION    NA+73350  21.291  22.612   0.897 -0.0041 -0.4071 -0.2559
54604ION    NA+73351  18.956   5.458   4.288 -0.1373 -0.0329 -0.2417
54605ION    NA+73352   1.130   3.022  23.508 -0.1456 -0.0595  0.0246
54606ION    NA+73353  15.526  10.967   0.441  0.2292 -0.0796 -0.6018
54607ION    NA+73354  34.961  11.726   1.358  0.1661 -0.0876  0.0501
54608ION    NA+73355   9.135  30.777   0.829 -0.2428  0.0946 -0.2759
54609ION    NA+73356  29.305  27.805   3.507  0.0612 -0.2835 -0.3264
54610ION    NA+73357  28.841   8.717  17.011 -0.1470  0.0796  0.2344
54611ION    NA+73358  28.228  23.233   6.284 -0.1056  0.3206  0.0435
54612ION    NA+73359  13.153  13.882   8.258  0.1524  0.2156  0.2091
54613ION    NA+73360  33.781  34.983   6.655 -0.0316 -0.1177  0.0524
54614ION    NA+73361  34.481  13.606   7.672 -0.2655  0.0507  0.0090
54615ION    NA+73362   3.032  20.038  11.975  0.1779  0.0582 -0.0009
54616ION    NA+73363   0.098  31.227   6.614 -0.0811 -0.1741 -0.1225
54617ION    NA+73364  27.917  14.858  25.975  0.1309  0.0156 -0.1266
54618ION    NA+73365  16.188  16.990   7.558  0.2820  0.2062  0.1456
54619ION    NA+73366  27.471  26.507  10.523 -0.1246  0.0558 -0.0285
54620ION    NA+73367  34.085  30.680   8.166  0.1864 -0.0579 -0.3777
54621ION    NA+73368  16.446  15.000  12.896 -0.3896  0.0774  0.2162
54622ION    NA+73369  26.046   1.808  18.154  0.1776 -0.3377 -0.0621
54623ION    NA+73370  16.704  26.743   8.190  0.0725  0.3825  0.1543
54624ION    NA+73371   1.509   0.006  15.884  0.0375 -0.1069 -0.1593
54625ION    NA+73372  11.921  26.085   7.139 -0.1849  0.0184  0.2869
54626ION    NA+73373   4.536  29.526  22.531 -0.2629 -0.0510 -0.1459
54627ION    NA+73374  34.200  29.055  15.269  0.0600 -0.0197 -0.2023
54628ION    NA+73375  34.689  28.059   4.076  0.1134 -0.0617  0.0777
54629ION    NA+73376   2.979  13.536  23.848  0.3346  0.1693 -0.0264
54630ION    NA+73377  18.741  20.042  12.521 -0.5751  0.0824  0.3132
54631ION    NA+73378  17.825  31.659  22.745 -0.2375 -0.1311 -0.0282
54632ION    NA+73379   5.985   0.915  13.863  0.1447  0.0995 -0.0106
54633ION    NA+73380  32.072  22.570  13.017  0.0195  0.1704 -0.1617
54634ION    NA+73381  13.021  21.176  14.728 -0.1247 -0.2718  0.0759
54635ION    NA+73382  30.586   9.717   0.201  0.2727  0.0419 -0.3415
54636ION    NA+73383   5.148   2.519   1.574 -0.2319 -0.2069 -0.2416
54637ION    NA+73384   6.186  19.904   0.616  0.1657  0.2212 -0.1121
54638ION    NA+73385  22.652   3.087  21.291 -0.0014 -0.0010  0.1392
54639ION    NA+73386   4.907  29.082   0.495 -0.1036 -0.1047 -0.2987
54640ION    NA+73387   7.000  22.021   4.952  0.2017 -0.1362 -0.3306
54641ION    NA+73388  33.352  16.813  23.749  0.0905 -0.2191  0.1768
54642ION    NA+73389   5.135  30.796   5.996  0.2257  0.1650 -0.2183
54643ION    NA+73390  28.165   9.478  25.079 -0.2235  0.0026  0.4676
54644ION    NA+73391  27.428  25.768  22.919 -0.2133 -0.0827  0.0672
54645ION    NA+73392  22.423   0.996   7.915 -0.1153 -0.4374  0.1280
54646ION    NA+73393  11.167  31.314   3.643 -0.1816  0.0528  0.1053
54647ION    NA+73394  16.684  10.386   6.252 -0.1322  0.2247 -0.0073
54648ION    NA+73395  26.375  21.136   5.891  0.0688  0.1565 -0.2998
54649ION    NA+73396  21.723   8.422   8.408  0.1465  0.2715  0.1152
54650ION    NA+73397   3.229  13.541  25.456 -0.3143  0.0197 -0.0727
54651ION    NA+73398  21.532  17.986   4.673 -0.2649 -0.0575  0.0748
54652ION    NA+73399  11.337   8.349  13.458 -0.1192 -0.1807  0.2556
54653ION    NA+73400  11.322  19.323   6.255  0.0843 -0.1124 -0.0785
54654ION    NA+73401  24.777  22.496  24.409 -0.2120 -0.2612 -0.1491
54655ION    NA+73402  11.995  10.769   4.500  0.3928  0.1507 -0.5654
54656ION    NA+73403   6.972  28.790   7.409 -0.1226  0.1113 -0.0619
54657ION    NA+73404  15.555  24.239  21.599 -0.1226 -0.0029 -0.3768
54658ION    NA+73405  30.042  21.255   9.000  0.0580 -0.1523 -0.3588
54659ION    NA+73406  35.030  12.488  11.963 -0.3698  0.1891  0.0153
54660ION    NA+73407  16.564   0.969   2.634 -0.1445  0.0772 -0.0593
54661ION    NA+73408  25.369   1.400   1.393  0.0159  0.2316  0.2976
54662ION    NA+73409   5.543  25.723   3.500 -0.3170  0.4662 -0.3967
54663ION    NA+73410  10.924  34.706   9.979  0.0337  0.0842 -0.3604
54664ION    NA+73411  28.861  34.555  11.683 -0.0571  0.1396 -0.1330
54665ION    NA+73412   6.009  29.863  13.454 -0.2978 -0.1710  0.5020
54666ION    NA+73413  31.583  32.134   2.200 -0.2878 -0.1765  0.1561
54667ION    NA+73414   5.842  28.544   2.744  0.2858  0.0605 -0.0912
54668ION    NA+73415  11.924  34.437  25.808 -0.1491  0.1169 -0.1468
54669ION    NA+73416  26.591   9.236  12.418 -0.0221 -0.1178  0.0794
54670ION    NA+73417   7.257  25.180   8.271  0.1195 -0.1930 -0.1843
54671ION    NA+73418  30.831  16.518  23.234  0.0705  0.3589 -0.0670
54672ION    NA+73419  16.144  15.421   0.824 -0.1682 -0.1911  0.0005
54673ION    NA+73420  22.006  24.971  24.842 -0.1730 -0.1740 -0.0785
54674ION    NA+73421  24.162   4.252  18.286 -0.4404  0.1995 -0.0808
54675ION    NA+73422  15.491  22.877  13.922 -0.1955 -0.1306 -0.1913
54676ION    NA+73423   7.527  20.700   9.147  0.1150  0.1798  0.4384
54677ION    NA+73424  24.439  19.233  18.594 -0.2146 -0.1231 -0.0501
54678ION    NA+73425   3.771   6.775   6.965 -0.0593  0.0513 -0.0934
54679ION    NA+73426  17.666  11.618  11.635  0.0612  0.4651  0.1283
54680ION    NA+73427  22.331   4.921   1.488 -0.1537 -0.1583  0.4681
54681ION    NA+73428  25.255  12.198   0.168  0.2419 -0.3391 -0.3846
54682ION    NA+73429  29.848  15.236  23.614 -0.2553 -0.0371  0.1045
54683ION    NA+73430  10.152   4.189  20.986 -0.3005  0.1115  0.3755
54684ION    NA+73431  13.270  24.714  25.732 -0.1196  0.1700 -0.0088
54685ION    NA+73432   1.095  15.134  14.445 -0.0563  0.0307  0.0684
54686ION    NA+73433  30.591   1.690   2.213 -0.3248  0.1316  0.0080
54687ION    NA+73434  26.277  19.521   6.907 -0.1768 -0.2373 -0.2802
54688ION    NA+73435   4.798  14.870   1.228  0.0372 -0.2568 -0.4962
54689ION    NA+73436   4.903  27.934   5.926  0.5199 -0.1191 -0.1484
54690ION    NA+73437   9.186  19.742  22.433  0.0911  0.3659 -0.1927
54691ION    NA+73438   9.410  34.283   0.192 -0.1080 -0.1039 -0.0191
54692ION    NA+73439  22.813   3.113  13.226 -0.1052 -0.1539 -0.0527
54693ION    NA+73440  11.455   5.431   9.260 -0.5321 -0.2298  0.1274
54694ION    NA+73441  22.614   2.729   4.508  0.2081 -0.1566  0.0387
54695ION    NA+73442   9.704  19.072   5.505 -0.1253  0.1096  0.1464
54696ION    NA+73443  14.991  31.400   8.478 -0.2041  0.4870  0.2726
54697ION    NA+73444  26.296  21.840   7.265  0.2532  0.0612 -0.1581
54698ION    NA+73445   7.921  13.419  12.811  0.0333 -0.0725 -0.0360
54699ION    NA+73446  16.699  12.339  23.100 -0.1293  0.3180 -0.0564
54700ION    NA+73447  16.080  11.156  12.550  0.0166 -0.4344  0.2488
54701ION    NA+73448   0.861  14.835  13.105 -0.0440  0.0415  0.2834
54702ION    NA+73449  21.700  27.709  22.325  0.1986  0.2274  0.2409
54703ION    NA+73450   7.153  30.773  16.331 -0.0265  0.1270 -0.1964
54704ION    NA+73451   9.065   8.572   8.005  0.2344  0.0410 -0.2533
54705ION    NA+73452  16.144  21.174  24.852  0.2770 -0.0002 -0.1365
54706ION    NA+73453   0.332   7.438   6.319  0.1189  0.0583  0.4870
54707ION    NA+73454  28.451  26.586  18.943  0.3056  0.0170  0.1020
54708ION    NA+73455  29.147  12.888   5.714 -0.0459  0.0689  0.2065
54709ION    NA+73456  18.193  30.773  10.408  0.2410 -0.3819  0.2653
54710ION    NA+73457  33.266  26.424  16.371  0.1181 -0.1557 -0.1147
54711ION    NA+73458  20.793  23.829  22.200  0.3403  0.0599 -0.1497
54712ION    NA+73459  30.416   4.763  10.280 -0.1690  0.1651 -0.1377
54713ION    NA+73460  11.498  10.280  14.490 -0.1846 -0.2566 -0.0711
54714ION    NA+73461  17.198   5.915  20.739  0.0852 -0.1346 -0.0930
54715ION    NA+73462   2.861  17.042   1.349 -0.2502 -0.2566 -0.1456
54716ION    NA+73463  10.348  13.044   3.615 -0.0288  0.0854  0.0006
54717ION    NA+73464  19.425   7.598  11.805 -0.1852 -0.3866 -0.2144
54718ION    NA+73465  22.257  23.296  22.771 -0.0772 -0.0299  0.2395
54719ION    NA+73466  19.200  21.554  11.352 -0.0701  0.2837  0.5422
54720ION    NA+73467  32.960  10.479  15.229 -0.2987 -0.2234  0.1075
54721ION    NA+73468  32.473  25.333  17.492  0.0107 -0.0884  0.0590
54722ION    NA+73469  19.921  22.213   8.077 -0.0826  0.0178 -0.0389
54723ION    NA+73470  17.887  15.143   6.462  0.1042  0.0450 -0.1777
54724ION    NA+73471   8.807   7.268  14.279 -0.1612  0.0288 -0.1049
54725ION    NA+73472   4.953  22.936   7.806 -0.0443 -0.0390 -0.1537
54726ION    NA+73473  12.002  11.709   4.521  0.3119  0.0383 -0.2771
54727ION    NA+73474  35.054  13.823  23.815 -0.1959  0.1333 -0.1993
54728ION    NA+73475  12.132  15.442  13.386 -0.0367  0.0785  0.2951
54729ION    NA+73476  26.284  28.082  16.028  0.2601 -0.2348  0.0058
54730ION    NA+73477  24.986  30.887  13.878 -0.1646 -0.0524  0.0890
54731ION    NA+73478  23.664  16.176  19.263 -0.0072 -0.1868 -0.2045
54732ION    NA+73479  28.618   5.903  13.184 -0.2257  0.2024  0.0077
54733ION    NA+73480  25.049   7.440  19.838  0.3112  0.0727  0.1819
54734ION    NA+73481   7.018  32.918  24.129 -0.0473 -0.0144  0.0201
54735ION    NA+73482  23.474  12.868   3.253  0.1956 -0.1204  0.1658
54736ION    NA+73483  25.435  32.937  10.896 -0.1209  0.1018  0.0907
54737ION    NA+73484  18.937  19.132  25.703  0.0269 -0.1357 -0.1668
54738ION    NA+73485  16.514  19.257   1.840  0.1196  0.2551 -0.2437
54739ION    NA+73486  14.247  20.308   1.653 -0.0310 -0.0982  0.0574
54740ION    NA+73487  19.081   8.349   2.641 -0.2673 -0.0842 -0.0910
54741ION    NA+73488   3.492   2.198   1.977 -0.2065  0.2309  0.1310
54742ION    NA+73489  12.205   0.220  25.760 -0.1830 -0.0841 -0.1431
54743ION    NA+73490  32.357   7.096  24.771 -0.1675 -0.0182  0.1269
54744ION    NA+73491  30.522  29.051   5.079 -0.0905  0.1003  0.1704
54745ION    NA+73492   6.544  27.101   5.498  0.1846 -0.0886 -0.3248
54746ION    NA+73493   2.026  16.755   3.324  0.1446 -0.1206 -0.1629
54747ION    NA+73494   9.217  22.619  15.634  0.0543  0.0076  0.1094
54748ION    NA+73495  21.434   5.048  15.462  0.1480  0.1064 -0.2379
54749ION    NA+73496  26.726  13.768  10.437 -0.0094 -0.0900  0.0500
54750ION    NA+73497   2.714  30.483  10.687 -0.3868  0.2738  0.1172
54751ION    NA+73498  16.138  26.859   8.147  0.3099  0.0731 -0.1059
54752ION    NA+73499   5.771  25.718  20.515  0.0473 -0.2726 -0.0437
54753ION    NA+73500  13.905  19.329  16.245  0.0844  0.0958 -0.0270
54754ION    CL-73501  30.498   4.881  20.382 -0.4956 -0.1629  0.1449
54755ION    CL-73502   4.975  33.834   6.675  0.1828 -0.1417  0.0658
54756ION    CL-73503  26.221  16.999   0.422 -0.0492 -0.0222 -0.2377
54757ION    CL-73504   9.952   5.739   0.130 -0.0725  0.1182 -0.0447
54758ION    CL-73505  31.884  15.663  11.162  0.0486  0.4242 -0.0524
54759ION    CL-73506  18.973  21.841  22.472  0.1821  0.0322 -0.1652
54760ION    CL-73507   3.239  23.965   0.703 -0.0071 -0.4717 -0.0485
54761ION    CL-73508   2.197  16.351  12.878 -0.2135  0.1892 -0.2560
54762ION    CL-73509  31.458  14.044  17.591 -0.2656 -0.1505 -0.0292
54763ION    CL-73510   2.341  18.914  24.053  0.1710  0.0552  0.0113
54764ION    CL-73511  17.992  17.324  11.425 -0.1315  0.0887 -0.0020
54765ION    CL-73512  13.347  25.030   9.247 -0.2727  0.0305 -0.2718
54766ION    CL-73513  23.171  27.472  15.253 -0.0518  0.0573 -0.0451
54767ION    CL-73514  22.325  16.502  18.386  0.3649 -0.2702  0.2449
54768ION    CL-73515  30.839  28.479  25.551  0.1415  0.0952  0.0222
54769ION    CL-73516   4.151  31.321  21.618 -0.5230 -0.1706 -0.0657
54770ION    CL-73517  28.505  18.237  20.735  0.0782 -0.3364  0.5317
54771ION    CL-73518   5.736  12.875  24.280 -0.1578 -0.0730 -0.0370
54772ION    CL-73519  28.267  28.679  10.558 -0.1143 -0.0351 -0.2394
54773ION    CL-73520  19.719  13.681   9.607 -0.4238 -0.0208  0.0406
54774ION    CL-73521   1.331  21.990   0.976 -0.1837 -0.2655  0.0584
54775ION    CL-73522  10.486   7.676  23.650 -0.0157  0.0360 -0.0178
54776ION    CL-73523   4.755   5.077  20.802  0.0175 -0.5107  0.0155
54777ION    CL-73524   1.059   2.065  22.974 -0.1144  0.0883  0.0038
54778ION    CL-73525  32.158  19.563   8.920 -0.3216  0.0374  0.0821
54779ION    CL-73526  10.259  11.272  10.432 -0.2246  0.0900 -0.1700
54780ION    CL-73527  13.761  18.869   3.344  0.2085  0.0409 -0.2332
54781ION    CL-73528   9.992  14.031   8.629 -0.1503  0.0096 -0.1828
54782ION    CL-73529   1.339  20.703  25.378  0.0539 -0.0766 -0.1386
54783ION    CL-73530  26.197  30.584  16.188 -0.0341 -0.1798  0.2367
54784ION    CL-73531  22.511  28.479  20.050  0.0988 -0.0068  0.1931
54785ION    CL-73532  15.033   4.304   2.202  0.0717  0.1578 -0.3173
54786ION    CL-73533  25.256  34.975  22.611  0.3119  0.0715  0.0002
54787ION    CL-73534  17.506  13.038  21.728  0.1287  0.0162 -0.1353
54788ION    CL-73535   3.713  22.185  16.297 -0.0017  0.1254  0.0277
54789ION    CL-73536  14.858  23.242   9.213 -0.1751 -0.4200  0.0866
54790ION    CL-73537  12.058   7.004   1.353  0.2812  0.1106 -0.0076
54791ION    CL-73538  21.862  24.656  24.484  0.2210 -0.1993 -0.2559
54792ION    CL-73539  29.874   7.427  12.697 -0.2571  0.0413  0.0853
54793ION    CL-73540  10.163   5.702  25.389 -0.1433 -0.0387 -0.1316
54794ION    CL-73541  25.566   7.782  17.764  0.0671 -0.1585 -0.2715
54795ION    CL-73542  23.214  22.743   2.263 -0.2746  0.2409  0.0027
54796ION    CL-73543   8.038  32.797   6.531 -0.1831 -0.0470 -0.1203
54797ION    CL-73544  26.744   5.972   2.066 -0.1537  0.3808  0.0266
54798ION    CL-73545  32.414  28.731  21.710  0.3458 -0.0926  0.2709
54799ION    CL-73546   8.624   3.275   2.409 -0.1596  0.2030 -0.1175
54800ION    CL-73547  21.499  10.067  17.787 -0.2130  0.1660  0.1817
54801ION    CL-73548  17.337  34.713   0.758 -0.1718 -0.3832  0.0455
54802ION    CL-73549   3.360  30.670  23.272  0.1733 -0.2335  0.1997
54803ION    CL-73550  18.858  34.281  15.000  0.2840  0.0401 -0.0123
54804ION    CL-73551  10.968  33.491  21.091  0.0228  0.0311 -0.0291
54805ION    CL-73552  19.816  34.134  17.065 -0.0697 -0.0799 -0.1967
54806ION    CL-73553   2.338   1.272  18.626  0.1588 -0.0204 -0.0672
54807ION    CL-73554  35.006  12.000  12.370  0.2429 -0.0037  0.1414
54808ION    CL-73555   0.626  13.692  18.630 -0.3898 -0.1510 -0.0066
54809ION    CL-73556  13.921  17.146   1.995 -0.0278  0.1555 -0.0263
54810ION    CL-73557  21.824  13.498  25.821 -0.1872  0.0617  0.0985
54811ION    CL-73558   2.021  31.218  19.926 -0.2508  0.1248  0.2088
54812ION    CL-73559  28.815  19.938  13.849 -0.0849  0.0026 -0.1663
54813ION    CL-73560  29.158   6.845  21.087  0.0468  0.2751 -0.1105
54814ION    CL-73561  22.973  32.766  18.430 -0.2446 -0.1240 -0.1851
54815ION    CL-73562  10.819   4.441   5.217  0.2668 -0.1586 -0.0023
54816ION    CL-73563   7.791  11.294   7.473  0.4474  0.2591  0.2697
54817ION    CL-73564  35.111  34.588  15.729 -0.2225  0.1024  0.0651
54818ION    CL-73565  20.969  13.628  22.315 -0.3878 -0.0628 -0.0642
54819ION    CL-73566  35.267  10.426  20.648 -0.0157 -0.2338  0.0671
54820ION    CL-73567  24.888  18.561   0.076 -0.1753 -0.0432 -0.1041
54821ION    CL-73568  21.758  14.095  24.876 -0.0129 -0.3185 -0.0666
54822ION    CL-73569  34.847   3.004  21.796 -0.0131  0.0860 -0.2669
54823ION    CL-73570  15.131  27.004   9.560 -0.2126 -0.1558  0.0267
54824ION    CL-73571  15.573  30.253   8.182  0.1183  0.1503  0.0456
54825ION    CL-73572   5.506   4.522  21.352  0.1667 -0.2172  0.1444
54826ION    CL-73573  23.144  31.792  19.414 -0.1109 -0.0733  0.1135
54827ION    CL-73574  24.331   5.370  26.108 -0.3719  0.1344  0.1943
54828ION    CL-73575  34.115  28.622  15.007  0.3145  0.1566 -0.1073
54829ION    CL-73576  13.628  19.495   8.307 -0.0136 -0.2238  0.2010
54830ION    CL-73577  29.309  26.727  18.213 -0.1040 -0.0422  0.1765
54831ION    CL-73578  29.989  14.753  14.125 -0.2215  0.1834  0.1484
54832ION    CL-73579  29.698  27.575   3.701  0.2634  0.1217  0.0511
54833ION    CL-73580  32.596  30.195  20.606 -0.3208  0.2057 -0.3303
54834ION    CL-73581   5.379   4.623  25.491 -0.2228  0.1286 -0.0145
54835ION    CL-73582  31.048  17.358  21.571  0.1370 -0.2106 -0.2677
54836ION    CL-73583  19.991   9.568   2.624  0.0381  0.3151 -0.2715
54837ION    CL-73584  10.115   3.409  24.968 -0.3889 -0.0941 -0.2627
54838ION    CL-73585  22.078   1.494  15.106  0.0458  0.3099 -0.1480
54839ION    CL-73586  10.724  26.634  11.961  0.0651 -0.2303  0.0151
54840ION    CL-73587   9.725  23.754  16.620 -0.1566  0.3763  0.3690
54841ION    CL-73588   0.156  10.430  23.335  0.1204  0.5074 -0.0924
54842ION    CL-73589  25.563  15.297  10.926  0.0567 -0.1883 -0.0952
54843ION    CL-73590   1.865  27.875   1.223  0.0842 -0.4318 -0.0618
54844ION    CL-73591  19.457  22.061  25.043 -0.1972 -0.1984  0.0669
54845ION    CL-73592   3.111  30.091   5.842 -0.4012 -0.0492  0.0357
54846ION    CL-73593   7.472  29.897  24.881  0.1114 -0.3378 -0.0008
54847ION    CL-73594  14.451   9.668  10.314 -0.1000  0.0544 -0.0038
54848ION    CL-73595  19.069   8.951   4.162  0.2114 -0.2319  0.1191
54849ION    CL-73596  22.590   0.093  18.409  0.0211 -0.3070 -0.4961
54850ION    CL-73597   7.655  22.095   6.191  0.2169 -0.1068  0.1104
54851ION    CL-73598   2.216  35.089  19.102  0.0461  0.2819  0.4838
54852ION    CL-73599  31.770   3.674  23.302  0.3297  0.2229 -0.1532
54853ION    CL-73600  17.632  22.190  21.414  0.2690  0.0812  0.3473
54854ION    CL-73601  17.304   9.258   5.881 -0.0098  0.3519  0.1344
54855ION    CL-73602  13.372  19.481  22.504  0.2564  0.1915 -0.0591
54856ION    CL-73603  12.680  24.723   8.727 -0.0839  0.0162 -0.2356
54857ION    CL-73604  15.309  18.833  25.338  0.0143  0.0892 -0.0263
54858ION    CL-73605  29.774  17.971  14.999 -0.0207  0.0010  0.2883
54859ION    CL-73606  24.883  25.752  25.937 -0.0730 -0.1080  0.0329
54860ION    CL-73607  33.367   7.758  20.158 -0.2242 -0.0635  0.3616
54861ION    CL-73608   4.908   4.191   1.804  0.1061  0.0077 -0.0395
54862ION    CL-73609   6.270  28.716  15.106 -0.1035 -0.1327 -0.0829
54863ION    CL-73610   1.671  34.649  20.075 -0.0868  0.2886 -0.1466
54864ION    CL-73611  31.004  29.115  10.801  0.0675 -0.0263 -0.0767
54865ION    CL-73612  20.228   8.355  20.100  0.1494 -0.0874  0.0994
54866ION    CL-73613  24.464   7.050  13.726  0.3059 -0.0368  0.0198
54867ION    CL-73614   9.851  21.427   1.310 -0.0354  0.4377  0.1520
54868ION    CL-73615   0.576  21.494  15.541 -0.3137 -0.1359 -0.0672
54869ION    CL-73616  31.500  15.470  14.724  0.1193 -0.0790  0.0542
54870ION    CL-73617  15.366  22.797  10.152  0.4750  0.1242  0.2135
54871ION    CL-73618  15.210  27.710  22.271  0.0626  0.4366  0.0054
54872ION    CL-73619  34.168  31.310  19.599  0.1963  0.0747 -0.0145
54873ION    CL-73620  11.174  33.712  11.346 -0.1309 -0.0316 -0.0256
54874ION    CL-73621  13.663  19.562   6.323  0.0906  0.3632 -0.0002
54875ION    CL-73622  34.676   4.480  15.313 -0.1142 -0.0722 -0.1970
54876ION    CL-73623  21.760   2.732  24.779 -0.2470  0.0100  0.0945
54877ION    CL-73624  25.526  20.800  20.210 -0.0543  0.2073 -0.1226
54878ION    CL-73625   2.064   7.204   6.124 -0.0134 -0.1226 -0.0571
54879ION    CL-73626  32.805  22.758   8.477 -0.2104 -0.0038  0.1461
54880ION    CL-73627  29.504   0.369  25.635 -0.1013 -0.0269 -0.2207
54881ION    CL-73628  11.318  34.960  12.263 -0.1189  0.0449 -0.0749
54882ION    CL-73629  14.417  12.637  21.150  0.3238  0.1222 -0.1727
54883ION    CL-73630  20.113  33.578  19.437  0.3097 -0.0728 -0.2045
54884ION    CL-73631  12.617  11.825  10.827 -0.0097  0.1419  0.1103
54885ION    CL-73632  22.017  31.884  17.299  0.2342  0.1459  0.1731
54886ION    CL-73633   3.861   5.323   5.552 -0.2498  0.1632  0.1088
54887ION    CL-73634  32.789  24.268   0.448  0.1510 -0.0185 -0.0139
54888ION    CL-73635   0.126   4.185  12.736 -0.0143  0.0771  0.0121
54889ION    CL-73636   8.039  28.467   0.367  0.0570  0.0348 -0.1252
54890ION    CL-73637  12.341  15.899  13.550 -0.1553  0.2111  0.1467
54891ION    CL-73638  31.267  20.245   5.194 -0.1378 -0.1420  0.0330
54892ION    CL-73639  19.234  33.415  25.398 -0.3316 -0.2155 -0.1340
54893ION    CL-73640  12.049   2.580  19.431 -0.0864 -0.3884 -0.3463
54894ION    CL-73641  14.272  12.582   5.109 -0.0127 -0.1145 -0.0230
54895ION    CL-73642   2.412  19.331  11.160  0.1856  0.2292  0.2966
54896ION    CL-73643  20.520  12.371  21.443 -0.1701  0.2610 -0.0997
54897ION    CL-73644  34.913  13.626  20.215 -0.0035  0.0566 -0.3963
54898ION    CL-73645  18.788   2.595   1.312  0.1025  0.2355  0.3681
54899ION    CL-73646   2.329  15.398  12.821 -0.2026  0.1978  0.1644
54900ION    CL-73647  18.616  34.201   7.315  0.0343  0.1070 -0.0856
54901ION    CL-73648  23.538  34.053  23.630  0.1376  0.1617  0.2254
54902ION    CL-73649   5.087   9.687  23.956 -0.1284 -0.2036  0.2998
54903ION    CL-73650  24.039  31.860  11.766 -0.0809  0.0734  0.3003
54904ION    CL-73651  17.305  26.052   1.063  0.0000  0.0419  0.1129
54905ION    CL-73652   1.059   3.988   1.956 -0.1392 -0.1093 -0.0953
54906ION    CL-73653  19.145  22.078   2.178  0.3050 -0.1736 -0.0335
54907ION    CL-73654  18.974   7.794  17.939 -0.0422 -0.0860  0.0573
54908ION    CL-73655   9.188  12.378  25.894 -0.2606 -0.1220  0.1005
54909ION    CL-73656   4.791  13.710  22.443 -0.0369 -0.1004 -0.0920
54910ION    CL-73657  14.710   6.611  25.706  0.1499 -0.0044  0.3673
54911ION    CL-73658  26.817  25.867   9.498 -0.1351  0.0675  0.0358
54912ION    CL-73659   2.399  16.931  23.960  0.1186  0.0074  0.1783
54913ION    CL-73660  27.414   9.075  10.627 -0.1512  0.1151  0.1766
54914ION    CL-73661   0.858   0.927   4.429  0.0481  0.4207  0.1519
54915ION    CL-73662  22.553  19.307  14.490 -0.2747 -0.1546  0.0065
54916ION    CL-73663  24.544  24.277  13.201  0.1557 -0.0615 -0.0638
54917ION    CL-73664   9.832  30.603   2.528 -0.1011 -0.3218  0.2213
54918ION    CL-73665  11.971  34.457   3.367  0.0080 -0.2244 -0.1972
54919ION    CL-73666  33.826  13.692  20.747 -0.0522  0.0935  0.0589
54920ION    CL-73667  17.903  14.342   0.632 -0.0195  0.0583  0.0717
54921ION    CL-73668  10.994  22.395   1.478 -0.0310  0.2241  0.0529
54922ION    CL-73669   9.441  26.847  13.634  0.2594 -0.1335  0.0048
54923ION    CL-73670  32.069  29.947  16.791  0.1002 -0.2918  0.2869
54924ION    CL-73671  31.400  35.017  20.829 -0.0609 -0.1659  0.2499
54925ION    CL-73672  30.345   4.748  25.871 -0.3090 -0.0196 -0.1501
54926ION    CL-73673  14.463  34.832   9.176 -0.2246  0.4334  0.0006
54927ION    CL-73674   1.673  34.528  18.005  0.5159  0.3234  0.1487
54928ION    CL-73675  19.846   8.632   4.264 -0.0691 -0.2156 -0.1479
54929ION    CL-73676  19.060   1.665  20.174 -0.1460 -0.0629 -0.1872
54930ION    CL-73677  22.150  33.563  16.589  0.2136  0.3564  0.0536
54931ION    CL-73678  31.988  33.532  26.097 -0.2415  0.2999  0.2257
54932ION    CL-73679  20.453   2.931   0.367  0.1192  0.2491 -0.1661
54933ION    CL-73680  34.458   5.148   1.849  0.1031  0.0590 -0.0465
54934ION    CL-73681  16.417   4.702   8.068  0.0535 -0.1459 -0.2397
54935ION    CL-73682  21.090  18.583   2.818  0.2089  0.1546 -0.2838
54936ION    CL-73683  13.211  13.652   3.666 -0.1989  0.1619 -0.3811
54937ION    CL-73684   5.159  22.087  24.917 -0.2842 -0.0799  0.0132
54938ION    CL-73685  19.734  23.185   5.101  0.1654  0.3886 -0.1244
54939ION    CL-73686  22.051  14.086  17.806  0.4019 -0.0460 -0.0003
54940ION    CL-73687   9.290  13.203   2.891 -0.0224  0.0591 -0.1164
54941ION    CL-73688  32.270  35.176   0.496 -0.0160  0.0174  0.0042
54942ION    CL-73689  22.787   9.497   3.421  0.0984  0.2158  0.3742
54943ION    CL-73690   9.302   5.612   9.202 -0.0120  0.2294  0.0677
54944ION    CL-73691  25.763   1.798  17.741  0.0152  0.0069 -0.1078
54945ION    CL-73692  11.224  31.446  11.595 -0.2019 -0.1109 -0.1593
54946ION    CL-73693   2.248  26.435   4.372 -0.2143  0.2059  0.0044
54947ION    CL-73694  34.491  11.465  21.784 -0.2152  0.0769 -0.3095
54948ION    CL-73695   4.614  29.738   5.277 -0.1897 -0.0360  0.4705
54949ION    CL-73696  17.389  23.619   4.943 -0.2597 -0.0649 -0.3203
54950ION    CL-73697  26.882  14.292  13.623  0.2458  0.1705  0.0803
54951ION    CL-73698   9.809  17.696  24.726 -0.2583 -0.0244 -0.3186
54952ION    CL-73699   3.450  16.417   4.162  0.1540 -0.1984 -0.1780
54953ION    CL-73700   1.475  30.450   7.739 -0.0008 -0.3584  0.2855
54954ION    CL-73701  31.403  32.856  19.292 -0.3647 -0.1555 -0.2331
54955ION    CL-73702  26.157   9.227  23.981 -0.1338  0.3192 -0.0216
54956ION    CL-73703  30.386  19.645  16.903  0.0185 -0.0550  0.1188
54957ION    CL-73704  15.618   4.677   5.465  0.3112  0.0901  0.0834
54958ION    CL-73705   5.884   1.343  24.635 -0.1697 -0.0243 -0.1142
54959ION    CL-73706   4.622  21.401  24.913 -0.1324  0.1947 -0.0016
54960ION    CL-73707   9.476   0.352   2.738 -0.2009  0.1455 -0.3362
54961ION    CL-73708   8.207  19.858   9.669 -0.2084 -0.0356  0.0656
54962ION    CL-73709  27.367  21.434   9.619 -0.0919 -0.0567  0.0319
54963ION    CL-73710   6.844  30.542  11.546 -0.1170 -0.0583 -0.0053
54964ION    CL-73711  25.043  15.477   0.728  0.2570 -0.0408 -0.0922
54965ION    CL-73712  11.560  28.801  25.685  0.0382 -0.1193  0.2827
54966ION    CL-73713   9.421  12.145  19.526 -0.0355 -0.0953 -0.2501
54967ION    CL-73714  12.375  10.082   2.598 -0.0371  0.3464  0.0952
54968ION    CL-73715   8.663  21.752  22.888  0.1527 -0.0614  0.0034
54969ION    CL-73716  15.496   0.597  20.363 -0.0915  0.0164  0.1547
54970ION    CL-73717  32.709   3.003  17.020  0.2461  0.1074 -0.0058
54971ION    CL-73718  14.922  33.846  24.042 -0.1040  0.1849  0.1637
54972ION    CL-73719   3.703  20.055  25.627 -0.2766  0.1751 -0.1871
54973ION    CL-73720  27.849  29.379   2.242 -0.2624  0.0673 -0.0401
54974ION    CL-73721   4.972   7.935  21.306  0.2476  0.0514  0.0571
54975ION    CL-73722   9.513   8.791  19.002 -0.1511 -0.2036 -0.0144
54976ION    CL-73723   5.926  11.118  17.964 -0.0192  0.0585  0.0443
54977ION    CL-73724  30.944  19.054  13.795 -0.3009 -0.2204 -0.1265
54978ION    CL-73725  24.542   8.808  15.664  0.1336 -0.1635 -0.1210
54979ION    CL-73726   0.729   4.586  22.702 -0.0327  0.1275 -0.0695
54980ION    CL-73727  30.769  25.776  10.422  0.0153  0.3598 -0.0030
54981ION    CL-73728   2.102  19.308   9.964 -0.2023  0.1040 -0.1048
54982ION    CL-73729  22.310   0.332   4.372  0.3894  0.0818 -0.1003
54983ION    CL-73730  13.283  16.128   5.271 -0.3623 -0.5765 -0.3311
54984ION    CL-73731  11.631  18.504  22.161 -0.4532 -0.2609 -0.2576
54985ION    CL-73732   6.201  26.710   6.864 -0.0788 -0.0854  0.1664
54986ION    CL-73733  19.266  13.934  10.491 -0.4702  0.1499 -0.0935
54987ION    CL-73734   9.548  25.644   2.018 -0.1330 -0.1049  0.5936
54988ION    CL-73735   7.685  31.372  23.914  0.0651  0.1954  0.0124
54989ION    CL-73736  12.600  32.080  21.614 -0.3312  0.2642  0.0894
54990ION    CL-73737  10.949  27.682  24.182  0.2421  0.2252 -0.2443
54991ION    CL-73738  26.297  34.748   3.557 -0.1026  0.0840 -0.1671
54992ION    CL-73739  14.868  34.231  20.102  0.0562 -0.0430 -0.1301
54993ION    CL-73740  11.765   7.833   1.050  0.0700  0.1073  0.1129
54994ION    CL-73741  22.112  12.107  14.833  0.2917  0.2743 -0.0032
54995ION    CL-73742  13.540  31.001  25.935  0.1758  0.0563  0.0389
54996ION    CL-73743  25.813  14.562  25.480  0.1456 -0.1837 -0.0046
54997ION    CL-73744  11.530  15.566  12.718 -0.3599 -0.0824 -0.0954
54998ION    CL-73745  25.572  11.164  21.893 -0.0871 -0.1651  0.3479
54999ION    CL-73746  28.285  16.941  22.519 -0.0103 -0.0834 -0.5900
55000ION    CL-73747  31.938  18.852  18.474 -0.0478 -0.2046  0.3085
55001ION    CL-73748   6.856   5.346   7.606  0.0296 -0.2107  0.1748
55002ION    CL-73749  12.553  15.163  11.242 -0.0848 -0.0550  0.0528
55003ION    CL-73750  15.345  13.748   6.269 -0.0198  0.2347  0.1267
55004ION    CL-73751  11.116   2.720   2.046  0.1801 -0.1319 -0.2824
55005ION    CL-73752  24.214  27.836  19.896  0.1069  0.2153 -0.1188
55006ION    CL-73753  29.526  33.297  21.299 -0.2551 -0.2604 -0.2430
55007ION    CL-73754  12.874  28.782   0.906 -0.5212  0.1842 -0.0090
55008ION    CL-73755  33.267   2.336  19.702 -0.1160 -0.0307 -0.0157
55009ION    CL-73756  14.053  20.816  14.395  0.0133 -0.3231 -0.0591
55010ION    CL-73757   3.983  10.353   3.273  0.2911 -0.0599  0.2446
55011ION    CL-73758  16.764   1.042  20.165  0.2901 -0.2097 -0.3694
55012ION    CL-73759  27.214  30.732  18.475 -0.1100  0.1560 -0.0021
55013ION    CL-73760  22.263  23.358  24.644  0.1257  0.1662  0.2750
55014ION    CL-73761  15.273  17.690  23.579  0.0904  0.0943 -0.0440
55015ION    CL-73762   2.568   5.757  26.122  0.1723  0.3765 -0.1656
55016ION    CL-73763  29.147  28.687  24.111 -0.0801  0.0854  0.2112
55017ION    CL-73764  23.471  21.487   0.595  0.1781  0.0033  0.1833
55018ION    CL-73765  19.114  20.523   1.629 -0.2914 -0.0417 -0.2011
55019ION    CL-73766  29.580  23.511  17.273  0.2551 -0.0284  0.0170
55020ION    CL-73767  29.583  24.150   7.678 -0.0410 -0.0677 -0.0769
55021ION    CL-73768  19.280   1.255  22.212  0.0008  0.0343 -0.3617
55022ION    CL-73769  12.425   7.170  25.151 -0.1359 -0.2129 -0.0772
55023ION    CL-73770  18.892   4.227   7.727  0.0460  0.0794 -0.2942
55024ION    CL-73771  33.341   7.947  21.595 -0.1846 -0.1063 -0.1577
55025ION    CL-73772  15.320  34.482  18.702  0.0656 -0.4730 -0.3074
55026ION    CL-73773  25.991  31.469  23.173  0.2510  0.2470 -0.1575
55027ION    CL-73774  20.711  24.663  19.630  0.0295 -0.2235  0.3120
55028ION    CL-73775  24.548  28.409  19.240 -0.3936  0.0519  0.2365
55029ION    CL-73776   0.255  14.620  25.124 -0.5021 -0.0066 -0.0725
55030ION    CL-73777  27.259  32.165  22.165  0.0858  0.0079  0.0639
55031ION    CL-73778   8.997  13.935   4.706 -0.2511 -0.1507  0.0484
55032ION    CL-73779   1.438  31.936   4.532 -0.3173 -0.1588  0.0143
55033ION    CL-73780   2.385  16.832   1.229  0.3505  0.0050 -0.1314
55034ION    CL-73781  21.586  21.072  23.022 -0.1813  0.0111  0.0980
55035ION    CL-73782  24.195   6.445  22.347  0.1457  0.1147  0.1539
55036ION    CL-73783  11.715   8.810   2.022 -0.3086  0.0853 -0.1592
55037ION    CL-73784   9.541  24.745   0.238 -0.3481  0.1256 -0.1346
55038ION    CL-73785  32.795  25.273  23.704 -0.1410 -0.1756  0.1487
55039ION    CL-73786   7.000   6.081   0.080 -0.0308  0.2828  0.4118
55040ION    CL-73787  30.732  30.044  23.016 -0.1558  0.2665  0.0988
55041ION    CL-73788  30.223   7.215   0.678 -0.1845  0.0472 -0.1708
55042ION    CL-73789  25.290  14.357  21.850  0.2196  0.2725 -0.0383
55043ION    CL-73790   8.894  11.666  12.646  0.3103  0.2698  0.0170
55044ION    CL-73791   3.063   8.250   7.369  0.5577  0.3476  0.0414
55045ION    CL-73792  20.664  22.132  24.521 -0.0555  0.0497  0.1220
55046ION    CL-73793  16.593   1.800  10.081  0.0903  0.2490  0.0999
55047ION    CL-73794  11.228   5.818   0.181  0.3859  0.1077  0.1066
55048ION    CL-73795  30.609  29.443  25.605  0.2699  0.0166 -0.0247
55049ION    CL-73796  23.971   2.635  23.191 -0.1000 -0.1218 -0.2734
55050ION    CL-73797   0.001  12.718  18.239 -0.2613  0.1484 -0.2194
55051ION    CL-73798  22.343  27.043  26.140 -0.5209  0.1525  0.0752
55052ION    CL-73799  18.816  11.127   0.086 -0.0229  0.0988  0.1760
55053ION    CL-73800  14.942  28.126  25.937 -0.4392 -0.2018  0.3049
55054ION    CL-73801   0.498   1.749  16.904  0.0046  0.1765 -0.3069
55055ION    CL-73802   1.966  32.578   3.637 -0.1921  0.0355 -0.0135
55056ION    CL-73803  30.975  17.527   6.229 -0.2201 -0.0189 -0.1733
55057ION    CL-73804   3.667  30.958   9.369 -0.0020 -0.3896 -0.0990
55058ION    CL-73805  29.687  12.480  18.397  0.1701 -0.2630 -0.0806
55059ION    CL-73806  16.599  17.852  18.884  0.2241 -0.2203  0.1102
55060ION    CL-73807   0.067   0.535  21.562  0.2571  0.1261 -0.0478
55061ION    CL-73808   4.831   6.482   9.151  0.2426  0.1922  0.1894
55062ION    CL-73809  11.802  12.776  19.961 -0.2416  0.0163 -0.4488
55063ION    CL-73810  33.812  25.411  15.728  0.2512  0.3180 -0.2876
55064ION    CL-73811  33.976  12.753  24.600  0.2881  0.0741 -0.1681
55065ION    CL-73812  13.917  33.789   5.729  0.0192  0.0748  0.0133
55066ION    CL-73813   5.069  20.571   2.209 -0.4791 -0.1266  0.1473
55067ION    CL-73814  27.921  27.063   2.385  0.0746 -0.0279 -0.2735
55068ION    CL-73815  21.480  31.335   5.788  0.0525 -0.2179 -0.2447
55069ION    CL-73816  11.733  22.875   8.900 -0.0270  0.2611  0.1780
55070ION    CL-73817  13.399  20.850  12.687 -0.2696  0.0105 -0.2103
55071ION    CL-73818  15.065  22.660  13.703 -0.4437 -0.0105  0.3382
55072ION    CL-73819  22.778   2.310   5.678  0.1577 -0.1185 -0.0147
55073ION    CL-73820  35.321  19.123  13.818 -0.1688  0.2709 -0.2784
55074ION    CL-73821  17.018  21.306  10.116 -0.0817  0.1267  0.2395
55075ION    CL-73822  18.333  30.244  10.294  0.2822 -0.0269  0.2333
55076ION    CL-73823  33.514  15.689  10.982  0.2145 -0.0413 -0.0767
55077ION    CL-73824  25.034  32.819  16.301  0.0428 -0.0310 -0.2115
55078ION    CL-73825  13.740  19.259  25.929 -0.2491 -0.0065  0.1108
55079ION    CL-73826  27.148   1.947  22.977 -0.2849  0.1307  0.1732
55080ION    CL-73827   5.158  15.874   7.292  0.0828  0.0329  0.2851
55081ION    CL-73828   4.884  30.141   1.714  0.0339 -0.0704  0.0450
55082ION    CL-73829   5.109  21.058  23.798  0.0276 -0.1468 -0.0809
55083ION    CL-73830   1.762  19.847  15.389  0.0001  0.0852 -0.1408
55084ION    CL-73831  12.969   7.634   3.872 -0.0899 -0.1550 -0.0876
55085ION    CL-73832   6.002  13.053  21.725 -0.4533 -0.0207  0.3010
55086ION    CL-73833  27.204   9.269   0.703  0.5105  0.0874 -0.1113
55087ION    CL-73834  16.897  15.908  23.970  0.0896  0.1069  0.2898
55088ION    CL-73835  23.017  20.641   0.310  0.1420  0.0470 -0.1614
55089ION    CL-73836   1.268  32.633   0.240 -0.1459 -0.1649 -0.1814
55090ION    CL-73837  18.771  22.802  19.928  0.0344  0.0291  0.2053
55091ION    CL-73838  30.487  20.651  11.664  0.1868 -0.2418 -0.0439
55092ION    CL-73839  14.113  16.461  13.443 -0.0383  0.0735  0.1335
55093ION    CL-73840   2.015   7.655   4.380  0.0883  0.1409  0.0356
55094ION    CL-73841  32.698  20.964  21.404  0.0359  0.1288 -0.0956
55095ION    CL-73842  34.783   1.754   7.790  0.0902  0.1480 -0.3080
55096ION    CL-73843   2.734  16.599  16.891  0.0145 -0.1828  0.0724
55097ION    CL-73844  19.985  13.492   6.723  0.1423  0.0677 -0.0452
55098ION    CL-73845  29.275  25.460  10.681  0.1557 -0.0067  0.1776
55099ION    CL-73846  22.204   4.215   2.140  0.4605 -0.2473  0.2229
55100ION    CL-73847  19.706  30.861  24.634 -0.1814  0.4699  0.1400
55101ION    CL-73848   5.565  20.665   5.006 -0.2782  0.0152  0.1240
55102ION    CL-73849  21.278   5.866   8.059 -0.0146  0.0883  0.0024
55103ION    CL-73850   6.823  11.975  19.923  0.2632 -0.1234  0.0519
55104ION    CL-73851  24.417  25.695   0.893 -0.1250 -0.0566 -0.2694
55105ION    CL-73852   3.242  18.281  15.885 -0.1334  0.0086 -0.0926
55106ION    CL-73853  29.771  18.662  13.190  0.0346  0.1614  0.2075
55107ION    CL-73854  12.489  16.347  24.887  0.2267  0.1573 -0.0864
55108ION    CL-73855  35.134  32.428  16.066  0.1259  0.1522 -0.0601
55109ION    CL-73856  12.373  12.011   3.699 -0.4208 -0.1718 -0.1783
55110ION    CL-73857  17.437  33.591  17.765 -0.0644 -0.2743 -0.0151
55111ION    CL-73858  34.623  34.695   4.824  0.1103 -0.1988 -0.1803
55112ION    CL-73859   8.911  17.556   7.683  0.1622 -0.1199  0.0771
55113ION    CL-73860  21.492  32.630  14.768 -0.0168 -0.3834 -0.7005
55114ION    CL-73861  24.417  28.185   1.225  0.1274  0.0268 -0.3092
55115ION    CL-73862  15.672  22.616   5.715 -0.2085  0.1006  0.0455
55116ION    CL-73863  16.557   3.686  19.161  0.2132 -0.0953 -0.0026
55117ION    CL-73864  34.566   0.148   0.686 -0.1159 -0.2081  0.0740
55118ION    CL-73865  10.231  11.176   5.990  0.2473  0.1539 -0.1495
55119ION    CL-73866  30.712  12.689   8.360  0.1366 -0.1389  0.0663
55120ION    CL-73867   8.416  17.110  25.560 -0.0522  0.3553 -0.3088
55121ION    CL-73868  27.869  25.528  23.031  0.1394 -0.1370  0.1892
55122ION    CL-73869  29.793  31.454  17.560  0.2570 -0.1371  0.2608
55123ION    CL-73870  32.022  32.994   4.144 -0.0194  0.1799  0.1570
55124ION    CL-73871  20.976   6.802   4.648  0.0405  0.1158  0.0024
55125ION    CL-73872  29.330  30.797  17.710 -0.1209  0.0664 -0.4407
55126ION    CL-73873  30.025  18.095  19.291  0.0137  0.1794 -0.1266
55127ION    CL-73874  23.387  11.126  15.820 -0.0004  0.0567 -0.1796
55128ION    CL-73875  24.895  26.897   2.183 -0.0138  0.3568 -0.0670
55129ION    CL-73876   7.702  10.900  25.547 -0.1000 -0.1524 -0.5707
55130ION    CL-73877  18.201  34.844  24.452 -0.0153  0.1208  0.1757
55131ION    CL-73878  25.721  30.641   5.527  0.3631 -0.3045 -0.1678
55132ION    CL-73879  27.250   0.813  24.110 -0.2009  0.0878 -0.0183
55133ION    CL-73880  30.426  27.289  10.577  0.1468 -0.1092 -0.0609
55134ION    CL-73881   7.685  25.114   8.623  0.2793  0.0174  0.0980
55135ION    CL-73882   5.522  16.494   1.551  0.2152 -0.0933  0.0271
55136ION    CL-73883  33.190  33.267  24.805 -0.0609  0.1087  0.0475
55137ION    CL-73884  10.747   9.058  25.453 -0.1229  0.1492  0.1839
55138ION    CL-73885  21.222  20.781   3.618 -0.1910  0.0802  0.2109
55139ION    CL-73886   3.185  27.062   5.037 -0.0790 -0.0262 -0.1711
55140ION    CL-73887  31.431  19.860  18.384 -0.1171  0.2235 -0.1611
55141ION    CL-73888   3.556   5.481  18.159 -0.4648  0.0017 -0.2144
55142ION    CL-73889  33.343   8.917  12.217 -0.1526  0.2052 -0.1240
55143ION    CL-73890  12.314  18.164  14.901 -0.1934  0.1638 -0.0702
55144ION    CL-73891  18.921  28.527   4.935 -0.0329 -0.0655 -0.4241
55145ION    CL-73892   2.844  14.903  20.186 -0.1455  0.0846 -0.2536
55146ION    CL-73893  25.088  18.297   8.381  0.0792 -0.2174  0.2272
55147ION    CL-73894  24.641  28.317  21.927  0.2182  0.1815 -0.1704
55148ION    CL-73895   7.397   9.639   6.040  0.1541 -0.0022 -0.0277
55149ION    CL-73896  15.993  30.706  22.859 -0.1412 -0.0787  0.5537
55150ION    CL-73897  10.044   0.840   9.549 -0.0409  0.1913 -0.2364
55151ION    CL-73898  17.653  34.891   5.648 -0.2640 -0.0442 -0.2321
55152ION    CL-73899  28.485  15.321   5.672  0.1862  0.1985  0.2616
55153ION    CL-73900  21.500  23.045   3.150  0.0964  0.2243  0.0667
55154ION    CL-73901  25.750  13.712  23.927 -0.0669  0.1307  0.0447
55155ION    CL-73902  15.884   3.832  10.757 -0.1381  0.2645 -0.1873
55156ION    CL-73903  13.024  31.252  10.861  0.1220 -0.1863  0.2848
55157ION    CL-73904  15.118  21.970   2.377 -0.3903  0.1579 -0.2810
55158ION    CL-73905  32.275  34.116  19.769  0.1132 -0.1232 -0.0555
55159ION    CL-73906  16.699   0.020   5.601  0.0718 -0.1320  0.0677
55160ION    CL-73907  16.414  26.539  22.596  0.1672 -0.1212 -0.2859
55161ION    CL-73908  17.416  32.205   5.137  0.1251  0.2600 -0.0435
55162ION    CL-73909  28.400  29.401  18.814 -0.1399 -0.2625 -0.0423
55163ION    CL-73910  22.876  25.967   2.690 -0.1020  0.1358 -0.0962
55164ION    CL-73911   6.725  25.773   0.322  0.2643 -0.0647  0.2407
55165ION    CL-73912  18.717  28.435  19.356  0.0167  0.0666  0.1130
55166ION    CL-73913  33.272   2.053   2.966  0.0971 -0.2454  0.1239
55167ION    CL-73914   6.157  35.013  24.363 -0.3104 -0.1817  0.0496
55168ION    CL-73915   4.621   1.892   9.177 -0.2090  0.2497  0.0882
55169ION    CL-73916   7.134  14.945   3.637  0.1361 -0.1977  0.0610
55170ION    CL-73917  10.352   7.650   5.184 -0.2476  0.1363 -0.1734
55171ION    CL-73918   1.712   4.675  16.184 -0.2068 -0.0595  0.3717
55172ION    CL-73919  17.090  33.986   4.232 -0.1528  0.0332  0.1411
55173ION    CL-73920   0.332  30.726  24.730 -0.0776  0.0963 -0.0303
55174ION    CL-73921   3.915  31.698   1.706  0.0482 -0.0971 -0.0105
55175ION    CL-73922  35.273   0.338  18.244  0.1872 -0.1224 -0.3356
55176ION    CL-73923  21.233  12.136   7.033  0.0077  0.0355 -0.0176
55177ION    CL-73924  15.469  15.730   3.816  0.2094  0.0808  0.2473
55178ION    CL-73925  35.083   7.950  22.660  0.1778 -0.1158  0.0180
55179ION    CL-73926   1.137  20.034   1.142  0.0449 -0.1130 -0.4775
55180ION    CL-73927  26.624  30.790  22.601 -0.1614  0.1903 -0.2074
55181ION    CL-73928  27.521  25.873   9.489 -0.1664 -0.1167 -0.1629
55182ION    CL-73929  26.503   7.190  15.912 -0.1795  0.0270 -0.1297
55183ION    CL-73930  22.431   4.404  19.851 -0.2935  0.4454  0.0458
55184ION    CL-73931  20.293  13.435   1.215  0.1027  0.1305  0.3057
55185ION    CL-73932  17.107  30.921   1.785  0.1925  0.0824 -0.1395
55186ION    CL-73933  17.380  29.307   2.412  0.2302  0.0961 -0.0805
55187ION    CL-73934  34.417  17.082  21.817  0.1032  0.2453 -0.1837
55188ION    CL-73935   8.718   6.457  11.156 -0.2177 -0.0501 -0.0031
55189ION    CL-73936  30.864  15.750  22.206 -0.0937 -0.2080 -0.0267
55190ION    CL-73937  19.459   4.306  23.764 -0.0510 -0.1269 -0.0019
55191ION    CL-73938  32.925  23.165  26.206 -0.0137  0.1671  0.2425
55192ION    CL-73939  11.782  21.632  11.823  0.0343 -0.0691 -0.1277
55193ION    CL-73940  29.397  12.258  25.059  0.0885 -0.0111 -0.2814
55194ION    CL-73941   5.497  31.049   4.360  0.1868 -0.1195  0.4033
55195ION    CL-73942   8.672  25.931   8.286 -0.2626  0.1431  0.0420
55196ION    CL-73943   4.231   5.984   7.430 -0.3620 -0.1965 -0.0902
55197ION    CL-73944   7.126  22.698  11.030 -0.1190  0.2237 -0.2478
55198ION    CL-73945  29.217  27.986  16.378  0.1157 -0.0608  0.0944
55199ION    CL-73946   9.794  26.516   9.541 -0.0841 -0.1076 -0.0591
55200ION    CL-73947  14.422   3.938   3.923 -0.0891  0.2522  0.2203
55201ION    CL-73948  29.989  30.143  17.894 -0.1925  0.4799 -0.1146
55202ION    CL-73949  29.148  14.640  12.684 -0.1716  0.1636 -0.1858
55203ION    CL-73950  17.951  33.071   1.473 -0.0001 -0.1876 -0.0945
55204ION    CL-73951  27.131  31.953  10.494  0.2543  0.1359 -0.2674
55205ION    CL-73952  19.791  13.486  20.828 -0.1846 -0.0045  0.2565
55206ION    CL-73953  17.379   0.819   8.608  0.0228  0.0943 -0.5460
55207ION    CL-73954  24.421   5.391  25.201  0.0517 -0.3924  0.0284
55208ION    CL-73955  15.235  10.815  23.114 -0.0351  0.0537 -0.4847
55209ION    CL-73956  12.229   5.499   4.214 -0.1511 -0.0985  0.2032
55210ION    CL-73957  26.332   3.204  22.075  0.0558  0.0045  0.1312
55211ION    CL-73958  12.315  34.997  12.787 -0.1946  0.1194 -0.1024
55212ION    CL-73959   6.858  12.032   3.143  0.1726  0.2403 -0.0804
55213ION    CL-73960   6.110  29.273   2.616  0.3513 -0.0444  0.0529
55214ION    CL-73961   2.139  23.574  18.444  0.2300  0.1018 -0.0519
55215ION    CL-73962  24.421  33.611  23.186  0.0899 -0.0197  0.1925
55216ION    CL-73963  10.646  15.960  21.998 -0.1346  0.0661 -0.2128
55217ION    CL-73964  28.893  20.977  18.490  0.0575  0.3088  0.1207
55218ION    CL-73965  30.929  30.044  19.462 -0.0846  0.2688 -0.0318
55219ION    CL-73966  23.168  30.302  16.731 -0.2438  0.2022  0.0875
55220ION    CL-73967  24.844  17.950  23.524 -0.1226  0.0102 -0.2044
55221ION    CL-73968  19.377   8.379   2.251 -0.0689 -0.0582 -0.2966
55222ION    CL-73969  27.745  25.947  21.984 -0.0226 -0.1435  0.3562
55223ION    CL-73970  21.422  27.706   5.002  0.2403  0.1882  0.3050
55224ION    CL-73971  22.034  19.827  25.874  0.1597 -0.3725 -0.1775
55225ION    CL-73972  11.180  28.916  12.657 -0.2425 -0.0147 -0.0207
55226ION    CL-73973  19.128   4.481  21.073 -0.2165  0.0182  0.1115
55227ION    CL-73974  14.362   7.835   2.207 -0.0570 -0.1604  0.0416
55228ION    CL-73975  24.078  19.248  18.879  0.1698  0.3771 -0.2952
55229ION    CL-73976   6.639  32.830   3.285  0.0496 -0.0222  0.1861
55230ION    CL-73977  15.045  20.527   3.623  0.2023  0.2662 -0.0680
55231DPPC   NC373978  29.884   6.790   9.777  0.0456 -0.4006  0.0465
55231DPPC   PO473979  30.030   6.400   9.489  0.1348 -0.1657 -0.0987
55231DPPC   GL173980  30.228   6.192   8.940  0.1605 -0.1239 -0.1886
55231DPPC   GL273981  30.545   6.212   8.874  0.0271 -0.1205  0.1401
55231DPPC   C1A73982  30.205   6.089   8.480  0.0538  0.0276  0.2076
55231DPPC   C2A73983  30.265   6.199   8.118 -0.0295  0.0666  0.0732
55231DPPC   C3A73984  30.274   5.855   7.734  0.1002 -0.0972 -0.1320
55231DPPC   C4A73985  30.022   5.902   7.371  0.1414  0.3398 -0.0806
55231DPPC   C1B73986  30.846   6.066   8.585 -0.2485 -0.0714 -0.2792
55231DPPC   C2B73987  31.373   5.920   8.568  0.0135  0.0165 -0.1199
55231DPPC   C3B73988  31.643   5.928   8.267 -0.0884  0.2635  0.2822
55231DPPC   C4B73989  31.568   6.080   7.900 -0.1044  0.1924 -0.0759
55232DPPC   NC373990  34.061  28.448  13.356  0.0818  0.0056  0.2653
55232DPPC   PO473991  34.291  28.804  13.365 -0.2577  0.3730 -0.0972
55232DPPC   GL173992  34.394  28.886  12.941 -0.2497 -0.1491  0.0932
55232DPPC   GL273993  34.215  28.680  12.820  0.0299  0.2169 -0.0389
55232DPPC   C1A73994  34.700  28.982  12.660 -0.1462  0.0983 -0.4316
55232DPPC   C2A73995  35.061  29.077  12.547  0.0538  0.2733  0.0997
55232DPPC   C3A73996   0.065  29.003  12.612  0.2234  0.2171  0.1426
55232DPPC   C4A73997   0.412  29.046  12.639 -0.0912  0.1381  0.1539
55232DPPC   C1B73998  34.467  28.647  12.412 -0.1763  0.1206  0.1055
55232DPPC   C2B73999  34.903  28.575  12.384 -0.0263 -0.3982  0.0750
55232DPPC   C3B74000  35.285  28.724  12.263 -0.0799 -0.1473  0.1913
55232DPPC   C4B74001   0.288  28.654  12.311  0.4072 -0.2809  0.0360
55233DPPC   NC374002   2.091  32.054  17.367  0.1653  0.5608 -0.1093
55233DPPC   PO474003   2.312  32.380  17.273  0.0380 -0.1524 -0.2196
55233DPPC   GL174004   2.655  32.363  16.955 -0.0045 -0.1846  0.2031
55233DPPC   GL274005   2.620  32.658  16.968 -0.2264 -0.5166  0.0541
55233DPPC   C1A74006   2.828  32.311  16.579  0.2208 -0.0253 -0.0346
55233DPPC   C2A74007   2.956  32.260  16.141  0.2443  0.3411  0.0716
55233DPPC   C3A74008   3.216  32.112  15.801  0.1128 -0.0737  0.1944
55233DPPC   C4A74009   3.369  31.984  15.500 -0.1174  0.2603  0.2580
55233DPPC   C1B74010   3.046  32.810  16.934  0.1262 -0.0947  0.0246
55233DPPC   C2B74011   3.443  32.785  16.684  0.0256  0.0458 -0.0049
55233DPPC   C3B74012   3.704  32.562  16.807 -0.0312  0.2527 -0.1194
55233DPPC   C4B74013   3.970  32.255  16.999  0.2082 -0.4598  0.0935
55234DPPC   NC374014   0.322   2.253  13.820 -0.0566 -0.2077  0.2427
55234DPPC   PO474015   0.110   1.843  13.625  0.4364 -0.2232 -0.2106
55234DPPC   GL174016   0.198   1.386  13.441 -0.0971 -0.2070  0.1056
55234DPPC   GL274017   0.227   1.125  13.605 -0.0907  0.0977 -0.2574
55234DPPC   C1A74018   0.594   1.287  13.272  0.1624 -0.0571 -0.1287
55234DPPC   C2A74019   0.882   1.132  13.000  0.4341  0.0295  0.0080
55234DPPC   C3A74020   1.210   1.073  12.643  0.0785 -0.0916 -0.1712
55234DPPC   C4A74021   1.272   1.301  12.269  0.0642  0.0925  0.0925
55234DPPC   C1B74022   0.397   0.717  13.516  0.0845  0.0664  0.2798
55234DPPC   C2B74023   0.580   0.758  13.073  0.4702 -0.4205 -0.2255
55234DPPC   C3B74024   0.851   0.571  12.739 -0.1577  0.0096  0.2954
55234DPPC   C4B74025   1.178   0.512  12.562  0.0359  0.3486 -0.1579
55235DPPC   NC374026  14.911   4.552  17.665 -0.2175 -0.0320 -0.0443
55235DPPC   PO474027  14.632   4.259  17.440  0.0504  0.3672 -0.1926
55235DPPC   GL174028  14.251   4.552  17.098  0.0942 -0.1259 -0.1153
55235DPPC   GL274029  14.028   4.421  17.000  0.1025  0.0064  0.3674
55235DPPC   C1A74030  14.388   4.807  16.717  0.2073  0.0828 -0.2565
55235DPPC   C2A74031  14.451   5.023  16.385 -0.2336 -0.0214  0.0686
55235DPPC   C3A74032  14.263   4.920  16.141  0.2984 -0.2959 -0.2458
55235DPPC   C4A74033  14.073   4.776  15.834  0.1354 -0.2966 -0.0655
55235DPPC   C1B74034  14.138   4.358  16.573  0.1593  0.2904  0.0626
55235DPPC   C2B74035  14.116   4.412  16.124 -0.1697  0.0001  0.3699
55235DPPC   C3B74036  14.260   4.256  15.720  0.3967  0.0576  0.0703
55235DPPC   C4B74037  14.042   3.997  15.483  0.0208  0.3588  0.2926
55236DPPC   NC374038  21.188  27.800  15.079  0.3802  0.5224 -0.3071
55236DPPC   PO474039  20.941  27.372  15.134 -0.1713 -0.2028 -0.2514
55236DPPC   GL174040  20.594  27.228  15.161 -0.0576 -0.1313  0.0840
55236DPPC   GL274041  20.386  27.278  15.361 -0.0735 -0.1704  0.0269
55236DPPC   C1A74042  20.284  26.876  15.146  0.1059  0.0748  0.0952
55236DPPC   C2A74043  19.934  26.653  14.908 -0.3387 -0.2302 -0.0333
55236DPPC   C3A74044  19.685  26.498  14.633  0.1772 -0.1640 -0.4104
55236DPPC   C4A74045  19.345  26.468  14.406 -0.1746 -0.0071  0.1965
55236DPPC   C1B74046  20.069  27.180  15.593  0.1653  0.1695 -0.0382
55236DPPC   C2B74047  19.860  26.968  15.564 -0.2138  0.1414 -0.0727
55236DPPC   C3B74048  19.574  26.692  15.305  0.1302  0.1055  0.0825
55236DPPC   C4B74049  19.518  26.357  15.068 -0.1593 -0.2660 -0.0770
55237DPPC   NC374050  29.211   5.459  10.080 -0.1716 -0.2505  0.1534
55237DPPC   PO474051  29.078   5.068   9.874 -0.1969  0.1970  0.1044
55237DPPC   GL174052  29.439   4.811   9.688  0.1973 -0.3844  0.1744
55237DPPC   GL274053  29.693   5.026   9.590 -0.0504  0.0130 -0.1242
55237DPPC   C1A74054  29.639   4.597   9.334 -0.1528  0.1919 -0.2040
55237DPPC   C2A74055  29.862   4.408   8.948 -0.3274  0.4106 -0.3314
55237DPPC   C3A74056  30.030   4.298   8.576  0.1493  0.0829 -0.2388
55237DPPC   C4A74057  29.962   4.457   8.212  0.0571 -0.1603  0.1811
55237DPPC   C1B74058  29.907   4.995   9.146  0.2397 -0.4977 -0.1782
55237DPPC   C2B74059  30.085   4.824   8.776  0.4465 -0.0031 -0.1543
55237DPPC   C3B74060  30.339   4.634   8.494 -0.0806 -0.0202 -0.0715
55237DPPC   C4B74061  30.432   4.718   8.132  0.1788 -0.0246  0.0150
55238DPPC   NC374062  17.098   8.353  17.781  0.2253 -0.1384  0.3672
55238DPPC   PO474063  17.368   8.080  17.644  0.0167  0.0532  0.4794
55238DPPC   GL174064  17.084   8.116  17.304 -0.2649 -0.2055  0.1749
55238DPPC   GL274065  17.295   7.975  17.099  0.1119  0.3725 -0.3023
55238DPPC   C1A74066  16.925   8.300  17.139 -0.2086 -0.0357 -0.3318
55238DPPC   C2A74067  16.782   8.444  16.778 -0.2878 -0.0364  0.0736
55238DPPC   C3A74068  16.696   8.613  16.358  0.2066  0.0137 -0.1643
55238DPPC   C4A74069  16.702   8.443  15.932 -0.0344  0.0200 -0.0630
55238DPPC   C1B74070  17.161   8.040  16.717  0.0648 -0.0684  0.3610
55238DPPC   C2B74071  17.025   8.223  16.440  0.1226 -0.0160 -0.1706
55238DPPC   C3B74072  17.163   8.309  16.111 -0.0663 -0.1657  0.0601
55238DPPC   C4B74073  17.014   8.118  15.683 -0.3829  0.2946  0.2794
55239DPPC   NC374074  21.840  30.353  12.565  0.1592 -0.1183  0.0952
55239DPPC   PO474075  21.606  30.027  12.751 -0.0992  0.1642  0.4061
55239DPPC   GL174076  21.475  29.993  12.364  0.0183  0.0298 -0.0611
55239DPPC   GL274077  21.174  30.031  12.485  0.0376 -0.1947  0.1493
55239DPPC   C1A74078  21.244  29.621  12.072  0.1819  0.3734 -0.0479
55239DPPC   C2A74079  20.909  29.671  11.781 -0.2813  0.1917 -0.0996
55239DPPC   C3A74080  20.579  29.692  11.429 -0.0608  0.1917 -0.4814
55239DPPC   C4A74081  20.190  29.851  11.297 -0.0564  0.2720  0.1494
55239DPPC   C1B74082  20.818  29.876  12.204 -0.1833 -0.0869  0.0000
55239DPPC   C2B74083  20.473  29.759  11.968  0.2434  0.2269 -0.0091
55239DPPC   C3B74084  20.186  29.562  11.684 -0.0997  0.1400 -0.0967
55239DPPC   C4B74085  19.771  29.450  11.830 -0.0439  0.1331  0.2119
55240DPPC   NC374086  18.877  16.313  18.140 -0.1275 -0.0272 -0.2593
55240DPPC   PO474087  19.087  16.240  17.632 -0.2743  0.0950  0.1262
55240DPPC   GL174088  18.835  16.333  17.237  0.1081 -0.0438 -0.3151
55240DPPC   GL274089  18.571  16.568  17.189 -0.2688  0.0912 -0.2453
55240DPPC   C1A74090  18.696  16.367  16.763 -0.1316  0.2852 -0.2104
55240DPPC   C2A74091  18.498  16.333  16.403  0.2374 -0.2463  0.1009
55240DPPC   C3A74092  18.488  16.447  15.998 -0.0467  0.0595  0.0610
55240DPPC   C4A74093  18.259  16.377  15.596 -0.1868  0.2467  0.1334
55240DPPC   C1B74094  18.228  16.312  16.997 -0.0475  0.1849  0.2030
55240DPPC   C2B74095  17.984  15.962  16.955  0.4482 -0.1553 -0.0016
55240DPPC   C3B74096  17.795  16.018  16.681 -0.2357  0.0551  0.2644
55240DPPC   C4B74097  17.608  16.219  16.340 -0.0574 -0.0662 -0.0067
55241DPPC   NC374098   6.036  12.821  16.125  0.0523  0.1999 -0.0523
55241DPPC   PO474099   5.737  12.705  15.811 -0.1337 -0.3744  0.1319
55241DPPC   GL174100   5.999  12.957  15.591  0.1652  0.3314  0.2696
55241DPPC   GL274101   6.027  12.872  15.444  0.0782  0.0842 -0.1069
55241DPPC   C1A74102   6.172  13.342  15.380 -0.2280 -0.1947 -0.1468
55241DPPC   C2A74103   6.332  13.455  15.029 -0.0836 -0.1251  0.1402
55241DPPC   C3A74104   6.494  13.408  14.627 -0.2167 -0.2951 -0.1510
55241DPPC   C4A74105   6.459  13.514  14.168 -0.0966 -0.1285 -0.0936
55241DPPC   C1B74106   6.328  12.898  15.079  0.1692  0.0187 -0.0409
55241DPPC   C2B74107   6.579  12.918  14.716 -0.1298 -0.0771 -0.1601
55241DPPC   C3B74108   6.714  13.007  14.336  0.1567  0.1072  0.2075
55241DPPC   C4B74109   6.547  13.004  14.015  0.0549 -0.0710 -0.1802
55242DPPC   NC374110  14.465   1.282  17.675 -0.1904 -0.2673 -0.2045
55242DPPC   PO474111  14.598   1.013  17.452 -0.1055  0.1447  0.3486
55242DPPC   GL174112  14.249   0.893  17.310  0.1071 -0.2798  0.0050
55242DPPC   GL274113  14.417   0.651  17.134  0.0943 -0.3245 -0.1235
55242DPPC   C1A74114  13.878   0.822  17.074 -0.0654  0.0452 -0.0036
55242DPPC   C2A74115  13.625   0.585  16.896 -0.2532 -0.0680 -0.2002
55242DPPC   C3A74116  13.478   0.169  16.841  0.2673 -0.0814 -0.3538
55242DPPC   C4A74117  13.146   0.080  16.597 -0.0261  0.2027 -0.0863
55242DPPC   C1B74118  14.129   0.405  16.861  0.0579  0.0194  0.4496
55242DPPC   C2B74119  13.954   0.070  16.725 -0.0455 -0.3151 -0.3214
55242DPPC   C3B74120  13.800  35.190  16.379 -0.2039  0.2050  0.0051
55242DPPC   C4B74121  13.547  34.938  16.134 -0.1968  0.1594 -0.1232
55243DPPC   NC374122  34.046  26.740  11.767 -0.1630 -0.1178  0.1117
55243DPPC   PO474123  34.421  26.726  12.155  0.1698 -0.1327  0.1238
55243DPPC   GL174124  34.793  26.826  12.136  0.1448 -0.1563 -0.0515
55243DPPC   GL274125  34.819  27.195  12.064  0.3288  0.0143  0.0684
55243DPPC   C1A74126  35.256  26.923  12.071  0.3223  0.2357 -0.1239
55243DPPC   C2A74127  35.377  27.219  11.911  0.2314  0.1835 -0.3537
55243DPPC   C3A74128   0.286  27.421  11.746 -0.0868 -0.2873 -0.0241
55243DPPC   C4A74129   0.565  27.808  11.645 -0.1354 -0.0359  0.1678
55243DPPC   C1B74130  34.952  27.271  11.715  0.0202 -0.0609  0.3303
55243DPPC   C2B74131  35.238  27.541  11.393 -0.1038  0.1946  0.1974
55243DPPC   C3B74132   0.120  27.795  11.355 -0.2147  0.2881 -0.2146
55243DPPC   C4B74133   0.235  28.159  11.506  0.0331 -0.2754 -0.1505
55244DPPC   NC374134  29.652  24.885   7.216  0.0062 -0.1426  0.1339
55244DPPC   PO474135  30.004  24.776   6.891  0.0863  0.2182  0.2160
55244DPPC   GL174136  30.087  25.002   6.559 -0.1388 -0.3051 -0.0785
55244DPPC   GL274137  30.358  24.902   6.325 -0.0426 -0.2138 -0.1113
55244DPPC   C1A74138  29.978  25.314   6.256  0.2009  0.0627 -0.0238
55244DPPC   C2A74139  29.843  25.691   6.100 -0.0076 -0.0727  0.0878
55244DPPC   C3A74140  29.920  26.043   5.827 -0.0980 -0.0887  0.2014
55244DPPC   C4A74141  30.101  26.185   5.595 -0.0288 -0.0360  0.2175
55244DPPC   C1B74142  30.405  25.133   6.037 -0.1458  0.0309 -0.1290
55244DPPC   C2B74143  30.338  25.491   5.730  0.0349  0.1123 -0.0404
55244DPPC   C3B74144  30.511  25.725   5.494 -0.2110 -0.1219 -0.4279
55244DPPC   C4B74145  30.626  25.766   5.079  0.1762 -0.0948 -0.2840
55245DPPC   NC374146   0.473  13.956   9.183 -0.0380 -0.0026  0.4345
55245DPPC   PO474147   0.744  14.233   9.125  0.2031  0.3938 -0.1614
55245DPPC   GL174148   1.129  14.497   8.936  0.1781  0.1129  0.1113
55245DPPC   GL274149   1.178  14.790   9.146  0.2783  0.3610  0.5340
55245DPPC   C1A74150   1.427  14.247   8.826 -0.2032  0.1020  0.0406
55245DPPC   C2A74151   1.847  14.150   8.523 -0.3072  0.1130 -0.2068
55245DPPC   C3A74152   2.092  14.245   8.268 -0.2805  0.0162  0.1729
55245DPPC   C4A74153   2.097  14.127   7.852 -0.0381  0.0921 -0.0193
55245DPPC   C1B74154   1.538  14.719   9.010  0.0515  0.0536 -0.2470
55245DPPC   C2B74155   1.872  14.559   8.834  0.2172  0.0575 -0.2913
55245DPPC   C3B74156   2.171  14.604   8.648 -0.0438  0.0904  0.0271
55245DPPC   C4B74157   2.604  14.715   8.451 -0.3335  0.3639  0.2740
55246DPPC   NC374158   6.545   7.721  17.613 -0.2805 -0.1194  0.4600
55246DPPC   PO474159   6.214   7.902  17.387  0.1525  0.2371  0.2647
55246DPPC   GL174160   6.584   8.206  17.285 -0.0609  0.3717 -0.1270
55246DPPC   GL274161   6.656   7.950  17.151 -0.1332  0.1009  0.0607
55246DPPC   C1A74162   6.918   8.341  17.049 -0.0454  0.2122  0.2128
55246DPPC   C2A74163   7.169   8.332  16.725  0.1103  0.0192  0.3751
55246DPPC   C3A74164   7.521   8.447  16.348 -0.1674  0.3763 -0.1075
55246DPPC   C4A74165   7.630   8.773  16.029  0.0999 -0.3399  0.1570
55246DPPC   C1B74166   6.772   7.798  16.777  0.1688  0.1437  0.1431
55246DPPC   C2B74167   6.666   7.804  16.370 -0.4654 -0.3954 -0.2170
55246DPPC   C3B74168   6.415   7.702  16.076  0.4283  0.2168 -0.0080
55246DPPC   C4B74169   6.370   7.713  15.612 -0.0872  0.2020 -0.0130
55247DPPC   NC374170   7.258  14.898  17.485  0.0542  0.0285  0.1680
55247DPPC   PO474171   7.097  14.703  17.121 -0.1022 -0.0227  0.0117
55247DPPC   GL174172   7.212  14.430  16.783 -0.2972 -0.3799  0.0466
55247DPPC   GL274173   7.360  14.277  16.771 -0.1310 -0.1480 -0.0570
55247DPPC   C1A74174   7.016  14.317  16.462 -0.1581  0.1644  0.1169
55247DPPC   C2A74175   7.183  14.231  16.121 -0.2181 -0.2182  0.0047
55247DPPC   C3A74176   7.294  14.398  15.855  0.1242 -0.0114  0.0442
55247DPPC   C4A74177   7.540  14.441  15.562  0.1535 -0.0467 -0.0685
55247DPPC   C1B74178   7.574  14.345  16.364  0.1313 -0.1016  0.0043
55247DPPC   C2B74179   7.706  14.448  16.071  0.2517 -0.2140 -0.1772
55247DPPC   C3B74180   7.986  14.341  15.758  0.2944 -0.2024 -0.0392
55247DPPC   C4B74181   8.438  14.301  15.637  0.1834  0.0896  0.0725
55248DPPC   NC374182   2.193  32.612  16.656  0.2167 -0.3220  0.2177
55248DPPC   PO474183   2.067  33.171  16.498  0.0738 -0.0967  0.0750
55248DPPC   GL174184   2.345  33.418  16.360  0.2396  0.0076  0.2891
55248DPPC   GL274185   2.255  33.629  16.090  0.1310  0.1569 -0.5542
55248DPPC   C1A74186   2.628  33.524  16.402 -0.3291  0.2903 -0.1285
55248DPPC   C2A74187   2.842  33.520  16.177  0.4294  0.2058  0.2922
55248DPPC   C3A74188   3.082  33.451  15.815  0.1033  0.0173 -0.1543
55248DPPC   C4A74189   3.475  33.350  15.613  0.0945 -0.1404  0.1433
55248DPPC   C1B74190   2.605  33.673  15.799  0.2967  0.0486  0.2384
55248DPPC   C2B74191   2.913  33.724  15.447  0.0929  0.0490  0.0756
55248DPPC   C3B74192   3.112  33.833  15.136 -0.0300  0.0738  0.2514
55248DPPC   C4B74193   3.302  33.969  14.758 -0.2530  0.1588 -0.0748
55249DPPC   NC374194   8.057  16.973  18.096  0.0497  0.1918  0.1922
55249DPPC   PO474195   7.891  16.777  17.794  0.0669  0.0743  0.0839
55249DPPC   GL174196   7.859  16.888  17.409  0.0732  0.1800 -0.1062
55249DPPC   GL274197   8.084  16.748  17.307  0.0645 -0.0931 -0.0936
55249DPPC   C1A74198   7.955  17.248  17.096 -0.4078 -0.0054  0.0089
55249DPPC   C2A74199   8.118  17.203  16.717 -0.2921  0.2808  0.0184
55249DPPC   C3A74200   8.198  17.349  16.326  0.0995  0.1461 -0.1344
55249DPPC   C4A74201   8.386  17.290  15.889 -0.0471  0.4929  0.1632
55249DPPC   C1B74202   8.322  16.561  17.089  0.1273  0.0078 -0.0014
55249DPPC   C2B74203   8.551  16.467  16.764 -0.1151  0.0059 -0.1809
55249DPPC   C3B74204   8.852  16.700  16.542 -0.1312  0.1251  0.1914
55249DPPC   C4B74205   9.117  16.671  16.096 -0.3163  0.2046 -0.0479
55250DPPC   NC374206  28.896   8.827   7.356 -0.1426 -0.0210  0.3020
55250DPPC   PO474207  28.547   8.933   7.057 -0.0686 -0.0407  0.0130
55250DPPC   GL174208  28.494   8.681   6.747  0.2313 -0.0611 -0.1518
55250DPPC   GL274209  28.730   8.420   6.632 -0.3452 -0.0368 -0.0748
55250DPPC   C1A74210  28.267   8.350   6.540 -0.0297 -0.1347 -0.1798
55250DPPC   C2A74211  28.228   8.033   6.273  0.0394  0.1151  0.2829
55250DPPC   C3A74212  28.298   7.910   5.933 -0.0035  0.4121 -0.2349
55250DPPC   C4A74213  28.217   7.929   5.599 -0.0167  0.0711  0.0183
55250DPPC   C1B74214  28.656   8.285   6.182  0.1142 -0.1978 -0.4005
55250DPPC   C2B74215  28.822   8.108   5.894  0.1162  0.3070 -0.2140
55250DPPC   C3B74216  28.702   7.992   5.483 -0.3927  0.1059  0.2974
55250DPPC   C4B74217  28.486   8.060   5.151  0.2449  0.1238  0.3126
55251DPPC   NC374218   3.455  30.355  18.666  0.1214  0.2236  0.0423
55251DPPC   PO474219   3.516  30.814  18.526  0.0415 -0.1403 -0.0187
55251DPPC   GL174220   3.614  31.047  18.203 -0.1810  0.1025  0.3398
55251DPPC   GL274221   3.618  31.290  18.254  0.0039  0.0783 -0.0850
55251DPPC   C1A74222   3.808  30.925  17.800  0.0265 -0.0776 -0.0866
55251DPPC   C2A74223   4.023  30.756  17.561 -0.0946 -0.1946 -0.2625
55251DPPC   C3A74224   4.444  30.620  17.349  0.0403 -0.2151  0.0065
55251DPPC   C4A74225   4.929  30.486  17.456  0.1170 -0.2371  0.1284
55251DPPC   C1B74226   3.909  31.402  17.951  0.0169 -0.0654  0.2773
55251DPPC   C2B74227   4.133  31.204  17.452 -0.2096 -0.1732 -0.2851
55251DPPC   C3B74228   4.497  31.092  17.148  0.1152  0.4984 -0.2852
55251DPPC   C4B74229   4.728  30.814  16.981 -0.2341 -0.1630 -0.3036
55252DPPC   NC374230   0.615  17.950   7.646  0.1051 -0.1490  0.1121
55252DPPC   PO474231   0.343  17.907   7.398  0.0086  0.1827  0.4235
55252DPPC   GL174232   0.685  18.130   7.177  0.0572  0.0750 -0.0032
55252DPPC   GL274233   0.881  17.955   7.236  0.0812  0.3529 -0.2207
55252DPPC   C1A74234   0.993  18.238   6.906  0.2534 -0.2391 -0.1879
55252DPPC   C2A74235   1.308  18.243   6.591 -0.2215  0.1211  0.2977
55252DPPC   C3A74236   1.679  18.498   6.520  0.0660  0.1092  0.1870
55252DPPC   C4A74237   2.005  18.768   6.672 -0.0098 -0.1975 -0.1487
55252DPPC   C1B74238   1.315  17.895   7.062  0.0256 -0.4538  0.2145
55252DPPC   C2B74239   1.526  17.751   6.806  0.2140  0.4091  0.0061
55252DPPC   C3B74240   1.865  17.600   6.535 -0.0130  0.0318  0.1862
55252DPPC   C4B74241   2.143  17.470   6.229 -0.2979 -0.1521 -0.1691
55253DPPC   NC374242  19.710   3.702  16.115 -0.1387 -0.1310 -0.1107
55253DPPC   PO474243  19.281   3.951  16.020  0.0468  0.6614 -0.0711
55253DPPC   GL174244  19.066   4.411  15.859 -0.4511  0.3204 -0.0191
55253DPPC   GL274245  19.336   4.670  15.815  0.0910 -0.3388 -0.0756
55253DPPC   C1A74246  18.813   4.711  15.699  0.1691  0.0067 -0.2702
55253DPPC   C2A74247  18.641   4.873  15.337 -0.2790 -0.1095  0.1486
55253DPPC   C3A74248  18.851   5.125  15.165  0.1721  0.2558  0.1490
55253DPPC   C4A74249  18.989   5.548  15.151  0.0367  0.1570  0.0763
55253DPPC   C1B74250  19.345   4.541  15.433  0.1898  0.4813  0.1446
55253DPPC   C2B74251  19.530   4.511  15.033 -0.0275  0.2634  0.0644
55253DPPC   C3B74252  19.534   4.725  14.757  0.2936 -0.0594  0.0411
55253DPPC   C4B74253  19.601   5.116  14.709  0.1877 -0.3352 -0.2615
55254DPPC   NC374254  11.527   6.734  19.161 -0.0047 -0.2410  0.1030
55254DPPC   PO474255  11.502   6.559  18.781 -0.0494 -0.1153 -0.0758
55254DPPC   GL174256  11.329   6.689  18.370  0.1467  0.0837  0.3275
55254DPPC   GL274257  11.668   6.702  18.288  0.1060 -0.1825 -0.0348
55254DPPC   C1A74258  10.993   6.861  18.058 -0.2116 -0.0677  0.1218
55254DPPC   C2A74259  10.828   7.248  17.903 -0.0153  0.1238 -0.1663
55254DPPC   C3A74260  10.868   7.386  17.482  0.1919 -0.0291 -0.2365
55254DPPC   C4A74261  10.835   7.583  17.071  0.1898 -0.0625  0.1714
55254DPPC   C1B74262  11.492   7.072  18.065 -0.0757  0.2362 -0.1584
55254DPPC   C2B74263  11.280   7.103  17.729  0.2631 -0.1695  0.2315
55254DPPC   C3B74264  11.324   7.017  17.259  0.0221  0.0848  0.1580
55254DPPC   C4B74265  11.570   6.849  16.937  0.0420  0.2331  0.0962
55255DPPC   NC374266  35.193  14.148   7.789 -0.0868  0.1073 -0.1054
55255DPPC   PO474267  35.171  14.304   7.362  0.1572  0.2314 -0.0459
55255DPPC   GL174268   0.040  14.104   7.035  0.3516 -0.2870  0.1746
55255DPPC   GL274269  35.270  13.989   6.783  0.0110  0.2224  0.0041
55255DPPC   C1A74270   0.361  14.041   6.807 -0.2691 -0.0424  0.0726
55255DPPC   C2A74271   0.740  13.980   6.563  0.2261 -0.4091  0.1282
55255DPPC   C3A74272   0.922  13.965   6.253  0.1233  0.4209 -0.0314
55255DPPC   C4A74273   1.145  13.920   5.912 -0.0347  0.2266 -0.1871
55255DPPC   C1B74274   0.107  13.921   6.371  0.1740  0.2947 -0.1266
55255DPPC   C2B74275   0.454  13.627   6.122 -0.1699 -0.1835 -0.2314
55255DPPC   C3B74276   0.773  13.583   5.796 -0.0988  0.4521  0.3028
55255DPPC   C4B74277   1.178  13.529   5.513  0.0965  0.0031  0.0603
55256DPPC   NC374278  23.258  10.058  13.205  0.1164  0.2523 -0.1612
55256DPPC   PO474279  23.407   9.892  12.854 -0.0636 -0.1382 -0.2154
55256DPPC   GL174280  23.199   9.718  12.571 -0.0069  0.1659  0.2736
55256DPPC   GL274281  23.202   9.885  12.282 -0.2537  0.0412  0.0090
55256DPPC   C1A74282  22.879   9.474  12.500 -0.1277  0.2239  0.0903
55256DPPC   C2A74283  22.478   9.432  12.305 -0.2155  0.1039 -0.2106
55256DPPC   C3A74284  22.276   9.267  11.921  0.1156  0.2318  0.1196
55256DPPC   C4A74285  21.976   9.436  11.664  0.1213 -0.2769 -0.0227
55256DPPC   C1B74286  22.807   9.621  11.990 -0.1105 -0.0417 -0.2797
55256DPPC   C2B74287  22.663   9.481  11.559  0.0247 -0.1365 -0.1683
55256DPPC   C3B74288  22.320   9.106  11.421 -0.1963 -0.2604 -0.3932
55256DPPC   C4B74289  22.269   8.690  11.474  0.0492  0.2389 -0.2185
55257DPPC   NC374290  29.190   7.738   7.734  0.0230 -0.4897 -0.4224
55257DPPC   PO474291  29.678   7.672   7.685  0.3655  0.3243  0.1201
55257DPPC   GL174292  30.113   7.707   7.634 -0.0306 -0.1424  0.3839
55257DPPC   GL274293  30.221   7.654   7.838 -0.1768 -0.1965  0.0532
55257DPPC   C1A74294  30.493   7.519   7.429  0.0351  0.3141  0.1262
55257DPPC   C2A74295  30.690   7.279   7.176 -0.0271  0.1647  0.1779
55257DPPC   C3A74296  31.051   7.040   6.957 -0.1751  0.2083  0.1571
55257DPPC   C4A74297  31.290   6.862   6.676  0.2515  0.2365 -0.3054
55257DPPC   C1B74298  30.717   7.627   7.860  0.0454 -0.3645  0.2172
55257DPPC   C2B74299  31.138   7.481   7.828  0.1013 -0.2583 -0.0427
55257DPPC   C3B74300  31.424   7.605   7.636 -0.1138  0.0826  0.3093
55257DPPC   C4B74301  31.892   7.675   7.454  0.0110 -0.5259  0.2186
55258DPPC   NC374302   2.326  28.067  17.462  0.3686 -0.0173 -0.2388
55258DPPC   PO474303   1.930  27.860  17.295 -0.3225  0.1001 -0.2171
55258DPPC   GL174304   1.945  27.693  16.890  0.3672 -0.0961 -0.0716
55258DPPC   GL274305   1.914  27.393  16.919  0.3319  0.2244  0.0804
55258DPPC   C1A74306   2.189  27.614  16.532  0.0297  0.1867 -0.2434
55258DPPC   C2A74307   2.556  27.581  16.257  0.1305 -0.2332  0.0872
55258DPPC   C3A74308   2.795  27.629  15.954 -0.2713  0.1382  0.2582
55258DPPC   C4A74309   3.099  27.532  15.663 -0.0020  0.2943  0.3564
55258DPPC   C1B74310   2.403  27.543  16.951 -0.1152  0.1809 -0.0494
55258DPPC   C2B74311   2.706  27.772  16.747 -0.0267  0.0072 -0.1297
55258DPPC   C3B74312   2.980  27.821  16.416  0.0929  0.1023  0.1004
55258DPPC   C4B74313   3.095  28.148  16.081 -0.1053 -0.0102 -0.0400
55259DPPC   NC374314  17.665   2.337  16.346  0.0505 -0.1578 -0.1949
55259DPPC   PO474315  17.444   2.527  16.094 -0.0455  0.1792 -0.1994
55259DPPC   GL174316  17.391   2.705  15.757  0.0763  0.2016  0.1881
55259DPPC   GL274317  17.158   2.898  15.822  0.0115 -0.0132  0.3883
55259DPPC   C1A74318  17.155   2.786  15.268 -0.0012 -0.3662  0.0224
55259DPPC   C2A74319  16.998   2.857  15.062 -0.0720  0.1983  0.2439
55259DPPC   C3A74320  16.861   3.168  14.793 -0.2455 -0.0852 -0.1446
55259DPPC   C4A74321  16.636   3.511  14.560  0.0827  0.1826  0.1410
55259DPPC   C1B74322  17.258   3.156  15.571  0.1474 -0.0990 -0.1398
55259DPPC   C2B74323  17.161   3.365  15.179 -0.0202  0.1941  0.1624
55259DPPC   C3B74324  17.165   3.609  14.699 -0.0698 -0.2355 -0.0355
55259DPPC   C4B74325  16.955   3.871  14.318 -0.0373 -0.5480  0.1896
55260DPPC   NC374326  32.769  29.334  11.879 -0.0717  0.0528 -0.3465
55260DPPC   PO474327  32.963  29.406  12.159 -0.1364 -0.1086 -0.0971
55260DPPC   GL174328  33.315  29.521  11.946 -0.1166  0.0025  0.2148
55260DPPC   GL274329  33.436  29.832  11.837 -0.2425 -0.1536  0.0584
55260DPPC   C1A74330  33.347  29.435  11.532 -0.1634  0.0291 -0.0178
55260DPPC   C2A74331  33.712  29.462  11.226  0.3142 -0.2197 -0.0783
55260DPPC   C3A74332  34.088  29.347  10.897  0.1708  0.0093  0.3979
55260DPPC   C4A74333  34.508  29.498  10.631  0.0574 -0.1360 -0.2331
55260DPPC   C1B74334  33.844  29.914  11.552 -0.0508 -0.0816 -0.2118
55260DPPC   C2B74335  34.088  29.846  11.177  0.0738 -0.0079 -0.0557
55260DPPC   C3B74336  34.453  29.776  11.062  0.0678  0.1583 -0.1816
55260DPPC   C4B74337  34.723  29.995  10.873 -0.1209  0.2218  0.1030
55261DPPC   NC374338  19.543  32.500  14.773  0.0222 -0.4461  0.2200
55261DPPC   PO474339  19.005  32.281  14.911 -0.1379  0.0426  0.1269
55261DPPC   GL174340  18.661  32.182  14.654  0.0437  0.1783 -0.0900
55261DPPC   GL274341  18.494  32.108  14.940 -0.1988  0.0639 -0.1495
55261DPPC   C1A74342  18.394  32.197  14.380  0.4500 -0.0991  0.1553
55261DPPC   C2A74343  18.084  31.962  14.154 -0.0811 -0.0985  0.0265
55261DPPC   C3A74344  17.788  31.892  13.827  0.2401  0.1777 -0.3569
55261DPPC   C4A74345  17.811  31.612  13.425  0.0442  0.2636  0.0136
55261DPPC   C1B74346  18.035  32.187  14.728 -0.1194 -0.0200 -0.2634
55261DPPC   C2B74347  17.702  32.129  14.534  0.2147 -0.2904  0.2874
55261DPPC   C3B74348  17.489  31.940  14.237  0.2041  0.1724 -0.0009
55261DPPC   C4B74349  17.298  31.627  14.119  0.0340 -0.0652  0.0260
55262DPPC   NC374350   0.531  33.328  15.734 -0.0655 -0.0635 -0.2766
55262DPPC   PO474351   0.689  33.075  15.370  0.0449  0.1786 -0.1115
55262DPPC   GL174352   0.739  32.861  14.951  0.2714  0.0058 -0.1163
55262DPPC   GL274353   0.960  32.924  14.819  0.0797 -0.0829 -0.0989
55262DPPC   C1A74354   0.665  32.475  14.743 -0.1331 -0.4158 -0.0378
55262DPPC   C2A74355   0.776  32.125  14.606  0.0525 -0.4208  0.2554
55262DPPC   C3A74356   1.152  31.910  14.627 -0.3371  0.0965 -0.0796
55262DPPC   C4A74357   1.556  31.883  14.284 -0.1632  0.1214 -0.1114
55262DPPC   C1B74358   1.103  32.640  14.494  0.1141  0.1425  0.0100
55262DPPC   C2B74359   1.297  32.367  14.160 -0.1950  0.1034  0.1788
55262DPPC   C3B74360   1.478  32.224  13.793 -0.0407 -0.0020 -0.0456
55262DPPC   C4B74361   1.561  32.272  13.375 -0.0353 -0.0274 -0.1014
55263DPPC   NC374362  30.623   6.206   9.444  0.1908  0.0045  0.0756
55263DPPC   PO474363  31.007   6.405   9.435  0.0398  0.0434  0.0234
55263DPPC   GL174364  31.180   6.135   9.196  0.0783  0.1420  0.0540
55263DPPC   GL274365  31.413   6.258   8.990 -0.0035  0.0164  0.1146
55263DPPC   C1A74366  31.367   5.774   9.035  0.1379  0.0121  0.0957
55263DPPC   C2A74367  31.505   5.487   8.834  0.0084 -0.3286 -0.1119
55263DPPC   C3A74368  31.705   5.451   8.440 -0.0109  0.0960  0.2005
55263DPPC   C4A74369  31.617   5.463   8.061  0.1842 -0.0832 -0.0112
55263DPPC   C1B74370  31.735   6.301   8.670 -0.0179  0.3428  0.0763
55263DPPC   C2B74371  31.980   6.316   8.314 -0.3420 -0.3626  0.1218
55263DPPC   C3B74372  32.422   6.184   8.136  0.3694 -0.3012 -0.3536
55263DPPC   C4B74373  32.765   5.808   8.121 -0.0387 -0.1836  0.2010
55264DPPC   NC374374  26.140  20.024   5.116 -0.0815 -0.0590 -0.0996
55264DPPC   PO474375  26.385  20.008   4.762 -0.0627 -0.1179  0.0740
55264DPPC   GL174376  25.978  19.953   4.598 -0.1279  0.0200  0.0597
55264DPPC   GL274377  26.229  20.045   4.311  0.0802 -0.0896 -0.0970
55264DPPC   C1A74378  25.656  19.962   4.310 -0.3649 -0.0117 -0.2597
55264DPPC   C2A74379  25.293  20.140   4.236  0.3626 -0.2142 -0.1564
55264DPPC   C3A74380  24.950  20.028   4.015  0.4240 -0.4615  0.2034
55264DPPC   C4A74381  24.548  19.947   3.897 -0.2408  0.0606 -0.2011
55264DPPC   C1B74382  26.072  20.036   3.961 -0.2427  0.0118  0.1274
55264DPPC   C2B74383  26.035  20.267   3.655  0.1161 -0.1916 -0.1359
55264DPPC   C3B74384  25.854  20.616   3.506  0.2886 -0.0296  0.0703
55264DPPC   C4B74385  25.534  20.790   3.343  0.1807 -0.3071  0.1168
55265DPPC   NC374386  24.853   5.036  11.914  0.0452 -0.3153 -0.0792
55265DPPC   PO474387  25.031   4.940  11.559 -0.0813 -0.0414 -0.0729
55265DPPC   GL174388  24.660   4.985  11.330  0.1921 -0.0329  0.0948
55265DPPC   GL274389  24.587   5.280  11.569  0.3810 -0.0014 -0.0406
55265DPPC   C1A74390  24.262   5.096  11.191 -0.1669  0.4822 -0.0342
55265DPPC   C2A74391  24.118   5.280  10.882  0.0696  0.2277  0.0936
55265DPPC   C3A74392  23.897   5.203  10.515  0.2436 -0.1154 -0.2143
55265DPPC   C4A74393  23.852   5.048  10.172  0.0502 -0.2370 -0.0526
55265DPPC   C1B74394  24.362   5.581  11.317  0.3104  0.0050  0.2723
55265DPPC   C2B74395  24.046   5.746  11.048 -0.0444  0.0185  0.3195
55265DPPC   C3B74396  23.806   5.667  10.727 -0.0010  0.0120  0.0902
55265DPPC   C4B74397  23.581   5.692  10.369  0.1304 -0.0612  0.1657
55266DPPC   NC374398   1.986  13.385  11.506  0.0318  0.1035  0.0758
55266DPPC   PO474399   2.067  13.697  11.237 -0.0726  0.0034  0.2594
55266DPPC   GL174400   2.439  13.499  11.370 -0.2644 -0.0787  0.1884
55266DPPC   GL274401   2.495  13.420  11.643  0.1165  0.1086 -0.0407
55266DPPC   C1A74402   2.858  13.430  11.240 -0.1668  0.3643 -0.2078
55266DPPC   C2A74403   3.230  13.208  11.151  0.1321 -0.0645  0.3508
55266DPPC   C3A74404   3.588  12.930  11.169  0.0192  0.0684  0.0674
55266DPPC   C4A74405   3.885  12.602  11.172  0.0755  0.0122  0.2105
55266DPPC   C1B74406   2.959  13.243  11.729 -0.2531 -0.1209 -0.1619
55266DPPC   C2B74407   3.388  13.023  11.741  0.0211 -0.1811 -0.4188
55266DPPC   C3B74408   3.835  12.984  11.696  0.0495  0.2738 -0.1823
55266DPPC   C4B74409   4.226  12.815  11.605 -0.1545 -0.0819 -0.0782
55267DPPC   NC374410  16.151  18.938  20.487  0.3771 -0.2141 -0.2313
55267DPPC   PO474411  15.655  19.078  20.288  0.1030 -0.1344  0.0445
55267DPPC   GL174412  15.324  19.201  19.961 -0.0261 -0.3972 -0.0218
55267DPPC   GL274413  15.104  19.017  19.916 -0.2204  0.1402 -0.0043
55267DPPC   C1A74414  15.132  19.520  19.689 -0.0612  0.1993 -0.2666
55267DPPC   C2A74415  14.991  19.790  19.398  0.1748 -0.1487  0.0624
55267DPPC   C3A74416  14.697  20.016  19.145 -0.0617  0.0917 -0.0638
55267DPPC   C4A74417  14.389  20.312  18.948 -0.1771 -0.0313 -0.1032
55267DPPC   C1B74418  14.967  18.915  19.561 -0.0294 -0.2383  0.0130
55267DPPC   C2B74419  14.678  18.990  19.272  0.0476  0.0489 -0.1511
55267DPPC   C3B74420  14.467  19.055  18.910  0.0580  0.1582  0.1081
55267DPPC   C4B74421  14.224  19.271  18.671  0.2322 -0.0362  0.0735
55268DPPC   NC374422   1.411  18.067  10.025  0.2445 -0.1785 -0.0509
55268DPPC   PO474423   1.871  18.289  10.097  0.0786 -0.0567  0.1959
55268DPPC   GL174424   2.288  18.352  10.115  0.0649 -0.1816 -0.1600
55268DPPC   GL274425   2.509  18.548   9.895 -0.0450  0.2432  0.1216
55268DPPC   C1A74426   2.648  18.180  10.269 -0.2697 -0.0926  0.0953
55268DPPC   C2A74427   3.099  18.166  10.284  0.0205  0.0209 -0.1102
55268DPPC   C3A74428   3.524  18.114  10.141 -0.2721 -0.1673  0.0833
55268DPPC   C4A74429   3.897  18.151  10.005 -0.2358  0.3088 -0.0720
55268DPPC   C1B74430   2.855  18.291   9.809  0.2817  0.2420  0.2353
55268DPPC   C2B74431   3.171  17.934   9.853 -0.1155  0.1966 -0.1283
55268DPPC   C3B74432   3.518  17.878   9.690  0.4500 -0.2615 -0.1746
55268DPPC   C4B74433   3.933  17.977   9.521 -0.1217 -0.0702 -0.1194
55269DPPC   NC374434  16.774   4.431  17.129 -0.0436  0.0486 -0.0761
55269DPPC   PO474435  16.440   4.657  17.201 -0.3343  0.0113  0.0079
55269DPPC   GL174436  16.290   4.775  16.796  0.0445  0.3067 -0.1783
55269DPPC   GL274437  15.980   4.863  16.739 -0.1689  0.3040 -0.2593
55269DPPC   C1A74438  16.361   4.640  16.349  0.0828 -0.2698 -0.1391
55269DPPC   C2A74439  16.182   4.735  15.997 -0.1208 -0.1079 -0.2225
55269DPPC   C3A74440  16.113   4.985  15.634 -0.1850  0.1818  0.2250
55269DPPC   C4A74441  16.101   4.883  15.235 -0.4859 -0.2086 -0.1067
55269DPPC   C1B74442  15.792   4.781  16.353 -0.3052  0.0353  0.1470
55269DPPC   C2B74443  15.693   4.908  15.951  0.2824 -0.0787  0.1346
55269DPPC   C3B74444  15.575   5.082  15.745  0.0586 -0.2024  0.3095
55269DPPC   C4B74445  15.467   4.924  15.364 -0.2963  0.1383  0.2150
55270DPPC   NC374446  19.246  18.003  17.982 -0.0940 -0.0773  0.2512
55270DPPC   PO474447  18.851  17.681  17.890 -0.0627  0.1630 -0.2755
55270DPPC   GL174448  18.580  17.929  17.565 -0.1741  0.1786  0.3137
55270DPPC   GL274449  18.403  18.140  17.633  0.0947 -0.0473  0.1350
55270DPPC   C1A74450  18.339  17.870  17.161 -0.3377 -0.1922  0.4980
55270DPPC   C2A74451  18.124  18.001  16.811  0.0433 -0.0451  0.0062
55270DPPC   C3A74452  18.002  17.989  16.438  0.0859 -0.1760  0.0248
55270DPPC   C4A74453  18.174  17.729  16.173 -0.0367 -0.0108  0.0670
55270DPPC   C1B74454  18.267  18.350  17.407  0.0091 -0.0721 -0.2918
55270DPPC   C2B74455  18.097  18.378  17.084  0.1522  0.1785 -0.2479
55270DPPC   C3B74456  18.015  18.577  16.765 -0.3600 -0.1270 -0.4235
55270DPPC   C4B74457  18.031  18.607  16.408  0.0787  0.1434 -0.0834
55271DPPC   NC374458  24.703  10.310  11.340  0.1255  0.2058 -0.2896
55271DPPC   PO474459  24.589  10.728  11.341 -0.0657 -0.4034  0.0126
55271DPPC   GL174460  24.198  11.056  11.193 -0.2161  0.0934  0.2201
55271DPPC   GL274461  24.172  11.425  11.103  0.1080 -0.2633 -0.1530
55271DPPC   C1A74462  23.681  10.901  11.192  0.0649  0.0111  0.1446
55271DPPC   C2A74463  23.230  10.776  11.069  0.0516 -0.1301 -0.0377
55271DPPC   C3A74464  22.802  10.777  10.995 -0.0955  0.0792  0.0192
55271DPPC   C4A74465  22.388  10.860  10.936  0.1395 -0.0305  0.0440
55271DPPC   C1B74466  23.725  11.350  11.031  0.1156  0.5657 -0.1516
55271DPPC   C2B74467  23.390  11.242  10.802  0.0493 -0.0310 -0.0149
55271DPPC   C3B74468  23.271  10.863  10.615 -0.4043 -0.0290  0.1475
55271DPPC   C4B74469  23.020  10.483  10.673 -0.0003 -0.0402 -0.3110
55272DPPC   NC374470   6.548  13.479  17.144  0.1521  0.1632  0.1173
55272DPPC   PO474471   6.969  13.562  17.034  0.1562  0.0369  0.2053
55272DPPC   GL174472   7.279  13.432  16.913 -0.1133  0.1145 -0.0995
55272DPPC   GL274473   7.234  13.128  16.835  0.3690 -0.1495  0.0935
55272DPPC   C1A74474   7.645  13.434  16.668  0.1281  0.1743  0.0437
55272DPPC   C2A74475   7.902  13.355  16.307  0.3875  0.1621  0.2571
55272DPPC   C3A74476   8.104  13.426  15.997  0.0597 -0.0864  0.0473
55272DPPC   C4A74477   8.178  13.256  15.717 -0.2602  0.3628 -0.2479
55272DPPC   C1B74478   7.542  12.908  16.497 -0.0477  0.0380 -0.2967
55272DPPC   C2B74479   7.782  12.907  16.058  0.0879 -0.3086  0.0246
55272DPPC   C3B74480   7.870  12.729  15.725  0.1065  0.0896  0.1836
55272DPPC   C4B74481   7.867  12.341  15.474  0.1281 -0.0850  0.1908
55273DPPC   NC374482  30.780   3.492  11.212 -0.0385 -0.1105  0.0114
55273DPPC   PO474483  30.912   3.131  11.300 -0.1619 -0.1308  0.0398
55273DPPC   GL174484  31.249   3.195  10.970  0.1105 -0.2172 -0.2525
55273DPPC   GL274485  31.427   3.396  10.923  0.0865  0.3520  0.1658
55273DPPC   C1A74486  31.189   2.973  10.541  0.4120 -0.2125 -0.1813
55273DPPC   C2A74487  31.217   2.667  10.200  0.0922 -0.0122 -0.0771
55273DPPC   C3A74488  31.154   2.530   9.809  0.2296 -0.0617  0.0209
55273DPPC   C4A74489  31.210   2.255   9.453  0.2224 -0.1774  0.0073
55273DPPC   C1B74490  31.576   3.425  10.536  0.3952 -0.0647 -0.0433
55273DPPC   C2B74491  31.587   3.165  10.217  0.1378 -0.0161 -0.1068
55273DPPC   C3B74492  31.593   2.879   9.924  0.2138 -0.0259  0.0854
55273DPPC   C4B74493  31.644   2.421   9.742 -0.1707 -0.0599 -0.0119
55274DPPC   NC374494  18.472  18.604  18.566 -0.0270 -0.1315 -0.0352
55274DPPC   PO474495  18.549  18.997  18.396  0.0341  0.0631 -0.1613
55274DPPC   GL174496  18.632  19.176  18.058  0.0673 -0.0510  0.0257
55274DPPC   GL274497  18.756  19.508  17.986  0.0092 -0.0880  0.0361
55274DPPC   C1A74498  18.532  19.173  17.566 -0.1869  0.0409 -0.1325
55274DPPC   C2A74499  18.282  19.277  17.173  0.0251 -0.0594  0.1970
55274DPPC   C3A74500  18.104  19.340  16.800 -0.1877  0.2534  0.0497
55274DPPC   C4A74501  17.729  19.297  16.615  0.1979 -0.1007  0.0187
55274DPPC   C1B74502  18.660  19.715  17.704  0.1752  0.3158 -0.1553
55274DPPC   C2B74503  18.514  19.638  17.354  0.2511 -0.1552 -0.0089
55274DPPC   C3B74504  18.471  19.726  16.848 -0.1663 -0.1317 -0.2540
55274DPPC   C4B74505  18.182  19.834  16.507 -0.0434  0.2867 -0.1390
55275DPPC   NC374506  30.834   6.384  10.007 -0.1338  0.1087 -0.0256
55275DPPC   PO474507  30.726   5.935  10.048 -0.2167  0.1504 -0.1800
55275DPPC   GL174508  31.025   5.956   9.654  0.2287 -0.2242  0.0025
55275DPPC   GL274509  30.932   5.701   9.468 -0.0636  0.3070 -0.1749
55275DPPC   C1A74510  31.422   5.731   9.572  0.3247  0.2465  0.0459
55275DPPC   C2A74511  31.618   5.380   9.273 -0.1132 -0.1511 -0.2003
55275DPPC   C3A74512  31.877   5.198   8.874  0.0704 -0.0694 -0.2007
55275DPPC   C4A74513  32.152   5.170   8.560 -0.1320  0.1106 -0.1562
55275DPPC   C1B74514  31.074   5.389   9.206 -0.0672  0.2631  0.0027
55275DPPC   C2B74515  31.202   5.128   8.991  0.1011 -0.3450 -0.1001
55275DPPC   C3B74516  31.370   5.050   8.538  0.5941  0.1258  0.0928
55275DPPC   C4B74517  31.428   5.001   8.082 -0.0934 -0.4440 -0.3093
55276DPPC   NC374518  34.271  18.284   6.798  0.0825  0.4786 -0.1368
55276DPPC   PO474519  34.555  18.630   6.695 -0.0702 -0.1161  0.0310
55276DPPC   GL174520  34.954  19.021   6.605  0.0761  0.0803 -0.0389
55276DPPC   GL274521  35.149  18.917   6.782  0.0760 -0.1888  0.0235
55276DPPC   C1A74522  35.103  19.408   6.322  0.1299 -0.4419  0.0237
55276DPPC   C2A74523  35.080  19.779   6.085 -0.0411 -0.0378  0.0167
55276DPPC   C3A74524   0.004  20.002   5.938 -0.1598  0.0798  0.1561
55276DPPC   C4A74525   0.239  19.977   5.653  0.2317 -0.0060 -0.3284
55276DPPC   C1B74526   0.072  19.105   6.498 -0.0218  0.0809 -0.0126
55276DPPC   C2B74527   0.281  19.196   6.132  0.3465  0.1375  0.2618
55276DPPC   C3B74528   0.609  19.248   5.833 -0.2315  0.0849  0.2423
55276DPPC   C4B74529   0.943  19.313   5.564 -0.0455 -0.0153 -0.0129
55277DPPC   NC374530  33.247  32.571  12.210 -0.2617 -0.3724 -0.0179
55277DPPC   PO474531  32.899  32.363  12.165  0.1979  0.1223 -0.2771
55277DPPC   GL174532  33.029  32.248  11.751 -0.0401 -0.0266  0.1616
55277DPPC   GL274533  33.303  32.043  11.708 -0.0894 -0.1923 -0.0304
55277DPPC   C1A74534  33.264  32.458  11.362 -0.0240  0.3067  0.0573
55277DPPC   C2A74535  33.473  32.571  11.009 -0.2425  0.1074  0.2312
55277DPPC   C3A74536  33.855  32.682  10.694  0.1628  0.1171 -0.1202
55277DPPC   C4A74537  34.118  32.653  10.312  0.2026 -0.1259  0.1111
55277DPPC   C1B74538  33.526  32.087  11.295 -0.1461  0.0115 -0.3096
55277DPPC   C2B74539  33.887  32.230  10.952  0.0552 -0.3216 -0.3504
55277DPPC   C3B74540  34.258  32.296  10.662  0.1233  0.0854  0.0579
55277DPPC   C4B74541  34.618  32.493  10.747  0.0405  0.2648 -0.0189
55278DPPC   NC374542  31.139   0.170  11.795  0.0099  0.1921 -0.1378
55278DPPC   PO474543  31.535   0.229  11.787 -0.1553 -0.0318 -0.3111
55278DPPC   GL174544  31.607   0.237  11.322  0.0725  0.4131 -0.1078
55278DPPC   GL274545  31.621   0.612  11.207  0.0368  0.4905 -0.0613
55278DPPC   C1A74546  31.799   0.249  10.966  0.2047 -0.0967  0.1346
55278DPPC   C2A74547  32.025   0.243  10.586  0.4160  0.0260  0.2000
55278DPPC   C3A74548  32.162   0.305  10.201  0.1424 -0.0255  0.1659
55278DPPC   C4A74549  32.289   0.499   9.856  0.1375 -0.2291 -0.1290
55278DPPC   C1B74550  31.862   0.702  10.804  0.0722  0.4029  0.1225
55278DPPC   C2B74551  32.078   0.740  10.456 -0.1849 -0.0175 -0.1332
55278DPPC   C3B74552  32.414   0.891  10.192  0.1961 -0.1174  0.0118
55278DPPC   C4B74553  32.710   1.225  10.007  0.1225  0.0611  0.1313
55279POPC   NC374554  24.608  12.970  10.118  0.0863 -0.0306 -0.3727
55279POPC   PO474555  24.784  12.488  10.164  0.4016 -0.2499  0.0984
55279POPC   GL174556  24.379  12.304  10.073  0.0680 -0.3917 -0.3316
55279POPC   GL274557  24.206  12.570  10.329  0.1145  0.2465  0.1461
55279POPC   C1A74558  24.099  12.419   9.715  0.1819  0.0781 -0.1529
55279POPC   D2A74559  23.718  12.371   9.600 -0.2078  0.3575  0.0371
55279POPC   C3A74560  23.425  12.494   9.477 -0.0682  0.0094  0.0145
55279POPC   C4A74561  23.134  12.496   9.271 -0.2077 -0.1203  0.1624
55279POPC   C1B74562  23.769  12.547  10.163  0.0779 -0.3626  0.3354
55279POPC   C2B74563  23.353  12.527   9.986 -0.3749 -0.1681 -0.0641
55279POPC   C3B74564  23.028  12.409   9.822 -0.2014 -0.0729 -0.1396
55279POPC   C4B74565  22.680  12.251   9.834 -0.0333 -0.4655 -0.1943
55280POPC   NC374566  13.968  30.611  20.796  0.1183 -0.0204 -0.1700
55280POPC   PO474567  13.874  30.335  20.384  0.0993  0.0086 -0.1334
55280POPC   GL174568  13.866  30.010  20.131 -0.0655 -0.0906  0.1344
55280POPC   GL274569  14.018  29.733  20.307  0.1424 -0.1183  0.2173
55280POPC   C1A74570  13.918  29.800  19.778  0.2574 -0.1965 -0.2529
55280POPC   D2A74571  13.754  29.608  19.349 -0.3095  0.1319  0.1104
55280POPC   C3A74572  13.422  29.827  19.212 -0.1066  0.0283  0.0841
55280POPC   C4A74573  13.247  30.191  19.109 -0.2100 -0.2361 -0.2020
55280POPC   C1B74574  13.810  29.260  20.226 -0.1001  0.4067 -0.0943
55280POPC   C2B74575  13.665  28.970  19.880 -0.3427 -0.0572 -0.1665
55280POPC   C3B74576  13.316  28.785  19.625  0.2994  0.5747  0.0529
55280POPC   C4B74577  12.988  28.622  19.370 -0.1365  0.3667 -0.1760
55281POPC   NC374578  12.129  35.121  20.209  0.0535 -0.0742  0.0266
55281POPC   PO474579  12.016  35.166  19.828  0.0821  0.0338  0.1951
55281POPC   GL174580  11.734  35.074  19.475  0.1778  0.0373 -0.0819
55281POPC   GL274581  11.671  34.818  19.607  0.0053 -0.0790  0.1322
55281POPC   C1A74582  11.592  35.034  19.038 -0.1340  0.1689  0.2086
55281POPC   D2A74583  11.410  34.940  18.671  0.0458 -0.2720 -0.2630
55281POPC   C3A74584  11.597  35.128  18.278  0.1907 -0.1512 -0.0548
55281POPC   C4A74585  11.521  35.013  17.866 -0.0755 -0.0852 -0.1371
55281POPC   C1B74586  11.924  34.678  19.176 -0.1253 -0.1787 -0.0745
55281POPC   C2B74587  11.810  34.549  18.796 -0.1801  0.2168 -0.0832
55281POPC   C3B74588  11.563  34.456  18.484  0.3065 -0.1428  0.0802
55281POPC   C4B74589  11.528  34.223  18.198 -0.1593  0.0298 -0.0093
55282POPC   NC374590  19.739  25.197  17.273 -0.2793 -0.1272 -0.1329
55282POPC   PO474591  20.106  25.023  17.231 -0.0146  0.0431 -0.0019
55282POPC   GL174592  19.907  25.244  16.754 -0.0333 -0.1374  0.2054
55282POPC   GL274593  20.186  25.423  16.636  0.0697  0.0293 -0.4339
55282POPC   C1A74594  19.584  25.365  16.660  0.1179 -0.0835  0.3687
55282POPC   D2A74595  19.146  25.489  16.500  0.0583 -0.0086 -0.0030
55282POPC   C3A74596  19.250  25.756  16.203 -0.1862  0.2444  0.0557
55282POPC   C4A74597  19.285  25.648  15.731  0.1274 -0.0822 -0.1028
55282POPC   C1B74598  19.894  25.664  16.311  0.2126  0.0275 -0.4007
55282POPC   C2B74599  19.714  25.639  15.974 -0.0776 -0.1349 -0.0674
55282POPC   C3B74600  19.739  25.360  15.671  0.0334 -0.2679  0.2163
55282POPC   C4B74601  19.691  24.904  15.663  0.2051 -0.0792  0.0022
55283POPC   NC374602  34.746  23.373  10.037 -0.2069  0.2730  0.3001
55283POPC   PO474603  34.513  23.699   9.885  0.0285  0.0157 -0.0473
55283POPC   GL174604  34.885  23.902   9.702  0.1102  0.4437  0.0207
55283POPC   GL274605  35.189  23.800   9.702 -0.0371  0.1504 -0.1842
55283POPC   C1A74606  35.023  24.087   9.315 -0.0592 -0.2788  0.1912
55283POPC   D2A74607  34.888  24.336   8.938 -0.0493  0.1327 -0.0276
55283POPC   C3A74608  35.090  24.643   8.749  0.2214  0.0994  0.2234
55283POPC   C4A74609  35.203  24.952   8.406 -0.0223 -0.0212 -0.1276
55283POPC   C1B74610  35.277  24.260   9.641  0.2589 -0.1910  0.2450
55283POPC   C2B74611  35.346  24.574   9.189  0.2806 -0.1874  0.1995
55283POPC   C3B74612   0.077  24.805   9.046  0.1212 -0.0264  0.2601
55283POPC   C4B74613   0.227  25.118   8.689  0.1439  0.2829  0.0433
55284POPC   NC374614  15.436   5.308  17.739  0.0070  0.1698 -0.1062
55284POPC   PO474615  15.252   4.913  17.608  0.3808 -0.1508 -0.2066
55284POPC   GL174616  14.973   4.811  17.272 -0.0139  0.0833 -0.1372
55284POPC   GL274617  15.021   4.492  17.104 -0.1121  0.5075  0.0642
55284POPC   C1A74618  14.714   5.183  17.000  0.0353 -0.2361  0.0768
55284POPC   D2A74619  14.752   5.590  16.879 -0.0545  0.1944  0.2713
55284POPC   C3A74620  14.623   5.646  16.500 -0.0258  0.1116 -0.1642
55284POPC   C4A74621  14.626   5.452  16.125 -0.2210 -0.1160  0.0420
55284POPC   C1B74622  14.965   4.842  16.789  0.0105  0.1951  0.0331
55284POPC   C2B74623  14.934   5.054  16.476 -0.4661  0.0428  0.1611
55284POPC   C3B74624  14.774   5.045  15.917  0.2112 -0.0232 -0.0203
55284POPC   C4B74625  14.492   4.931  15.606 -0.2406 -0.0867  0.3066
55285POPC   NC374626  19.957  27.406  17.152 -0.0038  0.2428 -0.0082
55285POPC   PO474627  19.693  27.758  17.220  0.2440 -0.0935  0.1047
55285POPC   GL174628  19.502  27.436  16.987  0.0912 -0.0038  0.0939
55285POPC   GL274629  19.379  27.440  16.698  0.1719  0.0689 -0.4003
55285POPC   C1A74630  19.296  27.080  17.084  0.0561 -0.2370 -0.0747
55285POPC   D2A74631  19.288  26.702  17.282  0.1269 -0.5216  0.2757
55285POPC   C3A74632  19.097  26.619  17.635 -0.2382 -0.0983  0.3000
55285POPC   C4A74633  18.928  26.360  17.847  0.0202 -0.2231 -0.1073
55285POPC   C1B74634  19.260  27.271  16.308  0.2042  0.1801  0.0026
55285POPC   C2B74635  18.800  27.046  16.017  0.1057 -0.2487 -0.1931
55285POPC   C3B74636  18.432  26.877  15.943 -0.2008  0.1776 -0.1189
55285POPC   C4B74637  18.155  26.560  16.155 -0.2150  0.0789 -0.0965
55286POPC   NC374638  24.320  13.372  11.919 -0.1329  0.2061  0.4207
55286POPC   PO474639  24.078  13.208  11.672 -0.1284 -0.0065  0.1776
55286POPC   GL174640  23.667  13.351  11.513 -0.1496 -0.1551  0.2446
55286POPC   GL274641  23.486  13.149  11.483  0.3108  0.1219  0.1710
55286POPC   C1A74642  23.541  13.467  11.096 -0.2547  0.0493 -0.0253
55286POPC   D2A74643  23.800  13.304  10.724 -0.1444  0.1156 -0.0813
55286POPC   C3A74644  23.759  13.333  10.345  0.2027 -0.1276  0.2961
55286POPC   C4A74645  23.748  13.381   9.945 -0.1988  0.1118  0.1790
55286POPC   C1B74646  23.368  12.938  11.012 -0.1837 -0.0462 -0.2791
55286POPC   C2B74647  23.004  12.824  10.845  0.1008  0.1620 -0.0498
55286POPC   C3B74648  22.717  12.829  10.603  0.2971  0.2045 -0.0553
55286POPC   C4B74649  22.565  12.988  10.312  0.1566  0.1323 -0.1968
55287POPC   NC374650  15.007  16.613  19.071 -0.1266  0.0666 -0.1023
55287POPC   PO474651  15.058  16.297  18.729 -0.3848 -0.2426  0.3408
55287POPC   GL174652  15.013  16.643  18.578  0.1904 -0.1892  0.1772
55287POPC   GL274653  14.949  16.535  18.260 -0.0570 -0.1070  0.0685
55287POPC   C1A74654  14.731  16.934  18.460  0.3004  0.0472 -0.3132
55287POPC   D2A74655  14.830  17.369  18.379 -0.2536 -0.2264  0.1379
55287POPC   C3A74656  14.921  17.644  18.756  0.0782  0.1612 -0.1482
55287POPC   C4A74657  15.063  18.078  18.900  0.0042  0.1583 -0.1766
55287POPC   C1B74658  14.692  16.692  17.958  0.0532 -0.1117  0.2833
55287POPC   C2B74659  14.521  16.893  17.721  0.0914  0.3082  0.1346
55287POPC   C3B74660  14.484  17.147  17.358 -0.2183  0.1102  0.1198
55287POPC   C4B74661  14.557  17.172  16.934 -0.2163  0.0516 -0.0489
55288POPC   NC374662  16.279  23.996  21.662 -0.4050 -0.1428  0.2258
55288POPC   PO474663  16.062  24.102  21.273  0.0398 -0.2167 -0.0597
55288POPC   GL174664  15.688  24.217  21.108 -0.0138  0.2626 -0.1293
55288POPC   GL274665  15.731  24.561  21.092  0.1670  0.2655 -0.2111
55288POPC   C1A74666  15.327  24.240  20.995 -0.1792 -0.1226  0.2709
55288POPC   D2A74667  14.886  23.981  20.929 -0.3855 -0.3917  0.0826
55288POPC   C3A74668  14.907  23.774  20.525 -0.1986  0.3825  0.0649
55288POPC   C4A74669  14.719  23.545  20.093  0.0932 -0.1850 -0.2627
55288POPC   C1B74670  15.374  24.790  20.807  0.0538 -0.3476  0.1286
55288POPC   C2B74671  15.154  24.860  20.527  0.0489  0.1489  0.1809
55288POPC   C3B74672  15.114  25.062  20.172 -0.0083  0.0005  0.1050
55288POPC   C4B74673  14.944  25.229  19.793  0.0654  0.0592  0.3085
55289POPC   NC374674   1.763   4.691  13.570 -0.1459  0.2720 -0.1233
55289POPC   PO474675   1.394   4.727  13.353  0.0110  0.0467  0.1054
55289POPC   GL174676   1.577   4.472  13.051 -0.1093 -0.0642  0.2922
55289POPC   GL274677   1.532   4.141  13.176  0.0464 -0.0561  0.1176
55289POPC   C1A74678   1.798   4.264  12.771  0.0639  0.1290 -0.1058
55289POPC   D2A74679   2.121   4.180  12.626 -0.1555  0.0725 -0.0828
55289POPC   C3A74680   2.451   4.186  12.295  0.1894 -0.2876 -0.1067
55289POPC   C4A74681   2.754   3.850  12.127 -0.1417 -0.2227  0.0490
55289POPC   C1B74682   2.007   4.148  13.163 -0.1183  0.0548 -0.0478
55289POPC   C2B74683   2.359   4.024  13.016  0.0842  0.0684 -0.1585
55289POPC   C3B74684   2.685   3.910  12.751 -0.3316 -0.0059  0.0899
55289POPC   C4B74685   2.902   3.609  12.595  0.1291  0.1205 -0.0304
55290POPC   NC374686  23.168  19.615  13.219  0.1312 -0.3633 -0.2162
55290POPC   PO474687  23.330  19.461  12.822  0.0791 -0.1332 -0.1039
55290POPC   GL174688  22.927  19.447  12.547 -0.0179  0.0718  0.0204
55290POPC   GL274689  22.655  19.574  12.637 -0.0546 -0.0400 -0.0939
55290POPC   C1A74690  22.650  19.097  12.467 -0.1161 -0.0387 -0.4103
55290POPC   D2A74691  22.418  19.039  12.116  0.1019  0.0514  0.2054
55290POPC   C3A74692  22.028  18.955  12.080 -0.0236  0.1984  0.1334
55290POPC   C4A74693  21.756  18.860  11.815 -0.0073  0.0070 -0.0534
55290POPC   C1B74694  22.234  19.464  12.651  0.2286  0.4619  0.0555
55290POPC   C2B74695  22.050  19.682  12.412  0.0916  0.1226 -0.1668
55290POPC   C3B74696  21.774  19.689  12.093 -0.0153 -0.0975 -0.0630
55290POPC   C4B74697  21.358  19.721  11.961  0.0385 -0.0981 -0.0385
55291POPC   NC374698  34.824  17.413   6.431  0.2124  0.5005  0.3274
55291POPC   PO474699  34.774  17.286   6.033  0.2328  0.0557 -0.1446
55291POPC   GL174700  34.910  17.281   5.605 -0.1414 -0.0417 -0.0837
55291POPC   GL274701  34.653  17.239   5.376  0.1600  0.0603  0.1140
55291POPC   C1A74702  35.012  17.409   5.144 -0.1777  0.0634  0.0182
55291POPC   D2A74703  35.228  17.400   4.846 -0.2727 -0.1457  0.2037
55291POPC   C3A74704  35.183  17.876   4.631  0.2407  0.1090  0.2203
55291POPC   C4A74705  35.173  18.118   4.245  0.3021  0.2649 -0.0318
55291POPC   C1B74706  34.602  17.124   4.989  0.1919  0.3665  0.0623
55291POPC   C2B74707  34.400  17.188   4.672 -0.2397 -0.1604  0.1570
55291POPC   C3B74708  34.485  17.322   4.209  0.0448 -0.0771  0.1178
55291POPC   C4B74709  34.284  17.420   3.863 -0.2566  0.1086  0.0397
55292POPC   NC374710   7.557   3.957  19.180 -0.1584 -0.0462  0.0870
55292POPC   PO474711   7.945   3.895  18.916  0.2204  0.0357 -0.2050
55292POPC   GL174712   7.928   3.963  18.486  0.1056  0.0196 -0.0573
55292POPC   GL274713   8.113   3.731  18.376 -0.2222  0.3133 -0.1142
55292POPC   C1A74714   7.767   4.369  18.326 -0.1035 -0.0064 -0.2333
55292POPC   D2A74715   7.510   4.729  18.223  0.0067  0.0271 -0.2968
55292POPC   C3A74716   7.828   5.090  18.101 -0.1866 -0.3538 -0.1222
55292POPC   C4A74717   8.113   5.246  17.808 -0.3207  0.1661 -0.0405
55292POPC   C1B74718   8.069   3.606  17.883  0.1460 -0.1085  0.6101
55292POPC   C2B74719   7.915   3.413  17.534 -0.1313  0.0785  0.0604
55292POPC   C3B74720   8.056   3.274  17.090  0.1403 -0.1112 -0.0622
55292POPC   C4B74721   8.363   3.486  16.836  0.1753  0.0392  0.0175
55293POPC   NC374722  27.675   0.378  10.780 -0.1800  0.0738  0.1767
55293POPC   PO474723  27.840   0.761  10.535 -0.1767  0.0913 -0.0039
55293POPC   GL174724  27.983   0.699  10.177  0.1987  0.0567 -0.3046
55293POPC   GL274725  28.175   0.953   9.917  0.2278  0.0965  0.0904
55293POPC   C1A74726  27.858   0.576   9.719 -0.0813  0.3150 -0.0606
55293POPC   D2A74727  27.657   0.378   9.360 -0.5864  0.1402  0.4551
55293POPC   C3A74728  27.806   0.524   9.020 -0.2559  0.0113 -0.0128
55293POPC   C4A74729  27.925   0.703   8.682  0.1336  0.1157 -0.1493
55293POPC   C1B74730  28.130   0.905   9.495  0.1368  0.1099 -0.2241
55293POPC   C2B74731  28.258   0.858   9.163 -0.2183  0.0699 -0.0106
55293POPC   C3B74732  28.450   0.863   8.763 -0.0021  0.0408  0.0405
55293POPC   C4B74733  28.323   1.153   8.404 -0.0250  0.0690 -0.2614
55294POPC   NC374734  13.923   5.955  18.374  0.0473  0.1128 -0.2867
55294POPC   PO474735  14.018   5.515  18.356  0.0221 -0.4488 -0.1022
55294POPC   GL174736  13.814   5.757  17.931 -0.2457  0.0257  0.0099
55294POPC   GL274737  13.622   5.679  17.774 -0.1204 -0.0837  0.0623
55294POPC   C1A74738  13.946   6.143  17.676  0.0023  0.3608 -0.1858
55294POPC   D2A74739  14.005   6.433  17.292  0.1267  0.0346 -0.0120
55294POPC   C3A74740  13.738   6.491  16.922  0.1405  0.0237  0.1019
55294POPC   C4A74741  13.452   6.441  16.575  0.2943  0.3075  0.0459
55294POPC   C1B74742  13.598   5.982  17.437  0.1314  0.1947  0.1856
55294POPC   C2B74743  13.504   6.043  17.059 -0.0683  0.0511  0.2510
55294POPC   C3B74744  13.779   6.029  16.765  0.0504  0.1347  0.5053
55294POPC   C4B74745  13.588   5.910  16.308  0.0051  0.1342 -0.2656
55295POPC   NC374746  22.925   8.773  14.514  0.0269 -0.1538  0.0599
55295POPC   PO474747  22.672   8.314  14.423 -0.2757 -0.0188 -0.2898
55295POPC   GL174748  22.230   8.468  14.596  0.3167 -0.1102  0.0730
55295POPC   GL274749  22.366   8.725  14.428 -0.0860 -0.0847 -0.0675
55295POPC   C1A74750  21.851   8.704  14.500  0.2663 -0.0667  0.0280
55295POPC   D2A74751  21.509   9.044  14.428  0.2966 -0.0334  0.2675
55295POPC   C3A74752  21.303   8.928  14.030  0.1627 -0.0525  0.1572
55295POPC   C4A74753  21.078   8.710  13.719 -0.3444 -0.0874  0.3475
55295POPC   C1B74754  22.214   8.658  14.057  0.0770  0.3192  0.1815
55295POPC   C2B74755  22.202   8.676  13.585 -0.6053  0.3318  0.1242
55295POPC   C3B74756  21.919   8.590  13.239 -0.3571  0.0778 -0.1370
55295POPC   C4B74757  21.540   8.460  12.954  0.0498  0.3158  0.1874
55296POPC   NC374758  21.843  27.983  13.250 -0.0214  0.1521 -0.2507
55296POPC   PO474759  21.649  27.592  13.420  0.0110  0.0278  0.2117
55296POPC   GL174760  21.304  27.478  13.265 -0.0663  0.1386 -0.2339
55296POPC   GL274761  21.027  27.591  13.510 -0.1911 -0.0285  0.2136
55296POPC   C1A74762  20.905  27.363  13.078 -0.1537 -0.3143  0.1200
55296POPC   D2A74763  20.621  27.123  12.817 -0.1670 -0.0277 -0.0129
55296POPC   C3A74764  20.510  26.945  12.516 -0.2035 -0.1230  0.2765
55296POPC   C4A74765  20.244  26.603  12.357  0.1909 -0.1189  0.2549
55296POPC   C1B74766  20.659  27.446  13.520 -0.0450  0.0972 -0.4114
55296POPC   C2B74767  20.313  27.297  13.203 -0.3669 -0.3588 -0.0502
55296POPC   C3B74768  19.982  27.344  12.957  0.1426 -0.1841  0.2986
55296POPC   C4B74769  19.748  27.590  12.640  0.2818 -0.2235  0.1538
55297POPC   NC374770  31.426   7.107  10.477 -0.1226  0.4367  0.3705
55297POPC   PO474771  31.631   6.910  10.113  0.3634 -0.1491  0.1949
55297POPC   GL174772  31.676   6.743   9.714 -0.1437 -0.0850  0.3562
55297POPC   GL274773  31.913   6.493   9.718  0.2479  0.0572  0.1036
55297POPC   C1A74774  31.733   6.568   9.296 -0.0282 -0.1198  0.1473
55297POPC   D2A74775  32.160   6.420   9.168 -0.4420 -0.0004  0.1531
55297POPC   C3A74776  32.239   6.428   8.725 -0.0038  0.2824 -0.0405
55297POPC   C4A74777  32.378   6.635   8.353 -0.2971 -0.1636  0.0383
55297POPC   C1B74778  32.201   6.245   9.736  0.3589  0.2714  0.1914
55297POPC   C2B74779  32.217   5.958   9.468 -0.0359 -0.1573  0.1028
55297POPC   C3B74780  32.387   5.939   9.027  0.3514  0.1385 -0.2536
55297POPC   C4B74781  32.566   6.067   8.624  0.2591  0.2835  0.1703
55298POPC   NC374782  23.039  22.554  12.787 -0.2603  0.2463 -0.0070
55298POPC   PO474783  23.226  22.816  12.539  0.2285  0.2359 -0.4464
55298POPC   GL174784  22.778  22.703  12.364 -0.2296  0.0600 -0.1961
55298POPC   GL274785  22.688  22.424  12.448  0.0468 -0.4608 -0.1101
55298POPC   C1A74786  22.702  22.743  11.924  0.0600 -0.4318  0.5703
55298POPC   D2A74787  22.379  22.805  11.589 -0.0225  0.0872  0.1283
55298POPC   C3A74788  21.917  22.617  11.534 -0.1413 -0.2659  0.1386
55298POPC   C4A74789  21.589  22.781  11.813  0.1692 -0.0929  0.3112
55298POPC   C1B74790  22.344  22.436  12.279 -0.0372  0.0464 -0.3507
55298POPC   C2B74791  22.152  22.394  11.889 -0.2872 -0.1408  0.0100
55298POPC   C3B74792  22.127  22.115  11.575  0.0467 -0.0106  0.0548
55298POPC   C4B74793  22.241  21.725  11.195 -0.0111 -0.0799  0.1396
55299POPC   NC374794  24.336  15.227   8.538 -0.4403 -0.1280 -0.0922
55299POPC   PO474795  24.325  14.985   8.968  0.1696 -0.0960  0.0514
55299POPC   GL174796  23.961  14.874   8.777  0.0525 -0.1780 -0.2524
55299POPC   GL274797  24.009  14.891   8.366  0.0442 -0.0412  0.0253
55299POPC   C1A74798  23.512  14.799   8.715 -0.2691 -0.2066 -0.0966
55299POPC   D2A74799  23.129  14.749   8.527 -0.0475 -0.1898 -0.0743
55299POPC   C3A74800  22.639  14.870   8.504  0.1972  0.3176 -0.0005
55299POPC   C4A74801  22.429  15.177   8.314 -0.3641 -0.2651 -0.0240
55299POPC   C1B74802  23.619  14.768   8.247  0.0793 -0.1454  0.3289
55299POPC   C2B74803  23.337  14.719   7.958 -0.0832 -0.0727  0.0494
55299POPC   C3B74804  22.899  14.538   8.113  0.1181  0.1335  0.1636
55299POPC   C4B74805  22.408  14.490   8.065 -0.1528 -0.0126  0.1994
55300POPC   NC374806  30.713  31.791  11.349 -0.0160 -0.2293  0.0161
55300POPC   PO474807  30.596  31.694  11.006 -0.0033 -0.1984  0.0533
55300POPC   GL174808  30.726  31.692  10.649 -0.2128 -0.0314 -0.2482
55300POPC   GL274809  30.655  31.608  10.413  0.1821 -0.0488  0.0321
55300POPC   C1A74810  31.120  31.626  10.375  0.2846 -0.4145 -0.4208
55300POPC   D2A74811  31.375  31.641  10.001 -0.3251  0.1169  0.0574
55300POPC   C3A74812  31.384  31.620   9.524  0.1559 -0.2313  0.0196
55300POPC   C4A74813  31.605  31.853   9.141  0.1047 -0.0660 -0.2069
55300POPC   C1B74814  30.819  31.647  10.014  0.0227 -0.2380  0.0862
55300POPC   C2B74815  30.924  31.647   9.645  0.1728  0.3001 -0.2227
55300POPC   C3B74816  31.069  31.816   9.232  0.2163 -0.2880 -0.3343
55300POPC   C4B74817  31.168  31.851   8.815  0.0683  0.2166 -0.1843
55301POPC   NC374818  15.349  11.040  19.037 -0.2644  0.0928  0.5778
55301POPC   PO474819  15.555  10.845  18.665  0.0796 -0.2019  0.3234
55301POPC   GL174820  15.225  10.976  18.422  0.0681 -0.0262 -0.1848
55301POPC   GL274821  15.165  10.628  18.381  0.1003  0.1402 -0.0283
55301POPC   C1A74822  15.093  11.297  18.103  0.2794  0.0581  0.1291
55301POPC   D2A74823  14.834  11.444  17.837  0.2390  0.4036 -0.4166
55301POPC   C3A74824  14.872  11.787  17.424 -0.0118 -0.0973 -0.1319
55301POPC   C4A74825  14.893  11.890  16.906 -0.0678 -0.0862  0.0244
55301POPC   C1B74826  15.058  10.858  17.967 -0.2018 -0.2635 -0.1112
55301POPC   C2B74827  15.039  11.053  17.526  0.3988 -0.2724 -0.5123
55301POPC   C3B74828  15.162  11.359  17.323 -0.1692  0.0355  0.0502
55301POPC   C4B74829  15.011  11.382  16.922  0.0775  0.1875 -0.2685
55302POPC   NC374830  29.236  30.098  10.333  0.2047 -0.1861 -0.3859
55302POPC   PO474831  29.240  30.379  10.048  0.1257 -0.4234 -0.1302
55302POPC   GL174832  28.941  30.523   9.743 -0.0009  0.0121 -0.0717
55302POPC   GL274833  28.941  30.286   9.542 -0.1484 -0.2024  0.0521
55302POPC   C1A74834  28.781  30.905   9.629 -0.3191  0.1543  0.1939
55302POPC   D2A74835  28.930  31.259   9.511 -0.0421  0.0233  0.0525
55302POPC   C3A74836  29.253  31.327   9.714 -0.3820  0.4081  0.2107
55302POPC   C4A74837  29.755  31.340   9.797  0.1384 -0.0576 -0.0678
55302POPC   C1B74838  28.700  30.472   9.224  0.3037 -0.1324 -0.0989
55302POPC   C2B74839  28.672  30.545   8.804 -0.0393  0.2190 -0.0856
55302POPC   C3B74840  28.365  30.695   8.466  0.0371 -0.0152  0.0311
55302POPC   C4B74841  28.092  30.471   8.216  0.0511 -0.1212 -0.0397
55303POPC   NC374842  21.925  26.839  14.550  0.2944 -0.2263  0.1108
55303POPC   PO474843  21.464  26.884  14.769 -0.5008 -0.2352 -0.1865
55303POPC   GL174844  21.057  26.832  14.637 -0.1824 -0.1447  0.1965
55303POPC   GL274845  20.955  27.169  14.625 -0.1591 -0.1984  0.1950
55303POPC   C1A74846  20.706  26.789  14.320 -0.0406  0.0502  0.2540
55303POPC   D2A74847  20.332  26.665  14.149 -0.4841 -0.0121  0.3912
55303POPC   C3A74848  20.098  26.430  13.869 -0.0199  0.1146  0.0485
55303POPC   C4A74849  20.160  26.038  13.724 -0.0476  0.1822 -0.3222
55303POPC   C1B74850  20.578  27.317  14.418  0.0471 -0.1457  0.0424
55303POPC   C2B74851  20.191  27.392  14.339  0.1188  0.4202  0.1771
55303POPC   C3B74852  19.941  27.279  14.106  0.0427  0.0627 -0.0482
55303POPC   C4B74853  19.751  27.182  13.762  0.0396 -0.2847  0.2598
55304POPC   NC374854  20.920   2.279  14.769 -0.0173  0.0565 -0.0975
55304POPC   PO474855  20.891   2.640  14.417  0.1505  0.2209 -0.1842
55304POPC   GL174856  20.746   3.036  14.370  0.3087  0.2694 -0.2470
55304POPC   GL274857  20.904   3.250  14.188 -0.1731 -0.0431  0.0915
55304POPC   C1A74858  20.386   3.395  14.276  0.0097 -0.3776  0.0832
55304POPC   D2A74859  20.192   3.748  13.990 -0.0237 -0.1916  0.1823
55304POPC   C3A74860  20.368   4.071  13.690 -0.0429 -0.1771 -0.0374
55304POPC   C4A74861  20.411   4.443  13.368 -0.1628 -0.0722  0.0529
55304POPC   C1B74862  21.166   3.569  14.075 -0.1090  0.0982  0.1312
55304POPC   C2B74863  21.505   3.788  13.740  0.1840 -0.2078 -0.0034
55304POPC   C3B74864  21.724   3.977  13.451 -0.1819 -0.0419 -0.1887
55304POPC   C4B74865  21.867   4.321  13.342 -0.1582 -0.1288 -0.1046
55305POPC   NC374866  10.097   8.930  18.838  0.0101 -0.0858  0.2247
55305POPC   PO474867   9.757   9.074  18.628 -0.1727  0.3359 -0.0173
55305POPC   GL174868   9.615   9.122  18.227  0.1962  0.0589  0.0738
55305POPC   GL274869   9.288   9.218  18.228  0.0341  0.3856  0.2394
55305POPC   C1A74870   9.594   9.322  17.821  0.1912 -0.0121  0.2994
55305POPC   D2A74871   9.696   9.343  17.427 -0.1827 -0.0627  0.0835
55305POPC   C3A74872   9.900   9.682  17.091 -0.1420  0.1876  0.3087
55305POPC   C4A74873  10.042  10.066  16.886 -0.2347  0.0314 -0.0609
55305POPC   C1B74874   9.097   9.173  17.768 -0.0427 -0.1911  0.0397
55305POPC   C2B74875   9.238   9.131  17.386 -0.0464  0.1503 -0.4668
55305POPC   C3B74876   9.220   8.755  17.091 -0.3283  0.2241 -0.3051
55305POPC   C4B74877   9.122   8.349  17.125  0.0459 -0.1540 -0.0286
55306POPC   NC374878   1.006  17.756   8.973  0.1278  0.0493  0.0070
55306POPC   PO474879   1.085  17.763   8.465 -0.0084 -0.2037 -0.2678
55306POPC   GL174880   1.473  17.995   8.465  0.0304  0.3902  0.1127
55306POPC   GL274881   1.575  18.354   8.555  0.1374  0.0408  0.2538
55306POPC   C1A74882   1.944  18.041   8.388  0.0366  0.1064 -0.1311
55306POPC   D2A74883   2.319  17.916   8.541  0.0484  0.1032  0.0466
55306POPC   C3A74884   2.706  17.988   8.330  0.2093  0.1556  0.1853
55306POPC   C4A74885   3.009  18.024   8.070  0.1719 -0.0335 -0.1947
55306POPC   C1B74886   1.897  18.508   8.389 -0.0088 -0.1216 -0.1996
55306POPC   C2B74887   2.289  18.378   8.230 -0.1642 -0.1579  0.1069
55306POPC   C3B74888   2.573  18.304   7.981 -0.1936  0.2274 -0.1399
55306POPC   C4B74889   2.769  18.594   7.722 -0.0227  0.0172  0.0177
55307POPC   NC374890  35.042  23.172   9.667  0.5376 -0.0545 -0.6499
55307POPC   PO474891  35.190  23.211  10.183  0.2051  0.0235 -0.0716
55307POPC   GL174892   0.066  23.536   9.999 -0.0709 -0.0225 -0.2146
55307POPC   GL274893   0.368  23.529  10.006 -0.2757 -0.0291  0.1097
55307POPC   C1A74894   0.304  23.782   9.619  0.3371  0.1914  0.1702
55307POPC   D2A74895   0.661  24.014   9.475 -0.0308 -0.1634 -0.2567
55307POPC   C3A74896   0.899  24.389   9.363 -0.0145  0.0071  0.2589
55307POPC   C4A74897   1.278  24.520   9.094  0.1468  0.1190  0.0543
55307POPC   C1B74898   0.688  23.763   9.945  0.1191  0.0280 -0.2203
55307POPC   C2B74899   1.015  24.064   9.836 -0.0119  0.2456 -0.1486
55307POPC   C3B74900   1.260  24.348   9.619  0.1477  0.1312 -0.1388
55307POPC   C4B74901   1.394  24.636   9.612 -0.1570  0.0316 -0.0649
55308POPC   NC374902  12.757  12.439  19.649  0.3675 -0.0030 -0.1234
55308POPC   PO474903  12.955  12.238  19.131 -0.2081  0.1944 -0.1196
55308POPC   GL174904  13.239  12.320  18.768  0.1599  0.1166  0.1772
55308POPC   GL274905  13.541  12.648  18.764  0.3031 -0.1666 -0.0258
55308POPC   C1A74906  13.338  12.381  18.331  0.1205  0.0544  0.3280
55308POPC   D2A74907  13.207  12.685  17.972 -0.2003 -0.0542  0.0652
55308POPC   C3A74908  13.371  12.592  17.452 -0.0622  0.0827  0.2457
55308POPC   C4A74909  13.657  12.482  17.139 -0.1850  0.0552 -0.0120
55308POPC   C1B74910  13.711  12.744  18.331  0.0898  0.3466 -0.0257
55308POPC   C2B74911  13.686  12.922  17.927  0.0892  0.2731  0.1406
55308POPC   C3B74912  13.818  12.888  17.529  0.4370 -0.0502 -0.1579
55308POPC   C4B74913  14.023  12.789  17.088 -0.0677  0.1637 -0.1110
55309POPC   NC374914   1.284  13.115  11.111 -0.1721  0.2466 -0.1105
55309POPC   PO474915   1.223  13.510  10.777  0.0547  0.3247 -0.0152
55309POPC   GL174916   1.326  13.469  10.386  0.1143  0.2047  0.3981
55309POPC   GL274917   1.576  13.633  10.357  0.0704 -0.2656 -0.0937
55309POPC   C1A74918   1.261  13.339  10.032  0.1002 -0.3845 -0.0086
55309POPC   D2A74919   1.160  12.976   9.826  0.0988  0.0241  0.0060
55309POPC   C3A74920   1.556  12.689   9.837  0.1948 -0.1910  0.0415
55309POPC   C4A74921   1.948  12.581   9.666  0.3417 -0.1134 -0.0298
55309POPC   C1B74922   1.857  13.517  10.097 -0.1505 -0.0929 -0.1582
55309POPC   C2B74923   2.178  13.434   9.868  0.1287 -0.0492  0.2103
55309POPC   C3B74924   2.495  13.178   9.829 -0.0191  0.2359 -0.1023
55309POPC   C4B74925   2.786  13.064   9.599  0.1245 -0.1814 -0.3950
55310DOPC   NC374926   2.875   1.166  16.627  0.1786 -0.3507  0.0785
55310DOPC   PO474927   3.080   0.843  16.898 -0.4584 -0.0969 -0.2939
55310DOPC   GL174928   3.342   0.967  16.445 -0.0162  0.1049  0.1908
55310DOPC   GL274929   3.318   1.197  16.308 -0.1507 -0.1345 -0.0358
55310DOPC   C1A74930   3.409   0.691  16.171 -0.1529  0.0295 -0.1768
55310DOPC   D2A74931   3.219   0.500  15.842  0.3063 -0.1412 -0.0586
55310DOPC   C3A74932   3.466   0.542  15.497 -0.0830 -0.3766  0.0750
55310DOPC   C4A74933   3.792   0.441  15.300  0.0764 -0.0807  0.1862
55310DOPC   C1B74934   3.588   1.097  16.017  0.0429  0.1663 -0.2442
55310DOPC   D2B74935   3.764   0.900  15.802 -0.0154 -0.0616 -0.1525
55310DOPC   C3B74936   4.091   0.844  15.597  0.1797  0.1195 -0.2268
55310DOPC   C4B74937   4.585   0.810  15.436  0.0706 -0.1129 -0.1822
55311DOPC   NC374938   4.234  15.947  15.781  0.0742  0.0238  0.1208
55311DOPC   PO474939   4.645  15.967  15.966  0.0249 -0.2440 -0.0191
55311DOPC   GL174940   4.689  15.977  15.526 -0.0721 -0.2573  0.0723
55311DOPC   GL274941   4.778  15.700  15.372 -0.2993  0.3847  0.0985
55311DOPC   C1A74942   4.859  16.157  15.178  0.3874  0.0053  0.4858
55311DOPC   D2A74943   5.133  16.235  14.807 -0.1032 -0.1311 -0.1018
55311DOPC   C3A74944   5.129  16.101  14.445  0.0849 -0.0198  0.2990
55311DOPC   C4A74945   5.374  16.151  14.071 -0.0358 -0.2808 -0.0681
55311DOPC   C1B74946   5.180  15.736  15.186 -0.2008  0.0156 -0.0280
55311DOPC   D2B74947   5.425  15.909  15.057  0.1055 -0.0889  0.0432
55311DOPC   C3B74948   5.639  16.029  14.660  0.1095 -0.5957  0.2618
55311DOPC   C4B74949   5.844  16.094  14.338 -0.0574  0.0708  0.1644
55312DOPC   NC374950  16.567  24.259  21.187 -0.1110 -0.0414  0.1555
55312DOPC   PO474951  16.751  24.681  21.064  0.0323  0.1796  0.1024
55312DOPC   GL174952  16.597  24.725  20.747  0.1274 -0.0628  0.0770
55312DOPC   GL274953  16.857  24.821  20.496 -0.0049  0.1700  0.2106
55312DOPC   C1A74954  16.469  24.585  20.331  0.0348 -0.4881  0.0402
55312DOPC   D2A74955  16.221  24.283  20.110 -0.0145  0.1250 -0.2080
55312DOPC   C3A74956  15.872  24.204  19.822 -0.1141  0.1560  0.0071
55312DOPC   C4A74957  15.449  24.092  19.702 -0.1536 -0.0465 -0.1785
55312DOPC   C1B74958  17.057  24.856  20.037 -0.0190 -0.1706 -0.0096
55312DOPC   D2B74959  16.851  24.809  19.589  0.2727  0.2097  0.0415
55312DOPC   C3B74960  16.647  25.199  19.530 -0.2524  0.0546  0.1795
55312DOPC   C4B74961  16.350  25.486  19.656  0.2990 -0.0314  0.2072
55313DOPC   NC374962  19.707   3.651  15.582  0.0426  0.0082  0.3345
55313DOPC   PO474963  19.974   4.031  15.382  0.0917 -0.0411  0.2652
55313DOPC   GL174964  20.182   4.363  15.292  0.3557 -0.1689  0.1613
55313DOPC   GL274965  20.384   4.569  15.516  0.0152  0.2814  0.3983
55313DOPC   C1A74966  19.995   4.595  15.007 -0.1440 -0.1078  0.2680
55313DOPC   D2A74967  20.119   4.608  14.571  0.0632 -0.0991 -0.3721
55313DOPC   C3A74968  20.135   4.978  14.470  0.1322  0.2176 -0.0750
55313DOPC   C4A74969  20.184   5.455  14.675 -0.1681  0.0773  0.0986
55313DOPC   C1B74970  20.268   4.960  15.393 -0.2070 -0.3878  0.1883
55313DOPC   D2B74971  20.113   5.297  15.580 -0.2087 -0.1636 -0.0285
55313DOPC   C3B74972  20.157   5.563  15.206  0.2919 -0.5536  0.0106
55313DOPC   C4B74973  20.218   5.821  14.972 -0.0475 -0.0362  0.1314
55314DOPC   NC374974   9.788  24.886  21.531 -0.1116  0.0616  0.1271
55314DOPC   PO474975   9.363  24.721  21.651 -0.1168 -0.1539 -0.0690
55314DOPC   GL174976   9.454  24.749  21.189  0.2496  0.0241  0.2191
55314DOPC   GL274977   9.606  24.517  21.074 -0.0230 -0.1793 -0.0441
55314DOPC   C1A74978   9.228  24.728  20.832  0.0211 -0.3077  0.0538
55314DOPC   D2A74979   9.292  24.794  20.435 -0.3176 -0.1088  0.0862
55314DOPC   C3A74980   8.988  25.009  20.092 -0.1594  0.0732  0.3532
55314DOPC   C4A74981   8.938  25.167  19.745 -0.1673 -0.0360 -0.0622
55314DOPC   C1B74982   9.705  24.548  20.614  0.0692 -0.2387  0.1706
55314DOPC   D2B74983   9.747  24.765  20.264  0.0684 -0.3925  0.0661
55314DOPC   C3B74984   9.425  24.764  19.978 -0.3644 -0.1938  0.1358
55314DOPC   C4B74985   9.406  25.068  19.591 -0.3012 -0.2757 -0.0545
55315DOPC   NC374986  23.942   6.881  13.011  0.1847  0.0554  0.0711
55315DOPC   PO474987  23.914   6.464  12.660  0.1945 -0.0380  0.1872
55315DOPC   GL174988  23.760   6.769  12.439 -0.0325 -0.1802 -0.0007
55315DOPC   GL274989  23.801   7.023  12.548 -0.4520  0.0870  0.2602
55315DOPC   C1A74990  23.431   7.012  12.078 -0.2011  0.1382  0.0624
55315DOPC   D2A74991  22.950   7.180  12.028 -0.1055 -0.0282  0.0589
55315DOPC   C3A74992  22.957   7.615  11.862 -0.2388  0.0680 -0.2021
55315DOPC   C4A74993  22.952   7.964  11.585  0.1904  0.1453  0.1153
55315DOPC   C1B74994  23.461   7.287  12.509 -0.2661  0.0527 -0.0881
55315DOPC   D2B74995  23.280   7.593  12.363  0.0312 -0.1061  0.1414
55315DOPC   C3B74996  23.508   7.946  12.251  0.2348  0.1219  0.1951
55315DOPC   C4B74997  23.881   8.133  12.358  0.0805  0.0851  0.0675
55316DOPC   NC374998  28.910  16.262   4.056 -0.0685 -0.0356 -0.0960
55316DOPC   PO474999  28.795  15.902   3.759  0.0033  0.0579 -0.2878
55316DOPC   GL175000  28.781  15.939   3.342  0.2174  0.1370 -0.1108
55316DOPC   GL275001  28.462  15.952   3.331 -0.2085 -0.1600  0.2977
55316DOPC   C1A75002  28.857  16.037   2.906 -0.0562  0.1830 -0.3063
55316DOPC   D2A75003  28.976  15.950   2.506  0.0344 -0.3508  0.1442
55316DOPC   C3A75004  28.747  15.877   2.167 -0.0787 -0.0800  0.0428
55316DOPC   C4A75005  28.355  15.786   1.956 -0.2784 -0.0658  0.3154
55316DOPC   C1B75006  28.380  15.843   2.875  0.1176 -0.0312 -0.4559
55316DOPC   D2B75007  28.253  15.642   2.473 -0.0088 -0.2236 -0.1305
55316DOPC   C3B75008  28.405  15.337   2.248  0.0886  0.0895 -0.2791
55316DOPC   C4B75009  28.509  14.908   2.131 -0.1761  0.2141 -0.1445
55317DOPC   NC375010  24.265   2.294  12.235  0.0735  0.1894  0.3238
55317DOPC   PO475011  24.145   2.352  11.841 -0.1824 -0.1597  0.0896
55317DOPC   GL175012  23.882   2.587  11.559  0.1173 -0.0485  0.1319
55317DOPC   GL275013  23.486   2.723  11.659 -0.0069  0.0207  0.0578
55317DOPC   C1A75014  23.535   2.504  11.199 -0.1850  0.1083  0.1752
55317DOPC   D2A75015  23.312   2.324  10.874 -0.1440 -0.2753  0.1978
55317DOPC   C3A75016  23.110   2.183  10.479  0.0124 -0.3865 -0.1094
55317DOPC   C4A75017  22.669   1.959  10.345 -0.2171 -0.1478  0.3773
55317DOPC   C1B75018  23.247   2.932  11.306  0.2347 -0.1987  0.0681
55317DOPC   D2B75019  22.985   3.290  11.110  0.2446  0.3106  0.0958
55317DOPC   C3B75020  22.827   3.191  10.636  0.1805  0.1651 -0.1750
55317DOPC   C4B75021  22.530   3.040  10.355  0.1518 -0.1708 -0.2291
55318DOPC   NC375022  15.179   6.449  18.187  0.2266  0.0926 -0.0887
55318DOPC   PO475023  14.840   6.290  18.504  0.1277 -0.0398 -0.0036
55318DOPC   GL175024  14.697   6.525  18.042  0.1422  0.1384 -0.2340
55318DOPC   GL275025  14.433   6.583  18.135 -0.1759  0.3009 -0.0265
55318DOPC   C1A75026  14.675   6.582  17.620 -0.3506 -0.0222  0.0858
55318DOPC   D2A75027  14.447   6.789  17.249 -0.0951  0.2105 -0.1954
55318DOPC   C3A75028  14.106   6.913  17.061  0.0854  0.0002  0.0340
55318DOPC   C4A75029  13.650   7.046  17.051 -0.2318  0.0089  0.0798
55318DOPC   C1B75030  14.067   6.633  17.701 -0.2807  0.1205 -0.1852
55318DOPC   D2B75031  13.835   6.918  17.501  0.0231 -0.1023  0.1122
55318DOPC   C3B75032  14.132   7.241  17.499  0.0092 -0.2978  0.2613
55318DOPC   C4B75033  14.321   7.512  17.825  0.0754 -0.3521  0.0520
55319DOPC   NC375034  33.742  30.431  13.632 -0.1282  0.0538 -0.1807
55319DOPC   PO475035  34.002  30.177  13.465  0.0066  0.0135  0.0710
55319DOPC   GL175036  34.246  30.297  13.065 -0.0182  0.1467 -0.3983
55319DOPC   GL275037  34.303  30.049  12.848  0.2905  0.0311  0.2331
55319DOPC   C1A75038  34.733  30.373  12.989 -0.2841 -0.0837  0.1946
55319DOPC   D2A75039  35.101  30.530  12.815 -0.2701  0.0778 -0.0202
55319DOPC   C3A75040   0.158  30.578  12.704 -0.2600  0.0929 -0.0997
55319DOPC   C4A75041   0.539  30.560  12.424 -0.0337  0.0044 -0.4706
55319DOPC   C1B75042  34.656  30.116  12.567 -0.1104  0.1340 -0.4296
55319DOPC   D2B75043  34.988  30.286  12.420 -0.2033  0.0348  0.0007
55319DOPC   C3B75044  35.309  30.074  12.173 -0.1638  0.3623  0.0423
55319DOPC   C4B75045   0.370  29.966  12.258 -0.0740  0.0623 -0.1366
55320DOPC   NC375046  30.205  28.008  10.038 -0.1038  0.1677  0.0375
55320DOPC   PO475047  30.128  27.817   9.652  0.0968  0.0058  0.0340
55320DOPC   GL175048  30.046  27.922   9.174  0.0990  0.0468  0.0049
55320DOPC   GL275049  30.360  27.986   9.083 -0.0236 -0.0745  0.0691
55320DOPC   C1A75050  29.947  27.874   8.731  0.1262  0.2241  0.2514
55320DOPC   D2A75051  30.000  27.784   8.341  0.1288  0.2644  0.0075
55320DOPC   C3A75052  30.003  27.862   7.959 -0.0379 -0.1303  0.2470
55320DOPC   C4A75053  30.113  28.311   7.630  0.2933  0.1505 -0.3183
55320DOPC   C1B75054  30.454  27.842   8.598 -0.0160 -0.1278  0.1545
55320DOPC   D2B75055  30.481  27.584   8.277 -0.1101 -0.0613 -0.0475
55320DOPC   C3B75056  30.526  27.780   7.889 -0.0401 -0.1531 -0.1094
55320DOPC   C4B75057  30.480  27.959   7.591  0.3207  0.1489 -0.0826
55321DOPC   NC375058  34.275  16.590   6.174  0.1449  0.1979 -0.0285
55321DOPC   PO475059  34.575  16.297   5.990  0.0449 -0.1521 -0.1551
55321DOPC   GL175060  35.023  16.438   5.796  0.1883  0.1949  0.0899
55321DOPC   GL275061  34.960  16.216   5.546  0.1789  0.0880 -0.1586
55321DOPC   C1A75062   0.015  16.467   5.580  0.0149 -0.3637 -0.0819
55321DOPC   D2A75063   0.162  16.660   5.304  0.3156  0.3225  0.1423
55321DOPC   C3A75064   0.301  16.608   4.929  0.2045  0.1923 -0.1463
55321DOPC   C4A75065   0.445  16.229   4.719  0.0725  0.0380  0.0773
55321DOPC   C1B75066  35.186  16.281   5.163 -0.0677  0.4620  0.2395
55321DOPC   D2B75067  35.372  16.225   4.803 -0.3425 -0.0814 -0.0356
55321DOPC   C3B75068  35.270  16.104   4.347  0.0616 -0.0484 -0.0406
55321DOPC   C4B75069  35.041  16.187   3.940 -0.3255  0.4648  0.0805
55322DOPC   NC375070   6.341  14.083  16.769 -0.4433 -0.0344 -0.2595
55322DOPC   PO475071   6.256  14.322  16.459  0.2917  0.2484 -0.1698
55322DOPC   GL175072   6.609  14.082  16.318 -0.1762 -0.1606  0.3372
55322DOPC   GL275073   6.434  14.139  16.038 -0.0208  0.1438  0.0409
55322DOPC   C1A75074   6.842  13.822  16.232  0.3024 -0.0027  0.0986
55322DOPC   D2A75075   6.983  13.580  15.975 -0.1036  0.1052  0.1973
55322DOPC   C3A75076   7.186  13.764  15.675  0.1194  0.0592 -0.2295
55322DOPC   C4A75077   7.198  13.537  15.384  0.1833  0.2755  0.0019
55322DOPC   C1B75078   6.882  14.156  15.782  0.1628  0.1230 -0.1436
55322DOPC   D2B75079   7.145  14.182  15.413  0.1415 -0.0125  0.1496
55322DOPC   C3B75080   7.122  13.990  15.096  0.0796 -0.1624  0.0684
55322DOPC   C4B75081   7.187  13.579  14.824  0.0538 -0.0709  0.0985
55323DOPC   NC375082  32.927  10.081   8.002 -0.2541 -0.0744 -0.1189
55323DOPC   PO475083  32.550   9.883   8.060  0.2955 -0.0157  0.1408
55323DOPC   GL175084  32.681   9.588   7.771  0.1903  0.1193 -0.0099
55323DOPC   GL275085  32.762   9.830   7.538 -0.0723 -0.1705 -0.0112
55323DOPC   C1A75086  32.901   9.208   7.660 -0.1763  0.1989  0.2713
55323DOPC   D2A75087  33.209   8.994   7.483 -0.1536  0.2216 -0.0393
55323DOPC   C3A75088  33.183   8.873   7.052 -0.0134  0.2002 -0.4086
55323DOPC   C4A75089  33.342   8.995   6.706 -0.1290  0.2810 -0.3907
55323DOPC   C1B75090  32.854   9.555   7.239 -0.1419  0.0827 -0.0939
55323DOPC   D2B75091  32.757   9.146   7.073 -0.0107 -0.2447  0.1956
55323DOPC   C3B75092  32.718   8.797   7.346 -0.1549 -0.2066  0.0224
55323DOPC   C4B75093  32.494   8.421   7.395  0.1689  0.0595  0.3577
55324DOPC   NC375094   5.915   1.611  18.510 -0.2357  0.1682  0.2683
55324DOPC   PO475095   5.763   1.366  18.808  0.0043 -0.3944  0.0658
55324DOPC   GL175096   5.900   0.941  18.605 -0.0777  0.2591  0.0199
55324DOPC   GL275097   5.792   0.940  18.365 -0.1703  0.0585 -0.0457
55324DOPC   C1A75098   6.012   0.468  18.575  0.3977  0.2063  0.0719
55324DOPC   D2A75099   6.005   0.007  18.418 -0.1177 -0.1131 -0.2601
55324DOPC   C3A75100   6.207  35.174  18.143 -0.4942 -0.3734 -0.1113
55324DOPC   C4A75101   6.481  35.054  17.797 -0.0403  0.0091  0.1962
55324DOPC   C1B75102   5.849   0.636  18.087  0.0863 -0.1317  0.1060
55324DOPC   D2B75103   6.090   0.286  17.986  0.0125  0.0741  0.4277
55324DOPC   C3B75104   6.192   0.100  17.637 -0.0289 -0.1735  0.1205
55324DOPC   C4B75105   6.526  35.316  17.404 -0.0784 -0.0237  0.0747
55325DOPC   NC375106   1.316  19.107   9.411 -0.3372 -0.2413 -0.0023
55325DOPC   PO475107   1.424  19.125   8.988 -0.1419 -0.2813 -0.1438
55325DOPC   GL175108   1.792  18.980   8.918  0.1980 -0.1425 -0.2535
55325DOPC   GL275109   1.804  18.875   8.691  0.0298 -0.1453  0.0916
55325DOPC   C1A75110   2.174  18.846   9.106 -0.0647 -0.1514  0.2756
55325DOPC   D2A75111   2.630  18.764   9.042  0.0549 -0.1550 -0.3450
55325DOPC   C3A75112   2.855  18.716   9.521  0.1679 -0.1732  0.0284
55325DOPC   C4A75113   3.246  18.628   9.695  0.1019  0.0328  0.0408
55325DOPC   C1B75114   2.265  18.845   8.549  0.0941  0.0567 -0.2362
55325DOPC   D2B75115   2.635  18.818   8.134  0.0871 -0.1806 -0.0267
55325DOPC   C3B75116   2.943  18.494   8.189 -0.1078  0.0832 -0.0909
55325DOPC   C4B75117   3.356  18.417   8.543 -0.2153  0.0647 -0.0848
55326DOPC   NC375118  31.440   9.578   7.339 -0.3062  0.1240 -0.0868
55326DOPC   PO475119  31.492   9.990   7.227  0.2987 -0.0844 -0.1557
55326DOPC   GL175120  31.478   9.792   6.838 -0.0773 -0.0734 -0.0921
55326DOPC   GL275121  31.776   9.497   6.862  0.0555 -0.2816 -0.0497
55326DOPC   C1A75122  31.576   9.639   6.457 -0.2055  0.0021 -0.0037
55326DOPC   D2A75123  31.837   9.283   6.145  0.1405 -0.0538  0.1243
55326DOPC   C3A75124  31.830   9.177   5.744 -0.2194  0.0402 -0.0545
55326DOPC   C4A75125  31.882   9.126   5.254 -0.4150  0.0279 -0.0444
55326DOPC   C1B75126  32.099   9.430   6.595 -0.2806 -0.0274 -0.0810
55326DOPC   D2B75127  32.276   9.530   6.252 -0.0773  0.0527  0.3962
55326DOPC   C3B75128  32.293   9.204   6.038  0.2079  0.0826  0.0285
55326DOPC   C4B75129  32.697   9.033   5.976  0.0098  0.1819 -0.3125
55327DOPC   NC375130   4.132  14.400  15.009 -0.0383 -0.1417 -0.1065
55327DOPC   PO475131   4.305  14.081  14.811  0.4186  0.0978 -0.3180
55327DOPC   GL175132   4.595  14.328  14.698  0.1902  0.1399  0.1488
55327DOPC   GL275133   4.475  14.608  14.747  0.1685 -0.1370 -0.0173
55327DOPC   C1A75134   4.921  14.441  14.335  0.2667  0.0058  0.0388
55327DOPC   D2A75135   5.173  14.519  14.018 -0.2110 -0.1211  0.0878
55327DOPC   C3A75136   5.307  14.946  14.056  0.3511 -0.2489  0.0073
55327DOPC   C4A75137   5.372  15.363  13.988 -0.2541  0.0028 -0.1063
55327DOPC   C1B75138   4.832  14.857  14.599  0.2279 -0.1637 -0.2855
55327DOPC   D2B75139   5.108  15.216  14.382 -0.1131 -0.2689  0.2299
55327DOPC   C3B75140   5.065  15.696  14.140  0.1123  0.0546 -0.0375
55327DOPC   C4B75141   4.686  15.888  14.176  0.1901 -0.0238 -0.1173
55328DOPC   NC375142   4.190  18.490  16.086  0.0956 -0.1026 -0.4805
55328DOPC   PO475143   4.335  18.269  15.591 -0.1054 -0.4103 -0.0577
55328DOPC   GL175144   4.446  18.619  15.369  0.1956  0.3524  0.0890
55328DOPC   GL275145   4.402  18.482  15.078  0.0253  0.1032  0.1336
55328DOPC   C1A75146   4.650  18.969  15.244  0.1264  0.0960  0.0935
55328DOPC   D2A75147   4.910  19.332  15.040  0.1755 -0.1569  0.1008
55328DOPC   C3A75148   5.152  19.709  15.353  0.2280 -0.2540 -0.2137
55328DOPC   C4A75149   5.155  20.036  15.538 -0.3468  0.1552  0.1261
55328DOPC   C1B75150   4.722  18.546  14.880  0.1839 -0.0641 -0.0788
55328DOPC   D2B75151   5.133  18.481  14.821 -0.0791  0.0297  0.3984
55328DOPC   C3B75152   5.565  18.572  14.977 -0.0072 -0.5738 -0.1571
55328DOPC   C4B75153   5.763  18.635  15.336 -0.2354  0.1863 -0.0518
55329DOPC   NC375154   5.081  13.981  16.400 -0.1196 -0.2529  0.0029
55329DOPC   PO475155   5.273  14.316  16.327 -0.0944 -0.2243 -0.0299
55329DOPC   GL175156   5.371  14.484  16.003  0.2346 -0.0661  0.0513
55329DOPC   GL275157   5.365  14.910  15.868 -0.0884  0.0908 -0.2135
55329DOPC   C1A75158   5.534  14.578  15.573 -0.2493  0.0192  0.1048
55329DOPC   D2A75159   5.850  14.548  15.295  0.0800  0.0804  0.2240
55329DOPC   C3A75160   5.840  14.967  15.013 -0.3549 -0.1156  0.0378
55329DOPC   C4A75161   6.084  15.167  14.738  0.1765  0.1568 -0.1908
55329DOPC   C1B75162   5.760  15.008  15.584 -0.0018 -0.0299 -0.0007
55329DOPC   D2B75163   6.034  15.268  15.405 -0.2248 -0.1803  0.0577
55329DOPC   C3B75164   6.204  15.527  15.029 -0.0632 -0.0884 -0.1761
55329DOPC   C4B75165   6.350  15.709  14.735  0.0779  0.0212 -0.2337
55330DOPC   NC375166  17.938   4.967  17.101 -0.2073  0.1371 -0.0974
55330DOPC   PO475167  17.685   4.783  16.765  0.2959 -0.2487  0.1713
55330DOPC   GL175168  17.482   4.912  16.448 -0.1135  0.0355  0.2269
55330DOPC   GL275169  17.532   4.729  16.241  0.1384 -0.0742  0.1241
55330DOPC   C1A75170  17.119   5.084  16.269  0.2106  0.0293  0.0640
55330DOPC   D2A75171  16.968   5.408  15.969 -0.1392  0.2375  0.1471
55330DOPC   C3A75172  16.934   5.577  15.574  0.1880 -0.1528 -0.0331
55330DOPC   C4A75173  16.937   5.976  15.430  0.0945  0.2365  0.0413
55330DOPC   C1B75174  17.514   4.927  15.840 -0.1303  0.2247  0.2261
55330DOPC   D2B75175  17.226   5.170  15.646 -0.0362  0.0899  0.1365
55330DOPC   C3B75176  16.948   5.187  15.265 -0.1308  0.0998  0.1746
55330DOPC   C4B75177  16.812   5.247  14.863 -0.0108 -0.0075  0.2699
55331DOPC   NC375178  24.989  13.019   8.654 -0.2247  0.1844 -0.1691
55331DOPC   PO475179  24.633  13.169   8.771  0.0642 -0.1175 -0.2305
55331DOPC   GL175180  24.189  13.254   8.965  0.0706 -0.0768 -0.0456
55331DOPC   GL275181  24.178  13.519   9.213  0.0224 -0.2813  0.4889
55331DOPC   C1A75182  23.736  13.384   8.949  0.3414 -0.2930  0.0856
55331DOPC   D2A75183  23.323  13.381   8.894  0.1579 -0.2079  0.1350
55331DOPC   C3A75184  23.009  13.240   9.008 -0.0141  0.3706  0.3777
55331DOPC   C4A75185  22.761  12.854   9.052 -0.1103 -0.0716  0.0512
55331DOPC   C1B75186  24.072  13.174   9.570 -0.5589  0.0053  0.0053
55331DOPC   D2B75187  23.971  12.905   9.908 -0.0562 -0.3826  0.0179
55331DOPC   C3B75188  23.529  12.899   9.715  0.0146  0.3629 -0.0027
55331DOPC   C4B75189  23.127  12.889   9.552  0.1813 -0.0738 -0.0035
55332DOPC   NC375190  26.100  28.698   9.797  0.0550 -0.0981  0.1223
55332DOPC   PO475191  26.334  29.092   9.851 -0.0395 -0.2723  0.1405
55332DOPC   GL175192  26.183  29.265   9.394  0.2148  0.3676 -0.3293
55332DOPC   GL275193  25.969  28.948   9.300 -0.3390 -0.0658  0.0025
55332DOPC   C1A75194  26.156  29.604   9.121  0.1423 -0.0846 -0.5185
55332DOPC   D2A75195  26.232  29.856   8.788  0.1652 -0.1038 -0.1193
55332DOPC   C3A75196  26.457  29.638   8.405 -0.1317 -0.0730  0.1943
55332DOPC   C4A75197  26.662  29.754   7.983 -0.0666 -0.0807 -0.3255
55332DOPC   C1B75198  25.878  29.205   8.946 -0.0435 -0.2096 -0.2090
55332DOPC   D2B75199  25.869  29.500   8.663 -0.1462 -0.2753 -0.5749
55332DOPC   C3B75200  25.770  29.573   8.279  0.0891 -0.3539 -0.0271
55332DOPC   C4B75201  25.505  29.293   8.024 -0.1676 -0.4256  0.0077
55333DOPC   NC375202  23.161  29.037  10.487  0.0720  0.0863  0.2789
55333DOPC   PO475203  23.528  29.316  10.280  0.3639 -0.2381 -0.0942
55333DOPC   GL175204  23.059  29.364  10.022 -0.1029  0.4106  0.2689
55333DOPC   GL275205  22.826  29.177  10.140  0.0369  0.1427 -0.0377
55333DOPC   C1A75206  22.754  29.382   9.684 -0.1820  0.1631 -0.1435
55333DOPC   D2A75207  22.463  29.524   9.448  0.1235  0.1035 -0.2470
55333DOPC   C3A75208  22.014  29.570   9.567 -0.1043  0.0130 -0.1678
55333DOPC   C4A75209  21.629  29.707   9.612  0.2683 -0.3900  0.0832
55333DOPC   C1B75210  22.593  29.422  10.255 -0.2683  0.2936  0.0774
55333DOPC   D2B75211  22.260  29.549   9.988  0.0417  0.1375 -0.1901
55333DOPC   C3B75212  21.867  29.335   9.983  0.1837 -0.0995 -0.0908
55333DOPC   C4B75213  21.496  29.065   9.885 -0.0203  0.1437  0.0373
55334DOPC   NC375214  24.685  21.841   9.799 -0.0355  0.2947  0.1906
55334DOPC   PO475215  24.617  21.957   9.453  0.0382  0.1535 -0.2881
55334DOPC   GL175216  24.313  21.875   9.231  0.0574  0.0393 -0.2345
55334DOPC   GL275217  24.187  21.592   9.184  0.5532 -0.2572  0.2144
55334DOPC   C1A75218  24.166  21.933   8.764  0.2183  0.1422 -0.1499
55334DOPC   D2A75219  23.935  21.940   8.519  0.1049  0.1135  0.2543
55334DOPC   C3A75220  23.717  21.861   8.138  0.2075  0.0445 -0.4914
55334DOPC   C4A75221  23.575  21.758   7.915 -0.0944  0.0489  0.2777
55334DOPC   C1B75222  23.792  21.633   8.963 -0.0909 -0.2142  0.0215
55334DOPC   D2B75223  23.346  21.556   8.791  0.0602 -0.0376 -0.0321
55334DOPC   C3B75224  23.155  21.783   9.063 -0.0431  0.0079  0.1695
55334DOPC   C4B75225  23.250  22.227   9.030 -0.3077  0.0257  0.2641
55335DOPC   NC375226  35.215  18.606   7.844 -0.1131 -0.1493  0.0726
55335DOPC   PO475227  35.382  18.765   7.471 -0.1351 -0.0869  0.1196
55335DOPC   GL175228   0.156  19.001   7.153 -0.1793  0.2155  0.1574
55335DOPC   GL275229   0.002  19.255   7.059 -0.2403 -0.1099  0.2154
55335DOPC   C1A75230   0.499  19.106   6.882  0.0077 -0.4232  0.2331
55335DOPC   D2A75231   0.522  19.304   6.574  0.0266 -0.2570 -0.2100
55335DOPC   C3A75232   0.825  19.244   6.299 -0.0365 -0.0610  0.2220
55335DOPC   C4A75233   1.058  19.585   6.097  0.0068  0.2980  0.2443
55335DOPC   C1B75234   0.008  19.518   6.808  0.1329  0.0087 -0.3722
55335DOPC   D2B75235   0.175  19.624   6.327  0.4080  0.0795  0.4884
55335DOPC   C3B75236   0.535  19.635   6.124  0.2063  0.1061 -0.2126
55335DOPC   C4B75237   0.668  19.791   5.772 -0.0257  0.1183 -0.1093
55336DOPC   NC375238  19.205  22.558  17.873  0.3099  0.3145 -0.0359
55336DOPC   PO475239  18.948  22.683  18.253 -0.2173  0.1717  0.0866
55336DOPC   GL175240  18.541  22.700  18.200 -0.1563 -0.0233 -0.3659
55336DOPC   GL275241  18.433  22.673  18.513 -0.1503 -0.3830  0.0183
55336DOPC   C1A75242  18.165  22.735  18.072 -0.0460 -0.2742  0.1121
55336DOPC   D2A75243  18.008  22.617  17.687 -0.0431  0.1483  0.1737
55336DOPC   C3A75244  17.646  22.313  17.710  0.1177 -0.0268  0.0561
55336DOPC   C4A75245  17.226  22.162  17.871 -0.2598  0.2069  0.2866
55336DOPC   C1B75246  17.949  22.470  18.467  0.1596 -0.1174 -0.0445
55336DOPC   D2B75247  17.604  22.341  18.253  0.0248 -0.3393  0.2149
55336DOPC   C3B75248  17.625  22.654  18.086 -0.2669 -0.3196 -0.1038
55336DOPC   C4B75249  17.731  23.049  17.894  0.0231  0.2811  0.2399
55337DOPC   NC375250  22.738  23.717  13.271  0.1802 -0.1114  0.0248
55337DOPC   PO475251  22.576  23.854  13.682 -0.0274 -0.0529  0.2020
55337DOPC   GL175252  22.231  23.932  13.447 -0.0341  0.0839 -0.0850
55337DOPC   GL275253  21.977  24.084  13.596 -0.0810  0.1310 -0.0397
55337DOPC   C1A75254  21.950  23.711  13.097  0.3020 -0.1346  0.1947
55337DOPC   D2A75255  21.742  23.440  12.699 -0.1982  0.2319 -0.2361
55337DOPC   C3A75256  21.569  23.754  12.484 -0.1805  0.2044 -0.1652
55337DOPC   C4A75257  21.462  23.879  12.094 -0.2216  0.0686 -0.0911
55337DOPC   C1B75258  21.576  23.972  13.425  0.1119 -0.0833  0.2890
55337DOPC   D2B75259  21.295  24.238  13.200  0.0396 -0.1495  0.1610
55337DOPC   C3B75260  21.099  24.117  12.732 -0.1523 -0.2053  0.0539
55337DOPC   C4B75261  20.892  23.944  12.242 -0.1451 -0.0540  0.1767
55338DOPC   NC375262  11.595   4.768  18.655  0.0231 -0.0023 -0.0294
55338DOPC   PO475263  11.503   4.344  18.861 -0.1542  0.4083 -0.3521
55338DOPC   GL175264  11.694   4.366  18.344 -0.0016  0.1015  0.2878
55338DOPC   GL275265  11.963   4.562  18.262  0.2360 -0.1764 -0.3472
55338DOPC   C1A75266  11.532   4.422  18.012 -0.0875 -0.2968 -0.3945
55338DOPC   D2A75267  11.683   4.583  17.589 -0.0419  0.1092  0.2819
55338DOPC   C3A75268  11.498   4.535  17.200 -0.3244 -0.2336  0.1291
55338DOPC   C4A75269  11.494   4.400  16.762 -0.1926 -0.0677  0.1163
55338DOPC   C1B75270  11.810   4.825  18.046  0.0544 -0.0668  0.0375
55338DOPC   D2B75271  11.706   5.078  17.638  0.1236  0.1341  0.3311
55338DOPC   C3B75272  11.858   5.136  17.233 -0.0445 -0.1129 -0.1169
55338DOPC   C4B75273  12.174   5.460  17.032 -0.5115  0.0931 -0.1248
55339DOPC   NC375274  33.571   0.573  13.221 -0.2387 -0.2917  0.3057
55339DOPC   PO475275  33.969   0.794  13.025 -0.0208  0.0594 -0.2255
55339DOPC   GL175276  34.352   0.898  12.674  0.0822 -0.2053 -0.1330
55339DOPC   GL275277  34.616   1.091  12.646  0.0919  0.3813 -0.2151
55339DOPC   C1A75278  34.309   0.805  12.195 -0.5414  0.0656  0.2680
55339DOPC   D2A75279  34.588   0.647  11.877  0.0447 -0.1477 -0.0501
55339DOPC   C3A75280  34.720   0.437  11.557  0.0600  0.0947  0.2731
55339DOPC   C4A75281  34.793   0.002  11.555 -0.1207  0.1506 -0.1103
55339DOPC   C1B75282  34.797   0.919  12.358 -0.1315  0.2579 -0.1392
55339DOPC   D2B75283  35.079   0.715  12.110  0.2996  0.0603  0.0633
55339DOPC   C3B75284  35.166   0.508  11.882 -0.1574 -0.0994 -0.0342
55339DOPC   C4B75285  35.258   0.204  11.554 -0.0636 -0.0611  0.0033
55340DOPC   NC375286  11.843   1.011  19.895 -0.6065  0.1376 -0.1676
55340DOPC   PO475287  11.905   0.640  20.065  0.3169 -0.2582  0.0804
55340DOPC   GL175288  11.721   0.446  19.714  0.1343  0.2290 -0.0964
55340DOPC   GL275289  11.783   0.174  19.619  0.1740 -0.0474  0.3759
55340DOPC   C1A75290  11.487   0.574  19.320  0.1343  0.1218  0.1193
55340DOPC   D2A75291  11.413   0.473  18.795 -0.1581  0.2189  0.1882
55340DOPC   C3A75292  11.277   0.589  18.364  0.2632  0.1317 -0.3284
55340DOPC   C4A75293  11.271   0.698  17.886 -0.1333  0.1990  0.0880
55340DOPC   C1B75294  11.621   0.177  19.124  0.0977  0.0522 -0.0038
55340DOPC   D2B75295  11.733   0.067  18.778  0.4388  0.0313  0.0715
55340DOPC   C3B75296  11.252   0.022  18.563  0.3451 -0.1074 -0.0118
55340DOPC   C4B75297  11.080  35.244  18.210 -0.1609 -0.0567  0.1060
55341DOPC   NC375298  29.578  27.937   9.402 -0.0788 -0.3154 -0.0658
55341DOPC   PO475299  29.749  28.415   9.187  0.0749 -0.3665  0.2192
55341DOPC   GL175300  30.006  28.440   8.962 -0.0488  0.0988  0.0410
55341DOPC   GL275301  30.262  28.483   9.041 -0.1809 -0.2366  0.2053
55341DOPC   C1A75302  30.121  28.708   8.616 -0.0935  0.2594  0.4458
55341DOPC   D2A75303  30.251  29.134   8.349 -0.3168  0.1055  0.1126
55341DOPC   C3A75304  30.108  29.515   8.447 -0.3165  0.0610 -0.1510
55341DOPC   C4A75305  29.958  29.831   8.103  0.0375 -0.1565 -0.2103
55341DOPC   C1B75306  30.469  28.421   8.745  0.3643  0.1547 -0.0952
55341DOPC   D2B75307  30.543  28.653   8.418 -0.1150  0.0821  0.1127
55341DOPC   C3B75308  30.363  28.664   8.043 -0.0534  0.0097 -0.1369
55341DOPC   C4B75309  30.584  28.429   7.628 -0.2452  0.0731 -0.1619
55342DOPC   NC375310  14.833  11.224  19.134 -0.0977  0.1334 -0.1799
55342DOPC   PO475311  14.838  11.021  18.731 -0.0329  0.1122 -0.1496
55342DOPC   GL175312  14.575  10.958  18.421  0.0380  0.1912  0.0715
55342DOPC   GL275313  14.705  10.942  18.254 -0.1629  0.0580  0.2929
55342DOPC   C1A75314  14.376  11.281  18.202 -0.2696  0.0938 -0.1415
55342DOPC   D2A75315  14.206  11.292  17.852 -0.0480 -0.2537 -0.2184
55342DOPC   C3A75316  14.317  11.222  17.508  0.1561 -0.2932 -0.0668
55342DOPC   C4A75317  14.683  11.326  17.345  0.3438  0.0745 -0.1694
55342DOPC   C1B75318  14.598  10.976  17.817  0.2420 -0.2230 -0.1206
55342DOPC   D2B75319  14.223  10.822  17.724  0.2043 -0.0611  0.1084
55342DOPC   C3B75320  14.208  10.755  17.251  0.3065  0.1039 -0.2115
55342DOPC   C4B75321  14.168  10.611  16.838 -0.1365 -0.0615 -0.0129
55343DOPC   NC375322  22.269  29.784  12.141 -0.4436  0.0930  0.0648
55343DOPC   PO475323  22.226  29.309  11.984  0.0355  0.0682  0.0827
55343DOPC   GL175324  21.963  29.090  11.750 -0.1837 -0.2772  0.2002
55343DOPC   GL275325  21.694  29.146  11.972 -0.0659  0.1956  0.1790
55343DOPC   C1A75326  21.633  28.865  11.604 -0.0090 -0.0279 -0.3567
55343DOPC   D2A75327  21.169  28.820  11.442 -0.1449  0.0040 -0.1420
55343DOPC   C3A75328  20.915  28.511  11.438  0.0901  0.0100  0.0642
55343DOPC   C4A75329  20.821  28.103  11.203 -0.1823 -0.0588 -0.0425
55343DOPC   C1B75330  21.314  29.177  11.760 -0.0252 -0.2153 -0.0178
55343DOPC   D2B75331  21.008  29.318  11.456 -0.1759 -0.0090  0.1075
55343DOPC   C3B75332  20.780  29.017  11.163  0.1958 -0.0921 -0.0015
55343DOPC   C4B75333  20.703  28.689  10.787  0.2391 -0.0015  0.2144
55344DOPC   NC375334  13.670  28.875  21.340 -0.1857  0.0281  0.2655
55344DOPC   PO475335  13.657  29.327  21.211 -0.2481  0.1241 -0.1879
55344DOPC   GL175336  13.408  29.324  20.920  0.0527  0.1841 -0.0706
55344DOPC   GL275337  13.514  29.357  20.646  0.1821  0.2454  0.2716
55344DOPC   C1A75338  13.252  28.943  20.725 -0.2782  0.1582 -0.2085
55344DOPC   D2A75339  12.925  28.594  20.672  0.1306  0.2366 -0.1740
55344DOPC   C3A75340  13.082  28.369  20.284 -0.2493  0.1339 -0.0010
55344DOPC   C4A75341  13.138  28.331  19.837 -0.0292 -0.1411  0.4037
55344DOPC   C1B75342  13.251  29.329  20.421  0.0973  0.2828  0.2852
55344DOPC   D2B75343  13.328  29.017  20.219 -0.2407 -0.1730  0.0669
55344DOPC   C3B75344  13.090  28.799  20.074 -0.0316  0.1502  0.0067
55344DOPC   C4B75345  12.867  29.017  19.767  0.0160 -0.0065 -0.1661
55345DOPC   NC375346   6.140  24.815  20.502 -0.2741  0.0047  0.2419
55345DOPC   PO475347   5.989  24.386  20.576 -0.2174  0.1360 -0.2455
55345DOPC   GL175348   6.414  24.413  20.397  0.0958 -0.1316  0.2291
55345DOPC   GL275349   6.598  24.716  20.290 -0.2659 -0.1689  0.4939
55345DOPC   C1A75350   6.808  24.286  20.293  0.0167  0.3779 -0.3443
55345DOPC   D2A75351   7.032  24.034  20.010  0.2215  0.0202 -0.1242
55345DOPC   C3A75352   7.458  24.164  19.836  0.0022 -0.0053 -0.2482
55345DOPC   C4A75353   7.744  24.220  19.526  0.0935 -0.2561  0.1023
55345DOPC   C1B75354   6.584  24.776  19.815 -0.1582  0.3170 -0.2304
55345DOPC   D2B75355   6.727  24.664  19.445 -0.2775 -0.0756  0.1482
55345DOPC   C3B75356   6.896  24.803  19.186 -0.0759  0.0297 -0.0583
55345DOPC   C4B75357   7.158  25.256  19.079 -0.1680  0.1065 -0.3145
55346DOPC   NC375358  15.531  16.298  18.569  0.1654 -0.1001 -0.3267
55346DOPC   PO475359  15.956  16.549  18.528 -0.2003  0.0245  0.0786
55346DOPC   GL175360  15.781  16.533  18.128 -0.0296 -0.2087  0.1976
55346DOPC   GL275361  15.489  16.445  18.030  0.0671  0.4058  0.0359
55346DOPC   C1A75362  15.674  16.860  17.787 -0.0113 -0.2825 -0.0431
55346DOPC   D2A75363  15.419  16.987  17.442  0.0283  0.0451 -0.0734
55346DOPC   C3A75364  15.414  17.294  17.151  0.0823  0.1828  0.0900
55346DOPC   C4A75365  15.401  17.476  16.638 -0.2560 -0.2894 -0.1512
55346DOPC   C1B75366  15.205  16.622  17.731 -0.0649  0.1536 -0.3545
55346DOPC   D2B75367  14.889  16.647  17.520  0.3820 -0.2394 -0.3628
55346DOPC   C3B75368  14.925  16.938  17.218  0.2876  0.0639  0.3842
55346DOPC   C4B75369  15.062  17.086  16.824 -0.1327  0.0399  0.0846
55347DOPC   NC375370  10.779  17.997  19.917 -0.0477 -0.0225  0.3027
55347DOPC   PO475371  11.107  18.167  19.834 -0.1047 -0.1848 -0.0009
55347DOPC   GL175372  10.993  18.261  19.444 -0.0880  0.0414 -0.0801
55347DOPC   GL275373  10.739  17.991  19.392  0.2293  0.1305 -0.2601
55347DOPC   C1A75374  11.032  18.646  19.161  0.1679 -0.1300  0.0072
55347DOPC   D2A75375  11.101  19.139  19.148  0.0331 -0.1024  0.2216
55347DOPC   C3A75376  11.378  19.356  18.983  0.0658  0.0121 -0.1207
55347DOPC   C4A75377  11.252  19.736  18.789  0.0386  0.1522 -0.3383
55347DOPC   C1B75378  10.761  18.150  19.020  0.1039  0.1343 -0.1166
55347DOPC   D2B75379  10.638  18.410  18.719 -0.0288  0.4265 -0.1599
55347DOPC   C3B75380  11.011  18.662  18.615 -0.2696  0.0517 -0.1600
55347DOPC   C4B75381  11.140  19.109  18.559  0.1616  0.0384  0.0843
55348DOPC   NC375382  32.462   1.858  11.598 -0.0559  0.0050 -0.0170
55348DOPC   PO475383  32.811   1.999  11.868  0.0997 -0.2061  0.1710
55348DOPC   GL175384  32.920   2.249  11.529 -0.0373  0.1413  0.0912
55348DOPC   GL275385  33.186   2.107  11.481  0.1232 -0.0153 -0.1499
55348DOPC   C1A75386  32.912   2.371  11.148  0.3433 -0.0529 -0.3163
55348DOPC   D2A75387  32.908   2.618  10.828 -0.0484 -0.0409 -0.0679
55348DOPC   C3A75388  32.560   2.496  10.609  0.2400 -0.0576  0.0561
55348DOPC   C4A75389  32.460   2.582  10.253  0.0531  0.1291  0.1234
55348DOPC   C1B75390  33.178   1.969  11.054  0.0435  0.0561 -0.0153
55348DOPC   D2B75391  32.877   2.126  10.727 -0.0329 -0.2740  0.1078
55348DOPC   C3B75392  33.054   1.887  10.334  0.0156 -0.2111  0.1810
55348DOPC   C4B75393  33.266   1.914   9.990 -0.0985 -0.2093  0.0752
55349DOPC   NC375394   6.895  18.609  18.781 -0.0148  0.1591 -0.2091
55349DOPC   PO475395   6.577  18.446  18.541  0.2817 -0.3775  0.0035
55349DOPC   GL175396   6.862  18.525  18.131 -0.2099  0.3234  0.0560
55349DOPC   GL275397   7.183  18.681  18.240 -0.3142 -0.0660  0.1505
55349DOPC   C1A75398   6.911  18.755  17.691  0.0859  0.1857  0.2367
55349DOPC   D2A75399   7.227  18.944  17.463  0.5699  0.0555  0.0053
55349DOPC   C3A75400   7.191  18.820  16.998  0.1687 -0.1833  0.0738
55349DOPC   C4A75401   7.028  18.851  16.555  0.1021 -0.0569 -0.1029
55349DOPC   C1B75402   7.319  18.943  17.947 -0.0461  0.0188 -0.0167
55349DOPC   D2B75403   7.580  19.247  17.881  0.2085  0.1380  0.0658
55349DOPC   C3B75404   7.753  19.523  18.245 -0.0885 -0.2894 -0.0689
55349DOPC   C4B75405   7.891  19.922  18.210 -0.1105  0.2399 -0.0013
55350DOPC   NC375406  20.994  19.185  16.871  0.0711  0.1341  0.2992
55350DOPC   PO475407  20.721  19.200  16.447  0.2050 -0.3701  0.2117
55350DOPC   GL175408  20.390  19.010  16.474 -0.1118  0.3845  0.0552
55350DOPC   GL275409  20.130  18.849  16.724 -0.3271 -0.0642 -0.2608
55350DOPC   C1A75410  20.110  18.772  16.215 -0.1152 -0.0612  0.1517
55350DOPC   D2A75411  19.984  18.498  15.885 -0.2607 -0.0400 -0.1274
55350DOPC   C3A75412  19.614  18.464  15.800 -0.1622  0.0167  0.0613
55350DOPC   C4A75413  19.304  18.572  15.553  0.0501 -0.2722 -0.0865
55350DOPC   C1B75414  19.807  18.630  16.595  0.0426  0.2850 -0.1785
55350DOPC   D2B75415  19.491  18.553  16.295 -0.1061 -0.0327  0.0489
55350DOPC   C3B75416  19.159  18.494  16.029 -0.0257  0.0966 -0.1162
55350DOPC   C4B75417  18.854  18.351  15.795  0.1881 -0.1499  0.0031
55351DOPC   NC375418  14.248  18.028  20.520 -0.0627  0.0115 -0.1144
55351DOPC   PO475419  13.988  17.882  20.171  0.3411 -0.0537 -0.0941
55351DOPC   GL175420  14.147  18.028  19.753  0.1952  0.0217  0.0707
55351DOPC   GL275421  14.213  18.360  19.888  0.1164  0.0823 -0.0210
55351DOPC   C1A75422  14.041  18.029  19.364  0.0106 -0.0163  0.1554
55351DOPC   D2A75423  14.075  18.282  19.019 -0.2212 -0.1596 -0.1309
55351DOPC   C3A75424  14.053  18.181  18.619 -0.0068  0.2249 -0.0045
55351DOPC   C4A75425  13.910  18.240  18.184  0.1142  0.0587 -0.3573
55351DOPC   C1B75426  14.120  18.535  19.498  0.0668 -0.0727  0.2431
55351DOPC   D2B75427  14.134  18.777  19.093  0.2208 -0.0796 -0.0270
55351DOPC   C3B75428  14.170  18.735  18.620  0.1261 -0.2360 -0.1698
55351DOPC   C4B75429  14.347  18.510  18.295 -0.2643  0.0438 -0.3026
55352DOPC   NC375430  17.931  19.649  19.137 -0.0273 -0.2315  0.0650
55352DOPC   PO475431  17.469  19.472  19.170  0.1114 -0.0791  0.1547
55352DOPC   GL175432  17.322  19.827  18.932  0.0277 -0.2460 -0.4377
55352DOPC   GL275433  17.015  20.061  18.762 -0.0315 -0.1666  0.2670
55352DOPC   C1A75434  17.342  19.794  18.461 -0.4789  0.0185  0.1838
55352DOPC   D2A75435  17.105  19.914  18.281  0.0356  0.6079 -0.0388
55352DOPC   C3A75436  16.895  19.860  17.910  0.0744  0.2306 -0.1769
55352DOPC   C4A75437  16.738  20.073  17.471 -0.3952 -0.2549 -0.0632
55352DOPC   C1B75438  16.777  20.246  18.557  0.0964  0.0335 -0.1246
55352DOPC   D2B75439  16.562  20.291  18.185 -0.0527 -0.0778 -0.1195
55352DOPC   C3B75440  16.693  20.427  17.819  0.3973 -0.0901 -0.1319
55352DOPC   C4B75441  16.576  20.846  17.716  0.0305  0.0838  0.4402
55353DOPC   NC375442  29.604   0.446  11.002  0.1379  0.3852 -0.0165
55353DOPC   PO475443  29.454   0.704  10.635 -0.0046 -0.0728  0.1959
55353DOPC   GL175444  29.558   0.749  10.263  0.1810  0.2174 -0.1953
55353DOPC   GL275445  29.426   0.359  10.210 -0.1320  0.0540 -0.0860
55353DOPC   C1A75446  29.764   0.845   9.848  0.0092  0.0977  0.0371
55353DOPC   D2A75447  29.997   0.787   9.469  0.1456 -0.0527  0.3169
55353DOPC   C3A75448  29.977   0.780   9.048  0.1546  0.3018 -0.1469
55353DOPC   C4A75449  30.075   0.873   8.570 -0.2799  0.0809 -0.4420
55353DOPC   C1B75450  29.539   0.334   9.802 -0.1519  0.1308 -0.0972
55353DOPC   D2B75451  29.760   0.350   9.464 -0.1933 -0.3263  0.4423
55353DOPC   C3B75452  29.640   0.433   9.087 -0.1003 -0.0027  0.0579
55353DOPC   C4B75453  29.292   0.603   8.899 -0.0408 -0.0952  0.2883
55354DOPC   NC375454  20.651  17.382  16.794 -0.0490 -0.0773 -0.0796
55354DOPC   PO475455  20.351  17.356  17.060 -0.1471 -0.0249  0.2598
55354DOPC   GL175456  20.093  17.484  16.650 -0.0606 -0.1120  0.1093
55354DOPC   GL275457  20.375  17.399  16.381 -0.0280  0.2834  0.4361
55354DOPC   C1A75458  19.684  17.500  16.408 -0.1625  0.1903 -0.1501
55354DOPC   D2A75459  19.329  17.661  16.358 -0.1912  0.2277  0.1882
55354DOPC   C3A75460  19.011  17.597  16.582 -0.3148  0.1794  0.2744
55354DOPC   C4A75461  18.603  17.847  16.555  0.1805 -0.2710 -0.0051
55354DOPC   C1B75462  20.082  17.609  16.052  0.0305  0.0294  0.0331
55354DOPC   D2B75463  20.267  17.644  15.659  0.0352 -0.2124  0.0012
55354DOPC   C3B75464  19.989  17.538  15.377  0.2176  0.1674 -0.1061
55354DOPC   C4B75465  19.566  17.570  15.246  0.2658 -0.1072 -0.1713
55355DOPC   NC375466   0.017  18.516   7.059 -0.2235 -0.0988  0.0504
55355DOPC   PO475467   0.016  18.058   6.890  0.3835 -0.0085 -0.2653
55355DOPC   GL175468   0.005  18.432   6.511 -0.2523  0.1516  0.2007
55355DOPC   GL275469   0.239  18.676   6.669 -0.1039 -0.0252 -0.0838
55355DOPC   C1A75470   0.052  18.681   6.165  0.3448 -0.1183  0.2922
55355DOPC   D2A75471   0.181  18.787   5.830  0.1172  0.1526  0.2868
55355DOPC   C3A75472   0.395  18.880   5.452  0.3011 -0.1351 -0.0665
55355DOPC   C4A75473   0.801  18.913   5.394 -0.1846 -0.1655 -0.0654
55355DOPC   C1B75474   0.523  18.821   6.364  0.2627  0.1762 -0.2274
55355DOPC   D2B75475   0.630  18.796   5.992 -0.2947 -0.0974  0.2415
55355DOPC   C3B75476   0.998  18.978   5.899  0.0818 -0.0763 -0.2275
55355DOPC   C4B75477   1.413  18.946   5.721  0.1937 -0.0100 -0.0700
55356DOPC   NC375478   5.838   4.469  18.596 -0.1228 -0.2133 -0.0369
55356DOPC   PO475479   6.245   4.282  18.545  0.0077 -0.1300 -0.0392
55356DOPC   GL175480   6.355   4.139  18.099  0.3124  0.1785 -0.0508
55356DOPC   GL275481   6.225   3.856  17.983 -0.1502  0.2122 -0.4343
55356DOPC   C1A75482   6.738   4.193  17.895 -0.0111 -0.1863 -0.0278
55356DOPC   D2A75483   7.046   4.101  17.683 -0.0940  0.1448  0.0318
55356DOPC   C3A75484   6.917   4.242  17.304 -0.1986 -0.0436  0.1028
55356DOPC   C4A75485   6.689   4.156  16.961 -0.1429  0.0759  0.2480
55356DOPC   C1B75486   6.129   3.557  17.700 -0.0901  0.1304  0.5597
55356DOPC   D2B75487   5.964   3.190  17.556 -0.3022 -0.2052 -0.2151
55356DOPC   C3B75488   5.794   3.402  17.143  0.0435  0.1179  0.0491
55356DOPC   C4B75489   5.915   3.694  16.819 -0.0581  0.0188 -0.0339
55357DOPC   NC375490  26.586  22.608   7.045  0.0156  0.1002  0.2801
55357DOPC   PO475491  26.469  22.618   6.594 -0.0859  0.3255 -0.2671
55357DOPC   GL175492  26.320  22.737   6.304  0.1863 -0.0241  0.0355
55357DOPC   GL275493  26.054  22.869   6.309 -0.0536  0.2360  0.1853
55357DOPC   C1A75494  26.057  22.599   5.915 -0.4032  0.1458  0.1634
55357DOPC   D2A75495  26.240  22.658   5.509 -0.0391 -0.2507 -0.0065
55357DOPC   C3A75496  25.957  22.702   5.112 -0.0713  0.0399  0.1327
55357DOPC   C4A75497  25.716  22.611   4.809  0.0850  0.1063 -0.1662
55357DOPC   C1B75498  25.824  23.011   5.981 -0.0495  0.1487 -0.1383
55357DOPC   D2B75499  25.704  22.995   5.555  0.0159  0.0035 -0.0706
55357DOPC   C3B75500  25.508  23.393   5.283  0.0364 -0.2004 -0.1496
55357DOPC   C4B75501  25.250  23.672   5.034 -0.0902  0.1271 -0.0169
55358DOPC   NC375502  31.892  27.088   9.840 -0.1752 -0.1721  0.0438
55358DOPC   PO475503  31.809  27.429  10.158 -0.4147 -0.3295 -0.1553
55358DOPC   GL175504  31.560  27.437   9.735 -0.0081 -0.0378  0.0800
55358DOPC   GL275505  31.249  27.456   9.699 -0.1969  0.2592  0.0244
55358DOPC   C1A75506  31.781  27.338   9.281 -0.1897 -0.1343  0.1550
55358DOPC   D2A75507  31.760  27.239   8.842 -0.2204  0.2215  0.1094
55358DOPC   C3A75508  32.184  27.454   8.620 -0.1725 -0.0430 -0.0167
55358DOPC   C4A75509  32.288  27.523   8.387  0.1639 -0.3609 -0.3628
55358DOPC   C1B75510  31.641  27.789   9.371  0.1229  0.0615  0.0625
55358DOPC   D2B75511  31.913  27.730   8.950  0.1364 -0.4336 -0.1486
55358DOPC   C3B75512  32.064  28.065   8.735 -0.0542 -0.0609  0.2843
55358DOPC   C4B75513  32.185  28.408   8.518  0.0477 -0.0453 -0.0816
55359DOPC   NC375514   4.110  25.191  19.421  0.1285 -0.1585 -0.0188
55359DOPC   PO475515   4.499  25.146  19.724 -0.1957  0.1451 -0.3955
55359DOPC   GL175516   4.893  25.289  19.594 -0.2425 -0.2688  0.0499
55359DOPC   GL275517   5.084  25.108  19.344 -0.0144  0.0579 -0.1290
55359DOPC   C1A75518   5.406  25.396  19.649  0.0588  0.2187  0.2044
55359DOPC   D2A75519   5.736  25.649  19.634 -0.0500 -0.3647  0.3411
55359DOPC   C3A75520   5.813  25.385  19.346  0.1105 -0.0665  0.1258
55359DOPC   C4A75521   6.015  25.182  18.926 -0.1709  0.2686 -0.0704
55359DOPC   C1B75522   5.014  25.334  18.969 -0.1107  0.2207 -0.3778
55359DOPC   D2B75523   5.164  25.541  18.505 -0.0462  0.1289  0.2190
55359DOPC   C3B75524   5.451  25.869  18.360 -0.4866 -0.2846 -0.1107
55359DOPC   C4B75525   5.852  26.019  18.051  0.1911  0.2783  0.1749
55360DOPC   NC375526  11.179  21.341  21.782 -0.1770 -0.3521 -0.2341
55360DOPC   PO475527  11.436  21.652  22.086 -0.0180 -0.1686 -0.0499
55360DOPC   GL175528  11.347  21.822  21.627  0.1981 -0.1885 -0.0344
55360DOPC   GL275529  11.527  22.025  21.458 -0.1997 -0.1879 -0.3385
55360DOPC   C1A75530  11.220  21.751  21.232  0.2166  0.0916 -0.1784
55360DOPC   D2A75531  11.130  21.664  20.875  0.0771 -0.1472 -0.2726
55360DOPC   C3A75532  10.848  22.033  20.727  0.2725 -0.3848 -0.5440
55360DOPC   C4A75533  10.605  22.319  20.603 -0.3391 -0.0290  0.0098
55360DOPC   C1B75534  11.824  22.157  21.171  0.0897  0.0116  0.0826
55360DOPC   D2B75535  11.627  22.125  20.806  0.0468 -0.1149 -0.0679
55360DOPC   C3B75536  11.337  22.356  20.630  0.1140 -0.1624  0.2396
55360DOPC   C4B75537  11.038  22.369  20.254  0.1917  0.2338 -0.1619
55361DOPC   NC375538  23.130  26.577  12.611 -0.2309 -0.0697  0.1321
55361DOPC   PO475539  22.913  26.294  12.329  0.0144  0.0653 -0.3915
55361DOPC   GL175540  22.471  26.284  12.303  0.0647 -0.0406  0.1763
55361DOPC   GL275541  22.434  26.459  12.066 -0.1799  0.2848  0.0289
55361DOPC   C1A75542  22.179  26.038  11.997  0.0895 -0.0263  0.0711
55361DOPC   D2A75543  22.076  25.879  11.609 -0.0495 -0.0287  0.2074
55361DOPC   C3A75544  21.788  26.098  11.319  0.0458 -0.0120  0.0966
55361DOPC   C4A75545  21.487  26.357  11.398  0.1474 -0.3374  0.2875
55361DOPC   C1B75546  22.239  26.741  11.829 -0.1815 -0.0724 -0.0817
55361DOPC   D2B75547  22.068  26.868  11.443  0.3010  0.1408  0.0602
55361DOPC   C3B75548  21.953  26.513  11.169  0.0466 -0.4995 -0.0517
55361DOPC   C4B75549  21.817  26.262  10.781  0.0427 -0.2561  0.1488
55362DOPC   NC375550   8.020  21.755  21.506 -0.0284  0.4516  0.3021
55362DOPC   PO475551   7.900  21.567  21.202  0.2997  0.0288  0.3564
55362DOPC   GL175552   7.999  21.606  20.768 -0.3362 -0.0056 -0.0106
55362DOPC   GL275553   8.263  21.835  20.780  0.0663 -0.0996  0.0355
55362DOPC   C1A75554   8.419  21.375  20.728 -0.3700  0.0696  0.0085
55362DOPC   D2A75555   8.577  21.133  20.425 -0.0217  0.1542 -0.1722
55362DOPC   C3A75556   8.782  21.501  20.340 -0.0119 -0.0303 -0.0520
55362DOPC   C4A75557   8.751  21.882  20.156  0.0378 -0.0421  0.2677
55362DOPC   C1B75558   8.596  21.884  20.671  0.0898 -0.0518  0.0324
55362DOPC   D2B75559   9.025  22.001  20.606  0.0510 -0.2254  0.0684
55362DOPC   C3B75560   9.250  21.616  20.387 -0.1494 -0.1776 -0.1705
55362DOPC   C4B75561   9.540  21.418  20.296 -0.0926 -0.0059 -0.0328
55363DOPC   NC375562  10.227  15.524  18.367  0.1256 -0.1615  0.1578
55363DOPC   PO475563   9.719  15.580  18.408 -0.1684 -0.4378  0.2063
55363DOPC   GL175564   9.904  15.511  17.979 -0.0042 -0.2311 -0.0213
55363DOPC   GL275565   9.799  15.691  17.695  0.0674 -0.2963 -0.0070
55363DOPC   C1A75566  10.062  15.315  17.537  0.3415  0.1489 -0.3999
55363DOPC   D2A75567  10.121  15.282  17.124  0.1964 -0.3583 -0.0646
55363DOPC   C3A75568  10.047  15.224  16.682  0.0806  0.1818 -0.0110
55363DOPC   C4A75569   9.878  15.398  16.321 -0.1391  0.1295  0.5077
55363DOPC   C1B75570   9.815  15.722  17.228 -0.0943  0.2248  0.1798
55363DOPC   D2B75571   9.838  15.662  16.824  0.0830  0.0220  0.0562
55363DOPC   C3B75572  10.078  15.845  16.481  0.0162 -0.0880 -0.0026
55363DOPC   C4B75573  10.400  16.034  16.282 -0.1539 -0.1247  0.2007
55364DOPC   NC375574  28.325  26.575   8.323 -0.0399 -0.3331  0.0770
55364DOPC   PO475575  28.391  26.889   8.048 -0.3882  0.0044  0.0981
55364DOPC   GL175576  28.486  27.229   7.811 -0.0124  0.0361  0.0374
55364DOPC   GL275577  28.539  27.023   7.482 -0.3087 -0.0434  0.0836
55364DOPC   C1A75578  28.720  27.442   7.670 -0.1150  0.1855 -0.4443
55364DOPC   D2A75579  28.675  27.820   7.541  0.4186  0.0572  0.1547
55364DOPC   C3A75580  28.649  28.076   7.161 -0.1958 -0.0755 -0.3305
55364DOPC   C4A75581  28.479  28.444   7.025 -0.2891 -0.2654  0.0981
55364DOPC   C1B75582  28.566  27.254   7.164 -0.0002  0.0324 -0.1951
55364DOPC   D2B75583  28.816  27.527   7.105  0.1675  0.1919 -0.2671
55364DOPC   C3B75584  28.818  27.768   6.811 -0.0398 -0.2390  0.1266
55364DOPC   C4B75585  29.076  27.746   6.445  0.1658 -0.4359 -0.2483
55365DOPC   NC375586   4.979  32.041  19.664 -0.0236  0.1551  0.0310
55365DOPC   PO475587   5.352  32.010  19.468 -0.0185 -0.0763  0.0326
55365DOPC   GL175588   5.756  31.903  19.166  0.0385 -0.0825  0.1097
55365DOPC   GL275589   6.073  31.983  19.317 -0.1316 -0.2831 -0.0600
55365DOPC   C1A75590   5.945  31.499  19.028  0.0782  0.0071 -0.1256
55365DOPC   D2A75591   6.069  31.262  18.630 -0.1704 -0.0770  0.1466
55365DOPC   C3A75592   6.155  31.551  18.247  0.1385 -0.0236  0.1005
55365DOPC   C4A75593   6.245  31.985  18.208 -0.0538 -0.1844 -0.2520
55365DOPC   C1B75594   6.176  32.157  18.858 -0.2076 -0.1194 -0.1099
55365DOPC   D2B75595   6.269  32.395  18.462  0.1840 -0.1981  0.1775
55365DOPC   C3B75596   6.548  32.336  18.140  0.0406  0.0155 -0.0064
55365DOPC   C4B75597   6.863  31.917  17.992  0.0903  0.1359 -0.1668
55366DOPC   NC375598   6.878  33.841  20.401 -0.3144  0.0584 -0.0909
55366DOPC   PO475599   7.195  34.211  20.201  0.1171 -0.0993 -0.2898
55366DOPC   GL175600   7.269  34.258  19.805 -0.0177  0.0936 -0.0215
55366DOPC   GL275601   6.998  34.376  19.595  0.0913  0.0371 -0.1266
55366DOPC   C1A75602   7.482  34.399  19.470  0.1790 -0.0960 -0.3472
55366DOPC   D2A75603   7.831  34.409  19.341  0.1982 -0.1071 -0.0893
55366DOPC   C3A75604   8.092  34.124  19.203  0.1098 -0.3053  0.0728
55366DOPC   C4A75605   8.429  34.101  18.880  0.3702 -0.2628 -0.0084
55366DOPC   C1B75606   7.038  34.543  19.171 -0.0981 -0.3706  0.1039
55366DOPC   D2B75607   6.899  34.649  18.835 -0.0315  0.4409  0.0530
55366DOPC   C3B75608   6.493  34.421  18.768  0.4040  0.3321 -0.0573
55366DOPC   C4B75609   6.122  34.543  18.565  0.1882  0.0889 -0.0277
55367DOPC   NC375610  16.730  34.200  16.774  0.0208 -0.0663  0.0160
55367DOPC   PO475611  16.392  34.078  17.156 -0.1624 -0.1943 -0.0353
55367DOPC   GL175612  15.991  34.065  16.954 -0.1804  0.2023 -0.0037
55367DOPC   GL275613  15.813  33.969  17.165  0.1575 -0.2640  0.2134
55367DOPC   C1A75614  15.711  33.843  16.657 -0.1541  0.2135 -0.1882
55367DOPC   D2A75615  15.367  33.607  16.362  0.2031  0.4003 -0.3917
55367DOPC   C3A75616  15.412  33.294  16.010  0.1259 -0.0854  0.2653
55367DOPC   C4A75617  15.425  32.760  16.019 -0.0722  0.1317  0.0340
55367DOPC   C1B75618  15.569  34.184  17.219 -0.3662 -0.1260  0.0334
55367DOPC   D2B75619  15.083  34.178  17.301  0.1825 -0.0998  0.3326
55367DOPC   C3B75620  14.999  33.817  17.417  0.0256  0.0359 -0.0167
55367DOPC   C4B75621  14.995  33.352  17.279 -0.0946 -0.0594 -0.0201
55368DOPC   NC375622  24.590  22.552  10.586 -0.2027  0.1965 -0.0659
55368DOPC   PO475623  24.418  22.137  10.457  0.0355 -0.1945  0.4118
55368DOPC   GL175624  24.251  22.483  10.070 -0.0307  0.0665  0.1354
55368DOPC   GL275625  24.242  22.282   9.740  0.4180  0.1791 -0.2073
55368DOPC   C1A75626  24.057  22.798   9.854 -0.0388  0.0880 -0.1733
55368DOPC   D2A75627  23.738  23.192   9.608 -0.3339 -0.0369  0.0176
55368DOPC   C3A75628  23.305  23.102   9.447 -0.0150  0.0991 -0.1159
55368DOPC   C4A75629  23.010  23.075   9.292  0.2104  0.2132 -0.0373
55368DOPC   C1B75630  23.837  22.355   9.722 -0.0507 -0.1545  0.2208
55368DOPC   D2B75631  23.534  22.661   9.688  0.1929  0.0111  0.0561
55368DOPC   C3B75632  23.265  22.647   9.284  0.1167  0.0198  0.0976
55368DOPC   C4B75633  22.953  22.683   8.945  0.1967  0.1090 -0.2602
55369DOPC   NC375634   6.142  20.863  20.240 -0.0494 -0.2918 -0.1804
55369DOPC   PO475635   6.386  20.650  19.823  0.0683 -0.0465 -0.0231
55369DOPC   GL175636   6.715  20.473  19.562 -0.1750 -0.1100 -0.1502
55369DOPC   GL275637   6.771  20.650  19.401  0.2690  0.0318 -0.0297
55369DOPC   C1A75638   7.104  20.295  19.319  0.0830  0.1147  0.2070
55369DOPC   D2A75639   7.429  20.139  18.960 -0.0542 -0.0380  0.1504
55369DOPC   C3A75640   7.714  20.481  18.890 -0.2091 -0.1823 -0.0716
55369DOPC   C4A75641   8.116  20.597  18.693 -0.1466  0.2792 -0.0848
55369DOPC   C1B75642   6.876  20.693  18.997  0.0269 -0.0480 -0.2072
55369DOPC   D2B75643   7.327  20.710  18.995 -0.0685 -0.1172 -0.1593
55369DOPC   C3B75644   7.555  20.933  18.728  0.1627  0.0993  0.0612
55369DOPC   C4B75645   7.777  20.911  18.291 -0.0976 -0.3337  0.2777
55370DOPC   NC375646  23.959  22.366  11.648  0.1770  0.0871 -0.4189
55370DOPC   PO475647  24.108  21.899  11.535 -0.0017 -0.0323 -0.1633
55370DOPC   GL175648  23.722  21.937  11.637  0.0174 -0.3848 -0.1569
55370DOPC   GL275649  23.450  22.258  11.701  0.0282 -0.0492 -0.1163
55370DOPC   C1A75650  23.342  21.688  11.701  0.1920 -0.0512  0.2592
55370DOPC   D2A75651  23.016  21.406  11.906  0.0249  0.0615  0.1318
55370DOPC   C3A75652  22.701  21.508  12.164  0.0588  0.1985 -0.1689
55370DOPC   C4A75653  22.303  21.493  12.189  0.0286 -0.1199  0.1428
55370DOPC   C1B75654  23.068  22.013  11.464 -0.1962  0.1104 -0.1394
55370DOPC   D2B75655  22.706  21.978  11.297 -0.1309  0.2145 -0.0265
55370DOPC   C3B75656  22.601  22.020  10.941 -0.2527 -0.2447  0.1454
55370DOPC   C4B75657  22.471  21.715  10.564 -0.2439  0.1213  0.3660
55371DOPC   NC375658  20.605   7.176  16.299  0.0055  0.0929 -0.1911
55371DOPC   PO475659  21.057   7.217  16.271 -0.3708  0.1330 -0.0959
55371DOPC   GL175660  20.831   7.283  15.814  0.1130 -0.3187 -0.2894
55371DOPC   GL275661  20.992   7.619  15.728  0.3527  0.1095 -0.1526
55371DOPC   C1A75662  20.388   7.173  15.658  0.2407 -0.1054  0.2651
55371DOPC   D2A75663  20.071   7.297  15.508  0.1826  0.1070 -0.1439
55371DOPC   C3A75664  19.723   7.395  15.471  0.1526 -0.3377  0.0885
55371DOPC   C4A75665  19.357   7.464  15.336  0.2587  0.2704 -0.1758
55371DOPC   C1B75666  21.025   7.775  15.261  0.0698  0.4134  0.1388
55371DOPC   D2B75667  20.967   7.672  14.950 -0.6559 -0.0928  0.0358
55371DOPC   C3B75668  20.605   7.733  14.652  0.0998  0.0156 -0.0790
55371DOPC   C4B75669  20.355   7.898  14.324 -0.0163 -0.1719 -0.2230
55372DOPC   NC375670  21.929  24.514  14.766 -0.0986 -0.0647 -0.0020
55372DOPC   PO475671  22.073  24.740  14.448  0.0092  0.1885 -0.1168
55372DOPC   GL175672  21.913  24.383  14.228 -0.1041  0.0144 -0.0515
55372DOPC   GL275673  21.986  24.045  14.241  0.0581  0.0889 -0.3534
55372DOPC   C1A75674  21.605  24.113  13.976  0.1089 -0.1928  0.0542
55372DOPC   D2A75675  21.143  24.123  13.792  0.3999 -0.1820  0.1770
55372DOPC   C3A75676  20.730  23.836  13.757  0.0042 -0.1564 -0.3450
55372DOPC   C4A75677  20.682  23.403  13.682 -0.3808  0.1232 -0.1158
55372DOPC   C1B75678  21.619  24.060  14.454  0.1137  0.1083 -0.0398
55372DOPC   D2B75679  21.233  24.015  14.773  0.1044 -0.0702  0.0472
55372DOPC   C3B75680  20.838  23.951  14.832  0.1668 -0.0832  0.3995
55372DOPC   C4B75681  20.424  23.887  14.632 -0.0125 -0.0807  0.1190
55373DOPC   NC375682   4.735   7.844  16.791  0.1452 -0.0440 -0.3396
55373DOPC   PO475683   4.463   7.476  16.918  0.2923  0.1111  0.0962
55373DOPC   GL175684   4.760   7.416  16.420 -0.2177 -0.0116  0.1277
55373DOPC   GL275685   4.899   7.529  16.127 -0.0903  0.0857 -0.0522
55373DOPC   C1A75686   5.224   7.338  16.404  0.4252  0.2358  0.1838
55373DOPC   D2A75687   5.604   7.442  16.221 -0.0491  0.1410  0.1122
55373DOPC   C3A75688   5.546   7.181  15.951 -0.4277 -0.4074 -0.0433
55373DOPC   C4A75689   5.722   6.916  15.742 -0.2058  0.0904  0.0047
55373DOPC   C1B75690   5.109   7.282  15.739  0.0106  0.3553 -0.2647
55373DOPC   D2B75691   5.486   7.162  15.364  0.5708 -0.1751 -0.1382
55373DOPC   C3B75692   5.466   6.908  14.967 -0.0355  0.5480  0.0750
55373DOPC   C4B75693   5.472   6.967  14.602  0.1074  0.0566 -0.0583
55374DOPC   NC375694   5.685  31.583  19.639  0.1503 -0.1779  0.0648
55374DOPC   PO475695   5.591  31.148  19.726  0.0859 -0.0763  0.4552
55374DOPC   GL175696   5.896  31.176  19.391  0.1054 -0.0997 -0.2899
55374DOPC   GL275697   6.163  31.330  19.643 -0.2219 -0.2823 -0.2468
55374DOPC   C1A75698   5.967  30.918  19.069  0.1845  0.0337 -0.0195
55374DOPC   D2A75699   5.885  30.831  18.604  0.0802 -0.0166 -0.0908
55374DOPC   C3A75700   6.030  30.446  18.462  0.0303  0.3112  0.0614
55374DOPC   C4A75701   5.977  30.025  18.555 -0.0248  0.0260 -0.0953
55374DOPC   C1B75702   6.406  31.147  19.343  0.3121 -0.4454  0.0546
55374DOPC   D2B75703   6.496  31.091  18.999  0.0787  0.1479  0.2532
55374DOPC   C3B75704   6.368  30.737  18.697  0.1175  0.4668 -0.2170
55374DOPC   C4B75705   6.448  30.272  18.721  0.0612 -0.1103  0.2403
55375DOPC   NC375706  32.099  33.085  12.175 -0.1234 -0.1028  0.0077
55375DOPC   PO475707  32.049  32.836  11.865 -0.0340  0.3003  0.0911
55375DOPC   GL175708  31.934  32.617  11.486 -0.1309  0.2171 -0.0971
55375DOPC   GL275709  31.649  32.452  11.441 -0.1384  0.0150 -0.0397
55375DOPC   C1A75710  32.130  32.546  11.067 -0.2074 -0.0505 -0.0057
55375DOPC   D2A75711  32.409  32.604  10.813 -0.1666 -0.1904  0.0110
55375DOPC   C3A75712  32.389  32.747  10.428 -0.0291 -0.1593 -0.2641
55375DOPC   C4A75713  32.039  32.990  10.249  0.2410 -0.0079 -0.2266
55375DOPC   C1B75714  31.610  32.125  11.169 -0.0175  0.0425  0.0848
55375DOPC   D2B75715  31.640  31.912  10.763  0.3134 -0.1212  0.0105
55375DOPC   C3B75716  31.984  31.936  10.379 -0.0991 -0.1311 -0.5520
55375DOPC   C4B75717  32.341  32.093  10.373 -0.1235 -0.1942 -0.2489
55376DOPC   NC375718  24.443  24.548  10.428 -0.1343  0.1767  0.4518
55376DOPC   PO475719  24.557  24.476  10.005 -0.2586  0.1110 -0.0370
55376DOPC   GL175720  24.160  24.563   9.985  0.0001 -0.1239 -0.2597
55376DOPC   GL275721  24.014  24.410  10.212  0.0488  0.0540  0.0248
55376DOPC   C1A75722  23.733  24.586   9.864  0.0334  0.2184  0.1537
55376DOPC   D2A75723  23.544  24.866   9.542  0.0082  0.2549  0.0679
55376DOPC   C3A75724  23.279  25.090   9.626 -0.2215 -0.1214 -0.1645
55376DOPC   C4A75725  23.086  25.463   9.762  0.1781  0.0576 -0.2538
55376DOPC   C1B75726  23.573  24.516  10.305  0.0945 -0.0388  0.1816
55376DOPC   D2B75727  23.235  24.496  10.230 -0.0448  0.1548  0.2520
55376DOPC   C3B75728  22.992  24.640   9.961 -0.2261  0.1785  0.3576
55376DOPC   C4B75729  22.771  24.469   9.555  0.0464 -0.1423  0.2175
55377DOPC   NC375730  10.403  22.083  22.281 -0.1119 -0.0653 -0.0274
55377DOPC   PO475731  10.443  21.953  21.832 -0.1503 -0.0811  0.0778
55377DOPC   GL175732  10.739  21.748  21.499 -0.0238  0.4948  0.2843
55377DOPC   GL275733  10.892  22.061  21.492 -0.0698  0.0057 -0.0462
55377DOPC   C1A75734  10.638  21.612  21.018  0.1571 -0.0922 -0.0506
55377DOPC   D2A75735  10.346  21.891  20.792 -0.2505  0.0370  0.3735
55377DOPC   C3A75736  10.190  21.666  20.380 -0.2013 -0.0019  0.1999
55377DOPC   C4A75737  10.012  21.702  20.032 -0.0076 -0.3159 -0.0204
55377DOPC   C1B75738  10.495  22.204  21.193  0.0060  0.0014  0.2149
55377DOPC   D2B75739  10.124  22.313  20.879  0.1594  0.4737 -0.3417
55377DOPC   C3B75740  10.091  22.161  20.463 -0.1677  0.2315 -0.3924
55377DOPC   C4B75741  10.393  22.142  20.177 -0.2992 -0.3025 -0.3518
55378DOPC   NC375742  34.194   0.909  13.534 -0.1286 -0.1152 -0.1509
55378DOPC   PO475743  34.396   0.673  13.241 -0.1131 -0.0181  0.1207
55378DOPC   GL175744  34.726   0.700  13.003  0.1992 -0.2243 -0.0614
55378DOPC   GL275745  34.734   0.448  12.854 -0.1402 -0.1300  0.0446
55378DOPC   C1A75746  34.966   0.913  12.878  0.3686  0.1416 -0.0351
55378DOPC   D2A75747  35.251   0.983  12.519  0.1704 -0.0873 -0.2743
55378DOPC   C3A75748   0.186   0.802  12.281 -0.0825  0.0741 -0.2414
55378DOPC   C4A75749   0.261   0.413  11.952  0.0561  0.1760 -0.1407
55378DOPC   C1B75750  34.994   0.497  12.546 -0.0835  0.0855  0.0724
55378DOPC   D2B75751   0.001   0.291  12.347  0.0506 -0.1938 -0.0398
55378DOPC   C3B75752   0.229   0.110  12.504  0.2813 -0.0898 -0.1766
55378DOPC   C4B75753   0.291  35.161  12.669 -0.0399 -0.2123 -0.0142
55379DOPC   NC375754  19.299  11.118  17.225 -0.1487  0.0076 -0.2019
55379DOPC   PO475755  19.237  10.758  17.084  0.0788  0.4299 -0.2490
55379DOPC   GL175756  19.051  10.569  16.810  0.0594  0.3146  0.1022
55379DOPC   GL275757  19.092  10.526  16.527 -0.1630 -0.0552  0.1576
55379DOPC   C1A75758  18.693  10.231  16.641  0.2746  0.2518 -0.0450
55379DOPC   D2A75759  18.611   9.940  16.380  0.2753  0.1207 -0.0168
55379DOPC   C3A75760  18.399   9.716  15.997  0.1624  0.1501 -0.1713
55379DOPC   C4A75761  18.089   9.551  15.695 -0.1056 -0.2452 -0.0747
55379DOPC   C1B75762  18.904  10.264  16.172  0.1824 -0.3299  0.1030
55379DOPC   D2B75763  18.616  10.145  15.843  0.1885  0.1351 -0.1525
55379DOPC   C3B75764  18.697   9.803  15.565 -0.0118 -0.3056  0.0068
55379DOPC   C4B75765  18.754   9.527  15.197  0.1649  0.3192 -0.1671
55380DOPC   NC375766  22.292  21.216  15.300  0.0970 -0.2417 -0.0678
55380DOPC   PO475767  22.034  20.935  15.040  0.2051 -0.2093 -0.0932
55380DOPC   GL175768  21.698  21.078  14.772 -0.0824  0.1285  0.0416
55380DOPC   GL275769  21.712  21.363  14.673  0.0550 -0.1092  0.1484
55380DOPC   C1A75770  21.267  21.146  14.525 -0.2782 -0.0003 -0.1321
55380DOPC   D2A75771  20.935  21.129  14.212 -0.1424  0.1236  0.1846
55380DOPC   C3A75772  20.596  21.119  13.954  0.0789 -0.2069 -0.0142
55380DOPC   C4A75773  20.297  21.341  13.668 -0.1060  0.0785 -0.1607
55380DOPC   C1B75774  21.421  21.608  14.419 -0.3070  0.4092  0.0594
55380DOPC   D2B75775  20.985  21.587  14.408 -0.1027  0.1064  0.0706
55380DOPC   C3B75776  20.622  21.826  14.281 -0.0755 -0.0175  0.0006
55380DOPC   C4B75777  20.484  22.207  14.511 -0.0869  0.1128 -0.3340
55381DOPC   NC375778   9.654  23.258  21.681 -0.2322 -0.3836 -0.3055
55381DOPC   PO475779   9.232  23.469  21.619 -0.2415 -0.1308  0.1067
55381DOPC   GL175780   9.030  23.218  21.324  0.3518  0.1849  0.0462
55381DOPC   GL275781   9.241  23.016  21.408 -0.1418 -0.1590 -0.1826
55381DOPC   C1A75782   8.897  23.303  20.905  0.1284 -0.3233 -0.2023
55381DOPC   D2A75783   9.161  23.619  20.680 -0.0744  0.1734  0.0947
55381DOPC   C3A75784   9.320  23.665  20.321 -0.4573  0.3953 -0.1083
55381DOPC   C4A75785   9.475  23.633  19.918  0.0062  0.1222  0.0129
55381DOPC   C1B75786   9.452  23.240  21.055  0.5342 -0.1910 -0.0111
55381DOPC   D2B75787   9.571  23.351  20.653 -0.0896  0.0688 -0.0915
55381DOPC   C3B75788   9.681  23.300  20.285  0.0320  0.0949 -0.0270
55381DOPC   C4B75789   9.912  23.410  20.020 -0.2214 -0.2918 -0.4460
55382DOPC   NC375790  12.056  11.201  19.105 -0.2060 -0.2177 -0.0532
55382DOPC   PO475791  11.921  11.484  18.733  0.0147  0.2033 -0.0601
55382DOPC   GL175792  12.320  11.327  18.437 -0.5109  0.1313 -0.1795
55382DOPC   GL275793  12.301  11.070  18.517  0.3434  0.0026 -0.0172
55382DOPC   C1A75794  12.761  11.395  18.157  0.1343 -0.1686 -0.0069
55382DOPC   D2A75795  13.032  11.611  17.919 -0.2052 -0.0542  0.3023
55382DOPC   C3A75796  13.066  11.685  17.470 -0.0746  0.2865  0.0118
55382DOPC   C4A75797  13.107  11.713  17.099 -0.1095 -0.1097 -0.2415
55382DOPC   C1B75798  12.531  10.948  18.161 -0.0315 -0.0315  0.0665
55382DOPC   D2B75799  12.663  10.707  17.758  0.0839 -0.0041 -0.1818
55382DOPC   C3B75800  12.372  10.527  17.549  0.0262  0.0168  0.0469
55382DOPC   C4B75801  11.904  10.382  17.506  0.2025 -0.0497 -0.0661
55383DOPC   NC375802  32.233   9.922   7.633  0.0988  0.1204 -0.0689
55383DOPC   PO475803  31.995   9.861   7.242  0.1590  0.0057 -0.0633
55383DOPC   GL175804  32.307   9.791   6.950  0.3167  0.1284 -0.1860
55383DOPC   GL275805  32.509   9.972   7.057 -0.0868 -0.1608 -0.1764
55383DOPC   C1A75806  32.504   9.498   6.814  0.1229  0.2141 -0.0122
55383DOPC   D2A75807  32.526   9.145   6.556 -0.0139 -0.1033  0.0433
55383DOPC   C3A75808  32.787   8.795   6.642  0.4528 -0.1178 -0.3045
55383DOPC   C4A75809  33.057   8.432   6.703  0.0460  0.1498 -0.0605
55383DOPC   C1B75810  32.881   9.869   6.853 -0.1357  0.1688  0.0260
55383DOPC   D2B75811  33.197   9.503   6.701 -0.5046 -0.0399 -0.1656
55383DOPC   C3B75812  33.462   9.469   6.401  0.1599  0.0574  0.1225
55383DOPC   C4B75813  33.661   9.194   6.255 -0.2320  0.1291 -0.2251
55384DOPC   NC375814  23.934   1.853  12.735 -0.0851 -0.3940 -0.2639
55384DOPC   PO475815  23.941   1.742  12.370  0.1269 -0.2179 -0.2467
55384DOPC   GL175816  23.735   1.855  11.922 -0.3613 -0.1734 -0.0044
55384DOPC   GL275817  23.626   1.557  11.669  0.0160 -0.1560 -0.0687
55384DOPC   C1A75818  23.598   2.134  11.617 -0.0263  0.0665 -0.1424
55384DOPC   D2A75819  23.221   2.336  11.592  0.1391  0.2108  0.3212
55384DOPC   C3A75820  22.886   2.455  11.229 -0.3970 -0.3841  0.1373
55384DOPC   C4A75821  22.836   2.797  10.993 -0.0139 -0.1215 -0.2880
55384DOPC   C1B75822  23.543   1.723  11.312  0.4946  0.2172  0.1396
55384DOPC   D2B75823  23.336   1.831  10.982 -0.2851  0.3648 -0.0824
55384DOPC   C3B75824  22.975   1.584  10.764 -0.0218 -0.1485  0.0019
55384DOPC   C4B75825  22.452   1.691  10.691 -0.0322 -0.1185  0.0206
55385DOPC   NC375826   0.985   9.919  11.750  0.3209  0.1770  0.0692
55385DOPC   PO475827   1.324  10.064  11.935  0.2200 -0.7111  0.1025
55385DOPC   GL175828   1.486   9.983  11.601 -0.0017  0.3734 -0.0179
55385DOPC   GL275829   1.229   9.983  11.332  0.2520  0.0900 -0.0344
55385DOPC   C1A75830   1.737  10.126  11.333 -0.0243 -0.1361  0.1652
55385DOPC   D2A75831   1.927  10.333  11.065 -0.4552  0.1218  0.0514
55385DOPC   C3A75832   2.338  10.427  11.024  0.0476 -0.3379 -0.0592
55385DOPC   C4A75833   2.671  10.281  10.650  0.1138  0.1195 -0.0766
55385DOPC   C1B75834   1.470   9.915  10.942 -0.0011 -0.1074 -0.1365
55385DOPC   D2B75835   1.952   9.835  10.963  0.1140 -0.2872 -0.1190
55385DOPC   C3B75836   2.258   9.912  10.660 -0.1698  0.0459  0.1972
55385DOPC   C4B75837   2.246  10.035  10.281  0.1708  0.1424 -0.1503
55386DOPC   NC375838   8.425  19.507  20.513  0.0792  0.0278 -0.2466
55386DOPC   PO475839   8.123  19.801  20.381 -0.0947  0.0929 -0.2577
55386DOPC   GL175840   8.176  19.649  19.976 -0.0997 -0.1155  0.2514
55386DOPC   GL275841   8.400  19.530  20.002 -0.0771  0.0129 -0.0117
55386DOPC   C1A75842   7.872  19.883  19.650  0.1940  0.0905  0.2304
55386DOPC   D2A75843   7.832  20.185  19.301 -0.1158  0.1006 -0.0269
55386DOPC   C3A75844   8.176  20.398  19.259 -0.0736  0.1703 -0.0337
55386DOPC   C4A75845   8.595  20.497  19.076  0.2006 -0.1270  0.1530
55386DOPC   C1B75846   8.719  19.833  19.755 -0.0785 -0.3463 -0.0697
55386DOPC   D2B75847   8.957  19.922  19.420  0.0407 -0.0028 -0.1899
55386DOPC   C3B75848   9.028  20.284  19.227 -0.0452 -0.2228  0.1938
55386DOPC   C4B75849   9.178  20.651  19.118 -0.1328  0.0113  0.0631
55387DOPC   NC375850  16.262  18.088  19.176  0.3492  0.0398 -0.0684
55387DOPC   PO475851  16.121  17.679  18.986  0.0924  0.0224  0.0370
55387DOPC   GL175852  16.160  17.893  18.653 -0.1742 -0.1536  0.1480
55387DOPC   GL275853  16.393  17.750  18.433 -0.1292  0.2959 -0.0303
55387DOPC   C1A75854  16.211  18.249  18.357  0.1482 -0.0370 -0.0575
55387DOPC   D2A75855  16.269  18.664  18.357 -0.2214  0.1454 -0.2724
55387DOPC   C3A75856  16.163  18.860  17.952 -0.1653 -0.1522 -0.2291
55387DOPC   C4A75857  15.988  18.989  17.589  0.1482  0.4772  0.0956
55387DOPC   C1B75858  16.367  17.956  18.016 -0.1060  0.2573  0.1396
55387DOPC   D2B75859  16.188  18.117  17.672 -0.0087  0.1727 -0.3089
55387DOPC   C3B75860  15.950  18.473  17.786 -0.0851  0.4858  0.1122
55387DOPC   C4B75861  15.685  18.582  17.530 -0.0424 -0.0029 -0.0157
55388DOPC   NC375862  35.372  23.916  10.652  0.1303 -0.1403 -0.1916
55388DOPC   PO475863   0.235  23.611  10.942  0.1597 -0.1436  0.3037
55388DOPC   GL175864   0.553  23.896  10.810  0.0756 -0.1432 -0.2751
55388DOPC   GL275865   0.544  23.895  10.405 -0.1061  0.0240  0.0923
55388DOPC   C1A75866   0.862  24.218  10.798  0.2368  0.0624 -0.2612
55388DOPC   D2A75867   1.096  24.562  10.903  0.0522 -0.1236 -0.4342
55388DOPC   C3A75868   1.438  24.858  10.963  0.0336 -0.2415  0.0293
55388DOPC   C4A75869   1.765  25.127  10.990  0.0085  0.1340  0.0504
55388DOPC   C1B75870   0.811  24.095  10.301  0.2148 -0.1543  0.0561
55388DOPC   D2B75871   1.195  24.331  10.220  0.3674 -0.1244 -0.0504
55388DOPC   C3B75872   1.374  24.684  10.486 -0.1561 -0.2117  0.3789
55388DOPC   C4B75873   1.483  25.080  10.515  0.2059  0.0511  0.1184
55389DOPC   NC375874   2.448   2.175  16.291 -0.3512 -0.2663 -0.0257
55389DOPC   PO475875   2.570   2.326  15.863  0.2658  0.1910 -0.1018
55389DOPC   GL175876   2.872   2.137  15.672 -0.0953  0.1921 -0.2918
55389DOPC   GL275877   2.916   1.759  15.712  0.2323 -0.0764 -0.1899
55389DOPC   C1A75878   3.037   2.077  15.191  0.0215 -0.0943 -0.0384
55389DOPC   D2A75879   3.137   2.296  14.881  0.2716  0.0685 -0.0944
55389DOPC   C3A75880   3.427   2.107  14.631  0.2784  0.3958 -0.0771
55389DOPC   C4A75881   3.605   1.882  14.233 -0.0045  0.0885  0.0799
55389DOPC   C1B75882   3.169   1.551  15.315  0.4325 -0.1763  0.2429
55389DOPC   D2B75883   3.430   1.338  15.029 -0.0088  0.3077 -0.0035
55389DOPC   C3B75884   3.273   1.221  14.656  0.0106  0.1751 -0.0714
55389DOPC   C4B75885   3.145   1.094  14.259 -0.2260  0.1718  0.1622
55390DOPC   NC375886  27.605  14.657   4.990  0.1574  0.3343  0.0550
55390DOPC   PO475887  27.520  14.862   4.569  0.2718  0.1586 -0.2376
55390DOPC   GL175888  27.524  14.571   4.274 -0.2987  0.0939 -0.0391
55390DOPC   GL275889  27.249  14.672   4.101  0.2993  0.0322  0.0417
55390DOPC   C1A75890  27.470  14.226   4.027  0.3528 -0.0288 -0.1978
55390DOPC   D2A75891  27.430  14.010   3.746 -0.1987 -0.0953 -0.1324
55390DOPC   C3A75892  27.735  13.878   3.559  0.0795  0.0898 -0.3349
55390DOPC   C4A75893  28.011  14.076   3.732 -0.1399 -0.0457 -0.2730
55390DOPC   C1B75894  27.119  14.550   3.640  0.1919  0.2046  0.0553
55390DOPC   D2B75895  27.020  14.147   3.402  0.1130  0.3493  0.1664
55390DOPC   C3B75896  26.653  14.048   3.137  0.2348 -0.1347  0.0018
55390DOPC   C4B75897  26.489  14.223   2.737 -0.2817 -0.0558 -0.2584
55391DOPC   NC375898  10.713  27.334  21.917 -0.3593 -0.1388 -0.1078
55391DOPC   PO475899  11.026  27.153  22.220 -0.2788  0.0239 -0.0717
55391DOPC   GL175900  10.996  26.897  21.884  0.1495  0.2219 -0.0452
55391DOPC   GL275901  10.836  26.631  21.749 -0.0577 -0.2982 -0.0839
55391DOPC   C1A75902  11.212  26.886  21.451 -0.2989 -0.1958 -0.1385
55391DOPC   D2A75903  11.095  26.786  21.069 -0.2113  0.1166  0.0115
55391DOPC   C3A75904  11.436  26.552  20.844 -0.0243 -0.2100  0.1777
55391DOPC   C4A75905  11.630  26.133  20.919  0.0921 -0.0135  0.0111
55391DOPC   C1B75906  11.150  26.405  21.637  0.0285  0.2431  0.2075
55391DOPC   D2B75907  11.544  26.457  21.335 -0.0384 -0.2467  0.0572
55391DOPC   C3B75908  11.755  26.811  21.256 -0.0596  0.4226  0.2889
55391DOPC   C4B75909  11.781  27.139  21.436 -0.1301 -0.1178 -0.0459
55392DOPC   NC375910  10.719  17.511  19.687  0.1219  0.2697 -0.0342
55392DOPC   PO475911  11.102  17.596  19.664  0.1191  0.2912  0.3146
55392DOPC   GL175912  11.421  17.922  19.565 -0.2127  0.2244 -0.1242
55392DOPC   GL275913  11.638  17.764  19.305  0.2665 -0.1066 -0.2178
55392DOPC   C1A75914  11.611  18.386  19.492  0.2563 -0.0609 -0.0911
55392DOPC   D2A75915  11.933  18.572  19.206 -0.1578 -0.3337 -0.1307
55392DOPC   C3A75916  12.087  18.661  18.716  0.1717  0.2083  0.2750
55392DOPC   C4A75917  12.169  18.948  18.482  0.2235  0.1427 -0.0820
55392DOPC   C1B75918  11.975  18.000  19.257 -0.0405 -0.3274  0.2103
55392DOPC   D2B75919  12.402  17.982  19.157  0.3016  0.2751  0.0592
55392DOPC   C3B75920  12.421  17.842  18.788 -0.0254 -0.1738  0.1793
55392DOPC   C4B75921  12.240  17.988  18.381  0.2273 -0.0926 -0.0025
55393DOPC   NC375922  33.974   3.384  12.486  0.1654  0.1190 -0.4579
55393DOPC   PO475923  33.968   2.927  12.331  0.0006  0.0165  0.0481
55393DOPC   GL175924  34.040   2.947  11.940  0.0356 -0.2437 -0.1325
55393DOPC   GL275925  34.189   3.168  11.925  0.4547  0.0705 -0.0008
55393DOPC   C1A75926  34.059   2.511  11.703 -0.0970  0.1693 -0.0465
55393DOPC   D2A75927  34.184   2.125  11.712 -0.2814  0.3956  0.0915
55393DOPC   C3A75928  34.552   2.002  11.520  0.0309 -0.1252  0.0568
55393DOPC   C4A75929  34.645   2.038  11.139  0.2375  0.3580 -0.0206
55393DOPC   C1B75930  34.353   2.860  11.568  0.1253 -0.0705 -0.1205
55393DOPC   D2B75931  34.484   2.504  11.332 -0.1122 -0.2167  0.0989
55393DOPC   C3B75932  34.599   2.492  10.919 -0.1092  0.1126 -0.2388
55393DOPC   C4B75933  34.967   2.415  10.598  0.1359  0.2485  0.0356
55394DOPC   NC375934  34.094  32.260  13.207  0.2567 -0.0990  0.1342
55394DOPC   PO475935  34.199  32.439  13.566 -0.1523  0.1834  0.2054
55394DOPC   GL175936  34.546  32.618  13.337  0.2880 -0.2125 -0.0183
55394DOPC   GL275937  34.406  32.577  13.000  0.1119  0.2094  0.6434
55394DOPC   C1A75938  34.958  32.468  13.137  0.0381  0.1755  0.0917
55394DOPC   D2A75939  35.368  32.406  12.941  0.0407  0.1492  0.1220
55394DOPC   C3A75940   0.308  32.741  12.749  0.3462 -0.0044  0.0210
55394DOPC   C4A75941   0.703  32.667  12.503 -0.1717 -0.1949  0.0106
55394DOPC   C1B75942  34.644  32.305  12.779  0.1709  0.1913 -0.0403
55394DOPC   D2B75943  34.918  32.496  12.642  0.0255 -0.1126 -0.0471
55394DOPC   C3B75944  35.330  32.385  12.437  0.1848 -0.1216  0.1905
55394DOPC   C4B75945   0.258  32.317  12.162 -0.2467  0.0053  0.0901
55395DOPC   NC375946  23.655   7.505  14.124 -0.1202 -0.1939  0.1699
55395DOPC   PO475947  23.273   7.504  13.851  0.1878  0.3597  0.0488
55395DOPC   GL175948  23.113   7.903  13.616 -0.3108 -0.1225 -0.2879
55395DOPC   GL275949  23.269   8.253  13.480 -0.1018 -0.0793  0.0306
55395DOPC   C1A75950  22.754   8.084  13.465  0.0021 -0.1075  0.0436
55395DOPC   D2A75951  22.525   8.270  13.195  0.0299  0.0852 -0.1464
55395DOPC   C3A75952  22.159   8.204  13.067  0.2463  0.0922 -0.2897
55395DOPC   C4A75953  21.895   8.088  12.821 -0.1356 -0.1331  0.3930
55395DOPC   C1B75954  23.127   8.064  13.104  0.2763  0.3067 -0.0136
55395DOPC   D2B75955  22.825   7.857  12.910 -0.2355 -0.0083  0.1044
55395DOPC   C3B75956  22.474   8.046  12.721 -0.1803  0.0776 -0.0794
55395DOPC   C4B75957  22.227   7.972  12.421  0.2406  0.0945 -0.3482
55396DOPC   NC375958  29.461  32.091  10.465  0.1054  0.1770  0.0766
55396DOPC   PO475959  29.714  32.288  10.450  0.0710 -0.0315  0.1561
55396DOPC   GL175960  30.036  32.266  10.339  0.0707 -0.1086 -0.1599
55396DOPC   GL275961  30.328  32.435  10.566  0.1925  0.1979  0.2054
55396DOPC   C1A75962  30.328  32.073  10.030 -0.1257 -0.3870  0.0617
55396DOPC   D2A75963  30.449  31.935   9.681  0.0155  0.0704 -0.2969
55396DOPC   C3A75964  30.729  32.108   9.475  0.2129  0.0425  0.0152
55396DOPC   C4A75965  30.726  32.194   9.003 -0.3614  0.0162 -0.2157
55396DOPC   C1B75966  30.646  32.700  10.621  0.1032  0.3801 -0.3402
55396DOPC   D2B75967  31.064  32.708  10.589 -0.0426  0.1646  0.0263
55396DOPC   C3B75968  31.268  32.632  10.202 -0.2529 -0.0236  0.2436
55396DOPC   C4B75969  31.487  32.509   9.816  0.3825  0.0877  0.0279
55397DOPC   NC375970  18.479  31.167  17.372 -0.1823  0.1567 -0.0538
55397DOPC   PO475971  18.065  31.165  17.082 -0.2195  0.0956  0.1418
55397DOPC   GL175972  17.663  30.922  17.039  0.1262  0.1849 -0.1775
55397DOPC   GL275973  17.300  31.003  17.045  0.2646 -0.4574  0.1137
55397DOPC   C1A75974  17.396  30.784  16.601  0.0200 -0.0375  0.1916
55397DOPC   D2A75975  17.477  30.620  16.196 -0.0714  0.0133 -0.2718
55397DOPC   C3A75976  17.357  30.170  16.053  0.0589  0.1507  0.0972
55397DOPC   C4A75977  17.293  29.750  16.054  0.2662 -0.4079 -0.0768
55397DOPC   C1B75978  16.910  30.816  16.864  0.1506 -0.3748 -0.0264
55397DOPC   D2B75979  16.665  30.637  16.558  0.0928  0.3632  0.2180
55397DOPC   C3B75980  16.240  30.615  16.770  0.1159 -0.0392 -0.0776
55397DOPC   C4B75981  15.884  30.380  16.937  0.0827  0.2564 -0.0788
55398DOPC   NC375982  18.393  10.053  18.013  0.0499 -0.0583  0.1439
55398DOPC   PO475983  18.687  10.090  17.720  0.0074 -0.1813  0.2325
55398DOPC   GL175984  18.424  10.311  17.349  0.2735  0.1068  0.1557
55398DOPC   GL275985  18.572  10.508  17.056 -0.0908  0.1124 -0.0726
55398DOPC   C1A75986  18.059  10.139  17.161  0.2716 -0.1761 -0.1040
55398DOPC   D2A75987  17.680  10.002  17.306  0.2405  0.1369  0.0109
55398DOPC   C3A75988  17.363   9.990  17.021  0.1134  0.1632 -0.0792
55398DOPC   C4A75989  17.173   9.603  16.993 -0.0209 -0.0884  0.1735
55398DOPC   C1B75990  18.202  10.395  16.707 -0.4480 -0.2115 -0.0265
55398DOPC   D2B75991  17.799  10.139  16.647 -0.3051 -0.1842 -0.0302
55398DOPC   C3B75992  17.547  10.203  16.339 -0.0630 -0.1073  0.1891
55398DOPC   C4B75993  17.250  10.098  16.214 -0.0629 -0.1901 -0.1024
55399DOPC   NC375994  33.814  16.830   5.451 -0.1864 -0.0551 -0.1033
55399DOPC   PO475995  34.110  16.650   5.666  0.2360  0.0571  0.1743
55399DOPC   GL175996  34.298  16.653   5.382  0.0258 -0.1946  0.2372
55399DOPC   GL275997  34.454  16.373   5.498 -0.4876  0.2216 -0.0878
55399DOPC   C1A75998  34.400  16.699   5.036 -0.1273  0.0946 -0.1226
55399DOPC   D2A75999  34.675  16.646   4.709  0.1744  0.5035 -0.2704
55399DOPC   C3A76000  34.805  16.982   4.475  0.0146  0.2986 -0.0911
55399DOPC   C4A76001  34.815  17.051   4.002  0.1455 -0.0663  0.1395
55399DOPC   C1B76002  34.620  16.218   5.082  0.1920 -0.2155  0.2087
55399DOPC   D2B76003  34.918  16.158   4.734 -0.1920 -0.1965 -0.1896
55399DOPC   C3B76004  34.867  16.431   4.343  0.0007  0.1152 -0.0744
55399DOPC   C4B76005  34.735  16.544   3.946 -0.1541 -0.1244 -0.0186
55400DOPC   NC376006   2.037  16.028  11.505 -0.3267 -0.0860  0.0623
55400DOPC   PO476007   2.133  15.526  11.421  0.0254  0.0415 -0.0332
55400DOPC   GL176008   2.417  15.455  11.593 -0.0730  0.2256  0.1159
55400DOPC   GL276009   2.557  15.265  11.305  0.2147 -0.0003  0.1071
55400DOPC   C1A76010   2.853  15.616  11.708 -0.0084 -0.1295 -0.0409
55400DOPC   D2A76011   3.262  15.506  11.720  0.1667  0.0161  0.1562
55400DOPC   C3A76012   3.594  15.716  11.796  0.1071 -0.2560  0.2877
55400DOPC   C4A76013   3.918  15.962  11.986  0.2440  0.0747 -0.1626
55400DOPC   C1B76014   2.922  15.352  11.137 -0.4027  0.2401 -0.1543
55400DOPC   D2B76015   3.190  15.295  10.953 -0.2627 -0.0307 -0.1078
55400DOPC   C3B76016   3.561  15.099  10.686  0.0055 -0.3174  0.1033
55400DOPC   C4B76017   3.623  14.567  10.548  0.1420  0.0817  0.3569
55401DOPC   NC376018  22.928  18.143  13.598  0.2399 -0.1969  0.0098
55401DOPC   PO476019  22.914  17.864  13.298 -0.1359 -0.0602  0.0687
55401DOPC   GL176020  22.549  17.652  13.066 -0.0425  0.2823 -0.1137
55401DOPC   GL276021  22.639  17.771  12.838  0.1917  0.0855 -0.2420
55401DOPC   C1A76022  22.333  17.352  12.806  0.1038  0.3206 -0.1573
55401DOPC   D2A76023  22.152  17.256  12.391 -0.1756 -0.1794  0.1643
55401DOPC   C3A76024  21.761  17.092  12.312  0.0605  0.3608 -0.0724
55401DOPC   C4A76025  21.651  16.831  11.953  0.1203  0.3216 -0.1773
55401DOPC   C1B76026  22.348  18.119  12.645 -0.1017 -0.1900  0.0555
55401DOPC   D2B76027  21.917  18.101  12.391  0.1453  0.2388  0.1277
55401DOPC   C3B76028  21.817  18.378  12.065  0.1177  0.2206  0.1811
55401DOPC   C4B76029  21.577  18.368  11.660 -0.2149  0.0694 -0.3549
55402DOPC   NC376030   5.191  21.795  19.133  0.0629  0.3422  0.0044
55402DOPC   PO476031   5.580  21.680  19.321  0.0599 -0.0061 -0.0501
55402DOPC   GL176032   5.475  21.308  18.966  0.0222 -0.0337  0.0812
55402DOPC   GL276033   5.341  21.484  18.719 -0.0393 -0.4224  0.3618
55402DOPC   C1A76034   5.707  21.042  18.591 -0.2164 -0.0371 -0.2586
55402DOPC   D2A76035   6.012  20.939  18.273  0.1582  0.1969 -0.0476
55402DOPC   C3A76036   6.368  21.118  18.086  0.0457  0.0243  0.1619
55402DOPC   C4A76037   6.805  20.933  18.206 -0.0832  0.0750  0.1513
55402DOPC   C1B76038   5.724  21.736  18.683 -0.1937  0.1406  0.0672
55402DOPC   D2B76039   6.008  21.891  18.329  0.2089 -0.0733  0.0421
55402DOPC   C3B76040   5.974  22.186  18.040 -0.4886 -0.1362 -0.1506
55402DOPC   C4B76041   6.147  22.517  17.825  0.2639  0.3721  0.1825
55403DOPC   NC376042  23.534  16.148  12.877  0.2053  0.1332  0.3307
55403DOPC   PO476043  23.154  16.316  12.700  0.0044  0.1963 -0.0628
55403DOPC   GL176044  22.761  16.605  12.567 -0.3066 -0.0059  0.0017
55403DOPC   GL276045  22.858  16.572  12.372  0.1097  0.1909  0.0813
55403DOPC   C1A76046  22.291  16.648  12.399  0.0386  0.3024 -0.1598
55403DOPC   D2A76047  21.991  16.623  12.235 -0.1875  0.2587  0.1654
55403DOPC   C3A76048  21.629  16.446  12.375 -0.1321 -0.0594 -0.1364
55403DOPC   C4A76049  21.551  16.369  12.802 -0.0212  0.2268 -0.2515
55403DOPC   C1B76050  22.616  16.283  12.195 -0.0232 -0.0691 -0.1457
55403DOPC   D2B76051  22.309  15.918  12.131  0.0247  0.0492  0.1299
55403DOPC   C3B76052  22.069  15.843  11.755 -0.1485 -0.0055 -0.2007
55403DOPC   C4B76053  21.787  15.737  11.350 -0.3688  0.0857 -0.1270
55404DOPC   NC376054  23.901   5.166  13.232  0.1764 -0.4346 -0.2391
55404DOPC   PO476055  23.956   5.501  12.859  0.0927  0.2165  0.0054
55404DOPC   GL176056  23.947   5.343  12.474  0.3979  0.2435 -0.0068
55404DOPC   GL276057  23.910   5.573  12.173 -0.1058  0.1940  0.2731
55404DOPC   C1A76058  23.752   5.064  12.079  0.1762 -0.3180  0.1156
55404DOPC   D2A76059  23.550   4.837  11.753  0.3769  0.0472  0.1682
55404DOPC   C3A76060  23.220   5.027  11.628  0.1198  0.0820 -0.2402
55404DOPC   C4A76061  23.221   5.502  11.605 -0.1624  0.0302 -0.1247
55404DOPC   C1B76062  23.619   5.640  11.982  0.2841 -0.2577 -0.0182
55404DOPC   D2B76063  23.359   5.899  11.973 -0.0203 -0.0761  0.1666
55404DOPC   C3B76064  23.013   5.849  12.099 -0.3423  0.1679  0.0776
55404DOPC   C4B76065  22.634   5.651  12.233  0.0467 -0.3117 -0.0114
55405DOPC   NC376066  25.161  28.850  10.153  0.1230 -0.1288  0.1407
55405DOPC   PO476067  24.790  29.135   9.978 -0.2079  0.0823 -0.0510
55405DOPC   GL176068  24.622  29.398   9.548  0.3669  0.3060  0.3224
55405DOPC   GL276069  24.525  29.723   9.543 -0.0290 -0.0988 -0.1272
55405DOPC   C1A76070  24.224  29.303   9.309  0.1596  0.3077 -0.0505
55405DOPC   D2A76071  24.123  29.416   8.947  0.0940 -0.4085  0.2227
55405DOPC   C3A76072  24.212  29.084   8.640 -0.1596  0.2031 -0.1828
55405DOPC   C4A76073  24.318  28.676   8.631  0.0894  0.1819  0.0564
55405DOPC   C1B76074  24.668  29.716   9.185 -0.1611 -0.0791  0.3002
55405DOPC   D2B76075  25.028  29.671   8.905 -0.1481 -0.1201 -0.2699
55405DOPC   C3B76076  24.882  29.819   8.540  0.1055 -0.1498  0.0830
55405DOPC   C4B76077  24.498  29.912   8.390 -0.1488 -0.0003 -0.0115
55406DOPC   NC376078  16.117   6.656  17.737  0.0684 -0.4323 -0.0331
55406DOPC   PO476079  15.745   6.641  17.571  0.4320  0.2205 -0.0360
55406DOPC   GL176080  15.962   6.816  17.228  0.0984 -0.0964  0.1883
55406DOPC   GL276081  16.132   7.051  17.402  0.0270  0.1851  0.2547
55406DOPC   C1A76082  15.939   7.056  16.932  0.1581 -0.0854 -0.1380
55406DOPC   D2A76083  15.960   7.019  16.532 -0.0742 -0.1498 -0.0611
55406DOPC   C3A76084  15.760   7.225  16.284  0.3017  0.1340  0.1273
55406DOPC   C4A76085  15.648   7.481  15.963  0.0689 -0.0737 -0.0190
55406DOPC   C1B76086  16.006   7.487  17.239 -0.2056 -0.0359  0.2070
55406DOPC   D2B76087  16.124   7.905  16.965 -0.0957  0.3717  0.0050
55406DOPC   C3B76088  15.912   8.050  16.678  0.3306 -0.1391  0.0758
55406DOPC   C4B76089  15.710   7.870  16.368 -0.1316 -0.3345 -0.0208
55407DOPC   NC376090  27.704  29.987  10.087 -0.0278 -0.1085  0.0282
55407DOPC   PO476091  27.464  30.390  10.110  0.0304  0.2686  0.0673
55407DOPC   GL176092  27.448  30.339   9.666  0.1862  0.1079 -0.1024
55407DOPC   GL276093  27.211  30.295   9.519 -0.0981  0.3190  0.0408
55407DOPC   C1A76094  27.739  30.300   9.249 -0.0115 -0.1221  0.2173
55407DOPC   D2A76095  28.110  30.281   9.217  0.2128 -0.1966  0.0627
55407DOPC   C3A76096  28.507  30.021   9.075 -0.0407  0.1379 -0.0218
55407DOPC   C4A76097  28.524  29.650   9.181  0.0042 -0.1621  0.1568
55407DOPC   C1B76098  27.084  29.805   9.499  0.2577  0.2033  0.1527
55407DOPC   D2B76099  27.136  29.492   9.253  0.2876  0.1163 -0.2904
55407DOPC   C3B76100  27.298  29.671   8.787 -0.0628  0.0506  0.1640
55407DOPC   C4B76101  27.394  29.740   8.405  0.0594  0.1416  0.0278
55408DOPC   NC376102   1.562  26.865  16.773  0.0426  0.4283 -0.0849
55408DOPC   PO476103   1.634  26.615  17.025  0.0950 -0.0564  0.0167
55408DOPC   GL176104   1.976  26.530  16.775  0.2058 -0.0035  0.1631
55408DOPC   GL276105   1.900  26.392  16.529 -0.0380 -0.1083  0.1264
55408DOPC   C1A76106   2.358  26.503  16.723  0.0486  0.1429 -0.0328
55408DOPC   D2A76107   2.732  26.609  16.396  0.0180  0.0379  0.0603
55408DOPC   C3A76108   3.074  26.736  16.219  0.1280  0.0643  0.1171
55408DOPC   C4A76109   3.393  26.669  15.977 -0.5195 -0.1696 -0.0551
55408DOPC   C1B76110   2.224  26.625  16.224  0.1545 -0.3836 -0.1598
55408DOPC   D2B76111   2.497  26.635  15.822  0.2371 -0.0001 -0.1943
55408DOPC   C3B76112   2.473  26.641  15.400  0.0641  0.2059 -0.0755
55408DOPC   C4B76113   2.720  26.424  15.188 -0.2461 -0.0219  0.0989
55409DOPC   NC376114   2.111  14.174  12.801  0.1315  0.2406 -0.1065
55409DOPC   PO476115   1.978  13.944  12.449  0.4011  0.4366 -0.1272
55409DOPC   GL176116   2.219  13.520  12.445  0.1607  0.2514  0.0509
55409DOPC   GL276117   2.580  13.432  12.162 -0.0937 -0.1196  0.0354
55409DOPC   C1A76118   2.311  13.058  12.282 -0.2492 -0.2076 -0.1618
55409DOPC   D2A76119   2.555  13.011  11.943  0.3534  0.0222 -0.1488
55409DOPC   C3A76120   2.969  12.829  11.953 -0.3245  0.1675  0.3103
55409DOPC   C4A76121   3.138  12.580  12.237 -0.0647  0.3390 -0.1181
55409DOPC   C1B76122   2.927  13.351  12.253 -0.1006 -0.2835  0.1148
55409DOPC   D2B76123   3.317  13.061  12.213  0.0421 -0.0632  0.1834
55409DOPC   C3B76124   3.787  13.032  12.245 -0.0563  0.0208 -0.1195
55409DOPC   C4B76125   4.213  13.145  11.975  0.0215 -0.1699 -0.0094
55410DOPC   NC376126  18.965  11.295  17.535  0.0100  0.4292 -0.0663
55410DOPC   PO476127  18.839  10.809  17.422  0.3672  0.0134  0.1959
55410DOPC   GL176128  18.464  11.004  17.302  0.0337 -0.0543  0.1175
55410DOPC   GL276129  18.466  11.334  17.353  0.0737  0.0871 -0.0312
55410DOPC   C1A76130  18.249  10.857  16.996  0.0480 -0.4217 -0.3297
55410DOPC   D2A76131  18.053  10.924  16.662  0.0190 -0.1483 -0.1333
55410DOPC   C3A76132  17.754  11.028  16.589 -0.1064 -0.0795  0.0415
55410DOPC   C4A76133  17.658  11.116  16.119 -0.3258  0.0490  0.0320
55410DOPC   C1B76134  18.275  11.299  16.924 -0.1366 -0.0998 -0.1541
55410DOPC   D2B76135  17.974  11.408  16.738  0.1972  0.0346 -0.0388
55410DOPC   C3B76136  17.970  11.560  16.246 -0.0597 -0.2560 -0.2267
55410DOPC   C4B76137  18.039  11.733  15.892 -0.0354  0.1698  0.0161
55411PAPC   NC376138  14.541  10.010  18.380  0.0076 -0.2520 -0.0808
55411PAPC   PO476139  14.211  10.139  18.557 -0.1634 -0.1045  0.0120
55411PAPC   GL176140  14.258  10.580  18.402 -0.0513 -0.0955  0.0041
55411PAPC   GL276141  14.165  10.545  18.121  0.1549  0.2075  0.0053
55411PAPC   D1A76142  13.983  11.003  18.228 -0.2430  0.0052 -0.0077
55411PAPC   D2A76143  13.983  11.145  18.708  0.0440 -0.0259  0.1247
55411PAPC   D3A76144  14.347  11.273  18.770  0.1251 -0.1184 -0.1628
55411PAPC   D4A76145  14.306  11.761  18.603  0.2224 -0.0274  0.0892
55411PAPC   C5A76146  14.168  12.097  18.749  0.1774  0.1586  0.2091
55411PAPC   C1B76147  13.943  10.426  17.905 -0.2116  0.2467  0.0322
55411PAPC   C2B76148  14.097  10.341  17.441  0.3884  0.2456  0.0415
55411PAPC   C3B76149  14.323  10.219  17.094  0.1195  0.4562 -0.2575
55411PAPC   C4B76150  14.531  10.308  16.826 -0.1868  0.2209  0.2863
55412PAPC   NC376151  16.649  26.031  20.761 -0.1096  0.1887  0.1438
55412PAPC   PO476152  16.298  25.698  20.861 -0.2650 -0.0139 -0.2007
55412PAPC   GL176153  16.068  25.637  20.597  0.1612 -0.0327 -0.2113
55412PAPC   GL276154  16.124  25.359  20.533  0.0873  0.1020 -0.0968
55412PAPC   D1A76155  15.681  25.779  20.537  0.1233  0.0531  0.0369
55412PAPC   D2A76156  15.287  25.830  20.816  0.4592  0.2110 -0.0258
55412PAPC   D3A76157  15.161  26.121  20.510 -0.0067  0.0967  0.2841
55412PAPC   D4A76158  14.723  25.987  20.515 -0.0213 -0.1981 -0.0287
55412PAPC   C5A76159  14.520  25.692  20.340  0.1625  0.1568  0.0700
55412PAPC   C1B76160  16.071  25.171  20.146  0.2327  0.2145 -0.1057
55412PAPC   C2B76161  15.906  25.064  19.718  0.1230 -0.1290 -0.2249
55412PAPC   C3B76162  16.101  25.112  19.319  0.1166 -0.0024  0.1373
55412PAPC   C4B76163  16.039  24.717  18.993 -0.0777 -0.1496  0.1589
55413PAPC   NC376164   5.269  12.604  15.974 -0.2021 -0.0863  0.1530
55413PAPC   PO476165   5.097  12.728  15.530  0.0912 -0.0634  0.0601
55413PAPC   GL176166   5.250  13.061  15.796 -0.1397  0.0424 -0.2534
55413PAPC   GL276167   5.515  13.083  15.594 -0.0956  0.1175  0.0893
55413PAPC   D1A76168   5.273  13.545  15.678  0.1841 -0.0397 -0.2384
55413PAPC   D2A76169   5.593  13.748  15.624 -0.0226 -0.1165 -0.2362
55413PAPC   D3A76170   5.568  14.129  15.695  0.0118  0.0483 -0.1344
55413PAPC   D4A76171   5.210  14.231  15.399  0.0432  0.0434  0.0217
55413PAPC   C5A76172   5.049  14.659  15.514 -0.1405 -0.4231 -0.1404
55413PAPC   C1B76173   5.658  13.323  15.404  0.2819  0.4274 -0.2902
55413PAPC   C2B76174   5.904  13.617  15.071  0.2601  0.0428 -0.0329
55413PAPC   C3B76175   6.057  13.664  14.622  0.1184 -0.1547  0.1112
55413PAPC   C4B76176   5.891  13.874  14.107 -0.0965 -0.0785  0.1638
55414PAPC   NC376177   4.507  19.665  17.252 -0.1713 -0.0082 -0.3660
55414PAPC   PO476178   4.791  19.961  17.447  0.1204  0.0159 -0.0320
55414PAPC   GL176179   5.115  20.088  17.094 -0.0753  0.2221 -0.2276
55414PAPC   GL276180   5.304  20.272  17.229 -0.1963 -0.1219 -0.2127
55414PAPC   D1A76181   5.478  19.854  16.972  0.0201  0.3009  0.0864
55414PAPC   D2A76182   5.574  19.689  16.641 -0.2471  0.2607  0.2262
55414PAPC   D3A76183   5.951  19.784  16.504 -0.1758  0.2546 -0.0763
55414PAPC   D4A76184   5.901  20.053  16.834 -0.0940  0.3131  0.2136
55414PAPC   C5A76185   5.780  19.897  17.350  0.3094  0.0442  0.1134
55414PAPC   C1B76186   5.460  20.306  16.747 -0.1111 -0.0930 -0.2970
55414PAPC   C2B76187   5.619  20.147  16.379 -0.1681 -0.0045  0.0974
55414PAPC   C3B76188   5.942  20.078  16.084  0.0245  0.0573 -0.0897
55414PAPC   C4B76189   6.297  20.418  15.904  0.3093  0.0649  0.1090
55415PAPC   NC376190   1.166  23.851  14.509  0.0960  0.0245 -0.1165
55415PAPC   PO476191   1.348  23.904  14.069  0.2680 -0.2702 -0.1272
55415PAPC   GL176192   1.668  24.275  13.927  0.0107 -0.0753 -0.0288
55415PAPC   GL276193   1.783  24.159  13.604 -0.2055 -0.1672  0.0437
55415PAPC   D1A76194   2.016  24.635  13.704 -0.1886 -0.1772  0.0211
55415PAPC   D2A76195   1.986  25.044  13.588 -0.1199 -0.1829 -0.2826
55415PAPC   D3A76196   2.110  25.264  13.319  0.1110  0.1667 -0.2183
55415PAPC   D4A76197   2.557  25.223  13.469  0.1477  0.0274  0.0385
55415PAPC   C5A76198   2.852  25.373  13.374  0.0497  0.0047 -0.2284
55415PAPC   C1B76199   2.048  24.432  13.279 -0.1306  0.0349  0.0050
55415PAPC   C2B76200   2.053  24.835  13.123 -0.3750  0.1014  0.2849
55415PAPC   C3B76201   1.954  25.263  12.833  0.0622  0.2743 -0.4145
55415PAPC   C4B76202   1.908  25.544  12.577 -0.2220  0.0293 -0.0526
55416PAPC   NC376203  20.051   8.845  17.352  0.2323 -0.0700 -0.3017
55416PAPC   PO476204  20.113   8.923  16.997  0.2358 -0.0851  0.2633
55416PAPC   GL176205  20.172   8.739  16.639 -0.0884 -0.1763  0.2342
55416PAPC   GL276206  20.009   8.481  16.583 -0.0080 -0.0148 -0.2768
55416PAPC   D1A76207  20.063   8.877  16.256  0.4027  0.0557 -0.2025
55416PAPC   D2A76208  20.227   8.691  15.975 -0.0565 -0.0092 -0.0660
55416PAPC   D3A76209  20.004   8.520  15.659 -0.1404 -0.0064 -0.0054
55416PAPC   D4A76210  19.836   8.874  15.443 -0.0307 -0.2066 -0.2131
55416PAPC   C5A76211  19.614   8.766  14.998 -0.2397 -0.1466 -0.2112
55416PAPC   C1B76212  19.542   8.640  16.561 -0.2248 -0.2120 -0.0186
55416PAPC   C2B76213  19.175   8.612  16.310  0.0450  0.3231 -0.0980
55416PAPC   C3B76214  18.704   8.480  16.024  0.3032 -0.0531 -0.0984
55416PAPC   C4B76215  18.547   8.231  15.717  0.0721 -0.0264  0.3567
55417PAPC   NC376216  33.511  12.467   6.686 -0.1386  0.0818 -0.2287
55417PAPC   PO476217  33.371  12.029   6.879  0.0356 -0.1866  0.2501
55417PAPC   GL176218  33.297  11.669   6.625  0.0753 -0.1366  0.3051
55417PAPC   GL276219  33.473  11.849   6.459  0.4099 -0.0775 -0.0904
55417PAPC   D1A76220  33.524  11.307   6.495  0.0540  0.1637 -0.0672
55417PAPC   D2A76221  33.937  11.258   6.685  0.1259 -0.2118  0.0494
55417PAPC   D3A76222  33.982  11.259   6.248  0.0346 -0.1723 -0.1296
55417PAPC   D4A76223  34.349  11.200   6.067  0.1363 -0.2828  0.0226
55417PAPC   C5A76224  34.606  10.847   6.017  0.1132  0.1106 -0.0296
55417PAPC   C1B76225  33.671  11.686   6.231 -0.1030 -0.1964  0.2763
55417PAPC   C2B76226  33.943  11.631   5.860  0.1922  0.3362 -0.0410
55417PAPC   C3B76227  34.244  11.442   5.684 -0.0183  0.0635  0.0675
55417PAPC   C4B76228  34.689  11.240   5.691  0.0538 -0.1873 -0.0228
55418PAPC   NC376229   3.250  29.012  19.113  0.0495 -0.2125  0.1045
55418PAPC   PO476230   3.506  29.418  19.231  0.1194  0.1012 -0.2698
55418PAPC   GL176231   3.954  29.444  19.007 -0.2175 -0.0068  0.1401
55418PAPC   GL276232   4.206  29.671  18.914  0.0697 -0.4374  0.1069
55418PAPC   D1A76233   4.377  29.217  19.027 -0.3462 -0.1206  0.3538
55418PAPC   D2A76234   4.784  29.048  19.064 -0.0431  0.1972  0.0761
55418PAPC   D3A76235   4.623  28.701  18.896  0.0534 -0.1587  0.0296
55418PAPC   D4A76236   4.767  28.374  18.587 -0.2540  0.1499  0.0564
55418PAPC   C5A76237   4.992  28.059  18.632  0.2589 -0.0132  0.0087
55418PAPC   C1B76238   4.060  29.461  18.532 -0.0562 -0.0679 -0.1532
55418PAPC   C2B76239   4.361  29.435  18.267  0.4017 -0.0378 -0.2443
55418PAPC   C3B76240   4.522  29.568  17.974 -0.1631  0.1096 -0.2844
55418PAPC   C4B76241   4.748  29.628  17.620 -0.1106  0.0128  0.0905
55419DAPC   NC376242  22.446  10.502  15.003  0.0526  0.0490 -0.2675
55419DAPC   PO476243  22.722  10.213  15.094  0.0857  0.0388  0.1502
55419DAPC   GL176244  22.416  10.086  14.712 -0.3648  0.1026 -0.1671
55419DAPC   GL276245  22.169  10.223  14.627  0.0897 -0.0328  0.0742
55419DAPC   D1A76246  22.313   9.886  14.291  0.0610 -0.3043 -0.0908
55419DAPC   D2A76247  22.320   9.573  14.506  0.2667  0.0513  0.1260
55419DAPC   D3A76248  21.953   9.585  14.082 -0.0359 -0.2372 -0.0138
55419DAPC   D4A76249  21.941   9.189  14.307  0.2730  0.1128 -0.0294
55419DAPC   C5A76250  21.993   9.146  14.788 -0.1249  0.2017 -0.2587
55419DAPC   D1B76251  21.869   9.933  14.494 -0.2938  0.1881  0.2113
55419DAPC   D2B76252  21.756   9.511  14.605  0.2126 -0.2700  0.0181
55419DAPC   D3B76253  21.295   9.531  14.602 -0.0427 -0.1413 -0.2571
55419DAPC   D4B76254  21.288   9.441  14.124  0.2610  0.1571 -0.0154
55419DAPC   C5B76255  21.625   9.298  13.863 -0.1217 -0.0449  0.1687
55420DAPC   NC376256   5.066  24.021  20.204 -0.3980  0.1943 -0.0465
55420DAPC   PO476257   5.178  23.704  19.846  0.1257 -0.0733  0.1858
55420DAPC   GL176258   5.103  24.060  19.581 -0.2119 -0.0207  0.1003
55420DAPC   GL276259   4.996  23.998  19.200  0.0562 -0.0068 -0.4159
55420DAPC   D1A76260   5.344  24.358  19.248 -0.0939  0.0179  0.4896
55420DAPC   D2A76261   5.057  24.717  19.050  0.1512  0.2606 -0.0819
55420DAPC   D3A76262   5.399  24.615  18.673 -0.1013  0.0569  0.0035
55420DAPC   D4A76263   5.226  24.268  18.728  0.0397 -0.3013 -0.1187
55420DAPC   C5A76264   5.351  24.028  18.462 -0.3601  0.1445  0.1751
55420DAPC   D1B76265   4.709  23.724  18.932 -0.0584  0.1298  0.0253
55420DAPC   D2B76266   4.884  23.904  18.606  0.2261  0.1076  0.0222
55420DAPC   D3B76267   4.701  24.277  18.822 -0.2949 -0.1242  0.1376
55420DAPC   D4B76268   4.594  24.726  18.788 -0.1771 -0.2938 -0.0485
55420DAPC   C5B76269   4.960  24.938  18.595  0.1646 -0.1150  0.1600
55421DAPC   NC376270   8.617  32.175  20.864 -0.2920  0.2421 -0.2298
55421DAPC   PO476271   8.967  32.530  20.986 -0.1794  0.1821 -0.1412
55421DAPC   GL176272   9.025  32.470  20.526 -0.0222  0.0345  0.0521
55421DAPC   GL276273   9.070  32.739  20.358  0.0335 -0.1126 -0.0539
55421DAPC   D1A76274   8.793  32.284  20.172  0.3963  0.1232  0.1579
55421DAPC   D2A76275   9.035  32.200  19.877 -0.1842  0.1651 -0.1534
55421DAPC   D3A76276   9.308  32.166  20.249  0.2043 -0.1628  0.1525
55421DAPC   D4A76277   9.081  31.891  20.317 -0.0209  0.1698 -0.0269
55421DAPC   C5A76278   8.970  31.709  19.844 -0.1157  0.1723 -0.2407
55421DAPC   D1B76279   9.037  32.782  19.987  0.0144  0.0003 -0.1791
55421DAPC   D2B76280   8.672  32.692  20.056  0.1172 -0.1773  0.0906
55421DAPC   D3B76281   8.717  32.486  19.625  0.0484  0.0400 -0.0684
55421DAPC   D4B76282   8.482  32.806  19.611 -0.1083  0.1107  0.0930
55421DAPC   C5B76283   8.590  33.215  19.678  0.1843 -0.3067  0.0683
55422DAPC   NC376284   0.953  23.697  13.646  0.0375  0.1923  0.3422
55422DAPC   PO476285   0.764  23.582  13.178 -0.1767 -0.5063 -0.1616
55422DAPC   GL176286   1.149  23.850  13.192 -0.3561 -0.1332  0.1059
55422DAPC   GL276287   1.430  23.793  13.274  0.0640  0.0155 -0.0409
55422DAPC   D1A76288   1.151  24.183  13.490 -0.2282  0.1366 -0.0142
55422DAPC   D2A76289   1.564  24.335  13.186 -0.2109 -0.3347 -0.0128
55422DAPC   D3A76290   1.346  24.315  12.807 -0.2387 -0.2133 -0.0490
55422DAPC   D4A76291   1.228  24.766  12.904 -0.1167  0.1802 -0.1186
55422DAPC   C5A76292   0.736  24.840  12.971  0.0673  0.0191  0.1175
55422DAPC   D1B76293   1.723  23.706  12.932 -0.3712  0.3976  0.1139
55422DAPC   D2B76294   1.583  23.717  12.551 -0.0613 -0.4998 -0.1235
55422DAPC   D3B76295   1.705  23.404  12.178 -0.1076 -0.2170  0.3148
55422DAPC   D4B76296   1.576  23.792  12.024 -0.1282  0.0542  0.0157
55422DAPC   C5B76297   1.888  24.034  11.918 -0.1723 -0.0754 -0.1722
55423DAPC   NC376298   7.724  25.736  21.259  0.1932 -0.0454 -0.0536
55423DAPC   PO476299   7.448  26.116  21.004 -0.1051  0.0944 -0.1674
55423DAPC   GL176300   7.326  26.395  20.728 -0.1254 -0.0864  0.0860
55423DAPC   GL276301   7.166  26.607  21.029 -0.0925  0.0456 -0.2707
55423DAPC   D1A76302   7.233  26.851  20.599 -0.1638 -0.0742  0.1258
55423DAPC   D2A76303   7.229  27.083  20.138 -0.1046  0.2330  0.1866
55423DAPC   D3A76304   6.789  27.217  19.959  0.2875 -0.0701 -0.2147
55423DAPC   D4A76305   6.723  27.092  19.510  0.2362 -0.2910 -0.1602
55423DAPC   C5A76306   6.224  26.987  19.291 -0.0214  0.1179 -0.0673
55423DAPC   D1B76307   6.844  26.543  20.681  0.1486  0.3638 -0.1346
55423DAPC   D2B76308   6.762  26.878  20.403  0.4468  0.0169  0.4251
55423DAPC   D3B76309   6.779  27.298  20.470 -0.0381 -0.1173  0.0436
55423DAPC   D4B76310   7.139  27.428  20.523 -0.1468 -0.3518 -0.2737
55423DAPC   C5B76311   7.247  27.562  20.116 -0.0908  0.1101 -0.1767
55424DAPC   NC376312  33.178  28.958  12.623  0.1165 -0.1600  0.0919
55424DAPC   PO476313  33.525  29.142  12.367 -0.2803  0.0217 -0.2351
55424DAPC   GL176314  33.776  29.265  11.997 -0.2799  0.1598 -0.1233
55424DAPC   GL276315  33.794  29.470  11.746 -0.0608  0.0858  0.0170
55424DAPC   D1A76316  33.991  29.088  11.502 -0.3005 -0.0177 -0.0104
55424DAPC   D2A76317  34.373  28.983  11.464 -0.2860 -0.1181  0.0715
55424DAPC   D3A76318  34.698  29.280  11.198 -0.3140 -0.0520  0.5042
55424DAPC   D4A76319  34.839  29.128  11.568 -0.2882  0.1789 -0.0887
55424DAPC   C5A76320  35.310  29.090  11.644 -0.2077 -0.1518 -0.0179
55424DAPC   D1B76321  34.307  29.433  11.833 -0.4125  0.0775  0.0888
55424DAPC   D2B76322  34.296  29.455  11.452 -0.1632 -0.0675 -0.2303
55424DAPC   D3B76323  34.719  29.632  11.615  0.0690 -0.0962  0.1782
55424DAPC   D4B76324  34.948  29.777  11.232  0.0999  0.1437  0.1150
55424DAPC   C5B76325  35.114  30.179  11.106  0.0232 -0.2347 -0.2113
55425DAPC   NC376326  30.221  32.723  12.036  0.0327  0.1509  0.0559
55425DAPC   PO476327  30.630  32.937  11.898  0.2220 -0.1287  0.1567
55425DAPC   GL176328  31.002  32.956  11.538 -0.0058 -0.0789  0.0051
55425DAPC   GL276329  30.940  33.294  11.408 -0.2475 -0.2475  0.1022
55425DAPC   D1A76330  31.379  32.862  11.721 -0.0132  0.3992  0.0129
55425DAPC   D2A76331  31.721  33.076  11.629 -0.1710 -0.1904  0.0364
55425DAPC   D3A76332  31.577  32.943  11.228 -0.0691 -0.3051 -0.0240
55425DAPC   D4A76333  31.928  33.004  11.118 -0.1603 -0.1636  0.2359
55425DAPC   C5A76334  32.007  32.969  10.739  0.1574  0.1386 -0.0116
55425DAPC   D1B76335  31.000  33.062  11.060  0.1671  0.3209  0.0796
55425DAPC   D2B76336  30.933  32.628  11.049  0.0078  0.0385 -0.0192
55425DAPC   D3B76337  31.265  32.576  11.202 -0.3270  0.0591 -0.0646
55425DAPC   D4B76338  31.676  32.606  10.907 -0.2401 -0.1194 -0.0335
55425DAPC   C5B76339  31.670  32.689  10.445  0.1771  0.0139 -0.1350
55426POPE   NH376340   3.310  28.485  18.367  0.4045 -0.1844 -0.0321
55426POPE   PO476341   3.228  28.908  18.573 -0.3010  0.0291 -0.0681
55426POPE   GL176342   3.659  28.791  18.305 -0.1015  0.0828  0.0701
55426POPE   GL276343   3.859  28.701  18.623 -0.1411 -0.1797  0.0360
55426POPE   C1A76344   4.112  28.868  18.211  0.4651 -0.1093  0.1988
55426POPE   D2A76345   4.491  29.027  18.068 -0.0587  0.0033  0.0223
55426POPE   C3A76346   4.792  28.881  17.755  0.2573 -0.2509  0.1621
55426POPE   C4A76347   5.210  28.706  17.813 -0.1337  0.0620  0.1180
55426POPE   C1B76348   4.121  28.995  18.711  0.0230  0.1785 -0.0862
55426POPE   C2B76349   4.498  29.022  18.572 -0.2006  0.1321  0.0870
55426POPE   C3B76350   4.910  28.859  18.333  0.1707 -0.2957  0.2069
55426POPE   C4B76351   5.421  28.859  18.331  0.2242 -0.0942  0.0545
55427POPE   NH376352  28.937  27.988   8.712  0.0345 -0.0295  0.1710
55427POPE   PO476353  28.757  27.642   8.446  0.1429 -0.3100 -0.1644
55427POPE   GL176354  28.541  27.856   8.122  0.3471  0.2554  0.0168
55427POPE   GL276355  28.128  27.865   8.242 -0.0706  0.2971  0.1845
55427POPE   C1A76356  28.300  28.080   7.762 -0.0687 -0.1131 -0.0601
55427POPE   D2A76357  28.163  28.288   7.484  0.0294 -0.2291  0.1429
55427POPE   C3A76358  27.986  28.544   7.237  0.0735  0.0282  0.0042
55427POPE   C4A76359  27.692  28.653   7.095  0.0839 -0.0940  0.3186
55427POPE   C1B76360  27.812  27.856   7.987  0.1478  0.0949  0.3375
55427POPE   C2B76361  27.792  28.092   7.673  0.2005  0.1620  0.2644
55427POPE   C3B76362  27.559  28.427   7.510  0.1322  0.0143  0.0078
55427POPE   C4B76363  27.218  28.588   7.452 -0.3366  0.0601  0.1058
55428POPE   NH376364   0.600   8.804  11.731  0.1082 -0.1563  0.1334
55428POPE   PO476365   0.984   9.034  11.718 -0.2649 -0.3263  0.2757
55428POPE   GL176366   1.075   9.351  11.499  0.0851 -0.0105 -0.1362
55428POPE   GL276367   1.295   9.515  11.620  0.0651 -0.1168  0.1375
55428POPE   C1A76368   1.016   9.548  11.178 -0.0838 -0.1641 -0.0513
55428POPE   D2A76369   1.163   9.517  10.736  0.0183  0.2656  0.1392
55428POPE   C3A76370   1.595   9.519  10.701  0.2456 -0.0036  0.1924
55428POPE   C4A76371   1.920   9.176  10.424  0.0823 -0.3059  0.0258
55428POPE   C1B76372   1.572   9.552  11.337  0.1844 -0.0722  0.3036
55428POPE   C2B76373   1.793   9.321  11.090 -0.0861 -0.0390  0.1314
55428POPE   C3B76374   2.081   9.361  10.858 -0.0167 -0.1335 -0.0129
55428POPE   C4B76375   2.269   8.999  10.731 -0.0234 -0.0709  0.0249
55429POPE   NH376376   6.144   5.346  17.736  0.1699  0.5179 -0.1179
55429POPE   PO476377   6.479   5.503  18.043 -0.2161 -0.1174  0.2670
55429POPE   GL176378   6.687   5.201  17.875 -0.0297 -0.1871 -0.0292
55429POPE   GL276379   6.578   5.058  17.637  0.1203 -0.0239  0.1524
55429POPE   C1A76380   7.076   5.135  18.002 -0.3232 -0.0205 -0.3891
55429POPE   D2A76381   7.425   5.040  17.830 -0.1971  0.0953  0.3669
55429POPE   C3A76382   7.771   4.702  17.816  0.1403 -0.0272 -0.0593
55429POPE   C4A76383   7.980   4.527  17.530 -0.1756  0.1177  0.0816
55429POPE   C1B76384   6.666   4.855  17.278 -0.0312  0.1939 -0.2992
55429POPE   C2B76385   6.965   4.688  16.971  0.3199 -0.4105  0.4488
55429POPE   C3B76386   7.219   4.260  16.863  0.1388  0.1569 -0.2810
55429POPE   C4B76387   7.352   4.001  17.189 -0.0182  0.1462 -0.0916
55430POPE   NH376388  33.305  30.206  12.708 -0.1174 -0.2049  0.0525
55430POPE   PO476389  33.304  30.587  12.843  0.3485 -0.0949  0.3239
55430POPE   GL176390  33.702  30.784  12.648 -0.0278  0.0893  0.0812
55430POPE   GL276391  33.881  30.663  12.381 -0.1104 -0.3298  0.1674
55430POPE   C1A76392  33.741  31.128  12.468  0.0245 -0.0676 -0.3172
55430POPE   D2A76393  33.724  31.402  12.156 -0.0555 -0.1358  0.1576
55430POPE   C3A76394  33.964  31.231  11.748  0.0363  0.3373 -0.0238
55430POPE   C4A76395  34.357  31.169  11.703  0.1016  0.1769  0.2804
55430POPE   C1B76396  34.161  30.807  12.094  0.1668  0.0465  0.1049
55430POPE   C2B76397  34.616  30.833  11.901 -0.0895  0.1809 -0.0357
55430POPE   C3B76398  34.665  30.965  11.425 -0.3980 -0.1010 -0.1830
55430POPE   C4B76399  34.518  30.895  11.144  0.0896 -0.0174  0.5377
55431POPE   NH376400   6.747  29.578  20.664 -0.4349 -0.2595  0.0306
55431POPE   PO476401   6.558  29.225  20.429  0.0606 -0.0324  0.1093
55431POPE   GL176402   6.518  29.240  19.967  0.0895  0.0594 -0.2152
55431POPE   GL276403   6.429  29.073  19.777  0.0227 -0.0489 -0.1975
55431POPE   C1A76404   6.881  28.915  19.720  0.3850 -0.1398 -0.4593
55431POPE   D2A76405   6.871  28.583  19.427  0.2681  0.0093  0.0781
55431POPE   C3A76406   6.538  28.623  19.051 -0.0571 -0.0493 -0.0829
55431POPE   C4A76407   6.189  28.358  18.839  0.2126  0.0601 -0.3307
55431POPE   C1B76408   6.430  28.889  19.422 -0.0237  0.0256 -0.1108
55431POPE   C2B76409   6.621  29.077  19.034  0.0302 -0.2051  0.2063
55431POPE   C3B76410   6.768  29.020  18.682 -0.1650  0.2570  0.2234
55431POPE   C4B76411   6.892  28.672  18.335 -0.3671  0.0657  0.4851
55432POPE   NH376412  22.129   5.948  14.896 -0.1370  0.2447  0.0912
55432POPE   PO476413  22.520   5.724  14.718  0.0817 -0.1304  0.1222
55432POPE   GL176414  22.647   5.992  14.256 -0.2878  0.1536 -0.0540
55432POPE   GL276415  22.819   6.048  13.988  0.0271  0.1406  0.4084
55432POPE   C1A76416  22.531   5.691  13.924  0.2883 -0.0878 -0.4230
55432POPE   D2A76417  22.831   5.480  13.489  0.1760  0.2974  0.5214
55432POPE   C3A76418  22.666   5.660  13.092  0.1655  0.1970  0.2096
55432POPE   C4A76419  22.309   5.911  12.885  0.0112  0.0257 -0.0912
55432POPE   C1B76420  22.329   6.164  13.926 -0.0405  0.2868  0.1786
55432POPE   C2B76421  21.923   6.152  13.755  0.3495 -0.1152 -0.0123
55432POPE   C3B76422  21.661   6.313  13.611 -0.0409  0.0502 -0.0318
55432POPE   C4B76423  21.222   6.323  13.513 -0.1430  0.3685 -0.4504
55433POPE   NH376424  34.224  31.109  14.495 -0.0336  0.1242  0.4263
55433POPE   PO476425  34.538  31.486  14.421  0.0515  0.0390 -0.3013
55433POPE   GL176426  34.858  31.377  14.034 -0.0293  0.1591 -0.1868
55433POPE   GL276427  34.883  31.028  13.910  0.2168 -0.1022  0.1348
55433POPE   C1A76428  35.144  31.547  13.872 -0.3684  0.0568 -0.1919
55433POPE   D2A76429  35.106  31.677  13.464  0.0957  0.3068 -0.2979
55433POPE   C3A76430   0.079  31.786  13.312 -0.0145  0.2129 -0.1267
55433POPE   C4A76431   0.470  31.958  13.005 -0.2740 -0.2408  0.4928
55433POPE   C1B76432  34.949  31.117  13.474 -0.1923 -0.6075  0.1334
55433POPE   C2B76433  35.174  31.276  13.070 -0.1242  0.3486 -0.2286
55433POPE   C3B76434  35.311  31.168  12.739 -0.1412 -0.1313 -0.1442
55433POPE   C4B76435   0.315  30.987  12.455 -0.3761  0.1294 -0.0761
55434POPE   NH376436  31.228  28.681  10.690 -0.0918 -0.1172  0.0290
55434POPE   PO476437  31.225  28.360  10.328 -0.0460 -0.2936  0.2846
55434POPE   GL176438  31.451  28.631  10.122 -0.1762 -0.0844  0.1084
55434POPE   GL276439  31.608  28.444   9.950  0.1987  0.1462 -0.0178
55434POPE   C1A76440  31.536  28.965   9.865  0.0008 -0.3469 -0.2174
55434POPE   D2A76441  31.737  29.099   9.570 -0.0622  0.2038 -0.1023
55434POPE   C3A76442  31.765  29.547   9.411 -0.1041 -0.0272  0.0092
55434POPE   C4A76443  31.977  29.973   9.253 -0.0548  0.3721 -0.1894
55434POPE   C1B76444  31.842  28.609   9.663 -0.0348 -0.0283  0.1231
55434POPE   C2B76445  32.075  28.822   9.392 -0.2075  0.0065 -0.0489
55434POPE   C3B76446  32.101  29.185   9.175  0.0535 -0.1940  0.1478
55434POPE   C4B76447  32.401  29.449   9.051  0.1497  0.0304  0.0468
55435POPE   NH376448   0.080  16.785   7.012 -0.1702 -0.1116 -0.0317
55435POPE   PO476449   0.320  17.144   7.143 -0.0707 -0.0683 -0.0809
55435POPE   GL176450   0.678  16.977   7.012  0.1116 -0.1175 -0.1295
55435POPE   GL276451   0.565  16.799   6.863  0.0860  0.0985  0.2583
55435POPE   C1A76452   1.027  16.885   7.037  0.0752 -0.1295  0.1771
55435POPE   D2A76453   1.350  16.963   7.270  0.2227 -0.1485 -0.3806
55435POPE   C3A76454   1.642  16.916   7.067  0.3793 -0.1353  0.0302
55435POPE   C4A76455   1.834  16.842   6.734 -0.1516 -0.2553  0.1643
55435POPE   C1B76456   0.917  16.713   6.582 -0.2432 -0.1397 -0.0610
55435POPE   C2B76457   1.350  16.686   6.651  0.1746 -0.2764 -0.1004
55435POPE   C3B76458   1.717  16.434   6.450 -0.0371  0.2722 -0.2995
55435POPE   C4B76459   1.879  16.547   6.001 -0.1762  0.1365 -0.1723
55436POPE   NH376460  10.083  26.629  21.707 -0.0014 -0.1261  0.0434
55436POPE   PO476461  10.390  26.920  21.798  0.0018  0.0625 -0.1157
55436POPE   GL176462  10.550  26.974  21.458  0.0172 -0.0887 -0.0572
55436POPE   GL276463  10.909  27.241  21.481 -0.1325 -0.1545 -0.3466
55436POPE   C1A76464  10.583  26.863  21.088 -0.0134  0.1070  0.0479
55436POPE   D2A76465  10.739  26.643  20.760 -0.2478 -0.0721 -0.2611
55436POPE   C3A76466  11.064  26.752  20.592  0.4506  0.3031  0.0314
55436POPE   C4A76467  11.411  26.818  20.386  0.2571 -0.4839  0.1522
55436POPE   C1B76468  10.970  27.244  21.157 -0.0101 -0.3003  0.0051
55436POPE   C2B76469  11.070  27.225  20.733  0.0638 -0.0596  0.0405
55436POPE   C3B76470  11.191  27.326  20.374 -0.2017  0.1332 -0.0097
55436POPE   C4B76471  11.134  27.058  20.063  0.2826 -0.2138  0.0437
55437POPE   NH376472  33.716  17.671   5.185 -0.1119  0.0245  0.0264
55437POPE   PO476473  34.200  17.617   5.275  0.0081 -0.2016  0.1117
55437POPE   GL176474  34.526  17.708   5.072  0.3099  0.2279  0.4773
55437POPE   GL276475  34.801  17.876   5.069  0.2181  0.1652 -0.1902
55437POPE   C1A76476  34.756  17.530   4.656 -0.2681 -0.0938 -0.1175
55437POPE   D2A76477  34.966  17.394   4.331  0.4603 -0.1112 -0.3113
55437POPE   C3A76478  35.166  17.708   4.023 -0.2085 -0.0175  0.1327
55437POPE   C4A76479  35.258  17.621   3.649  0.1913  0.0105 -0.0636
55437POPE   C1B76480  35.036  18.217   5.027  0.3529  0.0617 -0.1204
55437POPE   C2B76481  35.236  18.419   4.717  0.1317  0.3672  0.0654
55437POPE   C3B76482   0.056  18.676   4.279 -0.0909  0.0700 -0.0575
55437POPE   C4B76483  35.094  19.005   4.319  0.2456 -0.3276  0.0775
55438POPE   NH376484  21.257  20.385  16.340  0.3037  0.1945  0.3356
55438POPE   PO476485  21.081  20.075  16.033  0.3007 -0.1240 -0.0154
55438POPE   GL176486  20.808  19.972  15.800 -0.0835 -0.1954  0.1452
55438POPE   GL276487  20.520  20.119  15.879 -0.0795 -0.2548  0.1323
55438POPE   C1A76488  20.434  19.719  15.666  0.2326  0.0367 -0.1095
55438POPE   D2A76489  20.042  19.653  15.624 -0.0757  0.1956  0.0654
55438POPE   C3A76490  19.727  20.006  15.505 -0.1397  0.2060  0.0737
55438POPE   C4A76491  19.605  20.236  15.157 -0.1882  0.1261 -0.0949
55438POPE   C1B76492  20.214  20.194  15.601  0.0594 -0.0549  0.2322
55438POPE   C2B76493  19.783  20.482  15.614 -0.0610 -0.0163  0.1011
55438POPE   C3B76494  19.517  20.772  15.354  0.0790 -0.0300 -0.3311
55438POPE   C4B76495  19.439  21.255  15.565  0.2253 -0.0305  0.3724
55439POPE   NH376496  27.091   2.403  10.291 -0.2014  0.1212 -0.0398
55439POPE   PO476497  27.302   2.742  10.194 -0.1282 -0.2188 -0.0537
55439POPE   GL176498  26.760   2.739  10.251 -0.1013 -0.0948 -0.0313
55439POPE   GL276499  26.795   2.836   9.940 -0.2290  0.1767  0.3111
55439POPE   C1A76500  26.406   2.985  10.156  0.2518  0.0013  0.2656
55439POPE   D2A76501  26.280   3.050   9.778  0.0146 -0.2412  0.1781
55439POPE   C3A76502  26.052   2.919   9.424  0.0946 -0.0386 -0.0555
55439POPE   C4A76503  25.718   2.991   9.122  0.0665  0.5121 -0.0144
55439POPE   C1B76504  26.501   2.575   9.776 -0.0613 -0.2141 -0.1502
55439POPE   C2B76505  26.410   2.555   9.441 -0.1099 -0.0880  0.2027
55439POPE   C3B76506  26.125   2.519   9.022 -0.2421  0.0066  0.1525
55439POPE   C4B76507  25.606   2.544   9.074  0.1028  0.4375 -0.2840
55440POPE   NH376508   5.054   7.162  17.303 -0.0478  0.1667 -0.0642
55440POPE   PO476509   4.955   6.737  17.112  0.1871 -0.0593 -0.1080
55440POPE   GL176510   5.462   6.923  17.063 -0.0189 -0.2289 -0.1828
55440POPE   GL276511   5.733   6.725  16.973 -0.1610  0.0210  0.0764
55440POPE   C1A76512   5.557   7.065  16.616 -0.0112  0.2141  0.0490
55440POPE   D2A76513   5.952   7.076  16.305 -0.0928  0.2334  0.1834
55440POPE   C3A76514   6.069   7.329  15.991 -0.1939  0.2039  0.0576
55440POPE   C4A76515   5.916   7.406  15.552  0.0158  0.1323 -0.2008
55440POPE   C1B76516   6.095   6.487  16.705  0.5758  0.1954 -0.0422
55440POPE   C2B76517   6.457   6.185  16.733 -0.1058 -0.0857  0.0100
55440POPE   C3B76518   6.790   6.297  16.525 -0.1245  0.2115  0.1192
55440POPE   C4B76519   7.154   6.065  16.213  0.0968 -0.1777  0.2413
55441POPE   NH376520   1.906  26.181  17.266 -0.2975 -0.2636  0.0206
55441POPE   PO476521   2.291  25.948  17.480 -0.1900  0.0662  0.3181
55441POPE   GL176522   2.474  26.258  17.170 -0.0615 -0.0232 -0.0638
55441POPE   GL276523   2.279  26.543  17.208 -0.0048 -0.0296 -0.0873
55441POPE   C1A76524   2.752  26.232  16.844  0.2021  0.3235  0.2429
55441POPE   D2A76525   3.053  26.212  16.483 -0.0134  0.0757 -0.2201
55441POPE   C3A76526   3.422  26.328  16.399 -0.0906 -0.2548  0.0973
55441POPE   C4A76527   3.790  26.520  16.302 -0.3138 -0.0018  0.1013
55441POPE   C1B76528   2.243  26.927  17.044  0.2006 -0.0944 -0.2097
55441POPE   C2B76529   2.623  27.162  16.733  0.1180 -0.0446 -0.0949
55441POPE   C3B76530   2.915  27.236  16.411 -0.1701  0.2354 -0.0542
55441POPE   C4B76531   3.158  27.205  16.030  0.1580  0.0494  0.0284
55442POPE   NH376532  31.075  12.754   4.967 -0.3829  0.0897 -0.0568
55442POPE   PO476533  31.160  12.452   4.722  0.1324  0.1536 -0.0852
55442POPE   GL176534  31.318  12.155   4.396 -0.3996  0.0475  0.2200
55442POPE   GL276535  31.323  11.855   4.463  0.1683  0.0690 -0.0362
55442POPE   C1A76536  31.644  12.172   4.151  0.0845  0.0713 -0.0441
55442POPE   D2A76537  31.664  12.034   3.823  0.1536 -0.0441  0.2210
55442POPE   C3A76538  31.915  12.204   3.370  0.0445  0.2429 -0.1112
55442POPE   C4A76539  32.016  12.084   2.942 -0.1112  0.0879 -0.0010
55442POPE   C1B76540  31.463  11.688   4.027 -0.1611  0.0703  0.0412
55442POPE   C2B76541  31.524  11.544   3.696  0.0888 -0.0006 -0.0089
55442POPE   C3B76542  31.742  11.688   3.367  0.1741  0.0842 -0.4376
55442POPE   C4B76543  31.813  11.603   2.905 -0.1324 -0.1990 -0.1794
55443POPE   NH376544  32.570  27.011  10.415 -0.1430 -0.2885  0.0955
55443POPE   PO476545  32.807  26.636  10.496  0.2839  0.3181 -0.0251
55443POPE   GL176546  32.989  26.703  10.153 -0.1432  0.1585  0.1378
55443POPE   GL276547  32.714  26.806   9.933  0.0293 -0.1864 -0.0494
55443POPE   C1A76548  33.176  26.992   9.878 -0.0645  0.0366 -0.0080
55443POPE   D2A76549  33.199  27.231   9.632  0.2836  0.0418  0.1175
55443POPE   C3A76550  33.436  27.325   9.363 -0.3734 -0.1356  0.2048
55443POPE   C4A76551  33.583  27.417   8.953  0.0089 -0.0329  0.2142
55443POPE   C1B76552  32.697  27.130   9.633 -0.3460 -0.0696 -0.2890
55443POPE   C2B76553  32.745  27.437   9.527  0.1806 -0.0103 -0.1673
55443POPE   C3B76554  33.053  27.615   9.302 -0.0866 -0.3099  0.1072
55443POPE   C4B76555  33.126  27.540   8.874  0.0343 -0.0247  0.2454
55444POPE   NH376556  26.071   4.848  10.846 -0.2399 -0.2635 -0.1412
55444POPE   PO476557  25.809   5.045  10.923  0.1029 -0.1486  0.0161
55444POPE   GL176558  25.540   5.171  10.557  0.0789  0.1037 -0.1157
55444POPE   GL276559  25.328   5.385  10.798  0.0231 -0.0774 -0.2557
55444POPE   C1A76560  25.392   4.996  10.169 -0.1454  0.0395 -0.1599
55444POPE   D2A76561  25.031   4.852   9.871 -0.0320 -0.0949  0.2018
55444POPE   C3A76562  24.638   4.996   9.872  0.1773 -0.1901  0.0081
55444POPE   C4A76563  24.536   5.076   9.542 -0.1423 -0.0243 -0.2996
55444POPE   C1B76564  25.048   5.301  10.492 -0.3322  0.0096  0.0484
55444POPE   C2B76565  24.733   5.342  10.253  0.0313 -0.2699 -0.0461
55444POPE   C3B76566  24.444   5.460   9.897 -0.0496 -0.0219 -0.2127
55444POPE   C4B76567  24.147   5.340   9.683 -0.0060  0.3583  0.0762
55445POPE   NH376568  15.953   7.547  18.188 -0.2386  0.0828 -0.2065
55445POPE   PO476569  15.942   8.024  17.985 -0.1381  0.1927 -0.0795
55445POPE   GL176570  15.774   8.285  17.773 -0.3091 -0.2304 -0.0430
55445POPE   GL276571  15.587   8.566  17.943  0.0904 -0.0195  0.2660
55445POPE   C1A76572  15.525   8.502  17.442  0.1659 -0.0320  0.1556
55445POPE   D2A76573  15.458   8.536  17.087 -0.2385  0.1117 -0.1501
55445POPE   C3A76574  15.235   8.482  16.825 -0.0162 -0.2133 -0.1714
55445POPE   C4A76575  15.158   8.503  16.479  0.2559 -0.0366 -0.3653
55445POPE   C1B76576  15.872   8.817  17.585  0.1291  0.1786  0.1928
55445POPE   C2B76577  15.976   9.033  17.177 -0.0449 -0.2159 -0.0525
55445POPE   C3B76578  16.003   9.165  16.731 -0.2031  0.0737 -0.3079
55445POPE   C4B76579  16.043   9.362  16.278  0.3360 -0.3607 -0.1174
55446POPE   NH376580  26.874   9.313   7.734  0.1734 -0.0726  0.0613
55446POPE   PO476581  26.676   9.682   7.647  0.3232 -0.2265  0.1265
55446POPE   GL176582  26.300   9.267   7.762 -0.0707 -0.1140 -0.0210
55446POPE   GL276583  26.444   9.001   7.665 -0.2322 -0.0395 -0.1681
55446POPE   C1A76584  25.848   9.361   7.868  0.1724 -0.0580 -0.0318
55446POPE   D2A76585  25.606   9.288   7.544  0.0098  0.0056 -0.2436
55446POPE   C3A76586  25.282   9.289   7.304 -0.2471  0.2407  0.0779
55446POPE   C4A76587  24.939   9.224   7.062  0.1346  0.1217  0.0083
55446POPE   C1B76588  26.117   9.108   7.319  0.3520  0.1405  0.2776
55446POPE   C2B76589  25.739   8.962   7.148  0.0924  0.1695  0.0907
55446POPE   C3B76590  25.410   8.967   6.890  0.1521 -0.1297  0.1429
55446POPE   C4B76591  25.254   8.812   6.514 -0.0306  0.4011  0.0617
55447POPE   NH376592  30.562  29.975  10.675 -0.1804 -0.0205 -0.1400
55447POPE   PO476593  30.484  30.303  10.601 -0.1530  0.3016  0.0043
55447POPE   GL176594  30.618  30.211  10.190  0.1782  0.0781 -0.0386
55447POPE   GL276595  30.361  30.263  10.003  0.2679 -0.2905 -0.0387
55447POPE   C1A76596  30.888  30.415   9.828  0.2796 -0.0151 -0.1143
55447POPE   D2A76597  31.147  30.332   9.484 -0.0883 -0.0093  0.1662
55447POPE   C3A76598  31.207  30.541   9.059  0.1975  0.2649  0.0922
55447POPE   C4A76599  31.043  30.991   8.952  0.3693  0.3621  0.0408
55447POPE   C1B76600  30.305  30.312   9.592  0.1371 -0.1767  0.4758
55447POPE   C2B76601  30.660  30.388   9.361 -0.0803  0.3381 -0.1644
55447POPE   C3B76602  30.773  30.293   8.926  0.0717 -0.1872  0.0127
55447POPE   C4B76603  30.939  30.539   8.610  0.3008  0.3652  0.0225
55448POPE   NH376604   4.501   9.917  15.240 -0.0134 -0.3550  0.1354
55448POPE   PO476605   4.423  10.318  15.046 -0.1150  0.2549  0.0336
55448POPE   GL176606   4.854  10.171  14.999 -0.1553  0.1292  0.2537
55448POPE   GL276607   5.071  10.079  15.263  0.1885  0.0422  0.1368
55448POPE   C1A76608   5.091  10.048  14.764  0.1672  0.3357  0.2614
55448POPE   D2A76609   5.555   9.967  14.553 -0.0278 -0.2227 -0.2618
55448POPE   C3A76610   5.612   9.629  14.681 -0.1665 -0.0345 -0.0335
55448POPE   C4A76611   5.633   9.202  14.580 -0.0456  0.0025 -0.0647
55448POPE   C1B76612   5.440   9.918  15.133  0.1803  0.0465 -0.1927
55448POPE   C2B76613   5.795   9.976  14.980 -0.0625 -0.1149  0.0436
55448POPE   C3B76614   6.065   9.799  14.648 -0.2599  0.2860  0.1294
55448POPE   C4B76615   6.123  10.006  14.365 -0.1156  0.0805  0.0014
55449POPE   NH376616  22.552  15.061  13.950 -0.2046  0.0175  0.1719
55449POPE   PO476617  22.361  15.166  13.510 -0.1370 -0.1080  0.0029
55449POPE   GL176618  21.927  15.185  13.397 -0.2570 -0.1889 -0.0848
55449POPE   GL276619  21.854  15.311  13.646  0.0452 -0.2799  0.2276
55449POPE   C1A76620  21.623  15.249  13.117 -0.2777  0.1231  0.2177
55449POPE   D2A76621  21.323  15.495  13.149  0.3004 -0.1947  0.1076
55449POPE   C3A76622  21.093  15.377  12.912 -0.0744 -0.0589 -0.2028
55449POPE   C4A76623  20.797  15.277  13.055  0.1394 -0.0196  0.2279
55449POPE   C1B76624  21.423  15.308  13.578  0.0169 -0.0503 -0.1755
55449POPE   C2B76625  21.016  15.140  13.549 -0.2683 -0.0242  0.1195
55449POPE   C3B76626  20.734  14.769  13.502 -0.0402 -0.2663  0.0148
55449POPE   C4B76627  20.454  14.937  13.164 -0.0072  0.2816  0.1990
55450POPE   NH376628   1.776   2.677  14.651 -0.0451 -0.1390  0.0342
55450POPE   PO476629   1.944   2.388  14.698 -0.0218  0.0306  0.1453
55450POPE   GL176630   2.011   2.492  14.197  0.3820 -0.1462  0.2084
55450POPE   GL276631   1.756   2.723  14.139 -0.2411  0.1140 -0.4399
55450POPE   C1A76632   1.983   2.488  13.711  0.0472 -0.0937  0.0613
55450POPE   D2A76633   1.959   2.216  13.399 -0.0966  0.0962  0.0870
55450POPE   C3A76634   2.001   2.191  12.886 -0.1788 -0.0741 -0.1527
55450POPE   C4A76635   1.659   2.110  12.567  0.1832 -0.2837  0.1638
55450POPE   C1B76636   2.126   2.930  13.974  0.2338  0.1215  0.1220
55450POPE   C2B76637   2.436   2.902  13.787 -0.1306 -0.0346 -0.0448
55450POPE   C3B76638   2.689   2.667  13.524 -0.3595  0.0896 -0.1968
55450POPE   C4B76639   2.948   2.413  13.289  0.2238  0.2066 -0.3703
55451POPE   NH376640  23.961  24.620  11.266  0.1465 -0.0578 -0.2492
55451POPE   PO476641  23.989  24.250  11.414 -0.1122 -0.4047  0.2477
55451POPE   GL176642  23.599  24.196  11.372  0.0175 -0.2694  0.0058
55451POPE   GL276643  23.434  24.082  11.570  0.0377  0.1419 -0.0471
55451POPE   C1A76644  23.280  24.287  11.044  0.1144 -0.1157 -0.3610
55451POPE   D2A76645  22.917  24.223  10.715  0.2284  0.1445  0.2039
55451POPE   C3A76646  22.784  24.331  10.353  0.2014 -0.0544 -0.3197
55451POPE   C4A76647  22.732  24.213   9.980  0.0008  0.1569 -0.1543
55451POPE   C1B76648  23.142  23.839  11.404  0.0397 -0.0009  0.2097
55451POPE   C2B76649  22.770  23.992  11.158  0.0069 -0.2281  0.0478
55451POPE   C3B76650  22.430  24.213  10.854 -0.2698  0.0589  0.1380
55451POPE   C4B76651  21.984  24.510  10.812  0.0238  0.3258 -0.1612
55452POPE   NH376652  33.243   7.221  10.858 -0.0755 -0.0389  0.0387
55452POPE   PO476653  33.207   7.608  10.764 -0.2416 -0.2243 -0.1025
55452POPE   GL176654  33.222   7.387  10.374  0.0198 -0.4387  0.0061
55452POPE   GL276655  33.136   7.444  10.090 -0.0230 -0.4396  0.0830
55452POPE   C1A76656  33.354   6.999  10.063 -0.0998  0.2754 -0.2907
55452POPE   D2A76657  33.478   6.711   9.688 -0.6195  0.3012 -0.1676
55452POPE   C3A76658  33.876   6.673   9.757 -0.1918 -0.0597 -0.0800
55452POPE   C4A76659  34.323   6.817  10.086  0.0148  0.3236  0.1250
55452POPE   C1B76660  33.162   7.804   9.870 -0.1239 -0.0646  0.2096
55452POPE   C2B76661  33.420   7.740   9.535 -0.0251 -0.0064 -0.2750
55452POPE   C3B76662  33.687   7.459   9.175  0.0588  0.2391  0.0676
55452POPE   C4B76663  34.025   7.105   8.947 -0.1637  0.0954  0.0158
55453POPE   NH376664  21.633  11.983  14.940  0.1043  0.3301  0.1201
55453POPE   PO476665  21.300  11.805  14.694 -0.0214 -0.0329 -0.0148
55453POPE   GL176666  20.952  11.556  14.608  0.2233  0.1557  0.0812
55453POPE   GL276667  21.173  11.414  14.374 -0.1230 -0.2135 -0.1697
55453POPE   C1A76668  20.578  11.438  14.659  0.3504 -0.0072 -0.3140
55453POPE   D2A76669  20.276  11.412  14.300 -0.5065  0.1927  0.0064
55453POPE   C3A76670  19.951  11.264  14.238  0.1726 -0.0461  0.0072
55453POPE   C4A76671  19.572  11.162  14.215  0.0424  0.2018 -0.2475
55453POPE   C1B76672  20.816  11.385  14.100  0.1041  0.0617  0.2199
55453POPE   C2B76673  20.503  11.275  13.763  0.3500  0.1120  0.1588
55453POPE   C3B76674  20.241  11.020  13.500  0.0799  0.1066  0.2324
55453POPE   C4B76675  19.859  10.991  13.236  0.1242 -0.2839  0.0259
55454POPE   NH376676  19.761  10.056  16.793  0.1871  0.1429 -0.1501
55454POPE   PO476677  19.564  10.569  16.673 -0.2040 -0.0488  0.1664
55454POPE   GL176678  19.506  10.377  16.343  0.2337 -0.1146  0.1443
55454POPE   GL276679  19.442  10.600  16.172  0.0853 -0.1845  0.0855
55454POPE   C1A76680  19.360  10.230  15.894  0.0159  0.3098 -0.1817
55454POPE   D2A76681  19.186  10.106  15.629  0.2085 -0.1006 -0.2103
55454POPE   C3A76682  19.287   9.949  15.261  0.1040 -0.2370  0.1980
55454POPE   C4A76683  19.311  10.083  14.900 -0.1407 -0.0268  0.2111
55454POPE   C1B76684  19.095  10.713  16.095 -0.0815 -0.3600  0.0486
55454POPE   C2B76685  18.867  10.604  15.841 -0.0991 -0.0478  0.3352
55454POPE   C3B76686  18.713  10.382  15.368  0.2149 -0.2214 -0.1921
55454POPE   C4B76687  18.835  10.097  15.117  0.2352 -0.1941  0.0696
55455POPE   NH376688  17.064  33.142  18.046  0.0175  0.2184  0.1402
55455POPE   PO476689  16.923  33.057  18.411 -0.1490  0.1830 -0.2832
55455POPE   GL176690  16.491  32.737  18.358 -0.2450 -0.2891  0.0287
55455POPE   GL276691  16.164  32.889  18.379  0.0068  0.1307  0.0062
55455POPE   C1A76692  16.193  32.544  18.011 -0.3635  0.1003 -0.1249
55455POPE   D2A76693  16.285  32.277  17.651 -0.3442 -0.1196  0.2286
55455POPE   C3A76694  16.145  31.880  17.514  0.3447  0.1839  0.0964
55455POPE   C4A76695  15.763  31.694  17.720  0.2865  0.1763 -0.1378
55455POPE   C1B76696  15.800  32.704  18.310  0.4269  0.0650  0.2801
55455POPE   C2B76697  15.385  32.624  18.065 -0.2462  0.2619  0.4867
55455POPE   C3B76698  15.050  32.339  18.173  0.1723  0.1025 -0.0609
55455POPE   C4B76699  14.680  32.261  17.971  0.0266 -0.1436  0.3046
55456DOPE   NH376700   6.714  33.023  20.163 -0.0244  0.0607 -0.2406
55456DOPE   PO476701   7.201  32.991  20.139 -0.1527 -0.1521 -0.1787
55456DOPE   GL176702   7.540  33.191  19.894 -0.0231 -0.0345  0.0677
55456DOPE   GL276703   7.335  33.351  19.523 -0.1683 -0.0263 -0.0651
55456DOPE   C1A76704   7.945  32.991  19.646 -0.1138 -0.0155 -0.3789
55456DOPE   D2A76705   8.174  33.017  19.281 -0.1146  0.1820  0.1332
55456DOPE   C3A76706   8.664  33.067  19.219 -0.4778  0.2956 -0.2050
55456DOPE   C4A76707   8.991  32.925  19.550 -0.1671  0.0939  0.2116
55456DOPE   C1B76708   7.697  33.282  19.187 -0.0399 -0.3721  0.0954
55456DOPE   D2B76709   7.953  33.291  18.803  0.1125 -0.1549  0.2384
55456DOPE   C3B76710   8.434  33.149  18.778  0.1755 -0.0174  0.0301
55456DOPE   C4B76711   8.615  32.735  18.731  0.3038 -0.0182 -0.3347
55457DOPE   NH376712   4.855  16.484  16.200 -0.1026  0.1461 -0.2803
55457DOPE   PO476713   5.111  16.330  16.550  0.0131  0.1989  0.0990
55457DOPE   GL176714   5.390  16.440  16.140 -0.1143 -0.1267  0.0118
55457DOPE   GL276715   5.225  16.438  15.849  0.1275  0.0615  0.1757
55457DOPE   C1A76716   5.745  16.371  15.751 -0.1494 -0.1780  0.2691
55457DOPE   D2A76717   5.886  16.445  15.396 -0.0753  0.0530 -0.1017
55457DOPE   C3A76718   6.322  16.385  15.169 -0.0156  0.0200  0.3094
55457DOPE   C4A76719   6.622  16.042  15.159 -0.1480  0.0335 -0.1004
55457DOPE   C1B76720   4.964  16.535  15.476  0.0525 -0.2545  0.3441
55457DOPE   D2B76721   4.964  16.789  15.119 -0.2904  0.0523 -0.0570
55457DOPE   C3B76722   5.344  16.879  14.926 -0.0876 -0.0721  0.0693
55457DOPE   C4B76723   5.612  17.078  14.627  0.2418 -0.1560 -0.0215
55458DOPE   NH376724  31.034  26.992   9.780  0.1897  0.1540 -0.1255
55458DOPE   PO476725  30.836  27.266   9.416  0.0654 -0.5018  0.1964
55458DOPE   GL176726  30.779  27.667   8.990  0.1804 -0.2959 -0.1228
55458DOPE   GL276727  30.841  27.970   8.904  0.1930  0.0594  0.0435
55458DOPE   C1A76728  30.909  27.591   8.561  0.4182 -0.1068 -0.1140
55458DOPE   D2A76729  30.952  27.851   8.243 -0.2589  0.2177  0.0224
55458DOPE   C3A76730  30.997  27.717   7.920 -0.2066 -0.2591 -0.0129
55458DOPE   C4A76731  31.183  27.393   8.055  0.1360 -0.2525 -0.1635
55458DOPE   C1B76732  30.892  28.264   8.521 -0.3964  0.0009  0.3496
55458DOPE   D2B76733  30.993  28.652   8.211  0.1303  0.4854  0.0986
55458DOPE   C3B76734  31.314  28.819   7.917 -0.1829  0.2463  0.2380
55458DOPE   C4B76735  31.244  28.581   7.583 -0.0840  0.0619 -0.1857
55459DOPE   NH376736  15.262  32.664  19.755  0.3267  0.1724 -0.1821
55459DOPE   PO476737  15.141  32.297  19.654 -0.0826  0.1999  0.0197
55459DOPE   GL176738  14.818  32.426  19.256  0.0589 -0.0317 -0.3173
55459DOPE   GL276739  14.674  32.755  19.408  0.4898 -0.0545  0.1178
55459DOPE   C1A76740  14.587  32.528  18.950 -0.0256  0.2644  0.2494
55459DOPE   D2A76741  14.279  32.625  18.713 -0.0163 -0.0941 -0.2675
55459DOPE   C3A76742  13.865  32.659  18.572 -0.3883 -0.4198 -0.0324
55459DOPE   C4A76743  13.536  32.407  18.643  0.2959  0.4248 -0.2648
55459DOPE   C1B76744  14.333  32.932  19.173 -0.2213  0.0786 -0.1794
55459DOPE   D2B76745  13.933  32.905  19.072  0.0604  0.2828  0.1830
55459DOPE   C3B76746  13.883  33.147  18.680 -0.0109  0.0324  0.1534
55459DOPE   C4B76747  14.023  32.992  18.228 -0.1205  0.0841 -0.0695
55460DOPE   NH376748  23.681  20.756  12.288 -0.1829  0.0244 -0.2086
55460DOPE   PO476749  23.495  20.562  11.913  0.0394 -0.2138 -0.1355
55460DOPE   GL176750  23.180  20.618  11.654  0.4558  0.1231 -0.0000
55460DOPE   GL276751  23.312  20.734  11.393  0.3301  0.2401 -0.2858
55460DOPE   C1A76752  22.915  20.986  11.607 -0.3702 -0.2889  0.0045
55460DOPE   D2A76753  22.506  21.087  11.311  0.1337 -0.3083 -0.4384
55460DOPE   C3A76754  22.091  20.928  11.586 -0.2515 -0.1602 -0.0386
55460DOPE   C4A76755  21.747  20.919  11.904 -0.1424 -0.0111 -0.1787
55460DOPE   C1B76756  22.838  20.667  11.259 -0.1804 -0.1291  0.3109
55460DOPE   D2B76757  22.524  20.716  10.877 -0.1503 -0.0007  0.1774
55460DOPE   C3B76758  22.237  20.442  10.839 -0.2916 -0.0350  0.3846
55460DOPE   C4B76759  21.803  20.486  10.871  0.3534 -0.1338  0.0481
55461DOPE   NH376760  33.268  26.849  11.264 -0.0470 -0.2930  0.1993
55461DOPE   PO476761  33.543  27.260  11.300 -0.0846  0.2204  0.0132
55461DOPE   GL176762  33.924  27.344  10.996  0.1439 -0.1012 -0.0994
55461DOPE   GL276763  34.092  27.129  10.948  0.0546 -0.3659 -0.3134
55461DOPE   C1A76764  33.987  27.797  10.928 -0.1875 -0.1494  0.2505
55461DOPE   D2A76765  34.217  28.097  10.710 -0.1196 -0.1407 -0.0066
55461DOPE   C3A76766  34.293  28.426  10.942 -0.1018 -0.1303  0.0164
55461DOPE   C4A76767  34.362  28.553  11.270  0.2643  0.1300 -0.0223
55461DOPE   C1B76768  34.363  27.417  10.766 -0.1669 -0.2015 -0.0467
55461DOPE   D2B76769  34.602  27.703  10.554  0.3503 -0.2683 -0.3748
55461DOPE   C3B76770  35.050  27.902  10.568  0.1274  0.0514  0.1976
55461DOPE   C4B76771   0.122  27.892  10.393  0.0225  0.0560  0.0966
55462DOPE   NH376772  18.856  19.411  18.459 -0.1515  0.1295  0.4370
55462DOPE   PO476773  18.580  19.771  18.732 -0.1625 -0.0413 -0.0202
55462DOPE   GL176774  18.378  19.740  18.314 -0.0629  0.2130  0.3216
55462DOPE   GL276775  18.308  19.468  18.302 -0.1212 -0.0665  0.0678
55462DOPE   C1A76776  18.111  19.805  17.921 -0.0252  0.1001 -0.1091
55462DOPE   D2A76777  18.190  19.981  17.600  0.0614  0.3067  0.2059
55462DOPE   C3A76778  18.082  19.811  17.096 -0.1644  0.1800 -0.1674
55462DOPE   C4A76779  17.723  19.830  16.768 -0.0397 -0.1059  0.3803
55462DOPE   C1B76780  17.865  19.632  18.314  0.0215  0.1803 -0.3476
55462DOPE   D2B76781  17.613  19.926  18.003 -0.2848 -0.1182  0.0332
55462DOPE   C3B76782  17.723  20.058  17.527 -0.2026 -0.0694 -0.1852
55462DOPE   C4B76783  17.857  20.252  17.062  0.3064 -0.1027 -0.0627
55463DOPE   NH376784   0.537  30.837  16.816 -0.0596 -0.2499  0.4054
55463DOPE   PO476785   0.869  30.675  16.413 -0.0172  0.0016  0.0773
55463DOPE   GL176786   1.143  30.566  16.070  0.2498  0.1359  0.2366
55463DOPE   GL276787   1.083  30.641  15.802 -0.0392  0.2222 -0.2177
55463DOPE   C1A76788   1.460  30.196  15.802  0.0481 -0.0381 -0.1905
55463DOPE   D2A76789   1.678  30.139  15.358 -0.2714 -0.0270 -0.1157
55463DOPE   C3A76790   2.101  30.204  15.154 -0.0374  0.3271 -0.2367
55463DOPE   C4A76791   2.518  30.122  15.015 -0.1952 -0.0784 -0.1505
55463DOPE   C1B76792   1.260  30.509  15.377  0.0560  0.0499  0.0230
55463DOPE   D2B76793   1.421  30.407  14.963  0.2381 -0.1306 -0.2110
55463DOPE   C3B76794   1.801  30.394  14.827  0.2456 -0.1013  0.1392
55463DOPE   C4B76795   2.108  30.080  14.647  0.0284 -0.0779  0.0429
55464DOPE   NH376796  10.462   0.736  20.333 -0.0479  0.2220  0.1579
55464DOPE   PO476797  10.308   1.033  20.459 -0.3793 -0.1060 -0.5761
55464DOPE   GL176798  10.265   1.069  19.952  0.0480  0.0228  0.2386
55464DOPE   GL276799  10.540   0.861  19.852 -0.0484  0.0480 -0.4155
55464DOPE   C1A76800  10.164   1.071  19.554 -0.3542 -0.0732  0.1981
55464DOPE   D2A76801  10.291   0.934  19.241 -0.1722 -0.4967  0.0391
55464DOPE   C3A76802  10.175   0.630  18.984 -0.2170 -0.0322 -0.1868
55464DOPE   C4A76803  10.296   0.350  18.699 -0.1541  0.1833 -0.1379
55464DOPE   C1B76804  10.550   0.619  19.535 -0.2245  0.0629 -0.2608
55464DOPE   D2B76805  10.635   0.461  19.212 -0.2999 -0.6851  0.3328
55464DOPE   C3B76806  10.620   0.763  18.823  0.0214  0.3437  0.0162
55464DOPE   C4B76807  10.750   0.707  18.415  0.1898 -0.1861  0.0852
55465DOPE   NH376808   2.256  16.829  11.610 -0.0956  0.1424 -0.2101
55465DOPE   PO476809   1.937  16.512  11.484 -0.1500 -0.1105  0.1094
55465DOPE   GL176810   2.427  16.315  11.554 -0.0024  0.2785 -0.2042
55465DOPE   GL276811   2.618  16.553  11.402  0.0928  0.2135  0.2255
55465DOPE   C1A76812   2.716  16.118  11.785  0.1107  0.0059  0.4741
55465DOPE   D2A76813   3.146  16.033  11.819  0.1370  0.0963 -0.0863
55465DOPE   C3A76814   3.474  16.165  12.160  0.0455 -0.2608  0.1642
55465DOPE   C4A76815   3.668  16.072  12.574 -0.2012 -0.0656 -0.0249
55465DOPE   C1B76816   2.992  16.368  11.372 -0.0370 -0.1133  0.2602
55465DOPE   D2B76817   3.351  16.382  11.290 -0.1238  0.1660  0.0633
55465DOPE   C3B76818   3.586  16.320  11.058 -0.0927  0.2934  0.0253
55465DOPE   C4B76819   3.854  16.081  10.954 -0.2005 -0.0808 -0.0064
55466DOPE   NH376820   7.684   9.869  18.229  0.2353 -0.1753 -0.1116
55466DOPE   PO476821   7.758  10.348  18.125  0.1808  0.1005 -0.3750
55466DOPE   GL176822   7.876  10.150  17.745  0.0557  0.0575 -0.1061
55466DOPE   GL276823   7.780   9.862  17.684  0.0095  0.0820  0.0029
55466DOPE   C1A76824   7.900  10.239  17.358 -0.4043  0.0585 -0.0928
55466DOPE   D2A76825   7.817  10.271  16.943 -0.0706  0.2185 -0.1580
55466DOPE   C3A76826   7.802   9.986  16.628  0.3375  0.0514  0.2731
55466DOPE   C4A76827   7.725   9.635  16.512  0.1776 -0.1765 -0.2170
55466DOPE   C1B76828   7.932   9.731  17.262 -0.0219  0.0838 -0.1313
55466DOPE   D2B76829   8.006   9.600  16.904  0.1409  0.0836  0.0320
55466DOPE   C3B76830   8.273   9.806  16.503  0.0789  0.0626  0.2252
55466DOPE   C4B76831   8.424  10.142  16.142  0.1055 -0.1398  0.0931
55467DOPE   NH376832  30.683   8.827   7.296 -0.0851  0.0682 -0.0321
55467DOPE   PO476833  30.236   8.808   6.997 -0.2267  0.3429  0.2805
55467DOPE   GL176834  30.369   8.603   6.785  0.0143 -0.0246  0.0318
55467DOPE   GL276835  30.578   8.392   6.887 -0.3208 -0.2058  0.2709
55467DOPE   C1A76836  30.418   8.311   6.437 -0.1922  0.0491  0.0658
55467DOPE   D2A76837  30.547   8.064   6.106  0.1776  0.0563 -0.1586
55467DOPE   C3A76838  30.981   8.050   5.920  0.1120  0.1791  0.3187
55467DOPE   C4A76839  31.193   7.776   5.924  0.0006  0.0598 -0.1565
55467DOPE   C1B76840  30.877   8.142   6.580 -0.0463 -0.0805 -0.0295
55467DOPE   D2B76841  31.037   7.822   6.430  0.3516 -0.0301  0.1113
55467DOPE   C3B76842  31.599   7.812   6.275 -0.0141 -0.1279 -0.1476
55467DOPE   C4B76843  31.888   7.425   6.129  0.1630 -0.0910 -0.0259
55468DOPE   NH376844   7.138  34.704  20.029  0.4157 -0.0163 -0.0802
55468DOPE   PO476845   7.436  34.980  20.062  0.2175 -0.0465  0.3064
55468DOPE   GL176846   7.411  34.969  19.631  0.3801 -0.0341 -0.0013
55468DOPE   GL276847   7.778  34.932  19.545 -0.0564  0.2967  0.2219
55468DOPE   C1A76848   7.364  34.950  19.160 -0.1501  0.1331 -0.0952
55468DOPE   D2A76849   7.518  34.696  18.802 -0.1750  0.2460  0.4866
55468DOPE   C3A76850   7.252  34.663  18.444 -0.0773 -0.0509  0.1407
55468DOPE   C4A76851   6.874  34.453  18.381 -0.1108 -0.1382 -0.0260
55468DOPE   C1B76852   7.861  34.903  19.096  0.0508  0.0560 -0.1860
55468DOPE   D2B76853   8.193  34.614  18.938 -0.0082 -0.1532  0.1143
55468DOPE   C3B76854   7.909  34.397  18.763  0.0913  0.1334  0.1431
55468DOPE   C4B76855   7.848  34.487  18.259 -0.0735  0.0675  0.0983
55469DOPE   NH376856  17.390  15.542  17.876 -0.0895 -0.0776 -0.2317
55469DOPE   PO476857  17.085  15.198  17.881  0.1543 -0.1990  0.0521
55469DOPE   GL176858  16.760  15.190  17.664 -0.2490 -0.0094  0.1986
55469DOPE   GL276859  16.525  15.153  17.816  0.0611 -0.0087 -0.2151
55469DOPE   C1A76860  16.553  15.263  17.299 -0.0522 -0.2043  0.2502
55469DOPE   D2A76861  16.346  15.306  16.939  0.1741 -0.2710  0.0001
55469DOPE   C3A76862  16.045  15.262  16.816 -0.0132 -0.2117  0.0164
55469DOPE   C4A76863  15.881  15.000  16.525 -0.1565 -0.0990  0.0181
55469DOPE   C1B76864  16.640  14.724  17.703  0.0974 -0.0700 -0.0108
55469DOPE   D2B76865  16.643  14.618  17.239  0.1329  0.0010 -0.0668
55469DOPE   C3B76866  16.386  14.318  16.971  0.3036 -0.4503 -0.3137
55469DOPE   C4B76867  16.344  14.120  16.537 -0.0371 -0.1759 -0.0423
55470DOPE   NH376868   1.147  28.916  16.583  0.0066 -0.0350 -0.3138
55470DOPE   PO476869   0.960  29.344  16.378  0.1301 -0.1612  0.0920
55470DOPE   GL176870   1.254  29.069  16.139  0.1196 -0.1594  0.0355
55470DOPE   GL276871   1.207  28.736  16.049  0.1960  0.1830  0.0881
55470DOPE   C1A76872   1.588  29.123  15.774  0.2700 -0.0159  0.0993
55470DOPE   D2A76873   1.579  29.160  15.397  0.1437  0.1084 -0.3285
55470DOPE   C3A76874   1.800  29.214  15.077 -0.1046 -0.0523 -0.2115
55470DOPE   C4A76875   1.935  29.042  14.788 -0.1457  0.2027  0.2029
55470DOPE   C1B76876   1.360  28.687  15.652 -0.0207  0.1611 -0.0500
55470DOPE   D2B76877   1.472  28.700  15.211  0.1755 -0.3600 -0.2301
55470DOPE   C3B76878   1.619  28.656  14.795  0.0335 -0.0465  0.0737
55470DOPE   C4B76879   1.576  28.876  14.473 -0.0375 -0.2809  0.2990
55471DOPE   NH376880  35.368  24.387  12.288  0.2343  0.1615  0.1070
55471DOPE   PO476881   0.233  24.183  12.415  0.1107 -0.0232  0.1729
55471DOPE   GL176882   0.659  24.198  12.378  0.1230  0.0679  0.2961
55471DOPE   GL276883   0.834  23.990  12.336  0.0629  0.1615  0.0338
55471DOPE   C1A76884   0.952  24.522  12.542  0.1888  0.2707  0.1059
55471DOPE   D2A76885   0.889  24.954  12.457  0.0100  0.2244 -0.0084
55471DOPE   C3A76886   0.589  25.280  12.573  0.3749  0.1556  0.0069
55471DOPE   C4A76887   0.250  25.114  12.585 -0.1299 -0.3002  0.0024
55471DOPE   C1B76888   1.269  24.167  12.357 -0.1188 -0.0877 -0.1094
55471DOPE   D2B76889   1.752  24.166  12.469 -0.1114 -0.0867  0.0861
55471DOPE   C3B76890   2.055  24.347  12.307  0.0604  0.0197 -0.0610
55471DOPE   C4B76891   2.329  24.666  12.167  0.0345 -0.3382 -0.0856
55472DOPE   NH376892  26.614  10.244   7.329 -0.4309 -0.1772 -0.1471
55472DOPE   PO476893  26.638  10.546   6.980 -0.0970  0.1895 -0.0242
55472DOPE   GL176894  26.166  10.605   6.970  0.1628  0.1668 -0.0464
55472DOPE   GL276895  26.060  10.674   6.785 -0.1120 -0.0721 -0.2163
55472DOPE   C1A76896  25.831  10.503   7.202  0.0476 -0.0639 -0.1636
55472DOPE   D2A76897  25.610  10.351   7.547  0.2124 -0.2585 -0.1706
55472DOPE   C3A76898  25.232  10.249   7.519  0.0957 -0.0195  0.1473
55472DOPE   C4A76899  24.931  10.149   7.331  0.1087  0.1412  0.1842
55472DOPE   C1B76900  25.767  10.513   6.682  0.1635  0.0709 -0.1073
55472DOPE   D2B76901  25.420  10.451   6.414  0.1891 -0.2120 -0.0522
55472DOPE   C3B76902  25.331  10.181   6.242  0.0459  0.0765 -0.1901
55472DOPE   C4B76903  24.934   9.928   6.106 -0.2354 -0.1336  0.0180
55473DOPE   NH376904  28.283  15.189   4.419  0.3134  0.2191  0.0756
55473DOPE   PO476905  28.356  15.050   3.934 -0.1108  0.0106 -0.2330
55473DOPE   GL176906  28.054  15.012   3.663 -0.0072 -0.2020 -0.2348
55473DOPE   GL276907  27.871  15.137   3.817 -0.1234 -0.0258 -0.0239
55473DOPE   C1A76908  27.803  14.908   3.293 -0.0268  0.0111 -0.4430
55473DOPE   D2A76909  27.786  14.886   2.928  0.1517  0.0844  0.0143
55473DOPE   C3A76910  27.479  14.705   2.849 -0.0034  0.0703 -0.1863
55473DOPE   C4A76911  27.320  14.485   2.584 -0.1914  0.2815 -0.3761
55473DOPE   C1B76912  27.412  14.989   3.691  0.1698 -0.1962  0.1140
55473DOPE   D2B76913  27.265  14.931   3.305 -0.2281 -0.1896 -0.0835
55473DOPE   C3B76914  27.104  14.627   3.173 -0.2755  0.0793  0.0645
55473DOPE   C4B76915  26.934  14.399   2.817 -0.4279 -0.0975 -0.2126
55474DOPE   NH376916  22.746  27.962  11.860 -0.5023 -0.0719  0.0744
55474DOPE   PO476917  22.782  27.759  12.175 -0.4295 -0.3171 -0.0248
55474DOPE   GL176918  22.613  27.479  11.899 -0.3445  0.1137 -0.1682
55474DOPE   GL276919  22.290  27.606  11.874  0.0774 -0.2699  0.0331
55474DOPE   C1A76920  22.555  27.070  11.616 -0.1170  0.1891  0.2570
55474DOPE   D2A76921  22.606  26.613  11.504  0.0525 -0.0371  0.0265
55474DOPE   C3A76922  22.236  26.356  11.532  0.1451  0.1927  0.0364
55474DOPE   C4A76923  21.865  26.373  11.723 -0.0670 -0.0435 -0.2006
55474DOPE   C1B76924  22.127  27.284  11.764  0.1097  0.0436  0.1617
55474DOPE   D2B76925  21.724  27.317  11.604 -0.0301  0.3267 -0.0670
55474DOPE   C3B76926  21.532  27.045  11.223 -0.1786 -0.0424  0.0200
55474DOPE   C4B76927  21.618  26.765  10.890  0.1405 -0.4298 -0.1520
55475DOPE   NH376928  25.525   9.684   9.402 -0.2809 -0.1452  0.1562
55475DOPE   PO476929  25.631   9.939   8.980  0.1764  0.0338 -0.4516
55475DOPE   GL176930  25.342   9.674   8.943 -0.3425  0.0771 -0.0490
55475DOPE   GL276931  25.040   9.655   8.818  0.0028  0.1063  0.0614
55475DOPE   C1A76932  25.279   9.206   8.737 -0.1312  0.0214  0.1203
55475DOPE   D2A76933  24.903   9.067   8.549 -0.2239 -0.2801  0.0531
55475DOPE   C3A76934  24.580   8.883   8.406  0.0768 -0.0806 -0.1395
55475DOPE   C4A76935  24.263   8.565   8.644  0.0699 -0.0166 -0.0819
55475DOPE   C1B76936  24.605   9.494   8.681  0.0641  0.0365  0.1045
55475DOPE   D2B76937  24.264   9.192   8.621  0.1923  0.1426  0.3027
55475DOPE   C3B76938  23.961   9.307   8.956  0.0580  0.1456  0.2361
55475DOPE   C4B76939  23.675   9.034   9.234  0.0289  0.3497 -0.0265
55476DOPE   NH376940  15.795  17.000  18.726  0.2677  0.0270  0.1005
55476DOPE   PO476941  15.402  16.757  18.841  0.2404  0.2519  0.0100
55476DOPE   GL176942  15.264  17.189  18.713 -0.0729  0.3997 -0.3184
55476DOPE   GL276943  15.046  17.128  18.914  0.2551  0.1400  0.0353
55476DOPE   C1A76944  15.303  17.424  18.336 -0.0217 -0.0672  0.2349
55476DOPE   D2A76945  15.183  17.617  17.933  0.0115  0.1640 -0.4015
55476DOPE   C3A76946  15.005  17.978  17.840  0.0548 -0.0943 -0.1317
55476DOPE   C4A76947  14.829  18.063  17.352  0.0781  0.4487  0.1746
55476DOPE   C1B76948  14.630  17.215  18.816  0.2856  0.2485 -0.3331
55476DOPE   D2B76949  14.281  17.288  18.419  0.0677 -0.0867  0.0985
55476DOPE   C3B76950  14.384  17.382  17.984 -0.2299  0.1162  0.2870
55476DOPE   C4B76951  14.656  17.668  17.780 -0.0926 -0.0481 -0.2074
55477DOPE   NH376952  13.670  19.749  21.718 -0.1600  0.3135  0.0388
55477DOPE   PO476953  13.303  20.032  21.621  0.1248 -0.1049  0.0371
55477DOPE   GL176954  13.106  20.198  21.189 -0.1241  0.0697  0.0333
55477DOPE   GL276955  12.854  20.544  21.182 -0.1005 -0.2648  0.0543
55477DOPE   C1A76956  13.254  20.345  20.879  0.0111  0.0182  0.1872
55477DOPE   D2A76957  13.158  20.320  20.364  0.0942 -0.1595  0.1599
55477DOPE   C3A76958  12.745  20.206  20.188 -0.0272 -0.3484 -0.0154
55477DOPE   C4A76959  12.323  20.148  20.397  0.1502 -0.2229 -0.0093
55477DOPE   C1B76960  12.771  20.935  20.953 -0.0363 -0.0337  0.1108
55477DOPE   D2B76961  12.524  21.052  20.595 -0.0885 -0.0343  0.0342
55477DOPE   C3B76962  12.532  20.667  20.253 -0.2098 -0.2445 -0.1682
55477DOPE   C4B76963  12.402  20.464  19.976 -0.0173  0.1023  0.0678
55478DOPE   NH376964   2.713  17.204  12.270  0.0063  0.1667 -0.0562
55478DOPE   PO476965   2.495  17.022  11.960 -0.1999 -0.2657  0.0470
55478DOPE   GL176966   2.679  16.715  12.169 -0.0485  0.1208 -0.0903
55478DOPE   GL276967   2.943  16.844  11.992 -0.2712 -0.1352 -0.1804
55478DOPE   C1A76968   2.979  16.366  12.248  0.0469  0.1282 -0.1515
55478DOPE   D2A76969   3.218  16.196  12.544  0.0251 -0.0969 -0.0260
55478DOPE   C3A76970   2.966  16.001  12.782 -0.3825  0.0713  0.0220
55478DOPE   C4A76971   3.221  15.839  13.117 -0.0259 -0.0493  0.2979
55478DOPE   C1B76972   3.204  16.581  11.821 -0.0029 -0.0869  0.2192
55478DOPE   D2B76973   3.680  16.545  11.685  0.4435 -0.1311 -0.2968
55478DOPE   C3B76974   3.740  16.166  11.544 -0.1437 -0.1358 -0.0880
55478DOPE   C4B76975   3.831  15.709  11.367 -0.1052 -0.3631 -0.0881
55479DOPE   NH376976  21.327   1.966  13.761 -0.0241  0.0718 -0.1415
55479DOPE   PO476977  20.834   1.843  13.756  0.0349  0.1005  0.0397
55479DOPE   GL176978  20.780   2.274  13.506  0.0674 -0.1006 -0.0962
55479DOPE   GL276979  20.986   2.494  13.595  0.1294  0.2354 -0.1985
55479DOPE   C1A76980  20.594   2.376  13.149 -0.0307 -0.0904 -0.1908
55479DOPE   D2A76981  20.407   2.561  12.814 -0.0836  0.1060  0.0192
55479DOPE   C3A76982  20.030   2.557  12.479  0.1714  0.1016 -0.2253
55479DOPE   C4A76983  19.647   2.471  12.180 -0.2855 -0.1577 -0.2166
55479DOPE   C1B76984  20.817   2.830  13.485  0.0573 -0.0385  0.1159
55479DOPE   D2B76985  20.615   2.997  13.212 -0.0451  0.0019 -0.0455
55479DOPE   C3B76986  20.361   3.310  13.152 -0.0716 -0.1727 -0.0390
55479DOPE   C4B76987  19.941   3.550  12.950 -0.0313 -0.2296  0.2263
55480DOPE   NH376988  17.880   6.310  17.491 -0.0080  0.0064 -0.0541
55480DOPE   PO476989  17.609   6.122  17.252 -0.2495  0.1413 -0.0358
55480DOPE   GL176990  17.562   6.377  16.833 -0.2435 -0.0079  0.1824
55480DOPE   GL276991  17.712   6.698  16.886  0.0503  0.2324  0.0354
55480DOPE   C1A76992  17.325   6.457  16.582 -0.0088  0.0284  0.0500
55480DOPE   D2A76993  17.393   6.232  16.153 -0.1173  0.0182  0.1892
55480DOPE   C3A76994  17.235   6.287  15.754  0.1449  0.0392  0.2289
55480DOPE   C4A76995  17.394   6.310  15.340  0.2322 -0.0551  0.0094
55480DOPE   C1B76996  17.679   6.771  16.499  0.0971  0.2283 -0.0032
55480DOPE   D2B76997  17.360   6.785  16.086  0.0789  0.0430  0.1287
55480DOPE   C3B76998  16.995   6.478  16.180 -0.0296  0.0548  0.2975
55480DOPE   C4B76999  16.613   6.422  16.145 -0.1483  0.1314 -0.0740
55481DOPE   NH377000  34.554  28.521  14.201  0.2558 -0.2394  0.0494
55481DOPE   PO477001  34.671  28.807  14.433 -0.1182  0.1910 -0.2294
55481DOPE   GL177002  35.081  28.852  14.292 -0.0626  0.1176 -0.1102
55481DOPE   GL277003  35.045  28.683  14.088 -0.1979  0.4699 -0.5306
55481DOPE   C1A77004   0.164  28.987  14.447 -0.2794 -0.1992  0.2115
55481DOPE   D2A77005   0.565  28.894  14.297  0.1590  0.1864  0.1718
55481DOPE   C3A77006   0.760  29.034  13.951 -0.1809 -0.2849  0.0568
55481DOPE   C4A77007   1.066  29.013  13.643  0.2236  0.0740 -0.2436
55481DOPE   C1B77008  35.020  28.531  13.721  0.0786  0.2006  0.1491
55481DOPE   D2B77009  35.384  28.271  13.505 -0.1331  0.1647 -0.1731
55481DOPE   C3B77010   0.318  28.342  13.349  0.0036 -0.0137  0.1126
55481DOPE   C4B77011   0.781  28.322  13.157 -0.1347  0.2278  0.1212
55482DOPE   NH377012   4.486   5.186  17.132  0.0550  0.3133  0.0220
55482DOPE   PO477013   4.749   5.343  16.887 -0.2920 -0.0590  0.0958
55482DOPE   GL177014   5.119   5.502  16.776  0.1879  0.1375  0.0486
55482DOPE   GL277015   5.217   5.402  17.070  0.1430 -0.0522 -0.2073
55482DOPE   C1A77016   5.539   5.302  16.577  0.3574  0.1700  0.1475
55482DOPE   D2A77017   5.809   5.175  16.262  0.2733  0.0934  0.2293
55482DOPE   C3A77018   5.920   5.027  15.809  0.1758 -0.1844 -0.2477
55482DOPE   C4A77019   5.887   5.151  15.437  0.0718  0.2000 -0.2163
55482DOPE   C1B77020   5.489   5.707  16.931  0.1102  0.3568 -0.0348
55482DOPE   D2B77021   5.836   5.703  16.675  0.0978  0.1308 -0.1023
55482DOPE   C3B77022   6.328   5.682  16.667 -0.1138 -0.0711 -0.2427
55482DOPE   C4B77023   6.810   5.770  16.634  0.0800 -0.1216 -0.1790
55483DOPE   NH377024  24.101  18.929  10.240  0.1478  0.0635 -0.2035
55483DOPE   PO477025  24.184  18.612  10.407 -0.0981  0.4540 -0.4511
55483DOPE   GL177026  23.744  18.544  10.270  0.1482  0.3588 -0.2395
55483DOPE   GL277027  23.639  18.846  10.237 -0.3410  0.1505 -0.2266
55483DOPE   C1A77028  23.447  18.368   9.990  0.2347 -0.0820  0.2602
55483DOPE   D2A77029  22.966  18.417   9.892  0.1231  0.1048 -0.2526
55483DOPE   C3A77030  22.534  18.364   9.799  0.0758  0.1143  0.2410
55483DOPE   C4A77031  22.339  18.429   9.462  0.1649 -0.0378 -0.0730
55483DOPE   C1B77032  23.281  18.932  10.089  0.3870 -0.0354  0.0520
55483DOPE   D2B77033  22.964  18.886  10.117 -0.1948  0.0996 -0.4598
55483DOPE   C3B77034  22.667  18.876   9.834 -0.0973  0.0110 -0.1446
55483DOPE   C4B77035  22.449  18.954   9.381 -0.1666 -0.0752  0.0005
55484DOPE   NH377036   4.365  20.766  17.963  0.0720  0.3179 -0.2346
55484DOPE   PO477037   4.569  21.220  18.058 -0.0159 -0.2212  0.1401
55484DOPE   GL177038   5.128  21.094  17.935 -0.1217 -0.2599  0.0824
55484DOPE   GL277039   5.231  20.733  17.943  0.0081  0.2715 -0.1558
55484DOPE   C1A77040   5.515  21.121  17.780  0.1749 -0.1347  0.2324
55484DOPE   D2A77041   5.932  20.889  17.791  0.0608  0.0066  0.3355
55484DOPE   C3A77042   6.135  20.840  17.462  0.0846  0.1414 -0.0338
55484DOPE   C4A77043   6.501  20.638  17.253  0.0107 -0.0147  0.1575
55484DOPE   C1B77044   5.609  20.674  18.055  0.1241  0.2811  0.3027
55484DOPE   D2B77045   5.959  20.410  17.982 -0.0839 -0.1012  0.1645
55484DOPE   C3B77046   6.346  20.503  17.724  0.3128 -0.0993  0.0765
55484DOPE   C4B77047   6.602  20.862  17.687  0.2183 -0.4260 -0.0116
55485DOPE   NH377048  35.040   4.130  12.525  0.0632  0.0487  0.1082
55485DOPE   PO477049  35.310   3.949  12.289 -0.0884  0.0532  0.4570
55485DOPE   GL177050   0.079   3.651  12.125 -0.2211  0.0389 -0.0417
55485DOPE   GL277051  35.208   3.491  12.007  0.0462 -0.2121  0.1384
55485DOPE   C1A77052   0.554   3.496  12.111  0.0760 -0.1448  0.3465
55485DOPE   D2A77053   0.738   3.205  11.953 -0.3229 -0.0493  0.0830
55485DOPE   C3A77054   0.763   2.730  11.842  0.3324 -0.1573  0.2112
55485DOPE   C4A77055   0.713   2.460  11.433  0.1091  0.0871  0.0071
55485DOPE   C1B77056   0.183   3.235  11.827 -0.0018  0.2313 -0.0775
55485DOPE   D2B77057   0.493   2.944  11.473  0.2297  0.0463  0.2095
55485DOPE   C3B77058   0.914   2.914  11.193  0.0292  0.1227  0.0047
55485DOPE   C4B77059   1.289   2.923  11.229 -0.1951 -0.1712  0.0580
55486PAPE   NH377060  14.118   9.670  18.711  0.3734  0.0496 -0.0587
55486PAPE   PO477061  14.286   9.576  18.461  0.4227  0.3224  0.2810
55486PAPE   GL177062  13.976   9.333  18.193  0.0107 -0.3267 -0.0025
55486PAPE   GL277063  13.820   9.420  17.912  0.0293 -0.0554  0.4023
55486PAPE   D1A77064  13.477   9.252  18.162 -0.0263 -0.0043 -0.2046
55486PAPE   D2A77065  13.262   9.367  18.418  0.2594  0.1783 -0.0968
55486PAPE   D3A77066  12.961   9.718  18.314 -0.0354  0.1130  0.0964
55486PAPE   D4A77067  12.943   9.416  17.947 -0.1934  0.0617 -0.0116
55486PAPE   C5A77068  12.616   9.329  17.793  0.0830 -0.0191 -0.0474
55486PAPE   C1B77069  13.514   9.382  17.628 -0.0128 -0.3981 -0.1377
55486PAPE   C2B77070  13.395   9.399  17.288  0.3444  0.2784 -0.0644
55486PAPE   C3B77071  13.236   9.241  16.957  0.2052 -0.2267 -0.3284
55486PAPE   C4B77072  12.890   9.317  16.673 -0.3646  0.0662  0.2106
55487PAPE   NH377073   4.537  17.573  16.393  0.0086 -0.0371 -0.1618
55487PAPE   PO477074   4.494  18.060  16.391 -0.0870 -0.0275  0.0072
55487PAPE   GL177075   4.944  18.254  16.422 -0.0341  0.0697 -0.1646
55487PAPE   GL277076   5.006  18.454  16.190  0.0433 -0.1684  0.1262
55487PAPE   D1A77077   5.161  18.561  16.640  0.2122 -0.3068  0.3710
55487PAPE   D2A77078   5.294  18.369  17.047  0.1881  0.0239 -0.3143
55487PAPE   D3A77079   5.636  18.100  17.053 -0.0030 -0.2722 -0.1388
55487PAPE   D4A77080   5.989  18.332  17.085 -0.1057  0.2502  0.0468
55487PAPE   C5A77081   6.321  18.590  17.242 -0.0305 -0.1208  0.0701
55487PAPE   C1B77082   5.428  18.384  16.135  0.0449  0.0775 -0.2406
55487PAPE   C2B77083   5.875  18.509  15.840  0.0323  0.1219  0.0098
55487PAPE   C3B77084   6.238  18.632  15.569  0.2376  0.0928  0.2417
55487PAPE   C4B77085   6.198  18.670  15.136 -0.0345  0.0431 -0.0733
55488PAPE   NH377086  24.518  20.300   9.380 -0.4614 -0.2809 -0.0445
55488PAPE   PO477087  24.718  20.408   9.140 -0.2715 -0.0496 -0.2457
55488PAPE   GL177088  24.500  20.264   8.795 -0.1200 -0.0501  0.2031
55488PAPE   GL277089  24.269  20.367   8.740 -0.0289 -0.0523  0.1126
55488PAPE   D1A77090  24.477  19.830   8.657 -0.1631 -0.1144  0.2324
55488PAPE   D2A77091  24.001  19.895   8.649 -0.0320 -0.0526  0.1941
55488PAPE   D3A77092  23.681  19.783   8.393  0.0129  0.3151  0.2433
55488PAPE   D4A77093  23.317  19.991   8.353  0.1464 -0.0750  0.2339
55488PAPE   C5A77094  23.230  19.817   7.915  0.1411  0.1287 -0.1676
55488PAPE   C1B77095  23.856  20.396   8.578  0.1025  0.0975 -0.0059
55488PAPE   C2B77096  23.467  20.475   8.388  0.1211 -0.0822  0.3769
55488PAPE   C3B77097  22.951  20.332   8.292  0.1008  0.0740  0.0761
55488PAPE   C4B77098  22.744  20.060   8.030 -0.1155 -0.0227 -0.0784
55489PAPE   NH377099  11.299   5.642  18.828 -0.0199  0.2377 -0.2326
55489PAPE   PO477100  11.628   5.811  19.043  0.3462 -0.1007  0.1643
55489PAPE   GL177101  11.594   5.903  18.545  0.0550  0.0391 -0.0055
55489PAPE   GL277102  11.448   6.214  18.472 -0.3490  0.2704 -0.5106
55489PAPE   D1A77103  11.891   5.960  18.169 -0.0038 -0.0508 -0.0401
55489PAPE   D2A77104  12.259   5.957  18.352 -0.0172  0.1100  0.0002
55489PAPE   D3A77105  12.684   6.175  18.123  0.1285 -0.1192  0.1033
55489PAPE   D4A77106  12.561   5.684  17.992  0.2088 -0.2374  0.0186
55489PAPE   C5A77107  12.500   5.543  17.645  0.2721 -0.4212  0.0311
55489PAPE   C1B77108  11.545   6.298  18.062  0.1725  0.2693  0.1842
55489PAPE   C2B77109  11.549   6.000  17.612 -0.3334  0.2953 -0.0447
55489PAPE   C3B77110  11.474   5.904  17.228 -0.2534 -0.1569  0.0393
55489PAPE   C4B77111  11.686   5.838  16.895 -0.4877  0.0942  0.3955
55490PAPE   NH377112  17.541  26.436  20.667 -0.0972  0.4322 -0.3214
55490PAPE   PO477113  16.990  26.421  20.752  0.2040  0.1394  0.1153
55490PAPE   GL177114  16.829  26.277  20.358 -0.2578 -0.1321  0.0581
55490PAPE   GL277115  16.946  26.009  20.179  0.2828  0.0783 -0.0812
55490PAPE   D1A77116  16.625  26.282  19.904 -0.1158 -0.2465 -0.1092
55490PAPE   D2A77117  16.633  26.629  19.952  0.1044  0.0874 -0.2941
55490PAPE   D3A77118  16.222  26.556  19.762  0.0999  0.2547  0.1351
55490PAPE   D4A77119  16.311  26.269  19.460  0.2262 -0.1987 -0.1050
55490PAPE   C5A77120  16.473  26.190  19.060 -0.2478  0.0506  0.0928
55490PAPE   C1B77121  16.728  25.848  19.779 -0.0124 -0.1374 -0.0057
55490PAPE   C2B77122  16.638  25.809  19.310 -0.1027  0.1499  0.1075
55490PAPE   C3B77123  16.839  25.895  18.850 -0.0129 -0.1722  0.1702
55490PAPE   C4B77124  16.842  26.228  18.578 -0.4040  0.1763  0.2482
55491PAPE   NH377125  16.978   9.163  18.137 -0.0022  0.3033  0.0266
55491PAPE   PO477126  17.151   8.868  17.825 -0.1520 -0.0189 -0.2812
55491PAPE   GL177127  17.138   9.235  17.666  0.1652 -0.0865 -0.0546
55491PAPE   GL277128  17.474   9.305  17.438 -0.0929 -0.0342  0.1547
55491PAPE   D1A77129  17.152   9.653  17.486  0.2121 -0.0737 -0.1535
55491PAPE   D2A77130  17.040  10.038  17.775  0.0368  0.2059  0.1397
55491PAPE   D3A77131  16.582  10.227  17.823  0.0940  0.0657 -0.0496
55491PAPE   D4A77132  16.700  10.582  18.006  0.1024 -0.1513  0.0213
55491PAPE   C5A77133  17.141  10.669  17.876 -0.4058 -0.0863 -0.0818
55491PAPE   C1B77134  17.332   9.158  17.179  0.0701 -0.2632 -0.0138
55491PAPE   C2B77135  16.962   9.149  17.218  0.1812 -0.4169  0.0241
55491PAPE   C3B77136  16.629   9.375  17.228 -0.1099 -0.0713 -0.1611
55491PAPE   C4B77137  16.300   9.451  17.441  0.1474 -0.1677  0.0721
55492PAPE   NH377138  32.518  16.275   4.963 -0.0967  0.2471 -0.0134
55492PAPE   PO477139  32.134  16.652   4.896 -0.2383  0.1400  0.2617
55492PAPE   GL177140  31.940  16.240   4.909 -0.0980  0.1601 -0.0189
55492PAPE   GL277141  32.135  16.173   4.652  0.1514  0.0361 -0.0876
55492PAPE   D1A77142  31.819  15.814   4.727  0.0292 -0.1448  0.0508
55492PAPE   D2A77143  31.526  15.643   4.974 -0.1645 -0.1655 -0.0977
55492PAPE   D3A77144  31.941  15.412   4.950  0.0791  0.2363 -0.1478
55492PAPE   D4A77145  32.357  15.202   4.910  0.2434 -0.0372 -0.1076
55492PAPE   C5A77146  32.364  14.823   4.824 -0.2815  0.1709  0.1646
55492PAPE   C1B77147  32.185  16.351   4.279  0.3010  0.0511 -0.1244
55492PAPE   C2B77148  32.261  16.107   3.855 -0.0656  0.3984 -0.0528
55492PAPE   C3B77149  32.665  15.889   3.835  0.1642  0.1004 -0.0716
55492PAPE   C4B77150  32.824  15.584   3.655  0.0716 -0.0989  0.3877
55493PAPE   NH377151   3.210  15.037  14.362  0.1307  0.1426  0.2361
55493PAPE   PO477152   3.021  14.828  14.056  0.1255  0.3214 -0.1696
55493PAPE   GL177153   3.328  14.579  13.933 -0.3360 -0.0848  0.0942
55493PAPE   GL277154   3.489  14.608  14.181 -0.0243  0.0859 -0.1460
55493PAPE   D1A77155   3.588  14.419  13.561  0.0781 -0.0219  0.4781
55493PAPE   D2A77156   3.848  14.310  13.930  0.1946  0.0020  0.0147
55493PAPE   D3A77157   4.086  14.620  13.586 -0.0309 -0.2377 -0.1544
55493PAPE   D4A77158   4.121  14.539  13.223 -0.0196 -0.1126 -0.0421
55493PAPE   C5A77159   4.048  14.424  12.847  0.3617  0.0679 -0.2000
55493PAPE   C1B77160   3.860  14.810  13.971 -0.2381 -0.2630  0.0306
55493PAPE   C2B77161   4.161  15.023  13.852  0.0432  0.1990 -0.1855
55493PAPE   C3B77162   4.538  15.071  13.675 -0.1293  0.0316  0.0318
55493PAPE   C4B77163   4.520  14.779  13.331  0.0625  0.0210 -0.2569
55494DGPE   NH377164  32.762  14.186   5.446  0.2936  0.0509  0.0681
55494DGPE   PO477165  32.985  13.820   5.544 -0.2976 -0.0119 -0.0598
55494DGPE   GL177166  33.251  13.814   5.233  0.4094 -0.1853  0.2861
55494DGPE   GL277167  33.464  13.977   5.322 -0.1326  0.1142  0.0383
55494DGPE   C1A77168  33.398  13.778   4.756 -0.4405 -0.0099 -0.1218
55494DGPE   C2A77169  33.611  13.557   4.326  0.0012  0.1125  0.0403
55494DGPE   D3A77170  33.622  13.222   3.866  0.2467  0.2473 -0.0587
55494DGPE   C4A77171  34.003  13.222   3.794  0.2207 -0.0807 -0.1873
55494DGPE   C5A77172  34.428  13.228   3.788 -0.0041 -0.3204 -0.0904
55494DGPE   C1B77173  33.763  13.940   5.038  0.0187  0.0847 -0.0775
55494DGPE   C2B77174  33.982  13.805   4.674  0.1817 -0.0807 -0.0410
55494DGPE   D3B77175  34.214  13.993   4.389  0.0225 -0.0854 -0.1339
55494DGPE   C4B77176  34.189  14.467   4.457 -0.1636  0.1426 -0.1964
55494DGPE   C5B77177  34.366  14.854   4.396  0.2392  0.3251 -0.0067
55495DGPE   NH377178  29.486   1.240  10.571 -0.0254 -0.0500  0.1140
55495DGPE   PO477179  29.804   1.431  10.865  0.2564  0.2238 -0.1211
55495DGPE   GL177180  29.885   1.607  10.533  0.2836  0.4096  0.1571
55495DGPE   GL277181  29.798   1.539  10.332  0.1890 -0.1851  0.0018
55495DGPE   C1A77182  30.264   1.691  10.340 -0.0046  0.1981  0.0098
55495DGPE   C2A77183  30.461   1.625   9.984 -0.1933 -0.1272 -0.2135
55495DGPE   D3A77184  30.687   1.628   9.686 -0.2242 -0.1157 -0.2056
55495DGPE   C4A77185  30.840   2.020   9.678 -0.0092  0.1695  0.0703
55495DGPE   C5A77186  30.712   2.361   9.678 -0.2264 -0.1663  0.0064
55495DGPE   C1B77187  29.831   1.703  10.016  0.4291 -0.1353  0.2100
55495DGPE   C2B77188  30.054   1.645   9.665 -0.1213 -0.1508  0.0930
55495DGPE   D3B77189  30.370   1.542   9.346 -0.0973  0.0818 -0.2346
55495DGPE   C4B77190  30.313   1.684   9.031 -0.4411  0.0191  0.0921
55495DGPE   C5B77191  30.390   1.400   8.767  0.2160 -0.0547  0.2017
55496DGPE   NH377192  14.664  34.428  19.660 -0.1550  0.0504 -0.1685
55496DGPE   PO477193  14.835  34.657  19.321 -0.0456 -0.1205  0.0813
55496DGPE   GL177194  14.568  34.413  19.109 -0.1429  0.0229  0.2691
55496DGPE   GL277195  14.264  34.366  18.965 -0.0699 -0.2452 -0.0843
55496DGPE   C1A77196  14.560  34.001  19.022  0.0720  0.2164  0.0700
55496DGPE   C2A77197  14.721  33.699  18.747  0.0293  0.1164  0.1411
55496DGPE   D3A77198  14.827  33.502  18.342  0.1674 -0.1181 -0.3286
55496DGPE   C4A77199  14.612  33.125  18.160 -0.0402 -0.0431 -0.0212
55496DGPE   C5A77200  14.576  32.715  18.245  0.2209 -0.1412  0.0134
55496DGPE   C1B77201  14.041  34.269  18.753  0.0985  0.1471  0.2194
55496DGPE   C2B77202  13.755  34.035  18.496 -0.0228  0.0797 -0.0057
55496DGPE   D3B77203  13.896  33.937  18.012 -0.2089 -0.0045 -0.2328
55496DGPE   C4B77204  13.932  33.976  17.569 -0.1232  0.1087 -0.0335
55496DGPE   C5B77205  13.752  34.145  17.157 -0.0799  0.1249 -0.1125
55497DGPE   NH377206   1.716  12.569  11.657 -0.2464  0.3200 -0.2582
55497DGPE   PO477207   1.380  12.249  11.728  0.1149 -0.2403  0.1828
55497DGPE   GL177208   1.694  12.029  11.590 -0.2219 -0.1306  0.0656
55497DGPE   GL277209   1.661  11.852  11.365 -0.1690 -0.1067 -0.0218
55497DGPE   C1A77210   2.165  11.994  11.372  0.1281  0.0072  0.1108
55497DGPE   C2A77211   2.551  11.870  11.113  0.0386 -0.1777 -0.0691
55497DGPE   D3A77212   2.669  11.635  10.813  0.5470 -0.2514  0.1158
55497DGPE   C4A77213   2.752  11.637  10.417 -0.1321  0.0551 -0.2197
55497DGPE   C5A77214   3.169  11.570  10.317  0.1540 -0.0267  0.0011
55497DGPE   C1B77215   1.927  11.645  10.992 -0.4332 -0.1024 -0.1102
55497DGPE   C2B77216   2.196  11.473  10.701 -0.1286 -0.3195 -0.2476
55497DGPE   D3B77217   2.274  11.310  10.272 -0.0096 -0.0804  0.1536
55497DGPE   C4B77218   2.661  11.136  10.192 -0.0516  0.1417  0.0787
55497DGPE   C5B77219   2.883  11.405   9.959  0.1735 -0.1091  0.0657
55498DGPE   NH377220   0.602   0.245  15.489  0.2124 -0.0354  0.0643
55498DGPE   PO477221   0.721   0.228  15.123  0.1296 -0.1901  0.1522
55498DGPE   GL177222   1.185   0.134  15.029  0.2419 -0.0580 -0.2510
55498DGPE   GL277223   1.316   0.260  14.792  0.0165  0.1264 -0.1563
55498DGPE   C1A77224   1.346  35.127  14.861 -0.0950  0.1120 -0.0259
55498DGPE   C2A77225   1.518  34.819  14.621  0.1492 -0.3320  0.0533
55498DGPE   D3A77226   1.562  34.754  14.215 -0.0131  0.0157 -0.1170
55498DGPE   C4A77227   1.829  34.773  13.900  0.0980  0.2714 -0.2050
55498DGPE   C5A77228   1.825  35.037  13.537 -0.1479  0.0540 -0.3435
55498DGPE   C1B77229   1.718   0.284  14.641 -0.0160 -0.0404  0.2159
55498DGPE   C2B77230   2.019   0.580  14.561 -0.2092  0.0244 -0.1207
55498DGPE   D3B77231   2.318   0.858  14.360 -0.0631 -0.0004  0.1814
55498DGPE   C4B77232   2.736   0.699  14.190  0.2912 -0.0617  0.0635
55498DGPE   C5B77233   3.192   0.538  14.326 -0.1609 -0.0191 -0.0524
55499DGPE   NH377234  24.809  23.645   9.980 -0.4612  0.0096 -0.2056
55499DGPE   PO477235  24.715  24.027   9.763  0.2830 -0.0662 -0.0079
55499DGPE   GL177236  24.389  24.229   9.545  0.2302  0.1522  0.0851
55499DGPE   GL277237  24.068  24.180   9.711  0.0271 -0.1240  0.0279
55499DGPE   C1A77238  24.190  24.093   9.201 -0.1420  0.2260 -0.2399
55499DGPE   C2A77239  23.718  24.065   8.996  0.1711 -0.0419  0.0879
55499DGPE   D3A77240  23.309  24.328   8.809  0.2182  0.0105 -0.1425
55499DGPE   C4A77241  22.914  24.256   9.140  0.3332 -0.3769  0.3099
55499DGPE   C5A77242  22.388  24.364   9.105 -0.2236  0.2861  0.0647
55499DGPE   C1B77243  23.763  24.167   9.477 -0.1421  0.0305 -0.3025
55499DGPE   C2B77244  23.429  24.275   9.305 -0.0483 -0.0314 -0.2167
55499DGPE   D3B77245  23.167  24.625   9.300 -0.1060 -0.1353 -0.2948
55499DGPE   C4B77246  22.782  24.767   9.067  0.0373 -0.0783  0.2804
55499DGPE   C5B77247  22.542  24.648   8.717 -0.0933 -0.1865  0.1845
55500DGPE   NH377248  25.126  28.450   9.458  0.0036  0.2849  0.1654
55500DGPE   PO477249  25.156  28.857   9.597  0.2026 -0.0260 -0.1747
55500DGPE   GL177250  24.809  28.840   9.371 -0.3378  0.1053 -0.1982
55500DGPE   GL277251  24.945  28.708   9.092  0.1996 -0.1086  0.0081
55500DGPE   C1A77252  24.720  29.192   9.070 -0.2754 -0.2159 -0.0723
55500DGPE   C2A77253  24.626  29.374   8.764  0.1571  0.2390  0.1183
55500DGPE   D3A77254  24.457  29.370   8.253  0.3765 -0.0753  0.2119
55500DGPE   C4A77255  24.193  29.164   8.076 -0.1370  0.0796  0.0049
55500DGPE   C5A77256  23.974  29.055   7.834  0.0472  0.0532 -0.0157
55500DGPE   C1B77257  24.801  28.830   8.691  0.2531  0.1877  0.3942
55500DGPE   C2B77258  24.616  28.870   8.279  0.0517  0.3422  0.3241
55500DGPE   D3B77259  24.536  28.915   7.876 -0.1560 -0.0301 -0.0709
55500DGPE   C4B77260  24.490  29.386   7.623  0.2589  0.0265  0.1170
55500DGPE   C5B77261  24.471  29.776   7.423  0.2410 -0.1248 -0.0272
55501DGPE   NH377262  33.385  13.157   6.218 -0.0511  0.1163  0.1004
55501DGPE   PO477263  33.648  12.717   6.310 -0.2708  0.1578  0.1442
55501DGPE   GL177264  33.756  12.799   5.873 -0.4752  0.2906 -0.0594
55501DGPE   GL277265  33.948  13.093   5.730  0.1155 -0.2317 -0.2263
55501DGPE   C1A77266  34.038  12.583   5.636  0.0727 -0.2363  0.0825
55501DGPE   C2A77267  34.382  12.391   5.296 -0.2357 -0.2238 -0.3371
55501DGPE   D3A77268  34.664  12.072   5.125  0.2421 -0.1079 -0.2211
55501DGPE   C4A77269  34.751  11.677   4.796 -0.4375  0.0264  0.0846
55501DGPE   C5A77270  35.092  11.740   4.505  0.0469 -0.0632  0.0778
55501DGPE   C1B77271  34.208  13.149   5.372 -0.0980  0.3042  0.0993
55501DGPE   C2B77272  34.443  13.200   5.006 -0.0122  0.2097 -0.0126
55501DGPE   D3B77273  34.740  13.174   4.765 -0.1627 -0.0395  0.1609
55501DGPE   C4B77274  34.947  12.824   4.683  0.1765  0.0974  0.1564
55501DGPE   C5B77275  34.886  12.378   4.779  0.1388  0.1298 -0.0207
55502DGPE   NH377276   8.971  14.470  18.105 -0.0883  0.0549 -0.1178
55502DGPE   PO477277   8.515  14.431  18.061 -0.0540 -0.0189 -0.0214
55502DGPE   GL177278   8.767  14.145  17.745  0.0835 -0.1002 -0.1100
55502DGPE   GL277279   8.973  13.919  17.854 -0.0895 -0.3027  0.3249
55502DGPE   C1A77280   8.918  14.148  17.266  0.2826  0.2038 -0.0135
55502DGPE   C2A77281   9.016  14.019  16.803 -0.1895 -0.1501  0.0632
55502DGPE   D3A77282   9.165  14.076  16.427 -0.0253 -0.0357 -0.0973
55502DGPE   C4A77283   9.418  13.810  16.212 -0.4231 -0.0496  0.0545
55502DGPE   C5A77284   9.305  13.507  15.818 -0.0194  0.3172  0.3019
55502DGPE   C1B77285   9.345  13.937  17.635 -0.1488 -0.0585 -0.4288
55502DGPE   C2B77286   9.542  13.987  17.269  0.0752  0.1951 -0.3468
55502DGPE   D3B77287   9.535  14.104  16.775 -0.0546  0.2181  0.0263
55502DGPE   C4B77288   9.642  14.267  16.470  0.1309 -0.0597  0.1538
55502DGPE   C5B77289   9.882  14.231  16.102 -0.2300  0.0468 -0.2277
55503DGPE   NH377290  11.798  21.891  21.851  0.1248 -0.0200 -0.1602
55503DGPE   PO477291  11.655  21.462  21.712 -0.0921  0.2151 -0.4474
55503DGPE   GL177292  11.868  21.218  21.362  0.1844  0.1056 -0.2600
55503DGPE   GL277293  11.738  20.981  21.196  0.1084  0.2540  0.2909
55503DGPE   C1A77294  12.103  21.281  21.070  0.1476  0.0148 -0.0737
55503DGPE   C2A77295  11.974  21.359  20.671  0.0025  0.2173 -0.1022
55503DGPE   D3A77296  11.948  21.285  20.245  0.0609  0.2702 -0.4277
55503DGPE   C4A77297  12.326  21.138  20.122 -0.1427 -0.0135  0.2161
55503DGPE   C5A77298  12.365  21.039  19.629 -0.0953  0.0557 -0.2283
55503DGPE   C1B77299  11.584  21.020  20.819  0.2248  0.0705  0.2879
55503DGPE   C2B77300  11.566  20.956  20.346  0.3959 -0.0224  0.0375
55503DGPE   D3B77301  11.519  20.663  19.939  0.0449 -0.2513  0.1009
55503DGPE   C4B77302  11.823  20.438  19.683 -0.0674 -0.1605  0.0820
55503DGPE   C5B77303  12.268  20.536  19.508  0.0939 -0.2193 -0.3672
55504DGPE   NH377304  33.761  10.271   8.146 -0.1182  0.3121  0.1645
55504DGPE   PO477305  33.476  10.056   7.910  0.1389 -0.2460  0.2626
55504DGPE   GL177306  33.543   9.836   7.690  0.2800  0.0158 -0.1611
55504DGPE   GL277307  33.215   9.628   7.716 -0.0336 -0.5382  0.0046
55504DGPE   C1A77308  33.819   9.609   7.418 -0.2845 -0.2319 -0.0987
55504DGPE   C2A77309  34.150   9.571   7.202 -0.0563 -0.0466 -0.0748
55504DGPE   D3A77310  34.504   9.632   6.881 -0.1156 -0.1976 -0.3416
55504DGPE   C4A77311  34.853   9.322   6.810  0.5545 -0.2476 -0.1429
55504DGPE   C5A77312  35.312   9.477   6.946 -0.0282  0.0598  0.0286
55504DGPE   C1B77313  33.321   9.440   7.423  0.0860 -0.0773  0.0684
55504DGPE   C2B77314  33.655   9.244   7.087 -0.0147 -0.0182 -0.0546
55504DGPE   D3B77315  33.876   9.114   6.735  0.0397 -0.1241  0.1980
55504DGPE   C4B77316  34.076   9.006   6.384  0.2759  0.0600 -0.2247
55504DGPE   C5B77317  34.193   8.689   6.259  0.1431  0.0469 -0.1603
55505DGPE   NH377318  16.975  12.774  18.442 -0.0970  0.3313 -0.0102
55505DGPE   PO477319  17.060  13.095  18.308  0.1546  0.2230  0.1161
55505DGPE   GL177320  16.996  13.307  17.900  0.0461 -0.0502  0.0401
55505DGPE   GL277321  16.997  13.640  17.997  0.1073  0.1483 -0.2625
55505DGPE   C1A77322  16.677  13.351  17.596 -0.2780 -0.2017 -0.1311
55505DGPE   C2A77323  16.485  13.283  17.183 -0.0666 -0.1456  0.2559
55505DGPE   D3A77324  16.226  13.235  16.829  0.1416 -0.0201  0.2003
55505DGPE   C4A77325  16.284  12.975  16.442  0.1351  0.0726 -0.0553
55505DGPE   C5A77326  16.380  12.611  16.368  0.3199  0.0592  0.0449
55505DGPE   C1B77327  16.798  14.056  17.824  0.0672 -0.1972  0.3239
55505DGPE   C2B77328  16.433  14.288  17.568  0.1321  0.1915  0.2892
55505DGPE   D3B77329  16.032  14.211  17.292  0.2229  0.1836  0.1391
55505DGPE   C4B77330  15.892  13.997  16.926 -0.0933  0.1381 -0.0013
55505DGPE   C5B77331  15.687  13.989  16.635  0.1301 -0.2754 -0.0332
55506DAPE   NH377332   8.862  23.082  21.742  0.1033  0.1746 -0.1053
55506DAPE   PO477333   8.973  22.632  21.722 -0.1484 -0.0669  0.0809
55506DAPE   GL177334   8.690  22.413  21.525 -0.1342  0.0402  0.0099
55506DAPE   GL277335   8.796  22.102  21.529  0.0853  0.2440 -0.1073
55506DAPE   D1A77336   8.533  22.509  21.113  0.1011  0.1056  0.0098
55506DAPE   D2A77337   8.215  22.772  20.945 -0.1733  0.0432 -0.0521
55506DAPE   D3A77338   8.579  22.862  20.759  0.1522 -0.0104  0.0412
55506DAPE   D4A77339   8.708  22.451  20.630  0.1528 -0.0825  0.3860
55506DAPE   C5A77340   9.170  22.402  20.394 -0.0521  0.0432 -0.1305
55506DAPE   D1B77341   8.866  22.118  21.054 -0.1698  0.2597 -0.2682
55506DAPE   D2B77342   9.288  21.924  20.995 -0.4626  0.0283 -0.2717
55506DAPE   D3B77343   9.298  22.345  20.873 -0.0349 -0.2006  0.1526
55506DAPE   D4B77344   9.690  22.504  20.730  0.1014 -0.0311  0.1462
55506DAPE   C5B77345   9.734  22.896  20.632  0.2076  0.1396  0.0142
55507DAPE   NH377346  20.047  24.564  17.628 -0.1401 -0.0939  0.1062
55507DAPE   PO477347  20.003  24.652  17.967 -0.2811 -0.0393 -0.1008
55507DAPE   GL177348  19.580  24.609  17.932 -0.0185 -0.1409 -0.2184
55507DAPE   GL277349  19.346  24.812  17.915  0.0803 -0.2556 -0.3130
55507DAPE   D1A77350  19.333  24.266  17.856 -0.1450 -0.0681 -0.1657
55507DAPE   D2A77351  19.148  24.501  17.508  0.0336  0.1182  0.0401
55507DAPE   D3A77352  18.754  24.713  17.320 -0.1215 -0.1108 -0.0732
55507DAPE   D4A77353  18.929  24.960  17.701  0.1640 -0.2737  0.0900
55507DAPE   C5A77354  18.748  25.452  17.789  0.2340 -0.1942  0.0342
55507DAPE   D1B77355  19.000  24.610  18.034 -0.0762 -0.2570 -0.0198
55507DAPE   D2B77356  18.747  24.371  17.724  0.0415 -0.2860 -0.1826
55507DAPE   D3B77357  18.342  24.482  17.849 -0.0016  0.0367 -0.2180
55507DAPE   D4B77358  18.345  24.725  17.548 -0.0593 -0.4196  0.0615
55507DAPE   C5B77359  18.280  24.620  17.125  0.3492 -0.1784  0.0191
55508DAPE   NH377360  25.507  11.573  10.391  0.0803  0.0657 -0.1752
55508DAPE   PO477361  25.442  11.083  10.418  0.1941 -0.0450  0.1201
55508DAPE   GL177362  25.031  10.750  10.512  0.1495  0.0041  0.0648
55508DAPE   GL277363  24.953  10.937  10.261 -0.2423  0.1163  0.0418
55508DAPE   D1A77364  24.622  10.605  10.520  0.1092  0.0823  0.0529
55508DAPE   D2A77365  24.597  10.279  10.821  0.0877  0.2819 -0.0227
55508DAPE   D3A77366  24.324  10.183  10.658  0.1435  0.2666 -0.1720
55508DAPE   D4A77367  24.008   9.926  10.696 -0.0087  0.1017  0.1459
55508DAPE   C5A77368  23.685   9.934  10.328  0.0251  0.1228 -0.1859
55508DAPE   D1B77369  24.775  10.537  10.061 -0.0249  0.1521 -0.3902
55508DAPE   D2B77370  25.160  10.313  10.161  0.1048 -0.3297  0.0243
55508DAPE   D3B77371  24.965  10.192  10.571  0.0866  0.1163 -0.0206
55508DAPE   D4B77372  24.744  10.057  10.249 -0.0236 -0.1408 -0.0619
55508DAPE   C5B77373  24.764   9.686  10.123 -0.0173  0.1875 -0.2680
55509DAPE   NH377374  13.187  29.614  21.328  0.5433  0.0326 -0.1227
55509DAPE   PO477375  12.853  29.924  21.416 -0.0571  0.1566 -0.1011
55509DAPE   GL177376  12.807  30.127  21.059  0.0583 -0.0017 -0.2473
55509DAPE   GL277377  13.083  30.247  20.960 -0.0527 -0.0653 -0.0566
55509DAPE   D1A77378  12.693  30.291  20.654 -0.0044  0.0186  0.1036
55509DAPE   D2A77379  12.471  29.887  20.629 -0.0361  0.0794 -0.0026
55509DAPE   D3A77380  12.407  29.721  21.083  0.0975  0.0283 -0.0464
55509DAPE   D4A77381  11.942  29.474  21.262 -0.2214  0.1188 -0.0842
55509DAPE   C5A77382  11.682  29.233  20.933  0.0122  0.2120  0.0916
55509DAPE   D1B77383  13.169  30.269  20.526 -0.2316  0.1958 -0.0334
55509DAPE   D2B77384  13.472  29.932  20.490 -0.0453  0.1576  0.0655
55509DAPE   D3B77385  13.470  30.320  20.104  0.0909 -0.1619 -0.4010
55509DAPE   D4B77386  13.326  30.717  19.984 -0.1734  0.0246 -0.0097
55509DAPE   C5B77387  13.187  30.513  19.707  0.1805 -0.2107  0.0582
55510DAPE   NH377388  34.132  25.838  10.264 -0.0161 -0.3138  0.0580
55510DAPE   PO477389  34.106  25.385  10.125 -0.2419 -0.1000  0.1220
55510DAPE   GL177390  34.511  25.417  10.371  0.0543  0.1658 -0.2424
55510DAPE   GL277391  34.597  25.799  10.162  0.1082 -0.0842  0.0463
55510DAPE   D1A77392  34.856  25.512  10.573  0.2983  0.4084  0.2622
55510DAPE   D2A77393  35.095  25.747  10.267  0.2200  0.2728  0.0709
55510DAPE   D3A77394  34.999  25.434   9.974 -0.3943 -0.0987 -0.1295
55510DAPE   D4A77395  35.306  25.581   9.727 -0.1419  0.3664  0.2798
55510DAPE   C5A77396  35.379  25.984   9.579  0.0020 -0.1611 -0.1971
55510DAPE   D1B77397  34.895  25.909   9.835 -0.0607  0.2387 -0.1257
55510DAPE   D2B77398  35.035  26.361   9.689  0.1583  0.2835  0.1018
55510DAPE   D3B77399  35.344  26.506  10.029 -0.0908 -0.2176 -0.0187
55510DAPE   D4B77400   0.022  26.925  10.244  0.0591  0.0783  0.0598
55510DAPE   C5B77401   0.299  26.915   9.993 -0.1409  0.1262  0.0278
55511DAPE   NH377402  22.821  25.129  13.263 -0.1299  0.4920 -0.1056
55511DAPE   PO477403  23.283  24.892  13.401  0.1018 -0.0718 -0.0285
55511DAPE   GL177404  23.038  24.558  13.079 -0.0932 -0.0781 -0.4529
55511DAPE   GL277405  22.955  24.755  12.992 -0.1457 -0.3312 -0.0055
55511DAPE   D1A77406  22.961  24.390  12.626 -0.2614 -0.0638 -0.1494
55511DAPE   D2A77407  23.109  24.267  12.279 -0.0802 -0.2572 -0.1729
55511DAPE   D3A77408  23.297  24.484  11.932 -0.1579  0.1477 -0.0269
55511DAPE   D4A77409  23.074  24.369  11.553  0.4593 -0.0099 -0.1092
55511DAPE   C5A77410  22.807  24.199  11.657  0.1951 -0.0875  0.0104
55511DAPE   D1B77411  22.834  24.934  12.575  0.0677 -0.1073  0.2645
55511DAPE   D2B77412  23.063  24.828  12.268 -0.0846  0.1871 -0.0105
55511DAPE   D3B77413  22.743  24.634  12.160  0.0049 -0.2538  0.1358
55511DAPE   D4B77414  22.579  25.037  12.169  0.0981  0.1191 -0.1333
55511DAPE   C5B77415  22.865  25.290  12.097 -0.0504  0.1648 -0.4358
55512DAPE   NH377416  23.811   4.104  14.497  0.3129  0.1029 -0.4805
55512DAPE   PO477417  23.588   4.267  14.156  0.3422  0.1182  0.0506
55512DAPE   GL177418  23.167   4.414  14.303  0.0241 -0.1458 -0.0293
55512DAPE   GL277419  23.148   4.578  14.097 -0.1037 -0.0740  0.1573
55512DAPE   D1A77420  22.786   4.150  14.284 -0.1205 -0.1207  0.1413
55512DAPE   D2A77421  22.639   4.564  13.913  0.2241 -0.3399  0.1453
55512DAPE   D3A77422  22.755   4.827  14.248 -0.0450 -0.3643  0.1354
55512DAPE   D4A77423  22.471   4.567  14.432  0.1425 -0.3858 -0.0221
55512DAPE   C5A77424  22.182   4.422  14.153  0.2231 -0.2731 -0.0102
55512DAPE   D1B77425  23.055   4.555  13.693 -0.0634  0.0088 -0.2625
55512DAPE   D2B77426  22.780   4.253  13.442 -0.4877  0.0135  0.4440
55512DAPE   D3B77427  23.041   3.974  13.374 -0.5597 -0.2872 -0.2084
55512DAPE   D4B77428  22.777   3.713  13.121  0.0408  0.0232  0.3857
55512DAPE   C5B77429  22.412   3.583  12.912 -0.0935  0.0165 -0.4526
55513DAPE   NH377430  20.350   8.037  16.808 -0.1330 -0.1336  0.1387
55513DAPE   PO477431  20.473   8.318  16.623 -0.2016 -0.1573  0.0357
55513DAPE   GL177432  20.345   8.297  16.242 -0.0633  0.1478 -0.0297
55513DAPE   GL277433  20.629   8.387  15.855 -0.1418  0.2767 -0.0258
55513DAPE   D1A77434  20.262   8.083  15.931 -0.2985 -0.0964 -0.0173
55513DAPE   D2A77435  19.825   8.332  16.138  0.1062  0.1515 -0.0287
55513DAPE   D3A77436  19.608   8.801  16.131  0.1518  0.0257 -0.0332
55513DAPE   D4A77437  19.423   8.546  15.918  0.0702  0.3921 -0.1505
55513DAPE   C5A77438  19.110   8.665  15.709 -0.1105  0.0929  0.0647
55513DAPE   D1B77439  20.573   8.491  15.444  0.0139  0.2767 -0.1655
55513DAPE   D2B77440  20.240   8.152  15.348  0.2275 -0.0219  0.1571
55513DAPE   D3B77441  19.921   8.387  15.094 -0.0962 -0.5361  0.0947
55513DAPE   D4B77442  19.950   8.474  14.686 -0.0438  0.0275 -0.0811
55513DAPE   C5B77443  19.765   8.808  14.395 -0.0331 -0.1043  0.0832
55514DAPE   NH377444   7.920  32.846  21.068 -0.2562 -0.0213 -0.0816
55514DAPE   PO477445   7.843  33.182  20.767 -0.1880  0.0091  0.0577
55514DAPE   GL177446   8.256  33.313  20.518 -0.3433 -0.1433 -0.2877
55514DAPE   GL277447   8.123  33.233  20.154 -0.0457 -0.0569 -0.0734
55514DAPE   D1A77448   8.638  33.154  20.232  0.2745 -0.2394 -0.0289
55514DAPE   D2A77449   8.979  33.365  20.363  0.0353 -0.3205 -0.2464
55514DAPE   D3A77450   8.977  33.768  20.281 -0.0825  0.3470 -0.2290
55514DAPE   D4A77451   9.244  33.622  19.984  0.1976 -0.0420  0.1118
55514DAPE   C5A77452   9.005  33.349  19.920  0.0252  0.0978  0.0305
55514DAPE   D1B77453   8.238  32.909  20.049  0.1444 -0.0256 -0.2967
55514DAPE   D2B77454   7.999  32.507  20.048  0.0006  0.0617  0.0366
55514DAPE   D3B77455   8.287  32.447  19.947  0.0775 -0.1212 -0.2345
55514DAPE   D4B77456   8.143  32.455  19.591 -0.0568 -0.1311 -0.1351
55514DAPE   C5B77457   8.367  32.488  19.221 -0.1987 -0.0894  0.1534
55515DAPE   NH377458  23.851  27.189  11.176 -0.0211 -0.2712 -0.0372
55515DAPE   PO477459  23.480  27.001  11.213  0.0932  0.2083 -0.1674
55515DAPE   GL177460  23.396  26.663  10.882  0.1938  0.4163 -0.0528
55515DAPE   GL277461  23.505  26.551  10.740 -0.1905 -0.3003 -0.1554
55515DAPE   D1A77462  23.028  26.453  10.618  0.0917 -0.2133  0.0182
55515DAPE   D2A77463  22.628  26.265  10.578  0.0050 -0.3686  0.2280
55515DAPE   D3A77464  22.574  26.640  10.415  0.4050 -0.0255 -0.0109
55515DAPE   D4A77465  22.392  26.823  10.049 -0.0482 -0.0095  0.0083
55515DAPE   C5A77466  22.235  26.586   9.828 -0.6514  0.0023  0.0093
55515DAPE   D1B77467  23.356  26.185  10.813 -0.0629  0.1153  0.0060
55515DAPE   D2B77468  22.946  26.011  10.885  0.0896 -0.1961 -0.3267
55515DAPE   D3B77469  23.036  25.713  11.271  0.0406 -0.3535  0.0049
55515DAPE   D4B77470  23.278  25.644  10.864 -0.3942 -0.3386 -0.0031
55515DAPE   C5B77471  23.092  25.422  10.449 -0.2459  0.0214  0.0019
55516DAPE   NH377472  23.227  27.487  12.181 -0.0975  0.1566 -0.2778
55516DAPE   PO477473  23.068  27.601  11.782 -0.0549 -0.0323 -0.0689
55516DAPE   GL177474  22.955  27.353  11.415  0.1541  0.2543 -0.0536
55516DAPE   GL277475  22.976  27.415  11.096 -0.4230 -0.0345 -0.0128
55516DAPE   D1A77476  22.988  26.960  11.359  0.0832  0.2764 -0.0174
55516DAPE   D2A77477  22.921  26.641  11.053  0.0149  0.2687  0.1964
55516DAPE   D3A77478  22.832  26.921  10.710 -0.0062  0.3103  0.0400
55516DAPE   D4A77479  23.046  26.912  10.435 -0.0473  0.2307 -0.0605
55516DAPE   C5A77480  22.852  26.877  10.096 -0.0485  0.0594  0.0095
55516DAPE   D1B77481  22.689  27.292  10.926  0.2027 -0.1433  0.0057
55516DAPE   D2B77482  22.524  27.004  11.102 -0.1634 -0.0141  0.1783
55516DAPE   D3B77483  22.308  26.725  10.905 -0.1793 -0.1512 -0.2641
55516DAPE   D4B77484  22.058  26.667  10.630 -0.0450  0.0298 -0.1251
55516DAPE   C5B77485  22.153  26.436  10.390  0.2036 -0.1091 -0.1667
55517DAPE   NH377486  24.368   7.548  13.613  0.0827  0.1384 -0.2635
55517DAPE   PO477487  24.051   7.792  13.339 -0.0697  0.2343 -0.2934
55517DAPE   GL177488  23.925   7.496  13.077 -0.1899  0.1179  0.1040
55517DAPE   GL277489  23.619   7.337  13.004 -0.0914 -0.0457 -0.0120
55517DAPE   D1A77490  23.874   7.537  12.611 -0.0778  0.0144  0.0067
55517DAPE   D2A77491  24.213   7.654  12.377 -0.1630  0.1446 -0.2581
55517DAPE   D3A77492  24.317   7.646  11.961 -0.0399 -0.0446  0.2554
55517DAPE   D4A77493  24.268   8.112  11.998 -0.4906 -0.0245  0.0859
55517DAPE   C5A77494  24.523   8.288  11.742 -0.2040  0.0888 -0.2642
55517DAPE   D1B77495  23.360   7.627  12.898 -0.3520  0.0754 -0.2773
55517DAPE   D2B77496  23.496   8.009  12.807  0.1576  0.3378 -0.0384
55517DAPE   D3B77497  23.284   8.313  12.540 -0.0137 -0.3256 -0.1722
55517DAPE   D4B77498  23.060   8.015  12.451 -0.2235  0.0539 -0.2699
55517DAPE   C5B77499  23.132   8.078  12.023  0.0032  0.0870  0.0706
55518DAPE   NH377500  30.423   8.571   9.200 -0.0446 -0.0958 -0.3149
55518DAPE   PO477501  30.763   8.436   9.300  0.2234  0.0873  0.2223
55518DAPE   GL177502  31.081   8.252   8.972 -0.0219  0.1354  0.3907
55518DAPE   GL277503  31.212   7.970   8.957 -0.0102  0.1991  0.3941
55518DAPE   D1A77504  31.373   8.382   8.626  0.4242  0.0593  0.2520
55518DAPE   D2A77505  31.651   7.948   8.769 -0.0823  0.1377  0.1845
55518DAPE   D3A77506  31.362   7.558   8.751  0.2285 -0.0542 -0.3148
55518DAPE   D4A77507  31.548   7.163   8.593 -0.0595 -0.1187  0.0659
55518DAPE   C5A77508  31.166   6.985   8.469  0.0462  0.0537 -0.2478
55518DAPE   D1B77509  31.073   7.952   8.546  0.1374 -0.1112  0.0795
55518DAPE   D2B77510  31.391   8.020   8.310 -0.1157  0.1430  0.2063
55518DAPE   D3B77511  31.129   7.951   7.951  0.0231  0.2388  0.0783
55518DAPE   D4B77512  31.000   8.311   8.151 -0.0760 -0.1234  0.0978
55518DAPE   C5B77513  31.258   8.592   8.196  0.0539  0.0550 -0.1031
55519DAPE   NH377514   4.978  30.748  20.087 -0.0607  0.0160  0.3249
55519DAPE   PO477515   5.056  31.082  19.886  0.1666 -0.0081 -0.1586
55519DAPE   GL177516   5.309  30.739  19.709  0.1177  0.0549 -0.1421
55519DAPE   GL277517   5.207  30.578  19.416  0.0778  0.0228  0.1280
55519DAPE   D1A77518   5.711  30.635  19.756 -0.1769 -0.0960  0.1706
55519DAPE   D2A77519   5.720  30.313  19.479  0.1617 -0.0611  0.0036
55519DAPE   D3A77520   5.276  30.073  19.331  0.1037 -0.0743 -0.0814
55519DAPE   D4A77521   4.927  30.331  19.046  0.2469  0.3343 -0.0600
55519DAPE   C5A77522   4.914  30.567  18.671  0.1038 -0.0563  0.0662
55519DAPE   D1B77523   5.307  31.036  19.299 -0.2912  0.1405 -0.1383
55519DAPE   D2B77524   5.590  31.165  18.965  0.0549  0.1698  0.0476
55519DAPE   D3B77525   5.339  30.698  18.888  0.2776  0.0140 -0.0463
55519DAPE   D4B77526   5.596  30.582  19.103  0.3087  0.0033  0.0513
55519DAPE   C5B77527   6.005  30.390  18.991  0.0091  0.3713 -0.0383
55520DAPE   NH377528  16.082  23.050  22.047  0.0527 -0.1152 -0.1222
55520DAPE   PO477529  16.366  23.003  21.794 -0.1001 -0.1107  0.1949
55520DAPE   GL177530  16.290  22.827  21.388 -0.1642 -0.1268 -0.0275
55520DAPE   GL277531  16.465  22.795  21.007  0.0779  0.1034 -0.0346
55520DAPE   D1A77532  15.975  23.014  21.141  0.0873  0.0916  0.1387
55520DAPE   D2A77533  16.022  23.363  20.831 -0.1288  0.2642 -0.2495
55520DAPE   D3A77534  16.248  23.004  20.600 -0.3335 -0.1531  0.1554
55520DAPE   D4A77535  16.284  23.275  20.314  0.3912 -0.0395  0.2490
55520DAPE   C5A77536  15.927  23.405  20.319  0.1793  0.0894 -0.2748
55520DAPE   D1B77537  16.562  22.571  20.643 -0.0346  0.2095 -0.0935
55520DAPE   D2B77538  16.156  22.458  20.541  0.0110  0.0237 -0.1740
55520DAPE   D3B77539  16.357  22.718  20.149  0.0669 -0.1018 -0.0543
55520DAPE   D4B77540  16.001  22.889  20.135  0.0585 -0.0750  0.0100
55520DAPE   C5B77541  15.828  22.685  19.874 -0.1072 -0.0120  0.0670
55521DAPE   NH377542  20.269  10.590  16.174 -0.2777 -0.0962 -0.1478
55521DAPE   PO477543  20.039  10.201  16.405  0.1182  0.0330  0.1012
55521DAPE   GL177544  20.286  10.015  16.116  0.2191  0.1260 -0.1555
55521DAPE   GL277545  20.638   9.994  16.117  0.2092 -0.0992  0.0726
55521DAPE   D1A77546  20.242   9.773  15.701 -0.0563 -0.3727 -0.0873
55521DAPE   D2A77547  20.249   9.767  15.296 -0.2098 -0.3014 -0.3467
55521DAPE   D3A77548  20.697   9.747  15.187 -0.1723 -0.0652  0.2100
55521DAPE   D4A77549  20.513   9.956  14.886 -0.0171 -0.3568 -0.1783
55521DAPE   C5A77550  20.156   9.837  14.501 -0.2620 -0.0786 -0.0067
55521DAPE   D1B77551  20.748   9.857  15.680 -0.1621  0.0731  0.3107
55521DAPE   D2B77552  20.943   9.488  15.525  0.1387 -0.0235  0.1085
55521DAPE   D3B77553  20.521   9.365  15.560 -0.0138 -0.1749  0.0177
55521DAPE   D4B77554  20.424   9.287  15.038  0.1660  0.0790  0.2124
55521DAPE   C5B77555  20.189   9.492  14.904 -0.2681  0.0470  0.2001
55522DAPE   NH377556   1.671   1.128  15.351 -0.1192 -0.4199  0.1333
55522DAPE   PO477557   2.082   1.073  15.528 -0.1762 -0.2784 -0.1213
55522DAPE   GL177558   2.386   1.291  15.202  0.0802 -0.1308  0.0874
55522DAPE   GL277559   2.571   1.633  15.247  0.1944 -0.1489 -0.1023
55522DAPE   D1A77560   2.330   1.504  14.775 -0.1152 -0.1750 -0.5563
55522DAPE   D2A77561   2.214   1.287  14.476 -0.1554  0.3038  0.1514
55522DAPE   D3A77562   1.901   1.033  14.674  0.1769  0.0418  0.0364
55522DAPE   D4A77563   2.051   0.844  15.062 -0.0216  0.2248  0.2807
55522DAPE   C5A77564   2.443   0.864  14.934  0.2273 -0.2725  0.3238
55522DAPE   D1B77565   2.714   1.911  14.826 -0.3469 -0.0568  0.2902
55522DAPE   D2B77566   3.136   1.759  14.782  0.1054 -0.0509 -0.2095
55522DAPE   D3B77567   2.853   1.383  14.908 -0.0565  0.0815 -0.0598
55522DAPE   D4B77568   2.700   1.048  14.601  0.0734  0.1374 -0.1201
55522DAPE   C5B77569   2.928   0.780  14.688  0.0570 -0.2534 -0.1592
55523DAPE   NH377570   6.927  11.699  17.824 -0.1348 -0.0228  0.1022
55523DAPE   PO477571   6.724  11.469  17.624  0.1712  0.1523  0.1716
55523DAPE   GL177572   7.017  11.429  17.332 -0.1172 -0.3831 -0.2457
55523DAPE   GL277573   7.187  11.167  17.140 -0.0181  0.0146 -0.1046
55523DAPE   D1A77574   7.312  11.618  17.012  0.0611  0.2530 -0.0587
55523DAPE   D2A77575   7.785  11.584  17.175 -0.1108  0.0651  0.1592
55523DAPE   D3A77576   8.146  11.845  17.349  0.0954  0.2200  0.3578
55523DAPE   D4A77577   8.252  12.297  17.477  0.0875  0.2236  0.1037
55523DAPE   C5A77578   8.549  12.532  17.772 -0.0914 -0.0422 -0.0929
55523DAPE   D1B77579   7.579  11.146  16.958  0.2720  0.3402 -0.2064
55523DAPE   D2B77580   7.618  11.515  16.648 -0.1716  0.3957  0.3079
55523DAPE   D3B77581   7.760  11.830  16.261  0.0274 -0.0493 -0.1481
55523DAPE   D4B77582   7.927  11.447  16.274  0.2142  0.0464  0.1542
55523DAPE   C5B77583   8.398  11.343  16.519  0.0060  0.2843  0.2544
55524DAPE   NH377584  16.280  30.296  19.964  0.4207  0.2617 -0.0138
55524DAPE   PO477585  16.571  30.571  19.805  0.2269 -0.2250  0.2920
55524DAPE   GL177586  16.720  30.397  19.377 -0.0588  0.2300 -0.1452
55524DAPE   GL277587  16.778  30.063  19.421 -0.2402  0.3218  0.0946
55524DAPE   D1A77588  16.718  30.281  18.955  0.0895  0.3415  0.2147
55524DAPE   D2A77589  16.687  30.582  18.592 -0.1286 -0.0193 -0.0670
55524DAPE   D3A77590  16.417  30.334  18.343 -0.1885 -0.3313  0.2176
55524DAPE   D4A77591  15.987  30.220  18.377  0.1251  0.2059 -0.0195
55524DAPE   C5A77592  15.777  30.100  17.915  0.2094 -0.0017  0.1272
55524DAPE   D1B77593  16.545  29.726  19.338 -0.1024 -0.1290  0.1864
55524DAPE   D2B77594  16.435  29.378  19.706 -0.1838 -0.1247  0.2114
55524DAPE   D3B77595  16.062  29.122  19.800  0.1284 -0.2067 -0.1980
55524DAPE   D4B77596  16.021  29.481  19.390  0.2213 -0.5203 -0.2203
55524DAPE   C5B77597  15.912  29.408  18.982  0.3809 -0.0128  0.3115
55525DAPE   NH377598   3.975  20.054  16.883 -0.1389 -0.1666 -0.1507
55525DAPE   PO477599   4.189  19.714  16.783 -0.0533  0.1076 -0.1197
55525DAPE   GL177600   4.301  19.922  16.358 -0.0229 -0.2683  0.2051
55525DAPE   GL277601   4.603  20.058  16.368  0.0017 -0.0232 -0.2123
55525DAPE   D1A77602   4.280  19.804  15.925  0.0183  0.1512  0.0716
55525DAPE   D2A77603   4.387  19.448  15.986 -0.3511  0.0952  0.0723
55525DAPE   D3A77604   4.817  19.342  16.021 -0.3363  0.0608 -0.1148
55525DAPE   D4A77605   4.640  19.543  16.407  0.1578 -0.1932  0.1122
55525DAPE   C5A77606   5.032  19.560  16.662 -0.3549  0.2157  0.0663
55525DAPE   D1B77607   4.782  20.118  15.852  0.1097 -0.2827  0.3892
55525DAPE   D2B77608   4.743  19.734  15.626  0.0324 -0.1813 -0.1802
55525DAPE   D3B77609   4.863  19.382  15.553 -0.0492  0.2755 -0.1809
55525DAPE   D4B77610   4.489  19.396  15.354  0.1096  0.0184 -0.2194
55525DAPE   C5B77611   4.244  19.696  15.464 -0.0256  0.0733 -0.0903
55526DAPE   NH377612  10.174  20.267  21.646 -0.2962  0.2503  0.0205
55526DAPE   PO477613  10.540  19.859  21.695  0.0689 -0.2239  0.1514
55526DAPE   GL177614  10.538  20.004  21.173 -0.1141 -0.1743 -0.0275
55526DAPE   GL277615  10.544  19.683  20.951  0.2334 -0.0622  0.0653
55526DAPE   D1A77616  10.323  20.370  20.982 -0.2397  0.0314 -0.0980
55526DAPE   D2A77617  10.683  20.511  21.158 -0.0761 -0.1381  0.1671
55526DAPE   D3A77618  10.752  20.614  20.691  0.1152 -0.2424 -0.0108
55526DAPE   D4A77619  10.318  20.892  20.614 -0.1340 -0.2393 -0.1656
55526DAPE   C5A77620  10.283  21.215  20.326  0.1565  0.3656 -0.0017
55526DAPE   D1B77621  10.199  19.917  20.708 -0.0194 -0.1349  0.2714
55526DAPE   D2B77622   9.738  20.213  20.802 -0.0205 -0.0026 -0.1354
55526DAPE   D3B77623  10.020  20.515  20.580  0.2748  0.2565  0.0518
55526DAPE   D4B77624   9.558  20.526  20.418 -0.0839  0.0346  0.2990
55526DAPE   C5B77625   9.517  20.512  19.987 -0.0676  0.3232 -0.1721
55527DAPE   NH377626   8.390  20.796  21.479  0.1954  0.0736 -0.2500
55527DAPE   PO477627   8.541  21.137  21.565  0.1777 -0.0618 -0.0027
55527DAPE   GL177628   8.568  21.558  21.496 -0.0210  0.0207 -0.2997
55527DAPE   GL277629   8.393  21.470  21.229 -0.2323  0.0502 -0.1852
55527DAPE   D1A77630   9.012  21.626  21.411 -0.3309 -0.1531 -0.0778
55527DAPE   D2A77631   9.213  21.351  21.153  0.0825 -0.1570  0.2971
55527DAPE   D3A77632   9.435  21.452  20.842  0.4189 -0.0101 -0.0780
55527DAPE   D4A77633   9.895  21.338  20.700 -0.2875  0.5597  0.1964
55527DAPE   C5A77634  10.248  21.338  20.889  0.0697  0.0847 -0.3837
55527DAPE   D1B77635   8.783  21.603  21.016  0.1832 -0.2624 -0.1596
55527DAPE   D2B77636   8.957  21.368  20.732  0.1233  0.0122 -0.2851
55527DAPE   D3B77637   8.998  20.980  20.928 -0.0570  0.1921 -0.0152
55527DAPE   D4B77638   8.628  20.971  21.058  0.0500  0.1789  0.1760
55527DAPE   C5B77639   8.353  20.812  20.719 -0.2229 -0.3257  0.1947
55528DPSM   NC377640   4.264   1.426  17.959 -0.1232 -0.2179  0.1048
55528DPSM   PO477641   4.537   1.275  18.284 -0.1165  0.3167 -0.1580
55528DPSM   AM177642   4.749   0.876  18.032 -0.0585 -0.1635  0.2775
55528DPSM   AM277643   4.708   0.981  17.684  0.2964 -0.2488 -0.1693
55528DPSM   T1A77644   5.069   0.550  17.917  0.0981 -0.0930  0.1367
55528DPSM   C2A77645   5.139   0.172  18.093 -0.0499  0.4439 -0.0763
55528DPSM   C3A77646   5.052  35.321  18.495  0.0606 -0.2540 -0.3106
55528DPSM   C1B77647   4.937   0.789  17.334 -0.0799  0.2591 -0.2988
55528DPSM   C2B77648   5.290   0.424  17.102  0.1221  0.1202  0.4612
55528DPSM   C3B77649   5.430   0.087  16.875  0.0634  0.0875  0.1002
55528DPSM   C4B77650   5.694  35.376  16.553 -0.0743  0.2583  0.0103
55529DPSM   NC377651   5.995  35.144  19.508 -0.0896 -0.0778 -0.3978
55529DPSM   PO477652   6.161  34.741  19.269  0.1307  0.0575  0.3051
55529DPSM   AM177653   6.542  35.058  19.174  0.0788  0.2799  0.0539
55529DPSM   AM277654   6.419  35.384  19.100 -0.0458  0.3069  0.2337
55529DPSM   T1A77655   6.896  35.249  18.920 -0.0845 -0.1940  0.2371
55529DPSM   C2A77656   7.238  35.087  18.689  0.2326 -0.0580 -0.0981
55529DPSM   C3A77657   7.482  35.058  18.287 -0.0425 -0.3255  0.0445
55529DPSM   C1B77658   6.469   0.148  18.702 -0.1463 -0.0784  0.2596
55529DPSM   C2B77659   6.435   0.249  18.281  0.2383  0.0112  0.0618
55529DPSM   C3B77660   6.717   0.101  17.921 -0.0072  0.2049 -0.2675
55529DPSM   C4B77661   6.954  35.156  17.617 -0.1653  0.1756 -0.0440
55530DPSM   NC377662   7.270  24.187  21.318 -0.4830 -0.1904 -0.4699
55530DPSM   PO477663   7.553  23.907  21.288 -0.5474 -0.1428  0.1316
55530DPSM   AM177664   7.466  23.646  20.940 -0.0118  0.2260  0.0883
55530DPSM   AM277665   7.802  23.646  20.958  0.0563  0.1663 -0.0260
55530DPSM   T1A77666   7.480  23.448  20.590  0.2347 -0.1562 -0.0577
55530DPSM   C2A77667   7.691  23.338  20.171 -0.2442 -0.0294  0.3994
55530DPSM   C3A77668   7.950  23.402  19.757  0.1146 -0.0569  0.1985
55530DPSM   C1B77669   7.987  23.549  20.605 -0.2885 -0.4235  0.1244
55530DPSM   C2B77670   8.216  23.474  20.175 -0.1523  0.0207 -0.0726
55530DPSM   C3B77671   8.519  23.426  19.825 -0.1078 -0.2115  0.3304
55530DPSM   C4B77672   8.723  23.712  19.721  0.0678  0.2818 -0.0895
55531DPSM   NC377673  19.551  24.101  19.176  0.2271 -0.1583 -0.1722
55531DPSM   PO477674  19.121  23.947  19.383 -0.1941  0.0474 -0.0109
55531DPSM   AM177675  19.049  24.263  19.065  0.0478 -0.0643  0.1664
55531DPSM   AM277676  19.158  24.402  18.919  0.0581  0.2867  0.1134
55531DPSM   T1A77677  18.624  24.414  18.825 -0.1734  0.1697 -0.1672
55531DPSM   C2A77678  18.366  24.605  18.584  0.1581  0.0433  0.0233
55531DPSM   C3A77679  18.036  24.536  18.366  0.4119  0.1135  0.0075
55531DPSM   C1B77680  18.996  24.694  18.738  0.1977  0.3371  0.2163
55531DPSM   C2B77681  18.748  24.918  18.425  0.1101  0.1574 -0.1014
55531DPSM   C3B77682  18.406  24.901  18.065 -0.1108  0.1330  0.1487
55531DPSM   C4B77683  18.384  25.171  17.661 -0.2308 -0.1776 -0.1915
55532DPSM   NC377684   1.585  31.505  16.930  0.0613 -0.0216 -0.2401
55532DPSM   PO477685   1.645  31.836  17.264  0.0976  0.0933 -0.1658
55532DPSM   AM177686   2.003  31.822  16.894  0.2830  0.0790  0.0648
55532DPSM   AM277687   2.303  32.034  16.877 -0.1011 -0.0512 -0.0775
55532DPSM   T1A77688   2.249  31.699  16.440 -0.2527 -0.2033 -0.1400
55532DPSM   C2A77689   2.552  31.555  16.208 -0.2137  0.0595  0.3447
55532DPSM   C3A77690   2.905  31.480  16.006  0.2286  0.1288 -0.1368
55532DPSM   C1B77691   2.654  31.833  16.791 -0.0755  0.0079  0.1334
55532DPSM   C2B77692   2.918  31.758  16.500  0.1276 -0.2104  0.5062
55532DPSM   C3B77693   3.220  31.820  16.228  0.1760 -0.0642 -0.0699
55532DPSM   C4B77694   3.480  31.670  15.894  0.3804  0.1825  0.0007
55533DPSM   NC377695  22.160  24.403  15.279  0.2670  0.1663  0.0469
55533DPSM   PO477696  21.934  24.673  15.414  0.0598  0.1644  0.2099
55533DPSM   AM177697  21.584  24.760  15.180  0.1769 -0.1061  0.1611
55533DPSM   AM277698  21.579  24.918  15.043 -0.1457  0.0565  0.0714
55533DPSM   T1A77699  21.437  24.447  14.904  0.2276  0.2597 -0.0298
55533DPSM   C2A77700  21.015  24.446  14.692 -0.1363 -0.0807 -0.1321
55533DPSM   C3A77701  20.570  24.442  14.612  0.0319  0.0125 -0.2076
55533DPSM   C1B77702  21.128  24.853  15.022  0.1064 -0.0209  0.0167
55533DPSM   C2B77703  20.735  24.817  14.876  0.1882  0.1621 -0.0960
55533DPSM   C3B77704  20.355  24.922  14.866 -0.1400  0.0029 -0.1326
55533DPSM   C4B77705  19.933  25.033  14.710 -0.0356  0.1437 -0.0179
55534DPSM   NC377706  27.120  20.296   5.031 -0.2144 -0.1324 -0.1856
55534DPSM   PO477707  27.510  20.312   4.697 -0.2385  0.1470  0.1687
55534DPSM   AM177708  27.427  20.052   4.289 -0.0485 -0.1662  0.1421
55534DPSM   AM277709  27.562  19.843   3.955 -0.0498  0.0400 -0.1939
55534DPSM   T1A77710  27.212  20.175   3.965 -0.1583  0.1628  0.2607
55534DPSM   C2A77711  27.108  20.135   3.574  0.1088 -0.0479  0.1449
55534DPSM   C3A77712  26.971  20.136   3.101  0.1047 -0.3088  0.2518
55534DPSM   C1B77713  27.348  19.592   3.562  0.0453 -0.1762  0.0874
55534DPSM   C2B77714  27.254  19.672   3.138 -0.0765  0.0259  0.2819
55534DPSM   C3B77715  27.112  19.727   2.708 -0.4306  0.2311 -0.3092
55534DPSM   C4B77716  27.153  20.019   2.478  0.0288 -0.1825  0.0215
55535DPSM   NC377717  20.729  18.919  17.788  0.0774 -0.2582 -0.2374
55535DPSM   PO477718  20.348  18.991  17.608  0.0203  0.1075 -0.3132
55535DPSM   AM177719  20.088  19.096  17.250 -0.0593  0.0173 -0.1494
55535DPSM   AM277720  19.939  19.279  16.984  0.0919  0.0985 -0.0415
55535DPSM   T1A77721  19.735  18.866  17.048 -0.0782 -0.0303 -0.0789
55535DPSM   C2A77722  19.386  18.732  16.741 -0.1063  0.5146 -0.0750
55535DPSM   C3A77723  19.087  18.598  16.524 -0.3066 -0.0174  0.2390
55535DPSM   C1B77724  19.521  19.308  16.821  0.0295  0.0056  0.0242
55535DPSM   C2B77725  19.127  19.124  16.542  0.2276  0.3310  0.1681
55535DPSM   C3B77726  18.848  19.002  16.283 -0.0523  0.1946 -0.5321
55535DPSM   C4B77727  18.577  18.777  16.066 -0.0608  0.1665  0.0174
55536DPSM   NC377728  26.286   9.604   9.737  0.1048  0.0474 -0.0922
55536DPSM   PO477729  25.893   9.396   9.617  0.1113  0.3601 -0.2951
55536DPSM   AM177730  25.531   9.441   9.834  0.1498 -0.0511 -0.0116
55536DPSM   AM277731  25.540   9.645  10.044  0.1497  0.3561 -0.2827
55536DPSM   T1A77732  25.090   9.554   9.778 -0.4000 -0.0661  0.0122
55536DPSM   C2A77733  24.756   9.439   9.579 -0.0878  0.0289 -0.1155
55536DPSM   C3A77734  24.403   9.458   9.370 -0.1057 -0.0346  0.3151
55536DPSM   C1B77735  25.122   9.294  10.192 -0.2948 -0.1831 -0.0612
55536DPSM   C2B77736  24.723   9.226   9.999 -0.1513 -0.0906 -0.1935
55536DPSM   C3B77737  24.309   9.365   9.845 -0.1570  0.0704 -0.0269
55536DPSM   C4B77738  23.792   9.526   9.871  0.0036  0.0573 -0.6221
55537DPSM   NC377739  20.501  20.651  16.900  0.0391 -0.0272 -0.1396
55537DPSM   PO477740  20.355  20.288  16.873  0.1129 -0.0679 -0.1851
55537DPSM   AM177741  19.944  20.468  16.892 -0.2354 -0.3644  0.0774
55537DPSM   AM277742  19.609  20.263  16.987 -0.0441 -0.4340 -0.0430
55537DPSM   T1A77743  19.670  20.481  16.484  0.1052  0.0623 -0.1306
55537DPSM   C2A77744  19.557  20.602  16.114  0.1408  0.0801  0.1462
55537DPSM   C3A77745  19.302  20.760  15.816 -0.2161  0.1020 -0.0320
55537DPSM   C1B77746  19.350  20.132  16.679 -0.1131 -0.1705  0.1904
55537DPSM   C2B77747  19.198  20.264  16.381  0.0383 -0.0015  0.3763
55537DPSM   C3B77748  19.055  20.380  16.023  0.0567 -0.3145  0.1090
55537DPSM   C4B77749  18.840  20.643  15.690 -0.0460 -0.0109 -0.1907
55538DPSM   NC377750   2.686  16.654  14.302 -0.0485  0.1544 -0.2549
55538DPSM   PO477751   2.723  16.855  13.821  0.1845  0.1690  0.2705
55538DPSM   AM177752   3.153  16.506  13.753 -0.2732  0.1029 -0.0384
55538DPSM   AM277753   3.539  16.548  13.852 -0.2638 -0.1950 -0.1117
55538DPSM   T1A77754   3.548  16.162  13.535  0.0524 -0.4206 -0.1094
55538DPSM   C2A77755   3.767  15.815  13.337  0.1764 -0.0547  0.2205
55538DPSM   C3A77756   4.106  15.693  13.345 -0.0212 -0.1775  0.2774
55538DPSM   C1B77757   3.961  16.613  14.003 -0.2727  0.0231  0.1222
55538DPSM   C2B77758   4.320  16.671  13.785 -0.0157 -0.2725 -0.1300
55538DPSM   C3B77759   4.565  16.759  13.457 -0.0174  0.0143  0.0183
55538DPSM   C4B77760   4.826  16.685  13.223  0.1921 -0.1206 -0.2896
55539DPSM   NC377761  23.695   5.887  14.369 -0.0738 -0.2909  0.1349
55539DPSM   PO477762  23.484   5.737  13.967  0.1017  0.2992 -0.3314
55539DPSM   AM177763  23.263   5.709  13.660  0.1039  0.0835  0.1105
55539DPSM   AM277764  23.520   5.655  13.278 -0.0555 -0.2871 -0.1980
55539DPSM   T1A77765  23.097   5.922  13.223 -0.0829 -0.5238  0.1210
55539DPSM   C2A77766  22.736   6.221  12.957  0.4846  0.2688 -0.2574
55539DPSM   C3A77767  22.412   6.454  12.649  0.0627 -0.2677  0.0366
55539DPSM   C1B77768  23.148   5.455  13.012 -0.1223  0.0191 -0.2182
55539DPSM   C2B77769  22.720   5.368  12.702  0.0585  0.2904 -0.2648
55539DPSM   C3B77770  22.396   5.465  12.632  0.1453  0.0666  0.2662
55539DPSM   C4B77771  22.079   5.330  12.807 -0.1447  0.0511  0.0348
55540DPSM   NC377772   1.855   8.338  13.775 -0.0494  0.0062  0.1732
55540DPSM   PO477773   1.995   8.520  13.313 -0.3535  0.1289  0.0055
55540DPSM   AM177774   2.193   8.556  12.879  0.0972 -0.3303 -0.0172
55540DPSM   AM277775   2.178   8.808  12.740 -0.0100  0.1177 -0.1082
55540DPSM   T1A77776   2.381   8.252  12.624 -0.1800  0.0784  0.0443
55540DPSM   C2A77777   2.741   8.160  12.276  0.1578 -0.0638 -0.2928
55540DPSM   C3A77778   3.141   8.059  11.906  0.1217  0.1651  0.0130
55540DPSM   C1B77779   2.441   8.669  12.340  0.1019 -0.1519 -0.1336
55540DPSM   C2B77780   2.857   8.623  12.194 -0.0575 -0.0765 -0.4637
55540DPSM   C3B77781   3.136   8.565  11.816  0.0510 -0.1689  0.1171
55540DPSM   C4B77782   3.642   8.378  11.851  0.0025  0.4427  0.0036
55541DPSM   NC377783  29.030  33.225  10.165  0.1381 -0.0173  0.0016
55541DPSM   PO477784  28.880  32.790  10.168 -0.1285 -0.1402 -0.0330
55541DPSM   AM177785  28.843  32.946   9.833  0.1220 -0.1128 -0.2449
55541DPSM   AM277786  28.652  33.205   9.791 -0.1298  0.1777 -0.2330
55541DPSM   T1A77787  29.112  33.041   9.421 -0.0452  0.0820  0.0235
55541DPSM   C2A77788  29.161  33.040   8.966  0.0822  0.1613 -0.0169
55541DPSM   C3A77789  29.324  32.930   8.627  0.0272  0.3254  0.2496
55541DPSM   C1B77790  28.680  33.233   9.294  0.1244  0.0944 -0.0413
55541DPSM   C2B77791  28.701  33.185   8.791 -0.1629  0.2201 -0.0169
55541DPSM   C3B77792  28.794  33.046   8.382 -0.0416  0.0475  0.0306
55541DPSM   C4B77793  28.746  33.062   7.976 -0.0433 -0.1423 -0.1184
55542POSM   NC377794  30.351  18.816   4.315 -0.1819  0.0867  0.0378
55542POSM   PO477795  30.603  18.449   4.131  0.3564 -0.3836  0.1085
55542POSM   AM177796  30.688  18.719   3.937  0.0763 -0.2327 -0.1330
55542POSM   AM277797  30.387  18.853   3.808 -0.1992  0.1492  0.1720
55542POSM   T1A77798  31.063  18.904   3.744 -0.1995  0.2306  0.2002
55542POSM   C2A77799  31.453  18.955   3.506  0.0725 -0.0078 -0.1872
55542POSM   C3A77800  31.552  18.843   3.060  0.1952  0.1404  0.4138
55542POSM   C1B77801  30.668  18.924   3.433 -0.4145 -0.2288 -0.1289
55542POSM   D2B77802  30.970  18.843   3.218  0.5791 -0.0338  0.0010
55542POSM   C3B77803  30.976  18.858   2.769 -0.2239 -0.0957 -0.0099
55542POSM   C4B77804  31.157  18.689   2.398 -0.1019  0.1612 -0.2887
55543POSM   NC377805   8.204  13.156  18.127 -0.2585 -0.0013  0.1119
55543POSM   PO477806   8.472  13.114  18.415 -0.1709  0.1960  0.3528
55543POSM   AM177807   8.732  13.052  18.015  0.1014 -0.1147 -0.2923
55543POSM   AM277808   8.480  13.049  17.708 -0.0849  0.0132  0.0243
55543POSM   T1A77809   8.901  12.806  17.543 -0.1225 -0.1640 -0.1763
55543POSM   C2A77810   8.850  12.966  17.125 -0.0542  0.0874 -0.2039
55543POSM   C3A77811   9.184  13.084  16.734  0.2728 -0.2259  0.0532
55543POSM   C1B77812   8.436  12.781  17.391 -0.1972 -0.1329  0.0442
55543POSM   D2B77813   8.330  12.650  17.000 -0.0745  0.1632 -0.1001
55543POSM   C3B77814   8.436  12.495  16.597  0.2587 -0.0263 -0.2281
55543POSM   C4B77815   8.615  12.661  16.374 -0.1320 -0.0626  0.1335
55544POSM   NC377816  29.595  16.783   3.936 -0.0649  0.0588  0.1882
55544POSM   PO477817  29.374  16.353   3.954  0.0986 -0.3113 -0.2467
55544POSM   AM177818  29.462  16.546   3.544  0.2119 -0.1537  0.2163
55544POSM   AM277819  29.313  16.828   3.473  0.3541  0.0058 -0.0176
55544POSM   T1A77820  29.576  16.539   3.143  0.3064  0.0749  0.0607
55544POSM   C2A77821  29.580  16.611   2.744 -0.1648  0.3540  0.3883
55544POSM   C3A77822  29.682  16.865   2.402  0.1300  0.2847 -0.1457
55544POSM   C1B77823  29.310  16.996   3.080  0.0487  0.0659  0.3687
55544POSM   D2B77824  29.394  17.069   2.732  0.2823 -0.2443  0.2694
55544POSM   C3B77825  29.203  16.751   2.460  0.0959  0.2245 -0.2181
55544POSM   C4B77826  29.019  16.477   2.254 -0.1822  0.1032  0.0060
55545POSM   NC377827  23.035  17.294  14.595  0.1323 -0.1516 -0.0593
55545POSM   PO477828  22.769  17.144  14.254  0.1410 -0.0215 -0.2312
55545POSM   AM177829  22.479  16.995  13.881  0.3020 -0.0375  0.0993
55545POSM   AM277830  22.536  17.182  13.581 -0.3559 -0.0791 -0.2687
55545POSM   T1A77831  22.111  16.905  13.601  0.0297 -0.2381  0.0145
55545POSM   C2A77832  21.877  16.607  13.498  0.0928  0.2725  0.1992
55545POSM   C3A77833  21.807  16.278  13.249  0.0678  0.2045  0.2375
55545POSM   C1B77834  22.325  17.312  13.296  0.1135 -0.3759 -0.0763
55545POSM   D2B77835  22.035  17.223  13.171 -0.1123 -0.2392  0.2828
55545POSM   C3B77836  21.774  17.291  12.836 -0.0695  0.1241 -0.5505
55545POSM   C4B77837  21.403  17.343  12.588 -0.0379 -0.2057  0.2614
55546POSM   NC377838  23.681  18.838  13.164  0.0457 -0.1485  0.1418
55546POSM   PO477839  23.380  18.554  12.875  0.2869  0.2040 -0.1840
55546POSM   AM177840  23.113  18.575  12.610 -0.0112 -0.1213  0.0576
55546POSM   AM277841  23.107  18.984  12.603 -0.2135  0.0357  0.1301
55546POSM   T1A77842  22.931  18.711  12.242 -0.2368 -0.0135 -0.1466
55546POSM   C2A77843  22.707  18.627  11.966  0.0382 -0.0463  0.2205
55546POSM   C3A77844  22.304  18.654  11.798 -0.0123  0.1937  0.3867
55546POSM   C1B77845  23.142  19.243  12.159 -0.0824 -0.3903 -0.3314
55546POSM   D2B77846  22.822  19.463  11.998 -0.2586  0.0950 -0.0837
55546POSM   C3B77847  22.483  19.524  12.163 -0.1895 -0.0176  0.0815
55546POSM   C4B77848  22.112  19.410  11.937 -0.0945  0.3525 -0.2940
55547POSM   NC377849  23.289  24.356  13.407  0.0008 -0.0144  0.2556
55547POSM   PO477850  23.101  24.050  13.066 -0.2838  0.1612  0.1788
55547POSM   AM177851  22.752  24.019  12.849 -0.1213 -0.1203 -0.2010
55547POSM   AM277852  22.383  24.016  13.009  0.0040  0.1717 -0.2388
55547POSM   T1A77853  22.566  23.970  12.374 -0.1255 -0.0527 -0.1042
55547POSM   C2A77854  22.334  24.136  12.012  0.2212 -0.3808 -0.0646
55547POSM   C3A77855  21.892  24.136  11.884 -0.3544 -0.4196 -0.3664
55547POSM   C1B77856  22.181  23.869  12.723 -0.1743 -0.1187 -0.0895
55547POSM   D2B77857  22.052  23.897  12.314  0.1597  0.2976  0.1950
55547POSM   C3B77858  22.349  23.601  12.038 -0.0842  0.1850  0.1053
55547POSM   C4B77859  22.795  23.681  12.017  0.2020 -0.0019  0.1343
55548POSM   NC377860  19.522  18.956  18.259  0.0638 -0.0541 -0.2797
55548POSM   PO477861  19.354  18.692  17.965  0.1714 -0.0606  0.1767
55548POSM   AM177862  19.231  18.993  17.691  0.0457 -0.2577 -0.0993
55548POSM   AM277863  18.963  18.896  17.694  0.2236 -0.0140 -0.0286
55548POSM   T1A77864  19.060  19.338  17.565  0.1012 -0.0146 -0.1633
55548POSM   C2A77865  19.034  19.627  17.288  0.3601 -0.0376 -0.0789
55548POSM   C3A77866  19.045  20.051  17.129 -0.2510  0.1532 -0.1037
55548POSM   C1B77867  18.640  18.684  17.425 -0.1943 -0.0881 -0.0936
55548POSM   D2B77868  18.375  18.791  17.059  0.3128 -0.2447 -0.1210
55548POSM   C3B77869  18.554  18.900  16.653  0.1350 -0.1213  0.2018
55548POSM   C4B77870  18.274  19.077  16.397 -0.0295  0.1045 -0.0509
55549POSM   NC377871  34.165   8.306  11.195 -0.0619 -0.0858 -0.2583
55549POSM   PO477872  33.956   8.039  10.921 -0.0636  0.2168  0.0487
55549POSM   AM177873  33.976   8.058  10.508 -0.2266 -0.0538  0.0206
55549POSM   AM277874  34.078   8.237  10.420  0.0857 -0.0949 -0.0447
55549POSM   T1A77875  34.018   7.791  10.135  0.0717  0.2079 -0.0444
55549POSM   C2A77876  34.295   7.613   9.881  0.1908 -0.0068  0.2872
55549POSM   C3A77877  34.414   7.247   9.823  0.0698  0.0393 -0.3435
55549POSM   C1B77878  34.125   8.516  10.106 -0.1532  0.1491  0.3805
55549POSM   D2B77879  34.415   8.596   9.740  0.3543 -0.2489 -0.2132
55549POSM   C3B77880  34.278   8.819   9.461  0.0125 -0.3477  0.0023
55549POSM   C4B77881  34.353   9.231   9.231  0.1972  0.2456 -0.0453
55550POSM   NC377882   9.062   8.512  18.919 -0.0207 -0.0990 -0.1158
55550POSM   PO477883   8.875   8.592  18.527 -0.1857 -0.0544 -0.0369
55550POSM   AM177884   9.217   8.636  18.227 -0.1146 -0.3011 -0.1770
55550POSM   AM277885   9.530   8.645  18.395 -0.1325  0.0737 -0.3073
55550POSM   T1A77886   9.369   8.807  17.883  0.2061  0.1188 -0.2997
55550POSM   C2A77887   9.663   8.855  17.583  0.2213  0.0828  0.4749
55550POSM   C3A77888   9.773   8.890  17.122  0.5403 -0.0629 -0.1726
55550POSM   C1B77889   9.834   8.713  18.076 -0.0814 -0.1970  0.1096
55550POSM   D2B77890  10.164   8.629  17.825  0.1068 -0.2176 -0.0121
55550POSM   C3B77891  10.217   8.620  17.388 -0.1342 -0.0708 -0.0472
55550POSM   C4B77892  10.098   8.365  16.983  0.4825  0.4296  0.2071
55551POSM   NC377893  34.396  32.391  14.323  0.1300 -0.3380 -0.1246
55551POSM   PO477894  34.511  32.672  14.018  0.0183  0.1043  0.1051
55551POSM   AM177895  34.878  32.453  13.778  0.0308 -0.2331 -0.1595
55551POSM   AM277896  34.654  32.168  13.727 -0.4626  0.2549  0.0491
55551POSM   T1A77897  35.190  32.229  13.500  0.0635 -0.3160 -0.1634
55551POSM   C2A77898   0.183  32.183  13.547  0.4633 -0.1392  0.0542
55551POSM   C3A77899   0.524  32.108  13.630  0.3248 -0.2121  0.0738
55551POSM   C1B77900  34.985  31.964  13.897  0.0823  0.1169  0.2840
55551POSM   D2B77901  35.367  32.054  13.982  0.1772 -0.0514 -0.2446
55551POSM   C3B77902  35.377  32.450  13.922  0.1985  0.0776 -0.1058
55551POSM   C4B77903   0.424  32.629  13.749 -0.3105 -0.0930  0.0106
55552POSM   NC377904  19.116  22.737  18.696  0.2038  0.1344 -0.1238
55552POSM   PO477905  18.699  22.933  18.936 -0.0176  0.2055  0.2318
55552POSM   AM177906  18.318  22.701  19.020 -0.0281  0.0328  0.0435
55552POSM   AM277907  18.274  23.012  19.177 -0.0441 -0.1803 -0.1907
55552POSM   T1A77908  17.863  22.738  19.006  0.0913 -0.0108 -0.0480
55552POSM   C2A77909  17.457  22.645  18.645 -0.3303 -0.1659  0.0430
55552POSM   C3A77910  17.175  22.610  18.308  0.0579 -0.1252  0.0329
55552POSM   C1B77911  18.060  23.259  18.777  0.1596 -0.0867 -0.0105
55552POSM   D2B77912  17.739  23.687  18.763 -0.1446 -0.0201 -0.1220
55552POSM   C3B77913  17.535  23.723  18.400 -0.2544  0.0052  0.0962
55552POSM   C4B77914  17.644  23.682  17.931  0.1800 -0.0419 -0.0147
55553PNSM   NC377915  10.955   6.476  19.238 -0.1543  0.0716  0.2696
55553PNSM   PO477916  10.682   6.121  18.998 -0.1078 -0.1827  0.0993
55553PNSM   AM177917  10.498   6.110  18.615  0.2416 -0.0145 -0.1102
55553PNSM   AM277918  10.675   5.891  18.435  0.0734 -0.1120 -0.2961
55553PNSM   T1A77919  10.257   6.455  18.419  0.1030 -0.2602  0.3165
55553PNSM   C2A77920  10.043   6.523  18.029  0.1629 -0.2663  0.3670
55553PNSM   C3A77921   9.935   6.512  17.639  0.1742 -0.2576 -0.1053
55553PNSM   C1B77922  10.745   5.769  17.977  0.0564 -0.1223 -0.2401
55553PNSM   C2B77923  10.601   5.841  17.574  0.2085  0.2893  0.1050
55553PNSM   C3B77924  10.714   6.102  17.303 -0.0434 -0.2079 -0.0073
55553PNSM   D4B77925  10.869   6.203  16.796 -0.1448  0.0617  0.3330
55553PNSM   C5B77926  10.602   6.121  16.317  0.1826 -0.1595 -0.2253
55553PNSM   C6B77927  10.650   6.089  15.865 -0.3386  0.2145 -0.2443
55554PNSM   NC377928   2.112   3.542  14.487 -0.0858 -0.1437  0.0605
55554PNSM   PO477929   2.415   3.814  14.416 -0.3593 -0.0794  0.1438
55554PNSM   AM177930   2.791   3.701  14.542 -0.1400  0.1119 -0.1984
55554PNSM   AM277931   3.013   3.883  14.718  0.2295  0.3041 -0.1376
55554PNSM   T1A77932   3.176   3.590  14.350 -0.0833  0.0065 -0.1307
55554PNSM   C2A77933   3.576   3.486  14.286  0.0133 -0.0286  0.2217
55554PNSM   C3A77934   3.982   3.453  13.996  0.0827  0.1731  0.2164
55554PNSM   C1B77935   3.451   3.900  14.725 -0.0150  0.0232  0.1397
55554PNSM   C2B77936   3.872   3.838  14.396 -0.0275  0.1012  0.0171
55554PNSM   C3B77937   4.203   3.851  14.044  0.0518  0.1218  0.2888
55554PNSM   D4B77938   4.548   3.891  13.704 -0.2001 -0.0399 -0.0840
55554PNSM   C5B77939   4.539   4.161  13.355 -0.1833 -0.0793 -0.1376
55554PNSM   C6B77940   4.360   4.390  13.146 -0.0500 -0.1232  0.0303
55555PNSM   NC377941  25.217  12.836  10.891  0.0097 -0.0458 -0.3466
55555PNSM   PO477942  24.756  12.507  10.927 -0.1630  0.4572  0.0791
55555PNSM   AM177943  24.375  12.370  10.778  0.2359 -0.3757  0.3003
55555PNSM   AM277944  24.516  12.195  10.553  0.1793  0.0024  0.0048
55555PNSM   T1A77945  23.971  12.166  10.533  0.2784  0.2470 -0.3728
55555PNSM   C2A77946  23.550  12.215  10.515 -0.1060 -0.0150  0.4087
55555PNSM   C3A77947  23.121  12.103  10.212 -0.1337  0.2321  0.0605
55555PNSM   C1B77948  24.426  11.920  10.359 -0.1137 -0.4322  0.1107
55555PNSM   C2B77949  24.041  11.956  10.083 -0.0610 -0.3390  0.1302
55555PNSM   C3B77950  23.699  11.968   9.986 -0.4973  0.0526 -0.0208
55555PNSM   D4B77951  23.347  12.059   9.755  0.1889 -0.1506 -0.0483
55555PNSM   C5B77952  23.090  12.044   9.499  0.1845  0.3754  0.0645
55555PNSM   C6B77953  22.747  12.129   9.244 -0.0307  0.1545  0.2029
55556PNSM   NC377954  33.006  23.732   8.065  0.2567 -0.0174 -0.0614
55556PNSM   PO477955  33.423  23.924   8.058 -0.0397 -0.0514  0.1889
55556PNSM   AM177956  33.735  24.034   7.941  0.0465 -0.4848  0.1052
55556PNSM   AM277957  33.919  24.072   8.147  0.3842 -0.2222 -0.0786
55556PNSM   T1A77958  33.736  24.156   7.570 -0.1840 -0.0106 -0.2113
55556PNSM   C2A77959  34.064  24.446   7.404 -0.2261  0.1256  0.1998
55556PNSM   C3A77960  34.319  24.671   7.254  0.0294 -0.0141  0.1741
55556PNSM   C1B77961  34.126  24.428   7.995 -0.0092 -0.1472  0.1152
55556PNSM   C2B77962  34.377  24.775   7.912  0.0178 -0.1604  0.3020
55556PNSM   C3B77963  34.694  24.825   7.565  0.1964  0.0953 -0.0322
55556PNSM   D4B77964  35.034  25.075   7.311  0.1225  0.2203  0.0160
55556PNSM   C5B77965   0.069  25.265   7.410 -0.2498 -0.3196  0.1323
55556PNSM   C6B77966   0.528  25.400   7.279 -0.1625  0.2230 -0.0084
55557PNSM   NC377967  32.765  34.110  12.571  0.1485 -0.0701 -0.2512
55557PNSM   PO477968  33.094  33.873  12.777  0.2671  0.1759 -0.0519
55557PNSM   AM177969  33.238  34.099  12.460  0.0571  0.2450 -0.3229
55557PNSM   AM277970  33.213  33.822  12.272  0.2082 -0.0581 -0.1258
55557PNSM   T1A77971  33.298  34.283  12.144 -0.3161  0.2346  0.0112
55557PNSM   C2A77972  33.485  34.394  11.830 -0.0022 -0.1039  0.1865
55557PNSM   C3A77973  33.617  34.490  11.442  0.0326 -0.0853 -0.0327
55557PNSM   C1B77974  33.472  33.850  11.978  0.1007 -0.3117  0.1168
55557PNSM   C2B77975  33.710  33.902  11.641  0.1505  0.2004 -0.2218
55557PNSM   C3B77976  33.883  34.052  11.331 -0.1150  0.3399 -0.0230
55557PNSM   D4B77977  34.032  34.091  10.939 -0.0200 -0.2163 -0.4037
55557PNSM   C5B77978  34.086  33.846  10.584  0.3168 -0.2978 -0.0050
55557PNSM   C6B77979  34.410  33.801  10.245  0.1505 -0.0290 -0.1271
55558PNSM   NC377980  32.909  11.888   7.319  0.0115 -0.3031  0.1739
55558PNSM   PO477981  33.226  11.627   7.242  0.0039 -0.2819  0.1154
55558PNSM   AM177982  33.177  11.285   6.893 -0.2381 -0.2525 -0.0882
55558PNSM   AM277983  33.257  11.065   7.011 -0.2581  0.0504  0.1121
55558PNSM   T1A77984  33.090  11.041   6.489 -0.0467  0.0295 -0.2262
55558PNSM   C2A77985  33.167  10.950   6.018 -0.1462 -0.2249 -0.0278
55558PNSM   C3A77986  33.417  10.786   5.817  0.1341  0.2325 -0.0885
55558PNSM   C1B77987  33.499  10.824   6.652  0.2512  0.2321  0.1811
55558PNSM   C2B77988  33.644  10.823   6.309  0.0901 -0.1361 -0.0259
55558PNSM   C3B77989  33.930  10.801   5.926  0.0091 -0.2416  0.0023
55558PNSM   D4B77990  34.126  10.926   5.575  0.2606 -0.1214 -0.0747
55558PNSM   C5B77991  34.306  11.185   5.266 -0.0675  0.0284  0.0775
55558PNSM   C6B77992  34.432  11.312   4.802 -0.3822 -0.0956  0.0363
55559DPGS    C177993  33.772  28.748  12.197  0.0181 -0.0009 -0.1570
55559DPGS    C277994  33.842  28.457  12.208 -0.1239 -0.0419 -0.3101
55559DPGS    C377995  33.964  28.648  12.405 -0.1078 -0.2200 -0.1455
55559DPGS   AM177996  34.192  28.696  11.870  0.0574  0.0001  0.1311
55559DPGS   AM277997  33.996  28.612  11.724  0.1378 -0.2175  0.2100
55559DPGS   D1A77998  34.467  28.749  11.912 -0.0415 -0.1896  0.1938
55559DPGS   C2A77999  34.917  28.719  11.834  0.0458 -0.1943 -0.0384
55559DPGS   C3A78000  35.215  28.543  11.481  0.1159  0.1019 -0.1952
55559DPGS   C4A78001   0.110  28.573  11.173  0.1237 -0.1738  0.0618
55559DPGS   C1B78002  33.881  28.652  11.366  0.0341  0.0661 -0.1488
55559DPGS   C2B78003  34.060  28.857  11.021  0.0402 -0.0668  0.1531
55559DPGS   C3B78004  34.485  28.851  10.884  0.1003 -0.3031 -0.1272
55559DPGS   C4B78005  34.863  28.980  10.814  0.0913 -0.2800  0.0653
55560DPGS    C178006   8.843  17.144  18.449 -0.1186  0.1586  0.1431
55560DPGS    C278007   9.130  17.222  18.412 -0.0838  0.0754  0.2357
55560DPGS    C378008   9.035  16.953  18.320 -0.1618  0.1540  0.0859
55560DPGS   AM178009   8.886  17.451  18.056  0.0437 -0.0790 -0.2424
55560DPGS   AM278010   8.637  17.371  18.062 -0.2284  0.1680  0.1562
55560DPGS   D1A78011   9.110  17.609  17.942 -0.0117 -0.0405  0.1145
55560DPGS   C2A78012   9.277  17.696  17.601  0.2110  0.1618  0.1446
55560DPGS   C3A78013   9.426  17.899  17.203 -0.2446 -0.2393  0.1406
55560DPGS   C4A78014   9.496  17.846  16.816 -0.2378  0.0258 -0.1725
55560DPGS   C1B78015   8.402  17.465  17.828 -0.1649  0.0311  0.0347
55560DPGS   C2B78016   8.521  17.723  17.484 -0.1171 -0.0538  0.1845
55560DPGS   C3B78017   8.671  18.010  17.039  0.1399  0.2956 -0.0070
55560DPGS   C4B78018   9.000  18.078  16.927 -0.0124  0.1462  0.4145
55561DPGS    C178019  25.848  12.265   6.446 -0.0394  0.3842 -0.1050
55561DPGS    C278020  26.084  12.126   6.324 -0.0830  0.0920  0.1390
55561DPGS    C378021  26.089  12.424   6.362  0.1932  0.1043  0.0254
55561DPGS   AM178022  25.810  12.212   5.906 -0.4429 -0.1469  0.0756
55561DPGS   AM278023  25.711  12.017   6.059  0.2094  0.1185  0.2458
55561DPGS   D1A78024  25.804  12.164   5.619 -0.3368  0.0144 -0.1185
55561DPGS   C2A78025  25.517  11.977   5.417  0.0390  0.1065  0.2341
55561DPGS   C3A78026  25.339  11.703   5.079 -0.3019 -0.1743  0.1045
55561DPGS   C4A78027  25.515  11.575   4.663 -0.0537  0.0936 -0.0943
55561DPGS   C1B78028  25.464  11.763   5.953 -0.4293 -0.1785 -0.3065
55561DPGS   C2B78029  25.360  11.448   5.719  0.4428 -0.0808  0.1830
55561DPGS   C3B78030  25.323  11.257   5.310  0.3505 -0.0675 -0.0211
55561DPGS   C4B78031  25.105  11.326   4.916  0.0049 -0.1597  0.1140
55562DPGS    C178032  34.410  14.484   6.943 -0.0448 -0.3000 -0.3013
55562DPGS    C278033  34.243  14.630   7.145  0.0216 -0.1937 -0.3229
55562DPGS    C378034  34.444  14.427   7.235  0.2855  0.0931 -0.2588
55562DPGS   AM178035  34.905  14.420   6.857  0.0155 -0.0147 -0.3145
55562DPGS   AM278036  34.795  14.261   6.694 -0.0642  0.1541 -0.2290
55562DPGS   D1A78037  35.189  14.462   6.818  0.2908  0.2383  0.2281
55562DPGS   C2A78038   0.146  14.393   6.602 -0.1889 -0.0545  0.0621
55562DPGS   C3A78039   0.401  14.273   6.344 -0.1174  0.0217  0.4103
55562DPGS   C4A78040   0.633  14.057   5.913 -0.2712  0.1365 -0.0934
55562DPGS   C1B78041  34.978  14.107   6.390 -0.0068 -0.1382  0.0834
55562DPGS   C2B78042  35.140  14.049   6.006  0.2029  0.2796  0.1657
55562DPGS   C3B78043   0.090  13.951   5.814  0.1308 -0.0090 -0.0287
55562DPGS   C4B78044   0.364  13.894   5.527  0.1184  0.1195 -0.0169
55563DPGS    C178045  23.401  20.199  11.469  0.2049 -0.1570  0.1752
55563DPGS    C278046  23.642  20.357  11.385  0.1173 -0.1317 -0.0317
55563DPGS    C378047  23.666  20.063  11.439  0.2336 -0.0927  0.1348
55563DPGS   AM178048  23.169  19.917  11.154  0.1861 -0.1320  0.1207
55563DPGS   AM278049  23.206  19.745  11.339  0.1451 -0.2415  0.2255
55563DPGS   D1A78050  22.979  20.004  10.971 -0.2556 -0.1456  0.0648
55563DPGS   C2A78051  22.699  20.197  10.695  0.2383 -0.1857  0.0389
55563DPGS   C3A78052  22.619  20.442  10.450  0.1500  0.2846 -0.0330
55563DPGS   C4A78053  22.429  20.712  10.125 -0.1025 -0.0530 -0.1644
55563DPGS   C1B78054  22.945  19.507  11.464 -0.3295 -0.1040 -0.2000
55563DPGS   C2B78055  22.510  19.521  11.481  0.0421  0.0468 -0.3054
55563DPGS   C3B78056  22.181  19.665  11.468  0.0173  0.3041 -0.2153
55563DPGS   C4B78057  21.760  19.641  11.240 -0.0050 -0.2361 -0.0299
55564DPGS    C178058  31.647  25.299   7.579  0.2022  0.0244 -0.0125
55564DPGS    C278059  31.919  25.366   7.687  0.1675  0.1405  0.0035
55564DPGS    C378060  31.685  25.546   7.745  0.1110  0.1053 -0.1109
55564DPGS   AM178061  31.451  25.539   7.228 -0.2075  0.1001  0.0419
55564DPGS   AM278062  31.619  25.483   7.028 -0.1396  0.2472 -0.0234
55564DPGS   D1A78063  31.232  25.705   7.151 -0.2683  0.0169 -0.0907
55564DPGS   C2A78064  31.207  25.899   6.786  0.1019 -0.2326 -0.1854
55564DPGS   C3A78065  31.405  26.067   6.514 -0.3030 -0.0384 -0.1411
55564DPGS   C4A78066  31.632  26.303   6.271  0.1180 -0.2197  0.0501
55564DPGS   C1B78067  31.751  25.762   6.820  0.3734  0.0755  0.0059
55564DPGS   C2B78068  31.913  25.892   6.497  0.2458 -0.0348 -0.1474
55564DPGS   C3B78069  32.149  26.226   6.276 -0.1196  0.0625 -0.1752
55564DPGS   C4B78070  32.000  26.417   5.883 -0.1074  0.1321 -0.1426
55565DPGS    C178071   4.328  15.197  15.763  0.0219 -0.2211 -0.0035
55565DPGS    C278072   4.217  15.348  15.997  0.1567  0.0875 -0.1366
55565DPGS    C378073   4.415  15.480  15.813  0.0568 -0.1540 -0.4210
55565DPGS   AM178074   4.548  15.224  15.330 -0.0872  0.2080  0.2103
55565DPGS   AM278075   4.601  14.962  15.411 -0.0325  0.1509 -0.0956
55565DPGS   D1A78076   4.609  15.339  15.066  0.1708  0.5395  0.2094
55565DPGS   C2A78077   4.544  15.255  14.670  0.1494 -0.2048  0.2170
55565DPGS   C3A78078   4.635  15.357  14.263  0.0743  0.0184 -0.1670
55565DPGS   C4A78079   4.852  15.409  13.841  0.1305  0.1649 -0.0800
55565DPGS   C1B78080   4.737  14.740  15.185 -0.2071 -0.0178  0.2785
55565DPGS   C2B78081   4.960  14.569  15.014  0.1800 -0.1112 -0.1270
55565DPGS   C3B78082   5.263  14.619  14.723  0.0591  0.0473 -0.3040
55565DPGS   C4B78083   5.550  14.547  14.419 -0.2205 -0.1012 -0.1067
55566DPGS    C178084  14.794   3.173  16.870 -0.1045 -0.0474 -0.0441
55566DPGS    C278085  14.916   2.907  16.933 -0.0227  0.0117  0.0478
55566DPGS    C378086  15.066   3.104  16.765 -0.0898 -0.0058 -0.0332
55566DPGS   AM178087  14.627   3.229  16.414  0.0423 -0.4355 -0.2107
55566DPGS   AM278088  14.805   3.023  16.353  0.1232  0.0278 -0.2873
55566DPGS   D1A78089  14.448   3.418  16.285 -0.4020 -0.0922  0.0598
55566DPGS   C2A78090  14.312   3.595  15.960 -0.2180  0.0105  0.2649
55566DPGS   C3A78091  14.146   3.557  15.660 -0.1063 -0.0789 -0.0148
55566DPGS   C4A78092  14.099   3.510  15.178 -0.0112  0.0083  0.2429
55566DPGS   C1B78093  14.801   2.745  16.120 -0.0435 -0.0141 -0.0337
55566DPGS   C2B78094  14.802   2.746  15.681  0.3021 -0.2242 -0.0654
55566DPGS   C3B78095  14.427   2.663  15.330  0.0720 -0.0312 -0.2467
55566DPGS   C4B78096  14.176   2.354  15.090 -0.1446 -0.2235  0.0049
55567DPGS    C178097  24.420  14.307   8.928  0.1424  0.1905 -0.0187
55567DPGS    C278098  24.211  14.465   8.782 -0.1737 -0.0995  0.1129
55567DPGS    C378099  24.274  14.528   9.068 -0.0613  0.0040  0.0659
55567DPGS   AM178100  24.031  14.004   9.134  0.0789 -0.2533 -0.2468
55567DPGS   AM278101  23.960  13.970   8.877  0.2443  0.2725 -0.0108
55567DPGS   D1A78102  23.842  13.962   9.342 -0.1257 -0.0662  0.3642
55567DPGS   C2A78103  23.446  13.883   9.206  0.0609  0.1296  0.3134
55567DPGS   C3A78104  23.035  13.746   9.088 -0.0025  0.4384  0.0263
55567DPGS   C4A78105  22.690  13.655   8.875 -0.0618  0.0163 -0.0637
55567DPGS   C1B78106  23.633  13.884   8.782  0.0009  0.2477  0.1586
55567DPGS   C2B78107  23.173  13.759   8.603  0.1303 -0.1873 -0.0377
55567DPGS   C3B78108  22.912  13.587   8.394  0.2560  0.2067 -0.1047
55567DPGS   C4B78109  22.887  13.186   8.051  0.1302  0.3138  0.2781
55568DPGS    C178110  25.593   4.669  10.776 -0.0591  0.0381  0.1339
55568DPGS    C278111  25.650   4.419  10.620 -0.1408  0.0352  0.1084
55568DPGS    C378112  25.721   4.687  10.505  0.0799  0.0164  0.1975
55568DPGS   AM178113  25.159   4.807  10.566 -0.1304  0.0941 -0.1519
55568DPGS   AM278114  25.100   4.577  10.705 -0.0685 -0.2879 -0.1344
55568DPGS   D1A78115  24.972   4.860  10.351 -0.0617  0.0779 -0.0511
55568DPGS   C2A78116  24.726   4.537  10.117  0.1893 -0.0149 -0.0510
55568DPGS   C3A78117  24.510   4.433   9.754  0.1870  0.1272  0.1333
55568DPGS   C4A78118  24.295   4.557   9.367  0.2986  0.6688  0.1595
55568DPGS   C1B78119  24.788   4.439  10.638  0.0638  0.1051 -0.2017
55568DPGS   C2B78120  24.536   4.367  10.649 -0.0131  0.2257 -0.0060
55568DPGS   C3B78121  24.329   4.293  10.196 -0.0315  0.0999  0.2263
55568DPGS   C4B78122  24.018   4.234   9.956 -0.1749  0.2336 -0.2455
55569DPGS    C178123  23.918  14.846  11.388  0.2434 -0.2634  0.2734
55569DPGS    C278124  23.848  15.077  11.566 -0.1070 -0.0397 -0.1476
55569DPGS    C378125  24.090  15.092  11.390  0.0679 -0.1376  0.0835
55569DPGS   AM178126  23.603  15.132  11.091 -0.2641  0.0884 -0.2038
55569DPGS   AM278127  23.577  14.927  10.977  0.0453  0.3454  0.2766
55569DPGS   D1A78128  23.381  15.273  11.213  0.0270  0.0561  0.0121
55569DPGS   C2A78129  22.982  15.315  11.248 -0.1278  0.0588  0.1885
55569DPGS   C3A78130  22.631  15.417  11.437 -0.2767 -0.0891  0.1480
55569DPGS   C4A78131  22.233  15.553  11.407  0.1977 -0.1915  0.0528
55569DPGS   C1B78132  23.220  14.788  10.889  0.0334 -0.0241 -0.2001
55569DPGS   C2B78133  22.802  14.731  10.816 -0.1751  0.2706  0.0798
55569DPGS   C3B78134  22.443  14.568  10.941  0.2628 -0.1606 -0.0887
55569DPGS   C4B78135  22.020  14.698  10.970 -0.0483 -0.5781 -0.1371
55570DPGS    C178136   9.750   3.496  19.283 -0.0951 -0.2331 -0.1095
55570DPGS    C278137   9.705   3.536  19.577 -0.1439  0.1606 -0.1687
55570DPGS    C378138   9.471   3.498  19.393 -0.1076 -0.2098 -0.1419
55570DPGS   AM178139   9.521   3.318  18.865 -0.0354  0.3117  0.1334
55570DPGS   AM278140   9.442   3.563  18.807  0.1901  0.0073 -0.0652
55570DPGS   D1A78141   9.727   3.165  18.752 -0.2636  0.0798  0.1045
55570DPGS   C2A78142   9.830   2.986  18.395 -0.0163  0.2164  0.0532
55570DPGS   C3A78143   9.820   2.887  17.958  0.3694 -0.1351  0.2971
55570DPGS   C4A78144   9.639   2.946  17.543  0.1107  0.3163 -0.1182
55570DPGS   C1B78145   9.349   3.757  18.479 -0.0227  0.2660  0.1007
55570DPGS   C2B78146   9.466   3.751  18.042 -0.1488 -0.2842 -0.0264
55570DPGS   C3B78147   9.434   3.853  17.683 -0.1571 -0.1181 -0.2430
55570DPGS   C4B78148   9.546   3.957  17.255  0.1401  0.1120 -0.0010
55571DPGS    C178149  17.977   1.703  15.491  0.0026  0.0274  0.1671
55571DPGS    C278150  17.937   1.585  15.764 -0.3105 -0.1254  0.0579
55571DPGS    C378151  17.705   1.706  15.618 -0.0748  0.2625 -0.0014
55571DPGS   AM178152  17.787   1.632  15.045 -0.3122  0.1126  0.0627
55571DPGS   AM278153  17.789   1.879  15.038  0.1764 -0.1383  0.0229
55571DPGS   D1A78154  17.847   1.391  14.923 -0.1173  0.0386 -0.0498
55571DPGS   C2A78155  17.615   1.150  14.534  0.0881 -0.2481 -0.1539
55571DPGS   C3A78156  17.402   1.164  14.179  0.2623  0.1964  0.1839
55571DPGS   C4A78157  17.219   1.214  13.827  0.0357 -0.0573 -0.0164
55571DPGS   C1B78158  17.604   2.081  14.802 -0.1213 -0.2375  0.0844
55571DPGS   C2B78159  17.325   2.161  14.495 -0.2441 -0.4854 -0.0671
55571DPGS   C3B78160  17.025   2.293  14.124  0.0044 -0.0663 -0.1074
55571DPGS   C4B78161  16.930   2.298  13.706  0.3676  0.2348  0.1763
55572DPGS    C178162  34.663   5.258  11.387 -0.0155  0.0577 -0.2423
55572DPGS    C278163  34.372   5.223  11.452  0.0658 -0.0589  0.0732
55572DPGS    C378164  34.550   4.983  11.427  0.1766  0.0221  0.0754
55572DPGS   AM178165  34.699   5.164  10.905 -0.0318 -0.2132 -0.0323
55572DPGS   AM278166  34.435   5.206  10.894 -0.0451  0.3484  0.0109
55572DPGS   D1A78167  34.835   4.990  10.723  0.0169  0.1726 -0.0319
55572DPGS   C2A78168  34.969   4.877  10.407  0.2211  0.1308 -0.0746
55572DPGS   C3A78169  35.137   4.828  10.054  0.0687 -0.2873 -0.2462
55572DPGS   C4A78170   0.105   4.673   9.806 -0.4816  0.4437  0.0988
55572DPGS   C1B78171  34.314   5.030  10.601 -0.2785  0.1977 -0.1783
55572DPGS   C2B78172  34.463   4.964  10.228  0.2760  0.1297 -0.0467
55572DPGS   C3B78173  34.659   4.822  10.011  0.0972  0.1476 -0.2171
55572DPGS   C4B78174  34.816   4.868   9.674 -0.0058 -0.2609 -0.2752
55573DPGS    C178175  26.686  16.221   4.997  0.3047  0.0490  0.2141
55573DPGS    C278176  26.587  16.125   5.263  0.0114  0.0158  0.0948
55573DPGS    C378177  26.842  16.015   5.149 -0.1734 -0.4166  0.0888
55573DPGS   AM178178  26.784  15.980   4.580  0.1055 -0.0538 -0.0807
55573DPGS   AM278179  26.519  15.969   4.598  0.2911 -0.0656  0.1813
55573DPGS   D1A78180  26.887  15.978   4.308 -0.2936 -0.1254  0.3426
55573DPGS   C2A78181  26.609  16.038   4.010  0.2826  0.6645  0.1670
55573DPGS   C3A78182  26.362  16.076   3.727  0.3492  0.2014 -0.2170
55573DPGS   C4A78183  26.295  16.090   3.311  0.1653 -0.0307 -0.1338
55573DPGS   C1B78184  26.275  15.901   4.338 -0.1082  0.2335 -0.0102
55573DPGS   C2B78185  26.262  15.625   3.973 -0.0370 -0.4603  0.1712
55573DPGS   C3B78186  26.113  15.618   3.583  0.1187 -0.1809  0.0010
55573DPGS   C4B78187  25.859  15.523   3.298 -0.2532  0.2312  0.2462
55574DPGS    C178188  10.356  16.701  18.586 -0.1712 -0.1608  0.0793
55574DPGS    C278189  10.359  16.537  18.336 -0.0238 -0.0914  0.0351
55574DPGS    C378190  10.610  16.569  18.497  0.0357  0.3713 -0.1416
55574DPGS   AM178191  10.487  17.119  18.341 -0.0720  0.2199  0.2404
55574DPGS   AM278192  10.433  16.965  18.129  0.0450 -0.5981  0.4707
55574DPGS   D1A78193  10.669  17.317  18.392 -0.4050 -0.2523 -0.0193
55574DPGS   C2A78194  10.698  17.636  18.142  0.0603 -0.4699  0.2392
55574DPGS   C3A78195  10.898  17.985  17.918  0.0470 -0.3506 -0.1774
55574DPGS   C4A78196  11.014  18.344  17.616 -0.2156  0.1686  0.0140
55574DPGS   C1B78197  10.365  17.094  17.797  0.2763  0.0461 -0.1352
55574DPGS   C2B78198  10.392  17.284  17.448  0.1858 -0.0997 -0.0494
55574DPGS   C3B78199  10.564  17.566  17.316 -0.0549  0.2834  0.3029
55574DPGS   C4B78200  10.414  17.837  17.082 -0.0999 -0.3078  0.0866
55575DPGS    C178201   2.949  21.696  11.752 -0.1520  0.0696 -0.0522
55575DPGS    C278202   2.800  21.473  11.886 -0.1007 -0.0768 -0.2375
55575DPGS    C378203   2.769  21.754  11.985 -0.2549 -0.1498 -0.0756
55575DPGS   AM178204   3.318  21.777  12.021  0.0418  0.0547  0.2385
55575DPGS   AM278205   3.303  21.503  12.048 -0.2886  0.3063  0.0317
55575DPGS   D1A78206   3.636  21.797  12.007 -0.1702  0.3547  0.3152
55575DPGS   C2A78207   3.950  21.886  11.968 -0.1611  0.1403  0.3991
55575DPGS   C3A78208   4.321  22.069  11.893 -0.1103  0.2660 -0.0735
55575DPGS   C4A78209   4.623  22.126  11.871  0.0250 -0.2417 -0.1775
55575DPGS   C1B78210   3.540  21.245  11.997  0.1446  0.0646 -0.1486
55575DPGS   C2B78211   3.913  21.368  11.995  0.1493  0.3199  0.4519
55575DPGS   C3B78212   4.293  21.507  11.862 -0.1073  0.1233 -0.0424
55575DPGS   C4B78213   4.716  21.597  11.669  0.4580 -0.1501 -0.3161
55576DPGS    C178214  26.983   3.170  10.279 -0.1927 -0.0981 -0.0846
55576DPGS    C278215  27.204   3.343  10.386 -0.1464 -0.1394 -0.1125
55576DPGS    C378216  27.134   3.086  10.524 -0.2006 -0.1086 -0.0830
55576DPGS   AM178217  27.422   3.191  10.023 -0.0941  0.2376 -0.1108
55576DPGS   AM278218  27.232   3.111   9.828 -0.2930  0.0463 -0.0601
55576DPGS   D1A78219  27.680   3.253   9.886  0.0321  0.1075 -0.2431
55576DPGS   C2A78220  27.947   3.154   9.532  0.1407 -0.0224  0.0426
55576DPGS   C3A78221  28.080   3.360   9.210 -0.1777  0.0353 -0.4619
55576DPGS   C4A78222  28.169   3.379   8.844 -0.2537 -0.1136  0.0872
55576DPGS   C1B78223  27.206   3.233   9.503 -0.0983  0.5214  0.0665
55576DPGS   C2B78224  27.099   3.020   9.094  0.1540  0.1933  0.1826
55576DPGS   C3B78225  26.995   3.011   8.632  0.1515  0.0067 -0.0772
55576DPGS   C4B78226  26.974   3.325   8.414  0.0138 -0.2024  0.3472
55577DPGS    C178227  30.871  21.241   3.825 -0.1882 -0.1751  0.2495
55577DPGS    C278228  30.986  21.371   4.070  0.0274  0.0824  0.0149
55577DPGS    C378229  31.165  21.223   3.880 -0.0975  0.1086 -0.1246
55577DPGS   AM178230  30.956  21.725   3.655 -0.1051  0.1799  0.0211
55577DPGS   AM278231  30.772  21.608   3.502  0.0030 -0.2331 -0.1905
55577DPGS   D1A78232  31.124  21.928   3.508  0.1741  0.0268 -0.1447
55577DPGS   C2A78233  31.142  22.024   3.096 -0.2262  0.1568 -0.1726
55577DPGS   C3A78234  30.989  22.102   2.705 -0.1668 -0.0529 -0.1223
55577DPGS   C4A78235  30.850  22.367   2.437  0.1463  0.1153 -0.0001
55577DPGS   C1B78236  30.798  21.605   3.139  0.3325 -0.1577  0.4610
55577DPGS   C2B78237  30.777  21.698   2.676  0.0679  0.1395 -0.2226
55577DPGS   C3B78238  30.798  21.883   2.242  0.1202  0.2084 -0.3594
55577DPGS   C4B78239  30.858  22.019   1.836 -0.5029 -0.0622 -0.0780
55578DPGS    C178240  25.466  13.927   6.775 -0.0914  0.0004 -0.0858
55578DPGS    C278241  25.685  14.128   6.732 -0.0673 -0.0297 -0.1061
55578DPGS    C378242  25.398  14.215   6.722 -0.0536  0.0388  0.0727
55578DPGS   AM178243  25.038  13.764   6.824 -0.2004  0.0274 -0.1879
55578DPGS   AM278244  25.118  13.622   6.612  0.0337  0.0806 -0.2193
55578DPGS   D1A78245  24.801  13.767   6.977 -0.1468  0.3494  0.0065
55578DPGS   C2A78246  24.397  13.811   7.033 -0.2482 -0.0380  0.0620
55578DPGS   C3A78247  23.925  13.636   6.946 -0.1751  0.0717 -0.1468
55578DPGS   C4A78248  23.506  13.713   6.800 -0.3695  0.0431  0.0071
55578DPGS   C1B78249  24.857  13.555   6.357 -0.0655  0.2117  0.2504
55578DPGS   C2B78250  24.468  13.546   6.141  0.1591 -0.1844  0.1543
55578DPGS   C3B78251  24.154  13.594   6.041  0.0597  0.0828  0.1550
55578DPGS   C4B78252  23.754  13.566   5.872  0.0149 -0.0018 -0.2712
55579DPGS    C178253   0.070  12.199   8.567 -0.1207 -0.1129 -0.1139
55579DPGS    C278254   0.087  12.060   8.833 -0.0661  0.0424 -0.0356
55579DPGS    C378255  35.229  12.026   8.661 -0.1536  0.0382  0.0887
55579DPGS   AM178256   0.344  11.882   8.380 -0.0633 -0.0533  0.2441
55579DPGS   AM278257   0.291  11.975   8.133 -0.0640 -0.1372  0.0540
55579DPGS   D1A78258   0.583  11.745   8.463 -0.0139  0.2779 -0.0582
55579DPGS   C2A78259   0.845  11.586   8.180  0.2515 -0.4402  0.1781
55579DPGS   C3A78260   1.118  11.257   8.116 -0.0919 -0.2778 -0.2726
55579DPGS   C4A78261   1.308  10.928   8.265  0.2101 -0.0013 -0.1696
55579DPGS   C1B78262   0.463  11.836   7.850  0.0620 -0.1746 -0.1809
55579DPGS   C2B78263   0.718  11.801   7.662  0.2115 -0.0408 -0.2048
55579DPGS   C3B78264   0.931  11.457   7.664 -0.0879 -0.0193 -0.1015
55579DPGS   C4B78265   1.227  11.120   7.626  0.0256  0.0296  0.0706
55580DPGS    C178266  28.444   4.688   9.855 -0.1427  0.0382  0.2837
55580DPGS    C278267  28.652   4.791  10.045 -0.0832  0.1543  0.1564
55580DPGS    C378268  28.412   4.959   9.980  0.0204  0.2194 -0.0619
55580DPGS   AM178269  28.723   4.817   9.502 -0.0648  0.0067  0.0861
55580DPGS   AM278270  28.940   4.678   9.551 -0.0446 -0.2165 -0.2129
55580DPGS   D1A78271  28.507   4.679   9.336 -0.1971 -0.1689  0.0101
55580DPGS   C2A78272  28.498   4.637   8.925 -0.2719 -0.2607 -0.4433
55580DPGS   C3A78273  28.468   4.446   8.599  0.1858  0.0336  0.2267
55580DPGS   C4A78274  28.521   4.191   8.306  0.1221  0.2518 -0.2899
55580DPGS   C1B78275  29.169   4.556   9.312  0.0841  0.2544  0.1410
55580DPGS   C2B78276  29.370   4.256   8.937  0.0229 -0.2202 -0.0386
55580DPGS   C3B78277  29.529   4.140   8.465  0.1725  0.5406  0.0614
55580DPGS   C4B78278  29.348   3.967   8.206  0.2513  0.1602 -0.5011
55581DPGS    C178279  19.244  31.473  14.941 -0.2439  0.0505 -0.1597
55581DPGS    C278280  19.474  31.446  14.750 -0.1460  0.2068 -0.0655
55581DPGS    C378281  19.248  31.249  14.742  0.1162 -0.1010  0.0131
55581DPGS   AM178282  19.064  31.779  14.578  0.0683  0.0194 -0.1434
55581DPGS   AM278283  18.820  31.680  14.626  0.1882 -0.2392  0.0137
55581DPGS   D1A78284  19.061  31.952  14.345  0.1919 -0.1689 -0.2404
55581DPGS   C2A78285  18.779  31.916  13.978 -0.0913 -0.1706 -0.2731
55581DPGS   C3A78286  18.406  31.836  13.788  0.1862  0.0189 -0.0738
55581DPGS   C4A78287  18.344  31.854  13.418  0.1157 -0.1467 -0.0089
55581DPGS   C1B78288  18.540  31.723  14.400 -0.1099  0.1663  0.0064
55581DPGS   C2B78289  18.312  31.479  14.105 -0.4102  0.1232 -0.1664
55581DPGS   C3B78290  17.851  31.371  13.860  0.0129 -0.0217 -0.0399
55581DPGS   C4B78291  17.506  31.132  13.920 -0.1331  0.1296 -0.1625
55582DPGS    C178292  26.852   4.126  10.409  0.0558  0.0890  0.0950
55582DPGS    C278293  26.797   4.001  10.676  0.3765 -0.1287  0.0622
55582DPGS    C378294  26.761   3.840  10.425 -0.1175  0.1360 -0.0413
55582DPGS   AM178295  26.835   4.141   9.920 -0.2433  0.1524 -0.0931
55582DPGS   AM278296  26.652   4.338   9.976  0.0334  0.0458 -0.2521
55582DPGS   D1A78297  26.864   4.047   9.649  0.1319  0.1799 -0.1654
55582DPGS   C2A78298  26.597   3.933   9.439 -0.2134 -0.4133 -0.0587
55582DPGS   C3A78299  26.403   3.801   8.974  0.0283 -0.1782  0.0799
55582DPGS   C4A78300  26.331   3.790   8.459 -0.3716 -0.3352 -0.2282
55582DPGS   C1B78301  26.294   4.391   9.924  0.1477  0.0011  0.1596
55582DPGS   C2B78302  26.050   4.522   9.575  0.2776  0.1740 -0.4169
55582DPGS   C3B78303  26.145   4.731   9.202  0.1812  0.2173  0.1569
55582DPGS   C4B78304  26.391   4.724   8.814  0.2305  0.1394  0.2110
55583DPGS    C178305  23.238   0.622  12.004  0.1098  0.2117  0.0690
55583DPGS    C278306  22.984   0.587  12.160  0.1648 -0.2100  0.0689
55583DPGS    C378307  23.103   0.860  12.126 -0.2537 -0.0183  0.1219
55583DPGS   AM178308  23.158   0.794  11.542 -0.1585 -0.0789  0.4280
55583DPGS   AM278309  23.432   0.790  11.553 -0.1136  0.1721 -0.1173
55583DPGS   D1A78310  23.013   0.905  11.334 -0.2263 -0.1339  0.0921
55583DPGS   C2A78311  22.803   1.112  10.933 -0.1557  0.1855 -0.0897
55583DPGS   C3A78312  22.625   1.226  10.582 -0.0184 -0.0592  0.1345
55583DPGS   C4A78313  22.676   1.082  10.184 -0.2223 -0.1794 -0.1368
55583DPGS   C1B78314  23.595   0.953  11.264  0.0640 -0.0262 -0.1290
55583DPGS   C2B78315  23.686   0.881  10.901 -0.1828  0.1380  0.0109
55583DPGS   C3B78316  23.626   1.043  10.457  0.1560 -0.2247 -0.1646
55583DPGS   C4B78317  23.698   1.136   9.960 -0.0866  0.1878 -0.2696
55584DPGS    C178318  23.514  27.926  10.442  0.0240  0.0552  0.0069
55584DPGS    C278319  23.338  27.685  10.410  0.1912 -0.0828  0.1141
55584DPGS    C378320  23.528  27.762  10.191  0.1548 -0.0618  0.0899
55584DPGS   AM178321  23.369  28.324  10.100 -0.1461 -0.2477  0.2279
55584DPGS   AM278322  23.129  28.227  10.190 -0.4439  0.1235 -0.1084
55584DPGS   D1A78323  23.438  28.325   9.820 -0.0291  0.2257 -0.0871
55584DPGS   C2A78324  23.183  28.196   9.568  0.0695  0.0326 -0.2086
55584DPGS   C3A78325  22.745  28.122   9.319  0.1149 -0.5280  0.0666
55584DPGS   C4A78326  22.424  28.112   9.137  0.0017  0.1824 -0.0734
55584DPGS   C1B78327  22.824  28.192   9.999 -0.0480  0.1409 -0.1056
55584DPGS   C2B78328  22.551  28.215   9.748  0.1552 -0.1044 -0.4257
55584DPGS   C3B78329  22.252  27.933   9.573  0.2971 -0.1584 -0.3008
55584DPGS   C4B78330  21.892  27.505   9.641 -0.2767 -0.0433  0.3696
55585DPGS    C178331  13.318   2.401  18.024  0.0847  0.1795  0.0040
55585DPGS    C278332  13.461   2.665  18.030 -0.0059  0.2318 -0.1122
55585DPGS    C378333  13.595   2.425  17.912  0.0410  0.2474 -0.0906
55585DPGS   AM178334  13.082   2.424  17.614  0.0185 -0.1758  0.2989
55585DPGS   AM278335  13.017   2.171  17.657 -0.0624  0.2773  0.0923
55585DPGS   D1A78336  13.002   2.566  17.357 -0.1012 -0.4011  0.2044
55585DPGS   C2A78337  12.824   2.558  16.983  0.0375  0.0852  0.1430
55585DPGS   C3A78338  12.563   2.444  16.707 -0.0677  0.1640  0.2762
55585DPGS   C4A78339  12.327   2.220  16.309 -0.2827  0.2826 -0.0734
55585DPGS   C1B78340  12.721   1.973  17.604 -0.1188  0.0308 -0.1887
55585DPGS   C2B78341  12.370   1.849  17.306  0.0148 -0.0266 -0.1234
55585DPGS   C3B78342  12.103   1.832  17.211  0.2414 -0.0734  0.1449
55585DPGS   C4B78343  11.842   1.739  16.873  0.1224 -0.1661 -0.0641
55586DPGS    C178344  19.284  20.270  17.898 -0.0901 -0.0360  0.0217
55586DPGS    C278345  19.283  20.565  17.954 -0.0930 -0.0655  0.1799
55586DPGS    C378346  19.510  20.442  17.801 -0.1240  0.0290  0.0573
55586DPGS   AM178347  19.038  20.645  17.550  0.2314  0.1943 -0.0285
55586DPGS   AM278348  19.183  20.518  17.364 -0.1193 -0.0129 -0.1104
55586DPGS   D1A78349  18.807  20.822  17.480 -0.0972  0.1093  0.0655
55586DPGS   C2A78350  18.434  20.810  17.356  0.0222 -0.0882 -0.1472
55586DPGS   C3A78351  18.169  20.727  17.143 -0.1419 -0.2911 -0.3007
55586DPGS   C4A78352  17.788  20.682  16.835 -0.2741 -0.0761  0.2131
55586DPGS   C1B78353  19.110  20.515  17.004  0.0552 -0.1566 -0.0584
55586DPGS   C2B78354  18.860  20.324  16.732  0.0960 -0.1154  0.0500
55586DPGS   C3B78355  18.577  20.267  16.339 -0.3682 -0.4000  0.1005
55586DPGS   C4B78356  18.617  20.243  15.839  0.2505  0.3279 -0.3215
55587DPGS    C178357   0.873  18.921   7.989 -0.0309 -0.0986  0.1119
55587DPGS    C278358   0.909  19.219   7.972  0.1815 -0.1322 -0.0364
55587DPGS    C378359   1.078  19.058   8.161  0.0970 -0.1643  0.0121
55587DPGS   AM178360   1.252  18.722   7.747  0.0506  0.2050 -0.0697
55587DPGS   AM278361   1.232  18.563   7.972  0.0994  0.1727 -0.1392
55587DPGS   D1A78362   1.506  18.657   7.594  0.1847  0.0652  0.1773
55587DPGS   C2A78363   1.850  18.593   7.335 -0.1276  0.1960 -0.0875
55587DPGS   C3A78364   2.077  18.494   7.132  0.2642 -0.5227 -0.0595
55587DPGS   C4A78365   2.252  18.309   6.798  0.0830 -0.0281  0.0670
55587DPGS   C1B78366   1.532  18.349   8.072 -0.0962 -0.0486  0.3221
55587DPGS   C2B78367   1.986  18.318   7.840  0.3073  0.1638 -0.0361
55587DPGS   C3B78368   2.314  18.299   7.543  0.1673  0.0809 -0.0494
55587DPGS   C4B78369   2.437  18.001   7.174 -0.0326 -0.0615 -0.1777
55588DPGS    C178370  10.195   3.978  18.901  0.0619  0.0111  0.0382
55588DPGS    C278371  10.212   3.688  18.973 -0.0588  0.0657  0.2906
55588DPGS    C378372   9.954   3.803  18.874  0.0932  0.0016 -0.1931
55588DPGS   AM178373  10.329   3.821  18.444  0.1036  0.1031  0.1122
55588DPGS   AM278374  10.370   4.093  18.457  0.2535  0.2498 -0.1674
55588DPGS   D1A78375  10.490   3.664  18.266  0.0012 -0.1947  0.1056
55588DPGS   C2A78376  10.514   3.569  17.855  0.0724  0.3270  0.0038
55588DPGS   C3A78377  10.475   3.443  17.454 -0.0856  0.0147  0.1801
55588DPGS   C4A78378  10.410   3.015  17.158 -0.0705 -0.2504 -0.0224
55588DPGS   C1B78379  10.277   4.353  18.208  0.2499  0.2367 -0.1037
55588DPGS   C2B78380  10.397   4.363  17.770  0.1268 -0.0159 -0.1336
55588DPGS   C3B78381  10.350   4.534  17.337  0.2454 -0.1421  0.0582
55588DPGS   C4B78382  10.472   4.415  16.944  0.2542  0.3269 -0.0727
55589DPGS    C178383   3.424  20.931  13.313 -0.0858  0.0333 -0.0657
55589DPGS    C278384   3.254  20.762  13.133  0.0908 -0.1706 -0.0432
55589DPGS    C378385   3.167  21.040  13.204 -0.1121 -0.1859 -0.2269
55589DPGS   AM178386   3.656  21.255  13.050 -0.1519 -0.0068 -0.2229
55589DPGS   AM278387   3.586  21.409  13.265  0.0451  0.0839 -0.0299
55589DPGS   D1A78388   3.903  21.322  12.926 -0.1506 -0.1624  0.0379
55589DPGS   C2A78389   4.284  21.318  12.861 -0.1238 -0.2030  0.1060
55589DPGS   C3A78390   4.655  21.553  12.864  0.1281  0.0855 -0.0807
55589DPGS   C4A78391   5.001  21.616  12.548  0.1886 -0.0294 -0.0509
55589DPGS   C1B78392   3.774  21.679  13.450 -0.2755  0.2731  0.5120
55589DPGS   C2B78393   4.218  21.730  13.391  0.1033 -0.2235  0.0951
55589DPGS   C3B78394   4.621  21.875  13.323 -0.3677  0.0344  0.0139
55589DPGS   C4B78395   5.069  21.838  13.344  0.0655 -0.0995  0.3661
55590DPGS    C178396  35.124   5.152  11.784 -0.1312  0.0528  0.1838
55590DPGS    C278397  35.153   5.381  11.593 -0.2060  0.0293  0.1441
55590DPGS    C378398   0.011   5.233  11.687 -0.1737  0.0033  0.0212
55590DPGS   AM178399  35.049   4.949  11.339  0.0406  0.0265  0.0706
55590DPGS   AM278400  34.977   4.753  11.489  0.2910 -0.0789 -0.1794
55590DPGS   D1A78401  35.239   4.960  11.098  0.2622  0.3079 -0.3282
55590DPGS   C2A78402  35.385   4.769  10.726 -0.2390  0.1000 -0.1144
55590DPGS   C3A78403   0.120   4.593  10.267  0.3221  0.0975 -0.2822
55590DPGS   C4A78404   0.231   4.192  10.043 -0.0298 -0.0129 -0.0407
55590DPGS   C1B78405  35.148   4.406  11.427 -0.0816  0.0515 -0.0955
55590DPGS   C2B78406  35.238   4.045  11.194 -0.0850 -0.1562  0.1396
55590DPGS   C3B78407  35.288   3.750  10.887 -0.1992  0.2439  0.3488
55590DPGS   C4B78408   0.278   3.521  10.824  0.0640 -0.0251  0.1300
55591DPGS    C178409   8.286  11.199  18.089  0.0590 -0.0019 -0.0392
55591DPGS    C278410   8.200  11.201  18.376  0.1924 -0.0450  0.0005
55591DPGS    C378411   8.429  11.028  18.288  0.1268 -0.0617 -0.1391
55591DPGS   AM178412   8.709  11.163  17.810  0.0417  0.1405  0.0987
55591DPGS   AM278413   8.519  11.085  17.631  0.0778  0.0487 -0.0467
55591DPGS   D1A78414   8.945  11.266  17.701 -0.1929 -0.2657 -0.1333
55591DPGS   C2A78415   8.893  11.178  17.240  0.4604 -0.0662  0.2697
55591DPGS   C3A78416   8.864  11.263  16.782  0.2356 -0.2230  0.3708
55591DPGS   C4A78417   8.815  11.561  16.442  0.1675  0.0742  0.1486
55591DPGS   C1B78418   8.436  10.837  17.364  0.2448 -0.1201  0.2293
55591DPGS   C2B78419   8.169  10.701  17.223 -0.0042 -0.3010  0.0234
55591DPGS   C3B78420   7.970  10.725  16.878  0.2656 -0.0403 -0.0179
55591DPGS   C4B78421   7.990  11.191  16.709  0.3375 -0.0740  0.0056
55592DPGS    C178422   5.410  10.579  16.441 -0.0893 -0.0595  0.1933
55592DPGS    C278423   5.222  10.351  16.488 -0.0296 -0.1439  0.0248
55592DPGS    C378424   5.342  10.392  16.217  0.1166 -0.0308  0.1063
55592DPGS   AM178425   5.902  10.490  16.343  0.2335 -0.2277 -0.1376
55592DPGS   AM278426   5.869  10.737  16.206  0.1844 -0.0323  0.0624
55592DPGS   D1A78427   6.162  10.350  16.389  0.0301 -0.1147 -0.1116
55592DPGS   C2A78428   6.497  10.253  16.151  0.2775  0.2959  0.1892
55592DPGS   C3A78429   6.845  10.209  15.802  0.1095 -0.0821 -0.0357
55592DPGS   C4A78430   7.165  10.176  15.642  0.0124  0.2002  0.0335
55592DPGS   C1B78431   5.998  10.820  15.875 -0.3440 -0.0281 -0.0477
55592DPGS   C2B78432   6.128  10.826  15.492 -0.0449 -0.0122 -0.2524
55592DPGS   C3B78433   6.150  11.059  15.117  0.0145 -0.0222  0.0900
55592DPGS   C4B78434   6.447  11.157  14.807 -0.4220 -0.1579  0.0084
55593DPGS    C178435  33.686  29.905  12.814  0.1793  0.1478  0.0696
55593DPGS    C278436  33.847  29.932  13.065  0.3356  0.0518 -0.0190
55593DPGS    C378437  33.880  29.690  12.891 -0.0175 -0.0424  0.0404
55593DPGS   AM178438  33.996  30.082  12.482 -0.0860 -0.0947  0.3719
55593DPGS   AM278439  33.767  30.107  12.385  0.1257 -0.1099 -0.0628
55593DPGS   D1A78440  34.198  30.246  12.341  0.4285 -0.0365  0.3963
55593DPGS   C2A78441  34.566  30.376  12.168  0.2238 -0.1989  0.0297
55593DPGS   C3A78442  34.994  30.423  11.936  0.0293 -0.1021  0.1885
55593DPGS   C4A78443  35.199  30.689  11.789 -0.5131 -0.1278  0.0220
55593DPGS   C1B78444  33.675  30.179  12.033  0.2136  0.0930 -0.1880
55593DPGS   C2B78445  33.959  30.429  11.868  0.0280  0.0738 -0.0748
55593DPGS   C3B78446  34.245  30.673  11.602 -0.2118  0.1855 -0.2116
55593DPGS   C4B78447  34.042  30.957  11.317 -0.2590  0.1954  0.1383
55594DPGS    C178448   1.739   6.079  12.494  0.0698  0.0373  0.1113
55594DPGS    C278449   1.555   6.205  12.695  0.0054 -0.0553  0.1109
55594DPGS    C378450   1.588   5.907  12.688  0.0067 -0.0524 -0.0168
55594DPGS   AM178451   2.157   5.889  12.683  0.4300  0.0741 -0.0384
55594DPGS   AM278452   2.105   5.741  12.501  0.3833  0.1072  0.1276
55594DPGS   D1A78453   2.410   6.067  12.696  0.0876  0.1814  0.2659
55594DPGS   C2A78454   2.724   6.094  12.429  0.0966 -0.1068  0.0487
55594DPGS   C3A78455   2.885   5.996  12.096 -0.1570 -0.0170  0.0190
55594DPGS   C4A78456   3.223   5.846  12.059 -0.1666 -0.1846 -0.1302
55594DPGS   C1B78457   2.260   5.438  12.428 -0.3781 -0.0745 -0.1141
55594DPGS   C2B78458   2.421   5.158  12.134  0.3621  0.3303 -0.0616
55594DPGS   C3B78459   2.593   4.997  11.795 -0.0422  0.0363  0.2361
55594DPGS   C4B78460   2.956   4.733  11.510  0.0168  0.0131  0.0549
55595DPGS    C178461  13.284  16.091  18.910  0.0660 -0.0230  0.2560
55595DPGS    C278462  13.572  16.141  18.980  0.1208 -0.0048  0.0234
55595DPGS    C378463  13.448  16.281  18.746 -0.0764 -0.0189  0.1182
55595DPGS   AM178464  13.137  15.924  18.430  0.0023 -0.0844 -0.0385
55595DPGS   AM278465  13.371  15.819  18.480  0.1017 -0.2307 -0.2821
55595DPGS   D1A78466  13.074  16.018  18.163  0.2161 -0.0715 -0.0997
55595DPGS   C2A78467  12.955  16.227  17.781 -0.1703  0.2874 -0.2495
55595DPGS   C3A78468  12.997  16.482  17.437  0.0974 -0.1201  0.1232
55595DPGS   C4A78469  12.926  16.632  16.980 -0.2671  0.4281  0.0211
55595DPGS   C1B78470  13.609  15.756  18.178  0.3793  0.0853  0.0409
55595DPGS   C2B78471  13.609  15.484  17.825  0.0608  0.0209  0.3867
55595DPGS   C3B78472  13.817  15.571  17.583  0.2806 -0.2522  0.1761
55595DPGS   C4B78473  13.952  15.578  17.175 -0.2064  0.0431  0.0155
55596DPGS    C178474   4.813   9.655  15.518 -0.0714 -0.0281  0.2036
55596DPGS    C278475   5.075   9.740  15.638  0.0513 -0.0882 -0.0193
55596DPGS    C378476   4.819   9.791  15.786  0.1997 -0.1589  0.2658
55596DPGS   AM178477   4.948   9.245  15.749  0.2966 -0.1034 -0.1394
55596DPGS   AM278478   4.725   9.163  15.677  0.0468  0.0497  0.0070
55596DPGS   D1A78479   5.167   9.076  15.681 -0.0407  0.1338 -0.1328
55596DPGS   C2A78480   5.447   8.677  15.619 -0.1146  0.1022 -0.3106
55596DPGS   C3A78481   5.516   8.350  15.336 -0.2260  0.0970  0.1339
55596DPGS   C4A78482   5.427   7.973  15.306 -0.0923 -0.1638 -0.0083
55596DPGS   C1B78483   4.681   8.934  15.404  0.1798 -0.0606 -0.4970
55596DPGS   C2B78484   4.392   8.896  15.203 -0.1873  0.4435 -0.0357
55596DPGS   C3B78485   4.255   8.536  14.926 -0.1512 -0.1353  0.0073
55596DPGS   C4B78486   4.032   8.144  14.835 -0.2623 -0.2700  0.3131
55597DPGS    C178487  18.536  27.504  18.648  0.0678  0.1319 -0.2035
55597DPGS    C278488  18.484  27.617  18.921 -0.4009 -0.1285 -0.1803
55597DPGS    C378489  18.449  27.790  18.678 -0.0318  0.0890 -0.0817
55597DPGS   AM178490  18.084  27.395  18.455  0.2188  0.1010  0.1739
55597DPGS   AM278491  18.197  27.519  18.232 -0.1389  0.1242  0.1542
55597DPGS   D1A78492  17.857  27.192  18.504  0.1585  0.4247  0.2192
55597DPGS   C2A78493  17.758  26.723  18.484 -0.0545  0.0426  0.0958
55597DPGS   C3A78494  17.602  26.416  18.237  0.0778  0.0892 -0.0987
55597DPGS   C4A78495  17.521  26.067  18.131 -0.0268  0.1538  0.0609
55597DPGS   C1B78496  18.110  27.568  17.858 -0.2850  0.2312 -0.1116
55597DPGS   C2B78497  17.797  27.385  17.612  0.1576  0.1676 -0.1185
55597DPGS   C3B78498  17.483  27.166  17.657  0.1012  0.1368  0.0147
55597DPGS   C4B78499  17.175  27.128  17.844 -0.1878 -0.0999  0.1111
55598DPGS    C178500   2.717  21.490  10.693  0.1614 -0.1381 -0.2119
55598DPGS    C278501   2.462  21.390  10.571  0.0481  0.0359 -0.1204
55598DPGS    C378502   2.488  21.678  10.650  0.1894 -0.0317  0.0877
55598DPGS   AM178503   2.987  21.792  10.462 -0.1052  0.3027 -0.0309
55598DPGS   AM278504   3.151  21.806  10.688 -0.1349  0.0677 -0.1343
55598DPGS   D1A78505   3.089  21.962  10.249  0.0608  0.0227  0.0503
55598DPGS   C2A78506   3.336  22.114  10.083  0.0444  0.0005 -0.1802
55598DPGS   C3A78507   3.516  22.383  10.050 -0.1912 -0.2799  0.2196
55598DPGS   C4A78508   3.862  22.617   9.973  0.2009  0.0395 -0.1346
55598DPGS   C1B78509   3.508  21.881  10.654  0.0424  0.1418 -0.4583
55598DPGS   C2B78510   3.708  22.168  10.394 -0.3088  0.1132  0.1247
55598DPGS   C3B78511   4.077  22.431  10.356 -0.1266 -0.0625 -0.0240
55598DPGS   C4B78512   4.379  22.342  10.060 -0.1197 -0.0058 -0.1752
55599DPGS    C178513   9.802   8.372  18.797  0.0218  0.1049 -0.1299
55599DPGS    C278514   9.844   8.075  18.785 -0.0454  0.0989 -0.2246
55599DPGS    C378515   9.608   8.199  18.647 -0.1158  0.1771 -0.0358
55599DPGS   AM178516  10.101   8.309  18.381  0.0959 -0.1177 -0.0130
55599DPGS   AM278517  10.132   8.582  18.437 -0.1623 -0.0795  0.1841
55599DPGS   D1A78518  10.098   8.220  18.125 -0.1986 -0.0228  0.3181
55599DPGS   C2A78519  10.338   8.002  17.821 -0.2224 -0.2072  0.1727
55599DPGS   C3A78520  10.477   8.155  17.429 -0.5112  0.1502  0.0127
55599DPGS   C4A78521  10.560   8.078  17.004 -0.4975 -0.0802 -0.0242
55599DPGS   C1B78522  10.272   8.902  18.282 -0.0844 -0.0063 -0.0336
55599DPGS   C2B78523  10.565   9.154  18.222 -0.1055  0.0046  0.2681
55599DPGS   C3B78524  10.700   9.386  17.841 -0.2888  0.0193  0.1616
55599DPGS   C4B78525  11.093   9.301  17.551 -0.1292  0.0743  0.0964
55600DPGS    C178526  18.257   0.833  14.828 -0.0735  0.1317 -0.1202
55600DPGS    C278527  17.972   0.920  14.865 -0.1110  0.0040 -0.1073
55600DPGS    C378528  18.157   0.910  15.100 -0.0680  0.1843 -0.1328
55600DPGS   AM178529  18.254   1.302  14.684 -0.0484 -0.1052 -0.3236
55600DPGS   AM278530  18.511   1.376  14.679  0.1201  0.2689  0.0520
55600DPGS   D1A78531  18.123   1.326  14.413  0.1467 -0.0542  0.1670
55600DPGS   C2A78532  17.821   1.402  14.060  0.0460  0.4484  0.0172
55600DPGS   C3A78533  17.631   1.455  13.582 -0.0888  0.1853 -0.4228
55600DPGS   C4A78534  17.611   1.652  13.180  0.2519 -0.1145  0.0658
55600DPGS   C1B78535  18.568   1.582  14.368 -0.1133  0.0434  0.0687
55600DPGS   C2B78536  18.544   1.725  13.930 -0.0606  0.1594  0.0132
55600DPGS   C3B78537  18.288   1.857  13.624  0.2253 -0.1066  0.2431
55600DPGS   C4B78538  18.134   1.767  13.220 -0.0310  0.2417  0.2508
55601DPGS    C178539  16.756  17.301  18.328 -0.1306 -0.1935 -0.0161
55601DPGS    C278540  16.984  17.440  18.465 -0.1517  0.0078 -0.1838
55601DPGS    C378541  16.971  17.140  18.462 -0.2167  0.0011  0.3617
55601DPGS   AM178542  17.103  17.335  17.931 -0.0107 -0.2094 -0.1430
55601DPGS   AM278543  17.032  17.095  17.888 -0.0339  0.0028  0.3035
55601DPGS   D1A78544  17.144  17.557  17.755  0.3763  0.1473 -0.0399
55601DPGS   C2A78545  16.985  17.622  17.372 -0.0922 -0.2092 -0.0108
55601DPGS   C3A78546  16.769  17.538  17.041 -0.2600  0.0189  0.1689
55601DPGS   C4A78547  16.677  17.561  16.653  0.0993 -0.1908  0.1417
55601DPGS   C1B78548  16.839  17.020  17.574  0.2771  0.2120  0.0829
55601DPGS   C2B78549  16.726  17.068  17.228 -0.0723  0.2481  0.0620
55601DPGS   C3B78550  16.432  17.116  16.847  0.2455 -0.0343  0.0661
55601DPGS   C4B78551  16.430  17.172  16.375  0.0991  0.3082  0.0381
55602DPGS    C178552  15.332  20.750  20.377  0.0251 -0.4303 -0.0101
55602DPGS    C278553  15.227  20.788  20.655  0.2666  0.0518  0.0211
55602DPGS    C378554  15.428  20.573  20.599  0.2626 -0.0081  0.2328
55602DPGS   AM178555  15.779  20.966  20.350  0.2282 -0.0909  0.0654
55602DPGS   AM278556  15.882  20.754  20.274 -0.0461 -0.0628  0.0572
55602DPGS   D1A78557  15.838  21.246  20.334  0.2396 -0.0197 -0.1951
55602DPGS   C2A78558  15.903  21.601  20.138 -0.3311 -0.1024  0.0160
55602DPGS   C3A78559  15.882  21.718  19.723 -0.1719  0.1157 -0.2863
55602DPGS   C4A78560  15.614  21.983  19.525  0.3695  0.1357 -0.2373
55602DPGS   C1B78561  15.826  20.617  19.926 -0.2365 -0.0746 -0.1681
55602DPGS   C2B78562  15.917  20.682  19.497 -0.2660  0.2934  0.0347
55602DPGS   C3B78563  15.795  20.911  19.154  0.0367  0.0309 -0.3765
55602DPGS   C4B78564  15.755  21.060  18.893 -0.3311  0.0033 -0.1735
55603DPGS    C178565   2.759   6.203  14.285 -0.4236 -0.1121 -0.3501
55603DPGS    C278566   2.676   6.460  14.416  0.1489 -0.0582 -0.0792
55603DPGS    C378567   2.703   6.446  14.118 -0.0112  0.1583 -0.1048
55603DPGS   AM178568   3.229   6.247  14.168 -0.2274 -0.1231 -0.0188
55603DPGS   AM278569   3.226   6.339  14.404 -0.4547 -0.1158 -0.2952
55603DPGS   D1A78570   3.427   6.084  14.032 -0.0505 -0.0980  0.1086
55603DPGS   C2A78571   3.799   6.112  13.841 -0.3064  0.3279  0.0097
55603DPGS   C3A78572   4.236   6.210  13.767 -0.1165 -0.0502 -0.2175
55603DPGS   C4A78573   4.662   6.038  13.690  0.1152  0.1861 -0.1390
55603DPGS   C1B78574   3.389   6.663  14.499  0.3126  0.1722 -0.0749
55603DPGS   C2B78575   3.605   7.007  14.303  0.1483  0.2027  0.2253
55603DPGS   C3B78576   3.914   7.191  14.139 -0.0865  0.2157 -0.1698
55603DPGS   C4B78577   4.211   7.165  13.845  0.0859  0.3213 -0.0531
55604DPGS    C178578   2.700  16.969  12.971  0.0244  0.2913 -0.0144
55604DPGS    C278579   2.574  16.702  12.917  0.3966  0.1269 -0.0823
55604DPGS    C378580   2.580  16.911  12.702  0.1775  0.1613 -0.0555
55604DPGS   AM178581   3.030  16.565  12.830  0.0379  0.1006  0.0254
55604DPGS   AM278582   3.077  16.701  12.617 -0.0030 -0.1544 -0.0169
55604DPGS   D1A78583   3.126  16.382  13.023 -0.2690 -0.1424  0.2334
55604DPGS   C2A78584   3.615  16.190  13.044 -0.2334 -0.1827 -0.2966
55604DPGS   C3A78585   4.106  16.123  12.856  0.0154 -0.0673 -0.1486
55604DPGS   C4A78586   4.447  15.854  12.648  0.1990  0.0631  0.0695
55604DPGS   C1B78587   3.330  16.710  12.360 -0.0643  0.1404  0.1005
55604DPGS   C2B78588   3.700  16.932  12.067  0.1081  0.1201  0.0223
55604DPGS   C3B78589   4.055  16.916  11.729 -0.3117 -0.0435 -0.0493
55604DPGS   C4B78590   4.507  16.802  11.735  0.1238 -0.0663 -0.0096
55605DPGS    C178591  28.863   8.032   7.440 -0.3012  0.2709  0.0310
55605DPGS    C278592  28.738   7.782   7.550 -0.0652  0.1079 -0.0665
55605DPGS    C378593  28.614   7.922   7.315 -0.1960  0.0818 -0.0133
55605DPGS   AM178594  29.098   7.854   7.032  0.0151  0.1338  0.3029
55605DPGS   AM278595  29.133   8.112   6.914  0.0534 -0.2255  0.1482
55605DPGS   D1A78596  29.028   7.606   6.922 -0.1394  0.1555  0.1482
55605DPGS   C2A78597  29.030   7.322   6.632  0.1734 -0.2282 -0.2342
55605DPGS   C3A78598  28.820   7.057   6.496 -0.1280 -0.0852 -0.1158
55605DPGS   C4A78599  28.984   6.700   6.293 -0.1986  0.1897 -0.1881
55605DPGS   C1B78600  29.152   8.156   6.547 -0.0920 -0.0465  0.1203
55605DPGS   C2B78601  29.217   8.010   6.158  0.1476  0.1299  0.1859
55605DPGS   C3B78602  29.239   7.882   5.698  0.0580  0.0266  0.0031
55605DPGS   C4B78603  29.067   7.684   5.468 -0.1782  0.1606  0.1032
55606DPGS    C178604  17.490  13.910  17.826 -0.2185 -0.0723 -0.1006
55606DPGS    C278605  17.257  14.032  17.969 -0.0652  0.0520  0.0466
55606DPGS    C378606  17.469  14.208  17.851  0.1285 -0.0694  0.2103
55606DPGS   AM178607  17.543  13.996  17.319 -0.2181  0.0315 -0.3234
55606DPGS   AM278608  17.740  14.181  17.390 -0.0676  0.1987  0.0240
55606DPGS   D1A78609  17.456  13.885  17.087 -0.2245  0.0446  0.2420
55606DPGS   C2A78610  17.362  14.045  16.811  0.0099  0.1539  0.1759
55606DPGS   C3A78611  17.447  14.036  16.340  0.0793  0.1459  0.0669
55606DPGS   C4A78612  17.238  14.139  15.907  0.0846  0.1016 -0.1184
55606DPGS   C1B78613  17.634  14.536  17.397 -0.0062  0.2449 -0.0122
55606DPGS   C2B78614  17.379  14.482  17.152  0.2518 -0.1395  0.2011
55606DPGS   C3B78615  17.149  14.597  16.893  0.0985 -0.1052 -0.1451
55606DPGS   C4B78616  16.731  14.512  16.690 -0.2468  0.0049  0.0095
55607DPGS    C178617   0.331  13.283   8.650  0.0165 -0.2334 -0.1808
55607DPGS    C278618   0.130  13.481   8.546  0.0690 -0.0063  0.1430
55607DPGS    C378619   0.049  13.196   8.593 -0.0457 -0.0309 -0.1861
55607DPGS   AM178620   0.503  12.943   8.373 -0.5882  0.3350  0.0730
55607DPGS   AM278621   0.369  13.007   8.145 -0.0372 -0.2042 -0.3898
55607DPGS   D1A78622   0.776  12.851   8.367 -0.4163 -0.1053  0.0403
55607DPGS   C2A78623   1.087  12.740   8.146  0.3775 -0.1163 -0.3876
55607DPGS   C3A78624   1.425  12.650   7.930  0.1732 -0.3069 -0.0074
55607DPGS   C4A78625   1.777  12.477   7.685  0.1014 -0.1677 -0.0311
55607DPGS   C1B78626   0.406  12.832   7.841 -0.2588  0.1918  0.2572
55607DPGS   C2B78627   0.744  12.743   7.666  0.1840  0.1807 -0.1630
55607DPGS   C3B78628   1.088  12.643   7.523  0.0274  0.0265  0.0526
55607DPGS   C4B78629   1.397  12.529   7.307 -0.1463  0.1431  0.1681
55608DPGS    C178630  12.731  14.319  18.036  0.0267 -0.0325  0.1171
55608DPGS    C278631  12.791  14.180  18.295  0.0515 -0.0395  0.1075
55608DPGS    C378632  13.011  14.232  18.099  0.0516  0.0585  0.1337
55608DPGS   AM178633  12.884  14.609  17.672  0.2480  0.1984  0.1631
55608DPGS   AM278634  12.834  14.367  17.567  0.4399 -0.0262  0.0210
55608DPGS   D1A78635  12.887  14.849  17.522 -0.1719  0.1065  0.1558
55608DPGS   C2A78636  13.021  15.059  17.189 -0.0084 -0.0268  0.2120
55608DPGS   C3A78637  13.064  15.331  16.837  0.0876 -0.1588  0.1427
55608DPGS   C4A78638  12.979  15.355  16.416 -0.0101  0.0955  0.1539
55608DPGS   C1B78639  12.981  14.211  17.251 -0.0293  0.2843  0.0415
55608DPGS   C2B78640  13.021  14.048  16.920 -0.1507 -0.1486 -0.1504
55608DPGS   C3B78641  13.373  14.043  16.556  0.1553  0.0215 -0.3993
55608DPGS   C4B78642  13.656  13.828  16.552  0.1223 -0.3306 -0.1249
55609DPGS    C178643  34.253  13.961   6.250  0.1170 -0.0161 -0.0230
55609DPGS    C278644  33.954  13.937   6.246  0.1287 -0.1612 -0.1011
55609DPGS    C378645  34.113  13.793   6.455  0.1594 -0.2719 -0.2009
55609DPGS   AM178646  34.290  13.522   5.976 -0.0617  0.0682  0.0066
55609DPGS   AM278647  34.070  13.590   5.831 -0.1535  0.1550 -0.4471
55609DPGS   D1A78648  34.475  13.391   5.789  0.1728 -0.1955 -0.1808
55609DPGS   C2A78649  34.703  13.284   5.414 -0.0414 -0.1019 -0.1130
55609DPGS   C3A78650  35.096  13.308   5.144  0.1661  0.0247 -0.0395
55609DPGS   C4A78651  35.244  13.239   4.748 -0.1047  0.0036 -0.0335
55609DPGS   C1B78652  34.073  13.670   5.470 -0.1307  0.1364 -0.2158
55609DPGS   C2B78653  34.299  13.695   5.041 -0.3589  0.1430 -0.0202
55609DPGS   C3B78654  34.453  13.567   4.636  0.5234  0.0500 -0.2053
55609DPGS   C4B78655  34.651  13.356   4.284 -0.1125 -0.0352 -0.1358
55610DPGS    C178656  29.015   0.934  10.460 -0.2532  0.1262 -0.3990
55610DPGS    C278657  28.875   0.680  10.537 -0.0021  0.1463  0.1492
55610DPGS    C378658  29.073   0.680  10.313  0.0649 -0.1636  0.2068
55610DPGS   AM178659  29.243   1.205  10.110 -0.1482 -0.1618 -0.1285
55610DPGS   AM278660  28.992   1.211  10.023  0.0186  0.2626  0.0222
55610DPGS   D1A78661  29.490   1.288  10.040 -0.1397 -0.5252 -0.3411
55610DPGS   C2A78662  29.687   1.297   9.639  0.1124 -0.0455 -0.1027
55610DPGS   C3A78663  29.918   1.294   9.333  0.0981  0.0527  0.0648
55610DPGS   C4A78664  29.936   1.262   8.900 -0.0670  0.0607 -0.0066
55610DPGS   C1B78665  28.905   1.312   9.700  0.0851 -0.2993  0.1637
55610DPGS   C2B78666  28.957   1.360   9.307 -0.2993 -0.4281 -0.1351
55610DPGS   C3B78667  29.017   1.479   8.885 -0.1024  0.0510  0.3760
55610DPGS   C4B78668  28.865   1.687   8.507 -0.0413  0.0041  0.0552
55611DPGS    C178669   1.758   9.567  12.522 -0.0038 -0.1560 -0.1568
55611DPGS    C278670   1.844   9.837  12.422  0.1043 -0.1545 -0.0606
55611DPGS    C378671   1.998   9.702  12.642 -0.0857 -0.1926  0.0501
55611DPGS   AM178672   2.075   9.465  12.124  0.0137  0.1295  0.0062
55611DPGS   AM278673   2.141   9.324  12.358  0.0667  0.0829 -0.1856
55611DPGS   D1A78674   2.283   9.535  11.950  0.0181 -0.0212  0.0135
55611DPGS   C2A78675   2.605   9.452  11.660  0.1116  0.2430  0.0273
55611DPGS   C3A78676   2.899   9.376  11.328 -0.0568 -0.2501 -0.1309
55611DPGS   C4A78677   3.071   9.212  10.937 -0.2351 -0.0510 -0.0118
55611DPGS   C1B78678   2.466   9.181  12.459  0.2110 -0.0604  0.0234
55611DPGS   C2B78679   2.784   9.176  12.110  0.2063 -0.2545  0.0068
55611DPGS   C3B78680   3.103   9.038  11.935 -0.1153  0.1701 -0.0893
55611DPGS   C4B78681   3.555   8.870  11.781  0.1231 -0.0910  0.3591
55612DPGS    C178682  11.089  16.180  18.472  0.1797  0.3912 -0.2509
55612DPGS    C278683  11.260  16.252  18.708 -0.0446  0.0156  0.0307
55612DPGS    C378684  11.039  16.435  18.622  0.0955  0.1973  0.0550
55612DPGS   AM178685  10.864  16.426  18.078 -0.1817  0.0748 -0.1045
55612DPGS   AM278686  11.128  16.503  18.058  0.1108 -0.1090 -0.0804
55612DPGS   D1A78687  10.668  16.605  17.905 -0.1793  0.1219  0.0998
55612DPGS   C2A78688  10.735  16.880  17.534  0.1027 -0.0550  0.0030
55612DPGS   C3A78689  10.851  16.953  17.217 -0.2990  0.1342  0.0388
55612DPGS   C4A78690  10.846  17.008  16.782  0.1799 -0.0870  0.0845
55612DPGS   C1B78691  11.200  16.700  17.767  0.0380  0.0793  0.0950
55612DPGS   C2B78692  11.289  16.920  17.420 -0.2619 -0.1063  0.0171
55612DPGS   C3B78693  11.253  17.289  17.216 -0.0566  0.0419 -0.1897
55612DPGS   C4B78694  10.956  17.483  16.946  0.3190  0.1202 -0.0802
55613DPGS    C178695   2.643   8.349  13.731  0.0644  0.0104  0.0398
55613DPGS    C278696   2.591   8.566  13.932  0.0611  0.1446 -0.1057
55613DPGS    C378697   2.410   8.534  13.695 -0.0952 -0.1858  0.0557
55613DPGS   AM178698   2.950   8.661  13.552 -0.1442 -0.4743  0.2242
55613DPGS   AM278699   3.033   8.785  13.793  0.0682  0.2999  0.0996
55613DPGS   D1A78700   3.046   8.689  13.294 -0.0030 -0.1338  0.0547
55613DPGS   C2A78701   3.370   8.687  12.995 -0.2221 -0.3618  0.1430
55613DPGS   C3A78702   3.712   8.580  12.705 -0.2450 -0.3247 -0.1605
55613DPGS   C4A78703   4.013   8.503  12.272  0.1318 -0.1149  0.1792
55613DPGS   C1B78704   3.379   8.784  13.963 -0.0460  0.1169  0.1427
55613DPGS   C2B78705   3.702   8.563  13.979 -0.2696 -0.1586 -0.0917
55613DPGS   C3B78706   4.053   8.451  13.930 -0.1267  0.0370  0.1192
55613DPGS   C4B78707   4.339   8.388  13.598  0.2299 -0.0532  0.2374
55614DPGS    C178708  34.697  22.814   8.483  0.1681  0.0194 -0.2045
55614DPGS    C278709  34.657  23.062   8.648 -0.0200 -0.3163  0.2656
55614DPGS    C378710  34.597  23.066   8.354  0.1286  0.2354  0.2371
55614DPGS   AM178711  35.073  22.778   8.176 -0.0886 -0.0285  0.0624
55614DPGS   AM278712  35.167  22.934   8.353  0.0916  0.1173  0.1740
55614DPGS   D1A78713  35.140  22.800   7.900  0.0757 -0.0424  0.1425
55614DPGS   C2A78714  35.239  23.105   7.500  0.0436 -0.0021 -0.0883
55614DPGS   C3A78715   0.094  23.308   7.287  0.0875 -0.2491 -0.3038
55614DPGS   C4A78716   0.380  23.629   7.053  0.2015 -0.2848  0.0196
55614DPGS   C1B78717   0.064  23.162   8.320 -0.0285  0.1677 -0.1532
55614DPGS   C2B78718   0.249  23.496   8.215 -0.0693  0.1935 -0.0120
55614DPGS   C3B78719   0.609  23.752   8.097 -0.2897  0.2321  0.2384
55614DPGS   C4B78720   0.953  24.152   8.227 -0.1698  0.0670  0.1054
55615DPGS    C178721  33.494  34.092  12.947  0.1119  0.2023 -0.0513
55615DPGS    C278722  33.375  34.083  13.223  0.0855 -0.2560 -0.0746
55615DPGS    C378723  33.534  34.322  13.136 -0.1785  0.0322  0.2229
55615DPGS   AM178724  33.751  34.244  12.600 -0.1656 -0.3429 -0.0645
55615DPGS   AM278725  33.982  34.215  12.730 -0.0973  0.0707  0.2305
55615DPGS   D1A78726  33.774  34.257  12.303 -0.1572  0.0095  0.0456
55615DPGS   C2A78727  33.963  34.295  11.822  0.1361 -0.2526  0.1861
55615DPGS   C3A78728  34.312  34.239  11.601 -0.2064 -0.1710  0.0782
55615DPGS   C4A78729  34.528  34.236  11.094 -0.1400  0.0416 -0.2672
55615DPGS   C1B78730  34.291  34.176  12.548 -0.1293 -0.0587 -0.1025
55615DPGS   C2B78731  34.475  34.067  12.159  0.1653 -0.0727  0.1339
55615DPGS   C3B78732  34.866  33.988  11.893  0.2789  0.0204 -0.0204
55615DPGS   C4B78733  34.759  33.949  11.455 -0.1354  0.2362 -0.3121
55616DPGS    C178734  31.949  26.338   8.986  0.0732 -0.1294  0.0447
55616DPGS    C278735  32.024  26.075   9.111  0.2070 -0.1179 -0.0094
55616DPGS    C378736  32.123  26.332   9.231 -0.0025 -0.0862  0.0997
55616DPGS   AM178737  32.350  26.321   8.710  0.1059  0.1359  0.2453
55616DPGS   AM278738  32.407  26.074   8.756 -0.0052  0.0727 -0.0561
55616DPGS   D1A78739  32.419  26.519   8.495 -0.0074  0.2164 -0.1961
55616DPGS   C2A78740  32.390  26.728   8.198  0.1352 -0.0017  0.1020
55616DPGS   C3A78741  32.596  27.096   8.033  0.1484  0.1733  0.1640
55616DPGS   C4A78742  32.841  27.302   7.881 -0.0467 -0.1957  0.0058
55616DPGS   C1B78743  32.764  25.993   8.717 -0.0086 -0.1708 -0.2937
55616DPGS   C2B78744  33.162  26.076   8.625  0.0294 -0.2040  0.0163
55616DPGS   C3B78745  33.385  26.292   8.322 -0.0266 -0.1424  0.1549
55616DPGS   C4B78746  33.471  26.490   7.956  0.0025 -0.3122  0.0094
55617DPGS    C178747  10.095  15.090  18.154  0.0273 -0.0680 -0.0528
55617DPGS    C278748  10.291  14.890  18.043 -0.0074 -0.1065 -0.0453
55617DPGS    C378749  10.311  15.179  17.966  0.1536 -0.0825  0.0847
55617DPGS   AM178750   9.785  15.025  17.812 -0.1802  0.0548  0.2058
55617DPGS   AM278751   9.895  14.799  17.774  0.0507 -0.0303 -0.0162
55617DPGS   D1A78752   9.593  15.098  17.576 -0.2104 -0.1150  0.1740
55617DPGS   C2A78753   9.613  15.255  17.177 -0.1928  0.1215  0.3228
55617DPGS   C3A78754   9.587  15.243  16.712 -0.1272 -0.2668  0.1645
55617DPGS   C4A78755   9.398  15.217  16.324 -0.2154  0.1955 -0.0416
55617DPGS   C1B78756   9.960  14.736  17.405  0.2177  0.0739  0.1525
55617DPGS   C2B78757   9.844  14.862  16.968  0.1015  0.1466 -0.2874
55617DPGS   C3B78758   9.744  14.739  16.623 -0.3576 -0.0957  0.0079
55617DPGS   C4B78759   9.805  14.938  16.208 -0.0629 -0.1492 -0.1869
55618DPGS    C178760  33.742   5.292  11.207 -0.1706 -0.0123 -0.1693
55618DPGS    C278761  33.838   5.043  11.343 -0.2564 -0.0067 -0.0988
55618DPGS    C378762  33.978   5.143  11.097 -0.0679  0.0127  0.0156
55618DPGS   AM178763  33.529   5.150  10.764 -0.0383  0.0946 -0.2375
55618DPGS   AM278764  33.550   4.924  10.895 -0.3850 -0.1087  0.1188
55618DPGS   D1A78765  33.418   5.180  10.484 -0.1962  0.0102  0.1578
55618DPGS   C2A78766  33.392   5.008  10.124 -0.0401  0.2045  0.2988
55618DPGS   C3A78767  33.517   4.773   9.771  0.1963 -0.2246  0.3747
55618DPGS   C4A78768  33.807   4.791   9.444 -0.0484 -0.0246  0.0567
55618DPGS   C1B78769  33.536   4.642  10.732  0.0630 -0.0907 -0.2522
55618DPGS   C2B78770  33.797   4.277  10.419  0.0815 -0.2084  0.4183
55618DPGS   C3B78771  33.965   4.195  10.099  0.2072  0.1604 -0.0750
55618DPGS   C4B78772  33.689   3.912   9.748  0.2914  0.0257  0.0138
55619DPGS    C178773  27.554  33.621  10.077 -0.1564  0.1484 -0.0795
55619DPGS    C278774  27.778  33.818  10.108 -0.0888  0.0606 -0.0148
55619DPGS    C378775  27.833  33.545   9.997 -0.1691  0.0519 -0.0325
55619DPGS   AM178776  27.374  33.411   9.682  0.0951  0.0636 -0.1531
55619DPGS   AM278777  27.240  33.222   9.818  0.1208 -0.1373  0.0223
55619DPGS   D1A78778  27.334  33.483   9.410  0.0176  0.1026  0.0571
55619DPGS   C2A78779  27.346  33.457   9.081  0.3553 -0.0038 -0.0774
55619DPGS   C3A78780  27.323  33.683   8.771  0.1782  0.0102  0.0470
55619DPGS   C4A78781  27.376  33.983   8.531 -0.0858  0.0085 -0.3283
55619DPGS   C1B78782  26.929  33.160   9.637 -0.4957  0.1258  0.1728
55619DPGS   C2B78783  26.875  33.159   9.195 -0.2350  0.1578 -0.0759
55619DPGS   C3B78784  26.863  33.202   8.820  0.0409 -0.2008 -0.1811
55619DPGS   C4B78785  27.198  33.229   8.555 -0.2889 -0.0743 -0.0226
55620DPGS    C178786  24.154  16.960   8.138  0.2299 -0.0123 -0.2017
55620DPGS    C278787  24.298  16.736   8.276  0.1882  0.1127  0.0483
55620DPGS    C378788  23.999  16.751   8.288  0.1838  0.1160 -0.0683
55620DPGS   AM178789  23.928  16.816   7.720  0.1198  0.1098  0.0243
55620DPGS   AM278790  23.758  17.007   7.787 -0.2177 -0.2975 -0.0455
55620DPGS   D1A78791  23.885  16.589   7.518  0.4475 -0.0651 -0.1541
55620DPGS   C2A78792  23.454  16.570   7.421 -0.1460 -0.0583 -0.1669
55620DPGS   C3A78793  23.064  16.542   7.244 -0.0751  0.2737 -0.0073
55620DPGS   C4A78794  22.726  16.825   7.087 -0.2780 -0.3983 -0.2472
55620DPGS   C1B78795  23.404  16.983   7.756 -0.2197 -0.0371 -0.0079
55620DPGS   C2B78796  22.855  16.931   7.578  0.4385 -0.0720  0.0214
55620DPGS   C3B78797  22.486  16.729   7.588 -0.2552 -0.1160  0.1403
55620DPGS   C4B78798  22.224  16.529   7.301  0.0559 -0.4825 -0.3138
55621DPGS    C178799   2.838  22.917  14.438 -0.0879 -0.2907  0.0325
55621DPGS    C278800   2.714  23.016  14.184  0.2106  0.1988  0.0702
55621DPGS    C378801   2.908  22.786  14.177  0.0135  0.0347 -0.1057
55621DPGS   AM178802   3.168  23.275  14.339  0.1271 -0.0032  0.0097
55621DPGS   AM278803   2.974  23.406  14.206  0.2211 -0.0934  0.0910
55621DPGS   D1A78804   3.430  23.283  14.408 -0.1849 -0.2529  0.5472
55621DPGS   C2A78805   3.812  23.456  14.388 -0.0002  0.1101  0.1665
55621DPGS   C3A78806   4.152  23.589  14.078 -0.2054 -0.2745 -0.1857
55621DPGS   C4A78807   4.558  23.714  13.994 -0.2846  0.2528  0.1515
55621DPGS   C1B78808   2.984  23.725  14.022  0.0380 -0.0480 -0.1619
55621DPGS   C2B78809   3.244  24.056  13.874  0.0378  0.2268  0.0756
55621DPGS   C3B78810   3.550  24.221  13.488  0.3720  0.1785  0.1223
55621DPGS   C4B78811   3.634  24.548  13.270  0.0337 -0.0366  0.1969
55622DPGS    C178812  26.782   0.096  10.629 -0.0459 -0.0062 -0.2225
55622DPGS    C278813  26.508   0.058  10.746  0.0763  0.0001  0.0684
55622DPGS    C378814  26.686  35.206  10.700  0.1516  0.0302  0.1995
55622DPGS   AM178815  26.492   0.022  10.183  0.1635  0.1361 -0.1272
55622DPGS   AM278816  26.292  35.314  10.338  0.1753 -0.2457 -0.1760
55622DPGS   D1A78817  26.493  35.361   9.910  0.0643  0.1396 -0.0967
55622DPGS   C2A78818  26.603  35.155   9.568 -0.1973  0.0824  0.1443
55622DPGS   C3A78819  26.624  35.078   9.205  0.1658 -0.0328 -0.1576
55622DPGS   C4A78820  26.890  34.895   8.841 -0.1716  0.1871  0.1201
55622DPGS   C1B78821  25.948  35.247  10.264 -0.2023 -0.2020 -0.1255
55622DPGS   C2B78822  25.680  35.272   9.977  0.0510 -0.0239 -0.0806
55622DPGS   C3B78823  25.625  35.364   9.514  0.0542  0.0708  0.1638
55622DPGS   C4B78824  25.593   0.064   9.104  0.0034 -0.0094 -0.5859
55623DPGS    C178825   0.738  16.721   8.137 -0.0162  0.0940  0.1567
55623DPGS    C278826   0.503  16.603   7.993  0.0506  0.0942  0.0467
55623DPGS    C378827   0.610  16.871   7.910  0.2656 -0.0322 -0.0906
55623DPGS   AM178828   0.925  16.412   7.801 -0.0784 -0.0553 -0.0197
55623DPGS   AM278829   1.043  16.642   7.750  0.1251 -0.1845  0.1856
55623DPGS   D1A78830   1.025  16.185   7.648 -0.1571  0.0755 -0.1563
55623DPGS   C2A78831   1.327  15.958   7.473  0.1246  0.0849 -0.0792
55623DPGS   C3A78832   1.589  15.838   7.156 -0.1509 -0.2648 -0.0651
55623DPGS   C4A78833   1.803  15.639   6.963  0.0128  0.0612 -0.1070
55623DPGS   C1B78834   1.395  16.646   7.615 -0.3003  0.0688  0.1532
55623DPGS   C2B78835   1.780  16.775   7.522 -0.0218  0.1167 -0.2882
55623DPGS   C3B78836   2.074  16.524   7.508 -0.0596  0.0824  0.1616
55623DPGS   C4B78837   2.352  16.449   7.262  0.2491 -0.0942  0.1166
55624DPGS    C178838   3.205   9.574  14.369  0.0716  0.0911 -0.2904
55624DPGS    C278839   2.966   9.615  14.546  0.2365  0.0081 -0.0462
55624DPGS    C378840   3.015   9.799  14.315 -0.0794  0.0077 -0.1147
55624DPGS   AM178841   3.362   9.617  13.911  0.0010  0.0110  0.0087
55624DPGS   AM278842   3.439   9.858  13.795  0.0622  0.0494  0.1383
55624DPGS   D1A78843   3.528   9.393  13.845  0.0370 -0.0498  0.0803
55624DPGS   C2A78844   3.705   9.042  13.691  0.3027  0.2089  0.1755
55624DPGS   C3A78845   4.010   8.835  13.565  0.1429  0.1027  0.0044
55624DPGS   C4A78846   4.381   8.798  13.321  0.0552  0.1493 -0.0280
55624DPGS   C1B78847   3.695   9.935  13.537 -0.0224  0.1504 -0.2088
55624DPGS   C2B78848   3.985   9.784  13.299  0.0042  0.2696  0.4675
55624DPGS   C3B78849   4.240   9.648  13.047 -0.2900 -0.1554  0.2627
55624DPGS   C4B78850   4.624   9.549  12.982 -0.2827  0.0395 -0.1141
55625DPGS    C178851  32.054  33.521  11.821 -0.0476 -0.0569  0.3035
55625DPGS    C278852  32.221  33.664  12.024  0.1184 -0.2643  0.3144
55625DPGS    C378853  32.330  33.422  11.884  0.0735 -0.0234 -0.1497
55625DPGS   AM178854  32.334  33.917  11.594  0.0300  0.0472  0.0145
55625DPGS   AM278855  32.085  33.976  11.476  0.0662 -0.1254 -0.0174
55625DPGS   D1A78856  32.578  34.068  11.519  0.0794  0.2587 -0.2484
55625DPGS   C2A78857  32.891  33.987  11.279  0.3545  0.1537 -0.1566
55625DPGS   C3A78858  33.013  34.078  10.976  0.1234 -0.0719 -0.3372
55625DPGS   C4A78859  33.240  33.908  10.602  0.2966 -0.0462 -0.0343
55625DPGS   C1B78860  32.072  33.980  11.119 -0.2653  0.0562  0.1393
55625DPGS   C2B78861  32.275  33.984  10.742 -0.1057  0.1620  0.3189
55625DPGS   C3B78862  32.308  34.009  10.319 -0.3104 -0.0575 -0.0610
55625DPGS   C4B78863  32.623  33.959  10.023 -0.1285  0.2404  0.4224
55626DPGS    C178864  24.614  17.112   6.920  0.0600  0.0069  0.1069
55626DPGS    C278865  24.622  17.129   7.220 -0.0159 -0.0496  0.1123
55626DPGS    C378866  24.620  16.861   7.085  0.3243 -0.0239  0.0525
55626DPGS   AM178867  24.321  16.797   6.604  0.2641  0.0513 -0.1407
55626DPGS   AM278868  24.191  17.028   6.584  0.1132  0.0241 -0.3285
55626DPGS   D1A78869  24.219  16.566   6.481  0.0836  0.1288 -0.3757
55626DPGS   C2A78870  23.838  16.545   6.358 -0.0310 -0.0678 -0.0233
55626DPGS   C3A78871  23.517  16.496   6.086 -0.0736 -0.0468  0.4418
55626DPGS   C4A78872  23.163  16.214   6.021  0.0069  0.1366  0.1746
55626DPGS   C1B78873  23.886  17.064   6.372  0.1590  0.2404 -0.0506
55626DPGS   C2B78874  23.575  17.098   6.351  0.0414 -0.3207  0.1070
55626DPGS   C3B78875  23.180  17.155   6.244 -0.0877  0.1209 -0.1253
55626DPGS   C4B78876  22.707  17.309   6.370 -0.2887 -0.1047 -0.0444
55627DPGS    C178877  20.784  17.936  16.049  0.2044  0.0356  0.3451
55627DPGS    C278878  20.521  17.876  16.180 -0.1364  0.4537 -0.1251
55627DPGS    C378879  20.640  17.681  15.985 -0.0022  0.1806  0.2242
55627DPGS   AM178880  20.559  18.150  15.662  0.0390 -0.1253  0.0464
55627DPGS   AM278881  20.337  18.123  15.807 -0.2563 -0.1538 -0.2301
55627DPGS   D1A78882  20.606  18.224  15.397 -0.1609  0.0296 -0.0154
55627DPGS   C2A78883  20.475  18.277  14.932  0.1536  0.2210  0.0205
55627DPGS   C3A78884  20.206  18.219  14.696 -0.3489  0.2677  0.0882
55627DPGS   C4A78885  19.741  18.210  14.602 -0.3036 -0.3558 -0.1231
55627DPGS   C1B78886  19.993  18.090  15.643  0.0962 -0.2235  0.1011
55627DPGS   C2B78887  19.563  18.068  15.458  0.3965 -0.1067  0.1666
55627DPGS   C3B78888  19.134  18.102  15.320  0.0502 -0.0252 -0.0273
55627DPGS   C4B78889  18.689  18.247  15.351 -0.1911 -0.0857  0.0164
55628DPGS    C178890   1.084  33.009  15.747 -0.0860 -0.0782 -0.1204
55628DPGS    C278891   1.210  33.260  15.854 -0.0123 -0.0766 -0.2096
55628DPGS    C378892   1.184  33.018  16.030 -0.1968  0.0333 -0.0843
55628DPGS   AM178893   1.514  32.945  15.557  0.0652 -0.0421 -0.0682
55628DPGS   AM278894   1.402  32.731  15.448  0.0465  0.2902 -0.5099
55628DPGS   D1A78895   1.747  33.089  15.476  0.0059  0.1981  0.1254
55628DPGS   C2A78896   1.963  33.017  15.134  0.0447  0.2150 -0.0120
55628DPGS   C3A78897   2.237  32.978  14.845  0.1438  0.1648  0.0745
55628DPGS   C4A78898   2.253  33.038  14.406  0.0244 -0.0073  0.0788
55628DPGS   C1B78899   1.566  32.536  15.192 -0.1049  0.1289 -0.2033
55628DPGS   C2B78900   1.908  32.580  14.906 -0.1993  0.1036  0.0767
55628DPGS   C3B78901   2.131  32.555  14.564 -0.3820  0.1379 -0.1114
55628DPGS   C4B78902   2.540  32.625  14.373 -0.5865 -0.0640  0.1206
55629DPGS    C178903  32.547  23.631   6.175 -0.1161 -0.0068  0.1401
55629DPGS    C278904  32.568  23.388   6.350 -0.1457 -0.1139 -0.0049
55629DPGS    C378905  32.554  23.661   6.474  0.0107 -0.1774  0.1544
55629DPGS   AM178906  33.007  23.801   6.176  0.2145 -0.1557 -0.0549
55629DPGS   AM278907  33.024  23.546   6.073  0.2461  0.0776 -0.0239
55629DPGS   D1A78908  33.163  23.970   6.001  0.2379  0.1460 -0.1438
55629DPGS   C2A78909  33.503  24.252   5.820 -0.0744  0.2757  0.4277
55629DPGS   C3A78910  33.742  24.509   5.523 -0.1195  0.0954 -0.0510
55629DPGS   C4A78911  33.781  24.598   5.104 -0.0319  0.1048 -0.1271
55629DPGS   C1B78912  33.206  23.489   5.793  0.1074  0.1288  0.1609
55629DPGS   C2B78913  33.534  23.783   5.629 -0.1429 -0.2132  0.1079
55629DPGS   C3B78914  33.781  24.040   5.426  0.0614 -0.1758  0.0206
55629DPGS   C4B78915  34.137  24.019   5.085  0.1253  0.3690 -0.0291
55630DPGS    C178916  29.050   6.528   8.309  0.0034  0.0238 -0.0761
55630DPGS    C278917  29.096   6.786   8.455  0.2109 -0.1137  0.1054
55630DPGS    C378918  28.859   6.615   8.524  0.1040  0.0008  0.0233
55630DPGS   AM178919  28.771   6.740   7.968  0.0335  0.1945  0.2452
55630DPGS   AM278920  29.004   6.846   7.942 -0.3678  0.2178 -0.0129
55630DPGS   D1A78921  28.705   6.496   7.830 -0.2034  0.2693 -0.0659
55630DPGS   C2A78922  28.881   6.275   7.346  0.3120 -0.1249  0.3533
55630DPGS   C3A78923  28.927   6.012   6.994 -0.2978  0.1071 -0.2568
55630DPGS   C4A78924  29.160   5.852   6.661  0.2530 -0.0795  0.1566
55630DPGS   C1B78925  29.193   6.662   7.683 -0.1109  0.0911  0.0776
55630DPGS   C2B78926  29.272   6.569   7.330  0.2470  0.1996  0.0117
55630DPGS   C3B78927  29.310   6.395   6.995 -0.1287  0.0698 -0.0114
55630DPGS   C4B78928  29.266   6.399   6.607 -0.2422  0.3084 -0.0806
55631DPGS    C178929  27.217  20.674   4.499  0.0736 -0.1912  0.0626
55631DPGS    C278930  27.335  20.528   4.265  0.1461 -0.0788  0.0286
55631DPGS    C378931  27.366  20.825   4.287 -0.2128 -0.0348 -0.0299
55631DPGS   AM178932  26.801  20.753   4.276  0.0587 -0.0036 -0.0927
55631DPGS   AM278933  26.875  20.579   4.102 -0.4280  0.2924  0.2334
55631DPGS   D1A78934  26.687  21.023   4.208 -0.2314 -0.1928  0.1486
55631DPGS   C2A78935  26.497  21.028   3.873 -0.1330  0.0228 -0.0081
55631DPGS   C3A78936  26.378  20.657   3.533  0.2740 -0.0753 -0.0608
55631DPGS   C4A78937  26.262  20.720   3.204 -0.1103 -0.0131 -0.0060
55631DPGS   C1B78938  26.825  20.530   3.740  0.3299 -0.5579  0.0483
55631DPGS   C2B78939  26.779  20.547   3.269  0.0442  0.1603  0.6287
55631DPGS   C3B78940  26.636  20.650   2.881  0.2260  0.1081 -0.0419
55631DPGS   C4B78941  26.393  20.867   2.654  0.1194 -0.4255 -0.3317
55632DBGS    C178942   0.142  21.885   8.094 -0.0738  0.0462 -0.1588
55632DBGS    C278943   0.302  21.648   8.186  0.0300  0.2039  0.0712
55632DBGS    C378944   0.072  21.609   7.997  0.0743 -0.0743  0.0720
55632DBGS   AM178945   0.531  21.882   7.801 -0.0412  0.2142 -0.3389
55632DBGS   AM278946   0.348  22.008   7.641  0.0826  0.3765  0.4522
55632DBGS   T1A78947   0.798  21.967   7.870 -0.0914 -0.1143  0.1916
55632DBGS   C2A78948   1.051  22.283   7.693 -0.0359  0.0924 -0.3826
55632DBGS   C3A78949   1.413  22.568   7.653  0.1107  0.1137  0.1144
55632DBGS   C4A78950   1.519  22.806   7.320 -0.0366  0.4544  0.2558
55632DBGS   C5A78951   1.726  23.187   7.344  0.0308  0.1457 -0.0253
55632DBGS   C1B78952   0.329  22.231   7.345 -0.1914  0.2771  0.2043
55632DBGS   C2B78953   0.488  22.565   7.076 -0.0602 -0.1672 -0.2059
55632DBGS   C3B78954   0.577  22.779   6.681  0.0216 -0.0930  0.1031
55632DBGS   C4B78955   0.690  23.019   6.372 -0.0445  0.0084 -0.1188
55632DBGS   C5B78956   0.659  22.977   5.996  0.0584 -0.2548  0.0713
55633DBGS    C178957  34.365  21.545   7.007  0.0816  0.1139  0.1467
55633DBGS    C278958  34.094  21.645   6.926  0.1212  0.0734 -0.0373
55633DBGS    C378959  34.257  21.481   6.734  0.1351 -0.1857  0.1935
55633DBGS   AM178960  34.825  21.474   6.697  0.2519  0.1083  0.0495
55633DBGS   AM278961  34.826  21.704   6.839  0.0050  0.1665  0.1322
55633DBGS   T1A78962  34.996  21.334   6.558  0.0859 -0.1151 -0.1122
55633DBGS   C2A78963  35.218  21.439   6.242  0.1100  0.0901  0.0703
55633DBGS   C3A78964   0.094  21.674   5.888 -0.0257 -0.0072 -0.1457
55633DBGS   C4A78965   0.535  21.644   5.795  0.1432  0.0098 -0.2220
55633DBGS   C5A78966   0.865  21.951   5.717 -0.4724 -0.0233  0.1105
55633DBGS   C1B78967  34.932  22.061   6.831  0.4237 -0.0603  0.4364
55633DBGS   C2B78968  35.109  22.308   6.441  0.1110  0.1861 -0.0178
55633DBGS   C3B78969  35.368  22.358   6.126 -0.4491  0.3039  0.2105
55633DBGS   C4B78970   0.169  22.551   5.843  0.4151  0.1228 -0.1571
55633DBGS   C5B78971   0.053  22.674   5.501  0.2111  0.4013  0.0820
55634DBGS    C178972  25.649  14.833   6.475  0.2023  0.3730  0.0453
55634DBGS    C278973  25.666  14.649   6.711 -0.0600  0.1607 -0.0974
55634DBGS    C378974  25.825  14.590   6.464 -0.0140  0.2204 -0.0826
55634DBGS   AM178975  25.242  14.578   6.400 -0.3040  0.0561 -0.0374
55634DBGS   AM278976  25.170  14.667   6.641  0.0701 -0.2362  0.1812
55634DBGS   T1A78977  25.040  14.510   6.190  0.1257  0.1096  0.0403
55634DBGS   C2A78978  24.695  14.379   5.944 -0.1091 -0.1921  0.1005
55634DBGS   C3A78979  24.277  14.242   5.983 -0.0735 -0.1559  0.1396
55634DBGS   C4A78980  23.901  14.040   5.902  0.1616  0.1618 -0.1698
55634DBGS   C5A78981  23.377  13.978   5.925 -0.3399  0.1913  0.2721
55634DBGS   C1B78982  24.832  14.783   6.646 -0.2161 -0.4246  0.1062
55634DBGS   C2B78983  24.435  14.573   6.506  0.2375 -0.0615 -0.2102
55634DBGS   C3B78984  23.986  14.441   6.370  0.2711 -0.0883  0.2843
55634DBGS   C4B78985  23.645  14.393   6.191 -0.0007 -0.1260  0.2538
55634DBGS   C5B78986  23.233  14.360   6.202  0.1183  0.0743  0.0233
55635DBGS    C178987  28.093   7.664   8.197 -0.0829  0.1896 -0.0977
55635DBGS    C278988  28.351   7.627   8.346 -0.0140  0.0058 -0.2617
55635DBGS    C378989  28.093   7.650   8.497  0.1112  0.3147 -0.0907
55635DBGS   AM178990  27.695   7.441   8.160  0.1033  0.1864 -0.0047
55635DBGS   AM278991  27.625   7.635   8.010 -0.2067  0.1281 -0.2131
55635DBGS   T1A78992  27.630   7.173   8.076  0.1961 -0.0845  0.2036
55635DBGS   C2A78993  27.387   7.033   7.793  0.1273 -0.0629 -0.0468
55635DBGS   C3A78994  27.222   6.819   7.398 -0.3557  0.1266  0.0867
55635DBGS   C4A78995  27.200   6.698   6.979 -0.1459 -0.0015 -0.1615
55635DBGS   C5A78996  27.310   6.407   6.739 -0.0219 -0.2207  0.0262
55635DBGS   C1B78997  27.558   7.618   7.646  0.1465  0.1331 -0.2639
55635DBGS   C2B78998  27.418   7.352   7.304  0.0089 -0.0707 -0.1695
55635DBGS   C3B78999  27.269   7.155   6.901 -0.1644 -0.0880  0.2676
55635DBGS   C4B79000  27.128   6.947   6.538 -0.3208  0.0816  0.0915
55635DBGS   C5B79001  27.273   6.637   6.274  0.0895  0.2461 -0.1612
55636DBGS    C179002  27.091  21.621   5.480  0.0925 -0.1229 -0.0708
55636DBGS    C279003  27.371  21.726   5.456 -0.0045  0.1268 -0.1288
55636DBGS    C379004  27.200  21.805   5.689 -0.1551  0.2797 -0.2896
55636DBGS   AM179005  26.826  21.974   5.297  0.3153 -0.0563 -0.4917
55636DBGS   AM279006  26.804  21.839   5.059  0.1085 -0.2682  0.2328
55636DBGS   T1A79007  26.638  22.205   5.302  0.2651  0.3004 -0.1014
55636DBGS   C2A79008  26.337  22.406   5.098 -0.1231 -0.2241  0.0257
55636DBGS   C3A79009  26.181  22.398   4.723 -0.0055  0.2098 -0.1324
55636DBGS   C4A79010  25.934  22.515   4.335 -0.1203  0.0151 -0.0256
55636DBGS   C5A79011  25.623  22.463   4.075 -0.4463  0.1083 -0.2236
55636DBGS   C1B79012  26.572  21.963   4.834  0.0106 -0.0917  0.1091
55636DBGS   C2B79013  26.250  21.840   4.578  0.2719 -0.1706  0.0948
55636DBGS   C3B79014  25.885  22.017   4.524  0.3327 -0.2203  0.3357
55636DBGS   C4B79015  25.528  22.210   4.566 -0.0222 -0.1901 -0.0324
55636DBGS   C5B79016  25.197  22.369   4.297  0.1918 -0.1810 -0.1680
55637DBGS    C179017  13.499  14.994  18.450  0.0058 -0.1626  0.2433
55637DBGS    C279018  13.563  15.262  18.570  0.0249  0.0027 -0.1267
55637DBGS    C379019  13.392  15.245  18.324  0.0703 -0.3222 -0.1383
55637DBGS   AM179020  13.765  14.932  18.020  0.0940 -0.4015  0.2468
55637DBGS   AM279021  13.881  14.802  18.188 -0.3029  0.1286 -0.0795
55637DBGS   T1A79022  13.715  14.954  17.738  0.2633  0.0051  0.1120
55637DBGS   C2A79023  13.805  15.084  17.431 -0.0657 -0.0214  0.0550
55637DBGS   C3A79024  13.716  15.241  16.955 -0.3769 -0.3261 -0.0744
55637DBGS   C4A79025  13.500  15.242  16.655 -0.0364  0.4439 -0.0022
55637DBGS   C5A79026  13.407  15.487  16.295  0.1052  0.0145  0.1021
55637DBGS   C1B79027  14.088  14.502  18.190 -0.0504  0.7840  0.1887
55637DBGS   C2B79028  14.299  14.061  18.047 -0.1763  0.0696 -0.3198
55637DBGS   C3B79029  14.554  13.784  17.770  0.3937 -0.0168 -0.0329
55637DBGS   C4B79030  14.594  13.893  17.361  0.1789 -0.2863  0.2064
55637DBGS   C5B79031  14.391  13.806  17.016 -0.0097  0.0495  0.0591
55638DBGS    C179032   5.313   9.340  16.366  0.0272 -0.0370 -0.2623
55638DBGS    C279033   5.065   9.374  16.201 -0.0581 -0.2356 -0.1778
55638DBGS    C379034   5.164   9.099  16.268  0.2177 -0.1580 -0.2583
55638DBGS   AM179035   5.551   9.304  15.905  0.3731  0.0885 -0.2095
55638DBGS   AM279036   5.488   9.559  15.929  0.2427 -0.0654  0.2019
55638DBGS   T1A79037   5.688   9.182  15.656  0.0998  0.2556 -0.0656
55638DBGS   C2A79038   5.847   8.877  15.330  0.1565  0.0318 -0.0358
55638DBGS   C3A79039   6.003   8.567  15.231  0.3461 -0.1201  0.3977
55638DBGS   C4A79040   6.008   8.202  15.087 -0.1359 -0.1515  0.0777
55638DBGS   C5A79041   6.098   7.845  15.210 -0.0381  0.0654 -0.7061
55638DBGS   C1B79042   5.581   9.822  15.681 -0.2385 -0.2241 -0.2471
55638DBGS   C2B79043   5.950   9.996  15.468 -0.0898  0.1427 -0.1212
55638DBGS   C3B79044   6.199   9.902  15.216  0.2553 -0.0922 -0.0161
55638DBGS   C4B79045   6.579   9.723  15.034 -0.0489 -0.1045 -0.1573
55638DBGS   C5B79046   6.926   9.533  15.213  0.0754  0.1400  0.1119
55639DBGS    C179047  16.099  19.611  19.833  0.0385  0.1010 -0.3627
55639DBGS    C279048  16.009  19.368  19.984 -0.2842  0.3636 -0.1249
55639DBGS    C379049  16.295  19.393  19.897 -0.2536 -0.1103 -0.1746
55639DBGS   AM179050  15.998  19.272  19.431  0.2163  0.0592  0.1431
55639DBGS   AM279051  15.821  19.124  19.585  0.0578 -0.1601  0.1332
55639DBGS   T1A79052  15.959  19.374  19.151  0.2021  0.0788  0.0256
55639DBGS   C2A79053  15.719  19.570  18.779 -0.0880  0.2293 -0.0839
55639DBGS   C3A79054  15.453  19.669  18.514  0.0148  0.2326  0.0160
55639DBGS   C4A79055  15.309  19.914  18.159 -0.1854  0.1437 -0.0315
55639DBGS   C5A79056  15.287  20.189  17.706 -0.0075  0.0068  0.2447
55639DBGS   C1B79057  15.447  19.124  19.490  0.0001 -0.1686  0.0396
55639DBGS   C2B79058  15.126  19.254  19.259 -0.1595  0.0745  0.1217
55639DBGS   C3B79059  14.884  19.434  18.990  0.0156 -0.0453  0.2633
55639DBGS   C4B79060  14.561  19.578  18.791  0.2046 -0.0473 -0.1906
55639DBGS   C5B79061  14.112  19.829  18.686 -0.0164  0.0192  0.3520
55640DBGS    C179062   2.239  23.599  14.066  0.0301 -0.1205  0.0367
55640DBGS    C279063   2.533  23.560  14.114  0.1425  0.3287 -0.2504
55640DBGS    C379064   2.364  23.331  14.018  0.3918  0.0623 -0.0603
55640DBGS   AM179065   2.414  23.742  13.635 -0.4095 -0.0280 -0.0009
55640DBGS   AM279066   2.265  23.716  13.422  0.2114 -0.1330  0.0179
55640DBGS   T1A79067   2.625  23.899  13.729 -0.0562 -0.1218 -0.3023
55640DBGS   C2A79068   2.857  24.219  13.443  0.4465 -0.1033  0.0028
55640DBGS   C3A79069   3.108  24.311  13.233 -0.2239  0.1821 -0.1258
55640DBGS   C4A79070   3.387  24.342  12.912  0.0760  0.0577  0.0946
55640DBGS   C5A79071   3.395  24.499  12.487  0.0706 -0.3106 -0.4473
55640DBGS   C1B79072   2.076  23.946  13.236 -0.2468 -0.0398  0.1912
55640DBGS   C2B79073   2.086  24.292  12.807 -0.1073 -0.0536 -0.0627
55640DBGS   C3B79074   2.290  24.684  12.680 -0.0071  0.2062  0.0796
55640DBGS   C4B79075   2.635  24.895  12.526  0.0711 -0.0553  0.0297
55640DBGS   C5B79076   3.086  24.877  12.392  0.1798 -0.0313 -0.1947
55641DBGS    C179077   5.996  12.269  15.891 -0.0002  0.1248 -0.0143
55641DBGS    C279078   6.201  12.431  15.743  0.0366  0.2419  0.1635
55641DBGS    C379079   6.287  12.239  15.957 -0.0134  0.0427  0.0066
55641DBGS   AM179080   6.045  11.961  15.486  0.0402 -0.0118 -0.0171
55641DBGS   AM279081   6.118  11.786  15.700  0.1943 -0.0605  0.0718
55641DBGS   T1A79082   6.135  11.997  15.206  0.1049  0.0539 -0.0922
55641DBGS   C2A79083   6.274  12.005  14.905 -0.2373 -0.0860  0.0431
55641DBGS   C3A79084   6.336  12.102  14.420 -0.0520 -0.1427 -0.3474
55641DBGS   C4A79085   6.679  12.077  14.105  0.1156  0.1339 -0.0635
55641DBGS   C5A79086   6.897  11.802  13.925  0.2411  0.0697  0.0812
55641DBGS   C1B79087   6.454  11.765  15.798  0.0204 -0.3090 -0.3874
55641DBGS   C2B79088   6.809  11.581  15.475  0.1744  0.0375 -0.1702
55641DBGS   C3B79089   7.246  11.469  15.332 -0.1316 -0.1355 -0.2284
55641DBGS   C4B79090   7.709  11.446  15.361 -0.2370 -0.0637 -0.1628
55641DBGS   C5B79091   8.132  11.449  15.624  0.1310  0.3725 -0.2590
55642DBGS    C179092  23.700  30.107  10.528 -0.0816  0.0151 -0.0679
55642DBGS    C279093  23.612  29.823  10.490 -0.0085 -0.0734  0.3969
55642DBGS    C379094  23.492  29.990  10.709  0.1824  0.1507  0.3327
55642DBGS   AM179095  23.373  30.202  10.176 -0.0571 -0.0448 -0.1574
55642DBGS   AM279096  23.467  30.445  10.274 -0.1964 -0.0755  0.0105
55642DBGS   T1A79097  23.161  30.248   9.975  0.2015  0.2421 -0.0605
55642DBGS   C2A79098  23.130  30.285   9.501 -0.1269  0.1116 -0.0761
55642DBGS   C3A79099  23.146  30.168   9.132  0.2512  0.0729  0.1548
55642DBGS   C4A79100  23.271  29.995   8.713  0.1817 -0.0316 -0.0691
55642DBGS   C5A79101  23.271  30.097   8.177  0.0103 -0.0164  0.1558
55642DBGS   C1B79102  23.592  30.666  10.044  0.0655 -0.0436  0.1824
55642DBGS   C2B79103  23.337  30.695   9.697 -0.2115  0.1440 -0.1578
55642DBGS   C3B79104  23.338  30.704   9.326 -0.0676 -0.0026 -0.2773
55642DBGS   C4B79105  23.360  30.603   8.879  0.2984  0.1029 -0.0357
55642DBGS   C5B79106  23.182  30.564   8.457  0.4232 -0.4679 -0.0046
55643DBGS    C179107  29.975  31.846  10.623 -0.0111 -0.3774 -0.3565
55643DBGS    C279108  30.237  31.981  10.680 -0.2088 -0.1162 -0.0469
55643DBGS    C379109  30.202  31.690  10.742  0.0357 -0.1738 -0.1731
55643DBGS   AM179110  30.072  31.604  10.201 -0.1162 -0.0033 -0.0131
55643DBGS   AM279111  29.856  31.470  10.254 -0.0578 -0.1598 -0.2237
55643DBGS   T1A79112  30.295  31.579  10.030  0.2537  0.0045  0.2901
55643DBGS   C2A79113  30.450  31.428   9.654  0.2432 -0.0047 -0.1351
55643DBGS   C3A79114  30.463  31.701   9.219  0.0234 -0.2142  0.0081
55643DBGS   C4A79115  30.263  31.849   8.892  0.1367 -0.5578  0.2790
55643DBGS   C5A79116  30.609  32.016   8.514  0.1742  0.0762 -0.1265
55643DBGS   C1B79117  29.845  31.102  10.229  0.2931 -0.2443 -0.1463
55643DBGS   C2B79118  30.055  30.969   9.901 -0.3484  0.0697  0.0949
55643DBGS   C3B79119  30.141  31.083   9.509 -0.0656 -0.1966  0.0771
55643DBGS   C4B79120  30.270  31.242   9.175  0.0519 -0.0398 -0.3659
55643DBGS   C5B79121  30.368  31.324   8.869 -0.1583 -0.0081  0.2729
55644DBGS    C179122   0.323  21.935   8.594  0.0712 -0.0848 -0.0503
55644DBGS    C279123   0.178  22.081   8.813  0.2930  0.2073 -0.0952
55644DBGS    C379124   0.409  21.901   8.880  0.1918  0.0882 -0.0649
55644DBGS   AM179125   0.786  22.029   8.457  0.2379 -0.0711  0.0422
55644DBGS   AM279126   0.745  21.803   8.321  0.2384  0.0597  0.1236
55644DBGS   T1A79127   0.877  22.280   8.322  0.0077 -0.2231 -0.0418
55644DBGS   C2A79128   1.124  22.569   8.094 -0.0900  0.1679 -0.0709
55644DBGS   C3A79129   1.387  22.940   8.034 -0.3054  0.1492  0.2504
55644DBGS   C4A79130   1.795  22.910   7.769  0.3729  0.0337 -0.0889
55644DBGS   C5A79131   2.194  23.108   7.687 -0.0798 -0.4794 -0.0184
55644DBGS   C1B79132   0.968  21.594   8.106 -0.1441  0.0639  0.2590
55644DBGS   C2B79133   1.244  21.805   7.741  0.0460  0.0591 -0.1205
55644DBGS   C3B79134   1.367  22.058   7.436 -0.0519 -0.0855 -0.0734
55644DBGS   C4B79135   1.643  22.345   7.211 -0.2643  0.2483  0.2008
55644DBGS   C5B79136   1.974  22.643   7.007 -0.0144  0.0883  0.0798
55645DBGS    C179137  32.440  24.948   7.746  0.1802 -0.1901 -0.1659
55645DBGS    C279138  32.507  24.891   8.033  0.2639  0.0098 -0.1451
55645DBGS    C379139  32.244  25.018   7.962  0.2413 -0.0453 -0.1576
55645DBGS   AM179140  32.396  25.377   7.550 -0.0066  0.0139 -0.0137
55645DBGS   AM279141  32.503  25.423   7.789  0.1726 -0.3449 -0.0352
55645DBGS   T1A79142  32.467  25.597   7.366  0.4385 -0.1389 -0.2615
55645DBGS   C2A79143  32.666  25.851   7.136 -0.0108  0.2223 -0.2816
55645DBGS   C3A79144  32.965  26.136   7.022 -0.1756 -0.2421 -0.2126
55645DBGS   C4A79145  33.167  26.513   6.840 -0.0003  0.0840  0.0105
55645DBGS   C5A79146  33.241  26.936   6.734 -0.2461  0.0477  0.2576
55645DBGS   C1B79147  32.716  25.731   7.794 -0.2017  0.2007 -0.2664
55645DBGS   C2B79148  32.968  26.103   7.560  0.1160 -0.1758 -0.3044
55645DBGS   C3B79149  33.374  26.300   7.318  0.2291  0.0331  0.1049
55645DBGS   C4B79150  33.618  26.579   7.129 -0.1613 -0.2525 -0.1000
55645DBGS   C5B79151  33.751  26.944   6.873  0.2561  0.2489 -0.5072
55646DBGS    C179152  28.044   4.431  10.124  0.0668  0.1170  0.1302
55646DBGS    C279153  27.765   4.537  10.158  0.0762  0.1071  0.2361
55646DBGS    C379154  27.995   4.727  10.124  0.0766  0.1187  0.3047
55646DBGS   AM179155  27.774   4.469   9.672  0.0532  0.1103  0.1238
55646DBGS   AM279156  28.035   4.426   9.639 -0.0597 -0.1954 -0.0365
55646DBGS   T1A79157  27.575   4.362   9.482 -0.0908 -0.2867  0.3173
55646DBGS   C2A79158  27.594   4.192   9.135  0.3057  0.0146 -0.4829
55646DBGS   C3A79159  27.376   3.916   8.834 -0.0782 -0.1031 -0.1763
55646DBGS   C4A79160  27.210   3.763   8.518  0.1080  0.1804  0.2112
55646DBGS   C5A79161  27.280   3.807   8.030  0.1859 -0.0881 -0.3128
55646DBGS   C1B79162  28.293   4.277   9.422 -0.1152 -0.1574  0.0807
55646DBGS   C2B79163  28.408   3.951   9.022 -0.2245  0.1185 -0.2446
55646DBGS   C3B79164  28.697   3.982   8.729  0.0366 -0.0794  0.0042
55646DBGS   C4B79165  28.866   3.764   8.318  0.2014 -0.0958  0.1649
55646DBGS   C5B79166  28.739   3.492   8.023 -0.0432 -0.0739  0.0739
55647DBGS    C179167   9.758  16.035  18.151  0.1096  0.0595 -0.1786
55647DBGS    C279168  10.038  15.942  18.205  0.0314  0.0108  0.1539
55647DBGS    C379169   9.964  16.228  18.254  0.1289  0.1247 -0.3387
55647DBGS   AM179170   9.599  16.372  17.843  0.2898 -0.0711  0.1699
55647DBGS   AM279171   9.526  16.158  17.740  0.2547 -0.0811  0.1709
55647DBGS   T1A79172   9.615  16.636  17.708 -0.1220  0.2247 -0.0299
55647DBGS   C2A79173   9.551  16.883  17.236  0.2283  0.0966 -0.4039
55647DBGS   C3A79174   9.712  16.955  16.838 -0.0248 -0.2280 -0.2006
55647DBGS   C4A79175  10.018  17.171  16.628  0.1554  0.0998  0.1541
55647DBGS   C5A79176  10.335  17.062  16.411 -0.0582 -0.4951 -0.0451
55647DBGS   C1B79177   9.489  16.014  17.418  0.0555 -0.1505  0.0307
55647DBGS   C2B79178   9.594  16.061  16.951 -0.1964 -0.1176 -0.0090
55647DBGS   C3B79179   9.673  16.212  16.536  0.3248  0.1262 -0.0722
55647DBGS   C4B79180   9.415  16.217  16.032  0.2108  0.1441 -0.3838
55647DBGS   C5B79181   9.100  15.936  15.950  0.0656 -0.3738  0.2437
55648DBGS    C179182  25.219  16.346   6.446  0.0088 -0.0778  0.1324
55648DBGS    C279183  25.258  16.317   6.150 -0.0779 -0.2655  0.1386
55648DBGS    C379184  25.376  16.114   6.337 -0.0842 -0.1868  0.2283
55648DBGS   AM179185  24.846  15.983   6.223  0.0766 -0.0371  0.0713
55648DBGS   AM279186  24.800  16.063   6.488  0.1559  0.2235  0.1517
55648DBGS   T1A79187  24.681  15.852   6.026  0.1771  0.4514  0.0122
55648DBGS   C2A79188  24.369  15.826   5.774  0.4756 -0.0365 -0.0006
55648DBGS   C3A79189  24.068  15.888   5.449 -0.0249 -0.1504 -0.2179
55648DBGS   C4A79190  23.889  16.279   5.220 -0.0171  0.2274 -0.0300
55648DBGS   C5A79191  24.076  16.532   4.999 -0.1884 -0.3205 -0.0885
55648DBGS   C1B79192  24.616  15.828   6.711  0.0512  0.0894  0.0083
55648DBGS   C2B79193  24.257  15.632   6.575 -0.2112  0.3067  0.0850
55648DBGS   C3B79194  23.846  15.635   6.566 -0.1223  0.0525 -0.2020
55648DBGS   C4B79195  23.509  15.647   6.471  0.2513 -0.1665 -0.2397
55648DBGS   C5B79196  23.108  15.866   6.411 -0.0358 -0.0316 -0.0014
55649DBGS    C179197  25.417   8.346  10.737 -0.0063 -0.0016 -0.0886
55649DBGS    C279198  25.507   8.076  10.642  0.2088  0.0696 -0.0909
55649DBGS    C379199  25.542   8.153  10.930  0.0322  0.0486 -0.0630
55649DBGS   AM179200  25.012   8.090  10.733 -0.3232  0.2684  0.0580
55649DBGS   AM279201  24.941   8.344  10.722 -0.3588 -0.0219  0.2828
55649DBGS   T1A79202  24.792   7.928  10.630 -0.0034  0.0334  0.1438
55649DBGS   C2A79203  24.423   7.918  10.673 -0.1373  0.1935 -0.1348
55649DBGS   C3A79204  24.167   8.040  10.655  0.1943 -0.0098  0.1340
55649DBGS   C4A79205  23.699   8.147  10.402 -0.1734  0.0516  0.2814
55649DBGS   C5A79206  23.580   8.539  10.174 -0.0631  0.0481  0.2640
55649DBGS   C1B79207  24.597   8.449  10.670  0.1584 -0.3496  0.0793
55649DBGS   C2B79208  24.111   8.495  10.564 -0.1505  0.1611 -0.0546
55649DBGS   C3B79209  23.747   8.542  10.643 -0.1747 -0.0713  0.0071
55649DBGS   C4B79210  23.520   8.595  11.042  0.1140 -0.4419  0.2565
55649DBGS   C5B79211  23.205   8.621  11.205  0.0601 -0.1460 -0.1477
55650DBGS    C179212  26.184   7.040   9.569 -0.0729  0.0269  0.0548
55650DBGS    C279213  26.433   7.191   9.640 -0.0166 -0.0676  0.0572
55650DBGS    C379214  26.374   6.928   9.772 -0.0782 -0.0834 -0.0016
55650DBGS   AM179215  26.467   6.830   9.245 -0.1950  0.1059 -0.3080
55650DBGS   AM279216  26.312   6.609   9.314  0.3321  0.1310  0.0298
55650DBGS   T1A79217  26.537   6.910   8.975 -0.0530 -0.1568  0.1075
55650DBGS   C2A79218  26.382   6.836   8.622 -0.0347  0.3893 -0.0182
55650DBGS   C3A79219  26.135   6.451   8.330 -0.0322 -0.1196  0.2191
55650DBGS   C4A79220  25.862   6.429   7.985 -0.1362 -0.5641  0.0926
55650DBGS   C5A79221  25.417   6.442   7.835 -0.0547 -0.1108  0.0335
55650DBGS   C1B79222  26.058   6.467   9.092 -0.2644 -0.1211  0.2455
55650DBGS   C2B79223  25.710   6.334   8.731 -0.2092  0.0586  0.4141
55650DBGS   C3B79224  25.524   6.116   8.324  0.2096 -0.1382  0.1964
55650DBGS   C4B79225  25.643   5.944   8.027 -0.2994  0.2287 -0.1778
55650DBGS   C5B79226  25.743   5.566   7.997 -0.2266 -0.0763 -0.0293
55651DBGS    C179227  10.449  12.206  18.326 -0.2240  0.1361  0.1867
55651DBGS    C279228  10.518  12.493  18.381 -0.1062  0.1092  0.1803
55651DBGS    C379229  10.522  12.389  18.099  0.1013  0.0376  0.2092
55651DBGS   AM179230  10.441  11.830  18.053 -0.1041 -0.3867  0.3005
55651DBGS   AM279231  10.555  11.694  18.267  0.0977 -0.0618  0.1015
55651DBGS   T1A79232  10.546  11.756  17.803 -0.1731  0.1484  0.2581
55651DBGS   C2A79233  10.597  11.708  17.411  0.1808 -0.0312  0.2616
55651DBGS   C3A79234  10.553  11.451  17.131  0.0459 -0.0099  0.0302
55651DBGS   C4A79235  10.718  11.296  16.850 -0.2773 -0.1236  0.3124
55651DBGS   C5A79236  11.087  11.412  16.446 -0.1617  0.2239 -0.1075
55651DBGS   C1B79237  10.713  11.375  18.281 -0.0658 -0.2046 -0.5324
55651DBGS   C2B79238  11.083  11.091  18.286 -0.0100  0.3570 -0.1613
55651DBGS   C3B79239  11.461  10.906  18.202  0.3864 -0.0754  0.0182
55651DBGS   C4B79240  11.734  10.967  18.058 -0.1174 -0.0723 -0.0766
55651DBGS   C5B79241  12.049  10.718  17.923 -0.3035  0.0896  0.2101
55652DBGS    C179242   2.386  24.471  15.341  0.1133 -0.0665  0.0200
55652DBGS    C279243   2.193  24.398  15.558 -0.0784  0.0003 -0.1267
55652DBGS    C379244   2.221  24.684  15.472  0.2335  0.0202  0.0326
55652DBGS   AM179245   2.398  24.694  14.925  0.1464 -0.0522  0.0762
55652DBGS   AM279246   2.592  24.501  14.895  0.4062 -0.0278 -0.0118
55652DBGS   T1A79247   2.333  24.909  14.746 -0.1044  0.1067 -0.4292
55652DBGS   C2A79248   2.594  25.126  14.494  0.1842 -0.0299 -0.0356
55652DBGS   C3A79249   2.894  25.449  14.289  0.0453  0.1037 -0.2058
55652DBGS   C4A79250   3.349  25.581  14.203 -0.2494 -0.0582  0.2648
55652DBGS   C5A79251   3.611  25.348  13.845 -0.0118 -0.1235 -0.0973
55652DBGS   C1B79252   2.954  24.428  14.871 -0.4304 -0.0910  0.0818
55652DBGS   C2B79253   3.336  24.620  14.865  0.1001  0.2430  0.1965
55652DBGS   C3B79254   3.664  24.795  14.619 -0.1053  0.1566 -0.1224
55652DBGS   C4B79255   4.131  24.838  14.605 -0.0085 -0.3648  0.1997
55652DBGS   C5B79256   4.373  25.262  14.528  0.1918  0.0049 -0.0003
55653DBGS    C179257   1.184   7.337  12.232  0.2152 -0.0996  0.1960
55653DBGS    C279258   0.908   7.274  12.331  0.2399 -0.2517  0.1699
55653DBGS    C379259   0.989   7.194  12.054  0.2150  0.0530  0.0729
55653DBGS   AM179260   1.558   7.200  11.964 -0.2230 -0.2547  0.2340
55653DBGS   AM279261   1.523   7.470  11.896  0.0299 -0.1039  0.1292
55653DBGS   T1A79262   1.751   7.032  11.852  0.2180 -0.1203 -0.0538
55653DBGS   C2A79263   2.113   6.853  11.581  0.1339  0.0213 -0.1118
55653DBGS   C3A79264   2.495   6.876  11.303 -0.0222  0.4688  0.0311
55653DBGS   C4A79265   2.888   6.911  11.020  0.0419 -0.0136 -0.0261
55653DBGS   C5A79266   3.309   6.853  10.976  0.0604  0.1103  0.0280
55653DBGS   C1B79267   1.615   7.599  11.562 -0.3357 -0.2290  0.3127
55653DBGS   C2B79268   1.937   7.694  11.251  0.0823 -0.2770  0.1916
55653DBGS   C3B79269   2.215   7.642  10.976  0.0277 -0.0753  0.1025
55653DBGS   C4B79270   2.617   7.454  11.023 -0.1123 -0.0752 -0.1066
55653DBGS   C5B79271   3.072   7.396  10.882  0.1874 -0.0259 -0.2238
55654DBGS    C179272  19.628  23.165  17.936  0.1099 -0.0877 -0.0313
55654DBGS    C279273  19.536  22.881  17.966 -0.1082 -0.0122  0.0254
55654DBGS    C379274  19.780  22.944  17.803 -0.0724 -0.2294 -0.0063
55654DBGS   AM179275  19.369  23.249  17.526  0.1760 -0.1697  0.0543
55654DBGS   AM279276  19.176  23.088  17.596  0.0408 -0.0422 -0.1333
55654DBGS   T1A79277  19.337  23.344  17.237 -0.0959 -0.0647  0.0929
55654DBGS   C2A79278  19.014  23.371  16.945  0.2780 -0.1026 -0.0505
55654DBGS   C3A79279  18.718  23.583  16.862  0.0110 -0.2341 -0.1718
55654DBGS   C4A79280  18.560  23.706  16.622 -0.0704 -0.1510  0.0071
55654DBGS   C5A79281  18.292  23.915  16.424  0.0724  0.0575 -0.0424
55654DBGS   C1B79282  18.926  23.000  17.342 -0.0654  0.0789  0.2531
55654DBGS   C2B79283  18.731  22.992  16.983  0.1174  0.1707 -0.0535
55654DBGS   C3B79284  18.504  23.145  16.596 -0.2383 -0.1889  0.1332
55654DBGS   C4B79285  18.191  23.370  16.337 -0.3694  0.2260  0.1231
55654DBGS   C5B79286  18.210  23.633  16.031 -0.3631  0.0971  0.0267
55655DBGS    C179287  29.856  34.826  10.896  0.0105 -0.2951 -0.0305
55655DBGS    C279288  30.135  34.921  10.954 -0.1585  0.4674 -0.4035
55655DBGS    C379289  30.088  34.638  10.865  0.4525  0.2357 -0.0146
55655DBGS   AM179290  29.971  35.048  10.481 -0.1476 -0.2009  0.1226
55655DBGS   AM279291  29.748  34.934  10.403  0.1753  0.2107  0.1337
55655DBGS   T1A79292  30.136  35.197  10.304  0.2564 -0.0174  0.1855
55655DBGS   C2A79293  30.395  35.285  10.059  0.3863  0.0295 -0.0130
55655DBGS   C3A79294  30.579  35.372   9.657 -0.1163 -0.0344  0.1837
55655DBGS   C4A79295  30.566   0.130   9.239  0.0273 -0.0891  0.1596
55655DBGS   C5A79296  30.175   0.381   9.166 -0.1859 -0.0545 -0.0096
55655DBGS   C1B79297  29.694  34.683  10.152 -0.1435  0.1202  0.2920
55655DBGS   C2B79298  29.977  34.293   9.966  0.2417  0.1620 -0.0344
55655DBGS   C3B79299  30.109  34.233   9.499 -0.0672  0.2766  0.2107
55655DBGS   C4B79300  30.297  34.052   9.134 -0.1227 -0.0670 -0.1890
55655DBGS   C5B79301  30.541  33.712   8.756 -0.3861 -0.0101 -0.0790
55656DBGS    C179302  31.123  12.881   4.459 -0.1536  0.2349 -0.0434
55656DBGS    C279303  30.899  12.918   4.262 -0.2400 -0.1369 -0.0192
55656DBGS    C379304  31.010  12.644   4.314  0.0041  0.0018  0.2085
55656DBGS   AM179305  31.555  12.637   4.452  0.1138 -0.2503  0.3284
55656DBGS   AM279306  31.583  12.870   4.309  0.0279  0.1429 -0.2962
55656DBGS   T1A79307  31.778  12.479   4.528  0.0087  0.0779 -0.1171
55656DBGS   C2A79308  32.088  12.227   4.317  0.2638 -0.0364  0.0308
55656DBGS   C3A79309  32.201  12.271   3.912 -0.0259  0.0360  0.3218
55656DBGS   C4A79310  32.269  11.948   3.583  0.1435  0.0826 -0.3815
55656DBGS   C5A79311  32.569  11.709   3.515  0.2173  0.1690 -0.0392
55656DBGS   C1B79312  31.729  12.852   3.973 -0.0374 -0.0612 -0.2076
55656DBGS   C2B79313  31.766  12.575   3.743  0.0096  0.3630 -0.3077
55656DBGS   C3B79314  31.732  12.701   3.312  0.0380 -0.0601 -0.0346
55656DBGS   C4B79315  31.628  12.493   2.961 -0.0175  0.0722 -0.1862
55656DBGS   C5B79316  31.482  12.542   2.547 -0.1224  0.0660 -0.0119
55657DBGS    C179317   1.032   6.286  12.245 -0.0184 -0.0535 -0.0226
55657DBGS    C279318   1.144   6.101  12.452  0.0078  0.0625  0.0673
55657DBGS    C379319   1.328   6.239  12.259  0.0183  0.2319  0.1976
55657DBGS   AM179320   1.070   6.279  11.747 -0.2926  0.2918 -0.2056
55657DBGS   AM279321   0.849   6.152  11.824 -0.0760 -0.0152  0.4686
55657DBGS   T1A79322   1.231   6.304  11.509 -0.1206 -0.2334  0.0636
55657DBGS   C2A79323   1.552   6.227  11.301  0.0262  0.1228 -0.2863
55657DBGS   C3A79324   1.681   5.934  11.173  0.2147  0.2974  0.1966
55657DBGS   C4A79325   1.872   5.716  10.895  0.2184 -0.0585 -0.0875
55657DBGS   C5A79326   1.873   5.470  10.608  0.0173 -0.1944 -0.2323
55657DBGS   C1B79327   0.613   5.938  11.642 -0.0689  0.0579 -0.2082
55657DBGS   C2B79328   0.512   5.766  11.227  0.0510  0.3243 -0.1167
55657DBGS   C3B79329   0.821   5.641  10.911 -0.2124  0.0902 -0.0555
55657DBGS   C4B79330   0.878   5.717  10.601 -0.0554  0.1811 -0.1845
55657DBGS   C5B79331   1.103   5.568  10.246  0.5368  0.0322 -0.0518
55658DBGS    C179332  21.794  17.656  14.037  0.1520 -0.0219 -0.2638
55658DBGS    C279333  21.993  17.881  14.038 -0.0597  0.1676 -0.2881
55658DBGS    C379334  21.744  17.900  14.205 -0.0210 -0.1029 -0.1968
55658DBGS   AM179335  21.635  17.884  13.644 -0.2406 -0.0070 -0.0577
55658DBGS   AM279336  21.884  17.872  13.560  0.2206 -0.0053  0.1495
55658DBGS   T1A79337  21.371  17.891  13.518  0.3209 -0.1296 -0.0312
55658DBGS   C2A79338  21.052  17.841  13.257 -0.0287 -0.1657  0.2516
55658DBGS   C3A79339  20.997  17.617  12.896 -0.0084 -0.2138  0.2056
55658DBGS   C4A79340  21.013  17.669  12.422  0.3024 -0.2472 -0.1822
55658DBGS   C5A79341  21.025  17.834  12.028 -0.1288  0.3540  0.2934
55658DBGS   C1B79342  22.042  17.798  13.240  0.2596  0.1029  0.0541
55658DBGS   C2B79343  22.072  17.736  12.805 -0.1114  0.0087  0.0385
55658DBGS   C3B79344  21.769  17.565  12.391 -0.0718 -0.0136 -0.1880
55658DBGS   C4B79345  21.406  17.493  12.104 -0.2240  0.1004 -0.2292
55658DBGS   C5B79346  21.222  17.162  12.066  0.0022 -0.1137  0.1120
55659PNGS    C179347  35.029  21.720   7.825  0.1735  0.0099 -0.0174
55659PNGS    C279348  34.971  21.945   8.016  0.0626 -0.2415  0.2485
55659PNGS    C379349  34.776  21.880   7.798  0.2588  0.1402 -0.0469
55659PNGS   AM179350  35.237  22.007   7.481 -0.0371  0.1687 -0.3528
55659PNGS   AM279351  35.303  22.169   7.681  0.3353 -0.1528 -0.1679
55659PNGS   T1A79352  35.281  22.033   7.173  0.1373 -0.4029  0.1904
55659PNGS   C2A79353   0.100  22.211   6.839  0.1452 -0.0338 -0.3253
55659PNGS   C3A79354   0.198  22.470   6.567 -0.1336  0.3283 -0.0756
55659PNGS   C4A79355   0.390  22.635   6.257  0.2208  0.1248  0.1294
55659PNGS   C1B79356   0.074  22.510   7.655  0.1223  0.4495  0.1140
55659PNGS   C2B79357   0.310  22.834   7.454  0.2120  0.0253  0.2031
55659PNGS   C3B79358   0.581  23.112   7.202  0.1603 -0.0791  0.3225
55659PNGS   D4B79359   0.630  23.286   6.792 -0.0629 -0.0802 -0.3103
55659PNGS   C5B79360   0.790  23.628   6.753  0.1537 -0.3511 -0.0853
55659PNGS   C6B79361   0.953  24.044   6.843 -0.0811  0.0877  0.0128
55660PNGS    C179362   2.693  21.391  11.420 -0.1249  0.0346  0.1231
55660PNGS    C279363   2.407  21.354  11.336 -0.1404  0.1672  0.1171
55660PNGS    C379364   2.593  21.520  11.169 -0.0578  0.0761  0.1179
55660PNGS   AM179365   3.144  21.615  11.289 -0.4834  0.3546 -0.1685
55660PNGS   AM279366   2.980  21.853  11.226 -0.1179 -0.1393  0.0917
55660PNGS   T1A79367   3.409  21.654  11.159 -0.1452  0.1163  0.3451
55660PNGS   C2A79368   3.859  21.773  11.071 -0.0059 -0.4241 -0.0078
55660PNGS   C3A79369   4.230  21.924  10.893 -0.0734 -0.2018 -0.0555
55660PNGS   C4A79370   4.609  21.815  10.917  0.5653  0.1085  0.1777
55660PNGS   C1B79371   3.118  22.154  11.087  0.1923 -0.0361  0.1697
55660PNGS   C2B79372   3.526  22.309  10.974  0.0449 -0.1213 -0.0786
55660PNGS   C3B79373   3.883  22.263  10.822  0.0032  0.1160  0.2051
55660PNGS   D4B79374   4.245  22.467  10.871 -0.1009 -0.2785 -0.0761
55660PNGS   C5B79375   4.650  22.315  10.964 -0.2009  0.3280  0.0640
55660PNGS   C6B79376   4.974  22.300  10.723  0.0601  0.1286 -0.0822
55661PNGS    C179377   0.617   8.902  11.136 -0.0883 -0.2032  0.0283
55661PNGS    C279378   0.638   9.133  11.327  0.1155  0.0096 -0.2471
55661PNGS    C379379   0.825   9.113  11.094 -0.0127 -0.3451 -0.3242
55661PNGS   AM179380   0.748   8.654  10.770 -0.2284  0.0483 -0.0725
55661PNGS   AM279381   0.656   8.471  10.907  0.0329 -0.0043  0.1039
55661PNGS   T1A79382   0.822   8.639  10.487 -0.0912  0.1389  0.2052
55661PNGS   C2A79383   1.112   8.472  10.147  0.0921  0.0186 -0.2323
55661PNGS   C3A79384   1.180   8.237   9.793  0.0822 -0.0277  0.1138
55661PNGS   C4A79385   1.013   8.190   9.329 -0.0950 -0.0648  0.0916
55661PNGS   C1B79386   0.761   8.103  10.851 -0.0455  0.1130  0.2158
55661PNGS   C2B79387   0.998   8.068  10.588  0.0477  0.0926  0.1355
55661PNGS   C3B79388   1.336   8.038  10.287  0.1494 -0.1214 -0.0720
55661PNGS   D4B79389   1.564   7.747   9.872 -0.2048 -0.0990  0.2586
55661PNGS   C5B79390   1.779   7.836   9.473  0.0512 -0.0340  0.0298
55661PNGS   C6B79391   2.035   8.055   9.202  0.0647 -0.1071  0.2437
55662PNGS    C179392  26.703  20.921   4.851 -0.0031  0.2778 -0.0845
55662PNGS    C279393  26.888  20.715   4.967 -0.2372  0.1298  0.0302
55662PNGS    C379394  26.859  20.983   5.100 -0.2293  0.0936  0.1050
55662PNGS   AM179395  26.457  21.369   4.978 -0.1684  0.1411 -0.1681
55662PNGS   AM279396  26.660  21.405   4.803  0.3391  0.1357 -0.1195
55662PNGS   T1A79397  26.174  21.425   4.895 -0.0657 -0.2368  0.1175
55662PNGS   C2A79398  25.789  21.564   4.629  0.2231  0.0261  0.1671
55662PNGS   C3A79399  25.381  21.564   4.630 -0.0649 -0.0518  0.0765
55662PNGS   C4A79400  25.072  21.888   4.467 -0.0061 -0.0564 -0.1322
55662PNGS   C1B79401  26.617  21.453   4.442  0.3570 -0.0163 -0.3233
55662PNGS   C2B79402  26.425  21.699   4.124 -0.1058  0.2105 -0.0469
55662PNGS   C3B79403  26.153  21.499   3.775  0.1498 -0.1383  0.1728
55662PNGS   D4B79404  26.293  21.159   3.448  0.0780  0.0090 -0.1043
55662PNGS   C5B79405  26.205  21.208   3.004  0.0745 -0.1498 -0.2108
55662PNGS   C6B79406  26.194  21.443   2.673  0.0297  0.0849 -0.0453
55663PNGS    C179407  20.603  27.771  15.244  0.0623  0.2088  0.2103
55663PNGS    C279408  20.530  27.976  15.037 -0.0943  0.0442  0.1015
55663PNGS    C379409  20.739  28.039  15.243  0.1682  0.1554 -0.1960
55663PNGS   AM179410  20.219  27.938  15.484 -0.1874  0.1083 -0.0815
55663PNGS   AM279411  20.126  28.061  15.277  0.1201  0.4775 -0.1553
55663PNGS   T1A79412  20.062  27.704  15.566  0.0920  0.0955  0.1146
55663PNGS   C2A79413  19.637  27.448  15.523 -0.0213 -0.0192 -0.2635
55663PNGS   C3A79414  19.313  27.092  15.479 -0.1601  0.1647  0.2633
55663PNGS   C4A79415  19.110  26.582  15.373 -0.0756  0.1229  0.1563
55663PNGS   C1B79416  19.859  27.917  15.081 -0.0706 -0.0851 -0.3566
55663PNGS   C2B79417  19.495  27.769  14.862 -0.3182 -0.0359  0.0556
55663PNGS   C3B79418  19.312  27.469  14.809 -0.2365 -0.1688  0.3480
55663PNGS   D4B79419  18.872  27.265  14.723 -0.0409  0.0991 -0.2810
55663PNGS   C5B79420  18.903  27.024  15.185 -0.0336  0.0360  0.0032
55663PNGS   C6B79421  18.746  26.947  15.454 -0.1154 -0.0238  0.1873
55664PNGS    C179422  35.161   4.312  11.912  0.0450 -0.0274  0.0938
55664PNGS    C279423  35.257   4.449  12.161 -0.0608  0.1294  0.0488
55664PNGS    C379424  35.215   4.607  11.910 -0.1448  0.0074 -0.0146
55664PNGS   AM179425   0.232   4.254  11.700 -0.2742 -0.2202  0.0802
55664PNGS   AM279426   0.304   4.124  11.910 -0.1963 -0.3373 -0.3387
55664PNGS   T1A79427   0.318   4.214  11.438  0.0297 -0.3063 -0.2153
55664PNGS   C2A79428   0.396   3.990  11.031 -0.2115  0.1778  0.1447
55664PNGS   C3A79429   0.498   3.924  10.683 -0.0656  0.1687 -0.1427
55664PNGS   C4A79430   0.759   4.108  10.318  0.1788  0.1120 -0.2379
55664PNGS   C1B79431   0.611   3.938  11.943 -0.2626 -0.1537 -0.1664
55664PNGS   C2B79432   0.904   3.671  11.743  0.1934  0.2437  0.2865
55664PNGS   C3B79433   1.257   3.613  11.497  0.0614 -0.3456 -0.0128
55664PNGS   D4B79434   1.253   3.496  11.102 -0.2148  0.0358  0.1832
55664PNGS   C5B79435   1.296   3.194  10.845  0.2150  0.2182  0.1736
55664PNGS   C6B79436   1.135   2.837  10.781  0.1114  0.0965 -0.0725
55665PNGS    C179437  26.200  14.760   5.873  0.0331  0.0879 -0.1442
55665PNGS    C279438  26.104  15.044   5.857  0.0350  0.1056  0.1333
55665PNGS    C379439  25.993  14.860   6.066  0.1810 -0.0409  0.0828
55665PNGS   AM179440  25.873  14.592   5.583  0.0975 -0.1583 -0.0604
55665PNGS   AM279441  25.799  14.856   5.531  0.1404 -0.0485  0.4106
55665PNGS   T1A79442  25.777  14.346   5.525 -0.5045  0.1167 -0.0807
55665PNGS   C2A79443  25.498  14.103   5.313  0.1768  0.0196  0.0416
55665PNGS   C3A79444  25.249  13.823   5.099 -0.0016  0.0040  0.3644
55665PNGS   C4A79445  24.922  13.683   4.843 -0.2370  0.0544 -0.4301
55665PNGS   C1B79446  25.446  14.928   5.491 -0.4100 -0.1641  0.0754
55665PNGS   C2B79447  25.040  14.847   5.296  0.0310 -0.2467  0.4219
55665PNGS   C3B79448  24.878  14.694   4.940  0.0852  0.1401 -0.0925
55665PNGS   D4B79449  24.569  14.596   4.689  0.1763 -0.1786 -0.0957
55665PNGS   C5B79450  24.366  14.247   4.542  0.3017  0.0225 -0.0032
55665PNGS   C6B79451  24.080  13.971   4.738 -0.0431 -0.1987  0.2245
55666PNGS    C179452  25.512  27.137   8.979  0.0795  0.0430  0.1386
55666PNGS    C279453  25.281  27.029   9.138  0.0224 -0.0571 -0.0108
55666PNGS    C379454  25.239  27.259   8.949  0.0078 -0.1846 -0.1642
55666PNGS   AM179455  25.549  27.111   8.491  0.0024  0.0105 -0.2959
55666PNGS   AM279456  25.760  27.236   8.355  0.1595 -0.1309 -0.0390
55666PNGS   T1A79457  25.434  26.906   8.308 -0.0693  0.2122 -0.0154
55666PNGS   C2A79458  25.032  26.911   8.012  0.2518  0.0492 -0.0619
55666PNGS   C3A79459  24.749  27.028   7.781  0.0324 -0.0960  0.0352
55666PNGS   C4A79460  24.482  27.370   7.826 -0.0569  0.0932  0.0233
55666PNGS   C1B79461  25.783  27.301   7.990 -0.0365  0.4283 -0.4233
55666PNGS   C2B79462  25.602  27.486   7.570  0.0135 -0.1178  0.2870
55666PNGS   C3B79463  25.391  27.761   7.211  0.2616 -0.2125  0.2708
55666PNGS   D4B79464  25.119  27.979   6.833 -0.1134 -0.0867 -0.0769
55666PNGS   C5B79465  24.802  28.174   6.895 -0.0714 -0.1385  0.0893
55666PNGS   C6B79466  24.706  28.497   7.181 -0.1676  0.1780  0.1168
55667PNGS    C179467  13.010   8.487  18.754 -0.0440  0.1317 -0.1190
55667PNGS    C279468  13.017   8.373  19.031 -0.2273 -0.1857 -0.2425
55667PNGS    C379469  12.824   8.593  18.965 -0.0678  0.0060 -0.0766
55667PNGS   AM179470  12.976   8.933  18.538 -0.3515 -0.0075  0.0098
55667PNGS   AM279471  13.253   8.902  18.480 -0.0356 -0.2433  0.0954
55667PNGS   T1A79472  12.811   9.119  18.372 -0.1724 -0.1155 -0.0388
55667PNGS   C2A79473  12.447   9.007  18.124 -0.1330 -0.2623  0.0854
55667PNGS   C3A79474  12.192   9.081  17.833 -0.0941 -0.3377  0.2749
55667PNGS   C4A79475  12.110   9.242  17.504  0.0820 -0.0655 -0.1998
55667PNGS   C1B79476  13.414   8.776  18.179 -0.0613 -0.2157  0.1775
55667PNGS   C2B79477  13.305   8.932  17.800 -0.0141  0.2469  0.0256
55667PNGS   C3B79478  13.013   9.173  17.469  0.2000 -0.0540  0.1697
55667PNGS   D4B79479  12.573   9.371  17.295 -0.3059 -0.0288  0.1281
55667PNGS   C5B79480  12.550   9.639  16.877 -0.4486 -0.0956  0.0556
55667PNGS   C6B79481  12.487  10.113  16.737 -0.1659  0.0698  0.1126
55668PNGS    C179482  26.984   3.628  10.048  0.1213  0.0009  0.0359
55668PNGS    C279483  27.229   3.801  10.061 -0.0746  0.2836  0.0031
55668PNGS    C379484  27.167   3.648   9.811  0.2433 -0.0526  0.1250
55668PNGS   AM179485  26.627   3.503   9.729 -0.0263  0.1422  0.3105
55668PNGS   AM279486  26.779   3.286   9.707 -0.0494 -0.1971 -0.0020
55668PNGS   T1A79487  26.426   3.506   9.530 -0.1412 -0.1987  0.1732
55668PNGS   C2A79488  26.114   3.387   9.211  0.2540 -0.1569  0.1209
55668PNGS   C3A79489  26.071   3.179   8.833 -0.0371  0.0668 -0.0696
55668PNGS   C4A79490  25.918   2.857   8.634  0.1073 -0.2217  0.0738
55668PNGS   C1B79491  26.726   3.038   9.446  0.2278  0.1372  0.3256
55668PNGS   C2B79492  26.457   2.989   9.101  0.0257  0.1831 -0.0361
55668PNGS   C3B79493  26.439   2.883   8.679  0.0479 -0.3092 -0.2275
55668PNGS   D4B79494  26.277   2.923   8.197 -0.3482 -0.2244  0.5860
55668PNGS   C5B79495  25.901   2.643   8.196 -0.4229  0.1089  0.3083
55668PNGS   C6B79496  25.591   2.647   8.014  0.3754 -0.1465 -0.0311
55669PNGS    C179497   3.442  23.576  16.580  0.3372 -0.1550  0.0047
55669PNGS    C279498   3.227  23.441  16.740  0.1171 -0.0227 -0.1761
55669PNGS    C379499   3.384  23.668  16.860  0.1812 -0.1423 -0.0315
55669PNGS   AM179500   3.794  23.958  16.626 -0.0757  0.2483  0.0523
55669PNGS   AM279501   3.872  23.767  16.787  0.0252  0.1304  0.2470
55669PNGS   T1A79502   4.009  24.105  16.512 -0.4329 -0.1959  0.1316
55669PNGS   C2A79503   4.444  24.088  16.473  0.0431  0.0429  0.0335
55669PNGS   C3A79504   4.846  24.131  16.283 -0.0380 -0.0154  0.2773
55669PNGS   C4A79505   5.240  24.111  16.264 -0.0154  0.3328  0.0563
55669PNGS   C1B79506   4.264  23.726  16.753  0.1752  0.2025 -0.0545
55669PNGS   C2B79507   4.749  23.762  16.661  0.0675 -0.1397  0.0123
55669PNGS   C3B79508   5.208  23.811  16.654  0.2898 -0.1686 -0.3074
55669PNGS   D4B79509   5.453  23.444  16.518 -0.5150 -0.0638 -0.1779
55669PNGS   C5B79510   5.860  23.402  16.371 -0.2177 -0.1060  0.0128
55669PNGS   C6B79511   6.062  23.253  16.172  0.2408 -0.0529 -0.0287
55670PNGS    C179512   1.918  22.134  10.623  0.0030  0.1557  0.0144
55670PNGS    C279513   2.167  22.161  10.788 -0.0199  0.1818  0.0448
55670PNGS    C379514   2.163  21.978  10.550 -0.0718 -0.0703  0.2367
55670PNGS   AM179515   2.138  22.549  10.457  0.2566  0.1459 -0.0813
55670PNGS   AM279516   1.939  22.587  10.297 -0.2132 -0.0493  0.3038
55670PNGS   T1A79517   2.352  22.752  10.424 -0.1148  0.1269  0.1772
55670PNGS   C2A79518   2.549  23.099  10.254  0.2349  0.0337  0.3845
55670PNGS   C3A79519   2.713  23.325   9.868 -0.1836 -0.3011  0.0519
55670PNGS   C4A79520   2.900  23.512   9.520 -0.5185  0.0605 -0.0218
55670PNGS   C1B79521   1.908  22.901  10.118 -0.2079  0.0099  0.0685
55670PNGS   C2B79522   1.822  22.934   9.667 -0.2343  0.0775  0.1048
55670PNGS   C3B79523   2.093  22.948   9.356  0.2846  0.1227 -0.1324
55670PNGS   D4B79524   2.329  23.087   9.133 -0.0629  0.3153  0.1760
55670PNGS   C5B79525   2.285  23.365   8.816  0.2645 -0.1845  0.3655
55670PNGS   C6B79526   2.616  23.520   8.602  0.3086  0.0261 -0.1129
55671PNGS    C179527  32.091  35.118  12.106  0.1090 -0.1727 -0.0817
55671PNGS    C279528  31.824  35.044  12.219  0.1522  0.0070  0.1437
55671PNGS    C379529  31.857  35.078  11.923 -0.1177  0.1611  0.1295
55671PNGS   AM179530  32.384  35.121  11.694  0.4499  0.2256 -0.1079
55671PNGS   AM279531  32.470  35.348  11.799 -0.2811 -0.0667 -0.5211
55671PNGS   T1A79532  32.526  34.944  11.485 -0.4350 -0.2229 -0.1635
55671PNGS   C2A79533  32.441  34.829  11.079 -0.3509  0.1349 -0.1171
55671PNGS   C3A79534  32.576  34.840  10.617 -0.0216 -0.0934 -0.0219
55671PNGS   C4A79535  32.900  34.688  10.312 -0.2776  0.0617  0.0397
55671PNGS   C1B79536  32.620   0.234  11.615 -0.1364  0.2831 -0.1402
55671PNGS   C2B79537  32.805   0.256  11.285 -0.1378 -0.2077  0.0986
55671PNGS   C3B79538  32.830   0.553  10.978  0.0954  0.1227  0.0792
55671PNGS   D4B79539  32.987   0.920  10.773  0.1042  0.1475 -0.0194
55671PNGS   C5B79540  32.894   0.879  10.300 -0.3733  0.0867  0.0381
55671PNGS   C6B79541  32.778   0.664   9.917  0.0042  0.2178 -0.1952
55672PNGS    C179542   0.006   9.826  10.206  0.1313  0.0678 -0.3180
55672PNGS    C279543   0.293   9.908  10.237  0.0831  0.1513 -0.0805
55672PNGS    C379544   0.187   9.672  10.389  0.0128  0.1514 -0.1289
55672PNGS   AM179545   0.064   9.523   9.846  0.2066 -0.0214  0.0435
55672PNGS   AM279546  35.206   9.405   9.878  0.0540  0.6144 -0.0007
55672PNGS   T1A79547   0.227   9.503   9.600  0.0821 -0.0429 -0.2770
55672PNGS   C2A79548   0.454   9.272   9.460 -0.0528 -0.1359  0.0214
55672PNGS   C3A79549   0.814   9.310   9.271 -0.1829  0.0081 -0.1864
55672PNGS   C4A79550   1.187   9.110   9.130 -0.1714  0.0569 -0.0217
55672PNGS   C1B79551  35.076   9.245   9.563  0.0187 -0.0801 -0.6750
55672PNGS   C2B79552  35.340   9.041   9.304  0.1811  0.0653  0.3882
55672PNGS   C3B79553   0.309   9.021   9.041  0.0160  0.2309  0.1592
55672PNGS   D4B79554   0.666   8.797   9.169 -0.0489 -0.0534  0.1567
55672PNGS   C5B79555   0.598   8.333   9.175 -0.1183  0.0553 -0.0664
55672PNGS   C6B79556   0.633   7.940   9.421 -0.0978 -0.4651  0.3184
55673PNGS    C179557  20.945  19.596  16.181 -0.0139 -0.1169  0.0773
55673PNGS    C279558  21.082  19.345  16.092 -0.0338 -0.0693 -0.0910
55673PNGS    C379559  20.909  19.496  15.900 -0.1190  0.0079  0.0458
55673PNGS   AM179560  20.424  19.674  16.185  0.0570  0.0773  0.2903
55673PNGS   AM279561  20.418  19.426  16.147  0.2564  0.1148  0.0828
55673PNGS   T1A79562  20.196  19.836  16.202  0.1419  0.0568 -0.0204
55673PNGS   C2A79563  19.749  19.575  16.047 -0.0293 -0.3337  0.0431
55673PNGS   C3A79564  19.402  19.458  15.720  0.2245 -0.0337  0.2784
55673PNGS   C4A79565  18.970  19.391  15.572 -0.0373 -0.1156  0.2205
55673PNGS   C1B79566  20.168  19.272  15.989 -0.0031  0.1846  0.2012
55673PNGS   C2B79567  19.932  18.964  15.739 -0.0563 -0.0592  0.1096
55673PNGS   C3B79568  19.578  19.009  15.472 -0.0007 -0.1278 -0.0684
55673PNGS   D4B79569  19.244  19.052  15.257 -0.0820  0.1709 -0.2979
55673PNGS   C5B79570  18.961  18.688  15.139 -0.1244  0.0306 -0.1657
55673PNGS   C6B79571  18.889  18.265  14.897 -0.0223 -0.1252 -0.2148
55674PNGS    C179572  19.780  31.730  14.329 -0.1789 -0.1580  0.1098
55674PNGS    C279573  19.960  31.675  14.096  0.0908  0.0352  0.2692
55674PNGS    C379574  19.966  31.495  14.336 -0.0562 -0.0590  0.2031
55674PNGS   AM179575  19.512  31.410  14.032  0.0697 -0.2751 -0.1599
55674PNGS   AM279576  19.340  31.442  14.242 -0.1229 -0.1442  0.0343
55674PNGS   T1A79577  19.396  31.357  13.777  0.0497  0.0932 -0.0225
55674PNGS   C2A79578  19.052  31.172  13.535  0.1325 -0.0682 -0.1904
55674PNGS   C3A79579  18.629  31.011  13.372 -0.2178  0.1123 -0.0272
55674PNGS   C4A79580  18.362  30.712  13.270 -0.1023 -0.2287 -0.1524
55674PNGS   C1B79581  18.963  31.492  14.198 -0.0585  0.0759  0.1785
55674PNGS   C2B79582  18.729  31.361  13.864 -0.3645  0.1775  0.3406
55674PNGS   C3B79583  18.402  31.321  13.643  0.3471 -0.1737  0.4278
55674PNGS   D4B79584  18.203  31.301  13.229  0.1251  0.3806 -0.3709
55674PNGS   C5B79585  18.103  31.736  13.022  0.1831 -0.0143 -0.0996
55674PNGS   C6B79586  18.256  32.156  12.962 -0.0069 -0.1930  0.0706
55675PNGS    C179587   2.894  33.553  17.063 -0.0310  0.0820  0.0676
55675PNGS    C279588   3.015  33.525  17.336  0.3347  0.1145 -0.0887
55675PNGS    C379589   2.948  33.797  17.229 -0.2914  0.0716  0.1717
55675PNGS   AM179590   3.358  33.507  16.930 -0.1625 -0.2331 -0.0724
55675PNGS   AM279591   3.373  33.298  17.095  0.2996  0.2768  0.2308
55675PNGS   T1A79592   3.420  33.543  16.664 -0.2160  0.0308  0.1332
55675PNGS   C2A79593   3.787  33.540  16.359 -0.1165 -0.0599 -0.0601
55675PNGS   C3A79594   4.117  33.470  16.145  0.1392 -0.0243 -0.3874
55675PNGS   C4A79595   4.539  33.331  16.032  0.0445  0.2502 -0.0210
55675PNGS   C1B79596   3.583  33.013  17.102  0.2459  0.3926  0.1422
55675PNGS   C2B79597   3.801  33.120  16.830  0.2938 -0.2580  0.0717
55675PNGS   C3B79598   3.933  32.920  16.513 -0.0802  0.0464  0.1778
55675PNGS   D4B79599   3.855  32.530  16.304  0.2923  0.2763  0.1810
55675PNGS   C5B79600   4.114  32.172  16.219  0.1224  0.2607  0.0506
55675PNGS   C6B79601   3.772  31.771  16.298  0.0158  0.2373  0.2176
55676PNGS    C179602  29.207   8.653   6.701 -0.0750  0.2467  0.0699
55676PNGS    C279603  29.016   8.801   6.879 -0.2008 -0.0548  0.1895
55676PNGS    C379604  29.179   8.574   6.989  0.1171  0.1021  0.0503
55676PNGS   AM179605  29.700   8.575   6.720 -0.0362 -0.2844  0.0306
55676PNGS   AM279606  29.570   8.336   6.666 -0.0422 -0.1254  0.1422
55676PNGS   T1A79607  29.930   8.583   6.526 -0.0722  0.0829  0.2088
55676PNGS   C2A79608  30.002   8.392   6.167  0.1754  0.1147 -0.1689
55676PNGS   C3A79609  30.014   8.096   6.004 -0.3917  0.1685 -0.1233
55676PNGS   C4A79610  30.244   7.860   5.790 -0.0754  0.1315 -0.3437
55676PNGS   C1B79611  29.651   8.114   6.393 -0.0924 -0.3658  0.3725
55676PNGS   C2B79612  29.656   7.778   5.993  0.0001  0.0112  0.0812
55676PNGS   C3B79613  29.747   7.781   5.631 -0.1991  0.3053 -0.0089
55676PNGS   D4B79614  29.911   7.824   5.227  0.3437  0.0677  0.1396
55676PNGS   C5B79615  30.313   7.832   5.233  0.1465  0.0678  0.1449
55676PNGS   C6B79616  30.656   7.749   5.538 -0.2136  0.0608 -0.1414
55677PNGS    C179617   9.166   7.264  18.481  0.0289  0.0294  0.1833
55677PNGS    C279618   8.933   7.093  18.400  0.3193 -0.1983 -0.1922
55677PNGS    C379619   9.195   6.965  18.472  0.3912  0.0661  0.0242
55677PNGS   AM179620   9.390   7.342  18.055 -0.0765  0.4403  0.0290
55677PNGS   AM279621   9.132   7.400  18.017 -0.1431 -0.0240 -0.0439
55677PNGS   T1A79622   9.617   7.369  17.890  0.2815  0.0372  0.1648
55677PNGS   C2A79623   9.640   7.367  17.507  0.4295 -0.2897 -0.1902
55677PNGS   C3A79624   9.757   7.455  17.126 -0.1104 -0.0191 -0.1530
55677PNGS   C4A79625   9.583   7.489  16.753  0.0884  0.0870 -0.0447
55677PNGS   C1B79626   8.921   7.456  17.712  0.1007 -0.1928 -0.0618
55677PNGS   C2B79627   8.887   7.440  17.316 -0.0709  0.3164 -0.2643
55677PNGS   C3B79628   9.300   7.242  17.150 -0.0361 -0.2858  0.0047
55677PNGS   D4B79629   9.292   6.867  16.822 -0.0439  0.1240 -0.2509
55677PNGS   C5B79630   9.333   6.399  16.900 -0.1067  0.0029  0.0179
55677PNGS   C6B79631   9.413   6.034  16.900  0.0282  0.2039  0.0078
55678PNGS    C179632   8.938   9.691  18.439 -0.1166 -0.0658  0.0113
55678PNGS    C279633   9.056   9.500  18.638 -0.0876  0.1244  0.1788
55678PNGS    C379634   8.853   9.403  18.439 -0.0689 -0.0812  0.2586
55678PNGS   AM179635   8.755   9.673  17.938  0.1868 -0.1474  0.0771
55678PNGS   AM279636   8.649   9.934  17.975  0.1970 -0.0196 -0.1039
55678PNGS   T1A79637   8.806   9.591  17.661  0.0985 -0.1905 -0.0785
55678PNGS   C2A79638   8.819   9.442  17.221  0.0232  0.1067  0.2160
55678PNGS   C3A79639   8.912   9.127  16.960  0.0017  0.0931 -0.3607
55678PNGS   C4A79640   9.193   9.052  16.665  0.0643 -0.0039 -0.2193
55678PNGS   C1B79641   8.614  10.243  17.765 -0.0608 -0.3032  0.0295
55678PNGS   C2B79642   8.569  10.388  17.351  0.1256  0.0739 -0.1982
55678PNGS   C3B79643   8.365  10.292  16.980 -0.2042  0.0218 -0.0841
55678PNGS   D4B79644   8.193  10.385  16.592 -0.4055  0.0960 -0.1115
55678PNGS   C5B79645   8.167  10.834  16.358  0.3298 -0.1291  0.1326
55678PNGS   C6B79646   8.269  11.194  16.066  0.0281 -0.0502  0.1153
55679PNGS    C179647   4.597  12.722  15.330  0.2789  0.0778  0.1482
55679PNGS    C279648   4.370  12.620  15.163  0.3576 -0.0662  0.1284
55679PNGS    C379649   4.441  12.911  15.157  0.2017 -0.0283  0.1012
55679PNGS   AM179650   4.804  12.529  14.956  0.1642  0.0649  0.2596
55679PNGS   AM279651   4.987  12.715  15.051 -0.0923  0.2751  0.1114
55679PNGS   T1A79652   4.884  12.310  14.770  0.0156  0.1491  0.0524
55679PNGS   C2A79653   5.095  12.038  14.515 -0.2793  0.0449  0.0115
55679PNGS   C3A79654   5.362  11.867  14.098  0.1587 -0.1432 -0.0450
55679PNGS   C4A79655   5.390  11.730  13.753 -0.0581 -0.2365  0.2195
55679PNGS   C1B79656   5.131  12.981  14.812  0.0898  0.3192 -0.1616
55679PNGS   C2B79657   5.439  13.116  14.446  0.2723  0.0483  0.0692
55679PNGS   C3B79658   5.383  13.102  13.988  0.1952  0.0772 -0.1347
55679PNGS   D4B79659   5.394  13.215  13.569  0.1210  0.0374  0.2004
55679PNGS   C5B79660   5.750  13.530  13.486 -0.2470 -0.1582  0.2405
55679PNGS   C6B79661   6.095  13.694  13.301  0.2096 -0.1110  0.2723
55680PNGS    C179662  24.382   3.301  11.695  0.0429 -0.2074  0.0707
55680PNGS    C279663  24.491   3.101  11.500  0.0281 -0.0534 -0.0969
55680PNGS    C379664  24.232   3.047  11.642  0.0813 -0.2038 -0.0566
55680PNGS   AM179665  24.059   3.518  11.382  0.1146 -0.0395  0.1174
55680PNGS   AM279666  23.918   3.560  11.615  0.0068  0.1595  0.2137
55680PNGS   T1A79667  24.078   3.721  11.207 -0.3255 -0.2528  0.0901
55680PNGS   C2A79668  23.896   3.887  10.883  0.0789  0.3678  0.2624
55680PNGS   C3A79669  23.766   3.969  10.415 -0.2558  0.0932  0.0358
55680PNGS   C4A79670  23.505   4.168  10.127 -0.2785 -0.1283 -0.3090
55680PNGS   C1B79671  23.626   3.750  11.600 -0.1399  0.3490  0.0141
55680PNGS   C2B79672  23.099   3.754  11.378 -0.0720 -0.0618  0.0930
55680PNGS   C3B79673  22.891   3.937  11.240  0.2258 -0.0993  0.3170
55680PNGS   D4B79674  22.691   4.176  10.955 -0.2558 -0.0808 -0.1480
55680PNGS   C5B79675  22.479   3.890  10.542 -0.0735  0.0566  0.1895
55680PNGS   C6B79676  22.209   3.925  10.282  0.0944  0.0825 -0.0430
55681PNGS    C179677  32.084  21.502   4.516 -0.2310 -0.1830 -0.1511
55681PNGS    C279678  32.063  21.371   4.785 -0.3296  0.0847 -0.0260
55681PNGS    C379679  32.306  21.327   4.616 -0.2284 -0.0151  0.1439
55681PNGS   AM179680  32.428  21.813   4.385 -0.0703 -0.0821  0.1221
55681PNGS   AM279681  32.241  21.828   4.206 -0.1711  0.1057  0.1823
55681PNGS   T1A79682  32.609  22.038   4.387  0.0322  0.0698  0.1499
55681PNGS   C2A79683  32.835  22.281   4.104  0.2413  0.1916  0.0460
55681PNGS   C3A79684  33.120  22.308   3.656  0.2243 -0.1826  0.0400
55681PNGS   C4A79685  33.041  21.992   3.252 -0.0049  0.0117 -0.2457
55681PNGS   C1B79686  32.360  21.917   3.856 -0.0486 -0.2305  0.1496
55681PNGS   C2B79687  32.707  22.039   3.564 -0.0411  0.1036 -0.1455
55681PNGS   C3B79688  32.507  22.134   3.149  0.1610 -0.2728 -0.0221
55681PNGS   D4B79689  32.360  22.435   2.840 -0.2390 -0.3353 -0.0288
55681PNGS   C5B79690  32.485  22.836   2.957  0.1747 -0.1344  0.0829
55681PNGS   C6B79691  32.570  23.068   3.324  0.0617  0.0296  0.2370
55682PNGS    C179692   1.906  21.643  10.174  0.0617 -0.1020 -0.0554
55682PNGS    C279693   1.687  21.493  10.314  0.0412  0.1642  0.2030
55682PNGS    C379694   1.941  21.559  10.460  0.3280 -0.2061 -0.1169
55682PNGS   AM179695   2.413  21.688  10.158  0.0829 -0.1745  0.4119
55682PNGS   AM279696   2.376  21.492   9.989  0.3340 -0.1772 -0.3267
55682PNGS   T1A79697   2.603  21.885  10.093  0.0724  0.0158  0.1970
55682PNGS   C2A79698   2.810  22.193   9.916  0.0911  0.0999  0.0001
55682PNGS   C3A79699   3.116  22.469   9.752 -0.0801 -0.1407  0.0056
55682PNGS   C4A79700   3.455  22.727   9.706 -0.4620  0.0284 -0.2670
55682PNGS   C1B79701   2.561  21.451   9.660  0.0009  0.0854  0.2102
55682PNGS   C2B79702   2.856  21.517   9.313  0.1965  0.1763 -0.0597
55682PNGS   C3B79703   3.098  21.736   9.123  0.1949 -0.0928 -0.0017
55682PNGS   D4B79704   3.393  22.026   9.106  0.3025  0.0233  0.0571
55682PNGS   C5B79705   3.711  22.007   8.957 -0.3343  0.2916 -0.0827
55682PNGS   C6B79706   3.976  21.671   8.643 -0.1640  0.1703 -0.0201
55683PNGS    C179707  33.130  22.775   6.352  0.0183 -0.0003 -0.2031
55683PNGS    C279708  32.929  22.996   6.377 -0.0104 -0.0424 -0.0627
55683PNGS    C379709  33.205  23.056   6.277  0.0809  0.1147  0.2778
55683PNGS   AM179710  33.572  22.643   6.342 -0.1580  0.0232  0.0764
55683PNGS   AM279711  33.618  22.536   6.587 -0.1760 -0.2424  0.0685
55683PNGS   T1A79712  33.813  22.722   6.193  0.0991 -0.0417 -0.0643
55683PNGS   C2A79713  34.081  22.898   5.915  0.1393  0.0002 -0.4096
55683PNGS   C3A79714  34.351  23.163   5.656  0.1868 -0.1598 -0.0788
55683PNGS   C4A79715  34.671  23.290   5.366 -0.0626  0.0831 -0.0923
55683PNGS   C1B79716  33.945  22.598   6.732 -0.1285 -0.0296 -0.2136
55683PNGS   C2B79717  34.222  22.777   6.412  0.0938 -0.3962 -0.2814
55683PNGS   C3B79718  34.563  22.882   6.122  0.0053  0.0191  0.1682
55683PNGS   D4B79719  34.907  23.064   5.810  0.1497  0.1851 -0.2384
55683PNGS   C5B79720  35.333  23.015   5.793 -0.1423 -0.0197 -0.0148
55683PNGS   C6B79721   0.347  23.064   5.644 -0.2481 -0.0125  0.0526
55684PNGS    C179722   7.530  29.118  20.780 -0.1814 -0.0342  0.0103
55684PNGS    C279723   7.540  28.934  21.016 -0.1412 -0.1018 -0.0436
55684PNGS    C379724   7.341  28.886  20.797  0.2311 -0.4048 -0.3221
55684PNGS   AM179725   7.740  28.955  20.380  0.0675  0.1771 -0.4195
55684PNGS   AM279726   7.522  29.049  20.293 -0.1212 -0.2206 -0.1798
55684PNGS   T1A79727   7.968  28.781  20.283  0.0888  0.3448 -0.1054
55684PNGS   C2A79728   8.194  28.681  19.925 -0.1043 -0.0948 -0.2309
55684PNGS   C3A79729   8.477  28.591  19.528  0.5329 -0.2997  0.2991
55684PNGS   C4A79730   8.674  28.644  19.149  0.1125 -0.0496  0.1534
55684PNGS   C1B79731   7.275  28.943  20.030 -0.1605 -0.1950  0.0864
55684PNGS   C2B79732   7.396  28.829  19.687 -0.1007 -0.0256 -0.0415
55684PNGS   C3B79733   7.666  28.711  19.336 -0.1744 -0.2662 -0.0613
55684PNGS   D4B79734   7.528  28.741  18.964  0.1611 -0.2287 -0.2568
55684PNGS   C5B79735   7.122  28.674  18.773  0.3501 -0.1151  0.1390
55684PNGS   C6B79736   6.762  28.317  18.686 -0.2081  0.2766 -0.3191
55685PNGS    C179737  28.702  22.834   4.936 -0.0895  0.1877  0.0251
55685PNGS    C279738  28.885  22.804   4.700  0.2007  0.0994  0.2584
55685PNGS    C379739  28.746  23.065   4.749  0.2175  0.1490  0.0468
55685PNGS   AM179740  28.234  22.783   4.769  0.1161 -0.1585 -0.2542
55685PNGS   AM279741  28.374  22.641   4.601  0.0986 -0.0454 -0.1733
55685PNGS   T1A79742  28.032  22.965   4.740  0.1553 -0.0715  0.1320
55685PNGS   C2A79743  27.879  23.210   4.448 -0.1123  0.1429 -0.1398
55685PNGS   C3A79744  27.680  23.427   4.084 -0.0015  0.0922  0.1309
55685PNGS   C4A79745  27.618  23.628   3.737 -0.0400  0.2371 -0.0254
55685PNGS   C1B79746  28.405  22.558   4.254  0.1745  0.0807  0.2523
55685PNGS   C2B79747  28.486  22.708   3.808 -0.0590  0.4072  0.0867
55685PNGS   C3B79748  28.296  22.881   3.598  0.0778 -0.0418  0.3604
55685PNGS   D4B79749  28.094  23.047   3.195  0.0092 -0.2232  0.1023
55685PNGS   C5B79750  28.273  23.007   2.715 -0.0254 -0.0961  0.0211
55685PNGS   C6B79751  28.239  22.676   2.432  0.1577  0.0610  0.0088
55686DPG1   GM179752  35.250  13.698   8.084 -0.1080 -0.1049  0.1487
55686DPG1   GM279753   0.064  13.396   7.986  0.0173  0.0505 -0.0812
55686DPG1   GM379754  35.172  13.381   8.134 -0.0981 -0.1507 -0.1168
55686DPG1   GM479755  35.265  13.050   8.142  0.0713  0.1357 -0.1142
55686DPG1   GM579756  34.877  13.128   8.121  0.0874  0.2447 -0.0147
55686DPG1   GM679757  35.066  12.877   8.170  0.0180  0.2313  0.1113
55686DPG1   GM779758  35.084  12.759   8.464 -0.0943  0.0066  0.1952
55686DPG1   GM879759  34.583  12.855   8.360 -0.1284 -0.2161  0.1497
55686DPG1   GM979760  34.759  12.688   8.536 -0.1127 -0.0895 -0.0134
55686DPG1  GM1079761  34.898  12.352   8.559 -0.0040 -0.0513 -0.1069
55686DPG1  GM1179762  34.518  12.390   8.458  0.0785 -0.0252 -0.4109
55686DPG1  GM1279763  34.662  12.249   8.632 -0.0931  0.0668 -0.2269
55686DPG1  GM1379764  35.213  12.534   8.199 -0.1796  0.2083 -0.0392
55686DPG1  GM1479765  35.321  12.607   7.874 -0.0181  0.1968  0.0116
55686DPG1  GM1579766  34.957  12.602   7.924 -0.0426  0.2174 -0.1648
55686DPG1  GM1679767  35.068  12.499   7.663  0.0963  0.0333 -0.1018
55686DPG1  GM1779768  34.714  12.509   8.044  0.1876  0.0475  0.1243
55686DPG1   AM179769   0.202  13.924   7.885  0.0811  0.1480  0.0773
55686DPG1   AM279770   0.080  13.736   7.610 -0.4049 -0.0268  0.0124
55686DPG1   T1A79771   0.631  13.868   7.795 -0.0976 -0.0484  0.1908
55686DPG1   C2A79772   0.878  13.703   7.490 -0.2039 -0.1935 -0.1451
55686DPG1   C3A79773   1.287  13.669   7.393  0.0408 -0.3082 -0.0233
55686DPG1   C1B79774   0.319  13.693   7.347 -0.1666 -0.0377 -0.4414
55686DPG1   C2B79775   0.622  13.746   7.064  0.0087  0.1531 -0.0487
55686DPG1   C3B79776   0.987  13.670   6.959 -0.2031 -0.3589  0.3089
55686DPG1   C4B79777   1.197  13.681   6.564  0.2242  0.0031 -0.1743
55687DPG1   GM179778  33.838  23.896   8.690 -0.1176 -0.3101  0.3602
55687DPG1   GM279779  33.647  23.576   8.651 -0.4306 -0.0887  0.0314
55687DPG1   GM379780  33.714  23.751   8.421 -0.0791  0.0749  0.1298
55687DPG1   GM479781  33.502  23.490   8.304  0.2160  0.1538 -0.3244
55687DPG1   GM579782  33.857  23.598   8.164  0.3237  0.1721 -0.0393
55687DPG1   GM679783  33.602  23.440   8.064  0.1227 -0.4159 -0.2510
55687DPG1   GM779784  33.397  23.481   7.804 -0.2199  0.1941 -0.0171
55687DPG1   GM879785  33.897  23.611   7.734 -0.0847 -0.2428  0.1164
55687DPG1   GM979786  33.648  23.528   7.570  0.2685 -0.4140  0.0928
55687DPG1  GM1079787  33.440  23.255   7.449 -0.1237 -0.0894  0.0270
55687DPG1  GM1179788  33.800  23.316   7.299  0.0531 -0.0393  0.4619
55687DPG1  GM1279789  33.524  23.300   7.199 -0.0269  0.1972  0.1080
55687DPG1  GM1379790  33.411  23.169   7.976  0.0033  0.0550 -0.1995
55687DPG1  GM1479791  33.537  22.993   8.251 -0.3609  0.0042 -0.0618
55687DPG1  GM1579792  33.787  23.116   8.011 -0.0499 -0.0566  0.2271
55687DPG1  GM1679793  33.785  22.826   8.139 -0.1473  0.0176  0.2383
55687DPG1  GM1779794  33.872  23.136   7.754 -0.1873 -0.0300  0.1175
55687DPG1   AM179795  34.214  23.779   8.886  0.2973 -0.0689 -0.1479
55687DPG1   AM279796  34.208  24.103   9.113  0.1131 -0.0139 -0.2232
55687DPG1   T1A79797  34.577  24.022   8.761 -0.1201 -0.0474  0.1349
55687DPG1   C2A79798  34.902  24.174   8.417  0.0194  0.1606  0.1468
55687DPG1   C3A79799  35.199  24.442   8.275  0.1856 -0.3168 -0.3177
55687DPG1   C1B79800  34.514  24.265   9.248  0.2318 -0.2577  0.1929
55687DPG1   C2B79801  34.864  24.550   9.449 -0.0433 -0.1382 -0.0472
55687DPG1   C3B79802  34.952  24.931   9.184  0.1597 -0.0532  0.3593
55687DPG1   C4B79803  34.825  25.069   8.798 -0.2353 -0.2062  0.1223
55688DPG1   GM179804   0.224  19.992   7.529  0.2713  0.0527 -0.1303
55688DPG1   GM279805  35.362  19.772   7.705  0.1556  0.2221 -0.0799
55688DPG1   GM379806   0.277  19.800   7.792 -0.0944 -0.0367 -0.1187
55688DPG1   GM479807   0.175  19.538   7.999 -0.2250 -0.0367  0.0662
55688DPG1   GM579808   0.334  19.866   8.152  0.1921 -0.2835  0.1684
55688DPG1   GM679809   0.299  19.553   8.232 -0.0835 -0.2337  0.0040
55688DPG1   GM779810   0.555  19.354   8.286 -0.2019 -0.0511 -0.2028
55688DPG1   GM879811   0.597  19.845   8.457  0.1687 -0.1312 -0.0579
55688DPG1   GM979812   0.727  19.574   8.462  0.0002 -0.3028 -0.1214
55688DPG1  GM1079813   0.839  19.246   8.575 -0.0479 -0.2467  0.0907
55688DPG1  GM1179814   0.807  19.505   8.872 -0.0890  0.0347 -0.1571
55688DPG1  GM1279815   1.034  19.351   8.726  0.0737 -0.2618 -0.0547
55688DPG1  GM1379816   0.197  19.262   8.396 -0.0883 -0.1349  0.0752
55688DPG1  GM1479817  35.264  19.407   8.399 -0.0134  0.0304  0.0250
55688DPG1  GM1579818   0.134  19.578   8.599  0.0372 -0.1182  0.0882
55688DPG1  GM1679819  35.192  19.534   8.716  0.1816  0.4586  0.1981
55688DPG1  GM1779820   0.318  19.527   8.800 -0.0562  0.2746 -0.0485
55688DPG1   AM179821  35.385  19.998   7.108  0.1183  0.0409 -0.0076
55688DPG1   AM279822   0.327  20.129   7.064 -0.1722 -0.1489 -0.2175
55688DPG1   T1A79823  35.378  20.069   6.646 -0.0496 -0.3481  0.1357
55688DPG1   C2A79824   0.303  20.090   6.351  0.0520  0.0386  0.1205
55688DPG1   C3A79825   0.764  20.133   6.118  0.2590 -0.0803 -0.2110
55688DPG1   C1B79826   0.571  20.242   6.806 -0.0549 -0.0016 -0.3807
55688DPG1   C2B79827   0.862  20.405   6.560  0.1333 -0.3948  0.0900
55688DPG1   C3B79828   1.063  20.566   6.186  0.1780 -0.1626 -0.1040
55688DPG1   C4B79829   1.213  20.935   5.859  0.1967 -0.0251  0.3212
55689DPG1   GM179830   6.032  10.637  17.048 -0.1280 -0.1028 -0.0932
55689DPG1   GM279831   5.744  10.714  16.821 -0.1015  0.1840 -0.0307
55689DPG1   GM379832   5.719  10.558  17.117 -0.1669  0.0229 -0.1250
55689DPG1   GM479833   5.405  10.473  16.963  0.1278  0.2196  0.2874
55689DPG1   GM579834   5.430  10.638  17.322 -0.0096  0.4063  0.2120
55689DPG1   GM679835   5.216  10.533  17.139 -0.0481  0.0075  0.1736
55689DPG1   GM779836   5.015  10.301  17.273  0.2208 -0.1902  0.1099
55689DPG1   GM879837   5.140  10.692  17.593 -0.3962 -0.0654  0.2060
55689DPG1   GM979838   4.995  10.381  17.587 -0.1732  0.1222  0.0238
55689DPG1  GM1079839   4.721  10.142  17.569 -0.0009 -0.0786  0.0359
55689DPG1  GM1179840   4.676  10.520  17.677 -0.0830 -0.1591  0.2877
55689DPG1  GM1279841   4.618  10.260  17.788  0.0015 -0.2386  0.1236
55689DPG1  GM1379842   4.911  10.504  16.946 -0.1660  0.0070 -0.3330
55689DPG1  GM1479843   5.050  10.750  16.740 -0.2410  0.2316 -0.1181
55689DPG1  GM1579844   4.980  10.852  17.085 -0.3519 -0.0673 -0.0512
55689DPG1  GM1679845   4.934  11.050  16.794  0.3242  0.0045 -0.0376
55689DPG1  GM1779846   4.770  10.877  17.268  0.0107 -0.3404 -0.3237
55689DPG1   AM179847   6.287  10.732  16.663 -0.0083 -0.1941 -0.2795
55689DPG1   AM279848   6.406  11.088  16.681 -0.1282  0.0434 -0.1326
55689DPG1   T1A79849   6.430  10.722  16.196  0.1911  0.0075 -0.0359
55689DPG1   C2A79850   6.662  10.650  15.816  0.0383 -0.5036  0.0964
55689DPG1   C3A79851   6.990  10.620  15.538  0.0627 -0.0005  0.2010
55689DPG1   C1B79852   6.751  11.229  16.722  0.1383  0.0684 -0.2529
55689DPG1   C2B79853   7.073  11.388  16.525  0.0504 -0.2078  0.1153
55689DPG1   C3B79854   7.441  11.431  16.153  0.0074  0.1799  0.1963
55689DPG1   C4B79855   7.651  11.429  15.833 -0.1356  0.2521  0.2144
55690DPG1   GM179856  11.951  13.177  17.929  0.1688  0.0235 -0.2166
55690DPG1   GM279857  11.679  13.346  18.124  0.0919 -0.1632 -0.1615
55690DPG1   GM379858  11.896  13.132  18.252  0.2065 -0.0538 -0.2208
55690DPG1   GM479859  11.721  13.178  18.549  0.1029  0.2837 -0.0062
55690DPG1   GM579860  12.108  13.105  18.587  0.0985  0.1222 -0.2555
55690DPG1   GM679861  11.846  13.048  18.743  0.0586 -0.1048 -0.2316
55690DPG1   GM779862  11.684  12.779  18.819  0.2039  0.2129  0.5226
55690DPG1   GM879863  12.203  12.749  18.856  0.2335  0.1019  0.0457
55690DPG1   GM979864  11.930  12.553  18.888 -0.1847 -0.1343 -0.2541
55690DPG1  GM1079865  11.617  12.423  19.021 -0.1848  0.0778 -0.0436
55690DPG1  GM1179866  11.951  12.360  19.223 -0.3221 -0.0103  0.1575
55690DPG1  GM1279867  11.711  12.218  19.166 -0.1290  0.1574  0.0331
55690DPG1  GM1379868  11.571  13.067  18.979 -0.0426  0.1740  0.0688
55690DPG1  GM1479869  11.622  13.414  18.975  0.1334  0.1468 -0.0960
55690DPG1  GM1579870  11.909  13.211  19.083  0.0752  0.0447 -0.1328
55690DPG1  GM1679871  11.850  13.520  19.232 -0.0850  0.2014 -0.0460
55690DPG1  GM1779872  12.038  13.012  19.202  0.0329  0.0304 -0.0108
55690DPG1   AM179873  11.861  13.557  17.657 -0.1939 -0.1786 -0.0480
55690DPG1   AM279874  11.677  13.292  17.511 -0.1708 -0.0736 -0.0013
55690DPG1   T1A79875  11.931  13.692  17.206  0.2001 -0.0489 -0.0697
55690DPG1   C2A79876  12.114  13.571  16.783 -0.0050 -0.3419  0.1351
55690DPG1   C3A79877  12.059  13.886  16.375 -0.0346  0.1998 -0.0149
55690DPG1   C1B79878  11.756  13.169  17.158  0.0450  0.1358 -0.0600
55690DPG1   C2B79879  11.820  12.996  16.699  0.2075  0.2866  0.1924
55690DPG1   C3B79880  11.792  12.650  16.307 -0.0085  0.0387  0.1809
55690DPG1   C4B79881  11.598  12.775  15.885 -0.3149  0.1148 -0.1082
55691DPG1   GM179882  22.724   1.088  12.528  0.3309  0.0482 -0.1178
55691DPG1   GM279883  22.570   0.841  12.291  0.2029 -0.1063  0.1245
55691DPG1   GM379884  22.717   0.758  12.546 -0.0527  0.0578 -0.0577
55691DPG1   GM479885  22.570   0.461  12.439 -0.1537 -0.0168 -0.1038
55691DPG1   GM579886  22.695   0.536  12.807  0.2139 -0.0849 -0.2132
55691DPG1   GM679887  22.658   0.287  12.618  0.1255  0.0158 -0.2082
55691DPG1   GM779888  22.864   0.092  12.538 -0.1197  0.1103  0.3151
55691DPG1   GM879889  22.866   0.296  13.017 -0.3210  0.0496  0.3423
55691DPG1   GM979890  23.024   0.084  12.841  0.0292 -0.0108 -0.0613
55691DPG1  GM1079891  23.036  35.147  12.673  0.0650  0.0524 -0.1811
55691DPG1  GM1179892  22.880  35.164  13.035  0.2377 -0.1084 -0.0979
55691DPG1  GM1279893  23.155  35.064  12.899  0.2384 -0.0424 -0.3057
55691DPG1  GM1379894  22.553  35.343  12.513  0.0345  0.3274 -0.0635
55691DPG1  GM1479895  22.251   0.084  12.388 -0.2013 -0.1188  0.0456
55691DPG1  GM1579896  22.307   0.130  12.748 -0.1591 -0.0763  0.0338
55691DPG1  GM1679897  22.045   0.006  12.645  0.1648 -0.0094 -0.0042
55691DPG1  GM1779898  22.410   0.071  13.019 -0.1357 -0.3611  0.2222
55691DPG1   AM179899  22.549   1.281  12.120  0.0143  0.0378  0.3517
55691DPG1   AM279900  22.258   1.273  12.306  0.1104  0.0173  0.0105
55691DPG1   T1A79901  22.235   1.335  11.761  0.2880 -0.1434 -0.1117
55691DPG1   C2A79902  21.958   1.400  11.323  0.1622  0.1696 -0.1710
55691DPG1   C3A79903  21.644   1.277  11.026  0.2656  0.0503 -0.0633
55691DPG1   C1B79904  22.064   1.595  12.306  0.0367  0.1352  0.3793
55691DPG1   C2B79905  21.813   1.887  12.196  0.1460  0.0937  0.0388
55691DPG1   C3B79906  21.413   2.172  12.381 -0.1711 -0.0810  0.0621
55691DPG1   C4B79907  21.196   2.074  12.705 -0.0503  0.0949  0.3418
55692DPG1   GM179908  26.002   3.446  10.734  0.0733 -0.0326 -0.0541
55692DPG1   GM279909  26.259   3.687  10.605  0.0597 -0.1046 -0.2166
55692DPG1   GM379910  26.088   3.738  10.862 -0.2043 -0.0746  0.2357
55692DPG1   GM479911  26.278   4.030  10.857 -0.0561 -0.0309 -0.0231
55692DPG1   GM579912  26.151   3.848  11.185 -0.4291  0.3470  0.0470
55692DPG1   GM679913  26.190   4.143  11.080  0.1244  0.1012 -0.0176
55692DPG1   GM779914  25.938   4.348  11.053  0.2419  0.1488  0.4254
55692DPG1   GM879915  25.915   4.055  11.484 -0.0681 -0.1127  0.2337
55692DPG1   GM979916  25.765   4.287  11.346  0.0592  0.0236 -0.0154
55692DPG1  GM1079917  25.754   4.629  11.222 -0.1390  0.0183 -0.0146
55692DPG1  GM1179918  26.021   4.521  11.492 -0.0000 -0.0789 -0.1895
55692DPG1  GM1279919  25.829   4.701  11.469  0.0034 -0.2057  0.0093
55692DPG1  GM1379920  26.293   4.481  11.066 -0.0785 -0.3677  0.0685
55692DPG1  GM1479921  26.604   4.394  10.932  0.0571 -0.1363  0.2288
55692DPG1  GM1579922  26.538   4.275  11.272  0.0285 -0.0640  0.2487
55692DPG1  GM1679923  26.836   4.349  11.167  0.1483  0.0289  0.0692
55692DPG1  GM1779924  26.439   4.285  11.538  0.1707 -0.0397  0.0087
55692DPG1   AM179925  26.092   3.077  10.466 -0.0313  0.1320  0.0436
55692DPG1   AM279926  25.712   3.059  10.518  0.1481  0.0959  0.0112
55692DPG1   T1A79927  25.907   2.902  10.095 -0.2437  0.1013  0.1250
55692DPG1   C2A79928  25.513   2.897   9.925 -0.3264 -0.0689 -0.0818
55692DPG1   C3A79929  25.359   2.748   9.563 -0.4541 -0.1201  0.0221
55692DPG1   C1B79930  25.443   3.211  10.313  0.1056 -0.0350 -0.2339
55692DPG1   C2B79931  25.316   3.361   9.937  0.2332  0.0013  0.0749
55692DPG1   C3B79932  25.106   3.513   9.704  0.1076  0.0707 -0.1165
55692DPG1   C4B79933  24.959   3.603   9.266  0.2754  0.0287  0.4215
55693DPG1   GM179934  29.924   8.471   7.181  0.0382  0.1519 -0.0940
55693DPG1   GM279935  29.895   8.724   7.456  0.2251 -0.1514  0.2083
55693DPG1   GM379936  29.794   8.774   7.168 -0.3194  0.0028 -0.0336
55693DPG1   GM479937  29.742   9.090   7.306 -0.1447  0.0707  0.0421
55693DPG1   GM579938  29.513   8.952   7.013  0.0422  0.1171 -0.1273
55693DPG1   GM679939  29.556   9.213   7.162 -0.2275  0.1291  0.1970
55693DPG1   GM779940  29.682   9.453   6.971  0.1566  0.0142 -0.0495
55693DPG1   GM879941  29.358   9.122   6.733  0.0387  0.0991 -0.0075
55693DPG1   GM979942  29.526   9.370   6.685  0.2616 -0.1028  0.0106
55693DPG1  GM1079943  29.665   9.705   6.716  0.0461 -0.0143  0.0276
55693DPG1  GM1179944  29.276   9.669   6.772 -0.0001  0.0989 -0.2168
55693DPG1  GM1279945  29.448   9.786   6.582 -0.0853  0.0575  0.2819
55693DPG1  GM1379946  29.474   9.522   7.318 -0.0342  0.0775  0.1902
55693DPG1  GM1479947  29.428   9.341   7.614 -0.3015  0.0834  0.1537
55693DPG1  GM1579948  29.194   9.264   7.342 -0.0552  0.0759 -0.0577
55693DPG1  GM1679949  29.093   9.277   7.590 -0.3574 -0.0309  0.1580
55693DPG1  GM1779950  29.074   9.286   7.113 -0.0862 -0.2009  0.1320
55693DPG1   AM179951  30.388   8.391   7.336 -0.1361  0.0425 -0.0739
55693DPG1   AM279952  30.357   8.036   7.262 -0.0782 -0.4809 -0.1570
55693DPG1   T1A79953  30.861   8.347   7.207 -0.3294  0.2029 -0.1681
55693DPG1   C2A79954  31.179   8.237   7.011  0.2214  0.0206  0.1906
55693DPG1   C3A79955  31.417   8.008   6.728 -0.2156 -0.2810  0.0471
55693DPG1   C1B79956  30.589   7.870   7.016 -0.0448 -0.3454  0.3154
55693DPG1   C2B79957  30.859   7.548   6.803 -0.2679 -0.1790  0.1622
55693DPG1   C3B79958  31.043   7.339   6.489  0.1680  0.1821  0.1545
55693DPG1   C4B79959  31.311   7.346   6.204  0.1485  0.0414  0.0434
55694DPG1   GM179960   2.811  23.443  14.939 -0.0912  0.0251  0.0629
55694DPG1   GM279961   2.636  23.434  14.607 -0.0349  0.1450  0.0300
55694DPG1   GM379962   2.558  23.258  14.835 -0.1461  0.0340  0.1801
55694DPG1   GM479963   2.389  23.171  14.551  0.0989 -0.0467 -0.1635
55694DPG1   GM579964   2.315  22.993  14.897 -0.0962  0.2077 -0.0728
55694DPG1   GM679965   2.279  22.933  14.586 -0.2601  0.1531  0.0968
55694DPG1   GM779966   2.415  22.689  14.420  0.0042 -0.1859  0.1130
55694DPG1   GM879967   2.239  22.557  14.892  0.0372  0.1004  0.2066
55694DPG1   GM979968   2.413  22.450  14.649  0.1558  0.2538 -0.1265
55694DPG1  GM1079969   2.463  22.268  14.338  0.2194  0.0527  0.0006
55694DPG1  GM1179970   2.247  22.127  14.637  0.0683  0.3694  0.0427
55694DPG1  GM1279971   2.499  22.066  14.510 -0.0431  0.0467  0.0499
55694DPG1  GM1379972   2.109  22.873  14.269 -0.0657  0.0278 -0.2831
55694DPG1  GM1479973   1.938  23.171  14.334 -0.3626 -0.1742 -0.1292
55694DPG1  GM1579974   1.864  22.891  14.560  0.2466 -0.2368  0.0009
55694DPG1  GM1679975   1.641  23.107  14.412 -0.1551 -0.1136 -0.3265
55694DPG1  GM1779976   1.842  22.649  14.614  0.3834 -0.0612 -0.1809
55694DPG1   AM179977   3.196  23.595  14.738  0.3718  0.4381  0.2600
55694DPG1   AM279978   3.199  23.818  14.993 -0.3610 -0.1210 -0.0439
55694DPG1   T1A79979   3.366  23.741  14.328 -0.2145 -0.0991 -0.0145
55694DPG1   C2A79980   3.704  23.964  14.202  0.2640 -0.2304  0.3441
55694DPG1   C3A79981   3.768  24.174  13.901  0.0814 -0.0729  0.0115
55694DPG1   C1B79982   3.357  24.155  14.928 -0.1180  0.1514 -0.0950
55694DPG1   C2B79983   3.767  24.315  14.629  0.1754 -0.0962 -0.1804
55694DPG1   C3B79984   4.081  24.405  14.306 -0.0588 -0.2794  0.0484
55694DPG1   C4B79985   4.238  24.484  14.002 -0.0055 -0.0132 -0.0237
55695DPG1   GM179986   3.016  21.230  11.027 -0.1445 -0.1126 -0.0593
55695DPG1   GM279987   3.244  21.028  11.246 -0.2769 -0.1435  0.0511
55695DPG1   GM379988   2.935  20.962  11.202 -0.4201 -0.0689 -0.1167
55695DPG1   GM479989   3.072  20.691  11.402 -0.0857  0.0648  0.0630
55695DPG1   GM579990   2.724  20.700  11.213  0.0072  0.0547 -0.1099
55695DPG1   GM679991   2.866  20.525  11.421  0.0181 -0.1126 -0.3074
55695DPG1   GM779992   2.844  20.477  11.720 -0.0132  0.2812  0.0333
55695DPG1   GM879993   2.374  20.473  11.495  0.0198 -0.4857 -0.0351
55695DPG1   GM979994   2.502  20.496  11.781 -0.0268 -0.3080  0.1086
55695DPG1  GM1079995   2.678  20.413  12.089  0.0105 -0.0090  0.1692
55695DPG1  GM1179996   2.299  20.305  12.071 -0.0271  0.1155  0.2054
55695DPG1  GM1279997   2.479  20.484  12.254 -0.2439 -0.1489 -0.0744
55695DPG1  GM1379998   2.963  20.201  11.532  0.1846 -0.1262 -0.0349
55695DPG1  GM1479999   3.201  20.233  11.277  0.1038  0.3471 -0.0554
55695DPG1  GM1580000   2.851  20.208  11.168  0.1132 -0.0038 -0.0110
55695DPG1  GM1680001   3.074  20.026  11.043 -0.0598 -0.0942  0.2007
55695DPG1  GM1780002   2.582  20.165  11.207  0.3002  0.4574  0.2679
55695DPG1   AM180003   3.172  21.284  10.602  0.1249 -0.3735 -0.2122
55695DPG1   AM280004   3.387  21.045  10.724 -0.0288  0.0213  0.2476
55695DPG1   T1A80005   3.409  21.473  10.260  0.0790 -0.1222 -0.0310
55695DPG1   C2A80006   3.644  21.779  10.032  0.0015 -0.0110 -0.2416
55695DPG1   C3A80007   3.903  22.119   9.882  0.0548  0.2242 -0.0204
55695DPG1   C1B80008   3.716  20.917  10.581 -0.0707 -0.1783  0.2724
55695DPG1   C2B80009   4.079  21.007  10.338  0.2049 -0.1169  0.0779
55695DPG1   C3B80010   4.318  21.284  10.083 -0.1481  0.0534 -0.3423
55695DPG1   C4B80011   4.582  21.612   9.905  0.0040  0.1133  0.1284
55696DPG1   GM180012   3.538   2.121  16.276  0.1582 -0.1972  0.2652
55696DPG1   GM280013   3.265   2.204  16.519 -0.0149  0.0104  0.0009
55696DPG1   GM380014   3.556   2.347  16.516 -0.2650  0.1252 -0.0010
55696DPG1   GM480015   3.413   2.473  16.814  0.1345  0.1138  0.1508
55696DPG1   GM580016   3.756   2.609  16.671  0.1649 -0.0999  0.0188
55696DPG1   GM680017   3.617   2.591  16.935  0.2237  0.3355 -0.2063
55696DPG1   GM780018   3.713   2.386  17.159 -0.3052 -0.0073 -0.2090
55696DPG1   GM880019   4.057   2.609  16.837 -0.1049 -0.0414 -0.0188
55696DPG1   GM980020   4.034   2.414  17.104  0.0355  0.0298  0.2031
55696DPG1  GM1080021   4.031   2.284  17.444 -0.0259  0.1284  0.2408
55696DPG1  GM1180022   4.293   2.578  17.415  0.1163 -0.0231 -0.0317
55696DPG1  GM1280023   4.298   2.271  17.437 -0.0390 -0.0552  0.0363
55696DPG1  GM1380024   3.487   2.673  17.262 -0.0899 -0.0280 -0.1444
55696DPG1  GM1480025   3.333   2.942  17.099 -0.0478  0.1085  0.0385
55696DPG1  GM1580026   3.699   2.937  17.086 -0.0473  0.0778  0.0636
55696DPG1  GM1680027   3.516   3.220  17.162 -0.0139  0.4128 -0.2530
55696DPG1  GM1780028   3.939   2.896  17.227 -0.0392 -0.0197 -0.0465
55696DPG1   AM180029   3.255   1.706  16.273  0.1303  0.3235 -0.0913
55696DPG1   AM280030   3.562   1.615  16.135 -0.1067  0.1803 -0.0841
55696DPG1   T1A80031   3.204   1.375  15.891 -0.0522 -0.0737 -0.0894
55696DPG1   C2A80032   3.285   1.082  15.649 -0.1074 -0.0542  0.0876
55696DPG1   C3A80033   3.622   0.987  15.315 -0.2087  0.1183 -0.0891
55696DPG1   C1B80034   3.630   1.573  15.775  0.0545 -0.1785  0.4582
55696DPG1   C2B80035   3.803   1.392  15.482 -0.1888 -0.1855  0.2349
55696DPG1   C3B80036   3.956   1.418  15.137 -0.1767 -0.2477  0.4364
55696DPG1   C4B80037   4.160   1.795  14.852  0.2701 -0.0533  0.1453
55697DPG1   GM180038  34.910  14.002   7.110 -0.0657 -0.0410 -0.2046
55697DPG1   GM280039  34.693  13.717   7.223  0.2171 -0.1009  0.1985
55697DPG1   GM380040  34.582  13.996   7.069 -0.0556  0.2675 -0.3374
55697DPG1   GM480041  34.279  13.843   7.155 -0.0103 -0.3632 -0.2209
55697DPG1   GM580042  34.329  14.011   6.800 -0.2853  0.3036  0.0487
55697DPG1   GM680043  34.100  13.974   7.010  0.0117 -0.0497  0.0316
55697DPG1   GM780044  33.970  14.239   7.118  0.1146 -0.1181  0.1595
55697DPG1   GM880045  34.078  14.289   6.610  0.1215  0.0675  0.1791
55697DPG1   GM980046  33.893  14.410   6.834 -0.0651 -0.3167  0.4187
55697DPG1  GM1080047  33.596  14.448   7.042 -0.0742  0.2130  0.3148
55697DPG1  GM1180048  33.576  14.467   6.648 -0.0413 -0.0268  0.3010
55697DPG1  GM1280049  33.482  14.607   6.859  0.0815  0.1014  0.1186
55697DPG1  GM1380050  33.787  13.921   7.189  0.0652  0.2372 -0.0071
55697DPG1  GM1480051  33.812  13.574   7.152 -0.0152  0.2537 -0.2241
55697DPG1  GM1580052  33.764  13.765   6.842 -0.1544  0.4428 -0.0870
55697DPG1  GM1680053  33.564  13.542   6.887 -0.1813  0.1270 -0.5271
55697DPG1  GM1780054  33.717  13.975   6.718  0.0645 -0.1259  0.0645
55697DPG1   AM180055  35.227  13.677   7.187 -0.0382  0.0359  0.0609
55697DPG1   AM280056  35.038  13.391   7.109  0.0747  0.3586 -0.0229
55697DPG1   T1A80057   0.185  13.529   6.903 -0.0750 -0.0878  0.1652
55697DPG1   C2A80058   0.616  13.524   6.675 -0.1315 -0.0402  0.2373
55697DPG1   C3A80059   0.895  13.358   6.400  0.1081  0.2766 -0.1869
55697DPG1   C1B80060  35.175  13.206   6.826  0.1834  0.2071  0.0523
55697DPG1   C2B80061   0.093  13.179   6.520 -0.0381 -0.3525 -0.0888
55697DPG1   C3B80062   0.402  13.044   6.325 -0.0189 -0.0627 -0.3755
55697DPG1   C4B80063   0.534  12.677   6.106  0.0350  0.1487 -0.0592
55698DPG1   GM180064  28.639   7.315   7.726 -0.0670  0.0202 -0.0647
55698DPG1   GM280065  28.925   7.366   7.963 -0.1848  0.2322  0.0333
55698DPG1   GM380066  28.651   7.327   8.055  0.0336 -0.0239 -0.0663
55698DPG1   GM480067  28.801   7.434   8.350 -0.0278 -0.1309  0.0335
55698DPG1   GM580068  28.656   7.068   8.313  0.0357 -0.1538  0.0101
55698DPG1   GM680069  28.715   7.266   8.535  0.1442  0.0362  0.2675
55698DPG1   GM780070  28.491   7.383   8.741  0.1168 -0.0992 -0.0326
55698DPG1   GM880071  28.458   6.866   8.689 -0.2411 -0.0902  0.0914
55698DPG1   GM980072  28.360   7.094   8.882 -0.2651  0.2900 -0.1803
55698DPG1  GM1080073  28.353   7.316   9.171  0.0044  0.0146  0.0409
55698DPG1  GM1180074  28.581   6.995   9.143  0.0775  0.0705 -0.0036
55698DPG1  GM1280075  28.455   7.133   9.339  0.1426  0.2488  0.2154
55698DPG1  GM1380076  28.813   7.424   8.842 -0.1883  0.1621 -0.3465
55698DPG1  GM1480077  29.125   7.503   8.705 -0.0524 -0.0433 -0.1573
55698DPG1  GM1580078  29.060   7.146   8.761 -0.2984  0.0032 -0.1406
55698DPG1  GM1680079  29.366   7.283   8.837  0.3739  0.1288 -0.1798
55698DPG1  GM1780080  29.026   6.912   8.923  0.1119 -0.2387  0.0999
55698DPG1   AM180081  28.991   7.389   7.411  0.1422 -0.0150  0.1354
55698DPG1   AM280082  29.236   7.228   7.570  0.0206 -0.0137 -0.0567
55698DPG1   T1A80083  29.123   7.083   7.084 -0.3282  0.0297 -0.0159
55698DPG1   C2A80084  29.305   6.860   6.671  0.0858 -0.1370 -0.1122
55698DPG1   C3A80085  29.565   6.771   6.278 -0.0925 -0.1060 -0.0647
55698DPG1   C1B80086  29.480   7.002   7.416 -0.2997 -0.1716  0.2509
55698DPG1   C2B80087  29.663   6.784   7.042  0.2986  0.0294  0.1460
55698DPG1   C3B80088  29.774   6.616   6.734 -0.2197 -0.4310 -0.0224
55698DPG1   C4B80089  29.801   6.362   6.406  0.3727 -0.1656 -0.2929
55699DPG1   GM180090  14.960   9.401  18.284  0.1251  0.0237 -0.1782
55699DPG1   GM280091  14.672   9.218  18.438  0.1636 -0.1422 -0.3012
55699DPG1   GM380092  14.947   9.166  18.515  0.1428  0.0716 -0.1286
55699DPG1   GM480093  14.752   8.932  18.685 -0.1179  0.3590 -0.0818
55699DPG1   GM580094  15.004   9.189  18.850  0.0393  0.0165  0.2203
55699DPG1   GM680095  14.880   8.914  18.916 -0.0349  0.0193 -0.1512
55699DPG1   GM780096  15.039   8.657  18.961 -0.0858 -0.2774 -0.0397
55699DPG1   GM880097  15.270   9.092  19.129 -0.1869 -0.1133 -0.3218
55699DPG1   GM980098  15.331   8.795  19.077 -0.0572  0.1114 -0.0326
55699DPG1  GM1080099  15.255   8.463  19.204  0.0835  0.0146 -0.1996
55699DPG1  GM1180100  15.496   8.714  19.390 -0.1245 -0.0652  0.1825
55699DPG1  GM1280101  15.502   8.417  19.298 -0.1142  0.0526  0.3506
55699DPG1  GM1380102  14.711   8.657  19.124  0.1816  0.0993 -0.2476
55699DPG1  GM1480103  14.428   8.851  19.056  0.0493 -0.0088 -0.0119
55699DPG1  GM1580104  14.682   9.007  19.272 -0.0846 -0.1189  0.2263
55699DPG1  GM1680105  14.393   9.030  19.301  0.2021  0.3389 -0.0479
55699DPG1  GM1780106  14.888   8.986  19.447 -0.0590 -0.0548 -0.2433
55699DPG1   AM180107  14.635   9.648  18.086 -0.3395  0.3018  0.2051
55699DPG1   AM280108  14.447   9.362  17.978 -0.2470  0.0442 -0.0079
55699DPG1   T1A80109  14.641   9.794  17.634 -0.1926 -0.3505  0.2842
55699DPG1   C2A80110  14.406   9.700  17.289 -0.2676 -0.3035 -0.1956
55699DPG1   C3A80111  14.156   9.718  16.932  0.2235  0.1751  0.0272
55699DPG1   C1B80112  14.318   9.329  17.652  0.2867  0.1028  0.0513
55699DPG1   C2B80113  13.985   9.426  17.356  0.4063  0.0608 -0.3775
55699DPG1   C3B80114  13.747   9.477  16.971 -0.2426 -0.2761 -0.2608
55699DPG1   C4B80115  13.504   9.219  16.543  0.2128 -0.0633 -0.0299
55700DPG1   GM180116  12.240  16.753  18.852 -0.0531 -0.0660  0.1209
55700DPG1   GM280117  11.877  16.752  18.946 -0.1423 -0.0750 -0.2178
55700DPG1   GM380118  12.082  16.471  18.914 -0.1722  0.0056  0.1422
55700DPG1   GM480119  11.765  16.326  18.931 -0.0750  0.1815  0.1060
55700DPG1   GM580120  12.072  16.213  19.154  0.0379 -0.2128 -0.2411
55700DPG1   GM680121  11.799  16.107  19.077  0.0810  0.2742  0.2097
55700DPG1   GM780122  11.710  15.828  18.971  0.0770  0.0179 -0.0470
55700DPG1   GM880123  12.144  15.794  19.257  0.0940 -0.0866 -0.0854
55700DPG1   GM980124  11.962  15.649  19.078  0.0001  0.2762 -0.0200
55700DPG1  GM1080125  11.683  15.452  18.949  0.0382  0.1409  0.1024
55700DPG1  GM1180126  11.671  15.501  19.341  0.1300 -0.0597  0.1314
55700DPG1  GM1280127  11.704  15.261  19.136  0.1214 -0.1067 -0.1556
55700DPG1  GM1380128  11.450  15.985  19.156 -0.2964 -0.2381  0.1132
55700DPG1  GM1480129  11.386  16.321  19.228 -0.1742 -0.1903 -0.0006
55700DPG1  GM1580130  11.637  16.157  19.439 -0.2345 -0.2105  0.0553
55700DPG1  GM1680131  11.428  16.353  19.559 -0.0486 -0.3451 -0.3930
55700DPG1  GM1780132  11.783  15.971  19.573 -0.0288 -0.0796  0.0967
55700DPG1   AM180133  12.173  17.242  18.702  0.0121  0.1848  0.0044
55700DPG1   AM280134  12.562  17.159  18.788  0.0906 -0.0209  0.4140
55700DPG1   T1A80135  12.379  17.494  18.374 -0.0969 -0.2715 -0.2256
55700DPG1   C2A80136  12.537  17.793  17.945 -0.3035 -0.0839 -0.0573
55700DPG1   C3A80137  12.745  18.086  18.012 -0.0350  0.0715  0.0930
55700DPG1   C1B80138  12.844  17.407  18.736 -0.0725 -0.1541  0.0808
55700DPG1   C2B80139  12.850  17.701  18.321  0.1115 -0.1834  0.2352
55700DPG1   C3B80140  13.042  17.726  17.965  0.2702  0.0488  0.2271
55700DPG1   C4B80141  13.247  17.720  17.789 -0.1844  0.2481  0.2166
55701DPG1   GM180142  10.265  17.373  18.847 -0.0267  0.1447 -0.2187
55701DPG1   GM280143   9.959  17.238  18.678 -0.0280 -0.0717 -0.0469
55701DPG1   GM380144  10.156  17.061  18.851 -0.2076  0.2090 -0.0168
55701DPG1   GM480145   9.900  16.817  18.817 -0.0424 -0.1311 -0.0116
55701DPG1   GM580146  10.226  16.812  19.042  0.0244  0.2946 -0.0946
55701DPG1   GM680147  10.024  16.615  18.936  0.2431 -0.0140 -0.1064
55701DPG1   GM780148  10.061  16.343  18.740  0.1925 -0.1458  0.0285
55701DPG1   GM880149  10.480  16.435  19.036 -0.1256  0.4008  0.3168
55701DPG1   GM980150  10.363  16.263  18.817 -0.3601  0.0726  0.1187
55701DPG1  GM1080151  10.229  15.957  18.672  0.1048 -0.0694 -0.0214
55701DPG1  GM1180152  10.285  15.967  19.063  0.1502  0.2895 -0.0354
55701DPG1  GM1280153  10.391  15.825  18.840 -0.1690 -0.3979 -0.0118
55701DPG1  GM1380154   9.773  16.350  18.983  0.0899  0.0589 -0.0078
55701DPG1  GM1480155   9.579  16.560  19.185 -0.0280 -0.0847  0.0299
55701DPG1  GM1580156   9.917  16.488  19.307 -0.0836 -0.1362  0.1544
55701DPG1  GM1680157   9.684  16.535  19.500 -0.1275  0.2383  0.0999
55701DPG1  GM1780158  10.129  16.333  19.353  0.1548 -0.0317 -0.1226
55701DPG1   AM180159  10.371  17.705  18.508  0.0373 -0.0404  0.2666
55701DPG1   AM280160  10.295  17.892  18.795  0.0837 -0.1853  0.2133
55701DPG1   T1A80161  10.490  18.116  18.302 -0.1794  0.1256  0.0748
55701DPG1   C2A80162  10.747  18.532  18.184 -0.5607  0.0755  0.1268
55701DPG1   C3A80163  10.998  18.727  17.966  0.1007  0.1928  0.0690
55701DPG1   C1B80164  10.142  18.230  18.752  0.0986  0.0608  0.1246
55701DPG1   C2B80165  10.054  18.431  18.465  0.1625  0.0539  0.0896
55701DPG1   C3B80166  10.123  18.839  18.326  0.2574 -0.1143 -0.0819
55701DPG1   C4B80167  10.107  19.143  17.944  0.0633  0.0423 -0.0064
55702DPG1   GM180168  18.277  16.557  18.029 -0.0241  0.0709  0.1143
55702DPG1   GM280169  18.189  16.759  18.333  0.1630 -0.1117  0.2910
55702DPG1   GM380170  18.256  16.884  18.066  0.2834  0.1192 -0.1206
55702DPG1   GM480171  18.186  17.122  18.290 -0.0250 -0.0934  0.1612
55702DPG1   GM580172  18.096  17.178  17.908  0.0791 -0.1306  0.1311
55702DPG1   GM680173  18.110  17.356  18.191  0.0382 -0.1234  0.0418
55702DPG1   GM780174  18.336  17.602  18.254  0.0196  0.0234 -0.1653
55702DPG1   GM880175  18.115  17.624  17.783 -0.3869 -0.4319 -0.0005
55702DPG1   GM980176  18.336  17.772  17.962 -0.1714 -0.2863  0.0961
55702DPG1  GM1080177  18.525  17.929  18.231 -0.0395 -0.1061 -0.1014
55702DPG1  GM1180178  18.158  18.038  18.134 -0.1024  0.0638  0.3200
55702DPG1  GM1280179  18.417  18.169  18.179  0.4449  0.0946 -0.2147
55702DPG1  GM1380180  18.010  17.590  18.467 -0.1229  0.0443  0.1006
55702DPG1  GM1480181  17.766  17.346  18.524 -0.0667 -0.0139  0.0896
55702DPG1  GM1580182  17.736  17.532  18.209 -0.0647 -0.0599  0.0620
55702DPG1  GM1680183  17.498  17.403  18.370  0.2130 -0.0322  0.2921
55702DPG1  GM1780184  17.749  17.780  18.086 -0.0113 -0.0789  0.2438
55702DPG1   AM180185  17.869  16.497  17.814  0.1856  0.1336 -0.0676
55702DPG1   AM280186  17.927  16.808  17.679 -0.2998 -0.0089  0.1819
55702DPG1   T1A80187  17.776  16.327  17.379  0.0756  0.0264 -0.1298
55702DPG1   C2A80188  17.759  16.472  17.039  0.2668 -0.0086 -0.1520
55702DPG1   C3A80189  17.854  16.587  16.679 -0.0804 -0.2080 -0.0712
55702DPG1   C1B80190  17.724  16.877  17.374 -0.1812 -0.0200  0.0068
55702DPG1   C2B80191  17.522  16.936  17.038 -0.3358  0.1029 -0.0264
55702DPG1   C3B80192  17.356  16.859  16.705  0.2784  0.3759  0.1042
55702DPG1   C4B80193  17.466  16.700  16.389  0.0394  0.0710 -0.1018
55703DPG1   GM180194  11.002  11.361  18.660 -0.1929  0.1703 -0.2037
55703DPG1   GM280195  11.025  11.713  18.532 -0.2345  0.2635  0.0442
55703DPG1   GM380196  10.832  11.635  18.728 -0.2382  0.0791  0.0527
55703DPG1   GM480197  10.733  11.966  18.667  0.2290 -0.1882  0.0612
55703DPG1   GM580198  10.669  11.737  18.983  0.2991 -0.2649  0.0195
55703DPG1   GM680199  10.527  11.969  18.833  0.0740 -0.1824 -0.1296
55703DPG1   GM780200  10.233  11.956  18.673  0.0346  0.0011 -0.0766
55703DPG1   GM880201  10.252  11.635  19.083  0.0035  0.0063 -0.0712
55703DPG1   GM980202  10.050  11.713  18.848 -0.0518  0.2106  0.0756
55703DPG1  GM1080203   9.798  11.893  18.657  0.1130  0.4547  0.0853
55703DPG1  GM1180204   9.776  11.904  19.051 -0.1581 -0.3119  0.0995
55703DPG1  GM1280205   9.640  11.756  18.823 -0.2641  0.4373 -0.2789
55703DPG1  GM1380206  10.389  12.289  18.797 -0.1888 -0.2366  0.0878
55703DPG1  GM1480207  10.675  12.389  18.972 -0.2391  0.1476 -0.0450
55703DPG1  GM1580208  10.450  12.159  19.150  0.1118 -0.0966  0.0883
55703DPG1  GM1680209  10.642  12.291  19.281  0.0293  0.2944 -0.3932
55703DPG1  GM1780210  10.188  12.125  19.212 -0.1765  0.0099  0.0002
55703DPG1   AM180211  11.430  11.207  18.619 -0.1467 -0.0373 -0.3437
55703DPG1   AM280212  11.417  11.466  18.347 -0.2717  0.0218 -0.2240
55703DPG1   T1A80213  11.838  11.003  18.623  0.0451  0.2098  0.3085
55703DPG1   C2A80214  11.849  10.597  18.385  0.1028  0.1253 -0.0508
55703DPG1   C3A80215  11.829  10.154  18.464 -0.1652  0.5571 -0.0224
55703DPG1   C1B80216  11.422  11.397  17.982  0.0226  0.0447  0.1128
55703DPG1   C2B80217  11.683  11.378  17.631  0.1072  0.0566  0.0658
55703DPG1   C3B80218  11.894  11.319  17.294  0.0715  0.3556  0.2465
55703DPG1   C4B80219  12.203  11.258  17.053  0.2205 -0.0142 -0.0716
55704DPG3   GM180220   3.451  20.264  13.008  0.1818 -0.1508 -0.2265
55704DPG3   GM280221   3.466  19.894  12.950  0.0359 -0.1903 -0.0175
55704DPG3   GM380222   3.187  20.066  13.011 -0.0563  0.1633  0.1587
55704DPG3   GM480223   3.090  19.714  13.019  0.0243  0.1440  0.3880
55704DPG3   GM580224   2.859  20.012  12.898 -0.3168 -0.2895 -0.0479
55704DPG3   GM680225   2.831  19.709  12.964  0.1473 -0.2448 -0.1918
55704DPG3  GM1380226   2.776  19.359  12.904 -0.0276  0.0731 -0.1383
55704DPG3  GM1480227   2.971  19.403  12.617 -0.0655  0.0347 -0.1701
55704DPG3  GM1580228   2.665  19.604  12.635  0.0366  0.1823 -0.0653
55704DPG3  GM1680229   2.772  19.443  12.345 -0.0919 -0.1371  0.3023
55704DPG3  GM1780230   2.420  19.638  12.659 -0.1964  0.2563 -0.0830
55704DPG3   AM180231   3.737  20.565  13.243 -0.0275 -0.3666  0.1524
55704DPG3   AM280232   3.772  20.737  12.903 -0.0749 -0.0461  0.2863
55704DPG3   T1A80233   4.119  20.639  13.508 -0.1157  0.0831 -0.0716
55704DPG3   C2A80234   4.578  20.746  13.454 -0.1632  0.0769 -0.0541
55704DPG3   C3A80235   4.978  20.789  13.227  0.0024  0.0254  0.0458
55704DPG3   C1B80236   4.121  20.835  12.889 -0.1879  0.1638 -0.3876
55704DPG3   C2B80237   4.586  20.895  12.827 -0.1253 -0.0315 -0.0069
55704DPG3   C3B80238   4.988  20.673  12.713 -0.4069  0.0855  0.3235
55704DPG3   C4B80239   5.372  20.506  12.739 -0.1494  0.1359 -0.1616
55705DPG3   GM180240   2.552  21.865  11.556  0.0255  0.0106  0.2129
55705DPG3   GM280241   2.314  21.954  11.832 -0.4282 -0.0566 -0.1513
55705DPG3   GM380242   2.357  21.660  11.725 -0.1575 -0.1483 -0.1861
55705DPG3   GM480243   2.123  21.598  11.991 -0.0690 -0.0763  0.0109
55705DPG3   GM580244   2.318  21.309  11.804  0.0802  0.0682 -0.0579
55705DPG3   GM680245   2.037  21.348  11.972 -0.2450 -0.0238  0.1074
55705DPG3  GM1380246   1.757  21.353  12.203 -0.1611  0.2578  0.3845
55705DPG3  GM1480247   1.979  21.481  12.441  0.0952  0.1432  0.2099
55705DPG3  GM1580248   2.062  21.150  12.307 -0.1513  0.1242  0.1009
55705DPG3  GM1680249   2.108  21.205  12.612 -0.2682 -0.2200  0.2474
55705DPG3  GM1780250   1.974  20.908  12.254  0.0533 -0.1056 -0.0360
55705DPG3   AM180251   2.838  22.265  11.540 -0.0066  0.2189  0.1874
55705DPG3   AM280252   2.994  22.189  11.886  0.1287 -0.2365  0.0423
55705DPG3   T1A80253   3.242  22.454  11.548  0.4655  0.0391 -0.1234
55705DPG3   C2A80254   3.535  22.609  11.340 -0.0757 -0.2311 -0.2608
55705DPG3   C3A80255   3.885  22.659  11.147  0.3661  0.0885  0.0351
55705DPG3   C1B80256   3.325  22.266  12.012 -0.0334  0.0839  0.0983
55705DPG3   C2B80257   3.776  22.347  11.900 -0.1439 -0.1852  0.3198
55705DPG3   C3B80258   3.997  22.591  11.638  0.0419 -0.0981  0.0040
55705DPG3   C4B80259   4.215  22.977  11.582  0.1255  0.0375  0.2363
55706DPG3   GM180260  26.263  25.663   7.720 -0.0807 -0.2287  0.0192
55706DPG3   GM280261  26.038  25.874   7.933 -0.0488 -0.0936 -0.0804
55706DPG3   GM380262  26.277  25.742   8.040  0.3037 -0.0112 -0.0480
55706DPG3   GM480263  26.112  25.934   8.290  0.1793 -0.1104  0.0335
55706DPG3   GM580264  26.482  25.795   8.309  0.2257  0.0113  0.0178
55706DPG3   GM680265  26.268  25.950   8.503  0.0327  0.2901  0.1142
55706DPG3  GM1380266  26.151  26.255   8.669  0.1618 -0.2109 -0.3005
55706DPG3  GM1480267  26.247  26.405   8.368  0.2466  0.1347 -0.1035
55706DPG3  GM1580268  26.518  26.257   8.567  0.2155  0.0701 -0.1089
55706DPG3  GM1680269  26.529  26.550   8.454  0.2352 -0.2478 -0.2693
55706DPG3  GM1780270  26.654  26.227   8.788  0.0321  0.2550  0.2299
55706DPG3   AM180271  25.896  25.753   7.447  0.1881  0.0261  0.2102
55706DPG3   AM280272  26.124  26.056   7.409 -0.3136 -0.4318  0.1013
55706DPG3   T1A80273  25.598  26.083   7.268  0.2576  0.1446 -0.1067
55706DPG3   C2A80274  25.279  26.303   6.984 -0.2160 -0.0463  0.0018
55706DPG3   C3A80275  25.069  26.602   6.865  0.0771 -0.1219  0.0060
55706DPG3   C1B80276  26.021  26.388   7.269  0.0932  0.2133 -0.2131
55706DPG3   C2B80277  25.781  26.553   7.017 -0.0124  0.2607 -0.1496
55706DPG3   C3B80278  25.589  26.550   6.674  0.0679 -0.2618  0.1311
55706DPG3   C4B80279  25.440  26.851   6.438  0.1503 -0.1793 -0.0998
55707DPG3   GM180280  32.930  22.607   5.918  0.2081 -0.0584  0.1048
55707DPG3   GM280281  33.100  22.341   6.120  0.1698 -0.1650 -0.0032
55707DPG3   GM380282  32.813  22.439   6.176  0.2672 -0.2525  0.0058
55707DPG3   GM480283  32.839  22.147   6.375  0.0693 -0.3523  0.1265
55707DPG3   GM580284  32.569  22.184   6.088  0.0541 -0.1239  0.1692
55707DPG3   GM680285  32.597  22.040   6.364 -0.0302 -0.1574  0.3624
55707DPG3  GM1380286  32.580  21.765   6.570 -0.2600  0.0331 -0.0501
55707DPG3  GM1480287  32.845  21.666   6.364 -0.1481  0.1607  0.0330
55707DPG3  GM1580288  32.516  21.688   6.203 -0.1138 -0.0278 -0.0634
55707DPG3  GM1680289  32.746  21.400   6.177 -0.1632  0.2009  0.2225
55707DPG3  GM1780290  32.264  21.610   6.181 -0.2761 -0.1814 -0.0269
55707DPG3   AM180291  33.250  22.537   5.596 -0.0854  0.0690 -0.0961
55707DPG3   AM280292  33.401  22.727   5.844 -0.1735 -0.1136  0.0448
55707DPG3   T1A80293  33.547  22.771   5.304  0.2886 -0.2180  0.1180
55707DPG3   C2A80294  33.834  22.868   4.950 -0.2037  0.1451  0.0431
55707DPG3   C3A80295  34.162  22.916   4.677 -0.1400  0.1038  0.2221
55707DPG3   C1B80296  33.510  23.072   5.931 -0.2277 -0.1625  0.0120
55707DPG3   C2B80297  33.841  23.383   5.814 -0.0598  0.0934 -0.0523
55707DPG3   C3B80298  34.077  23.600   5.576 -0.2170 -0.0203 -0.1712
55707DPG3   C4B80299  34.396  23.690   5.369  0.0529 -0.2107  0.0690
55708DPG3   GM180300  11.914  15.412  18.561  0.1154  0.0062  0.0444
55708DPG3   GM280301  12.248  15.540  18.449  0.0826 -0.0601 -0.1304
55708DPG3   GM380302  12.187  15.424  18.746  0.0668 -0.2474  0.1353
55708DPG3   GM480303  12.485  15.585  18.796 -0.1301 -0.0007  0.1709
55708DPG3   GM580304  12.346  15.297  19.030  0.0669 -0.2445 -0.0097
55708DPG3   GM680305  12.591  15.526  19.031  0.0000  0.0149  0.1166
55708DPG3  GM1380306  12.927  15.668  19.026  0.0052 -0.0826  0.0377
55708DPG3  GM1480307  12.946  15.531  18.705 -0.1073  0.2638 -0.1193
55708DPG3  GM1580308  12.906  15.290  18.979  0.0547 -0.0381 -0.3568
55708DPG3  GM1680309  13.094  15.238  18.731  0.1937 -0.0473 -0.0667
55708DPG3  GM1780310  12.986  15.212  19.235 -0.2798 -0.0796 -0.1666
55708DPG3   AM180311  11.786  15.679  18.132 -0.2614 -0.1263 -0.1964
55708DPG3   AM280312  11.797  15.344  17.984  0.1040  0.0749 -0.3840
55708DPG3   T1A80313  11.867  15.851  17.694 -0.0096  0.0336  0.3782
55708DPG3   C2A80314  12.011  16.033  17.298  0.0223 -0.3812  0.1686
55708DPG3   C3A80315  12.305  15.951  16.973 -0.0925  0.0105 -0.1071
55708DPG3   C1B80316  11.833  15.271  17.634  0.3212  0.1666 -0.0744
55708DPG3   C2B80317  11.516  15.330  17.279  0.1915  0.1071  0.1326
55708DPG3   C3B80318  11.595  15.296  16.835  0.0794  0.4235  0.0219
55708DPG3   C4B80319  11.639  15.529  16.527  0.2133  0.2093  0.1041
55709DPG3   GM180320  10.364  18.504  19.999 -0.3233  0.2139 -0.2192
55709DPG3   GM280321  10.457  18.317  19.688  0.0359  0.0273 -0.0038
55709DPG3   GM380322  10.292  18.191  19.923 -0.0481  0.0659  0.1146
55709DPG3   GM480323  10.308  17.903  19.719  0.1294  0.0225 -0.0335
55709DPG3   GM580324  10.056  17.984  20.014  0.0497  0.0679 -0.1139
55709DPG3   GM680325  10.209  17.724  19.888 -0.0795  0.1838  0.0164
55709DPG3  GM1380326  10.279  17.400  19.753 -0.0704 -0.0476 -0.0649
55709DPG3  GM1480327  10.019  17.493  19.538 -0.0569 -0.1428 -0.1227
55709DPG3  GM1580328   9.931  17.467  19.893 -0.0803  0.0091 -0.1170
55709DPG3  GM1680329   9.758  17.388  19.620  0.1669  0.0525 -0.2175
55709DPG3  GM1780330   9.868  17.348  20.118 -0.0638  0.0575 -0.1774
55709DPG3   AM180331  10.336  18.982  19.949  0.1099 -0.2564 -0.2377
55709DPG3   AM280332   9.984  18.954  19.895  0.1306  0.0246  0.0190
55709DPG3   T1A80333  10.219  19.440  19.837  0.0134 -0.3093  0.0864
55709DPG3   C2A80334  10.201  19.834  19.683 -0.1048  0.0980 -0.0331
55709DPG3   C3A80335   9.860  19.970  19.463 -0.0054 -0.0303  0.2419
55709DPG3   C1B80336   9.767  19.251  19.782  0.0272 -0.2688 -0.0511
55709DPG3   C2B80337   9.719  19.630  19.815 -0.1951 -0.3133 -0.2384
55709DPG3   C3B80338   9.373  20.023  19.867  0.1069  0.2247  0.1127
55709DPG3   C4B80339   9.248  20.151  20.246  0.2853  0.0085  0.1077
55710DPG3   GM180340  28.466  19.068   3.896 -0.0029  0.1170  0.0503
55710DPG3   GM280341  28.414  19.436   3.941  0.0047  0.1531 -0.2254
55710DPG3   GM380342  28.410  19.230   4.178 -0.0376  0.1985 -0.0034
55710DPG3   GM480343  28.281  19.528   4.324 -0.2406 -0.1681  0.1808
55710DPG3   GM580344  28.556  19.295   4.489  0.0408 -0.0954 -0.1785
55710DPG3   GM680345  28.358  19.526   4.578  0.1925 -0.0697  0.0554
55710DPG3  GM1380346  28.263  19.855   4.703 -0.0918 -0.3128 -0.3213
55710DPG3  GM1480347  28.527  19.976   4.507  0.0365  0.2705  0.1963
55710DPG3  GM1580348  28.619  19.736   4.769 -0.0281  0.0626  0.0303
55710DPG3  GM1680349  28.777  20.015   4.701  0.0695 -0.1009 -0.0789
55710DPG3  GM1780350  28.604  19.620   5.054  0.1864  0.0569  0.0778
55710DPG3   AM180351  28.140  18.853   3.621 -0.2220 -0.0349 -0.2502
55710DPG3   AM280352  28.164  19.216   3.469 -0.0524  0.4278 -0.1546
55710DPG3   T1A80353  27.933  18.779   3.214  0.0431 -0.2305  0.0321
55710DPG3   C2A80354  27.791  18.672   2.758  0.2531  0.1659  0.1367
55710DPG3   C3A80355  27.472  18.771   2.457  0.0866  0.2157 -0.0041
55710DPG3   C1B80356  28.184  19.281   3.107  0.0056 -0.1911 -0.0551
55710DPG3   C2B80357  28.159  19.282   2.673 -0.2704  0.2503  0.5319
55710DPG3   C3B80358  28.391  19.406   2.240 -0.1386  0.0509  0.0775
55710DPG3   C4B80359  28.563  19.453   1.834  0.1007 -0.5642  0.2554
55711DPG3   GM180360   2.859  19.564  10.778  0.0407 -0.1081  0.0678
55711DPG3   GM280361   2.534  19.719  10.882  0.0500 -0.1536  0.1646
55711DPG3   GM380362   2.613  19.646  10.574  0.0859 -0.1548 -0.0053
55711DPG3   GM480363   2.331  19.822  10.489 -0.1398 -0.0678 -0.0462
55711DPG3   GM580364   2.343  19.438  10.390 -0.0065 -0.1500  0.2795
55711DPG3   GM680365   2.169  19.693  10.323 -0.1722  0.1332 -0.1736
55711DPG3  GM1380366   1.948  19.943  10.216 -0.2915 -0.0732 -0.0354
55711DPG3  GM1480367   1.865  19.945  10.556  0.0563 -0.1038  0.0513
55711DPG3  GM1580368   1.811  19.627  10.380 -0.1073 -0.0932  0.0817
55711DPG3  GM1680369   1.613  19.720  10.599 -0.4148  0.0336  0.1991
55711DPG3  GM1780370   1.728  19.467  10.177  0.0134  0.0410  0.0283
55711DPG3   AM180371   3.184  19.368  11.050  0.0681  0.1852 -0.2240
55711DPG3   AM280372   3.419  19.624  10.923 -0.0298 -0.1174  0.0243
55711DPG3   T1A80373   3.574  19.166  10.954  0.2257  0.0359  0.1167
55711DPG3   C2A80374   4.115  19.242  10.791 -0.0593  0.2788  0.1999
55711DPG3   C3A80375   4.411  19.131  10.544  0.0919  0.0954  0.0836
55711DPG3   C1B80376   3.742  19.601  10.740 -0.2455  0.0329 -0.1394
55711DPG3   C2B80377   4.231  19.723  10.660 -0.1867 -0.1377 -0.0336
55711DPG3   C3B80378   4.588  19.595  10.558 -0.2406 -0.0422 -0.2122
55711DPG3   C4B80379   4.908  19.408  10.416 -0.0243  0.2238  0.0436
55712DPG3   GM180380   2.598  21.002   9.968 -0.0309 -0.2923 -0.3394
55712DPG3   GM280381   2.529  20.725  10.210 -0.0716 -0.0842 -0.1106
55712DPG3   GM380382   2.363  21.017  10.199  0.2606 -0.0296 -0.0560
55712DPG3   GM480383   2.263  20.854  10.492  0.1130  0.0989 -0.0452
55712DPG3   GM580384   2.071  21.153  10.317  0.1576  0.0831 -0.1215
55712DPG3   GM680385   2.107  21.038  10.601  0.0537 -0.0397  0.1062
55712DPG3  GM1380386   1.944  20.874  10.889 -0.1111 -0.1601  0.2682
55712DPG3  GM1480387   1.743  20.683  10.676  0.1734 -0.0158 -0.1347
55712DPG3  GM1580388   1.681  21.045  10.673  0.0723 -0.0300  0.1457
55712DPG3  GM1680389   1.443  20.798  10.618  0.3663  0.0150  0.0754
55712DPG3  GM1780390   1.641  21.286  10.742 -0.2677 -0.0952  0.4098
55712DPG3   AM180391   2.958  20.669  10.013 -0.1614 -0.0126  0.0185
55712DPG3   AM280392   3.187  20.943  10.190  0.3111 -0.0211 -0.0870
55712DPG3   T1A80393   3.395  20.662   9.771  0.3290 -0.1313  0.0028
55712DPG3   C2A80394   3.771  20.941   9.662  0.1465  0.0653 -0.1210
55712DPG3   C3A80395   4.124  21.221   9.509  0.3669  0.0689  0.1026
55712DPG3   C1B80396   3.532  21.034  10.084  0.1241  0.0862 -0.0093
55712DPG3   C2B80397   3.826  21.288   9.988  0.1422 -0.0363  0.1708
55712DPG3   C3B80398   4.110  21.608   9.811  0.2668 -0.2105 -0.1452
55712DPG3   C4B80399   4.379  22.006   9.631  0.1674 -0.0335  0.0109
55713DPG3   GM180400   1.706  22.614  10.739 -0.0538 -0.0104  0.1836
55713DPG3   GM280401   1.677  22.724  11.097  0.3961  0.2907  0.1315
55713DPG3   GM380402   1.629  22.421  10.995 -0.1678  0.1154  0.2453
55713DPG3   GM480403   1.553  22.391  11.343 -0.1567 -0.0669  0.2237
55713DPG3   GM580404   1.781  22.126  11.157 -0.0323 -0.0186  0.3072
55713DPG3   GM680405   1.569  22.134  11.402 -0.2788 -0.1313 -0.0175
55713DPG3  GM1380406   1.470  22.060  11.756  0.0127  0.1388  0.0493
55713DPG3  GM1480407   1.642  22.360  11.807  0.0523  0.1564 -0.1799
55713DPG3  GM1580408   1.843  22.080  11.680  0.0014  0.0513 -0.0306
55713DPG3  GM1680409   1.938  22.291  11.897 -0.1412 -0.1508  0.2476
55713DPG3  GM1780410   1.892  21.824  11.608  0.0577 -0.3005 -0.3008
55713DPG3   AM180411   1.774  23.081  10.535  0.0392 -0.0424  0.0834
55713DPG3   AM280412   1.713  23.155  10.885  0.1625 -0.1107 -0.3679
55713DPG3   T1A80413   2.150  23.328  10.379  0.1830 -0.2050 -0.0776
55713DPG3   C2A80414   2.384  23.547  10.128 -0.4050 -0.0927  0.1494
55713DPG3   C3A80415   2.530  23.958  10.310 -0.0054 -0.1162  0.1889
55713DPG3   C1B80416   1.853  23.374  11.100  0.2788  0.0810  0.2682
55713DPG3   C2B80417   2.197  23.751  10.934 -0.4630  0.0875  0.2889
55713DPG3   C3B80418   2.595  24.012  10.895 -0.0988 -0.2518 -0.0646
55713DPG3   C4B80419   2.944  24.272  10.771 -0.2502 -0.1700 -0.2311
55714DPG3   GM180420   2.039   6.971  13.454 -0.0474  0.0411  0.1457
55714DPG3   GM280421   2.061   7.131  13.792  0.0268  0.1305  0.0987
55714DPG3   GM380422   1.917   6.856  13.739 -0.0633  0.0303  0.1345
55714DPG3   GM480423   1.834   6.901  14.071 -0.1786  0.3691 -0.0069
55714DPG3   GM580424   1.826   6.522  13.958  0.1016  0.2931  0.2194
55714DPG3   GM680425   1.679   6.709  14.168  0.1793  0.1883  0.2192
55714DPG3  GM1380426   1.606   6.809  14.519  0.1128  0.1531 -0.2148
55714DPG3  GM1480427   1.953   6.779  14.553  0.0285 -0.2753  0.3403
55714DPG3  GM1580428   1.768   6.464  14.512 -0.2816 -0.0372 -0.1458
55714DPG3  GM1680429   1.941   6.558  14.843 -0.1497  0.1051  0.0989
55714DPG3  GM1780430   1.572   6.270  14.577  0.0830  0.1223 -0.3378
55714DPG3   AM180431   2.263   7.315  13.190 -0.0774 -0.0780 -0.2074
55714DPG3   AM280432   2.429   7.324  13.497 -0.3700  0.0560 -0.0039
55714DPG3   T1A80433   2.591   7.320  12.805 -0.0195  0.0855 -0.0114
55714DPG3   C2A80434   3.100   7.367  12.670 -0.1461  0.0441 -0.1228
55714DPG3   C3A80435   3.446   7.251  12.465 -0.0033 -0.0914  0.3612
55714DPG3   C1B80436   2.788   7.392  13.464  0.3644 -0.1674 -0.3660
55714DPG3   C2B80437   3.166   7.259  13.252 -0.2412  0.2338 -0.1242
55714DPG3   C3B80438   3.516   7.300  13.002  0.3596 -0.0995  0.3723
55714DPG3   C4B80439   3.872   7.246  12.851 -0.1071 -0.1768 -0.1576
55715DPG3   GM180440  34.664  11.642   8.070 -0.0924 -0.1608  0.2312
55715DPG3   GM280441  34.617  12.003   8.160 -0.0962 -0.0943 -0.0335
55715DPG3   GM380442  34.369  11.789   8.079  0.2017  0.4586  0.0622
55715DPG3   GM480443  34.198  12.068   8.208 -0.2310  0.1266 -0.2955
55715DPG3   GM580444  34.058  11.700   8.250 -0.3628  0.2369  0.2773
55715DPG3   GM680445  33.946  11.997   8.247 -0.1099  0.0121  0.3336
55715DPG3  GM1380446  33.782  12.301   8.342 -0.1134  0.0107  0.2744
55715DPG3  GM1480447  34.009  12.299   8.609 -0.1547  0.0669  0.3103
55715DPG3  GM1580448  33.772  12.019   8.599  0.0921 -0.1386  0.1197
55715DPG3  GM1680449  33.848  12.198   8.866  0.3136 -0.0250 -0.0720
55715DPG3  GM1780450  33.520  11.901   8.579 -0.0151  0.3761  0.2143
55715DPG3   AM180451  34.962  11.323   8.196 -0.2873 -0.0407 -0.0669
55715DPG3   AM280452  34.700  11.136   8.030  0.1331  0.0301  0.2036
55715DPG3   T1A80453  35.227  10.956   8.060 -0.1508 -0.1509  0.1805
55715DPG3   C2A80454   0.158  10.716   7.819 -0.0460  0.0947 -0.2643
55715DPG3   C3A80455   0.500  10.663   7.546  0.1332 -0.0530 -0.2087
55715DPG3   C1B80456  34.712  10.991   7.702 -0.1730  0.1991  0.0129
55715DPG3   C2B80457  34.958  10.768   7.496 -0.1369 -0.1961 -0.0170
55715DPG3   C3B80458  35.256  10.543   7.346 -0.1958 -0.2052  0.2070
55715DPG3   C4B80459  35.165  10.213   7.136 -0.0870 -0.0479 -0.0774
55716DPG3   GM180460  14.343   3.840  17.178  0.0217 -0.1485  0.0032
55716DPG3   GM280461  13.999   3.942  17.070 -0.0251 -0.2284  0.0759
55716DPG3   GM380462  14.158   4.054  17.348 -0.1548 -0.1346 -0.2038
55716DPG3   GM480463  13.815   4.119  17.440  0.0396 -0.1189  0.2069
55716DPG3   GM580464  14.092   4.368  17.574  0.0787  0.0405 -0.1649
55716DPG3   GM680465  13.832   4.225  17.682  0.1742  0.0047  0.1443
55716DPG3  GM1380466  13.477   4.209  17.806  0.0245  0.0965  0.1916
55716DPG3  GM1480467  13.376   4.369  17.512 -0.2156 -0.3069  0.0507
55716DPG3  GM1580468  13.590   4.566  17.736 -0.2528  0.0985 -0.2642
55716DPG3  GM1680469  13.327   4.671  17.568  0.1360  0.2994 -0.1405
55716DPG3  GM1780470  13.591   4.653  17.999  0.1549 -0.1273 -0.1692
55716DPG3   AM180471  14.639   3.697  16.808 -0.0289  0.1198 -0.0964
55716DPG3   AM280472  14.285   3.814  16.690 -0.0376 -0.0122  0.3996
55716DPG3   T1A80473  14.724   3.908  16.440  0.0674  0.1390 -0.0467
55716DPG3   C2A80474  14.644   4.045  16.055 -0.3456  0.0858  0.1092
55716DPG3   C3A80475  14.557   3.881  15.577  0.3485 -0.0189 -0.1479
55716DPG3   C1B80476  14.180   3.894  16.341 -0.0170  0.0359  0.1967
55716DPG3   C2B80477  13.947   3.942  16.076 -0.4150 -0.0285  0.1485
55716DPG3   C3B80478  13.666   4.260  15.877 -0.0446  0.1197 -0.0365
55716DPG3   C4B80479  13.319   4.268  15.701 -0.1327 -0.1436  0.3288
55717DPG3   GM180480   2.109  20.999   9.848  0.1313 -0.0264 -0.2370
55717DPG3   GM280481   1.927  21.326   9.830  0.1423 -0.0025  0.0579
55717DPG3   GM380482   1.789  21.045   9.919  0.2111 -0.0118  0.1236
55717DPG3   GM480483   1.502  21.252   9.911 -0.0545  0.2420  0.1210
55717DPG3   GM580484   1.613  20.998  10.195 -0.1988 -0.0696 -0.0988
55717DPG3   GM680485   1.361  21.116  10.090  0.1311  0.2259  0.2574
55717DPG3  GM1380486   1.033  21.268  10.101 -0.0859  0.0043  0.1317
55717DPG3  GM1480487   1.185  21.569  10.194  0.1077 -0.0967  0.1431
55717DPG3  GM1580488   1.214  21.295  10.436  0.1094 -0.1856  0.0418
55717DPG3  GM1680489   1.172  21.601  10.537  0.1485  0.0798  0.2023
55717DPG3  GM1780490   1.077  21.136  10.571  0.4278  0.1335  0.0866
55717DPG3   AM180491   2.360  21.046   9.465  0.0831  0.1226  0.1195
55717DPG3   AM280492   2.204  21.346   9.389  0.2312  0.1368  0.1207
55717DPG3   T1A80493   2.803  21.023   9.312  0.0008  0.0674 -0.1841
55717DPG3   C2A80494   3.146  21.207   9.050  0.2210 -0.0657  0.1326
55717DPG3   C3A80495   3.329  21.143   8.614  0.0054  0.0877  0.1397
55717DPG3   C1B80496   2.350  21.604   9.182  0.0796  0.0517 -0.0947
55717DPG3   C2B80497   2.565  21.872   8.993  0.1461 -0.1557  0.2429
55717DPG3   C3B80498   2.853  22.124   8.836 -0.3191  0.0719  0.1550
55717DPG3   C4B80499   3.108  22.336   8.770 -0.2382 -0.0404  0.0235
55718DPG3   GM180500  13.119   3.511  17.942 -0.0718 -0.0361  0.2903
55718DPG3   GM280501  13.227   3.848  18.064  0.0520 -0.0172  0.1314
55718DPG3   GM380502  13.425   3.610  18.018 -0.0006 -0.1629  0.1734
55718DPG3   GM480503  13.613   3.831  18.216 -0.0320 -0.1317 -0.0717
55718DPG3   GM580504  13.687   3.760  17.833 -0.0381 -0.0079 -0.0962
55718DPG3   GM680505  13.852   3.805  18.105  0.1119  0.1806  0.1601
55718DPG3  GM1380506  14.092   3.883  18.361 -0.2856 -0.1190  0.2895
55718DPG3  GM1480507  13.921   4.188  18.378 -0.1245 -0.0153  0.0734
55718DPG3  GM1580508  14.059   4.100  18.050 -0.1927 -0.3338  0.1289
55718DPG3  GM1680509  14.004   4.379  18.115  0.0507  0.0310 -0.2169
55718DPG3  GM1780510  14.286   4.034  17.917 -0.1445 -0.1744 -0.2292
55718DPG3   AM180511  12.617   3.479  17.923 -0.3067 -0.0910 -0.3226
55718DPG3   AM280512  12.714   3.783  17.731  0.1499 -0.2859 -0.0581
55718DPG3   T1A80513  12.242   3.681  17.692  0.0718 -0.1302 -0.0131
55718DPG3   C2A80514  12.128   3.806  17.319  0.1246  0.1890 -0.2042
55718DPG3   C3A80515  11.908   3.656  16.929  0.0130  0.0950  0.0660
55718DPG3   C1B80516  12.519   4.048  17.575  0.0056  0.0313 -0.5712
55718DPG3   C2B80517  12.425   4.360  17.278  0.0669 -0.0507  0.0147
55718DPG3   C3B80518  12.462   4.720  16.961 -0.3014  0.1925  0.0149
55718DPG3   C4B80519  12.207   5.043  16.762 -0.0635 -0.1022 -0.1345
55719DPG3   GM180520  21.671  13.789  13.576 -0.0339 -0.1434  0.1133
55719DPG3   GM280521  21.933  13.954  13.363 -0.2165 -0.1649 -0.1307
55719DPG3   GM380522  22.000  13.777  13.606  0.0052  0.2434 -0.1181
55719DPG3   GM480523  22.321  13.819  13.468  0.0436 -0.0363 -0.0024
55719DPG3   GM580524  22.193  13.529  13.705 -0.3157  0.3070  0.2302
55719DPG3   GM680525  22.456  13.703  13.664  0.0186  0.1115  0.1031
55719DPG3  GM1380526  22.805  13.758  13.626  0.1262  0.0052 -0.0669
55719DPG3  GM1480527  22.703  13.647  13.310 -0.2820 -0.0410  0.0772
55719DPG3  GM1580528  22.669  13.405  13.584 -0.2998  0.1286  0.2263
55719DPG3  GM1680529  22.893  13.366  13.316 -0.0574  0.0829  0.2112
55719DPG3  GM1780530  22.713  13.305  13.868  0.1608  0.2841 -0.1140
55719DPG3   AM180531  21.386  13.872  13.191 -0.2334  0.1897  0.0444
55719DPG3   AM280532  21.333  14.169  13.424 -0.0504  0.2161  0.0475
55719DPG3   T1A80533  21.019  14.086  13.020  0.0793 -0.4430  0.1689
55719DPG3   C2A80534  20.668  13.911  12.918 -0.1361 -0.1294  0.0618
55719DPG3   C3A80535  20.228  13.745  12.816  0.0945 -0.2140  0.1004
55719DPG3   C1B80536  21.075  14.415  13.444 -0.1200  0.0589  0.0188
55719DPG3   C2B80537  20.626  14.412  13.167 -0.0947  0.2479  0.0460
55719DPG3   C3B80538  20.224  14.171  13.035  0.0043  0.0144 -0.1378
55719DPG3   C4B80539  19.817  14.002  13.065  0.0672  0.1340  0.0503
55720DPG3   GM180540  26.552  14.490   5.223 -0.1413 -0.0480 -0.0795
55720DPG3   GM280541  26.340  14.736   5.411 -0.0214 -0.0126  0.0104
55720DPG3   GM380542  26.653  14.727   5.429 -0.1795  0.0634 -0.1880
55720DPG3   GM480543  26.638  14.986   5.667 -0.0578 -0.0725 -0.1653
55720DPG3   GM580544  26.796  15.045   5.308 -0.0089 -0.0158 -0.1346
55720DPG3   GM680545  26.833  15.157   5.608 -0.0830 -0.0201 -0.0974
55720DPG3  GM1380546  26.768  15.422   5.877 -0.0168  0.0875 -0.0602
55720DPG3  GM1480547  26.460  15.386   5.716  0.0082  0.2603 -0.1472
55720DPG3  GM1580548  26.726  15.542   5.518  0.2098 -0.0718 -0.1412
55720DPG3  GM1680549  26.408  15.625   5.490 -0.0355  0.0583 -0.2363
55720DPG3  GM1780550  26.944  15.694   5.495 -0.0850  0.1582 -0.0384
55720DPG3   AM180551  26.127  14.376   5.180  0.0808  0.0457 -0.2436
55720DPG3   AM280552  26.020  14.693   5.055  0.3599 -0.1486 -0.1047
55720DPG3   T1A80553  25.790  14.182   4.897 -0.0180 -0.0183  0.2428
55720DPG3   C2A80554  25.621  13.971   4.655 -0.1571 -0.3428  0.1150
55720DPG3   C3A80555  25.317  13.742   4.535 -0.0974 -0.0970 -0.1290
55720DPG3   C1B80556  25.794  14.744   4.763 -0.1573 -0.2308  0.2369
55720DPG3   C2B80557  25.520  14.775   4.390  0.2397  0.0334  0.1860
55720DPG3   C3B80558  25.205  14.564   4.092 -0.2460  0.1117 -0.2249
55720DPG3   C4B80559  25.059  14.313   3.757  0.1275 -0.1450 -0.4483
55721DPG3   GM180560  28.701  12.765   4.573 -0.1561 -0.2103 -0.0630
55721DPG3   GM280561  28.463  12.866   4.845 -0.0716 -0.0123 -0.0621
55721DPG3   GM380562  28.764  12.839   4.889 -0.1350  0.1646 -0.1522
55721DPG3   GM480563  28.648  12.894   5.229 -0.1329  0.0787 -0.1923
55721DPG3   GM580564  28.971  13.092   5.115 -0.0576 -0.0165 -0.1459
55721DPG3   GM680565  28.815  13.015   5.395 -0.1813 -0.0686 -0.0353
55721DPG3  GM1380566  28.644  13.040   5.718 -0.0693 -0.2674 -0.0642
55721DPG3  GM1480567  28.395  13.193   5.525 -0.0082 -0.1416 -0.0441
55721DPG3  GM1580568  28.716  13.370   5.542 -0.0141 -0.1512  0.1745
55721DPG3  GM1680569  28.425  13.524   5.560  0.0043  0.0093 -0.0478
55721DPG3  GM1780570  28.933  13.515   5.638 -0.0382 -0.2178  0.4307
55721DPG3   AM180571  28.585  12.346   4.423 -0.0365  0.2245 -0.1035
55721DPG3   AM280572  28.846  12.499   4.201  0.0905  0.0690  0.0471
55721DPG3   T1A80573  28.612  12.042   4.086  0.0009 -0.1854 -0.2657
55721DPG3   C2A80574  28.460  11.780   3.736  0.0750  0.3804  0.0558
55721DPG3   C3A80575  28.293  11.431   3.393 -0.3732  0.1606 -0.3207
55721DPG3   C1B80576  28.803  12.597   3.850  0.0738  0.2408  0.1646
55721DPG3   C2B80577  28.668  12.562   3.426 -0.0731  0.1876  0.0696
55721DPG3   C3B80578  28.338  12.651   3.068  0.2061 -0.0727 -0.1899
55721DPG3   C4B80579  27.852  12.717   3.086 -0.1049  0.0396 -0.2213
55722PXSU    S180580   7.805  30.349  20.998 -0.1034 -0.0159 -0.0798
55722PXSU    C180581   8.015  29.853  20.995  0.0480  0.0318  0.0651
55722PXSU    C280582   7.970  30.150  21.008 -0.2859 -0.0025 -0.2216
55722PXSU    C380583   8.194  30.039  20.841 -0.0906  0.0912 -0.0252
55722PXSU   AM180584   8.425  30.383  20.770 -0.0902 -0.0390 -0.3151
55722PXSU   AM280585   8.351  30.298  20.436  0.0539 -0.1321 -0.1506
55722PXSU   T1A80586   8.864  30.241  20.529  0.0754  0.0452  0.0564
55722PXSU   C2A80587   9.366  30.224  20.537 -0.3311 -0.3316 -0.1768
55722PXSU   C3A80588   9.681  30.460  20.418 -0.1759  0.1229  0.1232
55722PXSU   C1B80589   8.595  30.216  20.078  0.1222 -0.2756 -0.0078
55722PXSU   C2B80590   8.823  30.208  19.725 -0.0364 -0.0838  0.1287
55722PXSU   C3B80591   8.738  30.097  19.360  0.2711  0.0950  0.1873
55722PXSU   C4B80592   9.056  29.972  19.071 -0.2916  0.1226  0.1186
55722PXSU   C5B80593   9.503  29.821  19.095 -0.1426  0.3553 -0.2937
55722PXSU   C6B80594   9.786  29.469  19.089  0.0872  0.1840  0.0538
55723PXSU    S180595  35.157  12.201   9.252  0.1996 -0.2125 -0.4371
55723PXSU    C180596  34.767  11.944   9.012 -0.0865  0.0422  0.2141
55723PXSU    C280597  35.033  12.011   9.133  0.0162 -0.0008  0.0155
55723PXSU    C380598  34.960  11.725   9.081 -0.0019  0.0217 -0.0839
55723PXSU   AM180599  35.304  11.567   8.906 -0.1956  0.2838 -0.1312
55723PXSU   AM280600  35.157  11.295   8.931  0.3170  0.1260  0.1061
55723PXSU   T1A80601   0.277  11.443   8.797 -0.1519 -0.1095  0.1450
55723PXSU   C2A80602   0.484  11.238   8.498  0.2811  0.1763  0.0720
55723PXSU   C3A80603   0.753  11.031   8.384 -0.1477  0.0807 -0.0466
55723PXSU   C1B80604  35.383  11.014   8.588  0.3545 -0.1647  0.1158
55723PXSU   C2B80605   0.277  10.869   8.316 -0.0419  0.0450  0.4102
55723PXSU   C3B80606   0.619  10.689   8.052  0.1438  0.0998  0.1541
55723PXSU   C4B80607   0.982  10.741   7.844 -0.0189 -0.2523  0.2513
55723PXSU   C5B80608   1.373  10.651   7.692 -0.1577  0.1977  0.2402
55723PXSU   C6B80609   1.808  10.456   7.621 -0.0392 -0.1254 -0.0468
55724PXSU    S180610  22.455  14.545  13.964 -0.0469 -0.0561  0.0629
55724PXSU    C180611  22.084  14.902  13.863 -0.1787 -0.1228 -0.0104
55724PXSU    C280612  22.243  14.649  13.881  0.0758  0.0429  0.0997
55724PXSU    C380613  22.154  14.751  13.614  0.0875 -0.0919  0.0439
55724PXSU   AM180614  22.226  14.414  13.374 -0.3417 -0.0712  0.0252
55724PXSU   AM280615  22.303  14.753  13.170 -0.1634  0.1514 -0.1384
55724PXSU   T1A80616  21.874  14.393  13.162 -0.2788 -0.1895  0.0761
55724PXSU   C2A80617  21.476  14.369  13.039  0.2379 -0.1553 -0.3517
55724PXSU   C3A80618  21.219  14.421  12.721 -0.1780  0.1064 -0.0394
55724PXSU   C1B80619  21.926  14.878  13.031 -0.1719  0.1925  0.2278
55724PXSU   C2B80620  21.619  14.850  12.777  0.2266  0.0219  0.0304
55724PXSU   C3B80621  21.356  14.780  12.403  0.2116 -0.0786  0.4471
55724PXSU   C4B80622  21.026  14.547  12.251  0.2039  0.2422  0.0142
55724PXSU   C5B80623  20.912  14.081  12.284  0.0716 -0.2530  0.1998
55724PXSU   C6B80624  20.963  13.721  12.167  0.0252  0.4009 -0.0908
55725PXSU    S180625  10.036   2.397  19.848  0.1163  0.0360 -0.2993
55725PXSU    C180626  10.496   2.240  19.635 -0.0323 -0.1300 -0.1153
55725PXSU    C280627  10.220   2.349  19.683 -0.0084 -0.0475 -0.1629
55725PXSU    C380628  10.287   2.221  19.421 -0.0339 -0.1704 -0.1099
55725PXSU   AM180629  10.232   2.575  19.211  0.1877 -0.0318  0.5307
55725PXSU   AM280630  10.057   2.663  19.360  0.2215  0.2145 -0.2588
55725PXSU   T1A80631  10.143   2.745  18.767 -0.3822  0.0746 -0.2776
55725PXSU   C2A80632  10.311   2.742  18.411 -0.1266 -0.0663  0.0309
55725PXSU   C3A80633  10.291   2.624  18.049  0.3118 -0.0135 -0.2131
55725PXSU   C1B80634   9.753   2.556  19.078 -0.1152  0.3597 -0.0238
55725PXSU   C2B80635   9.705   2.546  18.571  0.0061 -0.0933  0.5012
55725PXSU   C3B80636   9.866   2.464  18.238  0.1078  0.0353 -0.1178
55725PXSU   C4B80637   9.932   2.447  17.731 -0.2255  0.1221 -0.2016
55725PXSU   C5B80638   9.771   2.450  17.377  0.2110 -0.0884 -0.0943
55725PXSU   C6B80639   9.631   2.109  17.173  0.0693 -0.2489  0.1289
55726PXSU    S180640  34.990   9.528  10.383  0.1233 -0.1376 -0.2408
55726PXSU    C180641  35.261   9.538  10.879  0.0985  0.1035 -0.0358
55726PXSU    C280642  35.099   9.523  10.627 -0.1062 -0.0095  0.1009
55726PXSU    C380643  35.323   9.329  10.674 -0.2332 -0.1528  0.1204
55726PXSU   AM180644   0.025   9.168  10.296 -0.1804  0.2334 -0.0162
55726PXSU   AM280645  35.188   8.978  10.185  0.1010 -0.2384  0.2026
55726PXSU   T1A80646   0.477   8.884  10.276  0.2028  0.1689  0.0337
55726PXSU   C2A80647   0.507   8.665   9.932 -0.2308 -0.1572  0.5328
55726PXSU   C3A80648   0.699   8.327   9.674 -0.0593 -0.1308  0.0883
55726PXSU   C1B80649   0.106   8.976   9.837  0.2152  0.7121  0.0033
55726PXSU   C2B80650   0.216   8.641   9.503  0.2842 -0.3895  0.3330
55726PXSU   C3B80651   0.109   8.488   9.101 -0.0143  0.6330 -0.1549
55726PXSU   C4B80652   0.251   8.079   8.872  0.0585  0.2391  0.1279
55726PXSU   C5B80653   0.252   7.716   8.586 -0.1090 -0.0632 -0.4320
55726PXSU   C6B80654   0.734   7.573   8.519  0.0972 -0.3513  0.0870
55727PXSU    S180655  27.280   5.525  10.104  0.2580  0.0696 -0.2595
55727PXSU    C180656  26.813   5.656  10.266 -0.2543  0.1918 -0.0368
55727PXSU    C280657  27.026   5.564  10.076 -0.2174  0.0842  0.0563
55727PXSU    C380658  26.737   5.534  10.002 -0.2116 -0.3482  0.1933
55727PXSU   AM180659  26.765   5.640   9.599  0.2199  0.0864  0.0792
55727PXSU   AM280660  26.748   5.308   9.428  0.1947 -0.1145  0.0288
55727PXSU   T1A80661  26.421   5.578   9.258 -0.0932  0.0664  0.1827
55727PXSU   C2A80662  26.024   5.630   9.113  0.1641 -0.0071 -0.1362
55727PXSU   C3A80663  25.756   5.471   8.853 -0.0510 -0.2513 -0.1615
55727PXSU   C1B80664  26.528   5.071   9.174 -0.1424 -0.0131  0.0853
55727PXSU   C2B80665  26.181   5.164   8.854 -0.2567  0.1138 -0.1293
55727PXSU   C3B80666  25.867   5.011   8.694 -0.0722  0.0161  0.0800
55727PXSU   C4B80667  25.885   4.650   8.370  0.1842 -0.1612 -0.0346
55727PXSU   C5B80668  25.753   4.250   8.206 -0.1035  0.3610  0.3020
55727PXSU   C6B80669  26.055   3.932   8.059  0.2254  0.0237  0.3624
55728PXSU    S180670  34.715  15.839   7.017  0.1972  0.1148 -0.0805
55728PXSU    C180671  34.593  15.370   6.802  0.0970 -0.0744 -0.1270
55728PXSU    C280672  34.644  15.662   6.845  0.3069 -0.1725  0.3154
55728PXSU    C380673  34.672  15.544   6.571 -0.1615  0.2948  0.0571
55728PXSU   AM180674  34.942  15.747   6.311  0.3157 -0.1026 -0.3413
55728PXSU   AM280675  34.634  15.848   6.124 -0.1315  0.2505 -0.2301
55728PXSU   T1A80676  35.297  15.585   6.212 -0.1290 -0.0860  0.1457
55728PXSU   C2A80677   0.187  15.563   5.861  0.0148  0.3757 -0.2894
55728PXSU   C3A80678   0.506  15.459   5.658 -0.1509  0.1663 -0.2141
55728PXSU   C1B80679  35.072  15.828   5.828  0.0683 -0.1072 -0.2777
55728PXSU   C2B80680   0.030  15.903   5.494  0.0859 -0.4635  0.0005
55728PXSU   C3B80681   0.261  16.094   5.214 -0.0463 -0.1442 -0.2427
55728PXSU   C4B80682   0.602  16.361   5.273  0.0150 -0.2573 -0.0270
55728PXSU   C5B80683   0.783  16.648   4.959 -0.0331 -0.0822 -0.1353
55728PXSU   C6B80684   1.118  16.939   4.969  0.0107  0.3835  0.2926
55729PXSU    S180685   6.724  31.243  20.644 -0.1587  0.0870  0.0887
55729PXSU    C180686   7.263  31.370  20.665  0.0194  0.1977  0.0264
55729PXSU    C280687   6.986  31.262  20.622  0.0310  0.0666  0.2719
55729PXSU    C380688   7.161  31.324  20.386 -0.0020 -0.3853  0.1235
55729PXSU   AM180689   6.939  31.379  20.033 -0.0113  0.1691 -0.0107
55729PXSU   AM280690   6.723  31.150  20.130  0.1062 -0.0558 -0.1661
55729PXSU   T1A80691   6.934  31.394  19.587  0.1439  0.5416  0.2810
55729PXSU   C2A80692   6.976  31.289  19.131 -0.0943 -0.1885 -0.1267
55729PXSU   C3A80693   7.104  31.290  18.698  0.0248  0.1647  0.1845
55729PXSU   C1B80694   6.624  31.069  19.799 -0.1080  0.1736 -0.0370
55729PXSU   C2B80695   6.839  30.916  19.403  0.1036 -0.1510  0.0012
55729PXSU   C3B80696   7.116  30.821  19.000  0.0858 -0.1843 -0.2036
55729PXSU   C4B80697   6.823  30.875  18.617 -0.0490 -0.2727 -0.1803
55729PXSU   C5B80698   6.589  31.104  18.388  0.1329 -0.1760 -0.4004
55729PXSU   C6B80699   6.177  30.878  18.192  0.1205 -0.1619  0.0166
55730PXSU    S180700  28.649  13.379   4.954 -0.0888 -0.0904 -0.2772
55730PXSU    C180701  28.159  13.555   5.134 -0.0421 -0.0408  0.2657
55730PXSU    C280702  28.402  13.412   5.034 -0.0660  0.0776  0.0350
55730PXSU    C380703  28.137  13.272   5.038 -0.0568  0.0586 -0.0312
55730PXSU   AM180704  28.010  13.138   4.651 -0.1951 -0.2115  0.0898
55730PXSU   AM280705  27.914  12.920   4.754 -0.1259  0.1228  0.5676
55730PXSU   T1A80706  27.633  13.225   4.459 -0.1761 -0.1661  0.1052
55730PXSU   C2A80707  27.440  13.070   4.083 -0.2325  0.2481  0.3274
55730PXSU   C3A80708  27.105  12.916   3.734 -0.0894  0.1728 -0.0135
55730PXSU   C1B80709  27.793  12.719   4.387 -0.1560  0.1556  0.0016
55730PXSU   C2B80710  27.567  12.626   3.973  0.0641 -0.0647  0.0099
55730PXSU   C3B80711  27.621  12.323   3.746  0.2345  0.2455 -0.0950
55730PXSU   C4B80712  27.298  12.218   3.767 -0.0635 -0.2906  0.2040
55730PXSU   C5B80713  26.883  12.117   3.548  0.1489 -0.3962  0.4033
55730PXSU   C6B80714  26.863  11.807   3.228  0.0631 -0.3471 -0.1998
55731PXSU    S180715   1.722   7.306  13.294  0.0095  0.3074 -0.4673
55731PXSU    C180716   1.472   7.567  12.949 -0.1195 -0.0337  0.3854
55731PXSU    C280717   1.713   7.447  13.082  0.1003 -0.0712 -0.0389
55731PXSU    C380718   1.710   7.739  13.012 -0.0039 -0.0570  0.0238
55731PXSU   AM180719   1.934   7.679  12.690 -0.0469  0.0173 -0.1772
55731PXSU   AM280720   2.067   7.358  12.724  0.2239  0.2960  0.1247
55731PXSU   T1A80721   1.956   7.480  12.201  0.3756  0.4123 -0.1367
55731PXSU   C2A80722   2.054   7.469  11.840 -0.1213  0.1730  0.2340
55731PXSU   C3A80723   2.299   7.289  11.455 -0.0627 -0.1598  0.0627
55731PXSU   C1B80724   2.410   7.438  12.334  0.0036  0.1193 -0.1680
55731PXSU   C2B80725   2.852   7.314  12.207 -0.1150 -0.2047 -0.0117
55731PXSU   C3B80726   3.092   7.216  11.989 -0.3011  0.1437 -0.0458
55731PXSU   C4B80727   3.551   7.138  12.006 -0.0416  0.1618 -0.0021
55731PXSU   C5B80728   3.935   6.969  12.360 -0.4467  0.0363  0.3875
55731PXSU   C6B80729   4.306   7.120  12.481 -0.1018 -0.0657  0.1794
55732PXSU    S180730  11.742  34.824  20.139  0.0145 -0.1067 -0.0089
55732PXSU    C180731  11.834  34.321  20.353 -0.0800 -0.2870 -0.0949
55732PXSU    C280732  11.787  34.553  20.169 -0.1016  0.0277  0.3007
55732PXSU    C380733  11.561  34.370  20.240 -0.0923 -0.0967  0.0158
55732PXSU   AM180734  11.378  34.520  19.882 -0.0753  0.1204 -0.1964
55732PXSU   AM280735  11.095  34.716  19.974 -0.4238 -0.1437 -0.1854
55732PXSU   T1A80736  11.429  34.461  19.420  0.0160 -0.3050 -0.1483
55732PXSU   C2A80737  11.329  34.541  19.044 -0.1037 -0.0263 -0.2308
55732PXSU   C3A80738  11.074  34.380  18.689 -0.0953  0.0953 -0.1848
55732PXSU   C1B80739  10.848  34.552  19.557  0.2010  0.1688 -0.1123
55732PXSU   C2B80740  10.715  34.485  19.161 -0.1369 -0.0885 -0.1454
55732PXSU   C3B80741  10.493  34.249  18.876  0.1696  0.1303 -0.1697
55732PXSU   C4B80742  10.124  33.972  18.936 -0.0607  0.1485 -0.1507
55732PXSU   C5B80743   9.875  33.486  18.836  0.1637  0.0324  0.1409
55732PXSU   C6B80744   9.358  33.372  18.684 -0.0806  0.1664  0.2941
55733PXSU    S180745  32.337  32.153  12.404  0.2153 -0.0041 -0.0976
55733PXSU    C180746  32.605  32.627  12.487  0.2731  0.1077 -0.0319
55733PXSU    C280747  32.435  32.400  12.389 -0.0417  0.2527  0.1712
55733PXSU    C380748  32.422  32.667  12.253  0.1641  0.2131  0.0712
55733PXSU   AM180749  32.560  32.629  11.853 -0.0341  0.2146  0.2624
55733PXSU   AM280750  32.595  32.803  11.776 -0.1047  0.2870  0.2966
55733PXSU   T1A80751  32.519  32.359  11.543 -0.1671  0.2399  0.1660
55733PXSU   C2A80752  32.700  32.323  11.117 -0.1851  0.2544  0.3725
55733PXSU   C3A80753  32.650  32.121  10.768 -0.0760  0.1729 -0.0743
55733PXSU   C1B80754  32.783  32.748  11.383 -0.0667 -0.0408 -0.0046
55733PXSU   C2B80755  32.985  32.710  11.031  0.1237 -0.1088  0.0203
55733PXSU   C3B80756  32.924  32.532  10.669  0.0572  0.0129 -0.1034
55733PXSU   C4B80757  32.784  32.338  10.318 -0.0246 -0.1438 -0.0667
55733PXSU   C5B80758  32.489  32.335   9.967 -0.0703 -0.1027  0.4084
55733PXSU   C6B80759  32.519  32.514   9.492 -0.3304 -0.3034 -0.1690
55734PXSU    S180760   6.695  33.728  19.618  0.0573  0.1099  0.0964
55734PXSU    C180761   6.588  33.488  20.097  0.0097  0.1994 -0.1533
55734PXSU    C280762   6.622  33.616  19.828 -0.0935  0.2562 -0.1399
55734PXSU    C380763   6.475  33.356  19.853  0.1327  0.1232 -0.1696
55734PXSU   AM180764   6.505  33.236  19.446  0.0055 -0.0326 -0.0623
55734PXSU   AM280765   6.291  33.482  19.400  0.0440  0.2144 -0.1504
55734PXSU   T1A80766   6.635  33.234  19.012 -0.0842  0.1053 -0.1085
55734PXSU   C2A80767   6.850  33.293  18.615 -0.0599 -0.1342  0.4259
55734PXSU   C3A80768   6.729  33.177  18.218 -0.0011 -0.1032 -0.0414
55734PXSU   C1B80769   6.322  33.637  19.003 -0.3574  0.1300 -0.1335
55734PXSU   C2B80770   6.458  33.541  18.564 -0.4093  0.2269 -0.3296
55734PXSU   C3B80771   6.415  33.659  18.147  0.0049 -0.0715 -0.0595
55734PXSU   C4B80772   6.371  33.812  17.763 -0.1182 -0.2705 -0.3435
55734PXSU   C5B80773   6.245  33.652  17.376  0.1876 -0.2844 -0.1612
55734PXSU   C6B80774   6.397  33.830  16.980  0.1935 -0.1883  0.2808
55735PXSU    S180775  29.307  19.545   4.048 -0.1247 -0.0448  0.2866
55735PXSU    C180776  29.007  19.237   4.348 -0.0693 -0.0580  0.1243
55735PXSU    C280777  29.153  19.347   4.110 -0.1519 -0.1011  0.0536
55735PXSU    C380778  28.896  19.197   4.072 -0.2644  0.0563  0.1850
55735PXSU   AM180779  28.918  19.165   3.633  0.0864 -0.1060 -0.4538
55735PXSU   AM280780  28.686  19.319   3.562  0.2130 -0.0568  0.2330
55735PXSU   T1A80781  29.113  19.019   3.323  0.0074  0.0873 -0.0723
55735PXSU   C2A80782  29.077  19.064   2.814 -0.1772  0.0160 -0.1034
55735PXSU   C3A80783  29.193  19.150   2.489  0.0128  0.2631 -0.2664
55735PXSU   C1B80784  28.674  19.265   3.093 -0.0518 -0.0452 -0.4710
55735PXSU   C2B80785  28.637  19.130   2.657 -0.2308 -0.0832  0.3613
55735PXSU   C3B80786  28.741  18.973   2.218  0.0804  0.0864  0.0024
55735PXSU   C4B80787  28.352  18.992   1.901  0.0538  0.2012  0.0211
55735PXSU   C5B80788  28.083  19.330   1.708 -0.1371  0.1158 -0.1140
55735PXSU   C6B80789  27.902  19.719   1.530 -0.0010  0.0319 -0.1051
55736PNSU    S180790  32.513  33.329  12.349 -0.0361  0.0599  0.1023
55736PNSU    C180791  32.834  32.932  12.181  0.1477  0.2136  0.1523
55736PNSU    C280792  32.612  33.131  12.208  0.0469  0.1127  0.0875
55736PNSU    C380793  32.848  33.193  12.035 -0.0768  0.0925 -0.0897
55736PNSU   AM180794  32.754  33.278  11.628  0.1661  0.4128 -0.0811
55736PNSU   AM280795  32.757  33.580  11.683  0.1839 -0.2355  0.2297
55736PNSU   T1A80796  32.955  33.201  11.294 -0.1716 -0.1302  0.2483
55736PNSU   C2A80797  33.188  33.155  10.890  0.2199  0.0343  0.2761
55736PNSU   C3A80798  33.372  32.825  10.595  0.0552 -0.3591  0.0988
55736PNSU   C1B80799  32.984  33.888  11.724 -0.1185 -0.0969  0.0334
55736PNSU   C2B80800  33.338  34.067  11.411  0.1065  0.5301 -0.1932
55736PNSU   C3B80801  33.499  34.196  11.042  0.1373 -0.1368  0.1185
55736PNSU   D4B80802  33.685  34.223  10.633  0.0707  0.3414  0.0333
55736PNSU   C5B80803  33.743  34.663  10.422 -0.1988 -0.2758  0.1177
55736PNSU   C6B80804  33.612  35.057  10.300  0.0181  0.2480  0.0423
55737PNSU    S180805   2.977  19.151  11.993 -0.0275 -0.2096 -0.0509
55737PNSU    C180806   3.214  18.767  11.841 -0.0053  0.0474  0.1337
55737PNSU    C280807   3.196  19.064  11.877  0.0834  0.0773 -0.0609
55737PNSU    C380808   3.442  18.917  11.965  0.0367  0.0600  0.0415
55737PNSU   AM180809   3.678  19.264  11.890  0.0262 -0.0029 -0.2894
55737PNSU   AM280810   3.629  18.979  12.111  0.0145  0.2171  0.1058
55737PNSU   T1A80811   3.987  19.447  11.688  0.1388 -0.1197 -0.1072
55737PNSU   C2A80812   4.444  19.401  11.615  0.2785 -0.3342 -0.2165
55737PNSU   C3A80813   4.823  19.289  11.553 -0.3143 -0.1390  0.0972
55737PNSU   C1B80814   3.968  18.844  11.815  0.0844  0.2207 -0.1099
55737PNSU   C2B80815   4.402  18.905  11.669  0.3520  0.0469 -0.3360
55737PNSU   C3B80816   4.739  18.818  11.721  0.1139 -0.0165 -0.1286
55737PNSU   D4B80817   5.219  18.798  11.683 -0.3299  0.0747  0.0035
55737PNSU   C5B80818   5.415  18.732  12.026  0.0992 -0.2059  0.2479
55737PNSU   C6B80819   5.614  18.478  12.410  0.1840  0.0308  0.2208
55738PNSU    S180820  10.617   4.290  18.869  0.2127 -0.1767  0.0388
55738PNSU    C180821  11.002   4.072  19.088  0.2040  0.3278  0.1835
55738PNSU    C280822  10.866   4.301  18.950  0.1735  0.2679  0.1146
55738PNSU    C380823  11.059   4.128  18.799  0.0364  0.1183  0.1091
55738PNSU   AM180824  10.884   4.071  18.415 -0.0300 -0.1045  0.1719
55738PNSU   AM280825  11.152   4.234  18.496 -0.0943  0.1286 -0.1277
55738PNSU   T1A80826  10.717   4.083  18.003 -0.1260  0.3544 -0.0429
55738PNSU   C2A80827  10.704   4.016  17.503  0.0478 -0.0042 -0.2552
55738PNSU   C3A80828  10.545   3.865  17.013 -0.1423  0.0053  0.0525
55738PNSU   C1B80829  11.074   4.439  18.097  0.2285  0.1690 -0.1047
55738PNSU   C2B80830  10.930   4.444  17.735 -0.0052 -0.0418 -0.2223
55738PNSU   C3B80831  10.950   4.493  17.365  0.0317 -0.0204 -0.0039
55738PNSU   D4B80832  11.053   4.633  16.931  0.2646  0.1516 -0.0393
55738PNSU   C5B80833  11.489   4.946  16.968  0.0052 -0.2418  0.0202
55738PNSU   C6B80834  11.455   5.448  17.089 -0.1782 -0.0703  0.0792
55739PNSU    S180835  13.561   2.640  17.432  0.2656 -0.1300  0.3283
55739PNSU    C180836  13.440   3.075  17.732 -0.0072 -0.2058  0.0602
55739PNSU    C280837  13.433   2.831  17.557 -0.1110 -0.1707  0.0154
55739PNSU    C380838  13.274   3.075  17.482  0.0848 -0.0475 -0.0022
55739PNSU   AM180839  12.918   3.309  17.492  0.0443 -0.1000 -0.1755
55739PNSU   AM280840  13.040   3.170  17.352  0.2912 -0.3295  0.1141
55739PNSU   T1A80841  12.555   3.424  17.349  0.1224 -0.0739 -0.0484
55739PNSU   C2A80842  12.379   3.377  16.978  0.0094 -0.0026 -0.3293
55739PNSU   C3A80843  12.040   3.208  16.747  0.0142  0.0235 -0.2729
55739PNSU   C1B80844  12.830   3.107  17.027  0.2019  0.2184 -0.1189
55739PNSU   C2B80845  12.591   3.015  16.743 -0.0197 -0.1171 -0.0007
55739PNSU   C3B80846  12.378   2.899  16.487  0.2475 -0.3749 -0.1816
55739PNSU   D4B80847  12.011   3.019  16.273 -0.0498 -0.0298  0.0768
55739PNSU   C5B80848  11.681   3.350  16.398 -0.1825  0.0027 -0.2558
55739PNSU   C6B80849  11.387   3.557  16.610 -0.2370  0.2024 -0.0861
55740PNSU    S180850  10.693  15.557  18.311 -0.2209 -0.3202  0.4603
55740PNSU    C180851  10.637  16.094  18.438 -0.1359 -0.0834  0.2067
55740PNSU    C280852  10.633  15.796  18.399  0.0932 -0.0614 -0.0028
55740PNSU    C380853  10.527  15.976  18.184 -0.3573 -0.0002  0.2623
55740PNSU   AM180854  10.382  15.698  17.896  0.0835 -0.0050  0.0418
55740PNSU   AM280855  10.529  16.032  17.896  0.0633  0.2544  0.0256
55740PNSU   T1A80856  10.339  15.787  17.474  0.3319  0.3069  0.1339
55740PNSU   C2A80857  10.384  15.970  17.077  0.1585 -0.1154  0.1902
55740PNSU   C3A80858  10.422  16.099  16.764  0.1429 -0.2670  0.0385
55740PNSU   C1B80859  10.488  16.266  17.550 -0.0065 -0.1493  0.6450
55740PNSU   C2B80860  10.561  16.459  17.175  0.2457 -0.0036 -0.0014
55740PNSU   C3B80861  10.536  16.637  16.723  0.0982  0.1000  0.1828
55740PNSU   D4B80862  10.346  16.554  16.230 -0.1689  0.2766  0.1333
55740PNSU   C5B80863  10.345  16.532  15.834  0.1719  0.2198 -0.0736
55740PNSU   C6B80864  10.462  16.250  15.569  0.0343 -0.0661 -0.0928
55741PNSU    S180865  25.923  15.383   5.486 -0.1181 -0.1478 -0.3462
55741PNSU    C180866  26.357  15.236   5.249  0.0284 -0.1101  0.2575
55741PNSU    C280867  26.091  15.208   5.385 -0.0437 -0.3263  0.0762
55741PNSU    C380868  26.104  15.252   5.089  0.1169 -0.0373  0.1240
55741PNSU   AM180869  25.711  15.087   5.095 -0.0655  0.3859  0.0138
55741PNSU   AM280870  25.988  15.210   4.919 -0.1040 -0.0069  0.2107
55741PNSU   T1A80871  25.448  15.052   4.941  0.2909 -0.0286 -0.0837
55741PNSU   C2A80872  25.229  15.028   4.622  0.2793 -0.2937  0.0580
55741PNSU   C3A80873  24.789  15.021   4.514  0.0246  0.1684  0.0617
55741PNSU   C1B80874  25.691  15.218   4.508  0.0104  0.1068 -0.0860
55741PNSU   C2B80875  25.437  15.265   4.209 -0.1080 -0.0468  0.1409
55741PNSU   C3B80876  25.137  15.021   4.102  0.1577  0.0520  0.1367
55741PNSU   D4B80877  24.968  14.839   3.688 -0.0764  0.3057  0.1395
55741PNSU   C5B80878  24.863  15.251   3.671 -0.0466  0.0354 -0.3215
55741PNSU   C6B80879  25.173  15.456   3.847 -0.0492  0.2172  0.1249
55742PNSU    S180880   2.878  22.432  14.556 -0.1199 -0.0925  0.0970
55742PNSU    C180881   2.920  22.055  14.170  0.0683 -0.1741  0.2097
55742PNSU    C280882   2.957  22.293  14.349 -0.2049  0.0595 -0.0403
55742PNSU    C380883   3.098  22.280  14.085 -0.1267 -0.0944  0.0090
55742PNSU   AM180884   3.133  22.581  13.786  0.1169 -0.1198  0.0103
55742PNSU   AM280885   3.248  22.394  13.983  0.1841  0.1868 -0.0562
55742PNSU   T1A80886   3.381  22.602  13.427 -0.0329  0.0303 -0.0420
55742PNSU   C2A80887   3.829  22.872  13.319  0.1918 -0.0169  0.2785
55742PNSU   C3A80888   4.112  23.031  13.271 -0.0757  0.2653 -0.0325
55742PNSU   C1B80889   3.666  22.503  13.936  0.0211 -0.0065 -0.3535
55742PNSU   C2B80890   4.106  22.777  13.806  0.1353 -0.0101 -0.0047
55742PNSU   C3B80891   4.461  22.835  13.669 -0.3214  0.2386 -0.1357
55742PNSU   D4B80892   4.725  22.961  13.437  0.0444 -0.0447 -0.2051
55742PNSU   C5B80893   4.594  22.982  13.049 -0.0283  0.1021  0.0528
55742PNSU   C6B80894   4.929  23.012  12.765  0.0865 -0.1880  0.1309
55743PNSU    S180895   2.682  10.229  12.884 -0.1491  0.0111  0.2807
55743PNSU    C180896   2.311  10.459  13.165 -0.3810  0.3648  0.0133
55743PNSU    C280897   2.462  10.365  12.923 -0.0747  0.1290  0.2928
55743PNSU    C380898   2.417  10.658  12.967  0.1547  0.1913  0.1181
55743PNSU   AM180899   2.797  10.737  12.790  0.0205  0.0067 -0.2592
55743PNSU   AM280900   2.475  10.852  12.890 -0.5407 -0.1099 -0.3901
55743PNSU   T1A80901   3.065  10.740  12.520 -0.1918 -0.0753  0.0622
55743PNSU   C2A80902   3.422  10.733  12.185 -0.2190  0.0552  0.0185
55743PNSU   C3A80903   3.693  10.588  11.981 -0.0653 -0.1761  0.1050
55743PNSU   C1B80904   2.777  11.198  12.760 -0.4061 -0.0094 -0.2398
55743PNSU   C2B80905   3.239  11.177  12.412 -0.0429 -0.0154 -0.2773
55743PNSU   C3B80906   3.653  11.157  12.058  0.0986  0.2864 -0.0222
55743PNSU   D4B80907   3.739  11.081  11.747  0.2524 -0.0359  0.0421
55743PNSU   C5B80908   4.026  10.838  11.726  0.4257  0.0956 -0.1846
55743PNSU   C6B80909   4.374  10.529  11.736 -0.0322  0.1539 -0.2374
55744PNSU    S180910  11.448  12.140  18.647  0.2046  0.3747  0.0796
55744PNSU    C180911  10.980  12.382  18.576  0.0113  0.0518 -0.2597
55744PNSU    C280912  11.250  12.262  18.527  0.1060  0.1492  0.0116
55744PNSU    C380913  11.031  12.225  18.325  0.2797 -0.0491 -0.1440
55744PNSU   AM180914  10.998  12.359  17.922  0.2119  0.0066 -0.1204
55744PNSU   AM280915  10.935  12.057  18.144 -0.4738 -0.4083 -0.3217
55744PNSU   T1A80916  10.896  12.118  17.652 -0.0730  0.0775  0.2516
55744PNSU   C2A80917  10.955  12.026  17.298  0.0872  0.1402  0.0426
55744PNSU   C3A80918  10.931  11.904  16.961  0.3671  0.0049  0.1786
55744PNSU   C1B80919  11.016  11.709  17.983  0.0500 -0.0690  0.1192
55744PNSU   C2B80920  10.923  11.430  17.795 -0.0704 -0.1152 -0.0784
55744PNSU   C3B80921  10.977  11.377  17.359 -0.3398 -0.1134 -0.0834
55744PNSU   D4B80922  11.064  10.961  17.110  0.2215  0.1771 -0.0200
55744PNSU   C5B80923  11.084  10.566  17.357  0.0836 -0.2062  0.0413
55744PNSU   C6B80924  11.335  10.281  17.580 -0.0156 -0.2183  0.6166
55745PNSU    S180925  33.388  22.059   6.477  0.1686  0.4433 -0.0205
55745PNSU    C180926  33.271  21.682   6.103 -0.1899  0.1440  0.0228
55745PNSU    C280927  33.297  21.931   6.268  0.1822 -0.0505  0.2669
55745PNSU    C380928  33.493  21.877   6.047  0.0908 -0.1201  0.2018
55745PNSU   AM180929  33.594  22.279   5.949 -0.2193 -0.1326 -0.1789
55745PNSU   AM280930  33.636  21.961   5.919 -0.1591  0.3726 -0.0432
55745PNSU   T1A80931  33.834  22.420   5.686 -0.0160  0.0569  0.0785
55745PNSU   C2A80932  33.998  22.879   5.420 -0.4964  0.1581  0.0165
55745PNSU   C3A80933  34.349  22.946   5.178  0.2596  0.1004  0.1010
55745PNSU   C1B80934  33.969  21.991   5.666  0.3687  0.0148  0.0157
55745PNSU   C2B80935  34.323  22.071   5.311 -0.0576  0.0297  0.1734
55745PNSU   C3B80936  34.594  22.115   4.939  0.1097 -0.2082  0.2366
55745PNSU   D4B80937  34.980  22.329   4.770 -0.1416 -0.1611  0.0699
55745PNSU   C5B80938  35.087  22.563   5.182  0.0803 -0.2256  0.2838
55745PNSU   C6B80939  34.901  22.891   5.361 -0.4038 -0.0786  0.2352
55746PNSU    S180940   3.112  19.871  12.410 -0.2639  0.0688 -0.3266
55746PNSU    C180941   3.278  19.579  11.995  0.1769  0.1040 -0.2074
55746PNSU    C280942   3.210  19.671  12.272  0.0187  0.1641 -0.2655
55746PNSU    C380943   3.373  19.423  12.232  0.0079  0.1332 -0.1196
55746PNSU   AM180944   3.488  19.541  12.625 -0.0716 -0.0065 -0.0540
55746PNSU   AM280945   3.499  19.246  12.619  0.1817  0.1685  0.2955
55746PNSU   T1A80946   3.908  19.694  12.754  0.0694  0.1511  0.2033
55746PNSU   C2A80947   4.293  19.732  12.765  0.0282 -0.0105  0.1886
55746PNSU   C3A80948   4.821  19.784  12.779 -0.2842 -0.0483 -0.1692
55746PNSU   C1B80949   3.877  19.317  12.354 -0.4411 -0.1647  0.2741
55746PNSU   C2B80950   4.173  19.210  12.065  0.1251  0.2541 -0.1441
55746PNSU   C3B80951   4.578  19.174  12.102 -0.1055 -0.1629 -0.1849
55746PNSU   D4B80952   5.005  19.078  12.079 -0.0383  0.0033 -0.2006
55746PNSU   C5B80953   5.263  19.253  11.738  0.0102  0.0254 -0.0618
55746PNSU   C6B80954   5.215  19.589  11.457  0.4106 -0.0429  0.0271
55747PNSU    S180955  11.651  16.018  18.485  0.0105 -0.1069 -0.1752
55747PNSU    C180956  12.144  15.970  18.725  0.1711  0.1094 -0.0774
55747PNSU    C280957  11.896  15.957  18.556 -0.0448  0.1261  0.2333
55747PNSU    C380958  12.103  16.166  18.501 -0.0705  0.0754 -0.0653
55747PNSU   AM180959  11.929  16.257  18.123 -0.1869  0.1246 -0.0002
55747PNSU   AM280960  12.171  16.362  18.348  0.2524  0.0067 -0.0843
55747PNSU   T1A80961  12.074  16.282  17.704 -0.2239 -0.0168 -0.0939
55747PNSU   C2A80962  12.115  16.605  17.360  0.2488  0.1078 -0.2709
55747PNSU   C3A80963  12.210  16.636  17.023 -0.2481  0.0596  0.0586
55747PNSU   C1B80964  12.237  16.712  17.973  0.0805 -0.0024 -0.4976
55747PNSU   C2B80965  12.262  16.991  17.692  0.0449  0.0900  0.1015
55747PNSU   C3B80966  12.146  17.147  17.392  0.0480  0.4191  0.2786
55747PNSU   D4B80967  12.085  17.141  16.892 -0.2027 -0.0972  0.0987
55747PNSU   C5B80968  11.876  16.826  16.677  0.0052  0.1014  0.1233
55747PNSU   C6B80969  12.009  16.632  16.284 -0.2131 -0.2690 -0.0086
55748PNSU    S180970  25.030  18.245   6.672 -0.0866 -0.2132 -0.0716
55748PNSU    C180971  24.654  18.509   6.941 -0.0547  0.0907 -0.0374
55748PNSU    C280972  24.793  18.323   6.750  0.0423 -0.1334  0.2485
55748PNSU    C380973  24.501  18.382   6.717  0.1257  0.0691 -0.1498
55748PNSU   AM180974  24.466  18.026   6.485  0.0284 -0.0577  0.0587
55748PNSU   AM280975  24.334  18.349   6.559 -0.0462 -0.0854 -0.1062
55748PNSU   T1A80976  24.084  17.941   6.277  0.1803  0.0726  0.1135
55748PNSU   C2A80977  23.672  18.009   6.069  0.1711  0.1859 -0.1928
55748PNSU   C3A80978  23.263  18.120   6.017  0.0494  0.0130  0.0358
55748PNSU   C1B80979  23.959  18.397   6.365 -0.0856 -0.2199  0.1606
55748PNSU   C2B80980  23.572  18.447   6.269  0.1859 -0.0464 -0.1958
55748PNSU   C3B80981  23.331  18.592   6.105  0.4129 -0.0578 -0.0367
55748PNSU   D4B80982  23.220  18.915   5.881 -0.0727 -0.1895  0.1136
55748PNSU   C5B80983  22.898  19.008   6.028  0.2503 -0.1139  0.1363
55748PNSU   C6B80984  22.473  18.824   5.932  0.1255 -0.1208  0.1784
55749PNSU    S180985   2.481  20.981  12.129 -0.1046 -0.3506  0.0590
55749PNSU    C180986   2.634  20.945  11.643 -0.1625 -0.1011  0.0594
55749PNSU    C280987   2.655  20.923  11.942  0.0260  0.0342  0.0565
55749PNSU    C380988   2.893  21.010  11.781 -0.1206  0.1127 -0.1181
55749PNSU   AM180989   3.184  21.285  11.636  0.0256  0.0564  0.0665
55749PNSU   AM280990   3.103  21.070  11.749  0.0644  0.3931  0.3846
55749PNSU   T1A80991   3.608  21.410  11.548 -0.1042 -0.2403  0.1668
55749PNSU   C2A80992   3.974  21.552  11.486  0.1788  0.2713  0.0788
55749PNSU   C3A80993   4.300  21.574  11.279 -0.0642 -0.1434  0.1126
55749PNSU   C1B80994   3.509  20.910  11.647 -0.0200 -0.3620 -0.3864
55749PNSU   C2B80995   3.932  21.075  11.577 -0.0931 -0.5508  0.2836
55749PNSU   C3B80996   4.382  21.123  11.393 -0.0990  0.1892 -0.0080
55749PNSU   D4B80997   4.662  21.221  11.243 -0.1639  0.1437 -0.3396
55749PNSU   C5B80998   4.957  21.587  11.216 -0.1834 -0.0522  0.0409
55749PNSU   C6B80999   5.126  22.016  11.042 -0.3720  0.0904  0.0223
55750PNSU    S181000   2.762  19.611  11.886 -0.0558 -0.0669 -0.0050
55750PNSU    C181001   2.777  19.697  11.378  0.0431 -0.0419  0.1450
55750PNSU    C281002   2.872  19.691  11.663  0.0574  0.2070  0.1463
55750PNSU    C381003   3.068  19.734  11.440  0.0561 -0.0567  0.0929
55750PNSU   AM181004   3.417  19.511  11.540  0.0752  0.0553  0.2786
55750PNSU   AM281005   3.350  19.841  11.575 -0.2087  0.0744 -0.0289
55750PNSU   T1A81006   3.768  19.554  11.262  0.0559  0.0623  0.0471
55750PNSU   C2A81007   4.158  19.589  11.161  0.1443 -0.1900 -0.1598
55750PNSU   C3A81008   4.520  19.651  11.116  0.2526  0.1625  0.0086
55750PNSU   C1B81009   3.789  19.917  11.600 -0.2812  0.3637 -0.1964
55750PNSU   C2B81010   4.126  19.976  11.539  0.1463  0.3527 -0.2092
55750PNSU   C3B81011   4.611  19.924  11.498 -0.2967 -0.1063  0.0588
55750PNSU   D4B81012   4.877  19.955  11.120  0.2967  0.1174 -0.2933
55750PNSU   C5B81013   4.916  19.972  10.736 -0.1031 -0.3245 -0.4335
55750PNSU   C6B81014   4.614  20.206  10.412 -0.3704 -0.0222  0.2198
55751PNSU    S181015   6.067  12.255  16.453  0.2039 -0.0461  0.0889
55751PNSU    C181016   5.883  11.818  16.174 -0.2178 -0.0624  0.2291
55751PNSU    C281017   6.000  12.016  16.367  0.0835  0.0368 -0.0508
55751PNSU    C381018   6.155  11.771  16.291 -0.1130 -0.0965 -0.0247
55751PNSU   AM181019   6.549  11.934  16.299 -0.2747  0.2971  0.0225
55751PNSU   AM281020   6.578  11.665  16.406  0.1936  0.0550  0.1307
55751PNSU   T1A81021   6.807  12.129  15.992 -0.1750 -0.0194  0.2193
55751PNSU   C2A81022   7.061  12.217  15.641  0.0777  0.3730  0.1584
55751PNSU   C3A81023   7.344  12.353  15.311  0.3366  0.1394 -0.1844
55751PNSU   C1B81024   6.836  11.639  16.041 -0.1409  0.1855 -0.2768
55751PNSU   C2B81025   7.247  11.752  15.737  0.1348 -0.1069  0.1353
55751PNSU   C3B81026   7.793  11.870  15.682 -0.0473  0.0915  0.0862
55751PNSU   D4B81027   8.268  11.952  15.589  0.0844 -0.0379 -0.2117
55751PNSU   C5B81028   8.341  12.346  15.656 -0.0723 -0.4519  0.0774
55751PNSU   C6B81029   8.339  12.677  15.395  0.0179 -0.2046  0.0698
55752PNSU    S181030  26.258  18.997   4.709  0.0097  0.0826  0.1308
55752PNSU    C181031  26.251  18.696   5.108 -0.2869  0.0414  0.2566
55752PNSU    C281032  26.127  18.850   4.882  0.0392 -0.3186 -0.1793
55752PNSU    C381033  25.974  18.629   5.015 -0.1134 -0.1779 -0.1185
55752PNSU   AM181034  25.554  18.556   5.025 -0.2054  0.3542  0.0316
55752PNSU   AM281035  25.842  18.443   4.950 -0.3413  0.2261  0.1432
55752PNSU   T1A81036  25.125  18.873   4.970  0.0722  0.1677  0.0378
55752PNSU   C2A81037  24.780  19.055   4.790 -0.2098  0.1405 -0.4481
55752PNSU   C3A81038  24.379  19.246   4.540 -0.0969 -0.0002  0.3160
55752PNSU   C1B81039  25.664  18.207   4.666  0.1448 -0.0296 -0.3730
55752PNSU   C2B81040  25.445  18.147   4.395  0.1417 -0.1463  0.1013
55752PNSU   C3B81041  25.094  18.127   4.091  0.1771  0.0280  0.2434
55752PNSU   D4B81042  24.653  18.351   3.876  0.0583 -0.0158  0.3844
55752PNSU   C5B81043  24.795  18.385   3.385 -0.0754 -0.1848 -0.4275
55752PNSU   C6B81044  24.639  18.763   3.214 -0.2177  0.0394 -0.2257
55753PNSU    S181045  21.752  19.514  15.509 -0.1319  0.0133  0.0363
55753PNSU    C181046  21.425  19.636  15.876 -0.2518  0.0224  0.0602
55753PNSU    C281047  21.567  19.667  15.614  0.1881  0.2164  0.3156
55753PNSU    C381048  21.267  19.669  15.623  0.1633 -0.0805 -0.2170
55753PNSU   AM181049  21.259  19.821  15.225  0.1028 -0.0431 -0.2015
55753PNSU   AM281050  21.130  19.736  15.504  0.0848  0.2908  0.0357
55753PNSU   T1A81051  20.910  19.792  14.940  0.2247 -0.2732 -0.0015
55753PNSU   C2A81052  20.581  19.785  14.671  0.1468  0.1855 -0.1009
55753PNSU   C3A81053  20.164  19.732  14.635 -0.2161  0.0716 -0.1258
55753PNSU   C1B81054  20.786  19.554  15.357  0.2712  0.2205 -0.0366
55753PNSU   C2B81055  20.413  19.593  15.091  0.3649 -0.0269 -0.0564
55753PNSU   C3B81056  19.972  19.710  15.092 -0.0831  0.1938  0.1586
55753PNSU   D4B81057  19.575  19.560  15.245 -0.3545  0.2463 -0.2398
55753PNSU   C5B81058  19.242  19.833  15.386 -0.0493  0.3135  0.1182
55753PNSU   C6B81059  19.284  20.283  15.553  0.2504  0.0807 -0.1103
55754PNSU    S181060  33.912  14.790   6.507  0.0005 -0.1951 -0.0658
55754PNSU    C181061  34.379  14.899   6.717 -0.1049  0.1214  0.0539
55754PNSU    C281062  34.169  14.841   6.511 -0.0183 -0.1043  0.0277
55754PNSU    C381063  34.408  15.006   6.439 -0.1126  0.0265  0.0163
55754PNSU   AM181064  34.362  14.964   6.017 -0.1693 -0.0239  0.0277
55754PNSU   AM281065  34.579  15.152   6.260  0.3050 -0.1560  0.0122
55754PNSU   T1A81066  34.532  15.012   5.655 -0.0908 -0.1081 -0.0434
55754PNSU   C2A81067  34.832  14.911   5.435  0.3638  0.0792 -0.0715
55754PNSU   C3A81068  35.123  14.757   5.117 -0.0620 -0.2937  0.1876
55754PNSU   C1B81069  34.825  14.947   6.044 -0.1129 -0.0705 -0.1716
55754PNSU   C2B81070  35.233  14.806   5.713 -0.0483 -0.1107  0.2108
55754PNSU   C3B81071   0.189  14.686   5.343  0.0983 -0.0917 -0.3300
55754PNSU   D4B81072   0.511  14.637   4.984 -0.0051  0.1711 -0.1207
55754PNSU   C5B81073   0.652  14.456   4.464 -0.1737 -0.3964 -0.0199
55754PNSU   C6B81074   0.911  14.467   4.074  0.1336  0.1728  0.1888
55755PNSU    S181075  29.254   9.401   6.295 -0.0247 -0.2053 -0.1449
55755PNSU    C181076  28.853   9.235   6.647  0.0475 -0.0141  0.0442
55755PNSU    C281077  29.051   9.345   6.451  0.0706 -0.1046  0.0164
55755PNSU    C381078  28.964   9.059   6.430  0.0995 -0.1240  0.1595
55755PNSU   AM181079  29.018   9.018   6.010 -0.1336 -0.3721  0.1522
55755PNSU   AM281080  28.939   8.792   6.349  0.2454 -0.1556  0.2277
55755PNSU   T1A81081  29.277   8.851   5.732 -0.2795  0.1886  0.3109
55755PNSU   C2A81082  29.382   8.692   5.379 -0.0908 -0.1175 -0.1230
55755PNSU   C3A81083  29.417   8.542   4.916  0.1534 -0.0036 -0.1034
55755PNSU   C1B81084  28.864   8.607   5.888  0.0333 -0.0998  0.1536
55755PNSU   C2B81085  28.937   8.511   5.586 -0.5723 -0.0467  0.4617
55755PNSU   C3B81086  29.058   8.281   5.253  0.1776  0.1021 -0.2632
55755PNSU   D4B81087  29.012   7.878   4.978  0.1577  0.0530 -0.4271
55755PNSU   C5B81088  29.050   7.386   4.998 -0.1041 -0.1370  0.0364
55755PNSU   C6B81089  29.005   6.986   5.025  0.1562 -0.1166 -0.3849
55756PNSU    S181090  34.181  10.471   8.593  0.1965 -0.2074 -0.4687
55756PNSU    C181091  33.834  10.216   8.900 -0.1147  0.1117 -0.0508
55756PNSU    C281092  33.977  10.319   8.657  0.0292  0.2336  0.0846
55756PNSU    C381093  33.901  10.029   8.675  0.0791  0.2100 -0.0759
55756PNSU   AM181094  33.816   9.801   8.326  0.1719 -0.1114  0.1098
55756PNSU   AM281095  34.007   9.775   8.622 -0.0622  0.1761 -0.1076
55756PNSU   T1A81096  33.967   9.418   8.315 -0.0924 -0.1576 -0.0553
55756PNSU   C2A81097  34.209   9.162   8.482 -0.0526 -0.1500 -0.1390
55756PNSU   C3A81098  34.442   8.881   8.514  0.1958 -0.0576 -0.2163
55756PNSU   C1B81099  34.495   9.620   8.339 -0.1440  0.0911  0.0430
55756PNSU   C2B81100  34.837   9.401   8.281 -0.2132  0.0338  0.2369
55756PNSU   C3B81101  34.965   9.077   8.443 -0.0560 -0.3335 -0.0078
55756PNSU   D4B81102  34.929   8.660   8.519 -0.1816  0.2481  0.3103
55756PNSU   C5B81103  34.972   8.317   8.261  0.1122 -0.2665  0.0322
55756PNSU   C6B81104  34.984   7.881   8.202 -0.0194 -0.1367  0.1383
55757PNSU    S181105  28.402  35.233  10.603  0.0440 -0.0679  0.1219
55757PNSU    C181106  27.932  35.047  10.619 -0.1569  0.2748 -0.1042
55757PNSU    C281107  28.204  35.094  10.501 -0.0350  0.0655  0.0902
55757PNSU    C381108  27.992  34.957  10.339 -0.0334  0.2516 -0.0707
55757PNSU   AM181109  27.913  35.195   9.995  0.2097  0.1456 -0.2014
55757PNSU   AM281110  27.797  34.814  10.128  0.2749  0.0057  0.1864
55757PNSU   T1A81111  27.881   0.022   9.654  0.1555  0.3883 -0.1400
55757PNSU   C2A81112  27.950   0.001   9.200  0.3837  0.2234  0.0896
55757PNSU   C3A81113  27.989   0.194   8.741  0.0625 -0.0691 -0.1590
55757PNSU   C1B81114  27.833  34.690   9.750 -0.0239  0.0541  0.3830
55757PNSU   C2B81115  27.773  34.809   9.392 -0.1448 -0.0410  0.1529
55757PNSU   C3B81116  27.877  34.929   8.949  0.0338 -0.1290 -0.1498
55757PNSU   D4B81117  27.950  35.151   8.534  0.2062 -0.0319 -0.2373
55757PNSU   C5B81118  27.902   0.114   8.273  0.0030  0.2443 -0.2211
55757PNSU   C6B81119  28.092   0.473   8.249 -0.2785  0.2963  0.1794
55758PNSU    S181120  24.522   2.700  12.000 -0.3256  0.1357 -0.1948
55758PNSU    C181121  24.959   2.582  11.719  0.0895 -0.1092  0.0915
55758PNSU    C281122  24.702   2.708  11.811  0.1529 -0.0863  0.2387
55758PNSU    C381123  24.754   2.670  11.517 -0.0673 -0.1943  0.2123
55758PNSU   AM181124  24.343   2.604  11.431 -0.1299  0.0441  0.3251
55758PNSU   AM281125  24.645   2.632  11.292  0.0252 -0.1634 -0.2597
55758PNSU   T1A81126  24.019   2.586  11.077  0.0673 -0.2321 -0.2460
55758PNSU   C2A81127  23.790   2.493  10.761  0.2015  0.1252  0.1768
55758PNSU   C3A81128  23.560   2.466  10.357 -0.3313 -0.1338  0.0644
55758PNSU   C1B81129  24.443   2.846  10.969 -0.0477 -0.0787  0.2011
55758PNSU   C2B81130  24.164   2.904  10.664 -0.3179  0.0018  0.0326
55758PNSU   C3B81131  23.867   2.863  10.410 -0.2043  0.1162 -0.1780
55758PNSU   D4B81132  23.488   2.908  10.060  0.0157  0.1245 -0.1605
55758PNSU   C5B81133  23.135   3.111  10.071 -0.0633  0.1307  0.2810
55758PNSU   C6B81134  22.740   3.292   9.896 -0.1296 -0.0975 -0.2530
55759PNSU    S181135  11.601  13.814  17.990  0.1183 -0.0928  0.0020
55759PNSU    C181136  11.649  14.332  18.183  0.3734 -0.0137 -0.2240
55759PNSU    C281137  11.595  14.046  18.112  0.1887  0.0132 -0.1945
55759PNSU    C381138  11.581  14.258  17.900 -0.1537  0.0647 -0.1221
55759PNSU   AM181139  11.655  14.036  17.545  0.2122  0.0265 -0.0235
55759PNSU   AM281140  11.623  14.334  17.687  0.1486  0.1248 -0.1389
55759PNSU   T1A81141  11.438  13.897  17.244  0.1083 -0.0679 -0.0307
55759PNSU   C2A81142  11.601  13.947  16.867  0.3448  0.0457 -0.0679
55759PNSU   C3A81143  11.808  14.274  16.633  0.0224 -0.0631  0.0201
55759PNSU   C1B81144  11.610  14.399  17.232  0.0701 -0.1116 -0.0628
55759PNSU   C2B81145  11.605  14.722  16.944 -0.0773 -0.1372 -0.0289
55759PNSU   C3B81146  11.764  14.823  16.601 -0.2054  0.5062 -0.0887
55759PNSU   D4B81147  11.742  14.751  16.236 -0.4344 -0.0168  0.0496
55759PNSU   C5B81148  11.599  14.714  15.764 -0.1223 -0.0577  0.0225
55759PNSU   C6B81149  11.367  14.616  15.432 -0.1429 -0.0182  0.1549
55760PNSU    S181150  13.992   3.606  17.486 -0.1625  0.0141 -0.0580
55760PNSU    C181151  13.828   3.132  17.370 -0.0250 -0.0613 -0.1291
55760PNSU    C281152  13.811   3.421  17.449 -0.0662 -0.0733 -0.0944
55760PNSU    C381153  13.643   3.317  17.223 -0.1746 -0.1066  0.0005
55760PNSU   AM181154  13.623   3.623  16.928  0.1184  0.0234  0.1131
55760PNSU   AM281155  13.444   3.343  17.124  0.0038  0.0637  0.1494
55760PNSU   T1A81156  13.434   3.662  16.480  0.1517 -0.0572 -0.0511
55760PNSU   C2A81157  13.334   3.738  16.083  0.0063 -0.0928  0.1318
55760PNSU   C3A81158  13.021   3.972  15.950 -0.1580 -0.2614  0.0049
55760PNSU   C1B81159  13.095   3.365  16.737 -0.0630 -0.0310 -0.2377
55760PNSU   C2B81160  12.850   3.377  16.496  0.0027 -0.2254  0.1418
55760PNSU   C3B81161  12.386   3.400  16.438  0.0464  0.0461  0.2072
55760PNSU   D4B81162  12.041   3.679  16.293  0.0341 -0.0195 -0.0871
55760PNSU   C5B81163  11.762   3.840  16.440  0.0544 -0.5450 -0.0623
55760PNSU   C6B81164  11.331   4.042  16.379  0.0974  0.1340 -0.0955
55761CHOL   ROH81165   0.700  11.515   9.026 -0.1681 -0.1246 -0.0302
55761CHOL    R181166   0.870  11.411   8.825 -0.1224 -0.0198 -0.0463
55761CHOL    R281167   1.041  11.570   8.677 -0.1374  0.0669  0.0294
55761CHOL    R381168   1.229  11.395   8.764 -0.1117  0.0754 -0.0090
55761CHOL    R481169   1.350  11.523   8.530 -0.3025 -0.1733 -0.2472
55761CHOL    R581170   1.328  11.309   8.564 -0.3471 -0.1369 -0.0369
55761CHOL    C181171   1.707  11.332   8.526 -0.3745 -0.3054 -0.4444
55761CHOL    C281172   1.901  11.037   8.344  0.0859  0.1016 -0.2276
55762CHOL   ROH81173  32.822  14.922   5.072  0.0864 -0.0730  0.0117
55762CHOL    R181174  32.948  14.880   4.822  0.1759 -0.1494  0.0690
55762CHOL    R281175  33.173  15.019   4.744  0.0349  0.0364 -0.0127
55762CHOL    R381176  33.274  14.769   4.705  0.3208  0.1142  0.2217
55762CHOL    R481177  33.396  14.933   4.494 -0.1259 -0.0135 -0.1417
55762CHOL    R581178  33.287  14.746   4.467  0.0870 -0.1987  0.2374
55762CHOL    C181179  33.622  14.649   4.313  0.0474  0.0303  0.0033
55762CHOL    C281180  33.932  14.699   4.115 -0.2158  0.2374 -0.0573
55763CHOL   ROH81181  25.503  22.215   7.521  0.0733 -0.1209 -0.2025
55763CHOL    R181182  25.278  22.053   7.577  0.0671 -0.1411 -0.2820
55763CHOL    R281183  25.046  22.154   7.687  0.1584 -0.2286  0.0006
55763CHOL    R381184  24.930  22.037   7.471 -0.0027  0.0943 -0.0901
55763CHOL    R481185  24.714  22.059   7.668  0.1877 -0.3689  0.1711
55763CHOL    R581186  24.777  21.878   7.564  0.1774 -0.1522 -0.2150
55763CHOL    C181187  24.412  21.894   7.453  0.0540 -0.1477  0.1851
55763CHOL    C281188  24.094  21.921   7.207  0.0890 -0.1068 -0.0429
55764CHOL   ROH81189  23.772  14.477   9.021  0.1003 -0.0490  0.0248
55764CHOL    R181190  23.527  14.335   9.020  0.1833 -0.1940 -0.0453
55764CHOL    R281191  23.283  14.459   8.982  0.0870 -0.2787  0.2786
55764CHOL    R381192  23.256  14.275   8.784  0.0853 -0.0018  0.0179
55764CHOL    R481193  22.982  14.357   8.848  0.0809 -0.1586  0.1995
55764CHOL    R581194  23.059  14.153   8.843  0.1287 -0.1354 -0.1122
55764CHOL    C181195  22.781  14.124   8.584  0.0758  0.1713 -0.0912
55764CHOL    C281196  22.478  13.870   8.448 -0.0856 -0.1963  0.0170
55765CHOL   ROH81197  20.579  34.656   8.944  0.0128  0.2762  0.0773
55765CHOL    R181198  20.683  34.682   9.206  0.0332  0.1236  0.0848
55765CHOL    R281199  20.888  34.525   9.301  0.0721  0.1005 -0.0390
55765CHOL    R381200  21.004  34.765   9.356  0.0321  0.0857  0.1081
55765CHOL    R481201  21.191  34.566   9.463  0.0214  0.0538  0.0676
55765CHOL    R581202  21.104  34.734   9.572 -0.0263 -0.0057  0.1225
55765CHOL    C181203  21.475  34.815   9.610 -0.0451  0.0139  0.2674
55765CHOL    C281204  21.698  34.570   9.782  0.2003  0.1436 -0.0503
55766CHOL   ROH81205   6.677  33.900  15.448  0.1294  0.0114  0.1002
55766CHOL    R181206   6.644  33.987  15.716  0.0176  0.0511  0.0740
55766CHOL    R281207   6.457  34.177  15.788 -0.0744 -0.0037 -0.0179
55766CHOL    R381208   6.377  33.985  15.963 -0.0561  0.0002 -0.0055
55766CHOL    R481209   6.193  34.209  16.009 -0.0442  0.0061  0.0166
55766CHOL    R581210   6.313  34.106  16.160 -0.0268  0.0038  0.0019
55766CHOL    C181211   5.964  34.047  16.302 -0.0094  0.0133  0.0485
55766CHOL    C281212   5.709  34.187  16.234 -0.0296  0.0988 -0.3282
55767CHOL   ROH81213   2.517  29.275  14.951  0.0702  0.2080  0.0654
55767CHOL    R181214   2.708  29.071  14.910 -0.0376  0.1083  0.0593
55767CHOL    R281215   2.752  28.869  15.094 -0.1288  0.0941  0.0619
55767CHOL    R381216   2.706  28.708  14.880 -0.2242  0.1071  0.0718
55767CHOL    R481217   2.888  28.554  15.050 -0.1829  0.0776  0.0087
55767CHOL    R581218   2.916  28.601  14.839 -0.2491  0.0814 -0.0023
55767CHOL    C181219   2.923  28.220  14.824 -0.3039  0.0805 -0.0131
55767CHOL    C281220   2.900  27.867  14.797 -0.1441 -0.1870 -0.1675
55768CHOL   ROH81221   5.421   9.458  15.409 -0.2086 -0.1013 -0.1917
55768CHOL    R181222   5.606   9.462  15.195 -0.1371 -0.1554 -0.1313
55768CHOL    R281223   5.871   9.531  15.229 -0.1851  0.0063 -0.0881
55768CHOL    R381224   5.916   9.291  15.110 -0.0178 -0.0545  0.0952
55768CHOL    R481225   6.153   9.452  15.045 -0.1788  0.1006 -0.1198
55768CHOL    R581226   6.025   9.346  14.903 -0.1379 -0.1291  0.0108
55768CHOL    C181227   6.359   9.180  14.826 -0.0182  0.0983  0.0337
55768CHOL    C281228   6.683   9.179  14.854 -0.2343 -0.2919  0.0197
55769CHOL   ROH81229  13.225   0.774  14.113 -0.4742  0.0462  0.0894
55769CHOL    R181230  13.333   0.810  14.372 -0.4132  0.0166  0.0684
55769CHOL    R281231  13.484   1.030  14.442 -0.2403 -0.0814  0.0060
55769CHOL    R381232  13.300   1.053  14.641 -0.1971  0.0930  0.0264
55769CHOL    R481233  13.532   1.207  14.734  0.0546 -0.3261  0.1088
55769CHOL    R581234  13.430   1.047  14.842 -0.1959 -0.2306  0.0187
55769CHOL    C181235  13.387   1.332  15.092  0.2664 -0.3048  0.1876
55769CHOL    C281236  13.184   1.529  15.261 -0.0630  0.1569  0.2440
55770CHOL   ROH81237  14.015  19.251  16.789  0.1646  0.0395 -0.1619
55770CHOL    R181238  14.069  19.193  17.061  0.0652  0.0019 -0.1493
55770CHOL    R281239  14.020  18.945  17.172  0.1361 -0.0495 -0.2321
55770CHOL    R381240  14.282  18.961  17.244  0.0949  0.0647 -0.1044
55770CHOL    R481241  14.146  18.856  17.482  0.0134  0.0805 -0.1446
55770CHOL    R581242  14.277  19.031  17.473 -0.0452  0.1251 -0.1257
55770CHOL    C181243  14.465  18.820  17.729 -0.0966  0.2632  0.0265
55770CHOL    C281244  14.815  18.497  17.664 -0.0832  0.0450  0.2638
55771CHOL   ROH81245  10.339   7.306  18.449 -0.0524 -0.1471 -0.0387
55771CHOL    R181246  10.340   7.281  18.167 -0.1949 -0.0211 -0.0513
55771CHOL    R281247  10.157   7.411  18.006 -0.1764  0.1825  0.0867
55771CHOL    R381248  10.380   7.504  17.882 -0.1637  0.0802  0.0326
55771CHOL    R481249  10.167   7.531  17.682 -0.1707  0.0619  0.0423
55771CHOL    R581250  10.358   7.429  17.656 -0.2007  0.0044  0.0626
55771CHOL    C181251  10.383   7.688  17.377 -0.1553 -0.1044 -0.0347
55771CHOL    C281252  10.368   7.529  17.079 -0.3785  0.3562  0.0177
55772CHOL   ROH81253  17.607  23.737  15.433  0.0734 -0.2570 -0.0098
55772CHOL    R181254  17.828  23.749  15.609  0.1171 -0.1949 -0.0689
55772CHOL    R281255  18.089  23.762  15.520  0.0808  0.0843 -0.1402
55772CHOL    R381256  18.099  23.983  15.679 -0.0560 -0.0164  0.0094
55772CHOL    R481257  18.355  23.983  15.536 -0.0040  0.1694  0.1041
55772CHOL    R581258  18.326  23.993  15.752 -0.0874  0.0166  0.1006
55772CHOL    C181259  18.519  24.318  15.695 -0.1814  0.1239  0.3870
55772CHOL    C281260  18.782  24.488  15.906  0.1347  0.0671  0.1800
55773CHOL   ROH81261  23.856  15.425   9.021  0.2037 -0.0696 -0.2319
55773CHOL    R181262  23.617  15.285   8.962  0.1060 -0.0490  0.1037
55773CHOL    R281263  23.369  15.371   9.048  0.1746  0.2817 -0.0220
55773CHOL    R381264  23.308  15.353   8.783  0.1140 -0.2264  0.0202
55773CHOL    R481265  23.049  15.352   8.921  0.1347  0.2976  0.0754
55773CHOL    R581266  23.120  15.205   8.776 -0.0216 -0.0781  0.3710
55773CHOL    C181267  22.804  15.325   8.598  0.0546 -0.1701  0.1718
55773CHOL    C281268  22.550  15.492   8.823 -0.1273  0.0235  0.5889
55774CHOL   ROH81269  16.116  25.852  19.274 -0.2606 -0.1200 -0.1830
55774CHOL    R181270  16.177  25.593  19.178 -0.0425 -0.1341 -0.0134
55774CHOL    R281271  16.289  25.550  18.929 -0.1039 -0.2074 -0.0279
55774CHOL    R381272  16.475  25.413  19.073  0.0953  0.0847 -0.0021
55774CHOL    R481273  16.531  25.344  18.793 -0.1482 -0.3038  0.0381
55774CHOL    R581274  16.497  25.204  18.957  0.0702 -0.0793  0.2819
55774CHOL    C181275  16.847  25.096  18.849  0.0129 -0.0860  0.1011
55774CHOL    C281276  16.820  24.773  18.730 -0.1590  0.0838  0.0866
55775CHOL   ROH81277  20.104  12.101  10.771 -0.2343  0.0402  0.1711
55775CHOL    R181278  20.375  12.065  10.846 -0.2399 -0.1330  0.1101
55775CHOL    R281279  20.533  12.272  10.938 -0.0240 -0.1903 -0.1277
55775CHOL    R381280  20.573  12.106  11.149 -0.1008 -0.0396  0.0068
55775CHOL    R481281  20.778  12.313  11.177 -0.0080 -0.1086 -0.1579
55775CHOL    R581282  20.811  12.098  11.174 -0.1043 -0.1268  0.0152
55775CHOL    C181283  20.959  12.181  11.515 -0.0706  0.0806 -0.0495
55775CHOL    C281284  21.055  12.465  11.844  0.2909  0.6605  0.2454
55776CHOL   ROH81285   1.711  22.228   9.265 -0.0659  0.0309 -0.0823
55776CHOL    R181286   1.750  22.366   9.020 -0.1154  0.1129 -0.0445
55776CHOL    R281287   1.794  22.638   9.008 -0.1103  0.1167  0.0381
55776CHOL    R381288   2.015  22.564   8.868 -0.1429  0.1569 -0.0348
55776CHOL    R481289   1.993  22.853   8.824 -0.1615  0.1652  0.0399
55776CHOL    R581290   2.008  22.699   8.670 -0.1950  0.2035 -0.0002
55776CHOL    C181291   2.315  22.908   8.584 -0.2219  0.2315 -0.0275
55776CHOL    C281292   2.310  23.154   8.306  0.1956  0.1171 -0.2949
55777CHOL   ROH81293   6.657  30.107  16.753 -0.3560 -0.2756 -0.1986
55777CHOL    R181294   6.629  30.140  17.033 -0.1623 -0.1589 -0.1919
55777CHOL    R281295   6.397  30.235  17.149 -0.0765 -0.0945 -0.0717
55777CHOL    R381296   6.415  30.007  17.295  0.0058 -0.0364  0.0103
55777CHOL    R481297   6.170  30.137  17.390 -0.1306 -0.1713 -0.1535
55777CHOL    R581298   6.337  30.069  17.513 -0.1451 -0.0189 -0.0483
55777CHOL    C181299   6.054  29.865  17.667 -0.0848 -0.1612 -0.1245
55777CHOL    C281300   5.658  29.919  17.683  0.1097 -0.1947 -0.1227
55778CHOL   ROH81301   6.008  20.673   9.100 -0.0114 -0.2105  0.1438
55778CHOL    R181302   5.812  20.648   9.303 -0.1191 -0.1026  0.0539
55778CHOL    R281303   5.871  20.680   9.571 -0.2259 -0.1284  0.0804
55778CHOL    R381304   5.669  20.862   9.560 -0.1253 -0.0215 -0.0168
55778CHOL    R481305   5.683  20.783   9.843 -0.2472  0.0328  0.0051
55778CHOL    R581306   5.506  20.779   9.715 -0.2141  0.1003 -0.0440
55778CHOL    C181307   5.384  21.014   9.990 -0.1651  0.2271 -0.1301
55778CHOL    C281308   5.185  21.038  10.347  0.0596 -0.0476 -0.1398
55779CHOL   ROH81309  27.271  27.613   8.168  0.2131 -0.0581  0.0627
55779CHOL    R181310  27.188  27.681   7.906  0.2607 -0.1129  0.0328
55779CHOL    R281311  27.093  27.933   7.841  0.0315 -0.2012  0.0200
55779CHOL    R381312  27.287  27.922   7.651  0.1307  0.0206  0.1068
55779CHOL    R481313  27.071  28.076   7.528  0.0809 -0.0765  0.0733
55779CHOL    R581314  27.167  27.899   7.445  0.2447  0.0278  0.0394
55779CHOL    C181315  27.240  28.149   7.167  0.2022  0.2039  0.1858
55779CHOL    C281316  27.314  28.108   6.839  0.2992 -0.1298  0.3887
55780CHOL   ROH81317  25.331  22.664   2.043 -0.1671 -0.0170  0.1399
55780CHOL    R181318  25.361  22.466   2.243 -0.0448 -0.0629  0.0766
55780CHOL    R281319  25.553  22.268   2.228  0.1314  0.1075  0.0532
55780CHOL    R381320  25.621  22.361   2.474 -0.0105  0.0802  0.1031
55780CHOL    R481321  25.733  22.090   2.463  0.1120  0.1314  0.0862
55780CHOL    R581322  25.601  22.170   2.617  0.0137  0.0383  0.0505
55780CHOL    C181323  25.902  22.074   2.831 -0.0327  0.1199  0.1523
55780CHOL    C281324  26.239  21.930   3.056  0.2245 -0.0823 -0.3591
55781CHOL   ROH81325  22.268  29.757  11.176 -0.1200  0.1714  0.3035
55781CHOL    R181326  21.986  29.732  11.177 -0.1249  0.2260  0.3312
55781CHOL    R281327  21.818  29.945  11.230 -0.0852  0.3207  0.0903
55781CHOL    R381328  21.707  29.876  10.992 -0.0965  0.0707  0.1665
55781CHOL    R481329  21.499  30.030  11.130 -0.0376  0.3407 -0.0443
55781CHOL    R581330  21.478  29.830  11.044 -0.1215  0.2417  0.2051
55781CHOL    C181331  21.208  30.015  10.847 -0.0202  0.1178 -0.0515
55781CHOL    C281332  20.920  29.864  10.684 -0.0834  0.0612 -0.1535
55782CHOL   ROH81333  29.831  14.598   3.654 -0.0742 -0.0951  0.1109
55782CHOL    R181334  29.901  14.632   3.382 -0.1196  0.0960  0.1228
55782CHOL    R281335  29.959  14.420   3.215  0.2138  0.2336  0.0595
55782CHOL    R381336  29.767  14.531   3.059  0.0432 -0.0158  0.0892
55782CHOL    R481337  29.919  14.359   2.877  0.1816  0.1111  0.0849
55782CHOL    R581338  29.875  14.571   2.849 -0.0620  0.0572  0.0484
55782CHOL    C181339  29.714  14.429   2.534  0.0030 -0.1944  0.1276
55782CHOL    C281340  29.772  14.593   2.123  0.0656  0.0795 -0.0913
55783CHOL   ROH81341  24.383  35.372  10.883  0.3082 -0.0220 -0.0590
55783CHOL    R181342  24.350  35.234  10.638  0.1663  0.0118 -0.0595
55783CHOL    R281343  24.107  35.216  10.509  0.1001  0.0660  0.0581
55783CHOL    R381344  24.248  35.317  10.299  0.0125  0.0674 -0.0002
55783CHOL    R481345  24.040  35.151  10.176  0.1965 -0.2422  0.0978
55783CHOL    R581346  24.255  35.138  10.140  0.2155 -0.0401  0.1268
55783CHOL    C181347  24.133  35.207   9.785  0.1707 -0.4196  0.0659
55783CHOL    C281348  23.798  35.318   9.786 -0.1786 -0.1415 -0.2818
55784CHOL   ROH81349  11.392  15.672  17.654 -0.1505  0.1917  0.1394
55784CHOL    R181350  11.422  15.858  17.443 -0.0002  0.1024  0.0814
55784CHOL    R281351  11.590  15.813  17.228 -0.0632 -0.1170  0.0758
55784CHOL    R381352  11.365  15.861  17.083 -0.0354  0.0489  0.0867
55784CHOL    R481353  11.585  15.908  16.896 -0.0061  0.0344  0.1173
55784CHOL    R581354  11.423  16.045  16.942  0.0536  0.0868  0.1719
55784CHOL    C181355  11.371  16.007  16.566  0.0532  0.2787  0.1518
55784CHOL    C281356  11.345  16.170  16.174  0.1910 -0.4677  0.1651
55785CHOL   ROH81357  31.023   3.611  10.704  0.0453 -0.4188  0.1862
55785CHOL    R181358  31.118   3.480  10.471 -0.2422 -0.3217  0.0107
55785CHOL    R281359  30.982   3.487  10.231 -0.2518  0.2669  0.0229
55785CHOL    R381360  31.220   3.578  10.136 -0.0669 -0.0993  0.1278
55785CHOL    R481361  31.079   3.476   9.899 -0.1623  0.2190  0.0507
55785CHOL    R581362  31.280   3.421   9.965 -0.2756 -0.1404  0.0940
55785CHOL    C181363  31.360   3.555   9.617  0.0634 -0.1527  0.1656
55785CHOL    C281364  31.533   3.373   9.243 -0.0743  0.3469 -0.0931
55786CHOL   ROH81365  25.305   7.015   9.706 -0.1247 -0.0885  0.1725
55786CHOL    R181366  25.269   7.053   9.428 -0.0065  0.0199  0.1717
55786CHOL    R281367  25.133   6.873   9.269  0.1461  0.0341  0.0256
55786CHOL    R381368  24.986   7.091   9.201  0.0871  0.0027  0.0515
55786CHOL    R481369  24.865   6.870   9.051  0.0273 -0.0484  0.1709
55786CHOL    R581370  24.937   7.059   8.969 -0.0355 -0.0605  0.0851
55786CHOL    C181371  24.572   7.074   8.860 -0.0972 -0.1258  0.2797
55786CHOL    C281372  24.221   7.180   8.804  0.2276 -0.1143 -0.1023
55787CHOL   ROH81373  10.890  24.687  21.424 -0.0279 -0.2476 -0.1456
55787CHOL    R181374  11.134  24.711  21.281 -0.1203 -0.5629 -0.3628
55787CHOL    R281375  11.160  24.634  21.017 -0.6533  0.0475 -0.6089
55787CHOL    R381376  11.250  24.888  20.985  0.0251 -0.1069 -0.0379
55787CHOL    R481377  11.356  24.742  20.754 -0.5756  0.1705 -0.5007
55787CHOL    R581378  11.471  24.862  20.895 -0.1170 -0.4963 -0.2840
55787CHOL    C181379  11.555  25.044  20.571  0.1066  0.0966  0.0984
55787CHOL    C281380  11.687  25.346  20.344  0.1798 -0.1899 -0.2589
55788CHOL   ROH81381   8.409   3.447  18.620  0.1400 -0.0989 -0.0530
55788CHOL    R181382   8.470   3.272  18.406 -0.0407 -0.0869 -0.1158
55788CHOL    R281383   8.306   3.242  18.186 -0.0906  0.1341 -0.1103
55788CHOL    R381384   8.533   3.303  18.049 -0.0481 -0.0279 -0.1120
55788CHOL    R481385   8.351   3.193  17.847 -0.1036  0.0445 -0.0990
55788CHOL    R581386   8.555   3.126  17.889 -0.1463 -0.0697 -0.0780
55788CHOL    C181387   8.590   3.220  17.521 -0.0713 -0.1596 -0.0934
55788CHOL    C281388   8.676   3.268  17.221 -0.1277  0.2534  0.1983
55789CHOL   ROH81389  34.154  33.106  12.715  0.0656  0.2696  0.2606
55789CHOL    R181390  34.434  33.074  12.687  0.0320 -0.0134  0.2362
55789CHOL    R281391  34.545  32.885  12.519 -0.1745  0.0821 -0.0123
55789CHOL    R381392  34.677  33.100  12.418  0.0782  0.0718  0.2865
55789CHOL    R481393  34.820  32.867  12.310 -0.2930  0.0458 -0.1654
55789CHOL    R581394  34.908  33.034  12.419 -0.0095 -0.2541  0.0763
55789CHOL    C181395  35.104  33.059  12.093 -0.1245  0.0142  0.0260
55789CHOL    C281396   0.020  33.117  11.839  0.3211 -0.0299  0.1405
55790CHOL   ROH81397  19.920  34.234  13.129  0.2398 -0.1204 -0.1004
55790CHOL    R181398  19.729  34.220  12.921  0.1976 -0.2056 -0.0567
55790CHOL    R281399  19.633  34.445  12.792 -0.0681 -0.2324  0.0870
55790CHOL    R381400  19.714  34.312  12.569  0.0116 -0.0325 -0.0040
55790CHOL    R481401  19.517  34.506  12.472 -0.1680 -0.1484  0.1391
55790CHOL    R581402  19.515  34.291  12.437  0.0114 -0.1266  0.0145
55790CHOL    C181403  19.526  34.417  12.077 -0.1519  0.0880  0.0840
55790CHOL    C281404  19.174  34.155  11.818 -0.1874  0.2323  0.0974
55791CHOL   ROH81405   8.760  13.392  13.837  0.0704 -0.2369  0.0707
55791CHOL    R181406   8.649  13.449  14.091  0.1904 -0.1504  0.1040
55791CHOL    R281407   8.418  13.329  14.183  0.0560  0.1203  0.1219
55791CHOL    R381408   8.575  13.264  14.395  0.0150 -0.1220  0.0788
55791CHOL    R481409   8.307  13.301  14.509  0.0673  0.1195  0.1258
55791CHOL    R581410   8.491  13.398  14.575  0.1792 -0.0973  0.1384
55791CHOL    C181411   8.389  13.223  14.898  0.0352 -0.1084  0.0877
55791CHOL    C281412   8.472  13.265  15.321 -0.0379  0.0200 -0.0900
55792CHOL   ROH81413  25.028  10.737   9.510  0.0815  0.0489 -0.0563
55792CHOL    R181414  24.755  10.708   9.440  0.0807 -0.1875  0.0416
55792CHOL    R281415  24.582  10.545   9.581  0.2035 -0.1128  0.2811
55792CHOL    R381416  24.433  10.772   9.598  0.0822 -0.1730  0.0387
55792CHOL    R481417  24.260  10.560   9.704  0.2169 -0.1449  0.3199
55792CHOL    R581418  24.211  10.701   9.544  0.1110 -0.3592  0.1612
55792CHOL    C181419  23.932  10.782   9.791  0.1103 -0.2198  0.1149
55792CHOL    C281420  23.738  10.592  10.057 -0.1490 -0.0588  0.3006
55793CHOL   ROH81421  14.371  20.304  16.802 -0.4404 -0.1092  0.0702
55793CHOL    R181422  14.349  20.135  17.028 -0.2501 -0.0601  0.1253
55793CHOL    R281423  14.569  20.017  17.146 -0.1430  0.0282  0.0126
55793CHOL    R381424  14.471  20.135  17.371 -0.0296  0.0552  0.0483
55793CHOL    R481425  14.595  19.887  17.466 -0.1465 -0.0267 -0.0095
55793CHOL    R581426  14.390  19.953  17.504 -0.1027  0.0824  0.0427
55793CHOL    C181427  14.517  19.922  17.862 -0.0419 -0.0335  0.0114
55793CHOL    C281428  14.798  19.894  18.050 -0.1161 -0.1987 -0.0102
55794CHOL   ROH81429  18.941   7.575  13.107 -0.0516 -0.0011 -0.0015
55794CHOL    R181430  19.109   7.433  13.285 -0.0254  0.0278 -0.0031
55794CHOL    R281431  19.358   7.527  13.361 -0.1046  0.1453  0.1157
55794CHOL    R381432  19.258   7.492  13.611 -0.1671 -0.0135  0.0692
55794CHOL    R481433  19.549   7.470  13.643 -0.1764 -0.0569  0.1238
55794CHOL    R581434  19.400   7.325  13.709 -0.2031 -0.0893 -0.0078
55794CHOL    C181435  19.567   7.403  14.043 -0.2768 -0.3238  0.0847
55794CHOL    C281436  19.692   7.322  14.330 -0.0132  0.0552 -0.1435
55795CHOL   ROH81437  29.362  14.633   3.787  0.1285 -0.1540 -0.1131
55795CHOL    R181438  29.390  14.742   3.527  0.1652 -0.1786 -0.1193
55795CHOL    R281439  29.396  14.585   3.300 -0.1667 -0.1751 -0.1323
55795CHOL    R381440  29.195  14.748   3.220  0.0302  0.1223 -0.0289
55795CHOL    R481441  29.376  14.736   2.990 -0.1884 -0.2872 -0.1861
55795CHOL    R581442  29.303  14.917   3.089  0.1951 -0.1171 -0.2040
55795CHOL    C181443  29.174  14.978   2.735 -0.0157 -0.0736 -0.1203
55795CHOL    C281444  29.332  14.885   2.375  0.0605  0.0561  0.1930
55796CHOL   ROH81445  24.773  24.240   8.127 -0.1280  0.0024  0.0338
55796CHOL    R181446  24.655  24.359   7.898 -0.0797  0.0971  0.0584
55796CHOL    R281447  24.435  24.251   7.771  0.0421  0.0653 -0.1253
55796CHOL    R381448  24.331  24.499   7.811 -0.1131 -0.0182 -0.0042
55796CHOL    R481449  24.140  24.366   7.632  0.0799  0.0204 -0.2434
55796CHOL    R581450  24.237  24.558   7.599  0.0053  0.0977 -0.0255
55796CHOL    C181451  23.871  24.665   7.588 -0.0440 -0.0843 -0.1986
55796CHOL    C281452  23.704  24.754   7.355  0.1838 -0.4531  0.4128
55797CHOL   ROH81453  24.649   1.614   7.754  0.0221  0.1579  0.0637
55797CHOL    R181454  24.800   1.521   7.974 -0.0217  0.2038  0.1138
55797CHOL    R281455  25.076   1.528   7.979 -0.0074 -0.1586  0.0030
55797CHOL    R381456  25.037   1.663   8.212  0.2549  0.1591 -0.1328
55797CHOL    R481457  25.320   1.586   8.217  0.1278 -0.3232 -0.0943
55797CHOL    R581458  25.171   1.546   8.371  0.0772  0.0955 -0.0281
55797CHOL    C181459  25.425   1.747   8.574  0.4525 -0.1207 -0.2783
55797CHOL    C281460  25.589   2.029   8.767  0.1916 -0.0216 -0.1054
55798CHOL   ROH81461  23.727  18.079   7.649 -0.0314  0.0094 -0.2472
55798CHOL    R181462  23.454  18.060   7.721  0.0231  0.0927 -0.0135
55798CHOL    R281463  23.311  18.274   7.820  0.1049  0.2058 -0.1384
55798CHOL    R381464  23.141  18.215   7.616 -0.0552 -0.0175  0.0572
55798CHOL    R481465  22.996  18.411   7.779  0.0744  0.1648 -0.0461
55798CHOL    R581466  22.924  18.215   7.718  0.0229  0.0973  0.2263
55798CHOL    C181467  22.654  18.435   7.563 -0.0935 -0.0691  0.1913
55798CHOL    C281468  22.442  18.662   7.301  0.1277 -0.0154  0.0893
55799CHOL   ROH81469  27.120   7.644   7.871  0.1349  0.1022 -0.1985
55799CHOL    R181470  26.960   7.445   7.749  0.0273  0.2028 -0.2224
55799CHOL    R281471  26.814   7.492   7.519  0.1848  0.2612 -0.3111
55799CHOL    R381472  26.950   7.275   7.428  0.0470  0.1183 -0.1784
55799CHOL    R481473  26.706   7.284   7.265  0.0418  0.1595 -0.1676
55799CHOL    R581474  26.779   7.114   7.380 -0.0542  0.1899 -0.0609
55799CHOL    C181475  26.770   6.959   7.031 -0.1711 -0.0341  0.0404
55799CHOL    C281476  26.692   6.651   6.881  0.0908 -0.2132 -0.1615
55800CHOL   ROH81477  18.019  12.459  13.856 -0.0385  0.0914  0.0658
55800CHOL    R181478  18.039  12.589  14.107  0.0809  0.0364  0.0850
55800CHOL    R281479  18.257  12.557  14.274  0.1784  0.0301 -0.0428
55800CHOL    R381480  18.264  12.829  14.263  0.1323  0.0335  0.0161
55800CHOL    R481481  18.448  12.758  14.481 -0.0725  0.0304  0.1910
55800CHOL    R581482  18.280  12.896  14.493 -0.1150 -0.0070  0.0470
55800CHOL    C181483  18.565  13.130  14.591 -0.2622  0.0339  0.3824
55800CHOL    C281484  18.400  13.402  14.776  0.2455  0.1422 -0.3894
55801CHOL   ROH81485  31.593  20.625   2.356 -0.1848  0.0128  0.0717
55801CHOL    R181486  31.555  20.380   2.219 -0.1122  0.1522 -0.2024
55801CHOL    R281487  31.389  20.181   2.315  0.2599 -0.1686 -0.2116
55801CHOL    R381488  31.275  20.202   2.068 -0.1441  0.0398 -0.0133
55801CHOL    R481489  31.172  19.949   2.176  0.2029 -0.1595 -0.1378
55801CHOL    R581490  31.273  19.977   1.985 -0.1162  0.1326 -0.2684
55801CHOL    C181491  30.940  19.835   1.864 -0.2096  0.0413  0.0913
55801CHOL    C281492  30.822  19.587   1.880 -0.3686 -0.0071 -0.0855
55802CHOL   ROH81493   0.774  23.306  10.300 -0.0589  0.1812 -0.0522
55802CHOL    R181494   1.036  23.406  10.261 -0.0662  0.2359  0.0386
55802CHOL    R281495   1.132  23.476  10.012  0.0459  0.1407  0.0562
55802CHOL    R381496   1.186  23.713  10.135 -0.0858  0.2172 -0.0320
55802CHOL    R481497   1.349  23.717   9.891  0.1810  0.0610  0.1383
55802CHOL    R581498   1.419  23.749  10.095 -0.0396  0.1875  0.1978
55802CHOL    C181499   1.525  24.079   9.936  0.1361  0.0867  0.1033
55802CHOL    C281500   1.670  24.305   9.940  0.1200 -0.1356  0.1515
55803CHOL   ROH81501  15.323  13.600  18.642 -0.2551  0.1227 -0.0762
55803CHOL    R181502  15.327  13.531  18.367 -0.1410  0.0868 -0.0658
55803CHOL    R281503  15.403  13.281  18.278 -0.1125  0.0721 -0.0013
55803CHOL    R381504  15.162  13.288  18.153 -0.0596  0.0652 -0.1047
55803CHOL    R481505  15.342  13.164  17.959  0.0075 -0.0117  0.0063
55803CHOL    R581506  15.214  13.337  17.925  0.0420 -0.0061 -0.0967
55803CHOL    C181507  15.080  13.101  17.656  0.1270 -0.0668 -0.0860
55803CHOL    C281508  15.043  12.746  17.581  0.1004  0.0610  0.1595
55804CHOL   ROH81509   4.130  22.703   8.022  0.1587  0.0317  0.2230
55804CHOL    R181510   4.029  22.523   8.216  0.1283 -0.1209  0.0667
55804CHOL    R281511   3.766  22.527   8.300  0.1761 -0.0188  0.2152
55804CHOL    R381512   3.773  22.265   8.229 -0.0619  0.0576 -0.1001
55804CHOL    R481513   3.590  22.276   8.458  0.4402 -0.1390  0.3201
55804CHOL    R581514   3.765  22.147   8.437  0.3583 -0.1755 -0.2104
55804CHOL    C181515   3.494  21.883   8.484  0.3706 -0.1374  0.0851
55804CHOL    C281516   3.482  21.609   8.807 -0.1823  0.2776  0.0653
55805CHOL   ROH81517   2.209  32.634  16.170 -0.0821 -0.2354  0.0311
55805CHOL    R181518   2.399  32.699  15.971 -0.1373 -0.1930 -0.0078
55805CHOL    R281519   2.642  32.570  15.950 -0.0198  0.0122  0.0812
55805CHOL    R381520   2.561  32.528  15.694  0.0221 -0.2282  0.1063
55805CHOL    R481521   2.832  32.417  15.705  0.2016  0.2037  0.1313
55805CHOL    R581522   2.758  32.564  15.562 -0.0446  0.0263  0.0734
55805CHOL    C181523   2.867  32.288  15.322  0.3700  0.0899  0.1839
55805CHOL    C281524   3.134  32.172  15.041  0.1604  0.1959 -0.0777
55806CHOL   ROH81525  29.988  17.483   3.547  0.1012  0.0953  0.1538
55806CHOL    R181526  30.028  17.383   3.285  0.1007 -0.0076  0.1921
55806CHOL    R281527  29.986  17.538   3.060 -0.0905 -0.1540  0.1243
55806CHOL    R381528  30.241  17.464   3.001 -0.0487  0.0187  0.0872
55806CHOL    R481529  30.141  17.586   2.754 -0.1724 -0.0679  0.0965
55806CHOL    R581530  30.230  17.389   2.774 -0.0324 -0.0036  0.0947
55806CHOL    C181531  30.470  17.545   2.522 -0.1807  0.1449  0.0455
55806CHOL    C281532  30.116  17.690   2.275 -0.1098  0.0158 -0.0206
55807CHOL   ROH81533  20.911   5.487  13.044  0.1191  0.0251  0.0466
55807CHOL    R181534  21.177   5.451  12.954  0.1305  0.0325  0.0777
55807CHOL    R281535  21.259   5.519  12.700  0.1284 -0.0848  0.0448
55807CHOL    R381536  21.447   5.664  12.833  0.0922  0.0245 -0.0221
55807CHOL    R481537  21.568   5.608  12.572  0.1591 -0.1811  0.0519
55807CHOL    R581538  21.655   5.566  12.767  0.1106 -0.0248  0.1081
55807CHOL    C181539  21.924   5.795  12.623  0.1429 -0.1344 -0.0067
55807CHOL    C281540  22.216   5.913  12.403  0.2540  0.0834  0.2540
55808CHOL   ROH81541  32.120  24.948   6.331 -0.0664 -0.2684 -0.1925
55808CHOL    R181542  32.282  24.988   6.101 -0.0824 -0.1766 -0.1880
55808CHOL    R281543  32.203  25.147   5.890 -0.0997 -0.0983 -0.1209
55808CHOL    R381544  32.441  25.270   5.936 -0.0996 -0.1100 -0.0915
55808CHOL    R481545  32.399  25.294   5.647 -0.3033  0.3294 -0.0319
55808CHOL    R581546  32.575  25.212   5.746 -0.2140  0.2161 -0.2767
55808CHOL    C181547  32.737  25.495   5.548 -0.4225  0.5679  0.0475
55808CHOL    C281548  32.666  25.841   5.646 -0.0303 -0.1378  0.3217
55809CHOL   ROH81549  23.679  14.593  10.016  0.2677 -0.1423 -0.0815
55809CHOL    R181550  23.459  14.415  10.028  0.2388 -0.1034 -0.0349
55809CHOL    R281551  23.215  14.487  10.137  0.2743 -0.0604  0.0185
55809CHOL    R381552  23.120  14.404   9.896  0.2081 -0.0425  0.0382
55809CHOL    R481553  22.885  14.406  10.071  0.2218  0.1215  0.0546
55809CHOL    R581554  22.955  14.239   9.951  0.1156  0.0620  0.0752
55809CHOL    C181555  22.604  14.281   9.807  0.1293  0.2445  0.0941
55809CHOL    C281556  22.236  14.219   9.835 -0.1297  0.0898 -0.1386
55810CHOL   ROH81557  26.571  26.485   7.406 -0.1791 -0.0947 -0.0955
55810CHOL    R181558  26.458  26.719   7.294 -0.2972 -0.0767  0.0582
55810CHOL    R281559  26.513  26.802   7.036 -0.0639  0.3065  0.2239
55810CHOL    R381560  26.242  26.800   7.013 -0.0368  0.0324 -0.1122
55810CHOL    R481561  26.335  26.966   6.789  0.0687  0.1503  0.0226
55810CHOL    R581562  26.188  27.022   6.940 -0.1755 -0.0160 -0.1540
55810CHOL    C181563  25.977  27.060   6.624  0.1713 -0.1981 -0.4100
55810CHOL    C281564  25.886  27.370   6.750 -0.0824  0.3040 -0.0223
55811CHOL   ROH81565   7.831   0.117  15.991 -0.1690 -0.1120 -0.1575
55811CHOL    R181566   7.774   0.195  16.257  0.0210 -0.1602 -0.1026
55811CHOL    R281567   7.544   0.332  16.326  0.1654 -0.0004  0.0545
55811CHOL    R381568   7.514   0.127  16.502  0.0839 -0.0370 -0.0003
55811CHOL    R481569   7.314   0.326  16.583 -0.0520 -0.1120 -0.1400
55811CHOL    R581570   7.465   0.235  16.710 -0.1278 -0.0809 -0.0237
55811CHOL    C181571   7.150   0.131  16.898 -0.2553 -0.2114 -0.3052
55811CHOL    C281572   6.897   0.013  17.080  0.0449  0.1578 -0.2345
55812CHOL   ROH81573   2.389  29.614  12.240 -0.1469  0.1637 -0.0568
55812CHOL    R181574   2.216  29.648  12.461  0.0778  0.1400  0.1244
55812CHOL    R281575   2.003  29.480  12.511 -0.1039  0.3615  0.1044
55812CHOL    R381576   2.121  29.455  12.755  0.0665 -0.0702 -0.0172
55812CHOL    R481577   1.853  29.341  12.789 -0.0640  0.2605  0.0758
55812CHOL    R581578   1.944  29.497  12.911  0.2532  0.0032  0.1764
55812CHOL    C181579   1.876  29.237  13.180  0.1192 -0.2033 -0.0551
55812CHOL    C281580   1.548  29.169  13.459 -0.1940  0.0814 -0.1453
55813CHOL   ROH81581  21.002  11.062  10.096  0.1722 -0.3863 -0.0631
55813CHOL    R181582  21.183  11.277  10.062 -0.0309 -0.2457 -0.2728
55813CHOL    R281583  21.379  11.337  10.247 -0.0795  0.1151 -0.3347
55813CHOL    R381584  21.543  11.317  10.032 -0.0678  0.0659 -0.3217
55813CHOL    R481585  21.713  11.424  10.245 -0.1091  0.2269 -0.3675
55813CHOL    R581586  21.685  11.510  10.047 -0.1331  0.1218 -0.4108
55813CHOL    C181587  22.062  11.456  10.042 -0.1146  0.2458 -0.3746
55813CHOL    C281588  22.547  11.432   9.925 -0.0700 -0.0684 -0.0625
55814CHOL   ROH81589  10.758  17.697  18.791 -0.0770  0.2182  0.0081
55814CHOL    R181590  10.975  17.818  18.654  0.0507  0.0622  0.0710
55814CHOL    R281591  10.940  17.985  18.438  0.2480 -0.1190 -0.1073
55814CHOL    R381592  11.089  18.157  18.587  0.1579 -0.0147 -0.1364
55814CHOL    R481593  11.139  18.237  18.309 -0.0275  0.0858 -0.1375
55814CHOL    R581594  11.290  18.187  18.459  0.0780  0.1904 -0.2113
55814CHOL    C181595  11.396  18.544  18.374 -0.2725  0.3032 -0.1828
55814CHOL    C281596  11.419  18.853  18.228 -0.0581 -0.0441 -0.0904
55815CHOL   ROH81597   8.870  21.755  17.274  0.0878 -0.1287 -0.0372
55815CHOL    R181598   8.756  21.819  17.525  0.2705 -0.1455  0.0513
55815CHOL    R281599   8.484  21.803  17.574  0.2530  0.2705  0.1157
55815CHOL    R381600   8.564  21.646  17.781  0.0532 -0.0399 -0.0391
55815CHOL    R481601   8.277  21.689  17.825  0.1722  0.5648  0.1842
55815CHOL    R581602   8.437  21.726  17.968  0.3574  0.1207  0.0998
55815CHOL    C181603   8.230  21.475  18.167 -0.0627  0.4449  0.0787
55815CHOL    C281604   8.281  21.113  18.346 -0.0019 -0.3199  0.1440
55816CHOL   ROH81605  25.164  20.652   7.676 -0.0346 -0.1924  0.1154
55816CHOL    R181606  25.008  20.673   7.441 -0.0399 -0.0566  0.1304
55816CHOL    R281607  24.761  20.552   7.415 -0.0620 -0.0007  0.0842
55816CHOL    R381608  24.681  20.804   7.352 -0.0198  0.0428  0.2019
55816CHOL    R481609  24.455  20.633   7.276 -0.0538  0.1184  0.1336
55816CHOL    R581610  24.557  20.778   7.148 -0.0334  0.1577  0.1951
55816CHOL    C181611  24.202  20.916   7.135 -0.0092  0.2285  0.2731
55816CHOL    C281612  24.091  20.842   6.820 -0.1763 -0.5469  0.2417
55817CHOL   ROH81613  10.900  30.515  21.155 -0.0218  0.0685 -0.0565
55817CHOL    R181614  10.907  30.516  20.872  0.0300 -0.0032 -0.0553
55817CHOL    R281615  11.132  30.590  20.729  0.0400  0.0069 -0.0324
55817CHOL    R381616  11.098  30.347  20.612  0.1133 -0.0304  0.0232
55817CHOL    R481617  11.223  30.512  20.405 -0.3323  0.0893 -0.1591
55817CHOL    R581618  11.039  30.398  20.386 -0.2510 -0.0917  0.1009
55817CHOL    C181619  11.244  30.239  20.106 -0.4803  0.1018 -0.1807
55817CHOL    C281620  11.023  30.321  19.833 -0.0286 -0.3661  0.0766
55818CHOL   ROH81621  25.701   0.011   7.386  0.0571  0.1557  0.0877
55818CHOL    R181622  25.702  35.362   7.667  0.0692  0.1972  0.0930
55818CHOL    R281623  25.787  35.129   7.788 -0.0645  0.1607  0.1190
55818CHOL    R381624  25.951  35.297   7.924  0.0596  0.0773  0.0718
55818CHOL    R481625  25.825  35.133   8.132 -0.1419  0.3014  0.1260
55818CHOL    R581626  25.830  35.351   8.124  0.0626  0.2926  0.0158
55818CHOL    C181627  26.002  35.293   8.460 -0.0699  0.3057  0.0860
55818CHOL    C281628  25.854   0.239   8.678  0.3158  0.0085  0.0721
55819CHOL   ROH81629  27.655  19.093   3.428 -0.0625 -0.0281  0.1704
55819CHOL    R181630  27.613  19.228   3.183 -0.0063  0.0946  0.2280
55819CHOL    R281631  27.683  19.119   2.939  0.0277  0.2060  0.1884
55819CHOL    R381632  27.423  19.169   2.877  0.0431  0.2593  0.1650
55819CHOL    R481633  27.570  19.221   2.629  0.0635  0.1211  0.1471
55819CHOL    R581634  27.432  19.358   2.729  0.1017  0.2007  0.0930
55819CHOL    C181635  27.259  19.328   2.390  0.0988  0.1218  0.1010
55819CHOL    C281636  27.116  19.632   2.080 -0.2096  0.0864 -0.2611
55820CHOL   ROH81637  22.071  30.051   7.437  0.0450  0.0094 -0.1543
55820CHOL    R181638  22.311  30.017   7.585  0.0252 -0.0471 -0.1351
55820CHOL    R281639  22.464  30.230   7.670  0.0294 -0.0806 -0.0583
55820CHOL    R381640  22.434  30.113   7.913 -0.0073 -0.1454 -0.0938
55820CHOL    R481641  22.678  30.275   7.937 -0.0641 -0.0744  0.0155
55820CHOL    R581642  22.658  30.062   7.982 -0.0114 -0.0912 -0.0389
55820CHOL    C181643  22.775  30.191   8.322 -0.1525 -0.1314  0.0251
55820CHOL    C281644  22.834  30.254   8.594  0.3934 -0.3251  0.1721
55821CHOL   ROH81645   4.785  33.763  14.777  0.0418  0.2539  0.0000
55821CHOL    R181646   4.529  33.763  14.897 -0.0292  0.2106 -0.1494
55821CHOL    R281647   4.300  33.693  14.760  0.0971 -0.0908 -0.2120
55821CHOL    R381648   4.269  33.518  14.965  0.0971  0.1057 -0.0419
55821CHOL    R481649   4.022  33.493  14.808  0.1366 -0.1122 -0.0716
55821CHOL    R581650   4.037  33.533  15.022  0.0810  0.1049 -0.1071
55821CHOL    C181651   3.831  33.212  15.029  0.1596  0.0591  0.1699
55821CHOL    C281652   3.550  33.012  15.226 -0.1063 -0.0441  0.1615
55822CHOL   ROH81653   2.289  19.282   8.982  0.2331  0.1882  0.0495
55822CHOL    R181654   2.483  19.295   8.776  0.2469  0.1337  0.0587
55822CHOL    R281655   2.748  19.230   8.816  0.1818 -0.1601  0.0151
55822CHOL    R381656   2.705  19.063   8.606  0.0140  0.0237 -0.0989
55822CHOL    R481657   2.978  19.164   8.567  0.1224 -0.2281 -0.0219
55822CHOL    R581658   2.815  19.170   8.422  0.1301  0.0372 -0.0237
55822CHOL    C181659   3.072  18.969   8.224 -0.0696 -0.0953 -0.1505
55822CHOL    C281660   3.019  18.975   7.911  0.1092 -0.1799  0.0744
55823CHOL   ROH81661   5.540  20.271  17.706 -0.1235  0.0812 -0.1385
55823CHOL    R181662   5.671  20.455  17.536  0.2792 -0.0738 -0.0008
55823CHOL    R281663   5.911  20.397  17.412  0.0483 -0.5955 -0.2207
55823CHOL    R381664   5.774  20.465  17.187  0.0822  0.0542 -0.0556
55823CHOL    R481665   6.055  20.452  17.102  0.0224 -0.3855 -0.1965
55823CHOL    R581666   5.918  20.620  17.074  0.3510 -0.0532  0.1347
55823CHOL    C181667   6.010  20.548  16.711  0.0391  0.3469 -0.0269
55823CHOL    C281668   5.931  20.531  16.310 -0.2580 -0.1306 -0.1535
55824CHOL   ROH81669  20.357  29.558   8.850 -0.2587 -0.1242 -0.1524
55824CHOL    R181670  20.385  29.536   9.131 -0.3410 -0.3422 -0.1606
55824CHOL    R281671  20.410  29.293   9.259  0.2522 -0.4159 -0.4048
55824CHOL    R381672  20.634  29.407   9.363 -0.1014  0.0876 -0.1739
55824CHOL    R481673  20.553  29.208   9.563  0.3275 -0.3515 -0.4215
55824CHOL    R581674  20.591  29.420   9.598 -0.2613 -0.2754 -0.1786
55824CHOL    C181675  20.846  29.266   9.837  0.0390  0.1582 -0.2146
55824CHOL    C281676  21.020  29.121  10.197  0.2425 -0.3039 -0.2786
55825CHOL   ROH81677  28.177   3.914   6.345 -0.2610 -0.1238  0.0921
55825CHOL    R181678  28.108   4.016   6.600 -0.1114 -0.4423  0.2624
55825CHOL    R281679  28.194   3.899   6.835  0.5451 -0.3819  0.0625
55825CHOL    R381680  28.286   4.149   6.888  0.0254 -0.1833  0.0612
55825CHOL    R481681  28.272   4.017   7.150  0.4602 -0.2760  0.0441
55825CHOL    R581682  28.182   4.208   7.095  0.0061 -0.4585  0.1331
55825CHOL    C181683  28.405   4.321   7.383 -0.0776 -0.0278  0.0321
55825CHOL    C281684  28.248   4.423   7.694  0.0738 -0.0080 -0.3380
55826CHOL   ROH81685  14.106   2.355  16.643  0.1948 -0.1191 -0.0888
55826CHOL    R181686  14.144   2.358  16.362 -0.0055 -0.0453 -0.1156
55826CHOL    R281687  13.943   2.294  16.184 -0.1678  0.1181  0.0073
55826CHOL    R381688  14.002   2.537  16.079 -0.1182  0.1229  0.0455
55826CHOL    R481689  13.796   2.427  15.901 -0.1282  0.1850  0.0182
55826CHOL    R581690  13.991   2.503  15.842 -0.1110  0.1586  0.0400
55826CHOL    C181691  13.766   2.733  15.637 -0.0585  0.2285  0.0603
55826CHOL    C281692  13.928   2.669  15.330 -0.1986  0.1987  0.1095
55827CHOL   ROH81693  33.280  18.357   1.342  0.1499  0.0239 -0.0608
55827CHOL    R181694  33.163  18.538   1.525  0.1865 -0.1192  0.1045
55827CHOL    R281695  32.895  18.604   1.518  0.2290  0.0456  0.0782
55827CHOL    R381696  32.902  18.526   1.778  0.0841 -0.2593 -0.0071
55827CHOL    R481697  32.676  18.712   1.762  0.2975  0.0216  0.1511
55827CHOL    R581698  32.843  18.723   1.901  0.2823 -0.3275  0.2037
55827CHOL    C181699  32.554  18.701   2.149  0.2008 -0.2782  0.1135
55827CHOL    C281700  32.376  18.525   2.379  0.0282  0.2660 -0.0049
55828CHOL   ROH81701  21.157  26.899  14.136 -0.2949 -0.0277 -0.0719
55828CHOL    R181702  21.077  26.728  13.925 -0.2253 -0.0448 -0.0845
55828CHOL    R281703  20.885  26.532  13.957 -0.2425 -0.0352 -0.1337
55828CHOL    R381704  20.768  26.657  13.746 -0.1642 -0.0523 -0.1881
55828CHOL    R481705  20.633  26.396  13.764 -0.2258 -0.0200 -0.1666
55828CHOL    R581706  20.730  26.481  13.587 -0.1644 -0.0772 -0.1614
55828CHOL    C181707  20.376  26.434  13.453 -0.1427 -0.0271 -0.2366
55828CHOL    C281708  20.153  26.448  13.189 -0.2133 -0.0632  0.1549
55829CHOL   ROH81709  17.361  16.640  17.775 -0.0603 -0.0720  0.0578
55829CHOL    R181710  17.294  16.671  17.502  0.1036 -0.1108  0.0128
55829CHOL    R281711  17.216  16.459  17.344 -0.0909 -0.0871  0.0749
55829CHOL    R381712  17.000  16.616  17.295  0.1273  0.1643 -0.0963
55829CHOL    R481713  17.065  16.496  17.035  0.0925 -0.0425 -0.0107
55829CHOL    R581714  17.042  16.708  17.077  0.3416  0.0093 -0.1230
55829CHOL    C181715  16.773  16.665  16.810  0.4040  0.2196 -0.2212
55829CHOL    C281716  16.528  16.608  16.531  0.2852  0.0906 -0.0384
55830CHOL   ROH81717  32.830   6.976  10.033  0.2217 -0.2831  0.0325
55830CHOL    R181718  32.987   6.878   9.819  0.1488 -0.3551  0.0121
55830CHOL    R281719  32.943   6.630   9.705 -0.1188 -0.2475 -0.1277
55830CHOL    R381720  32.929   6.774   9.475  0.0941 -0.1071 -0.0537
55830CHOL    R481721  33.081   6.534   9.402  0.0816 -0.1028 -0.0834
55830CHOL    R581722  33.142   6.740   9.370  0.1621 -0.1015  0.0859
55830CHOL    C181723  33.148   6.613   9.011  0.3983  0.1134  0.0121
55830CHOL    C281724  33.279   6.370   8.707 -0.0328 -0.1886 -0.0117
55831CHOL   ROH81725  26.883   4.619   5.620 -0.1808 -0.0830  0.0714
55831CHOL    R181726  26.934   4.848   5.778 -0.2090 -0.0284  0.0019
55831CHOL    R281727  26.750   4.948   5.959 -0.1893 -0.0453  0.0326
55831CHOL    R381728  26.958   4.924   6.133 -0.1301  0.0632 -0.0233
55831CHOL    R481729  26.771   5.108   6.264 -0.0984  0.1184 -0.0586
55831CHOL    R581730  26.982   5.144   6.226 -0.1148  0.1139 -0.1476
55831CHOL    C181731  26.977   5.179   6.606  0.0104  0.3153 -0.1640
55831CHOL    C281732  26.931   5.436   6.929  0.3158 -0.0520 -0.0274
55832CHOL   ROH81733   5.081  34.901  14.240  0.1187  0.0186 -0.0192
55832CHOL    R181734   5.073  35.091  14.450  0.0452  0.1118 -0.1060
55832CHOL    R281735   4.887  35.294  14.459 -0.1094 -0.0261 -0.1381
55832CHOL    R381736   4.836  35.192  14.706  0.0550  0.0493 -0.0718
55832CHOL    R481737   4.657   0.038  14.682 -0.2061 -0.1594 -0.1605
55832CHOL    R581738   4.798  35.385  14.843 -0.1288  0.0839 -0.1682
55832CHOL    C181739   4.474   0.017  15.044 -0.1082 -0.1658 -0.1114
55832CHOL    C281740   4.252   0.042  15.319  0.1046  0.0558  0.0599
55833CHOL   ROH81741   2.413  14.909  11.622 -0.1231 -0.1610  0.1096
55833CHOL    R181742   2.690  14.896  11.681 -0.0738 -0.3381 -0.1515
55833CHOL    R281743   2.880  14.831  11.491 -0.2332  0.1597 -0.4911
55833CHOL    R381744   2.992  15.066  11.570 -0.1580 -0.0517  0.0521
55833CHOL    R481745   3.181  14.954  11.375 -0.1163  0.2601 -0.0875
55833CHOL    R581746   3.227  15.019  11.578 -0.1845 -0.1806  0.0736
55833CHOL    C181747   3.462  15.246  11.382  0.0223  0.1203  0.6575
55833CHOL    C281748   3.647  15.183  11.158  0.2148  0.2143 -0.1087
55834CHOL   ROH81749  14.507   6.097  14.626 -0.0183  0.0114  0.0887
55834CHOL    R181750  14.591   6.015  14.884 -0.0264 -0.2038  0.0234
55834CHOL    R281751  14.487   6.124  15.116  0.2448 -0.1233  0.1071
55834CHOL    R381752  14.435   5.865  15.177 -0.1247 -0.0665  0.0420
55834CHOL    R481753  14.377   6.012  15.423  0.1206 -0.0471  0.0905
55834CHOL    R581754  14.509   5.841  15.403 -0.1297 -0.2365  0.0268
55834CHOL    C181755  14.262   5.704  15.660 -0.2986  0.0507  0.0198
55834CHOL    C281756  14.192   5.326  15.854  0.3001  0.0393  0.0776
55835CHOL   ROH81757  10.522  28.020  17.825  0.1143  0.0707  0.0109
55835CHOL    R181758  10.602  28.130  18.074  0.0766  0.0029  0.0526
55835CHOL    R281759  10.420  28.207  18.267  0.0452  0.0453  0.0021
55835CHOL    R381760  10.567  28.041  18.425 -0.0718 -0.0336  0.0306
55835CHOL    R481761  10.374  28.165  18.608  0.1276  0.2789  0.0429
55835CHOL    R581762  10.591  28.161  18.631  0.1376  0.0555 -0.0402
55835CHOL    C181763  10.486  27.986  18.954  0.0656  0.3408  0.0935
55835CHOL    C281764  10.564  28.235  19.229  0.1629  0.0887 -0.2730
55836CHOL   ROH81765  20.674  32.641  12.630 -0.2085  0.2471 -0.0352
55836CHOL    R181766  20.481  32.481  12.499 -0.0818  0.1537 -0.1087
55836CHOL    R281767  20.280  32.588  12.343 -0.1055  0.0601 -0.1424
55836CHOL    R381768  20.378  32.418  12.155  0.0410  0.1463 -0.1443
55836CHOL    R481769  20.100  32.463  12.075 -0.1072 -0.3674  0.0534
55836CHOL    R581770  20.196  32.270  12.107  0.2525 -0.1907  0.0647
55836CHOL    C181771  20.088  32.231  11.744  0.0293 -0.5346  0.1657
55836CHOL    C281772  19.872  32.234  11.377 -0.0849 -0.0385 -0.2314
55837CHOL   ROH81773  10.433  34.038  17.351  0.1830 -0.2788 -0.0098
55837CHOL    R181774  10.711  34.047  17.403  0.1697 -0.1049  0.0347
55837CHOL    R281775  10.862  34.274  17.365  0.0434 -0.0264  0.0061
55837CHOL    R381776  10.933  34.232  17.624  0.0264  0.0769  0.0279
55837CHOL    R481777  11.101  34.456  17.537  0.2910 -0.1900 -0.1614
55837CHOL    R581778  11.169  34.271  17.629  0.0763 -0.2094 -0.0345
55837CHOL    C181779  11.306  34.523  17.880  0.4191 -0.1889 -0.2381
55837CHOL    C281780  11.180  34.701  18.242  0.2136  0.1646  0.3245
55838CHOL   ROH81781   6.117  24.596  20.008  0.1600  0.1825 -0.0135
55838CHOL    R181782   6.254  24.370  19.908  0.0665  0.1001  0.0444
55838CHOL    R281783   6.338  24.351  19.645  0.0978  0.0165  0.0597
55838CHOL    R381784   6.579  24.301  19.760  0.0562 -0.0808  0.1050
55838CHOL    R481785   6.604  24.196  19.488  0.0928 -0.0164  0.0835
55838CHOL    R581786   6.644  24.088  19.673  0.0181 -0.0755  0.0650
55838CHOL    C181787   6.985  24.058  19.504  0.0509 -0.1264  0.1399
55838CHOL    C281788   7.351  24.074  19.230 -0.1030 -0.0219  0.3115
55839CHOL   ROH81789  21.293  21.211  15.003 -0.0038  0.1802  0.0842
55839CHOL    R181790  21.031  21.130  14.934  0.0578  0.0313  0.0221
55839CHOL    R281791  20.819  21.307  14.921 -0.0515 -0.0981  0.0261
55839CHOL    R381792  20.792  21.205  14.671  0.0552 -0.0600 -0.0013
55839CHOL    R481793  20.545  21.356  14.717 -0.0082 -0.1507 -0.0446
55839CHOL    R581794  20.559  21.148  14.655  0.0790 -0.1341 -0.0798
55839CHOL    C181795  20.359  21.290  14.363  0.1167 -0.1454 -0.1112
55839CHOL    C281796  20.233  21.538  14.148  0.1784  0.0313  0.0613
55840CHOL   ROH81797   5.450  21.255  18.276  0.0588  0.1289  0.0860
55840CHOL    R181798   5.661  21.429  18.204  0.0774  0.1068  0.0868
55840CHOL    R281799   5.876  21.347  18.052  0.0257  0.1069  0.0127
55840CHOL    R381800   5.805  21.558  17.896  0.0316  0.1665  0.0904
55840CHOL    R481801   6.078  21.492  17.812 -0.0073  0.1236 -0.0046
55840CHOL    R581802   6.006  21.688  17.876  0.0569  0.1242  0.0690
55840CHOL    C181803   6.129  21.775  17.526 -0.0210  0.1891  0.0580
55840CHOL    C281804   6.277  22.132  17.387  0.1191  0.3327 -0.2002
55841CHOL   ROH81805   3.504   1.880  11.281 -0.0926 -0.0553 -0.1381
55841CHOL    R181806   3.491   2.023  11.525 -0.0384 -0.0638 -0.1303
55841CHOL    R281807   3.315   2.232  11.565  0.0018 -0.0364 -0.0994
55841CHOL    R381808   3.241   2.085  11.782  0.0042 -0.0330 -0.0962
55841CHOL    R481809   3.086   2.334  11.803 -0.0263 -0.0495 -0.1209
55841CHOL    R581810   3.214   2.247  11.956 -0.0265 -0.0260 -0.1069
55841CHOL    C181811   2.882   2.255  12.144 -0.0405 -0.0541 -0.1303
55841CHOL    C281812   2.599   2.591  11.986 -0.1401 -0.1844 -0.0776
55842CHOL   ROH81813   0.922  27.870   9.059  0.1081  0.1789  0.1729
55842CHOL    R181814   0.701  27.780   9.211 -0.0263  0.0824 -0.0760
55842CHOL    R281815   0.511  27.608   9.110  0.2313 -0.1024 -0.2516
55842CHOL    R381816   0.574  27.461   9.330  0.0550  0.0394 -0.1047
55842CHOL    R481817   0.318  27.351   9.237  0.2417 -0.1722 -0.3759
55842CHOL    R581818   0.364  27.423   9.438 -0.0569 -0.0504 -0.3502
55842CHOL    C181819   0.265  27.063   9.518  0.0822 -0.0801 -0.3106
55842CHOL    C281820  35.269  26.888   9.684  0.0080 -0.0449 -0.0870
55843CHOL   ROH81821  23.294  33.795  11.108  0.3004  0.0230  0.0527
55843CHOL    R181822  23.134  33.812  10.875  0.1204  0.1060  0.1803
55843CHOL    R281823  23.176  34.002  10.679  0.1230  0.0274  0.1025
55843CHOL    R381824  23.187  33.785  10.516 -0.1980 -0.0214  0.1413
55843CHOL    R481825  23.090  34.002  10.344 -0.0271  0.0546  0.1407
55843CHOL    R581826  22.996  33.808  10.373 -0.2371  0.1671  0.2226
55843CHOL    C181827  23.051  33.799   9.996 -0.4157  0.0244  0.1993
55843CHOL    C281828  22.826  33.658   9.728  0.3469 -0.0164  0.1949
55844CHOL   ROH81829   3.717  21.451  10.666 -0.0914 -0.2778 -0.0032
55844CHOL    R181830   3.891  21.509  10.450 -0.1331 -0.0483  0.0234
55844CHOL    R281831   3.964  21.767  10.382 -0.1173  0.0233  0.3063
55844CHOL    R381832   4.216  21.668  10.408 -0.1234 -0.0380  0.1351
55844CHOL    R481833   4.252  21.957  10.373 -0.0776 -0.0446  0.1301
55844CHOL    R581834   4.346  21.800  10.256 -0.1913 -0.0593  0.0581
55844CHOL    C181835   4.657  21.976  10.391 -0.0602 -0.1410 -0.1332
55844CHOL    C281836   4.935  22.255  10.213 -0.2650  0.1699  0.2762
55845CHOL   ROH81837   9.526  33.154  20.531 -0.3646 -0.0212 -0.0030
55845CHOL    R181838   9.428  33.118  20.267 -0.1819 -0.0988 -0.0610
55845CHOL    R281839   9.517  33.270  20.054 -0.2472  0.0411  0.0098
55845CHOL    R381840   9.567  33.026  19.944  0.1025  0.1160 -0.0015
55845CHOL    R481841   9.540  33.208  19.715 -0.5375  0.0244 -0.0084
55845CHOL    R581842   9.432  33.022  19.746 -0.1320 -0.1900  0.1629
55845CHOL    C181843   9.601  32.944  19.414 -0.3780  0.0849 -0.0295
55845CHOL    C281844   9.470  32.789  19.017  0.1966  0.2357 -0.0624
55846CHOL   ROH81845   8.708  11.494  14.906 -0.0806  0.0715  0.0831
55846CHOL    R181846   8.486  11.584  15.056 -0.0069  0.2260  0.1007
55846CHOL    R281847   8.436  11.852  15.102 -0.0181  0.2777 -0.2038
55846CHOL    R381848   8.193  11.792  14.996 -0.0715  0.1096  0.0105
55846CHOL    R481849   8.154  12.051  15.128  0.0413  0.4064 -0.5244
55846CHOL    R581850   8.036  11.871  15.159  0.0067  0.4971 -0.0961
55846CHOL    C181851   7.762  12.110  15.044  0.0256  0.3236 -0.5099
55846CHOL    C281852   7.497  11.909  15.265  0.1596  0.2719 -0.1115
55847CHOL   ROH81853   9.165  24.321  21.340  0.1333  0.0684  0.1205
55847CHOL    R181854   9.162  24.167  21.102  0.0867  0.0389  0.1400
55847CHOL    R281855   9.063  24.265  20.863  0.1525  0.0526  0.1179
55847CHOL    R381856   9.307  24.192  20.769  0.1290 -0.0690  0.1503
55847CHOL    R481857   9.171  24.311  20.538  0.2467  0.0687  0.1514
55847CHOL    R581858   9.264  24.114  20.547  0.1283  0.0111  0.1221
55847CHOL    C181859   9.464  24.269  20.261  0.2794 -0.0361  0.2011
55847CHOL    C281860   9.355  24.263  19.874  0.0693 -0.0203  0.2599
55848CHOL   ROH81861   0.305  19.590   7.228  0.0403  0.0486  0.0058
55848CHOL    R181862   0.467  19.568   6.997  0.0765  0.0399  0.0321
55848CHOL    R281863   0.467  19.757   6.795  0.1320  0.0485  0.0402
55848CHOL    R381864   0.735  19.760   6.842  0.1246  0.0159  0.0848
55848CHOL    R481865   0.707  19.840   6.561  0.1687  0.1997  0.1309
55848CHOL    R581866   0.831  19.678   6.639  0.1554  0.1472  0.0456
55848CHOL    C181867   1.098  19.891   6.468  0.1832  0.2575  0.2256
55848CHOL    C281868   1.245  20.091   6.274 -0.1167  0.0351 -0.0878
55849CHOL   ROH81869  17.982   7.145  13.736  0.0180 -0.3965 -0.1637
55849CHOL    R181870  18.013   6.978  13.962  0.0786 -0.2696 -0.0772
55849CHOL    R281871  18.232   6.993  14.129  0.0964 -0.1367 -0.1107
55849CHOL    R381872  18.043   7.022  14.322  0.1133 -0.0699 -0.1043
55849CHOL    R481873  18.288   6.956  14.468  0.1711  0.1844 -0.0864
55849CHOL    R581874  18.096   6.854  14.484  0.2277  0.0972  0.0328
55849CHOL    C181875  18.143   6.962  14.847  0.2304  0.4342 -0.0662
55849CHOL    C281876  18.039   7.039  15.180  0.3352  0.1218 -0.3214
55850CHOL   ROH81877  21.398  22.294   7.852 -0.2136  0.3309  0.1374
55850CHOL    R181878  21.644  22.326   7.989 -0.1741  0.2142  0.0939
55850CHOL    R281879  21.886  22.250   7.879 -0.2171  0.2120  0.0019
55850CHOL    R381880  21.955  22.507   7.935 -0.1469  0.1708  0.1045
55850CHOL    R481881  22.211  22.367   7.900 -0.1844  0.1110  0.0544
55850CHOL    R581882  22.151  22.487   8.072 -0.1549  0.0612  0.1014
55850CHOL    C181883  22.464  22.676   7.966 -0.0991  0.0140  0.1813
55850CHOL    C281884  22.784  22.618   8.157 -0.1584 -0.0283  0.1395
55851CHOL   ROH81885  22.474  31.935  11.171  0.1076  0.0247 -0.0841
55851CHOL    R181886  22.441  32.023  10.905  0.1606 -0.0290 -0.1086
55851CHOL    R281887  22.385  31.851  10.696  0.0399 -0.0509 -0.0584
55851CHOL    R381888  22.176  32.019  10.656  0.1515  0.0783 -0.1011
55851CHOL    R481889  22.202  31.871  10.404 -0.0374 -0.1060 -0.0135
55851CHOL    R581890  22.198  32.088  10.427  0.1305 -0.0870 -0.1532
55851CHOL    C181891  21.899  32.041  10.195  0.0221 -0.0175 -0.0279
55851CHOL    C281892  21.683  32.069  10.069  0.2333 -0.1515 -0.0751
55852CHOL   ROH81893  32.310  33.045  11.429 -0.0575 -0.1697 -0.1552
55852CHOL    R181894  32.413  32.977  11.174  0.0187 -0.0999 -0.1434
55852CHOL    R281895  32.379  33.139  10.952 -0.1041 -0.1436 -0.1580
55852CHOL    R381896  32.650  33.120  10.938 -0.0864  0.0862 -0.1364
55852CHOL    R481897  32.563  33.155  10.660 -0.1053 -0.1442 -0.1587
55852CHOL    R581898  32.690  32.996  10.737  0.0324  0.0114 -0.0653
55852CHOL    C181899  32.924  33.147  10.476 -0.0892  0.0723 -0.1385
55852CHOL    C281900  33.253  33.398  10.439  0.1359 -0.0994 -0.1003
55853CHOL   ROH81901  23.251  11.437   4.716 -0.0135  0.1448 -0.0401
55853CHOL    R181902  23.382  11.572   4.928 -0.0015  0.1162 -0.0292
55853CHOL    R281903  23.551  11.443   5.104 -0.1036  0.0640  0.0315
55853CHOL    R381904  23.726  11.637   5.027  0.0052 -0.0289  0.0436
55853CHOL    R481905  23.864  11.494   5.243 -0.0454 -0.1644 -0.0135
55853CHOL    R581906  23.828  11.709   5.231  0.0885 -0.1393  0.0412
55853CHOL    C181907  24.209  11.706   5.252  0.0908 -0.3849 -0.0282
55853CHOL    C281908  24.544  11.734   5.461 -0.0690  0.0103 -0.1251
55854CHOL   ROH81909  32.741   7.581   8.009 -0.0005 -0.2117  0.1543
55854CHOL    R181910  32.560   7.509   7.803  0.0187 -0.1427  0.1129
55854CHOL    R281911  32.604   7.294   7.635  0.0347 -0.0857  0.0432
55854CHOL    R381912  32.357   7.219   7.720  0.0274 -0.1152 -0.0043
55854CHOL    R481913  32.417   7.038   7.497  0.0061  0.0234 -0.1220
55854CHOL    R581914  32.239   7.163   7.519  0.0198  0.0277 -0.0396
55854CHOL    C181915  32.076   6.818   7.497 -0.0175  0.0592 -0.2627
55854CHOL    C281916  31.806   6.771   7.410 -0.3988 -0.1049  0.0769
55855CHOL   ROH81917  14.444   5.202  17.418 -0.3410 -0.1940  0.0016
55855CHOL    R181918  14.250   5.255  17.218 -0.1733  0.0481 -0.0994
55855CHOL    R281919  14.251   5.486  17.068  0.2001  0.0436 -0.1083
55855CHOL    R381920  14.250   5.312  16.859  0.0834  0.0373 -0.1023
55855CHOL    R481921  14.152   5.565  16.746  0.1727  0.0766 -0.0917
55855CHOL    R581922  14.053   5.371  16.734  0.0851  0.1195 -0.0666
55855CHOL    C181923  14.093   5.447  16.363  0.0474  0.0899 -0.0766
55855CHOL    C281924  14.197   5.802  16.194 -0.5088  0.0183 -0.4403
55856CHOL   ROH81925  20.917   5.661  11.229  0.1098  0.2937 -0.0000
55856CHOL    R181926  21.199   5.660  11.258  0.1034  0.0579  0.0701
55856CHOL    R281927  21.326   5.767  11.479  0.1470  0.1677 -0.0082
55856CHOL    R381928  21.441   5.521  11.491 -0.0864  0.0701  0.2760
55856CHOL    R481929  21.637   5.701  11.615  0.2644  0.1020 -0.3031
55856CHOL    R581930  21.674   5.562  11.451 -0.0938 -0.2322 -0.1096
55856CHOL    C181931  21.925   5.431  11.706  0.1136 -0.0277 -0.2079
55856CHOL    C281932  22.334   5.570  11.798  0.0520  0.2133 -0.0276
55857CHOL   ROH81933  22.499  21.900   5.684 -0.0708 -0.0043 -0.1062
55857CHOL    R181934  22.714  21.732   5.759 -0.0385  0.0217 -0.1420
55857CHOL    R281935  22.974  21.779   5.679 -0.0291  0.1593 -0.0284
55857CHOL    R381936  23.024  21.766   5.946 -0.1096  0.0091 -0.0206
55857CHOL    R481937  23.283  21.712   5.820 -0.0965 -0.0423  0.0236
55857CHOL    R581938  23.182  21.588   5.968 -0.1925 -0.0717 -0.0632
55857CHOL    C181939  23.509  21.659   6.152 -0.2108 -0.3007  0.0612
55857CHOL    C281940  23.634  21.248   6.169  0.0025 -0.2144  0.1859
55858CHOL   ROH81941   2.034   8.938  12.035 -0.1789 -0.2759  0.0438
55858CHOL    R181942   2.289   9.013  11.937 -0.2964 -0.0410 -0.0861
55858CHOL    R281943   2.482   8.828  11.869 -0.0781  0.1416  0.0405
55858CHOL    R381944   2.481   8.961  11.632 -0.3030 -0.0786 -0.0849
55858CHOL    R481945   2.712   8.781  11.615  0.1298  0.4290  0.1719
55858CHOL    R581946   2.713   8.996  11.583 -0.3580  0.4107 -0.0282
55858CHOL    C181947   2.844   8.878  11.245  0.0398  0.3896  0.1306
55858CHOL    C281948   3.263   8.843  11.415  0.1067 -0.1418 -0.0690
55859CHOL   ROH81949  10.493  27.367  21.080  0.0218  0.0423  0.0948
55859CHOL    R181950  10.403  27.266  20.832  0.0442  0.0008  0.1041
55859CHOL    R281951  10.554  27.282  20.601  0.0586 -0.0258  0.1118
55859CHOL    R381952  10.512  27.013  20.594  0.0736 -0.0290  0.1488
55859CHOL    R481953  10.694  27.067  20.369 -0.1191 -0.0160 -0.0050
55859CHOL    R581954  10.503  26.961  20.360 -0.1190 -0.0313  0.1562
55859CHOL    C181955  10.735  26.690  20.227 -0.2084 -0.0132 -0.0381
55859CHOL    C281956  10.921  26.628  19.865  0.1149 -0.0379  0.0636
55860CHOL   ROH81957  16.192  14.649  17.924  0.3212  0.0206 -0.0323
55860CHOL    R181958  16.085  14.717  17.670  0.2155 -0.0457 -0.0061
55860CHOL    R281959  16.225  14.867  17.485  0.0698  0.0570 -0.0347
55860CHOL    R381960  16.172  14.656  17.322  0.1779  0.0240 -0.0274
55860CHOL    R481961  16.215  14.882  17.140  0.2573 -0.0055 -0.0441
55860CHOL    R581962  16.042  14.749  17.145  0.2670 -0.0194 -0.1158
55860CHOL    C181963  16.159  14.693  16.786  0.4683 -0.0728 -0.0426
55860CHOL    C281964  16.315  14.812  16.424  0.1768  0.0843 -0.0096
55861CHOL   ROH81965  18.832  18.256  17.271  0.1563  0.1392 -0.0119
55861CHOL    R181966  18.663  18.370  17.075 -0.1253 -0.0494  0.1181
55861CHOL    R281967  18.754  18.446  16.825 -0.3502  0.2770  0.1320
55861CHOL    R381968  18.553  18.285  16.738 -0.0849 -0.0438  0.1039
55861CHOL    R481969  18.636  18.434  16.500 -0.4816  0.3033  0.1783
55861CHOL    R581970  18.434  18.419  16.580 -0.4179 -0.1465  0.2632
55861CHOL    C181971  18.379  18.276  16.230 -0.3094  0.0177  0.1792
55861CHOL    C281972  18.395  18.100  15.900  0.0964  0.1480 -0.1388
55862CHOL   ROH81973   2.288  34.500  12.003 -0.0505  0.0818 -0.0797
55862CHOL    R181974   2.194  34.687  12.194 -0.1700  0.0233 -0.0794
55862CHOL    R281975   1.970  34.642  12.349 -0.1362 -0.1257 -0.0705
55862CHOL    R381976   2.140  34.692  12.554 -0.1617 -0.0084 -0.0782
55862CHOL    R481977   1.874  34.743  12.665 -0.1938 -0.2678 -0.0424
55862CHOL    R581978   2.043  34.880  12.667 -0.3176 -0.1167 -0.0347
55862CHOL    C181979   1.978  34.849  13.042 -0.2514 -0.2410 -0.0331
55862CHOL    C281980   1.752  34.658  13.248  0.0233 -0.2109  0.0138
55863CHOL   ROH81981  20.623  29.426  13.018 -0.0003 -0.0134 -0.0189
55863CHOL    R181982  20.368  29.321  12.954  0.0494 -0.1438 -0.0067
55863CHOL    R281983  20.175  29.470  12.825 -0.1860 -0.1031  0.3851
55863CHOL    R381984  20.176  29.261  12.651 -0.1153  0.1883  0.0302
55863CHOL    R481985  19.930  29.409  12.589 -0.2609  0.1074  0.4070
55863CHOL    R581986  19.946  29.196  12.635 -0.0738  0.0393  0.0406
55863CHOL    C181987  19.788  29.177  12.288 -0.2375  0.5040  0.0862
55863CHOL    C281988  19.625  28.969  12.014  0.0725  0.0675  0.2778
55864CHOL   ROH81989   4.382  32.153  18.558 -0.3580 -0.1085 -0.2444
55864CHOL    R181990   4.617  32.051  18.439 -0.1715  0.0607 -0.0267
55864CHOL    R281991   4.613  31.849  18.251  0.1707 -0.1412  0.1763
55864CHOL    R381992   4.754  32.027  18.102  0.0188 -0.1157  0.0616
55864CHOL    R481993   4.794  31.770  17.967  0.0101 -0.1183  0.0666
55864CHOL    R581994   4.949  31.907  18.035  0.0122 -0.0624 -0.0521
55864CHOL    C181995   5.032  31.892  17.662 -0.2259 -0.0811 -0.1049
55864CHOL    C281996   5.220  31.898  17.482  0.3381  0.0200 -0.0857
55865CHOL   ROH81997  29.008  28.018   8.144  0.2755  0.1237 -0.0032
55865CHOL    R181998  28.972  28.095   7.874  0.3510  0.1514 -0.0055
55865CHOL    R281999  28.755  28.243   7.789  0.1483 -0.2043 -0.1239
55865CHOL    R382000  28.948  28.407   7.689 -0.0601  0.1751  0.0842
55865CHOL    R482001  28.727  28.424   7.496  0.1474 -0.3374 -0.2061
55865CHOL    R582002  28.935  28.375   7.452  0.3126  0.0849  0.0740
55865CHOL    C182003  28.891  28.683   7.231 -0.0489 -0.0590 -0.0586
55865CHOL    C282004  28.631  28.951   7.009  0.1168 -0.1189 -0.3210
55866CHOL   ROH82005   1.272  29.714  16.390 -0.0410 -0.0229 -0.1488
55866CHOL    R182006   1.472  29.770  16.198 -0.0891  0.0572 -0.1757
55866CHOL    R282007   1.625  29.573  16.081  0.1534  0.1395 -0.0024
55866CHOL    R382008   1.536  29.686  15.850  0.0400 -0.1501 -0.1023
55866CHOL    R482009   1.795  29.566  15.780  0.2320  0.1776  0.0411
55866CHOL    R582010   1.734  29.773  15.747 -0.0630  0.0675 -0.1173
55866CHOL    C182011   1.811  29.668  15.388  0.1713 -0.0720 -0.0275
55866CHOL    C282012   1.976  29.782  15.038  0.0289 -0.0852 -0.3516
55867CHOL   ROH82013  12.375  34.179  15.995 -0.1309 -0.2450 -0.0636
55867CHOL    R182014  12.593  34.300  16.129 -0.0486 -0.3227 -0.1265
55867CHOL    R282015  12.573  34.544  16.256  0.1221 -0.2328 -0.2688
55867CHOL    R382016  12.669  34.405  16.470  0.0146 -0.1787 -0.1851
55867CHOL    R482017  12.838  34.644  16.454  0.0182 -0.1804 -0.1556
55867CHOL    R582018  12.906  34.437  16.460  0.0194 -0.1774 -0.0696
55867CHOL    C182019  13.082  34.572  16.770 -0.1431 -0.0989 -0.0110
55867CHOL    C282020  13.445  34.440  16.883  0.1468 -0.0196  0.1319
55868CHOL   ROH82021  23.963   7.157   9.369 -0.0257 -0.0049  0.0164
55868CHOL    R182022  23.817   7.356   9.232 -0.1019 -0.0771 -0.0081
55868CHOL    R282023  23.928   7.598   9.158 -0.2247  0.0026  0.0609
55868CHOL    R382024  23.838   7.527   8.912 -0.0961 -0.0231  0.0215
55868CHOL    R482025  23.764   7.809   8.939 -0.3864 -0.1047  0.0774
55868CHOL    R582026  23.631   7.645   8.887 -0.2094 -0.2250  0.0035
55868CHOL    C182027  23.585   7.866   8.580 -0.3603 -0.1913  0.0503
55868CHOL    C282028  23.293   8.068   8.699  0.0599 -0.0416 -0.3636
55869CHOL   ROH82029  14.142  32.600  19.915  0.2222  0.2117 -0.0489
55869CHOL    R182030  14.118  32.622  19.634  0.1048  0.1209 -0.0462
55869CHOL    R282031  14.250  32.453  19.459  0.0708  0.0964 -0.0482
55869CHOL    R382032  14.001  32.411  19.361  0.0403  0.0131  0.0646
55869CHOL    R482033  14.180  32.305  19.155 -0.0175  0.0763 -0.0183
55869CHOL    R582034  14.021  32.452  19.126 -0.0802  0.0237  0.0557
55869CHOL    C182035  13.905  32.179  18.886 -0.0977 -0.0124  0.1050
55869CHOL    C282036  14.044  32.236  18.496 -0.1669 -0.1495 -0.1386
55870CHOL   ROH82037   4.942  18.326  15.277  0.0366  0.1678  0.1436
55870CHOL    R182038   5.011  18.587  15.361  0.2234  0.1055  0.1877
55870CHOL    R282039   5.270  18.683  15.352  0.2441  0.0282 -0.0872
55870CHOL    R382040   5.156  18.885  15.209  0.1276  0.1339  0.1526
55870CHOL    R482041   5.426  18.981  15.271  0.3389 -0.0980 -0.3772
55870CHOL    R582042   5.238  19.085  15.312  0.5040  0.0589  0.0051
55870CHOL    C182043   5.409  19.344  15.090  0.2847 -0.0723 -0.3211
55870CHOL    C282044   5.537  19.731  15.026  0.1391 -0.1659  0.1242
55871CHOL   ROH82045   3.391  29.362  18.322 -0.1602  0.3376 -0.0806
55871CHOL    R182046   3.643  29.414  18.204 -0.0933  0.1202 -0.0364
55871CHOL    R282047   3.798  29.216  18.091 -0.2408 -0.0151 -0.0019
55871CHOL    R382048   3.792  29.380  17.874 -0.0616 -0.0168 -0.0086
55871CHOL    R482049   4.025  29.207  17.830  0.0384  0.0513  0.2367
55871CHOL    R582050   4.023  29.425  17.827 -0.0239  0.0519  0.2350
55871CHOL    C182051   4.152  29.356  17.475  0.3691  0.0893  0.3693
55871CHOL    C282052   4.466  29.203  17.604  0.3669  0.0105  0.0329
55872CHOL   ROH82053  34.416  18.562   4.965 -0.0352  0.2033  0.0117
55872CHOL    R182054  34.633  18.722   4.881 -0.0259  0.1881  0.0056
55872CHOL    R282055  34.742  18.921   5.039  0.1239  0.0441  0.0840
55872CHOL    R382056  34.974  18.786   4.992  0.0550 -0.0025 -0.1300
55872CHOL    R482057  35.012  19.047   4.864  0.1156  0.1144  0.1231
55872CHOL    R582058  35.037  18.851   4.771  0.0069  0.1984 -0.0853
55872CHOL    C182059   0.002  18.994   4.718  0.0469  0.1118 -0.0550
55872CHOL    C282060   0.156  19.204   4.471  0.0542  0.1784  0.3224
55873CHOL   ROH82061  19.009   8.098  13.173 -0.2222 -0.1218 -0.0003
55873CHOL    R182062  19.224   7.998  13.327 -0.1879 -0.1592 -0.0731
55873CHOL    R282063  19.334   8.138  13.538 -0.0456 -0.1471 -0.1555
55873CHOL    R382064  19.281   7.909  13.675 -0.0621 -0.0969 -0.0774
55873CHOL    R482065  19.401   8.089  13.873 -0.0591 -0.0330 -0.1356
55873CHOL    R582066  19.466   7.886  13.826 -0.0681 -0.0536 -0.0629
55873CHOL    C182067  19.391   7.845  14.197 -0.0829  0.0809 -0.0509
55873CHOL    C282068  19.424   7.805  14.541  0.1162  0.0771 -0.2901
55874CHOL   ROH82069  24.611  21.025   8.208 -0.0604  0.1829  0.0410
55874CHOL    R182070  24.347  21.125   8.226 -0.0080  0.3313 -0.0084
55874CHOL    R282071  24.253  21.329   8.064 -0.0092  0.0561 -0.3626
55874CHOL    R382072  24.058  21.149   8.006 -0.1185  0.0182  0.1001
55874CHOL    R482073  23.924  21.410   7.998  0.0137  0.0759 -0.4529
55874CHOL    R582074  23.863  21.235   8.115 -0.0435  0.3666 -0.0379
55874CHOL    C182075  23.548  21.288   7.905 -0.0757  0.0525 -0.0713
55874CHOL    C282076  23.117  21.326   7.871 -0.5099 -0.4305  0.0999
55875CHOL   ROH82077  11.917  31.829  20.039 -0.0182 -0.2188  0.1630
55875CHOL    R182078  11.861  31.575  19.927 -0.0515 -0.1633  0.0528
55875CHOL    R282079  11.662  31.534  19.740  0.0046 -0.0391 -0.0340
55875CHOL    R382080  11.864  31.426  19.595  0.0257 -0.0461  0.0006
55875CHOL    R482081  11.624  31.387  19.430  0.0641  0.0332 -0.0755
55875CHOL    R582082  11.766  31.233  19.492  0.0181 -0.0065 -0.0675
55875CHOL    C182083  11.792  31.199  19.113  0.1185  0.0685 -0.0676
55875CHOL    C282084  11.601  30.997  18.774 -0.4049 -0.1582  0.0241
55876CHOL   ROH82085  35.014   6.285   9.929  0.1647  0.0994  0.1574
55876CHOL    R182086  35.027   6.384   9.665  0.1484  0.0830  0.1505
55876CHOL    R282087  34.830   6.546   9.557  0.1222  0.0442  0.1386
55876CHOL    R382088  35.040   6.711   9.505  0.0957  0.0739  0.1281
55876CHOL    R482089  34.823   6.810   9.334  0.0244  0.1474  0.2636
55876CHOL    R582090  35.024   6.755   9.270 -0.0008  0.1827  0.1555
55876CHOL    C182091  35.015   7.119   9.156 -0.0568  0.2354  0.3265
55876CHOL    C282092  35.037   7.219   8.795 -0.0812  0.0512  0.0155
55877CHOL   ROH82093   1.275  32.114  15.400 -0.0406  0.0842 -0.0752
55877CHOL    R182094   1.505  32.004  15.276 -0.0123  0.0538  0.0035
55877CHOL    R282095   1.500  31.899  15.021  0.0381 -0.0384  0.0401
55877CHOL    R382096   1.704  32.074  14.980  0.0341 -0.0403  0.0122
55877CHOL    R482097   1.712  31.895  14.748  0.1978 -0.2371  0.1656
55877CHOL    R582098   1.878  31.941  14.882  0.1129 -0.0975  0.2251
55877CHOL    C182099   2.027  32.057  14.550  0.2871 -0.3546  0.2124
55877CHOL    C282100   2.224  32.112  14.227  0.0747 -0.1453  0.1593
55878CHOL   ROH82101   3.682  17.357  13.838 -0.0359 -0.1190  0.1250
55878CHOL    R182102   3.964  17.371  13.828 -0.0379 -0.1158  0.0772
55878CHOL    R282103   4.118  17.173  13.711 -0.0572 -0.1002  0.0260
55878CHOL    R382104   4.219  17.381  13.568 -0.0831 -0.0821  0.0341
55878CHOL    R482105   4.439  17.187  13.583 -0.0142  0.0031  0.1429
55878CHOL    R582106   4.447  17.397  13.640 -0.1155  0.0151  0.1165
55878CHOL    C182107   4.720  17.390  13.373 -0.0135  0.0805  0.2188
55878CHOL    C282108   4.943  17.173  13.209  0.0795 -0.0952  0.0930
55879CHOL   ROH82109  13.256  23.974  18.361 -0.0411  0.2750  0.0176
55879CHOL    R182110  13.358  23.889  18.611 -0.0248  0.1760 -0.0233
55879CHOL    R282111  13.536  24.041  18.758 -0.0398  0.1309  0.0384
55879CHOL    R382112  13.351  24.010  18.955 -0.0296  0.0217  0.0322
55879CHOL    R482113  13.607  24.026  19.096 -0.0530  0.3212  0.0502
55879CHOL    R582114  13.457  23.868  19.116  0.0959  0.1808  0.0927
55879CHOL    C182115  13.474  23.988  19.477 -0.0509  0.3287  0.0516
55879CHOL    C282116  13.490  24.078  19.868  0.3592  0.1381 -0.0403
55880CHOL   ROH82117  11.498  23.265  21.922  0.1163  0.3474 -0.3552
55880CHOL    R182118  11.534  23.178  21.656 -0.0166  0.2680 -0.3479
55880CHOL    R282119  11.371  22.989  21.537 -0.0985  0.2612 -0.2220
55880CHOL    R382120  11.341  23.182  21.347 -0.1531  0.2125 -0.2636
55880CHOL    R482121  11.274  22.932  21.210 -0.1738  0.1734 -0.1850
55880CHOL    R582122  11.421  23.080  21.146 -0.1958  0.1650 -0.2569
55880CHOL    C182123  11.190  23.079  20.842 -0.2686  0.0760 -0.2019
55880CHOL    C282124  11.040  22.805  20.682 -0.1318  0.0685 -0.4439
55881CHOL   ROH82125   1.612   6.153  11.912 -0.0897 -0.2195 -0.0679
55881CHOL    R182126   1.730   6.017  11.694  0.0212 -0.0736 -0.0999
55881CHOL    R282127   1.949   6.116  11.558  0.0625  0.0408  0.0472
55881CHOL    R382128   2.056   5.873  11.617  0.0753  0.0225 -0.0508
55881CHOL    R482129   2.187   5.952  11.367  0.3108  0.2771  0.1509
55881CHOL    R582130   2.081   5.765  11.404  0.3284  0.2116 -0.1184
55881CHOL    C182131   2.425   5.629  11.312  0.4675  0.3975  0.1192
55881CHOL    C282132   2.418   5.481  11.024 -0.2389  0.0171 -0.1922
55882CHOL   ROH82133  31.106  16.086   4.024  0.0378 -0.1527 -0.0943
55882CHOL    R182134  31.127  15.900   3.811 -0.0624 -0.0451 -0.1994
55882CHOL    R282135  31.147  15.979   3.547 -0.0007  0.0939 -0.1565
55882CHOL    R382136  31.370  15.823   3.550 -0.0939 -0.0417 -0.2291
55882CHOL    R482137  31.227  15.742   3.307 -0.0711  0.2530 -0.3378
55882CHOL    R582138  31.296  15.611   3.467 -0.1936  0.0742 -0.4338
55882CHOL    C182139  31.483  15.459   3.172 -0.1996  0.2185 -0.5116
55882CHOL    C282140  31.812  15.361   2.984 -0.1583 -0.2000  0.0031
55883CHOL   ROH82141  19.435   7.316  16.471 -0.1021 -0.1372  0.0107
55883CHOL    R182142  19.235   7.453  16.323  0.0492  0.0044 -0.0648
55883CHOL    R282143  19.287   7.574  16.081  0.2006 -0.1313 -0.1025
55883CHOL    R382144  19.079   7.420  15.996  0.0618  0.0388 -0.0743
55883CHOL    R482145  19.149   7.585  15.764  0.0715  0.0815 -0.0403
55883CHOL    R582146  18.952   7.565  15.854  0.0967  0.1780  0.0358
55883CHOL    C182147  18.875   7.446  15.500 -0.1339  0.3650  0.0222
55883CHOL    C282148  18.996   7.809  15.291  0.2448  0.1286 -0.0700
55884CHOL   ROH82149  32.542  13.897   1.395  0.0273  0.0844 -0.0420
55884CHOL    R182150  32.324  13.717   1.406  0.1053 -0.0120 -0.0750
55884CHOL    R282151  32.308  13.514   1.593  0.1223  0.0380 -0.0188
55884CHOL    R382152  32.067  13.627   1.648  0.0479 -0.0548 -0.1513
55884CHOL    R482153  32.095  13.411   1.844  0.1694  0.1634  0.0729
55884CHOL    R582154  31.928  13.442   1.708  0.1593 -0.0805  0.0289
55884CHOL    C182155  31.745  13.457   2.043  0.1273  0.1491  0.0018
55884CHOL    C282156  31.434  13.480   2.188 -0.3552  0.0227 -0.1332
55885CHOL   ROH82157  11.296  14.761  14.482 -0.0435 -0.1350  0.1272
55885CHOL    R182158  11.166  14.815  14.728 -0.1103 -0.0030  0.0637
55885CHOL    R282159  11.304  14.852  14.964 -0.1866 -0.1219  0.1270
55885CHOL    R382160  11.163  15.084  14.973  0.0258  0.0114  0.0496
55885CHOL    R482161  11.280  15.058  15.241 -0.2686 -0.1778  0.1619
55885CHOL    R582162  11.069  15.089  15.193 -0.1934  0.0370 -0.0431
55885CHOL    C182163  11.133  15.397  15.409 -0.1170 -0.0852  0.1098
55885CHOL    C282164  10.977  15.472  15.888  0.3281  0.2705  0.2072
55886CHOL   ROH82165   0.890   8.281   6.546  0.1206 -0.0959  0.1286
55886CHOL    R182166   0.742   8.423   6.741  0.1795 -0.0770  0.1595
55886CHOL    R282167   0.494   8.340   6.829 -0.0147  0.1984 -0.1178
55886CHOL    R382168   0.611   8.355   7.074 -0.1773 -0.2271 -0.0092
55886CHOL    R482169   0.339   8.456   7.115 -0.0757  0.0887 -0.1060
55886CHOL    R582170   0.524   8.557   7.169  0.0203 -0.2150  0.1473
55886CHOL    C182171   0.359   8.539   7.512 -0.2639 -0.3748  0.0029
55886CHOL    C282172   0.261   8.659   7.803  0.1160  0.3236 -0.0499
55887CHOL   ROH82173   0.135  14.689   7.244  0.1982  0.0751  0.0196
55887CHOL    R182174   0.288  14.575   7.035  0.2447 -0.1426  0.1712
55887CHOL    R282175   0.438  14.727   6.860 -0.0137 -0.2922 -0.1848
55887CHOL    R382176   0.639  14.563   6.940  0.2206  0.0989  0.0466
55887CHOL    R482177   0.696  14.618   6.657  0.0643 -0.3201 -0.0715
55887CHOL    R582178   0.679  14.421   6.751  0.3411 -0.1839  0.2784
55887CHOL    C182179   1.035  14.400   6.615  0.3296  0.0311  0.2115
55887CHOL    C282180   1.191  14.473   6.272  0.0289  0.2123  0.0862
55888CHOL   ROH82181   4.813  34.156  13.827  0.0393  0.0536  0.0632
55888CHOL    R182182   4.596  34.313  13.918 -0.1091 -0.0843 -0.0485
55888CHOL    R282183   4.347  34.207  13.972 -0.0073 -0.2830  0.0343
55888CHOL    R382184   4.384  34.325  14.214 -0.1135 -0.0689 -0.0528
55888CHOL    R482185   4.098  34.358  14.158 -0.1433 -0.3647 -0.0795
55888CHOL    R582186   4.239  34.516  14.209 -0.2840 -0.1999 -0.1956
55888CHOL    C182187   3.988  34.557  14.493 -0.3223 -0.2121 -0.2274
55888CHOL    C282188   3.799  34.809  14.683 -0.0619  0.0315 -0.0925
55889CHOL   ROH82189  15.063  27.448  20.768  0.0945  0.1533 -0.1817
55889CHOL    R182190  14.799  27.359  20.716  0.1055  0.0555 -0.0729
55889CHOL    R282191  14.635  27.480  20.530 -0.0523  0.0576  0.0627
55889CHOL    R382192  14.615  27.227  20.431  0.0104  0.0874 -0.0259
55889CHOL    R482193  14.453  27.391  20.250  0.1629  0.1450 -0.1057
55889CHOL    R582194  14.389  27.212  20.355  0.0706  0.1200 -0.2092
55889CHOL    C182195  14.328  27.102  19.994  0.3468  0.2242 -0.2874
55889CHOL    C282196  14.380  27.141  19.628 -0.0824 -0.0888 -0.1362
55890CHOL   ROH82197  20.063  15.215  15.872 -0.0874 -0.3456  0.1683
55890CHOL    R182198  19.853  15.063  15.759 -0.1698 -0.1610  0.0717
55890CHOL    R282199  19.587  15.136  15.782 -0.1264  0.0013  0.0631
55890CHOL    R382200  19.592  15.116  15.511 -0.0989  0.1150  0.0550
55890CHOL    R482201  19.308  15.146  15.579 -0.1320 -0.1955  0.0601
55890CHOL    R582202  19.396  14.988  15.458  0.0298 -0.0589 -0.0020
55890CHOL    C182203  19.149  15.133  15.207 -0.1089 -0.2034  0.0505
55890CHOL    C282204  18.889  15.223  14.928  0.1415 -0.1429 -0.2818
55891CHOL   ROH82205  24.495  23.585   4.040 -0.0173 -0.0081  0.0701
55891CHOL    R182206  24.608  23.480   4.278  0.1518  0.0446  0.0134
55891CHOL    R282207  24.497  23.267   4.414  0.2026  0.1284  0.1854
55891CHOL    R382208  24.745  23.161   4.387  0.1477  0.0428  0.0137
55891CHOL    R482209  24.591  22.955   4.527  0.2150  0.1610  0.2666
55891CHOL    R582210  24.781  23.041   4.590  0.2995  0.1415  0.0466
55891CHOL    C182211  24.880  22.673   4.567  0.1710  0.0997  0.1525
55891CHOL    C282212  25.210  22.581   4.759  0.0969 -0.2549 -0.1350
55892CHOL   ROH82213   1.798  11.511  11.726 -0.0258  0.1312 -0.1475
55892CHOL    R182214   1.976  11.535  11.507 -0.0101  0.0618 -0.1423
55892CHOL    R282215   2.249  11.503  11.534 -0.0121  0.0676 -0.1129
55892CHOL    R382216   2.214  11.320  11.336  0.0002  0.0063 -0.0587
55892CHOL    R482217   2.489  11.416  11.301  0.0051 -0.0106 -0.0663
55892CHOL    R582218   2.333  11.411  11.149  0.0175 -0.0547 -0.0777
55892CHOL    C182219   2.596  11.194  10.979  0.0267 -0.1136  0.0120
55892CHOL    C282220   2.824  11.201  10.671 -0.1851  0.0702 -0.0822
55893CHOL   ROH82221  17.585  29.228  12.012 -0.0522  0.0071  0.1971
55893CHOL    R182222  17.861  29.292  12.000 -0.0259 -0.1230  0.1077
55893CHOL    R282223  17.959  29.541  12.069  0.1048 -0.1456  0.0019
55893CHOL    R382224  18.119  29.396  12.234  0.0808 -0.1645  0.0094
55893CHOL    R482225  18.256  29.653  12.204  0.0814 -0.1570  0.0646
55893CHOL    R582226  18.342  29.456  12.168  0.0908 -0.1516  0.0528
55893CHOL    C182227  18.580  29.583  12.438  0.0444 -0.1815  0.1082
55893CHOL    C282228  18.629  30.001  12.622 -0.0526  0.0261 -0.0618
55894CHOL   ROH82229  17.993  32.877  10.743 -0.0071 -0.0200 -0.1072
55894CHOL    R182230  18.074  32.921  11.011 -0.0010  0.0317 -0.1175
55894CHOL    R282231  18.309  32.818  11.114 -0.0056  0.0395 -0.0988
55894CHOL    R382232  18.355  33.078  11.180  0.0105  0.0511 -0.1541
55894CHOL    R482233  18.544  32.925  11.344  0.1354  0.0862 -0.2636
55894CHOL    R582234  18.400  33.073  11.415  0.1667  0.0778 -0.1828
55894CHOL    C182235  18.724  33.231  11.540  0.2329  0.1232 -0.4115
55894CHOL    C282236  18.930  33.210  11.807 -0.2281  0.2114  0.1863
55895CHOL   ROH82237  21.378  22.128   8.286  0.0791 -0.0964 -0.1151
55895CHOL    R182238  21.603  22.170   8.452 -0.0071  0.0099 -0.0238
55895CHOL    R282239  21.855  22.077   8.387  0.0201 -0.0640  0.1849
55895CHOL    R382240  21.925  22.337   8.423  0.0240 -0.0420  0.0229
55895CHOL    R482241  22.171  22.186   8.477  0.0500 -0.0048  0.0113
55895CHOL    R582242  22.077  22.333   8.608  0.0935  0.0605 -0.0303
55895CHOL    C182243  22.420  22.494   8.563  0.0711  0.0499 -0.2417
55895CHOL    C282244  22.512  22.560   8.822 -0.0865  0.3355 -0.0316
55896CHOL   ROH82245   2.208  14.376  10.227  0.0564  0.0179  0.2046
55896CHOL    R182246   2.488  14.380  10.190  0.0352  0.0544  0.0482
55896CHOL    R282247   2.629  14.159  10.102  0.0092  0.0855 -0.0702
55896CHOL    R382248   2.718  14.332   9.912 -0.1145  0.1286 -0.0894
55896CHOL    R482249   2.868  14.085   9.863  0.0909  0.2400 -0.0376
55896CHOL    R582250   2.952  14.284   9.892 -0.0724  0.3140 -0.0611
55896CHOL    C182251   3.090  14.204   9.546  0.0223  0.3704 -0.0368
55896CHOL    C282252   3.270  13.870   9.410  0.0890 -0.1998 -0.0449
55897CHOL   ROH82253   3.637  30.744  14.012  0.2095  0.2337  0.1056
55897CHOL    R182254   3.425  30.638  14.167 -0.0506  0.3782 -0.1461
55897CHOL    R282255   3.460  30.552  14.427 -0.3132 -0.0834 -0.2590
55897CHOL    R382256   3.256  30.725  14.477 -0.0249  0.2142 -0.0853
55897CHOL    R482257   3.351  30.643  14.743 -0.0327 -0.0690 -0.1652
55897CHOL    R582258   3.146  30.633  14.670 -0.0857  0.2880 -0.0830
55897CHOL    C182259   3.096  30.858  14.973  0.4013  0.2188  0.0526
55897CHOL    C282260   3.177  30.827  15.414 -0.0843 -0.1522 -0.2108
55898CHOL   ROH82261  31.931  30.600   7.320  0.1975  0.0457  0.0385
55898CHOL    R182262  31.783  30.476   7.527  0.0847 -0.0063 -0.0723
55898CHOL    R282263  31.721  30.606   7.763 -0.0646 -0.0568 -0.0827
55898CHOL    R382264  31.466  30.535   7.697 -0.0208 -0.0637 -0.2472
55898CHOL    R482265  31.460  30.574   7.988 -0.1371 -0.3674 -0.2085
55898CHOL    R582266  31.395  30.396   7.879 -0.0465 -0.2743 -0.4162
55898CHOL    C182267  31.070  30.488   8.058 -0.1386 -0.5552 -0.4363
55898CHOL    C282268  30.685  30.601   8.211 -0.3166  0.1520 -0.0941
55899CHOL   ROH82269  27.340   3.926   9.462 -0.1709 -0.0086 -0.0458
55899CHOL    R182270  27.229   3.732   9.287 -0.0889 -0.0434 -0.0592
55899CHOL    R282271  26.992   3.601   9.342 -0.1208 -0.0211 -0.1515
55899CHOL    R382272  26.922   3.693   9.096  0.0079 -0.0751 -0.2094
55899CHOL    R482273  26.785   3.435   9.121 -0.4875  0.2014  0.0206
55899CHOL    R582274  26.916   3.497   8.958 -0.3958 -0.1770 -0.0563
55899CHOL    C182275  26.598   3.426   8.761 -0.5793  0.2804  0.0665
55899CHOL    C282276  26.502   3.309   8.442 -0.3126  0.4337 -0.0355
55900CHOL   ROH82277   2.604   1.339  15.634  0.1528  0.1785  0.0107
55900CHOL    R182278   2.815   1.188  15.521  0.0213 -0.0391  0.0524
55900CHOL    R282279   2.807   0.913  15.501 -0.3621 -0.0147 -0.1667
55900CHOL    R382280   2.858   0.963  15.238 -0.0939  0.1185 -0.0919
55900CHOL    R482281   3.078   0.789  15.325 -0.3567 -0.1930 -0.0346
55900CHOL    R582282   3.096   0.983  15.226 -0.0587 -0.1402  0.1174
55900CHOL    C182283   3.283   0.764  14.976 -0.1017 -0.1718  0.1127
55900CHOL    C282284   3.376   0.402  15.014 -0.1316  0.1353  0.1720
55901CHOL   ROH82285  18.930  11.961  16.350 -0.0813  0.0546  0.0535
55901CHOL    R182286  18.799  12.080  16.130  0.0200  0.0475 -0.0109
55901CHOL    R282287  18.920  12.111  15.884  0.0896 -0.0749  0.0079
55901CHOL    R382288  18.700  11.979  15.794  0.0537 -0.0065 -0.0043
55901CHOL    R482289  18.859  12.031  15.553  0.1280 -0.1379  0.0157
55901CHOL    R582290  18.649  12.083  15.585  0.1427 -0.0413 -0.0436
55901CHOL    C182291  18.616  11.861  15.277  0.1165 -0.1103  0.0090
55901CHOL    C282292  18.434  11.775  14.963 -0.2511  0.3452 -0.1683
55902CHOL   ROH82293   1.005  12.337   9.664  0.1091  0.1419  0.2389
55902CHOL    R182294   1.227  12.341   9.488 -0.0007 -0.0375  0.0954
55902CHOL    R282295   1.486  12.299   9.574  0.0537  0.0681 -0.0203
55902CHOL    R382296   1.484  12.107   9.381 -0.0560 -0.1409  0.1863
55902CHOL    R482297   1.764  12.194   9.397 -0.0646 -0.0406 -0.1435
55902CHOL    R582298   1.640  12.186   9.217 -0.2162 -0.2697 -0.0321
55902CHOL    C182299   1.924  11.953   9.114 -0.2365 -0.2999 -0.0213
55902CHOL    C282300   2.237  12.049   8.949  0.1654 -0.0007  0.0932
55903CHOL   ROH82301  28.358   7.679   3.555 -0.1204 -0.2178 -0.0840
55903CHOL    R182302  28.290   7.786   3.808  0.2153 -0.2872  0.0393
55903CHOL    R282303  28.479   7.866   3.992  0.4670  0.1310 -0.3913
55903CHOL    R382304  28.341   8.100   3.985 -0.0118 -0.1354 -0.1596
55903CHOL    R482305  28.437   8.079   4.261  0.5558  0.0722 -0.3301
55903CHOL    R582306  28.231   8.111   4.197  0.3630 -0.3366  0.0521
55903CHOL    C182307  28.283   8.423   4.411  0.1576 -0.2119 -0.0769
55903CHOL    C282308  28.026   8.650   4.400 -0.0555  0.0061 -0.2548
55904CHOL   ROH82309   7.990  15.572  13.625 -0.2301 -0.1593  0.0307
55904CHOL    R182310   7.864  15.693  13.849 -0.3036 -0.2021  0.0131
55904CHOL    R282311   7.733  15.546  14.043  0.0129 -0.2782  0.1748
55904CHOL    R382312   7.900  15.679  14.211 -0.1024  0.0871  0.0056
55904CHOL    R482313   7.678  15.591  14.381  0.0570 -0.0362  0.1512
55904CHOL    R582314   7.753  15.794  14.361 -0.2030  0.0426 -0.0578
55904CHOL    C182315   7.803  15.741  14.736 -0.0253  0.4476 -0.0216
55904CHOL    C282316   7.585  15.979  14.995 -0.1460  0.0704 -0.1151
55905CHOL   ROH82317  32.573   2.743  11.252  0.1460  0.0455  0.1454
55905CHOL    R182318  32.471   2.847  11.009  0.0877 -0.1675  0.0766
55905CHOL    R282319  32.493   3.114  10.941 -0.2712 -0.1487  0.0117
55905CHOL    R382320  32.607   3.014  10.715 -0.0357 -0.0508  0.0856
55905CHOL    R482321  32.446   3.241  10.622 -0.1488 -0.1777 -0.0179
55905CHOL    R582322  32.437   3.036  10.548  0.0645 -0.1803 -0.0319
55905CHOL    C182323  32.526   3.220  10.225  0.1440 -0.1028  0.0343
55905CHOL    C282324  32.448   3.434   9.851 -0.0587 -0.2424  0.0886
55906CHOL   ROH82325   3.302  20.436  10.278  0.0125 -0.0075 -0.0334
55906CHOL    R182326   3.584  20.427  10.294  0.0155  0.0555 -0.0483
55906CHOL    R282327   3.744  20.383  10.073  0.0096 -0.0036 -0.0411
55906CHOL    R382328   3.863  20.614  10.154 -0.0311  0.0537 -0.1442
55906CHOL    R482329   4.005  20.538   9.908  0.0892 -0.1184 -0.0236
55906CHOL    R582330   4.095  20.582  10.102 -0.0053  0.0177 -0.0093
55906CHOL    C182331   4.269  20.846   9.888  0.0973 -0.1311 -0.1104
55906CHOL    C282332   4.677  20.868   9.894 -0.0473  0.0417 -0.0761
55907CHOL   ROH82333  30.596  11.087   1.224  0.3210  0.0469 -0.0345
55907CHOL    R182334  30.564  11.113   1.504  0.1568  0.1029 -0.0578
55907CHOL    R282335  30.328  11.199   1.619  0.0531  0.0244 -0.2075
55907CHOL    R382336  30.349  10.967   1.760  0.0831  0.0691 -0.1382
55907CHOL    R482337  30.159  11.129   1.913  0.1432  0.1318 -0.1298
55907CHOL    R582338  30.340  11.036   1.989  0.1617  0.1451 -0.1575
55907CHOL    C182339  30.081  10.871   2.215  0.2240  0.2362 -0.0194
55907CHOL    C282340  29.802  10.753   2.430  0.0100 -0.2684  0.3196
55908CHOL   ROH82341  26.291  22.179   5.687 -0.0869  0.0413 -0.0137
55908CHOL    R182342  26.057  22.203   5.530 -0.1017  0.0435  0.0082
55908CHOL    R282343  25.804  22.218   5.640 -0.1022 -0.0859  0.0276
55908CHOL    R382344  25.788  22.445   5.491 -0.1772 -0.0207  0.1346
55908CHOL    R482345  25.509  22.367   5.538 -0.1490 -0.2439 -0.0678
55908CHOL    R582346  25.602  22.407   5.345 -0.0648 -0.0786  0.0068
55908CHOL    C182347  25.322  22.666   5.338 -0.2472 -0.2743 -0.0229
55908CHOL    C282348  25.083  23.062   5.122 -0.0959 -0.3848  0.0694
55909CHOL   ROH82349  33.743  28.047   5.579  0.0941 -0.2281 -0.0294
55909CHOL    R182350  33.496  27.918   5.624  0.0225 -0.0584  0.0644
55909CHOL    R282351  33.477  27.648   5.679 -0.1517 -0.0699 -0.0618
55909CHOL    R382352  33.339  27.734   5.897  0.0549 -0.0757  0.0721
55909CHOL    R482353  33.231  27.467   5.842 -0.0561 -0.0423  0.1146
55909CHOL    R582354  33.117  27.652   5.864  0.0050 -0.0175  0.2451
55909CHOL    C182355  32.959  27.444   6.141  0.1927 -0.0315  0.3432
55909CHOL    C282356  32.914  27.218   6.357 -0.2906  0.1365  0.0348
55910CHOL   ROH82357  18.928  29.269  15.830  0.0162 -0.1250  0.1070
55910CHOL    R182358  18.712  29.093  15.776 -0.0076 -0.0544 -0.0310
55910CHOL    R282359  18.488  29.080  15.937  0.0159 -0.1891 -0.0095
55910CHOL    R382360  18.357  29.125  15.702 -0.0161  0.0496  0.0523
55910CHOL    R482361  18.159  28.993  15.874  0.0282 -0.1884 -0.0752
55910CHOL    R582362  18.219  28.931  15.673  0.0221  0.0509 -0.1531
55910CHOL    C182363  17.846  28.983  15.617  0.0052  0.0355 -0.0552
55910CHOL    C282364  17.645  28.784  15.863 -0.2519  0.0528  0.1864
55911CHOL   ROH82365  14.136  25.480  18.096 -0.1333  0.0142  0.0380
55911CHOL    R182366  14.085  25.511  18.373 -0.0561 -0.0797  0.0633
55911CHOL    R282367  14.277  25.465  18.565  0.0433  0.0053 -0.0142
55911CHOL    R382368  14.212  25.717  18.644 -0.0963 -0.0534  0.0617
55911CHOL    R482369  14.422  25.632  18.831  0.0478  0.0568 -0.0492
55911CHOL    R582370  14.224  25.710  18.883  0.0174 -0.0893  0.0549
55911CHOL    C182371  14.445  25.967  19.059 -0.0804  0.0319  0.0019
55911CHOL    C282372  14.508  25.971  19.467 -0.0243 -0.0692  0.0738
55912CHOL   ROH82373   8.388  12.756  13.323  0.0065  0.1714 -0.1463
55912CHOL    R182374   8.328  12.708  13.595  0.0818  0.1288 -0.1369
55912CHOL    R282375   8.303  12.912  13.780  0.0107  0.1084 -0.1241
55912CHOL    R382376   8.062  12.797  13.826  0.0791 -0.0190 -0.0835
55912CHOL    R482377   8.112  12.962  14.063 -0.0388  0.1296 -0.1610
55912CHOL    R582378   8.063  12.750  14.061  0.0933  0.0973 -0.0601
55912CHOL    C182379   7.774  12.883  14.272 -0.0033  0.0226 -0.1444
55912CHOL    C282380   7.979  12.867  14.638  0.0667  0.2047 -0.1865
55913CHOL   ROH82381  19.439  11.778  11.430 -0.0749 -0.0664  0.0481
55913CHOL    R182382  19.679  11.820  11.574 -0.0181 -0.1484 -0.0228
55913CHOL    R282383  19.683  11.879  11.844  0.0686  0.1272 -0.0842
55913CHOL    R382384  19.849  11.665  11.856 -0.1348 -0.0213  0.1188
55913CHOL    R482385  19.979  11.869  12.022  0.0765  0.0308 -0.1030
55913CHOL    R582386  20.069  11.760  11.856 -0.0427 -0.2279 -0.0026
55913CHOL    C182387  20.307  11.661  12.138 -0.1098 -0.1645  0.0765
55913CHOL    C282388  20.486  11.608  12.502 -0.0696 -0.0380  0.2542
55914CHOL   ROH82389   5.033  25.809  19.559 -0.1110  0.1395 -0.0701
55914CHOL    R182390   5.143  25.707  19.319  0.0089 -0.1713  0.1146
55914CHOL    R282391   5.264  25.868  19.130 -0.2335 -0.3639 -0.2081
55914CHOL    R382392   5.472  25.696  19.162  0.0115 -0.0163  0.1080
55914CHOL    R482393   5.533  25.841  18.915 -0.2126 -0.3963 -0.1780
55914CHOL    R582394   5.525  25.625  18.940  0.0917 -0.3670  0.2356
55914CHOL    C182395   5.885  25.664  18.820  0.0296 -0.0898  0.1363
55914CHOL    C282396   5.968  25.797  18.479 -0.0022  0.2591 -0.1247
55915CHOL   ROH82397  27.079   2.547   9.698 -0.1299  0.0694  0.1717
55915CHOL    R182398  27.031   2.630   9.432 -0.1001 -0.0762  0.1202
55915CHOL    R282399  27.104   2.478   9.213 -0.1203 -0.2191  0.2124
55915CHOL    R382400  26.842   2.507   9.146 -0.1113 -0.2051  0.1823
55915CHOL    R482401  26.975   2.427   8.897 -0.0776 -0.1629  0.1861
55915CHOL    R582402  26.848   2.602   8.926 -0.0805 -0.1664  0.1991
55915CHOL    C182403  26.654   2.424   8.649 -0.0442 -0.1171  0.1420
55915CHOL    C282404  26.742   2.194   8.263  0.0192  0.0486 -0.2436
55916CHOL   ROH82405   5.277  32.372  14.534 -0.1389 -0.0985  0.0091
55916CHOL    R182406   5.272  32.413  14.814 -0.0220 -0.1038  0.0124
55916CHOL    R282407   5.082  32.572  14.937  0.0597 -0.0655  0.0895
55916CHOL    R382408   5.038  32.348  15.085  0.0686 -0.0599  0.1011
55916CHOL    R482409   4.918  32.566  15.241 -0.1208 -0.0862 -0.0079
55916CHOL    R582410   5.065  32.421  15.312 -0.0997 -0.0099  0.1051
55916CHOL    C182411   4.781  32.353  15.557 -0.2176 -0.0936 -0.0534
55916CHOL    C282412   4.531  32.467  15.865  0.0033 -0.1459  0.1953
55917CHOL   ROH82413  19.957   2.433  10.065 -0.1925 -0.0607  0.0556
55917CHOL    R182414  19.962   2.319  10.324 -0.1095 -0.2002 -0.0072
55917CHOL    R282415  20.143   2.123  10.397  0.0678 -0.0712 -0.0988
55917CHOL    R382416  20.199   2.296  10.599 -0.1140 -0.1293  0.0023
55917CHOL    R482417  20.381   2.070  10.641  0.2533  0.1173 -0.2367
55917CHOL    R582418  20.243   2.155  10.787  0.1820 -0.1996 -0.1172
55917CHOL    C182419  20.573   2.202  10.974  0.1903  0.1726 -0.2221
55917CHOL    C282420  20.721   2.440  11.315 -0.2518 -0.3240  0.1159
55918CHOL   ROH82421   4.219  31.605  16.242 -0.1514 -0.0266 -0.0101
55918CHOL    R182422   4.388  31.382  16.197 -0.2125 -0.0402 -0.1760
55918CHOL    R282423   4.577  31.300  16.380  0.0400  0.0130 -0.4088
55918CHOL    R382424   4.449  31.061  16.356  0.0037  0.0062 -0.1645
55918CHOL    R482425   4.705  30.996  16.483  0.0613  0.0776 -0.2441
55918CHOL    R582426   4.624  30.906  16.302 -0.0388 -0.0517 -0.1352
55918CHOL    C182427   4.661  30.595  16.520  0.0396  0.1082  0.0815
55918CHOL    C282428   4.366  30.446  16.841 -0.0187 -0.2772  0.1760
55919CHOL   ROH82429  17.716  15.485  13.348 -0.0735  0.2046  0.0824
55919CHOL    R182430  17.959  15.550  13.478 -0.0700  0.0150  0.1730
55919CHOL    R282431  18.016  15.806  13.566  0.0816 -0.0371  0.2268
55919CHOL    R382432  18.058  15.680  13.803 -0.0867 -0.0996  0.2241
55919CHOL    R482433  18.149  15.955  13.847  0.2909 -0.2232  0.2280
55919CHOL    R582434  18.263  15.773  13.884  0.0431 -0.3811  0.2234
55919CHOL    C182435  18.266  15.924  14.234  0.2546 -0.3900  0.2262
55919CHOL    C282436  18.552  15.997  14.510  0.2390 -0.0787  0.3562
55920CHOL   ROH82437  31.626  24.063   5.143  0.2629 -0.1633 -0.0321
55920CHOL    R182438  31.780  24.109   4.910  0.0299 -0.0444 -0.1641
55920CHOL    R282439  31.684  24.253   4.694 -0.0982  0.2797  0.1043
55920CHOL    R382440  31.911  24.398   4.732  0.0769  0.0373  0.0013
55920CHOL    R482441  31.862  24.411   4.443 -0.1879  0.3029  0.0551
55920CHOL    R582442  32.046  24.348   4.541 -0.1522  0.0532 -0.1670
55920CHOL    C182443  32.178  24.639   4.332 -0.0760  0.0884 -0.0703
55920CHOL    C282444  32.366  24.665   4.021  0.0099 -0.1449 -0.2068
55921CHOL   ROH82445   0.438  16.293   6.803 -0.0333  0.1478 -0.1400
55921CHOL    R182446   0.717  16.243   6.786 -0.0234  0.1478  0.0125
55921CHOL    R282447   0.823  16.051   6.618  0.0596  0.0622  0.1623
55921CHOL    R382448   0.973  16.259   6.528  0.0936  0.0189  0.1193
55921CHOL    R482449   1.084  16.024   6.393 -0.0370 -0.0088  0.0585
55921CHOL    R582450   1.194  16.170   6.511  0.0577 -0.0536  0.0264
55921CHOL    C182451   1.376  16.204   6.177 -0.0614 -0.0905 -0.0424
55921CHOL    C282452   1.341  15.988   5.811 -0.0009 -0.1322  0.0185
55922CHOL   ROH82453  31.605   9.650   2.703 -0.0129  0.1571 -0.0823
55922CHOL    R182454  31.443   9.749   2.913  0.0099  0.0830 -0.0296
55922CHOL    R282455  31.444  10.014   2.990  0.0079  0.0589  0.0544
55922CHOL    R382456  31.176   9.994   2.950  0.0034  0.0594  0.0832
55922CHOL    R482457  31.208  10.227   3.125  0.0088 -0.0436  0.2197
55922CHOL    R582458  31.079  10.054   3.160  0.0299 -0.0770  0.1348
55922CHOL    C182459  30.818  10.332   3.165  0.0051 -0.1030  0.3431
55922CHOL    C282460  30.858  10.702   3.038 -0.0775  0.5865  0.1206
55923CHOL   ROH82461  27.087  26.652   7.508  0.0670  0.0986  0.0851
55923CHOL    R182462  26.938  26.763   7.294  0.1371 -0.0687 -0.0507
55923CHOL    R282463  26.846  27.023   7.296 -0.1323 -0.1614 -0.1464
55923CHOL    R382464  26.978  27.037   7.058  0.0589 -0.0428 -0.0344
55923CHOL    R482465  26.757  27.229   7.033 -0.1223 -0.2747 -0.2388
55923CHOL    R582466  26.804  27.066   6.896  0.1677 -0.2380 -0.1868
55923CHOL    C182467  26.830  27.362   6.657  0.0630 -0.2292 -0.1873
55923CHOL    C282468  26.912  27.770   6.575  0.0916 -0.1784 -0.3203
55924CHOL   ROH82469  33.263   3.258  11.326  0.1676 -0.0587  0.0866
55924CHOL    R182470  33.422   3.076  11.179  0.1881 -0.0286  0.0708
55924CHOL    R282471  33.314   2.889  11.007  0.1987 -0.1270  0.1700
55924CHOL    R382472  33.483   3.002  10.827  0.0718 -0.1007  0.0653
55924CHOL    R482473  33.475   2.719  10.753 -0.0011 -0.0845  0.0131
55924CHOL    R582474  33.653   2.837  10.793  0.0366 -0.1040 -0.0967
55924CHOL    C182475  33.728   2.727  10.436 -0.2386 -0.0350 -0.1762
55924CHOL    C282476  33.815   2.513  10.095  0.1250  0.0662 -0.1846
55925CHOL   ROH82477  32.908  27.281  10.144  0.0363 -0.0324 -0.1616
55925CHOL    R182478  32.898  27.523   9.996  0.1274 -0.0727 -0.2348
55925CHOL    R282479  32.970  27.766  10.104 -0.1248 -0.0126 -0.1950
55925CHOL    R382480  33.135  27.777   9.888  0.1623  0.0040  0.0221
55925CHOL    R482481  33.080  28.057   9.954 -0.4177 -0.0053 -0.3982
55925CHOL    R582482  33.053  27.961   9.760  0.0198 -0.2943 -0.3219
55925CHOL    C182483  33.299  28.237   9.663 -0.3188  0.0145 -0.3129
55925CHOL    C282484  33.690  28.313   9.530 -0.2286  0.0023 -0.2030
55926CHOL   ROH82485   3.799  23.965  15.266  0.1166 -0.3520 -0.1094
55926CHOL    R182486   3.875  24.148  15.064 -0.0195  0.0708  0.2153
55926CHOL    R282487   4.070  24.339  15.103  0.2086 -0.1916  0.3967
55926CHOL    R382488   4.179  24.228  14.880 -0.2162  0.2404 -0.0383
55926CHOL    R482489   4.350  24.459  14.938  0.3473 -0.3077  0.5467
55926CHOL    R582490   4.251  24.415  14.749  0.0947  0.4908  0.4771
55926CHOL    C182491   4.614  24.424  14.633  0.0293  0.0306  0.2258
55926CHOL    C282492   4.490  24.745  14.310 -0.1526  0.0439 -0.1349
55927CHOL   ROH82493   1.775  32.100  15.600  0.0745  0.1407  0.0762
55927CHOL    R182494   1.960  32.209  15.415 -0.0222  0.0355 -0.0831
55927CHOL    R282495   2.228  32.142  15.416 -0.0041  0.1124 -0.1212
55927CHOL    R382496   2.180  32.081  15.155 -0.0791 -0.1232 -0.0539
55927CHOL    R482497   2.461  32.166  15.162 -0.1510  0.1419 -0.2547
55927CHOL    R582498   2.304  32.245  15.032 -0.2902 -0.0969 -0.2366
55927CHOL    C182499   2.552  32.122  14.770 -0.3072 -0.0620 -0.2693
55927CHOL    C282500   2.819  32.421  14.731  0.1189  0.4976 -0.0950
55928CHOL   ROH82501   1.061  32.692  10.883  0.1144 -0.1045  0.2350
55928CHOL    R182502   0.785  32.700  10.942  0.1446 -0.0156  0.3678
55928CHOL    R282503   0.611  32.498  10.866 -0.0306  0.2453  0.0666
55928CHOL    R382504   0.549  32.497  11.131  0.0834 -0.2020  0.0947
55928CHOL    R482505   0.302  32.414  10.995 -0.1306  0.5230  0.0138
55928CHOL    R582506   0.323  32.576  11.139  0.2246  0.1892  0.3547
55928CHOL    C182507   0.063  32.362  11.319 -0.0818  0.2652  0.0093
55928CHOL    C282508  35.034  32.370  11.374 -0.2763 -0.2213 -0.1859
55929CHOL   ROH82509  22.531   5.021   8.966  0.2555 -0.1272 -0.0981
55929CHOL    R182510  22.731   5.194   9.067  0.0998 -0.0081  0.0077
55929CHOL    R282511  22.704   5.327   9.308 -0.0466 -0.1316  0.0606
55929CHOL    R382512  22.943   5.209   9.362  0.0410  0.0383  0.0480
55929CHOL    R482513  22.933   5.443   9.540 -0.1255  0.0201  0.0640
55929CHOL    R582514  23.093   5.393   9.399 -0.0916  0.1453  0.0573
55929CHOL    C182515  23.291   5.399   9.726 -0.0896  0.2679  0.0540
55929CHOL    C282516  23.677   5.509   9.886 -0.0260  0.2499 -0.0724
55930CHOL   ROH82517   4.021  17.000   6.660 -0.0549 -0.0301 -0.2985
55930CHOL    R182518   3.782  16.895   6.769 -0.0188  0.1472 -0.0456
55930CHOL    R282519   3.597  17.052   6.900 -0.0213  0.3813 -0.3261
55930CHOL    R382520   3.425  16.943   6.720 -0.0357 -0.0099 -0.0830
55930CHOL    R482521   3.253  17.061   6.926 -0.0167  0.2474 -0.2103
55930CHOL    R582522   3.247  16.855   6.854  0.0604  0.1194  0.1338
55930CHOL    C182523   2.890  16.965   6.772 -0.0274 -0.1979  0.0852
55930CHOL    C282524   2.643  17.199   6.958  0.2317  0.4203  0.3432
55931CHOL   ROH82525   0.865  21.683   3.368 -0.0713  0.0829  0.1228
55931CHOL    R182526   0.794  21.476   3.549 -0.0735  0.1642  0.2159
55931CHOL    R282527   0.576  21.494   3.717 -0.2214  0.1373  0.0320
55931CHOL    R382528   0.509  21.257   3.602  0.0329  0.0088  0.1448
55931CHOL    R482529   0.374  21.254   3.862 -0.1546  0.0889  0.0451
55931CHOL    R582530   0.507  21.101   3.783  0.0122  0.1312  0.2486
55931CHOL    C182531   0.193  20.892   3.838  0.1231 -0.0595  0.1586
55931CHOL    C282532  35.292  20.662   3.854 -0.2054 -0.0746  0.1705
55932CHOL   ROH82533   0.559  32.854  14.414 -0.0151  0.2074  0.2373
55932CHOL    R182534   0.742  32.938  14.216  0.0791  0.2419  0.3394
55932CHOL    R282535   0.663  33.018  13.963  0.2205  0.0406  0.2316
55932CHOL    R382536   0.804  33.242  14.025 -0.0032  0.1856  0.2227
55932CHOL    R482537   0.782  33.246  13.733  0.2654 -0.0175  0.1969
55932CHOL    R582538   0.966  33.261  13.849  0.1475  0.1930  0.3605
55932CHOL    C182539   0.983  33.589  13.656  0.0815  0.0848  0.1682
55932CHOL    C282540   1.071  33.708  13.330 -0.2172 -0.1085 -0.1061
55933CHOL   ROH82541   2.583  15.858  11.308  0.0354  0.2911  0.0697
55933CHOL    R182542   2.831  15.955  11.214  0.1036  0.1491  0.1014
55933CHOL    R282543   3.073  15.876  11.322  0.0496 -0.0496  0.0804
55933CHOL    R382544   3.131  15.813  11.064  0.0075 -0.0129  0.0620
55933CHOL    R482545   3.378  15.755  11.212  0.1083  0.1918 -0.0259
55933CHOL    R582546   3.359  15.882  11.036 -0.0580  0.1697 -0.0240
55933CHOL    C182547   3.610  15.625  10.906  0.1029  0.3667 -0.1052
55933CHOL    C282548   3.818  15.671  10.583  0.2294 -0.1560 -0.0990
55934CHOL   ROH82549   6.189  26.492  17.196 -0.0583  0.2939 -0.0828
55934CHOL    R182550   6.003  26.498  17.409  0.1034  0.0372  0.0687
55934CHOL    R282551   5.738  26.426  17.377  0.0548  0.1753  0.1589
55934CHOL    R382552   5.792  26.257  17.582  0.1540 -0.1545 -0.1340
55934CHOL    R482553   5.531  26.170  17.480 -0.1852  0.3979  0.2338
55934CHOL    R582554   5.579  26.221  17.687  0.2795  0.0805  0.2117
55934CHOL    C182555   5.461  25.862  17.734 -0.2319  0.2171  0.0030
55934CHOL    C282556   5.613  25.583  18.036 -0.0004  0.1489 -0.0548
55935CHOL   ROH82557   6.721   3.194  14.645  0.0560 -0.1284 -0.1299
55935CHOL    R182558   6.451   3.201  14.731  0.0340  0.0505 -0.2103
55935CHOL    R282559   6.377   3.149  14.992 -0.1119 -0.2791 -0.3146
55935CHOL    R382560   6.255   3.391  14.971  0.1786 -0.0985  0.0279
55935CHOL    R482561   6.105   3.250  15.180 -0.2138 -0.3576 -0.4193
55935CHOL    R582562   6.022   3.343  15.001  0.0886  0.0935 -0.3327
55935CHOL    C182563   5.832   3.535  15.270 -0.0005 -0.2337 -0.1588
55935CHOL    C282564   5.829   3.878  15.528 -0.1115  0.0426  0.0191
55936CHOL   ROH82565  13.410  15.902  15.880  0.1131  0.0776  0.0889
55936CHOL    R182566  13.129  15.873  15.881  0.1142  0.0634 -0.0267
55936CHOL    R282567  12.985  15.821  16.111  0.0354 -0.0728 -0.1064
55936CHOL    R382568  12.846  16.042  16.035  0.0513 -0.0371 -0.0317
55936CHOL    R482569  12.698  15.936  16.265 -0.0039 -0.1530 -0.1190
55936CHOL    R582570  12.616  15.982  16.068  0.0436 -0.0569 -0.1173
55936CHOL    C182571  12.400  16.210  16.284 -0.0117 -0.1660 -0.0563
55936CHOL    C282572  12.121  16.105  16.043  0.1048  0.0840 -0.2521
55937CHOL   ROH82573  25.551   7.882   9.368 -0.0671 -0.1623  0.0563
55937CHOL    R182574  25.434   7.687   9.199 -0.1270 -0.1788  0.1163
55937CHOL    R282575  25.184   7.578   9.248 -0.2334  0.0345  0.0592
55937CHOL    R382576  25.134   7.661   8.993 -0.0448 -0.0808 -0.0160
55937CHOL    R482577  24.900   7.500   9.067 -0.1888  0.1173 -0.0469
55937CHOL    R582578  25.026   7.474   8.891 -0.1131 -0.0681  0.0355
55937CHOL    C182579  24.688   7.532   8.723  0.0144  0.0571 -0.1792
55937CHOL    C282580  24.454   7.363   8.393 -0.1479  0.1911 -0.0391
55938CHOL   ROH82581  23.266  22.394  12.235 -0.1389  0.0365  0.0525
55938CHOL    R182582  23.077  22.307  12.044  0.1217 -0.2968 -0.0591
55938CHOL    R282583  23.047  22.041  11.974  0.1485 -0.4367  0.4382
55938CHOL    R382584  22.787  22.087  12.040  0.0613 -0.2165 -0.0408
55938CHOL    R482585  22.779  21.857  11.858  0.2468 -0.5016  0.3129
55938CHOL    R582586  22.666  22.042  11.838  0.3572 -0.4837 -0.1604
55938CHOL    C182587  22.379  21.792  11.852  0.2226 -0.3325 -0.2096
55938CHOL    C282588  22.235  21.471  11.632  0.0628 -0.0141 -0.4378
55939CHOL   ROH82589  17.539  28.345  18.845  0.1479  0.0470 -0.0394
55939CHOL    R182590  17.368  28.214  18.663  0.2071 -0.0742 -0.0084
55939CHOL    R282591  17.377  27.941  18.620  0.1359 -0.1220  0.2699
55939CHOL    R382592  17.112  27.955  18.680  0.1056  0.0332  0.1028
55939CHOL    R482593  17.138  27.716  18.512  0.0767 -0.0019  0.1480
55939CHOL    R582594  17.002  27.884  18.479  0.1902  0.0710  0.0427
55939CHOL    C182595  16.750  27.598  18.505  0.0138  0.2144 -0.0793
55939CHOL    C282596  16.774  27.223  18.270 -0.0727  0.1261 -0.1268
55940CHOL   ROH82597  18.701  34.945  13.944 -0.1169 -0.0233  0.1830
55940CHOL    R182598  18.549  35.046  13.728 -0.1629 -0.0111  0.2211
55940CHOL    R282599  18.555  34.934  13.476 -0.0772  0.1142  0.1672
55940CHOL    R382600  18.286  34.922  13.509 -0.0729 -0.0647  0.1432
55940CHOL    R482601  18.326  34.904  13.219 -0.0427  0.1183  0.1353
55940CHOL    R582602  18.197  35.046  13.324 -0.1341 -0.0145  0.2056
55940CHOL    C182603  17.939  34.875  13.101 -0.0187 -0.0460  0.0947
55940CHOL    C282604  17.755  35.030  12.855  0.2953  0.0042  0.1876
55941CHOL   ROH82605  35.366   5.581  11.163 -0.2286  0.0241 -0.1555
55941CHOL    R182606   0.191   5.434  11.043 -0.1200  0.1151 -0.0772
55941CHOL    R282607   0.152   5.266  10.828 -0.0020 -0.0527  0.0313
55941CHOL    R382608   0.349   5.416  10.715 -0.1284  0.0332 -0.0769
55941CHOL    R482609   0.369   5.155  10.583  0.0606 -0.0326  0.0775
55941CHOL    R582610   0.530   5.262  10.684 -0.0121  0.1533 -0.0010
55941CHOL    C182611   0.680   5.232  10.334 -0.0216  0.0598  0.0029
55941CHOL    C282612   0.799   5.305   9.981  0.0502  0.3859 -0.2781
55942CHOL   ROH82613   8.252  20.324  20.485  0.1156  0.0131 -0.0269
55942CHOL    R182614   8.343  20.430  20.239  0.4304 -0.0914  0.0418
55942CHOL    R282615   8.288  20.689  20.160  0.0324 -0.3010 -0.3909
55942CHOL    R382616   8.558  20.703  20.132  0.0752  0.2545  0.1958
55942CHOL    R482617   8.455  20.925  19.970 -0.0867 -0.3288 -0.5318
55942CHOL    R582618   8.591  20.769  19.904  0.4355 -0.1747  0.1175
55942CHOL    C182619   8.805  21.077  19.834 -0.1161  0.1759 -0.0633
55942CHOL    C282620   8.730  21.419  19.744 -0.0640 -0.2060  0.1577
55943CHOL   ROH82621  14.977  24.564  17.635 -0.2922 -0.1992  0.0305
55943CHOL    R182622  14.970  24.456  17.897 -0.0925 -0.1989  0.0368
55943CHOL    R282623  15.186  24.325  18.009  0.0455 -0.0687 -0.0710
55943CHOL    R382624  15.151  24.507  18.209  0.0392 -0.0849 -0.0576
55943CHOL    R482625  15.343  24.313  18.317  0.1807  0.0122 -0.1362
55943CHOL    R582626  15.155  24.376  18.409  0.1886 -0.0803 -0.0586
55943CHOL    C182627  15.401  24.477  18.683  0.2536  0.0440 -0.1622
55943CHOL    C282628  15.723  24.362  18.779  0.1253  0.1295 -0.3638
55944CHOL   ROH82629  18.733  15.014  12.093  0.1003  0.1945 -0.0537
55944CHOL    R182630  18.958  14.919  12.237  0.1944  0.2399 -0.1698
55944CHOL    R282631  19.105  15.080  12.406  0.0201  0.1751  0.0462
55944CHOL    R382632  19.053  14.883  12.586  0.2163 -0.1177 -0.2106
55944CHOL    R482633  19.301  15.007  12.681 -0.0080  0.1328  0.0551
55944CHOL    R582634  19.268  14.795  12.642  0.3185  0.1277 -0.2125
55944CHOL    C182635  19.366  14.781  13.011  0.1600 -0.1669 -0.1807
55944CHOL    C282636  19.614  14.763  13.271  0.2551 -0.0096  0.1663
55945CHOL   ROH82637   6.072   8.584  11.746 -0.0010  0.1628 -0.0716
55945CHOL    R182638   5.806   8.618  11.835  0.0348 -0.0144  0.1057
55945CHOL    R282639   5.738   8.621  12.103  0.2328  0.1070  0.1570
55945CHOL    R382640   5.622   8.858  12.038 -0.0264 -0.0389  0.0786
55945CHOL    R482641   5.475   8.767  12.274  0.3445  0.0771  0.3546
55945CHOL    R582642   5.389   8.826  12.083  0.0542 -0.1673  0.4084
55945CHOL    C182643   5.214   9.075  12.313  0.1661 -0.0772  0.3960
55945CHOL    C282644   4.925   9.225  12.464  0.1625  0.0358 -0.3417
55946CHOL   ROH82645   7.541   7.906  17.463  0.2372 -0.0349 -0.0468
55946CHOL    R182646   7.607   8.039  17.222 -0.0966 -0.0610 -0.1545
55946CHOL    R282647   7.832   7.976  17.074 -0.0343  0.2586 -0.1998
55946CHOL    R382648   7.651   7.946  16.873 -0.0598 -0.1964 -0.1140
55946CHOL    R482649   7.913   7.925  16.742 -0.0639  0.3948 -0.2285
55946CHOL    R582650   7.751   8.059  16.686 -0.4077  0.0086 -0.1785
55946CHOL    C182651   7.792   7.867  16.360 -0.1051  0.0470 -0.1643
55946CHOL    C282652   8.153   7.691  16.332 -0.3824 -0.2827 -0.2301
55947CHOL   ROH82653  25.312  25.648   3.882 -0.0247 -0.2885 -0.0777
55947CHOL    R182654  25.492  25.520   4.060 -0.0139 -0.2134 -0.0337
55947CHOL    R282655  25.660  25.661   4.228  0.0201 -0.1413 -0.1263
55947CHOL    R382656  25.543  25.508   4.420  0.0286 -0.0313 -0.0337
55947CHOL    R482657  25.790  25.606   4.543  0.1083 -0.0875 -0.1536
55947CHOL    R582658  25.726  25.399   4.528  0.0223 -0.0668 -0.0612
55947CHOL    C182659  25.757  25.431   4.907  0.1678  0.0470 -0.0825
55947CHOL    C282660  25.840  25.619   5.163  0.1679  0.1527  0.0985
55948CHOL   ROH82661   6.910   8.842  13.102  0.0717 -0.1131 -0.2063
55948CHOL    R182662   6.745   9.043  13.214  0.2038 -0.0755 -0.0766
55948CHOL    R282663   6.469   9.033  13.201  0.1979  0.1571 -0.1600
55948CHOL    R382664   6.488   9.061  13.471  0.1500 -0.0914 -0.1291
55948CHOL    R482665   6.208   9.125  13.409  0.2153  0.1827 -0.1493
55948CHOL    R582666   6.348   9.249  13.521  0.2848 -0.0235 -0.0038
55948CHOL    C182667   6.074   9.205  13.783  0.1805 -0.0359 -0.1144
55948CHOL    C282668   5.820   9.228  13.923  0.1046  0.1515 -0.1594
55949CHOL   ROH82669  17.175  18.717  18.152  0.0576 -0.2803 -0.0017
55949CHOL    R182670  17.094  18.752  17.883 -0.0223 -0.1373  0.0402
55949CHOL    R282671  17.161  18.574  17.683 -0.0070  0.0144 -0.0921
55949CHOL    R382672  16.893  18.569  17.641 -0.0156 -0.0562 -0.0265
55949CHOL    R482673  17.009  18.493  17.383 -0.0584  0.0111 -0.0648
55949CHOL    R582674  16.865  18.653  17.419 -0.0946 -0.0349 -0.0082
55949CHOL    C182675  16.668  18.441  17.170 -0.0963 -0.0574  0.0123
55949CHOL    C282676  16.463  18.531  16.827  0.1044  0.0941 -0.0068
55950CHOL   ROH82677  10.074  16.572  17.918 -0.0241 -0.0954 -0.1107
55950CHOL    R182678  10.120  16.572  17.639 -0.0407 -0.0069 -0.1135
55950CHOL    R282679  10.007  16.759  17.469  0.0005  0.0858 -0.0396
55950CHOL    R382680  10.266  16.799  17.394  0.0073  0.0419 -0.0397
55950CHOL    R482681  10.107  16.951  17.200  0.0375  0.1217 -0.0004
55950CHOL    R582682  10.258  16.800  17.155  0.0003  0.0963 -0.0387
55950CHOL    C182683  10.408  17.101  16.973  0.0656  0.1010  0.0222
55950CHOL    C282684  10.409  17.453  16.805 -0.0308 -0.3302 -0.2951
55951CHOL   ROH82685   9.007  23.930  18.112 -0.1563  0.3162 -0.0994
55951CHOL    R182686   8.739  23.933  18.203 -0.1237  0.2357  0.0017
55951CHOL    R282687   8.613  23.709  18.303 -0.0637  0.1627 -0.0828
55951CHOL    R382688   8.564  23.870  18.516 -0.0014  0.0338  0.0295
55951CHOL    R482689   8.331  23.694  18.502 -0.0414  0.0952 -0.0566
55951CHOL    R582690   8.329  23.912  18.507  0.0072  0.0923  0.0868
55951CHOL    C182691   8.121  23.837  18.818  0.0298 -0.0651  0.0645
55951CHOL    C282692   7.852  23.816  19.215 -0.1443 -0.2291 -0.2381
55952CHOL   ROH82693  10.602  33.992  20.126  0.0638  0.1146 -0.0862
55952CHOL    R182694  10.524  34.050  19.860  0.0822  0.0187 -0.1125
55952CHOL    R282695  10.706  34.096  19.658  0.0958 -0.0372 -0.1122
55952CHOL    R382696  10.568  33.898  19.532  0.1199 -0.0892 -0.0576
55952CHOL    R482697  10.716  34.033  19.318 -0.0238 -0.0244 -0.1186
55952CHOL    R582698  10.501  33.995  19.324 -0.0079 -0.1087 -0.0273
55952CHOL    C182699  10.593  33.811  19.002 -0.0707 -0.0641 -0.0710
55952CHOL    C282700  10.807  33.877  18.734 -0.4398 -0.1520 -0.0370
55953CHOL   ROH82701  19.536  22.707  17.458 -0.0716 -0.0373  0.2354
55953CHOL    R182702  19.476  22.828  17.209 -0.0816  0.1110  0.3092
55953CHOL    R282703  19.447  22.682  16.976  0.1859  0.2778  0.1702
55953CHOL    R382704  19.207  22.808  16.964  0.0542  0.0312  0.1650
55953CHOL    R482705  19.228  22.665  16.709  0.3326  0.2735  0.0494
55953CHOL    R582706  19.188  22.878  16.736  0.0914  0.2087  0.2148
55953CHOL    C182707  18.876  22.775  16.542  0.2945  0.0386 -0.0254
55953CHOL    C282708  18.926  22.811  16.189 -0.0447  0.0208  0.1661
55954CHOL   ROH82709  20.176  18.933   9.334 -0.0822 -0.2757  0.0789
55954CHOL    R182710  20.439  18.837   9.374  0.0006 -0.0660  0.0408
55954CHOL    R282711  20.660  19.002   9.364 -0.1427  0.1336  0.1362
55954CHOL    R382712  20.710  18.898   9.610 -0.0631  0.0480  0.0844
55954CHOL    R482713  20.965  19.015   9.526 -0.1743  0.3647  0.1786
55954CHOL    R582714  20.932  18.810   9.594  0.0322  0.2905  0.0615
55954CHOL    C182715  21.189  18.925   9.852 -0.1176  0.4191  0.1548
55954CHOL    C282716  21.440  18.828  10.065  0.2363 -0.0413  0.0882
55955CHOL   ROH82717   5.564  17.867  11.578  0.0704  0.0810  0.0032
55955CHOL    R182718   5.405  17.817  11.807  0.0841  0.0452  0.0051
55955CHOL    R282719   5.140  17.741  11.790  0.0396  0.1974  0.0109
55955CHOL    R382720   5.223  17.534  11.946 -0.0443  0.0688 -0.1133
55955CHOL    R482721   4.934  17.494  11.917 -0.0800  0.2697 -0.0415
55955CHOL    R582722   5.046  17.504  12.104 -0.0140  0.1087 -0.0717
55955CHOL    C182723   4.892  17.157  12.138 -0.2284  0.1915 -0.1887
55955CHOL    C282724   4.665  17.004  12.284  0.2355  0.0334  0.0072
55956CHOL   ROH82725  25.406  11.990   2.595  0.3729 -0.0510 -0.1009
55956CHOL    R182726  25.495  12.129   2.825  0.3399  0.1114 -0.1860
55956CHOL    R282727  25.478  12.023   3.079  0.1494  0.3578 -0.0941
55956CHOL    R382728  25.744  12.079   3.085  0.1805  0.2060 -0.0126
55956CHOL    R482729  25.668  12.051   3.367  0.1005  0.1368 -0.0390
55956CHOL    R582730  25.771  12.221   3.276  0.2167  0.1161  0.0506
55956CHOL    C182731  26.028  12.120   3.540  0.1010 -0.1346  0.0696
55956CHOL    C282732  26.303  12.043   3.644 -0.1132 -0.2145  0.1948
55957CHOL   ROH82733   5.928   7.506  16.617 -0.0619 -0.0221  0.0181
55957CHOL    R182734   6.174   7.476  16.480 -0.1123 -0.0853 -0.0591
55957CHOL    R282735   6.414   7.435  16.612 -0.0524  0.0527 -0.1245
55957CHOL    R382736   6.430   7.218  16.449 -0.0838 -0.0679  0.0315
55957CHOL    R482737   6.705   7.320  16.465 -0.1209  0.0910 -0.2926
55957CHOL    R582738   6.591   7.280  16.283 -0.2633 -0.1126 -0.1619
55957CHOL    C182739   6.889   7.048  16.227 -0.1901  0.0001 -0.2434
55957CHOL    C282740   7.097   6.750  16.298 -0.1404 -0.1799 -0.0386
55958CHOL   ROH82741  13.410  23.168  18.353  0.0846  0.0177 -0.1777
55958CHOL    R182742  13.619  23.072  18.517  0.1641  0.3727 -0.0658
55958CHOL    R282743  13.690  23.193  18.755 -0.2561  0.4187  0.0407
55958CHOL    R382744  13.652  22.944  18.856  0.1734  0.2939 -0.0969
55958CHOL    R482745  13.752  23.101  19.082 -0.2604  0.3855  0.0322
55958CHOL    R582746  13.834  22.913  19.009  0.1493  0.5777 -0.0105
55958CHOL    C182747  13.752  22.814  19.368  0.1406  0.2489 -0.1019
55958CHOL    C282748  13.917  22.722  19.624  0.1734  0.4349  0.0795
55959CHOL   ROH82749   6.501  20.532  10.563  0.1325  0.0395  0.1468
55959CHOL    R182750   6.219  20.544  10.577  0.1223 -0.0292 -0.0019
55959CHOL    R282751   6.062  20.318  10.594  0.1785 -0.0600  0.1037
55959CHOL    R382752   5.961  20.443  10.813  0.0346  0.0895 -0.0463
55959CHOL    R482753   5.813  20.190  10.797  0.3193 -0.0994  0.2519
55959CHOL    R582754   5.727  20.390  10.810  0.0925 -0.1789  0.0114
55959CHOL    C182755   5.574  20.234  11.122  0.2663  0.0183  0.1973
55959CHOL    C282756   5.338  20.121  11.376  0.2882 -0.0100  0.1213
55960CHOL   ROH82757  22.749  23.023  12.769  0.0906 -0.1876  0.0048
55960CHOL    R182758  22.483  23.037  12.672  0.0900 -0.1177  0.0167
55960CHOL    R282759  22.320  22.815  12.653  0.0195 -0.0672  0.0604
55960CHOL    R382760  22.150  22.967  12.802  0.0728  0.0098  0.0445
55960CHOL    R482761  21.976  22.819  12.618  0.0046 -0.1062  0.1964
55960CHOL    R582762  21.980  23.035  12.647  0.0063 -0.0866  0.0720
55960CHOL    C182763  21.617  22.963  12.737  0.0457 -0.0570  0.2603
55960CHOL    C282764  21.274  23.087  12.676  0.1771 -0.2078  0.1192
55961CHOL   ROH82765   1.750  20.422   4.212  0.2315 -0.1180  0.2193
55961CHOL    R182766   1.666  20.294   4.450  0.0475  0.0246  0.2323
55961CHOL    R282767   1.561  20.432   4.665 -0.2739  0.1383  0.0068
55961CHOL    R382768   1.354  20.259   4.635 -0.1374 -0.0106 -0.0809
55961CHOL    R482769   1.347  20.335   4.918 -0.4186  0.1209 -0.1210
55961CHOL    R582770   1.354  20.132   4.839 -0.2211  0.0858 -0.0205
55961CHOL    C182771   1.029  20.115   5.038 -0.3747 -0.0285 -0.2779
55961CHOL    C282772   0.827  20.132   5.364 -0.0298 -0.0942 -0.2785
55962CHOL   ROH82773   5.205   8.303  10.731 -0.0351 -0.0734  0.1700
55962CHOL    R182774   5.146   8.279  11.007  0.0536  0.0818  0.2034
55962CHOL    R282775   5.122   8.497  11.174 -0.2341  0.1959  0.0164
55962CHOL    R382776   4.881   8.386  11.232 -0.0633 -0.1084  0.1578
55962CHOL    R482777   4.913   8.600  11.430 -0.3427  0.1249 -0.0431
55962CHOL    R582778   4.869   8.390  11.471 -0.0278  0.0937  0.1569
55962CHOL    C182779   4.565   8.555  11.633 -0.2456 -0.2022  0.0548
55962CHOL    C282780   4.775   8.765  11.910 -0.0336 -0.1879  0.2573
55963CHOL   ROH82781   2.396  27.592  12.535  0.0895 -0.4616  0.0364
55963CHOL    R182782   2.182  27.639  12.714  0.1045 -0.2256 -0.0056
55963CHOL    R282783   1.973  27.460  12.746 -0.0787 -0.0160 -0.0163
55963CHOL    R382784   2.043  27.476  13.008 -0.1068 -0.0497 -0.0072
55963CHOL    R482785   1.786  27.334  13.007 -0.1025 -0.0557 -0.0526
55963CHOL    R582786   1.836  27.512  13.123 -0.1190 -0.0710 -0.0236
55963CHOL    C182787   1.743  27.274  13.406 -0.1427 -0.1106 -0.0651
55963CHOL    C282788   1.484  27.009  13.427  0.1163  0.1864  0.1828
55964CHOL   ROH82789  23.388   3.719  12.160 -0.0835 -0.1228  0.1838
55964CHOL    R182790  23.244   3.831  11.944  0.0185 -0.1469  0.1028
55964CHOL    R282791  22.993   3.744  11.870  0.0224 -0.1069  0.0392
55964CHOL    R382792  22.928   4.006  11.899  0.0755 -0.0836 -0.0543
55964CHOL    R482793  22.705   3.890  11.747 -0.0847 -0.1530  0.2321
55964CHOL    R582794  22.824   4.064  11.691 -0.1226 -0.1977  0.0119
55964CHOL    C182795  22.477   4.222  11.702 -0.0974 -0.1581  0.2568
55964CHOL    C282796  22.063   4.212  11.608 -0.1429 -0.0387  0.0007
55965CHOL   ROH82797  34.402  28.358   6.796 -0.0060 -0.0812 -0.0423
55965CHOL    R182798  34.414  28.207   7.036  0.0744 -0.1726 -0.1029
55965CHOL    R282799  34.196  28.073   7.138  0.0209  0.0559  0.0900
55965CHOL    R382800  34.366  27.860   7.133 -0.2384 -0.1468 -0.1633
55965CHOL    R482801  34.168  27.793   7.339  0.1797  0.2455  0.3791
55965CHOL    R582802  34.385  27.794   7.362  0.2453  0.0113 -0.1531
55965CHOL    C182803  34.310  27.430   7.451  0.0299  0.1645  0.3097
55965CHOL    C282804  34.437  27.104   7.572  0.0333  0.2163 -0.1421
55966CHOL   ROH82805  22.420   7.061  11.031  0.0810  0.0988  0.2673
55966CHOL    R182806  22.447   7.343  11.029 -0.0156  0.1076  0.0148
55966CHOL    R282807  22.688   7.469  11.077 -0.1136  0.2391  0.1605
55966CHOL    R382808  22.636   7.589  10.838  0.1135 -0.0185 -0.0209
55966CHOL    R482809  22.891   7.705  10.926 -0.0778  0.2372  0.2049
55966CHOL    R582810  22.711   7.814  10.867 -0.0790  0.0614 -0.1310
55966CHOL    C182811  22.960   7.955  10.614  0.1560 -0.0058  0.0610
55966CHOL    C282812  23.198   7.979  10.270 -0.3892  0.1156  0.4607
55967CHOL   ROH82813  32.218  16.300   1.304 -0.0256 -0.2147 -0.0067
55967CHOL    R182814  32.057  16.224   1.524  0.1343 -0.1135  0.1466
55967CHOL    R282815  32.136  16.261   1.786  0.2060  0.2639  0.0746
55967CHOL    R382816  31.898  16.391   1.806  0.0910  0.0636  0.0178
55967CHOL    R482817  31.956  16.301   2.079  0.0980  0.1074  0.0301
55967CHOL    R582818  31.773  16.264   1.966  0.1574 -0.0444 -0.0163
55967CHOL    C182819  31.628  16.447   2.267 -0.0732 -0.1721 -0.0492
55967CHOL    C282820  31.597  16.289   2.631 -0.3029 -0.0799  0.0828
55968CHOL   ROH82821  11.468   1.584  19.035  0.0647  0.4432 -0.0672
55968CHOL    R182822  11.506   1.643  18.761  0.1822  0.1217 -0.1215
55968CHOL    R282823  11.687   1.506  18.604  0.0728 -0.2319  0.0533
55968CHOL    R382824  11.470   1.465  18.446  0.0609 -0.1673  0.0532
55968CHOL    R482825  11.700   1.422  18.269  0.0440  0.1198 -0.0368
55968CHOL    R582826  11.533   1.558  18.234 -0.0237  0.0797  0.1360
55968CHOL    C182827  11.503   1.336  17.925  0.0163  0.3853 -0.0894
55968CHOL    C282828  11.347   1.323  17.537  0.1741 -0.0069 -0.0899
55969CHOL   ROH82829  25.864  16.537   2.674 -0.0351  0.0292 -0.0788
55969CHOL    R182830  25.699  16.620   2.888 -0.0353 -0.0179 -0.0605
55969CHOL    R282831  25.424  16.594   2.883 -0.0316 -0.0511 -0.0507
55969CHOL    R382832  25.465  16.463   3.118 -0.0051 -0.0754 -0.0689
55969CHOL    R482833  25.222  16.620   3.162  0.0195 -0.0502 -0.0134
55969CHOL    R582834  25.401  16.621   3.286  0.0423 -0.0813 -0.0446
55969CHOL    C182835  25.142  16.513   3.545  0.0744 -0.0728 -0.0087
55969CHOL    C282836  24.715  16.453   3.483 -0.0383  0.0954 -0.0897
55970CHOL   ROH82837   4.297  11.333  13.854  0.1969 -0.0511  0.1693
55970CHOL    R182838   4.464  11.251  13.641  0.1636  0.0285  0.1119
55970CHOL    R282839   4.388  11.270  13.376  0.0861  0.0440  0.1341
55970CHOL    R382840   4.621  11.408  13.353  0.0386  0.1165  0.0914
55970CHOL    R482841   4.559  11.320  13.080  0.1402 -0.1057  0.1403
55970CHOL    R582842   4.746  11.287  13.188  0.1260  0.0447  0.2105
55970CHOL    C182843   4.878  11.478  12.886  0.1273 -0.1246  0.1038
55970CHOL    C282844   5.058  11.477  12.465  0.0151 -0.0312 -0.1319
55971CHOL   ROH82845   0.767  26.565   7.379 -0.0898 -0.1761  0.2072
55971CHOL    R182846   0.592  26.525   7.598 -0.3337 -0.1774  0.0144
55971CHOL    R282847   0.361  26.375   7.578 -0.1029 -0.5226 -0.1382
55971CHOL    R382848   0.468  26.241   7.789 -0.1972 -0.1420  0.1549
55971CHOL    R482849   0.189  26.151   7.778 -0.0989 -0.4208 -0.0210
55971CHOL    R582850   0.292  26.235   7.951 -0.3611 -0.0935 -0.0219
55971CHOL    C182851   0.190  25.896   8.093 -0.1850 -0.0040  0.3224
55971CHOL    C282852   0.036  25.978   8.570 -0.2450  0.2573  0.1191
55972CHOL   ROH82853  29.396  24.050   1.366  0.0628 -0.0680 -0.1155
55972CHOL    R182854  29.408  23.869   1.583 -0.1392 -0.0477 -0.0870
55972CHOL    R282855  29.545  23.924   1.816  0.1187 -0.2585 -0.1858
55972CHOL    R382856  29.306  23.868   1.932  0.0832  0.2164 -0.0206
55972CHOL    R482857  29.499  23.866   2.153  0.2844 -0.4360 -0.1930
55972CHOL    R582858  29.359  23.707   2.102 -0.1480 -0.0591 -0.2064
55972CHOL    C182859  29.248  23.780   2.459  0.3477 -0.0937 -0.0420
55972CHOL    C282860  28.955  23.818   2.695  0.1409  0.1822  0.2731
55973CHOL   ROH82861  30.213  25.522   6.666  0.0707  0.2167  0.2608
55973CHOL    R182862  30.371  25.689   6.501  0.1001  0.1034  0.1741
55973CHOL    R282863  30.339  25.699   6.227  0.0581  0.0155  0.1755
55973CHOL    R382864  30.312  25.966   6.272  0.1571  0.0415  0.0840
55973CHOL    R482865  30.426  25.948   6.003 -0.0797 -0.0999 -0.0075
55973CHOL    R582866  30.505  26.063   6.169  0.0906 -0.0452 -0.1254
55973CHOL    C182867  30.452  26.342   5.915 -0.0675 -0.1433 -0.2001
55973CHOL    C282868  30.661  26.568   5.690 -0.0884  0.2087 -0.0259
55974CHOL   ROH82869  20.295   3.902  14.470 -0.1780 -0.1353  0.1571
55974CHOL    R182870  20.179   4.145  14.384 -0.0324 -0.0797  0.1150
55974CHOL    R282871  20.303   4.314  14.204  0.0382 -0.2186  0.0315
55974CHOL    R382872  20.068   4.289  14.069 -0.0151 -0.0983  0.1007
55974CHOL    R482873  20.226   4.479  13.910  0.0940 -0.2954 -0.0263
55974CHOL    R582874  20.024   4.510  13.986  0.1364 -0.1020  0.0093
55974CHOL    C182875  19.962   4.551  13.612  0.0764 -0.2273  0.0051
55974CHOL    C282876  19.922   4.960  13.461  0.1797  0.0865 -0.0588
55975CHOL   ROH82877   2.266   5.483  13.304  0.0926  0.0263 -0.1195
55975CHOL    R182878   2.504   5.332  13.326  0.1405  0.1056 -0.0887
55975CHOL    R282879   2.515   5.062  13.268  0.2031  0.0748  0.0608
55975CHOL    R382880   2.716   5.138  13.103  0.1430  0.0396 -0.0286
55975CHOL    R482881   2.733   4.845  13.110  0.1104  0.0398 -0.0193
55975CHOL    R582882   2.895   4.986  13.152  0.1448  0.0212 -0.0957
55975CHOL    C182883   3.049   4.791  12.862  0.0000 -0.0137 -0.1496
55975CHOL    C282884   3.399   4.500  12.760  0.4349 -0.1702 -0.2494
55976CHOL   ROH82885   7.783  20.967  15.998 -0.2454  0.0812  0.0014
55976CHOL    R182886   7.577  20.970  16.191 -0.2820  0.0822 -0.0374
55976CHOL    R282887   7.357  20.804  16.177 -0.1857 -0.0516  0.0248
55976CHOL    R382888   7.433  20.735  16.429 -0.1904  0.1449  0.0806
55976CHOL    R482889   7.169  20.612  16.395 -0.1077 -0.0404  0.1022
55976CHOL    R582890   7.231  20.744  16.557 -0.2208  0.0946  0.0360
55976CHOL    C182891   7.131  20.436  16.758 -0.0667  0.1510  0.1997
55976CHOL    C282892   6.915  20.197  17.008  0.0347 -0.2045 -0.3058
55977CHOL   ROH82893  29.062   2.285  10.173  0.1874 -0.1202  0.1005
55977CHOL    R182894  29.176   2.275   9.914 -0.0570 -0.2807 -0.0021
55977CHOL    R282895  29.051   2.151   9.701 -0.4498 -0.0584  0.0950
55977CHOL    R382896  29.087   2.392   9.581 -0.1630 -0.1020  0.0882
55977CHOL    R482897  29.018   2.210   9.362 -0.4177 -0.0206  0.0981
55977CHOL    R582898  29.192   2.340   9.372 -0.2525 -0.2367  0.0758
55977CHOL    C182899  29.032   2.471   9.052 -0.1300 -0.0394  0.0939
55977CHOL    C282900  28.989   2.782   8.754  0.1013 -0.2715 -0.0067
55978CHOL   ROH82901  27.246  15.429   3.844 -0.1044  0.1365  0.0084
55978CHOL    R182902  27.219  15.537   3.584 -0.0879  0.0995 -0.0088
55978CHOL    R282903  27.200  15.377   3.359 -0.0332  0.0672  0.0076
55978CHOL    R382904  26.973  15.521   3.316 -0.0511  0.0252 -0.0379
55978CHOL    R482905  27.040  15.408   3.054 -0.0362 -0.0418 -0.0018
55978CHOL    R582906  27.005  15.618   3.099 -0.0635 -0.0346 -0.0651
55978CHOL    C182907  26.734  15.561   2.836 -0.0546 -0.1445 -0.0500
55978CHOL    C282908  26.905  15.320   2.502  0.0067  0.4204  0.3909
55979CHOL   ROH82909  11.185  23.742  21.799  0.4971  0.0625  0.0217
55979CHOL    R182910  11.252  23.592  21.568  0.1989 -0.0069 -0.0233
55979CHOL    R282911  11.092  23.585  21.344  0.0841  0.2204  0.0483
55979CHOL    R382912  11.320  23.663  21.218  0.1305 -0.0626 -0.0471
55979CHOL    R482913  11.141  23.577  21.002 -0.1272  0.3113  0.0153
55979CHOL    R582914  11.344  23.507  21.037 -0.2098 -0.0137 -0.1383
55979CHOL    C182915  11.383  23.646  20.684 -0.2066  0.0988 -0.0937
55979CHOL    C282916  11.212  23.465  20.510  0.0591  0.0553 -0.0831
55980CHOL   ROH82917  10.725  28.985  20.971 -0.0076 -0.2075 -0.0153
55980CHOL    R182918  10.822  28.815  20.767 -0.0298 -0.3681  0.1055
55980CHOL    R282919  10.689  28.586  20.688 -0.2239 -0.2438  0.0538
55980CHOL    R382920  10.706  28.700  20.442  0.1030 -0.3175  0.0414
55980CHOL    R482921  10.647  28.418  20.389 -0.0431 -0.2834  0.0502
55980CHOL    R582922  10.812  28.533  20.306  0.1196 -0.4227  0.1873
55980CHOL    C182923  10.638  28.427  19.984  0.3692 -0.3756  0.0368
55980CHOL    C282924  10.737  28.359  19.677  0.1837  0.2186  0.2727
55981CHOL   ROH82925  24.650  32.892   6.631 -0.1505  0.1572  0.1306
55981CHOL    R182926  24.764  32.966   6.879  0.0553  0.2563  0.0082
55981CHOL    R282927  24.808  32.784   7.082 -0.1607  0.4109  0.1955
55981CHOL    R382928  25.062  32.879   7.069 -0.0105 -0.0038 -0.0044
55981CHOL    R482929  25.022  32.814   7.352 -0.0835  0.5466  0.1196
55981CHOL    R582930  25.089  33.005   7.271  0.2062  0.3078 -0.2216
55981CHOL    C182931  25.385  32.921   7.496  0.1025  0.2353 -0.1121
55981CHOL    C282932  25.736  32.740   7.657  0.3627 -0.1900  0.2980
55982CHOL   ROH82933   3.026  14.649   5.331  0.0338 -0.1959 -0.0934
55982CHOL    R182934   2.757  14.584   5.389  0.1171 -0.4666 -0.0002
55982CHOL    R282935   2.685  14.425   5.604  0.3142 -0.0618  0.3766
55982CHOL    R382936   2.526  14.637   5.666 -0.0224 -0.1420 -0.1757
55982CHOL    R482937   2.392  14.405   5.787  0.3239 -0.0540  0.3924
55982CHOL    R582938   2.303  14.550   5.651  0.1107 -0.5293  0.0115
55982CHOL    C182939   2.073  14.593   5.952  0.0136 -0.1246 -0.1168
55982CHOL    C282940   1.905  14.579   6.321  0.2395 -0.1493 -0.2921
55983CHOL   ROH82941   0.025  20.449   2.212 -0.4671  0.0967 -0.0838
55983CHOL    R182942  35.215  20.380   2.405 -0.2716  0.0286  0.0910
55983CHOL    R282943  35.245  20.166   2.577 -0.0624  0.0137  0.0365
55983CHOL    R382944  35.199  20.354   2.768  0.0735 -0.0208  0.1040
55983CHOL    R482945  35.029  20.127   2.844  0.0301  0.0122  0.1114
55983CHOL    R582946  34.966  20.334   2.816  0.0851  0.0410  0.1906
55983CHOL    C182947  34.861  20.282   3.179  0.2118 -0.0213  0.2185
55983CHOL    C282948  34.647  20.384   3.594 -0.2499 -0.1872  0.0653
55984CHOL   ROH82949  10.480   6.545  15.559 -0.2517  0.0189 -0.0127
55984CHOL    R182950  10.292   6.576  15.768 -0.1422 -0.1464  0.1123
55984CHOL    R282951  10.267   6.394  15.974  0.1351 -0.1832  0.1161
55984CHOL    R382952  10.302   6.614  16.130  0.0625 -0.1671  0.1093
55984CHOL    R482953  10.160   6.424  16.301  0.0772 -0.1874  0.0977
55984CHOL    R582954  10.100   6.629  16.258  0.0397 -0.2035  0.0769
55984CHOL    C182955  10.130   6.648  16.638 -0.0246 -0.1750  0.0802
55984CHOL    C282956  10.124   6.706  17.092 -0.0765 -0.0690 -0.0120
55985CHOL   ROH82957  23.925  15.424   8.428 -0.1588 -0.0006  0.0845
55985CHOL    R182958  23.653  15.345   8.435 -0.1848  0.0851  0.0257
55985CHOL    R282959  23.459  15.469   8.283 -0.0923  0.0686 -0.1060
55985CHOL    R382960  23.409  15.216   8.197 -0.1384  0.0409  0.0021
55985CHOL    R482961  23.149  15.351   8.187 -0.0620  0.1702 -0.3350
55985CHOL    R582962  23.195  15.163   8.290 -0.2573  0.2087 -0.1736
55985CHOL    C182963  22.922  15.044   8.052 -0.0877  0.2035 -0.3669
55985CHOL    C282964  22.577  15.000   7.811  0.1617 -0.0957 -0.0217
55986CHOL   ROH82965  31.385  30.557  10.612  0.0226  0.0919  0.1350
55986CHOL    R182966  31.616  30.622  10.462 -0.0774  0.2369  0.0418
55986CHOL    R282967  31.742  30.440  10.297  0.0840  0.2560  0.1417
55986CHOL    R382968  31.708  30.634  10.110 -0.1665  0.0907  0.0135
55986CHOL    R482969  31.927  30.469  10.006  0.0599  0.3172  0.1325
55986CHOL    R582970  31.930  30.685  10.036 -0.2306  0.3410 -0.0073
55986CHOL    C182971  32.003  30.669   9.662 -0.1894  0.1977  0.0068
55986CHOL    C282972  32.176  30.852   9.234  0.0114  0.5401 -0.2686
55987CHOL   ROH82973   2.277  23.093   9.837 -0.1003  0.0692  0.0926
55987CHOL    R182974   2.208  23.301   9.658 -0.0247  0.2207  0.2371
55987CHOL    R282975   2.350  23.537   9.641  0.2450  0.0598  0.1907
55987CHOL    R382976   2.365  23.472   9.378 -0.0853  0.1358  0.1515
55987CHOL    R482977   2.407  23.762   9.385  0.2301  0.0860  0.2109
55987CHOL    R582978   2.260  23.655   9.265 -0.0019  0.2857  0.3190
55987CHOL    C182979   2.455  23.832   8.989 -0.0886  0.1728  0.1859
55987CHOL    C282980   2.575  23.983   8.628  0.0851  0.1939  0.0910
55988CHOL   ROH82981  16.833   9.671  14.393  0.0556  0.0736  0.0596
55988CHOL    R182982  16.914   9.848  14.598  0.0814  0.1034  0.0237
55988CHOL    R282983  16.828   9.823  14.859  0.0423  0.1956  0.0200
55988CHOL    R382984  17.094   9.823  14.913  0.0357  0.1335  0.0520
55988CHOL    R482985  16.966   9.777  15.173  0.0031 -0.0854 -0.0026
55988CHOL    R582986  17.112   9.932  15.126  0.0174 -0.0528  0.1496
55988CHOL    C182987  17.296   9.751  15.406 -0.0259 -0.3079  0.0143
55988CHOL    C282988  17.540   9.452  15.654 -0.1536 -0.1677  0.0779
55989CHOL   ROH82989   6.238  13.794  12.611  0.1960 -0.0061 -0.0009
55989CHOL    R182990   6.074  13.889  12.821  0.2807 -0.1224  0.1181
55989CHOL    R282991   5.815  13.976  12.780  0.3286  0.0748  0.2399
55989CHOL    R382992   5.757  13.794  12.973  0.2431 -0.0881  0.0626
55989CHOL    R482993   5.525  13.972  12.968  0.3162  0.0182  0.2201
55989CHOL    R582994   5.644  13.920  13.143  0.2872 -0.2003  0.1787
55989CHOL    C182995   5.301  13.799  13.258  0.2289 -0.1679  0.0425
55989CHOL    C282996   5.029  13.610  13.470  0.1204  0.2205  0.1753
55990CHOL   ROH82997  27.732   6.714   3.880  0.0488  0.1296  0.1241
55990CHOL    R182998  27.877   6.895   4.042  0.0347  0.0644  0.2101
55990CHOL    R282999  27.753   7.097   4.186  0.0375  0.1039  0.1587
55990CHOL    R383000  27.886   6.984   4.395 -0.1147  0.0393  0.2203
55990CHOL    R483001  27.873   7.270   4.460  0.1604  0.0740  0.1242
55990CHOL    R583002  28.052   7.146   4.454  0.0372 -0.1086  0.1986
55990CHOL    C183003  28.067   7.265   4.816  0.0890 -0.0043  0.1621
55990CHOL    C283004  28.209   7.577   4.877  0.1704 -0.0479 -0.0381
55991CHOL   ROH83005  22.207  26.593  12.613 -0.0103 -0.0168  0.0181
55991CHOL    R183006  22.057  26.377  12.508  0.2316 -0.0450 -0.2741
55991CHOL    R283007  21.783  26.386  12.479  0.1766 -0.4379  0.0686
55991CHOL    R383008  21.841  26.320  12.221 -0.0053  0.2145 -0.1490
55991CHOL    R483009  21.554  26.264  12.251  0.2108 -0.8001  0.2244
55991CHOL    R583010  21.707  26.126  12.179  0.5726 -0.1694 -0.2709
55991CHOL    C183011  21.474  26.131  11.876  0.0604 -0.3986  0.1107
55991CHOL    C283012  21.076  26.369  11.776 -0.1830  0.1442 -0.0235
55992CHOL   ROH83013  10.381  32.958  17.362  0.0028  0.2629  0.0365
55992CHOL    R183014  10.406  33.141  17.577  0.1318  0.0725  0.1842
55992CHOL    R283015  10.188  33.237  17.717  0.1787  0.2969  0.1056
55992CHOL    R383016  10.326  33.144  17.932 -0.1015 -0.0642  0.1341
55992CHOL    R483017  10.136  33.339  18.043  0.2748  0.3223  0.1129
55992CHOL    R583018  10.352  33.336  18.073  0.2639 -0.1560  0.1955
55992CHOL    C183019  10.236  33.311  18.435  0.0680 -0.0020  0.1441
55992CHOL    C283020  10.243  33.696  18.557  0.0230 -0.0415  0.0857
55993CHOL   ROH83021  23.329   1.693   8.441  0.1027  0.0186 -0.0638
55993CHOL    R183022  23.315   1.662   8.722  0.0219 -0.0022 -0.0701
55993CHOL    R283023  23.322   1.415   8.845  0.1720 -0.0002 -0.0765
55993CHOL    R383024  23.527   1.527   8.984  0.0318  0.1578  0.0056
55993CHOL    R483025  23.403   1.340   9.173  0.2300 -0.1030 -0.1140
55993CHOL    R583026  23.442   1.552   9.206 -0.0189 -0.0739  0.0149
55993CHOL    C183027  23.642   1.402   9.494  0.1325 -0.0147 -0.0589
55993CHOL    C283028  24.063   1.353   9.641  0.1019  0.5719  0.0320
55994CHOL   ROH83029  28.742   5.799   8.610  0.0039  0.0933  0.0440
55994CHOL    R183030  28.769   5.582   8.430  0.1171  0.0983  0.0551
55994CHOL    R283031  28.608   5.553   8.207  0.0651 -0.0508  0.1114
55994CHOL    R383032  28.847   5.541   8.076  0.0325  0.1284  0.0327
55994CHOL    R483033  28.671   5.357   7.930  0.1186  0.0036  0.0847
55994CHOL    R583034  28.868   5.311   8.013  0.1808  0.1450  0.0191
55994CHOL    C183035  28.932   5.230   7.646  0.1188  0.2035 -0.0046
55994CHOL    C283036  29.170   5.026   7.394 -0.0439  0.0749 -0.2342
55995CHOL   ROH83037   2.293  26.684   9.414  0.0525 -0.1152 -0.1521
55995CHOL    R183038   2.032  26.612   9.495  0.0579  0.1333  0.0921
55995CHOL    R283039   1.907  26.382   9.406 -0.3473  0.3865 -0.0032
55995CHOL    R383040   1.878  26.334   9.672 -0.0782  0.1400 -0.0162
55995CHOL    R483041   1.629  26.236   9.552 -0.2188  0.2918  0.1488
55995CHOL    R583042   1.646  26.378   9.716 -0.0273  0.1347  0.2665
55995CHOL    C183043   1.441  26.105   9.886  0.1087  0.0054  0.2250
55995CHOL    C283044   1.066  26.034   9.955  0.3058 -0.2730 -0.1146
55996CHOL   ROH83045  11.201  13.059  17.642 -0.0032 -0.0033 -0.1240
55996CHOL    R183046  11.244  12.905  17.408 -0.0838 -0.0587 -0.1028
55996CHOL    R283047  11.081  12.924  17.186  0.0201  0.1138 -0.1651
55996CHOL    R383048  11.316  12.971  17.058  0.1221 -0.1491 -0.0779
55996CHOL    R483049  11.114  12.974  16.845  0.1961  0.1353 -0.1455
55996CHOL    R583050  11.296  12.854  16.850  0.0488 -0.0871 -0.1055
55996CHOL    C183051  11.354  13.048  16.527  0.3945 -0.0990 -0.0517
55996CHOL    C283052  11.562  13.130  16.293 -0.1350 -0.1477 -0.3997
55997CHOL   ROH83053   6.741  21.747  10.438  0.0546 -0.2601  0.1192
55997CHOL    R183054   6.538  21.551  10.422 -0.0674 -0.1328  0.0936
55997CHOL    R283055   6.345  21.519  10.616 -0.1196 -0.0044  0.0641
55997CHOL    R383056   6.174  21.547  10.406 -0.0681  0.0971  0.0354
55997CHOL    R483057   6.003  21.468  10.632 -0.0981 -0.1976 -0.0892
55997CHOL    R583058   6.014  21.371  10.437  0.0140 -0.0145 -0.1746
55997CHOL    C183059   5.644  21.464  10.443 -0.0373 -0.2149 -0.2052
55997CHOL    C283060   5.472  21.466  10.182  0.0312  0.1293 -0.0673
55998CHOL   ROH83061  23.070  18.229   3.420  0.0803  0.0216 -0.1531
55998CHOL    R183062  23.238  18.098   3.607  0.0519  0.1760 -0.0185
55998CHOL    R283063  23.410  17.894   3.535 -0.1104 -0.0467  0.2167
55998CHOL    R383064  23.596  18.053   3.655  0.0376  0.0014 -0.0722
55998CHOL    R483065  23.694  17.779   3.695 -0.1129 -0.0093  0.2474
55998CHOL    R583066  23.662  17.929   3.850  0.0450  0.2172  0.0643
55998CHOL    C183067  24.034  17.860   3.900  0.0253  0.0572 -0.0060
55998CHOL    C283068  24.340  17.609   3.945 -0.2248  0.0685 -0.1262
55999CHOL   ROH83069   4.795  26.316  13.341 -0.0776  0.1703  0.2732
55999CHOL    R183070   4.585  26.126  13.333 -0.0154  0.1051  0.1840
55999CHOL    R283071   4.546  25.939  13.532 -0.0513  0.1026  0.1746
55999CHOL    R383072   4.295  26.044  13.536 -0.0860  0.0257  0.0518
55999CHOL    R483073   4.278  25.803  13.704 -0.0577  0.1001  0.1630
55999CHOL    R583074   4.151  25.853  13.533 -0.0244 -0.0217  0.1021
55999CHOL    C183075   3.887  25.823  13.807 -0.0938  0.0264  0.0405
55999CHOL    C283076   3.714  25.904  14.017  0.1173  0.0283 -0.2565
56000CHOL   ROH83077  15.067   9.516  14.850  0.1366  0.0483  0.1564
56000CHOL    R183078  15.071   9.455  15.127  0.0885 -0.0116  0.1439
56000CHOL    R283079  14.985   9.212  15.227  0.0463 -0.0236  0.0788
56000CHOL    R383080  15.232   9.208  15.340  0.0288 -0.0757  0.1148
56000CHOL    R483081  15.063   9.053  15.523 -0.0306 -0.0355  0.0931
56000CHOL    R583082  15.189   9.223  15.575 -0.0013 -0.0623  0.1082
56000CHOL    C183083  15.340   8.956  15.803 -0.0918 -0.0911  0.1350
56000CHOL    C283084  15.461   8.780  16.165 -0.0864  0.0445  0.4872
56001CHOL   ROH83085  30.322   1.185  10.713 -0.0840 -0.2052 -0.0561
56001CHOL    R183086  30.419   1.190  10.448  0.0223 -0.1007 -0.0153
56001CHOL    R283087  30.609   1.372  10.362  0.1162 -0.1193  0.1533
56001CHOL    R383088  30.742   1.148  10.284  0.0734 -0.1227  0.0897
56001CHOL    R483089  30.824   1.354  10.092  0.1627 -0.0659  0.1866
56001CHOL    R583090  30.740   1.159  10.045  0.1209 -0.0263  0.0929
56001CHOL    C183091  31.074   1.134   9.862  0.1500 -0.0379  0.1467
56001CHOL    C283092  31.380   1.145   9.583  0.2081  0.4914  0.2127
56002CHOL   ROH83093  32.898  23.314   1.359  0.0861 -0.0812  0.0620
56002CHOL    R183094  32.641  23.384   1.455  0.1614  0.0395  0.1765
56002CHOL    R283095  32.499  23.225   1.630  0.0677 -0.0074  0.0600
56002CHOL    R383096  32.489  23.453   1.778  0.2819 -0.1318  0.2703
56002CHOL    R483097  32.246  23.306   1.851  0.0130  0.1427 -0.0569
56002CHOL    R583098  32.257  23.512   1.780  0.3620  0.1976  0.1473
56002CHOL    C183099  32.089  23.567   2.119  0.1820  0.1128  0.0724
56002CHOL    C283100  31.870  23.380   2.282 -0.0569  0.1797  0.2146
56003CHOL   ROH83101  19.574  35.105  13.356  0.0911 -0.0257  0.0006
56003CHOL    R183102  19.370  35.227  13.202  0.1173  0.1160  0.0770
56003CHOL    R283103  19.411   0.075  13.059  0.2660  0.0147 -0.0475
56003CHOL    R383104  19.318  35.312  12.852 -0.0166  0.0198  0.0731
56003CHOL    R483105  19.184   0.185  12.823  0.2663  0.1631  0.0213
56003CHOL    R583106  19.088  35.375  12.831  0.0437  0.2754  0.1666
56003CHOL    C183107  18.965   0.110  12.491  0.0011  0.2540  0.1744
56003CHOL    C283108  19.015   0.352  12.147  0.3115 -0.0715 -0.0464
56004CHOL   ROH83109  21.212  16.638  12.007 -0.0804 -0.3928 -0.0424
56004CHOL    R183110  21.284  16.490  11.777  0.1144 -0.2592 -0.0682
56004CHOL    R283111  21.281  16.598  11.523  0.0457 -0.1969 -0.0400
56004CHOL    R383112  21.539  16.511  11.517  0.1383  0.0717 -0.0193
56004CHOL    R483113  21.490  16.618  11.248 -0.0671 -0.2989 -0.1339
56004CHOL    R583114  21.566  16.419  11.298  0.1627 -0.1621  0.0798
56004CHOL    C183115  21.854  16.547  11.083 -0.0457 -0.1059 -0.1688
56004CHOL    C283116  21.972  16.819  10.817  0.0415  0.1111  0.0155
56005CHOL   ROH83117   7.908  32.154  16.583 -0.0315  0.0527  0.0391
56005CHOL    R183118   7.774  32.344  16.745 -0.1032  0.0118  0.0294
56005CHOL    R283119   7.512  32.313  16.826 -0.0829 -0.0980  0.0563
56005CHOL    R383120   7.618  32.348  17.074 -0.0756 -0.0227  0.0423
56005CHOL    R483121   7.330  32.383  17.111 -0.0936 -0.2262  0.0813
56005CHOL    R583122   7.486  32.523  17.171 -0.1851 -0.1167  0.0601
56005CHOL    C183123   7.323  32.457  17.510 -0.0927 -0.2302  0.0826
56005CHOL    C283124   6.991  32.660  17.356 -0.0857  0.0923 -0.0201
56006CHOL   ROH83125   1.604  18.851   8.260  0.0144  0.1891  0.1303
56006CHOL    R183126   1.821  18.934   8.098  0.0138  0.2357  0.1538
56006CHOL    R283127   2.042  18.775   8.053  0.0205  0.2558  0.1199
56006CHOL    R383128   1.981  18.820   7.792  0.0238  0.3156  0.1292
56006CHOL    R483129   2.268  18.758   7.792 -0.0376  0.0221  0.0836
56006CHOL    R583130   2.173  18.934   7.705  0.1276  0.1194  0.0973
56006CHOL    C183131   2.342  18.791   7.395 -0.0682 -0.0578  0.0714
56006CHOL    C283132   2.628  18.503   7.171 -0.0742 -0.0367 -0.2533
56007CHOL   ROH83133  22.687  16.341  13.000 -0.0386  0.2949  0.1858
56007CHOL    R183134  22.456  16.193  12.931  0.1904 -0.0103  0.0629
56007CHOL    R283135  22.219  16.313  12.856 -0.0786 -0.3053  0.4185
56007CHOL    R383136  22.245  16.154  12.637  0.0898  0.1250  0.1166
56007CHOL    R483137  21.958  16.209  12.655  0.0214 -0.2607  0.2640
56007CHOL    R583138  22.051  16.013  12.643  0.2630 -0.1284 -0.1123
56007CHOL    C183139  21.830  15.998  12.333  0.2372  0.1696 -0.1093
56007CHOL    C283140  21.457  16.015  12.202  0.1233  0.1357 -0.0358
56008CHOL   ROH83141  26.336   8.731   3.598 -0.0267 -0.1639  0.0263
56008CHOL    R183142  26.364   8.905   3.819  0.0517 -0.1009 -0.0331
56008CHOL    R283143  26.428   8.815   4.072 -0.0824 -0.0542  0.0164
56008CHOL    R383144  26.628   8.998   4.052  0.0642 -0.2158 -0.0011
56008CHOL    R483145  26.494   9.062   4.304  0.0246  0.0046 -0.0759
56008CHOL    R583146  26.534   9.200   4.140  0.1862 -0.1019 -0.1277
56008CHOL    C183147  26.721   9.378   4.420  0.2243 -0.1129 -0.1459
56008CHOL    C283148  26.764   9.713   4.523 -0.0103  0.2178 -0.0845
56009CHOL   ROH83149  25.526  14.594   5.975  0.0895  0.0626 -0.0595
56009CHOL    R183150  25.408  14.497   5.736  0.0257  0.0756 -0.0337
56009CHOL    R283151  25.235  14.282   5.733 -0.0054  0.0995  0.0058
56009CHOL    R383152  25.072  14.457   5.604 -0.0079  0.1206  0.0381
56009CHOL    R483153  24.974  14.192   5.525 -0.0324  0.1340  0.0249
56009CHOL    R583154  25.031  14.355   5.391 -0.0364  0.1419  0.0334
56009CHOL    C183155  24.669  14.305   5.283 -0.0507  0.1742  0.0665
56009CHOL    C283156  24.612  14.089   4.975  0.0073  0.1551  0.0781
56010CHOL   ROH83157   0.883  28.378  15.483  0.2587  0.0239  0.0805
56010CHOL    R183158   1.136  28.316  15.372  0.2509 -0.0437  0.1007
56010CHOL    R283159   1.170  28.122  15.179  0.1998  0.0144  0.0338
56010CHOL    R383160   1.289  28.324  15.042  0.3113  0.0143  0.1299
56010CHOL    R483161   1.261  28.108  14.846  0.2165  0.1116  0.0341
56010CHOL    R583162   1.445  28.214  14.897  0.2667 -0.0019  0.0936
56010CHOL    C183163   1.427  28.290  14.524  0.3308  0.1683  0.1246
56010CHOL    C283164   1.578  28.484  14.179 -0.0244  0.1922  0.0801
56011CHOL   ROH83165  29.915   1.066  10.486  0.0627 -0.0239  0.0052
56011CHOL    R183166  30.010   1.016  10.224 -0.0006  0.0205 -0.0262
56011CHOL    R283167  30.040   1.216  10.035 -0.1277  0.0393 -0.0266
56011CHOL    R383168  30.293   1.120  10.020 -0.0986  0.1277 -0.1090
56011CHOL    R483169  30.227   1.198   9.746 -0.1774  0.2022 -0.0693
56011CHOL    R583170  30.301   1.004   9.811 -0.1005  0.2031 -0.1513
56011CHOL    C183171  30.575   1.098   9.563 -0.1790  0.3801 -0.1717
56011CHOL    C283172  30.892   0.945   9.430  0.0290 -0.0632  0.0331
56012CHOL   ROH83173  27.510  23.092   4.925 -0.1891  0.0525 -0.0967
56012CHOL    R183174  27.371  23.176   4.694 -0.0456  0.0584 -0.1818
56012CHOL    R283175  27.194  23.388   4.696 -0.1934 -0.0640 -0.2419
56012CHOL    R383176  27.351  23.479   4.493 -0.0782  0.1331 -0.0664
56012CHOL    R483177  27.107  23.641   4.477 -0.2813 -0.1892 -0.3525
56012CHOL    R583178  27.197  23.526   4.316  0.0601 -0.0803 -0.2463
56012CHOL    C183179  27.203  23.874   4.160 -0.2240 -0.0769 -0.2522
56012CHOL    C283180  27.485  24.099   3.977  0.2166 -0.1725  0.2660
56013CHOL   ROH83181  27.322   4.444   6.071  0.2099  0.0283  0.1554
56013CHOL    R183182  27.420   4.624   6.267  0.2604 -0.0798  0.2298
56013CHOL    R283183  27.253   4.771   6.430  0.2960  0.1287  0.0784
56013CHOL    R383184  27.401   4.658   6.629 -0.0085 -0.0390  0.2128
56013CHOL    R483185  27.317   4.917   6.737  0.3767  0.1607  0.0467
56013CHOL    R583186  27.521   4.841   6.725  0.2560 -0.1995  0.1947
56013CHOL    C183187  27.493   4.896   7.101  0.1374  0.0218  0.1545
56013CHOL    C283188  27.283   5.201   7.282  0.4548  0.2569  0.2142
56014CHOL   ROH83189  29.956  23.786   2.050 -0.0168 -0.1005 -0.0161
56014CHOL    R183190  29.911  23.640   2.289 -0.0645 -0.0931 -0.0206
56014CHOL    R283191  29.811  23.757   2.518 -0.0258 -0.0672 -0.0180
56014CHOL    R383192  29.625  23.559   2.499 -0.0906 -0.0067 -0.0225
56014CHOL    R483193  29.579  23.681   2.762 -0.0153 -0.0301  0.0039
56014CHOL    R583194  29.612  23.469   2.721 -0.0872 -0.0357 -0.0331
56014CHOL    C183195  29.269  23.451   2.888 -0.0701  0.0486  0.0124
56014CHOL    C283196  28.948  23.427   3.031 -0.1329  0.1363 -0.1729
56015CHOL   ROH83197  21.232  17.848  13.995 -0.1252  0.2245  0.0962
56015CHOL    R183198  20.957  17.798  13.947 -0.1070  0.1638  0.0548
56015CHOL    R283199  20.808  17.946  13.767 -0.0806  0.0457 -0.0644
56015CHOL    R383200  20.752  17.701  13.662 -0.0241 -0.0195  0.0566
56015CHOL    R483201  20.618  17.891  13.483 -0.0366 -0.1373 -0.0595
56015CHOL    R583202  20.526  17.721  13.584 -0.0185 -0.1011  0.0188
56015CHOL    C183203  20.454  17.630  13.220  0.0413 -0.3043  0.0570
56015CHOL    C283204  20.136  17.633  13.139  0.1125  0.1932  0.4617
56016CHOL   ROH83205  15.963   1.069  12.385  0.1806  0.0479 -0.1906
56016CHOL    R183206  16.168   1.028  12.576  0.0845 -0.0126 -0.0994
56016CHOL    R283207  16.436   1.027  12.508  0.1194  0.0051  0.0349
56016CHOL    R383208  16.453   1.217  12.702  0.0240 -0.0540  0.1015
56016CHOL    R483209  16.722   1.101  12.688  0.0584  0.0242  0.1239
56016CHOL    R583210  16.598   1.121  12.867  0.0126 -0.0683  0.1024
56016CHOL    C183211  16.904   1.322  12.975 -0.0664 -0.0203  0.2381
56016CHOL    C283212  17.145   1.688  12.978  0.2124 -0.0199  0.2320
56017CHOL   ROH83213   0.428  20.838   7.185  0.0219  0.1069  0.0053
56017CHOL    R183214   0.533  20.790   6.927 -0.0774  0.1469 -0.0429
56017CHOL    R283215   0.503  20.968   6.718 -0.1734  0.1707 -0.0093
56017CHOL    R383216   0.774  20.949   6.705 -0.1769  0.1917 -0.1188
56017CHOL    R483217   0.697  21.084   6.456 -0.2960  0.0767 -0.1426
56017CHOL    R583218   0.820  20.904   6.474 -0.2716  0.0971 -0.1186
56017CHOL    C183219   1.064  21.133   6.292 -0.3707  0.0411 -0.3230
56017CHOL    C283220   0.833  21.229   5.986  0.2024 -0.1913  0.0627
56018CHOL   ROH83221  25.878  21.003   5.805 -0.1185 -0.0422  0.2400
56018CHOL    R183222  25.655  21.112   5.670 -0.0742 -0.0008  0.2001
56018CHOL    R283223  25.412  21.154   5.795 -0.0638  0.1226  0.1783
56018CHOL    R383224  25.444  21.407   5.701  0.0302  0.0842  0.1061
56018CHOL    R483225  25.153  21.370   5.718  0.0126  0.1551  0.0071
56018CHOL    R583226  25.266  21.435   5.543  0.0961  0.0713  0.0277
56018CHOL    C183227  25.033  21.734   5.586  0.1458  0.1376 -0.1603
56018CHOL    C283228  24.773  21.869   5.266  0.0179 -0.2669 -0.3254
56019CHOL   ROH83229  12.359  12.432  14.465 -0.0014  0.1091  0.0652
56019CHOL    R183230  12.186  12.520  14.671 -0.0970  0.0151  0.0259
56019CHOL    R283231  12.203  12.425  14.930 -0.1288 -0.0035  0.0233
56019CHOL    R383232  12.220  12.689  14.991 -0.2580 -0.0015  0.0520
56019CHOL    R483233  12.115  12.564  15.234  0.0200 -0.1100  0.1148
56019CHOL    R583234  12.028  12.732  15.127 -0.1782 -0.1516  0.2122
56019CHOL    C183235  12.081  12.893  15.469 -0.0146 -0.1700  0.1954
56019CHOL    C283236  11.787  13.044  15.471  0.3159  0.5804  0.1145
56020CHOL   ROH83237  10.236  18.950  15.489  0.3161 -0.4260 -0.1963
56020CHOL    R183238  10.173  18.738  15.666  0.1899 -0.2733 -0.0571
56020CHOL    R283239  10.169  18.770  15.940  0.0809 -0.0582 -0.0823
56020CHOL    R383240   9.918  18.670  15.916  0.0665 -0.0159 -0.1109
56020CHOL    R483241   9.999  18.602  16.190 -0.0053  0.0374 -0.0763
56020CHOL    R583242   9.923  18.464  16.039  0.0006  0.0139 -0.0574
56020CHOL    C183243   9.663  18.410  16.312 -0.0688  0.1329 -0.0992
56020CHOL    C283244   9.670  18.301  16.683  0.0292 -0.1975  0.1981
56021CHOL   ROH83245  27.994  26.835   3.847 -0.1631  0.1708 -0.0182
56021CHOL    R183246  28.009  26.587   3.983 -0.3094  0.1532 -0.0335
56021CHOL    R283247  28.195  26.537   4.181 -0.1034 -0.0898 -0.2844
56021CHOL    R383248  27.975  26.472   4.327  0.0027  0.2095  0.0182
56021CHOL    R483249  28.178  26.275   4.406 -0.1274 -0.0164 -0.2002
56021CHOL    R583250  27.977  26.232   4.333 -0.2777  0.2062  0.0699
56021CHOL    C183251  27.961  26.061   4.673 -0.0420  0.3071  0.1329
56021CHOL    C283252  27.750  25.826   4.870 -0.1534  0.0533  0.1480
56022CHOL   ROH83253   5.255  18.676   8.101  0.0595 -0.0565  0.2245
56022CHOL    R183254   5.068  18.806   8.268  0.0036  0.0277  0.0977
56022CHOL    R283255   5.144  18.980   8.469 -0.0541 -0.0013  0.1454
56022CHOL    R383256   4.973  19.150   8.342  0.1032  0.0707  0.0275
56022CHOL    R483257   5.011  19.267   8.608 -0.2677 -0.1068  0.1616
56022CHOL    R583258   4.821  19.220   8.514 -0.1366 -0.0586 -0.1308
56022CHOL    C183259   4.774  19.594   8.571 -0.2445 -0.1011  0.0604
56022CHOL    C283260   4.532  19.800   8.716 -0.1183  0.0284 -0.0396
56023CHOL   ROH83261  18.739  16.958  12.547  0.0869 -0.0174  0.0058
56023CHOL    R183262  18.929  17.051  12.735  0.0307  0.0515  0.0282
56023CHOL    R283263  18.871  17.075  13.004  0.0031 -0.0093  0.0280
56023CHOL    R383264  19.092  16.919  13.033  0.0770  0.0943  0.0215
56023CHOL    R483265  19.042  17.027  13.301 -0.0237 -0.0069  0.0439
56023CHOL    R583266  19.229  17.039  13.189 -0.0101  0.1196  0.0789
56023CHOL    C183267  19.349  16.853  13.500  0.0301  0.0919  0.0471
56023CHOL    C283268  19.520  16.799  13.894  0.0183 -0.0895  0.0795
56024CHOL   ROH83269  16.586  20.730  19.322  0.1351  0.1133  0.1455
56024CHOL    R183270  16.374  20.896  19.236  0.2197  0.1053 -0.0820
56024CHOL    R283271  16.217  21.041  19.411 -0.1115 -0.0682 -0.2304
56024CHOL    R383272  16.290  21.250  19.254  0.0785  0.0663  0.0323
56024CHOL    R483273  16.042  21.338  19.384 -0.1209 -0.0753 -0.2483
56024CHOL    R583274  16.083  21.336  19.169  0.1822  0.0969 -0.1944
56024CHOL    C183275  16.009  21.707  19.220  0.0517  0.0466 -0.0121
56024CHOL    C283276  16.063  21.973  19.123  0.0311  0.1841 -0.1675
56025CHOL   ROH83277  21.276  25.388   8.209 -0.1675  0.0335  0.1551
56025CHOL    R183278  21.547  25.439   8.271 -0.1604  0.1247  0.0498
56025CHOL    R283279  21.634  25.489   8.528 -0.0758  0.1450  0.0176
56025CHOL    R383280  21.805  25.284   8.475 -0.0257  0.2059 -0.0574
56025CHOL    R483281  21.964  25.475   8.631 -0.0252  0.2626 -0.1262
56025CHOL    R583282  22.016  25.391   8.437 -0.0803  0.2815 -0.1493
56025CHOL    C183283  22.317  25.276   8.641  0.0507  0.3881 -0.2800
56025CHOL    C283284  22.704  25.235   8.825 -0.3333  0.3225 -0.1530
56026CHOL   ROH83285  21.091  27.406   7.901 -0.1051  0.0964  0.0401
56026CHOL    R183286  21.198  27.484   8.151 -0.0301 -0.0061  0.0404
56026CHOL    R283287  21.424  27.367   8.259 -0.0366 -0.0986 -0.0428
56026CHOL    R383288  21.510  27.625   8.273  0.0345 -0.1254  0.0140
56026CHOL    R483289  21.695  27.475   8.444 -0.0397 -0.2045  0.0233
56026CHOL    R583290  21.580  27.652   8.500  0.0008 -0.1812  0.0305
56026CHOL    C183291  21.934  27.779   8.565  0.0248 -0.2915  0.1152
56026CHOL    C283292  22.003  27.919   8.983 -0.1628 -0.0616  0.2372
56027CHOL   ROH83293  23.562  23.319   4.196 -0.1252 -0.2468 -0.1410
56027CHOL    R183294  23.728  23.321   4.426 -0.2262 -0.2537 -0.0680
56027CHOL    R283295  23.783  23.093   4.571  0.0769 -0.3419 -0.3188
56027CHOL    R383296  24.041  23.166   4.526 -0.0166  0.1273 -0.1217
56027CHOL    R483297  24.033  23.088   4.809  0.0662 -0.6161 -0.3111
56027CHOL    R583298  24.107  23.277   4.728 -0.1833 -0.2985  0.1751
56027CHOL    C183299  24.421  23.154   4.906 -0.0281 -0.3355 -0.1215
56027CHOL    C283300  24.653  23.136   5.329  0.0656  0.0586 -0.2177
56028CHOL   ROH83301  14.484  21.267  17.349 -0.0530  0.1795  0.2784
56028CHOL    R183302  14.610  21.051  17.480 -0.0665  0.0978  0.1572
56028CHOL    R283303  14.854  21.075  17.607 -0.0563  0.0073  0.1570
56028CHOL    R383304  14.718  20.973  17.819 -0.0546 -0.0910  0.1110
56028CHOL    R483305  14.991  21.015  17.919 -0.0665 -0.0925  0.1423
56028CHOL    R583306  14.877  20.830  17.928 -0.0422 -0.1110  0.0658
56028CHOL    C183307  14.943  20.884  18.299 -0.0710 -0.2427  0.0905
56028CHOL    C283308  14.736  20.933  18.569 -0.0961 -0.1288 -0.0978
56029CHOL   ROH83309   8.508   4.241  15.262 -0.0005 -0.1481  0.2177
56029CHOL    R183310   8.307   4.356  15.424  0.1461  0.0425  0.2663
56029CHOL    R283311   8.148   4.205  15.592 -0.3210  0.1177 -0.1002
56029CHOL    R383312   8.237   4.380  15.781 -0.0467 -0.3987  0.2614
56029CHOL    R483313   7.966   4.309  15.867 -0.3413  0.1894 -0.1401
56029CHOL    R583314   8.044   4.510  15.837  0.2352  0.0373  0.2453
56029CHOL    C183315   7.943   4.533  16.204 -0.0955 -0.2536  0.1762
56029CHOL    C283316   7.585   4.531  16.336 -0.2067  0.1621 -0.1606
56030CHOL   ROH83317  14.156   0.311  13.263  0.0445  0.2143 -0.1010
56030CHOL    R183318  14.305   0.256  13.497 -0.0634  0.1527 -0.0457
56030CHOL    R283319  14.562   0.350  13.535  0.0118 -0.0588 -0.0070
56030CHOL    R383320  14.457   0.450  13.765  0.0353  0.1013 -0.0652
56030CHOL    R483321  14.746   0.432  13.817 -0.0078 -0.2131  0.0507
56030CHOL    R583322  14.586   0.347  13.939 -0.1496 -0.0110  0.0040
56030CHOL    C183323  14.754   0.572  14.197  0.0026 -0.1528  0.0296
56030CHOL    C283324  14.804   0.749  14.560 -0.0287 -0.1489  0.1357
56031CHOL   ROH83325  21.773   3.073  13.369 -0.0851  0.0186  0.0104
56031CHOL    R183326  21.651   3.324  13.419 -0.1869 -0.0396  0.0537
56031CHOL    R283327  21.619   3.516  13.224 -0.1471  0.0310  0.1174
56031CHOL    R383328  21.358   3.504  13.301 -0.1829 -0.0793 -0.0174
56031CHOL    R483329  21.374   3.742  13.130 -0.2491 -0.2114 -0.2098
56031CHOL    R583330  21.295   3.733  13.333 -0.3559 -0.0930 -0.2450
56031CHOL    C183331  20.988   3.862  13.148 -0.3425 -0.4560 -0.5268
56031CHOL    C283332  20.903   4.194  13.224  0.1200  0.1775 -0.0642
56032CHOL   ROH83333   8.534  14.514  17.528  0.0832  0.0349  0.0033
56032CHOL    R183334   8.433  14.358  17.315  0.0047  0.0714  0.0130
56032CHOL    R283335   8.397  14.459  17.060  0.1021  0.0608 -0.0069
56032CHOL    R383336   8.552  14.248  16.989 -0.0281 -0.0520  0.0428
56032CHOL    R483337   8.412  14.323  16.743  0.1011  0.0440  0.0008
56032CHOL    R583338   8.418  14.125  16.834 -0.0682  0.0417  0.0051
56032CHOL    C183339   8.566  14.045  16.491 -0.0219 -0.0719  0.0518
56032CHOL    C283340   8.676  13.957  16.157 -0.0509  0.1546  0.0611
56033CHOL   ROH83341  20.112   9.146  15.810 -0.1911 -0.0508 -0.0011
56033CHOL    R183342  19.989   9.357  15.667 -0.0731  0.0516  0.0483
56033CHOL    R283343  19.991   9.371  15.392 -0.0956  0.0953  0.0527
56033CHOL    R383344  19.722   9.389  15.422 -0.0815  0.2643  0.0841
56033CHOL    R483345  19.769   9.456  15.141 -0.1123 -0.2470 -0.0520
56033CHOL    R583346  19.659   9.576  15.286 -0.0298  0.0574 -0.2315
56033CHOL    C183347  19.387   9.523  15.024 -0.1091 -0.2878 -0.0833
56033CHOL    C283348  19.105   9.649  14.832 -0.5288  0.3824  0.0730
56034CHOL   ROH83349  10.018  19.369  15.723 -0.0477  0.1389 -0.0304
56034CHOL    R183350   9.939  19.146  15.878 -0.0745  0.0799 -0.1286
56034CHOL    R283351   9.906  19.160  16.152  0.1108 -0.0832 -0.0965
56034CHOL    R383352   9.660  19.059  16.094  0.0156  0.0958 -0.0055
56034CHOL    R483353   9.710  18.979  16.372  0.1259 -0.0719 -0.0734
56034CHOL    R583354   9.654  18.848  16.207 -0.0491  0.0433 -0.1066
56034CHOL    C183355   9.365  18.779  16.446  0.0455  0.1030  0.0255
56034CHOL    C283356   9.186  18.518  16.611 -0.0684  0.3231  0.0483
56035CHOL   ROH83357  27.721  32.651   9.385  0.1936  0.3195  0.0754
56035CHOL    R183358  27.802  32.712   9.121  0.0757  0.0225 -0.0319
56035CHOL    R283359  27.713  32.571   8.901 -0.2888 -0.0126  0.1349
56035CHOL    R383360  27.641  32.817   8.812 -0.0186  0.0265  0.0191
56035CHOL    R483361  27.682  32.659   8.569 -0.4587 -0.2140  0.0964
56035CHOL    R583362  27.774  32.851   8.616 -0.1434 -0.3071 -0.1264
56035CHOL    C183363  27.596  32.942   8.291 -0.3046 -0.2944 -0.0351
56035CHOL    C283364  27.645  32.770   7.989 -0.0311 -0.0760 -0.1284
56036CHOL   ROH83365  12.133   8.139  18.049 -0.1435  0.0375  0.0235
56036CHOL    R183366  11.937   8.062  17.859 -0.1213  0.1492 -0.0446
56036CHOL    R283367  11.942   8.151  17.597  0.1427 -0.0221 -0.0989
56036CHOL    R383368  11.933   7.885  17.541 -0.1410 -0.0498  0.0661
56036CHOL    R483369  11.885   8.017  17.284  0.2794 -0.1507 -0.0698
56036CHOL    R583370  11.760   7.865  17.377 -0.0083  0.0672 -0.0908
56036CHOL    C183371  11.843   7.690  17.048  0.0929 -0.2513  0.1017
56036CHOL    C283372  11.761   7.580  16.717 -0.0227  0.0833  0.2148
56037CHOL   ROH83373  28.188  18.344   3.226  0.1661  0.1853 -0.0392
56037CHOL    R183374  28.197  18.387   2.946  0.1053  0.1259 -0.0503
56037CHOL    R283375  28.291  18.196   2.770 -0.0451  0.0415 -0.0411
56037CHOL    R383376  28.049  18.234   2.651 -0.0619  0.1429  0.0239
56037CHOL    R483377  28.231  18.164   2.431 -0.1987 -0.1503  0.0038
56037CHOL    R583378  28.102  18.339   2.442 -0.0603 -0.0439 -0.0704
56037CHOL    C183379  27.969  18.180   2.122 -0.3041 -0.1675  0.0908
56037CHOL    C283380  27.990  17.830   1.886  0.0097 -0.2950  0.3412
56038CHOL   ROH83381   7.566  28.506  20.550 -0.1222 -0.2474  0.2166
56038CHOL    R183382   7.573  28.374  20.299 -0.1824 -0.0040  0.0860
56038CHOL    R283383   7.578  28.511  20.060  0.0274  0.2319  0.2231
56038CHOL    R383384   7.799  28.359  20.015 -0.1128  0.0516  0.1386
56038CHOL    R483385   7.749  28.496  19.760 -0.0590  0.1415  0.1783
56038CHOL    R583386   7.772  28.281  19.790 -0.2349  0.1163  0.1308
56038CHOL    C183387   8.056  28.344  19.543 -0.2411 -0.0808  0.0725
56038CHOL    C283388   8.115  28.525  19.149  0.2187  0.1375 -0.2198
56039CHOL   ROH83389  20.603   5.312  13.387 -0.5725 -0.1058 -0.1930
56039CHOL    R183390  20.406   5.348  13.588 -0.2632 -0.2934  0.1511
56039CHOL    R283391  20.465   5.341  13.857  0.2730  0.0890  0.0530
56039CHOL    R383392  20.343   5.584  13.858 -0.2019 -0.1443  0.0348
56039CHOL    R483393  20.357   5.508  14.140  0.5657  0.2028  0.0991
56039CHOL    R583394  20.179   5.568  14.031  0.2035 -0.2700  0.4149
56039CHOL    C183395  20.180   5.833  14.305  0.2901  0.0502  0.1086
56039CHOL    C283396  20.028   6.104  14.505 -0.4852  0.0655 -0.0560
56040CHOL   ROH83397   1.477  20.921   8.161  0.0070  0.1040  0.1163
56040CHOL    R183398   1.579  20.951   7.899 -0.0477  0.1169  0.0963
56040CHOL    R283399   1.675  21.192   7.803 -0.1048  0.1303  0.0748
56040CHOL    R383400   1.897  21.045   7.749 -0.0912  0.1660  0.0338
56040CHOL    R483401   1.928  21.289   7.589 -0.2568  0.0847 -0.1266
56040CHOL    R583402   1.938  21.084   7.516 -0.2365  0.0443 -0.0135
56040CHOL    C183403   2.284  21.207   7.412 -0.3325  0.0916 -0.2825
56040CHOL    C283404   2.294  21.534   7.175 -0.0083  0.2556  0.1870
56041CHOL   ROH83405  16.424  25.498  16.751 -0.0522 -0.0464 -0.0142
56041CHOL    R183406  16.575  25.711  16.858  0.0559 -0.0622 -0.1350
56041CHOL    R283407  16.709  25.693  17.100 -0.0061  0.0283 -0.0946
56041CHOL    R383408  16.923  25.769  16.950  0.0726 -0.2081 -0.1042
56041CHOL    R483409  17.018  25.779  17.228 -0.1259  0.4013 -0.0494
56041CHOL    R583410  17.028  25.940  17.081 -0.0795  0.1034 -0.3805
56041CHOL    C183411  17.399  25.901  17.162 -0.1216  0.3963 -0.0321
56041CHOL    C283412  17.639  26.111  16.871 -0.2724 -0.0010  0.2098
56042CHOL   ROH83413   2.568  16.015  12.185  0.1080 -0.1660 -0.1635
56042CHOL    R183414   2.793  15.899  12.312 -0.0191 -0.3184 -0.0744
56042CHOL    R283415   2.929  15.683  12.205  0.1395 -0.1400 -0.2406
56042CHOL    R383416   3.144  15.848  12.232  0.0828 -0.1398  0.2526
56042CHOL    R483417   3.256  15.577  12.233  0.1470 -0.1173 -0.2460
56042CHOL    R583418   3.289  15.732  12.384  0.0086 -0.4253  0.1062
56042CHOL    C183419   3.649  15.669  12.275  0.0981 -0.1042  0.2139
56042CHOL    C283420   4.038  15.786  12.447  0.1566 -0.0805 -0.3484
56043CHOL   ROH83421  24.219  12.803   9.299  0.0995  0.1499 -0.0886
56043CHOL    R183422  23.944  12.763   9.244  0.1574 -0.0828 -0.2142
56043CHOL    R283423  23.758  12.966   9.262 -0.0826 -0.3233  0.0653
56043CHOL    R383424  23.700  12.892   9.006  0.0635  0.0114 -0.0680
56043CHOL    R483425  23.439  12.917   9.137 -0.0046 -0.3287 -0.1339
56043CHOL    R583426  23.514  12.744   9.028  0.1394 -0.1304 -0.3568
56043CHOL    C183427  23.200  12.819   8.825  0.1778 -0.0176 -0.3749
56043CHOL    C283428  23.002  12.587   8.721  0.0207 -0.2988 -0.3122
56044CHOL   ROH83429  18.093  13.535  12.998 -0.0020 -0.0065  0.0036
56044CHOL    R183430  18.215  13.699  13.194 -0.3128  0.1688  0.0537
56044CHOL    R283431  18.489  13.715  13.226 -0.3650 -0.1608  0.7748
56044CHOL    R383432  18.445  13.981  13.198  0.0718 -0.1422  0.1763
56044CHOL    R483433  18.685  13.963  13.365 -0.3002 -0.1776  0.7130
56044CHOL    R583434  18.503  14.074  13.411 -0.2419  0.1752  0.1269
56044CHOL    C183435  18.758  14.358  13.419  0.1483 -0.1701  0.1155
56044CHOL    C283436  18.898  14.630  13.641 -0.0992  0.4544  0.1200
56045CHOL   ROH83437  25.207   6.640  10.075  0.3280  0.1312  0.0209
56045CHOL    R183438  24.954   6.639   9.947  0.3252  0.0289  0.0280
56045CHOL    R283439  24.880   6.832   9.764  0.2690 -0.0417 -0.0214
56045CHOL    R383440  24.831   6.616   9.606  0.3210 -0.0970  0.0374
56045CHOL    R483441  24.640   6.819   9.515  0.4665 -0.0654 -0.2123
56045CHOL    R583442  24.593   6.615   9.577  0.3414 -0.0218 -0.1564
56045CHOL    C183443  24.455   6.609   9.222  0.6305 -0.1312 -0.2683
56045CHOL    C283444  24.388   6.636   8.775 -0.1332 -0.1921  0.0038
56046CHOL   ROH83445   1.088  16.387   8.282  0.0970  0.0818  0.1761
56046CHOL    R183446   1.321  16.409   8.124 -0.1211  0.1936 -0.1370
56046CHOL    R283447   1.517  16.215   8.120  0.2907  0.5890  0.1367
56046CHOL    R383448   1.475  16.224   7.852 -0.0345 -0.1608  0.1489
56046CHOL    R483449   1.753  16.134   7.881  0.2132  0.5520  0.0731
56046CHOL    R583450   1.683  16.303   7.762 -0.3116  0.1089 -0.2710
56046CHOL    C183451   1.851  16.095   7.489 -0.1373 -0.1735  0.0474
56046CHOL    C283452   2.101  15.849   7.322 -0.0099 -0.2009  0.1295
56047CHOL   ROH83453  25.464  20.292   1.848 -0.1828  0.2399  0.1703
56047CHOL    R183454  25.665  20.225   2.036 -0.1276  0.2218  0.1053
56047CHOL    R283455  25.657  20.308   2.299 -0.1153  0.0919  0.1479
56047CHOL    R383456  25.682  20.042   2.350 -0.0114  0.0761  0.0146
56047CHOL    R483457  25.704  20.171   2.613 -0.1015 -0.0511  0.0839
56047CHOL    R583458  25.846  20.031   2.525 -0.0317  0.0538  0.0311
56047CHOL    C183459  25.755  19.842   2.844  0.0035 -0.1492 -0.0786
56047CHOL    C283460  25.651  19.604   3.096  0.0598  0.0078 -0.2642
56048CHOL   ROH83461  11.064  20.072  17.011  0.1677 -0.1465  0.3019
56048CHOL    R183462  10.880  19.913  17.157  0.1146 -0.0660  0.3248
56048CHOL    R283463  10.890  19.636  17.156 -0.0421 -0.0745  0.2793
56048CHOL    R383464  10.898  19.668  17.426  0.0479 -0.1176  0.2814
56048CHOL    R483465  10.806  19.392  17.386 -0.2005 -0.0298  0.2689
56048CHOL    R583466  10.708  19.546  17.506 -0.0381  0.0383  0.3111
56048CHOL    C183467  10.765  19.280  17.773 -0.2080 -0.0445  0.2647
56048CHOL    C283468  10.585  19.029  18.039 -0.1516  0.2087  0.2892
56049CHOL   ROH83469  30.798  35.215  10.727  0.0789 -0.3003  0.0383
56049CHOL    R183470  30.874  35.308  10.471  0.0292 -0.1896  0.0637
56049CHOL    R283471  31.103  35.222  10.343 -0.0014 -0.1404 -0.0206
56049CHOL    R383472  30.930  35.162  10.142 -0.0427 -0.0454 -0.0135
56049CHOL    R483473  31.185  35.215  10.007 -0.0317 -0.1183 -0.0285
56049CHOL    R583474  30.993  35.309   9.963 -0.0027 -0.0393  0.0036
56049CHOL    C183475  31.070  35.155   9.623 -0.0878 -0.0154 -0.0263
56049CHOL    C283476  31.097  35.328   9.315 -0.0684 -0.3865  0.2200
56050CHOL   ROH83477  32.776   8.283   3.689  0.3735 -0.1139  0.3639
56050CHOL    R183478  32.582   8.386   3.867  0.2739 -0.0631  0.2272
56050CHOL    R283479  32.616   8.384   4.141  0.1500  0.0720  0.2446
56050CHOL    R383480  32.567   8.650   4.117  0.1146  0.0524  0.0959
56050CHOL    R483481  32.513   8.589   4.399  0.1633  0.2128  0.1383
56050CHOL    R583482  32.378   8.688   4.259  0.1316  0.1142  0.1004
56050CHOL    C183483  32.406   8.959   4.526  0.1372  0.2764 -0.0632
56050CHOL    C283484  32.076   9.124   4.780 -0.1021  0.0188 -0.2269
56051CHOL   ROH83485  21.601   4.544  10.188  0.0599 -0.1985 -0.0891
56051CHOL    R183486  21.811   4.413  10.325  0.0196 -0.1907 -0.0204
56051CHOL    R283487  21.961   4.536  10.521  0.0233 -0.1502 -0.0505
56051CHOL    R383488  21.886   4.321  10.669 -0.0329 -0.0824  0.0203
56051CHOL    R483489  22.123   4.427  10.806 -0.0195 -0.0816  0.0003
56051CHOL    R583490  22.093   4.221  10.738 -0.0572 -0.1004  0.0705
56051CHOL    C183491  22.146   4.161  11.111 -0.0969  0.0221  0.0965
56051CHOL    C283492  22.328   3.778  11.312  0.2873 -0.0703 -0.0911
56052CHOL   ROH83493  21.797  23.457   8.152  0.1758  0.0430  0.0257
56052CHOL    R183494  22.029  23.576   8.264  0.2291  0.0156 -0.0560
56052CHOL    R283495  22.278  23.459   8.249  0.2075 -0.0180 -0.1351
56052CHOL    R383496  22.349  23.698   8.141  0.2052 -0.0315 -0.1670
56052CHOL    R483497  22.603  23.572   8.214  0.2102 -0.0462 -0.2035
56052CHOL    R583498  22.535  23.770   8.273  0.2354 -0.0353 -0.2061
56052CHOL    C183499  22.858  23.863   8.092  0.2093 -0.0749 -0.2731
56052CHOL    C283500  23.229  24.045   8.185  0.0456 -0.1391  0.1238
56053CHOL   ROH83501  31.742  28.118   5.132 -0.0509 -0.1376 -0.1784
56053CHOL    R183502  31.625  28.033   5.376 -0.1827 -0.0788 -0.2209
56053CHOL    R283503  31.448  27.821   5.389  0.0374 -0.2628 -0.2231
56053CHOL    R383504  31.623  27.729   5.576 -0.0331  0.0727  0.0116
56053CHOL    R483505  31.359  27.646   5.674 -0.0130 -0.4400 -0.3464
56053CHOL    R583506  31.509  27.760   5.785 -0.3782 -0.1488 -0.1396
56053CHOL    C183507  31.472  27.459   6.016 -0.1080 -0.2281 -0.1978
56053CHOL    C283508  31.199  27.367   6.340  0.1346  0.0180  0.2621
56054CHOL   ROH83509  34.169  24.030   7.679 -0.0565  0.0063 -0.1440
56054CHOL    R183510  34.420  24.039   7.548 -0.0053  0.0469 -0.0439
56054CHOL    R283511  34.471  24.208   7.336  0.0271 -0.0014 -0.0749
56054CHOL    R383512  34.680  24.287   7.491 -0.0617  0.1134 -0.0126
56054CHOL    R483513  34.751  24.376   7.221 -0.0473  0.1877  0.0159
56054CHOL    R583514  34.873  24.252   7.353 -0.0042  0.2501  0.0335
56054CHOL    C183515  35.110  24.546   7.299 -0.1743  0.4056  0.1274
56054CHOL    C283516   0.054  24.764   7.406  0.0357 -0.1272  0.1816
56055CHOL   ROH83517   2.217   7.878  12.221 -0.2034  0.0354  0.0425
56055CHOL    R183518   2.374   7.833  11.990 -0.1445  0.0101  0.0875
56055CHOL    R283519   2.641   7.764  12.002 -0.1537 -0.0110  0.1635
56055CHOL    R383520   2.561   7.555  11.848 -0.1286 -0.0130  0.1530
56055CHOL    R483521   2.824   7.629  11.742 -0.0771 -0.0617  0.2434
56055CHOL    R583522   2.639   7.610  11.628 -0.0387 -0.0440  0.1765
56055CHOL    C183523   2.856   7.354  11.446 -0.0088 -0.0929  0.2801
56055CHOL    C283524   3.271   7.213  11.459  0.0737  0.0101 -0.1483
56056CHOL   ROH83525   3.080   4.875   9.570 -0.1023  0.0860  0.0710
56056CHOL    R183526   3.184   4.963   9.818  0.0776 -0.1125  0.0674
56056CHOL    R283527   3.023   5.057  10.022  0.2504  0.0294  0.1390
56056CHOL    R383528   3.151   4.867  10.168  0.0574 -0.1724  0.0493
56056CHOL    R483529   3.013   5.032  10.366  0.3422 -0.0343  0.1373
56056CHOL    R583530   3.225   4.982  10.364  0.2794 -0.3105  0.0496
56056CHOL    C183531   3.128   4.839  10.704  0.2144 -0.2608  0.0522
56056CHOL    C283532   3.208   4.863  11.058  0.0919 -0.1288 -0.1960
56057CHOL   ROH83533  26.246  23.762   1.582  0.0897 -0.0258  0.0433
56057CHOL    R183534  26.375  23.647   1.807  0.1049 -0.0135  0.0409
56057CHOL    R283535  26.278  23.422   1.935  0.1307 -0.0241  0.0402
56057CHOL    R383536  26.529  23.328   1.889  0.1409  0.0029  0.0373
56057CHOL    R483537  26.447  23.200   2.140  0.0891 -0.1411 -0.0516
56057CHOL    R583538  26.629  23.316   2.107  0.0963 -0.1211  0.0512
56057CHOL    C183539  26.780  22.983   2.216  0.0745 -0.1839 -0.1076
56057CHOL    C283540  26.896  22.957   2.562  0.0625 -0.2425 -0.2479
56058CHOL   ROH83541  32.958  16.482   4.951 -0.3309 -0.0144 -0.2135
56058CHOL    R183542  33.126  16.379   4.748 -0.3506 -0.2062 -0.1329
56058CHOL    R283543  33.027  16.265   4.516 -0.3688 -0.0135 -0.2205
56058CHOL    R383544  33.189  16.447   4.396 -0.0347 -0.2129 -0.0792
56058CHOL    R483545  33.189  16.217   4.215 -0.4646 -0.0725 -0.2623
56058CHOL    R583546  33.364  16.316   4.298 -0.2766 -0.4595 -0.1865
56058CHOL    C183547  33.435  16.360   3.926 -0.2064 -0.2938 -0.1540
56058CHOL    C283548  33.769  16.173   3.791 -0.1732 -0.1862  0.1315
56059CHOL   ROH83549  13.374   2.338  17.112 -0.1488 -0.1449  0.1580
56059CHOL    R183550  13.295   2.386  16.844 -0.0471 -0.1340  0.1297
56059CHOL    R283551  13.314   2.194  16.647  0.0231 -0.1285  0.1289
56059CHOL    R383552  13.051   2.250  16.612  0.0374 -0.1210  0.0336
56059CHOL    R483553  13.116   2.062  16.396  0.1345 -0.0333 -0.0099
56059CHOL    R583554  13.022   2.258  16.374  0.1409 -0.0283  0.0254
56059CHOL    C183555  12.753   2.038  16.217  0.2129  0.0291 -0.1806
56059CHOL    C283556  12.603   1.915  16.007 -0.2773 -0.0881 -0.2734
56060CHOL   ROH83557  16.921  24.400  15.850  0.0640  0.1723 -0.0585
56060CHOL    R183558  17.177  24.436  15.964  0.0877  0.1236 -0.0962
56060CHOL    R283559  17.329  24.663  15.921  0.0193  0.2039  0.0827
56060CHOL    R383560  17.334  24.672  16.192  0.0945 -0.0610  0.0909
56060CHOL    R483561  17.590  24.788  16.109 -0.0216  0.2232  0.1270
56060CHOL    R583562  17.562  24.623  16.249  0.1505  0.0610 -0.0273
56060CHOL    C183563  17.748  24.869  16.474  0.0251 -0.0149  0.1606
56060CHOL    C283564  17.908  25.152  16.403 -0.3891  0.1125 -0.1721
56061CHOL   ROH83565  35.377   0.083  13.719  0.0153 -0.0296 -0.0342
56061CHOL    R183566   0.061   0.078  13.445  0.0601 -0.0846 -0.0219
56061CHOL    R283567   0.215   0.274  13.327  0.0422 -0.0849 -0.0459
56061CHOL    R383568   0.368   0.062  13.250  0.0943 -0.0755  0.0311
56061CHOL    R483569   0.473   0.289  13.098 -0.0284 -0.1241 -0.1284
56061CHOL    R583570   0.406   0.099  13.016  0.0149 -0.1942 -0.0011
56061CHOL    C183571   0.767   0.100  12.892 -0.0206 -0.1381 -0.1044
56061CHOL    C283572   0.765  35.360  12.605 -0.0772  0.1694  0.0272
56062CHOL   ROH83573  12.683  33.369  16.103  0.1586  0.2028 -0.0760
56062CHOL    R183574  12.860  33.492  16.287  0.0843  0.1385  0.0389
56062CHOL    R283575  12.779  33.583  16.535 -0.0177  0.0573  0.0371
56062CHOL    R383576  12.980  33.424  16.624 -0.0577  0.0237  0.0666
56062CHOL    R483577  12.974  33.649  16.812  0.1425  0.1690 -0.1022
56062CHOL    R583578  13.148  33.578  16.700  0.0552 -0.0031 -0.1259
56062CHOL    C183579  13.278  33.539  17.057  0.1980  0.2023 -0.1554
56062CHOL    C283580  13.616  33.686  16.959 -0.1158  0.0084 -0.0316
56063CHOL   ROH83581  31.392  16.310   0.836 -0.3092  0.1557 -0.2017
56063CHOL    R183582  31.304  16.185   1.074 -0.1499  0.3361 -0.0462
56063CHOL    R283583  31.175  16.324   1.275 -0.2698  0.4355 -0.1874
56063CHOL    R383584  30.985  16.132   1.242 -0.0747  0.1986  0.0523
56063CHOL    R483585  30.892  16.289   1.471 -0.1465  0.2787 -0.0373
56063CHOL    R583586  30.921  16.073   1.465  0.0875  0.3056  0.1261
56063CHOL    C183587  30.550  16.088   1.555  0.1082 -0.0351  0.2752
56063CHOL    C283588  30.301  15.866   1.837 -0.2057  0.0962 -0.1604
56064CHOL   ROH83589   4.305  21.519  15.761  0.0251 -0.1723  0.2236
56064CHOL    R183590   4.545  21.656  15.822 -0.0638  0.0242  0.1333
56064CHOL    R283591   4.771  21.640  15.664 -0.0416  0.0277  0.1700
56064CHOL    R383592   4.752  21.911  15.665 -0.2010  0.0202 -0.0582
56064CHOL    R483593   5.031  21.856  15.592 -0.0832  0.1183  0.2887
56064CHOL    R583594   4.962  21.985  15.754 -0.3366  0.2064  0.1186
56064CHOL    C183595   5.164  22.237  15.552 -0.2569  0.1641  0.1437
56064CHOL    C283596   5.454  22.317  15.667  0.0436 -0.0098  0.2379
56065CHOL   ROH83597  34.257   8.145   9.832 -0.0790 -0.1236  0.0159
56065CHOL    R183598  34.443   8.110   9.622  0.0286 -0.0998  0.1070
56065CHOL    R283599  34.626   7.904   9.619 -0.0729 -0.1917  0.1009
56065CHOL    R383600  34.517   7.854   9.375  0.0454  0.0009  0.0076
56065CHOL    R483601  34.755   7.682   9.387 -0.0755 -0.1615  0.0709
56065CHOL    R583602  34.706   7.825   9.230  0.1171 -0.0516  0.1110
56065CHOL    C183603  34.727   7.506   9.023  0.0342  0.0370 -0.0342
56065CHOL    C283604  34.704   7.586   8.673  0.1611 -0.2863 -0.1336
56066CHOL   ROH83605  25.917   2.519  10.502  0.1668 -0.0369  0.0595
56066CHOL    R183606  25.760   2.367  10.323 -0.0341  0.0071  0.1965
56066CHOL    R283607  25.525   2.461  10.212  0.1686  0.2803 -0.0074
56066CHOL    R383608  25.646   2.397   9.978  0.1468 -0.2292  0.1147
56066CHOL    R483609  25.360   2.395   9.916  0.1675  0.4468 -0.0451
56066CHOL    R583610  25.502   2.234   9.879 -0.2142  0.0480  0.1723
56066CHOL    C183611  25.379   2.296   9.523  0.1471  0.0653  0.0472
56066CHOL    C283612  25.371   2.064   9.208  0.1333 -0.1121  0.0909
56067CHOL   ROH83613  35.357   8.258   5.956 -0.0204  0.0592 -0.0292
56067CHOL    R183614  35.376   8.540   5.973  0.0530  0.0548 -0.0322
56067CHOL    R283615  35.193   8.709   5.852  0.2133  0.1041 -0.2113
56067CHOL    R383616  35.171   8.812   6.103  0.0177  0.1276 -0.2373
56067CHOL    R483617  35.010   8.990   5.935  0.1049  0.0811 -0.3702
56067CHOL    R583618  35.171   9.049   6.070 -0.0011  0.1238 -0.2624
56067CHOL    C183619  34.883   9.251   6.219 -0.1425  0.0896 -0.4871
56067CHOL    C283620  34.553   9.410   6.332  0.1633  0.0035 -0.1658
56068CHOL   ROH83621   6.201   8.264  12.999  0.0814  0.3038  0.0412
56068CHOL    R183622   5.949   8.155  13.067  0.1441  0.1162 -0.0232
56068CHOL    R283623   5.795   8.254  13.274  0.0544 -0.0521 -0.0085
56068CHOL    R383624   5.604   8.273  13.080  0.0643 -0.1139 -0.0241
56068CHOL    R483625   5.477   8.382  13.321  0.1382  0.2033 -0.1258
56068CHOL    R583626   5.399   8.223  13.194  0.0320  0.1302  0.0287
56068CHOL    C183627   5.113   8.474  13.167  0.1964  0.2942 -0.2085
56068CHOL    C283628   4.684   8.469  13.167  0.3490  0.3989 -0.1006
56069CHOL   ROH83629  23.231   9.014  13.164 -0.2915  0.2519  0.0966
56069CHOL    R183630  23.036   9.091  12.974 -0.1894  0.1897 -0.0342
56069CHOL    R283631  23.060   9.033  12.705 -0.0294  0.1279 -0.0088
56069CHOL    R383632  22.814   8.923  12.740 -0.0389  0.1138 -0.1225
56069CHOL    R483633  22.814   9.016  12.462  0.0811  0.1122 -0.1199
56069CHOL    R583634  22.667   9.065  12.615  0.0092  0.1031 -0.1890
56069CHOL    C183635  22.440   8.904  12.354  0.1366  0.0899 -0.2913
56069CHOL    C283636  22.027   9.007  12.440 -0.2187 -0.2140 -0.1944
56070CHOL   ROH83637   4.603   6.036  10.452  0.2773  0.0136  0.1091
56070CHOL    R183638   4.483   6.136  10.688  0.1494  0.1724 -0.0220
56070CHOL    R283639   4.259   6.298  10.684 -0.0958 -0.1636 -0.2391
56070CHOL    R383640   4.158   6.109  10.850  0.2003 -0.0810  0.0405
56070CHOL    R483641   4.019   6.357  10.925 -0.4189 -0.2357 -0.5388
56070CHOL    R583642   4.129   6.223  11.059 -0.2172  0.2579 -0.1946
56070CHOL    C183643   3.784   6.213  11.222 -0.3293 -0.2002 -0.4506
56070CHOL    C283644   3.595   6.441  11.336 -0.0092 -0.1222  0.1003
56071CHOL   ROH83645  30.207   4.978   9.559  0.2571 -0.0840  0.1336
56071CHOL    R183646  30.377   4.776   9.456  0.0038 -0.2344  0.0046
56071CHOL    R283647  30.307   4.618   9.241 -0.0585  0.2195 -0.3158
56071CHOL    R383648  30.544   4.706   9.141  0.2100 -0.0454  0.0704
56071CHOL    R483649  30.456   4.499   8.952  0.0460  0.3760 -0.3269
56071CHOL    R583650  30.649   4.509   9.054 -0.0412 -0.1074 -0.0984
56071CHOL    C183651  30.765   4.512   8.690  0.3586  0.2184  0.0292
56071CHOL    C283652  30.753   4.422   8.384  0.2975  0.0308 -0.2888
56072CHOL   ROH83653   1.097  35.320  14.417  0.0542 -0.0420 -0.1782
56072CHOL    R183654   1.357   0.008  14.330  0.0635 -0.0369 -0.1471
56072CHOL    R283655   1.583  35.253  14.404  0.0517 -0.0708 -0.1699
56072CHOL    R383656   1.624  35.240  14.136  0.0628 -0.0069 -0.1711
56072CHOL    R483657   1.891  35.279  14.249  0.0341  0.1659 -0.1671
56072CHOL    R583658   1.797   0.014  14.094 -0.0491  0.1196 -0.1509
56072CHOL    C183659   2.108  35.281  13.907  0.0342  0.3624 -0.1668
56072CHOL    C283660   2.420  35.185  13.695  0.1966 -0.1033  0.0593
56073CHOL   ROH83661   8.488  31.869  20.244  0.0633  0.0345  0.0669
56073CHOL    R183662   8.409  31.977  19.994  0.0489  0.0187  0.0645
56073CHOL    R283663   8.586  32.018  19.787  0.0504  0.0705  0.0751
56073CHOL    R383664   8.408  31.867  19.647  0.0985  0.0260  0.0624
56073CHOL    R483665   8.532  32.041  19.446 -0.0757  0.1999  0.1038
56073CHOL    R583666   8.319  32.018  19.484 -0.0491  0.0481  0.1627
56073CHOL    C183667   8.333  31.914  19.117 -0.1035  0.2322  0.1082
56073CHOL    C283668   8.498  32.036  18.811 -0.0924 -0.3488  0.2529
56074CHOL   ROH83669  19.528  23.868  17.610 -0.0075 -0.0770 -0.2975
56074CHOL    R183670  19.273  23.786  17.518 -0.0607 -0.0166 -0.2041
56074CHOL    R283671  19.050  23.949  17.535 -0.0181  0.0340 -0.1161
56074CHOL    R383672  19.033  23.899  17.268 -0.1288  0.0446 -0.1113
56074CHOL    R483673  18.817  24.090  17.322 -0.1694 -0.0340  0.0036
56074CHOL    R583674  18.798  23.897  17.223 -0.1501 -0.0343  0.0013
56074CHOL    C183675  18.666  24.125  16.948 -0.3617 -0.0633  0.0778
56074CHOL    C283676  18.288  24.210  16.855 -0.2342  0.0210 -0.0538
56075CHOL   ROH83677  28.138  15.520   0.563  0.2620  0.1613  0.1767
56075CHOL    R183678  28.082  15.299   0.731  0.1619  0.1379  0.1127
56075CHOL    R283679  28.256  15.214   0.929  0.0505  0.1015  0.1948
56075CHOL    R383680  28.037  15.242   1.088 -0.0356  0.0854  0.0800
56075CHOL    R483681  28.243  15.131   1.264 -0.1143  0.1170  0.1932
56075CHOL    R583682  28.043  15.050   1.231 -0.0891  0.0933  0.0930
56075CHOL    C183683  28.031  15.108   1.608 -0.2914  0.1111  0.0845
56075CHOL    C283684  28.192  15.129   1.856 -0.0020 -0.1151  0.0582
56076CHOL   ROH83685  16.078  22.488  17.285  0.0953 -0.1206 -0.2364
56076CHOL    R183686  16.333  22.424  17.389  0.0551 -0.1806 -0.1734
56076CHOL    R283687  16.467  22.590  17.565  0.1518 -0.1005 -0.3225
56076CHOL    R383688  16.477  22.365  17.718  0.0125  0.0328 -0.1162
56076CHOL    R483689  16.661  22.553  17.849  0.1909  0.0120 -0.3345
56076CHOL    R583690  16.707  22.350  17.785  0.0166 -0.0835 -0.1570
56076CHOL    C183691  16.783  22.321  18.158  0.0832  0.2030 -0.1478
56076CHOL    C283692  17.066  22.109  18.373 -0.1211  0.1644  0.1426
56077CHOL   ROH83693   1.311   9.323   6.863  0.1072 -0.0630  0.2466
56077CHOL    R183694   1.053   9.406   6.945  0.0791  0.1109 -0.0137
56077CHOL    R283695   0.950   9.346   7.194 -0.3026 -0.0218 -0.2015
56077CHOL    R383696   0.913   9.615   7.207 -0.0593  0.0034 -0.0008
56077CHOL    R483697   0.777   9.510   7.444 -0.0897 -0.0456 -0.0373
56077CHOL    R583698   0.691   9.641   7.293 -0.0153  0.1401  0.0772
56077CHOL    C183699   0.641   9.858   7.603  0.2626 -0.0357  0.2467
56077CHOL    C283700   0.585   9.833   7.946  0.1176  0.1620 -0.0968
56078CHOL   ROH83701  15.185  32.772  19.280  0.0652 -0.2193 -0.0055
56078CHOL    R183702  15.077  32.943  19.082  0.0904 -0.1392  0.0496
56078CHOL    R283703  14.957  32.848  18.852 -0.0210 -0.0494  0.0712
56078CHOL    R383704  14.750  33.004  18.934  0.0766  0.0393  0.1515
56078CHOL    R483705  14.697  32.953  18.650 -0.0170  0.1205  0.1532
56078CHOL    R583706  14.707  33.148  18.747  0.1045  0.0980  0.1890
56078CHOL    C183707  14.351  33.160  18.609  0.0768  0.3024  0.2763
56078CHOL    C283708  14.279  33.354  18.398 -0.0538  0.1522 -0.1768
56079CHOL   ROH83709  17.652  19.352  13.994  0.1205  0.1557 -0.0596
56079CHOL    R183710  17.725  19.301  14.262  0.0780  0.1287 -0.0530
56079CHOL    R283711  17.938  19.139  14.330  0.0446  0.0920 -0.0344
56079CHOL    R383712  18.017  19.358  14.472  0.0591  0.0716 -0.0118
56079CHOL    R483713  18.126  19.129  14.620 -0.0324  0.0444  0.0142
56079CHOL    R583714  18.002  19.289  14.701 -0.0158  0.0727 -0.0167
56079CHOL    C183715  18.310  19.328  14.922 -0.0639 -0.0029  0.0637
56079CHOL    C283716  18.736  19.164  15.078 -0.2222  0.2232 -0.1338
56080CHOL   ROH83717  12.297  14.991  17.648  0.2180 -0.0244  0.0623
56080CHOL    R183718  12.462  15.101  17.446  0.0628  0.0733 -0.0124
56080CHOL    R283719  12.481  14.990  17.193  0.1105  0.0103  0.0187
56080CHOL    R383720  12.416  15.242  17.114 -0.1556 -0.0786 -0.0473
56080CHOL    R483721  12.584  15.137  16.898  0.0815  0.0955  0.0509
56080CHOL    R583722  12.614  15.324  17.006 -0.1996  0.1473  0.0414
56080CHOL    C183723  12.583  15.459  16.651 -0.1849  0.0618  0.0073
56080CHOL    C283724  12.405  15.695  16.572 -0.1769 -0.0127 -0.1813
56081CHOL   ROH83725  21.820  33.828  11.605 -0.0729 -0.3026  0.0495
56081CHOL    R183726  21.799  33.763  11.330  0.0118 -0.1812  0.0143
56081CHOL    R283727  21.555  33.737  11.202  0.0505 -0.2037 -0.0537
56081CHOL    R383728  21.661  33.920  11.032  0.0275 -0.0890  0.0556
56081CHOL    R483729  21.460  33.778  10.872  0.1421 -0.1129 -0.0690
56081CHOL    R583730  21.670  33.807  10.821  0.1472 -0.0004  0.0127
56081CHOL    C183731  21.504  33.975  10.521  0.1738  0.0489  0.0249
56081CHOL    C283732  21.597  34.069  10.164  0.1565  0.1244 -0.0018
56082CHOL   ROH83733   3.715  13.238   7.243  0.1192 -0.0519  0.0389
56082CHOL    R183734   3.487  13.326   7.386  0.1357 -0.0307  0.0522
56082CHOL    R283735   3.245  13.375   7.263  0.1300 -0.0187  0.0678
56082CHOL    R383736   3.151  13.202   7.451  0.1318 -0.0051  0.0812
56082CHOL    R483737   2.994  13.447   7.490  0.1478  0.0056  0.0799
56082CHOL    R583738   3.108  13.340   7.642  0.1512  0.0059  0.0777
56082CHOL    C183739   2.761  13.326   7.799  0.1599  0.0325  0.0995
56082CHOL    C283740   2.492  13.387   8.173 -0.0938  0.3265 -0.2057
56083CHOL   ROH83741  14.037   5.318  17.675 -0.0883  0.1552  0.1349
56083CHOL    R183742  13.840   5.338  17.472  0.0424 -0.2018 -0.0307
56083CHOL    R283743  13.813   5.562  17.312 -0.4819 -0.0830  0.2140
56083CHOL    R383744  13.836   5.381  17.110  0.2684  0.2195  0.0148
56083CHOL    R483745  13.682   5.602  16.995 -0.4922 -0.2010  0.2028
56083CHOL    R583746  13.626   5.391  16.997  0.2707 -0.4200 -0.0628
56083CHOL    C183747  13.627   5.456  16.621  0.2063  0.0141  0.0095
56083CHOL    C283748  13.655   5.259  16.282  0.1982 -0.1884  0.0477
56084CHOL   ROH83749   4.304   6.304  16.165  0.1685 -0.2416  0.1994
56084CHOL    R183750   4.476   6.179  15.978  0.2661 -0.0539  0.1627
56084CHOL    R283751   4.536   6.293  15.733  0.0416 -0.0150  0.1228
56084CHOL    R383752   4.793   6.258  15.817  0.1146  0.3254  0.0456
56084CHOL    R483753   4.811   6.276  15.524 -0.0799 -0.3440 -0.0143
56084CHOL    R583754   4.890   6.117  15.649  0.0896 -0.0098  0.3107
56084CHOL    C183755   5.211   6.234  15.480 -0.0822 -0.2160 -0.1664
56084CHOL    C283756   5.497   6.026  15.320 -0.2021  0.1327  0.0420
56085CHOL   ROH83757   2.178  16.065   4.394 -0.0038 -0.2538  0.0099
56085CHOL    R183758   2.089  16.264   4.575 -0.0356 -0.2979  0.0431
56085CHOL    R283759   1.972  16.202   4.818  0.1711 -0.3562  0.1292
56085CHOL    R383760   2.166  16.365   4.916  0.1132 -0.1952 -0.0211
56085CHOL    R483761   1.964  16.354   5.128  0.2259 -0.2590  0.0833
56085CHOL    R583762   2.046  16.534   5.036  0.0620 -0.2340 -0.0175
56085CHOL    C183763   2.141  16.596   5.401  0.2034 -0.0515 -0.0846
56085CHOL    C283764   2.104  16.900   5.586 -0.2432  0.1240  0.0712
56086CHOL   ROH83765  32.911  21.755   4.698  0.0167  0.0392  0.0869
56086CHOL    R183766  33.087  21.717   4.480 -0.1911  0.1839 -0.1090
56086CHOL    R283767  33.067  21.861   4.245 -0.1653  0.6327  0.1587
56086CHOL    R383768  33.328  21.918   4.295 -0.0476  0.1857  0.0794
56086CHOL    R483769  33.275  22.035   4.031 -0.0576  0.6639  0.2878
56086CHOL    R583770  33.435  21.896   4.082 -0.2186  0.3551 -0.0265
56086CHOL    C183771  33.642  22.190   3.954  0.1154  0.2626  0.2885
56086CHOL    C283772  33.872  22.367   3.724 -0.1748  0.1491  0.3560
56087CHOL   ROH83773  20.856  19.090  15.565  0.0227 -0.0537 -0.1519
56087CHOL    R183774  20.585  19.026  15.515  0.0862 -0.2028 -0.3049
56087CHOL    R283775  20.384  19.215  15.517 -0.0854 -0.3867  0.0436
56087CHOL    R383776  20.333  19.118  15.269  0.0297  0.0474 -0.1563
56087CHOL    R483777  20.095  19.275  15.338 -0.1165 -0.2861  0.1265
56087CHOL    R583778  20.098  19.067  15.272  0.0710 -0.1627 -0.2777
56087CHOL    C183779  19.878  19.218  15.000 -0.0268  0.1801 -0.0131
56087CHOL    C283780  19.628  19.116  14.904 -0.1740  0.2400  0.0195
56088CHOL   ROH83781  20.887  30.916  12.740 -0.2848 -0.1658  0.2023
56088CHOL    R183782  20.646  30.940  12.593 -0.1764 -0.1272  0.0290
56088CHOL    R283783  20.642  30.983  12.320  0.0257 -0.1863  0.0148
56088CHOL    R383784  20.484  30.762  12.320 -0.0392 -0.1398 -0.0443
56088CHOL    R483785  20.413  30.903  12.073 -0.1625  0.0622  0.1078
56088CHOL    R583786  20.276  30.838  12.229 -0.0776 -0.0118  0.1499
56088CHOL    C183787  20.131  30.650  11.930 -0.3328  0.2510  0.1062
56088CHOL    C283788  19.998  30.480  11.585  0.1621  0.3415 -0.1101
56089CHOL   ROH83789   4.346  35.044  13.470 -0.1009 -0.0917  0.0728
56089CHOL    R183790   4.280  35.273  13.622 -0.2094 -0.0301 -0.0672
56089CHOL    R283791   4.020  35.361  13.654 -0.2787 -0.2919  0.1050
56089CHOL    R383792   4.081  35.347  13.918 -0.0052  0.0099  0.0612
56089CHOL    R483793   3.913   0.201  13.893 -0.4465 -0.2960  0.0347
56089CHOL    R583794   4.111   0.190  13.984 -0.3380  0.1153 -0.1388
56089CHOL    C183795   3.909   0.319  14.281 -0.2875 -0.0150 -0.0472
56089CHOL    C283796   3.730   0.362  14.603 -0.2008 -0.1166  0.0729
56090CHOL   ROH83797  18.914   7.251  16.655  0.2914  0.0777 -0.1229
56090CHOL    R183798  18.869   7.229  16.376  0.0051 -0.1879 -0.0591
56090CHOL    R283799  18.649   7.099  16.271 -0.3103  0.0445  0.2958
56090CHOL    R383800  18.613   7.334  16.140 -0.0336 -0.0486  0.0454
56090CHOL    R483801  18.476   7.135  15.974 -0.2483 -0.0667  0.2458
56090CHOL    R583802  18.628   7.277  15.908 -0.0830 -0.3082  0.1062
56090CHOL    C183803  18.341   7.378  15.679  0.0476 -0.2187 -0.0184
56090CHOL    C283804  18.262   7.467  15.320 -0.0553  0.1736  0.2457
56091CHOL   ROH83805  30.158  33.939   6.702 -0.1166 -0.3013 -0.2412
56091CHOL    R183806  30.102  34.012   6.970 -0.0753 -0.1175 -0.2823
56091CHOL    R283807  29.860  33.959   7.091 -0.0040 -0.1705 -0.1596
56091CHOL    R383808  30.016  33.841   7.279  0.1327  0.0794 -0.1138
56091CHOL    R483809  29.770  33.910   7.421 -0.0727 -0.4253 -0.2148
56091CHOL    R583810  29.973  33.964   7.479 -0.2010 -0.0519 -0.1030
56091CHOL    C183811  29.864  33.771   7.790  0.0161 -0.3384 -0.2040
56091CHOL    C283812  29.678  33.904   8.001  0.2939  0.0659 -0.1938
56092CHOL   ROH83813   7.444  14.938  15.124 -0.0884 -0.0125  0.0739
56092CHOL    R183814   7.611  15.146  15.219 -0.0341 -0.0374  0.0332
56092CHOL    R283815   7.855  15.206  15.103 -0.1023 -0.0038 -0.0935
56092CHOL    R383816   7.749  15.456  15.087 -0.1140 -0.0000  0.0375
56092CHOL    R483817   8.038  15.498  15.118 -0.1004 -0.0054 -0.0844
56092CHOL    R583818   7.880  15.585  15.240 -0.0442 -0.0480  0.0182
56092CHOL    C183819   8.046  15.903  15.111 -0.1103 -0.0031  0.0440
56092CHOL    C283820   8.415  16.015  15.254 -0.1419  0.0672  0.1030
56093CHOL   ROH83821  22.214   8.526   8.424 -0.0023  0.0610 -0.0230
56093CHOL    R183822  22.471   8.409   8.444 -0.0198  0.0299  0.0212
56093CHOL    R283823  22.673   8.463   8.264 -0.0017 -0.0429  0.0195
56093CHOL    R383824  22.812   8.526   8.490 -0.0062 -0.0066  0.0122
56093CHOL    R483825  23.011   8.535   8.274 -0.0168  0.0303  0.0038
56093CHOL    R583826  23.025   8.420   8.459  0.0156  0.0384  0.0063
56093CHOL    C183827  23.338   8.635   8.492 -0.0293  0.1071 -0.0124
56093CHOL    C283828  23.734   8.662   8.625  0.1060 -0.0005  0.1363
56094CHOL   ROH83829  29.441  29.807   9.335 -0.1392 -0.0761  0.0817
56094CHOL    R183830  29.526  29.796   9.065 -0.1663 -0.0380  0.0716
56094CHOL    R283831  29.360  29.862   8.854 -0.1788  0.0203  0.0987
56094CHOL    R383832  29.562  30.032   8.790 -0.1644  0.0076  0.1112
56094CHOL    R483833  29.395  30.020   8.549  0.1402 -0.3931 -0.0834
56094CHOL    R583834  29.610  29.983   8.560  0.1415 -0.2962  0.2359
56094CHOL    C183835  29.605  30.271   8.310  0.3399 -0.6456 -0.1775
56094CHOL    C283836  29.721  30.230   7.905  0.0882 -0.1815  0.2450
56095CHOL   ROH83837  34.224  29.037  12.218  0.0768  0.1012 -0.0721
56095CHOL    R183838  34.465  29.183  12.246  0.1606 -0.0351 -0.0770
56095CHOL    R283839  34.708  29.088  12.155  0.0805 -0.1079 -0.2122
56095CHOL    R383840  34.715  29.326  12.024  0.1563 -0.0407 -0.0863
56095CHOL    R483841  34.996  29.245  12.047  0.1518 -0.0175  0.1013
56095CHOL    R583842  34.911  29.435  12.110  0.0751 -0.0591  0.1294
56095CHOL    C183843  35.171  29.559  11.860  0.2637  0.0988  0.4022
56095CHOL    C283844   0.077  29.730  11.842 -0.0058  0.2349 -0.3382
56096CHOL   ROH83845  31.258  21.401   3.358  0.0939 -0.0598 -0.0059
56096CHOL    R183846  31.335  21.568   3.142  0.0298  0.0231  0.0355
56096CHOL    R283847  31.483  21.477   2.928  0.0891  0.1397  0.0252
56096CHOL    R383848  31.278  21.579   2.783  0.0497  0.0734  0.0341
56096CHOL    R483849  31.515  21.624   2.617 -0.0170 -0.1335 -0.1167
56096CHOL    R583850  31.370  21.774   2.679  0.0547 -0.0406 -0.1761
56096CHOL    C183851  31.341  21.806   2.300 -0.1153 -0.3546 -0.1910
56096CHOL    C283852  31.306  22.099   2.106  0.0014 -0.0396 -0.1470
56097CHOL   ROH83853  27.403  10.733   2.001  0.1280  0.1399  0.0745
56097CHOL    R183854  27.629  10.750   2.170  0.1600 -0.0689  0.0537
56097CHOL    R283855  27.620  10.866   2.421  0.3096  0.0154  0.0201
56097CHOL    R383856  27.723  10.628   2.500  0.0441 -0.0801  0.0826
56097CHOL    R483857  27.744  10.801   2.736  0.1589 -0.0666  0.0634
56097CHOL    R583858  27.905  10.687   2.643  0.0677 -0.2462  0.1226
56097CHOL    C183859  27.914  10.539   2.995 -0.1784 -0.2039  0.1474
56097CHOL    C283860  27.824  10.338   3.265 -0.1864 -0.2032  0.2703
56098CHOL   ROH83861  15.232  25.833  17.575 -0.1601  0.0746 -0.0190
56098CHOL    R183862  15.384  25.758  17.802 -0.1292  0.0008 -0.0639
56098CHOL    R283863  15.597  25.908  17.894 -0.0378 -0.0938 -0.1176
56098CHOL    R383864  15.459  25.900  18.128  0.0231 -0.0420 -0.0796
56098CHOL    R483865  15.740  25.874  18.207  0.0248 -0.3128 -0.1690
56098CHOL    R583866  15.578  25.740  18.262 -0.0777 -0.1867 -0.1619
56098CHOL    C183867  15.695  25.847  18.609  0.1184 -0.3918 -0.1640
56098CHOL    C283868  15.799  25.645  18.837 -0.0840 -0.2486  0.0125
56099CHOL   ROH83869   2.674  26.623  11.351  0.0643 -0.0310  0.1750
56099CHOL    R183870   2.526  26.542  11.578  0.0171  0.0286  0.1658
56099CHOL    R283871   2.286  26.658  11.650  0.0127  0.0629  0.0986
56099CHOL    R383872   2.197  26.402  11.644 -0.0053  0.0683  0.1361
56099CHOL    R483873   1.987  26.551  11.785 -0.0268  0.1141  0.0525
56099CHOL    R583874   2.089  26.371  11.856 -0.0573  0.1232  0.1167
56099CHOL    C183875   1.729  26.247  11.858 -0.0666  0.1493  0.0610
56099CHOL    C283876   1.382  26.312  12.039  0.0630 -0.2727  0.3895
56100CHOL   ROH83877  11.755  27.827  18.175 -0.2309 -0.3497  0.0269
56100CHOL    R183878  11.644  28.015  18.355 -0.0877 -0.1993 -0.0399
56100CHOL    R283879  11.484  27.941  18.568 -0.2198  0.0045 -0.0653
56100CHOL    R383880  11.665  28.085  18.712 -0.1102 -0.1495 -0.0483
56100CHOL    R483881  11.442  28.038  18.897 -0.2426  0.1871 -0.1215
56100CHOL    R583882  11.531  28.231  18.846  0.0054  0.0631 -0.1629
56100CHOL    C183883  11.587  28.229  19.224 -0.1528  0.1489 -0.1386
56100CHOL    C283884  11.525  28.256  19.624  0.4845 -0.0605  0.0689
56101CHOL   ROH83885  31.313  27.421   5.146 -0.0145  0.1140  0.1027
56101CHOL    R183886  31.241  27.352   5.412 -0.0134  0.0557  0.0884
56101CHOL    R283887  31.085  27.133   5.472 -0.1116  0.1082  0.0322
56101CHOL    R383888  31.293  27.070   5.635 -0.1195 -0.0474 -0.0176
56101CHOL    R483889  31.061  26.939   5.757 -0.2012  0.1917  0.0814
56101CHOL    R583890  31.199  27.075   5.855 -0.0463  0.0854  0.0096
56101CHOL    C183891  31.242  26.767   6.076 -0.2603  0.0942  0.0634
56101CHOL    C283892  31.055  26.508   6.216 -0.0325  0.1486  0.0026
56102CHOL   ROH83893   2.872   6.393  13.212  0.0129 -0.0518  0.4019
56102CHOL    R183894   3.144   6.314  13.198  0.0401  0.0733  0.2117
56102CHOL    R283895   3.223   6.050  13.214  0.1865  0.1254  0.3450
56102CHOL    R383896   3.348   6.106  12.979 -0.0588  0.0052  0.1836
56102CHOL    R483897   3.450   5.842  13.057  0.0229  0.0449  0.2132
56102CHOL    R583898   3.569   6.018  13.007 -0.0283  0.0204 -0.0024
56102CHOL    C183899   3.700   5.774  12.745 -0.3027 -0.1148 -0.0151
56102CHOL    C283900   3.956   5.825  12.456 -0.0062  0.3620 -0.0072
56103CHOL   ROH83901  22.323  19.387   7.249  0.1648 -0.1228  0.0027
56103CHOL    R183902  22.551  19.547   7.300  0.0910 -0.0982  0.2575
56103CHOL    R283903  22.588  19.796   7.186  0.3065 -0.1997  0.1050
56103CHOL    R383904  22.617  19.875   7.444 -0.1295  0.0202  0.0924
56103CHOL    R483905  22.787  20.058   7.290  0.1637 -0.1369  0.2229
56103CHOL    R583906  22.848  19.937   7.461 -0.1467  0.0015  0.4372
56103CHOL    C183907  22.931  20.285   7.594 -0.3291  0.1058  0.2797
56103CHOL    C283908  23.060  20.557   7.353  0.0974  0.1672 -0.5615
56104CHOL   ROH83909  18.443  26.829  11.850  0.1219  0.0022  0.0606
56104CHOL    R183910  18.556  27.053  11.982 -0.1411  0.0580  0.1951
56104CHOL    R283911  18.589  27.063  12.256  0.0582 -0.1659  0.1818
56104CHOL    R383912  18.847  27.118  12.190 -0.0792  0.3240  0.0276
56104CHOL    R483913  18.826  27.184  12.476  0.1446 -0.4110  0.2250
56104CHOL    R583914  18.900  27.315  12.317 -0.1942  0.0820  0.4616
56104CHOL    C183915  19.207  27.306  12.542  0.0656 -0.0938  0.1055
56104CHOL    C283916  19.444  27.106  12.826  0.0805 -0.0745  0.1176
56105CHOL   ROH83917  26.517   9.389   7.186  0.0454 -0.1929  0.1031
56105CHOL    R183918  26.386   9.357   6.937  0.0893 -0.0333  0.0585
56105CHOL    R283919  26.327   9.108   6.831  0.1262  0.0333 -0.1215
56105CHOL    R383920  26.075   9.209   6.819  0.1205  0.0218 -0.0938
56105CHOL    R483921  26.076   8.989   6.625  0.0965 -0.0042 -0.0638
56105CHOL    R583922  26.016   9.195   6.587  0.0826 -0.0121 -0.0820
56105CHOL    C183923  25.694   9.014   6.493  0.0735 -0.0368 -0.0041
56105CHOL    C283924  25.458   9.146   6.246  0.2563 -0.0395  0.0982
56106CHOL   ROH83925  31.297  22.700   0.410  0.1477 -0.0475  0.0261
56106CHOL    R183926  31.142  22.698   0.646  0.0658 -0.0347 -0.0277
56106CHOL    R283927  30.900  22.565   0.664  0.0762 -0.0608 -0.0944
56106CHOL    R383928  31.017  22.446   0.879  0.0149 -0.0182 -0.0369
56106CHOL    R483929  30.761  22.547   0.980 -0.0114  0.0105 -0.1283
56106CHOL    R583930  30.959  22.587   1.064 -0.0322  0.0237 -0.0827
56106CHOL    C183931  30.791  22.425   1.366 -0.1198  0.0920 -0.0940
56106CHOL    C283932  30.416  22.402   1.509  0.0335  0.0180  0.0722
56107CHOL   ROH83933   0.678  26.206  13.960 -0.0882  0.2753 -0.3359
56107CHOL    R183934   0.951  26.156  13.907 -0.0249  0.4848 -0.2127
56107CHOL    R283935   1.040  25.923  13.788  0.2487  0.3718  0.2033
56107CHOL    R383936   1.157  26.094  13.613  0.0798  0.2001 -0.0811
56107CHOL    R483937   1.282  25.835  13.558  0.1497  0.1793  0.1721
56107CHOL    R583938   1.385  26.022  13.602  0.1022  0.2766 -0.1219
56107CHOL    C183939   1.532  25.944  13.259 -0.0666 -0.0947 -0.1128
56107CHOL    C283940   1.850  25.696  13.087  0.1854 -0.0974  0.1354
56108CHOL   ROH83941  21.634  24.863  14.565  0.0313  0.2966 -0.0036
56108CHOL    R183942  21.361  24.792  14.538  0.1078  0.0668 -0.1900
56108CHOL    R283943  21.160  24.980  14.517 -0.0829 -0.0969  0.1520
56108CHOL    R383944  21.098  24.842  14.291  0.0992  0.2861 -0.1372
56108CHOL    R483945  20.843  24.958  14.380 -0.1347 -0.5430  0.3332
56108CHOL    R583946  20.882  24.748  14.337  0.3553 -0.3557 -0.1986
56108CHOL    C183947  20.600  24.816  14.088  0.0063 -0.4431  0.1676
56108CHOL    C283948  20.527  24.868  13.720 -0.4188 -0.2336 -0.3276
56109CHOL   ROH83949  18.415   9.342  13.365  0.0459 -0.1523 -0.0053
56109CHOL    R183950  18.595   9.491  13.524 -0.0565 -0.0399  0.0063
56109CHOL    R283951  18.520   9.615  13.759 -0.1411 -0.1134  0.0170
56109CHOL    R383952  18.726   9.473  13.863 -0.0404  0.0220  0.0037
56109CHOL    R483953  18.696   9.702  14.043 -0.3227 -0.1089  0.1288
56109CHOL    R583954  18.879   9.639  13.943 -0.2256  0.1237  0.1534
56109CHOL    C183955  18.993   9.619  14.306 -0.3330  0.0208  0.1818
56109CHOL    C283956  19.270   9.897  14.414  0.3736 -0.2530 -0.0294
56110CHOL   ROH83957  31.067  17.074   4.206 -0.0820  0.1053 -0.0417
56110CHOL    R183958  31.202  17.134   3.965 -0.1181  0.0441 -0.0773
56110CHOL    R283959  31.412  16.982   3.870 -0.0271  0.1131  0.0116
56110CHOL    R383960  31.259  16.969   3.646 -0.0204 -0.1095  0.0197
56110CHOL    R483961  31.510  16.834   3.573 -0.0263 -0.1966  0.1641
56110CHOL    R583962  31.415  16.999   3.466 -0.0143 -0.3021 -0.0074
56110CHOL    C183963  31.423  16.736   3.190 -0.0196 -0.5860  0.2605
56110CHOL    C283964  31.559  16.913   2.970 -0.0455  0.1375  0.1428
56111CHOL   ROH83965   3.120  23.075  13.864  0.1391  0.1532  0.0334
56111CHOL    R183966   3.225  23.330  13.798  0.1426  0.1455  0.0090
56111CHOL    R283967   3.434  23.445  13.937  0.2523  0.0850 -0.1032
56111CHOL    R383968   3.547  23.463  13.690  0.0989  0.1051 -0.1725
56111CHOL    R483969   3.699  23.652  13.855  0.3252 -0.0481 -0.2052
56111CHOL    R583970   3.600  23.695  13.666  0.2251  0.0814 -0.1237
56111CHOL    C183971   3.958  23.789  13.576  0.2235 -0.1062 -0.3295
56111CHOL    C283972   4.247  24.049  13.831  0.0727 -0.0681 -0.0493
56112CHOL   ROH83973  10.133  13.100  17.573 -0.0467  0.2614  0.1224
56112CHOL    R183974  10.094  13.264  17.346 -0.1101  0.0440 -0.0254
56112CHOL    R283975  10.296  13.321  17.167 -0.0883  0.0974  0.0153
56112CHOL    R383976  10.118  13.225  16.985  0.0799 -0.2203  0.0141
56112CHOL    R483977  10.345  13.318  16.825  0.0056 -0.0120  0.0298
56112CHOL    R583978  10.136  13.375  16.799 -0.0615 -0.2892 -0.0557
56112CHOL    C183979  10.207  13.227  16.455  0.2182 -0.3743  0.0371
56112CHOL    C283980  10.535  13.174  16.201 -0.0204  0.2045 -0.0010
56113CHOL   ROH83981  17.993  28.685  13.649  0.0816 -0.1160 -0.0848
56113CHOL    R183982  18.034  28.424  13.751  0.1743 -0.0931 -0.0625
56113CHOL    R283983  18.271  28.347  13.870  0.1684  0.0294  0.0330
56113CHOL    R383984  18.107  28.275  14.075  0.1228 -0.0472 -0.0303
56113CHOL    R483985  18.318  28.071  14.074 -0.0168 -0.1888 -0.2159
56113CHOL    R583986  18.103  28.036  14.067 -0.0399 -0.0376 -0.2468
56113CHOL    C183987  18.192  27.844  14.384 -0.1673 -0.3879 -0.4204
56113CHOL    C283988  18.112  27.482  14.204 -0.1921  0.2267 -0.1105
56114CHOL   ROH83989  26.802  24.455   1.710 -0.0716  0.0268 -0.0081
56114CHOL    R183990  26.762  24.459   1.991 -0.1497 -0.2666 -0.0127
56114CHOL    R283991  26.863  24.264   2.158  0.2470 -0.1721 -0.1329
56114CHOL    R383992  26.972  24.476   2.287 -0.2531 -0.0162  0.0472
56114CHOL    R483993  26.958  24.265   2.490  0.1265 -0.1848 -0.0984
56114CHOL    R583994  26.878  24.467   2.507 -0.3145 -0.3633  0.0086
56114CHOL    C183995  27.116  24.466   2.805 -0.4131 -0.0462  0.0909
56114CHOL    C283996  27.222  24.336   3.146  0.0554  0.1426 -0.0742
56115CHOL   ROH83997  17.237  33.413  11.557  0.1015  0.0891  0.0149
56115CHOL    R183998  17.491  33.477  11.664  0.0591  0.0927  0.1145
56115CHOL    R283999  17.530  33.532  11.932 -0.0133 -0.0944  0.1658
56115CHOL    R384000  17.716  33.335  11.912  0.0536 -0.0190  0.0548
56115CHOL    R484001  17.795  33.488  12.150 -0.0992 -0.2361  0.2427
56115CHOL    R584002  17.921  33.440  11.978 -0.0074 -0.0275  0.2536
56115CHOL    C184003  18.124  33.278  12.257 -0.0862 -0.2489  0.1831
56115CHOL    C284004  18.359  33.457  12.522  0.1325 -0.1942 -0.0452
56116CHOL   ROH84005   3.328  25.715  17.445 -0.0853 -0.0259 -0.3093
56116CHOL    R184006   3.505  25.904  17.332 -0.0114 -0.0002 -0.1513
56116CHOL    R284007   3.677  26.057  17.485  0.0315 -0.1772 -0.0214
56116CHOL    R384008   3.866  25.954  17.318  0.0072 -0.1151 -0.0875
56116CHOL    R484009   3.987  26.199  17.426  0.1166 -0.2808  0.1705
56116CHOL    R584010   3.965  26.146  17.215  0.1259 -0.0662  0.1152
56116CHOL    C184011   4.344  26.185  17.235  0.1433 -0.2823  0.2208
56116CHOL    C284012   4.659  26.153  17.280  0.2141 -0.0941  0.0137
56117CHOL   ROH84013  23.985  32.886  10.248  0.0340 -0.3742  0.0425
56117CHOL    R184014  23.921  32.829   9.979 -0.3378 -0.1251  0.0735
56117CHOL    R284015  23.753  32.989   9.828  0.0499  0.4387  0.2252
56117CHOL    R384016  23.964  32.993   9.656 -0.0482 -0.1879  0.0784
56117CHOL    R484017  23.727  32.981   9.484 -0.2087  0.4059  0.2445
56117CHOL    R584018  23.899  32.846   9.479 -0.5739 -0.0690  0.1647
56117CHOL    C184019  23.910  32.980   9.122 -0.4512 -0.2025  0.1179
56117CHOL    C284020  24.096  32.932   8.894 -0.2936  0.0313  0.1530
56118CHOL   ROH84021  26.406  20.443   4.021 -0.3039 -0.1119  0.2748
56118CHOL    R184022  26.158  20.572   3.980 -0.2106  0.0223  0.1212
56118CHOL    R284023  26.086  20.803   4.114 -0.1496  0.0885  0.0412
56118CHOL    R384024  26.044  20.897   3.863  0.0358  0.0657  0.0013
56118CHOL    R484025  25.852  21.043   4.030 -0.0896  0.0790 -0.1544
56118CHOL    R584026  25.807  20.929   3.850  0.0448  0.0629 -0.1777
56118CHOL    C184027  25.677  21.272   3.745  0.1192  0.0521 -0.3058
56118CHOL    C284028  25.506  21.408   4.076  0.2490  0.0219  0.1744
56119CHOL   ROH84029   2.083  21.079   8.938 -0.0149 -0.0593 -0.0509
56119CHOL    R184030   2.133  21.255   8.721  0.0772 -0.0471 -0.0202
56119CHOL    R284031   2.113  21.529   8.744  0.0922 -0.0473 -0.0063
56119CHOL    R384032   2.367  21.524   8.647  0.1267 -0.0611  0.0833
56119CHOL    R484033   2.263  21.788   8.571  0.1808 -0.0412  0.0787
56119CHOL    R584034   2.352  21.639   8.437  0.2133 -0.0341  0.0922
56119CHOL    C184035   2.589  21.933   8.378  0.2648 -0.0506  0.2125
56119CHOL    C284036   2.665  22.256   8.155  0.1222  0.0057 -0.2316
56120CHOL   ROH84037  10.891  31.233  17.527  0.1429 -0.3562 -0.0798
56120CHOL    R184038  11.055  31.204  17.756  0.1344 -0.0648 -0.0353
56120CHOL    R284039  11.118  31.417  17.921 -0.1190  0.0890 -0.1325
56120CHOL    R384040  11.019  31.254  18.115  0.0186  0.0818 -0.0673
56120CHOL    R484041  11.174  31.456  18.260 -0.2256  0.3246 -0.1411
56120CHOL    R584042  11.195  31.240  18.277  0.0037  0.3544 -0.0252
56120CHOL    C184043  11.113  31.327  18.639 -0.1586  0.4546 -0.0852
56120CHOL    C284044  10.966  31.361  19.053  0.0993 -0.0811  0.2062
56121CHOL   ROH84045  26.598  12.453   5.387  0.1671 -0.0429  0.0288
56121CHOL    R184046  26.537  12.392   5.117  0.0555  0.1256  0.0159
56121CHOL    R284047  26.357  12.195   5.046  0.1574  0.0546 -0.0335
56121CHOL    R384048  26.241  12.396   4.906 -0.0696  0.0807  0.1873
56121CHOL    R484049  26.139  12.151   4.782  0.3714  0.0874 -0.2182
56121CHOL    R584050  26.236  12.317   4.680  0.1816  0.3871  0.0679
56121CHOL    C184051  25.902  12.314   4.496  0.2828  0.1307 -0.1186
56121CHOL    C284052  25.667  12.502   4.322  0.0692  0.2661 -0.1221
56122CHOL   ROH84053  24.350  22.352   2.797  0.2353 -0.0878 -0.4135
56122CHOL    R184054  24.415  22.270   3.060  0.0685 -0.0347 -0.3551
56122CHOL    R284055  24.544  22.032   3.115 -0.0145 -0.0497 -0.2205
56122CHOL    R384056  24.718  22.194   3.246 -0.0529 -0.0547 -0.1634
56122CHOL    R484057  24.851  21.933   3.238 -0.0105 -0.0309 -0.2153
56122CHOL    R584058  24.814  22.054   3.415 -0.0467 -0.0811 -0.1890
56122CHOL    C184059  25.194  22.027   3.433 -0.0441 -0.0244 -0.1586
56122CHOL    C284060  25.540  21.979   3.147 -0.0397 -0.0037 -0.1824
56123CHOL   ROH84061  14.087  16.552  16.440  0.1415  0.0896  0.1987
56123CHOL    R184062  14.023  16.280  16.483  0.1070  0.0551 -0.0626
56123CHOL    R284063  14.179  16.073  16.387  0.2929  0.1280  0.0714
56123CHOL    R384064  14.176  15.994  16.648 -0.1202 -0.0166  0.0257
56123CHOL    R484065  14.224  15.748  16.496  0.3113  0.0997 -0.0237
56123CHOL    R584066  14.067  15.781  16.644  0.0250 -0.0854 -0.2840
56123CHOL    C184067  14.247  15.484  16.803 -0.0662 -0.0532 -0.1218
56123CHOL    C284068  14.286  15.033  16.721  0.0975  0.0816 -0.0654
56124CHOL   ROH84069   9.506   9.366  14.889  0.1209  0.0893 -0.1340
56124CHOL    R184070   9.559   9.554  15.094  0.0196  0.0584 -0.0794
56124CHOL    R284071   9.488   9.820  15.074  0.0393  0.0627 -0.0792
56124CHOL    R384072   9.363   9.772  15.310 -0.0867  0.0344 -0.1507
56124CHOL    R484073   9.425  10.059  15.316  0.0659  0.0010 -0.0113
56124CHOL    R584074   9.478   9.911  15.468 -0.0766 -0.0893 -0.0464
56124CHOL    C184075   9.271  10.152  15.679 -0.0369 -0.0614 -0.0386
56124CHOL    C284076   9.304  10.209  15.991 -0.0153 -0.0171  0.0173
56125CHOL   ROH84077   2.035  19.323   4.052 -0.1590 -0.0562 -0.2021
56125CHOL    R184078   1.799  19.389   4.194 -0.0473  0.0528 -0.0638
56125CHOL    R284079   1.628  19.196   4.296 -0.1688  0.1305 -0.1167
56125CHOL    R384080   1.667  19.331   4.528  0.0423 -0.0495 -0.0461
56125CHOL    R484081   1.442  19.151   4.583 -0.0591  0.0761 -0.0544
56125CHOL    R584082   1.445  19.367   4.614  0.1099  0.0534  0.0861
56125CHOL    C184083   1.370  19.251   4.969  0.2030 -0.1244  0.0482
56125CHOL    C284084   1.283  19.127   5.292  0.0115  0.0890  0.0308
56126CHOL   ROH84085  30.833  17.194   0.706  0.1158 -0.0678 -0.0286
56126CHOL    R184086  30.923  17.240   0.970  0.0113 -0.2283  0.0359
56126CHOL    R284087  30.808  17.429   1.136  0.2766  0.0351 -0.0757
56126CHOL    R384088  30.783  17.218   1.306 -0.2976  0.1015 -0.0675
56126CHOL    R484089  30.844  17.446   1.479  0.2962 -0.0423 -0.0737
56126CHOL    R584090  30.950  17.256   1.473 -0.2033 -0.3321 -0.0564
56126CHOL    C184091  30.841  17.258   1.839 -0.2311 -0.0252 -0.0648
56126CHOL    C284092  30.616  17.299   2.131  0.0055 -0.1140  0.0201
56127CHOL   ROH84093  31.253  27.450   9.205  0.3673 -0.0494  0.2677
56127CHOL    R184094  31.225  27.668   9.027  0.2026 -0.0927  0.2399
56127CHOL    R284095  31.441  27.816   8.938  0.1133 -0.0733  0.0552
56127CHOL    R384096  31.342  27.753   8.693 -0.0499 -0.1425  0.1379
56127CHOL    R484097  31.484  28.006   8.653 -0.0393 -0.1740 -0.0359
56127CHOL    R584098  31.277  27.964   8.599 -0.0799 -0.1644  0.1084
56127CHOL    C184099  31.416  28.058   8.256 -0.2815 -0.2976 -0.0111
56127CHOL    C284100  31.119  28.247   7.942  0.0299  0.1009  0.0574
56128CHOL   ROH84101  15.490  33.795  12.547  0.0318  0.0300  0.0388
56128CHOL    R184102  15.510  33.815  12.829  0.1369 -0.0603  0.0383
56128CHOL    R284103  15.752  33.835  12.960  0.1775  0.1390 -0.0619
56128CHOL    R384104  15.638  34.057  13.069 -0.0052 -0.0195  0.0732
56128CHOL    R484105  15.874  34.005  13.235  0.1566  0.1999 -0.0898
56128CHOL    R584106  15.669  34.030  13.305  0.1722 -0.0515  0.0459
56128CHOL    C184107  15.839  34.312  13.497 -0.0272  0.0863  0.0206
56128CHOL    C284108  15.935  34.541  13.673 -0.2062  0.0976 -0.2506
56129CHOL   ROH84109  10.708   5.179  15.562  0.0318  0.1628  0.0083
56129CHOL    R184110  10.803   5.029  15.782  0.1344  0.0858 -0.0875
56129CHOL    R284111  10.857   5.143  16.028  0.0359 -0.0371 -0.0074
56129CHOL    R384112  10.687   4.951  16.119  0.1756 -0.2269 -0.1442
56129CHOL    R484113  10.811   5.061  16.361 -0.0242 -0.1969 -0.0546
56129CHOL    R584114  10.803   4.851  16.302  0.1935 -0.1842 -0.1328
56129CHOL    C184115  10.626   4.832  16.639  0.0718 -0.4679 -0.2109
56129CHOL    C284116  10.281   4.892  16.792 -0.1415 -0.2904 -0.1053
56130CHOL   ROH84117   4.455  12.271   8.864  0.0085  0.0198 -0.1903
56130CHOL    R184118   4.219  12.374   8.981  0.0857  0.1019 -0.1064
56130CHOL    R284119   4.057  12.223   9.147  0.0340  0.1238 -0.1390
56130CHOL    R384120   4.094  12.431   9.318  0.1771  0.0352 -0.0606
56130CHOL    R484121   3.855  12.294   9.418  0.0153  0.2247 -0.1787
56130CHOL    R584122   3.872  12.506   9.370  0.2291  0.2263 -0.1057
56130CHOL    C184123   3.771  12.530   9.737  0.1388  0.2003 -0.1284
56130CHOL    C284124   3.545  12.680   9.976  0.1151 -0.0086 -0.1266
56131CHOL   ROH84125   9.372  25.231  21.294 -0.0966 -0.2277 -0.1192
56131CHOL    R184126   9.356  25.191  21.014 -0.1183 -0.0343 -0.1465
56131CHOL    R284127   9.413  25.390  20.831  0.1012  0.0239 -0.0162
56131CHOL    R384128   9.584  25.204  20.731 -0.0824 -0.0913 -0.1204
56131CHOL    R484129   9.583  25.420  20.532  0.2236  0.0797  0.0589
56131CHOL    R584130   9.545  25.209  20.495 -0.0095  0.1526 -0.1299
56131CHOL    C184131   9.844  25.264  20.264  0.1226  0.0042  0.0047
56131CHOL    C284132   9.890  25.147  19.903  0.3537  0.2209  0.0315
56132CHOL   ROH84133  35.041  26.284  13.107 -0.0153 -0.1930  0.0882
56132CHOL    R184134  35.310  26.340  13.038 -0.0439 -0.2087 -0.0381
56132CHOL    R284135   0.006  26.379  12.777 -0.2055  0.0072 -0.0565
56132CHOL    R384136   0.105  26.612  12.877 -0.0706 -0.1128  0.0918
56132CHOL    R484137   0.276  26.551  12.646 -0.2005  0.0120 -0.0398
56132CHOL    R584138   0.343  26.592  12.850 -0.0900 -0.1825 -0.0353
56132CHOL    C184139   0.526  26.870  12.664 -0.0710 -0.0979  0.1090
56132CHOL    C284140   0.840  27.140  12.574  0.2325 -0.0025  0.0578
56133CHOL   ROH84141   8.452   2.305  16.131  0.0471 -0.0746  0.0414
56133CHOL    R184142   8.216   2.448  16.193  0.0775  0.0022 -0.0198
56133CHOL    R284143   8.130   2.487  16.453 -0.0341 -0.0620 -0.0482
56133CHOL    R384144   8.131   2.749  16.380  0.1136 -0.0335  0.0542
56133CHOL    R484145   7.948   2.736  16.609 -0.0399 -0.0541 -0.0671
56133CHOL    R584146   7.905   2.820  16.413  0.1186  0.0396 -0.0635
56133CHOL    C184147   7.843   3.127  16.632  0.0952 -0.0228  0.0179
56133CHOL    C284148   7.756   3.420  16.731  0.0055  0.1067 -0.0392
56134CHOL   ROH84149  15.073  22.195  20.999  0.0266  0.1749  0.0802
56134CHOL    R184150  15.172  22.213  20.734 -0.0148  0.1780  0.0647
56134CHOL    R284151  15.078  22.055  20.528  0.1222  0.0093  0.1297
56134CHOL    R384152  15.037  22.294  20.406 -0.1257 -0.0735  0.0473
56134CHOL    R484153  15.010  22.096  20.192  0.1797 -0.1690  0.0961
56134CHOL    R584154  15.141  22.270  20.192 -0.0280 -0.0111  0.0875
56134CHOL    C184155  14.932  22.345  19.881 -0.0198 -0.3495 -0.0014
56134CHOL    C284156  15.068  22.679  19.643  0.1915  0.1380 -0.0605
56135CHOL   ROH84157  27.663  28.929   5.150 -0.1528  0.1422 -0.0060
56135CHOL    R184158  27.604  28.713   5.323 -0.0515  0.0507 -0.0854
56135CHOL    R284159  27.799  28.552   5.433  0.0308  0.1713 -0.0579
56135CHOL    R384160  27.680  28.621   5.667 -0.1073  0.0164 -0.0819
56135CHOL    R484161  27.804  28.361   5.720  0.3464  0.2405 -0.0147
56135CHOL    R584162  27.595  28.414   5.753  0.2468 -0.1154 -0.0419
56135CHOL    C184163  27.695  28.313   6.108  0.4005  0.1359 -0.0121
56135CHOL    C284164  27.702  28.008   6.512  0.1291  0.3077 -0.1286
56136CHOL   ROH84165  15.713  14.713  17.903  0.0069 -0.2965  0.0322
56136CHOL    R184166  15.622  14.759  17.638 -0.0722 -0.0909  0.0942
56136CHOL    R284167  15.712  14.611  17.423 -0.0786  0.1272 -0.0588
56136CHOL    R384168  15.447  14.569  17.382 -0.0754  0.0803 -0.0309
56136CHOL    R484169  15.576  14.471  17.138 -0.0781  0.0337 -0.0134
56136CHOL    R584170  15.413  14.616  17.150 -0.0970  0.0146 -0.0416
56136CHOL    C184171  15.247  14.349  16.934 -0.0749 -0.0648  0.0393
56136CHOL    C284172  15.198  14.240  16.605  0.2669 -0.0455  0.0610
56137CHOL   ROH84173   2.554  20.096   4.887  0.0625 -0.1708  0.0108
56137CHOL    R184174   2.338  19.952   4.999  0.0142 -0.0551  0.0685
56137CHOL    R284175   2.369  19.779   5.213 -0.0127 -0.1067  0.0311
56137CHOL    R384176   2.173  19.932   5.323  0.1212 -0.0013  0.1265
56137CHOL    R484177   2.101  19.656   5.392 -0.1467  0.0132 -0.0853
56137CHOL    R584178   1.974  19.802   5.293 -0.0001  0.2090  0.0117
56137CHOL    C184179   1.760  19.726   5.600 -0.0990  0.1815 -0.0635
56137CHOL    C284180   1.455  19.461   5.695 -0.0107 -0.1022 -0.2318
56138CHOL   ROH84181   9.750  21.296  17.865  0.1788 -0.0009 -0.1471
56138CHOL    R184182   9.544  21.111  17.925  0.0771  0.0978 -0.1894
56138CHOL    R284183   9.580  20.838  17.907 -0.0309  0.0778 -0.1201
56138CHOL    R384184   9.492  20.842  18.164 -0.1291  0.1678 -0.1547
56138CHOL    R484185   9.473  20.560  18.082  0.2362  0.0824  0.0526
56138CHOL    R584186   9.313  20.682  18.167  0.0595 -0.0435 -0.0992
56138CHOL    C184187   9.327  20.402  18.426  0.2999  0.1691  0.1203
56138CHOL    C284188   9.367  20.028  18.346 -0.3062  0.0795  0.1633
56139CHOL   ROH84189  20.610  14.745  15.033  0.1994  0.0432 -0.0404
56139CHOL    R184190  20.409  14.692  14.841  0.1913 -0.0473 -0.0072
56139CHOL    R284191  20.202  14.866  14.790  0.0896 -0.1519  0.0442
56139CHOL    R384192  20.290  14.846  14.534  0.0534 -0.0863  0.0266
56139CHOL    R484193  20.006  14.916  14.509  0.0320 -0.1570  0.0834
56139CHOL    R584194  20.107  14.747  14.415  0.0607 -0.1146  0.0397
56139CHOL    C184195  19.976  14.926  14.105 -0.0356 -0.0986  0.0896
56139CHOL    C284196  19.775  14.964  13.814  0.0650  0.0228 -0.0751
56140CHOL   ROH84197   2.785  17.899   6.456  0.0403  0.2043  0.2350
56140CHOL    R184198   2.547  18.049   6.426 -0.0091  0.0864  0.0260
56140CHOL    R284199   2.369  18.005   6.220  0.0125 -0.2482  0.0763
56140CHOL    R384200   2.190  17.981   6.424  0.0137 -0.0371  0.1043
56140CHOL    R484201   2.025  17.996   6.181  0.0170 -0.4360  0.0730
56140CHOL    R584202   2.007  18.121   6.359 -0.0389 -0.1959 -0.0987
56140CHOL    C184203   1.657  17.968   6.350  0.0207 -0.3473  0.0972
56140CHOL    C284204   1.454  17.993   6.099 -0.0324 -0.0538  0.1758
56141CHOL   ROH84205   8.894  25.774  17.969  0.2675 -0.1289  0.1285
56141CHOL    R184206   8.754  25.806  18.214  0.2185  0.0879  0.0732
56141CHOL    R284207   8.819  25.665  18.442 -0.0444  0.0398  0.1202
56141CHOL    R384208   8.835  25.913  18.552  0.2320  0.0391  0.0854
56141CHOL    R484209   8.821  25.729  18.781 -0.0912  0.0914  0.1108
56141CHOL    R584210   8.692  25.901  18.744  0.1427  0.2535  0.0334
56141CHOL    C184211   8.837  26.000  19.083  0.1412  0.1209  0.0723
56141CHOL    C284212   8.868  26.261  19.526 -0.0885 -0.1895  0.0030
56142CHOL   ROH84213  14.780  10.992  16.439  0.0502 -0.2435  0.1317
56142CHOL    R184214  14.595  10.975  16.653  0.0731 -0.1339  0.1606
56142CHOL    R284215  14.564  11.177  16.838  0.0880 -0.0345  0.0571
56142CHOL    R384216  14.303  11.161  16.765  0.0812 -0.0806  0.0919
56142CHOL    R484217  14.301  11.319  17.012  0.1333  0.3294 -0.1673
56142CHOL    R584218  14.184  11.139  16.972  0.0804  0.2954  0.1331
56142CHOL    C184219  13.902  11.386  17.044  0.1531  0.4981 -0.2645
56142CHOL    C284220  13.589  11.618  16.926  0.4550  0.0621  0.1137
56143CHOL   ROH84221   0.227   7.179   9.481  0.1553  0.1183  0.0876
56143CHOL    R184222   0.053   7.069   9.287  0.0795  0.0782  0.1776
56143CHOL    R284223   0.108   7.076   9.017 -0.0705  0.1068  0.1469
56143CHOL    R384224   0.070   6.807   9.035  0.0154  0.0949  0.1557
56143CHOL    R484225   0.040   6.868   8.750 -0.1507  0.0988  0.1736
56143CHOL    R584226  35.282   6.761   8.876 -0.0546  0.0527  0.2437
56143CHOL    C184227  35.349   6.495   8.611 -0.1163  0.0831  0.1976
56143CHOL    C284228  34.976   6.352   8.696  0.3063 -0.1690 -0.0466
56144CHOL   ROH84229  15.856   2.950  12.388  0.0754  0.0088  0.0579
56144CHOL    R184230  16.112   2.833  12.417  0.0669 -0.0046  0.0825
56144CHOL    R284231  16.220   2.770  12.663  0.0399 -0.0103  0.0930
56144CHOL    R384232  16.249   2.524  12.551  0.0379 -0.0117  0.0959
56144CHOL    R484233  16.415   2.515  12.793  0.0835  0.0096  0.0657
56144CHOL    R584234  16.478   2.467  12.590  0.0496  0.0076  0.0554
56144CHOL    C184235  16.555   2.136  12.763  0.1069  0.0199  0.0526
56144CHOL    C284236  16.762   2.166  13.070 -0.2942 -0.0720  0.1855
56145CHOL   ROH84237  21.021  13.211   8.289 -0.0293 -0.2711 -0.0915
56145CHOL    R184238  21.275  13.191   8.414 -0.0257 -0.1637 -0.0807
56145CHOL    R284239  21.502  13.116   8.276 -0.0154 -0.2103 -0.0392
56145CHOL    R384240  21.601  13.348   8.378 -0.0479 -0.1378 -0.1732
56145CHOL    R484241  21.804  13.258   8.186 -0.0256 -0.2306 -0.1044
56145CHOL    R584242  21.837  13.310   8.396 -0.0452 -0.1001 -0.1336
56145CHOL    C184243  22.072  13.559   8.229 -0.0619 -0.1741 -0.2682
56145CHOL    C284244  22.424  13.466   8.147 -0.1873 -0.1675 -0.2929
56146CHOL   ROH84245   7.066  19.779  12.558 -0.0131  0.0742 -0.0202
56146CHOL    R184246   6.824  19.720  12.693  0.0135  0.1024  0.0406
56146CHOL    R284247   6.600  19.880  12.674 -0.0542 -0.0060 -0.1083
56146CHOL    R384248   6.480  19.648  12.600  0.0413 -0.1282  0.1118
56146CHOL    R484249   6.258  19.828  12.670 -0.0281 -0.1949  0.0585
56146CHOL    R584250   6.293  19.627  12.748  0.1086 -0.1169  0.1972
56146CHOL    C184251   5.947  19.579  12.597  0.0770 -0.4201  0.3624
56146CHOL    C284252   5.645  19.740  12.370 -0.0121 -0.1231 -0.0829
56147CHOL   ROH84253  15.986   3.750  12.960 -0.1370 -0.1580 -0.1875
56147CHOL    R184254  16.010   3.631  13.216 -0.0948  0.1590 -0.0420
56147CHOL    R284255  16.182   3.421  13.267 -0.3468 -0.0138  0.1016
56147CHOL    R384256  16.274   3.585  13.463  0.0464  0.1312 -0.1965
56147CHOL    R484257  16.374   3.320  13.536 -0.2941  0.0779  0.0991
56147CHOL    R584258  16.259   3.454  13.662 -0.0013  0.4319  0.0019
56147CHOL    C184259  16.572   3.415  13.876  0.1055  0.2672 -0.1822
56147CHOL    C284260  16.984   3.328  14.047 -0.0623 -0.3131 -0.1748
56148CHOL   ROH84261  17.916  10.463  13.580 -0.0101 -0.0937 -0.0428
56148CHOL    R184262  18.131  10.418  13.759 -0.0320 -0.1843 -0.0391
56148CHOL    R284263  18.237  10.618  13.917  0.0943 -0.2132 -0.0868
56148CHOL    R384264  18.185  10.443  14.118 -0.0065 -0.1373 -0.0460
56148CHOL    R484265  18.360  10.645  14.238  0.1057 -0.2054 -0.0918
56148CHOL    R584266  18.391  10.430  14.239 -0.0149 -0.2236 -0.0406
56148CHOL    C184267  18.383  10.497  14.615  0.0176 -0.1296 -0.0565
56148CHOL    C284268  18.386  10.402  14.961 -0.1683 -0.2311  0.2092
56149CHOL   ROH84269  13.136  25.325  18.471  0.0188 -0.1564  0.1559
56149CHOL    R184270  13.154  25.234  18.738 -0.0258 -0.0303  0.2024
56149CHOL    R284271  13.297  25.370  18.932 -0.0524  0.0581  0.1612
56149CHOL    R384272  13.061  25.360  19.067 -0.0745  0.1283  0.1278
56149CHOL    R484273  13.256  25.454  19.265 -0.0832  0.1013  0.1467
56149CHOL    R584274  13.121  25.284  19.286 -0.1263  0.1366  0.1442
56149CHOL    C184275  13.010  25.493  19.586 -0.1216  0.1924  0.1068
56149CHOL    C284276  12.836  25.600  19.763  0.1960  0.2213  0.0218
56150CHOL   ROH84277  18.670  26.100  18.697 -0.4154  0.1973 -0.0154
56150CHOL    R184278  18.547  26.097  18.442 -0.3948  0.0313 -0.0237
56150CHOL    R284279  18.682  26.023  18.213 -0.2817  0.2041 -0.0097
56150CHOL    R384280  18.476  25.849  18.186 -0.0531 -0.0694 -0.0256
56150CHOL    R484281  18.575  25.888  17.913  0.0103 -0.0463 -0.0042
56150CHOL    R584282  18.370  25.913  17.981 -0.0530 -0.2790 -0.0956
56150CHOL    C184283  18.319  25.646  17.713  0.3950 -0.4492 -0.0161
56150CHOL    C284284  18.172  25.505  17.335 -0.1192 -0.0484 -0.1555
56151CHOL   ROH84285  17.864  24.995  19.456 -0.2832 -0.2113  0.0103
56151CHOL    R184286  17.762  24.987  19.192 -0.3340 -0.3441  0.0332
56151CHOL    R284287  17.497  24.932  19.137 -0.4680  0.1587  0.1441
56151CHOL    R384288  17.510  25.167  19.001  0.0317 -0.0462 -0.1739
56151CHOL    R484289  17.290  25.019  18.874 -0.3738  0.3014  0.1171
56151CHOL    R584290  17.463  25.106  18.774 -0.2058 -0.2388 -0.0744
56151CHOL    C184291  17.182  25.290  18.593  0.1505  0.1919 -0.1975
56151CHOL    C284292  17.175  25.186  18.132 -0.2822  0.1454 -0.1683
56152CHOL   ROH84293  34.617   1.845  12.784 -0.0974 -0.1342 -0.0188
56152CHOL    R184294  34.712   1.621  12.639  0.0435 -0.1471  0.0914
56152CHOL    R284295  34.670   1.592  12.368 -0.1667 -0.4342  0.1514
56152CHOL    R384296  34.940   1.564  12.362 -0.1348 -0.1081 -0.0648
56152CHOL    R484297  34.847   1.436  12.115 -0.1980 -0.3996  0.1086
56152CHOL    R584298  34.976   1.347  12.266  0.0454 -0.1344  0.0611
56152CHOL    C184299  35.204   1.320  11.962 -0.1862 -0.0732 -0.1195
56152CHOL    C284300   0.023   0.986  11.830 -0.1216  0.0295 -0.3121
56153CHOL   ROH84301  32.966  26.770   5.179 -0.4197 -0.1613 -0.2026
56153CHOL    R184302  33.107  26.526   5.148 -0.2720 -0.0910 -0.0874
56153CHOL    R284303  33.097  26.324   5.336 -0.2276 -0.0473 -0.0387
56153CHOL    R384304  33.022  26.173   5.122 -0.0648 -0.1460 -0.0272
56153CHOL    R484305  33.070  25.979   5.337  0.1080 -0.0753  0.0000
56153CHOL    R584306  33.158  25.977   5.138  0.1266 -0.0130  0.0070
56153CHOL    C184307  32.984  25.637   5.138  0.4565 -0.1840  0.0334
56153CHOL    C284308  32.755  25.302   4.990 -0.0880 -0.3816 -0.2258
56154CHOL   ROH84309  14.598  19.167  20.080 -0.3440  0.0062  0.1047
56154CHOL    R184310  14.660  19.370  19.892 -0.1957 -0.1251  0.0107
56154CHOL    R284311  14.636  19.332  19.620 -0.3253 -0.2000  0.0322
56154CHOL    R384312  14.481  19.554  19.635 -0.0902 -0.0325  0.0034
56154CHOL    R484313  14.480  19.483  19.350 -0.0747 -0.0032 -0.0042
56154CHOL    R584314  14.532  19.677  19.435  0.1077 -0.0671  0.0320
56154CHOL    C184315  14.244  19.780  19.208  0.2922  0.2683 -0.0519
56154CHOL    C284316  13.910  19.916  19.240  0.1979  0.1919  0.0400
56155CHOL   ROH84317  28.537  19.671   0.848  0.0643  0.0398  0.2335
56155CHOL    R184318  28.424  19.888   0.991  0.1759  0.1186  0.2029
56155CHOL    R284319  28.167  19.882   1.091  0.0293  0.4221 -0.1439
56155CHOL    R384320  28.290  19.943   1.325 -0.1938  0.1161  0.0576
56155CHOL    R484321  28.069  20.135   1.305 -0.1570  0.1596  0.0836
56155CHOL    R584322  28.280  20.182   1.337 -0.1837  0.1026  0.3503
56155CHOL    C184323  28.129  20.339   1.650 -0.4754 -0.2807  0.4054
56155CHOL    C284324  27.924  20.311   1.997 -0.0472  0.0742  0.0097
56156CHOL   ROH84325  21.007   0.315   9.259 -0.1924  0.0655 -0.0540
56156CHOL    R184326  21.151   0.387   9.492 -0.0076  0.0052 -0.1494
56156CHOL    R284327  21.053   0.349   9.747  0.0867  0.1720 -0.0872
56156CHOL    R384328  21.287   0.216   9.783 -0.0138 -0.0298 -0.1669
56156CHOL    R484329  21.184   0.260  10.054  0.1509  0.1265 -0.1276
56156CHOL    R584330  21.381   0.315   9.980  0.1671 -0.0672 -0.2335
56156CHOL    C184331  21.480   0.084  10.267  0.0940 -0.0894 -0.2261
56156CHOL    C284332  21.635  35.160  10.443  0.3417 -0.0127 -0.1148
56157CHOL   ROH84333   4.291  19.845   8.131  0.1732 -0.1234  0.0217
56157CHOL    R184334   4.136  19.746   8.347 -0.0403 -0.0204 -0.0827
56157CHOL    R284335   3.950  19.545   8.315  0.0421 -0.0865 -0.1579
56157CHOL    R384336   4.092  19.426   8.515 -0.1469  0.0779  0.0763
56157CHOL    R484337   3.876  19.237   8.455 -0.0246 -0.0216 -0.0498
56157CHOL    R584338   3.925  19.319   8.651 -0.2684  0.1144 -0.0434
56157CHOL    C184339   3.965  18.947   8.723 -0.2407  0.1705  0.2331
56157CHOL    C284340   3.690  18.668   8.900  0.1109  0.2854  0.0065
56158CHOL   ROH84341  13.383   2.846  17.018  0.1004 -0.2571  0.0835
56158CHOL    R184342  13.216   2.900  16.795 -0.1098 -0.0984  0.2758
56158CHOL    R284343  13.258   2.786  16.547 -0.1178  0.3608  0.0537
56158CHOL    R384344  12.999   2.709  16.576 -0.0034 -0.0164  0.0993
56158CHOL    R484345  13.047   2.703  16.287 -0.2024  0.5740  0.0540
56158CHOL    R584346  12.886   2.809  16.389 -0.2629  0.1853  0.3633
56158CHOL    C184347  12.680   2.582  16.161 -0.1441  0.3440  0.0971
56158CHOL    C284348  12.359   2.636  15.950  0.0117  0.2029 -0.1068
56159CHOL   ROH84349  12.020   6.002  15.069 -0.2715  0.1488  0.1120
56159CHOL    R184350  12.207   5.988  15.281 -0.1556  0.1045  0.0079
56159CHOL    R284351  12.145   6.067  15.538 -0.0223  0.0307  0.0637
56159CHOL    R384352  12.231   5.817  15.601  0.0289  0.0195 -0.0511
56159CHOL    R484353  12.197   5.950  15.860 -0.0164 -0.1135  0.0104
56159CHOL    R584354  12.376   5.848  15.789  0.0096 -0.0395 -0.0271
56159CHOL    C184355  12.308   5.647  16.105  0.0350 -0.2080 -0.1283
56159CHOL    C284356  12.429   5.372  16.433 -0.0299  0.1670  0.1154
56160CHOL   ROH84357   7.971  33.511  19.807  0.0302  0.1458 -0.0735
56160CHOL    R184358   8.075  33.449  19.551  0.0604  0.1198 -0.0549
56160CHOL    R284359   8.067  33.627  19.340  0.0774  0.0950 -0.0774
56160CHOL    R384360   8.335  33.580  19.333  0.0795  0.1035 -0.0419
56160CHOL    R484361   8.261  33.634  19.054  0.0839 -0.0809 -0.0776
56160CHOL    R584362   8.369  33.460  19.129  0.0905 -0.0271  0.0374
56160CHOL    C184363   8.626  33.595  18.881  0.0899 -0.1753 -0.0445
56160CHOL    C284364   8.850  33.742  18.588  0.1224  0.1731  0.1523
56161CHOL   ROH84365  32.301  18.227   4.205 -0.0068 -0.2740 -0.0438
56161CHOL    R184366  32.482  18.238   3.987  0.0072 -0.0750 -0.0227
56161CHOL    R284367  32.441  18.096   3.754  0.0967  0.0260 -0.0976
56161CHOL    R384368  32.469  18.341   3.638 -0.0102  0.0982  0.0280
56161CHOL    R484369  32.478  18.152   3.414  0.0885  0.2121 -0.0690
56161CHOL    R584370  32.626  18.305   3.460  0.0168  0.2583  0.0168
56161CHOL    C184371  32.525  18.414   3.109 -0.0166  0.3884  0.0657
56161CHOL    C284372  32.644  18.242   2.695  0.0985  0.0704 -0.3082
56162CHOL   ROH84373   0.177  22.948   8.780 -0.0285 -0.0373 -0.0377
56162CHOL    R184374   0.405  23.115   8.791 -0.0807  0.0305  0.0127
56162CHOL    R284375   0.596  23.119   8.592 -0.0988  0.1730 -0.0002
56162CHOL    R384376   0.544  23.386   8.593 -0.1819  0.1568  0.1132
56162CHOL    R484377   0.830  23.366   8.532 -0.1875  0.2674  0.0397
56162CHOL    R584378   0.739  23.484   8.691 -0.1886  0.1793  0.1065
56162CHOL    C184379   0.918  23.761   8.498 -0.3171  0.3074  0.1693
56162CHOL    C284380   1.292  23.911   8.569 -0.2561  0.2421  0.1359
56163CHOL   ROH84381   0.142  20.540   6.896  0.2686 -0.0076  0.1920
56163CHOL    R184382   0.214  20.520   6.623  0.1508  0.0402  0.1565
56163CHOL    R284383   0.206  20.736   6.451 -0.0836  0.0358  0.1549
56163CHOL    R384384   0.465  20.667   6.404 -0.0572  0.2154  0.0353
56163CHOL    R484385   0.372  20.784   6.151 -0.3595 -0.1854 -0.0355
56163CHOL    R584386   0.466  20.588   6.178 -0.1620 -0.0654  0.1337
56163CHOL    C184387   0.712  20.747   5.933 -0.4954 -0.1459 -0.2586
56163CHOL    C284388   0.759  20.834   5.538 -0.2508  0.0324 -0.3677
56164CHOL   ROH84389  33.758  27.269  10.546  0.0929  0.0842  0.2317
56164CHOL    R184390  33.904  27.436  10.370 -0.1331  0.0854  0.0438
56164CHOL    R284391  33.854  27.707  10.348 -0.0142  0.1277  0.2752
56164CHOL    R384392  34.120  27.727  10.400  0.1012 -0.0597 -0.2096
56164CHOL    R484393  34.050  27.982  10.272 -0.0862  0.2239  0.4359
56164CHOL    R584394  34.209  27.845  10.211 -0.2403  0.2926 -0.1558
56164CHOL    C184395  34.413  28.161  10.277 -0.0192  0.1040  0.0745
56164CHOL    C284396  34.514  28.487  10.414 -0.1471 -0.0521  0.1930
56165CHOL   ROH84397  25.853  15.696   1.268  0.2479 -0.1137 -0.0562
56165CHOL    R184398  25.897  15.687   1.548  0.2733 -0.2781 -0.0654
56165CHOL    R284399  26.144  15.629   1.657  0.3929  0.1059 -0.1264
56165CHOL    R384400  26.104  15.864   1.789 -0.0646 -0.0844  0.0862
56165CHOL    R484401  26.295  15.716   1.956  0.3124  0.1750 -0.1055
56165CHOL    R584402  26.106  15.803   2.021  0.1438 -0.2812  0.0357
56165CHOL    C184403  26.346  15.987   2.253 -0.1641  0.0362  0.1064
56165CHOL    C284404  26.544  16.025   2.489 -0.2178 -0.4866  0.1383
56166CHOL   ROH84405  20.311   4.373  11.738  0.1163  0.1826 -0.0304
56166CHOL    R184406  20.439   4.259  11.963 -0.0498  0.1282  0.0375
56166CHOL    R284407  20.628   4.058  11.941 -0.0622  0.1059  0.1311
56166CHOL    R384408  20.780   4.230  12.086 -0.1356  0.0616  0.2613
56166CHOL    R484409  20.949   3.992  12.051  0.0580  0.2527 -0.1252
56166CHOL    R584410  20.898   4.089  12.240  0.0732 -0.0260  0.0234
56166CHOL    C184411  21.279   4.115  12.252  0.0589  0.2965 -0.1522
56166CHOL    C284412  21.539   4.254  12.460 -0.0375 -0.0544  0.0719
56167CHOL   ROH84413  12.398  20.509  17.314  0.0757  0.1689  0.2744
56167CHOL    R184414  12.368  20.432  17.585  0.0000 -0.0088  0.2163
56167CHOL    R284415  12.277  20.182  17.660  0.0381 -0.0795  0.0275
56167CHOL    R384416  12.507  20.177  17.805 -0.0114 -0.1105  0.1055
56167CHOL    R484417  12.354  19.944  17.898 -0.0099 -0.1768 -0.0528
56167CHOL    R584418  12.438  20.103  18.022 -0.0767 -0.2197  0.0490
56167CHOL    C184419  12.615  19.801  18.174 -0.0842 -0.2624 -0.0269
56167CHOL    C284420  12.414  19.643  18.426 -0.2366 -0.2023 -0.0427
56168CHOL   ROH84421  33.139  11.608   1.774 -0.2312 -0.1651 -0.0797
56168CHOL    R184422  32.953  11.625   1.987 -0.1652 -0.0838 -0.0279
56168CHOL    R284423  33.011  11.537   2.242 -0.1147 -0.0619 -0.0307
56168CHOL    R384424  32.937  11.789   2.311 -0.0261 -0.0313 -0.0475
56168CHOL    R484425  32.840  11.620   2.530 -0.1762  0.0055 -0.0864
56168CHOL    R584426  32.722  11.762   2.414 -0.0729  0.0615 -0.1213
56168CHOL    C184427  32.671  11.906   2.763 -0.1282  0.0734 -0.1346
56168CHOL    C284428  32.631  12.111   3.075 -0.1525 -0.0454 -0.0307
56169CHOL   ROH84429  28.744  17.051   3.546 -0.0114  0.0672  0.1321
56169CHOL    R184430  28.873  16.980   3.303 -0.0584 -0.0154  0.1309
56169CHOL    R284431  28.738  16.866   3.091 -0.1368  0.0836  0.1277
56169CHOL    R384432  28.845  17.074   2.953  0.0080  0.0131  0.1331
56169CHOL    R484433  28.721  16.905   2.748 -0.1661  0.1364  0.1349
56169CHOL    R584434  28.927  16.975   2.751 -0.1078 -0.0315  0.1070
56169CHOL    C184435  28.812  17.122   2.418 -0.0472  0.1008  0.1442
56169CHOL    C284436  28.796  17.019   2.111  0.0358 -0.1556  0.4338
56170CHOL   ROH84437  20.764   5.116  14.994  0.0269 -0.2023 -0.0953
56170CHOL    R184438  20.623   5.326  14.868 -0.0828 -0.2336 -0.0263
56170CHOL    R284439  20.744   5.564  14.797 -0.2227 -0.1208  0.1151
56170CHOL    R384440  20.644   5.506  14.552 -0.1286 -0.0682  0.0635
56170CHOL    R484441  20.781   5.763  14.517  0.0080 -0.1276  0.1391
56170CHOL    R584442  20.574   5.717  14.464  0.0116 -0.0320  0.0353
56170CHOL    C184443  20.708   5.823  14.123  0.2309 -0.0823  0.1047
56170CHOL    C284444  20.633   5.973  13.797 -0.3075  0.0158  0.1189
56171CHOL   ROH84445  11.754  17.250  14.945 -0.1370 -0.1186 -0.1727
56171CHOL    R184446  11.773  16.990  15.056 -0.1128 -0.1528 -0.2555
56171CHOL    R284447  11.756  16.944  15.328  0.1856 -0.2087 -0.2437
56171CHOL    R384448  11.560  16.771  15.253  0.0257 -0.1099 -0.0568
56171CHOL    R484449  11.657  16.667  15.510  0.2705 -0.2003 -0.1846
56171CHOL    R584450  11.641  16.556  15.324  0.0117 -0.1579 -0.1881
56171CHOL    C184451  11.415  16.344  15.547  0.1696 -0.1020  0.0253
56171CHOL    C284452  11.266  16.111  15.716  0.0054  0.2855  0.1696
56172CHOL   ROH84453   2.619  23.877  14.512  0.0026  0.0158  0.1070
56172CHOL    R184454   2.805  24.088  14.542 -0.0791  0.1011  0.0158
56172CHOL    R284455   3.078  24.048  14.531 -0.0638  0.2040  0.0245
56172CHOL    R384456   3.066  24.241  14.340 -0.1448  0.1218 -0.0539
56172CHOL    R484457   3.349  24.230  14.417 -0.1451  0.2937 -0.0257
56172CHOL    R584458   3.221  24.407  14.414 -0.2336  0.2293 -0.1070
56172CHOL    C184459   3.495  24.518  14.172 -0.2683  0.2685 -0.1283
56172CHOL    C284460   3.795  24.742  14.102  0.0749 -0.1872  0.0468
56173CHOL   ROH84461   4.860   9.606  10.043  0.1187 -0.0133 -0.0911
56173CHOL    R184462   4.598   9.505  10.073  0.1274 -0.0118 -0.0110
56173CHOL    R284463   4.479   9.470  10.321  0.1666  0.0820  0.0202
56173CHOL    R384464   4.283   9.623  10.212  0.1430  0.0305 -0.0106
56173CHOL    R484465   4.157   9.492  10.442  0.2748  0.3687  0.2608
56173CHOL    R584466   4.084   9.491  10.237  0.1056  0.1416  0.3181
56173CHOL    C184467   3.784   9.649  10.412  0.3155  0.4872  0.3720
56173CHOL    C284468   3.350   9.675  10.476 -0.1270  0.1432 -0.0291
56174CHOL   ROH84469   2.489   7.376   8.186 -0.0933  0.1909 -0.0379
56174CHOL    R184470   2.349   7.372   8.432  0.1020  0.1538  0.0739
56174CHOL    R284471   2.343   7.588   8.604 -0.0263  0.2416 -0.0384
56174CHOL    R384472   2.074   7.557   8.583 -0.0058 -0.0964  0.1860
56174CHOL    R484473   2.113   7.703   8.834 -0.0143  0.5032 -0.1555
56174CHOL    R584474   2.002   7.517   8.808  0.1691  0.3205  0.3186
56174CHOL    C184475   1.726   7.740   8.949  0.0119  0.3383 -0.0127
56174CHOL    C284476   1.539   8.056   9.026  0.1130  0.0298  0.3157
56175CHOL   ROH84477  23.706  32.736  10.700 -0.0284  0.1015  0.0258
56175CHOL    R184478  23.504  32.858  10.544 -0.1041  0.0469  0.0812
56175CHOL    R284479  23.515  32.871  10.268 -0.1349  0.1367  0.0829
56175CHOL    R384480  23.270  32.754  10.285 -0.0754  0.0078  0.0710
56175CHOL    R484481  23.280  32.868  10.015 -0.0330 -0.1923 -0.0101
56175CHOL    R584482  23.125  32.903  10.165 -0.1131 -0.1675 -0.0998
56175CHOL    C184483  22.913  32.757   9.884  0.0820 -0.5044 -0.0754
56175CHOL    C284484  22.534  32.700   9.730  0.3747 -0.1509  0.0983
56176CHOL   ROH84485  25.698  21.201   6.731 -0.1401  0.1364 -0.0535
56176CHOL    R184486  25.423  21.267   6.743 -0.1438  0.1125 -0.0176
56176CHOL    R284487  25.334  21.515   6.827 -0.1521  0.1303 -0.0799
56176CHOL    R384488  25.202  21.511   6.589 -0.2016  0.0389 -0.0516
56176CHOL    R484489  25.026  21.662   6.769 -0.1459  0.1427 -0.0822
56176CHOL    R584490  24.972  21.489   6.648 -0.1923  0.0944  0.0072
56176CHOL    C184491  24.724  21.745   6.511 -0.1885  0.0637 -0.0568
56176CHOL    C284492  24.316  21.905   6.416  0.0108 -0.0378 -0.0940
56177CHOL   ROH84493  19.250  34.234   9.822 -0.2214  0.2139  0.0395
56177CHOL    R184494  19.446  34.294  10.018 -0.0275 -0.0050 -0.0845
56177CHOL    R284495  19.384  34.323  10.286  0.1707  0.0876 -0.0493
56177CHOL    R384496  19.578  34.135  10.317 -0.0316 -0.1420 -0.1547
56177CHOL    R484497  19.550  34.258  10.582  0.3223 -0.0381 -0.1606
56177CHOL    R584498  19.734  34.236  10.468  0.2102 -0.2918 -0.3002
56177CHOL    C184499  19.829  34.045  10.784  0.2214 -0.3278 -0.3247
56177CHOL    C284500  20.142  34.052  11.056 -0.5079 -0.0879  0.0446
56178CHOL   ROH84501  30.500  21.981   3.770 -0.1982  0.0871  0.1092
56178CHOL    R184502  30.580  22.133   3.545 -0.1600  0.0868  0.1227
56178CHOL    R284503  30.631  22.019   3.299 -0.0082  0.0726  0.1607
56178CHOL    R384504  30.449  22.201   3.212 -0.0424 -0.0106  0.0561
56178CHOL    R484505  30.594  22.119   2.970  0.1783  0.1034  0.1486
56178CHOL    R584506  30.565  22.323   3.042  0.0177  0.0771  0.1592
56178CHOL    C184507  30.402  22.349   2.697  0.2551  0.0431  0.0435
56178CHOL    C284508  30.384  22.185   2.362  0.0025 -0.1575 -0.1863
56179CHOL   ROH84509  12.943   8.682  18.089  0.0063 -0.1132 -0.0952
56179CHOL    R184510  12.841   8.833  17.872  0.1362 -0.1471 -0.1814
56179CHOL    R284511  12.822   8.732  17.616 -0.0848 -0.3290 -0.0967
56179CHOL    R384512  12.562   8.807  17.640  0.0208  0.0395 -0.0652
56179CHOL    R484513  12.599   8.759  17.353 -0.1307 -0.2030 -0.0450
56179CHOL    R584514  12.520   8.940  17.446  0.1410 -0.0324 -0.1404
56179CHOL    C184515  12.225   8.844  17.223 -0.0582  0.2163  0.0144
56179CHOL    C284516  12.188   8.846  16.861  0.0846  0.0153 -0.1414
56180CHOL   ROH84517   6.765  22.056  14.238  0.0567  0.1154 -0.0598
56180CHOL    R184518   6.508  22.120  14.139  0.0381  0.0929 -0.0261
56180CHOL    R284519   6.280  22.102  14.294  0.0415 -0.0645 -0.0381
56180CHOL    R384520   6.247  22.361  14.218 -0.0359 -0.0312  0.1078
56180CHOL    R484521   5.983  22.238  14.181  0.0454 -0.1345 -0.1336
56180CHOL    R584522   6.096  22.349  14.032  0.0843  0.0160  0.0072
56180CHOL    C184523   5.778  22.559  14.044 -0.0250 -0.1441 -0.0525
56180CHOL    C284524   5.635  22.279  13.838 -0.0248 -0.0312  0.2576
56181CHOL   ROH84525  21.356  20.252   7.414 -0.2962  0.0963 -0.1831
56181CHOL    R184526  21.535  20.158   7.611 -0.2039  0.0557 -0.2858
56181CHOL    R284527  21.809  20.150   7.572 -0.2172  0.1192 -0.3926
56181CHOL    R384528  21.813  20.294   7.803 -0.1564  0.0353 -0.3409
56181CHOL    R484529  22.063  20.140   7.806 -0.1846 -0.0103 -0.4328
56181CHOL    R584530  21.912  20.146   7.963 -0.1593 -0.0397 -0.4084
56181CHOL    C184531  22.215  20.269   8.159 -0.1083 -0.1647 -0.4076
56181CHOL    C284532  22.477  20.137   8.436 -0.4197 -0.3520 -0.2200
56182DPPC   NC384533  28.940  28.992   4.556 -0.2127  0.0224  0.1149
56182DPPC   PO484534  28.604  28.678   4.453  0.0123  0.3147 -0.0576
56182DPPC   GL184535  28.651  28.676   4.852  0.0861 -0.3203  0.0216
56182DPPC   GL284536  28.517  29.065   4.950 -0.2447 -0.0756  0.0015
56182DPPC   C1A84537  28.655  28.476   5.174 -0.1164  0.0247  0.0058
56182DPPC   C2A84538  28.789  28.270   5.480 -0.0027  0.2861 -0.1250
56182DPPC   C3A84539  28.742  28.141   5.875  0.0197  0.0269 -0.1424
56182DPPC   C4A84540  28.772  28.071   6.222  0.0850  0.2188 -0.1461
56182DPPC   C1B84541  28.543  29.013   5.347 -0.2257 -0.1290  0.2731
56182DPPC   C2B84542  28.580  28.795   5.730  0.2471  0.1693 -0.1632
56182DPPC   C3B84543  28.753  28.587   6.142 -0.0411  0.0467 -0.0773
56182DPPC   C4B84544  28.693  28.500   6.537  0.2242 -0.1581  0.2600
56183DPPC   NC384545  26.617   4.291   5.261  0.1148  0.0443  0.1560
56183DPPC   PO484546  27.082   4.201   5.341  0.0446 -0.1501 -0.1620
56183DPPC   GL184547  27.401   4.568   5.585 -0.2495  0.2846  0.2039
56183DPPC   GL284548  27.480   4.796   5.574  0.0751 -0.2296 -0.2097
56183DPPC   C1A84549  27.791   4.657   5.907 -0.0361 -0.1568 -0.0168
56183DPPC   C2A84550  27.882   4.835   6.395  0.0271  0.0246  0.1464
56183DPPC   C3A84551  27.866   5.177   6.577 -0.0848  0.1485  0.0560
56183DPPC   C4A84552  27.757   5.526   6.500 -0.1570 -0.0551  0.2031
56183DPPC   C1B84553  27.442   4.949   5.919  0.0135 -0.2006  0.2443
56183DPPC   C2B84554  27.500   5.207   6.156  0.1859 -0.3052 -0.0264
56183DPPC   C3B84555  27.227   5.590   6.363  0.0547 -0.1370 -0.3240
56183DPPC   C4B84556  27.083   5.899   6.523 -0.1167  0.0146  0.1513
56184DPPC   NC384557   2.330  16.808   3.791  0.1725 -0.2049 -0.0015
56184DPPC   PO484558   2.706  16.556   3.758  0.0456  0.0121  0.6526
56184DPPC   GL184559   2.498  16.611   4.187  0.2917  0.0326 -0.1015
56184DPPC   GL284560   2.188  16.486   4.160  0.2649  0.1529 -0.1782
56184DPPC   C1A84561   2.482  16.633   4.631  0.3081 -0.0551  0.2430
56184DPPC   C2A84562   2.537  16.818   5.111 -0.1450  0.0147 -0.2662
56184DPPC   C3A84563   2.532  17.232   5.348  0.3170 -0.2290  0.2288
56184DPPC   C4A84564   2.334  17.322   5.740 -0.0300  0.1348 -0.1600
56184DPPC   C1B84565   2.017  16.758   4.488 -0.1652 -0.0198  0.2137
56184DPPC   C2B84566   1.645  16.786   4.747  0.0298 -0.1857  0.3777
56184DPPC   C3B84567   1.425  16.534   5.014  0.1350 -0.2586  0.3426
56184DPPC   C4B84568   1.417  16.123   5.009  0.0390 -0.0250  0.1803
56185DPPC   NC384569   7.792  21.799  13.279 -0.0125  0.0823 -0.1149
56185DPPC   PO484570   7.650  21.681  12.842 -0.3567  0.1304  0.2446
56185DPPC   GL184571   7.247  21.633  12.841 -0.0660 -0.1754  0.1533
56185DPPC   GL284572   6.989  21.611  12.590  0.1424 -0.1941  0.0134
56185DPPC   C1A84573   6.926  21.888  13.107 -0.3967  0.0514  0.1787
56185DPPC   C2A84574   6.644  22.232  13.052 -0.4125  0.2230  0.4340
56185DPPC   C3A84575   6.231  22.319  13.337  0.2007 -0.0275  0.1994
56185DPPC   C4A84576   6.021  22.588  13.574  0.0783 -0.3318  0.0185
56185DPPC   C1B84577   6.631  21.785  12.691 -0.1688  0.1912 -0.1476
56185DPPC   C2B84578   6.254  21.900  12.912 -0.0027 -0.3770 -0.1458
56185DPPC   C3B84579   5.825  21.954  12.879  0.0281  0.2734 -0.1169
56185DPPC   C4B84580   5.359  22.205  12.999  0.1474 -0.2442 -0.4236
56186DPPC   NC384581  18.796  31.165   9.546 -0.0897 -0.1406 -0.0767
56186DPPC   PO484582  19.218  31.149   9.235  0.0083  0.1827  0.1157
56186DPPC   GL184583  19.291  31.140   9.603 -0.0324 -0.2864  0.1610
56186DPPC   GL284584  19.377  31.449   9.652  0.0460 -0.0259 -0.3450
56186DPPC   C1A84585  19.483  31.109  10.077  0.1279  0.1569 -0.0577
56186DPPC   C2A84586  19.210  31.216  10.374  0.1505 -0.1728 -0.2943
56186DPPC   C3A84587  19.152  31.369  10.944  0.0309 -0.0267 -0.0945
56186DPPC   C4A84588  19.225  31.311  11.360  0.1385 -0.2679  0.1219
56186DPPC   C1B84589  19.776  31.695   9.762  0.1492 -0.2949 -0.0521
56186DPPC   C2B84590  20.000  31.789  10.174 -0.0902  0.1794  0.1763
56186DPPC   C3B84591  20.050  31.532  10.490 -0.0436 -0.1302  0.1469
56186DPPC   C4B84592  20.138  31.125  10.783 -0.0848  0.1593  0.0138
56187DPPC   NC384593  32.467  33.281   7.264  0.0311  0.3254 -0.0189
56187DPPC   PO484594  32.717  32.945   7.420 -0.1292 -0.0145 -0.1604
56187DPPC   GL184595  32.524  33.076   7.763 -0.0545  0.0943  0.2651
56187DPPC   GL284596  32.607  33.309   8.000  0.1055 -0.2335  0.0220
56187DPPC   C1A84597  32.105  33.248   8.020 -0.2388 -0.5751  0.4941
56187DPPC   C2A84598  31.944  33.392   8.475  0.0728  0.2737 -0.0166
56187DPPC   C3A84599  31.702  33.295   8.811  0.1573 -0.0612  0.0868
56187DPPC   C4A84600  31.364  33.076   8.962 -0.1838 -0.0443 -0.1760
56187DPPC   C1B84601  32.526  33.562   8.323 -0.0800 -0.0579  0.0984
56187DPPC   C2B84602  32.320  33.659   8.718  0.2017  0.0109  0.2797
56187DPPC   C3B84603  31.992  33.753   8.951  0.0051  0.1327 -0.1971
56187DPPC   C4B84604  31.733  34.121   8.853  0.1502  0.1168  0.1766
56188DPPC   NC384605   3.203   0.699  11.103  0.2414  0.0150  0.0163
56188DPPC   PO484606   3.324   1.057  11.273 -0.0635 -0.0560 -0.0141
56188DPPC   GL184607   3.159   1.461  11.318 -0.2476  0.1114  0.2704
56188DPPC   GL284608   3.121   1.519  10.999  0.0519 -0.2649 -0.2302
56188DPPC   C1A84609   2.990   1.811  11.497  0.2484 -0.2415  0.0335
56188DPPC   C2A84610   2.700   1.970  11.773  0.1855  0.1177  0.0892
56188DPPC   C3A84611   2.381   2.109  11.899 -0.1357 -0.1508 -0.0833
56188DPPC   C4A84612   2.039   2.257  11.923  0.2118 -0.2325  0.1307
56188DPPC   C1B84613   2.883   1.769  10.934  0.2018 -0.1818 -0.1154
56188DPPC   C2B84614   2.448   1.727  10.775  0.0852  0.3571  0.4298
56188DPPC   C3B84615   2.080   1.918  10.847  0.1029 -0.2634 -0.1302
56188DPPC   C4B84616   1.653   1.948  10.855  0.1887  0.1712 -0.0377
56189DPPC   NC384617  11.663  28.769  17.307  0.3427  0.2464 -0.1872
56189DPPC   PO484618  11.563  28.288  17.310 -0.0045  0.0378  0.0205
56189DPPC   GL184619  11.421  28.248  17.710 -0.2715  0.0407  0.2584
56189DPPC   GL284620  11.397  27.955  17.881  0.0373 -0.0231 -0.1504
56189DPPC   C1A84621  11.461  28.450  18.114 -0.1686 -0.1270 -0.1460
56189DPPC   C2A84622  11.647  28.562  18.474 -0.1251 -0.3324 -0.0454
56189DPPC   C3A84623  11.802  28.671  18.880 -0.3390 -0.0987  0.0808
56189DPPC   C4A84624  11.736  28.989  19.167 -0.0774 -0.0098 -0.0322
56189DPPC   C1B84625  11.130  28.060  18.222  0.0360  0.0485  0.0111
56189DPPC   C2B84626  11.009  27.892  18.659 -0.2581 -0.3092 -0.0347
56189DPPC   C3B84627  10.979  28.014  19.029  0.0997 -0.0184 -0.3586
56189DPPC   C4B84628  11.080  28.203  19.313 -0.0251 -0.1901  0.2024
56190DPPC   NC384629  27.516  31.407   5.698 -0.2153  0.1094 -0.0139
56190DPPC   PO484630  27.071  31.575   5.771  0.1874 -0.5259  0.0168
56190DPPC   GL184631  27.028  31.762   6.079 -0.2062 -0.0280  0.2876
56190DPPC   GL284632  26.799  31.737   6.298 -0.1349  0.0021 -0.2723
56190DPPC   C1A84633  27.175  31.756   6.560 -0.1841 -0.0577  0.0080
56190DPPC   C2A84634  27.144  31.895   7.035  0.0803  0.1320 -0.2115
56190DPPC   C3A84635  26.887  32.018   7.330  0.0874  0.3327  0.1496
56190DPPC   C4A84636  26.542  32.124   7.578  0.1350  0.1649  0.3227
56190DPPC   C1B84637  26.805  31.506   6.740  0.4009  0.0763 -0.1798
56190DPPC   C2B84638  26.917  31.477   7.157  0.2981  0.2605 -0.1882
56190DPPC   C3B84639  27.016  31.609   7.552 -0.1354 -0.1042 -0.4571
56190DPPC   C4B84640  27.038  31.957   7.791  0.2955  0.0602  0.0579
56191DPPC   NC384641   7.184   5.773  13.136 -0.0364  0.0296 -0.1925
56191DPPC   PO484642   7.306   5.733  13.587 -0.0760 -0.0164  0.2485
56191DPPC   GL184643   7.163   5.666  13.985 -0.2959 -0.0306  0.0883
56191DPPC   GL284644   7.262   5.780  14.166  0.2183  0.0592  0.3351
56191DPPC   C1A84645   6.796   5.492  14.225  0.0829  0.1328 -0.1280
56191DPPC   C2A84646   6.487   5.535  14.604 -0.1011 -0.2691  0.0001
56191DPPC   C3A84647   6.353   5.572  14.957 -0.1440 -0.1395 -0.3615
56191DPPC   C4A84648   5.956   5.660  15.093 -0.0145  0.1387 -0.3673
56191DPPC   C1B84649   7.007   5.733  14.626  0.0518  0.1488  0.2195
56191DPPC   C2B84650   6.836   5.726  14.988 -0.1078  0.2231 -0.0750
56191DPPC   C3B84651   6.853   5.708  15.333 -0.1891  0.1440  0.1835
56191DPPC   C4B84652   6.599   5.560  15.703 -0.1784  0.1255 -0.0865
56192DPPC   NC384653   5.269  27.951  14.855 -0.1206  0.3663 -0.3304
56192DPPC   PO484654   5.451  27.791  15.156 -0.0073  0.1782  0.3255
56192DPPC   GL184655   5.030  27.672  15.254 -0.0740  0.0250  0.1098
56192DPPC   GL284656   5.128  27.372  15.527  0.1913 -0.0225 -0.0905
56192DPPC   C1A84657   4.658  27.644  15.525 -0.0018  0.2281 -0.1959
56192DPPC   C2A84658   4.465  27.532  15.769 -0.0354  0.1177 -0.1764
56192DPPC   C3A84659   4.107  27.323  15.932 -0.0101  0.3406 -0.0789
56192DPPC   C4A84660   3.974  26.863  15.997 -0.0931  0.3428  0.1797
56192DPPC   C1B84661   4.796  27.081  15.607 -0.0263 -0.2835 -0.0067
56192DPPC   C2B84662   4.428  27.041  15.637  0.1040 -0.2501  0.3319
56192DPPC   C3B84663   3.967  26.987  15.514 -0.0168 -0.1315  0.1464
56192DPPC   C4B84664   3.818  26.589  15.655 -0.0944  0.1781  0.0089
56193DPPC   NC384665  16.936  11.281  13.954  0.0104  0.0163  0.1236
56193DPPC   PO484666  16.615  11.504  14.040  0.0430 -0.0278 -0.0175
56193DPPC   GL184667  16.810  11.712  14.382 -0.1222  0.1479 -0.0388
56193DPPC   GL284668  17.035  12.081  14.290 -0.1625  0.0435  0.1676
56193DPPC   C1A84669  17.099  11.751  14.634 -0.0293 -0.1550 -0.1173
56193DPPC   C2A84670  17.306  11.731  15.091  0.1193  0.1028 -0.0566
56193DPPC   C3A84671  17.159  11.775  15.507 -0.0845  0.0353 -0.1316
56193DPPC   C4A84672  17.090  11.672  15.940  0.1649  0.0390  0.0717
56193DPPC   C1B84673  16.803  12.168  14.584  0.0573  0.0096  0.0353
56193DPPC   C2B84674  16.924  12.056  14.976  0.0377  0.0177  0.0806
56193DPPC   C3B84675  17.145  12.224  15.293  0.1353  0.2749  0.0348
56193DPPC   C4B84676  17.172  12.214  15.781  0.0803 -0.2979  0.0225
56194DPPC   NC384677   3.141  25.607   8.195 -0.3640 -0.0958 -0.2940
56194DPPC   PO484678   2.784  25.950   8.209  0.1294 -0.2364 -0.0229
56194DPPC   GL184679   2.642  25.540   8.105 -0.0011  0.0480 -0.1112
56194DPPC   GL284680   2.332  25.503   7.962  0.0356 -0.1266 -0.0029
56194DPPC   C1A84681   2.434  25.183   8.399 -0.2085  0.3553 -0.2349
56194DPPC   C2A84682   2.427  24.867   8.759  0.0232  0.0309 -0.1545
56194DPPC   C3A84683   2.064  24.774   8.963  0.1127 -0.0607  0.1592
56194DPPC   C4A84684   1.667  24.553   8.766 -0.1200 -0.0510 -0.0264
56194DPPC   C1B84685   2.030  25.198   7.887 -0.3312 -0.0664  0.1507
56194DPPC   C2B84686   1.745  25.067   7.897  0.3220 -0.0778 -0.1858
56194DPPC   C3B84687   1.469  24.809   7.979  0.2745 -0.2711  0.2666
56194DPPC   C4B84688   1.127  24.509   7.873  0.0098 -0.1129  0.0295
56195DPPC   NC384689  12.845  26.548  17.408  0.1211 -0.1109 -0.0051
56195DPPC   PO484690  12.992  26.366  17.836  0.1755  0.0361  0.1941
56195DPPC   GL184691  13.026  25.915  18.051  0.1010 -0.0575  0.1223
56195DPPC   GL284692  12.768  25.840  18.326 -0.1515  0.2565  0.2863
56195DPPC   C1A84693  13.341  25.828  18.392  0.1061  0.1166 -0.0189
56195DPPC   C2A84694  13.398  25.900  18.935  0.0958  0.0371  0.1713
56195DPPC   C3A84695  13.444  25.917  19.401 -0.4397  0.1112  0.0688
56195DPPC   C4A84696  13.791  26.074  19.710 -0.2556 -0.1815 -0.1723
56195DPPC   C1B84697  12.945  25.741  18.743 -0.0135 -0.4236  0.0335
56195DPPC   C2B84698  12.957  25.819  19.218  0.2781  0.0629 -0.2500
56195DPPC   C3B84699  12.794  26.079  19.612  0.0031 -0.3368  0.2499
56195DPPC   C4B84700  12.631  26.102  20.006  0.1292 -0.2611 -0.2326
56196DPPC   NC384701  18.674  24.270  11.444 -0.2231  0.0756 -0.0175
56196DPPC   PO484702  18.861  24.523  11.675 -0.0140 -0.0939  0.1472
56196DPPC   GL184703  19.258  24.562  11.896 -0.0757 -0.0789  0.1180
56196DPPC   GL284704  19.241  24.616  12.297  0.2628  0.2327 -0.1863
56196DPPC   C1A84705  19.705  24.782  11.910  0.2498 -0.0232  0.1278
56196DPPC   C2A84706  20.017  24.995  12.096 -0.0644 -0.1342  0.0954
56196DPPC   C3A84707  20.297  25.284  12.160  0.0043 -0.0078  0.1070
56196DPPC   C4A84708  20.461  25.489  12.430  0.0524 -0.0545 -0.2219
56196DPPC   C1B84709  19.605  24.510  12.317 -0.1040 -0.0199 -0.0715
56196DPPC   C2B84710  19.940  24.658  12.433 -0.0005 -0.0272 -0.2323
56196DPPC   C3B84711  20.283  24.696  12.743  0.3823  0.2216  0.4079
56196DPPC   C4B84712  20.355  24.650  13.182 -0.1678 -0.2999 -0.0497
56197DPPC   NC384713  25.549  33.831   6.004 -0.0810 -0.0518 -0.0300
56197DPPC   PO484714  25.514  33.521   6.307 -0.0606 -0.2165 -0.4655
56197DPPC   GL184715  25.632  33.446   6.736  0.0906 -0.1181 -0.3122
56197DPPC   GL284716  25.908  33.524   6.750 -0.0878 -0.1468  0.1603
56197DPPC   C1A84717  25.360  33.463   7.047  0.2356 -0.1337  0.0567
56197DPPC   C2A84718  25.194  33.512   7.443  0.0121  0.0967  0.1039
56197DPPC   C3A84719  25.361  33.504   7.874 -0.3170 -0.0458 -0.1497
56197DPPC   C4A84720  25.629  33.517   8.221  0.0172  0.2132  0.2158
56197DPPC   C1B84721  25.855  33.449   7.176 -0.1282  0.0888  0.0127
56197DPPC   C2B84722  25.867  33.498   7.552 -0.1898 -0.2066  0.0183
56197DPPC   C3B84723  25.717  33.172   7.828  0.1293  0.2040 -0.0796
56197DPPC   C4B84724  25.678  32.943   8.131  0.0059 -0.1293 -0.1489
56198DPPC   NC384725  18.442   8.660  12.667  0.0865 -0.0924 -0.0387
56198DPPC   PO484726  18.307   8.557  13.075 -0.0264  0.3027 -0.1800
56198DPPC   GL184727  18.516   8.211  13.281  0.1698  0.0197  0.2645
56198DPPC   GL284728  18.390   7.859  13.387 -0.0842 -0.1946  0.4479
56198DPPC   C1A84729  18.812   8.174  13.608 -0.0650  0.3124 -0.2795
56198DPPC   C2A84730  18.909   8.174  13.963 -0.2751 -0.0783  0.0003
56198DPPC   C3A84731  19.201   8.275  14.311  0.0539 -0.0890 -0.0376
56198DPPC   C4A84732  19.513   8.298  14.607 -0.1394 -0.2356 -0.1495
56198DPPC   C1B84733  18.802   7.702  13.592 -0.1117  0.2983 -0.3646
56198DPPC   C2B84734  19.037   7.632  13.984  0.1281  0.0924 -0.0668
56198DPPC   C3B84735  19.088   7.483  14.442  0.2565  0.0267 -0.1352
56198DPPC   C4B84736  18.967   7.412  14.903  0.3468  0.0362 -0.0166
56199DPPC   NC384737   2.488  29.336  11.279 -0.1442 -0.4333 -0.1270
56199DPPC   PO484738   2.265  29.600  10.980 -0.1545 -0.1464  0.1538
56199DPPC   GL184739   1.988  29.489  11.373  0.0958  0.0887  0.0597
56199DPPC   GL284740   1.750  29.679  11.301 -0.3989 -0.0369  0.2328
56199DPPC   C1A84741   1.712  29.318  11.653  0.0710  0.1208 -0.0592
56199DPPC   C2A84742   1.357  29.455  11.888 -0.0388  0.2405 -0.2747
56199DPPC   C3A84743   1.006  29.368  12.171 -0.3217  0.0158  0.1220
56199DPPC   C4A84744   0.632  29.114  12.201  0.0511 -0.1260 -0.1042
56199DPPC   C1B84745   1.293  29.560  11.359  0.0779  0.1932  0.0232
56199DPPC   C2B84746   0.942  29.637  11.655 -0.2415 -0.1239  0.2086
56199DPPC   C3B84747   0.556  29.589  11.943 -0.0834 -0.1225  0.0442
56199DPPC   C4B84748   0.337  29.286  11.715  0.1755 -0.1036  0.0347
56200DPPC   NC384749   6.498  19.830   8.899 -0.1161 -0.0581 -0.0321
56200DPPC   PO484750   6.055  19.825   8.591 -0.1558 -0.0945 -0.4267
56200DPPC   GL184751   5.858  19.874   8.880  0.0033  0.0016 -0.2037
56200DPPC   GL284752   5.864  20.234   8.901 -0.1339 -0.1389 -0.2139
56200DPPC   C1A84753   5.383  19.913   9.178  0.2399  0.3313  0.0287
56200DPPC   C2A84754   5.162  19.944   9.400  0.6109 -0.0102 -0.4082
56200DPPC   C3A84755   4.945  19.883   9.693  0.4080 -0.2064 -0.1817
56200DPPC   C4A84756   4.549  19.697   9.930 -0.0953 -0.2260 -0.2500
56200DPPC   C1B84757   5.397  20.350   9.085 -0.3116  0.1589 -0.2648
56200DPPC   C2B84758   5.115  20.519   9.273 -0.1633  0.1673  0.0600
56200DPPC   C3B84759   5.026  20.565   9.707 -0.0795 -0.1549  0.0744
56200DPPC   C4B84760   5.004  20.273  10.065 -0.2074 -0.0235  0.3497
56201DPPC   NC384761  20.190  12.510   9.425 -0.3937 -0.1353  0.1231
56201DPPC   PO484762  20.485  12.683   9.225 -0.0736  0.1666 -0.1153
56201DPPC   GL184763  20.944  12.629   9.483  0.1663 -0.3256  0.2290
56201DPPC   GL284764  21.114  12.889   9.278 -0.1600  0.1259 -0.0350
56201DPPC   C1A84765  21.336  12.695   9.690  0.2131  0.1609 -0.4221
56201DPPC   C2A84766  21.691  12.837   9.791 -0.1941 -0.0191 -0.1780
56201DPPC   C3A84767  22.170  12.864   9.773  0.1114  0.4039 -0.0594
56201DPPC   C4A84768  22.489  12.960   9.778 -0.1865  0.0563  0.3718
56201DPPC   C1B84769  21.488  13.073   9.340  0.0953  0.1158  0.0590
56201DPPC   C2B84770  21.894  13.254   9.556 -0.0550  0.2347 -0.0312
56201DPPC   C3B84771  22.333  13.503   9.676  0.1271  0.2027  0.1812
56201DPPC   C4B84772  22.779  13.398   9.992  0.1479  0.0341  0.0265
56202DPPC   NC384773  15.479  34.756  11.873  0.1394  0.0026 -0.1752
56202DPPC   PO484774  15.082  34.480  12.135 -0.1574 -0.0714 -0.0369
56202DPPC   GL184775  15.573  34.431  12.341  0.1746  0.0183  0.1227
56202DPPC   GL284776  15.754  34.818  12.287 -0.0923  0.0769  0.0482
56202DPPC   C1A84777  15.855  34.354  12.700  0.0325  0.1198  0.1333
56202DPPC   C2A84778  15.895  34.438  13.022 -0.5217  0.0060 -0.2485
56202DPPC   C3A84779  15.674  34.727  13.244  0.1412  0.2370 -0.2199
56202DPPC   C4A84780  15.852  35.016  13.577  0.0990  0.0109  0.0822
56202DPPC   C1B84781  15.972  34.923  12.675  0.0747 -0.2003 -0.1834
56202DPPC   C2B84782  16.215  34.858  12.964  0.1851  0.1242  0.1099
56202DPPC   C3B84783  16.302  34.597  13.350 -0.2013 -0.0592 -0.2318
56202DPPC   C4B84784  16.572  34.381  13.538 -0.0654 -0.3224 -0.2865
56203DPPC   NC384785  21.649   9.478   7.754  0.0076  0.0888 -0.0265
56203DPPC   PO484786  21.630   9.062   7.441  0.1254 -0.0026 -0.1538
56203DPPC   GL184787  21.995   9.106   7.390  0.3913 -0.1320 -0.0107
56203DPPC   GL284788  22.027   9.256   7.151  0.1879  0.0701  0.2859
56203DPPC   C1A84789  22.339   8.931   7.539 -0.1491 -0.0791  0.2039
56203DPPC   C2A84790  22.488   8.990   7.993  0.1135 -0.3922  0.4345
56203DPPC   C3A84791  22.884   9.014   8.115 -0.2677  0.1213 -0.1236
56203DPPC   C4A84792  23.240   9.081   8.243  0.0480 -0.1006  0.1448
56203DPPC   C1B84793  22.434   9.305   7.222  0.1094 -0.0132  0.1359
56203DPPC   C2B84794  22.865   9.193   7.527  0.0121  0.2436  0.1757
56203DPPC   C3B84795  23.165   8.988   7.681  0.1496 -0.3936  0.2177
56203DPPC   C4B84796  23.544   9.055   7.783  0.1029  0.0154 -0.0320
56204DPPC   NC384797  16.792  22.056  15.181 -0.0863 -0.1196  0.1262
56204DPPC   PO484798  16.984  22.562  15.229 -0.3449 -0.1876 -0.1959
56204DPPC   GL184799  17.211  22.630  15.550  0.0565 -0.3287 -0.0685
56204DPPC   GL284800  17.312  22.844  15.622 -0.2908  0.0534 -0.1068
56204DPPC   C1A84801  17.426  22.196  15.720  0.1169 -0.0844 -0.1686
56204DPPC   C2A84802  17.823  22.130  15.982 -0.0258  0.1636 -0.0324
56204DPPC   C3A84803  18.186  21.919  16.092  0.3435  0.0473 -0.1841
56204DPPC   C4A84804  18.568  21.659  16.273  0.0703  0.3850 -0.0527
56204DPPC   C1B84805  17.496  22.985  15.882 -0.1388 -0.1827  0.1669
56204DPPC   C2B84806  17.802  22.978  16.148 -0.0881 -0.0161  0.2987
56204DPPC   C3B84807  18.140  22.854  16.416 -0.0825  0.1108  0.2532
56204DPPC   C4B84808  18.444  22.733  16.260  0.0119  0.1669  0.2899
56205DPPC   NC384809  11.930  17.508  14.563  0.0019  0.1596 -0.0837
56205DPPC   PO484810  12.256  17.220  14.416  0.0258  0.1412  0.1458
56205DPPC   GL184811  11.923  16.987  14.543 -0.1522 -0.1790 -0.0589
56205DPPC   GL284812  11.818  16.708  14.317 -0.0177 -0.4315 -0.2712
56205DPPC   C1A84813  11.483  17.005  14.586 -0.0198  0.1317  0.1062
56205DPPC   C2A84814  11.107  16.843  14.776 -0.1969  0.2332  0.1216
56205DPPC   C3A84815  11.066  16.517  15.182 -0.0016 -0.1111 -0.0804
56205DPPC   C4A84816  10.892  16.178  15.386  0.1385 -0.0452  0.0246
56205DPPC   C1B84817  11.801  16.538  14.838  0.1299  0.0471 -0.0006
56205DPPC   C2B84818  11.446  16.258  14.972 -0.2379  0.2110  0.0598
56205DPPC   C3B84819  11.388  15.981  15.216  0.0569 -0.0584  0.1914
56205DPPC   C4B84820  11.698  15.910  15.516 -0.0562  0.2064  0.0043
56206DPPC   NC384821  34.919  30.416   8.503 -0.4163 -0.2031  0.1176
56206DPPC   PO484822  34.647  30.779   8.562 -0.0851  0.0279  0.2189
56206DPPC   GL184823  34.606  30.743   9.045  0.2842 -0.0230  0.1642
56206DPPC   GL284824  34.868  30.637   9.209 -0.2406  0.5597 -0.1145
56206DPPC   C1A84825  34.429  30.668   9.417  0.0481 -0.1158  0.1274
56206DPPC   C2A84826  34.217  30.658   9.825 -0.1133 -0.1526 -0.2828
56206DPPC   C3A84827  34.100  30.957  10.073 -0.2651 -0.0203  0.0873
56206DPPC   C4A84828  34.255  31.122  10.466 -0.0882  0.0076 -0.0468
56206DPPC   C1B84829  34.804  30.406   9.577 -0.1744  0.4042  0.0341
56206DPPC   C2B84830  34.523  30.325   9.921  0.2452  0.4250 -0.1637
56206DPPC   C3B84831  34.225  30.210  10.310  0.3606 -0.3524  0.0901
56206DPPC   C4B84832  34.248  30.166  10.748 -0.0460  0.1753 -0.2064
56207DPPC   NC384833  14.878  25.046  17.503 -0.0395 -0.1780  0.0218
56207DPPC   PO484834  14.864  25.502  17.443  0.0264  0.3071 -0.0783
56207DPPC   GL184835  14.991  25.446  17.864  0.0987  0.3854  0.0370
56207DPPC   GL284836  14.777  25.417  18.032  0.0142  0.0141  0.3080
56207DPPC   C1A84837  15.215  25.454  18.253 -0.2975 -0.2245 -0.2046
56207DPPC   C2A84838  15.277  25.544  18.668 -0.1987  0.1766  0.0273
56207DPPC   C3A84839  15.454  25.344  19.055 -0.0705  0.1332 -0.2112
56207DPPC   C4A84840  15.367  25.234  19.492 -0.0115 -0.2794  0.3088
56207DPPC   C1B84841  14.742  25.521  18.482 -0.2330  0.5431  0.2043
56207DPPC   C2B84842  14.868  25.395  18.937 -0.1459 -0.2561  0.1338
56207DPPC   C3B84843  14.926  25.564  19.306 -0.2883 -0.2912  0.3126
56207DPPC   C4B84844  15.186  25.784  19.550  0.1233  0.1926 -0.1138
56208DPPC   NC384845  12.975  30.156  16.087 -0.2656 -0.1460  0.0125
56208DPPC   PO484846  13.019  30.068  16.484 -0.3344  0.1291 -0.0029
56208DPPC   GL184847  13.371  30.350  16.661 -0.3825  0.1108  0.1868
56208DPPC   GL284848  13.610  30.372  16.460 -0.1835 -0.1137 -0.0327
56208DPPC   C1A84849  13.621  30.416  17.051  0.0796 -0.0522 -0.0251
56208DPPC   C2A84850  13.463  30.489  17.447 -0.1222  0.1457 -0.0614
56208DPPC   C3A84851  13.473  30.879  17.689  0.0007 -0.0859  0.0114
56208DPPC   C4A84852  13.459  31.024  18.137  0.3083 -0.1241 -0.1069
56208DPPC   C1B84853  14.068  30.264  16.660  0.1565 -0.1268  0.1494
56208DPPC   C2B84854  14.293  30.146  16.979 -0.0560 -0.0255  0.0731
56208DPPC   C3B84855  14.561  30.090  17.294 -0.0187 -0.2024  0.1669
56208DPPC   C4B84856  14.818  30.256  17.685  0.2578 -0.4019 -0.0538
56209DPPC   NC384857   2.625  31.823  11.693  0.0288 -0.1683 -0.1131
56209DPPC   PO484858   2.463  32.120  11.917 -0.2575  0.2088  0.0485
56209DPPC   GL184859   2.016  32.055  12.172 -0.1312  0.1211  0.1897
56209DPPC   GL284860   1.649  31.813  12.132 -0.0901 -0.1685  0.1820
56209DPPC   C1A84861   1.703  32.204  12.512  0.2125 -0.1150  0.0663
56209DPPC   C2A84862   1.427  32.303  12.781  0.1333 -0.0117  0.1249
56209DPPC   C3A84863   0.941  32.242  12.740 -0.0867  0.0792 -0.1321
56209DPPC   C4A84864   0.431  32.267  12.637  0.0169  0.1277 -0.0393
56209DPPC   C1B84865   1.492  31.388  12.010  0.0091 -0.0210 -0.1188
56209DPPC   C2B84866   1.263  31.147  12.268 -0.1237  0.1998  0.0971
56209DPPC   C3B84867   0.847  31.264  12.471 -0.1564  0.1653  0.2463
56209DPPC   C4B84868   0.411  31.392  12.720 -0.0732  0.3710 -0.1217
56210DPPC   NC384869  17.501  10.305  13.293 -0.2987 -0.1020  0.0265
56210DPPC   PO484870  17.561  10.730  13.292 -0.1163  0.2343 -0.0545
56210DPPC   GL184871  17.797  10.939  13.558 -0.0132 -0.0876 -0.0903
56210DPPC   GL284872  17.903  11.270  13.366 -0.0410 -0.0163 -0.1862
56210DPPC   C1A84873  18.036  11.199  13.863 -0.0442  0.0571  0.1185
56210DPPC   C2A84874  18.236  11.094  14.143 -0.0931 -0.0945 -0.4646
56210DPPC   C3A84875  18.542  11.114  14.451  0.0549  0.0754  0.0518
56210DPPC   C4A84876  19.051  11.170  14.652  0.0604 -0.1366  0.2102
56210DPPC   C1B84877  18.266  10.977  13.346  0.2615 -0.1195  0.1800
56210DPPC   C2B84878  18.753  11.045  13.330  0.1006 -0.0322 -0.0393
56210DPPC   C3B84879  19.116  10.938  13.604  0.0794 -0.1283  0.1153
56210DPPC   C4B84880  19.457  10.656  13.734 -0.5080  0.0231 -0.0121
56211DPPC   NC384881  10.809  10.545  14.267 -0.0539  0.2644 -0.2620
56211DPPC   PO484882  11.074  10.579  14.616 -0.0327 -0.2760 -0.2591
56211DPPC   GL184883  10.847  10.544  15.006  0.1008  0.2154  0.1995
56211DPPC   GL284884  10.915  10.320  15.223  0.2359 -0.4509 -0.2231
56211DPPC   C1A84885  10.564  10.768  15.320 -0.1301  0.0434  0.0180
56211DPPC   C2A84886  10.621  10.840  15.682 -0.1068  0.1330  0.0590
56211DPPC   C3A84887  10.785  11.033  16.077 -0.0247  0.0034  0.2394
56211DPPC   C4A84888  10.614  11.327  16.341 -0.0000 -0.0096 -0.1781
56211DPPC   C1B84889  10.836  10.409  15.757  0.1556  0.0007  0.4637
56211DPPC   C2B84890  10.901  10.532  16.120  0.0704  0.0944 -0.0707
56211DPPC   C3B84891  10.730  10.465  16.531  0.0759 -0.2470 -0.1746
56211DPPC   C4B84892  10.989  10.547  16.874 -0.1725 -0.2123  0.1284
56212DPPC   NC384893  31.837  31.198   6.765  0.5967 -0.1313  0.0186
56212DPPC   PO484894  31.373  31.072   6.792  0.1195  0.1709  0.1849
56212DPPC   GL184895  31.520  30.975   7.184 -0.1440 -0.2162 -0.1195
56212DPPC   GL284896  31.373  30.752   7.236 -0.1693 -0.0849  0.0279
56212DPPC   C1A84897  31.612  31.042   7.621 -0.2305  0.2833 -0.1127
56212DPPC   C2A84898  31.496  31.096   8.125 -0.2444 -0.1061 -0.1378
56212DPPC   C3A84899  31.351  31.146   8.536  0.0980  0.0796 -0.1036
56212DPPC   C4A84900  31.356  31.379   8.953 -0.3040 -0.0355 -0.0319
56212DPPC   C1B84901  31.172  30.905   7.636 -0.3637 -0.0685  0.1964
56212DPPC   C2B84902  30.775  31.077   7.671 -0.1319  0.1981 -0.3422
56212DPPC   C3B84903  30.521  31.015   7.946  0.1565  0.2882 -0.0106
56212DPPC   C4B84904  30.225  30.715   8.259  0.0094  0.0332 -0.4450
56213POPC   NC384905  10.895   7.813  14.837 -0.0496  0.0241  0.0754
56213POPC   PO484906  11.277   7.579  14.990 -0.2374 -0.1725 -0.1979
56213POPC   GL184907  11.502   7.357  15.319 -0.0941  0.1153  0.1214
56213POPC   GL284908  11.807   7.414  15.335 -0.3640  0.1322 -0.3901
56213POPC   C1A84909  11.589   7.394  15.808  0.0490 -0.2889 -0.4346
56213POPC   D2A84910  11.572   7.388  16.245 -0.4741 -0.0917 -0.0125
56213POPC   C3A84911  11.728   7.095  16.499 -0.1715  0.3749  0.1378
56213POPC   C4A84912  12.078   6.788  16.596 -0.3014 -0.0589 -0.0358
56213POPC   C1B84913  11.813   7.016  15.588  0.3659  0.0944 -0.3417
56213POPC   C2B84914  11.749   6.936  15.975 -0.1096  0.3304 -0.0766
56213POPC   C3B84915  11.688   6.644  16.350 -0.3504 -0.0640  0.0852
56213POPC   C4B84916  11.575   6.215  16.440 -0.2113 -0.0251  0.0203
56214POPC   NC384917  20.440  26.146   7.743  0.0991 -0.0708 -0.2792
56214POPC   PO484918  20.778  25.888   7.827  0.3728  0.6278  0.1501
56214POPC   GL184919  21.201  25.843   7.940 -0.0031 -0.0072 -0.0326
56214POPC   GL284920  21.512  26.037   7.773 -0.1372  0.4410 -0.1321
56214POPC   C1A84921  21.533  25.930   8.262 -0.4842  0.1494 -0.1502
56214POPC   D2A84922  21.858  25.960   8.480 -0.4434  0.3243  0.1596
56214POPC   C3A84923  22.226  26.293   8.442  0.1798  0.1795  0.1956
56214POPC   C4A84924  22.567  26.481   8.275 -0.1657 -0.0681 -0.1387
56214POPC   C1B84925  21.862  26.257   7.922  0.0382  0.1487 -0.1230
56214POPC   C2B84926  22.102  26.666   8.109 -0.0768 -0.3025  0.1749
56214POPC   C3B84927  22.241  26.987   7.836 -0.2208  0.0464 -0.2601
56214POPC   C4B84928  22.475  27.273   7.697 -0.1098 -0.2480 -0.1570
56215POPC   NC384929   0.877  15.073   2.984  0.3656  0.0335  0.2409
56215POPC   PO484930   1.013  14.705   3.007 -0.0203 -0.1280  0.1221
56215POPC   GL184931   0.686  14.719   3.334  0.1975 -0.2272  0.3600
56215POPC   GL284932   0.666  14.973   3.460  0.1306 -0.1512 -0.2730
56215POPC   C1A84933   0.636  14.496   3.691 -0.0342 -0.2150 -0.1602
56215POPC   D2A84934   0.389  14.549   4.055  0.3415  0.0002  0.1345
56215POPC   C3A84935   0.164  14.672   4.421  0.0262  0.0428 -0.0056
56215POPC   C4A84936   0.134  14.908   4.762  0.1345 -0.1770  0.1318
56215POPC   C1B84937   0.246  15.013   3.735 -0.1830 -0.1374 -0.3513
56215POPC   C2B84938   0.135  15.086   4.075  0.1692 -0.0822 -0.0021
56215POPC   C3B84939  35.214  15.193   4.306 -0.1379 -0.0257  0.2351
56215POPC   C4B84940  34.769  15.186   4.424  0.1457 -0.1224 -0.2996
56216POPC   NC384941  24.546  28.643   4.979  0.3949 -0.0552 -0.3973
56216POPC   PO484942  24.720  28.176   5.060 -0.0599 -0.3181  0.2451
56216POPC   GL184943  24.724  28.370   5.469 -0.0015 -0.0754  0.2977
56216POPC   GL284944  24.972  28.577   5.443 -0.2176 -0.1705  0.0457
56216POPC   C1A84945  24.892  28.324   5.940 -0.2208 -0.2980 -0.0833
56216POPC   D2A84946  24.966  28.239   6.386  0.4303  0.2141  0.1131
56216POPC   C3A84947  24.736  27.911   6.398  0.0444  0.3103 -0.0767
56216POPC   C4A84948  24.911  27.576   6.559 -0.0686  0.4454 -0.3392
56216POPC   C1B84949  25.203  28.166   5.599  0.0247 -0.2115 -0.0226
56216POPC   C2B84950  25.344  28.071   5.956 -0.1247 -0.1372 -0.0466
56216POPC   C3B84951  25.298  27.889   6.318  0.2555  0.1212  0.1819
56216POPC   C4B84952  25.577  27.778   6.710 -0.1168 -0.0922  0.2100
56217POPC   NC384953  22.184  10.310   4.764  0.0178  0.1077  0.0914
56217POPC   PO484954  22.436  10.484   5.120  0.0882  0.1778  0.1826
56217POPC   GL184955  22.618  10.669   5.531 -0.3543  0.2889  0.1778
56217POPC   GL284956  22.943  10.706   5.510 -0.1672  0.0128  0.1642
56217POPC   C1A84957  22.835  11.087   5.739 -0.0417  0.0117 -0.1439
56217POPC   D2A84958  23.199  11.167   6.066  0.0527 -0.2037 -0.1085
56217POPC   C3A84959  23.172  11.420   6.458 -0.1820  0.3572  0.3245
56217POPC   C4A84960  23.055  11.833   6.664 -0.1125  0.1583 -0.3421
56217POPC   C1B84961  23.256  10.837   5.711  0.1865  0.1813  0.0699
56217POPC   C2B84962  23.652  11.001   6.068  0.0024  0.5892  0.1277
56217POPC   C3B84963  23.645  11.286   6.351 -0.0863  0.0493 -0.0156
56217POPC   C4B84964  23.618  11.376   6.824  0.0019 -0.0115  0.2212
56218POPC   NC384965  34.343  10.711   1.970  0.1794 -0.0124  0.1318
56218POPC   PO484966  34.302  11.244   1.921 -0.1550 -0.0557 -0.0760
56218POPC   GL184967  33.955  11.342   2.165 -0.1661 -0.3829 -0.0043
56218POPC   GL284968  33.946  11.510   2.434  0.0284 -0.0110  0.1571
56218POPC   C1A84969  33.455  11.256   2.353  0.0222  0.0445  0.2440
56218POPC   D2A84970  33.336  11.182   2.743 -0.1319 -0.1597  0.2659
56218POPC   C3A84971  33.013  11.480   2.964 -0.0196 -0.0835 -0.2754
56218POPC   C4A84972  32.686  11.273   3.219 -0.2638  0.0122  0.1501
56218POPC   C1B84973  33.738  11.583   2.796 -0.3696  0.0069  0.2836
56218POPC   C2B84974  33.480  11.526   3.124 -0.0689 -0.3396 -0.3015
56218POPC   C3B84975  33.158  11.372   3.443  0.0240  0.0474 -0.2887
56218POPC   C4B84976  32.796  11.299   3.709 -0.1175  0.1762 -0.3195
56219POPC   NC384977  18.853  11.584  11.773 -0.0945 -0.0057  0.2691
56219POPC   PO484978  18.711  11.187  11.999  0.2242 -0.2699  0.3603
56219POPC   GL184979  19.090  11.197  12.047  0.2828  0.2127  0.3327
56219POPC   GL284980  19.261  10.903  11.877 -0.0430 -0.1242 -0.1327
56219POPC   C1A84981  19.517  11.339  12.139  0.1338 -0.0252  0.1166
56219POPC   D2A84982  20.056  11.232  12.064  0.1052  0.1742 -0.1413
56219POPC   C3A84983  20.468  11.217  12.171 -0.0475  0.1117  0.0380
56219POPC   C4A84984  20.857  11.395  12.277 -0.0400 -0.2496  0.0832
56219POPC   C1B84985  19.651  10.895  11.998  0.0477  0.0933  0.3007
56219POPC   C2B84986  20.019  10.813  12.296  0.1248  0.0537  0.0203
56219POPC   C3B84987  20.404  10.782  12.527  0.1110  0.2007 -0.1263
56219POPC   C4B84988  20.687  10.773  12.858  0.0858  0.1272 -0.0771
56220POPC   NC384989  34.670   0.656   8.551 -0.2113  0.0451 -0.0961
56220POPC   PO484990  34.266   0.492   8.230  0.1297 -0.0821 -0.1839
56220POPC   GL184991  34.164   0.719   8.607  0.1074 -0.2319  0.2690
56220POPC   GL284992  33.960   0.506   8.839  0.3480 -0.1185 -0.1141
56220POPC   C1A84993  34.212   0.982   9.049 -0.1827  0.0264 -0.0272
56220POPC   D2A84994  34.512   0.936   9.386 -0.1286  0.0330 -0.4337
56220POPC   C3A84995  34.817   1.140   9.643 -0.0722  0.0132 -0.2491
56220POPC   C4A84996  34.989   1.036  10.065 -0.2033  0.1251  0.0538
56220POPC   C1B84997  33.852   0.561   9.220  0.0831  0.0193 -0.1266
56220POPC   C2B84998  33.959   0.880   9.412  0.2654  0.0335 -0.1177
56220POPC   C3B84999  34.174   1.010   9.785 -0.4281  0.1393 -0.2050
56220POPC   C4B85000  34.558   0.816   9.911 -0.2188 -0.0180 -0.1340
56221POPC   NC385001   8.587  32.713  15.607 -0.3324  0.0105 -0.0137
56221POPC   PO485002   8.481  32.559  15.962  0.1036 -0.2313 -0.0607
56221POPC   GL185003   8.313  32.738  16.337  0.2741  0.0823 -0.1115
56221POPC   GL285004   8.147  32.602  16.498  0.4283 -0.0703  0.1975
56221POPC   C1A85005   8.530  32.587  16.768  0.0188 -0.2507 -0.0826
56221POPC   D2A85006   8.610  32.497  17.064  0.1961 -0.1054 -0.1590
56221POPC   C3A85007   8.512  32.586  17.456  0.0579  0.1008  0.0042
56221POPC   C4A85008   8.304  32.705  17.791 -0.2176  0.0635  0.0365
56221POPC   C1B85009   8.091  32.647  17.015  0.0093 -0.0729  0.0928
56221POPC   C2B85010   7.848  32.687  17.485  0.0204 -0.0608  0.2352
56221POPC   C3B85011   7.736  32.705  17.901 -0.3813  0.0510 -0.2909
56221POPC   C4B85012   7.541  32.435  18.260 -0.1343  0.1342 -0.3502
56222POPC   NC385013  32.451  28.714   5.046 -0.3242 -0.2687  0.2387
56222POPC   PO485014  32.462  28.865   5.475  0.0981  0.0221 -0.0005
56222POPC   GL185015  32.276  28.688   5.825 -0.2363 -0.2686 -0.2150
56222POPC   GL285016  32.031  28.969   5.812 -0.4595 -0.1030 -0.0947
56222POPC   C1A85017  32.253  28.314   5.911 -0.0298  0.0136 -0.0223
56222POPC   D2A85018  32.067  28.428   6.318  0.1432  0.5924 -0.0685
56222POPC   C3A85019  32.305  28.508   6.557 -0.3352 -0.1190 -0.5813
56222POPC   C4A85020  32.575  28.705   6.848 -0.1267  0.1787  0.1299
56222POPC   C1B85021  31.705  28.683   6.104 -0.1542 -0.0870  0.0403
56222POPC   C2B85022  31.499  28.396   6.383  0.2242 -0.1036  0.0782
56222POPC   C3B85023  31.381  28.142   6.709 -0.3087 -0.3866  0.1864
56222POPC   C4B85024  31.089  27.998   6.939  0.1554  0.0891  0.0045
56223POPC   NC385025   4.239   8.670   8.746  0.3757  0.0386  0.0808
56223POPC   PO485026   4.202   8.967   8.414  0.0958  0.1818  0.0143
56223POPC   GL185027   3.804   9.205   8.588 -0.0552  0.1496 -0.3313
56223POPC   GL285028   3.767   9.471   8.701 -0.0943  0.2721  0.1772
56223POPC   C1A85029   3.323   9.335   8.568  0.0864 -0.1016  0.0530
56223POPC   D2A85030   2.928   9.437   8.737 -0.0296  0.1521 -0.1071
56223POPC   C3A85031   2.669   9.438   9.086 -0.0496 -0.2416  0.0305
56223POPC   C4A85032   2.396   9.456   9.387  0.0752 -0.1040 -0.0215
56223POPC   C1B85033   3.401   9.683   8.930  0.0807  0.1470 -0.2688
56223POPC   C2B85034   3.106   9.722   9.223 -0.0682  0.1256  0.3124
56223POPC   C3B85035   2.787   9.735   9.508 -0.0052  0.0691 -0.1290
56223POPC   C4B85036   2.621  10.008   9.835 -0.1347  0.0238  0.0778
56224POPC   NC385037   7.971  10.627  12.735  0.2795 -0.0536  0.4116
56224POPC   PO485038   7.797  11.012  12.658  0.5215 -0.0251 -0.1780
56224POPC   GL185039   7.345  11.232  12.717  0.1335 -0.0851 -0.0048
56224POPC   GL285040   7.438  11.480  12.845 -0.0123 -0.0466 -0.1089
56224POPC   C1A85041   7.102  11.066  12.965 -0.0639  0.0490  0.1912
56224POPC   D2A85042   6.762  11.142  13.236 -0.2838  0.3502  0.0826
56224POPC   C3A85043   6.546  10.946  13.555  0.1514 -0.0177  0.1463
56224POPC   C4A85044   6.209  11.042  13.831 -0.4029  0.0820  0.2473
56224POPC   C1B85045   7.221  11.487  13.159 -0.2826 -0.0819 -0.1240
56224POPC   C2B85046   6.913  11.529  13.489 -0.3030 -0.2718  0.0840
56224POPC   C3B85047   6.493  11.399  13.562 -0.1426 -0.1926  0.3175
56224POPC   C4B85048   5.992  11.495  13.649 -0.1030 -0.0871 -0.0050
56225POPC   NC385049  18.830  13.399  11.099  0.0374  0.1010 -0.4434
56225POPC   PO485050  18.619  13.422  11.501 -0.0538 -0.0666 -0.0465
56225POPC   GL185051  18.635  13.271  11.939 -0.3992 -0.1062  0.2489
56225POPC   GL285052  18.493  13.001  12.125 -0.2297 -0.1346  0.2245
56225POPC   C1A85053  19.014  13.151  12.096 -0.1656 -0.0660  0.2278
56225POPC   D2A85054  19.446  13.301  12.047 -0.0287  0.3255  0.2019
56225POPC   C3A85055  19.607  13.302  11.632 -0.1375  0.2200 -0.0716
56225POPC   C4A85056  19.793  13.429  11.069 -0.0176 -0.1693 -0.1618
56225POPC   C1B85057  18.720  13.140  12.468 -0.0932  0.1429  0.1082
56225POPC   C2B85058  19.049  13.061  12.611  0.1032  0.6838 -0.2181
56225POPC   C3B85059  19.347  13.189  12.607 -0.2512 -0.3690 -0.1605
56225POPC   C4B85060  19.696  13.408  12.458  0.3347  0.0293  0.0302
56226POPC   NC385061  29.730  26.388   2.278 -0.0481 -0.0524  0.1398
56226POPC   PO485062  30.055  26.525   2.597  0.4125 -0.2208  0.1122
56226POPC   GL185063  29.868  26.299   2.994  0.1133  0.0043 -0.2607
56226POPC   GL285064  29.480  26.132   2.919  0.0610  0.2309 -0.0117
56226POPC   C1A85065  29.843  26.101   3.358 -0.1318  0.0235 -0.0744
56226POPC   D2A85066  29.788  25.756   3.638  0.1299 -0.1214  0.0665
56226POPC   C3A85067  29.815  25.637   4.112 -0.0348  0.0802  0.0776
56226POPC   C4A85068  29.745  25.274   4.318  0.2806  0.0019  0.0349
56226POPC   C1B85069  29.451  25.803   3.235  0.0930  0.1204 -0.1383
56226POPC   C2B85070  29.385  25.514   3.455  0.3964 -0.1953  0.1044
56226POPC   C3B85071  29.710  25.238   3.631  0.0571  0.0086 -0.2680
56226POPC   C4B85072  29.999  24.886   3.618  0.1388  0.1702 -0.1283
56227POPC   NC385073  31.629  29.284   5.166  0.0587 -0.0745  0.0582
56227POPC   PO485074  31.712  29.385   5.551 -0.2386  0.0693 -0.0108
56227POPC   GL185075  31.602  29.216   6.023  0.0360 -0.2282  0.2211
56227POPC   GL285076  31.576  29.492   6.230 -0.0422  0.1677 -0.2779
56227POPC   C1A85077  31.222  28.927   6.148 -0.2112  0.0496  0.1648
56227POPC   D2A85078  31.016  28.590   6.230 -0.0377 -0.0349  0.2898
56227POPC   C3A85079  30.944  28.439   6.631 -0.1616 -0.0259 -0.3622
56227POPC   C4A85080  30.794  28.428   7.030 -0.2750 -0.4115 -0.3829
56227POPC   C1B85081  31.421  29.193   6.518  0.2436  0.0791  0.0455
56227POPC   C2B85082  31.233  28.793   6.743  0.0440  0.0220  0.2510
56227POPC   C3B85083  31.015  28.854   7.170 -0.3109 -0.1019  0.1129
56227POPC   C4B85084  30.897  28.904   7.589 -0.1186 -0.1454 -0.2653
56228POPC   NC385085  19.499  10.916  10.771  0.1039  0.3172  0.0949
56228POPC   PO485086  19.881  11.085  10.485  0.0592  0.0089 -0.1718
56228POPC   GL185087  20.180  11.303  10.823  0.0971 -0.0559  0.2346
56228POPC   GL285088  20.413  11.614  10.744  0.1170  0.2298  0.1094
56228POPC   C1A85089  20.364  11.364  11.159 -0.0879 -0.0644 -0.1138
56228POPC   D2A85090  20.446  11.382  11.705 -0.1254  0.1487 -0.1061
56228POPC   C3A85091  20.832  11.227  11.816  0.0419  0.2006 -0.1799
56228POPC   C4A85092  21.174  11.220  11.906 -0.0355 -0.0333  0.4814
56228POPC   C1B85093  20.695  11.632  10.906 -0.0125 -0.0157 -0.0213
56228POPC   C2B85094  20.827  11.639  11.294  0.1294 -0.3700  0.2795
56228POPC   C3B85095  20.969  11.677  11.767 -0.0216 -0.1196 -0.0170
56228POPC   C4B85096  21.299  11.660  12.229  0.1598 -0.1690 -0.1315
56229POPC   NC385097  15.140  20.754  15.191 -0.1322 -0.0695 -0.0352
56229POPC   PO485098  15.207  20.579  15.592  0.1756  0.1968 -0.2513
56229POPC   GL185099  15.446  20.350  15.792 -0.1479 -0.0657 -0.1568
56229POPC   GL285100  15.753  20.456  15.808  0.0639 -0.1724  0.0513
56229POPC   C1A85101  15.615  19.953  16.012  0.0793  0.3814 -0.4071
56229POPC   D2A85102  15.818  19.794  16.365 -0.3005  0.2871 -0.2057
56229POPC   C3A85103  16.293  19.778  16.444 -0.1051 -0.2133  0.3127
56229POPC   C4A85104  16.675  19.468  16.473  0.4047  0.1055  0.0929
56229POPC   C1B85105  16.069  20.179  15.855 -0.1581 -0.0086 -0.1129
56229POPC   C2B85106  16.386  20.040  16.067 -0.1836 -0.0264  0.1665
56229POPC   C3B85107  16.741  20.001  16.294 -0.3262  0.3139 -0.0566
56229POPC   C4B85108  16.993  19.898  16.599 -0.2659  0.1206 -0.0831
56230POPC   NC385109  19.598  31.055   8.291 -0.1399  0.2527 -0.0185
56230POPC   PO485110  20.108  31.201   8.437  0.0855 -0.1691  0.0909
56230POPC   GL185111  20.248  31.493   8.764  0.2911 -0.1940 -0.1009
56230POPC   GL285112  20.466  31.733   8.634  0.2110 -0.2669  0.1467
56230POPC   C1A85113  20.461  31.413   9.072 -0.1788  0.1230  0.2741
56230POPC   D2A85114  20.739  31.149   9.306  0.1093  0.0922 -0.2139
56230POPC   C3A85115  20.845  31.149   9.745  0.3521 -0.3184 -0.3449
56230POPC   C4A85116  20.877  31.180  10.119  0.1267  0.1067  0.1301
56230POPC   C1B85117  20.812  31.722   8.908 -0.3176 -0.0845 -0.1046
56230POPC   C2B85118  20.819  31.671   9.222  0.0312 -0.0982 -0.1077
56230POPC   C3B85119  20.955  31.612   9.521  0.0326  0.1308 -0.2242
56230POPC   C4B85120  21.048  31.700   9.943 -0.1033  0.1020 -0.0662
56231POPC   NC385121  25.352  24.785   2.771 -0.2339  0.0126  0.1983
56231POPC   PO485122  25.013  24.876   3.001  0.2485  0.1084 -0.0388
56231POPC   GL185123  25.199  24.513   3.146  0.1129 -0.3100 -0.0941
56231POPC   GL285124  25.492  24.294   2.972 -0.0261 -0.2627  0.3279
56231POPC   C1A85125  25.466  24.400   3.518 -0.2195 -0.0611  0.1199
56231POPC   D2A85126  25.881  24.159   3.472 -0.2084  0.0277 -0.1211
56231POPC   C3A85127  25.999  23.748   3.502 -0.1677 -0.3257  0.2202
56231POPC   C4A85128  26.024  23.285   3.467  0.2143 -0.2201  0.2615
56231POPC   C1B85129  25.579  23.960   3.151  0.1221 -0.0212 -0.1732
56231POPC   C2B85130  25.611  23.538   3.258  0.0110  0.1273 -0.0172
56231POPC   C3B85131  25.562  23.282   3.613  0.2855 -0.1546  0.1403
56231POPC   C4B85132  25.880  23.390   3.982 -0.0816  0.3508  0.1062
56232POPC   NC385133   3.234   5.317   8.523 -0.0879 -0.0488  0.2475
56232POPC   PO485134   3.180   5.624   8.801  0.0091 -0.1098  0.2964
56232POPC   GL185135   2.779   5.728   8.909 -0.2829  0.2669  0.0283
56232POPC   GL285136   2.655   5.525   8.847 -0.0549  0.1249 -0.1791
56232POPC   C1A85137   2.532   6.077   9.036 -0.0982  0.3575  0.4226
56232POPC   D2A85138   2.246   5.998   9.383  0.1169  0.0484  0.3304
56232POPC   C3A85139   1.865   5.922   9.564 -0.1296 -0.2255  0.0253
56232POPC   C4A85140   1.777   5.740   9.983 -0.0198  0.0059 -0.2362
56232POPC   C1B85141   2.401   5.548   9.213  0.0046  0.0391  0.2440
56232POPC   C2B85142   2.147   5.507   9.632  0.2107  0.3382 -0.2090
56232POPC   C3B85143   2.134   5.457  10.157 -0.2517 -0.0711  0.3992
56232POPC   C4B85144   2.410   5.590  10.518  0.0700  0.0870 -0.0969
56233POPC   NC385145   9.013  18.949  14.467 -0.1531 -0.1873 -0.4722
56233POPC   PO485146   9.368  18.831  14.591 -0.0391  0.0550 -0.2776
56233POPC   GL185147   9.418  18.681  15.072 -0.0690  0.0240 -0.1450
56233POPC   GL285148   9.320  18.897  15.141  0.2881 -0.0982 -0.1630
56233POPC   C1A85149   9.146  18.435  15.280 -0.0638 -0.2175  0.0782
56233POPC   D2A85150   8.771  18.365  15.480  0.3230 -0.0891  0.2321
56233POPC   C3A85151   8.747  18.245  15.851 -0.1368 -0.1354 -0.1640
56233POPC   C4A85152   8.944  17.905  16.062  0.2946  0.1250  0.1932
56233POPC   C1B85153   8.918  18.821  15.415 -0.4311 -0.0023 -0.1568
56233POPC   C2B85154   8.691  18.763  15.873  0.0330  0.1371 -0.4132
56233POPC   C3B85155   8.738  18.507  16.328 -0.1324  0.0260  0.2322
56233POPC   C4B85156   8.690  18.135  16.530 -0.4136 -0.1418  0.2342
56234DOPC   NC385157  11.765  24.246  18.338 -0.1057  0.0345 -0.0028
56234DOPC   PO485158  12.215  24.217  18.103  0.0918  0.0823  0.2738
56234DOPC   GL185159  12.244  24.344  18.550  0.1690  0.2568  0.1064
56234DOPC   GL285160  12.223  24.634  18.641  0.1168 -0.2216  0.0858
56234DOPC   C1A85161  12.143  24.253  19.030 -0.1058  0.2657 -0.4086
56234DOPC   D2A85162  12.182  24.144  19.509 -0.0145 -0.1709 -0.0352
56234DOPC   C3A85163  12.170  23.973  19.904  0.1499  0.1427 -0.1224
56234DOPC   C4A85164  12.164  23.865  20.299  0.0263  0.0326  0.2428
56234DOPC   C1B85165  12.105  24.731  18.987 -0.0651 -0.2031 -0.0777
56234DOPC   D2B85166  11.999  25.044  19.290  0.0006 -0.0786  0.0309
56234DOPC   C3B85167  12.139  24.972  19.704  0.0481  0.3282 -0.0583
56234DOPC   C4B85168  11.917  24.966  20.149  0.0779 -0.1116  0.0049
56235DOPC   NC385169  21.198  11.965   8.224  0.3076 -0.1487  0.0578
56235DOPC   PO485170  21.272  11.502   8.449  0.2203  0.0350  0.0921
56235DOPC   GL185171  21.677  11.582   8.264 -0.2141 -0.3151 -0.0292
56235DOPC   GL285172  21.773  11.514   8.486  0.0294  0.2148 -0.1643
56235DOPC   C1A85173  22.166  11.679   7.963 -0.2026  0.1913 -0.0185
56235DOPC   D2A85174  22.448  11.835   7.818 -0.0012 -0.3600  0.3445
56235DOPC   C3A85175  22.633  11.498   7.637 -0.3006  0.0458  0.0585
56235DOPC   C4A85176  22.666  11.288   7.241 -0.1144 -0.1648 -0.2060
56235DOPC   C1B85177  21.740  11.800   8.886 -0.2046 -0.0914  0.1640
56235DOPC   D2B85178  21.942  12.011   9.295  0.0144  0.0494 -0.0235
56235DOPC   C3B85179  22.240  12.292   9.161  0.4148 -0.0194  0.0399
56235DOPC   C4B85180  22.576  12.577   9.464 -0.1690 -0.1439  0.1348
56236DOPC   NC385181  13.445  12.941  14.684 -0.0466  0.2662  0.0213
56236DOPC   PO485182  13.453  13.429  14.672 -0.0995 -0.0956 -0.1149
56236DOPC   GL185183  13.201  13.294  15.024 -0.0458 -0.0951 -0.1900
56236DOPC   GL285184  12.900  13.205  14.925  0.2524  0.0817  0.0927
56236DOPC   C1A85185  13.298  13.349  15.380 -0.0751 -0.1811  0.0022
56236DOPC   D2A85186  13.093  13.318  15.756 -0.0082  0.0929  0.2256
56236DOPC   C3A85187  13.360  13.398  16.004  0.1414 -0.0471  0.4193
56236DOPC   C4A85188  13.260  13.628  16.317  0.4422  0.0247  0.0779
56236DOPC   C1B85189  12.748  13.208  15.389 -0.1378  0.0476 -0.2390
56236DOPC   D2B85190  12.469  13.273  15.686  0.0215  0.0633  0.3080
56236DOPC   C3B85191  12.299  13.571  15.893  0.1733  0.0103  0.0522
56236DOPC   C4B85192  12.374  14.086  15.940  0.1563  0.3180 -0.2315
56237DOPC   NC385193  23.846  32.900   6.655  0.0301 -0.0016 -0.0029
56237DOPC   PO485194  23.835  33.238   6.924  0.0440 -0.1243 -0.0565
56237DOPC   GL185195  24.008  33.375   7.331  0.0767  0.2701 -0.0572
56237DOPC   GL285196  23.894  33.632   7.407 -0.0509  0.0006  0.2055
56237DOPC   C1A85197  24.324  33.273   7.605  0.2919  0.0135 -0.0528
56237DOPC   D2A85198  24.554  33.326   8.046 -0.1624  0.2446  0.0645
56237DOPC   C3A85199  24.307  33.262   8.339 -0.2616  0.0137  0.1226
56237DOPC   C4A85200  24.146  33.471   8.767 -0.1107 -0.0163  0.1396
56237DOPC   C1B85201  23.856  33.610   7.830 -0.2118  0.1213 -0.0755
56237DOPC   D2B85202  23.921  33.596   8.273 -0.2045  0.1439  0.0392
56237DOPC   C3B85203  23.639  33.376   8.456 -0.2404  0.1421 -0.0241
56237DOPC   C4B85204  23.602  32.989   8.691  0.0833  0.0881 -0.1497
56238DOPC   NC385205  27.010  10.699   1.096 -0.1399 -0.0239  0.0118
56238DOPC   PO485206  27.015  10.998   1.476  0.1061 -0.0762  0.0040
56238DOPC   GL185207  27.103  11.148   1.875  0.2736  0.0125 -0.1104
56238DOPC   GL285208  27.297  11.408   1.906  0.2367 -0.1585 -0.0325
56238DOPC   C1A85209  27.206  11.123   2.321  0.0196 -0.1419 -0.1406
56238DOPC   D2A85210  27.410  11.399   2.511 -0.1080 -0.1392  0.1735
56238DOPC   C3A85211  27.472  11.170   2.880 -0.0112  0.0251 -0.1016
56238DOPC   C4A85212  27.754  11.115   3.252  0.0688 -0.3177  0.1532
56238DOPC   C1B85213  27.617  11.281   2.118  0.0100 -0.2121 -0.2186
56238DOPC   D2B85214  27.894  11.440   2.324  0.0684 -0.0176 -0.3329
56238DOPC   C3B85215  27.826  11.584   2.836  0.2297 -0.0809  0.1415
56238DOPC   C4B85216  27.466  11.879   2.826 -0.1605 -0.1370  0.3542
56239DOPC   NC385217  17.294  32.313  10.727  0.0126 -0.1108 -0.0273
56239DOPC   PO485218  17.599  32.626  10.606 -0.1046 -0.0018  0.1567
56239DOPC   GL185219  17.903  32.385  10.754 -0.0831 -0.0216  0.0287
56239DOPC   GL285220  18.143  32.315  10.638 -0.0726 -0.1293 -0.1002
56239DOPC   C1A85221  17.994  32.393  11.131 -0.0529  0.0233  0.1788
56239DOPC   D2A85222  18.279  32.341  11.421 -0.0823 -0.0854  0.2893
56239DOPC   C3A85223  18.342  32.585  11.726 -0.0613  0.0638 -0.0538
56239DOPC   C4A85224  18.491  32.820  11.939  0.0514  0.0510 -0.0846
56239DOPC   C1B85225  18.467  32.307  10.959  0.0697  0.0027  0.0919
56239DOPC   D2B85226  18.736  32.370  11.252 -0.0394 -0.0058  0.0252
56239DOPC   C3B85227  19.192  32.298  11.357  0.1523  0.1451 -0.1211
56239DOPC   C4B85228  19.485  32.671  11.230 -0.0517  0.1446  0.3619
56240DOPC   NC385229  24.227  28.459   5.342  0.3477 -0.0553 -0.2602
56240DOPC   PO485230  24.259  28.885   5.512  0.2364  0.1561 -0.3091
56240DOPC   GL185231  24.218  29.022   5.949  0.0295  0.2486  0.0056
56240DOPC   GL285232  24.450  29.165   5.952 -0.0992  0.0628 -0.1844
56240DOPC   C1A85233  24.129  29.090   6.350  0.2389  0.0047 -0.1411
56240DOPC   D2A85234  24.012  28.925   6.655  0.2045  0.0352 -0.0683
56240DOPC   C3A85235  23.862  28.496   6.695  0.0575 -0.0235  0.2801
56240DOPC   C4A85236  23.661  28.353   7.061  0.2395  0.0650  0.0445
56240DOPC   C1B85237  24.581  29.347   6.261 -0.0749 -0.0883  0.0846
56240DOPC   D2B85238  24.523  29.274   6.643 -0.2427  0.1847  0.1309
56240DOPC   C3B85239  24.820  29.114   6.942 -0.2639  0.1001 -0.0153
56240DOPC   C4B85240  24.816  29.256   7.300  0.0710 -0.0900 -0.1763
56241DOPC   NC385241  14.090   4.491  12.971  0.0748  0.0015 -0.3549
56241DOPC   PO485242  14.434   4.296  12.927 -0.2640  0.1480  0.0857
56241DOPC   GL185243  14.365   4.217  13.404 -0.1347  0.1434 -0.1349
56241DOPC   GL285244  14.165   4.021  13.429 -0.0319 -0.0754  0.3734
56241DOPC   C1A85245  14.411   4.186  13.907 -0.1413  0.1834 -0.3281
56241DOPC   D2A85246  14.394   4.049  14.336 -0.0600  0.0338  0.2063
56241DOPC   C3A85247  14.632   4.216  14.618 -0.2101  0.1350  0.0170
56241DOPC   C4A85248  14.951   4.318  14.882 -0.0269 -0.0665 -0.0772
56241DOPC   C1B85249  13.940   3.990  13.702 -0.2240  0.1803  0.1561
56241DOPC   D2B85250  13.816   3.791  14.000  0.1286 -0.2005 -0.0780
56241DOPC   C3B85251  13.941   3.778  14.355  0.1329 -0.1076 -0.1199
56241DOPC   C4B85252  14.239   3.802  14.739 -0.2143  0.0119 -0.1430
56242DOPC   NC385253  25.153  20.171   1.381 -0.2228  0.0241 -0.1752
56242DOPC   PO485254  25.052  20.638   1.390  0.3269  0.3000 -0.1344
56242DOPC   GL185255  25.435  20.634   1.528  0.2889 -0.1530  0.3881
56242DOPC   GL285256  25.628  20.504   1.401  0.2217  0.0334  0.3014
56242DOPC   C1A85257  25.636  20.797   1.909  0.2069 -0.0078  0.0980
56242DOPC   D2A85258  25.860  20.699   2.192  0.2413 -0.3072 -0.1613
56242DOPC   C3A85259  26.068  21.096   2.314 -0.1229  0.1026  0.1848
56242DOPC   C4A85260  25.860  21.459   2.274  0.0359 -0.2349  0.0600
56242DOPC   C1B85261  25.951  20.520   1.718  0.1337  0.1015 -0.0238
56242DOPC   D2B85262  26.192  20.309   2.129  0.2197 -0.0158  0.1707
56242DOPC   C3B85263  26.310  19.988   2.402 -0.3591  0.0076 -0.1783
56242DOPC   C4B85264  26.320  19.493   2.605 -0.2147 -0.0386  0.1810
56243DOPC   NC385265  26.890   5.852   3.880 -0.2079  0.3222  0.0638
56243DOPC   PO485266  26.631   6.119   3.690 -0.1556 -0.0859 -0.0833
56243DOPC   GL185267  26.654   6.511   4.025  0.5189 -0.3262  0.1438
56243DOPC   GL285268  26.826   6.323   4.213  0.2350  0.2806  0.1826
56243DOPC   C1A85269  26.494   6.669   4.483 -0.3521  0.1453 -0.0789
56243DOPC   D2A85270  26.550   6.806   4.929 -0.2112  0.0175 -0.0131
56243DOPC   C3A85271  26.359   7.043   5.313  0.2716  0.0958 -0.2334
56243DOPC   C4A85272  26.565   7.068   5.752  0.1404  0.0564  0.1878
56243DOPC   C1B85273  27.188   6.394   4.505  0.0414 -0.1876  0.3195
56243DOPC   D2B85274  27.331   6.332   4.853  0.0532 -0.2907 -0.3085
56243DOPC   C3B85275  27.172   6.672   5.048  0.1769  0.1747 -0.1329
56243DOPC   C4B85276  26.890   6.905   5.391  0.0006  0.0196  0.2399
56244DOPC   NC385277  21.961   7.429   7.334  0.1738 -0.0757  0.2708
56244DOPC   PO485278  22.074   7.905   7.265  0.1504  0.1464  0.0314
56244DOPC   GL185279  22.326   7.997   7.384  0.1724 -0.1894 -0.0683
56244DOPC   GL285280  22.599   8.300   7.173  0.1975  0.0829 -0.0427
56244DOPC   C1A85281  22.761   7.922   7.448 -0.1513 -0.0200  0.0749
56244DOPC   D2A85282  23.015   7.676   7.435  0.1429  0.3485 -0.0583
56244DOPC   C3A85283  23.499   7.893   7.555 -0.3338  0.2556  0.4008
56244DOPC   C4A85284  23.815   8.261   7.451  0.0353 -0.5274  0.0176
56244DOPC   C1B85285  22.620   8.519   7.539 -0.0660  0.0710  0.1705
56244DOPC   D2B85286  22.831   8.633   7.793 -0.0585  0.2561 -0.0223
56244DOPC   C3B85287  23.300   8.522   7.874  0.1110 -0.0728 -0.0455
56244DOPC   C4B85288  23.796   8.623   7.741  0.0765 -0.0296 -0.0021
56245DOPC   NC385289   8.608   0.346  15.926  0.1938  0.3872 -0.1598
56245DOPC   PO485290   8.602  35.251  15.992 -0.3556  0.2407 -0.0735
56245DOPC   GL185291   8.662   0.085  16.402 -0.3396  0.0156  0.2174
56245DOPC   GL285292   8.872   0.363  16.363  0.1260  0.0368 -0.2098
56245DOPC   C1A85293   8.428   0.272  16.669 -0.0665  0.2692  0.0179
56245DOPC   D2A85294   8.292   0.356  17.074  0.0951  0.1767 -0.0178
56245DOPC   C3A85295   8.394   0.735  17.267 -0.2141 -0.1443 -0.3854
56245DOPC   C4A85296   8.704   0.798  17.591  0.0925  0.0881  0.0848
56245DOPC   C1B85297   8.772   0.650  16.798 -0.0691 -0.2194  0.3094
56245DOPC   D2B85298   8.878   0.785  17.121 -0.0360 -0.2334  0.0948
56245DOPC   C3B85299   9.186   0.690  17.418 -0.0572 -0.1071 -0.1022
56245DOPC   C4B85300   9.203   0.407  17.693 -0.2301 -0.2574 -0.1577
56246DOPC   NC385301  15.580  28.351  14.502  0.2506  0.1173 -0.0630
56246DOPC   PO485302  15.591  28.544  14.873 -0.0420  0.5863  0.1757
56246DOPC   GL185303  15.851  28.477  15.096 -0.1473 -0.0346 -0.3024
56246DOPC   GL285304  15.842  28.283  15.316  0.1447  0.0936  0.0357
56246DOPC   C1A85305  16.198  28.672  15.200  0.0945  0.2924 -0.2390
56246DOPC   D2A85306  16.661  28.578  15.269 -0.1773  0.0812  0.1559
56246DOPC   C3A85307  16.800  28.889  15.468  0.1503 -0.0397  0.3735
56246DOPC   C4A85308  16.991  29.277  15.605  0.2496 -0.2471 -0.1136
56246DOPC   C1B85309  15.969  28.713  15.641  0.0132  0.0576 -0.4622
56246DOPC   D2B85310  16.075  29.062  15.887  0.3967 -0.0936  0.0810
56246DOPC   C3B85311  16.351  29.408  16.094  0.1406 -0.2566  0.1080
56246DOPC   C4B85312  16.809  29.575  16.064 -0.2698  0.1606  0.1981
56247DOPC   NC385313  34.699  18.726   1.345  0.2301 -0.2300 -0.4249
56247DOPC   PO485314  34.354  18.501   1.066 -0.0532  0.3354  0.0519
56247DOPC   GL185315  34.174  18.728   1.328  0.0321 -0.0992 -0.1795
56247DOPC   GL285316  33.987  19.041   1.428  0.2584 -0.1121  0.1225
56247DOPC   C1A85317  34.013  18.765   1.821  0.2847  0.0326 -0.0037
56247DOPC   D2A85318  34.185  18.699   2.292 -0.1371 -0.3004  0.4589
56247DOPC   C3A85319  34.052  19.078   2.497  0.1130 -0.0355  0.1842
56247DOPC   C4A85320  33.824  19.298   2.634 -0.0628  0.2459  0.0219
56247DOPC   C1B85321  33.518  18.968   1.492 -0.0049 -0.0555  0.0987
56247DOPC   D2B85322  33.204  19.096   1.592 -0.2125  0.0357 -0.1554
56247DOPC   C3B85323  33.242  19.032   2.008 -0.0268  0.1869 -0.1096
56247DOPC   C4B85324  33.691  19.035   2.077  0.3373 -0.1161 -0.2785
56248DOPC   NC385325  18.770  21.200  12.596 -0.1165 -0.1402  0.0788
56248DOPC   PO485326  18.550  21.365  12.818  0.0103  0.1966 -0.0456
56248DOPC   GL185327  19.024  21.530  12.872  0.1223  0.1993  0.2056
56248DOPC   GL285328  19.051  21.822  13.060 -0.0432 -0.0522  0.5301
56248DOPC   C1A85329  19.341  21.405  13.149 -0.1262  0.1240  0.2582
56248DOPC   D2A85330  19.433  21.068  13.472  0.0738  0.0754 -0.1034
56248DOPC   C3A85331  19.966  20.896  13.467  0.2723  0.2263  0.1164
56248DOPC   C4A85332  20.249  20.749  13.575  0.1053 -0.0946  0.3081
56248DOPC   C1B85333  19.415  21.816  13.346  0.1339  0.1958  0.2967
56248DOPC   D2B85334  19.518  21.448  13.749 -0.1446 -0.2377 -0.0741
56248DOPC   C3B85335  19.856  21.193  13.854 -0.3955  0.4015  0.3373
56248DOPC   C4B85336  20.144  20.985  14.001  0.1717  0.0613 -0.0067
56249DOPC   NC385337  22.935   1.573   8.167 -0.0654 -0.2025 -0.0651
56249DOPC   PO485338  22.868   1.234   7.812 -0.1677  0.1752  0.2194
56249DOPC   GL185339  23.089   1.075   8.130  0.0736 -0.0248 -0.0747
56249DOPC   GL285340  23.206   0.765   8.133  0.0976  0.2192 -0.0343
56249DOPC   C1A85341  23.234   1.090   8.509  0.0925  0.1304  0.1948
56249DOPC   D2A85342  23.337   0.799   8.854 -0.1057 -0.1566 -0.0354
56249DOPC   C3A85343  23.634   0.837   9.161 -0.2128 -0.4483 -0.0094
56249DOPC   C4A85344  23.927   0.918   9.473 -0.0009  0.2382  0.0470
56249DOPC   C1B85345  23.002   0.659   8.472  0.0998  0.1436 -0.2861
56249DOPC   D2B85346  22.826   0.549   8.860 -0.1577 -0.1831 -0.0797
56249DOPC   C3B85347  22.865   0.170   9.051 -0.1875  0.2267 -0.0194
56249DOPC   C4B85348  22.626  35.361   9.392  0.0623 -0.1663  0.1952
56250DOPC   NC385349   4.131  24.324   7.299 -0.2215 -0.0562  0.1978
56250DOPC   PO485350   3.913  24.445   7.681  0.1796 -0.1420 -0.1547
56250DOPC   GL185351   3.779  24.020   7.675  0.1616 -0.1593 -0.1416
56250DOPC   GL285352   3.674  23.947   7.419 -0.0176  0.0171  0.0143
56250DOPC   C1A85353   3.567  23.778   7.962 -0.1436  0.1203 -0.1389
56250DOPC   D2A85354   3.483  23.411   7.972  0.2887  0.1063 -0.0740
56250DOPC   C3A85355   3.054  23.428   7.835  0.1916  0.2056  0.1142
56250DOPC   C4A85356   2.679  23.153   7.593  0.2158  0.0556 -0.2047
56250DOPC   C1B85357   3.304  23.662   7.493  0.2891 -0.2811  0.0109
56250DOPC   D2B85358   3.039  23.320   7.344 -0.5555  0.0086 -0.3355
56250DOPC   C3B85359   3.094  23.232   6.954 -0.1366 -0.3841  0.0761
56250DOPC   C4B85360   2.771  23.179   6.621 -0.0216 -0.0776  0.1608
56251DOPC   NC385361   9.013  26.981  17.208 -0.0558 -0.0380 -0.0343
56251DOPC   PO485362   8.688  27.109  17.246  0.0446  0.3771 -0.0227
56251DOPC   GL185363   8.562  26.972  17.643 -0.2645  0.2233  0.0236
56251DOPC   GL285364   8.648  26.655  17.614 -0.2407  0.0708  0.0123
56251DOPC   C1A85365   8.528  27.099  18.028  0.4437 -0.0731  0.1414
56251DOPC   D2A85366   8.327  27.194  18.427 -0.2639 -0.1259 -0.1899
56251DOPC   C3A85367   8.199  27.650  18.553  0.4667 -0.0073  0.1869
56251DOPC   C4A85368   8.057  27.815  18.930  0.0188  0.2337  0.0131
56251DOPC   C1B85369   8.540  26.571  18.041  0.1357 -0.1417 -0.0475
56251DOPC   D2B85370   8.364  26.711  18.465 -0.0520 -0.0452 -0.0792
56251DOPC   C3B85371   8.157  26.733  18.812 -0.0312  0.2165  0.1774
56251DOPC   C4B85372   8.041  26.900  19.186  0.1393  0.0610  0.1627
56252DOPC   NC385373   6.853   8.457  12.003  0.2794 -0.2153  0.5707
56252DOPC   PO485374   6.480   8.395  11.858 -0.3071  0.2116  0.0150
56252DOPC   GL185375   6.171   8.436  12.191 -0.0933 -0.3165  0.1009
56252DOPC   GL285376   5.902   8.134  12.296 -0.1210 -0.0386  0.0921
56252DOPC   C1A85377   6.213   8.619  12.559 -0.1940  0.0907 -0.0883
56252DOPC   D2A85378   6.193   9.015  12.761  0.2610 -0.3701 -0.3378
56252DOPC   C3A85379   5.870   9.174  13.038  0.3279 -0.0078  0.1101
56252DOPC   C4A85380   5.682   9.515  13.327  0.2155 -0.1169  0.0161
56252DOPC   C1B85381   5.788   8.411  12.592  0.1080  0.2812 -0.0749
56252DOPC   D2B85382   5.803   8.709  12.895 -0.0052 -0.3184 -0.2597
56252DOPC   C3B85383   6.031   8.713  13.255  0.0106  0.1342  0.1011
56252DOPC   C4B85384   6.333   8.490  13.484  0.0266  0.1683  0.2130
56253DOPC   NC385385  25.408  18.958   0.709  0.1291 -0.0761 -0.0081
56253DOPC   PO485386  25.866  19.033   0.476  0.2323 -0.1949 -0.3507
56253DOPC   GL185387  25.836  19.111   0.893  0.1061  0.1215  0.0022
56253DOPC   GL285388  25.882  18.820   1.027 -0.0206  0.3181 -0.0230
56253DOPC   C1A85389  26.254  19.126   1.158  0.1004 -0.2117  0.2201
56253DOPC   D2A85390  26.618  19.000   1.192 -0.0627 -0.1885  0.4018
56253DOPC   C3A85391  26.805  19.063   1.525 -0.0388 -0.1986 -0.0001
56253DOPC   C4A85392  26.926  19.492   1.610  0.0532 -0.0787  0.0489
56253DOPC   C1B85393  25.916  18.791   1.457 -0.0832  0.2032  0.1531
56253DOPC   D2B85394  25.893  18.795   1.916  0.3095 -0.1418  0.0865
56253DOPC   C3B85395  26.223  18.762   2.132 -0.1087 -0.0741  0.1876
56253DOPC   C4B85396  26.518  18.566   2.450 -0.0357  0.1522  0.2105
56254DOPC   NC385397  12.751  34.957  13.362 -0.0369 -0.2066 -0.0548
56254DOPC   PO485398  12.804  35.322  13.707  0.0467  0.1239  0.3335
56254DOPC   GL185399  12.867   0.218  14.107  0.1839 -0.0594  0.0787
56254DOPC   GL285400  12.792   0.496  14.162 -0.2934  0.0164 -0.1064
56254DOPC   C1A85401  13.192   0.291  14.489 -0.0589  0.1337 -0.3586
56254DOPC   D2A85402  13.278   0.575  14.833 -0.1441  0.3288 -0.1515
56254DOPC   C3A85403  13.350   0.363  15.205 -0.0761 -0.0090 -0.2188
56254DOPC   C4A85404  13.622   0.180  15.484  0.0136 -0.0782  0.4738
56254DOPC   C1B85405  12.813   0.808  14.538 -0.0281 -0.1294  0.2987
56254DOPC   D2B85406  12.886   0.968  14.956  0.2859 -0.0012  0.0792
56254DOPC   C3B85407  13.237   0.903  15.262 -0.5965 -0.0564 -0.2749
56254DOPC   C4B85408  13.616   0.814  15.229  0.0658  0.1385 -0.1689
56255DOPC   NC385409  19.041  28.820   9.535 -0.0382 -0.1468  0.0191
56255DOPC   PO485410  18.701  29.194   9.453 -0.0930 -0.0527  0.1629
56255DOPC   GL185411  18.769  29.553   9.810  0.1757  0.0469  0.0756
56255DOPC   GL285412  18.635  29.471  10.103  0.1318 -0.1675 -0.4437
56255DOPC   C1A85413  19.142  29.739  10.072  0.1769 -0.0640 -0.0273
56255DOPC   D2A85414  19.427  29.686  10.411  0.1321 -0.0050 -0.1937
56255DOPC   C3A85415  19.610  29.351  10.701  0.0054  0.1354 -0.3195
56255DOPC   C4A85416  19.999  29.076  10.704 -0.1541 -0.1702 -0.0481
56255DOPC   C1B85417  19.019  29.274  10.376 -0.1724 -0.3181 -0.4291
56255DOPC   D2B85418  19.141  29.050  10.797  0.2493  0.0214 -0.2856
56255DOPC   C3B85419  18.952  29.152  11.084  0.3491  0.0320 -0.2896
56255DOPC   C4B85420  19.017  29.080  11.558  0.0557 -0.0642  0.0695
56256DOPC   NC385421  18.837  21.279  12.065  0.0988 -0.2132  0.2530
56256DOPC   PO485422  18.918  21.576  12.276  0.0401  0.0494  0.0928
56256DOPC   GL185423  19.245  21.414  12.398  0.0772 -0.2099  0.1531
56256DOPC   GL285424  19.349  21.199  12.203  0.1072 -0.1215  0.0541
56256DOPC   C1A85425  19.548  21.208  12.736  0.1490 -0.0038  0.0730
56256DOPC   D2A85426  19.846  21.060  13.033 -0.1962  0.0102 -0.3034
56256DOPC   C3A85427  19.866  21.418  13.353  0.2195 -0.1449 -0.1288
56256DOPC   C4A85428  20.087  21.803  13.647 -0.0805  0.2472 -0.1716
56256DOPC   C1B85429  19.764  21.308  12.308  0.2603 -0.0136  0.0165
56256DOPC   D2B85430  20.016  21.569  12.531  0.0443 -0.0059  0.1719
56256DOPC   C3B85431  20.303  21.393  12.928 -0.1616  0.1471 -0.0788
56256DOPC   C4B85432  20.327  21.115  13.214  0.0787 -0.0505 -0.0503
56257DOPC   NC385433   5.489  13.990   9.212  0.0984 -0.0494 -0.3502
56257DOPC   PO485434   5.569  13.634   9.585  0.1309  0.1350 -0.1125
56257DOPC   GL185435   5.196  13.824   9.611 -0.0923  0.0076  0.1638
56257DOPC   GL285436   5.171  13.679   9.912  0.1404  0.2514  0.0169
56257DOPC   C1A85437   4.811  13.911   9.625  0.2422 -0.1891 -0.2448
56257DOPC   D2A85438   4.467  13.803   9.544  0.0857 -0.0051 -0.1955
56257DOPC   C3A85439   4.094  13.881   9.465  0.1129 -0.0155  0.0036
56257DOPC   C4A85440   3.680  14.103   9.360 -0.2835  0.0825  0.0841
56257DOPC   C1B85441   4.721  13.486  10.017  0.1802 -0.0711 -0.0537
56257DOPC   D2B85442   4.270  13.378   9.810 -0.0432 -0.3387  0.3934
56257DOPC   C3B85443   3.888  13.091   9.984  0.2469  0.0625  0.2451
56257DOPC   C4B85444   3.482  13.272  10.090  0.1704  0.2226  0.0178
56258DOPC   NC385445   8.795  15.424  13.114 -0.2399 -0.2778  0.0806
56258DOPC   PO485446   9.159  15.089  13.318 -0.0097 -0.1297  0.2275
56258DOPC   GL185447   8.796  15.078  13.487 -0.1115 -0.0898 -0.1527
56258DOPC   GL285448   8.543  14.814  13.467 -0.0965 -0.0149  0.1376
56258DOPC   C1A85449   8.537  15.178  13.764 -0.0495 -0.2079  0.0446
56258DOPC   D2A85450   8.321  15.432  13.981 -0.1942 -0.0683  0.2541
56258DOPC   C3A85451   8.320  15.364  14.372 -0.0178  0.4124 -0.1613
56258DOPC   C4A85452   8.092  15.306  14.694 -0.3594 -0.3077  0.0431
56258DOPC   C1B85453   8.719  14.779  13.851  0.0057  0.0211 -0.0168
56258DOPC   D2B85454   8.666  15.000  14.217 -0.0521  0.0041  0.1161
56258DOPC   C3B85455   8.997  15.105  14.448 -0.3523  0.2565 -0.2780
56258DOPC   C4B85456   9.454  15.126  14.704  0.4351 -0.1167  0.1895
56259DOPC   NC385457   8.788  12.137  12.730  0.0376 -0.1676 -0.2059
56259DOPC   PO485458   8.784  12.491  13.116 -0.0799 -0.3392  0.0724
56259DOPC   GL185459   8.671  12.366  13.442 -0.1187 -0.0398  0.3018
56259DOPC   GL285460   8.482  12.100  13.382  0.1343 -0.0560  0.1118
56259DOPC   C1A85461   8.393  12.334  13.886 -0.2212 -0.0134  0.2572
56259DOPC   D2A85462   8.137  12.265  14.228  0.1523  0.0028 -0.2293
56259DOPC   C3A85463   7.902  12.379  14.553  0.0286  0.1364  0.0049
56259DOPC   C4A85464   7.428  12.302  14.780 -0.4048  0.2218 -0.0941
56259DOPC   C1B85465   8.754  11.964  13.798 -0.2321 -0.4040  0.2928
56259DOPC   D2B85466   8.406  11.826  14.073 -0.0631 -0.0143 -0.0994
56259DOPC   C3B85467   8.380  11.883  14.523 -0.1779 -0.4237  0.0976
56259DOPC   C4B85468   8.373  12.243  14.720 -0.0923  0.0510  0.0581
56260DOPC   NC385469  26.753  25.580   2.154  0.2030 -0.0154 -0.1679
56260DOPC   PO485470  26.369  25.354   1.974  0.0203  0.0355  0.0341
56260DOPC   GL185471  26.661  25.112   2.281 -0.0212  0.2145 -0.0173
56260DOPC   GL285472  26.594  24.804   2.332 -0.0218 -0.2458 -0.0178
56260DOPC   C1A85473  27.112  24.930   2.520  0.6721 -0.1924  0.0412
56260DOPC   D2A85474  27.435  24.572   2.469 -0.0150  0.1714 -0.1609
56260DOPC   C3A85475  27.693  24.443   2.777  0.0558  0.2342 -0.0795
56260DOPC   C4A85476  27.916  24.233   3.112  0.1934 -0.0259  0.0627
56260DOPC   C1B85477  26.681  24.911   2.774  0.0366  0.4345 -0.0325
56260DOPC   D2B85478  26.877  24.782   3.296  0.0393 -0.0574 -0.0775
56260DOPC   C3B85479  26.852  24.875   3.736  0.0500  0.0386  0.2438
56260DOPC   C4B85480  27.037  25.187   3.862  0.0494  0.3412  0.1732
56261DOPC   NC385481   3.305   8.653   7.637  0.2805 -0.3239  0.0229
56261DOPC   PO485482   2.922   8.796   7.595 -0.0840 -0.2468  0.4091
56261DOPC   GL185483   2.790   8.787   7.939 -0.2354 -0.2692 -0.1762
56261DOPC   GL285484   2.515   8.515   7.780 -0.0524  0.0510  0.0427
56261DOPC   C1A85485   2.628   8.680   8.337 -0.0840 -0.2822  0.2705
56261DOPC   D2A85486   2.395   8.768   8.673 -0.0399 -0.0868 -0.0713
56261DOPC   C3A85487   1.936   8.747   8.680  0.0066  0.1453 -0.2443
56261DOPC   C4A85488   1.587   8.840   8.958  0.2054  0.0040 -0.0414
56261DOPC   C1B85489   2.215   8.478   8.143 -0.0928 -0.3047  0.0969
56261DOPC   D2B85490   1.764   8.370   8.227 -0.1728 -0.1798 -0.0667
56261DOPC   C3B85491   1.575   8.742   8.275  0.1014  0.1608 -0.2003
56261DOPC   C4B85492   1.197   8.989   8.168 -0.5030 -0.3702 -0.0183
56262DOPC   NC385493  16.632  27.087  12.369 -0.0237  0.0358  0.1059
56262DOPC   PO485494  17.067  27.246  12.355  0.0356 -0.0578 -0.0788
56262DOPC   GL185495  17.245  27.451  12.707 -0.2827 -0.0118 -0.0139
56262DOPC   GL285496  17.506  27.383  12.848 -0.1959 -0.0249 -0.2168
56262DOPC   C1A85497  17.355  27.761  13.051 -0.0985 -0.2584  0.0730
56262DOPC   D2A85498  17.809  27.883  13.243  0.2208 -0.1346  0.0312
56262DOPC   C3A85499  17.796  27.912  13.659  0.0032  0.0914 -0.4244
56262DOPC   C4A85500  17.694  27.736  14.031 -0.1578  0.2493 -0.2241
56262DOPC   C1B85501  17.751  27.318  13.109  0.1602  0.1771  0.0023
56262DOPC   D2B85502  18.095  27.417  13.335  0.1393 -0.0399 -0.2274
56262DOPC   C3B85503  18.216  27.365  13.737  0.3383  0.0245  0.1055
56262DOPC   C4B85504  18.375  26.999  13.885  0.0982  0.3281 -0.1836
56263DOPC   NC385505   6.317  12.985  11.048  0.0257  0.1487 -0.1297
56263DOPC   PO485506   6.170  13.307  10.815  0.0877  0.0123 -0.2649
56263DOPC   GL185507   5.780  13.224  11.055 -0.0678 -0.3123  0.2643
56263DOPC   GL285508   5.677  12.993  10.858 -0.3384  0.2380  0.1521
56263DOPC   C1A85509   5.331  12.992  11.242  0.0706 -0.1536  0.1656
56263DOPC   D2A85510   4.975  12.844  11.321 -0.1767 -0.2601 -0.1421
56263DOPC   C3A85511   4.752  13.044  11.591  0.1161 -0.0601 -0.2879
56263DOPC   C4A85512   4.363  13.331  11.538 -0.1637 -0.0653 -0.0586
56263DOPC   C1B85513   5.133  13.069  10.750  0.2899  0.0801 -0.2150
56263DOPC   D2B85514   4.698  13.001  10.618 -0.1642 -0.2466 -0.0573
56263DOPC   C3B85515   4.389  12.735  10.626 -0.0813 -0.0810  0.0205
56263DOPC   C4B85516   4.181  12.385  10.849  0.0105 -0.1385 -0.1765
56264DOPC   NC385517  28.572  27.764   4.122 -0.1295 -0.0162  0.1901
56264DOPC   PO485518  28.168  27.953   4.232  0.2198  0.1012 -0.2292
56264DOPC   GL185519  28.457  28.040   4.558 -0.2035 -0.2398  0.0090
56264DOPC   GL285520  28.335  28.286   4.554  0.0726 -0.1403 -0.5612
56264DOPC   C1A85521  28.625  27.954   4.977 -0.0112  0.1481  0.2850
56264DOPC   D2A85522  28.611  27.804   5.247 -0.1715  0.1482  0.1355
56264DOPC   C3A85523  29.003  27.780   5.494 -0.1877  0.1007  0.1839
56264DOPC   C4A85524  29.229  27.976   5.820 -0.3929 -0.0028 -0.0897
56264DOPC   C1B85525  28.255  28.265   4.941 -0.0200  0.0245  0.0738
56264DOPC   D2B85526  27.848  28.133   5.129  0.3754 -0.0460 -0.1193
56264DOPC   C3B85527  27.747  27.917   5.468 -0.4083 -0.0106 -0.0318
56264DOPC   C4B85528  27.571  27.884   5.883  0.4530  0.0605 -0.1830
56265DOPC   NC385529  10.218   8.570  14.718  0.2608  0.3034  0.1664
56265DOPC   PO485530  10.196   8.133  14.546 -0.2076 -0.1113 -0.0400
56265DOPC   GL185531   9.940   8.188  14.950 -0.1779 -0.1475 -0.0632
56265DOPC   GL285532  10.074   8.358  15.127 -0.0680 -0.3368  0.0580
56265DOPC   C1A85533   9.746   8.098  15.441  0.1293  0.3038 -0.0979
56265DOPC   D2A85534   9.656   8.111  15.922  0.1072 -0.1102 -0.2556
56265DOPC   C3A85535   9.394   7.831  16.051 -0.0323 -0.1945 -0.3258
56265DOPC   C4A85536   9.221   7.652  16.426  0.1916 -0.0694 -0.3003
56265DOPC   C1B85537   9.977   8.599  15.500 -0.1837  0.0115 -0.1673
56265DOPC   D2B85538  10.061   8.671  15.859  0.1129 -0.0302 -0.0972
56265DOPC   C3B85539   9.811   8.475  16.176  0.0903 -0.0383  0.4721
56265DOPC   C4B85540   9.838   8.300  16.550  0.2337  0.1152 -0.0385
56266DOPC   NC385541  23.202   1.566   7.554  0.0402  0.0220  0.1984
56266DOPC   PO485542  23.597   1.871   7.561  0.0641 -0.1772 -0.0650
56266DOPC   GL185543  23.909   1.787   7.895 -0.0493 -0.1309 -0.0932
56266DOPC   GL285544  23.793   2.146   8.052 -0.0347 -0.4344  0.1005
56266DOPC   C1A85545  23.879   1.425   8.139  0.1547 -0.3530  0.2003
56266DOPC   D2A85546  23.674   1.318   8.448 -0.0056 -0.1308  0.3079
56266DOPC   C3A85547  23.710   1.112   8.765  0.1502 -0.1389  0.2761
56266DOPC   C4A85548  23.961   1.246   9.035 -0.3638 -0.1239  0.0301
56266DOPC   C1B85549  23.824   1.830   8.401 -0.0851  0.1666 -0.0479
56266DOPC   D2B85550  23.973   1.651   8.682  0.0564  0.1262 -0.0614
56266DOPC   C3B85551  23.982   1.722   9.077  0.2849  0.0109  0.2906
56266DOPC   C4B85552  23.924   1.814   9.427  0.0379 -0.0819 -0.1281
56267DOPC   NC385553  23.972  32.454   5.983 -0.1896 -0.1032  0.2350
56267DOPC   PO485554  23.784  32.455   6.393  0.0820  0.0381 -0.2533
56267DOPC   GL185555  23.551  32.538   6.791 -0.0698  0.0336 -0.1884
56267DOPC   GL285556  23.656  32.190   6.832 -0.0603  0.0760 -0.0444
56267DOPC   C1A85557  23.571  32.598   7.196  0.0284 -0.0472 -0.0936
56267DOPC   D2A85558  23.750  32.896   7.222 -0.2140 -0.2350  0.0813
56267DOPC   C3A85559  23.906  32.894   7.665  0.0768  0.1648 -0.1747
56267DOPC   C4A85560  24.183  32.929   7.961 -0.1045  0.1161  0.0195
56267DOPC   C1B85561  23.368  32.086   7.169 -0.0581 -0.0838 -0.2566
56267DOPC   D2B85562  23.134  32.156   7.572  0.0681 -0.3867  0.3943
56267DOPC   C3B85563  23.190  32.091   7.914  0.1633  0.0588  0.0399
56267DOPC   C4B85564  23.440  31.957   8.251 -0.0498 -0.3267  0.0943
56268DOPC   NC385565  22.677  17.270   3.085  0.0223  0.2471  0.1843
56268DOPC   PO485566  22.517  17.600   3.411  0.2084  0.3430 -0.2549
56268DOPC   GL185567  22.864  17.265   3.554 -0.2686 -0.3329  0.0170
56268DOPC   GL285568  23.066  17.456   3.695 -0.1741 -0.1182  0.4048
56268DOPC   C1A85569  23.189  16.965   3.537  0.2859 -0.0850 -0.0657
56268DOPC   D2A85570  23.694  17.018   3.709  0.0688 -0.2000 -0.4365
56268DOPC   C3A85571  23.814  16.738   4.163  0.1507 -0.0969 -0.0518
56268DOPC   C4A85572  24.087  16.928   4.420 -0.0466 -0.1634  0.2696
56268DOPC   C1B85573  23.463  17.417   3.949  0.1499  0.0034 -0.1062
56268DOPC   D2B85574  23.915  17.343   4.041  0.0842 -0.3133 -0.1264
56268DOPC   C3B85575  24.232  17.080   3.927  0.3774 -0.0640  0.2299
56268DOPC   C4B85576  24.331  16.674   3.890 -0.0839  0.4443 -0.2203
56269DOPC   NC385577  11.022  35.015  15.022 -0.1296 -0.2019  0.0613
56269DOPC   PO485578  10.983  34.814  15.396  0.4466 -0.0597 -0.0620
56269DOPC   GL185579  11.272  35.114  15.708  0.0211 -0.0865 -0.0501
56269DOPC   GL285580  11.549  35.168  15.819  0.0148  0.1025 -0.1471
56269DOPC   C1A85581  11.147  35.286  16.076  0.1951  0.1614 -0.1066
56269DOPC   D2A85582  11.336  35.244  16.500  0.0596  0.0486 -0.1062
56269DOPC   C3A85583  11.326   0.188  16.804  0.0864  0.0610 -0.0299
56269DOPC   C4A85584  11.560   0.273  17.186  0.2248  0.0925 -0.1410
56269DOPC   C1B85585  11.597   0.112  16.080  0.1422  0.0935  0.2967
56269DOPC   D2B85586  11.602   0.243  16.371  0.1039  0.1489 -0.2693
56269DOPC   C3B85587  11.477   0.608  16.473 -0.1086 -0.0764  0.0683
56269DOPC   C4B85588  11.139   0.768  16.326 -0.0577  0.1469  0.3312
56270DOPC   NC385589  32.890  10.318   1.930 -0.0027  0.2623 -0.1344
56270DOPC   PO485590  33.225  10.573   2.065 -0.2471  0.3327  0.3878
56270DOPC   GL185591  33.042  10.357   2.488  0.0490  0.0548 -0.1410
56270DOPC   GL285592  33.144  10.112   2.732 -0.0194 -0.1276 -0.1616
56270DOPC   C1A85593  32.617  10.623   2.655 -0.0859  0.0425  0.0278
56270DOPC   D2A85594  32.350  10.745   3.039 -0.1440  0.3443 -0.1471
56270DOPC   C3A85595  32.246  11.156   3.062 -0.1878  0.2882 -0.0387
56270DOPC   C4A85596  32.303  11.720   3.087  0.0115 -0.1148 -0.2996
56270DOPC   C1B85597  33.194  10.363   3.142  0.2197  0.0735  0.0717
56270DOPC   D2B85598  33.226  10.530   3.531  0.0265  0.0745  0.1088
56270DOPC   C3B85599  32.808  10.572   3.815 -0.0886  0.2039  0.1440
56270DOPC   C4B85600  32.566  10.315   4.002 -0.1013  0.0466  0.0047
56271DOPC   NC385601   2.480  28.491  11.005 -0.0099 -0.1746 -0.2091
56271DOPC   PO485602   2.379  28.897  10.944  0.1152  0.0892  0.1602
56271DOPC   GL185603   2.163  28.995  11.342 -0.0874 -0.0320  0.1810
56271DOPC   GL285604   2.234  28.660  11.429 -0.1161  0.2650  0.1505
56271DOPC   C1A85605   1.800  28.743  11.571  0.0968 -0.0453  0.1908
56271DOPC   D2A85606   1.539  28.327  11.840 -0.0784  0.1740 -0.0855
56271DOPC   C3A85607   1.189  28.388  12.035 -0.1227 -0.2371 -0.1805
56271DOPC   C4A85608   0.770  28.580  12.093 -0.2847 -0.0822 -0.1772
56271DOPC   C1B85609   2.083  28.352  11.696  0.0086  0.2128  0.2607
56271DOPC   D2B85610   1.854  28.076  12.065  0.1003  0.1795  0.3618
56271DOPC   C3B85611   1.478  28.024  12.249  0.0016  0.0777  0.1566
56271DOPC   C4B85612   1.139  28.070  12.521 -0.2915 -0.0504  0.1886
56272DOPC   NC385613   3.311  12.043   4.599  0.1585  0.3878  0.0810
56272DOPC   PO485614   2.881  11.972   4.821 -0.0334  0.1119 -0.0254
56272DOPC   GL185615   2.529  12.012   5.182 -0.4796  0.4247 -0.0716
56272DOPC   GL285616   2.247  12.058   5.048 -0.0006  0.0970 -0.0028
56272DOPC   C1A85617   2.654  11.997   5.589  0.0411  0.0751 -0.1227
56272DOPC   D2A85618   2.518  11.982   6.117 -0.1748 -0.3116 -0.0494
56272DOPC   C3A85619   2.143  12.110   6.414  0.0642 -0.3064 -0.3676
56272DOPC   C4A85620   1.869  12.525   6.419 -0.0368 -0.3476 -0.0296
56272DOPC   C1B85621   1.830  12.092   5.252 -0.3219 -0.2901  0.1154
56272DOPC   D2B85622   1.674  12.148   5.674  0.0272  0.1835 -0.0880
56272DOPC   C3B85623   1.784  11.944   6.100  0.2322  0.2797  0.0815
56272DOPC   C4B85624   1.562  11.520   6.221 -0.1985 -0.1030 -0.0314
56273DOPC   NC385625  25.385  12.599   1.430 -0.1407 -0.0584  0.0043
56273DOPC   PO485626  25.401  12.485   1.908  0.0011  0.0882  0.0969
56273DOPC   GL185627  25.848  12.596   2.078  0.1583  0.1640  0.3559
56273DOPC   GL285628  25.694  12.397   2.393 -0.0541 -0.2427 -0.1598
56273DOPC   C1A85629  26.278  12.660   2.280 -0.1475  0.4827  0.0883
56273DOPC   D2A85630  26.637  12.877   2.400 -0.0108  0.0724 -0.1466
56273DOPC   C3A85631  26.872  13.031   2.804 -0.4150  0.2030 -0.2406
56273DOPC   C4A85632  26.999  13.005   3.237  0.1829 -0.1930 -0.2071
56273DOPC   C1B85633  25.893  12.489   2.745  0.0858 -0.0263 -0.1870
56273DOPC   D2B85634  26.050  12.624   3.172  0.0984 -0.2006 -0.0043
56273DOPC   C3B85635  26.350  12.505   3.439  0.2858 -0.0899  0.2504
56273DOPC   C4B85636  26.775  12.611   3.504  0.1376 -0.4287  0.0754
56274DOPC   NC385637  28.598  12.779   0.546 -0.0261  0.0015 -0.0139
56274DOPC   PO485638  29.057  12.828   0.538 -0.1946 -0.3549  0.2278
56274DOPC   GL185639  29.346  12.722   0.793 -0.0231 -0.0693 -0.0066
56274DOPC   GL285640  29.249  12.473   1.055  0.1097 -0.3016 -0.0494
56274DOPC   C1A85641  29.516  12.922   1.168 -0.1534  0.0845 -0.1522
56274DOPC   D2A85642  29.593  12.972   1.583  0.1568 -0.1607  0.1273
56274DOPC   C3A85643  29.872  13.222   1.766 -0.0380  0.5134 -0.0485
56274DOPC   C4A85644  30.189  13.526   1.962  0.1582  0.0899 -0.1822
56274DOPC   C1B85645  29.183  12.663   1.495 -0.2361 -0.0373 -0.1896
56274DOPC   D2B85646  29.260  12.755   1.871  0.2087 -0.2136 -0.1562
56274DOPC   C3B85647  29.446  13.171   2.081 -0.3720  0.0205  0.2278
56274DOPC   C4B85648  29.872  13.238   2.271  0.2093  0.0007 -0.1258
56275DOPC   NC385649  25.457  11.886   2.133 -0.0611  0.0794  0.0855
56275DOPC   PO485650  25.906  11.603   1.937  0.1494  0.1132  0.2961
56275DOPC   GL185651  25.971  11.837   2.225 -0.1769 -0.1065  0.0984
56275DOPC   GL285652  26.190  12.061   2.206 -0.1596 -0.2005  0.2556
56275DOPC   C1A85653  26.020  11.884   2.676  0.1773 -0.2184 -0.1895
56275DOPC   D2A85654  26.229  12.025   3.084  0.1977  0.3583 -0.0679
56275DOPC   C3A85655  26.657  12.206   3.056 -0.1933  0.0199 -0.0387
56275DOPC   C4A85656  26.892  12.504   2.916 -0.0599  0.3244  0.1335
56275DOPC   C1B85657  26.477  12.258   2.539  0.0691  0.2241  0.1586
56275DOPC   D2B85658  26.388  12.650   2.781 -0.1041  0.1277 -0.0016
56275DOPC   C3B85659  26.549  12.812   3.082 -0.1834 -0.0332  0.0797
56275DOPC   C4B85660  26.518  13.048   3.372 -0.4487  0.1507 -0.0482
56276DOPC   NC385661  27.461   4.573   4.558  0.0510 -0.0465  0.3478
56276DOPC   PO485662  27.581   4.895   4.827 -0.1187 -0.0970  0.0137
56276DOPC   GL185663  27.719   4.978   5.185  0.2197  0.0220  0.2658
56276DOPC   GL285664  27.566   5.198   5.262  0.0548  0.0024  0.2617
56276DOPC   C1A85665  27.947   4.980   5.544  0.3920  0.0421  0.0131
56276DOPC   D2A85666  27.972   5.128   6.029  0.1240  0.1066 -0.2780
56276DOPC   C3A85667  28.014   5.540   6.069  0.1210 -0.0365  0.3015
56276DOPC   C4A85668  28.211   5.768   6.402  0.2712 -0.1411 -0.1875
56276DOPC   C1B85669  27.560   5.425   5.689  0.0419  0.3849 -0.0141
56276DOPC   D2B85670  27.550   5.724   6.042 -0.3820 -0.1533  0.1162
56276DOPC   C3B85671  27.227   5.983   6.003  0.1437 -0.0357  0.1860
56276DOPC   C4B85672  26.827   6.022   5.739 -0.0722  0.1252 -0.2973
56277DOPC   NC385673   9.185   3.313  14.780  0.2512  0.0806 -0.2020
56277DOPC   PO485674   9.655   3.138  14.949 -0.3067 -0.0156 -0.0555
56277DOPC   GL185675   9.432   3.234  15.276 -0.2250 -0.2074 -0.1386
56277DOPC   GL285676   9.140   3.434  15.246 -0.1123 -0.1968 -0.1088
56277DOPC   C1A85677   9.488   3.141  15.702 -0.0819 -0.1848  0.1657
56277DOPC   D2A85678   9.596   3.016  16.126  0.1482 -0.1175 -0.1351
56277DOPC   C3A85679   9.591   3.390  16.423  0.0312 -0.0249 -0.2503
56277DOPC   C4A85680   9.625   3.534  16.815  0.2139 -0.0532  0.0878
56277DOPC   C1B85681   9.093   3.524  15.601 -0.1875 -0.0374  0.0666
56277DOPC   D2B85682   9.253   3.508  16.053 -0.3887  0.1433  0.1831
56277DOPC   C3B85683   8.880   3.724  16.194 -0.1892 -0.0423  0.0037
56277DOPC   C4B85684   8.594   3.648  16.480  0.0149 -0.0010  0.0585
56278DOPC   NC385685   5.565   7.926   9.947  0.0697 -0.0779  0.2537
56278DOPC   PO485686   5.176   8.009  10.160 -0.0486 -0.0038 -0.2757
56278DOPC   GL185687   4.807   8.103  10.404 -0.0203  0.0354 -0.1462
56278DOPC   GL285688   4.441   7.971  10.279 -0.1991  0.0419  0.1509
56278DOPC   C1A85689   4.677   8.177  10.811  0.1107 -0.1465 -0.0264
56278DOPC   D2A85690   4.356   8.354  11.201 -0.0622  0.2968  0.1515
56278DOPC   C3A85691   3.935   8.205  11.318  0.3301  0.0700 -0.1811
56278DOPC   C4A85692   3.502   8.214  11.391  0.0561 -0.0534 -0.1225
56278DOPC   C1B85693   4.231   7.989  10.655  0.6014  0.1023  0.0231
56278DOPC   D2B85694   3.848   7.836  10.898 -0.0491  0.0997  0.0800
56278DOPC   C3B85695   3.718   7.725  11.255 -0.0835  0.2611  0.2161
56278DOPC   C4B85696   3.712   7.473  11.516 -0.0871 -0.0551 -0.1230
56279DOPC   NC385697   9.400  34.826  16.469  0.0622  0.2874  0.1380
56279DOPC   PO485698   9.502  35.236  16.557 -0.0105 -0.1827 -0.1898
56279DOPC   GL185699   9.580  35.172  16.918  0.1322 -0.1032 -0.1131
56279DOPC   GL285700   9.551  34.940  16.995  0.2607 -0.0684  0.2364
56279DOPC   C1A85701   9.884  35.245  17.243 -0.0999 -0.0111 -0.1058
56279DOPC   D2A85702  10.019   0.055  17.716 -0.0988 -0.1974 -0.1476
56279DOPC   C3A85703  10.378   0.305  17.835 -0.0520 -0.1459  0.2802
56279DOPC   C4A85704  10.719   0.553  17.931  0.1226 -0.0479 -0.0930
56279DOPC   C1B85705   9.479  34.882  17.497  0.1429  0.1403  0.2666
56279DOPC   D2B85706   9.462  35.098  17.805 -0.0050 -0.0557 -0.3495
56279DOPC   C3B85707   9.517   0.035  17.575  0.1764 -0.1047 -0.2698
56279DOPC   C4B85708   9.382   0.143  17.215  0.2940  0.1820 -0.2295
56280DOPC   NC385709  12.691  11.624  14.363 -0.0314 -0.1105 -0.1739
56280DOPC   PO485710  12.963  11.898  14.513 -0.3731  0.1497  0.1237
56280DOPC   GL185711  12.587  12.067  14.659  0.2323  0.3281  0.0643
56280DOPC   GL285712  12.384  11.826  14.767 -0.2157  0.1203  0.1971
56280DOPC   C1A85713  12.597  12.223  15.093  0.1462  0.0882 -0.0016
56280DOPC   D2A85714  12.450  12.317  15.497 -0.1552 -0.0282 -0.0211
56280DOPC   C3A85715  12.595  12.383  15.987 -0.3486  0.1405  0.0226
56280DOPC   C4A85716  12.650  12.240  16.408  0.0823  0.0097 -0.0807
56280DOPC   C1B85717  12.209  11.864  15.254  0.1965 -0.0911 -0.2252
56280DOPC   D2B85718  12.149  11.926  15.763  0.0211  0.0915 -0.0566
56280DOPC   C3B85719  12.030  11.692  16.181 -0.1201  0.0784 -0.0230
56280DOPC   C4B85720  11.847  11.894  16.520  0.1438 -0.0570  0.3101
56281DOPC   NC385721  32.448  15.212   1.012 -0.0641 -0.2062  0.2813
56281DOPC   PO485722  32.588  14.851   1.006 -0.2971 -0.1264 -0.3099
56281DOPC   GL185723  32.365  14.852   1.448 -0.1798 -0.1052 -0.3987
56281DOPC   GL285724  32.568  14.767   1.743 -0.0910  0.1675  0.0812
56281DOPC   C1A85725  32.019  14.889   1.680  0.1504  0.0850  0.0708
56281DOPC   D2A85726  31.945  14.862   2.146 -0.0113  0.1762  0.0594
56281DOPC   C3A85727  31.604  15.044   2.389 -0.0356 -0.2807  0.1957
56281DOPC   C4A85728  31.343  15.231   2.805 -0.0353  0.1059  0.0863
56281DOPC   C1B85729  32.448  14.742   2.089  0.2077  0.2834 -0.1760
56281DOPC   D2B85730  32.217  14.682   2.553  0.0247 -0.3384 -0.3381
56281DOPC   C3B85731  31.856  14.907   2.821  0.3860 -0.3059  0.3153
56281DOPC   C4B85732  31.595  14.905   3.123 -0.0463  0.0131  0.1623
56282DOPC   NC385733   4.935  13.402   7.362  0.0242  0.1039  0.1542
56282DOPC   PO485734   4.568  13.261   7.683  0.0123 -0.0361  0.0343
56282DOPC   GL185735   4.136  13.449   7.897 -0.0487 -0.2585  0.0761
56282DOPC   GL285736   4.004  13.545   7.601  0.0038 -0.1056 -0.3029
56282DOPC   C1A85737   3.700  13.404   8.170 -0.1234  0.0718 -0.0745
56282DOPC   D2A85738   3.345  13.359   8.492 -0.0300  0.1901 -0.1251
56282DOPC   C3A85739   3.036  13.600   8.417  0.0792  0.2791  0.0626
56282DOPC   C4A85740   2.691  13.776   8.570 -0.3780 -0.1134 -0.0434
56282DOPC   C1B85741   3.488  13.611   7.788 -0.1095  0.0601 -0.2125
56282DOPC   D2B85742   3.180  13.773   7.954 -0.2103 -0.0652 -0.2087
56282DOPC   C3B85743   2.800  13.788   8.041  0.1774 -0.0521 -0.0192
56282DOPC   C4B85744   2.481  13.757   7.653 -0.1456 -0.0389  0.0245
56283DOPC   NC385745   1.454  22.586   3.275 -0.0708  0.2671  0.0548
56283DOPC   PO485746   1.496  22.481   3.705 -0.2382 -0.1405  0.1527
56283DOPC   GL185747   1.168  22.505   3.726  0.1609  0.0256  0.1625
56283DOPC   GL285748   1.000  22.793   3.488 -0.2488 -0.0433 -0.3787
56283DOPC   C1A85749   0.867  22.691   4.073 -0.0982 -0.2406 -0.1691
56283DOPC   D2A85750   0.790  22.510   4.489 -0.0598  0.1587 -0.0707
56283DOPC   C3A85751   0.521  22.552   4.738  0.0501 -0.1602 -0.2639
56283DOPC   C4A85752   0.186  22.661   5.026 -0.2036  0.2392  0.1146
56283DOPC   C1B85753   0.601  22.679   3.639 -0.0530  0.0662  0.2611
56283DOPC   D2B85754   0.437  22.452   3.815 -0.0289 -0.0676 -0.0918
56283DOPC   C3B85755   0.406  22.552   4.139 -0.0807 -0.1424  0.2551
56283DOPC   C4B85756   0.507  22.892   4.343  0.0016 -0.1058 -0.1080
56284DOPC   NC385757  18.436  15.763  11.929 -0.2422 -0.3260  0.2100
56284DOPC   PO485758  18.447  15.439  12.120  0.1804  0.1511  0.0250
56284DOPC   GL185759  18.710  15.381  12.473 -0.1294 -0.0511 -0.1473
56284DOPC   GL285760  18.641  15.128  12.609  0.1572  0.1416  0.2679
56284DOPC   C1A85761  19.070  15.436  12.788 -0.2480  0.1956  0.0353
56284DOPC   D2A85762  19.409  15.277  13.082 -0.1735  0.0103 -0.2250
56284DOPC   C3A85763  19.775  15.142  12.905 -0.1076  0.1195 -0.1792
56284DOPC   C4A85764  20.001  15.101  12.569 -0.1534 -0.0394 -0.0777
56284DOPC   C1B85765  18.919  15.064  13.059 -0.0158 -0.0758  0.0645
56284DOPC   D2B85766  19.166  14.938  13.432 -0.4122 -0.0008 -0.2895
56284DOPC   C3B85767  19.459  15.239  13.591 -0.2666 -0.3052 -0.0854
56284DOPC   C4B85768  19.621  15.607  13.871 -0.1389 -0.0078  0.1519
56285DOPC   NC385769  16.173  30.804  11.314 -0.5189  0.1137 -0.0118
56285DOPC   PO485770  16.670  30.678  11.467  0.2528 -0.3411  0.1732
56285DOPC   GL185771  16.910  30.645  11.740  0.3048  0.0275 -0.1141
56285DOPC   GL285772  17.032  30.345  11.865  0.1253 -0.0788 -0.0730
56285DOPC   C1A85773  17.114  30.832  12.086 -0.0018  0.1116  0.0490
56285DOPC   D2A85774  17.507  30.915  12.193 -0.1540 -0.1211 -0.0398
56285DOPC   C3A85775  17.558  31.136  12.572 -0.1159  0.0565 -0.2238
56285DOPC   C4A85776  17.738  31.350  12.963  0.0630 -0.1634 -0.2002
56285DOPC   C1B85777  17.416  30.256  12.138  0.1731  0.0707  0.0073
56285DOPC   D2B85778  17.723  30.454  12.417 -0.2882 -0.2800  0.1368
56285DOPC   C3B85779  18.096  30.437  12.557  0.1831 -0.0309 -0.0740
56285DOPC   C4B85780  18.418  30.525  12.758  0.0621 -0.0345 -0.4698
56286DOPC   NC385781  15.632  20.254  14.697  0.1548  0.1940  0.1111
56286DOPC   PO485782  16.042  20.412  14.918 -0.3738 -0.0584  0.3506
56286DOPC   GL185783  16.421  20.233  15.041 -0.1859 -0.0837 -0.0882
56286DOPC   GL285784  16.300  20.150  15.265 -0.4260  0.1457 -0.2033
56286DOPC   C1A85785  16.764  20.117  15.391 -0.1806 -0.0241  0.0517
56286DOPC   D2A85786  16.836  20.029  15.780  0.1524 -0.0728  0.2410
56286DOPC   C3A85787  17.127  19.754  15.988 -0.0787  0.2604  0.0008
56286DOPC   C4A85788  17.381  19.816  16.312 -0.0863  0.3369 -0.1408
56286DOPC   C1B85789  16.362  19.825  15.616 -0.0422  0.2742  0.0989
56286DOPC   D2B85790  16.625  19.629  15.956 -0.1286 -0.1619  0.3921
56286DOPC   C3B85791  16.759  19.263  16.002  0.1052 -0.0214  0.3416
56286DOPC   C4B85792  16.894  18.999  16.389  0.2787  0.0821  0.1149
56287DOPC   NC385793   9.305   9.544  14.399 -0.2072  0.0266  0.1920
56287DOPC   PO485794   9.026   9.201  14.194 -0.3455 -0.2418 -0.4185
56287DOPC   GL185795   9.028   8.843  14.372 -0.2545  0.0507  0.0297
56287DOPC   GL285796   8.754   8.800  14.507  0.0459  0.1551 -0.1945
56287DOPC   C1A85797   9.091   8.619  14.751  0.0451  0.0012  0.3779
56287DOPC   D2A85798   9.034   8.153  14.823  0.1610 -0.2309  0.1038
56287DOPC   C3A85799   8.897   8.029  15.291  0.0443  0.0386  0.1269
56287DOPC   C4A85800   8.525   7.930  15.581 -0.0341 -0.1079  0.0283
56287DOPC   C1B85801   8.699   8.805  15.003 -0.2295 -0.0372 -0.0617
56287DOPC   D2B85802   8.577   8.812  15.496 -0.0882 -0.0938  0.0232
56287DOPC   C3B85803   8.504   9.098  15.771  0.0128  0.1116 -0.2590
56287DOPC   C4B85804   8.535   9.078  16.179 -0.1255 -0.1752  0.0087
56288DOPC   NC385805  28.257  27.667   3.451 -0.2212 -0.1744  0.0956
56288DOPC   PO485806  28.393  27.436   3.713 -0.2487  0.0128  0.2209
56288DOPC   GL185807  28.370  27.293   4.180  0.2064 -0.0179  0.1085
56288DOPC   GL285808  28.321  27.523   4.478 -0.2108  0.0735  0.1989
56288DOPC   C1A85809  28.538  26.879   4.242  0.0370  0.0283 -0.3506
56288DOPC   D2A85810  28.625  26.556   4.527  0.0714 -0.4565  0.1182
56288DOPC   C3A85811  28.363  26.435   4.923 -0.0795  0.0470  0.2823
56288DOPC   C4A85812  27.964  26.204   5.174  0.1674 -0.0389  0.1134
56288DOPC   C1B85813  28.123  27.262   4.668  0.1409 -0.0521 -0.1418
56288DOPC   D2B85814  28.211  26.788   4.626  0.0616  0.2119 -0.2118
56288DOPC   C3B85815  27.837  26.527   4.791  0.4064  0.3371  0.1275
56288DOPC   C4B85816  27.644  26.641   5.107 -0.1175  0.3671 -0.2987
56289DOPC   NC385817  15.438   1.926  12.305 -0.0616 -0.2932 -0.0884
56289DOPC   PO485818  15.219   2.282  12.381 -0.0919 -0.1895  0.1703
56289DOPC   GL185819  15.493   2.285  12.810 -0.0628 -0.0187 -0.4924
56289DOPC   GL285820  15.797   2.307  12.616  0.0611 -0.2311 -0.1736
56289DOPC   C1A85821  15.671   2.100  13.220  0.2863  0.2141 -0.0212
56289DOPC   D2A85822  15.888   2.085  13.599  0.1021 -0.1261  0.1255
56289DOPC   C3A85823  15.775   2.367  13.974  0.1486 -0.1023  0.0495
56289DOPC   C4A85824  16.057   2.571  14.267 -0.0765 -0.3559  0.1365
56289DOPC   C1B85825  16.041   2.210  12.899  0.0837 -0.3060  0.2281
56289DOPC   D2B85826  16.300   2.128  13.275  0.0997  0.1304  0.1027
56289DOPC   C3B85827  16.438   2.504  13.339  0.2608  0.3887 -0.2760
56289DOPC   C4B85828  16.764   2.743  13.546  0.2153 -0.0843  0.0901
56290DOPC   NC385829  22.029   1.821   8.246 -0.3464 -0.2428 -0.0218
56290DOPC   PO485830  21.938   1.415   8.307  0.2860  0.1898 -0.1303
56290DOPC   GL185831  21.786   1.502   8.731  0.2180  0.0298  0.1994
56290DOPC   GL285832  21.886   1.857   8.718  0.0699  0.1602 -0.2098
56290DOPC   C1A85833  21.817   1.671   9.162 -0.1244 -0.1196 -0.1087
56290DOPC   D2A85834  21.721   2.012   9.412  0.1862 -0.0192 -0.1408
56290DOPC   C3A85835  21.548   1.977   9.767  0.1597 -0.1047 -0.0379
56290DOPC   C4A85836  21.765   2.046  10.150  0.0328 -0.0441 -0.0520
56290DOPC   C1B85837  22.151   2.036   9.060 -0.0330  0.1699 -0.2708
56290DOPC   D2B85838  22.249   2.137   9.491 -0.0027  0.0592 -0.1866
56290DOPC   C3B85839  22.535   1.777   9.818  0.4094 -0.4199 -0.1187
56290DOPC   C4B85840  22.863   1.498  10.043 -0.2219 -0.0145 -0.0854
56291DOPC   NC385841  30.597   8.235   2.501  0.0206 -0.1445 -0.0687
56291DOPC   PO485842  30.584   7.901   2.747 -0.0410  0.2387 -0.1850
56291DOPC   GL185843  30.543   7.948   3.103  0.0710 -0.2703  0.0589
56291DOPC   GL285844  30.109   8.028   3.038  0.0806  0.0971 -0.0829
56291DOPC   C1A85845  30.707   8.243   3.520  0.1395  0.0453 -0.1173
56291DOPC   D2A85846  31.069   8.383   3.775  0.0803 -0.2071 -0.0153
56291DOPC   C3A85847  31.025   8.153   4.171 -0.2189 -0.2473  0.2869
56291DOPC   C4A85848  30.885   8.300   4.599 -0.3204  0.2139 -0.1556
56291DOPC   C1B85849  30.113   8.052   3.485  0.0822  0.0024  0.0899
56291DOPC   D2B85850  30.161   8.310   3.826 -0.2161  0.0759  0.1906
56291DOPC   C3B85851  30.627   8.444   3.958 -0.1598  0.1135  0.0745
56291DOPC   C4B85852  30.870   8.739   4.096  0.1504 -0.2264  0.7180
56292DOPC   NC385853  11.437  23.642  17.926  0.2747  0.2404  0.0296
56292DOPC   PO485854  11.531  23.656  18.330 -0.2716 -0.0457 -0.1474
56292DOPC   GL185855  11.483  23.442  18.595 -0.0681  0.0315 -0.2062
56292DOPC   GL285856  11.180  23.450  18.705 -0.0715 -0.1440 -0.2945
56292DOPC   C1A85857  11.625  23.241  18.933  0.0134  0.1946  0.0343
56292DOPC   D2A85858  11.754  23.067  19.313 -0.2933 -0.0784  0.0759
56292DOPC   C3A85859  11.716  22.942  19.761 -0.0260  0.0439  0.0431
56292DOPC   C4A85860  11.317  22.737  19.991 -0.2114 -0.0854  0.0660
56292DOPC   C1B85861  11.256  23.551  19.081 -0.0617 -0.3314  0.2573
56292DOPC   D2B85862  11.362  23.395  19.522  0.1959  0.2503  0.1400
56292DOPC   C3B85863  11.310  23.788  19.746 -0.1749  0.2296 -0.3005
56292DOPC   C4B85864  11.164  23.836  20.164  0.1420 -0.3215 -0.1524
56293DOPC   NC385865   6.082  18.714   8.048  0.1953  0.2619  0.2326
56293DOPC   PO485866   6.188  18.586   8.472  0.2188  0.0420  0.2155
56293DOPC   GL185867   5.892  18.694   8.804  0.0152  0.0234 -0.1723
56293DOPC   GL285868   5.910  18.908   9.044 -0.4887 -0.0268 -0.0730
56293DOPC   C1A85869   5.438  18.809   8.804 -0.0472  0.2480  0.1270
56293DOPC   D2A85870   5.144  18.972   9.005  0.2890 -0.4318  0.1345
56293DOPC   C3A85871   5.078  18.934   9.382 -0.1708  0.0804  0.4442
56293DOPC   C4A85872   4.932  18.792   9.807 -0.0820 -0.4502 -0.0774
56293DOPC   C1B85873   5.662  19.208   9.021  0.0096 -0.0054 -0.0947
56293DOPC   D2B85874   5.347  19.438   9.300 -0.1349 -0.3173  0.0811
56293DOPC   C3B85875   4.886  19.500   9.118 -0.3271  0.3088 -0.0258
56293DOPC   C4B85876   4.539  19.608   9.270 -0.2996 -0.0950  0.0199
56294DOPC   NC385877  34.581  19.754   0.860 -0.2412 -0.1548  0.0581
56294DOPC   PO485878  34.914  19.655   1.053  0.0214  0.3261 -0.4064
56294DOPC   GL185879  34.788  19.962   1.380 -0.0603  0.1157  0.0311
56294DOPC   GL285880  34.945  19.884   1.704 -0.2845  0.0066 -0.3133
56294DOPC   C1A85881  34.441  19.835   1.713  0.3340  0.0246 -0.2084
56294DOPC   D2A85882  34.477  19.949   2.123  0.0002 -0.1411 -0.1040
56294DOPC   C3A85883  34.230  20.027   2.572 -0.0604 -0.1782  0.1470
56294DOPC   C4A85884  34.383  20.367   2.914  0.4130 -0.0993  0.1827
56294DOPC   C1B85885  35.127  19.788   2.079  0.0276 -0.0371 -0.2464
56294DOPC   D2B85886  35.141  19.609   2.415  0.0473 -0.4035  0.0446
56294DOPC   C3B85887  34.717  19.765   2.526  0.0167 -0.0941  0.1076
56294DOPC   C4B85888  34.330  19.519   2.454 -0.1468 -0.1542  0.1436
56295DOPC   NC385889  35.139  29.337   7.943  0.1591  0.1820 -0.1560
56295DOPC   PO485890  35.129  29.609   8.318 -0.0372 -0.1231 -0.2424
56295DOPC   GL185891  34.822  29.426   8.459  0.0538 -0.0005 -0.2757
56295DOPC   GL285892  34.560  29.449   8.354 -0.0638 -0.0156  0.0860
56295DOPC   C1A85893  34.643  29.026   8.702  0.1956  0.2143 -0.1748
56295DOPC   D2A85894  34.572  28.727   9.085  0.1048  0.0369  0.2279
56295DOPC   C3A85895  34.409  28.745   9.432 -0.1880  0.0383  0.2259
56295DOPC   C4A85896  34.271  29.166   9.674  0.1060  0.1213  0.0301
56295DOPC   C1B85897  34.188  29.398   8.567 -0.0105 -0.0150  0.2415
56295DOPC   D2B85898  34.023  29.020   8.667 -0.0798 -0.0807 -0.0528
56295DOPC   C3B85899  34.059  28.640   9.099  0.0056  0.0509  0.0140
56295DOPC   C4B85900  33.878  28.781   9.467 -0.1483 -0.0055  0.1774
56296DOPC   NC385901   6.696   6.559  12.630  0.0172 -0.1022  0.0081
56296DOPC   PO485902   6.379   6.537  13.066  0.1052  0.1878 -0.1709
56296DOPC   GL185903   6.039   6.734  13.150  0.0550 -0.0539  0.0687
56296DOPC   GL285904   5.965   6.966  13.444  0.2032 -0.2619  0.0326
56296DOPC   C1A85905   5.607   6.681  13.273 -0.1607  0.0027 -0.3075
56296DOPC   D2A85906   5.146   6.636  13.393 -0.3793  0.0317 -0.2265
56296DOPC   C3A85907   4.939   6.344  13.097  0.1079  0.1022 -0.1447
56296DOPC   C4A85908   4.963   6.058  12.800 -0.0273 -0.2175  0.3542
56296DOPC   C1B85909   6.072   6.720  13.820  0.1052 -0.0538  0.2819
56296DOPC   D2B85910   5.933   6.665  14.178 -0.1285  0.3988 -0.0322
56296DOPC   C3B85911   5.859   6.477  14.594 -0.3463 -0.0045  0.2569
56296DOPC   C4B85912   5.755   6.447  14.962 -0.4152 -0.0751 -0.0125
56297DOPC   NC385913  24.314  34.262   6.727 -0.1821 -0.2130  0.0748
56297DOPC   PO485914  24.077  33.796   6.654 -0.1366 -0.1147 -0.0722
56297DOPC   GL185915  24.258  33.839   7.020 -0.0559  0.0808 -0.1570
56297DOPC   GL285916  24.598  33.897   6.990  0.1744 -0.0852  0.0740
56297DOPC   C1A85917  24.403  33.770   7.416  0.2115  0.3339  0.0562
56297DOPC   D2A85918  24.326  33.736   7.904  0.0160  0.1567 -0.2324
56297DOPC   C3A85919  24.530  33.707   8.388  0.2419  0.4336  0.1611
56297DOPC   C4A85920  24.554  33.867   8.786  0.1007 -0.0324 -0.1994
56297DOPC   C1B85921  24.857  33.633   7.094 -0.0006  0.1105  0.0229
56297DOPC   D2B85922  24.743  33.334   7.259 -0.0029 -0.4011  0.1359
56297DOPC   C3B85923  24.862  33.229   7.645  0.2459  0.0412 -0.2908
56297DOPC   C4B85924  25.129  32.972   7.971 -0.0166 -0.2440  0.0021
56298DOPC   NC385925   1.949  11.984   4.022 -0.2053 -0.1259  0.2068
56298DOPC   PO485926   1.766  12.263   3.863 -0.3431 -0.1297 -0.2690
56298DOPC   GL185927   1.609  12.344   4.200 -0.1522 -0.1657 -0.1651
56298DOPC   GL285928   1.454  12.057   4.425 -0.2428 -0.1220  0.3192
56298DOPC   C1A85929   1.237  12.543   4.501  0.2553  0.0862  0.2238
56298DOPC   D2A85930   1.060  12.672   4.863 -0.0063 -0.0458  0.0421
56298DOPC   C3A85931   0.896  12.513   5.231 -0.1369 -0.1084 -0.1365
56298DOPC   C4A85932   0.659  12.361   5.649 -0.0024  0.2144 -0.0545
56298DOPC   C1B85933   1.070  11.906   4.723 -0.2330 -0.0256 -0.1112
56298DOPC   D2B85934   0.789  11.985   5.069 -0.2855  0.1555 -0.2260
56298DOPC   C3B85935   0.435  11.757   5.128  0.1315 -0.1214  0.2277
56298DOPC   C4B85936   0.197  11.606   5.450 -0.1570  0.0028 -0.1236
56299DOPC   NC385937   9.461  27.781  17.080 -0.2194  0.0999  0.1357
56299DOPC   PO485938   9.335  27.336  17.150 -0.0644 -0.0759  0.3605
56299DOPC   GL185939   9.376  27.617  17.506  0.3030 -0.0214 -0.0935
56299DOPC   GL285940   9.454  27.631  17.800 -0.3966 -0.0300  0.0358
56299DOPC   C1A85941   9.038  27.894  17.753 -0.2327 -0.1707 -0.1881
56299DOPC   D2A85942   8.889  28.122  18.114 -0.3635 -0.3188 -0.2663
56299DOPC   C3A85943   8.543  28.035  18.400 -0.1405 -0.3083 -0.1017
56299DOPC   C4A85944   8.261  28.225  18.582  0.0125  0.0503  0.0759
56299DOPC   C1B85945   9.272  27.813  18.171 -0.0656 -0.0540  0.1347
56299DOPC   D2B85946   9.352  27.794  18.501 -0.0319 -0.2521 -0.0633
56299DOPC   C3B85947   8.996  27.983  18.666 -0.2327  0.3464  0.2922
56299DOPC   C4B85948   8.808  28.377  18.710 -0.0724 -0.0673  0.1164
56300DOPC   NC385949  20.316  23.037   9.201  0.1128  0.1890 -0.1420
56300DOPC   PO485950  20.622  23.315   9.005 -0.2775 -0.2219 -0.1132
56300DOPC   GL185951  20.870  23.129   9.355 -0.1904  0.1544 -0.1622
56300DOPC   GL285952  20.752  22.865   9.624 -0.0515 -0.0700  0.1957
56300DOPC   C1A85953  21.232  23.255   9.551 -0.1360 -0.0273 -0.2217
56300DOPC   D2A85954  21.682  23.256   9.712 -0.2546  0.0010 -0.2289
56300DOPC   C3A85955  21.855  22.920   9.957 -0.1720  0.0591  0.0576
56300DOPC   C4A85956  22.163  22.804  10.215  0.1456  0.1606 -0.4037
56300DOPC   C1B85957  21.012  22.566   9.412 -0.1126 -0.0900  0.0568
56300DOPC   D2B85958  21.285  22.225   9.255  0.0026 -0.1152 -0.1865
56300DOPC   C3B85959  21.655  22.161   9.289 -0.0307  0.2366  0.1981
56300DOPC   C4B85960  22.092  22.118   9.509  0.2712  0.2874 -0.3756
56301DOPC   NC385961  31.549  20.040  25.922  0.1277 -0.1016 -0.1349
56301DOPC   PO485962  31.720  20.056  26.243 -0.4822 -0.0498 -0.0691
56301DOPC   GL185963  31.636  20.365   0.387 -0.4119  0.2824 -0.1625
56301DOPC   GL285964  31.527  20.480   0.573 -0.0177 -0.2486 -0.4419
56301DOPC   C1A85965  31.740  20.158   0.851 -0.1232 -0.1262 -0.1653
56301DOPC   D2A85966  31.708  19.908   1.239  0.2144  0.0397 -0.1887
56301DOPC   C3A85967  32.082  19.683   1.372 -0.1668  0.1106  0.0768
56301DOPC   C4A85968  32.435  19.592   1.544  0.1906  0.0945  0.2163
56301DOPC   C1B85969  31.328  20.485   0.914  0.0481 -0.0017 -0.1250
56301DOPC   D2B85970  31.222  20.270   1.214  0.1472  0.1575 -0.0907
56301DOPC   C3B85971  31.549  20.244   1.637 -0.2221 -0.3486 -0.1387
56301DOPC   C4B85972  31.682  19.810   1.777 -0.1925  0.0180 -0.1263
56302PAPC   NC385973  26.387  33.857   5.524  0.1554  0.0638 -0.1287
56302PAPC   PO485974  26.652  33.785   5.955  0.0268 -0.3000 -0.2730
56302PAPC   GL185975  26.400  33.609   6.286 -0.3099  0.0525 -0.3955
56302PAPC   GL285976  26.369  33.709   6.539 -0.0693  0.1670 -0.1825
56302PAPC   D1A85977  25.982  33.414   6.278 -0.0940  0.4829 -0.0068
56302PAPC   D2A85978  25.802  33.024   6.507 -0.0887  0.2194  0.0117
56302PAPC   D3A85979  26.163  33.148   6.918  0.4292 -0.2031  0.1676
56302PAPC   D4A85980  26.374  33.184   6.627 -0.0637  0.2065  0.0971
56302PAPC   C5A85981  26.624  32.763   6.657 -0.3271  0.1035 -0.1420
56302PAPC   C1B85982  26.400  33.589   6.920  0.2543  0.2734  0.1676
56302PAPC   C2B85983  26.389  33.464   7.298  0.0590 -0.0925  0.0750
56302PAPC   C3B85984  26.388  33.538   7.710  0.0470  0.1703 -0.2022
56302PAPC   C4B85985  26.099  33.584   7.987 -0.1065 -0.0077  0.1127
56303PAPC   NC385986   2.663  15.225   4.274 -0.2147 -0.0084  0.0434
56303PAPC   PO485987   2.922  15.633   4.290 -0.2061  0.0251  0.1377
56303PAPC   GL185988   2.682  15.569   4.678  0.2251  0.3120  0.0836
56303PAPC   GL285989   2.579  15.281   4.831  0.0173 -0.3081 -0.0751
56303PAPC   D1A85990   2.532  15.829   5.079 -0.2615  0.0033  0.0117
56303PAPC   D2A85991   2.193  15.749   4.781  0.1856 -0.2180  0.2684
56303PAPC   D3A85992   2.604  16.056   4.634 -0.1354 -0.1885  0.0173
56303PAPC   D4A85993   2.815  16.245   4.915 -0.0986  0.0482  0.2684
56303PAPC   C5A85994   2.901  16.642   4.881 -0.0391  0.0950  0.1452
56303PAPC   C1B85995   2.179  15.270   5.075  0.2637  0.0207  0.0948
56303PAPC   C2B85996   1.799  15.276   4.883 -0.0345  0.3273 -0.0016
56303PAPC   C3B85997   1.425  15.336   4.814  0.1567  0.0604 -0.1124
56303PAPC   C4B85998   1.163  15.580   5.044 -0.1902 -0.3298  0.1431
56304PAPC   NC385999  22.905  17.808   2.425  0.1276  0.1168  0.1468
56304PAPC   PO486000  22.862  17.435   2.621  0.0862  0.1356 -0.1110
56304PAPC   GL186001  23.161  17.164   2.807 -0.1204  0.0098 -0.0786
56304PAPC   GL286002  23.197  17.227   3.132  0.1158 -0.0228 -0.0121
56304PAPC   D1A86003  23.527  16.846   2.907 -0.1500  0.0827  0.1096
56304PAPC   D2A86004  23.720  16.951   3.233  0.1083 -0.2375 -0.0283
56304PAPC   D3A86005  24.153  16.860   3.448  0.4027 -0.3074  0.0283
56304PAPC   D4A86006  24.385  16.686   3.010 -0.2927 -0.0750 -0.1456
56304PAPC   C5A86007  24.801  16.580   2.985 -0.0142  0.1421  0.1391
56304PAPC   C1B86008  23.487  17.407   3.430 -0.0307 -0.0252 -0.0558
56304PAPC   C2B86009  23.981  17.383   3.546  0.1942 -0.3008 -0.0644
56304PAPC   C3B86010  24.410  17.362   3.423  0.1235 -0.0756  0.0224
56304PAPC   C4B86011  24.887  17.377   3.521 -0.3403  0.0458  0.0702
56305PAPC   NC386012  21.098  25.090   6.490  0.0396 -0.3534  0.0988
56305PAPC   PO486013  21.412  25.363   6.547 -0.1601  0.1835 -0.0916
56305PAPC   GL186014  21.796  25.476   6.675  0.0509 -0.2193 -0.0390
56305PAPC   GL286015  21.897  25.519   6.984 -0.2454  0.1663 -0.0985
56305PAPC   D1A86016  22.243  25.527   6.449  0.0868  0.0854  0.0941
56305PAPC   D2A86017  22.378  25.754   6.807 -0.0180 -0.0658  0.0460
56305PAPC   D3A86018  22.833  25.679   6.692  0.2184 -0.2254  0.0072
56305PAPC   D4A86019  22.967  25.702   7.063 -0.1695 -0.0179  0.0259
56305PAPC   C5A86020  23.012  25.383   7.329  0.1257 -0.1175 -0.1044
56305PAPC   C1B86021  22.053  25.199   7.024  0.1516  0.2975  0.1366
56305PAPC   C2B86022  22.422  25.003   7.295  0.0286 -0.1915 -0.2040
56305PAPC   C3B86023  22.841  24.941   7.355  0.0100 -0.0711  0.0399
56305PAPC   C4B86024  23.208  24.714   7.502 -0.0332 -0.0327 -0.0277
56306PAPC   NC386025  21.056  26.690   7.120  0.1562 -0.1420  0.0218
56306PAPC   PO486026  21.022  27.012   7.408 -0.1348  0.0497 -0.1765
56306PAPC   GL186027  21.433  27.096   7.535 -0.2176 -0.0535  0.0499
56306PAPC   GL286028  21.528  26.804   7.318  0.0259 -0.0951  0.2359
56306PAPC   D1A86029  21.895  27.285   7.442  0.1074  0.3492 -0.1809
56306PAPC   D2A86030  22.097  26.969   7.248 -0.0700  0.2996 -0.0726
56306PAPC   D3A86031  22.443  26.910   7.392  0.1610 -0.0735  0.1406
56306PAPC   D4A86032  22.819  27.132   7.363 -0.0417  0.1011  0.0201
56306PAPC   C5A86033  23.238  27.030   7.527  0.0981  0.2995 -0.0538
56306PAPC   C1B86034  21.794  26.690   7.608  0.0081 -0.1622  0.1883
56306PAPC   C2B86035  22.193  26.500   7.646 -0.0940 -0.1774 -0.1706
56306PAPC   C3B86036  22.414  26.161   7.812 -0.2895  0.0911  0.0391
56306PAPC   C4B86037  22.631  25.955   8.087 -0.0433  0.1351 -0.2215
56307PAPC   NC386038  10.525  10.965  13.569  0.2338 -0.1644 -0.1494
56307PAPC   PO486039  10.531  10.947  14.062 -0.1658 -0.1437  0.1001
56307PAPC   GL186040  10.369  10.964  14.450  0.2089 -0.3478  0.2113
56307PAPC   GL286041  10.584  10.814  14.647  0.1395 -0.0787 -0.3042
56307PAPC   D1A86042  10.029  10.995  14.778 -0.1428 -0.1374  0.0413
56307PAPC   D2A86043   9.690  11.181  14.602  0.1128 -0.0832  0.1393
56307PAPC   D3A86044   9.368  11.033  14.287 -0.0305  0.0074  0.1281
56307PAPC   D4A86045   8.973  11.277  14.374 -0.1700 -0.2638  0.5262
56307PAPC   C5A86046   8.626  11.443  14.379  0.2188  0.0044 -0.2777
56307PAPC   C1B86047  10.305  10.627  14.876 -0.2238  0.2631 -0.1772
56307PAPC   C2B86048  10.100  10.653  15.186 -0.0767  0.0983 -0.1678
56307PAPC   C3B86049   9.965  10.909  15.587  0.4380  0.2297 -0.0292
56307PAPC   C4B86050   9.648  10.855  15.962  0.1040  0.0881 -0.1431
56308DAPC   NC386051  32.996   7.888   3.414 -0.1519  0.3745 -0.0188
56308DAPC   PO486052  33.420   8.100   3.591 -0.0119  0.0452  0.0244
56308DAPC   GL186053  33.358   8.185   4.006 -0.1287 -0.2910  0.3825
56308DAPC   GL286054  32.997   8.043   4.149 -0.3743 -0.5394 -0.0380
56308DAPC   D1A86055  33.616   8.287   4.422  0.1389 -0.0016  0.1369
56308DAPC   D2A86056  34.106   8.448   4.416  0.0334  0.0099  0.0156
56308DAPC   D3A86057  34.307   8.568   4.791  0.1331  0.0674  0.1871
56308DAPC   D4A86058  34.639   8.578   4.579 -0.0317  0.1602 -0.1952
56308DAPC   C5A86059  34.827   8.967   4.598 -0.1777 -0.2305 -0.1473
56308DAPC   D1B86060  33.146   8.000   4.550 -0.2494 -0.2947 -0.0969
56308DAPC   D2B86061  33.046   8.361   4.536  0.0854  0.1370 -0.2827
56308DAPC   D3B86062  33.304   8.642   4.591  0.2662 -0.0689 -0.2407
56308DAPC   D4B86063  32.916   8.893   4.536  0.1383  0.0322 -0.1530
56308DAPC   C5B86064  32.691   9.075   4.862 -0.2229 -0.2908 -0.1284
56309DAPC   NC386065  25.766  26.414   2.927  0.1009 -0.1850  0.1660
56309DAPC   PO486066  25.433  26.036   3.122 -0.0341  0.2207  0.0325
56309DAPC   GL186067  25.874  26.109   3.321  0.1098  0.1072 -0.1540
56309DAPC   GL286068  26.115  26.430   3.393  0.3642  0.1010  0.0808
56309DAPC   D1A86069  26.296  26.007   3.065 -0.0204 -0.2913  0.1176
56309DAPC   D2A86070  26.475  25.698   2.868  0.0547 -0.0509  0.1419
56309DAPC   D3A86071  26.802  25.346   2.873  0.0036  0.1601 -0.0987
56309DAPC   D4A86072  26.916  25.697   3.083 -0.0241 -0.0739 -0.0078
56309DAPC   C5A86073  26.796  26.028   3.509 -0.0753 -0.0199 -0.2300
56309DAPC   D1B86074  26.315  26.117   3.614  0.0613 -0.2537 -0.0746
56309DAPC   D2B86075  26.535  25.969   4.029  0.0144  0.0356  0.1490
56309DAPC   D3B86076  27.019  25.896   3.961 -0.2176 -0.3521 -0.0862
56309DAPC   D4B86077  27.193  26.131   4.196 -0.1898  0.4482 -0.0440
56309DAPC   C5B86078  27.031  25.982   4.530 -0.4483 -0.0139 -0.1687
56310DAPC   NC386079  20.654  18.384   5.306  0.0824  0.1407  0.0556
56310DAPC   PO486080  20.500  18.819   5.487 -0.0043 -0.0663 -0.1335
56310DAPC   GL186081  20.923  18.740   5.589 -0.3994  0.0475 -0.2573
56310DAPC   GL286082  21.144  18.447   5.331  0.4225 -0.1868  0.0315
56310DAPC   D1A86083  21.209  18.479   5.932  0.0285  0.2132 -0.2774
56310DAPC   D2A86084  21.151  18.823   6.090  0.1919  0.1577  0.0816
56310DAPC   D3A86085  21.300  19.020   6.417 -0.1492  0.0710  0.0333
56310DAPC   D4A86086  21.628  19.146   6.666 -0.0140  0.1425 -0.0238
56310DAPC   C5A86087  21.865  18.824   6.768 -0.0583 -0.1167  0.0509
56310DAPC   D1B86088  21.426  18.350   5.078  0.0945  0.1386  0.1264
56310DAPC   D2B86089  21.665  18.593   5.462 -0.1466 -0.1152  0.2769
56310DAPC   D3B86090  21.958  18.758   5.187  0.0410 -0.2108  0.0332
56310DAPC   D4B86091  22.360  18.614   5.122 -0.0625  0.2245  0.1349
56310DAPC   C5B86092  22.458  18.269   4.719 -0.2007  0.0906  0.0078
56311DAPC   NC386093   6.551  16.989   9.766  0.0020 -0.1757 -0.4964
56311DAPC   PO486094   6.268  17.034  10.046 -0.1501 -0.0780 -0.0438
56311DAPC   GL186095   6.047  17.428  10.105 -0.2442  0.0875 -0.1016
56311DAPC   GL286096   6.147  17.580  10.312  0.1611  0.2045 -0.3009
56311DAPC   D1A86097   5.639  17.513  10.064  0.1387  0.1070  0.2498
56311DAPC   D2A86098   5.348  17.841   9.785 -0.2169 -0.2668 -0.1518
56311DAPC   D3A86099   5.445  17.745   9.489 -0.2668  0.2642  0.1154
56311DAPC   D4A86100   5.378  17.685   8.997 -0.3311 -0.0280 -0.0656
56311DAPC   C5A86101   5.211  18.087   8.924 -0.1061 -0.1136  0.1881
56311DAPC   D1B86102   5.920  17.688  10.669 -0.1219  0.1224  0.0639
56311DAPC   D2B86103   5.460  17.495  10.575 -0.2371  0.0759  0.3071
56311DAPC   D3B86104   4.984  17.646  10.621 -0.0671  0.1461 -0.3033
56311DAPC   D4B86105   4.918  17.507  10.199 -0.0499 -0.0076 -0.0882
56311DAPC   C5B86106   4.557  17.335  10.019  0.1214  0.2576  0.0878
56312DAPC   NC386107  15.969  26.834  13.775  0.2114  0.3206 -0.0027
56312DAPC   PO486108  16.096  27.241  13.932 -0.1283 -0.1910 -0.1648
56312DAPC   GL186109  16.573  27.328  14.089 -0.1556  0.3110  0.1507
56312DAPC   GL286110  16.570  27.404  14.345 -0.0296  0.0080  0.3466
56312DAPC   D1A86111  16.846  27.667  14.007  0.1198 -0.1532 -0.0977
56312DAPC   D2A86112  16.583  27.929  13.849  0.1910  0.0576  0.2060
56312DAPC   D3A86113  16.821  28.297  13.896  0.1166  0.0089  0.1493
56312DAPC   D4A86114  17.226  28.489  13.893 -0.3932 -0.0106  0.1269
56312DAPC   C5A86115  17.553  28.337  13.645 -0.1497  0.1794  0.0879
56312DAPC   D1B86116  16.865  27.698  14.481  0.0958 -0.2979  0.0915
56312DAPC   D2B86117  17.068  28.086  14.600 -0.1452 -0.2235 -0.3977
56312DAPC   D3B86118  17.159  27.766  14.897 -0.1054  0.1153  0.1222
56312DAPC   D4B86119  17.398  28.029  15.125  0.0169  0.0362  0.0347
56312DAPC   C5B86120  17.637  28.373  14.895 -0.2302  0.1494 -0.4502
56313POPE   NH386121   8.215  32.177  16.223 -0.0004  0.2238  0.1879
56313POPE   PO486122   8.290  31.702  16.296  0.2034 -0.3541 -0.0302
56313POPE   GL186123   8.321  31.586  16.713  0.4450 -0.0954 -0.0226
56313POPE   GL286124   8.556  31.585  16.893  0.2590 -0.1467  0.0047
56313POPE   C1A86125   8.069  31.472  17.046 -0.2722  0.0313 -0.5582
56313POPE   D2A86126   7.936  31.564  17.339  0.0392  0.4049 -0.1298
56313POPE   C3A86127   7.582  31.539  17.356 -0.0856  0.0272 -0.0313
56313POPE   C4A86128   7.232  31.800  17.046 -0.1385  0.1032 -0.2387
56313POPE   C1B86129   8.531  31.441  17.315 -0.0279 -0.0402  0.0008
56313POPE   C2B86130   8.309  31.604  17.661 -0.0151  0.0060  0.0146
56313POPE   C3B86131   7.900  31.710  17.818 -0.1126  0.0037 -0.1500
56313POPE   C4B86132   7.502  31.660  17.839 -0.1988  0.1250 -0.0512
56314POPE   NH386133  18.805  12.389  11.225 -0.3995  0.3133  0.0448
56314POPE   PO486134  18.736  12.024  11.568  0.2049 -0.0759 -0.1046
56314POPE   GL186135  18.965  12.103  11.884  0.1575  0.1000  0.0081
56314POPE   GL286136  18.728  12.098  12.099  0.0469  0.2228 -0.4784
56314POPE   C1A86137  19.364  12.251  11.970  0.1173 -0.2301  0.0358
56314POPE   D2A86138  19.633  12.245  12.245 -0.2668 -0.2005 -0.3526
56314POPE   C3A86139  20.054  12.008  12.481 -0.1067  0.1030 -0.0604
56314POPE   C4A86140  19.915  11.548  12.445 -0.0745  0.0907 -0.1066
56314POPE   C1B86141  19.048  12.040  12.392 -0.3945 -0.2189 -0.0532
56314POPE   C2B86142  19.371  12.230  12.697 -0.0952 -0.2214 -0.0671
56314POPE   C3B86143  19.758  12.314  12.921 -0.3338  0.1911 -0.2331
56314POPE   C4B86144  20.121  12.505  13.104  0.1213 -0.0191  0.0936
56315POPE   NH386145   5.543  34.759  13.905  0.0152 -0.0130  0.3034
56315POPE   PO486146   5.284  35.115  13.735  0.0704  0.3968  0.2168
56315POPE   GL186147   4.949  35.314  13.978 -0.3450 -0.0913  0.1036
56315POPE   GL286148   4.732  35.255  13.796  0.1857  0.0069 -0.0028
56315POPE   C1A86149   4.769   0.228  14.129  0.2349 -0.2463 -0.0114
56315POPE   D2A86150   4.376   0.377  14.371 -0.2537 -0.1118 -0.2769
56315POPE   C3A86151   4.173   0.112  14.630 -0.1198  0.0556  0.0545
56315POPE   C4A86152   3.955  35.228  15.014 -0.2867  0.0337  0.2254
56315POPE   C1B86153   4.438  35.184  14.184 -0.0249 -0.1464 -0.0595
56315POPE   C2B86154   4.064  35.076  14.398  0.1366  0.1356  0.2236
56315POPE   C3B86155   3.749  35.232  14.443  0.3349 -0.2043  0.1203
56315POPE   C4B86156   3.366  35.097  14.378 -0.1811  0.3438  0.0744
56316POPE   NH386157  20.964  25.412   7.809 -0.2556  0.0077  0.2637
56316POPE   PO486158  20.803  25.594   8.278 -0.0292  0.2612 -0.0082
56316POPE   GL186159  20.995  25.897   8.437 -0.1187 -0.0292  0.0393
56316POPE   GL286160  20.834  26.199   8.672  0.1974 -0.0236 -0.2065
56316POPE   C1A86161  21.441  25.963   8.746 -0.1467 -0.0721 -0.1795
56316POPE   D2A86162  21.722  26.163   8.904 -0.0705  0.0437  0.1263
56316POPE   C3A86163  22.160  26.171   8.992  0.0528  0.0072 -0.1604
56316POPE   C4A86164  22.567  25.983   9.263  0.0027  0.1020 -0.3820
56316POPE   C1B86165  21.134  26.464   8.823 -0.1285  0.0339  0.1256
56316POPE   C2B86166  21.484  26.615   8.999 -0.2943 -0.0536  0.2247
56316POPE   C3B86167  21.895  26.496   9.232  0.0472 -0.1838  0.1566
56316POPE   C4B86168  22.260  26.213   9.565  0.1275 -0.0789  0.1915
56317POPE   NH386169  29.653   5.133   4.211 -0.0549  0.0750 -0.2319
56317POPE   PO486170  29.164   5.028   4.241 -0.2867  0.2414  0.0309
56317POPE   GL186171  28.879   5.150   4.509  0.0924 -0.2201  0.0987
56317POPE   GL286172  28.862   5.033   4.696  0.0952 -0.4095  0.0206
56317POPE   C1A86173  28.837   5.533   4.817  0.1193  0.0576 -0.0674
56317POPE   D2A86174  29.086   5.575   5.129 -0.1320  0.1338 -0.0266
56317POPE   C3A86175  29.165   6.002   5.217  0.4598 -0.2160  0.0436
56317POPE   C4A86176  29.374   6.341   5.535 -0.0513  0.0309  0.1970
56317POPE   C1B86177  28.665   5.121   5.038  0.4468  0.0148 -0.0955
56317POPE   C2B86178  28.596   5.040   5.464  0.5049 -0.0373  0.0994
56317POPE   C3B86179  28.498   5.080   5.885  0.0411 -0.1900  0.0010
56317POPE   C4B86180  28.398   5.199   6.318  0.1389 -0.1215  0.0231
56318POPE   NH386181  28.796  28.176   4.237 -0.2292  0.0584 -0.0565
56318POPE   PO486182  29.113  28.246   4.226 -0.1872 -0.1877 -0.2123
56318POPE   GL186183  29.342  27.991   4.408  0.5279 -0.2036 -0.0032
56318POPE   GL286184  29.666  27.744   4.392 -0.1855  0.0192 -0.2402
56318POPE   C1A86185  29.264  27.757   4.871 -0.4363  0.0554 -0.1373
56318POPE   D2A86186  29.233  27.536   5.166  0.0484  0.0192  0.1567
56318POPE   C3A86187  29.307  27.336   5.445 -0.2018  0.1096 -0.3261
56318POPE   C4A86188  29.359  27.470   5.909  0.3450  0.2528  0.1372
56318POPE   C1B86189  29.757  27.912   4.805  0.0925  0.1885 -0.1015
56318POPE   C2B86190  30.019  28.200   4.942 -0.0119  0.0885  0.0602
56318POPE   C3B86191  29.971  28.561   5.313 -0.0330  0.2939 -0.1595
56318POPE   C4B86192  29.694  28.691   5.727  0.0902  0.4331 -0.3373
56319POPE   NH386193   1.479   9.854   5.557 -0.0476 -0.3154 -0.4200
56319POPE   PO486194   1.730   9.403   5.678  0.0078 -0.1531  0.0784
56319POPE   GL186195   1.590   9.638   6.019 -0.0945 -0.1012  0.0650
56319POPE   GL286196   1.529   9.441   6.221  0.1006 -0.0289 -0.0209
56319POPE   C1A86197   1.410   9.965   6.299  0.0213 -0.2890  0.1739
56319POPE   D2A86198   1.212  10.178   6.565 -0.0237 -0.1294  0.0124
56319POPE   C3A86199   1.104  10.441   6.832  0.2831  0.1099 -0.0494
56319POPE   C4A86200   1.008  10.535   7.364 -0.1453 -0.1733  0.3280
56319POPE   C1B86201   1.130   9.533   6.434 -0.2789 -0.0602 -0.1526
56319POPE   C2B86202   0.886   9.806   6.635  0.1799  0.2532 -0.2748
56319POPE   C3B86203   0.664   9.990   6.966  0.0837 -0.1683  0.0154
56319POPE   C4B86204   0.610  10.386   7.114  0.0593 -0.3061 -0.0122
56320POPE   NH386205  24.796   6.994   4.880 -0.2742 -0.3451  0.0688
56320POPE   PO486206  25.107   7.141   4.563  0.3339 -0.0583 -0.1767
56320POPE   GL186207  25.525   7.376   4.522  0.0271 -0.0647 -0.1220
56320POPE   GL286208  25.630   7.104   4.653  0.0387  0.2018 -0.0739
56320POPE   C1A86209  25.635   7.746   4.671 -0.1405 -0.0978 -0.1179
56320POPE   D2A86210  25.943   7.968   4.644 -0.0811  0.2431 -0.2081
56320POPE   C3A86211  25.827   8.305   4.830 -0.1473 -0.0168 -0.1679
56320POPE   C4A86212  25.917   8.530   5.235 -0.1831  0.0706  0.0191
56320POPE   C1B86213  25.793   6.945   5.000 -0.3107 -0.0117 -0.0119
56320POPE   C2B86214  26.074   6.639   5.121  0.2277 -0.1807 -0.0642
56320POPE   C3B86215  26.312   6.344   5.249  0.1259 -0.1266  0.2504
56320POPE   C4B86216  26.526   5.963   5.211 -0.1337 -0.1604 -0.0904
56321POPE   NH386217   6.925  30.030  16.321  0.0901 -0.2186 -0.0043
56321POPE   PO486218   6.634  30.053  16.040  0.3710  0.1295  0.0372
56321POPE   GL186219   6.337  29.806  16.403 -0.0311 -0.0256 -0.1522
56321POPE   GL286220   6.296  29.450  16.501 -0.2210 -0.0284  0.1496
56321POPE   C1A86221   6.140  29.855  16.772  0.2375 -0.1847  0.0165
56321POPE   D2A86222   5.951  29.756  17.181  0.1366 -0.1342  0.0210
56321POPE   C3A86223   5.613  29.893  17.161 -0.1809 -0.0448 -0.1690
56321POPE   C4A86224   5.244  30.200  17.219 -0.2812  0.3307  0.1201
56321POPE   C1B86225   6.134  29.263  16.883 -0.2030 -0.1151 -0.3173
56321POPE   C2B86226   5.940  29.118  17.198 -0.3275 -0.1440  0.1243
56321POPE   C3B86227   5.809  29.356  17.533 -0.0921 -0.2433 -0.4456
56321POPE   C4B86228   5.595  29.475  17.869  0.3460  0.0497 -0.0953
56322POPE   NH386229  17.425  20.022  14.177 -0.0290 -0.0583 -0.2584
56322POPE   PO486230  17.686  19.867  13.866 -0.1818 -0.1803 -0.1763
56322POPE   GL186231  17.952  19.838  14.137 -0.1320  0.2390 -0.2344
56322POPE   GL286232  17.870  19.845  14.466 -0.3020 -0.2318 -0.0714
56322POPE   C1A86233  18.383  19.678  14.330 -0.1727  0.2355 -0.0406
56322POPE   D2A86234  18.591  19.409  14.383 -0.2590  0.1344  0.0105
56322POPE   C3A86235  18.608  19.211  14.552 -0.1131 -0.2560 -0.0825
56322POPE   C4A86236  18.997  19.000  14.650  0.0836 -0.1189  0.0430
56322POPE   C1B86237  18.124  19.813  14.747 -0.1414 -0.1874 -0.0468
56322POPE   C2B86238  18.564  19.842  14.735 -0.0022 -0.0585 -0.1291
56322POPE   C3B86239  18.913  19.709  14.623 -0.0020  0.0561  0.1325
56322POPE   C4B86240  19.118  19.465  14.928  0.1071  0.0301 -0.1114
56323POPE   NH386241  19.378  16.731  10.852 -0.0351  0.0438 -0.2466
56323POPE   PO486242  19.587  16.769  10.507  0.1989  0.1165  0.3976
56323POPE   GL186243  19.842  16.475  10.873  0.0168 -0.0584  0.0657
56323POPE   GL286244  19.683  16.280  11.062 -0.1135 -0.0679  0.0072
56323POPE   C1A86245  20.270  16.654  10.818 -0.2911  0.2080 -0.1829
56323POPE   D2A86246  20.652  16.597  10.632  0.0012 -0.1173  0.0514
56323POPE   C3A86247  21.010  16.423  10.807 -0.1985 -0.1048 -0.1139
56323POPE   C4A86248  21.310  16.263  10.788 -0.0877  0.1548  0.2907
56323POPE   C1B86249  20.196  16.324  11.176  0.0595 -0.2035 -0.1455
56323POPE   C2B86250  20.601  16.478  11.179  0.1506  0.0518  0.0147
56323POPE   C3B86251  21.042  16.833  11.114 -0.1167  0.3297  0.2039
56323POPE   C4B86252  21.278  17.121  11.156 -0.4563  0.0166 -0.0263
56324POPE   NH386253  23.650   5.524   6.573  0.1103 -0.0049  0.1030
56324POPE   PO486254  23.873   5.208   6.472 -0.0557 -0.0976  0.1590
56324POPE   GL186255  24.183   5.510   6.528 -0.0106 -0.0034 -0.1226
56324POPE   GL286256  24.557   5.377   6.503 -0.0039 -0.0129 -0.2984
56324POPE   C1A86257  24.259   5.662   6.952  0.5108 -0.1018 -0.0283
56324POPE   D2A86258  24.371   5.924   7.348  0.4837 -0.2472 -0.1022
56324POPE   C3A86259  24.641   6.277   7.509  0.1847  0.2625  0.0464
56324POPE   C4A86260  24.812   6.772   7.590  0.0574  0.1939 -0.2756
56324POPE   C1B86261  24.689   5.742   6.734 -0.0878 -0.0537 -0.0995
56324POPE   C2B86262  24.829   5.984   7.088 -0.2776 -0.2718  0.0803
56324POPE   C3B86263  25.168   5.820   7.272 -0.1197  0.1008  0.0205
56324POPE   C4B86264  25.286   5.557   7.501  0.1496 -0.0075 -0.0772
56325POPE   NH386265   8.113  19.309  14.336 -0.0380 -0.0988 -0.0272
56325POPE   PO486266   7.830  19.146  14.162 -0.0783 -0.0759 -0.0072
56325POPE   GL186267   7.494  19.072  14.290 -0.2554  0.1723  0.1733
56325POPE   GL286268   7.392  18.899  13.975 -0.1884 -0.1657  0.1110
56325POPE   C1A86269   7.227  19.014  14.577 -0.0231 -0.0114  0.0293
56325POPE   D2A86270   6.991  18.943  14.998  0.2243 -0.0709  0.0150
56325POPE   C3A86271   6.666  18.951  15.203  0.0827  0.2001 -0.3920
56325POPE   C4A86272   6.362  19.167  15.397 -0.0127 -0.0534 -0.2602
56325POPE   C1B86273   7.235  18.604  14.283  0.0282  0.0749 -0.1453
56325POPE   C2B86274   7.019  18.501  14.650 -0.0892  0.1913 -0.0013
56325POPE   C3B86275   6.749  18.529  15.020  0.0021  0.1992 -0.2643
56325POPE   C4B86276   6.798  18.159  15.150 -0.3137 -0.4620 -0.0152
56326POPE   NH386277   0.170  18.739   1.370 -0.0641 -0.1979  0.1735
56326POPE   PO486278  35.121  18.885   1.583  0.2026 -0.3500 -0.1320
56326POPE   GL186279  34.946  18.619   1.880  0.0419 -0.0592 -0.0836
56326POPE   GL286280  34.973  18.650   2.082 -0.0454  0.0365 -0.2615
56326POPE   C1A86281  34.695  18.627   2.435 -0.3361  0.2917  0.1852
56326POPE   D2A86282  34.392  18.579   2.717  0.2344 -0.2770 -0.0589
56326POPE   C3A86283  34.006  18.708   2.878 -0.1335  0.0916  0.0326
56326POPE   C4A86284  33.677  19.009   3.070 -0.0411  0.2228 -0.0297
56326POPE   C1B86285  35.095  18.334   2.351 -0.3202 -0.2219  0.0550
56326POPE   C2B86286  34.959  18.220   2.666 -0.4292 -0.0014  0.1806
56326POPE   C3B86287  35.087  18.296   3.151 -0.0101  0.0387 -0.0782
56326POPE   C4B86288   0.068  18.154   3.314 -0.1112  0.0726 -0.0125
56327POPE   NH386289  17.501   2.916  11.687 -0.2784  0.1183 -0.0753
56327POPE   PO486290  17.850   3.103  11.437  0.0518 -0.0093  0.2161
56327POPE   GL186291  17.946   2.945  11.855  0.4432  0.1685 -0.1711
56327POPE   GL286292  18.077   3.195  11.955  0.0201  0.1017  0.0093
56327POPE   C1A86293  18.062   2.557  12.115  0.0877  0.0839  0.0835
56327POPE   D2A86294  18.099   2.190  12.331 -0.1927  0.0007 -0.0032
56327POPE   C3A86295  17.999   1.850  12.014 -0.1045 -0.0693  0.3757
56327POPE   C4A86296  17.820   1.521  12.100 -0.0300 -0.0731  0.1678
56327POPE   C1B86297  17.962   2.991  12.381  0.2698 -0.1164 -0.1063
56327POPE   C2B86298  18.212   2.835  12.651 -0.0403  0.2734  0.3506
56327POPE   C3B86299  18.229   2.906  13.069 -0.1914 -0.0088  0.1010
56327POPE   C4B86300  18.035   3.170  13.268 -0.4412 -0.0123 -0.0372
56328POPE   NH386301  20.037   5.197  10.222  0.1959 -0.2415 -0.1231
56328POPE   PO486302  20.529   5.280  10.205  0.1637 -0.0665  0.0136
56328POPE   GL186303  20.965   5.134  10.296  0.0299  0.2050 -0.1858
56328POPE   GL286304  21.221   4.846  10.410  0.0514  0.2000  0.1141
56328POPE   C1A86305  21.391   5.353  10.453 -0.1423 -0.4481 -0.0611
56328POPE   D2A86306  21.734   5.484  10.621 -0.4088 -0.0656 -0.2237
56328POPE   C3A86307  21.973   5.438  10.876  0.0545 -0.2941  0.3489
56328POPE   C4A86308  22.234   5.542  11.275 -0.3704 -0.0082 -0.1725
56328POPE   C1B86309  21.512   4.719  10.686 -0.0821  0.2326  0.2861
56328POPE   C2B86310  21.702   4.530  11.061 -0.1414  0.0941  0.0374
56328POPE   C3B86311  21.968   4.630  11.262  0.0874  0.1748 -0.1881
56328POPE   C4B86312  22.076   4.696  11.649 -0.1887  0.0117  0.1423
56329POPE   NH386313  34.337   7.158   5.933 -0.0339 -0.1285  0.0475
56329POPE   PO486314  34.436   7.435   5.641  0.3376  0.0439  0.2103
56329POPE   GL186315  34.384   7.734   6.020 -0.1896  0.0502  0.0981
56329POPE   GL286316  34.259   7.575   6.307  0.0561 -0.0319  0.2052
56329POPE   C1A86317  34.199   8.053   6.248 -0.2431 -0.1954 -0.0227
56329POPE   D2A86318  34.021   8.275   6.539 -0.1351 -0.2026 -0.4891
56329POPE   C3A86319  34.142   8.573   6.722 -0.0577 -0.1868  0.2307
56329POPE   C4A86320  34.446   8.961   6.667  0.0354  0.1681  0.0462
56329POPE   C1B86321  33.881   7.775   6.555 -0.3654 -0.2136 -0.1133
56329POPE   C2B86322  33.633   8.098   6.725  0.0429 -0.1499 -0.3632
56329POPE   C3B86323  33.538   8.452   6.869  0.1322  0.0044  0.0705
56329POPE   C4B86324  33.734   8.764   6.980  0.0361 -0.2960 -0.0939
56330POPE   NH386325  34.366  31.464   8.085 -0.1069 -0.0958 -0.0783
56330POPE   PO486326  34.142  31.125   8.419 -0.1353  0.2189  0.1601
56330POPE   GL186327  34.045  31.305   8.782  0.1318  0.2624 -0.0909
56330POPE   GL286328  34.128  31.042   8.961 -0.6092 -0.0822 -0.0286
56330POPE   C1A86329  33.674  31.356   8.999 -0.1466  0.0392  0.1451
56330POPE   D2A86330  33.298  31.469   9.195 -0.3553  0.0025  0.1326
56330POPE   C3A86331  33.089  31.355   9.435 -0.2769 -0.0580 -0.0138
56330POPE   C4A86332  32.730  31.169   9.418  0.2023 -0.0717  0.2216
56330POPE   C1B86333  34.029  30.632   9.132 -0.0299 -0.0560 -0.0192
56330POPE   C2B86334  33.718  30.491   9.490  0.0283  0.1533  0.0430
56330POPE   C3B86335  33.624  30.555   9.836  0.2058 -0.0428  0.1066
56330POPE   C4B86336  33.554  30.912  10.011 -0.3577 -0.0276  0.2762
56331POPE   NH386337  20.174  15.614   9.622 -0.0282 -0.0287 -0.1223
56331POPE   PO486338  20.314  15.935   9.354 -0.2734  0.0306  0.0341
56331POPE   GL186339  20.626  16.210   9.497  0.2705 -0.0658  0.0266
56331POPE   GL286340  20.530  16.487   9.546 -0.0590  0.0308 -0.2609
56331POPE   C1A86341  20.945  16.101   9.708  0.1003 -0.0763 -0.1060
56331POPE   D2A86342  21.336  16.211   9.685  0.1604  0.4731 -0.0191
56331POPE   C3A86343  21.610  16.307   9.935 -0.1279 -0.1294  0.1765
56331POPE   C4A86344  21.932  16.102  10.247  0.3457  0.2310 -0.0615
56331POPE   C1B86345  20.947  16.580   9.574 -0.0191 -0.1518  0.1886
56331POPE   C2B86346  21.414  16.662   9.733 -0.2388 -0.2362 -0.0661
56331POPE   C3B86347  21.728  16.751  10.057  0.0439 -0.1455  0.0159
56331POPE   C4B86348  22.043  16.854  10.296 -0.2051 -0.0360 -0.0684
56332POPE   NH386349  25.754   7.680   3.709  0.1581 -0.1221  0.0765
56332POPE   PO486350  25.318   7.642   3.937  0.3364  0.1814  0.3609
56332POPE   GL186351  25.634   7.809   4.188 -0.2359  0.1802  0.0859
56332POPE   GL286352  25.901   7.641   4.267 -0.1092 -0.2157 -0.0542
56332POPE   C1A86353  25.681   8.159   4.282 -0.1123 -0.0521  0.0386
56332POPE   D2A86354  25.370   8.450   4.646  0.1474  0.4898 -0.3267
56332POPE   C3A86355  25.573   8.702   4.965  0.0257  0.0600 -0.2775
56332POPE   C4A86356  25.527   8.938   5.368 -0.0084  0.3867  0.0055
56332POPE   C1B86357  26.156   8.007   4.197  0.0424 -0.0278  0.1610
56332POPE   C2B86358  26.338   8.225   4.493 -0.0023 -0.0049 -0.3037
56332POPE   C3B86359  26.340   8.300   4.858  0.3337  0.0211 -0.3045
56332POPE   C4B86360  26.266   8.197   5.240 -0.0334  0.2821  0.1477
56333POPE   NH386361   3.103  26.238   9.866 -0.1286 -0.5026 -0.1461
56333POPE   PO486362   2.730  26.457   9.721  0.0185 -0.5728  0.1390
56333POPE   GL186363   2.535  26.132   9.992 -0.1906  0.0320  0.1320
56333POPE   GL286364   2.760  25.934  10.185 -0.0647  0.0130  0.1245
56333POPE   C1A86365   2.300  26.119  10.388  0.1317 -0.0700  0.0757
56333POPE   D2A86366   2.082  26.150  10.724  0.2423  0.1106  0.0672
56333POPE   C3A86367   1.648  26.024  10.897 -0.0513  0.2131 -0.2024
56333POPE   C4A86368   1.177  25.935  10.838 -0.1688  0.0255  0.2869
56333POPE   C1B86369   2.345  25.629  10.263 -0.1163  0.1982  0.2813
56333POPE   C2B86370   2.039  25.761  10.405  0.1867 -0.0379 -0.0645
56333POPE   C3B86371   1.683  25.610  10.532 -0.2041 -0.0357 -0.1069
56333POPE   C4B86372   1.504  25.523  10.817  0.2659  0.1300 -0.1702
56334POPE   NH386373  17.186  25.851  13.703  0.2331  0.0421  0.2249
56334POPE   PO486374  17.353  25.473  13.976 -0.0799  0.3967  0.2362
56334POPE   GL186375  17.841  25.519  13.991  0.0534 -0.0937  0.0570
56334POPE   GL286376  18.023  25.261  13.898 -0.2940  0.0490  0.3254
56334POPE   C1A86377  18.020  25.845  14.223 -0.1692  0.2904 -0.0457
56334POPE   D2A86378  18.303  26.208  14.300 -0.1982  0.2007  0.1798
56334POPE   C3A86379  18.417  26.564  14.614  0.1362  0.0464  0.2672
56334POPE   C4A86380  18.471  26.904  14.950 -0.2015 -0.2026  0.2921
56334POPE   C1B86381  18.325  25.393  14.106  0.3660 -0.0533  0.2600
56334POPE   C2B86382  18.714  25.494  14.181  0.0036 -0.1052  0.0135
56334POPE   C3B86383  18.916  25.762  14.425 -0.1233  0.2409  0.1322
56334POPE   C4B86384  19.191  25.795  14.772 -0.1996  0.1199  0.2571
56335POPE   NH386385   2.391  29.986  11.290 -0.5454 -0.0597 -0.1675
56335POPE   PO486386   2.435  29.728  11.719  0.1161 -0.1822 -0.0223
56335POPE   GL186387   2.092  29.926  11.748 -0.1665  0.2616  0.0242
56335POPE   GL286388   2.098  30.042  12.109  0.2475 -0.0893  0.0169
56335POPE   C1A86389   1.724  29.826  11.765  0.2748 -0.0223 -0.2711
56335POPE   D2A86390   1.307  29.972  11.679  0.0925  0.1927  0.0850
56335POPE   C3A86391   1.084  29.923  12.078  0.1866 -0.1685  0.2898
56335POPE   C4A86392   0.920  30.228  12.188 -0.1113  0.1488 -0.1874
56335POPE   C1B86393   1.585  29.960  12.253  0.1449  0.0141  0.0713
56335POPE   C2B86394   1.275  30.102  12.534  0.1189 -0.1216 -0.2438
56335POPE   C3B86395   1.163  30.368  12.788  0.0230 -0.2096  0.0055
56335POPE   C4B86396   0.838  30.354  13.191 -0.2087  0.2141 -0.2257
56336POPE   NH386397  14.044   5.578  13.338  0.0392 -0.0698  0.0013
56336POPE   PO486398  13.722   5.335  13.588 -0.0217  0.0417  0.0186
56336POPE   GL186399  13.753   5.213  14.005 -0.1670  0.1706  0.0613
56336POPE   GL286400  13.378   5.255  14.268  0.1953  0.3039 -0.0733
56336POPE   C1A86401  14.104   5.230  14.268  0.1315 -0.1963  0.2429
56336POPE   D2A86402  14.087   5.164  14.612  0.0573 -0.1413  0.3256
56336POPE   C3A86403  14.432   5.106  14.900 -0.0863  0.0736  0.0246
56336POPE   C4A86404  14.516   4.767  15.144  0.4210 -0.3006 -0.0737
56336POPE   C1B86405  13.594   5.025  14.568 -0.2383  0.2163 -0.1366
56336POPE   C2B86406  13.927   4.678  14.937  0.1066  0.0045 -0.2100
56336POPE   C3B86407  14.177   4.239  15.072 -0.0133 -0.0620  0.2246
56336POPE   C4B86408  14.583   4.083  15.124 -0.2753 -0.1519 -0.0049
56337POPE   NH386409  32.337   7.885   2.561  0.0772  0.2363 -0.1604
56337POPE   PO486410  32.270   7.926   3.024 -0.0783  0.1935 -0.1776
56337POPE   GL186411  32.504   8.220   3.218  0.2803  0.1376  0.0824
56337POPE   GL286412  32.317   8.016   3.557 -0.3675 -0.0479  0.0158
56337POPE   C1A86413  32.534   8.773   3.369  0.1033  0.0563  0.1195
56337POPE   D2A86414  32.445   9.061   3.757 -0.1240  0.7100  0.2130
56337POPE   C3A86415  32.689   9.145   4.057  0.5171  0.2686 -0.1375
56337POPE   C4A86416  32.710   9.396   4.436 -0.0063 -0.1700  0.2354
56337POPE   C1B86417  32.148   8.441   3.522  0.1674 -0.0944  0.3325
56337POPE   C2B86418  32.087   8.741   3.901  0.1884  0.1763 -0.1213
56337POPE   C3B86419  32.010   9.083   4.199 -0.0711  0.0877  0.0494
56337POPE   C4B86420  32.173   9.426   4.399  0.0875  0.0605 -0.1010
56338POPE   NH386421   2.911  30.309  12.461 -0.0210  0.0416  0.0903
56338POPE   PO486422   2.834  29.965  12.581  0.1611  0.0058 -0.2936
56338POPE   GL186423   2.501  30.002  12.821  0.1624 -0.1741 -0.1670
56338POPE   GL286424   2.363  30.134  12.522  0.2026  0.0332 -0.2689
56338POPE   C1A86425   2.127  29.919  13.057  0.0553  0.2287  0.1115
56338POPE   D2A86426   1.824  29.955  13.336  0.2379  0.2626  0.1601
56338POPE   C3A86427   1.372  30.155  13.166 -0.1547  0.1070  0.2589
56338POPE   C4A86428   1.097  29.907  12.985  0.0937  0.0329  0.0641
56338POPE   C1B86429   1.941  30.066  12.583 -0.0693 -0.0508 -0.0678
56338POPE   C2B86430   1.654  29.908  12.782 -0.1334 -0.1827 -0.0849
56338POPE   C3B86431   1.478  29.653  13.073 -0.2406 -0.0562 -0.1379
56338POPE   C4B86432   1.108  29.420  13.299  0.0529 -0.0750  0.1218
56339POPE   NH386433  22.094  28.766   6.330  0.0812  0.0756  0.0639
56339POPE   PO486434  22.086  28.282   6.454  0.1937  0.0898 -0.0740
56339POPE   GL186435  22.507  28.416   6.437 -0.1876 -0.0725  0.2093
56339POPE   GL286436  22.553  28.273   6.647 -0.2251 -0.1923  0.2507
56339POPE   C1A86437  22.895  28.642   6.465  0.1250 -0.0302 -0.1008
56339POPE   D2A86438  23.338  28.597   6.664  0.0636  0.2081  0.0037
56339POPE   C3A86439  23.570  28.825   6.468  0.0956  0.1673 -0.0840
56339POPE   C4A86440  23.842  28.600   6.171  0.2981 -0.1541  0.0915
56339POPE   C1B86441  22.823  28.410   6.945  0.0329 -0.0184 -0.3247
56339POPE   C2B86442  23.154  28.463   7.113 -0.1377  0.0389  0.0873
56339POPE   C3B86443  23.314  28.345   7.475 -0.1607  0.0290 -0.2551
56339POPE   C4B86444  23.255  27.847   7.642 -0.0161 -0.0115  0.0035
56340POPE   NH386445  27.928  19.236  26.044  0.0452  0.0398  0.1111
56340POPE   PO486446  27.781  19.072   0.186  0.0632  0.2235 -0.2764
56340POPE   GL186447  28.028  19.340   0.281  0.4162 -0.0363 -0.4301
56340POPE   GL286448  28.323  19.327   0.378 -0.0148 -0.0927  0.0712
56340POPE   C1A86449  28.036  19.511   0.740 -0.0633 -0.3604  0.1325
56340POPE   D2A86450  28.211  19.354   1.164  0.2115 -0.0968 -0.4093
56340POPE   C3A86451  28.642  19.559   1.305  0.1003  0.1628 -0.4071
56340POPE   C4A86452  28.966  19.520   1.467  0.1521  0.1010 -0.1904
56340POPE   C1B86453  28.456  19.181   0.783  0.1053 -0.0769 -0.1776
56340POPE   C2B86454  28.679  19.122   1.107 -0.0978  0.0609 -0.0579
56340POPE   C3B86455  28.739  19.074   1.592  0.0536 -0.0074 -0.3259
56340POPE   C4B86456  29.042  19.328   1.977 -0.1489  0.3984  0.1370
56341POPE   NH386457   3.169  32.109  12.699 -0.0564  0.2296 -0.2102
56341POPE   PO486458   3.316  31.761  12.646 -0.0099  0.3792 -0.2133
56341POPE   GL186459   3.141  31.700  13.024  0.0030 -0.0229 -0.4642
56341POPE   GL286460   3.320  31.923  13.169 -0.0750 -0.1858  0.2860
56341POPE   C1A86461   2.758  31.794  13.253 -0.0183  0.1618  0.0332
56341POPE   D2A86462   2.729  31.850  13.693  0.2696  0.3339  0.1362
56341POPE   C3A86463   2.308  31.981  13.677 -0.1356 -0.1425  0.1823
56341POPE   C4A86464   2.094  32.335  13.835 -0.1819 -0.2544  0.0739
56341POPE   C1B86465   3.182  32.311  13.281  0.1247 -0.2476 -0.0083
56341POPE   C2B86466   3.204  32.376  13.623 -0.0160 -0.0159 -0.2025
56341POPE   C3B86467   3.082  32.536  14.127 -0.3694  0.1024 -0.1426
56341POPE   C4B86468   3.232  32.712  14.537 -0.1597  0.2149  0.2966
56342POPE   NH386469  16.820  10.439  14.146 -0.1982 -0.1125 -0.0666
56342POPE   PO486470  17.012   9.947  13.941  0.3284 -0.1082  0.0318
56342POPE   GL186471  17.403  10.197  13.911  0.2485  0.0052  0.4855
56342POPE   GL286472  17.314  10.283  14.183  0.0755  0.2977  0.0087
56342POPE   C1A86473  17.744  10.127  14.074  0.0367  0.1659  0.0098
56342POPE   D2A86474  17.936  10.250  14.537  0.2018 -0.1312  0.1897
56342POPE   C3A86475  18.084  10.016  14.852 -0.1010 -0.1299  0.0876
56342POPE   C4A86476  18.415   9.786  14.916 -0.0345  0.1439 -0.1467
56342POPE   C1B86477  17.437   9.930  14.431 -0.1502  0.3125 -0.1103
56342POPE   C2B86478  17.645   9.797  14.904  0.1317 -0.1757  0.1374
56342POPE   C3B86479  17.877   9.729  15.223  0.0299 -0.1999 -0.2036
56342POPE   C4B86480  17.811   9.943  15.574 -0.1187  0.3312  0.3122
56343POPE   NH386481  24.273   7.721   5.002  0.1251 -0.0573  0.2393
56343POPE   PO486482  24.067   7.400   5.313  0.1619 -0.2541  0.0911
56343POPE   GL186483  24.314   7.609   5.566  0.1906 -0.2522  0.1353
56343POPE   GL286484  24.248   7.699   5.906 -0.1552 -0.0275  0.0929
56343POPE   C1A86485  24.685   7.721   5.723  0.0781 -0.1718 -0.0793
56343POPE   D2A86486  24.820   7.936   5.936  0.1822 -0.0151  0.2064
56343POPE   C3A86487  25.138   8.312   5.816  0.0241 -0.1331  0.2737
56343POPE   C4A86488  25.132   8.764   5.883 -0.0793 -0.1263 -0.0917
56343POPE   C1B86489  24.423   7.742   6.207 -0.1104  0.1801 -0.2638
56343POPE   C2B86490  24.787   7.950   6.513  0.0469 -0.0969  0.2998
56343POPE   C3B86491  25.165   7.993   6.271 -0.1173 -0.0337  0.1777
56343POPE   C4B86492  25.391   7.872   5.942 -0.1077 -0.2188 -0.1282
56344POPE   NH386493  22.031  16.906   3.859 -0.0391 -0.0010 -0.1701
56344POPE   PO486494  22.018  16.567   4.031  0.1711 -0.1419 -0.4862
56344POPE   GL186495  22.392  16.621   4.202 -0.1278 -0.1791 -0.0876
56344POPE   GL286496  22.399  16.259   4.507  0.1483 -0.0727  0.2671
56344POPE   C1A86497  22.790  16.481   4.143  0.3277  0.0759 -0.0137
56344POPE   D2A86498  23.170  16.202   4.132  0.0704  0.1644 -0.1794
56344POPE   C3A86499  23.617  16.143   4.130  0.3130 -0.1067  0.0985
56344POPE   C4A86500  24.045  16.189   4.085  0.1075 -0.0559 -0.1086
56344POPE   C1B86501  22.808  16.217   4.640 -0.1010 -0.2305 -0.0841
56344POPE   C2B86502  23.105  16.112   4.732 -0.2353  0.2535  0.5774
56344POPE   C3B86503  23.439  15.842   4.782  0.2907  0.1381 -0.0329
56344POPE   C4B86504  23.677  15.800   5.063 -0.0434  0.0476 -0.0733
56345POPE   NH386505  10.717   6.222  15.275  0.3259  0.0303  0.1395
56345POPE   PO486506  10.308   6.363  15.041 -0.0680  0.0173  0.2177
56345POPE   GL186507   9.989   6.380  15.123 -0.0360 -0.1197  0.1767
56345POPE   GL286508   9.936   6.409  15.476  0.1101  0.0578 -0.2634
56345POPE   C1A86509   9.689   6.626  15.100  0.2351 -0.0704  0.3881
56345POPE   D2A86510   9.558   6.981  15.420  0.1127  0.0584 -0.0206
56345POPE   C3A86511   9.475   6.965  15.902  0.2934 -0.0253 -0.1185
56345POPE   C4A86512   9.512   7.320  16.163  0.3109 -0.1768 -0.2355
56345POPE   C1B86513   9.799   6.545  15.724  0.0609 -0.4067  0.0961
56345POPE   C2B86514   9.677   6.545  16.053  0.1507  0.1713  0.1705
56345POPE   C3B86515   9.659   6.807  16.415  0.1301 -0.0684  0.4046
56345POPE   C4B86516   9.784   7.040  16.830  0.0380 -0.0333 -0.0213
56346POPE   NH386517   8.368  33.067  15.966  0.2126  0.0282 -0.2552
56346POPE   PO486518   8.086  33.313  15.566  0.0963  0.0501  0.1484
56346POPE   GL186519   7.898  33.279  16.009  0.0043  0.2439  0.6685
56346POPE   GL286520   7.873  32.997  16.183  0.0021  0.2485 -0.2484
56346POPE   C1A86521   7.972  33.478  16.481  0.0595 -0.0371  0.0282
56346POPE   D2A86522   7.917  33.417  16.919  0.0220 -0.2596  0.0695
56346POPE   C3A86523   7.652  33.362  17.325 -0.0334 -0.0330  0.1604
56346POPE   C4A86524   7.258  33.556  17.488  0.1184 -0.0740  0.0997
56346POPE   C1B86525   7.943  33.027  16.658  0.0289  0.0702 -0.2200
56346POPE   C2B86526   7.635  32.978  17.024 -0.0531 -0.0039  0.2832
56346POPE   C3B86527   7.423  32.947  17.479 -0.1735  0.1085  0.0696
56346POPE   C4B86528   7.031  33.097  17.677 -0.0024 -0.1872 -0.0778
56347POPE   NH386529   3.267  33.709  11.958  0.0105 -0.0487 -0.4431
56347POPE   PO486530   3.616  33.711  12.241 -0.1664 -0.1838  0.0585
56347POPE   GL186531   3.590  33.836  12.748  0.1087  0.2189  0.1933
56347POPE   GL286532   3.248  33.694  12.858 -0.1456 -0.1053  0.0375
56347POPE   C1A86533   3.575  34.029  13.064 -0.3190 -0.1673  0.0453
56347POPE   D2A86534   3.849  34.084  13.306 -0.1715  0.0924 -0.1299
56347POPE   C3A86535   3.956  33.882  13.674  0.1225  0.0537 -0.1721
56347POPE   C4A86536   3.900  33.804  13.927  0.0051 -0.0206 -0.3830
56347POPE   C1B86537   3.190  33.653  13.250 -0.4506 -0.1369 -0.1703
56347POPE   C2B86538   3.054  33.683  13.646  0.1402  0.2001 -0.0854
56347POPE   C3B86539   2.945  33.733  14.033  0.4781 -0.2007 -0.1429
56347POPE   C4B86540   2.906  33.454  14.314  0.1266  0.1458 -0.4551
56348POPE   NH386541  19.724  27.482   8.999  0.3339 -0.4102  0.1152
56348POPE   PO486542  20.018  27.478   8.689 -0.0671  0.1849  0.3266
56348POPE   GL186543  20.266  27.448   9.058 -0.1652 -0.1366  0.1359
56348POPE   GL286544  20.131  27.357   9.277  0.0429 -0.0386 -0.1871
56348POPE   C1A86545  20.668  27.273   9.128 -0.1646 -0.0351 -0.0225
56348POPE   D2A86546  21.002  27.000   8.978 -0.1383  0.0840 -0.1446
56348POPE   C3A86547  21.270  27.018   9.268  0.0609 -0.1248  0.0080
56348POPE   C4A86548  21.597  26.873   9.482  0.2075  0.1040 -0.1387
56348POPE   C1B86549  20.294  27.376   9.624 -0.1329  0.2939  0.2394
56348POPE   C2B86550  20.623  27.505   9.871 -0.0833  0.2490  0.6603
56348POPE   C3B86551  21.042  27.514  10.093 -0.0056 -0.0215  0.0553
56348POPE   C4B86552  21.099  27.338  10.495 -0.1054 -0.0098 -0.0080
56349POPE   NH386553  33.568  29.380   6.463 -0.2396  0.0458 -0.1698
56349POPE   PO486554  33.694  29.695   6.880 -0.3446  0.1484  0.2248
56349POPE   GL186555  33.645  29.391   7.070 -0.0485  0.2683  0.4666
56349POPE   GL286556  33.674  29.031   6.867  0.0639 -0.0571  0.0214
56349POPE   C1A86557  33.420  29.078   7.425 -0.0038  0.1614  0.1346
56349POPE   D2A86558  33.131  28.874   7.821 -0.0729 -0.0246  0.1214
56349POPE   C3A86559  32.808  28.801   7.707  0.2197  0.2374 -0.0235
56349POPE   C4A86560  32.384  28.887   7.877  0.1539 -0.1454  0.0066
56349POPE   C1B86561  33.530  28.641   7.096  0.5727 -0.0192  0.0765
56349POPE   C2B86562  33.258  28.564   7.435  0.0479  0.4121 -0.0789
56349POPE   C3B86563  32.996  28.310   7.762  0.1208 -0.0657 -0.1146
56349POPE   C4B86564  32.874  28.128   8.147  0.1230  0.0301 -0.3521
56350POPE   NH386565  29.500  27.977   3.929 -0.2234  0.1513  0.3291
56350POPE   PO486566  29.079  27.827   4.002  0.1109  0.0675 -0.2377
56350POPE   GL186567  28.984  27.611   4.316 -0.0534  0.3314  0.1765
56350POPE   GL286568  28.823  27.720   4.549  0.0246  0.3976  0.0521
56350POPE   C1A86569  28.859  27.258   4.450  0.1656  0.3106  0.2358
56350POPE   D2A86570  28.783  26.988   4.803 -0.0907 -0.0217  0.0285
56350POPE   C3A86571  28.439  26.946   5.031  0.2714 -0.0409  0.3494
56350POPE   C4A86572  28.051  26.909   5.107 -0.0711 -0.1942 -0.2465
56350POPE   C1B86573  28.649  27.464   4.879 -0.1458 -0.1695  0.0523
56350POPE   C2B86574  28.769  27.306   5.211  0.2743  0.0539 -0.1756
56350POPE   C3B86575  28.692  27.373   5.698 -0.2172 -0.1208  0.4320
56350POPE   C4B86576  28.856  27.656   5.968 -0.2256 -0.2121  0.0259
56351POPE   NH386577  20.233  15.543   9.052 -0.1443 -0.1260 -0.2820
56351POPE   PO486578  20.079  15.248   9.251  0.0797 -0.1991 -0.1076
56351POPE   GL186579  20.478  15.250   9.606 -0.0143  0.3157  0.0440
56351POPE   GL286580  20.409  15.281   9.950  0.0527 -0.2319 -0.0317
56351POPE   C1A86581  20.838  15.296   9.748 -0.0894 -0.0079 -0.0544
56351POPE   D2A86582  21.260  15.427   9.782 -0.0280  0.2648 -0.2601
56351POPE   C3A86583  21.295  15.837  10.016  0.0843 -0.0841 -0.0804
56351POPE   C4A86584  21.498  16.013  10.393  0.1770 -0.0649 -0.0652
56351POPE   C1B86585  20.715  15.012  10.239 -0.2522 -0.4101  0.1061
56351POPE   C2B86586  21.115  15.001  10.603 -0.1857 -0.2767  0.1513
56351POPE   C3B86587  21.488  14.929  10.825  0.3832  0.1366 -0.4187
56351POPE   C4B86588  21.811  15.134  11.070  0.0432 -0.1666 -0.0717
56352POPE   NH386589  31.495   4.615   5.787  0.0226 -0.0274 -0.1552
56352POPE   PO486590  31.919   4.594   5.992 -0.4681 -0.1076 -0.0665
56352POPE   GL186591  31.727   4.564   6.432 -0.4266  0.2727  0.1966
56352POPE   GL286592  31.549   4.265   6.569  0.2754 -0.0931 -0.2087
56352POPE   C1A86593  31.729   4.703   6.806 -0.2083 -0.1134  0.2561
56352POPE   D2A86594  31.471   4.901   7.019 -0.0447 -0.3652  0.1415
56352POPE   C3A86595  31.298   5.318   7.251  0.0377 -0.2949  0.2178
56352POPE   C4A86596  31.522   5.752   7.260 -0.3683  0.1071  0.0574
56352POPE   C1B86597  31.378   4.383   6.947  0.1953 -0.1369  0.1242
56352POPE   C2B86598  31.256   4.550   7.305 -0.1667 -0.0339 -0.3957
56352POPE   C3B86599  31.259   4.889   7.588  0.0927  0.0514 -0.3216
56352POPE   C4B86600  30.897   4.909   7.743  0.1302 -0.1663 -0.3819
56353POPE   NH386601  33.441   5.001   6.341  0.1364 -0.5285 -0.0304
56353POPE   PO486602  33.625   4.684   6.715 -0.0666  0.0002  0.0841
56353POPE   GL186603  33.566   4.755   7.145 -0.1802  0.2295  0.1755
56353POPE   GL286604  33.802   4.670   7.485  0.0222 -0.2679 -0.2945
56353POPE   C1A86605  33.594   5.125   7.292  0.0390 -0.2091 -0.1907
56353POPE   D2A86606  33.399   5.600   7.376 -0.1364 -0.3206 -0.1002
56353POPE   C3A86607  33.257   5.784   7.853  0.1429  0.0258  0.0067
56353POPE   C4A86608  33.316   6.022   8.198  0.1186 -0.2322 -0.0297
56353POPE   C1B86609  33.349   4.724   7.678  0.0689  0.2689  0.2525
56353POPE   C2B86610  33.225   4.651   8.116 -0.0489 -0.2858  0.1701
56353POPE   C3B86611  33.021   4.888   8.417  0.3312 -0.1204 -0.0618
56353POPE   C4B86612  32.777   4.914   8.778  0.2791 -0.1893  0.4486
56354POPE   NH386613  20.604   4.764  10.264  0.1595 -0.0878 -0.1440
56354POPE   PO486614  20.206   4.951  10.567 -0.2317 -0.0028 -0.1430
56354POPE   GL186615  20.572   4.761  10.796 -0.2074 -0.0692 -0.0858
56354POPE   GL286616  20.860   4.912  10.890 -0.3248 -0.0824  0.1230
56354POPE   C1A86617  20.583   4.271  11.050  0.2199 -0.1250  0.1699
56354POPE   D2A86618  20.648   4.112  11.446  0.3170  0.2339 -0.0203
56354POPE   C3A86619  20.984   4.060  11.588 -0.3458 -0.2070 -0.1755
56354POPE   C4A86620  21.383   3.930  11.794  0.0574  0.1002 -0.1021
56354POPE   C1B86621  21.205   4.810  11.140 -0.0458 -0.0781  0.0340
56354POPE   C2B86622  21.426   4.747  11.453 -0.2122  0.4222 -0.3100
56354POPE   C3B86623  21.683   5.017  11.678  0.2159  0.2995  0.1850
56354POPE   C4B86624  21.939   4.999  12.007  0.0588  0.0465  0.1447
56355POPE   NH386625  17.163  13.777  13.244 -0.1090  0.0559  0.4721
56355POPE   PO486626  16.884  13.387  13.314 -0.0468  0.0132  0.2202
56355POPE   GL186627  17.097  13.615  13.751 -0.0025 -0.0208  0.5115
56355POPE   GL286628  17.408  13.592  13.640  0.0792  0.0761 -0.0474
56355POPE   C1A86629  17.102  13.845  14.025 -0.1492 -0.0386 -0.2298
56355POPE   D2A86630  17.256  14.080  14.268  0.0079 -0.0151  0.0009
56355POPE   C3A86631  17.350  14.080  14.649 -0.4219  0.2841 -0.3300
56355POPE   C4A86632  17.593  14.067  15.073 -0.3128  0.0848 -0.2973
56355POPE   C1B86633  17.693  13.343  13.874 -0.3681 -0.1609 -0.0693
56355POPE   C2B86634  17.975  13.272  14.209 -0.1492 -0.3739  0.0655
56355POPE   C3B86635  18.275  13.441  14.293 -0.2211 -0.0778 -0.3148
56355POPE   C4B86636  18.606  13.691  14.401  0.1707 -0.0698  0.3050
56356POPE   NH386637  15.123  26.443  16.996 -0.0805  0.0160  0.2056
56356POPE   PO486638  14.957  26.833  17.013  0.2003  0.2838 -0.0920
56356POPE   GL186639  15.053  27.100  17.316  0.0297 -0.0859  0.0288
56356POPE   GL286640  15.380  27.119  17.163 -0.1436 -0.0450 -0.2388
56356POPE   C1A86641  15.159  27.342  17.625  0.0524  0.1016 -0.0725
56356POPE   D2A86642  15.125  27.359  18.066 -0.1340  0.2305  0.0486
56356POPE   C3A86643  15.452  27.519  18.282  0.1103 -0.1406 -0.1319
56356POPE   C4A86644  15.897  27.427  18.587 -0.0536 -0.1012 -0.1713
56356POPE   C1B86645  15.618  27.289  17.371  0.1297  0.0829 -0.2946
56356POPE   C2B86646  15.528  27.552  17.764  0.1918  0.0929  0.3314
56356POPE   C3B86647  15.794  27.793  17.987  0.3281  0.0329  0.0921
56356POPE   C4B86648  15.843  27.876  18.485 -0.1206  0.1677 -0.1732
56357POPE   NH386649   9.807  26.566  17.521  0.0758  0.0028  0.1799
56357POPE   PO486650  10.202  26.461  17.357  0.0958  0.1388 -0.1814
56357POPE   GL186651  10.179  26.678  17.795 -0.3272  0.0623  0.0884
56357POPE   GL286652   9.979  26.461  17.996 -0.0754 -0.0246 -0.1351
56357POPE   C1A86653  10.417  26.559  18.187  0.0896  0.0191 -0.1997
56357POPE   D2A86654  10.700  26.770  18.509 -0.1766  0.0833  0.0049
56357POPE   C3A86655  10.927  27.154  18.481 -0.3866 -0.3234  0.1005
56357POPE   C4A86656  11.094  27.407  18.809 -0.0802 -0.0120  0.0647
56357POPE   C1B86657  10.021  26.599  18.438  0.0277  0.2860  0.0030
56357POPE   C2B86658  10.081  26.668  18.728 -0.3109  0.0482 -0.1125
56357POPE   C3B86659  10.520  26.863  18.918  0.0417  0.0600 -0.1001
56357POPE   C4B86660  10.940  27.001  18.964 -0.1009 -0.3191  0.1489
56358POPE   NH386661  34.727   5.981   6.879 -0.0299 -0.1440  0.1695
56358POPE   PO486662  34.634   5.606   7.140 -0.0453 -0.1301 -0.1175
56358POPE   GL186663  34.624   5.556   7.617  0.0544  0.3145 -0.0128
56358POPE   GL286664  34.330   5.392   7.874  0.0839 -0.2430 -0.1023
56358POPE   C1A86665  34.480   5.843   7.901 -0.1583 -0.0870  0.2269
56358POPE   D2A86666  34.238   5.548   8.330 -0.0677 -0.0216  0.1949
56358POPE   C3A86667  34.176   5.735   8.656  0.0281 -0.1504  0.3185
56358POPE   C4A86668  33.962   6.049   8.868 -0.4503  0.1334 -0.1215
56358POPE   C1B86669  34.716   5.369   8.090  0.2160  0.0512 -0.2583
56358POPE   C2B86670  34.683   5.454   8.560  0.0747 -0.0929  0.2047
56358POPE   C3B86671  34.576   5.790   8.953  0.1740 -0.2124 -0.0654
56358POPE   C4B86672  34.695   6.301   9.071 -0.0904  0.2642  0.0001
56359POPE   NH386673   3.982  27.799  13.142  0.2772  0.1573 -0.2103
56359POPE   PO486674   4.078  27.325  13.032  0.1685 -0.2254  0.2825
56359POPE   GL186675   3.590  27.382  13.111  0.0539 -0.1176 -0.0365
56359POPE   GL286676   3.499  27.070  13.182 -0.0750  0.0927 -0.0085
56359POPE   C1A86677   3.177  27.436  13.432 -0.0560 -0.0863  0.0143
56359POPE   D2A86678   2.753  27.579  13.608  0.0009  0.1292  0.0412
56359POPE   C3A86679   2.530  27.289  13.964 -0.0594  0.0050 -0.3721
56359POPE   C4A86680   2.306  27.253  14.325 -0.3294  0.2505 -0.1440
56359POPE   C1B86681   3.219  26.927  13.505  0.0392  0.2803  0.2467
56359POPE   C2B86682   3.038  26.659  13.888 -0.0865 -0.0867  0.0165
56359POPE   C3B86683   2.864  26.308  13.964  0.1647  0.3937  0.3271
56359POPE   C4B86684   2.637  26.405  14.224 -0.1871 -0.0696 -0.2556
56360POPE   NH386685  17.075  12.351  13.378  0.1330  0.0535  0.1902
56360POPE   PO486686  17.176  12.685  13.522 -0.3070 -0.2994  0.1677
56360POPE   GL186687  17.521  12.771  13.669  0.1580  0.2732  0.2775
56360POPE   GL286688  17.834  12.891  13.541  0.2353 -0.0142 -0.0557
56360POPE   C1A86689  17.700  12.885  14.039 -0.0646 -0.3468  0.0861
56360POPE   D2A86690  17.728  12.973  14.490  0.0884 -0.1009 -0.3326
56360POPE   C3A86691  17.967  13.146  14.818 -0.0632 -0.2796 -0.0194
56360POPE   C4A86692  18.144  13.144  15.273 -0.0006 -0.3559  0.0277
56360POPE   C1B86693  18.135  13.008  13.788 -0.2642 -0.0511 -0.1643
56360POPE   C2B86694  18.428  13.155  13.927  0.0367 -0.2825  0.1219
56360POPE   C3B86695  18.736  13.297  14.099 -0.1394  0.2079 -0.2122
56360POPE   C4B86696  19.146  13.187  14.144 -0.0129  0.1239  0.2218
56361POPE   NH386697  31.839   3.064   6.899 -0.1860  0.0987 -0.1610
56361POPE   PO486698  31.667   2.783   7.163  0.1746  0.0547  0.0833
56361POPE   GL186699  31.315   2.533   7.292  0.2038  0.0676  0.3997
56361POPE   GL286700  31.508   2.260   7.394  0.1696 -0.0175  0.0855
56361POPE   C1A86701  30.866   2.485   7.575  0.1746  0.1831  0.3635
56361POPE   D2A86702  30.704   2.541   7.866  0.2398  0.0483  0.2470
56361POPE   C3A86703  30.864   2.720   8.257  0.2955 -0.0233 -0.1492
56361POPE   C4A86704  30.914   2.956   8.605  0.1191 -0.2821  0.2077
56361POPE   C1B86705  31.347   2.461   7.791  0.0248  0.0805 -0.3358
56361POPE   C2B86706  31.330   2.504   8.129 -0.2642  0.2844 -0.0941
56361POPE   C3B86707  31.225   2.457   8.572 -0.2670 -0.1823  0.0834
56361POPE   C4B86708  31.133   2.522   8.961  0.3932 -0.2089  0.0768
56362POPE   NH386709  30.465  34.142   6.355  0.3174 -0.0630  0.3347
56362POPE   PO486710  30.774  33.984   6.576  0.1304  0.0436 -0.2390
56362POPE   GL186711  30.580  34.111   6.909 -0.1153  0.0869  0.1550
56362POPE   GL286712  30.643  34.353   7.205  0.0315  0.1059  0.1033
56362POPE   C1A86713  30.538  33.867   7.392  0.0274 -0.1079  0.2541
56362POPE   D2A86714  30.411  33.716   7.722  0.0898 -0.3211  0.0240
56362POPE   C3A86715  30.317  33.315   7.819  0.0423 -0.0176 -0.0057
56362POPE   C4A86716  30.427  32.903   7.992 -0.1876  0.0380  0.1741
56362POPE   C1B86717  30.456  34.325   7.613  0.1266 -0.0094 -0.1222
56362POPE   C2B86718  30.406  34.590   7.907  0.0655 -0.3327  0.0559
56362POPE   C3B86719  30.375  34.512   8.360  0.1709  0.0021 -0.0366
56362POPE   C4B86720  30.235  34.933   8.571  0.0112 -0.2253  0.0899
56363POPE   NH386721   2.615   0.713  10.739 -0.0037  0.1251  0.0040
56363POPE   PO486722   2.748   0.547  11.073  0.0630 -0.0527  0.2420
56363POPE   GL186723   2.719   0.919  11.198  0.1385  0.2006  0.0573
56363POPE   GL286724   2.845   0.943  11.455  0.1122  0.1684 -0.0144
56363POPE   C1A86725   2.351   1.149  11.469  0.1519  0.1359 -0.0117
56363POPE   D2A86726   2.124   1.580  11.665 -0.1451  0.3615  0.4914
56363POPE   C3A86727   1.935   1.793  11.996  0.1005  0.0665 -0.0495
56363POPE   C4A86728   2.083   1.929  12.375 -0.3280  0.2132 -0.0672
56363POPE   C1B86729   2.795   1.309  11.617  0.0451 -0.0704 -0.1116
56363POPE   C2B86730   2.576   1.515  11.885  0.0848 -0.1386  0.1958
56363POPE   C3B86731   2.496   1.760  12.303  0.1068  0.1703  0.1769
56363POPE   C4B86732   2.379   1.823  12.734 -0.0602 -0.2344  0.1346
56364POPE   NH386733  19.869  20.364   9.395 -0.0169 -0.1361  0.2141
56364POPE   PO486734  19.960  20.375   9.903  0.0855 -0.0024  0.3459
56364POPE   GL186735  20.474  20.142  10.092 -0.1220  0.2355 -0.1265
56364POPE   GL286736  20.318  19.843   9.931  0.0963 -0.0779  0.0954
56364POPE   C1A86737  20.957  20.131  10.353  0.1653 -0.0846  0.1783
56364POPE   D2A86738  21.277  20.025  10.423  0.1539 -0.0573  0.2112
56364POPE   C3A86739  21.460  20.140  10.730 -0.1228 -0.0628 -0.0178
56364POPE   C4A86740  21.569  20.111  11.061  0.0318  0.0540  0.0433
56364POPE   C1B86741  20.709  19.668  10.283 -0.0615  0.0963  0.2087
56364POPE   C2B86742  21.109  19.602  10.483 -0.1141 -0.0120  0.1044
56364POPE   C3B86743  21.377  19.296  10.157  0.2004 -0.0943 -0.0251
56364POPE   C4B86744  21.800  19.354   9.982 -0.3172  0.1948 -0.0937
56365POPE   NH386745  31.943   0.419   7.346 -0.0883  0.2474 -0.2284
56365POPE   PO486746  32.283   0.168   7.249  0.3082 -0.1250  0.2727
56365POPE   GL186747  32.139  35.381   7.586 -0.0561 -0.4606  0.2800
56365POPE   GL286748  31.831   0.020   7.628  0.0302  0.3850  0.1520
56365POPE   C1A86749  31.896  35.010   7.937  0.3396  0.0596 -0.0083
56365POPE   D2A86750  31.695  35.042   8.372  0.1644 -0.2017 -0.1174
56365POPE   C3A86751  31.626  34.829   8.664  0.2088 -0.4084  0.0124
56365POPE   C4A86752  31.397  34.580   8.680 -0.0693  0.1006  0.0404
56365POPE   C1B86753  31.826   0.097   8.091  0.0761 -0.0236  0.0735
56365POPE   C2B86754  31.769   0.312   8.532 -0.0337  0.0621  0.1853
56365POPE   C3B86755  31.896   0.351   8.916 -0.2311  0.2235 -0.1700
56365POPE   C4B86756  32.111   0.282   9.431 -0.1010  0.0957  0.0456
56366POPE   NH386757   6.262  11.837  10.155  0.0294  0.1856 -0.2521
56366POPE   PO486758   6.145  11.582  10.442 -0.0695 -0.1231  0.2098
56366POPE   GL186759   5.961  11.480  10.800  0.1292  0.0789  0.0584
56366POPE   GL286760   5.650  11.609  10.955  0.1064  0.0929  0.2451
56366POPE   C1A86761   5.789  11.178  11.089  0.2143 -0.0204  0.0800
56366POPE   D2A86762   5.417  11.115  11.356  0.2130 -0.1846 -0.0689
56366POPE   C3A86763   4.989  11.013  11.328  0.0937 -0.4229  0.3219
56366POPE   C4A86764   4.844  10.665  11.585  0.0758 -0.0416 -0.1873
56366POPE   C1B86765   5.208  11.539  11.215 -0.1706  0.0463  0.0979
56366POPE   C2B86766   5.013  11.639  11.527 -0.0040 -0.1245  0.0200
56366POPE   C3B86767   5.045  11.689  11.880 -0.0332  0.2160  0.5525
56366POPE   C4B86768   5.351  11.732  12.167  0.2179  0.0691 -0.2150
56367POPE   NH386769   5.994  24.970  12.473 -0.0697 -0.2464  0.1914
56367POPE   PO486770   5.937  24.789  12.144 -0.1443  0.0237 -0.1366
56367POPE   GL186771   5.473  24.815  12.113 -0.0636  0.0968 -0.2627
56367POPE   GL286772   5.238  24.834  11.742  0.1060 -0.2565  0.0256
56367POPE   C1A86773   5.090  24.847  12.328 -0.0406 -0.0772 -0.1255
56367POPE   D2A86774   4.824  24.864  12.596  0.0619 -0.1004 -0.1777
56367POPE   C3A86775   4.437  24.964  12.588 -0.0128 -0.2672 -0.1001
56367POPE   C4A86776   4.081  24.828  12.452 -0.2569  0.0278 -0.1867
56367POPE   C1B86777   5.133  24.419  11.996 -0.4827  0.1402  0.0735
56367POPE   C2B86778   5.020  24.345  12.415 -0.1023 -0.2714 -0.0721
56367POPE   C3B86779   4.683  24.332  12.657  0.2129 -0.1320 -0.1872
56367POPE   C4B86780   4.518  24.248  12.989 -0.0093 -0.3058  0.1296
56368POPE   NH386781  32.831   2.409   7.523 -0.1903 -0.1673 -0.0381
56368POPE   PO486782  32.338   2.165   7.441 -0.0199  0.1215  0.3111
56368POPE   GL186783  32.258   2.125   7.875  0.3297  0.1614  0.0919
56368POPE   GL286784  32.551   2.421   7.950  0.0525 -0.1111  0.1789
56368POPE   C1A86785  32.320   2.046   8.295 -0.1442  0.2982 -0.1794
56368POPE   D2A86786  32.171   1.975   8.626 -0.0297  0.3643 -0.1779
56368POPE   C3A86787  32.164   2.136   9.004 -0.0785 -0.2139 -0.0033
56368POPE   C4A86788  32.023   2.271   9.422 -0.0210  0.1669 -0.0437
56368POPE   C1B86789  32.404   2.582   8.350 -0.0517  0.1743 -0.2224
56368POPE   C2B86790  32.312   2.728   8.702 -0.0073 -0.0275  0.1419
56368POPE   C3B86791  32.116   2.748   9.024  0.1298  0.0174  0.0314
56368POPE   C4B86792  31.812   2.980   9.162  0.0351 -0.1967 -0.1793
56369POPE   NH386793  23.706  20.194   1.867 -0.1086  0.2042 -0.3873
56369POPE   PO486794  23.849  19.835   2.170  0.1414 -0.5664  0.1823
56369POPE   GL186795  23.934  19.603   2.447 -0.4303  0.0125 -0.0795
56369POPE   GL286796  24.198  19.534   2.302 -0.1673  0.1946 -0.0333
56369POPE   C1A86797  24.127  19.724   2.894  0.2949  0.1689 -0.4498
56369POPE   D2A86798  24.531  19.577   3.086 -0.0684 -0.1468 -0.2037
56369POPE   C3A86799  24.785  19.664   3.498 -0.0699 -0.4162  0.0398
56369POPE   C4A86800  24.964  19.554   3.832 -0.4594  0.1518  0.0089
56369POPE   C1B86801  24.564  19.432   2.646 -0.1849 -0.1782 -0.2001
56369POPE   C2B86802  24.949  19.528   2.760 -0.2636  0.0813  0.1394
56369POPE   C3B86803  25.144  19.563   3.106 -0.0684 -0.2160 -0.0409
56369POPE   C4B86804  25.252  19.725   3.501 -0.3682 -0.0882  0.1104
56370POPE   NH386805  31.035   8.038   2.989  0.0792  0.0823 -0.1280
56370POPE   PO486806  31.400   7.920   3.074  0.0346  0.2303  0.0160
56370POPE   GL186807  31.343   7.827   3.504 -0.6278  0.0544 -0.2571
56370POPE   GL286808  31.079   7.874   3.530 -0.0279  0.1012 -0.1909
56370POPE   C1A86809  31.438   8.050   3.890  0.1956  0.0072  0.1020
56370POPE   D2A86810  31.571   8.139   4.273  0.2073  0.0523  0.0585
56370POPE   C3A86811  31.332   8.489   4.419  0.1413 -0.2889 -0.0263
56370POPE   C4A86812  31.132   8.735   4.729 -0.0965 -0.0960 -0.0253
56370POPE   C1B86813  30.672   7.786   3.707  0.0367 -0.0072  0.1588
56370POPE   C2B86814  30.425   7.897   4.003  0.1967  0.2516 -0.1910
56370POPE   C3B86815  30.418   8.045   4.437  0.0791 -0.0467 -0.2387
56370POPE   C4B86816  30.325   8.152   4.840 -0.1191  0.0503 -0.0988
56371POPE   NH386817   7.595  15.612  12.908 -0.2033 -0.0887  0.3251
56371POPE   PO486818   8.017  15.549  13.129  0.1100  0.1570 -0.0295
56371POPE   GL186819   7.706  15.316  13.332 -0.2133 -0.1691 -0.2358
56371POPE   GL286820   7.619  15.009  13.385  0.0942 -0.0267  0.2686
56371POPE   C1A86821   7.382  15.370  13.679  0.2788 -0.2710 -0.2328
56371POPE   D2A86822   7.200  15.351  14.107  0.1925  0.3535  0.0626
56371POPE   C3A86823   6.959  15.346  14.455  0.0903 -0.0371 -0.0781
56371POPE   C4A86824   6.558  15.269  14.689  0.0682 -0.0971  0.2422
56371POPE   C1B86825   7.395  14.851  13.745 -0.0885 -0.1073  0.1477
56371POPE   C2B86826   7.209  14.862  14.100  0.0422  0.0013  0.0074
56371POPE   C3B86827   6.815  14.801  14.323 -0.3474  0.0935  0.0754
56371POPE   C4B86828   6.630  14.784  14.765 -0.3232 -0.1349 -0.0289
56372POPE   NH386829  23.600   8.640   4.557  0.2579  0.1821 -0.2468
56372POPE   PO486830  23.815   8.639   4.917  0.2071  0.0288  0.2146
56372POPE   GL186831  23.785   8.894   5.305 -0.1448 -0.2157  0.2155
56372POPE   GL286832  23.664   8.803   5.621  0.1702 -0.2814  0.2775
56372POPE   C1A86833  23.994   9.211   5.708 -0.0382 -0.0701 -0.0334
56372POPE   D2A86834  24.296   9.407   5.956 -0.9307  0.0067 -0.3237
56372POPE   C3A86835  24.588   9.655   5.812 -0.1635  0.1831 -0.1320
56372POPE   C4A86836  24.762   9.560   5.459  0.0542 -0.0674 -0.0310
56372POPE   C1B86837  24.038   8.721   5.799 -0.2271  0.1509 -0.2163
56372POPE   C2B86838  24.283   8.901   6.055  0.0691 -0.2343 -0.0543
56372POPE   C3B86839  24.403   8.822   6.493  0.2469  0.1337 -0.2310
56372POPE   C4B86840  24.810   8.763   6.811  0.2878 -0.2745 -0.0970
56373POPE   NH386841  18.950   5.180  12.233  0.2199  0.0400 -0.0169
56373POPE   PO486842  18.609   5.363  12.380 -0.1153  0.0716  0.1059
56373POPE   GL186843  18.721   5.199  12.741  0.1919  0.0311  0.0786
56373POPE   GL286844  19.006   5.354  12.703 -0.0772 -0.2864  0.3398
56373POPE   C1A86845  18.628   5.131  13.216  0.2136  0.0912  0.3944
56373POPE   D2A86846  18.490   4.995  13.580  0.1343 -0.1636  0.1200
56373POPE   C3A86847  18.545   4.569  13.707 -0.0080 -0.0359  0.2375
56373POPE   C4A86848  18.621   4.279  14.031 -0.3021 -0.2683 -0.3786
56373POPE   C1B86849  19.264   5.051  12.897  0.1243  0.2128  0.0618
56373POPE   C2B86850  19.474   4.970  13.293 -0.0609 -0.0917 -0.0369
56373POPE   C3B86851  19.537   4.838  13.755  0.3080  0.5011  0.0392
56373POPE   C4B86852  19.597   4.990  14.148 -0.2708  0.2533 -0.4306
56374POPE   NH386853  18.159  22.518  13.583  0.1189  0.2793 -0.0004
56374POPE   PO486854  18.387  22.135  13.473 -0.0575 -0.1266 -0.0196
56374POPE   GL186855  18.778  21.937  13.519  0.0570  0.0406  0.1111
56374POPE   GL286856  19.057  22.138  13.520 -0.0658  0.2245  0.1694
56374POPE   C1A86857  18.948  21.538  13.420 -0.0931 -0.0240  0.0904
56374POPE   D2A86858  18.827  21.134  13.328  0.3335  0.3719  0.1783
56374POPE   C3A86859  18.991  20.778  13.556 -0.3243 -0.1631 -0.1832
56374POPE   C4A86860  19.282  20.716  13.891  0.0160 -0.0075  0.0662
56374POPE   C1B86861  19.174  21.811  13.787  0.1533 -0.1796  0.0787
56374POPE   C2B86862  19.512  21.608  14.175  0.0079 -0.0878 -0.1831
56374POPE   C3B86863  19.787  21.561  14.447 -0.2799  0.0574  0.1312
56374POPE   C4B86864  20.174  21.845  14.523  0.2829 -0.2805  0.0438
56375POPE   NH386865  12.793   5.487  13.849  0.1301 -0.1940 -0.0337
56375POPE   PO486866  12.776   4.952  13.695 -0.0983 -0.3998  0.3505
56375POPE   GL186867  12.986   4.976  14.083  0.2485  0.1611 -0.0463
56375POPE   GL286868  12.820   4.828  14.394 -0.0192  0.3472 -0.0771
56375POPE   C1A86869  13.292   4.792  14.278 -0.0986 -0.2133  0.0519
56375POPE   D2A86870  13.658   4.721  14.097 -0.2224 -0.3006  0.1353
56375POPE   C3A86871  13.885   4.706  14.390 -0.0260 -0.0676  0.1206
56375POPE   C4A86872  14.261   4.519  14.519 -0.2957 -0.1214  0.1758
56375POPE   C1B86873  12.939   4.470  14.571 -0.2006  0.1128  0.2786
56375POPE   C2B86874  13.086   4.232  14.940  0.2582  0.0012  0.1647
56375POPE   C3B86875  13.251   3.930  15.200 -0.2176 -0.0682  0.0303
56375POPE   C4B86876  13.600   3.834  15.601 -0.1485 -0.1448 -0.1495
56376POPE   NH386877   0.944  19.764   1.609  0.3169 -0.1931  0.2194
56376POPE   PO486878   0.790  19.771   2.095  0.0076  0.1790  0.1600
56376POPE   GL186879   0.721  19.724   2.500 -0.0560 -0.1502 -0.0571
56376POPE   GL286880   0.731  19.406   2.650  0.2052 -0.2787 -0.0172
56376POPE   C1A86881   0.291  19.720   2.692 -0.1492  0.1168 -0.2752
56376POPE   D2A86882  35.356  19.730   2.812  0.1103  0.1804 -0.1140
56376POPE   C3A86883  35.120  19.875   3.247 -0.0614  0.3009 -0.2553
56376POPE   C4A86884  34.976  20.013   3.648 -0.0673  0.3383 -0.2949
56376POPE   C1B86885   0.487  19.319   2.940 -0.0293 -0.2432  0.0334
56376POPE   C2B86886   0.233  19.409   3.187  0.0374 -0.2211 -0.1301
56376POPE   C3B86887  35.236  19.298   3.285 -0.2074 -0.1640  0.0763
56376POPE   C4B86888  34.886  19.078   3.242 -0.2983 -0.3617  0.3302
56377POPE   NH386889   5.992  16.113  10.740 -0.0603 -0.2502  0.2481
56377POPE   PO486890   6.052  15.648  10.732 -0.3258 -0.1195  0.1233
56377POPE   GL186891   5.674  15.721  10.738  0.1015 -0.0336 -0.4403
56377POPE   GL286892   5.402  15.523  10.791 -0.0260 -0.1812 -0.0016
56377POPE   C1A86893   5.299  16.061  10.688 -0.3358  0.1215 -0.3736
56377POPE   D2A86894   4.934  15.964  10.938 -0.0782  0.1538  0.2522
56377POPE   C3A86895   4.658  16.081  11.311 -0.2132  0.0460 -0.1854
56377POPE   C4A86896   4.202  16.091  11.385 -0.2503  0.0234  0.1230
56377POPE   C1B86897   5.064  15.463  11.092  0.3995  0.0940 -0.3834
56377POPE   C2B86898   4.686  15.492  11.069  0.0141  0.2197  0.2157
56377POPE   C3B86899   4.406  15.230  11.129 -0.1041  0.0795  0.5078
56377POPE   C4B86900   4.077  14.857  11.197  0.1795  0.0856  0.3426
56378POPE   NH386901  15.572  23.699  16.886 -0.4498  0.0322  0.0177
56378POPE   PO486902  15.795  24.153  16.750  0.0239 -0.2547 -0.0001
56378POPE   GL186903  16.282  24.004  16.785 -0.3472 -0.1427 -0.0952
56378POPE   GL286904  16.305  24.249  16.963  0.0586 -0.0561 -0.3246
56378POPE   C1A86905  16.678  23.959  16.833  0.1418 -0.2796 -0.3635
56378POPE   D2A86906  16.891  24.004  17.187  0.0160 -0.1984 -0.0983
56378POPE   C3A86907  17.345  24.127  17.152  0.1497  0.0887 -0.0821
56378POPE   C4A86908  17.831  24.119  17.115  0.3695 -0.0763 -0.2361
56378POPE   C1B86909  16.613  24.418  17.230  0.0380 -0.0629  0.1288
56378POPE   C2B86910  16.958  24.396  17.486  0.0281  0.2391 -0.1418
56378POPE   C3B86911  17.232  24.457  17.730  0.2158  0.3255 -0.1222
56378POPE   C4B86912  17.521  24.496  18.008  0.1828  0.1957 -0.1180
56379POPE   NH386913  20.347  30.772   8.373  0.1698 -0.0320 -0.1584
56379POPE   PO486914  20.462  30.387   8.290  0.2817 -0.0971 -0.3797
56379POPE   GL186915  20.730  30.253   8.654 -0.5424  0.0933  0.0268
56379POPE   GL286916  20.824  29.908   8.512 -0.3420  0.0667 -0.0379
56379POPE   C1A86917  20.961  30.115   8.924  0.1749  0.0308  0.1349
56379POPE   D2A86918  20.898  29.666   8.986 -0.0220 -0.0627 -0.0994
56379POPE   C3A86919  21.142  29.448   9.143 -0.2336  0.1666 -0.5590
56379POPE   C4A86920  21.261  29.301   9.534 -0.4933 -0.4617  0.2386
56379POPE   C1B86921  21.224  29.785   8.547  0.1933  0.2135 -0.3220
56379POPE   C2B86922  21.443  29.922   8.862 -0.0740  0.1762 -0.0798
56379POPE   C3B86923  21.711  29.952   9.196 -0.3939 -0.2087  0.1091
56379POPE   C4B86924  22.036  30.058   9.511 -0.0089 -0.2651 -0.0988
56380POPE   NH386925  32.096   7.262   3.900 -0.1585  0.0141  0.0718
56380POPE   PO486926  32.056   7.173   4.219 -0.0701  0.0781 -0.0432
56380POPE   GL186927  32.238   7.473   4.607  0.3094 -0.0022  0.1174
56380POPE   GL286928  32.266   7.723   4.582 -0.3408  0.1948  0.1058
56380POPE   C1A86929  32.203   7.217   4.978  0.0168 -0.0420 -0.2769
56380POPE   D2A86930  31.863   7.276   5.258  0.1600  0.3267  0.2769
56380POPE   C3A86931  31.932   7.564   5.617 -0.2642 -0.0024  0.1978
56380POPE   C4A86932  31.676   7.795   5.789 -0.2770  0.0973  0.0249
56380POPE   C1B86933  32.120   7.746   5.080 -0.0569  0.0076 -0.3157
56380POPE   C2B86934  32.306   7.790   5.418 -0.0354 -0.0625 -0.5296
56380POPE   C3B86935  32.183   7.938   5.879  0.0297 -0.0085 -0.0003
56380POPE   C4B86936  31.927   8.273   6.004  0.0544 -0.1208  0.0156
56381POPE   NH386937   4.161   7.973   9.202 -0.2871 -0.0038 -0.1285
56381POPE   PO486938   4.489   7.672   9.401  0.1237  0.2898 -0.1313
56381POPE   GL186939   4.018   7.625   9.605 -0.2467 -0.0197  0.0031
56381POPE   GL286940   4.054   7.849   9.927  0.1998 -0.2447  0.1890
56381POPE   C1A86941   3.615   7.610   9.735  0.0354  0.0037 -0.1424
56381POPE   D2A86942   3.342   7.632  10.015  0.4343  0.2485 -0.1951
56381POPE   C3A86943   2.955   7.932  10.172  0.0025  0.2378  0.3710
56381POPE   C4A86944   2.594   8.044  10.235 -0.1133  0.1130  0.0425
56381POPE   C1B86945   3.746   7.787  10.310  0.0587 -0.2628  0.4553
56381POPE   C2B86946   3.374   7.830  10.611  0.3311  0.2114 -0.2269
56381POPE   C3B86947   3.254   7.970  11.017  0.0387 -0.0950 -0.0396
56381POPE   C4B86948   3.304   7.745  11.527  0.5900 -0.0357 -0.0542
56382POPE   NH386949  33.562  35.154   8.030  0.0899  0.1119 -0.1114
56382POPE   PO486950  33.409   0.141   7.991  0.1732 -0.0623  0.1639
56382POPE   GL186951  33.145   0.118   8.257  0.0313 -0.1136  0.3237
56382POPE   GL286952  32.921   0.293   8.191 -0.0983  0.2233 -0.0381
56382POPE   C1A86953  33.015   0.128   8.742  0.0533  0.1844  0.1283
56382POPE   D2A86954  33.026   0.107   9.040  0.0072  0.0569 -0.0826
56382POPE   C3A86955  32.798   0.228   9.302 -0.0372  0.1903  0.3097
56382POPE   C4A86956  32.523   0.140   9.680 -0.0886  0.0491 -0.1220
56382POPE   C1B86957  32.592   0.392   8.561 -0.0788  0.3014 -0.0821
56382POPE   C2B86958  32.511   0.291   8.879 -0.1684 -0.1038  0.0880
56382POPE   C3B86959  32.442  35.346   9.223  0.0696  0.1780  0.0037
56382POPE   C4B86960  32.466  34.973   9.524 -0.0357 -0.1668  0.1856
56383POPE   NH386961   4.576  16.126   7.754  0.1098  0.0192  0.1671
56383POPE   PO486962   4.743  16.596   7.761  0.0085 -0.1271 -0.1936
56383POPE   GL186963   4.296  16.570   7.888 -0.2733  0.0662  0.1632
56383POPE   GL286964   4.084  16.502   7.622  0.0537 -0.0717 -0.3014
56383POPE   C1A86965   4.027  16.583   8.262 -0.4135  0.2541  0.0089
56383POPE   D2A86966   3.657  16.664   8.473 -0.0257  0.0140  0.1115
56383POPE   C3A86967   3.247  16.751   8.168  0.0107  0.3967  0.2440
56383POPE   C4A86968   3.052  17.121   7.892  0.0791  0.1227  0.2165
56383POPE   C1B86969   3.706  16.474   7.926 -0.1494  0.2251  0.2040
56383POPE   C2B86970   3.326  16.266   8.141 -0.0764 -0.1524 -0.1647
56383POPE   C3B86971   2.906  16.329   8.296  0.0339 -0.2767 -0.0463
56383POPE   C4B86972   2.556  16.067   8.362  0.0555  0.2211  0.0245
56384POPE   NH386973  20.993   0.798   8.664 -0.1800 -0.1205  0.0980
56384POPE   PO486974  20.735   0.796   8.953 -0.1486 -0.1102  0.0713
56384POPE   GL186975  20.801   0.813   9.363 -0.0749 -0.0700  0.0019
56384POPE   GL286976  20.935   1.181   9.251  0.2758 -0.0449  0.3208
56384POPE   C1A86977  20.825   0.756   9.747 -0.1951 -0.2359  0.0710
56384POPE   D2A86978  21.174   0.744  10.011  0.1561  0.3164  0.4490
56384POPE   C3A86979  21.177   0.511  10.466  0.1849  0.1589 -0.1640
56384POPE   C4A86980  21.213   0.190  10.715  0.2930 -0.0943 -0.2066
56384POPE   C1B86981  21.144   1.127   9.715 -0.1026 -0.2038 -0.1033
56384POPE   C2B86982  21.297   1.176  10.175 -0.0391 -0.0107 -0.0514
56384POPE   C3B86983  21.440   0.936  10.386  0.0361 -0.0374  0.1752
56384POPE   C4B86984  21.673   0.556  10.414  0.0894 -0.0021 -0.0570
56385DOPE   NH386985   3.368  18.462   4.463  0.3496  0.1144 -0.0302
56385DOPE   PO486986   3.148  18.810   4.410  0.2320  0.4547 -0.0325
56385DOPE   GL186987   2.818  18.651   4.642 -0.1275 -0.1072 -0.3116
56385DOPE   GL286988   2.496  18.793   4.545 -0.1803  0.0736 -0.0624
56385DOPE   C1A86989   2.636  18.456   5.076  0.1442  0.0080 -0.0138
56385DOPE   D2A86990   2.302  18.221   5.082  0.0118  0.1247  0.1436
56385DOPE   C3A86991   2.015  18.113   5.322 -0.0432  0.0228  0.1606
56385DOPE   C4A86992   1.715  18.086   5.653 -0.2054  0.1737 -0.0272
56385DOPE   C1B86993   2.295  18.756   4.919 -0.0394  0.0953  0.1879
56385DOPE   D2B86994   2.230  18.574   5.380 -0.1423  0.0847 -0.3569
56385DOPE   C3B86995   1.932  18.611   5.644  0.0522 -0.1369  0.1520
56385DOPE   C4B86996   1.737  18.442   6.013 -0.4053  0.0021 -0.0498
56386DOPE   NH386997   3.016  16.907   3.470  0.2383 -0.4521  0.5311
56386DOPE   PO486998   3.169  17.212   3.806  0.2020 -0.2540 -0.0165
56386DOPE   GL186999   2.929  17.279   4.202  0.0184  0.1005  0.1516
56386DOPE   GL287000   2.693  17.161   4.310 -0.0242  0.3720  0.1684
56386DOPE   C1A87001   2.540  17.558   4.497 -0.0185 -0.1604  0.0827
56386DOPE   D2A87002   2.139  17.748   4.493  0.4964 -0.1225  0.1158
56386DOPE   C3A87003   2.005  17.871   4.897  0.2678 -0.0321  0.2200
56386DOPE   C4A87004   1.678  17.743   5.175  0.0781  0.0542  0.3648
56386DOPE   C1B87005   2.296  17.107   4.658  0.0337 -0.2578  0.1304
56386DOPE   D2B87006   2.099  17.040   5.010 -0.1453 -0.0224  0.1352
56386DOPE   C3B87007   2.045  17.310   5.273 -0.1081  0.1866  0.0925
56386DOPE   C4B87008   1.868  17.562   5.591  0.1118 -0.0462 -0.0224
56387DOPE   NH387009   8.558  25.048  17.194  0.0087  0.1592  0.0696
56387DOPE   PO487010   8.943  25.200  17.275 -0.0287  0.1252 -0.1193
56387DOPE   GL187011   8.908  25.463  17.570 -0.2713  0.2088 -0.0333
56387DOPE   GL287012   8.863  25.217  17.870 -0.0310  0.1954 -0.0260
56387DOPE   C1A87013   8.527  25.673  17.591  0.1939  0.1586 -0.2781
56387DOPE   D2A87014   8.506  26.103  17.838 -0.1358  0.1272  0.0028
56387DOPE   C3A87015   8.334  26.064  18.231 -0.0928 -0.1632 -0.0190
56387DOPE   C4A87016   8.254  26.254  18.611  0.1530  0.0414  0.0799
56387DOPE   C1B87017   8.663  25.269  18.236  0.2645  0.1564 -0.1071
56387DOPE   D2B87018   8.600  25.250  18.751 -0.0389 -0.4266  0.0527
56387DOPE   C3B87019   8.331  25.555  19.015  0.0100  0.0631  0.2364
56387DOPE   C4B87020   8.129  25.814  19.240  0.0019  0.0163 -0.0299
56388DOPE   NH387021   4.005  31.960  12.410 -0.1226 -0.1447  0.1505
56388DOPE   PO487022   4.073  31.670  12.846 -0.0240 -0.3190  0.4204
56388DOPE   GL187023   3.654  31.556  13.177 -0.1417  0.2004 -0.0683
56388DOPE   GL287024   3.977  31.573  13.393 -0.2264  0.0126 -0.1032
56388DOPE   C1A87025   3.517  31.617  13.580  0.0853  0.1849  0.2477
56388DOPE   D2A87026   3.231  31.880  13.713  0.2816  0.1599 -0.0337
56388DOPE   C3A87027   3.178  32.002  14.062  0.4787 -0.4088 -0.1900
56388DOPE   C4A87028   3.244  32.192  14.545  0.1419 -0.0414  0.1662
56388DOPE   C1B87029   4.186  31.949  13.641 -0.1159  0.0649 -0.1553
56388DOPE   D2B87030   4.159  32.291  13.650 -0.1727  0.0890  0.1392
56388DOPE   C3B87031   4.135  32.358  14.117  0.0257 -0.4153  0.0719
56388DOPE   C4B87032   4.396  32.198  14.433 -0.1146 -0.0663  0.2641
56389DOPE   NH387033   3.775  17.721   4.362 -0.3289 -0.0923 -0.2485
56389DOPE   PO487034   3.673  17.302   4.471 -0.3593  0.1388 -0.1602
56389DOPE   GL187035   3.375  17.205   4.697 -0.0597 -0.0457 -0.0854
56389DOPE   GL287036   3.064  17.117   4.676 -0.1877 -0.0133  0.0399
56389DOPE   C1A87037   3.142  17.125   5.168  0.0670  0.1177  0.1932
56389DOPE   D2A87038   3.051  16.781   5.368 -0.0132  0.2016  0.0145
56389DOPE   C3A87039   2.561  16.739   5.598  0.0269  0.1708  0.1351
56389DOPE   C4A87040   2.329  16.502   5.852 -0.2041 -0.2408  0.0531
56389DOPE   C1B87041   2.715  17.276   4.861  0.0824  0.3056 -0.1139
56389DOPE   D2B87042   2.345  17.512   4.953 -0.0461 -0.0106  0.1359
56389DOPE   C3B87043   2.353  17.741   5.247  0.0837 -0.4409  0.2998
56389DOPE   C4B87044   2.258  17.834   5.721 -0.1143 -0.0692  0.1397
56390DOPE   NH387045  19.420  17.767  10.564 -0.2090 -0.1708  0.1132
56390DOPE   PO487046  19.449  17.957  10.105  0.0222  0.1837 -0.3796
56390DOPE   GL187047  19.764  18.146  10.363 -0.4942  0.1805 -0.1997
56390DOPE   GL287048  20.011  18.031  10.147  0.2693 -0.0140  0.2481
56390DOPE   C1A87049  20.151  18.170  10.583  0.0369 -0.1679 -0.0014
56390DOPE   D2A87050  20.566  18.095  10.691 -0.0497  0.0773 -0.0484
56390DOPE   C3A87051  20.643  17.911  11.052 -0.0200 -0.0767  0.1917
56390DOPE   C4A87052  20.792  18.104  11.408  0.0013  0.0331  0.0792
56390DOPE   C1B87053  20.419  17.847  10.265  0.4621  0.0464 -0.3807
56390DOPE   D2B87054  20.633  17.568  10.531  0.4366 -0.2756  0.1416
56390DOPE   C3B87055  20.954  17.754  10.714 -0.2634  0.0584  0.0549
56390DOPE   C4B87056  21.085  18.130  10.954  0.2284  0.2391  0.2523
56391DOPE   NH387057   1.108  21.924   2.983  0.2497  0.0229 -0.0987
56391DOPE   PO487058   1.071  22.413   3.053 -0.2342  0.2721  0.1739
56391DOPE   GL187059   0.708  22.179   3.195 -0.0502  0.0774 -0.2274
56391DOPE   GL287060   0.707  22.209   3.482  0.0059  0.2500  0.1652
56391DOPE   C1A87061   0.410  21.819   3.240 -0.1849  0.2847  0.1193
56391DOPE   D2A87062   0.119  21.577   3.531  0.0037  0.2282 -0.0559
56391DOPE   C3A87063  35.277  21.616   3.867 -0.3142 -0.1672  0.1250
56391DOPE   C4A87064  34.896  21.489   4.045  0.0725  0.4239 -0.1929
56391DOPE   C1B87065   0.412  21.953   3.787 -0.2603  0.1586  0.0504
56391DOPE   D2B87066   0.072  22.048   4.142 -0.1481  0.2515  0.1886
56391DOPE   C3B87067  35.164  21.800   4.418 -0.2946  0.4158  0.0016
56391DOPE   C4B87068  34.776  21.831   4.457  0.1553 -0.2141 -0.1825
56392DOPE   NH387069   7.109  16.361  12.143  0.2435  0.2096 -0.1933
56392DOPE   PO487070   6.912  16.605  11.912 -0.0889 -0.2920 -0.1829
56392DOPE   GL187071   6.744  16.872  12.230  0.0745  0.1098 -0.1585
56392DOPE   GL287072   6.713  17.285  12.142  0.2127 -0.2960  0.1038
56392DOPE   C1A87073   6.463  17.032  12.514 -0.0307 -0.3257  0.0860
56392DOPE   D2A87074   6.219  17.175  12.725  0.0077  0.1703 -0.0013
56392DOPE   C3A87075   5.747  17.270  12.701 -0.3166  0.0237  0.1462
56392DOPE   C4A87076   5.406  17.260  12.967 -0.3325 -0.0796  0.3421
56392DOPE   C1B87077   6.339  17.463  12.289 -0.3555 -0.1676  0.0009
56392DOPE   D2B87078   5.989  17.504  12.340 -0.0277  0.1127  0.1753
56392DOPE   C3B87079   5.592  17.344  12.214 -0.0952 -0.1810 -0.4163
56392DOPE   C4B87080   5.356  17.036  12.170  0.0499  0.1553 -0.2437
56393DOPE   NH387081  12.230  19.414  15.517 -0.0705  0.1022 -0.0572
56393DOPE   PO487082  12.395  19.010  15.499  0.0334  0.0853  0.0990
56393DOPE   GL187083  12.160  18.915  15.854  0.2521 -0.1668 -0.2405
56393DOPE   GL287084  11.789  18.950  15.651 -0.0765  0.2389 -0.0914
56393DOPE   C1A87085  12.073  18.890  16.098  0.2838 -0.0144 -0.0929
56393DOPE   D2A87086  12.014  18.941  16.586 -0.2266 -0.0168  0.2563
56393DOPE   C3A87087  12.185  18.690  16.907  0.1593 -0.1598  0.2365
56393DOPE   C4A87088  12.393  18.673  17.294  0.0839 -0.3683 -0.1835
56393DOPE   C1B87089  11.598  18.845  16.062  0.0459  0.0559  0.3982
56393DOPE   D2B87090  11.568  18.540  16.406  0.3303  0.0726  0.2108
56393DOPE   C3B87091  11.780  18.457  16.768 -0.0863  0.3851 -0.0194
56393DOPE   C4B87092  11.864  18.354  17.164 -0.4442 -0.1953  0.0303
56394DOPE   NH387093   8.149   8.976  13.856  0.2299  0.0431 -0.1637
56394DOPE   PO487094   8.347   9.371  13.721 -0.2544 -0.0904  0.0878
56394DOPE   GL187095   8.144   9.480  14.060 -0.0589 -0.0798  0.1160
56394DOPE   GL287096   8.256   9.594  14.315 -0.0883 -0.1070  0.1071
56394DOPE   C1A87097   7.809   9.378  14.305  0.1587  0.2552  0.0183
56394DOPE   D2A87098   7.631   9.535  14.615 -0.1680  0.2017 -0.0427
56394DOPE   C3A87099   7.653   9.696  15.045 -0.1603 -0.0391 -0.0890
56394DOPE   C4A87100   7.257   9.922  15.201 -0.3748  0.1599  0.0631
56394DOPE   C1B87101   8.079   9.816  14.577  0.0180 -0.1950 -0.0198
56394DOPE   D2B87102   8.071  10.103  14.922  0.1160 -0.0781 -0.3036
56394DOPE   C3B87103   7.741  10.217  15.136 -0.2156  0.0627  0.1276
56394DOPE   C4B87104   7.405  10.441  15.314  0.0151  0.1962  0.1802
56395DOPE   NH387105   5.929   7.684  10.697  0.2278 -0.4245  0.0851
56395DOPE   PO487106   5.734   7.376  10.684  0.0932  0.3707  0.1976
56395DOPE   GL187107   5.420   7.722  10.758  0.0921 -0.1236  0.2249
56395DOPE   GL287108   5.576   8.005  10.981 -0.2098  0.2770 -0.0050
56395DOPE   C1A87109   5.040   7.762  10.805  0.2484  0.0811 -0.1614
56395DOPE   D2A87110   4.870   7.859  11.163  0.0019  0.2083  0.2336
56395DOPE   C3A87111   4.471   7.792  11.171  0.1630  0.1044  0.0912
56395DOPE   C4A87112   4.203   7.820  11.544  0.1559  0.0307  0.0292
56395DOPE   C1B87113   5.375   7.902  11.311 -0.1562  0.0942 -0.2170
56395DOPE   D2B87114   5.011   7.878  11.681  0.1920 -0.2132  0.0261
56395DOPE   C3B87115   4.615   7.999  11.629 -0.0453 -0.2336  0.0526
56395DOPE   C4B87116   4.226   8.291  11.855 -0.0172 -0.1182 -0.0323
56396DOPE   NH387117   9.640  20.254  15.852  0.1282 -0.1241 -0.1517
56396DOPE   PO487118   9.278  20.352  16.033 -0.0316  0.1993 -0.0785
56396DOPE   GL187119   8.958  20.388  16.374 -0.2675  0.1424 -0.0180
56396DOPE   GL287120   8.800  20.667  16.511 -0.2045  0.2322 -0.0577
56396DOPE   C1A87121   8.840  20.138  16.729  0.4273  0.1141  0.1840
56396DOPE   D2A87122   8.570  19.869  16.872  0.0776  0.0253  0.3136
56396DOPE   C3A87123   8.644  19.643  17.146 -0.4281 -0.1031  0.0241
56396DOPE   C4A87124   8.408  19.789  17.502 -0.1993  0.0890 -0.3304
56396DOPE   C1B87125   8.595  20.541  16.900  0.0401 -0.1394 -0.1139
56396DOPE   D2B87126   8.369  20.295  17.167 -0.0707  0.1281  0.0543
56396DOPE   C3B87127   7.932  20.293  17.253  0.0894  0.1431  0.3235
56396DOPE   C4B87128   7.564  20.153  16.909  0.1868 -0.0159  0.0236
56397DOPE   NH387129  25.418  19.846   0.953  0.3608  0.1561 -0.1465
56397DOPE   PO487130  25.481  19.450   0.888  0.0649  0.0850 -0.0176
56397DOPE   GL187131  25.627  19.366   1.268  0.0298  0.1453 -0.1354
56397DOPE   GL287132  25.490  19.723   1.441  0.0814  0.1461  0.1102
56397DOPE   C1A87133  25.899  19.273   1.512  0.0096  0.1734 -0.1466
56397DOPE   D2A87134  26.329  19.034   1.640 -0.0184 -0.0250 -0.0140
56397DOPE   C3A87135  26.536  19.131   1.978  0.1408 -0.0583  0.2656
56397DOPE   C4A87136  26.742  19.321   2.353  0.1638  0.1208 -0.1094
56397DOPE   C1B87137  25.638  19.571   1.824  0.1136  0.5051  0.1511
56397DOPE   D2B87138  25.990  19.306   2.041 -0.0651 -0.1267  0.1617
56397DOPE   C3B87139  26.023  19.130   2.374  0.0345 -0.3399 -0.3609
56397DOPE   C4B87140  25.952  19.262   2.774  0.1690  0.1598  0.2788
56398DOPE   NH387141   4.051   2.639  10.329  0.3629  0.1495 -0.2258
56398DOPE   PO487142   3.749   2.384  10.178  0.2509 -0.0797 -0.1277
56398DOPE   GL187143   3.638   2.548  10.595 -0.2168 -0.1891 -0.2055
56398DOPE   GL287144   3.722   2.858  10.595 -0.0981  0.0999 -0.3629
56398DOPE   C1A87145   3.257   2.714  10.730  0.0003  0.0864  0.0422
56398DOPE   D2A87146   2.985   3.054  10.688  0.0826 -0.0044 -0.0558
56398DOPE   C3A87147   2.704   3.320  10.945  0.0016  0.0502 -0.1197
56398DOPE   C4A87148   2.376   3.627  10.948  0.0286 -0.2320 -0.1830
56398DOPE   C1B87149   3.303   2.874  10.279 -0.3322 -0.3986  0.3060
56398DOPE   D2B87150   2.993   2.596  10.298 -0.2235  0.0314 -0.0949
56398DOPE   C3B87151   2.567   2.848  10.489  0.1777 -0.1062  0.2831
56398DOPE   C4B87152   2.163   3.087  10.789  0.0284 -0.0432  0.0020
56399DOPE   NH387153   7.495   6.166  13.836  0.0578  0.0426 -0.2625
56399DOPE   PO487154   7.822   6.334  13.970  0.1623 -0.0787  0.1397
56399DOPE   GL187155   7.654   6.650  14.123 -0.1021  0.0131  0.0579
56399DOPE   GL287156   7.937   6.881  14.189  0.0109 -0.1213  0.0031
56399DOPE   C1A87157   7.236   6.627  14.347 -0.2842  0.1193  0.1830
56399DOPE   D2A87158   6.947   6.744  14.537 -0.0685  0.1754  0.1828
56399DOPE   C3A87159   6.824   6.864  15.002 -0.1300 -0.1114 -0.2246
56399DOPE   C4A87160   6.498   6.870  15.377 -0.1139  0.0883 -0.0810
56399DOPE   C1B87161   7.540   7.044  14.404  0.1455 -0.0118  0.1344
56399DOPE   D2B87162   7.306   7.038  14.701  0.0126  0.1243 -0.2153
56399DOPE   C3B87163   7.252   7.242  15.135 -0.1784 -0.3157  0.4128
56399DOPE   C4B87164   6.904   7.419  15.309  0.1907  0.2157 -0.1600
56400DOPE   NH387165   3.270  27.900  12.013  0.0085  0.0493  0.0560
56400DOPE   PO487166   3.365  27.832  12.371  0.0380  0.0377  0.0827
56400DOPE   GL187167   3.270  27.545  12.757  0.1386  0.2258  0.0328
56400DOPE   GL287168   3.330  27.782  13.061 -0.0506 -0.0722  0.0170
56400DOPE   C1A87169   3.077  27.220  12.989  0.0262  0.0775 -0.0435
56400DOPE   D2A87170   2.729  27.088  13.235  0.3573 -0.2261  0.2837
56400DOPE   C3A87171   2.723  27.020  13.594 -0.1323  0.1400 -0.1886
56400DOPE   C4A87172   2.477  26.709  13.867 -0.0942 -0.0818  0.1482
56400DOPE   C1B87173   2.887  27.795  13.133 -0.1551  0.2363  0.0251
56400DOPE   D2B87174   2.500  27.560  13.177 -0.1228 -0.1223 -0.0224
56400DOPE   C3B87175   2.279  27.272  13.504 -0.2950  0.3898  0.1456
56400DOPE   C4B87176   2.120  26.986  13.713 -0.0499 -0.1633 -0.0194
56401DOPE   NH387177  10.749  34.831  15.816 -0.3181  0.0449 -0.0418
56401DOPE   PO487178  11.093  34.519  15.843 -0.1008  0.3133  0.2321
56401DOPE   GL187179  11.308  34.805  16.196 -0.3765 -0.0775 -0.2980
56401DOPE   GL287180  11.043  34.868  16.227  0.1238  0.3800 -0.1718
56401DOPE   C1A87181  11.607  34.953  16.196 -0.3956 -0.3083  0.0146
56401DOPE   D2A87182  12.000  35.062  16.548 -0.3231 -0.1293  0.0390
56401DOPE   C3A87183  11.948  35.332  16.805  0.0385 -0.3087 -0.0882
56401DOPE   C4A87184  11.955   0.436  16.782 -0.1678 -0.0534 -0.0306
56401DOPE   C1B87185  11.141  34.572  16.645  0.1629  0.1895  0.0427
56401DOPE   D2B87186  11.209  34.322  17.018  0.0627 -0.2191  0.1570
56401DOPE   C3B87187  11.552  34.605  17.387 -0.0381 -0.2125  0.0321
56401DOPE   C4B87188  11.875  34.698  17.647  0.1462  0.0851  0.1615
56402DOPE   NH387189  33.219  28.834   5.532 -0.0352  0.2181  0.0397
56402DOPE   PO487190  33.631  28.631   5.541 -0.0781  0.2545 -0.1094
56402DOPE   GL187191  33.430  28.392   5.777  0.0167  0.3044  0.1915
56402DOPE   GL287192  33.155  28.275   5.744  0.0012  0.3770  0.2005
56402DOPE   C1A87193  33.526  28.208   6.146 -0.3069  0.2758  0.1016
56402DOPE   D2A87194  33.636  27.948   6.415 -0.2984  0.0973 -0.1659
56402DOPE   C3A87195  33.318  27.835   6.731  0.0224  0.1094 -0.3428
56402DOPE   C4A87196  33.203  28.104   7.141 -0.0804 -0.3257 -0.0397
56402DOPE   C1B87197  33.063  28.191   6.094  0.0322  0.1688 -0.0999
56402DOPE   D2B87198  33.097  27.960   6.278  0.0221 -0.1568  0.0068
56402DOPE   C3B87199  32.852  27.707   6.513 -0.1296 -0.0856 -0.0181
56402DOPE   C4B87200  32.553  27.411   6.667  0.1385  0.2407  0.1241
56403DOPE   NH387201   4.951  18.052   6.287 -0.1393 -0.4572 -0.0996
56403DOPE   PO487202   4.925  18.423   6.171 -0.0510 -0.1720  0.0994
56403DOPE   GL187203   4.559  18.517   6.319 -0.1885 -0.3657 -0.0654
56403DOPE   GL287204   4.486  18.211   6.329  0.1625 -0.1245 -0.0687
56403DOPE   C1A87205   4.131  18.696   6.308  0.2273  0.2257  0.1111
56403DOPE   D2A87206   3.688  18.787   6.277 -0.0518  0.2493 -0.1542
56403DOPE   C3A87207   3.340  18.680   6.665  0.1367  0.0054  0.2229
56403DOPE   C4A87208   3.042  18.685   6.877 -0.0984  0.1277  0.2075
56403DOPE   C1B87209   4.125  17.962   6.301 -0.2043 -0.1272 -0.0062
56403DOPE   D2B87210   3.757  17.768   6.422  0.0588  0.0688 -0.0033
56403DOPE   C3B87211   3.324  17.909   6.686 -0.2603 -0.3289  0.0354
56403DOPE   C4B87212   2.969  18.089   6.913  0.1816  0.0601 -0.2157
56404DOPE   NH387213  25.396   6.045   4.457 -0.2021  0.1064  0.0509
56404DOPE   PO487214  25.384   6.535   4.565  0.2405 -0.1359  0.1048
56404DOPE   GL187215  25.756   6.616   4.648  0.3080  0.2664  0.2425
56404DOPE   GL287216  25.712   6.365   4.948  0.1249  0.2644  0.1608
56404DOPE   C1A87217  26.160   6.456   4.698  0.0937  0.0859  0.1064
56404DOPE   D2A87218  26.443   6.202   4.758 -0.1714 -0.0532  0.0677
56404DOPE   C3A87219  26.793   6.413   4.794 -0.0283  0.3714  0.2748
56404DOPE   C4A87220  26.960   6.869   4.659 -0.7044  0.1155  0.0196
56404DOPE   C1B87221  25.820   6.350   5.443 -0.2182  0.0306  0.0952
56404DOPE   D2B87222  26.139   6.485   5.700 -0.2721 -0.0505 -0.0453
56404DOPE   C3B87223  26.265   6.656   6.132  0.1361  0.1197 -0.1495
56404DOPE   C4B87224  26.664   6.839   6.308 -0.0677  0.0308  0.0833
56405DOPE   NH387225  19.814   2.528   9.570  0.1626 -0.1213  0.2548
56405DOPE   PO487226  19.830   2.094   9.461  0.2281 -0.0509  0.7738
56405DOPE   GL187227  19.994   1.975   9.765 -0.0532 -0.1500 -0.2025
56405DOPE   GL287228  19.811   1.957  10.000  0.2808 -0.1343  0.2303
56405DOPE   C1A87229  20.297   1.716  10.031 -0.1387 -0.0979  0.1913
56405DOPE   D2A87230  20.538   1.655  10.406 -0.1991  0.2084  0.0229
56405DOPE   C3A87231  20.467   1.308  10.623 -0.0043  0.2145 -0.0978
56405DOPE   C4A87232  20.340   1.122  10.966 -0.1023 -0.0042  0.1072
56405DOPE   C1B87233  19.895   1.742  10.358 -0.1034 -0.1690  0.0958
56405DOPE   D2B87234  20.053   1.661  10.738  0.1040  0.1343 -0.1487
56405DOPE   C3B87235  20.370   1.670  11.015 -0.0882  0.1520  0.0163
56405DOPE   C4B87236  20.785   1.469  11.091  0.0941 -0.1374 -0.0188
56406DOPE   NH387237  12.265  30.495  16.984 -0.0190 -0.1475  0.1089
56406DOPE   PO487238  11.941  30.231  17.278 -0.2315  0.1065 -0.3270
56406DOPE   GL187239  11.742  30.399  17.578  0.0973  0.0457  0.2819
56406DOPE   GL287240  11.575  30.560  17.378 -0.0719 -0.0184  0.0597
56406DOPE   C1A87241  11.754  30.436  18.064  0.0690  0.2350  0.4169
56406DOPE   D2A87242  11.810  30.635  18.462  0.0940  0.1471  0.0771
56406DOPE   C3A87243  12.207  30.712  18.569  0.0266  0.0614 -0.3880
56406DOPE   C4A87244  12.171  31.005  18.855  0.2107 -0.3738  0.1334
56406DOPE   C1B87245  11.489  30.811  17.782  0.2619  0.0404  0.1254
56406DOPE   D2B87246  11.473  30.893  18.204 -0.1535 -0.1296  0.0770
56406DOPE   C3B87247  11.236  30.829  18.578  0.1925 -0.4100 -0.1644
56406DOPE   C4B87248  11.174  30.842  18.943  0.0576 -0.0777 -0.0364
56407DOPE   NH387249  11.541  20.937  17.505 -0.4347 -0.0680  0.1811
56407DOPE   PO487250  11.405  20.638  17.128 -0.3106 -0.1223 -0.2323
56407DOPE   GL187251  11.257  20.328  17.438 -0.3369 -0.0811  0.0577
56407DOPE   GL287252  11.382  20.518  17.714 -0.3882 -0.2106 -0.0903
56407DOPE   C1A87253  11.197  20.004  17.694 -0.1386  0.3491 -0.1450
56407DOPE   D2A87254  11.066  19.703  17.950  0.0119 -0.3565 -0.1631
56407DOPE   C3A87255  11.212  19.753  18.289  0.4006 -0.0600 -0.1532
56407DOPE   C4A87256  11.612  19.725  18.448 -0.1324  0.0995  0.0764
56407DOPE   C1B87257  11.185  20.343  18.092  0.1376  0.0664  0.0987
56407DOPE   D2B87258  10.835  20.135  18.098 -0.0629  0.0260  0.0239
56407DOPE   C3B87259  10.667  19.765  18.338 -0.0031  0.1285  0.1372
56407DOPE   C4B87260  10.769  19.419  18.271 -0.0576 -0.2400  0.1787
56408DOPE   NH387261   0.564  26.773   6.927 -0.0880  0.0863 -0.0849
56408DOPE   PO487262   0.685  27.100   7.319 -0.1653  0.0736 -0.0389
56408DOPE   GL187263   0.341  26.940   7.558 -0.0070 -0.2189 -0.0353
56408DOPE   GL287264   0.221  26.975   7.315 -0.0986 -0.2065  0.0621
56408DOPE   C1A87265   0.103  26.715   7.820 -0.1944  0.1212 -0.0510
56408DOPE   D2A87266  35.254  26.362   8.184  0.1282  0.0290 -0.0821
56408DOPE   C3A87267  35.112  26.018   7.978  0.0632  0.0704 -0.0388
56408DOPE   C4A87268  34.753  25.946   7.640 -0.1697  0.1825  0.0536
56408DOPE   C1B87269  35.239  26.779   7.407  0.1607  0.0489  0.0952
56408DOPE   D2B87270  34.859  26.870   7.538  0.3390 -0.1529 -0.0490
56408DOPE   C3B87271  34.582  26.565   7.589 -0.1686 -0.2283  0.0241
56408DOPE   C4B87272  34.449  26.268   7.299  0.0107 -0.1414  0.1606
56409DOPE   NH387273   3.732  21.845   5.903 -0.1284 -0.0618 -0.0463
56409DOPE   PO487274   3.448  22.128   5.700 -0.0957  0.0509 -0.0940
56409DOPE   GL187275   3.332  22.142   6.061  0.0271 -0.0206  0.0948
56409DOPE   GL287276   3.443  21.880   6.341 -0.3149  0.2567  0.1187
56409DOPE   C1A87277   2.986  22.056   6.180  0.1205  0.0136  0.2515
56409DOPE   D2A87278   2.718  22.016   6.512  0.1984  0.2297  0.2142
56409DOPE   C3A87279   2.723  21.841   6.897 -0.0650 -0.2409  0.2721
56409DOPE   C4A87280   2.660  21.966   7.395  0.0248  0.1484  0.2691
56409DOPE   C1B87281   3.176  21.818   6.654  0.0623  0.1803 -0.2598
56409DOPE   D2B87282   3.331  21.600   6.965 -0.3724 -0.1298 -0.2279
56409DOPE   C3B87283   3.076  21.419   7.199 -0.2077 -0.2476 -0.0916
56409DOPE   C4B87284   3.006  21.056   7.338  0.2228  0.0378 -0.1165
56410DOPE   NH387285  14.014   3.367  12.864  0.3673 -0.3353 -0.1076
56410DOPE   PO487286  14.374   3.417  13.176  0.0379 -0.1145  0.0948
56410DOPE   GL187287  14.661   3.491  13.583  0.2087  0.2117 -0.3470
56410DOPE   GL287288  14.566   3.769  13.640 -0.0429  0.1001 -0.0675
56410DOPE   C1A87289  14.757   3.392  13.942  0.0473 -0.0047  0.0753
56410DOPE   D2A87290  14.902   3.224  14.296 -0.3639  0.1503  0.0472
56410DOPE   C3A87291  15.149   3.398  14.630 -0.0998 -0.1982  0.0678
56410DOPE   C4A87292  15.254   3.196  15.018 -0.1343  0.0609  0.2072
56410DOPE   C1B87293  14.367   3.627  14.039  0.1234  0.2913 -0.0922
56410DOPE   D2B87294  14.238   3.284  14.243 -0.4423  0.1344  0.1701
56410DOPE   C3B87295  14.385   3.245  14.661  0.2649  0.0616 -0.0741
56410DOPE   C4B87296  14.345   3.063  15.022  0.0350  0.1644 -0.0282
56411DOPE   NH387297  20.376  32.136   8.403  0.0058 -0.1435 -0.0469
56411DOPE   PO487298  20.621  31.766   8.179 -0.0919  0.0993 -0.2420
56411DOPE   GL187299  20.876  32.011   8.496  0.3601 -0.0163 -0.3720
56411DOPE   GL287300  20.838  32.378   8.424 -0.1234  0.4608 -0.1027
56411DOPE   C1A87301  21.265  31.883   8.726  0.0018 -0.2716  0.0415
56411DOPE   D2A87302  21.690  31.572   8.845  0.2092  0.0715  0.2674
56411DOPE   C3A87303  21.752  31.609   9.189 -0.2712 -0.0825  0.1375
56411DOPE   C4A87304  21.860  31.716   9.485 -0.0595 -0.0497 -0.2856
56411DOPE   C1B87305  21.223  32.479   8.657  0.1062  0.2471  0.0164
56411DOPE   D2B87306  21.500  32.532   8.922  0.1389 -0.0282  0.1536
56411DOPE   C3B87307  21.593  32.341   9.286 -0.0145 -0.0895 -0.4224
56411DOPE   C4B87308  21.545  32.424   9.677 -0.1301 -0.0820 -0.0038
56412DOPE   NH387309  26.589  31.761   5.776  0.1368 -0.2376  0.2486
56412DOPE   PO487310  26.508  32.144   5.725 -0.0090  0.0920  0.0930
56412DOPE   GL187311  26.537  32.156   6.117 -0.2466  0.0433 -0.2497
56412DOPE   GL287312  26.250  32.149   6.292  0.0469 -0.2839  0.2613
56412DOPE   C1A87313  26.788  32.277   6.381  0.0390  0.1465 -0.1376
56412DOPE   D2A87314  27.042  32.345   6.617  0.2527 -0.0861  0.1021
56412DOPE   C3A87315  27.105  32.668   6.847  0.2192 -0.3574 -0.0257
56412DOPE   C4A87316  27.030  32.513   7.343 -0.0947 -0.0579  0.2666
56412DOPE   C1B87317  26.354  32.253   6.659 -0.3051  0.0083 -0.0485
56412DOPE   D2B87318  26.674  32.107   6.898 -0.0066 -0.3807 -0.0904
56412DOPE   C3B87319  26.636  32.395   7.103  0.0316 -0.1117  0.0724
56412DOPE   C4B87320  26.291  32.684   7.058  0.3379 -0.1449 -0.1299
56413DOPE   NH387321   4.986  14.395   8.527 -0.0671  0.2857 -0.0730
56413DOPE   PO487322   4.885  14.669   8.123  0.0174  0.0917  0.1001
56413DOPE   GL187323   4.695  14.852   8.312  0.1048 -0.0521 -0.0393
56413DOPE   GL287324   4.560  14.648   8.643 -0.0928  0.0756  0.0380
56413DOPE   C1A87325   4.225  14.863   8.421  0.1969  0.1603  0.1934
56413DOPE   D2A87326   3.838  14.777   8.664 -0.0279  0.0465 -0.0772
56413DOPE   C3A87327   4.034  14.961   9.073 -0.3395 -0.1154 -0.2684
56413DOPE   C4A87328   3.864  14.889   9.480 -0.1025 -0.1601 -0.0208
56413DOPE   C1B87329   4.505  15.038   8.834 -0.0730  0.1790 -0.1589
56413DOPE   D2B87330   4.357  15.323   9.166  0.0813  0.0926  0.0386
56413DOPE   C3B87331   4.175  15.332   9.524  0.1442  0.1431  0.0030
56413DOPE   C4B87332   3.888  15.311   9.739  0.0826  0.2497 -0.0523
56414DOPE   NH387333   4.320   9.495   8.723 -0.0004 -0.0568 -0.2287
56414DOPE   PO487334   4.048   9.822   8.768 -0.1077  0.0365  0.2878
56414DOPE   GL187335   3.684  10.042   8.783  0.0087 -0.3313 -0.0288
56414DOPE   GL287336   3.573  10.307   8.571 -0.1790  0.2536 -0.1139
56414DOPE   C1A87337   3.455  10.175   9.170 -0.3277  0.1779  0.1692
56414DOPE   D2A87338   3.256  10.472   9.370  0.1600  0.2082  0.0631
56414DOPE   C3A87339   3.427  10.627   9.821  0.1041 -0.3506 -0.1746
56414DOPE   C4A87340   3.536  10.721  10.254 -0.1189 -0.0610  0.1953
56414DOPE   C1B87341   3.295  10.434   8.764 -0.1858  0.0505 -0.0589
56414DOPE   D2B87342   2.864  10.588   9.000 -0.4437 -0.1919  0.0682
56414DOPE   C3B87343   2.920  10.821   9.421  0.1695 -0.2254 -0.3343
56414DOPE   C4B87344   2.991  10.951   9.818  0.3794  0.1470  0.0326
56415DOPE   NH387345   5.968  26.670  15.190 -0.0798 -0.5812  0.0863
56415DOPE   PO487346   5.866  27.043  15.166 -0.1299 -0.0399 -0.0615
56415DOPE   GL187347   5.649  26.940  15.490  0.2566 -0.1160 -0.0630
56415DOPE   GL287348   5.706  27.032  15.715 -0.0742 -0.3429 -0.2766
56415DOPE   C1A87349   5.255  26.903  15.619 -0.1234  0.1281  0.1318
56415DOPE   D2A87350   4.982  26.830  16.032  0.0990 -0.1306  0.1508
56415DOPE   C3A87351   4.591  26.711  15.908 -0.0511 -0.2144 -0.0387
56415DOPE   C4A87352   4.308  26.491  15.995  0.0553 -0.0645 -0.0827
56415DOPE   C1B87353   5.535  26.814  16.063  0.3238  0.2586  0.1394
56415DOPE   D2B87354   5.451  26.519  16.388  0.1323 -0.3442  0.0042
56415DOPE   C3B87355   5.106  26.539  16.696 -0.0554  0.0534 -0.1796
56415DOPE   C4B87356   4.743  26.321  16.829 -0.3757  0.1912  0.1568
56416DOPE   NH387357  34.143  34.986   8.651 -0.0027 -0.2461  0.1288
56416DOPE   PO487358  33.874  35.044   8.409 -0.0091  0.1231  0.1027
56416DOPE   GL187359  33.622  35.329   8.494  0.0445 -0.0470  0.1650
56416DOPE   GL287360  33.395  35.122   8.577 -0.0725 -0.0534  0.1534
56416DOPE   C1A87361  33.515   0.178   8.843 -0.1230 -0.0813  0.0014
56416DOPE   D2A87362  33.439   0.342   9.148  0.0892  0.0347 -0.0104
56416DOPE   C3A87363  33.216   0.465   9.473 -0.0362 -0.0054  0.0117
56416DOPE   C4A87364  33.008   0.217   9.818 -0.2241  0.0358  0.2361
56416DOPE   C1B87365  33.209  34.964   8.908 -0.4207  0.3371 -0.1256
56416DOPE   D2B87366  32.842  35.016   9.198 -0.2272 -0.0068 -0.1023
56416DOPE   C3B87367  32.886  34.709   9.374 -0.3138 -0.0558 -0.3502
56416DOPE   C4B87368  32.811  34.608   9.793 -0.1215  0.1350  0.2179
56417DOPE   NH387369  24.394  27.604   4.935  0.1570  0.2767  0.0553
56417DOPE   PO487370  24.159  27.918   5.171  0.1460 -0.0518 -0.1957
56417DOPE   GL187371  24.023  27.745   5.617  0.0472  0.1565  0.2799
56417DOPE   GL287372  23.965  28.012   5.791  0.1920 -0.0276 -0.2835
56417DOPE   C1A87373  24.234  27.549   5.888  0.0940  0.1452  0.2280
56417DOPE   D2A87374  24.559  27.523   6.148 -0.1263  0.0593 -0.5367
56417DOPE   C3A87375  24.945  27.282   6.172 -0.2187 -0.0487  0.0851
56417DOPE   C4A87376  25.166  26.956   5.997 -0.1501 -0.0812  0.0418
56417DOPE   C1B87377  24.033  27.881   6.236 -0.0760  0.1912 -0.2187
56417DOPE   D2B87378  24.254  27.769   6.484 -0.2577 -0.0500 -0.0615
56417DOPE   C3B87379  24.442  27.873   6.861 -0.0422  0.4261 -0.1943
56417DOPE   C4B87380  24.532  27.949   7.216  0.1303 -0.0577 -0.1005
56418DOPE   NH387381  19.491   6.610  12.037 -0.2219  0.1294  0.0004
56418DOPE   PO487382  19.111   6.747  11.897 -0.2806 -0.0281  0.0437
56418DOPE   GL187383  19.241   6.744  12.403 -0.2630 -0.0748 -0.1865
56418DOPE   GL287384  19.452   7.077  12.581 -0.3514 -0.0560  0.1676
56418DOPE   C1A87385  19.356   6.586  12.871  0.1729  0.1397 -0.1219
56418DOPE   D2A87386  19.509   6.501  13.180 -0.1460  0.0531  0.1923
56418DOPE   C3A87387  19.769   6.435  13.538 -0.2535  0.1428  0.3794
56418DOPE   C4A87388  19.975   6.571  13.793 -0.1848  0.2176  0.0323
56418DOPE   C1B87389  19.551   7.029  13.076  0.1088 -0.1155 -0.0385
56418DOPE   D2B87390  19.733   6.934  13.371 -0.0821 -0.1042  0.0162
56418DOPE   C3B87391  20.026   7.210  13.514  0.0177 -0.2610 -0.1583
56418DOPE   C4B87392  20.434   7.344  13.459  0.1992 -0.2686  0.2379
56419DOPE   NH387393  31.771   0.314   6.871 -0.4344 -0.1129  0.0064
56419DOPE   PO487394  31.344   0.268   6.870 -0.1832 -0.1066 -0.0074
56419DOPE   GL187395  31.254   0.529   7.219  0.0303 -0.0959  0.0730
56419DOPE   GL287396  31.025   0.748   7.217  0.1084 -0.1897  0.0454
56419DOPE   C1A87397  31.372   0.509   7.636  0.1326  0.1719  0.1045
56419DOPE   D2A87398  31.463   0.435   8.109  0.0237 -0.0394 -0.0143
56419DOPE   C3A87399  31.238   0.509   8.390 -0.2034  0.2814 -0.2147
56419DOPE   C4A87400  31.421   0.519   8.806 -0.1125 -0.1248  0.1814
56419DOPE   C1B87401  30.958   0.784   7.642 -0.0978  0.1704 -0.1652
56419DOPE   D2B87402  30.990   0.702   8.017 -0.2836 -0.0838 -0.2162
56419DOPE   C3B87403  30.750   0.874   8.204 -0.0713  0.0856 -0.2224
56419DOPE   C4B87404  30.555   0.916   8.597  0.2464  0.2524 -0.1600
56420DOPE   NH387405  11.841  18.268  15.070 -0.0807 -0.2074  0.0797
56420DOPE   PO487406  11.643  18.663  15.238  0.0736 -0.2061 -0.0285
56420DOPE   GL187407  11.676  18.398  15.555  0.0007 -0.1076  0.2090
56420DOPE   GL287408  11.922  18.459  15.854  0.2783  0.2814  0.0999
56420DOPE   C1A87409  11.523  18.011  15.681 -0.3946  0.0255  0.0701
56420DOPE   D2A87410  11.146  17.936  15.769  0.2242 -0.0001 -0.1974
56420DOPE   C3A87411  10.917  17.720  16.136  0.3423  0.2620  0.2525
56420DOPE   C4A87412  11.168  17.723  16.532  0.0459  0.4107  0.1323
56420DOPE   C1B87413  11.687  18.171  16.144  0.1324  0.2053 -0.1538
56420DOPE   D2B87414  11.445  17.882  16.163 -0.0794  0.0929 -0.1492
56420DOPE   C3B87415  11.607  17.596  16.331  0.2104 -0.2743  0.1558
56420DOPE   C4B87416  11.603  17.069  16.269  0.1045  0.0796 -0.0625
56421DOPE   NH387417  15.306  30.857  13.200 -0.0710  0.2154  0.1991
56421DOPE   PO487418  15.251  30.907  13.575  0.0935  0.0643  0.3955
56421DOPE   GL187419  15.525  31.133  13.843  0.0575 -0.0850  0.3148
56421DOPE   GL287420  15.362  31.239  14.086  0.1438 -0.2030 -0.0383
56421DOPE   C1A87421  15.864  31.451  14.028 -0.1296  0.0824  0.0392
56421DOPE   D2A87422  16.148  31.372  14.345 -0.3317 -0.0887 -0.0688
56421DOPE   C3A87423  16.502  31.525  14.382  0.0884 -0.1454 -0.2628
56421DOPE   C4A87424  16.785  31.623  14.831 -0.2701  0.0378  0.0114
56421DOPE   C1B87425  15.828  31.010  14.255 -0.1715 -0.4636  0.0074
56421DOPE   D2B87426  15.850  30.660  14.683 -0.3579 -0.0602  0.0382
56421DOPE   C3B87427  15.707  30.437  15.016 -0.1435 -0.1442 -0.0809
56421DOPE   C4B87428  15.849  30.325  15.312  0.0684 -0.1842  0.2645
56422DOPE   NH387429  19.551  19.901   8.816  0.1369 -0.4070 -0.0557
56422DOPE   PO487430  19.975  20.112   8.898 -0.0866 -0.0634 -0.4540
56422DOPE   GL187431  20.278  20.013   9.173 -0.0873  0.0417 -0.0077
56422DOPE   GL287432  20.264  19.803   9.425  0.1533 -0.0664 -0.0223
56422DOPE   C1A87433  20.684  19.820   9.168 -0.1747 -0.1741 -0.0725
56422DOPE   D2A87434  20.980  19.425   9.180 -0.1211  0.3335  0.1113
56422DOPE   C3A87435  21.377  19.496   9.034  0.0818  0.1067 -0.4375
56422DOPE   C4A87436  21.756  19.309   9.055  0.0864 -0.0886 -0.2317
56422DOPE   C1B87437  20.683  19.969   9.666 -0.0163 -0.1358 -0.1595
56422DOPE   D2B87438  21.031  19.809   9.950 -0.4297  0.0351  0.1257
56422DOPE   C3B87439  21.395  19.741  10.061  0.0402  0.0899  0.0951
56422DOPE   C4B87440  21.593  19.702  10.550 -0.1680 -0.2703  0.0415
56423DOPE   NH387441   3.689  11.436   7.785 -0.0651  0.1966  0.1229
56423DOPE   PO487442   3.470  11.099   7.709 -0.1301  0.3435  0.1804
56423DOPE   GL187443   3.057  11.275   7.898 -0.1654 -0.0960  0.0744
56423DOPE   GL287444   2.856  11.060   7.632 -0.0239 -0.3543  0.0755
56423DOPE   C1A87445   2.687  11.289   8.100  0.2571 -0.1157  0.0981
56423DOPE   D2A87446   2.346  11.308   8.391  0.5099  0.2916  0.0387
56423DOPE   C3A87447   2.126  11.714   8.602  0.2564 -0.0432  0.0043
56423DOPE   C4A87448   1.665  11.941   8.589  0.0595  0.1615  0.0504
56423DOPE   C1B87449   2.490  11.150   7.675  0.0267 -0.3768  0.0044
56423DOPE   D2B87450   2.183  11.299   7.903 -0.0016  0.0940  0.0638
56423DOPE   C3B87451   1.865  11.452   7.626  0.2668 -0.1338 -0.0481
56423DOPE   C4B87452   1.468  11.569   7.625  0.1834  0.1948 -0.2102
56424DOPE   NH387453  31.768  26.441   3.015 -0.1427 -0.5755 -0.2123
56424DOPE   PO487454  32.093  26.177   2.827  0.0174 -0.0448 -0.2029
56424DOPE   GL187455  31.940  25.906   3.171 -0.1388  0.3103 -0.0269
56424DOPE   GL287456  31.812  26.105   3.375  0.1075 -0.1011  0.0184
56424DOPE   C1A87457  32.098  25.468   3.353  0.0084 -0.2830 -0.1222
56424DOPE   D2A87458  32.182  25.066   3.675  0.2790  0.1862  0.0673
56424DOPE   C3A87459  32.499  24.793   3.539  0.1174  0.1328 -0.0078
56424DOPE   C4A87460  32.932  24.624   3.648  0.2259 -0.1513  0.3662
56424DOPE   C1B87461  32.013  25.816   3.657  0.0594  0.0758  0.0351
56424DOPE   D2B87462  31.993  25.495   3.867 -0.2976  0.0528  0.0886
56424DOPE   C3B87463  32.150  25.490   4.271 -0.3293  0.0173 -0.0724
56424DOPE   C4B87464  32.233  25.626   4.640  0.2053 -0.0742 -0.0840
56425DOPE   NH387465   2.759  31.177  12.200 -0.3664  0.2231  0.0453
56425DOPE   PO487466   2.688  31.334  11.744  0.1499 -0.0664 -0.0208
56425DOPE   GL187467   2.333  31.270  11.976 -0.0626  0.1765 -0.0918
56425DOPE   GL287468   2.281  30.981  12.161  0.3629 -0.0493  0.2165
56425DOPE   C1A87469   2.039  31.505  12.143  0.1405  0.0200 -0.0207
56425DOPE   D2A87470   1.801  31.510  12.568  0.0113  0.0541  0.1894
56425DOPE   C3A87471   1.380  31.663  12.467  0.1145  0.0012  0.2106
56425DOPE   C4A87472   1.085  31.613  12.721  0.3552  0.0423  0.0671
56425DOPE   C1B87473   1.950  30.974  12.208  0.0976 -0.0918  0.0714
56425DOPE   D2B87474   1.641  30.891  12.490 -0.0558 -0.2040  0.2163
56425DOPE   C3B87475   1.437  31.292  12.783  0.2183  0.3593 -0.2745
56425DOPE   C4B87476   1.250  31.390  13.175  0.2583 -0.2749 -0.2175
56426DOPE   NH387477  10.655   0.558  14.794 -0.1039 -0.0880 -0.0252
56426DOPE   PO487478  10.518   0.927  14.879  0.0029  0.1385 -0.1419
56426DOPE   GL187479  10.899   1.022  15.018 -0.0530  0.0790 -0.2888
56426DOPE   GL287480  11.077   0.749  15.067  0.0353  0.0295 -0.0582
56426DOPE   C1A87481  11.169   1.252  15.376 -0.0688 -0.2005  0.1330
56426DOPE   D2A87482  11.615   1.327  15.474 -0.1433  0.4174 -0.2268
56426DOPE   C3A87483  11.865   1.370  15.914 -0.0345  0.2122  0.1196
56426DOPE   C4A87484  11.735   1.463  16.353 -0.0358 -0.2567  0.1193
56426DOPE   C1B87485  11.430   0.712  15.427  0.0329  0.2604 -0.1021
56426DOPE   D2B87486  11.718   0.847  15.687  0.0866  0.0524  0.1630
56426DOPE   C3B87487  11.696   0.900  16.140  0.0480 -0.1264  0.0950
56426DOPE   C4B87488  11.838   1.061  16.564  0.0590 -0.3593 -0.0067
56427DOPE   NH387489  10.622  17.500  14.252 -0.1142 -0.1845  0.1189
56427DOPE   PO487490  10.813  17.758  14.442 -0.1616  0.1842 -0.0902
56427DOPE   GL187491  10.747  17.655  14.843 -0.3456 -0.1197  0.2781
56427DOPE   GL287492  10.450  17.585  14.857 -0.0034 -0.0127  0.3183
56427DOPE   C1A87493  10.899  17.267  15.004  0.6987  0.1553 -0.0992
56427DOPE   D2A87494  11.138  17.081  15.250  0.0357  0.2696  0.2358
56427DOPE   C3A87495  11.184  16.811  15.631  0.0900  0.1965  0.1829
56427DOPE   C4A87496  11.397  16.695  15.981 -0.2249  0.3562 -0.1949
56427DOPE   C1B87497  10.459  17.354  15.266  0.1465 -0.2882  0.1487
56427DOPE   D2B87498  10.327  17.027  15.573  0.0100  0.2915 -0.1564
56427DOPE   C3B87499  10.075  17.093  15.958 -0.0946  0.1738 -0.2143
56427DOPE   C4B87500   9.701  17.342  16.109 -0.2007 -0.0864 -0.1535
56428DOPE   NH387501   5.675  24.132   9.591  0.3258  0.1307  0.0141
56428DOPE   PO487502   5.738  23.636   9.715 -0.3127 -0.2080  0.3977
56428DOPE   GL187503   5.331  23.444   9.802 -0.0629 -0.2177 -0.2428
56428DOPE   GL287504   5.149  23.767   9.794  0.2841  0.0170 -0.2630
56428DOPE   C1A87505   5.134  23.069   9.793 -0.0777 -0.2980 -0.1618
56428DOPE   D2A87506   4.925  22.780  10.070  0.2482  0.2437 -0.2052
56428DOPE   C3A87507   5.253  22.663  10.342  0.1880 -0.4797  0.2177
56428DOPE   C4A87508   5.463  22.353  10.534  0.0184  0.0168  0.1142
56428DOPE   C1B87509   4.832  23.458  10.051  0.0155  0.1137  0.0851
56428DOPE   D2B87510   4.507  23.355  10.110  0.0667 -0.0376  0.0573
56428DOPE   C3B87511   4.473  23.007  10.264 -0.0396  0.1010  0.0702
56428DOPE   C4B87512   4.534  22.555  10.456  0.1631 -0.1394  0.1133
56429DOPE   NH387513  19.277  24.077  11.577  0.1024 -0.0714  0.1167
56429DOPE   PO487514  19.247  23.707  11.768 -0.1029 -0.5853 -0.2849
56429DOPE   GL187515  19.537  23.748  12.118 -0.1770 -0.1239 -0.0255
56429DOPE   GL287516  19.644  24.058  11.917 -0.0054  0.1164 -0.1369
56429DOPE   C1A87517  19.925  23.748  12.250  0.0640 -0.1018  0.0668
56429DOPE   D2A87518  20.235  23.556  12.579  0.0108 -0.0036 -0.2529
56429DOPE   C3A87519  20.168  23.699  12.994  0.2351 -0.0478 -0.1919
56429DOPE   C4A87520  20.207  23.590  13.410 -0.1826  0.1878  0.1488
56429DOPE   C1B87521  19.999  24.291  12.124 -0.1235  0.1107 -0.0702
56429DOPE   D2B87522  20.365  24.496  12.224 -0.4728 -0.0921  0.1568
56429DOPE   C3B87523  20.672  24.383  12.539 -0.3448  0.5527 -0.1797
56429DOPE   C4B87524  20.812  24.464  13.046  0.0673 -0.0843 -0.0052
56430DOPE   NH387525   2.460  11.810   4.656 -0.2373  0.0468 -0.3221
56430DOPE   PO487526   2.330  12.115   4.318 -0.1587 -0.2638 -0.1139
56430DOPE   GL187527   2.060  12.188   4.555  0.0149 -0.0855 -0.2003
56430DOPE   GL287528   1.935  11.897   4.686  0.0211 -0.0316 -0.1619
56430DOPE   C1A87529   1.711  12.395   4.753  0.2785  0.0470 -0.1455
56430DOPE   D2A87530   1.313  12.252   4.925  0.0007 -0.0732 -0.0227
56430DOPE   C3A87531   1.314  12.067   5.272  0.0872  0.1136 -0.2303
56430DOPE   C4A87532   1.050  12.090   5.591 -0.5330 -0.3964 -0.1826
56430DOPE   C1B87533   1.541  11.808   4.847  0.0301 -0.0825  0.0034
56430DOPE   D2B87534   1.335  11.522   5.135  0.0696  0.3217  0.0758
56430DOPE   C3B87535   0.907  11.539   5.249 -0.0628  0.0313  0.1932
56430DOPE   C4B87536   0.654  11.770   5.608  0.1759 -0.0078  0.2414
56431DOPE   NH387537  35.003   6.710   6.406 -0.0434  0.1595  0.2973
56431DOPE   PO487538  34.933   6.383   6.688  0.1642  0.1049  0.1920
56431DOPE   GL187539  34.891   6.417   7.019 -0.0489 -0.0057  0.0117
56431DOPE   GL287540  35.145   6.459   7.228 -0.0053 -0.3649 -0.1786
56431DOPE   C1A87541  34.636   6.493   7.346 -0.0110 -0.2389 -0.0236
56431DOPE   D2A87542  34.508   6.691   7.623 -0.1823 -0.0107  0.0131
56431DOPE   C3A87543  34.200   6.799   7.800 -0.1868  0.1495 -0.2057
56431DOPE   C4A87544  34.017   6.741   8.186  0.0429  0.2622 -0.1958
56431DOPE   C1B87545  35.094   6.653   7.567  0.1479  0.5028  0.0013
56431DOPE   D2B87546  34.989   6.958   7.936  0.1363 -0.0550  0.1704
56431DOPE   C3B87547  34.756   7.252   8.293 -0.1579  0.1294  0.0324
56431DOPE   C4B87548  34.516   7.659   8.227 -0.1995  0.1914 -0.4110
56432DOPE   NH387549  16.682  29.051  12.162 -0.1114  0.1706 -0.4541
56432DOPE   PO487550  16.911  28.775  12.488  0.0655  0.2407 -0.1287
56432DOPE   GL187551  17.117  28.938  12.754  0.1007  0.0985  0.0112
56432DOPE   GL287552  17.317  29.108  12.725  0.0636  0.2109  0.4208
56432DOPE   C1A87553  17.191  28.998  13.210  0.2973  0.0455 -0.0038
56432DOPE   D2A87554  17.465  28.819  13.598  0.2598  0.1897  0.2158
56432DOPE   C3A87555  17.483  29.192  13.856  0.0393 -0.1066 -0.2963
56432DOPE   C4A87556  17.600  29.439  14.191  0.5504  0.3481 -0.0476
56432DOPE   C1B87557  17.547  29.247  12.924  0.2653 -0.2051  0.0792
56432DOPE   D2B87558  17.611  29.361  13.340  0.2735 -0.0379 -0.1051
56432DOPE   C3B87559  17.580  29.691  13.569  0.1775  0.2569 -0.0031
56432DOPE   C4B87560  17.451  30.067  13.582  0.0893 -0.0267  0.0340
56433DOPE   NH387561  29.523   3.203   6.215 -0.2605  0.1438  0.2103
56433DOPE   PO487562  29.732   3.641   6.209  0.2300  0.0555 -0.0146
56433DOPE   GL187563  29.452   3.672   6.438  0.1677 -0.0892  0.0861
56433DOPE   GL287564  29.254   3.557   6.724 -0.1627 -0.0310 -0.1222
56433DOPE   C1A87565  29.167   4.047   6.640  0.2997 -0.3724  0.2446
56433DOPE   D2A87566  29.398   4.400   6.910  0.4957 -0.0652  0.1057
56433DOPE   C3A87567  29.457   4.617   7.285 -0.0933 -0.1005  0.1088
56433DOPE   C4A87568  29.693   4.532   7.652 -0.0790  0.0056 -0.0290
56433DOPE   C1B87569  29.106   3.749   7.079  0.0529 -0.2740  0.2628
56433DOPE   D2B87570  28.960   3.995   7.345 -0.0144 -0.0094 -0.1219
56433DOPE   C3B87571  28.560   3.829   7.549 -0.2769 -0.3055  0.0780
56433DOPE   C4B87572  28.324   3.817   8.012 -0.0672  0.0237 -0.0690
56434DOPE   NH387573   7.214  32.180  14.718  0.3492  0.2403 -0.0463
56434DOPE   PO487574   6.786  32.151  14.892 -0.0278 -0.2216 -0.4096
56434DOPE   GL187575   6.445  32.100  15.218 -0.0939  0.1391  0.1128
56434DOPE   GL287576   6.403  31.878  15.577  0.1939 -0.1118  0.0400
56434DOPE   C1A87577   5.991  32.063  15.449  0.5340 -0.2721  0.0168
56434DOPE   D2A87578   5.772  32.257  15.652 -0.1590 -0.0533  0.1067
56434DOPE   C3A87579   5.591  32.376  16.041 -0.0976 -0.1342  0.0049
56434DOPE   C4A87580   5.313  32.527  16.373  0.2572  0.2015  0.1034
56434DOPE   C1B87581   6.151  32.040  15.930  0.1288 -0.0224  0.0274
56434DOPE   D2B87582   6.160  32.460  16.092  0.0137  0.0526  0.4142
56434DOPE   C3B87583   5.805  32.691  16.345  0.0571 -0.1085  0.2160
56434DOPE   C4B87584   5.856  33.131  16.298 -0.2191  0.2290 -0.0005
56435DOPE   NH387585  21.691  13.537   4.373  0.0340 -0.2498  0.0027
56435DOPE   PO487586  21.817  13.164   4.648 -0.1419 -0.0655 -0.2062
56435DOPE   GL187587  22.040  13.438   4.808  0.0076 -0.0434  0.0754
56435DOPE   GL287588  21.972  13.408   5.125 -0.0310  0.0028  0.2429
56435DOPE   C1A87589  22.422  13.605   4.714 -0.1178  0.2465  0.3308
56435DOPE   D2A87590  22.800  13.562   4.560  0.2251 -0.1210  0.2566
56435DOPE   C3A87591  23.269  13.498   4.501  0.0404 -0.0909  0.1876
56435DOPE   C4A87592  23.584  13.826   4.567 -0.0963  0.0157  0.0935
56435DOPE   C1B87593  22.237  13.747   5.199 -0.2010  0.3366 -0.1693
56435DOPE   D2B87594  22.498  13.960   5.448  0.2619  0.1549  0.3027
56435DOPE   C3B87595  22.721  14.334   5.227 -0.1667 -0.2358  0.0777
56435DOPE   C4B87596  23.190  14.570   5.191  0.3166  0.1589  0.0707
56436DOPE   NH387597  13.742  15.215  14.108 -0.3986  0.1462 -0.1918
56436DOPE   PO487598  13.421  15.432  14.168 -0.3286  0.0611  0.0761
56436DOPE   GL187599  13.429  15.357  14.552  0.1779 -0.1238  0.1741
56436DOPE   GL287600  13.451  15.049  14.635 -0.0581  0.0745 -0.0677
56436DOPE   C1A87601  13.190  15.562  14.982  0.1952  0.2058 -0.0895
56436DOPE   D2A87602  12.886  15.912  15.272  0.0432 -0.2162  0.0087
56436DOPE   C3A87603  12.689  15.707  15.654 -0.1998  0.1173 -0.0368
56436DOPE   C4A87604  12.577  15.474  16.065  0.0196 -0.3059  0.0900
56436DOPE   C1B87605  13.274  14.965  14.991  0.1871  0.0429  0.0571
56436DOPE   D2B87606  13.136  14.809  15.428 -0.1431  0.2174  0.0009
56436DOPE   C3B87607  13.339  14.977  15.885  0.2012  0.2674 -0.0771
56436DOPE   C4B87608  13.356  14.942  16.304  0.0166 -0.2422  0.3789
56437DOPE   NH387609  19.165  27.499   9.162  0.0127  0.1205 -0.1924
56437DOPE   PO487610  19.442  27.147   9.139 -0.0844 -0.1889 -0.1496
56437DOPE   GL187611  19.740  26.971   9.470 -0.1217 -0.0054 -0.2947
56437DOPE   GL287612  19.996  26.905   9.407 -0.0095 -0.1423  0.0582
56437DOPE   C1A87613  20.045  27.034   9.855 -0.0611 -0.0676  0.1535
56437DOPE   D2A87614  20.334  27.114  10.063 -0.0428 -0.3829  0.1335
56437DOPE   C3A87615  20.213  27.255  10.477  0.0521 -0.2080  0.0408
56437DOPE   C4A87616  20.314  27.568  10.706 -0.1774  0.2869 -0.0315
56437DOPE   C1B87617  20.386  26.947   9.374  0.0144  0.0689 -0.0324
56437DOPE   D2B87618  20.760  27.054   9.616 -0.1581 -0.4648  0.1355
56437DOPE   C3B87619  20.997  27.492   9.543 -0.0362 -0.1603  0.0171
56437DOPE   C4B87620  21.396  27.593   9.536  0.2037  0.1453 -0.1380
56438DOPE   NH387621  14.129  32.658  14.549 -0.2117  0.2934  0.0403
56438DOPE   PO487622  14.238  32.128  14.520  0.2717 -0.0189 -0.0892
56438DOPE   GL187623  14.540  32.373  14.681  0.1374  0.0759 -0.1026
56438DOPE   GL287624  14.871  32.227  14.660  0.2420 -0.1826 -0.2061
56438DOPE   C1A87625  14.663  32.548  15.018  0.0565  0.2611  0.0650
56438DOPE   D2A87626  14.976  32.664  15.080 -0.2540  0.3040 -0.0624
56438DOPE   C3A87627  15.252  32.665  15.394 -0.0057  0.3466  0.3132
56438DOPE   C4A87628  15.549  32.421  15.670  0.1681  0.0199  0.0728
56438DOPE   C1B87629  15.118  32.207  14.988  0.0865 -0.2155 -0.3183
56438DOPE   D2B87630  15.455  32.246  15.202  0.1434 -0.3326 -0.1951
56438DOPE   C3B87631  15.707  32.608  15.210  0.1901 -0.2426 -0.0080
56438DOPE   C4B87632  16.140  32.744  15.254  0.1460 -0.0765 -0.2488
56439DOPE   NH387633  10.023  22.629  17.928 -0.2692  0.1672  0.2465
56439DOPE   PO487634   9.664  22.640  17.743 -0.2195 -0.1685 -0.4171
56439DOPE   GL187635   9.337  22.799  17.926 -0.1810 -0.0719  0.0360
56439DOPE   GL287636   9.153  22.935  18.287 -0.0136  0.3558  0.1961
56439DOPE   C1A87637   8.977  22.529  18.089 -0.1043  0.2953 -0.0636
56439DOPE   D2A87638   8.712  22.486  18.525 -0.1151  0.1986 -0.0120
56439DOPE   C3A87639   8.329  22.436  18.679  0.1673  0.0800  0.2191
56439DOPE   C4A87640   7.995  22.179  18.768  0.1333 -0.0183  0.2566
56439DOPE   C1B87641   9.029  22.837  18.702 -0.0408 -0.0628  0.1809
56439DOPE   D2B87642   9.089  22.491  18.961 -0.1866  0.1284 -0.0547
56439DOPE   C3B87643   9.238  22.549  19.317 -0.0541  0.0373  0.1702
56439DOPE   C4B87644   9.255  22.719  19.669 -0.0511  0.1072  0.2417
56440DOPE   NH387645   7.527  25.073  16.756  0.1894 -0.0514 -0.1318
56440DOPE   PO487646   7.504  25.517  16.585  0.2208 -0.0183  0.0746
56440DOPE   GL187647   7.158  25.366  16.599 -0.0072  0.2687 -0.0559
56440DOPE   GL287648   7.100  25.291  16.951 -0.3577  0.0348 -0.5105
56440DOPE   C1A87649   6.785  24.981  16.574 -0.1481 -0.1492  0.1454
56440DOPE   D2A87650   6.334  24.785  16.497 -0.1495 -0.0574 -0.0605
56440DOPE   C3A87651   5.928  24.668  16.582 -0.0942  0.1609  0.0074
56440DOPE   C4A87652   5.739  24.801  16.951  0.1147  0.1299 -0.1926
56440DOPE   C1B87653   6.927  25.416  17.339 -0.1704 -0.3727  0.2813
56440DOPE   D2B87654   6.607  25.211  17.458  0.1444  0.2713 -0.2035
56440DOPE   C3B87655   6.466  24.980  17.715 -0.0802 -0.2165 -0.1575
56440DOPE   C4B87656   6.206  24.718  17.918  0.0909  0.0846 -0.1247
56441DOPE   NH387657  25.906  14.243   1.095 -0.3642  0.0215 -0.4076
56441DOPE   PO487658  25.656  14.434   1.215  0.6371 -0.0021  0.3443
56441DOPE   GL187659  25.340  14.436   1.633 -0.3780 -0.0922  0.0434
56441DOPE   GL287660  25.078  14.568   1.722  0.2832 -0.0334  0.0220
56441DOPE   C1A87661  25.442  14.636   2.075  0.2484 -0.1326 -0.1704
56441DOPE   D2A87662  25.708  14.816   2.330 -0.0280 -0.0453  0.4065
56441DOPE   C3A87663  25.690  15.220   2.573 -0.0183  0.2507  0.0962
56441DOPE   C4A87664  25.744  15.555   2.795  0.1664  0.1544 -0.0596
56441DOPE   C1B87665  24.871  14.512   2.189 -0.0536  0.2232  0.1082
56441DOPE   D2B87666  24.792  14.454   2.644 -0.0157 -0.0370 -0.1144
56441DOPE   C3B87667  24.813  14.160   2.978  0.2640  0.0318  0.1875
56441DOPE   C4B87668  24.715  13.766   3.077 -0.0992  0.2215 -0.2223
56442DOPE   NH387669   4.435   8.684   9.654 -0.0761  0.3049  0.2757
56442DOPE   PO487670   4.864   8.828   9.637 -0.1531 -0.0937  0.0738
56442DOPE   GL187671   4.646   9.009   9.972 -0.0868 -0.2132 -0.2205
56442DOPE   GL287672   4.841   9.133  10.241  0.2476  0.3526 -0.2990
56442DOPE   C1A87673   4.244   9.038  10.181 -0.1802 -0.0009  0.3024
56442DOPE   D2A87674   3.904   9.085  10.438  0.0750  0.0379 -0.0475
56442DOPE   C3A87675   3.848   8.965  10.840  0.2248  0.0341  0.2108
56442DOPE   C4A87676   4.115   9.008  11.178 -0.2634  0.4691  0.0729
56442DOPE   C1B87677   4.622   9.028  10.515  0.1094  0.0120 -0.2250
56442DOPE   D2B87678   4.309   9.145  10.733  0.0403 -0.2503  0.0085
56442DOPE   C3B87679   4.404   9.382  11.038 -0.1090 -0.0787 -0.0865
56442DOPE   C4B87680   4.037   9.486  11.343  0.0833  0.0112 -0.2463
56443DOPE   NH387681   0.231   2.113   8.464 -0.3085 -0.2114  0.2253
56443DOPE   PO487682   0.323   1.735   8.834  0.2379 -0.5242  0.1127
56443DOPE   GL187683   0.213   2.155   8.971  0.2252 -0.0750  0.0461
56443DOPE   GL287684  35.303   2.076   9.026 -0.0136 -0.3248  0.1052
56443DOPE   C1A87685   0.019   2.477   9.339 -0.0151 -0.1491 -0.1560
56443DOPE   D2A87686  35.338   2.496   9.714 -0.0491  0.1123  0.3441
56443DOPE   C3A87687   0.163   2.457   9.956 -0.0762 -0.0188  0.0034
56443DOPE   C4A87688   0.590   2.401   9.966  0.2009 -0.0119 -0.1584
56443DOPE   C1B87689  35.046   2.072   9.381  0.3115  0.2322 -0.1607
56443DOPE   D2B87690  34.886   2.199   9.696  0.1760 -0.0574 -0.1725
56443DOPE   C3B87691  34.652   2.012   9.985  0.0319 -0.0279  0.0886
56443DOPE   C4B87692  34.724   1.752  10.409  0.0527  0.0353  0.0604
56444DOPE   NH387693   8.571  12.915  12.893 -0.1684  0.1839  0.0990
56444DOPE   PO487694   8.095  12.944  12.927  0.0477 -0.2943  0.0276
56444DOPE   GL187695   7.988  13.049  13.390  0.3534 -0.3879  0.0852
56444DOPE   GL287696   7.788  13.401  13.340 -0.3083  0.2059  0.0446
56444DOPE   C1A87697   7.709  13.098  13.788 -0.0910 -0.1719  0.0553
56444DOPE   D2A87698   7.394  13.208  13.955 -0.0615  0.1942 -0.2213
56444DOPE   C3A87699   7.355  13.637  14.097 -0.0931 -0.0583  0.1008
56444DOPE   C4A87700   7.238  13.832  14.356 -0.0487  0.0565 -0.0213
56444DOPE   C1B87701   7.686  13.592  13.681  0.1777 -0.2062  0.0280
56444DOPE   D2B87702   7.853  13.883  13.928 -0.0010  0.3543  0.3605
56444DOPE   C3B87703   7.659  14.089  14.357  0.2057  0.0594  0.0008
56444DOPE   C4B87704   7.433  14.046  14.702 -0.0595 -0.4841  0.0900
56445DOPE   NH387705  17.557   8.809  13.272 -0.2476  0.0385  0.1608
56445DOPE   PO487706  17.887   8.602  13.459  0.0668  0.4091 -0.0631
56445DOPE   GL187707  18.031   8.243  13.645  0.0179  0.0657  0.0783
56445DOPE   GL287708  17.732   7.987  13.699  0.0050  0.1167 -0.1401
56445DOPE   C1A87709  18.439   8.057  13.910  0.2322 -0.2016 -0.3603
56445DOPE   D2A87710  18.611   7.802  14.237 -0.0155 -0.1024  0.1955
56445DOPE   C3A87711  18.856   7.939  14.443 -0.0651  0.1023 -0.0031
56445DOPE   C4A87712  18.901   7.997  14.835 -0.2123  0.1377 -0.1908
56445DOPE   C1B87713  17.959   8.109  14.166  0.2028  0.1099 -0.0232
56445DOPE   D2B87714  17.970   7.996  14.576 -0.0373  0.0186 -0.1698
56445DOPE   C3B87715  18.308   7.821  14.689 -0.2095 -0.0469  0.1677
56445DOPE   C4B87716  18.511   7.719  14.898 -0.1265 -0.1432 -0.1867
56446DOPE   NH387717  15.592  24.597  16.892 -0.1290  0.0009  0.0209
56446DOPE   PO487718  16.082  24.707  16.917  0.3839 -0.1426 -0.3288
56446DOPE   GL187719  16.334  24.799  17.203 -0.3570  0.0678 -0.0571
56446DOPE   GL287720  16.398  25.027  16.988 -0.0142  0.1196  0.3196
56446DOPE   C1A87721  16.606  24.795  17.497  0.0791 -0.0268 -0.1594
56446DOPE   D2A87722  16.933  24.821  17.751  0.0888  0.2459 -0.2202
56446DOPE   C3A87723  17.398  24.922  17.719 -0.2523  0.1356  0.1765
56446DOPE   C4A87724  17.756  25.032  17.463 -0.2711 -0.0781 -0.0242
56446DOPE   C1B87725  16.665  25.190  17.136 -0.1500  0.1143 -0.0413
56446DOPE   D2B87726  16.993  25.180  17.393  0.0782 -0.2219 -0.0581
56446DOPE   C3B87727  16.990  25.354  17.686 -0.1473 -0.0527 -0.0880
56446DOPE   C4B87728  16.776  25.609  18.056  0.4876 -0.1406  0.5082
56447DOPE   NH387729  29.056  11.267   0.548 -0.0580 -0.0243  0.0189
56447DOPE   PO487730  29.482  11.104   0.396  0.0188  0.1196  0.3359
56447DOPE   GL187731  29.566  11.271   0.794  0.3172  0.1087  0.0146
56447DOPE   GL287732  29.807  11.200   0.883 -0.2906  0.1209  0.3358
56447DOPE   C1A87733  29.455  11.116   1.231 -0.3824 -0.1507  0.0330
56447DOPE   D2A87734  29.267  11.155   1.671 -0.3963 -0.1799  0.1556
56447DOPE   C3A87735  29.362  11.204   2.081  0.2246 -0.1038 -0.0685
56447DOPE   C4A87736  29.697  11.276   2.343 -0.2306 -0.2810 -0.1918
56447DOPE   C1B87737  30.100  11.433   1.185  0.1725  0.0816 -0.1826
56447DOPE   D2B87738  30.182  11.650   1.631  0.4625  0.3071  0.2007
56447DOPE   C3B87739  30.496  11.932   1.828  0.0509  0.3102 -0.1707
56447DOPE   C4B87740  30.681  12.150   2.206  0.0774 -0.0965  0.1130
56448DOPE   NH387741  25.505  25.236   2.631  0.2246 -0.1857  0.0467
56448DOPE   PO487742  25.388  25.191   3.061  0.0020 -0.3119  0.1533
56448DOPE   GL187743  25.523  25.537   3.305  0.0990 -0.1205  0.1356
56448DOPE   GL287744  25.480  25.366   3.526  0.0261  0.0754 -0.1121
56448DOPE   C1A87745  25.791  25.764   3.659 -0.2041 -0.0270 -0.1161
56448DOPE   D2A87746  25.990  25.878   3.943 -0.3947  0.0520 -0.2244
56448DOPE   C3A87747  26.156  25.690   4.264  0.1061  0.1283 -0.1257
56448DOPE   C4A87748  26.170  25.300   4.617 -0.4351 -0.0817  0.4225
56448DOPE   C1B87749  25.916  25.360   3.881  0.0646 -0.0204 -0.3425
56448DOPE   D2B87750  26.216  25.214   4.146  0.0327  0.2420  0.0499
56448DOPE   C3B87751  26.583  24.968   4.242  0.1014 -0.0056  0.0573
56448DOPE   C4B87752  26.997  24.836   4.228  0.0468 -0.2306  0.1205
56449DOPE   NH387753   3.297  19.109   4.816  0.1607  0.0341  0.2111
56449DOPE   PO487754   3.662  19.038   5.110  0.0016 -0.2056  0.1457
56449DOPE   GL187755   3.471  19.194   5.455  0.0122 -0.1790  0.2515
56449DOPE   GL287756   3.239  19.250   5.342 -0.0747 -0.1432 -0.3203
56449DOPE   C1A87757   3.374  19.044   5.948 -0.1958  0.4899  0.1025
56449DOPE   D2A87758   3.368  19.085   6.465 -0.2746  0.1062  0.0622
56449DOPE   C3A87759   3.090  19.384   6.662  0.4226 -0.1562 -0.1873
56449DOPE   C4A87760   2.903  19.581   7.015 -0.0307  0.3171 -0.0198
56449DOPE   C1B87761   2.957  19.144   5.693 -0.0831  0.2880  0.2553
56449DOPE   D2B87762   2.874  19.004   6.176 -0.1388  0.0160 -0.0282
56449DOPE   C3B87763   2.872  18.705   6.397 -0.1887 -0.0534  0.1681
56449DOPE   C4B87764   2.677  18.456   6.682 -0.3131  0.0477  0.1319
56450DOPE   NH387765   9.806  10.306  14.319 -0.0093 -0.0221 -0.0525
56450DOPE   PO487766   9.417  10.048  14.443 -0.1704 -0.0137  0.0876
56450DOPE   GL187767   9.189   9.991  14.694  0.0473 -0.1464 -0.0272
56450DOPE   GL287768   9.131   9.757  14.823 -0.4516  0.1135  0.2514
56450DOPE   C1A87769   8.983  10.092  15.115  0.2454  0.0887  0.0788
56450DOPE   D2A87770   8.815  10.092  15.521 -0.1356  0.0596 -0.2047
56450DOPE   C3A87771   8.802  10.456  15.709  0.1276  0.0120  0.3688
56450DOPE   C4A87772   8.902  10.890  15.615  0.1051 -0.2308 -0.1984
56450DOPE   C1B87773   8.948   9.577  15.150  0.0172 -0.4124  0.0663
56450DOPE   D2B87774   9.006   9.584  15.607 -0.1434 -0.0588 -0.0930
56450DOPE   C3B87775   8.846   9.836  15.936  0.1199 -0.0189  0.2174
56450DOPE   C4B87776   8.829   9.870  16.340 -0.0758 -0.0681  0.0719
56451DOPE   NH387777  21.031  10.462   7.209  0.2048  0.2592  0.1158
56451DOPE   PO487778  21.106  10.811   6.997  0.0827 -0.3907 -0.0612
56451DOPE   GL187779  21.435  10.881   7.235 -0.1047  0.1562 -0.0037
56451DOPE   GL287780  21.523  10.603   7.400 -0.1220  0.2060  0.0985
56451DOPE   C1A87781  21.879  10.929   7.338 -0.3479  0.1686  0.0706
56451DOPE   D2A87782  22.273  10.917   7.374  0.0274 -0.1108  0.1230
56451DOPE   C3A87783  22.454  11.060   7.745 -0.0436  0.0414  0.2530
56451DOPE   C4A87784  22.636  11.208   8.085 -0.1277 -0.3152  0.2745
56451DOPE   C1B87785  21.991  10.453   7.276 -0.0195 -0.1808 -0.0190
56451DOPE   D2B87786  22.524  10.411   7.293 -0.1607  0.3483  0.4180
56451DOPE   C3B87787  22.751  10.745   7.487  0.1481  0.2825  0.1989
56451DOPE   C4B87788  22.986  11.005   7.778  0.0617 -0.0917 -0.0891
56452DOPE   NH387789  13.602  27.232  17.077  0.0875  0.0026 -0.0159
56452DOPE   PO487790  13.673  27.612  17.196  0.1996  0.1069  0.1906
56452DOPE   GL187791  14.033  27.802  17.439 -0.1927 -0.1575  0.0377
56452DOPE   GL287792  14.328  27.695  17.405  0.0948  0.3431  0.2674
56452DOPE   C1A87793  14.219  27.888  17.959  0.0864  0.0166 -0.3942
56452DOPE   D2A87794  14.120  27.650  18.241 -0.2100 -0.1989  0.2043
56452DOPE   C3A87795  14.078  27.802  18.643  0.0779 -0.1518  0.1668
56452DOPE   C4A87796  14.350  27.959  18.928 -0.0835  0.2779 -0.1123
56452DOPE   C1B87797  14.097  27.417  17.757 -0.0615  0.2987  0.1736
56452DOPE   D2B87798  13.703  27.480  18.052 -0.1370  0.1288  0.1285
56452DOPE   C3B87799  13.622  27.711  18.452 -0.1285  0.1509  0.4259
56452DOPE   C4B87800  13.353  28.108  18.574 -0.1338 -0.4768 -0.0735
56453DOPE   NH387801  22.052  17.610   4.032 -0.1992 -0.0627 -0.0239
56453DOPE   PO487802  22.072  17.461   3.622 -0.0806 -0.0484  0.1356
56453DOPE   GL187803  22.506  17.354   3.896 -0.0250 -0.2546 -0.1356
56453DOPE   GL287804  22.433  17.147   4.041 -0.0125 -0.1468  0.1258
56453DOPE   C1A87805  22.772  17.452   4.195 -0.2009  0.1379  0.0255
56453DOPE   D2A87806  23.109  17.324   4.446  0.1226 -0.0057  0.1719
56453DOPE   C3A87807  23.299  17.072   4.691  0.0394  0.0531  0.1039
56453DOPE   C4A87808  23.684  16.872   4.732  0.2849  0.1337 -0.0712
56453DOPE   C1B87809  22.726  16.978   4.420  0.0934  0.2260  0.0990
56453DOPE   D2B87810  22.625  16.810   4.751 -0.0768 -0.2377  0.1888
56453DOPE   C3B87811  22.974  16.793   4.965  0.0600  0.1767 -0.3039
56453DOPE   C4B87812  23.342  16.513   4.941 -0.0623 -0.1812 -0.2282
56454DOPE   NH387813  13.402   8.644  14.583  0.1760 -0.1973 -0.1851
56454DOPE   PO487814  13.580   8.276  14.524 -0.2449  0.4489 -0.1197
56454DOPE   GL187815  13.552   8.390  14.980 -0.0506 -0.1930 -0.0851
56454DOPE   GL287816  13.476   8.782  15.065  0.2909 -0.0270 -0.1742
56454DOPE   C1A87817  13.511   8.265  15.435  0.0290  0.0384 -0.2219
56454DOPE   D2A87818  13.640   7.988  15.868 -0.0887 -0.2900  0.0067
56454DOPE   C3A87819  13.506   7.642  15.862  0.4046 -0.1029 -0.0052
56454DOPE   C4A87820  13.388   7.381  16.100  0.1843  0.0067 -0.1070
56454DOPE   C1B87821  13.620   9.161  15.231 -0.0235  0.1034 -0.1203
56454DOPE   D2B87822  13.818   9.261  15.659  0.2046  0.1187  0.4129
56454DOPE   C3B87823  14.017   9.595  15.885 -0.2836 -0.0531 -0.1552
56454DOPE   C4B87824  14.346   9.767  16.170 -0.0261 -0.0001 -0.0165
56455DOPE   NH387825   1.772  21.504   3.634 -0.0432  0.0357 -0.0394
56455DOPE   PO487826   1.993  21.270   3.987 -0.0617  0.1804 -0.3622
56455DOPE   GL187827   1.878  21.131   4.412 -0.0369  0.2473  0.0194
56455DOPE   GL287828   1.965  20.772   4.505  0.0538 -0.2429 -0.1011
56455DOPE   C1A87829   1.544  21.027   4.704  0.1163 -0.1320 -0.0636
56455DOPE   D2A87830   1.396  20.838   5.024  0.0852 -0.2831  0.0460
56455DOPE   C3A87831   1.188  21.125   5.288 -0.1030 -0.0270 -0.0821
56455DOPE   C4A87832   1.020  21.414   5.584  0.0092  0.0928  0.1302
56455DOPE   C1B87833   1.883  20.687   4.930  0.1977  0.3625 -0.0504
56455DOPE   D2B87834   1.709  20.600   5.373 -0.0885 -0.2828  0.2267
56455DOPE   C3B87835   1.267  20.594   5.428  0.0137 -0.0345 -0.4529
56455DOPE   C4B87836   1.013  20.386   5.749  0.1782 -0.0601  0.0302
56456DOPE   NH387837  26.188  30.985   5.664 -0.0540  0.1447  0.0094
56456DOPE   PO487838  25.968  30.750   5.952  0.3494 -0.0483 -0.0041
56456DOPE   GL187839  25.955  30.482   6.268 -0.1358 -0.1088 -0.0478
56456DOPE   GL287840  25.640  30.401   6.364 -0.2116  0.1411 -0.1635
56456DOPE   C1A87841  26.121  30.252   6.563  0.1438 -0.0809  0.0148
56456DOPE   D2A87842  26.088  29.990   6.824  0.1151 -0.1848 -0.1720
56456DOPE   C3A87843  26.243  30.039   7.063 -0.1466 -0.0243  0.0556
56456DOPE   C4A87844  26.388  30.281   7.350  0.0664 -0.0079  0.2711
56456DOPE   C1B87845  25.650  30.385   6.797 -0.1693  0.0216 -0.2644
56456DOPE   D2B87846  25.892  30.365   7.240  0.1881  0.0333 -0.1214
56456DOPE   C3B87847  25.853  30.014   7.468  0.1190  0.2248  0.0647
56456DOPE   C4B87848  25.433  29.899   7.706 -0.2308  0.2356  0.0381
56457PAPE   NH387849  24.495  25.556   3.763  0.3336 -0.0474  0.0932
56457PAPE   PO487850  24.487  25.126   3.533 -0.0215 -0.3612  0.0409
56457PAPE   GL187851  24.619  25.010   3.912 -0.1106 -0.1096  0.0937
56457PAPE   GL287852  24.827  25.206   3.898 -0.1002 -0.3797 -0.2551
56457PAPE   D1A87853  24.664  24.970   4.349 -0.0578  0.0828 -0.5309
56457PAPE   D2A87854  25.004  24.701   4.329  0.2905 -0.2115 -0.2845
56457PAPE   D3A87855  24.997  24.705   4.734 -0.0703 -0.2549  0.1019
56457PAPE   D4A87856  25.449  24.611   4.582  0.1284  0.0342  0.2545
56457PAPE   C5A87857  25.743  24.522   4.782  0.1904 -0.0736 -0.1314
56457PAPE   C1B87858  25.045  25.278   4.265 -0.0650  0.0861 -0.1173
56457PAPE   C2B87859  25.320  25.091   4.569 -0.1373 -0.1357  0.1718
56457PAPE   C3B87860  25.525  25.007   4.839  0.1065  0.1165 -0.2456
56457PAPE   C4B87861  25.966  24.950   5.027  0.0815 -0.1541 -0.0916
56458PAPE   NH387862   7.717   3.203  14.758  0.3682 -0.0642 -0.1274
56458PAPE   PO487863   7.518   2.850  14.467  0.1466 -0.0567 -0.1290
56458PAPE   GL187864   7.454   2.808  14.916  0.0300 -0.1291 -0.1007
56458PAPE   GL287865   7.064   2.792  15.030  0.1667  0.0466  0.0605
56458PAPE   D1A87866   7.452   3.091  15.243  0.1036 -0.2652  0.2807
56458PAPE   D2A87867   7.146   3.289  15.504  0.2072  0.1842  0.0060
56458PAPE   D3A87868   6.897   3.133  15.803 -0.2646  0.0619  0.1845
56458PAPE   D4A87869   7.194   3.206  16.121 -0.2023 -0.0983  0.1280
56458PAPE   C5A87870   7.623   3.273  16.203  0.1066  0.0768  0.1135
56458PAPE   C1B87871   6.713   2.883  15.326 -0.0568  0.5348 -0.0963
56458PAPE   C2B87872   6.399   3.078  15.552  0.0638 -0.2745 -0.0360
56458PAPE   C3B87873   6.399   3.174  16.002 -0.0045  0.1985  0.2700
56458PAPE   C4B87874   6.779   3.294  16.336 -0.0341  0.1753 -0.0543
56459PAPE   NH387875  15.462   7.888  13.843 -0.4069  0.1016 -0.3859
56459PAPE   PO487876  15.134   7.497  13.805 -0.0770  0.1513 -0.2856
56459PAPE   GL187877  15.258   7.704  14.237  0.0863  0.0672 -0.1531
56459PAPE   GL287878  15.225   7.499  14.547 -0.1713  0.0667  0.0852
56459PAPE   D1A87879  15.191   8.088  14.488 -0.1449 -0.1416  0.0257
56459PAPE   D2A87880  15.618   8.255  14.418  0.0072  0.1304  0.1928
56459PAPE   D3A87881  15.732   8.344  14.753  0.0886 -0.0913 -0.0170
56459PAPE   D4A87882  16.058   8.613  14.955  0.1754 -0.0731 -0.0567
56459PAPE   C5A87883  15.968   9.016  14.998 -0.2091  0.3638  0.2556
56459PAPE   C1B87884  15.129   7.415  14.907 -0.2654  0.1167  0.2837
56459PAPE   C2B87885  14.972   7.482  15.291  0.0763  0.1018 -0.0620
56459PAPE   C3B87886  14.781   7.693  15.509  0.0069  0.1981 -0.2538
56459PAPE   C4B87887  14.593   7.692  15.990  0.0308  0.0054 -0.0837
56460PAPE   NH387888  23.584  17.271   1.610 -0.3631  0.0125  0.2617
56460PAPE   PO487889  23.929  17.604   1.570 -0.0837  0.0870 -0.1569
56460PAPE   GL187890  24.358  17.743   1.589 -0.0842  0.0335  0.1201
56460PAPE   GL287891  24.536  17.801   1.833  0.5273 -0.1620 -0.1006
56460PAPE   D1A87892  24.582  17.846   1.174  0.0805 -0.5705 -0.0256
56460PAPE   D2A87893  24.872  17.941   1.406  0.1854  0.3253  0.1645
56460PAPE   D3A87894  24.832  17.434   1.307 -0.1143 -0.1472  0.3911
56460PAPE   D4A87895  25.196  17.474   1.555 -0.1119  0.0876  0.3279
56460PAPE   C5A87896  25.591  17.355   1.460  0.1833  0.0006 -0.0999
56460PAPE   C1B87897  24.909  17.477   2.001  0.2995  0.5237 -0.0944
56460PAPE   C2B87898  25.224  17.571   2.364  0.2696 -0.0249 -0.0572
56460PAPE   C3B87899  25.463  17.589   2.763 -0.0386 -0.1035 -0.0098
56460PAPE   C4B87900  25.813  17.972   2.792 -0.0329  0.2847 -0.0792
56461PAPE   NH387901  30.649  20.021  26.204  0.3041  0.1640  0.2017
56461PAPE   PO487902  31.070  20.122  26.026 -0.3163 -0.1758  0.0469
56461PAPE   GL187903  31.152  20.192   0.186 -0.2378 -0.1827  0.1961
56461PAPE   GL287904  30.959  20.529   0.208 -0.0189 -0.0402  0.0285
56461PAPE   D1A87905  31.307  19.994   0.579  0.0322 -0.1593 -0.2431
56461PAPE   D2A87906  31.247  19.532   0.605  0.0978 -0.0413 -0.1732
56461PAPE   D3A87907  31.602  19.559   0.852 -0.2561  0.0644  0.2872
56461PAPE   D4A87908  31.237  19.280   1.099  0.1247 -0.1114 -0.2385
56461PAPE   C5A87909  30.930  19.495   1.363  0.0002 -0.1541  0.2957
56461PAPE   C1B87910  30.839  20.359   0.655  0.2693  0.1030  0.1446
56461PAPE   C2B87911  30.810  20.453   1.009  0.0442 -0.0875 -0.1202
56461PAPE   C3B87912  30.877  20.591   1.380  0.0210 -0.2330 -0.2008
56461PAPE   C4B87913  30.955  20.274   1.671 -0.0415  0.2229  0.0788
56462PAPE   NH387914   3.610   7.058   9.112 -0.1625 -0.0779 -0.0783
56462PAPE   PO487915   3.520   6.919   8.747  0.1483  0.0523 -0.2218
56462PAPE   GL187916   3.396   7.383   8.761  0.0040  0.0966 -0.1253
56462PAPE   GL287917   3.344   7.587   9.062  0.0662  0.0194  0.1139
56462PAPE   D1A87918   3.159   7.484   8.496  0.1211 -0.4360 -0.3390
56462PAPE   D2A87919   2.838   7.462   8.740  0.0150 -0.0742 -0.0954
56462PAPE   D3A87920   2.972   7.220   9.131  0.0503 -0.1463 -0.2379
56462PAPE   D4A87921   2.662   7.268   9.299  0.0299  0.1011  0.0244
56462PAPE   C5A87922   2.458   7.510   9.118 -0.2787 -0.0352  0.1279
56462PAPE   C1B87923   2.936   7.849   9.196  0.0624  0.1649  0.4404
56462PAPE   C2B87924   2.585   7.982   9.396 -0.0143  0.1510 -0.1717
56462PAPE   C3B87925   2.413   8.076   9.803 -0.0335  0.1274 -0.2436
56462PAPE   C4B87926   2.054   7.879   9.909 -0.1724 -0.0930 -0.1645
56463PAPE   NH387927   7.940  21.748  15.592 -0.2631  0.0503 -0.0800
56463PAPE   PO487928   7.891  22.157  15.352 -0.0008  0.0781  0.0417
56463PAPE   GL187929   7.521  21.976  15.303  0.2724 -0.0493 -0.0463
56463PAPE   GL287930   7.484  21.622  15.393 -0.0883 -0.0799  0.2023
56463PAPE   D1A87931   7.215  22.228  15.333 -0.0825 -0.2450  0.0429
56463PAPE   D2A87932   7.019  22.514  15.571 -0.0301 -0.1343  0.0185
56463PAPE   D3A87933   7.027  22.507  16.056  0.0088 -0.0618  0.0080
56463PAPE   D4A87934   6.841  22.838  16.324 -0.0109 -0.5102  0.0156
56463PAPE   C5A87935   6.475  22.670  16.566 -0.1694 -0.2764  0.2069
56463PAPE   C1B87936   7.113  21.449  15.581 -0.1528 -0.0108 -0.0210
56463PAPE   C2B87937   6.745  21.588  15.625 -0.0771  0.0249  0.0305
56463PAPE   C3B87938   6.289  21.435  15.778 -0.4848 -0.4657 -0.1547
56463PAPE   C4B87939   5.840  21.342  15.816 -0.3070  0.2418 -0.2480
56464PAPE   NH387940  31.680  27.334   3.756  0.1881  0.0006 -0.0833
56464PAPE   PO487941  31.876  27.132   4.230 -0.0421 -0.0889 -0.0311
56464PAPE   GL187942  31.746  27.266   4.580 -0.1087  0.1655 -0.5372
56464PAPE   GL287943  31.576  27.093   4.825 -0.2877 -0.1806  0.0204
56464PAPE   D1A87944  31.737  27.585   5.030 -0.0843 -0.1318  0.2940
56464PAPE   D2A87945  31.865  27.243   5.242  0.3990 -0.1233 -0.1859
56464PAPE   D3A87946  31.747  27.274   5.644  0.0697  0.2449  0.4389
56464PAPE   D4A87947  31.650  26.944   5.915 -0.0853  0.2604 -0.1100
56464PAPE   C5A87948  31.942  26.871   6.075  0.3549  0.0591  0.0225
56464PAPE   C1B87949  31.515  26.901   5.204 -0.3067 -0.0421 -0.1520
56464PAPE   C2B87950  31.785  26.719   5.386  0.2233 -0.0432 -0.2666
56464PAPE   C3B87951  32.075  26.875   5.546  0.0695  0.1707 -0.0197
56464PAPE   C4B87952  32.402  26.734   5.822 -0.1442 -0.4134 -0.0789
56465PAPE   NH387953   7.388  32.516  15.059  0.1369  0.1037  0.2126
56465PAPE   PO487954   7.295  32.669  15.445  0.2364  0.2253 -0.0312
56465PAPE   GL187955   7.135  32.485  15.864  0.0615  0.1434 -0.3320
56465PAPE   GL287956   7.060  32.173  15.884 -0.0649 -0.1609  0.0809
56465PAPE   D1A87957   7.022  32.565  16.235 -0.0982 -0.0614 -0.1058
56465PAPE   D2A87958   7.119  33.020  16.093 -0.2488 -0.1131  0.1878
56465PAPE   D3A87959   6.712  32.973  16.239  0.1709 -0.3919 -0.1847
56465PAPE   D4A87960   6.820  33.219  16.472 -0.0922  0.1444 -0.0254
56465PAPE   C5A87961   6.534  33.236  16.850  0.2323  0.2672  0.0151
56465PAPE   C1B87962   6.603  32.469  15.815 -0.2799  0.2751 -0.2826
56465PAPE   C2B87963   6.324  32.418  15.606  0.0518  0.0748 -0.1635
56465PAPE   C3B87964   6.102  32.693  15.324  0.1420 -0.0682  0.2187
56465PAPE   C4B87965   5.983  32.961  14.950 -0.1424 -0.0039  0.1619
56466PAPE   NH387966  18.856  26.959  10.223  0.0821 -0.0794 -0.1630
56466PAPE   PO487967  18.435  27.150  10.493 -0.0937 -0.0782 -0.2460
56466PAPE   GL187968  18.586  27.518  10.573 -0.2608 -0.1271  0.2205
56466PAPE   GL287969  18.727  27.503  10.865 -0.1918  0.1641 -0.2738
56466PAPE   D1A87970  18.660  27.977  10.529 -0.1101 -0.1481  0.1358
56466PAPE   D2A87971  18.836  28.051  10.888  0.0145 -0.1334  0.2441
56466PAPE   D3A87972  18.934  28.438  10.753 -0.1916 -0.4005  0.0700
56466PAPE   D4A87973  19.040  28.666  11.163 -0.1110  0.3324  0.3199
56466PAPE   C5A87974  19.472  28.830  11.279 -0.1466 -0.0802 -0.0294
56466PAPE   C1B87975  19.136  27.639  10.874  0.0783  0.0130  0.2826
56466PAPE   C2B87976  19.351  27.883  11.102 -0.1955 -0.1715 -0.1239
56466PAPE   C3B87977  19.460  28.257  11.050  0.0527  0.3259 -0.2254
56466PAPE   C4B87978  19.837  28.440  11.050 -0.1064 -0.1028  0.0810
56467PAPE   NH387979  23.860  12.286   3.451  0.0138 -0.1632 -0.1929
56467PAPE   PO487980  23.547  11.942   3.585 -0.2466  0.1288  0.2269
56467PAPE   GL187981  23.884  12.052   3.950  0.0871  0.2279 -0.3340
56467PAPE   GL287982  23.698  12.171   4.016  0.0837 -0.0828  0.0528
56467PAPE   D1A87983  24.261  11.761   4.027  0.1595  0.0488  0.1007
56467PAPE   D2A87984  24.347  11.998   4.302 -0.2504 -0.0550 -0.1085
56467PAPE   D3A87985  24.695  12.133   4.146  0.2775  0.0807 -0.1022
56467PAPE   D4A87986  24.898  12.535   4.163 -0.2932  0.0950 -0.0129
56467PAPE   C5A87987  25.293  12.531   4.039  0.0414 -0.1672 -0.3041
56467PAPE   C1B87988  23.932  12.245   4.488  0.2160  0.0542  0.0266
56467PAPE   C2B87989  24.298  12.083   4.794  0.0674 -0.2134 -0.0041
56467PAPE   C3B87990  24.400  12.152   5.214  0.3667 -0.1611 -0.0774
56467PAPE   C4B87991  24.311  12.105   5.682 -0.0230 -0.0227 -0.0021
56468PAPE   NH387992  20.863  13.760   6.116 -0.1987  0.1297 -0.1551
56468PAPE   PO487993  20.891  14.193   6.061 -0.2932  0.0712 -0.2550
56468PAPE   GL187994  21.163  14.254   6.298  0.1535  0.2759  0.2437
56468PAPE   GL287995  21.251  13.979   6.354 -0.3995  0.0116 -0.3017
56468PAPE   D1A87996  21.264  14.409   6.670 -0.1455 -0.0023  0.1435
56468PAPE   D2A87997  21.284  14.920   6.545  0.0139 -0.1562 -0.0236
56468PAPE   D3A87998  21.644  14.699   6.471 -0.1947 -0.1242 -0.0708
56468PAPE   D4A87999  21.727  15.002   6.829 -0.0431 -0.1069 -0.0531
56468PAPE   C5A88000  21.901  14.966   7.215 -0.1394 -0.1248 -0.0795
56468PAPE   C1B88001  21.615  14.210   6.470  0.0288 -0.1406 -0.3013
56468PAPE   C2B88002  22.040  14.261   6.383 -0.0490  0.1183  0.2263
56468PAPE   C3B88003  22.482  14.287   6.482  0.1080 -0.0593 -0.1484
56468PAPE   C4B88004  22.804  14.393   6.658  0.0401 -0.2372  0.0713
56469PAPE   NH388005  32.015   2.425   7.213 -0.0044  0.2962  0.2434
56469PAPE   PO488006  32.426   2.549   7.017  0.2943  0.2030  0.1787
56469PAPE   GL188007  32.370   2.842   7.274 -0.2606  0.0778  0.1780
56469PAPE   GL288008  32.364   2.670   7.530 -0.2157  0.0788 -0.0639
56469PAPE   D1A88009  32.194   3.175   7.320 -0.3520 -0.0724 -0.0192
56469PAPE   D2A88010  31.913   3.031   7.599  0.5258 -0.0705 -0.0616
56469PAPE   D3A88011  31.757   3.248   7.971  0.2703  0.0257  0.3240
56469PAPE   D4A88012  31.577   2.915   7.953 -0.2699  0.1444 -0.3240
56469PAPE   C5A88013  31.308   2.918   8.322  0.1136  0.0306 -0.0656
56469PAPE   C1B88014  32.146   2.855   7.989  0.1443 -0.2039 -0.2223
56469PAPE   C2B88015  32.016   2.913   8.354  0.1985 -0.2661 -0.0658
56469PAPE   C3B88016  31.743   2.941   8.615  0.0801  0.1498  0.0608
56469PAPE   C4B88017  31.364   2.920   8.896 -0.2169  0.1158 -0.2517
56470PAPE   NH388018  17.616   4.028  11.901 -0.0764  0.2439 -0.0510
56470PAPE   PO488019  17.621   4.358  12.271  0.2663 -0.4627 -0.1425
56470PAPE   GL188020  17.531   4.328  12.663  0.2383  0.0014 -0.0852
56470PAPE   GL288021  17.363   4.072  12.717  0.1492  0.3756  0.1508
56470PAPE   D1A88022  17.413   4.389  13.114 -0.2077 -0.3017  0.0536
56470PAPE   D2A88023  17.585   4.005  13.260 -0.0746  0.0349  0.0178
56470PAPE   D3A88024  17.909   3.832  13.608  0.2764  0.0230  0.2883
56470PAPE   D4A88025  17.935   3.706  14.072  0.0467 -0.0892 -0.0406
56470PAPE   C5A88026  17.901   3.422  14.458  0.0459 -0.1354 -0.1265
56470PAPE   C1B88027  17.455   3.700  12.855  0.1736  0.1157 -0.2164
56470PAPE   C2B88028  17.628   3.477  13.207 -0.1362  0.1622  0.0736
56470PAPE   C3B88029  18.072   3.665  13.160 -0.0720 -0.2222 -0.2006
56470PAPE   C4B88030  18.488   3.784  13.313  0.3755  0.0196 -0.2270
56471PAPE   NH388031   6.342  31.119  15.191 -0.2450  0.1420 -0.1702
56471PAPE   PO488032   6.386  31.302  15.580  0.1229 -0.0484  0.0082
56471PAPE   GL188033   6.159  31.255  15.959 -0.2280  0.0104 -0.2215
56471PAPE   GL288034   6.105  31.128  16.169  0.2267 -0.0319  0.0193
56471PAPE   D1A88035   6.121  31.640  16.226  0.0461  0.1204  0.2910
56471PAPE   D2A88036   6.459  31.679  16.057 -0.3695  0.2897  0.1301
56471PAPE   D3A88037   6.620  32.050  16.065  0.2282 -0.2480 -0.3433
56471PAPE   D4A88038   6.343  32.087  16.368  0.2430 -0.1773 -0.1122
56471PAPE   C5A88039   5.926  32.153  16.373  0.0729  0.0023 -0.0078
56471PAPE   C1B88040   5.867  31.282  16.515  0.1193 -0.2887  0.0171
56471PAPE   C2B88041   5.809  31.285  17.003 -0.1414 -0.0211  0.3123
56471PAPE   C3B88042   5.896  31.318  17.478 -0.0836  0.2101  0.0632
56471PAPE   C4B88043   5.807  31.341  17.935 -0.0168 -0.3519 -0.2190
56472PAPE   NH388044  19.364  28.736   8.780 -0.1753  0.1400 -0.1059
56472PAPE   PO488045  19.142  28.437   9.025 -0.0553  0.1428 -0.0880
56472PAPE   GL188046  19.262  28.314   9.482  0.1796  0.1166  0.0673
56472PAPE   GL288047  19.547  28.240   9.527 -0.0427 -0.1786  0.0980
56472PAPE   D1A88048  19.267  28.233   9.948 -0.0464  0.1310 -0.2343
56472PAPE   D2A88049  19.056  28.306  10.279 -0.1929 -0.1682  0.3175
56472PAPE   D3A88050  18.769  28.171  10.007  0.1943 -0.1418  0.0253
56472PAPE   D4A88051  18.740  28.649  10.060 -0.2132  0.1796  0.0175
56472PAPE   C5A88052  18.923  28.757  10.408  0.4233  0.1017 -0.3608
56472PAPE   C1B88053  19.843  28.233   9.710 -0.3089 -0.4003  0.0498
56472PAPE   C2B88054  20.164  28.243   9.994 -0.0248  0.0588 -0.1476
56472PAPE   C3B88055  20.580  28.231  10.270 -0.0385  0.0745  0.2860
56472PAPE   C4B88056  20.773  28.170  10.620  0.3090 -0.1707 -0.0577
56473PAPE   NH388057  16.454  14.524  13.706 -0.1429 -0.0010 -0.0105
56473PAPE   PO488058  16.147  14.870  13.840  0.1609 -0.1248 -0.2910
56473PAPE   GL188059  16.494  15.140  13.885  0.0396  0.0353 -0.1691
56473PAPE   GL288060  16.655  14.885  14.023 -0.0681  0.1672  0.2517
56473PAPE   D1A88061  16.611  15.424  14.229  0.0225  0.1172  0.1412
56473PAPE   D2A88062  16.339  15.096  14.473 -0.0149 -0.0217  0.1482
56473PAPE   D3A88063  16.020  14.885  14.321  0.0109 -0.4039 -0.0470
56473PAPE   D4A88064  15.654  14.994  14.428  0.2428 -0.0115 -0.1249
56473PAPE   C5A88065  15.413  14.923  14.801 -0.0749  0.3757 -0.1138
56473PAPE   C1B88066  16.837  14.989  14.396 -0.0689  0.2420  0.0602
56473PAPE   C2B88067  16.822  15.109  14.778  0.1143 -0.4207  0.1531
56473PAPE   C3B88068  16.955  15.519  14.980  0.2168 -0.1873  0.0756
56473PAPE   C4B88069  17.110  15.740  15.221 -0.1876  0.2895 -0.0925
56474PAPE   NH388070  16.517  28.670  13.081  0.0416 -0.0698  0.0026
56474PAPE   PO488071  16.125  29.049  12.897  0.2634 -0.1390  0.0274
56474PAPE   GL188072  16.235  29.077  13.365 -0.0502  0.1769 -0.0686
56474PAPE   GL288073  16.119  29.410  13.440 -0.2418  0.0308 -0.2136
56474PAPE   D1A88074  16.466  28.882  13.583 -0.1110 -0.2671 -0.0124
56474PAPE   D2A88075  16.490  28.468  13.569  0.0794  0.0353 -0.1661
56474PAPE   D3A88076  16.139  28.522  13.792 -0.0363 -0.1107 -0.3127
56474PAPE   D4A88077  16.250  28.271  14.202 -0.3303 -0.0375  0.0219
56474PAPE   C5A88078  16.664  28.106  14.312  0.1496  0.1301 -0.0576
56474PAPE   C1B88079  16.295  29.777  13.633  0.1765  0.0323  0.0256
56474PAPE   C2B88080  16.598  29.773  13.950 -0.0628  0.1372 -0.1525
56474PAPE   C3B88081  16.880  29.973  14.318  0.0465 -0.1401  0.1093
56474PAPE   C4B88082  17.002  29.943  14.709 -0.1054 -0.2767 -0.1046
56475PAPE   NH388083  25.312  20.960   1.100  0.2801 -0.0532 -0.0007
56475PAPE   PO488084  25.191  21.165   1.431  0.0226  0.3974 -0.0826
56475PAPE   GL188085  25.165  21.038   1.873 -0.0831 -0.0920 -0.0319
56475PAPE   GL288086  25.068  20.744   1.889  0.1912  0.2197 -0.0597
56475PAPE   D1A88087  25.264  21.265   2.200  0.3165  0.1314  0.0033
56475PAPE   D2A88088  25.498  20.950   2.406 -0.0330  0.1865  0.2174
56475PAPE   D3A88089  25.089  20.863   2.558 -0.1948 -0.0137  0.1270
56475PAPE   D4A88090  24.845  20.565   2.625  0.2565 -0.2619 -0.0200
56475PAPE   C5A88091  24.436  20.424   2.572  0.1428  0.1229  0.1311
56475PAPE   C1B88092  25.204  20.525   2.158  0.1593 -0.1987  0.1238
56475PAPE   C2B88093  25.194  20.197   2.433  0.2710 -0.1501 -0.0479
56475PAPE   C3B88094  25.267  19.923   2.676 -0.1615  0.1655 -0.1951
56475PAPE   C4B88095  25.364  20.041   3.090 -0.0835  0.0350  0.3157
56476PAPE   NH388096   3.804   1.260  11.202 -0.0378  0.0066  0.1959
56476PAPE   PO488097   3.994   1.659  11.290  0.0890  0.2182 -0.0881
56476PAPE   GL188098   3.918   1.764  11.635  0.0532  0.1420 -0.2180
56476PAPE   GL288099   3.863   2.094  11.784 -0.0201  0.0534 -0.0140
56476PAPE   D1A88100   3.906   1.574  12.007 -0.2630  0.3721  0.1617
56476PAPE   D2A88101   3.644   1.479  12.419 -0.1044 -0.1546  0.2835
56476PAPE   D3A88102   3.545   1.795  12.706 -0.3618 -0.3403  0.1043
56476PAPE   D4A88103   3.709   1.541  13.025  0.0352 -0.0784 -0.0127
56476PAPE   C5A88104   3.326   1.481  13.344 -0.1161 -0.0297  0.0973
56476PAPE   C1B88105   3.660   2.012  12.138  0.2628 -0.3132  0.3059
56476PAPE   C2B88106   3.263   2.200  12.440  0.0461  0.0685 -0.2891
56476PAPE   C3B88107   2.950   2.419  12.631 -0.0021 -0.1728  0.0818
56476PAPE   C4B88108   2.896   2.885  12.862  0.0142 -0.0555  0.0023
56477PAPE   NH388109  25.423  28.955   4.874 -0.1900 -0.1096 -0.5108
56477PAPE   PO488110  25.812  28.903   4.664  0.0666  0.3422  0.2110
56477PAPE   GL188111  26.265  28.845   4.793  0.1140 -0.0437 -0.3168
56477PAPE   GL288112  26.309  28.496   4.873  0.2843  0.0808  0.1685
56477PAPE   D1A88113  26.659  28.800   4.729  0.2671  0.1553 -0.1320
56477PAPE   D2A88114  26.816  28.969   5.108  0.2474  0.2273  0.1206
56477PAPE   D3A88115  27.092  28.643   5.029  0.2205  0.0934 -0.0417
56477PAPE   D4A88116  26.728  28.579   5.381  0.0605 -0.3633 -0.1652
56477PAPE   C5A88117  26.836  28.319   5.686  0.0992  0.1077 -0.1502
56477PAPE   C1B88118  26.311  28.396   5.291  0.2288  0.1555 -0.0674
56477PAPE   C2B88119  26.407  28.136   5.544  0.0411  0.0627 -0.1572
56477PAPE   C3B88120  26.465  27.848   5.845 -0.0490  0.1662  0.2344
56477PAPE   C4B88121  26.645  27.585   6.214 -0.3880  0.0830 -0.1879
56478DGPE   NH388122  22.021  22.049   5.531  0.1354 -0.0130  0.1138
56478DGPE   PO488123  22.018  21.796   5.914  0.0437 -0.3270 -0.1625
56478DGPE   GL188124  22.243  21.503   6.027  0.1646 -0.1081 -0.2394
56478DGPE   GL288125  22.360  21.274   5.810  0.0445 -0.2256  0.1304
56478DGPE   C1A88126  22.690  21.666   6.251  0.0020 -0.1359 -0.0294
56478DGPE   C2A88127  23.031  21.541   6.426 -0.2120  0.3148 -0.1360
56478DGPE   D3A88128  23.438  21.454   6.684 -0.3348  0.1982 -0.3147
56478DGPE   C4A88129  23.509  21.055   6.703 -0.0697 -0.1937  0.2118
56478DGPE   C5A88130  23.355  20.605   6.688  0.1604 -0.0420 -0.0823
56478DGPE   C1B88131  22.805  21.275   5.978 -0.2057  0.1487 -0.1207
56478DGPE   C2B88132  23.162  21.080   6.252  0.2280 -0.0451 -0.2121
56478DGPE   D3B88133  23.449  20.689   6.227  0.2916 -0.1451 -0.3739
56478DGPE   C4B88134  23.899  20.803   6.329 -0.1670  0.5583 -0.3943
56478DGPE   C5B88135  24.349  20.874   6.331  0.0817  0.1252  0.1375
56479DGPE   NH388136   7.409  18.407  13.025 -0.0404 -0.1889  0.0313
56479DGPE   PO488137   7.521  18.161  13.404  0.0836  0.0232 -0.1888
56479DGPE   GL188138   7.018  18.183  13.341  0.1188 -0.0876 -0.0002
56479DGPE   GL288139   6.921  18.490  13.181  0.0560  0.0266  0.0289
56479DGPE   C1A88140   6.838  18.069  13.655 -0.1727 -0.1488 -0.1765
56479DGPE   C2A88141   6.505  17.984  13.874  0.1805  0.0387  0.3923
56479DGPE   D3A88142   6.310  18.016  14.213 -0.0836  0.1181  0.0284
56479DGPE   C4A88143   6.141  18.455  14.250 -0.0990 -0.3242  0.2317
56479DGPE   C5A88144   6.264  18.856  14.188  0.0075  0.0120  0.2172
56479DGPE   C1B88145   6.552  18.485  13.418 -0.0743 -0.0769  0.2421
56479DGPE   C2B88146   6.313  18.637  13.620 -0.2643  0.1733 -0.0241
56479DGPE   D3B88147   6.027  18.631  13.776  0.2391  0.1036 -0.5241
56479DGPE   C4B88148   5.651  18.499  13.677 -0.0755  0.2110  0.0690
56479DGPE   C5B88149   5.265  18.499  13.427 -0.0930 -0.4286 -0.0044
56480DGPE   NH388150   0.547   3.750   8.015  0.1246  0.0243 -0.1941
56480DGPE   PO488151   0.919   3.434   8.243 -0.0091  0.1341 -0.3794
56480DGPE   GL188152   1.012   3.642   8.645 -0.1947 -0.1229  0.0118
56480DGPE   GL288153   1.220   3.889   8.539  0.4556 -0.2582 -0.2236
56480DGPE   C1A88154   1.038   3.826   9.039  0.3244  0.0492 -0.2180
56480DGPE   C2A88155   0.846   4.138   9.348 -0.1015 -0.0672 -0.2676
56480DGPE   D3A88156   0.590   4.534   9.466  0.1118  0.0564 -0.0341
56480DGPE   C4A88157   0.712   4.812   9.765 -0.3033  0.4714  0.2049
56480DGPE   C5A88158   1.087   4.819  10.065 -0.4026  0.5182 -0.0040
56480DGPE   C1B88159   1.416   4.245   8.815  0.2370 -0.1240  0.1552
56480DGPE   C2B88160   1.593   4.360   9.229  0.1193 -0.0579  0.1077
56480DGPE   D3B88161   1.573   4.434   9.591 -0.0642 -0.1668 -0.0128
56480DGPE   C4B88162   1.288   4.426   9.687  0.0311 -0.1823 -0.2064
56480DGPE   C5B88163   0.878   4.319   9.857  0.1585  0.0465  0.2679
56481DGPE   NH388164  22.983  23.913   3.847 -0.3527 -0.0541  0.0512
56481DGPE   PO488165  23.037  24.044   4.318  0.0821 -0.1781  0.1864
56481DGPE   GL188166  23.243  24.200   4.726 -0.2750  0.0725 -0.5589
56481DGPE   GL288167  23.486  24.463   4.806  0.0517 -0.3036 -0.1538
56481DGPE   C1A88168  23.608  23.979   4.935  0.1010 -0.1470 -0.0219
56481DGPE   C2A88169  23.817  23.845   5.226  0.0187 -0.1254 -0.1349
56481DGPE   D3A88170  23.924  23.736   5.571 -0.0944  0.1681 -0.1006
56481DGPE   C4A88171  24.281  23.449   5.677  0.0002 -0.0017  0.1272
56481DGPE   C5A88172  24.701  23.436   5.808 -0.1785 -0.2119 -0.1304
56481DGPE   C1B88173  23.673  24.332   5.336  0.0777 -0.0983  0.2427
56481DGPE   C2B88174  23.634  24.188   5.628  0.0488  0.0983 -0.2034
56481DGPE   D3B88175  23.393  24.171   5.954 -0.1975  0.0017  0.2043
56481DGPE   C4B88176  23.647  24.067   6.392 -0.1791  0.2899  0.2932
56481DGPE   C5B88177  23.630  24.099   6.825  0.0080 -0.1893 -0.0057
56482DGPE   NH388178  17.807  11.600  13.003 -0.3586  0.1369  0.2288
56482DGPE   PO488179  18.169  11.712  12.728 -0.1902 -0.1751 -0.0019
56482DGPE   GL188180  18.584  11.650  12.858  0.2034 -0.2540 -0.1732
56482DGPE   GL288181  18.604  11.902  12.803 -0.1767  0.1243 -0.1376
56482DGPE   C1A88182  18.870  11.491  13.137 -0.2334 -0.2176 -0.0729
56482DGPE   C2A88183  19.186  11.475  13.540  0.0515 -0.3903 -0.0109
56482DGPE   D3A88184  19.451  11.291  13.713 -0.0988 -0.1266 -0.2995
56482DGPE   C4A88185  19.911  11.422  13.768 -0.1395  0.2408  0.0392
56482DGPE   C5A88186  20.189  11.661  13.736 -0.2090 -0.0500  0.1629
56482DGPE   C1B88187  19.042  11.922  12.931 -0.1198 -0.0860 -0.1299
56482DGPE   C2B88188  19.345  11.803  13.135 -0.1666 -0.1695  0.0135
56482DGPE   D3B88189  19.631  11.447  13.189  0.3328  0.0362 -0.0832
56482DGPE   C4B88190  20.064  11.462  13.289  0.2524  0.1846 -0.1001
56482DGPE   C5B88191  20.456  11.541  13.093 -0.0650  0.0581  0.3798
56483DGPE   NH388192  13.522  22.914  17.920  0.1477  0.4010 -0.3250
56483DGPE   PO488193  13.967  22.964  17.634 -0.0223  0.2347 -0.3934
56483DGPE   GL188194  13.970  22.952  18.132  0.0866 -0.0468 -0.0578
56483DGPE   GL288195  13.887  23.312  18.064 -0.1607  0.2054  0.0345
56483DGPE   C1A88196  14.092  22.808  18.559  0.0459 -0.2452 -0.2121
56483DGPE   C2A88197  14.288  22.712  18.850  0.2652  0.1055 -0.1499
56483DGPE   D3A88198  14.215  22.635  19.244  0.0418  0.2717 -0.2097
56483DGPE   C4A88199  14.589  22.482  19.519 -0.0751  0.1808 -0.1359
56483DGPE   C5A88200  14.644  22.042  19.463 -0.0449  0.3691  0.2017
56483DGPE   C1B88201  14.067  23.321  18.443  0.0936 -0.2301 -0.3993
56483DGPE   C2B88202  14.216  23.240  18.921 -0.3792  0.1042 -0.0938
56483DGPE   D3B88203  14.303  23.119  19.310  0.1317  0.0671 -0.0676
56483DGPE   C4B88204  14.700  23.008  19.517 -0.0724 -0.2282 -0.2455
56483DGPE   C5B88205  14.889  23.060  19.945  0.2242  0.3046 -0.0689
56484DGPE   NH388206  27.465  23.979   1.020  0.2054  0.1882 -0.4063
56484DGPE   PO488207  27.639  23.744   0.726 -0.1326  0.0535 -0.2175
56484DGPE   GL188208  27.705  23.454   1.087 -0.0304 -0.1054  0.1652
56484DGPE   GL288209  27.460  23.521   1.357 -0.1721 -0.0611  0.1675
56484DGPE   C1A88210  27.685  23.061   1.357  0.2242 -0.3065 -0.0994
56484DGPE   C2A88211  27.833  22.804   1.718  0.0187 -0.2935  0.1719
56484DGPE   D3A88212  27.782  22.680   2.106  0.2406 -0.0339  0.1693
56484DGPE   C4A88213  27.634  22.507   2.471  0.0823 -0.1626 -0.1040
56484DGPE   C5A88214  27.408  22.734   2.718  0.1354 -0.2999 -0.1279
56484DGPE   C1B88215  27.548  23.404   1.770 -0.1476  0.0016 -0.2995
56484DGPE   C2B88216  27.576  23.587   2.139  0.3846 -0.0155 -0.0804
56484DGPE   D3B88217  27.497  23.506   2.514 -0.0835  0.2000 -0.0812
56484DGPE   C4B88218  27.190  23.270   2.779  0.4701  0.6301  0.0420
56484DGPE   C5B88219  26.866  23.150   3.071  0.1139  0.0768 -0.2538
56485DGPE   NH388220   7.267  20.583  12.580  0.0374  0.2226  0.0993
56485DGPE   PO488221   7.188  20.974  12.403  0.0893  0.1005 -0.0527
56485DGPE   GL188222   7.086  21.099  12.828  0.0958 -0.1971 -0.0700
56485DGPE   GL288223   6.940  20.872  12.871 -0.0640  0.1969 -0.1272
56485DGPE   C1A88224   6.749  21.347  13.003  0.3291 -0.0633  0.1167
56485DGPE   C2A88225   6.411  21.524  13.165  0.0671 -0.0274 -0.4664
56485DGPE   D3A88226   6.095  21.580  13.423  0.0883 -0.0221  0.2269
56485DGPE   C4A88227   5.868  21.985  13.387 -0.0029  0.1605  0.4673
56485DGPE   C5A88228   5.510  22.046  13.420 -0.1212  0.1107  0.1599
56485DGPE   C1B88229   6.557  20.851  12.928 -0.0241  0.1010  0.0304
56485DGPE   C2B88230   6.160  21.032  13.091  0.3941  0.4963  0.0250
56485DGPE   D3B88231   5.775  21.217  13.231  0.1266 -0.2436  0.0217
56485DGPE   C4B88232   5.600  21.576  13.594 -0.0325 -0.0597  0.2581
56485DGPE   C5B88233   5.676  21.461  14.025  0.0973 -0.2356 -0.2281
56486DGPE   NH388234  26.648  21.731   0.118  0.0626 -0.2889 -0.0604
56486DGPE   PO488235  26.133  21.687   0.230  0.3007 -0.3311  0.0371
56486DGPE   GL188236  26.433  21.671   0.628  0.2206 -0.4329  0.1564
56486DGPE   GL288237  26.675  21.898   0.616 -0.5897  0.3848  0.2459
56486DGPE   C1A88238  26.797  21.530   0.907  0.1135  0.2924 -0.1393
56486DGPE   C2A88239  27.031  21.407   1.268  0.3761 -0.1473  0.0814
56486DGPE   D3A88240  27.124  21.413   1.763 -0.2748 -0.1865  0.4282
56486DGPE   C4A88241  27.511  21.585   1.801  0.3521 -0.1744  0.0399
56486DGPE   C5A88242  27.946  21.484   1.905  0.1889  0.3855  0.0681
56486DGPE   C1B88243  26.728  22.025   1.034 -0.0007  0.1946 -0.1567
56486DGPE   C2B88244  26.771  22.194   1.328 -0.0318 -0.1949 -0.1728
56486DGPE   D3B88245  26.787  22.395   1.710 -0.1558 -0.0176  0.1494
56486DGPE   C4B88246  26.944  22.558   2.036  0.2013  0.0886 -0.1729
56486DGPE   C5B88247  27.146  22.570   2.360  0.0578 -0.0230  0.0505
56487DGPE   NH388248  10.924  11.899  14.522  0.0757 -0.1416 -0.1071
56487DGPE   PO488249  11.246  11.629  14.441 -0.1787 -0.2112  0.2350
56487DGPE   GL188250  11.212  11.352  14.746  0.0359  0.0845  0.2543
56487DGPE   GL288251  11.052  11.062  14.698  0.0689  0.0667  0.3984
56487DGPE   C1A88252  11.030  11.530  15.065  0.0015 -0.0092  0.3491
56487DGPE   C2A88253  11.015  11.659  15.426  0.2322 -0.0176 -0.0610
56487DGPE   D3A88254  11.199  11.913  15.821  0.0173  0.1136  0.0554
56487DGPE   C4A88255  11.248  11.829  16.246  0.1168 -0.1120  0.1374
56487DGPE   C5A88256  10.841  11.880  16.453  0.1483 -0.1178  0.3071
56487DGPE   C1B88257  10.871  11.101  15.144  0.0953  0.0138  0.0300
56487DGPE   C2B88258  10.705  11.285  15.504 -0.2224 -0.0085 -0.0148
56487DGPE   D3B88259  10.427  11.276  15.868  0.2145  0.1744 -0.1153
56487DGPE   C4B88260  10.251  11.031  16.108 -0.1064 -0.0117 -0.1222
56487DGPE   C5B88261  10.357  10.870  16.472  0.1981 -0.0890 -0.1574
56488DGPE   NH388262   4.952  35.048  13.384 -0.1559 -0.2006 -0.0634
56488DGPE   PO488263   5.081   0.056  13.303 -0.2828 -0.0592 -0.0175
56488DGPE   GL188264   4.763   0.392  13.601  0.1080 -0.2763 -0.1651
56488DGPE   GL288265   4.646   0.668  13.422  0.0405 -0.3226 -0.2006
56488DGPE   C1A88266   4.436   0.476  13.829 -0.3614  0.1435 -0.0843
56488DGPE   C2A88267   4.182   0.681  14.016  0.2245 -0.0515 -0.1653
56488DGPE   D3A88268   4.056   0.805  14.432  0.3004 -0.1896 -0.3741
56488DGPE   C4A88269   4.112   0.590  14.770 -0.0915  0.0827 -0.2415
56488DGPE   C5A88270   4.316   0.506  15.200  0.1532  0.1876  0.1758
56488DGPE   C1B88271   4.435   0.974  13.703  0.0485 -0.1707  0.0804
56488DGPE   C2B88272   4.175   1.265  13.898  0.1491 -0.0976  0.4454
56488DGPE   D3B88273   3.809   1.214  14.136  0.4108 -0.0350  0.0298
56488DGPE   C4B88274   3.408   1.428  14.036 -0.0947  0.2713  0.2039
56488DGPE   C5B88275   3.191   1.599  14.311 -0.0468  0.1239  0.1763
56489DGPE   NH388276  24.374  31.698   6.222  0.1595 -0.5768  0.0147
56489DGPE   PO488277  24.808  31.857   6.047 -0.0612  0.0119  0.0678
56489DGPE   GL188278  24.785  31.794   6.474 -0.1671 -0.3724  0.2056
56489DGPE   GL288279  24.625  32.049   6.664  0.0416 -0.3006  0.0954
56489DGPE   C1A88280  24.754  31.515   6.721  0.0464 -0.0419  0.2173
56489DGPE   C2A88281  24.845  31.330   7.201  0.1801 -0.0170 -0.0310
56489DGPE   D3A88282  25.066  31.009   7.551  0.1478 -0.1358  0.0109
56489DGPE   C4A88283  25.069  31.171   8.004  0.0685  0.3612  0.3236
56489DGPE   C5A88284  24.762  31.330   8.263 -0.2230 -0.3739 -0.0264
56489DGPE   C1B88285  24.538  31.813   7.086  0.0485  0.3890 -0.0938
56489DGPE   C2B88286  24.403  32.058   7.480  0.1317  0.0185  0.1038
56489DGPE   D3B88287  24.393  32.023   7.808  0.0266  0.1697 -0.0436
56489DGPE   C4B88288  24.722  32.075   7.926 -0.1066  0.0911  0.3976
56489DGPE   C5B88289  25.117  32.055   8.007  0.2200  0.1067 -0.0320
56490DGPE   NH388290   7.092  25.300  16.107 -0.0071  0.1321  0.0492
56490DGPE   PO488291   7.164  24.915  15.824  0.1435 -0.0923  0.1266
56490DGPE   GL188292   6.779  24.761  16.108  0.1859 -0.0659  0.1557
56490DGPE   GL288293   6.568  24.810  15.885 -0.1006 -0.0439 -0.1279
56490DGPE   C1A88294   6.607  24.440  16.278 -0.1559  0.1115 -0.0490
56490DGPE   C2A88295   6.239  24.281  16.320 -0.0890  0.1592  0.1073
56490DGPE   D3A88296   5.802  24.284  16.242  0.0552 -0.2397  0.0581
56490DGPE   C4A88297   5.705  23.930  16.436  0.0677 -0.1206 -0.0835
56490DGPE   C5A88298   5.638  23.785  16.888  0.0466 -0.4022 -0.1072
56490DGPE   C1B88299   6.135  24.704  16.027  0.3833  0.1930 -0.3454
56490DGPE   C2B88300   5.636  24.835  16.109  0.1865  0.0828 -0.1271
56490DGPE   D3B88301   5.310  25.037  16.376  0.1728 -0.0839 -0.0712
56490DGPE   C4B88302   5.262  24.991  16.836 -0.0541 -0.0597 -0.2430
56490DGPE   C5B88303   5.133  24.723  17.109  0.3136  0.3147  0.2539
56491DGPE   NH388304  32.151  30.178   6.633  0.0866  0.0289 -0.0270
56491DGPE   PO488305  31.840  30.316   6.475 -0.2067  0.1547  0.1957
56491DGPE   GL188306  31.857  30.158   6.987  0.0200 -0.1571 -0.2227
56491DGPE   GL288307  31.597  30.280   7.134  0.0093  0.0113  0.1930
56491DGPE   C1A88308  31.947  29.778   7.193  0.0395 -0.0276 -0.0156
56491DGPE   C2A88309  31.959  29.396   7.466  0.0058 -0.1283  0.3039
56491DGPE   D3A88310  32.006  28.943   7.539  0.0521 -0.3621  0.0672
56491DGPE   C4A88311  31.763  28.553   7.392  0.0359 -0.1054  0.1625
56491DGPE   C5A88312  31.521  28.374   7.176 -0.1434  0.0068 -0.0419
56491DGPE   C1B88313  31.367  30.139   7.357 -0.0432  0.0169 -0.2829
56491DGPE   C2B88314  31.070  29.867   7.285  0.0418 -0.2768  0.1002
56491DGPE   D3B88315  30.735  29.721   7.462 -0.1916 -0.0410  0.0999
56491DGPE   C4B88316  30.300  29.676   7.382 -0.2161  0.1843 -0.2223
56491DGPE   C5B88317  29.894  29.763   7.472 -0.5150 -0.0871  0.3249
56492DGPE   NH388318   1.665  28.538   9.598  0.2064  0.0630 -0.0231
56492DGPE   PO488319   1.944  28.170   9.683 -0.0015 -0.2269 -0.1851
56492DGPE   GL188320   1.621  28.147   9.953 -0.0182  0.0480  0.1889
56492DGPE   GL288321   1.740  27.879  10.041 -0.0040  0.0385 -0.0236
56492DGPE   C1A88322   1.360  28.302  10.188  0.5189 -0.0508 -0.1933
56492DGPE   C2A88323   1.238  28.304  10.664  0.1250  0.1043  0.2519
56492DGPE   D3A88324   0.802  28.429  10.990 -0.0049  0.1331 -0.1215
56492DGPE   C4A88325   0.644  28.556  11.249 -0.0904 -0.0153  0.0656
56492DGPE   C5A88326   0.389  29.014  11.272 -0.0279  0.0094  0.2242
56492DGPE   C1B88327   1.528  27.494  10.014 -0.1327  0.2356 -0.0974
56492DGPE   C2B88328   1.244  27.109  10.021  0.3119  0.0774  0.1790
56492DGPE   D3B88329   0.997  26.835   9.945  0.0961  0.2212  0.2139
56492DGPE   C4B88330   1.159  26.477   9.699 -0.3527  0.1838  0.0433
56492DGPE   C5B88331   1.169  26.210   9.367  0.0579  0.1207 -0.3154
56493DGPE   NH388332  34.231  15.740   1.326 -0.1285  0.2074  0.3517
56493DGPE   PO488333  33.989  15.385   1.423 -0.1498  0.1684  0.0610
56493DGPE   GL188334  34.027  15.252   1.870  0.2077 -0.2621 -0.2791
56493DGPE   GL288335  33.895  14.911   1.972  0.2128 -0.1617  0.1594
56493DGPE   C1A88336  34.043  15.311   2.342  0.2625 -0.0547 -0.0570
56493DGPE   C2A88337  33.989  15.203   2.733 -0.3612  0.0830 -0.0759
56493DGPE   D3A88338  33.759  15.154   3.062 -0.0754 -0.1839 -0.4550
56493DGPE   C4A88339  33.819  15.320   3.443 -0.4314 -0.1970 -0.1699
56493DGPE   C5A88340  33.608  15.714   3.583 -0.0217  0.0685  0.0412
56493DGPE   C1B88341  33.773  14.855   2.381  0.1187  0.0949 -0.0899
56493DGPE   C2B88342  33.701  14.746   2.796  0.0456  0.2290 -0.1846
56493DGPE   D3B88343  33.357  14.896   3.091  0.2835 -0.2212 -0.1651
56493DGPE   C4B88344  33.366  14.917   3.521 -0.3335  0.0197  0.2976
56493DGPE   C5B88345  33.307  15.374   3.723 -0.0032 -0.0138 -0.1039
56494DGPE   NH388346  10.036   9.729  14.665 -0.0083  0.3050  0.1435
56494DGPE   PO488347  10.262   9.990  14.429  0.1443  0.0353 -0.1591
56494DGPE   GL188348   9.996  10.218  14.787  0.2200 -0.1591  0.0497
56494DGPE   GL288349   9.644  10.228  14.868 -0.0676  0.3269 -0.0547
56494DGPE   C1A88350   9.934  10.198  15.268 -0.1212  0.1828 -0.1137
56494DGPE   C2A88351  10.072  10.003  15.599  0.0573 -0.3974  0.1066
56494DGPE   D3A88352   9.745   9.969  15.875 -0.0030 -0.1200 -0.1786
56494DGPE   C4A88353   9.645   9.921  16.308  0.1923 -0.1957 -0.0573
56494DGPE   C5A88354   9.539   9.897  16.767  0.1175 -0.0863  0.1887
56494DGPE   C1B88355   9.582  10.546  15.136 -0.0193 -0.0724  0.2492
56494DGPE   C2B88356   9.730  10.979  15.111 -0.0694  0.1980 -0.2132
56494DGPE   D3B88357   9.557  11.426  15.084 -0.3502 -0.4967 -0.0464
56494DGPE   C4B88358   9.452  11.576  15.450 -0.3501 -0.1344  0.0028
56494DGPE   C5B88359   9.305  11.919  15.617 -0.0014  0.1527 -0.2807
56495DGPE   NH388360  18.978  10.703  11.151 -0.1129 -0.0689  0.1671
56495DGPE   PO488361  19.205  10.440  11.507 -0.0876  0.0423 -0.1966
56495DGPE   GL188362  19.471  10.479  11.833  0.0465 -0.1365 -0.0549
56495DGPE   GL288363  19.359  10.477  12.083  0.0105  0.3788  0.1133
56495DGPE   C1A88364  19.861  10.446  12.033 -0.1579 -0.0649 -0.1632
56495DGPE   C2A88365  20.288  10.352  12.102 -0.2066  0.0572  0.0464
56495DGPE   D3A88366  20.682  10.374  12.430 -0.3319 -0.1153  0.0124
56495DGPE   C4A88367  20.880  10.905  12.408 -0.2353  0.2322 -0.2880
56495DGPE   C5A88368  21.250  11.248  12.499 -0.4267 -0.1176  0.1072
56495DGPE   C1B88369  19.564  10.531  12.427 -0.2419  0.0159  0.1552
56495DGPE   C2B88370  19.619  10.533  12.934 -0.1829  0.0654  0.2991
56495DGPE   D3B88371  19.777  10.525  13.272  0.2012  0.1827 -0.6685
56495DGPE   C4B88372  19.940  10.486  13.739  0.0838 -0.0086  0.1174
56495DGPE   C5B88373  20.425  10.503  13.751  0.3387  0.0457 -0.3501
56496DGPE   NH388374   2.278  26.544   8.066 -0.0378  0.1431  0.2342
56496DGPE   PO488375   1.903  26.835   8.069  0.0224  0.2055 -0.2701
56496DGPE   GL188376   1.483  26.671   8.202 -0.0111  0.2386 -0.1167
56496DGPE   GL288377   1.189  26.837   8.189 -0.1110  0.0867 -0.0138
56496DGPE   C1A88378   1.385  26.363   8.562 -0.1178  0.0489 -0.1598
56496DGPE   C2A88379   1.269  26.092   8.876 -0.2612  0.0764  0.1605
56496DGPE   D3A88380   1.067  25.721   8.987  0.1126 -0.1322  0.1609
56496DGPE   C4A88381   0.721  25.848   9.133 -0.1806 -0.1443  0.1887
56496DGPE   C5A88382   0.402  25.722   9.415  0.2374 -0.1803 -0.1342
56496DGPE   C1B88383   0.926  26.570   8.439 -0.0706 -0.1025  0.1151
56496DGPE   C2B88384   0.801  26.198   8.688 -0.1205 -0.0977 -0.1319
56496DGPE   D3B88385   0.427  26.133   8.793 -0.0170  0.0305 -0.0644
56496DGPE   C4B88386   0.201  26.183   9.158  0.2561  0.1391  0.2223
56496DGPE   C5B88387  35.287  26.566   9.289  0.0916  0.1136  0.1319
56497DGPE   NH388388  26.875  19.080   0.089  0.3200 -0.5450 -0.1382
56497DGPE   PO488389  26.654  19.393  26.244 -0.3786  0.3035 -0.1806
56497DGPE   GL188390  26.713  19.523   0.409 -0.2438 -0.1711 -0.0563
56497DGPE   GL288391  26.937  19.702   0.540 -0.0007  0.1022  0.1166
56497DGPE   C1A88392  26.674  19.505   0.946  0.2859 -0.1893  0.1943
56497DGPE   C2A88393  26.861  19.708   1.192 -0.5283 -0.0404  0.0879
56497DGPE   D3A88394  26.777  20.024   1.428  0.4523 -0.1526  0.2402
56497DGPE   C4A88395  27.081  20.055   1.781 -0.3544  0.1596 -0.1307
56497DGPE   C5A88396  27.377  20.058   2.044 -0.0493 -0.3977 -0.1736
56497DGPE   C1B88397  27.288  19.796   0.840  0.2151  0.0574 -0.1496
56497DGPE   C2B88398  27.295  19.810   1.388 -0.0429  0.3069 -0.0908
56497DGPE   D3B88399  27.420  19.594   1.667 -0.2718  0.1679  0.0121
56497DGPE   C4B88400  27.588  19.312   2.033  0.1231  0.3977  0.0988
56497DGPE   C5B88401  27.953  19.223   2.176  0.0097 -0.0435 -0.2804
56498DGPE   NH388402  17.299  21.012  14.237 -0.0717 -0.0413  0.0105
56498DGPE   PO488403  17.335  20.546  14.155  0.1329  0.2306 -0.1544
56498DGPE   GL188404  17.747  20.798  14.157 -0.2347  0.0114 -0.2583
56498DGPE   GL288405  17.955  20.811  13.992 -0.2632  0.2258 -0.0257
56498DGPE   C1A88406  17.904  20.971  14.497  0.2431 -0.1109 -0.1315
56498DGPE   C2A88407  18.238  20.975  14.859 -0.1356 -0.0077 -0.2540
56498DGPE   D3A88408  18.505  20.799  15.372 -0.3586 -0.1572  0.0202
56498DGPE   C4A88409  18.604  21.097  15.654 -0.0215  0.0751 -0.1115
56498DGPE   C5A88410  18.950  21.256  15.836  0.1616 -0.0444 -0.0193
56498DGPE   C1B88411  18.279  20.774  14.164  0.1545  0.0633  0.0248
56498DGPE   C2B88412  18.573  20.729  14.508  0.1852  0.2573  0.2743
56498DGPE   D3B88413  18.732  20.771  14.877 -0.2261  0.2185 -0.0323
56498DGPE   C4B88414  18.971  20.642  15.126  0.0658  0.1401  0.0077
56498DGPE   C5B88415  19.267  20.525  14.843 -0.3318 -0.0875 -0.1784
56499DGPE   NH388416  15.747  14.469  14.065  0.4196 -0.0200 -0.0711
56499DGPE   PO488417  15.747  14.265  14.474  0.0403 -0.1963 -0.2479
56499DGPE   GL188418  16.079  14.262  14.793  0.1152  0.0235 -0.3181
56499DGPE   GL288419  15.982  14.011  14.935 -0.0121  0.2157 -0.3124
56499DGPE   C1A88420  16.285  14.472  15.143 -0.2185  0.1978 -0.1845
56499DGPE   C2A88421  16.384  14.714  15.523 -0.3013 -0.0061  0.4441
56499DGPE   D3A88422  16.545  15.037  15.720 -0.0817  0.1413 -0.3068
56499DGPE   C4A88423  17.053  14.987  15.712 -0.2170  0.0257 -0.0298
56499DGPE   C5A88424  17.450  14.779  15.576  0.0214  0.1561 -0.1351
56499DGPE   C1B88425  16.243  13.964  15.226  0.0717  0.0092 -0.1187
56499DGPE   C2B88426  16.237  14.187  15.638 -0.0656 -0.2006 -0.1223
56499DGPE   D3B88427  16.304  14.438  16.022  0.0953  0.0091  0.1531
56499DGPE   C4B88428  15.977  14.262  16.236 -0.3300  0.0399  0.2727
56499DGPE   C5B88429  15.601  14.288  16.233  0.2787  0.1212  0.1598
56500DGPE   NH388430   5.473  27.304  15.188  0.1352 -0.0570 -0.3832
56500DGPE   PO488431   5.209  27.448  14.813  0.0982  0.0707 -0.0860
56500DGPE   GL188432   4.796  27.471  14.807  0.1805  0.1303  0.1853
56500DGPE   GL288433   4.677  27.620  14.560  0.0303 -0.0637 -0.0821
56500DGPE   C1A88434   4.499  27.641  15.060 -0.3562  0.0052  0.0624
56500DGPE   C2A88435   4.143  27.547  15.418 -0.2038 -0.1938  0.0810
56500DGPE   D3A88436   3.800  27.658  15.640  0.0032  0.1364 -0.0250
56500DGPE   C4A88437   3.419  27.796  15.326  0.1866 -0.1537  0.0647
56500DGPE   C5A88438   2.993  28.005  15.377 -0.2021  0.0508 -0.2723
56500DGPE   C1B88439   4.311  27.256  14.616 -0.1139  0.3285 -0.0806
56500DGPE   C2B88440   4.259  26.833  14.536 -0.3603  0.3942 -0.0759
56500DGPE   D3B88441   4.266  26.567  14.807  0.1505 -0.0991 -0.0113
56500DGPE   C4B88442   3.912  26.573  15.146 -0.0303 -0.0919  0.3206
56500DGPE   C5B88443   3.485  26.531  15.204 -0.0382  0.1937  0.2434
56501DGPE   NH388444  19.034  20.461  11.552 -0.4192  0.0344 -0.2245
56501DGPE   PO488445  19.226  20.709  11.862 -0.1355 -0.3119 -0.1036
56501DGPE   GL188446  19.442  20.579  12.191 -0.1494 -0.3748  0.3326
56501DGPE   GL288447  19.428  20.729  12.441 -0.1411  0.2158 -0.0287
56501DGPE   C1A88448  19.855  20.436  12.280 -0.1141  0.0173 -0.0246
56501DGPE   C2A88449  20.208  20.476  12.484 -0.1707 -0.0294  0.1379
56501DGPE   D3A88450  20.586  20.341  12.632 -0.1087  0.1460 -0.0368
56501DGPE   C4A88451  20.759  20.478  13.070 -0.1772 -0.1799  0.1894
56501DGPE   C5A88452  20.794  20.832  13.263 -0.2738 -0.0785  0.0328
56501DGPE   C1B88453  19.842  20.719  12.694 -0.1389 -0.1007 -0.1642
56501DGPE   C2B88454  20.100  21.043  12.566  0.1200 -0.1472  0.1809
56501DGPE   D3B88455  20.386  21.241  12.371 -0.0880  0.0578  0.1591
56501DGPE   C4B88456  20.564  21.586  12.508  0.2029 -0.0883  0.1720
56501DGPE   C5B88457  20.789  21.729  12.879  0.3107 -0.0406 -0.1362
56502DGPE   NH388458   6.894   0.335  14.427 -0.0874 -0.0867 -0.0609
56502DGPE   PO488459   6.740   0.781  14.199 -0.2156  0.3943  0.0173
56502DGPE   GL188460   6.499   0.715  14.505  0.0701 -0.1357 -0.0979
56502DGPE   GL288461   6.480   0.986  14.667  0.0559 -0.0014  0.1651
56502DGPE   C1A88462   6.075   0.698  14.699  0.0699 -0.1748  0.1993
56502DGPE   C2A88463   5.708   0.585  15.055  0.2607 -0.4398  0.1427
56502DGPE   D3A88464   5.510   0.244  15.343  0.0202  0.3281 -0.0623
56502DGPE   C4A88465   5.216   0.371  15.602  0.0214 -0.3974 -0.0224
56502DGPE   C5A88466   4.897   0.438  15.770  0.2001 -0.2366  0.1228
56502DGPE   C1B88467   6.058   1.116  14.922 -0.0231  0.2943  0.0784
56502DGPE   C2B88468   5.738   1.167  15.239  0.0972  0.0994 -0.0574
56502DGPE   D3B88469   5.306   1.287  15.355  0.2195  0.0375 -0.0112
56502DGPE   C4B88470   5.185   1.625  15.701  0.0748  0.1765 -0.0330
56502DGPE   C5B88471   5.028   1.734  16.040 -0.1155  0.1813  0.0234
56503DGPE   NH388472   8.810  22.074  16.824 -0.2260 -0.0816 -0.1553
56503DGPE   PO488473   8.458  22.334  16.672 -0.2822  0.1088 -0.2314
56503DGPE   GL188474   8.250  22.250  16.951  0.1043 -0.0310  0.1105
56503DGPE   GL288475   8.212  21.947  16.875 -0.0862 -0.1873  0.0822
56503DGPE   C1A88476   7.912  22.166  17.234  0.0583 -0.0210 -0.3535
56503DGPE   C2A88477   7.557  22.112  17.415 -0.3423 -0.2445 -0.0575
56503DGPE   D3A88478   7.475  21.960  17.690  0.1715 -0.1250  0.0538
56503DGPE   C4A88479   7.162  22.233  17.788 -0.2542 -0.0577 -0.3867
56503DGPE   C5A88480   6.910  22.359  18.124  0.0113  0.0442 -0.1216
56503DGPE   C1B88481   8.119  21.723  17.197  0.3261 -0.0778  0.0290
56503DGPE   C2B88482   7.863  21.613  17.452  0.0271  0.0673  0.0697
56503DGPE   D3B88483   7.615  21.345  17.677  0.3793  0.1609 -0.2016
56503DGPE   C4B88484   7.276  21.503  17.854  0.3431 -0.1152  0.2693
56503DGPE   C5B88485   6.934  21.773  17.770 -0.2985 -0.1691 -0.1255
56504DGPE   NH388486  19.616  30.131   8.897  0.1456  0.0639  0.0973
56504DGPE   PO488487  19.185  30.055   9.039 -0.0878 -0.0403 -0.2656
56504DGPE   GL188488  19.455  30.132   9.413 -0.1636  0.4050 -0.0499
56504DGPE   GL288489  19.695  30.133   9.367 -0.1512  0.2013  0.0051
56504DGPE   C1A88490  19.464  30.222   9.844  0.0095  0.1885 -0.2845
56504DGPE   C2A88491  19.732  30.166  10.258  0.0463  0.0619 -0.3249
56504DGPE   D3A88492  20.087  30.213  10.584  0.1017  0.0754 -0.2421
56504DGPE   C4A88493  20.196  30.260  10.980  0.3549  0.1432  0.0696
56504DGPE   C5A88494  20.471  30.614  11.190  0.0719  0.2633  0.0883
56504DGPE   C1B88495  19.954  30.140   9.801  0.0776 -0.0741 -0.2905
56504DGPE   C2B88496  20.229  30.213  10.090 -0.0513 -0.2076  0.0977
56504DGPE   D3B88497  20.620  30.163  10.238  0.1468  0.0667 -0.1055
56504DGPE   C4B88498  20.581  30.220  10.568 -0.0055 -0.1240  0.0708
56504DGPE   C5B88499  20.904  30.388  10.830  0.2327 -0.0331 -0.0905
56505DGPE   NH388500  31.023   7.821   2.158 -0.0323  0.1798  0.0961
56505DGPE   PO488501  31.089   8.226   2.476  0.0486  0.2215  0.0418
56505DGPE   GL188502  30.863   8.568   2.822  0.1713  0.0305  0.0399
56505DGPE   GL288503  30.710   8.388   3.062 -0.0088  0.1951 -0.1772
56505DGPE   C1A88504  30.664   8.909   3.040 -0.1325 -0.0734 -0.0966
56505DGPE   C2A88505  30.577   9.297   3.012  0.2019 -0.2212  0.0176
56505DGPE   D3A88506  30.618   9.751   3.188  0.0722  0.0961  0.0662
56505DGPE   C4A88507  30.405  10.003   3.467  0.3116  0.2626  0.1560
56505DGPE   C5A88508  30.095  10.249   3.746 -0.2713 -0.0064  0.1261
56505DGPE   C1B88509  30.361   8.611   3.284  0.2711  0.2436 -0.1011
56505DGPE   C2B88510  30.191   8.903   3.400  0.0422  0.1300 -0.1542
56505DGPE   D3B88511  29.846   9.210   3.292  0.1505 -0.2319  0.0443
56505DGPE   C4B88512  29.475   9.058   3.116 -0.0166 -0.1744  0.2363
56505DGPE   C5B88513  29.213   8.657   3.219  0.0104  0.1582 -0.2497
56506DGPE   NH388514   1.284  26.025   5.377  0.0212  0.1058  0.0576
56506DGPE   PO488515   0.889  25.899   5.631 -0.0763  0.4162  0.1967
56506DGPE   GL188516   0.650  25.674   5.751  0.1577 -0.1640  0.1377
56506DGPE   GL288517   0.391  25.812   5.781 -0.0438  0.1338 -0.1683
56506DGPE   C1A88518   0.447  25.264   5.849  0.0929 -0.2059 -0.1448
56506DGPE   C2A88519   0.370  24.969   6.148 -0.1685 -0.1567 -0.1921
56506DGPE   D3A88520   0.255  24.717   6.528 -0.0043  0.0809  0.2748
56506DGPE   C4A88521   0.002  24.368   6.468  0.0727 -0.1560 -0.0738
56506DGPE   C5A88522  35.062  24.400   6.237  0.0541 -0.1799  0.2207
56506DGPE   C1B88523   0.054  25.604   5.715 -0.1487 -0.3482 -0.1116
56506DGPE   C2B88524  35.064  25.507   5.888 -0.0849 -0.1603 -0.1143
56506DGPE   D3B88525  34.828  25.224   6.278  0.2379  0.1214  0.1639
56506DGPE   C4B88526  34.811  25.161   6.766  0.2485 -0.1862  0.0486
56506DGPE   C5B88527  34.698  24.830   7.047  0.4634 -0.2050  0.0521
56507DAPE   NH388528  34.967  26.605   4.222 -0.0692 -0.0211 -0.0258
56507DAPE   PO488529  34.691  26.207   4.138  0.1589 -0.5401 -0.2503
56507DAPE   GL188530  34.691  25.819   4.115  0.0412 -0.1590  0.1965
56507DAPE   GL288531  34.817  25.730   4.409  0.3657  0.1115  0.0230
56507DAPE   D1A88532  34.637  25.480   3.717 -0.1989 -0.0611 -0.1235
56507DAPE   D2A88533  34.230  25.405   3.565 -0.1511  0.1802  0.1350
56507DAPE   D3A88534  33.919  25.195   3.806  0.2712  0.0755 -0.0745
56507DAPE   D4A88535  34.196  24.811   3.756 -0.3288  0.0201  0.3147
56507DAPE   C5A88536  34.584  24.877   3.946  0.2928 -0.1025  0.2334
56507DAPE   D1B88537  34.532  25.932   4.670 -0.3350 -0.4549  0.0095
56507DAPE   D2B88538  34.174  25.767   4.961 -0.0743 -0.0996  0.0601
56507DAPE   D3B88539  34.302  25.468   4.634  0.1356  0.0574  0.1050
56507DAPE   D4B88540  34.156  25.118   4.800  0.0850  0.1158 -0.0424
56507DAPE   C5B88541  33.780  25.125   5.018  0.1973 -0.1101 -0.0494
56508DAPE   NH388542  11.319  19.668  15.713  0.4337 -0.1612 -0.2337
56508DAPE   PO488543  11.740  19.577  15.432 -0.0184  0.2061  0.1157
56508DAPE   GL188544  11.834  19.456  15.912  0.1821  0.0245 -0.0924
56508DAPE   GL288545  12.078  19.642  16.006 -0.1147  0.1459 -0.1998
56508DAPE   D1A88546  11.882  19.347  16.369 -0.0130 -0.0308  0.1369
56508DAPE   D2A88547  11.583  19.683  16.300  0.4254  0.2690  0.0259
56508DAPE   D3A88548  11.392  19.314  16.277  0.0078 -0.1112  0.0996
56508DAPE   D4A88549  11.469  18.980  16.628  0.1342  0.5301 -0.0430
56508DAPE   C5A88550  11.424  19.034  16.978  0.0717  0.1239  0.1094
56508DAPE   D1B88551  12.360  19.307  16.096 -0.1992 -0.0400 -0.0168
56508DAPE   D2B88552  12.629  19.594  16.157  0.2099 -0.1158 -0.0332
56508DAPE   D3B88553  12.842  19.556  16.495 -0.0006  0.0179 -0.2057
56508DAPE   D4B88554  12.818  19.165  16.336 -0.0402 -0.0856  0.2411
56508DAPE   C5B88555  12.531  18.902  16.479  0.1053 -0.0519  0.1110
56509DAPE   NH388556   2.546  34.119  11.767  0.0034 -0.0457  0.3337
56509DAPE   PO488557   2.792  33.941  12.064  0.1114  0.0113  0.0357
56509DAPE   GL188558   2.435  33.834  12.195  0.2430 -0.1645  0.1154
56509DAPE   GL288559   2.313  34.057  12.330 -0.1992  0.0913 -0.2133
56509DAPE   D1A88560   2.154  33.479  12.174  0.0854  0.0603 -0.0094
56509DAPE   D2A88561   2.114  33.680  12.530  0.0773  0.1801 -0.0039
56509DAPE   D3A88562   1.659  33.745  12.503 -0.0750  0.0147  0.0459
56509DAPE   D4A88563   1.394  33.967  12.810  0.0433 -0.1367  0.0333
56509DAPE   C5A88564   1.018  34.176  12.662  0.1188 -0.0396  0.2136
56509DAPE   D1B88565   1.968  34.150  12.614  0.1572  0.3152 -0.1422
56509DAPE   D2B88566   1.778  34.181  13.020  0.0868  0.3161 -0.2682
56509DAPE   D3B88567   1.495  34.543  12.825  0.2679  0.2460 -0.0994
56509DAPE   D4B88568   1.499  34.912  12.443  0.0853  0.2102  0.3186
56509DAPE   C5B88569   1.244  35.278  12.557  0.2230  0.2369  0.0538
56510DAPE   NH388570  15.039  34.990  12.293 -0.1420  0.2052 -0.2301
56510DAPE   PO488571  14.968   0.084  12.393 -0.0516  0.2316  0.1118
56510DAPE   GL188572  14.996  35.222  12.756  0.1347  0.2274 -0.0753
56510DAPE   GL288573  15.164  35.082  12.811 -0.0647 -0.1296  0.0375
56510DAPE   D1A88574  14.731  34.895  12.959 -0.1617 -0.1305  0.2370
56510DAPE   D2A88575  15.113  34.729  13.192  0.2950 -0.0374  0.1173
56510DAPE   D3A88576  14.841  34.726  13.593 -0.1661  0.1633  0.0875
56510DAPE   D4A88577  15.144  34.575  13.899  0.3469 -0.1517  0.3431
56510DAPE   C5A88578  15.174  34.918  14.220 -0.1670 -0.5155  0.0340
56510DAPE   D1B88579  15.353  34.826  12.576  0.2609  0.4008 -0.2737
56510DAPE   D2B88580  15.387  34.420  12.829 -0.0139  0.0517 -0.1396
56510DAPE   D3B88581  15.089  34.165  13.086 -0.1776 -0.0643 -0.1038
56510DAPE   D4B88582  15.296  34.371  13.410  0.1850  0.0367 -0.1032
56510DAPE   C5B88583  15.389  34.082  13.844 -0.0156  0.3875  0.0176
56511DAPE   NH388584   4.562  25.618   8.488  0.2213  0.1580 -0.2311
56511DAPE   PO488585   4.635  25.174   8.616  0.1912  0.3735  0.2766
56511DAPE   GL188586   4.401  24.984   8.872 -0.0275 -0.2895  0.2157
56511DAPE   GL288587   4.355  24.648   8.921 -0.2266  0.1918  0.0268
56511DAPE   D1A88588   4.084  25.028   9.109  0.2311  0.3247  0.1629
56511DAPE   D2A88589   4.014  24.742   9.424  0.1648 -0.0688  0.1465
56511DAPE   D3A88590   3.720  25.122   9.511 -0.4175 -0.0667  0.0667
56511DAPE   D4A88591   4.028  25.078   9.808 -0.0198  0.1650  0.1819
56511DAPE   C5A88592   3.866  25.024  10.128  0.1460 -0.0657 -0.3633
56511DAPE   D1B88593   4.008  24.489   8.974  0.0956 -0.1081 -0.0928
56511DAPE   D2B88594   3.841  24.188   9.230 -0.1267 -0.0364 -0.0925
56511DAPE   D3B88595   3.738  23.901   9.285 -0.0612 -0.4343 -0.0569
56511DAPE   D4B88596   3.830  23.767   9.633  0.1586 -0.2723  0.0294
56511DAPE   C5B88597   3.500  23.725   9.900 -0.2964 -0.0090  0.3441
56512DAPE   NH388598  27.890  22.004  26.203  0.2908 -0.0455 -0.1117
56512DAPE   PO488599  28.026  21.567  26.092 -0.0484  0.3241  0.0615
56512DAPE   GL188600  28.273  21.547   0.176 -0.1968  0.4374  0.1072
56512DAPE   GL288601  28.459  21.310   0.036 -0.0359  0.0584  0.1062
56512DAPE   D1A88602  28.457  21.652   0.625 -0.4569 -0.0878 -0.1418
56512DAPE   D2A88603  28.426  22.104   0.776  0.0453 -0.0370 -0.3009
56512DAPE   D3A88604  28.213  22.103   0.395  0.0978  0.0340  0.0948
56512DAPE   D4A88605  27.922  21.734   0.541  0.1203  0.0706  0.1136
56512DAPE   C5A88606  28.005  21.317   0.517  0.1254 -0.1160 -0.3741
56512DAPE   D1B88607  28.827  20.942   0.045  0.1683 -0.3597  0.1227
56512DAPE   D2B88608  28.738  20.555  26.182  0.3872  0.1902  0.1334
56512DAPE   D3B88609  28.683  20.265   0.225  0.1992  0.2933 -0.3783
56512DAPE   D4B88610  28.905  20.207   0.648 -0.0422  0.1879 -0.1304
56512DAPE   C5B88611  29.068  20.588   0.910 -0.0681 -0.2581  0.0671
56513DAPE   NH388612  23.418  21.787   3.352  0.1080  0.0624 -0.0175
56513DAPE   PO488613  23.217  21.372   3.174 -0.0223 -0.0575 -0.0423
56513DAPE   GL188614  23.635  21.211   3.248  0.2295 -0.0282  0.2721
56513DAPE   GL288615  24.009  21.194   3.276  0.1280  0.0092  0.0350
56513DAPE   D1A88616  23.757  20.917   3.616 -0.2020 -0.0773 -0.0141
56513DAPE   D2A88617  23.729  20.658   3.367 -0.0231  0.2282  0.1090
56513DAPE   D3A88618  24.087  20.703   3.292 -0.1601  0.1982 -0.0924
56513DAPE   D4A88619  24.313  20.869   3.627  0.1121  0.0150 -0.0428
56513DAPE   C5A88620  24.716  21.013   3.701  0.2707  0.1335  0.1039
56513DAPE   D1B88621  24.113  21.323   2.875 -0.0725  0.0671 -0.1868
56513DAPE   D2B88622  24.407  21.575   2.986 -0.0354  0.0123 -0.1985
56513DAPE   D3B88623  24.547  21.942   2.636 -0.0918  0.1404 -0.0523
56513DAPE   D4B88624  24.996  22.147   2.509 -0.1470 -0.1030  0.2898
56513DAPE   C5B88625  25.171  22.208   2.830  0.1883 -0.1032 -0.0174
56514DAPE   NH388626   5.508  21.954   7.930 -0.1411 -0.2829 -0.0954
56514DAPE   PO488627   5.439  22.410   8.009  0.0499 -0.0012  0.2681
56514DAPE   GL188628   5.465  22.534   8.497 -0.0491 -0.2330 -0.0782
56514DAPE   GL288629   5.639  22.773   8.577  0.2409  0.1230 -0.1302
56514DAPE   D1A88630   5.238  22.637   8.819 -0.0728 -0.3210  0.2613
56514DAPE   D2A88631   5.277  22.638   9.201 -0.1552 -0.1269 -0.1713
56514DAPE   D3A88632   4.978  22.725   9.341 -0.0937  0.1406  0.0249
56514DAPE   D4A88633   4.810  22.861   8.993  0.0985 -0.1625 -0.1144
56514DAPE   C5A88634   4.502  22.588   8.908 -0.0699 -0.2067  0.2763
56514DAPE   D1B88635   5.728  22.632   9.029  0.2249 -0.1422 -0.2318
56514DAPE   D2B88636   5.496  22.248   8.942  0.2139 -0.2318 -0.3055
56514DAPE   D3B88637   5.523  21.965   9.234  0.1799 -0.0294 -0.0280
56514DAPE   D4B88638   5.231  21.795   8.998 -0.3251  0.0290  0.1712
56514DAPE   C5B88639   5.446  21.889   8.550 -0.3143  0.1272 -0.0577
56515DAPE   NH388640  10.635   2.111  15.029 -0.0328 -0.3442 -0.2329
56515DAPE   PO488641  10.391   1.822  15.124  0.2128 -0.0700 -0.1387
56515DAPE   GL188642  10.380   2.075  15.582 -0.0531  0.2399  0.0603
56515DAPE   GL288643  10.035   2.329  15.595  0.1024  0.0529 -0.0563
56515DAPE   D1A88644  10.360   2.510  15.900 -0.1672  0.2632 -0.2024
56515DAPE   D2A88645  10.618   2.191  16.023 -0.1653  0.4620  0.2832
56515DAPE   D3A88646  10.930   2.139  15.713 -0.4332  0.0748  0.2976
56515DAPE   D4A88647  11.372   2.203  15.677  0.1397 -0.0574 -0.0441
56515DAPE   C5A88648  11.609   2.233  16.072  0.0930 -0.2555  0.1085
56515DAPE   D1B88649  10.049   2.127  15.968 -0.1923  0.2087 -0.4275
56515DAPE   D2B88650  10.131   2.277  16.400  0.2918  0.2716  0.2363
56515DAPE   D3B88651  10.561   2.373  16.563  0.4764  0.2134 -0.0153
56515DAPE   D4B88652  10.501   2.456  17.053  0.5178 -0.2289 -0.0350
56515DAPE   C5B88653  10.804   2.675  17.315  0.3468  0.1565 -0.1635
56516DAPE   NH388654  24.145  19.266   1.605 -0.0571 -0.1218  0.3239
56516DAPE   PO488655  24.497  19.112   1.523  0.2075  0.1756 -0.2854
56516DAPE   GL188656  24.909  18.903   1.474 -0.3029  0.0862  0.4364
56516DAPE   GL288657  24.872  18.575   1.385 -0.0976  0.2748 -0.1292
56516DAPE   D1A88658  25.114  18.745   1.921  0.3230  0.0667 -0.0475
56516DAPE   D2A88659  25.012  18.320   1.797 -0.1243 -0.1120  0.3787
56516DAPE   D3A88660  25.026  18.011   2.154 -0.3060  0.2715 -0.1752
56516DAPE   D4A88661  24.938  18.010   2.503  0.0881  0.0483 -0.3997
56516DAPE   C5A88662  25.320  18.047   2.696 -0.0861 -0.1455  0.4288
56516DAPE   D1B88663  24.491  18.310   1.570 -0.0060 -0.6500 -0.0436
56516DAPE   D2B88664  24.633  18.611   1.897 -0.2268  0.3795  0.5170
56516DAPE   D3B88665  24.586  18.214   2.084 -0.1671 -0.2612 -0.4026
56516DAPE   D4B88666  24.777  18.472   2.373  0.2018  0.0152  0.0265
56516DAPE   C5B88667  25.190  18.489   2.336 -0.2463 -0.3232 -0.0752
56517DAPE   NH388668  15.748   2.409  11.132  0.1167 -0.0526 -0.3840
56517DAPE   PO488669  15.801   2.025  10.759  0.1808 -0.0217  0.1931
56517DAPE   GL188670  16.155   2.090  11.157  0.3093  0.2392 -0.1111
56517DAPE   GL288671  16.102   1.788  11.275 -0.0609 -0.1497 -0.1208
56517DAPE   D1A88672  16.469   2.100  11.430 -0.4286  0.4992 -0.2618
56517DAPE   D2A88673  16.820   2.083  11.674 -0.2126  0.0136 -0.1047
56517DAPE   D3A88674  17.047   2.118  12.068 -0.0599 -0.0890 -0.0723
56517DAPE   D4A88675  16.851   1.932  12.475 -0.1847  0.0360  0.0032
56517DAPE   C5A88676  16.967   1.493  12.500 -0.1261  0.0851  0.3325
56517DAPE   D1B88677  15.945   2.101  11.594  0.3639  0.1134 -0.1590
56517DAPE   D2B88678  16.273   1.874  11.837  0.0679  0.1823 -0.0398
56517DAPE   D3B88679  15.885   1.637  11.940  0.1253 -0.2279  0.5011
56517DAPE   D4B88680  16.015   1.828  12.380  0.0156 -0.2730  0.3385
56517DAPE   C5B88681  15.957   1.553  12.650 -0.0017 -0.0875 -0.1038
56518DAPE   NH388682   7.092  22.643  10.055  0.0816  0.1206  0.4013
56518DAPE   PO488683   6.818  22.672   9.665 -0.2292  0.1853 -0.1155
56518DAPE   GL188684   6.439  22.501   9.595  0.0207 -0.0992 -0.0447
56518DAPE   GL288685   6.361  22.522   9.329 -0.0216  0.1850  0.2832
56518DAPE   D1A88686   6.186  22.208   9.800  0.3369 -0.1580 -0.1600
56518DAPE   D2A88687   5.939  22.278   9.320 -0.3079 -0.0680 -0.3309
56518DAPE   D3A88688   5.664  22.092   9.722  0.0991 -0.0163  0.1728
56518DAPE   D4A88689   5.467  21.721   9.758  0.2069 -0.0024 -0.0853
56518DAPE   C5A88690   5.032  21.747   9.988  0.0810 -0.0183 -0.0786
56518DAPE   D1B88691   6.002  22.831   9.461 -0.0740 -0.1026 -0.1442
56518DAPE   D2B88692   5.856  22.589   9.820 -0.2863  0.1089  0.1978
56518DAPE   D3B88693   5.492  22.765   9.661 -0.0052  0.0583 -0.2160
56518DAPE   D4B88694   5.203  22.497   9.795  0.2122  0.2977 -0.2441
56518DAPE   C5B88695   5.094  22.129   9.591  0.1341  0.1314  0.0685
56519DAPE   NH388696  17.588   2.456  10.845  0.0735  0.0173  0.1508
56519DAPE   PO488697  17.944   2.722  10.927 -0.2391  0.0678  0.2938
56519DAPE   GL188698  18.325   2.695  10.807  0.2716 -0.0092  0.0337
56519DAPE   GL288699  18.573   2.703  11.064  0.1718 -0.2243  0.2541
56519DAPE   D1A88700  18.627   2.940  10.589  0.0223 -0.0078 -0.0456
56519DAPE   D2A88701  18.923   3.054  10.907 -0.0572 -0.7764  0.3547
56519DAPE   D3A88702  19.177   3.027  10.652 -0.1684 -0.0748 -0.2103
56519DAPE   D4A88703  19.447   2.665  10.731  0.2252 -0.0233 -0.1579
56519DAPE   C5A88704  19.611   2.674  11.201 -0.2384 -0.2594  0.2542
56519DAPE   D1B88705  18.910   2.824  11.420  0.0074 -0.0275 -0.0176
56519DAPE   D2B88706  19.161   2.630  11.212  0.0204 -0.0795 -0.2203
56519DAPE   D3B88707  18.941   2.273  11.442 -0.0467 -0.3521  0.1960
56519DAPE   D4B88708  19.152   2.520  11.694  0.1334  0.0828  0.5197
56519DAPE   C5B88709  19.593   2.336  11.604  0.1408  0.0590  0.0018
56520DAPE   NH388710  34.490  27.918   5.834 -0.2249  0.1847 -0.1334
56520DAPE   PO488711  34.256  27.862   5.438 -0.0325  0.4263 -0.0338
56520DAPE   GL188712  33.982  27.565   5.681  0.3223  0.1141 -0.0532
56520DAPE   GL288713  33.902  27.510   5.363 -0.1087  0.0585 -0.0070
56520DAPE   D1A88714  33.761  27.480   6.023  0.0652  0.0188 -0.1098
56520DAPE   D2A88715  34.156  27.664   6.167  0.0982  0.1742 -0.0179
56520DAPE   D3A88716  33.994  27.418   6.479  0.0728 -0.1995  0.3142
56520DAPE   D4A88717  33.698  27.212   6.439 -0.0152  0.2659 -0.0779
56520DAPE   C5A88718  33.360  27.425   6.411  0.2056 -0.2619 -0.1355
56520DAPE   D1B88719  33.958  27.150   5.201 -0.0636  0.3433 -0.1919
56520DAPE   D2B88720  33.950  26.956   5.547  0.4035 -0.1658 -0.1070
56520DAPE   D3B88721  33.652  26.755   5.349  0.0247 -0.1675  0.2079
56520DAPE   D4B88722  33.391  26.661   5.529  0.0197  0.0090  0.1053
56520DAPE   C5B88723  33.476  26.157   5.535 -0.2174  0.0200 -0.2445
56521DAPE   NH388724  11.747   1.595  13.674  0.2742 -0.0903  0.1630
56521DAPE   PO488725  11.516   1.790  13.979  0.1238 -0.1586 -0.0791
56521DAPE   GL188726  11.295   2.229  14.102  0.0657  0.3209 -0.0376
56521DAPE   GL288727  11.576   2.377  14.116 -0.2393 -0.1469  0.0531
56521DAPE   D1A88728  11.099   2.464  14.356 -0.2217  0.0436  0.1301
56521DAPE   D2A88729  11.010   2.223  14.687 -0.0146  0.2925  0.1094
56521DAPE   D3A88730  10.925   2.572  14.925  0.0734 -0.0519  0.3065
56521DAPE   D4A88731  11.087   2.134  15.235 -0.0553 -0.2386 -0.0866
56521DAPE   C5A88732  11.280   1.654  15.011  0.3918  0.0631  0.0021
56521DAPE   D1B88733  11.877   2.533  14.392  0.0675 -0.0540 -0.1833
56521DAPE   D2B88734  12.163   2.296  14.157  0.1587 -0.0404 -0.1246
56521DAPE   D3B88735  12.274   2.349  14.666  0.2975 -0.0358  0.1319
56521DAPE   D4B88736  12.678   2.473  14.648 -0.2878 -0.1352  0.0780
56521DAPE   C5B88737  12.762   2.976  14.522  0.0912  0.0035  0.0153
56522DAPE   NH388738  32.999  25.753   2.105  0.1823  0.2382  0.0770
56522DAPE   PO488739  32.567  25.764   2.208  0.0693  0.1812  0.4008
56522DAPE   GL188740  32.168  25.658   2.140 -0.0347  0.0874 -0.0261
56522DAPE   GL288741  31.941  25.573   2.385 -0.0409 -0.0616  0.1552
56522DAPE   D1A88742  32.018  25.211   2.041  0.1850 -0.0404 -0.1931
56522DAPE   D2A88743  32.237  24.964   2.240  0.0461  0.0610 -0.1332
56522DAPE   D3A88744  32.350  25.304   2.431  0.0266 -0.2484  0.2382
56522DAPE   D4A88745  32.467  25.031   2.749  0.0700  0.0132 -0.0602
56522DAPE   C5A88746  32.537  25.162   3.200  0.2399 -0.0065  0.1146
56522DAPE   D1B88747  31.926  25.185   2.588 -0.0038  0.2177 -0.0516
56522DAPE   D2B88748  32.043  24.792   2.659 -0.1793  0.1944  0.2481
56522DAPE   D3B88749  31.732  24.457   2.786 -0.0655 -0.0201 -0.1064
56522DAPE   D4B88750  31.569  24.160   2.866  0.0718  0.0296 -0.0287
56522DAPE   C5B88751  31.811  23.839   3.099 -0.2637 -0.0798  0.0482
56523DAPE   NH388752   4.395  15.026   6.836 -0.1654  0.4641 -0.1018
56523DAPE   PO488753   4.541  14.751   6.612  0.0427  0.3239  0.1587
56523DAPE   GL188754   4.187  14.525   6.941  0.0739 -0.1117 -0.0110
56523DAPE   GL288755   4.269  14.313   6.716 -0.2687  0.1078  0.3185
56523DAPE   D1A88756   3.916  14.502   7.183  0.5108  0.3226  0.0135
56523DAPE   D2A88757   4.219  14.503   7.507 -0.3050 -0.0370  0.2615
56523DAPE   D3A88758   4.257  14.972   7.420 -0.2216 -0.0301 -0.0369
56523DAPE   D4A88759   3.853  14.917   7.591  0.2009  0.0467 -0.1589
56523DAPE   C5A88760   3.486  14.837   7.291 -0.0056 -0.0048  0.1266
56523DAPE   D1B88761   3.990  14.166   6.466  0.1204 -0.6719 -0.2039
56523DAPE   D2B88762   3.910  14.316   6.047 -0.2953 -0.3631  0.0641
56523DAPE   D3B88763   3.446  14.385   6.084  0.3580 -0.2284  0.0383
56523DAPE   D4B88764   3.377  13.970   6.009 -0.5653 -0.0204 -0.1404
56523DAPE   C5B88765   2.953  13.709   5.854  0.0037  0.2310  0.0638
56524DAPE   NH388766   7.255  26.198  16.503 -0.0634 -0.1422 -0.2733
56524DAPE   PO488767   6.906  26.115  16.247 -0.2952 -0.3555 -0.1837
56524DAPE   GL188768   6.784  25.905  16.503 -0.0519  0.1481 -0.1300
56524DAPE   GL288769   6.724  25.549  16.465 -0.1022 -0.0941  0.0131
56524DAPE   D1A88770   6.851  25.803  16.865 -0.1417 -0.0818 -0.0198
56524DAPE   D2A88771   6.433  26.138  17.072  0.0122  0.2027  0.2412
56524DAPE   D3A88772   6.416  25.700  17.272 -0.0526  0.2637  0.0288
56524DAPE   D4A88773   6.115  25.940  17.376  0.0530 -0.0296  0.0457
56524DAPE   C5A88774   5.946  25.756  17.633  0.1519  0.3523 -0.3000
56524DAPE   D1B88775   6.396  25.562  16.726 -0.2618  0.1811  0.2275
56524DAPE   D2B88776   6.560  25.312  16.915  0.3144  0.1164 -0.1580
56524DAPE   D3B88777   6.243  24.925  17.003  0.1912 -0.2968 -0.0144
56524DAPE   D4B88778   6.029  24.774  17.399 -0.2158  0.0423  0.1213
56524DAPE   C5B88779   5.564  24.692  17.391  0.2237 -0.4419 -0.0553
56525DAPE   NH388780   5.459  26.124  12.679  0.0911 -0.1558  0.0176
56525DAPE   PO488781   5.313  25.740  12.396  0.2323  0.1452  0.0982
56525DAPE   GL188782   5.187  25.628  12.770  0.3002 -0.1942  0.2575
56525DAPE   GL288783   5.128  25.881  13.077  0.1121 -0.1916 -0.0795
56525DAPE   D1A88784   4.748  25.459  12.864 -0.1286  0.1423 -0.0624
56525DAPE   D2A88785   4.320  25.425  12.698  0.0869 -0.1583  0.3235
56525DAPE   D3A88786   4.377  25.771  12.554  0.1384  0.1580 -0.0458
56525DAPE   D4A88787   4.507  25.920  12.922 -0.1613  0.2087  0.2770
56525DAPE   C5A88788   4.822  26.173  12.892 -0.0799 -0.0980 -0.0168
56525DAPE   D1B88789   4.948  25.602  13.405  0.0962  0.1593 -0.2826
56525DAPE   D2B88790   4.588  25.437  13.593 -0.1257  0.1395 -0.1623
56525DAPE   D3B88791   4.348  25.430  13.197  0.0653 -0.1962  0.0081
56525DAPE   D4B88792   3.997  25.213  12.989  0.3319 -0.2053  0.0165
56525DAPE   C5B88793   3.732  25.401  12.838  0.1449  0.2952  0.0116
56526DAPE   NH388794   1.118  18.094   1.703 -0.1599  0.0013  0.3330
56526DAPE   PO488795   1.481  18.013   2.009 -0.1828  0.0766  0.2879
56526DAPE   GL188796   1.194  17.714   2.386 -0.0830 -0.2161  0.0042
56526DAPE   GL288797   1.094  17.379   2.500  0.1608 -0.0493  0.0663
56526DAPE   D1A88798   0.713  17.602   2.506  0.1798 -0.2092 -0.1313
56526DAPE   D2A88799   0.726  17.380   2.927 -0.2706 -0.0707 -0.0330
56526DAPE   D3A88800   0.398  17.181   2.894 -0.0394 -0.1090  0.3739
56526DAPE   D4A88801   0.209  17.518   3.129  0.1620 -0.2068  0.1404
56526DAPE   C5A88802  35.198  17.338   3.059 -0.3276 -0.0565  0.1738
56526DAPE   D1B88803   0.769  17.051   2.517  0.0098  0.0573  0.1133
56526DAPE   D2B88804   0.291  17.127   2.425  0.0255 -0.1599 -0.2501
56526DAPE   D3B88805   0.132  17.490   2.671  0.4346  0.0210  0.1796
56526DAPE   D4B88806   0.396  17.858   2.799  0.2250  0.2634 -0.1349
56526DAPE   C5B88807   0.244  18.247   2.879 -0.1208  0.1016  0.2588
56527DAPE   NH388808   5.111  12.381   9.392 -0.0880  0.3656  0.1204
56527DAPE   PO488809   4.838  12.556   9.057 -0.0327 -0.0428  0.0330
56527DAPE   GL188810   4.993  12.894   9.287 -0.2194  0.0959  0.0926
56527DAPE   GL288811   4.760  13.028   9.131 -0.1935 -0.1168  0.2019
56527DAPE   D1A88812   4.814  13.380   9.498  0.0916  0.0302  0.2145
56527DAPE   D2A88813   4.666  13.029   9.664 -0.0273  0.1121  0.0779
56527DAPE   D3A88814   4.616  12.997  10.128  0.1320 -0.2316  0.0144
56527DAPE   D4A88815   4.281  13.190  10.366 -0.1224  0.0125  0.1574
56527DAPE   C5A88816   3.966  13.459  10.285 -0.1405  0.2141  0.3013
56527DAPE   D1B88817   4.461  12.821   8.824  0.0164  0.1387  0.0726
56527DAPE   D2B88818   4.068  12.948   9.065 -0.0601 -0.2123  0.1077
56527DAPE   D3B88819   4.332  13.244   9.266 -0.1489  0.0057  0.0552
56527DAPE   D4B88820   4.018  13.388   9.351 -0.1569  0.2630  0.0086
56527DAPE   C5B88821   3.752  13.630   9.167  0.0047 -0.1147  0.0345
56528DAPE   NH388822  21.509  24.086   5.913 -0.1679 -0.0518 -0.0618
56528DAPE   PO488823  21.481  24.146   6.387  0.1045  0.2048  0.1118
56528DAPE   GL188824  21.910  24.241   6.241  0.1734 -0.1369 -0.2288
56528DAPE   GL288825  22.058  24.351   6.389 -0.1550 -0.1751 -0.0907
56528DAPE   D1A88826  22.160  23.989   5.979  0.3391 -0.0029 -0.0404
56528DAPE   D2A88827  22.493  23.952   6.180 -0.1204  0.0618  0.0553
56528DAPE   D3A88828  22.759  24.291   5.958 -0.0699 -0.3582  0.1502
56528DAPE   D4A88829  22.647  24.421   5.488  0.1150  0.0298  0.1363
56528DAPE   C5A88830  22.244  24.150   5.488 -0.1017 -0.1931 -0.1871
56528DAPE   D1B88831  22.296  24.531   6.098  0.0446  0.2371 -0.1303
56528DAPE   D2B88832  22.563  24.456   6.402  0.0070 -0.0156 -0.1806
56528DAPE   D3B88833  22.917  24.571   6.512 -0.3274 -0.2052 -0.2706
56528DAPE   D4B88834  23.001  24.136   6.407  0.1460 -0.1349 -0.0854
56528DAPE   C5B88835  23.064  23.778   6.127 -0.4348  0.1188  0.4590
56529DAPE   NH388836   5.170  25.583  10.250 -0.3240  0.1638 -0.0482
56529DAPE   PO488837   4.764  25.252  10.405 -0.2675  0.0276  0.3468
56529DAPE   GL188838   4.513  25.379  10.746 -0.0131 -0.0622 -0.1370
56529DAPE   GL288839   4.716  25.186  10.921 -0.0634  0.1367 -0.1816
56529DAPE   D1A88840   4.177  25.033  10.907  0.2439 -0.0150  0.1248
56529DAPE   D2A88841   4.175  24.893  11.322 -0.1852 -0.4212 -0.0131
56529DAPE   D3A88842   3.839  24.670  11.315 -0.2027 -0.0630  0.2825
56529DAPE   D4A88843   3.800  24.561  10.931  0.1827  0.0205  0.0618
56529DAPE   C5A88844   3.509  24.286  10.831 -0.1028 -0.2372  0.2988
56529DAPE   D1B88845   4.771  24.852  10.649 -0.0608 -0.0513 -0.0512
56529DAPE   D2B88846   4.801  24.753  10.238 -0.0330  0.0455  0.1126
56529DAPE   D3B88847   4.596  24.507   9.966  0.2039 -0.1093  0.2052
56529DAPE   D4B88848   4.793  24.138   9.889 -0.0619  0.3063  0.3322
56529DAPE   C5B88849   4.490  23.766   9.840  0.2426  0.1437 -0.0102
56530DAPE   NH388850  21.925  24.671   4.996  0.1676 -0.1502  0.3395
56530DAPE   PO488851  22.146  24.370   4.777 -0.0180  0.2764  0.1718
56530DAPE   GL188852  22.435  24.155   5.050 -0.1612  0.0228  0.1434
56530DAPE   GL288853  22.463  23.736   4.980 -0.3346 -0.0723  0.2362
56530DAPE   D1A88854  22.711  23.999   5.315 -0.0772  0.0943 -0.2173
56530DAPE   D2A88855  22.598  23.871   5.676 -0.1626 -0.1455  0.1080
56530DAPE   D3A88856  22.372  23.651   5.435 -0.3211  0.0172  0.0259
56530DAPE   D4A88857  22.268  23.185   5.409 -0.1851  0.0911  0.2439
56530DAPE   C5A88858  22.596  22.985   5.379 -0.1384  0.1460  0.0679
56530DAPE   D1B88859  22.782  23.534   5.170  0.2386 -0.0661  0.2748
56530DAPE   D2B88860  23.131  23.766   5.005  0.4565  0.1164  0.0978
56530DAPE   D3B88861  23.365  23.872   5.349 -0.1110  0.0070 -0.2379
56530DAPE   D4B88862  23.066  23.686   5.561 -0.1758  0.1601 -0.1149
56530DAPE   C5B88863  23.102  23.153   5.406 -0.0908  0.0655 -0.0960
56531DAPE   NH388864  13.695   9.172  13.906  0.2579  0.2625 -0.1524
56531DAPE   PO488865  13.798   8.857  14.186  0.1027 -0.2287  0.1243
56531DAPE   GL188866  14.077   9.034  14.518  0.2627 -0.2649 -0.0956
56531DAPE   GL288867  14.314   9.122  14.579 -0.0974  0.0796 -0.2297
56531DAPE   D1A88868  13.959   8.790  15.028 -0.1236  0.0003  0.2064
56531DAPE   D2A88869  14.323   8.608  14.914 -0.0268 -0.1538 -0.3273
56531DAPE   D3A88870  14.419   8.465  15.272  0.1948  0.0053  0.2398
56531DAPE   D4A88871  14.161   8.805  15.552  0.1746 -0.2443  0.1271
56531DAPE   C5A88872  13.699   8.752  15.510  0.2841 -0.0209 -0.1154
56531DAPE   D1B88873  14.694   9.209  14.773 -0.0108  0.3328  0.2019
56531DAPE   D2B88874  14.533   8.995  15.191 -0.1928  0.1681  0.0013
56531DAPE   D3B88875  14.611   8.959  15.616 -0.0501 -0.2147 -0.0439
56531DAPE   D4B88876  14.846   8.564  15.603  0.2050 -0.3149  0.0592
56531DAPE   C5B88877  15.162   8.350  16.025  0.1219  0.0511  0.2362
56532DAPE   NH388878  21.450  11.553   6.050  0.0836  0.2136  0.5069
56532DAPE   PO488879  21.577  11.524   5.630 -0.0031  0.0746 -0.2307
56532DAPE   GL188880  21.958  11.525   5.679  0.1032 -0.1826  0.0562
56532DAPE   GL288881  22.236  11.641   5.360  0.1006  0.2389 -0.3872
56532DAPE   D1A88882  22.319  11.343   5.827 -0.3202 -0.0672  0.0974
56532DAPE   D2A88883  22.301  11.727   6.047 -0.1435 -0.1584  0.0988
56532DAPE   D3A88884  22.733  11.760   6.287  0.2231  0.1011 -0.0267
56532DAPE   D4A88885  22.715  11.380   6.183 -0.2608  0.2306  0.0714
56532DAPE   C5A88886  22.786  11.053   6.349 -0.0134 -0.0113 -0.0707
56532DAPE   D1B88887  22.707  11.713   5.276  0.2661 -0.2123  0.0573
56532DAPE   D2B88888  22.891  12.044   5.447  0.0508  0.0239 -0.1204
56532DAPE   D3B88889  23.098  11.982   5.060  0.0561 -0.0013 -0.0167
56532DAPE   D4B88890  23.436  11.930   5.397  0.3143 -0.1214  0.1789
56532DAPE   C5B88891  23.686  12.104   5.650 -0.1932  0.0761  0.1145
56533DAPE   NH388892  24.770  10.198   2.830 -0.1258  0.2067  0.0642
56533DAPE   PO488893  24.650  10.504   3.157  0.1092 -0.0331 -0.0755
56533DAPE   GL188894  24.968  10.750   3.552  0.1469 -0.1760  0.1830
56533DAPE   GL288895  25.266  10.639   3.491 -0.1208 -0.0723  0.1143
56533DAPE   D1A88896  25.215  10.760   4.049  0.0467  0.2028 -0.3550
56533DAPE   D2A88897  25.629  10.470   4.019 -0.1455 -0.1292  0.2870
56533DAPE   D3A88898  25.922  10.848   4.198 -0.1395 -0.5264  0.1772
56533DAPE   D4A88899  25.591  11.151   4.065  0.3065  0.2972 -0.1592
56533DAPE   C5A88900  25.166  11.236   3.865 -0.0909  0.4870 -0.1173
56533DAPE   D1B88901  25.515  10.817   3.646  0.0866 -0.0437  0.0075
56533DAPE   D2B88902  25.585  11.257   3.400 -0.0573  0.2609 -0.0988
56533DAPE   D3B88903  25.962  11.247   3.776  0.1345  0.1188 -0.0215
56533DAPE   D4B88904  26.000  11.611   3.595  0.0237  0.0183 -0.0827
56533DAPE   C5B88905  26.068  11.757   3.992 -0.0024 -0.0353 -0.2074
56534DAPE   NH388906  19.551  18.623   8.663  0.1016 -0.3159  0.1384
56534DAPE   PO488907  20.001  18.582   8.505 -0.2196  0.2749  0.3527
56534DAPE   GL188908  20.285  18.800   8.774  0.4102 -0.0038 -0.0304
56534DAPE   GL288909  20.430  18.604   8.946 -0.2168  0.2607  0.3104
56534DAPE   D1A88910  20.655  19.051   8.806 -0.0788  0.2366  0.0987
56534DAPE   D2A88911  20.570  19.272   8.395  0.0847 -0.1343  0.1311
56534DAPE   D3A88912  21.034  19.234   8.477 -0.0525 -0.0033  0.1330
56534DAPE   D4A88913  21.143  19.104   8.854 -0.3403  0.1916  0.2114
56534DAPE   C5A88914  21.355  18.980   9.169  0.1348  0.2194  0.0506
56534DAPE   D1B88915  20.640  18.265   9.162  0.0753 -0.1370  0.1477
56534DAPE   D2B88916  20.796  18.303   8.856  0.2598 -0.0690  0.0537
56534DAPE   D3B88917  20.927  18.666   9.078  0.1364 -0.2558  0.2268
56534DAPE   D4B88918  21.361  18.573   8.944 -0.0659  0.0268  0.0733
56534DAPE   C5B88919  21.695  18.323   9.177 -0.1183 -0.0065  0.2735
56535DAPE   NH388920  27.514   2.211   6.248  0.2231  0.2054 -0.0323
56535DAPE   PO488921  27.943   2.000   6.176 -0.0884 -0.1213 -0.2577
56535DAPE   GL188922  27.879   1.934   6.622  0.0619 -0.3599 -0.2742
56535DAPE   GL288923  28.221   2.115   6.746  0.1191 -0.0938 -0.0328
56535DAPE   D1A88924  27.897   1.590   6.789  0.0928 -0.2573 -0.3200
56535DAPE   D2A88925  27.920   1.684   7.199  0.1935 -0.0668  0.1089
56535DAPE   D3A88926  27.960   1.345   7.531  0.0126  0.1233  0.3416
56535DAPE   D4A88927  28.169   1.459   7.841 -0.1731 -0.0416  0.1223
56535DAPE   C5A88928  28.086   1.867   8.045  0.0381  0.2316 -0.0072
56535DAPE   D1B88929  28.026   2.482   6.991  0.3868  0.1765 -0.0425
56535DAPE   D2B88930  28.047   2.156   7.269 -0.0857 -0.0849  0.3589
56535DAPE   D3B88931  27.559   1.971   7.213  0.1431 -0.1655  0.1320
56535DAPE   D4B88932  27.747   1.902   7.618 -0.1814 -0.1655  0.0755
56535DAPE   C5B88933  27.628   1.630   7.874  0.1859 -0.1530 -0.1046
56536DAPE   NH388934  22.461  14.610   2.816  0.1125 -0.2393  0.1907
56536DAPE   PO488935  22.321  14.313   3.082  0.2352  0.1794 -0.1764
56536DAPE   GL188936  22.281  14.343   3.520 -0.2011 -0.0057  0.1987
56536DAPE   GL288937  22.584  14.424   3.563  0.0445  0.0549  0.2747
56536DAPE   D1A88938  22.129  14.471   3.895  0.1118 -0.0153 -0.0738
56536DAPE   D2A88939  21.819  14.669   3.690  0.0405 -0.0555 -0.0356
56536DAPE   D3A88940  21.649  14.451   3.983 -0.1998 -0.2561  0.0371
56536DAPE   D4A88941  21.799  14.622   4.327 -0.1796  0.1421 -0.0671
56536DAPE   C5A88942  21.853  15.093   4.440  0.0608 -0.1503 -0.0400
56536DAPE   D1B88943  22.594  14.113   3.893 -0.1072 -0.1106 -0.2302
56536DAPE   D2B88944  22.687  14.425   4.150 -0.2357 -0.0438 -0.0245
56536DAPE   D3B88945  22.588  14.122   4.374 -0.3915  0.4515 -0.2712
56536DAPE   D4B88946  23.111  14.058   4.409  0.2110 -0.0790 -0.2351
56536DAPE   C5B88947  23.367  14.225   4.171 -0.0901 -0.1147 -0.2005
56537DAPE   NH388948   6.668  17.812  10.871  0.4829 -0.0445  0.0732
56537DAPE   PO488949   6.840  18.085  11.107 -0.1698 -0.0081 -0.1452
56537DAPE   GL188950   6.409  18.210  11.010 -0.0174  0.3140  0.1886
56537DAPE   GL288951   6.156  17.914  11.044  0.2415 -0.3813  0.1523
56537DAPE   D1A88952   6.255  18.302  10.635 -0.1207  0.1648 -0.1599
56537DAPE   D2A88953   5.806  18.130  10.777 -0.3722 -0.0213  0.1609
56537DAPE   D3A88954   5.442  18.422  10.690  0.1024  0.2139 -0.3387
56537DAPE   D4A88955   5.145  18.091  10.929 -0.2694  0.0437  0.0213
56537DAPE   C5A88956   5.157  18.050  11.377  0.0714 -0.1816  0.0583
56537DAPE   D1B88957   5.922  18.063  11.303 -0.0130  0.1749 -0.0573
56537DAPE   D2B88958   6.151  18.484  11.364  0.1378  0.1241  0.1019
56537DAPE   D3B88959   6.106  18.716  11.760  0.1189 -0.1686  0.0829
56537DAPE   D4B88960   5.670  18.931  11.696 -0.0416 -0.2724 -0.1423
56537DAPE   C5B88961   5.598  19.302  11.421  0.1209  0.1010  0.1002
56538DAPE   NH388962  27.666  12.967   0.556  0.0034  0.0066  0.1040
56538DAPE   PO488963  27.841  12.775   0.911  0.1985  0.0138  0.3524
56538DAPE   GL188964  27.388  12.954   1.034 -0.4140  0.4003 -0.1809
56538DAPE   GL288965  27.282  12.687   1.094  0.0628 -0.0105 -0.1858
56538DAPE   D1A88966  27.096  13.297   1.108  0.4358  0.1001 -0.3526
56538DAPE   D2A88967  27.045  13.667   0.879 -0.1412 -0.0343 -0.0129
56538DAPE   D3A88968  26.925  14.054   1.073 -0.0766 -0.0654 -0.1197
56538DAPE   D4A88969  26.539  14.285   1.044 -0.0228 -0.3511 -0.1353
56538DAPE   C5A88970  26.612  14.769   1.116 -0.2062  0.0668 -0.1267
56538DAPE   D1B88971  27.567  12.538   1.371 -0.0975 -0.0236  0.3190
56538DAPE   D2B88972  27.421  12.378   1.649 -0.1980  0.1102  0.0580
56538DAPE   D3B88973  27.079  12.425   1.587  0.1044 -0.1156 -0.0176
56538DAPE   D4B88974  26.943  12.812   1.466 -0.2917  0.0440  0.3379
56538DAPE   C5B88975  27.028  13.170   1.628  0.1653 -0.0624  0.1554
56539DAPE   NH388976  24.149  11.849   2.672 -0.1507  0.0495  0.0061
56539DAPE   PO488977  24.481  12.023   2.427 -0.3308  0.1018 -0.0674
56539DAPE   GL188978  24.865  12.065   2.710 -0.3744  0.0606  0.3099
56539DAPE   GL288979  25.030  11.847   2.880 -0.0174  0.2140  0.1931
56539DAPE   D1A88980  25.068  12.360   3.044  0.0127 -0.0148 -0.1420
56539DAPE   D2A88981  25.289  12.339   3.521 -0.0959 -0.0706  0.0842
56539DAPE   D3A88982  24.965  12.348   3.690  0.1532  0.2112 -0.1253
56539DAPE   D4A88983  25.138  11.991   3.911 -0.1387  0.0786  0.4011
56539DAPE   C5A88984  25.374  11.704   3.650 -0.0390  0.1325 -0.1697
56539DAPE   D1B88985  25.041  11.933   3.390  0.0799  0.0315 -0.0023
56539DAPE   D2B88986  24.650  12.181   3.367  0.1902 -0.2920  0.0539
56539DAPE   D3B88987  24.459  12.505   3.662  0.2702 -0.1227  0.3201
56539DAPE   D4B88988  24.287  12.092   3.696  0.1390 -0.0170  0.0211
56539DAPE   C5B88989  24.665  11.779   3.754  0.0942 -0.0770 -0.0521
56540DAPE   NH388990  14.632   3.827  13.126  0.3418 -0.2346  0.1955
56540DAPE   PO488991  14.214   3.841  12.915  0.1375 -0.0703  0.4154
56540DAPE   GL188992  13.869   3.747  13.149  0.0994 -0.1222  0.0827
56540DAPE   GL288993  13.751   3.480  13.306  0.0014  0.2913 -0.2044
56540DAPE   D1A88994  13.502   4.047  13.330  0.2301 -0.4146 -0.1085
56540DAPE   D2A88995  13.736   4.192  12.975  0.3711  0.2451  0.0815
56540DAPE   D3A88996  13.719   4.488  13.306 -0.1143  0.1583 -0.0229
56540DAPE   D4A88997  14.149   4.551  13.626 -0.0685  0.0412 -0.0465
56540DAPE   C5A88998  14.125   4.791  13.947  0.0412  0.1211 -0.0468
56540DAPE   D1B88999  14.121   3.511  13.597 -0.0763  0.1867 -0.0323
56540DAPE   D2B89000  13.786   3.254  13.903 -0.1881 -0.0016 -0.3705
56540DAPE   D3B89001  13.931   2.945  14.202 -0.0859 -0.0915  0.1181
56540DAPE   D4B89002  13.577   2.746  14.055  0.1421  0.2049  0.1956
56540DAPE   C5B89003  13.588   2.683  13.654  0.1447 -0.3484  0.2993
56541DAPE   NH389004  30.583  31.945   6.553 -0.1073  0.0054  0.0242
56541DAPE   PO489005  30.333  31.905   6.206 -0.1257 -0.3432  0.0215
56541DAPE   GL189006  29.900  32.103   6.364  0.0064  0.0707 -0.5929
56541DAPE   GL289007  29.532  32.039   6.173  0.0921 -0.0545  0.3562
56541DAPE   D1A89008  29.612  32.431   6.469 -0.3008 -0.0229 -0.0695
56541DAPE   D2A89009  29.796  32.441   6.891 -0.0663 -0.0312 -0.0133
56541DAPE   D3A89010  29.841  32.252   7.313  0.4124  0.0858  0.3529
56541DAPE   D4A89011  29.543  32.351   7.509 -0.1274  0.1350  0.2807
56541DAPE   C5A89012  29.363  32.620   7.263 -0.2214 -0.0791 -0.4461
56541DAPE   D1B89013  29.244  32.346   6.125  0.1068  0.0218  0.1201
56541DAPE   D2B89014  29.027  32.323   6.549 -0.0785 -0.0292 -0.0602
56541DAPE   D3B89015  28.635  32.473   6.350 -0.1276 -0.1983  0.0338
56541DAPE   D4B89016  28.293  32.641   6.533  0.2863  0.2057 -0.0899
56541DAPE   C5B89017  28.197  33.070   6.412  0.1932  0.0827 -0.0024
56542DAPE   NH389018   6.581  23.522  11.992 -0.0570  0.0101 -0.0545
56542DAPE   PO489019   6.602  23.542  12.444  0.1122  0.1835 -0.0989
56542DAPE   GL189020   6.177  23.390  12.483  0.0449  0.3107 -0.1118
56542DAPE   GL289021   6.078  23.468  12.214  0.2378  0.0785 -0.1113
56542DAPE   D1A89022   5.858  23.088  12.441  0.1035 -0.2030  0.1194
56542DAPE   D2A89023   5.727  22.641  12.199 -0.3577 -0.3753  0.1728
56542DAPE   D3A89024   5.517  22.746  12.589  0.2176  0.0456  0.1299
56542DAPE   D4A89025   5.170  22.611  12.482 -0.1187 -0.1105 -0.1227
56542DAPE   C5A89026   4.837  22.515  12.826 -0.3251 -0.0334  0.2657
56542DAPE   D1B89027   6.310  23.872  12.294  0.0805 -0.2314  0.2919
56542DAPE   D2B89028   5.868  23.992  12.297  0.1179 -0.4137  0.0087
56542DAPE   D3B89029   5.720  24.146  12.686  0.2496 -0.0293  0.0092
56542DAPE   D4B89030   5.570  23.765  12.961  0.0515 -0.1922 -0.4409
56542DAPE   C5B89031   5.638  23.518  13.324 -0.1803  0.0743 -0.0861
56543DAPE   NH389032  20.786   6.541  10.016 -0.0788 -0.0610 -0.0254
56543DAPE   PO489033  20.922   6.120   9.883 -0.0013 -0.1257 -0.0834
56543DAPE   GL189034  21.385   6.260   9.976 -0.0853  0.3129 -0.1581
56543DAPE   GL289035  21.439   6.509  10.257 -0.1657 -0.1132 -0.0885
56543DAPE   D1A89036  21.900   6.418  10.084 -0.0088  0.0068  0.1060
56543DAPE   D2A89037  21.809   6.876   9.969  0.0816 -0.0205  0.1763
56543DAPE   D3A89038  22.224   6.865  10.054  0.3159 -0.1353  0.1113
56543DAPE   D4A89039  22.540   7.137  10.124  0.0254 -0.1064  0.1436
56543DAPE   C5A89040  23.000   6.946  10.118  0.1301  0.0986 -0.1502
56543DAPE   D1B89041  21.820   6.449  10.557 -0.0645 -0.2784 -0.1434
56543DAPE   D2B89042  22.248   6.158  10.311  0.0772 -0.3390 -0.0907
56543DAPE   D3B89043  22.390   6.449  10.604 -0.3056  0.0419 -0.2143
56543DAPE   D4B89044  22.660   6.115  10.577  0.0467  0.3039  0.1649
56543DAPE   C5B89045  22.732   5.745  10.449 -0.5199 -0.2242 -0.4634
56544DAPE   NH389046  31.760  10.519   0.981 -0.1333 -0.4579 -0.0340
56544DAPE   PO489047  31.621  10.898   1.042  0.2129 -0.1230 -0.0841
56544DAPE   GL189048  31.446  11.318   1.180  0.3120 -0.1437  0.0789
56544DAPE   GL289049  31.119  11.354   0.988 -0.1298  0.0435  0.4073
56544DAPE   D1A89050  31.276  11.638   1.414 -0.0560  0.2002  0.0409
56544DAPE   D2A89051  31.401  11.748   1.025  0.0293 -0.1697  0.2861
56544DAPE   D3A89052  30.996  11.855   0.831  0.0396 -0.0391  0.1655
56544DAPE   D4A89053  30.894  12.201   0.969  0.2406  0.0981  0.2307
56544DAPE   C5A89054  30.456  12.252   0.948 -0.2047  0.0244  0.2232
56544DAPE   D1B89055  30.716  11.488   0.992 -0.0216 -0.0125 -0.1358
56544DAPE   D2B89056  30.561  11.578   1.310  0.1031 -0.2182  0.1067
56544DAPE   D3B89057  30.799  11.925   1.345  0.1052 -0.1038 -0.2390
56544DAPE   D4B89058  31.009  11.953   1.788 -0.0775  0.0809 -0.0458
56544DAPE   C5B89059  31.240  11.610   2.028 -0.0417 -0.0080 -0.0612
56545DAPE   NH389060  17.932  28.929   9.721 -0.0849 -0.1223  0.0148
56545DAPE   PO489061  17.920  29.076  10.120 -0.1216 -0.0214 -0.1891
56545DAPE   GL189062  18.022  29.188  10.589  0.0914 -0.0290  0.0400
56545DAPE   GL289063  18.102  28.848  10.849  0.0090  0.1350 -0.0165
56545DAPE   D1A89064  18.366  29.581  10.670 -0.0262  0.3116  0.3573
56545DAPE   D2A89065  18.540  29.524  11.049 -0.2808 -0.2439  0.1188
56545DAPE   D3A89066  18.580  29.234  11.398  0.0380 -0.0351 -0.1530
56545DAPE   D4A89067  18.847  29.520  11.460 -0.1136 -0.3034  0.0068
56545DAPE   C5A89068  18.692  29.815  11.937  0.2538  0.3447 -0.3014
56545DAPE   D1B89069  18.487  28.641  10.949 -0.2422  0.1081 -0.0025
56545DAPE   D2B89070  18.328  28.286  10.860  0.0005  0.1803  0.0759
56545DAPE   D3B89071  18.486  28.410  10.443  0.0168  0.0139 -0.2994
56545DAPE   D4B89072  18.424  28.857  10.422 -0.0656  0.2296 -0.1332
56545DAPE   C5B89073  18.587  29.151  10.728  0.0182  0.0075  0.2590
56546DAPE   NH389074  21.837  20.997   5.428  0.0357  0.3611 -0.1852
56546DAPE   PO489075  22.210  21.074   5.059  0.1859  0.2097  0.0558
56546DAPE   GL189076  22.573  20.807   5.366 -0.1708  0.0661  0.0912
56546DAPE   GL289077  22.344  20.802   5.596  0.2597  0.1865 -0.0487
56546DAPE   D1A89078  22.888  20.654   5.481  0.0983 -0.2679  0.1483
56546DAPE   D2A89079  23.062  20.351   5.348  0.0811 -0.0779  0.2769
56546DAPE   D3A89080  23.048  19.954   5.632  0.2179 -0.0674  0.0400
56546DAPE   D4A89081  23.497  20.018   5.433  0.2390  0.2130  0.2173
56546DAPE   C5A89082  23.631  19.710   5.019  0.0121 -0.1130 -0.0821
56546DAPE   D1B89083  22.593  20.750   5.883 -0.0066 -0.2304  0.5004
56546DAPE   D2B89084  22.971  20.783   5.923  0.2112 -0.2120 -0.0824
56546DAPE   D3B89085  23.129  20.379   5.875 -0.1778  0.0575 -0.0776
56546DAPE   D4B89086  22.961  20.553   6.357  0.2093 -0.2621 -0.1246
56546DAPE   C5B89087  22.821  20.499   6.787  0.0766  0.0352 -0.0369
56547DAPE   NH389088  25.032  25.754   3.193 -0.1123 -0.2483 -0.0338
56547DAPE   PO489089  24.931  25.761   3.567 -0.0708  0.2911 -0.1319
56547DAPE   GL189090  25.086  26.129   3.762  0.2040 -0.0844  0.2620
56547DAPE   GL289091  25.426  26.180   3.628 -0.0904  0.4925  0.0199
56547DAPE   D1A89092  25.504  26.188   4.147  0.3261  0.0534  0.0803
56547DAPE   D2A89093  25.440  26.029   4.527  0.0271  0.0282  0.1066
56547DAPE   D3A89094  25.736  26.013   4.878 -0.1398 -0.1126 -0.5038
56547DAPE   D4A89095  25.492  26.338   5.031 -0.0030  0.1841  0.4743
56547DAPE   C5A89096  24.999  26.244   5.179 -0.0658  0.1362 -0.1359
56547DAPE   D1B89097  25.600  26.647   3.868 -0.4210 -0.0308 -0.0466
56547DAPE   D2B89098  25.274  26.643   4.022  0.0676  0.0014  0.0902
56547DAPE   D3B89099  25.339  26.938   4.302  0.0941  0.0079 -0.4040
56547DAPE   D4B89100  25.355  26.731   4.587 -0.1456  0.1942  0.0964
56547DAPE   C5B89101  25.050  26.341   4.668  0.2232 -0.2055  0.2599
56548DAPE   NH389102  22.234  30.146   6.752  0.5398 -0.1437  0.2499
56548DAPE   PO489103  21.874  30.066   6.854  0.2528  0.0250  0.1064
56548DAPE   GL189104  21.962  30.572   6.775  0.0974 -0.1304 -0.4012
56548DAPE   GL289105  21.916  30.771   6.508  0.1385  0.0750  0.0299
56548DAPE   D1A89106  22.240  30.844   6.980 -0.0088  0.2144 -0.0284
56548DAPE   D2A89107  22.212  30.466   7.207 -0.0144 -0.0750 -0.0104
56548DAPE   D3A89108  22.546  30.119   7.183 -0.2452 -0.0567 -0.0047
56548DAPE   D4A89109  23.006  30.351   7.050 -0.1105 -0.2043 -0.0066
56548DAPE   C5A89110  23.045  30.876   7.062  0.0371 -0.1754  0.0286
56548DAPE   D1B89111  22.415  30.852   6.504 -0.0630  0.1225 -0.3286
56548DAPE   D2B89112  22.613  30.500   6.834  0.1506 -0.0595 -0.1016
56548DAPE   D3B89113  22.618  30.783   7.287  0.1200 -0.1556 -0.1171
56548DAPE   D4B89114  22.852  30.559   7.515  0.0966 -0.3951  0.4257
56548DAPE   C5B89115  23.077  30.543   7.907 -0.1232  0.1115 -0.4845
56549DAPE   NH389116   4.553   5.210  10.507 -0.0265 -0.1009  0.2189
56549DAPE   PO489117   4.923   5.070  10.615 -0.2779 -0.3301  0.3350
56549DAPE   GL189118   4.894   5.529  10.910  0.3560  0.0162  0.0895
56549DAPE   GL289119   4.733   5.628  10.678 -0.4004 -0.0118  0.2107
56549DAPE   D1A89120   5.004   5.502  11.340  0.1770 -0.2514 -0.2488
56549DAPE   D2A89121   4.582   5.440  11.341  0.0686 -0.0737  0.0206
56549DAPE   D3A89122   4.222   5.332  11.631  0.2079 -0.3955 -0.0764
56549DAPE   D4A89123   3.728   5.358  11.546  0.0721 -0.2040  0.1852
56549DAPE   C5A89124   3.521   5.165  11.922  0.4770 -0.0580 -0.1373
56549DAPE   D1B89125   4.379   5.601  10.907 -0.2228 -0.0513 -0.0835
56549DAPE   D2B89126   4.105   5.772  11.315 -0.0431 -0.0114 -0.0804
56549DAPE   D3B89127   4.297   6.198  11.500  0.1805  0.2095 -0.5196
56549DAPE   D4B89128   3.987   6.317  11.647  0.0269 -0.2549  0.1887
56549DAPE   C5B89129   3.984   6.128  12.022 -0.1971 -0.1416 -0.1630
56550DAPE   NH389130   5.355  22.938   8.135 -0.2860 -0.1462 -0.1321
56550DAPE   PO489131   5.224  23.308   8.102 -0.1409 -0.2911  0.0321
56550DAPE   GL189132   4.939  23.096   8.297 -0.3813 -0.0261 -0.1842
56550DAPE   GL289133   4.847  22.958   8.507  0.1350  0.1669 -0.2971
56550DAPE   D1A89134   4.642  22.745   8.107 -0.2051  0.1264 -0.3586
56550DAPE   D2A89135   4.530  22.527   8.422 -0.1994  0.0276 -0.0455
56550DAPE   D3A89136   4.651  22.107   8.248 -0.0631  0.2710  0.0532
56550DAPE   D4A89137   4.209  22.022   8.313 -0.0610  0.1768  0.2514
56550DAPE   C5A89138   4.017  21.739   8.101 -0.1576 -0.4091 -0.0403
56550DAPE   D1B89139   5.043  22.600   8.298  0.3896  0.0252 -0.1456
56550DAPE   D2B89140   5.098  22.212   8.343 -0.2316 -0.0394 -0.1291
56550DAPE   D3B89141   4.913  22.296   8.659 -0.1172  0.4040 -0.2005
56550DAPE   D4B89142   4.943  22.269   9.039 -0.1435  0.0858 -0.2310
56550DAPE   C5B89143   4.591  22.417   9.344  0.2119  0.0423 -0.0990
56551DAPE   NH389144   3.571   4.977   8.410 -0.0163  0.1032  0.1371
56551DAPE   PO489145   3.356   4.762   8.620 -0.1465  0.0312 -0.0029
56551DAPE   GL189146   2.956   4.380   8.743  0.1418 -0.2078  0.1644
56551DAPE   GL289147   2.791   4.493   9.037 -0.2808  0.0748  0.0400
56551DAPE   D1A89148   2.895   4.004   8.823  0.0275  0.0377  0.1381
56551DAPE   D2A89149   2.543   4.011   9.091 -0.0743 -0.0617 -0.1312
56551DAPE   D3A89150   2.234   3.883   8.731 -0.2373 -0.1695  0.0316
56551DAPE   D4A89151   1.953   4.044   8.972  0.1602 -0.1062  0.0255
56551DAPE   C5A89152   2.043   4.185   9.338 -0.1937 -0.4236  0.0191
56551DAPE   D1B89153   2.647   4.722   9.300  0.0777 -0.0770  0.1478
56551DAPE   D2B89154   2.285   4.544   9.201 -0.0048 -0.1590  0.0061
56551DAPE   D3B89155   2.259   4.372   8.817 -0.2374  0.1639  0.2499
56551DAPE   D4B89156   1.800   4.492   8.576  0.3381  0.2934 -0.2323
56551DAPE   C5B89157   1.563   4.652   8.202 -0.2047  0.0039 -0.0658
56552DAPE   NH389158  28.625   6.144   3.596  0.3386 -0.1399  0.1376
56552DAPE   PO489159  28.631   5.898   3.917 -0.1067  0.1362 -0.0468
56552DAPE   GL189160  28.884   5.984   4.292  0.1372 -0.1563 -0.2118
56552DAPE   GL289161  28.551   6.065   4.527 -0.1788 -0.1261  0.0294
56552DAPE   D1A89162  29.168   6.242   4.493  0.1240 -0.3117  0.0481
56552DAPE   D2A89163  29.501   6.325   4.285  0.2968 -0.1800 -0.1865
56552DAPE   D3A89164  29.804   6.519   4.345 -0.1804  0.0266  0.0297
56552DAPE   D4A89165  29.675   6.488   4.805 -0.1363  0.1888  0.1456
56552DAPE   C5A89166  29.537   6.167   4.888  0.1021  0.0263  0.1126
56552DAPE   D1B89167  28.487   6.405   4.759 -0.1112 -0.0301 -0.1291
56552DAPE   D2B89168  28.790   6.167   4.933 -0.0599 -0.2983 -0.2953
56552DAPE   D3B89169  28.814   6.455   5.229  0.1467 -0.2860  0.2865
56552DAPE   D4B89170  28.978   6.729   5.497  0.0217  0.0364  0.0716
56552DAPE   C5B89171  29.253   6.814   5.798  0.1279 -0.1183 -0.2175
56553DAPE   NH389172  27.644  29.452   4.992  0.0392 -0.0459  0.2573
56553DAPE   PO489173  27.867  29.737   5.284  0.0766  0.3324  0.0341
56553DAPE   GL189174  28.155  29.749   5.672 -0.1004 -0.1254 -0.1318
56553DAPE   GL289175  28.029  30.083   5.914  0.1528  0.0574  0.2432
56553DAPE   D1A89176  28.549  29.748   5.887  0.2594 -0.0352  0.1009
56553DAPE   D2A89177  28.787  30.116   5.972 -0.3206 -0.0399 -0.1864
56553DAPE   D3A89178  28.869  30.005   6.413 -0.0791  0.0734  0.2307
56553DAPE   D4A89179  29.037  30.264   6.752  0.1181  0.2358  0.1406
56553DAPE   C5A89180  29.282  30.656   6.722 -0.2493  0.0336  0.0448
56553DAPE   D1B89181  28.071  29.955   6.322 -0.4231 -0.2140 -0.1155
56553DAPE   D2B89182  27.792  29.685   6.131 -0.1501 -0.1983  0.2305
56553DAPE   D3B89183  27.946  29.318   5.957 -0.3450 -0.4357  0.0817
56553DAPE   D4B89184  28.106  29.385   6.354 -0.0140 -0.0769 -0.1915
56553DAPE   C5B89185  28.494  29.726   6.446 -0.1016  0.1072  0.1325
56554DAPE   NH389186   6.001  15.702  10.217  0.0877  0.1011 -0.2692
56554DAPE   PO489187   5.810  16.122  10.279  0.2015 -0.0669  0.3307
56554DAPE   GL189188   5.577  16.362  10.314 -0.0211  0.2047  0.0050
56554DAPE   GL289189   5.620  16.669  10.431 -0.0201  0.0235  0.2549
56554DAPE   D1A89190   5.158  16.161  10.212 -0.1887  0.0367  0.3410
56554DAPE   D2A89191   4.722  16.020   9.963 -0.0301 -0.0458  0.0481
56554DAPE   D3A89192   4.385  16.293   9.897 -0.0734 -0.0478 -0.1711
56554DAPE   D4A89193   4.548  16.573   9.529 -0.1756  0.1898 -0.0651
56554DAPE   C5A89194   4.822  16.957   9.464  0.4256 -0.0793  0.3478
56554DAPE   D1B89195   5.447  16.922  10.680 -0.0105 -0.0697  0.0084
56554DAPE   D2B89196   5.199  17.081  11.079 -0.1311 -0.0722 -0.1033
56554DAPE   D3B89197   4.843  17.212  10.886 -0.0239 -0.0180 -0.1815
56554DAPE   D4B89198   4.460  17.398  11.098 -0.1543 -0.3776 -0.1233
56554DAPE   C5B89199   4.360  17.120  11.411 -0.4527  0.4174 -0.3889
56555DAPE   NH389200  18.133   3.523  11.388  0.0796  0.1023 -0.0509
56555DAPE   PO489201  18.061   3.956  11.553  0.1549  0.1854  0.0343
56555DAPE   GL189202  18.100   4.167  12.009  0.0573 -0.0696  0.2439
56555DAPE   GL289203  18.474   4.320  12.153 -0.0216  0.0865 -0.2396
56555DAPE   D1A89204  18.169   4.051  12.427 -0.1686  0.0495  0.2426
56555DAPE   D2A89205  18.575   3.803  12.425  0.3194 -0.1049  0.2649
56555DAPE   D3A89206  18.628   3.468  12.072  0.1555  0.3594  0.1192
56555DAPE   D4A89207  18.465   3.034  12.192 -0.0008 -0.0890  0.2226
56555DAPE   C5A89208  18.741   2.871  12.414  0.0575  0.1811  0.3437
56555DAPE   D1B89209  18.477   4.382  12.652  0.0233  0.1734 -0.1433
56555DAPE   D2B89210  18.334   4.023  12.921  0.3358  0.1504  0.1682
56555DAPE   D3B89211  17.899   4.068  12.852  0.0935 -0.1349  0.0423
56555DAPE   D4B89212  17.888   4.316  13.039 -0.1041  0.3447  0.1079
56555DAPE   C5B89213  18.155   4.336  13.368  0.1643  0.0801 -0.0210
56556DAPE   NH389214  28.820  14.974   0.167 -0.0280 -0.0847 -0.0231
56556DAPE   PO489215  29.061  14.550   0.032 -0.2237  0.0779 -0.1237
56556DAPE   GL189216  29.047  14.536   0.402  0.3518 -0.0904 -0.0594
56556DAPE   GL289217  29.197  14.207   0.426 -0.0954 -0.1118 -0.2925
56556DAPE   D1A89218  28.918  14.579   0.793 -0.0190  0.0933 -0.1135
56556DAPE   D2A89219  29.073  14.986   0.920 -0.0567 -0.4545  0.5387
56556DAPE   D3A89220  28.710  14.989   1.167 -0.1092 -0.3756 -0.0735
56556DAPE   D4A89221  28.846  14.658   1.399  0.1105  0.3399 -0.1281
56556DAPE   C5A89222  28.742  14.172   1.395 -0.0139 -0.2202  0.0818
56556DAPE   D1B89223  29.524  14.238   0.656 -0.1009 -0.4224  0.1091
56556DAPE   D2B89224  29.388  14.494   1.030  0.2886  0.0378 -0.0838
56556DAPE   D3B89225  29.286  14.301   1.425  0.1994  0.2946  0.0153
56556DAPE   D4B89226  29.544  14.558   1.659 -0.0137  0.2323  0.1997
56556DAPE   C5B89227  29.275  14.805   1.861  0.0140 -0.2242  0.0980
56557DAPE   NH389228  21.111  33.943   7.825  0.2342  0.1632 -0.1958
56557DAPE   PO489229  20.943  33.595   7.950 -0.0886  0.3636 -0.2461
56557DAPE   GL189230  21.081  33.754   8.283 -0.1304 -0.3017 -0.3663
56557DAPE   GL289231  21.428  33.766   8.206  0.0606 -0.0944 -0.1622
56557DAPE   D1A89232  21.146  33.978   8.595 -0.2523  0.0403  0.5299
56557DAPE   D2A89233  21.302  34.259   8.307  0.4839 -0.2476 -0.0263
56557DAPE   D3A89234  21.748  34.144   8.307 -0.2330  0.0374 -0.3075
56557DAPE   D4A89235  21.582  34.487   8.687 -0.0501  0.3088 -0.1606
56557DAPE   C5A89236  21.283  34.336   8.949 -0.0715 -0.0875  0.0991
56557DAPE   D1B89237  21.486  33.460   8.631  0.3558  0.2703  0.2776
56557DAPE   D2B89238  21.716  33.651   8.974  0.1867 -0.0321 -0.2384
56557DAPE   D3B89239  21.670  33.968   8.765  0.0202 -0.1911 -0.0047
56557DAPE   D4B89240  21.883  33.676   8.434 -0.3591 -0.3532 -0.0694
56557DAPE   C5B89241  21.956  33.775   7.998 -0.3131  0.1026 -0.3896
56558PAPS   CNO89242  27.309   5.531   4.126  0.1057 -0.2445 -0.4067
56558PAPS   PO489243  26.976   5.375   4.305 -0.1388 -0.2585 -0.3132
56558PAPS   GL189244  26.707   5.420   4.680  0.2780 -0.0303  0.2191
56558PAPS   GL289245  26.759   5.694   4.839 -0.0500  0.1365  0.0510
56558PAPS   D1A89246  26.308   5.666   4.843  0.0820 -0.2816 -0.0749
56558PAPS   D2A89247  26.504   5.491   5.218  0.0161 -0.0242  0.0862
56558PAPS   D3A89248  26.842   5.278   5.141  0.3702 -0.0952 -0.1356
56558PAPS   D4A89249  27.177   5.502   5.189  0.1458 -0.0404 -0.1677
56558PAPS   C5A89250  27.257   5.814   5.533  0.0187 -0.0863 -0.1262
56558PAPS   C1B89251  27.002   5.972   5.119 -0.1318 -0.2352 -0.2130
56558PAPS   C2B89252  26.820   6.385   5.292 -0.3075 -0.2244  0.1607
56558PAPS   C3B89253  26.647   6.565   5.741  0.0904 -0.2224 -0.2492
56558PAPS   C4B89254  26.838   6.406   6.079  0.1477 -0.1895  0.0066
56559PAPS   CNO89255  20.339  15.100   6.234 -0.4402  0.0776  0.0872
56559PAPS   PO489256  20.344  14.956   6.650  0.1863  0.2319  0.1921
56559PAPS   GL189257  20.612  14.895   7.021  0.3138  0.0137 -0.1299
56559PAPS   GL289258  20.896  15.060   6.928 -0.0637 -0.1485  0.0289
56559PAPS   D1A89259  20.898  14.570   7.177 -0.1182  0.0051 -0.1270
56559PAPS   D2A89260  20.916  14.403   7.530  0.0066 -0.2187  0.0946
56559PAPS   D3A89261  21.334  14.247   7.494  0.1585 -0.0403  0.2248
56559PAPS   D4A89262  21.358  13.799   7.675  0.1555  0.0110  0.0661
56559PAPS   C5A89263  21.455  13.485   7.895 -0.1188 -0.2070 -0.0385
56559PAPS   C1B89264  21.285  14.935   7.010 -0.1136 -0.2545 -0.0371
56559PAPS   C2B89265  21.536  14.619   7.118  0.0983  0.0051  0.2505
56559PAPS   C3B89266  21.886  14.432   7.383 -0.1478 -0.1275  0.1396
56559PAPS   C4B89267  22.255  14.174   7.550  0.2039 -0.2028  0.1273
56560PAPS   CNO89268   0.772  18.447   1.764  0.2603 -0.3114 -0.1551
56560PAPS   PO489269   0.363  18.363   1.695  0.3701 -0.0644 -0.1233
56560PAPS   GL189270   0.040  18.091   1.807  0.0600 -0.1893  0.0197
56560PAPS   GL289271  35.338  17.972   2.038  0.0103 -0.2211  0.1473
56560PAPS   D1A89272  34.892  18.169   1.851  0.2579  0.1457 -0.4710
56560PAPS   D2A89273  34.491  18.415   2.037  0.0822  0.1741  0.1360
56560PAPS   D3A89274  34.479  18.714   1.806 -0.0506  0.0891  0.0066
56560PAPS   D4A89275  34.416  19.062   2.068  0.3907  0.0105 -0.1013
56560PAPS   C5A89276  34.655  19.507   2.006 -0.1360  0.1072  0.1250
56560PAPS   C1B89277  35.359  17.906   2.483 -0.2406  0.2100  0.1669
56560PAPS   C2B89278  35.291  17.869   2.959 -0.0074  0.1161 -0.1475
56560PAPS   C3B89279  34.968  17.841   3.265  0.2205 -0.1371 -0.2183
56560PAPS   C4B89280  34.568  17.995   3.449  0.3222 -0.2545 -0.0879
56561PAPS   CNO89281   5.612  31.392  14.336 -0.0184 -0.1040 -0.0986
56561PAPS   PO489282   6.050  31.675  14.353  0.0551  0.0626  0.1367
56561PAPS   GL189283   6.129  31.792  14.769 -0.1120  0.1157  0.2428
56561PAPS   GL289284   6.165  31.664  15.108 -0.2956  0.2242  0.1541
56561PAPS   D1A89285   6.000  32.125  14.989 -0.1276 -0.4581  0.0572
56561PAPS   D2A89286   5.548  32.168  15.089  0.3194 -0.1699  0.0491
56561PAPS   D3A89287   5.497  31.844  14.774 -0.0638 -0.0143  0.0105
56561PAPS   D4A89288   5.351  31.420  14.798 -0.1862  0.1459 -0.0350
56561PAPS   C5A89289   5.458  31.235  15.033 -0.0588 -0.2473 -0.1311
56561PAPS   C1B89290   5.777  31.566  15.147  0.1805  0.4756 -0.3080
56561PAPS   C2B89291   5.412  31.710  15.279  0.1248  0.0515 -0.0975
56561PAPS   C3B89292   5.401  32.000  15.556  0.4576 -0.0898  0.1648
56561PAPS   C4B89293   5.181  32.204  15.799  0.2197  0.0499 -0.1861
56562PAPS   CNO89294   9.166  19.886  15.679  0.0687  0.0427  0.0782
56562PAPS   PO489295   9.285  19.512  15.284  0.3389 -0.1225  0.2979
56562PAPS   GL189296   9.006  19.320  15.561 -0.1077 -0.4086  0.0095
56562PAPS   GL289297   8.679  19.239  15.491  0.2083  0.0571  0.0954
56562PAPS   D1A89298   8.723  19.425  16.042 -0.1347 -0.1275  0.0417
56562PAPS   D2A89299   8.430  19.656  15.786 -0.1148 -0.2795  0.1979
56562PAPS   D3A89300   8.071  19.505  15.830 -0.1831  0.2369 -0.0999
56562PAPS   D4A89301   8.168  19.305  16.225  0.0524  0.0324 -0.3309
56562PAPS   C5A89302   8.455  18.961  16.352 -0.1122 -0.1047 -0.0415
56562PAPS   C1B89303   8.363  19.060  15.769  0.0257  0.2879 -0.2573
56562PAPS   C2B89304   8.297  18.627  16.032  0.2950 -0.0939 -0.2294
56562PAPS   C3B89305   7.873  18.399  16.098  0.1325  0.2918 -0.0022
56562PAPS   C4B89306   7.664  18.301  16.395  0.1420  0.1207 -0.2223
56563PAPS   CNO89307  20.591  20.045   8.371 -0.1484 -0.2730  0.0392
56563PAPS   PO489308  20.622  20.457   8.166 -0.2819 -0.1190 -0.1678
56563PAPS   GL189309  21.032  20.561   8.334 -0.4097 -0.2542 -0.2607
56563PAPS   GL289310  20.991  20.748   8.418  0.1119  0.1637 -0.1699
56563PAPS   D1A89311  21.262  20.384   8.581 -0.2084  0.1455 -0.0039
56563PAPS   D2A89312  21.620  20.538   8.687 -0.1917  0.1878  0.4415
56563PAPS   D3A89313  21.790  20.380   8.962 -0.0624  0.0520  0.0337
56563PAPS   D4A89314  22.017  19.980   9.276 -0.1245 -0.2706 -0.0867
56563PAPS   C5A89315  22.129  19.632   9.148 -0.0723 -0.2422  0.1827
56563PAPS   C1B89316  21.383  20.856   8.248 -0.0881  0.0711 -0.3404
56563PAPS   C2B89317  21.800  20.642   8.208 -0.1818  0.0376 -0.0891
56563PAPS   C3B89318  22.151  20.768   7.938 -0.1309 -0.2010 -0.1750
56563PAPS   C4B89319  22.443  20.827   7.704 -0.0394  0.1116 -0.0610
56564DAPS   CNO89320  21.602  10.557   5.802 -0.0863  0.0765 -0.3876
56564DAPS   PO489321  21.450  10.975   5.732  0.0608  0.0675  0.0625
56564DAPS   GL189322  21.906  11.042   5.917  0.0016 -0.2940 -0.0915
56564DAPS   GL289323  21.875  11.290   6.064 -0.1298 -0.2816  0.0252
56564DAPS   D1A89324  22.400  10.916   6.073 -0.1560  0.0533 -0.0312
56564DAPS   D2A89325  22.490  10.534   6.172 -0.0656  0.0376  0.0451
56564DAPS   D3A89326  22.869  10.666   5.993 -0.1402  0.0301 -0.2477
56564DAPS   D4A89327  23.283  10.666   6.239 -0.2119  0.3620 -0.0921
56564DAPS   C5A89328  23.280  10.939   6.490  0.1823  0.2225 -0.0274
56564DAPS   D1B89329  21.812  11.620   6.504  0.0497  0.1551  0.0596
56564DAPS   D2B89330  22.303  11.670   6.625 -0.0253  0.0324  0.2007
56564DAPS   D3B89331  22.683  11.332   6.745  0.1854 -0.1842  0.2415
56564DAPS   D4B89332  23.022  11.367   6.955  0.0881 -0.0503 -0.1318
56564DAPS   C5B89333  23.197  11.385   7.418  0.4188 -0.0297 -0.0136
56565DAPS   CNO89334  21.983  20.950   5.911 -0.0607  0.1749 -0.3643
56565DAPS   PO489335  21.738  20.622   5.788  0.0838  0.1366 -0.0824
56565DAPS   GL189336  22.067  20.389   5.738  0.2392  0.4532  0.0454
56565DAPS   GL289337  21.954  20.099   5.657 -0.0678 -0.0727 -0.1019
56565DAPS   D1A89338  22.449  20.311   5.543  0.1217 -0.0293  0.2404
56565DAPS   D2A89339  22.692  20.265   5.809  0.0727  0.0874 -0.2795
56565DAPS   D3A89340  22.460  20.375   6.115  0.0967  0.2794  0.3842
56565DAPS   D4A89341  22.661  20.133   6.329  0.1330  0.1400 -0.2188
56565DAPS   C5A89342  22.488  20.101   6.713  0.1608  0.2567  0.1536
56565DAPS   D1B89343  21.702  19.695   5.447 -0.0893  0.3884  0.0629
56565DAPS   D2B89344  21.700  19.806   5.125  0.0484 -0.2168 -0.1627
56565DAPS   D3B89345  21.841  19.412   4.991  0.0249  0.1397  0.2525
56565DAPS   D4B89346  22.163  19.512   5.189  0.3500  0.0605 -0.3148
56565DAPS   C5B89347  22.584  19.514   5.036 -0.1566 -0.0376 -0.0285
56566DAPS   CNO89348  33.798  31.993   7.721 -0.0301  0.0685 -0.0817
56566DAPS   PO489349  34.136  31.903   8.037  0.1280  0.0633  0.1183
56566DAPS   GL189350  34.069  32.197   8.418 -0.0679 -0.0638 -0.0585
56566DAPS   GL289351  33.948  32.494   8.405 -0.0752 -0.1107  0.0059
56566DAPS   D1A89352  33.902  32.096   8.870 -0.1970  0.1337  0.1903
56566DAPS   D2A89353  33.984  31.780   9.017  0.0009 -0.0234 -0.0017
56566DAPS   D3A89354  33.929  31.715   9.458 -0.1842 -0.0438 -0.3042
56566DAPS   D4A89355  33.710  31.368   9.505  0.0340 -0.1580  0.1541
56566DAPS   C5A89356  33.907  30.951   9.551 -0.1003  0.1465  0.2045
56566DAPS   D1B89357  34.070  32.559   8.786  0.2504 -0.0741 -0.1746
56566DAPS   D2B89358  34.312  32.330   9.145  0.0218 -0.2608  0.1752
56566DAPS   D3B89359  34.327  31.980   9.314 -0.1278 -0.0727 -0.2167
56566DAPS   D4B89360  34.274  31.964   9.744  0.2466  0.2391 -0.2128
56566DAPS   C5B89361  34.199  32.187  10.178  0.1425  0.2036  0.0522
56567DAPS   CNO89362  29.546  33.344   5.869 -0.1772 -0.2896  0.0892
56567DAPS   PO489363  29.631  32.961   5.678  0.2127 -0.0895  0.0353
56567DAPS   GL189364  29.514  32.877   6.101  0.0798 -0.2239 -0.4853
56567DAPS   GL289365  29.856  32.987   6.202 -0.1443  0.1415  0.0352
56567DAPS   D1A89366  29.173  32.824   6.325  0.0588  0.2867 -0.3567
56567DAPS   D2A89367  29.354  32.750   6.762  0.1861  0.2126 -0.1608
56567DAPS   D3A89368  29.116  33.098   6.907 -0.2597  0.0305  0.2200
56567DAPS   D4A89369  28.850  32.934   7.195 -0.2958  0.0300  0.0192
56567DAPS   C5A89370  28.900  32.838   7.539 -0.1750  0.2279 -0.2626
56567DAPS   D1B89371  29.773  32.899   6.536 -0.0106  0.1535 -0.1823
56567DAPS   D2B89372  30.158  32.714   6.467  0.2136 -0.4190  0.0301
56567DAPS   D3B89373  30.491  32.578   6.562 -0.1672 -0.0444 -0.0216
56567DAPS   D4B89374  30.332  32.269   6.854  0.2969  0.0789  0.2054
56567DAPS   C5B89375  30.322  32.336   7.307 -0.2269 -0.5927 -0.0045
56568PRPS   CNO89376  33.772  25.396   1.813 -0.0049  0.0101  0.0549
56568PRPS   PO489377  33.485  25.559   2.217 -0.1316 -0.0428  0.1705
56568PRPS   GL189378  33.089  25.212   2.404 -0.2125  0.5407  0.2072
56568PRPS   GL289379  33.221  24.844   2.401  0.1840  0.0524  0.1298
56568PRPS   D1A89380  32.938  25.161   2.788  0.1214  0.1137 -0.3189
56568PRPS   D2A89381  33.221  25.510   2.752 -0.1792  0.1309  0.1466
56568PRPS   D3A89382  33.570  25.220   2.625  0.0125 -0.2349  0.2355
56568PRPS   D4A89383  33.936  24.987   2.574 -0.2045  0.0569  0.0502
56568PRPS   D5A89384  34.397  25.054   2.423 -0.1387  0.2642 -0.2270
56568PRPS   D6A89385  34.133  25.363   2.760 -0.0751  0.1362  0.1690
56568PRPS   C1B89386  32.711  24.824   2.373  0.0910 -0.3042  0.0840
56568PRPS   C2B89387  32.358  24.499   2.335 -0.1639  0.2892 -0.0307
56568PRPS   C3B89388  32.223  24.335   2.691  0.0658 -0.0221 -0.2660
56568PRPS   C4B89389  32.256  24.112   3.069 -0.3562 -0.0557 -0.0761
56569PRPS   CNO89390  16.305   0.688  10.849  0.1376 -0.2449 -0.0551
56569PRPS   PO489391  16.462   0.384  10.626 -0.2005 -0.1543  0.0210
56569PRPS   GL189392  16.491   0.144  10.978 -0.3130  0.1189  0.0714
56569PRPS   GL289393  16.510  35.259  11.151 -0.0472 -0.1176 -0.1905
56569PRPS   D1A89394  16.355   0.303  11.315 -0.1369 -0.0525  0.0512
56569PRPS   D2A89395  16.866   0.343  11.264 -0.1167 -0.4439 -0.0803
56569PRPS   D3A89396  16.777   0.768  11.246  0.2996  0.0364 -0.0036
56569PRPS   D4A89397  16.755   1.067  11.594 -0.2531 -0.2948 -0.1785
56569PRPS   D5A89398  16.647   0.611  11.659 -0.0084 -0.1018 -0.1290
56569PRPS   D6A89399  16.308   0.757  11.453  0.0157  0.0294  0.0275
56569PRPS   C1B89400  17.005  35.240  11.295  0.3654 -0.1626  0.1786
56569PRPS   C2B89401  17.392  35.166  11.530 -0.0046  0.2008 -0.1418
56569PRPS   C3B89402  17.549  34.940  11.776 -0.0250 -0.2728 -0.2643
56569PRPS   C4B89403  17.368  34.575  11.848 -0.0779  0.0877  0.0888
56570PRPS   CNO89404  28.352  10.748   0.319  0.0108  0.0681 -0.0712
56570PRPS   PO489405  28.133  10.713   0.782  0.1509 -0.5710 -0.1923
56570PRPS   GL189406  28.335  10.648   1.081 -0.4162 -0.0796  0.3232
56570PRPS   GL289407  28.450  10.860   1.307 -0.1641  0.2356 -0.3413
56570PRPS   D1A89408  28.311  10.432   1.460 -0.4166 -0.0249  0.1018
56570PRPS   D2A89409  28.216  10.127   1.413  0.0310 -0.0846  0.1740
56570PRPS   D3A89410  28.042  10.068   1.801 -0.1002 -0.0122  0.1568
56570PRPS   D4A89411  27.628  10.211   1.693  0.1354 -0.1245 -0.0349
56570PRPS   D5A89412  27.990  10.548   1.883 -0.2119 -0.0467 -0.2380
56570PRPS   D6A89413  27.925  10.688   1.500 -0.0037  0.2033  0.1450
56570PRPS   C1B89414  28.371  10.868   1.715 -0.0248 -0.0389 -0.0658
56570PRPS   C2B89415  28.547  10.800   2.094  0.1157  0.1060  0.1573
56570PRPS   C3B89416  28.427  10.872   2.534  0.1485 -0.0434 -0.1755
56570PRPS   C4B89417  28.100  11.183   2.722 -0.2176 -0.1367  0.0349
56571PRPS   CNO89418  13.899  34.697  12.287  0.0628 -0.1942  0.1043
56571PRPS   PO489419  14.200  34.876  12.584  0.2398 -0.0747  0.2639
56571PRPS   GL189420  14.178  35.053  12.942  0.0628 -0.1079 -0.1787
56571PRPS   GL289421  14.337  35.257  13.065 -0.0269  0.0214 -0.0601
56571PRPS   D1A89422  14.004  35.139  13.405 -0.1763  0.2249 -0.0440
56571PRPS   D2A89423  13.574  35.230  13.601 -0.3404 -0.0380  0.2961
56571PRPS   D3A89424  13.854  35.072  13.894  0.0690 -0.1176 -0.0389
56571PRPS   D4A89425  14.158  35.322  13.838 -0.2536  0.0962  0.0201
56571PRPS   D5A89426  13.915   0.248  13.824  0.3426  0.2301 -0.2313
56571PRPS   D6A89427  14.171   0.287  14.248 -0.0473 -0.1023 -0.3743
56571PRPS   C1B89428  14.513  35.236  13.479 -0.2053  0.0541  0.1034
56571PRPS   C2B89429  14.758  35.217  13.833  0.1045 -0.3553 -0.0985
56571PRPS   C3B89430  14.961  35.355  14.199 -0.1239  0.1355 -0.1238
56571PRPS   C4B89431  14.887   0.206  14.514  0.1699 -0.0626 -0.1998
56572PRPS   CNO89432  21.723  19.413   4.166 -0.0026 -0.1512 -0.1905
56572PRPS   PO489433  21.453  19.026   4.011  0.1599 -0.0237  0.0187
56572PRPS   GL189434  21.914  18.950   4.088 -0.1224 -0.1741 -0.4370
56572PRPS   GL289435  22.027  18.676   4.180 -0.1647 -0.0694 -0.1540
56572PRPS   D1A89436  22.269  19.142   4.271  0.0567  0.1537  0.2396
56572PRPS   D2A89437  22.053  19.437   4.531 -0.0126  0.0484 -0.0130
56572PRPS   D3A89438  22.442  19.622   4.525  0.0623 -0.0434 -0.3464
56572PRPS   D4A89439  22.338  19.904   4.160  0.1474 -0.1801 -0.1999
56572PRPS   D5A89440  22.574  20.035   3.831  0.2105  0.2782  0.1427
56572PRPS   D6A89441  22.252  19.879   3.518  0.0500 -0.3734 -0.0279
56572PRPS   C1B89442  22.403  18.744   4.513  0.2563  0.0006  0.0497
56572PRPS   C2B89443  22.785  18.644   4.797  0.3539  0.2895 -0.1413
56572PRPS   C3B89444  22.949  18.321   5.061  0.0905  0.1337 -0.3901
56572PRPS   C4B89445  23.314  18.035   5.077 -0.0701 -0.0617  0.2617
56573PRPS   CNO89446  12.292  11.967  14.273  0.1184 -0.0585  0.2802
56573PRPS   PO489447  11.991  12.318  14.003 -0.1510  0.1153 -0.4911
56573PRPS   GL189448  11.763  12.244  14.401  0.2100  0.0910  0.1375
56573PRPS   GL289449  11.931  12.076  14.609 -0.0725 -0.0813 -0.0075
56573PRPS   D1A89450  11.250  12.300  14.701 -0.0417 -0.0095  0.0778
56573PRPS   D2A89451  10.855  12.560  14.594 -0.0041  0.3264  0.0224
56573PRPS   D3A89452  10.773  12.711  14.961 -0.1859  0.2530 -0.0272
56573PRPS   D4A89453  10.320  12.742  15.171  0.0551  0.2435 -0.2408
56573PRPS   D5A89454  10.492  12.654  15.438 -0.1075 -0.1791  0.2476
56573PRPS   D6A89455  10.641  12.799  15.896 -0.3446 -0.1993  0.2574
56573PRPS   C1B89456  11.822  12.146  15.049  0.0719  0.1670 -0.0145
56573PRPS   C2B89457  11.891  12.201  15.453 -0.0808  0.2682 -0.3297
56573PRPS   C3B89458  11.672  12.211  15.710  0.0562  0.2774  0.3163
56573PRPS   C4B89459  11.627  12.177  16.151  0.0264 -0.0615 -0.1416
56574PRPS   CNO89460  14.274   6.094  13.775 -0.2136 -0.2660 -0.0867
56574PRPS   PO489461  14.407   5.997  13.332 -0.0398  0.0238  0.3578
56574PRPS   GL189462  14.499   5.688  13.603  0.0230  0.2743 -0.0678
56574PRPS   GL289463  14.766   5.885  13.772 -0.1122  0.0522  0.0449
56574PRPS   D1A89464  14.725   5.363  13.453  0.0214 -0.0679 -0.0843
56574PRPS   D2A89465  15.245   5.441  13.446  0.2178  0.1413 -0.2727
56574PRPS   D3A89466  15.433   5.378  13.802 -0.2002 -0.0474 -0.0498
56574PRPS   D4A89467  15.632   5.795  13.632 -0.3369 -0.0395  0.0010
56574PRPS   D5A89468  15.834   5.651  13.993  0.1729 -0.2132  0.0076
56574PRPS   D6A89469  16.231   5.692  14.055  0.0827 -0.0945  0.2342
56574PRPS   C1B89470  15.120   5.760  13.942  0.0467  0.1224 -0.2066
56574PRPS   C2B89471  15.414   5.626  14.285 -0.3922 -0.2213  0.2002
56574PRPS   C3B89472  15.753   5.535  14.535 -0.2252 -0.2223 -0.0966
56574PRPS   C4B89473  15.995   5.575  14.969 -0.2235 -0.1088  0.0048
56575PRPS   CNO89474  13.849  15.355  13.599 -0.3456  0.0323 -0.2236
56575PRPS   PO489475  14.253  15.178  13.874  0.1386 -0.5460 -0.0127
56575PRPS   GL189476  14.227  15.144  14.262  0.1970  0.4004  0.2466
56575PRPS   GL289477  14.344  14.924  14.455 -0.3064  0.1860  0.0123
56575PRPS   D1A89478  13.998  15.272  14.568 -0.0959 -0.3010 -0.1852
56575PRPS   D2A89479  14.338  15.549  14.453  0.0839 -0.0296  0.0070
56575PRPS   D3A89480  14.179  15.949  14.522 -0.1907 -0.0154 -0.1177
56575PRPS   D4A89481  13.839  15.679  14.466  0.2854  0.0259  0.1277
56575PRPS   D5A89482  13.805  15.649  14.796  0.2940 -0.4620 -0.1569
56575PRPS   D6A89483  13.750  16.114  14.792  0.0663  0.1134  0.4346
56575PRPS   C1B89484  14.173  14.888  14.917 -0.3262 -0.1568 -0.0179
56575PRPS   C2B89485  14.137  14.937  15.317  0.3305  0.2289  0.1200
56575PRPS   C3B89486  14.205  14.965  15.777 -0.0036  0.0430 -0.1812
56575PRPS   C4B89487  14.360  15.138  16.217 -0.2006  0.1105 -0.0028
56576PRPS   CNO89488  26.359  24.720   0.998 -0.4949  0.1671  0.1241
56576PRPS   PO489489  26.335  24.852   1.403 -0.3149  0.4946 -0.3448
56576PRPS   GL189490  26.261  24.656   1.799 -0.2296  0.1237  0.1282
56576PRPS   GL289491  26.196  24.843   1.963  0.0020  0.2628  0.0061
56576PRPS   D1A89492  26.317  24.189   1.868 -0.0181 -0.1651 -0.0184
56576PRPS   D2A89493  26.706  23.958   1.635 -0.2325 -0.0877 -0.0782
56576PRPS   D3A89494  27.196  24.023   1.587  0.3030 -0.0605 -0.3115
56576PRPS   D4A89495  27.230  24.365   1.417 -0.0033 -0.0677 -0.1425
56576PRPS   D5A89496  27.279  24.393   1.918 -0.2285 -0.0810  0.3078
56576PRPS   D6A89497  27.582  24.004   1.894  0.1982 -0.1406 -0.0925
56576PRPS   C1B89498  26.212  24.499   2.263 -0.2734 -0.3161 -0.0678
56576PRPS   C2B89499  26.445  24.200   2.491  0.1457 -0.0284  0.2697
56576PRPS   C3B89500  26.732  24.002   2.794  0.0662 -0.1563  0.3073
56576PRPS   C4B89501  26.882  23.621   3.121 -0.0085  0.0758  0.1027
56577PRPS   CNO89502   0.011  15.149   1.287  0.3427  0.0387 -0.0224
56577PRPS   PO489503  35.196  15.484   1.458 -0.2695 -0.0390  0.2942
56577PRPS   GL189504  34.906  15.302   1.833 -0.0443 -0.0176 -0.0459
56577PRPS   GL289505  34.555  15.467   1.782  0.0885  0.0128 -0.0290
56577PRPS   D1A89506  34.793  15.110   2.266 -0.0963 -0.2176  0.0951
56577PRPS   D2A89507  35.246  15.130   2.122  0.0067  0.2308  0.0953
56577PRPS   D3A89508   0.026  15.514   2.204  0.3133 -0.0348  0.0482
56577PRPS   D4A89509   0.012  15.335   2.640  0.1070 -0.0149  0.0308
56577PRPS   D5A89510  35.301  15.721   2.821  0.0609 -0.2248  0.1373
56577PRPS   D6A89511  34.981  15.609   2.997  0.1094 -0.2655 -0.0799
56577PRPS   C1B89512  34.487  15.461   2.154 -0.2344  0.2580  0.2269
56577PRPS   C2B89513  34.427  15.391   2.647  0.1632  0.1481  0.3323
56577PRPS   C3B89514  34.351  15.391   3.074  0.3341  0.2039  0.2322
56577PRPS   C4B89515  34.339  15.265   3.541  0.1128 -0.0333 -0.1574
56578PRPS   CNO89516  27.834  16.119  26.168  0.0361  0.1719 -0.0873
56578PRPS   PO489517  27.596  15.879   0.296 -0.1773 -0.3744  0.2097
56578PRPS   GL189518  27.996  15.977   0.414 -0.0298  0.0388 -0.1859
56578PRPS   GL289519  27.863  16.059   0.770 -0.0710  0.0130 -0.0149
56578PRPS   D1A89520  28.453  16.011   0.464 -0.2657  0.0786  0.1573
56578PRPS   D2A89521  28.305  16.230   0.756  0.1869  0.4649  0.2431
56578PRPS   D3A89522  28.412  16.701   0.538  0.4360  0.2355 -0.2097
56578PRPS   D4A89523  28.612  17.077   0.647  0.1183  0.0333 -0.1670
56578PRPS   D5A89524  28.130  17.188   0.635 -0.1885  0.1993 -0.0098
56578PRPS   D6A89525  27.988  17.594   0.452  0.3385 -0.0778  0.0885
56578PRPS   C1B89526  27.991  16.229   1.223 -0.0367  0.1319  0.1891
56578PRPS   C2B89527  28.034  16.583   1.504  0.0281  0.0643  0.1184
56578PRPS   C3B89528  28.166  16.729   2.017  0.0530  0.1887  0.4168
56578PRPS   C4B89529  28.454  16.754   2.332 -0.0071 -0.1646  0.0974
56579PRPS   CNO89530  34.624  22.133   1.337  0.0457  0.1079  0.0239
56579PRPS   PO489531  34.677  21.571   1.414  0.2965 -0.0618  0.0384
56579PRPS   GL189532  34.606  21.667   1.812 -0.2495 -0.0346 -0.2071
56579PRPS   GL289533  34.898  21.753   1.883  0.3100 -0.0759  0.2273
56579PRPS   D1A89534  34.184  21.748   1.979 -0.3646  0.1212  0.0240
56579PRPS   D2A89535  34.389  21.756   2.317 -0.4752  0.1112 -0.0158
56579PRPS   D3A89536  34.354  21.258   2.379  0.2059  0.0115  0.3412
56579PRPS   D4A89537  34.579  21.149   2.093 -0.1222 -0.1073 -0.0485
56579PRPS   D5A89538  34.730  20.815   1.968 -0.2171 -0.1318 -0.2300
56579PRPS   D6A89539  34.704  21.063   1.652  0.0043  0.1996 -0.1737
56579PRPS   C1B89540  34.814  21.577   2.209 -0.0904  0.1437 -0.1375
56579PRPS   C2B89541  35.004  21.654   2.715 -0.0011  0.4703  0.2597
56579PRPS   C3B89542  34.899  21.365   3.117 -0.2259 -0.0651  0.0766
56579PRPS   C4B89543  34.577  21.188   3.331 -0.1220  0.0684  0.1415
56580PRPS   CNO89544  24.027  23.009   2.117  0.1367 -0.0921 -0.1824
56580PRPS   PO489545  24.121  22.652   2.415 -0.1731  0.0417 -0.1260
56580PRPS   GL189546  24.596  22.456   2.388 -0.2218 -0.0323 -0.0122
56580PRPS   GL289547  24.950  22.701   2.376  0.1530 -0.4335 -0.0435
56580PRPS   D1A89548  24.937  22.369   1.992  0.0399  0.2104  0.1630
56580PRPS   D2A89549  25.102  22.020   2.057 -0.0335 -0.0759  0.1377
56580PRPS   D3A89550  25.253  22.138   1.700 -0.0713  0.0517 -0.4653
56580PRPS   D4A89551  25.701  22.219   1.462  0.1154 -0.1676  0.0856
56580PRPS   D5A89552  25.702  22.701   1.390 -0.0112 -0.3689  0.3723
56580PRPS   D6A89553  25.732  22.680   1.762 -0.0614 -0.1235  0.0468
56580PRPS   C1B89554  25.232  22.706   2.704 -0.1649 -0.0847  0.1544
56580PRPS   C2B89555  25.572  22.462   3.015  0.2580 -0.0156 -0.0529
56580PRPS   C3B89556  25.938  22.408   3.150 -0.4069  0.1489 -0.0587
56580PRPS   C4B89557  26.406  22.383   3.235  0.2924 -0.0673  0.4846
56581PRPS   CNO89558  27.757  15.271   0.243  0.1057  0.2394  0.0589
56581PRPS   PO489559  27.553  14.900   0.101 -0.2296  0.1422 -0.1296
56581PRPS   GL189560  27.647  14.764   0.452 -0.0353 -0.0526 -0.2986
56581PRPS   GL289561  27.665  14.944   0.708 -0.2053  0.1339 -0.1276
56581PRPS   D1A89562  27.573  14.441   0.781  0.2547 -0.1393 -0.0385
56581PRPS   D2A89563  27.117  14.730   0.961  0.0245 -0.3483 -0.3434
56581PRPS   D3A89564  27.044  14.510   1.374 -0.2712 -0.0074 -0.2629
56581PRPS   D4A89565  27.408  14.327   1.290 -0.1992 -0.3780  0.0976
56581PRPS   D5A89566  27.582  14.354   1.693  0.3306  0.1455 -0.0121
56581PRPS   D6A89567  28.013  14.580   1.787  0.0577 -0.1581  0.0072
56581PRPS   C1B89568  27.563  14.834   1.124  0.0374  0.0180 -0.1214
56581PRPS   C2B89569  27.617  14.876   1.577 -0.0708 -0.0638  0.0777
56581PRPS   C3B89570  27.657  15.041   2.015 -0.0970 -0.1469  0.0480
56581PRPS   C4B89571  27.598  14.926   2.442 -0.0533  0.0767  0.0931
56582PRPS   CNO89572  33.899  16.068   0.972  0.2034  0.2287 -0.0367
56582PRPS   PO489573  33.557  16.222   1.236 -0.2195 -0.0535 -0.4105
56582PRPS   GL189574  33.877  16.183   1.479  0.0407 -0.1111 -0.2657
56582PRPS   GL289575  33.892  16.463   1.502  0.2967  0.1173 -0.3040
56582PRPS   D1A89576  34.060  16.266   1.913  0.0573 -0.6068  0.1357
56582PRPS   D2A89577  34.401  15.966   1.829  0.1839  0.0973 -0.0544
56582PRPS   D3A89578  34.669  15.886   2.282 -0.0300 -0.2310  0.1192
56582PRPS   D4A89579  34.953  15.540   2.463 -0.0684 -0.3448  0.3828
56582PRPS   D5A89580  35.180  15.997   2.328  0.2973  0.0035 -0.2838
56582PRPS   D6A89581  35.043  16.183   2.719  0.3760  0.4298 -0.2187
56582PRPS   C1B89582  33.637  16.484   1.915  0.0416 -0.1747  0.2332
56582PRPS   C2B89583  33.444  16.506   2.313  0.3051  0.0520 -0.0021
56582PRPS   C3B89584  33.293  16.411   2.703  0.3027 -0.1478 -0.0839
56582PRPS   C4B89585  33.039  16.468   3.025  0.0381  0.0516 -0.2017
56583PRPS   CNO89586   1.954   7.384   7.177  0.4153 -0.2601  0.1043
56583PRPS   PO489587   1.756   7.662   6.843  0.2908  0.1872 -0.3197
56583PRPS   GL189588   1.237   7.725   6.867 -0.1524  0.1793  0.0127
56583PRPS   GL289589   1.023   7.978   6.944 -0.0562  0.3765  0.0862
56583PRPS   D1A89590   0.984   7.618   7.277 -0.2061  0.0032 -0.0987
56583PRPS   D2A89591   1.045   7.210   7.251  0.0676 -0.0944  0.0983
56583PRPS   D3A89592   1.337   7.213   7.055 -0.0940  0.4276  0.0474
56583PRPS   D4A89593   1.515   7.509   7.335  0.3367 -0.4261 -0.1628
56583PRPS   D5A89594   1.352   7.925   7.424  0.0569 -0.0317  0.0774
56583PRPS   D6A89595   1.153   7.865   7.790  0.0120  0.1056  0.2805
56583PRPS   C1B89596   0.882   8.118   7.390  0.0697  0.1288  0.0809
56583PRPS   C2B89597   0.750   8.287   7.662 -0.1503  0.0321 -0.5769
56583PRPS   C3B89598   0.619   8.317   8.116 -0.1972  0.0169 -0.2571
56583PRPS   C4B89599   0.511   8.114   8.454 -0.1709  0.1168 -0.0127
56584PRPS   CNO89600   6.937   7.372  13.100 -0.1574 -0.1774 -0.0241
56584PRPS   PO489601   6.811   7.162  13.390  0.0854 -0.2169 -0.1608
56584PRPS   GL189602   6.457   6.820  13.595 -0.4428 -0.1970 -0.2003
56584PRPS   GL289603   6.458   7.083  13.743  0.0033 -0.1936  0.0077
56584PRPS   D1A89604   6.228   6.364  13.496  0.0941  0.0838 -0.2114
56584PRPS   D2A89605   5.881   6.111  13.525 -0.1643 -0.2068  0.1474
56584PRPS   D3A89606   6.148   5.817  13.604 -0.0272 -0.1252  0.4184
56584PRPS   D4A89607   6.012   5.466  13.820  0.0903  0.1755  0.0535
56584PRPS   D5A89608   6.419   5.404  13.731 -0.1278 -0.0798  0.0475
56584PRPS   D6A89609   6.248   4.970  13.825 -0.0961  0.0937  0.0101
56584PRPS   C1B89610   6.047   7.280  13.847 -0.2575 -0.1987 -0.1474
56584PRPS   C2B89611   5.685   7.392  13.775 -0.0791  0.2988  0.3483
56584PRPS   C3B89612   5.490   7.578  14.108  0.0592 -0.1819 -0.1453
56584PRPS   C4B89613   5.667   7.434  14.522  0.0887 -0.1722  0.1453
56585PRPS   CNO89614   2.773  17.139   2.939 -0.3063 -0.1251  0.0645
56585PRPS   PO489615   2.426  17.087   3.328 -0.0203 -0.2743  0.0976
56585PRPS   GL189616   2.128  17.433   3.503 -0.2750 -0.1319 -0.0255
56585PRPS   GL289617   2.046  17.625   3.711 -0.0666  0.0169  0.1105
56585PRPS   D1A89618   1.669  17.603   3.368  0.0719  0.2641 -0.4200
56585PRPS   D2A89619   1.581  17.965   3.407 -0.0504  0.1811 -0.2539
56585PRPS   D3A89620   1.442  18.158   3.693  0.1666 -0.1543 -0.0353
56585PRPS   D4A89621   1.798  18.434   3.751 -0.0638 -0.1038  0.3371
56585PRPS   D5A89622   2.125  18.244   3.934 -0.2490  0.3244 -0.2981
56585PRPS   D6A89623   2.391  18.609   4.079 -0.1414  0.0230  0.2803
56585PRPS   C1B89624   1.927  17.810   4.075 -0.0101  0.0909  0.3282
56585PRPS   C2B89625   1.693  17.924   4.308  0.1747 -0.2438  0.0490
56585PRPS   C3B89626   1.339  17.862   4.608  0.0382  0.1274 -0.1827
56585PRPS   C4B89627   1.112  17.737   4.979 -0.2668  0.2293 -0.1984
56586PRPS   CNO89628  13.203   2.115  12.094  0.1460 -0.0892 -0.2348
56586PRPS   PO489629  13.185   2.162  12.618  0.0498  0.1006 -0.0115
56586PRPS   GL189630  13.501   2.114  12.964 -0.1271 -0.2197 -0.1898
56586PRPS   GL289631  13.485   2.236  13.288  0.0712  0.3601 -0.0301
56586PRPS   D1A89632  13.702   1.786  13.291  0.0040 -0.0436 -0.0836
56586PRPS   D2A89633  13.272   1.735  13.528 -0.0902 -0.1575  0.0709
56586PRPS   D3A89634  13.384   1.838  14.016  0.2248 -0.2664  0.0548
56586PRPS   D4A89635  13.215   2.303  13.934  0.1869  0.1706  0.0128
56586PRPS   D5A89636  12.942   2.246  13.563  0.1182  0.1493 -0.0148
56586PRPS   D6A89637  12.566   2.219  13.808  0.1003 -0.1577 -0.1207
56586PRPS   C1B89638  13.640   2.137  13.761  0.0308  0.1606  0.3427
56586PRPS   C2B89639  13.657   2.241  14.234 -0.0564 -0.1267  0.0135
56586PRPS   C3B89640  13.649   2.587  14.577  0.1616  0.2063  0.1495
56586PRPS   C4B89641  13.904   2.823  14.832  0.1027 -0.1986 -0.0408
56587PRPS   CNO89642  24.265  11.410   3.033  0.1037  0.1462  0.1674
56587PRPS   PO489643  24.161  11.253   3.450  0.0375  0.1943  0.0888
56587PRPS   GL189644  24.286  11.108   3.816  0.1665  0.0135 -0.0042
56587PRPS   GL289645  24.047  10.897   4.033 -0.1485 -0.2072 -0.4420
56587PRPS   D1A89646  24.736  10.875   3.960  0.1583 -0.2072 -0.0606
56587PRPS   D2A89647  24.729  11.269   3.661  0.2422 -0.0811  0.1936
56587PRPS   D3A89648  25.038  11.437   3.441 -0.2137 -0.0532 -0.0512
56587PRPS   D4A89649  25.332  11.520   3.050  0.1990 -0.0328 -0.1562
56587PRPS   D5A89650  25.032  11.290   2.784 -0.3698  0.1882 -0.0812
56587PRPS   D6A89651  25.131  10.989   3.113 -0.2666  0.0253  0.1084
56587PRPS   C1B89652  24.395  10.827   4.261 -0.5858  0.1766  0.5474
56587PRPS   C2B89653  24.687  10.981   4.521  0.0683 -0.1023  0.0958
56587PRPS   C3B89654  25.014  10.950   4.564  0.1895  0.1721  0.1061
56587PRPS   C4B89655  25.301  11.154   4.416 -0.2114 -0.1135  0.2411
56588PRPS   CNO89656  22.102  12.683   4.398  0.4114  0.2403  0.0484
56588PRPS   PO489657  22.050  12.371   4.700 -0.1316  0.1684  0.0792
56588PRPS   GL189658  22.496  12.438   4.691 -0.0853 -0.0098 -0.0047
56588PRPS   GL289659  22.613  12.103   4.873 -0.1834  0.1592  0.1520
56588PRPS   D1A89660  22.931  12.609   4.632 -0.0028 -0.0738  0.1551
56588PRPS   D2A89661  23.081  12.809   4.178  0.0268 -0.1398 -0.0310
56588PRPS   D3A89662  23.130  13.209   4.142  0.1482  0.3687 -0.2120
56588PRPS   D4A89663  23.613  13.167   4.186 -0.0543  0.0883 -0.0896
56588PRPS   D5A89664  23.686  13.190   4.606 -0.0401 -0.1620 -0.3695
56588PRPS   D6A89665  24.157  13.137   4.684 -0.0057  0.2316 -0.1357
56588PRPS   C1B89666  22.546  12.330   5.272  0.0088  0.0628  0.1282
56588PRPS   C2B89667  22.376  12.303   5.645 -0.0560 -0.2177 -0.0687
56588PRPS   C3B89668  22.626  12.123   5.977  0.2719  0.2713 -0.0326
56588PRPS   C4B89669  23.068  12.198   6.172 -0.0685  0.0970 -0.3069
56589PRPS   CNO89670  28.147  18.824  26.251  0.0473  0.0634 -0.2271
56589PRPS   PO489671  28.173  18.462   0.018 -0.0559 -0.1801 -0.2028
56589PRPS   GL189672  28.027  18.307   0.414  0.0084 -0.3500 -0.1539
56589PRPS   GL289673  27.791  18.508   0.573  0.2142 -0.1847 -0.0578
56589PRPS   D1A89674  27.734  18.021   0.590 -0.0352  0.0518 -0.0828
56589PRPS   D2A89675  27.889  17.872   0.990 -0.2035  0.0506  0.0329
56589PRPS   D3A89676  28.259  17.923   0.737 -0.1183 -0.3344  0.0953
56589PRPS   D4A89677  28.486  17.802   1.074 -0.0857 -0.3626  0.0208
56589PRPS   D5A89678  28.638  17.397   1.101 -0.1350 -0.2746  0.2241
56589PRPS   D6A89679  28.757  17.706   1.504 -0.1874  0.3320  0.0242
56589PRPS   C1B89680  27.950  18.380   0.944 -0.0521  0.2267 -0.0581
56589PRPS   C2B89681  27.973  18.247   1.272 -0.0563 -0.0736  0.1904
56589PRPS   C3B89682  28.172  17.983   1.453 -0.1116 -0.2091 -0.1361
56589PRPS   C4B89683  28.212  17.597   1.522  0.0876  0.1702  0.0403
56590PRPS   CNO89684   6.318  12.196  10.441 -0.0447  0.1951  0.3035
56590PRPS   PO489685   6.365  12.568  10.711  0.0826 -0.0143 -0.1616
56590PRPS   GL189686   6.140  12.369  11.070  0.1076  0.0186 -0.0779
56590PRPS   GL289687   5.837  12.584  11.191  0.3297 -0.0389  0.0645
56590PRPS   D1A89688   5.927  12.069  11.292 -0.0305  0.1284  0.1775
56590PRPS   D2A89689   5.628  12.338  11.571 -0.1866  0.1948 -0.2567
56590PRPS   D3A89690   5.961  12.493  11.801  0.0135 -0.0753 -0.0690
56590PRPS   D4A89691   6.065  12.481  12.196  0.3043  0.0356 -0.1961
56590PRPS   D5A89692   5.948  12.043  12.255 -0.2551 -0.3193  0.0422
56590PRPS   D6A89693   5.858  11.997  11.846 -0.0697 -0.1938  0.0399
56590PRPS   C1B89694   5.388  12.497  11.200  0.3248 -0.0048  0.2072
56590PRPS   C2B89695   5.040  12.348  11.447 -0.1050 -0.0831  0.1220
56590PRPS   C3B89696   4.696  12.500  11.687  0.0758  0.0609 -0.3212
56590PRPS   C4B89697   4.539  12.581  12.042  0.0707  0.0747 -0.0167
56591PRPS   CNO89698  28.528   2.643   6.205 -0.0328  0.2543  0.2501
56591PRPS   PO489699  28.189   2.866   6.044 -0.0553 -0.3381  0.1942
56591PRPS   GL189700  28.255   3.065   6.399  0.2699  0.4944  0.0760
56591PRPS   GL289701  28.488   3.246   6.507  0.1806 -0.1962  0.1496
56591PRPS   D1A89702  28.347   2.874   6.785 -0.0176  0.1759  0.1054
56591PRPS   D2A89703  28.385   2.896   7.162 -0.1508 -0.2088 -0.0664
56591PRPS   D3A89704  28.344   2.616   7.470  0.0980  0.0590 -0.1688
56591PRPS   D4A89705  27.903   2.610   7.453  0.0981  0.0199  0.4124
56591PRPS   D5A89706  28.019   2.266   7.768  0.0602 -0.2106 -0.1255
56591PRPS   D6A89707  28.306   1.886   7.615  0.2721  0.0811  0.0961
56591PRPS   C1B89708  28.572   3.641   6.482  0.0277 -0.0744  0.1131
56591PRPS   C2B89709  28.697   4.102   6.446 -0.0868 -0.0686 -0.0537
56591PRPS   C3B89710  28.969   4.543   6.651 -0.2522 -0.0937  0.5447
56591PRPS   C4B89711  29.207   4.875   6.913 -0.1150  0.1287 -0.2342
56592PRPS   CNO89712  14.036  30.831  15.065  0.1988 -0.0416  0.0927
56592PRPS   PO489713  14.448  31.101  15.158 -0.0918  0.1301 -0.0918
56592PRPS   GL189714  14.826  31.068  15.352  0.0450  0.1166  0.0216
56592PRPS   GL289715  14.737  30.861  15.621 -0.0737  0.0508 -0.0990
56592PRPS   D1A89716  15.211  31.184  15.299 -0.0527  0.0794  0.0186
56592PRPS   D2A89717  15.575  31.133  15.444  0.1793  0.2023  0.3391
56592PRPS   D3A89718  15.760  30.767  15.593  0.1572  0.2327  0.1436
56592PRPS   D4A89719  15.326  30.652  15.425  0.0809 -0.0331 -0.0396
56592PRPS   D5A89720  15.226  30.557  15.818  0.1927  0.0140  0.1205
56592PRPS   D6A89721  15.440  30.442  16.181 -0.1077  0.1236  0.0904
56592PRPS   C1B89722  15.156  31.060  15.763  0.1623  0.2844 -0.0024
56592PRPS   C2B89723  15.413  31.388  16.019  0.0422  0.1531 -0.1838
56592PRPS   C3B89724  15.736  31.332  16.216  0.0536  0.2468 -0.1885
56592PRPS   C4B89725  16.078  31.114  16.283  0.1978  0.0203  0.1258
56593PRPS   CNO89726   0.425  32.345   9.063 -0.3332 -0.3319  0.1557
56593PRPS   PO489727  35.351  32.156   9.007 -0.0452 -0.2308 -0.0132
56593PRPS   GL189728  35.269  32.080   9.432  0.1085  0.0607 -0.2861
56593PRPS   GL289729  34.972  32.016   9.429 -0.0760 -0.2230  0.0433
56593PRPS   D1A89730   0.104  31.706   9.596 -0.0008 -0.4221  0.0720
56593PRPS   D2A89731  35.040  31.509   9.785 -0.0997 -0.1023 -0.3603
56593PRPS   D3A89732  34.706  31.596   9.604  0.4330 -0.1478  0.2545
56593PRPS   D4A89733  34.791  31.625   9.168 -0.4633 -0.1662  0.0429
56593PRPS   D5A89734  34.464  31.734   8.930  0.1725 -0.1507  0.2623
56593PRPS   D6A89735  34.297  31.466   9.191  0.0231  0.0064 -0.2263
56593PRPS   C1B89736  34.824  32.023   9.811 -0.0594 -0.0418  0.0515
56593PRPS   C2B89737  34.596  31.735  10.065 -0.0772  0.2693  0.0826
56593PRPS   C3B89738  34.359  31.702  10.429 -0.1555  0.3624  0.1890
56593PRPS   C4B89739  33.952  31.497  10.549 -0.0123 -0.0937  0.5043
56594PRPS   CNO89740  32.898  27.970   4.064  0.3673  0.1723 -0.3862
56594PRPS   PO489741  32.516  27.662   4.132 -0.1239  0.1377  0.0312
56594PRPS   GL189742  32.722  27.406   4.417  0.0887  0.0250  0.1031
56594PRPS   GL289743  32.912  27.692   4.525  0.0416 -0.1421  0.0921
56594PRPS   D1A89744  33.044  27.170   4.413 -0.3972 -0.1728  0.1740
56594PRPS   D2A89745  33.050  26.800   4.645 -0.0192 -0.0284  0.0673
56594PRPS   D3A89746  33.194  26.471   4.354  0.2289  0.0142  0.1686
56594PRPS   D4A89747  33.126  26.227   4.646 -0.1039 -0.0419 -0.5764
56594PRPS   D5A89748  33.242  25.804   4.703  0.1609  0.1419 -0.1257
56594PRPS   D6A89749  32.946  25.512   4.642 -0.1392 -0.0480  0.3005
56594PRPS   C1B89750  32.817  27.773   5.031  0.2011  0.0021  0.0529
56594PRPS   C2B89751  32.589  27.500   5.324  0.2074  0.0323 -0.2974
56594PRPS   C3B89752  32.240  27.426   5.500 -0.1774  0.0201 -0.0500
56594PRPS   C4B89753  32.234  27.221   5.839 -0.4179 -0.2784  0.0271
56595PRPS   CNO89754  13.622  10.668  14.103 -0.1520 -0.3017  0.3314
56595PRPS   PO489755  13.594  10.489  14.516  0.0270  0.1056  0.0728
56595PRPS   GL189756  13.627  10.429  14.801  0.3310 -0.2081  0.3134
56595PRPS   GL289757  13.366  10.400  14.970 -0.3031 -0.2411 -0.0312
56595PRPS   D1A89758  13.867  10.271  15.191  0.3035  0.4674  0.1519
56595PRPS   D2A89759  14.105  10.539  15.457 -0.2810 -0.1157 -0.1257
56595PRPS   D3A89760  14.555  10.395  15.462  0.1788 -0.0556 -0.0949
56595PRPS   D4A89761  14.629  10.589  15.089  0.0405  0.0921 -0.0194
56595PRPS   D5A89762  14.291  10.479  15.017  0.0174  0.0942  0.0383
56595PRPS   D6A89763  14.244  10.870  14.872  0.1551 -0.1386 -0.4351
56595PRPS   C1B89764  13.351  10.338  15.406  0.0484  0.1242  0.1451
56595PRPS   C2B89765  13.191  10.482  15.763 -0.1505 -0.1501  0.3763
56595PRPS   C3B89766  13.051  10.461  16.144 -0.1760 -0.0430  0.2667
56595PRPS   C4B89767  12.771  10.536  16.511 -0.1719  0.1527  0.0043
56596PRPS   CNO89768  15.185  19.613  15.176  0.0116 -0.2819 -0.1005
56596PRPS   PO489769  14.729  19.288  15.163 -0.1713  0.2327 -0.1067
56596PRPS   GL189770  14.997  19.121  15.256  0.1328  0.0227  0.3204
56596PRPS   GL289771  15.075  18.840  15.123  0.0119 -0.1060 -0.2553
56596PRPS   D1A89772  14.997  18.775  15.613  0.0487 -0.1387 -0.1952
56596PRPS   D2A89773  14.728  18.724  15.897 -0.1202 -0.1530  0.0880
56596PRPS   D3A89774  15.018  18.375  16.237  0.1987  0.2553 -0.0666
56596PRPS   D4A89775  14.702  17.962  16.250  0.1177 -0.5582  0.1654
56596PRPS   D5A89776  14.465  17.806  16.422  0.0747  0.3802 -0.1495
56596PRPS   D6A89777  14.794  17.580  16.586 -0.0777 -0.2620 -0.1153
56596PRPS   C1B89778  15.383  19.009  14.957 -0.1118 -0.1052 -0.3625
56596PRPS   C2B89779  15.627  19.225  15.184  0.1077  0.0690  0.0250
56596PRPS   C3B89780  15.767  18.996  15.487 -0.0633 -0.0282 -0.3932
56596PRPS   C4B89781  15.941  18.878  15.762 -0.0919 -0.1227  0.1095
56597PRPS   CNO89782  28.679  31.671   5.330  0.3961  0.0134 -0.1085
56597PRPS   PO489783  28.582  31.674   5.857  0.0643 -0.2952  0.2079
56597PRPS   GL189784  28.365  31.393   6.098 -0.1131 -0.0261 -0.0254
56597PRPS   GL289785  28.051  31.509   6.242  0.2008  0.1796  0.1439
56597PRPS   D1A89786  28.412  30.949   6.366  0.3888 -0.0591 -0.2222
56597PRPS   D2A89787  28.541  30.958   6.828 -0.1706  0.5110 -0.2638
56597PRPS   D3A89788  28.595  30.842   7.360  0.1733 -0.2190  0.0357
56597PRPS   D4A89789  28.819  30.523   7.146  0.0780  0.0549 -0.2601
56597PRPS   D5A89790  28.994  30.255   7.376  0.2211  0.0339  0.0926
56597PRPS   D6A89791  28.708  30.100   7.598 -0.0620 -0.0186 -0.1532
56597PRPS   C1B89792  28.267  31.601   6.655  0.0833  0.1216  0.0861
56597PRPS   C2B89793  28.044  31.802   7.013  0.1033 -0.0262 -0.0582
56597PRPS   C3B89794  27.943  31.804   7.355  0.1178 -0.2793 -0.0089
56597PRPS   C4B89795  27.860  31.485   7.538 -0.1859 -0.0210 -0.1509
56598PRPS   CNO89796  24.318  17.448   1.090 -0.2160 -0.1374 -0.1238
56598PRPS   PO489797  23.969  17.212   1.235  0.1373 -0.1505  0.3120
56598PRPS   GL189798  24.198  17.195   1.611  0.4653 -0.0156 -0.3042
56598PRPS   GL289799  24.165  16.934   1.793 -0.2656 -0.0464 -0.0147
56598PRPS   D1A89800  24.534  17.309   1.724 -0.2416 -0.0348  0.0784
56598PRPS   D2A89801  24.738  16.829   1.783  0.3441  0.0955 -0.2902
56598PRPS   D3A89802  24.840  16.409   1.658 -0.0504 -0.2395  0.4589
56598PRPS   D4A89803  25.045  16.006   1.802  0.0541  0.0431 -0.1201
56598PRPS   D5A89804  25.055  16.015   2.208  0.0615  0.0215 -0.4499
56598PRPS   D6A89805  24.698  16.172   2.157 -0.0086 -0.2205 -0.2099
56598PRPS   C1B89806  24.450  16.995   2.149  0.0737  0.0750  0.0193
56598PRPS   C2B89807  24.566  16.993   2.579 -0.0578  0.1571 -0.2281
56598PRPS   C3B89808  24.636  17.115   2.947 -0.0498 -0.0971 -0.0253
56598PRPS   C4B89809  24.692  16.932   3.363 -0.2179  0.1055 -0.1084
56599PRPS   CNO89810   0.015  24.476   3.656 -0.0796 -0.0960 -0.0436
56599PRPS   PO489811   0.243  24.418   3.225 -0.0633  0.2243 -0.2305
56599PRPS   GL189812  35.249  24.730   3.224 -0.0160  0.1355  0.0599
56599PRPS   GL289813  34.918  24.706   3.025  0.0071  0.1848  0.0008
56599PRPS   D1A89814  35.048  25.058   3.477  0.0854  0.2174  0.0196
56599PRPS   D2A89815  34.579  24.992   3.408 -0.2863 -0.0543 -0.1523
56599PRPS   D3A89816  34.393  25.007   3.031 -0.0682  0.0571 -0.0845
56599PRPS   D4A89817  34.103  24.971   3.354  0.0468 -0.0966  0.2006
56599PRPS   D5A89818  33.920  25.357   3.184  0.0625 -0.0565 -0.2302
56599PRPS   D6A89819  34.085  25.748   3.153 -0.1311  0.2312 -0.0997
56599PRPS   C1B89820  34.470  24.482   3.115  0.2305  0.3318 -0.0002
56599PRPS   C2B89821  34.065  24.447   3.472  0.3167 -0.1636 -0.0169
56599PRPS   C3B89822  33.739  24.469   3.765  0.2669 -0.0916 -0.0601
56599PRPS   C4B89823  33.575  24.406   4.077 -0.3294  0.0520  0.0640
56600PRPS   CNO89824  23.426  23.713   4.542 -0.3592 -0.1519  0.3814
56600PRPS   PO489825  23.420  23.769   4.036 -0.1754  0.0752  0.0081
56600PRPS   GL189826  23.783  23.912   4.182  0.0811  0.0461 -0.0480
56600PRPS   GL289827  23.710  24.173   4.428  0.2022 -0.2880 -0.1444
56600PRPS   D1A89828  24.059  23.588   4.235  0.1484  0.0155  0.1761
56600PRPS   D2A89829  23.895  23.662   4.737  0.2607 -0.1069 -0.1254
56600PRPS   D3A89830  23.610  23.433   5.011  0.1835 -0.0951 -0.0758
56600PRPS   D4A89831  23.498  23.433   5.496  0.1304  0.0303 -0.1431
56600PRPS   D5A89832  23.549  23.022   5.316 -0.0309 -0.2091 -0.0240
56600PRPS   D6A89833  23.228  23.151   4.917  0.1468 -0.1198  0.0873
56600PRPS   C1B89834  24.049  24.168   4.562  0.1072 -0.0612 -0.0493
56600PRPS   C2B89835  24.223  24.110   4.980 -0.0375  0.0564 -0.1492
56600PRPS   C3B89836  24.144  24.232   5.406  0.2464 -0.0883 -0.0283
56600PRPS   C4B89837  24.012  24.097   5.902  0.2757  0.1590  0.2542
56601PRPS   CNO89838  27.863   9.289   1.230 -0.0481 -0.2372  0.0347
56601PRPS   PO489839  28.286   9.367   1.049  0.0542  0.0460 -0.2589
56601PRPS   GL189840  28.736   9.439   1.311  0.2809  0.1989  0.1557
56601PRPS   GL289841  28.782   9.708   1.126  0.0844  0.0316  0.0474
56601PRPS   D1A89842  29.092   9.607   1.525  0.1838  0.0912  0.0013
56601PRPS   D2A89843  28.861   9.295   1.780  0.1001  0.1896 -0.0466
56601PRPS   D3A89844  28.834   9.746   2.004 -0.0120  0.0324  0.1289
56601PRPS   D4A89845  28.403   9.755   1.930 -0.1447  0.2926 -0.1566
56601PRPS   D5A89846  28.306   9.616   1.521  0.3033  0.1576 -0.3501
56601PRPS   D6A89847  27.997   9.518   1.757 -0.1803 -0.3314 -0.0121
56601PRPS   C1B89848  28.749   9.949   1.488  0.2825  0.1147  0.1276
56601PRPS   C2B89849  28.612  10.233   1.797 -0.0070 -0.1057  0.1982
56601PRPS   C3B89850  28.704  10.293   2.157 -0.0194 -0.0014 -0.1265
56601PRPS   C4B89851  28.810  10.593   2.496 -0.0393 -0.1951  0.0605
56602PRPS   CNO89852  16.252   5.535  12.302  0.1476  0.1286  0.1790
56602PRPS   PO489853  16.382   5.462  12.745  0.0479  0.0996 -0.2326
56602PRPS   GL189854  16.206   5.491  13.103  0.4101  0.1186 -0.1694
56602PRPS   GL289855  16.489   5.472  13.403 -0.1883  0.0116  0.1473
56602PRPS   D1A89856  16.083   5.784  13.498 -0.1899  0.1157 -0.2108
56602PRPS   D2A89857  16.437   5.942  13.663  0.4388 -0.0700 -0.2328
56602PRPS   D3A89858  16.806   5.640  13.801 -0.1813 -0.4400  0.2259
56602PRPS   D4A89859  16.913   5.842  13.463 -0.3739 -0.1853  0.1537
56602PRPS   D5A89860  17.274   5.662  13.269 -0.0396 -0.1109 -0.0302
56602PRPS   D6A89861  17.275   5.374  13.499  0.0556 -0.2150 -0.2074
56602PRPS   C1B89862  16.738   5.199  13.557 -0.1114  0.1205  0.0794
56602PRPS   C2B89863  16.948   5.153  13.870 -0.2269  0.0008  0.1432
56602PRPS   C3B89864  17.273   5.141  14.123  0.0873  0.1948  0.0562
56602PRPS   C4B89865  17.232   5.072  14.608 -0.0343 -0.2546  0.1624
56603PRPS   CNO89866   4.800  14.190   8.012  0.1729  0.0134  0.3382
56603PRPS   PO489867   4.947  13.951   8.309  0.1320  0.0533 -0.2762
56603PRPS   GL189868   4.613  13.842   8.447 -0.0368 -0.1192 -0.0564
56603PRPS   GL289869   4.532  14.114   8.507 -0.1875 -0.1064 -0.0400
56603PRPS   D1A89870   4.302  13.558   8.371 -0.0254 -0.1470 -0.1347
56603PRPS   D2A89871   4.198  13.375   8.784 -0.2506 -0.1272  0.0572
56603PRPS   D3A89872   3.823  13.546   8.681 -0.0624  0.1173 -0.0180
56603PRPS   D4A89873   4.104  13.926   8.731 -0.2188  0.0016 -0.1300
56603PRPS   D5A89874   4.382  13.783   8.937 -0.0014 -0.2983 -0.1722
56603PRPS   D6A89875   4.763  13.587   8.891 -0.0042 -0.1010 -0.0981
56603PRPS   C1B89876   4.139  14.392   8.575  0.2339 -0.0028 -0.0901
56603PRPS   C2B89877   3.812  14.294   8.620 -0.0013  0.5191 -0.1375
56603PRPS   C3B89878   3.633  14.009   8.792  0.1002  0.1252  0.0984
56603PRPS   C4B89879   3.311  13.661   8.913  0.1294  0.0640  0.0019
56604PRPS   CNO89880  23.616  34.682   6.725  0.2567 -0.0359 -0.2466
56604PRPS   PO489881  23.901  34.471   6.874  0.0321 -0.3421  0.1201
56604PRPS   GL189882  23.881  34.150   7.092  0.1263 -0.1874  0.0295
56604PRPS   GL289883  24.199  34.252   7.292  0.0283  0.1387  0.1072
56604PRPS   D1A89884  23.672  34.116   7.336 -0.0610  0.1086  0.0027
56604PRPS   D2A89885  23.533  34.446   7.716  0.4483  0.0079  0.2488
56604PRPS   D3A89886  23.149  34.320   7.531  0.0033 -0.2856 -0.1871
56604PRPS   D4A89887  23.058  34.585   7.862 -0.2271  0.2150 -0.0427
56604PRPS   D5A89888  22.746  34.414   8.047 -0.1334 -0.1865  0.2753
56604PRPS   D6A89889  23.057  34.196   8.301  0.1331  0.1408 -0.4917
56604PRPS   C1B89890  24.093  34.092   7.625  0.0119 -0.2388 -0.0311
56604PRPS   C2B89891  23.870  34.152   7.938  0.0652 -0.1433  0.1412
56604PRPS   C3B89892  23.792  34.046   8.443 -0.0388  0.0309  0.1434
56604PRPS   C4B89893  23.818  33.913   8.883 -0.1181 -0.2996 -0.0741
56605PRPS   CNO89894  14.524  30.506  13.582  0.1250  0.4341 -0.0879
56605PRPS   PO489895  14.940  30.517  13.724 -0.0462 -0.1516 -0.2921
56605PRPS   GL189896  15.349  30.633  13.974 -0.2369 -0.2046 -0.2227
56605PRPS   GL289897  15.603  30.399  14.034 -0.1333  0.1648  0.2614
56605PRPS   D1A89898  15.394  30.832  14.409  0.3167  0.1481  0.1353
56605PRPS   D2A89899  15.382  30.409  14.642 -0.0410  0.1934  0.1204
56605PRPS   D3A89900  15.253  30.487  14.997  0.2103  0.0950  0.0005
56605PRPS   D4A89901  15.503  30.941  14.999 -0.3053  0.1024  0.1697
56605PRPS   D5A89902  15.985  30.864  15.100  0.0587  0.0111  0.1348
56605PRPS   D6A89903  15.838  31.195  14.706 -0.0039  0.5451 -0.3645
56605PRPS   C1B89904  16.015  30.548  14.254 -0.1008  0.2475  0.0495
56605PRPS   C2B89905  16.436  30.352  14.467  0.2192 -0.1254 -0.3014
56605PRPS   C3B89906  16.895  30.395  14.567  0.0708 -0.0523  0.0339
56605PRPS   C4B89907  17.120  30.840  14.694  0.3629 -0.0614 -0.0733
56606PRPS   CNO89908  20.116  15.987   7.579 -0.0597 -0.0309  0.1661
56606PRPS   PO489909  20.259  16.436   7.540  0.0594  0.1878 -0.0127
56606PRPS   GL189910  20.635  16.512   7.379 -0.0279  0.1501  0.0172
56606PRPS   GL289911  20.866  16.281   7.423  0.1089  0.0582  0.0426
56606PRPS   D1A89912  20.775  16.901   7.034 -0.1566  0.4111 -0.1261
56606PRPS   D2A89913  20.527  17.177   7.052 -0.1213 -0.3127 -0.0759
56606PRPS   D3A89914  20.894  17.424   7.264  0.1144  0.0379 -0.3500
56606PRPS   D4A89915  20.747  17.630   7.681 -0.0489  0.0261  0.1598
56606PRPS   D5A89916  21.102  18.051   7.617  0.2525  0.2590  0.4847
56606PRPS   D6A89917  21.118  17.915   8.098 -0.1766  0.1386 -0.1285
56606PRPS   C1B89918  21.261  16.457   7.396  0.3702 -0.1128 -0.0945
56606PRPS   C2B89919  21.701  16.526   7.386  0.1990 -0.1055  0.1472
56606PRPS   C3B89920  21.890  16.209   7.492  0.1220  0.2524  0.0562
56606PRPS   C4B89921  22.275  15.982   7.544  0.0784  0.0991  0.0210
56607PRPS   CNO89922  20.452   1.866   8.578  0.1020  0.1197  0.1627
56607PRPS   PO489923  20.555   2.024   8.927 -0.1192  0.1163  0.0773
56607PRPS   GL189924  20.893   2.135   9.196  0.5015 -0.0812  0.2066
56607PRPS   GL289925  20.750   2.393   9.361 -0.0455 -0.0594 -0.1602
56607PRPS   D1A89926  21.092   2.081   9.622 -0.3725 -0.0318  0.1799
56607PRPS   D2A89927  21.366   2.488   9.617 -0.1869 -0.0066 -0.1599
56607PRPS   D3A89928  21.288   2.451   9.180 -0.0439 -0.2974  0.0854
56607PRPS   D4A89929  20.995   2.845   9.210 -0.0774  0.1142 -0.0860
56607PRPS   D5A89930  20.981   3.001   9.601  0.2804  0.2470 -0.1385
56607PRPS   D6A89931  21.174   3.313   9.823 -0.0750  0.0344  0.1721
56607PRPS   C1B89932  20.919   2.524   9.778  0.0086 -0.1867 -0.0891
56607PRPS   C2B89933  21.169   2.298  10.051  0.3296  0.2024 -0.0708
56607PRPS   C3B89934  21.323   2.068  10.428 -0.1163  0.1697 -0.1030
56607PRPS   C4B89935  21.461   1.709  10.459  0.3164  0.1799 -0.0416
56608PRPS   CNO89936  21.909  34.557   7.930  0.0393 -0.0353  0.0328
56608PRPS   PO489937  22.115  34.588   7.593  0.3267 -0.0991 -0.0693
56608PRPS   GL189938  22.148  34.202   7.767 -0.1106  0.3089 -0.0276
56608PRPS   GL289939  22.244  34.291   8.071  0.2747  0.0259 -0.2294
56608PRPS   D1A89940  22.545  33.947   7.833  0.2764 -0.0598 -0.2115
56608PRPS   D2A89941  22.916  33.993   7.830 -0.0949 -0.1756 -0.2458
56608PRPS   D3A89942  22.894  33.747   8.152  0.1247 -0.1292  0.2377
56608PRPS   D4A89943  23.151  33.344   8.169  0.0736  0.0254 -0.0481
56608PRPS   D5A89944  22.793  33.246   8.423  0.1107  0.0182 -0.0417
56608PRPS   D6A89945  22.948  33.035   8.763 -0.0849  0.4629  0.2727
56608PRPS   C1B89946  22.372  33.986   8.303  0.2939  0.1177  0.0882
56608PRPS   C2B89947  22.666  33.790   8.607 -0.2609 -0.1589 -0.0239
56608PRPS   C3B89948  22.771  33.547   8.895  0.0166 -0.1908  0.0531
56608PRPS   C4B89949  23.024  33.522   9.256  0.1159 -0.1646 -0.1865
56609PRPS   CNO89950   7.973   1.986  14.534  0.4995  0.0112 -0.3043
56609PRPS   PO489951   7.640   1.886  14.934  0.0504  0.0325  0.2548
56609PRPS   GL189952   7.503   2.143  15.263 -0.0047 -0.0287  0.2472
56609PRPS   GL289953   7.137   2.028  15.293 -0.1762  0.0786  0.0691
56609PRPS   D1A89954   7.381   2.526  15.323 -0.0531 -0.0397  0.0580
56609PRPS   D2A89955   7.446   2.415  15.778  0.2461 -0.0467  0.2869
56609PRPS   D3A89956   7.927   2.201  15.839 -0.2548 -0.2918  0.1286
56609PRPS   D4A89957   7.701   2.359  16.231 -0.1423 -0.3253  0.0074
56609PRPS   D5A89958   7.479   1.961  16.132 -0.2339  0.2877  0.0429
56609PRPS   D6A89959   7.498   1.859  15.709 -0.2785 -0.3004  0.1828
56609PRPS   C1B89960   7.031   2.074  15.721  0.1320 -0.0814  0.0055
56609PRPS   C2B89961   6.741   2.183  16.127 -0.0993 -0.1483 -0.2967
56609PRPS   C3B89962   6.323   2.221  16.295 -0.0589 -0.0905  0.1632
56609PRPS   C4B89963   6.007   2.436  16.366  0.0366  0.0556 -0.2113
56610DPSM   NC389964  31.243  16.400   0.395  0.3635  0.1583 -0.0425
56610DPSM   PO489965  31.039  16.708   0.306  0.1237 -0.1221 -0.1697
56610DPSM   AM189966  30.722  16.759   0.627  0.0156 -0.0059  0.2779
56610DPSM   AM289967  30.538  16.606   0.409 -0.2697 -0.0802  0.0929
56610DPSM   T1A89968  30.504  16.874   1.001 -0.1361 -0.4985 -0.0149
56610DPSM   C2A89969  30.551  16.814   1.490 -0.2278  0.0730  0.3329
56610DPSM   C3A89970  30.423  16.990   1.826  0.0134  0.0212  0.0711
56610DPSM   C1B89971  30.249  16.292   0.599 -0.1539  0.0869 -0.2109
56610DPSM   C2B89972  30.156  15.940   0.745 -0.0714 -0.1588  0.0402
56610DPSM   C3B89973  30.002  15.924   1.221 -0.1508 -0.0399 -0.0731
56610DPSM   C4B89974  29.892  15.641   1.508 -0.3121  0.2553 -0.4034
56611DPSM   NC389975  23.106  26.646   4.852 -0.0294 -0.4245  0.0898
56611DPSM   PO489976  23.269  26.839   5.104 -0.3644  0.0708  0.0339
56611DPSM   AM189977  23.605  26.941   5.316 -0.2018 -0.1357  0.2138
56611DPSM   AM289978  23.510  27.235   5.574 -0.4729  0.0796 -0.1194
56611DPSM   T1A89979  24.004  26.989   5.330  0.3756  0.0818  0.2855
56611DPSM   C2A89980  24.337  27.138   5.629  0.1170 -0.0521 -0.4408
56611DPSM   C3A89981  24.614  27.094   5.866 -0.1165 -0.0212  0.3004
56611DPSM   C1B89982  23.873  27.065   5.859 -0.2832 -0.0835 -0.0996
56611DPSM   C2B89983  24.202  27.014   6.145  0.0822 -0.0578 -0.2203
56611DPSM   C3B89984  24.471  27.147   6.458  0.0168  0.1020 -0.0075
56611DPSM   C4B89985  24.934  27.053   6.619  0.0893  0.0186  0.0996
56612DPSM   NC389986   5.644  10.098  10.118  0.0425 -0.1346  0.0327
56612DPSM   PO489987   5.291  10.177   9.838 -0.0898  0.0410 -0.0390
56612DPSM   AM189988   5.090  10.118  10.110  0.0114 -0.1808 -0.0006
56612DPSM   AM289989   5.185  10.062  10.368  0.1323  0.0302 -0.0255
56612DPSM   T1A89990   4.657  10.055  10.244  0.1367  0.0232  0.1727
56612DPSM   C2A89991   4.510   9.884  10.643  0.1803  0.1823 -0.2516
56612DPSM   C3A89992   4.198   9.822  10.830  0.2283 -0.4792 -0.3603
56612DPSM   C1B89993   4.915  10.214  10.783  0.0409 -0.0384  0.1606
56612DPSM   C2B89994   4.831   9.824  11.095  0.2245  0.0807 -0.3319
56612DPSM   C3B89995   5.080   9.680  11.648  0.0566 -0.2301  0.0622
56612DPSM   C4B89996   4.953   9.720  11.990  0.0985  0.0241  0.1333
56613DPSM   NC389997  16.525   4.936  12.657  0.1613 -0.0482  0.2342
56613DPSM   PO489998  16.691   4.604  12.569  0.0053 -0.1109 -0.1982
56613DPSM   AM189999  16.467   4.423  12.882  0.2507 -0.0136  0.0964
56613DPSM   AM290000  16.304   4.161  12.785 -0.1767  0.0773 -0.3442
56613DPSM   T1A90001  16.525   4.149  13.244 -0.0258 -0.0550  0.0873
56613DPSM   C2A90002  16.604   4.267  13.587  0.0759 -0.1699 -0.1999
56613DPSM   C3A90003  16.668   4.310  14.069 -0.2272 -0.0824 -0.0888
56613DPSM   C1B90004  16.473   3.729  12.989  0.0086  0.0891 -0.1564
56613DPSM   C2B90005  16.729   3.729  13.428  0.2042 -0.0016 -0.3663
56613DPSM   C3B90006  16.927   3.827  13.804 -0.0714 -0.0292  0.1567
56613DPSM   C4B90007  17.414   3.880  13.830  0.0200 -0.1342 -0.4640
56614DPSM   NC390008  26.335   3.899   6.110 -0.0058  0.3091  0.0629
56614DPSM   PO490009  26.411   3.415   6.093 -0.1727  0.1105 -0.2006
56614DPSM   AM190010  26.536   3.485   6.549 -0.1924 -0.3111  0.2620
56614DPSM   AM290011  26.287   3.622   6.600 -0.2509 -0.1394 -0.1431
56614DPSM   T1A90012  26.867   3.368   6.942 -0.1828 -0.4067 -0.1189
56614DPSM   C2A90013  27.026   3.393   7.383  0.2623  0.0229  0.2253
56614DPSM   C3A90014  27.093   3.431   7.775 -0.0158 -0.1183  0.0299
56614DPSM   C1B90015  26.471   3.761   6.956  0.0676  0.4786  0.1662
56614DPSM   C2B90016  26.641   3.736   7.251 -0.2108 -0.0766 -0.0242
56614DPSM   C3B90017  26.677   3.821   7.605  0.2253 -0.1312  0.0885
56614DPSM   C4B90018  26.473   4.139   7.794  0.1552 -0.0947  0.0716
56615DPSM   NC390019   8.493  19.453  14.986  0.0969  0.0574  0.2663
56615DPSM   PO490020   8.224  19.581  14.728  0.0751  0.0725  0.0172
56615DPSM   AM190021   8.000  19.214  14.861  0.2064  0.1446  0.1460
56615DPSM   AM290022   7.796  19.016  14.674  0.1094  0.1341 -0.3129
56615DPSM   T1A90023   7.929  18.783  15.062 -0.1609  0.1070  0.2138
56615DPSM   C2A90024   7.784  18.427  15.268  0.0218  0.3166  0.2342
56615DPSM   C3A90025   7.685  17.974  15.439  0.0048 -0.2289 -0.1310
56615DPSM   C1B90026   7.492  18.684  14.860 -0.2143  0.1806 -0.2603
56615DPSM   C2B90027   7.292  18.523  15.243 -0.4898 -0.0284  0.1326
56615DPSM   C3B90028   6.943  18.522  15.449 -0.0104  0.2489 -0.0270
56615DPSM   C4B90029   6.621  18.359  15.711  0.2470  0.1422  0.2169
56616POSM   NC390030  18.321  31.651   9.991  0.1017  0.0168  0.4463
56616POSM   PO490031  18.521  31.611   9.556 -0.1057 -0.4252 -0.1971
56616POSM   AM190032  18.754  31.811   9.785 -0.1993 -0.0632  0.1609
56616POSM   AM290033  18.942  31.543   9.845 -0.1896 -0.1005  0.1234
56616POSM   T1A90034  18.907  32.048  10.183 -0.2575  0.0745 -0.3470
56616POSM   C2A90035  19.052  32.335  10.398  0.0269 -0.0501  0.1485
56616POSM   C3A90036  19.354  32.553  10.492 -0.1680 -0.3509 -0.0740
56616POSM   C1B90037  19.221  31.662  10.059 -0.0413 -0.0075  0.3353
56616POSM   D2B90038  19.537  31.608  10.229  0.0190  0.0631 -0.1699
56616POSM   C3B90039  19.561  31.432  10.606  0.2711 -0.0796  0.2345
56616POSM   C4B90040  19.688  31.473  10.933  0.2783 -0.0132 -0.2433
56617POSM   NC390041  18.192  10.976  12.494 -0.0268 -0.3200  0.0410
56617POSM   PO490042  18.201  10.502  12.670 -0.1689 -0.1839 -0.2817
56617POSM   AM190043  18.344  10.333  13.094  0.0092  0.2562  0.0335
56617POSM   AM290044  18.070  10.099  13.239  0.2913 -0.0465 -0.0578
56617POSM   T1A90045  18.393  10.446  13.375 -0.0957 -0.3360  0.0828
56617POSM   C2A90046  18.628  10.696  13.633  0.1321  0.0581 -0.1292
56617POSM   C3A90047  19.000  10.563  13.878 -0.1205 -0.1601  0.0635
56617POSM   C1B90048  18.189   9.979  13.571  0.3329  0.2724  0.0657
56617POSM   D2B90049  18.157   9.894  13.931 -0.0609  0.0987  0.1037
56617POSM   C3B90050  18.343   9.987  14.421  0.1859  0.1845  0.1908
56617POSM   C4B90051  18.801   9.948  14.685 -0.0990 -0.1429  0.2752
56618POSM   NC390052   9.212  22.660  17.433 -0.0542 -0.1235  0.1126
56618POSM   PO490053   8.767  22.840  17.358  0.0264  0.3483 -0.2296
56618POSM   AM190054   8.518  23.179  17.437  0.0081 -0.0999  0.3687
56618POSM   AM290055   8.338  23.243  17.253  0.2577  0.0982  0.2080
56618POSM   T1A90056   8.130  23.174  17.707 -0.2966 -0.2776  0.0307
56618POSM   C2A90057   7.787  23.142  17.921 -0.0179 -0.2350  0.0605
56618POSM   C3A90058   7.442  23.225  18.187 -0.2297  0.1377 -0.0981
56618POSM   C1B90059   7.782  23.145  17.308 -0.0458 -0.0131 -0.3819
56618POSM   D2B90060   7.479  23.256  17.577 -0.2834 -0.0972  0.0985
56618POSM   C3B90061   7.122  23.259  17.797 -0.0458  0.3293 -0.0722
56618POSM   C4B90062   6.947  23.328  18.114  0.1324 -0.1740 -0.2490
56619POSM   NC390063   4.328  22.113   5.847  0.2553  0.1777 -0.0411
56619POSM   PO490064   4.284  21.818   6.160  0.1774 -0.2722 -0.4584
56619POSM   AM190065   4.310  21.623   6.497  0.0546  0.0925  0.0589
56619POSM   AM290066   4.372  21.301   6.561  0.1199  0.3653 -0.2153
56619POSM   T1A90067   4.072  21.571   6.849  0.1467  0.0611 -0.0315
56619POSM   C2A90068   3.798  21.437   7.093 -0.2908  0.0405  0.1132
56619POSM   C3A90069   3.528  21.196   7.224 -0.1285  0.0266  0.3612
56619POSM   C1B90070   3.969  21.131   6.551  0.0555 -0.2667 -0.0539
56619POSM   D2B90071   3.684  20.978   6.259  0.0332  0.1241 -0.2510
56619POSM   C3B90072   3.392  20.756   6.450  0.0079  0.2853 -0.0741
56619POSM   C4B90073   3.265  20.407   6.689  0.4156 -0.0343  0.2050
56620POSM   NC390074   5.142  29.765  14.053  0.3246  0.0879  0.1299
56620POSM   PO490075   4.924  29.377  14.184  0.0715  0.0330  0.3304
56620POSM   AM190076   4.685  29.423  14.704 -0.1964  0.0706 -0.1228
56620POSM   AM290077   4.799  29.606  14.915  0.0775  0.0848  0.4167
56620POSM   T1A90078   4.317  29.532  15.097 -0.1104  0.0097 -0.0960
56620POSM   C2A90079   4.226  29.501  15.525  0.0584  0.2702  0.2278
56620POSM   C3A90080   3.831  29.704  15.698  0.2047  0.2904  0.2556
56620POSM   C1B90081   4.735  29.584  15.342 -0.0533 -0.1591  0.0253
56620POSM   D2B90082   4.613  29.468  15.794  0.4281 -0.1488 -0.0096
56620POSM   C3B90083   4.940  29.338  16.106  0.1317 -0.1183 -0.2959
56620POSM   C4B90084   4.909  29.529  16.532 -0.1322 -0.0753  0.1500
56621PNSM   NC390085  19.676   6.684  11.110  0.2585  0.0861 -0.1920
56621PNSM   PO490086  19.778   6.496  11.432 -0.1915 -0.1375 -0.0659
56621PNSM   AM190087  19.955   6.582  11.809  0.1378 -0.0161  0.0208
56621PNSM   AM290088  19.949   6.840  11.866  0.0136  0.3236  0.0051
56621PNSM   T1A90089  20.132   6.479  12.203  0.0876 -0.0152  0.2074
56621PNSM   C2A90090  20.363   6.545  12.522  0.2591  0.2581 -0.0815
56621PNSM   C3A90091  20.715   6.538  12.820  0.1755  0.0462  0.3100
56621PNSM   C1B90092  20.351   6.948  12.089 -0.0648 -0.0829  0.0940
56621PNSM   C2B90093  20.582   7.066  12.493  0.1137  0.1764 -0.0998
56621PNSM   C3B90094  20.898   7.062  12.922 -0.1603  0.2449 -0.0542
56621PNSM   D4B90095  20.992   6.734  13.255 -0.2191  0.0620  0.2496
56621PNSM   C5B90096  21.166   6.818  13.615  0.2711  0.3239 -0.1426
56621PNSM   C6B90097  21.276   6.716  13.951 -0.1622  0.0493  0.3435
56622PNSM   NC390098   6.679  34.153  14.331  0.1138 -0.0149 -0.1723
56622PNSM   PO490099   6.482  33.958  14.700  0.2945 -0.0116 -0.2818
56622PNSM   AM190100   6.412  33.688  15.025 -0.0911  0.1829  0.1665
56622PNSM   AM290101   6.445  33.462  14.686 -0.3237 -0.0419  0.1980
56622PNSM   T1A90102   6.208  33.398  15.371 -0.0759 -0.2960 -0.1596
56622PNSM   C2A90103   6.012  33.204  15.770  0.1669 -0.2394 -0.0535
56622PNSM   C3A90104   5.844  32.781  15.814  0.2488  0.2303 -0.3058
56622PNSM   C1B90105   6.439  33.203  15.022  0.0023  0.2964 -0.1599
56622PNSM   C2B90106   6.565  32.882  15.337 -0.1970 -0.1443 -0.1654
56622PNSM   C3B90107   6.479  33.007  15.783 -0.0746 -0.1053 -0.0132
56622PNSM   D4B90108   6.249  32.905  16.136 -0.1807  0.0944  0.0948
56622PNSM   C5B90109   6.282  33.000  16.511 -0.0626 -0.0604 -0.1887
56622PNSM   C6B90110   6.007  32.941  16.888 -0.2075  0.1125  0.1471
56623POPI    C190111  15.397  27.524  16.239  0.3683  0.0647 -0.0321
56623POPI    C290112  15.382  27.147  16.371  0.0143  0.0739 -0.0414
56623POPI    C390113  15.590  27.235  16.041  0.1224 -0.1079 -0.0226
56623POPI   PO490114  15.415  27.652  16.487  0.1356  0.2312 -0.0564
56623POPI   GL190115  15.586  27.554  16.877 -0.0818  0.1110  0.1536
56623POPI   GL290116  15.745  27.861  16.809 -0.2551 -0.2735 -0.1113
56623POPI   C1A90117  15.897  27.678  17.201 -0.1858  0.2824 -0.1740
56623POPI   D2A90118  16.078  27.592  17.667  0.2706 -0.1846 -0.1142
56623POPI   C3A90119  16.373  27.785  17.872 -0.2459  0.0856  0.0294
56623POPI   C4A90120  16.816  27.960  17.968  0.4382 -0.2810  0.1703
56623POPI   C1B90121  16.080  28.179  16.948  0.1280  0.0710  0.1666
56623POPI   C2B90122  16.436  28.321  17.123 -0.0939 -0.5512  0.1097
56623POPI   C3B90123  16.624  28.537  17.314 -0.1890 -0.0114 -0.1804
56623POPI   C4B90124  17.032  28.751  17.354 -0.1245  0.1102  0.1601
56624POPI    C190125  14.443  24.921  17.326 -0.0223 -0.0990 -0.0385
56624POPI    C290126  14.294  25.203  17.085 -0.0337 -0.1672 -0.1112
56624POPI    C390127  14.676  25.090  17.049  0.0193 -0.0350  0.0355
56624POPI   PO490128  14.218  24.873  17.481  0.2850  0.1009  0.0152
56624POPI   GL190129  14.233  24.836  17.972 -0.0771 -0.1006  0.1831
56624POPI   GL290130  14.509  24.584  17.931  0.0126  0.2753  0.3190
56624POPI   C1A90131  14.483  25.057  18.333 -0.0644 -0.2467 -0.4294
56624POPI   D2A90132  14.556  25.073  18.749  0.0330 -0.3665 -0.1650
56624POPI   C3A90133  14.398  25.310  19.193  0.1002  0.5148  0.0022
56624POPI   C4A90134  14.520  25.404  19.541  0.0290 -0.3923  0.3808
56624POPI   C1B90135  14.666  24.617  18.406  0.1338 -0.0051  0.2026
56624POPI   C2B90136  14.814  24.520  18.758 -0.0672 -0.0682 -0.0747
56624POPI   C3B90137  14.992  24.649  19.116 -0.3387 -0.2910 -0.0041
56624POPI   C4B90138  14.812  24.564  19.440 -0.3079 -0.1145  0.0648
56625POPI    C190139  12.355   5.531  13.710  0.0723  0.1703 -0.1550
56625POPI    C290140  12.060   5.393  13.479  0.0869  0.0449 -0.0992
56625POPI    C390141  12.082   5.783  13.563 -0.0236  0.0645 -0.1595
56625POPI   PO490142  12.297   5.360  13.931 -0.1458 -0.3107  0.2102
56625POPI   GL190143  12.573   5.244  14.319  0.2273  0.0941  0.2733
56625POPI   GL290144  12.880   5.404  14.447  0.0502  0.2921  0.0716
56625POPI   C1A90145  12.612   5.163  14.768  0.3249 -0.3348 -0.1742
56625POPI   D2A90146  12.793   5.181  15.143 -0.0322  0.0125 -0.2099
56625POPI   C3A90147  13.254   5.186  15.405  0.1598  0.4222 -0.1201
56625POPI   C4A90148  13.569   5.236  15.690  0.1602  0.1077 -0.2473
56625POPI   C1B90149  13.116   5.038  14.712  0.1003 -0.0384 -0.0203
56625POPI   C2B90150  13.183   4.784  15.058 -0.2696  0.0588 -0.1906
56625POPI   C3B90151  13.548   4.753  15.412  0.0305 -0.0966  0.0459
56625POPI   C4B90152  13.907   4.484  15.416  0.5162  0.0354  0.0092
56626POPI    C190153  12.256  32.441  16.304 -0.2894  0.2229 -0.0846
56626POPI    C290154  12.344  32.372  15.920  0.1842 -0.2115  0.0965
56626POPI    C390155  12.154  32.093  16.135  0.3064 -0.1434  0.2939
56626POPI   PO490156  12.531  32.466  16.368  0.0353  0.1433  0.0032
56626POPI   GL190157  12.682  32.461  16.777  0.0858 -0.1351 -0.1946
56626POPI   GL290158  12.677  32.092  16.869  0.1486  0.1351 -0.0281
56626POPI   C1A90159  12.745  32.675  17.133  0.1082 -0.0444 -0.3313
56626POPI   D2A90160  12.791  32.912  17.510 -0.2524 -0.1169  0.4277
56626POPI   C3A90161  12.661  32.993  17.917 -0.1650  0.2756 -0.2968
56626POPI   C4A90162  12.681  33.249  18.205  0.3679  0.4011  0.2747
56626POPI   C1B90163  12.782  32.191  17.270  0.0341 -0.1538 -0.2369
56626POPI   C2B90164  12.840  32.427  17.603  0.0141  0.1269 -0.0665
56626POPI   C3B90165  12.774  32.452  17.896  0.1938  0.1909 -0.1321
56626POPI   C4B90166  12.869  32.642  18.185 -0.2102 -0.3160 -0.0452
56627POPI    C190167  12.547  26.085  17.895 -0.0699 -0.0637  0.1232
56627POPI    C290168  12.258  25.939  17.661 -0.1852  0.0930  0.1684
56627POPI    C390169  12.439  26.282  17.565  0.0371 -0.0431  0.1004
56627POPI   PO490170  12.408  26.156  18.129  0.2459 -0.2586 -0.4142
56627POPI   GL190171  12.255  26.554  18.404 -0.0303 -0.0353 -0.0744
56627POPI   GL290172  12.359  26.818  18.394 -0.0767 -0.3965  0.1366
56627POPI   C1A90173  12.401  26.532  18.805 -0.0620  0.2841  0.0846
56627POPI   D2A90174  12.526  26.467  19.174  0.2838  0.3760  0.2548
56627POPI   C3A90175  12.512  26.462  19.610 -0.0430  0.3713  0.1698
56627POPI   C4A90176  12.348  26.571  19.949  0.2428  0.1237  0.1784
56627POPI   C1B90177  12.687  26.832  18.527 -0.1692 -0.2332 -0.1218
56627POPI   C2B90178  12.802  26.838  18.954  0.0810 -0.1085  0.0037
56627POPI   C3B90179  12.927  26.834  19.353  0.2111 -0.0403  0.1864
56627POPI   C4B90180  12.898  26.676  19.766  0.2382 -0.2596  0.4927
56628POPI    C190181  18.535  22.429  13.079 -0.1175  0.2114  0.0320
56628POPI    C290182  18.158  22.439  12.946 -0.1073  0.0147 -0.0144
56628POPI    C390183  18.342  22.088  13.000  0.0531  0.1088  0.0550
56628POPI   PO490184  18.498  22.710  13.282  0.0190  0.1511 -0.0540
56628POPI   GL190185  18.697  22.855  13.688 -0.0786  0.2125  0.1115
56628POPI   GL290186  18.609  22.477  13.754 -0.0470 -0.0793 -0.3195
56628POPI   C1A90187  18.930  22.837  14.185 -0.0462  0.2269 -0.0999
56628POPI   D2A90188  19.235  22.855  14.537  0.1000  0.2235  0.3634
56628POPI   C3A90189  19.652  22.869  14.377  0.2354  0.2030  0.0335
56628POPI   C4A90190  20.125  22.779  14.392 -0.0507  0.0786  0.2162
56628POPI   C1B90191  18.848  22.264  14.006 -0.2884  0.2037  0.2023
56628POPI   C2B90192  19.078  22.371  14.310 -0.2015 -0.0582  0.0708
56628POPI   C3B90193  19.291  22.384  14.701 -0.0014  0.2374 -0.3549
56628POPI   C4B90194  19.365  22.424  15.129  0.1452  0.2875 -0.0235
56629POPI    C190195  20.433  21.406   8.633 -0.1119  0.1929  0.0088
56629POPI    C290196  20.179  21.585   8.884 -0.3056  0.0684 -0.0968
56629POPI    C390197  20.131  21.625   8.489 -0.1031  0.1230 -0.1165
56629POPI   PO490198  20.735  21.355   8.685 -0.2709  0.1841 -0.3405
56629POPI   GL190199  21.008  21.180   8.660 -0.2824 -0.1727  0.6028
56629POPI   GL290200  21.205  21.354   8.590  0.0942  0.2748  0.0334
56629POPI   C1A90201  21.381  20.988   8.872  0.0472 -0.2274 -0.0898
56629POPI   D2A90202  21.753  20.928   9.046  0.0642  0.2259 -0.0869
56629POPI   C3A90203  22.063  20.814   8.772 -0.0631 -0.1004  0.0365
56629POPI   C4A90204  22.252  20.621   8.587  0.0503 -0.0441  0.0783
56629POPI   C1B90205  21.528  21.424   8.879 -0.0041  0.0611 -0.1414
56629POPI   C2B90206  21.893  21.396   8.991  0.1961  0.0230  0.2788
56629POPI   C3B90207  22.308  21.387   8.881 -0.0170 -0.1658 -0.0912
56629POPI   C4B90208  22.832  21.342   8.921 -0.2900  0.0154 -0.1001
56630POPI    C190209  25.777   7.442   3.256 -0.1015 -0.1688  0.0375
56630POPI    C290210  25.686   7.056   3.312 -0.1721 -0.0882  0.4930
56630POPI    C390211  25.458   7.341   3.476 -0.0509  0.1458  0.2576
56630POPI   PO490212  26.065   7.416   3.323  0.2700 -0.0994 -0.1035
56630POPI   GL190213  26.458   7.535   3.574 -0.0225 -0.2242 -0.0977
56630POPI   GL290214  26.251   7.777   3.723  0.1119  0.4158 -0.3440
56630POPI   C1A90215  26.696   7.948   3.752  0.1196  0.1659 -0.0091
56630POPI   D2A90216  27.090   8.229   3.928 -0.1903  0.2974  0.1005
56630POPI   C3A90217  27.451   8.252   3.864  0.0509  0.0605 -0.0298
56630POPI   C4A90218  27.920   8.376   3.908  0.0831  0.0841 -0.0535
56630POPI   C1B90219  26.458   7.474   4.061 -0.2511 -0.1827  0.0329
56630POPI   C2B90220  26.540   7.182   4.352  0.2581  0.0463 -0.2468
56630POPI   C3B90221  26.684   7.280   4.765 -0.0063  0.1899  0.1651
56630POPI   C4B90222  27.090   7.185   5.020 -0.3581  0.0670 -0.2226
56631POPI    C190223  30.814  34.492   6.459 -0.0413  0.1442 -0.1356
56631POPI    C290224  30.897  34.861   6.329 -0.0497  0.1369 -0.1640
56631POPI    C390225  30.517  34.745   6.371 -0.0477  0.0982 -0.2498
56631POPI   PO490226  30.954  34.539   6.771 -0.2909  0.1212 -0.1508
56631POPI   GL190227  31.273  34.378   7.055 -0.1654  0.2045 -0.1014
56631POPI   GL290228  31.102  34.122   7.025 -0.0054 -0.4889  0.1379
56631POPI   C1A90229  31.456  34.021   7.341 -0.0429 -0.2007  0.0519
56631POPI   D2A90230  31.284  33.984   7.817  0.3183  0.0959 -0.3249
56631POPI   C3A90231  31.152  33.955   8.181  0.1508 -0.2743 -0.0889
56631POPI   C4A90232  31.133  34.098   8.636 -0.0091 -0.2116 -0.2019
56631POPI   C1B90233  30.966  34.088   7.451  0.0582  0.4437 -0.0603
56631POPI   C2B90234  30.750  34.048   7.891  0.0090 -0.0747 -0.0814
56631POPI   C3B90235  30.677  34.021   8.436 -0.1816  0.0007 -0.0294
56631POPI   C4B90236  30.516  34.321   8.791  0.3086 -0.0109  0.1110
56632POPI    C190237  10.600  22.433  17.967  0.1172  0.1269  0.0576
56632POPI    C290238  10.878  22.600  17.733  0.0099  0.1337 -0.0655
56632POPI    C390239  10.602  22.358  17.574  0.1074 -0.0870  0.0978
56632POPI   PO490240  10.695  22.314  18.118 -0.1240  0.0440 -0.1017
56632POPI   GL190241  10.703  22.095  18.429 -0.1905 -0.3205 -0.0483
56632POPI   GL290242  10.583  21.840  18.352  0.2460  0.1079 -0.1601
56632POPI   C1A90243  10.684  21.964  18.801  0.1447 -0.1152  0.4131
56632POPI   D2A90244  11.081  21.866  19.116 -0.0693  0.0171  0.0347
56632POPI   C3A90245  11.034  21.434  19.359 -0.1594  0.2035 -0.0641
56632POPI   C4A90246  11.243  21.145  19.468  0.1195  0.4436  0.0477
56632POPI   C1B90247  10.397  21.498  18.640  0.0677 -0.2498 -0.2638
56632POPI   C2B90248  10.127  21.224  18.913  0.0145 -0.0323 -0.1437
56632POPI   C3B90249   9.771  21.233  19.101 -0.0002  0.0713  0.1814
56632POPI   C4B90250   9.373  21.098  19.005  0.2514  0.0709  0.5164
56633POPI    C190251  19.079   1.530   9.700 -0.1063 -0.1486 -0.0326
56633POPI    C290252  18.710   1.532   9.855  0.0107  0.1499  0.2488
56633POPI    C390253  18.879   1.875   9.739  0.0597 -0.0299 -0.2203
56633POPI   PO490254  19.059   1.321   9.600 -0.1474  0.0256  0.0698
56633POPI   GL190255  19.167   0.905   9.521  0.3580  0.0431  0.0360
56633POPI   GL290256  19.241   0.805   9.847  0.0909  0.1453  0.1252
56633POPI   C1A90257  19.552   0.574   9.588 -0.4006  0.0746 -0.0279
56633POPI   D2A90258  20.027   0.516   9.692 -0.3752  0.1133 -0.1205
56633POPI   C3A90259  20.124   0.071   9.542 -0.0265  0.0528  0.0039
56633POPI   C4A90260  20.148  35.111   9.820 -0.3939 -0.2701  0.0844
56633POPI   C1B90261  19.349   0.809  10.360  0.0937  0.1513  0.0823
56633POPI   C2B90262  19.390   0.671  10.867 -0.4565  0.1800 -0.1099
56633POPI   C3B90263  19.037   0.567  11.189 -0.3313 -0.1407  0.0600
56633POPI   C4B90264  18.631   0.642  11.387 -0.1390 -0.1195  0.0304
56634POPI    C190265  14.634  27.281  17.044  0.0758  0.0910 -0.2011
56634POPI    C290266  14.540  27.060  16.724 -0.3782  0.1964 -0.1444
56634POPI    C390267  14.430  26.940  17.089 -0.0154  0.1661 -0.0421
56634POPI   PO490268  14.696  27.531  16.974 -0.0896  0.0644  0.4534
56634POPI   GL190269  14.730  27.884  17.168 -0.0307 -0.5516 -0.0446
56634POPI   GL290270  14.590  28.086  17.022  0.2530  0.0218 -0.1414
56634POPI   C1A90271  14.948  27.891  17.573 -0.0618  0.0185  0.2058
56634POPI   D2A90272  15.112  27.803  17.939  0.3005 -0.2851  0.0740
56634POPI   C3A90273  15.104  27.912  18.389 -0.1395 -0.1109  0.3253
56634POPI   C4A90274  15.280  27.911  18.707 -0.3440  0.2557  0.1625
56634POPI   C1B90275  14.475  28.106  17.560 -0.1372 -0.0561 -0.2226
56634POPI   C2B90276  14.735  28.183  17.902  0.1826 -0.1283 -0.0455
56634POPI   C3B90277  14.984  28.343  18.110 -0.0606 -0.0709  0.1602
56634POPI   C4B90278  15.225  28.547  18.356 -0.0091 -0.2115  0.1944
56635POPI    C190279   3.239  34.174  12.097  0.0597 -0.3302 -0.0298
56635POPI    C290280   3.615  34.132  11.967  0.1285  0.0935  0.0255
56635POPI    C390281   3.415  34.472  11.897 -0.1712 -0.0480  0.1818
56635POPI   PO490282   3.245  34.074  12.340  0.2373 -0.0595 -0.0131
56635POPI   GL190283   3.201  34.233  12.762  0.0379  0.1768  0.0625
56635POPI   GL290284   3.113  34.571  12.906  0.0685  0.0685 -0.0015
56635POPI   C1A90285   2.896  34.019  13.160  0.0355 -0.0832  0.0912
56635POPI   D2A90286   2.643  34.215  13.427  0.0981 -0.2149  0.0852
56635POPI   C3A90287   2.487  33.958  13.728  0.1981 -0.1713  0.0579
56635POPI   C4A90288   2.497  33.884  14.158 -0.0632 -0.2397  0.1170
56635POPI   C1B90289   2.834  34.632  13.224  0.1992 -0.0625 -0.2133
56635POPI   C2B90290   2.764  34.725  13.539 -0.0403  0.0260 -0.0945
56635POPI   C3B90291   2.719  34.906  13.931  0.1101 -0.1142  0.3146
56635POPI   C4B90292   2.868  35.027  14.303 -0.2432 -0.0170 -0.0740
56636POPI    C190293  11.967  20.732  16.441 -0.1770  0.2142 -0.2980
56636POPI    C290294  12.295  20.914  16.303  0.0076  0.0813 -0.0388
56636POPI    C390295  12.049  21.108  16.551  0.1616  0.0079  0.1729
56636POPI   PO490296  12.046  20.474  16.398 -0.2108  0.0463  0.0788
56636POPI   GL190297  12.295  20.267  16.783  0.0745  0.3896  0.0113
56636POPI   GL290298  12.054  20.227  17.067  0.0396 -0.0929 -0.0202
56636POPI   C1A90299  12.491  20.008  17.050  0.1757  0.0056 -0.2918
56636POPI   D2A90300  12.664  20.023  17.359 -0.2041 -0.1376 -0.1088
56636POPI   C3A90301  12.751  19.667  17.578  0.3381 -0.1684 -0.3975
56636POPI   C4A90302  13.050  19.400  17.491 -0.0334  0.1362 -0.0359
56636POPI   C1B90303  11.984  19.783  17.117 -0.2921 -0.0837 -0.1033
56636POPI   C2B90304  11.994  19.629  17.575  0.0688 -0.5263 -0.0259
56636POPI   C3B90305  11.822  19.325  17.719  0.2796 -0.2374  0.2392
56636POPI   C4B90306  11.775  18.976  17.840 -0.0315  0.3329  0.2121
56637POPI    C190307  31.117  30.070   5.678 -0.0921 -0.0820 -0.1582
56637POPI    C290308  31.252  30.445   5.719  0.0793 -0.1305 -0.2730
56637POPI    C390309  31.117  30.318   5.364  0.0431 -0.1846 -0.2401
56637POPI   PO490310  30.920  29.937   5.957  0.1435 -0.1720  0.1664
56637POPI   GL190311  31.071  29.875   6.422  0.2299  0.1090 -0.0371
56637POPI   GL290312  30.753  29.991   6.407  0.0165  0.0373 -0.1187
56637POPI   C1A90313  31.121  29.575   6.708 -0.3265 -0.1541  0.1382
56637POPI   D2A90314  31.268  29.298   6.969 -0.1474  0.0872 -0.1255
56637POPI   C3A90315  31.084  29.293   7.337 -0.0710  0.0727  0.2332
56637POPI   C4A90316  30.945  29.372   7.779  0.2046  0.1455 -0.0432
56637POPI   C1B90317  30.568  29.701   6.614  0.0644  0.0534  0.0925
56637POPI   C2B90318  30.733  29.579   7.039  0.0251 -0.1084  0.1210
56637POPI   C3B90319  30.592  29.234   7.318 -0.0353 -0.3455 -0.1847
56637POPI   C4B90320  30.359  28.890   7.583 -0.0692  0.0883 -0.1425
56638POPI    C190321  20.648  29.978   7.222 -0.0236  0.2462  0.1564
56638POPI    C290322  20.488  29.611   7.205  0.1944  0.1431  0.3055
56638POPI    C390323  20.687  29.758   6.890 -0.0361  0.2005  0.1853
56638POPI   PO490324  20.870  29.977   7.388 -0.0827  0.3772  0.2762
56638POPI   GL190325  20.968  29.605   7.725 -0.0954  0.0723  0.4402
56638POPI   GL290326  21.092  29.860   7.924 -0.0966 -0.2019  0.3105
56638POPI   C1A90327  21.231  29.334   8.031  0.1209 -0.0036 -0.0325
56638POPI   D2A90328  21.619  29.157   8.248 -0.1087  0.0294 -0.1344
56638POPI   C3A90329  21.830  28.741   8.071  0.1230 -0.0274 -0.2018
56638POPI   C4A90330  22.234  28.681   8.054  0.2983  0.1691 -0.3924
56638POPI   C1B90331  21.462  29.755   8.050  0.0283 -0.1690 -0.2144
56638POPI   C2B90332  21.727  29.630   8.394  0.2608 -0.2242 -0.0638
56638POPI   C3B90333  21.899  29.665   8.726  0.3278  0.2045 -0.1028
56638POPI   C4B90334  22.144  29.667   9.014  0.0965 -0.0581  0.0673
56639POPI    C190335  20.299  19.915   7.901 -0.0743  0.1087 -0.2734
56639POPI    C290336  20.174  19.588   7.708  0.0624 -0.2215  0.1899
56639POPI    C390337  19.907  19.840   7.867 -0.0430 -0.1159 -0.1508
56639POPI   PO490338  20.474  20.019   7.712 -0.1691 -0.1827  0.0950
56639POPI   GL190339  20.849  19.847   7.724 -0.1790  0.0867 -0.0902
56639POPI   GL290340  20.949  19.944   7.368  0.0921  0.0071 -0.2411
56639POPI   C1A90341  20.899  19.653   8.255  0.0768  0.1456  0.1810
56639POPI   D2A90342  21.301  19.696   8.507  0.2288  0.2065  0.0906
56639POPI   C3A90343  21.565  19.326   8.577  0.0192 -0.1200  0.0354
56639POPI   C4A90344  21.474  18.908   8.509  0.1237 -0.0333 -0.0116
56639POPI   C1B90345  21.364  19.724   7.470 -0.1281 -0.1391  0.0412
56639POPI   C2B90346  21.654  19.668   7.724  0.0063  0.0526 -0.1336
56639POPI   C3B90347  21.808  19.603   8.200 -0.1589 -0.2018  0.1957
56639POPI   C4B90348  22.029  19.434   8.625  0.1210  0.1400 -0.1482
56640POPI    C190349  11.885  23.218  18.142 -0.1288 -0.1113  0.1000
56640POPI    C290350  11.666  23.128  17.820 -0.0799 -0.0585  0.0517
56640POPI    C390351  11.489  23.175  18.175 -0.1879  0.2968 -0.0465
56640POPI   PO490352  12.039  23.022  18.201 -0.1878 -0.1543 -0.3637
56640POPI   GL190353  12.350  23.060  18.570  0.3116 -0.0546 -0.3367
56640POPI   GL290354  12.142  23.379  18.595  0.0878 -0.1283  0.2500
56640POPI   C1A90355  12.350  22.857  19.027  0.1110  0.1851 -0.0590
56640POPI   D2A90356  12.132  22.704  19.423 -0.1638  0.2854 -0.3516
56640POPI   C3A90357  12.421  22.400  19.701  0.2165  0.2796 -0.0926
56640POPI   C4A90358  12.550  22.014  19.652  0.2262  0.0854 -0.0976
56640POPI   C1B90359  12.092  23.278  18.985  0.1778 -0.1385 -0.1721
56640POPI   C2B90360  12.334  23.235  19.375  0.0343 -0.0462 -0.1181
56640POPI   C3B90361  12.177  23.314  19.776  0.0159 -0.0923  0.2965
56640POPI   C4B90362  12.326  23.470  20.087 -0.3927  0.2416 -0.2505
56641POPI    C190363  12.855  31.064  16.345  0.0106 -0.1595 -0.0252
56641POPI    C290364  12.869  31.043  15.946  0.0564 -0.3531 -0.0134
56641POPI    C390365  12.517  31.072  16.132  0.0499  0.0209 -0.0815
56641POPI   PO490366  13.172  31.122  16.379 -0.0117  0.2283 -0.0741
56641POPI   GL190367  13.461  31.172  16.678  0.2862 -0.1566  0.2763
56641POPI   GL290368  13.530  30.860  16.640  0.0471 -0.1733  0.1142
56641POPI   C1A90369  13.774  31.435  16.940 -0.2231  0.0387  0.0507
56641POPI   D2A90370  14.149  31.531  17.239  0.1741 -0.3294 -0.1418
56641POPI   C3A90371  14.360  31.937  17.404 -0.1036  0.3226 -0.1233
56641POPI   C4A90372  14.250  32.082  17.781  0.1751  0.1945 -0.1803
56641POPI   C1B90373  13.874  30.753  16.817 -0.0285  0.0141  0.2281
56641POPI   C2B90374  14.224  30.677  17.043 -0.1009 -0.1535  0.1106
56641POPI   C3B90375  14.585  30.588  17.346  0.1437 -0.0595 -0.0056
56641POPI   C4B90376  14.990  30.748  17.432  0.0962  0.1538 -0.3713
56642POPI    C190377   3.905  21.270   5.487 -0.2954  0.0756 -0.0679
56642POPI    C290378   3.757  21.632   5.402 -0.2822  0.0312 -0.2831
56642POPI    C390379   4.012  21.456   5.149 -0.0593 -0.0020 -0.0369
56642POPI   PO490380   3.639  21.080   5.568  0.1328  0.0735 -0.0170
56642POPI   GL190381   3.215  21.183   5.643 -0.2096 -0.3503  0.2279
56642POPI   GL290382   2.873  21.314   5.555  0.0579  0.1070 -0.0605
56642POPI   C1A90383   3.114  20.986   6.060 -0.1314  0.1685  0.0304
56642POPI   D2A90384   2.842  20.942   6.334 -0.0104  0.1108  0.2566
56642POPI   C3A90385   2.435  20.972   6.320 -0.1655 -0.2878 -0.2019
56642POPI   C4A90386   2.034  20.838   6.334 -0.1206 -0.1521 -0.2165
56642POPI   C1B90387   2.711  21.157   5.887 -0.1562 -0.2634 -0.1223
56642POPI   C2B90388   2.324  21.364   5.996  0.0240 -0.2009 -0.1316
56642POPI   C3B90389   2.058  21.324   6.468 -0.1419 -0.0491 -0.0861
56642POPI   C4B90390   1.694  21.284   6.625  0.0798 -0.1060  0.1199
56643POPI    C190391  11.131  19.479  15.315 -0.2862 -0.1824  0.0260
56643POPI    C290392  11.027  19.735  15.026  0.2987 -0.0612 -0.0834
56643POPI    C390393  10.901  19.795  15.401  0.0679  0.1389 -0.1912
56643POPI   PO490394  10.948  19.248  15.330  0.2686  0.1117  0.1656
56643POPI   GL190395  10.691  19.037  15.548 -0.0374  0.4800  0.1810
56643POPI   GL290396  10.837  18.816  15.490 -0.3158  0.0854 -0.2498
56643POPI   C1A90397  10.521  19.152  15.955  0.4126 -0.0938 -0.2666
56643POPI   D2A90398  10.380  18.977  16.376 -0.0480 -0.1632 -0.1345
56643POPI   C3A90399  10.477  19.244  16.734 -0.3024 -0.2217  0.3134
56643POPI   C4A90400  10.480  19.335  17.096  0.2035  0.0718 -0.0450
56643POPI   C1B90401  10.698  18.529  15.728 -0.0169  0.1205 -0.0916
56643POPI   C2B90402  10.515  18.452  16.048  0.2188  0.0423  0.2965
56643POPI   C3B90403  10.363  18.379  16.470  0.1143  0.0706  0.0135
56643POPI   C4B90404  10.154  18.296  16.774 -0.5765 -0.1260  0.2335
56644POPI    C190405  34.964  11.112   2.438 -0.0716 -0.0490 -0.2275
56644POPI    C290406  34.821  10.908   2.125  0.0035 -0.0759 -0.2446
56644POPI    C390407  35.210  11.003   2.142  0.0153 -0.1443 -0.1207
56644POPI   PO490408  34.900  10.966   2.684  0.1499 -0.1619  0.1375
56644POPI   GL190409  34.462  10.927   2.988 -0.0468  0.2072  0.1146
56644POPI   GL290410  34.447  10.554   3.001 -0.0642 -0.1583  0.0133
56644POPI   C1A90411  34.246  11.170   3.339  0.1005  0.0727 -0.1130
56644POPI   D2A90412  34.120  11.414   3.759  0.2378  0.0948  0.0650
56644POPI   C3A90413  34.329  11.596   4.026  0.0973  0.0962  0.2843
56644POPI   C4A90414  34.685  11.867   4.113  0.2478 -0.1872  0.1432
56644POPI   C1B90415  34.386  10.637   3.419  0.1090  0.1333 -0.2287
56644POPI   C2B90416  34.326  10.915   3.736 -0.1095  0.0609 -0.4513
56644POPI   C3B90417  34.184  10.955   4.035  0.5007  0.3194 -0.1057
56644POPI   C4B90418  34.175  11.233   4.396 -0.3096  0.3084 -0.0286
56645POPI    C190419  17.480  24.534  14.587  0.2588 -0.1139 -0.1124
56645POPI    C290420  17.121  24.545  14.410  0.1904  0.3062  0.0463
56645POPI    C390421  17.251  24.206  14.578 -0.0884  0.1245 -0.0996
56645POPI   PO490422  17.553  24.767  14.669  0.4066  0.0452 -0.2767
56645POPI   GL190423  17.904  25.005  14.731 -0.0274  0.0849 -0.0196
56645POPI   GL290424  17.576  25.273  14.817 -0.1353 -0.3055 -0.3712
56645POPI   C1A90425  18.121  25.320  15.041  0.0137 -0.0519  0.1401
56645POPI   D2A90426  18.065  25.797  15.256 -0.0076  0.1765  0.2700
56645POPI   C3A90427  18.363  25.883  15.492  0.0028  0.1688  0.3064
56645POPI   C4A90428  18.697  26.214  15.638 -0.4406  0.1110  0.2256
56645POPI   C1B90429  17.714  25.430  15.221 -0.1996 -0.2141  0.0873
56645POPI   C2B90430  18.114  25.444  15.549  0.2121  0.1533 -0.0409
56645POPI   C3B90431  18.283  25.509  15.931 -0.3209  0.0116 -0.1486
56645POPI   C4B90432  18.391  25.277  16.345 -0.0099  0.0436  0.2433
56646POPI    C190433   1.308  20.008   2.650 -0.0272 -0.1990 -0.2339
56646POPI    C290434   1.635  19.788   2.578  0.0703 -0.0949 -0.1111
56646POPI    C390435   1.566  20.120   2.365  0.2103  0.0570  0.0781
56646POPI   PO490436   1.403  20.122   2.925 -0.1303  0.3151 -0.1345
56646POPI   GL190437   1.295  20.208   3.387 -0.0019 -0.4520  0.2150
56646POPI   GL290438   1.451  19.953   3.438  0.2845  0.1445  0.0869
56646POPI   C1A90439   0.907  20.120   3.528 -0.3188 -0.0366  0.0623
56646POPI   D2A90440   0.635  20.054   3.879  0.1372 -0.0147 -0.1246
56646POPI   C3A90441   0.447  20.125   4.328 -0.2595  0.1493 -0.1257
56646POPI   C4A90442   0.098  20.134   4.582 -0.1648 -0.1809 -0.0246
56646POPI   C1B90443   1.231  19.763   3.733 -0.3537 -0.4826  0.1568
56646POPI   C2B90444   0.924  19.636   4.070 -0.0604  0.0528 -0.0732
56646POPI   C3B90445   0.666  19.721   4.239 -0.2508  0.1069 -0.0882
56646POPI   C4B90446   0.207  19.709   4.197  0.0843  0.1206  0.1160
56647POPI    C190447   7.783   9.090  13.451 -0.0521  0.0910 -0.1612
56647POPI    C290448   7.830   8.814  13.166  0.3108  0.0439 -0.0578
56647POPI    C390449   8.122   9.078  13.239  0.0577  0.3099 -0.0007
56647POPI   PO490450   7.696   8.921  13.665  0.1452  0.1205 -0.0464
56647POPI   GL190451   7.726   8.986  14.099  0.1278  0.0200  0.3386
56647POPI   GL290452   7.815   8.670  14.058  0.1248 -0.1627  0.6155
56647POPI   C1A90453   7.368   9.100  14.302 -0.0488  0.2198  0.0802
56647POPI   D2A90454   7.167   9.110  14.635  0.1046  0.1086  0.0724
56647POPI   C3A90455   7.128   9.596  14.734  0.0013 -0.2471 -0.4167
56647POPI   C4A90456   6.929   9.900  14.750 -0.2107  0.0175 -0.1010
56647POPI   C1B90457   7.563   8.604  14.405  0.0567  0.2610  0.0458
56647POPI   C2B90458   7.335   8.656  14.594  0.0391  0.1515 -0.1800
56647POPI   C3B90459   7.117   8.802  15.007  0.1127  0.1604 -0.2545
56647POPI   C4B90460   7.271   8.717  15.402 -0.1995  0.1641  0.2130
56648POPI    C190461   2.201  32.423  10.902  0.1400 -0.0711 -0.0357
56648POPI    C290462   2.213  32.026  10.860 -0.0319 -0.1021  0.2011
56648POPI    C390463   2.546  32.227  10.951  0.0566 -0.1912  0.0757
56648POPI   PO490464   1.834  32.399  10.998  0.0129  0.0166 -0.0931
56648POPI   GL190465   1.405  32.362  10.624 -0.0243 -0.0893 -0.1913
56648POPI   GL290466   1.380  32.275  10.900 -0.2873  0.1894  0.3382
56648POPI   C1A90467   0.949  32.392  10.515 -0.2873 -0.0027 -0.0735
56648POPI   D2A90468   0.387  32.329  10.509  0.1667 -0.0538  0.1548
56648POPI   C3A90469   0.049  32.183  10.633  0.0937 -0.0236 -0.3363
56648POPI   C4A90470  35.088  32.136  10.857  0.1806  0.1377  0.1259
56648POPI   C1B90471   0.979  32.272  11.193  0.3201 -0.0218 -0.0842
56648POPI   C2B90472   0.807  32.258  11.582 -0.0077  0.1346 -0.1287
56648POPI   C3B90473   0.521  32.448  11.647 -0.1521 -0.3536  0.3879
56648POPI   C4B90474   0.096  32.614  11.771 -0.2641 -0.0605  0.1914
56649POPI    C190475  19.729  31.614   8.762  0.0510 -0.1240  0.0291
56649POPI    C290476  19.519  31.569   8.424  0.0978 -0.0947 -0.0040
56649POPI    C390477  19.426  31.863   8.680  0.0027 -0.1743  0.0538
56649POPI   PO490478  19.783  31.324   8.836  0.3345  0.3356 -0.1862
56649POPI   GL190479  19.762  31.116   9.270  0.1326  0.2792  0.1595
56649POPI   GL290480  20.091  31.080   9.207 -0.1325  0.0123  0.0071
56649POPI   C1A90481  19.818  31.201   9.641 -0.0751 -0.1105 -0.0370
56649POPI   D2A90482  19.994  31.278  10.073  0.1687 -0.2563 -0.2188
56649POPI   C3A90483  19.846  31.093  10.420  0.0238 -0.0596 -0.2573
56649POPI   C4A90484  19.637  30.984  10.780  0.0424 -0.1873  0.0227
56649POPI   C1B90485  20.309  31.056   9.604  0.1108  0.0344  0.2761
56649POPI   C2B90486  20.430  30.996  10.007  0.0531 -0.2143 -0.1804
56649POPI   C3B90487  20.431  31.202  10.405  0.1724  0.1830 -0.1835
56649POPI   C4B90488  20.662  31.114  10.788 -0.1466 -0.3602 -0.1642
56650POPI    C190489   8.325  33.842  16.093 -0.1766 -0.0420 -0.1206
56650POPI    C290490   8.490  33.564  15.858  0.0150  0.0425 -0.0873
56650POPI    C390491   8.474  33.507  16.253  0.1090  0.1059 -0.0743
56650POPI   PO490492   8.052  33.853  15.941  0.1741  0.0021 -0.0585
56650POPI   GL190493   7.795  34.211  15.929  0.0768 -0.2309  0.1073
56650POPI   GL290494   7.865  34.525  16.107  0.1296 -0.1396  0.0921
56650POPI   C1A90495   7.497  34.199  16.251  0.1018 -0.2350  0.3114
56650POPI   D2A90496   7.172  34.146  16.481 -0.0123  0.2831  0.3232
56650POPI   C3A90497   7.283  34.194  16.769 -0.0588  0.2000  0.3171
56650POPI   C4A90498   7.690  34.291  17.037 -0.2662  0.2775 -0.0337
56650POPI   C1B90499   7.656  34.591  16.511  0.1178  0.0066 -0.2253
56650POPI   C2B90500   7.331  34.624  16.940  0.1734 -0.2264  0.1376
56650POPI   C3B90501   7.053  34.464  17.196 -0.0054  0.0401  0.0606
56650POPI   C4B90502   6.786  34.174  17.467  0.0873  0.0659 -0.0868
56651POPI    C190503  19.333  17.266  10.559 -0.2921  0.3470 -0.2924
56651POPI    C290504  19.004  17.482  10.629 -0.2666  0.1771  0.3921
56651POPI    C390505  18.999  17.086  10.687 -0.0265  0.1310  0.1090
56651POPI   PO490506  19.552  17.302  10.749  0.0083  0.0801  0.1075
56651POPI   GL190507  19.736  17.592  11.081 -0.1675 -0.0355 -0.0703
56651POPI   GL290508  19.885  17.467  11.063  0.2694  0.2077 -0.0540
56651POPI   C1A90509  19.837  17.927  11.274 -0.1104  0.1432  0.0684
56651POPI   D2A90510  19.808  18.169  11.617 -0.0722  0.1061 -0.2766
56651POPI   C3A90511  20.020  18.251  12.069  0.1493 -0.1351 -0.0198
56651POPI   C4A90512  20.365  18.183  12.361  0.3120 -0.0063  0.2694
56651POPI   C1B90513  20.226  17.386  11.413 -0.0669  0.2728  0.1910
56651POPI   C2B90514  20.483  17.478  11.588  0.0930  0.4916  0.4486
56651POPI   C3B90515  20.783  17.675  11.617  0.0251 -0.0280 -0.2533
56651POPI   C4B90516  21.172  17.493  11.628  0.0405 -0.0733  0.1758
56652POPI    C190517  20.898   8.142  10.353  0.0774  0.0070  0.0464
56652POPI    C290518  20.674   7.983  10.062 -0.0110  0.3348 -0.0676
56652POPI    C390519  20.557   7.955  10.444  0.0308  0.0327 -0.0757
56652POPI   PO490520  21.149   8.085  10.307  0.1320 -0.1059  0.3342
56652POPI   GL190521  21.554   8.153  10.581  0.0994 -0.1599 -0.1399
56652POPI   GL290522  21.503   8.476  10.327 -0.1671 -0.3271  0.2195
56652POPI   C1A90523  21.914   8.267  10.783  0.1068 -0.1433 -0.0321
56652POPI   D2A90524  22.155   8.316  11.137 -0.0006 -0.0862  0.1645
56652POPI   C3A90525  22.603   8.239  11.104 -0.2210 -0.0854 -0.0414
56652POPI   C4A90526  23.006   8.179  11.046  0.1034 -0.2141  0.1515
56652POPI   C1B90527  21.926   8.560  10.344  0.0198 -0.1077  0.1489
56652POPI   C2B90528  22.295   8.591  10.620  0.2545  0.3642 -0.0283
56652POPI   C3B90529  22.748   8.431  10.686 -0.1179  0.3217  0.1636
56652POPI   C4B90530  23.283   8.473  10.626 -0.1388 -0.2553  0.2375
56653POPI    C190531  13.887  25.436  17.506  0.0374  0.1900 -0.0409
56653POPI    C290532  13.794  25.299  17.142  0.2649  0.2947 -0.1393
56653POPI    C390533  13.557  25.567  17.322 -0.1791 -0.2179  0.0521
56653POPI   PO490534  13.909  25.239  17.644 -0.1842 -0.0778 -0.2380
56653POPI   GL190535  13.750  25.009  18.010 -0.0570  0.0755 -0.0228
56653POPI   GL290536  13.623  25.408  18.206  0.2589 -0.2470  0.2048
56653POPI   C1A90537  13.970  25.058  18.440  0.2016 -0.0222 -0.5078
56653POPI   D2A90538  14.063  25.103  18.879 -0.1410  0.2119  0.0026
56653POPI   C3A90539  14.067  24.940  19.231 -0.0180  0.0408 -0.2280
56653POPI   C4A90540  13.878  24.818  19.661  0.0323 -0.0620  0.2179
56653POPI   C1B90541  13.704  25.528  18.642  0.0678  0.3164 -0.1115
56653POPI   C2B90542  13.736  25.577  19.169  0.1579 -0.1096  0.0080
56653POPI   C3B90543  14.105  25.720  19.436  0.2267  0.0376 -0.1233
56653POPI   C4B90544  14.221  25.747  19.886  0.3998 -0.1963 -0.2489
56654POPI    C190545  17.190  15.906  13.136  0.2265  0.1876 -0.2855
56654POPI    C290546  17.584  15.935  13.202  0.1589 -0.1268  0.2829
56654POPI    C390547  17.437  15.621  13.002  0.2253  0.1488 -0.2051
56654POPI   PO490548  17.160  16.141  13.386 -0.3662 -0.1438 -0.0623
56654POPI   GL190549  17.446  16.000  13.823 -0.1159  0.0510 -0.1255
56654POPI   GL290550  17.696  16.126  13.844  0.1564  0.2363  0.2864
56654POPI   C1A90551  17.751  15.772  14.164 -0.1751 -0.0205  0.2654
56654POPI   D2A90552  17.896  15.703  14.500 -0.2124 -0.1125  0.0422
56654POPI   C3A90553  18.155  15.865  14.809  0.1432 -0.2114  0.1341
56654POPI   C4A90554  18.087  15.876  15.158 -0.0409  0.0110  0.0688
56654POPI   C1B90555  17.687  16.312  14.191  0.3804 -0.1074 -0.2143
56654POPI   C2B90556  18.017  16.278  14.447  0.0383  0.1390 -0.4005
56654POPI   C3B90557  18.369  16.305  14.830  0.0563  0.2220  0.0468
56654POPI   C4B90558  18.608  16.524  15.118 -0.0166  0.0679  0.5422
56655POPI    C190559  10.765  31.835  16.655  0.0074 -0.0053 -0.0453
56655POPI    C290560  11.025  31.753  16.363 -0.0416  0.2712 -0.1690
56655POPI    C390561  11.005  32.122  16.515  0.1448  0.0742  0.3465
56655POPI   PO490562  10.869  31.727  16.876  0.2875 -0.0939  0.0375
56655POPI   GL190563  10.703  31.651  17.317 -0.0511  0.0389 -0.0382
56655POPI   GL290564  10.948  31.801  17.369  0.1379  0.2661  0.0159
56655POPI   C1A90565  10.686  31.575  17.768  0.0463 -0.1247  0.0558
56655POPI   D2A90566  10.609  31.470  18.289 -0.4578  0.0688  0.1629
56655POPI   C3A90567  10.695  31.081  18.531  0.0501  0.2699  0.1997
56655POPI   C4A90568  10.651  30.852  18.925  0.0786  0.4426 -0.0218
56655POPI   C1B90569  11.084  32.086  17.627 -0.3511  0.1239 -0.0069
56655POPI   C2B90570  10.980  32.439  17.958  0.0159  0.2074 -0.0191
56655POPI   C3B90571  11.023  32.681  18.318 -0.1549  0.1911 -0.2012
56655POPI   C4B90572  11.202  32.889  18.680  0.0318  0.1457 -0.2041
56656POPI    C190573  20.976   6.437  10.468  0.0293 -0.1955 -0.0526
56656POPI    C290574  20.592   6.326  10.494  0.0128 -0.1849 -0.2452
56656POPI    C390575  20.686   6.714  10.468  0.0496 -0.1736  0.0447
56656POPI   PO490576  21.056   6.214  10.327 -0.3375 -0.2389  0.0543
56656POPI   GL190577  21.281   5.838  10.497 -0.0934  0.2929  0.2101
56656POPI   GL290578  21.330   5.773  10.789 -0.4599 -0.2327  0.1229
56656POPI   C1A90579  21.462   5.681  10.134 -0.0424  0.1311  0.3560
56656POPI   D2A90580  21.816   5.937   9.917  0.0661  0.0024 -0.4406
56656POPI   C3A90581  22.134   5.938   9.879 -0.0206  0.2730  0.1249
56656POPI   C4A90582  22.460   5.811  10.022  0.0404  0.0603  0.4510
56656POPI   C1B90583  21.633   5.859  11.042  0.1443  0.0026 -0.0781
56656POPI   C2B90584  21.972   5.960  11.367 -0.1423 -0.0710  0.3014
56656POPI   C3B90585  22.071   6.001  11.738 -0.3215  0.1793 -0.0410
56656POPI   C4B90586  21.960   6.289  12.080 -0.0767 -0.0792  0.1326
56657POPI    C190587  28.111   6.139   3.371 -0.0178 -0.0264 -0.0039
56657POPI    C290588  28.191   5.862   3.648 -0.1737  0.0185  0.0865
56657POPI    C390589  28.247   5.779   3.261  0.1787  0.0031  0.1392
56657POPI   PO490590  28.134   6.335   3.572  0.1401  0.0307  0.0476
56657POPI   GL190591  28.195   6.658   3.675 -0.0136 -0.2458  0.1007
56657POPI   GL290592  28.237   7.026   3.703 -0.3174  0.0409 -0.2841
56657POPI   C1A90593  28.331   6.757   4.167  0.0835 -0.1702  0.0583
56657POPI   D2A90594  28.470   6.920   4.546  0.0159  0.1334 -0.1956
56657POPI   C3A90595  28.606   7.247   4.827  0.2478 -0.2015  0.1014
56657POPI   C4A90596  28.586   7.129   5.277 -0.3573  0.2570  0.1201
56657POPI   C1B90597  28.376   7.352   4.091  0.3200 -0.2009  0.0921
56657POPI   C2B90598  28.382   7.519   4.430 -0.0705  0.2184 -0.1282
56657POPI   C3B90599  28.618   7.777   4.720 -0.3191  0.2565 -0.1320
56657POPI   C4B90600  28.643   8.216   4.687 -0.0048 -0.0867  0.0720
56658POPI    C190601  15.987  10.446  14.410 -0.0230  0.2246  0.2808
56658POPI    C290602  16.275  10.485  14.135  0.0083  0.1880  0.3084
56658POPI    C390603  15.943  10.281  14.048 -0.0372  0.2848  0.2550
56658POPI   PO490604  16.013  10.666  14.468  0.0325  0.3313  0.2272
56658POPI   GL190605  16.268  10.954  14.724 -0.0059  0.0102  0.1493
56658POPI   GL290606  16.007  11.222  14.620 -0.0402 -0.3462 -0.0435
56658POPI   C1A90607  16.585  10.885  14.989  0.0058  0.3707 -0.2045
56658POPI   D2A90608  16.540  10.975  15.392 -0.0249 -0.0305  0.0293
56658POPI   C3A90609  16.726  10.917  15.767 -0.2352 -0.3320 -0.0237
56658POPI   C4A90610  16.857  11.001  16.136 -0.0713  0.0540  0.1027
56658POPI   C1B90611  16.207  11.335  15.019 -0.1348 -0.0580 -0.0283
56658POPI   C2B90612  16.336  11.392  15.451 -0.0611  0.0203 -0.1618
56658POPI   C3B90613  16.514  11.345  15.949 -0.1615 -0.0603  0.0651
56658POPI   C4B90614  16.598  11.521  16.298 -0.1465 -0.2941  0.3350
56659POPI    C190615  19.786  15.645   7.741  0.2137  0.0446 -0.1416
56659POPI    C290616  19.405  15.634   7.862  0.2237  0.0270 -0.1116
56659POPI    C390617  19.579  15.304   7.716  0.3020 -0.0278  0.1041
56659POPI   PO490618  19.918  15.846   8.018 -0.0366 -0.0010 -0.1709
56659POPI   GL190619  20.400  15.971   8.039 -0.4040 -0.0634 -0.0907
56659POPI   GL290620  20.568  16.071   7.789  0.0097  0.0258 -0.3271
56659POPI   C1A90621  20.788  15.999   8.297 -0.0296  0.2808  0.3155
56659POPI   D2A90622  21.186  16.049   8.340 -0.1711  0.0619 -0.2463
56659POPI   C3A90623  21.599  16.323   8.386  0.2028 -0.0205  0.0884
56659POPI   C4A90624  22.044  16.454   8.370 -0.1486  0.3602  0.2177
56659POPI   C1B90625  20.935  15.879   7.829  0.3748 -0.3739  0.0438
56659POPI   C2B90626  21.209  16.017   7.806  0.0990 -0.1298  0.1896
56659POPI   C3B90627  21.538  16.079   7.848 -0.0174  0.2202  0.0395
56659POPI   C4B90628  21.952  15.997   7.981  0.0732 -0.0189 -0.1751
56660POPI    C190629  25.536  13.825   1.075  0.0669  0.0102 -0.1407
56660POPI    C290630  25.666  13.455   0.996 -0.2730 -0.0958 -0.2103
56660POPI    C390631  25.803  13.765   0.783 -0.0789 -0.1960 -0.2324
56660POPI   PO490632  25.515  13.993   1.413 -0.1156  0.0732  0.0748
56660POPI   GL190633  25.775  14.148   1.617  0.2940  0.2203 -0.0797
56660POPI   GL290634  25.973  13.947   1.760 -0.1110  0.3817 -0.0945
56660POPI   C1A90635  25.874  14.624   1.746  0.0221 -0.1163 -0.0204
56660POPI   D2A90636  26.279  14.783   1.472  0.1504 -0.1166  0.0364
56660POPI   C3A90637  26.697  14.825   1.628  0.0117 -0.0951  0.0186
56660POPI   C4A90638  27.142  14.735   1.787 -0.2421 -0.1178  0.0650
56660POPI   C1B90639  26.217  13.759   2.114 -0.4355  0.1980  0.1219
56660POPI   C2B90640  26.415  14.072   2.252  0.0864  0.2026 -0.2643
56660POPI   C3B90641  26.678  14.478   2.337  0.2073  0.0807  0.2164
56660POPI   C4B90642  26.654  14.885   2.586 -0.2280 -0.4830 -0.1769
56661POPI    C190643  30.557   1.333   6.658 -0.0423 -0.1103 -0.1742
56661POPI    C290644  30.869   1.211   6.876 -0.0779  0.0645 -0.0235
56661POPI    C390645  30.759   1.005   6.551  0.0919 -0.0906  0.0163
56661POPI   PO490646  30.543   1.688   6.737 -0.0687  0.1573  0.3025
56661POPI   GL190647  30.433   2.000   7.011 -0.2443  0.1074  0.2150
56661POPI   GL290648  30.539   2.236   7.250 -0.1074  0.0521 -0.0359
56661POPI   C1A90649  30.151   1.892   7.332  0.4695 -0.0112 -0.0954
56661POPI   D2A90650  29.937   2.013   7.613  0.1817  0.0505 -0.1335
56661POPI   C3A90651  29.964   1.776   7.951  0.0161 -0.0838  0.3967
56661POPI   C4A90652  30.041   1.834   8.311 -0.0574 -0.0059  0.3362
56661POPI   C1B90653  30.396   2.143   7.644  0.0106  0.1344  0.1455
56661POPI   C2B90654  30.351   2.192   8.077  0.2657  0.1824  0.2615
56661POPI   C3B90655  30.280   2.333   8.369  0.2724  0.2258 -0.0860
56661POPI   C4B90656  30.291   2.227   8.787  0.1780  0.1139 -0.1070
56662POPI    C190657  11.093   8.264  14.708  0.1469  0.1588  0.0747
56662POPI    C290658  11.106   8.041  14.377  0.1781 -0.2111  0.3219
56662POPI    C390659  10.792   8.279  14.445  0.3272  0.1242 -0.1347
56662POPI   PO490660  11.312   8.149  14.853  0.0700 -0.0501  0.3957
56662POPI   GL190661  11.337   7.997  15.199 -0.1223 -0.1737 -0.0035
56662POPI   GL290662  11.041   8.147  15.310 -0.1408  0.1217 -0.2715
56662POPI   C1A90663  11.490   7.845  15.558 -0.1374  0.0947  0.1105
56662POPI   D2A90664  11.416   7.866  15.976 -0.2062 -0.1248  0.0799
56662POPI   C3A90665  11.401   7.849  16.502  0.1241  0.1923  0.1693
56662POPI   C4A90666  11.006   7.923  16.707  0.0130 -0.0316  0.0999
56662POPI   C1B90667  11.084   8.156  15.767  0.0256 -0.0676  0.2780
56662POPI   C2B90668  11.193   8.190  16.240 -0.0606 -0.2022  0.2734
56662POPI   C3B90669  11.358   8.378  16.537  0.0701 -0.0241  0.3759
56662POPI   C4B90670  11.465   8.594  16.956 -0.1543 -0.3188  0.0282
56663POPI    C190671   5.365   0.800  13.153 -0.0838  0.2364  0.4067
56663POPI    C290672   5.099   0.529  13.279  0.1404 -0.0277  0.3135
56663POPI    C390673   5.460   0.412  13.152  0.1918  0.3034  0.1500
56663POPI   PO490674   5.330   0.971  13.268 -0.2621  0.1026  0.0897
56663POPI   GL190675   5.256   1.312  13.565  0.2066 -0.0126 -0.2416
56663POPI   GL290676   5.549   1.114  13.699  0.1372 -0.0920  0.0902
56663POPI   C1A90677   5.235   1.622  13.781  0.1339 -0.2063  0.0406
56663POPI   D2A90678   4.991   1.858  13.976  0.0083  0.1090  0.1863
56663POPI   C3A90679   4.865   1.923  14.431 -0.1809 -0.2143  0.4131
56663POPI   C4A90680   4.696   1.935  14.780  0.2062 -0.1769 -0.1954
56663POPI   C1B90681   5.264   1.186  14.017  0.2830 -0.0800 -0.0792
56663POPI   C2B90682   4.947   1.420  14.281  0.0519  0.0412  0.1163
56663POPI   C3B90683   4.525   1.524  14.347 -0.2603 -0.2232  0.0718
56663POPI   C4B90684   4.059   1.586  14.312  0.0492 -0.0804 -0.3247
56664POPI    C190685  28.359   6.605   3.212  0.0371  0.0538  0.0363
56664POPI    C290686  28.466   6.514   2.838  0.2146 -0.0181  0.1042
56664POPI    C390687  28.613   6.304   3.145  0.0243  0.0033  0.2109
56664POPI   PO490688  28.377   6.904   3.273  0.0158  0.2249  0.3304
56664POPI   GL190689  28.675   7.201   3.514 -0.0682  0.1423 -0.5078
56664POPI   GL290690  29.010   7.062   3.571  0.2014  0.1768  0.1528
56664POPI   C1A90691  28.782   7.573   3.715  0.0612  0.0226  0.2234
56664POPI   D2A90692  28.897   7.643   4.126  0.1120  0.1245 -0.3049
56664POPI   C3A90693  28.946   7.954   4.392 -0.2184 -0.1965  0.0531
56664POPI   C4A90694  29.104   8.313   4.568  0.1179  0.0295 -0.3198
56664POPI   C1B90695  28.735   7.025   4.056 -0.1129 -0.2579  0.0067
56664POPI   C2B90696  28.914   7.157   4.485 -0.2108 -0.1033  0.0470
56664POPI   C3B90697  29.150   7.471   4.549 -0.0901  0.0661 -0.0850
56664POPI   C4B90698  29.431   7.905   4.580 -0.2660  0.1627 -0.0064
56665POPI    C190699  19.784  24.983   9.793  0.2335 -0.0623  0.0349
56665POPI    C290700  19.532  25.281   9.879  0.3031  0.0621 -0.1903
56665POPI    C390701  19.549  25.136   9.507  0.4655 -0.0385 -0.1439
56665POPI   PO490702  20.064  25.107   9.921 -0.0491  0.0514 -0.1070
56665POPI   GL190703  20.542  25.233  10.120 -0.0231  0.3493  0.0874
56665POPI   GL290704  20.507  24.978   9.978  0.1198 -0.4251  0.3510
56665POPI   C1A90705  20.920  25.337  10.361  0.2124  0.0611 -0.2722
56665POPI   D2A90706  21.129  25.353  10.693  0.3401 -0.0121  0.1000
56665POPI   C3A90707  21.092  25.752  11.015  0.0673 -0.0615  0.4949
56665POPI   C4A90708  21.410  25.865  11.096 -0.3077 -0.1302  0.0402
56665POPI   C1B90709  20.858  24.859  10.162 -0.1467  0.2302  0.0927
56665POPI   C2B90710  21.279  25.016  10.363  0.1067 -0.0243 -0.1188
56665POPI   C3B90711  21.625  25.155  10.545 -0.2440  0.1048  0.0567
56665POPI   C4B90712  21.895  25.333  10.788 -0.1695 -0.2917  0.0202
56666POPI    C190713   5.214   2.738  11.841  0.3549 -0.1727 -0.0587
56666POPI    C290714   5.373   2.550  11.526 -0.0277 -0.0940 -0.3018
56666POPI    C390715   5.165   2.888  11.473  0.0539  0.0139  0.0549
56666POPI   PO490716   5.114   2.479  11.997 -0.0867 -0.0195 -0.0705
56666POPI   GL190717   4.830   2.369  12.390 -0.2637  0.1122  0.0078
56666POPI   GL290718   5.035   2.413  12.655 -0.0888  0.0999 -0.0642
56666POPI   C1A90719   4.397   2.494  12.354 -0.1458  0.0963 -0.3863
56666POPI   D2A90720   4.207   2.595  12.710  0.3967  0.0682 -0.1306
56666POPI   C3A90721   3.907   2.766  12.572 -0.2602 -0.3040  0.1520
56666POPI   C4A90722   3.430   2.696  12.649 -0.0308 -0.5302  0.3226
56666POPI   C1B90723   4.712   2.549  12.853  0.2115  0.0193 -0.0531
56666POPI   C2B90724   4.540   2.518  13.230 -0.1250 -0.1674 -0.4209
56666POPI   C3B90725   4.229   2.772  13.212 -0.1297 -0.0871  0.0810
56666POPI   C4B90726   3.823   2.709  13.035 -0.1726 -0.0267 -0.0885
56667POPI    C190727  20.312   4.456   9.913  0.1716  0.0562  0.2123
56667POPI    C290728  20.422   4.827   9.811  0.2262 -0.0389 -0.0779
56667POPI    C390729  20.079   4.767  10.009  0.1116  0.1463 -0.2178
56667POPI   PO490730  20.527   4.318   9.957  0.0581  0.0345 -0.2421
56667POPI   GL190731  20.919   4.365  10.227 -0.1530  0.1024 -0.3387
56667POPI   GL290732  20.708   4.361  10.540 -0.2250 -0.1229 -0.0280
56667POPI   C1A90733  21.330   4.295  10.451  0.0513 -0.0118  0.2731
56667POPI   D2A90734  21.423   4.152  10.871  0.4856  0.1319 -0.1652
56667POPI   C3A90735  21.672   3.870  10.838  0.2791  0.0776 -0.1273
56667POPI   C4A90736  22.095   3.696  10.854  0.1324  0.4934  0.2371
56667POPI   C1B90737  21.035   4.451  10.833 -0.0432  0.3598  0.1091
56667POPI   C2B90738  21.106   4.365  11.246  0.0224 -0.0391 -0.0052
56667POPI   C3B90739  21.452   4.243  11.392  0.2265 -0.2472  0.0948
56667POPI   C4B90740  21.807   3.920  11.300 -0.2012  0.1443 -0.1828
56668POPI    C190741  25.156  13.495   1.626  0.0575 -0.0239  0.0728
56668POPI    C290742  24.886  13.273   1.432  0.0974 -0.1244  0.1326
56668POPI    C390743  25.227  13.376   1.250  0.0457 -0.0487  0.0784
56668POPI   PO490744  25.211  13.303   1.879 -0.1769 -0.1020  0.3884
56668POPI   GL190745  25.522  13.390   2.148 -0.0775 -0.1696  0.3962
56668POPI   GL290746  25.757  13.462   1.929  0.1047  0.1391  0.0409
56668POPI   C1A90747  25.421  13.697   2.438  0.1698 -0.1265 -0.1779
56668POPI   D2A90748  25.698  13.812   2.748  0.0333  0.1717 -0.2430
56668POPI   C3A90749  25.735  13.532   3.142  0.0640 -0.2187 -0.1150
56668POPI   C4A90750  26.037  13.431   3.362  0.0929  0.1451  0.0648
56668POPI   C1B90751  25.943  13.501   2.365  0.2706 -0.1671 -0.0787
56668POPI   C2B90752  26.207  13.792   2.622  0.2033  0.3053 -0.3107
56668POPI   C3B90753  26.198  13.829   3.086  0.0358 -0.1255  0.1848
56668POPI   C4B90754  25.881  14.023   3.342 -0.2048  0.2491 -0.2216
56669POPI    C190755   7.005   1.800  14.013  0.2651 -0.0612  0.1213
56669POPI    C290756   7.016   1.463  13.799  0.0658 -0.1085  0.1848
56669POPI    C390757   7.107   1.812  13.626 -0.2353 -0.1276 -0.0159
56669POPI   PO490758   6.832   1.787  14.270  0.2528  0.2027 -0.0307
56669POPI   GL190759   6.970   1.894  14.704  0.2586  0.0635  0.1663
56669POPI   GL290760   6.791   2.252  14.702  0.4670  0.0965 -0.2025
56669POPI   C1A90761   6.764   1.854  15.093 -0.0123  0.1493 -0.1480
56669POPI   D2A90762   6.625   1.856  15.504  0.0458  0.0803 -0.0295
56669POPI   C3A90763   6.351   2.049  15.768 -0.0675  0.1598  0.0793
56669POPI   C4A90764   6.040   1.767  16.015 -0.1052  0.2603  0.3879
56669POPI   C1B90765   6.791   2.403  15.087  0.0747  0.0418 -0.0797
56669POPI   C2B90766   6.635   2.339  15.511 -0.0746 -0.0123 -0.2334
56669POPI   C3B90767   6.347   2.538  15.734  0.2335  0.1168  0.0876
56669POPI   C4B90768   6.065   2.699  15.887  0.0621  0.2939  0.2714
56670POPI    C190769  33.574   7.238   4.859  0.0122 -0.2548  0.0529
56670POPI    C290770  33.842   6.944   4.903  0.0252 -0.2540 -0.0212
56670POPI    C390771  33.961   7.326   4.902 -0.0265 -0.2334  0.3770
56670POPI   PO490772  33.332   7.275   5.101 -0.0517  0.1183 -0.0438
56670POPI   GL190773  33.205   7.283   5.480  0.1547 -0.2248 -0.1468
56670POPI   GL290774  33.065   7.046   5.584 -0.1075  0.1072 -0.3954
56670POPI   C1A90775  32.727   7.484   5.608  0.2390 -0.4121 -0.3026
56670POPI   D2A90776  32.381   7.515   5.833 -0.1087  0.4202  0.0290
56670POPI   C3A90777  32.437   7.418   6.200 -0.1770 -0.0839 -0.1616
56670POPI   C4A90778  32.267   7.215   6.639 -0.1112 -0.0019  0.3087
56670POPI   C1B90779  32.788   7.092   5.915  0.0052  0.1609 -0.2777
56670POPI   C2B90780  32.641   6.959   6.279 -0.0580 -0.3404 -0.2740
56670POPI   C3B90781  32.356   6.723   6.548 -0.0159 -0.2479 -0.2567
56670POPI   C4B90782  32.148   6.848   6.997  0.0270  0.1162  0.0138
56671POPI    C190783  30.505  27.992   3.711 -0.0400 -0.0738  0.0440
56671POPI    C290784  30.440  28.148   3.349 -0.0817 -0.2475 -0.0238
56671POPI    C390785  30.462  28.387   3.669 -0.1113 -0.1003 -0.1315
56671POPI   PO490786  30.401  27.614   3.744 -0.1026  0.3100  0.2310
56671POPI   GL190787  30.067  27.321   3.882  0.3685 -0.1174 -0.0218
56671POPI   GL290788  29.907  27.081   3.772  0.1013  0.1178 -0.0211
56671POPI   C1A90789  29.911  27.283   4.342 -0.0137  0.0251  0.1104
56671POPI   D2A90790  29.813  27.001   4.586  0.2967 -0.0979 -0.1925
56671POPI   C3A90791  29.881  26.916   5.008  0.1422  0.1466  0.1794
56671POPI   C4A90792  29.812  27.057   5.362 -0.0233 -0.0630  0.1031
56671POPI   C1B90793  30.131  26.852   4.139  0.6263  0.0092 -0.1743
56671POPI   C2B90794  30.070  26.607   4.396  0.0072  0.3853  0.2411
56671POPI   C3B90795  29.841  26.484   4.775  0.0617  0.2470  0.0366
56671POPI   C4B90796  29.502  26.597   5.007 -0.3110 -0.0135 -0.0353
56672POPI    C190797  34.004  23.826   2.009  0.2367  0.2292  0.2096
56672POPI    C290798  34.143  24.104   1.757  0.1361  0.1692  0.0875
56672POPI    C390799  34.392  23.923   2.012  0.2520  0.1795 -0.0181
56672POPI   PO490800  33.847  23.698   1.764 -0.1121 -0.0040  0.1061
56672POPI   GL190801  33.490  23.375   1.970  0.0643  0.0467 -0.0603
56672POPI   GL290802  33.316  23.673   1.915 -0.1622  0.0120  0.1418
56672POPI   C1A90803  33.416  23.281   2.435 -0.0148  0.0629  0.3606
56672POPI   D2A90804  33.205  23.052   2.715  0.0728 -0.1330  0.3608
56672POPI   C3A90805  33.194  23.264   3.011 -0.3515 -0.1281 -0.1227
56672POPI   C4A90806  32.989  23.295   3.434 -0.3383  0.1190 -0.2221
56672POPI   C1B90807  33.082  23.668   2.213  0.0357 -0.3021 -0.0110
56672POPI   C2B90808  32.856  23.721   2.654 -0.1679  0.0136  0.2425
56672POPI   C3B90809  32.783  24.040   2.985 -0.2171 -0.1618 -0.0682
56672POPI   C4B90810  32.775  24.334   3.259 -0.0748 -0.1182 -0.1075
56673POPI    C190811  30.924  29.498   5.713 -0.2523 -0.0226  0.3429
56673POPI    C290812  31.186  29.204   5.779 -0.0435  0.0989  0.0633
56673POPI    C390813  31.297  29.585   5.825 -0.1924  0.1481  0.0181
56673POPI   PO490814  30.788  29.368   5.473 -0.0842  0.2967 -0.0874
56673POPI   GL190815  30.459  29.134   5.641  0.1477 -0.2418 -0.2050
56673POPI   GL290816  30.562  29.119   5.944 -0.2533  0.0060  0.0083
56673POPI   C1A90817  30.255  28.792   5.683 -0.0716 -0.1120 -0.1631
56673POPI   D2A90818  30.132  28.420   5.855 -0.1302 -0.4073  0.0367
56673POPI   C3A90819  30.241  28.143   6.191 -0.0227  0.0503 -0.2572
56673POPI   C4A90820  30.257  27.676   6.476 -0.0159 -0.1737  0.0829
56673POPI   C1B90821  30.602  28.852   6.202 -0.0447 -0.1063  0.1347
56673POPI   C2B90822  30.399  28.626   6.368 -0.3053 -0.0301 -0.0367
56673POPI   C3B90823  30.117  28.580   6.739  0.1574 -0.3394 -0.2188
56673POPI   C4B90824  29.681  28.470   6.738  0.0276  0.0903  0.3583
56674POPI    C190825  10.095   0.398  15.303  0.0413 -0.1617 -0.0934
56674POPI    C290826  10.182   0.012  15.244  0.2150 -0.1419  0.0293
56674POPI    C390827  10.320   0.288  14.990 -0.0163 -0.1725 -0.1307
56674POPI   PO490828  10.081   0.415  15.589 -0.2479  0.3115 -0.1030
56674POPI   GL190829  10.165   0.724  15.883 -0.1232  0.0864  0.1585
56674POPI   GL290830  10.473   0.969  15.792 -0.0778  0.1490  0.0259
56674POPI   C1A90831  10.110   0.982  16.246  0.1159  0.1260 -0.2368
56674POPI   D2A90832  10.251   1.234  16.577  0.1622 -0.0444 -0.3761
56674POPI   C3A90833  10.001   1.512  16.914 -0.2829  0.0617 -0.2396
56674POPI   C4A90834   9.868   1.690  17.198  0.2617 -0.1960 -0.2525
56674POPI   C1B90835  10.587   1.169  16.155  0.0961  0.0168  0.0747
56674POPI   C2B90836  10.742   1.458  16.422 -0.3923 -0.0666 -0.0943
56674POPI   C3B90837  10.847   1.778  16.815 -0.1315  0.0036 -0.3111
56674POPI   C4B90838  10.893   2.194  16.845 -0.0043  0.5266  0.0096
56675POPI    C190839  20.902  10.530   9.026 -0.0892 -0.2542  0.1123
56675POPI    C290840  20.821  10.151   8.928 -0.0376 -0.2084 -0.1091
56675POPI    C390841  20.918  10.415   8.643  0.1946 -0.0939  0.0750
56675POPI   PO490842  21.101  10.508   9.185 -0.0838  0.0767  0.1368
56675POPI   GL190843  21.536  10.538   9.215 -0.2602 -0.1671 -0.0027
56675POPI   GL290844  21.483  10.467   9.474  0.1618 -0.1342 -0.1982
56675POPI   C1A90845  22.006  10.634   9.303 -0.1746  0.1436  0.1802
56675POPI   D2A90846  22.337  10.636   9.439 -0.2235 -0.2909 -0.3195
56675POPI   C3A90847  22.751  10.596   9.360 -0.2475 -0.2559  0.1210
56675POPI   C4A90848  23.090  10.628   9.259  0.1685 -0.2330 -0.2138
56675POPI   C1B90849  21.775  10.520   9.701  0.0290 -0.2727 -0.1308
56675POPI   C2B90850  22.202  10.509   9.889 -0.1833 -0.0685  0.1624
56675POPI   C3B90851  22.512  10.368  10.098 -0.1277 -0.0033 -0.1171
56675POPI   C4B90852  22.433  10.138  10.453  0.3494  0.0048 -0.3606
56676POPI    C190853   2.836  31.774  11.091 -0.0215 -0.2473 -0.1478
56676POPI    C290854   3.066  31.837  11.412  0.0890 -0.2412 -0.2275
56676POPI    C390855   3.087  32.086  11.100 -0.4241  0.0762 -0.0155
56676POPI   PO490856   2.648  31.619  11.223  0.0564  0.1076  0.1061
56676POPI   GL190857   2.209  31.429  11.416  0.0242 -0.0917  0.1280
56676POPI   GL290858   2.093  31.048  11.544  0.0453 -0.1439 -0.3745
56676POPI   C1A90859   1.839  31.466  11.666 -0.0023 -0.1557  0.0583
56676POPI   D2A90860   1.521  31.440  11.475  0.1150  0.1496  0.1173
56676POPI   C3A90861   1.121  31.371  11.584  0.0045  0.3707  0.0977
56676POPI   C4A90862   0.912  31.308  11.955 -0.2799  0.1217 -0.0908
56676POPI   C1B90863   1.729  30.961  11.693  0.3295  0.3602  0.0655
56676POPI   C2B90864   1.313  30.979  11.790 -0.3888 -0.1808 -0.2097
56676POPI   C3B90865   1.076  30.784  11.884 -0.2083 -0.2040  0.1268
56676POPI   C4B90866   0.708  30.835  12.061  0.1267 -0.0088 -0.0733
56677PAPI    C190867  15.783  13.327  14.017  0.0759  0.2841  0.0199
56677PAPI    C290868  15.505  13.597  14.115  0.0718  0.2839  0.0084
56677PAPI    C390869  15.623  13.561  13.735 -0.1614  0.0491 -0.0427
56677PAPI   PO490870  15.954  13.375  14.300 -0.1567  0.0974 -0.3014
56677PAPI   GL190871  16.226  13.659  14.368 -0.0648  0.3254  0.0134
56677PAPI   GL290872  16.300  13.939  14.414  0.0748 -0.1986  0.1533
56677PAPI   D1A90873  16.299  13.539  14.757  0.2893 -0.0538  0.1026
56677PAPI   D2A90874  16.285  13.150  14.572 -0.1536  0.2126  0.3757
56677PAPI   D3A90875  16.323  12.956  14.874  0.0694 -0.0251 -0.1394
56677PAPI   D4A90876  16.659  13.211  14.979  0.1347 -0.0882 -0.3588
56677PAPI   C5A90877  17.099  13.294  15.268  0.3174 -0.0829  0.1993
56677PAPI   C1B90878  16.487  13.995  14.796 -0.1112 -0.1221  0.1364
56677PAPI   C2B90879  16.660  13.674  15.114  0.7634  0.0840 -0.0244
56677PAPI   C3B90880  16.722  13.501  15.476 -0.0831 -0.4306  0.1831
56677PAPI   C4B90881  16.639  13.543  15.839 -0.0874 -0.1646  0.0841
56678PAPI    C190882  23.584   4.488   6.779 -0.0021 -0.0079  0.1127
56678PAPI    C290883  23.302   4.225   6.671 -0.0359  0.0676  0.0157
56678PAPI    C390884  23.480   4.453   6.394  0.1595 -0.0182  0.0695
56678PAPI   PO490885  23.513   4.509   7.061 -0.0400 -0.4036  0.2376
56678PAPI   GL190886  23.775   4.697   7.308 -0.1078 -0.0569 -0.5124
56678PAPI   GL290887  24.077   4.746   7.234  0.2165  0.1377  0.4056
56678PAPI   D1A90888  23.794   4.910   7.756  0.2706 -0.3505 -0.1544
56678PAPI   D2A90889  23.621   5.185   7.444 -0.1015  0.0785  0.5152
56678PAPI   D3A90890  23.445   5.335   7.826 -0.1731  0.0179 -0.2768
56678PAPI   D4A90891  23.615   5.622   8.084  0.1424 -0.0172 -0.2709
56678PAPI   C5A90892  23.931   5.576   8.472  0.3364  0.0250 -0.0040
56678PAPI   C1B90893  24.200   4.984   7.541  0.0950 -0.0680  0.2381
56678PAPI   C2B90894  24.413   5.007   7.879 -0.3699 -0.0814  0.1591
56678PAPI   C3B90895  24.721   5.250   8.121  0.0586  0.1960  0.1682
56678PAPI   C4B90896  24.860   5.577   8.530  0.0497  0.0531  0.1520
56679PAPI    C190897   8.259   2.369  15.060 -0.0540 -0.2404  0.0871
56679PAPI    C290898   8.385   2.157  14.744 -0.0962 -0.0944 -0.0284
56679PAPI    C390899   8.481   2.040  15.115  0.1103 -0.1620 -0.1025
56679PAPI   PO490900   8.283   2.596  15.026 -0.2126  0.3867  0.3296
56679PAPI   GL190901   8.334   2.914  15.378  0.0383 -0.0120  0.0051
56679PAPI   GL290902   8.532   3.256  15.305  0.2308  0.0348 -0.0637
56679PAPI   D1A90903   8.253   2.720  15.769 -0.2528  0.0779  0.1674
56679PAPI   D2A90904   7.898   2.726  15.852 -0.2591 -0.4450 -0.0286
56679PAPI   D3A90905   7.519   3.004  15.756  0.0322 -0.0045 -0.0001
56679PAPI   D4A90906   7.376   2.757  16.171 -0.0996 -0.2170  0.3040
56679PAPI   C5A90907   7.218   2.386  16.208  0.0493 -0.0278 -0.1030
56679PAPI   C1B90908   8.511   3.729  15.329 -0.0238 -0.1125  0.3479
56679PAPI   C2B90909   8.649   3.997  15.648 -0.2904 -0.0138  0.1002
56679PAPI   C3B90910   8.754   4.147  16.027  0.0811 -0.3097 -0.5047
56679PAPI   C4B90911   8.800   4.255  16.455  0.1177 -0.1228 -0.3061
56680PAPI    C190912   7.810  19.338  12.227 -0.0805  0.0538 -0.0187
56680PAPI    C290913   7.992  19.620  12.009 -0.2437  0.0837 -0.1163
56680PAPI    C390914   8.080  19.579  12.397 -0.0797  0.1432 -0.1470
56680PAPI   PO490915   7.523  19.325  12.109  0.0230  0.2104 -0.0963
56680PAPI   GL190916   7.129  19.589  12.113 -0.2095  0.0475 -0.0912
56680PAPI   GL290917   7.019  19.266  12.334 -0.2109  0.0552 -0.1169
56680PAPI   D1A90918   7.044  19.718  11.764  0.0526  0.1172  0.0048
56680PAPI   D2A90919   6.918  19.415  11.458  0.3534 -0.1633 -0.2748
56680PAPI   D3A90920   6.579  19.469  11.639  0.3264  0.2170 -0.0255
56680PAPI   D4A90921   6.541  19.677  11.280  0.1813  0.3207 -0.0673
56680PAPI   C5A90922   6.345  19.571  10.943  0.1246  0.1267  0.0322
56680PAPI   C1B90923   6.652  19.241  12.494 -0.1802  0.0136 -0.2421
56680PAPI   C2B90924   6.263  19.077  12.674 -0.2150 -0.3428  0.2301
56680PAPI   C3B90925   5.855  19.187  12.977 -0.0319 -0.0701  0.0497
56680PAPI   C4B90926   5.728  19.344  13.236 -0.0605 -0.2643 -0.0343
56681PAPI    C190927   1.725  35.004   9.982 -0.0923 -0.0064  0.3467
56681PAPI    C290928   1.728  34.662  10.189 -0.1771 -0.2180  0.0017
56681PAPI    C390929   1.864  34.669   9.812 -0.0822  0.1504  0.0414
56681PAPI   PO490930   1.495  35.090  10.070  0.2202 -0.1514  0.2072
56681PAPI   GL190931   1.114  35.125  10.284 -0.0245  0.3371  0.0275
56681PAPI   GL290932   1.188   0.064  10.401 -0.0788  0.0083  0.2449
56681PAPI   D1A90933   1.327  34.751  10.426 -0.0492 -0.0682  0.2117
56681PAPI   D2A90934   1.235  34.568  10.780  0.1517 -0.1520  0.2554
56681PAPI   D3A90935   1.079  34.223  10.694 -0.0416  0.1145  0.2368
56681PAPI   D4A90936   0.871  34.370  11.035  0.1373  0.0447 -0.1566
56681PAPI   C5A90937   0.493  34.446  11.314 -0.1278 -0.1920  0.1335
56681PAPI   C1B90938   1.042   0.443  10.488 -0.2637 -0.1935  0.1498
56681PAPI   C2B90939   0.809   0.545  10.935 -0.0120  0.3378 -0.1472
56681PAPI   C3B90940   0.486   0.597  11.253 -0.0010 -0.1383  0.0308
56681PAPI   C4B90941   0.239   0.599  11.508  0.0562 -0.1370  0.0032
56682PAPI    C190942   6.893  33.304  15.259 -0.1988 -0.2784 -0.1819
56682PAPI    C290943   7.200  33.075  15.144  0.1231  0.1625 -0.2129
56682PAPI    C390944   6.910  33.165  14.884  0.0434 -0.1292 -0.2274
56682PAPI   PO490945   7.041  33.469  15.429  0.2668  0.1705 -0.0765
56682PAPI   GL190946   7.174  33.786  15.706 -0.0550 -0.1950 -0.2647
56682PAPI   GL290947   7.177  34.105  15.559  0.2699 -0.1673  0.1533
56682PAPI   D1A90948   7.080  33.534  16.064  0.1223  0.0154  0.1661
56682PAPI   D2A90949   6.918  33.842  16.220 -0.0653 -0.0290 -0.1929
56682PAPI   D3A90950   6.633  33.786  16.521 -0.1363 -0.0603 -0.2320
56682PAPI   D4A90951   6.767  34.116  16.858  0.1974  0.2398 -0.1099
56682PAPI   C5A90952   6.494  34.450  17.058  0.2194  0.1062  0.0022
56682PAPI   C1B90953   6.925  34.259  15.944 -0.0081  0.0632 -0.0450
56682PAPI   C2B90954   6.687  34.282  16.405 -0.1288 -0.1444 -0.0235
56682PAPI   C3B90955   6.339  34.228  16.653  0.1378  0.1437  0.1750
56682PAPI   C4B90956   5.934  34.360  16.825  0.4123  0.1898 -0.0921
56683PAPI    C190957   7.415  21.441  13.854 -0.1014 -0.2990 -0.3115
56683PAPI    C290958   7.806  21.477  13.932 -0.1545 -0.1086 -0.1279
56683PAPI    C390959   7.681  21.430  13.555  0.0506 -0.2534 -0.1791
56683PAPI   PO490960   7.348  21.632  13.993 -0.1867  0.4764 -0.0427
56683PAPI   GL190961   7.146  21.718  14.333 -0.2804 -0.1920  0.2503
56683PAPI   GL290962   7.114  21.634  14.566  0.3069 -0.2121 -0.0931
56683PAPI   D1A90963   6.838  21.591  14.121  0.2200 -0.0189  0.0202
56683PAPI   D2A90964   6.953  21.867  13.788 -0.1564  0.0002 -0.0280
56683PAPI   D3A90965   6.655  21.928  13.507 -0.1037 -0.2230 -0.0294
56683PAPI   D4A90966   6.269  22.005  13.726 -0.4729 -0.3737  0.2140
56683PAPI   C5A90967   5.941  21.814  13.887 -0.2173  0.2093  0.0528
56683PAPI   C1B90968   6.771  21.832  14.671  0.1777  0.2138 -0.1313
56683PAPI   C2B90969   6.373  21.736  14.669 -0.2260  0.3284 -0.1699
56683PAPI   C3B90970   6.053  21.635  14.944  0.0498 -0.3028 -0.0287
56683PAPI   C4B90971   6.032  21.656  15.414 -0.1172 -0.0471 -0.3412
56684PAPI    C190972  23.753  10.113   4.310  0.1073  0.0996 -0.0045
56684PAPI    C290973  23.450  10.166   4.053 -0.0735 -0.0372  0.1789
56684PAPI    C390974  23.766   9.943   3.948 -0.0613  0.0604  0.0077
56684PAPI   PO490975  23.642  10.010   4.549 -0.0538  0.1402 -0.2619
56684PAPI   GL190976  23.946   9.798   4.764  0.0729 -0.0532  0.3441
56684PAPI   GL290977  24.182   9.976   4.722  0.2335 -0.1338  0.1575
56684PAPI   D1A90978  23.832   9.897   5.134 -0.5501 -0.1540  0.1786
56684PAPI   D2A90979  23.893   9.609   5.491 -0.2431 -0.1030 -0.2221
56684PAPI   D3A90980  24.295   9.683   5.390  0.2421 -0.2515  0.1670
56684PAPI   D4A90981  24.568  10.048   5.430  0.0818  0.1843  0.2067
56684PAPI   C5A90982  24.966  10.000   5.577 -0.0098 -0.0562 -0.0889
56684PAPI   C1B90983  24.576  10.131   4.941 -0.3205 -0.1032  0.1583
56684PAPI   C2B90984  24.821  10.437   5.268  0.3908 -0.2213  0.3070
56684PAPI   C3B90985  25.010  10.513   5.581  0.0903 -0.2216  0.2645
56684PAPI   C4B90986  25.022  10.490   5.995 -0.0119  0.0555 -0.3112
56685PAPI    C190987   0.704  25.947   4.768  0.0113  0.1368 -0.0096
56685PAPI    C290988   0.664  25.949   4.370  0.0759  0.0499 -0.0167
56685PAPI    C390989   0.981  26.125   4.540  0.0093  0.1532  0.0008
56685PAPI   PO490990   0.522  25.850   4.855 -0.0321  0.3131  0.1710
56685PAPI   GL190991   0.210  25.682   5.020 -0.0329  0.1019 -0.1561
56685PAPI   GL290992   0.393  25.529   5.330  0.0765  0.0300  0.0091
56685PAPI   D1A90993  35.331  25.396   5.210  0.0858 -0.1038 -0.1076
56685PAPI   D2A90994  35.071  25.175   5.287 -0.2068  0.1336 -0.1317
56685PAPI   D3A90995  35.174  25.067   5.747 -0.0030  0.2239 -0.1070
56685PAPI   D4A90996  34.856  24.734   5.923 -0.0308 -0.1203  0.2473
56685PAPI   C5A90997  34.310  24.614   5.822  0.2803  0.1331 -0.0393
56685PAPI   C1B90998   0.686  25.123   5.429  0.4043 -0.0864  0.1025
56685PAPI   C2B90999   0.795  24.668   5.339 -0.2741 -0.2096  0.0708
56685PAPI   C3B91000   1.073  24.317   5.598 -0.0903  0.3404  0.0983
56685PAPI   C4B91001   1.528  24.189   5.757  0.1145 -0.0200 -0.2571
56686PAPI    C191002  13.470   7.340  14.536  0.2288 -0.1123  0.1506
56686PAPI    C291003  13.495   6.941  14.541 -0.4292 -0.1620  0.0079
56686PAPI    C391004  13.470   7.136  14.192  0.1932  0.0322  0.0645
56686PAPI   PO491005  13.639   7.510  14.720  0.2937 -0.0607 -0.2026
56686PAPI   GL191006  13.704   7.915  14.872 -0.2324 -0.2485  0.1410
56686PAPI   GL291007  13.456   7.857  15.146 -0.3310 -0.0851 -0.0326
56686PAPI   D1A91008  14.004   8.216  15.131  0.3180  0.0811 -0.0222
56686PAPI   D2A91009  14.105   7.839  15.150  0.0538  0.0157 -0.0794
56686PAPI   D3A91010  14.323   7.854  15.577  0.2300  0.1462  0.0794
56686PAPI   D4A91011  13.982   8.290  15.601 -0.0932 -0.0743  0.2041
56686PAPI   C5A91012  13.829   8.547  15.941 -0.3615  0.0164  0.1630
56686PAPI   C1B91013  13.765   7.814  15.451  0.1974 -0.2241  0.1145
56686PAPI   C2B91014  14.000   7.608  15.858  0.0266 -0.0256  0.0418
56686PAPI   C3B91015  14.215   7.407  16.111 -0.1894 -0.4086  0.0551
56686PAPI   C4B91016  14.518   7.228  16.127  0.2506 -0.2452 -0.0034
56687PAPI    C191017  11.824   4.627  13.930 -0.0172 -0.1695 -0.0189
56687PAPI    C291018  11.756   4.579  13.539  0.3242  0.0709 -0.1099
56687PAPI    C391019  11.449   4.586  13.796  0.0845  0.1144 -0.3952
56687PAPI   PO491020  12.105   4.487  13.954  0.0604  0.5691  0.0710
56687PAPI   GL191021  12.403   4.337  14.143  0.1802  0.0946  0.0842
56687PAPI   GL291022  12.516   4.119  14.284  0.0243 -0.1694 -0.1641
56687PAPI   D1A91023  12.833   4.469  14.051 -0.1581  0.1473 -0.1893
56687PAPI   D2A91024  13.242   4.536  13.900  0.3587  0.1788 -0.1010
56687PAPI   D3A91025  13.622   4.355  13.757  0.1004  0.0452 -0.0731
56687PAPI   D4A91026  13.975   4.310  14.138  0.5225  0.0757 -0.1745
56687PAPI   C5A91027  13.925   4.208  14.627 -0.0906  0.2048  0.3117
56687PAPI   C1B91028  12.851   3.946  14.521 -0.2659 -0.0771 -0.0729
56687PAPI   C2B91029  12.944   3.720  14.876  0.1506  0.0196  0.1805
56687PAPI   C3B91030  12.832   3.687  15.208 -0.0967 -0.0023 -0.0663
56687PAPI   C4B91031  12.694   3.668  15.735  0.0578 -0.2235  0.0519
56688PAPI    C191032  13.287  29.224  16.935 -0.4208  0.0998  0.2818
56688PAPI    C291033  13.626  29.198  17.147  0.0284  0.2264 -0.4079
56688PAPI    C391034  13.386  28.880  17.114  0.0772  0.1351  0.0801
56688PAPI   PO491035  13.202  29.446  17.008  0.1166 -0.0846 -0.0287
56688PAPI   GL191036  13.082  29.758  17.338  0.2347  0.0041  0.1396
56688PAPI   GL291037  13.118  29.523  17.557 -0.3405 -0.3694  0.1326
56688PAPI   D1A91038  13.429  29.994  17.504  0.2272 -0.4020  0.0373
56688PAPI   D2A91039  13.503  29.903  17.987 -0.0557  0.4623  0.0635
56688PAPI   D3A91040  13.780  30.209  17.911 -0.4867  0.1556 -0.0560
56688PAPI   D4A91041  14.263  30.204  17.820  0.1276  0.0201 -0.0885
56688PAPI   C5A91042  14.441  30.570  17.868  0.1364 -0.1075  0.0803
56688PAPI   C1B91043  13.042  29.740  17.884  0.1272  0.0787 -0.0380
56688PAPI   C2B91044  13.029  29.915  18.237 -0.0789 -0.3122 -0.2731
56688PAPI   C3B91045  13.198  30.218  18.585  0.2407  0.1395 -0.2034
56688PAPI   C4B91046  13.638  30.275  18.784  0.2008  0.1901  0.2313
56689PAPI    C191047  23.750   0.281   6.874 -0.0759 -0.1122 -0.0518
56689PAPI    C291048  23.872   0.656   6.941 -0.0371 -0.1480  0.0769
56689PAPI    C391049  23.795   0.535   6.568 -0.2061  0.0363  0.0515
56689PAPI   PO491050  23.921   0.073   7.023  0.0197  0.1005  0.2345
56689PAPI   GL191051  23.902  35.265   7.360  0.1849  0.0924  0.0431
56689PAPI   GL291052  24.018  35.380   7.734 -0.1326  0.0763  0.2051
56689PAPI   D1A91053  23.457   0.038   7.443  0.0331  0.1395 -0.0986
56689PAPI   D2A91054  23.590  34.980   7.596  0.0364  0.1263 -0.2420
56689PAPI   D3A91055  23.284  35.108   7.859  0.4589 -0.0810  0.2385
56689PAPI   D4A91056  23.448  34.789   8.106 -0.1946  0.4156 -0.3616
56689PAPI   C5A91057  23.475  34.410   8.224 -0.1194  0.0506 -0.1820
56689PAPI   C1B91058  24.386   0.036   7.979 -0.1172  0.1266 -0.0483
56689PAPI   C2B91059  24.608   0.125   8.353  0.2936 -0.1310  0.1978
56689PAPI   C3B91060  24.778   0.070   8.778  0.4486 -0.2074 -0.0114
56689PAPI   C4B91061  25.039   0.122   9.084  0.0538  0.1705  0.2324
56690PAPI    C191062  21.057  12.836   6.793  0.0928 -0.2143  0.0007
56690PAPI    C291063  20.694  12.669   6.769 -0.0192  0.0318 -0.0316
56690PAPI    C391064  20.902  12.746   6.435 -0.0707  0.1804 -0.0301
56690PAPI   PO491065  21.279  12.822   6.959 -0.0158  0.0010  0.0542
56690PAPI   GL191066  21.365  12.550   7.237  0.1839 -0.0003  0.1305
56690PAPI   GL291067  21.655  12.495   7.108  0.0289 -0.1106  0.1675
56690PAPI   D1A91068  21.454  12.872   7.518 -0.4432 -0.3120 -0.2788
56690PAPI   D2A91069  21.356  13.293   7.378 -0.2991 -0.0261 -0.3718
56690PAPI   D3A91070  21.815  13.280   7.606  0.1301 -0.1324  0.0002
56690PAPI   D4A91071  22.180  13.406   7.277  0.1253  0.2565 -0.1538
56690PAPI   C5A91072  22.063  13.807   7.227 -0.0953 -0.1605  0.0732
56690PAPI   C1B91073  22.130  12.340   7.074  0.1533  0.3830  0.1310
56690PAPI   C2B91074  22.591  12.387   7.089 -0.0428  0.0270  0.4512
56690PAPI   C3B91075  22.803  12.793   6.985 -0.1970  0.1178  0.0393
56690PAPI   C4B91076  23.091  12.985   7.210 -0.3245 -0.2169 -0.0556
56691CHOL   ROH91077   9.426  23.771  18.129 -0.1783  0.1131 -0.1003
56691CHOL    R191078   9.324  23.753  18.392 -0.1530 -0.0122 -0.0988
56691CHOL    R291079   9.210  23.969  18.522 -0.0816 -0.0578  0.0381
56691CHOL    R391080   9.001  23.798  18.553 -0.1231 -0.0219 -0.0358
56691CHOL    R491081   8.957  24.007  18.754 -0.1453 -0.0269 -0.0355
56691CHOL    R591082   8.964  23.792  18.790 -0.1957 -0.0303 -0.0475
56691CHOL    C191083   8.613  23.869  18.919 -0.2213  0.0251 -0.1478
56691CHOL    C291084   8.512  23.987  19.266 -0.2285  0.0319  0.2120
56692CHOL   ROH91085   5.315  23.585  10.368 -0.1200  0.0664 -0.0113
56692CHOL    R191086   5.076  23.460  10.456 -0.0721 -0.1047 -0.1214
56692CHOL    R291087   5.014  23.198  10.394  0.2274 -0.2066 -0.0026
56692CHOL    R391088   4.988  23.175  10.663  0.0359 -0.0548 -0.0066
56692CHOL    R491089   4.830  22.953  10.554  0.3158 -0.2651  0.0088
56692CHOL    R591090   4.761  23.104  10.695  0.0712 -0.2329 -0.1411
56692CHOL    C191091   4.698  22.788  10.900  0.1874 -0.1573  0.0118
56692CHOL    C291092   4.500  22.775  11.272  0.1966 -0.2979 -0.5378
56693CHOL   ROH91093  17.546  14.689  13.650  0.3055  0.1201  0.0199
56693CHOL    R191094  17.801  14.721  13.768  0.2676  0.3213  0.0510
56693CHOL    R291095  17.842  14.866  13.999  0.0638  0.0339  0.2735
56693CHOL    R391096  17.959  14.636  14.085  0.4086  0.0706 -0.0847
56693CHOL    R491097  18.067  14.845  14.260 -0.1751 -0.0825  0.4717
56693CHOL    R591098  18.182  14.702  14.143  0.2264  0.3774  0.2880
56693CHOL    C191099  18.308  14.617  14.493  0.0097 -0.1160  0.2510
56693CHOL    C291100  18.403  14.381  14.804 -0.1655 -0.2143  0.2249
56694CHOL   ROH91101   0.175  22.726   8.128 -0.0446  0.0964  0.1405
56694CHOL    R191102   0.308  22.871   7.925 -0.0032 -0.0574  0.0569
56694CHOL    R291103   0.211  23.109   7.823  0.0630 -0.0874 -0.0818
56694CHOL    R391104   0.458  23.201   7.890  0.0879 -0.1186 -0.1324
56694CHOL    R491105   0.397  23.331   7.634  0.0252 -0.0584 -0.0846
56694CHOL    R591106   0.575  23.214   7.681  0.0298 -0.0799 -0.1615
56694CHOL    C191107   0.737  23.547   7.587  0.0265 -0.0709 -0.1339
56694CHOL    C291108   0.828  23.537   7.217  0.2427  0.0171 -0.0541
56695CHOL   ROH91109   4.762   6.354  16.289 -0.0320 -0.1035  0.0069
56695CHOL    R191110   4.997   6.459  16.171 -0.0641 -0.0244  0.0132
56695CHOL    R291111   5.249   6.360  16.228 -0.0322  0.0622  0.0224
56695CHOL    R391112   5.265   6.334  15.957 -0.0145  0.0646  0.0231
56695CHOL    R491113   5.541   6.306  16.051 -0.0267  0.0173  0.0454
56695CHOL    R591114   5.469   6.444  15.899  0.0085  0.0320  0.0418
56695CHOL    C191115   5.726   6.250  15.695 -0.0067 -0.0068  0.0593
56695CHOL    C291116   6.091   6.103  15.783  0.1036 -0.1705 -0.0878
56696CHOL   ROH91117  35.049  24.759   9.824 -0.0966  0.0522 -0.1591
56696CHOL    R191118  35.142  24.991   9.693  0.0084  0.0782 -0.0388
56696CHOL    R291119  35.385  25.109   9.753  0.1206 -0.1365 -0.0659
56696CHOL    R391120   0.043  25.081   9.486 -0.0209  0.0192 -0.1057
56696CHOL    R491121   0.272  25.236   9.583  0.0710 -0.1049 -0.1217
56696CHOL    R591122   0.138  25.290   9.419  0.0035  0.0355 -0.0215
56696CHOL    C191123   0.471  25.285   9.233 -0.0907  0.0594 -0.1915
56696CHOL    C291124   0.798  25.369   9.218  0.0300  0.3593  0.1169
56697CHOL   ROH91125   5.349   7.726  12.318 -0.0864 -0.0686 -0.2323
56697CHOL    R191126   5.160   7.865  12.160 -0.0640  0.1594 -0.0611
56697CHOL    R291127   4.887   7.836  12.195 -0.0704  0.0907 -0.1584
56697CHOL    R391128   4.894   8.106  12.219 -0.0895  0.0573  0.2524
56697CHOL    R491129   4.609   8.039  12.218 -0.0927  0.0655 -0.2104
56697CHOL    R591130   4.708   8.182  12.088  0.0793  0.2577  0.1278
56697CHOL    C191131   4.453   8.411  12.254 -0.1237  0.0195  0.1451
56697CHOL    C291132   4.390   8.895  12.273  0.3265  0.1276 -0.2444
56698CHOL   ROH91133   3.532  25.539  17.779 -0.0307  0.1886 -0.0490
56698CHOL    R191134   3.755  25.629  17.631  0.0192  0.2529  0.0650
56698CHOL    R291135   3.960  25.776  17.745  0.1792 -0.1361  0.2878
56698CHOL    R391136   4.116  25.580  17.639 -0.0221 -0.0926 -0.0993
56698CHOL    R491137   4.259  25.829  17.580  0.2480 -0.1160  0.4183
56698CHOL    R591138   4.202  25.675  17.436  0.0921  0.2317  0.0963
56698CHOL    C191139   4.580  25.676  17.384  0.0989 -0.0638  0.1300
56698CHOL    C291140   5.004  25.820  17.481 -0.2296 -0.3883 -0.1872
56699CHOL   ROH91141  18.919  13.672  11.798  0.0240  0.1101  0.0578
56699CHOL    R191142  19.164  13.660  11.939 -0.0532  0.0680  0.1896
56699CHOL    R291143  19.407  13.717  11.820  0.0359 -0.1162  0.2815
56699CHOL    R391144  19.430  13.893  12.027  0.0159 -0.0134  0.1969
56699CHOL    R491145  19.703  13.863  11.923  0.0458 -0.1577  0.3122
56699CHOL    R591146  19.639  13.836  12.129 -0.0399 -0.0271  0.3038
56699CHOL    C191147  19.897  14.113  12.176  0.0326 -0.0858  0.2505
56699CHOL    C291148  20.107  14.097  12.518  0.0775 -0.0084  0.0715
56700CHOL   ROH91149  31.416  25.484   2.547 -0.2728  0.2197  0.0700
56700CHOL    R191150  31.261  25.499   2.784 -0.2350  0.0929  0.1032
56700CHOL    R291151  31.079  25.304   2.855 -0.1500  0.0060  0.0785
56700CHOL    R391152  31.222  25.302   3.087 -0.1076 -0.0116  0.0525
56700CHOL    R491153  30.985  25.138   3.144 -0.0093 -0.1673  0.0261
56700CHOL    R591154  31.055  25.310   3.259 -0.0835 -0.1749  0.0853
56700CHOL    C191155  31.064  25.040   3.529  0.1122 -0.2845 -0.0288
56700CHOL    C291156  30.973  25.032   3.897  0.3383  0.0501 -0.2829
56701CHOL   ROH91157   4.792  19.786   7.100  0.0192  0.1411  0.0576
56701CHOL    R191158   4.529  19.871   7.161 -0.0179  0.0813 -0.0191
56701CHOL    R291159   4.319  19.844   6.984  0.0206 -0.0569 -0.0418
56701CHOL    R391160   4.202  19.716   7.193  0.0258 -0.0105 -0.0096
56701CHOL    R491161   3.978  19.822   7.036  0.0200 -0.0824 -0.0545
56701CHOL    R591162   4.013  19.853   7.248  0.0057 -0.0153 -0.0601
56701CHOL    C191163   3.669  19.689   7.262  0.0245 -0.0532 -0.0319
56701CHOL    C291164   3.319  19.599   7.354 -0.0707 -0.0056  0.0941
56702CHOL   ROH91165  28.526   5.178   9.185  0.4707 -0.1015  0.1286
56702CHOL    R191166  28.492   5.110   8.913  0.1797 -0.2676  0.2052
56702CHOL    R291167  28.622   5.242   8.709 -0.2340 -0.2220 -0.0350
56702CHOL    R391168  28.703   4.992   8.641 -0.0538 -0.1680 -0.0215
56702CHOL    R491169  28.683   5.134   8.386 -0.1461 -0.1935 -0.0278
56702CHOL    R591170  28.588   4.945   8.436 -0.0130 -0.2588 -0.0232
56702CHOL    C191171  28.795   4.836   8.135  0.0749 -0.1260 -0.0109
56702CHOL    C291172  28.793   4.707   7.710  0.3376 -0.1913  0.0074
56703CHOL   ROH91173   3.895   2.803  11.115 -0.0070  0.0154  0.1238
56703CHOL    R191174   3.744   3.033  11.180  0.0549  0.0083  0.2935
56703CHOL    R291175   3.504   3.093  11.058  0.1541  0.2509  0.2170
56703CHOL    R391176   3.412   3.103  11.314  0.0055  0.0020  0.1752
56703CHOL    R491177   3.211   3.248  11.157  0.2382  0.3994  0.2353
56703CHOL    R591178   3.316   3.321  11.334  0.2003  0.0702  0.3987
56703CHOL    C191179   2.955   3.347  11.455  0.1478  0.2524  0.2066
56703CHOL    C291180   3.005   3.655  11.635 -0.1755  0.0151  0.0042
56704CHOL   ROH91181  11.847  33.217  16.671 -0.0903  0.1431  0.1842
56704CHOL    R191182  11.855  33.423  16.865 -0.0735  0.1431  0.1841
56704CHOL    R291183  11.806  33.378  17.133 -0.1092  0.1533  0.1787
56704CHOL    R391184  12.048  33.498  17.164 -0.0910  0.1103  0.2036
56704CHOL    R491185  11.909  33.544  17.418 -0.0710  0.0488  0.2254
56704CHOL    R591186  12.001  33.696  17.290 -0.0572  0.0767  0.2687
56704CHOL    C191187  12.196  33.754  17.613 -0.0314 -0.0512  0.2763
56704CHOL    C291188  12.574  33.909  17.785 -0.0662 -0.0286 -0.3011
56705CHOL   ROH91189  22.514   0.551  11.933  0.1222  0.1852  0.0170
56705CHOL    R191190  22.400   0.414  11.714  0.2142  0.0742  0.0381
56705CHOL    R291191  22.158   0.487  11.602  0.0920 -0.1923  0.1182
56705CHOL    R391192  22.303   0.494  11.373  0.0175 -0.0003  0.0756
56705CHOL    R491193  22.024   0.494  11.284 -0.0086 -0.0089  0.1637
56705CHOL    R591194  22.180   0.356  11.220  0.0050  0.0732  0.0205
56705CHOL    C191195  22.083   0.504  10.883 -0.1374  0.2781  0.1503
56705CHOL    C291196  22.292   0.589  10.462 -0.4974  0.1766 -0.1029
56706CHOL   ROH91197  18.618   1.080  14.331  0.1004 -0.0330 -0.0050
56706CHOL    R191198  18.408   1.089  14.141  0.1011  0.0469 -0.0019
56706CHOL    R291199  18.359   1.311  13.984  0.3713 -0.0410 -0.2115
56706CHOL    R391200  18.379   1.131  13.781  0.1366 -0.2626 -0.0425
56706CHOL    R491201  18.208   1.345  13.675  0.5968 -0.0194 -0.3212
56706CHOL    R591202  18.162   1.131  13.680  0.1844  0.0665 -0.1549
56706CHOL    C191203  18.138   1.196  13.305  0.5075 -0.2148 -0.2263
56706CHOL    C291204  17.839   1.237  13.128 -0.2628 -0.4576 -0.2052
56707CHOL   ROH91205   5.839   7.186  12.997  0.1180  0.0997 -0.0676
56707CHOL    R191206   5.666   7.268  13.206  0.0507  0.0673 -0.1097
56707CHOL    R291207   5.393   7.232  13.195  0.0589  0.0059 -0.1727
56707CHOL    R391208   5.432   7.108  13.434  0.0334  0.0205 -0.1611
56707CHOL    R491209   5.142   7.148  13.418  0.0445  0.0771 -0.1623
56707CHOL    R591210   5.273   7.210  13.581  0.0561  0.0649 -0.1698
56707CHOL    C191211   5.033   6.983  13.772  0.0121  0.1322 -0.1456
56707CHOL    C291212   4.663   6.895  13.790  0.1027 -0.1768 -0.0597
56708CHOL   ROH91213  24.186  33.602  10.840 -0.0747  0.1506  0.0357
56708CHOL    R191214  24.234  33.695  10.577 -0.1179 -0.0389 -0.0398
56708CHOL    R291215  24.048  33.671  10.375 -0.2817  0.1164  0.0907
56708CHOL    R391216  24.087  33.939  10.352  0.0673  0.0548 -0.0593
56708CHOL    R491217  23.978  33.857  10.092 -0.3551  0.1026  0.0997
56708CHOL    R591218  24.162  33.969  10.126 -0.1554 -0.1400 -0.1612
56708CHOL    C191219  23.974  34.217   9.905 -0.0707  0.0366 -0.0362
56708CHOL    C291220  23.837  34.348   9.789 -0.0188 -0.0666 -0.0697
56709CHOL   ROH91221  24.192  16.003   7.839 -0.0546 -0.1338  0.1294
56709CHOL    R191222  23.964  16.070   7.685 -0.0326  0.0662  0.1829
56709CHOL    R291223  23.820  15.882   7.542  0.0552  0.2673 -0.1769
56709CHOL    R391224  23.611  15.982   7.684 -0.0084 -0.0305 -0.0582
56709CHOL    R491225  23.494  15.894   7.430  0.0469  0.1917 -0.1613
56709CHOL    R591226  23.475  16.091   7.520 -0.0784  0.0757  0.0702
56709CHOL    C191227  23.107  15.994   7.497 -0.0173 -0.1320 -0.0408
56709CHOL    C291228  22.795  15.752   7.580 -0.2783  0.5076 -0.0911
56710CHOL   ROH91229  22.171   9.533   7.646 -0.0007  0.2968 -0.0766
56710CHOL    R191230  22.429   9.440   7.717 -0.0933  0.1298  0.0436
56710CHOL    R291231  22.659   9.582   7.660  0.0383 -0.1002 -0.0044
56710CHOL    R391232  22.703   9.555   7.927 -0.0436  0.0459  0.0249
56710CHOL    R491233  22.961   9.641   7.816  0.0694 -0.2994  0.0120
56710CHOL    R591234  22.925   9.466   7.941 -0.1371 -0.1741  0.1322
56710CHOL    C191235  23.179   9.650   8.158  0.0108 -0.2783  0.0490
56710CHOL    C291236  23.562   9.501   8.052  0.0602 -0.0066  0.1847
56711CHOL   ROH91237   9.924   5.424  18.285 -0.3666  0.1924  0.1277
56711CHOL    R191238   9.769   5.373  18.054 -0.2617  0.0930  0.0782
56711CHOL    R291239   9.739   5.559  17.851 -0.1698  0.0060 -0.0160
56711CHOL    R391240   9.826   5.354  17.695 -0.0981 -0.0617  0.1120
56711CHOL    R491241   9.645   5.507  17.523 -0.1174 -0.2083  0.0019
56711CHOL    R591242   9.635   5.293  17.565 -0.0669 -0.1871  0.1238
56711CHOL    C191243   9.672   5.285  17.185 -0.0198 -0.3968  0.1324
56711CHOL    C291244   9.608   5.158  16.784 -0.1532  0.0674 -0.0455
56712CHOL   ROH91245   9.477  32.974  17.094 -0.1957 -0.1818  0.0632
56712CHOL    R191246   9.304  32.955  17.317 -0.1998 -0.0282  0.0731
56712CHOL    R291247   9.389  32.862  17.564 -0.2223  0.0738  0.1176
56712CHOL    R391248   9.287  33.099  17.651 -0.1651  0.1420  0.0025
56712CHOL    R491249   9.304  32.931  17.892 -0.0977  0.2926  0.1057
56712CHOL    R591250   9.127  33.036  17.818 -0.1133  0.2655  0.1007
56712CHOL    C191251   9.158  33.193  18.165  0.0290  0.4835 -0.0094
56712CHOL    C291252   8.856  33.277  18.529  0.0683  0.1012  0.2701
56713CHOL   ROH91253   2.326  32.386  12.322 -0.2109 -0.4374 -0.0179
56713CHOL    R191254   2.180  32.377  12.564 -0.0587 -0.1236  0.0892
56713CHOL    R291255   2.219  32.557  12.769 -0.0342  0.2380 -0.2297
56713CHOL    R391256   1.951  32.596  12.743 -0.0722  0.0456 -0.1307
56713CHOL    R491257   2.008  32.652  13.026  0.0026  0.1415 -0.1631
56713CHOL    R591258   1.860  32.512  12.948  0.0683  0.0210 -0.0764
56713CHOL    C191259   1.634  32.743  13.151 -0.0116 -0.0957 -0.0316
56713CHOL    C291260   1.313  32.687  13.281 -0.1049  0.1590  0.0075
56714CHOL   ROH91261   7.064  16.898  13.283 -0.0443  0.1249 -0.0618
56714CHOL    R191262   6.974  16.791  13.529 -0.0780  0.0174 -0.1204
56714CHOL    R291263   7.004  16.925  13.769  0.0144 -0.1496 -0.0391
56714CHOL    R391264   6.736  16.887  13.788 -0.0044 -0.0197 -0.0385
56714CHOL    R491265   6.816  16.982  14.053  0.0843 -0.2972  0.0378
56714CHOL    R591266   6.703  16.801  14.009 -0.0208 -0.1984 -0.1086
56714CHOL    C191267   6.454  16.980  14.236  0.1074 -0.2614  0.0832
56714CHOL    C291268   6.215  17.126  14.385 -0.1106 -0.1250  0.0384
56715CHOL   ROH91269  19.502   3.986  15.161 -0.0196  0.1890  0.0953
56715CHOL    R191270  19.289   4.006  14.976  0.0231  0.1967  0.0466
56715CHOL    R291271  19.294   4.180  14.762  0.1414  0.0909 -0.0372
56715CHOL    R391272  19.243   3.955  14.619  0.0648  0.0444  0.0631
56715CHOL    R491273  19.229   4.172  14.422  0.1688 -0.0419 -0.0394
56715CHOL    R591274  19.076   4.021  14.461  0.1057  0.0368  0.0173
56715CHOL    C191275  19.142   3.955  14.091  0.1126 -0.1627  0.0535
56715CHOL    C291276  18.983   4.135  13.656  0.0662  0.0617 -0.2617
56716CHOL   ROH91277  29.191   6.784   4.056  0.0895  0.1675 -0.0427
56716CHOL    R191278  29.275   6.788   4.327  0.0097  0.1108 -0.0170
56716CHOL    R291279  29.524   6.879   4.405  0.0311 -0.0141  0.0639
56716CHOL    R391280  29.378   7.040   4.568  0.0594  0.0462  0.0293
56716CHOL    R491281  29.636   7.009   4.705  0.0387 -0.0029  0.0559
56716CHOL    R591282  29.438   6.971   4.789  0.0217  0.0606  0.0437
56716CHOL    C191283  29.564   7.237   5.032  0.0702  0.0603  0.0187
56716CHOL    C291284  29.519   7.531   5.242  0.0410  0.1492 -0.6215
56717CHOL   ROH91285  20.763   3.931  10.732  0.1130 -0.0820 -0.1831
56717CHOL    R191286  20.968   3.948  10.926  0.0437 -0.1265 -0.1060
56717CHOL    R291287  20.963   3.801  11.160 -0.0354 -0.1868 -0.1454
56717CHOL    R391288  21.208   3.720  11.077 -0.0036 -0.1586 -0.0793
56717CHOL    R491289  21.206   3.666  11.365  0.0210  0.0810 -0.0337
56717CHOL    R591290  21.355   3.782  11.256 -0.0263  0.0496 -0.1314
56717CHOL    C191291  21.578   3.511  11.406  0.0834  0.2635  0.0935
56717CHOL    C291292  21.920   3.383  11.344 -0.0836  0.1734 -0.0598
56718CHOL   ROH91293  34.302   9.265   3.737 -0.2993 -0.2638 -0.0748
56718CHOL    R191294  34.274   9.306   4.016 -0.1888 -0.1301 -0.0833
56718CHOL    R291295  34.333   9.547   4.137 -0.0792 -0.0914 -0.2125
56718CHOL    R391296  34.080   9.525   4.232 -0.0514  0.0216 -0.1124
56718CHOL    R491297  34.212   9.713   4.415  0.1049 -0.0412 -0.1614
56718CHOL    R591298  34.105   9.531   4.471  0.0446  0.0066 -0.1227
56718CHOL    C191299  33.903   9.788   4.667  0.2376  0.0942 -0.0377
56718CHOL    C291300  33.526   9.666   4.893  0.0375 -0.2129 -0.0765
56719CHOL   ROH91301  24.755  30.899   6.673  0.3057 -0.2764 -0.0423
56719CHOL    R191302  24.607  30.937   6.911  0.1432 -0.0759 -0.1734
56719CHOL    R291303  24.541  30.729   7.080 -0.1010  0.0441 -0.1193
56719CHOL    R391304  24.661  30.884   7.267 -0.1588  0.0706 -0.1038
56719CHOL    R491305  24.502  30.693   7.421 -0.2300  0.1087 -0.1270
56719CHOL    R591306  24.496  30.910   7.439 -0.2211  0.1137 -0.1693
56719CHOL    C191307  24.592  30.818   7.796 -0.3588  0.1710 -0.1171
56719CHOL    C291308  24.420  30.942   8.163 -0.0820 -0.0508  0.0224
56720CHOL   ROH91309  22.011  13.361   5.635  0.0426  0.1428 -0.0046
56720CHOL    R191310  22.271  13.475   5.624 -0.0269  0.3079  0.0405
56720CHOL    R291311  22.356  13.668   5.802 -0.0710  0.1281  0.2590
56720CHOL    R391312  22.560  13.494   5.843  0.0473  0.1909 -0.0474
56720CHOL    R491313  22.684  13.759   5.863 -0.1366  0.2451  0.4405
56720CHOL    R591314  22.748  13.595   5.735 -0.0160  0.5202  0.1440
56720CHOL    C191315  23.066  13.648   5.938 -0.0644  0.3723  0.2585
56720CHOL    C291316  23.357  13.368   6.017  0.1961  0.1183  0.1426
56721CHOL   ROH91317  32.211  13.196   4.984 -0.0578  0.0934 -0.0206
56721CHOL    R191318  32.443  13.155   4.827 -0.0103  0.1753  0.0273
56721CHOL    R291319  32.439  13.007   4.593  0.1253  0.0326  0.1152
56721CHOL    R391320  32.548  13.233   4.487 -0.0357  0.0535 -0.0087
56721CHOL    R491321  32.602  13.024   4.289  0.0439 -0.0010  0.0694
56721CHOL    R591322  32.749  13.157   4.380 -0.0149  0.1276 -0.0224
56721CHOL    C191323  32.800  13.245   4.012 -0.1544 -0.0012 -0.0735
56721CHOL    C291324  33.010  13.224   3.729  0.3181  0.0204  0.3380
56722CHOL   ROH91325  22.925  34.859   8.330 -0.1729 -0.2532 -0.0897
56722CHOL    R191326  23.059  34.631   8.431 -0.2285 -0.1987  0.1099
56722CHOL    R291327  23.298  34.647   8.569 -0.1759 -0.1438  0.0147
56722CHOL    R391328  23.161  34.508   8.758 -0.1693  0.1115  0.2092
56722CHOL    R491329  23.432  34.395   8.764 -0.3012 -0.2186  0.0046
56722CHOL    R591330  23.246  34.284   8.740 -0.4610 -0.0027  0.2325
56722CHOL    C191331  23.382  34.118   9.056 -0.3684 -0.0233  0.1815
56722CHOL    C291332  23.404  33.846   9.099 -0.2730  0.0841  0.0912
56723CHOL   ROH91333  24.513  17.668   6.073  0.0019 -0.3407 -0.1076
56723CHOL    R191334  24.287  17.589   5.923 -0.0637 -0.3319 -0.0129
56723CHOL    R291335  24.100  17.409   6.019 -0.1153 -0.2031  0.1289
56723CHOL    R391336  23.925  17.609   5.961 -0.0478 -0.1645  0.0576
56723CHOL    R491337  23.767  17.363   5.941 -0.0864 -0.1328 -0.0381
56723CHOL    R591338  23.786  17.517   5.788  0.0187 -0.1247 -0.0176
56723CHOL    C191339  23.408  17.523   5.840 -0.0064 -0.0553 -0.2022
56723CHOL    C291340  23.075  17.255   5.697  0.0003 -0.0292 -0.1621
56724CHOL   ROH91341  20.941  20.418   9.753 -0.0275 -0.0830  0.1375
56724CHOL    R191342  21.093  20.383   9.989  0.0343 -0.0719  0.0998
56724CHOL    R291343  21.340  20.258   9.991  0.0442 -0.0535  0.0379
56724CHOL    R391344  21.419  20.488  10.112  0.0571 -0.0475  0.0183
56724CHOL    R491345  21.641  20.302  10.154  0.0141 -0.0811  0.1009
56724CHOL    R591346  21.536  20.415  10.308 -0.0015 -0.0362  0.0578
56724CHOL    C191347  21.891  20.543  10.363  0.0086 -0.0915  0.1192
56724CHOL    C291348  22.107  20.866  10.541 -0.0595 -0.3269 -0.0011
56725CHOL   ROH91349  12.945  19.111  16.831  0.1145  0.0648 -0.2046
56725CHOL    R191350  12.985  19.055  17.106 -0.0044  0.0019 -0.2001
56725CHOL    R291351  12.782  19.071  17.292 -0.0649  0.0461 -0.2697
56725CHOL    R391352  12.857  18.815  17.348 -0.1811  0.0079 -0.2871
56725CHOL    R491353  12.814  18.939  17.610 -0.2660 -0.0347 -0.2825
56725CHOL    R591354  12.993  18.835  17.544 -0.2700 -0.0828 -0.2161
56725CHOL    C191355  12.903  18.623  17.848 -0.4922 -0.1179 -0.3059
56725CHOL    C291356  12.927  18.479  18.196  0.3324  0.1289 -0.2950
56726CHOL   ROH91357  26.575  16.157   0.907  0.2013 -0.2206  0.0367
56726CHOL    R191358  26.563  16.395   1.059  0.2342 -0.1564 -0.0605
56726CHOL    R291359  26.327  16.490   1.167  0.2187  0.0090 -0.2377
56726CHOL    R391360  26.469  16.487   1.399  0.0779  0.0206 -0.1509
56726CHOL    R491361  26.235  16.654   1.457 -0.0107 -0.0637 -0.2685
56726CHOL    R591362  26.444  16.708   1.487 -0.0471 -0.0011 -0.1322
56726CHOL    C191363  26.315  16.746   1.844 -0.2766 -0.0951 -0.2048
56726CHOL    C291364  26.268  16.988   2.165 -0.1080 -0.2600  0.4326
56727CHOL   ROH91365  30.294  21.706   3.454  0.2258  0.0546 -0.0031
56727CHOL    R191366  30.180  21.828   3.225  0.1890  0.0971  0.0379
56727CHOL    R291367  30.281  21.793   2.971  0.0989  0.0780  0.0035
56727CHOL    R391368  30.026  21.718   2.914  0.0587  0.1535  0.0821
56727CHOL    R491369  30.144  21.787   2.654  0.0528 -0.0538  0.0257
56727CHOL    R591370  29.959  21.866   2.739  0.0986  0.0767  0.0024
56727CHOL    C191371  29.824  21.713   2.416 -0.0116 -0.0592  0.1125
56727CHOL    C291372  29.679  22.002   2.162  0.3562  0.0062 -0.2821
56728CHOL   ROH91373  33.903  16.789   4.926 -0.0933 -0.2447 -0.0994
56728CHOL    R191374  34.100  16.842   4.730 -0.0771 -0.0856 -0.0408
56728CHOL    R291375  34.210  16.644   4.572 -0.0079  0.0312 -0.1391
56728CHOL    R391376  34.130  16.807   4.369 -0.0163  0.1289 -0.0572
56728CHOL    R491377  34.349  16.649   4.256  0.0057  0.2096 -0.1309
56728CHOL    R591378  34.333  16.867   4.257 -0.0172  0.2085 -0.0176
56728CHOL    C191379  34.356  16.805   3.882  0.0055  0.4059 -0.0493
56728CHOL    C291380  34.463  16.974   3.568  0.0053 -0.1998 -0.0724
56729CHOL   ROH91381   1.966  34.386  16.030 -0.0501 -0.2813 -0.1093
56729CHOL    R191382   2.154  34.223  15.896 -0.2091 -0.3437 -0.2578
56729CHOL    R291383   2.125  34.148  15.631 -0.1585  0.1317 -0.4015
56729CHOL    R391384   2.374  34.254  15.607  0.0181 -0.1957 -0.0709
56729CHOL    R491385   2.354  34.060  15.389 -0.1521  0.2068 -0.4230
56729CHOL    R591386   2.511  34.069  15.540 -0.2201 -0.2903 -0.3097
56729CHOL    C191387   2.722  34.108  15.225  0.0175 -0.0572 -0.1252
56729CHOL    C291388   2.802  34.245  14.931 -0.0449  0.1449  0.2786
56730CHOL   ROH91389   0.748   2.083  12.607 -0.1500 -0.0635 -0.1193
56730CHOL    R191390   0.917   2.067  12.381 -0.2141 -0.0892 -0.1656
56730CHOL    R291391   1.176   1.974  12.395 -0.0502  0.3596 -0.1421
56730CHOL    R391392   1.093   1.804  12.201  0.1487 -0.0463  0.1208
56730CHOL    R491393   1.367   1.873  12.126 -0.0531  0.4500 -0.1779
56730CHOL    R591394   1.190   1.890  12.000 -0.1953 -0.0693 -0.0589
56730CHOL    C191395   1.400   1.655  11.786  0.1319  0.1216  0.0480
56730CHOL    C291396   1.619   1.427  11.764 -0.1986  0.0487  0.3547
56731CHOL   ROH91397  22.277  16.121   4.039  0.1510  0.0131 -0.0120
56731CHOL    R191398  22.437  15.894   4.089 -0.0462 -0.0911  0.1536
56731CHOL    R291399  22.702  15.912   4.167  0.0222 -0.2623 -0.0315
56731CHOL    R391400  22.618  15.755   4.373 -0.0116  0.0588  0.2054
56731CHOL    R491401  22.906  15.791   4.419  0.0572 -0.1841 -0.0220
56731CHOL    R591402  22.799  15.601   4.407 -0.1482 -0.0897  0.2651
56731CHOL    C191403  22.946  15.572   4.758  0.0462  0.1632  0.2060
56731CHOL    C291404  23.136  15.698   5.148  0.3334 -0.0433  0.0992
56732CHOL   ROH91405  34.617   2.348  12.673 -0.0997 -0.0698  0.0531
56732CHOL    R191406  34.591   2.173  12.452 -0.0652 -0.0196  0.0093
56732CHOL    R291407  34.686   2.237  12.201  0.0346  0.0087  0.0542
56732CHOL    R391408  34.816   1.999  12.225 -0.0291 -0.0260  0.0501
56732CHOL    R491409  34.853   2.075  11.944  0.2350  0.1095  0.1201
56732CHOL    R591410  34.773   1.886  12.018  0.1354  0.0857 -0.0458
56732CHOL    C191411  35.072   1.758  11.818  0.2919  0.1355  0.1546
56732CHOL    C291412  35.109   1.798  11.436  0.2684  0.0718 -0.1752
56733CHOL   ROH91413  22.586  16.913  13.043 -0.0538  0.0356 -0.1344
56733CHOL    R191414  22.367  16.782  12.920 -0.0990  0.0151 -0.0329
56733CHOL    R291415  22.127  16.739  13.050 -0.1188  0.2114 -0.0035
56733CHOL    R391416  22.024  16.866  12.833 -0.0652  0.0712 -0.1115
56733CHOL    R491417  21.790  16.761  12.976 -0.1095  0.2836 -0.0256
56733CHOL    R591418  21.840  16.728  12.766 -0.1192  0.0877  0.0014
56733CHOL    C191419  21.497  16.892  12.728 -0.0535  0.1939 -0.1398
56733CHOL    C291420  21.304  16.873  12.474  0.0918  0.0129 -0.2484
56734CHOL   ROH91421  33.127   7.681   4.964  0.0474 -0.0348  0.3036
56734CHOL    R191422  33.185   7.921   5.101  0.2663  0.0634  0.0453
56734CHOL    R291423  33.340   8.121   4.992 -0.0586  0.0704 -0.4195
56734CHOL    R391424  33.124   8.276   5.051  0.0053  0.0115 -0.0118
56734CHOL    R491425  33.347   8.465   5.027 -0.1122  0.0872 -0.5703
56734CHOL    R591426  33.210   8.446   5.196  0.2586  0.1012 -0.2632
56734CHOL    C191427  33.149   8.811   5.103 -0.0820  0.0418 -0.2754
56734CHOL    C291428  33.304   9.169   5.235 -0.0679 -0.0279  0.1996
56735CHOL   ROH91429  33.871   0.258  12.411 -0.2538  0.2488 -0.1617
56735CHOL    R191430  33.971   0.254  12.146 -0.0687  0.1864 -0.0921
56735CHOL    R291431  34.224   0.162  12.083 -0.0758  0.0426  0.0881
56735CHOL    R391432  34.088   0.002  11.911 -0.0447  0.1151 -0.0036
56735CHOL    R491433  34.350   0.041  11.785 -0.0305  0.1823  0.0502
56735CHOL    R591434  34.155   0.077  11.694 -0.0187  0.2154  0.0401
56735CHOL    C191435  34.295  35.205  11.450  0.0247  0.3317 -0.0580
56735CHOL    C291436  34.120  35.280  11.098  0.1500  0.1000 -0.1855
56736CHOL   ROH91437   8.629   7.108  17.970 -0.0889 -0.0478  0.0197
56736CHOL    R191438   8.595   6.945  17.741  0.0809 -0.0982  0.0296
56736CHOL    R291439   8.449   7.027  17.521 -0.1013 -0.3080  0.0696
56736CHOL    R391440   8.678   6.967  17.387 -0.0490  0.0232  0.0066
56736CHOL    R491441   8.498   7.075  17.182 -0.3620 -0.4867  0.0051
56736CHOL    R591442   8.603   6.884  17.175  0.0034 -0.2941  0.1101
56736CHOL    C191443   8.742   7.047  16.859 -0.4647 -0.2797 -0.0918
56736CHOL    C291444   9.032   7.181  16.576  0.2932 -0.1915 -0.0457
56737CHOL   ROH91445   5.400   2.802  12.692 -0.0412 -0.1101 -0.0288
56737CHOL    R191446   5.167   2.796  12.852 -0.0420 -0.1050 -0.0303
56737CHOL    R291447   5.134   2.958  13.073 -0.0715 -0.0504 -0.0760
56737CHOL    R391448   4.905   3.030  12.946 -0.0827 -0.1231 -0.0977
56737CHOL    R491449   4.859   3.099  13.227 -0.0033  0.1710 -0.1549
56737CHOL    R591450   4.731   2.975  13.101 -0.0615  0.0739 -0.0024
56737CHOL    C191451   4.483   3.249  13.198  0.0257  0.2317 -0.2211
56737CHOL    C291452   4.579   3.370  13.605 -0.1179  0.0033 -0.1529
56738CHOL   ROH91453   6.484   9.456  16.342 -0.0758  0.1314  0.0536
56738CHOL    R191454   6.621   9.528  16.105  0.0536  0.1534  0.1341
56738CHOL    R291455   6.503   9.515  15.855  0.3023 -0.1688  0.0275
56738CHOL    R391456   6.581   9.775  15.841 -0.0274 -0.0734 -0.0677
56738CHOL    R491457   6.574   9.684  15.562  0.4467 -0.2928 -0.0093
56738CHOL    R591458   6.742   9.779  15.664  0.1923  0.0084  0.1329
56738CHOL    C191459   6.688  10.026  15.378  0.2212 -0.2755 -0.1200
56738CHOL    C291460   6.882  10.248  15.113 -0.1715 -0.4645  0.0431
56739CHOL   ROH91461  21.504  23.368  14.729  0.0460  0.4314  0.0606
56739CHOL    R191462  21.296  23.437  14.551  0.0406  0.2188 -0.0167
56739CHOL    R291463  21.304  23.665  14.395 -0.0651  0.1474 -0.1269
56739CHOL    R391464  21.262  23.489  14.192  0.0816  0.0224 -0.0495
56739CHOL    R491465  21.285  23.750  14.061 -0.2735  0.0042 -0.1524
56739CHOL    R591466  21.121  23.608  14.039 -0.1102 -0.2010 -0.0492
56739CHOL    C191467  21.235  23.635  13.675 -0.2571 -0.1964 -0.0948
56739CHOL    C291468  21.136  23.754  13.372 -0.1932 -0.2661  0.3118
56740CHOL   ROH91469  28.606   0.776   8.285  0.1917 -0.0389  0.3152
56740CHOL    R191470  28.539   0.548   8.131  0.0959  0.0398  0.2399
56740CHOL    R291471  28.726   0.403   7.990  0.0284  0.0334  0.1566
56740CHOL    R391472  28.624   0.194   8.131 -0.0159  0.0124  0.0940
56740CHOL    R491473  28.762   0.070   7.904  0.0784  0.0447  0.1334
56740CHOL    R591474  28.555   0.038   7.964  0.0570  0.0274  0.0499
56740CHOL    C191475  28.687  35.066   7.987  0.0663  0.0317  0.0609
56740CHOL    C291476  28.799  34.939   7.671  0.0900  0.1762  0.0646
56741CHOL   ROH91477   2.542   3.295  14.344 -0.0155  0.0939 -0.0125
56741CHOL    R191478   2.669   3.181  14.118  0.0434  0.1857 -0.0258
56741CHOL    R291479   2.927   3.245  14.044  0.1534  0.0261  0.2162
56741CHOL    R391480   2.963   2.976  14.055 -0.0916 -0.0184 -0.0008
56741CHOL    R491481   3.130   3.064  13.830  0.2093  0.0546  0.2449
56741CHOL    R591482   2.977   2.908  13.826  0.0761  0.1877 -0.0539
56741CHOL    C191483   3.282   2.706  13.717  0.0119  0.0293  0.0577
56741CHOL    C291484   3.454   2.391  13.537 -0.0089  0.0493 -0.0791
56742CHOL   ROH91485  18.492  12.729  16.571 -0.2519 -0.1977  0.0379
56742CHOL    R191486  18.277  12.728  16.387 -0.2146 -0.0623 -0.0072
56742CHOL    R291487  18.099  12.938  16.366 -0.1257  0.0166  0.0107
56742CHOL    R391488  18.171  12.930  16.104 -0.0737  0.0558  0.0238
56742CHOL    R491489  17.886  13.001  16.101 -0.1278 -0.1670 -0.0322
56742CHOL    R591490  17.980  12.837  15.993  0.0193 -0.1001 -0.0047
56742CHOL    C191491  17.830  13.030  15.700 -0.0801 -0.2372 -0.0444
56742CHOL    C291492  17.410  13.189  15.634 -0.1980 -0.1747 -0.2634
56743CHOL   ROH91493  26.700  18.568   4.201 -0.0560  0.0454 -0.0268
56743CHOL    R191494  26.466  18.555   4.042 -0.0254 -0.0412 -0.0651
56743CHOL    R291495  26.428  18.713   3.819 -0.0799 -0.0014 -0.0276
56743CHOL    R391496  26.384  18.475   3.697  0.0704  0.0077 -0.0993
56743CHOL    R491497  26.289  18.676   3.505 -0.1949  0.0015  0.0225
56743CHOL    R591498  26.177  18.505   3.580 -0.0114 -0.1268  0.0100
56743CHOL    C191499  26.168  18.430   3.206 -0.1212  0.0118 -0.0156
56743CHOL    C291500  26.232  18.191   2.972 -0.0312 -0.0293  0.1474
56744CHOL   ROH91501  13.527  29.584  20.063  0.5555 -0.1988 -0.1384
56744CHOL    R191502  13.528  29.472  19.803  0.1727 -0.1398 -0.1680
56744CHOL    R291503  13.336  29.293  19.717 -0.1109  0.0884 -0.0199
56744CHOL    R391504  13.306  29.472  19.514 -0.1199  0.1699  0.0530
56744CHOL    R491505  13.187  29.224  19.413 -0.0289  0.1814 -0.0813
56744CHOL    R591506  13.342  29.343  19.315 -0.0428  0.2680  0.0029
56744CHOL    C191507  13.073  29.351  19.045  0.0102  0.3122 -0.0487
56744CHOL    C291508  12.792  29.429  18.751  0.0943 -0.0572 -0.0744
56745CHOL   ROH91509   7.269   8.718  13.947 -0.1216  0.0044 -0.0223
56745CHOL    R191510   7.061   8.828  14.104 -0.0690  0.0471  0.0178
56745CHOL    R291511   6.827   8.692  14.158 -0.0788  0.0876  0.0785
56745CHOL    R391512   6.893   8.747  14.416 -0.0122  0.0929  0.0606
56745CHOL    R491513   6.624   8.629  14.431  0.0208  0.0271  0.1390
56745CHOL    R591514   6.687   8.820  14.515  0.0006  0.0387  0.1271
56745CHOL    C191515   6.568   8.644  14.832  0.1415 -0.0032  0.1571
56745CHOL    C291516   6.533   8.381  15.041 -0.0165  0.2488 -0.0753
56746CHOL   ROH91517  30.354   8.942   6.412 -0.2000 -0.0249 -0.0146
56746CHOL    R191518  30.300   8.745   6.215 -0.1945  0.1136 -0.1558
56746CHOL    R291519  30.335   8.791   5.945  0.2546  0.1551 -0.0933
56746CHOL    R391520  30.489   8.567   5.960 -0.0751 -0.0648  0.0557
56746CHOL    R491521  30.385   8.567   5.686  0.2663  0.1389 -0.0771
56746CHOL    R591522  30.370   8.405   5.831 -0.1425  0.1271 -0.1260
56746CHOL    C191523  30.558   8.227   5.550 -0.0366 -0.0768  0.0721
56746CHOL    C291524  30.873   8.100   5.312 -0.4933  0.2838  0.0161
56747CHOL   ROH91525  13.701  20.925  20.733  0.2780 -0.0444 -0.0523
56747CHOL    R191526  13.589  21.087  20.529  0.1786 -0.0502 -0.0027
56747CHOL    R291527  13.661  21.063  20.264  0.0906 -0.0193 -0.0299
56747CHOL    R391528  13.393  21.034  20.227  0.0826 -0.0643  0.0617
56747CHOL    R491529  13.490  21.158  19.979  0.0057 -0.2281 -0.0492
56747CHOL    R591530  13.328  21.230  20.106  0.0355 -0.1524 -0.0563
56747CHOL    C191531  13.138  21.185  19.778 -0.0510 -0.3920  0.0258
56747CHOL    C291532  12.906  21.145  19.440  0.1281 -0.3884  0.1089
56748CHOL   ROH91533  11.417  18.643  17.289 -0.0164  0.0416  0.1016
56748CHOL    R191534  11.417  18.367  17.350 -0.1306  0.0210  0.0080
56748CHOL    R291535  11.246  18.188  17.228 -0.0391  0.0932 -0.2311
56748CHOL    R391536  11.477  18.056  17.170 -0.0011  0.0717 -0.0371
56748CHOL    R491537  11.264  17.876  17.080  0.0579  0.0872 -0.2069
56748CHOL    R591538  11.428  17.826  17.215 -0.0573  0.0778 -0.0706
56748CHOL    C191539  11.491  17.571  16.939  0.1499  0.0634 -0.0115
56748CHOL    C291540  11.776  17.462  16.726 -0.1349  0.1132  0.0362
56749CHOL   ROH91541  19.145  20.972  12.835 -0.1591 -0.3696  0.1189
56749CHOL    R191542  19.251  20.803  13.035 -0.0904 -0.4305  0.0319
56749CHOL    R291543  19.386  20.570  12.977  0.1946 -0.2368 -0.0958
56749CHOL    R391544  19.580  20.681  13.132 -0.0120 -0.1605  0.1095
56749CHOL    R491545  19.640  20.394  13.132  0.0597 -0.1440  0.2337
56749CHOL    R591546  19.615  20.522  13.307 -0.1751 -0.1179  0.1804
56749CHOL    C191547  19.970  20.397  13.368 -0.2131 -0.0182  0.6181
56749CHOL    C291548  20.422  20.214  13.411  0.1687  0.0237  0.0705
56750CHOL   ROH91549   1.494  32.326  11.415 -0.1012  0.0561 -0.1649
56750CHOL    R191550   1.294  32.166  11.537 -0.0233 -0.0237 -0.1411
56750CHOL    R291551   1.346  31.916  11.641  0.1120  0.0403 -0.0513
56750CHOL    R391552   1.234  32.021  11.865  0.0176  0.0481 -0.1022
56750CHOL    R491553   1.144  31.743  11.861  0.0487  0.0391 -0.1102
56750CHOL    R591554   1.018  31.920  11.877  0.0244  0.0265 -0.1728
56750CHOL    C191555   0.921  31.741  12.200 -0.0767  0.0461 -0.1927
56750CHOL    C291556   0.667  31.821  12.537 -0.0810 -0.0876 -0.0985
56751CHOL   ROH91557  26.564  25.409   6.668  0.1268  0.0526  0.0980
56751CHOL    R191558  26.447  25.616   6.515  0.0710 -0.0093  0.0572
56751CHOL    R291559  26.517  25.665   6.252  0.0801 -0.0235  0.0591
56751CHOL    R391560  26.249  25.641   6.211  0.0917 -0.1190  0.0341
56751CHOL    R491561  26.332  25.864   6.039  0.0019  0.0219  0.1676
56751CHOL    R591562  26.173  25.867   6.188 -0.0071 -0.1373  0.1642
56751CHOL    C191563  25.973  25.958   5.875 -0.0326 -0.0414  0.2072
56751CHOL    C291564  26.117  26.368   5.817  0.1395  0.0780  0.3850
56752CHOL   ROH91565  19.966  15.004  10.273 -0.1082 -0.2365  0.0367
56752CHOL    R191566  20.178  15.023  10.459 -0.0628 -0.1369 -0.0249
56752CHOL    R291567  20.175  14.892  10.702 -0.0066 -0.0039  0.0482
56752CHOL    R391568  20.414  14.795  10.617 -0.0284 -0.0541  0.0436
56752CHOL    R491569  20.455  14.854  10.901  0.0422  0.1056  0.0007
56752CHOL    R591570  20.577  14.926  10.735  0.0021  0.0109 -0.0697
56752CHOL    C191571  20.843  14.741  10.936  0.0503  0.1220 -0.0312
56752CHOL    C291572  21.016  14.689  11.209 -0.0301  0.2704 -0.0405
56753CHOL   ROH91573  16.882  33.885  16.393  0.1427  0.0626  0.1667
56753CHOL    R191574  16.784  33.732  16.175  0.1261  0.1545  0.1099
56753CHOL    R291575  16.594  33.534  16.206  0.1257  0.1453  0.0395
56753CHOL    R391576  16.462  33.675  16.016  0.1151  0.2258  0.1063
56753CHOL    R491577  16.316  33.422  16.034  0.2256  0.1427 -0.1225
56753CHOL    R591578  16.398  33.511  15.853  0.2369  0.3147 -0.0338
56753CHOL    C191579  16.030  33.489  15.756  0.2741  0.2164 -0.1541
56753CHOL    C291580  15.687  33.577  15.693  0.1650 -0.1263  0.2546
56754CHOL   ROH91581  19.415   2.695  14.591  0.1109  0.0106 -0.0628
56754CHOL    R191582  19.427   2.707  14.308 -0.0401  0.0058 -0.0692
56754CHOL    R291583  19.219   2.803  14.154 -0.0626  0.1415  0.0505
56754CHOL    R391584  19.412   2.966  14.053 -0.0145  0.0182 -0.0594
56754CHOL    R491585  19.214   2.942  13.838  0.0948 -0.2705 -0.1357
56754CHOL    R591586  19.428   2.902  13.823  0.1076 -0.2837  0.0279
56754CHOL    C191587  19.392   3.175  13.558  0.2318 -0.6260 -0.3472
56754CHOL    C291588  19.334   3.268  13.200 -0.0198 -0.2085  0.1245
56755CHOL   ROH91589  23.228  13.474  11.802 -0.0397  0.0922  0.0690
56755CHOL    R191590  23.074  13.515  11.568  0.0252  0.0322  0.0159
56755CHOL    R291591  23.068  13.332  11.360  0.0296 -0.0524  0.0911
56755CHOL    R391592  22.799  13.346  11.399  0.0233  0.0300  0.0214
56755CHOL    R491593  22.832  13.180  11.159  0.0330  0.0660 -0.0034
56755CHOL    R591594  22.708  13.358  11.178  0.0875  0.1044 -0.0014
56755CHOL    C191595  22.442  13.104  11.079  0.0289  0.2122 -0.1239
56755CHOL    C291596  22.196  13.008  10.719 -0.3534  0.0457 -0.1603
56756CHOL   ROH91597  27.482  12.780   4.939 -0.0890  0.1977  0.0277
56756CHOL    R191598  27.266  12.794   4.757 -0.0732  0.1214  0.0028
56756CHOL    R291599  27.303  12.816   4.484 -0.0494 -0.0114 -0.0051
56756CHOL    R391600  27.143  12.596   4.477 -0.0599 -0.0064  0.0873
56756CHOL    R491601  27.128  12.708   4.207  0.0029 -0.1619  0.0198
56756CHOL    R591602  26.960  12.661   4.338 -0.0271 -0.0772  0.0115
56756CHOL    C191603  26.875  12.439   4.039  0.0235 -0.2450  0.1211
56756CHOL    C291604  26.600  12.319   3.965 -0.1651 -0.2465  0.1112
56757CHOL   ROH91605  29.236  16.002   3.542  0.5132  0.0172  0.2491
56757CHOL    R191606  29.394  16.033   3.309  0.2907 -0.0534  0.0865
56757CHOL    R291607  29.340  15.900   3.073  0.0289 -0.0810  0.1590
56757CHOL    R391608  29.343  16.151   2.968 -0.0229 -0.0979  0.1176
56757CHOL    R491609  29.416  15.975   2.745  0.0711 -0.1103  0.1622
56757CHOL    R591610  29.528  16.149   2.816  0.0059 -0.0679  0.1546
56757CHOL    C191611  29.464  16.255   2.455  0.0473 -0.1433  0.1254
56757CHOL    C291612  29.547  16.456   2.106  0.1222 -0.0554 -0.2796
56758CHOL   ROH91613   2.826   3.753  14.013  0.0325  0.0107  0.0855
56758CHOL    R191614   3.074   3.780  13.879 -0.0049  0.0938  0.0329
56758CHOL    R291615   3.243   3.567  13.832  0.1340  0.1773  0.1448
56758CHOL    R391616   3.226   3.651  13.574  0.0388  0.0027  0.0932
56758CHOL    R491617   3.504   3.564  13.607  0.1236  0.2845  0.1316
56758CHOL    R591618   3.436   3.758  13.533 -0.0637  0.1761  0.0153
56758CHOL    C191619   3.641   3.642  13.233  0.0282  0.1830  0.0754
56758CHOL    C291620   3.885   3.671  12.943 -0.2621 -0.0926  0.4610
56759CHOL   ROH91621  13.986  30.660  19.966  0.0608 -0.2370  0.0084
56759CHOL    R191622  13.902  30.470  19.773 -0.0019 -0.1740 -0.0265
56759CHOL    R291623  13.775  30.543  19.539 -0.1289 -0.1010  0.0630
56759CHOL    R391624  13.975  30.398  19.424 -0.1598 -0.0224 -0.0918
56759CHOL    R491625  13.728  30.288  19.310 -0.1893  0.0515 -0.0959
56759CHOL    R591626  13.887  30.176  19.410 -0.1598 -0.0135 -0.2165
56759CHOL    C191627  13.888  30.003  19.070 -0.2532  0.2142 -0.3335
56759CHOL    C291628  13.813  29.784  18.853 -0.1932 -0.0461  0.0164
56760CHOL   ROH91629   5.344  33.359  18.814 -0.0163  0.1547 -0.0819
56760CHOL    R191630   5.497  33.396  18.579  0.1409  0.2407  0.0322
56760CHOL    R291631   5.753  33.501  18.583  0.1953  0.1157  0.2545
56760CHOL    R391632   5.814  33.273  18.448  0.1583  0.1745  0.1388
56760CHOL    R491633   6.002  33.474  18.345  0.0592  0.2346  0.0980
56760CHOL    R591634   5.868  33.348  18.227  0.0162  0.2548  0.1345
56760CHOL    C191635   6.204  33.244  18.080 -0.0548  0.3595 -0.1017
56760CHOL    C291636   6.450  33.308  17.788  0.1692 -0.2546 -0.0205
56761CHOL   ROH91637   0.894  19.913   2.952  0.2364  0.0072  0.0308
56761CHOL    R191638   0.675  20.018   3.096  0.3868  0.1616  0.1496
56761CHOL    R291639   0.441  19.876   3.137  0.0962  0.5258 -0.1988
56761CHOL    R391640   0.491  19.932   3.398  0.1201 -0.0537 -0.0722
56761CHOL    R491641   0.198  19.937   3.375  0.1321  0.5011 -0.1559
56761CHOL    R591642   0.324  20.095   3.456  0.3869  0.1303  0.1841
56761CHOL    C191643   0.103  20.025   3.759  0.1755 -0.0575 -0.0122
56761CHOL    C291644   0.010  20.226   4.068 -0.4507  0.0133 -0.0197
56762CHOL   ROH91645  15.754   9.137  15.934  0.0634 -0.1023 -0.1702
56762CHOL    R191646  16.008   9.012  15.925  0.0704 -0.0851 -0.2173
56762CHOL    R291647  16.181   9.042  15.712  0.1357  0.1358 -0.1353
56762CHOL    R391648  16.355   9.120  15.905  0.0732 -0.0523 -0.0015
56762CHOL    R491649  16.521   8.981  15.707  0.1648  0.3008 -0.1760
56762CHOL    R591650  16.512   8.939  15.921  0.1554 -0.0031 -0.2340
56762CHOL    C191651  16.883   9.019  15.885  0.1235  0.2200 -0.0740
56762CHOL    C291652  17.130   8.808  16.075  0.3734 -0.1307 -0.0726
56763CHOL   ROH91653   9.875  13.889  14.114 -0.1089  0.0856 -0.0050
56763CHOL    R191654   9.615  13.925  14.220 -0.1030  0.0387  0.0261
56763CHOL    R291655   9.566  13.946  14.491 -0.0765  0.0136  0.0330
56763CHOL    R391656   9.443  14.177  14.418 -0.1202 -0.0009  0.0617
56763CHOL    R491657   9.311  14.098  14.668  0.0031  0.0273  0.1362
56763CHOL    R591658   9.213  14.143  14.478 -0.0901 -0.0016  0.1770
56763CHOL    C191659   9.046  14.403  14.702  0.0082  0.0216  0.2234
56763CHOL    C291660   8.848  14.706  14.893  0.0511  0.0568 -0.2808
56764CHOL   ROH91661  33.442  26.167   9.612  0.0517 -0.0410 -0.0087
56764CHOL    R191662  33.614  26.344   9.474  0.0076 -0.0547 -0.0816
56764CHOL    R291663  33.889  26.315   9.476  0.0227  0.0732  0.0137
56764CHOL    R391664  33.859  26.319   9.205  0.0931 -0.1261  0.0027
56764CHOL    R491665  34.099  26.479   9.256 -0.0698  0.1263 -0.0351
56764CHOL    R591666  33.923  26.540   9.141 -0.0938 -0.1078 -0.1215
56764CHOL    C191667  34.192  26.579   8.874 -0.0581 -0.0305 -0.0740
56764CHOL    C291668  34.306  26.878   8.926 -0.1334 -0.1197  0.2088
56765CHOL   ROH91669  17.807  23.799  15.067  0.0739  0.0833  0.0723
56765CHOL    R191670  18.056  23.665  15.081  0.0122 -0.0441 -0.0406
56765CHOL    R291671  18.236  23.662  14.872  0.0378  0.1028 -0.0204
56765CHOL    R391672  18.407  23.756  15.061  0.0566 -0.1779  0.1054
56765CHOL    R491673  18.580  23.636  14.856  0.0275 -0.0668  0.0146
56765CHOL    R591674  18.582  23.592  15.070 -0.0332 -0.2823 -0.0286
56765CHOL    C191675  18.942  23.710  15.025  0.0383 -0.4292  0.1527
56765CHOL    C291676  19.010  23.541  15.391 -0.0500  0.0675  0.0351
56766CHOL   ROH91677  27.728  29.420   9.445 -0.2500 -0.0430 -0.0425
56766CHOL    R191678  27.791  29.338   9.181 -0.3288 -0.0214 -0.0684
56766CHOL    R291679  27.660  29.437   8.959 -0.2094  0.2039 -0.0402
56766CHOL    R391680  27.912  29.496   8.877 -0.1376 -0.0475 -0.0066
56766CHOL    R491681  27.766  29.434   8.630 -0.1665  0.0929 -0.0257
56766CHOL    R591682  27.953  29.344   8.696 -0.2636 -0.0921  0.0019
56766CHOL    C191683  28.064  29.489   8.361 -0.0737 -0.2074  0.0141
56766CHOL    C291684  28.156  29.693   8.073  0.1983 -0.2229  0.0955
56767CHOL   ROH91685  17.716  33.823  10.651 -0.0838  0.1428  0.0915
56767CHOL    R191686  17.918  33.929  10.818 -0.0891  0.2007  0.0612
56767CHOL    R291687  17.863  34.108  11.022 -0.1445 -0.0153  0.2385
56767CHOL    R391688  17.996  33.926  11.174  0.1185 -0.0134  0.0144
56767CHOL    R491689  18.046  34.183  11.305 -0.2361 -0.0954  0.3192
56767CHOL    R591690  18.196  34.039  11.241 -0.0357  0.1900  0.1377
56767CHOL    C191691  18.277  34.056  11.613 -0.0426 -0.1405  0.1556
56767CHOL    C291692  18.293  34.390  11.961 -0.0046 -0.0159  0.0493
56768CHOL   ROH91693  18.125   8.594  14.024  0.3304 -0.0714 -0.2158
56768CHOL    R191694  18.151   8.533  14.299  0.0805  0.1051 -0.1513
56768CHOL    R291695  18.333   8.348  14.394 -0.1854 -0.0282  0.1082
56768CHOL    R391696  18.412   8.555  14.552 -0.0603  0.0037  0.0044
56768CHOL    R491697  18.515   8.315  14.686 -0.0042  0.0260  0.0022
56768CHOL    R591698  18.391   8.471  14.775  0.0708  0.0645  0.0405
56768CHOL    C191699  18.695   8.491  15.004  0.2183  0.0875 -0.1567
56768CHOL    C291700  18.715   8.592  15.368 -0.1079  0.3765  0.0295
56769CHOL   ROH91701  18.120  26.038  13.193 -0.1385  0.0255  0.1031
56769CHOL    R191702  18.303  26.249  13.242  0.0170 -0.0444 -0.1625
56769CHOL    R291703  18.396  26.308  13.495 -0.1163  0.3480 -0.2026
56769CHOL    R391704  18.639  26.281  13.376 -0.0512 -0.0999  0.0234
56769CHOL    R491705  18.674  26.502  13.566  0.0031  0.2411 -0.3739
56769CHOL    R591706  18.720  26.505  13.353  0.1644 -0.2110 -0.3527
56769CHOL    C191707  19.063  26.589  13.496  0.1339 -0.2412 -0.2616
56769CHOL    C291708  19.282  26.969  13.400 -0.1341 -0.0887 -0.1303
56770CHOL   ROH91709  16.512  17.630  14.663 -0.1171 -0.0627 -0.0112
56770CHOL    R191710  16.542  17.479  14.901  0.1854  0.1305  0.0765
56770CHOL    R291711  16.691  17.568  15.115 -0.1121  0.6263  0.0869
56770CHOL    R391712  16.461  17.523  15.253 -0.0526  0.1079  0.0256
56770CHOL    R491713  16.672  17.510  15.456 -0.0849  0.7334  0.1065
56770CHOL    R591714  16.521  17.359  15.417  0.3065  0.3290  0.1207
56770CHOL    C191715  16.446  17.434  15.783 -0.0129  0.3092  0.0604
56770CHOL    C291716  16.487  17.609  16.163  0.2948  0.2278 -0.2532
56771CHOL   ROH91717   3.034  21.056   9.749 -0.1760 -0.0467  0.0154
56771CHOL    R191718   3.186  21.242   9.600 -0.1619 -0.0843 -0.0174
56771CHOL    R291719   3.435  21.330   9.681 -0.1976 -0.0145  0.0170
56771CHOL    R391720   3.510  21.246   9.433 -0.1156 -0.1037  0.0715
56771CHOL    R491721   3.687  21.472   9.491 -0.1994 -0.0214  0.0095
56771CHOL    R591722   3.561  21.448   9.315 -0.1522 -0.1410 -0.0081
56771CHOL    C191723   3.903  21.477   9.149 -0.1234 -0.1092  0.0565
56771CHOL    C291724   4.243  21.551   9.019 -0.1782  0.0227  0.1144
56772CHOL   ROH91725  11.461  27.571  21.423  0.0440  0.0151 -0.0302
56772CHOL    R191726  11.444  27.381  21.214 -0.1447  0.1753 -0.1627
56772CHOL    R291727  11.444  27.454  20.948  0.1336  0.3490 -0.1198
56772CHOL    R391728  11.652  27.278  20.933 -0.1436  0.0158 -0.1029
56772CHOL    R491729  11.603  27.359  20.656  0.1113  0.2108 -0.0872
56772CHOL    R591730  11.611  27.155  20.732 -0.2544  0.1650 -0.1707
56772CHOL    C191731  11.891  27.140  20.472 -0.1618 -0.1830 -0.0524
56772CHOL    C291732  12.210  26.841  20.422  0.1695 -0.2818  0.0000
56773CHOL   ROH91733   0.814   7.571  10.990  0.0416 -0.5122  0.1531
56773CHOL    R191734   0.958   7.651  10.760 -0.1305 -0.1964  0.1526
56773CHOL    R291735   1.209   7.553  10.700 -0.0089  0.1780  0.0322
56773CHOL    R391736   1.093   7.490  10.463  0.0108  0.1378  0.0335
56773CHOL    R491737   1.380   7.453  10.417 -0.0004 -0.0455  0.1156
56773CHOL    R591738   1.245   7.575  10.298  0.0967 -0.0221  0.0300
56773CHOL    C191739   1.370   7.335  10.029  0.0230 -0.2135  0.1655
56773CHOL    C291740   1.278   7.273   9.699  0.0103 -0.0204  0.0526
56774CHOL   ROH91741  15.926  30.126  13.530 -0.0387  0.0323 -0.0309
56774CHOL    R191742  16.016  30.330  13.705  0.0944 -0.1575  0.1245
56774CHOL    R291743  16.217  30.289  13.889  0.3393 -0.3190 -0.1726
56774CHOL    R391744  16.328  30.506  13.768  0.1031 -0.1166 -0.0322
56774CHOL    R491745  16.510  30.442  13.989  0.5314 -0.4831 -0.4793
56774CHOL    R591746  16.417  30.636  13.948  0.4473 -0.4131  0.0162
56774CHOL    C191747  16.785  30.735  13.933  0.4219 -0.3889 -0.5259
56774CHOL    C291748  17.080  30.825  14.192 -0.1057  0.1559  0.0510
56775CHOL   ROH91749   0.549  24.007  11.632 -0.2650  0.3400 -0.0158
56775CHOL    R191750   0.763  24.118  11.484 -0.0146  0.0618  0.1349
56775CHOL    R291751   0.752  24.369  11.371  0.2497 -0.0690 -0.1887
56775CHOL    R391752   0.982  24.407  11.511  0.0810 -0.0044  0.0746
56775CHOL    R491753   0.903  24.676  11.423  0.3708 -0.0830 -0.4496
56775CHOL    R591754   1.097  24.580  11.391  0.3579 -0.2588 -0.0356
56775CHOL    C191755   1.207  24.890  11.585  0.2829 -0.0302 -0.3543
56775CHOL    C291756   1.204  25.232  11.299  0.1193  0.1936 -0.0430
56776CHOL   ROH91757   2.138   7.745   8.095 -0.1328 -0.0380  0.1484
56776CHOL    R191758   2.099   7.980   8.249 -0.1219  0.0086  0.0809
56776CHOL    R291759   1.944   7.984   8.477 -0.0467  0.0600  0.1317
56776CHOL    R391760   2.169   8.086   8.590 -0.0265  0.1379  0.0215
56776CHOL    R491761   1.948   8.222   8.727 -0.0032  0.2051 -0.0067
56776CHOL    R591762   2.117   8.317   8.627 -0.0309  0.1570 -0.0999
56776CHOL    C191763   2.162   8.457   8.979  0.0412  0.3628 -0.1903
56776CHOL    C291764   1.987   8.622   9.258 -0.0008 -0.1566  0.1018
56777CHOL   ROH91765  12.060   4.570  14.486  0.1010  0.2436  0.0215
56777CHOL    R191766  12.293   4.491  14.626  0.0120  0.1222  0.1019
56777CHOL    R291767  12.481   4.671  14.717  0.1363  0.0165  0.0622
56777CHOL    R391768  12.436   4.549  14.956 -0.0094  0.1529  0.1050
56777CHOL    R491769  12.684   4.701  14.995  0.0321  0.0723  0.1322
56777CHOL    R591770  12.655   4.488  15.033 -0.0669  0.1045  0.2263
56777CHOL    C191771  12.761   4.604  15.381 -0.1652  0.2329  0.2135
56777CHOL    C291772  13.069   4.759  15.615 -0.1423 -0.0334 -0.0528
56778CHOL   ROH91773   1.328  31.263  10.638 -0.0871  0.1803 -0.0481
56778CHOL    R191774   1.110  31.429  10.710 -0.1151  0.1215  0.0032
56778CHOL    R291775   0.847  31.350  10.683 -0.1011  0.0693  0.0183
56778CHOL    R391776   0.833  31.414  10.946 -0.0869  0.0223  0.0306
56778CHOL    R491777   0.554  31.404  10.857 -0.0930  0.0114  0.0501
56778CHOL    R591778   0.652  31.570  10.960 -0.1007  0.0027  0.0717
56778CHOL    C191779   0.371  31.497  11.207 -0.0750 -0.0672  0.0802
56778CHOL    C291780   0.175  31.571  11.651  0.1883 -0.2611 -0.2104
56779CHOL   ROH91781  25.966  18.186   1.032  0.0156  0.0092  0.1844
56779CHOL    R191782  25.974  18.314   1.284  0.1774 -0.0311  0.1998
56779CHOL    R291783  25.848  18.212   1.507  0.0822  0.0807  0.1973
56779CHOL    R391784  26.095  18.233   1.618  0.1163 -0.2055  0.1798
56779CHOL    R491785  25.920  18.156   1.840  0.0332  0.0362  0.2005
56779CHOL    R591786  26.055  18.327   1.835  0.2422 -0.1276  0.1697
56779CHOL    C191787  26.195  18.143   2.138  0.0364 -0.2583  0.1860
56779CHOL    C291788  26.278  18.160   2.479 -0.1336  0.0995 -0.0755
56780CHOL   ROH91789   0.619  33.777  10.041 -0.0896 -0.2399  0.0161
56780CHOL    R191790   0.464  33.910  10.237 -0.1345 -0.1522 -0.0784
56780CHOL    R291791   0.189  33.890  10.249 -0.1246 -0.2671 -0.0427
56780CHOL    R391792   0.237  33.814  10.505 -0.0716 -0.0404  0.0155
56780CHOL    R491793  35.334  33.868  10.496 -0.1259 -0.3307 -0.0497
56780CHOL    R591794   0.093  33.953  10.636 -0.2215 -0.0893 -0.0951
56780CHOL    C191795  35.240  33.784  10.881 -0.0775 -0.1554  0.0007
56780CHOL    C291796  34.899  33.906  10.971 -0.0134 -0.1261 -0.0825
56781CHOL   ROH91797  22.178  28.092  11.386  0.0223 -0.1442  0.0983
56781CHOL    R191798  22.082  27.878  11.229  0.0658 -0.0561 -0.0483
56781CHOL    R291799  21.873  27.716  11.309  0.0729 -0.1287 -0.1758
56781CHOL    R391800  21.767  27.787  11.069  0.0957  0.0088 -0.1460
56781CHOL    R491801  21.633  27.536  11.138 -0.2399  0.2003 -0.0901
56781CHOL    R591802  21.739  27.580  10.953 -0.2357  0.0401 -0.1272
56781CHOL    C191803  21.394  27.498  10.813 -0.4009  0.5214 -0.0124
56781CHOL    C291804  21.179  27.292  11.024 -0.2333 -0.2512 -0.0541
56782CHOL   ROH91805   2.075  26.996  16.574 -0.1978 -0.2956 -0.2200
56782CHOL    R191806   2.247  27.130  16.393 -0.2714 -0.0534 -0.1141
56782CHOL    R291807   2.483  27.018  16.302 -0.0431  0.2853  0.0480
56782CHOL    R391808   2.376  27.070  16.057  0.0397  0.1120 -0.0254
56782CHOL    R491809   2.665  27.050  16.010  0.0597  0.1350  0.0956
56782CHOL    R591810   2.535  27.216  15.953  0.0510  0.0750 -0.0576
56782CHOL    C191811   2.671  27.117  15.610  0.1972 -0.1151  0.0546
56782CHOL    C291812   2.529  27.369  15.420 -0.1338  0.1929  0.0650
56783CHOL   ROH91813  34.609   6.806   6.780 -0.3825 -0.0654 -0.0267
56783CHOL    R191814  34.428   6.836   6.996 -0.1884  0.0572  0.1207
56783CHOL    R291815  34.489   6.985   7.220 -0.0055  0.2302 -0.0402
56783CHOL    R391816  34.255   7.111   7.160 -0.0843  0.1444  0.0846
56783CHOL    R491817  34.290   7.153   7.448  0.0988  0.2330  0.0489
56783CHOL    R591818  34.115   7.069   7.349  0.0561  0.1545  0.1912
56783CHOL    C191819  33.955   7.369   7.524  0.0858  0.1542  0.2179
56783CHOL    C291820  33.747   7.635   7.774  0.0309 -0.3681  0.0982
56784CHOL   ROH91821  27.426   1.599   6.603 -0.0445 -0.3803  0.0733
56784CHOL    R191822  27.362   1.625   6.878  0.2409 -0.0901  0.1167
56784CHOL    R291823  27.233   1.425   7.019 -0.1505  0.2950  0.3107
56784CHOL    R391824  27.446   1.450   7.186  0.0554 -0.1642  0.1266
56784CHOL    R491825  27.266   1.262   7.322 -0.2253  0.1913  0.2640
56784CHOL    R591826  27.350   1.445   7.406  0.2335  0.0154  0.2117
56784CHOL    C191827  27.486   1.191   7.655 -0.0758 -0.3002  0.0640
56784CHOL    C291828  27.468   1.151   8.015  0.0093 -0.3024 -0.3523
56785CHOL   ROH91829  22.361  18.995   3.777 -0.1323  0.2085  0.1455
56785CHOL    R191830  22.542  18.884   3.964 -0.1493  0.1337  0.1179
56785CHOL    R291831  22.816  18.912   3.942 -0.1352 -0.0759  0.0141
56785CHOL    R391832  22.794  19.009   4.195  0.0237  0.0202 -0.0085
56785CHOL    R491833  23.043  18.854   4.195 -0.0021 -0.0221 -0.0917
56785CHOL    R591834  22.876  18.832   4.333  0.0715  0.0568  0.0107
56785CHOL    C191835  23.155  18.911   4.581  0.2241  0.0992 -0.1745
56785CHOL    C291836  23.363  18.757   4.875  0.2543  0.0289  0.2993
56786CHOL   ROH91837  35.349  35.252   9.887 -0.3648 -0.1886 -0.1258
56786CHOL    R191838  35.161   0.078   9.904 -0.2651 -0.0999 -0.1267
56786CHOL    R291839  34.919   0.052  10.034 -0.2059  0.0668  0.0190
56786CHOL    R391840  35.005   0.272  10.169 -0.0375  0.0969 -0.1346
56786CHOL    R491841  34.713   0.300  10.159 -0.0706 -0.0064  0.3934
56786CHOL    R591842  34.860   0.448  10.095 -0.2365  0.0458  0.1263
56786CHOL    C191843  34.673   0.650  10.359  0.1671 -0.0208  0.4672
56786CHOL    C291844  34.433   0.913  10.408  0.1178  0.2813  0.2380
56787CHOL   ROH91845   9.745  15.574  14.111  0.1090  0.0503 -0.1897
56787CHOL    R191846   9.764  15.494  14.382 -0.1458  0.0186 -0.1794
56787CHOL    R291847   9.906  15.639  14.570  0.0374 -0.2284 -0.1233
56787CHOL    R391848   9.670  15.632  14.706 -0.0365  0.1944 -0.2218
56787CHOL    R491849   9.875  15.667  14.913 -0.0221 -0.5198 -0.1038
56787CHOL    R591850   9.721  15.512  14.907 -0.3983 -0.1479 -0.3280
56787CHOL    C191851   9.635  15.677  15.240 -0.1262 -0.2926 -0.1849
56787CHOL    C291852   9.562  15.759  15.589  0.2904 -0.1410  0.0348
56788CHOL   ROH91853  22.345   0.188   8.583  0.0315 -0.1780 -0.0691
56788CHOL    R191854  22.460   0.054   8.803  0.0027 -0.1878 -0.0597
56788CHOL    R291855  22.388  35.182   8.875  0.0161 -0.2030 -0.0991
56788CHOL    R391856  22.656  35.136   8.856  0.0245 -0.1718 -0.0519
56788CHOL    R491857  22.547  34.894   8.981  0.0368 -0.1686 -0.0328
56788CHOL    R591858  22.710  35.017   9.057  0.0093 -0.1358 -0.0263
56788CHOL    C191859  22.891  34.683   9.024  0.0562 -0.1181  0.0501
56788CHOL    C291860  23.018  34.538   9.327  0.1035  0.0143 -0.4402
56789CHOL   ROH91861  18.959  20.149  17.603 -0.2026 -0.1690  0.1533
56789CHOL    R191862  18.709  20.212  17.486 -0.1163  0.0265  0.0715
56789CHOL    R291863  18.684  20.390  17.277  0.1129 -0.0875 -0.0560
56789CHOL    R391864  18.556  20.182  17.157 -0.0974 -0.0314  0.0680
56789CHOL    R491865  18.469  20.418  17.007  0.1381 -0.0313 -0.0702
56789CHOL    R591866  18.341  20.269  17.100 -0.0113  0.1518  0.0195
56789CHOL    C191867  18.225  20.239  16.738 -0.0452  0.0544  0.0382
56789CHOL    C291868  17.998  20.402  16.507 -0.0614 -0.1659  0.1132
56790CHOL   ROH91869  25.597  12.957   2.394 -0.0278  0.1254 -0.0283
56790CHOL    R191870  25.721  13.117   2.592 -0.0586  0.0886  0.0206
56790CHOL    R291871  25.867  13.009   2.799 -0.0740  0.0509  0.0119
56790CHOL    R391872  26.060  13.178   2.708 -0.0745  0.0833  0.0702
56790CHOL    R491873  26.139  13.117   2.984  0.0574 -0.2059 -0.0287
56790CHOL    R591874  26.113  13.315   2.897  0.0671 -0.1131  0.1757
56790CHOL    C191875  26.478  13.338   3.005  0.1333 -0.3249  0.0024
56790CHOL    C291876  26.627  13.558   3.314  0.0293 -0.0496  0.1068
56791CHOL   ROH91877   5.015  10.243  15.767 -0.0840  0.1488 -0.0532
56791CHOL    R191878   5.220  10.399  15.651 -0.0583  0.0253 -0.1740
56791CHOL    R291879   5.482  10.388  15.737 -0.0967  0.1918 -0.0356
56791CHOL    R391880   5.533  10.336  15.475  0.0355 -0.1624  0.0575
56791CHOL    R491881   5.780  10.457  15.576 -0.0447  0.0518 -0.0008
56791CHOL    R591882   5.666  10.521  15.402  0.0136 -0.2252 -0.1446
56791CHOL    C191883   6.001  10.448  15.237  0.1095 -0.3623  0.1073
56791CHOL    C291884   6.175  10.542  14.971  0.0221 -0.0219 -0.1669
56792CHOL   ROH91885  19.604   6.327  12.465 -0.0816  0.2211 -0.0393
56792CHOL    R191886  19.849   6.409  12.581  0.0824 -0.0815 -0.1661
56792CHOL    R291887  19.861   6.546  12.821  0.3500  0.2355 -0.3576
56792CHOL    R391888  20.030   6.344  12.890 -0.0306  0.0054 -0.0808
56792CHOL    R491889  20.043   6.533  13.115  0.3107  0.2868 -0.3307
56792CHOL    R591890  20.212   6.454  13.001  0.1730 -0.1852 -0.2209
56792CHOL    C191891  20.308   6.336  13.351 -0.0696  0.1007 -0.0551
56792CHOL    C291892  20.699   6.253  13.259 -0.1374 -0.1107 -0.0581
56793CHOL   ROH91893   3.292  11.951  12.945 -0.2136 -0.1674  0.0417
56793CHOL    R191894   3.408  11.917  12.689 -0.3284 -0.1234 -0.0165
56793CHOL    R291895   3.332  12.067  12.470 -0.2024  0.1357  0.1160
56793CHOL    R391896   3.598  12.121  12.455 -0.1373 -0.1873  0.0824
56793CHOL    R491897   3.501  12.152  12.181 -0.1631  0.0695  0.1192
56793CHOL    R591898   3.666  12.026  12.246 -0.3026 -0.1697  0.0196
56793CHOL    C191899   3.849  12.252  11.998 -0.0793 -0.2720  0.0898
56793CHOL    C291900   4.182  12.315  11.857 -0.0624  0.0818 -0.1683
56794CHOL   ROH91901   8.881  20.907  16.936 -0.1843  0.1813  0.0751
56794CHOL    R191902   8.826  20.873  17.212 -0.0033 -0.0658  0.0826
56794CHOL    R291903   8.569  20.856  17.311  0.0559  0.0944  0.2614
56794CHOL    R391904   8.662  20.625  17.420 -0.0997 -0.1259 -0.0637
56794CHOL    R491905   8.403  20.670  17.550  0.2658  0.2831  0.5583
56794CHOL    R591906   8.594  20.636  17.650  0.4456 -0.1059  0.1060
56794CHOL    C191907   8.393  20.344  17.792  0.2420  0.1861  0.4262
56794CHOL    C291908   8.177  20.130  17.769 -0.1810 -0.0314 -0.0209
56795CHOL   ROH91909  25.126  23.653   3.339 -0.1139  0.1192 -0.1209
56795CHOL    R191910  25.230  23.814   3.547 -0.0967  0.1207 -0.1307
56795CHOL    R291911  25.369  23.709   3.761 -0.0985  0.1199 -0.1296
56795CHOL    R391912  25.559  23.887   3.685 -0.0879  0.1028 -0.1428
56795CHOL    R491913  25.642  23.800   3.952 -0.0483  0.0566 -0.1708
56795CHOL    R591914  25.614  24.006   3.886 -0.0322  0.0689 -0.1382
56795CHOL    C191915  25.980  24.021   3.991 -0.0094  0.0039 -0.2071
56795CHOL    C291916  26.320  24.189   4.135 -0.0289 -0.1491 -0.0130
56796CHOL   ROH91917  11.780  23.928  18.717  0.1720  0.0759  0.1998
56796CHOL    R191918  11.803  23.747  18.934 -0.0550  0.0435  0.1978
56796CHOL    R291919  11.984  23.784  19.140  0.0497 -0.2294  0.1564
56796CHOL    R391920  11.762  23.762  19.295  0.0491  0.1136  0.2069
56796CHOL    R491921  11.980  23.657  19.461 -0.0778 -0.2495  0.1472
56796CHOL    R591922  11.792  23.556  19.414 -0.2528  0.0532  0.1831
56796CHOL    C191923  11.769  23.563  19.795 -0.1526  0.0610  0.1892
56796CHOL    C291924  11.476  23.308  20.016  0.1886 -0.4181  0.0959
56797CHOL   ROH91925  20.801  27.927  13.085  0.1761  0.0297  0.1215
56797CHOL    R191926  20.610  27.868  12.885 -0.0259  0.1055  0.2898
56797CHOL    R291927  20.648  27.667  12.699 -0.0966  0.3413  0.0197
56797CHOL    R391928  20.406  27.581  12.790  0.0797  0.0508  0.2236
56797CHOL    R491929  20.436  27.454  12.528 -0.2308  0.5344 -0.0587
56797CHOL    R591930  20.268  27.575  12.595 -0.2024  0.3304  0.4075
56797CHOL    C191931  20.087  27.249  12.514 -0.1421  0.3745  0.0866
56797CHOL    C291932  19.675  27.154  12.340 -0.0603 -0.4924  0.1508
56798CHOL   ROH91933   7.274  20.506  14.784 -0.0124  0.3530  0.1139
56798CHOL    R191934   7.086  20.537  14.993 -0.2214  0.2645 -0.0576
56798CHOL    R291935   6.814  20.507  14.955 -0.1577 -0.1135 -0.2556
56798CHOL    R391936   6.838  20.328  15.159 -0.0862  0.0619 -0.1089
56798CHOL    R491937   6.550  20.385  15.142 -0.1101 -0.0923 -0.1752
56798CHOL    R591938   6.676  20.400  15.320 -0.1315  0.1118 -0.1786
56798CHOL    C191939   6.419  20.146  15.442 -0.0154  0.0843  0.0096
56798CHOL    C291940   6.128  20.066  15.612 -0.1664 -0.1746  0.0676
56799CHOL   ROH91941   5.144  25.982  13.606  0.0313  0.1930  0.2385
56799CHOL    R191942   5.112  25.821  13.836  0.1302  0.0357  0.1429
56799CHOL    R291943   4.876  25.692  13.895  0.0735  0.2031  0.2891
56799CHOL    R391944   5.035  25.472  13.905 -0.1126  0.0472 -0.0601
56799CHOL    R491945   4.831  25.425  14.111  0.1525  0.1389  0.2265
56799CHOL    R591946   5.047  25.418  14.139  0.1904 -0.0772 -0.1026
56799CHOL    C191947   4.955  25.064  14.246  0.0238 -0.0448 -0.1381
56799CHOL    C291948   4.948  24.749  14.424 -0.0020  0.1346  0.0652
56800CHOL   ROH91949  11.554   3.920  18.460 -0.1871 -0.0120  0.0161
56800CHOL    R191950  11.451   3.829  18.212 -0.1582  0.0070 -0.0027
56800CHOL    R291951  11.255   3.966  18.073 -0.1492  0.0116 -0.0093
56800CHOL    R391952  11.436   3.954  17.870 -0.1286  0.0378  0.0071
56800CHOL    R491953  11.185   4.037  17.742 -0.1432 -0.0510 -0.0244
56800CHOL    R591954  11.311   3.868  17.685 -0.0893 -0.0226  0.0076
56800CHOL    C191955  11.314   4.067  17.359 -0.1207 -0.0628 -0.0175
56800CHOL    C291956  11.006   4.134  16.999 -0.0844 -0.0108 -0.1406
56801CHOL   ROH91957   4.637  17.241  15.178 -0.0241 -0.1853 -0.1746
56801CHOL    R191958   4.879  17.385  15.147 -0.1147 -0.0175 -0.1113
56801CHOL    R291959   5.125  17.261  15.138  0.0034  0.1789  0.2826
56801CHOL    R391960   5.149  17.397  14.904  0.1140 -0.0861  0.1377
56801CHOL    R491961   5.420  17.393  15.015  0.0425  0.1247  0.3190
56801CHOL    R591962   5.309  17.570  14.951  0.0309  0.0175  0.0411
56801CHOL    C191963   5.614  17.599  14.724  0.1691 -0.1551  0.2041
56801CHOL    C291964   5.962  17.838  14.640 -0.3164 -0.3648  0.3117
56802CHOL   ROH91965  14.851  31.027  19.510 -0.3801  0.2527  0.1459
56802CHOL    R191966  14.631  31.017  19.333 -0.2987  0.0624  0.0544
56802CHOL    R291967  14.646  31.107  19.072 -0.2704  0.0829  0.0643
56802CHOL    R391968  14.555  30.857  19.015 -0.0270  0.0031  0.0181
56802CHOL    R491969  14.569  30.993  18.755 -0.0986  0.0475  0.0347
56802CHOL    R591970  14.396  30.891  18.839 -0.0233 -0.1244 -0.0118
56802CHOL    C191971  14.439  30.692  18.516  0.2300 -0.0482 -0.0263
56802CHOL    C291972  14.281  30.365  18.284 -0.3420  0.2774 -0.1474
56803CHOL   ROH91973  28.242   4.223   5.987 -0.1175 -0.1935  0.0618
56803CHOL    R191974  28.373   4.358   6.199 -0.0359 -0.2188  0.0278
56803CHOL    R291975  28.273   4.590   6.311  0.1392 -0.0913 -0.0762
56803CHOL    R391976  28.295   4.449   6.542 -0.0109 -0.0211 -0.0184
56803CHOL    R491977  28.363   4.725   6.616  0.2209 -0.0513 -0.1182
56803CHOL    R591978  28.484   4.547   6.653  0.0614 -0.1422 -0.0349
56803CHOL    C191979  28.437   4.671   7.011  0.1281  0.0380 -0.0883
56803CHOL    C291980  28.372   4.845   7.409  0.1632  0.0165  0.2730
56804CHOL   ROH91981   6.652   0.538  14.960 -0.0558  0.0196 -0.0119
56804CHOL    R191982   6.446   0.696  15.073  0.0120  0.0798  0.0280
56804CHOL    R291983   6.229   0.586  15.204 -0.0420  0.1391 -0.0108
56804CHOL    R391984   6.307   0.752  15.405  0.0273  0.0454  0.0399
56804CHOL    R491985   6.018   0.795  15.380  0.0648  0.2595 -0.0251
56804CHOL    R591986   6.173   0.948  15.375  0.1771  0.1482  0.0429
56804CHOL    C191987   5.968   1.073  15.671  0.1921  0.2415  0.0143
56804CHOL    C291988   5.488   1.067  15.800 -0.3121 -0.4944 -0.1940
56805CHOL   ROH91989  28.767  20.860   1.368  0.1338  0.0170  0.1895
56805CHOL    R191990  29.008  20.711   1.367  0.0877 -0.0570  0.0952
56805CHOL    R291991  29.088  20.557   1.582  0.1714 -0.0063  0.1002
56805CHOL    R391992  29.102  20.360   1.395 -0.0025 -0.0765  0.1605
56805CHOL    R491993  29.251  20.256   1.625  0.3641  0.0826 -0.0013
56805CHOL    R591994  29.323  20.271   1.419  0.0725  0.0311 -0.1091
56805CHOL    C191995  29.359  19.895   1.475  0.3131  0.0686 -0.0039
56805CHOL    C291996  29.688  19.782   1.652 -0.2031  0.3246  0.2092
56806CHOL   ROH91997  31.361  21.091   0.092 -0.0130  0.0185 -0.0946
56806CHOL    R191998  31.252  20.929   0.297  0.1322 -0.0305 -0.0554
56806CHOL    R291999  31.302  20.973   0.564  0.0715  0.0952 -0.0636
56806CHOL    R392000  31.031  20.975   0.582  0.0674 -0.1649 -0.0840
56806CHOL    R492001  31.123  20.973   0.860  0.0494  0.0559 -0.0771
56806CHOL    R592002  30.982  20.834   0.769  0.1932 -0.1259 -0.0224
56806CHOL    C192003  30.764  20.975   1.049  0.0327 -0.2113 -0.1041
56806CHOL    C292004  30.610  20.985   1.456 -0.1484 -0.0502 -0.3879
56807CHOL   ROH92005  32.423  11.515   5.620  0.0523 -0.1253  0.1183
56807CHOL    R192006  32.555  11.327   5.455 -0.1812 -0.1101 -0.0896
56807CHOL    R292007  32.510  11.309   5.183 -0.0683  0.3684 -0.1429
56807CHOL    R392008  32.781  11.337   5.170 -0.0117 -0.0691  0.0454
56807CHOL    R492009  32.703  11.236   4.905  0.0092  0.0579 -0.0090
56807CHOL    R592010  32.853  11.150   5.038 -0.2216 -0.1871  0.0960
56807CHOL    C192011  33.068  11.219   4.731  0.1079 -0.5337  0.2457
56807CHOL    C292012  33.319  11.159   4.503 -0.1125  0.0408  0.1334
56808CHOL   ROH92013   0.630  18.585   7.005  0.0322 -0.1117  0.1717
56808CHOL    R192014   0.771  18.748   6.822  0.0192 -0.1032  0.1690
56808CHOL    R292015   1.047  18.749   6.806  0.0121 -0.2395  0.0246
56808CHOL    R392016   1.000  18.695   6.544 -0.1543 -0.0989  0.0241
56808CHOL    R492017   1.282  18.774   6.554 -0.0576 -0.4221 -0.0598
56808CHOL    R592018   1.128  18.859   6.426 -0.0140 -0.2033  0.0293
56808CHOL    C192019   1.376  18.738   6.162 -0.2542 -0.3971 -0.1095
56808CHOL    C292020   1.750  18.884   6.236 -0.3461  0.2547 -0.2455
56809CHOL   ROH92021  13.926  15.853  15.270 -0.2143 -0.1107 -0.1642
56809CHOL    R192022  13.941  15.735  15.527 -0.0566 -0.0842 -0.1605
56809CHOL    R292023  13.719  15.632  15.656  0.0062  0.0124  0.0248
56809CHOL    R392024  13.872  15.408  15.673 -0.0619 -0.0417 -0.0671
56809CHOL    R492025  13.688  15.390  15.900  0.0909  0.0419  0.0654
56809CHOL    R592026  13.906  15.376  15.908  0.0928 -0.0358 -0.0875
56809CHOL    C192027  13.814  15.038  16.058  0.0764  0.0083  0.0025
56809CHOL    C292028  13.754  14.760  16.064 -0.5015  0.1874  0.2507
56810CHOL   ROH92029   2.487  25.973  13.978  0.2283  0.2507 -0.1820
56810CHOL    R192030   2.378  25.944  13.719  0.0173  0.0038 -0.0684
56810CHOL    R292031   2.534  25.931  13.492 -0.1843  0.3809 -0.2356
56810CHOL    R392032   2.396  25.701  13.449  0.3059  0.0511 -0.0933
56810CHOL    R492033   2.533  25.753  13.196 -0.0008  0.3294 -0.2056
56810CHOL    R592034   2.320  25.718  13.223  0.0928 -0.1568 -0.0401
56810CHOL    C192035   2.403  25.434  12.983  0.5663 -0.0104 -0.0549
56810CHOL    C292036   2.492  25.359  12.710 -0.0154  0.0977  0.0369
56811CHOL   ROH92037  34.468  14.495   6.444 -0.0054  0.0123 -0.0881
56811CHOL    R192038  34.499  14.378   6.188 -0.0546  0.0909 -0.1303
56811CHOL    R292039  34.596  14.518   5.971  0.0580  0.1133 -0.0662
56811CHOL    R392040  34.774  14.313   5.959 -0.0716  0.0038 -0.1265
56811CHOL    R492041  34.855  14.495   5.743  0.3124  0.2363  0.2062
56811CHOL    R592042  34.812  14.281   5.724  0.1823  0.2889 -0.1262
56811CHOL    C192043  35.172  14.288   5.599  0.3389  0.2054  0.3082
56811CHOL    C292044  35.375  14.184   5.329 -0.1597  0.0784 -0.0115
56812CHOL   ROH92045  23.790  19.564   9.370 -0.0965  0.0415  0.0322
56812CHOL    R192046  23.508  19.544   9.374 -0.0879 -0.0784  0.0705
56812CHOL    R292047  23.344  19.734   9.259 -0.1884 -0.0782  0.2122
56812CHOL    R392048  23.242  19.520   9.127 -0.1210 -0.0433  0.1032
56812CHOL    R492049  23.052  19.738   9.075 -0.1272 -0.0465  0.1157
56812CHOL    R592050  23.005  19.541   9.156 -0.1331 -0.0792  0.0311
56812CHOL    C192051  22.785  19.539   8.843 -0.0288  0.0054 -0.0429
56812CHOL    C292052  22.470  19.680   8.719 -0.1425 -0.0219  0.0872
56813CHOL   ROH92053  24.751  13.678   7.845  0.1289 -0.0049  0.0963
56813CHOL    R192054  24.486  13.614   7.769  0.1293  0.0697  0.0304
56813CHOL    R292055  24.402  13.621   7.506  0.1915  0.1111  0.0104
56813CHOL    R392056  24.324  13.365   7.558  0.1138  0.1274 -0.0251
56813CHOL    R492057  24.099  13.483   7.413  0.1183  0.2373  0.0603
56813CHOL    R592058  24.090  13.382   7.606  0.1329  0.1987  0.0396
56813CHOL    C192059  23.850  13.163   7.407  0.0033  0.3258  0.0561
56813CHOL    C292060  23.508  13.361   7.239 -0.1113  0.0936  0.2097
56814CHOL   ROH92061   3.898  19.879  13.218 -0.0454  0.1522  0.1403
56814CHOL    R192062   4.168  19.954  13.256 -0.0222  0.0710  0.1379
56814CHOL    R292063   4.338  19.819  13.428 -0.0452 -0.0138  0.0956
56814CHOL    R392064   4.495  19.801  13.207 -0.0671 -0.0061  0.0796
56814CHOL    R492065   4.683  19.812  13.432 -0.0442  0.0231  0.0574
56814CHOL    R592066   4.683  19.942  13.256 -0.0769  0.0149  0.0527
56814CHOL    C192067   5.032  19.791  13.226 -0.0641  0.0517  0.0201
56814CHOL    C292068   5.281  19.581  13.370  0.1737 -0.2635 -0.0576
56815CHOL   ROH92069  23.180  24.834   4.773 -0.0922 -0.2099 -0.2138
56815CHOL    R192070  23.286  24.914   5.023  0.1263 -0.1648 -0.3196
56815CHOL    R292071  23.161  24.857   5.263  0.0339  0.3766 -0.2322
56815CHOL    R392072  23.403  24.749   5.326 -0.1903 -0.0919 -0.1564
56815CHOL    R492073  23.291  24.838   5.583  0.0467  0.4444 -0.2334
56815CHOL    R592074  23.486  24.890   5.501  0.1530 -0.0799 -0.3276
56815CHOL    C192075  23.593  24.726   5.828 -0.1565  0.0441 -0.1630
56815CHOL    C292076  23.865  24.623   6.003  0.1934  0.0417  0.0351
56816CHOL   ROH92077  16.263  27.678  15.743 -0.2168  0.0939 -0.0485
56816CHOL    R192078  16.479  27.799  15.881 -0.1259  0.0227 -0.1278
56816CHOL    R292079  16.615  28.018  15.781 -0.2488  0.1276 -0.0647
56816CHOL    R392080  16.552  28.126  16.022 -0.0705 -0.0768  0.0764
56816CHOL    R492081  16.754  28.307  15.909 -0.1835  0.0423  0.0588
56816CHOL    R592082  16.760  28.212  16.105 -0.0135 -0.1175 -0.0217
56816CHOL    C192083  16.775  28.578  16.210  0.0220 -0.1992  0.2630
56816CHOL    C292084  16.881  28.859  16.368 -0.0322  0.0901 -0.2619
56817CHOL   ROH92085  13.169  19.946  19.279  0.2921 -0.0015 -0.0826
56817CHOL    R192086  13.393  20.110  19.331  0.2920  0.0044 -0.0992
56817CHOL    R292087  13.380  20.333  19.495  0.2364  0.1566 -0.3050
56817CHOL    R392088  13.585  20.211  19.624  0.1370  0.2310 -0.0745
56817CHOL    R492089  13.628  20.497  19.671  0.0296  0.2476 -0.0969
56817CHOL    R592090  13.772  20.356  19.589  0.1403  0.2617  0.0778
56817CHOL    C192091  13.965  20.478  19.895 -0.1843  0.3710  0.2402
56817CHOL    C292092  14.323  20.645  19.802 -0.1005 -0.5503 -0.1727
56818CHOL   ROH92093   7.984   3.225  15.496 -0.0199  0.0483 -0.1231
56818CHOL    R192094   8.149   3.227  15.726 -0.0146 -0.0492 -0.1260
56818CHOL    R292095   8.097   3.386  15.945  0.0568 -0.0536 -0.1068
56818CHOL    R392096   8.111   3.150  16.079 -0.0397 -0.0757 -0.1342
56818CHOL    R492097   8.275   3.336  16.237  0.0074 -0.1504 -0.0929
56818CHOL    R592098   8.337   3.141  16.160 -0.0508 -0.1630 -0.1102
56818CHOL    C192099   8.393   3.085  16.533 -0.1122 -0.2275 -0.1103
56818CHOL    C292100   8.289   2.979  16.811 -0.2654 -0.1775  0.0617
56819CHOL   ROH92101  27.024   6.622   8.558  0.2038  0.2044 -0.2797
56819CHOL    R192102  26.844   6.485   8.388  0.0681  0.0842 -0.0434
56819CHOL    R292103  26.888   6.460   8.116 -0.2772  0.1196 -0.1037
56819CHOL    R392104  26.858   6.195   8.168 -0.0248  0.0976 -0.0669
56819CHOL    R492105  26.812   6.219   7.880 -0.3273  0.0571 -0.0246
56819CHOL    R592106  26.679   6.125   8.025 -0.1146 -0.0411  0.1096
56819CHOL    C192107  26.741   5.829   7.792 -0.1188  0.0001  0.0561
56819CHOL    C292108  26.389   5.733   7.672 -0.0787  0.1169  0.2249
56820CHOL   ROH92109   2.184  27.646  11.053  0.1264 -0.0236  0.1639
56820CHOL    R192110   1.972  27.492  11.158  0.0500  0.1736  0.3008
56820CHOL    R292111   1.759  27.604  11.293 -0.1207  0.4469 -0.1878
56820CHOL    R392112   1.612  27.469  11.109  0.1048 -0.0208 -0.0328
56820CHOL    R492113   1.446  27.469  11.351 -0.1276  0.4654 -0.1810
56820CHOL    R592114   1.505  27.295  11.234  0.0490  0.2174  0.2619
56820CHOL    C192115   1.125  27.264  11.211  0.0802  0.0365 -0.0314
56820CHOL    C292116   0.846  27.404  11.422  0.2257 -0.0219 -0.1234
56821CHOL   ROH92117  22.051  33.463  11.599  0.1521 -0.0408 -0.0043
56821CHOL    R192118  22.026  33.352  11.340  0.1295  0.0008 -0.0199
56821CHOL    R292119  21.783  33.328  11.212  0.1356  0.1476 -0.0589
56821CHOL    R392120  21.910  33.464  11.014  0.2403  0.0992 -0.0255
56821CHOL    R492121  21.687  33.329  10.880  0.0870  0.3685 -0.0452
56821CHOL    R592122  21.898  33.318  10.824  0.0692  0.1835 -0.0799
56821CHOL    C192123  21.751  33.457  10.501  0.1569  0.4520 -0.0060
56821CHOL    C292124  21.525  33.553  10.263 -0.1791  0.0812 -0.0371
56822CHOL   ROH92125   6.459  16.503  11.714  0.1644  0.0771  0.0592
56822CHOL    R192126   6.195  16.527  11.812  0.1420  0.0053  0.0158
56822CHOL    R292127   6.046  16.309  11.893  0.1751 -0.0380 -0.0425
56822CHOL    R392128   6.020  16.452  12.123  0.1029 -0.0775 -0.0260
56822CHOL    R492129   5.767  16.305  12.097  0.0971 -0.0467 -0.1483
56822CHOL    R592130   5.790  16.520  12.124  0.1091 -0.0542 -0.1004
56822CHOL    C192131   5.580  16.437  12.432 -0.0159 -0.0886 -0.1942
56822CHOL    C292132   5.248  16.440  12.318  0.0132  0.0214  0.2478
56823CHOL   ROH92133  28.233  15.493   3.580  0.0059  0.0638 -0.1194
56823CHOL    R192134  28.266  15.440   3.304  0.1909 -0.1701 -0.0551
56823CHOL    R292135  28.345  15.194   3.208 -0.3463 -0.4407  0.1723
56823CHOL    R392136  28.119  15.216   3.058 -0.1238  0.0827 -0.1012
56823CHOL    R492137  28.316  15.096   2.878 -0.2546 -0.6495  0.2260
56823CHOL    R592138  28.197  15.275   2.840  0.2979 -0.3318 -0.0683
56823CHOL    C192139  28.087  15.059   2.545  0.0074 -0.2795  0.0005
56823CHOL    C292140  28.049  14.782   2.223  0.2479 -0.0985  0.0029
56824CHOL   ROH92141  18.877  26.415  11.020 -0.2013 -0.0880 -0.0144
56824CHOL    R192142  19.120  26.517  11.125 -0.2193  0.1101 -0.1637
56824CHOL    R292143  19.131  26.744  11.282 -0.3301  0.0213 -0.0309
56824CHOL    R392144  19.260  26.579  11.455  0.0049  0.0533 -0.2468
56824CHOL    R492145  19.367  26.846  11.513 -0.5789  0.2163  0.1415
56824CHOL    R592146  19.483  26.667  11.466 -0.1814  0.5253 -0.0980
56824CHOL    C192147  19.626  26.750  11.810 -0.4100  0.3595  0.0392
56824CHOL    C292148  19.841  26.603  12.088  0.1271  0.3299  0.3782
56825CHOL   ROH92149  27.252  30.816   9.656 -0.2752 -0.0567 -0.0355
56825CHOL    R192150  27.357  30.850   9.396 -0.1995 -0.0561 -0.0051
56825CHOL    R292151  27.318  30.664   9.195 -0.2466  0.0031 -0.0512
56825CHOL    R392152  27.223  30.879   9.058 -0.1088  0.0782 -0.0301
56825CHOL    R492153  27.298  30.686   8.851 -0.2798  0.0294 -0.0474
56825CHOL    R592154  27.363  30.893   8.865 -0.1257 -0.0185 -0.0498
56825CHOL    C192155  27.196  30.900   8.522 -0.1700  0.1150 -0.0256
56825CHOL    C292156  27.038  30.682   8.238  0.4339  0.0577 -0.0941
56826CHOL   ROH92157  29.682  20.317   3.198 -0.2756  0.2402 -0.0053
56826CHOL    R192158  29.648  20.381   2.924 -0.1469  0.0622 -0.0638
56826CHOL    R292159  29.833  20.529   2.783 -0.1690  0.1307 -0.0240
56826CHOL    R392160  29.827  20.316   2.614  0.1104  0.0299  0.0894
56826CHOL    R492161  29.919  20.540   2.448 -0.4658  0.1328 -0.1013
56826CHOL    R592162  29.751  20.408   2.406 -0.2436 -0.2218  0.1039
56826CHOL    C192163  29.963  20.347   2.095 -0.3766  0.0398 -0.0399
56826CHOL    C292164  29.967  20.111   1.826  0.0311 -0.1302 -0.3001
56827CHOL   ROH92165  27.124   4.455   9.652  0.0826  0.0101  0.0694
56827CHOL    R192166  26.998   4.408   9.403 -0.0593 -0.0917  0.1587
56827CHOL    R292167  27.140   4.358   9.171 -0.1786  0.1203  0.0361
56827CHOL    R392168  26.982   4.137   9.161  0.0737 -0.0664  0.1218
56827CHOL    R492169  27.011   4.221   8.881 -0.3014  0.0571  0.1203
56827CHOL    R592170  26.824   4.185   8.987 -0.1556 -0.2006  0.2923
56827CHOL    C192171  26.788   3.934   8.702 -0.1364 -0.1551  0.2497
56827CHOL    C292172  26.723   4.075   8.458 -0.1014 -0.1789 -0.1742
56828CHOL   ROH92173  10.103   1.469  15.853 -0.1155  0.1641 -0.0584
56828CHOL    R192174  10.241   1.520  16.095 -0.1557  0.0245 -0.0050
56828CHOL    R292175  10.349   1.767  16.155  0.1091 -0.0931  0.0176
56828CHOL    R392176  10.200   1.741  16.381 -0.0186  0.0991 -0.0431
56828CHOL    R492177  10.446   1.874  16.469  0.2100 -0.4092  0.0961
56828CHOL    R592178  10.360   1.692  16.552 -0.1692 -0.2803 -0.0082
56828CHOL    C192179  10.363   1.912  16.864  0.1491 -0.4128  0.0843
56828CHOL    C292180  10.424   1.694  17.214 -0.0889 -0.0359  0.1271
56829CHOL   ROH92181  14.931  14.847  14.669  0.0806  0.0920 -0.0619
56829CHOL    R192182  14.902  15.004  14.902 -0.0896  0.0878 -0.0792
56829CHOL    R292183  14.667  15.015  15.046 -0.1407 -0.0557 -0.1478
56829CHOL    R392184  14.828  14.945  15.254 -0.1545  0.0596 -0.0982
56829CHOL    R492185  14.587  15.054  15.380 -0.2911 -0.1642 -0.1707
56829CHOL    R592186  14.793  15.116  15.417 -0.3595  0.0083 -0.0899
56829CHOL    C192187  14.692  15.011  15.770 -0.3918 -0.1194 -0.1373
56829CHOL    C292188  14.768  14.876  16.193  0.0526  0.0499 -0.2038
56830CHOL   ROH92189  27.748  33.395   6.539 -0.1248  0.0542  0.0386
56830CHOL    R192190  27.844  33.270   6.774 -0.0513  0.0332 -0.0029
56830CHOL    R292191  27.882  33.407   7.011 -0.1405 -0.0253  0.0445
56830CHOL    R392192  27.722  33.211   7.112 -0.0209 -0.1591 -0.0243
56830CHOL    R492193  27.860  33.323   7.345 -0.1738 -0.0771  0.0293
56830CHOL    R592194  27.853  33.113   7.287  0.0042 -0.0778  0.0033
56830CHOL    C192195  27.697  33.091   7.635 -0.0809 -0.2339 -0.0441
56830CHOL    C292196  27.895  33.234   7.915 -0.2090 -0.2347 -0.2447
56831CHOL   ROH92197   5.967  21.522  19.021 -0.3195  0.0920 -0.1208
56831CHOL    R192198   6.127  21.736  18.927 -0.1553  0.0395  0.0355
56831CHOL    R292199   6.402  21.721  18.913 -0.1524 -0.0962  0.1908
56831CHOL    R392200   6.361  21.791  18.654  0.0319  0.0012  0.1877
56831CHOL    R492201   6.652  21.804  18.689  0.0212 -0.2115  0.3403
56831CHOL    R592202   6.523  21.962  18.612  0.1731 -0.1019  0.3153
56831CHOL    C192203   6.759  21.918  18.315  0.2953 -0.1874  0.4242
56831CHOL    C292204   7.174  21.951  18.221 -0.1646 -0.3024 -0.1891
56832CHOL   ROH92205  18.809   3.018  15.109 -0.2607 -0.3095 -0.0071
56832CHOL    R192206  18.614   3.123  14.933 -0.2167 -0.1104  0.0610
56832CHOL    R292207  18.627   3.380  14.833  0.0427 -0.1405  0.0117
56832CHOL    R392208  18.609   3.254  14.593 -0.2113 -0.1618  0.0412
56832CHOL    R492209  18.444   3.495  14.563  0.1904  0.1148  0.0186
56832CHOL    R592210  18.382   3.289  14.524 -0.1656  0.2093  0.0720
56832CHOL    C192211  18.321   3.443  14.181  0.0371  0.2435  0.0503
56832CHOL    C292212  18.299   3.437  13.773  0.1965 -0.2638 -0.4649
56833CHOL   ROH92213  13.318  13.772  15.047  0.0196 -0.3324  0.0076
56833CHOL    R192214  13.163  13.880  15.258  0.2172 -0.1434  0.0570
56833CHOL    R292215  12.919  13.776  15.332  0.0538  0.2276  0.0541
56833CHOL    R392216  13.035  13.765  15.578  0.0667 -0.0309  0.0374
56833CHOL    R492217  12.752  13.704  15.626 -0.0491  0.5143  0.0669
56833CHOL    R592218  12.870  13.858  15.725  0.2662  0.2722  0.0716
56833CHOL    C192219  12.763  13.652  16.028 -0.0971  0.4386  0.0587
56833CHOL    C292220  12.487  13.606  16.331  0.0994 -0.1503 -0.3734
56834CHOL   ROH92221  19.360   0.789  13.623 -0.0594 -0.0069  0.0370
56834CHOL    R192222  19.260   0.979  13.438  0.0809  0.0075 -0.0251
56834CHOL    R292223  19.312   0.965  13.168 -0.0352 -0.1930 -0.0379
56834CHOL    R392224  19.041   0.975  13.148 -0.0329  0.0951  0.0593
56834CHOL    R492225  19.138   1.012  12.873 -0.0977 -0.3778 -0.0314
56834CHOL    R592226  19.000   1.143  12.981  0.0959 -0.0741 -0.1453
56834CHOL    C192227  18.782   1.050  12.683 -0.1318 -0.2149  0.0638
56834CHOL    C292228  18.857   0.897  12.343  0.2715  0.4852 -0.3854
56835CHOL   ROH92229   6.094   0.995  14.351  0.1406 -0.0452  0.2250
56835CHOL    R192230   5.907   1.174  14.465  0.0856 -0.0906  0.2067
56835CHOL    R292231   5.643   1.185  14.386  0.1094 -0.1006  0.1257
56835CHOL    R392232   5.596   1.148  14.651  0.0297 -0.1651  0.1027
56835CHOL    R492233   5.382   1.328  14.561  0.1461 -0.0193  0.1145
56835CHOL    R592234   5.518   1.362  14.728  0.1271 -0.1490  0.1573
56835CHOL    C192235   5.184   1.376  14.912  0.0927 -0.0324  0.0864
56835CHOL    C292236   4.963   1.529  14.767 -0.0704 -0.1503  0.0223
56836CHOL   ROH92237  33.084  20.375   4.592  0.0010  0.3316  0.0829
56836CHOL    R192238  33.113  20.476   4.329 -0.0374  0.2941  0.0642
56836CHOL    R292239  33.261  20.702   4.273  0.1506  0.1516 -0.0201
56836CHOL    R392240  33.388  20.537   4.098 -0.0966  0.0236 -0.0801
56836CHOL    R492241  33.500  20.803   4.044  0.3235 -0.1251  0.0365
56836CHOL    R592242  33.410  20.667   3.898  0.1186  0.0736 -0.0251
56836CHOL    C192243  33.758  20.706   3.746  0.1926 -0.4065  0.0130
56836CHOL    C292244  33.943  20.781   3.328 -0.0208 -0.0581 -0.2672
56837CHOL   ROH92245  18.358   2.940  11.534 -0.1156 -0.0613 -0.0406
56837CHOL    R192246  18.397   2.720  11.708  0.0240 -0.0764 -0.0909
56837CHOL    R292247  18.628   2.569  11.706  0.1385  0.0971 -0.0966
56837CHOL    R392248  18.632   2.630  11.971  0.0545  0.0326 -0.0803
56837CHOL    R492249  18.752   2.363  11.954  0.2365  0.1162 -0.1294
56837CHOL    R592250  18.584   2.422  12.080  0.1753 -0.0281 -0.1410
56837CHOL    C192251  18.828   2.300  12.348  0.2147  0.0667 -0.1331
56837CHOL    C292252  18.893   2.050  12.645 -0.2762  0.1522 -0.0575
56838CHOL   ROH92253   9.779  25.544  17.994  0.2940  0.0316  0.1535
56838CHOL    R192254   9.775  25.474  18.268  0.2314  0.0750  0.1638
56838CHOL    R292255   9.887  25.634  18.463 -0.0139  0.2163  0.1900
56838CHOL    R392256   9.640  25.616  18.575 -0.0500 -0.0020  0.0767
56838CHOL    R492257   9.826  25.581  18.799 -0.1168  0.4255  0.2052
56838CHOL    R592258   9.663  25.447  18.743  0.0806  0.1694  0.2340
56838CHOL    C192259   9.558  25.532  19.100 -0.2106  0.3425  0.1078
56838CHOL    C292260   9.552  25.536  19.549 -0.2995 -0.0171 -0.1811
56839CHOL   ROH92261  32.528   8.940   8.288 -0.1605 -0.1058  0.1604
56839CHOL    R192262  32.719   8.757   8.187 -0.2060 -0.1162  0.0933
56839CHOL    R292263  32.658   8.570   7.994 -0.1804  0.1620 -0.1878
56839CHOL    R392264  32.869   8.682   7.864  0.0064  0.1758  0.1218
56839CHOL    R492265  32.831   8.422   7.733  0.0015  0.3128 -0.1537
56839CHOL    R592266  33.016   8.498   7.820 -0.0435  0.1410  0.0992
56839CHOL    C192267  33.130   8.442   7.460  0.2813  0.4136  0.1566
56839CHOL    C292268  32.975   8.329   7.159  0.3415  0.2563 -0.2396
56840CHOL   ROH92269  13.831  21.584  17.885 -0.0331 -0.1713 -0.2434
56840CHOL    R192270  13.782  21.497  18.150 -0.0166 -0.0206 -0.1909
56840CHOL    R292271  13.712  21.237  18.211  0.0294  0.0038 -0.0347
56840CHOL    R392272  13.925  21.253  18.379  0.0275  0.1417 -0.0438
56840CHOL    R492273  13.700  21.177  18.551  0.0711  0.0528 -0.0244
56840CHOL    R592274  13.836  21.345  18.581 -0.0146  0.1282 -0.0561
56840CHOL    C192275  13.894  21.156  18.907  0.0937  0.2109 -0.0272
56840CHOL    C292276  13.594  20.922  19.030  0.0068  0.0788  0.1253
56841CHOL   ROH92277   6.114  18.001  12.254 -0.0165  0.2753  0.1050
56841CHOL    R192278   5.867  17.998  12.392 -0.2239  0.3044 -0.2577
56841CHOL    R292279   5.628  17.933  12.269  0.0388 -0.3034 -0.4672
56841CHOL    R392280   5.611  17.751  12.471 -0.0254  0.1654 -0.0414
56841CHOL    R492281   5.349  17.740  12.339  0.1353 -0.3933 -0.3256
56841CHOL    R592282   5.386  17.773  12.551 -0.1393  0.1572 -0.3538
56841CHOL    C192283   5.171  17.458  12.569  0.1313 -0.0051  0.1565
56841CHOL    C292284   5.047  17.181  12.628 -0.1191  0.4236 -0.0883
56842CHOL   ROH92285  13.310  10.872  14.669  0.4056 -0.0002  0.0173
56842CHOL    R192286  13.242  10.877  14.943  0.2825  0.0249 -0.0133
56842CHOL    R292287  12.987  10.932  15.032  0.2340 -0.0031 -0.1341
56842CHOL    R392288  13.015  10.695  15.162  0.2130  0.0181 -0.0910
56842CHOL    R492289  12.800  10.834  15.306  0.2604  0.0847 -0.0845
56842CHOL    R592290  12.982  10.749  15.393  0.2594  0.0705 -0.0965
56842CHOL    C192291  12.718  10.554  15.588  0.2559  0.1557 -0.0152
56842CHOL    C292292  12.602  10.532  15.994  0.1245  0.1391 -0.1920
56843CHOL   ROH92293  27.798  33.746   9.596  0.0113 -0.2645 -0.1573
56843CHOL    R192294  27.791  33.689   9.319 -0.0025 -0.0122 -0.2101
56843CHOL    R292295  27.691  33.867   9.133  0.1490  0.2311 -0.0634
56843CHOL    R392296  27.935  33.832   9.016  0.1359  0.1538 -0.0669
56843CHOL    R492297  27.760  33.924   8.799  0.1120 -0.0031 -0.1112
56843CHOL    R592298  27.884  33.744   8.799  0.1143  0.0004  0.0006
56843CHOL    C192299  28.029  33.923   8.495  0.0775 -0.2124 -0.1426
56843CHOL    C292300  28.227  33.795   8.119 -0.1650  0.0115 -0.3227
56844CHOL   ROH92301  25.480   5.618  10.342 -0.0426  0.0861  0.0151
56844CHOL    R192302  25.381   5.592  10.078  0.0368  0.3757 -0.0453
56844CHOL    R292303  25.181   5.414  10.011  0.3419  0.1481 -0.3761
56844CHOL    R392304  25.062   5.637   9.909 -0.0193  0.1309 -0.0053
56844CHOL    R492305  24.938   5.414   9.765  0.2087  0.1595 -0.2449
56844CHOL    R592306  25.034   5.588   9.677 -0.0778  0.4158 -0.0587
56844CHOL    C192307  24.685   5.622   9.526 -0.2078  0.1500  0.1792
56844CHOL    C292308  24.386   5.546   9.288  0.2438 -0.0935  0.0615
56845CHOL   ROH92309   9.970  22.534  18.430  0.2271  0.0542  0.2197
56845CHOL    R192310   9.861  22.322  18.583 -0.0251 -0.0292 -0.0700
56845CHOL    R292311   9.838  22.334  18.858  0.1251 -0.4353 -0.0352
56845CHOL    R392312   9.577  22.276  18.806  0.0082  0.0487 -0.0121
56845CHOL    R492313   9.621  22.180  19.080  0.0118 -0.5306 -0.2106
56845CHOL    R592314   9.541  22.065  18.914 -0.2489 -0.1020 -0.3878
56845CHOL    C192315   9.251  22.037  19.160 -0.1636 -0.1322 -0.2908
56845CHOL    C292316   9.164  21.984  19.450  0.2188 -0.1518 -0.0174
56846CHOL   ROH92317  28.017  11.189   5.328 -0.2827  0.0940  0.1853
56846CHOL    R192318  28.056  10.988   5.132 -0.1434  0.0800  0.2274
56846CHOL    R292319  27.890  10.769   5.108 -0.1808  0.1265  0.0667
56846CHOL    R392320  27.869  10.853   4.850  0.0984  0.1272  0.0427
56846CHOL    R492321  27.813  10.566   4.840 -0.2081  0.1861  0.0290
56846CHOL    R592322  27.961  10.673   4.722 -0.0032  0.0143  0.1261
56846CHOL    C192323  27.748  10.526   4.441  0.0380  0.2212 -0.0155
56846CHOL    C292324  27.775  10.171   4.198  0.1049  0.1553 -0.1423
56847CHOL   ROH92325   5.232  21.170   7.874 -0.1567 -0.0370  0.0382
56847CHOL    R192326   4.985  21.115   8.001 -0.0778 -0.0986  0.1650
56847CHOL    R292327   4.966  20.955   8.226  0.1079  0.0924  0.3178
56847CHOL    R392328   4.839  21.172   8.330 -0.0166  0.0964  0.1591
56847CHOL    R492329   4.745  20.946   8.491  0.0320  0.1444  0.2565
56847CHOL    R592330   4.621  21.091   8.386  0.0006  0.0334  0.1379
56847CHOL    C192331   4.496  21.145   8.743 -0.1290  0.1782  0.0718
56847CHOL    C292332   4.235  21.031   9.025 -0.2121 -0.0369 -0.0092
56848CHOL   ROH92333   9.995  24.288  18.748  0.1719  0.1273  0.2045
56848CHOL    R192334   9.838  24.324  18.981  0.1997  0.2142  0.2096
56848CHOL    R292335   9.823  24.566  19.114 -0.1119  0.3774 -0.1163
56848CHOL    R392336   9.555  24.531  19.080 -0.0750 -0.0671  0.0226
56848CHOL    R492337   9.585  24.620  19.358 -0.1215  0.5688 -0.1675
56848CHOL    R592338   9.481  24.441  19.290  0.1060  0.2712  0.2377
56848CHOL    C192339   9.195  24.619  19.469 -0.0928  0.2625 -0.0667
56848CHOL    C292340   8.959  24.662  19.730  0.2462  0.0848 -0.1430
56849CHOL   ROH92341   2.427   5.851   8.554  0.0946  0.0799 -0.0795
56849CHOL    R192342   2.172   5.931   8.647  0.0813  0.0447 -0.0854
56849CHOL    R292343   2.079   5.868   8.900  0.0893  0.0424 -0.0830
56849CHOL    R392344   2.043   6.136   8.919  0.0473  0.0379 -0.0962
56849CHOL    R492345   1.839   6.021   9.096  0.0738  0.0153 -0.0806
56849CHOL    R592346   1.806   6.163   8.934  0.0437  0.0009 -0.0871
56849CHOL    C192347   1.665   6.362   9.228  0.0254 -0.0048 -0.0919
56849CHOL    C292348   1.625   6.321   9.626 -0.0653 -0.1013  0.0226
56850CHOL   ROH92349   0.330  14.253   7.510 -0.1747  0.0038  0.0108
56850CHOL    R192350   0.573  14.326   7.385 -0.1754 -0.0293 -0.0097
56850CHOL    R292351   0.807  14.183   7.421 -0.1816 -0.0357  0.0050
56850CHOL    R392352   0.805  14.173   7.149 -0.1919 -0.0796  0.0066
56850CHOL    R492353   1.084  14.121   7.223 -0.1814 -0.0286  0.0031
56850CHOL    R592354   1.012  14.273   7.084 -0.2087 -0.0609 -0.0183
56850CHOL    C192355   1.243  14.076   6.852 -0.1910 -0.0658  0.0035
56850CHOL    C292356   1.474  13.967   6.985 -0.0264  0.0103  0.1756
56851CHOL   ROH92357   3.640  16.804   5.662  0.0097  0.1766  0.1794
56851CHOL    R192358   3.377  16.892   5.722  0.0618  0.2325  0.3284
56851CHOL    R292359   3.327  17.120   5.870  0.1917  0.4152  0.0966
56851CHOL    R392360   3.175  17.187   5.655 -0.0233  0.1355  0.1588
56851CHOL    R492361   3.068  17.348   5.875  0.0872  0.2972  0.0934
56851CHOL    R592362   2.955  17.215   5.744  0.0386  0.1169  0.3171
56851CHOL    C192363   2.774  17.544   5.676 -0.1755 -0.0340  0.1499
56851CHOL    C292364   2.662  17.686   5.980  0.0512  0.1104 -0.0865
56852CHOL   ROH92365   2.970   1.819  10.231 -0.0587  0.1724  0.1798
56852CHOL    R192366   2.826   1.940  10.442 -0.1812  0.1223  0.1248
56852CHOL    R292367   2.869   2.201  10.521 -0.0871  0.0415  0.3417
56852CHOL    R392368   2.601   2.224  10.480 -0.0353  0.2418  0.1027
56852CHOL    R492369   2.659   2.408  10.701 -0.2265 -0.4391  0.7427
56852CHOL    R592370   2.509   2.249  10.700 -0.2765 -0.4024  0.0873
56852CHOL    C192371   2.285   2.550  10.767 -0.2590 -0.5309  0.7519
56852CHOL    C292372   1.902   2.566  10.867  0.1888  0.3473 -0.2769
56853CHOL   ROH92373  32.702   1.874  11.201 -0.0058  0.0587 -0.0798
56853CHOL    R192374  32.769   1.668  11.019  0.1785  0.0387  0.0093
56853CHOL    R292375  32.665   1.656  10.764  0.1318 -0.2031  0.0388
56853CHOL    R392376  32.927   1.644  10.693  0.1303  0.0478 -0.0151
56853CHOL    R492377  32.784   1.516  10.471  0.2144 -0.1918  0.0664
56853CHOL    R592378  32.950   1.432  10.584  0.3311  0.0281  0.0629
56853CHOL    C192379  33.099   1.424  10.233  0.2609  0.0504  0.0319
56853CHOL    C292380  33.425   1.371   9.993 -0.0097 -0.0739  0.0759
56854CHOL   ROH92381  16.762   7.730  17.117 -0.1120  0.0957  0.0362
56854CHOL    R192382  16.740   7.885  16.882 -0.0345  0.0242 -0.0181
56854CHOL    R292383  16.692   7.773  16.634 -0.0982 -0.0378  0.0230
56854CHOL    R392384  16.485   7.949  16.630 -0.0058  0.0704 -0.0359
56854CHOL    R492385  16.543   7.896  16.347 -0.0530 -0.0810 -0.0191
56854CHOL    R592386  16.532   8.092  16.443  0.0574 -0.0333 -0.1007
56854CHOL    C192387  16.262   8.133  16.177  0.0606 -0.0045 -0.0989
56854CHOL    C292388  16.025   8.217  16.226  0.2214  0.2024 -0.2121
56855CHOL   ROH92389  19.079  30.562   9.737 -0.1564  0.0954 -0.0014
56855CHOL    R192390  19.246  30.692   9.925 -0.0322  0.0864 -0.1044
56855CHOL    R292391  19.202  30.677  10.198  0.0284  0.2394 -0.0861
56855CHOL    R392392  19.460  30.592  10.202 -0.0205  0.0904 -0.1123
56855CHOL    R492393  19.389  30.625  10.484  0.0250  0.1230 -0.1047
56855CHOL    R592394  19.560  30.713  10.382  0.0660  0.0273 -0.1177
56855CHOL    C192395  19.739  30.515  10.655 -0.0231 -0.0843 -0.1402
56855CHOL    C292396  19.938  30.682  11.036 -0.4048 -0.0777  0.0512
56856CHOL   ROH92397  29.273  24.311   4.794  0.0854  0.1097 -0.0394
56856CHOL    R192398  29.069  24.440   4.646  0.0059 -0.0193 -0.0420
56856CHOL    R292399  29.051  24.714   4.623 -0.1199 -0.0316 -0.1092
56856CHOL    R392400  29.050  24.660   4.357 -0.1344 -0.1002 -0.0953
56856CHOL    R492401  28.877  24.895   4.386 -0.0755 -0.0500 -0.1556
56856CHOL    R592402  28.826  24.707   4.288 -0.1228 -0.0622 -0.1069
56856CHOL    C192403  28.775  24.949   3.997 -0.0638 -0.1249 -0.1697
56856CHOL    C292404  28.563  25.199   3.721 -0.3529  0.3056 -0.2312
56857CHOL   ROH92405   8.754   3.693  18.918  0.2376 -0.1081  0.0156
56857CHOL    R192406   8.906   3.630  18.687  0.1540  0.1554 -0.1137
56857CHOL    R292407   8.914   3.375  18.580  0.5396  0.1556 -0.0928
56857CHOL    R392408   8.838   3.504  18.352  0.0909 -0.0078 -0.0397
56857CHOL    R492409   8.983   3.267  18.259  0.4617  0.2585 -0.1444
56857CHOL    R592410   9.022   3.474  18.202  0.0175  0.3309 -0.2014
56857CHOL    C192411   8.952   3.324  17.859 -0.0047  0.1651 -0.1253
56857CHOL    C292412   9.072   3.113  17.535  0.2015  0.1302 -0.0148
56858CHOL   ROH92413  12.864  30.758  20.628  0.2275 -0.4081  0.1466
56858CHOL    R192414  12.746  30.710  20.375  0.1671 -0.2840  0.1507
56858CHOL    R292415  12.877  30.575  20.173  0.1323 -0.1533  0.0410
56858CHOL    R392416  12.655  30.419  20.177  0.1553 -0.1867  0.0124
56858CHOL    R492417  12.775  30.371  19.914  0.1574 -0.1154  0.0008
56858CHOL    R592418  12.569  30.431  19.954  0.1494 -0.1535  0.0166
56858CHOL    C192419  12.507  30.105  19.766  0.1936 -0.1246 -0.0490
56858CHOL    C292420  12.297  29.806  19.503 -0.1344  0.0575  0.1060
56859CHOL   ROH92421   3.735  18.590  13.936  0.0788  0.0608 -0.0799
56859CHOL    R192422   4.002  18.567  14.025  0.0735  0.0093 -0.0771
56859CHOL    R292423   4.159  18.347  13.970  0.0350 -0.0157 -0.0851
56859CHOL    R392424   4.330  18.533  13.872  0.0700 -0.0415 -0.0737
56859CHOL    R492425   4.499  18.301  13.929  0.0642  0.0029  0.1301
56859CHOL    R592426   4.530  18.505  14.000  0.0005  0.0399  0.0543
56859CHOL    C192427   4.858  18.449  13.813  0.1142 -0.0104  0.2658
56859CHOL    C292428   5.202  18.708  13.875  0.2055 -0.0037  0.0909
56860CHOL   ROH92429   1.869   3.223  11.169 -0.1837 -0.3574 -0.1581
56860CHOL    R192430   1.729   3.366  10.969 -0.0221 -0.1164 -0.1018
56860CHOL    R292431   1.853   3.547  10.802  0.1552 -0.0669  0.0742
56860CHOL    R392432   1.742   3.394  10.607  0.1258  0.1461 -0.0764
56860CHOL    R492433   1.786   3.656  10.481  0.4454  0.1669  0.0904
56860CHOL    R592434   1.598   3.545  10.488  0.3391  0.3419 -0.0824
56860CHOL    C192435   1.642   3.575  10.110  0.5867  0.5029 -0.0412
56860CHOL    C292436   1.447   3.574   9.803  0.1075  0.1423  0.2086
56861CHOL   ROH92437   0.907  12.178   3.691 -0.0189 -0.3730  0.0284
56861CHOL    R192438   0.769  12.331   3.885  0.0970 -0.2949  0.0489
56861CHOL    R292439   0.495  12.320   3.917  0.0922 -0.1155  0.0685
56861CHOL    R392440   0.560  12.264   4.175  0.0740 -0.1750  0.0606
56861CHOL    R492441   0.285  12.367   4.188  0.0971 -0.1074  0.0710
56861CHOL    R592442   0.456  12.440   4.301  0.1146 -0.1686  0.0872
56861CHOL    C192443   0.224  12.342   4.588  0.0828 -0.1582  0.0651
56861CHOL    C292444   0.075  12.594   4.647 -0.1932  0.0645 -0.0818
56862CHOL   ROH92445  16.524  29.499  12.989  0.1962  0.0945 -0.2602
56862CHOL    R192446  16.715  29.570  13.186  0.0380  0.0536 -0.0907
56862CHOL    R292447  16.852  29.810  13.181  0.1461 -0.0049 -0.0088
56862CHOL    R392448  16.753  29.834  13.433 -0.0882  0.0884 -0.1080
56862CHOL    R492449  17.002  29.989  13.435  0.0868 -0.1925  0.1587
56862CHOL    R592450  16.948  29.829  13.573 -0.2367 -0.1404  0.0931
56862CHOL    C192451  16.998  30.116  13.820 -0.1675 -0.2134  0.1633
56862CHOL    C292452  17.165  30.337  14.115 -0.2264  0.1567 -0.0046
56863CHOL   ROH92453  14.795  31.568  15.116 -0.0065  0.2127 -0.3031
56863CHOL    R192454  15.060  31.632  15.192 -0.0423  0.2306 -0.1929
56863CHOL    R292455  15.123  31.861  15.333 -0.1535  0.0939  0.0814
56863CHOL    R392456  15.240  31.685  15.504 -0.1060 -0.0580 -0.1057
56863CHOL    R492457  15.312  31.949  15.609 -0.1742 -0.1486  0.1747
56863CHOL    R592458  15.450  31.787  15.560 -0.1320 -0.0624  0.0007
56863CHOL    C192459  15.533  31.835  15.929 -0.1418 -0.4324  0.0536
56863CHOL    C292460  15.656  32.056  16.108  0.1220  0.1528  0.0198
56864CHOL   ROH92461  19.600  28.344  14.921 -0.1185  0.1608 -0.1444
56864CHOL    R192462  19.374  28.184  14.978 -0.1232  0.2094 -0.0261
56864CHOL    R292463  19.116  28.266  14.923 -0.1135  0.1249 -0.2031
56864CHOL    R392464  19.105  28.030  14.789 -0.0517 -0.0346  0.0698
56864CHOL    R492465  18.847  28.049  14.928 -0.1261  0.1434 -0.0912
56864CHOL    R592466  18.988  27.882  14.938 -0.1385  0.1469  0.1820
56864CHOL    C192467  18.680  27.701  14.806 -0.0751  0.0037  0.2299
56864CHOL    C292468  18.450  27.554  14.674  0.0513 -0.5254  0.0187
56865CHOL   ROH92469   3.484  31.250  17.694 -0.0383  0.0707  0.0593
56865CHOL    R192470   3.638  31.216  17.459 -0.0410  0.0969  0.0538
56865CHOL    R292471   3.529  31.126  17.222 -0.0326  0.0740  0.0603
56865CHOL    R392472   3.641  31.354  17.122 -0.0786  0.0931  0.0515
56865CHOL    R492473   3.648  31.163  16.899  0.1604  0.0128  0.1236
56865CHOL    R592474   3.817  31.276  16.979  0.0541  0.1253  0.1945
56865CHOL    C192475   3.822  31.397  16.618  0.2296 -0.0050  0.1522
56865CHOL    C292476   3.942  31.115  16.304 -0.2121 -0.1941  0.0933
56866CHOL   ROH92477  19.662  18.447  11.159  0.2310  0.1186 -0.0637
56866CHOL    R192478  19.942  18.457  11.199  0.2457 -0.1375 -0.1001
56866CHOL    R292479  20.114  18.271  11.088  0.0809 -0.1822 -0.2847
56866CHOL    R392480  20.237  18.493  10.989  0.2408 -0.1954 -0.1173
56866CHOL    R492481  20.454  18.329  11.099  0.1020 -0.3456 -0.0653
56866CHOL    R592482  20.412  18.538  11.146  0.1732 -0.3466  0.0028
56866CHOL    C192483  20.768  18.570  11.013  0.2648 -0.4535  0.2195
56866CHOL    C292484  21.062  18.672  10.866  0.3052  0.0436 -0.1511
56867CHOL   ROH92485   0.882  31.081  14.679 -0.1106  0.0965  0.0388
56867CHOL    R192486   0.930  31.094  14.400 -0.1834  0.0008  0.0216
56867CHOL    R292487   1.161  30.996  14.284 -0.0922  0.2052  0.0286
56867CHOL    R392488   0.986  30.857  14.130  0.0364 -0.0836  0.1393
56867CHOL    R492489   1.238  30.850  13.981 -0.0811  0.4793 -0.1024
56867CHOL    R592490   1.045  30.916  13.905 -0.2889  0.1268  0.1053
56867CHOL    C192491   1.119  30.634  13.659  0.0461  0.3682 -0.0749
56867CHOL    C292492   1.080  30.793  13.212  0.1246 -0.1090 -0.0235
56868CHOL   ROH92493  23.912  16.396   7.970  0.1934 -0.0440 -0.2451
56868CHOL    R192494  23.634  16.392   8.027  0.2035  0.0763 -0.1876
56868CHOL    R292495  23.452  16.547   7.888  0.2208  0.0260 -0.2655
56868CHOL    R392496  23.329  16.308   7.848  0.1446  0.0310 -0.0654
56868CHOL    R492497  23.129  16.509   7.772  0.2235  0.0322 -0.2753
56868CHOL    R592498  23.102  16.347   7.915  0.1480  0.1699 -0.1304
56868CHOL    C192499  22.825  16.263   7.666  0.1531  0.0400 -0.0931
56868CHOL    C292500  22.663  16.221   7.280 -0.0152 -0.1381 -0.3119
56869CHOL   ROH92501  12.985  31.249  16.841 -0.0137 -0.1814 -0.0001
56869CHOL    R192502  12.988  31.227  17.123 -0.0840 -0.1867  0.0004
56869CHOL    R292503  13.221  31.241  17.271 -0.1117 -0.2673  0.0534
56869CHOL    R392504  13.086  31.437  17.404 -0.0763 -0.2243  0.0252
56869CHOL    R492505  13.273  31.327  17.602  0.0563 -0.0811 -0.0206
56869CHOL    R592506  13.058  31.349  17.625  0.0654 -0.1127  0.0889
56869CHOL    C192507  13.178  31.560  17.919  0.1877  0.0679 -0.0900
56869CHOL    C292508  13.355  31.574  18.263 -0.2358 -0.1692 -0.1282
56870CHOL   ROH92509  26.563  34.112   6.299 -0.0795 -0.1631 -0.1036
56870CHOL    R192510  26.671  34.174   6.553 -0.0074 -0.1041 -0.1484
56870CHOL    R292511  26.513  34.237   6.771  0.0573  0.0276 -0.1384
56870CHOL    R392512  26.653  34.036   6.889  0.0159  0.0249 -0.0938
56870CHOL    R492513  26.494  34.154   7.106  0.0000  0.0698 -0.1311
56870CHOL    R592514  26.710  34.123   7.105 -0.0044  0.0439 -0.0967
56870CHOL    C192515  26.614  33.917   7.412 -0.0720  0.0931 -0.0850
56870CHOL    C292516  26.850  33.859   7.760  0.1909  0.2349  0.0074
56871CHOL   ROH92517  19.059   1.320  10.140  0.2351 -0.0391 -0.1438
56871CHOL    R192518  19.071   1.360  10.420  0.1993 -0.0233 -0.1441
56871CHOL    R292519  18.979   1.173  10.601  0.0764  0.0327 -0.1467
56871CHOL    R392520  19.229   1.196  10.704  0.0676 -0.0757 -0.1017
56871CHOL    R492521  19.068   1.086  10.924 -0.0837  0.2811 -0.0340
56871CHOL    R592522  19.194   1.265  10.931  0.0637  0.1823 -0.1797
56871CHOL    C192523  19.355   1.058  11.208 -0.1854  0.3240  0.0739
56871CHOL    C292524  19.534   0.722  11.489  0.2756  0.0775  0.2633
56872CHOL   ROH92525   8.945  15.944  14.360  0.2029  0.2203  0.0384
56872CHOL    R192526   9.030  15.958  14.630  0.1804 -0.0832  0.0640
56872CHOL    R292527   8.903  16.115  14.818  0.4504  0.0769  0.1161
56872CHOL    R392528   8.889  15.882  14.957 -0.0379  0.0288 -0.0031
56872CHOL    R492529   8.909  16.090  15.163  0.6605 -0.1263  0.0984
56872CHOL    R592530   9.037  15.915  15.142  0.1992 -0.4501 -0.1000
56872CHOL    C192531   8.900  15.856  15.493  0.3245 -0.2895 -0.0235
56872CHOL    C292532   8.652  16.056  15.716  0.2106 -0.0625  0.1197
56873CHOL   ROH92533   5.525  15.510  10.218 -0.2451  0.2164 -0.3868
56873CHOL    R192534   5.304  15.683  10.257 -0.3001  0.1265 -0.2944
56873CHOL    R292535   5.044  15.604  10.208 -0.2949 -0.0002 -0.1247
56873CHOL    R392536   5.004  15.687  10.464 -0.1810  0.0370 -0.1192
56873CHOL    R492537   4.735  15.669  10.349 -0.2359 -0.0321  0.0196
56873CHOL    R592538   4.822  15.842  10.449 -0.2172  0.0010 -0.0545
56873CHOL    C192539   4.518  15.784  10.672 -0.0945 -0.0159  0.1089
56873CHOL    C292540   4.168  15.731  10.948 -0.0864 -0.2151 -0.0604
56874CHOL   ROH92541   8.351  24.957  20.472 -0.1446 -0.0762  0.0181
56874CHOL    R192542   8.500  24.966  20.231 -0.1173  0.1297  0.0418
56874CHOL    R292543   8.497  24.760  20.046  0.1959  0.1238  0.0413
56874CHOL    R392544   8.426  24.959  19.874 -0.0510  0.0287  0.0295
56874CHOL    R492545   8.428  24.716  19.711  0.2020  0.0103  0.0549
56874CHOL    R592546   8.535  24.901  19.669 -0.0112  0.1291  0.0214
56874CHOL    C192547   8.321  24.876  19.354 -0.0263 -0.1451  0.0517
56874CHOL    C292548   8.361  24.857  19.083  0.0354 -0.0303  0.1244
56875CHOL   ROH92549  16.942  31.464  17.978  0.2761 -0.0278 -0.2627
56875CHOL    R192550  16.806  31.449  17.731  0.1602 -0.0715 -0.1963
56875CHOL    R292551  16.620  31.253  17.675  0.0282  0.0028 -0.0221
56875CHOL    R392552  16.460  31.466  17.618  0.1192  0.0631 -0.0529
56875CHOL    R492553  16.341  31.243  17.470 -0.1125  0.0389  0.1661
56875CHOL    R592554  16.400  31.436  17.388 -0.0486 -0.0481  0.0048
56875CHOL    C192555  16.029  31.436  17.298 -0.1089  0.1159  0.2467
56875CHOL    C292556  16.065  31.122  17.114 -0.1679  0.2133 -0.2169
56876CHOL   ROH92557  23.260  29.675   7.816  0.1604  0.0118 -0.2728
56876CHOL    R192558  23.509  29.609   7.934  0.0372  0.2178  0.1101
56876CHOL    R292559  23.730  29.536   7.785  0.1294 -0.2845  0.4806
56876CHOL    R392560  23.849  29.738   7.923  0.1023  0.0404  0.0380
56876CHOL    R492561  24.071  29.593   7.796  0.1617 -0.5161  0.7410
56876CHOL    R592562  24.051  29.641   8.008 -0.0763  0.1305  0.5871
56876CHOL    C192563  24.381  29.816   7.931  0.1559 -0.3459  0.4771
56876CHOL    C292564  24.729  29.655   8.002 -0.0549 -0.3682 -0.0537
56877CHOL   ROH92565  23.098  15.030  12.138  0.0220 -0.1364 -0.0888
56877CHOL    R192566  22.899  14.924  11.967 -0.0057  0.0160 -0.1516
56877CHOL    R292567  22.629  14.940  12.025  0.0009  0.0340 -0.1316
56877CHOL    R392568  22.616  15.052  11.778  0.0135  0.1976 -0.0586
56877CHOL    R492569  22.350  14.938  11.821  0.0998 -0.0942 -0.2674
56877CHOL    R592570  22.481  14.901  11.651  0.2203  0.1530 -0.2319
56877CHOL    C192571  22.175  15.042  11.471  0.1685 -0.0154 -0.2779
56877CHOL    C292572  21.828  15.089  11.544  0.0793  0.3726 -0.0203
56878CHOL   ROH92573  29.351   7.386   3.408 -0.2107 -0.0345  0.0172
56878CHOL    R192574  29.288   7.494   3.662 -0.2659  0.0259 -0.0220
56878CHOL    R292575  29.481   7.592   3.834 -0.2717 -0.2170  0.1248
56878CHOL    R392576  29.327   7.815   3.829 -0.0002 -0.0286  0.0239
56878CHOL    R492577  29.519   7.863   4.045  0.0483 -0.1704  0.0116
56878CHOL    R592578  29.302   7.875   4.059  0.0618  0.1003 -0.0025
56878CHOL    C192579  29.395   8.230   4.164  0.4895  0.0334 -0.1490
56878CHOL    C292580  29.391   8.662   4.379  0.0847  0.1271  0.3914
56879CHOL   ROH92581   2.142  18.477   9.463  0.0996  0.3954  0.1038
56879CHOL    R192582   2.397  18.475   9.339  0.1793  0.1812  0.2675
56879CHOL    R292583   2.585  18.280   9.391 -0.1143 -0.1296  0.1926
56879CHOL    R392584   2.583  18.251   9.120  0.0190  0.1533  0.1591
56879CHOL    R492585   2.841  18.141   9.205 -0.2163 -0.3601  0.2236
56879CHOL    R592586   2.809  18.295   9.054  0.1388 -0.1486  0.3580
56879CHOL    C192587   2.988  18.033   8.842 -0.1507 -0.2293  0.2102
56879CHOL    C292588   3.342  18.070   9.004  0.1324  0.1423  0.1269
56880CHOL   ROH92589   9.102  18.370  14.596 -0.0163 -0.2199  0.0931
56880CHOL    R192590   8.915  18.202  14.725  0.0704 -0.2966  0.1189
56880CHOL    R292591   8.991  18.000  14.898  0.1683 -0.1179  0.2862
56880CHOL    R392592   8.821  18.125  15.069 -0.0182 -0.1514  0.1275
56880CHOL    R492593   8.800  17.841  15.138  0.0507 -0.1457  0.1757
56880CHOL    R592594   8.635  17.975  15.089  0.0299 -0.2274  0.0182
56880CHOL    C192595   8.530  17.867  15.439 -0.1927 -0.1935 -0.0378
56880CHOL    C292596   8.565  17.766  15.715  0.1704 -0.1633 -0.3033
56881CHOL   ROH92597  27.939  22.743   4.304 -0.0302 -0.0343 -0.0323
56881CHOL    R192598  27.943  22.783   4.024 -0.0437 -0.1856 -0.0546
56881CHOL    R292599  27.726  22.729   3.863 -0.1352 -0.0402  0.0180
56881CHOL    R392600  27.761  22.986   3.783  0.1225 -0.1179 -0.1238
56881CHOL    R492601  27.551  22.882   3.607 -0.1360  0.0565  0.0760
56881CHOL    R592602  27.737  22.978   3.545 -0.0605 -0.1972 -0.1034
56881CHOL    C192603  27.483  23.212   3.382  0.1057  0.0403 -0.0232
56881CHOL    C292604  27.382  23.483   3.246 -0.1890  0.1251  0.4104
56882CHOL   ROH92605  17.227   1.276  10.861  0.3606  0.2203  0.0873
56882CHOL    R192606  17.177   1.079  11.057  0.2991  0.1938  0.0450
56882CHOL    R292607  17.379   0.954  11.198  0.2572  0.1421  0.0589
56882CHOL    R392608  17.237   1.039  11.414  0.2312  0.1247  0.0488
56882CHOL    R492609  17.397   0.814  11.513  0.0668 -0.0155  0.0012
56882CHOL    R592610  17.181   0.837  11.530  0.0732  0.1019 -0.0635
56882CHOL    C192611  17.274   0.812  11.900 -0.0682 -0.1237 -0.0419
56882CHOL    C292612  17.613   0.526  11.886  0.1674 -0.2124 -0.3375
56883CHOL   ROH92613  12.038  32.826  16.512 -0.1853 -0.3581  0.1757
56883CHOL    R192614  12.066  32.821  16.793 -0.1494 -0.1850  0.1757
56883CHOL    R292615  12.297  32.904  16.921 -0.1332 -0.1063  0.0953
56883CHOL    R392616  12.125  33.065  17.057 -0.1151 -0.0215  0.0187
56883CHOL    R492617  12.358  33.040  17.233 -0.0953  0.0816  0.0069
56883CHOL    R592618  12.151  33.000  17.286 -0.0896  0.1167  0.0555
56883CHOL    C192619  12.233  33.270  17.542 -0.0563  0.2712 -0.1171
56883CHOL    C292620  12.575  33.359  17.611  0.1055  0.1706 -0.3412
56884CHOL   ROH92621  31.955   3.831   7.896 -0.1974  0.0290 -0.0711
56884CHOL    R192622  31.964   3.904   8.170 -0.1657 -0.0283 -0.0568
56884CHOL    R292623  31.842   4.131   8.267 -0.1179 -0.0258 -0.0020
56884CHOL    R392624  31.724   3.955   8.438 -0.1379 -0.0393 -0.0297
56884CHOL    R492625  31.630   4.219   8.526 -0.1554 -0.0468 -0.0258
56884CHOL    R592626  31.727   4.067   8.650 -0.1696 -0.0528 -0.0221
56884CHOL    C192627  31.397   4.105   8.837 -0.1965 -0.0717 -0.0658
56884CHOL    C292628  31.055   4.146   8.796 -0.0665  0.0675  0.0297
56885CHOL   ROH92629  34.771  28.714  13.163 -0.0239 -0.0070 -0.0009
56885CHOL    R192630  34.898  28.567  12.958  0.0355  0.0298  0.0099
56885CHOL    R292631  35.125  28.657  12.828  0.0749  0.0513  0.0944
56885CHOL    R392632  35.225  28.416  12.904  0.0496  0.0358  0.0794
56885CHOL    R492633   0.017  28.505  12.689  0.0187 -0.0008  0.0389
56885CHOL    R592634  35.298  28.315  12.700 -0.0114  0.0174  0.0667
56885CHOL    C192635   0.273  28.191  12.679 -0.0372 -0.0458 -0.0078
56885CHOL    C292636   0.606  28.272  12.445  0.3056 -0.0821 -0.2420
56886CHOL   ROH92637   7.194  13.854  16.606  0.3618  0.1356  0.0081
56886CHOL    R192638   7.377  13.931  16.404  0.4252  0.0905  0.0479
56886CHOL    R292639   7.548  13.752  16.282  0.1017 -0.0389 -0.2239
56886CHOL    R392640   7.435  13.849  16.055  0.1844  0.4240 -0.0732
56886CHOL    R492641   7.701  13.756  15.972 -0.0614 -0.0998 -0.3057
56886CHOL    R592642   7.616  13.955  15.939  0.3595  0.1270 -0.0762
56886CHOL    C192643   7.684  13.850  15.578 -0.0786  0.2995 -0.2120
56886CHOL    C292644   7.591  13.914  15.241 -0.1349 -0.0757  0.0503
56887CHOL   ROH92645  32.803   1.517  11.555  0.0076  0.1253 -0.0196
56887CHOL    R192646  33.016   1.523  11.369  0.0790  0.1005  0.0607
56887CHOL    R292647  33.146   1.295  11.284  0.0098  0.0740  0.0249
56887CHOL    R392648  33.082   1.388  11.037  0.1413  0.1938  0.0350
56887CHOL    R492649  33.306   1.204  10.991 -0.0034  0.0151  0.0359
56887CHOL    R592650  33.293   1.412  10.926  0.1865  0.0444  0.0869
56887CHOL    C192651  33.338   1.239  10.589  0.1120  0.0934  0.0516
56887CHOL    C292652  33.415   0.906  10.452 -0.0634  0.0940 -0.2135
56888CHOL   ROH92653  30.305  26.185   2.785 -0.0768 -0.0043  0.0457
56888CHOL    R192654  30.247  26.011   3.001 -0.1602  0.1160  0.1207
56888CHOL    R292655  30.432  25.832   3.101 -0.3608 -0.1897 -0.0451
56888CHOL    R392656  30.375  25.955   3.337  0.0804 -0.0637  0.0009
56888CHOL    R492657  30.424  25.675   3.409 -0.4045 -0.1591 -0.0304
56888CHOL    R592658  30.247  25.793   3.459 -0.1343  0.1894  0.1174
56888CHOL    C192659  30.365  25.699   3.809 -0.0156 -0.0228  0.0214
56888CHOL    C292660  30.140  25.364   3.867 -0.2383 -0.0903 -0.1945
56889CHOL   ROH92661  34.469  20.597   1.545  0.1432 -0.0840 -0.1318
56889CHOL    R192662  34.319  20.533   1.776  0.2159 -0.0938 -0.0877
56889CHOL    R292663  34.435  20.436   2.007  0.3323  0.2526 -0.0015
56889CHOL    R392664  34.304  20.645   2.122  0.0455  0.1737 -0.1793
56889CHOL    R492665  34.286  20.428   2.319  0.3925  0.3246  0.0300
56889CHOL    R592666  34.120  20.543   2.237  0.2087  0.0093 -0.0564
56889CHOL    C192667  34.076  20.619   2.608  0.1593  0.2923 -0.1186
56889CHOL    C292668  33.898  20.665   2.835  0.1040 -0.0703 -0.2801
56890CHOL   ROH92669  32.794  23.181   4.907  0.0473 -0.1412 -0.1456
56890CHOL    R192670  32.861  23.401   4.742 -0.1045 -0.2157 -0.3087
56890CHOL    R292671  33.100  23.538   4.767 -0.3723  0.2321 -0.1249
56890CHOL    R392672  33.122  23.481   4.502  0.1021 -0.0467 -0.0320
56890CHOL    R492673  33.324  23.688   4.551 -0.4070  0.4560 -0.0052
56890CHOL    R592674  33.167  23.693   4.399 -0.2216 -0.0677 -0.2259
56890CHOL    C192675  33.475  23.723   4.176  0.0186  0.3252  0.1515
56890CHOL    C292676  33.674  23.949   4.244  0.0605  0.0666 -0.2457
56891CHOL   ROH92677   7.915   7.453  14.379 -0.1365  0.1556 -0.0281
56891CHOL    R192678   7.729   7.473  14.592  0.0088 -0.0411  0.1194
56891CHOL    R292679   7.808   7.493  14.856  0.2058  0.2632  0.0433
56891CHOL    R392680   7.651   7.715  14.853 -0.1933 -0.0128  0.0327
56891CHOL    R492681   7.672   7.642  15.136  0.1232  0.1660  0.0551
56891CHOL    R592682   7.488   7.675  15.023 -0.0118 -0.2165  0.1595
56891CHOL    C192683   7.445   7.938  15.296 -0.2997 -0.1496  0.0521
56891CHOL    C292684   7.196   7.796  15.408 -0.0657 -0.0407 -0.1463
56892CHOL   ROH92685  28.937  16.898   0.964 -0.2153  0.1246 -0.0553
56892CHOL    R192686  28.878  16.971   1.231 -0.0057 -0.0017  0.0263
56892CHOL    R292687  29.072  16.984   1.428  0.1984  0.1872 -0.1857
56892CHOL    R392688  28.975  17.236   1.461 -0.0671  0.0672 -0.0271
56892CHOL    R492689  29.107  17.173   1.715  0.1188  0.0946 -0.1144
56892CHOL    R592690  28.902  17.243   1.689  0.0277 -0.1196  0.0104
56892CHOL    C192691  29.037  17.520   1.913 -0.1771 -0.0716  0.0761
56892CHOL    C292692  29.124  17.762   2.068 -0.1014  0.2336  0.0671
56893CHOL   ROH92693  21.028  23.064   8.789 -0.0313 -0.1265  0.2028
56893CHOL    R192694  21.192  23.024   9.016 -0.0187 -0.3241  0.1592
56893CHOL    R292695  21.333  22.790   9.058  0.1845 -0.2635 -0.1811
56893CHOL    R392696  21.544  22.960   9.080  0.0337 -0.1065  0.0967
56893CHOL    R492697  21.590  22.756   9.286  0.2996 -0.5074 -0.3456
56893CHOL    R592698  21.586  22.972   9.316  0.1059 -0.5665  0.1135
56893CHOL    C192699  21.939  22.894   9.439  0.2251 -0.5022 -0.1806
56893CHOL    C292700  22.137  22.665   9.608  0.0108  0.0892 -0.2246
56894CHOL   ROH92701  14.523  17.989  19.418 -0.0689 -0.1061  0.2369
56894CHOL    R192702  14.562  17.977  19.138 -0.0418 -0.1009  0.2401
56894CHOL    R292703  14.531  17.743  18.994 -0.0530 -0.0928  0.2292
56894CHOL    R392704  14.360  17.894  18.847 -0.0212 -0.0683  0.2166
56894CHOL    R492705  14.447  17.682  18.665 -0.0381 -0.0816  0.2235
56894CHOL    R592706  14.456  17.896  18.627 -0.0052 -0.0828  0.2234
56894CHOL    C192707  14.237  17.787  18.335  0.0002 -0.0526  0.2083
56894CHOL    C292708  14.034  17.790  17.929  0.0188  0.3230 -0.0452
56895CHOL   ROH92709  12.581  27.223  18.070  0.0577  0.0358  0.0074
56895CHOL    R192710  12.704  27.292  18.316 -0.0257 -0.0469  0.0723
56895CHOL    R292711  12.596  27.479  18.488 -0.0772 -0.0948  0.0926
56895CHOL    R392712  12.615  27.276  18.669 -0.1512 -0.1518  0.0366
56895CHOL    R492713  12.562  27.515  18.830  0.0417 -0.1596  0.1122
56895CHOL    R592714  12.726  27.374  18.857 -0.0376 -0.2680  0.0301
56895CHOL    C192715  12.559  27.346  19.199  0.0414 -0.2515  0.0704
56895CHOL    C292716  12.321  27.407  19.369  0.1209 -0.0355 -0.0427
56896CHOL   ROH92717  29.883  26.786   3.308  0.0397 -0.3482 -0.0426
56896CHOL    R192718  29.897  26.572   3.493  0.0122 -0.2291  0.0978
56896CHOL    R292719  29.921  26.612   3.765 -0.2111 -0.0519  0.0917
56896CHOL    R392720  29.701  26.453   3.775 -0.1368 -0.1590  0.0243
56896CHOL    R492721  29.849  26.391   4.020 -0.3160  0.1116  0.2050
56896CHOL    R592722  29.780  26.248   3.871 -0.1110 -0.0437  0.2554
56896CHOL    C192723  29.600  26.112   4.178 -0.3080  0.1066  0.2078
56896CHOL    C292724  29.791  26.011   4.519 -0.2061 -0.0872 -0.1081
56897CHOL   ROH92725   2.670  27.300  12.746  0.1010 -0.2181  0.0367
56897CHOL    R192726   2.416  27.199  12.823  0.0792 -0.2136 -0.0294
56897CHOL    R292727   2.364  26.929  12.843  0.0918 -0.2111  0.0330
56897CHOL    R392728   2.284  26.997  13.094 -0.0095 -0.1407 -0.0180
56897CHOL    R492729   2.115  26.768  13.021 -0.1254 -0.0288 -0.1040
56897CHOL    R592730   2.047  26.963  13.092 -0.0325  0.0237 -0.1561
56897CHOL    C192731   1.894  26.738  13.360 -0.3470  0.1437 -0.2317
56897CHOL    C292732   1.575  26.453  13.405  0.0660  0.2480  0.0470
56898CHOL   ROH92733  22.599  21.334   5.256 -0.2041 -0.0633  0.3547
56898CHOL    R192734  22.789  21.311   5.464 -0.0990 -0.1104  0.2542
56898CHOL    R292735  22.978  21.109   5.472 -0.1044 -0.1205  0.1218
56898CHOL    R392736  23.152  21.316   5.493 -0.0835 -0.1330  0.0709
56898CHOL    R492737  23.307  21.080   5.573 -0.0843 -0.1398  0.0525
56898CHOL    R592738  23.283  21.264   5.687 -0.0456 -0.1305  0.0460
56898CHOL    C192739  23.663  21.258   5.652 -0.0536 -0.1620 -0.0356
56898CHOL    C292740  24.021  21.228   5.530  0.1122 -0.0933 -0.0965
56899CHOL   ROH92741  35.338  25.923   5.360 -0.0948 -0.0541 -0.2069
56899CHOL    R192742  35.069  25.841   5.322 -0.1511  0.1072 -0.1679
56899CHOL    R292743  34.954  25.637   5.468 -0.1074 -0.1453 -0.4746
56899CHOL    R392744  34.766  25.826   5.523 -0.0025 -0.1827  0.0344
56899CHOL    R492745  34.617  25.573   5.510 -0.1289 -0.0778 -0.5543
56899CHOL    R592746  34.574  25.756   5.398 -0.0664  0.2211 -0.0957
56899CHOL    C192747  34.244  25.713   5.585 -0.0445 -0.0739 -0.1227
56899CHOL    C292748  34.008  25.497   5.334 -0.2125 -0.1415 -0.1108
56900CHOL   ROH92749   9.500  28.200  17.581 -0.0742  0.0430 -0.0716
56900CHOL    R192750   9.486  28.186  17.864 -0.1005 -0.0736 -0.0786
56900CHOL    R292751   9.622  28.360  18.029 -0.0025 -0.2305  0.0076
56900CHOL    R392752   9.375  28.402  18.135  0.0166 -0.1252  0.0105
56900CHOL    R492753   9.559  28.432  18.361  0.0284 -0.2390  0.0153
56900CHOL    R592754   9.385  28.301  18.351 -0.0339 -0.1549 -0.0013
56900CHOL    C192755   9.291  28.513  18.654  0.0640 -0.1447  0.0224
56900CHOL    C292756   9.147  28.623  18.966  0.0506  0.1854 -0.1763
56901CHOL   ROH92757   1.111  29.177   9.785 -0.0623 -0.0407 -0.0479
56901CHOL    R192758   0.841  29.105   9.831 -0.0694  0.0195  0.0060
56901CHOL    R292759   0.769  28.882   9.977 -0.0888 -0.0131 -0.0522
56901CHOL    R392760   0.623  29.063  10.119  0.0040 -0.0223  0.0554
56901CHOL    R492761   0.498  28.805  10.178 -0.1511  0.0093 -0.1275
56901CHOL    R592762   0.398  28.984  10.104 -0.0414  0.1179 -0.0176
56901CHOL    C192763   0.204  28.929  10.428 -0.1003  0.0134 -0.0702
56901CHOL    C292764  35.360  28.951  10.674  0.3883 -0.2021 -0.1055
56902CHOL   ROH92765   2.933   6.341   9.218  0.0254 -0.1724  0.0054
56902CHOL    R192766   2.781   6.487   9.407  0.0316 -0.1092 -0.0384
56902CHOL    R292767   2.625   6.365   9.599  0.0391 -0.0452  0.0086
56902CHOL    R392768   2.770   6.520   9.769  0.0445  0.0129 -0.0487
56902CHOL    R492769   2.536   6.438   9.925  0.1341 -0.0734  0.0409
56902CHOL    R592770   2.606   6.642   9.894  0.0449 -0.0473  0.0109
56902CHOL    C192771   2.620   6.626  10.274  0.1945 -0.0354  0.0062
56902CHOL    C292772   2.471   6.418  10.557 -0.1173 -0.1690  0.3648
56903CHOL   ROH92773  11.190  21.142  19.927 -0.0615 -0.1034 -0.0229
56903CHOL    R192774  10.930  21.204  19.835  0.0034  0.0483 -0.1049
56903CHOL    R292775  10.746  21.340  19.990 -0.0370 -0.0314 -0.0840
56903CHOL    R392776  10.736  21.506  19.775  0.1195  0.1554  0.0516
56903CHOL    R492777  10.534  21.611  19.960 -0.2148 -0.1736 -0.1188
56903CHOL    R592778  10.503  21.558  19.751  0.1080 -0.0097 -0.2119
56903CHOL    C192779  10.400  21.925  19.741 -0.1710 -0.0807 -0.0120
56903CHOL    C292780  10.101  21.930  19.513 -0.1712  0.0181  0.1383
56904CHOL   ROH92781  29.938  20.957   0.772  0.1558  0.0981 -0.0332
56904CHOL    R192782  29.771  21.050   0.981  0.1917 -0.0412  0.0588
56904CHOL    R292783  29.871  21.138   1.223  0.2504  0.0170  0.0150
56904CHOL    R392784  29.727  21.361   1.165  0.0537 -0.0868  0.1025
56904CHOL    R492785  29.727  21.346   1.458  0.3731 -0.0023  0.1075
56904CHOL    R592786  29.552  21.362   1.329  0.2258 -0.1450  0.2877
56904CHOL    C192787  29.507  21.676   1.541  0.2605 -0.1107  0.2435
56904CHOL    C292788  29.365  21.687   1.788  0.4700  0.2493  0.1617
56905CHOL   ROH92789  33.478  20.294   4.869 -0.0384 -0.0573  0.1283
56905CHOL    R192790  33.543  20.342   4.598  0.0725 -0.0662  0.1534
56905CHOL    R292791  33.644  20.584   4.510  0.0394 -0.0455  0.1741
56905CHOL    R392792  33.843  20.428   4.409  0.1329  0.0040  0.2816
56905CHOL    R492793  33.887  20.692   4.290 -0.0641 -0.0666  0.0485
56905CHOL    R592794  33.868  20.503   4.183  0.0515 -0.1719  0.2133
56905CHOL    C192795  34.216  20.609   4.067 -0.0368 -0.0320  0.0764
56905CHOL    C292796  34.321  20.790   3.737  0.4881 -0.1156 -0.2995
56906CHOL   ROH92797   5.159   7.647  14.452 -0.2312 -0.1152 -0.0375
56906CHOL    R192798   5.173   7.364  14.455 -0.0175 -0.1066 -0.0793
56906CHOL    R292799   4.954   7.204  14.402  0.0186 -0.2645  0.2282
56906CHOL    R392800   5.120   7.094  14.217 -0.1687 -0.1242 -0.0260
56906CHOL    R492801   4.910   6.894  14.256 -0.0069 -0.2489  0.2029
56906CHOL    R592802   5.125   6.861  14.272  0.0332 -0.1368 -0.0950
56906CHOL    C192803   5.040   6.610  13.998 -0.1974 -0.1081 -0.0503
56906CHOL    C292804   5.103   6.352  13.763  0.0152  0.3676 -0.0108
56907CHOL   ROH92805   9.354  27.295  20.729 -0.0419 -0.1083  0.1155
56907CHOL    R192806   9.335  27.213  20.459  0.0001 -0.1152  0.1146
56907CHOL    R292807   9.544  27.239  20.281  0.0059 -0.0588  0.1295
56907CHOL    R392808   9.504  26.973  20.244  0.0819 -0.0701  0.1281
56907CHOL    R492809   9.653  27.059  20.007 -0.0603  0.0029  0.0626
56907CHOL    R592810   9.464  26.951  20.008 -0.0221 -0.0645  0.1444
56907CHOL    C192811   9.679  26.704  19.812 -0.0272  0.0278  0.0220
56907CHOL    C292812   9.959  26.670  19.612 -0.5529 -0.1343  0.1252
56908CHOL   ROH92813   9.124   0.054  16.747 -0.0823 -0.0131  0.1068
56908CHOL    R192814   9.001   0.242  16.919  0.1191  0.0628  0.1694
56908CHOL    R292815   8.762   0.192  17.048  0.0044  0.3199  0.0620
56908CHOL    R392816   8.905   0.256  17.270  0.0228  0.0001  0.1455
56908CHOL    R492817   8.630   0.225  17.366 -0.0527  0.3259  0.0374
56908CHOL    R592818   8.759   0.398  17.396  0.1766  0.1326  0.1757
56908CHOL    C192819   8.688   0.305  17.759 -0.0691  0.0292  0.1015
56908CHOL    C292820   8.536   0.049  17.960 -0.0901 -0.2006  0.1012
56909CHOL   ROH92821  14.325  23.699  18.182 -0.1960  0.0634  0.0319
56909CHOL    R192822  14.440  23.759  18.434 -0.2313  0.1663  0.0237
56909CHOL    R292823  14.300  23.736  18.671 -0.1652 -0.0503  0.0425
56909CHOL    R392824  14.511  23.580  18.742  0.0447  0.2021 -0.0177
56909CHOL    R492825  14.398  23.674  18.996 -0.0826 -0.0452  0.0187
56909CHOL    R592826  14.606  23.692  18.932 -0.1039  0.2567  0.0246
56909CHOL    C192827  14.653  23.491  19.253  0.1624  0.1948 -0.0519
56909CHOL    C292828  14.841  23.570  19.556  0.0609 -0.1048 -0.1405
56910CHOL   ROH92829   9.885   3.986  18.421 -0.0809  0.1425 -0.0387
56910CHOL    R192830   9.880   4.035  18.143  0.1405  0.1250 -0.0469
56910CHOL    R292831  10.098   3.991  17.980  0.1683 -0.2069  0.0750
56910CHOL    R392832   9.923   3.839  17.839  0.0222  0.0326 -0.0046
56910CHOL    R492833  10.136   3.902  17.648  0.2125 -0.2853  0.1007
56910CHOL    R592834   9.923   3.936  17.620  0.2733  0.0177 -0.0118
56910CHOL    C192835   9.993   3.707  17.322  0.1010 -0.1062  0.0414
56910CHOL    C292836  10.105   3.601  17.032 -0.2950 -0.0431 -0.0727
56911CHOL   ROH92837   4.146  23.722  17.288  0.0164  0.0270  0.1105
56911CHOL    R192838   4.386  23.864  17.238  0.0693 -0.1116 -0.0340
56911CHOL    R292839   4.581  23.899  17.431  0.0699  0.0342 -0.0603
56911CHOL    R392840   4.742  23.790  17.241  0.0432 -0.2341  0.0681
56911CHOL    R492841   4.918  23.965  17.398  0.0313  0.1152 -0.3048
56911CHOL    R592842   4.891  23.968  17.181 -0.0514 -0.2764 -0.3021
56911CHOL    C192843   5.267  23.901  17.200 -0.0162 -0.0895 -0.3265
56911CHOL    C292844   5.333  24.223  17.035 -0.2091  0.3220  0.1279
56912CHOL   ROH92845  28.635   8.612   2.645  0.2831 -0.0421 -0.2428
56912CHOL    R192846  28.755   8.707   2.883  0.2718 -0.0687 -0.2266
56912CHOL    R292847  28.909   8.936   2.891  0.1336  0.0245 -0.1623
56912CHOL    R392848  28.735   9.009   3.086  0.1270 -0.1647 -0.0965
56912CHOL    R492849  28.978   9.163   3.141  0.0761 -0.1106 -0.0233
56912CHOL    R592850  28.872   9.034   3.281  0.1383 -0.2396 -0.0945
56912CHOL    C192851  28.855   9.364   3.471  0.0363 -0.3669  0.1195
56912CHOL    C292852  29.047   9.740   3.631  0.0588 -0.0366 -0.0107
56913CHOL   ROH92853  33.556  32.483  11.798 -0.1201  0.3557  0.1866
56913CHOL    R192854  33.732  32.431  11.583 -0.1541  0.0854  0.2229
56913CHOL    R292855  33.777  32.613  11.380 -0.1756 -0.1613 -0.0071
56913CHOL    R392856  34.038  32.576  11.449 -0.1676 -0.0895  0.0007
56913CHOL    R492857  34.048  32.717  11.192 -0.1972 -0.1507 -0.0330
56913CHOL    R592858  34.148  32.529  11.241 -0.1583 -0.1171  0.0120
56913CHOL    C192859  34.450  32.742  11.147 -0.2023 -0.0775 -0.0409
56913CHOL    C292860  34.689  33.038  11.167  0.1017 -0.3517 -0.0074
56914CHOL   ROH92861  18.953  33.942  13.868 -0.0768 -0.0112  0.0175
56914CHOL    R192862  18.711  33.838  13.765 -0.0360 -0.0568 -0.0332
56914CHOL    R292863  18.546  33.982  13.597 -0.0780 -0.0496  0.0134
56914CHOL    R392864  18.573  33.764  13.437  0.0053  0.0202 -0.0679
56914CHOL    R492865  18.389  33.940  13.292 -0.0067  0.0347 -0.0350
56914CHOL    R592866  18.355  33.731  13.344  0.0313  0.0061 -0.1250
56914CHOL    C192867  18.322  33.711  12.964  0.1132  0.1491 -0.1400
56914CHOL    C292868  18.266  34.061  12.772 -0.2685  0.2747  0.2484
56915CHOL   ROH92869  22.716   6.557  13.770 -0.1292 -0.1537 -0.2035
56915CHOL    R192870  22.476   6.578  13.622 -0.1534  0.1055 -0.1302
56915CHOL    R292871  22.453   6.487  13.362 -0.2391  0.4208 -0.2374
56915CHOL    R392872  22.241   6.349  13.464 -0.2639  0.3718 -0.3552
56915CHOL    R492873  22.230   6.300  13.175 -0.0664  0.3309 -0.3536
56915CHOL    R592874  22.069   6.376  13.300 -0.1678  0.2987 -0.4673
56915CHOL    C192875  21.903   6.061  13.162  0.0110  0.2326 -0.5317
56915CHOL    C292876  21.566   6.134  13.128 -0.0311  0.1970 -0.1457
56916CHOL   ROH92877   9.535  11.170  15.620  0.1634  0.0658  0.0567
56916CHOL    R192878   9.309  11.224  15.782  0.1627 -0.0590  0.0970
56916CHOL    R292879   9.263  11.471  15.896  0.0453 -0.0842  0.1022
56916CHOL    R392880   9.023  11.449  15.771  0.0335 -0.2192  0.1473
56916CHOL    R492881   8.984  11.661  15.969 -0.0079 -0.1478  0.0661
56916CHOL    R592882   8.862  11.482  15.945  0.0488 -0.2013  0.1593
56916CHOL    C192883   8.596  11.751  15.894 -0.0498 -0.3115  0.0874
56916CHOL    C292884   8.274  11.697  16.064 -0.1098 -0.1501  0.1924
56917CHOL   ROH92885  34.670   8.152   7.261 -0.0477  0.3271 -0.1935
56917CHOL    R192886  34.894   8.242   7.409 -0.0511  0.0989 -0.0464
56917CHOL    R292887  34.946   8.510   7.450  0.2170  0.0481 -0.0471
56917CHOL    R392888  34.950   8.436   7.711 -0.0526  0.0788 -0.0336
56917CHOL    R492889  35.107   8.683   7.702  0.2934 -0.1378  0.0329
56917CHOL    R592890  35.170   8.492   7.786 -0.0225 -0.2135  0.1009
56917CHOL    C192891  35.204   8.714   8.095  0.0844 -0.2175  0.0924
56917CHOL    C292892   0.152   8.596   8.264  0.1224 -0.1694 -0.1867
56918CHOL   ROH92893  17.625  15.571  17.116  0.2650  0.1648  0.0308
56918CHOL    R192894  17.490  15.536  16.870  0.3431 -0.1137  0.0256
56918CHOL    R292895  17.285  15.702  16.788  0.0145 -0.5215  0.0093
56918CHOL    R392896  17.440  15.731  16.566 -0.0293 -0.2231  0.0151
56918CHOL    R492897  17.173  15.821  16.483 -0.1545 -0.5441  0.0616
56918CHOL    R592898  17.296  15.669  16.385  0.0458 -0.3413 -0.0053
56918CHOL    C192899  17.253  15.917  16.097 -0.2940 -0.2772  0.0974
56918CHOL    C292900  17.367  15.871  15.678 -0.0163 -0.0029 -0.0134
56919CHOL   ROH92901  25.251  11.068   8.283  0.1672 -0.0357 -0.1954
56919CHOL    R192902  24.972  11.069   8.237  0.1329  0.0091  0.0054
56919CHOL    R292903  24.863  11.060   7.983 -0.0517  0.1780  0.0756
56919CHOL    R392904  24.730  10.845   8.083  0.0114  0.1201  0.0354
56919CHOL    R492905  24.549  10.958   7.881 -0.0483  0.1411  0.1023
56919CHOL    R592906  24.501  10.915   8.089 -0.0019  0.0690  0.0974
56919CHOL    C192907  24.241  10.697   7.915  0.0131  0.0656  0.0801
56919CHOL    C292908  23.912  10.554   7.837  0.2355 -0.0828 -0.0077
56920CHOL   ROH92909   5.292  24.900  18.183  0.2867 -0.2735  0.0444
56920CHOL    R192910   5.475  25.083  18.068  0.0674 -0.0814 -0.0038
56920CHOL    R292911   5.735  25.013  18.005  0.1483  0.2099  0.0002
56920CHOL    R392912   5.666  25.107  17.759  0.0254  0.0755 -0.0177
56920CHOL    R492913   5.959  25.130  17.769  0.0202  0.1919 -0.1307
56920CHOL    R592914   5.818  25.289  17.721 -0.0574  0.1171 -0.1514
56920CHOL    C192915   6.025  25.286  17.401 -0.1697  0.0554 -0.2235
56920CHOL    C292916   6.106  25.415  17.094  0.1119  0.0882 -0.0870
56921CHOL   ROH92917   7.778  13.267  17.213 -0.0396 -0.0332  0.1725
56921CHOL    R192918   7.972  13.127  17.061  0.0134  0.0523  0.1621
56921CHOL    R292919   7.907  12.976  16.839  0.0778  0.0884  0.1196
56921CHOL    R392920   8.093  13.133  16.717  0.0527  0.1637  0.1773
56921CHOL    R492921   8.050  12.910  16.531  0.1265  0.1964  0.1188
56921CHOL    R592922   8.241  12.977  16.611  0.1022  0.2246  0.1558
56921CHOL    C192923   8.308  13.019  16.238  0.1312  0.3299  0.1723
56921CHOL    C292924   8.519  12.953  15.865  0.0001 -0.1484  0.2855
56922CHOL   ROH92925   7.196  24.787  17.037  0.0693  0.0066  0.0492
56922CHOL    R192926   7.015  24.765  17.254 -0.0187  0.1505 -0.0092
56922CHOL    R292927   6.741  24.785  17.222 -0.0221 -0.1504 -0.1767
56922CHOL    R392928   6.741  24.545  17.349  0.1392  0.0304  0.1709
56922CHOL    R492929   6.458  24.619  17.330  0.0898 -0.1694  0.0885
56922CHOL    R592930   6.567  24.563  17.511  0.1427  0.1575  0.1614
56922CHOL    C192931   6.294  24.297  17.514  0.3065 -0.0105  0.5697
56922CHOL    C292932   6.001  24.367  17.616 -0.0072 -0.0237  0.0710
56923CHOL   ROH92933   9.188   7.897  17.973 -0.1485 -0.1026 -0.0197
56923CHOL    R192934   9.346   7.887  17.739 -0.1489 -0.0270 -0.0227
56923CHOL    R292935   9.284   7.724  17.524 -0.1315  0.0193 -0.0624
56923CHOL    R392936   9.298   7.957  17.385 -0.1581  0.0551 -0.0055
56923CHOL    R492937   9.327   7.747  17.182 -0.1524  0.1058 -0.0591
56923CHOL    R592938   9.462   7.915  17.215 -0.1635  0.1091 -0.0254
56923CHOL    C192939   9.365   7.979  16.852 -0.1894  0.1898 -0.0046
56923CHOL    C292940   9.395   8.205  16.495  0.0378 -0.0216  0.0318
56924CHOL   ROH92941   9.300  10.949  17.734  0.0065  0.1855 -0.1113
56924CHOL    R192942   9.446  10.996  17.496 -0.0051  0.1326 -0.1287
56924CHOL    R292943   9.496  10.798  17.311 -0.0036  0.0889 -0.0798
56924CHOL    R392944   9.383  10.976  17.138 -0.0177  0.0400 -0.1216
56924CHOL    R492945   9.552  10.805  16.970  0.1326  0.1192 -0.0578
56924CHOL    R592946   9.557  11.023  16.980  0.0267  0.1232 -0.0509
56924CHOL    C192947   9.479  10.976  16.609  0.1984  0.0908 -0.0838
56924CHOL    C292948   9.867  10.929  16.515  0.0709 -0.0959 -0.3377
56925CHOL   ROH92949  33.721   0.942   8.472 -0.0868 -0.0758  0.1430
56925CHOL    R192950  33.641   0.842   8.724 -0.0034 -0.0438  0.1821
56925CHOL    R292951  33.683   0.980   8.959 -0.1128  0.0807  0.1267
56925CHOL    R392952  33.415   0.945   8.990 -0.0857 -0.1246  0.1451
56925CHOL    R492953  33.509   1.039   9.252 -0.1499  0.0460  0.1122
56925CHOL    R592954  33.391   0.859   9.213 -0.0072 -0.0654  0.1786
56925CHOL    C192955  33.156   1.041   9.452 -0.1451 -0.1670  0.1211
56925CHOL    C292956  33.001   1.196   9.619  0.0955 -0.1805 -0.0285
56926CHOL   ROH92957   9.688  31.411  17.450  0.0867  0.0776 -0.0048
56926CHOL    R192958   9.515  31.493  17.659  0.0694 -0.0397  0.0273
56926CHOL    R292959   9.501  31.360  17.901  0.2212 -0.0364  0.0384
56926CHOL    R392960   9.551  31.607  18.003  0.0569  0.0079  0.0130
56926CHOL    R492961   9.474  31.445  18.235  0.3016 -0.0589  0.0505
56926CHOL    R592962   9.386  31.636  18.174  0.1100 -0.1331  0.0893
56926CHOL    C192963   9.506  31.727  18.525  0.1942 -0.0302  0.0340
56926CHOL    C292964   9.467  32.180  18.662  0.0204 -0.1665  0.0295
56927CHOL   ROH92965   2.742  26.656  17.511 -0.2603 -0.1150 -0.2567
56927CHOL    R192966   2.860  26.571  17.269 -0.2126  0.0298 -0.2855
56927CHOL    R292967   2.826  26.707  17.031 -0.1261  0.2009 -0.2047
56927CHOL    R392968   3.097  26.706  17.028 -0.1259  0.1539 -0.1298
56927CHOL    R492969   3.020  26.783  16.755 -0.0319  0.2192 -0.1328
56927CHOL    R592970   3.154  26.620  16.812 -0.0780  0.1871 -0.1278
56927CHOL    C192971   3.389  26.826  16.592  0.0231  0.1858 -0.0206
56927CHOL    C292972   3.605  27.010  16.340  0.0360 -0.1617 -0.0886
56928CHOL   ROH92973  31.214  21.492   1.975  0.0505 -0.0171  0.0022
56928CHOL    R192974  30.938  21.432   1.989  0.0532 -0.0257  0.0141
56928CHOL    R292975  30.746  21.579   1.855  0.0389 -0.0074  0.0555
56928CHOL    R392976  30.676  21.336   1.755  0.0358  0.0090  0.0192
56928CHOL    R492977  30.429  21.495   1.747  0.0608  0.0454 -0.0488
56928CHOL    R592978  30.455  21.299   1.839  0.0036  0.0362 -0.0521
56928CHOL    C192979  30.178  21.218   1.589  0.0702  0.0915 -0.1437
56928CHOL    C292980  29.900  21.001   1.705 -0.2196 -0.0340 -0.1659
56929CHOL   ROH92981  14.608  22.143  17.468 -0.2243  0.0613  0.1958
56929CHOL    R192982  14.809  21.969  17.564 -0.0862  0.1215  0.0181
56929CHOL    R292983  15.034  22.060  17.697 -0.1792  0.1620  0.1487
56929CHOL    R392984  14.953  21.884  17.888 -0.0518 -0.1285 -0.0621
56929CHOL    R492985  15.236  21.933  17.947 -0.1266  0.1265  0.0881
56929CHOL    R592986  15.142  21.739  17.918  0.0998  0.0484 -0.1472
56929CHOL    C192987  15.278  21.694  18.272  0.0238 -0.1669 -0.1448
56929CHOL    C292988  15.331  21.446  18.613  0.1285  0.1215  0.4594
56930CHOL   ROH92989  11.004  16.214  17.683 -0.0976  0.1047 -0.0207
56930CHOL    R192990  10.961  16.369  17.450 -0.0270  0.1017 -0.0359
56930CHOL    R292991  11.169  16.461  17.293  0.0124 -0.0730 -0.0865
56930CHOL    R392992  11.031  16.336  17.095 -0.1149 -0.0025 -0.0440
56930CHOL    R492993  11.223  16.508  16.955 -0.1965  0.0401 -0.1051
56930CHOL    R592994  11.007  16.502  16.924 -0.2164  0.0568  0.0273
56930CHOL    C192995  11.125  16.417  16.572 -0.4375  0.1726 -0.0758
56930CHOL    C292996  11.287  16.746  16.456 -0.4704 -0.1797  0.2199
56931CHOL   ROH92997  34.421  19.199   1.570 -0.1651  0.2669 -0.1480
56931CHOL    R192998  34.223  19.376   1.668 -0.2380  0.0778  0.0485
56931CHOL    R292999  34.041  19.303   1.863  0.0791 -0.0705  0.2924
56931CHOL    R393000  34.136  19.524   1.989 -0.0048  0.0662  0.1180
56931CHOL    R493001  33.885  19.461   2.127  0.1770 -0.1101  0.3744
56931CHOL    R593002  33.940  19.653   2.039 -0.0782 -0.0927  0.2469
56931CHOL    C193003  33.883  19.762   2.400  0.1553 -0.0049  0.2583
56931CHOL    C293004  33.701  19.790   2.779  0.1780  0.0415 -0.1543
56932CHOL   ROH93005   5.544   5.334  15.832 -0.0119  0.0684 -0.0342
56932CHOL    R193006   5.406   5.398  15.593 -0.1451 -0.2171 -0.0348
56932CHOL    R293007   5.529   5.517  15.377 -0.4051  0.1257  0.0027
56932CHOL    R393008   5.425   5.304  15.242  0.1169 -0.1022 -0.0525
56932CHOL    R493009   5.515   5.489  15.032 -0.3959  0.2135 -0.0052
56932CHOL    R593010   5.316   5.401  15.053 -0.1744 -0.3126  0.0026
56932CHOL    C193011   5.409   5.273  14.706  0.0995  0.0508 -0.0617
56932CHOL    C293012   5.189   5.230  14.476 -0.1726 -0.1238 -0.2489
56933CHOL   ROH93013  16.693   2.859  16.030 -0.0259  0.0547  0.0446
56933CHOL    R193014  16.601   3.058  15.851  0.0305  0.0124 -0.0319
56933CHOL    R293015  16.749   3.142  15.634  0.0831 -0.0668 -0.0276
56933CHOL    R393016  16.523   3.078  15.496  0.1038 -0.0838 -0.0537
56933CHOL    R493017  16.678   3.247  15.312  0.0139  0.1054  0.0430
56933CHOL    R593018  16.471   3.277  15.373  0.0034 -0.0294  0.0762
56933CHOL    C193019  16.425   3.248  14.995 -0.0073  0.1896  0.0597
56933CHOL    C293020  16.212   3.268  14.657 -0.3066 -0.1974 -0.1087
56934CHOL   ROH93021   8.832  30.970  17.251 -0.1079  0.0158 -0.1276
56934CHOL    R193022   8.678  30.944  17.487 -0.1015 -0.0244 -0.1278
56934CHOL    R293023   8.755  31.055  17.728 -0.0600 -0.1242 -0.0951
56934CHOL    R393024   8.508  31.167  17.719 -0.0323 -0.0582 -0.0433
56934CHOL    R493025   8.584  31.180  18.001 -0.0263 -0.2024 -0.0376
56934CHOL    R593026   8.401  31.093  17.920 -0.0486 -0.1213 -0.0748
56934CHOL    C193027   8.252  31.358  18.151  0.0194 -0.1861  0.0440
56934CHOL    C293028   7.922  31.518  18.368  0.0572 -0.2098 -0.1999
56935CHOL   ROH93029  12.990  18.750  19.822 -0.1591  0.0506  0.0505
56935CHOL    R193030  13.044  18.761  19.544  0.0556  0.0189  0.0900
56935CHOL    R293031  12.893  18.912  19.370  0.0888 -0.1295 -0.0679
56935CHOL    R393032  13.135  19.017  19.302  0.0704  0.0229  0.0994
56935CHOL    R493033  12.955  19.099  19.085  0.1827 -0.1553 -0.0641
56935CHOL    R593034  13.145  18.994  19.064  0.2748 -0.0286  0.1118
56935CHOL    C193035  13.219  19.306  18.857  0.2202 -0.0269  0.0948
56935CHOL    C293036  13.235  19.295  18.576 -0.0717 -0.3084  0.2118
56936CHOL   ROH93037  20.552   2.599  14.013 -0.0034  0.0760  0.1293
56936CHOL    R193038  20.437   2.850  13.951 -0.0572  0.0232  0.0132
56936CHOL    R293039  20.586   3.063  13.856 -0.0591  0.0910  0.1588
56936CHOL    R393040  20.403   3.059  13.656  0.1408  0.0040 -0.0238
56936CHOL    R493041  20.374   3.324  13.778 -0.2678 -0.0948  0.0984
56936CHOL    R593042  20.215   3.179  13.744 -0.0782 -0.2494 -0.1404
56936CHOL    C193043  20.079   3.474  13.544 -0.2022 -0.2848 -0.1081
56936CHOL    C293044  20.136   3.803  13.332 -0.1805 -0.1231  0.4682
56937CHOL   ROH93045   4.475  18.392   6.829 -0.0048 -0.1035  0.0640
56937CHOL    R193046   4.202  18.457   6.798  0.0345  0.0292 -0.0088
56937CHOL    R293047   4.049  18.560   7.004 -0.0112 -0.0453 -0.0038
56937CHOL    R393048   3.997  18.757   6.823  0.1471  0.0966  0.1045
56937CHOL    R493049   3.802  18.799   7.038  0.0645  0.0263  0.0428
56937CHOL    R593050   3.758  18.778   6.825  0.1543  0.1865  0.0082
56937CHOL    C193051   3.609  19.123   6.888  0.2574  0.2014  0.1715
56937CHOL    C293052   3.342  19.124   7.023  0.1555  0.0544 -0.0213
56938CHOL   ROH93053  32.617  31.292   7.882  0.0572  0.0024  0.0411
56938CHOL    R193054  32.558  31.413   8.131 -0.0175 -0.0399  0.0440
56938CHOL    R293055  32.349  31.330   8.292 -0.0004 -0.1368  0.0161
56938CHOL    R393056  32.544  31.308   8.480 -0.0117 -0.0711  0.0350
56938CHOL    R493057  32.308  31.398   8.628 -0.0687 -0.1938  0.0195
56938CHOL    R593058  32.505  31.492   8.628 -0.1095 -0.1055  0.0519
56938CHOL    C193059  32.467  31.418   9.000 -0.1180 -0.1651  0.0393
56938CHOL    C293060  32.289  31.354   9.218  0.0314  0.1304  0.2052
56939CHOL   ROH93061  28.371  12.908   1.077  0.2940  0.1486 -0.0879
56939CHOL    R193062  28.527  12.921   1.313  0.1595  0.0546  0.0063
56939CHOL    R293063  28.471  13.095   1.519  0.0700  0.0046  0.0228
56939CHOL    R393064  28.473  12.868   1.668 -0.0548 -0.0379 -0.0392
56939CHOL    R493065  28.505  13.085   1.863  0.2419 -0.1150  0.0028
56939CHOL    R593066  28.635  12.911   1.840  0.0755 -0.2267 -0.1118
56939CHOL    C193067  28.528  12.866   2.203  0.2245 -0.2246 -0.0671
56939CHOL    C293068  28.454  13.151   2.398  0.2172  0.1279 -0.0555
56940CHOL   ROH93069  15.455  23.406  17.418  0.0807 -0.0112  0.0323
56940CHOL    R193070  15.528  23.412  17.692  0.0982  0.1408  0.0246
56940CHOL    R293071  15.712  23.237  17.800 -0.0915  0.0278  0.1649
56940CHOL    R393072  15.833  23.466  17.883  0.1674 -0.0349 -0.0344
56940CHOL    R493073  15.838  23.291  18.118 -0.0970  0.1873  0.1404
56940CHOL    R593074  15.759  23.494  18.109  0.1494  0.2760 -0.0765
56940CHOL    C193075  16.024  23.538  18.380  0.1434  0.2215 -0.0610
56940CHOL    C293076  16.111  23.542  18.613  0.0905 -0.0996  0.0813
56941CHOL   ROH93077  22.741   0.910  11.818  0.0939  0.0032 -0.2065
56941CHOL    R193078  22.591   0.819  11.596  0.0734  0.0244 -0.2021
56941CHOL    R293079  22.367   0.951  11.503 -0.0357 -0.0603 -0.0646
56941CHOL    R393080  22.502   0.947  11.267 -0.1088  0.1339 -0.1105
56941CHOL    R493081  22.221   0.982  11.191 -0.1745 -0.1716 -0.0105
56941CHOL    R593082  22.357   0.829  11.118 -0.0244 -0.0048 -0.0822
56941CHOL    C193083  22.262   0.996  10.788 -0.3248 -0.0541 -0.0220
56941CHOL    C293084  21.873   0.930  10.679  0.1651  0.0259 -0.5438
56942CHOL   ROH93085  28.925  28.244   4.738 -0.0353  0.0697 -0.1175
56942CHOL    R193086  29.098  28.311   4.952 -0.0854 -0.0055 -0.0532
56942CHOL    R293087  29.142  28.141   5.165 -0.0694 -0.1182 -0.1446
56942CHOL    R393088  29.403  28.175   5.097 -0.0689 -0.0042 -0.0879
56942CHOL    R493089  29.409  28.108   5.383 -0.0843 -0.2335 -0.1433
56942CHOL    R593090  29.501  28.282   5.288 -0.1123 -0.1366  0.0081
56942CHOL    C193091  29.809  28.121   5.445 -0.0921 -0.1930 -0.0892
56942CHOL    C293092  29.705  28.110   5.821  0.1465 -0.3324  0.0899
56943CHOL   ROH93093  18.438  21.836  13.883 -0.2062 -0.2360  0.0743
56943CHOL    R193094  18.555  21.766  14.131 -0.2319 -0.0195  0.1478
56943CHOL    R293095  18.802  21.645  14.150 -0.3295 -0.1991  0.2674
56943CHOL    R393096  18.856  21.854  14.315 -0.1358 -0.0334 -0.0012
56943CHOL    R493097  19.084  21.673  14.348 -0.3424 -0.2487  0.2934
56943CHOL    R593098  18.958  21.754  14.507 -0.2920  0.1068  0.1590
56943CHOL    C193099  19.299  21.886  14.619 -0.1683 -0.1221  0.0563
56943CHOL    C293100  19.401  21.936  14.850  0.1675  0.1365 -0.1537
56944CHOL   ROH93101  10.148  32.193  20.353 -0.1231  0.0214  0.1770
56944CHOL    R193102   9.963  32.263  20.151  0.0403  0.0866  0.0484
56944CHOL    R293103   9.964  32.147  19.901  0.0541 -0.0496  0.1109
56944CHOL    R393104   9.704  32.095  19.959 -0.0241  0.2244  0.0141
56944CHOL    R493105   9.734  32.018  19.677  0.0836 -0.1060  0.1133
56944CHOL    R593106   9.585  32.155  19.760  0.1433  0.1053 -0.1230
56944CHOL    C193107   9.355  31.894  19.602  0.0276  0.1182  0.0234
56944CHOL    C293108   9.169  31.961  19.457  0.1122 -0.1386  0.2939
56945CHOL   ROH93109  20.756  27.969   8.638  0.3080 -0.2008  0.2886
56945CHOL    R193110  20.977  28.072   8.781  0.2365 -0.0063  0.2592
56945CHOL    R293111  21.067  28.332   8.748 -0.0486  0.0995  0.3105
56945CHOL    R393112  21.035  28.343   9.018  0.0130 -0.0125  0.3229
56945CHOL    R493113  21.253  28.530   8.961 -0.1102  0.1375  0.3294
56945CHOL    R593114  21.258  28.365   9.103  0.0233  0.0893  0.2725
56945CHOL    C193115  21.332  28.656   9.338 -0.0886  0.0539  0.3524
56945CHOL    C293116  21.609  28.707   9.537 -0.0181  0.1573  0.1034
56946CHOL   ROH93117  19.241  25.238  12.844  0.0726 -0.1851 -0.1458
56946CHOL    R193118  19.517  25.261  12.901  0.0614 -0.0874 -0.1308
56946CHOL    R293119  19.634  25.501  12.974 -0.0425 -0.0613 -0.0452
56946CHOL    R393120  19.721  25.357  13.187  0.0131 -0.0986 -0.0926
56946CHOL    R493121  19.917  25.573  13.159 -0.1003  0.0187  0.0127
56946CHOL    R593122  19.960  25.359  13.168  0.0141  0.0374 -0.0668
56946CHOL    C193123  20.163  25.479  13.468 -0.0823  0.0300  0.0021
56946CHOL    C293124  20.237  25.242  13.823 -0.1547  0.0285  0.1952
56947CHOL   ROH93125  29.326  30.853   9.774  0.0722  0.2658  0.2141
56947CHOL    R193126  29.375  30.904   9.500 -0.0814 -0.0561  0.1250
56947CHOL    R293127  29.592  31.052   9.413 -0.2757  0.0654 -0.1534
56947CHOL    R393128  29.640  30.831   9.261 -0.0851 -0.0919  0.1318
56947CHOL    R493129  29.763  31.052   9.113 -0.3208 -0.1646 -0.1805
56947CHOL    R593130  29.619  30.908   9.035 -0.1951 -0.4101  0.0300
56947CHOL    C193131  29.909  30.845   8.796 -0.1683 -0.4464  0.0714
56947CHOL    C293132  30.176  30.908   8.726  0.0700 -0.0860  0.1055
56948CHOL   ROH93133  25.556  23.974   2.557  0.0706  0.0670  0.1782
56948CHOL    R193134  25.717  23.748   2.611  0.0757  0.0530  0.1047
56948CHOL    R293135  25.993  23.759   2.614  0.0745  0.0741  0.1780
56948CHOL    R393136  25.962  23.652   2.862  0.0215 -0.0523  0.1173
56948CHOL    R493137  26.250  23.631   2.807  0.0320 -0.0292  0.1666
56948CHOL    R593138  26.117  23.468   2.867  0.0168 -0.0578  0.0563
56948CHOL    C193139  26.370  23.456   3.152 -0.0428 -0.2082  0.1028
56948CHOL    C293140  26.542  23.375   3.431 -0.1955 -0.1914 -0.0447
56949CHOL   ROH93141  23.358   4.238   8.088  0.0488  0.1303 -0.1504
56949CHOL    R193142  23.472   4.211   8.346 -0.1129  0.2163 -0.0694
56949CHOL    R293143  23.733   4.130   8.386 -0.1993  0.0313  0.1281
56949CHOL    R393144  23.749   4.360   8.530 -0.0911  0.1195 -0.0229
56949CHOL    R493145  23.961   4.189   8.639 -0.1858  0.0826  0.1043
56949CHOL    R593146  23.802   4.288   8.752 -0.1434  0.2389  0.0290
56949CHOL    C193147  24.108   4.440   8.922 -0.0768  0.1952 -0.0513
56949CHOL    C293148  24.300   4.122   9.103 -0.0017  0.1667 -0.0848
56950CHOL   ROH93149  14.683   3.195  15.850  0.0162  0.2226 -0.0298
56950CHOL    R193150  14.693   3.207  15.568  0.1095  0.1805 -0.0288
56950CHOL    R293151  14.536   3.380  15.421  0.1060  0.1087 -0.1107
56950CHOL    R393152  14.775   3.458  15.317  0.1180  0.1658 -0.0407
56950CHOL    R493153  14.576   3.543  15.119  0.1690 -0.0451 -0.1854
56950CHOL    R593154  14.752   3.420  15.081  0.2481  0.0189 -0.0307
56950CHOL    C193155  14.824   3.711  14.845  0.2169 -0.0810 -0.1634
56950CHOL    C293156  14.662   3.623  14.432  0.0365  0.2377  0.1241
56951CHOL   ROH93157   5.426   5.907  13.744  0.1107 -0.0562  0.1723
56951CHOL    R193158   5.167   5.871  13.853  0.0973 -0.1201  0.1211
56951CHOL    R293159   5.024   5.637  13.822  0.1043 -0.1075 -0.0235
56951CHOL    R393160   5.010   5.648  14.093  0.0722 -0.2539 -0.0195
56951CHOL    R493161   4.804   5.454  14.016  0.0191 -0.1425 -0.1533
56951CHOL    R593162   4.777   5.630  14.142  0.0608 -0.2040 -0.0594
56951CHOL    C193163   4.664   5.358  14.384 -0.0608 -0.3005 -0.2247
56951CHOL    C293164   4.492   5.057  14.615 -0.0389  0.1377 -0.0122
56952CHOL   ROH93165  15.532  14.211  14.885  0.0335  0.0850 -0.2176
56952CHOL    R193166  15.575  14.346  15.130 -0.0179  0.0529 -0.1906
56952CHOL    R293167  15.822  14.355  15.254 -0.0737 -0.0808 -0.0669
56952CHOL    R393168  15.780  14.624  15.247  0.0697 -0.0583 -0.0787
56952CHOL    R493169  15.945  14.581  15.485 -0.1507 -0.1632  0.0551
56952CHOL    R593170  15.754  14.686  15.476 -0.0897 -0.0651 -0.0944
56952CHOL    C193171  15.977  14.964  15.613 -0.0609 -0.1900  0.1150
56952CHOL    C293172  16.141  15.169  15.939  0.0720 -0.0021 -0.4060
56953CHOL   ROH93173  32.235   0.683  11.980  0.0970 -0.0849 -0.0476
56953CHOL    R193174  32.278   0.564  11.726  0.2434  0.0618 -0.0924
56953CHOL    R293175  32.094   0.581  11.521  0.2037 -0.1200 -0.0723
56953CHOL    R393176  32.306   0.678  11.382  0.0613  0.2220 -0.0551
56953CHOL    R493177  32.152   0.526  11.185  0.3384 -0.0554 -0.0605
56953CHOL    R593178  32.364   0.502  11.230  0.3738  0.3016 -0.0324
56953CHOL    C193179  32.384   0.585  10.858  0.2822  0.3032 -0.0374
56953CHOL    C293180  32.587   0.558  10.532  0.1306 -0.2717 -0.1486
56954CHOL   ROH93181   0.431   3.390  12.563 -0.2880 -0.0978  0.0508
56954CHOL    R193182   0.415   3.120  12.480 -0.1540 -0.0608 -0.0981
56954CHOL    R293183   0.201   3.021  12.336 -0.1344 -0.1026 -0.0980
56954CHOL    R393184   0.395   2.941  12.163 -0.1328  0.1065 -0.1943
56954CHOL    R493185   0.159   2.784  12.089 -0.0315 -0.0700 -0.1471
56954CHOL    R593186   0.357   2.706  12.136  0.0524  0.0815 -0.2440
56954CHOL    C193187   0.317   2.570  11.782  0.0300  0.1453 -0.2660
56954CHOL    C293188   0.148   2.566  11.359 -0.0391 -0.2990 -0.1786
56955CHOL   ROH93189   0.340  22.312   8.025  0.2116 -0.1502  0.1316
56955CHOL    R193190   0.584  22.414   7.923  0.1601 -0.0980  0.0596
56955CHOL    R293191   0.619  22.475   7.656  0.0642 -0.0759  0.0505
56955CHOL    R393192   0.693  22.717   7.754  0.0482 -0.0682  0.0413
56955CHOL    R493193   0.798  22.713   7.480  0.0076 -0.0509  0.0274
56955CHOL    R593194   0.911  22.755   7.662  0.0287 -0.0385  0.0097
56955CHOL    C193195   0.971  23.080   7.470 -0.0404 -0.0286  0.0053
56955CHOL    C293196   1.207  23.297   7.409 -0.1440 -0.2388  0.1001
56956CHOL   ROH93197  16.042  10.514  14.910  0.0386 -0.3282 -0.2189
56956CHOL    R193198  16.236  10.565  15.111  0.0166 -0.2147 -0.2266
56956CHOL    R293199  16.168  10.607  15.375 -0.0054 -0.1601 -0.2400
56956CHOL    R393200  16.346  10.406  15.419  0.0525 -0.0958 -0.1779
56956CHOL    R493201  16.368  10.578  15.656 -0.0280 -0.0428 -0.2110
56956CHOL    R593202  16.531  10.513  15.527  0.0069 -0.0177 -0.1781
56956CHOL    C193203  16.651  10.372  15.860  0.0129  0.0857 -0.1360
56956CHOL    C293204  16.988  10.520  15.991  0.2381  0.2651  0.1085
56957CHOL   ROH93205   8.186  35.202  16.332 -0.0273 -0.1737 -0.0087
56957CHOL    R193206   8.073  35.349  16.546  0.0135 -0.0668 -0.0605
56957CHOL    R293207   7.839  35.272  16.671  0.0343  0.0003  0.0179
56957CHOL    R393208   7.991  35.287  16.896  0.0735  0.1068 -0.0149
56957CHOL    R493209   7.715  35.305  16.992  0.0822 -0.0366  0.0406
56957CHOL    R593210   7.877   0.059  17.035  0.0146  0.0579 -0.0072
56957CHOL    C193211   7.786  35.338  17.390  0.1469  0.0426  0.0225
56957CHOL    C293212   7.586  35.272  17.634  0.4747  0.1283  0.0491
56958CHOL   ROH93213  12.194  35.267  19.360  0.0466 -0.0056 -0.0865
56958CHOL    R193214  12.067  35.228  19.110  0.1197  0.1312 -0.1459
56958CHOL    R293215  12.206  35.223  18.872  0.2210  0.0199 -0.0850
56958CHOL    R393216  12.082  34.983  18.841  0.0105  0.1366 -0.1574
56958CHOL    R493217  12.206  35.035  18.581  0.2778 -0.0160 -0.0624
56958CHOL    R593218  11.997  34.988  18.618  0.1994  0.1930 -0.2287
56958CHOL    C193219  12.090  34.701  18.384  0.1132  0.0729 -0.1162
56958CHOL    C293220  11.792  34.671  18.131  0.1787  0.3025  0.4324
56959CHOL   ROH93221  15.214   6.468  17.369 -0.0570  0.0359  0.0706
56959CHOL    R193222  15.121   6.496  17.103 -0.0545  0.0048  0.0662
56959CHOL    R293223  14.873   6.600  17.043 -0.0679 -0.0333  0.0529
56959CHOL    R393224  15.018   6.770  16.887 -0.0871 -0.0242  0.0453
56959CHOL    R493225  14.740   6.809  16.801 -0.0973 -0.0111  0.0883
56959CHOL    R593226  14.910   6.761  16.673 -0.1174 -0.0045  0.0601
56959CHOL    C193227  14.798   7.089  16.514 -0.1321  0.0105  0.1018
56959CHOL    C293228  14.782   7.528  16.482 -0.0610 -0.1178  0.4004
56960CHOL   ROH93229  15.862  18.058  14.896 -0.1610 -0.0908 -0.3089
56960CHOL    R193230  15.930  17.989  15.161 -0.1331  0.0542 -0.2779
56960CHOL    R293231  15.788  17.803  15.308 -0.1620  0.1867 -0.1356
56960CHOL    R393232  16.032  17.688  15.339 -0.1905  0.1334 -0.1096
56960CHOL    R493233  15.848  17.512  15.484 -0.2245  0.2430 -0.0207
56960CHOL    R593234  16.030  17.602  15.563 -0.1930  0.2264 -0.0745
56960CHOL    C193235  16.111  17.234  15.615 -0.2872  0.2260  0.0705
56960CHOL    C293236  16.071  17.208  15.994  0.2633  0.0304 -0.1924
56961CHOL   ROH93237  15.126  23.976  17.592 -0.1677  0.1125  0.1452
56961CHOL    R193238  15.187  23.947  17.867 -0.0145  0.1099  0.1116
56961CHOL    R293239  15.294  23.715  17.972  0.0223  0.0997  0.0547
56961CHOL    R393240  15.485  23.884  18.067  0.0930  0.0825 -0.0575
56961CHOL    R493241  15.436  23.697  18.287  0.0069  0.2581  0.0710
56961CHOL    R593242  15.428  23.915  18.297  0.1010  0.2678 -0.0799
56961CHOL    C193243  15.697  23.845  18.559  0.0641  0.3342 -0.0249
56961CHOL    C293244  15.904  23.859  18.973  0.2634  0.1065 -0.2783
56962CHOL   ROH93245  10.585  31.556  20.560 -0.0170 -0.0948  0.0722
56962CHOL    R193246  10.604  31.372  20.346  0.1143  0.0584 -0.0490
56962CHOL    R293247  10.382  31.258  20.228  0.2036 -0.2774  0.0999
56962CHOL    R393248  10.493  31.357  20.000 -0.1880  0.0548  0.0467
56962CHOL    R493249  10.272  31.187  19.908  0.2218 -0.5558  0.1541
56962CHOL    R593250  10.480  31.175  19.844  0.2297  0.0261  0.0395
56962CHOL    C193251  10.312  31.239  19.508 -0.1356 -0.4063  0.1352
56962CHOL    C293252  10.259  31.056  19.205 -0.0092  0.0270 -0.0954
56963CHOL   ROH93253  29.939  12.863   0.763  0.2188  0.0671 -0.1057
56963CHOL    R193254  30.117  12.879   0.982  0.2287  0.0070 -0.1091
56963CHOL    R293255  30.031  12.926   1.240  0.2531  0.0777 -0.1142
56963CHOL    R393256  30.170  12.698   1.294  0.1454  0.0178 -0.0886
56963CHOL    R493257  30.091  12.801   1.557  0.6012  0.3431 -0.0714
56963CHOL    R593258  30.293  12.749   1.494  0.4717  0.1175 -0.3100
56963CHOL    C193259  30.255  12.515   1.792  0.7023  0.4411 -0.0224
56963CHOL    C293260  30.230  12.346   2.161 -0.0558  0.0413 -0.0459
56964CHOL   ROH93261  32.737  10.325   6.236  0.1423  0.0938 -0.0408
56964CHOL    R193262  32.836  10.211   5.997  0.0458 -0.0086 -0.0321
56964CHOL    R293263  33.065  10.058   5.988  0.0437 -0.0091 -0.0589
56964CHOL    R393264  32.901   9.876   5.870 -0.0015 -0.0627  0.0850
56964CHOL    R493265  33.162   9.742   5.886  0.1080  0.0924 -0.3168
56964CHOL    R593266  33.040   9.768   5.707 -0.1488  0.0911 -0.1457
56964CHOL    C193267  33.064   9.388   5.716  0.1030  0.1013 -0.3317
56964CHOL    C293268  33.286   9.194   5.912 -0.1298  0.2584 -0.1674
56965CHOL   ROH93269  32.365   5.718   9.955 -0.1617  0.2402  0.1666
56965CHOL    R193270  32.582   5.684   9.777 -0.2129 -0.0461  0.1575
56965CHOL    R293271  32.593   5.478   9.594 -0.6098  0.0780 -0.0107
56965CHOL    R393272  32.630   5.680   9.416 -0.1926  0.1552  0.1572
56965CHOL    R493273  32.809   5.467   9.324 -0.5356 -0.0963  0.0540
56965CHOL    R593274  32.864   5.674   9.366 -0.1827 -0.2214  0.2328
56965CHOL    C193275  32.969   5.651   9.000 -0.1013 -0.1255  0.2498
56965CHOL    C293276  33.297   5.565   8.871 -0.1264 -0.0352 -0.1472
56966CHOL   ROH93277  22.575   9.174  14.304  0.2153 -0.4754  0.0793
56966CHOL    R193278  22.424   9.297  14.098  0.0944 -0.2199  0.3169
56966CHOL    R293279  22.436   9.214  13.835  0.1960  0.3156  0.1446
56966CHOL    R393280  22.166   9.196  13.863  0.2120 -0.0251  0.1029
56966CHOL    R493281  22.214   9.162  13.575  0.2789  0.3210  0.0730
56966CHOL    R593282  22.079   9.306  13.669  0.1022  0.0715  0.2068
56966CHOL    C193283  21.832   9.116  13.450  0.3415  0.0043 -0.0081
56966CHOL    C293284  21.955   9.033  13.048  0.1598  0.1101  0.1077
56967CHOL   ROH93285  13.103  35.283  18.928  0.2332 -0.0207  0.0357
56967CHOL    R193286  13.125  35.161  18.673  0.0788 -0.0385  0.0311
56967CHOL    R293287  13.267  34.928  18.632 -0.0294 -0.0972 -0.0202
56967CHOL    R393288  13.033  34.842  18.524 -0.1088 -0.0094  0.0818
56967CHOL    R493289  13.212  34.611  18.505 -0.1579 -0.0320 -0.1278
56967CHOL    R593290  13.099  34.701  18.342 -0.2408  0.0595 -0.0210
56967CHOL    C193291  12.961  34.346  18.330 -0.3077  0.0877 -0.0945
56967CHOL    C293292  12.885  34.064  18.167 -0.2189  0.1745 -0.0573
56968CHOL   ROH93293  20.892  12.025  14.516  0.0393  0.0064 -0.0298
56968CHOL    R193294  20.634  11.929  14.453 -0.0940  0.1628  0.2660
56968CHOL    R293295  20.407  12.086  14.476  0.1091  0.5345 -0.1464
56968CHOL    R393296  20.370  12.015  14.216 -0.0009 -0.1503  0.0461
56968CHOL    R493297  20.103  12.089  14.312  0.1331  0.6820 -0.1883
56968CHOL    R593298  20.159  11.902  14.215 -0.2363  0.2733  0.3574
56968CHOL    C193299  19.891  12.025  13.973  0.0441  0.1252 -0.0321
56968CHOL    C293300  19.499  11.770  13.823  0.2474  0.1149  0.0604
56969CHOL   ROH93301   8.952   1.398  16.128  0.0729 -0.0958  0.0060
56969CHOL    R193302   8.897   1.597  16.322 -0.1470 -0.1724  0.0242
56969CHOL    R293303   8.741   1.548  16.544  0.0763 -0.4257  0.1305
56969CHOL    R393304   8.958   1.643  16.678  0.0025 -0.0399 -0.0184
56969CHOL    R493305   8.738   1.662  16.871  0.1511 -0.6889  0.2237
56969CHOL    R593306   8.872   1.823  16.811 -0.2711 -0.3351  0.2102
56969CHOL    C193307   8.940   1.817  17.186  0.1252 -0.4800  0.1383
56969CHOL    C293308   8.599   1.660  17.354  0.1450  0.0907 -0.3600
56970CHOL   ROH93309  34.516   0.505   9.015  0.1877 -0.0704  0.2008
56970CHOL    R193310  34.301   0.469   9.195  0.0507  0.0491  0.0620
56970CHOL    R293311  34.304   0.278   9.394 -0.2207 -0.0121  0.0084
56970CHOL    R393312  34.250   0.490   9.555 -0.1465 -0.0160  0.0386
56970CHOL    R493313  34.318   0.273   9.739 -0.1987 -0.0605  0.0067
56970CHOL    R593314  34.138   0.395   9.744 -0.1625 -0.0067  0.0342
56970CHOL    C193315  34.277   0.470  10.091 -0.1163 -0.0924  0.0344
56970CHOL    C293316  34.192   0.477  10.420 -0.2334  0.1102 -0.1480
56971CHOL   ROH93317  18.373   8.760  13.520  0.0052  0.4754  0.0588
56971CHOL    R193318  18.467   8.592  13.728  0.2985  0.3333 -0.1842
56971CHOL    R293319  18.720   8.618  13.837  0.2305  0.6680 -0.0995
56971CHOL    R393320  18.582   8.635  14.070  0.1460  0.0293 -0.0935
56971CHOL    R493321  18.861   8.684  14.145  0.0193  0.6415  0.0042
56971CHOL    R593322  18.727   8.536  14.233  0.3740  0.1892 -0.1977
56971CHOL    C193323  18.814   8.739  14.544 -0.1840  0.0266  0.0701
56971CHOL    C293324  19.077   8.560  14.705  0.2066 -0.0950 -0.1724
56972CHOL   ROH93325  18.393  20.601  18.491  0.0699 -0.0487 -0.0564
56972CHOL    R193326  18.171  20.652  18.324  0.1032 -0.2316 -0.1575
56972CHOL    R293327  18.122  20.900  18.213 -0.2094 -0.1954  0.0580
56972CHOL    R393328  18.118  20.760  17.980  0.1714  0.0276 -0.0880
56972CHOL    R493329  17.989  21.015  17.915 -0.3954 -0.1911  0.1417
56972CHOL    R593330  17.908  20.816  17.880  0.0641 -0.3479 -0.0816
56972CHOL    C193331  17.908  20.950  17.523 -0.1468  0.0208  0.0538
56972CHOL    C293332  17.750  21.091  17.167 -0.0363 -0.0533 -0.0704
56973CHOL   ROH93333  20.088  20.353  16.097  0.1355  0.1254 -0.0930
56973CHOL    R193334  19.903  20.159  16.006  0.2234  0.1017 -0.2222
56973CHOL    R293335  19.696  20.067  16.163  0.3644 -0.2212 -0.2223
56973CHOL    R393336  19.544  20.143  15.950  0.2061 -0.0804 -0.0606
56973CHOL    R493337  19.385  19.936  16.086  0.3447 -0.2316 -0.1261
56973CHOL    R593338  19.441  19.939  15.875  0.2054 -0.0433 -0.1620
56973CHOL    C193339  19.061  19.932  15.841  0.1847 -0.1057  0.0822
56973CHOL    C293340  18.716  19.768  15.678  0.0741  0.1494 -0.1179
56974CHOL   ROH93341  32.361  21.338   4.111 -0.1837  0.1257  0.0589
56974CHOL    R193342  32.426  21.303   3.837 -0.1663  0.1274  0.0627
56974CHOL    R293343  32.498  21.513   3.673 -0.0782  0.1177  0.0882
56974CHOL    R393344  32.716  21.358   3.625 -0.1248  0.0481  0.0989
56974CHOL    R493345  32.731  21.572   3.425 -0.0809  0.0076  0.0594
56974CHOL    R593346  32.736  21.357   3.386 -0.1431 -0.0006  0.0975
56974CHOL    C193347  33.071  21.460   3.234 -0.1261 -0.1214  0.0527
56974CHOL    C293348  33.334  21.461   3.177  0.2023 -0.0232  0.0900
56975CHOL   ROH93349   3.315   9.742   8.250 -0.2528  0.1438 -0.3015
56975CHOL    R193350   3.235   9.895   8.474 -0.1580  0.0733 -0.2191
56975CHOL    R293351   3.004  10.047   8.476 -0.2110 -0.0092 -0.0362
56975CHOL    R393352   2.951   9.904   8.701 -0.0097 -0.0705 -0.0270
56975CHOL    R493353   2.846  10.172   8.757 -0.4831 -0.2390 -0.0843
56975CHOL    R593354   2.987  10.060   8.880 -0.3112  0.0181 -0.0414
56975CHOL    C193355   2.705  10.111   9.132 -0.4526 -0.4303 -0.1037
56975CHOL    C293356   2.608  10.262   9.409  0.1231  0.0256 -0.2218
56976CHOL   ROH93357  25.415  20.193   5.964  0.0124  0.0200 -0.1010
56976CHOL    R193358  25.174  20.173   5.816  0.0084  0.0414 -0.0969
56976CHOL    R293359  24.949  20.320   5.877  0.0132  0.0384 -0.0744
56976CHOL    R393360  24.967  20.395   5.616  0.0070  0.0678 -0.0665
56976CHOL    R493361  24.736  20.542   5.720  0.0088  0.0557 -0.0441
56976CHOL    R593362  24.740  20.414   5.544  0.0050  0.0751 -0.0587
56976CHOL    C193363  24.628  20.742   5.384  0.0002  0.0931 -0.0190
56976CHOL    C293364  24.384  20.895   5.461  0.2739  0.2151 -0.0210
56977CHOL   ROH93365  26.728  32.230   9.604  0.2253  0.0998 -0.0228
56977CHOL    R193366  26.651  32.346   9.357  0.1188  0.0683 -0.0044
56977CHOL    R293367  26.812  32.522   9.219  0.0929 -0.0123 -0.1357
56977CHOL    R393368  26.775  32.346   9.015 -0.0785 -0.0452 -0.0775
56977CHOL    R493369  26.813  32.606   8.883 -0.1757 -0.0648 -0.1510
56977CHOL    R593370  26.646  32.468   8.854 -0.2064 -0.0660  0.0067
56977CHOL    C193371  26.779  32.489   8.497 -0.4927 -0.1269 -0.1050
56977CHOL    C293372  26.782  32.904   8.350 -0.1884 -0.1573  0.2866
56978CHOL   ROH93373  15.820   6.270  16.359  0.0642 -0.1449 -0.0847
56978CHOL    R193374  15.875   6.406  16.117  0.0338  0.0004 -0.0107
56978CHOL    R293375  15.953   6.671  16.110 -0.0361  0.0258  0.1333
56978CHOL    R393376  16.162   6.572  15.966 -0.0065  0.1579  0.0844
56978CHOL    R493377  16.208   6.861  15.974 -0.0500  0.1594  0.2940
56978CHOL    R593378  16.200   6.736  15.796 -0.0132  0.2841  0.2044
56978CHOL    C193379  16.552   6.879  15.761 -0.0307  0.3613  0.3415
56978CHOL    C293380  16.536   7.245  15.914  0.2571  0.0004 -0.1720
56979CHOL   ROH93381  16.588  25.640  20.412 -0.2534 -0.1908  0.1781
56979CHOL    R193382  16.481  25.683  20.154  0.0008  0.0046  0.1022
56979CHOL    R293383  16.210  25.667  20.101  0.0723 -0.1781 -0.2214
56979CHOL    R393384  16.247  25.916  20.000 -0.0327 -0.0279  0.1035
56979CHOL    R493385  15.970  25.849  19.932  0.0716 -0.1600 -0.2007
56979CHOL    R593386  16.125  25.916  19.794  0.1352  0.1217  0.0019
56979CHOL    C193387  15.865  26.189  19.739 -0.0273 -0.0085  0.1158
56979CHOL    C293388  15.569  26.069  19.535 -0.0802  0.0863  0.0573
56980CHOL   ROH93389  30.808   5.755   8.940  0.0311  0.0655  0.0055
56980CHOL    R193390  30.970   5.599   8.769  0.0654  0.0897  0.0160
56980CHOL    R293391  30.865   5.418   8.589  0.1019  0.1119 -0.0277
56980CHOL    R393392  31.013   5.558   8.409  0.1342  0.1369  0.0186
56980CHOL    R493393  30.957   5.303   8.276  0.4383  0.0259  0.1010
56980CHOL    R593394  31.153   5.394   8.306  0.3447  0.1935  0.2110
56980CHOL    C193395  31.150   5.369   7.926  0.6646 -0.0006  0.2194
56980CHOL    C293396  31.327   5.606   7.649  0.0458  0.0892  0.0242
56981CHOL   ROH93397  23.791  30.288   9.840  0.1585 -0.0291  0.0550
56981CHOL    R193398  23.674  30.140   9.630 -0.0210 -0.0120  0.1420
56981CHOL    R293399  23.614  30.253   9.385 -0.0059 -0.0511  0.1209
56981CHOL    R393400  23.764  30.047   9.289 -0.1953 -0.2034  0.1468
56981CHOL    R493401  23.634  30.160   9.052  0.2039  0.1318  0.0818
56981CHOL    R593402  23.630  29.952   9.115 -0.1537  0.0938 -0.0517
56981CHOL    C193403  23.787  29.914   8.769  0.1484  0.0953  0.0834
56981CHOL    C293404  23.674  29.901   8.363 -0.2075 -0.0735 -0.3326
56982CHOL   ROH93405   1.302  27.845  10.394 -0.0658  0.3290 -0.3149
56982CHOL    R193406   1.037  27.939  10.425 -0.1191  0.1541 -0.2359
56982CHOL    R293407   0.849  27.806  10.578 -0.0049 -0.0041 -0.2313
56982CHOL    R393408   0.825  28.047  10.701 -0.1304 -0.0506 -0.1643
56982CHOL    R493409   0.554  27.935  10.703 -0.0741 -0.1869 -0.2047
56982CHOL    R593410   0.613  28.131  10.628 -0.1699 -0.1362 -0.1472
56982CHOL    C193411   0.360  28.236  10.893 -0.2322 -0.3370 -0.1264
56982CHOL    C293412   0.001  28.447  10.617  0.1557 -0.1856  0.3103
56983CHOL   ROH93413  11.514  12.153  18.112 -0.0575 -0.2137 -0.0396
56983CHOL    R193414  11.399  12.101  17.859  0.0719 -0.1600 -0.1102
56983CHOL    R293415  11.550  12.063  17.631  0.1949 -0.2401 -0.0175
56983CHOL    R393416  11.409  11.831  17.614  0.0886 -0.1699 -0.0986
56983CHOL    R493417  11.571  11.837  17.370  0.1035 -0.1710 -0.0847
56983CHOL    R593418  11.355  11.811  17.382  0.0923 -0.0745 -0.1062
56983CHOL    C193419  11.450  11.488  17.203 -0.0497 -0.0647 -0.1999
56983CHOL    C293420  11.306  11.360  16.934 -0.2483  0.1655  0.2066
56984CHOL   ROH93421   8.130  26.781  17.855 -0.1352  0.0300 -0.0553
56984CHOL    R193422   8.030  26.923  18.078 -0.0723  0.0515 -0.0404
56984CHOL    R293423   7.772  26.891  18.171 -0.0724  0.1241 -0.0168
56984CHOL    R393424   7.897  26.839  18.407 -0.0653  0.0790 -0.0306
56984CHOL    R493425   7.611  26.818  18.469 -0.0639  0.0645 -0.0267
56984CHOL    R593426   7.758  26.942  18.572 -0.0618  0.0458 -0.0067
56984CHOL    C193427   7.635  26.727  18.863 -0.0522 -0.0121 -0.0455
56984CHOL    C293428   7.357  26.871  19.163  0.1781 -0.0200  0.1187
56985CHOL   ROH93429  22.125  17.048  11.946 -0.1110 -0.0670 -0.1294
56985CHOL    R193430  21.961  17.152  11.740 -0.2415  0.0628  0.0377
56985CHOL    R293431  21.762  17.337  11.787  0.0909  0.3836  0.2152
56985CHOL    R393432  21.893  17.480  11.597  0.0452  0.0900 -0.0394
56985CHOL    R493433  21.646  17.631  11.646  0.2504  0.3868  0.0900
56985CHOL    R593434  21.719  17.560  11.453 -0.0196  0.1495  0.0719
56985CHOL    C193435  21.702  17.935  11.385  0.3001  0.1130 -0.2218
56985CHOL    C293436  21.280  18.014  11.460  0.4049  0.1056 -0.0854
56986CHOL   ROH93437  17.724   3.730  12.307 -0.0881 -0.1845 -0.0489
56986CHOL    R193438  17.875   3.559  12.475 -0.0051 -0.1377 -0.0762
56986CHOL    R293439  18.138   3.494  12.423  0.0377  0.0295 -0.0667
56986CHOL    R393440  18.177   3.586  12.676 -0.0399 -0.0106 -0.0396
56986CHOL    R493441  18.385   3.383  12.638  0.1156  0.1539 -0.0913
56986CHOL    R593442  18.241   3.392  12.801  0.1022  0.0004 -0.0921
56986CHOL    C193443  18.566   3.406  13.000  0.0878  0.1889 -0.0802
56986CHOL    C293444  18.537   3.281  13.312  0.1594 -0.0547 -0.0667
56987CHOL   ROH93445   7.052  20.408  11.751  0.1261 -0.0085 -0.2930
56987CHOL    R193446   6.799  20.303  11.820  0.2402 -0.1135 -0.0262
56987CHOL    R293447   6.592  20.281  11.638 -0.0586  0.1385  0.2730
56987CHOL    R393448   6.592  20.021  11.718  0.0861  0.0223 -0.0915
56987CHOL    R493449   6.318  20.071  11.626 -0.1217  0.2007  0.5965
56987CHOL    R593450   6.378  19.991  11.820  0.3076 -0.0847  0.3551
56987CHOL    C193451   6.158  19.705  11.695 -0.0227  0.1275  0.4427
56987CHOL    C293452   6.066  19.493  11.334  0.0893 -0.0857  0.1375
56988CHOL   ROH93453  15.304   7.079  14.178 -0.0660  0.0344 -0.0691
56988CHOL    R193454  15.541   7.078  14.332 -0.0359 -0.0153 -0.1163
56988CHOL    R293455  15.542   7.117  14.605  0.0203 -0.0782 -0.1081
56988CHOL    R393456  15.678   6.882  14.607  0.0074 -0.0865 -0.1878
56988CHOL    R493457  15.663   6.960  14.889 -0.0798 -0.2320 -0.1496
56988CHOL    R593458  15.843   6.909  14.778 -0.0459 -0.1834 -0.1190
56988CHOL    C193459  15.860   6.648  15.055 -0.1506 -0.3293 -0.2486
56988CHOL    C293460  16.110   6.461  15.407  0.1536  0.0368  0.1455
56989CHOL   ROH93461  21.694  22.315  15.284 -0.0910  0.0405 -0.0057
56989CHOL    R193462  21.494  22.189  15.128 -0.0793  0.0441 -0.0234
56989CHOL    R293463  21.243  22.298  15.091 -0.0302  0.1124 -0.1533
56989CHOL    R393464  21.304  22.268  14.828  0.0495 -0.0134 -0.1212
56989CHOL    R493465  21.041  22.399  14.829  0.0732  0.0406 -0.2615
56989CHOL    R593466  21.094  22.215  14.724  0.0711 -0.0166 -0.1652
56989CHOL    C193467  20.980  22.429  14.430  0.2084 -0.1199 -0.2943
56989CHOL    C293468  20.659  22.705  14.414 -0.2121 -0.2376 -0.1031
56990CHOL   ROH93469  17.263  18.036  14.256 -0.0107  0.1061  0.2252
56990CHOL    R193470  17.327  17.892  14.491 -0.1659  0.1457  0.2919
56990CHOL    R293471  17.548  17.728  14.510 -0.3797 -0.1403  0.3429
56990CHOL    R393472  17.603  17.880  14.728 -0.1417 -0.0952  0.2541
56990CHOL    R493473  17.817  17.680  14.723 -0.1915 -0.1476  0.1057
56990CHOL    R593474  17.685  17.725  14.891 -0.0267 -0.0738  0.2179
56990CHOL    C193475  18.024  17.796  15.051  0.1418 -0.1105 -0.1158
56990CHOL    C293476  18.140  17.453  15.090 -0.0182 -0.2983  0.2519
56991CHOL   ROH93477  24.563  25.443   4.250 -0.0769  0.3159  0.0227
56991CHOL    R193478  24.679  25.462   4.507 -0.2720  0.1148  0.1276
56991CHOL    R293479  24.599  25.303   4.719 -0.0936 -0.4069 -0.1840
56991CHOL    R393480  24.864  25.241   4.731  0.0269  0.0956 -0.1349
56991CHOL    R493481  24.757  25.164   4.993  0.1022 -0.2134 -0.1975
56991CHOL    R593482  24.927  25.296   4.955 -0.1379  0.1293 -0.0975
56991CHOL    C193483  25.098  25.025   5.164  0.3295  0.3708 -0.1592
56991CHOL    C293484  24.875  25.013   5.533 -0.0252 -0.0450 -0.5206
56992CHOL   ROH93485  33.522  24.109   1.963  0.1915  0.0099 -0.0608
56992CHOL    R193486  33.407  24.238   2.187  0.2865  0.0999 -0.0640
56992CHOL    R293487  33.224  24.113   2.353 -0.0392  0.3380 -0.2371
56992CHOL    R393488  33.401  24.186   2.548 -0.0221 -0.0757 -0.0936
56992CHOL    R493489  33.143  24.161   2.686 -0.1507  0.3138 -0.2608
56992CHOL    R593490  33.276  24.334   2.688  0.1595  0.0763 -0.0934
56992CHOL    C193491  33.261  24.257   3.062 -0.2009 -0.0890 -0.1399
56992CHOL    C293492  33.247  24.188   3.391  0.1190 -0.1896  0.0576
56993CHOL   ROH93493  20.909  27.336  14.046  0.0017 -0.2506  0.0173
56993CHOL    R193494  20.762  27.107  13.967  0.0452 -0.2287 -0.1283
56993CHOL    R293495  20.487  27.091  13.993  0.0688 -0.3661  0.0310
56993CHOL    R393496  20.499  27.031  13.728 -0.0767 -0.0848 -0.0408
56993CHOL    R493497  20.222  26.974  13.805 -0.0336 -0.1760  0.0551
56993CHOL    R593498  20.359  26.838  13.704 -0.0839 -0.0666 -0.1668
56993CHOL    C193499  20.078  26.849  13.447 -0.2299  0.1984  0.0017
56993CHOL    C293500  19.775  26.990  13.296 -0.4312 -0.0284  0.1954
56994CHOL   ROH93501  22.206   2.184  12.693  0.0619  0.0129 -0.0276
56994CHOL    R193502  22.040   2.203  12.465 -0.0139  0.0890  0.0332
56994CHOL    R293503  21.861   2.410  12.427  0.0483  0.1572  0.1118
56994CHOL    R393504  21.993   2.439  12.192 -0.0262  0.1249  0.0661
56994CHOL    R493505  21.716   2.517  12.132 -0.0700  0.0140  0.1175
56994CHOL    R593506  21.835   2.368  12.026 -0.0490  0.0184  0.1327
56994CHOL    C193507  21.756   2.606  11.739 -0.2090 -0.0997  0.0778
56994CHOL    C293508  21.492   2.785  11.818 -0.1449  0.1132  0.0262
56995CHOL   ROH93509  32.415  24.158   5.526 -0.1421  0.0768 -0.2079
56995CHOL    R193510  32.625  24.322   5.431 -0.0168 -0.1127 -0.2603
56995CHOL    R293511  32.735  24.293   5.180 -0.2429 -0.0813 -0.3656
56995CHOL    R393512  32.675  24.557   5.158  0.0533  0.0070 -0.1452
56995CHOL    R493513  32.867  24.506   4.942  0.0061 -0.0244 -0.1778
56995CHOL    R593514  32.883  24.660   5.096  0.1713 -0.1707 -0.0466
56995CHOL    C193515  32.888  24.878   4.783  0.4295  0.0919  0.1385
56995CHOL    C293516  32.985  24.981   4.461  0.1116  0.1166  0.1757
56996CHOL   ROH93517  21.739   8.669  13.946 -0.0837  0.0300  0.0836
56996CHOL    R193518  21.705   8.739  13.674 -0.0595  0.2261  0.1305
56996CHOL    R293519  21.502   8.636  13.518  0.2065  0.0098 -0.0775
56996CHOL    R393520  21.446   8.898  13.472 -0.2338 -0.0403  0.1420
56996CHOL    R493521  21.322   8.756  13.248  0.2993 -0.0397 -0.1614
56996CHOL    R593522  21.463   8.922  13.234  0.0063  0.2449  0.1843
56996CHOL    C193523  21.166   9.072  13.048 -0.0605 -0.1158 -0.0040
56996CHOL    C293524  20.794   9.297  13.046  0.1276  0.0465 -0.2462
56997CHOL   ROH93525  15.432   1.422  16.365 -0.0082 -0.0506 -0.0573
56997CHOL    R193526  15.274   1.321  16.152  0.1466 -0.1101 -0.1448
56997CHOL    R293527  15.063   1.462  16.044 -0.0220 -0.3055 -0.0754
56997CHOL    R393528  15.197   1.420  15.811  0.0638  0.0219 -0.0879
56997CHOL    R493529  14.914   1.433  15.733  0.0774 -0.0567 -0.1472
56997CHOL    R593530  15.054   1.272  15.687  0.1812  0.0733 -0.2845
56997CHOL    C193531  14.953   1.376  15.334  0.2156  0.3955 -0.2013
56997CHOL    C293532  14.884   1.233  14.978 -0.0375 -0.5065 -0.2299
56998CHOL   ROH93533  32.316  27.128   4.446 -0.0283 -0.1164 -0.1513
56998CHOL    R193534  32.234  26.966   4.663 -0.1274 -0.0204 -0.1170
56998CHOL    R293535  31.977  26.865   4.684 -0.1044 -0.1105 -0.2522
56998CHOL    R393536  32.108  26.627   4.708 -0.0254 -0.0447 -0.0122
56998CHOL    R493537  31.856  26.588   4.853 -0.1444 -0.0763 -0.2249
56998CHOL    R593538  32.057  26.553   4.930 -0.1991  0.0462 -0.0209
56998CHOL    C193539  31.908  26.205   4.973 -0.0934  0.0051  0.0162
56998CHOL    C293540  32.026  25.820   5.046 -0.4684 -0.1190 -0.0365
56999CHOL   ROH93541  23.347  17.673   2.725  0.0257  0.0170  0.2122
56999CHOL    R193542  23.597  17.754   2.831  0.1299 -0.1240  0.0775
56999CHOL    R293543  23.618  17.922   3.049  0.3417  0.1348 -0.1366
56999CHOL    R393544  23.773  17.721   3.148  0.1294  0.0839  0.1001
56999CHOL    R493545  23.898  17.967   3.248  0.4110  0.0727 -0.2204
56999CHOL    R593546  23.997  17.807   3.136  0.2245 -0.1776 -0.0305
56999CHOL    C193547  24.206  17.805   3.455  0.2520 -0.0115 -0.0470
56999CHOL    C293548  24.393  18.030   3.641  0.1781  0.2831  0.0232
57000CHOL   ROH93549  29.448   7.548   7.249 -0.2317 -0.1248 -0.1919
57000CHOL    R193550  29.601   7.362   7.100 -0.2773 -0.1526 -0.2036
57000CHOL    R293551  29.530   7.280   6.846 -0.1451  0.0976 -0.3225
57000CHOL    R393552  29.782   7.360   6.785 -0.0207 -0.0817 -0.0588
57000CHOL    R493553  29.746   7.109   6.638 -0.1837  0.1302 -0.3894
57000CHOL    R593554  29.908   7.157   6.775 -0.2218 -0.2014 -0.2219
57000CHOL    C193555  30.108   7.085   6.458 -0.0895 -0.0190 -0.1809
57000CHOL    C293556  30.417   7.135   6.289  0.0941  0.3614  0.0874
57001CHOL   ROH93557   9.762  21.780  21.027 -0.1491 -0.2294  0.1310
57001CHOL    R193558   9.778  21.926  20.785 -0.2241 -0.1699  0.1617
57001CHOL    R293559   9.753  21.806  20.537 -0.0315 -0.1512  0.1320
57001CHOL    R393560   9.558  21.992  20.502 -0.2093 -0.3393  0.1096
57001CHOL    R493561   9.606  21.883  20.234  0.0259 -0.1972  0.0927
57001CHOL    R593562   9.610  22.093  20.291 -0.2173 -0.2115  0.1690
57001CHOL    C193563   9.337  22.103  20.024 -0.1076 -0.4000  0.0488
57001CHOL    C293564   9.048  22.327  19.832  0.0357  0.0146  0.1087
57002CHOL   ROH93565   3.212  19.133  10.602  0.0945 -0.2919 -0.0617
57002CHOL    R193566   3.427  19.063  10.432  0.1553 -0.1602 -0.0399
57002CHOL    R293567   3.680  19.169  10.462  0.1221 -0.1101  0.0729
57002CHOL    R393568   3.754  18.907  10.470  0.1844 -0.0959 -0.0281
57002CHOL    R493569   3.986  19.046  10.357  0.1860  0.0149  0.1120
57002CHOL    R593570   3.882  18.875  10.271  0.2564  0.0303 -0.0022
57002CHOL    C193571   4.233  18.729  10.304  0.2817  0.1009  0.0402
57002CHOL    C293572   4.205  18.540  10.030  0.0555 -0.0459 -0.1086
57003CHOL   ROH93573   2.134  11.872  11.869  0.0226 -0.1514 -0.0978
57003CHOL    R193574   2.415  11.900  11.852  0.0122 -0.0397 -0.0826
57003CHOL    R293575   2.581  11.690  11.787  0.0962  0.0324 -0.0927
57003CHOL    R393576   2.669  11.861  11.595  0.0406  0.0827 -0.0741
57003CHOL    R493577   2.904  11.698  11.662  0.0587  0.0568 -0.1896
57003CHOL    R593578   2.893  11.916  11.662  0.0638  0.0589 -0.1269
57003CHOL    C193579   3.174  11.864  11.409 -0.0153  0.1184 -0.2286
57003CHOL    C293580   3.423  11.746  11.161  0.4906  0.0741 -0.2373
57004CHOL   ROH93581  21.570   5.374  14.487 -0.2435  0.1117  0.0787
57004CHOL    R193582  21.581   5.308  14.212 -0.3572 -0.2116  0.1495
57004CHOL    R293583  21.364   5.202  14.077 -0.6115  0.1986  0.2224
57004CHOL    R393584  21.408   5.411  13.909 -0.0327 -0.0854  0.0068
57004CHOL    R493585  21.277   5.208  13.742 -0.4768  0.0539  0.1844
57004CHOL    R593586  21.466   5.309  13.700 -0.2092 -0.4570  0.1373
57004CHOL    C193587  21.268   5.408  13.390  0.1449 -0.2968 -0.0402
57004CHOL    C293588  21.091   5.115  13.296  0.1716 -0.1370 -0.0503
57005CHOL   ROH93589  21.913   8.063   9.303  0.0247 -0.0995 -0.1518
57005CHOL    R193590  22.165   8.111   9.425 -0.0158 -0.0341 -0.0937
57005CHOL    R293591  22.207   8.083   9.696 -0.0528 -0.0940 -0.0936
57005CHOL    R393592  22.407   7.919   9.616  0.0264  0.0078 -0.1048
57005CHOL    R493593  22.522   8.073   9.837 -0.1003 -0.0694  0.0153
57005CHOL    R593594  22.605   8.052   9.636 -0.0214  0.0573  0.0342
57005CHOL    C193595  22.894   7.913   9.843 -0.0538  0.0402  0.0680
57005CHOL    C293596  23.217   8.151   9.792  0.0058 -0.0668 -0.2645
57006CHOL   ROH93597  20.792  20.263   9.297 -0.1027 -0.1835  0.0730
57006CHOL    R193598  21.063  20.183   9.295 -0.0723 -0.0799  0.1385
57006CHOL    R293599  21.202  20.122   9.526 -0.1538 -0.1882  0.1570
57006CHOL    R393600  21.253  19.889   9.395 -0.0053 -0.0787  0.0181
57006CHOL    R493601  21.473  19.916   9.588 -0.2777 -0.2899  0.3675
57006CHOL    R593602  21.492  19.885   9.374  0.0296 -0.0975  0.3623
57006CHOL    C193603  21.678  19.578   9.502 -0.2111 -0.2464  0.3596
57006CHOL    C293604  22.047  19.379   9.520 -0.1218  0.0189  0.2826
57007CHOL   ROH93605   1.931   9.806  11.699 -0.0515  0.2612  0.2029
57007CHOL    R193606   2.085   9.790  11.462 -0.0985  0.0852  0.1839
57007CHOL    R293607   2.252   9.994  11.378 -0.1345  0.0346 -0.0147
57007CHOL    R393608   2.439   9.797  11.375 -0.1170  0.0489  0.1058
57007CHOL    R493609   2.508   9.969  11.148 -0.0713 -0.0271  0.0623
57007CHOL    R593610   2.475   9.754  11.142 -0.0515 -0.0318  0.1310
57007CHOL    C193611   2.833   9.769  11.011 -0.0180 -0.0492  0.2202
57007CHOL    C293612   3.020   9.755  10.798  0.0846  0.0136  0.0621
57008CHOL   ROH93613  32.483  11.970   5.427  0.0001 -0.1482  0.0373
57008CHOL    R193614  32.618  11.790   5.256  0.0019 -0.1073 -0.0044
57008CHOL    R293615  32.629  11.825   4.982 -0.0804 -0.0960 -0.0070
57008CHOL    R393616  32.897  11.806   5.022 -0.0645 -0.0259 -0.0787
57008CHOL    R493617  32.858  11.729   4.742 -0.1255 -0.0906 -0.0516
57008CHOL    R593618  32.962  11.614   4.895 -0.0561 -0.0358 -0.0584
57008CHOL    C193619  33.243  11.655   4.640 -0.1364 -0.0217 -0.1449
57008CHOL    C293620  33.559  11.562   4.388  0.2977  0.2124  0.2298
57009CHOL   ROH93621  20.524  12.289  14.822 -0.1187  0.0082 -0.1335
57009CHOL    R193622  20.259  12.387  14.836 -0.1343 -0.0522  0.0043
57009CHOL    R293623  20.055  12.285  14.680 -0.1537  0.0263 -0.0227
57009CHOL    R393624  19.932  12.251  14.919 -0.0878 -0.1774 -0.0172
57009CHOL    R493625  19.713  12.265  14.724 -0.1394 -0.0529  0.0500
57009CHOL    R593626  19.734  12.386  14.904 -0.1095 -0.1913  0.1394
57009CHOL    C193627  19.398  12.220  14.975 -0.0694 -0.2903  0.0973
57009CHOL    C293628  19.057  12.000  15.023  0.2782  0.0126  0.1386
57010CHOL   ROH93629  20.920  21.972  15.988 -0.1054  0.0299 -0.1470
57010CHOL    R193630  20.864  21.839  15.745  0.1244  0.0111 -0.1909
57010CHOL    R293631  21.019  21.630  15.650  0.0707 -0.1636  0.0962
57010CHOL    R393632  20.780  21.500  15.642 -0.0430  0.0584 -0.2101
57010CHOL    R493633  20.949  21.359  15.448  0.0631 -0.0748 -0.0207
57010CHOL    R593634  20.752  21.443  15.411  0.1850  0.1137 -0.2524
57010CHOL    C193635  20.685  21.078  15.322 -0.0482  0.1847 -0.3762
57010CHOL    C293636  20.369  21.220  15.113 -0.1987  0.2724 -0.0835
57011CHOL   ROH93637  11.657   8.437  15.157 -0.1556  0.1283 -0.1070
57011CHOL    R193638  11.700   8.483  15.433 -0.1670  0.2310 -0.1221
57011CHOL    R293639  11.499   8.459  15.621 -0.1103  0.0238 -0.0866
57011CHOL    R393640  11.675   8.290  15.740  0.1135  0.2557 -0.0823
57011CHOL    R493641  11.520   8.403  15.962 -0.0863  0.0058 -0.0911
57011CHOL    R593642  11.737   8.401  15.943 -0.0775  0.3173 -0.0564
57011CHOL    C193643  11.697   8.212  16.272  0.1375  0.2132 -0.0894
57011CHOL    C293644  12.125   8.314  16.307  0.3006 -0.0818  0.0968
57012CHOL   ROH93645  22.876  32.845   7.294  0.0449  0.0127 -0.1378
57012CHOL    R193646  23.106  32.737   7.418  0.0805  0.1404 -0.0911
57012CHOL    R293647  23.242  32.867   7.620 -0.1412  0.1324  0.0642
57012CHOL    R393648  23.202  32.634   7.754  0.0008  0.0082 -0.1086
57012CHOL    R493649  23.462  32.731   7.849 -0.1501  0.2022  0.1141
57012CHOL    R593650  23.419  32.534   7.765  0.0921  0.2117 -0.0381
57012CHOL    C193651  23.554  32.433   8.107 -0.0222  0.1252 -0.0191
57012CHOL    C293652  23.687  32.320   8.545 -0.1023 -0.2363 -0.1660
57013CHOL   ROH93653  33.819  14.884   5.452 -0.1031 -0.0810  0.0455
57013CHOL    R193654  33.987  14.878   5.224 -0.0469  0.0967  0.0809
57013CHOL    R293655  34.256  14.938   5.235  0.0072 -0.1645  0.2432
57013CHOL    R393656  34.283  14.694   5.118 -0.1854 -0.0225 -0.1021
57013CHOL    R493657  34.516  14.847   5.026 -0.0141 -0.1046  0.1908
57013CHOL    R593658  34.371  14.743   4.900 -0.0748  0.2107 -0.0067
57013CHOL    C193659  34.692  14.566   4.793 -0.2075  0.0638 -0.1640
57013CHOL    C293660  34.929  14.820   4.673  0.0061 -0.3454 -0.1594
57014CHOL   ROH93661   0.697   1.926   9.181 -0.3092 -0.0682 -0.1817
57014CHOL    R193662   0.715   2.174   9.315  0.0026 -0.1112 -0.1398
57014CHOL    R293663   0.613   2.408   9.209  0.1771  0.0120 -0.0406
57014CHOL    R393664   0.483   2.421   9.448  0.3099  0.0918  0.0280
57014CHOL    R493665   0.462   2.692   9.337  0.0289 -0.0090 -0.1691
57014CHOL    R593666   0.538   2.638   9.534  0.1906  0.2028 -0.1721
57014CHOL    C193667   0.251   2.869   9.634  0.0672  0.0537 -0.1796
57014CHOL    C293668   0.151   2.956   9.994 -0.1532  0.0431  0.1335
57015CHOL   ROH93669  33.131  25.632   8.749 -0.0762  0.2228  0.0131
57015CHOL    R193670  33.391  25.629   8.638  0.0046  0.1341  0.2018
57015CHOL    R293671  33.438  25.672   8.369  0.1879 -0.1861  0.1812
57015CHOL    R393672  33.606  25.864   8.462  0.0851 -0.0401  0.0658
57015CHOL    R493673  33.630  25.880   8.170 -0.1446 -0.0044  0.0464
57015CHOL    R593674  33.793  25.857   8.313 -0.0179  0.1345 -0.0747
57015CHOL    C193675  33.899  26.181   8.142 -0.4346  0.2387 -0.1403
57015CHOL    C293676  34.290  26.409   8.321 -0.3461 -0.0482 -0.0267
57016CHOL   ROH93677  20.735  13.858  14.331  0.0001  0.3362 -0.2731
57016CHOL    R193678  20.550  13.950  14.138 -0.0961  0.1481 -0.2711
57016CHOL    R293679  20.497  13.811  13.905 -0.0008  0.0646 -0.2424
57016CHOL    R393680  20.240  13.829  13.991 -0.0092 -0.1383 -0.2224
57016CHOL    R493681  20.219  13.794  13.701  0.0164  0.4132 -0.2981
57016CHOL    R593682  20.128  13.953  13.819 -0.0156  0.1765  0.0032
57016CHOL    C193683  19.815  13.801  13.662  0.0188  0.4256 -0.3118
57016CHOL    C293684  19.574  13.594  13.434  0.5079  0.0140  0.2602
57017CHOL   ROH93685   1.366  13.055  10.619 -0.0601  0.0504 -0.0425
57017CHOL    R193686   1.512  12.937  10.408 -0.0165  0.0215  0.0035
57017CHOL    R293687   1.670  13.085  10.235 -0.0942  0.0169 -0.0736
57017CHOL    R393688   1.862  12.909  10.312 -0.0083  0.1417 -0.0018
57017CHOL    R493689   1.946  12.999  10.046 -0.1056 -0.0032 -0.0808
57017CHOL    R593690   1.920  12.793  10.111 -0.0107  0.0302  0.0624
57017CHOL    C193691   2.287  12.784  10.008 -0.0315  0.1022 -0.0175
57017CHOL    C293692   2.672  12.721   9.947 -0.2631 -0.0403  0.2009
57018CHOL   ROH93693  17.142  18.281  17.980  0.2424 -0.0892 -0.1279
57018CHOL    R193694  17.030  18.167  17.747  0.0605 -0.0952 -0.0383
57018CHOL    R293695  16.826  17.981  17.755  0.0490 -0.0766  0.1247
57018CHOL    R393696  16.703  18.157  17.588 -0.0581 -0.0771  0.2031
57018CHOL    R493697  16.592  17.895  17.515  0.0069 -0.0942  0.1720
57018CHOL    R593698  16.685  18.039  17.380 -0.0805 -0.0319  0.1795
57018CHOL    C193699  16.341  18.010  17.219 -0.1186 -0.1047  0.2734
57018CHOL    C293700  16.040  18.023  16.930  0.0642  0.1996  0.1169
57019CHOL   ROH93701   7.007   7.054  17.698  0.0615  0.4061 -0.1828
57019CHOL    R193702   7.220   7.014  17.516  0.0108  0.4047 -0.2419
57019CHOL    R293703   7.241   6.787  17.359  0.1635  0.2340  0.0230
57019CHOL    R393704   7.255   6.967  17.156 -0.1259  0.0047 -0.2057
57019CHOL    R493705   7.450   6.760  17.086  0.0223  0.0988 -0.0723
57019CHOL    R593706   7.488   6.974  17.099 -0.1662  0.1523 -0.3548
57019CHOL    C193707   7.585   6.913  16.735 -0.3320 -0.1951 -0.3430
57019CHOL    C293708   7.794   6.879  16.286 -0.1592 -0.0078 -0.2474
57020CHOL   ROH93709  15.774   2.281  16.347  0.0251 -0.2396 -0.1581
57020CHOL    R193710  15.553   2.303  16.172 -0.0241 -0.0404 -0.0717
57020CHOL    R293711  15.448   2.547  16.094  0.2192  0.0574 -0.0989
57020CHOL    R393712  15.488   2.449  15.844  0.0039 -0.0630 -0.0869
57020CHOL    R493713  15.246   2.613  15.822  0.1364  0.1402 -0.0177
57020CHOL    R593714  15.268   2.405  15.762 -0.0773  0.1013  0.0411
57020CHOL    C193715  15.167   2.559  15.428 -0.1141  0.0754  0.0405
57020CHOL    C293716  14.911   2.382  15.213 -0.2018 -0.1115  0.0239
57021CHOL   ROH93717  11.112  30.054  20.907 -0.3810  0.2224  0.0275
57021CHOL    R193718  10.948  29.892  20.743 -0.2660  0.2100 -0.0769
57021CHOL    R293719  10.896  29.952  20.479 -0.0059  0.1425 -0.1471
57021CHOL    R393720  10.988  29.699  20.437 -0.0214  0.1089  0.0174
57021CHOL    R493721  10.840  29.766  20.193 -0.0450 -0.0563 -0.0114
57021CHOL    R593722  10.811  29.590  20.318 -0.0381  0.0326  0.1139
57021CHOL    C193723  10.894  29.422  19.986 -0.0822 -0.2037  0.2220
57021CHOL    C293724  10.689  29.398  19.708  0.1437 -0.4053 -0.0430
57022CHOL   ROH93725   6.518  25.198  16.215 -0.0086 -0.0628  0.0454
57022CHOL    R193726   6.281  25.278  16.347 -0.0096 -0.0807  0.0536
57022CHOL    R293727   6.048  25.129  16.337  0.0098 -0.1097  0.0813
57022CHOL    R393728   6.066  25.143  16.608  0.0229 -0.0839  0.0795
57022CHOL    R493729   5.785  25.202  16.549 -0.0392 -0.3351  0.1001
57022CHOL    R593730   5.922  25.324  16.669 -0.1345 -0.2083  0.0843
57022CHOL    C193731   5.649  25.257  16.927 -0.0554 -0.4423  0.1092
57022CHOL    C293732   5.539  25.142  17.221 -0.4527 -0.2597  0.1487
57023CHOL   ROH93733  34.943  34.214   9.552  0.0076  0.2046 -0.0950
57023CHOL    R193734  34.788  34.372   9.728 -0.0916  0.1530 -0.1361
57023CHOL    R293735  34.652  34.264   9.943 -0.0752  0.1142 -0.1438
57023CHOL    R393736  34.790  34.452  10.083 -0.1820  0.1944 -0.1449
57023CHOL    R493737  34.563  34.383  10.255 -0.1495  0.0763 -0.1505
57023CHOL    R593738  34.621  34.583  10.190 -0.2560  0.1060 -0.1547
57023CHOL    C193739  34.641  34.628  10.568 -0.2925  0.1295 -0.1555
57023CHOL    C293740  34.496  34.817  10.848  0.0810  0.0477  0.4696
57024CHOL   ROH93741  24.077  12.512   3.972 -0.1481  0.1065  0.2288
57024CHOL    R193742  24.301  12.490   4.144 -0.1001  0.2407  0.1840
57024CHOL    R293743  24.358  12.678   4.338 -0.3977  0.0767  0.4343
57024CHOL    R393744  24.357  12.461   4.502 -0.0329 -0.1516  0.1441
57024CHOL    R493745  24.558  12.641   4.617 -0.2304 -0.0283  0.3019
57024CHOL    R593746  24.587  12.431   4.563  0.0351  0.0800  0.0066
57024CHOL    C193747  24.673  12.416   4.934  0.2089 -0.3039 -0.0477
57024CHOL    C293748  24.871  12.444   5.304  0.2923  0.3365 -0.1404
57025CHOL   ROH93749  28.285  34.554   9.922 -0.0823  0.1566  0.0740
57025CHOL    R193750  28.346  34.481   9.655  0.1057  0.0706  0.1396
57025CHOL    R293751  28.197  34.568   9.439  0.0442 -0.2830  0.0355
57025CHOL    R393752  28.438  34.654   9.348 -0.0492  0.0073  0.0570
57025CHOL    R493753  28.271  34.633   9.108  0.0063 -0.2239  0.0386
57025CHOL    R593754  28.466  34.541   9.139  0.1173  0.0206  0.0721
57025CHOL    C193755  28.540  34.752   8.830 -0.1036  0.0824  0.0604
57025CHOL    C293756  28.545  34.762   8.404  0.1591 -0.0200  0.0856
57026CHOL   ROH93757  12.493   9.632  15.160  0.1194 -0.0597  0.0572
57026CHOL    R193758  12.482   9.566  15.435  0.0876 -0.1322  0.0385
57026CHOL    R293759  12.554   9.743  15.634  0.1797 -0.2248  0.0890
57026CHOL    R393760  12.305   9.687  15.729  0.1514 -0.1257  0.0741
57026CHOL    R493761  12.446   9.809  15.956  0.1726 -0.1431  0.0700
57026CHOL    R593762  12.343   9.617  15.955  0.1064 -0.1073  0.0873
57026CHOL    C193763  12.151   9.795  16.232  0.1422 -0.0020  0.0450
57026CHOL    C293764  12.139   9.801  16.558 -0.1963 -0.0048 -0.1278
57027CHOL   ROH93765   3.373  34.007  17.064 -0.1307 -0.2053 -0.0784
57027CHOL    R193766   3.409  34.020  16.783 -0.0910 -0.0996 -0.0685
57027CHOL    R293767   3.557  34.219  16.661  0.0153 -0.1146  0.0367
57027CHOL    R393768   3.690  34.008  16.552 -0.0687 -0.1280 -0.0400
57027CHOL    R493769   3.797  34.244  16.414  0.2534 -0.0896  0.2686
57027CHOL    R593770   3.713  34.066  16.321  0.1819  0.0671  0.0307
57027CHOL    C193771   4.062  34.061  16.168  0.3131 -0.0869  0.3315
57027CHOL    C293772   4.373  33.922  16.096 -0.0213 -0.0473 -0.2119
57028CHOL   ROH93773   6.080   4.763  12.738  0.0853  0.0539 -0.0023
57028CHOL    R193774   5.927   4.975  12.848  0.0751  0.0590 -0.0261
57028CHOL    R293775   5.656   5.002  12.802  0.0494 -0.0272  0.0698
57028CHOL    R393776   5.644   5.008  13.074  0.1562  0.0766  0.0726
57028CHOL    R493777   5.365   5.029  12.987  0.1168 -0.0298  0.1770
57028CHOL    R593778   5.469   5.164  13.122  0.1359  0.0501  0.0816
57028CHOL    C193779   5.184   5.050  13.349  0.2562  0.0663  0.2419
57028CHOL    C293780   4.947   5.136  13.623 -0.0345  0.0982  0.1338
57029CHOL   ROH93781   1.231  12.503   3.808 -0.0982 -0.0599 -0.1024
57029CHOL    R193782   1.105  12.668   4.001 -0.0812 -0.0008 -0.1419
57029CHOL    R293783   0.840  12.744   3.981 -0.0977 -0.0486 -0.1150
57029CHOL    R393784   0.826  12.640   4.232 -0.0265  0.0499 -0.0695
57029CHOL    R493785   0.630  12.858   4.231 -0.0458  0.0305 -0.1073
57029CHOL    R593786   0.792  12.829   4.374 -0.0088  0.1024 -0.1363
57029CHOL    C193787   0.494  12.826   4.612  0.0511  0.1690 -0.0600
57029CHOL    C293788   0.408  12.931   4.924  0.1382  0.1960 -0.3562
57030CHOL   ROH93789  23.390  16.645  11.552  0.0051  0.3946  0.1202
57030CHOL    R193790  23.195  16.812  11.433  0.0134  0.2216 -0.1402
57030CHOL    R293791  23.176  16.848  11.160  0.0582 -0.1477 -0.1942
57030CHOL    R393792  22.918  16.771  11.200  0.0573 -0.1130 -0.1356
57030CHOL    R493793  22.902  16.985  11.000  0.0414 -0.1183 -0.1390
57030CHOL    R593794  22.793  16.975  11.189  0.0811 -0.0978 -0.1153
57030CHOL    C193795  22.500  16.993  10.945  0.0301 -0.0687 -0.0519
57030CHOL    C293796  22.289  17.306  10.687  0.2088  0.0497 -0.2254
57031CHOL   ROH93797  17.106  18.953  14.707  0.0599  0.1700  0.2009
57031CHOL    R193798  17.173  18.894  14.975  0.0542  0.0074  0.1674
57031CHOL    R293799  17.198  18.636  15.069  0.1103 -0.0492 -0.0023
57031CHOL    R393800  17.443  18.723  15.149  0.0832 -0.0417  0.0733
57031CHOL    R493801  17.378  18.505  15.334  0.0271 -0.0353  0.0613
57031CHOL    R593802  17.437  18.708  15.387  0.0061 -0.0320  0.0718
57031CHOL    C193803  17.712  18.511  15.563 -0.0466 -0.0199  0.1691
57031CHOL    C293804  17.903  18.523  15.896 -0.1774 -0.2367 -0.0275
57032CHOL   ROH93805  24.508   0.243   7.582  0.1947 -0.0964 -0.0638
57032CHOL    R193806  24.629   0.456   7.723  0.2880 -0.0877 -0.1568
57032CHOL    R293807  24.648   0.460   7.999  0.0413  0.1524 -0.1426
57032CHOL    R393808  24.912   0.497   7.948  0.1286 -0.1702  0.0614
57032CHOL    R493809  24.876   0.587   8.225 -0.0284  0.1008 -0.0425
57032CHOL    R593810  24.966   0.701   8.062  0.2394 -0.1292 -0.0602
57032CHOL    C193811  25.257   0.697   8.309  0.0130 -0.2321  0.2072
57032CHOL    C293812  25.474   0.706   8.699 -0.2317  0.1221  0.0325
57033CHOL   ROH93813   9.550   5.454  14.935 -0.0415  0.2147  0.0066
57033CHOL    R193814   9.603   5.552  15.195 -0.2645  0.1376  0.0823
57033CHOL    R293815   9.464   5.465  15.418 -0.1451 -0.2720  0.0030
57033CHOL    R393816   9.713   5.412  15.513 -0.0585  0.1221  0.0042
57033CHOL    R493817   9.555   5.479  15.751 -0.1816 -0.1881  0.0098
57033CHOL    R593818   9.744   5.570  15.690 -0.3284  0.1384  0.0376
57033CHOL    C193819   9.842   5.437  16.034 -0.1216  0.2306  0.0147
57033CHOL    C293820   9.821   5.359  16.362  0.4150  0.1662  0.0297
57034CHOL   ROH93821  23.932  17.374   2.048  0.0367 -0.0505  0.0766
57034CHOL    R193822  24.196  17.473   2.071  0.1137 -0.2266 -0.0405
57034CHOL    R293823  24.266  17.669   2.252  0.2550 -0.0339 -0.3020
57034CHOL    R393824  24.451  17.486   2.330  0.1062 -0.0761 -0.0403
57034CHOL    R493825  24.497  17.717   2.505  0.1509  0.0565 -0.2230
57034CHOL    R593826  24.646  17.616   2.381  0.1572 -0.1442 -0.0563
57034CHOL    C193827  24.805  17.573   2.725 -0.0499  0.0700  0.0686
57034CHOL    C293828  24.920  17.576   3.081  0.0869  0.0388 -0.2910
57035CHOL   ROH93829  19.469  30.729   9.420  0.2254 -0.0178 -0.1767
57035CHOL    R193830  19.634  30.625   9.625  0.1139 -0.0559 -0.1062
57035CHOL    R293831  19.884  30.728   9.682  0.0993 -0.0916  0.0233
57035CHOL    R393832  19.782  30.750   9.933 -0.0194 -0.1012 -0.0233
57035CHOL    R493833  20.067  30.689   9.973  0.0046  0.0902  0.1083
57035CHOL    R593834  19.898  30.581  10.059  0.0374  0.0002  0.0616
57035CHOL    C193835  20.078  30.687  10.378 -0.1624  0.1870  0.1141
57035CHOL    C293836  20.318  30.657  10.618 -0.1520 -0.1602 -0.2075
57036CHOL   ROH93837   7.023   2.665  15.681  0.1770  0.0298 -0.0140
57036CHOL    R193838   6.854   2.598  15.898  0.1544  0.0216 -0.0343
57036CHOL    R293839   6.849   2.742  16.133  0.1515 -0.0052 -0.0182
57036CHOL    R393840   6.583   2.756  16.081  0.1566  0.0275 -0.0358
57036CHOL    R493841   6.608   2.837  16.362  0.1249 -0.1812  0.0277
57036CHOL    R593842   6.479   2.680  16.283  0.1369 -0.1258 -0.1030
57036CHOL    C193843   6.218   2.906  16.446  0.1141 -0.2530  0.0378
57036CHOL    C293844   6.243   2.814  16.835 -0.1123 -0.2459  0.2285
57037CHOL   ROH93845   8.130  26.236  17.538 -0.2937  0.1301 -0.0468
57037CHOL    R193846   8.067  26.356  17.786 -0.1167  0.1421 -0.0065
57037CHOL    R293847   7.807  26.393  17.871 -0.0592  0.2529  0.1258
57037CHOL    R393848   7.893  26.258  18.091 -0.0094  0.1989  0.0729
57037CHOL    R493849   7.709  26.460  18.196 -0.0098  0.1499  0.1617
57037CHOL    R593850   7.915  26.426  18.260  0.0031  0.1518  0.1171
57037CHOL    C193851   7.733  26.372  18.591  0.0657  0.0398  0.1329
57037CHOL    C293852   7.544  26.164  18.845  0.1630 -0.0147  0.0573
57038CHOL   ROH93853  29.872   7.308   7.431  0.0772  0.1505 -0.2790
57038CHOL    R193854  29.997   7.146   7.235  0.2625  0.0034 -0.0432
57038CHOL    R293855  30.246   7.033   7.272  0.1200 -0.1835  0.3788
57038CHOL    R393856  30.115   6.803   7.211  0.0337 -0.0951  0.2318
57038CHOL    R493857  30.398   6.739   7.171  0.0204 -0.2322  0.3716
57038CHOL    R593858  30.237   6.711   7.026  0.0881 -0.1018  0.2729
57038CHOL    C193859  30.363   6.352   7.054 -0.1180 -0.1776  0.2295
57038CHOL    C293860  30.272   5.963   6.912  0.1851 -0.0078  0.0348
57039CHOL   ROH93861   1.636   8.586   7.322 -0.0919  0.0701  0.0151
57039CHOL    R193862   1.404   8.586   7.484 -0.0484 -0.1390  0.0789
57039CHOL    R293863   1.338   8.375   7.650  0.2309 -0.1634  0.1593
57039CHOL    R393864   1.330   8.569   7.840  0.0677 -0.1159  0.1048
57039CHOL    R493865   1.236   8.327   7.976  0.5508 -0.2288  0.2521
57039CHOL    R593866   1.133   8.520   7.967  0.2381 -0.3904  0.2680
57039CHOL    C193867   1.168   8.482   8.345  0.5838 -0.2223  0.2550
57039CHOL    C293868   1.481   8.419   8.665  0.1659 -0.0481 -0.0080
57040CHOL   ROH93869   2.906  18.006   4.338  0.2218  0.1269  0.2027
57040CHOL    R193870   2.698  18.192   4.389  0.1658  0.0711  0.1800
57040CHOL    R293871   2.434  18.140   4.328  0.2139  0.0888 -0.0557
57040CHOL    R393872   2.395  18.201   4.590  0.0144 -0.1033 -0.0398
57040CHOL    R493873   2.138  18.258   4.461  0.1582  0.1324 -0.2181
57040CHOL    R593874   2.254  18.394   4.585  0.1184 -0.0282 -0.0062
57040CHOL    C193875   1.928  18.384   4.784 -0.0614 -0.0225 -0.2978
57040CHOL    C293876   1.556  18.229   4.806 -0.1545  0.1200  0.1969
57041CHOL   ROH93877  32.690  34.283  11.961  0.0753  0.1923  0.0851
57041CHOL    R193878  32.810  34.470  11.785 -0.0046  0.1301 -0.0362
57041CHOL    R293879  32.996  34.396  11.594  0.0575  0.0904  0.0401
57041CHOL    R393880  32.824  34.522  11.425  0.0098 -0.1233 -0.0739
57041CHOL    R493881  33.064  34.472  11.264  0.2213  0.2563  0.1113
57041CHOL    R593882  32.965  34.664  11.293 -0.0835  0.1099  0.0712
57041CHOL    C193883  32.943  34.635  10.913  0.2722  0.1521  0.0455
57041CHOL    C293884  33.201  34.474  10.651 -0.0248 -0.1044  0.0784
57042CHOL   ROH93885  30.578  34.366  10.472  0.0162 -0.0942  0.1482
57042CHOL    R193886  30.520  34.238  10.226  0.0595 -0.2110  0.1983
57042CHOL    R293887  30.467  34.378   9.994 -0.2206 -0.3162  0.1956
57042CHOL    R393888  30.668  34.224   9.894 -0.0759 -0.0884  0.1328
57042CHOL    R493889  30.519  34.316   9.658 -0.3101 -0.3323  0.1845
57042CHOL    R593890  30.568  34.110   9.709 -0.0246 -0.2602  0.2106
57042CHOL    C193891  30.738  34.136   9.368 -0.2271 -0.1273  0.1190
57042CHOL    C293892  30.894  33.999   9.054  0.0658 -0.4128 -0.0400
57043CHOL   ROH93893  20.308  29.757  13.814 -0.0375  0.0126  0.1420
57043CHOL    R193894  20.102  29.571  13.868  0.0187 -0.0746  0.0584
57043CHOL    R293895  19.839  29.614  13.795  0.0128 -0.1381  0.0464
57043CHOL    R393896  19.867  29.372  13.674  0.1047 -0.0887 -0.0320
57043CHOL    R493897  19.602  29.467  13.592  0.1167 -0.1078 -0.0980
57043CHOL    R593898  19.648  29.275  13.685  0.1177 -0.1335 -0.1503
57043CHOL    C193899  19.489  29.155  13.359  0.2637 -0.0436 -0.2556
57043CHOL    C293900  19.197  29.404  13.231 -0.1018  0.0058  0.0644
57044CHOL   ROH93901  32.117  22.513   0.811 -0.0590  0.3066 -0.2113
57044CHOL    R193902  31.999  22.573   1.061  0.1566  0.2714 -0.0999
57044CHOL    R293903  31.796  22.421   1.170  0.0106  0.4566 -0.1119
57044CHOL    R393904  31.965  22.409   1.384  0.1117  0.0642 -0.2090
57044CHOL    R493905  31.703  22.332   1.491  0.0694  0.2975 -0.1379
57044CHOL    R593906  31.833  22.489   1.567  0.3069  0.0725 -0.0703
57044CHOL    C193907  31.806  22.270   1.878  0.1985 -0.1631 -0.2442
57044CHOL    C293908  31.820  22.226   2.233 -0.0330  0.0895  0.1257
57045CHOL   ROH93909   4.220   2.504  11.797  0.0052  0.3479 -0.3674
57045CHOL    R193910   4.019   2.506  11.995  0.2020  0.3085 -0.1653
57045CHOL    R293911   3.861   2.727  12.044  0.0153  0.1853 -0.2049
57045CHOL    R393912   3.658   2.551  12.005  0.1602 -0.0686  0.1576
57045CHOL    R493913   3.536   2.774  12.153  0.0013  0.0921 -0.2069
57045CHOL    R593914   3.530   2.562  12.207  0.2019  0.1784  0.1721
57045CHOL    C193915   3.156   2.635  12.180  0.1293 -0.2005  0.1322
57045CHOL    C293916   2.972   2.872  12.277 -0.2714 -0.0105 -0.0190
57046CHOL   ROH93917   6.830  24.390  15.725 -0.0794  0.2029  0.0914
57046CHOL    R193918   6.592  24.242  15.691 -0.0763  0.1999  0.0843
57046CHOL    R293919   6.359  24.303  15.827 -0.1277  0.3004 -0.0490
57046CHOL    R393920   6.253  24.308  15.577 -0.0249  0.1544 -0.0970
57046CHOL    R493921   6.039  24.199  15.746 -0.0489  0.1289 -0.1425
57046CHOL    R593922   6.120  24.109  15.564  0.0671  0.0906 -0.0731
57046CHOL    C193923   5.753  24.144  15.463  0.0936 -0.1091 -0.2416
57046CHOL    C293924   5.544  24.341  15.148 -0.1278 -0.1741  0.0146
57047CHOL   ROH93925  11.998  21.944  19.099  0.2196 -0.0997  0.1036
57047CHOL    R193926  12.006  21.992  19.378  0.1463  0.1312  0.0671
57047CHOL    R293927  11.969  22.243  19.487 -0.1437  0.1794 -0.1351
57047CHOL    R393928  11.776  22.118  19.631 -0.0141  0.0763 -0.0501
57047CHOL    R493929  11.866  22.338  19.802 -0.1526  0.2081 -0.1465
57047CHOL    R593930  11.856  22.127  19.857  0.0264  0.2184 -0.0698
57047CHOL    C193931  11.625  22.275  20.122 -0.0361  0.1276 -0.0735
57047CHOL    C293932  11.654  22.592  20.308  0.0789  0.1227  0.0421
57048CHOL   ROH93933  17.823  15.040  13.425 -0.0392 -0.1675  0.2211
57048CHOL    R193934  18.097  15.062  13.494 -0.0010 -0.2918  0.1114
57048CHOL    R293935  18.181  15.154  13.741  0.1412 -0.2058  0.0300
57048CHOL    R393936  18.318  14.920  13.746  0.0048 -0.2850  0.1112
57048CHOL    R493937  18.450  15.087  13.948  0.3553 -0.1427 -0.2247
57048CHOL    R593938  18.546  14.985  13.781  0.0906 -0.3812 -0.2379
57048CHOL    C193939  18.735  14.828  14.073  0.3515 -0.1804 -0.2967
57048CHOL    C293940  18.579  15.010  14.464 -0.1449  0.1836  0.0391
57049CHOL   ROH93941  18.312   4.012  13.785 -0.0575 -0.0232 -0.2186
57049CHOL    R193942  18.123   4.202  13.877 -0.0755 -0.0858 -0.1253
57049CHOL    R293943  18.191   4.411  14.045 -0.0925 -0.1527 -0.0356
57049CHOL    R393944  18.076   4.562  13.851 -0.1189 -0.0791  0.0374
57049CHOL    R493945  17.988   4.684  14.103  0.0559 -0.0694  0.0971
57049CHOL    R593946  17.860   4.617  13.939 -0.0528  0.0059  0.1493
57049CHOL    C193947  17.761   4.985  13.954  0.1176  0.0483  0.2427
57049CHOL    C293948  17.635   5.369  13.890 -0.3619  0.0153  0.0329
57050CHOL   ROH93949   2.062  13.750   8.317 -0.0247  0.0272  0.1094
57050CHOL    R193950   2.090  13.631   8.062 -0.0850 -0.1143  0.1685
57050CHOL    R293951   1.893  13.472   7.949 -0.2589  0.1091  0.1537
57050CHOL    R393952   1.917  13.646   7.742  0.0648 -0.0043  0.0925
57050CHOL    R493953   1.782  13.412   7.628 -0.3861  0.2072  0.1789
57050CHOL    R593954   1.964  13.507   7.552 -0.2051 -0.1610  0.1385
57050CHOL    C193955   1.740  13.541   7.245 -0.1562  0.1581  0.1362
57050CHOL    C293956   1.443  13.436   7.002 -0.2236  0.0857 -0.2036
57051CHOL   ROH93957  27.506  31.127   6.162  0.0994 -0.0246  0.0655
57051CHOL    R193958  27.657  31.035   6.383  0.0219 -0.0063  0.1262
57051CHOL    R293959  27.911  31.126   6.438  0.0678 -0.1247  0.1119
57051CHOL    R393960  27.805  31.181   6.682  0.0707  0.0511  0.0743
57051CHOL    R493961  28.092  31.144   6.732  0.0383 -0.1308  0.1305
57051CHOL    R593962  27.928  31.042   6.833 -0.0492  0.0256  0.1494
57051CHOL    C193963  28.096  31.207   7.133  0.0237  0.0306  0.1059
57051CHOL    C293964  28.137  31.044   7.381  0.0056  0.2841  0.1203
57052CHOL   ROH93965  23.283   8.931   5.873  0.1013  0.0813 -0.0679
57052CHOL    R193966  23.454   9.013   6.084  0.0881 -0.0450 -0.0078
57052CHOL    R293967  23.685   8.877   6.148  0.1379 -0.0255 -0.1414
57052CHOL    R393968  23.799   9.121   6.117  0.0543  0.0409  0.0633
57052CHOL    R493969  23.926   9.010   6.357  0.0019 -0.0652  0.0418
57052CHOL    R593970  23.826   9.204   6.340 -0.0673 -0.0932  0.1279
57052CHOL    C193971  24.173   9.318   6.449 -0.1558 -0.0259  0.3406
57052CHOL    C293972  24.445   9.365   6.690  0.0718 -0.0492 -0.0449
57053CHOL   ROH93973   1.315  14.660   4.166 -0.1522  0.1051 -0.2748
57053CHOL    R193974   1.167  14.788   4.371 -0.3074 -0.1362 -0.2343
57053CHOL    R293975   1.084  14.656   4.599  0.2053 -0.2127 -0.0849
57053CHOL    R393976   1.213  14.859   4.725 -0.1922  0.1922 -0.3130
57053CHOL    R493977   0.978  14.806   4.892  0.1759 -0.4421  0.0229
57053CHOL    R593978   1.038  14.998   4.809 -0.4822 -0.2832 -0.1095
57053CHOL    C193979   1.038  15.083   5.181 -0.2144 -0.1955 -0.1285
57053CHOL    C293980   0.875  15.276   5.401 -0.3160  0.1711 -0.2416
57054CHOL   ROH93981  19.540  23.756  17.102 -0.1482  0.0189 -0.0393
57054CHOL    R193982  19.414  23.869  16.875 -0.1877  0.1816  0.0624
57054CHOL    R293983  19.224  23.734  16.727  0.0212  0.1616 -0.1918
57054CHOL    R393984  19.075  23.955  16.776 -0.2483 -0.0690  0.0496
57054CHOL    R493985  19.023  23.891  16.495  0.1194  0.3826 -0.1289
57054CHOL    R593986  19.090  24.083  16.574 -0.1520  0.3113  0.2911
57054CHOL    C193987  18.765  24.191  16.405 -0.0765  0.2952  0.1344
57054CHOL    C293988  18.410  24.357  16.236 -0.2056 -0.3069  0.2264
57055CHOL   ROH93989  17.776  24.861  15.165 -0.1521  0.1255 -0.0049
57055CHOL    R193990  17.946  24.949  15.373 -0.1816 -0.1549  0.1409
57055CHOL    R293991  18.114  24.778  15.510 -0.0286 -0.3025 -0.2244
57055CHOL    R393992  18.304  24.958  15.436 -0.1762 -0.0099  0.0915
57055CHOL    R493993  18.430  24.800  15.649  0.0278 -0.4303 -0.3313
57055CHOL    R593994  18.413  25.017  15.641 -0.1112 -0.4162  0.1789
57055CHOL    C193995  18.792  24.982  15.661 -0.0778 -0.2296 -0.0972
57055CHOL    C293996  19.163  25.165  15.600  0.0953 -0.1241 -0.1581
57056CHOL   ROH93997  11.201  19.092  15.800 -0.2198 -0.1287 -0.0248
57056CHOL    R193998  11.081  18.895  15.964 -0.0298 -0.0874  0.1664
57056CHOL    R293999  11.155  18.855  16.228 -0.0770  0.3244  0.2456
57056CHOL    R394000  10.889  18.889  16.274 -0.1401  0.0411  0.1007
57056CHOL    R494001  10.993  18.767  16.520 -0.1429  0.1616  0.1604
57056CHOL    R594002  10.826  18.695  16.399 -0.0012 -0.0221  0.0727
57056CHOL    C194003  10.648  18.748  16.733 -0.2405 -0.1990 -0.0254
57056CHOL    C294004  10.454  18.839  17.114  0.0240  0.0139 -0.1627
57057CHOL   ROH94005  28.711  33.944   6.094  0.0710 -0.0184 -0.0381
57057CHOL    R194006  28.698  33.882   6.370  0.1385  0.0370 -0.0222
57057CHOL    R294007  28.817  34.039   6.563  0.0922  0.1365 -0.0726
57057CHOL    R394008  28.567  34.040   6.671  0.1064  0.0434 -0.0400
57057CHOL    R494009  28.745  34.105   6.895  0.1085  0.1038 -0.0627
57057CHOL    R594010  28.596  33.946   6.889  0.1673  0.0507 -0.0460
57057CHOL    C194011  28.468  34.145   7.189  0.1307 -0.0025 -0.0263
57057CHOL    C294012  28.473  34.027   7.541 -0.0784 -0.3393 -0.4027
57058CHOL   ROH94013  12.292  18.174  19.657  0.2201  0.1181  0.3009
57058CHOL    R194014  12.091  18.373  19.668  0.1128  0.0248  0.0635
57058CHOL    R294015  12.096  18.580  19.851 -0.1265  0.1098 -0.0220
57058CHOL    R394016  12.075  18.735  19.628 -0.0360  0.0001 -0.1069
57058CHOL    R494017  11.912  18.872  19.830  0.1030  0.2459 -0.1625
57058CHOL    R594018  11.848  18.811  19.630  0.0257  0.1825 -0.1173
57058CHOL    C194019  11.785  19.187  19.608  0.3215  0.2219 -0.3236
57058CHOL    C294020  11.655  19.397  19.426 -0.4460  0.3032 -0.2546
57059CHOL   ROH94021  33.729  10.329   2.826  0.0657  0.0133  0.0087
57059CHOL    R194022  33.791  10.365   3.100  0.0698  0.0064  0.0079
57059CHOL    R294023  33.930  10.585   3.193 -0.2012  0.1587  0.0511
57059CHOL    R394024  33.716  10.610   3.358 -0.2029 -0.1750  0.1036
57059CHOL    R494025  33.929  10.763   3.489 -0.4078  0.1776  0.0401
57059CHOL    R594026  33.809  10.604   3.579 -0.1331 -0.0127  0.0812
57059CHOL    C194027  33.727  10.890   3.817 -0.5296 -0.1250  0.0829
57059CHOL    C294028  33.720  11.219   4.088  0.1019 -0.1058  0.0434
57060CHOL   ROH94029   9.743  19.104  15.439 -0.1096  0.0732 -0.1550
57060CHOL    R194030   9.557  19.045  15.645  0.1052  0.0996  0.0487
57060CHOL    R294031   9.354  18.861  15.613 -0.1924  0.4087  0.1338
57060CHOL    R394032   9.461  18.753  15.838 -0.0110  0.0140 -0.1373
57060CHOL    R494033   9.199  18.622  15.810 -0.2618  0.4478  0.1266
57060CHOL    R594034   9.274  18.726  15.986  0.1722  0.1558  0.1229
57060CHOL    C194035   9.210  18.381  16.135 -0.1319  0.0996 -0.1321
57060CHOL    C294036   9.212  18.085  16.428  0.1151  0.0475 -0.1229
57061CHOL   ROH94037  16.656  28.166  20.095  0.0999  0.1462  0.1650
57061CHOL    R194038  16.428  28.021  20.012  0.2131 -0.0378  0.1728
57061CHOL    R294039  16.237  28.128  19.844 -0.0308 -0.0856  0.4145
57061CHOL    R394040  16.288  27.905  19.696  0.1332  0.1262  0.1476
57061CHOL    R494041  16.047  28.020  19.576  0.0195  0.0641  0.3174
57061CHOL    R594042  16.072  27.815  19.647  0.2012  0.0021  0.0769
57061CHOL    C194043  15.985  27.748  19.281  0.2028  0.3511  0.0110
57061CHOL    C294044  15.735  27.885  18.991  0.1990 -0.2238  0.1949
57062CHOL   ROH94045   2.451   5.585  12.918  0.0789  0.0644 -0.0439
57062CHOL    R194046   2.650   5.610  12.719  0.1445  0.0184  0.0164
57062CHOL    R294047   2.812   5.399  12.643  0.0002 -0.0637 -0.0568
57062CHOL    R394048   2.721   5.461  12.394  0.1070  0.1381 -0.0478
57062CHOL    R494049   2.978   5.328  12.348 -0.0037 -0.0854 -0.0542
57062CHOL    R594050   2.917   5.523  12.272  0.1941  0.0104  0.0226
57062CHOL    C194051   2.989   5.344  11.943  0.0942  0.0915 -0.0441
57062CHOL    C294052   3.044   4.967  11.939  0.2473  0.1977 -0.2932
57063CHOL   ROH94053  27.294  17.288   3.790  0.0258  0.1505 -0.0855
57063CHOL    R194054  27.316  17.261   3.509  0.0362  0.0103 -0.0717
57063CHOL    R294055  27.313  17.016   3.383 -0.0806 -0.0471  0.0404
57063CHOL    R394056  27.111  17.128   3.240 -0.0103 -0.0069 -0.0281
57063CHOL    R494057  27.236  16.938   3.055 -0.0134 -0.0631  0.0283
57063CHOL    R594058  27.200  17.149   3.018  0.0565 -0.0572 -0.0064
57063CHOL    C194059  27.002  16.997   2.730  0.0921 -0.0348 -0.0430
57063CHOL    C294060  27.157  17.292   2.541  0.1356  0.0618  0.0298
57064CHOL   ROH94061  14.292  34.876  18.801  0.0074 -0.0732  0.0606
57064CHOL    R194062  14.207  34.914  18.533 -0.1545 -0.0351  0.1171
57064CHOL    R294063  14.304  34.764  18.323 -0.1924  0.0755  0.0191
57064CHOL    R394064  14.041  34.714  18.278 -0.1931 -0.0403  0.1464
57064CHOL    R494065  14.175  34.640  18.028 -0.3395  0.5146 -0.1034
57064CHOL    R594066  14.007  34.778  18.050 -0.4278  0.3517  0.2857
57064CHOL    C194067  13.852  34.522  17.813 -0.4257  0.6611 -0.0548
57064CHOL    C294068  13.548  34.344  17.604  0.0781  0.0048 -0.1564
57065CHOL   ROH94069  10.481  11.933  14.736 -0.1441  0.4163 -0.0564
57065CHOL    R194070  10.389  11.784  14.958 -0.0258  0.2509 -0.1176
57065CHOL    R294071  10.551  11.724  15.174  0.0378  0.2433 -0.1668
57065CHOL    R394072  10.350  11.839  15.316 -0.0155  0.0520 -0.0853
57065CHOL    R494073  10.509  11.696  15.516  0.1500  0.1300 -0.1619
57065CHOL    R594074  10.295  11.677  15.483  0.1562 -0.0310 -0.1084
57065CHOL    C194075  10.296  11.789  15.848  0.1652 -0.1160 -0.0827
57065CHOL    C294076  10.386  11.821  16.213 -0.1283 -0.1577  0.0540
57066CHOL   ROH94077  24.903  13.952   6.052  0.1820 -0.1439 -0.1610
57066CHOL    R194078  24.777  13.870   5.812  0.0748 -0.0794 -0.1267
57066CHOL    R294079  24.503  13.857   5.785  0.0609  0.0717 -0.0551
57066CHOL    R394080  24.549  14.016   5.570  0.0920  0.0416 -0.0712
57066CHOL    R494081  24.266  13.940   5.548  0.0652  0.1255 -0.0406
57066CHOL    R594082  24.419  13.917   5.394  0.0458  0.0668 -0.0527
57066CHOL    C194083  24.171  14.139   5.207  0.0966  0.1286 -0.0472
57066CHOL    C294084  23.805  14.330   5.021 -0.0516  0.1489  0.1684
57067CHOL   ROH94085   7.757   9.810  13.938  0.0423 -0.0313  0.0222
57067CHOL    R194086   7.716   9.851  14.215 -0.0231  0.0099  0.0064
57067CHOL    R294087   7.742  10.098  14.334 -0.1402  0.0439 -0.0404
57067CHOL    R394088   7.490  10.046  14.423 -0.1362 -0.0344 -0.0737
57067CHOL    R494089   7.599  10.237  14.618 -0.2421  0.0497 -0.0937
57067CHOL    R594090   7.511  10.042  14.662 -0.1754  0.0237 -0.0685
57067CHOL    C194091   7.280  10.268  14.865 -0.2977 -0.0205 -0.1563
57067CHOL    C294092   7.152  10.694  14.930  0.2432 -0.3750  0.1259
57068CHOL   ROH94093   9.997   0.324  17.248 -0.0796 -0.0871  0.2169
57068CHOL    R194094  10.159   0.528  17.358  0.0167 -0.1621  0.2140
57068CHOL    R294095  10.061   0.778  17.424  0.1493 -0.0917  0.1453
57068CHOL    R394096  10.169   0.721  17.667  0.0632 -0.1096  0.1796
57068CHOL    R494097  10.048   0.986  17.699  0.2667 -0.0035  0.0849
57068CHOL    R594098  10.254   0.931  17.744  0.2164 -0.1542  0.1354
57068CHOL    C194099  10.141   1.054  18.087  0.2544  0.0309  0.0820
57068CHOL    C294100  10.209   1.377  18.083  0.0660 -0.2506 -0.2343
57069CHOL   ROH94101   6.329  32.058  16.888  0.0117  0.2665 -0.2307
57069CHOL    R194102   6.341  32.200  17.132 -0.1093 -0.1724  0.0355
57069CHOL    R294103   6.438  32.088  17.365  0.2387 -0.4396 -0.2316
57069CHOL    R394104   6.600  32.306  17.365 -0.1655 -0.1309  0.0786
57069CHOL    R494105   6.627  32.194  17.635 -0.0079 -0.4280 -0.0614
57069CHOL    R594106   6.574  32.399  17.584 -0.3815 -0.4578  0.1944
57069CHOL    C194107   6.889  32.460  17.791 -0.5309 -0.1323  0.3288
57069CHOL    C294108   6.742  32.756  17.921 -0.0370  0.0855 -0.0772
57070CHOL   ROH94109   0.683  10.907   9.711 -0.0614  0.2244 -0.2128
57070CHOL    R194110   0.951  10.824   9.678 -0.0318  0.3097 -0.1872
57070CHOL    R294111   1.021  10.562   9.627  0.0816  0.2598  0.2024
57070CHOL    R394112   1.151  10.672   9.415 -0.0597 -0.0091 -0.0269
57070CHOL    R494113   1.302  10.428   9.476  0.1492  0.2144  0.3675
57070CHOL    R594114   1.383  10.630   9.458 -0.0142  0.2515 -0.0086
57070CHOL    C194115   1.587  10.453   9.189  0.0559 -0.0641  0.2486
57070CHOL    C294116   1.684  10.432   8.828 -0.1590 -0.2425 -0.1849
57071CHOL   ROH94117   4.935  16.913  15.821 -0.1987  0.0601 -0.1166
57071CHOL    R194118   5.183  17.000  15.717 -0.1756  0.1368  0.0022
57071CHOL    R294119   5.356  16.832  15.583  0.0288  0.1436  0.2538
57071CHOL    R394120   5.339  17.022  15.389  0.0536 -0.0095  0.1010
57071CHOL    R494121   5.616  16.925  15.375  0.0298 -0.0853  0.1511
57071CHOL    R594122   5.552  17.132  15.396  0.0804 -0.0528 -0.0106
57071CHOL    C194123   5.753  17.157  15.072  0.0536 -0.3621 -0.0522
57071CHOL    C294124   6.036  17.228  14.857  0.0307 -0.2152  0.2375
57072CHOL   ROH94125  20.497   1.457   9.611  0.0480 -0.0204 -0.1232
57072CHOL    R194126  20.639   1.272   9.771  0.0074 -0.0693 -0.1435
57072CHOL    R294127  20.754   1.341  10.012  0.1424 -0.0866 -0.2015
57072CHOL    R394128  20.607   1.132  10.105  0.0611  0.0140 -0.1037
57072CHOL    R494129  20.825   1.162  10.299  0.3414 -0.2792 -0.3697
57072CHOL    R594130  20.770   0.980  10.193  0.0294 -0.1809 -0.3790
57072CHOL    C194131  20.729   0.862  10.553  0.3809 -0.2968 -0.3760
57072CHOL    C294132  20.802   0.940  10.998  0.1375 -0.5629  0.2064
57073CHOL   ROH94133  24.859  10.201   3.671  0.0092  0.0115 -0.0307
57073CHOL    R194134  24.910  10.360   3.899 -0.0582 -0.0115  0.0002
57073CHOL    R294135  24.735  10.377   4.112 -0.0532 -0.1463  0.0128
57073CHOL    R394136  24.954  10.305   4.256 -0.0084 -0.0652 -0.0135
57073CHOL    R494137  24.804  10.484   4.433 -0.0870 -0.1657  0.0269
57073CHOL    R594138  25.013  10.503   4.377 -0.0975 -0.0544  0.0160
57073CHOL    C194139  25.049  10.479   4.756 -0.0645 -0.1012  0.0104
57073CHOL    C294140  25.291  10.646   4.890  0.2217 -0.1216 -0.1906
57074CHOL   ROH94141  18.318  23.162  18.394 -0.1173  0.0917 -0.0567
57074CHOL    R194142  18.052  23.172  18.300 -0.1581 -0.0225  0.0460
57074CHOL    R294143  17.856  22.997  18.387 -0.0570 -0.0844  0.1468
57074CHOL    R394144  17.722  23.226  18.444 -0.1236 -0.1279  0.1666
57074CHOL    R494145  17.512  23.028  18.393 -0.0660 -0.0937 -0.2302
57074CHOL    R594146  17.533  23.222  18.296  0.0462 -0.0179 -0.0587
57074CHOL    C194147  17.185  23.261  18.449 -0.1337 -0.1398 -0.4310
57074CHOL    C294148  17.073  22.959  18.636  0.0270  0.0085 -0.3652
57075CHOL   ROH94149   3.625  27.221  15.796  0.0589 -0.0262 -0.0772
57075CHOL    R194150   3.483  27.165  15.558  0.0990 -0.0826 -0.0875
57075CHOL    R294151   3.344  26.929  15.519 -0.1473  0.0368  0.0672
57075CHOL    R394152   3.137  27.097  15.466  0.0605  0.2205 -0.1747
57075CHOL    R494153   3.077  26.853  15.315 -0.3220  0.0065  0.3045
57075CHOL    R594154   3.086  27.056  15.235 -0.0725 -0.1490 -0.0841
57075CHOL    C194155   2.726  26.966  15.145 -0.2286  0.1612  0.2153
57075CHOL    C294156   2.714  26.811  14.817  0.1739  0.3345 -0.1005
57076CHOL   ROH94157   0.163  16.534   6.528 -0.0441  0.2965  0.0489
57076CHOL    R194158   0.431  16.493   6.448 -0.0587  0.0772  0.1076
57076CHOL    R294159   0.514  16.266   6.314 -0.2468  0.0789 -0.0124
57076CHOL    R394160   0.609  16.445   6.133 -0.0087  0.1004  0.1324
57076CHOL    R494161   0.746  16.195   6.068 -0.0797  0.0572  0.1509
57076CHOL    R594162   0.840  16.387   6.108 -0.0157 -0.0042  0.3001
57076CHOL    C194163   0.970  16.322   5.755  0.2412  0.0646  0.3816
57076CHOL    C294164   1.178  16.288   5.425  0.0203 -0.0578 -0.4008
57077CHOL   ROH94165  17.434   0.764  14.726  0.0884 -0.3100  0.1149
57077CHOL    R194166  17.321   0.771  14.467  0.1459 -0.2605  0.0910
57077CHOL    R294167  17.094   0.627  14.400  0.0639 -0.1159  0.0596
57077CHOL    R394168  17.003   0.870  14.320  0.2417 -0.0630  0.0147
57077CHOL    R494169  16.893   0.682  14.124 -0.0053 -0.0383  0.1248
57077CHOL    R594170  17.010   0.861  14.081  0.1339 -0.1532  0.0140
57077CHOL    C194171  16.691   0.942  13.888  0.1216  0.0565  0.1205
57077CHOL    C294172  16.410   1.148  13.799  0.2512  0.2964 -0.1171
57078CHOL   ROH94173   9.431  20.154  19.367  0.0681  0.0475  0.2068
57078CHOL    R194174   9.503  20.424  19.414  0.1497  0.0397  0.1305
57078CHOL    R294175   9.723  20.496  19.565  0.2337  0.0154  0.0220
57078CHOL    R394176   9.789  20.638  19.343  0.1671 -0.0368 -0.0312
57078CHOL    R494177   9.992  20.712  19.542  0.1842  0.0658 -0.0874
57078CHOL    R594178   9.865  20.849  19.428  0.1368  0.0046 -0.1076
57078CHOL    C194179  10.210  20.971  19.320  0.0928  0.0457 -0.2011
57078CHOL    C294180  10.598  21.166  19.451  0.0136 -0.1033  0.0925
57079CHOL   ROH94181  25.051  17.741   5.204 -0.0472 -0.2101  0.1721
57079CHOL    R194182  24.876  17.584   5.048 -0.0341 -0.0778  0.0235
57079CHOL    R294183  24.714  17.691   4.851  0.0750  0.0705  0.0138
57079CHOL    R394184  24.835  17.504   4.695  0.0794  0.1127 -0.0333
57079CHOL    R494185  24.581  17.561   4.560  0.0717  0.1289 -0.0106
57079CHOL    R594186  24.655  17.365   4.619  0.0845  0.1196 -0.0581
57079CHOL    C194187  24.616  17.310   4.244  0.0736  0.2020 -0.0691
57079CHOL    C294188  24.556  16.948   4.258  0.2260 -0.0424 -0.0330
57080CHOL   ROH94189  35.330  11.563   8.445 -0.1501 -0.0433  0.0284
57080CHOL    R194190   0.069  11.393   8.256 -0.1647  0.0769 -0.0894
57080CHOL    R294191   0.125  11.474   7.998 -0.0923  0.2762 -0.0113
57080CHOL    R394192   0.377  11.395   8.062 -0.1269  0.1469 -0.0299
57080CHOL    R494193   0.327  11.277   7.798 -0.1580  0.2845 -0.0869
57080CHOL    R594194   0.393  11.172   7.977 -0.2111  0.1775 -0.1290
57080CHOL    C194195   0.681  11.089   7.742 -0.2288  0.1679 -0.1485
57080CHOL    C294196   0.780  11.057   7.333  0.0134  0.0903 -0.0527
57081CHOL   ROH94197   5.075  32.384  16.865 -0.0894  0.0347  0.1934
57081CHOL    R194198   5.345  32.431  16.937 -0.0457 -0.1434  0.1465
57081CHOL    R294199   5.540  32.236  16.917 -0.1229 -0.1926 -0.1445
57081CHOL    R394200   5.668  32.425  16.769 -0.1097 -0.0716  0.0190
57081CHOL    R494201   5.883  32.255  16.876 -0.1291 -0.2556 -0.2277
57081CHOL    R594202   5.868  32.472  16.893 -0.0569 -0.2674  0.0111
57081CHOL    C194203   6.203  32.443  16.713 -0.1204 -0.1782 -0.1222
57081CHOL    C294204   6.542  32.553  16.442 -0.1528 -0.0799 -0.0017
57082CHOL   ROH94205  30.366  18.298   3.696  0.3192 -0.0469  0.1291
57082CHOL    R194206  30.454  18.473   3.492  0.2726 -0.0593  0.0980
57082CHOL    R294207  30.636  18.397   3.299  0.1575 -0.1011  0.0033
57082CHOL    R394208  30.442  18.483   3.128  0.0983 -0.0326  0.1045
57082CHOL    R494209  30.672  18.425   2.956  0.0082 -0.0462 -0.0082
57082CHOL    R594210  30.559  18.612   2.964  0.0488 -0.0271  0.0750
57082CHOL    C194211  30.511  18.522   2.597 -0.1342  0.0497  0.0799
57082CHOL    C294212  30.664  18.616   2.360 -0.1502  0.2659  0.1392
57083CHOL   ROH94213  25.563  12.575   6.216  0.1614 -0.1767  0.0832
57083CHOL    R194214  25.382  12.375   6.129  0.1127 -0.0943 -0.0057
57083CHOL    R294215  25.186  12.424   5.941  0.1720  0.0180 -0.0373
57083CHOL    R394216  25.300  12.212   5.814  0.1271  0.0094 -0.0637
57083CHOL    R494217  25.029  12.229   5.702  0.1963  0.2083 -0.2102
57083CHOL    R594218  25.122  12.053   5.792  0.0492  0.1168 -0.2321
57083CHOL    C194219  25.045  11.917   5.444  0.1684  0.3109 -0.3356
57083CHOL    C294220  24.857  11.925   5.134 -0.0648  0.1125  0.2024
57084CHOL   ROH94221  15.216  12.068  18.838  0.0165 -0.2114 -0.0381
57084CHOL    R194222  14.958  12.147  18.752 -0.0484 -0.2812  0.0900
57084CHOL    R294223  14.918  12.306  18.529 -0.1910 -0.1258  0.2249
57084CHOL    R394224  14.755  12.103  18.453 -0.1000 -0.1545  0.1058
57084CHOL    R494225  14.640  12.341  18.327 -0.1042 -0.1602  0.0992
57084CHOL    R594226  14.535  12.198  18.455 -0.1269 -0.2140  0.0206
57084CHOL    C194227  14.324  12.171  18.138  0.0312 -0.2072 -0.0855
57084CHOL    C294228  14.247  12.304  17.785  0.1331 -0.1846  0.1986
57085CHOL   ROH94229  22.168  15.360   7.027 -0.0713  0.0909  0.0684
57085CHOL    R194230  22.313  15.124   6.969  0.2193  0.2510  0.1313
57085CHOL    R294231  22.549  15.059   7.096 -0.0050  0.2867  0.5765
57085CHOL    R394232  22.419  14.827   7.151  0.0317  0.1359  0.0549
57085CHOL    R494233  22.696  14.779   7.235 -0.1133  0.2536  0.6235
57085CHOL    R594234  22.578  14.656   7.099  0.2735  0.3019  0.2339
57085CHOL    C194235  22.659  14.398   7.368 -0.1417  0.0924  0.1611
57085CHOL    C294236  22.901  14.251   7.645 -0.0299 -0.1768  0.0857
57086CHOL   ROH94237   2.790  22.726  11.804 -0.1457 -0.0859 -0.0246
57086CHOL    R194238   2.900  22.888  11.600 -0.1509  0.0681  0.0937
57086CHOL    R294239   3.041  23.119  11.653 -0.0786 -0.0153  0.2678
57086CHOL    R394240   3.232  23.000  11.501 -0.1445  0.0700  0.1169
57086CHOL    R494241   3.350  23.256  11.581 -0.0561 -0.0343  0.3269
57086CHOL    R594242   3.330  23.180  11.378 -0.1211  0.1566  0.2600
57086CHOL    C194243   3.709  23.223  11.395 -0.1048  0.0345  0.2202
57086CHOL    C294244   4.066  23.380  11.309  0.1178  0.2138 -0.1891
57087CHOL   ROH94245  33.388   0.463   8.511  0.1458  0.0808  0.0317
57087CHOL    R194246  33.264   0.627   8.706  0.2033  0.0409  0.1032
57087CHOL    R294247  32.991   0.627   8.748  0.1886  0.2097  0.0180
57087CHOL    R394248  33.063   0.577   9.005  0.0742 -0.0163  0.0065
57087CHOL    R494249  32.816   0.733   9.026  0.2449  0.2476  0.0389
57087CHOL    R594250  33.006   0.777   9.123  0.2724 -0.0197  0.1072
57087CHOL    C194251  32.781   0.747   9.430  0.1705  0.0575  0.0403
57087CHOL    C294252  32.503   0.991   9.607 -0.0418  0.0293 -0.0566
57088CHOL   ROH94253   3.480  16.607  13.275  0.0017  0.3095 -0.0138
57088CHOL    R194254   3.600  16.696  13.035  0.1671  0.0311 -0.0363
57088CHOL    R294255   3.823  16.574  12.926  0.0790 -0.2670  0.1110
57088CHOL    R394256   3.665  16.557  12.705  0.1294 -0.2527  0.0740
57088CHOL    R494257   3.938  16.514  12.606  0.1929  0.1377  0.0734
57088CHOL    R594258   3.795  16.661  12.532  0.0390  0.0422  0.1802
57088CHOL    C194259   3.858  16.463  12.212  0.3065  0.3867  0.0170
57088CHOL    C294260   4.182  16.372  11.816 -0.0850  0.0867  0.0696
57089CHOL   ROH94261  24.799  12.109   8.239  0.2937 -0.2853 -0.1323
57089CHOL    R194262  24.542  11.991   8.223  0.2588 -0.2272 -0.0063
57089CHOL    R294263  24.339  12.094   8.067  0.1939 -0.1596  0.1236
57089CHOL    R394264  24.334  11.843   7.964  0.0797 -0.1428  0.0876
57089CHOL    R494265  24.077  11.961   7.886  0.1518  0.0043  0.0620
57089CHOL    R594266  24.107  11.772   7.992  0.0370 -0.0277  0.0414
57089CHOL    C194267  23.919  11.647   7.684  0.0207  0.1152 -0.0077
57089CHOL    C294268  23.645  11.733   7.614  0.2619 -0.0302  0.6229
57090CHOL   ROH94269  33.094  11.416   6.147 -0.3881 -0.3192 -0.0685
57090CHOL    R194270  33.295  11.466   5.955 -0.3071 -0.1447  0.0605
57090CHOL    R294271  33.527  11.316   5.939 -0.2913 -0.1148  0.0376
57090CHOL    R394272  33.450  11.283   5.681 -0.1740  0.0940 -0.0256
57090CHOL    R494273  33.722  11.175   5.692 -0.2003  0.0242  0.0294
57090CHOL    R594274  33.648  11.327   5.554 -0.0999  0.1447  0.1040
57090CHOL    C194275  33.764  11.062   5.304 -0.0373  0.3011 -0.0346
57090CHOL    C294276  33.946  10.849   5.103  0.0413 -0.1875 -0.0360
57091CHOL   ROH94277   6.756  20.717  12.409  0.1183 -0.0689  0.0661
57091CHOL    R194278   6.496  20.825  12.387  0.0415 -0.2720 -0.0401
57091CHOL    R294279   6.268  20.668  12.393  0.1440 -0.4135  0.2651
57091CHOL    R394280   6.196  20.837  12.594  0.0872 -0.1416  0.0188
57091CHOL    R494281   5.960  20.669  12.549  0.0692 -0.1404  0.1183
57091CHOL    R594282   5.966  20.887  12.549  0.1206 -0.1410 -0.1542
57091CHOL    C194283   5.713  20.828  12.828 -0.0277  0.2737 -0.1987
57091CHOL    C294284   5.364  20.945  12.953  0.0428 -0.0941  0.0197
57092CHOL   ROH94285  20.625  23.161  10.068 -0.1811  0.1283 -0.0276
57092CHOL    R194286  20.872  23.027  10.096 -0.1995  0.0586 -0.1937
57092CHOL    R294287  21.115  23.151  10.052 -0.1862  0.0558 -0.1221
57092CHOL    R394288  21.170  23.060  10.302 -0.1573 -0.1833 -0.2136
57092CHOL    R494289  21.432  23.119  10.185 -0.1884  0.2907 -0.0593
57092CHOL    R594290  21.370  22.931  10.276  0.0153  0.0975 -0.3096
57092CHOL    C194291  21.669  23.016  10.497 -0.1625  0.2027 -0.1082
57092CHOL    C294292  22.029  23.088  10.628  0.0787  0.0219  0.1559
57093CHOL   ROH94293  34.744  29.799  13.117  0.1652  0.2159  0.1878
57093CHOL    R194294  34.927  29.808  12.901  0.1423 -0.0532  0.1551
57093CHOL    R294295  35.067  30.037  12.834 -0.0139 -0.0771 -0.2694
57093CHOL    R394296  35.283  29.873  12.859  0.0969  0.1065  0.0123
57093CHOL    R494297   0.009  30.132  12.777 -0.0561  0.1019 -0.2166
57093CHOL    R594298   0.043  29.939  12.680  0.1327  0.0189  0.0085
57093CHOL    C194299   0.402  30.033  12.766  0.0240  0.3782  0.0789
57093CHOL    C294300   0.682  30.128  12.725 -0.0075 -0.0591  0.3891
57094CHOL   ROH94301  24.233   5.120   6.853 -0.2159 -0.0743  0.1845
57094CHOL    R194302  24.406   5.150   7.075 -0.0496 -0.1245  0.0620
57094CHOL    R294303  24.604   5.343   7.084 -0.1167 -0.0525  0.0054
57094CHOL    R394304  24.482   5.410   7.318  0.0437 -0.2235  0.1390
57094CHOL    R494305  24.752   5.523   7.340  0.0013 -0.0870 -0.0389
57094CHOL    R594306  24.655   5.390   7.483  0.1942 -0.2044 -0.0155
57094CHOL    C194307  24.725   5.690   7.708  0.2207 -0.2677  0.0609
57094CHOL    C294308  24.737   5.998   7.946 -0.0393 -0.0643  0.2072
57095CHOL   ROH94309   5.500  26.968  19.933 -0.0359 -0.1855  0.2729
57095CHOL    R194310   5.722  26.796  19.899 -0.0953 -0.1970 -0.0792
57095CHOL    R294311   5.777  26.669  19.660 -0.0909  0.3376 -0.3690
57095CHOL    R394312   6.021  26.787  19.691 -0.0517  0.1749 -0.0369
57095CHOL    R494313   6.080  26.518  19.591 -0.1131  0.2424 -0.2600
57095CHOL    R594314   6.162  26.610  19.770 -0.2170  0.0158 -0.0917
57095CHOL    C194315   6.485  26.540  19.579 -0.0891  0.0351  0.1152
57095CHOL    C294316   6.858  26.542  19.505 -0.3272  0.0904  0.0886
57096CHOL   ROH94317   6.619   7.561  13.771  0.0610  0.0270  0.0173
57096CHOL    R194318   6.446   7.744  13.900  0.0287  0.0362 -0.0395
57096CHOL    R294319   6.171   7.731  13.875  0.0280 -0.0580  0.0145
57096CHOL    R394320   6.179   7.726  14.147  0.0771  0.0735  0.0156
57096CHOL    R494321   5.943   7.888  14.081  0.1310  0.1380 -0.0194
57096CHOL    R594322   6.108   7.946  14.211  0.1793  0.1350 -0.0792
57096CHOL    C194323   5.817   7.975  14.457  0.2372  0.3757 -0.0380
57096CHOL    C294324   5.673   7.874  14.797 -0.0930  0.0502 -0.3560
57097CHOL   ROH94325  30.292  22.729   4.190  0.0669 -0.3689 -0.0155
57097CHOL    R194326  30.225  22.936   4.009 -0.1923 -0.4025  0.0402
57097CHOL    R294327  30.406  23.040   3.828 -0.2313  0.0755  0.2681
57097CHOL    R394328  30.212  22.977   3.647  0.0629 -0.2267  0.0498
57097CHOL    R494329  30.379  23.178   3.512 -0.3618  0.3908  0.4151
57097CHOL    R594330  30.162  23.186   3.540 -0.4124 -0.2205  0.2692
57097CHOL    C194331  30.181  23.200   3.159 -0.1620  0.2908  0.2957
57097CHOL    C294332  30.064  23.501   2.859  0.0745 -0.0317  0.2717
57098CHOL   ROH94333  18.231   2.263  14.846  0.0803 -0.1060 -0.0385
57098CHOL    R194334  18.019   2.367  14.690  0.0563 -0.0069  0.0606
57098CHOL    R294335  18.044   2.414  14.419 -0.0449 -0.0111  0.0535
57098CHOL    R394336  17.822   2.256  14.404 -0.1246  0.0904  0.1461
57098CHOL    R494337  17.833   2.394  14.145  0.0645 -0.2187 -0.0171
57098CHOL    R594338  17.664   2.388  14.282 -0.0002  0.0362 -0.0802
57098CHOL    C194339  17.503   2.234  13.972  0.0541 -0.2443  0.0286
57098CHOL    C294340  17.435   2.442  13.652 -0.0118 -0.1368 -0.0607
57099CHOL   ROH94341   2.080  17.574   9.754  0.1904  0.3108  0.2126
57099CHOL    R194342   2.324  17.436   9.795  0.0769  0.0948  0.1696
57099CHOL    R294343   2.353  17.166   9.745 -0.1003  0.1210 -0.0803
57099CHOL    R394344   2.560  17.249   9.590  0.0163  0.1218  0.0752
57099CHOL    R494345   2.649  16.993   9.703 -0.0539  0.1375  0.1677
57099CHOL    R594346   2.756  17.183   9.712 -0.0746  0.1453  0.2349
57099CHOL    C194347   3.016  16.971   9.532  0.0825  0.1478  0.4581
57099CHOL    C294348   3.337  16.801   9.270  0.0114  0.1753 -0.2693
57100CHOL   ROH94349   2.707  30.431  12.893 -0.0513  0.2957  0.0182
57100CHOL    R194350   2.443  30.531  12.915 -0.1190  0.1101  0.0503
57100CHOL    R294351   2.221  30.366  12.917 -0.0000 -0.0479  0.1139
57100CHOL    R394352   2.166  30.496  13.149 -0.0539 -0.0530  0.1045
57100CHOL    R494353   1.913  30.370  13.073  0.0490 -0.3355  0.2216
57100CHOL    R594354   1.944  30.581  13.119 -0.1544 -0.2907  0.1633
57100CHOL    C194355   1.681  30.494  13.382  0.0271 -0.5076  0.2757
57100CHOL    C294356   1.585  30.692  13.585  0.2028  0.0604 -0.2250
57101CHOL   ROH94357   6.383  13.611  16.008 -0.1178 -0.0913 -0.0486
57101CHOL    R194358   6.518  13.757  15.807 -0.1070 -0.0609 -0.0191
57101CHOL    R294359   6.674  13.636  15.614 -0.0294 -0.0242  0.0225
57101CHOL    R394360   6.513  13.774  15.443 -0.0223 -0.0693 -0.0209
57101CHOL    R494361   6.739  13.684  15.278  0.1387  0.1427  0.0772
57101CHOL    R594362   6.665  13.889  15.298 -0.0120  0.0876  0.1112
57101CHOL    C194363   6.625  13.841  14.922  0.2431  0.1974  0.0686
57101CHOL    C294364   6.824  13.816  14.701 -0.0158 -0.0793 -0.0030
57102CHOL   ROH94365   1.272  33.682  10.665 -0.0192  0.0965 -0.0003
57102CHOL    R194366   1.120  33.704  10.903  0.0306  0.0565  0.0351
57102CHOL    R294367   1.236  33.752  11.149  0.0801  0.0378  0.0156
57102CHOL    R394368   1.059  33.959  11.156  0.0638  0.0225  0.0775
57102CHOL    R494369   1.131  33.914  11.436  0.2858  0.1324  0.0381
57102CHOL    R594370   0.930  33.920  11.353  0.2206  0.0816  0.1925
57102CHOL    C194371   0.905  34.202  11.609  0.3903  0.1729  0.1094
57102CHOL    C294372   0.901  34.556  11.777  0.0079 -0.3165  0.1031
57103CHOL   ROH94373  23.822  16.119   9.084  0.1527 -0.0609 -0.0363
57103CHOL    R194374  23.567  16.242   9.096  0.1856  0.0101 -0.0562
57103CHOL    R294375  23.395  16.248   8.880  0.1678 -0.0215 -0.0423
57103CHOL    R394376  23.221  16.136   9.056  0.1539  0.0867  0.0134
57103CHOL    R494377  23.052  16.231   8.836  0.1818 -0.1431 -0.1098
57103CHOL    R594378  23.028  16.277   9.048  0.1207  0.0330 -0.1543
57103CHOL    C194379  22.690  16.116   8.976  0.1777 -0.1123 -0.0966
57103CHOL    C294380  22.321  16.240   9.101  0.1366  0.0130  0.0190
57104CHOL   ROH94381  13.944  16.239  18.572 -0.1750  0.0613 -0.0066
57104CHOL    R194382  13.840  16.165  18.319 -0.0175  0.0347 -0.0631
57104CHOL    R294383  13.580  16.218  18.243 -0.0337 -0.1661 -0.1477
57104CHOL    R394384  13.701  16.336  18.030 -0.0538 -0.0138 -0.0751
57104CHOL    R494385  13.418  16.317  17.954 -0.0777  0.1156 -0.0277
57104CHOL    R594386  13.588  16.245  17.839 -0.1193  0.1722 -0.1284
57104CHOL    C194387  13.436  16.487  17.587 -0.1220  0.4227  0.1105
57104CHOL    C294388  13.423  16.607  17.253 -0.2389  0.0498  0.2371
57105CHOL   ROH94389  24.120  10.626  10.964  0.1298  0.0660 -0.1106
57105CHOL    R194390  23.947  10.404  10.994  0.0309  0.1697  0.0928
57105CHOL    R294391  23.672  10.432  11.015  0.0188  0.2962 -0.2269
57105CHOL    R394392  23.671  10.258  10.806  0.1706 -0.0615  0.0643
57105CHOL    R494393  23.398  10.248  10.912 -0.0206  0.4230 -0.3506
57105CHOL    R594394  23.530  10.078  10.879 -0.1453  0.2147  0.1526
57105CHOL    C194395  23.237   9.978  10.657  0.0990  0.1610 -0.1492
57105CHOL    C294396  23.233   9.713  10.375 -0.1660 -0.2499 -0.0370
57106CHOL   ROH94397  24.613  30.168   9.332 -0.0620  0.1454  0.0434
57106CHOL    R194398  24.640  30.318   9.093 -0.0034  0.0204 -0.0290
57106CHOL    R294399  24.755  30.214   8.865 -0.1348 -0.1679 -0.0107
57106CHOL    R394400  24.521  30.292   8.750 -0.1026 -0.0415  0.0095
57106CHOL    R494401  24.720  30.309   8.535 -0.0877 -0.0311  0.0234
57106CHOL    R594402  24.585  30.468   8.600 -0.0340 -0.0074  0.0777
57106CHOL    C194403  24.480  30.438   8.234 -0.0308  0.1671  0.0619
57106CHOL    C294404  24.571  30.252   7.817 -0.2195  0.0930  0.0358
57107CHOL   ROH94405  18.108  33.824  10.373  0.1763  0.0173  0.0048
57107CHOL    R194406  18.336  33.836  10.540  0.1299  0.0652  0.0648
57107CHOL    R294407  18.448  34.075  10.622  0.1311  0.0886 -0.0050
57107CHOL    R394408  18.415  33.969  10.870  0.0491  0.1977  0.0314
57107CHOL    R494409  18.620  34.176  10.904  0.2926 -0.0244 -0.0626
57107CHOL    R594410  18.636  33.966  10.963  0.0633 -0.0271 -0.0048
57107CHOL    C194411  18.690  34.134  11.301  0.3102  0.0111 -0.0622
57107CHOL    C294412  18.818  34.431  11.364 -0.0916 -0.0084  0.1166
57108CHOL   ROH94413  14.696  20.923  20.503  0.0623 -0.0601 -0.1023
57108CHOL    R194414  14.659  21.077  20.268  0.0382  0.0576 -0.0216
57108CHOL    R294415  14.562  20.970  20.033  0.1598  0.1414 -0.1125
57108CHOL    R394416  14.379  21.170  20.054  0.0424  0.0267 -0.0397
57108CHOL    R494417  14.413  21.129  19.765 -0.0219  0.0740 -0.0515
57108CHOL    R594418  14.433  21.318  19.873 -0.1058  0.0755 -0.0423
57108CHOL    C194419  14.154  21.410  19.629 -0.2380 -0.0730  0.0521
57108CHOL    C294420  14.226  21.742  19.537 -0.1772 -0.0457  0.0761
57109CHOL   ROH94421  18.032  30.815  16.598 -0.3009  0.3310 -0.2811
57109CHOL    R194422  17.855  30.616  16.505 -0.0309  0.0671 -0.2390
57109CHOL    R294423  17.936  30.356  16.454  0.2444  0.0690  0.1717
57109CHOL    R394424  17.733  30.294  16.624  0.1025  0.1109  0.0194
57109CHOL    R494425  17.699  30.111  16.397  0.3902 -0.0582  0.1076
57109CHOL    R594426  17.548  30.245  16.480  0.2590 -0.0559 -0.1284
57109CHOL    C194427  17.370  29.910  16.523  0.3420 -0.0931 -0.0723
57109CHOL    C294428  17.188  29.543  16.500  0.0859 -0.0498  0.2230
57110CHOL   ROH94429   7.714  12.610  13.040  0.0184 -0.3622 -0.3681
57110CHOL    R194430   7.472  12.632  13.184  0.0902 -0.2074 -0.2687
57110CHOL    R294431   7.240  12.732  13.071  0.0712 -0.1941 -0.2174
57110CHOL    R394432   7.135  12.496  13.156  0.0338 -0.1153 -0.0425
57110CHOL    R494433   6.902  12.666  13.100  0.0595 -0.1373 -0.2214
57110CHOL    R594434   6.944  12.560  13.286  0.0174  0.0100 -0.1268
57110CHOL    C194435   6.606  12.406  13.197  0.0178 -0.0300 -0.0597
57110CHOL    C294436   6.259  12.211  13.178 -0.0856  0.1685 -0.0287
57111CHOL   ROH94437  22.167  15.616  13.383 -0.0083 -0.1693  0.1437
57111CHOL    R194438  22.022  15.770  13.194 -0.0401 -0.0737  0.2459
57111CHOL    R294439  21.974  15.683  12.937  0.0559  0.1266  0.1599
57111CHOL    R394440  21.715  15.733  13.002  0.0179 -0.0519  0.1479
57111CHOL    R494441  21.714  15.704  12.710  0.1398  0.4550  0.0916
57111CHOL    R594442  21.635  15.872  12.825  0.0538  0.2392  0.3555
57111CHOL    C194443  21.319  15.763  12.641  0.1529  0.4788  0.0404
57111CHOL    C294444  20.954  15.683  12.554  0.0575 -0.2451 -0.0202
57112CHOL   ROH94445  26.564  34.428  10.014 -0.1648  0.0852  0.2356
57112CHOL    R194446  26.468  34.425   9.748  0.0935  0.0778  0.1396
57112CHOL    R294447  26.272  34.598   9.659 -0.1099 -0.1885  0.0548
57112CHOL    R394448  26.457  34.657   9.468 -0.0171  0.2234  0.2643
57112CHOL    R494449  26.197  34.690   9.334  0.0505 -0.6622 -0.1197
57112CHOL    R594450  26.364  34.566   9.266  0.5274 -0.2174  0.2003
57112CHOL    C194451  26.327  34.798   8.965  0.2305 -0.5517 -0.0243
57112CHOL    C294452  26.227  34.821   8.615  0.0869 -0.2316  0.1015
57113CHOL   ROH94453   6.191  18.659  10.954 -0.0943 -0.1280  0.1783
57113CHOL    R194454   5.909  18.670  10.935 -0.0707  0.0221 -0.1219
57113CHOL    R294455   5.744  18.633  11.153 -0.3324 -0.2704 -0.3634
57113CHOL    R394456   5.642  18.873  11.076 -0.1405 -0.0961 -0.0842
57113CHOL    R494457   5.432  18.753  11.242 -0.2470 -0.1318 -0.2479
57113CHOL    R594458   5.409  18.829  11.039 -0.1711  0.1299 -0.1577
57113CHOL    C194459   5.155  19.048  11.221 -0.0172  0.1118  0.0814
57113CHOL    C294460   4.870  18.712  11.245 -0.0990  0.1626 -0.1682
57114CHOL   ROH94461  23.992  34.764   7.401 -0.1026  0.2284 -0.1338
57114CHOL    R194462  24.055  34.671   7.660  0.0162  0.1480 -0.1911
57114CHOL    R294463  24.075  34.839   7.878  0.1796  0.0905 -0.1589
57114CHOL    R394464  23.895  34.667   7.987  0.1945  0.1092 -0.1037
57114CHOL    R494465  24.021  34.797   8.217  0.2098  0.1652 -0.1451
57114CHOL    R594466  24.003  34.583   8.183  0.2131  0.1572 -0.0947
57114CHOL    C194467  23.820  34.611   8.516  0.2415  0.2259 -0.0852
57114CHOL    C294468  24.033  34.676   8.849  0.1901 -0.0230 -0.1632
57115CHOL   ROH94469   4.162  27.059  19.016  0.1998 -0.0381  0.1577
57115CHOL    R194470   4.393  27.140  18.874  0.0700  0.0591 -0.0002
57115CHOL    R294471   4.613  26.977  18.842  0.1994  0.2256  0.0281
57115CHOL    R394472   4.575  27.030  18.579  0.0399 -0.0025  0.0044
57115CHOL    R494473   4.848  26.926  18.594  0.1434  0.2619 -0.0326
57115CHOL    R594474   4.786  27.114  18.503 -0.0684  0.1390 -0.1450
57115CHOL    C194475   4.949  26.946  18.202 -0.0390  0.0689 -0.0903
57115CHOL    C294476   5.272  26.877  18.111 -0.2281  0.1927 -0.0226
57116CHOL   ROH94477  20.967  31.828  12.237 -0.2706  0.1084  0.0480
57116CHOL    R194478  20.944  31.659  12.011 -0.1474  0.1429  0.0096
57116CHOL    R294479  20.897  31.388  12.032  0.1383  0.0874 -0.0489
57116CHOL    R394480  20.689  31.444  11.866  0.0414 -0.0847  0.0128
57116CHOL    R494481  20.719  31.152  11.853  0.0191 -0.1026  0.3140
57116CHOL    R594482  20.716  31.290  11.684 -0.0746 -0.2861  0.1634
57116CHOL    C194483  20.420  31.067  11.593 -0.1413 -0.3745  0.5835
57116CHOL    C294484  20.266  31.097  11.243  0.1070  0.4889 -0.1765
57117CHOL   ROH94485  18.088   0.838  14.363  0.1778  0.1299 -0.0321
57117CHOL    R194486  18.014   0.923  14.104  0.1328  0.0140 -0.0578
57117CHOL    R294487  17.926   0.748  13.909  0.2177 -0.0895 -0.0034
57117CHOL    R394488  17.714   0.917  13.898  0.1331 -0.1982 -0.0535
57117CHOL    R494489  17.722   0.792  13.633  0.2903 -0.1566 -0.0684
57117CHOL    R594490  17.719   1.006  13.676  0.1644 -0.1642 -0.0393
57117CHOL    C194491  17.404   0.975  13.463  0.2535 -0.2977 -0.1530
57117CHOL    C294492  17.307   1.265  13.244  0.1251  0.2224 -0.0289
57118CHOL   ROH94493   5.325  23.670  19.365 -0.0832 -0.1019 -0.0151
57118CHOL    R194494   5.521  23.834  19.243 -0.1105 -0.0372  0.0275
57118CHOL    R294495   5.649  23.763  19.009 -0.0349  0.0042  0.0568
57118CHOL    R394496   5.560  24.006  18.924 -0.0965 -0.0254  0.0351
57118CHOL    R494497   5.796  23.951  18.758 -0.1837 -0.0603 -0.0801
57118CHOL    R594498   5.760  24.129  18.878 -0.1280 -0.0271 -0.1114
57118CHOL    C194499   5.798  24.287  18.533 -0.3282 -0.1261 -0.1798
57118CHOL    C294500   5.924  24.322  18.165 -0.2809  0.0769  0.0115
57119CHOL   ROH94501  13.613  34.622  14.769  0.0764 -0.0116 -0.2340
57119CHOL    R194502  13.661  34.881  14.874  0.1120  0.0366 -0.3671
57119CHOL    R294503  13.800  34.923  15.108 -0.2057  0.1154 -0.1905
57119CHOL    R394504  13.952  35.085  14.951  0.1501 -0.1191 -0.0953
57119CHOL    R494505  13.985  35.192  15.222 -0.0813 -0.0019 -0.1112
57119CHOL    R594506  13.923  35.304  15.045  0.2467 -0.0370 -0.2526
57119CHOL    C194507  14.235   0.116  15.141  0.3254 -0.2920  0.0243
57119CHOL    C294508  14.555   0.117  15.319 -0.0789  0.1452 -0.0761
57120CHOL   ROH94509   0.663  27.006  10.283 -0.1068  0.0501  0.1039
57120CHOL    R194510   0.611  26.732  10.328 -0.0666  0.0240 -0.0087
57120CHOL    R294511   0.662  26.608  10.569  0.0265 -0.0863 -0.0835
57120CHOL    R394512   0.401  26.534  10.550  0.0265 -0.0998 -0.0305
57120CHOL    R494513   0.514  26.355  10.753  0.0928 -0.1417 -0.1062
57120CHOL    R594514   0.404  26.296  10.574  0.0487 -0.1047 -0.0901
57120CHOL    C194515   0.182  26.140  10.842  0.1313 -0.1867 -0.0695
57120CHOL    C294516   0.244  25.863  10.968  0.0666  0.0667 -0.2577
57121CHOL   ROH94517  16.077   2.674  16.318  0.1614 -0.0685 -0.0108
57121CHOL    R194518  15.916   2.653  16.086  0.2835 -0.1343 -0.0904
57121CHOL    R294519  15.733   2.847  16.014 -0.0570 -0.3998  0.0464
57121CHOL    R394520  15.868   2.842  15.779  0.0417  0.0974  0.0868
57121CHOL    R494521  15.616   2.980  15.717 -0.1658 -0.2451  0.1569
57121CHOL    R594522  15.699   2.806  15.613  0.1607  0.0071 -0.0169
57121CHOL    C194523  15.676   3.052  15.323 -0.1366  0.3117  0.2591
57121CHOL    C294524  15.553   3.426  15.478 -0.0771  0.0105 -0.1080
57122CHOL   ROH94525   6.867  33.632  19.146  0.3019 -0.0187  0.1809
57122CHOL    R194526   7.100  33.664  18.988  0.3141 -0.1259  0.1772
57122CHOL    R294527   7.257  33.451  18.911  0.0578 -0.2311 -0.0641
57122CHOL    R394528   7.216  33.552  18.662  0.1332  0.0700  0.0441
57122CHOL    R494529   7.488  33.442  18.653  0.0013 -0.2502 -0.1139
57122CHOL    R594530   7.428  33.645  18.600  0.2348 -0.1217  0.1001
57122CHOL    C194531   7.583  33.531  18.270  0.0392  0.0211 -0.0419
57122CHOL    C294532   7.932  33.210  18.303  0.2931  0.0461  0.4481
57123CHOL   ROH94533  13.705  23.462  21.504 -0.1108  0.1485 -0.0971
57123CHOL    R194534  13.736  23.511  21.227 -0.1313  0.0313 -0.1209
57123CHOL    R294535  13.975  23.473  21.095 -0.0643  0.2422 -0.0659
57123CHOL    R394536  13.823  23.317  20.932  0.1421 -0.0320 -0.0002
57123CHOL    R494537  14.074  23.355  20.785  0.0233  0.3944 -0.0957
57123CHOL    R594538  13.872  23.395  20.711 -0.0762  0.0431 -0.0233
57123CHOL    C194539  13.988  23.140  20.452  0.2682  0.2258 -0.0523
57123CHOL    C294540  13.832  22.820  20.416 -0.1546  0.0828  0.0426
57124CHOL   ROH94541  24.039  17.974   6.807 -0.0610 -0.1163 -0.0724
57124CHOL    R194542  23.791  18.024   6.680 -0.0595 -0.1535 -0.0894
57124CHOL    R294543  23.570  17.863   6.715 -0.0859 -0.0930  0.0269
57124CHOL    R394544  23.450  18.097   6.785 -0.0410 -0.0277 -0.1138
57124CHOL    R494545  23.237  17.939   6.659 -0.0917 -0.0965  0.0557
57124CHOL    R594546  23.298  18.141   6.605 -0.0814 -0.1421 -0.1086
57124CHOL    C194547  22.931  18.202   6.691 -0.0525 -0.0373 -0.0599
57124CHOL    C294548  22.852  17.974   6.337 -0.0867  0.0453 -0.0312
57125CHOL   ROH94549   2.176  17.226   4.024 -0.2436 -0.0061 -0.0709
57125CHOL    R194550   2.089  17.323   4.276  0.0063 -0.0067  0.0167
57125CHOL    R294551   1.827  17.395   4.325  0.0987  0.2012  0.2134
57125CHOL    R394552   1.852  17.219   4.532  0.0885  0.1185  0.1446
57125CHOL    R494553   1.670  17.426   4.632  0.0186  0.0362  0.1899
57125CHOL    R594554   1.853  17.357   4.727  0.0115  0.0359  0.2041
57125CHOL    C194555   1.602  17.280   5.004 -0.0376 -0.1374  0.1114
57125CHOL    C294556   1.547  17.314   5.376 -0.2199 -0.0654 -0.2600
57126CHOL   ROH94557  17.781   0.515  14.520 -0.0409 -0.1443  0.1297
57126CHOL    R194558  17.701   0.514  14.248  0.0978  0.0740  0.0879
57126CHOL    R294559  17.465   0.399  14.163  0.2700 -0.0944 -0.1624
57126CHOL    R394560  17.421   0.644  14.055  0.0503 -0.0187  0.0936
57126CHOL    R494561  17.228   0.468  13.921  0.3077 -0.0863 -0.1973
57126CHOL    R594562  17.373   0.600  13.824  0.2104  0.1854  0.0187
57126CHOL    C194563  17.049   0.740  13.679  0.1231 -0.0104  0.0228
57126CHOL    C294564  16.860   1.003  13.431 -0.2814  0.1135  0.3550
57127CHOL   ROH94565  30.271  25.374   1.742  0.1627  0.1131  0.1278
57127CHOL    R194566  30.057  25.209   1.825  0.1429  0.1251  0.1006
57127CHOL    R294567  30.058  24.935   1.790  0.1013  0.1326  0.0378
57127CHOL    R394568  30.011  24.933   2.058  0.1147  0.0784  0.0397
57127CHOL    R494569  29.881  24.690   1.957 -0.1352  0.2455 -0.0440
57127CHOL    R594570  29.789  24.846   2.078  0.0280  0.2930  0.0199
57127CHOL    C194571  29.734  24.545   2.306 -0.2603  0.2608 -0.0899
57127CHOL    C294572  29.633  24.270   2.554 -0.0321 -0.3065  0.0081
57128CHOL   ROH94573   9.277  29.213  20.699 -0.1858 -0.1132  0.0441
57128CHOL    R194574   9.211  29.314  20.443 -0.1714 -0.1019  0.0450
57128CHOL    R294575   9.388  29.460  20.289 -0.1995 -0.0003  0.1077
57128CHOL    R394576   9.332  29.271  20.102 -0.0755  0.0041  0.0656
57128CHOL    R494577   9.340  29.523  19.953 -0.0764  0.0198  0.0935
57128CHOL    R594578   9.177  29.378  19.954 -0.0409 -0.0202  0.0120
57128CHOL    C194579   9.258  29.383  19.582  0.1117  0.0358  0.0456
57128CHOL    C294580   9.151  29.795  19.491  0.4057 -0.1326  0.0284
57129CHOL   ROH94581   7.577  22.116  15.759  0.2520 -0.3854  0.3844
57129CHOL    R194582   7.297  22.115  15.799  0.2085 -0.3149  0.0899
57129CHOL    R294583   7.153  21.882  15.838  0.1593 -0.2539  0.2665
57129CHOL    R394584   7.067  22.011  16.062 -0.0755  0.0678 -0.0014
57129CHOL    R494585   6.883  21.784  16.031  0.3322 -0.3428  0.4652
57129CHOL    R594586   6.828  21.994  16.052 -0.0508 -0.3880  0.0219
57129CHOL    C194587   6.646  21.848  16.354  0.2126 -0.0928  0.3294
57129CHOL    C294588   6.446  22.103  16.428 -0.1892  0.0520  0.2327
57130CHOL   ROH94589  16.717  17.231  14.578 -0.1182  0.1051 -0.1768
57130CHOL    R194590  16.810  17.102  14.811 -0.0414  0.2104 -0.1492
57130CHOL    R294591  16.953  17.234  15.007 -0.2344  0.3684 -0.1143
57130CHOL    R394592  16.759  17.135  15.170 -0.1720  0.1640 -0.1632
57130CHOL    R494593  16.970  17.226  15.353 -0.2743  0.3006 -0.1137
57130CHOL    R594594  16.880  17.028  15.348 -0.1045  0.2243 -0.1727
57130CHOL    C194595  16.798  17.128  15.706 -0.2391  0.0695 -0.1593
57130CHOL    C294596  16.811  17.154  16.032 -0.0446 -0.1810 -0.2079
57131CHOL   ROH94597   6.368   7.338  14.250 -0.1748  0.1806  0.0508
57131CHOL    R194598   6.153   7.228  14.396 -0.1132  0.0532  0.0459
57131CHOL    R294599   6.181   7.005  14.557 -0.0223 -0.0283 -0.0813
57131CHOL    R394600   6.073   7.168  14.746 -0.0114 -0.1543  0.0343
57131CHOL    R494601   6.096   6.907  14.877  0.0526 -0.2277 -0.1220
57131CHOL    R594602   5.916   7.029  14.862  0.0314 -0.2453 -0.0168
57131CHOL    C194603   5.945   7.003  15.241  0.1066 -0.4622 -0.0371
57131CHOL    C294604   6.001   6.648  15.441 -0.1720  0.2419  0.1544
57132CHOL   ROH94605  12.632  34.242  15.653  0.1856 -0.0070 -0.1812
57132CHOL    R194606  12.885  34.360  15.705  0.0812  0.1396  0.0021
57132CHOL    R294607  12.925  34.542  15.908 -0.1157 -0.0266  0.1922
57132CHOL    R394608  13.121  34.368  15.982 -0.0017  0.0528  0.0756
57132CHOL    R494609  13.188  34.619  16.118 -0.1366  0.0191  0.2014
57132CHOL    R594610  13.319  34.502  15.989 -0.0816  0.1682  0.1236
57132CHOL    C194611  13.526  34.501  16.309 -0.0415  0.1197  0.0973
57132CHOL    C294612  13.941  34.450  16.326 -0.0279 -0.2835  0.1245
57133CHOL   ROH94613  22.768  19.954  12.296 -0.0125  0.2534 -0.1217
57133CHOL    R194614  22.532  20.051  12.175 -0.0223  0.2209 -0.1281
57133CHOL    R294615  22.495  20.052  11.901 -0.0734  0.0836 -0.1231
57133CHOL    R394616  22.269  19.915  11.963 -0.0794  0.1449 -0.0090
57133CHOL    R494617  22.192  20.089  11.739 -0.1141  0.0782 -0.0478
57133CHOL    R594618  22.093  20.074  11.933 -0.0603  0.1638 -0.0145
57133CHOL    C194619  21.803  19.980  11.704 -0.1435  0.1323  0.1029
57133CHOL    C294620  21.555  20.087  11.528  0.1990 -0.1599 -0.0616
57134CHOL   ROH94621  17.201  12.909  14.089 -0.1399  0.2332 -0.0055
57134CHOL    R194622  17.152  12.797  14.344  0.0128  0.1945  0.0074
57134CHOL    R294623  17.150  12.524  14.389 -0.1209  0.1824 -0.0662
57134CHOL    R394624  17.333  12.586  14.580  0.0881  0.0147 -0.2093
57134CHOL    R494625  17.275  12.302  14.623 -0.3090  0.1224 -0.0219
57134CHOL    R594626  17.264  12.461  14.772  0.0158  0.2207 -0.1000
57134CHOL    C194627  17.519  12.231  14.938 -0.2228 -0.0701 -0.1305
57134CHOL    C294628  17.754  12.279  15.276  0.2355 -0.2247 -0.2152
57135W        W94629   0.265   6.144   3.621  0.0588 -0.0709 -0.1990
57136W        W94630  28.785  13.151  14.462  0.2089  0.3109 -0.2028
57137W        W94631   3.567  11.545   4.652  0.1377 -0.1613 -0.1362
57138W        W94632  24.862   3.265   4.619  0.4548  0.1575  0.3400
57139W        W94633  12.885  10.935   8.809  0.0139  0.0868 -0.0856
57140W        W94634  10.018   6.084  22.506  0.0041 -0.2784 -0.2192
57141W        W94635  10.625  13.089  11.644 -0.0327 -0.3382 -0.2346
57142W        W94636  12.944  19.545   3.693 -0.1199 -0.2045 -0.1627
57143W        W94637  23.997   3.101  20.781 -0.0412  0.2332  0.3015
57144W        W94638  30.872  23.451  20.326 -0.1474 -0.2998 -0.1371
57145W        W94639   6.733  25.868   8.847 -0.2436  0.0239  0.2116
57146W        W94640  14.639  18.661   2.774  0.1491 -0.0315  0.0499
57147W        W94641  26.046  34.596   0.741 -0.0742 -0.2888  0.2627
57148W        W94642  34.091  27.440  17.340  0.3208  0.1279  0.3231
57149W        W94643  27.986  12.804   6.502  0.2012 -0.1035  0.0525
57150W        W94644  18.142  31.755  18.585 -0.0540 -0.0608  0.2872
57151W        W94645  17.589   7.531   4.869 -0.0688  0.1050 -0.0008
57152W        W94646  14.157  31.587   4.829  0.0119 -0.0421 -0.2405
57153W        W94647  22.811   0.852  16.579 -0.1793  0.2979  0.2308
57154W        W94648  21.079  33.985  25.017 -0.0726  0.2383 -0.0308
57155W        W94649  15.118  12.740   6.726 -0.0635  0.2225 -0.1496
57156W        W94650  15.264  21.811  24.128 -0.1534  0.0706 -0.2972
57157W        W94651  33.228   0.754  21.691 -0.1382 -0.0075 -0.2162
57158W        W94652  18.927   8.336  25.000  0.3081  0.1098 -0.3099
57159W        W94653   4.613   3.742   5.031  0.3049  0.2489 -0.1972
57160W        W94654  16.620  14.467  18.713  0.0829  0.0923 -0.1615
57161W        W94655  23.471   3.188  13.837  0.4894 -0.1745  0.0600
57162W        W94656  15.924  10.596  21.406 -0.2473 -0.2728 -0.3146
57163W        W94657  19.182   5.071   4.524  0.3141  0.1429 -0.0133
57164W        W94658   0.764   1.879  20.587 -0.0963 -0.1187 -0.1025
57165W        W94659  21.227  24.801  17.173  0.1577 -0.0276 -0.2620
57166W        W94660  22.704  25.447  24.136  0.1346  0.0213 -0.4243
57167W        W94661  12.933  32.713  23.880  0.0692  0.0651 -0.2816
57168W        W94662  18.374  11.040   2.076  0.1452  0.1522 -0.0943
57169W        W94663   3.709  15.532  15.235  0.5275 -0.1497 -0.0401
57170W        W94664  17.413   2.267  25.317  0.3276  0.0016  0.3080
57171W        W94665   3.368   6.271   7.105  0.2247  0.0579  0.1988
57172W        W94666  28.812   2.794  25.872 -0.0496 -0.2863  0.1717
57173W        W94667   8.303   9.521   4.709 -0.1506  0.0529  0.3082
57174W        W94668  20.846   0.211  18.307 -0.1694 -0.0141 -0.4821
57175W        W94669  10.311  35.243  12.018 -0.0219 -0.2042  0.4742
57176W        W94670  12.372  26.867  11.481 -0.0145  0.1964  0.0677
57177W        W94671  13.466   8.247  21.772 -0.0051 -0.0423  0.0547
57178W        W94672  31.018   0.385  24.948  0.0333  0.6398  0.1049
57179W        W94673  10.155  27.403  25.569  0.1578 -0.1884 -0.0530
57180W        W94674  29.848  16.984  10.813 -0.0260  0.0507  0.0663
57181W        W94675  12.892  32.620   5.234 -0.0600 -0.1108 -0.0010
57182W        W94676  10.818  33.995  11.661  0.1788  0.1818 -0.0883
57183W        W94677  15.627  14.277   6.465 -0.0676 -0.0077  0.0450
57184W        W94678   9.090  26.268   7.007 -0.1728 -0.0154 -0.0840
57185W        W94679  10.475  32.494   8.804 -0.0892 -0.2415  0.4044
57186W        W94680   4.424  28.285   9.449  0.2620 -0.2137 -0.0013
57187W        W94681  23.469   3.986  22.628 -0.1240  0.1637 -0.2897
57188W        W94682  30.088   2.872  17.959 -0.0020  0.0062 -0.1354
57189W        W94683  28.452   2.083  21.484  0.0452  0.0232 -0.0204
57190W        W94684  20.799  29.378   6.393  0.3221  0.2531 -0.0286
57191W        W94685  11.788  20.146   0.268 -0.3138 -0.3694  0.1487
57192W        W94686  26.981   7.782  17.648 -0.0442 -0.1213  0.3992
57193W        W94687  21.078   4.316  15.996  0.2520 -0.1364 -0.0556
57194W        W94688   0.816  33.406   0.504  0.0885  0.1405 -0.1238
57195W        W94689  10.566  21.471  12.344  0.1055  0.2721  0.2541
57196W        W94690  32.571  27.771  22.179 -0.0391 -0.2344  0.1653
57197W        W94691  33.705  27.901  24.614 -0.0534 -0.0022 -0.0056
57198W        W94692  10.413   5.980   5.994 -0.1293  0.2512  0.0292
57199W        W94693  35.070  31.763   3.116 -0.0004 -0.2873 -0.0013
57200W        W94694  24.257   8.107  23.895 -0.3728  0.0840  0.2940
57201W        W94695  11.904   2.849   5.295  0.3042 -0.1483  0.2684
57202W        W94696  12.472  26.413   2.472  0.1463  0.2428 -0.2380
57203W        W94697   8.905  24.274   3.945  0.0303 -0.3204 -0.0417
57204W        W94698  18.555   6.422  17.032  0.0745 -0.1864  0.2499
57205W        W94699  26.485   6.477  14.977  0.3625 -0.2573 -0.0924
57206W        W94700   8.096   8.393   6.840  0.0648  0.0994 -0.0340
57207W        W94701  20.705  16.463   0.799  0.1979  0.0427  0.1154
57208W        W94702  34.594  18.520  14.960  0.1171 -0.3235 -0.1806
57209W        W94703  29.879  18.465   9.420  0.1973  0.0876  0.0097
57210W        W94704  11.629  14.495   0.701 -0.0620  0.0800  0.0785
57211W        W94705  14.790  31.766  24.250  0.2423 -0.2695  0.1097
57212W        W94706  27.991  18.283  11.091  0.0261  0.0027 -0.0755
57213W        W94707  23.537  30.059  22.013  0.1150  0.3866 -0.0812
57214W        W94708  14.955  14.232  13.069 -0.0266 -0.0753 -0.1844
57215W        W94709  17.671  16.867   5.854  0.2134  0.2589  0.2031
57216W        W94710   3.898   1.392   6.645  0.4059 -0.0499  0.1325
57217W        W94711  30.701   3.305  21.310 -0.1618  0.0846  0.1596
57218W        W94712  27.067  32.145  20.279 -0.2059  0.0055 -0.0600
57219W        W94713   6.099  23.762  23.790 -0.3463 -0.3700  0.0047
57220W        W94714   4.710  19.001   4.383  0.1172 -0.2453  0.3687
57221W        W94715  25.808  18.730  18.556 -0.2911  0.1625  0.2068
57222W        W94716   6.881  15.490   6.464  0.1585  0.0730  0.1498
57223W        W94717  31.862  14.204  12.889 -0.3373 -0.2806 -0.0518
57224W        W94718  31.495   2.164   0.602  0.7662 -0.0824 -0.0310
57225W        W94719  32.514   4.007  19.379  0.2133 -0.0385  0.2160
57226W        W94720  22.481  26.903  12.894 -0.1657 -0.2676  0.0488
57227W        W94721  22.569  11.654  23.853  0.2298  0.1038 -0.0649
57228W        W94722  15.639  18.372  14.062  0.0969  0.0213  0.2099
57229W        W94723  10.326  31.762  12.049  0.1252  0.1017 -0.1959
57230W        W94724   9.262  27.351   7.206 -0.0285  0.1687 -0.0362
57231W        W94725  17.918  18.325  11.742 -0.1251 -0.0086  0.1463
57232W        W94726  16.478  25.851  12.571 -0.2787  0.2454  0.1426
57233W        W94727   9.901  35.057   6.926 -0.0831  0.1608  0.0199
57234W        W94728  24.187   8.605  25.013  0.1520 -0.1030  0.2041
57235W        W94729  21.066  33.351  17.599 -0.0067  0.4703 -0.0674
57236W        W94730   1.438   5.703   0.504 -0.1938  0.1169 -0.1985
57237W        W94731  28.726  27.334  20.110 -0.1265 -0.2238 -0.0282
57238W        W94732  17.228  11.368  19.264 -0.0096  0.0793 -0.2758
57239W        W94733   1.357  34.239  17.831 -0.0419 -0.1281 -0.2080
57240W        W94734  24.110  14.238  23.173 -0.2008 -0.1825 -0.0408
57241W        W94735  16.114  26.737  25.627  0.0040 -0.1102 -0.0551
57242W        W94736   5.289  21.175   1.906 -0.0432  0.0470  0.0120
57243W        W94737   7.359  32.746   8.649  0.0933  0.0601  0.1696
57244W        W94738  19.471  24.266   9.580  0.0618 -0.0157 -0.3085
57245W        W94739   3.752   2.781  25.916 -0.2245  0.1073  0.0200
57246W        W94740  12.593  17.366  22.009 -0.0735 -0.1487 -0.1856
57247W        W94741  11.723  29.839   9.024 -0.1832 -0.2910  0.0157
57248W        W94742   2.518  13.548  15.906 -0.4666  0.1497 -0.2188
57249W        W94743   8.323   2.261  19.324  0.0323 -0.4447 -0.4110
57250W        W94744  29.095  18.067  19.357  0.2561 -0.3311 -0.0361
57251W        W94745  17.449  14.813   4.482 -0.2058 -0.2717 -0.1384
57252W        W94746  19.391  22.904   6.290  0.1840  0.0821  0.0678
57253W        W94747  15.215   2.425  24.587  0.2997  0.0888  0.3132
57254W        W94748  32.396   4.377   0.162 -0.2372 -0.2031 -0.1262
57255W        W94749  32.752  29.993  18.851  0.0474 -0.1199 -0.0441
57256W        W94750  22.031  31.750   0.288  0.0521 -0.1593  0.1232
57257W        W94751   0.667  11.612  15.407  0.0670 -0.0264 -0.4392
57258W        W94752  16.247  22.365   2.546  0.0994  0.1399  0.0890
57259W        W94753  10.136  32.207   5.260  0.1782 -0.1452 -0.1424
57260W        W94754   8.455   5.964   1.490 -0.2260 -0.0931 -0.2808
57261W        W94755  27.994   7.610  18.147  0.1319  0.3131 -0.0108
57262W        W94756   5.690   1.873  20.808  0.1084 -0.2671 -0.0935
57263W        W94757  29.654  17.381  24.001 -0.2013  0.1119  0.1274
57264W        W94758  19.238  11.952   8.881 -0.0531 -0.1083  0.2681
57265W        W94759   2.933  32.802   0.231 -0.0520  0.3200  0.0445
57266W        W94760  27.694  24.645  25.797 -0.0875  0.1627  0.4294
57267W        W94761  31.376  34.946  22.971 -0.1001  0.1972  0.1391
57268W        W94762  10.746  35.201  11.781  0.1100  0.0472 -0.3286
57269W        W94763  19.204  21.312   0.041  0.1772 -0.0091  0.0737
57270W        W94764  35.134  34.828   1.315  0.2066 -0.4017  0.0525
57271W        W94765  18.774  25.412   6.083  0.2970  0.0878  0.1569
57272W        W94766  17.129  35.034  22.381 -0.3069 -0.2103 -0.1351
57273W        W94767  27.762  34.647  25.723  0.2956  0.1682 -0.0398
57274W        W94768  24.427  31.181   6.340  0.1639 -0.1014 -0.2213
57275W        W94769  19.543  27.732  26.237  0.1896 -0.1221 -0.1433
57276W        W94770   0.341  15.182  10.030 -0.0203  0.1267 -0.0053
57277W        W94771  18.000   3.025   0.188  0.2470 -0.1232 -0.0231
57278W        W94772  21.490   5.894  23.824  0.0952  0.1277 -0.2719
57279W        W94773  14.830   7.109   3.438 -0.0026  0.2470 -0.1483
57280W        W94774   8.840  18.648   5.836 -0.0339 -0.0220 -0.1969
57281W        W94775  17.843  32.954   2.186 -0.1397  0.2007 -0.0602
57282W        W94776  10.198   7.252   7.346 -0.0133  0.0744 -0.1643
57283W        W94777  30.424  30.301  11.596 -0.2066  0.0753  0.1522
57284W        W94778  19.688  19.246  22.043 -0.1176  0.3378  0.3676
57285W        W94779  33.680  21.449  18.996 -0.2754  0.0004  0.0565
57286W        W94780   8.799  28.582  10.311  0.0652 -0.1927  0.0484
57287W        W94781  28.891  29.756  15.130 -0.2601 -0.5072 -0.3589
57288W        W94782  10.500  14.955   8.649 -0.1411  0.0609  0.0823
57289W        W94783  28.300  18.711  22.692  0.0745 -0.1011 -0.0153
57290W        W94784  24.844  32.449  21.665 -0.1853  0.1468  0.0693
57291W        W94785  31.878  31.858   0.929 -0.0914  0.1638 -0.2458
57292W        W94786   8.063  35.158   3.923  0.2439  0.0370 -0.0100
57293W        W94787  15.793   7.174  22.659  0.2129 -0.1367 -0.1680
57294W        W94788  24.096   9.027  20.757  0.0924 -0.0927  0.0227
57295W        W94789  15.611   4.943  17.997  0.3473 -0.2483 -0.0744
57296W        W94790  32.887  20.727  17.997  0.0481  0.0292  0.3875
57297W        W94791   0.424   7.562  21.073 -0.2192  0.1237 -0.2627
57298W        W94792  31.898  21.350  16.399 -0.0266  0.0449  0.0688
57299W        W94793   4.606   1.914   8.389  0.0501  0.0030  0.0361
57300W        W94794   6.655  31.702  10.024  0.3186 -0.3206 -0.3996
57301W        W94795  25.585   5.565  21.826 -0.3881  0.1390 -0.2947
57302W        W94796   6.348  19.953  22.562  0.1230  0.0198 -0.2320
57303W        W94797  25.458  26.964  14.938  0.0748  0.1591  0.3429
57304W        W94798  12.149  14.657  10.781 -0.1707 -0.2014 -0.2110
57305W        W94799  26.769  20.412  10.356  0.1612  0.0884  0.0775
57306W        W94800  15.869   0.032  23.544 -0.2426  0.1838  0.2479
57307W        W94801  31.526  25.721  18.782  0.2261 -0.0695  0.1016
57308W        W94802   0.808  15.596  18.025 -0.2215  0.1076 -0.0970
57309W        W94803  33.736  19.868  12.616 -0.2739  0.1558 -0.3802
57310W        W94804  19.218  15.094  19.324  0.1760 -0.0573 -0.1697
57311W        W94805  25.487  11.346   2.219  0.3172 -0.3249 -0.2050
57312W        W94806  26.630  17.002  12.577 -0.0637 -0.2362  0.2902
57313W        W94807   6.441  18.098   7.535 -0.1235 -0.0453 -0.2685
57314W        W94808   1.915  19.608  14.496 -0.1972  0.0287 -0.0155
57315W        W94809   8.918  29.239   9.317 -0.1029  0.1257 -0.1467
57316W        W94810  29.278  24.996   0.644  0.1262  0.0892  0.0072
57317W        W94811   8.697  13.749  24.872  0.0124 -0.0023  0.2416
57318W        W94812   4.626  20.617   4.993 -0.0412 -0.0270 -0.3722
57319W        W94813  14.761   1.610   5.539 -0.2872 -0.2987 -0.1164
57320W        W94814  28.752  11.353  25.858  0.1316 -0.3380  0.2152
57321W        W94815  18.786  11.045   6.039 -0.3601 -0.2359 -0.0472
57322W        W94816  17.276   9.198  21.300 -0.2505 -0.1799 -0.0279
57323W        W94817   3.278   1.771  22.191  0.1988 -0.3323 -0.2133
57324W        W94818  20.598  14.912   2.921 -0.0005 -0.2009  0.0148
57325W        W94819   8.120  23.191  12.133  0.2855 -0.1917  0.1834
57326W        W94820  14.837   0.583   3.155 -0.0593 -0.0889  0.2579
57327W        W94821  28.443  26.762   8.818  0.0083  0.0414  0.1758
57328W        W94822  15.971   3.524  11.541 -0.3277  0.0524 -0.1805
57329W        W94823  32.018  23.767   7.715  0.0175 -0.0590 -0.0472
57330W        W94824  33.521  21.009   6.272 -0.0838  0.0904  0.1870
57331W        W94825  16.766  14.380  10.640  0.2023 -0.2335 -0.1399
57332W        W94826  14.185  16.739   0.571 -0.0058  0.1734 -0.1079
57333W        W94827  20.246   2.582   6.134  0.3029 -0.0678  0.0242
57334W        W94828   2.822  32.428  22.406 -0.3574 -0.2570 -0.0806
57335W        W94829  25.132  12.437   9.225 -0.3653  0.0817  0.2992
57336W        W94830  22.258  33.248  24.612 -0.0127  0.4671 -0.1707
57337W        W94831  25.122  16.510  22.075  0.3441 -0.1369  0.3290
57338W        W94832  14.264   6.787  21.648 -0.1260 -0.0355  0.0617
57339W        W94833  13.345  16.295   4.386 -0.0408 -0.0025 -0.1671
57340W        W94834  20.572  33.327   2.275 -0.2588 -0.0639 -0.0171
57341W        W94835  33.716   6.694  21.665  0.0748  0.0593 -0.0790
57342W        W94836   0.282  17.615  18.793  0.0075 -0.0246  0.4304
57343W        W94837  17.433  30.800   9.183 -0.1012  0.0643  0.3483
57344W        W94838  15.440  32.080  22.226 -0.0307 -0.0755 -0.3147
57345W        W94839  34.159  30.864   2.758 -0.1758 -0.2244 -0.0306
57346W        W94840   0.115  21.252  10.933 -0.0765  0.0405 -0.1604
57347W        W94841  24.651  29.390  14.829  0.0101 -0.2229 -0.1519
57348W        W94842  28.895  20.501  17.596 -0.2787 -0.1499  0.1307
57349W        W94843  22.467  28.553  12.059  0.0050 -0.0804  0.2235
57350W        W94844  26.957  25.221   9.001 -0.1582 -0.3156  0.3595
57351W        W94845  29.325  10.320   9.929 -0.0148 -0.0635 -0.0702
57352W        W94846  34.960  22.016  24.516  0.0671  0.1684  0.0568
57353W        W94847  29.886  10.130  17.482 -0.0625 -0.0181 -0.2556
57354W        W94848   1.807  12.367  16.148 -0.1099 -0.1986 -0.0170
57355W        W94849  26.065  11.982  19.971 -0.0925  0.1335  0.1973
57356W        W94850  14.408  16.094   5.614  0.0553 -0.1716 -0.1721
57357W        W94851   4.074  32.273   3.530  0.2495 -0.0489 -0.2574
57358W        W94852  26.199  22.509  10.504  0.1099 -0.2588 -0.1328
57359W        W94853  17.423  17.962  22.987  0.1626 -0.2001 -0.4130
57360W        W94854  30.696  20.181   8.241  0.0192  0.1794  0.0360
57361W        W94855   2.149  19.893  19.724  0.3033  0.2309 -0.1024
57362W        W94856   6.612  23.497   6.364  0.1178  0.0675 -0.0463
57363W        W94857   0.414  32.205  17.426  0.0637 -0.0978 -0.1074
57364W        W94858  12.220  15.292  10.559 -0.0461 -0.3344 -0.0263
57365W        W94859  27.555  12.238  14.996  0.0962  0.1319  0.1455
57366W        W94860  11.725   0.517   3.410 -0.5776 -0.2379  0.0256
57367W        W94861  21.262   4.517   8.277  0.2119  0.2708 -0.1065
57368W        W94862   1.146   9.776  23.173  0.1366  0.1554 -0.0073
57369W        W94863  15.253  26.753   8.655 -0.0115 -0.0948  0.0562
57370W        W94864  26.413  31.747  17.948 -0.3996  0.0177 -0.1302
57371W        W94865  12.314   2.827   6.478  0.0646 -0.0314 -0.0332
57372W        W94866   8.725  26.497   3.989 -0.1606  0.1180  0.0804
57373W        W94867  19.273  29.705  20.191 -0.2534  0.1270 -0.2048
57374W        W94868  16.889  21.138  13.456 -0.0505  0.1561  0.2054
57375W        W94869  15.158  34.308  19.732 -0.0298  0.0119  0.3206
57376W        W94870  24.283   6.909  15.731  0.1045 -0.1693  0.2260
57377W        W94871   1.071  23.085  19.834 -0.0212 -0.2699 -0.1588
57378W        W94872  20.350  20.133  25.469 -0.1380 -0.3242  0.3186
57379W        W94873  24.191   9.561  23.579  0.3237 -0.0492 -0.0442
57380W        W94874  17.468  19.742   0.910 -0.2110  0.0442  0.2150
57381W        W94875  24.288   1.906   5.637  0.1870 -0.0243  0.1504
57382W        W94876  23.619  12.399  17.527 -0.3822  0.0299  0.0286
57383W        W94877  12.939  12.392  14.513 -0.1418 -0.1197 -0.1577
57384W        W94878  14.037  29.884   3.728  0.2968 -0.1934  0.0098
57385W        W94879   4.500  11.495   5.835 -0.3687 -0.0864 -0.2533
57386W        W94880  22.050   7.866   6.631 -0.0086  0.0079  0.2585
57387W        W94881  15.300  25.153  16.183 -0.1987  0.0130 -0.2434
57388W        W94882  32.247  25.424  24.676  0.1921 -0.0995  0.0309
57389W        W94883   5.885  25.604   7.184  0.2818  0.0275  0.0216
57390W        W94884  31.918  14.290  12.169 -0.1478 -0.6446 -0.0324
57391W        W94885  10.626  26.118   3.092  0.3768  0.1314  0.1100
57392W        W94886  23.746  15.130  19.663 -0.0642 -0.1024  0.0652
57393W        W94887  30.474   5.310  21.664 -0.0041  0.0335 -0.1426
57394W        W94888   7.719  30.823  21.208 -0.2810  0.2680 -0.2399
57395W        W94889  33.537  12.911  10.894 -0.2576  0.0478 -0.0759
57396W        W94890  32.462  14.169  15.799 -0.4185  0.0541  0.1409
57397W        W94891  14.302  15.550   2.820  0.1338  0.1359  0.2946
57398W        W94892   3.551   7.821  17.474 -0.3921  0.0952 -0.0985
57399W        W94893  11.381   0.111  25.986 -0.0830  0.2507 -0.3911
57400W        W94894   7.513   1.580  13.779  0.1322  0.0779 -0.0534
57401W        W94895  29.885   9.050  11.612  0.1874  0.5086 -0.0843
57402W        W94896  28.796  33.686   4.692  0.1280  0.1342 -0.0667
57403W        W94897  31.383   5.463  13.069  0.0375  0.1194  0.0799
57404W        W94898  22.698  23.559  24.590  0.2610  0.0560  0.0816
57405W        W94899  29.237  20.150  11.990 -0.0926 -0.1551 -0.0983
57406W        W94900  25.307   1.988  17.923 -0.0002 -0.1149  0.1085
57407W        W94901  10.581  21.203   3.878  0.0262 -0.3641  0.1884
57408W        W94902  29.594  14.390  16.273  0.0546 -0.0039 -0.2523
57409W        W94903   3.052  34.383   1.781 -0.3491  0.0238  0.0442
57410W        W94904   1.820  24.347  15.935 -0.1804  0.0963  0.1812
57411W        W94905  20.304   6.061   9.608 -0.1020  0.1654 -0.2165
57412W        W94906  19.225  34.630  22.541 -0.0981 -0.0252 -0.0856
57413W        W94907  12.714  28.721  22.958  0.1163 -0.1482  0.1901
57414W        W94908  35.277  34.279  19.578 -0.1816 -0.2199 -0.0836
57415W        W94909  22.966  27.563  20.295 -0.1915 -0.2112 -0.0782
57416W        W94910  18.794  32.130   0.186  0.0586  0.2523  0.1694
57417W        W94911  21.535  26.253   1.094  0.2091 -0.0080  0.2634
57418W        W94912   1.746  15.763  11.164  0.3732  0.0500 -0.0213
57419W        W94913   0.609  28.780   1.820 -0.2249 -0.0786  0.1544
57420W        W94914   2.464   8.695   5.450 -0.1234 -0.2817 -0.1325
57421W        W94915  27.205  13.519  22.171 -0.0154  0.2240 -0.3046
57422W        W94916  15.701   1.556   8.165 -0.1163  0.2430  0.1156
57423W        W94917  26.415  30.245  19.398  0.0646  0.2293 -0.0449
57424W        W94918  28.179  11.010  23.490 -0.0420 -0.0050 -0.1342
57425W        W94919  24.070  28.090  17.314 -0.1425 -0.0624  0.1452
57426W        W94920   2.397   6.612   5.636  0.1165  0.0236 -0.1146
57427W        W94921  23.934  14.581  16.063 -0.1344  0.1355  0.3629
57428W        W94922  34.613   1.129   0.424  0.0983 -0.0707  0.3926
57429W        W94923  18.741  10.727   1.075 -0.1969  0.4039 -0.0287
57430W        W94924  16.179  28.660   1.166 -0.0069  0.0408  0.1138
57431W        W94925  13.916   7.377  12.140  0.0225 -0.0646 -0.2253
57432W        W94926   1.253  34.905   2.739 -0.2201 -0.0488  0.2918
57433W        W94927  28.002   5.765   0.067  0.1686 -0.0541 -0.2299
57434W        W94928  26.738  16.818  11.714  0.0499  0.2437  0.0525
57435W        W94929  17.104   1.464  25.764  0.1712  0.2511  0.0142
57436W        W94930   1.130  10.276  15.584 -0.0896  0.2061 -0.3222
57437W        W94931  20.423   3.902  16.682 -0.2282  0.0391 -0.1024
57438W        W94932  25.215  13.673  24.605 -0.1241 -0.5354 -0.1733
57439W        W94933   3.271  15.385  22.557  0.1501 -0.2698 -0.0892
57440W        W94934  12.635  31.068   3.542 -0.3047  0.3165 -0.2509
57441W        W94935  24.797  13.070  23.214 -0.0091  0.1083  0.1438
57442W        W94936  32.815  26.256   2.106 -0.0047 -0.3188 -0.2660
57443W        W94937  23.102   8.764  19.535  0.1062 -0.0282 -0.3587
57444W        W94938  21.378  32.077   7.294  0.0299  0.1484  0.1347
57445W        W94939   0.417   1.210  24.070  0.1557 -0.3055 -0.0555
57446W        W94940  25.761  18.690  11.557 -0.1810 -0.1106 -0.0888
57447W        W94941  24.190  13.636   2.098  0.0827 -0.0247  0.1128
57448W        W94942  13.638  19.907   4.249 -0.0040  0.0646  0.1590
57449W        W94943  22.252   1.071  16.682  0.0050  0.3119  0.3888
57450W        W94944  24.468  32.647  12.906  0.2771 -0.1516  0.2827
57451W        W94945  32.157  27.694  16.268  0.2187  0.1148  0.1024
57452W        W94946  25.937  12.716  20.157  0.2446  0.1922  0.2217
57453W        W94947  25.051  30.602  24.143  0.1706 -0.2864  0.0145
57454W        W94948  18.014   5.823  25.950 -0.2728 -0.0575 -0.2955
57455W        W94949  29.676  17.611  22.343  0.0197 -0.1607  0.0874
57456W        W94950  28.894  11.926  18.698 -0.1108  0.2048  0.0505
57457W        W94951  22.340  34.148  21.337 -0.3644 -0.0712  0.1647
57458W        W94952  21.586  27.528  13.929 -0.5619 -0.0195  0.2840
57459W        W94953  25.900  22.381  17.461  0.1966 -0.0658  0.2807
57460W        W94954  33.148  14.056  14.593 -0.0214  0.0030  0.0856
57461W        W94955  27.954   4.057  20.577 -0.1581 -0.2567  0.1582
57462W        W94956  30.079  24.593  11.731 -0.1413 -0.0498 -0.1641
57463W        W94957  34.907  12.676  17.943  0.0452  0.2194  0.2802
57464W        W94958  22.153  19.686   0.947  0.3590 -0.0179  0.0243
57465W        W94959   2.072  33.264  23.571 -0.2246  0.0685  0.0466
57466W        W94960  35.165  33.831  20.070  0.2836  0.0135  0.0919
57467W        W94961   9.456   6.573   5.896  0.1119  0.0673  0.2487
57468W        W94962  23.121  23.112  17.258  0.1287 -0.1786  0.0282
57469W        W94963   6.738  28.056  12.495 -0.2003 -0.0618 -0.0819
57470W        W94964  10.909   2.476  25.385  0.3666  0.3586  0.4349
57471W        W94965   2.996  18.635   2.628  0.2124  0.0615  0.1705
57472W        W94966  25.146  28.308   4.153  0.0271 -0.0784  0.2087
57473W        W94967  18.740   2.992   0.964  0.2021 -0.1674  0.0422
57474W        W94968  14.212  29.068  16.411 -0.4173  0.3524 -0.1270
57475W        W94969  24.847   8.722  11.583 -0.1435  0.2114  0.0161
57476W        W94970  24.942   2.536  16.449  0.2013 -0.1929 -0.0304
57477W        W94971   8.291  12.786  12.002  0.2524 -0.0757  0.0596
57478W        W94972  17.879  12.606   6.397 -0.1644 -0.2403  0.3875
57479W        W94973  23.986  23.155  13.805  0.1108  0.2067  0.2072
57480W        W94974  25.483   3.754  24.487 -0.0569 -0.0974 -0.3110
57481W        W94975   3.503  33.533   5.572  0.0144 -0.0276 -0.1491
57482W        W94976  21.400  18.472  23.763  0.3633  0.0836  0.3110
57483W        W94977  14.420  22.607   9.967  0.1522 -0.1310 -0.2781
57484W        W94978  11.278   1.494  12.327 -0.2014 -0.3565  0.3347
57485W        W94979  20.665   7.272   6.452 -0.0591  0.0478  0.3397
57486W        W94980   7.544  31.604   9.660 -0.1977 -0.0887 -0.1903
57487W        W94981  14.514  16.669  24.194  0.1691 -0.2426  0.0107
57488W        W94982  11.460   3.047   4.177 -0.1919 -0.3000 -0.1195
57489W        W94983  20.314  21.212  23.876 -0.3464 -0.3153  0.2024
57490W        W94984  18.340  27.011   2.026  0.0257 -0.3096 -0.0749
57491W        W94985  19.932  28.194  24.334 -0.0474  0.0245 -0.3370
57492W        W94986  22.451  30.610  21.152  0.1074  0.3516  0.0770
57493W        W94987  29.462   1.898   3.128 -0.1301 -0.0526 -0.0111
57494W        W94988  27.969  32.763  21.082  0.4303 -0.0619  0.0095
57495W        W94989  17.964  26.614  25.106 -0.1013 -0.3666  0.2304
57496W        W94990  11.384   7.447  21.938 -0.2581 -0.0587  0.0031
57497W        W94991  22.723   3.604   3.171  0.0467  0.0513  0.0833
57498W        W94992   7.248   8.740  18.998 -0.1626  0.4139 -0.1099
57499W        W94993  27.152   3.241  15.038  0.0520  0.1050 -0.3692
57500W        W94994   8.326   4.361   1.162  0.1993  0.1341  0.0045
57501W        W94995  18.636  31.387  21.838  0.2021  0.3495 -0.0977
57502W        W94996   0.661  12.932  14.851  0.0240  0.1833 -0.1236
57503W        W94997  10.981  19.432  10.221 -0.0539 -0.0913 -0.1887
57504W        W94998  23.576  31.788   3.267  0.1105  0.2179  0.0874
57505W        W94999   1.680  11.364  12.576  0.2438  0.3976  0.1738
57506W        W95000  24.013  32.771  11.151 -0.1629  0.0052  0.1414
57507W        W95001  32.874  22.047  14.426  0.0805  0.2025  0.1390
57508W        W95002   0.209  14.694   2.438 -0.0876 -0.1540  0.2293
57509W        W95003  16.705   3.210  10.616 -0.0992  0.1761 -0.3227
57510W        W95004  15.436   4.104   3.882  0.0986 -0.1613 -0.0366
57511W        W95005  33.905  10.979  12.336  0.3330  0.0861  0.2187
57512W        W95006   5.480  10.212   7.601 -0.0702  0.3181 -0.0869
57513W        W95007  12.112   7.022  13.604  0.0430  0.0472  0.0418
57514W        W95008   2.211  33.154   0.460  0.0850 -0.0620 -0.1155
57515W        W95009  26.611  18.802  18.745 -0.2206 -0.0267  0.0764
57516W        W95010  12.442  35.372  23.049  0.0478  0.3153  0.0687
57517W        W95011  16.997  19.657   1.522 -0.1575  0.0467 -0.0952
57518W        W95012  21.033   7.683  18.152 -0.3356  0.1973 -0.1920
57519W        W95013  13.667  22.537  24.784  0.0674 -0.2219  0.2118
57520W        W95014   5.982  17.839   7.345 -0.1249 -0.1505 -0.1436
57521W        W95015   5.508  23.210   9.402  0.1824  0.2040  0.2552
57522W        W95016  34.650  10.249  15.798 -0.0481 -0.2755  0.0195
57523W        W95017  25.131  21.728  22.242 -0.1378  0.3834 -0.1310
57524W        W95018  23.689   4.223  14.973 -0.0312  0.1059  0.0577
57525W        W95019  24.901  10.496  16.191  0.0187 -0.1741 -0.2544
57526W        W95020   3.434   3.087  24.252 -0.0316 -0.1171 -0.1995
57527W        W95021  24.179   0.309   3.109  0.1408 -0.1052 -0.1823
57528W        W95022  24.676  30.141  20.430 -0.1818  0.0144  0.2499
57529W        W95023  18.526   1.562   8.457  0.0612 -0.2180 -0.0561
57530W        W95024  12.270   9.821   3.901  0.0661 -0.2675  0.2707
57531W        W95025   3.274  19.178  23.074 -0.1479 -0.0580  0.0567
57532W        W95026   5.040  30.901  22.001 -0.1015 -0.1751  0.1064
57533W        W95027  10.838  10.978   1.452 -0.2425  0.2632  0.2038
57534W        W95028  22.427  28.040   3.665 -0.2210 -0.0299  0.1618
57535W        W95029  10.960  25.430   9.999  0.1988  0.0536  0.3829
57536W        W95030  27.520   4.893  26.033 -0.2715  0.1078 -0.5376
57537W        W95031  20.510  12.415   6.304 -0.1767  0.2285  0.0013
57538W        W95032   8.066  28.512  22.548 -0.1236  0.2465  0.0412
57539W        W95033  13.630  27.437  24.179  0.1146 -0.0470  0.0760
57540W        W95034  22.755  34.675  14.646  0.0538  0.3947 -0.0048
57541W        W95035  32.665  34.693  25.189 -0.1373  0.0725 -0.2280
57542W        W95036  24.086  10.213  16.890  0.1056 -0.0521 -0.2181
57543W        W95037   7.879  13.792   5.377  0.0541 -0.0772  0.3649
57544W        W95038  31.066  32.532  13.576 -0.2317 -0.2187  0.2243
57545W        W95039   1.165   1.329  22.256 -0.0204 -0.1984 -0.0736
57546W        W95040  22.054   9.818   2.945 -0.1052 -0.0406  0.0011
57547W        W95041   9.490  28.028   4.607 -0.3790 -0.0313 -0.2665
57548W        W95042  34.963  22.382  18.327  0.1713  0.3159  0.0748
57549W        W95043   0.761   4.950   0.825  0.1234 -0.0264 -0.1557
57550W        W95044  14.444  17.971   4.334 -0.0017  0.2877  0.1676
57551W        W95045  32.685  15.818   6.677  0.1209 -0.2816  0.1474
57552W        W95046  16.473  35.021   1.226  0.0948 -0.3461 -0.0055
57553W        W95047  32.207  23.401  25.067 -0.1917 -0.0672  0.2584
57554W        W95048   8.895  12.259   0.481 -0.0662 -0.0639  0.0758
57555W        W95049  27.018  24.810  12.799 -0.1885  0.2187  0.0004
57556W        W95050  27.511  33.727   3.648  0.2561 -0.0017  0.0921
57557W        W95051  25.399  21.846   0.216 -0.0031  0.0062 -0.2148
57558W        W95052  24.915  29.079  18.851  0.2526 -0.0506  0.0583
57559W        W95053  31.258  18.362  20.955  0.0203 -0.1134 -0.0373
57560W        W95054   6.263  11.547  16.746  0.1729  0.1321 -0.1938
57561W        W95055  11.070   5.321  11.455  0.1051  0.2716 -0.1268
57562W        W95056   6.614  20.378  25.654  0.1344 -0.1466 -0.2231
57563W        W95057  29.170  13.853  10.017 -0.0865  0.3100 -0.4112
57564W        W95058   3.216  31.939   7.597  0.4071  0.2296  0.3027
57565W        W95059  19.033  30.081  19.871 -0.3875  0.1422  0.3777
57566W        W95060  14.381  34.086  23.297 -0.0286  0.0681 -0.0158
57567W        W95061  16.210  17.210  23.628  0.1132 -0.2049  0.0073
57568W        W95062   6.580  33.933   3.073 -0.0839 -0.1782  0.2842
57569W        W95063   7.823  18.135   3.597 -0.0201  0.1217 -0.1146
57570W        W95064  24.731  19.153  22.631  0.2412 -0.0351 -0.2219
57571W        W95065  28.364   7.202  24.728  0.0872 -0.0391 -0.0765
57572W        W95066  10.336  20.505   5.441 -0.3291 -0.3262 -0.2443
57573W        W95067  12.060   7.997  14.418  0.2001 -0.1893  0.0443
57574W        W95068  10.360  12.353  12.624  0.1228  0.0594  0.1574
57575W        W95069  13.622  27.353  12.698  0.2468 -0.2394 -0.3483
57576W        W95070  32.178  12.504   6.619  0.1655 -0.1983 -0.2707
57577W        W95071  19.426   9.043   1.575  0.0655 -0.1566 -0.1046
57578W        W95072  26.084  24.634  25.189  0.1419  0.1326 -0.0304
57579W        W95073   1.555   6.452   2.706  0.1028  0.1755 -0.0450
57580W        W95074  29.228  25.407  23.759 -0.3051  0.0806 -0.1166
57581W        W95075  20.953  23.701   8.401  0.0339  0.0191 -0.3455
57582W        W95076  14.379  11.204   5.449  0.1566  0.0366  0.0491
57583W        W95077  16.603  21.414  24.796 -0.0994  0.1370 -0.2777
57584W        W95078  15.089  20.106   1.286  0.1813 -0.0563  0.3578
57585W        W95079   3.099  30.655   2.903  0.0253  0.3157 -0.2585
57586W        W95080  14.251  31.590  14.410  0.3518  0.0536  0.2041
57587W        W95081  28.958  34.405  18.966 -0.2016 -0.0409  0.1774
57588W        W95082   9.151   1.036   6.304 -0.0104 -0.1703 -0.1027
57589W        W95083   0.615  27.190  22.858 -0.1935  0.0461  0.0044
57590W        W95084  31.703  13.134  15.112 -0.0986 -0.0094  0.2332
57591W        W95085   5.426  29.165  10.006 -0.0619 -0.0864  0.0559
57592W        W95086  15.353  23.302  14.903  0.2507  0.0606  0.1378
57593W        W95087  21.541  16.676   4.188  0.0931  0.2264 -0.0980
57594W        W95088  21.214  27.168   6.972  0.2266 -0.3413 -0.3452
57595W        W95089  13.207  18.710  20.862  0.3337 -0.0937 -0.0881
57596W        W95090   1.902   3.923  16.952  0.4274 -0.1610  0.1434
57597W        W95091  15.137  26.540   9.649  0.3778 -0.2037  0.2236
57598W        W95092  22.442  26.040  15.428  0.1371 -0.1041  0.0641
57599W        W95093   0.594  35.236  16.854 -0.0823 -0.0268 -0.0288
57600W        W95094  32.879  16.893  20.652 -0.5486  0.0638  0.0195
57601W        W95095   3.656   8.593  22.557  0.1777 -0.2133  0.2779
57602W        W95096  20.182  29.075   7.462  0.3156  0.5714 -0.2623
57603W        W95097  25.762  23.920  11.394  0.3330  0.0157 -0.0618
57604W        W95098  32.494  20.220  16.241 -0.2755  0.0465 -0.3675
57605W        W95099   3.310   4.921   5.123 -0.0781  0.3256 -0.1535
57606W        W95100  12.035   8.636  11.460 -0.2055 -0.2492 -0.3242
57607W        W95101  32.697   7.782  10.087  0.0015  0.1465 -0.2585
57608W        W95102  34.594  24.359  18.867  0.3475  0.0668  0.0641
57609W        W95103  19.388  34.689  23.471 -0.1898  0.1604 -0.0911
57610W        W95104  29.944  31.393   4.542 -0.1775 -0.1579 -0.1589
57611W        W95105   4.612  17.915  22.075  0.0066  0.1366  0.1222
57612W        W95106  19.869   5.199   8.088 -0.0830 -0.0941  0.0817
57613W        W95107  11.876   5.006  19.528 -0.1041  0.1175  0.0951
57614W        W95108  14.695  12.820  14.089  0.0875 -0.0255 -0.0243
57615W        W95109   9.633  24.745  12.291 -0.0861  0.0221 -0.1154
57616W        W95110   6.154  16.926  23.472  0.1007 -0.0711 -0.5284
57617W        W95111  15.342  17.498  24.053 -0.1779  0.0800  0.6005
57618W        W95112   0.474  32.313  16.557 -0.1488 -0.3877  0.3067
57619W        W95113  22.031  24.441  19.888 -0.1768  0.2870 -0.3693
57620W        W95114  30.954  26.230  20.167  0.2895 -0.1260  0.2137
57621W        W95115   6.211   9.609   3.239  0.3228  0.2711  0.0953
57622W        W95116  10.933  13.841   6.385  0.1701 -0.4248  0.1240
57623W        W95117   5.906  10.255   6.738  0.1538  0.0159 -0.1227
57624W        W95118  22.824   2.388  13.909  0.0730  0.2255  0.0222
57625W        W95119   9.061  20.785  22.215  0.3425 -0.2288 -0.0307
57626W        W95120  10.122   7.383  21.805  0.0071 -0.1117 -0.0948
57627W        W95121  25.351  23.528  12.213  0.1463  0.0974 -0.4594
57628W        W95122   3.150  30.633   9.477  0.0295  0.1598 -0.4589
57629W        W95123  14.688  27.348  15.572 -0.2423 -0.3270 -0.0506
57630W        W95124   6.373  28.107  13.758 -0.0474 -0.2293 -0.0600
57631W        W95125   9.395  32.334   5.006 -0.2349  0.0773 -0.1339
57632W        W95126  21.167  33.087  14.702  0.1812  0.0188 -0.2989
57633W        W95127  23.546  31.645  25.748  0.1284 -0.0810 -0.0068
57634W        W95128  22.852   8.106  23.567 -0.0323 -0.0767  0.0525
57635W        W95129  35.288  17.948  25.525 -0.2202 -0.0481 -0.0378
57636W        W95130  34.618  27.623   4.232 -0.0359  0.1353 -0.0281
57637W        W95131  20.181  13.834  20.807  0.0221  0.1837  0.0126
57638W        W95132  30.464  18.834  24.388  0.0795  0.0379  0.1333
57639W        W95133   7.746  20.710   8.140  0.4133  0.1499 -0.2733
57640W        W95134   4.584  21.913  24.873 -0.1293 -0.1199 -0.3368
57641W        W95135  15.322  18.189   1.689  0.0035  0.2545  0.1900
57642W        W95136  35.343   6.654   6.755 -0.0640  0.0673 -0.0366
57643W        W95137  12.455  31.977  16.464 -0.0878  0.0485  0.0069
57644W        W95138  13.093   5.723  23.798 -0.1670  0.1752 -0.0869
57645W        W95139  35.110  25.571  13.688 -0.2946 -0.0396 -0.2040
57646W        W95140  35.126  29.778   1.084 -0.0438 -0.1353  0.3051
57647W        W95141  25.248   8.653  25.825  0.2106 -0.0288  0.0302
57648W        W95142  34.119   8.930  25.185  0.1699  0.1612  0.1315
57649W        W95143   0.608  15.085   0.097  0.3361 -0.1364  0.3853
57650W        W95144  19.272  32.427   0.101  0.0552  0.1548 -0.1086
57651W        W95145  20.888  31.388   4.969  0.0349 -0.0980  0.0095
57652W        W95146   9.315  26.354  12.110  0.0349 -0.1273  0.1859
57653W        W95147  33.723  22.368   7.182 -0.2739 -0.0783 -0.1120
57654W        W95148   0.936  32.928   5.006  0.0780  0.0455  0.0943
57655W        W95149  10.651   5.794   7.579  0.1488  0.1220 -0.1644
57656W        W95150  23.482  24.960   0.509 -0.3199  0.0214 -0.1772
57657W        W95151  31.756   1.090   6.236  0.1923 -0.2801 -0.0915
57658W        W95152  29.469   3.053  21.419 -0.3793  0.0546  0.0215
57659W        W95153  29.641  31.812   1.226 -0.0389  0.0212  0.1879
57660W        W95154  32.867  22.607  17.655 -0.1817  0.2001 -0.0614
57661W        W95155   4.455  30.213  12.148  0.1042 -0.2556 -0.1003
57662W        W95156   9.216  23.806  10.006 -0.2814  0.1951  0.0287
57663W        W95157   1.819   8.772  24.167 -0.1195 -0.0838 -0.0525
57664W        W95158  16.889   0.344  21.962 -0.2197 -0.2133 -0.4360
57665W        W95159  11.794  16.457  19.992 -0.0321 -0.0699  0.2194
57666W        W95160   4.714   2.086   6.960  0.0387 -0.4638  0.1050
57667W        W95161   1.664   2.938   3.969 -0.0645 -0.1455  0.0626
57668W        W95162  27.750  29.221  12.244 -0.1487  0.0992 -0.0967
57669W        W95163  19.036   6.425   1.867  0.1592 -0.0107  0.0202
57670W        W95164  23.794   5.522   0.772 -0.0826  0.0950  0.1192
57671W        W95165  15.143  24.960  22.541 -0.0354  0.3560  0.1157
57672W        W95166   6.370  12.526   5.607  0.2030 -0.3505  0.3417
57673W        W95167   7.987  26.402  23.915  0.2795  0.1935 -0.3644
57674W        W95168   8.246  21.440  21.853 -0.0792 -0.0787 -0.1751
57675W        W95169  24.203   0.212   2.051 -0.0828 -0.2437  0.0201
57676W        W95170  23.395  23.351  13.264  0.0601 -0.0074 -0.0078
57677W        W95171  32.758  14.577  17.782 -0.0781  0.2312  0.1090
57678W        W95172  23.394  17.911  18.775  0.0144 -0.0023  0.2562
57679W        W95173  11.274  20.105  12.964  0.1113 -0.4396  0.1153
57680W        W95174  29.502  13.466   8.966  0.0989  0.0430 -0.0218
57681W        W95175  34.598   5.863   4.234 -0.0837  0.0414 -0.1364
57682W        W95176  10.095   7.284  13.525  0.2408  0.1708  0.1398
57683W        W95177  13.952  17.064   6.000 -0.0458  0.0402  0.0404
57684W        W95178  30.836  16.197  10.112 -0.0790 -0.0053  0.1683
57685W        W95179  10.137  34.527  24.617 -0.0283  0.0639  0.4083
57686W        W95180  17.628  10.861  20.540  0.3134  0.1456 -0.1182
57687W        W95181  20.433  12.022  21.841  0.0053  0.3044  0.2403
57688W        W95182  33.956   5.064  18.078 -0.3182 -0.0121 -0.0001
57689W        W95183   8.305  16.353  23.115  0.0421 -0.0175 -0.1308
57690W        W95184  31.519  20.669  18.884 -0.0793 -0.0019 -0.3238
57691W        W95185  34.377  21.407  22.522  0.1905 -0.2460  0.3775
57692W        W95186  11.816  30.135  25.874 -0.0159 -0.1409 -0.0472
57693W        W95187  10.738  35.139   0.847 -0.0229 -0.2514 -0.0046
57694W        W95188  21.581  31.135  15.141  0.3436  0.2520 -0.4546
57695W        W95189  34.624  17.153  13.948 -0.2257  0.0681  0.2354
57696W        W95190  26.991  19.649  23.981  0.2271 -0.3821  0.4228
57697W        W95191  29.086  23.193   8.230 -0.0789 -0.3130  0.0252
57698W        W95192  27.869  27.617  23.543 -0.3685  0.1854  0.0147
57699W        W95193   8.178   2.315  20.979 -0.1006 -0.1551  0.1939
57700W        W95194  34.996   4.011   5.785 -0.3133 -0.2402 -0.1480
57701W        W95195  32.710   0.250   3.179  0.1180 -0.1173  0.1387
57702W        W95196  20.919  13.147  25.887  0.1401 -0.0106  0.0972
57703W        W95197  22.405  34.630   2.621 -0.0711  0.2162 -0.0303
57704W        W95198  23.241  34.660  23.665 -0.0432 -0.1607  0.2727
57705W        W95199  23.980   6.321  26.000 -0.0217 -0.0007 -0.1128
57706W        W95200   4.003  29.815  22.188 -0.1698 -0.2576 -0.1679
57707W        W95201  10.452   2.789   8.535  0.0832  0.0501 -0.3435
57708W        W95202   5.871  26.265   9.391  0.0214  0.3274 -0.0823
57709W        W95203   5.479  24.490   0.713 -0.1714 -0.3169  0.0665
57710W        W95204   7.036   2.895   2.514  0.0208 -0.1789  0.0302
57711W        W95205   3.969  14.052   2.085 -0.0668 -0.2162  0.2041
57712W        W95206  30.140  17.816  23.524 -0.0945 -0.0351  0.0756
57713W        W95207   0.072  14.624  23.140  0.1299  0.0071 -0.3670
57714W        W95208  11.278  24.847  12.638 -0.0551 -0.1733 -0.0410
57715W        W95209  31.259  23.611  15.817  0.1654 -0.1286  0.0079
57716W        W95210  20.341   9.003  10.535 -0.0478  0.1279  0.0612
57717W        W95211   9.616  15.361  20.597  0.3238  0.0505  0.0301
57718W        W95212  25.660  17.663  25.767  0.0840  0.1208  0.1243
57719W        W95213  19.684  34.891  24.120  0.1403 -0.0335 -0.0609
57720W        W95214   8.405  31.164  10.405  0.2374  0.0917 -0.0047
57721W        W95215  12.017   4.582  11.651 -0.1260 -0.0754 -0.4024
57722W        W95216   4.375  11.363  20.585  0.1346 -0.1242 -0.4392
57723W        W95217  13.669   0.523   8.663  0.1364 -0.2005  0.0466
57724W        W95218  31.373   1.987   5.706  0.3257 -0.0784  0.1333
57725W        W95219  31.583  14.803  10.362 -0.0134  0.2802 -0.1523
57726W        W95220  32.730   4.683  25.039 -0.1642  0.0970  0.0687
57727W        W95221  12.513   4.206  19.900  0.2097  0.1721  0.2260
57728W        W95222  31.674  20.077   7.108 -0.1036 -0.3183  0.0054
57729W        W95223  27.043   1.735  17.850 -0.0456 -0.0291  0.1658
57730W        W95224   0.910  16.276  18.644 -0.1726  0.0413 -0.2732
57731W        W95225  27.662   4.506  10.874  0.0343  0.1002  0.3183
57732W        W95226  17.904  12.161  19.281 -0.0234 -0.1274 -0.0668
57733W        W95227  18.942  27.851  26.219 -0.4164 -0.1282 -0.0169
57734W        W95228  30.615   1.967  18.328  0.2128 -0.1720 -0.0628
57735W        W95229  25.928   7.933  11.657  0.0226 -0.1631  0.0636
57736W        W95230  23.916  10.753  12.076 -0.0102 -0.0831  0.1268
57737W        W95231  14.046  33.491  19.833  0.3445  0.2598 -0.1864
57738W        W95232  30.758   9.639  21.092 -0.1186 -0.1154 -0.3809
57739W        W95233  17.130  10.562   9.775  0.1584 -0.1090  0.3671
57740W        W95234   6.339   7.815  25.412  0.3262 -0.3061 -0.0890
57741W        W95235  16.519  17.785   1.425  0.0155  0.0441  0.2130
57742W        W95236  17.358   2.551  17.282  0.0297  0.0977 -0.3229
57743W        W95237   4.301  30.012   2.221 -0.0469  0.0723 -0.4616
57744W        W95238  22.571  33.965   1.309 -0.4768  0.1998 -0.2234
57745W        W95239   4.544   3.886  24.663  0.0887  0.0096  0.0232
57746W        W95240  17.787  21.523   1.181 -0.0275 -0.1660 -0.0148
57747W        W95241  28.873  17.018  15.418 -0.3685 -0.2870 -0.0970
57748W        W95242  24.782  31.287   1.191  0.0288 -0.0170 -0.1086
57749W        W95243  19.241  13.837   9.561  0.3419 -0.1195 -0.2824
57750W        W95244  23.315  12.824   1.836 -0.1723 -0.1517 -0.3960
57751W        W95245   1.505   1.835  22.842 -0.0397  0.0921  0.0282
57752W        W95246  30.512  15.975  17.640 -0.0574 -0.3618 -0.1330
57753W        W95247   3.740  12.411  21.690  0.1320  0.0481 -0.1090
57754W        W95248  25.288  25.231   0.376 -0.0928 -0.0690  0.0136
57755W        W95249  19.816  11.282  19.454 -0.3364  0.1672  0.1598
57756W        W95250  20.311  19.417   2.185 -0.0374  0.0725 -0.0543
57757W        W95251  25.977  26.179  12.200 -0.2391 -0.0372 -0.0432
57758W        W95252  25.138  10.904  18.002 -0.1748  0.0800 -0.1112
57759W        W95253  26.015  24.057   9.495  0.0880  0.0149  0.1759
57760W        W95254   6.983   1.826   9.105 -0.3708  0.0501 -0.1194
57761W        W95255  31.446  23.331   9.352  0.2180  0.0585  0.2855
57762W        W95256  10.189  20.924   5.832 -0.1956 -0.2261  0.0033
57763W        W95257   7.257  20.884   2.488  0.0258  0.0790 -0.1028
57764W        W95258  10.038   8.587  23.640 -0.3379 -0.1186 -0.1718
57765W        W95259  17.410  34.461  21.949 -0.2488 -0.3540  0.1360
57766W        W95260  27.975  12.862  21.109  0.1134  0.0410 -0.1357
57767W        W95261  32.326  28.378  22.796 -0.0850  0.0019  0.1391
57768W        W95262   7.409  33.818   7.678  0.2477  0.1392  0.0826
57769W        W95263  21.455  30.979   1.871  0.0122 -0.1155 -0.0109
57770W        W95264  17.048  22.390   0.078 -0.2007 -0.0671  0.0634
57771W        W95265  28.263  32.655   0.772  0.2461 -0.2512 -0.1228
57772W        W95266  10.538  11.568   7.556 -0.0957  0.2150  0.0277
57773W        W95267  29.428   5.615  20.083 -0.3259  0.3802 -0.0936
57774W        W95268  11.075  21.278   4.670  0.0311 -0.1833 -0.0664
57775W        W95269  14.516  17.486  23.576 -0.1900  0.1726 -0.2151
57776W        W95270  10.832  34.167   4.179  0.2627 -0.0963  0.2346
57777W        W95271  22.661  11.791  17.724  0.1894  0.1333 -0.0268
57778W        W95272   8.269   4.207  12.277 -0.0035 -0.0704 -0.0086
57779W        W95273  32.988  33.475  12.509 -0.1638  0.1818 -0.0354
57780W        W95274  15.437  33.637   2.924  0.1315  0.0105 -0.0934
57781W        W95275  34.202  20.284  24.195  0.0440 -0.2977  0.1474
57782W        W95276  21.517  35.249   3.447 -0.0538  0.3107 -0.2294
57783W        W95277  26.477  11.954  13.660  0.1013 -0.1456 -0.0690
57784W        W95278  13.043   0.085  11.174 -0.1090  0.0597  0.2515
57785W        W95279   7.752   5.627  10.338  0.1874 -0.1786 -0.1550
57786W        W95280  14.638  10.749   8.764  0.0883 -0.3192  0.0011
57787W        W95281  25.936  32.847   6.014 -0.2238  0.3622 -0.0505
57788W        W95282   3.423   3.959   4.586  0.3224 -0.0694 -0.0843
57789W        W95283   0.084   0.840  14.762  0.2736 -0.3897 -0.0245
57790W        W95284   7.782  23.631   7.078 -0.1704 -0.1022  0.0067
57791W        W95285  18.489  34.780  18.659  0.1369 -0.0558 -0.2607
57792W        W95286   5.380  10.971  18.096  0.0558  0.4055  0.0667
57793W        W95287  15.044  33.446   7.240 -0.1809 -0.0075  0.1119
57794W        W95288   5.769  25.595  10.889  0.1041  0.0660 -0.0194
57795W        W95289   3.580   0.943  23.196 -0.3080 -0.1260 -0.2216
57796W        W95290  15.969  32.100  18.891 -0.2412 -0.1056  0.1474
57797W        W95291  11.320  29.515  13.063  0.3185 -0.1171 -0.1409
57798W        W95292  28.337  14.685  21.102 -0.4169  0.2730 -0.1234
57799W        W95293  16.610   9.824  24.067 -0.1714  0.1822  0.0411
57800W        W95294  27.667   8.135  19.390 -0.1303  0.1378  0.1216
57801W        W95295  17.049  32.067  18.722 -0.1303  0.4111 -0.3324
57802W        W95296   5.306  23.505   8.539 -0.0860  0.0370  0.3836
57803W        W95297  16.631  22.566  12.796  0.2958  0.1722  0.2961
57804W        W95298  10.430   9.702  10.233  0.0260 -0.0485  0.1701
57805W        W95299   6.188  32.408   9.025 -0.1662  0.3003  0.0939
57806W        W95300  23.084  31.542  26.060  0.0048  0.1514  0.2556
57807W        W95301  33.121   7.394  19.348 -0.2043  0.0771  0.0970
57808W        W95302  30.566  19.047   7.530 -0.2059 -0.0904  0.0306
57809W        W95303  28.847   3.115  23.884 -0.2822  0.0070  0.1130
57810W        W95304   8.811   4.209  22.389 -0.2900  0.1983  0.0318
57811W        W95305   5.876  18.036  22.286 -0.0290  0.0807 -0.2127
57812W        W95306   6.396  15.531  19.191  0.0916 -0.0131  0.0287
57813W        W95307  26.083   9.003  13.727 -0.2017 -0.0819  0.0043
57814W        W95308  18.576  33.377  24.686  0.0330 -0.0825  0.1907
57815W        W95309  32.234   3.419  15.593 -0.1880 -0.0269  0.2055
57816W        W95310  25.626  10.014  15.469  0.3498  0.3565 -0.3021
57817W        W95311  11.840   9.403  20.522 -0.0010 -0.1501  0.1957
57818W        W95312  21.025  32.085  22.219 -0.0676  0.0101 -0.1192
57819W        W95313  16.372   7.562   0.479  0.1264 -0.3387  0.1600
57820W        W95314  27.373  20.688   8.977  0.0454 -0.0637 -0.1837
57821W        W95315  23.110  35.103   0.905 -0.2511 -0.3856 -0.1228
57822W        W95316  23.366   8.500   2.711 -0.1347  0.1302  0.0758
57823W        W95317  16.351   3.552  10.664  0.0909  0.0794  0.2205
57824W        W95318  17.304  12.184  25.690  0.0715  0.0048  0.4502
57825W        W95319   7.032  29.620   6.099  0.1226  0.0168 -0.0180
57826W        W95320  10.508  21.591  17.659 -0.0951  0.2953 -0.1155
57827W        W95321  25.154  14.278  12.473 -0.0519  0.0134 -0.0874
57828W        W95322  27.413   6.542  22.507  0.0526 -0.0567 -0.2670
57829W        W95323  21.518  23.360  16.861 -0.1770  0.0285  0.2104
57830W        W95324  11.880   4.666   2.012 -0.1908 -0.2422 -0.2370
57831W        W95325   2.383   2.531  18.792 -0.0280  0.2073 -0.2964
57832W        W95326   6.954   0.640  13.298 -0.1784  0.0043  0.2211
57833W        W95327  18.594   4.136  24.629 -0.2392 -0.1655 -0.0988
57834W        W95328  22.375  11.930  24.749 -0.0055  0.5162 -0.2048
57835W        W95329  17.374  11.501  10.227  0.1933 -0.1210 -0.2050
57836W        W95330   7.642  20.124  22.443  0.2522  0.0653  0.1505
57837W        W95331  34.332  28.793  23.570 -0.0461 -0.0970  0.1339
57838W        W95332  34.162  11.351  13.344 -0.1036 -0.0805  0.3162
57839W        W95333   1.140  10.133  12.707 -0.1704 -0.1266  0.3461
57840W        W95334  35.172   0.605  19.618  0.0632 -0.1729  0.1112
57841W        W95335  28.513  15.480   0.239 -0.0521 -0.1762 -0.1136
57842W        W95336  22.800  26.119  22.525  0.2497  0.1813 -0.1331
57843W        W95337   5.436  22.633  25.665 -0.0079  0.3564  0.0317
57844W        W95338  28.250  29.373  26.142  0.0189 -0.0618 -0.0717
57845W        W95339  19.801  33.869   2.234  0.0977  0.0991 -0.0811
57846W        W95340  16.174   3.841  18.922 -0.0693  0.0933  0.3927
57847W        W95341  32.717   0.386  17.208  0.0289 -0.1639  0.0766
57848W        W95342  21.957  13.064  21.660  0.1082  0.2410  0.0184
57849W        W95343  34.177  13.838  13.100 -0.3386  0.1776 -0.1895
57850W        W95344   5.420  28.652   7.129 -0.2301  0.0582 -0.1559
57851W        W95345  24.011  30.855  18.843 -0.2744 -0.0339 -0.1379
57852W        W95346  16.109  12.565   7.941  0.1318 -0.2758  0.4305
57853W        W95347  17.885  20.146   3.911  0.1164  0.3494  0.1502
57854W        W95348  12.360  19.065   8.119  0.1837 -0.0927 -0.1251
57855W        W95349  23.072   7.031  20.436 -0.1374  0.2633  0.0394
57856W        W95350  26.346   3.842  16.032  0.0441 -0.1605 -0.1039
57857W        W95351  26.081  16.120   0.042  0.0074 -0.0666  0.0542
57858W        W95352   7.559  11.841  18.391  0.0921  0.1289 -0.2655
57859W        W95353   7.780  19.030  20.626 -0.2442 -0.0310 -0.0137
57860W        W95354   1.242   1.375  24.314  0.1547  0.0356 -0.0126
57861W        W95355  27.271  24.069  16.469 -0.2841 -0.0848 -0.1356
57862W        W95356  11.014   7.021   6.184 -0.0773 -0.3524  0.0676
57863W        W95357  28.305  19.674  13.358  0.1454 -0.0272 -0.0007
57864W        W95358  16.703   9.389  23.159 -0.0989  0.0100 -0.4126
57865W        W95359   2.135   2.353  20.629 -0.0719 -0.0039 -0.4845
57866W        W95360  31.025   8.374  23.505 -0.4987 -0.1059 -0.0810
57867W        W95361  22.757   1.718   7.748 -0.1353 -0.2074  0.2032
57868W        W95362   8.784  20.877  24.010  0.1254 -0.1386  0.0881
57869W        W95363  10.634  33.636   6.954 -0.0295  0.3097  0.0285
57870W        W95364  21.300  19.962  25.206 -0.0985  0.1744 -0.1710
57871W        W95365   6.825   4.059   6.542  0.0581 -0.0613 -0.1149
57872W        W95366  24.696   0.905  20.084  0.3904 -0.0649  0.1198
57873W        W95367   9.574  23.051  24.844 -0.0640  0.1329  0.0300
57874W        W95368   2.294   9.266  25.713  0.2109 -0.2728  0.1222
57875W        W95369   8.765  31.611  12.973  0.2160 -0.3808  0.0147
57876W        W95370   6.471   0.854   0.621 -0.3832  0.0217  0.0620
57877W        W95371  11.305  24.158   7.543  0.2554 -0.1045 -0.3788
57878W        W95372  34.189  16.432   0.583 -0.1315  0.0005  0.0547
57879W        W95373  14.147   9.170  12.972  0.0240 -0.1868 -0.2824
57880W        W95374   0.623  34.920   9.233  0.1560  0.0118 -0.0433
57881W        W95375  12.065  35.067  20.855 -0.0024  0.0214  0.0370
57882W        W95376  10.988   8.722  12.321  0.2166 -0.0866  0.0841
57883W        W95377  15.104  29.588  25.820 -0.2334  0.0728  0.4292
57884W        W95378  12.292  22.123  15.045 -0.0310  0.1094 -0.1648
57885W        W95379  15.509  33.456  12.124  0.1847  0.0001 -0.0263
57886W        W95380  20.107  11.869   6.881 -0.3816  0.0812 -0.0431
57887W        W95381  23.681   8.773  19.412 -0.2545 -0.1115  0.1282
57888W        W95382   8.219  12.758  25.524 -0.4201  0.1272 -0.0749
57889W        W95383  21.115  15.365   1.523  0.1499 -0.0759  0.1127
57890W        W95384   4.953  18.073   4.667  0.4882  0.0294  0.1554
57891W        W95385  17.291   6.192  21.249 -0.0858 -0.0409 -0.2345
57892W        W95386   8.941   5.258   3.935  0.0282  0.0831 -0.0819
57893W        W95387  18.369   2.520  18.151 -0.2076  0.0924  0.4261
57894W        W95388  18.982   1.756   3.778  0.1722  0.1456 -0.2325
57895W        W95389  29.182   1.901  17.014  0.1747 -0.1522  0.1925
57896W        W95390  28.913  26.624  20.618 -0.1020 -0.3228  0.1013
57897W        W95391  30.096  24.937   1.305 -0.2575  0.1825 -0.1754
57898W        W95392  15.985  16.456  13.450  0.0365  0.3334  0.2941
57899W        W95393  29.255  30.537  21.209  0.4838 -0.3926  0.0948
57900W        W95394   7.428  12.022  11.245 -0.0499 -0.2710  0.1459
57901W        W95395  22.295   1.147  18.628 -0.0555  0.1317 -0.1110
57902W        W95396   6.435  24.680  11.583  0.1223  0.1475 -0.0691
57903W        W95397  25.045  19.240  11.953  0.0036  0.5090  0.3054
57904W        W95398   6.468  31.017  23.691 -0.1946  0.1325 -0.1002
57905W        W95399  30.202  14.082   7.391  0.0343  0.0410 -0.0491
57906W        W95400  10.267  24.794   7.102  0.1679 -0.1468 -0.0696
57907W        W95401  29.163  16.291  20.911  0.0831 -0.1215  0.2999
57908W        W95402  17.666   7.558  11.641 -0.2104  0.1653 -0.0698
57909W        W95403   7.555  15.671   5.272 -0.2947  0.0574  0.1065
57910W        W95404   7.530   5.795  11.290  0.2126  0.2717 -0.0723
57911W        W95405  34.793   2.228   1.352 -0.1750  0.1721 -0.3329
57912W        W95406  18.956   0.596  24.030  0.0641  0.1219  0.1564
57913W        W95407  11.699  11.606  24.648 -0.1502  0.0414  0.1962
57914W        W95408  20.045  18.888  22.264 -0.0245  0.0989 -0.1313
57915W        W95409  29.280   2.845  16.832 -0.1415 -0.4100  0.2145
57916W        W95410  16.766  31.696  23.604  0.1632  0.2605 -0.3637
57917W        W95411   4.926  22.602  19.181 -0.0321  0.2572  0.1122
57918W        W95412  31.859  34.981   7.364  0.0001 -0.1610 -0.0434
57919W        W95413  21.275   3.505  16.430  0.1513 -0.0156  0.0330
57920W        W95414  21.497   9.829  24.150 -0.1420  0.1451 -0.2065
57921W        W95415  30.093  23.138  11.708  0.0391  0.3616 -0.0878
57922W        W95416   5.555  17.022  24.630 -0.0444  0.4533 -0.0380
57923W        W95417  31.636  11.542  23.559  0.3854  0.2521 -0.1486
57924W        W95418   8.034   3.443   9.789  0.0458  0.3928 -0.3456
57925W        W95419  22.062  21.799   0.427  0.1630  0.3343 -0.1545
57926W        W95420   3.679  16.495  22.742  0.1166 -0.2877 -0.1528
57927W        W95421  17.905  27.097  10.375 -0.1195  0.0716 -0.0591
57928W        W95422   0.058  31.163  24.012  0.0006  0.2901  0.0141
57929W        W95423  33.176  33.599  22.893 -0.1824  0.2036  0.2373
57930W        W95424  20.403   6.336  21.761  0.2571 -0.0485 -0.0005
57931W        W95425   3.868   5.709  19.456  0.0818 -0.0671 -0.3448
57932W        W95426  35.306   2.265  22.617 -0.4735  0.1942  0.0529
57933W        W95427  10.702  33.015   9.555 -0.1185  0.1529  0.1660
57934W        W95428  17.418  32.494  18.811 -0.1786  0.1972  0.0804
57935W        W95429  19.013   9.850   2.698 -0.1987  0.1276 -0.0275
57936W        W95430  26.136  25.422  14.422  0.0885  0.0783 -0.0938
57937W        W95431  15.359  25.709   1.628 -0.3725  0.0565  0.0578
57938W        W95432  20.389  34.727  19.991 -0.0070 -0.1006 -0.0462
57939W        W95433   7.523   4.390   7.887  0.0793 -0.3925  0.0625
57940W        W95434  26.067  29.751   3.997  0.1611 -0.1084 -0.1817
57941W        W95435  13.301  15.001   9.364  0.1366  0.0057  0.4694
57942W        W95436   1.552  24.544   2.935  0.0143 -0.1583 -0.1686
57943W        W95437   4.537  10.998   5.804  0.3242  0.5445  0.0543
57944W        W95438  24.154  34.389  14.602  0.4723  0.3614  0.0385
57945W        W95439  23.758   5.867   3.261  0.0641  0.1727 -0.2030
57946W        W95440  35.197  15.380   9.325 -0.3933 -0.2967 -0.0740
57947W        W95441   1.873  28.356  17.377 -0.0430 -0.1474  0.3607
57948W        W95442   6.299   8.941  24.979  0.0887  0.0395 -0.0896
57949W        W95443   8.774  16.252  19.376 -0.0404 -0.1279 -0.3462
57950W        W95444  15.234  21.561  10.180 -0.0170  0.2372  0.1062
57951W        W95445  29.523  21.900  21.079 -0.1687  0.4696 -0.0357
57952W        W95446  26.417   5.010   0.747 -0.0932 -0.2524 -0.1530
57953W        W95447  28.637  13.280  25.003 -0.0145  0.1694 -0.1522
57954W        W95448  15.916  25.453  23.160  0.0915 -0.0720 -0.0283
57955W        W95449  17.071  27.643  11.497 -0.0780 -0.0677  0.0332
57956W        W95450  12.288  31.869   7.698 -0.1515  0.0620  0.1352
57957W        W95451   4.186  19.024   4.684  0.0269 -0.1227 -0.1654
57958W        W95452  23.426   6.463  18.808 -0.2145  0.1633 -0.0804
57959W        W95453   3.471  16.716  23.246  0.1225  0.3785 -0.0321
57960W        W95454   1.668   8.047   0.884  0.2141 -0.5940  0.2528
57961W        W95455  27.147  11.152  12.955  0.3363  0.0707  0.1204
57962W        W95456   4.800  20.823   3.511  0.2936  0.2448  0.0146
57963W        W95457  26.343  23.069  19.405  0.0122 -0.1888  0.0341
57964W        W95458  32.612  21.049  20.471 -0.1140 -0.0043 -0.0424
57965W        W95459   9.606  34.422  25.971  0.1245 -0.0285  0.1579
57966W        W95460  20.307  20.494  23.809  0.2869  0.1897  0.3050
57967W        W95461  16.003  18.823  20.039  0.0614 -0.3336 -0.1123
57968W        W95462  34.738   3.267  15.372  0.4604 -0.2828  0.1039
57969W        W95463   2.076  21.938  24.584 -0.2683 -0.1071  0.0657
57970W        W95464  17.853  27.423  25.854 -0.1410 -0.1242  0.3160
57971W        W95465  17.547  16.344  10.502 -0.1447 -0.0149  0.0026
57972W        W95466  17.677  19.985   7.210 -0.3247  0.0421  0.0101
57973W        W95467   2.751  24.320  20.364 -0.0432  0.0924 -0.0199
57974W        W95468   9.800   5.553  13.465  0.0142  0.1540  0.0946
57975W        W95469   9.625  24.290   3.670 -0.2816  0.3198  0.2158
57976W        W95470  18.086  32.565  17.809 -0.0014  0.2625  0.1748
57977W        W95471  20.350  19.673  20.528 -0.0608  0.2274  0.2521
57978W        W95472  22.646   4.886  19.116 -0.0096  0.0802  0.1658
57979W        W95473   4.567   1.704   5.770  0.1431 -0.0563  0.0199
57980W        W95474  13.890  11.142   5.161  0.1642  0.2535 -0.3643
57981W        W95475  12.074  10.288  13.416 -0.0460  0.0613 -0.1680
57982W        W95476  16.726   8.187  19.548  0.0564 -0.2098  0.0690
57983W        W95477  27.967   6.625  21.702 -0.1472  0.0291  0.2745
57984W        W95478   1.723  15.884   2.341 -0.0428 -0.0880 -0.0122
57985W        W95479  13.881  29.376   3.624  0.0788  0.0308  0.1369
57986W        W95480  25.430  10.565  16.073  0.2480  0.0211 -0.0643
57987W        W95481   6.651  18.498   8.662  0.0015 -0.0807  0.0646
57988W        W95482  32.972   9.829   8.389  0.4494 -0.1019  0.0338
57989W        W95483  10.726   2.865  11.749 -0.1333 -0.3775 -0.2515
57990W        W95484  21.193  29.007  19.662  0.0108  0.0123  0.1534
57991W        W95485  30.752   8.577   8.796 -0.0870  0.1350 -0.1213
57992W        W95486  30.493  17.019  19.829 -0.0513 -0.0479 -0.0328
57993W        W95487  21.684   5.836   4.233  0.1617 -0.2615 -0.0909
57994W        W95488  10.529  28.369   0.478 -0.1491 -0.3142 -0.1704
57995W        W95489  22.561  28.944   2.873  0.2486  0.0802 -0.1771
57996W        W95490  26.721   3.698  25.013  0.0384  0.0775  0.0915
57997W        W95491  28.922   2.397   6.300 -0.1500 -0.0097  0.0362
57998W        W95492   4.897  12.270  19.623  0.1027 -0.0406 -0.0128
57999W        W95493   1.748   8.918   0.230  0.0209  0.0663  0.0172
58000W        W95494  22.754  27.628  21.220  0.0105 -0.1756  0.1300
58001W        W95495   1.175  25.297  24.237 -0.3247  0.0751 -0.0512
58002W        W95496  18.850   8.535   9.335  0.1236 -0.1559  0.1996
58003W        W95497   9.281  10.720  11.443 -0.3974  0.1717 -0.2142
58004W        W95498  20.873  27.261  26.012 -0.0959 -0.5230  0.3065
58005W        W95499  14.704  32.664   3.171  0.1004  0.3883 -0.2573
58006W        W95500  20.571  12.142  19.780  0.1431  0.1214  0.3628
58007W        W95501  19.495  20.448  21.274  0.3837 -0.0102 -0.1225
58008W        W95502  11.824  26.562   4.776 -0.0650 -0.1301  0.3268
58009W        W95503   1.272  13.651  25.097  0.2314  0.1290 -0.0553
58010W        W95504  18.813  10.433  21.555 -0.3687  0.1473  0.0769
58011W        W95505  30.352  15.539  10.017  0.0519 -0.1263 -0.2343
58012W        W95506  23.149  13.355  18.764 -0.0907  0.1603  0.0916
58013W        W95507  31.939  35.152  23.127 -0.2466 -0.0039  0.2849
58014W        W95508  30.656  10.298   9.740  0.1637  0.1919 -0.2546
58015W        W95509   7.217   2.881  10.094  0.0093 -0.1733 -0.1132
58016W        W95510  26.305  32.327  15.853  0.0956 -0.1565 -0.1202
58017W        W95511  12.925   5.285  10.155  0.3104  0.2148  0.1038
58018W        W95512   3.717   9.547   1.119  0.0433  0.0510 -0.1344
58019W        W95513  31.543   5.513  20.845 -0.0807  0.0073 -0.2295
58020W        W95514   0.194  29.554  25.851 -0.0522 -0.0156 -0.4402
58021W        W95515   5.127  32.437  19.982  0.1286  0.2329  0.1264
58022W        W95516  18.814  33.878   5.800 -0.3498 -0.1372 -0.3132
58023W        W95517  11.491  33.645  12.733 -0.1312  0.1385  0.1132
58024W        W95518  26.015  14.341   6.021 -0.1298  0.3313  0.1089
58025W        W95519  11.237   7.691   7.021  0.3228 -0.1302 -0.1724
58026W        W95520  11.459  30.153   5.010 -0.2051 -0.0145  0.2170
58027W        W95521  22.848   6.994   5.547  0.1126 -0.0855 -0.0209
58028W        W95522  33.865  14.090  11.457 -0.2017  0.3505 -0.2090
58029W        W95523  26.393   2.263  25.073  0.1696  0.3675 -0.0926
58030W        W95524   3.659  12.486  20.144 -0.1603 -0.2185  0.0882
58031W        W95525  30.618  25.299   9.717  0.0145 -0.0677  0.0202
58032W        W95526  12.720  30.412   7.917  0.2795  0.0669 -0.0154
58033W        W95527  10.303  31.070   4.717  0.0825 -0.2401 -0.2325
58034W        W95528   2.316  18.122  10.678  0.0154 -0.3396  0.1533
58035W        W95529  20.903  12.089   3.179 -0.1535 -0.2159  0.0284
58036W        W95530  11.466  20.731  10.496 -0.2032  0.1032 -0.0795
58037W        W95531  34.196  29.785  18.822  0.0613 -0.1059 -0.0966
58038W        W95532  32.773  14.217  18.554  0.1200  0.3167 -0.0104
58039W        W95533  29.062  33.475  12.141 -0.1044  0.3707 -0.2332
58040W        W95534  35.280  24.037  14.355 -0.0978  0.1648  0.0813
58041W        W95535  25.069  32.588  10.789 -0.0090  0.2951 -0.1479
58042W        W95536  11.638  26.340   3.276  0.0696 -0.1379 -0.0523
58043W        W95537   0.821   4.801  22.179 -0.0099  0.0052 -0.0718
58044W        W95538   6.710  15.578   4.142  0.1938  0.1925  0.0915
58045W        W95539  15.329  10.259   2.211 -0.0261 -0.2503  0.0775
58046W        W95540  20.399  16.548  16.801  0.0474 -0.2918  0.0669
58047W        W95541   7.273  10.261   4.101 -0.2732  0.0508 -0.1378
58048W        W95542   1.916  34.750   2.201 -0.1598  0.0988 -0.1190
58049W        W95543  34.104  25.314  25.022 -0.1815  0.2598 -0.1763
58050W        W95544  12.023   9.801   4.841  0.3532  0.0679 -0.1058
58051W        W95545  26.322   3.046  21.600  0.0894 -0.1066  0.1024
58052W        W95546   1.215  28.219   7.957  0.0611 -0.0153 -0.0373
58053W        W95547  29.580  20.319  17.050 -0.0884 -0.1080  0.2728
58054W        W95548  29.389  34.358   2.737  0.0691  0.2437 -0.1085
58055W        W95549  15.599  15.817  12.791 -0.1880 -0.3552  0.0742
58056W        W95550  25.064  30.591  14.818 -0.1028  0.0789  0.1397
58057W        W95551   1.404   3.092  14.589  0.0880 -0.5433  0.0476
58058W        W95552  15.794   5.487  25.099  0.2346  0.3243 -0.1337
58059W        W95553  11.818  28.348   3.604 -0.0705  0.2745 -0.0826
58060W        W95554  23.543  17.760   0.256  0.1694 -0.1957 -0.0936
58061W        W95555  32.310   3.461  21.306 -0.1467  0.1332 -0.0856
58062W        W95556  22.828  11.595  15.369  0.0432  0.0138 -0.0912
58063W        W95557  29.678   3.138  16.980  0.1252 -0.1316 -0.0574
58064W        W95558   7.395   5.544   9.039 -0.1310 -0.2917 -0.3352
58065W        W95559  23.878   7.148   1.649  0.0707 -0.1939  0.2422
58066W        W95560  18.619  28.554  21.911 -0.0463  0.2344  0.3192
58067W        W95561  24.628  12.685  24.029  0.1141  0.0029  0.1380
58068W        W95562  32.398   9.391  12.888 -0.2046  0.2142 -0.1572
58069W        W95563  11.528  24.162   9.918  0.2480  0.0823  0.0045
58070W        W95564  32.654   1.835  20.976 -0.2744  0.0360  0.1831
58071W        W95565  27.608  34.814   5.204  0.1416  0.1737  0.1131
58072W        W95566   8.864   7.433  22.793  0.6549  0.1528  0.0555
58073W        W95567  13.078  25.016   6.665  0.2617 -0.0234 -0.1793
58074W        W95568  29.382  20.942   9.621  0.1308 -0.0274  0.0701
58075W        W95569  12.513  22.949   2.452 -0.0106 -0.1205  0.1488
58076W        W95570   5.147  21.081   4.110  0.0025 -0.0523  0.3578
58077W        W95571  22.498  33.240   3.556 -0.0304 -0.1129  0.2748
58078W        W95572  24.585   5.554  21.226  0.0044  0.2553  0.4541
58079W        W95573   1.816  14.502  23.896  0.4374  0.1137 -0.2412
58080W        W95574  30.986  18.604   6.818  0.0909 -0.3821  0.3550
58081W        W95575  29.417  28.280  12.651  0.1875 -0.2826  0.0514
58082W        W95576  25.728   1.973  19.374  0.0402  0.0971 -0.2981
58083W        W95577  12.338  34.954  11.017  0.0154  0.3014 -0.2346
58084W        W95578  30.406   0.644   2.064  0.0272  0.1337 -0.0181
58085W        W95579  19.065  33.472  17.293 -0.2459 -0.0664 -0.2459
58086W        W95580  19.679   3.242   0.843 -0.0610 -0.2710 -0.2717
58087W        W95581  23.186  15.697  13.521 -0.0155 -0.3188  0.1182
58088W        W95582  20.727  20.783  21.298  0.0575 -0.1814 -0.0783
58089W        W95583   1.272   3.218   6.796 -0.2025 -0.0872  0.2414
58090W        W95584  18.464   5.814   3.235  0.3102  0.3785 -0.0010
58091W        W95585   5.770   3.249  25.480  0.4218  0.4371  0.0245
58092W        W95586  13.660  17.524   0.784  0.1598  0.2728 -0.0324
58093W        W95587  10.608  31.761   0.326  0.1580  0.0361  0.2798
58094W        W95588  23.954  10.492  24.521 -0.2560 -0.2806  0.0593
58095W        W95589  28.793   1.185  25.557  0.1742 -0.2605 -0.2174
58096W        W95590  21.663  29.575   4.605 -0.0776  0.1101 -0.1118
58097W        W95591  13.319  14.379   3.578  0.0584 -0.0547  0.1164
58098W        W95592  24.319  27.317  20.359 -0.1176  0.0483 -0.3960
58099W        W95593   0.976  10.643  20.189  0.1920  0.4872 -0.0927
58100W        W95594  29.400   9.423  20.628 -0.0693  0.3718 -0.0180
58101W        W95595  12.546  26.668   6.546 -0.0433  0.2272 -0.2570
58102W        W95596  13.750  17.229   9.256  0.0509  0.2534  0.0600
58103W        W95597  31.163  30.140  21.092  0.0640 -0.1837 -0.0456
58104W        W95598   0.695  29.459  23.818 -0.3192 -0.2530 -0.2312
58105W        W95599  24.882  23.862  17.545  0.2376  0.2199  0.1631
58106W        W95600   4.772  27.095  24.273 -0.2520 -0.3351  0.1116
58107W        W95601  30.354   9.206  11.207  0.1058 -0.1381 -0.3905
58108W        W95602  22.154  26.376   3.211 -0.4002  0.1600 -0.0717
58109W        W95603  13.738   1.705   5.493  0.2323 -0.1124  0.0094
58110W        W95604  29.538  33.650  19.403  0.3449 -0.2479  0.0994
58111W        W95605   2.095   5.335  19.576 -0.0063  0.0531 -0.3069
58112W        W95606  13.428  21.739  12.397  0.2586  0.1722  0.2459
58113W        W95607  12.862  25.826   1.118  0.2425 -0.0886 -0.0843
58114W        W95608  12.709   5.638  20.055 -0.0804  0.3305 -0.1142
58115W        W95609  11.913  20.409  11.864  0.1422 -0.2653  0.1226
58116W        W95610  33.265  34.440  15.437  0.1135  0.1624  0.6515
58117W        W95611  33.803  29.188  24.154  0.0020 -0.0618 -0.0371
58118W        W95612  27.623   9.663   6.751  0.0787 -0.3387 -0.2076
58119W        W95613  31.343  26.544  25.471  0.1048 -0.5141  0.1409
58120W        W95614  21.862   0.628  20.238 -0.1913 -0.1773 -0.1356
58121W        W95615  32.265  22.360  19.391  0.1138 -0.1203  0.2616
58122W        W95616   7.659  13.823  19.426  0.0318  0.0767  0.2885
58123W        W95617   7.615  13.373  24.955 -0.1986 -0.1158  0.0859
58124W        W95618   0.506   8.608  12.399  0.3549 -0.1187  0.3778
58125W        W95619  32.831  14.222   6.372  0.0269 -0.1929  0.1241
58126W        W95620   5.877  21.129   2.567  0.0880  0.1279 -0.2759
58127W        W95621  21.966   7.923  19.448  0.1261 -0.2588  0.2533
58128W        W95622  10.012  26.460  10.253  0.3054  0.1401  0.0669
58129W        W95623   9.858  17.266  13.700  0.1242 -0.1252 -0.2220
58130W        W95624  11.196   8.277  10.758  0.0797  0.2268  0.0437
58131W        W95625  15.726  19.403   8.256  0.2001 -0.0335 -0.0112
58132W        W95626  14.358   8.996   6.938 -0.3002  0.0339  0.1541
58133W        W95627   7.720   8.784  24.342 -0.1773  0.0400  0.1877
58134W        W95628   6.299  13.816   6.984 -0.0110  0.0891 -0.0197
58135W        W95629  27.031   1.004  23.125 -0.0542 -0.0183  0.5094
58136W        W95630   4.317   4.759  20.359 -0.0275  0.0550 -0.1820
58137W        W95631  15.039   2.145   9.022  0.0950 -0.0115 -0.2865
58138W        W95632  20.409   5.288   7.982 -0.3927 -0.0439  0.2248
58139W        W95633  29.130   2.861   5.342  0.0809 -0.3212 -0.1188
58140W        W95634  20.824  21.884  23.764 -0.4236  0.0646  0.0630
58141W        W95635   4.568   3.369  18.972 -0.3457  0.0276  0.2115
58142W        W95636   7.385  27.816  14.335  0.0648  0.0355 -0.4622
58143W        W95637  23.758  13.884  13.245 -0.1155  0.0704 -0.1039
58144W        W95638  10.258  21.938   7.732 -0.1778  0.0255 -0.0494
58145W        W95639  31.116  33.830   4.515  0.1889  0.1611 -0.0234
58146W        W95640  20.061   3.966   1.085 -0.0286  0.2068 -0.3792
58147W        W95641   6.007  28.067   7.563  0.1398 -0.0339  0.0791
58148W        W95642  29.766   4.343  11.595 -0.1216 -0.0665 -0.0756
58149W        W95643  15.699  10.505  10.510 -0.0729 -0.1370 -0.0372
58150W        W95644   2.995  15.459  18.825 -0.1057  0.3166  0.0505
58151W        W95645  26.984  22.832  22.082 -0.1256 -0.1556  0.2120
58152W        W95646  34.003  24.580  14.253 -0.0215 -0.1417  0.1194
58153W        W95647  31.231   4.056  17.065 -0.0515  0.0030 -0.0745
58154W        W95648   5.605  31.644  12.137 -0.0071  0.3292  0.0065
58155W        W95649  10.563  29.935  24.371 -0.4285 -0.0790  0.0286
58156W        W95650  24.723  35.261  14.615  0.2855  0.0014  0.1844
58157W        W95651  10.985  28.856   3.259 -0.1287  0.1742 -0.0822
58158W        W95652   7.790  15.445  22.524 -0.0810 -0.1642  0.0132
58159W        W95653  33.408  11.067  11.053 -0.2584 -0.3108 -0.3334
58160W        W95654  16.297  35.032  22.978  0.3357  0.1571 -0.2280
58161W        W95655  12.132  32.356   7.050 -0.1663 -0.0356 -0.1971
58162W        W95656  29.799  29.473  10.170  0.1284 -0.1207 -0.0313
58163W        W95657  20.755  16.860  17.709  0.1011 -0.2261 -0.0824
58164W        W95658   2.682   5.131  22.558 -0.5600  0.2089  0.3225
58165W        W95659  14.594  13.559  19.220 -0.0827 -0.0099 -0.0436
58166W        W95660  11.341   0.205  20.893 -0.2703 -0.0093 -0.3746
58167W        W95661  15.365  20.580  14.380 -0.3008  0.1868 -0.1734
58168W        W95662  11.546  31.538   4.959  0.0171 -0.1662  0.0770
58169W        W95663  24.318  34.418  17.069 -0.3920 -0.0879 -0.0206
58170W        W95664  27.638  24.616  20.867 -0.1942  0.2274  0.1321
58171W        W95665  15.223   4.749   6.304 -0.0378 -0.2103  0.2708
58172W        W95666   3.590  28.647   8.890 -0.0092 -0.1295  0.0084
58173W        W95667   5.858  12.298   8.798 -0.4319 -0.2432 -0.0733
58174W        W95668  15.119  28.204  22.470  0.0513 -0.0223 -0.0842
58175W        W95669  30.699  14.611  16.736  0.2877  0.1272  0.1373
58176W        W95670  29.010   3.250   1.224 -0.1216  0.5504  0.0510
58177W        W95671  29.308  26.350  14.823  0.2327  0.1729  0.7005
58178W        W95672   3.730  15.363  19.874 -0.0581  0.1468  0.0264
58179W        W95673  28.402  31.390  16.696 -0.4215 -0.1056 -0.2681
58180W        W95674  24.117  12.731  18.354 -0.2969  0.3024  0.2291
58181W        W95675  27.974   4.076   1.560  0.1157  0.0691  0.1156
58182W        W95676   1.758   3.677   5.724 -0.0131  0.3195  0.3228
58183W        W95677  10.809  29.079   5.192 -0.1556 -0.1904  0.2723
58184W        W95678   3.832  15.995  21.868 -0.1531  0.1546  0.0874
58185W        W95679   8.279   1.730  11.849  0.0114  0.0764  0.2017
58186W        W95680  20.104  30.542   2.877 -0.0955 -0.0709 -0.2934
58187W        W95681   6.482  19.877   3.114 -0.1261  0.0273  0.2484
58188W        W95682   4.276  20.514  20.413 -0.4634 -0.1227  0.1824
58189W        W95683  13.040   9.651  24.489 -0.0977  0.2394 -0.0056
58190W        W95684   3.512   8.759   3.600 -0.2201 -0.0311  0.0794
58191W        W95685  12.479  16.236   3.212 -0.0814 -0.0511 -0.1639
58192W        W95686  11.745  31.679   9.827  0.4560  0.1453 -0.1418
58193W        W95687  29.670  20.516  22.420 -0.2761  0.0359 -0.2383
58194W        W95688  30.607  19.061  16.591 -0.0921  0.1711  0.2132
58195W        W95689   2.057  15.452  19.381 -0.0288  0.1047 -0.0487
58196W        W95690  17.162  16.865  23.159  0.0777  0.1432 -0.0860
58197W        W95691  20.922  24.394  24.406 -0.0705  0.0156  0.1232
58198W        W95692  14.541  21.342   4.465 -0.0542  0.1960 -0.0880
58199W        W95693   2.527   5.664   6.831 -0.1917 -0.0737  0.0945
58200W        W95694  34.734  10.012  21.368  0.2668  0.1457 -0.1885
58201W        W95695  15.096  12.443  19.269 -0.0825 -0.0357  0.0426
58202W        W95696  29.446  31.556  11.690  0.0142 -0.0470 -0.0292
58203W        W95697   1.729  18.510  15.916 -0.0535 -0.0676 -0.0958
58204W        W95698  32.185  34.423  15.780 -0.1998 -0.1461  0.0282
58205W        W95699   7.964  10.787   4.006  0.2671 -0.0677  0.3101
58206W        W95700  15.247  15.573   3.396  0.1656 -0.0201  0.0079
58207W        W95701  17.955  21.677   0.176 -0.1404  0.0208 -0.2514
58208W        W95702  32.809  17.611  18.942  0.3221 -0.1686 -0.1955
58209W        W95703   7.427   8.391   8.456 -0.2657 -0.2216  0.1293
58210W        W95704  18.900  26.470  21.216 -0.4362  0.3205  0.0330
58211W        W95705  17.079  26.935  23.322  0.2787  0.0057  0.2314
58212W        W95706  23.395  35.016   1.779 -0.0276 -0.0620  0.0493
58213W        W95707  33.058  26.206  21.313 -0.2341  0.1734 -0.1672
58214W        W95708  35.274  32.641  23.236 -0.0018  0.2084 -0.0392
58215W        W95709   9.176  28.566  26.039  0.2764 -0.0317  0.2530
58216W        W95710   0.436  12.210  23.883 -0.0209 -0.0358 -0.0645
58217W        W95711  28.901   8.482  24.678 -0.5136  0.5204 -0.1492
58218W        W95712   8.931  16.206  25.361  0.0591  0.1812 -0.0015
58219W        W95713  13.469  24.589  12.497 -0.0874 -0.0747  0.0138
58220W        W95714  25.987  29.836  12.971 -0.0268  0.1816 -0.1650
58221W        W95715  17.436   7.148   4.448  0.0931  0.1409  0.2826
58222W        W95716   6.548   2.434  19.528 -0.1845 -0.0640  0.2953
58223W        W95717  34.240  20.122  14.173 -0.0207 -0.2072  0.1040
58224W        W95718  17.086   5.805  17.715 -0.5925  0.1269  0.0906
58225W        W95719  18.345  31.084   5.192  0.3251 -0.1764  0.0450
58226W        W95720  29.767   4.196  26.022  0.0073  0.0749 -0.0644
58227W        W95721  19.233  28.855   6.035  0.2445 -0.0868  0.0437
58228W        W95722  15.411   4.767   1.063 -0.1726  0.4117  0.2580
58229W        W95723  14.420   7.403   6.812 -0.2698  0.1024 -0.0723
58230W        W95724   6.636  33.954   5.138  0.1736 -0.1128 -0.0931
58231W        W95725  29.123   1.434  13.478 -0.1323 -0.3136 -0.2401
58232W        W95726  13.154  17.294  22.135  0.0798  0.5074  0.0127
58233W        W95727  35.181  35.107   9.402  0.0770 -0.1408 -0.1964
58234W        W95728  30.754  16.717  15.724  0.2135 -0.0753 -0.0606
58235W        W95729  27.267   3.610  26.207 -0.3139 -0.0339 -0.3017
58236W        W95730  14.744  15.289  14.519 -0.1031  0.0406 -0.0720
58237W        W95731  24.344  33.959  20.338 -0.1949 -0.2054  0.0764
58238W        W95732  28.639   0.255  13.949 -0.2195 -0.0734  0.1861
58239W        W95733  14.618   5.574   9.706 -0.0234  0.2508  0.0179
58240W        W95734  34.739  34.727   8.119 -0.0859 -0.0932 -0.1571
58241W        W95735  20.711  14.801  23.491 -0.1375  0.0503 -0.4716
58242W        W95736  25.377   8.918  12.094 -0.1505  0.0259 -0.0152
58243W        W95737   0.344  29.900  16.702 -0.1845  0.2846  0.0397
58244W        W95738  12.329   8.484  12.160  0.2082 -0.1042 -0.1587
58245W        W95739  32.214   3.726   4.857 -0.3928 -0.1427  0.1175
58246W        W95740  17.078  25.237   1.070 -0.2238  0.1683  0.1093
58247W        W95741   7.221   5.925   4.211  0.0093  0.0386 -0.4394
58248W        W95742  24.513   2.432   2.306 -0.0956  0.1207 -0.1010
58249W        W95743  18.908  21.985  23.714 -0.0384 -0.0441  0.0185
58250W        W95744   8.446  12.587  21.067 -0.1769  0.3590 -0.2463
58251W        W95745  12.049  18.940   4.755 -0.1925  0.3203 -0.1631
58252W        W95746   6.591  23.105   2.784  0.1787  0.0062  0.0138
58253W        W95747  24.459   6.191   0.529 -0.0195  0.1557  0.0885
58254W        W95748  25.099  26.633  13.836 -0.0568 -0.0878 -0.0801
58255W        W95749   6.319  29.827   4.443 -0.2449 -0.0443 -0.1256
58256W        W95750  34.256  23.424   1.700 -0.1125  0.3051  0.0121
58257W        W95751  21.205   2.638  16.262 -0.0527 -0.2266 -0.1076
58258W        W95752  35.236   5.302   6.534  0.0574 -0.0219  0.0657
58259W        W95753  12.198  30.186   5.429  0.3036  0.1709 -0.2530
58260W        W95754   1.988   7.926   3.285  0.0837  0.0749 -0.0711
58261W        W95755  24.341  21.696  21.246  0.1814 -0.2236 -0.1487
58262W        W95756  27.452  18.495  23.268 -0.4832 -0.0810 -0.1431
58263W        W95757  18.831  20.929  21.938 -0.0531 -0.0186  0.0990
58264W        W95758  15.393  25.586  21.990  0.1471 -0.2703 -0.3973
58265W        W95759   2.090  30.590   0.005 -0.1013 -0.2148  0.0519
58266W        W95760   8.637   6.358   2.408 -0.3702 -0.0749  0.0120
58267W        W95761   7.019  32.243  11.034  0.0447 -0.0763 -0.2909
58268W        W95762   4.177  12.237  18.892 -0.1502  0.0432  0.0053
58269W        W95763  21.729  17.765  18.119 -0.0288  0.3762 -0.0789
58270W        W95764  10.332   9.204   6.214 -0.0927  0.2790 -0.1429
58271W        W95765  13.901  30.114   9.738  0.0621 -0.1140  0.0968
58272W        W95766  25.685  25.000  25.402  0.0712  0.1768  0.0888
58273W        W95767  13.741  21.250  10.746 -0.2881  0.0717 -0.1906
58274W        W95768  27.734  19.646  23.793 -0.1903  0.1088  0.1542
58275W        W95769   1.946  18.943  23.451  0.0382 -0.0343 -0.2203
58276W        W95770   4.557  21.375  20.973 -0.0672  0.0260 -0.1329
58277W        W95771  21.114  14.168  22.574 -0.0591  0.0072  0.1195
58278W        W95772  27.598   2.989  20.039  0.3016  0.0397  0.0411
58279W        W95773   3.261  28.133   1.964 -0.0057 -0.0099 -0.0362
58280W        W95774  30.092   9.765  23.825  0.1306 -0.1146  0.1611
58281W        W95775  20.898  26.870  22.107  0.1286 -0.2811  0.3674
58282W        W95776  17.606  15.241   6.075  0.1567 -0.1256  0.2492
58283W        W95777  18.328  11.589  24.187 -0.0107  0.1849  0.0265
58284W        W95778  24.200  20.143   0.602 -0.3630  0.1744  0.3423
58285W        W95779  19.400  22.241  20.377 -0.1664 -0.1171  0.0468
58286W        W95780  22.872  30.769   0.868  0.2125 -0.0685 -0.1755
58287W        W95781  25.845  22.097  12.145  0.0393  0.2170  0.1389
58288W        W95782   1.229  28.278   6.961 -0.1263  0.1796  0.0360
58289W        W95783  22.590  17.505  22.749 -0.2900 -0.1768  0.1837
58290W        W95784  20.445  27.077  20.447  0.0429  0.0027  0.0455
58291W        W95785  35.206  18.854  14.300  0.0191 -0.2600  0.0411
58292W        W95786  31.718  29.211  23.080  0.2198 -0.0924 -0.1599
58293W        W95787  13.654  34.577  10.919 -0.1256 -0.0510 -0.1696
58294W        W95788   3.032   2.280   6.153 -0.0149 -0.2439 -0.0442
58295W        W95789  22.094   4.316  15.759  0.0216 -0.0546 -0.2698
58296W        W95790  16.997  15.510  20.603 -0.1332  0.3040 -0.0513
58297W        W95791  13.028   0.550   5.230  0.2957 -0.1562 -0.0247
58298W        W95792  19.177  34.814   6.500 -0.1595  0.4493 -0.3515
58299W        W95793  16.244   2.301  10.114  0.1372 -0.2402 -0.1558
58300W        W95794  23.699  14.058  23.635 -0.0884  0.1026  0.1429
58301W        W95795  16.610  32.038   5.757 -0.1750 -0.0745  0.0912
58302W        W95796   6.269   1.228   1.466 -0.5610 -0.0427 -0.0236
58303W        W95797  20.221   0.882   0.788 -0.0978 -0.1010 -0.1796
58304W        W95798  11.155   9.084  25.084 -0.0927  0.0470 -0.1681
58305W        W95799   4.297  29.866  21.166 -0.4894 -0.1794 -0.1611
58306W        W95800  18.569   4.203  23.613  0.2037  0.1377  0.2157
58307W        W95801   3.389  11.152   0.963  0.1914  0.1653 -0.1198
58308W        W95802  32.722  31.058  17.443 -0.0250  0.2590  0.1018
58309W        W95803  22.078  16.907  22.223 -0.1792  0.0135 -0.0520
58310W        W95804  31.114   2.619  14.105 -0.0702  0.0413 -0.0880
58311W        W95805   4.210  22.123  17.393  0.1806  0.0429 -0.1733
58312W        W95806   7.649   1.294   6.788  0.3710 -0.0707  0.0574
58313W        W95807  15.675  14.832  11.610 -0.1414 -0.1067  0.2698
58314W        W95808   3.129   4.580  22.101 -0.2196  0.0278  0.3433
58315W        W95809  32.573  14.827  20.632  0.2133  0.0656  0.2058
58316W        W95810  22.212   7.047  22.078 -0.1486 -0.1184  0.4504
58317W        W95811  17.028  17.662  19.175  0.1468 -0.0288  0.0230
58318W        W95812   7.363   1.381  24.125  0.0292 -0.0319 -0.1344
58319W        W95813  28.458  16.060  25.067  0.1003  0.1284 -0.1097
58320W        W95814   2.016  32.286   6.870  0.1053 -0.1006 -0.2617
58321W        W95815   8.384   1.896  22.815  0.1308  0.2347 -0.0299
58322W        W95816  33.144  26.826  23.177 -0.0004  0.2018 -0.0158
58323W        W95817  13.411  13.647   5.969  0.2004 -0.0873  0.0190
58324W        W95818  25.451   3.436  21.243  0.1332 -0.0985  0.3469
58325W        W95819   5.715   5.789  19.029  0.3346  0.2319 -0.1670
58326W        W95820  30.180  24.005  12.717  0.5563 -0.2708 -0.1951
58327W        W95821  14.582  31.678  10.075 -0.0555  0.3063  0.2531
58328W        W95822  29.589   1.917  14.237  0.3758  0.1911  0.0885
58329W        W95823  20.647   0.320  16.871 -0.4454 -0.1290  0.2043
58330W        W95824   7.204  17.818  23.882 -0.0239  0.2837 -0.0655
58331W        W95825  13.317  28.387  16.950 -0.1836 -0.1442  0.0083
58332W        W95826   3.783  28.800   0.865  0.0465  0.0084 -0.0399
58333W        W95827  34.801  14.040  15.152 -0.1603  0.1594 -0.2626
58334W        W95828  29.036  13.943  22.573  0.0504  0.3266  0.2490
58335W        W95829  24.430  19.681  14.125 -0.3806 -0.0372 -0.2407
58336W        W95830  12.790  28.173   8.271 -0.0470  0.2837 -0.0380
58337W        W95831  31.563   2.879  14.282  0.0792  0.1507  0.0065
58338W        W95832   8.489  20.366  22.184  0.2762 -0.0448 -0.1685
58339W        W95833   1.675  30.169  17.883 -0.0197 -0.2272  0.1670
58340W        W95834  10.355   3.662   3.881 -0.1031  0.2185  0.3397
58341W        W95835  13.796  26.764  24.859 -0.0516  0.0911  0.2000
58342W        W95836  10.665   2.637   9.564 -0.0252  0.0247  0.0827
58343W        W95837   0.239  21.349   9.991 -0.0710 -0.0573  0.0404
58344W        W95838  29.690  32.635  25.409  0.0832  0.1744  0.0389
58345W        W95839   1.363   5.813   5.738 -0.0761 -0.0336 -0.0494
58346W        W95840  29.677   2.881  22.729  0.1495 -0.0742 -0.1378
58347W        W95841  11.862  21.262  11.492 -0.0563  0.0754  0.2700
58348W        W95842  33.429  32.258   2.243 -0.1338  0.0618 -0.1742
58349W        W95843  28.674  16.659  22.333 -0.1337  0.1071  0.3460
58350W        W95844   5.883  11.442  19.721 -0.1322  0.2316 -0.0455
58351W        W95845   2.274   4.162  16.119 -0.2242 -0.0624  0.1194
58352W        W95846   3.147  14.886  16.254  0.0124 -0.1853  0.1798
58353W        W95847   8.587   1.588  13.739  0.0446  0.0524 -0.0143
58354W        W95848  21.809  11.364  20.587 -0.0799 -0.1318  0.2637
58355W        W95849   2.141  18.959   2.824 -0.1240 -0.2873 -0.0095
58356W        W95850  18.712  25.801  20.077  0.0935 -0.0658  0.0231
58357W        W95851  19.469  16.441  25.317  0.3866 -0.1621  0.0849
58358W        W95852  33.684  16.482  15.227  0.1573 -0.0429  0.0247
58359W        W95853   5.966  25.767   8.927  0.3362  0.0390  0.0186
58360W        W95854  29.982  34.432   0.221 -0.0422  0.2901  0.3894
58361W        W95855  34.900   6.878  25.753  0.0159 -0.0443 -0.0577
58362W        W95856   4.661  27.450  13.941 -0.0578  0.0958 -0.2156
58363W        W95857  14.988   4.290   7.470  0.2341 -0.1715  0.3644
58364W        W95858  10.683  21.205   1.115  0.0661  0.0917 -0.0123
58365W        W95859  10.774  26.145   6.868 -0.3466 -0.0938  0.2281
58366W        W95860  17.360   1.799   5.897 -0.0281 -0.1378  0.0393
58367W        W95861   3.459  33.004  19.604 -0.1848  0.4048 -0.5304
58368W        W95862  10.429  31.708   9.240 -0.1872  0.2921  0.0633
58369W        W95863  18.602  11.727   2.717 -0.2342  0.2202 -0.1308
58370W        W95864  33.110  14.481  21.517 -0.1219 -0.0270 -0.3633
58371W        W95865  32.024  18.078  16.407 -0.2289  0.1627  0.1221
58372W        W95866  19.194  20.754   7.722 -0.1123  0.0617  0.0242
58373W        W95867  11.103  16.718   5.793 -0.0592 -0.0019 -0.2867
58374W        W95868  27.635   2.894  20.994  0.0297  0.0042 -0.1507
58375W        W95869  10.974   2.860   4.247 -0.1235  0.2063 -0.5169
58376W        W95870  25.029   4.547  12.997 -0.2531 -0.0382 -0.0181
58377W        W95871  33.573  34.664   5.185  0.1102  0.0107  0.0145
58378W        W95872  13.490  19.886  24.630  0.0316  0.2686  0.2582
58379W        W95873  25.321  28.673  18.883  0.1809  0.0737  0.1394
58380W        W95874  24.292  13.813  25.927 -0.0804  0.3011  0.0440
58381W        W95875  29.647  25.928  24.299 -0.4181 -0.2624 -0.1254
58382W        W95876   3.047  34.118  18.543 -0.0884 -0.1400  0.0156
58383W        W95877   7.784  11.034  24.214 -0.5473  0.0810  0.0109
58384W        W95878  25.783   3.520   0.101  0.0572  0.2126 -0.2101
58385W        W95879   7.837  17.830  10.707  0.1779 -0.0935 -0.3795
58386W        W95880  32.244  21.865  24.834  0.1342 -0.1283  0.3222
58387W        W95881  12.825   2.360   6.174  0.0211 -0.0353  0.3244
58388W        W95882  28.404  29.203  19.311  0.1341  0.0653 -0.1632
58389W        W95883  23.484  27.838  22.704  0.2879 -0.1632 -0.1049
58390W        W95884   6.632  21.585  19.994 -0.0033 -0.3351 -0.2665
58391W        W95885  32.325  17.743  10.327  0.5803  0.1559  0.1275
58392W        W95886  11.175   0.522   9.150  0.0420  0.0158  0.0629
58393W        W95887  26.528  20.704  17.783 -0.4301 -0.1806 -0.0506
58394W        W95888  26.107   8.580   9.131 -0.1673  0.1018 -0.0172
58395W        W95889   3.840  24.304   1.465 -0.2672 -0.2622  0.1891
58396W        W95890   8.701  17.751   0.142 -0.0042 -0.2934 -0.1072
58397W        W95891  13.272  27.941   2.967 -0.2527 -0.0236 -0.1170
58398W        W95892  13.543  20.911   6.983 -0.0619 -0.1779  0.0826
58399W        W95893  16.854  20.475   3.275  0.0744  0.2862  0.4040
58400W        W95894  17.270  30.409  19.376  0.0751  0.1973 -0.0509
58401W        W95895  23.678  21.189  15.820  0.0883  0.1099 -0.1941
58402W        W95896  19.825  33.872  22.774 -0.1378  0.3687  0.0724
58403W        W95897   6.234  34.624  21.172  0.0231  0.0174  0.0425
58404W        W95898   4.710  10.080  21.818 -0.3030  0.0956 -0.0693
58405W        W95899  12.891  32.740  21.910  0.2966  0.0221  0.0741
58406W        W95900  17.354  31.982  20.655  0.1174 -0.3415  0.1836
58407W        W95901   7.244   2.266   9.292  0.0874  0.3253  0.0375
58408W        W95902   0.877  17.757  24.047 -0.0109 -0.0787 -0.0570
58409W        W95903  28.571  27.953  12.748  0.1273 -0.1856 -0.4275
58410W        W95904   1.274   6.836  17.791  0.2363 -0.2540 -0.1287
58411W        W95905  20.435  27.966  19.054 -0.4144 -0.5770 -0.0497
58412W        W95906  26.832  28.019  20.095  0.0474 -0.2107 -0.1016
58413W        W95907  27.987  32.118   5.046 -0.2599 -0.0581 -0.1908
58414W        W95908  11.486  19.008  23.434 -0.1205  0.0912  0.2098
58415W        W95909  26.953  20.767   9.996  0.3028  0.3412  0.0319
58416W        W95910  32.264   1.548  23.602  0.3188 -0.1294 -0.1466
58417W        W95911   4.257  27.870   5.095 -0.0841  0.2062 -0.5673
58418W        W95912  28.276  33.536  15.901  0.4115  0.1414  0.1840
58419W        W95913   9.924  27.090   1.499  0.0995 -0.0843  0.0234
58420W        W95914  14.136  21.234  11.042 -0.1870 -0.0103 -0.0888
58421W        W95915  27.648  32.344  24.168  0.5233 -0.1844  0.1360
58422W        W95916  22.048  18.536   2.434 -0.0061 -0.0744 -0.0058
58423W        W95917  10.043   2.635   7.737 -0.0800 -0.2309 -0.4995
58424W        W95918  29.151  23.561  13.280 -0.1111 -0.1314  0.0124
58425W        W95919  15.371  12.971  24.842  0.1626 -0.0966  0.1098
58426W        W95920   4.230  26.138  19.295  0.0619 -0.0961 -0.1916
58427W        W95921  27.309   0.199   3.885 -0.1519  0.1828  0.1073
58428W        W95922  21.409  18.844   4.974 -0.0229  0.0446  0.0052
58429W        W95923  31.802   5.342  11.414 -0.0326 -0.0103 -0.1371
58430W        W95924   2.385  12.345  23.645  0.2235 -0.2210  0.0438
58431W        W95925   1.670  31.346   0.931  0.0198 -0.4563  0.2990
58432W        W95926  26.885  30.690  14.439 -0.1975 -0.1068 -0.1673
58433W        W95927  12.672  16.151   4.411  0.2766 -0.2214 -0.0660
58434W        W95928  30.696  27.731  13.847  0.0255 -0.0912  0.0542
58435W        W95929  29.895  22.703  17.877  0.1452  0.2102 -0.1371
58436W        W95930   6.223   2.063  12.223  0.0364 -0.0443  0.1073
58437W        W95931  22.573  22.283  24.311 -0.0179  0.4602 -0.0433
58438W        W95932  21.845  24.780   0.994 -0.2955  0.0001  0.0134
58439W        W95933   6.659  31.299  24.079 -0.2622 -0.1361 -0.1857
58440W        W95934  19.272  19.653   3.945  0.0895 -0.0261 -0.1548
58441W        W95935   2.474  15.567  15.876 -0.0748 -0.0452 -0.0538
58442W        W95936  13.925  34.947  25.833 -0.3308  0.1357  0.1819
58443W        W95937  23.530  14.718   0.432  0.1835 -0.0858  0.0164
58444W        W95938   2.927  28.733   2.979  0.0382  0.2901 -0.0305
58445W        W95939  30.572   2.044  13.087 -0.2176  0.1464 -0.0667
58446W        W95940  34.649  30.770   2.448  0.1651  0.1534  0.1285
58447W        W95941   7.558   8.716  23.001 -0.0727  0.0103  0.2264
58448W        W95942  20.382  28.451   1.691  0.0907  0.1202 -0.1100
58449W        W95943  10.827   7.529  20.467 -0.0509  0.2241 -0.3097
58450W        W95944  31.854   5.675  17.329 -0.1911  0.0737 -0.2199
58451W        W95945   8.659   7.524   3.908 -0.0189  0.2343  0.0685
58452W        W95946  24.495  32.253   5.829  0.1429 -0.3184  0.0357
58453W        W95947   3.930  18.515  22.571  0.1045 -0.3496 -0.0406
58454W        W95948   6.359   7.149   5.357 -0.0904  0.0136 -0.0911
58455W        W95949  34.886  20.227  17.189  0.1702  0.0249 -0.0069
58456W        W95950  12.033  11.544  22.253 -0.0028  0.0918 -0.0230
58457W        W95951  14.294  34.785  19.843 -0.0996 -0.0254  0.1729
58458W        W95952  33.629  22.026  10.650  0.1601 -0.0455 -0.2684
58459W        W95953  14.748   2.333  20.270  0.3211  0.1127 -0.0558
58460W        W95954  15.782  11.703   8.379  0.0741  0.0203 -0.2504
58461W        W95955  19.247   8.506   9.018 -0.1483  0.2012  0.0236
58462W        W95956  15.026  12.493  14.496  0.1039 -0.1985  0.1901
58463W        W95957   9.214  21.902   8.464 -0.1258 -0.0837 -0.2511
58464W        W95958  28.806  33.415  15.751 -0.3690  0.0294  0.0165
58465W        W95959  11.298  32.006  11.822  0.2532 -0.0675  0.2183
58466W        W95960   9.830  14.794   1.317  0.1630  0.2758 -0.1671
58467W        W95961  29.176   4.506   3.516  0.1041 -0.0290  0.0915
58468W        W95962  16.389  25.100  25.613  0.0918  0.1806 -0.1039
58469W        W95963  25.202   1.942   1.983 -0.2566  0.1953  0.0795
58470W        W95964  19.016  30.141  23.000  0.0748  0.0197 -0.2471
58471W        W95965  19.145  31.233   5.153 -0.1160 -0.0447  0.1373
58472W        W95966   7.404  12.886   5.745  0.0084 -0.0006 -0.3443
58473W        W95967  12.407  26.710  17.110  0.1121 -0.1324 -0.0195
58474W        W95968   7.360   3.868  10.052  0.0471 -0.1133 -0.1837
58475W        W95969   6.675  34.492   9.884 -0.1518  0.4480 -0.0904
58476W        W95970  30.209  32.000  13.198  0.0183 -0.2586 -0.0728
58477W        W95971   5.985  26.820   7.426  0.0209  0.5150  0.0279
58478W        W95972   0.390  14.932  21.424 -0.2848  0.1110  0.3549
58479W        W95973  15.294  25.461  11.782 -0.0724 -0.1376 -0.1125
58480W        W95974  13.831   1.726  18.416  0.0708 -0.3066  0.2674
58481W        W95975   2.770  10.865  22.278  0.3626  0.0808  0.0615
58482W        W95976  12.873  23.599   7.986 -0.1107 -0.0934  0.2430
58483W        W95977   9.957  11.839   1.319 -0.1373  0.2286 -0.2102
58484W        W95978  16.302  23.448  13.311  0.0888 -0.1577 -0.0130
58485W        W95979  12.837  19.663   4.483  0.0710 -0.2091 -0.1532
58486W        W95980  24.251  13.219  22.168  0.1995  0.2845  0.1585
58487W        W95981   6.474  30.056  14.360 -0.0176 -0.0327 -0.0393
58488W        W95982  34.915  10.435   2.484 -0.3104  0.0504 -0.1585
58489W        W95983  17.184  14.690  10.357 -0.0830  0.0478 -0.1617
58490W        W95984  13.262  22.944   3.145 -0.1695  0.0850  0.2120
58491W        W95985  29.462  22.807  21.393 -0.0923  0.6379 -0.2107
58492W        W95986  32.466  34.675  18.507  0.0028 -0.1365 -0.2514
58493W        W95987   9.563  18.247   3.037  0.1466 -0.1373 -0.2258
58494W        W95988  21.023  13.617  15.626 -0.0346  0.1982  0.1542
58495W        W95989  15.490   3.367  18.518  0.3058  0.1720  0.1861
58496W        W95990  23.368  18.046  13.295 -0.3246 -0.2942 -0.1868
58497W        W95991  30.466  15.325  25.822  0.1593  0.3182  0.1392
58498W        W95992  18.410  17.705  21.054 -0.2845 -0.2611 -0.1011
58499W        W95993   3.269  19.619   1.753 -0.0908  0.0579  0.0771
58500W        W95994   4.181  29.807  24.245  0.0883  0.0356 -0.0472
58501W        W95995   4.353  27.832  22.148 -0.1417 -0.0645  0.0294
58502W        W95996  12.797  34.413   5.419  0.0678 -0.2279  0.1726
58503W        W95997   0.869   3.263  24.739  0.0153 -0.0341  0.1237
58504W        W95998  15.064  17.407   8.260  0.0923 -0.0385  0.1312
58505W        W95999   2.895  18.524  11.171 -0.1630  0.1112  0.3458
58506W        W96000  21.064   6.689  16.313 -0.3796  0.3762 -0.0865
58507W        W96001  14.980   4.562   6.687  0.2202 -0.1762 -0.2716
58508W        W96002  11.564  12.330   3.432 -0.1242 -0.2295  0.0054
58509W        W96003  14.620  23.661  12.939 -0.2691 -0.0712  0.1464
58510W        W96004  22.215   7.279  24.455 -0.2039 -0.1562 -0.1701
58511W        W96005  34.430  25.653  19.633 -0.2907 -0.0965 -0.0534
58512W        W96006  22.658  19.665   0.575  0.0854 -0.0592 -0.2146
58513W        W96007  34.350  33.912  16.572  0.1591  0.0263  0.2486
58514W        W96008   2.019  26.404   2.085  0.1141  0.0227 -0.0168
58515W        W96009  22.632   1.337  20.419 -0.1892 -0.0137 -0.3301
58516W        W96010  15.661  14.595   9.314 -0.0296 -0.3392 -0.5305
58517W        W96011   5.878  31.013   5.443 -0.2351  0.0204  0.0367
58518W        W96012  12.353  11.727   3.285  0.0412  0.0156  0.0513
58519W        W96013   8.225  26.841  10.210 -0.1754  0.0415  0.1141
58520W        W96014  19.903   2.166  18.451  0.0698 -0.0163 -0.0068
58521W        W96015   7.326   9.786  10.993  0.0607  0.0259 -0.0945
58522W        W96016  30.243  18.997  10.812 -0.1433  0.0859 -0.1865
58523W        W96017  32.591  16.217  21.071 -0.2411 -0.0380  0.2258
58524W        W96018  32.601  15.410  21.420 -0.2836  0.3842 -0.2709
58525W        W96019  30.897  31.890  21.175  0.2009  0.0109  0.0208
58526W        W96020   2.879  20.055   3.910  0.0748  0.0553  0.1714
58527W        W96021   0.800  24.949   4.128 -0.0203  0.0384 -0.1359
58528W        W96022  10.088  22.545   2.963  0.3279  0.0810 -0.2337
58529W        W96023  31.600   1.069  14.844  0.0561 -0.2027  0.3711
58530W        W96024   2.124  17.821  25.127 -0.1524  0.0002 -0.3170
58531W        W96025   7.360  33.811  23.470 -0.3482  0.0213  0.1548
58532W        W96026  18.222  29.060  25.895 -0.0154 -0.0472 -0.0293
58533W        W96027   7.435  15.991   2.578 -0.1090  0.0499 -0.1452
58534W        W96028   0.043  26.241  17.540  0.1074 -0.2461  0.1792
58535W        W96029  19.700  33.697  20.828 -0.3677 -0.1789  0.0041
58536W        W96030  31.718  27.806   0.138 -0.3254 -0.0765 -0.1664
58537W        W96031   5.199   1.016  12.729  0.0113 -0.0168  0.1063
58538W        W96032  17.182  12.565   4.795 -0.1827  0.2332  0.1983
58539W        W96033  26.358   9.968  10.765 -0.0558  0.0101 -0.1316
58540W        W96034   9.578  34.491  25.393  0.1428  0.0614  0.1580
58541W        W96035   1.308  34.581   6.838 -0.0725  0.0971  0.2570
58542W        W96036  21.987  10.443  17.680  0.0680  0.0144 -0.3728
58543W        W96037  24.083   0.914  11.989 -0.0664 -0.0130 -0.0384
58544W        W96038  15.963  25.134   1.899 -0.0292  0.0630 -0.0483
58545W        W96039  10.869  27.874   1.166  0.1215  0.2711 -0.0599
58546W        W96040  13.824   9.658   9.131  0.0850  0.0358  0.2390
58547W        W96041  33.539  22.660  25.585 -0.1972  0.0572 -0.1063
58548W        W96042  34.803  16.713  21.919 -0.0427  0.4053 -0.3444
58549W        W96043   8.799   0.873   2.947 -0.2323 -0.0635 -0.1270
58550W        W96044   5.315  26.235   5.079  0.1778 -0.0308 -0.1324
58551W        W96045  19.807  13.320   9.221  0.0197 -0.0218  0.1114
58552W        W96046  31.844  29.205   0.817  0.0550 -0.0777 -0.1033
58553W        W96047  11.556  28.798   7.147  0.0428  0.0089  0.0523
58554W        W96048  11.779  15.801   4.408 -0.0235  0.1951 -0.1490
58555W        W96049   9.529  34.496   9.220  0.1963 -0.2013 -0.0401
58556W        W96050  25.065   6.560  16.112 -0.0613  0.1444 -0.0950
58557W        W96051  28.535  16.408   4.769 -0.2950 -0.1876  0.3421
58558W        W96052   5.200  17.117  24.257  0.2262  0.2391  0.1147
58559W        W96053  27.163   6.354  12.263 -0.3889 -0.3000  0.0763
58560W        W96054   9.538  21.557  25.424 -0.2703  0.3445 -0.0287
58561W        W96055  19.395  28.191  22.476  0.0185 -0.1627  0.3549
58562W        W96056   0.071   6.660  14.320  0.2722  0.1897 -0.1837
58563W        W96057  12.725  31.692  11.072 -0.2138 -0.0780 -0.2591
58564W        W96058  33.967  23.826  16.721 -0.0095 -0.2863 -0.2349
58565W        W96059  15.496  22.063   3.499  0.0559 -0.1024  0.1894
58566W        W96060   4.824  24.730  21.645  0.1407  0.1165  0.0010
58567W        W96061  13.105  26.906  22.889 -0.3129 -0.1051  0.0875
58568W        W96062  11.635  16.864  19.822  0.0648  0.3263 -0.1542
58569W        W96063  21.804   9.482  23.310 -0.0937 -0.1930  0.3075
58570W        W96064  10.351  20.186  23.587  0.1073  0.1382  0.1018
58571W        W96065   5.290  29.784   1.106  0.0999 -0.4453  0.0604
58572W        W96066  12.174  19.095   7.413  0.1676 -0.2248 -0.1452
58573W        W96067  23.269   2.863  19.672  0.0872  0.0793 -0.0466
58574W        W96068  17.456  11.608  20.989  0.2917  0.1432  0.3300
58575W        W96069   3.222  14.900  23.950  0.0768 -0.1103 -0.0234
58576W        W96070  19.181  16.684  23.468  0.3407 -0.3130  0.1900
58577W        W96071  16.424  34.863   0.753  0.2127  0.1108 -0.3318
58578W        W96072  34.926  30.061   5.489 -0.2297 -0.0194  0.0845
58579W        W96073  14.064  30.619  12.758 -0.0044  0.0831  0.2208
58580W        W96074   1.751  19.563  18.857  0.0304 -0.0880 -0.1957
58581W        W96075  29.265   4.526   1.116  0.1872 -0.1124  0.0911
58582W        W96076  17.544   8.471  21.231 -0.1884  0.0959 -0.1110
58583W        W96077   4.800   5.688   3.445  0.3588 -0.1116  0.3538
58584W        W96078  24.373   1.159   6.302  0.2731  0.1628  0.2292
58585W        W96079  11.513  24.792  11.224 -0.1858 -0.3771  0.4642
58586W        W96080  30.057  29.729  20.017 -0.3945 -0.1470 -0.0668
58587W        W96081  16.874  19.441   8.539 -0.3217 -0.2150  0.2164
58588W        W96082  26.720  26.813  14.212  0.4503  0.3763 -0.0059
58589W        W96083  24.801  25.296  16.526 -0.1457  0.1927  0.1834
58590W        W96084  14.467  16.012   1.109  0.0261 -0.0285 -0.0481
58591W        W96085  15.788   9.171   5.101  0.0282  0.4002  0.1668
58592W        W96086  16.452  34.616   9.228  0.0893 -0.3192 -0.1247
58593W        W96087  32.406   7.687  20.141  0.0959  0.0541 -0.3208
58594W        W96088  16.995   7.417  10.411  0.0423  0.2247  0.2142
58595W        W96089  29.977  26.058  18.018  0.2580 -0.1385 -0.1612
58596W        W96090   1.656  12.257  15.640 -0.1163  0.0338 -0.3488
58597W        W96091  20.432  13.032  21.080  0.0981  0.2154  0.1560
58598W        W96092  20.480   5.764  25.336 -0.0071  0.1669 -0.0238
58599W        W96093  20.698  16.488  23.189 -0.3262 -0.2874 -0.3227
58600W        W96094   5.920  10.048  19.545 -0.1743  0.0592  0.1747
58601W        W96095  18.573  29.692   0.295  0.0825 -0.0497 -0.1618
58602W        W96096  24.206  32.106  12.706  0.3375  0.2936  0.0543
58603W        W96097  26.854  10.239  11.331  0.2013  0.2880  0.0555
58604W        W96098   4.668   8.305  16.804 -0.0546 -0.2345  0.1370
58605W        W96099  28.670  14.110   6.627 -0.3057  0.1719 -0.0401
58606W        W96100  12.827   2.800   6.540  0.4790  0.1618 -0.0007
58607W        W96101   0.147  24.836  22.580  0.2183  0.1531  0.0770
58608W        W96102  29.528   5.532  16.502 -0.0311  0.1132 -0.2216
58609W        W96103  10.222   0.310  22.165 -0.0202 -0.2017  0.0183
58610W        W96104  14.176  28.458  23.238  0.0332 -0.1971  0.1523
58611W        W96105  12.038  11.074  12.619  0.1051 -0.0230 -0.2363
58612W        W96106   7.870  18.219   8.586 -0.1347 -0.1385 -0.0064
58613W        W96107  30.096   7.407  11.013 -0.2800 -0.0720  0.0449
58614W        W96108  18.029  33.383   6.245 -0.0873 -0.1508 -0.1944
58615W        W96109   1.365   5.645   3.414  0.1989  0.2325 -0.0790
58616W        W96110  11.119  28.529  25.720  0.2023 -0.1575 -0.0737
58617W        W96111  25.140  16.075   6.871 -0.0259 -0.1731  0.0655
58618W        W96112   8.468  18.859   9.988 -0.0841 -0.0608  0.0227
58619W        W96113  26.446  19.145   9.959 -0.3029  0.3671 -0.0255
58620W        W96114  19.974  12.697  23.382 -0.2486  0.4205 -0.1203
58621W        W96115  13.109   3.191  18.766  0.1169  0.0527 -0.3658
58622W        W96116  32.456   5.383  11.934 -0.0686  0.0735  0.1601
58623W        W96117  29.556   4.750  24.924  0.3226 -0.1455 -0.3373
58624W        W96118  14.951   8.588   8.273 -0.1723 -0.0363  0.0686
58625W        W96119  31.151  29.103  19.788  0.1130  0.0815  0.1123
58626W        W96120  15.010   7.186   5.132 -0.0381  0.0528  0.2084
58627W        W96121   3.317   9.452  23.211  0.2811  0.1338  0.1931
58628W        W96122  27.081  27.539  22.709 -0.0893  0.1777 -0.0983
58629W        W96123  20.741   5.590  17.973  0.0371 -0.1199 -0.2208
58630W        W96124   4.126   0.352   0.633 -0.3385 -0.0972 -0.1238
58631W        W96125  11.763  12.047   7.026  0.1652 -0.0359 -0.3045
58632W        W96126  35.169   5.355   1.448 -0.0973  0.0844  0.1646
58633W        W96127  25.233   1.423  23.168  0.0731  0.4876 -0.3036
58634W        W96128   1.761  33.179   7.276  0.0437  0.1544 -0.3603
58635W        W96129  12.756  22.953  14.146 -0.1846 -0.1197  0.0319
58636W        W96130  26.943   1.900  14.565  0.0888  0.0436 -0.1780
58637W        W96131  35.341  10.751  14.687 -0.3339  0.1137 -0.0848
58638W        W96132  33.420  23.949  16.813  0.0360 -0.1087  0.0639
58639W        W96133   9.359  19.894   6.218 -0.1352  0.1414  0.0533
58640W        W96134  31.629   5.929  10.405 -0.2920  0.0757  0.2448
58641W        W96135  12.643   8.910  12.944  0.1244 -0.0569 -0.0809
58642W        W96136  30.447  16.437  21.551 -0.3037 -0.0837 -0.1726
58643W        W96137   4.473  34.402  11.180  0.1990  0.1103  0.1272
58644W        W96138  20.356  21.688   3.721  0.1666 -0.0346 -0.2165
58645W        W96139  32.167  34.543  22.163 -0.1774  0.1076  0.1529
58646W        W96140  21.548  15.342   0.135  0.3911  0.2708 -0.0641
58647W        W96141  11.933  11.378   2.620 -0.3262 -0.2353 -0.0180
58648W        W96142  24.148  21.374  18.354 -0.3716 -0.1099 -0.0668
58649W        W96143  30.442   9.836  25.802  0.1102  0.0035  0.0451
58650W        W96144  11.064  13.332   3.302  0.0661  0.1817  0.2304
58651W        W96145  28.848  29.134  24.233  0.0754 -0.0692 -0.2549
58652W        W96146  12.797  24.856   0.445 -0.3334  0.0933 -0.4066
58653W        W96147  13.933  18.902  11.920  0.2728  0.2160  0.0977
58654W        W96148  24.757   3.180   5.877 -0.1384  0.0842  0.1379
58655W        W96149   0.417   6.854  18.237  0.1442  0.2332 -0.2602
58656W        W96150  32.986  22.794  25.466 -0.0659 -0.2576 -0.1315
58657W        W96151   0.098  16.357  17.527 -0.4037  0.4690  0.1093
58658W        W96152   4.554  17.415  23.499 -0.0481 -0.0482 -0.0672
58659W        W96153  17.175  16.381  21.905  0.0498 -0.0502 -0.0236
58660W        W96154  31.467  16.665  26.240 -0.1582  0.0034 -0.0239
58661W        W96155  23.339  14.232  13.146 -0.0535  0.1145  0.1540
58662W        W96156  19.604   1.564  17.281 -0.1736  0.0975 -0.1329
58663W        W96157   7.601   6.540   8.905  0.0702  0.0890  0.0822
58664W        W96158   1.833   2.930   7.532 -0.1221  0.0598 -0.1403
58665W        W96159  14.989  15.608   9.872  0.1879  0.0500  0.0139
58666W        W96160  21.369   5.823   9.680 -0.0791  0.3435 -0.3527
58667W        W96161   4.561  23.470   4.857  0.0498  0.1280  0.2522
58668W        W96162  23.782   2.527  20.602  0.1454  0.0112  0.2314
58669W        W96163  15.050  22.338  14.716  0.0836 -0.1529 -0.0380
58670W        W96164   2.149  33.461   6.962  0.1978  0.3729 -0.0357
58671W        W96165  25.992   7.346  19.112 -0.0136 -0.2124 -0.1461
58672W        W96166  34.861  33.531   6.719 -0.1691 -0.3436 -0.1559
58673W        W96167  32.088  32.982  21.194 -0.0270 -0.0483 -0.0605
58674W        W96168  30.524   9.351  19.875  0.0384 -0.1865  0.1349
58675W        W96169  12.329  14.942   3.377 -0.0295  0.1709  0.1733
58676W        W96170  15.754  10.102   9.629  0.0558  0.3025 -0.1643
58677W        W96171  11.110  10.614  20.527  0.3067 -0.1707  0.3015
58678W        W96172  15.237  25.965  13.947  0.1875  0.1773 -0.0510
58679W        W96173  11.171  28.316   9.691  0.4603 -0.1670  0.0984
58680W        W96174   0.339  13.442  10.087 -0.1013  0.1245  0.1826
58681W        W96175   5.264   6.988   4.704 -0.2074  0.0707  0.0100
58682W        W96176  14.670   4.006  12.550  0.0235  0.0525 -0.0126
58683W        W96177  13.938  22.699  11.228 -0.3549 -0.2737  0.0758
58684W        W96178  21.577  26.038  25.481 -0.1969  0.0246  0.0926
58685W        W96179  34.387   8.731  22.340  0.0719  0.2052  0.2081
58686W        W96180   6.593  12.870   6.866  0.1028  0.2791  0.2367
58687W        W96181  32.010  12.132  13.853 -0.0341 -0.1241  0.0730
58688W        W96182  33.483   7.291  14.299 -0.2078  0.2915 -0.2260
58689W        W96183  29.309  19.444   9.353 -0.0474  0.2128  0.3722
58690W        W96184   8.240  26.399  13.165 -0.0896  0.1757  0.0398
58691W        W96185   1.236  11.298  21.906  0.1255 -0.1300 -0.1829
58692W        W96186  22.444  11.090  18.325  0.1191 -0.1517 -0.4497
58693W        W96187   6.238  33.575  23.274 -0.3763  0.1090  0.4529
58694W        W96188  11.240  29.266   4.147  0.4262 -0.2184 -0.2303
58695W        W96189   7.824  21.408  24.762  0.1559  0.0202 -0.1138
58696W        W96190  35.129  32.491  24.447 -0.0398  0.0814  0.2873
58697W        W96191  33.899   6.143   3.780 -0.3177 -0.2390  0.1120
58698W        W96192  23.813   2.121  19.026 -0.4678 -0.1972 -0.1358
58699W        W96193  23.504  32.942  20.313  0.0466  0.1043 -0.2592
58700W        W96194  16.062  16.069   1.479 -0.0567  0.1318  0.3429
58701W        W96195  17.343  16.417   7.779  0.1388  0.3522  0.3920
58702W        W96196  32.780  34.599  20.067 -0.3196  0.0891  0.1637
58703W        W96197  10.982  14.397   7.234  0.1557  0.0969  0.0236
58704W        W96198  17.147  26.131   8.463  0.2742  0.0503  0.0109
58705W        W96199   9.835   3.406   5.382  0.4498 -0.0825  0.0428
58706W        W96200   0.161  18.764  13.388  0.2828  0.1683  0.1789
58707W        W96201  18.024  18.734   1.284 -0.0052  0.2717 -0.0481
58708W        W96202   6.018  11.655   7.103 -0.1523  0.1188 -0.1538
58709W        W96203  14.924  21.260  12.325 -0.1719 -0.0581 -0.1350
58710W        W96204  29.006   5.291  24.574  0.1362 -0.0015 -0.1725
58711W        W96205  19.978  25.955  23.752  0.1882 -0.3408 -0.4584
58712W        W96206  16.680  18.651  24.516 -0.0242 -0.1654  0.0511
58713W        W96207  34.586  13.183  25.297 -0.0135 -0.0147  0.0836
58714W        W96208  27.984  27.551   3.039  0.0712 -0.1124 -0.1354
58715W        W96209  27.059  13.097  17.626 -0.1460 -0.0342 -0.2453
58716W        W96210   5.624   3.961   9.454  0.1793 -0.1611  0.0499
58717W        W96211  11.951  26.809  16.884 -0.3961 -0.0080  0.2123
58718W        W96212   8.675  31.117   0.690 -0.2031 -0.1958 -0.1018
58719W        W96213  16.336   3.195   1.496 -0.0108  0.0474 -0.1805
58720W        W96214  32.363  17.346  14.503  0.3062  0.1733  0.0122
58721W        W96215   8.883   0.651  20.057 -0.0340  0.0010  0.2205
58722W        W96216  13.845   1.178  10.146 -0.1540 -0.0331  0.2598
58723W        W96217  11.588   3.887   0.598 -0.1274 -0.1135 -0.2010
58724W        W96218   3.011   6.538   4.949  0.0947  0.0967 -0.0163
58725W        W96219  10.939  10.277   3.630  0.2671 -0.0420 -0.1001
58726W        W96220  25.494   7.972  13.270  0.0253 -0.1616 -0.0123
58727W        W96221   7.929   9.818  12.580 -0.2550  0.0899 -0.1387
58728W        W96222   1.408   1.251   2.203 -0.1660  0.2236 -0.0590
58729W        W96223   8.787  17.601  23.716 -0.0532 -0.0824 -0.1485
58730W        W96224  20.767   6.836   6.769  0.0700 -0.1182  0.2244
58731W        W96225  19.690  32.071   7.104  0.1633  0.1400 -0.0799
58732W        W96226  20.349  18.181  25.077 -0.0261 -0.1113 -0.0798
58733W        W96227  11.394   0.073   1.519 -0.0740 -0.1192  0.0597
58734W        W96228  17.620  16.494   5.008  0.2172  0.2347  0.2123
58735W        W96229  17.475  14.687  20.234  0.1653 -0.1513  0.0069
58736W        W96230  33.782  15.983  20.575  0.0643  0.0470  0.0568
58737W        W96231   1.030  20.604   1.214  0.1843 -0.2665  0.0347
58738W        W96232   1.245   3.216   3.105  0.0892  0.0346  0.1251
58739W        W96233  18.852   7.058   8.804 -0.4276 -0.0979  0.0697
58740W        W96234   2.405   9.407  21.290  0.0664 -0.0778 -0.1743
58741W        W96235  31.253   7.864  13.104  0.0182  0.2661  0.0450
58742W        W96236  12.851  26.696  25.525  0.0154 -0.0739 -0.1000
58743W        W96237  31.496  11.300  20.760  0.0462 -0.1196  0.1146
58744W        W96238  13.937  34.114  25.067  0.3003  0.2541  0.0057
58745W        W96239  19.311   9.734   0.511 -0.1137  0.2329  0.2995
58746W        W96240  12.421  26.763  12.339 -0.0627  0.1214  0.2088
58747W        W96241  25.289   2.164   4.929 -0.1661  0.0010  0.4054
58748W        W96242  21.098  14.579  26.144  0.0899  0.0202  0.3572
58749W        W96243  28.536  32.942  20.602  0.1019  0.2983  0.1337
58750W        W96244  14.050  30.432  24.890 -0.2053  0.3584  0.0041
58751W        W96245  28.718  18.591  15.544  0.3707 -0.1779  0.3264
58752W        W96246  15.674   4.879  22.748  0.1102  0.0186  0.2929
58753W        W96247   4.025  15.089  22.141 -0.0177 -0.0239  0.3379
58754W        W96248  30.865  12.497   9.852  0.1109 -0.2239  0.2059
58755W        W96249   5.013  26.018   5.426  0.1600 -0.2250  0.2210
58756W        W96250   9.804  24.110  25.409 -0.3224 -0.0043  0.0590
58757W        W96251   1.565   2.413  18.203 -0.1364  0.1411  0.0700
58758W        W96252   7.297  20.138   7.606  0.0659  0.0301  0.3215
58759W        W96253  21.804   5.564   0.130 -0.2019 -0.2779  0.0373
58760W        W96254  20.043  31.016   1.996  0.1401 -0.4229 -0.1053
58761W        W96255  11.535  23.835  25.408  0.0409 -0.0084  0.1383
58762W        W96256  12.730   3.877   8.073 -0.2254 -0.2662  0.1420
58763W        W96257   4.812   3.951   6.543 -0.0858  0.0196  0.1159
58764W        W96258  24.857  27.074   4.166 -0.0600  0.2070 -0.0791
58765W        W96259   6.505  16.645   7.812 -0.2207  0.3520 -0.1536
58766W        W96260  34.760  33.519  25.469 -0.1703 -0.4167 -0.1709
58767W        W96261   3.364  33.723   9.941  0.3611  0.0677 -0.2110
58768W        W96262  26.664   3.671  22.830 -0.2784 -0.3126  0.1044
58769W        W96263   4.860   4.315   2.919 -0.1288  0.2448 -0.0624
58770W        W96264  16.193  15.268  25.342  0.4565  0.0906 -0.2900
58771W        W96265  30.951  12.257   9.197 -0.2679  0.3753 -0.1579
58772W        W96266  32.948  14.791  17.300  0.0486 -0.0897 -0.0280
58773W        W96267  18.315  18.459   4.562  0.0226  0.1062 -0.3635
58774W        W96268  13.102   6.085   5.402  0.1394  0.1405 -0.0858
58775W        W96269   0.872   9.391  14.954  0.2169 -0.0592  0.1117
58776W        W96270   1.851  33.738  18.628  0.0671 -0.1312 -0.0733
58777W        W96271  33.327  32.529  22.738  0.0651  0.3680 -0.1409
58778W        W96272   1.041   2.418  25.024 -0.0946  0.2185 -0.1024
58779W        W96273   0.140  11.220  20.282 -0.1001 -0.1899 -0.0577
58780W        W96274  16.713  17.082  12.530 -0.0226 -0.3750  0.0727
58781W        W96275   1.846  33.524   3.232 -0.0055  0.0490 -0.1201
58782W        W96276   9.701  17.327   3.069 -0.1872 -0.0986  0.0224
58783W        W96277   9.049  29.487  11.416 -0.2116  0.1925  0.0090
58784W        W96278   6.362  12.101   5.170  0.1996 -0.2002  0.1054
58785W        W96279  15.562  15.743  21.711 -0.1201  0.1746  0.0997
58786W        W96280  26.915   3.448  24.603 -0.1031 -0.0655  0.0616
58787W        W96281  20.274   0.808  20.578  0.4012  0.1053  0.1280
58788W        W96282  21.139  19.931   5.184 -0.3127 -0.0671 -0.0269
58789W        W96283   9.052  14.124   6.062  0.0738 -0.1418  0.2365
58790W        W96284   2.680  32.227   2.071  0.0613  0.0168 -0.1606
58791W        W96285  11.829  22.769  16.234  0.0331 -0.0358  0.2909
58792W        W96286   6.185  20.350   4.615  0.1203  0.4229 -0.0957
58793W        W96287  27.554  16.443  21.596 -0.1335  0.0130 -0.0986
58794W        W96288   6.260  26.917   5.030 -0.3769 -0.1176  0.0104
58795W        W96289  27.011   1.314   1.957 -0.0247 -0.4813 -0.1381
58796W        W96290  33.653  30.829   2.417 -0.3051 -0.1160  0.0109
58797W        W96291   1.777   4.520   5.349 -0.2707 -0.0500 -0.1858
58798W        W96292  28.749   4.352   2.024 -0.3665  0.0265 -0.3055
58799W        W96293  29.437  12.365  22.003 -0.1456  0.0534  0.1991
58800W        W96294  18.220   9.017  18.888 -0.0017 -0.0760 -0.0016
58801W        W96295  35.051   3.763  20.961 -0.0723 -0.2192 -0.1782
58802W        W96296   3.393   4.065  17.265 -0.0484  0.0539 -0.0199
58803W        W96297  30.067  13.964   6.893 -0.1525 -0.1352  0.2389
58804W        W96298  16.967  33.608   3.127 -0.0291 -0.1640  0.0400
58805W        W96299   5.543   8.338  18.149  0.2723 -0.0220 -0.0930
58806W        W96300  14.938   4.062   6.819 -0.2063 -0.1288 -0.0535
58807W        W96301  26.788  32.257  11.393  0.0195  0.3196 -0.0904
58808W        W96302  25.424   9.543   1.867 -0.0007 -0.1696 -0.2048
58809W        W96303  12.911  34.047   4.450 -0.0038 -0.1596  0.3965
58810W        W96304  14.313  14.371   6.563 -0.1269  0.3996  0.0836
58811W        W96305  35.279   2.299  19.303  0.1075  0.1500 -0.1640
58812W        W96306  32.937  27.779   0.300 -0.4361  0.2396  0.1944
58813W        W96307   6.622   6.380  22.596 -0.1493 -0.0456  0.2010
58814W        W96308   8.783   0.035  10.936 -0.1249 -0.0186  0.0878
58815W        W96309   5.526   1.902  12.600  0.5882  0.0016 -0.0065
58816W        W96310  22.018  23.379  23.915 -0.0919  0.1812 -0.0660
58817W        W96311   6.560  30.380  13.939  0.0680 -0.1792 -0.1156
58818W        W96312  13.969  15.833   6.338 -0.1735  0.2534  0.0691
58819W        W96313   4.681  12.752   0.874  0.0038 -0.0527 -0.1793
58820W        W96314  31.633   5.992   2.707 -0.1584  0.0828  0.0144
58821W        W96315  15.613  16.263   1.013 -0.2735  0.1586  0.2001
58822W        W96316  18.502   9.811   4.396 -0.2482 -0.1641 -0.0911
58823W        W96317  17.475  12.518  10.635 -0.0615 -0.1748 -0.0709
58824W        W96318  18.159  27.825   7.969  0.1537 -0.1099 -0.3370
58825W        W96319  16.444   5.544   4.444  0.2330  0.3312 -0.1319
58826W        W96320   7.642  19.434  21.165  0.0127  0.1330  0.0184
58827W        W96321  14.510  19.459  13.203 -0.1900 -0.0552  0.1357
58828W        W96322   3.738  18.644  19.044 -0.0534  0.1508 -0.1268
58829W        W96323   4.172  12.009   6.637 -0.0995 -0.0501  0.2155
58830W        W96324  15.772   4.777  20.779  0.2664 -0.4976  0.1354
58831W        W96325  24.423  33.665  23.801  0.0110 -0.2612 -0.0292
58832W        W96326   8.485   5.546  11.134 -0.1479 -0.0405  0.0724
58833W        W96327  11.996  30.588  10.713 -0.2373  0.3870 -0.0825
58834W        W96328  18.822  12.872  22.244  0.1147 -0.4001  0.0091
58835W        W96329   4.940  21.397  21.318 -0.1743 -0.2282  0.2510
58836W        W96330  15.348   8.242  24.996  0.0434  0.3523  0.2924
58837W        W96331   5.624   2.073   8.258 -0.1157 -0.1364  0.3563
58838W        W96332  33.910  11.474   8.627  0.0726 -0.2132 -0.0378
58839W        W96333  16.125  25.975   5.337  0.0223  0.3052 -0.1111
58840W        W96334  13.079  11.508  23.468 -0.2565  0.2514  0.0619
58841W        W96335  16.863  11.299  22.597  0.0285 -0.0497 -0.2627
58842W        W96336  21.248  33.710   5.049  0.2707  0.0973  0.0675
58843W        W96337  14.586  27.201  13.031 -0.0294  0.1867 -0.1657
58844W        W96338  34.101   0.505  24.159  0.0222 -0.0198  0.2326
58845W        W96339  10.261  21.301  23.152 -0.0873 -0.0154  0.1725
58846W        W96340  26.936  28.809  15.944 -0.0440 -0.2183  0.3113
58847W        W96341  14.810   6.960  20.401 -0.0091 -0.1055  0.1654
58848W        W96342  22.968  35.179  21.810  0.0474  0.0334 -0.1120
58849W        W96343   9.712   9.138   2.098 -0.0240 -0.1556 -0.1081
58850W        W96344  23.027   9.434   3.882 -0.0307  0.2669  0.1613
58851W        W96345   0.469   7.883  23.275 -0.0185  0.1903 -0.3126
58852W        W96346  31.249  34.858  21.993 -0.0444 -0.1163  0.3146
58853W        W96347  29.738  31.837  15.696 -0.1609 -0.0849  0.0091
58854W        W96348  11.274  28.921   5.175 -0.2030  0.1708 -0.1120
58855W        W96349  34.631  12.023  25.233  0.0976 -0.1322  0.1072
58856W        W96350  23.423  30.544  12.859 -0.2031 -0.1819 -0.1549
58857W        W96351  10.968   2.662  22.762  0.0401 -0.0588 -0.1367
58858W        W96352  31.153   9.015  10.900 -0.0256 -0.0037  0.0234
58859W        W96353  18.270  10.254  10.246  0.2716  0.1871 -0.1511
58860W        W96354  19.545   5.075  18.179  0.0283  0.1578  0.1643
58861W        W96355  15.050  23.628   8.871  0.2905 -0.0941 -0.2426
58862W        W96356   9.931  21.297  10.983 -0.0792  0.0867 -0.1927
58863W        W96357  10.417  16.630  11.799 -0.1268  0.0956  0.2552
58864W        W96358  26.450  22.635  15.041 -0.2384 -0.3074 -0.2786
58865W        W96359  31.006  20.828  22.634  0.0364  0.0172  0.0185
58866W        W96360  19.017  23.410   8.816 -0.2041 -0.1427  0.3148
58867W        W96361  12.948  26.653   0.120  0.1137  0.1422  0.0782
58868W        W96362   2.455  31.058   8.751 -0.2286 -0.2706  0.3184
58869W        W96363   2.475  26.364   5.270 -0.0211 -0.0121 -0.2441
58870W        W96364   6.754  16.077  22.989 -0.1673 -0.3354  0.2474
58871W        W96365   0.422   4.221  21.379 -0.2342 -0.1649 -0.1718
58872W        W96366  23.763  13.914  20.663  0.1936 -0.1557 -0.1301
58873W        W96367  27.464   9.179  19.629 -0.0999  0.2339  0.6179
58874W        W96368  18.731  21.484   7.055 -0.2434  0.0964  0.1244
58875W        W96369  11.145  32.511   1.040 -0.1855  0.2795  0.1306
58876W        W96370   4.242  11.685  24.820 -0.1921 -0.1744 -0.0202
58877W        W96371   8.915   3.739  25.376  0.1998 -0.0670  0.0568
58878W        W96372   1.152  24.191   3.594 -0.3647 -0.0510 -0.1908
58879W        W96373  33.352  20.110  25.852  0.2197 -0.0789  0.1869
58880W        W96374  11.201  15.474   5.668 -0.0138 -0.2940 -0.0487
58881W        W96375   2.596   3.320   1.609  0.2592  0.2273 -0.0474
58882W        W96376  22.327  20.736   2.351 -0.0958 -0.0478 -0.0225
58883W        W96377  25.177   7.161   4.061 -0.0775  0.3453 -0.1346
58884W        W96378  10.748   7.872  12.011  0.1794 -0.1832  0.4342
58885W        W96379  26.196  10.343  23.411 -0.0145 -0.1722 -0.2873
58886W        W96380  27.636   1.823   5.375  0.0178  0.1698  0.0781
58887W        W96381   0.897  17.537  15.533 -0.1741 -0.0949  0.0820
58888W        W96382  20.883  24.722   1.014  0.1567  0.0592  0.1573
58889W        W96383  11.750  33.956  25.031 -0.0322 -0.1058  0.1512
58890W        W96384  28.252  35.162  12.766 -0.0772 -0.2215  0.1151
58891W        W96385   4.349  26.942   3.369 -0.3283 -0.1080  0.3463
58892W        W96386  24.002  32.631  20.014  0.2046 -0.0901 -0.1790
58893W        W96387  10.966  19.482   2.355  0.0600  0.0156 -0.2258
58894W        W96388  25.638   8.836   0.779 -0.3149  0.0630 -0.0018
58895W        W96389  25.432  23.438  19.489  0.1872 -0.3457 -0.0606
58896W        W96390  23.631  19.790  24.412 -0.4256 -0.0410 -0.1639
58897W        W96391  27.165  12.990   8.720  0.1821 -0.0415 -0.1896
58898W        W96392  18.098  30.697   2.980  0.0749 -0.1585 -0.1572
58899W        W96393   3.675  33.250   3.871  0.1389  0.0830 -0.3235
58900W        W96394  25.615   8.620  21.039 -0.1277 -0.0697 -0.1656
58901W        W96395  12.119  25.091  10.787 -0.1113 -0.2650  0.1046
58902W        W96396  11.167  24.436  24.434 -0.1661 -0.0053  0.0089
58903W        W96397  18.317   3.547  18.472  0.1094  0.0110 -0.0031
58904W        W96398   5.654  33.306   0.245  0.3151  0.0906  0.2790
58905W        W96399   2.307  33.351  18.531  0.2235 -0.1526  0.1855
58906W        W96400  34.436  15.659  10.443  0.4331  0.0930 -0.0314
58907W        W96401   0.510  28.629  21.976  0.3083 -0.3049 -0.0207
58908W        W96402   9.851  26.495   3.181  0.2184  0.1617  0.3968
58909W        W96403  32.370  33.026  21.814 -0.0320  0.3940  0.0580
58910W        W96404  17.595  22.984   4.629 -0.3040  0.2460  0.2484
58911W        W96405  27.354   8.105   0.754 -0.1160 -0.2525 -0.2810
58912W        W96406  26.196  18.286  10.423 -0.3039  0.0882 -0.3596
58913W        W96407  13.298  32.748   7.290  0.3287 -0.4399 -0.1010
58914W        W96408  32.650  12.021  18.435  0.0258 -0.1156 -0.0026
58915W        W96409  10.991   7.360  25.154 -0.1887 -0.0822  0.1671
58916W        W96410  13.315  30.197   1.367  0.0216 -0.1605  0.2714
58917W        W96411   6.521  30.067  23.444 -0.0533 -0.0623 -0.3009
58918W        W96412  19.089  22.611  19.531 -0.0588  0.1073 -0.0514
58919W        W96413  29.875  23.791  23.546 -0.0007  0.0442 -0.0008
58920W        W96414   7.101   1.051   8.020 -0.1020 -0.0979  0.1051
58921W        W96415  17.275   7.117   9.460  0.0347  0.0210  0.1868
58922W        W96416  24.354  12.440  12.133  0.1479 -0.3591 -0.2347
58923W        W96417  34.187  21.464  20.162  0.1857  0.0955  0.0478
58924W        W96418   8.246   3.831   3.819  0.0283 -0.1122 -0.1047
58925W        W96419  22.318  24.620  18.065 -0.3174 -0.4036 -0.2075
58926W        W96420   5.134  11.849   1.305  0.3275 -0.2887 -0.1966
58927W        W96421  25.216   9.528  13.800  0.1387 -0.0381 -0.0676
58928W        W96422  14.031  33.942  12.841  0.0023 -0.0451 -0.2552
58929W        W96423  13.321  15.563  13.383  0.1603 -0.0808 -0.0618
58930W        W96424  21.821  20.691  23.514  0.5648  0.1389 -0.1651
58931W        W96425  24.793  15.500   8.382  0.5215 -0.1645  0.1083
58932W        W96426  15.571  33.171  21.008  0.1552 -0.1107 -0.0767
58933W        W96427   8.404  10.486  12.042 -0.0946  0.0480  0.3000
58934W        W96428   9.485  34.125  12.106  0.0194 -0.2933  0.1822
58935W        W96429  18.868  29.755   6.405  0.1753  0.0588  0.0158
58936W        W96430  31.934  19.942   5.653 -0.0880 -0.0336 -0.1521
58937W        W96431  23.922  33.618  20.776  0.1493 -0.4193 -0.1766
58938W        W96432  16.146  31.239   5.502 -0.1893 -0.0761 -0.0850
58939W        W96433   1.526   5.949   2.846  0.2089 -0.1627 -0.2308
58940W        W96434  21.595  10.822  14.958  0.0348 -0.3201  0.2395
58941W        W96435  32.088  21.855  15.640 -0.0620  0.0451  0.4541
58942W        W96436   4.814  28.327  24.119 -0.0034  0.0159 -0.1126
58943W        W96437  12.833  24.369  25.881  0.0590  0.1484 -0.0244
58944W        W96438  27.524   4.345   1.931 -0.4759 -0.1328 -0.2365
58945W        W96439  18.191  25.203  22.873 -0.2531 -0.0735 -0.0686
58946W        W96440  32.310   6.944  25.282  0.0970  0.1990  0.0271
58947W        W96441  12.757  18.868  23.352  0.0994  0.0553  0.0255
58948W        W96442  23.083   2.528  13.525  0.1356  0.0500  0.1856
58949W        W96443  19.384  26.752  23.349  0.2447 -0.2497 -0.1958
58950W        W96444  16.048  34.600   6.369 -0.0212 -0.1530  0.0180
58951W        W96445   2.093  14.389  26.072  0.0123  0.1958  0.2739
58952W        W96446  27.239   8.164  16.369 -0.2454  0.1584  0.0621
58953W        W96447  32.485  14.209  22.381  0.0105 -0.0699 -0.0913
58954W        W96448  19.970  20.785  21.215 -0.0551 -0.0821  0.1729
58955W        W96449   8.344  33.486   4.750 -0.1545  0.0652 -0.1775
58956W        W96450  26.838  14.414  24.311  0.0606 -0.0770 -0.0290
58957W        W96451  10.074   4.623  25.032  0.0313 -0.1489 -0.0877
58958W        W96452  12.910  10.989   4.412  0.0850  0.0077  0.0537
58959W        W96453  10.216   7.939  10.106 -0.0541 -0.1017 -0.0239
58960W        W96454  16.041  15.660   8.254 -0.0060  0.0991  0.3843
58961W        W96455  29.315  32.114   3.673 -0.0073  0.0254  0.2312
58962W        W96456  10.265  16.687   7.332  0.1713  0.1579 -0.1776
58963W        W96457  30.262   3.671   5.148 -0.0522  0.0083  0.0914
58964W        W96458  34.672  11.386  13.534 -0.1445 -0.2044  0.1034
58965W        W96459  25.100  13.786  18.883 -0.2668  0.2473 -0.2143
58966W        W96460   4.795  28.274  21.068  0.0563  0.1102 -0.0923
58967W        W96461  21.694  29.850  19.850 -0.1267  0.2102  0.1115
58968W        W96462  11.513  13.281   8.263  0.3192 -0.0961  0.4602
58969W        W96463  16.037  17.868   1.230  0.0476 -0.1181 -0.0287
58970W        W96464  27.894  18.872   6.382 -0.2366  0.0934 -0.0495
58971W        W96465  10.455  31.822  15.287 -0.3400  0.0339 -0.0761
58972W        W96466  25.144  29.144   4.340 -0.2832 -0.1169  0.2433
58973W        W96467  12.725  14.785  12.259  0.1531  0.2428  0.1342
58974W        W96468   3.403  35.329   2.640 -0.1871 -0.0357  0.0175
58975W        W96469   0.190  22.677   2.405  0.2067 -0.3140 -0.1038
58976W        W96470  32.133   0.605  13.787  0.2736 -0.0805 -0.0298
58977W        W96471   6.735  23.911   9.916 -0.1964 -0.1317 -0.2400
58978W        W96472   7.770  11.794  23.622 -0.1726 -0.0696 -0.2613
58979W        W96473  10.743  10.228  11.619 -0.0289 -0.0784  0.0757
58980W        W96474  18.576  34.322   5.502  0.1403  0.0270  0.3710
58981W        W96475  30.259  26.376  17.485 -0.2450  0.0196 -0.0791
58982W        W96476  13.083  20.163   1.205  0.0605 -0.0308 -0.2406
58983W        W96477   6.306  20.480  23.771 -0.0184 -0.1224  0.2599
58984W        W96478   7.915  21.026  10.671 -0.0306 -0.1629  0.1152
58985W        W96479  19.104  20.568   1.097  0.0059 -0.1045  0.1881
58986W        W96480  17.755  16.730  18.786  0.1180  0.2367  0.1000
58987W        W96481  34.396   1.441  14.070  0.1915  0.0204  0.1833
58988W        W96482  13.911  24.178  13.603  0.3544 -0.0102  0.1477
58989W        W96483  24.702  21.881  16.865 -0.4037  0.3099  0.1118
58990W        W96484  16.509  34.605   3.170 -0.1294 -0.0076  0.0446
58991W        W96485  34.103   5.199  15.863 -0.0417  0.0585 -0.0674
58992W        W96486  15.117  32.499   4.880 -0.5336 -0.1387 -0.3690
58993W        W96487   1.197   6.604   0.408 -0.1579  0.0244  0.4378
58994W        W96488  18.824   6.566  25.862  0.0415 -0.0912 -0.2782
58995W        W96489  26.570  14.765  10.605  0.5662  0.0527 -0.0931
58996W        W96490  11.367  11.283   0.482 -0.2610  0.2813  0.1313
58997W        W96491   7.645  27.520  25.034 -0.2445  0.1505  0.2088
58998W        W96492  17.635  28.967  23.048  0.1532 -0.1385 -0.0915
58999W        W96493  19.212  18.377  19.294 -0.2365 -0.1692  0.1137
59000W        W96494   3.133  33.527  10.824  0.2554 -0.2676 -0.3690
59001W        W96495  20.842  28.654  19.616 -0.1347  0.1738  0.0661
59002W        W96496  22.233  28.776  17.147  0.4346  0.1549 -0.1008
59003W        W96497  20.167  24.106  25.055 -0.1091  0.0294  0.0732
59004W        W96498   4.593  23.185  20.696  0.0591  0.0186 -0.0941
59005W        W96499  15.364   0.949  11.173  0.1148 -0.0382 -0.0938
59006W        W96500  11.172  29.462  10.336  0.3000 -0.0391 -0.0816
59007W        W96501  22.315   3.955   6.286  0.1681  0.2113  0.0648
59008W        W96502  34.703   5.944   0.072 -0.3398 -0.1230 -0.0199
59009W        W96503  33.813  25.783   9.840  0.0198 -0.1990  0.0359
59010W        W96504  34.873   1.227  21.179  0.2980  0.0538 -0.2338
59011W        W96505   2.029   5.623   1.693 -0.0435 -0.0194  0.0139
59012W        W96506  14.556   8.853  13.616  0.2900  0.1137  0.0492
59013W        W96507  31.519  30.457  12.731 -0.1134  0.0384  0.0942
59014W        W96508  15.771   0.003   5.342 -0.1172  0.0145  0.2327
59015W        W96509  26.890  21.256   8.506 -0.0071  0.1383 -0.1533
59016W        W96510   6.452  13.003  18.838 -0.0913 -0.1555  0.2185
59017W        W96511  11.767  30.902   4.592  0.1474  0.2301 -0.4443
59018W        W96512  10.137   4.886   1.426  0.0443 -0.0468 -0.2136
59019W        W96513   7.598   0.643  23.986  0.1748 -0.2321  0.1447
59020W        W96514  28.301  23.940  10.633 -0.3490  0.2065  0.2048
59021W        W96515   6.206   1.313  23.519 -0.1999  0.3458 -0.0357
59022W        W96516  34.071  17.997  22.194 -0.4463  0.1805 -0.0898
59023W        W96517  29.842  21.273  25.235  0.4275 -0.3235 -0.0651
59024W        W96518   7.634  27.193  10.102 -0.0107 -0.1642  0.2526
59025W        W96519  10.760  12.243  22.461  0.0183 -0.0968  0.3725
59026W        W96520  19.684  26.642   5.633 -0.2390 -0.1622 -0.2941
59027W        W96521   3.266   1.343  23.107 -0.2048  0.0307 -0.2329
59028W        W96522  12.015  22.019  16.902  0.1503  0.1512  0.2332
59029W        W96523  30.110  11.894  20.079  0.2648  0.2283 -0.3211
59030W        W96524  34.940  14.029   2.258 -0.0336  0.5274  0.1042
59031W        W96525  18.504  30.168  19.877  0.0380  0.1532 -0.0523
59032W        W96526  19.621  26.884   0.502 -0.0925 -0.1936 -0.0465
59033W        W96527  25.160  31.926  12.447  0.0869  0.1256 -0.1057
59034W        W96528   6.702   8.943   3.320  0.2082 -0.2116 -0.0871
59035W        W96529  13.011   5.552  20.852 -0.0474  0.1901 -0.4152
59036W        W96530   3.663  26.065   6.073  0.0275 -0.4121 -0.1780
59037W        W96531  34.043   1.282   3.015 -0.2032 -0.2540 -0.1439
59038W        W96532   8.045  24.134  24.221  0.0400  0.2375  0.2413
59039W        W96533   1.106   5.115  21.692  0.0854  0.1101  0.1838
59040W        W96534  32.031   8.752   1.414 -0.3003 -0.4006  0.0785
59041W        W96535  15.511  25.179  10.135 -0.0760  0.1334  0.0479
59042W        W96536  31.771  34.636  16.729 -0.0905  0.4528 -0.1403
59043W        W96537  14.575  13.425  23.473 -0.1159 -0.2240 -0.2304
59044W        W96538   8.649   1.420   2.504 -0.1234 -0.1691 -0.1557
59045W        W96539   8.577   5.144   7.799 -0.0352  0.0102 -0.4205
59046W        W96540  30.957  33.710  17.147  0.2504  0.3187 -0.1806
59047W        W96541  22.665  10.194   4.722  0.0136 -0.3211  0.2022
59048W        W96542  23.551  24.838  12.580 -0.1691  0.1406  0.1093
59049W        W96543  10.618  11.336   6.245 -0.0649  0.1563  0.0546
59050W        W96544  12.651   1.155  23.991 -0.1159 -0.3246  0.0710
59051W        W96545   1.254  34.772  22.845  0.1841  0.1035 -0.0350
59052W        W96546  17.290  34.871  15.856 -0.3277 -0.0042 -0.3972
59053W        W96547   7.387   7.089   1.851 -0.0753 -0.0014 -0.2937
59054W        W96548  30.873   7.384  17.933 -0.1260  0.1417 -0.0809
59055W        W96549  25.313   4.454   0.209  0.2362  0.0905  0.0990
59056W        W96550  33.112   7.424  13.804 -0.0629  0.3872 -0.1397
59057W        W96551   7.461  16.927  19.723 -0.0883 -0.0826  0.0525
59058W        W96552  30.712  34.141  19.877 -0.1725 -0.2808  0.1525
59059W        W96553  31.669  33.413   2.704 -0.3412  0.2256 -0.0889
59060W        W96554  28.856  27.618  16.646 -0.0270  0.0445 -0.0809
59061W        W96555  13.966   7.565   5.347 -0.1513  0.2511  0.2841
59062W        W96556  10.998   8.998  13.126  0.4120 -0.0120  0.2626
59063W        W96557   7.023  34.931   3.431  0.0374 -0.0470  0.0448
59064W        W96558  23.527  16.487  15.766 -0.0343  0.0083 -0.5185
59065W        W96559  34.999   7.763  15.327 -0.3373 -0.0732  0.0555
59066W        W96560   5.138  13.240   8.867  0.1412 -0.1729 -0.4091
59067W        W96561  24.141  15.553  16.695 -0.0413  0.4596  0.0736
59068W        W96562  22.854  33.432   0.195  0.0082  0.1692  0.0822
59069W        W96563   3.532  21.023  20.924 -0.4627 -0.0228 -0.0854
59070W        W96564  30.422  33.780  14.168  0.0736  0.0774 -0.1858
59071W        W96565  29.621   2.890  24.391  0.1555  0.1198 -0.0180
59072W        W96566  12.782  11.856  24.789 -0.1362 -0.0083  0.1587
59073W        W96567   7.110  12.240  20.808  0.0199 -0.0001 -0.0635
59074W        W96568  32.337  12.330  13.089  0.3823 -0.1342 -0.3162
59075W        W96569  27.032  32.478  12.654  0.0079  0.2566 -0.1910
59076W        W96570   2.506  11.219  22.569 -0.1080  0.0924 -0.0516
59077W        W96571  12.582  22.224  16.632 -0.0786  0.0476 -0.1841
59078W        W96572  18.081  11.576  26.245 -0.1162  0.1068 -0.1375
59079W        W96573   2.489  24.567   2.832  0.0334 -0.0726  0.0352
59080W        W96574  34.768  29.199  14.091 -0.2000  0.1622  0.4225
59081W        W96575   1.456   1.782  20.484 -0.1727  0.0294  0.0409
59082W        W96576  26.031   0.522  22.937 -0.0211 -0.0699 -0.2875
59083W        W96577   8.971  29.147  25.490  0.4215 -0.0008 -0.1676
59084W        W96578   3.897  10.030  19.192  0.0683 -0.0436  0.2741
59085W        W96579  31.641  15.674  25.021 -0.3575  0.2380 -0.2010
59086W        W96580   3.374  14.890  20.398  0.3819  0.2810 -0.0491
59087W        W96581  28.884  29.326  23.270  0.1723 -0.0203  0.0139
59088W        W96582  32.681   6.886  18.619  0.1440  0.2718  0.0442
59089W        W96583  11.173  16.459  20.578  0.1610 -0.0005  0.2622
59090W        W96584   2.420  27.343   2.950  0.0986 -0.1556  0.0185
59091W        W96585  33.207  12.349  11.347 -0.0547  0.5593  0.0131
59092W        W96586  27.465  32.421  16.960 -0.1672  0.0922 -0.2632
59093W        W96587  18.943  32.405  20.896 -0.3627  0.0525 -0.2137
59094W        W96588   9.380   4.346   7.295 -0.1653 -0.1088 -0.2819
59095W        W96589   7.713  22.318  13.370  0.1117  0.0263 -0.1735
59096W        W96590  19.635   5.877  21.821  0.1894  0.2032  0.0175
59097W        W96591  25.631  16.479  17.906  0.1034  0.0869 -0.0566
59098W        W96592  34.694   1.534   6.800  0.4862  0.1858 -0.2677
59099W        W96593   2.177  22.382  24.349  0.2083  0.0377  0.0329
59100W        W96594  26.369  16.239   9.946  0.1894  0.1056 -0.2931
59101W        W96595   0.752  14.368  15.976 -0.0117  0.0226 -0.3339
59102W        W96596   3.638  10.896  16.414  0.2195 -0.2997  0.1145
59103W        W96597  31.427  17.412  22.397 -0.0260 -0.2120 -0.2318
59104W        W96598   4.949   8.941  23.368 -0.1925 -0.0198  0.1325
59105W        W96599  30.492   7.758   2.166  0.2369 -0.0936 -0.1821
59106W        W96600   2.085  35.166   2.460 -0.0322 -0.1521 -0.0271
59107W        W96601  27.787  24.528  13.908  0.1175 -0.5289 -0.1798
59108W        W96602  21.773   9.804  22.882  0.2051 -0.1219 -0.3531
59109W        W96603  20.257  28.445  18.719  0.0701 -0.0352 -0.0429
59110W        W96604  25.669   0.658   5.599  0.0955  0.1454 -0.2692
59111W        W96605  16.086   1.190   2.336  0.1556  0.1016  0.2785
59112W        W96606  13.051  24.052  24.610  0.3933  0.2077 -0.0659
59113W        W96607  24.015  24.826   2.260  0.1982 -0.2515 -0.2444
59114W        W96608   2.386  23.483  15.229  0.0132 -0.0316 -0.1669
59115W        W96609   3.315  11.780  20.126  0.1299  0.1125  0.1344
59116W        W96610  18.637  31.044  17.862 -0.1146  0.2109  0.3453
59117W        W96611  15.681  25.028  21.226  0.1418 -0.0200 -0.2253
59118W        W96612  33.663  20.537  21.798  0.0988  0.1241 -0.1935
59119W        W96613   5.758  19.278   5.383 -0.0717  0.0659 -0.0145
59120W        W96614  31.926   6.647  25.998 -0.4752  0.1691 -0.2136
59121W        W96615   2.540   7.765   4.492  0.4140  0.1061 -0.2984
59122W        W96616  30.457  26.858  22.194 -0.0131  0.2660  0.0793
59123W        W96617  19.014  18.779   1.581 -0.1576  0.0740 -0.0607
59124W        W96618  24.015   5.368   3.014 -0.2170  0.0955  0.0684
59125W        W96619  27.083  10.922  22.677 -0.2610 -0.1289 -0.0203
59126W        W96620  26.927  14.567  25.908 -0.2375 -0.3052 -0.0448
59127W        W96621  15.656  11.012   0.979 -0.3392  0.0003  0.0641
59128W        W96622   2.586  26.588  20.161 -0.1382  0.1992  0.0248
59129W        W96623  33.778  19.615   7.836  0.1260 -0.0493  0.0926
59130W        W96624  13.040  20.152   2.958  0.0645  0.0493  0.2045
59131W        W96625   5.849  26.165   1.679  0.0427 -0.1559 -0.1469
59132W        W96626   1.914   5.222  22.384  0.0505  0.0539 -0.2051
59133W        W96627  19.088  19.784  18.761 -0.1628 -0.1994 -0.0460
59134W        W96628   3.469  34.770  25.289 -0.0390  0.3808 -0.2500
59135W        W96629   5.101  13.278  22.263  0.0878  0.0836 -0.1368
59136W        W96630  29.584  21.718  21.965  0.1534 -0.0692  0.1125
59137W        W96631  11.848  24.903   0.198  0.1066  0.2092  0.4647
59138W        W96632  30.881  23.180  19.242 -0.0191  0.1729 -0.0682
59139W        W96633   3.847  15.073   1.365 -0.1804 -0.0206 -0.1889
59140W        W96634  26.451   6.211   1.290 -0.1406  0.0261  0.0544
59141W        W96635  14.072  28.560  15.120 -0.1358  0.0185 -0.1635
59142W        W96636  21.013  28.226  14.880  0.1493 -0.2331  0.2847
59143W        W96637  10.377  27.339   7.576 -0.0091 -0.0750 -0.2193
59144W        W96638  17.213  18.006  13.677  0.1655 -0.0280 -0.1059
59145W        W96639  32.291   3.892  26.186  0.0202 -0.1787 -0.1679
59146W        W96640  14.309  18.474   7.174  0.1925  0.0804 -0.1276
59147W        W96641  20.743  35.085  20.073  0.1999 -0.1004 -0.1636
59148W        W96642  19.791  33.367   3.853 -0.2040  0.1582  0.0415
59149W        W96643   3.090   3.813   3.643 -0.0676  0.2327  0.0143
59150W        W96644  22.857   6.744  23.155 -0.0225 -0.3377 -0.2921
59151W        W96645  19.669   3.789  10.383 -0.1482  0.0158 -0.3437
59152W        W96646  17.180  24.972  14.078 -0.3683  0.2748  0.1585
59153W        W96647  22.800   5.693  15.789  0.0895 -0.0785 -0.1849
59154W        W96648  31.670  32.950  20.202  0.1288  0.1710  0.1180
59155W        W96649  12.452   1.493  20.138 -0.0105 -0.2472  0.0587
59156W        W96650  21.997   8.731  14.963  0.2966 -0.2935  0.3013
59157W        W96651   7.358  19.901   6.032 -0.1257 -0.2297  0.1155
59158W        W96652  26.334  19.111   9.286 -0.1614 -0.0347 -0.0216
59159W        W96653  24.449  31.646  17.144 -0.1720 -0.0350  0.0279
59160W        W96654  13.021  28.790   7.812  0.0565 -0.0953  0.0466
59161W        W96655   5.898   1.568  12.736  0.1531 -0.3639  0.0792
59162W        W96656  29.927  22.466  23.984 -0.1441 -0.0777  0.1719
59163W        W96657  29.999  13.258  26.092  0.0578 -0.0033 -0.0889
59164W        W96658  21.930  27.811  19.355  0.4433  0.2111 -0.0478
59165W        W96659  22.037   0.288  18.894  0.0055  0.0698 -0.0016
59166W        W96660   9.817  26.350  15.386 -0.1068 -0.1579 -0.1159
59167W        W96661  13.312   9.390  23.581  0.0103  0.0476 -0.0614
59168W        W96662  11.016  10.555  11.135  0.2722 -0.1400 -0.0575
59169W        W96663   7.407  11.261   2.686  0.0060  0.3322  0.3428
59170W        W96664   6.924  21.735  24.926 -0.0672  0.3953 -0.1497
59171W        W96665  10.117   2.531  14.448  0.3250  0.1406 -0.3001
59172W        W96666  23.808  34.814  17.246  0.3808  0.1505 -0.2217
59173W        W96667   2.640  26.937  17.941  0.2371 -0.0453  0.0499
59174W        W96668   9.888  18.564  13.017 -0.4146 -0.0218  0.3564
59175W        W96669  21.110  21.945  22.605 -0.2082  0.0452  0.0861
59176W        W96670  27.813  25.544   9.144  0.0528 -0.1368  0.0801
59177W        W96671  12.768  25.218  17.129  0.2078  0.2334 -0.0481
59178W        W96672  16.371  31.397   7.825 -0.0558 -0.1486 -0.1533
59179W        W96673  29.869  19.463  20.266  0.1364  0.0966  0.0141
59180W        W96674  14.112  12.925   7.733  0.3585 -0.0591  0.1442
59181W        W96675  31.436   8.514  16.753  0.0316  0.0409 -0.0357
59182W        W96676  29.155  12.596   7.403  0.0206 -0.1832  0.2469
59183W        W96677  14.868  25.129  16.464  0.1583 -0.0439  0.0408
59184W        W96678  30.776  12.903  12.104  0.2381 -0.3482  0.2208
59185W        W96679   7.383  14.331  18.210 -0.2399  0.0110 -0.2275
59186W        W96680  25.386  32.258  14.503  0.2098 -0.0283  0.1076
59187W        W96681  14.987  34.752  24.268  0.0329 -0.1509  0.0284
59188W        W96682  12.623  29.044  25.660  0.0931  0.1884  0.2423
59189W        W96683   0.129   0.233   1.705  0.2175  0.2709  0.3869
59190W        W96684   0.406   9.452  17.625 -0.0402 -0.2242  0.2824
59191W        W96685  25.379   8.333  22.342  0.0866 -0.0744 -0.0755
59192W        W96686  25.135  32.044   5.067  0.1892  0.0310 -0.0407
59193W        W96687  30.749  34.468  15.766 -0.1027 -0.1330 -0.0761
59194W        W96688  13.943   5.985  23.328 -0.2729  0.2493 -0.0387
59195W        W96689  11.509   9.599  10.094 -0.2619 -0.1971  0.1123
59196W        W96690   5.292  33.053   7.100  0.1624 -0.0112 -0.3586
59197W        W96691   3.928  26.932  20.335  0.0971 -0.1476  0.1460
59198W        W96692  32.221   9.380  24.956  0.1170 -0.1745 -0.0859
59199W        W96693   2.154  17.402  15.045  0.1058 -0.1640  0.2934
59200W        W96694  28.759   0.736  19.374 -0.0379 -0.1571  0.1532
59201W        W96695  14.372  14.814  12.528  0.1942 -0.2848  0.2186
59202W        W96696  31.615   4.483  24.977 -0.1541  0.1324  0.0923
59203W        W96697   5.589   8.404   1.720  0.3818  0.1128 -0.1014
59204W        W96698  29.821   4.344   1.179  0.1212  0.2065 -0.2570
59205W        W96699  19.767  18.405   7.546  0.1813 -0.0326 -0.0059
59206W        W96700  30.801  35.314  17.487 -0.2247 -0.0986 -0.1617
59207W        W96701  33.100  25.145  15.393  0.3711  0.2104  0.1962
59208W        W96702  33.515  13.174  22.195  0.0127 -0.2285  0.0252
59209W        W96703   0.487  34.120  17.502  0.4710 -0.1740  0.0454
59210W        W96704  34.321  32.158  25.636  0.1475  0.4086  0.0649
59211W        W96705  19.026  23.877   3.924  0.2888 -0.4958 -0.3747
59212W        W96706  23.853  27.410   5.101  0.1058 -0.2255 -0.0349
59213W        W96707  27.010  20.860  10.515 -0.0099 -0.0682 -0.0814
59214W        W96708   1.398  23.539  13.748  0.1816 -0.0035  0.0133
59215W        W96709  34.993  34.344   6.116  0.1515 -0.1114  0.0970
59216W        W96710   3.346  33.437   6.963 -0.0684  0.2463 -0.1668
59217W        W96711  29.928   2.487  22.492 -0.1952 -0.2405 -0.2504
59218W        W96712  16.852   7.714   0.519  0.0509  0.0601  0.3845
59219W        W96713  32.424  34.174   3.307 -0.0193 -0.0090  0.3520
59220W        W96714   3.782   8.626  25.368 -0.1138  0.1494 -0.1335
59221W        W96715  29.635   8.684  13.846  0.0266 -0.0160 -0.1467
59222W        W96716  17.658  19.609  22.333  0.1230 -0.3687 -0.0309
59223W        W96717  11.516  16.044  19.960  0.3077 -0.0961  0.2168
59224W        W96718  17.334  31.130  18.144 -0.0991  0.0256 -0.0583
59225W        W96719   0.555  19.036  21.212  0.4154  0.1112  0.1112
59226W        W96720  29.504  22.595  25.322 -0.3452 -0.1235  0.0280
59227W        W96721   2.327  22.959   2.780  0.1319  0.0972  0.0613
59228W        W96722  24.290   8.313  13.803  0.1242 -0.0584 -0.0430
59229W        W96723  14.076  17.235  10.384 -0.3931 -0.1466  0.0465
59230W        W96724  34.816  18.928   7.951  0.0204 -0.1506  0.0836
59231W        W96725  13.613  21.800   7.371  0.4056 -0.1624  0.0581
59232W        W96726  18.356  24.305   4.723  0.2088  0.2335 -0.0523
59233W        W96727  28.763  23.998   5.528  0.0948 -0.0504 -0.0746
59234W        W96728  28.505  28.659   1.293 -0.1056 -0.0539 -0.2548
59235W        W96729  14.477  14.635   3.212  0.0807  0.0723  0.0009
59236W        W96730  19.243  15.918   4.627 -0.0817  0.0688 -0.0899
59237W        W96731  34.284  15.719  14.835  0.0125 -0.0168 -0.3522
59238W        W96732   9.001  24.584   6.415 -0.1774 -0.0975  0.0340
59239W        W96733  21.776  14.812  22.189  0.2376 -0.0103 -0.1648
59240W        W96734  30.119  15.795  17.903  0.0739  0.1323 -0.0186
59241W        W96735  20.602   0.617  25.323  0.0815  0.0566 -0.2371
59242W        W96736  27.711   3.935  11.208 -0.0228 -0.0059  0.2775
59243W        W96737  27.641   5.629   9.686  0.0908  0.0037  0.1151
59244W        W96738   8.491  23.794  22.110 -0.1259  0.1681  0.0729
59245W        W96739  34.614  28.856   1.338 -0.2596  0.0858  0.2891
59246W        W96740  18.154  35.384   4.471  0.1271  0.1679 -0.5174
59247W        W96741  18.777  15.893   8.757 -0.1244 -0.1372 -0.0137
59248W        W96742   2.045   9.576  16.909  0.0186 -0.0443 -0.7786
59249W        W96743  28.618  22.505   7.845 -0.3026 -0.1695  0.1977
59250W        W96744  25.225  22.627  11.931 -0.1947  0.0996 -0.4040
59251W        W96745   1.213   5.432  22.135  0.3475  0.2636 -0.3161
59252W        W96746   1.525  23.614  18.792 -0.1109  0.1454  0.2331
59253W        W96747   1.992  25.940  21.552  0.1306 -0.2855 -0.1253
59254W        W96748   3.450  23.114   5.492 -0.1990  0.2834 -0.2273
59255W        W96749  31.794  29.783   5.091 -0.3712  0.0055  0.1383
59256W        W96750   7.423  12.444   8.052  0.0479  0.2712 -0.3566
59257W        W96751  20.296   0.847   1.721 -0.0333  0.0993 -0.0724
59258W        W96752  10.436   3.644   1.180  0.4022 -0.0301  0.1217
59259W        W96753  22.261   3.956  21.893  0.0518 -0.0680  0.3190
59260W        W96754  34.942  25.981   0.446  0.1069 -0.1447 -0.0269
59261W        W96755  29.485  18.484  23.715  0.3788 -0.1035 -0.2128
59262W        W96756  12.776  23.418  24.851  0.1153 -0.2109 -0.1910
59263W        W96757  20.691  32.555   5.620 -0.1351 -0.2043 -0.0529
59264W        W96758  16.953  11.314  18.395  0.1056  0.0847  0.0907
59265W        W96759  31.016  20.994  21.378 -0.3265  0.0316 -0.0289
59266W        W96760   7.429  18.614  22.228  0.3664  0.0472 -0.0619
59267W        W96761  28.049  24.715   8.498 -0.0847 -0.0964 -0.1986
59268W        W96762  22.931  32.494   1.830  0.2130 -0.0092 -0.1039
59269W        W96763  29.427   5.122  13.645  0.1446 -0.0290  0.3149
59270W        W96764   0.622  18.145  17.278  0.1074 -0.0508  0.2145
59271W        W96765  16.632   0.064   9.702  0.1555 -0.1280  0.2317
59272W        W96766  10.888  29.652   4.343 -0.2365 -0.0186 -0.0630
59273W        W96767  10.892  12.037   7.675 -0.1251 -0.2042  0.0594
59274W        W96768   0.864  19.436  10.657  0.0762 -0.0830  0.0523
59275W        W96769   0.900  28.514  25.162 -0.1654 -0.3052  0.4531
59276W        W96770  26.016  26.008  20.270 -0.2847 -0.2182  0.1451
59277W        W96771   5.691   0.750  26.232 -0.1935  0.2573  0.1298
59278W        W96772  13.741   1.127   6.196  0.2074  0.0650  0.3131
59279W        W96773   7.454   5.399  18.784 -0.0487  0.2046  0.0258
59280W        W96774  30.179  18.797   7.837 -0.2813  0.0414  0.0428
59281W        W96775  18.199  14.753   0.674 -0.0661  0.0725  0.3394
59282W        W96776  17.163   5.896   6.750 -0.3406  0.0149  0.1766
59283W        W96777  29.110   3.297  17.032  0.0911 -0.1835 -0.0935
59284W        W96778  34.513  21.270  23.645 -0.1549  0.0838  0.0418
59285W        W96779   6.160  12.082   0.271  0.1374 -0.3479 -0.0712
59286W        W96780  18.234  33.561  23.915 -0.0684 -0.2505  0.1972
59287W        W96781  34.387  11.000  24.430 -0.0830  0.3076  0.1171
59288W        W96782   9.142   3.343   7.657  0.0109 -0.2434 -0.1746
59289W        W96783  28.723  10.179  21.448 -0.0716 -0.0294 -0.2296
59290W        W96784   0.452  16.592  12.328 -0.2112 -0.1277  0.1982
59291W        W96785  15.933  34.755   8.606  0.2666  0.0500 -0.1765
59292W        W96786  17.072  25.675  21.939 -0.0964  0.2354 -0.1673
59293W        W96787  19.899   5.797  16.364  0.0150  0.2490  0.1568
59294W        W96788   5.589  29.657  14.327  0.3080  0.1859 -0.2822
59295W        W96789   9.785   7.303  19.290  0.0987  0.0888  0.1045
59296W        W96790  30.635  17.039  11.254  0.1341 -0.1160  0.2474
59297W        W96791  31.864  26.442  17.739  0.0039 -0.1854  0.0939
59298W        W96792  24.988   0.025  12.464  0.0511 -0.3692  0.1001
59299W        W96793  20.975  11.833  19.907 -0.1087  0.0777 -0.1634
59300W        W96794  10.464   4.003  14.511 -0.0670  0.1464  0.1384
59301W        W96795  30.092   3.486  11.697 -0.1984  0.0257 -0.2518
59302W        W96796  11.700  25.047   1.201 -0.2231 -0.2049 -0.1136
59303W        W96797  22.640  20.711  19.214 -0.1327  0.1201 -0.0919
59304W        W96798  27.074  11.059  14.692  0.0055  0.2842  0.2377
59305W        W96799  31.730  12.941  17.660  0.2695 -0.0306  0.1908
59306W        W96800  32.053  12.520   5.411  0.3193  0.0349  0.0422
59307W        W96801  27.966  10.372  24.526 -0.0115  0.0257 -0.2089
59308W        W96802   5.972  11.567  21.856  0.0978  0.3927 -0.0591
59309W        W96803  33.106   9.006  23.532  0.1550  0.4349  0.0250
59310W        W96804  12.037  26.179   9.749 -0.1474 -0.1910  0.1738
59311W        W96805   9.283   8.557  21.488 -0.0843  0.0758  0.4683
59312W        W96806  12.461  12.180  26.219  0.2508 -0.0677  0.0903
59313W        W96807  10.423  24.369  12.623  0.0591  0.0517 -0.2890
59314W        W96808  10.099   4.265  22.687  0.2334  0.0101 -0.0826
59315W        W96809  29.845  34.652  17.684  0.2571 -0.1275  0.0664
59316W        W96810  33.905  22.622  12.632 -0.2885  0.1830 -0.3105
59317W        W96811   8.552   8.623  13.658  0.1395 -0.1854 -0.2536
59318W        W96812  17.825  34.885   6.092 -0.0806 -0.1998 -0.1551
59319W        W96813   5.636  14.843   7.457  0.4303  0.0606 -0.2529
59320W        W96814  16.997   5.396   3.090  0.2667 -0.2114  0.0691
59321W        W96815   7.082  17.913   9.494 -0.1063  0.1250 -0.1048
59322W        W96816  24.482  27.692  17.716 -0.0758 -0.1956  0.1552
59323W        W96817  26.761  32.056  14.350 -0.2271 -0.3088 -0.5361
59324W        W96818  15.337  17.512  22.964  0.2145 -0.0118  0.0685
59325W        W96819  34.015   8.337  26.075 -0.0542  0.0801  0.2725
59326W        W96820  17.075  17.915   9.796 -0.0489  0.1999 -0.2338
59327W        W96821  17.353  20.565   1.314  0.1380  0.0146 -0.1053
59328W        W96822  17.841   9.927  26.165  0.0367  0.1296 -0.2841
59329W        W96823   6.794   4.174  23.398 -0.2086  0.0799 -0.0342
59330W        W96824  15.911  23.192   1.485 -0.1891 -0.1023 -0.1174
59331W        W96825  28.530  13.243  22.228  0.0760 -0.1419 -0.3862
59332W        W96826  17.793  30.959   3.937 -0.0448  0.0064 -0.2437
59333W        W96827  13.654  24.854  11.722  0.0968 -0.2742  0.3336
59334W        W96828   5.016  23.583  25.968  0.1762 -0.3779 -0.0299
59335W        W96829   7.414   8.938  12.497  0.0056  0.1677  0.1495
59336W        W96830   1.989  24.794  23.553  0.1558 -0.2303  0.5559
59337W        W96831  13.594   4.334  18.884  0.0818  0.0092 -0.2617
59338W        W96832  12.110  20.655   9.137 -0.0493  0.3155  0.1912
59339W        W96833  32.087  10.696  15.209  0.0097  0.0847  0.2075
59340W        W96834  17.851  34.390  16.727 -0.1060 -0.2561 -0.1248
59341W        W96835  17.558   9.193  12.417 -0.0085 -0.1373  0.1092
59342W        W96836  22.616  12.280  17.520  0.3760  0.3299  0.0280
59343W        W96837  28.352   6.064   9.476  0.2876 -0.1032 -0.0992
59344W        W96838   0.147  28.646   4.427  0.3762  0.0075 -0.3035
59345W        W96839  25.961  15.131  21.853  0.0985 -0.3819  0.4124
59346W        W96840   0.616  22.970  20.035  0.2316 -0.0006 -0.0816
59347W        W96841  27.871   0.284  22.584  0.1835 -0.3658 -0.5104
59348W        W96842  25.407  25.690   2.783  0.0230  0.2072  0.0574
59349W        W96843  21.167  20.336   1.605  0.0196 -0.1762 -0.0564
59350W        W96844  16.853  10.645   4.691  0.1079 -0.0253  0.1502
59351W        W96845  12.988  15.945   0.302  0.0205 -0.0176  0.3539
59352W        W96846  25.559  15.970  24.662 -0.0906 -0.0937  0.1087
59353W        W96847  12.247  25.341  10.354  0.0727  0.0850  0.1971
59354W        W96848  34.654   9.069  11.396 -0.2782  0.0153  0.0160
59355W        W96849   4.919   9.090   6.121  0.3422  0.0401 -0.0994
59356W        W96850  31.522  27.976  16.753  0.2312 -0.3062 -0.1373
59357W        W96851  12.983  22.495  13.376  0.2471  0.3291  0.4050
59358W        W96852  30.626  26.609  17.676 -0.0999 -0.2525  0.1669
59359W        W96853  14.385   9.734  25.783 -0.1550  0.2118 -0.0449
59360W        W96854  29.998  14.583   8.659 -0.1926 -0.1290 -0.1069
59361W        W96855  33.159  17.371  17.362  0.0224 -0.0425  0.1787
59362W        W96856  22.212  18.488  25.487  0.1177 -0.1859  0.0155
59363W        W96857   5.255   7.062  21.261  0.0212 -0.0311  0.0650
59364W        W96858  27.828  29.210   0.122  0.0507  0.1986  0.2110
59365W        W96859  32.381  22.910  21.862  0.1165 -0.2762 -0.0503
59366W        W96860  32.531  21.164  15.356 -0.2607  0.3716  0.1319
59367W        W96861   3.339  25.056   4.831  0.3343  0.0696 -0.1977
59368W        W96862  35.060  24.531  18.708  0.0186  0.3272 -0.2042
59369W        W96863  15.565   7.504  12.266  0.3265  0.2050  0.3099
59370W        W96864   3.849  22.970  22.586 -0.1096 -0.0538 -0.1217
59371W        W96865  19.443   8.292   7.376 -0.0449 -0.1898 -0.0173
59372W        W96866   5.949  32.769  25.054 -0.3004 -0.0059  0.1609
59373W        W96867  10.525  12.531  21.987  0.2504  0.4013 -0.3462
59374W        W96868  31.129   4.835  13.841  0.0596 -0.0595 -0.5358
59375W        W96869  14.610  25.218   5.359 -0.0385  0.2452 -0.2200
59376W        W96870  23.848  31.554   6.340 -0.2864  0.1057 -0.2611
59377W        W96871   8.247  16.172   5.522  0.2480  0.2382  0.3853
59378W        W96872  27.932  22.391   5.883  0.0549  0.0350  0.0455
59379W        W96873  29.309  10.938  19.584 -0.0962 -0.2425 -0.1834
59380W        W96874  33.488   8.624   1.211  0.2077 -0.1927  0.0197
59381W        W96875  28.057  16.945   0.243  0.0765 -0.0052  0.4348
59382W        W96876  32.677  21.827  18.765  0.3675 -0.1402 -0.2239
59383W        W96877  31.331  23.300  19.511  0.0873 -0.2634 -0.3188
59384W        W96878   7.285  22.543   3.780  0.1972 -0.2450 -0.1020
59385W        W96879  27.388  34.756  14.712  0.3688 -0.2294  0.2512
59386W        W96880  31.019   7.120  11.310  0.0369 -0.0593  0.1551
59387W        W96881  34.277   2.437   2.189  0.0620  0.0128  0.0236
59388W        W96882  24.791  16.603   9.071 -0.0905 -0.2695 -0.2304
59389W        W96883  18.045   4.378   7.628 -0.1659 -0.2919 -0.1088
59390W        W96884  20.908  31.989  14.472 -0.2163 -0.0299  0.0816
59391W        W96885   6.253   8.882   4.378 -0.1500  0.0903  0.0840
59392W        W96886  15.910  33.520   1.038 -0.1806  0.3783 -0.0943
59393W        W96887  30.430  16.224  25.342 -0.0355  0.2495  0.2015
59394W        W96888   8.154  19.774   1.272 -0.1945  0.0939  0.1471
59395W        W96889  28.128  12.681   7.479  0.1405 -0.0554  0.0330
59396W        W96890   8.666   2.671  14.477  0.0715 -0.0644 -0.0134
59397W        W96891  12.723   1.263  21.041 -0.0219  0.0213 -0.0253
59398W        W96892  13.307  29.601  15.044 -0.0370 -0.1001 -0.0390
59399W        W96893   4.387  15.620  18.254 -0.4059 -0.0181 -0.0385
59400W        W96894  34.186  23.318  22.812 -0.1859 -0.0795  0.2299
59401W        W96895  30.322  25.607  10.656 -0.0605 -0.0136  0.0064
59402W        W96896   1.727  21.370  22.872  0.2617  0.3263 -0.0221
59403W        W96897  11.163  10.622  21.917 -0.0898  0.2785 -0.1945
59404W        W96898   7.578   5.593   2.818  0.0125 -0.1531  0.0234
59405W        W96899  34.659  31.779   3.459  0.1128  0.1142 -0.3133
59406W        W96900  10.364  21.569  25.406  0.2673  0.1964  0.1536
59407W        W96901  27.510  28.886  20.574 -0.1172 -0.0894 -0.1655
59408W        W96902   2.217  30.617   2.967 -0.0074  0.1446  0.1057
59409W        W96903  10.535  20.972  23.444  0.1435  0.1865 -0.0248
59410W        W96904   8.748  12.886  11.795 -0.1125  0.3311  0.0768
59411W        W96905  29.481   0.664  15.840  0.2087  0.2830  0.1291
59412W        W96906  32.306  24.070   7.971  0.3550  0.0276  0.0440
59413W        W96907  18.284  19.693   3.856 -0.0067 -0.0248  0.1351
59414W        W96908   0.559  15.089  16.303  0.0327 -0.0225  0.1387
59415W        W96909  31.394  24.646   1.007 -0.0098  0.1127 -0.1300
59416W        W96910  30.272   6.586  10.309  0.0943 -0.0117 -0.0006
59417W        W96911   7.153  20.082   6.513  0.2400 -0.0610 -0.0375
59418W        W96912   1.548  27.942   7.207  0.1948  0.1121  0.1851
59419W        W96913   0.347  32.083   6.393  0.1256 -0.0137  0.3402
59420W        W96914   6.950   9.392   6.016 -0.0833 -0.1900 -0.1537
59421W        W96915   8.156  26.720  24.244  0.1684  0.2507 -0.2351
59422W        W96916  27.469  18.155   5.712  0.0232  0.1429  0.0049
59423W        W96917  31.154  22.068  25.239 -0.2281  0.2028 -0.1712
59424W        W96918  11.852   3.641  19.395 -0.0097 -0.2813 -0.3767
59425W        W96919  11.917  32.178  25.345  0.1166 -0.4386 -0.0649
59426W        W96920  14.994   6.766   9.097  0.2791  0.0841  0.1941
59427W        W96921  11.275   0.139  10.995 -0.3103  0.0180  0.1679
59428W        W96922  14.011  31.580  24.694 -0.1717  0.0064 -0.0708
59429W        W96923   3.714  30.942  23.537  0.0195  0.0837  0.0794
59430W        W96924  17.552  34.725  18.000  0.2416  0.1723 -0.0562
59431W        W96925   6.271  11.808  23.326 -0.3184 -0.3626 -0.0526
59432W        W96926  22.402  34.892  15.340 -0.3128  0.2097 -0.1584
59433W        W96927  17.248   0.578   0.935 -0.1354  0.0694  0.0813
59434W        W96928  19.590   3.824   1.185 -0.0110 -0.2235 -0.0469
59435W        W96929   8.534  20.544   8.261 -0.0451  0.0947  0.1241
59436W        W96930  25.498  24.567  13.172 -0.1299  0.1290 -0.0843
59437W        W96931  28.609  20.263  21.294 -0.0957  0.1240 -0.2114
59438W        W96932  33.435  11.864  16.249 -0.1390 -0.0148 -0.0305
59439W        W96933   1.648  24.169   1.555  0.0221 -0.2924  0.3383
59440W        W96934   9.350  15.922   4.133  0.1181 -0.0535  0.0218
59441W        W96935  17.542  29.313  18.737 -0.3762  0.4383  0.1570
59442W        W96936  14.260   6.888   6.641  0.0683 -0.5154 -0.0480
59443W        W96937  29.852   4.966  22.851 -0.0165  0.0159 -0.0544
59444W        W96938  28.936  18.542  20.524  0.1047 -0.2729 -0.0146
59445W        W96939  13.806  19.386  11.354 -0.2459  0.0857  0.0231
59446W        W96940   7.226   0.373  20.240 -0.1038 -0.1658 -0.0014
59447W        W96941   6.730  24.432   6.295  0.1599  0.2239 -0.1412
59448W        W96942  29.988  23.559   9.293 -0.3455 -0.4192 -0.0324
59449W        W96943  25.553   5.264  23.090  0.1760 -0.4130  0.0325
59450W        W96944   5.062  26.176   0.989 -0.0371 -0.1503 -0.1044
59451W        W96945  26.599  12.997  10.772  0.1189  0.0670 -0.2251
59452W        W96946  22.600  21.368  16.373  0.1707 -0.3714 -0.2603
59453W        W96947  10.111  32.728  22.244  0.2413  0.2437  0.1343
59454W        W96948  10.505  34.835   7.163  0.0193  0.1521  0.0478
59455W        W96949  26.785  14.169  11.638  0.1364  0.1482  0.1890
59456W        W96950   3.818  10.801   7.968  0.0370  0.4330 -0.1837
59457W        W96951   7.863  13.183  23.679  0.2456  0.0146  0.0290
59458W        W96952   2.901   0.340  19.455  0.0797  0.1028 -0.1779
59459W        W96953  23.862  23.624  17.555  0.1672 -0.2564  0.3082
59460W        W96954  33.316   4.284   2.702 -0.1624  0.1077  0.0097
59461W        W96955  33.878   9.635  11.585  0.0378  0.0838 -0.1034
59462W        W96956  28.721  32.409   4.762 -0.0836 -0.0913 -0.2814
59463W        W96957  26.217  19.480  25.974 -0.0643 -0.0672  0.3212
59464W        W96958  11.056  31.692  23.398  0.0945  0.3602  0.2793
59465W        W96959   9.201   2.440   6.066  0.3294  0.1242 -0.0848
59466W        W96960  24.630  30.574  15.148 -0.1676  0.0982 -0.0120
59467W        W96961  30.743  30.572   5.116  0.0502  0.0742 -0.0816
59468W        W96962   1.274  27.203   6.167  0.1961  0.0007  0.0400
59469W        W96963  13.114   2.469  25.978  0.2474 -0.3199 -0.0281
59470W        W96964   9.697  15.813  24.396  0.0009  0.2108 -0.1895
59471W        W96965  18.452  33.859  25.637  0.0129 -0.0965 -0.0446
59472W        W96966   5.211  29.561  20.469  0.0013  0.0686  0.0741
59473W        W96967  15.696  13.313   1.038  0.4866 -0.0069 -0.0458
59474W        W96968  27.074  25.974   8.549 -0.0225  0.0488  0.1841
59475W        W96969  25.665   6.547   2.463 -0.0301  0.4297  0.1910
59476W        W96970   4.080  33.014   3.682 -0.1261 -0.0254 -0.2762
59477W        W96971  23.720   0.936   5.775  0.2338 -0.1606  0.1645
59478W        W96972   5.196  34.245   5.371  0.0728  0.1816 -0.0845
59479W        W96973  30.223  13.211  12.552  0.0745  0.0401  0.1932
59480W        W96974  11.009  15.413   4.273 -0.1317  0.0005  0.0069
59481W        W96975  32.826   5.351  16.270  0.0820  0.1807 -0.0681
59482W        W96976  10.094  23.535  23.304 -0.2929  0.1410  0.2349
59483W        W96977  26.789  12.644  16.047  0.1448 -0.1153 -0.1489
59484W        W96978  17.007  10.631  18.871 -0.2270 -0.0126  0.1157
59485W        W96979  10.721   1.846  19.885  0.1130  0.3776 -0.0106
59486W        W96980  16.488   2.733   4.183 -0.2405 -0.1010 -0.1099
59487W        W96981  31.162  22.939  14.343 -0.0101 -0.0582 -0.0546
59488W        W96982  20.235  32.518   7.630 -0.2460  0.0679 -0.1309
59489W        W96983  11.475  20.305  22.363  0.0537  0.1133 -0.1006
59490W        W96984  31.345   2.319  16.713 -0.3612  0.0718 -0.1479
59491W        W96985   5.877  31.891   7.741 -0.2454 -0.1301 -0.1079
59492W        W96986  31.692  23.700  14.588 -0.3399 -0.1145 -0.3001
59493W        W96987  15.193  32.451  10.853 -0.2490  0.0180 -0.2709
59494W        W96988   8.197  33.758  13.886 -0.0310  0.0958  0.4510
59495W        W96989  13.547   1.274  10.988 -0.0038  0.0922  0.1016
59496W        W96990  35.340   2.854   3.476  0.1147 -0.0756 -0.1414
59497W        W96991  17.374   2.471  17.754 -0.1549  0.0530  0.2592
59498W        W96992  30.558  28.512  22.074 -0.2093 -0.2608  0.1686
59499W        W96993  33.086  22.347  22.500 -0.1316  0.1499  0.0923
59500W        W96994   8.315   5.266  10.520 -0.0406  0.0750 -0.0392
59501W        W96995  23.132  15.900  14.741  0.2637 -0.0641 -0.3364
59502W        W96996  19.724  34.993   7.991  0.0637 -0.1142 -0.1268
59503W        W96997   9.767  13.164   1.255 -0.2613 -0.1657 -0.0674
59504W        W96998  34.632   3.102  16.318 -0.0975 -0.0808  0.2384
59505W        W96999   0.500  15.664  18.842  0.1325 -0.2580 -0.0968
59506W        W97000   0.749   7.237   4.950 -0.2207 -0.1353  0.1976
59507W        W97001  16.437  14.644  10.907  0.1027 -0.0456  0.0968
59508W        W97002  25.571  28.679  21.199 -0.0313  0.2437  0.0686
59509W        W97003   2.240  21.290  15.254  0.1721  0.0265  0.2520
59510W        W97004   6.450  31.199   0.858 -0.0680 -0.1620  0.0351
59511W        W97005  12.644  12.812   2.853  0.3964 -0.0078  0.0819
59512W        W97006  12.955  30.268   5.253  0.0537 -0.1820 -0.2226
59513W        W97007  29.800  26.577  22.958  0.3394 -0.3638 -0.4182
59514W        W97008   6.898  32.926  26.119  0.2867 -0.1767 -0.2290
59515W        W97009   2.932  23.208  18.705 -0.0220  0.0876  0.2780
59516W        W97010  10.516  25.692   6.856 -0.0764 -0.1836  0.1028
59517W        W97011   0.690  14.987  10.329 -0.0655  0.1010 -0.2709
59518W        W97012  15.786   2.610  23.926 -0.0082  0.1938 -0.0170
59519W        W97013  11.017  30.748   2.606 -0.1011 -0.1905 -0.1118
59520W        W97014  28.774   5.146  25.524  0.0235 -0.5353 -0.1579
59521W        W97015  28.306  22.133  18.520  0.1993 -0.2238  0.0635
59522W        W97016  24.916  19.843  10.773 -0.0092 -0.0996 -0.0698
59523W        W97017  14.911  20.612   9.960  0.0072 -0.1510  0.1323
59524W        W97018  28.962   9.613  12.496  0.1163  0.0216  0.2195
59525W        W97019  31.454  29.814  12.534 -0.1904 -0.0568  0.1211
59526W        W97020  13.316  17.077  22.686 -0.2184  0.2677  0.2751
59527W        W97021   2.454  28.955   0.455  0.0528  0.2032  0.2343
59528W        W97022  10.074  28.650   7.451 -0.0415  0.0997 -0.0361
59529W        W97023  26.216   6.439   3.684  0.0806 -0.0342 -0.1192
59530W        W97024  10.439  18.933  21.722  0.2023 -0.0449 -0.1876
59531W        W97025   0.756  10.488  12.486 -0.0447 -0.1142 -0.0540
59532W        W97026  30.715   3.291   3.130  0.0776 -0.0739  0.3227
59533W        W97027  24.973  10.578  23.678  0.2445 -0.0750 -0.2540
59534W        W97028   5.848  30.853   6.542  0.2189 -0.0230 -0.0032
59535W        W97029  27.566  25.746  22.437  0.1020  0.1352  0.0679
59536W        W97030  16.248   4.672  10.891 -0.2029  0.0547 -0.0603
59537W        W97031  30.870  33.417  11.868  0.2129 -0.1563  0.3142
59538W        W97032  12.662  19.475  14.174 -0.1863 -0.1406  0.1141
59539W        W97033  23.258   8.865  24.940 -0.2558  0.1669  0.1783
59540W        W97034  17.893  26.378   1.663  0.0719  0.1221 -0.0787
59541W        W97035  13.175  15.336  25.797  0.1534  0.1826 -0.3320
59542W        W97036  31.150  19.920  22.747  0.1459  0.0095 -0.1630
59543W        W97037  11.853  10.148  25.099  0.3107  0.1359  0.1032
59544W        W97038  20.915   1.828   6.121  0.3887 -0.3424  0.2310
59545W        W97039   0.355  17.281  26.010 -0.1549  0.3685 -0.1319
59546W        W97040  32.813  11.546  18.434 -0.3834  0.0022 -0.2298
59547W        W97041   6.020  11.501   4.849  0.0875  0.0975  0.0813
59548W        W97042  22.112  35.062  24.991  0.0188 -0.1932  0.0775
59549W        W97043  17.185  22.352   1.504  0.1148 -0.0052  0.0979
59550W        W97044  22.414  24.676  14.876 -0.0928  0.2126 -0.2697
59551W        W97045   1.676  19.031  15.131 -0.2308  0.0469 -0.4196
59552W        W97046  10.416   1.846  12.772 -0.2362 -0.3163  0.0365
59553W        W97047   3.638  12.946  21.596 -0.3259  0.1927  0.3004
59554W        W97048  28.524   1.564   1.867 -0.0756 -0.1061 -0.1578
59555W        W97049  15.373  25.676  12.245  0.1186  0.2873  0.3875
59556W        W97050   0.760  28.423   5.757  0.0113 -0.1877 -0.1954
59557W        W97051  10.478  26.178  15.982  0.1245 -0.0841  0.1155
59558W        W97052   6.416   7.749  24.217  0.0421  0.0980  0.0032
59559W        W97053   6.546  29.167  10.264  0.0461 -0.1783  0.0417
59560W        W97054  24.749  34.975   2.367 -0.0988 -0.0377  0.0490
59561W        W97055  14.804  22.675  22.071  0.1227 -0.1445 -0.2622
59562W        W97056  24.366  25.138  20.759  0.0762 -0.3711 -0.0328
59563W        W97057  34.533  33.291  16.017  0.0086 -0.2455  0.0689
59564W        W97058   7.304  31.049   8.635 -0.3579 -0.3067 -0.2915
59565W        W97059  24.191  13.233  10.205 -0.1726 -0.0889 -0.1502
59566W        W97060  12.057  22.253  24.101 -0.1029 -0.0303 -0.2443
59567W        W97061  17.027   6.073  26.187  0.3437 -0.2680 -0.1761
59568W        W97062  16.630   4.556  23.429  0.0361 -0.4040 -0.0724
59569W        W97063  32.589  24.408   7.214 -0.0207 -0.2399  0.1552
59570W        W97064   2.384  31.118   5.798  0.2918 -0.3391  0.3486
59571W        W97065  11.642   9.510  14.223 -0.1465  0.0197 -0.0125
59572W        W97066   4.093  15.275  17.033 -0.2640  0.2958  0.0389
59573W        W97067   5.468  14.338   2.575  0.2562  0.0706  0.0037
59574W        W97068  35.238  13.210   1.611  0.0735  0.1157 -0.1427
59575W        W97069   0.128  28.660  17.027  0.0407 -0.0383  0.0950
59576W        W97070  25.113  18.785  10.098  0.3236  0.0571  0.0630
59577W        W97071  30.314   0.443  18.682 -0.0031  0.0646  0.1781
59578W        W97072  25.832  27.082  16.452  0.1001  0.0118 -0.0308
59579W        W97073  27.359  22.573  16.597 -0.0825  0.0661 -0.0449
59580W        W97074  25.989  17.753  10.012  0.0837  0.0249  0.0660
59581W        W97075  15.848  32.249  22.580  0.0168 -0.0307 -0.2475
59582W        W97076  15.996  27.152  23.652 -0.0130 -0.2190 -0.3724
59583W        W97077  22.646   4.166  23.026  0.0401  0.1240 -0.0572
59584W        W97078  34.714  34.553  22.904  0.1038 -0.0329 -0.1039
59585W        W97079  11.946   6.191   6.375 -0.0706 -0.1902 -0.0564
59586W        W97080  16.776  18.315   6.115 -0.1858  0.3702  0.3201
59587W        W97081  10.245   7.796  14.144 -0.1571 -0.2227  0.2130
59588W        W97082  24.776  25.946  22.864 -0.0385 -0.0933 -0.0526
59589W        W97083  15.055  19.103  13.951 -0.2281 -0.3083 -0.3095
59590W        W97084  30.390  27.288  23.339 -0.6085  0.0979  0.0690
59591W        W97085  23.897  32.787   3.145  0.1079  0.1447  0.1815
59592W        W97086  26.929  32.491   5.927 -0.1025  0.1383 -0.3142
59593W        W97087   0.697  27.519  24.438  0.2943 -0.0027  0.0630
59594W        W97088  17.529  31.552   9.406 -0.1111 -0.1169 -0.1699
59595W        W97089  21.841  29.359  25.607  0.0459 -0.0009 -0.1827
59596W        W97090   7.921  23.653  10.967 -0.0394  0.0424 -0.0935
59597W        W97091  16.058   8.405  12.009 -0.1904 -0.3306 -0.0239
59598W        W97092  33.392   4.112   3.573  0.0067 -0.0373  0.2244
59599W        W97093  11.414   4.885   5.592  0.2034 -0.2580 -0.0019
59600W        W97094  10.228  24.831   4.466 -0.2715 -0.2817 -0.2406
59601W        W97095  30.092  21.501  18.510  0.0772  0.1320  0.0364
59602W        W97096  32.057  16.251  13.119  0.2597 -0.2349 -0.1169
59603W        W97097  34.789  31.807   2.209  0.1407 -0.0078 -0.0357
59604W        W97098  26.454  31.819   1.934  0.2019  0.0102  0.1201
59605W        W97099  10.404   3.496   6.011 -0.0737 -0.0247  0.1878
59606W        W97100   6.972  12.503  18.174 -0.3926 -0.1537 -0.2820
59607W        W97101  16.467  29.284   1.898 -0.2428 -0.0662 -0.3140
59608W        W97102  11.955  18.073   5.076  0.0719  0.1270  0.0228
59609W        W97103   3.476  31.711   4.714  0.0760 -0.0916 -0.0244
59610W        W97104  27.827  32.983  15.314 -0.1501  0.0993  0.1400
59611W        W97105  26.585  28.120  23.148 -0.1793 -0.1999  0.2402
59612W        W97106   4.840  29.382   2.510  0.2286 -0.2820 -0.0144
59613W        W97107   4.674   8.162  22.512  0.1624 -0.2267 -0.0882
59614W        W97108   2.554  24.818  20.347 -0.5351 -0.3133 -0.0397
59615W        W97109   3.197   5.861  21.437  0.1475 -0.0709  0.1227
59616W        W97110  19.891   8.351  17.480 -0.3929 -0.0102 -0.0922
59617W        W97111  22.011  16.725   4.507 -0.3081  0.0551 -0.0597
59618W        W97112  29.202  15.563  17.102 -0.1088  0.1591  0.1016
59619W        W97113  31.135  32.279  14.479 -0.0396 -0.2696 -0.0592
59620W        W97114   3.704  12.079  18.776 -0.2557 -0.0094  0.2217
59621W        W97115   3.517   0.731   6.608  0.0775 -0.2501  0.0339
59622W        W97116   2.525  13.774  23.683  0.1269 -0.0220 -0.1300
59623W        W97117  27.232   3.593  19.737  0.0381 -0.0982 -0.2073
59624W        W97118  16.604  29.032   1.159 -0.1705 -0.2132  0.0237
59625W        W97119  32.101  14.586  20.733 -0.0660 -0.3210 -0.0672
59626W        W97120  10.512  29.539   3.422  0.3351 -0.0285  0.4245
59627W        W97121   1.066  33.027  25.639  0.1224 -0.1655  0.3784
59628W        W97122  35.281   6.006   5.162  0.0318 -0.0651  0.0769
59629W        W97123  13.260  24.868  11.400 -0.1716 -0.2074  0.0776
59630W        W97124  11.936  32.348   6.526  0.2569  0.0239 -0.2060
59631W        W97125  17.942  24.149  24.356 -0.1836  0.0237 -0.1505
59632W        W97126  12.834  27.017  17.186 -0.0404 -0.0832  0.0525
59633W        W97127   0.295   0.394  20.765  0.0520  0.0580 -0.0371
59634W        W97128  12.346   4.016  12.279  0.0763  0.0017 -0.0270
59635W        W97129  19.458  21.764   2.438 -0.1362  0.0890  0.1447
59636W        W97130  10.550  19.469   7.748  0.1124  0.0121 -0.0328
59637W        W97131  11.661  23.848   4.087  0.0348 -0.1546  0.2279
59638W        W97132   8.097  31.616   1.194 -0.2932 -0.0214 -0.0621
59639W        W97133  28.195  20.486  10.831 -0.2699 -0.0708  0.2562
59640W        W97134  29.506  22.031   7.897 -0.2924 -0.0598 -0.0820
59641W        W97135  13.209   3.931  21.186 -0.1425  0.3751 -0.0405
59642W        W97136  25.855   8.656  22.697 -0.2561  0.2488  0.1762
59643W        W97137  24.529  15.022  12.647 -0.1990 -0.0805  0.1533
59644W        W97138  31.307  15.848  20.522 -0.1518 -0.1802 -0.4370
59645W        W97139  35.150  23.709   3.269 -0.0723 -0.1785  0.0169
59646W        W97140  27.746  10.678  21.263  0.1184 -0.1008  0.1683
59647W        W97141   9.284   6.606  10.312 -0.1009  0.2548  0.2691
59648W        W97142  29.435  24.494  22.497 -0.0801 -0.2437 -0.0210
59649W        W97143  23.338   7.144  14.283  0.1075  0.0801 -0.2083
59650W        W97144   6.018  29.306  13.243 -0.1596 -0.0841  0.2105
59651W        W97145  21.403   5.627   2.920 -0.0886 -0.2470  0.2167
59652W        W97146  32.504  13.660  10.935  0.1225 -0.0028 -0.3933
59653W        W97147   8.699   4.720   1.084 -0.0199  0.0907  0.1356
59654W        W97148  31.063  34.666  20.422 -0.1675 -0.0589  0.0360
59655W        W97149   1.547  30.778   2.436  0.1515 -0.0020  0.0712
59656W        W97150  12.221  16.783  10.027  0.2713  0.0206 -0.2199
59657W        W97151  16.804  15.436  22.279  0.0759  0.0274 -0.0249
59658W        W97152  28.241   1.574   4.449 -0.0249  0.1737 -0.0213
59659W        W97153  28.075   1.567  12.271  0.2153  0.0497 -0.1889
59660W        W97154  12.480  27.533  16.553 -0.2436 -0.2937  0.2522
59661W        W97155  14.999  26.060  24.804 -0.0486 -0.1203  0.4579
59662W        W97156  13.909  34.951  19.629  0.0091  0.1993  0.1408
59663W        W97157  27.621  25.608  17.658 -0.2252  0.3893  0.0578
59664W        W97158  35.071  20.112  16.497  0.0155  0.0462 -0.0106
59665W        W97159   2.359  29.415  23.065  0.0176  0.0423  0.0098
59666W        W97160   0.078  24.409  22.896 -0.1389 -0.1613 -0.1526
59667W        W97161  31.177  25.293  20.300 -0.0171 -0.0534  0.0451
59668W        W97162  15.622   2.033  18.996 -0.2606 -0.4682  0.0310
59669W        W97163  14.851   5.475  24.539  0.0299 -0.0291 -0.1760
59670W        W97164  11.548  22.235   0.703  0.1585 -0.0688 -0.1208
59671W        W97165  28.988   3.131   0.639 -0.0444  0.0552 -0.2626
59672W        W97166  26.088  34.259  19.576 -0.2084  0.2563 -0.0435
59673W        W97167   7.811  16.846   1.343  0.1300 -0.1840  0.0530
59674W        W97168  22.090  12.516   0.583  0.2150  0.0438 -0.0831
59675W        W97169  31.582  33.869   2.793  0.1279  0.2331 -0.1065
59676W        W97170  29.704  15.284  21.034  0.3912 -0.0140  0.0197
59677W        W97171   3.131  19.290  25.783 -0.3148  0.1604 -0.0139
59678W        W97172  21.677  32.312  25.497  0.0751  0.0333  0.0149
59679W        W97173  33.134  10.435  24.615 -0.1585  0.0193  0.0872
59680W        W97174   0.693  34.003   3.485  0.0722 -0.0393  0.1399
59681W        W97175  29.013  29.198  10.247 -0.0069 -0.0011  0.1379
59682W        W97176   2.496  21.602  19.121 -0.0557  0.0879 -0.1098
59683W        W97177   8.909   9.384  19.954 -0.4578 -0.0007 -0.0546
59684W        W97178  16.986   6.516  12.473 -0.1437 -0.0449 -0.1178
59685W        W97179  27.428  22.590  21.938  0.0136 -0.2442  0.1301
59686W        W97180  30.605   7.252  25.231  0.0599 -0.1480  0.1014
59687W        W97181  30.982   5.498  24.922 -0.1750 -0.0511 -0.0073
59688W        W97182  34.702  27.954  23.190  0.1553  0.1214 -0.0303
59689W        W97183   8.435  22.156   6.939  0.3203 -0.0995 -0.2038
59690W        W97184  32.236  10.765  22.599  0.1375  0.1137 -0.0206
59691W        W97185   1.914  12.166   3.350  0.1277  0.2011 -0.0002
59692W        W97186  16.015  11.111   0.319  0.1284 -0.0286 -0.0804
59693W        W97187  12.955  24.163   9.258 -0.0076 -0.1635  0.0377
59694W        W97188  11.645  11.837  12.805  0.4161  0.0295 -0.2013
59695W        W97189  11.906   1.191  21.427 -0.0912  0.3251  0.0232
59696W        W97190  33.238   9.730  11.041 -0.2405 -0.3313 -0.2056
59697W        W97191  30.935   1.710   3.564  0.0841  0.4730  0.3548
59698W        W97192   4.251  18.631   3.321 -0.0214  0.0223  0.3134
59699W        W97193   0.993  32.465  22.554 -0.2768 -0.3086 -0.1395
59700W        W97194   0.103   6.774  23.816 -0.0793 -0.3070  0.0596
59701W        W97195  11.083  12.215  24.741 -0.0743  0.2968  0.0432
59702W        W97196   0.558  12.655  15.738 -0.3255  0.4800 -0.0700
59703W        W97197  11.544  14.147   8.915 -0.1637  0.2084 -0.2735
59704W        W97198  32.774   5.130   0.484  0.0743  0.1079 -0.0451
59705W        W97199  17.834  21.619   3.108 -0.1252 -0.0045 -0.3655
59706W        W97200   1.068   3.386  23.879  0.1014 -0.0385 -0.2897
59707W        W97201   1.324  19.520  19.627  0.0085 -0.0646 -0.2199
59708W        W97202  10.513  20.790   8.425  0.0280 -0.0921 -0.1234
59709W        W97203  18.119  23.856  21.837 -0.0549  0.2380  0.1049
59710W        W97204  34.814   4.393  12.914 -0.2677  0.0989 -0.1310
59711W        W97205  27.925  11.961   6.242 -0.0816 -0.0403  0.1220
59712W        W97206  12.672   9.404  24.293 -0.1590  0.3911  0.0275
59713W        W97207  26.958  28.400   0.536 -0.0674  0.0079  0.1037
59714W        W97208  17.953  10.272  19.351 -0.1487 -0.0151  0.3534
59715W        W97209   9.526  15.971  22.095  0.3234  0.2829 -0.0408
59716W        W97210  28.420  30.631  11.657 -0.0070  0.1565  0.0894
59717W        W97211  15.074   0.884   3.522  0.1442 -0.1696 -0.0532
59718W        W97212   5.287  22.607   4.072  0.0954  0.0026 -0.0137
59719W        W97213  28.671  11.549   0.736  0.1977 -0.1628 -0.0312
59720W        W97214  24.451  32.218   4.756 -0.1192 -0.0462  0.0400
59721W        W97215  30.158  26.164  12.598 -0.1701  0.0602 -0.1296
59722W        W97216  24.248  24.625  25.395 -0.0937 -0.4425 -0.1250
59723W        W97217   6.004   5.596  20.539  0.1616  0.0397 -0.0695
59724W        W97218  32.972  32.762  18.794 -0.4261  0.1405 -0.1811
59725W        W97219   5.204  16.962   1.932  0.1156 -0.1872  0.1560
59726W        W97220   6.717   6.354   1.895 -0.3930 -0.1946  0.4963
59727W        W97221  29.588  23.887  14.761 -0.1281  0.0145 -0.2835
59728W        W97222  30.088   8.459  21.719 -0.0454  0.0045 -0.0407
59729W        W97223   9.167  25.085   0.350 -0.3470  0.1460 -0.0325
59730W        W97224  24.350  12.544  16.164  0.0470 -0.1400  0.1799
59731W        W97225  16.377  16.791   1.598  0.1424 -0.0111 -0.1622
59732W        W97226  24.972  26.699  25.918 -0.1095 -0.0726  0.0076
59733W        W97227   2.969  14.440   3.109  0.2414  0.0319 -0.2270
59734W        W97228  10.249  23.854  10.310  0.1870  0.0659  0.0304
59735W        W97229  33.842   3.596  17.366  0.2956 -0.1015 -0.0448
59736W        W97230  23.778  28.539   3.034 -0.1262  0.0717  0.0436
59737W        W97231  15.056   2.397  17.023  0.1445  0.0923 -0.0261
59738W        W97232  12.691  29.477   3.059 -0.2194  0.0992 -0.3071
59739W        W97233   3.000  19.547  13.466  0.2324 -0.2167 -0.0440
59740W        W97234  28.166   2.556  17.709  0.3033  0.2870  0.3080
59741W        W97235   9.988  34.731   9.751  0.0305 -0.0742 -0.1825
59742W        W97236  33.291  29.052  25.053  0.1635  0.0599  0.1128
59743W        W97237  13.616  20.195   7.499  0.3217  0.2493 -0.1651
59744W        W97238  11.172   5.382  22.159  0.4171  0.0488 -0.2976
59745W        W97239  34.950  12.866  23.089 -0.1585 -0.1013  0.2920
59746W        W97240   3.265  16.344  24.719 -0.1231  0.1149 -0.0900
59747W        W97241  21.300  11.178   4.355 -0.0713 -0.2178  0.0218
59748W        W97242   9.446  29.699  15.132 -0.1162 -0.2992  0.0561
59749W        W97243   7.725  23.015   0.726  0.0422 -0.2090  0.2124
59750W        W97244  19.183  18.113  24.976 -0.1850 -0.1299  0.2282
59751W        W97245  11.410  16.872   9.347  0.0334 -0.2237  0.1151
59752W        W97246   1.923   9.898  25.586  0.0868  0.1051 -0.0106
59753W        W97247   6.464  25.432  25.425  0.1756 -0.0291 -0.2751
59754W        W97248  24.399  26.943   3.619 -0.2031 -0.2645 -0.0117
59755W        W97249  19.110   0.331  22.509 -0.1350  0.2670 -0.3709
59756W        W97250  14.389   4.958   3.603 -0.1021  0.0444 -0.2666
59757W        W97251  21.729   3.166  19.154 -0.2048 -0.2954  0.1213
59758W        W97252  31.335   8.618  23.133  0.0751 -0.2589 -0.1831
59759W        W97253  31.963  29.746  12.437  0.2948 -0.1960 -0.2113
59760W        W97254   5.514  28.425   4.792  0.2328 -0.0809  0.0139
59761W        W97255  24.739  19.287  14.135 -0.1131 -0.0754  0.2911
59762W        W97256   7.352  29.160   1.347  0.0457  0.0355 -0.1908
59763W        W97257  25.926  27.557  11.656 -0.1040  0.0339 -0.1437
59764W        W97258  13.642  22.025   2.320  0.1270  0.4227 -0.0104
59765W        W97259  30.732  15.708   4.609  0.1696 -0.0141 -0.1285
59766W        W97260  22.098  29.863  19.071 -0.1361 -0.4469  0.0445
59767W        W97261  23.161  11.519  13.512  0.0751  0.2419  0.1353
59768W        W97262  15.496  13.898  12.807  0.1103  0.0996 -0.0142
59769W        W97263  15.648  23.534   9.582 -0.0887  0.0467  0.2335
59770W        W97264  25.929   4.601  17.006 -0.4420  0.1219 -0.0605
59771W        W97265  33.945  34.030  23.045 -0.1091  0.0770  0.1387
59772W        W97266  35.157  31.923  21.055  0.0484  0.1629 -0.1698
59773W        W97267  15.165  23.096   9.567 -0.2523 -0.1534  0.2457
59774W        W97268  25.928  27.615  13.128  0.0340  0.0131  0.1650
59775W        W97269   5.930  12.247  20.300  0.0975  0.4224 -0.2670
59776W        W97270  26.673  31.525   1.438 -0.0953  0.0262 -0.3238
59777W        W97271  30.763  29.598   3.981  0.0358 -0.0327  0.0267
59778W        W97272   6.338  34.868   1.009  0.0776 -0.0036 -0.2011
59779W        W97273  24.203   4.177  16.955 -0.1241 -0.1382 -0.2593
59780W        W97274   4.421   1.820   6.661 -0.0074 -0.0285 -0.0219
59781W        W97275  20.669  30.413  21.076 -0.3994  0.2400 -0.2619
59782W        W97276   9.115  13.803   1.787  0.0472  0.1756 -0.2262
59783W        W97277   3.288   7.354  23.139 -0.2278  0.0033 -0.1098
59784W        W97278  10.153  13.865  10.230  0.0877 -0.1487 -0.2030
59785W        W97279   9.839  12.130  19.941  0.2932 -0.0781  0.2357
59786W        W97280  12.575   8.945  13.748  0.0264  0.0092 -0.2356
59787W        W97281   1.876  16.353  22.164 -0.0198 -0.1365  0.1400
59788W        W97282  31.656  11.997  25.064  0.2703 -0.0785  0.0600
59789W        W97283  31.001  19.725   9.717 -0.0791  0.1121 -0.0196
59790W        W97284   4.534  10.502   2.599 -0.0933 -0.1712  0.0816
59791W        W97285  33.872  20.487  13.719  0.2457 -0.1146 -0.0330
59792W        W97286  26.378  29.770  10.480 -0.1930  0.3462 -0.3166
59793W        W97287   2.454  11.674  19.607 -0.2478  0.1125 -0.1712
59794W        W97288  30.789  34.156  24.695 -0.0676 -0.1132 -0.3944
59795W        W97289  13.804  29.429   3.078 -0.0926  0.1936  0.3780
59796W        W97290   1.915   2.944   1.218  0.0313  0.1546 -0.1345
59797W        W97291   4.860  23.371   3.478  0.1464  0.3107 -0.1502
59798W        W97292  15.150   8.771  11.122 -0.3262 -0.1722  0.0009
59799W        W97293   0.207  22.677  24.165 -0.3435  0.5215 -0.0805
59800W        W97294  20.765   3.961  24.090 -0.3948 -0.1172  0.0331
59801W        W97295   5.437   0.972   8.926 -0.0924  0.1733 -0.1433
59802W        W97296  25.412  34.045  12.015  0.1263 -0.0705 -0.2588
59803W        W97297  28.976   8.262  24.224 -0.2307  0.0339 -0.0864
59804W        W97298  19.124  15.026   5.709 -0.1294 -0.0254  0.0174
59805W        W97299  17.330  17.551  22.730  0.1688 -0.0496  0.0808
59806W        W97300  31.177   5.164  12.665  0.1365 -0.1962 -0.0718
59807W        W97301  11.743  33.441   3.724 -0.0244  0.0755 -0.0172
59808W        W97302  34.619   3.067   6.281 -0.0580  0.1868 -0.0489
59809W        W97303   4.642   5.358   2.879  0.1673  0.0174  0.0135
59810W        W97304  15.211   8.977  25.714 -0.1388 -0.2060  0.3536
59811W        W97305   9.716  22.803  22.649 -0.1958  0.3395 -0.2330
59812W        W97306  13.790   6.715  10.906 -0.0531 -0.1840 -0.1634
59813W        W97307  14.336  23.482   4.524  0.0284  0.2237  0.1779
59814W        W97308  23.626  18.272  20.691  0.0698  0.3153 -0.3436
59815W        W97309   7.366  22.761  24.565 -0.0899  0.0707  0.2949
59816W        W97310  17.218  33.908  18.612 -0.0979 -0.1081 -0.2226
59817W        W97311  21.889   1.973  20.540  0.1035 -0.0132  0.3018
59818W        W97312  16.694  13.948  23.592  0.0513  0.2041 -0.1190
59819W        W97313  12.082  26.896  12.624  0.0720 -0.0024 -0.1422
59820W        W97314   1.537  13.736   2.964 -0.1687  0.0025  0.4005
59821W        W97315  33.167   6.733   0.853 -0.2433  0.0113 -0.0330
59822W        W97316  16.453  34.127  22.296  0.0597 -0.1285 -0.0763
59823W        W97317  15.721  12.886   4.593  0.0003  0.1471  0.1289
59824W        W97318  24.947  11.818  25.633  0.0320  0.0942 -0.0246
59825W        W97319  27.633  25.938  18.667  0.1089 -0.0433  0.2036
59826W        W97320  21.119  28.573   0.776 -0.1898 -0.0345 -0.4043
59827W        W97321   2.190  13.095   2.508  0.1088  0.0139  0.1699
59828W        W97322  16.354  26.518  11.103  0.0015 -0.1356 -0.1207
59829W        W97323  20.272  27.523  18.955 -0.0026  0.2671  0.0456
59830W        W97324   0.356  29.389   0.401  0.0096  0.3709  0.2147
59831W        W97325  20.459   4.043   3.944 -0.2396  0.2254  0.2293
59832W        W97326   9.039   2.409  14.110 -0.0401 -0.2926  0.0824
59833W        W97327   8.573  26.484  10.588  0.1009  0.1347 -0.0942
59834W        W97328  31.956  26.963  23.736  0.1542  0.3508  0.3915
59835W        W97329   3.584   2.642  21.048  0.0761  0.0265  0.0188
59836W        W97330   6.874  31.630  21.713  0.1543  0.2069 -0.0889
59837W        W97331  16.294   4.054  21.786 -0.1236  0.2798 -0.2642
59838W        W97332  20.081   3.985  10.780  0.2621  0.3398  0.0142
59839W        W97333   0.452  20.668  18.466  0.1251  0.1640 -0.3520
59840W        W97334  28.620  19.812  18.890  0.1884  0.2330 -0.0592
59841W        W97335  26.335  23.346  24.089  0.3258  0.0656  0.1964
59842W        W97336   1.651   9.260   3.682 -0.0458 -0.0482 -0.0760
59843W        W97337  27.531   2.108  19.769 -0.0166 -0.0437 -0.0008
59844W        W97338  31.995   9.461   0.981 -0.3337 -0.1413  0.1150
59845W        W97339  19.004  28.961  18.591 -0.0514 -0.1286 -0.1465
59846W        W97340  19.335  10.777   7.936  0.2465 -0.1056 -0.1646
59847W        W97341   6.573  29.847  25.507  0.0112 -0.0632  0.1613
59848W        W97342  22.695  34.603   1.314 -0.0259  0.1115 -0.1128
59849W        W97343  18.900  20.305   3.252  0.0811 -0.0160  0.0912
59850W        W97344  32.172  33.912   0.143 -0.0356  0.0142 -0.1619
59851W        W97345  20.718   5.653   3.785 -0.0520 -0.2115 -0.3282
59852W        W97346  25.772  18.680  22.353 -0.1121  0.0664 -0.2181
59853W        W97347   4.327  13.352   2.898 -0.1718  0.2319 -0.0087
59854W        W97348  24.072   3.514  22.403  0.0411  0.2245 -0.1704
59855W        W97349  31.084  22.355  15.191 -0.4588 -0.3867  0.3061
59856W        W97350  24.584  22.664  16.303  0.3835 -0.1218 -0.1574
59857W        W97351  17.748  31.792   6.230  0.0028 -0.1234  0.0930
59858W        W97352  17.379  17.141  18.738 -0.3121 -0.0946  0.0872
59859W        W97353   3.441  27.478  10.597 -0.2036 -0.0601  0.1489
59860W        W97354   0.429  15.802  10.016  0.2083  0.0961 -0.4577
59861W        W97355  10.615  17.404   1.390 -0.0447  0.1891 -0.1588
59862W        W97356  23.520   0.653  22.617 -0.0497 -0.0940 -0.1462
59863W        W97357  16.137  16.573   8.491  0.1159  0.0777  0.1832
59864W        W97358   8.548  18.931  24.897 -0.1610 -0.2722  0.2211
59865W        W97359  27.553   4.023  18.463  0.0868 -0.1438 -0.2782
59866W        W97360  30.073   5.314  24.500 -0.0065 -0.5645  0.1911
59867W        W97361   9.798  15.640   2.937 -0.0024 -0.3877 -0.0388
59868W        W97362  24.420   1.112  23.561 -0.1065 -0.0607  0.1370
59869W        W97363  29.106  30.275  16.557 -0.0245  0.2489 -0.0581
59870W        W97364  27.711  15.585  15.182  0.1302 -0.2114  0.0998
59871W        W97365   7.213  30.037   1.590  0.0815  0.0155 -0.0928
59872W        W97366  21.749   7.237  24.740 -0.1566  0.1830  0.0263
59873W        W97367  25.411  23.775  17.698 -0.1595 -0.2984 -0.0909
59874W        W97368  27.916  26.042  17.444 -0.0235 -0.1500 -0.0255
59875W        W97369  25.572  32.833  16.318 -0.1123  0.1307  0.1923
59876W        W97370  22.032   1.520  21.305 -0.1405 -0.1430  0.1245
59877W        W97371   7.242  31.925   1.284  0.1435 -0.0641 -0.0481
59878W        W97372  26.681  26.110  13.761 -0.1842 -0.1231 -0.0399
59879W        W97373  27.732   9.801  11.440 -0.0344 -0.0385  0.1693
59880W        W97374   5.894  24.271   0.940  0.1163 -0.0077  0.0082
59881W        W97375   8.215   1.182   2.953 -0.0542  0.1098  0.1086
59882W        W97376  29.632  28.753  13.048 -0.2157 -0.0636  0.0481
59883W        W97377  23.637  30.885  21.571 -0.1506 -0.2914 -0.3135
59884W        W97378  28.917  28.736  21.618 -0.2269 -0.2154  0.1897
59885W        W97379  25.033  10.185  21.630  0.0160 -0.2118 -0.2638
59886W        W97380  12.104   7.365   0.418 -0.2247  0.1568  0.3319
59887W        W97381   0.578  10.898  11.966 -0.4113 -0.2029  0.1221
59888W        W97382  33.548  16.049  10.156 -0.1046 -0.1622 -0.0358
59889W        W97383   1.611   8.397  18.929 -0.0981  0.0471  0.0194
59890W        W97384  18.500   2.760  23.805  0.0583  0.3602 -0.2145
59891W        W97385  28.788   7.726  13.161 -0.3396 -0.0337 -0.2670
59892W        W97386  12.601  20.578  12.376 -0.2123  0.0814 -0.0087
59893W        W97387  18.740  14.764  19.952  0.0887 -0.4008  0.2346
59894W        W97388  35.197  34.079   4.346 -0.3879  0.1334 -0.1599
59895W        W97389  23.736  10.002  13.833  0.0221  0.0491 -0.1696
59896W        W97390  32.131  24.861  25.824  0.2552 -0.2565 -0.0497
59897W        W97391  28.830  22.220  10.435  0.0532  0.0985 -0.0305
59898W        W97392  34.012  32.390  21.224 -0.0929  0.0579  0.0930
59899W        W97393  29.111  16.684  17.244  0.1068  0.1508 -0.3694
59900W        W97394  20.557   2.455   4.341 -0.0059 -0.1991 -0.1599
59901W        W97395  14.039   1.618   1.011 -0.2685 -0.2717 -0.0283
59902W        W97396  10.075  15.199   3.758 -0.0587 -0.0212 -0.0024
59903W        W97397  17.956  32.920  19.491  0.1941  0.0154  0.0727
59904W        W97398   5.417   3.155   1.085 -0.1274  0.0246 -0.0335
59905W        W97399   8.861   3.128   0.343 -0.1055 -0.3473 -0.0468
59906W        W97400   2.864  26.961   6.598 -0.1470  0.1579 -0.2723
59907W        W97401  12.756   3.867   3.174  0.0372  0.0848 -0.1935
59908W        W97402  29.723  23.632  16.029  0.0259  0.1984 -0.1117
59909W        W97403   1.663   4.162  18.731  0.1006  0.1899 -0.1902
59910W        W97404   7.991  22.405   1.349  0.2047 -0.0843 -0.2402
59911W        W97405  23.605   9.820  16.119 -0.0200 -0.0211  0.0412
59912W        W97406   1.992   2.823  15.981 -0.0108  0.0690  0.0734
59913W        W97407  30.577   8.478  12.247 -0.2753 -0.0002  0.3163
59914W        W97408   4.932  34.469  26.128 -0.0374  0.0346  0.0585
59915W        W97409   4.902   6.506   8.195 -0.3444  0.0808  0.4501
59916W        W97410   9.298  15.762   1.027 -0.0336 -0.0964  0.0813
59917W        W97411  35.350  26.434  24.911 -0.2318  0.0457  0.2254
59918W        W97412  33.304  14.778  21.190 -0.3248  0.1613  0.1617
59919W        W97413  27.033  28.825  22.025 -0.0414 -0.0269  0.0077
59920W        W97414  29.626  23.994  11.430 -0.2592  0.2167  0.0259
59921W        W97415  18.530   7.979  22.154 -0.0888 -0.0855 -0.0985
59922W        W97416  35.153  23.098  20.511  0.0602 -0.1240 -0.0038
59923W        W97417  16.834   5.378  23.942 -0.0659  0.0627  0.2456
59924W        W97418   9.263  27.512  14.033  0.0266 -0.2656  0.2030
59925W        W97419   3.652  21.744  21.210  0.1888 -0.2238  0.0170
59926W        W97420  29.080  14.983  15.840  0.1126  0.0607 -0.1836
59927W        W97421  10.871  28.137   2.801 -0.1578  0.1574 -0.0864
59928W        W97422  11.920  19.545   7.545  0.0323 -0.1873  0.1212
59929W        W97423  25.615   7.929  22.048 -0.1974 -0.0890  0.1183
59930W        W97424   6.721  22.634  24.712  0.2353 -0.0951 -0.1420
59931W        W97425  17.331  32.862   7.028  0.3021 -0.0161 -0.2453
59932W        W97426  13.620  28.725   4.932  0.2536 -0.3069  0.5454
59933W        W97427  34.088   2.383  13.998  0.2060  0.0224 -0.1740
59934W        W97428  33.266   7.828  15.762  0.1006 -0.0151  0.1651
59935W        W97429  18.769  30.469   8.340  0.1848  0.1361  0.1242
59936W        W97430  23.545  29.394   2.963  0.0818  0.0797 -0.3358
59937W        W97431  25.291  21.763   8.060  0.5696 -0.0293  0.3132
59938W        W97432  14.121  14.219  13.126  0.1914 -0.0782  0.1458
59939W        W97433  10.872   4.795   0.927  0.5218 -0.1210  0.4302
59940W        W97434  20.206  27.987  25.746 -0.2312 -0.0580 -0.2314
59941W        W97435   9.023  29.369  23.068 -0.0367  0.1175 -0.0084
59942W        W97436  13.860  13.202  23.995  0.0061 -0.1175 -0.3469
59943W        W97437   1.523   2.616  24.988  0.3258  0.0467  0.1055
59944W        W97438  33.241   2.782  18.142  0.0635  0.1539 -0.1191
59945W        W97439  27.865  10.726   0.335  0.1750 -0.4311 -0.2628
59946W        W97440  18.556   8.049  25.065 -0.1276  0.2675  0.0525
59947W        W97441   0.980  17.363  20.080  0.3761 -0.0014  0.2130
59948W        W97442  20.264  32.669   6.039 -0.0596 -0.0083 -0.0941
59949W        W97443  29.999  13.097   5.024  0.0034 -0.1624 -0.3035
59950W        W97444  25.447   1.266  18.929  0.0411  0.1059 -0.1641
59951W        W97445   8.470  12.051  21.121 -0.0446  0.3306 -0.1359
59952W        W97446  25.511  33.560  22.875 -0.0786  0.0128 -0.1193
59953W        W97447  10.445  34.366  15.954  0.0622 -0.1067 -0.3060
59954W        W97448   0.497   4.073  18.054 -0.0575 -0.0448  0.0091
59955W        W97449   5.661   1.554  10.581 -0.1973  0.1009  0.2561
59956W        W97450  27.640  25.554  10.617  0.0931 -0.2724 -0.0799
59957W        W97451   6.350  13.823   8.321 -0.2736 -0.1925 -0.0326
59958W        W97452   1.562   3.043  20.175  0.2118 -0.3938 -0.4048
59959W        W97453   8.440   2.927   0.123  0.3770  0.1064  0.1032
59960W        W97454  25.210  15.623   8.094  0.3616  0.1178 -0.2187
59961W        W97455   3.118  29.624  10.720 -0.2070 -0.0610  0.0500
59962W        W97456  21.598  34.425  19.417 -0.0420 -0.0421  0.0275
59963W        W97457  28.532  18.897  14.559  0.0597 -0.0328 -0.1994
59964W        W97458  27.056   2.875  13.793  0.1248 -0.1219  0.1792
59965W        W97459   2.549  21.271  25.078 -0.2675 -0.1560 -0.0522
59966W        W97460  11.971  23.531   3.775 -0.2024  0.0291 -0.3512
59967W        W97461  14.771   4.583   8.465  0.1088  0.0671  0.0638
59968W        W97462  32.176   7.583  24.487 -0.0179 -0.1479 -0.3440
59969W        W97463  33.170  33.715   3.366  0.0227  0.2989 -0.0208
59970W        W97464  29.127  20.523  17.185  0.3240 -0.2131  0.3946
59971W        W97465  34.659  28.772   6.960 -0.0117  0.0699  0.0622
59972W        W97466  27.016  19.560  11.496  0.0418  0.2322  0.0620
59973W        W97467  16.348  15.353   1.820 -0.4509 -0.1596 -0.2306
59974W        W97468  12.778   2.060  11.262 -0.1614 -0.0235  0.0826
59975W        W97469  21.173   4.670   5.395  0.2052  0.0265 -0.2421
59976W        W97470  34.035   5.730  16.487 -0.0903  0.0974  0.1544
59977W        W97471   5.425  26.377  10.527 -0.1202 -0.1233 -0.0266
59978W        W97472   5.407   4.763   2.888 -0.1149  0.2433 -0.1035
59979W        W97473  27.584  31.106  16.662 -0.0703  0.3913 -0.0635
59980W        W97474   4.384  34.403   1.252  0.0420 -0.1690 -0.0313
59981W        W97475  29.312  25.038  15.454 -0.5573  0.5142 -0.1807
59982W        W97476  24.168  29.537  14.957  0.4388 -0.1750 -0.3376
59983W        W97477   1.490  34.230  24.044 -0.2461 -0.2612  0.0091
59984W        W97478  21.195  33.175  24.409 -0.0960 -0.2317 -0.3369
59985W        W97479  12.745  14.598  23.838  0.1380  0.1624 -0.0528
59986W        W97480  24.231  34.519  22.524 -0.0651  0.1680  0.1829
59987W        W97481   1.252  22.376  16.798  0.4997 -0.0736 -0.0671
59988W        W97482  24.478  19.575  13.271  0.1581  0.3566  0.1364
59989W        W97483  31.673  17.405   8.138  0.2952  0.1332 -0.0286
59990W        W97484   6.260   7.844  18.324  0.2512  0.3050  0.1561
59991W        W97485  28.567  14.478  15.381 -0.2366 -0.1149  0.1358
59992W        W97486  19.263   6.765  23.398  0.0766  0.0758  0.1567
59993W        W97487  13.479  29.397   7.148 -0.0140 -0.0046  0.1908
59994W        W97488   7.342   0.105  22.603  0.0461 -0.1192  0.1373
59995W        W97489  33.948  32.235  15.167  0.0770  0.3481  0.0065
59996W        W97490  35.272  32.293  21.582 -0.0547  0.0127  0.1054
59997W        W97491   5.877   0.403  11.573  0.0318  0.4707 -0.0762
59998W        W97492  11.781  12.482  22.694 -0.0914 -0.0242 -0.2192
59999W        W97493  35.222   0.409   5.956  0.1016  0.1042  0.0668
60000W        W97494   4.492  34.135   9.498 -0.0525 -0.0453 -0.2381
60001W        W97495  26.937  15.242   6.384 -0.2225 -0.1011  0.0811
60002W        W97496  12.531  15.100   8.914  0.1461 -0.1328  0.0830
60003W        W97497  18.908  18.934   9.830 -0.2249  0.1338 -0.1547
60004W        W97498   8.672  12.038   1.590 -0.1238 -0.2410  0.0133
60005W        W97499   6.353  22.821   4.561 -0.0909 -0.4874 -0.0181
60006W        W97500  32.854  22.585  18.625 -0.0031  0.2120 -0.0695
60007W        W97501  33.103  32.836  20.432 -0.1574  0.0908 -0.2603
60008W        W97502   9.567  20.394   8.287 -0.1008 -0.0530  0.1540
60009W        W97503  33.508  24.474  24.670 -0.0961  0.0399  0.0998
60010W        W97504  10.446  26.600   8.776  0.0215 -0.2319 -0.3160
60011W        W97505  11.738   2.157  24.418 -0.1768  0.1809  0.0519
60012W        W97506   3.568  34.374  20.757 -0.0436 -0.0914  0.3540
60013W        W97507  29.676  29.739  17.041 -0.0797 -0.0764 -0.3296
60014W        W97508  33.976   2.420   1.199 -0.1558  0.1074 -0.4117
60015W        W97509  22.152  10.363   5.814  0.0116 -0.0344  0.1223
60016W        W97510  22.334   7.333   3.085 -0.2079  0.0229 -0.2743
60017W        W97511  19.758  32.776   2.523 -0.2815 -0.2172  0.2798
60018W        W97512   6.348   3.435  21.719  0.0283  0.0776 -0.2138
60019W        W97513  30.773   8.083  23.923  0.0013 -0.1743 -0.0873
60020W        W97514  32.052  23.323  16.617 -0.2885  0.0004 -0.0233
60021W        W97515  28.420  27.057  24.979 -0.1654 -0.0412 -0.2094
60022W        W97516   1.630  20.530  13.187  0.0752  0.4287 -0.1544
60023W        W97517   9.774  11.977  24.457  0.3005  0.2302  0.0460
60024W        W97518  31.854   8.741  15.117  0.1093  0.3786 -0.1097
60025W        W97519  18.952  16.406  25.434 -0.3010  0.0888 -0.0216
60026W        W97520  26.651  27.962  15.741 -0.0958  0.2359  0.1268
60027W        W97521  22.729  13.415  22.806  0.0189  0.6138  0.2637
60028W        W97522  15.511  17.161  25.121 -0.0945 -0.1239  0.0520
60029W        W97523   8.980  14.046  11.725  0.0479 -0.0197  0.0461
60030W        W97524  17.647  17.847  20.493  0.1016 -0.6097 -0.0243
60031W        W97525  21.723  13.757  20.761 -0.0298  0.1151 -0.5516
60032W        W97526  21.727   5.091  20.216 -0.1741  0.0631 -0.0226
60033W        W97527   1.681  29.827   9.157  0.0135 -0.1092 -0.1442
60034W        W97528   8.724  35.118  12.012  0.1864  0.1692 -0.2755
60035W        W97529  21.008   9.275  17.314 -0.0441 -0.0863  0.0340
60036W        W97530   2.149  12.545  21.458  0.1410 -0.0600 -0.1156
60037W        W97531  27.182  30.325  26.169 -0.1953 -0.0967  0.0805
60038W        W97532  11.509  24.078   8.210 -0.0104 -0.1432 -0.0546
60039W        W97533  27.162  11.563  20.495 -0.0454  0.1696  0.1036
60040W        W97534  15.369  34.200   3.994  0.1577 -0.1065  0.1792
60041W        W97535  13.566  13.080  13.257  0.0925  0.2861  0.1413
60042W        W97536  18.280   2.470  20.800  0.2204 -0.1151  0.1563
60043W        W97537   8.945   0.448   2.635 -0.1626 -0.0261  0.1048
60044W        W97538  14.772  30.822  24.242  0.1684 -0.0547 -0.2334
60045W        W97539  27.088   2.046   3.655 -0.4503  0.2238  0.1620
60046W        W97540  32.540  12.481  24.844 -0.1620  0.1275 -0.1263
60047W        W97541  16.375  23.967  24.761  0.2659  0.0160  0.1952
60048W        W97542  23.956   2.259   7.549 -0.1261  0.1409 -0.0392
60049W        W97543   9.045  33.506   8.357  0.5483 -0.1116 -0.0119
60050W        W97544  10.469  28.091   3.090  0.2777  0.0650  0.0253
60051W        W97545   7.368   2.166   7.600  0.1559 -0.0528  0.0080
60052W        W97546   8.142  24.803  14.506 -0.0961  0.1815 -0.2977
60053W        W97547  26.164  12.799  13.013 -0.1873  0.1438 -0.1691
60054W        W97548   5.007  21.313   2.731  0.0340  0.0431  0.3449
60055W        W97549   5.261  26.264  14.084  0.2394 -0.2376 -0.1640
60056W        W97550  17.420  29.870  21.768 -0.2806  0.0963 -0.2149
60057W        W97551   6.408  32.235  22.533  0.1863 -0.1591  0.0939
60058W        W97552  24.292   5.795  14.846  0.0408  0.2596  0.0624
60059W        W97553  18.103  24.111   1.208  0.1140 -0.2653 -0.0764
60060W        W97554  14.306  13.396  23.046  0.0353 -0.2021 -0.4089
60061W        W97555  24.228  28.683   1.986 -0.0167  0.0573 -0.1630
60062W        W97556   5.218   3.149   5.502 -0.3593 -0.1124 -0.1842
60063W        W97557  30.925   4.362  18.612  0.0384  0.2408 -0.1564
60064W        W97558  12.996  31.847  25.454 -0.3322 -0.0438 -0.0957
60065W        W97559  19.126  30.804   8.567 -0.1000  0.1170 -0.0039
60066W        W97560  15.746  16.833   9.255  0.1110  0.0946 -0.1604
60067W        W97561   0.956  30.696  18.802 -0.0616 -0.1171  0.1329
60068W        W97562  16.387   0.029  23.830 -0.0010 -0.0267 -0.0423
60069W        W97563  31.436  26.739  14.952  0.2213 -0.0056  0.0064
60070W        W97564  22.025  19.221   0.887  0.3178  0.0220  0.0241
60071W        W97565  34.659   6.845  25.093  0.1428 -0.0723  0.1920
60072W        W97566  19.831  25.348  18.516 -0.1407  0.0258 -0.0551
60073W        W97567  15.236  30.344  23.369 -0.2710  0.0167  0.0513
60074W        W97568  32.075  13.866  23.229  0.0757 -0.0569  0.0228
60075W        W97569   8.934  14.618  20.673  0.1764  0.0187 -0.0595
60076W        W97570  17.101  30.725  23.008  0.0045  0.0800 -0.2735
60077W        W97571   1.893   1.288   2.931  0.2551  0.0099  0.0129
60078W        W97572  14.646  10.001  19.922  0.1149 -0.4363  0.1544
60079W        W97573   5.616   7.715  19.771  0.3136 -0.1083 -0.1136
60080W        W97574  32.862   9.860   8.867 -0.0911 -0.0305  0.0625
60081W        W97575  34.328  17.179  12.478 -0.0895  0.0341 -0.0948
60082W        W97576   6.851   6.494  11.264 -0.1073 -0.0698  0.0068
60083W        W97577   7.744  10.147   9.950  0.1611  0.2549 -0.2100
60084W        W97578  19.379   6.386  17.464  0.0926 -0.1364 -0.0874
60085W        W97579   7.479  16.627  24.568  0.0223 -0.2060 -0.2637
60086W        W97580   4.724  21.818   6.390  0.0130 -0.1333  0.1202
60087W        W97581  30.416  15.188  18.542 -0.2037 -0.3671 -0.0407
60088W        W97582   9.447  29.014   5.144 -0.1731 -0.0059 -0.1277
60089W        W97583   9.998  33.091   8.951 -0.0462 -0.0821 -0.3338
60090W        W97584  25.378  25.547  10.863  0.1229 -0.0833  0.2117
60091W        W97585   1.093   2.395  16.596  0.1494  0.0511 -0.0620
60092W        W97586   9.666  26.071  10.210 -0.0013 -0.0980 -0.0692
60093W        W97587   0.704  25.133   0.334 -0.2342 -0.1510  0.0817
60094W        W97588   2.078  26.074   5.375  0.0783 -0.3117  0.3604
60095W        W97589  34.745  28.577   6.526  0.1445  0.0115  0.4479
60096W        W97590  21.196  21.517   4.241 -0.0166  0.1491 -0.1205
60097W        W97591  19.986  26.575   4.700 -0.0739 -0.0812  0.2337
60098W        W97592  30.232   1.973  21.351 -0.0269 -0.0260  0.2137
60099W        W97593   5.933  14.153   8.402  0.0422 -0.2847 -0.1094
60100W        W97594   4.985  31.967   6.832  0.1140  0.0023  0.1435
60101W        W97595  28.928  14.590  23.764 -0.0976  0.3383 -0.0024
60102W        W97596   2.446  33.798  19.845  0.0042  0.2299 -0.2244
60103W        W97597  20.678  33.880  22.522 -0.1358 -0.1485  0.0809
60104W        W97598  11.825  11.650   9.542 -0.0823 -0.1370  0.1744
60105W        W97599   5.023  16.541   4.227  0.0006  0.0217  0.1311
60106W        W97600  11.958  24.406  25.601 -0.0734 -0.1294 -0.2269
60107W        W97601  31.202  13.140  21.779  0.0132 -0.3874  0.0336
60108W        W97602   2.252  28.711   5.982  0.0914  0.2597  0.2873
60109W        W97603   4.579  28.060   9.879 -0.2259  0.1847 -0.2455
60110W        W97604  21.253   3.796   2.369 -0.1567  0.0395  0.1680
60111W        W97605  14.938   3.697   8.811 -0.1247  0.2240  0.0283
60112W        W97606  24.103  25.476  15.464  0.0426 -0.2909  0.0226
60113W        W97607  21.554  25.021   4.357  0.0099 -0.2590  0.0160
60114W        W97608   2.520   3.509  19.814  0.2753 -0.2142  0.1692
60115W        W97609  20.592  11.713   4.025 -0.0790 -0.0508  0.2843
60116W        W97610  22.555  17.513   2.186 -0.2794 -0.2864  0.1804
60117W        W97611  14.166   9.807   4.591 -0.1293  0.0972  0.0343
60118W        W97612  23.427   7.498  22.106  0.0217 -0.0282 -0.1053
60119W        W97613  22.003  27.709   3.510  0.0978 -0.0227  0.0170
60120W        W97614  12.082  34.955  23.133  0.2508  0.0405  0.0439
60121W        W97615  30.658  17.461  24.156  0.0614  0.1433  0.1347
60122W        W97616  10.451  22.365  24.637 -0.0256 -0.0737 -0.1693
60123W        W97617   5.050  18.826   5.439  0.0056  0.0238 -0.0801
60124W        W97618  18.969  19.984  20.308 -0.1890  0.0038 -0.0007
60125W        W97619  18.912   9.648  25.651  0.2435  0.0969  0.1762
60126W        W97620  11.040  19.028   8.869 -0.3457 -0.2209  0.1122
60127W        W97621  34.897  32.522   7.543 -0.1657  0.0755  0.3739
60128W        W97622  13.058  18.725  24.836 -0.0649 -0.0660 -0.1776
60129W        W97623  34.617   8.019  15.470 -0.2807 -0.1587 -0.0635
60130W        W97624  11.591  31.407   2.363 -0.1397 -0.0454  0.1048
60131W        W97625  16.644  14.828  19.138 -0.3821 -0.0984 -0.1360
60132W        W97626  30.008  15.742   9.703  0.0057 -0.3395  0.0458
60133W        W97627  17.481   6.952  23.360 -0.0527 -0.0437 -0.2436
60134W        W97628   5.124   6.078  19.603 -0.2195 -0.0985 -0.1901
60135W        W97629  24.375   1.182   1.018 -0.0933 -0.0111 -0.0594
60136W        W97630  12.084  10.722  11.248  0.2462  0.4681  0.1470
60137W        W97631  27.030   2.172  16.753  0.3897 -0.0847 -0.3563
60138W        W97632  22.252   8.285   6.278  0.0653 -0.2370 -0.1222
60139W        W97633   9.814  27.471   4.181 -0.1419  0.0189 -0.0158
60140W        W97634  29.654  23.221  16.278 -0.3122 -0.0104 -0.1398
60141W        W97635   4.447  26.813  24.561 -0.2495 -0.0361 -0.0869
60142W        W97636  20.106  13.988   6.778  0.1673 -0.0723  0.0101
60143W        W97637   9.050   1.662  25.628 -0.2004 -0.2629 -0.1498
60144W        W97638  34.257  20.499  10.333 -0.0957  0.0511 -0.0436
60145W        W97639   5.728  30.533  10.858  0.2825 -0.0446  0.1855
60146W        W97640   9.979   3.428  11.160  0.1894  0.1825  0.2192
60147W        W97641  13.954  21.472  16.804  0.3227 -0.0082 -0.0147
60148W        W97642  17.906  20.550   2.213  0.0809 -0.0355  0.1049
60149W        W97643  18.071  10.804  25.808  0.1812  0.0846 -0.1475
60150W        W97644  10.881  25.618  11.114 -0.1491  0.0517  0.0605
60151W        W97645  29.710  31.986  12.340  0.1268  0.3289  0.0998
60152W        W97646  25.989  19.419  21.413 -0.2128  0.0053  0.0341
60153W        W97647  30.535  22.655   7.093  0.2919 -0.0325 -0.6638
60154W        W97648  29.381  28.892  23.307  0.0925  0.2133  0.1685
60155W        W97649  17.703  31.469  17.965  0.2742  0.1649 -0.0901
60156W        W97650  24.040  25.463   3.529  0.1402  0.0997 -0.1695
60157W        W97651  17.803  34.414   2.002  0.0650  0.1944 -0.2700
60158W        W97652  32.136  23.623  14.947  0.3166  0.1966 -0.0298
60159W        W97653   3.761  23.515  20.966 -0.0112  0.0941  0.2825
60160W        W97654  33.386   1.276  25.584 -0.0655  0.2394 -0.3048
60161W        W97655  27.288   2.171  20.959  0.5541 -0.2114 -0.0629
60162W        W97656   8.340  20.391  21.096 -0.0012  0.3407 -0.0825
60163W        W97657   0.909  16.026  16.892 -0.0411  0.2710 -0.0542
60164W        W97658  20.325   3.511  25.479 -0.1844  0.2109 -0.2448
60165W        W97659  14.742   6.042  24.406  0.0795 -0.0823  0.3569
60166W        W97660   3.004  18.700  25.220 -0.3417 -0.0376 -0.1922
60167W        W97661  13.856  35.247   0.955  0.0610 -0.2072  0.3444
60168W        W97662  35.081  12.755   1.464  0.2311 -0.0242  0.0819
60169W        W97663  12.975  28.146  10.799  0.2570 -0.6423 -0.1809
60170W        W97664  29.681  23.541  20.791 -0.2781 -0.1011  0.0238
60171W        W97665   8.251   0.951  21.428 -0.5616 -0.1205  0.0488
60172W        W97666  33.463   1.891   1.076 -0.0355  0.0550  0.0429
60173W        W97667  12.862   9.252  26.012  0.0682  0.0906 -0.0369
60174W        W97668  25.797  30.771   0.740  0.2501  0.0823  0.3614
60175W        W97669  28.711  33.164  13.330 -0.2079  0.0703  0.0503
60176W        W97670   7.710  24.385  11.540 -0.1089  0.0836 -0.2629
60177W        W97671   2.453   9.576  24.308 -0.0454 -0.1888 -0.1287
60178W        W97672   1.341   6.447  16.363  0.0524  0.2126 -0.0287
60179W        W97673  25.339   7.211  23.423  0.1124 -0.0179  0.2159
60180W        W97674  15.517   7.866   7.792  0.0331 -0.1039  0.2273
60181W        W97675   7.740  11.543  24.313 -0.3038 -0.2233 -0.1582
60182W        W97676  31.281   2.959  20.709 -0.0986 -0.3170  0.2859
60183W        W97677  17.425   9.165   0.691  0.4405  0.1595 -0.0073
60184W        W97678  35.178   9.615  16.955 -0.6668  0.0498  0.1004
60185W        W97679   2.816  32.052   3.965  0.0149 -0.0847 -0.1297
60186W        W97680   3.840  30.554  11.413  0.4372  0.1700 -0.2460
60187W        W97681   8.386  22.234   6.049  0.2698 -0.2835  0.0091
60188W        W97682  31.279   3.311  15.930 -0.3731 -0.1022 -0.1848
60189W        W97683  27.686  16.959   8.160  0.0127  0.0071  0.2559
60190W        W97684  10.134  35.302  21.871 -0.0519  0.1250  0.1437
60191W        W97685  12.868  26.745  11.326 -0.0465  0.3429  0.2114
60192W        W97686  24.580   9.723  20.672 -0.2120  0.1619  0.0687
60193W        W97687  24.105  32.774  20.913  0.1469  0.1361  0.3411
60194W        W97688  24.169  33.971  15.024  0.0157  0.0808  0.1325
60195W        W97689   2.654  33.069   4.735 -0.3194 -0.1232 -0.0550
60196W        W97690  28.437  19.692  14.117 -0.1992  0.2290 -0.0440
60197W        W97691  29.872  27.771  13.279 -0.3104  0.1998  0.2403
60198W        W97692   0.533   3.529  18.720 -0.0587  0.0118 -0.1031
60199W        W97693  21.915   0.459  23.258  0.0952  0.1694  0.2277
60200W        W97694  18.822  19.951   2.382  0.1515  0.1370  0.1133
60201W        W97695  17.491  14.337  12.910 -0.0950  0.0239 -0.0738
60202W        W97696   6.011  31.464   2.030  0.0632 -0.0816  0.1049
60203W        W97697  27.657  29.387   3.241  0.2971 -0.4116  0.0931
60204W        W97698  26.673  25.954  20.707 -0.0285 -0.0246 -0.1044
60205W        W97699  23.844  14.432  22.799 -0.0740  0.1552 -0.4092
60206W        W97700  10.888  27.788   1.919 -0.0311 -0.0940  0.2714
60207W        W97701   4.797  31.532  19.954 -0.1709  0.1480  0.0459
60208W        W97702  34.697   9.242  22.863 -0.1044 -0.1672  0.0248
60209W        W97703  24.658  19.705  25.633 -0.1433  0.1375 -0.1719
60210W        W97704  19.225  26.087   4.354  0.0946 -0.2784 -0.1638
60211W        W97705  14.093   8.895   0.171  0.0675  0.0802 -0.2708
60212W        W97706   7.152   5.413  12.693  0.3260 -0.2293 -0.0359
60213W        W97707  17.235  17.782  10.774 -0.0963 -0.0159  0.2271
60214W        W97708  24.708  20.211  10.029 -0.0855 -0.4178  0.5584
60215W        W97709  21.188  24.326  18.989 -0.1652 -0.0839 -0.3854
60216W        W97710  10.964   5.294  22.758 -0.3997 -0.1150 -0.1905
60217W        W97711   8.763  10.008   1.098 -0.3076 -0.3919  0.0416
60218W        W97712  32.083  34.882  17.487  0.0118 -0.1222 -0.2973
60219W        W97713  23.523  15.205  13.961  0.1619 -0.0228  0.1182
60220W        W97714   8.356   4.432   4.921 -0.0340  0.2596 -0.0168
60221W        W97715  18.403  15.345  20.060  0.1021 -0.3472 -0.1517
60222W        W97716  17.161  14.975  19.291 -0.1151  0.1038 -0.3044
60223W        W97717   8.820   5.104  13.267 -0.1739  0.3156  0.1342
60224W        W97718  16.378  24.316  22.016  0.1356 -0.0107 -0.1698
60225W        W97719  35.100  34.246  24.146 -0.2036 -0.0055 -0.1881
60226W        W97720  23.722  19.743  23.449  0.1823 -0.0407 -0.3244
60227W        W97721  10.763  18.917  24.544 -0.3605  0.0945 -0.0016
60228W        W97722   5.162   0.674  20.943 -0.0835 -0.1362  0.2048
60229W        W97723   8.939  33.311  10.987  0.0482  0.0499 -0.1963
60230W        W97724  14.994   1.574  25.849 -0.1970  0.0495  0.0950
60231W        W97725  18.937   4.193  20.640 -0.2622  0.0658 -0.3952
60232W        W97726  24.191  17.507   8.688  0.0383  0.0424  0.1848
60233W        W97727  26.436   2.506  19.660  0.1153 -0.1074  0.1336
60234W        W97728  32.207   2.104   6.780 -0.0318  0.2708  0.1302
60235W        W97729  35.085   3.065  22.320  0.0782 -0.0549 -0.0813
60236W        W97730  22.004  23.301  22.311  0.1657 -0.2183 -0.0666
60237W        W97731  28.066  22.525  23.639  0.0337 -0.1273 -0.2034
60238W        W97732  11.581  33.737   0.807  0.1463  0.0685 -0.0163
60239W        W97733  31.184   8.787   9.028 -0.2097 -0.0254 -0.1860
60240W        W97734  19.196  35.060   4.117 -0.1562  0.1555 -0.0389
60241W        W97735   9.754  10.939   0.117 -0.0475 -0.1109 -0.1816
60242W        W97736  13.932  11.441  11.982  0.2027  0.1995  0.2473
60243W        W97737  11.744  28.851  15.967  0.1034  0.2125 -0.1404
60244W        W97738  30.706  19.534  25.828 -0.0154 -0.1496  0.0876
60245W        W97739  17.816   1.194   9.986  0.2086  0.1083  0.1450
60246W        W97740   7.895   7.656   0.125 -0.1410  0.1672 -0.4729
60247W        W97741   9.442  18.407  10.759 -0.1615  0.1845 -0.0445
60248W        W97742  17.834  18.496  23.129  0.0969  0.0908 -0.1086
60249W        W97743  11.693   6.603  24.266 -0.3375 -0.0821 -0.1264
60250W        W97744  21.628   6.759  16.505  0.2627 -0.0022  0.0018
60251W        W97745   8.007   6.403  10.040 -0.2490  0.2237  0.2325
60252W        W97746  14.984  23.965   3.391 -0.2383 -0.3144  0.0085
60253W        W97747  18.847  16.011  24.343 -0.1559  0.1921 -0.1075
60254W        W97748   9.621  11.742  13.968 -0.0464 -0.2366 -0.0269
60255W        W97749  29.139   3.055  21.010  0.2187 -0.0167  0.2277
60256W        W97750   3.223   1.020  24.688  0.2225 -0.0251  0.1821
60257W        W97751  22.728   3.089  24.941 -0.0389 -0.0018 -0.2620
60258W        W97752   8.261   4.759  19.040  0.0092  0.1434  0.2326
60259W        W97753  23.443   1.757  19.015 -0.1339  0.1732  0.0288
60260W        W97754  20.211   5.183   3.295 -0.0529  0.2420 -0.2356
60261W        W97755  23.109   7.267  16.487  0.0619  0.1150  0.1961
60262W        W97756  32.069   7.503  12.712  0.0459  0.0875  0.0387
60263W        W97757  17.279  10.538  12.717 -0.0065 -0.3424 -0.0097
60264W        W97758  13.108  33.960   1.475  0.1890 -0.0038  0.1925
60265W        W97759  30.106  33.236  23.488 -0.1216  0.0045 -0.0370
60266W        W97760   3.570   3.532  20.044  0.0824 -0.3084  0.0541
60267W        W97761   2.399  28.890  21.478 -0.0036  0.0397 -0.1872
60268W        W97762   1.089  20.033  18.808  0.0166 -0.1616 -0.2515
60269W        W97763  14.501  22.498  10.890  0.0994  0.0524 -0.1517
60270W        W97764  24.406  24.185  12.440 -0.0895  0.1704 -0.2205
60271W        W97765  11.728  23.298   4.373  0.0793 -0.0989 -0.0018
60272W        W97766   3.711  32.865   6.307 -0.3909  0.0872 -0.0850
60273W        W97767   8.438  22.857   6.762  0.1696  0.1268 -0.0335
60274W        W97768  13.533   5.070  22.053  0.1558  0.0369 -0.0073
60275W        W97769   5.444  10.553   9.502  0.1286  0.0921 -0.0075
60276W        W97770  15.112   1.632  19.400  0.0814  0.3926 -0.1477
60277W        W97771  11.021  20.771  11.824  0.1077  0.1105 -0.0707
60278W        W97772  10.765   3.536  10.299 -0.0026  0.1571  0.1270
60279W        W97773   6.084   8.258  18.166 -0.0598  0.0408 -0.0452
60280W        W97774  33.741  17.919  12.701 -0.0390  0.0832 -0.1143
60281W        W97775  26.922   7.092   9.566  0.1785  0.1771 -0.2566
60282W        W97776  24.639   0.371  14.566 -0.3219  0.0926  0.0236
60283W        W97777   4.850   4.986   9.180  0.1023 -0.0424  0.6957
60284W        W97778   6.725  21.626   3.697  0.1531  0.1541  0.1822
60285W        W97779   2.985  16.093  14.914  0.0562  0.2404 -0.1004
60286W        W97780  32.830  12.393   6.934 -0.2120  0.2565  0.1406
60287W        W97781  30.599   0.475   3.756  0.3238  0.0237  0.1915
60288W        W97782  31.727  19.633  19.176 -0.2620  0.0317 -0.1362
60289W        W97783  27.745   5.748  17.137  0.2184  0.3882 -0.0187
60290W        W97784  18.664  30.267   1.232 -0.1709  0.1703 -0.4084
60291W        W97785  32.961  21.481  24.274 -0.0010 -0.2421  0.0227
60292W        W97786  19.025   3.691  17.295  0.4951 -0.1863  0.1887
60293W        W97787  20.273  25.179  18.647 -0.3092  0.1326 -0.0303
60294W        W97788  33.481  33.904  23.180 -0.2674 -0.0800  0.1883
60295W        W97789  15.562  23.756  12.811 -0.1209 -0.1962 -0.5551
60296W        W97790   3.207  26.498  26.015 -0.1653  0.0773  0.1059
60297W        W97791  30.126  23.922  25.860  0.2649  0.2589  0.0613
60298W        W97792  14.552  10.968   6.153 -0.0722  0.1324  0.1564
60299W        W97793  27.526  30.779  19.708  0.2176  0.0735  0.1309
60300W        W97794   3.794  32.212   8.994  0.0954  0.0693  0.0812
60301W        W97795  12.524  20.080   3.091  0.2213 -0.2930  0.0334
60302W        W97796   5.181  31.806   8.496  0.4117  0.1246 -0.3054
60303W        W97797   2.463  18.246   0.800 -0.1788 -0.0309  0.0617
60304W        W97798  20.785  20.723  22.746  0.0842 -0.1180 -0.2725
60305W        W97799  24.468  16.232  19.531  0.0063 -0.0575  0.0059
60306W        W97800  17.606   0.819   9.713 -0.1220  0.1281 -0.0383
60307W        W97801  25.354  26.054  17.489 -0.1090 -0.1239  0.1958
60308W        W97802  32.423  24.690  13.741  0.2491  0.0592  0.0821
60309W        W97803  26.036  15.893  15.930  0.0742 -0.0881  0.3914
60310W        W97804  11.834   9.294  23.447 -0.3950  0.1528 -0.1522
60311W        W97805  15.192  23.944   5.361  0.3886  0.2637  0.1060
60312W        W97806  10.691   9.862   8.445 -0.0866  0.0979  0.0248
60313W        W97807  29.951  11.131   7.740 -0.3299  0.0201 -0.0189
60314W        W97808   7.068   4.676  24.598 -0.1043  0.0821  0.0653
60315W        W97809  15.021  12.150  11.781 -0.0807 -0.2759  0.1540
60316W        W97810  10.786  19.587  11.471 -0.2617 -0.0253 -0.1282
60317W        W97811  11.720   8.135   6.901 -0.0475  0.2017  0.1607
60318W        W97812  29.842  17.174   5.084  0.0506 -0.0402 -0.1825
60319W        W97813  24.016  23.714  14.355 -0.0414 -0.5640  0.0257
60320W        W97814  31.515  22.710  14.053  0.1105  0.3915  0.3375
60321W        W97815   3.201  25.479   2.241 -0.1117 -0.0017  0.2510
60322W        W97816  16.434  20.163   4.277 -0.2631  0.1298  0.2279
60323W        W97817   7.449  25.583   5.355  0.0153  0.0189  0.3597
60324W        W97818   1.769  31.727  23.640 -0.3607  0.1427  0.4325
60325W        W97819   6.459  19.717  21.072  0.1320 -0.2835 -0.1310
60326W        W97820  24.657   6.373  16.380  0.0974 -0.1455 -0.1582
60327W        W97821  27.070  27.510  22.220 -0.1694 -0.2331 -0.0158
60328W        W97822  18.216  14.780  20.057  0.2314 -0.1306 -0.3450
60329W        W97823  15.990  28.828  21.980  0.0013  0.1694  0.2606
60330W        W97824   9.598  16.354   8.834  0.1396 -0.0690 -0.2557
60331W        W97825   7.289   1.724   2.766 -0.0623  0.4281  0.2350
60332W        W97826  19.594   5.001   9.861  0.1126 -0.1780 -0.1760
60333W        W97827  24.289  27.983  16.806 -0.1136  0.0439 -0.1314
60334W        W97828  20.803   4.093  20.258  0.1524 -0.0838  0.0171
60335W        W97829  29.329  14.374  17.357  0.0818 -0.1476  0.0743
60336W        W97830   5.125  27.409   6.458  0.0720 -0.3078 -0.0069
60337W        W97831   8.785  27.275   7.080  0.2730  0.2979 -0.2664
60338W        W97832  31.836   7.661  16.866  0.0782 -0.0702  0.0265
60339W        W97833  35.134  35.281  17.415 -0.0493  0.1083 -0.1167
60340W        W97834   4.911  29.551  12.596  0.0642 -0.0821  0.0303
60341W        W97835   4.929  31.222   6.421 -0.2416  0.0409  0.2623
60342W        W97836  31.842  14.169  19.532  0.0659 -0.2995 -0.4533
60343W        W97837   2.281  16.289  15.762  0.1551 -0.2207  0.1358
60344W        W97838  24.363  31.630   1.304 -0.2749 -0.1973  0.1100
60345W        W97839  26.052  23.168  18.089 -0.0180  0.2533  0.5542
60346W        W97840  24.969   0.742  13.293 -0.0419 -0.2080  0.1790
60347W        W97841  26.013  14.442   8.109 -0.0148  0.1184  0.1997
60348W        W97842  22.184   4.472   5.994 -0.1498  0.1461  0.2597
60349W        W97843  33.561   7.760  25.786 -0.0873  0.1348  0.2079
60350W        W97844  16.533  25.218   3.126 -0.1119  0.1411 -0.0284
60351W        W97845  14.249   9.385   8.964 -0.3641 -0.1033 -0.0078
60352W        W97846  28.859  28.122  23.343  0.0943 -0.2766 -0.3198
60353W        W97847  22.368   7.538  18.736 -0.3682  0.3252  0.0450
60354W        W97848  26.530  28.422  24.476 -0.1089  0.5039  0.0920
60355W        W97849  32.933   6.198  17.852 -0.1127 -0.2325  0.1237
60356W        W97850   8.038  30.737  20.823 -0.0513  0.1590 -0.2486
60357W        W97851   1.676  34.946  21.028  0.0629  0.0212  0.3144
60358W        W97852  15.459  16.855  26.040 -0.0842 -0.1113  0.1146
60359W        W97853  16.507  32.247   0.645 -0.0132 -0.1643 -0.1951
60360W        W97854  10.023   6.035   5.561  0.3798 -0.2338 -0.0404
60361W        W97855  21.349  13.351  25.947 -0.1853 -0.0840 -0.1782
60362W        W97856  14.224  13.299   6.129 -0.1036  0.2805 -0.0599
60363W        W97857  34.478  18.945  11.778 -0.2311 -0.0387 -0.3057
60364W        W97858  22.042  15.403  21.537 -0.1268 -0.2679 -0.2217
60365W        W97859   9.868  10.553  11.390 -0.1081 -0.1035  0.0890
60366W        W97860  29.798   6.078   2.027  0.0945 -0.1363 -0.1247
60367W        W97861   5.855  29.734  11.813 -0.2335 -0.3075 -0.0113
60368W        W97862  28.913   2.339  12.010 -0.2580  0.2945  0.0448
60369W        W97863  33.933   0.992  14.722 -0.1925 -0.0744 -0.1300
60370W        W97864  14.919   9.920  23.164 -0.2874 -0.1276  0.1213
60371W        W97865   0.324  16.757  15.864 -0.0213  0.1468  0.0633
60372W        W97866   0.862  10.314  17.591 -0.1765  0.1110  0.2356
60373W        W97867  30.010  20.071  12.587 -0.0452 -0.1102 -0.2929
60374W        W97868  34.127   4.859   2.570 -0.1321  0.0706 -0.2398
60375W        W97869  22.279  22.168  20.112  0.1692  0.3015  0.1191
60376W        W97870   8.766  29.917   7.186  0.1005  0.2530  0.0280
60377W        W97871  30.529  35.200   2.587 -0.1083 -0.0793  0.2845
60378W        W97872  14.046  20.796  25.211 -0.1186 -0.1546  0.1751
60379W        W97873  14.379  17.511   2.534  0.3124  0.1624  0.1712
60380W        W97874  26.463  13.638   6.543  0.0039 -0.1307 -0.1786
60381W        W97875  25.577  29.487  10.266 -0.2920  0.0662  0.2378
60382W        W97876   8.246   5.233   9.436 -0.1282  0.1849 -0.1314
60383W        W97877   6.663  12.201   0.056 -0.1528 -0.1665 -0.4242
60384W        W97878  15.874   3.670  23.257  0.1333 -0.1402 -0.0242
60385W        W97879   1.127  15.376  12.878  0.0157 -0.2381 -0.0231
60386W        W97880  12.391   8.921  12.529 -0.1687  0.1734 -0.0375
60387W        W97881   5.573  26.213  20.514  0.0349  0.0993 -0.1380
60388W        W97882  25.776   9.959  23.220  0.0978 -0.2368  0.1437
60389W        W97883  19.596  20.353   8.461 -0.1390 -0.3467 -0.1650
60390W        W97884  20.586  32.870   7.729 -0.2835  0.2527 -0.0154
60391W        W97885  17.410  21.738  10.472  0.1061  0.0020 -0.3156
60392W        W97886   3.279  29.480  11.211 -0.0091 -0.2224  0.0752
60393W        W97887  17.193  25.483  11.634  0.0222 -0.2564  0.2608
60394W        W97888   5.570  22.151  20.514  0.2937  0.3723 -0.0863
60395W        W97889   7.209  15.825   1.025  0.0213  0.0029 -0.0820
60396W        W97890  21.098  26.511  21.849 -0.2063  0.0822  0.0008
60397W        W97891  24.358  25.559  11.302 -0.0761 -0.1422  0.3795
60398W        W97892  25.345  10.076  23.019 -0.0211 -0.3811  0.0851
60399W        W97893  32.577  10.782  23.895 -0.1065 -0.1476 -0.4680
60400W        W97894   5.911   9.530   4.557  0.0027  0.0789  0.0942
60401W        W97895  29.416   7.998  21.112 -0.1253  0.0034  0.2083
60402W        W97896  30.869  15.297  17.845 -0.2321  0.0666  0.0651
60403W        W97897  12.608  20.664   5.923  0.0839 -0.0291  0.1709
60404W        W97898  33.413  22.435  24.309  0.1110 -0.1491 -0.0639
60405W        W97899  33.980   6.452  18.742 -0.2748 -0.0628 -0.2066
60406W        W97900  13.302  34.287   7.449 -0.0661 -0.0081 -0.1245
60407W        W97901  21.474   9.065   1.629 -0.2683  0.1287 -0.1089
60408W        W97902   2.750  14.720  24.815  0.0645 -0.2104 -0.2681
60409W        W97903  22.129  18.992  25.389  0.0657  0.3324  0.3070
60410W        W97904   4.315  10.767  25.614 -0.2315  0.3274 -0.1308
60411W        W97905   4.372   5.842  23.297 -0.0580  0.0417  0.5598
60412W        W97906   1.189   0.902  24.162 -0.0366 -0.2514 -0.0929
60413W        W97907  19.526   4.223  21.480  0.2634 -0.0477 -0.0754
60414W        W97908  33.059  30.294   2.660 -0.2111  0.2516 -0.0993
60415W        W97909  30.061  11.406  11.570  0.1770  0.1489  0.2286
60416W        W97910  10.330   9.394  19.154  0.3723 -0.1682 -0.3090
60417W        W97911  25.851  16.506  23.912 -0.1003  0.0924 -0.3967
60418W        W97912   1.167  14.507  16.366 -0.1400 -0.0334  0.2554
60419W        W97913  14.454  23.037  10.380  0.1640 -0.2208  0.1671
60420W        W97914  15.575  35.299   8.918 -0.0999  0.1030  0.0044
60421W        W97915  28.890  13.022  22.061 -0.3828  0.3124  0.0615
60422W        W97916  24.378  26.393  13.106  0.1406 -0.0483 -0.1246
60423W        W97917  31.769  35.122  14.109  0.2720 -0.0736  0.1723
60424W        W97918  11.114  10.962  25.151 -0.3076 -0.2387  0.0505
60425W        W97919  22.467   8.265   5.321 -0.2101 -0.0426 -0.2305
60426W        W97920  23.243  15.552  23.280  0.0547  0.2400  0.0438
60427W        W97921  16.882  18.045  22.944 -0.1459  0.0673  0.1075
60428W        W97922  33.836   4.311  18.899  0.0947  0.3014 -0.1751
60429W        W97923  18.819  26.275   7.243 -0.0759  0.1330 -0.0788
60430W        W97924  18.417  25.687   4.454 -0.0918 -0.2437  0.2056
60431W        W97925  15.106  31.059   1.666  0.0217 -0.2297  0.1400
60432W        W97926  11.026  27.478   8.783  0.0095  0.1333  0.0538
60433W        W97927   7.548  10.323   4.722 -0.2131  0.0116 -0.1967
60434W        W97928  15.466  30.799  25.864 -0.2588 -0.1966 -0.0318
60435W        W97929  16.124  31.475  25.294  0.1849 -0.2496 -0.2671
60436W        W97930  11.771   6.645  12.608 -0.2927 -0.2151  0.3845
60437W        W97931  18.394   5.124  23.519  0.1597 -0.2947  0.3247
60438W        W97932  31.174   5.388  19.068  0.1728 -0.1899  0.1284
60439W        W97933  18.128  12.892  19.686 -0.1749 -0.3493 -0.0190
60440W        W97934  19.929  15.293   5.058  0.0471 -0.1036  0.3470
60441W        W97935   0.935  32.127   4.873 -0.1828 -0.2408  0.0854
60442W        W97936   4.750  28.580  12.885 -0.2315  0.0301  0.1375
60443W        W97937  33.425  12.128  24.850 -0.0213 -0.0973 -0.0012
60444W        W97938  26.901  22.365  14.243  0.2091  0.2854  0.0146
60445W        W97939  34.724  25.820  20.580  0.0561 -0.2468  0.0062
60446W        W97940  11.939  24.235  22.181 -0.2257  0.2131  0.6699
60447W        W97941  29.502  17.761  21.883  0.1566 -0.1996  0.1748
60448W        W97942   7.639  24.665   3.824  0.0130 -0.1892  0.1557
60449W        W97943  10.717  18.698   9.044  0.0752 -0.4169  0.2459
60450W        W97944  17.257  31.907  24.617 -0.1596  0.1600  0.0907
60451W        W97945  13.593  35.258  11.587 -0.2698 -0.4042  0.2027
60452W        W97946  23.102  16.258  24.473  0.1299 -0.1961  0.0502
60453W        W97947  33.859   7.103   3.478  0.1964  0.0678  0.1972
60454W        W97948  19.034   2.135   5.808  0.2697  0.0847  0.0500
60455W        W97949   9.210  31.365  14.877  0.3704  0.3088  0.1040
60456W        W97950  10.368  21.347  26.166 -0.2240 -0.2862 -0.0275
60457W        W97951  13.675  17.841   2.838  0.0697  0.0853 -0.2158
60458W        W97952   2.066  12.616   3.226 -0.0479  0.0457 -0.0784
60459W        W97953  27.853  26.007   7.852  0.1521 -0.0555 -0.1754
60460W        W97954  11.208  27.882   1.552  0.1484  0.1014 -0.1367
60461W        W97955   8.256  32.704   9.704  0.0322 -0.2352 -0.1756
60462W        W97956  18.575  24.257   0.156 -0.0373 -0.0379 -0.0660
60463W        W97957  31.715  24.514  16.208 -0.5305 -0.2516  0.1015
60464W        W97958   2.239  29.109   2.029  0.3298 -0.0573 -0.0808
60465W        W97959  28.423  20.711   5.338 -0.1297  0.4565 -0.0749
60466W        W97960   6.282  25.049   2.463 -0.1877  0.1867  0.4112
60467W        W97961  12.572  26.095   3.622 -0.1734  0.2599  0.1404
60468W        W97962  25.800  24.124   0.557  0.1871 -0.1197 -0.1844
60469W        W97963  19.022  33.523   2.416  0.1536 -0.0481 -0.0717
60470W        W97964  17.716   6.396  22.919  0.0454  0.0530  0.1102
60471W        W97965  20.273  32.609   3.697  0.0554  0.2351  0.2483
60472W        W97966  10.085  11.209  21.312 -0.3243  0.3168  0.0577
60473W        W97967   2.881  13.574  23.366 -0.2053  0.0230  0.2192
60474W        W97968  14.315   9.851   8.774  0.0327  0.1211 -0.4967
60475W        W97969  16.058  24.618   3.375 -0.0268  0.3107  0.2088
60476W        W97970  16.349   9.022  19.308  0.0221 -0.0947 -0.1206
60477W        W97971  12.294   2.206   4.661 -0.3100 -0.5100 -0.0870
60478W        W97972  30.523   8.289  14.011 -0.0846  0.1605  0.0981
60479W        W97973  25.802  24.922  20.500 -0.1307  0.1626 -0.0420
60480W        W97974   4.097  35.125  11.083  0.3955 -0.2595  0.1055
60481W        W97975  18.962   5.486   9.237 -0.1628 -0.1834  0.0021
60482W        W97976   6.401   0.740   4.550  0.1706 -0.1985  0.1030
60483W        W97977  13.262  12.800  20.294 -0.2017  0.2393 -0.1064
60484W        W97978  10.845  31.642   6.489  0.1163 -0.0381 -0.2012
60485W        W97979  31.589  25.586  25.722 -0.2155 -0.2888  0.0483
60486W        W97980  14.017  22.320  10.874 -0.2697  0.0296  0.3435
60487W        W97981  21.549   5.422  23.665 -0.0760 -0.0828  0.0941
60488W        W97982  18.730   7.221   6.930 -0.1291  0.1380 -0.0472
60489W        W97983   3.782  20.954   1.532 -0.1101 -0.1467 -0.1529
60490W        W97984  22.641  26.497  17.964  0.1134  0.0809 -0.1812
60491W        W97985  32.448  22.345  20.846 -0.2135  0.1122 -0.0571
60492W        W97986  31.276   5.946  20.434  0.1362 -0.1039  0.2281
60493W        W97987  11.211  10.688   4.114  0.1470 -0.0580 -0.0004
60494W        W97988   2.029  19.354  15.290  0.0612 -0.1434 -0.3164
60495W        W97989  34.799   2.715   5.450  0.0917 -0.0719 -0.2799
60496W        W97990  32.924   9.121  15.796 -0.3843 -0.0905 -0.2113
60497W        W97991  26.342  16.936  11.049 -0.0990 -0.2325  0.0464
60498W        W97992   6.125  25.210  10.683  0.1239  0.0302 -0.1909
60499W        W97993   4.614  30.012  25.566 -0.2149  0.0788 -0.0615
60500W        W97994  11.221   9.262   5.444 -0.1026 -0.5743  0.0328
60501W        W97995   1.377  18.844  22.328  0.2188  0.0768  0.1873
60502W        W97996  32.154  32.727   6.736  0.2267  0.0125 -0.1261
60503W        W97997  19.751  33.940  23.666 -0.2229 -0.0429 -0.0593
60504W        W97998  18.024  21.392  21.352 -0.0029  0.2039  0.1227
60505W        W97999  11.607  28.956   5.627 -0.0055  0.0070  0.1226
60506W        W98000  29.487   6.903   9.207 -0.1375 -0.0323  0.0888
60507W        W98001  22.170  10.922  17.407  0.3128  0.2908 -0.1269
60508W        W98002  33.624  18.448   9.406 -0.0946  0.3330  0.1318
60509W        W98003  19.963  34.865  21.239 -0.1617  0.1012  0.1488
60510W        W98004  34.891   2.810  25.079  0.1138  0.0938  0.0267
60511W        W98005  27.311   1.988   3.161  0.1014  0.2823 -0.1637
60512W        W98006  23.173  13.763  21.242 -0.0599  0.4362 -0.1405
60513W        W98007   1.958   9.599  14.650 -0.1187  0.2994  0.1238
60514W        W98008  18.015  13.482   0.061 -0.6575 -0.1621 -0.0751
60515W        W98009  27.111  15.525   8.819  0.5953 -0.2380  0.1945
60516W        W98010   9.051   5.910   4.355 -0.0013 -0.0873  0.0234
60517W        W98011   7.235   9.782  17.894 -0.1866  0.2081  0.1121
60518W        W98012  16.909  25.638  21.460 -0.0826 -0.4031  0.0881
60519W        W98013  13.860  10.635  24.422 -0.0250 -0.1749  0.4466
60520W        W98014  18.577  19.670  21.059 -0.0241 -0.3214  0.1895
60521W        W98015  33.459   7.896  14.411 -0.0001  0.1456 -0.1687
60522W        W98016  28.011   3.722   3.062 -0.0636 -0.0474  0.0718
60523W        W98017  27.916  27.823  17.107 -0.0063  0.0888  0.0903
60524W        W98018   8.761  16.853  11.173 -0.0981 -0.0018 -0.0351
60525W        W98019  34.989  19.752   7.343 -0.1188  0.1940  0.2499
60526W        W98020  21.633   8.601  22.967  0.0466  0.1816  0.2854
60527W        W98021  17.848   7.265  23.038  0.1587  0.2356 -0.0841
60528W        W98022  12.575  17.162  25.289 -0.0659 -0.0447  0.0373
60529W        W98023  33.494   6.146   4.609 -0.0214  0.0341  0.1276
60530W        W98024   1.919  18.354  18.208  0.0507  0.1415 -0.0377
60531W        W98025  17.688   4.127  21.951 -0.0561  0.1053 -0.1966
60532W        W98026  17.066  16.895   7.489 -0.1596 -0.1994 -0.0542
60533W        W98027   7.672  26.815  21.471 -0.2438 -0.1112 -0.4437
60534W        W98028   6.977   8.338   8.701  0.2160  0.1011  0.0383
60535W        W98029  18.631  25.325   1.827 -0.1565 -0.4791  0.1408
60536W        W98030  34.373  31.020  16.301 -0.3683 -0.3825 -0.0966
60537W        W98031   2.078  22.392  24.887  0.0928 -0.2532 -0.0319
60538W        W98032  14.511  26.315  10.433 -0.1444 -0.0108 -0.1958
60539W        W98033   5.275  24.556  22.489  0.0920 -0.2136  0.0170
60540W        W98034  26.811  18.404  17.993 -0.2116  0.1995  0.0915
60541W        W98035  29.027  31.516   3.645  0.3338  0.0711  0.0072
60542W        W98036  27.627  25.122  25.644 -0.0550 -0.0719 -0.2163
60543W        W98037   7.839   5.525   4.356  0.0096  0.0578  0.3864
60544W        W98038  28.428   0.681  13.639 -0.0974 -0.2511 -0.0649
60545W        W98039  29.619  26.017  11.454  0.1897  0.2062  0.0252
60546W        W98040  26.596  25.694  12.076 -0.1939 -0.0269  0.3713
60547W        W98041  10.131  30.423  23.544  0.1344 -0.0959 -0.2395
60548W        W98042  27.345  10.885  23.910  0.0944  0.0666 -0.0229
60549W        W98043  25.642  34.265   3.319  0.1079 -0.1188  0.1546
60550W        W98044  22.258   0.071  24.570  0.0936  0.0168 -0.3213
60551W        W98045  33.481  35.105  13.666 -0.1464  0.0854  0.0311
60552W        W98046  32.848  14.753  12.146  0.1502 -0.0112  0.0679
60553W        W98047   0.662  34.289  21.677  0.0056  0.1851 -0.1755
60554W        W98048  18.427  28.013   0.158  0.1125  0.2226  0.0140
60555W        W98049  33.330   3.180  14.141 -0.0690  0.1293  0.2834
60556W        W98050  11.102  21.929   0.596  0.0736 -0.1332 -0.3328
60557W        W98051  35.006  29.617  16.394 -0.0325  0.0083 -0.0323
60558W        W98052  32.335  31.635  19.793  0.2906 -0.0258 -0.0920
60559W        W98053  15.624  25.798  10.934 -0.0488 -0.3850 -0.0963
60560W        W98054   6.827   9.942  11.166  0.3201 -0.1143  0.0103
60561W        W98055  12.488  33.187  10.253 -0.2028  0.1396  0.3175
60562W        W98056  27.398  26.899  17.510 -0.1647  0.2156 -0.1639
60563W        W98057  28.669   4.330  22.749  0.2008 -0.1855  0.0917
60564W        W98058  13.148   2.479  19.361  0.2196 -0.3000 -0.0697
60565W        W98059  25.318   1.826   5.386  0.2126 -0.0396  0.2818
60566W        W98060   0.147  19.780  11.372 -0.2931  0.0534 -0.2022
60567W        W98061  17.136   9.335   7.744 -0.3488  0.1428  0.3774
60568W        W98062  19.851  15.229  24.570  0.1094  0.0883 -0.0422
60569W        W98063  32.021  17.433  21.646 -0.0034  0.1805 -0.1895
60570W        W98064  18.374  19.761   4.931  0.0502  0.3411 -0.0443
60571W        W98065   2.733  28.726   0.108  0.1025 -0.1507 -0.0823
60572W        W98066  23.211  13.279  22.569 -0.0114  0.0105 -0.1320
60573W        W98067   5.739   7.054   9.347  0.1729  0.0539 -0.0723
60574W        W98068  27.752  29.246  16.931  0.3972  0.4255 -0.2888
60575W        W98069   4.730   7.843   3.139  0.2238 -0.0394 -0.1397
60576W        W98070  20.939  30.194  20.582 -0.0990  0.0324  0.1153
60577W        W98071  17.854   2.460  17.625 -0.4054 -0.0957 -0.2089
60578W        W98072  12.867  24.416  14.671  0.0675 -0.2453  0.1370
60579W        W98073   9.720   2.450  22.514  0.0711  0.0495 -0.1212
60580W        W98074  13.170  14.696  14.514 -0.0679  0.4073 -0.3238
60581W        W98075  13.285  23.384  12.170 -0.2790  0.0030  0.3714
60582W        W98076  33.232  17.946   8.919  0.1760 -0.1186  0.2698
60583W        W98077  34.195  11.468  12.310  0.3440 -0.3392  0.2703
60584W        W98078  28.694   9.472  24.963  0.1541  0.0834 -0.0324
60585W        W98079  22.435  12.692   2.463 -0.0683 -0.2005 -0.0921
60586W        W98080  29.086  19.186  21.758 -0.0996 -0.2736 -0.0384
60587W        W98081  13.500  14.686  11.807  0.2233 -0.2377  0.0355
60588W        W98082  21.085   0.264   1.239 -0.0398 -0.1012 -0.2594
60589W        W98083  30.006  26.306  19.469  0.2859 -0.1267  0.0924
60590W        W98084   5.692   3.055  22.204 -0.2927  0.3436  0.2051
60591W        W98085  33.542   7.611  11.162 -0.0813  0.3740  0.0581
60592W        W98086  18.241  33.297  22.533 -0.2615 -0.0835  0.0669
60593W        W98087  17.181   2.777  23.048  0.0317 -0.1524 -0.3463
60594W        W98088   6.251  11.881   4.519  0.2088  0.5055  0.4897
60595W        W98089  21.237  12.536   4.196 -0.1999 -0.1009  0.2021
60596W        W98090  12.447  32.119   5.058 -0.1451 -0.1925  0.2503
60597W        W98091  12.640  29.269   3.866  0.0549 -0.1430  0.1223
60598W        W98092  26.031  26.735  12.940 -0.1119 -0.2251  0.2271
60599W        W98093   1.438   6.371  23.925  0.0342  0.0184  0.3967
60600W        W98094  11.580  17.690   5.139  0.0181 -0.2224  0.1529
60601W        W98095  17.495   3.737  16.892  0.3012 -0.1276 -0.0606
60602W        W98096   7.662  26.548   2.313 -0.2620  0.2265 -0.1828
60603W        W98097  18.833   5.583   1.668  0.0451 -0.2321  0.2866
60604W        W98098  17.845  26.252   7.626 -0.0068  0.0097 -0.2312
60605W        W98099   9.990  31.103  21.090  0.0179 -0.1427  0.4351
60606W        W98100  24.277  35.325  19.579  0.0497  0.1363 -0.3625
60607W        W98101  26.345  19.114  13.458 -0.0833  0.2325  0.0703
60608W        W98102  27.989   4.660  15.495  0.1590  0.1935 -0.0932
60609W        W98103  10.882  12.430  19.715 -0.0123 -0.0596 -0.1041
60610W        W98104   0.320  24.709   2.440  0.0807 -0.1881  0.1490
60611W        W98105  10.097   8.222   3.129 -0.1954  0.1804  0.3600
60612W        W98106  24.584  17.959  18.185 -0.0687  0.1018 -0.2511
60613W        W98107   8.116  31.763   4.067 -0.1295  0.0207  0.0208
60614W        W98108  32.393  29.619  11.595  0.0766  0.1921  0.1552
60615W        W98109  28.855  28.280   0.497 -0.1987  0.0819 -0.1007
60616W        W98110  21.329   7.947   7.144 -0.2806  0.3039  0.4348
60617W        W98111   0.012   5.090   5.458  0.0462  0.0194  0.1347
60618W        W98112   0.873  22.253  23.605 -0.0139 -0.0728 -0.1836
60619W        W98113  26.638   3.236  17.053  0.1538 -0.2781 -0.0671
60620W        W98114  25.037   4.525  18.370  0.0894 -0.1693 -0.0479
60621W        W98115  31.380  17.318  15.911  0.1289  0.0717  0.1034
60622W        W98116  22.743  11.827  16.072  0.0598  0.0711 -0.0413
60623W        W98117   0.497   6.335  24.641  0.0135 -0.2653 -0.3895
60624W        W98118   9.374  17.688  11.624 -0.1608 -0.0828 -0.0145
60625W        W98119   9.098   1.522   5.558 -0.0147 -0.0291  0.0327
60626W        W98120  10.379  18.310  25.220 -0.0643  0.0120  0.1231
60627W        W98121  34.717   9.910  23.624  0.0542 -0.0345 -0.1239
60628W        W98122  15.214  28.961  10.978 -0.1290  0.0469 -0.1476
60629W        W98123  14.800  26.710   3.609 -0.0214 -0.2204 -0.0291
60630W        W98124  24.138  32.456  18.703  0.1587 -0.1180 -0.0843
60631W        W98125  13.707  24.024  11.221  0.0723  0.0107  0.0325
60632W        W98126  29.132   0.794   0.671 -0.1129 -0.0389 -0.3074
60633W        W98127  30.801  31.340  23.026 -0.0057  0.0108 -0.2999
60634W        W98128  12.624  17.889  12.902  0.0784 -0.1918  0.0166
60635W        W98129   0.575  21.971   2.736 -0.2592  0.0115  0.2143
60636W        W98130   2.734   6.166  25.855  0.0846 -0.0248  0.0041
60637W        W98131  11.860   7.335  19.800  0.1109  0.2688  0.0947
60638W        W98132   8.078  21.521  26.233  0.3072 -0.2663  0.2856
60639W        W98133  16.908   6.695  19.340  0.2539  0.0040  0.1559
60640W        W98134  14.064  27.060   4.399 -0.2523 -0.3574 -0.0788
60641W        W98135  17.926   1.585  18.937 -0.1518 -0.2368 -0.0819
60642W        W98136  26.655  26.941  17.016 -0.0827 -0.3315 -0.1624
60643W        W98137   5.718   3.676  20.833 -0.2900 -0.2840  0.0471
60644W        W98138  21.720  20.139   1.039  0.2483  0.2018 -0.1694
60645W        W98139   7.958  31.182   7.379 -0.1003  0.2837 -0.0356
60646W        W98140  19.513  28.786  19.419 -0.1407  0.1647  0.1424
60647W        W98141  18.141  29.145  20.191 -0.0105  0.0126 -0.1585
60648W        W98142   1.687   3.881   4.806  0.0015  0.3423  0.2937
60649W        W98143  19.208  33.563   8.213 -0.2228  0.0704  0.0209
60650W        W98144  18.663  29.919   8.997  0.2948 -0.2703 -0.0272
60651W        W98145  25.643  22.169   8.026  0.4714  0.0251  0.2606
60652W        W98146  14.528  32.086  23.424 -0.0785  0.1496 -0.1983
60653W        W98147  22.951  28.337   1.000 -0.1113  0.1836  0.0506
60654W        W98148   2.953   8.390  22.289  0.0841  0.5113  0.0899
60655W        W98149  10.592  25.698   6.377  0.1654  0.1337 -0.1277
60656W        W98150  31.449  23.799  17.779 -0.2475 -0.0668  0.1796
60657W        W98151  29.006   7.697   2.648  0.0993 -0.1447 -0.1970
60658W        W98152  25.476  10.522   1.754  0.0342  0.3618  0.0464
60659W        W98153   4.823   2.959  25.908 -0.2809  0.1801 -0.0731
60660W        W98154  25.801  26.068  23.615  0.0581 -0.2446  0.1752
60661W        W98155  12.069  15.809   9.869 -0.0904  0.1652  0.2605
60662W        W98156  28.923  16.537  21.705 -0.0824 -0.2391  0.2421
60663W        W98157  34.391  18.952  18.771 -0.4616 -0.1176  0.3997
60664W        W98158   9.623  19.478  11.688  0.0765  0.0275 -0.1351
60665W        W98159  25.973   1.102  18.976 -0.0746 -0.1215 -0.0207
60666W        W98160  27.757   0.143   1.698 -0.0683  0.0982  0.3005
60667W        W98161   1.880  10.841  18.665  0.1494 -0.3223  0.0512
60668W        W98162  30.023  24.738  13.096  0.0862  0.1452 -0.3916
60669W        W98163   4.719  29.219  23.568  0.0384  0.0110  0.2089
60670W        W98164  32.060   6.311  23.134 -0.0498 -0.0660  0.1391
60671W        W98165  15.810  34.355  24.737 -0.0754 -0.0767  0.4119
60672W        W98166  28.723   7.390   2.428 -0.1894 -0.0526  0.2004
60673W        W98167   1.502  17.165   1.858 -0.1725 -0.1017 -0.0500
60674W        W98168  10.857  28.350   5.943  0.3593 -0.1708  0.2088
60675W        W98169  25.515  11.850  18.572  0.0361 -0.2376 -0.1218
60676W        W98170  16.765  21.936   8.177 -0.0842  0.2282 -0.3208
60677W        W98171  34.568   1.938   0.119 -0.0739 -0.1431 -0.0294
60678W        W98172  31.073   4.426  14.223  0.0329 -0.2228  0.2000
60679W        W98173  35.077  15.483  21.308  0.1356  0.0705  0.1237
60680W        W98174  26.242  33.800  17.655 -0.1455 -0.0919  0.1925
60681W        W98175  23.302  25.735  17.974  0.2725 -0.0745  0.1478
60682W        W98176  16.067  18.461   2.166 -0.3789  0.0328 -0.2670
60683W        W98177  29.616   6.507  11.775 -0.3628 -0.0119  0.1062
60684W        W98178  31.086  32.821  20.851 -0.1933 -0.2731 -0.0742
60685W        W98179  12.316  27.184   6.929  0.0778  0.0074  0.3107
60686W        W98180   8.191   7.889   0.568 -0.1476 -0.0897 -0.0588
60687W        W98181   9.715  33.401   2.645 -0.0180  0.2739  0.0859
60688W        W98182  10.192   3.044   5.317  0.2535 -0.2141 -0.2645
60689W        W98183  14.417   8.052   7.085 -0.2584 -0.0572 -0.3084
60690W        W98184  35.303  20.394   0.703 -0.2355 -0.1075  0.0175
60691W        W98185  16.137  20.086  23.062 -0.0317  0.0203 -0.0772
60692W        W98186   5.410  34.739  12.161 -0.1296  0.2009 -0.1238
60693W        W98187  23.825  15.832  25.638 -0.0299  0.0313 -0.0665
60694W        W98188  22.060  23.410  17.590  0.1837 -0.3441  0.0798
60695W        W98189   6.998  26.216   0.405 -0.2669 -0.0839 -0.0173
60696W        W98190   2.426  32.124   2.500  0.1706 -0.1714 -0.0299
60697W        W98191  25.795  34.386  21.887 -0.1563  0.0139 -0.4394
60698W        W98192  28.733  25.598  26.129  0.0425 -0.3750 -0.1193
60699W        W98193  14.345  33.374   5.597  0.0210 -0.1496  0.3073
60700W        W98194  31.298   0.158  15.738 -0.0600 -0.1073  0.2427
60701W        W98195  29.125   7.531  14.359 -0.0108  0.2395 -0.4117
60702W        W98196  27.454  23.649  13.907  0.0495  0.0979  0.1263
60703W        W98197  14.748  24.285  12.607 -0.2332  0.2687 -0.1925
60704W        W98198  11.049   1.947  13.745 -0.1253 -0.3744  0.1684
60705W        W98199  16.647  33.279  20.116 -0.2239 -0.1236  0.1870
60706W        W98200  34.572  16.200  20.855 -0.0316 -0.0188 -0.0950
60707W        W98201  10.066   1.607  12.564 -0.0774 -0.1292 -0.4215
60708W        W98202   6.862  33.838   7.848  0.3448  0.0880  0.1086
60709W        W98203  34.651  29.007  24.225  0.1002  0.0684  0.0696
60710W        W98204  31.631  24.579  23.370 -0.3310 -0.3607 -0.0813
60711W        W98205  31.217  23.115  22.408  0.1940  0.1766 -0.0848
60712W        W98206   8.836  16.864  20.093 -0.1662 -0.1128  0.2000
60713W        W98207  29.435  30.164   2.637  0.1293 -0.2432 -0.1274
60714W        W98208   3.703  29.530   9.931 -0.1908  0.0682 -0.1766
60715W        W98209  12.383  13.763  13.093 -0.0168 -0.0491  0.0492
60716W        W98210   3.804   8.815  16.450  0.4156  0.3321  0.1839
60717W        W98211  12.109  32.169   8.010 -0.1112  0.3371 -0.1201
60718W        W98212  31.389   4.777  10.591 -0.2517 -0.0524 -0.2859
60719W        W98213   7.573   6.903  19.281 -0.1001  0.0840 -0.0917
60720W        W98214  34.539  20.577  17.159 -0.0208  0.1349 -0.0139
60721W        W98215  24.052  23.429  12.419  0.0833  0.4340  0.1127
60722W        W98216   0.857  22.552  20.428 -0.6076  0.1148  0.0827
60723W        W98217  29.276  29.559   2.539 -0.1337 -0.0787  0.0980
60724W        W98218  27.593  32.988  10.808  0.2484 -0.1563 -0.2693
60725W        W98219  34.637   9.923   1.658 -0.3037  0.0170  0.1439
60726W        W98220   7.892   8.407  25.199 -0.2260  0.1330  0.1563
60727W        W98221   1.882   0.512   9.005  0.1018  0.1532 -0.2482
60728W        W98222  34.149  14.239  12.107 -0.0473 -0.1206 -0.1763
60729W        W98223  29.090  30.310  23.987  0.0646  0.0253  0.0657
60730W        W98224   8.676  18.572  22.000  0.1141  0.0703 -0.0616
60731W        W98225  33.850   8.349   3.345 -0.0472 -0.1040  0.1547
60732W        W98226  29.247   4.680  18.979  0.0274 -0.2541 -0.2226
60733W        W98227  18.927   1.905   9.256  0.1644 -0.2378 -0.4520
60734W        W98228   1.807  24.735   1.467  0.0162  0.1620  0.0269
60735W        W98229  11.822  20.628   0.306  0.2048  0.1067  0.2771
60736W        W98230  35.362  21.767  16.155  0.1595 -0.4136  0.2300
60737W        W98231   2.737   2.202   7.891 -0.1158 -0.3130 -0.1825
60738W        W98232   4.821  18.542   3.248 -0.0597 -0.0547  0.0449
60739W        W98233  34.534  23.278  18.308 -0.0822 -0.2175  0.1134
60740W        W98234  29.863  18.216  17.176 -0.0807  0.1378  0.5053
60741W        W98235   6.621   4.633  20.583 -0.0950  0.0358 -0.0016
60742W        W98236   6.287  12.538   8.756  0.0838  0.1517  0.1376
60743W        W98237  30.435  16.940   8.779 -0.0075  0.3187 -0.1494
60744W        W98238  31.739  30.442   5.387 -0.2968 -0.3015  0.4014
60745W        W98239   6.289  11.664   6.085 -0.3252  0.0013 -0.1525
60746W        W98240  28.038   5.565  18.429 -0.0945 -0.3387  0.1700
60747W        W98241  26.804  16.528  17.545 -0.1097 -0.3828  0.4188
60748W        W98242  11.903  34.502   0.584 -0.0147  0.2267  0.0930
60749W        W98243   5.063  29.025   2.814 -0.0570  0.0206 -0.0580
60750W        W98244   9.560   6.800  14.019  0.0527  0.2885 -0.0957
60751W        W98245   3.697  10.322  14.506 -0.1524  0.1527 -0.2635
60752W        W98246  13.895  23.847  12.769  0.1709  0.0746  0.0826
60753W        W98247   5.318  10.048  20.282  0.2033  0.0020  0.1548
60754W        W98248   0.350  12.768  17.333 -0.1129 -0.0787  0.0632
60755W        W98249   1.137  35.286   2.465 -0.0855  0.0088  0.0919
60756W        W98250  28.430  24.315   7.840 -0.3563 -0.1934 -0.0333
60757W        W98251  14.321  13.536  12.008  0.2358  0.1687 -0.0837
60758W        W98252  18.627  19.360   8.559  0.0745 -0.2119 -0.0488
60759W        W98253   5.098  12.199  20.435  0.3642  0.0372  0.1180
60760W        W98254  13.168   7.041   9.579  0.1631 -0.2720  0.4854
60761W        W98255   9.903  24.598   7.985 -0.0321 -0.1437  0.0278
60762W        W98256  20.311   2.351  21.220 -0.0707 -0.2368  0.0586
60763W        W98257  23.938  17.525  19.345  0.1752 -0.0335 -0.0116
60764W        W98258  16.535   6.655   9.837 -0.0432  0.4151 -0.0612
60765W        W98259  27.958  34.415  23.714 -0.2017 -0.0588 -0.0135
60766W        W98260  34.295   8.282  23.684 -0.1287  0.0667 -0.1294
60767W        W98261  34.134  14.008   9.692 -0.1127  0.0075  0.4316
60768W        W98262  12.699  14.981   3.002  0.0251 -0.1792  0.1358
60769W        W98263  18.525  11.612  18.654 -0.1153  0.0772 -0.1206
60770W        W98264  32.857  18.827  15.078 -0.2820  0.1417  0.1540
60771W        W98265  26.395   0.218   5.868  0.0535 -0.3220  0.1537
60772W        W98266   8.133  25.285  13.680 -0.1132 -0.5434  0.0185
60773W        W98267   7.205   9.686  24.168 -0.0063  0.0983 -0.0908
60774W        W98268   4.031  29.833  24.802  0.1736  0.1844 -0.2228
60775W        W98269  28.420  12.090  20.950  0.1249 -0.1462  0.1253
60776W        W98270  21.422  34.285  14.852  0.0173  0.0977  0.1408
60777W        W98271  30.693  27.842  13.317 -0.0106 -0.1132 -0.1497
60778W        W98272   2.600  32.725   2.333  0.3119  0.1661  0.0509
60779W        W98273  16.269  14.952  11.785  0.1888 -0.2215  0.0830
60780W        W98274  11.027  21.111  13.321  0.2537  0.1371 -0.0170
60781W        W98275  32.982   3.045   6.143  0.1645  0.1797  0.2537
60782W        W98276  14.650  27.594   9.013 -0.0368 -0.0591  0.3542
60783W        W98277  30.288  31.885  18.961 -0.0028  0.0729  0.2310
60784W        W98278   6.338  34.382  20.250 -0.3107  0.1708  0.2995
60785W        W98279   0.385  25.317  21.751  0.1094  0.0500  0.2627
60786W        W98280  29.131   1.287  22.190 -0.1862 -0.0426  0.2010
60787W        W98281   6.237  15.101  18.375  0.0872  0.2428  0.3602
60788W        W98282   6.940  14.171  24.638 -0.1177 -0.0314  0.0236
60789W        W98283  20.052  18.471  17.080  0.1225  0.1439 -0.1449
60790W        W98284   9.686  15.517  22.002 -0.0948  0.0918 -0.0671
60791W        W98285  29.046  34.716   0.062 -0.2173  0.1941 -0.0184
60792W        W98286  33.205  19.151  10.155 -0.1259  0.1401  0.1330
60793W        W98287  33.302  32.970  15.378  0.1264 -0.0922  0.0342
60794W        W98288  16.916  33.525  21.406 -0.2073  0.0924  0.0255
60795W        W98289  31.703  33.081  15.083 -0.0610  0.0082 -0.1048
60796W        W98290   7.280  27.626  10.213  0.0826 -0.0192 -0.0252
60797W        W98291  27.124  18.025  14.053 -0.1544 -0.0859  0.1022
60798W        W98292  29.955  23.466  13.939 -0.1633 -0.1664  0.2263
60799W        W98293  11.259  19.988   0.372 -0.1097 -0.0648 -0.4050
60800W        W98294  24.050  19.926  14.455 -0.2376  0.0752 -0.1566
60801W        W98295   4.851  34.994   1.687  0.0009 -0.0287 -0.1217
60802W        W98296   4.138   7.046  24.502  0.0708  0.3561 -0.3001
60803W        W98297   4.357  28.867  12.732 -0.1850 -0.2480 -0.4583
60804W        W98298   1.476  29.122   0.641  0.1253  0.2016  0.1891
60805W        W98299  12.615  13.409  23.405  0.3610  0.1255 -0.0719
60806W        W98300  24.916  10.711  21.607 -0.2387  0.0462 -0.0565
60807W        W98301  22.450   8.644   2.187  0.0041  0.1436 -0.2846
60808W        W98302  26.855  34.885  14.720  0.2168 -0.2932  0.1303
60809W        W98303  13.602  23.980  13.208  0.3733 -0.0046  0.0717
60810W        W98304  19.298  32.734   2.028 -0.0988  0.0338 -0.0682
60811W        W98305   5.397  11.086   7.947 -0.0705 -0.0397  0.0186
60812W        W98306  18.161  26.210   8.462  0.3046 -0.0998 -0.1563
60813W        W98307  27.962   9.396  16.919  0.1192  0.0766 -0.1398
60814W        W98308   5.724   7.179   4.541  0.1875  0.0687  0.3354
60815W        W98309  27.733   9.861   0.402 -0.0803 -0.1600  0.4631
60816W        W98310  28.922  15.251  25.554 -0.0691  0.1167  0.0370
60817W        W98311   0.949  31.470   2.133 -0.1836  0.1759 -0.2343
60818W        W98312  25.099  24.777  22.007  0.0780  0.5394  0.0730
60819W        W98313  10.386   3.575   7.354  0.1579 -0.3459  0.0653
60820W        W98314   0.940  12.881   0.708  0.0744  0.3956 -0.0663
60821W        W98315  21.216  29.770  20.168 -0.1783  0.3869  0.0460
60822W        W98316   1.988   6.291   4.407  0.2457 -0.2700 -0.3337
60823W        W98317  15.039  24.944   2.231 -0.2783 -0.3828 -0.0116
60824W        W98318   7.818  26.263   6.475  0.2152 -0.1415 -0.2920
60825W        W98319  28.506   4.826  22.702 -0.3409 -0.1111  0.0817
60826W        W98320  31.970  20.696  10.306  0.1060 -0.2442  0.1212
60827W        W98321  28.345  27.738  24.477 -0.0082 -0.4243 -0.0629
60828W        W98322   7.765   7.155  10.329 -0.2472  0.1129  0.3049
60829W        W98323  31.884   8.903  10.338 -0.2203 -0.1826  0.2142
60830W        W98324   8.318   7.713  18.733 -0.3002  0.3159  0.0710
60831W        W98325  26.475  32.476  18.661 -0.2036 -0.0274 -0.0022
60832W        W98326  26.698  13.604  12.376 -0.1106  0.0973 -0.0554
60833W        W98327  28.161  29.634  20.130 -0.2507  0.3415 -0.1130
60834W        W98328  12.276   1.283  23.564  0.0570  0.2081 -0.0300
60835W        W98329  19.912  10.439  21.427  0.1634  0.1012  0.1708
60836W        W98330  10.877  19.202  22.765 -0.0904  0.2363 -0.1330
60837W        W98331  34.989   3.310   0.713  0.2212  0.1415 -0.1088
60838W        W98332  21.367   7.986  20.734  0.1548 -0.2315  0.2639
60839W        W98333   3.716  27.684   9.900 -0.1913  0.1003 -0.5498
60840W        W98334  27.873   1.485  14.599  0.3498  0.2658 -0.1828
60841W        W98335  15.281  25.795  15.009 -0.3268  0.0880  0.1261
60842W        W98336  33.948  20.939   7.400  0.1425  0.1029  0.1999
60843W        W98337   6.773   4.223  18.431 -0.1941 -0.2125 -0.2314
60844W        W98338  12.443  14.135   9.238  0.0032  0.0513 -0.0169
60845W        W98339   2.093  34.097  19.519 -0.0057  0.2174 -0.0866
60846W        W98340  29.011  23.173  23.512 -0.0479 -0.1808 -0.0324
60847W        W98341  27.533  15.818  16.459  0.2350 -0.2123  0.0085
60848W        W98342  11.790   1.056   6.609  0.2623  0.2116 -0.0080
60849W        W98343  29.205  15.476  15.575 -0.3927  0.2051 -0.1498
60850W        W98344  15.921  18.439  13.613 -0.0253  0.0703  0.0252
60851W        W98345  32.887  23.683  11.631  0.1985 -0.0326 -0.0057
60852W        W98346   5.408  19.477   5.067  0.2188  0.1540  0.0848
60853W        W98347   4.211  14.316  22.002 -0.0632  0.3436 -0.0227
60854W        W98348  35.360  20.467  13.415 -0.1751  0.2231 -0.0058
60855W        W98349  30.756  34.674   0.927 -0.1889  0.0787 -0.1742
60856W        W98350  12.083  12.726  10.795  0.1825 -0.0464 -0.1393
60857W        W98351  18.051  10.302  25.710  0.0676 -0.0876  0.1005
60858W        W98352   0.806  28.028  25.936 -0.0209 -0.2814 -0.2845
60859W        W98353  26.384   2.970   5.897  0.2935 -0.0948 -0.0401
60860W        W98354  11.721  30.043  10.316 -0.0440 -0.3860 -0.1342
60861W        W98355   7.418   4.497  11.294 -0.1300 -0.0874 -0.2708
60862W        W98356  29.744  24.266  15.729 -0.5083  0.0873 -0.0097
60863W        W98357  10.721  24.085   7.491 -0.1105  0.0774  0.1162
60864W        W98358  10.454   2.173   2.786  0.2702  0.2146  0.1078
60865W        W98359  12.327  23.615   2.479  0.0293  0.0378 -0.0162
60866W        W98360  26.644  13.316  21.328 -0.1706 -0.0188  0.0061
60867W        W98361  19.101  30.753   4.985  0.3435  0.0013  0.2114
60868W        W98362  34.483  16.893   9.650 -0.0280 -0.0495 -0.0866
60869W        W98363  24.863   2.586  18.376  0.2417 -0.0144 -0.0704
60870W        W98364  11.038  28.172  24.839  0.1814 -0.2080  0.1045
60871W        W98365  20.973  12.326  20.017 -0.0180 -0.1114 -0.3286
60872W        W98366   1.522   2.752   4.396  0.1505  0.0345 -0.0540
60873W        W98367   7.783  21.282   6.682  0.0839 -0.0532 -0.1936
60874W        W98368  33.615  10.053  18.570 -0.2027  0.2115  0.0616
60875W        W98369   4.500   3.708   3.826  0.2319 -0.1621  0.1850
60876W        W98370  29.649  26.800  21.287 -0.0001 -0.1316  0.1732
60877W        W98371  31.619  15.003  26.192 -0.1179 -0.1805 -0.1009
60878W        W98372  34.077  12.833   0.224  0.3868 -0.0987  0.2349
60879W        W98373  26.904  27.726   9.353  0.1180  0.0391 -0.2182
60880W        W98374  35.114  28.417   0.431 -0.0332  0.0509  0.0745
60881W        W98375   3.945  18.189  25.988 -0.0580 -0.1740 -0.0499
60882W        W98376  30.160  32.514  25.405  0.0889 -0.4138  0.1093
60883W        W98377   0.357  22.836  25.187 -0.0256 -0.1594  0.2209
60884W        W98378  22.500  17.396  16.537  0.2270  0.2952  0.0953
60885W        W98379   6.854  13.893  11.563  0.1893  0.0289  0.1992
60886W        W98380   1.503  12.710  15.390  0.2004 -0.1095  0.3741
60887W        W98381  29.262  27.759  23.104 -0.0153 -0.0734  0.3528
60888W        W98382  17.010  24.284   2.210 -0.4578  0.0603 -0.3314
60889W        W98383  31.132  15.598  12.071  0.1405 -0.1986  0.1244
60890W        W98384  22.126   7.447   6.391  0.1310  0.1414 -0.0093
60891W        W98385  32.356   9.231  19.697 -0.0233  0.1730  0.3416
60892W        W98386  10.023  26.237  11.870  0.1075 -0.1604 -0.3976
60893W        W98387   3.302   4.049  23.327 -0.1998  0.0599 -0.1417
60894W        W98388  31.502  29.547   3.045  0.0966 -0.2360  0.0831
60895W        W98389  18.417  23.118  20.849 -0.1758  0.1042 -0.0818
60896W        W98390  16.458  11.524   7.496  0.3350 -0.0329 -0.0080
60897W        W98391   5.895  16.767   5.659 -0.2921 -0.1931 -0.1276
60898W        W98392   4.079  29.246   2.355  0.0974  0.1219 -0.0593
60899W        W98393  10.648  14.933  23.892 -0.0716 -0.1985  0.1516
60900W        W98394   9.290  12.720   8.966 -0.2743 -0.0155 -0.0967
60901W        W98395  18.145   2.952   9.778  0.0556  0.0824 -0.1384
60902W        W98396  16.104  10.102  24.433  0.0481 -0.0377 -0.2124
60903W        W98397  28.938  19.280  18.113 -0.1966 -0.2753 -0.1336
60904W        W98398   1.868   6.508   5.541  0.1605  0.1275  0.1670
60905W        W98399  24.039  34.171  23.790  0.1742  0.1299 -0.0141
60906W        W98400  22.975  12.295  20.988 -0.3237 -0.1370  0.2414
60907W        W98401  33.951   8.972  21.241 -0.1671  0.2988  0.2060
60908W        W98402   8.770  21.508   3.247 -0.1044  0.1049  0.1632
60909W        W98403  34.092  25.938  11.604  0.0874 -0.3810  0.5071
60910W        W98404   7.218  27.177  24.298 -0.2139 -0.0905  0.1044
60911W        W98405   2.154   7.715  24.274  0.0874 -0.0034  0.0227
60912W        W98406  17.860   0.427  19.215 -0.0131  0.2532  0.2514
60913W        W98407  16.456  20.446   2.584  0.3624 -0.0700  0.0976
60914W        W98408  33.862  25.477  13.485  0.1926  0.1273 -0.1519
60915W        W98409  26.452  30.317  21.422 -0.0027 -0.0309  0.1598
60916W        W98410   7.664  32.067  24.231  0.3991 -0.0875  0.2067
60917W        W98411  30.846  21.862  12.580 -0.1406 -0.2692 -0.0451
60918W        W98412  30.736  33.248  17.169 -0.4264  0.0527  0.4410
60919W        W98413  25.017  25.856  21.127 -0.0714 -0.0608  0.1610
60920W        W98414  21.624   3.446  17.500  0.0137 -0.3156 -0.0375
60921W        W98415  11.962  16.360   1.584  0.0202 -0.1853  0.2207
60922W        W98416   1.433  21.010  16.812 -0.0021  0.4423  0.1521
60923W        W98417  32.965   2.582  22.800  0.3142  0.3458  0.3322
60924W        W98418  21.529   5.671  25.552 -0.0223 -0.1614  0.2887
60925W        W98419  17.043  16.107   9.427  0.1655  0.0469  0.3158
60926W        W98420   8.322  32.221   4.886  0.0582  0.0954  0.2862
60927W        W98421  17.233   6.435  22.695 -0.1140 -0.1239 -0.0275
60928W        W98422  14.624  25.522  15.487  0.0433  0.0139  0.1706
60929W        W98423  32.419  21.406  24.944  0.0781  0.0791 -0.1635
60930W        W98424   5.388  13.782   5.597  0.2438 -0.0985 -0.1953
60931W        W98425  10.318  28.432  16.180 -0.3150  0.1256  0.2227
60932W        W98426   8.402   5.412   3.901  0.2074 -0.0319  0.3084
60933W        W98427  25.719  16.781  11.488  0.0352  0.0887  0.0067
60934W        W98428   4.865  13.877   5.580  0.0932 -0.0414  0.0291
60935W        W98429  25.634  10.559  25.697  0.0233 -0.4064 -0.1110
60936W        W98430  16.643  31.340  19.048  0.1386  0.1370 -0.2414
60937W        W98431  30.277   7.925  16.727 -0.1632  0.2674 -0.2919
60938W        W98432  29.693  17.727  13.310 -0.1554 -0.3084 -0.3420
60939W        W98433  17.341  14.783   5.029  0.0142 -0.0855  0.1607
60940W        W98434  31.082   2.998   3.445 -0.2526 -0.1365 -0.2275
60941W        W98435  17.362   2.573   7.235 -0.0626 -0.1157  0.0133
60942W        W98436  10.810  26.662  24.930 -0.1899  0.1671  0.2506
60943W        W98437   4.433  26.623   5.216 -0.2098  0.1299  0.0420
60944W        W98438   4.690  19.865  23.561  0.2332  0.2168  0.2223
60945W        W98439  16.425  31.424   9.918  0.2110 -0.1145 -0.1386
60946W        W98440  33.330  10.389  18.275 -0.4189 -0.0152 -0.2243
60947W        W98441  10.468   5.484  13.774  0.1137 -0.0503 -0.1641
60948W        W98442   5.337   7.190  25.882  0.0744 -0.2867  0.2145
60949W        W98443  15.012  20.768  11.385 -0.3272  0.2341  0.1585
60950W        W98444   7.250  28.231  14.530 -0.3101 -0.0407 -0.0664
60951W        W98445  15.220  24.901  25.044 -0.0108  0.1367  0.1736
60952W        W98446  24.969  25.410  25.587 -0.2290  0.0114 -0.0141
60953W        W98447   3.714   4.012   5.857 -0.4918 -0.3334 -0.0506
60954W        W98448  30.903  33.372   2.047  0.1244 -0.1637  0.1694
60955W        W98449   8.339  19.863  12.764 -0.0121 -0.0184 -0.0014
60956W        W98450  26.501  15.104   6.222  0.3058  0.0670 -0.1837
60957W        W98451  23.634  14.728   1.704  0.1166 -0.1375 -0.2349
60958W        W98452  29.712  31.614   5.060  0.2152 -0.3231 -0.1118
60959W        W98453   5.202   1.309  23.003  0.2014 -0.0865 -0.0249
60960W        W98454   4.301  34.201  21.886 -0.5535  0.0976 -0.4389
60961W        W98455  20.362  22.765   2.586  0.3817 -0.1876  0.0498
60962W        W98456  19.283   2.008   5.343  0.3193  0.3274 -0.1175
60963W        W98457  18.647  18.154   7.051 -0.1814  0.0613  0.0688
60964W        W98458   5.005  15.761   6.511 -0.0496 -0.2685 -0.0452
60965W        W98459  15.732  28.528   5.607  0.0796 -0.1795 -0.1011
60966W        W98460   4.711  10.164  20.274 -0.4615 -0.0827 -0.3008
60967W        W98461  20.370   7.537  10.231  0.1211  0.0100 -0.3803
60968W        W98462  28.520   1.446   2.733 -0.4365  0.1523  0.0281
60969W        W98463  13.121  23.595  11.749  0.2053 -0.0606 -0.0532
60970W        W98464   8.348  13.805  10.627  0.2158  0.1526  0.0093
60971W        W98465  15.431  24.147  25.930 -0.0820 -0.2111  0.1250
60972W        W98466   9.495   1.295  22.137 -0.1054  0.2331 -0.0744
60973W        W98467  15.486  12.649   0.199 -0.0030 -0.3661  0.2806
60974W        W98468  29.805  16.844  21.374  0.2649  0.1875  0.0785
60975W        W98469   5.602  35.071  24.130 -0.1071 -0.0944 -0.0304
60976W        W98470  11.176   9.460  12.817 -0.1168  0.3553 -0.0217
60977W        W98471   6.398  15.370  20.635 -0.1704  0.0513  0.1991
60978W        W98472  11.713  15.493  21.006  0.3613  0.1473 -0.1711
60979W        W98473  15.025  34.119  12.528 -0.0211  0.2498  0.1689
60980W        W98474  26.134  14.306  20.328 -0.0707  0.4451  0.2357
60981W        W98475   2.506  11.016  25.590 -0.0398 -0.0282  0.0040
60982W        W98476  14.539  27.150  23.301  0.2281  0.1932 -0.0350
60983W        W98477   1.977  23.484  25.535  0.1713  0.0859  0.1474
60984W        W98478   3.552   8.985   2.568  0.3744 -0.0870  0.3347
60985W        W98479   4.939  10.799   2.755  0.1112 -0.4094  0.0878
60986W        W98480  28.499  13.010  12.584  0.5787 -0.0990  0.0080
60987W        W98481  11.674  18.064   5.548 -0.1677  0.0669 -0.0853
60988W        W98482   7.708  33.934  24.045  0.1821  0.1663 -0.1496
60989W        W98483  23.927   8.666  18.980 -0.1230 -0.0522 -0.0808
60990W        W98484  18.835  31.225   2.447 -0.0418 -0.2572 -0.0881
60991W        W98485  13.397   5.219   7.290 -0.1436  0.0802  0.0099
60992W        W98486  16.481   7.443  18.054 -0.1837 -0.0168  0.0323
60993W        W98487   1.697  15.729  18.980 -0.2878 -0.1702 -0.3153
60994W        W98488  31.371  15.858  13.003 -0.0740  0.0277 -0.0037
60995W        W98489  24.420  17.447  24.823 -0.1672 -0.0662 -0.0122
60996W        W98490  22.102   8.877  21.700  0.3642  0.1522  0.0187
60997W        W98491  13.954  25.029   6.457  0.0880  0.0903 -0.3069
60998W        W98492  23.260   7.556  21.253 -0.2276 -0.3736 -0.0115
60999W        W98493  14.885  27.610   6.124 -0.0125 -0.0573  0.1590
61000W        W98494  25.962  26.441  13.900  0.1602 -0.2214 -0.0900
61001W        W98495  15.335  27.906   0.402  0.0247  0.0962  0.2272
61002W        W98496  32.101   2.478  15.431  0.0134 -0.2033 -0.1960
61003W        W98497  15.212  28.735  22.624 -0.0749  0.2016 -0.0263
61004W        W98498  34.553  10.956  13.349 -0.1968 -0.0315  0.2643
61005W        W98499  18.752  28.121   6.673 -0.2131  0.2266 -0.0635
61006W        W98500  14.992  16.005  25.787  0.0235  0.1758 -0.1874
61007W        W98501  33.928  10.604  11.958  0.0921  0.1392  0.0547
61008W        W98502  22.458   3.349  21.677  0.3845 -0.0556  0.0520
61009W        W98503  30.221  10.321  20.224  0.1410 -0.3546  0.5146
61010W        W98504  34.797  29.002  23.685  0.1059 -0.1495  0.0118
61011W        W98505   4.930  35.312  21.389  0.0077  0.1304 -0.0148
61012W        W98506  23.770  30.727  15.633  0.1291  0.0954  0.1686
61013W        W98507  19.934   2.792   4.874  0.0358 -0.1903  0.5217
61014W        W98508  27.321  34.934   0.256 -0.0125  0.2377  0.1381
61015W        W98509   0.786  25.708  20.529 -0.1702 -0.0738  0.0244
61016W        W98510   8.924  18.583  24.125 -0.3627  0.0641  0.1255
61017W        W98511  11.217   4.164  20.487 -0.0323  0.0599 -0.0746
61018W        W98512   0.183  29.462   7.744  0.1265  0.4403  0.1217
61019W        W98513  11.388   5.370   5.200  0.0174  0.2781 -0.1829
61020W        W98514  18.730  26.388   1.972 -0.3247 -0.2425 -0.0172
61021W        W98515  14.506  19.733  23.008 -0.0102  0.2428  0.1492
61022W        W98516  20.972  14.210   3.305  0.0260  0.0625  0.2086
61023W        W98517  10.689  12.360  13.096 -0.0511  0.1595 -0.0094
61024W        W98518  12.591  12.170   8.916  0.0490  0.1647  0.1554
61025W        W98519   9.983  33.482  13.208  0.0511  0.0090 -0.0389
61026W        W98520  22.799   2.614  22.792 -0.2528  0.0957 -0.0200
61027W        W98521  12.481   8.739  11.717 -0.3028  0.2466  0.0594
61028W        W98522   9.279  14.279   0.253 -0.0007 -0.2308 -0.1019
61029W        W98523  12.996  20.253   5.079  0.2021 -0.3361  0.0389
61030W        W98524  30.536  24.793   9.572 -0.2140  0.0864  0.3030
61031W        W98525   1.700  27.793   4.352  0.0530 -0.1443  0.0414
61032W        W98526   3.962   8.654   3.339  0.2498 -0.1696 -0.0570
61033W        W98527  27.407   7.448  25.322  0.0182 -0.1783  0.1176
61034W        W98528   4.453  23.523  22.333  0.0971 -0.0681  0.1891
61035W        W98529  21.282   7.333   7.756  0.0038 -0.1549 -0.0983
61036W        W98530  17.753  33.741   0.014  0.0531 -0.1319  0.1563
61037W        W98531   9.472  27.294  15.030  0.3978  0.0404 -0.4204
61038W        W98532  33.324  22.000   9.430  0.0751  0.2480 -0.3969
61039W        W98533  26.747  26.300   9.259  0.0947 -0.1468 -0.0716
61040W        W98534  20.974  30.955   0.177  0.3467  0.1153 -0.0330
61041W        W98535  28.455  11.026  23.884 -0.2162 -0.1544 -0.1413
61042W        W98536  21.736   2.151   7.518 -0.6321 -0.1796  0.0523
61043W        W98537  32.788  29.197  25.872  0.1459  0.2990 -0.0814
61044W        W98538  11.682  20.397   7.773  0.0744 -0.0796  0.3776
61045W        W98539  33.836   5.579  16.043 -0.3293 -0.1549  0.0360
61046W        W98540   5.519  12.980   7.916  0.1064  0.1509  0.2836
61047W        W98541  14.488  22.713   0.007 -0.1329  0.1031  0.4095
61048W        W98542  28.600   6.532   1.716 -0.2403 -0.0895 -0.0868
61049W        W98543  10.674   9.230   2.804 -0.0989  0.1126 -0.0128
61050W        W98544   9.339  12.026  10.341  0.2481  0.1066 -0.1214
61051W        W98545  29.712  11.429  20.865  0.1663 -0.0273  0.0156
61052W        W98546  17.123  13.495   4.053  0.0134 -0.2717 -0.1489
61053W        W98547  24.767  20.058  19.206 -0.1226  0.2789  0.0018
61054W        W98548  11.047  21.376  15.310  0.0093  0.2368  0.3310
61055W        W98549  16.715  21.514   1.039  0.3460 -0.0162  0.0354
61056W        W98550  31.312  31.736  17.557  0.1498  0.1759 -0.3562
61057W        W98551  10.753  33.728  20.575 -0.0129 -0.2006 -0.1568
61058W        W98552  24.260   8.204  21.221 -0.3525 -0.1464  0.0595
61059W        W98553  26.406   4.522  20.278 -0.2187 -0.1620  0.1735
61060W        W98554  23.801  11.899  20.769  0.2112  0.2790  0.0466
61061W        W98555   0.384  17.471  15.078 -0.2459 -0.1024 -0.1471
61062W        W98556  22.014  21.293  20.482  0.0551 -0.0395  0.0913
61063W        W98557   8.324  11.731  18.191 -0.0294  0.1838  0.3212
61064W        W98558  18.717  22.023   5.868 -0.3012 -0.0817  0.1836
61065W        W98559  16.337   3.888  25.106 -0.2661 -0.4693  0.1547
61066W        W98560  33.458  32.174  13.269  0.3943 -0.1124 -0.1001
61067W        W98561  26.448   3.937   4.186  0.1065 -0.4106 -0.1202
61068W        W98562  13.951  31.243   7.414 -0.0176 -0.1648  0.3780
61069W        W98563   6.434   9.459   9.625  0.1355  0.1394 -0.0537
61070W        W98564  10.464  25.159  10.106 -0.0062  0.0032 -0.1262
61071W        W98565  33.792  23.414  15.432  0.3100  0.0348 -0.0053
61072W        W98566   8.400  12.882  25.954 -0.2672  0.3355  0.1387
61073W        W98567   7.759  32.754  24.655 -0.1648  0.1498 -0.1048
61074W        W98568  16.771   5.571  25.931  0.0122  0.0436 -0.2698
61075W        W98569  12.992  22.821  12.181  0.0950 -0.3410 -0.3518
61076W        W98570   5.675  22.684  24.486 -0.0046  0.1952 -0.1358
61077W        W98571  31.196  19.963   9.098 -0.0370 -0.2432 -0.2986
61078W        W98572   8.111  31.515   9.643 -0.1790  0.2145 -0.2046
61079W        W98573   4.715  32.421   0.633 -0.1448  0.3933  0.2580
61080W        W98574  32.439  15.434   9.492  0.1627 -0.0059  0.2526
61081W        W98575  27.817   4.897  10.522 -0.1665  0.0701  0.2514
61082W        W98576  19.900   1.693  17.640 -0.2406  0.6436  0.1835
61083W        W98577   8.296   9.213  22.969  0.2664 -0.1755 -0.1887
61084W        W98578  31.867  16.148  17.464  0.1321 -0.2470 -0.0125
61085W        W98579  20.659  19.326  25.340  0.1780 -0.0680  0.3040
61086W        W98580  29.599  19.340   5.138 -0.0046  0.1012 -0.2381
61087W        W98581  14.999   0.712   0.907  0.0272 -0.0159 -0.1693
61088W        W98582  30.480   6.417   1.849 -0.0593 -0.2207  0.0185
61089W        W98583  18.856  14.785  11.057  0.0518  0.0716  0.0686
61090W        W98584  17.688  22.980   9.707  0.1659  0.0108 -0.0656
61091W        W98585  20.968   3.590  19.415  0.1180  0.0873  0.1027
61092W        W98586  17.255   9.677  24.799  0.0114  0.1300 -0.2061
61093W        W98587  24.163  25.995   9.699 -0.1067 -0.4116 -0.1680
61094W        W98588  33.090  34.316   5.948 -0.1092  0.0416  0.0503
61095W        W98589  13.996   8.202  25.112  0.2208  0.2297 -0.1470
61096W        W98590   1.279   4.313   6.654 -0.0647  0.2895 -0.3809
61097W        W98591  12.065   8.417  23.067 -0.0485 -0.0447  0.4083
61098W        W98592  26.458  18.472  13.667 -0.1061  0.0234 -0.0468
61099W        W98593  30.905  23.083   5.909 -0.1746  0.1362 -0.5480
61100W        W98594   4.545  33.795   7.489 -0.2689  0.0941 -0.0912
61101W        W98595  34.533  33.876   8.676  0.1534 -0.3274  0.1665
61102W        W98596  23.793   7.046   4.925  0.0620 -0.3625  0.2437
61103W        W98597  33.718   4.094  24.979 -0.1350 -0.1217 -0.2401
61104W        W98598  25.646  19.003  20.439 -0.1497  0.0670 -0.1208
61105W        W98599  21.448  14.503   1.778 -0.0235  0.2498 -0.0929
61106W        W98600  11.627  12.181   5.677 -0.1408 -0.1958 -0.1983
61107W        W98601  12.244   5.784   3.656  0.1687 -0.0835 -0.0423
61108W        W98602  29.209  12.646  22.472 -0.0913  0.0896 -0.1497
61109W        W98603   3.520   0.023   6.407  0.0627 -0.0082 -0.2115
61110W        W98604  12.878  15.610  26.135 -0.2055 -0.2871  0.1267
61111W        W98605  30.342   6.411   3.175 -0.4172  0.1678  0.2513
61112W        W98606  13.766   2.666  25.840 -0.3200 -0.2957  0.3120
61113W        W98607   0.475  19.612  21.943 -0.1109  0.2485 -0.2476
61114W        W98608  23.881  28.866  18.631  0.2479  0.0307  0.2240
61115W        W98609   7.824  20.609   9.578  0.0815  0.1669  0.2183
61116W        W98610  29.380   2.735  15.012  0.0754 -0.1830  0.2757
61117W        W98611  21.009  34.700  16.527  0.0255  0.2001 -0.0139
61118W        W98612  18.259  10.840   7.030  0.0938 -0.0157  0.1175
61119W        W98613  32.113   3.784  15.170  0.0127 -0.3335  0.0683
61120W        W98614  22.136   0.439  26.044 -0.1754  0.0638 -0.3454
61121W        W98615  11.442  29.483   1.727  0.0265  0.2755  0.0098
61122W        W98616  12.649  12.375   7.852 -0.0436 -0.0763  0.0119
61123W        W98617  31.747  10.367   7.449 -0.0238 -0.0480  0.0983
61124W        W98618  19.865   0.729   6.114 -0.2685 -0.2565 -0.0538
61125W        W98619   0.560  31.806  21.018 -0.0038 -0.2838  0.1348
61126W        W98620   8.818  30.748  22.566  0.0845 -0.4138  0.2027
61127W        W98621  33.411  11.352  24.125  0.1381 -0.0301 -0.1535
61128W        W98622  20.731  11.560   7.585 -0.3298 -0.0388  0.0366
61129W        W98623  17.980   5.013  19.900  0.0070  0.0717  0.1290
61130W        W98624  28.347  15.469  22.521 -0.3457 -0.0071  0.0219
61131W        W98625  14.537  35.105  26.023 -0.0470 -0.0318 -0.1044
61132W        W98626   5.758   0.981  20.028 -0.0843 -0.0256 -0.0054
61133W        W98627  23.252  25.122  19.488  0.3499  0.2714 -0.3188
61134W        W98628  26.293  28.094   2.752  0.0988  0.0318  0.0503
61135W        W98629  23.578  31.554  22.157 -0.2339 -0.0615 -0.1013
61136W        W98630   0.729   7.865  26.157  0.2489 -0.0393  0.1166
61137W        W98631  18.657  21.459   2.979 -0.0172 -0.2605  0.2760
61138W        W98632  19.341  28.454   3.546  0.2496  0.1807 -0.2088
61139W        W98633   2.902   3.271  23.008  0.1042 -0.0008 -0.0931
61140W        W98634  28.970  16.521   6.172  0.0515 -0.2128  0.1568
61141W        W98635  26.678   7.984  24.640 -0.0863 -0.0059  0.0833
61142W        W98636  31.083  32.169  17.985  0.0801 -0.1397  0.0465
61143W        W98637  29.784  29.365   1.234  0.2801 -0.0883 -0.1198
61144W        W98638  20.298  33.940  22.855 -0.0609  0.3793 -0.1935
61145W        W98639   9.603  22.306   4.990 -0.2202  0.1547 -0.2062
61146W        W98640  32.653  18.438  20.645 -0.3367 -0.0484 -0.0015
61147W        W98641   9.433  22.169   2.342  0.3898 -0.2118  0.1598
61148W        W98642  20.538   0.315  16.364  0.3493  0.2747 -0.0747
61149W        W98643  35.375   4.325  19.666  0.4061  0.0262 -0.3310
61150W        W98644  31.666  11.546  16.783 -0.1733  0.2086  0.0280
61151W        W98645  34.248  22.354   9.491  0.0148  0.0561  0.1153
61152W        W98646   3.003  28.538   2.473 -0.0604  0.0081 -0.3147
61153W        W98647   6.186  19.390  24.335 -0.2333  0.1960  0.0947
61154W        W98648  35.097   8.320  12.725  0.0910 -0.2569  0.3115
61155W        W98649  20.379  25.609   3.062  0.1441  0.1248 -0.1275
61156W        W98650  18.442   6.549   6.708  0.1279  0.1581  0.2077
61157W        W98651  15.944   2.269   9.743 -0.2694  0.0277  0.2511
61158W        W98652   9.883  23.355  14.343  0.1781 -0.0215 -0.0674
61159W        W98653   0.773  22.376   0.845 -0.0034 -0.0686 -0.0975
61160W        W98654   4.880  18.225   4.034 -0.0101  0.0018  0.1887
61161W        W98655  22.656  15.103  14.780 -0.0972 -0.0363 -0.1261
61162W        W98656  14.988   4.803  25.602  0.0960  0.1228  0.0612
61163W        W98657  35.001  28.520  22.358  0.0021 -0.0681  0.0023
61164W        W98658   1.562  25.049  17.944 -0.1692 -0.1340 -0.1172
61165W        W98659  19.958   8.484  25.218  0.1578  0.1545  0.0234
61166W        W98660  33.079  15.922  25.167  0.2389  0.0394  0.0981
61167W        W98661  11.197   0.673  21.955  0.0918 -0.3684 -0.7519
61168W        W98662  14.537  25.991  25.006  0.1567 -0.1112 -0.2206
61169W        W98663  35.315  24.495  26.223  0.0476 -0.0997  0.0295
61170W        W98664   8.170  26.201  24.429 -0.1350  0.0636  0.1853
61171W        W98665   6.422  33.767  10.934 -0.1266  0.0126 -0.0520
61172W        W98666   2.438  21.613  25.978 -0.3428 -0.3957  0.1614
61173W        W98667   8.025   0.327  25.278 -0.1309  0.1275 -0.2215
61174W        W98668  17.636   8.505   8.781 -0.1635 -0.1493 -0.0367
61175W        W98669  14.724  27.806  24.897 -0.1562  0.1472  0.1105
61176W        W98670  29.788  24.131  20.963 -0.0885 -0.2215  0.4505
61177W        W98671  20.630  33.193  14.945 -0.0581 -0.0174 -0.1258
61178W        W98672  10.086   6.391   5.135  0.3991 -0.0481  0.0743
61179W        W98673  20.632  18.503  16.160 -0.1481 -0.0970  0.0443
61180W        W98674   7.435  34.324   2.534 -0.0420 -0.1355  0.2243
61181W        W98675  22.190  29.244  18.984 -0.0197 -0.1390  0.1601
61182W        W98676  11.253  28.963   1.931 -0.2928 -0.1392  0.2109
61183W        W98677  34.494  10.696  18.415 -0.0920  0.1411 -0.1017
61184W        W98678   4.432  11.311  15.043  0.1211 -0.1954 -0.0741
61185W        W98679  25.490  29.553  17.813 -0.2171  0.1681  0.0955
61186W        W98680  15.790   7.445   1.291 -0.0494  0.1024 -0.0254
61187W        W98681  11.056  12.072  25.273 -0.0459  0.0876 -0.0280
61188W        W98682  12.962   8.946  19.914  0.1482  0.0118  0.1766
61189W        W98683  15.173   5.915   2.489 -0.0587 -0.1222  0.0933
61190W        W98684  24.112   4.269   2.225 -0.0672  0.2065 -0.1539
61191W        W98685  35.194  30.542  21.536 -0.0541  0.2690  0.2480
61192W        W98686  24.335   8.231  17.922  0.0653  0.1460  0.1471
61193W        W98687  33.808  11.292  18.399 -0.1537  0.0864  0.2800
61194W        W98688   9.264  15.288   6.035  0.0190  0.1435  0.2996
61195W        W98689  14.639  24.186  10.897  0.0990 -0.0402 -0.1368
61196W        W98690  16.792  11.283  10.574 -0.0588  0.1434 -0.1428
61197W        W98691   2.190  33.452  22.737  0.2507  0.0289  0.0931
61198W        W98692  12.395  31.217   2.585 -0.0420 -0.0634 -0.1211
61199W        W98693  17.018   8.950   4.419  0.1486  0.0886  0.2015
61200W        W98694   0.106  33.471  23.056 -0.1185 -0.0323  0.0424
61201W        W98695  10.040   7.339  11.314 -0.0255 -0.0454  0.2298
61202W        W98696  29.689  11.228  23.607  0.0854  0.2118 -0.0518
61203W        W98697  10.623  34.674  24.199 -0.0322  0.0959 -0.0797
61204W        W98698  33.850  34.367   0.586 -0.0838  0.0919 -0.0545
61205W        W98699   1.133   0.494   1.735  0.0564  0.1411  0.0715
61206W        W98700  10.156  25.394   6.174  0.1923 -0.3643 -0.2225
61207W        W98701  16.550  22.570  15.585  0.0931  0.0288 -0.3478
61208W        W98702  12.789   6.707  12.705  0.1852  0.0175  0.1854
61209W        W98703  31.041  21.487   5.914 -0.1751  0.1794 -0.1794
61210W        W98704  25.381   1.422  20.148  0.2746 -0.0296 -0.2982
61211W        W98705  12.574  16.288   2.694  0.3471  0.0545 -0.1234
61212W        W98706  20.384  29.481   7.655  0.0170  0.1532  0.0624
61213W        W98707   4.159   4.172   1.726 -0.1372 -0.0853 -0.1970
61214W        W98708  29.590  33.638  25.390 -0.4722  0.0912 -0.0248
61215W        W98709  11.429   2.910  12.370  0.0788  0.1327  0.2515
61216W        W98710  26.050  21.187  10.483  0.0345 -0.1591 -0.1264
61217W        W98711  30.893  10.056  20.178  0.3641 -0.0041 -0.0071
61218W        W98712   9.396  31.291  25.550  0.0670 -0.0265  0.1567
61219W        W98713  27.657  21.895  20.264 -0.1821  0.1108  0.1248
61220W        W98714  19.764  12.800  25.370 -0.1762 -0.3383  0.1079
61221W        W98715  26.483  30.099  22.173 -0.0151 -0.1548  0.1708
61222W        W98716  26.011  12.539   9.720 -0.0354  0.0001  0.2125
61223W        W98717  14.747  24.735   9.194 -0.1735  0.2188  0.1686
61224W        W98718  12.106  28.170  12.189 -0.1926  0.0071  0.1896
61225W        W98719  13.324   9.076   5.770 -0.3925  0.2587 -0.0442
61226W        W98720  34.294   4.974  22.401  0.0774  0.0403 -0.0016
61227W        W98721   1.572  23.169  20.271 -0.0131 -0.0127  0.0617
61228W        W98722   0.497   4.833   2.140 -0.4168 -0.1073 -0.0806
61229W        W98723   5.683   6.676  24.224 -0.2481  0.0328 -0.1649
61230W        W98724   4.308  29.498  20.761  0.2202 -0.1701 -0.3683
61231W        W98725  19.171  22.313   6.326 -0.0987 -0.0501  0.0767
61232W        W98726  24.105  11.979  24.408  0.0268  0.1529 -0.0060
61233W        W98727  16.218  34.370   8.536 -0.0506  0.1291 -0.5032
61234W        W98728   7.914  14.158   9.302  0.3436 -0.0660  0.1420
61235W        W98729  22.997  11.763  14.939 -0.0534 -0.2166  0.0148
61236W        W98730  32.217  34.046   5.043 -0.0994  0.2983 -0.0974
61237W        W98731   4.687  32.530   5.155  0.0453 -0.0364 -0.0273
61238W        W98732  30.698  20.750  18.848  0.1260 -0.1098  0.0803
61239W        W98733  21.003   0.023   3.497 -0.3298  0.0415  0.1140
61240W        W98734  34.031  11.278  20.396 -0.1287  0.1685  0.3623
61241W        W98735   9.509  11.278  10.067 -0.0423 -0.0671 -0.1605
61242W        W98736   8.140  17.337   6.593 -0.2376  0.1298  0.2144
61243W        W98737  21.917   6.275   7.660 -0.1552 -0.0035 -0.2377
61244W        W98738  20.230   4.687   5.752  0.2994  0.0367  0.0252
61245W        W98739   5.678  33.827   3.092 -0.0681  0.0312  0.0495
61246W        W98740   7.041  17.203   9.761  0.0803  0.0605 -0.1564
61247W        W98741  21.459  15.030   0.520  0.3430 -0.0264 -0.1906
61248W        W98742  29.409   3.773  21.955  0.0301 -0.2252  0.0017
61249W        W98743  15.165  16.663   3.680  0.0990 -0.2946 -0.0861
61250W        W98744  34.870  28.891  19.247 -0.2962  0.2696  0.1977
61251W        W98745  15.473  17.894   9.604 -0.1102  0.0878 -0.1145
61252W        W98746  16.313  31.795   8.609  0.2414 -0.1481 -0.2319
61253W        W98747  24.320  31.517  22.507  0.2274  0.2529  0.3066
61254W        W98748  18.127   7.958  18.084 -0.1035 -0.2537  0.2952
61255W        W98749  21.417   9.299   2.388  0.0767  0.0659  0.0728
61256W        W98750  28.728  31.746  25.108  0.1309 -0.2592  0.1969
61257W        W98751   5.473  33.762   4.911 -0.1566  0.0063 -0.2619
61258W        W98752  19.157  26.157   3.482 -0.3438 -0.0971  0.2724
61259W        W98753  12.455  34.768   7.820 -0.1842  0.1680 -0.4020
61260W        W98754  22.590   1.663  18.509  0.0540  0.0871 -0.2713
61261W        W98755  31.147  15.466  22.832  0.3741  0.0022 -0.0907
61262W        W98756   6.256  23.037  21.595 -0.1307 -0.1386  0.1660
61263W        W98757  33.647   2.507  17.546  0.0113 -0.0176  0.0103
61264W        W98758  23.807  18.359  13.109 -0.2612  0.1208 -0.0223
61265W        W98759  34.580   5.058  12.359 -0.1320  0.1509 -0.2429
61266W        W98760  21.730  30.762   2.616  0.0396 -0.1782 -0.0674
61267W        W98761  15.372  17.607   3.345 -0.1154 -0.0329  0.3253
61268W        W98762  33.180  25.682  23.801 -0.4436 -0.0193 -0.0012
61269W        W98763   9.562  12.984  20.737  0.2035  0.2419 -0.0923
61270W        W98764  13.339  26.399  17.479  0.3781 -0.0209 -0.2095
61271W        W98765  29.627   0.548  17.098  0.0296  0.0665  0.0597
61272W        W98766  32.754  12.877  22.571  0.0747 -0.0542  0.2208
61273W        W98767  16.530  12.981  10.555 -0.1131  0.1355 -0.3914
61274W        W98768  23.155   3.330   2.236  0.1045 -0.2288  0.0180
61275W        W98769  27.425  13.665   9.187 -0.3320  0.1561  0.1351
61276W        W98770  31.953  31.494  25.776 -0.1701 -0.1437  0.2943
61277W        W98771  31.208  11.352   9.166 -0.0573  0.1711 -0.1596
61278W        W98772  10.815  21.769  25.608  0.1753  0.1693 -0.1041
61279W        W98773  26.649  33.422  11.567  0.0062 -0.0248 -0.1657
61280W        W98774  15.768  34.326  21.915 -0.0218  0.2409 -0.4138
61281W        W98775   3.693   9.907  21.909 -0.3464  0.0686 -0.2228
61282W        W98776  20.071  28.452  20.159  0.0256  0.1994  0.0959
61283W        W98777   0.647  17.289  22.844  0.1748  0.1927 -0.2604
61284W        W98778   1.306   6.177   0.611 -0.1673  0.1067  0.1810
61285W        W98779  29.621   0.969  14.773 -0.2798 -0.1496  0.0569
61286W        W98780  29.287  18.524  22.555 -0.0527  0.0452 -0.2151
61287W        W98781   9.237  10.447   5.445 -0.1164 -0.1779 -0.0725
61288W        W98782  27.553  35.136  25.577  0.1855  0.1249  0.0715
61289W        W98783  26.652   8.923  17.438  0.1418  0.1758 -0.2866
61290W        W98784  28.007  21.810  10.831 -0.2252  0.1719  0.0742
61291W        W98785  28.492  24.453  15.681 -0.2087  0.0740  0.1929
61292W        W98786   1.529  23.288  22.739 -0.4180  0.2308 -0.1347
61293W        W98787  20.662   1.428   1.405 -0.3181 -0.1015 -0.0216
61294W        W98788  16.241  24.733   0.566  0.0906  0.0961 -0.4132
61295W        W98789  24.407   1.300  21.589 -0.1885 -0.0196 -0.1784
61296W        W98790  28.938  17.037  21.615  0.2944 -0.1905 -0.0074
61297W        W98791  25.162   4.269  17.974 -0.0893 -0.2239 -0.2698
61298W        W98792   8.716  19.595   3.937  0.2835  0.1611  0.0224
61299W        W98793  34.421   8.489  15.939  0.2109  0.0289  0.1979
61300W        W98794  35.184  19.609  16.369  0.2341 -0.0201  0.0814
61301W        W98795   9.390   8.118   0.882 -0.1900 -0.1001 -0.2651
61302W        W98796  12.022  15.073   9.204 -0.0237 -0.0082 -0.1585
61303W        W98797  28.207  24.321  20.073 -0.1873  0.2933  0.0271
61304W        W98798  17.264  20.328   9.574  0.2772  0.1750 -0.1929
61305W        W98799  21.986   9.366  25.150  0.1708  0.0660 -0.1735
61306W        W98800   9.116  11.214  18.157  0.1009 -0.0927  0.0523
61307W        W98801  23.461  32.233   0.848 -0.1883  0.0826  0.0537
61308W        W98802  27.723  22.227  14.872 -0.3025  0.1148 -0.0778
61309W        W98803  18.879   1.705  19.717 -0.1215  0.1166 -0.0617
61310W        W98804  18.290   9.585  24.987  0.1388  0.0812  0.0788
61311W        W98805   1.323   1.280   5.727 -0.0881  0.0028  0.0720
61312W        W98806  34.629  12.663   7.441  0.0594  0.1109 -0.5403
61313W        W98807  31.270   3.797  19.686 -0.2417 -0.1558 -0.0274
61314W        W98808  33.208  32.316  17.617  0.0527 -0.2007  0.0675
61315W        W98809   5.588  31.954  10.949  0.1231  0.0623  0.3343
61316W        W98810  17.953  28.361   9.517 -0.1339  0.1126  0.0923
61317W        W98811  29.455  33.540   3.899  0.0989 -0.1995 -0.0437
61318W        W98812   9.866  15.755  13.117 -0.2040  0.1956  0.1434
61319W        W98813   2.732  16.565  19.328 -0.2353  0.1729 -0.1134
61320W        W98814  21.135  32.381   5.478 -0.6297 -0.0448 -0.0460
61321W        W98815  12.735  11.518  19.894 -0.0426  0.1647 -0.0659
61322W        W98816  21.167  14.776   3.648  0.0947  0.2092  0.0873
61323W        W98817  28.432  12.717  20.225 -0.3208  0.1977  0.1637
61324W        W98818   3.741  21.290  18.325  0.2512 -0.1201  0.0743
61325W        W98819   2.962  15.375  15.947 -0.4632  0.3061  0.0619
61326W        W98820   2.033  20.121  20.418 -0.0398 -0.2611  0.1228
61327W        W98821   3.379  24.505  23.677 -0.0633 -0.1185  0.1490
61328W        W98822  28.502   3.389  20.405  0.0445 -0.0528 -0.2090
61329W        W98823  28.191   9.885   0.991  0.0880  0.3780 -0.1136
61330W        W98824   0.508   8.055  17.506 -0.1661  0.0914 -0.1223
61331W        W98825   0.428  35.215   2.940  0.0243 -0.1370 -0.0709
61332W        W98826  27.824  30.513  25.106 -0.1049 -0.1732  0.0097
61333W        W98827  26.692  28.348  23.621  0.0834  0.1565 -0.1923
61334W        W98828  27.696  20.212  15.664  0.1299  0.0165  0.4833
61335W        W98829   3.602  30.501  22.875  0.0009  0.0253  0.1630
61336W        W98830  28.711  15.510  22.165 -0.1808  0.4812  0.0800
61337W        W98831  15.854  34.885   9.859  0.3226 -0.1096 -0.0555
61338W        W98832  25.577  28.703  20.265 -0.4420  0.1388  0.1622
61339W        W98833  26.700  21.520  21.940 -0.4410 -0.0031  0.0091
61340W        W98834  27.261  27.276  16.663  0.0111  0.1997  0.2070
61341W        W98835  17.474  24.090   0.492 -0.0094  0.0912 -0.2555
61342W        W98836  27.620  23.899   8.139  0.0926 -0.0442  0.1246
61343W        W98837   4.174  23.443   5.220  0.1064 -0.1291  0.1086
61344W        W98838  23.530   4.947  18.545  0.0901 -0.0207  0.0694
61345W        W98839  15.833  33.294   1.434  0.2039 -0.3458  0.0154
61346W        W98840   5.364   1.524   9.591 -0.2316 -0.0535  0.4137
61347W        W98841  28.341   6.552  24.308  0.1017 -0.1181  0.0359
61348W        W98842  15.375  11.774   3.451 -0.0242 -0.1030  0.0273
61349W        W98843  19.176  23.741  24.915  0.0616 -0.1600 -0.2627
61350W        W98844  32.728   4.799  14.546 -0.0099  0.0273  0.2108
61351W        W98845  34.697   4.433  24.911  0.0994 -0.0256 -0.1072
61352W        W98846   1.485  34.291   4.764  0.0415 -0.2661  0.0859
61353W        W98847   0.586   1.879  24.765  0.0964  0.0278  0.2759
61354W        W98848  13.677   5.384  24.898  0.1735  0.0182  0.2045
61355W        W98849  11.037   7.601  26.043  0.2304  0.3394  0.0049
61356W        W98850  33.162  18.032  20.582 -0.0032 -0.1989  0.1778
61357W        W98851  14.376  29.080  24.980  0.3149  0.0882 -0.0977
61358W        W98852   6.377  15.668   5.720 -0.1217  0.0773 -0.1101
61359W        W98853  16.776  30.145  11.338 -0.1071  0.2355 -0.2671
61360W        W98854   5.915  30.775   2.939 -0.0630 -0.2739 -0.1164
61361W        W98855   2.940  17.420  16.132 -0.2133  0.0408 -0.0774
61362W        W98856  19.866  24.485   7.097 -0.0806  0.1075  0.1284
61363W        W98857  34.758   8.635  11.715 -0.4163 -0.0707  0.0871
61364W        W98858   4.581   2.386  24.080 -0.0947  0.0115  0.2388
61365W        W98859  11.634   1.016  22.875 -0.4376  0.0945  0.1586
61366W        W98860  34.378  18.445  15.759 -0.0238  0.0144  0.0940
61367W        W98861   6.023  15.498  25.308 -0.1080  0.1505 -0.3227
61368W        W98862  34.724  32.973  21.804 -0.3136 -0.2111 -0.1372
61369W        W98863  13.267  31.426   9.008  0.3726 -0.2568 -0.0414
61370W        W98864  34.800  20.293  20.295 -0.3250  0.1788  0.1545
61371W        W98865   6.460  26.169   1.746  0.0447  0.1244 -0.0441
61372W        W98866   8.383  20.649   5.944 -0.1693  0.0046  0.0186
61373W        W98867   2.171  15.861  18.604 -0.0074 -0.3043  0.1051
61374W        W98868   9.900  13.868  23.102  0.0274  0.0132  0.0501
61375W        W98869   2.257  31.664  19.521 -0.0740  0.2828  0.0678
61376W        W98870  10.245  27.367   9.270  0.2573  0.0125  0.2095
61377W        W98871  15.246  27.659   6.402  0.1827 -0.1545 -0.2097
61378W        W98872  17.493  16.067   2.609  0.3104 -0.2900  0.1915
61379W        W98873  32.336  27.360  25.906  0.1071  0.0085  0.1178
61380W        W98874   8.594   9.046   0.721 -0.0575  0.4035  0.0066
61381W        W98875  25.332  29.006   3.373  0.2309 -0.3844  0.3267
61382W        W98876   4.155  19.466  24.715 -0.0569  0.0362  0.1041
61383W        W98877  32.030   6.240   3.995  0.2448  0.0640 -0.2731
61384W        W98878  11.790  32.511  24.445 -0.1321  0.2495  0.2400
61385W        W98879  21.004  30.101   4.326 -0.0037  0.1229  0.2119
61386W        W98880  18.953   7.150   9.714 -0.1682  0.2180  0.0627
61387W        W98881   9.705  23.758  22.935 -0.0603  0.2555 -0.0174
61388W        W98882  22.832  10.788  15.007  0.0408 -0.1118 -0.2131
61389W        W98883  10.067  17.349  23.612 -0.0479 -0.1072  0.0770
61390W        W98884  26.120   3.685  18.776 -0.0024 -0.0192  0.1819
61391W        W98885  18.178   4.859   6.698 -0.1131 -0.0483  0.0421
61392W        W98886  19.133  22.296   2.657  0.2012 -0.1305  0.1352
61393W        W98887   3.792  25.246   0.959  0.3120  0.0783 -0.0805
61394W        W98888  12.372   7.483  11.015 -0.0627  0.1664  0.0670
61395W        W98889  14.040  10.123  23.603 -0.0497 -0.0727  0.1266
61396W        W98890  22.041   0.042   0.044  0.2349  0.0043 -0.0853
61397W        W98891  18.637   4.152   1.125  0.0399  0.3715  0.0290
61398W        W98892  13.059  31.955   5.927  0.0740  0.0242  0.0371
61399W        W98893  33.528  11.165  18.031  0.0302 -0.1565  0.4410
61400W        W98894   7.553  35.133   5.998 -0.0123  0.0571  0.1425
61401W        W98895  29.747  32.001   3.499  0.0484 -0.0607 -0.0322
61402W        W98896  24.056  33.641  11.323 -0.1600  0.5229 -0.0204
61403W        W98897  30.852  27.987  12.766  0.0684 -0.1296 -0.2265
61404W        W98898   9.134   5.749  10.872  0.0718  0.1442  0.0463
61405W        W98899  17.861  31.204  19.732 -0.0865  0.2709  0.3211
61406W        W98900  15.367  20.704   1.968  0.2735 -0.1365 -0.3386
61407W        W98901  14.390  12.140   4.411 -0.0920  0.0427 -0.4312
61408W        W98902   0.919  23.219  18.664 -0.2037  0.0454  0.1564
61409W        W98903  25.279  18.633  24.253 -0.1792 -0.1549 -0.0914
61410W        W98904  26.895  11.761   6.818  0.0449  0.1095  0.3103
61411W        W98905   2.546  32.069   6.901  0.5538 -0.3298 -0.1191
61412W        W98906  26.478  34.105  10.415 -0.2238 -0.1030  0.1535
61413W        W98907  27.817  30.407   0.604  0.1345  0.4165  0.4146
61414W        W98908   4.344   0.300  10.388 -0.0138  0.0291 -0.0379
61415W        W98909   1.346  27.665  22.011 -0.1997 -0.1798 -0.2725
61416W        W98910  22.503  33.813   2.456  0.1847 -0.0910  0.0094
61417W        W98911  30.927  21.465  16.480  0.0289 -0.2228  0.1275
61418W        W98912  29.574  17.096  16.347 -0.2177 -0.2985  0.0450
61419W        W98913  18.198   2.019   8.577 -0.0140 -0.0206  0.1115
61420W        W98914  34.124  15.252  21.335  0.1200  0.0057 -0.1332
61421W        W98915  11.078   7.164   4.101  0.0075 -0.0319  0.3312
61422W        W98916   7.549   5.966  24.025 -0.0025  0.2860 -0.3919
61423W        W98917  18.007   9.886  10.084  0.1557 -0.2594 -0.1764
61424W        W98918  33.165  11.449  15.266 -0.0423 -0.2918  0.1314
61425W        W98919  19.526  15.333  16.652  0.0201 -0.2575  0.1012
61426W        W98920   4.584  17.125  23.124 -0.4457  0.1108  0.1670
61427W        W98921   1.265  34.713   9.848 -0.2111 -0.0681 -0.0384
61428W        W98922   0.986  25.546   4.670  0.1750 -0.0563 -0.1306
61429W        W98923  12.615  10.834   9.770  0.0249 -0.0446 -0.1055
61430W        W98924  28.491  17.954  11.913  0.0337 -0.1815  0.0102
61431W        W98925   8.618   1.358   0.672  0.1458  0.2149  0.1956
61432W        W98926   9.113  10.149  19.719  0.2171 -0.1143  0.0125
61433W        W98927  14.335   5.126  12.028  0.2554  0.0378  0.2318
61434W        W98928   1.600  10.651  19.018  0.0355 -0.1030 -0.0274
61435W        W98929   3.067  10.911  19.390  0.0749  0.2317  0.0589
61436W        W98930   6.654   2.319   5.836  0.0503 -0.2908 -0.3269
61437W        W98931   5.858   1.169  21.236 -0.2677 -0.2650 -0.0183
61438W        W98932  19.347   4.914  25.858  0.0347 -0.0058  0.2047
61439W        W98933  12.169  18.688  24.938  0.2305 -0.0133  0.1819
61440W        W98934  14.078  20.297  12.543 -0.0510 -0.0624 -0.0979
61441W        W98935  11.706  24.928   2.979  0.2179 -0.3516  0.1591
61442W        W98936  26.608  29.336  11.260  0.1148 -0.2054 -0.1525
61443W        W98937  27.493  13.330  24.826  0.0451  0.0633 -0.0654
61444W        W98938   0.309  31.261   1.175  0.0911  0.1096  0.0572
61445W        W98939  18.325  34.779  23.634  0.0823  0.1166 -0.0746
61446W        W98940  23.307   6.198   3.468  0.1521 -0.1761  0.0439
61447W        W98941  35.317  34.925  17.741  0.0857  0.1230  0.0780
61448W        W98942  26.698   6.201  15.418  0.4456 -0.1502 -0.1672
61449W        W98943   5.569   0.937  24.773 -0.2278  0.1712  0.2153
61450W        W98944  20.619  32.185   2.168  0.1040  0.0003  0.3091
61451W        W98945  14.600  19.830  10.155 -0.0500 -0.0255 -0.1401
61452W        W98946  24.641   1.332   2.584 -0.1740  0.1869  0.1904
61453W        W98947   5.245  20.969   3.155  0.2859  0.1337 -0.2475
61454W        W98948  33.901  20.582  21.342  0.1778 -0.1901 -0.0024
61455W        W98949  14.658  21.583   4.990 -0.5483  0.3624 -0.0619
61456W        W98950  17.127   6.782  11.831 -0.1499 -0.1404  0.1806
61457W        W98951   7.918  12.653  25.146  0.3428 -0.2233 -0.1491
61458W        W98952  17.638  13.946  12.703  0.0297 -0.2666  0.1382
61459W        W98953   6.812  27.481  15.161 -0.2042 -0.1084 -0.2338
61460W        W98954  20.107  10.144   9.382  0.0420  0.0920 -0.1222
61461W        W98955   9.033  12.019  13.184  0.2507 -0.1457  0.2934
61462W        W98956  24.260  30.322   2.588 -0.2988 -0.6537  0.5340
61463W        W98957   4.946  17.261   6.452 -0.0321  0.2803 -0.3490
61464W        W98958  34.340  29.756  17.704  0.1656 -0.1930 -0.2016
61465W        W98959  13.823  24.412  25.038 -0.0654 -0.2274 -0.0710
61466W        W98960   0.349  20.491  19.457  0.2318  0.1198 -0.1697
61467W        W98961  32.004  24.570  14.739  0.1997  0.2744 -0.0511
61468W        W98962  12.109  20.753   4.836 -0.0934  0.0818 -0.3133
61469W        W98963  17.861  10.751  10.696 -0.0035  0.1401 -0.1593
61470W        W98964  28.470   3.796  16.413  0.1216  0.1706  0.0469
61471W        W98965  15.535   7.698   0.858 -0.2254  0.1513  0.1796
61472W        W98966   8.737  29.842   8.512  0.1380  0.1782  0.0887
61473W        W98967  30.045   8.441  14.667  0.2899  0.3872 -0.0444
61474W        W98968  34.378  25.721  22.667  0.1969  0.0415 -0.0856
61475W        W98969  17.681  31.622  23.233 -0.0898  0.1547 -0.1695
61476W        W98970  19.411  24.638   0.008  0.0936 -0.3237  0.0089
61477W        W98971  30.119   6.472  25.427 -0.2062  0.1248  0.0256
61478W        W98972  31.934   6.997  12.443 -0.0756  0.2457  0.0978
61479W        W98973   4.630  12.188  19.117  0.1006  0.3435  0.2325
61480W        W98974  22.281  27.239  13.224  0.2628 -0.0670  0.1556
61481W        W98975  27.646  29.163  15.375 -0.1352  0.2561 -0.0220
61482W        W98976  35.377  15.277  20.310  0.1146 -0.1260  0.1409
61483W        W98977   8.128  11.302   8.805 -0.0604  0.0741 -0.1154
61484W        W98978  17.192   5.796   2.694  0.1828  0.0341 -0.2104
61485W        W98979   8.708  16.497  10.800 -0.1841 -0.1804 -0.3126
61486W        W98980   9.757  23.831  11.224 -0.0040 -0.1260  0.2338
61487W        W98981  24.964  28.124   1.110  0.0390 -0.2371 -0.0954
61488W        W98982  32.756   1.697  23.330  0.1810 -0.2332 -0.1305
61489W        W98983  13.245  18.488   6.302  0.0113 -0.2813  0.1643
61490W        W98984  10.820  19.450  15.793 -0.0820 -0.1736  0.1359
61491W        W98985  13.331   1.761  10.965  0.2076 -0.1230 -0.1661
61492W        W98986  16.929   8.349  23.234 -0.2088 -0.0657 -0.0910
61493W        W98987  25.166  16.952  25.436 -0.0770 -0.0863  0.0650
61494W        W98988   2.950   9.565  26.205 -0.1130 -0.2119 -0.1280
61495W        W98989  11.423  17.162   7.616 -0.0128  0.2521  0.1205
61496W        W98990  16.603  19.560  25.951 -0.0303 -0.1307 -0.0988
61497W        W98991  25.436  10.717  13.001  0.0657 -0.0749  0.0615
61498W        W98992  14.889   4.539  19.247  0.0919  0.1238 -0.3157
61499W        W98993  17.029  33.790   4.758 -0.0738 -0.1437  0.3997
61500W        W98994  33.066   8.460  18.783 -0.2045  0.1451  0.0042
61501W        W98995  11.628  23.536   8.228 -0.2189  0.0491 -0.3067
61502W        W98996   5.704   7.305   3.634 -0.0416 -0.1254 -0.0139
61503W        W98997  15.221  28.796  25.064 -0.1070 -0.0056  0.3823
61504W        W98998   2.740  12.680   0.861  0.0650  0.0689  0.0636
61505W        W98999  33.187   9.131  16.233 -0.1068  0.0186  0.0645
61506W        W99000   0.930  19.496  22.650  0.3495 -0.2153 -0.1766
61507W        W99001  14.054  30.909  25.320  0.1322  0.3374  0.1013
61508W        W99002   0.454  11.179  13.443 -0.1215 -0.1385  0.0802
61509W        W99003  10.062  29.525  22.111  0.1542 -0.0460  0.0133
61510W        W99004  30.898  18.769  12.167  0.0470 -0.0635 -0.3272
61511W        W99005  34.016  17.757  10.874 -0.1700  0.1427 -0.0599
61512W        W99006  30.991   0.796   4.575  0.1303 -0.0419  0.1033
61513W        W99007   8.422  28.685  21.076 -0.1480 -0.0501 -0.0665
61514W        W99008   6.063   0.611  12.566  0.0355 -0.1029 -0.1892
61515W        W99009  13.266  18.009  14.750  0.0701 -0.2444  0.0952
61516W        W99010  31.283  30.623  14.267  0.1638  0.1069  0.1098
61517W        W99011   3.343  20.527  14.856  0.0762  0.0408 -0.4200
61518W        W99012   3.654   2.262   8.788 -0.1203  0.1130 -0.1287
61519W        W99013  28.676  12.805  25.094  0.0569 -0.1558 -0.1120
61520W        W99014  31.170   4.867   4.392  0.1615 -0.0183  0.4223
61521W        W99015  24.080  24.756   1.651 -0.0667 -0.0386 -0.0393
61522W        W99016  18.448  26.359   1.542 -0.3021 -0.1136  0.1605
61523W        W99017  27.765  22.477  12.508  0.0187 -0.1356 -0.0910
61524W        W99018  19.014  31.231   2.927  0.3028  0.2422  0.2231
61525W        W99019  14.275  29.974  24.866 -0.1886 -0.4334 -0.2134
61526W        W99020  26.811  27.104  20.068 -0.0360  0.0587  0.4154
61527W        W99021   4.951   4.333  18.855 -0.0258  0.1190 -0.1302
61528W        W99022  14.022  28.493  23.838 -0.0518 -0.1353 -0.0968
61529W        W99023   1.396   1.756  19.218  0.1708  0.0526  0.0993
61530W        W99024  24.892  32.056  25.044  0.0356 -0.4007  0.0821
61531W        W99025  34.224  19.755  17.355 -0.2621 -0.0924 -0.2986
61532W        W99026  34.150  17.440   6.116 -0.2593  0.1084  0.0740
61533W        W99027  17.938  12.338   2.253  0.0442  0.2356  0.1245
61534W        W99028  26.752   4.301  24.962 -0.1183 -0.0522  0.0424
61535W        W99029  14.743  15.980   7.599  0.1240 -0.1100  0.0054
61536W        W99030  34.123  14.353  23.925 -0.3289 -0.0008 -0.2146
61537W        W99031  35.201  17.006   8.354  0.2662  0.0901 -0.2381
61538W        W99032  10.142  27.966  10.902 -0.0995  0.0577 -0.3527
61539W        W99033  22.647  14.380  20.660 -0.0024 -0.2511 -0.0312
61540W        W99034  13.651   9.101  22.305 -0.0665  0.0722  0.0229
61541W        W99035  28.590  24.007  15.607  0.0836 -0.0900  0.2556
61542W        W99036   3.133  16.886   0.503  0.2987  0.1278  0.2065
61543W        W99037  19.487  22.161   8.632  0.1031  0.2195 -0.0292
61544W        W99038  17.684  25.454   2.258  0.2711  0.1601  0.1699
61545W        W99039  11.851  30.007  14.862 -0.2188 -0.1780 -0.1259
61546W        W99040   3.111  26.254   0.187  0.1051  0.1035 -0.1215
61547W        W99041  11.152  23.974  25.106 -0.2775 -0.0279  0.1219
61548W        W99042  35.017  18.122  17.458  0.2175  0.3411  0.0959
61549W        W99043  32.465   4.043  21.271  0.1985 -0.1747 -0.3906
61550W        W99044   3.723  17.128   1.303 -0.2494 -0.0516  0.0457
61551W        W99045  29.887  16.554  13.949 -0.1164 -0.1233  0.0208
61552W        W99046  16.306   9.606   6.025  0.2554  0.2154 -0.1074
61553W        W99047   7.047  25.384  22.713 -0.3335 -0.1227 -0.0457
61554W        W99048   6.167  33.681   2.939  0.0478  0.3760 -0.0023
61555W        W99049  24.395  25.514  23.240 -0.0567  0.0213 -0.2837
61556W        W99050  13.922   7.520   9.668 -0.1575  0.3279 -0.2312
61557W        W99051  16.919  12.312   6.099  0.0319 -0.0400  0.0999
61558W        W99052  32.044  27.919  10.211 -0.1952  0.1638  0.1672
61559W        W99053  31.345   8.161  21.825 -0.1457 -0.0380 -0.1224
61560W        W99054  28.442  30.337  10.408  0.1451  0.0569 -0.2985
61561W        W99055  29.729  25.869  18.531  0.3200  0.0088  0.1514
61562W        W99056  32.025  11.851  11.435 -0.1537  0.0036  0.1252
61563W        W99057  34.435   9.019  23.498  0.2002  0.2617  0.3261
61564W        W99058  14.796  28.447  13.131  0.0028  0.1468  0.1132
61565W        W99059   0.451  11.018  15.803 -0.0371 -0.2540  0.2897
61566W        W99060  25.222  10.708  15.196  0.1819  0.2150 -0.0005
61567W        W99061   4.312   8.512  17.137 -0.2892 -0.0167  0.2439
61568W        W99062  26.772  30.948  23.140  0.2770  0.1129 -0.1770
61569W        W99063   4.234   5.937  25.408 -0.0131 -0.2062  0.0649
61570W        W99064  14.816  14.439   2.927 -0.3222 -0.1136  0.0998
61571W        W99065  17.908  11.631   6.774 -0.1768 -0.0780  0.2640
61572W        W99066   0.243  27.450  16.021  0.0529 -0.0924  0.0002
61573W        W99067  22.706  34.953   6.211 -0.2606  0.1273 -0.0629
61574W        W99068  23.531  18.783  19.783  0.3256  0.2003 -0.1425
61575W        W99069   9.313   1.476   7.909 -0.0969 -0.1829  0.0050
61576W        W99070  14.223  11.757  20.416 -0.0246 -0.0796 -0.0304
61577W        W99071   6.920  10.079   3.165 -0.1240 -0.1371  0.0299
61578W        W99072  31.070  20.187  25.151  0.2672 -0.1729 -0.1625
61579W        W99073  23.736  15.655  22.205 -0.1301  0.1360 -0.0577
61580W        W99074  12.113  31.868  21.360 -0.0383  0.0734  0.0462
61581W        W99075  17.223   3.658   1.039 -0.1429 -0.1746 -0.1185
61582W        W99076  11.430  18.514   2.612 -0.2963 -0.2071  0.0375
61583W        W99077  22.889  35.321   4.926 -0.0034  0.1440  0.2894
61584W        W99078  22.990   4.727   4.939 -0.0026 -0.1214 -0.0183
61585W        W99079  28.443  29.860  18.389 -0.1873  0.0562  0.0315
61586W        W99080   9.661  19.333   4.547  0.1227 -0.3282  0.0404
61587W        W99081  27.320  19.794  20.968 -0.0814 -0.1171 -0.1045
61588W        W99082  13.477  12.057   4.806  0.1191 -0.0506 -0.1825
61589W        W99083  34.056  24.196   0.862  0.1142  0.1543 -0.1645
61590W        W99084  32.954  25.561  26.062 -0.0651  0.1727 -0.1695
61591W        W99085   6.083  21.880   3.617  0.3678 -0.0618 -0.2009
61592W        W99086  30.616   9.141  25.298 -0.0200 -0.0208  0.0972
61593W        W99087  16.560  32.948  18.846 -0.0519 -0.0296 -0.1525
61594W        W99088  32.847   6.393  21.804  0.0968  0.2608  0.1387
61595W        W99089  25.779  11.606  16.628 -0.0666 -0.1891 -0.0488
61596W        W99090  11.019  30.275   1.400  0.5722 -0.5066  0.1178
61597W        W99091  34.607  21.781  20.414  0.0186 -0.0649 -0.0898
61598W        W99092  33.116  25.727  18.869 -0.0306 -0.1930  0.0055
61599W        W99093   3.380  17.830   2.713  0.0346 -0.1841 -0.1360
61600W        W99094  27.721  30.321  11.077 -0.1546  0.1054  0.4791
61601W        W99095  26.907  15.115  10.646  0.0501 -0.0597 -0.0385
61602W        W99096  10.458  11.985  19.635 -0.1157  0.1781  0.0275
61603W        W99097   1.096  11.606  19.888 -0.0231  0.5336 -0.2281
61604W        W99098  17.958  18.925   7.414  0.1973 -0.0662  0.3067
61605W        W99099   8.620  17.567   2.194 -0.0852  0.1623 -0.1236
61606W        W99100  12.448  10.612  26.174 -0.2624 -0.3776  0.4157
61607W        W99101  26.515   0.327  24.828 -0.0720 -0.2245  0.0160
61608W        W99102  26.810  12.881   0.915  0.0409 -0.1424 -0.1356
61609W        W99103   5.655   0.141  20.207 -0.1584 -0.0285  0.0243
61610W        W99104  16.394   0.769   4.112 -0.1826 -0.1664 -0.2119
61611W        W99105  11.407  33.732   1.999 -0.1043 -0.0481  0.0989
61612W        W99106  21.584  12.895  20.736  0.0087  0.0998 -0.2245
61613W        W99107  29.624   1.153   2.638 -0.0543  0.0106  0.2419
61614W        W99108  25.486  20.948  14.866 -0.2619 -0.0719  0.1858
61615W        W99109  32.969  10.389  16.168  0.0902  0.0934  0.4898
61616W        W99110  30.759  19.771  20.123 -0.0405  0.0494 -0.0609
61617W        W99111  28.352   7.678   0.132  0.2596  0.2067 -0.0325
61618W        W99112  16.318  17.444   2.226 -0.0595  0.1270  0.0891
61619W        W99113   8.360  19.589  22.176  0.0246 -0.1077 -0.0479
61620W        W99114  21.601  10.675  19.498 -0.1297  0.0773  0.1367
61621W        W99115   3.666  30.790   3.912 -0.0236 -0.3091  0.1007
61622W        W99116   1.964   1.716   4.801 -0.0354  0.1157 -0.1800
61623W        W99117  13.656   5.136  19.102 -0.3424  0.1151 -0.0053
61624W        W99118  18.500   2.084   7.413 -0.1111  0.2015  0.0742
61625W        W99119  17.183  26.633   8.103 -0.0829 -0.0466 -0.0485
61626W        W99120  20.817  16.235  17.213  0.1352  0.1381  0.0406
61627W        W99121  31.735  10.275  26.109  0.0344 -0.1863  0.4134
61628W        W99122  17.031  27.064   7.910 -0.0185  0.2439 -0.2255
61629W        W99123   2.512  25.858  20.643  0.0129  0.0519  0.0537
61630W        W99124  22.866  25.221  14.287 -0.1661 -0.2411 -0.0218
61631W        W99125  19.504  35.371  22.109 -0.0473  0.1440  0.0596
61632W        W99126  22.115  30.816  18.915 -0.0257  0.1519 -0.3478
61633W        W99127  25.191  12.110  25.159 -0.1848 -0.0154 -0.0119
61634W        W99128  23.737  34.605  20.643  0.0830 -0.0316  0.1770
61635W        W99129   7.216  15.261   0.482  0.0843 -0.0349  0.2432
61636W        W99130   4.966  14.600  22.339  0.0841 -0.1144 -0.2738
61637W        W99131  13.452   0.184  23.837  0.0538 -0.0020 -0.2042
61638W        W99132   0.129  21.957  20.874 -0.0837 -0.0723  0.0282
61639W        W99133  22.982  20.123  21.103  0.2081 -0.1837 -0.0452
61640W        W99134   9.029  30.941   6.192 -0.3876 -0.0208  0.2083
61641W        W99135  13.652   1.816   4.807  0.2611  0.2511 -0.2146
61642W        W99136  17.683  13.036  18.398  0.1811 -0.3631  0.1453
61643W        W99137   9.986  12.983  24.070  0.2127 -0.1646  0.0333
61644W        W99138  27.778  27.259  18.920  0.0144  0.0900 -0.0344
61645W        W99139   9.978  34.253   3.058  0.2757 -0.2061 -0.2261
61646W        W99140  11.411  12.815  22.438  0.0557 -0.2499  0.0370
61647W        W99141   0.688   6.143  20.139 -0.1290 -0.0200  0.1849
61648W        W99142  27.788   2.406  17.976 -0.4970 -0.2725  0.0976
61649W        W99143   0.089  33.463   0.466  0.2814  0.1740  0.1727
61650W        W99144  24.247   5.182  20.238 -0.1370 -0.0062 -0.1223
61651W        W99145  26.591  14.070   9.429  0.1928 -0.0026  0.0962
61652W        W99146  30.762  20.254  11.626 -0.1289 -0.3383  0.1029
61653W        W99147   0.094  11.595  21.524  0.0165 -0.0964  0.1440
61654W        W99148   0.750  33.822   6.806 -0.0515 -0.0300 -0.1402
61655W        W99149   1.392   0.809  25.445 -0.1149  0.2133  0.1729
61656W        W99150  14.698  31.385  21.732  0.0377  0.2293 -0.2214
61657W        W99151  33.999   3.347   1.686  0.0430 -0.0752 -0.0475
61658W        W99152  16.111   3.611  20.367  0.4337 -0.2145 -0.2794
61659W        W99153   7.065  25.520   7.578  0.0570 -0.1476 -0.0225
61660W        W99154  19.571   6.592   8.184 -0.3018  0.1509 -0.1387
61661W        W99155  31.818  21.718  15.219 -0.0742  0.1559  0.1593
61662W        W99156  29.264   4.263  18.530 -0.0933  0.0466 -0.0518
61663W        W99157  25.153  32.163  11.026 -0.3128 -0.0704  0.0258
61664W        W99158   2.275   3.135   6.071  0.3003  0.2322  0.1285
61665W        W99159  30.171  11.950   6.136 -0.1308 -0.2539 -0.3940
61666W        W99160  24.177   0.313   4.084  0.3317 -0.2192  0.2083
61667W        W99161  28.421   4.313  21.428 -0.0633 -0.2403 -0.0510
61668W        W99162  29.341  12.488  20.992 -0.2175 -0.0339  0.0075
61669W        W99163  17.708  26.887  22.131  0.1584 -0.1967  0.1035
61670W        W99164  25.267   6.578  25.656  0.0356 -0.4218  0.0140
61671W        W99165  23.336   8.494  21.625  0.1570  0.3924 -0.0340
61672W        W99166  11.340  33.134   5.230 -0.0651  0.2113 -0.0792
61673W        W99167  21.049  34.302   3.029 -0.0780  0.1168 -0.0056
61674W        W99168  17.972  18.841   3.340  0.0682  0.3431 -0.1244
61675W        W99169  28.279  27.696  10.566 -0.0210  0.1443  0.0246
61676W        W99170  10.261   9.605   8.168  0.1658 -0.1117 -0.3759
61677W        W99171  20.636  25.144  19.712 -0.1549  0.1068 -0.3220
61678W        W99172   0.615   3.214   5.490  0.1759  0.0370 -0.1947
61679W        W99173   7.594  35.260  12.287 -0.1749  0.0359 -0.2525
61680W        W99174  29.983   0.165   5.149  0.4844 -0.3069  0.0763
61681W        W99175   1.243  23.238   0.664 -0.2677 -0.0517 -0.1623
61682W        W99176  30.016  33.634  16.825 -0.1414 -0.0860 -0.1320
61683W        W99177  32.167  11.222  10.182 -0.0988 -0.0595  0.0831
61684W        W99178   8.557  34.641   9.395 -0.1603 -0.2743  0.0602
61685W        W99179  35.115  15.454  14.198  0.3050  0.0805  0.2918
61686W        W99180  27.909  23.952  25.419  0.0131 -0.2539  0.0612
61687W        W99181  11.972  15.561  19.974 -0.3085  0.0656 -0.0685
61688W        W99182  13.377  25.001   4.209  0.0701 -0.2287 -0.2852
61689W        W99183   6.883  16.690   0.214 -0.2067  0.3665  0.0735
61690W        W99184   5.588  25.440   8.067  0.1900  0.0565  0.0510
61691W        W99185  28.981  22.407  24.482  0.2277  0.3045 -0.2149
61692W        W99186  14.750  34.172   0.348 -0.1078 -0.0260 -0.1220
61693W        W99187  14.255  24.865   8.331  0.1793  0.0277 -0.2769
61694W        W99188  22.643  22.180   2.865 -0.0833 -0.0569  0.1483
61695W        W99189  12.117  29.323  22.194 -0.3510 -0.0273  0.0448
61696W        W99190  24.242  23.734  16.771  0.1107 -0.0971  0.2079
61697W        W99191  33.167  17.019  25.765 -0.4408 -0.2905  0.2768
61698W        W99192  19.498  34.491   1.924  0.1654 -0.2632 -0.0678
61699W        W99193  18.917  28.016  18.932  0.0995  0.1288  0.3639
61700W        W99194  28.751  33.442  25.148  0.0638 -0.2381  0.3018
61701W        W99195  24.927  31.886   0.052  0.1907 -0.1064  0.4969
61702W        W99196  12.598  34.508  23.240 -0.2721 -0.1638 -0.1135
61703W        W99197  23.073  18.908  24.039  0.1151  0.1144 -0.1958
61704W        W99198   8.664  19.781   1.887 -0.0793  0.2317  0.0694
61705W        W99199  32.276   8.664  23.486 -0.0855 -0.1844 -0.0637
61706W        W99200  19.176   6.934  23.989 -0.0210 -0.0794  0.2627
61707W        W99201  25.704   8.549  11.180  0.1408 -0.1451 -0.0782
61708W        W99202  30.461   6.208  13.465 -0.1812 -0.0044  0.0086
61709W        W99203  23.401  21.937  24.527  0.1689  0.3676  0.0453
61710W        W99204   8.238  28.244  14.097  0.0855  0.0564  0.2358
61711W        W99205  15.496  20.471  25.781  0.2328  0.0117  0.1682
61712W        W99206  12.401  32.090   5.573  0.2112  0.1618  0.2703
61713W        W99207   3.830  11.256  21.693 -0.2493 -0.2605 -0.0985
61714W        W99208  31.095   4.814  20.244 -0.0858 -0.0262 -0.1244
61715W        W99209  31.109  21.866  13.949  0.1781  0.2890 -0.1442
61716W        W99210   3.040   1.854  19.816 -0.0897 -0.0078 -0.3745
61717W        W99211  20.533   5.008   3.691 -0.0184  0.1434  0.1395
61718W        W99212  20.255  32.574  21.370 -0.0702 -0.1376 -0.1194
61719W        W99213  20.793  20.777   6.679  0.0546 -0.1612 -0.3825
61720W        W99214  34.997   9.005  19.498  0.2831  0.2717 -0.3394
61721W        W99215  12.375  14.243  20.372 -0.0812  0.2946  0.0558
61722W        W99216  27.332   0.901  25.400  0.2203 -0.0370 -0.0495
61723W        W99217  18.658  22.660   0.588 -0.0641 -0.3278  0.1859
61724W        W99218  10.630  12.162   2.664 -0.0353 -0.0186  0.5411
61725W        W99219  17.244   3.869  20.200 -0.0930  0.2548 -0.1405
61726W        W99220  18.886  18.688   7.307 -0.0061  0.0745 -0.1952
61727W        W99221   0.224  23.651   0.685 -0.1896 -0.4174 -0.0119
61728W        W99222  14.696  35.133   7.865 -0.2285  0.1376 -0.1065
61729W        W99223  13.619   4.159  19.371 -0.2819  0.1546  0.2581
61730W        W99224  14.774  15.392  20.709 -0.2442 -0.0439  0.2762
61731W        W99225  20.030  32.716   3.040 -0.2501 -0.0541 -0.0806
61732W        W99226  35.175  16.152   9.000 -0.0276 -0.1130  0.3353
61733W        W99227  10.365   1.683  14.111  0.3183 -0.0788 -0.1147
61734W        W99228  17.067  19.614   3.711  0.1587 -0.1412  0.4029
61735W        W99229  22.974  33.146   3.805 -0.1524  0.0107  0.3115
61736W        W99230  31.835  15.741  12.956 -0.0993 -0.3065  0.2619
61737W        W99231  27.608   1.726  21.773  0.2040 -0.0650 -0.0833
61738W        W99232   8.733  22.527  12.768  0.4111 -0.0048 -0.3523
61739W        W99233  17.316  14.451  19.681 -0.2212 -0.0631 -0.0176
61740W        W99234  35.279   2.869  18.393  0.0060 -0.0400  0.2802
61741W        W99235   0.531  35.063   8.699  0.1968  0.0751 -0.5011
61742W        W99236  27.117  14.461  12.026 -0.1455 -0.5233 -0.1762
61743W        W99237  24.540  20.033  11.030 -0.3098 -0.4782  0.0656
61744W        W99238  30.809  11.887  16.978  0.2199  0.1352  0.3247
61745W        W99239  20.158  12.307  17.754  0.2454 -0.3611 -0.2615
61746W        W99240  16.103   5.172  10.064 -0.0593 -0.0833  0.1321
61747W        W99241   3.037   6.492  19.101  0.0517 -0.0117  0.1336
61748W        W99242  11.316  33.646  15.066  0.2987  0.2331 -0.1393
61749W        W99243   4.069   0.108  21.385 -0.1265 -0.2391 -0.1770
61750W        W99244  19.803   7.859   8.718 -0.0320 -0.0930  0.3367
61751W        W99245  29.472  24.257  11.878  0.3799 -0.1136 -0.2524
61752W        W99246   2.755   9.951   4.663 -0.0833 -0.0106 -0.0635
61753W        W99247  28.087  10.321  20.800  0.2772 -0.0393  0.0135
61754W        W99248  25.025   8.698  13.736  0.1755 -0.1691 -0.1065
61755W        W99249  27.595   8.626  10.371 -0.0254 -0.0339  0.3857
61756W        W99250   3.955   6.601  22.676  0.0208 -0.1132 -0.0472
61757W        W99251  20.030  13.672   0.843  0.1634  0.4972  0.1099
61758W        W99252  29.916   5.687  10.665  0.0971  0.1685 -0.0782
61759W        W99253  32.442   1.010  25.417  0.2613 -0.0297 -0.3209
61760W        W99254  31.021  17.300  15.545  0.1088 -0.1868 -0.0578
61761W        W99255  25.280   6.588  20.621  0.1988  0.1507 -0.2980
61762W        W99256  30.649  31.413  21.201 -0.0183  0.0680  0.3761
61763W        W99257  35.239  26.874   2.982 -0.1389 -0.0714 -0.3565
61764W        W99258  30.411  19.317   5.998 -0.2811  0.1462  0.0573
61765W        W99259   1.824  27.228   2.079  0.0748 -0.1945  0.0448
61766W        W99260  26.455  27.138  21.263  0.0629 -0.1597 -0.1253
61767W        W99261  31.665  24.805  19.346 -0.3156  0.1192 -0.3820
61768W        W99262  34.940  14.944   9.980  0.0914 -0.0915  0.0025
61769W        W99263  20.978  32.063  17.179  0.1177  0.1076 -0.0250
61770W        W99264  26.004  16.657  20.277 -0.0182 -0.3449  0.2369
61771W        W99265  27.132  17.517  11.142 -0.0835 -0.1354 -0.1301
61772W        W99266  11.832  19.777   1.300 -0.0921  0.2570  0.2762
61773W        W99267  22.481  21.150  21.585 -0.1599  0.0425 -0.0507
61774W        W99268  14.440   4.626  17.999 -0.2408 -0.0384 -0.2326
61775W        W99269   0.096   9.966  20.812  0.0024  0.0039  0.3377
61776W        W99270  27.773  10.295   0.123 -0.1398 -0.3420  0.0054
61777W        W99271  14.544   7.133  21.285 -0.0003 -0.1223 -0.1788
61778W        W99272  11.891  10.867  13.471  0.0836 -0.1569 -0.0993
61779W        W99273  16.881  13.134   2.322 -0.0041  0.2139 -0.0930
61780W        W99274  31.835   1.077  11.827  0.0367  0.0607 -0.1065
61781W        W99275   7.316  23.576  24.688 -0.1179  0.0243  0.0407
61782W        W99276   3.801  32.605   7.307 -0.1628  0.2218 -0.0969
61783W        W99277  19.130  27.793   9.669  0.1258  0.0219  0.3294
61784W        W99278  17.771  18.616  10.014  0.0967  0.0399 -0.2834
61785W        W99279  32.754   9.729  15.643 -0.0426 -0.0308  0.0785
61786W        W99280   9.512   9.161   6.696 -0.1872  0.0784  0.1077
61787W        W99281  15.405  30.181  15.352 -0.2135  0.1688 -0.4265
61788W        W99282  17.346   8.187  20.893  0.0856 -0.3363  0.0091
61789W        W99283  17.611  21.174  22.227  0.1542 -0.0375 -0.2088
61790W        W99284  17.946  15.656   6.673 -0.0335  0.0725 -0.2791
61791W        W99285  13.276   5.976  11.386 -0.2975 -0.0685  0.0008
61792W        W99286  11.349  20.942   5.573  0.1062 -0.1245 -0.2516
61793W        W99287  21.022   9.365  19.880  0.0121 -0.1708 -0.1172
61794W        W99288  16.796  35.071  16.940  0.1104 -0.0795 -0.2867
61795W        W99289  31.224  16.822  14.079 -0.0660  0.1731 -0.1730
61796W        W99290  16.944   9.779   3.398 -0.1280 -0.0058  0.1681
61797W        W99291  11.774   8.477   9.978 -0.1387 -0.0462 -0.1959
61798W        W99292  25.406  32.644  23.889  0.1259 -0.1295  0.0726
61799W        W99293  15.808   5.179   2.224  0.2403  0.0352  0.1945
61800W        W99294  15.801  15.551  20.594  0.2037  0.1829 -0.0118
61801W        W99295  13.051  15.125   6.889 -0.0114  0.0469  0.1740
61802W        W99296  25.089   3.993  16.403 -0.0113  0.1628 -0.1133
61803W        W99297   7.117   3.590   0.938  0.3320  0.0185 -0.1958
61804W        W99298  31.341  34.423   0.352  0.0625  0.1463 -0.0333
61805W        W99299  14.369   2.161   6.059  0.2637  0.0361 -0.0007
61806W        W99300  15.516  26.186  16.672  0.0825 -0.0340  0.0697
61807W        W99301  18.431  35.021   3.520  0.1713 -0.2514  0.0399
61808W        W99302  20.434  34.392   7.904  0.2099  0.2403  0.0451
61809W        W99303  20.947  14.136   2.800 -0.1066 -0.0582  0.1666
61810W        W99304  28.363  34.533  11.874  0.2098  0.2923  0.2588
61811W        W99305   7.905  24.675   6.563  0.2422  0.2041 -0.2616
61812W        W99306  13.678  30.264   0.628 -0.1129  0.0053 -0.2269
61813W        W99307  28.746  25.816   8.835 -0.1593  0.0026 -0.1513
61814W        W99308  27.568  10.101  24.173 -0.1701  0.2463 -0.0370
61815W        W99309   4.402   2.892   6.482  0.0999 -0.1442  0.1655
61816W        W99310   7.933  13.523   9.422 -0.0851  0.0535  0.1209
61817W        W99311  11.325  25.883  16.035 -0.1609  0.1367 -0.4030
61818W        W99312  26.556  14.217  25.747  0.2847  0.1937 -0.1953
61819W        W99313  17.010   0.502  10.338  0.1492 -0.1930 -0.1434
61820W        W99314  16.645   9.274  10.859  0.4529 -0.1634 -0.1475
61821W        W99315  14.501  17.931   9.587 -0.1305  0.1885  0.0232
61822W        W99316  21.335  19.494   3.272 -0.2598 -0.2372 -0.0744
61823W        W99317  34.568   8.165  12.051 -0.0104  0.1293 -0.2274
61824W        W99318   4.222   2.642   6.937 -0.3672  0.0337  0.0595
61825W        W99319  18.353   9.369   0.201  0.1661 -0.0480 -0.0684
61826W        W99320  34.564  34.049  25.854 -0.1602 -0.2418  0.1076
61827W        W99321  23.042  23.176  24.875 -0.0526 -0.1459  0.2806
61828W        W99322  14.920  26.705  10.072  0.1306  0.3395  0.0654
61829W        W99323  22.152  34.675   5.371  0.0319 -0.1601 -0.0799
61830W        W99324  19.140  29.226   5.087 -0.1109  0.0466  0.2560
61831W        W99325   9.293  32.989  10.164  0.3046 -0.1714  0.0242
61832W        W99326  25.429  12.768  20.114  0.2456  0.0467 -0.1905
61833W        W99327  26.941   3.117   1.632 -0.2290 -0.0652 -0.1635
61834W        W99328  18.287   3.402  20.818  0.1334 -0.0758 -0.1183
61835W        W99329  25.754  13.522  20.409  0.0450 -0.3065  0.3208
61836W        W99330  32.440   4.365  14.326  0.0294  0.0626  0.2438
61837W        W99331  12.707   2.734  20.296 -0.2936 -0.2174  0.0641
61838W        W99332   2.911   8.328  18.439 -0.0523  0.3928 -0.0790
61839W        W99333   6.957   3.455  24.839  0.2228 -0.0773  0.2369
61840W        W99334   9.069  19.268   3.746 -0.0904  0.0357  0.0803
61841W        W99335   9.700   4.412  23.177 -0.0327  0.3548  0.3302
61842W        W99336  21.341  18.390  19.268 -0.1206  0.1438 -0.3200
61843W        W99337   3.970  24.028   6.014  0.0583  0.3070 -0.1785
61844W        W99338  13.271   4.978  11.171  0.1279 -0.1500  0.2113
61845W        W99339  19.379   9.982   1.982  0.1298 -0.0229  0.0970
61846W        W99340  25.939  30.215  23.583 -0.3368 -0.1872  0.0556
61847W        W99341   8.942   6.382   3.870 -0.0855  0.0785  0.1400
61848W        W99342  18.680  20.335  20.615 -0.2214 -0.0109 -0.1736
61849W        W99343  22.141  17.800  19.539 -0.1712  0.0827  0.1083
61850W        W99344  15.028   9.588   6.905  0.1625 -0.1943  0.1983
61851W        W99345  32.553  34.208  21.897 -0.1654  0.3829  0.2208
61852W        W99346  12.415  32.001  25.350  0.0515  0.1350  0.0016
61853W        W99347   9.252  34.039  25.374  0.2441 -0.1795 -0.1296
61854W        W99348  21.223  30.915  22.422  0.3010  0.3213  0.1591
61855W        W99349   4.149  25.426   4.566 -0.0668 -0.0576 -0.1667
61856W        W99350  17.539   8.060   6.564 -0.0397 -0.0026  0.2823
61857W        W99351   1.306  12.650   0.306 -0.2617  0.2011 -0.2137
61858W        W99352  15.216  22.834  22.292  0.1210  0.2790 -0.3341
61859W        W99353  22.282   5.216   0.696  0.2144  0.1033 -0.1119
61860W        W99354  25.717  16.571  22.833 -0.0358 -0.0783  0.3838
61861W        W99355   3.856  15.008  23.128 -0.2417 -0.2127  0.0887
61862W        W99356  33.696  16.626  12.016 -0.2218 -0.1502  0.1484
61863W        W99357   2.409  14.898  24.421 -0.0526  0.1558 -0.0376
61864W        W99358  15.616  15.387   7.347 -0.0721 -0.0326  0.4230
61865W        W99359  32.629  11.645  16.627 -0.3021  0.1714 -0.2997
61866W        W99360  34.473   2.259   7.007 -0.1174 -0.0875 -0.1037
61867W        W99361  22.824   3.341   5.819 -0.1807 -0.0802 -0.2232
61868W        W99362   5.345   4.579   7.977  0.1825 -0.3127 -0.0056
61869W        W99363  19.184  33.892   5.034 -0.1688 -0.1009 -0.1179
61870W        W99364   9.949  15.470  13.571  0.0131 -0.0674  0.0825
61871W        W99365   4.131  32.058  25.348  0.1433  0.1121 -0.3352
61872W        W99366  11.496   9.516  10.666 -0.0198 -0.2958 -0.0796
61873W        W99367  26.718  31.736   3.229  0.0017 -0.0102  0.0469
61874W        W99368   7.258  28.548  14.966  0.1694 -0.5092  0.0341
61875W        W99369  13.826  31.394   1.257 -0.1250  0.1028 -0.0319
61876W        W99370   7.612   0.230  13.541 -0.0969  0.1069 -0.0328
61877W        W99371  11.190  17.501   4.415  0.0244  0.0809 -0.1645
61878W        W99372  33.176  30.174  22.177 -0.0157 -0.2137  0.0545
61879W        W99373  25.999   9.610  13.877  0.2725  0.0245 -0.0629
61880W        W99374  15.645  11.770   6.855  0.1652  0.3837  0.3710
61881W        W99375  23.546   9.631  15.652 -0.0128  0.1724 -0.1831
61882W        W99376   5.996  18.875  23.466  0.1391 -0.1600  0.0713
61883W        W99377  16.118   5.376   1.244  0.0600  0.3001  0.2082
61884W        W99378  19.731  35.305  19.679 -0.1157  0.1463 -0.1428
61885W        W99379  26.609  35.077  18.368  0.2266 -0.1873  0.3789
61886W        W99380  34.223  34.189   4.874  0.0651  0.2794  0.3525
61887W        W99381  31.247  18.145  19.612 -0.1611 -0.0729  0.0770
61888W        W99382   6.303  21.203   5.377 -0.0460  0.0416  0.1481
61889W        W99383  19.699  28.551   3.179  0.0235  0.0264 -0.0920
61890W        W99384  20.809  25.721  22.677  0.4377 -0.2999  0.0721
61891W        W99385   7.010   9.283   9.898 -0.1550  0.0985 -0.0530
61892W        W99386  30.207   4.951  18.387  0.2658 -0.0125  0.0491
61893W        W99387  29.013   7.316  13.965  0.3773 -0.1630  0.1834
61894W        W99388  22.188  27.258  16.641 -0.1308  0.1758  0.0343
61895W        W99389  25.729  12.220  25.505  0.0979  0.0808  0.0411
61896W        W99390  29.930  26.865  15.207 -0.0772 -0.5321  0.0534
61897W        W99391  20.824   0.396   3.768  0.1111 -0.2231  0.0686
61898W        W99392   7.125  34.018  21.389  0.0485 -0.3252 -0.0838
61899W        W99393   1.885  15.521  22.068 -0.0783  0.0466 -0.4174
61900W        W99394  26.742  32.098  18.420 -0.0634  0.2084 -0.0721
61901W        W99395   0.008  20.657  15.584  0.0657  0.0771 -0.4060
61902W        W99396   3.162   4.130  18.557 -0.2293 -0.0311 -0.3697
61903W        W99397  34.055   3.635   6.708  0.1566  0.3899 -0.1224
61904W        W99398   0.694   1.495   8.117  0.2323 -0.0629 -0.1029
61905W        W99399  32.779   0.457  19.980  0.1945  0.0915  0.0916
61906W        W99400  18.937  33.864  23.296 -0.0438  0.1868 -0.0650
61907W        W99401  26.254  19.365   0.650 -0.0185 -0.0578  0.3261
61908W        W99402  14.544  33.693  10.535  0.0016  0.4047 -0.3033
61909W        W99403  25.594  17.394  20.693  0.2246  0.0674  0.1949
61910W        W99404   8.258  11.408  13.292  0.1927 -0.0410 -0.4075
61911W        W99405  27.686  26.015  16.302  0.2454  0.1510  0.0531
61912W        W99406  15.491   1.474   4.773  0.0272 -0.1096  0.0216
61913W        W99407  14.583   8.270   7.525 -0.0006 -0.0099 -0.0433
61914W        W99408  15.147  32.002  20.148  0.0828  0.0475 -0.0982
61915W        W99409  26.532  24.338  17.493  0.3039 -0.1044 -0.3789
61916W        W99410   6.231   4.913  19.789 -0.2538  0.3953 -0.0981
61917W        W99411  14.173  26.172  24.630  0.2101  0.0446  0.0705
61918W        W99412  11.931  16.497  12.960  0.1454  0.0384 -0.0195
61919W        W99413  19.044   1.756   4.839  0.1770  0.2391 -0.0323
61920W        W99414  28.021   4.032  14.183  0.2408  0.1767  0.3464
61921W        W99415  21.499  30.902  20.245  0.2118  0.0141  0.1613
61922W        W99416   1.532   3.246  16.385 -0.3476 -0.3907 -0.1778
61923W        W99417  10.307  19.714  22.088 -0.1117  0.2062 -0.1159
61924W        W99418  22.626  13.246  16.510 -0.0851  0.2007 -0.1275
61925W        W99419  24.375  15.711  13.956 -0.1018  0.3079 -0.0748
61926W        W99420  34.184   3.295  14.410 -0.0662 -0.2719 -0.2314
61927W        W99421  25.767  13.102  11.028  0.3561  0.1602 -0.0048
61928W        W99422  20.638  26.412  22.120  0.0545 -0.1256  0.0451
61929W        W99423  13.841  16.209   4.425 -0.0463  0.1682  0.4670
61930W        W99424   2.878  21.147  17.887  0.1258  0.2397 -0.2936
61931W        W99425   6.358   0.184  22.118  0.2864 -0.1258 -0.0607
61932W        W99426  28.193  33.122   5.831  0.0374  0.3276  0.0154
61933W        W99427   0.672  25.322   0.837  0.2657  0.2158 -0.3076
61934W        W99428  24.601   0.331   1.315  0.1079 -0.2871 -0.2441
61935W        W99429  14.541  11.179  21.298 -0.2408 -0.2885  0.1211
61936W        W99430  13.176  12.744  22.081 -0.1015 -0.1533 -0.0610
61937W        W99431  21.819   3.030  22.446 -0.0357  0.2374 -0.1056
61938W        W99432   4.614  29.691  11.265  0.0758  0.2836 -0.1302
61939W        W99433   3.289   2.627  19.123  0.0355 -0.1063  0.0392
61940W        W99434   2.854  10.117  23.826  0.0967 -0.2848 -0.1083
61941W        W99435   4.080   0.954   5.284  0.2890 -0.3258  0.2555
61942W        W99436   0.011  17.985  24.740 -0.2295  0.0771 -0.1333
61943W        W99437  20.151  19.072   8.216 -0.0516 -0.1372 -0.1810
61944W        W99438  32.628   3.946   0.855  0.1695 -0.0562 -0.1878
61945W        W99439  32.241  31.177   3.842 -0.0640  0.0323 -0.0480
61946W        W99440  29.107   4.042   0.708  0.1232  0.0020 -0.0429
61947W        W99441  21.711  30.893  13.313  0.2652 -0.0330 -0.2824
61948W        W99442  23.177   2.141  17.720 -0.0714  0.1734  0.3999
61949W        W99443   6.832   4.174   7.667  0.2670 -0.0401  0.0111
61950W        W99444   6.697  18.045  24.913 -0.0468  0.0164 -0.0149
61951W        W99445   8.384  19.347  12.696 -0.0227 -0.1994  0.1843
61952W        W99446  29.439   0.626   4.360  0.0792  0.1734 -0.3104
61953W        W99447   2.865  17.021  14.541  0.1519 -0.1726 -0.0996
61954W        W99448  31.855  17.352  10.174 -0.0799  0.0327 -0.1420
61955W        W99449   7.971  33.553   6.890 -0.0424 -0.0019  0.2395
61956W        W99450  32.539  10.079  23.233  0.0215 -0.0194  0.1601
61957W        W99451  31.795   9.598  21.416  0.1821  0.2339 -0.0365
61958W        W99452  25.575  21.647  20.930 -0.1094 -0.5639 -0.3109
61959W        W99453  23.866  28.295   0.933 -0.2937 -0.1083 -0.2917
61960W        W99454  20.690   4.192   0.512 -0.3424  0.2822 -0.2548
61961W        W99455  23.905  28.772   5.170 -0.2783  0.2095 -0.0814
61962W        W99456  27.342  15.343   9.832 -0.2030 -0.2476  0.2270
61963W        W99457  26.036  22.197  20.204  0.0490 -0.3521 -0.6224
61964W        W99458  13.357   5.621  10.216  0.2253  0.0864  0.2281
61965W        W99459  19.667   8.741  17.671  0.1367  0.1877 -0.1856
61966W        W99460  10.035   3.031   2.321 -0.3281  0.2742 -0.1369
61967W        W99461  21.951  13.018  19.236 -0.1536 -0.0171  0.0064
61968W        W99462  30.874   2.778   0.276  0.2378  0.2765 -0.0678
61969W        W99463   4.188  23.919   0.694  0.0281  0.2446 -0.0794
61970W        W99464  17.152  35.133  19.972 -0.0432  0.2550  0.1500
61971W        W99465   6.947  27.016  16.481 -0.0482 -0.1299 -0.0728
61972W        W99466  10.137  22.841   3.381  0.3952 -0.1689  0.5144
61973W        W99467  21.922  27.979  15.692 -0.2086 -0.1754 -0.3493
61974W        W99468  34.710  33.833  24.008  0.2642 -0.1473  0.0955
61975W        W99469  31.582  24.015   7.913 -0.0349 -0.2497  0.1030
61976W        W99470  34.539  31.132  22.940 -0.4302  0.0962 -0.1791
61977W        W99471  18.798  32.868  19.458  0.1629 -0.3254 -0.0072
61978W        W99472   7.795  26.856   3.067 -0.2333  0.0393  0.3735
61979W        W99473  34.123  11.955  24.059  0.3325  0.0098  0.0044
61980W        W99474   3.875   2.154   2.616 -0.1798  0.0700  0.1209
61981W        W99475  25.506  21.745   8.536  0.2862 -0.0229 -0.0235
61982W        W99476  18.313   7.200  19.947 -0.3814  0.2314  0.1069
61983W        W99477  25.492  22.980  14.083  0.3860  0.1494  0.3646
61984W        W99478  21.434  31.655  21.349 -0.1447 -0.1094  0.1560
61985W        W99479  15.095  12.342  10.319 -0.0812  0.1081  0.3874
61986W        W99480  23.668   1.063  20.889 -0.1257 -0.5031  0.0635
61987W        W99481  33.952  26.180  21.578 -0.0787 -0.2919  0.0593
61988W        W99482  32.534  28.088   0.473 -0.0256  0.7184  0.2763
61989W        W99483   2.451  25.313   1.100 -0.1387  0.2867  0.1224
61990W        W99484   9.811  25.101  23.567 -0.1655 -0.2492  0.2306
61991W        W99485   9.179   7.612  13.623 -0.5349  0.0414  0.1189
61992W        W99486  34.598  17.812  24.586 -0.0551 -0.3930  0.0342
61993W        W99487  34.024  13.763   8.583 -0.0718  0.1437  0.0223
61994W        W99488  32.995   3.099  13.738  0.1728 -0.2631 -0.0239
61995W        W99489   8.485  27.044  12.433  0.3374 -0.2978 -0.2631
61996W        W99490   0.312   8.886  24.283  0.0212 -0.1153 -0.2252
61997W        W99491  20.705  23.290   8.474  0.0844  0.2157  0.0058
61998W        W99492   1.805  29.394   3.950  0.1956 -0.0117  0.0835
61999W        W99493   7.755  21.930  24.954 -0.0962  0.1711  0.0022
62000W        W99494  34.457  28.439  22.502 -0.0036 -0.1491  0.1163
62001W        W99495   6.183   2.482   2.462 -0.0611  0.1663  0.1648
62002W        W99496  22.323  14.104  15.674 -0.1311 -0.0618 -0.0433
62003W        W99497  27.817   3.292  16.373  0.0659  0.0938 -0.0791
62004W        W99498  18.453  31.564  25.908 -0.0938  0.0973  0.3307
62005W        W99499   4.504  31.454  20.769 -0.2761  0.2011  0.1187
62006W        W99500  19.489  30.455   3.803  0.0456 -0.0222  0.0362
62007W        W99501  19.255  22.000   5.972  0.4024 -0.0218 -0.0155
62008W        W99502  25.895  21.717  21.307  0.3166 -0.1948  0.1783
62009W        W99503  27.971   4.189  21.845  0.0489 -0.0898 -0.1641
62010W        W99504  20.570  15.291  25.375  0.2286 -0.1679  0.1614
62011W        W99505  31.487   0.358  17.072  0.3621  0.2629  0.2984
62012W        W99506   7.559   0.645  10.570 -0.0224  0.1285  0.5825
62013W        W99507  18.537  30.574  18.068 -0.2043 -0.3154 -0.1144
62014W        W99508  22.406  30.382  12.887  0.0139 -0.2544 -0.2068
62015W        W99509  29.707  16.008  26.177  0.0143  0.3077  0.2332
62016W        W99510  26.972   9.265   1.229  0.0114  0.0726 -0.0888
62017W        W99511  28.274   6.390  23.340  0.1390 -0.0054  0.3041
62018W        W99512   2.425  22.883   3.353 -0.2602 -0.2417  0.1063
62019W        W99513  22.057   4.749  21.076 -0.1226 -0.1098 -0.1566
62020W        W99514  26.498  19.664  24.195 -0.0800  0.0388  0.2698
62021W        W99515  32.578  33.963  13.475  0.0656 -0.3157  0.1535
62022W        W99516  16.358  19.328  25.027 -0.1825 -0.0859  0.1218
62023W        W99517  13.054  20.791  24.828  0.3118 -0.2827  0.0195
62024W        W99518  32.816  28.967  18.578 -0.3389  0.0165  0.2661
62025W        W99519  19.063   1.800   7.548 -0.0827 -0.0555  0.4374
62026W        W99520  21.419  25.856   6.101 -0.0492  0.0309  0.0772
62027W        W99521   0.170  25.698  15.561  0.2186 -0.0622 -0.0427
62028W        W99522   3.529  23.817   3.134 -0.1145 -0.2083  0.0572
62029W        W99523  22.765  11.990  18.424 -0.1462  0.2842 -0.0675
62030W        W99524   3.931  25.921   0.078 -0.0288 -0.0540  0.2689
62031W        W99525  34.666  21.979   8.698 -0.1663 -0.1107 -0.1773
62032W        W99526  19.243  10.097  21.821  0.0836 -0.0156 -0.0904
62033W        W99527  31.994  34.707  14.124  0.1765  0.2507  0.1093
62034W        W99528  33.916  21.301  16.320 -0.0969 -0.1449  0.1817
62035W        W99529   2.169  20.449   0.155 -0.1367 -0.1238  0.0193
62036W        W99530   1.165  17.563  13.620 -0.0292  0.1535 -0.0645
62037W        W99531  15.362  26.747  10.989 -0.1387  0.1541 -0.2043
62038W        W99532   6.903  27.215  22.188 -0.1327 -0.3985  0.0633
62039W        W99533  30.727  15.655  15.947 -0.1694 -0.2040  0.1347
62040W        W99534  33.773  13.659  24.791 -0.0601  0.2113  0.1475
62041W        W99535  20.265  32.575  22.382 -0.1634  0.0061  0.1391
62042W        W99536   3.772  11.640  23.070  0.2591  0.0704  0.1095
62043W        W99537   9.413  22.454  16.856  0.1671 -0.1772 -0.1568
62044W        W99538  15.836   7.003   1.584  0.1252 -0.0648  0.0870
62045W        W99539   5.333  10.608   6.035  0.0172 -0.0708  0.3361
62046W        W99540  13.664   4.833   5.765  0.0758  0.0334 -0.1584
62047W        W99541  27.606  34.541  20.336 -0.0642  0.1934  0.1336
62048W        W99542  17.483   0.332   9.990 -0.0716 -0.1146  0.3127
62049W        W99543  18.812  30.145   6.702  0.0892 -0.3812 -0.1102
62050W        W99544  10.188  33.131  26.224 -0.2978 -0.1408  0.2443
62051W        W99545  14.005  16.513  24.314 -0.0355  0.1210  0.1723
62052W        W99546  30.369  24.032  24.677 -0.2982 -0.2854 -0.0383
62053W        W99547   8.654   5.489   4.851  0.4221  0.0950 -0.0865
62054W        W99548  23.115  11.912  18.054  0.0114  0.0327  0.0453
62055W        W99549  34.550   1.377  22.509  0.1399 -0.2677  0.2343
62056W        W99550   7.658  17.120  22.710  0.4077  0.0516  0.1329
62057W        W99551  13.383   6.556   0.570 -0.1659  0.2742  0.0536
62058W        W99552  12.665  10.707  14.014 -0.1981 -0.0475  0.0986
62059W        W99553  25.682  23.403  11.763  0.0554 -0.2580 -0.3379
62060W        W99554  11.802  34.362   3.861 -0.1114  0.0866 -0.2219
62061W        W99555  17.662  10.085   8.826 -0.1264 -0.2111  0.1310
62062W        W99556  23.888   4.104  18.736  0.0532  0.3472  0.0271
62063W        W99557   8.374  30.860   8.789 -0.1419 -0.0733  0.1199
62064W        W99558  10.257   6.318  10.627 -0.0581  0.0496 -0.2080
62065W        W99559   2.606  11.848   2.931 -0.1678 -0.1202 -0.0854
62066W        W99560  12.096  15.827  10.865 -0.0064  0.2873 -0.1617
62067W        W99561  19.615   5.256  23.867  0.0540  0.2344 -0.0052
62068W        W99562  10.123   9.044  13.044 -0.0657 -0.1349  0.0573
62069W        W99563  12.452  29.593  15.444 -0.2014  0.0998 -0.1985
62070W        W99564   9.960   9.361   5.349  0.2208  0.0637  0.2225
62071W        W99565   7.838  13.726   3.183  0.0933  0.1142 -0.2576
62072W        W99566   8.755  21.373  15.178 -0.0326  0.2367 -0.1101
62073W        W99567  25.699  20.420  17.132  0.1200 -0.1305 -0.1886
62074W        W99568  29.748  26.231  10.247 -0.1350 -0.1376  0.0444
62075W        W99569  28.481  19.798  23.062  0.0396  0.2657  0.1401
62076W        W99570   0.427  17.292  11.696  0.0144  0.0940 -0.0132
62077W        W99571  33.151   4.858  14.032 -0.3172 -0.0342  0.3683
62078W        W99572  19.712  30.575   7.180 -0.0814  0.2948 -0.1299
62079W        W99573   6.864  28.922  22.478 -0.0173 -0.1147 -0.1763
62080W        W99574   5.292   3.311   9.097  0.1310 -0.1054 -0.0343
62081W        W99575  29.175  32.888   1.097  0.1754 -0.1721 -0.1782
62082W        W99576  28.107  27.426  19.293  0.0012  0.1178 -0.1410
62083W        W99577   5.007  15.579   3.576  0.1521  0.4250  0.1475
62084W        W99578  34.348  16.606  12.490 -0.0710 -0.2622  0.0879
62085W        W99579  29.241  20.769  21.002 -0.1030  0.1162  0.1627
62086W        W99580   2.030  11.283  25.590  0.3747 -0.1779  0.1035
62087W        W99581  25.067  16.951  15.605 -0.0558 -0.0509 -0.1213
62088W        W99582  33.631   4.769  16.356  0.1989 -0.2823  0.1903
62089W        W99583  26.775  19.890  12.252  0.2231 -0.1545  0.1173
62090W        W99584   3.234  29.690  10.075 -0.2487  0.0803 -0.5590
62091W        W99585  20.934  35.021  23.693 -0.0596  0.0036 -0.1107
62092W        W99586  34.415  15.187  20.912 -0.1611  0.1462  0.0854
62093W        W99587  30.222  34.115  21.850 -0.0074  0.0755  0.1797
62094W        W99588  35.233  33.764  21.203  0.2466  0.3624 -0.1436
62095W        W99589   1.727  16.016  16.867 -0.0652  0.2484  0.2587
62096W        W99590  30.062  23.660  21.172  0.1435 -0.1510 -0.0884
62097W        W99591  12.564  30.925   7.882 -0.0198  0.3848 -0.0446
62098W        W99592  23.579  26.825  12.608 -0.0307 -0.2478  0.0300
62099W        W99593  25.701  17.104  22.721 -0.0204 -0.0078 -0.2217
62100W        W99594   2.847  11.920  18.153 -0.2136  0.3864 -0.1188
62101W        W99595  12.016  32.081  24.321 -0.1138 -0.1265  0.2370
62102W        W99596   9.050  27.429  24.383  0.0289 -0.0676  0.0735
62103W        W99597   2.231  10.681  16.074  0.1543  0.1219 -0.2175
62104W        W99598   3.770  24.492  24.024  0.0372 -0.0509 -0.3146
62105W        W99599   0.512   5.263  23.199 -0.3176 -0.0094 -0.1183
62106W        W99600  23.663  25.250  20.482  0.0728 -0.0174 -0.0136
62107W        W99601  18.923  12.945   1.397 -0.0705 -0.2191 -0.0173
62108W        W99602  21.854  33.821   7.471  0.3686 -0.0382 -0.3116
62109W        W99603  32.482  12.571  25.346 -0.2009  0.4065 -0.1918
62110W        W99604   8.248  16.314   0.211  0.2934 -0.0189 -0.2392
62111W        W99605  30.787  24.675  23.746 -0.0461  0.0710  0.1901
62112W        W99606  30.932   4.903  24.170 -0.2185  0.1289  0.1354
62113W        W99607  29.083   6.463   0.389 -0.1540 -0.0180 -0.1816
62114W        W99608  15.346  24.534   8.706 -0.1275  0.0456  0.1328
62115W        W99609  21.153  10.598   1.356 -0.0647 -0.2938 -0.1534
62116W        W99610  16.098  21.163  24.272  0.1245 -0.6141  0.2177
62117W        W99611  33.992   8.328  17.748 -0.3321 -0.1457  0.0123
62118W        W99612  31.840  34.691   1.522  0.1319  0.0194 -0.2193
62119W        W99613  22.825  35.230  14.826 -0.1155 -0.1269  0.0033
62120W        W99614   1.384  27.247   2.365 -0.2977 -0.0617 -0.2120
62121W        W99615  33.023  18.231  16.300 -0.0657 -0.1852  0.3103
62122W        W99616   0.024  33.578  22.215  0.2231 -0.0030  0.0346
62123W        W99617   0.853  27.510  26.012  0.3050 -0.2156 -0.0309
62124W        W99618   9.523  15.363  24.599  0.1235  0.0824  0.2401
62125W        W99619  21.476  26.626  18.826 -0.0465  0.0218 -0.1006
62126W        W99620  24.673   6.177  15.397 -0.0423 -0.2500 -0.2363
62127W        W99621   0.239   9.521  13.662  0.0403  0.1927  0.0582
62128W        W99622  12.217  29.554  10.267 -0.1655  0.0389  0.1609
62129W        W99623  19.011  20.464   9.165 -0.3065  0.1933  0.2953
62130W        W99624   7.097   1.898   4.083 -0.0492  0.0455 -0.2195
62131W        W99625  25.129  16.280  23.988  0.1632 -0.0039  0.1733
62132W        W99626  23.243  27.887  21.560  0.1911 -0.1133 -0.2488
62133W        W99627  21.996  34.898   0.255  0.0518  0.1756  0.2102
62134W        W99628   4.367   0.733   3.986  0.0414 -0.1663 -0.0191
62135W        W99629  32.655   2.316   4.366 -0.0069  0.3179 -0.2806
62136W        W99630  17.239   0.807   6.831  0.0651  0.1286  0.0064
62137W        W99631  14.692   9.939   5.946  0.2095  0.0086 -0.0418
62138W        W99632  29.100   6.820  18.494  0.2749 -0.2319  0.0185
62139W        W99633  11.161  23.528  12.563  0.1168 -0.0874 -0.3560
62140W        W99634  26.850  21.567   8.923  0.2648  0.1568  0.0192
62141W        W99635   3.083   4.458  15.854  0.0262  0.4040 -0.0491
62142W        W99636  33.309  27.813  18.269  0.7653 -0.0220  0.0238
62143W        W99637  20.801  28.388   6.119 -0.0588  0.2587 -0.2000
62144W        W99638  34.798  16.838  12.632 -0.2069  0.1727  0.2124
62145W        W99639  10.486  14.116   7.034  0.0376 -0.2068 -0.0048
62146W        W99640   5.352  33.266  12.031  0.4631  0.0261  0.1714
62147W        W99641  32.397   5.346   1.964 -0.0830  0.2115 -0.0181
62148W        W99642  30.568  30.530  23.064 -0.0835 -0.1191 -0.1335
62149W        W99643  24.034  15.274  10.956 -0.0039 -0.0812  0.0535
62150W        W99644  21.065   1.905  14.468 -0.2381  0.2942 -0.1192
62151W        W99645  26.572  32.118  11.884 -0.2150  0.4865  0.1887
62152W        W99646  29.404  17.038  20.216  0.1119  0.1132  0.1300
62153W        W99647  19.687  31.197  18.520  0.1654  0.2151 -0.3006
62154W        W99648  20.398  27.062  18.361 -0.0138 -0.4329 -0.1224
62155W        W99649  17.158  17.508  24.739 -0.0141  0.0155 -0.0158
62156W        W99650  20.064  33.223   4.869  0.0497  0.1548  0.0466
62157W        W99651  15.557   3.012   7.776  0.3389 -0.1103  0.0947
62158W        W99652  34.665  16.441   9.791  0.0709 -0.1029  0.1035
62159W        W99653  28.340   3.141  23.782  0.0217 -0.0915 -0.3065
62160W        W99654  19.742   8.080  25.033  0.4648  0.0019  0.1666
62161W        W99655   1.438  10.306  21.003 -0.0026 -0.1616  0.3159
62162W        W99656  29.652   5.402  16.983 -0.3581 -0.1689  0.1674
62163W        W99657   7.583  33.037   0.484 -0.3303  0.0599  0.1743
62164W        W99658  12.051  24.660   3.175  0.1207  0.4484  0.2093
62165W        W99659  22.218  22.614   4.951 -0.0685 -0.1430 -0.1658
62166W        W99660  26.812  26.632  22.494  0.0498  0.4304 -0.3051
62167W        W99661  13.414  15.264   6.553 -0.0877  0.1707 -0.1341
62168W        W99662  28.167  20.624  24.786  0.0498  0.0818  0.2256
62169W        W99663  29.438  30.899  22.047  0.5365  0.0021 -0.0273
62170W        W99664  15.938  29.902  11.031  0.1768  0.1606  0.1272
62171W        W99665   2.454  12.747   2.968  0.0900 -0.1978  0.0485
62172W        W99666  31.554   1.792   2.425 -0.1706 -0.1708  0.0549
62173W        W99667   6.066  29.782   3.586  0.0116  0.0837 -0.1572
62174W        W99668  29.708  15.596  17.004 -0.0406 -0.3115  0.0614
62175W        W99669  16.497  17.283  24.883 -0.0629 -0.1317 -0.1839
62176W        W99670   2.843  12.638  25.730 -0.0412  0.2837  0.0430
62177W        W99671  23.715   5.220  15.242  0.1880  0.0881 -0.0304
62178W        W99672  13.205  15.699   5.717 -0.2761 -0.3315  0.1348
62179W        W99673  15.404  30.120   2.273  0.0030  0.1336 -0.1509
62180W        W99674  17.568   6.101  23.881 -0.1831 -0.3016 -0.2937
62181W        W99675  27.661   8.098   1.235 -0.2869 -0.1583 -0.1418
62182W        W99676  32.613  17.119  15.005 -0.2077  0.1567 -0.1160
62183W        W99677  15.329   6.011  21.142  0.2904  0.0609  0.2655
62184W        W99678  18.219   3.649  11.932 -0.1118  0.0518 -0.2412
62185W        W99679  16.971  27.750   5.276 -0.3898 -0.1170  0.1089
62186W        W99680  13.873  23.141   7.256  0.2118 -0.0025  0.1648
62187W        W99681  30.800  35.077  14.026 -0.2925  0.0682  0.0731
62188W        W99682   7.049  33.841   8.739 -0.1060 -0.0582 -0.1143
62189W        W99683  27.571  27.527   9.571 -0.2854  0.1808  0.0214
62190W        W99684  11.673  34.417  22.090 -0.0265 -0.2864  0.2566
62191W        W99685  17.764  16.500  21.860  0.1921 -0.1839 -0.0228
62192W        W99686   4.214  24.319  24.417  0.0780  0.2012  0.0461
62193W        W99687  10.835  24.131  23.647  0.1754 -0.2018 -0.3203
62194W        W99688  30.238   8.956  20.883 -0.3029 -0.4314  0.1585
62195W        W99689  23.581   7.237  25.569  0.1241 -0.0928 -0.1068
62196W        W99690  14.027  34.530  25.549 -0.2551  0.2650 -0.0636
62197W        W99691  35.365  16.704   7.966  0.0469  0.2676  0.5000
62198W        W99692  22.977   5.668   1.221 -0.1001 -0.1998  0.1761
62199W        W99693  24.289  16.300  15.062 -0.1025  0.0500  0.0129
62200W        W99694  19.238  11.723  25.681 -0.0823  0.1860 -0.3724
62201W        W99695  23.490  18.733   0.524 -0.0051 -0.2725  0.1770
62202W        W99696  27.712  26.983  17.933  0.1938 -0.0498  0.1520
62203W        W99697   6.939  32.364  11.515 -0.3502  0.0173 -0.1642
62204W        W99698  24.239  29.288  15.700  0.4276 -0.2349  0.0141
62205W        W99699  30.104  30.661  17.796 -0.3836 -0.2518 -0.2826
62206W        W99700   1.675  12.514  13.356 -0.0824 -0.1685  0.0753
62207W        W99701  14.029  33.319   9.788  0.0021 -0.1471 -0.6160
62208W        W99702  25.550   5.093  23.572  0.1394  0.0273  0.3298
62209W        W99703  14.696  14.378   2.340 -0.0437  0.0638 -0.0017
62210W        W99704  32.365  11.065   7.313  0.0201  0.1656  0.0827
62211W        W99705  17.385  10.964   0.166  0.2132  0.0064 -0.4351
62212W        W99706   6.730  26.077   5.467  0.0216  0.4597  0.2392
62213W        W99707  15.948   5.665   2.294 -0.0385 -0.1977 -0.5176
62214W        W99708  26.714  13.771   9.022  0.0209 -0.0744 -0.0519
62215W        W99709  24.959   1.739  14.821 -0.0432  0.1485 -0.0751
62216W        W99710  32.037   1.438   6.066  0.1446  0.4021  0.2827
62217W        W99711  34.408   3.068   2.828  0.1023 -0.1516  0.0430
62218W        W99712   9.870  29.478  16.293 -0.0713  0.2438 -0.3887
62219W        W99713  10.257  12.174   3.162 -0.1533  0.2748  0.2531
62220W        W99714  12.102  30.568  22.082  0.2304 -0.2574 -0.0661
62221W        W99715  24.525  31.240  13.587  0.2751 -0.0713  0.2181
62222W        W99716  29.007  29.568   2.992 -0.0435  0.0372 -0.0112
62223W        W99717  34.301  35.002   5.871 -0.2643  0.0150  0.1148
62224W        W99718   6.737   7.449  21.078  0.0406 -0.0347 -0.2687
62225W        W99719  35.188   6.019  20.241 -0.0464  0.1817  0.0930
62226W        W99720  24.837  30.545  24.909  0.2094 -0.0147 -0.4100
62227W        W99721  25.746  29.641  19.600 -0.2414  0.0114 -0.2182
62228W        W99722  25.886  30.234   5.251  0.1423 -0.0817 -0.1364
62229W        W99723   7.032  11.181   3.829  0.0239  0.2903  0.1319
62230W        W99724  12.896  34.952  23.815  0.0521 -0.1146  0.1466
62231W        W99725  21.041  24.111  22.578 -0.0062 -0.1570 -0.3396
62232W        W99726  28.205  12.900  21.614 -0.3423 -0.1237 -0.0358
62233W        W99727   3.576   3.779  18.580 -0.1598 -0.1323 -0.1802
62234W        W99728  20.764  23.258   1.070  0.1991  0.0195  0.1933
62235W        W99729  30.992  10.392  12.067  0.0109  0.2527  0.2574
62236W        W99730  35.150  28.139  23.983 -0.1936 -0.0705  0.1861
62237W        W99731  12.080   9.965   0.164  0.1629 -0.0453 -0.2443
62238W        W99732  19.812  20.116  21.560 -0.0094 -0.0693 -0.0367
62239W        W99733  23.712  19.653  13.072 -0.0904  0.1113 -0.2406
62240W        W99734  18.343   5.232   1.827  0.1023 -0.0498 -0.1501
62241W        W99735  21.761   0.212  25.779 -0.0525  0.2465 -0.1269
62242W        W99736  28.176  11.109  12.475 -0.4194 -0.2758 -0.1781
62243W        W99737  14.080  10.733   1.761  0.0732  0.2520 -0.0841
62244W        W99738  10.958  33.786  21.485  0.2249  0.1575  0.2235
62245W        W99739  11.913   5.990   8.765  0.1254  0.0934  0.1798
62246W        W99740  17.679  14.886   4.001 -0.0486 -0.0735 -0.2292
62247W        W99741  12.742  15.444  13.485  0.0595 -0.2047 -0.2793
62248W        W99742  19.427  18.130   5.008 -0.0040  0.2132 -0.0291
62249W        W99743  11.937  23.771   2.203  0.0920 -0.4662  0.2886
62250W        W99744  26.074  22.489  18.439  0.0178 -0.1087  0.4211
62251W        W99745  15.953  15.547   1.418  0.1984  0.2257 -0.2746
62252W        W99746  33.261   3.877   2.401  0.3739  0.0044 -0.0303
62253W        W99747  22.445   6.262  23.716 -0.1470 -0.2138 -0.0504
62254W        W99748  12.049   6.662   8.736  0.0987 -0.0384 -0.3060
62255W        W99749   7.489  13.701   7.442  0.1883 -0.0219  0.0738
62256W        W99750   6.548   1.710  23.822 -0.1692 -0.0663  0.0593
62257W        W99751   0.790  31.543  20.610 -0.1095  0.0160  0.2160
62258W        W99752  19.010   3.479  20.252  0.3614 -0.1522  0.0143
62259W        W99753   0.914   9.053  17.050 -0.0241 -0.0270  0.0733
62260W        W99754  20.659  18.441   1.796 -0.5365 -0.4238 -0.2990
62261W        W99755   7.068   8.395  22.030  0.1491 -0.1436 -0.0230
62262W        W99756  27.214  28.119  18.739  0.3287 -0.0493  0.0010
62263W        W99757  13.899  11.377  12.508 -0.2187 -0.0970  0.0407
62264W        W99758   7.557   0.127   9.949  0.3802  0.4517 -0.2753
62265W        W99759   1.084  27.388   0.218 -0.0900  0.3601  0.0427
62266W        W99760  24.074   8.996  16.338  0.1480  0.1638 -0.0879
62267W        W99761  13.457   5.202   5.428 -0.0857 -0.3315 -0.2544
62268W        W99762  26.598  31.684  22.615 -0.1393 -0.0818 -0.3030
62269W        W99763  19.055  34.301  18.691 -0.0354 -0.0664  0.1952
62270W        W99764   7.481  10.444  12.179 -0.2284  0.0968 -0.2157
62271W        W99765  10.839  34.982  11.326  0.0214 -0.0398 -0.1383
62272W        W99766  33.817  24.958  13.239  0.1796 -0.0552 -0.3039
62273W        W99767  20.104  19.240   2.617  0.1243 -0.1793  0.4957
62274W        W99768  14.511   3.602  23.017  0.0789 -0.3096  0.1373
62275W        W99769  24.026  32.650  24.053  0.0225  0.2687  0.0472
62276W        W99770   3.260   2.653  19.644 -0.1145  0.0435  0.0164
62277W        W99771  14.495  31.403   4.489  0.1776 -0.1176 -0.1298
62278W        W99772  20.383  32.619   1.738  0.0589 -0.1336 -0.2782
62279W        W99773   6.850   4.444  21.077 -0.0348  0.2443 -0.1176
62280W        W99774  13.527  16.334   0.964 -0.3177  0.0836 -0.2869
62281W        W99775   9.189   2.591   6.862  0.0660  0.1875  0.1420
62282W        W99776  27.954  24.819  18.949 -0.2765  0.0542 -0.4731
62283W        W99777  26.027  35.261   1.874  0.2406  0.0433  0.2666
62284W        W99778   4.513  15.214  17.878  0.2215  0.0805 -0.1334
62285W        W99779  11.265  27.079   8.006  0.1599 -0.1388  0.4774
62286W        W99780  24.602   2.475   0.988 -0.0320 -0.3390 -0.1442
62287W        W99781  24.375   2.044  19.025 -0.0194 -0.3058  0.1905
62288W        W99782   2.337  12.300   0.976 -0.0274 -0.1027 -0.0549
62289W        W99783  35.347  25.976  25.714 -0.1908 -0.1668 -0.0539
62290W        W99784   6.822  34.328   7.110 -0.0617  0.5409  0.1225
62291W        W99785  33.620  23.786  13.841  0.1443  0.1393 -0.1616
62292W        W99786  27.932  17.719  17.943 -0.1592  0.1155 -0.1079
62293W        W99787   8.666  22.871  24.644 -0.3428  0.2813  0.1058
62294W        W99788  30.228  24.215  25.107  0.0568 -0.0604  0.0546
62295W        W99789  30.323  33.315   2.919  0.2570 -0.5114 -0.0538
62296W        W99790  16.421  11.577   3.533  0.1743  0.1215  0.5564
62297W        W99791  19.402   3.541  23.734 -0.1056 -0.3095  0.0209
62298W        W99792   6.942  34.839   8.363 -0.2029 -0.0863 -0.1386
62299W        W99793  12.573  32.703  23.499 -0.2527 -0.1384 -0.0494
62300W        W99794   9.974  31.358  12.039 -0.0679 -0.2701 -0.1730
62301W        W99795   0.393  22.216  24.305 -0.1132 -0.1352 -0.0108
62302W        W99796  19.930   9.481   4.515  0.2398 -0.0162  0.0910
62303W        W99797  34.509   9.937  19.626  0.4713  0.0223 -0.3428
62304W        W99798  16.446  16.971   8.552 -0.0066  0.0303  0.0699
62305W        W99799  33.704   8.647  15.448  0.1185  0.1912 -0.2836
62306W        W99800   8.820  32.793  21.938  0.0047  0.4001 -0.0578
62307W        W99801  30.344  27.576  16.262 -0.1197  0.0035 -0.2292
62308W        W99802  31.244  13.656  12.106  0.0175  0.2047 -0.1534
62309W        W99803  10.938  11.889  19.447  0.1854  0.1282 -0.0006
62310W        W99804  34.047  26.665  16.483 -0.3206 -0.1296  0.1932
62311W        W99805   8.581  34.189  25.307 -0.0022 -0.1353  0.0646
62312W        W99806  12.100   8.846  13.861 -0.2353  0.1608  0.1996
62313W        W99807  24.797  12.718  11.380 -0.1402  0.0089  0.0500
62314W        W99808  23.237   2.771   1.493  0.1693  0.0583 -0.1935
62315W        W99809  18.114  14.207  21.881  0.0992 -0.1368  0.1383
62316W        W99810  18.759   6.865  23.138  0.0051 -0.3281  0.0835
62317W        W99811  29.518  15.094  14.128  0.0315 -0.0369  0.0461
62318W        W99812  30.629  15.735  17.134  0.1298  0.0305 -0.4190
62319W        W99813  32.479   0.812  23.692  0.0907  0.2485  0.0149
62320W        W99814  13.975   4.593   7.893 -0.2744 -0.0031  0.1624
62321W        W99815  13.470  29.298  13.494 -0.2412 -0.0896 -0.3409
62322W        W99816  22.318  24.587  15.767  0.1916 -0.0154  0.0134
62323W        W99817   8.782  34.855   4.490 -0.2714  0.0217 -0.1208
62324W        W99818  13.769  23.355   8.015 -0.0370  0.0365 -0.1036
62325W        W99819  10.664  13.067   7.652 -0.2719  0.0749  0.0973
62326W        W99820  32.391  31.273   6.607  0.0898 -0.0366  0.1562
62327W        W99821  30.483  18.189   4.843  0.0245 -0.1396  0.0824
62328W        W99822   9.020  31.798  10.279  0.0717 -0.0475  0.4511
62329W        W99823  14.733  22.597   5.762 -0.1263  0.0024 -0.5310
62330W        W99824   7.380  32.702  11.261  0.0060 -0.1501  0.1088
62331W        W99825   3.414  20.181  20.290  0.0096 -0.1840  0.2426
62332W        W99826  31.498  23.139   9.908 -0.0334  0.1330  0.0732
62333W        W99827  11.188  19.122   7.627 -0.4044 -0.0842 -0.1480
62334W        W99828  21.790   0.718  20.680  0.1734 -0.3201  0.2553
62335W        W99829  23.913  15.740  18.053  0.4079 -0.0595 -0.2383
62336W        W99830  11.843   1.867   7.913  0.1268  0.2323 -0.1404
62337W        W99831   0.593  19.508   9.726 -0.0241  0.1059 -0.0868
62338W        W99832  19.547   7.217  16.958 -0.1222  0.3933  0.2817
62339W        W99833   5.203  26.592  23.402  0.1489  0.1808  0.1634
62340W        W99834  12.195  19.938   4.799 -0.1179  0.0449  0.0208
62341W        W99835   0.379   9.831   1.730  0.5305 -0.2170  0.0259
62342W        W99836  18.761  11.329   9.433  0.2705 -0.2425 -0.0317
62343W        W99837  19.613  27.734   3.873 -0.2611 -0.0110  0.0833
62344W        W99838   9.087  13.099  23.510  0.1901 -0.0840  0.1255
62345W        W99839  11.344   5.404  25.602 -0.1532 -0.2824  0.1993
62346W        W99840  27.676  18.776  17.781  0.1944  0.2073 -0.2270
62347W        W99841  25.815  31.648   5.187 -0.0005  0.1468 -0.0288
62348W        W99842   3.463  17.034  19.606  0.1629  0.1008  0.0124
62349W        W99843   3.355  32.691  23.334  0.0891  0.1996 -0.0551
62350W        W99844  27.181  17.013  12.582 -0.0290 -0.1161  0.1324
62351W        W99845   0.920   9.917  17.273 -0.4049 -0.0633  0.0327
62352W        W99846  28.451   3.817  20.741 -0.3395 -0.1510 -0.0507
62353W        W99847  32.840  18.640   9.201  0.3913 -0.0388 -0.0980
62354W        W99848  30.872  17.895   8.521  0.0096 -0.4434 -0.2870
62355W        W99849   1.388  14.687  10.238  0.1912 -0.1164 -0.1054
62356W        W99850  14.338  13.032  14.427 -0.0629  0.1766  0.1069
62357W        W99851  15.368   7.619  19.789 -0.0913 -0.0238 -0.0853
62358W        W99852  14.279  31.709   3.078 -0.1954 -0.1242  0.1282
62359W        W99853  10.013  17.928  10.361 -0.0994  0.1600  0.2222
62360W        W99854  11.033  23.547  24.847 -0.1035  0.0087  0.1269
62361W        W99855  19.405   8.266   5.763 -0.3126  0.1451  0.2615
62362W        W99856  20.234   1.431   1.133 -0.1012  0.0030 -0.0222
62363W        W99857  27.589  23.413  19.314 -0.2491  0.1848 -0.1073
62364W        W99858  14.816   8.347   5.017 -0.3436 -0.0472 -0.1597
62365W        W99859   0.213  10.672  24.979  0.0351 -0.1674 -0.0013
62366W        W99860  13.181   4.170  21.971 -0.1636 -0.0236 -0.0116
62367W        W99861   6.954   0.132   1.205 -0.2813  0.1916  0.1449
62368W        W99862  11.157   8.839   9.735  0.1266 -0.0987 -0.3952
62369W        W99863  26.047  29.098  11.713 -0.1700  0.0858 -0.2443
62370W        W99864   7.206   6.919  20.647  0.0632  0.0587 -0.1502
62371W        W99865  22.451  14.188   2.603 -0.1103 -0.0493  0.2888
62372W        W99866   7.789  11.887   2.004  0.1073  0.2395  0.3566
62373W        W99867  30.342  21.134   5.608  0.1146 -0.1106 -0.4403
62374W        W99868  27.137  19.602   6.812 -0.1133 -0.0225 -0.1939
62375W        W99869   9.486  28.326   9.055  0.0201 -0.3147  0.1437
62376W        W99870   4.818  29.639   4.309  0.3333  0.2162  0.1270
62377W        W99871  33.009   5.556  26.138 -0.0023  0.0733  0.0340
62378W        W99872  20.213  14.636   2.247  0.0730 -0.0669 -0.1075
62379W        W99873  23.104  10.632  23.548 -0.0729 -0.0996  0.2192
62380W        W99874   6.702  10.789  22.787  0.2199  0.1323 -0.2805
62381W        W99875   9.174  32.427   7.395 -0.0060 -0.2142  0.1930
62382W        W99876  10.047  11.952   7.644  0.0280 -0.2253  0.1586
62383W        W99877  33.018   0.333  23.291  0.0974  0.0290 -0.2166
62384W        W99878  17.192  21.663   7.779 -0.0881  0.2574  0.2381
62385W        W99879  34.918  12.428  17.465 -0.2250 -0.1572  0.0574
62386W        W99880  19.485  23.570   5.493  0.1455 -0.0980 -0.0024
62387W        W99881  21.908  26.930   1.208  0.1072 -0.0320 -0.0334
62388W        W99882  24.782  10.701   2.711  0.1873 -0.3814  0.1461
62389W        W99883  34.575  32.365   0.878 -0.1200  0.0539 -0.2136
62390W        W99884   9.972  24.188  24.966  0.1458  0.2529 -0.2866
62391W        W99885  10.367  34.157  15.249 -0.1682  0.0023  0.0756
62392W        W99886  34.893  10.005  10.336 -0.0227 -0.0546  0.0611
62393W        W99887  30.621  11.903  12.508  0.2042 -0.0514 -0.0816
62394W        W99888  29.386  22.172   5.208 -0.0937 -0.3219 -0.5311
62395W        W99889  20.315   5.048  24.442  0.0576  0.1657 -0.1226
62396W        W99890  33.708  31.502  18.132 -0.0205 -0.3006  0.3328
62397W        W99891  19.988  21.352  10.329  0.0698 -0.3746 -0.2051
62398W        W99892   5.089  31.194  12.679  0.0804 -0.1786 -0.1171
62399W        W99893  28.081  13.824  25.953 -0.1251 -0.0311 -0.1657
62400W        W99894   9.465  29.682  10.405 -0.4220  0.2407  0.1911
62401W        W99895   2.161  14.278  23.260  0.1113  0.0986 -0.0545
62402W        W99896   8.186  16.099   1.457  0.1119 -0.0819  0.0182
62403W        W99897  25.956  24.154  15.558 -0.3434 -0.1180 -0.1070
62404W        W99898  30.000  16.681   8.694  0.0234  0.2196  0.0375
62405W        W99899  13.140  18.459   8.763  0.1135  0.2098  0.3554
62406W        W99900  28.534  26.819  12.753 -0.1782  0.0543 -0.1725
62407W        W99901   1.651   2.187   2.989  0.0689  0.0391 -0.0447
62408W        W99902   5.146  13.652   4.425  0.0012 -0.2346 -0.5728
62409W        W99903  28.194  15.576  21.146 -0.0912 -0.3226 -0.0645
62410W        W99904   2.263  27.242   0.857  0.0090  0.2936 -0.1037
62411W        W99905  27.877  31.917  20.716  0.2118 -0.4203  0.4276
62412W        W99906   1.417   1.118   2.775  0.2669  0.2030 -0.1520
62413W        W99907  20.999   5.869  20.037 -0.0341 -0.1529  0.3492
62414W        W99908   1.591   2.062   0.517  0.0236 -0.0590  0.0334
62415W        W99909  27.573  17.748  22.661 -0.1363 -0.0294 -0.3031
62416W        W99910  14.219  10.660   3.174  0.1513  0.1463 -0.3765
62417W        W99911  15.042  14.729  25.656  0.1131 -0.0307 -0.2797
62418W        W99912  11.165   4.888   7.038  0.0520  0.3970  0.1502
62419W        W99913  18.745   6.303  23.357  0.0710  0.1083  0.4415
62420W        W99914   4.401  10.406  20.609  0.2004  0.0996  0.1018
62421W        W99915   8.654   8.902   7.781  0.2661 -0.1498 -0.2863
62422W        W99916  24.714   1.005  15.560  0.1341 -0.1391 -0.1833
62423W        W99917  33.975   8.906  10.449 -0.2340 -0.0432  0.3412
62424W        W99918   2.297   1.384   5.296  0.3513  0.1217  0.1008
62425W        W99919  17.050  21.269   1.710 -0.0241  0.1371  0.0082
62426W        W99920  34.778  28.736   3.622  0.0979 -0.0375  0.0948
62427W        W99921  30.445  24.566  14.399 -0.0322  0.0879  0.1156
62428W        W99922   9.987   6.367   9.656 -0.2469 -0.1572 -0.0786
62429W        W99923  16.776   0.421  19.190  0.1750  0.0209  0.1723
62430W        W99924   1.276  23.417  14.220  0.1516  0.3593 -0.0593
62431W        W99925  24.138  13.630  25.489 -0.0439 -0.1689  0.1159
62432W        W99926  10.780  26.601   9.173 -0.0855 -0.4251  0.0400
62433W        W99927  24.600  32.083  24.239 -0.1715 -0.0248 -0.0135
62434W        W99928  32.022  15.539  16.783  0.1948  0.1513  0.0438
62435W        W99929  31.233  14.921  23.557 -0.0536  0.2324  0.0119
62436W        W99930  14.082  26.766  22.442 -0.3104 -0.0182  0.2367
62437W        W99931   9.300  18.068  24.351 -0.0123 -0.0549  0.0440
62438W        W99932  34.594  22.323  15.008 -0.0106  0.3233 -0.1218
62439W        W99933   0.145   4.288  17.099 -0.1110 -0.1618  0.0620
62440W        W99934   6.137  29.666  25.254 -0.0649 -0.2470 -0.0834
62441W        W99935  31.913  13.832  16.482  0.1713  0.3461 -0.0322
62442W        W99936  17.311  27.232  11.668 -0.0678 -0.0348 -0.5004
62443W        W99937   2.096  31.003   1.547  0.1601  0.1494  0.0519
62444W        W99938  18.818  32.164  18.209  0.0182  0.0814 -0.2572
62445W        W99939   7.240  14.631   8.923 -0.0570  0.0756 -0.2416
62446W        W99940   1.874   0.541   6.844 -0.1897  0.3815  0.0457
62447W        W99941  15.739  23.381  11.736  0.1409  0.1585 -0.1964
62448W        W99942  28.387  34.509  20.122 -0.0576  0.2427  0.0561
62449W        W99943  12.495  15.423  14.348  0.2014  0.3572 -0.2365
62450W        W99944  16.227  30.307   1.923 -0.1551 -0.1616 -0.0359
62451W        W99945  14.361  35.030   3.691  0.1535 -0.4224 -0.4774
62452W        W99946  16.799  29.040   5.046 -0.0121 -0.1799  0.1672
62453W        W99947  32.819  10.293   7.348 -0.0514 -0.2247  0.2445
62454W        W99948  25.657   3.547   5.749  0.1773  0.0254  0.2175
62455W        W99949  12.392  25.599  10.902  0.0357 -0.1349  0.3224
62456W        W99950  12.162   7.694  19.794  0.1654 -0.2829  0.0966
62457W        W99951  13.426  26.831   0.427 -0.0993 -0.0664 -0.2664
62458W        W99952   6.466  30.166   3.914 -0.2720 -0.1411  0.1222
62459W        W99953  30.773  32.939  24.975 -0.1220  0.2252  0.1574
62460W        W99954  31.420  19.220  19.799  0.6592  0.0792 -0.4231
62461W        W99955  27.449  24.279   9.572 -0.4035 -0.2395 -0.0579
62462W        W99956  30.055  21.644  22.165 -0.2546 -0.0155 -0.0188
62463W        W99957   5.007   7.862   4.702  0.1162 -0.1034 -0.2492
62464W        W99958  11.173   9.277  20.015 -0.0021  0.2494 -0.1297
62465W        W99959  17.208  19.385   1.170 -0.1326  0.0953  0.0850
62466W        W99960  22.683  34.004  15.394 -0.0777 -0.5339  0.2142
62467W        W99961   1.550   2.684  17.203  0.1956  0.1053 -0.0628
62468W        W99962  25.995  12.101  14.811 -0.0962 -0.0594 -0.0173
62469W        W99963  34.677  34.725  24.779 -0.0333 -0.0044 -0.0632
62470W        W99964  13.051  29.136   9.117 -0.6041 -0.0228 -0.1129
62471W        W99965  23.894   8.068  14.175  0.0810 -0.1495  0.0396
62472W        W99966  30.446  23.566  22.287 -0.1939 -0.0367 -0.1542
62473W        W99967   8.112  17.392  22.618  0.0782  0.1631  0.0693
62474W        W99968  30.925  32.062  25.062  0.1632  0.1186 -0.0064
62475W        W99969  10.817  10.282   8.264 -0.4125  0.1144  0.1397
62476W        W99970   3.521  31.525  10.113  0.0435 -0.0072 -0.3262
62477W        W99971  33.192  30.988  16.344 -0.0869  0.2153  0.1312
62478W        W99972  30.488  12.919  24.683  0.4466 -0.1798  0.1544
62479W        W99973  14.286  26.908  10.982 -0.0945  0.1536 -0.0587
62480W        W99974  32.454   0.994   1.860 -0.1336  0.1643 -0.3246
62481W        W99975   4.030  23.558   4.238  0.1528  0.1762 -0.3454
62482W        W99976   3.653  31.255  25.744 -0.0565  0.3679 -0.0890
62483W        W99977  22.132  17.900  16.489 -0.0885 -0.2808  0.1204
62484W        W99978  14.563   0.239   2.922 -0.1571 -0.0795 -0.0251
62485W        W99979  34.740   0.807  20.950  0.1126 -0.0625  0.3198
62486W        W99980  12.571   7.348  25.651  0.0141 -0.2234 -0.3156
62487W        W99981   5.741  30.912   7.499 -0.1126  0.3000 -0.0618
62488W        W99982   6.769   5.554  23.081 -0.1189 -0.2924 -0.3408
62489W        W99983   7.114  25.279  14.398 -0.1235  0.0435  0.2028
62490W        W99984   9.839  29.784  10.076 -0.0813 -0.1642  0.0281
62491W        W99985  32.990  13.933   0.011 -0.2025 -0.2698 -0.0320
62492W        W99986  11.951  21.289  12.833  0.0563  0.1456  0.1063
62493W        W99987  21.635  30.680   4.055 -0.2513 -0.1454  0.0636
62494W        W99988  18.823   2.977   9.259  0.0376 -0.2690 -0.0964
62495W        W99989   0.533   7.062  25.959  0.0556 -0.1613 -0.0377
62496W        W99990   8.158  20.474   4.026 -0.1693  0.3938  0.0539
62497W        W99991  21.173  14.081   0.003 -0.2696  0.0019 -0.2348
62498W        W99992  28.319  27.540   0.795 -0.0850  0.0048 -0.4427
62499W        W99993   4.290   1.994  22.733  0.0644  0.3068  0.2127
62500W        W99994  21.907   8.967  18.191  0.3329 -0.0949 -0.0905
62501W        W99995  27.273  13.476   6.286 -0.1988 -0.1077  0.0446
62502W        W99996  33.941   4.721  14.556  0.0479  0.0360  0.0407
62503W        W99997  33.693  34.763  14.458  0.1916 -0.2084  0.0759
62504W        W99998   1.315   1.176  17.263  0.3565 -0.1032  0.1620
62505W        W99999  25.357  28.602  24.972 -0.1199  0.0451 -0.0389
62506W        W    0  29.757   9.246  17.160 -0.0195 -0.0976 -0.2436
62507W        W    1  14.964   0.610  20.593  0.3822 -0.3056  0.4600
62508W        W    2  33.437  26.452  12.003 -0.2844 -0.2767 -0.3407
62509W        W    3  25.469  18.468   9.303  0.0031  0.1640 -0.0801
62510W        W    4  20.040  35.078   7.167  0.2672 -0.4319 -0.1696
62511W        W    5  12.026  32.732  21.390  0.2123  0.0716  0.1121
62512W        W    6  10.956  28.875  16.975 -0.0141 -0.1953 -0.1643
62513W        W    7  31.096   7.858  18.640  0.0720 -0.2003 -0.2558
62514W        W    8  31.500  27.532  18.851  0.1700 -0.1440  0.2174
62515W        W    9  17.804  28.531   9.996 -0.1073  0.2290  0.1157
62516W        W   10   1.313   9.332  22.981 -0.3628 -0.0214  0.2209
62517W        W   11  13.638   2.971  23.703  0.0616 -0.1327  0.1280
62518W        W   12  14.306  22.618  12.752 -0.1856  0.0888  0.0533
62519W        W   13   4.366  19.614  24.252  0.0050  0.0725  0.1327
62520W        W   14  29.350  17.002   7.235 -0.1257 -0.3115  0.0100
62521W        W   15   7.861  30.027   2.781  0.2958  0.0129  0.0293
62522W        W   16  19.563   0.829  23.300  0.0762  0.0454  0.0080
62523W        W   17  34.853  11.674   8.587  0.0366  0.2586  0.0290
62524W        W   18  23.424  23.451  20.942 -0.1240 -0.2024 -0.1981
62525W        W   19  16.010   9.167   6.800 -0.0612  0.0617 -0.0802
62526W        W   20  29.306  22.318  20.891 -0.2291  0.2992  0.1779
62527W        W   21  22.529  27.702   2.188  0.0242 -0.4488  0.2245
62528W        W   22  19.752  26.228   5.881 -0.0127 -0.2101  0.2240
62529W        W   23   4.654  34.143  22.821 -0.2909  0.1173 -0.1967
62530W        W   24   2.046   2.413  17.910 -0.0506  0.1049 -0.2176
62531W        W   25  27.917  34.072  22.615 -0.0214  0.2276  0.1900
62532W        W   26  21.558   0.130   1.021  0.0025  0.0916  0.0984
62533W        W   27  22.910  33.979   6.207 -0.2022  0.1645  0.2326
62534W        W   28  30.353   7.292  13.932 -0.0523  0.0875 -0.0376
62535W        W   29  25.757  32.698  20.708 -0.0072 -0.1067  0.3200
62536W        W   30  34.307  35.059  16.361  0.2057  0.0731 -0.1550
62537W        W   31   7.513  15.661  24.645  0.1605  0.0792 -0.1092
62538W        W   32  20.480  29.359  17.413  0.0322 -0.0281 -0.0906
62539W        W   33  22.020   0.816   7.625  0.2489  0.0858  0.1809
62540W        W   34   5.104  14.630  19.689 -0.0532  0.0620  0.1974
62541W        W   35   4.999   4.373  25.753  0.5108  0.0189 -0.4270
62542W        W   36  22.180  13.818  26.093  0.0565  0.3342 -0.1120
62543W        W   37  29.521  34.805  12.401  0.0230 -0.2531  0.0419
62544W        W   38  10.376  14.007  11.629  0.2274 -0.1306 -0.1900
62545W        W   39   9.569  18.046   9.123  0.2818  0.1286 -0.0720
62546W        W   40  19.295  21.011   6.112  0.3976  0.2177 -0.2677
62547W        W   41   7.867  18.678  12.304 -0.1546  0.0390  0.0921
62548W        W   42  25.996  17.484  21.909 -0.1164  0.0409 -0.1522
62549W        W   43  30.100  23.665   8.835 -0.1373  0.1255  0.0856
62550W        W   44  14.073  24.773   1.677 -0.1122  0.2764  0.0967
62551W        W   45   6.225  19.040   6.572 -0.2111 -0.5458 -0.4218
62552W        W   46   8.704  13.746  10.337 -0.1831 -0.0066 -0.0830
62553W        W   47   3.420   4.492  24.124  0.2822  0.2545 -0.1042
62554W        W   48   6.126   2.757  21.245  0.2112 -0.1333  0.1614
62555W        W   49  27.379   1.550   3.413  0.2462 -0.0931 -0.0615
62556W        W   50  13.328   3.616  20.276 -0.0421 -0.0858  0.0921
62557W        W   51  16.020   0.265  10.963 -0.0349  0.1123 -0.0065
62558W        W   52  30.435  33.272   4.270  0.1029  0.0202  0.2438
62559W        W   53  15.530   5.935  24.724 -0.4116 -0.0965  0.0535
62560W        W   54  11.273  17.533   7.968 -0.2534  0.1184 -0.0986
62561W        W   55  25.065  17.474   7.092 -0.0331 -0.0626  0.0217
62562W        W   56   0.557   9.812  25.467  0.1872 -0.2779  0.1375
62563W        W   57   8.048  28.960   0.573  0.2285 -0.0315  0.0190
62564W        W   58  20.942  17.138  19.552 -0.5336  0.1020 -0.2705
62565W        W   59  31.388  15.990  17.331  0.2480  0.2982  0.4154
62566W        W   60   7.872   4.418  21.098 -0.2251 -0.2178  0.0865
62567W        W   61  26.124  25.706  20.721 -0.0137  0.1904 -0.2853
62568W        W   62  20.525  20.108   5.949 -0.0297  0.2922  0.2908
62569W        W   63  13.551  24.132  24.363 -0.1527  0.0831 -0.1168
62570W        W   64  17.158  14.615   1.352  0.1606 -0.2667 -0.1067
62571W        W   65   1.340  34.166  24.558 -0.2011 -0.3427 -0.0244
62572W        W   66  19.731  22.419  11.056 -0.3833 -0.1434 -0.0042
62573W        W   67   6.136  20.322  20.362 -0.0488 -0.0121  0.2675
62574W        W   68   8.589  22.727   8.048 -0.2835 -0.0789  0.2159
62575W        W   69  25.141   0.980  15.337  0.0651 -0.4742 -0.0985
62576W        W   70  23.967   1.530  21.726 -0.2691  0.0138  0.0958
62577W        W   71  11.409  18.391  14.843  0.1029  0.1261  0.0581
62578W        W   72  32.608  17.920  20.461 -0.0041 -0.0499 -0.4916
62579W        W   73  14.711   3.600   2.407  0.2256 -0.1562 -0.1052
62580W        W   74   1.060  24.624   0.226 -0.2744 -0.0330 -0.0689
62581W        W   75   6.440  11.624   5.263  0.2329  0.1778  0.1996
62582W        W   76  22.660  17.239  20.411  0.0727  0.3179  0.0541
62583W        W   77  18.548  31.087  22.216 -0.1344  0.1436  0.2214
62584W        W   78  13.141  19.038  22.567 -0.0146 -0.0868  0.4184
62585W        W   79  28.129   4.192  17.590  0.0717 -0.1010  0.2967
62586W        W   80  20.803   4.859   2.393 -0.0664  0.0978  0.2239
62587W        W   81  25.696  24.790  17.376 -0.0335 -0.1890 -0.1479
62588W        W   82  15.403  22.068   6.189 -0.1493 -0.2027  0.0182
62589W        W   83  20.053   1.173   4.837  0.3813 -0.0580 -0.1834
62590W        W   84  22.878   7.982   3.670 -0.1256 -0.3134 -0.2308
62591W        W   85  28.118  12.941  16.000 -0.1979 -0.2201  0.0613
62592W        W   86   0.173  34.053  20.874 -0.0693  0.0570  0.0550
62593W        W   87  33.476  25.868  13.337  0.2213 -0.1214  0.1809
62594W        W   88  19.247   8.444  23.769 -0.1720  0.0410  0.0437
62595W        W   89  24.884  16.508  11.546 -0.0786 -0.0797 -0.0993
62596W        W   90  17.611  10.322  25.913  0.0717  0.2426 -0.0729
62597W        W   91  29.371  30.218   4.729  0.2645  0.1783  0.1103
62598W        W   92  27.935  15.717  15.613  0.2251 -0.2367  0.2447
62599W        W   93   8.940  12.074   2.032  0.1313 -0.0027 -0.2978
62600W        W   94  15.744  27.334   5.135 -0.0614  0.4047  0.2706
62601W        W   95  12.650  32.357  14.904  0.1952  0.1649  0.1497
62602W        W   96  28.440   3.022   4.338  0.0096  0.1165 -0.1854
62603W        W   97  34.643   4.798   6.884 -0.0971 -0.1178  0.0073
62604W        W   98   0.963  28.452  19.208  0.3365  0.1364 -0.1678
62605W        W   99  31.983  18.518   6.925  0.1057 -0.1324  0.2971
62606W        W  100  20.134   4.901   0.238 -0.0348  0.1650 -0.2156
62607W        W  101  11.902  18.390  20.909  0.0374 -0.1516 -0.1262
62608W        W  102   0.808  30.859  20.513  0.0551 -0.5253  0.1723
62609W        W  103  13.225  28.708  10.936  0.0707  0.2011  0.1901
62610W        W  104  16.335   3.877   6.823  0.0671 -0.1942  0.0745
62611W        W  105  10.666  18.613  13.618  0.1903  0.0427 -0.0156
62612W        W  106   8.185  34.925   2.477 -0.1670 -0.2666  0.1200
62613W        W  107   5.502  35.137  25.111  0.1188 -0.1005 -0.2800
62614W        W  108  17.001  28.854  21.912  0.1629  0.0182  0.0055
62615W        W  109  12.704  26.758   3.858 -0.0433  0.1624 -0.3182
62616W        W  110  31.783   9.671  13.655 -0.0114 -0.2279 -0.2145
62617W        W  111  32.678  25.656  12.677  0.0603  0.1740  0.2280
62618W        W  112   2.839  14.233  25.160 -0.0496 -0.0688  0.0183
62619W        W  113  18.871  22.116  20.725  0.3595 -0.1036  0.1743
62620W        W  114  24.578  31.179  15.348  0.0222  0.0809  0.5099
62621W        W  115  35.155  16.854  20.291  0.0401  0.1967  0.1351
62622W        W  116   5.215  11.860   3.740 -0.0435  0.1918 -0.0472
62623W        W  117  32.783  31.462   6.249 -0.1164  0.1246 -0.2524
62624W        W  118  33.070  15.639   8.806  0.0419  0.0652  0.2400
62625W        W  119  23.275  32.004  21.534 -0.3960 -0.3008  0.0565
62626W        W  120  26.068  12.252  13.711 -0.1087  0.4480  0.0861
62627W        W  121  16.071  33.754   6.928 -0.1240  0.2278  0.1493
62628W        W  122   9.863  27.821  10.525  0.1196  0.0255  0.0767
62629W        W  123  16.360  33.852   9.827  0.1140  0.0582 -0.1290
62630W        W  124  34.105  14.929  12.158 -0.0801 -0.0006 -0.0308
62631W        W  125   8.811  22.558  15.141  0.2528  0.0204 -0.3384
62632W        W  126   4.276  23.344  21.869  0.1904 -0.0280 -0.2038
62633W        W  127   6.007  26.523   6.215 -0.2967  0.0597 -0.0449
62634W        W  128   8.348  16.726  19.368  0.3734  0.2821 -0.0646
62635W        W  129   2.266  14.628  18.315  0.2821 -0.0696 -0.2838
62636W        W  130   6.596  33.827   4.576 -0.0232  0.1059  0.3076
62637W        W  131  28.380   1.798  23.391 -0.1134 -0.1507 -0.2810
62638W        W  132  18.547  10.008  20.572  0.1834  0.2978 -0.3361
62639W        W  133   1.172  16.258  13.280  0.1854 -0.2663  0.2436
62640W        W  134  19.255  20.780  21.745 -0.0478  0.1339 -0.3125
62641W        W  135  29.317  29.927  25.299  0.0498 -0.0186 -0.1672
62642W        W  136  19.897  15.032  20.907 -0.0985 -0.0151 -0.2883
62643W        W  137  21.102  21.827   5.166  0.0584  0.1834  0.1768
62644W        W  138  29.807  27.471   9.459  0.0055 -0.3442 -0.0310
62645W        W  139  16.039  15.446  18.649  0.2904  0.4265  0.0825
62646W        W  140  16.760  12.677  21.343  0.2968  0.3295 -0.1008
62647W        W  141   1.668  30.531  17.510  0.2712  0.1095  0.1107
62648W        W  142  24.925  11.228  25.828  0.0918 -0.1755  0.0035
62649W        W  143  22.216   5.277   3.184  0.2194  0.1158 -0.2695
62650W        W  144   9.177  28.861   4.540  0.0417 -0.0343  0.2311
62651W        W  145   5.278  31.005   8.757  0.0449 -0.1702 -0.0444
62652W        W  146   6.199  31.845   8.265 -0.1616 -0.2280 -0.3933
62653W        W  147  29.158  25.428   7.759 -0.0688 -0.0709 -0.0116
62654W        W  148   9.337  17.518  13.308 -0.1148  0.0997 -0.0428
62655W        W  149  25.316   6.494  13.863 -0.2462  0.2882 -0.1021
62656W        W  150  30.024   1.735   5.861 -0.1162  0.0956 -0.1513
62657W        W  151   3.857  11.757  21.010  0.0910 -0.0059 -0.0309
62658W        W  152  22.239  20.290   2.144 -0.1738  0.0735 -0.2681
62659W        W  153   3.781  15.992  22.857 -0.3887  0.0912  0.1694
62660W        W  154  28.634  25.375  23.787  0.1535  0.3532 -0.1194
62661W        W  155  20.600  12.203  15.767 -0.0684 -0.0419  0.0193
62662W        W  156   3.029  32.281   6.995 -0.1236 -0.2041 -0.1008
62663W        W  157   3.824  32.059  21.872  0.2275  0.1360  0.0142
62664W        W  158   2.640   9.902   2.301  0.0035  0.5161 -0.0140
62665W        W  159  10.351   0.767   7.482 -0.0543 -0.0188  0.0516
62666W        W  160  16.677  31.196   1.738 -0.1844 -0.1356 -0.1614
62667W        W  161  22.492  15.109   2.751  0.2301  0.0352 -0.0975
62668W        W  162  27.475  16.726   5.322 -0.1780 -0.1413  0.0753
62669W        W  163  10.963  28.073  22.742 -0.0604  0.0567 -0.1306
62670W        W  164  22.402  24.958  13.515 -0.0105  0.2414  0.2831
62671W        W  165   5.086  20.461   5.232 -0.0833  0.0026  0.2121
62672W        W  166  32.845  18.468   7.239  0.0189 -0.1463  0.1079
62673W        W  167  26.623  32.312  20.000 -0.2774 -0.2684  0.0132
62674W        W  168  33.427   6.017  20.559 -0.0898 -0.1423  0.0863
62675W        W  169   8.033  32.647   3.890  0.2122 -0.1317  0.3720
62676W        W  170  30.407   5.184  13.393 -0.2568  0.0155 -0.2096
62677W        W  171   6.878   6.227   9.563  0.2646 -0.4110 -0.1079
62678W        W  172  23.903  20.140  23.043  0.1914  0.0273  0.0091
62679W        W  173  24.647  26.512   1.906  0.2934  0.0103 -0.3389
62680W        W  174  34.604  20.155  10.979  0.1269  0.0700 -0.0819
62681W        W  175  21.144   2.683   6.415 -0.1341 -0.0622 -0.1023
62682W        W  176  20.669  34.045   5.595 -0.2123  0.0405  0.1691
62683W        W  177  33.802   2.198   0.819  0.2470 -0.4385 -0.1664
62684W        W  178  21.292  12.605   0.428 -0.3514  0.1250  0.0808
62685W        W  179  25.191  27.947   9.559 -0.4755  0.0003 -0.0735
62686W        W  180  22.235   8.302   0.105 -0.1731 -0.1397 -0.1585
62687W        W  181  26.850  16.079  18.811 -0.3099  0.0749  0.0539
62688W        W  182  12.578  13.398   6.203 -0.0701 -0.1072  0.1657
62689W        W  183  16.047  32.108   5.815 -0.2536  0.1056 -0.2530
62690W        W  184  19.546   0.913  16.459 -0.1711  0.0263 -0.1583
62691W        W  185  25.444  24.079  25.277 -0.0743  0.2594  0.1812
62692W        W  186  18.159  11.636   1.041  0.0243 -0.1875 -0.2491
62693W        W  187   3.464  26.015  26.113  0.1605  0.0171  0.0518
62694W        W  188  32.059  18.395   6.434 -0.0581  0.1077 -0.0799
62695W        W  189  27.752  20.119  22.376  0.0194 -0.2501 -0.0212
62696W        W  190  12.773  12.692   2.050 -0.0986  0.2187 -0.3551
62697W        W  191  11.907  17.619   3.633 -0.1009 -0.0687  0.0178
62698W        W  192  35.383  20.669  25.157  0.1849  0.0731  0.0707
62699W        W  193  14.266   1.615  10.308 -0.0477  0.1375  0.0771
62700W        W  194  18.742  17.432  11.081  0.1945 -0.1035  0.0665
62701W        W  195  28.775  16.172  14.242 -0.0728  0.6431 -0.1474
62702W        W  196  33.982  34.414   1.356  0.2037  0.2612  0.0335
62703W        W  197   7.888  32.761   8.597 -0.2271  0.1743  0.3108
62704W        W  198   2.577  22.761  25.985  0.0833  0.0034  0.0127
62705W        W  199   2.096  19.755  26.086 -0.3972  0.0025  0.0788
62706W        W  200  17.757  27.580   8.802  0.0041 -0.1635 -0.2771
62707W        W  201  15.605  34.421  10.597 -0.1984  0.1128  0.1814
62708W        W  202  25.599   8.671  16.857 -0.0463 -0.2964 -0.1528
62709W        W  203  27.281  22.145   7.039  0.0362  0.0672 -0.4496
62710W        W  204  19.114  26.672  22.887  0.1004  0.1212  0.4132
62711W        W  205  25.437  13.099  14.308 -0.1420 -0.2977  0.2165
62712W        W  206  20.078  24.211  23.939 -0.0979 -0.1066  0.2022
62713W        W  207   6.808  27.384   4.323 -0.0537 -0.1461  0.0345
62714W        W  208   0.797  16.551  19.613 -0.0873 -0.1045  0.0729
62715W        W  209   3.464  30.218   1.296  0.0359  0.0050  0.2200
62716W        W  210   1.240  19.643  18.077 -0.1570 -0.2854  0.0238
62717W        W  211   7.394   3.930   3.730  0.0709 -0.0364  0.2142
62718W        W  212  30.068  15.344  19.550 -0.1447  0.1377 -0.1167
62719W        W  213  20.001  15.145  16.406  0.0398  0.3288 -0.4202
62720W        W  214  26.944  17.572  10.560  0.0648 -0.0206  0.1139
62721W        W  215   1.796  34.365   7.371 -0.2240 -0.2521  0.1145
62722W        W  216   6.001  15.008   7.795  0.3452 -0.0487 -0.0602
62723W        W  217  30.280  31.708  21.433  0.0760 -0.1742  0.1877
62724W        W  218  31.970  18.770   5.939 -0.0075  0.0702  0.1274
62725W        W  219  21.127  32.724   1.264 -0.0245 -0.2634  0.1272
62726W        W  220  30.413   1.727   1.707  0.2779  0.0265 -0.0597
62727W        W  221   7.330   3.711  11.835 -0.0899 -0.0929 -0.0231
62728W        W  222  24.163  22.806  14.089 -0.0665  0.1686  0.3452
62729W        W  223   9.493  15.298   0.952 -0.0912 -0.2855  0.1475
62730W        W  224   3.235  32.185  12.201 -0.1236  0.1759  0.0347
62731W        W  225  11.233  32.850   8.328 -0.0280  0.1553 -0.0499
62732W        W  226  28.705   3.855  21.148  0.2012  0.0238  0.0144
62733W        W  227  30.708  20.364   9.976  0.2226 -0.1338 -0.0843
62734W        W  228  14.144   4.288  24.491  0.3509 -0.2227 -0.1292
62735W        W  229  14.943  24.922   1.051  0.1469 -0.0681 -0.0568
62736W        W  230  20.817  16.997  18.565 -0.0643  0.0704 -0.0850
62737W        W  231  11.152  24.224   7.103  0.1983  0.1282  0.2638
62738W        W  232   9.695  22.746  15.308 -0.0688 -0.2233  0.1729
62739W        W  233  25.609  31.901  21.010 -0.0582 -0.1411 -0.2837
62740W        W  234   5.265   6.725  17.561 -0.0482  0.0615  0.0190
62741W        W  235  29.634  11.970  16.999  0.1144 -0.1889  0.1301
62742W        W  236   3.682  16.234  16.620 -0.1560 -0.0458 -0.0615
62743W        W  237  20.773  31.066   1.479 -0.1684 -0.0333  0.1015
62744W        W  238  10.059  28.393  10.645 -0.0128 -0.0688 -0.3138
62745W        W  239  26.190  29.053  18.675 -0.2158  0.1476  0.3234
62746W        W  240  26.739  31.398  15.531 -0.0396  0.1551  0.0200
62747W        W  241  20.472  13.934   0.622  0.0400 -0.2053 -0.1496
62748W        W  242   0.282  30.631   1.356 -0.1156  0.1722 -0.1128
62749W        W  243  14.070   3.833   6.834 -0.1475  0.1941 -0.0006
62750W        W  244  25.493  33.607  17.357  0.2439 -0.1750  0.1346
62751W        W  245  16.822  23.443  23.169  0.0329 -0.1897  0.1461
62752W        W  246   4.308  24.349  21.114 -0.0576  0.4477  0.0424
62753W        W  247  21.928   5.231   5.561 -0.1005 -0.0538 -0.3138
62754W        W  248  12.640  23.322   9.781 -0.4295  0.2897  0.1395
62755W        W  249  29.303  33.031  12.048 -0.0682  0.2593 -0.0287
62756W        W  250  15.530  15.911   0.595 -0.2070  0.1817  0.0891
62757W        W  251   3.932  25.804   5.186  0.3875  0.1265 -0.1636
62758W        W  252  34.266  35.383   7.554 -0.0952  0.1710  0.0363
62759W        W  253  29.038  30.239  25.827  0.1538  0.0765 -0.0096
62760W        W  254  31.276  29.600   3.884 -0.1215 -0.0208  0.0240
62761W        W  255  27.964   7.210  21.888 -0.1906  0.0485 -0.0360
62762W        W  256  30.322  23.323  17.445 -0.2812 -0.0173 -0.0659
62763W        W  257   0.359  34.698  16.783 -0.1859 -0.3186  0.2677
62764W        W  258   7.811   2.744   5.433  0.0493  0.5280 -0.0867
62765W        W  259  17.952  30.389   0.777 -0.1460 -0.1316  0.1701
62766W        W  260  14.856  22.858   5.341  0.1190 -0.0122  0.2823
62767W        W  261   1.560   5.285  25.012 -0.0818 -0.0400 -0.2365
62768W        W  262   6.294  13.852  22.661  0.0728 -0.2379  0.1575
62769W        W  263  27.822  22.938   8.616 -0.0179  0.2751  0.0826
62770W        W  264  22.879  12.474  13.807 -0.0856 -0.1596 -0.0352
62771W        W  265   8.279  23.956   2.076  0.1850  0.0580  0.0787
62772W        W  266  14.928  26.079   9.626  0.2001  0.0086  0.1026
62773W        W  267  19.107  33.845   0.012 -0.1164  0.1546 -0.0350
62774W        W  268   7.646  32.431  21.101  0.1110 -0.3708  0.2893
62775W        W  269  14.190   3.306  22.455  0.0068 -0.1300  0.0076
62776W        W  270  14.439   2.558  10.302 -0.3372 -0.1096 -0.0554
62777W        W  271  34.438  24.943  24.818 -0.1423  0.0065  0.1290
62778W        W  272   4.578   9.289  23.531  0.3526  0.2887 -0.1916
62779W        W  273   9.710  15.231  13.162  0.0667 -0.0266  0.2597
62780W        W  274  32.185  17.010   6.949 -0.0535 -0.0167  0.3459
62781W        W  275  26.442  26.729  17.963 -0.1310  0.3181  0.0562
62782W        W  276  27.084   9.660  21.963  0.0851  0.3193 -0.3911
62783W        W  277   5.502  32.902  23.063  0.0743  0.1113  0.0286
62784W        W  278   5.512  30.545   8.965  0.1454 -0.1578  0.1320
62785W        W  279  15.554   7.367   1.746 -0.0078  0.0245  0.5274
62786W        W  280  29.530  27.669   0.546  0.1057  0.0252  0.4177
62787W        W  281  31.320  26.136  13.608  0.0265 -0.0132  0.0740
62788W        W  282  33.093  10.628  22.142 -0.0420 -0.1004  0.0254
62789W        W  283  20.817  20.077   1.924 -0.3473  0.0830 -0.1962
62790W        W  284  34.634   8.496  17.291  0.4295 -0.3356 -0.0529
62791W        W  285  18.217  20.319  21.371  0.0475 -0.1121 -0.4256
62792W        W  286  13.013  24.441  12.769 -0.1428  0.1196 -0.0404
62793W        W  287  26.248  19.778   8.867 -0.0189 -0.3440 -0.0655
62794W        W  288  33.415  24.951   0.391 -0.0284 -0.0735 -0.3106
62795W        W  289  28.964  13.811  13.811 -0.0392 -0.1268  0.0639
62796W        W  290  10.077  28.347   6.966  0.0215  0.1596 -0.3617
62797W        W  291  28.218  21.077  13.194  0.0518  0.3681  0.2561
62798W        W  292  33.774  21.635  24.303  0.2537  0.2951  0.0126
62799W        W  293  20.282  34.372   7.383  0.0914  0.0565  0.3114
62800W        W  294  25.330   0.290  19.305 -0.2267  0.1009 -0.1083
62801W        W  295  25.936  13.159  10.226  0.0319 -0.0589  0.0514
62802W        W  296  15.636  21.808  24.527  0.0974  0.0127 -0.0496
62803W        W  297   7.037   4.435  12.976  0.0873 -0.3425 -0.3369
62804W        W  298   2.289   0.796  25.751 -0.0554 -0.1363  0.1288
62805W        W  299  13.093  31.778   3.208  0.1954 -0.0159  0.0610
62806W        W  300  34.555  32.485  15.308 -0.3632  0.1676 -0.3753
62807W        W  301  24.174  12.352  24.054 -0.0606 -0.0711  0.0049
62808W        W  302  22.419  13.834  24.209 -0.1789  0.0421  0.0278
62809W        W  303   6.662  34.661  21.764 -0.0156 -0.1348 -0.0112
62810W        W  304  28.839  29.862  13.182 -0.2763  0.0029 -0.1496
62811W        W  305  29.343  32.518  20.790 -0.1468  0.2178 -0.3006
62812W        W  306  20.415   5.937   2.418 -0.1561  0.0600 -0.1010
62813W        W  307  33.712   3.191  14.564 -0.2026 -0.1139  0.2892
62814W        W  308   7.858  28.785  12.549 -0.2626  0.0228 -0.1653
62815W        W  309   9.076  22.527   2.351 -0.2210 -0.0310  0.2179
62816W        W  310  12.405  34.074  21.148  0.2739 -0.1703 -0.1580
62817W        W  311   9.577  28.530  23.618  0.0303  0.4920  0.1352
62818W        W  312  31.121  16.080  20.101 -0.1061  0.2436  0.3383
62819W        W  313  24.148  23.114  14.470 -0.0697  0.0860 -0.1823
62820W        W  314  21.205  30.315  21.062  0.1969 -0.2125  0.1291
62821W        W  315  12.703  10.365  13.606  0.2570 -0.2097 -0.0096
62822W        W  316   2.704  28.533  19.664  0.1330 -0.1449  0.0421
62823W        W  317  22.688  33.000  24.529  0.1223  0.0596  0.0801
62824W        W  318   5.688  11.764   2.334  0.0695  0.0420  0.3189
62825W        W  319   5.327  35.025   5.966  0.0745  0.0609  0.0169
62826W        W  320  25.113  28.919  20.279  0.1507 -0.2111  0.2825
62827W        W  321  21.329   8.848   3.072 -0.0113 -0.1834 -0.1928
62828W        W  322  13.777  25.851  25.919  0.1221 -0.0467  0.2652
62829W        W  323  21.785  35.055  24.510 -0.0719  0.2762  0.1253
62830W        W  324   1.271  16.372   1.698  0.0099 -0.2555 -0.0411
62831W        W  325  23.198  32.208  13.664  0.1223 -0.0474 -0.2194
62832W        W  326  24.732   1.186  21.150  0.3796 -0.1705  0.3015
62833W        W  327  27.486  27.447   3.144  0.4689  0.1352 -0.1366
62834W        W  328   2.399  33.758   4.173  0.0468 -0.0983 -0.1705
62835W        W  329  24.884  32.564  24.660  0.4510  0.1334 -0.0602
62836W        W  330  25.182  28.391  20.451  0.2435 -0.0571 -0.1961
62837W        W  331  32.018   3.397   2.233 -0.1646 -0.2027 -0.1371
62838W        W  332  21.041  34.166  22.841 -0.1345  0.2049 -0.3604
62839W        W  333  11.854  31.314   9.081 -0.1957  0.0595 -0.2449
62840W        W  334  35.342  31.585   1.898 -0.0761  0.3755 -0.1348
62841W        W  335  35.274  10.956  22.743  0.0929  0.0869  0.2505
62842W        W  336  34.535  16.613  16.502  0.3004  0.0347  0.0778
62843W        W  337  19.886   1.499   0.177 -0.1885  0.0503  0.2616
62844W        W  338  12.971  17.158   9.956 -0.0832  0.2097  0.1351
62845W        W  339  34.836  32.085   6.702 -0.0186 -0.1083  0.0909
62846W        W  340  16.741  34.746   3.974  0.1500  0.0262  0.2761
62847W        W  341  12.484   0.913  21.839 -0.1535  0.0304 -0.2032
62848W        W  342  22.368  15.789   2.722 -0.0764 -0.0819  0.1405
62849W        W  343  14.381   8.865   1.078  0.2618 -0.1804  0.2646
62850W        W  344  33.857   1.198  21.047 -0.0345  0.0699  0.0527
62851W        W  345   0.515  34.417   8.156 -0.1025 -0.1147 -0.0461
62852W        W  346   3.828  34.818   7.066 -0.1394  0.0328 -0.1993
62853W        W  347  30.183   2.083  14.974  0.3558  0.4271  0.0461
62854W        W  348  27.591  20.150  22.926  0.0525  0.2723 -0.2018
62855W        W  349   9.976  33.220   3.988 -0.2908 -0.0847  0.3012
62856W        W  350  16.372  26.492  14.510  0.1290 -0.1675 -0.2180
62857W        W  351  24.191   3.874   0.499  0.0186 -0.0898 -0.2804
62858W        W  352  10.013  21.389   9.065  0.0447  0.0767 -0.0271
62859W        W  353   8.297   2.019  23.652 -0.0576 -0.0815 -0.0079
62860W        W  354  17.693  21.823   0.736 -0.1372  0.0730 -0.0623
62861W        W  355  26.595   8.977  22.410 -0.0678  0.1500  0.1924
62862W        W  356   5.261   8.929  17.942 -0.0272  0.2006  0.0095
62863W        W  357  17.538  26.271   8.126 -0.1159 -0.2313  0.3318
62864W        W  358   9.224  13.598   7.681  0.2418 -0.2603 -0.4545
62865W        W  359  16.409   2.238   2.851 -0.1986  0.3495  0.2083
62866W        W  360   1.285  22.520  25.473  0.0380  0.0172 -0.2704
62867W        W  361  27.129   3.786  21.965  0.0423 -0.0710  0.3063
62868W        W  362  29.969  30.046  11.369  0.1144  0.1685 -0.1339
62869W        W  363   6.465  10.813  10.785 -0.0386  0.2609  0.0931
62870W        W  364  17.680   5.841   9.262  0.0701  0.2400 -0.2355
62871W        W  365   8.204   7.623   3.761  0.2334 -0.6487  0.2109
62872W        W  366  20.523  26.923   1.723 -0.3909 -0.0862  0.2624
62873W        W  367  16.042  34.419  20.537 -0.1933 -0.2718 -0.2263
62874W        W  368  11.827  30.133  24.870 -0.0527 -0.0396  0.1905
62875W        W  369  30.285  13.607  12.242 -0.2495 -0.0356 -0.0527
62876W        W  370   1.845  20.847   2.958  0.1316  0.1600  0.1467
62877W        W  371  16.182   0.347   7.564 -0.0165 -0.0517 -0.0827
62878W        W  372  19.253  33.549  18.195  0.1525 -0.1124 -0.1519
62879W        W  373  13.555  32.854  22.424  0.2439 -0.0174 -0.0596
62880W        W  374   4.032   6.491   5.781  0.0224  0.3268  0.1902
62881W        W  375  31.443   8.184  23.302 -0.0867 -0.0110 -0.0114
62882W        W  376   2.599   1.238  20.840  0.1045 -0.2143  0.1020
62883W        W  377   9.437  13.985  12.490 -0.0652 -0.2555  0.4603
62884W        W  378  19.672  30.034   5.590 -0.2284 -0.3227  0.0670
62885W        W  379  32.252   0.418   5.928  0.1135  0.0437 -0.1635
62886W        W  380   9.824  31.549  13.972  0.0935 -0.1233  0.1772
62887W        W  381  11.729  26.995   8.330  0.0899 -0.2262 -0.2336
62888W        W  382   4.278  12.999  22.326 -0.2862  0.5558  0.1382
62889W        W  383  10.651  31.369  11.265 -0.0975 -0.0247 -0.1268
62890W        W  384  29.741  11.578   6.320 -0.1364  0.2430  0.0958
62891W        W  385  30.703  22.517  19.846 -0.1252 -0.2195  0.1570
62892W        W  386  34.371  25.558  21.006  0.1325 -0.1968  0.1651
62893W        W  387   9.360  29.674   3.507  0.2522  0.1283  0.1849
62894W        W  388  33.679   7.072   2.196  0.3293 -0.1451  0.0239
62895W        W  389  31.973  18.083  15.836  0.2026  0.2978 -0.0253
62896W        W  390   4.244   2.534   6.110 -0.0716 -0.0117 -0.2570
62897W        W  391  26.959  24.333  14.184 -0.1031 -0.0141 -0.0370
62898W        W  392  19.568  25.101   7.628  0.2331 -0.1071 -0.2373
62899W        W  393  20.016  28.658   8.008  0.3525 -0.4751  0.0248
62900W        W  394  11.144  32.248   2.762  0.1410 -0.1381 -0.3915
62901W        W  395   6.828   5.442   3.401  0.0670  0.0735  0.1680
62902W        W  396  10.566  34.044   3.212 -0.1791  0.0601  0.2506
62903W        W  397   8.331  23.945  12.296 -0.2282  0.1418  0.2945
62904W        W  398  23.018   4.995  24.406 -0.0964 -0.1535  0.1631
62905W        W  399  17.290  20.940  10.447 -0.1784  0.0180 -0.0139
62906W        W  400  25.405   9.114  25.711  0.1756 -0.1168  0.2990
62907W        W  401  10.961   7.118  21.537 -0.0498  0.0344  0.0928
62908W        W  402  33.292  19.917   8.026  0.0667  0.0595 -0.2129
62909W        W  403   7.006  12.270  22.819  0.2209  0.1113  0.0341
62910W        W  404   4.254  16.076   4.596 -0.1181 -0.1338  0.0446
62911W        W  405  16.128   0.023   9.957 -0.2355  0.0291  0.5391
62912W        W  406  27.224  11.645  25.759  0.0472 -0.2233  0.2178
62913W        W  407  13.877   5.905  24.944  0.3739 -0.0816  0.4044
62914W        W  408  21.701  35.052  24.016  0.2984 -0.4022 -0.0888
62915W        W  409  33.068  22.130  16.723  0.0240  0.2729  0.0218
62916W        W  410   9.194   5.724  20.050 -0.1439 -0.2541  0.1235
62917W        W  411  16.484  19.778   1.480 -0.2209  0.1697  0.0328
62918W        W  412   4.166  15.638  17.803  0.0184 -0.0106 -0.1414
62919W        W  413   2.680  31.789   9.077  0.1773 -0.0002  0.2301
62920W        W  414  18.753  13.997  21.915 -0.0651  0.0561  0.0555
62921W        W  415  17.312  10.928   1.216 -0.0873  0.1981  0.0049
62922W        W  416  17.773  22.330  24.245 -0.5148 -0.0874  0.4241
62923W        W  417  20.537  18.293   0.411  0.4300  0.0638 -0.2816
62924W        W  418  31.865   0.462   5.536  0.0842 -0.1047 -0.2821
62925W        W  419  25.543  21.131  15.318  0.1007  0.2541  0.1482
62926W        W  420  10.141  24.108  18.309  0.1322  0.1183 -0.0494
62927W        W  421  30.926  26.856  21.470 -0.0489 -0.0605  0.0446
62928W        W  422  25.736  26.339  24.396  0.1839  0.1206  0.0641
62929W        W  423   1.561  17.834  14.753  0.0856 -0.5156  0.0268
62930W        W  424   3.561  22.249  19.844  0.1200  0.0164 -0.1270
62931W        W  425  11.648  22.692  12.783 -0.4718 -0.2024  0.3115
62932W        W  426  26.014  24.481  18.249  0.0172  0.0546  0.2775
62933W        W  427  26.086   0.305   0.117  0.0914 -0.0003  0.0524
62934W        W  428  18.125   4.098   7.215  0.1713 -0.1713 -0.0091
62935W        W  429  32.530   9.013  24.905 -0.0896  0.1821  0.0240
62936W        W  430  20.173  13.217  24.914  0.0063  0.0640  0.1142
62937W        W  431  12.629  25.458  23.554  0.5426  0.0549  0.0446
62938W        W  432  16.328  32.933  24.428  0.3671  0.2161 -0.0940
62939W        W  433  26.205  10.718   2.071 -0.0002  0.4026  0.2726
62940W        W  434  10.424  28.941  24.835  0.1969 -0.0032  0.0593
62941W        W  435  23.851  11.827  24.864  0.0143  0.0789 -0.1562
62942W        W  436  28.403  31.416  14.451 -0.1452 -0.3209 -0.0646
62943W        W  437  21.132  26.071   0.813 -0.2856  0.2058  0.0193
62944W        W  438  27.878   3.445   1.990  0.1887  0.0380  0.0779
62945W        W  439  31.536  19.151   8.530 -0.0577  0.0130 -0.4107
62946W        W  440  34.858  31.130  21.207 -0.0031 -0.1108  0.4186
62947W        W  441  22.892   0.573  18.318 -0.3850  0.2563  0.1295
62948W        W  442   6.605  10.121   4.047 -0.2155 -0.0795  0.2524
62949W        W  443  16.764  33.009  24.667 -0.1108 -0.0421 -0.0229
62950W        W  444  28.780  31.712  16.625  0.0698  0.1289 -0.1942
62951W        W  445  32.609  21.508   7.569  0.1408  0.2759  0.1324
62952W        W  446  30.280  13.060  13.435 -0.0985  0.0811  0.0150
62953W        W  447   9.624  22.283  17.385  0.0833 -0.1342 -0.2091
62954W        W  448   1.102  28.749  24.341  0.1958 -0.2032  0.3467
62955W        W  449  13.387  19.861  15.093  0.1001 -0.1621 -0.1669
62956W        W  450   8.978  15.347  11.758  0.0024  0.0979  0.1893
62957W        W  451  22.251  18.122   1.463  0.1022  0.0983  0.0495
62958W        W  452  18.142   4.832  11.473 -0.1405  0.0293  0.2637
62959W        W  453  30.242  15.226   5.381 -0.0525 -0.1027 -0.0647
62960W        W  454   0.928  13.556  15.543  0.0573  0.1417 -0.1446
62961W        W  455  17.813  29.984   2.661  0.0558 -0.3292  0.4908
62962W        W  456   5.308   9.431  26.188 -0.3142 -0.0959  0.0027
62963W        W  457  29.784  13.641  23.258 -0.2281 -0.3179  0.2274
62964W        W  458   0.346  34.786   3.300 -0.1821  0.2103 -0.2354
62965W        W  459   1.278   5.311  19.523  0.1630 -0.2801  0.0488
62966W        W  460  12.452  26.509  11.106  0.1201  0.1659  0.1209
62967W        W  461  29.591  11.089  25.632 -0.3138  0.1781 -0.3662
62968W        W  462   4.510  17.664  17.636  0.0412 -0.1268  0.1059
62969W        W  463   3.385  20.930  23.394 -0.0386  0.2222 -0.1734
62970W        W  464   6.407  32.397   4.604 -0.0949  0.1646  0.0227
62971W        W  465  31.749   5.803   0.507  0.1001 -0.3134 -0.2905
62972W        W  466  23.451  22.205   0.772  0.1053  0.1055  0.0542
62973W        W  467  26.358  31.153   5.195 -0.1398  0.1584 -0.2384
62974W        W  468  24.464  12.082   1.834  0.0864  0.2800  0.0466
62975W        W  469   9.772  22.334   1.920 -0.2244  0.0057  0.3074
62976W        W  470  16.827   0.516   7.101  0.3580 -0.2450 -0.1104
62977W        W  471  26.841  18.247  25.924  0.3725  0.0220  0.3779
62978W        W  472  11.132  24.411  10.532 -0.0768  0.0312  0.0128
62979W        W  473  21.037  26.291   1.338  0.4558 -0.0420 -0.2923
62980W        W  474   0.358  34.731  19.107 -0.1932 -0.2896  0.1398
62981W        W  475  16.062  29.148  11.414  0.2365 -0.0354 -0.3537
62982W        W  476  23.672  23.597   1.774  0.2240  0.1364  0.1156
62983W        W  477   7.673  10.750  17.290  0.1943 -0.3240  0.1691
62984W        W  478  14.683  33.604  20.645  0.0542  0.0560  0.1216
62985W        W  479   7.253   0.990   6.670  0.2653  0.0322  0.1407
62986W        W  480  20.621   2.454  21.638 -0.1210 -0.1131  0.0158
62987W        W  481  20.629  13.929  15.836 -0.1090 -0.2055 -0.2085
62988W        W  482  30.749  14.888  18.828 -0.2368 -0.1042  0.0338
62989W        W  483  12.634   4.166   9.525  0.1674 -0.2878  0.1075
62990W        W  484  19.040   5.694   9.687 -0.0653  0.0668  0.0619
62991W        W  485  21.494  10.923  20.449 -0.0493 -0.2606 -0.0620
62992W        W  486   7.023  13.832   2.678  0.0801  0.0128  0.3327
62993W        W  487  13.149  24.542  22.557 -0.3837  0.1234 -0.0094
62994W        W  488   9.927  29.527   7.197 -0.1707 -0.3548  0.2089
62995W        W  489   4.854  13.155  16.180  0.0419  0.0243 -0.1169
62996W        W  490  10.584  22.730  13.097 -0.2696 -0.1054 -0.1797
62997W        W  491  11.340  23.550  24.022 -0.0970  0.2540 -0.2882
62998W        W  492  22.101  19.099  24.014 -0.1549 -0.1089 -0.0681
62999W        W  493   9.696  18.565  25.849  0.3699  0.1967 -0.0128
63000W        W  494  24.060  11.873  21.915  0.0451  0.2629 -0.1916
63001W        W  495  12.538   7.870  13.903  0.1281 -0.2593  0.2756
63002W        W  496  26.354  20.404  12.972  0.1795  0.2729  0.0575
63003W        W  497   4.508   6.556  20.672  0.2688 -0.0694 -0.2384
63004W        W  498   8.877  10.037   7.823  0.0270 -0.1184 -0.2788
63005W        W  499  21.987  18.815  18.079  0.2927  0.0511  0.1269
63006W        W  500   1.791   3.663  16.179 -0.0877 -0.1082  0.0270
63007W        W  501   9.213  18.977  10.019 -0.0222  0.1614 -0.3078
63008W        W  502  26.000  21.176  18.624 -0.4128  0.0032 -0.0376
63009W        W  503   6.768  30.716  11.974 -0.0520 -0.2085 -0.0426
63010W        W  504   7.029  35.065  23.745  0.0112  0.0366  0.0287
63011W        W  505  22.788  25.045  13.822  0.1106 -0.0964  0.1335
63012W        W  506  17.974  26.270  20.820  0.1976  0.1167  0.2432
63013W        W  507   8.484  27.328   4.563  0.1905 -0.1486 -0.0863
63014W        W  508  11.243  27.875   4.870 -0.0422 -0.1704  0.0144
63015W        W  509  25.704  29.950  11.690  0.2438  0.3971 -0.2244
63016W        W  510   4.243   5.652  17.876  0.0235 -0.0383 -0.1650
63017W        W  511  17.274  14.924  18.267 -0.0699 -0.1738  0.2240
63018W        W  512  13.822  14.942  12.281 -0.1367 -0.1189 -0.1557
63019W        W  513  31.310  10.790   9.923 -0.3692  0.0242  0.1362
63020W        W  514  28.818   1.976  20.539 -0.1387  0.0808  0.0923
63021W        W  515  27.129  13.903  12.061 -0.3494  0.3512  0.2901
63022W        W  516  23.412  12.499  18.024 -0.0957  0.0280 -0.1355
63023W        W  517  33.964  30.761   3.603  0.0366 -0.0819 -0.2843
63024W        W  518  26.608   3.507  12.798  0.1814 -0.1770 -0.2827
63025W        W  519  14.615  10.554  19.626 -0.2196  0.0154 -0.0562
63026W        W  520  31.871  20.545  12.182  0.0144  0.1371 -0.0052
63027W        W  521   0.140   1.770   6.169  0.3374 -0.0962 -0.3382
63028W        W  522  34.108  24.711  18.771 -0.0205  0.0830  0.0650
63029W        W  523   5.269   4.027  23.562 -0.1782  0.0978  0.0182
63030W        W  524   5.556  26.600   2.454 -0.2131  0.1819  0.1014
63031W        W  525   8.454  30.062  21.281  0.0208 -0.1338 -0.1115
63032W        W  526   3.066  31.288  25.778 -0.2124 -0.2682  0.2801
63033W        W  527  25.231  22.043  20.874  0.3499  0.0090 -0.1978
63034W        W  528  17.524  32.060  21.875 -0.1476  0.2298  0.0039
63035W        W  529  35.325  24.508  20.824  0.3900 -0.2144 -0.0257
63036W        W  530  15.596   5.741  23.860 -0.2498 -0.1337 -0.1600
63037W        W  531  33.609  17.654  24.090 -0.3188 -0.0768 -0.0902
63038W        W  532  24.646   6.560  15.751  0.3360  0.0601  0.3077
63039W        W  533  31.405  17.513   7.088  0.0124  0.0045  0.0928
63040W        W  534  32.216  14.450  12.538  0.0588  0.1531  0.0479
63041W        W  535  30.159   7.168  13.325 -0.0691 -0.0700  0.4728
63042W        W  536   4.136  27.639  25.909 -0.0278  0.4794 -0.1435
63043W        W  537   6.933   2.125   3.591 -0.0856  0.4019 -0.0520
63044W        W  538   9.968   8.150   6.501 -0.1260 -0.1846 -0.1749
63045W        W  539  21.606   8.059  22.752  0.3842  0.0936  0.6835
63046W        W  540  16.343  33.747   4.006 -0.1142 -0.0266 -0.1386
63047W        W  541   8.978  17.927  19.483 -0.0455 -0.1428 -0.0129
63048W        W  542   8.334   0.367   1.462 -0.0008 -0.2846  0.2109
63049W        W  543  11.653  10.989   4.096  0.1587  0.1040 -0.0114
63050W        W  544  14.749  14.705  22.427  0.1199  0.1294  0.1457
63051W        W  545  19.507  29.235   1.926  0.0988  0.2557  0.2052
63052W        W  546  10.443  23.084   0.428  0.0628  0.1229 -0.0357
63053W        W  547   6.999   4.666   0.183  0.2322 -0.1084  0.4017
63054W        W  548  29.653  13.486  24.154  0.0450 -0.2268 -0.0593
63055W        W  549  18.653  14.141  20.771 -0.0642 -0.1958 -0.4256
63056W        W  550  27.093   7.012  13.079  0.0492  0.0801 -0.1619
63057W        W  551  23.634   0.055  18.253 -0.0782  0.0757  0.1847
63058W        W  552   0.323  29.187  20.051 -0.2817  0.1100 -0.3498
63059W        W  553  30.080  23.265  15.734 -0.1653  0.3009  0.0919
63060W        W  554  23.092  29.853  24.735 -0.1216  0.4507 -0.2434
63061W        W  555  21.056  11.108   3.491  0.1587  0.2850  0.2903
63062W        W  556   1.468  18.353  18.815 -0.2234 -0.0856  0.2571
63063W        W  557  22.538   7.982  20.660  0.1430  0.1332  0.1091
63064W        W  558  26.811  31.403   2.825  0.0737  0.1591 -0.0469
63065W        W  559  30.805  19.401  17.286 -0.0289 -0.1041  0.0876
63066W        W  560  17.641  11.262  26.055  0.1227  0.3295 -0.0557
63067W        W  561  18.418   1.161  19.015  0.3648  0.3342  0.1796
63068W        W  562   9.821  15.866   1.408  0.3153 -0.1531 -0.1480
63069W        W  563  28.218  27.762   1.991  0.1259 -0.2517  0.1661
63070W        W  564  34.829   0.534  22.795  0.0280 -0.0815  0.0350
63071W        W  565  19.776  16.559  24.393  0.2500 -0.1638 -0.1305
63072W        W  566  31.716  15.085  15.545 -0.0777  0.0267  0.1094
63073W        W  567  24.425  21.954  19.938  0.1481 -0.0812 -0.2263
63074W        W  568   5.629  19.079  20.182 -0.3819 -0.3601  0.1211
63075W        W  569   8.097   9.696  22.096  0.0096  0.0430  0.1123
63076W        W  570  17.772  28.909  23.646  0.5396 -0.0506  0.0557
63077W        W  571  16.547  11.540   0.629 -0.0934 -0.5751  0.0053
63078W        W  572  13.878  13.490  13.860 -0.2240  0.0651  0.2321
63079W        W  573   7.287   4.940   7.614  0.0109 -0.1816  0.0682
63080W        W  574  24.475   2.611   0.391 -0.1396  0.2067  0.3015
63081W        W  575  31.578   5.637  12.218 -0.1465 -0.2695  0.2412
63082W        W  576   3.943  15.070  24.454  0.2407 -0.2777 -0.2700
63083W        W  577  17.578   5.755  18.742 -0.2764  0.1895 -0.0426
63084W        W  578  29.552   2.311  19.308 -0.4018 -0.3578 -0.0943
63085W        W  579  27.573  19.334  24.231  0.3017 -0.0068  0.1194
63086W        W  580  34.471   9.520  24.505  0.2472  0.0131  0.3031
63087W        W  581  19.857  26.426  21.385  0.2510  0.3064  0.0764
63088W        W  582  31.234   0.755  15.700 -0.2858 -0.1089  0.2438
63089W        W  583   5.285   6.852  23.578 -0.0222 -0.1314 -0.2147
63090W        W  584   7.311  35.220   9.547  0.1279 -0.0692 -0.0761
63091W        W  585  34.605   2.469   6.287 -0.2602 -0.1384  0.2084
63092W        W  586  35.234  25.908  21.048 -0.0020 -0.0729 -0.0647
63093W        W  587  22.934  10.567  14.157 -0.0658  0.1048 -0.1870
63094W        W  588  19.524  13.756   5.389  0.0310  0.1598  0.1745
63095W        W  589   8.250   5.426   5.100  0.2851  0.0516  0.2320
63096W        W  590   0.649   0.797  15.354 -0.0539 -0.1714  0.1179
63097W        W  591  11.608  18.602   0.772 -0.1610  0.1762  0.2976
63098W        W  592  25.593  34.211  19.594  0.2683 -0.0341 -0.0031
63099W        W  593  29.125   1.200  22.657 -0.1389  0.0117 -0.1174
63100W        W  594  14.215   0.061  25.728 -0.2548 -0.1090 -0.0305
63101W        W  595  13.418   8.642   4.745 -0.1104  0.3680 -0.0253
63102W        W  596   8.310  21.271  14.005 -0.2613 -0.2702  0.0534
63103W        W  597  32.497  34.141   2.723 -0.1351 -0.2781  0.0052
63104W        W  598  27.245  29.752  16.867  0.2414  0.1412 -0.0240
63105W        W  599  29.197  19.666  21.973  0.1389  0.1153 -0.0942
63106W        W  600  33.719   3.838   3.323  0.0309 -0.0865 -0.0134
63107W        W  601   9.336  34.062  13.416 -0.3773  0.0788  0.0375
63108W        W  602   7.283  32.307   0.941  0.1352  0.2636 -0.4210
63109W        W  603  26.119  33.345   1.175 -0.0975 -0.3359  0.0282
63110W        W  604  27.724  14.955  20.820  0.1102 -0.0431 -0.0582
63111W        W  605  31.420  23.856   0.246 -0.4455 -0.1045  0.2370
63112W        W  606   6.172  12.487  19.822 -0.1075  0.0674  0.0051
63113W        W  607   2.018   7.978   2.314  0.1185  0.3029  0.1459
63114W        W  608  33.333  31.687  25.770  0.2211  0.3263  0.2127
63115W        W  609  33.388   7.762   1.795 -0.3945 -0.2596  0.1862
63116W        W  610  29.437  30.445  12.700 -0.2611  0.0692 -0.1029
63117W        W  611   9.248   1.702  20.950  0.1832  0.0428  0.4068
63118W        W  612  21.324  15.273  24.376 -0.2832 -0.1112 -0.3365
63119W        W  613   4.046  30.723  20.503 -0.3742 -0.3785 -0.0311
63120W        W  614  20.415  28.472  25.834 -0.2430  0.0773  0.1138
63121W        W  615  29.435   7.789  22.080 -0.5368 -0.1446 -0.0845
63122W        W  616  14.965   5.260  23.021  0.3132  0.3594  0.1916
63123W        W  617  29.457  32.665  25.837  0.1439  0.1348 -0.1689
63124W        W  618  23.379  34.665   0.454  0.0745  0.1544  0.0521
63125W        W  619  28.635  23.722  21.508 -0.1356 -0.2411  0.0042
63126W        W  620  21.656  28.127  17.660 -0.1816  0.0653  0.0021
63127W        W  621   8.762   4.232   1.389  0.0620 -0.1687 -0.2197
63128W        W  622   7.178  29.768  25.551 -0.3628 -0.1792  0.0303
63129W        W  623  30.887   0.865  25.177  0.1028  0.2327 -0.1063
63130W        W  624   6.192   6.178   2.247 -0.0148 -0.4214  0.3973
63131W        W  625   8.536  22.838   0.167 -0.2402  0.2168  0.1107
63132W        W  626  11.532  21.478  16.349  0.4264  0.1653 -0.1001
63133W        W  627   2.204  29.315   0.183  0.2019 -0.1920 -0.1791
63134W        W  628  26.977   4.757   0.871 -0.2900  0.2431 -0.1739
63135W        W  629   7.468  30.693   9.559 -0.3098 -0.0400  0.0116
63136W        W  630  19.004  13.504   2.109 -0.1242 -0.2317 -0.1504
63137W        W  631   2.504  12.918  14.426  0.2134 -0.1141 -0.1177
63138W        W  632  31.070  29.599  25.536  0.5499  0.0845 -0.1106
63139W        W  633   8.530   1.841   0.720 -0.1436 -0.2395 -0.2785
63140W        W  634  20.799   4.674   0.040 -0.2804  0.3681 -0.3662
63141W        W  635  23.451  29.535  14.600 -0.0752  0.0918 -0.0660
63142W        W  636  33.727  33.564   3.991 -0.0192 -0.2657 -0.0679
63143W        W  637   6.403  10.807  18.666  0.1255  0.1287 -0.1480
63144W        W  638  22.184  33.707  14.421  0.4086  0.5129 -0.3312
63145W        W  639  15.516  12.436   6.604  0.0703  0.2543 -0.1105
63146W        W  640   5.699   5.454  11.893  0.4220 -0.0133 -0.3366
63147W        W  641  26.734   8.462  10.177  0.4985 -0.3573 -0.1619
63148W        W  642  21.896  23.091   5.780  0.2352 -0.1247 -0.0420
63149W        W  643   7.422   4.385  26.225 -0.1105  0.1185  0.1755
63150W        W  644  23.525  20.107  20.156 -0.0565  0.0757  0.0671
63151W        W  645   6.469  32.772   6.048 -0.1659 -0.0707  0.0151
63152W        W  646   6.470   0.110   6.523  0.0756  0.1990 -0.0236
63153W        W  647  32.850   0.493   1.346  0.5768 -0.0735 -0.1291
63154W        W  648  33.218  14.087   0.574  0.1897  0.1757  0.2252
63155W        W  649  17.477  21.812  21.080 -0.3487 -0.1674 -0.1592
63156W        W  650  15.381  30.484   7.748 -0.1105  0.2878  0.1262
63157W        W  651  19.422  30.148   4.284 -0.0532 -0.1803  0.2183
63158W        W  652   7.410  15.631  10.691  0.1301 -0.2514  0.1701
63159W        W  653  28.435  24.757  22.452 -0.0296  0.5220  0.3131
63160W        W  654  24.809   3.038  18.724  0.2492 -0.3893 -0.3721
63161W        W  655   9.995   6.923   9.836 -0.1240 -0.1347  0.1518
63162W        W  656  15.418   8.049   7.302 -0.0457 -0.2489  0.3141
63163W        W  657  17.570  30.760   0.657 -0.0455  0.0943  0.0906
63164W        W  658  10.782  22.787  13.884 -0.1875  0.1680 -0.2438
63165W        W  659  16.954   9.715   0.254 -0.2185  0.1747  0.0075
63166W        W  660  13.170   8.638  21.671 -0.3904  0.0255 -0.1668
63167W        W  661  28.334  30.209  19.282 -0.1233  0.0578 -0.0412
63168W        W  662  24.348  28.671   3.956 -0.4634 -0.4931 -0.0585
63169W        W  663  13.934   4.161   5.564 -0.4440  0.0584  0.4353
63170W        W  664   5.716   6.377   2.070  0.0654 -0.0338 -0.0335
63171W        W  665  12.237  21.864   3.733  0.0075  0.1680 -0.2373
63172W        W  666   7.929  33.095  21.559  0.0446  0.0756 -0.1992
63173W        W  667  24.925  33.141  25.399 -0.0879 -0.0105 -0.0644
63174W        W  668  14.459  15.907  23.064 -0.1395  0.1666  0.2933
63175W        W  669  18.495   6.624   5.775  0.0933 -0.0915  0.1849
63176W        W  670  31.256  29.734  13.915 -0.3171  0.3597  0.2014
63177W        W  671   7.872   6.242   7.228 -0.2104  0.3839 -0.2311
63178W        W  672   9.150  11.977   7.870 -0.3415  0.3327 -0.0195
63179W        W  673  16.415  11.549  25.696  0.0806 -0.0822  0.0016
63180W        W  674  30.970  31.767  13.504  0.0829 -0.1542  0.1377
63181W        W  675  26.866  34.946   1.300  0.0808  0.0187  0.1219
63182W        W  676  10.248   7.844  21.168 -0.0729 -0.1031  0.2514
63183W        W  677  32.177  31.046  21.637  0.1478 -0.1857  0.0112
63184W        W  678  15.229  20.193   1.777  0.0412  0.1632 -0.0682
63185W        W  679  11.758  17.662  24.384  0.4166 -0.2654  0.2194
63186W        W  680   4.268  33.440   5.953  0.0038  0.0763 -0.1671
63187W        W  681  14.462  24.955   4.950  0.1715  0.1013  0.0818
63188W        W  682  10.748  34.137   8.089  0.0442  0.1293  0.2677
63189W        W  683  22.985  18.556   2.939  0.0371 -0.0553 -0.3174
63190W        W  684  12.675  22.555   2.219  0.2432 -0.0671  0.0778
63191W        W  685  28.090  35.212  11.358 -0.1805 -0.0242  0.3537
63192W        W  686   7.704   6.100   5.282  0.1188 -0.1686  0.1386
63193W        W  687  17.935  10.712  21.477 -0.0058  0.0686  0.2182
63194W        W  688  32.534  16.770  15.880  0.1237 -0.2343 -0.1879
63195W        W  689  22.486  32.701  16.275 -0.0409  0.1439 -0.0939
63196W        W  690   9.151   7.614  10.189 -0.0563  0.0091 -0.2610
63197W        W  691  21.198  34.783  19.939 -0.3020  0.0696 -0.2085
63198W        W  692  17.481  11.463  22.312 -0.0243 -0.0341  0.2813
63199W        W  693   9.436  19.531   5.518  0.2234  0.1386 -0.1082
63200W        W  694  19.737  25.025   3.171 -0.0841 -0.0137 -0.2760
63201W        W  695  27.106  24.427  16.220 -0.1086 -0.0544  0.1230
63202W        W  696   6.188   7.241   1.531  0.1778 -0.1971 -0.4971
63203W        W  697  30.297  18.682  20.603  0.0765 -0.2615  0.0317
63204W        W  698  14.125  17.927   7.712  0.0289 -0.2285  0.1257
63205W        W  699  27.089   2.000  19.200 -0.0347 -0.0366 -0.0174
63206W        W  700  20.835  13.023  15.774  0.0500  0.0800 -0.1477
63207W        W  701   2.591   3.463   5.547  0.1917  0.2157 -0.1228
63208W        W  702  32.888   3.943  15.525  0.1048 -0.0838 -0.1231
63209W        W  703  17.682   3.730  10.694  0.0537 -0.1155 -0.2029
63210W        W  704  21.243  29.743  18.587  0.0588 -0.1519 -0.0346
63211W        W  705  15.702  14.091   0.289 -0.2866  0.0235 -0.0287
63212W        W  706  16.722  24.198   1.245 -0.2135 -0.0015  0.2839
63213W        W  707  11.929  14.119   8.410  0.2044  0.0389  0.0633
63214W        W  708  28.866  26.458  20.046  0.0272 -0.2376 -0.1572
63215W        W  709   7.001  13.208   6.694 -0.2191 -0.1533 -0.2353
63216W        W  710  35.371  17.703  15.218 -0.0010 -0.0861  0.0152
63217W        W  711  30.322   7.503  12.410  0.0084 -0.0490 -0.0890
63218W        W  712   4.224  10.429  18.040  0.0631  0.2326 -0.0887
63219W        W  713  18.053  23.750  10.411 -0.0076 -0.3117 -0.4738
63220W        W  714  28.965   1.805  24.957  0.1248 -0.3959 -0.2788
63221W        W  715  14.866   4.114  17.948 -0.0164  0.1297  0.2854
63222W        W  716  24.502  31.281   0.456 -0.0775 -0.1060 -0.6025
63223W        W  717  18.403  18.429   7.461 -0.2334 -0.0504  0.0659
63224W        W  718   3.906  33.472  20.222 -0.2562 -0.2153  0.1042
63225W        W  719  20.401   3.436  18.306  0.2738 -0.1903  0.2710
63226W        W  720  20.962  13.005  16.904  0.0263  0.1395  0.2418
63227W        W  721  22.247   9.448  24.049  0.0869  0.4850  0.1360
63228W        W  722  17.762   2.500   4.723 -0.5684 -0.1727  0.0905
63229W        W  723  14.367   9.538   7.199 -0.0004  0.0149  0.1390
63230W        W  724   9.043  34.954  24.116 -0.0800 -0.2005 -0.1435
63231W        W  725   5.116  10.194   0.174 -0.2449 -0.0941  0.3005
63232W        W  726  13.685  16.502   2.936  0.2148  0.0882 -0.1331
63233W        W  727  32.261  28.660   3.141  0.0861 -0.2615 -0.0759
63234W        W  728  21.435  33.661   5.464 -0.0339 -0.1570 -0.2044
63235W        W  729  29.699  35.289   0.147 -0.1046 -0.1087 -0.1703
63236W        W  730  14.954  33.122   8.151 -0.1281 -0.0703  0.0198
63237W        W  731   3.216  22.142  16.491 -0.1521  0.0293 -0.3176
63238W        W  732  14.887  10.563   4.422 -0.0676  0.0979  0.4653
63239W        W  733   2.542   6.404  19.435 -0.1503 -0.3051  0.1815
63240W        W  734  19.023   9.266  25.933  0.0622  0.1517  0.2179
63241W        W  735  22.750  29.823   0.765  0.0960  0.0736  0.3093
63242W        W  736  23.636  19.975  25.789 -0.1973  0.0162  0.1973
63243W        W  737   0.188   5.512  16.267 -0.1840  0.4807 -0.0062
63244W        W  738  10.329  34.489  25.557  0.0127  0.3839  0.1413
63245W        W  739  27.235  19.376  22.324  0.1946  0.1163  0.0060
63246W        W  740   4.701  23.838   0.523  0.2586  0.3041 -0.1264
63247W        W  741   6.273  21.540   4.999  0.0150 -0.1336  0.2347
63248W        W  742  35.254  33.366   2.503 -0.4423  0.2281  0.2361
63249W        W  743  18.925  33.896   7.583  0.0634  0.0226  0.0060
63250W        W  744  20.219  34.383  23.525  0.4966 -0.1483  0.1961
63251W        W  745   9.989   3.792  24.500 -0.1365 -0.2180 -0.0734
63252W        W  746  26.413   1.248  20.906  0.3085  0.0693 -0.1081
63253W        W  747   5.987  12.693  10.041 -0.0833 -0.3500  0.1419
63254W        W  748  15.392  29.852   1.830  0.2586 -0.0524 -0.1149
63255W        W  749  34.263  31.496   7.150  0.2214 -0.1790  0.0007
63256W        W  750  22.110  32.152   1.384  0.0581 -0.0162 -0.1200
63257W        W  751  11.773  23.687  13.355  0.0380 -0.0640  0.0943
63258W        W  752  27.903  26.985   8.194 -0.3564  0.0561  0.0337
63259W        W  753  26.275   8.576  17.339 -0.0463 -0.1861  0.2105
63260W        W  754  10.964  31.974   7.325  0.0080  0.2691  0.0597
63261W        W  755   7.609  19.248  11.379 -0.2077  0.1745  0.0052
63262W        W  756   3.887  11.052   5.124  0.1868  0.0300  0.0642
63263W        W  757  25.302  10.200  17.746 -0.0809  0.2218  0.1305
63264W        W  758   4.735  31.195   5.030  0.2662  0.0888 -0.3586
63265W        W  759  27.484   8.866   8.944  0.0512 -0.1302  0.0770
63266W        W  760   7.875   8.075   2.045  0.1446 -0.0061  0.1950
63267W        W  761  22.203  22.340  14.409 -0.0758 -0.1793  0.0911
63268W        W  762  30.996   9.611  14.804 -0.0806 -0.1272 -0.0636
63269W        W  763  10.285  22.616  16.424  0.1379 -0.1431  0.1374
63270W        W  764  16.199   9.251   3.984  0.0530  0.0233 -0.0996
63271W        W  765  19.295  12.646   1.786 -0.1306 -0.1197  0.0774
63272W        W  766  18.311  24.214  13.141 -0.0959  0.1322  0.1157
63273W        W  767  16.275  13.944   9.605  0.0907  0.0776 -0.3407
63274W        W  768  13.168  18.763   7.517  0.3839 -0.1499 -0.1138
63275W        W  769  17.459  14.331   3.707  0.2481  0.2669  0.1080
63276W        W  770   6.858  29.455  22.256  0.1178 -0.1548 -0.0656
63277W        W  771   9.688   3.021   1.448 -0.0143 -0.0216  0.0730
63278W        W  772  17.323  27.388   8.971  0.3217  0.1901 -0.1453
63279W        W  773  16.087   6.687   3.319  0.0021 -0.1836  0.1460
63280W        W  774  23.556  29.530   0.149  0.0765 -0.3303 -0.0606
63281W        W  775  15.398  34.904   5.083 -0.3374  0.0776  0.1620
63282W        W  776  33.535  26.997  10.895  0.0605  0.3613  0.1272
63283W        W  777  11.837   6.002  21.982 -0.2351  0.0222 -0.4173
63284W        W  778  11.595  23.911  15.326  0.0170 -0.1400  0.0966
63285W        W  779  23.052  29.877   4.265 -0.1391  0.0578  0.2117
63286W        W  780   2.298  13.484  23.215 -0.0624  0.0519 -0.0623
63287W        W  781  14.454  12.111  24.631 -0.0045 -0.0363 -0.2170
63288W        W  782  19.220  27.831   1.701 -0.3403 -0.3098 -0.4311
63289W        W  783  25.305   8.357   0.068  0.1604 -0.1459  0.3412
63290W        W  784  23.022  21.557  17.507 -0.1716  0.3812 -0.1868
63291W        W  785   4.377   5.251  17.687 -0.0423 -0.0683  0.0013
63292W        W  786  33.096  10.441  16.658  0.0356  0.1100 -0.0881
63293W        W  787  30.315  14.118  21.808  0.2038  0.1963  0.0262
63294W        W  788  17.147   8.303   9.278  0.2340  0.2105  0.1472
63295W        W  789   4.486  31.149  26.233 -0.0533  0.3439 -0.0457
63296W        W  790   6.278  14.459   0.091 -0.0161  0.0616 -0.0002
63297W        W  791   5.897   1.701   5.547 -0.1268  0.0799 -0.1923
63298W        W  792   1.960  28.358   2.409 -0.2759  0.1079 -0.0511
63299W        W  793   1.774   4.195  25.944 -0.0365  0.1547 -0.2940
63300W        W  794   8.969  24.274   0.469 -0.1399 -0.0581 -0.3070
63301W        W  795   6.906   4.325   2.372  0.2669 -0.2174 -0.1514
63302W        W  796  31.688  31.365  15.332  0.2310 -0.2833  0.0933
63303W        W  797  32.498  26.278  23.808 -0.1448 -0.1817  0.2538
63304W        W  798   9.046   1.387  14.680 -0.1451  0.2814 -0.3661
63305W        W  799   6.490   1.432  12.759  0.0784 -0.4190  0.1814
63306W        W  800  11.000  23.564  13.640 -0.3683 -0.0223 -0.2184
63307W        W  801  20.556  10.863  20.944  0.0720 -0.0797 -0.0770
63308W        W  802  27.525  26.512  16.082  0.1611  0.0678 -0.2453
63309W        W  803   2.888   3.382  24.502 -0.0208 -0.0648  0.0563
63310W        W  804  28.617   4.154  16.124 -0.1778  0.0547 -0.3226
63311W        W  805   8.803   6.927  19.560 -0.2235  0.0609 -0.1230
63312W        W  806  22.811  10.674  18.214 -0.2229 -0.0696  0.1440
63313W        W  807  13.520   6.079   2.613 -0.0070  0.1000  0.0956
63314W        W  808  14.302  34.728   8.049  0.1382 -0.0624  0.1820
63315W        W  809  30.724  16.040  19.603  0.1272  0.3878 -0.0130
63316W        W  810   9.075  17.055  11.964 -0.0333  0.0812 -0.0566
63317W        W  811   1.517  29.354  24.095 -0.0278  0.0525 -0.0972
63318W        W  812   6.758  11.752   5.852  0.1889 -0.1268 -0.1089
63319W        W  813  22.695  19.376  15.710  0.1629 -0.1998 -0.2322
63320W        W  814   5.663  34.769  19.532 -0.4130 -0.0252  0.3573
63321W        W  815   1.561  20.521  23.947 -0.0305 -0.0042 -0.1277
63322W        W  816  11.105  28.409   4.421  0.1258  0.2798  0.0249
63323W        W  817  33.740   0.954  23.224  0.1860  0.0863  0.0310
63324W        W  818  24.287  26.743  13.644  0.3159 -0.0436  0.1289
63325W        W  819  26.419  29.651   4.323 -0.0443  0.1710 -0.2338
63326W        W  820   2.497  17.398  16.451 -0.2284  0.1567 -0.0855
63327W        W  821  33.688   5.084   2.510 -0.0784  0.2325  0.0478
63328W        W  822  30.858  15.851  18.039  0.1451 -0.0358  0.0106
63329W        W  823  17.354  32.749  23.971  0.0174  0.1796  0.0722
63330W        W  824  13.411   4.267  20.202  0.2054  0.2397 -0.1366
63331W        W  825  23.128  12.704  14.271 -0.1138 -0.3569  0.1514
63332W        W  826  20.621  26.793   5.974  0.3549  0.0840  0.0223
63333W        W  827  13.477  11.924  13.300 -0.3624  0.0307 -0.0701
63334W        W  828  15.530  14.916   1.841 -0.2708 -0.1595  0.1210
63335W        W  829  34.876   2.321  25.226  0.4447 -0.0966  0.1499
63336W        W  830  32.785  32.650  16.730  0.1407 -0.2811 -0.3224
63337W        W  831  14.649  16.234   5.987 -0.0654 -0.0470  0.1018
63338W        W  832   3.582  17.076   0.143  0.3340  0.2992  0.1659
63339W        W  833   7.803  28.992  16.707 -0.0891  0.0766 -0.0673
63340W        W  834   0.848   9.201   3.204 -0.1889  0.0557  0.2224
63341W        W  835  35.181  30.050  21.993  0.3175  0.1328  0.0320
63342W        W  836  27.045  12.472   6.373 -0.1067  0.0864 -0.1522
63343W        W  837  10.935  31.562  23.876 -0.1970 -0.2982 -0.0129
63344W        W  838   9.537   7.004  25.272  0.1854 -0.1266  0.0318
63345W        W  839  32.766   9.411  20.145 -0.4083  0.0677  0.0684
63346W        W  840  20.467   4.418   6.116 -0.0310 -0.2927  0.0761
63347W        W  841   2.555   7.956  16.638  0.0823 -0.1320 -0.0871
63348W        W  842  10.876  23.541   1.216 -0.3813 -0.0761  0.3145
63349W        W  843  23.989  29.651  17.071  0.0622 -0.3634  0.1506
63350W        W  844  11.744  23.808  23.449 -0.1638  0.0945 -0.1031
63351W        W  845  24.667  12.133  19.409  0.3807 -0.0033 -0.5022
63352W        W  846   0.844   3.103  14.221  0.1984 -0.0338  0.1653
63353W        W  847   8.220  24.928   9.419  0.1015 -0.4395 -0.0683
63354W        W  848  11.494   3.257   7.474  0.0639  0.5273  0.3295
63355W        W  849  32.200  21.469  19.638  0.0851  0.0853 -0.1539
63356W        W  850  14.652  30.727   3.020  0.0072 -0.0848  0.0813
63357W        W  851  25.771  24.502  12.681 -0.4073 -0.0790 -0.2428
63358W        W  852   9.812  21.433   8.160 -0.1831 -0.1340  0.0434
63359W        W  853   6.393  32.052   3.945 -0.0453 -0.2555 -0.2007
63360W        W  854  28.354  14.706   8.404 -0.0535  0.1024  0.2940
63361W        W  855  16.666  32.980  22.677 -0.3177 -0.0619 -0.1319
63362W        W  856  13.177  19.080  23.606 -0.0507 -0.1863 -0.0399
63363W        W  857   2.922  15.069   3.493  0.1356  0.2660  0.1081
63364W        W  858   2.060  15.265  11.903  0.0753  0.0168 -0.1076
63365W        W  859  20.949  24.991  17.619  0.1392 -0.3910  0.3693
63366W        W  860  24.561   3.634  20.581  0.0673  0.0268  0.2895
63367W        W  861  15.839   0.886  11.549 -0.0062  0.2028  0.3852
63368W        W  862   4.142  31.538   7.489  0.1450  0.2795  0.0862
63369W        W  863  12.761  21.490   2.934  0.2439 -0.2859  0.2519
63370W        W  864  30.170   5.032  12.599  0.0708 -0.1195  0.2153
63371W        W  865  17.648   5.686   6.963 -0.0523 -0.1310  0.0318
63372W        W  866  17.948  29.301   4.582 -0.0511  0.5645  0.0612
63373W        W  867  34.301  33.594  15.275 -0.1178  0.1222 -0.0309
63374W        W  868  28.206  26.701  16.911 -0.0752 -0.1674 -0.0798
63375W        W  869   9.770   6.501   2.644 -0.2321 -0.0791  0.0619
63376W        W  870  11.962  33.745  22.625  0.1769 -0.1058 -0.0249
63377W        W  871   9.141  31.124   1.245  0.3110 -0.1949  0.0993
63378W        W  872  29.179  20.535  12.846 -0.0943  0.1602 -0.0980
63379W        W  873  26.900   2.189  25.635  0.2705 -0.3023 -0.0032
63380W        W  874  21.626  21.777   5.405  0.1363 -0.2337  0.3112
63381W        W  875  12.285  12.721   5.948 -0.0760  0.0331  0.1223
63382W        W  876  18.940  31.638  24.051  0.0128 -0.2121 -0.0819
63383W        W  877   8.441  26.363   2.874 -0.3663 -0.1540 -0.0215
63384W        W  878   5.814   8.517   5.374  0.2969  0.1019  0.2802
63385W        W  879  23.343  31.424   0.404 -0.2369 -0.0265  0.0302
63386W        W  880  23.594  29.886  18.695 -0.1777 -0.3413  0.0964
63387W        W  881   8.312  10.260   2.547  0.0041 -0.1510  0.4897
63388W        W  882  26.425  12.464  21.111 -0.1044 -0.1866  0.0921
63389W        W  883  22.189  13.259  18.477  0.0445  0.1607 -0.2545
63390W        W  884  16.733   8.759   4.872  0.1118  0.2211  0.2396
63391W        W  885  22.747   4.886  16.675 -0.0115 -0.1084 -0.1715
63392W        W  886  26.084   0.034  22.679 -0.0921  0.4415 -0.2601
63393W        W  887  13.799   3.527   2.308 -0.0592 -0.2341  0.0081
63394W        W  888  17.407  27.105  10.534  0.1981 -0.1295  0.1500
63395W        W  889  24.372  33.097  24.120  0.0179 -0.1055 -0.2170
63396W        W  890   3.570  31.894   8.620 -0.3002  0.0397 -0.1693
63397W        W  891  12.799   0.677   0.220 -0.2298  0.0260  0.1280
63398W        W  892  28.642   7.521   1.947  0.1491 -0.0684  0.1875
63399W        W  893   3.230  32.679   1.132 -0.0307 -0.0641  0.0807
63400W        W  894  30.156  13.860  21.394 -0.2994  0.0086  0.0201
63401W        W  895  30.858   2.368  17.125 -0.1843 -0.1332 -0.0903
63402W        W  896  10.797  19.999  14.591 -0.2681 -0.3213 -0.1676
63403W        W  897  11.650   8.836   0.016 -0.2450 -0.0161  0.1512
63404W        W  898  33.736  10.588  10.902 -0.2536 -0.1248 -0.0220
63405W        W  899   9.812   7.644   9.130  0.0590 -0.2745  0.1056
63406W        W  900  32.363  34.793  20.285  0.1008  0.0077 -0.1237
63407W        W  901   1.619   7.116   6.673 -0.0147  0.1554 -0.0341
63408W        W  902  19.596  19.299  25.521  0.2149  0.2074 -0.0339
63409W        W  903  29.071  26.147  17.486 -0.0451 -0.0294  0.0542
63410W        W  904   2.106  32.779  22.160 -0.1025  0.1961 -0.0268
63411W        W  905   7.007  21.107  24.304 -0.0996  0.2123  0.0980
63412W        W  906  18.598  12.485  18.265  0.1493 -0.0812 -0.3860
63413W        W  907  11.290  27.205  22.618 -0.0273  0.0662  0.3202
63414W        W  908   6.101  24.986  24.080  0.0797 -0.0568 -0.1488
63415W        W  909  34.202   4.964  18.985 -0.0778  0.0643 -0.0692
63416W        W  910  18.172  28.671   1.644 -0.1130 -0.0509  0.1072
63417W        W  911   5.689  14.299   7.146 -0.0774 -0.1510  0.0610
63418W        W  912  35.256  17.808  11.931  0.1381 -0.4785 -0.2470
63419W        W  913  31.905  22.582  11.529 -0.0085 -0.1634  0.0022
63420W        W  914   4.189  33.730   1.163  0.0976  0.3872 -0.1603
63421W        W  915  25.040  11.617   2.426 -0.1770 -0.1423  0.0590
63422W        W  916   4.440   6.408  18.774 -0.2179  0.1339  0.2186
63423W        W  917  13.272  11.034   1.788  0.2191  0.0159 -0.1174
63424W        W  918   9.414   0.871   8.316  0.0352  0.1580  0.0817
63425W        W  919  23.430  13.790  21.928  0.3788 -0.0620  0.2678
63426W        W  920   1.742   7.725  24.551 -0.0139 -0.2727  0.2618
63427W        W  921  21.395  31.919  17.477 -0.0668 -0.3021 -0.1494
63428W        W  922  24.407  20.910   0.644 -0.0613 -0.3051 -0.1660
63429W        W  923  19.456   6.826   3.690  0.1144  0.2259  0.0819
63430W        W  924  32.752  17.000  19.771  0.4245  0.1282 -0.0661
63431W        W  925   7.664  23.133  24.830  0.4258  0.2943  0.3918
63432W        W  926  12.998   5.130  22.870  0.0596 -0.0649 -0.1437
63433W        W  927   9.021   7.711   1.113  0.2063  0.0837  0.0563
63434W        W  928  25.079  28.360  14.990  0.1773  0.5121  0.1780
63435W        W  929  22.202  18.806  15.305  0.0828  0.2340 -0.1662
63436W        W  930  16.691  29.940   6.535  0.3573 -0.0987  0.1867
63437W        W  931  24.750   9.797  23.555 -0.3102  0.1168 -0.1538
63438W        W  932   8.873  31.865  15.191  0.0124  0.1722  0.0389
63439W        W  933   5.441  12.378   1.521  0.1220  0.1813  0.1209
63440W        W  934  31.688  12.437  25.470 -0.1082  0.0152  0.0826
63441W        W  935  26.272  32.088  17.166 -0.1621 -0.0353 -0.3378
63442W        W  936   3.398  10.076  24.163 -0.1733  0.1867 -0.2317
63443W        W  937  20.980   9.239   9.011  0.1392  0.3661 -0.1002
63444W        W  938  14.035   5.715   5.500 -0.1466  0.0497  0.2083
63445W        W  939   1.067   7.440  18.557 -0.2140  0.2241 -0.0899
63446W        W  940  10.863  10.540   3.127 -0.0716  0.0697 -0.2167
63447W        W  941  34.793  22.935  21.947 -0.2069  0.0902  0.0377
63448W        W  942  29.786  22.770   9.654  0.1546  0.0391 -0.0273
63449W        W  943   7.328  18.266  23.445 -0.0267 -0.3162 -0.1067
63450W        W  944  29.300  29.670  16.001  0.1099 -0.0975 -0.5367
63451W        W  945  29.273  16.448  22.082  0.2061 -0.0996 -0.0535
63452W        W  946  12.738  23.499  14.897 -0.1527 -0.3681 -0.1804
63453W        W  947  21.925  10.253  21.444  0.1011 -0.2027 -0.2192
63454W        W  948   2.825  27.795   2.246  0.2094 -0.0161  0.1235
63455W        W  949  20.811   6.602  26.245  0.1796 -0.3217  0.0320
63456W        W  950  31.739  35.094   0.420  0.1776  0.2445 -0.0900
63457W        W  951  33.976  28.219  24.947 -0.1247 -0.2075 -0.0052
63458W        W  952  10.967   9.857  25.919 -0.1781 -0.1551 -0.1423
63459W        W  953  18.436  18.552   3.140 -0.0570 -0.0622  0.0245
63460W        W  954  31.016  33.992   5.597  0.1737 -0.2779  0.1191
63461W        W  955  32.719  23.878  24.999  0.1359 -0.2933 -0.1675
63462W        W  956  29.847  34.722  18.183 -0.1246 -0.0422 -0.2425
63463W        W  957  31.495   7.753  11.076 -0.1660  0.0081 -0.0586
63464W        W  958   4.359  23.302  18.816  0.2371  0.0595 -0.2331
63465W        W  959  34.485  31.832   6.409  0.0456  0.3578  0.0500
63466W        W  960   0.654  15.277  13.653  0.0528  0.3434 -0.0562
63467W        W  961  19.345  16.165  17.202 -0.0038 -0.0754  0.0294
63468W        W  962  25.278   1.768  25.576  0.3977  0.2370 -0.0198
63469W        W  963  35.302  26.486  25.945  0.2043 -0.3118  0.0347
63470W        W  964   5.204  19.143  19.373  0.1440 -0.1868 -0.3015
63471W        W  965  24.645  17.792   7.882  0.2661 -0.0475  0.0935
63472W        W  966  12.972   6.149   0.122 -0.2222 -0.0179 -0.1507
63473W        W  967  15.097  28.218   7.600  0.2475  0.1011  0.3108
63474W        W  968  11.543   4.997   8.865 -0.0568 -0.1724  0.0145
63475W        W  969  32.065  15.038   6.327 -0.4073  0.1819  0.2380
63476W        W  970  15.735  30.130   8.633  0.2759 -0.0317  0.0562
63477W        W  971  32.499  13.929  26.097 -0.0016  0.0996  0.0173
63478W        W  972  12.688  33.160  11.556 -0.0429 -0.0485  0.0351
63479W        W  973   4.614  11.332   3.294 -0.0649  0.2299 -0.0343
63480W        W  974   7.111  22.783   6.122  0.1224  0.1980  0.3161
63481W        W  975  33.249   1.153   1.320  0.1124 -0.1951 -0.0765
63482W        W  976  23.504  34.276   4.725  0.0912  0.0909  0.3934
63483W        W  977  27.469  14.318  18.543  0.0137 -0.1451  0.2127
63484W        W  978   2.497   4.960  21.422 -0.0212 -0.0409  0.0253
63485W        W  979  31.364   1.158  17.076 -0.4886  0.1307  0.0998
63486W        W  980  21.824   7.086  25.489  0.1329  0.0496 -0.0945
63487W        W  981  15.859  27.981  25.620  0.0558  0.2203 -0.0003
63488W        W  982  34.898  22.300  16.369 -0.1605  0.0437 -0.2383
63489W        W  983   6.385  18.657  18.949  0.0388 -0.0244  0.1393
63490W        W  984   0.535  23.671  16.436  0.2328  0.0960 -0.2938
63491W        W  985  33.106   0.828  13.341 -0.3158  0.1607  0.0132
63492W        W  986  14.690  17.161  25.424  0.1880  0.0870 -0.0005
63493W        W  987  13.641   8.567  23.475  0.0282  0.3536  0.0913
63494W        W  988  26.021  24.214  17.434 -0.3791  0.0159  0.2215
63495W        W  989  18.291  33.802   5.024 -0.3933  0.1804 -0.0341
63496W        W  990  27.047  10.995  22.064  0.1961 -0.1732 -0.2487
63497W        W  991  11.328  11.162  10.359 -0.1647  0.0879  0.4789
63498W        W  992  30.469   2.354  21.138 -0.0378 -0.1501 -0.4296
63499W        W  993   1.760  16.283  11.052  0.0516 -0.0862 -0.2317
63500W        W  994  34.934  18.707  22.541 -0.0955  0.0756 -0.1144
63501W        W  995  21.912   8.981   5.612  0.3870  0.0841 -0.0541
63502W        W  996  18.607  24.696   9.171 -0.0672  0.1102 -0.1608
63503W        W  997  29.140  28.259  21.739  0.1451 -0.2011  0.1357
63504W        W  998  10.481   3.453  26.141  0.0856 -0.1574 -0.0316
63505W        W  999  21.216  24.380  23.913  0.0890  0.4189 -0.0430
63506W        W 1000   6.534   2.910  25.043 -0.0186 -0.0739 -0.0422
63507W        W 1001  27.822   3.862   0.076  0.1114  0.4580  0.2959
63508W        W 1002  20.948  11.780  24.342 -0.1961  0.0830  0.1132
63509W        W 1003   1.280   3.307   0.763 -0.2051  0.1127 -0.0239
63510W        W 1004  19.115   9.349   1.335  0.3188 -0.3032 -0.3106
63511W        W 1005  23.072   4.079  26.129 -0.0077 -0.2102 -0.3584
63512W        W 1006   3.979  25.934  20.002 -0.0132 -0.0658  0.3230
63513W        W 1007  15.065   6.570   6.892  0.0301 -0.0760  0.0861
63514W        W 1008   3.904  21.136  26.232  0.2827  0.2336 -0.1524
63515W        W 1009  15.100  24.077   1.728  0.2357 -0.1355 -0.2880
63516W        W 1010   5.435  32.836   2.500  0.2637 -0.1951 -0.4186
63517W        W 1011   1.676   3.444   3.717 -0.1258 -0.0093  0.1379
63518W        W 1012  32.877  30.458   1.293  0.0765  0.0558 -0.1128
63519W        W 1013   8.390   8.047   1.941 -0.1253 -0.1182 -0.3177
63520W        W 1014  17.884   3.537   0.360  0.1848 -0.1152  0.0665
63521W        W 1015   0.569  12.928  24.708  0.0005  0.1728 -0.2840
63522W        W 1016   9.611   9.660  18.557 -0.0332 -0.0283 -0.0241
63523W        W 1017  14.726  13.026   2.339  0.1626  0.0825 -0.1378
63524W        W 1018   9.555   6.928  23.383  0.1696  0.1646  0.2657
63525W        W 1019  10.245  20.169  12.471 -0.1718 -0.2504  0.0778
63526W        W 1020  17.461  18.575  21.191  0.1238  0.0434 -0.1256
63527W        W 1021   4.339  21.298   2.959 -0.0775 -0.1193 -0.1831
63528W        W 1022   6.870   6.376   0.999 -0.1866 -0.0588 -0.2658
63529W        W 1023  31.723  16.757  18.740  0.2233 -0.0203  0.1091
63530W        W 1024  35.271  33.158   8.016 -0.0716  0.0877  0.2466
63531W        W 1025  11.948  15.919   6.054  0.0319 -0.0939 -0.0891
63532W        W 1026   7.845  25.628  23.266 -0.2635  0.2046 -0.0312
63533W        W 1027   1.361  31.391  22.666  0.1597  0.2452 -0.0931
63534W        W 1028  20.959  11.859   6.211 -0.0184 -0.2188  0.0493
63535W        W 1029  19.740   1.587   1.540 -0.0705  0.1651  0.0301
63536W        W 1030  21.257  29.600  19.581  0.1228  0.0766  0.0247
63537W        W 1031  27.466  26.005  10.426 -0.0642 -0.0930 -0.0601
63538W        W 1032  24.555  26.708  12.650 -0.4662  0.1241  0.2045
63539W        W 1033   2.988  16.943  20.187 -0.2149 -0.0738  0.0957
63540W        W 1034  33.790   6.747  20.893  0.0458 -0.1383 -0.0381
63541W        W 1035  31.466  22.589  22.350  0.3798  0.1152 -0.2287
63542W        W 1036  27.176  23.817  17.814  0.0124 -0.0251 -0.1684
63543W        W 1037  21.116  15.027   0.110  0.2025 -0.0885 -0.4405
63544W        W 1038  28.603  10.670   8.775 -0.1560  0.3915 -0.0493
63545W        W 1039  13.440   3.331  25.029 -0.1883  0.1286 -0.1783
63546W        W 1040   3.631   0.422   3.090  0.3909 -0.1372  0.0589
63547W        W 1041  33.135  30.828   3.331 -0.1455  0.1361  0.0407
63548W        W 1042   7.984  21.128  21.532 -0.0579  0.0158 -0.1950
63549W        W 1043   9.903   5.474  20.578 -0.0463  0.2747  0.2919
63550W        W 1044  22.816   0.280  14.067  0.1562  0.2620  0.0455
63551W        W 1045  31.186   7.547  18.987  0.2275 -0.1476 -0.1294
63552W        W 1046  18.184   0.624   3.816  0.1522 -0.1565  0.2373
63553W        W 1047  29.421  28.267   0.574 -0.0168 -0.0280  0.0103
63554W        W 1048  24.514   5.654  13.523 -0.1308  0.2265 -0.1994
63555W        W 1049  19.742  30.925   6.233 -0.1408 -0.2048 -0.1881
63556W        W 1050   6.557  14.824  19.830  0.0094  0.0917 -0.1494
63557W        W 1051   8.752  22.456   4.303  0.0942 -0.2267  0.1609
63558W        W 1052  15.439   3.082   4.117  0.0809 -0.2746  0.0295
63559W        W 1053   5.789  22.483   2.842  0.1183  0.0139  0.1851
63560W        W 1054  19.871  13.227  20.042  0.1289 -0.0960 -0.1683
63561W        W 1055   5.092  22.734  24.237 -0.3354  0.2069 -0.3357
63562W        W 1056  13.459  15.504  25.346 -0.0907 -0.0327  0.2894
63563W        W 1057   8.450  33.183   1.179 -0.0246  0.0822  0.2243
63564W        W 1058  11.880  18.203   4.594  0.0245  0.2525 -0.0301
63565W        W 1059  33.043  22.162  18.897  0.0806  0.1777  0.1312
63566W        W 1060  25.046  18.397  13.939 -0.1961 -0.4516 -0.1911
63567W        W 1061  30.490  34.120  13.737 -0.0388 -0.3192 -0.0515
63568W        W 1062  18.772   9.154   0.211 -0.0691 -0.4486 -0.0242
63569W        W 1063  19.912  16.276  21.114 -0.0440 -0.1786 -0.0132
63570W        W 1064   4.092  22.985   0.838  0.0696 -0.0433 -0.0674
63571W        W 1065  34.470  20.089  21.566 -0.2054 -0.0090 -0.3749
63572W        W 1066  35.318  19.984  23.921  0.0101  0.0857  0.3138
63573W        W 1067  34.652   5.681  14.126  0.3135 -0.0689  0.0827
63574W        W 1068  16.736  20.162  10.875 -0.1897 -0.0451 -0.0611
63575W        W 1069   9.122  26.046  11.221  0.2705  0.0144  0.1586
63576W        W 1070  18.940  16.565   7.946  0.0977 -0.1884 -0.3735
63577W        W 1071  16.968  24.885   8.052  0.0324 -0.1432  0.2389
63578W        W 1072  32.371  20.824  22.021 -0.1896  0.4432  0.0448
63579W        W 1073   1.451  12.187  17.293  0.0204 -0.3181 -0.0404
63580W        W 1074  16.771   4.611  18.170 -0.1118  0.0416  0.0897
63581W        W 1075  26.253   6.233  12.043 -0.0587  0.1492 -0.0929
63582W        W 1076   7.986  20.952  13.290  0.2916 -0.4226 -0.0616
63583W        W 1077   7.101  10.761  21.874  0.4053  0.0454  0.1497
63584W        W 1078  24.313   3.887   5.183 -0.2123 -0.3400  0.0862
63585W        W 1079  12.721  28.855  14.812 -0.0521  0.1487  0.1808
63586W        W 1080  32.636  17.551  11.810 -0.0102 -0.1219  0.1926
63587W        W 1081   1.140  16.053  20.255 -0.0407 -0.1159  0.2377
63588W        W 1082  17.542  13.541  13.012  0.0104 -0.0522 -0.3680
63589W        W 1083  21.078   2.842  14.016 -0.1386  0.0820  0.0039
63590W        W 1084  33.035  32.222   1.920 -0.2022 -0.4059  0.0048
63591W        W 1085  19.203  22.922   0.425  0.0913  0.0030  0.2991
63592W        W 1086   7.181   3.542  21.856 -0.3803  0.2054  0.2339
63593W        W 1087  28.653  31.014   1.136  0.1611  0.1242  0.1034
63594W        W 1088  16.929  21.668   7.136  0.0132 -0.1928  0.1290
63595W        W 1089   7.268  13.994  23.738 -0.1857 -0.4429 -0.1913
63596W        W 1090   8.173  14.490  25.339 -0.2505  0.1393  0.1155
63597W        W 1091  20.964   2.426  20.868 -0.3104  0.1057 -0.1389
63598W        W 1092  26.034   6.104   3.022  0.1154  0.3555  0.0235
63599W        W 1093  28.362  30.106   1.813  0.1209 -0.0923  0.0428
63600W        W 1094  19.109  31.755  23.200  0.1255  0.2000  0.1097
63601W        W 1095   3.651   4.320   1.979 -0.1081 -0.1864 -0.0954
63602W        W 1096   4.476  30.676  20.232 -0.0281 -0.1195 -0.0345
63603W        W 1097   3.274  33.661  20.326 -0.2116  0.0153 -0.2055
63604W        W 1098   9.623  12.940   9.323  0.0907 -0.2808 -0.0628
63605W        W 1099  25.944  14.428  15.999  0.2799 -0.0322  0.0185
63606W        W 1100  27.055  10.563  24.716 -0.0740 -0.0156 -0.2321
63607W        W 1101  22.281  28.827  24.700 -0.1193 -0.1117 -0.1393
63608W        W 1102   9.483   8.063   7.288  0.2075  0.0728 -0.0607
63609W        W 1103   6.965  10.345  17.453  0.3483  0.0375 -0.2403
63610W        W 1104  25.657   0.970  15.410 -0.2025  0.1420  0.1635
63611W        W 1105   7.176  13.948  25.544  0.2000 -0.2822 -0.0838
63612W        W 1106   8.217  13.271  25.691 -0.0763 -0.0616 -0.0439
63613W        W 1107  28.847   1.932  13.379 -0.1042  0.1011  0.0660
63614W        W 1108   0.795  13.695  25.311 -0.1275  0.3724  0.0502
63615W        W 1109  18.944  13.404   8.380 -0.2922  0.2185 -0.2384
63616W        W 1110   5.758   0.704  13.462  0.0964  0.2589  0.0254
63617W        W 1111   1.059  31.496  19.940  0.4594 -0.0502  0.1915
63618W        W 1112  22.155  19.862  19.893 -0.0623 -0.4059  0.2841
63619W        W 1113  15.009  19.236   9.962  0.0127  0.0313  0.2539
63620W        W 1114  28.775  23.258  22.302  0.3580  0.3367  0.0722
63621W        W 1115  11.883  17.846   5.893 -0.3082 -0.1118 -0.0983
63622W        W 1116  23.280  17.633   1.445 -0.3425 -0.0333 -0.1269
63623W        W 1117  26.730  23.809  19.375  0.0800 -0.1202  0.0394
63624W        W 1118   8.457  13.919  11.510  0.1679 -0.0426  0.1566
63625W        W 1119  26.510  21.553  25.083  0.2197  0.0923 -0.1726
63626W        W 1120   0.922  31.170   7.284  0.1744  0.1520  0.3141
63627W        W 1121   5.098  32.398  25.176  0.1090 -0.0882  0.0534
63628W        W 1122  21.506   0.998  20.347 -0.1014  0.0580  0.0521
63629W        W 1123  16.239  17.715  11.331  0.1933 -0.0209  0.0242
63630W        W 1124  20.775  20.540   1.970  0.2939 -0.2161  0.2192
63631W        W 1125  32.573  10.486  17.363  0.1002  0.0527  0.1116
63632W        W 1126  25.118  20.037  14.600  0.0195  0.0598 -0.0332
63633W        W 1127  14.691  14.422   6.139 -0.0920 -0.1478  0.0582
63634W        W 1128  32.006  17.613  11.181 -0.1894  0.2467 -0.0377
63635W        W 1129  23.715   6.261   2.495 -0.2029 -0.0011 -0.1211
63636W        W 1130  11.824   0.939   3.684 -0.2853  0.0618 -0.1861
63637W        W 1131  17.121  14.936   7.451  0.0693  0.0312 -0.5219
63638W        W 1132   6.870   5.891   2.472  0.1204 -0.1078 -0.2035
63639W        W 1133   4.167  29.339  12.753 -0.0542 -0.0016  0.1589
63640W        W 1134  21.970  29.069  21.666 -0.1561  0.1679 -0.0884
63641W        W 1135  24.415   3.337   3.329  0.0110  0.1282 -0.0763
63642W        W 1136  28.536  32.171   4.304 -0.1689  0.0641  0.1446
63643W        W 1137  13.087  31.409  11.862  0.1866 -0.1524 -0.1168
63644W        W 1138  35.286  14.536  26.112  0.1331  0.1446 -0.0685
63645W        W 1139  28.345   8.313  23.752 -0.2308 -0.4403  0.0620
63646W        W 1140  16.462   1.546  18.691  0.2543 -0.1054 -0.2318
63647W        W 1141  25.401  14.892  24.734 -0.0491 -0.1876  0.1251
63648W        W 1142   6.428  18.107   0.946  0.0629  0.1692 -0.1044
63649W        W 1143  32.633  22.105  16.984  0.2196  0.1923 -0.0640
63650W        W 1144  23.546  22.062   2.583 -0.2641 -0.3477  0.0150
63651W        W 1145  24.923  30.442  18.981  0.2782 -0.2757  0.1375
63652W        W 1146  24.463   1.585  19.270  0.0646 -0.2121  0.2649
63653W        W 1147  30.203  29.701   3.837  0.0081 -0.0986  0.0587
63654W        W 1148  26.694   7.696  10.962 -0.0533 -0.0579 -0.0468
63655W        W 1149   2.602  30.500  26.189 -0.0160 -0.0643 -0.1484
63656W        W 1150  31.119  25.121   9.904  0.3052 -0.2209 -0.3090
63657W        W 1151  17.548   8.037  10.198 -0.0242 -0.1015  0.2927
63658W        W 1152  11.129  31.925   0.285 -0.2419  0.1218 -0.5198
63659W        W 1153   0.403   5.145   2.631  0.2152 -0.0829  0.0204
63660W        W 1154  21.848   4.470  25.843 -0.1328  0.2835 -0.2062
63661W        W 1155  22.491  33.266  22.844  0.1381  0.0695 -0.4457
63662W        W 1156   8.005  32.580   4.685  0.2704  0.2385 -0.1839
63663W        W 1157  14.283  26.431   2.312  0.0809  0.1573  0.1554
63664W        W 1158  19.720  29.233  18.920  0.0956 -0.0294  0.0890
63665W        W 1159  12.452  25.379  25.033  0.0290 -0.3489 -0.2938
63666W        W 1160  28.342  31.122  15.401  0.1113  0.1333  0.3521
63667W        W 1161  31.118   3.255  16.435 -0.0122 -0.5810  0.3096
63668W        W 1162  19.866  24.572   8.360  0.1016  0.0859  0.0382
63669W        W 1163  10.030  27.670  23.657 -0.0355  0.0924 -0.2546
63670W        W 1164  17.604  23.902  25.679 -0.0095 -0.0231 -0.2717
63671W        W 1165   4.568   4.188  25.084  0.0671  0.0122  0.1734
63672W        W 1166   8.291  26.417   5.887  0.3198 -0.2858  0.4229
63673W        W 1167  13.399  13.064   9.309 -0.0627 -0.0813 -0.0203
63674W        W 1168  22.750  31.983   3.633  0.0232 -0.2919 -0.3422
63675W        W 1169  24.946   7.232  25.113  0.2589 -0.0391  0.1987
63676W        W 1170   4.852  18.822  23.453 -0.0068  0.1050  0.2068
63677W        W 1171  18.687  25.770  11.103  0.2649  0.2099  0.2016
63678W        W 1172  29.927   3.174  18.349 -0.1776  0.0225  0.0786
63679W        W 1173  24.895  10.590  12.093  0.0076 -0.2025  0.2877
63680W        W 1174  23.525  13.516  15.538 -0.0926  0.0387  0.0366
63681W        W 1175  13.682  13.027  24.490  0.2280  0.1587 -0.3245
63682W        W 1176   9.986  34.428  14.298 -0.1731 -0.2635  0.1379
63683W        W 1177  29.436  17.417   4.812  0.1158  0.2761 -0.3020
63684W        W 1178   0.715  25.125  22.660  0.0573  0.0394 -0.3726
63685W        W 1179  21.869  29.153  24.751  0.1817  0.0441  0.1856
63686W        W 1180   1.678   3.125   8.946  0.0174  0.2073  0.2018
63687W        W 1181  28.299  35.042  19.537 -0.1753  0.3687  0.0448
63688W        W 1182  14.655   6.579   9.544 -0.0991 -0.2929 -0.0042
63689W        W 1183   0.933  11.916  18.597 -0.0419  0.0984 -0.0297
63690W        W 1184  23.556   2.413   7.329  0.1951  0.0011 -0.1778
63691W        W 1185   0.328  15.357  15.942  0.0683 -0.2755 -0.3228
63692W        W 1186  10.246   0.437   7.896 -0.1437  0.1276  0.5180
63693W        W 1187  12.584  14.942  24.322  0.0285 -0.0401 -0.0558
63694W        W 1188  30.702   0.887  17.332 -0.0007 -0.1213  0.1973
63695W        W 1189  30.762  33.403  23.812 -0.0329  0.0385 -0.0372
63696W        W 1190  11.970   5.552  10.598  0.1417  0.0409 -0.1605
63697W        W 1191  26.143  13.818  14.835 -0.1127  0.0650  0.0219
63698W        W 1192  22.126  33.130  17.700  0.0942 -0.0030  0.1125
63699W        W 1193  26.878   7.563  15.926  0.1643  0.1044  0.0694
63700W        W 1194   4.262   1.598   8.798 -0.1634 -0.0552  0.1154
63701W        W 1195  11.934  23.563  10.217  0.0331 -0.2094 -0.2437
63702W        W 1196   8.280  24.635   8.698  0.1642  0.3847  0.2292
63703W        W 1197   7.102   4.125  23.809  0.2122  0.4343  0.1333
63704W        W 1198   0.808   4.263  18.912  0.3429 -0.0191  0.0518
63705W        W 1199  22.084  11.982  22.895  0.1994  0.0683  0.0192
63706W        W 1200  17.753  31.600   4.551  0.0607  0.1459 -0.0266
63707W        W 1201  16.464  13.976   2.443  0.0008 -0.5070  0.0915
63708W        W 1202  26.564   1.905  25.340 -0.0087  0.1835 -0.1604
63709W        W 1203  34.940  33.954   7.850 -0.2412  0.0474 -0.0080
63710W        W 1204   0.616   6.223   6.072  0.2225  0.3410 -0.2456
63711W        W 1205  11.667   5.393  19.302  0.0842  0.2381 -0.0489
63712W        W 1206   4.477  10.448  16.674  0.3099 -0.1968  0.2197
63713W        W 1207  13.161  33.259   3.669 -0.0252  0.2892 -0.1605
63714W        W 1208   5.993  34.582  22.949  0.3067 -0.1601 -0.1052
63715W        W 1209  11.675   5.923   5.958  0.0061 -0.0728  0.1591
63716W        W 1210   1.247  11.927   0.766  0.0569 -0.0044  0.2583
63717W        W 1211  24.471   6.962  20.702  0.1784  0.3415 -0.1172
63718W        W 1212   0.430  30.503   5.921 -0.1010 -0.2117 -0.0625
63719W        W 1213  21.219  24.507  19.438  0.0391  0.2963 -0.1956
63720W        W 1214  32.296  21.973  26.236 -0.2268  0.0708 -0.1979
63721W        W 1215  19.132  21.269  21.557 -0.2617 -0.1986 -0.2739
63722W        W 1216   7.083  27.667   0.131  0.0440 -0.1120  0.1123
63723W        W 1217  11.326   2.989   0.953 -0.2199 -0.0330  0.1194
63724W        W 1218  29.659   0.473  22.495 -0.1783 -0.0409 -0.0897
63725W        W 1219  19.042   5.971   6.159 -0.0077  0.2728 -0.0601
63726W        W 1220  16.257   2.933  20.235  0.2799 -0.1073  0.1334
63727W        W 1221  24.195  12.752   2.373  0.2336  0.0429 -0.1875
63728W        W 1222  20.536  30.266   4.256  0.2157  0.2753  0.2306
63729W        W 1223  27.062  33.187   4.716  0.1460  0.1151  0.1404
63730W        W 1224  17.301  34.545  19.285 -0.0029  0.2112  0.3682
63731W        W 1225  19.996   5.600   8.414 -0.3644 -0.0361  0.0100
63732W        W 1226   4.794   5.674   4.056 -0.0552  0.1095  0.2265
63733W        W 1227  16.935  33.660   0.335 -0.0455  0.1397 -0.1670
63734W        W 1228   2.031  26.536   5.451  0.1199  0.2845  0.2321
63735W        W 1229   6.219  19.790   3.573  0.2550  0.0073  0.1085
63736W        W 1230  29.317  21.556  24.013  0.1429  0.0829  0.1445
63737W        W 1231  28.787  13.057  21.090 -0.4948 -0.0811  0.2702
63738W        W 1232  25.844   1.535  20.254  0.1867 -0.2722  0.0725
63739W        W 1233  12.235  21.575   4.169 -0.1804 -0.1003  0.0780
63740W        W 1234   3.758   2.802  19.998  0.2651  0.1601  0.0943
63741W        W 1235   6.967   2.528  21.624  0.0936 -0.4512 -0.0649
63742W        W 1236   2.960  12.995  22.120  0.0816 -0.1325  0.1978
63743W        W 1237  32.080  25.428   9.229  0.0199  0.1251  0.1291
63744W        W 1238   6.338  25.817  12.344 -0.1419  0.2796  0.0075
63745W        W 1239  10.048  33.796   8.871  0.2153  0.1634  0.0678
63746W        W 1240  12.942  33.480   7.493 -0.2729 -0.0462  0.3635
63747W        W 1241   1.954   1.155   5.658  0.0673  0.3644  0.2009
63748W        W 1242  10.435  31.404  23.964  0.3156  0.0077 -0.1786
63749W        W 1243  31.838  17.603  13.050  0.1499 -0.2072  0.0477
63750W        W 1244  11.174  12.419  13.271 -0.0454  0.0814 -0.1878
63751W        W 1245   2.356  17.316  17.269  0.1793  0.0339 -0.1989
63752W        W 1246  19.795  19.209  21.284 -0.1607 -0.4525 -0.0638
63753W        W 1247   4.789  29.774  20.293  0.2472  0.3492  0.1188
63754W        W 1248   4.005  30.636  23.819  0.0039  0.2490 -0.0644
63755W        W 1249   6.074  33.287   9.682 -0.2179  0.0866  0.2289
63756W        W 1250  17.497  28.576   9.593  0.0203 -0.2324  0.0393
63757W        W 1251   4.051  12.217  18.375  0.1128  0.2495  0.3140
63758W        W 1252  27.622  30.737  23.099 -0.0486  0.1085 -0.3384
63759W        W 1253  30.425  18.071  21.447  0.3015 -0.1779  0.2177
63760W        W 1254  19.283  20.992   2.966  0.0763  0.1882  0.0009
63761W        W 1255  15.684  33.869  24.705 -0.1534  0.1712 -0.2290
63762W        W 1256  30.683  12.198  10.228  0.4501  0.0018  0.3759
63763W        W 1257   2.309   6.663  23.898 -0.1091 -0.0199  0.0105
63764W        W 1258  13.803  20.380   8.055  0.3791 -0.4125 -0.1403
63765W        W 1259   3.324   7.717   7.353 -0.4721  0.0144  0.0306
63766W        W 1260  17.504  17.724  24.181  0.0423  0.1333  0.0451
63767W        W 1261  32.983  27.165   2.840 -0.1660  0.1212  0.1185
63768W        W 1262  28.807   0.012  23.327  0.1036  0.1461 -0.1191
63769W        W 1263   4.938   8.420   4.752  0.0825 -0.0128  0.0646
63770W        W 1264  27.074  29.292   2.019  0.2238  0.1954 -0.0161
63771W        W 1265  24.548   5.798   2.260 -0.1407  0.1001 -0.2982
63772W        W 1266  18.778  26.450  20.587 -0.0292 -0.1462 -0.0151
63773W        W 1267   9.942  12.549  10.052 -0.0158 -0.0718 -0.1705
63774W        W 1268   4.185  14.761  21.814 -0.0849  0.3415 -0.3024
63775W        W 1269  24.639  17.628  15.341 -0.2423  0.2353  0.0805
63776W        W 1270  33.748  28.561  13.978 -0.2534  0.1138  0.1347
63777W        W 1271  29.619  32.822  13.467  0.3852  0.0959 -0.1885
63778W        W 1272  16.866   7.603   8.956  0.0856  0.1015 -0.0243
63779W        W 1273  29.029  26.753  12.550 -0.1985 -0.2518 -0.0382
63780W        W 1274  11.607   6.446  23.094  0.2894  0.0529  0.2068
63781W        W 1275  25.043  21.479  24.193 -0.0865  0.0293  0.1084
63782W        W 1276  25.558  33.464   1.497 -0.0831  0.0654 -0.0491
63783W        W 1277  11.379  13.496  24.832  0.2313 -0.1066 -0.2617
63784W        W 1278   7.830   3.135  20.783 -0.0442 -0.3772  0.1663
63785W        W 1279  31.897  34.068   3.340 -0.0389 -0.1300 -0.3736
63786W        W 1280  31.468  33.694   6.814 -0.3762 -0.2433  0.0380
63787W        W 1281  20.277  29.390  22.366  0.2156 -0.2880 -0.0565
63788W        W 1282  23.372  18.885  15.407  0.0433 -0.0598 -0.0669
63789W        W 1283  28.184   2.689  11.445 -0.1737 -0.0550 -0.4718
63790W        W 1284   5.641  23.314  23.867  0.0250 -0.0553  0.0220
63791W        W 1285  32.097  31.915   0.351 -0.0433  0.2040 -0.0867
63792W        W 1286   3.122  17.239   0.839  0.1644  0.1026 -0.2680
63793W        W 1287  24.199  29.464   4.761  0.0380 -0.1174 -0.1979
63794W        W 1288   3.862  22.321   6.032 -0.0150 -0.2768  0.4869
63795W        W 1289   1.106   3.934   6.367 -0.0299 -0.1713 -0.2805
63796W        W 1290   3.227  20.955   4.124  0.0896  0.2877  0.3186
63797W        W 1291  33.714   5.076  18.967 -0.2775 -0.1948 -0.4717
63798W        W 1292  30.891  11.960  18.570  0.1826 -0.2863 -0.0707
63799W        W 1293  15.835  30.485   3.703  0.1072 -0.0364  0.2125
63800W        W 1294  28.558   5.434  24.538 -0.3900  0.0857 -0.2653
63801W        W 1295  33.166  14.327   8.809 -0.0528  0.0310  0.0490
63802W        W 1296  23.735  28.875  20.587  0.2536 -0.1985 -0.0436
63803W        W 1297  15.248  25.388   7.797 -0.0078 -0.3164  0.1278
63804W        W 1298  29.165  16.288  23.073 -0.2286 -0.0066  0.2866
63805W        W 1299  12.859  23.165  11.638  0.1150  0.3320 -0.1033
63806W        W 1300  15.821  15.586   5.216  0.1425  0.2235  0.2304
63807W        W 1301  17.858   1.775   1.582  0.0485  0.1447  0.3199
63808W        W 1302  26.547  33.540  23.472  0.2233 -0.0685  0.0188
63809W        W 1303  25.063  15.662  21.868  0.2143  0.0978 -0.0311
63810W        W 1304   5.848  20.770  24.768  0.0160 -0.3450 -0.1849
63811W        W 1305   5.163  11.546  24.596 -0.0892  0.1337  0.0389
63812W        W 1306   2.819  10.604   1.042  0.4616  0.1478 -0.0418
63813W        W 1307  16.114  18.717  10.863  0.0923  0.1392 -0.1390
63814W        W 1308  12.880   9.539  11.844 -0.0677  0.0695 -0.0073
63815W        W 1309  32.084  27.903  23.788 -0.1714 -0.0342  0.0349
63816W        W 1310  25.553   9.836  13.641  0.0093  0.0127  0.1380
63817W        W 1311  25.626  34.129  22.314 -0.2853 -0.0025 -0.3227
63818W        W 1312  19.043   7.816   8.048 -0.1993 -0.0048  0.1824
63819W        W 1313  18.477   4.865  12.239  0.2688 -0.0235  0.2488
63820W        W 1314  21.332   5.787   3.412  0.0488  0.1854 -0.0177
63821W        W 1315  13.313  21.514   2.795  0.0210  0.0140  0.1324
63822W        W 1316  26.357   3.046   2.106  0.1899 -0.1824 -0.1814
63823W        W 1317  33.290  31.037  20.065  0.0877 -0.0432  0.3368
63824W        W 1318  19.465   6.372  19.643  0.1870  0.0143  0.1564
63825W        W 1319   5.981   1.686  23.226 -0.1191 -0.0877 -0.0724
63826W        W 1320  11.317  15.158   8.076  0.0773 -0.0467  0.0387
63827W        W 1321   8.568  17.078  20.435  0.1914  0.1734 -0.0012
63828W        W 1322  18.759  10.505   4.918 -0.0097  0.1518  0.3109
63829W        W 1323  28.885  10.700  25.969 -0.1200  0.0736  0.1512
63830W        W 1324  22.006  31.881   5.476 -0.5392  0.3099  0.0492
63831W        W 1325  31.996  12.820  12.360  0.0195 -0.1601 -0.0458
63832W        W 1326   8.070  26.190  23.307  0.1359  0.1298 -0.1102
63833W        W 1327  33.146  11.577  15.992  0.2339  0.1082  0.3128
63834W        W 1328  26.751  31.389  23.889 -0.0576  0.0255  0.0380
63835W        W 1329   5.526  16.703   8.206 -0.0371 -0.0659  0.1211
63836W        W 1330   1.953  15.631  21.473  0.2855 -0.1727  0.0768
63837W        W 1331   1.387  28.584   8.311  0.1338  0.2995  0.1667
63838W        W 1332  10.261  22.202  16.724  0.1614 -0.0732 -0.1646
63839W        W 1333  15.841  22.778   3.637 -0.1288 -0.1723  0.0975
63840W        W 1334  12.088   1.377  20.427 -0.2063  0.0115  0.0105
63841W        W 1335  26.966  18.760  25.813 -0.0940  0.2517 -0.2709
63842W        W 1336  25.198  28.476  10.526  0.2110  0.0311 -0.0619
63843W        W 1337  17.362   9.069   2.809  0.1183 -0.2056 -0.1374
63844W        W 1338  28.676  16.150  25.516 -0.0737  0.2766  0.4053
63845W        W 1339  22.770  20.513  16.622 -0.3163  0.0478 -0.0961
63846W        W 1340  17.354   5.239  11.414  0.1118  0.3124  0.3440
63847W        W 1341  31.474  21.720  17.663  0.0229 -0.0539 -0.0798
63848W        W 1342  16.077  22.001   2.221  0.0467 -0.2234 -0.3272
63849W        W 1343  16.448  34.486  20.222 -0.1334  0.2729  0.0331
63850W        W 1344  16.208  32.005   5.041  0.0300  0.0566  0.1014
63851W        W 1345  13.652  30.735  11.338  0.0576  0.1248  0.3128
63852W        W 1346  15.462  10.485  25.999 -0.0728  0.1380 -0.0674
63853W        W 1347  25.446  35.119  23.091 -0.0622 -0.2205  0.2319
63854W        W 1348  28.833  26.600  10.022  0.1128 -0.0237 -0.1686
63855W        W 1349  15.649  28.168   0.862 -0.1344 -0.0338  0.0098
63856W        W 1350  29.662  24.066  24.443 -0.1193  0.1985  0.0289
63857W        W 1351  27.717   1.415   2.998 -0.0201 -0.1206  0.3802
63858W        W 1352  17.618   2.918   2.630 -0.0082 -0.4050  0.0926
63859W        W 1353   1.517   8.893  23.227  0.2109 -0.0343  0.2980
63860W        W 1354  26.078   0.211  20.211 -0.3026  0.0818 -0.0269
63861W        W 1355   5.415  28.529  12.228 -0.0457 -0.0714  0.1106
63862W        W 1356   7.014   7.906  21.009  0.0337 -0.3460 -0.0913
63863W        W 1357  30.649   7.859   8.374  0.0120  0.1600 -0.0693
63864W        W 1358  18.857  17.747   7.243  0.3430  0.1913  0.1390
63865W        W 1359  14.637  27.581   5.695 -0.2207  0.0871 -0.1679
63866W        W 1360  24.524  18.529  24.731  0.1086 -0.1013  0.0912
63867W        W 1361   5.465  32.275  25.731  0.2009 -0.1509 -0.3886
63868W        W 1362   6.933  30.700   8.785 -0.0157 -0.1320  0.1936
63869W        W 1363  33.825   9.453   2.302  0.1175 -0.0507  0.0198
63870W        W 1364  30.499  14.506  23.684  0.1948  0.2074 -0.0486
63871W        W 1365   8.292   3.791   7.882 -0.2215 -0.1075 -0.0389
63872W        W 1366  14.985  32.311   4.400 -0.0260  0.2342  0.3748
63873W        W 1367  35.311  21.818  10.828  0.3078 -0.2184  0.0033
63874W        W 1368   1.404   1.079   3.347 -0.1450 -0.0736 -0.1684
63875W        W 1369   3.986  25.854  10.172  0.0956 -0.0477  0.1681
63876W        W 1370   5.668   5.267   2.426  0.1187 -0.2652  0.3328
63877W        W 1371  14.992  17.641  19.255 -0.1931  0.2314  0.0350
63878W        W 1372   0.085  18.922  19.451  0.0440  0.1295 -0.0872
63879W        W 1373  31.639  27.091  23.316 -0.2138 -0.2039 -0.0157
63880W        W 1374  30.118   5.351   2.676  0.1569 -0.5695 -0.1757
63881W        W 1375  33.728   9.554  15.897 -0.0617  0.0668  0.1366
63882W        W 1376   9.271  19.340  14.740 -0.0014  0.1467  0.0182
63883W        W 1377   9.751   8.711   3.150 -0.0040 -0.1421  0.0155
63884W        W 1378  12.199   5.281   3.780  0.1995 -0.3837 -0.1408
63885W        W 1379  22.486   3.986   0.069  0.2603  0.0637  0.2719
63886W        W 1380  13.666  15.520   2.246  0.3323  0.1885 -0.2824
63887W        W 1381  11.910   7.015  14.518 -0.0475  0.1895 -0.0479
63888W        W 1382  21.464   7.379   4.993 -0.1091 -0.2193 -0.2634
63889W        W 1383  18.064  30.739  18.177  0.0914 -0.1836 -0.0693
63890W        W 1384  12.220  10.263   6.524  0.4143 -0.0554  0.0411
63891W        W 1385  33.051  17.270   0.922 -0.0071  0.0510  0.1757
63892W        W 1386  15.611   7.857   8.490 -0.1093 -0.2974  0.1869
63893W        W 1387   7.999  25.658   0.737  0.1142 -0.0189  0.0650
63894W        W 1388  15.282  34.618   8.655 -0.1560  0.1266  0.2931
63895W        W 1389  16.440  30.962   3.419 -0.3622 -0.1020 -0.0210
63896W        W 1390  33.924  26.276   1.260 -0.2818 -0.3005  0.3961
63897W        W 1391  14.894   8.092   7.193 -0.0422  0.1698 -0.0145
63898W        W 1392  16.305  12.970   4.139  0.5151 -0.0824 -0.5663
63899W        W 1393  15.035   8.984  20.852  0.4461 -0.1458 -0.0356
63900W        W 1394  26.688  28.290  14.956  0.0760 -0.1984  0.0890
63901W        W 1395  26.595  19.716  23.443 -0.0174  0.0625 -0.0112
63902W        W 1396  14.912  22.389  22.983  0.1090 -0.3551 -0.1919
63903W        W 1397  18.574   3.983   0.209  0.1800 -0.0565 -0.0886
63904W        W 1398  29.687   9.060  22.070  0.0321 -0.0113  0.2399
63905W        W 1399   3.853  34.526  25.537 -0.0974  0.3189 -0.0213
63906W        W 1400  27.953  10.793  23.996  0.2788  0.1062  0.3645
63907W        W 1401  24.322   5.462   1.104 -0.0774 -0.0775 -0.1594
63908W        W 1402  34.905   6.106   4.607  0.0087  0.1592 -0.0874
63909W        W 1403  27.897  10.228  17.756 -0.2449 -0.2158  0.0985
63910W        W 1404  31.358  23.255  10.941 -0.0303 -0.1378  0.0980
63911W        W 1405   8.993   9.654   2.752 -0.0373  0.0081  0.2669
63912W        W 1406  17.289   9.205   1.910  0.1135  0.0853  0.3389
63913W        W 1407  17.229  23.472   4.028  0.1974 -0.3678  0.0811
63914W        W 1408  18.343  19.855   8.798  0.0229 -0.1048  0.1180
63915W        W 1409   5.837   7.570  21.648 -0.4450  0.0541  0.2045
63916W        W 1410   2.333   1.019   2.694 -0.2996 -0.1327 -0.0804
63917W        W 1411  22.520  10.665  14.550 -0.1855 -0.1901  0.0313
63918W        W 1412   0.287  10.179  21.590 -0.3067 -0.1499  0.1915
63919W        W 1413  13.133  23.716  13.981 -0.1322 -0.3252 -0.1232
63920W        W 1414  10.210  23.502   2.457  0.4165 -0.2071 -0.1778
63921W        W 1415  33.664   5.960  22.094  0.0959  0.1288  0.0440
63922W        W 1416   5.199  15.808   5.687  0.0029 -0.2122  0.0281
63923W        W 1417  24.664  17.730  20.317 -0.1527  0.0382  0.1478
63924W        W 1418   1.969  31.536  25.062 -0.1947  0.1054 -0.0750
63925W        W 1419  28.869   7.061  24.992  0.1266  0.0413  0.0254
63926W        W 1420  30.920  19.425  17.832 -0.0481  0.0343  0.1271
63927W        W 1421  31.234   4.537   1.495 -0.2083 -0.2215  0.0449
63928W        W 1422  18.094  14.071   6.693 -0.1990 -0.1944 -0.1148
63929W        W 1423  15.947  24.762   9.358 -0.1689 -0.1951  0.1439
63930W        W 1424  27.965  32.468  18.416  0.0645 -0.2828 -0.0372
63931W        W 1425   4.821  30.168  21.071 -0.0153  0.0789 -0.4796
63932W        W 1426  33.871  10.852   0.022 -0.1300 -0.1370  0.0541
63933W        W 1427  22.102  27.594   2.447 -0.0180 -0.0564  0.1345
63934W        W 1428  34.170  26.979  17.759  0.2109  0.1753  0.3131
63935W        W 1429  27.110  11.377  11.837  0.1767 -0.0759 -0.1749
63936W        W 1430  26.167  26.148  19.127  0.2982 -0.1164  0.1268
63937W        W 1431  13.748  35.159   8.746  0.0467  0.0141 -0.2355
63938W        W 1432  16.636   8.419   7.346  0.0616 -0.3389  0.0804
63939W        W 1433  35.023  19.680   0.362  0.2618  0.1968 -0.4323
63940W        W 1434   5.398  16.046  25.497  0.1396 -0.2593 -0.1346
63941W        W 1435  34.699  16.796   0.646  0.3910 -0.2892  0.2711
63942W        W 1436  21.575  13.775  26.134 -0.1313  0.0779  0.0778
63943W        W 1437  15.892  17.551  22.173 -0.1411  0.0356  0.0390
63944W        W 1438  26.337  23.441  12.421 -0.1938  0.0722  0.0319
63945W        W 1439  32.373  20.453  12.254  0.3473 -0.2736 -0.0310
63946W        W 1440   0.884  16.893  25.894  0.0788  0.5007 -0.0435
63947W        W 1441  26.810   8.490  14.833 -0.3449 -0.2341  0.2237
63948W        W 1442  32.853   6.212  12.399 -0.1442  0.2165 -0.2063
63949W        W 1443  26.450   4.755  13.614  0.0075 -0.0805  0.2979
63950W        W 1444  10.974  12.611  12.346  0.1329  0.0889 -0.1410
63951W        W 1445  14.631   0.925   8.611 -0.0047 -0.0313  0.1373
63952W        W 1446  32.150   5.636  25.988  0.2520  0.0056 -0.1404
63953W        W 1447  15.408   0.134   1.855  0.0265 -0.2088  0.0643
63954W        W 1448  14.732  30.155  24.959  0.3861 -0.3193  0.0050
63955W        W 1449  28.780  10.118  21.919 -0.1342  0.0386  0.3574
63956W        W 1450   4.381  26.914   2.871 -0.3371 -0.0013 -0.1335
63957W        W 1451  24.448   0.019  22.485  0.1719 -0.0556 -0.1222
63958W        W 1452  24.108  27.967  12.398  0.2234 -0.2623 -0.1636
63959W        W 1453  22.400   2.730   0.280 -0.0503  0.0947 -0.2765
63960W        W 1454  28.487   7.588  18.884 -0.0491  0.1573 -0.3658
63961W        W 1455  19.626  31.930   0.078  0.0695  0.0884 -0.0739
63962W        W 1456  11.574  17.501   4.061  0.1169 -0.1036 -0.0395
63963W        W 1457  20.383   1.906  19.954  0.1248  0.1928  0.3530
63964W        W 1458  26.616  34.527   2.324  0.1374  0.2879  0.4223
63965W        W 1459  28.290   5.001   3.579  0.2480  0.0841 -0.0559
63966W        W 1460  30.574  19.097  25.543  0.2450  0.0111  0.1431
63967W        W 1461  15.913  22.079   4.852  0.5124 -0.1503  0.2782
63968W        W 1462  33.417  33.679   4.860  0.1123 -0.0802  0.4350
63969W        W 1463  17.322  14.527  10.888 -0.0190 -0.3519  0.0875
63970W        W 1464  10.578   1.783  25.712 -0.0032 -0.1190  0.1889
63971W        W 1465  13.593  29.264   2.172  0.0686 -0.1394 -0.1982
63972W        W 1466   3.823  31.968   6.873 -0.0554 -0.0690  0.0246
63973W        W 1467  18.035  20.829  11.982  0.0523  0.0992 -0.0449
63974W        W 1468   9.978  15.313   1.246 -0.3100  0.4306 -0.1662
63975W        W 1469  32.067  33.477   2.268  0.0327 -0.0240  0.0395
63976W        W 1470  10.713  33.766  26.227 -0.4259 -0.0615 -0.0463
63977W        W 1471  10.160  16.878   9.741  0.0384 -0.0848 -0.0046
63978W        W 1472  30.950  25.121  23.611 -0.0147 -0.1252  0.2277
63979W        W 1473   3.827  18.115  18.956 -0.2102  0.0692  0.2215
63980W        W 1474   9.323  20.160  10.661  0.1032  0.1890  0.0781
63981W        W 1475  13.073  25.587  17.321 -0.1922 -0.1976  0.2053
63982W        W 1476  29.699   0.975  14.075  0.0371 -0.1954 -0.1301
63983W        W 1477  26.838   1.240   1.423  0.0085  0.0848  0.4346
63984W        W 1478   8.102  35.265   8.327  0.2661  0.0144  0.0655
63985W        W 1479  25.284  22.086  15.126  0.0476 -0.0094 -0.0165
63986W        W 1480   9.249  10.927  25.010 -0.3173  0.2000  0.0869
63987W        W 1481   8.706  31.408   2.791  0.0947 -0.3926 -0.1087
63988W        W 1482   4.329   6.731   5.435 -0.4303  0.1566 -0.1511
63989W        W 1483  29.317  25.461  22.716  0.0767  0.1641 -0.1241
63990W        W 1484  26.331  22.350  19.790  0.1348 -0.0258  0.1661
63991W        W 1485   6.794  31.656   5.076 -0.0036 -0.0978 -0.1073
63992W        W 1486  13.262  12.144   9.700 -0.0113 -0.0836  0.0886
63993W        W 1487   3.936  10.849  18.875  0.0724  0.1405  0.0165
63994W        W 1488   0.683   1.742   7.589  0.0486 -0.0435  0.0228
63995W        W 1489  18.666   6.548   8.252  0.0889 -0.3845 -0.4549
63996W        W 1490   5.003  27.559   5.506 -0.2146 -0.2907 -0.3784
63997W        W 1491  20.038   7.799   4.062 -0.3178  0.2013  0.0480
63998W        W 1492   1.304  33.533   5.731 -0.1129  0.4819  0.0861
63999W        W 1493  35.129  19.900  18.313  0.0844 -0.3580 -0.2520
64000W        W 1494  24.328  11.694   0.707 -0.2196 -0.3170  0.0823
64001W        W 1495  14.022  24.414   3.682  0.2808 -0.1178  0.0549
64002W        W 1496  34.754  28.413   6.014 -0.0043  0.3137  0.0686
64003W        W 1497   0.886   0.510   8.074  0.3550 -0.1014 -0.1904
64004W        W 1498  24.804   4.780   4.297 -0.1443 -0.1335  0.1254
64005W        W 1499  20.808  23.097  19.401 -0.2106  0.2140 -0.2501
64006W        W 1500  33.133   2.779  24.970  0.0152  0.2101  0.0135
64007W        W 1501   4.245  21.724   1.448  0.2348 -0.0619 -0.0059
64008W        W 1502   1.777   1.088   2.464 -0.0773 -0.0975 -0.0391
64009W        W 1503   6.003  33.667  13.375 -0.0746 -0.0599 -0.0768
64010W        W 1504  25.082  29.630  16.294  0.3606 -0.1892  0.1772
64011W        W 1505  24.166   0.150   1.501  0.5492  0.0451  0.0763
64012W        W 1506  15.029  21.266   6.001 -0.0655 -0.0050  0.0216
64013W        W 1507  12.410  26.613   1.402  0.2404  0.0782 -0.0339
64014W        W 1508  10.357   5.939  13.942 -0.0722  0.1223  0.0194
64015W        W 1509  11.117   2.760  23.697  0.0852  0.0800  0.0797
64016W        W 1510  10.232  20.601  10.881  0.0479  0.1950  0.0106
64017W        W 1511  19.956  22.072  24.259  0.1730 -0.1158  0.1091
64018W        W 1512   1.778  34.522   8.529 -0.1339  0.2562  0.2469
64019W        W 1513  29.019   5.528   4.104  0.1252 -0.0580 -0.0321
64020W        W 1514  31.566   0.487  21.323  0.3018 -0.1864 -0.2317
64021W        W 1515   7.347  22.264  11.580 -0.0436  0.0921  0.2527
64022W        W 1516  19.115   6.079  19.356  0.1709 -0.1844 -0.0025
64023W        W 1517   3.496  11.891  24.399  0.2621 -0.0168 -0.0633
64024W        W 1518  11.871  16.298   4.667  0.1605 -0.0936  0.0958
64025W        W 1519   7.723  27.386  14.109  0.3169  0.1654 -0.1293
64026W        W 1520  11.887  20.841  10.119  0.0917 -0.1969 -0.2135
64027W        W 1521  29.602  15.645  21.514 -0.1989  0.2818 -0.0161
64028W        W 1522  20.846  12.334   4.970 -0.1107 -0.3126  0.1350
64029W        W 1523  19.905   2.338  17.443 -0.0908  0.2712 -0.0930
64030W        W 1524  24.393  13.302  19.218 -0.1223 -0.0713 -0.2451
64031W        W 1525   9.927  22.143  13.362 -0.0983  0.1503 -0.1062
64032W        W 1526   7.868  12.148   5.528 -0.0234  0.0597 -0.0746
64033W        W 1527   1.822  21.946  25.000 -0.2848 -0.0418 -0.0663
64034W        W 1528  19.516  17.960   2.081 -0.0381  0.0940 -0.0594
64035W        W 1529  15.653   5.813  22.988  0.4290  0.0427  0.2502
64036W        W 1530  27.675  35.273  21.797 -0.2627  0.2180 -0.3440
64037W        W 1531  25.273  19.824   8.130  0.0028  0.1483  0.1883
64038W        W 1532  29.117  18.042  25.830 -0.2710  0.5140  0.0363
64039W        W 1533  23.417   5.045   0.025  0.1756  0.3367  0.1895
64040W        W 1534   0.184  13.902  20.596 -0.0566  0.1237  0.1426
64041W        W 1535   5.383   2.091  23.033 -0.0014  0.1716 -0.0193
64042W        W 1536  15.843  16.302   0.522 -0.0749  0.0539 -0.1955
64043W        W 1537  10.392   0.469   1.246 -0.0131 -0.1411  0.0509
64044W        W 1538  14.940  30.755  12.414 -0.3100 -0.1003  0.0594
64045W        W 1539  14.329   5.354   6.306  0.4233 -0.2458 -0.0750
64046W        W 1540  25.358  13.852  13.194 -0.1952 -0.2194 -0.2550
64047W        W 1541   0.777   8.782  23.540  0.3808  0.0327 -0.3107
64048W        W 1542  30.416  34.694   1.719 -0.0016 -0.0795  0.1882
64049W        W 1543  24.647  26.574  18.416  0.1201  0.0763 -0.1260
64050W        W 1544  24.141  10.867  13.348 -0.0506  0.1048  0.4156
64051W        W 1545  13.962  24.384  24.506  0.3578 -0.0782  0.1768
64052W        W 1546   8.204  10.457   0.013 -0.1897 -0.3522 -0.1545
64053W        W 1547  18.783  26.346   9.749 -0.0322 -0.1077  0.0708
64054W        W 1548   8.375  19.369  22.971 -0.2671 -0.5038  0.0761
64055W        W 1549   3.446  16.420  14.918 -0.1933  0.0612  0.0651
64056W        W 1550  31.947  12.159   7.317  0.0696 -0.2024 -0.0672
64057W        W 1551  35.197   3.896   1.944  0.0439  0.1068 -0.1897
64058W        W 1552  14.856  15.170  25.427 -0.1782  0.3077  0.2290
64059W        W 1553   3.918  14.589   1.672 -0.2722  0.1683 -0.1476
64060W        W 1554   5.359  13.022  25.204  0.0220 -0.0080  0.3597
64061W        W 1555   9.634  33.655   3.891  0.3955 -0.2213 -0.0946
64062W        W 1556  21.482  30.651   6.955  0.1316 -0.0143 -0.2745
64063W        W 1557  14.629  14.206  10.757 -0.2063 -0.2009 -0.2029
64064W        W 1558  17.213   8.241  22.170  0.3415 -0.1390 -0.1426
64065W        W 1559  21.315   7.991   0.565 -0.2887  0.4982 -0.2600
64066W        W 1560  10.860  11.349   2.097  0.0359  0.2396 -0.0058
64067W        W 1561  19.630  17.367   2.772 -0.0757  0.1238  0.1325
64068W        W 1562  16.549   6.605  10.457  0.1313 -0.1309 -0.0786
64069W        W 1563  28.331  26.536   9.275  0.3094  0.3594  0.1450
64070W        W 1564  22.580   5.200  18.418  0.0193 -0.1052 -0.0688
64071W        W 1565   5.208  22.356  21.530  0.2472 -0.1291  0.3319
64072W        W 1566  29.905   9.032   6.735 -0.1034 -0.3285 -0.0270
64073W        W 1567  33.980  19.353  14.613  0.1518  0.2501  0.0953
64074W        W 1568  31.121  34.358   0.778 -0.5538 -0.2219 -0.0972
64075W        W 1569   2.318  10.975  19.814 -0.1324 -0.0584 -0.2467
64076W        W 1570  14.168  28.572  10.892  0.4639  0.0924 -0.4100
64077W        W 1571   4.408  17.007  22.108 -0.1492  0.2244  0.2934
64078W        W 1572  27.646  12.999   7.347  0.1270  0.2938  0.1893
64079W        W 1573  18.638  22.713  21.323  0.1773 -0.3214  0.2035
64080W        W 1574  26.199  32.644  17.835  0.0687  0.1388  0.0368
64081W        W 1575  23.966  23.414   0.161  0.2494  0.0454  0.0568
64082W        W 1576  12.613  26.343  12.085 -0.1564  0.0247 -0.3575
64083W        W 1577   1.902  31.860   7.300 -0.1116 -0.0481 -0.0110
64084W        W 1578  13.142  32.050   4.550 -0.0240  0.1615 -0.1342
64085W        W 1579   6.600  31.108  23.159 -0.1278 -0.1316 -0.2516
64086W        W 1580  32.330   0.684   4.966 -0.0580  0.1586 -0.4520
64087W        W 1581   7.611  16.338   7.028  0.2306  0.1526  0.2784
64088W        W 1582  22.661  30.157  20.813 -0.3440 -0.2385  0.0956
64089W        W 1583  29.876  34.635  22.663  0.1927 -0.3022 -0.0155
64090W        W 1584  16.948   5.487  20.500  0.1116 -0.2264  0.1777
64091W        W 1585  22.517  29.616  20.677 -0.3516  0.1084  0.2990
64092W        W 1586   2.027  29.035  20.097 -0.1244  0.0709 -0.0666
64093W        W 1587  25.647  32.263  21.399  0.2041 -0.2059  0.1719
64094W        W 1588  30.426  28.879   3.971 -0.0913  0.0150  0.1518
64095W        W 1589   7.867  28.902  11.307 -0.0919 -0.0003 -0.1205
64096W        W 1590  26.324  18.777  14.391 -0.2850 -0.2172  0.4486
64097W        W 1591  30.433  19.866  15.160  0.0786 -0.2103  0.1431
64098W        W 1592   4.618  19.128  20.865 -0.2215  0.2091  0.0157
64099W        W 1593   0.379  32.043   8.683 -0.0455  0.0837 -0.1338
64100W        W 1594  29.237  34.518   4.363  0.0001  0.2530  0.3015
64101W        W 1595  18.565  30.638  21.384 -0.0947  0.2947  0.0025
64102W        W 1596  34.890   5.768   1.419  0.1816 -0.0471 -0.1736
64103W        W 1597  20.544  18.834  20.166 -0.1676  0.3210 -0.3158
64104W        W 1598  10.291   8.518   0.560  0.2018  0.3851 -0.0954
64105W        W 1599  14.301  28.840  26.123 -0.0266 -0.2519  0.2977
64106W        W 1600  33.701  18.464  10.700 -0.1234  0.3210 -0.3476
64107W        W 1601  14.783   2.026  11.595 -0.4185  0.2478  0.0609
64108W        W 1602  15.427  21.607  13.776 -0.1162  0.1523 -0.0812
64109W        W 1603  12.889  31.526  20.730  0.1180  0.3187  0.0841
64110W        W 1604  24.403  32.530  23.331 -0.1062 -0.0580 -0.4677
64111W        W 1605  21.058  22.221   0.074  0.0082 -0.1638  0.1492
64112W        W 1606  27.351  12.142  16.422  0.0075  0.0880  0.0829
64113W        W 1607  13.906  18.835   0.448  0.1922 -0.0981 -0.3126
64114W        W 1608   5.252   7.079  17.883  0.1793 -0.1914 -0.4459
64115W        W 1609  34.993  13.622   1.880 -0.0107  0.0499  0.2684
64116W        W 1610  14.840  28.582  14.642 -0.1240  0.1691 -0.0906
64117W        W 1611   9.417   3.552  11.293  0.0161 -0.1111  0.3713
64118W        W 1612  10.516  22.397   1.494 -0.0725 -0.0759  0.2149
64119W        W 1613  14.407  10.348  20.594  0.0266 -0.2004  0.0764
64120W        W 1614   5.541   3.735  20.230  0.0121  0.2101  0.1847
64121W        W 1615  15.377  22.332   7.310 -0.5099  0.1829 -0.1462
64122W        W 1616  18.203  33.306   1.867  0.0868 -0.1049 -0.1895
64123W        W 1617   6.716  28.729  10.608  0.0058 -0.0336  0.2560
64124W        W 1618  16.251   1.784  21.477  0.2743 -0.1794  0.0420
64125W        W 1619   9.461  13.016   4.336  0.0573 -0.2384 -0.0670
64126W        W 1620  31.716  25.825  26.118 -0.0632 -0.1120  0.0764
64127W        W 1621   4.167  19.819   4.099  0.0819  0.0995  0.2746
64128W        W 1622  26.414  30.977   1.628 -0.0753  0.1591 -0.0571
64129W        W 1623  20.272  11.277   3.284  0.1613  0.0508 -0.0254
64130W        W 1624  11.967   8.213   7.843 -0.5393 -0.1410  0.0943
64131W        W 1625  18.814  29.199   3.514  0.0531  0.1274  0.2257
64132W        W 1626  20.695  29.829   4.681 -0.0496  0.1420  0.1101
64133W        W 1627  28.732  23.144  14.414 -0.1561  0.0037  0.2765
64134W        W 1628  21.009  25.590   4.757  0.1118  0.1038  0.1294
64135W        W 1629   2.208  28.450  22.878 -0.2432 -0.1399 -0.0969
64136W        W 1630  30.109   8.719  19.572 -0.0822 -0.1045  0.1300
64137W        W 1631  34.432  18.426  16.904 -0.2272 -0.0227 -0.0749
64138W        W 1632  21.481   8.882   5.269  0.0585  0.0446 -0.1430
64139W        W 1633  11.855  16.775  13.415  0.0742  0.1387 -0.1995
64140W        W 1634  13.221  25.225   0.290  0.0502 -0.4171  0.3063
64141W        W 1635  27.043   7.970   0.265  0.1018 -0.0758 -0.2345
64142W        W 1636   2.944  32.232  11.813  0.0373  0.2217  0.1237
64143W        W 1637  14.466  16.640   8.875  0.0902 -0.0807 -0.6459
64144W        W 1638  29.273  10.318  15.598  0.0792  0.0932 -0.0348
64145W        W 1639   6.424  21.190   5.968 -0.0332  0.0650  0.0187
64146W        W 1640  30.662  23.216  14.397  0.0804 -0.1221 -0.1773
64147W        W 1641  32.712   1.928   7.857  0.0484  0.2801 -0.1758
64148W        W 1642  21.187  22.335  17.648  0.1816 -0.2480  0.0995
64149W        W 1643   2.851   3.893   4.136  0.3246 -0.1892 -0.0178
64150W        W 1644   6.851  30.793   4.590  0.1823  0.1884 -0.0584
64151W        W 1645  29.287  16.390  19.529  0.0937 -0.1869  0.4808
64152W        W 1646  20.560   9.003  18.591 -0.1828  0.0252  0.2847
64153W        W 1647  18.367  27.514   0.383 -0.0256  0.0398  0.1402
64154W        W 1648  28.242   0.901  25.729  0.1212 -0.0756 -0.1024
64155W        W 1649  17.764  21.629  25.423 -0.0246 -0.1874 -0.1857
64156W        W 1650  27.940  22.315  17.434  0.5555  0.1590  0.3097
64157W        W 1651  10.015   5.484   0.588 -0.1021  0.2030  0.2840
64158W        W 1652   0.169  33.253  24.964 -0.1990  0.2884 -0.1281
64159W        W 1653  14.121  34.662  20.301  0.1031 -0.1849  0.2231
64160W        W 1654  33.737   3.376  24.578  0.2900  0.0545 -0.1536
64161W        W 1655  26.282  12.719  16.106  0.1431  0.0796 -0.4417
64162W        W 1656  10.733   5.310  19.537 -0.1187  0.1200 -0.0429
64163W        W 1657   5.551   9.437  23.833  0.0478  0.1163 -0.0002
64164W        W 1658  13.929  28.711   4.069  0.1662  0.1207 -0.2219
64165W        W 1659   4.278  10.913  20.407 -0.1800 -0.1010 -0.0166
64166W        W 1660   9.744  25.908   8.549 -0.0856 -0.1402  0.0655
64167W        W 1661  20.377  14.519  24.819  0.0057 -0.1141  0.1210
64168W        W 1662  14.830  18.723   4.441 -0.0446  0.0010  0.3149
64169W        W 1663  33.995  29.764  17.332  0.0539 -0.3993 -0.0157
64170W        W 1664  12.351  24.924  22.641  0.0118 -0.2029 -0.1353
64171W        W 1665  32.602  30.496  14.749  0.0159  0.4107 -0.0382
64172W        W 1666  34.559  28.797   0.039  0.1283 -0.0824 -0.2999
64173W        W 1667  22.461  34.338   0.967 -0.0942 -0.4184  0.1775
64174W        W 1668   0.345  28.433  23.291  0.2072 -0.5122 -0.4000
64175W        W 1669  10.063  22.945  12.271  0.1775 -0.2824  0.1839
64176W        W 1670  16.535  23.360  20.971 -0.3483 -0.0737  0.0557
64177W        W 1671  13.882  26.536  16.392  0.1448 -0.0521  0.1170
64178W        W 1672  12.198  26.623   5.167  0.2509  0.1771 -0.1389
64179W        W 1673  25.771   3.715   4.804 -0.1547 -0.3878  0.0247
64180W        W 1674   6.769  12.538   2.201  0.2155  0.2542 -0.1589
64181W        W 1675  20.730  28.844   3.983 -0.0987 -0.0826  0.0835
64182W        W 1676  24.124  21.170  14.865  0.2573 -0.0164  0.2293
64183W        W 1677  34.759   0.981  25.469 -0.3026  0.1683  0.1148
64184W        W 1678  13.078  16.326  11.098  0.4765 -0.1027 -0.0117
64185W        W 1679   3.803  13.016  17.721 -0.2304  0.0826  0.0549
64186W        W 1680  29.584  17.430  15.145 -0.1711  0.2417  0.0215
64187W        W 1681   0.920  11.260  13.603 -0.0238  0.0022 -0.1115
64188W        W 1682  27.603  14.036  26.128  0.0030  0.0429 -0.2127
64189W        W 1683   5.194  18.067   3.024  0.1654  0.0648 -0.0069
64190W        W 1684   5.105  28.220  13.214  0.0717  0.2129 -0.0643
64191W        W 1685  18.062  28.742  21.785 -0.2649  0.2864  0.0399
64192W        W 1686  32.717  25.294  19.761 -0.1032 -0.0829  0.0780
64193W        W 1687   5.111  15.454   7.008 -0.1152 -0.1500  0.0587
64194W        W 1688   5.857  12.860  19.471 -0.2107 -0.0284  0.1011
64195W        W 1689  14.921   2.928   2.851 -0.1103  0.1944  0.2972
64196W        W 1690  20.585  33.425  19.527 -0.0318 -0.0443  0.2679
64197W        W 1691  19.435   0.557  16.110 -0.0591  0.0653  0.0506
64198W        W 1692  34.310  16.361  16.175 -0.3710  0.0375 -0.1502
64199W        W 1693   1.133  21.001   9.651  0.2418  0.1039 -0.2858
64200W        W 1694  14.955  10.492   9.785  0.0216 -0.0758 -0.1901
64201W        W 1695  30.351   4.300   3.274 -0.1469  0.0998 -0.0660
64202W        W 1696  24.171   0.110   5.389  0.2035 -0.1581  0.3925
64203W        W 1697   9.796  25.258   5.484 -0.0198 -0.1085 -0.0026
64204W        W 1698   8.007  23.505  15.425  0.2365  0.2838  0.0683
64205W        W 1699   4.288   0.404   6.113 -0.1005 -0.2107 -0.1826
64206W        W 1700   2.462  24.955  18.232  0.0414 -0.1960 -0.0351
64207W        W 1701  28.273  22.292  21.215  0.2060 -0.1494 -0.1225
64208W        W 1702  23.554  17.362  26.134  0.1086  0.3573 -0.1504
64209W        W 1703   3.834  31.892  19.254  0.4101  0.2254  0.1379
64210W        W 1704  24.280  15.094  13.974  0.1186 -0.2452 -0.0086
64211W        W 1705   4.082  11.204   8.023  0.3392  0.0153 -0.1250
64212W        W 1706  24.795  26.360  17.965  0.2771  0.0314  0.2481
64213W        W 1707   0.814  20.876  21.905  0.1353 -0.2823 -0.1179
64214W        W 1708  30.226  32.097   3.727  0.0371  0.3557  0.1869
64215W        W 1709  20.300   4.507   2.465 -0.1501 -0.1480  0.2097
64216W        W 1710  33.533  28.862   0.888  0.1240 -0.1297  0.0306
64217W        W 1711  15.977  27.909  22.552  0.0254 -0.3659  0.3421
64218W        W 1712  27.722  27.575  13.657 -0.0899  0.2000 -0.4369
64219W        W 1713   8.077  28.801   5.516 -0.0545 -0.3022  0.2477
64220W        W 1714  13.200  16.741   1.003 -0.1173 -0.1355  0.0470
64221W        W 1715  25.625  26.082  19.979  0.1412  0.3977 -0.0443
64222W        W 1716  26.651   3.228  22.437  0.1306  0.0936  0.2538
64223W        W 1717   1.242   4.065  22.041  0.0287 -0.1882 -0.0604
64224W        W 1718  11.415  30.724  10.134 -0.4334 -0.0664  0.0645
64225W        W 1719  27.588  31.204  19.171 -0.0669  0.4546  0.0707
64226W        W 1720  25.495  18.283  22.800 -0.0899  0.4188 -0.1026
64227W        W 1721  33.269  16.798  12.339  0.2307 -0.3306  0.2485
64228W        W 1722   6.914  23.330  22.408 -0.0350 -0.0721 -0.1639
64229W        W 1723   1.857  10.771  17.432  0.0198 -0.1714  0.2966
64230W        W 1724   1.001   5.482   5.975 -0.2251 -0.1417 -0.0691
64231W        W 1725  24.056  18.831   1.970 -0.2936  0.0623  0.2209
64232W        W 1726   5.173   5.630  23.274  0.2802  0.1766  0.0874
64233W        W 1727  11.923  15.592   1.370  0.1904  0.0091  0.3160
64234W        W 1728  32.727  21.209  23.476 -0.3455 -0.1425 -0.1722
64235W        W 1729  14.733  31.500  22.241  0.3750  0.0231  0.0700
64236W        W 1730  22.416   7.978  21.704 -0.0377 -0.4538  0.1733
64237W        W 1731  11.822   5.043   1.624 -0.3880  0.1890 -0.0496
64238W        W 1732   8.666  30.329  22.738  0.4841  0.2928 -0.3194
64239W        W 1733  24.330   1.235   3.839  0.0291  0.2143 -0.1729
64240W        W 1734   6.861   6.914   9.983 -0.0918  0.1171 -0.0489
64241W        W 1735  26.883  34.186   3.136  0.1014 -0.2672 -0.1586
64242W        W 1736  12.028  32.393  13.129 -0.2431  0.0748 -0.0145
64243W        W 1737  14.727  22.181  15.580  0.0384 -0.1911 -0.2788
64244W        W 1738  33.310  34.151   1.993  0.2675 -0.1420  0.0739
64245W        W 1739   2.600  35.370  19.311  0.2390  0.0276  0.2285
64246W        W 1740  17.395   0.616   2.836  0.0232 -0.2402  0.0997
64247W        W 1741  26.394  16.781   6.526  0.1516  0.4561  0.0462
64248W        W 1742   8.243  11.876  20.341  0.2821  0.0188 -0.1191
64249W        W 1743   6.897  11.436   7.514  0.0269 -0.0032 -0.3257
64250W        W 1744  31.440  25.722  11.675 -0.0031 -0.0966 -0.1952
64251W        W 1745  18.463  33.008  18.064  0.1019 -0.2268  0.2883
64252W        W 1746  19.379  34.182   7.533  0.1004  0.2346 -0.1468
64253W        W 1747  31.816  21.909   9.252  0.2598 -0.1887  0.0836
64254W        W 1748  15.917  22.172   6.509 -0.0239  0.1908  0.0491
64255W        W 1749  35.016  26.551   2.438 -0.1005  0.2588  0.3865
64256W        W 1750  19.432   2.317  15.444 -0.1096 -0.0234 -0.1554
64257W        W 1751   9.463   5.246   7.348 -0.0642  0.0502 -0.1573
64258W        W 1752  13.109  31.536  11.337 -0.3927  0.0188  0.2590
64259W        W 1753  18.406   5.977  18.225 -0.0948 -0.2691 -0.3117
64260W        W 1754   9.959  32.730   6.214 -0.1151  0.3020  0.0400
64261W        W 1755   4.012   1.621  23.669 -0.2556  0.2389  0.1525
64262W        W 1756  28.534  22.358   7.380 -0.1892  0.1970  0.3336
64263W        W 1757  30.016  28.016   0.816  0.0055  0.1566 -0.1709
64264W        W 1758   5.632  17.440   7.449  0.0909  0.0399 -0.0378
64265W        W 1759  26.242  18.744  20.959 -0.0224 -0.0558 -0.1398
64266W        W 1760   0.330  30.534  25.199 -0.1008 -0.0210  0.0387
64267W        W 1761  19.795  20.129  22.933  0.3360  0.0203 -0.1320
64268W        W 1762  23.369  34.853  24.123  0.1407 -0.0084  0.2865
64269W        W 1763  11.043  16.412   9.422  0.0378  0.0569 -0.2212
64270W        W 1764  23.278   2.251  18.764  0.0125 -0.1022  0.0170
64271W        W 1765  26.992  17.585  17.003 -0.0818  0.1890  0.0812
64272W        W 1766   4.495  34.471   9.058 -0.0918  0.0062 -0.1385
64273W        W 1767  17.018  29.986  24.599  0.1333 -0.0737 -0.2618
64274W        W 1768   1.809   1.328  23.475 -0.0288  0.2228 -0.3879
64275W        W 1769  28.186  27.824  15.007  0.1097  0.1675 -0.1216
64276W        W 1770  17.035  29.758  25.837  0.1906  0.0529 -0.0724
64277W        W 1771  22.830  32.356  20.811 -0.0536  0.1418 -0.2421
64278W        W 1772  29.682  11.058  25.102 -0.2354  0.1336  0.1882
64279W        W 1773  12.211  20.461   5.749 -0.1276  0.1739 -0.0895
64280W        W 1774  26.820  30.399  22.846 -0.0686 -0.1102 -0.1408
64281W        W 1775  13.155  18.552  23.333  0.0281 -0.0494 -0.0771
64282W        W 1776  21.654  12.560   0.831 -0.0182 -0.2946  0.1366
64283W        W 1777  21.558  33.882  21.134 -0.0072  0.1301  0.1322
64284W        W 1778   1.311   5.426  18.184 -0.1740  0.3610  0.0764
64285W        W 1779  33.483  10.800   1.728 -0.0420 -0.0816  0.2390
64286W        W 1780  26.510  24.424  18.112  0.0217  0.3688  0.2048
64287W        W 1781  17.787  28.053  24.148 -0.0310  0.0142 -0.0365
64288W        W 1782  18.937  29.876  26.077 -0.0084 -0.2534  0.2871
64289W        W 1783  19.009  26.447  23.797  0.2882  0.0889 -0.0284
64290W        W 1784  16.705  22.374   5.465  0.2113 -0.0936  0.0128
64291W        W 1785  25.792   0.953   2.723 -0.2195  0.1049  0.1956
64292W        W 1786  10.978  13.276   8.998 -0.2615 -0.0904 -0.4473
64293W        W 1787  12.046  33.193  15.344  0.1176  0.1784  0.1502
64294W        W 1788  22.388   2.219  24.213  0.1246  0.1411 -0.2800
64295W        W 1789   0.482  15.793  16.943  0.1408  0.6040  0.1283
64296W        W 1790  15.270   9.590  25.045 -0.1492  0.2167 -0.0226
64297W        W 1791  22.322  11.537  23.253  0.2538  0.3315 -0.2131
64298W        W 1792  32.879   0.931  18.982 -0.0468 -0.3523 -0.2779
64299W        W 1793  21.113  27.013  24.582 -0.1542 -0.2474  0.0758
64300W        W 1794  32.021  15.104  18.111  0.1059  0.1151  0.2639
64301W        W 1795  26.224  11.684  18.341 -0.0378  0.0684  0.1177
64302W        W 1796   5.440  10.580   8.923 -0.2041 -0.0092  0.2539
64303W        W 1797   5.869   9.776   6.776 -0.1818  0.1379 -0.2503
64304W        W 1798   0.675  21.260  20.980  0.0337  0.1555 -0.3207
64305W        W 1799   9.653  15.620  23.451  0.1287 -0.1515 -0.3018
64306W        W 1800  33.948  27.874  23.639 -0.3441  0.2867 -0.0190
64307W        W 1801  11.295  33.166  11.000 -0.2792  0.1761  0.0772
64308W        W 1802  31.156  24.423  19.295 -0.0747 -0.0228  0.4235
64309W        W 1803  19.564   0.177  17.494 -0.1289  0.1599  0.0730
64310W        W 1804  31.189   2.794  17.099  0.1882  0.3589 -0.2816
64311W        W 1805  31.644   7.097   0.245  0.1272  0.1803  0.1243
64312W        W 1806   1.965   5.070   5.162 -0.3748 -0.1655  0.3263
64313W        W 1807   1.000  18.993  25.469  0.2141 -0.1347 -0.0083
64314W        W 1808  24.764   5.989  25.434  0.1182  0.0785 -0.1667
64315W        W 1809  11.546  15.419   2.432  0.2740 -0.3117 -0.2855
64316W        W 1810  19.378  20.122   0.938 -0.1793 -0.0700  0.0053
64317W        W 1811  10.287  33.933  22.955  0.1752  0.2908  0.0485
64318W        W 1812  29.243  17.491  11.192  0.2348 -0.2236 -0.0693
64319W        W 1813   8.580   7.662  13.781  0.2586 -0.2838  0.4393
64320W        W 1814   6.117  20.436   6.417 -0.1012 -0.1128 -0.0876
64321W        W 1815   2.558   0.119   2.301  0.1606 -0.0582  0.1642
64322W        W 1816   1.582  31.282   1.969  0.1863  0.1673 -0.1496
64323W        W 1817   7.213  31.776   7.153 -0.2430  0.3007  0.1752
64324W        W 1818  11.716  18.133   0.602 -0.0542  0.2137  0.2847
64325W        W 1819  24.692  22.810  21.315  0.2173 -0.0069 -0.0969
64326W        W 1820   8.882  21.177  11.617  0.1438  0.1675 -0.0395
64327W        W 1821  29.948  18.166  16.683 -0.0135  0.1070  0.1828
64328W        W 1822  26.314  17.302   6.266 -0.0001 -0.1009 -0.1766
64329W        W 1823  34.575  15.216   8.356  0.1394  0.1102 -0.1401
64330W        W 1824  24.293  21.365  20.127 -0.3034  0.1688 -0.3301
64331W        W 1825  16.438   7.494  10.496 -0.1453  0.2280 -0.0831
64332W        W 1826   8.866  34.692  14.426  0.3442  0.1077  0.1985
64333W        W 1827  22.249  34.941   5.832 -0.2447  0.0699 -0.0998
64334W        W 1828  25.300  27.449  12.663  0.1244 -0.2230 -0.1106
64335W        W 1829  11.463   1.061  10.985  0.1698 -0.0277  0.1199
64336W        W 1830  24.848  26.325   0.640 -0.1022 -0.1098 -0.0606
64337W        W 1831  13.138   1.127   3.691  0.1452  0.2986  0.0897
64338W        W 1832  32.162  21.738   8.768  0.0730  0.0647  0.0462
64339W        W 1833  31.272  35.293   1.081  0.1236 -0.2103 -0.3257
64340W        W 1834  26.108  14.132  19.281  0.1877  0.2038  0.0408
64341W        W 1835  30.324  11.834   9.969  0.0695 -0.1035  0.3071
64342W        W 1836   9.882  16.056  26.093 -0.2313 -0.0477 -0.0156
64343W        W 1837   2.495  13.559  24.510 -0.4539 -0.2349  0.0512
64344W        W 1838   8.297  20.499   7.463  0.1429  0.2007  0.1499
64345W        W 1839   5.565   3.441  10.368  0.0920  0.1611  0.0885
64346W        W 1840   3.034  13.763  16.979  0.0918 -0.7086  0.2316
64347W        W 1841  27.680  15.146  24.271 -0.2307 -0.3631  0.2514
64348W        W 1842  12.876  26.995  22.374  0.1627  0.1441  0.0407
64349W        W 1843   7.630  21.194   5.111 -0.5319 -0.3372 -0.2032
64350W        W 1844  22.193   7.363   2.607  0.1628  0.0188 -0.0850
64351W        W 1845  10.967  17.887  11.976  0.0999  0.0817 -0.1461
64352W        W 1846   8.569   3.109  19.502 -0.2393 -0.0051  0.0647
64353W        W 1847   7.025   5.287   8.077 -0.0412 -0.1983  0.0400
64354W        W 1848  33.843   5.684  19.075  0.1478 -0.0120  0.2938
64355W        W 1849  26.278  35.102  13.755 -0.4740  0.1754  0.0683
64356W        W 1850  11.362  29.563   7.642 -0.1412 -0.1171 -0.1477
64357W        W 1851  25.745   4.803   4.771 -0.0891 -0.1721  0.1917
64358W        W 1852  21.789  11.537  15.670  0.1309 -0.1990 -0.2224
64359W        W 1853  22.398  27.066  21.878  0.5226  0.1261  0.2085
64360W        W 1854  13.570  20.868   1.170  0.1548 -0.0598 -0.0014
64361W        W 1855   8.486   4.022  23.594  0.0865  0.0437 -0.3673
64362W        W 1856  31.929  26.532  24.419  0.0464 -0.1751 -0.0225
64363W        W 1857  32.996  18.010   7.387 -0.0241 -0.0487 -0.0067
64364W        W 1858  19.006  29.639  24.956 -0.1585  0.0240  0.0792
64365W        W 1859  27.859  29.052  25.781  0.0758  0.1619  0.0969
64366W        W 1860  33.747   1.990  16.444  0.1095 -0.3343  0.1908
64367W        W 1861  17.001  15.454  19.579  0.1603  0.2049  0.1838
64368W        W 1862   0.953  15.358  25.450  0.0304  0.1706 -0.1565
64369W        W 1863   3.260  33.749   4.401 -0.0847  0.0304 -0.2592
64370W        W 1864  15.144  32.938  10.739  0.2155 -0.4249  0.0068
64371W        W 1865  22.170  27.917   4.411 -0.0446 -0.0482 -0.1018
64372W        W 1866  21.267  26.572  16.178 -0.0339 -0.0776  0.2197
64373W        W 1867  32.039  20.859  24.099  0.3430 -0.0875  0.0262
64374W        W 1868  20.400  18.573  22.676 -0.0285  0.0410 -0.0019
64375W        W 1869  35.308  32.418  17.376  0.0870 -0.3462 -0.4135
64376W        W 1870  33.253  26.983  17.752 -0.3822 -0.4445  0.0090
64377W        W 1871   5.016   1.172   8.742 -0.3137  0.3051 -0.1966
64378W        W 1872   8.503  29.163   9.041  0.0863 -0.0986 -0.1595
64379W        W 1873   1.100   4.451  14.800 -0.0975  0.0814  0.0516
64380W        W 1874  26.122  13.359  14.889 -0.1378 -0.1137  0.4595
64381W        W 1875  34.609  14.429   0.034  0.0157 -0.1391  0.3825
64382W        W 1876  11.207  18.961  13.995  0.0908  0.4488  0.0509
64383W        W 1877  17.820   3.427  18.493 -0.0171  0.3746 -0.1297
64384W        W 1878  27.539  31.829  15.289  0.1470 -0.0438  0.3500
64385W        W 1879  21.293  10.335  22.188  0.0631  0.2544  0.0354
64386W        W 1880   7.737  33.035  11.230 -0.3639 -0.1295 -0.0025
64387W        W 1881  19.286  29.783   8.512 -0.0736  0.0334 -0.0099
64388W        W 1882  29.237  18.699   6.758 -0.1714 -0.2254 -0.1312
64389W        W 1883  31.276   5.674  13.524 -0.1292 -0.3288  0.0153
64390W        W 1884   8.063  27.780   4.866 -0.0612 -0.0161  0.0575
64391W        W 1885  15.154  13.899   9.876  0.1587  0.1274  0.3284
64392W        W 1886  20.842  10.609  23.500 -0.1454  0.0825 -0.0588
64393W        W 1887  21.827   4.611  21.683  0.1417  0.2551 -0.1902
64394W        W 1888  19.009   2.828   7.755  0.2485  0.2285  0.1592
64395W        W 1889  28.018  20.517  21.812 -0.0959  0.0750  0.0862
64396W        W 1890  12.831  15.729  21.160  0.2085  0.0536 -0.0627
64397W        W 1891  33.248  31.830  24.038  0.0373 -0.1758  0.0762
64398W        W 1892  33.631  31.900   6.080 -0.2601 -0.0533 -0.0129
64399W        W 1893   5.181  13.703  20.677 -0.1293 -0.3981  0.2125
64400W        W 1894  13.009   9.055  21.392 -0.0414  0.1356 -0.0223
64401W        W 1895   1.471  29.896  24.028 -0.1059  0.1791 -0.0231
64402W        W 1896  14.082   0.156  21.160 -0.3072 -0.1730 -0.0098
64403W        W 1897  30.755  29.560  11.310  0.0152  0.2667 -0.0783
64404W        W 1898  29.641   9.994  18.272 -0.0223 -0.0302 -0.0353
64405W        W 1899  21.640  26.773   0.324  0.0588  0.1561 -0.1309
64406W        W 1900  12.068  14.493  10.266  0.0213 -0.2010  0.2148
64407W        W 1901  25.405   1.438   2.701 -0.0852  0.1695  0.2348
64408W        W 1902  15.806   1.111  17.130 -0.0672  0.0015 -0.2641
64409W        W 1903  10.599  14.261   5.672  0.1636 -0.2179 -0.0102
64410W        W 1904  19.756   3.233   2.901 -0.0118  0.1210  0.1763
64411W        W 1905  30.862  24.044  20.983 -0.3739  0.3886  0.0281
64412W        W 1906  18.792  30.772   6.828 -0.0490  0.1718  0.0520
64413W        W 1907   4.176  13.592  21.003  0.1989 -0.0214 -0.1200
64414W        W 1908  21.977  11.349   1.044 -0.0912  0.1302  0.1008
64415W        W 1909  28.818   3.795  16.953  0.0343 -0.1529 -0.1296
64416W        W 1910  33.399  29.768   5.340 -0.2938  0.1183 -0.1941
64417W        W 1911  30.740   2.916  23.779 -0.1734  0.2000  0.4015
64418W        W 1912   2.209  16.480  25.646 -0.0220  0.0145  0.0647
64419W        W 1913  19.516  31.351  23.251  0.0701  0.1336 -0.4788
64420W        W 1914  34.294  33.532   2.811  0.1555 -0.0622  0.1339
64421W        W 1915  21.153   8.846   8.759  0.2415 -0.2356  0.3645
64422W        W 1916  25.597  33.053   5.573  0.0514 -0.1597 -0.0997
64423W        W 1917  28.711  12.330  25.463  0.0039  0.1814 -0.0328
64424W        W 1918  34.263  34.158   3.649 -0.1179  0.0024  0.1250
64425W        W 1919  18.985  35.177  24.959  0.3137 -0.1253  0.1776
64426W        W 1920  28.055   9.544  22.860 -0.0033  0.5556  0.0839
64427W        W 1921   2.910  16.019  26.079 -0.0698  0.2515  0.0989
64428W        W 1922  25.314  23.507  13.935 -0.2377 -0.0709 -0.0587
64429W        W 1923   1.584  10.172   1.629 -0.3624 -0.3823  0.2413
64430W        W 1924  19.033  23.106   1.943  0.1103  0.3326  0.0486
64431W        W 1925  10.207   2.983   8.146 -0.1733 -0.0793  0.0048
64432W        W 1926  20.841   3.431   7.620  0.0777 -0.0203 -0.3685
64433W        W 1927   9.279   1.498  15.117 -0.0019  0.1970 -0.2467
64434W        W 1928  20.058   3.620  17.769 -0.3771 -0.2360 -0.1155
64435W        W 1929  15.966  21.398  22.080  0.1590  0.1608  0.1043
64436W        W 1930  21.480  29.051  23.286  0.1789 -0.0347  0.0733
64437W        W 1931  11.394  17.074   3.200 -0.0149 -0.2731 -0.0155
64438W        W 1932  10.215   7.715   4.682 -0.0042 -0.4057  0.1963
64439W        W 1933   3.985  33.723  10.752  0.1461  0.0078  0.2521
64440W        W 1934   0.312  10.727  17.031 -0.0413  0.1820 -0.2607
64441W        W 1935  25.797   2.887   0.861 -0.4003  0.1874 -0.0951
64442W        W 1936  24.364  26.838  25.404  0.0540 -0.1818  0.3026
64443W        W 1937  26.047  20.325  25.559 -0.1732 -0.1877  0.0812
64444W        W 1938   8.494   4.646   8.210 -0.1733  0.0053  0.3400
64445W        W 1939   7.079   0.476   2.429  0.2221  0.3389  0.0336
64446W        W 1940  25.080  15.984  17.242 -0.1143 -0.3409 -0.3607
64447W        W 1941  25.230  23.647  21.425  0.1892  0.2786  0.1667
64448W        W 1942  31.780  18.818  14.149 -0.1028  0.0192  0.2180
64449W        W 1943  34.388   9.304  25.004  0.2541 -0.0487 -0.1002
64450W        W 1944  15.222  15.742  13.286 -0.0270  0.0810 -0.2992
64451W        W 1945   3.702  12.313  14.725 -0.0733  0.1315 -0.2087
64452W        W 1946  32.931  33.076  25.698 -0.1087  0.0459  0.1186
64453W        W 1947  34.511   0.834  18.804  0.1065  0.1166 -0.0777
64454W        W 1948  12.933  29.568   6.196 -0.5101 -0.1467  0.2107
64455W        W 1949   1.812  11.091   2.915 -0.2222  0.0234  0.1529
64456W        W 1950   1.640  33.360  19.563  0.1531  0.1536 -0.0477
64457W        W 1951   4.342  32.616  10.046 -0.1084 -0.1940 -0.1833
64458W        W 1952  24.632  23.032  14.377 -0.3118 -0.4839 -0.3008
64459W        W 1953  34.209   5.466   6.352 -0.4097 -0.0074  0.0668
64460W        W 1954  33.443  20.918  24.993 -0.2647  0.2518 -0.2126
64461W        W 1955  24.544  34.766  11.681 -0.2136  0.1126 -0.4097
64462W        W 1956  14.321   5.405   5.777 -0.1417 -0.1757 -0.3253
64463W        W 1957  21.271  33.155  16.441  0.2309  0.0775 -0.0683
64464W        W 1958  14.157  18.981  13.079  0.0882  0.0378 -0.2571
64465W        W 1959  20.398  18.750   3.136 -0.1439  0.3236 -0.2577
64466W        W 1960  33.457   0.247  25.878 -0.1977 -0.1142 -0.2315
64467W        W 1961   9.634  10.062   6.882  0.0085  0.1555  0.0880
64468W        W 1962   9.379  25.188   6.819 -0.2413 -0.0660  0.0186
64469W        W 1963  22.021   8.129   3.083  0.0959  0.1893 -0.2062
64470W        W 1964  24.157  26.279  21.953  0.2027 -0.2484  0.1630
64471W        W 1965  34.793  18.291  18.224  0.0834 -0.4506 -0.3848
64472W        W 1966  16.834  25.620   2.008  0.1420 -0.0863  0.2138
64473W        W 1967  19.431  16.267  20.345 -0.1271  0.0768 -0.2623
64474W        W 1968  30.284  32.316  14.092  0.1626  0.2182 -0.0555
64475W        W 1969  24.601  29.147  20.969 -0.1027  0.0748  0.1255
64476W        W 1970  20.758  17.524  19.912  0.1068  0.4064 -0.2973
64477W        W 1971  32.965  19.268  21.039  0.2017  0.4518  0.0822
64478W        W 1972  30.359   2.486  18.145  0.0609  0.0992 -0.1226
64479W        W 1973  29.004  18.534  23.947 -0.1603  0.1843  0.0695
64480W        W 1974  10.949  34.471   5.183  0.0763 -0.3542 -0.0969
64481W        W 1975   6.542  14.276  24.914 -0.0257  0.0626 -0.2958
64482W        W 1976  24.310   3.683  12.567  0.0745 -0.1857  0.0692
64483W        W 1977  21.506   6.735  24.935 -0.0823  0.0526  0.0016
64484W        W 1978  29.617  29.385  10.637  0.1632 -0.0381 -0.0124
64485W        W 1979  23.513  24.461   1.415  0.2881 -0.0806  0.2129
64486W        W 1980  16.956   0.159  25.328 -0.1178 -0.2565 -0.1267
64487W        W 1981  29.995  12.621   6.241  0.3442  0.1840  0.3164
64488W        W 1982   0.126   0.157   8.536  0.0470  0.2790 -0.2087
64489W        W 1983   0.934  23.321  15.379  0.0579 -0.0623 -0.6558
64490W        W 1984  15.443  19.319   0.360  0.1201 -0.1635 -0.0058
64491W        W 1985  32.455  12.593   6.100  0.1970 -0.0927 -0.0260
64492W        W 1986  32.335  27.251   9.987  0.3040  0.3052  0.1206
64493W        W 1987  16.645  35.192  25.076 -0.1113 -0.3431 -0.0896
64494W        W 1988  22.459   2.875  19.922 -0.0291  0.0245 -0.1935
64495W        W 1989  32.233   2.472   2.125 -0.2899 -0.1947 -0.0415
64496W        W 1990   8.023  13.099  22.418 -0.0305 -0.1243 -0.2065
64497W        W 1991  15.984  27.171  23.141 -0.1019 -0.0697 -0.0398
64498W        W 1992   1.300  33.979  23.627  0.1354  0.1381 -0.1100
64499W        W 1993   1.031  23.950  24.582  0.0146 -0.1505 -0.0411
64500W        W 1994   5.767  33.718   2.573  0.0374 -0.1461 -0.0743
64501W        W 1995   2.644  22.429   2.749 -0.0984  0.0749  0.0517
64502W        W 1996   6.100  17.790  24.209 -0.1872  0.1430 -0.0758
64503W        W 1997   5.898   7.546  18.596 -0.1261  0.2064 -0.0822
64504W        W 1998   0.275   1.165  15.757  0.0536 -0.0484 -0.0398
64505W        W 1999  10.774  32.498  13.352 -0.0768  0.2646 -0.2626
64506W        W 2000  16.884   8.825  23.988  0.3004  0.2340  0.0304
64507W        W 2001  16.529   7.100   6.173 -0.1125  0.4019  0.2952
64508W        W 2002   9.649  11.847   0.056  0.1957 -0.0534 -0.2611
64509W        W 2003  16.321  34.564   6.988  0.0373 -0.0182  0.4219
64510W        W 2004   3.114  32.975  25.022 -0.0595 -0.2114  0.0144
64511W        W 2005   4.260  20.516   4.123  0.1280  0.3707 -0.0703
64512W        W 2006   1.320  32.337  24.019 -0.0156 -0.2658  0.1361
64513W        W 2007  19.387  34.915  25.349  0.0702 -0.0243  0.3162
64514W        W 2008  22.396  17.152   0.672  0.1052  0.0141  0.2213
64515W        W 2009   9.407  25.234  10.458 -0.0498 -0.1599 -0.2129
64516W        W 2010  29.476  14.996  24.571  0.0266  0.3186  0.1503
64517W        W 2011   7.163  20.258   9.303 -0.0893 -0.3390  0.4517
64518W        W 2012  10.208  28.241   2.215  0.0951 -0.1535  0.1804
64519W        W 2013  12.019  34.395  24.801 -0.1881  0.0690 -0.2110
64520W        W 2014  19.499  10.212   0.885 -0.3374 -0.1217 -0.1505
64521W        W 2015   6.834  16.662   3.381  0.0493  0.4360  0.2686
64522W        W 2016   2.788  16.890  16.426  0.0129 -0.0819 -0.2997
64523W        W 2017   0.650   1.997   6.660  0.1509 -0.0726  0.0050
64524W        W 2018  32.026  34.138  24.003 -0.0258 -0.1866  0.1522
64525W        W 2019   6.127  16.830  19.371  0.0984  0.1577  0.0559
64526W        W 2020  28.286   9.217  22.095 -0.2398 -0.0665  0.0299
64527W        W 2021  22.648  15.664  25.704 -0.0437 -0.1787 -0.0764
64528W        W 2022   9.298   7.548   7.413  0.2086  0.0725 -0.2052
64529W        W 2023  33.066   1.712  15.961 -0.4045  0.0931 -0.0962
64530W        W 2024  10.797   4.490  24.372  0.4608  0.5914 -0.0491
64531W        W 2025  29.425  10.146  14.697 -0.1200 -0.0871 -0.1339
64532W        W 2026  10.404  14.274  20.567 -0.5099 -0.2349 -0.0931
64533W        W 2027  24.376   8.802  16.916 -0.0154 -0.3384 -0.3005
64534W        W 2028  31.899  29.004   3.161 -0.2441 -0.0105 -0.1415
64535W        W 2029  17.528  14.485  18.304  0.0039  0.4026  0.0109
64536W        W 2030  28.102  27.370  12.181 -0.1918 -0.0436  0.0784
64537W        W 2031   0.261  20.691  17.486 -0.0967  0.1972  0.1546
64538W        W 2032  22.182   0.288   0.618 -0.0537  0.1256  0.0755
64539W        W 2033   5.123  22.180   3.614  0.3060  0.1555 -0.1759
64540W        W 2034   2.984  33.737  11.510 -0.1828  0.0812 -0.2219
64541W        W 2035   7.345  25.474  23.462 -0.1296  0.0545  0.0020
64542W        W 2036  19.796  15.683  21.952  0.0806 -0.0329  0.0050
64543W        W 2037  11.376  34.148  13.603  0.2328 -0.0805  0.1192
64544W        W 2038  31.261  18.309  24.341  0.1019 -0.0226 -0.1692
64545W        W 2039  25.939  20.025  17.884 -0.0220  0.1492 -0.1549
64546W        W 2040  23.242   6.198  25.573 -0.1916 -0.0356 -0.0358
64547W        W 2041  31.343  27.169  21.362  0.0363 -0.1474  0.2670
64548W        W 2042  17.169  20.332   7.375  0.1709 -0.3688  0.0180
64549W        W 2043  12.492  32.558   8.971 -0.1938  0.1906 -0.1012
64550W        W 2044  17.032  16.890  20.271 -0.0775 -0.5085 -0.2703
64551W        W 2045  14.248  10.700  12.155 -0.5033  0.1783 -0.0332
64552W        W 2046  13.384  28.806   1.351  0.0507  0.1877  0.0344
64553W        W 2047  31.966  10.444  10.286  0.2369 -0.2895  0.1867
64554W        W 2048  32.319  29.033  12.840 -0.0586 -0.1040  0.1014
64555W        W 2049  23.004  15.074  14.303  0.0986  0.0172  0.0048
64556W        W 2050  12.703  12.888   1.352  0.2388  0.2620 -0.1029
64557W        W 2051   2.634  28.993   7.249 -0.1225  0.1693  0.2450
64558W        W 2052  22.321  11.816  21.853 -0.1715 -0.0356  0.1194
64559W        W 2053  18.764  34.792  17.600  0.1811  0.0219  0.0283
64560W        W 2054   9.394  24.397   7.193 -0.0068 -0.3244 -0.0575
64561W        W 2055  31.925   9.202   1.896  0.2459  0.0746  0.2457
64562W        W 2056  34.018  25.483  19.468 -0.1876  0.0037  0.2815
64563W        W 2057  13.938  24.368   6.104 -0.3698  0.0858  0.5135
64564W        W 2058  34.421  26.622  23.011  0.2600  0.0667 -0.3189
64565W        W 2059   1.446  19.246  14.723  0.1709 -0.1736  0.3275
64566W        W 2060   3.725  22.418   0.321 -0.0967 -0.0392 -0.0844
64567W        W 2061  12.596   6.336  14.246  0.0321 -0.0697 -0.3250
64568W        W 2062  26.805   8.098  20.141 -0.1013  0.1291  0.1058
64569W        W 2063  34.917  23.163  11.918 -0.0895 -0.0144 -0.0452
64570W        W 2064  12.470  28.647   3.727 -0.1911 -0.1050  0.1096
64571W        W 2065  31.980  18.872  23.743  0.3409 -0.1476 -0.0910
64572W        W 2066  26.248  23.052  10.510 -0.1354  0.1409 -0.3587
64573W        W 2067   5.920   5.169   7.120  0.1410 -0.0528 -0.1077
64574W        W 2068   2.377  25.750  20.076 -0.0276  0.1790 -0.2765
64575W        W 2069  21.308  24.111  24.711  0.3498  0.0206 -0.0319
64576W        W 2070  10.214   7.685   6.720 -0.3664 -0.3928 -0.2702
64577W        W 2071  27.912  20.354  17.258  0.0160 -0.0013  0.3816
64578W        W 2072  27.559  34.330  15.755 -0.0104 -0.1685 -0.1446
64579W        W 2073  14.538  10.383   1.197 -0.0655 -0.1910 -0.1933
64580W        W 2074  20.182  29.942  19.942  0.0394 -0.0812  0.0548
64581W        W 2075  27.830  23.629  19.784 -0.3152 -0.2029  0.0913
64582W        W 2076  14.498  10.349   2.512  0.2401  0.4514  0.0429
64583W        W 2077  25.702  16.039  15.601  0.3244  0.0400 -0.2059
64584W        W 2078  23.400  30.364  23.622 -0.0160  0.0353  0.0611
64585W        W 2079   6.115  11.024   0.524 -0.2388  0.1694 -0.0623
64586W        W 2080  12.208  21.902  24.431 -0.1185  0.2165 -0.0427
64587W        W 2081  20.710   5.972   5.087  0.0788 -0.1207  0.2486
64588W        W 2082  19.468   0.526   8.209 -0.3267  0.0814 -0.2264
64589W        W 2083  28.537   5.444   3.652  0.1656 -0.0168 -0.1085
64590W        W 2084  34.588  23.598  20.103  0.2252 -0.1559  0.2559
64591W        W 2085  20.732  23.996  21.533 -0.0842  0.1589 -0.2381
64592W        W 2086  14.787  23.681   2.565  0.1327  0.1041 -0.2067
64593W        W 2087   9.475  11.558  10.518 -0.1623 -0.0687 -0.1062
64594W        W 2088   6.733   3.356  25.874 -0.0248  0.1618 -0.0063
64595W        W 2089  24.837  19.605  14.509 -0.0223  0.0225 -0.0325
64596W        W 2090   1.385   1.916  26.047  0.0318 -0.1979 -0.0827
64597W        W 2091  29.474  28.936   9.282 -0.0666 -0.2035 -0.0838
64598W        W 2092  17.287  34.855  25.900  0.1658 -0.3095  0.2484
64599W        W 2093  23.134  19.601  24.395  0.3601 -0.0305  0.1036
64600W        W 2094  26.606  27.495   2.906 -0.0089  0.2383 -0.0181
64601W        W 2095  25.154  34.178   3.763 -0.0545 -0.1820 -0.1007
64602W        W 2096  23.731  11.822   1.366 -0.1985  0.1051  0.3598
64603W        W 2097  10.539  13.915   9.471  0.1082 -0.2085  0.4958
64604W        W 2098  33.809   7.554   2.000  0.3383  0.0987  0.3316
64605W        W 2099  15.741  32.562   8.978 -0.0533  0.2660  0.1831
64606W        W 2100  14.684  26.825   3.029  0.2831 -0.0392  0.0883
64607W        W 2101  20.687  17.687   6.344 -0.0624 -0.0648  0.1083
64608W        W 2102   4.829  21.031  22.309  0.1277  0.0016 -0.0706
64609W        W 2103  32.195   3.013   3.703  0.0081  0.0376  0.2374
64610W        W 2104   4.292  29.287  21.586  0.0506  0.1627  0.1600
64611W        W 2105  29.436  11.908   6.123  0.0910 -0.0760 -0.2129
64612W        W 2106  23.318   3.258   5.714 -0.0069  0.1146  0.0964
64613W        W 2107  11.729  14.138  26.217  0.1110 -0.2470  0.0027
64614W        W 2108   6.697   8.227   4.963  0.1883 -0.0202  0.1258
64615W        W 2109  23.032  26.857  14.599 -0.2006 -0.0115  0.1264
64616W        W 2110  19.213   0.295  23.362  0.0596  0.2807  0.0584
64617W        W 2111   8.059   8.626  24.018  0.0551 -0.0522 -0.1141
64618W        W 2112  10.386  27.992  15.920  0.0037  0.1179  0.3173
64619W        W 2113  15.592  29.217  12.638 -0.1340  0.0223 -0.0850
64620W        W 2114  19.012  26.640  21.991 -0.3132 -0.3235  0.0752
64621W        W 2115  14.604  20.307   4.562 -0.2052  0.1751  0.0744
64622W        W 2116   9.207  30.259   4.120 -0.0501 -0.1604  0.1866
64623W        W 2117   6.356   3.262   8.028  0.0691  0.1009 -0.2104
64624W        W 2118  22.518  20.523  21.800  0.1042 -0.0019 -0.1841
64625W        W 2119  29.683  14.817  14.562  0.0355 -0.3495 -0.2264
64626W        W 2120   6.093  33.731   1.723 -0.0777 -0.0754 -0.3158
64627W        W 2121   7.031   7.933  12.989  0.0425 -0.1770 -0.3443
64628W        W 2122  12.400  26.618  10.575 -0.0848  0.0458 -0.1295
64629W        W 2123   7.399  30.614   5.603 -0.2620  0.1877 -0.1555
64630W        W 2124   0.575  12.410  21.702 -0.0861  0.2060 -0.0400
64631W        W 2125  12.129  13.761  20.520  0.3679 -0.4440 -0.0593
64632W        W 2126  31.956  34.461  23.458  0.0314 -0.0751 -0.1697
64633W        W 2127  27.698   1.993  25.286  0.1767  0.1142  0.0257
64634W        W 2128   5.755  16.953   9.961 -0.2148  0.4391  0.3053
64635W        W 2129  12.276  34.717  11.436 -0.1618 -0.1222  0.0894
64636W        W 2130  29.392  10.616  19.128 -0.0799  0.0049 -0.0844
64637W        W 2131  24.852   4.945  14.567 -0.0504  0.0742 -0.3279
64638W        W 2132  10.188  27.495   1.553  0.1824  0.1193 -0.4034
64639W        W 2133   9.589  17.260  23.847 -0.0232 -0.0701  0.0886
64640W        W 2134  17.963  12.720  25.796  0.0007 -0.1790  0.0121
64641W        W 2135  11.356  31.245  22.074  0.0162  0.0460 -0.0995
64642W        W 2136  26.726  32.293  23.948 -0.2931  0.1985  0.1170
64643W        W 2137   7.396   6.051   9.537  0.0605 -0.1325 -0.2452
64644W        W 2138  16.044  19.927   1.196  0.2088 -0.2317 -0.1041
64645W        W 2139  35.087  22.717   1.563 -0.3021 -0.0118  0.1049
64646W        W 2140   5.286  18.312   4.366  0.0700 -0.1792  0.0265
64647W        W 2141   7.952  21.472   1.255 -0.4315 -0.0487  0.0372
64648W        W 2142  14.954   5.793  18.575  0.2775 -0.1005 -0.0882
64649W        W 2143   5.701   8.742   4.090  0.0526  0.2402 -0.0024
64650W        W 2144  19.112  18.608  11.029 -0.0487  0.1099 -0.0811
64651W        W 2145  30.372   3.956   0.112 -0.1181  0.2091  0.0782
64652W        W 2146   2.988  17.964   3.386  0.2458  0.1174 -0.0764
64653W        W 2147  12.904  31.490  21.369  0.3820 -0.0422  0.3309
64654W        W 2148  32.178  27.105  11.795  0.0073 -0.1275  0.2170
64655W        W 2149  27.879  20.201  16.380  0.3568  0.4729 -0.1550
64656W        W 2150  25.840   6.669  20.501  0.0526 -0.1184  0.0373
64657W        W 2151   6.457  19.028   0.485  0.2591 -0.0492  0.0184
64658W        W 2152  26.058  21.797  22.743  0.4199  0.2787 -0.0144
64659W        W 2153  33.093  20.573   8.043 -0.2765  0.3524 -0.0212
64660W        W 2154  21.760  25.075  20.580 -0.0019 -0.1286  0.0676
64661W        W 2155  27.569  21.090  11.143  0.2611  0.0389 -0.1953
64662W        W 2156  12.474  26.479  23.515 -0.0519  0.1309  0.0673
64663W        W 2157  34.042  17.715  20.216  0.0627 -0.3332 -0.0830
64664W        W 2158  19.246  34.834   5.926 -0.0146  0.1408  0.1121
64665W        W 2159  12.690  16.709  25.799 -0.0022 -0.0158  0.1524
64666W        W 2160   6.404   4.713  21.056 -0.1324 -0.0613 -0.4215
64667W        W 2161  12.216  25.532  11.398  0.0418  0.0581 -0.0164
64668W        W 2162   1.811  26.025   3.835 -0.1856 -0.2134 -0.1103
64669W        W 2163  24.510   6.003   1.805  0.0820  0.0103  0.0890
64670W        W 2164  11.113   8.193   6.842 -0.0968 -0.2761 -0.2568
64671W        W 2165  19.099  16.624  16.840 -0.1218  0.1045 -0.2084
64672W        W 2166  15.466  12.385   2.834 -0.0141 -0.0001  0.0280
64673W        W 2167  24.265   6.593  18.571  0.1358 -0.0397 -0.5441
64674W        W 2168  15.510  34.022  18.780  0.2153  0.3657 -0.0837
64675W        W 2169  17.933  27.432   8.175 -0.0713 -0.1363 -0.0505
64676W        W 2170  34.519  28.048  14.500 -0.1853  0.0227 -0.0115
64677W        W 2171  16.798  27.518   2.258 -0.3361  0.1233 -0.1674
64678W        W 2172   8.950   2.782  19.325  0.3819  0.2152  0.0437
64679W        W 2173   3.676  33.636   3.491  0.5171 -0.2700 -0.0797
64680W        W 2174  30.210   7.084   0.222 -0.0342 -0.4644 -0.1066
64681W        W 2175   0.599  14.858   1.996  0.0877  0.1475 -0.1706
64682W        W 2176   2.745   3.114  22.473  0.0731  0.0604  0.3399
64683W        W 2177   9.409   5.989  22.284  0.0399  0.0229  0.0929
64684W        W 2178  26.708  13.286   8.770 -0.1629  0.1921  0.0376
64685W        W 2179   3.678  13.859  25.612  0.0526  0.3920  0.2994
64686W        W 2180   7.189   3.827   3.205  0.1413  0.4193 -0.0342
64687W        W 2181  11.804  24.602  15.099  0.2082 -0.0605  0.0808
64688W        W 2182   1.160  12.639  24.267 -0.0445  0.0446 -0.2401
64689W        W 2183   4.841  29.753  19.698 -0.3798  0.1522 -0.0643
64690W        W 2184  19.059  18.564   5.407  0.0377 -0.2683  0.1228
64691W        W 2185  22.380   0.972  14.282 -0.1053 -0.0405 -0.2972
64692W        W 2186  11.936  16.818   9.330  0.3371  0.3773 -0.0868
64693W        W 2187  28.299  29.180  19.877  0.2752  0.0691  0.0904
64694W        W 2188  34.068  21.697   8.793 -0.0847 -0.1806 -0.0121
64695W        W 2189   4.284  26.640   1.946  0.1207  0.0426 -0.0167
64696W        W 2190  28.603  28.748  24.754 -0.0611 -0.1225  0.1552
64697W        W 2191  32.332  10.217  14.158  0.0857  0.2319 -0.2256
64698W        W 2192  20.539  30.933  20.181  0.0355 -0.0327  0.0687
64699W        W 2193  21.109  16.612  20.932 -0.1100  0.4160  0.0227
64700W        W 2194  31.968   3.681  12.054  0.2008 -0.0889  0.2812
64701W        W 2195  12.833  30.105  24.977  0.0253 -0.3672  0.0880
64702W        W 2196   7.937  25.543   5.426  0.0637  0.2135  0.0049
64703W        W 2197  19.391  15.197  18.829  0.1072  0.0448  0.2459
64704W        W 2198   6.024  14.883   9.117  0.2551  0.2028 -0.1015
64705W        W 2199  32.533  15.001  23.935  0.0702  0.0738 -0.1889
64706W        W 2200  13.621   3.639   5.563 -0.0116  0.0048  0.2532
64707W        W 2201  26.753  27.912   9.905  0.1724  0.0153 -0.2651
64708W        W 2202  12.851  35.128  10.195  0.1127 -0.1267  0.0855
64709W        W 2203   5.454  30.930  11.115 -0.0328  0.0896 -0.0677
64710W        W 2204   1.905  10.963  23.751 -0.3271  0.0683 -0.0491
64711W        W 2205  21.020  30.367   5.799 -0.3654 -0.1574  0.0817
64712W        W 2206  28.711  27.028   1.719  0.2533  0.2613  0.2782
64713W        W 2207  12.993   6.600   0.961 -0.2036  0.5653 -0.2665
64714W        W 2208  17.039   6.465  25.789  0.1786  0.1390  0.1274
64715W        W 2209   0.132  29.107   6.878 -0.3345 -0.0137  0.1302
64716W        W 2210   1.910  13.331  20.497  0.2434  0.2218  0.0256
64717W        W 2211   6.527   2.456  26.062 -0.3014  0.0985 -0.1578
64718W        W 2212  16.273  13.599   4.433 -0.1242 -0.1334 -0.1069
64719W        W 2213  14.065   9.839   7.885  0.0526  0.1636  0.1374
64720W        W 2214  22.945  22.542  18.684 -0.0716 -0.0316  0.0188
64721W        W 2215  16.521  13.598  21.103  0.0467 -0.0890  0.0593
64722W        W 2216  13.055  33.296  10.081 -0.0058 -0.2279  0.1549
64723W        W 2217  32.630  20.922  16.818 -0.1873 -0.0069  0.1822
64724W        W 2218  30.100  31.582   2.713 -0.2697  0.2149 -0.2615
64725W        W 2219   1.434  14.632  15.967 -0.1083  0.0333 -0.0391
64726W        W 2220  33.675  12.084  14.810 -0.0969 -0.2088 -0.0591
64727W        W 2221  17.612  30.688  18.923  0.1529 -0.0429  0.1580
64728W        W 2222   0.697  15.289  10.740 -0.1555  0.0228 -0.0916
64729W        W 2223  34.627  21.932   0.144 -0.1095  0.0438 -0.3782
64730W        W 2224  21.584  20.808   4.089  0.0270  0.1068 -0.0892
64731W        W 2225   2.836  23.525   2.841  0.0727  0.3072  0.0063
64732W        W 2226  23.494   3.258   3.150  0.0943  0.1156  0.0604
64733W        W 2227  25.536   0.679  19.677  0.1507 -0.0434  0.1002
64734W        W 2228  22.774  14.361  14.880  0.1520  0.1327  0.4185
64735W        W 2229  15.338  28.962   4.693  0.0847  0.1623  0.1581
64736W        W 2230   7.312  14.215  21.143 -0.0432  0.0481 -0.0502
64737W        W 2231  22.686  12.639  18.762 -0.2217 -0.0147 -0.1769
64738W        W 2232  15.247  27.240   2.519 -0.1896 -0.0836  0.0529
64739W        W 2233  25.075  26.110  16.272  0.0604 -0.4896 -0.3298
64740W        W 2234   3.272   2.652  20.185  0.0856 -0.2109  0.1590
64741W        W 2235  22.603  12.884  14.758 -0.0350  0.2049 -0.2930
64742W        W 2236  16.264   1.147   6.706 -0.0039  0.0603 -0.1542
64743W        W 2237   2.776  34.237   7.467 -0.0704 -0.1045  0.1239
64744W        W 2238  32.436  11.427  21.313 -0.2432 -0.1933 -0.0107
64745W        W 2239  10.038   6.782  25.270 -0.1707  0.0192  0.0864
64746W        W 2240  21.804   1.449  20.799  0.3737 -0.2268 -0.1680
64747W        W 2241   2.245  32.809   6.918  0.2967 -0.2355 -0.2849
64748W        W 2242  34.154   3.410  13.478 -0.1664  0.0465  0.0273
64749W        W 2243  22.537   0.859  17.009  0.0219 -0.0270  0.3500
64750W        W 2244  27.329  12.744  20.253 -0.1402 -0.1126 -0.0275
64751W        W 2245   3.204   8.788  15.565 -0.2026  0.0742  0.1849
64752W        W 2246  15.667   8.990   2.551 -0.0465 -0.3430 -0.1287
64753W        W 2247   2.502   1.734  18.378  0.1603  0.1060  0.1322
64754W        W 2248  14.527   0.224  12.257  0.2410  0.2390  0.0016
64755W        W 2249   0.720   5.000  24.468 -0.0695 -0.2011  0.0119
64756W        W 2250  30.136  19.002   5.249  0.2478  0.2665 -0.0624
64757W        W 2251  32.690  26.962  21.618 -0.2960  0.0139 -0.2591
64758W        W 2252  35.344  30.771  24.406 -0.2055 -0.1583  0.0727
64759W        W 2253   8.561   2.833  25.865 -0.2026  0.1869  0.1384
64760W        W 2254   9.107  10.336   0.237 -0.1622 -0.1726  0.2123
64761W        W 2255  20.761  20.872   5.329  0.0313 -0.3450 -0.1660
64762W        W 2256  31.844  27.349  19.963 -0.0355  0.1264  0.1094
64763W        W 2257   5.844  33.141  10.125 -0.1040  0.0634  0.2735
64764W        W 2258  10.210  24.829  22.665 -0.0093 -0.1628  0.0550
64765W        W 2259  22.815   3.015   7.306  0.2194  0.2219  0.1147
64766W        W 2260  23.599  16.841  19.295 -0.1517 -0.3074  0.1946
64767W        W 2261  20.815   8.333  24.474 -0.1502 -0.1759  0.1102
64768W        W 2262   3.379   0.884   4.540 -0.0884  0.2912 -0.1565
64769W        W 2263  13.389  34.276  13.426  0.0852  0.0439  0.0800
64770W        W 2264  29.792  16.910  13.136  0.1392 -0.0440  0.0881
64771W        W 2265  13.721  23.004  22.958  0.0213 -0.3043  0.2903
64772W        W 2266  13.084   4.532  11.906  0.0274  0.0092 -0.1537
64773W        W 2267  18.902   9.890   9.614  0.1197  0.1799 -0.2949
64774W        W 2268  21.593  33.243   1.061  0.0450  0.0961  0.0662
64775W        W 2269   6.587  15.304   4.857 -0.0082 -0.0012  0.1662
64776W        W 2270  21.414  11.031   2.562  0.1299  0.1498 -0.1013
64777W        W 2271  23.559  25.480  19.673 -0.2819  0.1099  0.0976
64778W        W 2272   4.636   9.768  17.928 -0.2164  0.0271  0.1746
64779W        W 2273  30.914  13.021  25.636 -0.1750  0.0216 -0.0436
64780W        W 2274  13.186  34.589   1.908  0.1869 -0.3532 -0.0406
64781W        W 2275  17.385  15.359  21.680 -0.2570  0.0907  0.0705
64782W        W 2276   8.808  14.984   8.019  0.1311 -0.0658  0.3890
64783W        W 2277   0.857  33.260  19.318  0.2944 -0.3041  0.3740
64784W        W 2278  22.602  17.060   1.675 -0.1852  0.1284 -0.2095
64785W        W 2279   2.907  35.029  17.774  0.1266  0.2413  0.2208
64786W        W 2280  14.092   5.118   2.165  0.1396  0.2819 -0.0312
64787W        W 2281   0.285  29.565  18.332  0.2936 -0.0872 -0.1124
64788W        W 2282  12.647  16.905  11.285  0.1349 -0.1896  0.0642
64789W        W 2283  22.677   2.642   5.314 -0.1788  0.4373 -0.1326
64790W        W 2284   0.578  20.620  23.067  0.1576 -0.0204  0.1849
64791W        W 2285  31.027   6.130  16.081 -0.0202  0.1888 -0.1684
64792W        W 2286  20.295   2.489   7.530  0.1050  0.1506 -0.1224
64793W        W 2287  22.187  22.199  21.728 -0.3992  0.0739  0.0214
64794W        W 2288  31.793  31.220   1.325  0.4537 -0.1314  0.1105
64795W        W 2289   7.652  23.153   6.901 -0.1064  0.3194  0.3199
64796W        W 2290  28.508  27.788  20.081  0.0717  0.2791 -0.1956
64797W        W 2291  28.633   7.590  16.219  0.2442  0.1446 -0.1012
64798W        W 2292  33.465   0.408  20.602 -0.1059  0.0582  0.2194
64799W        W 2293  12.884   2.484   2.837 -0.0341  0.2685 -0.1008
64800W        W 2294  31.608  33.366  19.361  0.1156  0.1421 -0.0997
64801W        W 2295  10.423  29.174   5.445  0.1567 -0.4208  0.0811
64802W        W 2296  17.209   1.278  23.284 -0.1987 -0.1595  0.1252
64803W        W 2297  28.898  15.028  14.190  0.1249 -0.0629 -0.3202
64804W        W 2298  27.092  21.075  12.891  0.1655 -0.1011 -0.1252
64805W        W 2299   5.228  27.114  23.442  0.0497 -0.2444  0.0228
64806W        W 2300  15.655  14.972  21.028  0.0061  0.2792  0.0899
64807W        W 2301   1.476  28.335  16.940  0.0256  0.0116  0.3460
64808W        W 2302  27.182   3.386  20.215  0.2953 -0.0691 -0.2764
64809W        W 2303  13.917  20.559   4.770 -0.1677  0.1471  0.0070
64810W        W 2304   3.996  13.157  20.685 -0.0691 -0.0207 -0.0424
64811W        W 2305  25.475   0.993  23.365  0.0656 -0.2890 -0.0351
64812W        W 2306   6.521   7.342   0.395 -0.0139  0.1137 -0.0596
64813W        W 2307   4.622  12.961  20.139  0.0066  0.1744  0.1121
64814W        W 2308  23.549  28.096  17.298  0.0489  0.3022  0.0387
64815W        W 2309  10.487   0.453   5.613  0.2126  0.0405 -0.0063
64816W        W 2310  21.583  10.486  17.404 -0.2020 -0.0808  0.0857
64817W        W 2311   8.659   4.948  11.917  0.0015  0.1977 -0.2752
64818W        W 2312  11.360  25.682   1.678  0.0781 -0.0453 -0.0922
64819W        W 2313   6.665  29.893  14.789 -0.0811  0.3555 -0.1609
64820W        W 2314  11.637  35.274  12.042 -0.0419 -0.1220 -0.1186
64821W        W 2315  29.937   3.278  24.416 -0.0083 -0.0398 -0.2484
64822W        W 2316  25.811  10.623  13.715 -0.1111 -0.1816  0.1292
64823W        W 2317   9.290  21.511   1.525 -0.0258 -0.0648  0.4005
64824W        W 2318   9.598   4.026   4.625  0.0462  0.2159  0.1535
64825W        W 2319   5.864  31.907   3.920 -0.0082 -0.1505 -0.1819
64826W        W 2320  22.234  29.474  21.843  0.2194  0.0999 -0.1260
64827W        W 2321   8.331  13.857   0.674 -0.4367 -0.1925 -0.2254
64828W        W 2322   5.868   8.237  19.927  0.0239 -0.1913  0.0612
64829W        W 2323  25.624  25.438  16.222  0.2206 -0.2089  0.4536
64830W        W 2324   5.028  20.677   2.669 -0.1869 -0.2523  0.2548
64831W        W 2325  14.827  12.409   6.970  0.0165  0.0693  0.4152
64832W        W 2326  21.132  29.287  15.706  0.2320  0.1443 -0.1393
64833W        W 2327  33.336  33.412  25.693 -0.2160 -0.1898  0.1303
64834W        W 2328  19.736  12.758   7.919  0.0847 -0.2756 -0.2133
64835W        W 2329   0.411   9.990  19.401 -0.0457 -0.0524 -0.3162
64836W        W 2330   0.470  12.365   0.674  0.1692 -0.0688 -0.0723
64837W        W 2331  16.060  25.251   9.568 -0.1770  0.0401 -0.0742
64838W        W 2332  18.385  21.068  20.598  0.0120 -0.2698  0.1825
64839W        W 2333  19.628  26.149  17.744  0.0810  0.2465  0.2075
64840W        W 2334   9.726  10.058  18.888  0.0759 -0.2053  0.0167
64841W        W 2335  21.301  30.443   0.088  0.2703  0.1412 -0.0175
64842W        W 2336  19.437  35.313  26.247  0.3099 -0.2451 -0.2625
64843W        W 2337  24.561  35.269  25.554  0.1728 -0.0898  0.2073
64844W        W 2338  11.928   5.713  14.071 -0.2101  0.1917  0.1537
64845W        W 2339  16.803  13.067  18.840  0.2443 -0.0779  0.0729
64846W        W 2340  19.814   0.936  25.083  0.0723  0.0118 -0.0610
64847W        W 2341  18.593   1.090   0.204  0.1319  0.0354 -0.0203
64848W        W 2342   6.921  13.209   0.277  0.0050 -0.0349 -0.5324
64849W        W 2343  25.258  18.485  22.324  0.2003  0.0154  0.2473
64850W        W 2344  14.113  11.350  19.748  0.1741  0.0838 -0.1370
64851W        W 2345  22.336  22.370  23.798 -0.0593  0.2513  0.0397
64852W        W 2346  15.878  10.404   5.681  0.2187  0.0139  0.0197
64853W        W 2347  11.960  23.337  11.198 -0.0027 -0.0046  0.1712
64854W        W 2348  26.112  17.136  24.487 -0.2229 -0.2930  0.1178
64855W        W 2349  11.958  16.444   6.106  0.3722  0.1539  0.0125
64856W        W 2350  21.969  10.514  26.031 -0.1965  0.1333  0.0445
64857W        W 2351  14.680  10.481   7.460  0.2892 -0.1622 -0.1349
64858W        W 2352   8.197   1.509   5.514  0.0873 -0.0880 -0.1698
64859W        W 2353  14.300  11.513   1.252 -0.0289  0.4300  0.3296
64860W        W 2354   1.782   7.113  25.542  0.1616 -0.1421 -0.3019
64861W        W 2355  12.525   5.438   3.304  0.0216  0.4347  0.1581
64862W        W 2356  19.213  16.213   0.544 -0.0882  0.1260  0.2319
64863W        W 2357  16.877   0.083  22.539 -0.5250 -0.4541 -0.0633
64864W        W 2358   5.738  10.713  17.754  0.2842  0.0151 -0.1540
64865W        W 2359  29.940   2.275  14.408  0.3182  0.3135  0.1466
64866W        W 2360   3.638   7.997   5.913 -0.2275  0.0210  0.0016
64867W        W 2361  29.513  29.327  23.555  0.0299 -0.0853  0.0399
64868W        W 2362   3.964  20.835  20.679  0.0560 -0.1610  0.0860
64869W        W 2363  14.160  17.052  12.205 -0.3178  0.1101 -0.3982
64870W        W 2364  26.365  17.786   7.411 -0.1574  0.0135 -0.1649
64871W        W 2365  17.646   9.080  17.963 -0.0597 -0.0976  0.2873
64872W        W 2366   4.903   5.593  22.653  0.1455  0.0288  0.3427
64873W        W 2367  14.852  11.522  20.958  0.3869 -0.1447 -0.0905
64874W        W 2368  29.196  12.873  10.099  0.2344 -0.0980 -0.2708
64875W        W 2369  29.281  25.715  11.194 -0.1643 -0.3206 -0.0511
64876W        W 2370  13.939  15.095   2.038  0.2282  0.3641  0.1950
64877W        W 2371  26.856  30.840   0.507  0.0760  0.0157  0.1517
64878W        W 2372   8.249   7.470  23.159 -0.0148  0.2464  0.0404
64879W        W 2373  27.776  34.825  21.261  0.1217 -0.0207  0.1393
64880W        W 2374  23.864  12.133  14.727 -0.1505  0.1798  0.0895
64881W        W 2375  35.260   6.961  24.282  0.0687  0.0291  0.3062
64882W        W 2376  20.013  33.623   7.841  0.1878  0.0926 -0.0856
64883W        W 2377  11.272  29.295   9.820 -0.3764  0.0545  0.2173
64884W        W 2378   3.716  30.395   0.399  0.2930 -0.0494 -0.2768
64885W        W 2379  29.231  11.104  11.097 -0.0566  0.2239 -0.0201
64886W        W 2380  25.579  22.867  14.684  0.0909 -0.1071  0.2080
64887W        W 2381  31.190   6.056  14.422  0.3282  0.1560 -0.0404
64888W        W 2382  28.576  34.358  21.498  0.2563  0.0773  0.3280
64889W        W 2383   0.130  10.369  13.239  0.0343 -0.1102 -0.2629
64890W        W 2384  25.341   8.783  17.678  0.0857 -0.2437 -0.1415
64891W        W 2385  12.549   5.774   0.169  0.1362 -0.2589 -0.3719
64892W        W 2386  13.871  25.233  14.322 -0.0521  0.2735  0.1184
64893W        W 2387  30.814  34.173  15.297 -0.3289  0.1111  0.0390
64894W        W 2388  16.915  16.207  22.451 -0.1050  0.0154 -0.0816
64895W        W 2389  24.305  25.430  21.763 -0.0791 -0.0917  0.1211
64896W        W 2390  13.228  30.732  23.970  0.0570  0.0924  0.1187
64897W        W 2391  31.936  20.327  18.804 -0.1720 -0.1775  0.0890
64898W        W 2392  31.466  15.463  12.567  0.0085  0.1977  0.0500
64899W        W 2393  28.197  33.856  18.162 -0.0819  0.1647 -0.2486
64900W        W 2394  28.292  29.986  17.289  0.0279 -0.1514  0.1068
64901W        W 2395  31.245   7.564  20.750 -0.1094  0.3490  0.0965
64902W        W 2396   4.479  15.493  20.683  0.1014  0.1198  0.1045
64903W        W 2397  33.122  21.162  13.125 -0.0542  0.1216 -0.0979
64904W        W 2398  13.668  23.681   5.637  0.0914 -0.1419 -0.2005
64905W        W 2399   8.783  27.311  16.802 -0.1085  0.1423 -0.3035
64906W        W 2400  33.772   1.718  24.255  0.0560 -0.5425  0.4206
64907W        W 2401  34.276   3.119  19.657  0.1201 -0.1373 -0.0043
64908W        W 2402  20.095  19.834   0.703  0.2176  0.2322  0.1618
64909W        W 2403   2.909  16.551   2.472 -0.2187 -0.2181  0.0128
64910W        W 2404  15.162  17.527  11.369 -0.0349 -0.0801 -0.2525
64911W        W 2405  28.151  32.082  23.604 -0.1751  0.1679 -0.3036
64912W        W 2406  15.306  15.692   6.764 -0.0319 -0.2813 -0.3003
64913W        W 2407  24.517  14.867  25.250 -0.0743 -0.2186  0.4271
64914W        W 2408   4.233   0.066  22.581 -0.0238  0.2786 -0.0313
64915W        W 2409  32.708  23.551  18.442 -0.1919 -0.1196 -0.0101
64916W        W 2410   5.456  21.461   4.191 -0.0754 -0.4360  0.1599
64917W        W 2411  18.725  12.531   3.424  0.1433 -0.0284  0.0011
64918W        W 2412   5.256   7.457   4.744  0.0321  0.3987 -0.1008
64919W        W 2413  10.180  29.449  13.304  0.0532  0.1570  0.2569
64920W        W 2414  28.097   7.734  11.392 -0.1082  0.1743 -0.0161
64921W        W 2415  30.452   7.652  25.421  0.1100 -0.3990 -0.1710
64922W        W 2416  32.423  22.393  23.186  0.3301  0.1398  0.1965
64923W        W 2417  21.552  24.924  21.483  0.3375 -0.1366  0.0204
64924W        W 2418   5.437  28.113   1.279  0.3056  0.1357  0.0649
64925W        W 2419  32.817  11.461  10.455 -0.0972  0.3420 -0.2064
64926W        W 2420  23.557   1.860   3.501 -0.1518 -0.1063  0.0704
64927W        W 2421  22.286  25.892  14.479  0.2296 -0.0583 -0.0632
64928W        W 2422  33.075  13.193  17.743 -0.1871  0.1481  0.2597
64929W        W 2423  21.213  25.377  21.933  0.3135  0.3715 -0.1685
64930W        W 2424   5.182   3.665  25.995  0.1512  0.0748 -0.4107
64931W        W 2425  20.967   0.521  25.004 -0.0836  0.0399 -0.0137
64932W        W 2426  12.866  30.929  14.699 -0.4071 -0.4099  0.1443
64933W        W 2427  21.875   3.983   3.475  0.0657 -0.0752  0.1143
64934W        W 2428   0.843  27.983  24.513 -0.2603 -0.0256 -0.0862
64935W        W 2429  25.507   4.458   5.915  0.0111 -0.0571  0.1225
64936W        W 2430   5.828  35.127  19.994 -0.0459 -0.0071  0.0983
64937W        W 2431  21.754  26.274   3.603  0.2791 -0.4256  0.1815
64938W        W 2432  15.521  23.639  25.251 -0.3052 -0.0902  0.0582
64939W        W 2433  14.899  23.250   1.690  0.0566  0.2521  0.0253
64940W        W 2434   3.084   2.035   4.572  0.4118 -0.3028  0.2121
64941W        W 2435  13.664  29.532  12.988 -0.0294  0.0210 -0.1003
64942W        W 2436  22.490  22.702   1.292  0.2924  0.6282  0.0720
64943W        W 2437  14.571   8.562   7.158 -0.3994 -0.5326 -0.0446
64944W        W 2438   1.122   4.725  16.942 -0.1112 -0.0677  0.2778
64945W        W 2439  14.924   4.874  21.529 -0.1427  0.1594  0.0062
64946W        W 2440  22.727   9.550  19.078 -0.1382  0.0388  0.0901
64947W        W 2441  32.212   6.087  21.737 -0.2618  0.0420 -0.0392
64948W        W 2442  28.471   5.762  13.655  0.0770  0.2788  0.1222
64949W        W 2443  21.057   2.706  16.944 -0.0489 -0.0163  0.0708
64950W        W 2444  24.871   4.610  12.163 -0.1914  0.1482 -0.4370
64951W        W 2445   6.763  29.921   4.216  0.0724  0.3008 -0.0671
64952W        W 2446  27.814   1.844  15.001 -0.0822  0.1512  0.0171
64953W        W 2447  16.173  13.063  22.907  0.0855  0.0103 -0.1778
64954W        W 2448   4.504  16.993   2.552  0.0433 -0.1862  0.1191
64955W        W 2449  29.810  27.682  22.728 -0.0492 -0.1754 -0.0135
64956W        W 2450   9.683  19.323  14.390  0.1394  0.2444 -0.0110
64957W        W 2451  28.415  19.191   8.910 -0.4323 -0.2079  0.1630
64958W        W 2452  19.027   7.496   1.836  0.0089 -0.0025  0.0049
64959W        W 2453   4.459   8.500  20.118  0.0649 -0.1199  0.2355
64960W        W 2454   3.582  23.566  20.466  0.2929  0.2004 -0.1978
64961W        W 2455   4.827  10.591  23.597 -0.0020  0.0155  0.1446
64962W        W 2456  15.998  23.482   7.930 -0.1157 -0.1989 -0.0268
64963W        W 2457  17.677  20.533  11.837  0.1661 -0.0055 -0.3112
64964W        W 2458   0.501  20.215  16.072 -0.3062 -0.0621  0.0955
64965W        W 2459   5.587  31.658  20.514 -0.0753 -0.1334 -0.4276
64966W        W 2460  12.172   8.156  22.378  0.1178  0.1964  0.0831
64967W        W 2461  23.229  11.589  25.244 -0.0840  0.1629 -0.0404
64968W        W 2462  12.717   3.630  12.363  0.0884  0.0618  0.1865
64969W        W 2463  34.953  13.391  23.543  0.1833 -0.0067 -0.0082
64970W        W 2464  20.336  33.432  25.321  0.3615 -0.2889 -0.1981
64971W        W 2465  27.596  26.942  20.635  0.1071 -0.2858 -0.4311
64972W        W 2466   2.099   1.238  20.743 -0.2300  0.0587  0.1955
64973W        W 2467  30.821  32.024  15.040 -0.2000  0.1782  0.3518
64974W        W 2468  25.260   2.202  14.736 -0.2144  0.3392 -0.0952
64975W        W 2469  32.348   7.729   1.642  0.1231  0.1623 -0.5068
64976W        W 2470  15.393   2.014  24.438  0.0888 -0.3024 -0.0670
64977W        W 2471  27.065  22.673  20.020  0.2272 -0.2462 -0.1441
64978W        W 2472  17.176   0.986   8.115 -0.1092  0.0051 -0.3289
64979W        W 2473  25.091   3.500   5.289 -0.3449 -0.2185 -0.3517
64980W        W 2474  12.141  10.293   4.327  0.0428  0.0982 -0.1292
64981W        W 2475  16.455  31.030   2.793  0.0032  0.2818  0.3311
64982W        W 2476   7.243  31.392   8.286 -0.0410  0.1523  0.1462
64983W        W 2477  23.294  32.827  25.760 -0.1619 -0.1458 -0.1612
64984W        W 2478  28.854  20.401  12.302 -0.0444  0.2388 -0.1735
64985W        W 2479  22.860  30.997   3.081  0.0274  0.2839  0.1201
64986W        W 2480  33.539   8.280  14.800 -0.0094  0.0511  0.0132
64987W        W 2481   8.850   4.797   4.015  0.0051 -0.0147  0.0267
64988W        W 2482  20.397   7.631   2.302 -0.3589  0.0508  0.3606
64989W        W 2483  26.761  23.407  12.099 -0.4592 -0.1314  0.3023
64990W        W 2484  16.707  33.157  25.894  0.0788  0.2452  0.3431
64991W        W 2485  30.694  26.923   1.252  0.0549 -0.2093 -0.1945
64992W        W 2486  16.000   7.040   2.592  0.0159 -0.1343 -0.3210
64993W        W 2487   1.945  19.039   0.897  0.1657 -0.0875  0.1561
64994W        W 2488  18.596  21.295   4.266  0.2687 -0.0105 -0.1650
64995W        W 2489  10.689   7.609   1.347  0.1796  0.0013 -0.0634
64996W        W 2490  22.445  31.987   5.337  0.1547  0.0778 -0.3091
64997W        W 2491  13.057   2.796  23.701  0.1739 -0.0007 -0.2055
64998W        W 2492  34.803   2.341  18.359 -0.0314 -0.0802 -0.0258
64999W        W 2493   6.961  34.014   3.718  0.2695 -0.1828 -0.1766
65000W        W 2494  31.657  29.966  14.914  0.2842  0.0483 -0.0211
65001W        W 2495   7.657   9.295  25.209 -0.0178  0.0569  0.0878
65002W        W 2496   5.358   5.040  24.545  0.0605  0.2803  0.0778
65003W        W 2497  21.778   0.125  14.041 -0.2437  0.0419  0.0739
65004W        W 2498  16.588  21.156   1.404 -0.1115  0.0590 -0.2361
65005W        W 2499  35.367  17.744  17.453  0.0272 -0.2048  0.0636
65006W        W 2500  27.771  10.934  16.934 -0.0264  0.0390 -0.0643
65007W        W 2501  26.964  14.877  24.824 -0.1239  0.1627  0.0155
65008W        W 2502   6.931  23.219  11.730 -0.0766 -0.2623  0.0238
65009W        W 2503  33.283  31.730   3.646  0.0528 -0.1846  0.2643
65010W        W 2504  11.996   3.401   3.484  0.0219  0.0035 -0.2035
65011W        W 2505   7.636  14.539  10.545  0.2443 -0.1970  0.1777
65012W        W 2506  26.165  11.761  21.268  0.0206 -0.2369 -0.0794
65013W        W 2507  19.289  29.362   5.935  0.1754  0.0828  0.0323
65014W        W 2508  15.478  22.340  24.289 -0.0272  0.4751 -0.1486
65015W        W 2509  11.327  12.591   2.072  0.0202 -0.0481  0.1541
65016W        W 2510  26.911   3.551  15.372  0.1423 -0.1180 -0.0037
65017W        W 2511  16.176  10.179  20.883  0.0707  0.0707 -0.1101
65018W        W 2512  33.180  17.179  22.578  0.1292  0.1754 -0.0109
65019W        W 2513  28.553  20.490   8.230  0.2141  0.2541  0.4679
65020W        W 2514   1.475   9.713   3.737  0.0204 -0.0581 -0.0499
65021W        W 2515  27.287  15.062  18.608 -0.1756  0.1957 -0.3422
65022W        W 2516  15.623  12.127  22.040 -0.0838  0.2540  0.0545
65023W        W 2517  30.099   4.577  11.799  0.2064 -0.0855  0.1948
65024W        W 2518   0.274  19.212  21.613 -0.1119  0.0007  0.1469
65025W        W 2519  15.971   4.838  12.060  0.3213 -0.4112 -0.0844
65026W        W 2520  15.613  20.489   9.954  0.0482  0.0109  0.0238
65027W        W 2521  15.706  27.270   6.282  0.0945  0.2114  0.1172
65028W        W 2522  30.184   5.829   3.014 -0.2506 -0.2996  0.1895
65029W        W 2523   3.563   0.715  12.071  0.1316  0.0832  0.1163
65030W        W 2524  13.524   5.769   4.994  0.2598 -0.0533  0.1645
65031W        W 2525  28.869  11.869  22.927  0.0949 -0.0628  0.1229
65032W        W 2526   0.431  17.922  15.904  0.3490 -0.3614  0.0918
65033W        W 2527  15.488  33.027   8.918  0.3830 -0.3180 -0.1485
65034W        W 2528  24.476  29.686  22.712  0.1973 -0.2056 -0.0856
65035W        W 2529  29.889  27.169  13.996 -0.1202 -0.0197  0.1121
65036W        W 2530  35.154   9.666  15.720 -0.0278 -0.0155  0.3709
65037W        W 2531  30.257   4.256  20.171 -0.0772  0.0068  0.1679
65038W        W 2532  20.253  32.631  18.812  0.3060 -0.1365  0.0467
65039W        W 2533  28.549   9.608  11.063  0.0379 -0.1475  0.0480
65040W        W 2534  25.718  27.316  24.530  0.3285 -0.2483  0.2752
65041W        W 2535  21.191  11.941  18.623 -0.0178 -0.0574  0.2952
65042W        W 2536   7.615   9.285   4.997  0.0413  0.2606 -0.1864
65043W        W 2537  28.250  23.220  11.722  0.3803 -0.0594  0.1320
65044W        W 2538  25.681  22.810  15.732 -0.3169  0.2665  0.0578
65045W        W 2539  30.637   6.042   2.954 -0.0588 -0.0516  0.1462
65046W        W 2540  22.798   1.454  14.260 -0.0774 -0.1024 -0.5577
65047W        W 2541  18.259   1.310   5.808  0.0184  0.0361  0.0504
65048W        W 2542  21.147  19.213  25.284  0.0122  0.1047 -0.2185
65049W        W 2543  25.884  29.543  10.773  0.0276 -0.0460  0.3662
65050W        W 2544  31.521  26.849   2.922 -0.0495  0.1545  0.0231
65051W        W 2545  22.354  27.296   2.831 -0.1101  0.0510  0.0343
65052W        W 2546   2.384  35.111  24.704 -0.1589 -0.0191  0.1502
65053W        W 2547   6.225  25.648   9.580  0.2936 -0.1424  0.3015
65054W        W 2548   7.927  11.511   3.642 -0.2053  0.0182 -0.2061
65055W        W 2549  33.330  33.175   4.006  0.1559 -0.4207 -0.0971
65056W        W 2550  23.942  33.147  11.457  0.0713  0.3239  0.0453
65057W        W 2551  15.012  17.038   6.636 -0.2942 -0.1182  0.3643
65058W        W 2552  19.488  31.738  25.821 -0.0792  0.0030  0.0772
65059W        W 2553  16.771  17.680  12.419 -0.3728  0.1519  0.0594
65060W        W 2554  14.670  14.936   2.556 -0.0895 -0.2201 -0.0684
65061W        W 2555  19.934  14.792  18.139 -0.1359 -0.0950 -0.2652
65062W        W 2556  32.266  17.229  21.189  0.2354 -0.0542 -0.0083
65063W        W 2557  16.053  22.621   9.670 -0.1803 -0.1071 -0.0214
65064W        W 2558  19.076  35.160  16.595  0.5879  0.2270 -0.2835
65065W        W 2559  28.701   1.579   4.165  0.3226 -0.2764  0.2392
65066W        W 2560  29.427  19.186  22.980 -0.0256  0.0613 -0.0158
65067W        W 2561  14.742   4.481   3.243 -0.1618  0.0311 -0.1372
65068W        W 2562  11.221  33.342   8.216 -0.1344  0.2333 -0.3268
65069W        W 2563  25.800  28.162  14.498 -0.1280  0.0142  0.0621
65070W        W 2564  29.752  20.012   5.863  0.0358  0.1037  0.0317
65071W        W 2565  34.034  33.601  25.179  0.1653  0.0326  0.4174
65072W        W 2566  16.378  27.652   2.011  0.0335  0.1388  0.0612
65073W        W 2567  33.639  12.260  17.835 -0.1004 -0.2832 -0.0090
65074W        W 2568  31.830  28.922  18.430  0.0239 -0.4579 -0.2663
65075W        W 2569  15.503  15.788   1.338  0.1966 -0.1288  0.0280
65076W        W 2570  35.209  15.105  10.705 -0.1366 -0.2103  0.0816
65077W        W 2571  24.616  29.400  11.336 -0.0987  0.0037 -0.0029
65078W        W 2572  14.082  23.929  16.792 -0.2082 -0.3490  0.1883
65079W        W 2573  27.234  34.577  20.022  0.3210 -0.0654 -0.0762
65080W        W 2574  22.474  23.999   1.206 -0.0675 -0.1280 -0.3213
65081W        W 2575  17.565  33.113  22.450 -0.0403 -0.0043 -0.0633
65082W        W 2576   6.169   7.914  20.965 -0.4545  0.0465 -0.3294
65083W        W 2577   3.077   9.016  19.793  0.1882 -0.1201 -0.1090
65084W        W 2578  22.410   1.226   4.837  0.0600 -0.0525  0.0692
65085W        W 2579  12.312  20.354   7.136 -0.1160  0.0549  0.1510
65086W        W 2580   4.807  27.050   0.278  0.0774 -0.0620  0.3664
65087W        W 2581  33.747   3.498  23.646  0.1883  0.2468 -0.0522
65088W        W 2582  21.087   4.494  25.959 -0.0824 -0.1497  0.1249
65089W        W 2583  13.134  30.945   0.889  0.1581 -0.0367 -0.4366
65090W        W 2584  23.933   8.708  24.116  0.0219  0.2327  0.0390
65091W        W 2585   5.013   3.417   1.040 -0.0411  0.2913  0.0159
65092W        W 2586   0.628   4.269  14.776 -0.1218  0.2897  0.2257
65093W        W 2587  13.626   3.995  23.820  0.1409  0.2111 -0.0213
65094W        W 2588  23.990  20.245  16.506  0.1417  0.0549 -0.2108
65095W        W 2589  17.823  34.326  22.259  0.0324  0.3792 -0.0444
65096W        W 2590  29.881  28.642  21.483 -0.0778  0.0270 -0.3009
65097W        W 2591  16.271  13.373  25.059 -0.0532 -0.0610  0.0440
65098W        W 2592  31.196  12.627  14.787  0.1842 -0.0674  0.2423
65099W        W 2593  34.217   9.413   1.113 -0.0014 -0.1126 -0.1389
65100W        W 2594  27.882  27.853  22.533  0.0452  0.2124 -0.2749
65101W        W 2595  17.209   8.194   5.090 -0.1309 -0.2641  0.0620
65102W        W 2596  24.720  29.682   1.002  0.0570 -0.0578  0.0858
65103W        W 2597  33.642  21.176  16.911  0.1815  0.0449  0.2543
65104W        W 2598   6.257  18.803   7.171 -0.2465  0.2211  0.0840
65105W        W 2599  21.110   0.064  23.271  0.1367  0.0999  0.1918
65106W        W 2600  28.326  35.188  13.276  0.1115 -0.2494  0.0209
65107W        W 2601  13.090  15.266   4.417  0.0427  0.2746 -0.1983
65108W        W 2602  15.663  22.574   6.572  0.0493 -0.1225  0.0854
65109W        W 2603   7.843   0.424   4.779 -0.0797  0.0871 -0.0206
65110W        W 2604  32.080  27.718  16.836 -0.0201  0.0891  0.1857
65111W        W 2605  21.931  16.723   2.087  0.0601  0.2069 -0.1101
65112W        W 2606  26.286   8.307  17.892  0.0767  0.0133 -0.2320
65113W        W 2607  20.262  15.570   1.714 -0.0342  0.0422 -0.0705
65114W        W 2608  24.449  16.146  13.203  0.1461 -0.1818 -0.0613
65115W        W 2609  27.610  16.995  26.133  0.0327 -0.2456  0.3052
65116W        W 2610   2.780   7.820   4.891  0.2837 -0.1256 -0.0525
65117W        W 2611  18.258  26.430  23.278  0.2789  0.2493 -0.0670
65118W        W 2612  33.289  26.678  13.007  0.0280 -0.2832  0.0206
65119W        W 2613  31.926  23.985   8.263  0.3387 -0.0522 -0.3163
65120W        W 2614  26.974   4.683  12.749 -0.0119  0.0524  0.0328
65121W        W 2615  27.449   7.508  25.830  0.0079  0.1175  0.1815
65122W        W 2616  21.713   8.455   3.260 -0.0661 -0.0600  0.0610
65123W        W 2617  24.366  26.962  13.122  0.2345 -0.3427 -0.0102
65124W        W 2618  17.277  11.085  12.460  0.1120 -0.0245  0.0833
65125W        W 2619  22.062  25.134   4.124 -0.0090 -0.0436  0.1244
65126W        W 2620  26.183   5.141  24.918 -0.2742  0.2421  0.2777
65127W        W 2621   0.684   4.481   1.288  0.5500  0.2537  0.0483
65128W        W 2622   1.708  30.793   0.179  0.0445  0.0716  0.2705
65129W        W 2623  10.899  25.822   7.926  0.0206  0.0704 -0.1065
65130W        W 2624  32.037  32.333  14.974  0.1147 -0.1478 -0.0322
65131W        W 2625   4.676  30.656  19.714  0.1827 -0.1363  0.2501
65132W        W 2626   4.334   7.654   8.475 -0.0571  0.1822 -0.0632
65133W        W 2627   0.603   2.010  22.621  0.0252 -0.0280  0.1572
65134W        W 2628  26.383  22.426  10.083 -0.1629 -0.6029 -0.0714
65135W        W 2629  22.835  29.644  15.357 -0.1011  0.3733 -0.0830
65136W        W 2630  20.151  19.946   5.548  0.0232 -0.1842 -0.1429
65137W        W 2631  16.215  12.228  26.143  0.0715  0.0573 -0.0489
65138W        W 2632  10.939  10.459  24.983 -0.0158 -0.0533  0.0768
65139W        W 2633  19.818  13.632  24.686 -0.2002  0.4078  0.2217
65140W        W 2634  15.711   2.836   6.954  0.2570 -0.1399 -0.3534
65141W        W 2635  34.716  16.035  15.702  0.0504  0.0914  0.0768
65142W        W 2636  32.254   8.895  15.418  0.0430  0.0744  0.2097
65143W        W 2637  27.067  18.512   7.518  0.2317 -0.0701  0.2499
65144W        W 2638  15.984   6.402  10.757  0.3511 -0.0017  0.2831
65145W        W 2639  32.913  27.096  10.786 -0.0776  0.3277  0.2020
65146W        W 2640  28.550   3.004   3.817 -0.0034 -0.2768 -0.4527
65147W        W 2641   0.072   7.671  22.528  0.1026 -0.4097  0.1919
65148W        W 2642  31.008  17.982  20.849  0.0925 -0.5026  0.1110
65149W        W 2643  10.116   2.421   7.217 -0.1341 -0.3369  0.0473
65150W        W 2644  30.379  17.804   9.099  0.1117 -0.0119  0.0476
65151W        W 2645   1.479  35.105   4.107 -0.2468 -0.0316  0.1556
65152W        W 2646  31.468  31.139  18.270 -0.1096  0.0592  0.2378
65153W        W 2647  16.269   1.949  18.302  0.0876  0.1130 -0.0969
65154W        W 2648  27.065  33.390   0.915  0.1618 -0.1466 -0.1155
65155W        W 2649  17.509  27.869  25.859 -0.1207  0.0298  0.1855
65156W        W 2650  29.700  33.602  15.469 -0.2917  0.0802  0.2680
65157W        W 2651  32.944  33.691  17.789  0.0286  0.6166  0.2140
65158W        W 2652  18.021   0.529  21.065  0.2595  0.1198 -0.0375
65159W        W 2653  16.920   6.786   0.125  0.1041 -0.2031 -0.0832
65160W        W 2654   8.304   6.256  13.684 -0.0718  0.1148 -0.1265
65161W        W 2655  22.647   4.141   1.859 -0.1644 -0.2967  0.1240
65162W        W 2656  33.011  11.104   9.612  0.1344 -0.0217  0.0019
65163W        W 2657  25.958  20.667  25.174 -0.0308 -0.3361  0.1734
65164W        W 2658  25.559  23.782  22.526 -0.0150  0.0389  0.1715
65165W        W 2659   9.086  13.353  24.796  0.0516 -0.1057 -0.2563
65166W        W 2660  19.306  20.589  25.263 -0.1751 -0.1369 -0.0038
65167W        W 2661  20.582   4.468  17.501 -0.0594 -0.1178  0.1870
65168W        W 2662   5.476   4.102  18.727 -0.1276 -0.1525 -0.4099
65169W        W 2663   1.550  14.479  24.368 -0.0122  0.0874 -0.1744
65170W        W 2664  13.801   0.644  23.759 -0.1001  0.0926  0.3841
65171W        W 2665   7.122  29.321  20.450  0.5086  0.0993  0.2627
65172W        W 2666  15.072  29.411   6.302 -0.0097 -0.0141  0.0825
65173W        W 2667   1.800  16.480  12.349  0.1436  0.2414 -0.0517
65174W        W 2668  33.175  17.512  16.687  0.0370  0.0903 -0.0877
65175W        W 2669  19.182  20.913  24.784  0.1969  0.1175 -0.0973
65176W        W 2670   8.334  18.615  21.145  0.0229  0.3670  0.1673
65177W        W 2671  22.551  27.292  24.412  0.0259  0.2812  0.3149
65178W        W 2672  11.412  20.606   9.987  0.0258  0.0034  0.0674
65179W        W 2673  14.618  17.310   3.899  0.0850  0.1798 -0.3394
65180W        W 2674  15.503  24.368  23.020 -0.0824  0.3121 -0.2072
65181W        W 2675  19.087  27.405   1.016 -0.1860 -0.3071  0.1044
65182W        W 2676   5.130   4.638  23.711 -0.0137 -0.0439 -0.2195
65183W        W 2677  14.292  32.902  21.750 -0.1371  0.2356 -0.1740
65184W        W 2678   1.656  21.581  14.114  0.2537 -0.1120  0.0012
65185W        W 2679  11.601  21.408  22.489 -0.0629  0.2092  0.2220
65186W        W 2680  21.240   9.374   7.358  0.0978 -0.0151  0.1993
65187W        W 2681   0.784  13.634   0.951 -0.0016 -0.0654  0.1122
65188W        W 2682  32.667   4.612  16.089  0.0602 -0.2927 -0.1711
65189W        W 2683   6.487  17.151   2.443 -0.0173 -0.2100  0.1253
65190W        W 2684   2.082  12.527  12.465 -0.1832 -0.1584  0.3696
65191W        W 2685  29.572   3.070  12.254  0.0975  0.2305 -0.1838
65192W        W 2686  13.754  16.851   5.009 -0.0222 -0.0159 -0.1639
65193W        W 2687  33.832  33.154   2.844  0.0839 -0.5662  0.1022
65194W        W 2688  14.297  31.024   2.664  0.5206  0.0386  0.0316
65195W        W 2689   2.746  24.427   2.254  0.1427 -0.0442 -0.0566
65196W        W 2690   6.789  31.312   3.797  0.0384  0.0554  0.2538
65197W        W 2691  21.845  30.590  16.439 -0.0529 -0.1015  0.0587
65198W        W 2692  32.105   2.714  25.934  0.0834 -0.2344 -0.1047
65199W        W 2693  28.078  13.928  25.108 -0.1357  0.0502 -0.0928
65200W        W 2694  14.825   5.109  20.547 -0.0544  0.0031 -0.1376
65201W        W 2695  16.634  10.212  24.462  0.3502 -0.1037  0.3255
65202W        W 2696  29.588  32.499   3.664 -0.0988 -0.0843 -0.2026
65203W        W 2697   3.193   5.729   2.656  0.0861  0.1870  0.0818
65204W        W 2698  20.780  17.850   2.902  0.3975  0.1666 -0.0279
65205W        W 2699  28.040  33.001  22.834 -0.0217  0.1505  0.1466
65206W        W 2700  32.202  11.208  22.942 -0.0378 -0.1744  0.1011
65207W        W 2701  35.115  29.693  26.003 -0.3575 -0.0454  0.1013
65208W        W 2702  19.753   4.336   9.220  0.0025  0.1513 -0.2436
65209W        W 2703  21.152  23.794  21.126  0.3217 -0.1154 -0.0378
65210W        W 2704  33.439   3.335  23.163 -0.0734 -0.1218  0.3407
65211W        W 2705  26.844  13.612  22.590  0.1880 -0.2160 -0.1882
65212W        W 2706  27.506  32.324  19.986  0.2497 -0.0123  0.0224
65213W        W 2707   5.035  11.682  22.261  0.1771  0.0333  0.1432
65214W        W 2708  26.265  24.411  14.989 -0.0130  0.0691 -0.0937
65215W        W 2709  22.700  31.061  22.250 -0.0796  0.0032  0.0978
65216W        W 2710  24.483  30.730   5.364 -0.2055 -0.1477  0.1107
65217W        W 2711  21.660  26.742  20.711  0.1097 -0.1024  0.2125
65218W        W 2712   2.040  17.994   1.686  0.1868 -0.1304 -0.1702
65219W        W 2713  10.427   7.626  19.803  0.3002 -0.0419  0.1262
65220W        W 2714  13.356  30.462  12.896  0.0729 -0.3215  0.1974
65221W        W 2715  29.679  14.235  14.453 -0.1710  0.1754  0.0762
65222W        W 2716  32.796  20.215  22.208 -0.0097  0.1457 -0.2372
65223W        W 2717   9.954  20.888   4.579  0.2216  0.1965  0.0937
65224W        W 2718  11.862  28.088  14.179 -0.2493 -0.0064 -0.2143
65225W        W 2719  26.163  30.897  16.635  0.0087  0.0403 -0.1100
65226W        W 2720  20.375   0.873   3.160  0.0710 -0.0530 -0.0899
65227W        W 2721   0.599  27.450  15.039 -0.0566  0.0142 -0.1581
65228W        W 2722  12.556  10.318  10.656 -0.5792 -0.2188  0.0377
65229W        W 2723  17.551   3.750   1.986  0.2781  0.1936  0.0838
65230W        W 2724   0.699  32.298  24.109 -0.0733  0.0393 -0.0564
65231W        W 2725  28.789  18.040  21.122 -0.1351 -0.2259  0.2128
65232W        W 2726  24.601  15.930  21.773  0.0379  0.3203  0.0040
65233W        W 2727  28.337  28.893   0.752 -0.0949 -0.4227 -0.0618
65234W        W 2728  11.621   3.578   6.720  0.0849 -0.1387 -0.1179
65235W        W 2729  23.574  21.889  18.732  0.2022  0.0181 -0.0470
65236W        W 2730   8.683  21.681  12.418 -0.2006  0.1624 -0.0845
65237W        W 2731   9.219   1.032  24.461 -0.0443 -0.1772 -0.0470
65238W        W 2732  12.245  33.732  22.199 -0.3592  0.0678 -0.1952
65239W        W 2733   5.232   6.095  21.610  0.2267 -0.0623 -0.0178
65240W        W 2734  29.851  27.996  20.402  0.1192 -0.0669  0.1040
65241W        W 2735  31.660   5.417  20.354 -0.0609 -0.1037  0.1011
65242W        W 2736   4.139  24.915   2.373 -0.0401 -0.2059  0.1104
65243W        W 2737  15.458   9.038  23.902  0.2892  0.0592  0.2046
65244W        W 2738  20.754   6.135  24.566 -0.0304 -0.1070 -0.2742
65245W        W 2739   7.274  11.724   2.947  0.4546  0.0639 -0.0601
65246W        W 2740   8.613   9.549   5.327 -0.1145 -0.1060 -0.0063
65247W        W 2741  20.602   7.864   7.891  0.0250 -0.1390  0.2116
65248W        W 2742  32.897  17.975  15.559  0.0127 -0.2017 -0.2399
65249W        W 2743  20.861  30.568  22.671  0.0200  0.2289 -0.2484
65250W        W 2744  32.044  21.021  18.213  0.1901  0.1442 -0.1022
65251W        W 2745  14.547  25.466  11.540  0.0045  0.0169  0.2255
65252W        W 2746  33.950  14.790  25.775 -0.1950 -0.0847 -0.0869
65253W        W 2747  29.631   1.167  13.583  0.1295  0.3894  0.0708
65254W        W 2748  28.218  32.891  16.497 -0.0917 -0.0262  0.4254
65255W        W 2749  28.997  33.252  16.214 -0.3074  0.2686  0.2373
65256W        W 2750   0.730  22.259  11.055 -0.0044  0.0575 -0.0226
65257W        W 2751  12.859  26.390   7.893  0.2376  0.1734 -0.0903
65258W        W 2752  30.016  29.941  20.809 -0.1829  0.0292 -0.1898
65259W        W 2753  34.353  10.518  24.357  0.1025  0.0151 -0.0806
65260W        W 2754  17.122  11.995   8.346  0.3006  0.0258  0.1689
65261W        W 2755   4.912  19.864  17.924 -0.2715 -0.0353  0.1895
65262W        W 2756  30.315   5.563  23.396  0.0921  0.3133  0.1071
65263W        W 2757   9.775  21.904   2.667 -0.0774 -0.3087  0.0453
65264W        W 2758  34.406  20.632  23.010 -0.0285 -0.0836  0.4091
65265W        W 2759  34.709  14.267  18.591 -0.2006  0.0065  0.0769
65266W        W 2760  16.663  21.896  13.994  0.1136 -0.0765  0.4196
65267W        W 2761  14.388  24.286   2.812  0.2356  0.2894 -0.2148
65268W        W 2762  20.043   3.162   8.637  0.0249  0.1671  0.1011
65269W        W 2763  13.356   0.742   3.395 -0.0791  0.0444 -0.0569
65270W        W 2764  14.016   3.893  19.608  0.0894  0.2785  0.3015
65271W        W 2765  17.789   3.784  23.250  0.1968 -0.0594  0.0835
65272W        W 2766  19.576  33.016  18.128  0.2473  0.2395  0.0838
65273W        W 2767   2.823   5.969  17.119  0.0860 -0.0188  0.2380
65274W        W 2768   0.705   3.699   1.896  0.1618  0.1503 -0.0410
65275W        W 2769  20.521  26.147   5.913  0.0694  0.3750 -0.3133
65276W        W 2770  19.028  25.599  19.567 -0.1004  0.0543  0.0666
65277W        W 2771  22.146   3.961   1.710 -0.3875 -0.0974 -0.2919
65278W        W 2772   9.817  31.708  22.944  0.1336 -0.5069 -0.1211
65279W        W 2773  14.259   5.315   3.303 -0.1116 -0.2869 -0.0352
65280W        W 2774   4.282  28.180  20.849 -0.2155  0.0628  0.1304
65281W        W 2775   4.168  34.959  22.778  0.1724 -0.2664  0.0417
65282W        W 2776  28.438  11.292   7.154 -0.3579  0.1336  0.0405
65283W        W 2777   0.872  33.791   7.337  0.2266 -0.1360 -0.0241
65284W        W 2778   0.125  18.676  12.093  0.0129  0.0281  0.2564
65285W        W 2779  27.521  13.997   7.285 -0.0049  0.2056 -0.1093
65286W        W 2780  35.261  22.688  18.956 -0.0174  0.1958  0.0021
65287W        W 2781  10.404  19.723  11.928 -0.0526 -0.2638  0.1403
65288W        W 2782  22.766  22.225  18.021  0.1158 -0.3980 -0.4553
65289W        W 2783   0.026   2.548   4.429 -0.1671  0.1602  0.0375
65290W        W 2784   3.392  14.207   0.299 -0.0831 -0.1923  0.3122
65291W        W 2785  19.247  24.536  22.553 -0.1279  0.0022  0.1964
65292W        W 2786   0.400  25.718  25.874 -0.0789  0.0704  0.2361
65293W        W 2787  24.082  17.122  14.543  0.0524 -0.2019  0.1940
65294W        W 2788  27.590  19.204  13.657 -0.2109  0.0469  0.1622
65295W        W 2789  33.659   4.307  19.534 -0.0145 -0.3827  0.2050
65296W        W 2790  31.887   8.010   0.778  0.2402  0.2266  0.1482
65297W        W 2791  15.772  12.817   2.454 -0.0388 -0.1046  0.3290
65298W        W 2792  12.481  34.405   7.503 -0.1694 -0.0163  0.1317
65299W        W 2793   6.141  17.245   8.652  0.4837 -0.2058 -0.0938
65300W        W 2794  29.390  19.095  20.456  0.0687 -0.2520  0.0471
65301W        W 2795  10.451   6.892  24.448 -0.0656 -0.1312 -0.1228
65302W        W 2796  13.136  11.324   4.748  0.2265 -0.0133  0.2285
65303W        W 2797  27.772  25.374  22.142  0.4317  0.1768  0.2624
65304W        W 2798   2.122  33.208   2.932  0.0050 -0.3488  0.1695
65305W        W 2799   4.255  15.354  19.010  0.2843  0.0708 -0.0515
65306W        W 2800   3.970   9.338   6.741 -0.0752  0.1912 -0.2161
65307W        W 2801  21.639   4.241  23.426 -0.0269  0.0355 -0.0949
65308W        W 2802  21.820  15.704  16.141 -0.0414 -0.0757  0.1738
65309W        W 2803   3.814  18.546  18.065  0.2072  0.2358  0.2137
65310W        W 2804  29.723  31.448   0.791  0.2476  0.0138 -0.4154
65311W        W 2805  19.460  26.474  20.995  0.1634 -0.1443  0.0215
65312W        W 2806  30.888  29.960  16.395 -0.1228 -0.2141 -0.3599
65313W        W 2807  17.251   6.701  25.437 -0.3388 -0.0730  0.1141
65314W        W 2808  25.893  15.313   6.310  0.1312  0.0026  0.0414
65315W        W 2809  22.283  20.522  24.827 -0.1051  0.1684  0.2805
65316W        W 2810  12.345   3.740  10.692  0.2416  0.3220 -0.1305
65317W        W 2811   9.438  28.941   0.027 -0.1922 -0.0225  0.2013
65318W        W 2812  10.438   4.257   4.789 -0.2527 -0.2013  0.4158
65319W        W 2813  29.395   5.426   0.951 -0.1726  0.1064  0.2486
65320W        W 2814   5.810  19.016   6.881 -0.0958  0.0916  0.1591
65321W        W 2815  21.898  29.489  20.713  0.1951 -0.1633  0.2049
65322W        W 2816  34.494  34.332   7.878 -0.0927 -0.0199  0.0721
65323W        W 2817  16.647  12.831  19.799  0.1911 -0.1800 -0.0577
65324W        W 2818  29.647   4.172  10.592 -0.0649  0.0892  0.0627
65325W        W 2819  25.128  18.514  16.725  0.0391  0.3249 -0.0664
65326W        W 2820  20.380  10.839  24.308 -0.0268 -0.1259  0.1476
65327W        W 2821  24.522   6.423  14.944 -0.2718  0.2098  0.0348
65328W        W 2822   3.472  10.866  19.692  0.1500 -0.1203 -0.0399
65329W        W 2823  21.257  12.794  23.701  0.1042  0.0036  0.3022
65330W        W 2824  11.410  25.471   2.178 -0.0906  0.2356  0.0187
65331W        W 2825   1.656  32.956  23.942 -0.1319 -0.0218 -0.1599
65332W        W 2826  12.236  10.604   6.145  0.1189 -0.1400  0.0830
65333W        W 2827   5.750   3.427   2.661 -0.2009  0.0904 -0.0970
65334W        W 2828  24.275  35.115  13.347 -0.0470 -0.2981 -0.0562
65335W        W 2829  34.698   1.805   3.411  0.1736 -0.0143  0.2948
65336W        W 2830  14.487  27.328  10.774 -0.0817  0.1994  0.1376
65337W        W 2831  33.605  19.603  10.942  0.0598 -0.2164 -0.1096
65338W        W 2832   8.730  12.043   8.750 -0.2381  0.2197  0.0753
65339W        W 2833  28.717   9.642  25.913  0.2098  0.2086  0.0527
65340W        W 2834  12.512  10.064   6.188  0.0693  0.0904  0.0122
65341W        W 2835  15.167   4.260   9.178 -0.1855  0.2040 -0.0898
65342W        W 2836  12.307  25.240  14.452  0.1155  0.1022  0.0677
65343W        W 2837  16.141  34.644   2.778  0.2869  0.0340 -0.0491
65344W        W 2838  15.757  10.508   0.262 -0.2404  0.0462 -0.0206
65345W        W 2839  33.768  14.752   0.974 -0.2345  0.0729 -0.1813
65346W        W 2840  14.593  22.501   8.098  0.0501 -0.4121  0.0113
65347W        W 2841   1.485  25.696   4.592  0.4101 -0.0680 -0.0123
65348W        W 2842  20.920  19.010  26.236  0.3156  0.2541 -0.0653
65349W        W 2843  10.463  30.999   6.452  0.2916 -0.2589  0.0180
65350W        W 2844  34.162  12.958  15.808  0.0014  0.1642  0.1368
65351W        W 2845  31.745  13.463  18.581 -0.1391  0.2721 -0.0940
65352W        W 2846  30.150  35.227  22.322 -0.0996 -0.2351  0.2994
65353W        W 2847   6.514   8.400  10.906  0.3185  0.1421  0.0125
65354W        W 2848  11.812  34.633  22.708 -0.2412  0.1640  0.2323
65355W        W 2849  35.243   2.352   1.676 -0.1110  0.2212  0.1382
65356W        W 2850  34.889   8.710   4.160  0.2808  0.1064 -0.1470
65357W        W 2851  30.254  25.053  11.784 -0.3465  0.0300 -0.0373
65358W        W 2852   3.072   0.658   8.334  0.0867 -0.1225 -0.1472
65359W        W 2853  21.733   8.021   2.041 -0.0254  0.1581 -0.1563
65360W        W 2854  24.765   6.112  13.143  0.1377 -0.0948 -0.0622
65361W        W 2855  32.248  15.036  22.098 -0.0486  0.0488 -0.2650
65362W        W 2856   3.271   9.330  25.794  0.2476 -0.0351 -0.4613
65363W        W 2857  10.855  19.405   1.831 -0.0593  0.1011  0.4114
65364W        W 2858  27.733   7.982  17.113 -0.1247 -0.0594 -0.0767
65365W        W 2859   4.436  17.177  24.356 -0.0358  0.1758  0.0143
65366W        W 2860  29.458   0.133   2.969  0.4494 -0.4054  0.0199
65367W        W 2861   5.765  35.363   3.842  0.0216  0.1933 -0.1430
65368W        W 2862  12.886   3.407  18.388 -0.4133  0.1516  0.1822
65369W        W 2863   7.157  34.523   8.800 -0.1432  0.1281  0.0704
65370W        W 2864  29.334  19.285  12.360 -0.0125  0.4301  0.1511
65371W        W 2865  28.281  26.348   0.956  0.2624 -0.1982  0.3621
65372W        W 2866  27.225  22.267  18.164 -0.1554 -0.0802 -0.3676
65373W        W 2867  23.094  18.863   2.487  0.2472  0.0977  0.1407
65374W        W 2868  28.743  27.624  15.235  0.5752  0.4031  0.0748
65375W        W 2869  33.576   7.580  20.586 -0.1620 -0.2505  0.1353
65376W        W 2870   9.159  15.786  20.244 -0.0801 -0.0539  0.0459
65377W        W 2871  17.746  29.585  22.706 -0.0824 -0.0566 -0.0931
65378W        W 2872  26.930  32.493  25.316 -0.0501 -0.0025 -0.0122
65379W        W 2873  10.006  26.894  17.147  0.1604  0.0064 -0.1132
65380W        W 2874  15.270  12.077   0.328 -0.0050 -0.2593 -0.1012
65381W        W 2875  20.041  32.131  19.438 -0.1751  0.0720  0.0327
65382W        W 2876  27.144  34.085  11.652  0.1867  0.0791  0.0936
65383W        W 2877  10.522  16.771   9.097  0.0666  0.0880  0.4758
65384W        W 2878  14.267   3.268   2.694 -0.2542 -0.0010  0.0955
65385W        W 2879  18.499  29.772   1.360 -0.0717 -0.0241 -0.0367
65386W        W 2880  30.467   7.175  23.320 -0.1991  0.0286  0.1973
65387W        W 2881   6.800  12.736   3.701 -0.0101 -0.1205  0.1399
65388W        W 2882  15.256  19.447   6.479  0.1196 -0.4546  0.1314
65389W        W 2883  30.729   8.205   0.796 -0.1469  0.3030  0.0105
65390W        W 2884   8.792   5.175  14.016 -0.1091  0.1437 -0.1448
65391W        W 2885  17.847  33.344  16.657  0.0720  0.2479  0.0212
65392W        W 2886   9.385   1.139  12.836  0.4191  0.0141 -0.5009
65393W        W 2887  14.678  16.132   8.112 -0.3009 -0.0632 -0.2096
65394W        W 2888  10.893   1.374   8.981  0.1139 -0.1384 -0.1878
65395W        W 2889  17.728  12.160  19.802 -0.1135  0.2611  0.0272
65396W        W 2890  22.010  25.198   4.610  0.2542 -0.0499  0.0619
65397W        W 2891  16.408  10.390  19.716  0.0339 -0.0034 -0.0908
65398W        W 2892  25.388   0.242  24.249 -0.2015  0.0056  0.1160
65399W        W 2893  28.310  26.163   2.213  0.0103 -0.1107 -0.1944
65400W        W 2894   5.189  32.474  11.599  0.2917  0.1456  0.1939
65401W        W 2895  24.693  17.746  22.076 -0.1523  0.0916  0.1121
65402W        W 2896  12.456   0.758  13.942 -0.1030 -0.4153  0.0026
65403W        W 2897  16.842  17.453   2.290 -0.1066  0.2586  0.1247
65404W        W 2898  20.791   0.318   8.839  0.2827 -0.1188  0.1014
65405W        W 2899  13.216  25.209  13.920 -0.3823 -0.0794 -0.2198
65406W        W 2900  20.966   9.226   3.784  0.1305  0.3240  0.1839
65407W        W 2901  18.009  12.983  17.998 -0.0801 -0.0270 -0.2113
65408W        W 2902  17.760  10.412  12.904 -0.2869  0.3388  0.0999
65409W        W 2903  28.134  33.358  18.336  0.1830 -0.0218 -0.2022
65410W        W 2904  27.638   8.732  12.911 -0.2827 -0.1217  0.1058
65411W        W 2905  33.632   1.101   6.579  0.0011 -0.0846  0.1670
65412W        W 2906   1.154   3.440  24.379 -0.0704 -0.1325 -0.0369
65413W        W 2907  15.239  34.748  25.405  0.4908 -0.2440 -0.2662
65414W        W 2908  22.955  10.438   2.106  0.0066 -0.2154  0.1856
65415W        W 2909   9.960   6.865   0.342  0.0389  0.1392 -0.0624
65416W        W 2910  14.031  23.721   4.170  0.1905  0.5918  0.1989
65417W        W 2911  33.385   7.181  11.994  0.0028  0.2199  0.1790
65418W        W 2912  12.739  29.094   1.617 -0.1215  0.1869  0.1012
65419W        W 2913  10.806  13.794   0.270 -0.0340  0.2291 -0.1830
65420W        W 2914  31.689  30.837   5.671  0.2489 -0.2832  0.1130
65421W        W 2915  10.220  15.151   2.814 -0.3852 -0.1926  0.0362
65422W        W 2916  26.375   9.277  26.070 -0.2064 -0.0299 -0.2110
65423W        W 2917   8.220  32.199  13.436  0.1693 -0.0201  0.1768
65424W        W 2918   9.121   9.046   4.886 -0.0627  0.1109 -0.2113
65425W        W 2919  29.790  22.526  23.159 -0.2532 -0.0017  0.0210
65426W        W 2920   9.956  14.249  11.226  0.1781  0.2606  0.0694
65427W        W 2921  34.849   4.554  14.832 -0.3923 -0.2760 -0.1764
65428W        W 2922  19.734  12.569   4.656  0.2326  0.0184  0.0815
65429W        W 2923  11.521  11.814  13.796 -0.1752  0.2265  0.1048
65430W        W 2924  20.169  19.596   8.268  0.0809 -0.0341  0.1504
65431W        W 2925  12.686  12.466   7.317 -0.0981 -0.3530 -0.3397
65432W        W 2926  17.921  29.372  21.027 -0.0736 -0.0432  0.1821
65433W        W 2927   2.948  24.459  18.842 -0.0462  0.2577 -0.0344
65434W        W 2928  12.992  21.819   8.901 -0.4201 -0.1690  0.3360
65435W        W 2929  15.902  25.381  25.563  0.0651 -0.0392 -0.0662
65436W        W 2930  30.447  21.601  24.125  0.0964  0.0401  0.0294
65437W        W 2931   7.724  28.698  15.151 -0.0857 -0.1091 -0.0593
65438W        W 2932  23.427  29.941   2.493  0.3160 -0.0889  0.4039
65439W        W 2933  18.545  13.316  18.062 -0.1784 -0.2796  0.0905
65440W        W 2934  14.496  33.823  22.689  0.0257 -0.0215 -0.0744
65441W        W 2935  17.417  25.723   4.377  0.1018  0.4110 -0.1224
65442W        W 2936  32.849   4.612   0.317  0.0888  0.0174 -0.1022
65443W        W 2937  18.377  21.441   8.545  0.0914  0.1794  0.1962
65444W        W 2938  12.930  10.230   8.671 -0.1050  0.0123 -0.1883
65445W        W 2939   4.068   3.740   3.553  0.0969  0.2051  0.2177
65446W        W 2940  27.147   4.890  18.717 -0.1697  0.0953  0.0484
65447W        W 2941  32.782  17.499  11.269  0.0528 -0.0799  0.0147
65448W        W 2942  12.677   6.354  22.368 -0.0066  0.0264 -0.1505
65449W        W 2943   3.839  28.977  20.703 -0.1111 -0.2263 -0.0302
65450W        W 2944  15.260  10.292  10.670  0.1039 -0.1335  0.1813
65451W        W 2945   3.102   5.414  18.926  0.2317 -0.1461 -0.1870
65452W        W 2946   7.915  33.593  21.250  0.1559  0.1370  0.0183
65453W        W 2947  19.621  23.437  18.414 -0.0301  0.0091 -0.1431
65454W        W 2948   9.521  15.226  21.039  0.1728  0.1399  0.1571
65455W        W 2949   1.961   2.661  25.239 -0.2013 -0.0665 -0.0867
65456W        W 2950  19.949  32.673   6.447  0.3345  0.2533  0.2107
65457W        W 2951   4.605   9.764  23.310  0.1605  0.0936 -0.2297
65458W        W 2952  24.988   3.791  22.338  0.0638 -0.0377 -0.2581
65459W        W 2953  30.195  27.693  11.524 -0.0835  0.2199  0.0377
65460W        W 2954  16.723  32.211   7.590  0.2244  0.3392 -0.0683
65461W        W 2955  30.315  34.695  25.439  0.0795  0.0079  0.2953
65462W        W 2956   7.544   5.108  12.013 -0.3164  0.1099 -0.1646
65463W        W 2957  22.202  33.578  22.602 -0.2015 -0.1581 -0.1565
65464W        W 2958  34.100  18.846  15.831  0.1480  0.0890  0.1900
65465W        W 2959   3.109  20.732  16.776 -0.1327 -0.0104 -0.1846
65466W        W 2960   2.466  30.454   6.587  0.1012  0.0126  0.0085
65467W        W 2961  26.988  18.391  19.598  0.0777  0.1826 -0.0208
65468W        W 2962  15.787   1.616  17.222 -0.0989 -0.0054 -0.0009
65469W        W 2963  10.910  14.113   8.328 -0.1941  0.2680  0.1153
65470W        W 2964   6.989  25.079  26.129 -0.0225 -0.0713 -0.0960
65471W        W 2965  18.772   6.656  10.635  0.0418  0.3467  0.3098
65472W        W 2966   5.561   7.993   7.223  0.0284  0.0176 -0.2930
65473W        W 2967   8.390   1.643  24.929  0.0577 -0.1942 -0.1188
65474W        W 2968   6.253  14.351   9.157  0.2828 -0.0722  0.2004
65475W        W 2969  21.482  28.980  12.364 -0.1137  0.0167 -0.0550
65476W        W 2970  11.368   3.515   5.005  0.3090 -0.1214 -0.3593
65477W        W 2971  16.848  10.550   8.818  0.2478  0.1410  0.0219
65478W        W 2972   0.450  11.408  12.041  0.5111  0.0058 -0.1616
65479W        W 2973  29.197  29.786   3.480 -0.2093  0.0061  0.0684
65480W        W 2974   7.739  31.646  20.587 -0.2064 -0.0021  0.1035
65481W        W 2975  13.483  26.973   7.466 -0.0361  0.3599 -0.1889
65482W        W 2976  11.499  19.411  26.000  0.2690 -0.0216 -0.0497
65483W        W 2977   3.672  28.124  19.604 -0.1602 -0.1514  0.1518
65484W        W 2978   2.949   2.832  24.307 -0.0960 -0.0113  0.2142
65485W        W 2979  20.381   4.741  20.525 -0.3096  0.1995 -0.1008
65486W        W 2980  24.079  18.180  15.822 -0.1311 -0.0938  0.1468
65487W        W 2981  10.205  30.342   7.718  0.2364 -0.2225  0.0047
65488W        W 2982   2.101  20.349  19.420  0.2611 -0.1640  0.0127
65489W        W 2983  27.725   6.301  18.993 -0.1748  0.0728  0.0439
65490W        W 2984   0.452  19.859  17.444 -0.0325 -0.0022  0.1478
65491W        W 2985  26.262   4.661   3.807 -0.0762  0.2240 -0.1066
65492W        W 2986  11.516  19.218   8.149 -0.0539  0.0867 -0.2439
65493W        W 2987  18.295  10.436  11.287 -0.1789 -0.0539  0.1039
65494W        W 2988  23.986  31.342   4.750  0.1413  0.3105 -0.4285
65495W        W 2989  26.228  30.647  15.576 -0.0942 -0.2988  0.0047
65496W        W 2990  17.323  21.837   1.642 -0.2395 -0.0699  0.3145
65497W        W 2991  27.872  32.862   2.961  0.1055 -0.2941  0.2239
65498W        W 2992  17.961  26.795   9.976  0.1043  0.1560  0.0644
65499W        W 2993  20.267   3.563   8.349  0.0637  0.0327 -0.2994
65500W        W 2994   3.900  31.328  20.091  0.0850 -0.0875 -0.0950
65501W        W 2995  23.959  34.397   0.328  0.0158  0.2755  0.0185
65502W        W 2996   1.082   3.496  25.189  0.0660  0.0270 -0.1487
65503W        W 2997  31.446   5.913  17.536 -0.2909  0.0385 -0.0240
65504W        W 2998  26.406   5.060  22.373  0.0787  0.0403  0.0637
65505W        W 2999  21.206  32.373  18.608  0.0023  0.0705 -0.1613
65506W        W 3000   8.434  33.722  24.997 -0.2435  0.0582  0.0714
65507W        W 3001  20.959   2.037   6.595  0.0633 -0.0309 -0.1228
65508W        W 3002  26.889   2.987  24.349 -0.1953 -0.0759 -0.0610
65509W        W 3003  12.349  22.848  24.513  0.1695  0.1327  0.1204
65510W        W 3004  28.845  12.437  16.434 -0.2175 -0.0703 -0.0773
65511W        W 3005   4.769   5.034  20.242  0.0666 -0.1998 -0.1883
65512W        W 3006   4.077  11.403  14.271  0.1102  0.4214  0.3779
65513W        W 3007  33.150   3.215  25.550  0.1559  0.0172  0.1881
65514W        W 3008   1.338  27.422  18.462  0.0621 -0.1030 -0.3071
65515W        W 3009  33.690   9.418  23.797  0.1737  0.0778  0.2852
65516W        W 3010   1.283  32.589  16.293  0.0317 -0.1626 -0.0244
65517W        W 3011   0.799  18.430  23.421 -0.3245 -0.1701 -0.3384
65518W        W 3012  26.247   0.059   2.283  0.1172 -0.2084  0.0741
65519W        W 3013   2.103  34.105   3.926  0.0868 -0.1312 -0.0027
65520W        W 3014  34.776  16.286   0.633  0.3406 -0.0999  0.0647
65521W        W 3015  11.817  29.324   7.505 -0.1582 -0.1631  0.3882
65522W        W 3016  19.279  18.749   5.827  0.1746  0.0926 -0.1435
65523W        W 3017  13.163  19.840  12.456  0.1023  0.0181 -0.3240
65524W        W 3018   8.105  19.502  24.465  0.0904  0.0544  0.1788
65525W        W 3019  17.661  23.860   1.487  0.1234 -0.0571  0.0769
65526W        W 3020  31.089   0.124  12.327 -0.1446  0.1788 -0.1580
65527W        W 3021  30.111   4.114   4.983  0.0813  0.0171  0.1946
65528W        W 3022   1.615  23.143   3.134  0.3555 -0.0523  0.0197
65529W        W 3023  22.625  18.237  17.193  0.0164  0.0474 -0.0120
65530W        W 3024  11.032   8.200  25.786 -0.1633  0.1554 -0.2276
65531W        W 3025   7.091   3.568  24.057 -0.1168 -0.1590 -0.0209
65532W        W 3026  17.523  17.507  11.786  0.1051 -0.1831  0.3994
65533W        W 3027   9.439   1.932  24.521 -0.0570 -0.0859 -0.1896
65534W        W 3028  18.927  34.724  25.118  0.0206  0.3457  0.0417
65535W        W 3029  11.948  16.772   6.592 -0.2117 -0.0380 -0.2183
65536W        W 3030  18.794   0.248  26.207 -0.3555  0.0998 -0.0144
65537W        W 3031  24.590  13.881  25.494  0.1189 -0.1271  0.3557
65538W        W 3032  13.844  18.441  25.707 -0.1872  0.1318  0.0320
65539W        W 3033  13.227  16.057  26.012 -0.0182 -0.0944  0.1178
65540W        W 3034  16.896   4.009  22.926  0.1867 -0.0429 -0.3151
65541W        W 3035  15.259  15.051   7.565 -0.1669  0.1689 -0.0951
65542W        W 3036  18.067  22.890  11.923 -0.1555  0.0974 -0.0255
65543W        W 3037  19.949  33.971  17.950  0.1370 -0.1247  0.0600
65544W        W 3038  30.549  11.572   8.149  0.1173  0.1645  0.5176
65545W        W 3039   3.070   5.835   3.199  0.0161 -0.2184 -0.3098
65546W        W 3040  12.428   5.678  20.875 -0.0385 -0.1364  0.2234
65547W        W 3041  15.301   6.428   4.638 -0.1367  0.3719 -0.2144
65548W        W 3042   3.444  21.227   0.200  0.0594 -0.1606  0.1357
65549W        W 3043  16.225  31.624  25.901  0.0358 -0.1772 -0.2243
65550W        W 3044   1.073   5.838  25.974  0.0877  0.0385  0.1620
65551W        W 3045  13.233   1.006  11.235  0.1574  0.1373  0.0682
65552W        W 3046   8.011  13.572   7.415  0.1570 -0.2688  0.1879
65553W        W 3047  14.755  25.658  16.429  0.1891  0.0926  0.2137
65554W        W 3048   9.938  34.228  24.228 -0.0341 -0.1321  0.0452
65555W        W 3049  34.038  25.128  24.545 -0.3927 -0.2768  0.1715
65556W        W 3050   1.957   2.155  24.942  0.1834 -0.0160 -0.2783
65557W        W 3051  23.621   0.703   4.841 -0.1950  0.1967  0.1508
65558W        W 3052  26.054  22.213   7.765 -0.1383  0.3312 -0.1449
65559W        W 3053  29.327   0.542  21.133  0.3238  0.2325  0.1821
65560W        W 3054  12.049   8.561  24.106  0.1333  0.2423  0.0522
65561W        W 3055   4.090  10.680  22.438 -0.0942  0.0348  0.2539
65562W        W 3056  21.909  21.298  17.485  0.0327  0.2143 -0.0297
65563W        W 3057  15.170  30.114  19.710  0.0560  0.2562 -0.1059
65564W        W 3058  15.665  26.682   2.646  0.2762 -0.3466  0.5251
65565W        W 3059  12.576  22.408  14.098 -0.1510 -0.1954 -0.1373
65566W        W 3060   6.214  24.515   9.896  0.0496  0.0158  0.0101
65567W        W 3061  13.548  33.855  23.674  0.1192  0.3465  0.1421
65568W        W 3062   2.294   6.009  21.800  0.5527 -0.1725  0.1967
65569W        W 3063  12.288  30.339   8.259  0.1375 -0.0381 -0.0138
65570W        W 3064  33.953  22.765  21.276 -0.3311  0.1166 -0.0513
65571W        W 3065  31.541  29.675  23.130  0.1249 -0.1091  0.0778
65572W        W 3066  27.255  20.380   8.464  0.0843 -0.0273 -0.3460
65573W        W 3067  34.995   0.526   7.250  0.1293  0.3231  0.2608
65574W        W 3068  27.550   9.332  11.087  0.1734 -0.2604  0.1230
65575W        W 3069  21.092  17.694   3.256 -0.0902  0.1059  0.2011
65576W        W 3070  26.388  23.316   0.562  0.1356  0.1370 -0.0305
65577W        W 3071   9.149  20.709  13.721 -0.0098  0.1062  0.1086
65578W        W 3072  23.033  34.402  15.400 -0.3625  0.1279  0.1072
65579W        W 3073   9.903  10.866   4.366  0.2327 -0.1084 -0.3251
65580W        W 3074  35.138  23.329  15.898  0.0900  0.3465  0.1334
65581W        W 3075   6.230  29.339   3.321  0.0164  0.1572  0.0468
65582W        W 3076  14.504  24.588  14.242  0.0427  0.0552 -0.0037
65583W        W 3077   4.724   9.998  24.244 -0.1986  0.0541  0.0258
65584W        W 3078   9.170  35.281   3.584 -0.0908 -0.1254 -0.1272
65585W        W 3079  28.681  13.395  13.980 -0.0132 -0.0345 -0.0724
65586W        W 3080  15.922  34.653   9.400  0.2886 -0.1198  0.1577
65587W        W 3081  27.832   1.693   5.785 -0.1374 -0.3771 -0.1296
65588W        W 3082  23.092  33.472  11.597 -0.0816  0.1440  0.5333
65589W        W 3083  22.678  11.513  20.510  0.1299  0.0558 -0.0035
65590W        W 3084  29.277  13.219  12.124 -0.1981 -0.1653  0.1293
65591W        W 3085  19.872   9.334  22.777 -0.2285 -0.0897  0.1641
65592W        W 3086  10.996  24.848  22.679 -0.1962 -0.1104  0.1560
65593W        W 3087  29.220  33.706  16.117 -0.0227 -0.1454  0.1430
65594W        W 3088  32.588   2.548  17.189 -0.0178 -0.3084 -0.1134
65595W        W 3089  26.600  34.306  19.334 -0.0335 -0.1039  0.1898
65596W        W 3090   8.602  11.188  21.655  0.0142  0.0087 -0.3750
65597W        W 3091  26.085  18.949  26.012 -0.0821 -0.1683  0.1124
65598W        W 3092   3.853  21.199   3.688  0.0640  0.1874  0.3560
65599W        W 3093  15.989  34.287  25.457  0.2919 -0.1956 -0.2122
65600W        W 3094  30.828   8.286   1.982 -0.0797 -0.0404  0.3686
65601W        W 3095   1.929  34.692  22.716  0.1396 -0.2232  0.0625
65602W        W 3096  30.895  10.748  17.867 -0.0429  0.2145 -0.1902
65603W        W 3097  14.349  12.957  11.443 -0.3158 -0.1355 -0.0407
65604W        W 3098  21.710   3.018   2.529  0.0826  0.1045 -0.0043
65605W        W 3099  18.711  28.782   9.147 -0.1835 -0.2264 -0.1484
65606W        W 3100   5.867  30.916   0.016 -0.1709 -0.0110 -0.3035
65607W        W 3101  31.372  19.048   6.089  0.3307 -0.2700  0.1938
65608W        W 3102  18.103  31.278  20.662  0.0467 -0.1302  0.0373
65609W        W 3103  26.837  34.737   0.501 -0.0127 -0.0540 -0.3487
65610W        W 3104   7.279  15.574   4.901 -0.0841 -0.0863  0.0209
65611W        W 3105  12.270   5.628  22.557  0.0968 -0.0157  0.0914
65612W        W 3106  34.435  32.140  20.366 -0.1518  0.2158  0.1886
65613W        W 3107  30.480   7.366  12.956 -0.0461 -0.1052  0.0923
65614W        W 3108  18.592  22.277  10.455  0.0714  0.1925  0.0158
65615W        W 3109  30.367  18.041   8.682  0.1588  0.0893  0.0276
65616W        W 3110  11.473   2.324   9.846 -0.1487 -0.2085 -0.1355
65617W        W 3111  19.243   4.552   7.627  0.2385  0.2664 -0.2180
65618W        W 3112  31.974  10.697  25.847  0.0093 -0.2737  0.1169
65619W        W 3113  13.861  28.903   6.965 -0.0991 -0.2194  0.2939
65620W        W 3114  18.155   0.274  20.646 -0.0633 -0.2129 -0.0800
65621W        W 3115  20.247  20.990  25.913 -0.1902 -0.2187 -0.1084
65622W        W 3116   0.080  32.424   0.585  0.1496 -0.1065  0.0745
65623W        W 3117  17.308   0.363   7.114 -0.0821  0.0075 -0.0996
65624W        W 3118  13.662  22.963   4.427 -0.0550 -0.4968 -0.0214
65625W        W 3119  28.942   4.402  21.291 -0.0711 -0.0893 -0.0127
65626W        W 3120   2.765  23.176  21.735  0.0341  0.1088  0.4032
65627W        W 3121   6.166  32.738  24.186 -0.0728 -0.2649  0.0275
65628W        W 3122  27.821   0.988   0.595  0.2054 -0.1210  0.0680
65629W        W 3123  22.508  14.015  20.232  0.0356  0.1172 -0.1369
65630W        W 3124  18.157  29.978   4.411 -0.2659 -0.0009  0.1827
65631W        W 3125   2.881  19.337  21.130  0.0623 -0.1192  0.2228
65632W        W 3126  34.394  15.509   9.431  0.0160  0.0083  0.3668
65633W        W 3127   9.676  20.252  25.538  0.2754  0.0972 -0.2181
65634W        W 3128  11.916  22.439   4.490  0.1991 -0.0176 -0.0002
65635W        W 3129   7.795   2.450  12.874  0.0451  0.1849 -0.1112
65636W        W 3130   6.615  11.501  20.995 -0.0866 -0.1627  0.0438
65637W        W 3131  35.372  26.837   4.886  0.0830  0.0008 -0.1374
65638W        W 3132   5.121  24.081  22.405  0.0513  0.1174  0.0501
65639W        W 3133  14.376   9.460   0.318 -0.1965  0.0758  0.0758
65640W        W 3134   7.713  29.775   9.198  0.4090  0.0569 -0.1510
65641W        W 3135   8.601   0.900  12.376  0.1786  0.2628 -0.0407
65642W        W 3136  13.869  24.414   4.485 -0.1039  0.0274 -0.3718
65643W        W 3137  10.775  27.959  14.184  0.0325  0.0516 -0.1885
65644W        W 3138  14.335   8.937   3.593 -0.0614 -0.2449 -0.0608
65645W        W 3139  27.962  32.104  10.356  0.0823 -0.3562  0.0134
65646W        W 3140  13.212  11.642   7.163  0.1433  0.1796 -0.0151
65647W        W 3141  14.440  25.138   6.677 -0.0402 -0.0955 -0.1600
65648W        W 3142  13.888   8.665  10.261 -0.0519  0.1119 -0.0895
65649W        W 3143   2.907  29.729   2.357  0.4009 -0.1419 -0.0700
65650W        W 3144   3.276  20.235  17.258  0.0645 -0.1541  0.1110
65651W        W 3145   3.153  18.991  14.425 -0.3163 -0.0393  0.3186
65652W        W 3146   2.083   6.501  18.695 -0.0745  0.1472 -0.3006
65653W        W 3147   6.554  28.302   6.486  0.3509  0.1541 -0.0377
65654W        W 3148  12.294   2.390  22.809 -0.0094 -0.0029  0.0294
65655W        W 3149   4.121   4.491  25.740  0.1619 -0.0674  0.0876
65656W        W 3150  20.026  17.741   0.951 -0.0064  0.0749 -0.1434
65657W        W 3151   6.415  13.998  18.722 -0.3600  0.2121  0.0712
65658W        W 3152  30.540  22.782  25.123 -0.0691 -0.0798  0.2588
65659W        W 3153   0.926  10.041   0.442  0.1842  0.3432 -0.1967
65660W        W 3154  33.504  17.862   7.321  0.1362 -0.1683 -0.1105
65661W        W 3155   4.108  26.836   8.200  0.1608  0.2781 -0.4700
65662W        W 3156   4.416  28.240  10.325  0.1118 -0.0592 -0.3141
65663W        W 3157  30.259  29.398   2.538 -0.2250 -0.1466  0.1584
65664W        W 3158  18.193  34.995   4.981  0.0017 -0.5221 -0.2533
65665W        W 3159   5.117  32.655  25.715  0.1777 -0.0457  0.3128
65666W        W 3160  23.126  15.036  23.130  0.2807 -0.0939 -0.1031
65667W        W 3161   8.669   5.826   3.845  0.1589 -0.0561 -0.1590
65668W        W 3162  21.632  29.366  19.762 -0.0129 -0.0535  0.2368
65669W        W 3163   0.759  26.540  25.496  0.0428  0.0458  0.0996
65670W        W 3164  12.908  21.966  15.776  0.0146 -0.0131  0.3099
65671W        W 3165  13.826   0.941  10.850  0.0601 -0.1336 -0.0122
65672W        W 3166  25.857  34.282  13.820  0.0469  0.0952  0.0148
65673W        W 3167  32.161   6.276  11.634  0.1019  0.1691 -0.2162
65674W        W 3168  26.978   2.207   4.185 -0.0015  0.1297  0.1117
65675W        W 3169  15.712   7.011  23.715 -0.1062  0.4256  0.1362
65676W        W 3170  23.054  19.512  23.020 -0.1094 -0.2854  0.1031
65677W        W 3171  24.294  28.290   0.703  0.2285 -0.2892 -0.3929
65678W        W 3172  12.029  14.766  13.073 -0.2099 -0.3906 -0.1839
65679W        W 3173  20.301  19.158  23.524 -0.2446 -0.1994 -0.0124
65680W        W 3174  31.230  34.215   3.998  0.1011 -0.2089  0.0114
65681W        W 3175  30.022  29.626  17.422 -0.0009  0.3225  0.0450
65682W        W 3176   1.715  33.165   6.038  0.2977  0.0154 -0.0473
65683W        W 3177  22.732   6.929  17.806 -0.0539  0.0695 -0.0687
65684W        W 3178  14.750  30.980  11.188  0.2956 -0.0691 -0.1658
65685W        W 3179  27.172  35.173  19.141 -0.0561  0.1354 -0.0597
65686W        W 3180  18.940   4.389   7.192 -0.3024 -0.0366  0.0911
65687W        W 3181  25.726  18.705  22.990  0.0459  0.2088  0.1571
65688W        W 3182   8.221  21.381  10.745  0.3393 -0.2700 -0.2265
65689W        W 3183  25.619  11.117  13.619 -0.1577 -0.0924  0.1017
65690W        W 3184  11.411   8.821  13.591  0.0473  0.0353 -0.4494
65691W        W 3185   8.906  26.004   4.006  0.0060  0.0066 -0.0192
65692W        W 3186  27.891   2.955   0.635  0.0660 -0.0899  0.1285
65693W        W 3187  21.773  25.923  19.385 -0.0618  0.0459  0.0058
65694W        W 3188  30.328  19.638  15.599 -0.1758 -0.1440  0.0393
65695W        W 3189  15.637  22.587   9.252  0.0209 -0.0975  0.0229
65696W        W 3190  33.890  14.290   0.717  0.1886  0.0799 -0.0641
65697W        W 3191   9.948  34.700  23.834 -0.1840  0.1562 -0.1078
65698W        W 3192  10.546  28.703  14.181  0.1666 -0.1974  0.1733
65699W        W 3193  28.220  35.265  16.427  0.1688  0.0132 -0.1788
65700W        W 3194  22.807  16.000  12.606 -0.3788  0.3217 -0.0299
65701W        W 3195  33.400  35.087  14.175 -0.1675 -0.1228  0.2122
65702W        W 3196  20.018   4.083  21.355 -0.0979  0.1410 -0.0035
65703W        W 3197  14.746  27.305  14.371 -0.1386  0.2035  0.1354
65704W        W 3198  32.568  20.299   9.352  0.1867 -0.1810  0.4187
65705W        W 3199  33.653  16.290   0.308 -0.0335 -0.0530 -0.2233
65706W        W 3200  17.359   2.900  22.481  0.0972 -0.1598 -0.1270
65707W        W 3201   7.313  20.427  24.988 -0.0299 -0.0989 -0.2111
65708W        W 3202  14.100  31.584   4.264  0.0956 -0.1247 -0.2556
65709W        W 3203   1.939   7.355  15.385  0.3571  0.4059 -0.3367
65710W        W 3204  15.433  27.982   4.783  0.0936  0.2041 -0.0506
65711W        W 3205  34.356  10.835   0.001 -0.2834 -0.1434 -0.1427
65712W        W 3206  15.882  24.687  13.623 -0.0021  0.2378  0.0212
65713W        W 3207  35.197  12.407  22.264  0.3513  0.0570 -0.1019
65714W        W 3208  11.448  22.318   5.217  0.0142 -0.0879 -0.1095
65715W        W 3209  31.249  13.246  18.618 -0.0003 -0.5259 -0.4776
65716W        W 3210  21.677  34.794  23.422 -0.1671 -0.2060 -0.1497
65717W        W 3211  21.825   9.701  19.298 -0.1168 -0.0545 -0.1771
65718W        W 3212  30.144  10.197  21.513  0.0151  0.1775  0.1825
65719W        W 3213  21.383   9.549  25.520  0.1646  0.2494 -0.1743
65720W        W 3214  23.366  28.920   4.989 -0.0274 -0.2582  0.1669
65721W        W 3215  27.898   6.387  14.095 -0.1691 -0.0830  0.1839
65722W        W 3216  30.761  27.456  22.993  0.1731  0.1800 -0.2114
65723W        W 3217  21.766   9.434  22.563 -0.4480 -0.1321 -0.2009
65724W        W 3218  12.241  18.417   6.193 -0.0014  0.2342 -0.2452
65725W        W 3219  13.100  22.867   6.634  0.1481  0.3616  0.3072
65726W        W 3220  28.458  16.769   9.537  0.2052  0.2371  0.0847
65727W        W 3221  18.479  25.006   1.163 -0.0551 -0.0280 -0.2678
65728W        W 3222   8.257  21.087  10.358  0.1683 -0.3683 -0.1005
65729W        W 3223  10.754  20.149  10.639 -0.2671  0.1605 -0.1160
65730W        W 3224  18.051  22.213  23.692  0.1665 -0.0696 -0.3727
65731W        W 3225  15.253  24.004  23.936  0.4838 -0.0386  0.1506
65732W        W 3226  34.689  25.299  19.885 -0.1856 -0.3303 -0.0884
65733W        W 3227   2.293  18.378  12.831  0.0440 -0.2944 -0.4603
65734W        W 3228   0.403  21.945  15.816 -0.3746  0.0634 -0.6328
65735W        W 3229   4.013  11.653  22.604  0.0361 -0.3585 -0.0890
65736W        W 3230  31.203  17.297  13.190 -0.1110  0.2239  0.0157
65737W        W 3231  21.161  12.338   3.691 -0.1724 -0.0127 -0.3859
65738W        W 3232  28.359  14.929  13.246 -0.0745 -0.1795  0.2041
65739W        W 3233   3.916  35.199   6.771  0.0167 -0.0162  0.4843
65740W        W 3234  23.879  11.734  20.022 -0.0320  0.1380 -0.3398
65741W        W 3235   4.619  28.065  13.251  0.0408  0.2176 -0.3264
65742W        W 3236  12.998  12.777  19.200  0.1961 -0.0502 -0.0275
65743W        W 3237  25.673  23.671  14.990 -0.0193 -0.0796 -0.0265
65744W        W 3238   7.416   1.601  10.603 -0.1823 -0.0553 -0.4220
65745W        W 3239  25.851  16.522   7.739 -0.0956  0.2761  0.1238
65746W        W 3240  11.510  14.373  24.859  0.0566  0.2454 -0.2089
65747W        W 3241  16.588  31.928  22.454 -0.0267  0.2291  0.1596
65748W        W 3242  30.065  15.359   5.864 -0.0966  0.0701  0.0031
65749W        W 3243  14.851  15.304  11.487 -0.0768 -0.0771 -0.0529
65750W        W 3244   2.925  34.786  20.810 -0.2662  0.3418 -0.0422
65751W        W 3245  33.723  32.304  21.625 -0.0892 -0.2135 -0.0847
65752W        W 3246  29.360   4.597  24.185  0.0072 -0.2760 -0.1025
65753W        W 3247  30.840  12.223  23.755 -0.0101 -0.2656  0.6251
65754W        W 3248  31.621   5.487  15.596  0.0028  0.2276 -0.2067
65755W        W 3249   1.580  22.138  23.231 -0.2257 -0.0873 -0.0438
65756W        W 3250  11.884  19.901  23.703 -0.0413  0.0570  0.1409
65757W        W 3251  27.817  19.272  11.997  0.0571 -0.1371  0.1258
65758W        W 3252  34.229  13.927  17.763 -0.1944 -0.0974 -0.0131
65759W        W 3253  29.579  18.045  16.229  0.3822  0.0453  0.1905
65760W        W 3254  32.167   5.119  24.520  0.1663  0.2039 -0.3367
65761W        W 3255  25.751  17.882  18.900 -0.0781  0.0161 -0.0594
65762W        W 3256  10.883  14.867   4.167  0.0309 -0.3508  0.1378
65763W        W 3257  24.824  16.921  21.991  0.0028  0.1300 -0.0563
65764W        W 3258  13.497  17.134  25.216 -0.2277 -0.2697 -0.2225
65765W        W 3259  10.818  30.933   5.019  0.3094  0.0555 -0.0336
65766W        W 3260  34.738  12.491  22.046 -0.3054 -0.1913 -0.1131
65767W        W 3261  24.142  10.361   1.379 -0.4471 -0.0974 -0.1658
65768W        W 3262  31.905  11.940  21.959  0.0543  0.0528  0.2319
65769W        W 3263  29.834  30.052  22.386  0.2462  0.1405 -0.5972
65770W        W 3264  12.814  35.048  12.856  0.1493  0.0663  0.0236
65771W        W 3265  25.409  11.742  17.684  0.1303  0.0028  0.2396
65772W        W 3266  30.624  19.527  23.368  0.1300 -0.0448 -0.0729
65773W        W 3267  22.806  29.913  17.892  0.0022 -0.0782  0.2593
65774W        W 3268  25.913  10.988  25.493 -0.0193  0.0530 -0.0088
65775W        W 3269  18.885  13.317   3.890 -0.2837  0.0903 -0.0569
65776W        W 3270  31.895   2.216   0.018 -0.0597  0.0817  0.1538
65777W        W 3271  29.983   0.539   2.328 -0.1473  0.0786  0.1086
65778W        W 3272  33.217  12.318  23.044  0.1831  0.0728 -0.0149
65779W        W 3273  30.994  25.183  24.190 -0.1075 -0.0769  0.1541
65780W        W 3274  17.427  18.268  20.723  0.2682  0.0950  0.1952
65781W        W 3275   2.112  32.985  24.861 -0.0225 -0.3614  0.2094
65782W        W 3276  14.007  16.092  12.184  0.1295  0.0333 -0.0841
65783W        W 3277  29.018  25.945  15.649 -0.4011 -0.2135  0.0162
65784W        W 3278   5.551  32.265  24.988 -0.1164  0.0248 -0.0659
65785W        W 3279  19.744  25.601   6.417 -0.0881  0.0376  0.0095
65786W        W 3280  23.573   3.518  19.238 -0.0854 -0.0889 -0.1396
65787W        W 3281   9.907  17.339  26.021 -0.1175  0.4690  0.2019
65788W        W 3282  16.973  16.359   1.981  0.0855  0.2048  0.3153
65789W        W 3283  14.550  34.205  22.228 -0.1702  0.1824 -0.3960
65790W        W 3284  13.631  33.125   0.887 -0.1324  0.1363  0.2098
65791W        W 3285  25.873  12.380   8.890  0.1832 -0.0255 -0.1847
65792W        W 3286   3.861   8.870   7.501  0.1069  0.1378  0.1323
65793W        W 3287   5.946  33.654   9.327  0.1235  0.3120  0.1955
65794W        W 3288  10.855  25.794  15.888  0.4487 -0.3702  0.3755
65795W        W 3289  23.871  28.495  12.208 -0.1131 -0.2025  0.0857
65796W        W 3290  33.325  20.041  14.089 -0.1622 -0.1479  0.0262
65797W        W 3291  33.204  31.705  13.259 -0.0685 -0.1376 -0.0927
65798W        W 3292   9.435  19.837  14.774  0.0741  0.2579  0.0409
65799W        W 3293  18.400   8.399  18.019  0.2120 -0.0966 -0.0656
65800W        W 3294  12.178  30.267  13.614 -0.3589 -0.0758 -0.1044
65801W        W 3295  15.728  25.694   7.165 -0.1324  0.2386 -0.1459
65802W        W 3296  14.070   0.000   3.864 -0.1090 -0.0425  0.1192
65803W        W 3297  21.261  27.985  26.097  0.1982  0.1198 -0.0108
65804W        W 3298  12.973   2.364  13.032  0.0185 -0.0574 -0.1369
65805W        W 3299  11.102   7.333   1.231  0.1464  0.1604  0.0665
65806W        W 3300  15.773   7.501  19.260 -0.1593  0.2017  0.1460
65807W        W 3301   8.344  32.239   3.927  0.2839  0.2359 -0.2733
65808W        W 3302   4.391  26.838  20.502  0.1722  0.2616 -0.1251
65809W        W 3303  26.727  19.153  14.194 -0.0222 -0.2552 -0.2288
65810W        W 3304  33.228   3.430  12.266 -0.0493  0.1905  0.2637
65811W        W 3305  11.655  30.731  22.874  0.1090  0.0204 -0.1227
65812W        W 3306  31.261  23.363  17.831  0.1185 -0.2588  0.2381
65813W        W 3307   3.947  11.162  15.283  0.1431 -0.1015  0.0286
65814W        W 3308  13.842  10.566  12.857 -0.0080 -0.1442  0.1562
65815W        W 3309  28.803   3.823  20.284  0.0392 -0.1810 -0.0584
65816W        W 3310  27.948  34.537  17.973  0.1295 -0.1297 -0.0769
65817W        W 3311   1.058  35.350   8.739 -0.0437 -0.0756  0.2216
65818W        W 3312  34.688   7.085  19.527  0.1638  0.0616  0.1292
65819W        W 3313  26.265   3.086   0.883 -0.0540 -0.0260  0.2020
65820W        W 3314  33.014  26.103  14.521  0.3370  0.1600  0.2057
65821W        W 3315  14.048  12.998  23.168 -0.4861  0.0407 -0.0034
65822W        W 3316  30.602   4.378  17.962 -0.3065 -0.1580 -0.1701
65823W        W 3317  16.742  19.250   3.054  0.1321  0.2489 -0.4724
65824W        W 3318  18.032  22.631   1.422 -0.0848  0.0055 -0.0192
65825W        W 3319  24.479   7.889  13.964  0.1131  0.2809 -0.1401
65826W        W 3320  15.883  31.164   5.086  0.3043 -0.2253 -0.1211
65827W        W 3321  27.932  33.438  12.365  0.0380 -0.1214  0.2264
65828W        W 3322  22.557  33.920  13.555 -0.1286  0.1586  0.2414
65829W        W 3323  24.409  28.424  12.378  0.2762  0.3896  0.0845
65830W        W 3324  17.220  33.570  10.677  0.3348 -0.0221 -0.1248
65831W        W 3325   0.655  21.500   9.793 -0.0715 -0.1559 -0.1064
65832W        W 3326  23.458   0.769   6.190  0.1546 -0.2047 -0.0206
65833W        W 3327  14.186  30.246   9.343  0.3425 -0.4759 -0.0093
65834W        W 3328  23.648   3.050   1.287 -0.1183 -0.1074  0.0128
65835W        W 3329   8.899  12.804  19.984 -0.0830  0.1936  0.3079
65836W        W 3330   6.619  14.283   7.180 -0.0195 -0.1042  0.3585
65837W        W 3331  31.663  31.511  18.816  0.1228  0.0383 -0.2602
65838W        W 3332  21.410   1.262   7.073 -0.1035 -0.1555 -0.0780
65839W        W 3333  25.256  33.438  14.446  0.3132  0.2288 -0.0790
65840W        W 3334   9.967  29.764  12.975 -0.1634  0.5124 -0.2928
65841W        W 3335  12.753   5.575  19.327 -0.1847  0.2164 -0.1441
65842W        W 3336  12.975  15.964   3.748  0.1962 -0.1517 -0.2851
65843W        W 3337  15.490   5.595  17.136 -0.1279  0.0687 -0.2510
65844W        W 3338  21.080   7.534   1.067 -0.0510 -0.2057 -0.0842
65845W        W 3339  27.019  24.788  21.634  0.0632 -0.3248  0.1090
65846W        W 3340  31.727  18.237  24.197 -0.0820 -0.1836 -0.1532
65847W        W 3341   6.278  25.929  20.379  0.1514  0.0936 -0.2436
65848W        W 3342  25.258  32.502  15.474  0.0374  0.1716  0.4008
65849W        W 3343   4.753  28.133  11.282 -0.1280 -0.1789 -0.1224
65850W        W 3344   0.254   9.160  11.676  0.5161  0.0300 -0.0987
65851W        W 3345  34.826  19.817  19.632 -0.1264 -0.1061  0.0244
65852W        W 3346  24.017  28.225  13.538 -0.1306  0.1873  0.0897
65853W        W 3347  21.633  16.810  20.972 -0.0227 -0.0182 -0.3670
65854W        W 3348  22.124  11.945   4.506 -0.1633  0.4898  0.0544
65855W        W 3349   3.222  14.638  26.234 -0.3245  0.1767  0.0501
65856W        W 3350  30.528   6.622   2.401 -0.0788 -0.1937 -0.0044
65857W        W 3351  19.424  24.728  24.245  0.0861  0.2244 -0.0418
65858W        W 3352   8.552   9.097   1.299 -0.1440  0.1350 -0.0534
65859W        W 3353  30.599  34.081   1.651  0.3213 -0.0413  0.1132
65860W        W 3354  11.924  35.326  13.298  0.0750  0.1971  0.0514
65861W        W 3355  27.176  21.732  10.018 -0.1933  0.0318 -0.0763
65862W        W 3356   1.037   7.821  19.778  0.0580  0.0809 -0.1725
65863W        W 3357  22.864  19.007  20.597  0.0523 -0.2171  0.4831
65864W        W 3358  30.544  29.481  18.739 -0.0834 -0.1860  0.2246
65865W        W 3359  26.541   6.902  11.044  0.1383  0.2232  0.1213
65866W        W 3360   1.776  34.660   6.992  0.0441 -0.2725 -0.1154
65867W        W 3361  28.091   7.191  11.492  0.1341  0.4545  0.1375
65868W        W 3362   5.012  12.723  20.035 -0.1695  0.1984 -0.0691
65869W        W 3363  29.877  15.855   8.011  0.1296 -0.0964 -0.2517
65870W        W 3364  27.219  10.516  22.364  0.1416 -0.0072  0.2629
65871W        W 3365   4.020  23.087   3.444  0.0209 -0.2101  0.0789
65872W        W 3366   5.787  28.865   8.791 -0.2358 -0.0564  0.1197
65873W        W 3367  25.148  13.628  11.850 -0.2086 -0.0683  0.0678
65874W        W 3368  13.452   1.500  19.318  0.1455 -0.0865  0.0501
65875W        W 3369  10.749  10.752  22.772  0.0273 -0.1905 -0.1379
65876W        W 3370  11.961  30.549   4.210  0.1382  0.2074 -0.2518
65877W        W 3371   0.714   9.627  26.196 -0.0359  0.0558 -0.1411
65878W        W 3372  16.992  26.989   2.826 -0.3513 -0.0374 -0.0568
65879W        W 3373  11.346  24.760   9.629 -0.0726  0.3505 -0.1097
65880W        W 3374   6.099  20.757  23.347  0.0227  0.0278  0.1521
65881W        W 3375  17.054  10.263   5.950  0.2800 -0.3039 -0.1935
65882W        W 3376  33.302  34.801  24.592  0.1329  0.0422  0.1652
65883W        W 3377  17.438   1.124   4.564  0.0916 -0.3018 -0.0553
65884W        W 3378   2.908   3.156   5.200 -0.1984 -0.0687  0.2299
65885W        W 3379  20.938  33.287   6.143 -0.1690 -0.0830 -0.2940
65886W        W 3380   5.202  35.383   3.962  0.1551  0.1599  0.3963
65887W        W 3381   0.650  34.878  24.385  0.1378 -0.1866 -0.0733
65888W        W 3382  29.953  15.039  17.432  0.1897  0.4021 -0.1483
65889W        W 3383  14.264  17.596  22.120 -0.1252 -0.3928 -0.3481
65890W        W 3384  12.981  17.321  19.530 -0.1068 -0.1359  0.0761
65891W        W 3385  22.977  13.446  15.432 -0.1595  0.1849  0.3553
65892W        W 3386  11.342  11.942  13.312  0.0621 -0.0154 -0.1461
65893W        W 3387  33.438  14.258  11.674  0.1355 -0.2583 -0.1237
65894W        W 3388  28.978  30.851   1.903  0.1178  0.2523  0.2429
65895W        W 3389  20.283  29.702  20.376  0.0840 -0.1695 -0.2464
65896W        W 3390  10.873  18.822   4.142  0.1316  0.0697 -0.1194
65897W        W 3391   8.028  19.965   3.130  0.0788  0.2221  0.1504
65898W        W 3392  31.050  17.530  17.437  0.3971  0.1876  0.3213
65899W        W 3393  22.170  34.242  20.116  0.1255  0.1679 -0.2693
65900W        W 3394  13.030  13.427  12.719  0.0010 -0.2478  0.4572
65901W        W 3395  14.573  31.881   4.489  0.2327 -0.1749 -0.0218
65902W        W 3396  25.759   7.763  24.027 -0.0056 -0.0768  0.3142
65903W        W 3397  33.454  28.437   2.865 -0.0056  0.1836  0.0733
65904W        W 3398  27.369  15.285  14.826  0.1892 -0.0231  0.1852
65905W        W 3399  22.580  19.382  17.984 -0.1194  0.2143 -0.0892
65906W        W 3400   0.182  35.343   2.104  0.0441 -0.1032  0.1607
65907W        W 3401  33.945  32.620  14.217 -0.0464  0.3970 -0.2399
65908W        W 3402  24.661  13.750  19.098 -0.0127 -0.2055 -0.1209
65909W        W 3403   3.952  14.258  24.894 -0.2008  0.0732 -0.2999
65910W        W 3404  23.780   3.740  12.534  0.0538 -0.0214 -0.1653
65911W        W 3405   9.436  32.088   3.037 -0.0027 -0.0957 -0.1923
65912W        W 3406  22.571   2.578  23.940 -0.0680  0.0675  0.1832
65913W        W 3407   7.439  15.774  22.979  0.0915 -0.2475 -0.0805
65914W        W 3408  12.839  17.880   7.948 -0.2232 -0.0199  0.3118
65915W        W 3409  14.024  29.713   7.806  0.1603 -0.1540 -0.1503
65916W        W 3410  35.150   7.334  22.751  0.1038 -0.3810 -0.2964
65917W        W 3411  27.284  19.806  15.732  0.0616  0.0166  0.0563
65918W        W 3412  14.726   8.847   4.427  0.3882 -0.1383  0.1455
65919W        W 3413  18.465   2.235  16.929 -0.0192  0.1737  0.0322
65920W        W 3414   8.189  23.791   8.253  0.0904 -0.2516 -0.1798
65921W        W 3415  24.546  33.865   6.489  0.0606 -0.0847  0.1298
65922W        W 3416  24.342  29.065  23.178 -0.1669  0.1627 -0.3952
65923W        W 3417  16.449   4.852   9.791 -0.3571 -0.1311 -0.0272
65924W        W 3418  21.953   6.892  18.905 -0.3646  0.2678  0.1424
65925W        W 3419   0.697  10.779  24.902 -0.1856  0.0744 -0.0015
65926W        W 3420  11.892   0.210  21.488  0.0771  0.0160 -0.1840
65927W        W 3421  21.746   4.172   1.354 -0.3130 -0.0378  0.1263
65928W        W 3422  29.661  15.653  15.555  0.1466  0.1456 -0.0007
65929W        W 3423   6.074  33.558  11.269  0.0483  0.1363  0.3470
65930W        W 3424  23.018  22.458   0.900 -0.2562 -0.4325  0.2445
65931W        W 3425   3.329   5.970  18.128 -0.0025  0.0276  0.0884
65932W        W 3426   1.000  18.335  12.031 -0.0901  0.0733  0.1429
65933W        W 3427  20.259  33.823  25.588  0.0941  0.1474 -0.1530
65934W        W 3428   1.579  21.014  12.558  0.0839 -0.1238 -0.0597
65935W        W 3429   3.954  16.056   5.811 -0.3946 -0.2842 -0.3415
65936W        W 3430  15.060  31.717  10.168 -0.2668  0.2227  0.2261
65937W        W 3431  20.962  17.639   1.841 -0.3247 -0.1270 -0.1781
65938W        W 3432  21.609  28.397   0.673  0.0385 -0.0898  0.1367
65939W        W 3433   3.261  22.566  19.138  0.1506 -0.1295 -0.0058
65940W        W 3434  24.569  33.608  11.169  0.1239  0.0410  0.0352
65941W        W 3435  34.389  29.025  19.105 -0.0247  0.0396  0.0161
65942W        W 3436  34.661  17.559  18.654  0.2662  0.2296 -0.2421
65943W        W 3437  19.533  35.067   7.438 -0.1172  0.1542 -0.1740
65944W        W 3438  10.419  23.531   9.150 -0.0496  0.1427  0.1898
65945W        W 3439  19.574  11.505  21.688  0.1837  0.1096  0.1322
65946W        W 3440  22.697  19.517  24.692 -0.1427  0.2663  0.2016
65947W        W 3441  18.673  19.205   9.505  0.0483  0.0401  0.1471
65948W        W 3442  33.071  21.046  17.576 -0.1640  0.0413 -0.0236
65949W        W 3443  12.177  33.713   4.917  0.0144  0.2520  0.0553
65950W        W 3444  31.836  15.056   1.042 -0.2398  0.1136 -0.0299
65951W        W 3445  30.277  33.639   0.758  0.0861 -0.0162  0.0593
65952W        W 3446   7.431   0.686   4.708 -0.1819  0.0449  0.1191
65953W        W 3447  12.927  12.316   9.367 -0.0844  0.1644  0.4966
65954W        W 3448  18.577   0.066  16.776 -0.0273  0.0574 -0.0730
65955W        W 3449  24.610  12.107  16.375  0.0107 -0.1052  0.3373
65956W        W 3450  33.027  21.904   6.781 -0.1042 -0.0964 -0.1144
65957W        W 3451   5.624   7.722   2.212  0.2124  0.2095 -0.1234
65958W        W 3452   2.715  31.259  20.371  0.0676 -0.2158 -0.2243
65959W        W 3453  17.766   0.733   8.280  0.3965  0.1339  0.1166
65960W        W 3454   2.202   4.527   6.802  0.0824 -0.2901 -0.2034
65961W        W 3455   0.540  17.847   9.327  0.1918 -0.4928  0.0356
65962W        W 3456  21.174  28.140   4.686 -0.0478 -0.1738 -0.1927
65963W        W 3457   0.102  15.505  13.837  0.2720  0.2975  0.3168
65964W        W 3458  17.234   6.204  10.170 -0.1488 -0.1122 -0.2674
65965W        W 3459  27.749  18.040  19.153  0.2957  0.1022  0.1714
65966W        W 3460  21.211  23.559   4.655 -0.3095  0.4007 -0.3518
65967W        W 3461  19.238   6.128  23.286  0.2376 -0.1445 -0.0949
65968W        W 3462   6.028   8.624  22.863  0.1191 -0.1295  0.0245
65969W        W 3463  12.947  20.921   9.043 -0.0607  0.2534 -0.2142
65970W        W 3464  25.023  33.989  24.999  0.0223 -0.3396  0.2113
65971W        W 3465  26.571  11.555   7.126 -0.1887 -0.1299 -0.2752
65972W        W 3466   9.385  15.078   4.320 -0.1047  0.2215 -0.1248
65973W        W 3467  18.874   9.496  13.081  0.0005  0.3098 -0.3352
65974W        W 3468  15.313  31.560   6.044 -0.1923  0.1155 -0.1371
65975W        W 3469   2.456  35.094   2.783 -0.1772 -0.1200  0.0369
65976W        W 3470  29.107  28.599  22.121  0.1692  0.0067 -0.2704
65977W        W 3471  18.401   8.492   4.337 -0.0451 -0.1597  0.2195
65978W        W 3472  27.539   7.289  13.410 -0.0332 -0.1381  0.2827
65979W        W 3473  32.149  35.018   1.294 -0.2751  0.0170 -0.1764
65980W        W 3474  25.917  20.470  24.240  0.0363  0.0377  0.0690
65981W        W 3475  35.370  19.444   9.168 -0.0824  0.0078 -0.2819
65982W        W 3476  11.813   9.414  23.967 -0.0201 -0.1450 -0.1196
65983W        W 3477   2.539  27.841   7.742 -0.0008 -0.1971  0.3541
65984W        W 3478   3.515   7.282  24.131 -0.0084 -0.1722 -0.2886
65985W        W 3479  18.883   8.663   8.031  0.2012  0.0057  0.1166
65986W        W 3480   6.691   1.294  23.561  0.0933  0.2498 -0.0051
65987W        W 3481  27.690  18.482  16.609  0.0803  0.0042 -0.2529
65988W        W 3482  20.565  13.429   0.573 -0.0322 -0.1957  0.0603
65989W        W 3483  12.422  30.626  11.802  0.1615  0.0564 -0.1862
65990W        W 3484   7.242   9.419   0.295 -0.3425  0.0156  0.0340
65991W        W 3485   1.277  14.945  25.652 -0.0508 -0.2280  0.0146
65992W        W 3486  33.023  10.609  13.062 -0.3680 -0.1830  0.2410
65993W        W 3487   6.938  13.814   9.584  0.2625 -0.1016  0.2376
65994W        W 3488  18.835  14.773   8.506  0.1055  0.2316 -0.3258
65995W        W 3489  26.977   9.398  11.226  0.1869 -0.1407  0.0111
65996W        W 3490  29.521   1.030  11.052  0.2311 -0.0909  0.1551
65997W        W 3491  32.390  24.673  17.005 -0.1839  0.0690 -0.0385
65998W        W 3492  26.489  23.525  22.311 -0.2558  0.2074  0.0873
65999W        W 3493  33.473  12.562  14.203  0.0369  0.1659 -0.0706
66000W        W 3494   6.743  11.039  23.250 -0.2635  0.3085 -0.1894
66001W        W 3495  26.792  34.961  25.260 -0.2246 -0.2493 -0.1094
66002W        W 3496  32.977  19.033   9.451 -0.1466 -0.1769  0.3997
66003W        W 3497  34.295  29.276  26.109 -0.0223 -0.2451  0.0282
66004W        W 3498  24.098  32.200  24.309  0.2698  0.2482  0.1337
66005W        W 3499  32.407  31.282  17.053 -0.0804 -0.0104 -0.1144
66006W        W 3500  20.897  20.394  17.018 -0.1754  0.2072  0.0862
66007W        W 3501  10.514  33.116   9.988  0.1069 -0.0318  0.1834
66008W        W 3502  13.813  10.621  18.844 -0.1292 -0.1414 -0.1048
66009W        W 3503   6.678  11.227   9.044 -0.0686 -0.4715  0.2872
66010W        W 3504  35.037  26.944  17.232  0.0279 -0.1964  0.1398
66011W        W 3505  26.465   5.455  23.137 -0.0849  0.0685 -0.2037
66012W        W 3506  31.745  20.036   5.172  0.0725 -0.1158  0.1576
66013W        W 3507  17.503  14.283   6.013  0.3587 -0.0712  0.0059
66014W        W 3508  33.723  11.881  19.841  0.0842 -0.0974 -0.0112
66015W        W 3509   0.618   0.362   3.979  0.0502 -0.0273 -0.1819
66016W        W 3510   2.958  17.348   3.386 -0.1962  0.0297  0.0802
66017W        W 3511   5.154  12.530  24.404  0.1945  0.2047 -0.1211
66018W        W 3512  27.150  26.471  25.525 -0.0240  0.1511 -0.0375
66019W        W 3513  25.998   0.233   1.482 -0.1449  0.2402  0.3648
66020W        W 3514   0.369  28.090   3.679  0.1522  0.1654 -0.1608
66021W        W 3515   3.902  25.756   3.251  0.0493  0.1712 -0.3122
66022W        W 3516  27.368  10.944  10.270 -0.0595  0.0449  0.0422
66023W        W 3517  18.870  10.804  24.551 -0.0663 -0.5531 -0.1254
66024W        W 3518  19.192  34.922   2.092  0.1716  0.4064 -0.0242
66025W        W 3519  13.003  24.262  12.286  0.0631  0.0933  0.1514
66026W        W 3520  19.923  25.585  24.070  0.1316  0.0481 -0.4101
66027W        W 3521  17.403  23.777  14.061  0.2270 -0.3923 -0.0301
66028W        W 3522   6.785  27.600  20.967 -0.0345  0.0431 -0.0808
66029W        W 3523  13.852  31.795  21.752 -0.2120 -0.1155 -0.0426
66030W        W 3524  34.749  32.926   5.501  0.0693 -0.2734  0.2109
66031W        W 3525   3.552  20.510  20.713  0.0033 -0.1915  0.2271
66032W        W 3526  29.030  11.473  12.725  0.0024  0.0407  0.0489
66033W        W 3527   7.231  14.983   0.932  0.2069 -0.1488 -0.1590
66034W        W 3528  31.829  32.516  14.131 -0.2675  0.2353  0.0095
66035W        W 3529  29.947  25.745   9.769  0.2659 -0.2266 -0.0746
66036W        W 3530  15.055  10.318  19.806  0.3757 -0.0583  0.3244
66037W        W 3531  35.159  10.961  13.265  0.1394  0.0878 -0.0102
66038W        W 3532  15.608   1.791   9.877  0.4809  0.0356 -0.0207
66039W        W 3533   4.769  12.866   6.669  0.1406 -0.1926 -0.0547
66040W        W 3534  28.919  19.921   5.289 -0.2635 -0.0927  0.0788
66041W        W 3535  34.371   2.292  19.812 -0.1720  0.0528  0.0550
66042W        W 3536  18.107   8.671  22.975  0.0249  0.0147  0.0223
66043W        W 3537  15.909  23.668  12.139  0.0993 -0.1024 -0.1968
66044W        W 3538   9.755  15.415  12.680 -0.0563  0.1342  0.2304
66045W        W 3539  23.803   2.790  14.844  0.0713 -0.3929 -0.1877
66046W        W 3540   3.553   0.742  21.148 -0.0120 -0.0915  0.2188
66047W        W 3541  26.367  21.787  18.031  0.0196  0.0423 -0.2138
66048W        W 3542  22.063   2.219   4.651  0.1039  0.0875  0.1953
66049W        W 3543  29.372  27.464   1.251  0.0072 -0.1051  0.0447
66050W        W 3544  22.842   5.353   3.404 -0.1690  0.3994 -0.2112
66051W        W 3545  20.940  17.823   0.701  0.1317  0.1835 -0.0636
66052W        W 3546   4.841   9.441   0.405 -0.0497 -0.1770  0.0523
66053W        W 3547  23.720  33.599  19.091  0.0727  0.1486 -0.2311
66054W        W 3548   0.639  20.813  10.241 -0.2047 -0.0098 -0.5341
66055W        W 3549  28.099  33.799  16.808 -0.0563 -0.2469 -0.0523
66056W        W 3550  25.706  31.890   0.692  0.0084 -0.0754 -0.0697
66057W        W 3551  26.160  27.012  24.528 -0.1644 -0.0747  0.2140
66058W        W 3552   0.927  28.673  23.362 -0.0763 -0.1619 -0.0691
66059W        W 3553   5.689   8.841   3.550 -0.0737 -0.1742  0.1858
66060W        W 3554   1.165  28.902  25.921 -0.2729  0.2414  0.1151
66061W        W 3555  10.239  35.073  24.966 -0.1481  0.1823 -0.2737
66062W        W 3556   8.026  19.633  25.359 -0.1012 -0.1180 -0.0538
66063W        W 3557  11.155  33.529   6.081  0.0522  0.1396 -0.3470
66064W        W 3558   2.431   4.191  24.426 -0.0978  0.1543  0.0520
66065W        W 3559  25.337  11.833  10.798  0.0596  0.4621  0.0895
66066W        W 3560  34.524  11.213  11.109  0.0145  0.0705 -0.2906
66067W        W 3561  19.486   7.617  21.617 -0.0386 -0.1601 -0.0104
66068W        W 3562  21.055   6.486  17.371  0.0935  0.0460 -0.1046
66069W        W 3563  34.322  29.803   2.733 -0.1014 -0.1294 -0.0395
66070W        W 3564  11.278  18.949   9.279 -0.0018 -0.3484 -0.1118
66071W        W 3565  26.176  17.450   7.812 -0.0402 -0.1421  0.1229
66072W        W 3566  12.193   1.113   6.253 -0.2396  0.0808 -0.0983
66073W        W 3567  20.403  33.505  26.154  0.0958  0.0841  0.3439
66074W        W 3568  14.708  16.736  23.727  0.2134  0.2900  0.0186
66075W        W 3569  13.393   9.212  11.758  0.0608 -0.1361  0.0294
66076W        W 3570   4.204   9.683   0.941  0.2332 -0.1626 -0.1454
66077W        W 3571   5.369  28.413   4.287  0.1215  0.1017  0.2229
66078W        W 3572   5.965  33.700  13.895  0.1437  0.0791 -0.0926
66079W        W 3573  10.911  33.668  25.782 -0.0545  0.0008 -0.3496
66080W        W 3574   7.648  29.446  11.539  0.0093 -0.1116 -0.0789
66081W        W 3575  30.845  25.669  20.589 -0.1323  0.1178  0.1454
66082W        W 3576  17.623  13.966   2.943  0.0147 -0.0107 -0.4471
66083W        W 3577   9.135  26.763   6.426  0.3906  0.1407 -0.0572
66084W        W 3578  12.109  11.209   8.389  0.2453 -0.0275  0.1318
66085W        W 3579  28.517   3.304   6.019  0.5179  0.3983  0.3890
66086W        W 3580  17.993  11.525  25.238  0.4099  0.3840 -0.1796
66087W        W 3581  25.286   7.221  21.215  0.3930 -0.1074  0.0355
66088W        W 3582   3.610  34.482   3.107 -0.1552  0.0742 -0.0575
66089W        W 3583  16.916  26.584   5.457 -0.2764 -0.1812 -0.1179
66090W        W 3584  11.053  30.079   8.333 -0.3300  0.4429  0.1036
66091W        W 3585  12.226  32.680   4.243  0.0483 -0.1871 -0.3463
66092W        W 3586  29.894  16.164  18.144 -0.1353  0.1632 -0.4166
66093W        W 3587  35.034   1.868  23.089 -0.0422  0.1314 -0.0472
66094W        W 3588   0.188   1.959  15.115  0.0782 -0.2363  0.2074
66095W        W 3589   8.285  11.034  10.537  0.2230  0.0967 -0.4092
66096W        W 3590  13.468   6.548  12.176  0.2054 -0.1504 -0.1956
66097W        W 3591  28.462  28.356  18.839 -0.1003 -0.1533 -0.0742
66098W        W 3592  19.199  31.606  17.940 -0.0632 -0.1144  0.1267
66099W        W 3593  14.970  21.956   8.471 -0.3342 -0.0793  0.1294
66100W        W 3594  29.483   1.616  11.853  0.0999  0.2196  0.2745
66101W        W 3595  21.951  11.197  21.961 -0.0049  0.0126  0.4348
66102W        W 3596  11.395  29.163   6.045  0.2885 -0.0409  0.3018
66103W        W 3597  19.114   6.825   8.421 -0.3281  0.1156 -0.0018
66104W        W 3598  10.718  15.121  25.506  0.2387 -0.1405  0.0297
66105W        W 3599   2.187  33.987  18.269  0.1088  0.1170  0.0226
66106W        W 3600  32.487  29.514  14.497 -0.2294 -0.0653  0.3372
66107W        W 3601  31.470   1.644  21.105  0.1818  0.1756 -0.0653
66108W        W 3602   9.549   7.575  20.567  0.1105  0.3281 -0.1009
66109W        W 3603  29.333  13.281   8.419 -0.1992 -0.0567  0.4509
66110W        W 3604  28.018   5.753  19.449 -0.2788  0.0541 -0.1485
66111W        W 3605   0.367   6.853  22.752 -0.1531  0.1591  0.0394
66112W        W 3606  31.795   6.482   2.810 -0.1704 -0.0697 -0.2663
66113W        W 3607  27.410  15.400  22.902 -0.2781 -0.0644  0.0029
66114W        W 3608  33.043  35.038   7.189 -0.1942  0.0240 -0.4339
66115W        W 3609   1.337  18.714  13.705  0.0259 -0.3162  0.0298
66116W        W 3610  29.683   5.447  17.729  0.1134 -0.1680 -0.3640
66117W        W 3611  13.966  25.614   4.686 -0.2274  0.2253 -0.0080
66118W        W 3612   7.507  31.688  14.657 -0.3069 -0.1031  0.1009
66119W        W 3613  19.632  28.328   7.675  0.0960 -0.1674 -0.0092
66120W        W 3614  27.234  28.413  19.123  0.4126 -0.1956  0.0722
66121W        W 3615   5.131  21.378  19.373  0.1378  0.0824 -0.0834
66122W        W 3616  29.921   4.477  10.934  0.0813 -0.2104 -0.1967
66123W        W 3617   0.626   9.319  15.502 -0.0892  0.0867  0.0847
66124W        W 3618  24.932  19.576   0.679  0.0615 -0.0707 -0.0594
66125W        W 3619  30.020  26.485  11.158  0.0986  0.2488 -0.2071
66126W        W 3620   4.238  26.761   1.284 -0.1291  0.1852 -0.0132
66127W        W 3621  15.863   7.142   3.065  0.0963  0.1381 -0.0233
66128W        W 3622  12.848  23.770   8.995  0.0161 -0.1023 -0.3867
66129W        W 3623  35.110  35.334  16.551 -0.1057 -0.0337 -0.3236
66130W        W 3624  28.642  25.004  23.357 -0.1065 -0.0355 -0.0478
66131W        W 3625  23.098  20.386  20.416 -0.0560  0.0308  0.1316
66132W        W 3626  11.032  23.707  15.157  0.1646 -0.1189 -0.0665
66133W        W 3627   8.031   2.854   9.771  0.2412 -0.1388  0.3229
66134W        W 3628  10.702   1.346  24.525  0.1920 -0.1049  0.0362
66135W        W 3629  33.611  18.897  10.380  0.3988 -0.2801  0.1963
66136W        W 3630  34.155  27.148   1.045  0.1250  0.0837  0.0025
66137W        W 3631   1.309   8.660  11.686  0.0882  0.4282  0.0642
66138W        W 3632  34.452  33.281   0.866  0.0884 -0.1040 -0.2193
66139W        W 3633  13.770  18.209  12.185  0.0495 -0.3044 -0.0178
66140W        W 3634  12.044  20.250   4.151  0.2845 -0.0948  0.1814
66141W        W 3635  14.328  18.874   9.745 -0.1169 -0.1737  0.3804
66142W        W 3636   9.647  25.841   2.499 -0.0492 -0.0695  0.0250
66143W        W 3637   9.643  17.000  11.303 -0.1720 -0.1013 -0.2758
66144W        W 3638   6.883  31.883   2.138 -0.0436 -0.1372 -0.0206
66145W        W 3639  21.245   1.770  19.418  0.1906 -0.2697 -0.0372
66146W        W 3640  12.959  32.516  23.279  0.0436  0.1305  0.0293
66147W        W 3641  32.522  14.967  15.476  0.1716  0.2887  0.0137
66148W        W 3642  16.629  10.149   2.171  0.0919  0.0424  0.0756
66149W        W 3643  24.919  11.888   1.598  0.0589 -0.1040  0.0302
66150W        W 3644  28.068  11.551   9.714  0.0489 -0.0862  0.0805
66151W        W 3645  18.092  10.164  21.181 -0.1927  0.1167 -0.1219
66152W        W 3646   3.113  11.029   3.196 -0.0941  0.2119  0.0686
66153W        W 3647  14.730  24.702   7.686  0.2538  0.2505 -0.1782
66154W        W 3648   6.769  26.658  12.571  0.0999 -0.1338  0.2492
66155W        W 3649  15.006  12.657   1.999 -0.1441 -0.0966  0.4075
66156W        W 3650  26.712  26.986  12.815 -0.0407 -0.1120 -0.1381
66157W        W 3651   7.063   9.312  17.690  0.0714  0.0663  0.0699
66158W        W 3652  25.015   4.830  21.395  0.4071 -0.0162  0.2108
66159W        W 3653  18.002  18.247  24.575  0.0099 -0.0970 -0.1155
66160W        W 3654  34.349   7.356   0.544  0.1233  0.0474  0.0743
66161W        W 3655  35.234  32.990   3.572  0.2117 -0.0620  0.2955
66162W        W 3656  18.714   0.076  23.282 -0.3453  0.1027  0.1058
66163W        W 3657  30.408  23.693  22.867 -0.1080  0.1595 -0.1849
66164W        W 3658   6.109  25.301   7.739  0.0110  0.0106 -0.4077
66165W        W 3659  23.515  16.486  21.343 -0.0576  0.4656 -0.1179
66166W        W 3660  10.484  29.663  12.961 -0.3102  0.1776  0.3235
66167W        W 3661  33.685  22.330  25.238 -0.0937  0.0110 -0.1420
66168W        W 3662   1.836   9.015   3.146 -0.1927 -0.4518  0.1824
66169W        W 3663  34.894  31.930  20.267 -0.1429  0.1107 -0.0411
66170W        W 3664  17.113  12.845  25.094 -0.1856  0.2055 -0.0763
66171W        W 3665  12.860  20.621   2.741 -0.2127 -0.1144  0.0004
66172W        W 3666  25.820  28.768  11.190 -0.1286  0.2694 -0.1855
66173W        W 3667  26.059   4.179  14.890  0.2027 -0.0037  0.2166
66174W        W 3668  15.501  27.741   5.245 -0.2175  0.0206  0.0119
66175W        W 3669  30.573   1.394  15.238  0.0317  0.0101 -0.0312
66176W        W 3670  26.865   2.918  21.983  0.2135 -0.2193  0.1805
66177W        W 3671  18.792  21.670  26.086 -0.1444 -0.1816  0.0117
66178W        W 3672  26.937  18.454   5.927 -0.3659 -0.0844  0.0472
66179W        W 3673  27.391  32.060  18.945 -0.0886  0.1218 -0.1094
66180W        W 3674   3.833  19.823  21.482 -0.3438  0.2367  0.3727
66181W        W 3675   4.002   4.826  17.333 -0.1770 -0.1794  0.1153
66182W        W 3676  16.401  19.500   4.313 -0.4312  0.0889  0.1889
66183W        W 3677  23.767   9.793   2.957  0.0133  0.1541 -0.2054
66184W        W 3678  11.027  13.263  23.956 -0.0231  0.1908 -0.1010
66185W        W 3679  25.569  13.395  19.330 -0.1668 -0.0297 -0.0138
66186W        W 3680  32.887  30.955  24.333  0.0525 -0.1237  0.1707
66187W        W 3681  27.132  31.205  25.983  0.1775 -0.0466 -0.0735
66188W        W 3682  11.981  15.135   7.713 -0.0068  0.2478 -0.0981
66189W        W 3683   3.302  32.490   1.578  0.0199 -0.3664 -0.1648
66190W        W 3684  35.346   0.665   1.811  0.2519  0.0600  0.0882
66191W        W 3685  20.986  24.197  23.523 -0.5161  0.0840 -0.0617
66192W        W 3686  13.895  26.377  14.303 -0.0297  0.1348  0.0075
66193W        W 3687  16.718  13.182   6.443 -0.0542 -0.0537  0.0853
66194W        W 3688  13.971  32.465   1.107  0.0359  0.1798 -0.0061
66195W        W 3689   8.119  19.955   0.783  0.2038  0.2577 -0.1947
66196W        W 3690   9.712  27.879  24.029 -0.2368  0.1118 -0.1659
66197W        W 3691  24.518   3.445   4.302 -0.1263  0.0762 -0.0642
66198W        W 3692  10.886   0.057  25.668  0.2626 -0.1628  0.1348
66199W        W 3693  13.313  17.605   7.893  0.1601 -0.0242  0.1601
66200W        W 3694  28.991  15.761  12.261 -0.0291 -0.0033  0.0103
66201W        W 3695  34.741   7.264  25.397  0.1389  0.1118 -0.2820
66202W        W 3696  16.970  10.511  24.234  0.0912  0.1612 -0.1865
66203W        W 3697   6.689  14.588   6.640  0.2716  0.0891  0.2120
66204W        W 3698  33.743  20.446  16.849  0.1855  0.1829 -0.0460
66205W        W 3699  29.705   1.462  25.810 -0.3638 -0.1811 -0.0141
66206W        W 3700  29.654  19.179  15.719 -0.0361 -0.0238 -0.0120
66207W        W 3701  10.197   6.938  20.924 -0.0324  0.0189  0.0261
66208W        W 3702   2.490  21.185   0.350  0.0913 -0.2116 -0.0947
66209W        W 3703   9.406  11.131   8.334 -0.1109 -0.1718 -0.1850
66210W        W 3704  34.402  26.425  24.909 -0.0673  0.3106  0.1174
66211W        W 3705  18.045  11.177  10.826 -0.1118  0.1533 -0.2600
66212W        W 3706  12.439  28.735   0.639  0.2549  0.3415 -0.3580
66213W        W 3707  27.175  20.398  23.213  0.0550 -0.2695 -0.0150
66214W        W 3708  31.912  13.269   5.892 -0.0312  0.0968 -0.2587
66215W        W 3709  27.102  13.407  12.127 -0.0813  0.1160 -0.2491
66216W        W 3710  21.137  28.124  22.655 -0.0377 -0.1268 -0.1674
66217W        W 3711  25.498  25.173  11.203  0.1885  0.1580 -0.1258
66218W        W 3712  22.030  21.833  22.699  0.3141  0.3002 -0.4625
66219W        W 3713   2.775  23.378   2.213  0.1645 -0.0392  0.1673
66220W        W 3714  10.862  26.375   4.161  0.0445 -0.0009  0.0839
66221W        W 3715  10.398   6.118  13.501 -0.0756 -0.0470  0.0874
66222W        W 3716  20.148  24.255   2.447 -0.2681 -0.2524  0.0766
66223W        W 3717   5.970  24.123  23.516 -0.0099  0.0275 -0.0984
66224W        W 3718   3.698  29.533  23.390 -0.4261  0.0912 -0.0971
66225W        W 3719  28.431  12.784  14.537  0.0895  0.0851  0.0553
66226W        W 3720   7.800  27.961  22.271  0.0853  0.2738 -0.3706
66227W        W 3721   8.642  21.795   4.220  0.1217  0.1771 -0.1448
66228W        W 3722  19.790  34.815   5.857  0.3256 -0.3508 -0.0156
66229W        W 3723  12.128   9.790   4.385  0.3316  0.2121  0.0130
66230W        W 3724  13.594  20.592  10.759  0.2588 -0.0686 -0.3217
66231W        W 3725  11.944  15.758  25.184 -0.3294 -0.2794  0.2520
66232W        W 3726  10.234  21.254  13.097 -0.4006 -0.1540 -0.0263
66233W        W 3727  28.392   3.332  16.244  0.2525 -0.1718 -0.1028
66234W        W 3728   9.617   1.861   7.636  0.2012  0.5418 -0.1260
66235W        W 3729  15.554  13.072   7.806  0.3516  0.0471 -0.0017
66236W        W 3730  10.528  22.956   7.845  0.2566 -0.1758  0.0029
66237W        W 3731  25.703   9.038  11.478  0.1644  0.1553  0.4987
66238W        W 3732  27.668   1.174  17.338  0.2163  0.2025 -0.0914
66239W        W 3733  15.041   8.120  22.012  0.1996  0.0628  0.1859
66240W        W 3734   3.320  23.416   3.722  0.2973  0.2825 -0.2066
66241W        W 3735  25.239  29.964  13.160  0.0024 -0.1373 -0.0906
66242W        W 3736  32.985  17.584  25.706  0.2257 -0.0361  0.1450
66243W        W 3737   0.022  21.585  12.610 -0.1965 -0.1006 -0.0159
66244W        W 3738   6.635  11.663  18.253 -0.1218  0.0481 -0.4170
66245W        W 3739   0.017   3.565  18.797 -0.1246  0.1204  0.0581
66246W        W 3740  15.249  25.870  23.131  0.0653  0.3035 -0.1365
66247W        W 3741  32.465  23.132   8.326  0.3369  0.2073 -0.0983
66248W        W 3742  35.049  33.006  20.521  0.1903 -0.0103  0.3038
66249W        W 3743  15.541  34.452   8.246  0.0055 -0.0998  0.0635
66250W        W 3744  17.451  14.469  23.579  0.0848  0.0662 -0.3520
66251W        W 3745  14.759  33.770  20.223 -0.2693 -0.0557 -0.0879
66252W        W 3746  32.426  26.783  17.085 -0.2743 -0.0597  0.0517
66253W        W 3747  10.540  22.854  15.345 -0.1408 -0.1270  0.3573
66254W        W 3748  10.993  29.297   1.537 -0.0401 -0.2367  0.0839
66255W        W 3749  33.004   1.472  20.899 -0.1156 -0.0412  0.3740
66256W        W 3750  27.322  12.858  14.651  0.1139  0.0168  0.3454
66257W        W 3751  33.123   6.612  16.895 -0.2621 -0.0004 -0.2093
66258W        W 3752  17.510   2.364  20.233  0.0428  0.0637  0.3843
66259W        W 3753  11.057   6.093  13.211 -0.2802  0.0718 -0.1776
66260W        W 3754  20.107   9.395   0.032  0.2884 -0.1177 -0.1799
66261W        W 3755  15.771  35.176   6.164 -0.2250 -0.1612 -0.0553
66262W        W 3756  21.333  29.234  21.899  0.2578 -0.0847 -0.1757
66263W        W 3757  12.674   1.456   0.988 -0.2137 -0.1342 -0.0947
66264W        W 3758  18.444  34.843   2.356  0.1416  0.1679 -0.1920
66265W        W 3759  12.394  17.743  11.060  0.0278  0.0555 -0.0076
66266W        W 3760  20.442  31.259  22.211 -0.1098  0.0498 -0.0823
66267W        W 3761  10.537  17.074  10.899 -0.2293  0.0352 -0.0377
66268W        W 3762  34.667  25.585   0.168 -0.0344 -0.1977 -0.0782
66269W        W 3763  26.835  29.097  23.377 -0.0539  0.2316  0.1453
66270W        W 3764  26.010  28.457  16.117  0.0699  0.2763 -0.0754
66271W        W 3765   3.585  11.491   6.221 -0.1044 -0.2342  0.1093
66272W        W 3766  27.132  13.173   0.656  0.0348  0.1606 -0.0079
66273W        W 3767   3.339  21.525  20.917 -0.2636 -0.1322  0.1097
66274W        W 3768  19.891  20.879  22.213 -0.1088 -0.1389 -0.1067
66275W        W 3769  10.548   8.841   8.635 -0.1360  0.0761 -0.3329
66276W        W 3770  32.611  29.028  16.145 -0.0519  0.0260 -0.1842
66277W        W 3771   7.169   5.505   9.498 -0.1270  0.0002 -0.1332
66278W        W 3772  32.467  16.289  15.650  0.1686  0.3912 -0.2380
66279W        W 3773  21.751   3.772   7.748  0.2367  0.0351  0.1354
66280W        W 3774  15.726  10.923   8.982  0.0464  0.1159 -0.0066
66281W        W 3775  21.893   2.145  22.174 -0.2267  0.2118  0.0186
66282W        W 3776   8.724  22.668   6.377  0.0808  0.0219 -0.3385
66283W        W 3777  14.048   1.054   7.582  0.3854 -0.4776  0.2167
66284W        W 3778  22.161  18.858  14.427  0.2070 -0.1257  0.0924
66285W        W 3779  34.636   3.062  24.702  0.1581  0.1619  0.1277
66286W        W 3780   2.229   0.492   4.357 -0.1394 -0.2881  0.0102
66287W        W 3781  25.654   1.134  21.345  0.0250  0.0403  0.1624
66288W        W 3782  13.466   4.991  13.147  0.1286  0.0651 -0.3501
66289W        W 3783  18.051  12.565   6.868 -0.1607  0.0341  0.0954
66290W        W 3784  12.182  24.945   4.755 -0.0995 -0.1647 -0.1464
66291W        W 3785  24.430   3.448  19.075  0.1407 -0.1273 -0.0181
66292W        W 3786  27.819  16.468  24.760  0.0163  0.1881 -0.0157
66293W        W 3787  15.886  32.064  24.138  0.0465 -0.0834  0.1805
66294W        W 3788  30.171   4.103  22.204 -0.5717  0.0701 -0.1528
66295W        W 3789  27.457  26.690   9.497  0.0495  0.0867  0.1941
66296W        W 3790  11.865   4.182   3.600  0.0526 -0.1981  0.2394
66297W        W 3791  33.763  18.341   7.119  0.1546 -0.3306  0.3634
66298W        W 3792  33.517  26.618  14.964  0.0268  0.1808 -0.3135
66299W        W 3793  15.172  22.727  11.121 -0.0109 -0.0867  0.3198
66300W        W 3794  31.162  11.276  17.959  0.0908 -0.1622 -0.1314
66301W        W 3795  11.266   9.087   3.417 -0.1368 -0.0768 -0.0507
66302W        W 3796   9.721  21.983   4.045 -0.0886  0.1320  0.2051
66303W        W 3797  35.347  17.171  15.901  0.0987  0.0494  0.0568
66304W        W 3798  26.631  32.484  16.183 -0.2167  0.0449  0.4043
66305W        W 3799  30.331  31.279  11.124  0.2693 -0.1243 -0.3948
66306W        W 3800  23.525  31.898  14.495  0.1262 -0.0214 -0.0439
66307W        W 3801  16.806  25.738   1.085 -0.0254 -0.1345 -0.2668
66308W        W 3802  24.313   6.644  15.320 -0.0701 -0.0717 -0.0923
66309W        W 3803  31.912   7.096  21.458  0.0334 -0.2674 -0.1277
66310W        W 3804  30.666  20.301  11.089 -0.3296 -0.0404 -0.1882
66311W        W 3805   1.918   2.601   4.740  0.0213  0.4163 -0.0942
66312W        W 3806  17.135   2.430  24.434  0.2095 -0.1386 -0.0559
66313W        W 3807  33.376  15.193  10.427 -0.4591  0.3438 -0.1550
66314W        W 3808   6.944  29.992  20.876  0.0781  0.2017 -0.2923
66315W        W 3809  27.869  32.380  14.916 -0.0498 -0.0726  0.0260
66316W        W 3810  26.805   0.969  19.915  0.0489  0.0908  0.4732
66317W        W 3811  25.101  29.630   0.156 -0.1714 -0.0103 -0.0521
66318W        W 3812  33.239  27.234  17.230  0.0349 -0.2465  0.1252
66319W        W 3813  30.468  11.622  24.187  0.0347 -0.1687 -0.0212
66320W        W 3814  32.116  13.956  10.398  0.1188  0.1765 -0.3852
66321W        W 3815  25.437  25.570  15.771 -0.0969 -0.1923 -0.0582
66322W        W 3816  32.138  26.052  11.161  0.0172  0.1984  0.1492
66323W        W 3817  17.377   1.238   5.998  0.2108  0.1138  0.0960
66324W        W 3818   3.276  23.246  21.827 -0.2224 -0.2702  0.1187
66325W        W 3819  30.488  30.763   1.907 -0.2269  0.0578 -0.1836
66326W        W 3820  26.258  26.502  24.394 -0.0447 -0.1639  0.2047
66327W        W 3821  31.232   0.666  11.532  0.0553 -0.0258 -0.0079
66328W        W 3822   6.693  12.245   7.579 -0.1001 -0.0118  0.1425
66329W        W 3823  18.003   3.240  25.249 -0.1264 -0.0837  0.1521
66330W        W 3824   4.613  20.964  23.841  0.1756 -0.1510  0.4028
66331W        W 3825  24.658  26.933   1.656 -0.1277 -0.1041  0.2852
66332W        W 3826  35.018  22.845  26.008  0.0908 -0.0929  0.0313
66333W        W 3827   5.389  17.411   0.006 -0.0828  0.1990 -0.0596
66334W        W 3828  22.183  29.618  24.779  0.1787 -0.1581 -0.0048
66335W        W 3829  17.546   4.327   4.787 -0.0582 -0.0534  0.0913
66336W        W 3830  35.214  16.857  22.861  0.2081  0.1225 -0.0562
66337W        W 3831  15.376   9.393   2.428 -0.1052  0.0323  0.0833
66338W        W 3832  21.675  22.711  19.775  0.1959  0.1054 -0.3154
66339W        W 3833  20.399  26.574  20.773 -0.4014  0.0477  0.3338
66340W        W 3834  10.460  30.571   9.733  0.2414 -0.1950  0.3486
66341W        W 3835  12.003  32.155   2.019  0.2882 -0.2819  0.2327
66342W        W 3836  27.916  33.811  19.648 -0.0371  0.3253 -0.1146
66343W        W 3837  16.745  12.353   5.034 -0.2036  0.3419  0.1507
66344W        W 3838   7.499   2.891  23.253  0.1536 -0.1747 -0.0510
66345W        W 3839   3.585  16.726  24.193  0.2699 -0.2948  0.0773
66346W        W 3840  15.976  26.151   8.175 -0.3567 -0.1419 -0.1593
66347W        W 3841  29.463  22.190  14.765  0.0009 -0.1508  0.0539
66348W        W 3842  21.552  22.359   4.327 -0.0066 -0.4836  0.1429
66349W        W 3843  21.842  21.337   4.733 -0.1349 -0.0142  0.0336
66350W        W 3844  13.290   7.101   1.996 -0.1182  0.2923  0.0535
66351W        W 3845  14.187  10.803  22.192 -0.0476  0.2742 -0.0473
66352W        W 3846   6.465   4.934   3.706  0.0176 -0.1588 -0.0332
66353W        W 3847  15.890  29.130  10.578  0.0085  0.3375 -0.2107
66354W        W 3848  25.464  15.566  14.452 -0.0048 -0.1913 -0.2838
66355W        W 3849   7.881   6.376  22.900  0.0987  0.0959  0.0413
66356W        W 3850  17.224  31.325   1.233 -0.2423 -0.3475 -0.1378
66357W        W 3851  14.155  26.297   7.075 -0.2658 -0.2442 -0.1276
66358W        W 3852   7.455   7.456  10.848 -0.0799 -0.5358 -0.0317
66359W        W 3853  23.352  32.505  15.060 -0.4661  0.2484  0.2167
66360W        W 3854   2.467  28.063   9.433 -0.3118 -0.0830 -0.3329
66361W        W 3855  27.759   2.948  11.471  0.3281  0.3456  0.2292
66362W        W 3856  22.896  24.593  13.641  0.0617 -0.0969 -0.3115
66363W        W 3857   4.025  23.154   2.932 -0.0741  0.0391 -0.1411
66364W        W 3858   5.142   8.056   3.792 -0.1516 -0.1043  0.1170
66365W        W 3859  23.549  15.266  12.635 -0.1026 -0.2084 -0.2406
66366W        W 3860  23.427  28.884  21.583 -0.0317  0.0882 -0.1519
66367W        W 3861  30.845  17.841  22.907  0.3266 -0.0097 -0.2203
66368W        W 3862   3.994  22.443   5.577 -0.0228  0.0739  0.1465
66369W        W 3863  11.860  18.658  14.475  0.2205  0.1077 -0.1355
66370W        W 3864   6.427  12.670   7.760 -0.1768 -0.3235  0.1201
66371W        W 3865  14.263   7.647   4.528  0.0591  0.2344 -0.0691
66372W        W 3866  10.176  15.782   7.457 -0.2029 -0.0476  0.0198
66373W        W 3867  28.596  17.018   4.746 -0.0987  0.2404 -0.0603
66374W        W 3868  19.458   6.426   9.833  0.1473 -0.1328  0.0637
66375W        W 3869   2.231  22.887   0.490  0.1050 -0.0208 -0.0299
66376W        W 3870  13.025   1.094   9.646 -0.2881 -0.0940  0.1905
66377W        W 3871   8.966   6.170  18.956  0.1397  0.1631  0.0288
66378W        W 3872   5.641  12.103   1.088  0.2185  0.3114  0.2366
66379W        W 3873  16.608  11.870  11.362 -0.1885  0.0531  0.0471
66380W        W 3874  16.333  30.780  24.794  0.1142 -0.1011  0.0307
66381W        W 3875  30.999  33.890  12.020 -0.1856 -0.0292  0.2034
66382W        W 3876  10.495  34.230  11.401 -0.1672 -0.1829 -0.1149
66383W        W 3877   5.893  19.234  25.131  0.1452 -0.0375  0.0764
66384W        W 3878  15.485  28.570  11.020 -0.1012 -0.1536  0.2251
66385W        W 3879  33.181  27.118  19.678 -0.0642  0.2695  0.0345
66386W        W 3880   3.860   4.801  21.249 -0.2169  0.2191 -0.0155
66387W        W 3881  17.941  20.101  10.388 -0.1921 -0.1599 -0.0548
66388W        W 3882  24.313  26.859  21.098  0.0610  0.0938  0.1769
66389W        W 3883   1.098  17.706   9.867  0.5081  0.1067 -0.0102
66390W        W 3884   1.934   5.607   4.948 -0.1062  0.4631  0.4094
66391W        W 3885   6.636   8.709   0.330 -0.0824  0.0532 -0.1775
66392W        W 3886   0.531  13.925  15.840  0.1446 -0.2056 -0.2054
66393W        W 3887   9.630   3.668  14.792 -0.1144  0.0522 -0.0089
66394W        W 3888  30.006  33.146   3.422  0.2176  0.1052  0.0044
66395W        W 3889  12.423  34.739   9.343 -0.1629 -0.0580  0.1927
66396W        W 3890  18.617  25.594   3.168 -0.1326 -0.2178 -0.1717
66397W        W 3891   2.500  31.142  17.380  0.1143 -0.2654 -0.0607
66398W        W 3892  21.505  18.914  18.285 -0.2509  0.3607 -0.2488
66399W        W 3893  31.325  24.805  22.771  0.1208  0.4651  0.4148
66400W        W 3894  24.127  10.285  25.633 -0.3008  0.1603  0.3828
66401W        W 3895  24.320  32.396  22.017 -0.1634 -0.0774  0.1019
66402W        W 3896   2.409  30.899   7.616 -0.1002  0.1784 -0.1723
66403W        W 3897  32.112   5.496  25.515 -0.4637 -0.4524  0.1564
66404W        W 3898  22.344   9.887   4.999 -0.1357 -0.0061  0.0724
66405W        W 3899  26.544  15.329  22.862 -0.0907 -0.1249  0.0261
66406W        W 3900  17.120   0.310   8.677 -0.4110  0.0002  0.4828
66407W        W 3901  24.360  17.248  19.808  0.0055  0.2102  0.0052
66408W        W 3902   2.811  25.309  22.660  0.0236 -0.3035  0.0488
66409W        W 3903  33.610  11.598  22.729  0.2232  0.1355  0.0337
66410W        W 3904  20.861   6.371  22.964  0.4904 -0.0479  0.0176
66411W        W 3905  21.670  10.096   0.702 -0.2733  0.3977  0.0446
66412W        W 3906  20.233  10.303   7.649  0.0779 -0.1561  0.0759
66413W        W 3907  17.213  10.182   9.509  0.0514 -0.0880  0.2538
66414W        W 3908  11.887  30.407  13.972  0.1952 -0.0469  0.0274
66415W        W 3909   4.399  20.805  22.409  0.1005  0.3673  0.2019
66416W        W 3910  28.437   4.673  14.218  0.0494 -0.0343 -0.2811
66417W        W 3911  24.980  29.073   0.271  0.0261 -0.0319 -0.0347
66418W        W 3912  21.373  23.597   0.745 -0.3490 -0.4959  0.1123
66419W        W 3913  12.678  31.445   1.768 -0.1997 -0.0501 -0.1394
66420W        W 3914  25.527  24.176  21.068  0.1055  0.2003 -0.0676
66421W        W 3915   6.510  11.223  22.795 -0.1663 -0.0211 -0.0546
66422W        W 3916   0.891   4.750  13.493  0.2187 -0.2598 -0.0620
66423W        W 3917   1.441   6.499  22.079  0.0058  0.1341 -0.4016
66424W        W 3918  28.768  13.667  16.122  0.0713  0.1844 -0.0797
66425W        W 3919   9.874  32.669  13.993  0.1071 -0.0773 -0.0013
66426W        W 3920   6.158   4.040   0.436 -0.0874  0.0056 -0.1045
66427W        W 3921   8.106  23.428  10.557  0.1037 -0.1665  0.1509
66428W        W 3922  26.467  21.328  16.475  0.1361  0.1601 -0.0984
66429W        W 3923   2.990   4.646  23.960  0.4413  0.0826  0.1142
66430W        W 3924  15.858  14.487   5.457  0.2880  0.1048 -0.3077
66431W        W 3925  16.907  24.281   9.736  0.1747  0.1279  0.0362
66432W        W 3926  31.692  27.355  10.612 -0.0435 -0.0491 -0.0327
66433W        W 3927  34.085  30.413   0.361 -0.0401 -0.2230  0.0944
66434W        W 3928  27.938   8.518  15.863  0.2837  0.0932  0.0953
66435W        W 3929  34.296   3.572  22.124 -0.1720 -0.1217  0.0184
66436W        W 3930  14.068   8.878   6.091 -0.0848 -0.1018  0.1471
66437W        W 3931  14.591  18.174  25.210 -0.0228 -0.0671  0.0231
66438W        W 3932  32.555  24.828  12.273 -0.2323 -0.1053  0.0736
66439W        W 3933  18.772  22.739  24.150 -0.1024  0.1784 -0.1171
66440W        W 3934   9.235  35.255   2.717  0.0872 -0.0389  0.1746
66441W        W 3935  19.710  11.933   2.807 -0.3703 -0.0613 -0.2426
66442W        W 3936  31.057  17.235  19.237  0.1256  0.3677  0.3040
66443W        W 3937  29.355  11.717   0.565  0.0603 -0.1456 -0.0021
66444W        W 3938  15.848  16.353  19.612 -0.1756  0.0542  0.0071
66445W        W 3939  14.181  20.112   9.939 -0.0164 -0.2744  0.0556
66446W        W 3940  17.679  24.460   1.304 -0.0657  0.0297  0.1088
66447W        W 3941  14.687  16.353  10.503 -0.1516 -0.2073 -0.0481
66448W        W 3942  32.092  15.351  20.012 -0.1939  0.3291  0.0427
66449W        W 3943   4.903   3.568   0.441  0.1291  0.0054 -0.3517
66450W        W 3944  11.119  23.109  17.790  0.0817 -0.4767  0.0073
66451W        W 3945  26.532   2.326  18.361 -0.5225  0.1750  0.0374
66452W        W 3946   5.608  33.399   7.466 -0.0313  0.2995  0.0224
66453W        W 3947  26.931  11.864  10.444 -0.1206  0.2874 -0.0997
66454W        W 3948  29.989  21.945  15.373 -0.0687  0.1667 -0.4880
66455W        W 3949  17.374  33.976  20.281  0.0157 -0.1817 -0.1260
66456W        W 3950  30.378  27.331   0.839 -0.1026 -0.3967  0.0567
66457W        W 3951  17.433  34.774   3.657 -0.1124  0.0055  0.0657
66458W        W 3952  10.045  19.581   7.154  0.0690  0.2544 -0.0895
66459W        W 3953  17.607  33.076   6.255  0.0719 -0.1922  0.1878
66460W        W 3954   8.045   8.125  23.739  0.2618  0.2631  0.1224
66461W        W 3955  33.143  13.346  17.122 -0.0240  0.0875 -0.1235
66462W        W 3956  17.903  21.723  23.836 -0.0137 -0.1757 -0.1201
66463W        W 3957  22.400  25.310  16.904  0.1925  0.1469 -0.4089
66464W        W 3958   5.205  16.607   3.811  0.1859  0.0428  0.5329
66465W        W 3959   8.549   3.170  18.994 -0.1305  0.0454  0.0466
66466W        W 3960  21.145   2.480  20.121  0.1048  0.1026  0.2046
66467W        W 3961   1.265  35.297   1.855 -0.0905  0.2355 -0.1257
66468W        W 3962  33.146  21.331   4.728 -0.0446  0.1952 -0.3259
66469W        W 3963   7.653   0.696  25.201 -0.4890 -0.0326 -0.1661
66470W        W 3964   0.339  23.781  21.774  0.0956  0.2326  0.1019
66471W        W 3965  18.383   7.151  23.406 -0.1694  0.0840  0.1509
66472W        W 3966   8.979  25.736  25.408 -0.1945  0.1593  0.2357
66473W        W 3967  26.178  29.836  14.461  0.3228 -0.1589  0.2195
66474W        W 3968  17.830  26.231  24.754 -0.1485  0.0527 -0.1206
66475W        W 3969  16.760  21.191   9.527 -0.0324  0.0843  0.2336
66476W        W 3970  27.012   2.240   2.058 -0.0401 -0.0540  0.0679
66477W        W 3971  34.975  32.557  26.224 -0.0194 -0.0345 -0.1914
66478W        W 3972  32.951  27.530  16.854 -0.1540 -0.1102 -0.0304
66479W        W 3973  35.200  12.679  10.533 -0.0752 -0.1607 -0.0377
66480W        W 3974  18.232  21.727  22.459  0.0351  0.3065  0.4287
66481W        W 3975  31.021  23.852  23.521 -0.0870 -0.2164  0.2705
66482W        W 3976   9.976  31.436   4.919 -0.2590  0.2880 -0.1503
66483W        W 3977  13.654  26.491  15.908 -0.0609 -0.0588  0.1545
66484W        W 3978  19.794   0.581  15.649  0.0151 -0.2527  0.1005
66485W        W 3979  30.195  21.897  23.129  0.0242 -0.2174  0.2435
66486W        W 3980  28.468   7.131  15.925  0.0082 -0.0123 -0.2483
66487W        W 3981  33.181  31.791   2.453  0.0004  0.2538 -0.5007
66488W        W 3982  33.838   8.567  15.929 -0.0279 -0.0955 -0.1304
66489W        W 3983   0.564   0.817  17.896 -0.0908 -0.3546  0.1409
66490W        W 3984  12.389  23.163  16.900  0.0758  0.1146  0.0876
66491W        W 3985  25.571  12.677  24.907 -0.0255  0.0181  0.0017
66492W        W 3986  16.559  25.549  10.333 -0.0172  0.0672  0.2369
66493W        W 3987  14.233   8.639   4.429 -0.0745 -0.5006  0.3919
66494W        W 3988  26.408  10.100   0.354  0.0350  0.0688 -0.1227
66495W        W 3989  29.135  18.714  10.948  0.1004  0.0753 -0.2655
66496W        W 3990  16.595  17.911  23.419 -0.0339  0.1110  0.0376
66497W        W 3991  33.306  13.882   7.962 -0.0790  0.1030 -0.3258
66498W        W 3992   5.325  18.317  21.316 -0.2346  0.0126 -0.1630
66499W        W 3993  26.235   8.904  12.837  0.1170  0.0977  0.1461
66500W        W 3994  31.591  23.485   6.101  0.0006  0.0079 -0.0378
66501W        W 3995  13.562  14.765  22.339  0.2313  0.2234  0.0722
66502W        W 3996  26.416  22.180  16.736  0.1755 -0.1786 -0.0935
66503W        W 3997  20.206  26.469  25.536 -0.1135  0.2112 -0.2657
66504W        W 3998   5.568  27.905   6.789  0.0126  0.0895 -0.4750
66505W        W 3999  20.860  24.530  16.795 -0.0202  0.0582  0.2232
66506W        W 4000  13.863  21.110   5.503  0.0359 -0.2616  0.3822
66507W        W 4001   6.625   6.630   3.638 -0.0003 -0.1749  0.7599
66508W        W 4002  27.945  31.537  11.493  0.2746 -0.1386  0.1910
66509W        W 4003  28.574  11.243   0.386  0.0662 -0.1908 -0.2011
66510W        W 4004  30.092  13.306  18.240  0.0917 -0.1133 -0.2661
66511W        W 4005  12.497   2.021   5.988 -0.0717 -0.1441  0.1448
66512W        W 4006  18.964  10.185   1.153  0.1805 -0.1610  0.1512
66513W        W 4007   2.310  12.607   1.752 -0.0750 -0.0162  0.2541
66514W        W 4008  23.770  29.235   5.019  0.2442 -0.0798  0.1815
66515W        W 4009  29.769  15.540  10.757 -0.1612 -0.2041  0.0851
66516W        W 4010   5.125  10.608  24.403 -0.1408  0.2264  0.0125
66517W        W 4011   5.941  26.515   2.145  0.0965  0.1055 -0.1250
66518W        W 4012  32.332  28.577  13.113 -0.0037  0.1609  0.1738
66519W        W 4013   8.698  34.908   5.034 -0.1199 -0.0515 -0.0311
66520W        W 4014  26.917  25.232  17.259 -0.0767 -0.0361 -0.1252
66521W        W 4015  30.842   4.552  25.985  0.2397  0.0979 -0.1313
66522W        W 4016   7.362  19.228  19.751  0.0967  0.2893  0.2153
66523W        W 4017  22.869   4.294   0.270  0.2386 -0.0423 -0.0698
66524W        W 4018   4.587  16.190  17.275  0.1839 -0.1535 -0.1981
66525W        W 4019  13.716  32.859   1.377 -0.0658  0.0554  0.1434
66526W        W 4020  34.534  20.557  19.388 -0.2376  0.0166  0.3100
66527W        W 4021  21.302   2.533   2.813  0.0771  0.0913  0.0595
66528W        W 4022  12.237  18.467   4.962  0.0310  0.2464 -0.1938
66529W        W 4023  32.383  34.938   4.419  0.0326  0.0535  0.0311
66530W        W 4024   7.080  24.473   2.427  0.0304 -0.0537  0.0674
66531W        W 4025   0.905  12.796  23.243 -0.0764  0.3298 -0.0263
66532W        W 4026  32.740   6.571  20.863  0.1262  0.0039  0.0941
66533W        W 4027  27.472  30.085   0.816  0.1268 -0.1079  0.0224
66534W        W 4028  26.630  12.885  16.545  0.1722 -0.0923 -0.1203
66535W        W 4029  19.045  13.367  10.280 -0.3134  0.2062  0.2563
66536W        W 4030   3.036  34.208  22.889  0.2591 -0.1910  0.1402
66537W        W 4031  32.970  14.461  11.747 -0.2377 -0.0694 -0.0336
66538W        W 4032  15.107  11.558   2.237 -0.2400  0.0443  0.2268
66539W        W 4033   1.408  24.911   3.861 -0.0128 -0.2177  0.0491
66540W        W 4034   6.536  16.459  25.051  0.0778  0.0683 -0.1101
66541W        W 4035  20.729   2.412   6.211  0.0274 -0.0217  0.0245
66542W        W 4036  19.152  24.099  12.111 -0.2860  0.1268  0.2647
66543W        W 4037  19.502   8.858  23.756 -0.0875 -0.0994  0.1664
66544W        W 4038  16.720   8.570  10.231 -0.0383 -0.0982 -0.2090
66545W        W 4039  30.148  19.226  14.606 -0.1532 -0.0883 -0.1695
66546W        W 4040  18.954   6.487  17.585 -0.1175  0.1480  0.0241
66547W        W 4041  23.730  13.282  25.199 -0.0624 -0.0438 -0.2359
66548W        W 4042   1.473  11.843  16.909  0.4753 -0.0453 -0.2713
66549W        W 4043  30.977  29.228  18.983  0.0605  0.0074  0.0126
66550W        W 4044  10.984  31.277  21.559  0.0341  0.1313 -0.2563
66551W        W 4045  31.995  10.683  13.917 -0.0458  0.3254  0.2403
66552W        W 4046   2.506  31.925   9.596 -0.1775  0.0427  0.1012
66553W        W 4047   0.129   1.559   3.425  0.1495 -0.1978  0.0799
66554W        W 4048  16.445   8.178  21.621 -0.4130 -0.2812 -0.0175
66555W        W 4049  32.156  19.066  14.561 -0.3244  0.2008 -0.3171
66556W        W 4050   7.829  14.269  26.216 -0.1693 -0.0552  0.0651
66557W        W 4051   3.990  27.868   0.169 -0.0498  0.1018  0.1439
66558W        W 4052   9.150  34.253  10.176  0.3138 -0.2864  0.0537
66559W        W 4053  23.741  24.935  17.598  0.2526 -0.1701  0.2698
66560W        W 4054  34.527   3.105  16.799  0.1240 -0.1641  0.0638
66561W        W 4055   4.837  20.095  24.905 -0.2248  0.1532  0.1320
66562W        W 4056  19.065  18.444  21.982 -0.1130  0.1837 -0.4586
66563W        W 4057  13.682  28.637  23.080  0.0846 -0.3900 -0.2583
66564W        W 4058  22.725   7.265   0.622  0.1028  0.1931  0.0742
66565W        W 4059  33.911   9.496  21.945  0.3822  0.0861  0.1661
66566W        W 4060  33.160  11.607  20.993  0.0867 -0.1705 -0.2430
66567W        W 4061  32.221   4.411  12.694 -0.0286 -0.1702  0.0091
66568W        W 4062   8.161   1.334  19.799  0.1132 -0.1096 -0.1802
66569W        W 4063  29.755   9.805  13.144  0.1832  0.3678  0.0863
66570W        W 4064  29.834  30.081   5.512 -0.0620 -0.1078 -0.0299
66571W        W 4065  19.215   9.755   3.932 -0.1367 -0.0591  0.0506
66572W        W 4066   2.578  30.430   5.138 -0.3444  0.1144  0.1096
66573W        W 4067   7.202  30.125   5.762  0.0738 -0.2299  0.3370
66574W        W 4068  18.654   9.042   7.761  0.0554 -0.2236  0.2291
66575W        W 4069  32.745  26.505  13.436  0.0028 -0.1594  0.1037
66576W        W 4070   6.612  23.465  22.913  0.1713 -0.0954 -0.0709
66577W        W 4071  27.079   7.821  25.184 -0.1235 -0.0283  0.0773
66578W        W 4072  16.972   4.442  19.372 -0.2632  0.0356 -0.1284
66579W        W 4073  13.532  11.003   2.477 -0.3621  0.0205  0.1048
66580W        W 4074  30.204  32.853   5.850 -0.1851  0.2199  0.0448
66581W        W 4075  12.096  25.469   7.175  0.2414  0.1880  0.0539
66582W        W 4076  24.914   5.338  26.166 -0.0963 -0.1794  0.2212
66583W        W 4077  23.106   8.712  16.390  0.0406  0.0711 -0.0096
66584W        W 4078  20.761   6.804  15.987  0.2222 -0.0200 -0.1676
66585W        W 4079  17.249  19.816   8.683 -0.0295  0.0734  0.0922
66586W        W 4080  11.068   9.352  13.443 -0.0567  0.3333 -0.1440
66587W        W 4081   4.380   3.388  19.621  0.0641 -0.2060 -0.2558
66588W        W 4082  31.018  18.699  23.086  0.0522 -0.0878 -0.2010
66589W        W 4083  24.108  27.528  18.085 -0.0277  0.1648 -0.2506
66590W        W 4084  10.183   0.017  10.248 -0.2593  0.0443  0.0520
66591W        W 4085  19.819  14.833   1.995 -0.1498  0.0074 -0.2569
66592W        W 4086  22.657  16.671  15.994 -0.0263  0.0984 -0.0228
66593W        W 4087   2.907  28.012  10.504 -0.0415  0.0414 -0.0457
66594W        W 4088  35.092   8.412  23.552  0.2051 -0.1084 -0.1345
66595W        W 4089  24.215  11.190   2.071 -0.0117 -0.0656 -0.2392
66596W        W 4090  16.213  17.228  14.587  0.0037  0.0324  0.0910
66597W        W 4091   9.370  33.473   3.145  0.2169 -0.0594 -0.3317
66598W        W 4092  16.453  20.892  11.841 -0.2453 -0.0501 -0.2206
66599W        W 4093  15.128  30.215   0.184  0.0578 -0.0443  0.1102
66600W        W 4094  22.300   8.721   4.873  0.0547  0.1463  0.3503
66601W        W 4095  34.140  10.757  21.642 -0.0653  0.3044  0.0372
66602W        W 4096  30.061   7.639  13.139  0.2541 -0.3230  0.1828
66603W        W 4097   1.045  29.320  25.112  0.1635 -0.0672 -0.0944
66604W        W 4098  34.804  33.993   4.763 -0.0025  0.1278  0.2385
66605W        W 4099   1.883  22.075   0.830 -0.1404  0.0958 -0.1494
66606W        W 4100   0.520  11.944  22.305 -0.0587  0.0574 -0.0015
66607W        W 4101  32.530  24.591  10.181  0.1544  0.5331  0.0052
66608W        W 4102  11.033  19.760  25.918 -0.1887  0.1155 -0.0655
66609W        W 4103  20.587   7.792   6.304  0.0156 -0.0857 -0.0495
66610W        W 4104  25.014  31.471  12.042 -0.0372  0.0968  0.2331
66611W        W 4105  10.386  13.233   7.065  0.1149  0.0036  0.1719
66612W        W 4106  16.000  17.692   3.997  0.1993 -0.0135 -0.2180
66613W        W 4107  18.749  12.139  19.444  0.1969  0.0656 -0.0609
66614W        W 4108  17.955  15.916   1.704  0.2150  0.1439 -0.0727
66615W        W 4109  17.257  34.477   4.013  0.0697  0.0802  0.0946
66616W        W 4110  27.423  12.464  11.893  0.1848  0.1720  0.3566
66617W        W 4111   9.767   0.732  11.151  0.0775 -0.0544  0.0290
66618W        W 4112  32.135   6.851  23.906 -0.0981  0.0020 -0.1372
66619W        W 4113  18.764  34.267   1.274  0.2342 -0.0146  0.0149
66620W        W 4114  31.895  34.431   4.485  0.1447  0.0123 -0.0996
66621W        W 4115  29.838  22.208  12.352 -0.0360  0.0504  0.1694
66622W        W 4116  34.544  32.639  22.680 -0.3620  0.1080  0.1508
66623W        W 4117   7.512   5.849   2.234  0.0043 -0.1874  0.3780
66624W        W 4118  26.576  26.927   3.245 -0.1949 -0.1189  0.1013
66625W        W 4119   2.285   6.650   6.383 -0.1138 -0.4277  0.4778
66626W        W 4120   6.624  21.456  23.099 -0.1901  0.0230 -0.1817
66627W        W 4121  24.001   0.192  17.893 -0.0696  0.3717 -0.0669
66628W        W 4122  21.854  16.385  24.237 -0.4699 -0.1142 -0.1541
66629W        W 4123  13.199   6.203  22.023  0.1316 -0.1042 -0.2863
66630W        W 4124  23.003  34.619  16.701 -0.0216 -0.1014 -0.2969
66631W        W 4125  19.596  19.674   0.582  0.4792  0.4074  0.0346
66632W        W 4126  34.690   7.989  23.355  0.1332  0.0395 -0.1321
66633W        W 4127   5.714  21.908   6.246 -0.2949 -0.0890  0.1624
66634W        W 4128  26.111   5.221   3.858  0.4331  0.1760  0.3216
66635W        W 4129  12.467  13.962  24.014  0.1413  0.0935  0.1615
66636W        W 4130  21.210   1.669  23.348  0.0115 -0.3488 -0.2347
66637W        W 4131  30.043  26.873   9.616  0.1011 -0.3443 -0.1426
66638W        W 4132  13.802  13.749   8.828 -0.2810 -0.3518 -0.1004
66639W        W 4133   3.460   1.583  25.696 -0.3616  0.1043  0.0015
66640W        W 4134  28.046   8.363   1.196  0.0183 -0.2931 -0.2747
66641W        W 4135  10.742  34.063  23.475  0.0161  0.2458  0.0467
66642W        W 4136  35.025   2.135   5.341 -0.0160  0.2367  0.2047
66643W        W 4137  17.775  25.715  25.474 -0.0800 -0.1352  0.2483
66644W        W 4138  32.220   5.843  20.315 -0.2346  0.0446 -0.4577
66645W        W 4139  17.077  16.605   4.994  0.0826 -0.1580  0.2145
66646W        W 4140  13.205  20.220   2.431 -0.1702 -0.2594 -0.0283
66647W        W 4141  31.464  12.020  23.264 -0.0718  0.0180 -0.1120
66648W        W 4142   0.869  17.050   7.478  0.0088  0.0950  0.2473
66649W        W 4143   5.394  10.104   6.716  0.0326  0.0121 -0.0820
66650W        W 4144  29.191  15.612  13.388  0.0603  0.3103 -0.3396
66651W        W 4145  26.364  26.367  18.325  0.0643 -0.0661 -0.0739
66652W        W 4146   1.396   9.945  19.728  0.0649 -0.2752  0.2276
66653W        W 4147  29.769  10.551  10.185  0.1224  0.1520 -0.0583
66654W        W 4148   6.444  23.020  23.037 -0.1591 -0.2678  0.1877
66655W        W 4149  15.403  13.235  10.413 -0.1727  0.1836  0.0770
66656W        W 4150  20.762   9.055   8.082  0.0538 -0.2397  0.3661
66657W        W 4151   6.225  13.037   0.542  0.1443  0.3761  0.2775
66658W        W 4152  21.596  25.796  21.195 -0.0979 -0.0294  0.0908
66659W        W 4153  10.867  11.943   3.131 -0.1804 -0.2114 -0.1675
66660W        W 4154  34.054   9.546   9.344  0.2770 -0.4041  0.0925
66661W        W 4155  28.845   1.717  15.558  0.2638 -0.1487  0.1521
66662W        W 4156  23.365  25.423  11.979 -0.2463 -0.1620 -0.1393
66663W        W 4157   7.077   2.937  20.644  0.3144  0.0036 -0.3749
66664W        W 4158  24.295  18.065  14.575  0.0791 -0.0340  0.0630
66665W        W 4159  24.816   3.905   3.904 -0.1751 -0.1557 -0.0804
66666W        W 4160  15.384   5.325   3.180  0.0476 -0.2189  0.3152
66667W        W 4161  18.186  24.993  12.410 -0.0101  0.2007  0.1835
66668W        W 4162  33.640  14.790  10.967 -0.0294 -0.2091 -0.1629
66669W        W 4163  12.372   7.993  12.487 -0.0734 -0.2672  0.1690
66670W        W 4164  11.228  31.446   5.588 -0.0810  0.0120 -0.0387
66671W        W 4165  13.117  31.225   1.709 -0.0930  0.1597  0.2621
66672W        W 4166  32.358   5.822  11.653 -0.1149  0.1605 -0.1841
66673W        W 4167   5.554  11.843  24.377 -0.1866  0.3064 -0.1801
66674W        W 4168  34.905   7.903  19.972 -0.0545  0.0201  0.0360
66675W        W 4169  26.310  13.812   1.032 -0.1942  0.1929 -0.1438
66676W        W 4170  34.049  32.958  20.354  0.0845  0.0742  0.1090
66677W        W 4171   5.488  33.211  13.041 -0.0813  0.3184  0.0150
66678W        W 4172   4.582   3.724  24.201  0.2045  0.0680 -0.1280
66679W        W 4173  10.688  19.715   6.780 -0.2218 -0.3547  0.1197
66680W        W 4174  11.823   2.928   0.001 -0.2074  0.1174 -0.1426
66681W        W 4175  24.031   3.521  19.752  0.0807  0.0998 -0.1422
66682W        W 4176  22.733  15.734  22.982 -0.0557  0.0765 -0.2457
66683W        W 4177  32.033   4.728  22.415 -0.2240  0.2185 -0.0784
66684W        W 4178  21.557  32.557  22.149 -0.3034 -0.0800  0.0182
66685W        W 4179   4.580  35.206  23.020  0.0317  0.2343 -0.1541
66686W        W 4180   2.155  28.311  19.027  0.0109  0.2307 -0.2779
66687W        W 4181   5.294  31.538   6.547  0.1871  0.0230 -0.1395
66688W        W 4182   7.155  21.845   6.057 -0.2366  0.1892 -0.0192
66689W        W 4183  32.528   6.451   3.827  0.0655  0.0416  0.3452
66690W        W 4184  26.669  19.892   6.948 -0.2257  0.1694 -0.1491
66691W        W 4185  26.411  28.507  18.073  0.1073 -0.2336 -0.1818
66692W        W 4186  23.053  29.067   5.503  0.0666  0.2010  0.1769
66693W        W 4187   3.063  33.853  21.169  0.2896 -0.0491  0.1465
66694W        W 4188  31.522  21.461   7.939  0.0283 -0.0901 -0.2020
66695W        W 4189   2.953  19.574  18.240 -0.1771 -0.0573  0.2835
66696W        W 4190  28.577  13.661  23.830  0.0823  0.0038 -0.1267
66697W        W 4191  16.406  13.215  20.719 -0.0809 -0.1724  0.1106
66698W        W 4192  12.001  28.762  12.851 -0.0020  0.1536 -0.3027
66699W        W 4193  22.733  33.360  21.699 -0.0456 -0.3241 -0.0105
66700W        W 4194  24.655   0.156   0.061 -0.1476  0.3793 -0.4094
66701W        W 4195   9.512   6.181  12.157 -0.2366 -0.2321 -0.1625
66702W        W 4196   9.819  16.399   1.785  0.1714  0.3321  0.1950
66703W        W 4197  30.833   6.902  10.808  0.0779 -0.0853 -0.1363
66704W        W 4198  20.421  10.864   1.890 -0.1293  0.1760 -0.2371
66705W        W 4199  22.251  26.521  17.637  0.1093 -0.0907 -0.2115
66706W        W 4200  34.393  19.609  24.171  0.0797  0.1447 -0.2769
66707W        W 4201   8.712  21.426   6.242  0.1610 -0.1154 -0.1982
66708W        W 4202  28.557  30.075   4.174 -0.1811 -0.2013  0.4003
66709W        W 4203  23.933  10.386  25.025 -0.2861 -0.2874  0.1576
66710W        W 4204  29.188   2.664  12.466  0.3020  0.0834 -0.2266
66711W        W 4205  26.145  21.194  23.442 -0.0757 -0.1174  0.0790
66712W        W 4206  32.157   4.539  11.722 -0.0073  0.3888 -0.0654
66713W        W 4207  13.163  24.851   1.263  0.0176 -0.0742  0.0429
66714W        W 4208  33.745   0.291  17.931 -0.0382 -0.5012 -0.1575
66715W        W 4209  27.584  29.363  23.051  0.0296  0.2176  0.2718
66716W        W 4210   7.080  34.213  23.657 -0.0060  0.0214 -0.0522
66717W        W 4211  34.014  23.890  10.009 -0.0946 -0.3783  0.0932
66718W        W 4212  29.285   5.882  18.227  0.1322  0.1109  0.1170
66719W        W 4213  33.261   1.863  18.622  0.2289  0.0369 -0.3192
66720W        W 4214   8.788  15.676  12.133 -0.0707  0.1287 -0.2404
66721W        W 4215  16.528  20.101   8.370  0.0980 -0.0038  0.1126
66722W        W 4216  17.053  22.478   2.896 -0.3422  0.0191 -0.1443
66723W        W 4217  10.148  19.577  26.004 -0.3607  0.1935 -0.2827
66724W        W 4218   8.189   6.477  11.928  0.0468  0.1021  0.0445
66725W        W 4219   7.990   5.604  12.445 -0.3555  0.1712 -0.1119
66726W        W 4220  25.976  14.965  12.202  0.1553  0.2697 -0.2443
66727W        W 4221  10.720  24.633  23.792  0.1728  0.1792 -0.1327
66728W        W 4222  16.499  10.620  21.280  0.0146  0.0519  0.2984
66729W        W 4223  17.617  31.130   5.830  0.0620 -0.0918  0.1256
66730W        W 4224  17.955  13.885  10.764  0.2299 -0.0880  0.1345
66731W        W 4225  25.830  11.993  16.997  0.1607  0.0684 -0.3455
66732W        W 4226  20.742  20.877  17.264 -0.0210 -0.3213 -0.0162
66733W        W 4227  12.501  26.081   9.895  0.2541 -0.1551  0.2536
66734W        W 4228  10.074  32.478   7.279  0.0738 -0.1469 -0.0118
66735W        W 4229  32.477   2.783   5.012  0.0472  0.0912  0.0755
66736W        W 4230  28.214  21.086  21.723 -0.1077  0.1342  0.0019
66737W        W 4231  18.681  14.713  18.767  0.0579 -0.2309  0.1469
66738W        W 4232  18.721   1.686  18.368 -0.2619  0.1002 -0.3209
66739W        W 4233   3.758  27.142  11.374 -0.3127 -0.1660  0.0385
66740W        W 4234  26.198   5.563   4.329 -0.0334 -0.1360  0.2917
66741W        W 4235   2.460  26.290  19.809  0.2646 -0.1359  0.0118
66742W        W 4236  17.095   0.217  18.653  0.2025  0.1553 -0.3237
66743W        W 4237   8.573  10.751  10.063 -0.2017 -0.1295 -0.3977
66744W        W 4238  26.694  32.706  19.604 -0.1209 -0.0226 -0.1576
66745W        W 4239  31.699   8.874   0.313  0.2140  0.1628  0.0013
66746W        W 4240   3.734  11.540   3.316  0.1330  0.0687 -0.1239
66747W        W 4241  27.513  31.228  23.486 -0.2254 -0.1454 -0.0392
66748W        W 4242   0.259  12.607  24.194  0.1008 -0.2898 -0.0808
66749W        W 4243  16.208  27.194  24.172 -0.1543 -0.2347 -0.2686
66750W        W 4244   0.171  21.256  22.596 -0.2364 -0.0111  0.2723
66751W        W 4245  20.338   6.239   0.071  0.0674  0.1069  0.3556
66752W        W 4246  26.092   3.735  21.054  0.0371 -0.0253  0.1459
66753W        W 4247   8.304   8.570   6.194 -0.1870  0.0358  0.1786
66754W        W 4248   0.871   1.761   6.030 -0.1174  0.1063  0.0619
66755W        W 4249  23.449  20.226  18.687  0.1188  0.0754  0.1961
66756W        W 4250   1.806   6.565  23.081  0.0646 -0.2145 -0.0093
66757W        W 4251  25.364  20.723   8.678  0.2598 -0.2270 -0.1970
66758W        W 4252  33.152  24.629   0.665  0.2436 -0.2290 -0.1561
66759W        W 4253  21.179   8.142  17.850 -0.2570  0.3728 -0.0217
66760W        W 4254  13.409  27.225  22.257 -0.1190  0.1385  0.1276
66761W        W 4255  18.553  20.610   4.389  0.3725 -0.0047  0.2046
66762W        W 4256   1.027   4.680   6.470  0.0059  0.0056 -0.0062
66763W        W 4257   4.748  10.370  16.181 -0.2310 -0.1079 -0.1623
66764W        W 4258  17.907  25.730   6.498  0.1614 -0.1093 -0.3059
66765W        W 4259  27.990  20.842  18.331 -0.0168 -0.0956  0.1116
66766W        W 4260   0.832  33.944  22.604  0.1944 -0.1411 -0.0768
66767W        W 4261  33.428  14.989  24.088  0.0968  0.0843 -0.1928
66768W        W 4262  10.875   1.994   1.346  0.0443 -0.0940  0.3117
66769W        W 4263   2.637  24.318   3.227 -0.2305  0.0172  0.0902
66770W        W 4264  31.954  33.905   5.651  0.2005 -0.2784  0.0606
66771W        W 4265  14.038   5.908  22.175 -0.4153 -0.1576 -0.0249
66772W        W 4266  12.132  28.874  17.633 -0.1627  0.0333  0.2009
66773W        W 4267  15.266   3.825   0.098  0.0455 -0.0679 -0.2247
66774W        W 4268   9.369  32.466  13.523 -0.0162 -0.1611  0.3563
66775W        W 4269  10.521   5.644  12.375 -0.0591 -0.0736 -0.1329
66776W        W 4270  25.758  15.436   7.196 -0.2160  0.1667 -0.0640
66777W        W 4271  20.504  31.034  25.057 -0.1166 -0.0736 -0.3814
66778W        W 4272   6.099  31.530  25.689 -0.1786 -0.0774 -0.1046
66779W        W 4273  18.678  12.886   4.742  0.1510 -0.1761  0.0686
66780W        W 4274  12.411   7.159  11.412  0.0697 -0.1120 -0.0413
66781W        W 4275   4.410   8.303  18.003  0.4058 -0.0988  0.0422
66782W        W 4276  20.442  12.239   2.530 -0.1085  0.1100 -0.0348
66783W        W 4277   8.563  16.402   6.809 -0.0434  0.0146 -0.0579
66784W        W 4278  35.017   6.258  11.857 -0.0078 -0.1424 -0.1180
66785W        W 4279  15.080  25.859  25.747 -0.1471  0.1545 -0.0565
66786W        W 4280   3.260  19.631  25.013 -0.1978  0.1353  0.0557
66787W        W 4281  25.549  27.032  20.214  0.2543 -0.0865  0.0332
66788W        W 4282   1.853  30.732  20.283  0.0586  0.1638  0.0381
66789W        W 4283  22.942   3.387  25.768 -0.2908 -0.1709 -0.4718
66790W        W 4284  10.085  29.345  23.326  0.3690 -0.0119  0.0502
66791W        W 4285  11.552  27.646   1.156  0.2237 -0.0416 -0.2556
66792W        W 4286  18.653   5.632   6.408  0.1909  0.2524 -0.0116
66793W        W 4287  23.236   4.466  22.613  0.0273 -0.0124  0.1361
66794W        W 4288  12.380   4.843  18.900 -0.0141 -0.3036  0.3508
66795W        W 4289  34.910  20.096   0.652  0.2005  0.2401 -0.1424
66796W        W 4290  27.719  25.164  17.839  0.1321 -0.1550 -0.0435
66797W        W 4291   4.001  24.075   4.045 -0.2089 -0.0319  0.2100
66798W        W 4292  24.637   1.952  19.533  0.2715 -0.0033  0.4276
66799W        W 4293   5.853  10.626   4.316  0.1119  0.1140  0.1347
66800W        W 4294  21.742  13.776  23.106  0.0628  0.3379 -0.0799
66801W        W 4295  27.263  18.030   7.187  0.2630  0.3336  0.1973
66802W        W 4296  33.983  17.527   9.455  0.0842  0.2171 -0.1544
66803W        W 4297  23.232  21.377  24.165 -0.1010 -0.0883  0.0839
66804W        W 4298   1.006  32.171   7.276  0.0447 -0.0309  0.1383
66805W        W 4299  28.530  12.959   7.443 -0.0787  0.1723 -0.0222
66806W        W 4300  15.056  31.370  24.298 -0.1170 -0.0530 -0.1736
66807W        W 4301  11.538  17.754   8.343  0.0063 -0.1265  0.3465
66808W        W 4302  30.811  24.594   0.006 -0.2051  0.0946  0.1178
66809W        W 4303  20.589  14.010   2.303  0.2147  0.2374  0.2898
66810W        W 4304   9.420  12.147  24.084 -0.0155  0.2632 -0.0822
66811W        W 4305  21.482  17.120  25.866 -0.0174  0.2021  0.0632
66812W        W 4306   0.763   0.510   2.430  0.2338  0.3533 -0.1864
66813W        W 4307   1.664   9.949  20.729  0.1353  0.0678  0.2235
66814W        W 4308  34.928  29.662  21.024  0.2131 -0.3994  0.1591
66815W        W 4309  17.765  10.813   6.681 -0.0682  0.0699  0.0442
66816W        W 4310  25.970  15.338  10.056 -0.0609  0.0900  0.1303
66817W        W 4311   4.560  28.994   1.476  0.2147 -0.0160 -0.2673
66818W        W 4312   4.917  31.109  20.937 -0.4319  0.2914 -0.1949
66819W        W 4313  13.398  22.441  11.625  0.0115 -0.0787  0.2954
66820W        W 4314  34.766  25.506  23.480 -0.1119  0.1066  0.3161
66821W        W 4315   4.064   1.536  21.624  0.0574  0.0081 -0.1142
66822W        W 4316  10.377  12.696   5.114 -0.1386 -0.2957  0.0802
66823W        W 4317  10.954   4.060  23.515 -0.1219 -0.1398  0.2033
66824W        W 4318  27.532  20.957  18.693  0.1310 -0.2437 -0.0216
66825W        W 4319  12.271   2.687   2.954  0.1964  0.2634 -0.1534
66826W        W 4320  12.507  28.746  16.591 -0.0693 -0.0640  0.3733
66827W        W 4321   7.092  24.736   4.836  0.1609  0.0952 -0.3110
66828W        W 4322  28.397  14.034  21.759  0.0557  0.2058 -0.3519
66829W        W 4323  28.399  13.110  19.895  0.0136  0.1616  0.1881
66830W        W 4324   6.843  12.318  17.533 -0.0660  0.0348 -0.2835
66831W        W 4325  18.268  18.216  10.719  0.0842 -0.1030 -0.3628
66832W        W 4326   8.747  12.284   8.170 -0.0080 -0.1057 -0.1647
66833W        W 4327  33.769   3.395  15.805 -0.1106 -0.2208 -0.2918
66834W        W 4328   0.802   2.244  23.601  0.2033 -0.1243 -0.0268
66835W        W 4329  17.615  15.628   1.239 -0.2766 -0.0314  0.6622
66836W        W 4330   9.540  30.040  15.480 -0.3394  0.0295 -0.0923
66837W        W 4331  24.905  17.024  19.620  0.3480 -0.1873  0.0092
66838W        W 4332  13.598  23.736  23.951  0.0960 -0.0726  0.0368
66839W        W 4333  18.319   1.359  16.169  0.4032  0.0312  0.2270
66840W        W 4334  10.144  16.613   8.302  0.0153 -0.0074  0.0767
66841W        W 4335  24.456  33.808  11.740  0.1891 -0.0376 -0.0755
66842W        W 4336  14.036  20.928   2.835  0.2088 -0.1652  0.1866
66843W        W 4337  25.989  23.934  22.847 -0.1476 -0.1269  0.0693
66844W        W 4338  17.184   1.877  24.627  0.1441 -0.1683 -0.2664
66845W        W 4339   7.895   1.833  21.961  0.1861  0.0516  0.1564
66846W        W 4340   3.761   6.837   8.291 -0.0066  0.0948  0.2513
66847W        W 4341  14.295  33.138  24.283 -0.0624  0.2740  0.0207
66848W        W 4342  32.577  25.181  26.035 -0.2826 -0.3514  0.0117
66849W        W 4343  28.931   3.503  13.527  0.0249 -0.1728  0.2490
66850W        W 4344  11.216  10.753  12.017 -0.1864 -0.1368 -0.0752
66851W        W 4345  13.754   9.343   5.481  0.0827 -0.0351 -0.0710
66852W        W 4346   0.473  29.315   1.806  0.0466 -0.3557  0.1186
66853W        W 4347  13.716  17.050  14.528  0.1143 -0.2266 -0.0126
66854W        W 4348  18.047  33.251  19.095 -0.1282 -0.0039 -0.0079
66855W        W 4349   1.013   9.982  21.127  0.0073 -0.2187  0.0816
66856W        W 4350  22.571   0.169  17.480 -0.2235 -0.0378 -0.1041
66857W        W 4351   6.540  31.709  14.507  0.0715  0.1431 -0.1528
66858W        W 4352  22.144  23.876  15.323  0.2639 -0.1113  0.2118
66859W        W 4353  30.651  34.682  15.288 -0.1384  0.2859 -0.0145
66860W        W 4354  12.325  25.966   1.370  0.2694 -0.1299 -0.1851
66861W        W 4355  22.607  13.009  19.866 -0.0175 -0.0142 -0.0116
66862W        W 4356  28.829   8.281  20.649 -0.2533 -0.0813 -0.0466
66863W        W 4357   6.366  17.706   6.506 -0.0988 -0.0712  0.0201
66864W        W 4358  28.703   5.526   1.625 -0.0502  0.2044 -0.1204
66865W        W 4359  23.274  35.205  15.850 -0.1795  0.4000 -0.1192
66866W        W 4360   8.009   2.853  23.261  0.0273  0.2211  0.1014
66867W        W 4361  27.075  24.452  13.211  0.2259  0.0893  0.1270
66868W        W 4362  33.161   4.337   0.028 -0.2971 -0.0072 -0.0550
66869W        W 4363  33.270  13.456  16.619  0.1581  0.3506 -0.1883
66870W        W 4364  15.361  25.735   0.590 -0.1815  0.2183  0.5146
66871W        W 4365  18.121  31.629  19.787 -0.0230 -0.0372 -0.2437
66872W        W 4366  23.321  23.136   0.413  0.2348  0.1612 -0.3441
66873W        W 4367   0.677  35.066   5.650  0.0769 -0.4081 -0.1191
66874W        W 4368  30.445  28.627  24.774  0.2123 -0.0080  0.2577
66875W        W 4369  32.214   1.331  18.854 -0.1670  0.1589 -0.0808
66876W        W 4370  28.387  34.373   5.509 -0.2414  0.1442  0.0187
66877W        W 4371  34.949  17.921  24.991 -0.1769 -0.0689  0.1412
66878W        W 4372   7.868  26.988  10.707  0.1230  0.0568 -0.2162
66879W        W 4373  21.742  10.516  20.409 -0.7169  0.0251 -0.1189
66880W        W 4374  30.868  23.128  18.679  0.1545 -0.0889 -0.0442
66881W        W 4375  17.537   9.987  21.726  0.0867  0.0058 -0.1199
66882W        W 4376   5.316   6.612  16.659  0.2012 -0.0579 -0.1830
66883W        W 4377  25.032  31.327  23.245 -0.2049 -0.1464  0.3092
66884W        W 4378  33.995  16.194  20.100 -0.0352  0.0793  0.0459
66885W        W 4379  20.578   0.753  16.622 -0.1721 -0.0929  0.0691
66886W        W 4380   0.433   0.962   2.975 -0.1133  0.0926  0.0178
66887W        W 4381  18.442  30.174   9.393  0.0627  0.0657 -0.2575
66888W        W 4382  21.721  25.264  20.077  0.0475  0.1229  0.0415
66889W        W 4383  28.989  24.537  23.918  0.0519  0.1978  0.0341
66890W        W 4384   7.268  22.607  14.302 -0.2181 -0.0415  0.1197
66891W        W 4385  11.396  21.297  24.595  0.0082 -0.1221  0.0513
66892W        W 4386   5.292   2.047   0.601  0.3779  0.3097 -0.1142
66893W        W 4387  11.264  15.139   5.041 -0.2470  0.3022 -0.2655
66894W        W 4388  19.906  23.257   0.850  0.4469 -0.1290  0.1792
66895W        W 4389   8.197  33.588  24.563 -0.0305  0.1868 -0.2914
66896W        W 4390   2.780  26.134  20.327  0.1040 -0.1201  0.2626
66897W        W 4391  16.430   5.773   2.265 -0.2887 -0.0432 -0.3619
66898W        W 4392  23.952  22.961  14.943 -0.3668  0.2612  0.1109
66899W        W 4393  16.544   7.699  25.362 -0.0048  0.1666  0.1071
66900W        W 4394   9.205  11.915   5.321  0.0675  0.2801  0.1019
66901W        W 4395   5.989  25.494  25.734 -0.1263  0.2930  0.0150
66902W        W 4396   8.059  13.187  10.098  0.0129  0.1207 -0.0296
66903W        W 4397  27.869   9.846  22.041 -0.1808 -0.0915  0.0758
66904W        W 4398  30.252  11.104  20.098  0.1622  0.1040 -0.0364
66905W        W 4399  29.503   5.694   2.109  0.3352 -0.0860 -0.1664
66906W        W 4400  33.932  28.885  16.142  0.0019 -0.0135  0.1903
66907W        W 4401   0.544  34.657  16.305  0.0928  0.2610  0.1521
66908W        W 4402   8.551  27.885   5.537 -0.0956  0.3050  0.0683
66909W        W 4403  26.215  12.199  21.562 -0.1738  0.1788  0.0475
66910W        W 4404  20.677  25.103  24.038  0.0747  0.2951 -0.1488
66911W        W 4405  19.092   9.759   0.981 -0.2308 -0.0866 -0.3380
66912W        W 4406  24.138  31.429   0.756  0.4908 -0.0557  0.1871
66913W        W 4407   2.259  14.716   0.172 -0.1287  0.0489 -0.0863
66914W        W 4408   2.072  11.061  22.723 -0.0448 -0.5119 -0.1595
66915W        W 4409  26.477  32.488   5.361 -0.1799 -0.2038 -0.2004
66916W        W 4410   8.881  33.275  16.014  0.1014 -0.0266 -0.2184
66917W        W 4411  19.381  19.254  19.033  0.0705  0.0364  0.3199
66918W        W 4412  25.840   9.784   1.607  0.0224  0.0056 -0.1051
66919W        W 4413  34.690  16.247  23.917  0.1009  0.0379  0.1104
66920W        W 4414  29.050  23.493  24.737 -0.0972 -0.2057 -0.3161
66921W        W 4415  15.713  20.375   4.283  0.1031  0.1461 -0.1328
66922W        W 4416  21.151  12.420  18.418 -0.1054  0.0213  0.0782
66923W        W 4417   8.925   8.868  10.993 -0.2859 -0.1376 -0.3280
66924W        W 4418  18.873  34.869   3.383 -0.1187 -0.1374 -0.3684
66925W        W 4419  27.818  12.716  25.219  0.2744 -0.1934 -0.0363
66926W        W 4420   5.405   9.970   2.053  0.3880  0.0094 -0.1971
66927W        W 4421   5.062  35.201   7.774 -0.0589  0.5352 -0.3642
66928W        W 4422   3.791  35.199   9.851  0.0533 -0.1517 -0.0050
66929W        W 4423  31.587  12.973  21.315  0.2863 -0.2729 -0.3323
66930W        W 4424  26.856  16.407   7.238 -0.3607  0.0256  0.0212
66931W        W 4425  26.777   8.799  20.819  0.1965 -0.3477 -0.0846
66932W        W 4426  17.744  16.107   6.669  0.0471  0.0322  0.1637
66933W        W 4427   6.508   3.246  12.076 -0.1368 -0.1577  0.0093
66934W        W 4428  26.467  25.383  21.157  0.1560 -0.2269 -0.2959
66935W        W 4429  14.929  28.527   2.643  0.0422 -0.2824 -0.1564
66936W        W 4430  18.731  32.347   9.771  0.0667  0.0275 -0.2587
66937W        W 4431  14.900   3.927   3.099  0.3083  0.0087  0.0359
66938W        W 4432  22.402  17.854   0.608 -0.0693  0.0609  0.0082
66939W        W 4433  16.136  24.288   1.072  0.2540  0.0134  0.3145
66940W        W 4434   0.925  11.194  15.681 -0.2247  0.2376  0.2039
66941W        W 4435  13.439  35.029   5.297 -0.1779  0.2231  0.0584
66942W        W 4436   7.178   5.917  20.768 -0.0579 -0.0892  0.1729
66943W        W 4437  35.306   2.744   7.851 -0.2282 -0.2941  0.0181
66944W        W 4438  29.308   8.152   0.552 -0.0432  0.0535 -0.1739
66945W        W 4439  27.519  23.220  15.148 -0.0950  0.0160 -0.2369
66946W        W 4440   4.511  11.889  17.844  0.0321 -0.0046 -0.0443
66947W        W 4441  21.209  10.863  23.093 -0.0900  0.0248 -0.0434
66948W        W 4442   1.393  27.885  18.653  0.2795 -0.2354 -0.2416
66949W        W 4443  27.646  23.100  12.932 -0.1961  0.0893 -0.1655
66950W        W 4444  15.378  30.336  25.036 -0.1064  0.1400  0.1168
66951W        W 4445   7.253  19.965   1.989 -0.0976 -0.0563 -0.2309
66952W        W 4446   0.715  27.316   6.402  0.1347 -0.0356  0.1111
66953W        W 4447   4.930  12.825  25.030 -0.2211  0.0667 -0.0064
66954W        W 4448   8.879  35.208  21.043 -0.0073  0.0057 -0.4783
66955W        W 4449  31.921   2.534  20.879  0.0890  0.0588  0.1087
66956W        W 4450  21.092  12.093  16.872 -0.1004 -0.2873  0.2789
66957W        W 4451  31.850  26.433  15.921  0.4517  0.4543  0.3134
66958W        W 4452  26.468   5.249  16.117 -0.1352  0.0363  0.2282
66959W        W 4453  16.401   9.816  12.562 -0.1076  0.1004 -0.2882
66960W        W 4454  14.951  28.375   1.497 -0.1539  0.0322 -0.2190
66961W        W 4455   8.725  31.783  22.377  0.3563 -0.3010 -0.0600
66962W        W 4456  10.758   3.138  22.371  0.2323  0.3551  0.0626
66963W        W 4457  27.719   8.708  16.765 -0.1034 -0.1199  0.2670
66964W        W 4458   7.100  12.677  18.730 -0.3947 -0.0602 -0.1297
66965W        W 4459  21.645   0.496   7.359 -0.0721 -0.2732  0.2497
66966W        W 4460  14.053  16.125   7.164 -0.1010  0.1140  0.0637
66967W        W 4461  18.958  30.311   7.213 -0.0786  0.1633  0.1595
66968W        W 4462   3.667  29.098   8.645  0.2371 -0.2041  0.1438
66969W        W 4463   7.057  23.077   9.427 -0.1381 -0.0360 -0.1942
66970W        W 4464  11.595  14.654   4.633  0.1855 -0.3165  0.1210
66971W        W 4465   5.666  12.439  19.853 -0.1009 -0.3211 -0.1817
66972W        W 4466  22.151  28.309   2.853  0.4688 -0.1890  0.1994
66973W        W 4467  35.111  26.450  17.227 -0.0583 -0.2461  0.1054
66974W        W 4468  32.390  24.191   9.963 -0.2685 -0.0839  0.2898
66975W        W 4469  12.318   1.772   0.790  0.0523 -0.0682 -0.0692
66976W        W 4470  20.777   0.841   3.489  0.0579 -0.0045 -0.0209
66977W        W 4471  28.525  30.891  10.503 -0.2434 -0.0141  0.1777
66978W        W 4472   5.678  15.727  20.047 -0.0675  0.2650  0.0216
66979W        W 4473  15.986  33.193   6.200 -0.1605  0.0099  0.0335
66980W        W 4474   7.324  20.303  10.520  0.0078  0.0881 -0.0952
66981W        W 4475   5.798   4.976  23.038  0.1457 -0.2308 -0.1998
66982W        W 4476   4.872  35.145   4.784  0.3441  0.0034  0.1702
66983W        W 4477  14.675   2.759  19.887 -0.0342 -0.0805  0.1665
66984W        W 4478  14.825  25.441  14.467  0.2154  0.4283  0.1624
66985W        W 4479  26.279  33.419  11.213  0.0298  0.0595 -0.4035
66986W        W 4480  30.607   2.397  23.502 -0.0360 -0.1354  0.1905
66987W        W 4481  21.174   8.679   8.176 -0.2276  0.0380 -0.0119
66988W        W 4482  15.922  11.022  11.581 -0.3961  0.1157  0.2513
66989W        W 4483  14.111  13.975   5.343 -0.0146  0.0853  0.0290
66990W        W 4484  32.478  11.241  13.821  0.2905  0.0021  0.0938
66991W        W 4485  34.009  10.896  10.029  0.1472 -0.0978 -0.1394
66992W        W 4486   9.846  28.144  23.525  0.0186 -0.0167 -0.1449
66993W        W 4487   2.646  34.527  10.611 -0.3629  0.0738  0.0360
66994W        W 4488  35.209  33.546   2.054 -0.3025 -0.1566  0.0018
66995W        W 4489   2.732  32.886  22.153 -0.0368 -0.4487  0.0064
66996W        W 4490  17.991   5.943  17.840 -0.2568  0.2712  0.1002
66997W        W 4491  28.599   0.461   4.757 -0.1786  0.2796 -0.2250
66998W        W 4492  34.466  28.429  21.495  0.2431 -0.3105 -0.2397
66999W        W 4493   8.733  17.261   6.501  0.0926  0.2317 -0.0897
67000W        W 4494  29.287  31.136  15.566  0.1223 -0.0166 -0.1481
67001W        W 4495  25.133   5.851   0.058  0.3982  0.1795 -0.0499
67002W        W 4496   1.880  33.046  10.177  0.1024 -0.1854  0.0369
67003W        W 4497  11.364  21.500   3.478 -0.1208  0.1250  0.3022
67004W        W 4498  19.597  27.685   0.744 -0.1516  0.0476  0.0728
67005W        W 4499  13.921  28.344   3.670  0.2566  0.1362  0.1299
67006W        W 4500  14.472  18.458  20.527  0.3138  0.1335 -0.1541
67007W        W 4501   4.211  16.770  18.577  0.2080 -0.2266  0.0472
67008W        W 4502   8.295   3.884   2.553  0.0997 -0.0568  0.1187
67009W        W 4503   8.473  14.833   7.572 -0.1100 -0.0353  0.0394
67010W        W 4504  12.760  21.129  13.335  0.1846  0.3427  0.3923
67011W        W 4505   2.611  14.221  20.495  0.2615 -0.1987  0.1920
67012W        W 4506  16.242   2.773   4.631 -0.0354 -0.0583  0.1696
67013W        W 4507   5.746   0.227  12.112 -0.1386 -0.3869 -0.0516
67014W        W 4508  34.620  26.553  16.157 -0.0054 -0.1133 -0.0459
67015W        W 4509   1.381  24.649  16.883  0.1699  0.4168  0.2166
67016W        W 4510  14.388  25.563  23.491  0.1537 -0.2752  0.1543
67017W        W 4511  18.690  13.483   3.397 -0.0574  0.0477  0.0631
67018W        W 4512  22.336  12.993   2.868  0.0622  0.0895  0.0583
67019W        W 4513  15.836  21.659  14.817 -0.3195  0.5090  0.1082
67020W        W 4514  14.413   8.869   8.931 -0.0246 -0.2954  0.1060
67021W        W 4515  15.669   9.151   2.065 -0.1435  0.0256 -0.3236
67022W        W 4516   1.458   3.954  17.359  0.2179 -0.3206 -0.0775
67023W        W 4517   9.406  21.345  10.929  0.2099 -0.0436 -0.0060
67024W        W 4518  20.380   2.472   9.788 -0.2107  0.0826  0.0286
67025W        W 4519  24.574   0.671  21.267 -0.2650  0.2701 -0.2132
67026W        W 4520  34.731  17.623  21.786  0.0019 -0.1558  0.0765
67027W        W 4521  18.138   8.179  21.085  0.1923 -0.1255 -0.1657
67028W        W 4522  15.461  28.924   6.102  0.1379  0.0627  0.3980
67029W        W 4523  20.212  16.514   6.305  0.0426  0.0835 -0.2097
67030W        W 4524  19.998  31.279  16.305  0.0264 -0.1559 -0.3253
67031W        W 4525  13.484  34.209   3.816  0.2773  0.0067 -0.1489
67032W        W 4526  21.418  16.037  20.433 -0.3026  0.0704  0.0747
67033W        W 4527  32.097   0.878   2.302  0.2771 -0.3701  0.4216
67034W        W 4528  29.842  33.081  12.222 -0.0334  0.1064  0.2748
67035W        W 4529  20.849  13.449  25.104  0.1355 -0.5799  0.1130
67036W        W 4530  23.496   7.109   3.912 -0.0128  0.4329  0.0332
67037W        W 4531  27.345   6.159  18.428 -0.0841  0.4053 -0.1669
67038W        W 4532  25.831  35.372  22.171  0.0070  0.3085  0.1796
67039W        W 4533   7.639  27.690   3.526 -0.2638 -0.0442 -0.1406
67040W        W 4534   2.689  33.782  18.311 -0.1702 -0.0554  0.0247
67041W        W 4535   6.358  10.350   5.609 -0.0984 -0.1518 -0.0227
67042W        W 4536  15.388  28.141   2.789 -0.0873  0.1318 -0.2416
67043W        W 4537  20.043   4.517  17.653 -0.1529 -0.2667  0.2919
67044W        W 4538  19.690   7.323  17.416  0.0784 -0.0271  0.1021
67045W        W 4539  11.688  27.915  24.142  0.0774 -0.1061 -0.0609
67046W        W 4540   8.125  32.447   2.319  0.0663 -0.1660  0.1821
67047W        W 4541  16.624  28.963  21.410 -0.1414  0.1258  0.2329
67048W        W 4542   2.785  30.208  24.104  0.0100  0.2611 -0.2512
67049W        W 4543  12.254  34.318  13.292  0.0299 -0.0168  0.0531
67050W        W 4544  33.047  27.133  13.766  0.0518 -0.3549 -0.0389
67051W        W 4545   8.773   6.354  10.097 -0.0477 -0.0963  0.1688
67052W        W 4546   4.760  34.624  25.651 -0.0367 -0.1348  0.3653
67053W        W 4547   0.613  15.814  16.122 -0.1669  0.0383 -0.0269
67054W        W 4548  14.325  27.633  15.342  0.0221  0.4209 -0.1511
67055W        W 4549  33.367  12.133  15.864  0.0965 -0.4208 -0.1601
67056W        W 4550  10.768   8.625  25.746 -0.0872  0.0076  0.0247
67057W        W 4551  33.845   4.182  15.825  0.0002 -0.0169 -0.4251
67058W        W 4552  26.702   6.652   3.377 -0.0933 -0.0175 -0.1564
67059W        W 4553  10.133  15.402   0.247 -0.2471  0.0510 -0.0472
67060W        W 4554   9.025  26.885   0.696  0.1581 -0.1079 -0.0086
67061W        W 4555  26.181  10.448  22.484  0.2498 -0.0681  0.3697
67062W        W 4556   2.270  14.703   1.557  0.2490  0.2796 -0.0658
67063W        W 4557  11.151  17.374   5.425  0.4219  0.1248 -0.0534
67064W        W 4558   3.399  34.395   2.177  0.1984  0.0000 -0.0811
67065W        W 4559  22.404  31.359  16.945  0.2580  0.1003 -0.0753
67066W        W 4560  33.097  34.155  18.926  0.0488 -0.0088  0.1775
67067W        W 4561  22.611  14.022  25.571 -0.0987  0.1482 -0.0489
67068W        W 4562  13.588   9.967   3.423  0.1026 -0.0402 -0.1812
67069W        W 4563  34.612   7.694  24.647  0.1612  0.1092 -0.4189
67070W        W 4564   2.793  26.093  23.580  0.0262  0.0071 -0.0960
67071W        W 4565  23.648   6.596  14.579  0.0056 -0.3978  0.2267
67072W        W 4566  18.480  31.873   4.879 -0.0186 -0.0432 -0.5407
67073W        W 4567  30.626   2.248   6.617  0.3194 -0.1589  0.1454
67074W        W 4568  33.635   5.169  25.791 -0.0073  0.0754  0.0224
67075W        W 4569  15.395  31.599  13.598 -0.1380 -0.0965  0.0161
67076W        W 4570  11.190   4.839  20.925 -0.2192  0.2810  0.2389
67077W        W 4571  14.191  18.554   6.560  0.0030 -0.3352  0.0084
67078W        W 4572  30.781   8.269  24.880 -0.3141 -0.1348 -0.2048
67079W        W 4573   3.806  32.296  24.040  0.0184 -0.1775  0.3324
67080W        W 4574  31.909  19.620  10.896  0.3381 -0.1455 -0.0274
67081W        W 4575  14.747  27.773  15.015  0.0607  0.2037 -0.3764
67082W        W 4576   8.403  32.714  12.918  0.1516 -0.2890  0.0359
67083W        W 4577  24.685   2.552  24.676 -0.2590  0.1552 -0.0634
67084W        W 4578   2.205  34.838  23.181  0.2132  0.2876  0.2088
67085W        W 4579  19.387  33.198  24.809  0.2392 -0.0275  0.1539
67086W        W 4580  22.798  26.585  25.468  0.1937  0.1240  0.1840
67087W        W 4581  21.028  19.577  19.780  0.2825 -0.0209  0.2455
67088W        W 4582  22.938   1.949  19.090  0.2390 -0.2637 -0.0301
67089W        W 4583   9.738   4.454   2.584  0.0305  0.1574  0.1384
67090W        W 4584   3.635  29.997  25.145 -0.1070 -0.1853  0.0314
67091W        W 4585   6.601  28.831  15.505 -0.1050 -0.0709  0.0722
67092W        W 4586  25.976  10.572  23.786  0.0198 -0.2671 -0.1215
67093W        W 4587  28.032   0.957   3.801 -0.0233 -0.1299 -0.1669
67094W        W 4588   7.365  10.623  19.679  0.2067 -0.0504 -0.0064
67095W        W 4589  28.614  25.959  11.293  0.3202  0.0604  0.1344
67096W        W 4590  32.813  18.354  12.964 -0.0288 -0.1115 -0.1148
67097W        W 4591   7.995   7.760  22.745 -0.0976 -0.2183  0.1480
67098W        W 4592   7.813  29.027   2.948  0.0769 -0.1665  0.1549
67099W        W 4593  14.463   6.185  23.299 -0.2271 -0.1896 -0.1101
67100W        W 4594  12.317  27.274   2.182 -0.0162 -0.4668  0.1979
67101W        W 4595   5.689   7.124   3.147  0.0200  0.0223  0.0490
67102W        W 4596   2.223  12.432  24.920 -0.1307 -0.2045  0.0315
67103W        W 4597  35.344  32.816   8.372 -0.0689  0.0044 -0.0093
67104W        W 4598  32.904  12.997   6.074  0.0734 -0.0953  0.0636
67105W        W 4599  27.798   1.401  19.244  0.1392 -0.0092  0.0474
67106W        W 4600  31.491  13.319   9.990 -0.2045 -0.4240  0.1680
67107W        W 4601  25.566   6.110  14.072  0.1297 -0.0189  0.1229
67108W        W 4602  28.553  21.885  16.563  0.1185  0.0191  0.0908
67109W        W 4603  17.190  26.497   0.763  0.1178  0.1270 -0.3586
67110W        W 4604  12.529  15.978  10.707  0.1531  0.0042  0.3132
67111W        W 4605   7.699  19.828  21.552  0.1794  0.0349 -0.0895
67112W        W 4606  17.566  26.255   5.212  0.1589 -0.1972  0.4613
67113W        W 4607   4.447  12.467  19.821 -0.1091  0.1845 -0.3420
67114W        W 4608  27.603  27.616   1.280  0.1283  0.3600  0.3777
67115W        W 4609   5.873  27.629  14.932 -0.1570  0.0556 -0.3970
67116W        W 4610  34.512  23.551  13.789 -0.1493  0.1800  0.0336
67117W        W 4611  22.408  12.871   1.842 -0.0111  0.1465 -0.0439
67118W        W 4612  22.174  24.109   1.627  0.0541  0.1478 -0.0427
67119W        W 4613  19.278  29.401  24.183 -0.5528 -0.1385  0.0431
67120W        W 4614  30.949  16.490  12.225  0.0417 -0.0147  0.0122
67121W        W 4615  25.061  11.376  15.385 -0.1456  0.2190  0.3437
67122W        W 4616  34.451  28.907  16.273 -0.0988  0.0241  0.0641
67123W        W 4617  19.867  10.804  19.314  0.0050  0.1787  0.2289
67124W        W 4618   5.472  34.914   0.621  0.0471  0.1471 -0.2048
67125W        W 4619  10.561   7.999   9.745 -0.0489  0.0542 -0.0740
67126W        W 4620  17.579  13.906  10.182  0.0880 -0.0141 -0.2296
67127W        W 4621   3.493  11.303   2.475 -0.3401  0.0541  0.1185
67128W        W 4622  15.009  18.005   2.051  0.0179  0.1548  0.0635
67129W        W 4623  23.240   2.650  16.412 -0.0283  0.1469 -0.3509
67130W        W 4624   0.322   4.904  22.804 -0.1128  0.0322  0.0672
67131W        W 4625  18.684  27.698  23.795 -0.1592 -0.2765 -0.0822
67132W        W 4626   2.475  32.989   0.075 -0.1318 -0.0863 -0.1493
67133W        W 4627   7.175  27.056   9.007 -0.0123 -0.0472  0.2794
67134W        W 4628  28.508  23.092  23.372  0.2687  0.2117  0.0437
67135W        W 4629   6.106  26.052   0.938  0.3406 -0.0637  0.0370
67136W        W 4630  21.428  31.514   4.373  0.1176  0.1002 -0.0475
67137W        W 4631  25.654  15.532  20.526 -0.0474  0.0211 -0.0686
67138W        W 4632  32.862  24.806  15.106 -0.0234 -0.1369 -0.4154
67139W        W 4633  24.715   0.150   2.071 -0.1674  0.0790 -0.1975
67140W        W 4634  14.343  22.914  11.634 -0.0675 -0.1168  0.2389
67141W        W 4635  12.169   1.943   8.799 -0.0521 -0.4001 -0.0478
67142W        W 4636   1.057   0.963   2.385 -0.1094  0.2268  0.0533
67143W        W 4637  28.788  20.165   9.754  0.0878  0.0046  0.0038
67144W        W 4638  31.787  19.159   5.762  0.3237  0.2911  0.1464
67145W        W 4639  10.435   2.008   3.266 -0.0827  0.0391 -0.2161
67146W        W 4640  27.361  22.927  22.439 -0.0732  0.0836  0.1762
67147W        W 4641   4.680  32.335  20.911  0.0322  0.4985  0.0123
67148W        W 4642  18.041   3.013  16.648 -0.0199  0.3023 -0.1460
67149W        W 4643  17.828  21.309   0.621  0.0781  0.3674 -0.0840
67150W        W 4644   0.016   6.661  26.245 -0.0452  0.0935  0.2263
67151W        W 4645   8.828  25.615  13.312  0.1397 -0.0138 -0.0876
67152W        W 4646   5.524  14.863   8.975  0.0473 -0.1684  0.2780
67153W        W 4647  11.604  34.555  23.759  0.0503  0.0535  0.0750
67154W        W 4648  12.035  14.857   0.287 -0.0456  0.2234 -0.1650
67155W        W 4649  27.449  15.776  14.745  0.2311 -0.3433 -0.0018
67156W        W 4650  12.816  22.997   8.063 -0.2527 -0.1679 -0.3285
67157W        W 4651  21.907  11.786   2.837  0.4608 -0.3120  0.0015
67158W        W 4652  22.783   4.758  17.324  0.0789 -0.3863 -0.0465
67159W        W 4653   6.990  35.005  21.655  0.2859 -0.3089  0.3556
67160W        W 4654  20.687   7.470   5.969  0.0074 -0.0303 -0.1397
67161W        W 4655   1.806  33.489   5.651  0.3750 -0.2288 -0.2179
67162W        W 4656  19.725   0.101  15.180 -0.2987  0.3976  0.0841
67163W        W 4657  24.913  28.321  17.272  0.0131  0.0588  0.0202
67164W        W 4658   0.511  17.595  12.598 -0.2090  0.0810  0.0300
67165W        W 4659   1.633  13.512  14.887 -0.0930  0.0727  0.0158
67166W        W 4660  34.807  25.833   1.253  0.0103  0.1405  0.0302
67167W        W 4661  11.938  11.652  19.222  0.0501 -0.1005  0.0505
67168W        W 4662  14.331  34.823  19.297  0.3767 -0.1898  0.2572
67169W        W 4663   6.370  24.442  11.024 -0.0382 -0.0895 -0.0161
67170W        W 4664  11.266  15.183  18.919 -0.0469 -0.0927  0.3036
67171W        W 4665  20.289   3.084   7.309  0.0014  0.1633  0.0828
67172W        W 4666  22.480   4.298   0.565  0.0691 -0.1118 -0.0093
67173W        W 4667  33.657  17.998   6.148 -0.0757 -0.0857 -0.0687
67174W        W 4668   5.196  11.448   6.649 -0.0418 -0.2172 -0.2844
67175W        W 4669   4.618  13.283  23.194  0.2014 -0.2148  0.1707
67176W        W 4670  34.470  22.399  25.760 -0.0768  0.0294 -0.4457
67177W        W 4671  28.107  27.811  12.643 -0.0988  0.1495  0.3004
67178W        W 4672   7.902  14.136  24.942 -0.1224  0.2551 -0.0510
67179W        W 4673  20.791  28.855  25.823 -0.1352 -0.1418 -0.0225
67180W        W 4674  35.210  29.163  17.272 -0.1859  0.4014 -0.1559
67181W        W 4675  31.322   3.401   0.869 -0.1558  0.3357  0.0542
67182W        W 4676   2.134  16.505  22.560 -0.0333  0.2883 -0.0751
67183W        W 4677  31.014  22.767  12.871  0.3587  0.0584  0.1535
67184W        W 4678  10.726   4.157  13.138  0.5830  0.0437 -0.3434
67185W        W 4679  32.190  12.394  12.489  0.0455 -0.0263 -0.2760
67186W        W 4680  31.837  21.430   6.350  0.1272 -0.1658  0.1579
67187W        W 4681  18.895  10.919  10.119 -0.0970  0.0041  0.1531
67188W        W 4682   3.805  33.996   2.088 -0.3727  0.1073 -0.0210
67189W        W 4683   5.930  28.536  21.451  0.0461  0.0184 -0.2464
67190W        W 4684  24.166  20.001  25.789  0.4212 -0.0597  0.1394
67191W        W 4685   2.425  21.787  15.419  0.1411  0.2105 -0.0742
67192W        W 4686  22.092   4.569   7.801 -0.1832  0.2829  0.0392
67193W        W 4687  29.886  23.350  21.523 -0.3558  0.1647 -0.0267
67194W        W 4688  25.599   6.989  25.569 -0.0677 -0.2079 -0.2479
67195W        W 4689  15.643  22.412  24.849 -0.0064  0.0338  0.1559
67196W        W 4690   5.849  10.580  10.126  0.0455  0.0216  0.0108
67197W        W 4691   9.231   2.403   7.663 -0.0191 -0.2329  0.1867
67198W        W 4692  11.651  27.626   3.040 -0.0177  0.1986 -0.0725
67199W        W 4693  17.941   5.394  23.483 -0.2671  0.0582  0.1164
67200W        W 4694   3.492   0.496  17.500 -0.0314  0.2406 -0.3487
67201W        W 4695  10.240  10.943  22.945  0.1652 -0.0600  0.1650
67202W        W 4696   9.730  25.839  14.910 -0.0278 -0.3284 -0.0563
67203W        W 4697  23.628  34.818   4.619  0.0846 -0.2302  0.1776
67204W        W 4698  12.233  10.962  10.394  0.0434 -0.0528  0.2179
67205W        W 4699  18.714   0.619  16.149 -0.3632 -0.0842  0.0331
67206W        W 4700  30.862  22.064  11.107 -0.0249  0.0237 -0.0330
67207W        W 4701   4.063   3.531  22.537  0.2726  0.1751  0.0571
67208W        W 4702   3.610  23.337   4.520  0.0821 -0.0048  0.2401
67209W        W 4703   1.619  24.970  16.589  0.2777 -0.0469  0.0823
67210W        W 4704   8.946  18.334  25.683 -0.1337  0.3901 -0.1042
67211W        W 4705  29.944   5.913  15.390 -0.1457 -0.2413 -0.0354
67212W        W 4706  25.692  14.653  21.788 -0.0454  0.4011  0.1801
67213W        W 4707  26.307   0.354  13.736 -0.1215 -0.0389 -0.0573
67214W        W 4708   5.774  30.623  21.220 -0.0833  0.1184  0.0258
67215W        W 4709   4.622  18.973   1.425  0.4713 -0.0827 -0.0292
67216W        W 4710   8.223  23.781   7.152 -0.0703 -0.0536  0.1343
67217W        W 4711  13.962   0.480   6.226 -0.0177  0.2036  0.0915
67218W        W 4712  28.537  20.464  20.740  0.2637 -0.0485  0.0847
67219W        W 4713   9.674   1.526  24.740  0.1294 -0.1256 -0.0055
67220W        W 4714  12.958  26.879  10.411 -0.0237 -0.0887  0.2547
67221W        W 4715  21.660  32.998   4.733  0.1717 -0.0913  0.4636
67222W        W 4716   2.667  29.041   6.113  0.2307 -0.1999 -0.0659
67223W        W 4717  15.915  30.473  23.345  0.1163 -0.0578 -0.2124
67224W        W 4718  13.144  28.717  22.165  0.0842 -0.0273 -0.2361
67225W        W 4719   2.844   7.798  17.089 -0.1323  0.0876 -0.0937
67226W        W 4720  26.034  31.579   0.501  0.3522 -0.2365  0.0367
67227W        W 4721  24.326  28.958  17.381 -0.1129 -0.0608  0.0479
67228W        W 4722   5.730  18.562  23.188 -0.2333  0.1484  0.3721
67229W        W 4723  19.927  24.157   7.626  0.0972 -0.0042 -0.1365
67230W        W 4724  30.800   8.662   2.348  0.0189  0.0400  0.2694
67231W        W 4725   1.626   2.899  21.387 -0.2905  0.2984 -0.1305
67232W        W 4726   6.522  10.588   6.948  0.3132 -0.0226 -0.3322
67233W        W 4727  25.574  19.998  25.493 -0.2643 -0.1207 -0.1356
67234W        W 4728   3.390  29.836  11.726 -0.1348  0.2565  0.1664
67235W        W 4729  17.067  10.831  18.335 -0.1891  0.0020 -0.0029
67236W        W 4730  16.685  25.410   8.019 -0.1724 -0.0960 -0.0202
67237W        W 4731   2.197  34.155   2.592 -0.1195  0.0514  0.1202
67238W        W 4732   4.649  13.815   3.562  0.4084 -0.0389  0.1008
67239W        W 4733  27.743  34.801  13.913  0.1040 -0.2870  0.0933
67240W        W 4734  11.175  22.998  17.230  0.0117 -0.2366  0.0118
67241W        W 4735  18.828  32.826   4.354  0.2192 -0.0730 -0.1030
67242W        W 4736  10.906  34.277  25.386 -0.2994  0.1372  0.1027
67243W        W 4737   7.648   7.194  23.880 -0.0180 -0.1251 -0.2031
67244W        W 4738  31.746   0.633   2.620  0.3691  0.0690  0.2020
67245W        W 4739  19.263  20.540   3.948 -0.1116  0.0185  0.1622
67246W        W 4740  25.529  16.866  17.461  0.2881  0.1944 -0.1801
67247W        W 4741  27.498  28.367  10.637 -0.1309 -0.1815  0.2720
67248W        W 4742   7.941  21.896   0.315  0.0842 -0.2011  0.1430
67249W        W 4743   8.387  24.414  24.599  0.0071  0.1760 -0.0986
67250W        W 4744  32.478  16.415  14.854 -0.0156 -0.3880 -0.2844
67251W        W 4745  32.176   0.387  18.585 -0.1688 -0.4065 -0.1065
67252W        W 4746  15.068   6.410  10.720 -0.2980 -0.4162 -0.2393
67253W        W 4747  34.834  18.836  19.080 -0.2916 -0.0438 -0.0652
67254W        W 4748  10.076   4.116   3.006  0.1962  0.1193  0.0955
67255W        W 4749  23.409  29.232  19.574 -0.1090 -0.0044  0.1068
67256W        W 4750   7.913  29.159  16.226 -0.1017 -0.1936  0.4840
67257W        W 4751  30.914  33.071  24.156 -0.2593  0.0548  0.1507
67258W        W 4752  12.261   5.008   4.238  0.1237  0.2090 -0.3832
67259W        W 4753  15.597  14.759  13.013 -0.0746  0.0205  0.0157
67260W        W 4754  34.370  28.759   6.201  0.1755 -0.1613  0.1291
67261W        W 4755  11.216  26.257   5.787  0.1257 -0.0245 -0.0370
67262W        W 4756  18.105  17.631   1.863  0.0692 -0.1041 -0.0732
67263W        W 4757  18.282  30.300  20.962  0.0438  0.1267 -0.0768
67264W        W 4758  11.930   5.290  25.465 -0.1724  0.1802  0.2971
67265W        W 4759   1.651   6.530  17.944 -0.1995  0.0645 -0.2876
67266W        W 4760   3.600   9.127  24.251 -0.2158 -0.3079 -0.1905
67267W        W 4761  32.386  19.691  12.404 -0.1935  0.2240  0.4411
67268W        W 4762   4.698  18.514   1.327 -0.0079  0.1708 -0.3473
67269W        W 4763  30.120  29.250  12.583 -0.0337  0.2055  0.1125
67270W        W 4764   5.784  13.583  17.607 -0.2614 -0.0265  0.2237
67271W        W 4765   1.136  13.331   0.836 -0.1287  0.2561  0.1430
67272W        W 4766  15.054  28.293  21.938  0.0501 -0.0423 -0.0120
67273W        W 4767   4.046  21.010   0.525  0.0082  0.1927  0.0671
67274W        W 4768   1.626  16.424  16.554 -0.0668  0.1973 -0.2254
67275W        W 4769   6.723  29.889   9.941  0.0978 -0.1081 -0.2875
67276W        W 4770  30.551   8.904  21.294  0.0822 -0.1564  0.1569
67277W        W 4771  29.610  16.314  14.761  0.0880  0.1023  0.2471
67278W        W 4772   5.162  31.256   8.347 -0.3490  0.1748 -0.0115
67279W        W 4773  26.110  34.256  17.524  0.2221  0.1124 -0.0519
67280W        W 4774   6.825  33.736  26.250 -0.0016 -0.1121 -0.1262
67281W        W 4775  12.212  25.376  15.277 -0.1416 -0.0523 -0.3581
67282W        W 4776   0.767   5.233  23.988  0.0602 -0.1510  0.2202
67283W        W 4777  23.708  13.699  22.363  0.2945 -0.0605  0.0380
67284W        W 4778  32.242  32.080  15.974  0.0961 -0.2627 -0.0273
67285W        W 4779  16.870   2.503   3.778 -0.1097 -0.2428  0.0685
67286W        W 4780  13.706  31.849  13.284  0.4567 -0.1066  0.2279
67287W        W 4781  30.369  34.477   2.186  0.0895 -0.1807 -0.1127
67288W        W 4782   2.967  12.276   5.267 -0.1849 -0.1674 -0.1052
67289W        W 4783  29.073   3.106  13.111  0.1124  0.1408  0.0132
67290W        W 4784   9.679  22.853   6.628  0.2855 -0.2357  0.0975
67291W        W 4785  19.933   9.966  19.307  0.2478  0.1570  0.0804
67292W        W 4786  25.935  28.998  24.144 -0.0997  0.0464  0.0022
67293W        W 4787  32.618  23.987   8.323 -0.0444 -0.0538 -0.0018
67294W        W 4788  22.959  10.576  25.179  0.1587  0.3163  0.1121
67295W        W 4789  27.666  11.846   9.358  0.1913 -0.0877  0.1798
67296W        W 4790  14.085  25.303  10.593  0.0151 -0.0454  0.1128
67297W        W 4791  17.499  16.323   9.622  0.0886  0.1521  0.1565
67298W        W 4792  21.657  15.213   2.939 -0.1726 -0.0144  0.2686
67299W        W 4793  23.737  21.702   2.245  0.1516  0.1621  0.1225
67300W        W 4794  18.866  31.718  25.642 -0.0583 -0.1361  0.0809
67301W        W 4795  32.810   8.530   1.677  0.2012  0.4308  0.0000
67302W        W 4796   8.313  20.178   4.471 -0.0095 -0.2831 -0.0460
67303W        W 4797  31.516   3.046  23.327 -0.0934  0.2686  0.2586
67304W        W 4798  25.918  33.086  16.038 -0.0079  0.1681  0.1940
67305W        W 4799  18.992  27.540   5.842  0.1263  0.0714  0.1420
67306W        W 4800  16.895  19.480  22.799  0.3135  0.0427 -0.1126
67307W        W 4801  33.479  13.875  22.314  0.2395  0.1307  0.1383
67308W        W 4802  10.215  17.234   1.614 -0.2111  0.3506 -0.1154
67309W        W 4803  12.227   1.820   3.918  0.0490 -0.2053 -0.0393
67310W        W 4804   0.625  21.628  17.402 -0.0865 -0.0819  0.1437
67311W        W 4805   2.145   8.082  14.992 -0.1823  0.0311 -0.1450
67312W        W 4806  14.212  34.104   0.114  0.0624 -0.0557  0.0367
67313W        W 4807  19.784  19.747  25.320 -0.1421  0.0497  0.0441
67314W        W 4808   1.004  31.457  23.255 -0.0201 -0.3576 -0.1710
67315W        W 4809   2.808  20.212  16.050 -0.0188  0.2691  0.2613
67316W        W 4810  24.812  31.017  22.859  0.1307  0.1313 -0.1371
67317W        W 4811  17.542   2.167  15.608 -0.0298  0.0873 -0.2527
67318W        W 4812  11.106  10.112   5.105 -0.1314  0.0855  0.1484
67319W        W 4813   3.119  26.962  25.830 -0.1476  0.0768  0.1173
67320W        W 4814   9.332  27.477   8.945  0.1328 -0.2612  0.1437
67321W        W 4815  16.416  33.152  10.265  0.1289 -0.1170  0.1222
67322W        W 4816  32.976   6.056  19.285 -0.0818 -0.0555 -0.1696
67323W        W 4817   3.875  20.507  15.279  0.1084 -0.3341 -0.2619
67324W        W 4818  13.889  21.214   1.969 -0.2525 -0.0422 -0.2075
67325W        W 4819   2.455  32.826  23.567 -0.0209 -0.0150 -0.1781
67326W        W 4820  10.660   4.318  10.195  0.0472 -0.1549  0.2838
67327W        W 4821  10.983   5.246   0.860 -0.0232  0.3116  0.2965
67328W        W 4822  27.063   7.819  24.332 -0.0135  0.3903 -0.1724
67329W        W 4823   9.405  31.794  25.330  0.1681 -0.2771 -0.0269
67330W        W 4824  15.655  32.522  24.822 -0.0055  0.4397 -0.3193
67331W        W 4825  26.138  29.977  21.287 -0.4005  0.0070  0.2797
67332W        W 4826  32.709   3.636   6.905  0.2312  0.3343  0.0221
67333W        W 4827  27.490   5.282  11.460  0.0901  0.0984 -0.1299
67334W        W 4828  25.969  13.096  15.986  0.1180  0.2587 -0.0323
67335W        W 4829  14.716  24.351  24.170 -0.3319  0.1286 -0.0900
67336W        W 4830  15.842  30.927  11.704  0.1826 -0.2726 -0.2098
67337W        W 4831   7.443  17.279   2.105 -0.3013  0.2281 -0.1486
67338W        W 4832   0.223   3.807  17.204 -0.0052  0.0843  0.1666
67339W        W 4833  28.456  19.361  18.892 -0.3413  0.1011 -0.1666
67340W        W 4834  26.553  22.538  21.938 -0.1761 -0.1319  0.0087
67341W        W 4835  21.633   2.595   4.566  0.0347 -0.1031  0.2362
67342W        W 4836  30.092   2.019  20.442  0.0377 -0.1296  0.0392
67343W        W 4837  22.359  19.168  21.331  0.0311 -0.1466 -0.0508
67344W        W 4838  31.986  21.386  12.298  0.0556  0.0923 -0.1623
67345W        W 4839  10.709  11.713   0.293 -0.0349 -0.2063 -0.0338
67346W        W 4840  24.840  34.451  16.647  0.0472 -0.0209  0.1221
67347W        W 4841  24.957   7.451  23.924  0.1955 -0.0970 -0.1879
67348W        W 4842   6.572  32.361  14.104  0.0543  0.1274 -0.1453
67349W        W 4843   0.311   1.868   3.019  0.0254  0.3463 -0.3449
67350W        W 4844  13.349  26.496   6.467  0.0033 -0.0414 -0.0051
67351W        W 4845  23.218  32.783  17.625  0.2507 -0.0157 -0.0028
67352W        W 4846  32.978  34.049  24.282 -0.1331  0.1429  0.1007
67353W        W 4847   1.006   2.877   2.324 -0.0600 -0.0510  0.0050
67354W        W 4848  10.262  16.818   6.309 -0.1263  0.0421  0.2148
67355W        W 4849   8.460   1.258  23.135  0.0628  0.0181 -0.2009
67356W        W 4850  29.525   2.508  21.596  0.1381 -0.1208  0.1456
67357W        W 4851  22.095  11.225  16.980 -0.1907 -0.2222 -0.1874
67358W        W 4852  23.479  13.504  21.537  0.0314 -0.2054  0.0405
67359W        W 4853  33.743  34.234   0.113 -0.0716 -0.0556  0.0038
67360W        W 4854   3.350   9.561  22.139  0.1721 -0.1450 -0.1193
67361W        W 4855  10.712   7.131  18.960 -0.3221  0.1165 -0.2451
67362W        W 4856   1.002  18.937  11.525  0.3765  0.0219 -0.2449
67363W        W 4857  10.121  12.017   6.854  0.1907  0.2871 -0.1372
67364W        W 4858   4.089  20.986   2.291  0.1887  0.5113 -0.4001
67365W        W 4859   7.138  22.244   2.543 -0.0404  0.0672  0.1064
67366W        W 4860  34.588  20.620  10.734 -0.2403 -0.1486  0.0487
67367W        W 4861  10.496  18.134  14.699 -0.0231  0.0865 -0.0456
67368W        W 4862  12.100   0.898   1.830 -0.0389 -0.3783 -0.1437
67369W        W 4863   6.444   7.697  18.788  0.1328 -0.2591 -0.4762
67370W        W 4864   9.972  34.130  16.149 -0.1721 -0.1932 -0.2269
67371W        W 4865  24.817  29.385  20.125  0.2853 -0.1245 -0.2196
67372W        W 4866  20.402  21.495   5.756 -0.2657  0.0812 -0.1436
67373W        W 4867   9.572  29.314   4.277  0.2444 -0.0638  0.2930
67374W        W 4868  30.554   4.041   4.756 -0.3147  0.1916 -0.1269
67375W        W 4869  18.109   1.427  25.880  0.1992  0.0734 -0.1604
67376W        W 4870   1.923  20.807  12.860 -0.0612 -0.1176 -0.2716
67377W        W 4871  23.322   7.670  25.801 -0.3073  0.1552  0.1520
67378W        W 4872  26.724  24.961   7.838  0.0988 -0.1191  0.0114
67379W        W 4873  16.043   4.171  24.807 -0.2222 -0.0759 -0.1624
67380W        W 4874  29.658   6.905  11.089 -0.1710  0.0189  0.1275
67381W        W 4875  11.734  34.726  10.268  0.0813  0.0278 -0.1436
67382W        W 4876  32.662   0.469   1.795 -0.0396 -0.0850 -0.1267
67383W        W 4877  13.164  31.178   2.548  0.1819 -0.3124  0.1644
67384W        W 4878  27.231   7.074  24.996  0.1720  0.2128 -0.4212
67385W        W 4879  11.963  31.869  10.743 -0.2860  0.0570 -0.0833
67386W        W 4880  30.209  34.488  24.030  0.3453  0.0401 -0.2575
67387W        W 4881   0.479   5.333   6.704  0.0938 -0.1708  0.0501
67388W        W 4882  20.944  24.373  21.716  0.2258  0.0968 -0.3892
67389W        W 4883  18.066  11.026   8.553  0.4013 -0.1847  0.1847
67390W        W 4884  25.700  12.257   1.200  0.0650 -0.3037 -0.1095
67391W        W 4885  17.480  13.033  24.388  0.0521  0.3940 -0.1949
67392W        W 4886  22.863  14.022  22.085 -0.0790 -0.1201 -0.2210
67393W        W 4887  25.378  26.941  10.967  0.1885  0.5111 -0.1772
67394W        W 4888  15.850   0.899  24.969  0.0342  0.0132  0.3644
67395W        W 4889  15.752  32.839  25.276 -0.1094  0.1845  0.1681
67396W        W 4890  11.048   1.525   7.641  0.0910 -0.1390  0.0651
67397W        W 4891   5.992  23.158   0.554  0.3902 -0.1090 -0.1127
67398W        W 4892  11.935  28.758  11.499 -0.2041  0.2655  0.2451
67399W        W 4893  34.754  25.731  17.278  0.1235  0.0565 -0.0428
67400W        W 4894  13.773  25.814  11.607  0.2192  0.1471 -0.3030
67401W        W 4895  25.272  13.898  26.080  0.0950 -0.0145 -0.0654
67402W        W 4896  16.697  10.255   7.215 -0.0493  0.0121  0.0226
67403W        W 4897   7.419  27.985   0.457  0.1634  0.1613  0.0697
67404W        W 4898  25.038  31.534   4.891 -0.1723  0.0161 -0.1332
67405W        W 4899  32.459  21.236  14.886 -0.1552 -0.1456  0.0811
67406W        W 4900   9.198   7.448   9.256 -0.2569  0.0772  0.0442
67407W        W 4901  17.222   3.909  23.959  0.0442  0.2725  0.1183
67408W        W 4902  34.232   9.561  19.784 -0.0970 -0.6113  0.2159
67409W        W 4903  27.522   9.747  23.003  0.0679 -0.2274 -0.0320
67410W        W 4904  31.705   4.919  12.909  0.1502 -0.2392  0.1020
67411W        W 4905  12.314  28.899   9.643  0.2380 -0.1295  0.3584
67412W        W 4906  13.308  22.131   0.923 -0.2475  0.4583  0.1033
67413W        W 4907  12.495  27.771   5.967  0.0660  0.1496 -0.3670
67414W        W 4908  32.564   5.276  17.928 -0.1849 -0.2791  0.2953
67415W        W 4909  24.420  11.080  13.702 -0.1316  0.1615 -0.0528
67416W        W 4910  21.849  24.966  17.950 -0.0777  0.1560  0.2223
67417W        W 4911  28.623  30.292   2.675 -0.2464 -0.3479  0.3247
67418W        W 4912  34.877   8.942  20.520 -0.1944 -0.0172 -0.2867
67419W        W 4913  28.021  10.709   7.626 -0.1928 -0.1674  0.0908
67420W        W 4914  33.705  10.288  14.134  0.1777  0.2468 -0.3980
67421W        W 4915  34.826  12.820  11.567  0.0889  0.1947 -0.2080
67422W        W 4916  26.283   3.066  13.988 -0.2429 -0.1682 -0.0308
67423W        W 4917  23.237  29.291  24.044  0.1630  0.2563  0.2321
67424W        W 4918  17.650  11.172   6.215  0.0709 -0.3802 -0.1124
67425W        W 4919  33.309   5.170  18.180 -0.2241  0.0497 -0.3071
67426W        W 4920   9.389  12.305   0.158  0.0295 -0.0685 -0.2212
67427W        W 4921   6.502  25.748   5.788 -0.1618  0.2098 -0.1537
67428W        W 4922   1.663  11.793  24.128 -0.0253 -0.1820 -0.0088
67429W        W 4923  10.553   5.845   3.054 -0.1035 -0.2501  0.1468
67430W        W 4924  19.061   3.101   6.905  0.1036 -0.0182 -0.1501
67431W        W 4925   0.925  30.584   6.381 -0.3242  0.3682  0.1232
67432W        W 4926  28.274  32.748   5.477  0.0339 -0.1575 -0.0039
67433W        W 4927  12.982  16.420   0.114 -0.3627  0.0782  0.3058
67434W        W 4928  23.791  24.300  18.337  0.0105 -0.2618  0.1844
67435W        W 4929  31.398   0.784  25.431  0.1041 -0.0175  0.1996
67436W        W 4930  11.740  12.868   9.048 -0.0567 -0.3657  0.1955
67437W        W 4931  18.657  34.168   1.806 -0.2430 -0.0175  0.1759
67438W        W 4932  30.950  33.962  13.463  0.2387  0.2016 -0.5719
67439W        W 4933  24.459   9.258  15.907 -0.1434 -0.1932  0.0223
67440W        W 4934  34.771  10.469  25.253 -0.1477  0.0032  0.2546
67441W        W 4935  13.129  19.312   9.021  0.0075 -0.1980  0.1083
67442W        W 4936  30.078   5.273  10.487  0.2232 -0.0490 -0.1065
67443W        W 4937   5.414  26.438   1.798  0.0472 -0.1559  0.0360
67444W        W 4938  32.084  22.138   6.030  0.1603  0.0413 -0.3813
67445W        W 4939  35.296   1.965   4.567  0.1539  0.3035  0.1239
67446W        W 4940  11.011   3.899  24.432  0.2041  0.3253 -0.1074
67447W        W 4941  28.921   6.316  13.179  0.2513  0.0010  0.2049
67448W        W 4942  30.551  29.636   0.654 -0.1432 -0.1109 -0.1175
67449W        W 4943  17.947   4.740   5.816 -0.0061  0.0260  0.1182
67450W        W 4944  27.658  17.996  13.943  0.1789 -0.0487  0.1622
67451W        W 4945  31.421  28.830  23.345  0.0161  0.4331 -0.3619
67452W        W 4946  31.070   3.938  24.753 -0.3477 -0.2706  0.1186
67453W        W 4947  30.216   9.481   8.102 -0.0312  0.2180 -0.1169
67454W        W 4948  31.379  16.699   5.764  0.2075 -0.3112 -0.0367
67455W        W 4949   6.912  11.751   8.873 -0.1601  0.0420  0.1311
67456W        W 4950  34.047  29.272  17.519  0.0328  0.0488 -0.0095
67457W        W 4951  18.619   3.673  17.679 -0.1225  0.1808 -0.0709
67458W        W 4952  31.464   0.150   2.857  0.0542 -0.3658  0.2731
67459W        W 4953  20.362  33.202   5.308  0.1400  0.1115 -0.2224
67460W        W 4954  22.322  28.339  15.868 -0.0004  0.3076  0.2388
67461W        W 4955  18.501  21.173   1.579 -0.1983  0.0109 -0.2578
67462W        W 4956  15.299  14.105  20.825 -0.1155 -0.2455  0.2402
67463W        W 4957  19.536   4.958  25.264 -0.2627 -0.1924  0.1482
67464W        W 4958  17.133  13.127   2.772 -0.1515 -0.1150 -0.1775
67465W        W 4959  34.920  22.628  15.421  0.0624  0.5301 -0.0921
67466W        W 4960  27.962   7.214   1.142  0.3264  0.0328 -0.1108
67467W        W 4961   9.597  20.148   9.582  0.1053 -0.1810 -0.3846
67468W        W 4962  19.016   6.701  19.625  0.1954 -0.1060 -0.0529
67469W        W 4963   2.573   3.279   2.922 -0.0531  0.2039 -0.0797
67470W        W 4964   3.133  19.845  19.109 -0.0659 -0.1283  0.1023
67471W        W 4965  13.316   3.523   0.637 -0.0915  0.3086  0.1421
67472W        W 4966   0.945  30.573  22.217 -0.0866 -0.0193 -0.2166
67473W        W 4967  32.940  19.603  10.607 -0.2763 -0.0625 -0.1135
67474W        W 4968  10.448  18.580   1.240 -0.0670  0.0523  0.3338
67475W        W 4969  11.215  26.577   5.365  0.1691 -0.0232  0.2421
67476W        W 4970   2.366   4.078   7.899  0.0517  0.0620 -0.2215
67477W        W 4971  21.154  33.250   5.687  0.0435  0.2721 -0.1616
67478W        W 4972   9.349  30.819   3.468  0.3659  0.0591  0.0448
67479W        W 4973  17.594   2.593   9.543  0.2310  0.1951 -0.1173
67480W        W 4974   2.696  27.141  19.451 -0.0879  0.1802 -0.1457
67481W        W 4975  27.398  15.975  21.800  0.0475 -0.0343 -0.0441
67482W        W 4976  16.969  13.789   1.049  0.1091 -0.0251 -0.1248
67483W        W 4977  10.345  15.351  22.931 -0.0916  0.1214 -0.0782
67484W        W 4978  19.394   3.856   5.355 -0.0944  0.0149  0.0307
67485W        W 4979  30.848   7.971  21.286  0.0450  0.0287 -0.1906
67486W        W 4980   6.316  25.305  13.397 -0.1161 -0.0459  0.1891
67487W        W 4981  33.852  16.778  22.828  0.1966  0.0381  0.0795
67488W        W 4982   9.344  31.828   2.258 -0.1078  0.0336  0.0542
67489W        W 4983  17.923  32.201  25.632 -0.2041  0.2129 -0.3263
67490W        W 4984  21.245  34.834   7.332 -0.3082  0.3016  0.1094
67491W        W 4985  13.566  17.865   6.054  0.1112  0.1518  0.0405
67492W        W 4986  16.481  20.337   9.131  0.1803 -0.1514 -0.2656
67493W        W 4987  23.661   1.019  21.406 -0.0795  0.1407 -0.0602
67494W        W 4988   0.353  31.048   8.552  0.2427  0.2567 -0.2119
67495W        W 4989  18.462   6.730  18.327 -0.2438 -0.4052 -0.0471
67496W        W 4990  18.122  13.641   4.994 -0.0896  0.1266  0.3611
67497W        W 4991  30.323  30.270   3.237  0.0864  0.1168  0.1789
67498W        W 4992  29.633   2.096  20.187  0.0626 -0.0401 -0.2242
67499W        W 4993  23.034  12.759   3.524 -0.1207 -0.2109 -0.1777
67500W        W 4994  17.786   7.473   4.404 -0.2589 -0.2363  0.2393
67501W        W 4995  10.606  19.162  11.937  0.3216  0.1326  0.1163
67502W        W 4996  17.911  14.838  21.071  0.1309 -0.2045  0.3216
67503W        W 4997   6.374   6.461  19.313  0.0810  0.2760 -0.1645
67504W        W 4998  29.463  18.656   8.563  0.3044  0.1002  0.5076
67505W        W 4999   4.871   4.739   0.688 -0.0198 -0.4152  0.0624
67506W        W 5000   9.255  33.213   9.383  0.2453  0.0353  0.0507
67507W        W 5001   3.941  30.699   3.499  0.2361 -0.2825  0.1246
67508W        W 5002   8.679   3.931  12.534 -0.1257  0.1566 -0.0095
67509W        W 5003   8.692  30.454   2.675 -0.1683  0.1075  0.1730
67510W        W 5004  10.399   2.831   7.357 -0.0434 -0.3393  0.5416
67511W        W 5005  12.845  28.714  14.033  0.2407 -0.1410 -0.0235
67512W        W 5006  12.251  13.211  11.272  0.0197  0.0867 -0.0291
67513W        W 5007  26.997   6.380  12.733 -0.1280  0.0076  0.1330
67514W        W 5008  25.587  27.801  11.318  0.1811  0.0628 -0.2785
67515W        W 5009   7.663  23.895   6.232  0.0834  0.0292  0.0235
67516W        W 5010   4.430  21.183  19.027  0.0069  0.1741  0.0516
67517W        W 5011  28.417  27.109   9.756  0.0562  0.0231 -0.2603
67518W        W 5012   1.816  33.123  18.509 -0.1452 -0.3407  0.0133
67519W        W 5013  13.962  27.886  21.991 -0.3105  0.4837  0.1764
67520W        W 5014  32.080   9.562  19.970  0.1798 -0.0626 -0.2945
67521W        W 5015  22.512   8.132   1.011  0.0600 -0.1846  0.1923
67522W        W 5016  27.034  13.084  16.308 -0.0202 -0.1517  0.0536
67523W        W 5017   9.499  30.937  15.938  0.2548 -0.2603 -0.1017
67524W        W 5018  31.700   9.086  24.658 -0.2716 -0.1395 -0.1210
67525W        W 5019   9.765   8.394  14.446 -0.0400 -0.1604 -0.0028
67526W        W 5020   8.610  21.891   6.382 -0.1042  0.0998  0.0230
67527W        W 5021  23.237  28.909   1.663  0.2299 -0.1442  0.0207
67528W        W 5022   0.914  18.112  24.412 -0.1304  0.1748  0.3982
67529W        W 5023  24.294  21.600  12.490  0.2060  0.2817  0.2024
67530W        W 5024   3.671  35.198   1.509 -0.2854 -0.0506  0.4272
67531W        W 5025   0.133   1.249   1.022  0.1218  0.1857 -0.0804
67532W        W 5026   4.568  18.788  19.831  0.1614 -0.0225 -0.2044
67533W        W 5027  15.205  10.972  19.530 -0.1429 -0.1807 -0.0586
67534W        W 5028  33.580   2.634  18.592 -0.1624 -0.4333  0.0623
67535W        W 5029   5.930   0.688  13.033 -0.0204  0.1665  0.0598
67536W        W 5030  31.092   9.508   8.424  0.1066  0.0894 -0.1996
67537W        W 5031   7.231   7.728  25.630  0.0786 -0.0418  0.2118
67538W        W 5032   3.152   3.397   6.141  0.0683  0.1119  0.0093
67539W        W 5033  34.663  17.800   8.122  0.1630  0.2744  0.5761
67540W        W 5034  17.912  11.495  19.335  0.1682  0.3931 -0.1268
67541W        W 5035  11.133   6.242   7.038  0.1214  0.1315  0.0706
67542W        W 5036  20.810  30.503   0.040 -0.0577  0.1647  0.2103
67543W        W 5037   8.552   8.608   6.717  0.1594  0.0583 -0.1958
67544W        W 5038  22.157  23.717  15.793  0.0286  0.0545 -0.2422
67545W        W 5039   5.699   2.565  11.964  0.0023 -0.1430 -0.0650
67546W        W 5040  31.057  30.064   2.612 -0.0240  0.2029  0.5990
67547W        W 5041  17.270   8.566   6.124 -0.0532  0.0106 -0.0161
67548W        W 5042  20.151  19.090  18.156 -0.0138  0.0760  0.0587
67549W        W 5043   1.941  31.431  20.982 -0.0362 -0.0909  0.0975
67550W        W 5044  32.034   9.374   9.774  0.0669  0.0498  0.0126
67551W        W 5045   8.327  13.757  12.671 -0.1470  0.0696  0.1935
67552W        W 5046  22.567  29.655  17.009  0.2470  0.3299 -0.2617
67553W        W 5047  22.365  34.809  18.931  0.1515 -0.1116  0.2668
67554W        W 5048  31.687   5.134  25.465 -0.0216  0.1933  0.0154
67555W        W 5049   8.499  24.080   9.565  0.2590 -0.1642 -0.0105
67556W        W 5050  33.962  19.728   0.379  0.0625  0.1521  0.4700
67557W        W 5051  29.617  30.203  19.413  0.2426 -0.1393  0.2515
67558W        W 5052   3.984   1.423  26.133 -0.1390  0.1164 -0.0807
67559W        W 5053   9.300  16.621  18.158  0.0445  0.3525 -0.2142
67560W        W 5054   8.099  13.471   5.706 -0.0969 -0.0955 -0.0318
67561W        W 5055   8.144   4.815   1.845 -0.0751  0.1810  0.1146
67562W        W 5056   2.605  16.445  14.815  0.1246  0.0747  0.0559
67563W        W 5057  22.857  27.158   3.394 -0.0320  0.2663 -0.2179
67564W        W 5058   9.657   3.570   4.349 -0.3523 -0.2746  0.1805
67565W        W 5059  13.094  34.043  23.538 -0.0876  0.0061  0.1950
67566W        W 5060  12.267  15.057   1.258  0.1721 -0.0614 -0.2169
67567W        W 5061  11.483  19.095   0.835 -0.3356  0.1249 -0.1118
67568W        W 5062  20.096   5.949   4.911  0.3662 -0.0655  0.3293
67569W        W 5063  27.531   4.800  21.090 -0.0762  0.0547  0.1035
67570W        W 5064   8.396   9.949  12.821  0.3773 -0.0744 -0.1887
67571W        W 5065   5.441   0.468   2.443 -0.0025  0.1557 -0.1564
67572W        W 5066   8.304  26.643  23.373 -0.1181  0.2074  0.1264
67573W        W 5067  24.709  29.633   0.469 -0.1265  0.0909 -0.0754
67574W        W 5068   2.591   8.300  15.571 -0.0252 -0.0462  0.2013
67575W        W 5069  12.773  22.752   8.690  0.0116 -0.0466 -0.3005
67576W        W 5070   8.257  16.003   0.904 -0.3310  0.1858  0.1853
67577W        W 5071  24.359  31.766   4.394 -0.2162 -0.2903  0.0098
67578W        W 5072  13.817   5.137  12.089 -0.0697 -0.1934  0.0239
67579W        W 5073  24.200  31.467  11.454 -0.2592  0.0788 -0.0274
67580W        W 5074  14.535  26.108   8.733 -0.0767 -0.1158  0.0651
67581W        W 5075   9.174   2.350   3.216 -0.0314  0.3009  0.1961
67582W        W 5076   7.376  27.925  25.285  0.0577 -0.0538 -0.2504
67583W        W 5077  35.158  14.304  23.635 -0.2052  0.1673  0.0583
67584W        W 5078  33.454  16.607   5.719  0.1133 -0.2185  0.2412
67585W        W 5079   6.638   3.426   2.508  0.1742  0.0030  0.1117
67586W        W 5080  27.677  15.136   5.015  0.0486 -0.0527  0.4371
67587W        W 5081   0.867  11.078  15.133  0.2219 -0.1384  0.1958
67588W        W 5082   4.226  33.132  24.917 -0.3298 -0.1527 -0.0794
67589W        W 5083  21.425  20.034  22.982 -0.0635 -0.1951 -0.2901
67590W        W 5084  26.752   6.584   1.327 -0.0309  0.3075 -0.3575
67591W        W 5085  12.369  12.274   3.232 -0.0687  0.0811  0.1370
67592W        W 5086  22.076   4.263  24.195  0.0817  0.0711  0.2520
67593W        W 5087  35.175  11.819  24.438  0.5020 -0.3071  0.0475
67594W        W 5088   3.840   4.968   4.106  0.1198  0.0820  0.0888
67595W        W 5089  32.762  24.611  10.741  0.2261 -0.0933  0.0716
67596W        W 5090  13.486   0.019   0.050  0.2117  0.0293  0.0370
67597W        W 5091  25.123  35.041  17.346 -0.0636  0.1277  0.0652
67598W        W 5092   0.207  14.809  19.504 -0.0365  0.1059  0.1774
67599W        W 5093   5.315  25.004  19.955  0.2616  0.1547 -0.3061
67600W        W 5094   4.924  33.929  24.513 -0.1294 -0.1096 -0.1095
67601W        W 5095  10.902  26.742   5.786 -0.1236  0.0405 -0.1536
67602W        W 5096  33.458  19.584  25.848  0.0515 -0.0367  0.1428
67603W        W 5097  32.871  20.070  15.961 -0.0844 -0.0462  0.0345
67604W        W 5098  13.900  12.202  12.672 -0.0096  0.2024  0.0188
67605W        W 5099  25.043  34.649  12.086  0.4906 -0.0347 -0.2482
67606W        W 5100  35.307  30.831   2.922  0.2652 -0.2598  0.3222
67607W        W 5101  25.673  13.374  16.376 -0.0611  0.0834 -0.0405
67608W        W 5102  34.868  13.607  25.996 -0.0473  0.1072  0.0321
67609W        W 5103   2.125   7.935   4.883 -0.0166 -0.1611  0.3871
67610W        W 5104  19.921  18.590  18.146  0.0269  0.0830 -0.1731
67611W        W 5105  31.935  30.479   1.627  0.0515 -0.1635 -0.0879
67612W        W 5106   4.740  21.775   2.698 -0.0852 -0.0529 -0.1884
67613W        W 5107  17.584  18.436   0.686  0.0822  0.0827 -0.2281
67614W        W 5108  21.730  35.141  13.548  0.1531 -0.1554 -0.2179
67615W        W 5109  24.300   5.911   1.292 -0.1481  0.0131  0.4532
67616W        W 5110   2.517  33.511   8.037  0.1365  0.0668 -0.1197
67617W        W 5111  29.599   4.421  21.993  0.0655 -0.0517  0.2506
67618W        W 5112  31.918   9.182   8.972  0.0444 -0.1271 -0.0792
67619W        W 5113  19.354  26.916  25.103 -0.4696  0.0644 -0.0174
67620W        W 5114   1.682   6.596   3.638 -0.2016 -0.1102  0.1354
67621W        W 5115  32.174   2.029  11.961 -0.2784  0.3030  0.1941
67622W        W 5116  34.884  10.086  11.727 -0.1570  0.3093 -0.2792
67623W        W 5117  30.284  11.218   0.644  0.1254  0.2245  0.0400
67624W        W 5118   3.355  29.973   5.428 -0.0423 -0.1385 -0.0787
67625W        W 5119  28.593  23.596  21.014  0.1930 -0.1346  0.0535
67626W        W 5120  16.661   1.834   8.358 -0.0487  0.2096 -0.4386
67627W        W 5121  30.714  16.017  16.392 -0.0207  0.1293  0.1035
67628W        W 5122   7.998  34.248  10.588  0.0881 -0.0590  0.0483
67629W        W 5123  10.613  25.846  16.324  0.4608 -0.4365 -0.0344
67630W        W 5124  33.448  28.869  24.617 -0.1810 -0.3015  0.2953
67631W        W 5125  22.257   7.835   2.273  0.0064 -0.3064  0.1570
67632W        W 5126  22.947  20.274  14.690 -0.0265 -0.2874 -0.1537
67633W        W 5127   0.640  26.590   0.686  0.2749  0.1606  0.0542
67634W        W 5128   9.830   3.913  11.184 -0.0773  0.2127 -0.1267
67635W        W 5129   8.567   3.615  25.772  0.2661  0.1649 -0.0774
67636W        W 5130  21.682   2.338  18.843 -0.1625  0.1692  0.0790
67637W        W 5131  28.010  33.366   1.138 -0.0304 -0.0694 -0.0696
67638W        W 5132   3.697  17.888  23.446 -0.3011 -0.0235  0.2185
67639W        W 5133   9.803  34.543   8.821  0.2103  0.1868  0.1154
67640W        W 5134   2.915  29.723   0.677  0.1417  0.0699  0.1359
67641W        W 5135  22.048  23.478   4.966 -0.0083  0.1798 -0.2125
67642W        W 5136  21.341  32.223   0.968 -0.2086  0.0185 -0.4562
67643W        W 5137   6.757   2.453  23.548  0.0474 -0.0450 -0.1098
67644W        W 5138  22.542  20.013  14.888 -0.3038 -0.0247 -0.1020
67645W        W 5139   7.090  34.403   0.418  0.2178 -0.2233 -0.1450
67646W        W 5140   5.201  35.033  21.769 -0.1133  0.3209  0.2196
67647W        W 5141  17.215   6.862  11.291 -0.4197 -0.3439 -0.0943
67648W        W 5142   0.160  32.642  21.810 -0.4684 -0.1232  0.3730
67649W        W 5143  15.226  25.297  14.147  0.3867 -0.0536  0.0256
67650W        W 5144  24.345   2.636  13.471 -0.0900  0.1641  0.1100
67651W        W 5145  23.775  35.182  16.702  0.0656  0.2219  0.1507
67652W        W 5146  27.836  11.359  19.040  0.0978 -0.0029  0.1842
67653W        W 5147  17.336  29.327  22.825  0.1193 -0.0428  0.2767
67654W        W 5148  14.334  33.602   2.006  0.0122 -0.1290 -0.1538
67655W        W 5149  16.554  26.891   4.268 -0.4074  0.3446 -0.2131
67656W        W 5150  17.209  27.551   9.941  0.2703  0.0977 -0.0764
67657W        W 5151   7.343  17.754   4.086 -0.0384 -0.1106 -0.0046
67658W        W 5152   4.843  14.413  18.673 -0.1503 -0.2211  0.0368
67659W        W 5153  34.510  29.443  15.487  0.1976 -0.3631 -0.1630
67660W        W 5154  10.784  29.998  11.056 -0.1665 -0.1760 -0.2142
67661W        W 5155   4.096  21.029   4.306 -0.1793  0.0060 -0.3075
67662W        W 5156  25.226  33.185  18.293 -0.0634 -0.0178  0.1956
67663W        W 5157  33.049   4.118  18.673  0.2225 -0.0269  0.0597
67664W        W 5158  14.517  20.891   1.613  0.0686  0.0688 -0.0466
67665W        W 5159  31.899  23.015  20.694 -0.1892 -0.0738  0.2477
67666W        W 5160  28.608  16.152  23.791  0.1433 -0.3095  0.3158
67667W        W 5161  33.182  20.924  22.638  0.0031  0.1119 -0.0635
67668W        W 5162  10.957  17.209   3.626 -0.3376 -0.0523 -0.0185
67669W        W 5163  29.739  14.945   9.232  0.0784  0.0662  0.0185
67670W        W 5164  18.529  13.241   6.257 -0.0922 -0.1969  0.2608
67671W        W 5165  22.535  16.210   0.290  0.1840  0.1534 -0.1858
67672W        W 5166  33.987   8.157  18.729  0.0665 -0.3043  0.4703
67673W        W 5167   5.336  25.000   7.363  0.1038  0.0030 -0.0608
67674W        W 5168   3.264  34.876   2.233 -0.1671 -0.1071  0.0388
67675W        W 5169   4.230  30.362  10.060  0.0409 -0.1779 -0.0223
67676W        W 5170  32.810  28.843  25.125 -0.0330  0.2764 -0.2813
67677W        W 5171  23.790  23.861   0.454  0.0193 -0.1273  0.1928
67678W        W 5172  12.658   5.988   0.598  0.0717 -0.1018 -0.3356
67679W        W 5173   4.841   7.827   1.258  0.1724  0.1628  0.0277
67680W        W 5174  18.331  20.459  12.147 -0.1601 -0.0245 -0.0595
67681W        W 5175   4.444  15.092   0.514  0.1828 -0.0757 -0.0540
67682W        W 5176   1.166  34.956  21.162  0.0710  0.0924 -0.1463
67683W        W 5177  13.188   2.022  24.098  0.0484  0.2075 -0.0124
67684W        W 5178  15.983  17.483   5.399  0.0975  0.2581 -0.2145
67685W        W 5179   4.755   2.751   9.588 -0.3159  0.2246  0.1170
67686W        W 5180   4.258  24.515  23.958  0.0331  0.4277 -0.1433
67687W        W 5181  33.359  14.952  13.019 -0.0187  0.1294 -0.0739
67688W        W 5182  30.673   5.335  25.813 -0.1639 -0.0491 -0.0190
67689W        W 5183  12.697  17.434  26.159 -0.1302 -0.0137 -0.0529
67690W        W 5184  27.138   0.723  12.842  0.1185 -0.1866  0.0996
67691W        W 5185  11.215  30.243   6.178 -0.0901 -0.0115 -0.0290
67692W        W 5186  23.414   7.021  14.879 -0.2059  0.1288 -0.3340
67693W        W 5187   0.676   0.832  16.081 -0.0106  0.0770  0.2742
67694W        W 5188  24.871  23.566  12.179 -0.0505 -0.1790 -0.0399
67695W        W 5189  24.367   9.731  14.157 -0.0833  0.1080 -0.1062
67696W        W 5190  28.795  16.147   9.495  0.0558  0.0009 -0.2105
67697W        W 5191  14.633  10.305  14.492 -0.0110  0.4414  0.2187
67698W        W 5192  18.627  14.988  17.786  0.0568  0.0747  0.2436
67699W        W 5193   3.326  16.623   2.186 -0.4475  0.3538  0.0352
67700W        W 5194   8.744  16.107   9.393  0.2393 -0.1976 -0.2041
67701W        W 5195  29.303  29.173  21.708 -0.2706  0.2354 -0.1025
67702W        W 5196  28.028  25.679   9.570  0.1396  0.1173  0.2532
67703W        W 5197  15.557  17.568  12.790 -0.1055 -0.1757  0.0386
67704W        W 5198  21.494  27.829  24.614  0.1508  0.1548 -0.2052
67705W        W 5199   0.715  26.057   1.897 -0.0282 -0.0343 -0.0698
67706W        W 5200  12.888  18.435  14.930  0.0889 -0.1334 -0.0250
67707W        W 5201  33.045  27.673  11.022  0.0900 -0.1706 -0.2332
67708W        W 5202  29.649   6.944  17.583 -0.1604 -0.0387  0.0757
67709W        W 5203  11.970   0.609   6.525 -0.2898  0.3978  0.1047
67710W        W 5204   9.154  30.683  26.149  0.0009 -0.1097 -0.0924
67711W        W 5205  12.828   3.022  11.081 -0.0491  0.1120 -0.1003
67712W        W 5206  17.036   0.023   8.153  0.1978 -0.0692 -0.1946
67713W        W 5207   8.906   1.005  12.881 -0.1336  0.0952 -0.0285
67714W        W 5208  10.657  24.519  15.683 -0.1704  0.0178 -0.0256
67715W        W 5209   1.925  11.907  15.901 -0.0820  0.0489  0.4942
67716W        W 5210  33.583   6.106   5.108 -0.1028  0.0292 -0.0219
67717W        W 5211   1.212  17.663  25.557  0.1592  0.1090  0.0167
67718W        W 5212  21.060  35.148   4.438 -0.1759  0.1686  0.4189
67719W        W 5213   9.710  34.968   9.091 -0.3575 -0.0609 -0.1735
67720W        W 5214  34.093   0.557  22.423 -0.0236 -0.0197  0.0621
67721W        W 5215  34.003  30.829  19.538  0.0379  0.0212  0.0388
67722W        W 5216   7.427  17.340   3.170 -0.1086  0.1915 -0.1778
67723W        W 5217  16.625  29.161  10.468  0.2877  0.0845 -0.0308
67724W        W 5218  16.786  28.316  10.304 -0.0843 -0.4989  0.3877
67725W        W 5219   8.612  33.629  15.334 -0.1188  0.1305  0.0872
67726W        W 5220   8.813   2.308  20.623 -0.0261 -0.2845 -0.2863
67727W        W 5221   0.719   9.471  21.824  0.3637 -0.0140  0.4529
67728W        W 5222  29.463  35.073   2.039  0.0356  0.0419  0.0873
67729W        W 5223  12.192  27.896  11.686 -0.0716  0.2479 -0.0269
67730W        W 5224  32.583   8.165   2.104 -0.1299 -0.1821  0.2231
67731W        W 5225  21.782  19.719   3.787 -0.1052 -0.0010  0.1927
67732W        W 5226  24.926  29.560   4.153 -0.2136  0.1008 -0.1172
67733W        W 5227  27.605  29.861  21.873 -0.1649 -0.0715  0.0495
67734W        W 5228  13.155  29.487   8.803 -0.0775 -0.3482 -0.0614
67735W        W 5229  14.119  17.449   2.943  0.0053 -0.1188 -0.0674
67736W        W 5230   4.637  10.734  18.232  0.0390 -0.0210  0.2225
67737W        W 5231   4.009  28.918   7.024  0.4540  0.0122 -0.0244
67738W        W 5232  34.005  29.317   6.678  0.2404  0.1490 -0.0125
67739W        W 5233   6.659   0.167  11.211  0.2663 -0.2839  0.1731
67740W        W 5234  21.366  21.486  18.435  0.0784  0.0056  0.2036
67741W        W 5235  22.907  11.847   0.742 -0.1063 -0.0215  0.0146
67742W        W 5236  15.149  25.434   8.865 -0.1015 -0.2279 -0.0608
67743W        W 5237  27.050  17.678  14.395 -0.2347  0.0209 -0.1005
67744W        W 5238  25.659  29.168  19.541 -0.0323 -0.1029  0.4693
67745W        W 5239  14.113  31.679  25.928  0.1602  0.0432 -0.0454
67746W        W 5240   4.290   1.647  25.716  0.1129  0.0752  0.0023
67747W        W 5241   3.408  19.274  24.416 -0.0500  0.2110 -0.2615
67748W        W 5242   7.277  21.423  11.698 -0.1467  0.0826  0.1745
67749W        W 5243   6.695  31.644   4.147 -0.1342 -0.2743 -0.2470
67750W        W 5244  19.786   0.585   5.091  0.2000  0.1030  0.0896
67751W        W 5245  18.536  30.844   8.566  0.0934 -0.1858  0.0307
67752W        W 5246   8.859   4.700   6.340 -0.4119  0.0591 -0.0308
67753W        W 5247   9.471  12.944   1.577 -0.3038  0.2860 -0.0665
67754W        W 5248  15.457  29.798  11.006  0.0762 -0.1149  0.2048
67755W        W 5249  12.713  29.132  23.869  0.0711  0.0186  0.3628
67756W        W 5250   1.819  14.239  14.211 -0.0272 -0.1297 -0.3392
67757W        W 5251  33.486  13.822   8.675 -0.0358  0.2359  0.0232
67758W        W 5252  29.095   2.950  22.088  0.3405  0.0049  0.3634
67759W        W 5253  23.409  29.706  19.405  0.0452 -0.1037 -0.2744
67760W        W 5254  20.262  26.261  21.576 -0.0803  0.0999 -0.1063
67761W        W 5255   6.660  24.644   8.601 -0.1847  0.0045  0.0450
67762W        W 5256   0.708  18.165  23.043  0.0187 -0.0256  0.3232
67763W        W 5257   9.968  24.251  10.413 -0.4764  0.2195 -0.3374
67764W        W 5258  18.291   1.407  15.178  0.0439  0.2743  0.0270
67765W        W 5259  13.984  12.328   4.795 -0.1536 -0.1247 -0.0089
67766W        W 5260  12.375  20.327  25.986 -0.0106  0.3025 -0.1079
67767W        W 5261  17.289   9.521  25.303 -0.1767 -0.0612 -0.1675
67768W        W 5262  29.836  22.299  20.812  0.2039 -0.0646 -0.4061
67769W        W 5263  12.179  15.883   0.600  0.0216 -0.0291  0.2262
67770W        W 5264  15.188  18.917   6.644  0.1461  0.1067  0.2500
67771W        W 5265  17.047   4.131  25.905 -0.1041  0.2746  0.1288
67772W        W 5266  16.717   0.309   7.729 -0.1849 -0.1069 -0.0356
67773W        W 5267  30.055  17.784  16.407 -0.4259 -0.0005 -0.4885
67774W        W 5268  34.993  33.393   6.206 -0.0595 -0.0243  0.3003
67775W        W 5269  27.626  33.795  18.969  0.0416  0.2601  0.3345
67776W        W 5270  26.529  30.118  11.321  0.1413 -0.1839  0.1522
67777W        W 5271   7.551   8.010  21.659  0.1030  0.0755 -0.2425
67778W        W 5272  11.401   9.056   3.964 -0.0286  0.0035  0.0327
67779W        W 5273  14.145   3.493   5.325  0.2074 -0.0830  0.5633
67780W        W 5274  32.863  28.712  14.739  0.1077  0.2452  0.1202
67781W        W 5275  20.303  29.889  24.927 -0.0769 -0.0007  0.0435
67782W        W 5276   6.852  27.375  23.946  0.2301  0.0493  0.0132
67783W        W 5277  20.450  11.677  23.796  0.2415  0.0790 -0.1027
67784W        W 5278  25.026  18.430  23.653  0.0256  0.0205  0.2897
67785W        W 5279  33.327   4.403  20.379 -0.1959  0.0623 -0.0226
67786W        W 5280  19.062  13.298   6.572 -0.1183  0.0510  0.4720
67787W        W 5281  15.506  27.666   3.488 -0.0984  0.5149  0.0794
67788W        W 5282  17.678  29.910   4.647  0.0160 -0.2034  0.1913
67789W        W 5283  10.529   1.936   9.932  0.0800  0.0966  0.0377
67790W        W 5284  33.029  19.740  23.869 -0.0504 -0.0984 -0.3864
67791W        W 5285  32.649  24.446  14.476  0.2599 -0.1400  0.2401
67792W        W 5286  29.701  22.276   5.603 -0.3076 -0.1169 -0.3095
67793W        W 5287  21.396   3.110   1.061 -0.2123  0.1196 -0.4043
67794W        W 5288  29.514  11.715  16.523 -0.0246 -0.2269 -0.2215
67795W        W 5289   1.154  30.423  21.760 -0.1308  0.0340 -0.0529
67796W        W 5290  29.006   6.312  18.527 -0.0341  0.2465  0.3323
67797W        W 5291   6.354  21.683  24.371 -0.1045 -0.2031 -0.0369
67798W        W 5292  17.962  20.813   5.512  0.0814  0.0988  0.1685
67799W        W 5293  15.758  14.356  18.328  0.0262 -0.0544  0.1592
67800W        W 5294   8.007   8.512   9.267 -0.0229  0.1790  0.1431
67801W        W 5295   1.923  14.799   0.702 -0.1389  0.3585  0.0470
67802W        W 5296   9.441  16.354   4.406  0.0044  0.0079  0.0593
67803W        W 5297   8.423  16.107   3.918 -0.0883 -0.3990 -0.0795
67804W        W 5298  10.595   4.911   7.558  0.0793  0.0493  0.0341
67805W        W 5299  25.479  20.686  15.790 -0.1022  0.5243  0.3063
67806W        W 5300  21.253  29.665  25.971 -0.2689  0.1857  0.0018
67807W        W 5301  16.294   2.736  18.517 -0.0164 -0.2864  0.2522
67808W        W 5302  16.126  20.171  25.239  0.0434  0.2288 -0.2242
67809W        W 5303   8.446  24.621  25.988 -0.2665 -0.1343  0.1380
67810W        W 5304   0.323   5.678  24.874 -0.1157 -0.1035  0.3154
67811W        W 5305  12.750  33.097  13.804 -0.1205 -0.2479 -0.0074
67812W        W 5306  13.483  32.304  21.135 -0.1958  0.3656 -0.1462
67813W        W 5307  25.084  10.069  13.740  0.0764  0.1113 -0.0813
67814W        W 5308  12.706  18.022  13.368 -0.2308 -0.5295 -0.1137
67815W        W 5309   5.652  16.245  16.503  0.1302  0.3733  0.0031
67816W        W 5310   9.338  23.735  13.737  0.0930  0.1494 -0.2560
67817W        W 5311   9.556  32.871   7.511 -0.0889 -0.3165  0.4965
67818W        W 5312   7.175  10.533   9.450 -0.2281 -0.2553  0.2188
67819W        W 5313  32.246  24.901  20.013  0.0013 -0.0094  0.0516
67820W        W 5314  26.345  32.119  20.488  0.2429 -0.0986  0.0425
67821W        W 5315  18.413  26.767   7.249  0.0548 -0.4314 -0.0466
67822W        W 5316  19.671  13.952   1.815 -0.3648  0.1290 -0.1302
67823W        W 5317   8.835   8.131  13.785  0.2999  0.0560  0.0962
67824W        W 5318   9.392  31.251  11.966 -0.0138 -0.1225 -0.1037
67825W        W 5319  22.086  29.119   1.375  0.2913  0.0110  0.0582
67826W        W 5320   4.215  22.579  17.595  0.1737 -0.1344 -0.2873
67827W        W 5321  29.063  22.251  13.549  0.1096 -0.1343 -0.2264
67828W        W 5322  15.679  14.741  10.140  0.1249  0.0446 -0.4519
67829W        W 5323  20.578   5.535   6.839  0.2016  0.1321 -0.1632
67830W        W 5324  21.928  24.401  22.881 -0.2168  0.1335  0.2394
67831W        W 5325   4.264  15.863  26.193 -0.1489 -0.0851  0.1366
67832W        W 5326   3.327  34.925  21.629  0.1447 -0.0415  0.0500
67833W        W 5327  25.318  22.544  24.496  0.2166  0.1086 -0.3142
67834W        W 5328  13.122   4.408  24.773 -0.1135  0.2099  0.0469
67835W        W 5329  34.618   2.220  13.266 -0.2075 -0.1712 -0.2426
67836W        W 5330  10.896  13.307  13.506  0.0116  0.0429  0.2405
67837W        W 5331  35.049  11.307   1.759 -0.2362  0.0328 -0.0472
67838W        W 5332  16.992  29.786   4.264 -0.0889 -0.1520  0.1208
67839W        W 5333   8.548  29.030  25.878 -0.0945 -0.0035  0.1329
67840W        W 5334  18.271  10.961   3.446  0.0306 -0.2149 -0.0415
67841W        W 5335  18.911  29.164  23.438  0.1132  0.0709  0.1314
67842W        W 5336   1.742   0.202   7.645  0.2915 -0.2474 -0.3741
67843W        W 5337  11.850  20.526  22.866 -0.0212 -0.0778  0.1389
67844W        W 5338  22.166   3.503   7.834 -0.2270 -0.3062  0.1782
67845W        W 5339  18.727  25.526  19.200 -0.1485 -0.0709 -0.0041
67846W        W 5340   1.467  20.544  22.410 -0.1335 -0.2672 -0.1566
67847W        W 5341  24.346  26.984  21.662 -0.0048  0.1524  0.2365
67848W        W 5342  26.871  34.471  23.169  0.0087 -0.0024 -0.6431
67849W        W 5343   6.462  16.551  22.983  0.0796 -0.1293 -0.0985
67850W        W 5344  33.789  30.946   4.116  0.0999  0.0698  0.3704
67851W        W 5345  29.406  13.446  23.530 -0.2388 -0.2190  0.0339
67852W        W 5346  11.978  10.103   2.152 -0.0776 -0.1440 -0.0991
67853W        W 5347  29.493   9.686  25.498  0.1420 -0.0360  0.1021
67854W        W 5348   5.603   4.836  18.320 -0.2069  0.3816 -0.0722
67855W        W 5349  26.537   7.080  20.529  0.1724 -0.2865 -0.4131
67856W        W 5350  23.405  33.988  25.102  0.1426 -0.2814  0.1567
67857W        W 5351   2.767   5.474   2.948  0.0083  0.3467 -0.4563
67858W        W 5352  28.185  25.853   9.104 -0.0832 -0.2752 -0.4218
67859W        W 5353  32.850   6.972  19.270  0.0591  0.1563  0.1444
67860W        W 5354   7.669  30.842  24.027 -0.0513  0.2167 -0.0272
67861W        W 5355  13.847  11.951   4.111  0.1130  0.0579  0.1879
67862W        W 5356  14.614  13.965   1.997 -0.0817 -0.0397 -0.1429
67863W        W 5357  19.319   3.443  15.818 -0.1262 -0.1276  0.0023
67864W        W 5358  23.017  28.098  24.766  0.0694 -0.2769 -0.1574
67865W        W 5359  12.731  34.440  21.370  0.0696  0.0480  0.3124
67866W        W 5360  21.773  32.900  15.617  0.3313  0.0037  0.3514
67867W        W 5361  34.905  29.083  19.754  0.0200  0.3882  0.2815
67868W        W 5362  21.583  25.113   1.469 -0.1676 -0.1256  0.1482
67869W        W 5363  33.694   8.069  12.654  0.3686  0.1148  0.0594
67870W        W 5364  14.227   6.705   2.352 -0.0497  0.1539 -0.1291
67871W        W 5365  30.094  20.565   7.071 -0.1367 -0.2639 -0.3736
67872W        W 5366  15.745   9.727  18.698 -0.0211 -0.4280  0.2338
67873W        W 5367  29.811  23.950  25.319  0.1093 -0.1842  0.1750
67874W        W 5368  17.184   6.214  19.162  0.0595  0.2418  0.0101
67875W        W 5369  28.195  24.839  20.149 -0.2891 -0.2395  0.0483
67876W        W 5370  20.401   3.899  18.189 -0.0440 -0.1326 -0.0722
67877W        W 5371  19.013   1.443  16.909 -0.2949 -0.0021  0.1967
67878W        W 5372  12.722   8.057   4.655  0.5037  0.0587 -0.2816
67879W        W 5373  23.797  11.714  15.448  0.1444 -0.0136  0.0617
67880W        W 5374  10.116   0.061  24.471 -0.0827  0.1369  0.1584
67881W        W 5375   2.950  28.856   8.485 -0.3009  0.0214 -0.0657
67882W        W 5376  16.217  29.360   3.223  0.2221 -0.0480 -0.4751
67883W        W 5377   4.046  35.045  18.850 -0.1217  0.2423  0.0619
67884W        W 5378   7.727  32.594  23.143 -0.1450 -0.0963  0.1483
67885W        W 5379   3.173  35.171   7.842  0.1045  0.1186  0.1406
67886W        W 5380   3.434  31.844   9.147  0.0356  0.0137 -0.3535
67887W        W 5381  13.579   5.712   6.175  0.0868  0.0220  0.1616
67888W        W 5382   3.333  17.716  25.318 -0.0783 -0.0727  0.0425
67889W        W 5383   7.981   6.309  18.882 -0.0468 -0.1183 -0.0313
67890W        W 5384  20.334   2.700  18.770 -0.0842 -0.2348 -0.2366
67891W        W 5385  12.539  14.883   7.092  0.1438 -0.0322 -0.0862
67892W        W 5386  21.434   9.613  20.725  0.2632  0.0710  0.0526
67893W        W 5387  23.531  11.275  25.532 -0.1890  0.0799 -0.1066
67894W        W 5388   4.494  15.361   4.120 -0.1203  0.0069  0.1101
67895W        W 5389  26.576  32.528   2.188 -0.0720 -0.0287  0.1161
67896W        W 5390  23.585  28.145  15.136 -0.1459 -0.3531  0.1502
67897W        W 5391  17.123  16.068   1.529 -0.2370 -0.0036  0.1749
67898W        W 5392   9.528  22.658   2.141  0.3109 -0.0815  0.3510
67899W        W 5393   6.295   9.620  26.054 -0.0252  0.2656 -0.0921
67900W        W 5394   4.447  13.529  19.969  0.2088 -0.0020 -0.2216
67901W        W 5395  33.014  23.886  18.109 -0.0054 -0.0129  0.0563
67902W        W 5396   6.902  27.024   7.708 -0.0971  0.0787 -0.0549
67903W        W 5397   5.134  14.013  15.898 -0.1474  0.0325  0.1622
67904W        W 5398  13.719  12.864   6.344  0.0479  0.0443  0.3587
67905W        W 5399  17.189   7.769   6.662  0.2393 -0.3099 -0.0180
67906W        W 5400  23.207   4.990   3.585  0.0808 -0.0308  0.1769
67907W        W 5401   8.722  19.042  24.105  0.0918 -0.2757 -0.1398
67908W        W 5402  26.034   5.365  12.167 -0.0673 -0.0937  0.0635
67909W        W 5403  14.736  11.309  23.190 -0.0987  0.4356  0.1056
67910W        W 5404  10.053  19.427  22.420 -0.1949 -0.0565 -0.3285
67911W        W 5405   2.960  31.141   2.935 -0.0371  0.2720  0.2305
67912W        W 5406   2.534   1.173  20.353  0.3570 -0.0259  0.0714
67913W        W 5407   8.536  27.655  14.930  0.1034  0.2272 -0.1854
67914W        W 5408  16.124   4.527   6.039 -0.2186  0.1039 -0.0663
67915W        W 5409   6.884  33.326  10.916  0.1616  0.0184  0.1319
67916W        W 5410  14.630   2.133   3.447  0.2282 -0.1468 -0.0508
67917W        W 5411  25.947   3.303  24.333  0.1575  0.1896  0.0209
67918W        W 5412  18.143  34.367  20.076 -0.0860  0.1268 -0.1434
67919W        W 5413   9.339   3.013  20.815 -0.1933 -0.0332 -0.0611
67920W        W 5414   5.747  21.485   0.412  0.0076  0.0290  0.1338
67921W        W 5415  26.584  24.834  25.929 -0.0706 -0.2452  0.1010
67922W        W 5416   2.859  13.270  14.277 -0.1658  0.3010 -0.2311
67923W        W 5417   9.189   8.456   7.283  0.1625  0.2080  0.1006
67924W        W 5418  15.006  22.648   7.321  0.1183  0.0818 -0.0298
67925W        W 5419  31.742   7.704  13.396  0.0492  0.3198 -0.2849
67926W        W 5420  28.157  29.944  18.876 -0.0855 -0.0026  0.0836
67927W        W 5421  22.164  21.582   5.434 -0.1249  0.2699 -0.1287
67928W        W 5422  11.785  30.348   5.856  0.1412 -0.0250  0.0076
67929W        W 5423  25.047  32.015  13.729 -0.2104 -0.0296  0.1693
67930W        W 5424  31.712  26.289  11.369  0.2347  0.0485 -0.1853
67931W        W 5425   8.488   3.646  13.042 -0.1444  0.0216  0.1317
67932W        W 5426  32.513   0.228   4.036 -0.3808 -0.0061 -0.0721
67933W        W 5427   1.530   2.671   1.263 -0.0081  0.1907 -0.2331
67934W        W 5428  29.733   9.232  21.049  0.2565 -0.4114 -0.1150
67935W        W 5429   3.273   9.348  20.679  0.1389  0.1064 -0.3880
67936W        W 5430   1.827   3.801   2.618  0.0267 -0.0872  0.0295
67937W        W 5431   0.512   9.126  26.240  0.3997  0.3250 -0.1712
67938W        W 5432   1.926   6.588   0.172  0.0873 -0.2026  0.0273
67939W        W 5433  17.399  29.347   6.416 -0.2987 -0.0375  0.0600
67940W        W 5434   7.921  33.003   3.597  0.0982 -0.2550 -0.0681
67941W        W 5435  30.399   2.392  22.672  0.0763  0.1057 -0.3847
67942W        W 5436   5.240  24.521  21.911  0.2971 -0.2254  0.2861
67943W        W 5437  21.519  11.548   4.686  0.1320 -0.0226 -0.4047
67944W        W 5438  12.558   9.661   1.388  0.0263  0.0313  0.0974
67945W        W 5439  35.073  30.799  24.051 -0.0175  0.1012  0.3851
67946W        W 5440  27.516  10.827  18.496  0.0930  0.0693 -0.1685
67947W        W 5441  28.431   8.526  10.052  0.2143 -0.2366  0.2689
67948W        W 5442  11.923   1.343  25.793  0.1968  0.2330 -0.1119
67949W        W 5443   4.556  15.724  21.601 -0.0021  0.0276  0.1577
67950W        W 5444  26.305  13.375   7.005  0.0336  0.0349  0.2450
67951W        W 5445  22.426   6.564   6.955 -0.0655  0.0024  0.0949
67952W        W 5446  11.204  20.060   5.427 -0.0751 -0.1127 -0.1562
67953W        W 5447  11.924   0.259  22.477  0.1846 -0.4317 -0.1696
67954W        W 5448  13.543  20.901  14.202 -0.1847  0.1550 -0.1425
67955W        W 5449  34.281  29.887  15.322  0.1277  0.1688 -0.1458
67956W        W 5450  17.220  19.974   6.940 -0.2291 -0.2743  0.1941
67957W        W 5451   8.242   7.781  21.801  0.4919  0.1813 -0.2557
67958W        W 5452  13.565  11.875   2.978 -0.0459 -0.2190 -0.2371
67959W        W 5453   1.595  11.109  25.750  0.0922 -0.0032 -0.0759
67960W        W 5454  18.761  26.715   8.291  0.1333  0.0125 -0.0033
67961W        W 5455  25.022   3.369  22.041  0.0750 -0.3553 -0.3178
67962W        W 5456  29.265  28.842  16.477 -0.3204  0.2183  0.2018
67963W        W 5457  17.264   7.887   3.821 -0.2591 -0.0827  0.0571
67964W        W 5458  15.053  19.609   8.907 -0.0682 -0.2355  0.2445
67965W        W 5459   9.738   2.418   6.887  0.0588 -0.1689 -0.0465
67966W        W 5460  14.186  14.447  10.143  0.1527 -0.0042  0.1382
67967W        W 5461  10.650   6.837  21.132 -0.2570  0.2444  0.1328
67968W        W 5462  27.235  11.193  25.527  0.0545 -0.0796  0.2149
67969W        W 5463  24.186  30.755   2.358  0.0424  0.3555 -0.0162
67970W        W 5464  13.807  28.000  10.837 -0.0125  0.0218 -0.1803
67971W        W 5465   9.973   4.730  23.470 -0.0009  0.1834  0.1446
67972W        W 5466  18.640  14.308   6.840 -0.1294  0.2113  0.1639
67973W        W 5467   4.732   8.528   5.279  0.1381  0.1567  0.1323
67974W        W 5468  28.719  23.832  22.708  0.1847  0.1850  0.1635
67975W        W 5469  31.131  29.464   0.090 -0.1567  0.1512  0.0633
67976W        W 5470  22.894  29.257  20.449 -0.0914 -0.2564  0.0662
67977W        W 5471  19.947  15.278   4.534 -0.0339  0.2006  0.1514
67978W        W 5472  27.565   4.415   3.238 -0.0395 -0.0465  0.0711
67979W        W 5473  11.872  20.453  14.633 -0.1471  0.0174 -0.0596
67980W        W 5474  11.122  27.418   1.151 -0.5249 -0.1763  0.2224
67981W        W 5475  14.546  15.611  13.976 -0.2047 -0.0512  0.0296
67982W        W 5476  22.844  17.042  24.028  0.2530 -0.0059  0.0102
67983W        W 5477   3.123   6.510  25.724 -0.1295  0.1635  0.1447
67984W        W 5478  33.817  12.453  25.038  0.0723 -0.1699 -0.0282
67985W        W 5479   1.256  21.141  11.619  0.4836 -0.4447  0.1208
67986W        W 5480  16.543  30.475  24.044  0.1492 -0.2389 -0.0755
67987W        W 5481  26.986  29.619  15.890 -0.0455 -0.0038 -0.0092
67988W        W 5482  12.973  27.957   8.781 -0.1334 -0.1146 -0.0588
67989W        W 5483  27.161  30.705  22.935  0.3453  0.0272  0.1112
67990W        W 5484   8.722  17.407  23.204 -0.2058  0.2736  0.0383
67991W        W 5485  10.239   5.688  13.307 -0.4893 -0.1273  0.0303
67992W        W 5486  10.976   3.386  11.153  0.0767 -0.1214 -0.0068
67993W        W 5487  16.707  16.848   6.592 -0.2040 -0.1864 -0.1009
67994W        W 5488  31.944  15.114  10.712  0.0178  0.2564 -0.0128
67995W        W 5489  35.072  13.986  14.698 -0.0746  0.2361  0.1345
67996W        W 5490  19.930  24.444   1.569  0.0819 -0.0558  0.0094
67997W        W 5491  24.570   8.726   0.053  0.0097 -0.1899  0.1548
67998W        W 5492  31.749   4.756  21.452  0.2988  0.1651 -0.0366
67999W        W 5493  18.278  17.944   4.452 -0.1664 -0.3292  0.3094
68000W        W 5494  18.031   8.517   3.675 -0.0821 -0.0795 -0.1094
68001W        W 5495  32.212  13.280  15.144 -0.1263 -0.2110 -0.0298
68002W        W 5496  18.171   9.885   2.629  0.0607  0.1513  0.2243
68003W        W 5497  15.310  10.423  11.835  0.0728  0.1820  0.0881
68004W        W 5498  10.274  13.915   4.743 -0.0653  0.3097  0.1015
68005W        W 5499  29.641  26.266   0.563  0.0631 -0.3180  0.0589
68006W        W 5500  24.431  12.624  23.561  0.0762 -0.3056  0.1013
68007W        W 5501   5.016   6.499  22.382  0.3685 -0.0493 -0.0529
68008W        W 5502  27.387  35.320  18.251  0.0648  0.0944  0.1227
68009W        W 5503  25.631  33.648   0.829 -0.3059  0.1740 -0.1002
68010W        W 5504  34.760  17.765  25.457  0.1157 -0.1863  0.1455
68011W        W 5505   6.158  16.900  19.977  0.2440 -0.2916  0.0290
68012W        W 5506  29.850  24.366  12.175  0.1508 -0.3216 -0.0942
68013W        W 5507  12.140   4.064   4.026 -0.0079 -0.0309 -0.0826
68014W        W 5508  33.480  24.545  11.830 -0.0959 -0.0270  0.1686
68015W        W 5509  24.948  22.933   1.781  0.1897  0.2862 -0.0641
68016W        W 5510  22.849  29.272  19.564 -0.0263  0.0211 -0.0251
68017W        W 5511  15.347  13.242   9.206  0.0159 -0.0111  0.0419
68018W        W 5512   8.127  26.176  13.825 -0.1013 -0.3139 -0.3519
68019W        W 5513  17.071  30.339  24.248 -0.2540 -0.0638  0.0168
68020W        W 5514   1.345  18.095  13.802 -0.1691  0.1211  0.0000
68021W        W 5515  30.639  22.336  16.546 -0.0431 -0.0757 -0.0923
68022W        W 5516   7.015  29.950  22.093 -0.0098 -0.0476 -0.5343
68023W        W 5517  28.598   2.110   0.345  0.2937 -0.0757  0.0137
68024W        W 5518  30.363  31.099   1.401 -0.1415 -0.1761  0.1362
68025W        W 5519  29.371   7.887  16.953  0.3189 -0.0032  0.3235
68026W        W 5520   6.209   6.687   6.833  0.1026 -0.2099 -0.0299
68027W        W 5521   2.683  24.809  22.956  0.3406 -0.1499  0.1391
68028W        W 5522   6.596   1.894  19.503  0.0042  0.1274  0.0601
68029W        W 5523   0.675   1.979   2.672 -0.0268 -0.1859  0.0303
68030W        W 5524  26.718  15.472  25.339  0.0985  0.1352 -0.0810
68031W        W 5525  23.176   1.655  17.682  0.0132  0.0331  0.2586
68032W        W 5526  26.810  16.113  19.905  0.0054 -0.0641 -0.1802
68033W        W 5527  35.286   9.078  23.388  0.0338 -0.2202  0.1229
68034W        W 5528   5.811  23.319   1.015  0.2568 -0.0051  0.0424
68035W        W 5529   9.183  16.515  23.125 -0.2407 -0.0490  0.0758
68036W        W 5530  17.465  22.638   4.984  0.0240  0.3053  0.1055
68037W        W 5531  28.638  17.086  19.437 -0.0867  0.0686  0.0502
68038W        W 5532  24.307   6.993  24.241 -0.0650  0.1648 -0.1102
68039W        W 5533  21.153   8.337   3.161 -0.2247 -0.2634  0.3232
68040W        W 5534   4.501  33.728   8.362  0.1701 -0.1555 -0.1769
68041W        W 5535   1.005   0.922  22.487 -0.4486  0.3320 -0.2320
68042W        W 5536  20.970  11.297  19.829  0.0914  0.3606  0.0068
68043W        W 5537  29.327   5.690  11.932  0.1760  0.0346  0.0736
68044W        W 5538  34.708  21.154  26.194 -0.1448 -0.0512 -0.0574
68045W        W 5539  16.572  31.177   8.283  0.0336  0.0663 -0.1122
68046W        W 5540  14.236  14.970  23.975  0.1338 -0.1749 -0.0442
68047W        W 5541  31.650   6.628  23.079 -0.0903 -0.2247  0.0231
68048W        W 5542  27.015  14.045  14.053  0.0113 -0.2153 -0.2307
68049W        W 5543   4.324  26.236   2.456 -0.0892 -0.0540 -0.3889
68050W        W 5544  11.519  34.913  10.713  0.0264  0.3082 -0.2112
68051W        W 5545   6.502  15.665  22.773  0.0548  0.1042 -0.1702
68052W        W 5546   1.229  11.602   3.337 -0.2930 -0.2453 -0.1011
68053W        W 5547   2.521  27.409  24.084  0.0460 -0.2935  0.2035
68054W        W 5548  24.876  34.600  15.251 -0.1927 -0.1556  0.1898
68055W        W 5549   1.337   8.689  13.884 -0.3614 -0.0320 -0.0749
68056W        W 5550  19.551   9.626  22.518  0.2451  0.1676  0.0243
68057W        W 5551   9.169  21.336  24.627 -0.1350  0.1187 -0.0445
68058W        W 5552   5.816   7.114   4.048  0.3212  0.0856  0.0555
68059W        W 5553  31.285  23.048  25.416  0.0242 -0.2283 -0.2878
68060W        W 5554  10.255  33.601   3.226 -0.2188 -0.2475  0.0945
68061W        W 5555  20.316  27.169  21.335  0.2709 -0.2298  0.0640
68062W        W 5556  11.831  10.070  22.404  0.0006 -0.0276  0.0089
68063W        W 5557  16.007   9.514  12.682  0.1880 -0.1531 -0.0889
68064W        W 5558   8.993  26.349  23.732  0.0080  0.1945 -0.1265
68065W        W 5559   5.692  25.267   9.432  0.0012 -0.1200  0.0499
68066W        W 5560   7.197   4.898   3.941  0.3523  0.0398  0.0045
68067W        W 5561   5.817  11.437   8.664 -0.3011 -0.1556 -0.1251
68068W        W 5562  24.771  29.824  10.378  0.2391 -0.1347  0.2863
68069W        W 5563  15.591   1.622  10.606 -0.0017  0.0184 -0.1658
68070W        W 5564  31.782  32.315  25.890 -0.0335  0.0418 -0.2285
68071W        W 5565  11.564   9.710  20.781 -0.0849 -0.1638  0.2012
68072W        W 5566   1.046  29.344  22.142 -0.1316 -0.1850  0.0055
68073W        W 5567  30.570   6.136  23.336 -0.1369 -0.0908 -0.2179
68074W        W 5568   7.647  24.949  15.239  0.2020 -0.1819 -0.0074
68075W        W 5569  23.602   6.235  14.060 -0.1812  0.2290 -0.3865
68076W        W 5570  19.753  16.661   7.402 -0.0722  0.1648  0.2384
68077W        W 5571  20.667  28.291  23.333  0.3252 -0.1444  0.0529
68078W        W 5572  25.450  32.326   2.413  0.1973 -0.0401 -0.0101
68079W        W 5573   7.187   9.453   3.643 -0.2023  0.3121 -0.1479
68080W        W 5574  29.925   0.614  25.467  0.0785 -0.0606 -0.3080
68081W        W 5575   7.037  22.544   7.088 -0.0803 -0.1909  0.2468
68082W        W 5576  34.867  31.953   8.764 -0.3082 -0.0327  0.2794
68083W        W 5577  22.889  17.346  26.061  0.1231 -0.1373  0.0936
68084W        W 5578  11.157  24.863  15.699 -0.0219  0.0642 -0.1238
68085W        W 5579  31.818  16.620  17.923 -0.0296  0.0778 -0.0290
68086W        W 5580  31.607  28.091  20.128  0.0406  0.1937  0.2793
68087W        W 5581   5.176   4.058  10.790  0.2224  0.1756 -0.1061
68088W        W 5582   1.181  23.610  12.273  0.0666 -0.1234 -0.0955
68089W        W 5583  23.441  22.960  14.785 -0.0780  0.0967  0.0901
68090W        W 5584  22.291  13.112  17.067  0.0098 -0.0985  0.0463
68091W        W 5585  15.436  12.866  21.724 -0.1391  0.0048 -0.1104
68092W        W 5586  13.981  31.688  11.804  0.1043  0.1768 -0.0364
68093W        W 5587  27.969  31.969  18.480 -0.0493 -0.2534  0.1472
68094W        W 5588  21.040  18.063   1.611 -0.2226 -0.1562  0.2213
68095W        W 5589   9.542   0.536  25.811 -0.0873 -0.1121  0.3970
68096W        W 5590  16.396   1.912   5.742  0.1330 -0.0932  0.0965
68097W        W 5591  19.998   5.401  16.048  0.0341  0.3253 -0.0468
68098W        W 5592  20.942  20.419  20.270 -0.1353  0.1554  0.3070
68099W        W 5593  19.196  29.947   7.608  0.1983 -0.3040 -0.1544
68100W        W 5594  12.368  20.248  12.113  0.0505  0.0712  0.1616
68101W        W 5595   2.171  16.909  15.773  0.2105 -0.0084 -0.0844
68102W        W 5596  20.007   4.642  21.431 -0.1245  0.0903  0.2175
68103W        W 5597   5.248  25.787   9.661 -0.0495  0.3440 -0.0690
68104W        W 5598  10.213  21.871  23.717 -0.0999 -0.2256 -0.0283
68105W        W 5599   5.817  19.340   6.439 -0.1754  0.3056 -0.0250
68106W        W 5600  11.821   3.372   4.008 -0.0653 -0.0537 -0.0109
68107W        W 5601  29.836   8.779  10.361 -0.0886 -0.1504 -0.5572
68108W        W 5602  17.226  20.716  21.312 -0.3923  0.2547 -0.0833
68109W        W 5603  11.090  28.815  10.251  0.0572  0.3576 -0.0523
68110W        W 5604  29.137  22.646  23.620 -0.0029  0.3621 -0.3489
68111W        W 5605  22.485  33.923   5.470 -0.0054 -0.1085 -0.2326
68112W        W 5606   2.485  16.919  14.838 -0.1641  0.2542 -0.0845
68113W        W 5607   0.470  13.374  15.220 -0.0651 -0.1186 -0.0036
68114W        W 5608   9.117  23.431   9.427  0.0179  0.2186  0.1093
68115W        W 5609  31.954   8.748  13.407 -0.1741 -0.1776  0.2804
68116W        W 5610   7.944   2.755  14.090 -0.0655 -0.2573  0.2723
68117W        W 5611  34.417  22.084  20.031  0.0631  0.0291 -0.0488
68118W        W 5612  15.278   6.487   2.075  0.0233 -0.0966 -0.1813
68119W        W 5613  29.273  14.832  13.157  0.2277 -0.0778 -0.0602
68120W        W 5614  29.884  27.121  22.733  0.0299 -0.0777 -0.3239
68121W        W 5615  13.152   8.376  23.331 -0.1363 -0.0957  0.0429
68122W        W 5616   0.040  14.553  24.155 -0.0657 -0.1196 -0.0592
68123W        W 5617   6.037   8.851   1.542 -0.0035 -0.0243  0.0961
68124W        W 5618   7.686  25.461  13.895  0.4366  0.2565 -0.3341
68125W        W 5619   7.757   4.215   9.645  0.1357  0.0584 -0.0562
68126W        W 5620  11.070  21.391   8.288 -0.1806  0.4622  0.1630
68127W        W 5621  20.479  22.643   5.621 -0.2030 -0.2193 -0.1999
68128W        W 5622  18.463  11.584   9.157  0.3358  0.1035 -0.2162
68129W        W 5623  14.444  23.537  13.439 -0.1572  0.1231 -0.1955
68130W        W 5624   3.642  10.680  24.005  0.1073 -0.1020 -0.1230
68131W        W 5625   7.698   6.316  10.804 -0.2236 -0.0402 -0.0257
68132W        W 5626   9.630  18.047  22.121 -0.2152 -0.1498  0.1016
68133W        W 5627  10.824  20.685  16.397  0.0018 -0.1129  0.0344
68134W        W 5628  34.682  26.336  18.222 -0.1421  0.0454  0.0438
68135W        W 5629   3.167  28.043  13.462 -0.0083 -0.1261  0.0625
68136W        W 5630  12.941  18.062  13.909 -0.1482 -0.1567  0.1059
68137W        W 5631  28.519  25.325  21.526  0.2668  0.1740  0.2477
68138W        W 5632  29.861  34.768   0.723  0.5810 -0.2468  0.2267
68139W        W 5633  35.366  10.784  10.601  0.1561  0.1137 -0.1151
68140W        W 5634  26.422  20.783  15.527 -0.1017 -0.2975 -0.0008
68141W        W 5635  10.983  17.151   7.953 -0.3748 -0.1653  0.1761
68142W        W 5636  18.881   6.053   3.216  0.3843  0.3932 -0.0709
68143W        W 5637   1.023  28.480  25.664 -0.1464  0.0265 -0.1844
68144W        W 5638  28.211  34.338  22.300 -0.1070  0.1732 -0.3939
68145W        W 5639  29.192   0.492  21.949 -0.0752 -0.1254 -0.0127
68146W        W 5640  17.756   7.265  17.719 -0.3004  0.3109  0.0888
68147W        W 5641  13.088   3.988   9.550 -0.1881 -0.3736 -0.0426
68148W        W 5642  14.762  30.003  23.214 -0.0846  0.0772  0.0336
68149W        W 5643  27.499  20.154  18.093  0.1658 -0.1222  0.3075
68150W        W 5644  31.242  18.940  20.232  0.2219  0.1753  0.3406
68151W        W 5645  12.979  12.876   8.174  0.7666  0.2792 -0.1079
68152W        W 5646  28.929  11.572  16.911 -0.1647  0.1481 -0.0217
68153W        W 5647  13.151  15.019  11.938 -0.1742 -0.0939 -0.0022
68154W        W 5648  30.704   9.457  24.902  0.2852  0.1729  0.1544
68155W        W 5649  12.422   0.343   9.565  0.3077 -0.0192  0.1129
68156W        W 5650  35.195  25.407   0.236 -0.0088  0.2163 -0.0121
68157W        W 5651  19.210  19.785  24.532 -0.1382 -0.0571  0.0687
68158W        W 5652  10.783  25.058   3.982  0.1418  0.0733  0.0570
68159W        W 5653  20.426  24.973  21.631  0.2317 -0.0296  0.1069
68160W        W 5654  31.432   2.493   4.966  0.2715  0.2209  0.0040
68161W        W 5655  34.402   5.360   0.707  0.0606 -0.2094 -0.0504
68162W        W 5656   7.316  12.980   2.900 -0.1773 -0.5399  0.1615
68163W        W 5657   2.361  10.275  20.105 -0.1510  0.3621  0.0367
68164W        W 5658   0.906   9.438  14.431  0.1453 -0.1034  0.0805
68165W        W 5659  16.967  25.057   3.334  0.2133 -0.1053 -0.1209
68166W        W 5660  15.205  29.181   5.766  0.0339  0.1378 -0.2982
68167W        W 5661  24.673  16.556  13.981 -0.0818 -0.1147 -0.2579
68168W        W 5662   4.932  17.204  20.818 -0.0755  0.1070 -0.3827
68169W        W 5663  18.414  16.456  20.873 -0.1091  0.0587 -0.0152
68170W        W 5664  24.300   1.949  24.922 -0.0997  0.2103 -0.0347
68171W        W 5665   4.963  28.531  11.939 -0.1434  0.0324 -0.0186
68172W        W 5666  17.673  14.168  19.551 -0.0194  0.1362  0.0364
68173W        W 5667   8.328  17.686  19.202 -0.3347 -0.0068 -0.2685
68174W        W 5668   6.266   8.597  18.652 -0.2475 -0.2153  0.0839
68175W        W 5669  22.293   3.393  24.983  0.0117 -0.1454 -0.4329
68176W        W 5670  21.748  21.564  16.791 -0.0440 -0.0098 -0.3386
68177W        W 5671  27.307  34.849  22.874  0.1035  0.3823 -0.3443
68178W        W 5672  12.033  33.155  12.329  0.0865 -0.1462 -0.2846
68179W        W 5673  11.980  15.192  21.324  0.1897  0.0437 -0.1310
68180W        W 5674  18.905  17.203   7.351  0.0690  0.1474  0.1027
68181W        W 5675  21.128  27.160  21.804  0.3060 -0.0964 -0.0191
68182W        W 5676  33.201  32.640  15.018 -0.1755 -0.3974 -0.1696
68183W        W 5677   5.372  32.863  12.638 -0.1246 -0.3996  0.1085
68184W        W 5678  28.624  10.117  11.214  0.0124  0.0902  0.2361
68185W        W 5679   0.543   5.358  22.240  0.3349 -0.2844 -0.1209
68186W        W 5680   8.911  16.566  21.012 -0.2600  0.3807  0.0775
68187W        W 5681   7.092  23.601   7.470 -0.3812 -0.0032  0.1687
68188W        W 5682   2.292   1.209  24.747  0.0295 -0.0703 -0.2294
68189W        W 5683  20.328   3.678  15.629  0.0620  0.1123  0.0855
68190W        W 5684  15.423  23.656  25.730  0.4189 -0.3062  0.0581
68191W        W 5685  28.088  24.846  15.258  0.0034 -0.0945 -0.1010
68192W        W 5686  31.398  34.666  23.487  0.4394 -0.1886 -0.0028
68193W        W 5687   9.115   9.904  14.109  0.0123  0.0649  0.1141
68194W        W 5688   8.310  29.612  13.144 -0.0433 -0.0911 -0.3224
68195W        W 5689  34.497  18.685  24.361  0.1739 -0.0675  0.1104
68196W        W 5690   9.407   1.111   1.353  0.0570  0.0743 -0.1057
68197W        W 5691   4.130   3.078   7.402 -0.0765  0.3228  0.2088
68198W        W 5692  20.356  34.281  15.615  0.0353  0.2097  0.0847
68199W        W 5693   6.453  29.206  15.167  0.1225  0.1284 -0.2438
68200W        W 5694   6.994  24.537  10.353  0.1039  0.0493  0.2830
68201W        W 5695  31.945  29.386  18.586 -0.3108 -0.0591  0.1905
68202W        W 5696  27.627   3.363   3.179 -0.1132 -0.2860  0.0535
68203W        W 5697  22.394  20.108   2.629 -0.0071 -0.1552 -0.1842
68204W        W 5698  12.188  21.643  14.220  0.2455 -0.1018 -0.3182
68205W        W 5699   5.864  31.106  21.005 -0.0033 -0.2029 -0.4690
68206W        W 5700  11.929  27.627   4.391  0.0407  0.1371  0.0022
68207W        W 5701   2.809  34.193  23.396 -0.1942  0.0492  0.3317
68208W        W 5702  27.002  13.777  14.627  0.0795 -0.1979  0.0729
68209W        W 5703   6.158   1.173   0.889 -0.2123  0.2874  0.1899
68210W        W 5704  29.436  30.679  14.827 -0.2506  0.0347 -0.3502
68211W        W 5705  14.984  15.717   1.348 -0.2345  0.0994 -0.1490
68212W        W 5706  29.187   2.666  24.698 -0.1894  0.1420 -0.0718
68213W        W 5707  21.901  26.725   3.461  0.0511  0.3350 -0.2070
68214W        W 5708   9.780  32.283   9.193 -0.1308 -0.0542  0.6535
68215W        W 5709  15.727  22.190   9.563 -0.3765 -0.3641 -0.0203
68216W        W 5710  34.087  33.272   0.582 -0.0162  0.0056 -0.1438
68217W        W 5711   9.892   5.045   8.309  0.0460  0.0587  0.1418
68218W        W 5712   4.599  17.195   1.102  0.2248 -0.1079 -0.0856
68219W        W 5713  34.418  12.830  11.022  0.0743  0.1375 -0.1961
68220W        W 5714   9.496  33.125  12.126  0.1771  0.0216 -0.0943
68221W        W 5715   5.344  34.445   0.850  0.3671 -0.1171 -0.3716
68222W        W 5716  16.482   3.875  17.728  0.1226 -0.1385 -0.4164
68223W        W 5717  17.359  14.677   8.276  0.0313  0.0099 -0.0453
68224W        W 5718  13.101  30.199   3.779 -0.0834  0.1175  0.3493
68225W        W 5719   1.422  35.030  19.741  0.1275  0.0500  0.0998
68226W        W 5720  32.649  16.062  17.348  0.0078  0.1052 -0.5155
68227W        W 5721  22.344  19.084  22.387 -0.2373 -0.1091  0.2751
68228W        W 5722   2.523  20.867  25.497  0.2275 -0.3402 -0.4955
68229W        W 5723   4.445  14.311  18.984 -0.2199 -0.0226 -0.1602
68230W        W 5724  16.914   1.421   8.238 -0.1777 -0.1518 -0.1444
68231W        W 5725  19.425   3.796   2.425  0.4030 -0.2256 -0.0356
68232W        W 5726  27.209  20.808  22.824  0.2915  0.1823  0.1652
68233W        W 5727  18.092  32.368  19.609 -0.1467 -0.0999 -0.1392
68234W        W 5728  25.991   9.123  16.052  0.4238  0.0189  0.1918
68235W        W 5729  17.487   8.207  25.750  0.1349  0.2558 -0.0195
68236W        W 5730  10.248  17.143  21.208  0.2472 -0.3514 -0.0984
68237W        W 5731  32.291  12.285  23.492  0.3683  0.0377  0.0802
68238W        W 5732  23.914  13.126   3.132  0.3016  0.1787 -0.3395
68239W        W 5733  16.789  20.528  20.773  0.0690 -0.0457 -0.1305
68240W        W 5734  19.246  32.741  24.568 -0.0795  0.0439 -0.0031
68241W        W 5735   9.031   5.440   1.824 -0.0792  0.4560  0.2037
68242W        W 5736  26.005   1.794  13.757 -0.1074  0.1638 -0.1358
68243W        W 5737  10.513  28.743  21.787 -0.2286 -0.0970  0.1181
68244W        W 5738  27.853  35.194  15.312  0.0775  0.0084 -0.1669
68245W        W 5739  11.725   6.923   2.273  0.0172 -0.0300 -0.2216
68246W        W 5740  13.250   7.247  19.446 -0.1973  0.2407  0.0135
68247W        W 5741  15.324  29.830   5.528 -0.1380  0.1155  0.2788
68248W        W 5742  13.196  29.511  24.980  0.0550  0.1923  0.2423
68249W        W 5743  21.140  18.862  16.039 -0.1668  0.0352 -0.1784
68250W        W 5744  34.028  14.439  16.182 -0.1376 -0.0392 -0.1764
68251W        W 5745  29.860   7.859  25.398 -0.1527  0.4226  0.0732
68252W        W 5746  13.730  12.799  21.010  0.1799 -0.1744  0.0096
68253W        W 5747  26.788  16.640  22.783  0.1244  0.0153 -0.0588
68254W        W 5748  12.224  25.865  24.977 -0.1004 -0.3604 -0.0873
68255W        W 5749  27.087   0.998  12.310 -0.0466  0.1941 -0.3436
68256W        W 5750  33.451   2.809   0.544 -0.0306 -0.0081  0.4539
68257W        W 5751  20.795  34.613  20.271 -0.1303  0.0615 -0.1841
68258W        W 5752  12.224  16.792  12.338 -0.0739 -0.0675 -0.2606
68259W        W 5753  25.370   8.277  17.745 -0.1658  0.1357  0.3196
68260W        W 5754  20.319   1.663  23.001  0.1744  0.0707  0.1201
68261W        W 5755  27.108  27.209  11.916  0.6619 -0.2268  0.1286
68262W        W 5756  10.399  30.558  23.064  0.3335 -0.0753  0.2486
68263W        W 5757  20.053  34.109   2.567 -0.2299  0.3322 -0.2107
68264W        W 5758   6.147  13.023  19.870  0.1899 -0.2319 -0.0691
68265W        W 5759  15.480   6.414  11.572  0.1743 -0.3135  0.0622
68266W        W 5760  17.078   9.449  25.766 -0.0467  0.2394  0.3008
68267W        W 5761  10.927   5.108   4.312  0.0076 -0.0901 -0.2009
68268W        W 5762  27.949  31.697   1.672 -0.0909  0.1180 -0.1544
68269W        W 5763  19.206   1.687  25.280  0.0998 -0.1057  0.2499
68270W        W 5764  13.677   1.260  24.409  0.2741  0.2664 -0.0540
68271W        W 5765  29.156  23.185   6.615 -0.2467  0.0135  0.1697
68272W        W 5766  15.604  29.023  22.247  0.1590 -0.3814  0.1801
68273W        W 5767   7.117   6.461   6.886  0.1403 -0.0571 -0.2854
68274W        W 5768  19.057  29.903   8.074 -0.0528 -0.3091 -0.2595
68275W        W 5769  19.034  26.587  19.920 -0.2072  0.4975 -0.3574
68276W        W 5770  24.947  18.051  16.878 -0.1435  0.0938  0.4468
68277W        W 5771   9.739   7.848  22.510 -0.0429 -0.3390 -0.1447
68278W        W 5772  32.835  21.984  15.842  0.2065 -0.0677 -0.1094
68279W        W 5773   2.814   8.765   3.916  0.3453  0.0017 -0.2560
68280W        W 5774  18.349  32.502  21.873  0.3431 -0.0549 -0.1332
68281W        W 5775  14.000   9.580  22.685 -0.0596  0.2357 -0.1276
68282W        W 5776  11.204  25.149  25.814  0.3784 -0.4744 -0.2042
68283W        W 5777  14.387  28.695  24.632 -0.3933 -0.0290  0.1635
68284W        W 5778  19.245   3.274   3.652  0.0049  0.2183 -0.0266
68285W        W 5779   2.272  11.208   3.584  0.2501  0.0489 -0.1925
68286W        W 5780  19.311  35.385   3.213 -0.0381 -0.1334  0.1603
68287W        W 5781  15.947  27.254  12.900 -0.1784 -0.2833 -0.1159
68288W        W 5782   8.497  29.141   4.954 -0.2293  0.1162  0.0826
68289W        W 5783  19.324  18.229  23.645  0.0951 -0.1586  0.0166
68290W        W 5784  34.369  33.488  22.118 -0.0851  0.1282  0.2247
68291W        W 5785   7.557   3.030   8.882 -0.1383  0.1839  0.0916
68292W        W 5786  14.466  32.228   6.562 -0.1532  0.2291  0.2984
68293W        W 5787  29.118  13.789   4.595  0.0061  0.3252 -0.0011
68294W        W 5788  11.689  25.423   5.936  0.1475 -0.0725  0.1420
68295W        W 5789   6.079  14.549   4.517 -0.2416  0.4988  0.0531
68296W        W 5790  12.671  17.139  23.332 -0.0102  0.3110  0.0274
68297W        W 5791  30.256   7.410  26.042  0.0099  0.1301 -0.0819
68298W        W 5792  10.693   5.451  22.329  0.1544  0.1281 -0.0264
68299W        W 5793   0.061  27.401  20.909 -0.0678 -0.2396 -0.0700
68300W        W 5794  10.948  22.564   2.636 -0.2384  0.0400  0.1912
68301W        W 5795  23.420  10.136   2.939  0.3069  0.0867 -0.6439
68302W        W 5796  18.778  31.636   2.256 -0.1378 -0.3418  0.2314
68303W        W 5797  25.807  25.743  11.136  0.3890  0.1849  0.0291
68304W        W 5798  19.009  28.179   1.370  0.2847  0.0767  0.1228
68305W        W 5799  15.557   4.353  11.545  0.3815 -0.1333  0.1446
68306W        W 5800  33.473  31.277   5.087 -0.2496  0.0440 -0.1472
68307W        W 5801  17.481  15.911  18.253  0.1060  0.1170 -0.0262
68308W        W 5802   0.851   5.751  24.003  0.0853  0.0841 -0.0642
68309W        W 5803  21.189   1.944  15.784  0.3322 -0.1261  0.0652
68310W        W 5804  34.497  24.995  21.085 -0.1560  0.1659 -0.0316
68311W        W 5805  15.684   6.637   2.382 -0.0223  0.0388 -0.3201
68312W        W 5806  13.771  11.415   0.517 -0.0048 -0.0680 -0.0183
68313W        W 5807   2.668   3.456   7.277 -0.2074  0.1016 -0.1690
68314W        W 5808  18.131  30.500  23.610  0.3505  0.1794 -0.3358
68315W        W 5809  25.913   3.066  23.654  0.1248 -0.2760 -0.0438
68316W        W 5810   8.774  23.714   8.138 -0.1026  0.1454 -0.2155
68317W        W 5811  14.906  18.232   3.575 -0.0599 -0.1857 -0.4440
68318W        W 5812  19.520  25.204   2.245  0.1326  0.2156  0.0614
68319W        W 5813  12.565   5.009  26.100  0.0671 -0.2353  0.1590
68320W        W 5814  16.843  17.676   4.903 -0.1687 -0.0578  0.0090
68321W        W 5815  24.512  20.985  26.137  0.0836 -0.0447  0.2760
68322W        W 5816  35.205  29.158  25.898 -0.0071 -0.4564 -0.0777
68323W        W 5817   1.140  10.400  21.435 -0.1444 -0.2440  0.0911
68324W        W 5818  10.647  15.854  19.777 -0.1514 -0.0440 -0.1045
68325W        W 5819  25.007   2.839  21.982 -0.2896 -0.0597  0.0334
68326W        W 5820  16.553   3.330  22.492 -0.0683  0.2019 -0.2084
68327W        W 5821  33.256  30.719   1.686  0.1063  0.0689  0.1933
68328W        W 5822  17.934   8.532   9.124  0.2588 -0.0360 -0.0395
68329W        W 5823  29.798  22.857   8.863 -0.2101 -0.2756  0.0666
68330W        W 5824  19.595  16.000  22.362  0.2661  0.1684  0.2976
68331W        W 5825   9.633  18.849  21.335  0.0707 -0.2112  0.0814
68332W        W 5826   4.519   0.408  11.049  0.1603  0.0363 -0.3216
68333W        W 5827  22.765  32.220  13.363  0.1883 -0.2196 -0.0502
68334W        W 5828  33.742   4.279  14.450  0.2943  0.2144  0.1012
68335W        W 5829   3.217   9.386   2.503 -0.2925 -0.1367 -0.0835
68336W        W 5830  34.950  13.704  18.532 -0.0571  0.2205  0.1409
68337W        W 5831  23.656   9.434  24.380 -0.0870  0.0502 -0.2768
68338W        W 5832   0.566  30.823   5.517 -0.0407  0.1512 -0.2528
68339W        W 5833  18.254  23.697   9.446  0.2320 -0.1639 -0.0167
68340W        W 5834   4.839  15.013  21.432  0.0518  0.0988 -0.0772
68341W        W 5835  28.529  29.668  22.051 -0.2006  0.0589 -0.1960
68342W        W 5836  19.786  34.199   4.442 -0.0646 -0.0486  0.0875
68343W        W 5837  23.317  13.285  22.021 -0.1131 -0.1877  0.1937
68344W        W 5838  27.727   5.769  25.914  0.0279  0.0599  0.0076
68345W        W 5839  27.607   6.514  11.030 -0.2451  0.2218 -0.1687
68346W        W 5840  25.563   3.766  23.386  0.1542 -0.0190  0.2447
68347W        W 5841   3.470  32.749   0.383 -0.0390 -0.2166 -0.0915
68348W        W 5842   1.801   9.128   2.582  0.0805 -0.0512 -0.1219
68349W        W 5843  19.063  28.347  19.718  0.3658 -0.0549  0.0444
68350W        W 5844  19.511  22.560   8.960 -0.0167  0.0618 -0.1654
68351W        W 5845  18.219  17.291  21.897 -0.0394  0.0240 -0.3648
68352W        W 5846  26.365  26.289   0.418  0.0224  0.2148  0.1841
68353W        W 5847  20.539   7.099  17.232  0.0341 -0.3472  0.0464
68354W        W 5848  16.020  19.896   2.567  0.2235  0.2987  0.4657
68355W        W 5849  18.155   0.298  24.381 -0.1148 -0.0406  0.1586
68356W        W 5850  34.604  23.620  22.037  0.0491 -0.0206  0.2900
68357W        W 5851  31.384   8.425  15.337 -0.0108 -0.2423 -0.1090
68358W        W 5852   2.654   6.719  20.235 -0.0538 -0.0050  0.1089
68359W        W 5853  26.410   0.561  17.393 -0.2998  0.3756  0.1018
68360W        W 5854   8.605  30.832  22.141 -0.0063 -0.2489  0.1208
68361W        W 5855   7.134   9.034   6.796 -0.0401 -0.4772  0.2087
68362W        W 5856   4.067   0.864   0.757 -0.1086 -0.3868 -0.0456
68363W        W 5857   4.045  27.466   1.013 -0.5523 -0.0581 -0.0292
68364W        W 5858  26.807   2.592   4.643 -0.4511 -0.1352 -0.4216
68365W        W 5859  12.869  14.163  21.676 -0.0545  0.3560  0.4213
68366W        W 5860   6.794  18.591   0.418  0.0996 -0.0621  0.1349
68367W        W 5861  29.939  16.167  19.379 -0.4510 -0.0227 -0.2316
68368W        W 5862   7.735  25.050   7.921 -0.0815 -0.0423  0.2027
68369W        W 5863  30.972   9.472  24.072  0.0254 -0.1516 -0.1073
68370W        W 5864  32.669  14.752  11.047  0.0932 -0.0740 -0.1835
68371W        W 5865   9.650  26.849  22.111  0.0094  0.1604 -0.2047
68372W        W 5866  15.416  19.442  13.571  0.0258  0.1168  0.0365
68373W        W 5867  16.866   8.073  25.532  0.1436 -0.0944  0.0882
68374W        W 5868  24.736  22.213  23.594  0.1351 -0.1577 -0.2504
68375W        W 5869  10.886   6.802   9.685 -0.2626 -0.3108  0.3403
68376W        W 5870  27.763  18.551  15.703  0.0139  0.2274 -0.0975
68377W        W 5871  34.658  27.764  25.346  0.0839 -0.1651  0.0481
68378W        W 5872  14.340   3.007  19.189 -0.1886 -0.0492  0.0023
68379W        W 5873  34.106   9.214  18.863 -0.0024 -0.2054 -0.2621
68380W        W 5874  33.611   9.960  23.262  0.2966  0.1789  0.0984
68381W        W 5875   4.050  30.636   5.111  0.0538  0.1196  0.2343
68382W        W 5876  20.404   8.199   0.331 -0.1333  0.0690  0.1370
68383W        W 5877  28.037  28.508  20.869  0.0852 -0.0327 -0.4764
68384W        W 5878  25.259  31.537  12.824  0.1193  0.0284  0.1528
68385W        W 5879  27.895  31.544  24.819  0.1887 -0.1510 -0.2264
68386W        W 5880  27.455   1.385  14.341  0.0436 -0.0865  0.2708
68387W        W 5881  28.351  22.934  22.131 -0.1358 -0.1312  0.0144
68388W        W 5882  31.354  22.498  12.572 -0.0139 -0.2020  0.0179
68389W        W 5883   8.728  10.534   1.762  0.1742 -0.1566 -0.1285
68390W        W 5884  17.807  24.389   0.786  0.0921 -0.0490  0.0988
68391W        W 5885  26.021  19.186  18.213  0.0356  0.1343 -0.1160
68392W        W 5886  10.114  22.530  17.372  0.0360 -0.1582 -0.0203
68393W        W 5887  19.711  17.471  21.093  0.1184 -0.0191  0.2268
68394W        W 5888   5.408  22.047   4.041  0.1330  0.1211  0.0502
68395W        W 5889  19.737   6.974  18.561 -0.1467 -0.1309  0.0370
68396W        W 5890  16.499  25.592  10.852 -0.0480 -0.0268 -0.2685
68397W        W 5891  20.366  28.460  19.738 -0.2815 -0.0206 -0.0797
68398W        W 5892  30.949   5.134  21.673  0.0249  0.0725 -0.0749
68399W        W 5893  24.028  19.561  13.484  0.1959 -0.2295 -0.1126
68400W        W 5894  30.205  15.886  22.745 -0.1546 -0.0857  0.0515
68401W        W 5895  16.264  12.049  13.876  0.1094  0.1068 -0.2234
68402W        W 5896  34.309  29.437   0.819  0.0151  0.0402  0.1449
68403W        W 5897   2.326  18.281  24.174  0.0105  0.1730  0.0569
68404W        W 5898  32.843  15.128  13.070  0.0557  0.1804  0.0275
68405W        W 5899   4.135  29.883  10.036  0.0452 -0.2392  0.0212
68406W        W 5900  20.053   8.460  10.670  0.0272  0.0908 -0.2644
68407W        W 5901  11.793  20.185  12.278 -0.0491  0.1973  0.2005
68408W        W 5902  17.812  25.610  12.172 -0.2716 -0.0970  0.1529
68409W        W 5903  14.914   3.850   3.631 -0.0492 -0.1851  0.2065
68410W        W 5904   9.607   9.143  10.341 -0.0117 -0.2634  0.0185
68411W        W 5905  19.134  22.273   3.166  0.1071  0.2174  0.0501
68412W        W 5906  31.843  22.756  15.170 -0.2764  0.0558 -0.0570
68413W        W 5907  17.950  30.040   6.478  0.3648  0.0404  0.1170
68414W        W 5908  21.880  25.790   1.943 -0.1892 -0.1757  0.3042
68415W        W 5909   9.725   0.482   8.535  0.0870 -0.4085 -0.1621
68416W        W 5910  20.144  30.926  25.715  0.2651  0.1366 -0.1328
68417W        W 5911   8.174   1.572  23.527  0.0403 -0.0105 -0.1351
68418W        W 5912   5.799  26.751  22.269 -0.2400  0.0686  0.1910
68419W        W 5913  27.412  22.619   6.768 -0.1443 -0.1866 -0.4018
68420W        W 5914  15.868  10.964  21.808  0.0355 -0.2722 -0.0991
68421W        W 5915  14.031   5.065   0.231 -0.2494  0.2415 -0.0003
68422W        W 5916  13.997   1.402  19.547 -0.1905 -0.4009 -0.1944
68423W        W 5917  22.267   5.336  15.071 -0.0357 -0.1056  0.1672
68424W        W 5918  15.842  15.892  19.749 -0.0297 -0.1549  0.0935
68425W        W 5919   2.171  32.793   9.793  0.2740 -0.3054 -0.1870
68426W        W 5920   1.479  13.130  14.468  0.3208 -0.0175 -0.0098
68427W        W 5921  13.057  12.799   7.694 -0.1763  0.3532 -0.3208
68428W        W 5922   1.297  20.629  20.579  0.2140  0.3094  0.1743
68429W        W 5923  21.430  14.109  20.513  0.0349  0.2885  0.0327
68430W        W 5924   5.799  12.019   7.996  0.1505 -0.0183  0.1080
68431W        W 5925   3.953  20.654  17.599  0.0928 -0.0238  0.0948
68432W        W 5926  18.326  26.727   1.200  0.1738  0.0639  0.0216
68433W        W 5927   8.578  13.141  23.167 -0.2636 -0.0955  0.4513
68434W        W 5928   8.234  34.806   4.919  0.1538  0.2900 -0.0328
68435W        W 5929  10.712  25.004  15.536  0.2364  0.4437  0.1025
68436W        W 5930   8.093  30.728   0.945 -0.1372 -0.1819 -0.0179
68437W        W 5931  35.285  15.799  12.354 -0.3704 -0.0943  0.1684
68438W        W 5932  19.855  23.809  22.130 -0.0340  0.3483  0.3172
68439W        W 5933   3.215   3.691   3.032  0.1520 -0.1487 -0.0048
68440W        W 5934  26.418  34.551   4.963  0.1370  0.1306 -0.2478
68441W        W 5935  15.923   4.541   0.968 -0.3499 -0.0359 -0.1351
68442W        W 5936  11.993   4.238  21.572 -0.1788  0.1930 -0.0027
68443W        W 5937   6.192  14.933  20.859  0.1143 -0.3378 -0.3257
68444W        W 5938  26.193   2.975  17.227  0.0823  0.0748  0.0420
68445W        W 5939  21.937  26.129   1.521  0.0294  0.1220  0.0862
68446W        W 5940  34.534   1.361   8.006  0.0057  0.1553 -0.2276
68447W        W 5941  29.984  31.949  20.693  0.2114  0.0882 -0.2389
68448W        W 5942  10.184  11.772   8.731 -0.1849  0.2714 -0.0014
68449W        W 5943  15.013   5.125  11.793 -0.1980 -0.1132  0.1058
68450W        W 5944  33.718   2.075   6.681 -0.0394 -0.3354  0.1784
68451W        W 5945   2.928   3.228   1.249 -0.1874 -0.0092 -0.1152
68452W        W 5946  20.674   0.979  24.218  0.1943 -0.4094 -0.1192
68453W        W 5947  31.423  18.650  24.865  0.0221 -0.1324  0.3273
68454W        W 5948  10.808  21.956  12.850 -0.1049  0.2854  0.1429
68455W        W 5949  11.562  24.004   0.687  0.1231 -0.1337  0.1584
68456W        W 5950  18.262  14.355  18.716 -0.1049  0.1730  0.0067
68457W        W 5951  18.997   2.936   8.824  0.0618 -0.3756  0.1691
68458W        W 5952  20.240  29.831   4.283 -0.0775  0.0459 -0.0274
68459W        W 5953   7.611  17.070   4.107  0.1266 -0.0351 -0.2157
68460W        W 5954   3.198  33.297  22.702 -0.1439  0.0639 -0.0330
68461W        W 5955  34.808   0.103  23.924  0.0622  0.1247 -0.3969
68462W        W 5956  13.890  19.781   9.655 -0.0782 -0.0444 -0.1361
68463W        W 5957  13.574  23.604  24.482  0.2055  0.3771  0.1439
68464W        W 5958  27.661   2.594   2.628  0.2871  0.0352 -0.0033
68465W        W 5959   7.752  21.972  23.796  0.1120  0.1292 -0.0216
68466W        W 5960  31.748  17.981   7.127  0.0858  0.0832 -0.2825
68467W        W 5961  14.688   6.512  11.640  0.2115 -0.4100  0.2696
68468W        W 5962   0.884  15.680   0.599  0.0051 -0.0184  0.0819
68469W        W 5963  27.689  35.270   3.687 -0.0556  0.2824  0.0808
68470W        W 5964  26.300   1.940  18.563 -0.1667  0.0209 -0.0363
68471W        W 5965  10.113   7.099   6.525 -0.1056 -0.3803  0.3560
68472W        W 5966   5.221  33.642   3.184  0.2127 -0.2535 -0.1531
68473W        W 5967  31.482  16.251   5.550  0.0698 -0.2192  0.0967
68474W        W 5968  10.193  16.161   8.053  0.0258 -0.4666  0.0009
68475W        W 5969   8.681  18.453  23.094 -0.0353 -0.2980  0.2377
68476W        W 5970   1.935   7.900   5.387  0.2858 -0.0418 -0.0465
68477W        W 5971   0.048  30.880   5.240  0.0959  0.0794  0.0208
68478W        W 5972  18.006   8.744  19.912  0.0821 -0.0672 -0.2326
68479W        W 5973  24.510  29.362  18.562 -0.0913 -0.2078  0.0124
68480W        W 5974  15.482  32.007   0.242  0.3058  0.0690  0.2657
68481W        W 5975   4.411  20.987  20.628  0.0483 -0.0329  0.1911
68482W        W 5976  33.852  17.670   6.526 -0.4210  0.0072 -0.1237
68483W        W 5977  31.559  30.942  16.423 -0.2785 -0.0781  0.2431
68484W        W 5978  15.173  15.235  20.130  0.0338 -0.0832 -0.2953
68485W        W 5979  23.414   6.869  16.387  0.0698  0.2433  0.2879
68486W        W 5980   2.355  11.151  21.103 -0.0024 -0.0814 -0.0060
68487W        W 5981   6.335  25.511  11.880  0.0099 -0.1405  0.3465
68488W        W 5982  23.465  35.354   2.569  0.1200 -0.0590 -0.3877
68489W        W 5983  19.292   8.541  18.428  0.4061  0.3881 -0.0873
68490W        W 5984  16.503  28.953   4.653  0.1410 -0.0522  0.1185
68491W        W 5985  31.520  10.569  25.241 -0.2133 -0.0798  0.2006
68492W        W 5986  31.226  27.281   2.124  0.0147  0.1083  0.0661
68493W        W 5987  29.526   7.316  16.261 -0.1839  0.3657 -0.0587
68494W        W 5988  26.895   7.305  10.445  0.0021  0.4095  0.1060
68495W        W 5989  12.925  26.493  22.999 -0.0259 -0.0078  0.0088
68496W        W 5990  12.096   1.106   7.307  0.2048 -0.2536 -0.0503
68497W        W 5991  17.618  34.139   4.185  0.0264  0.1141 -0.1838
68498W        W 5992  30.936  32.136  16.285 -0.0857 -0.0822 -0.2354
68499W        W 5993  29.081   2.694  19.167 -0.3276 -0.1083 -0.1881
68500W        W 5994   2.333   7.126  24.231  0.0947 -0.1840 -0.2442
68501W        W 5995  24.889  29.974   1.944  0.1995  0.1561 -0.0801
68502W        W 5996  24.266  23.355  16.428 -0.2799 -0.0642  0.0842
68503W        W 5997  23.531   8.107   2.036  0.0653 -0.5245  0.3398
68504W        W 5998  13.970  24.792  23.707  0.0253  0.1272 -0.1548
68505W        W 5999  21.846  27.106   5.274 -0.2323 -0.0668  0.1662
68506W        W 6000   0.632   8.144  18.008 -0.2022  0.1705  0.0533
68507W        W 6001   7.934  32.681   7.567 -0.1162  0.0679 -0.0008
68508W        W 6002  19.688  26.977  24.731  0.0756  0.1359  0.1552
68509W        W 6003   2.503  27.278   6.585 -0.0771  0.1376 -0.2659
68510W        W 6004  17.074   3.913   8.013  0.1211 -0.1584 -0.1085
68511W        W 6005  11.739  18.995  24.332 -0.2278  0.0663 -0.1653
68512W        W 6006  22.064  29.787  22.850 -0.1421  0.0091 -0.2100
68513W        W 6007  27.956  14.330  17.630 -0.1524  0.0596  0.2685
68514W        W 6008  32.698  22.868  10.541 -0.0398 -0.2198 -0.1810
68515W        W 6009  16.900  13.736  25.584  0.1982 -0.1858 -0.2147
68516W        W 6010  13.859  10.714   5.445  0.1088 -0.0248 -0.0562
68517W        W 6011   6.661  19.408  23.574  0.2248 -0.0194  0.0518
68518W        W 6012  31.149  22.131  22.838  0.0376  0.2698  0.2736
68519W        W 6013  28.452  30.307  12.066  0.0773  0.2945 -0.1193
68520W        W 6014   8.939  20.189   3.914  0.1665  0.2814 -0.0951
68521W        W 6015   1.138  31.522   8.633  0.0141  0.1304 -0.0656
68522W        W 6016  29.403   8.563  24.260  0.0244 -0.0382 -0.0592
68523W        W 6017  27.473   1.584  22.951 -0.4065 -0.1109 -0.0305
68524W        W 6018  20.328  28.805  20.534  0.0051 -0.2667  0.1982
68525W        W 6019   0.493  11.200  13.975  0.1208 -0.0289  0.2339
68526W        W 6020  35.196  29.043  16.786 -0.2755 -0.1250 -0.0589
68527W        W 6021   3.124  33.962  25.233  0.0595  0.1304  0.0949
68528W        W 6022  28.190  16.096   5.891 -0.0224  0.1600 -0.3187
68529W        W 6023  14.839  19.407  23.163 -0.2919  0.3729  0.0634
68530W        W 6024  35.087   8.828  17.407 -0.1892 -0.2508  0.0587
68531W        W 6025   8.241  29.005   6.353  0.1091 -0.0436  0.2104
68532W        W 6026   3.389  12.343   2.584  0.1325  0.3501  0.0670
68533W        W 6027  16.043  33.597  24.738 -0.0170  0.3537 -0.2266
68534W        W 6028  27.340   9.187  26.101  0.1771 -0.5092 -0.0028
68535W        W 6029  24.667   3.831   3.405  0.0172 -0.1559  0.0992
68536W        W 6030  29.151  26.653  10.896 -0.2716  0.3416 -0.2907
68537W        W 6031  27.774   8.861   0.486 -0.1014 -0.2597 -0.0800
68538W        W 6032  26.272  23.081  13.931  0.2002  0.2631  0.1119
68539W        W 6033   9.484  31.549  21.549  0.2652 -0.0059  0.0593
68540W        W 6034   7.087  30.634   5.963  0.2492  0.0591 -0.1965
68541W        W 6035  11.832   6.019  10.482 -0.2060  0.0381 -0.0183
68542W        W 6036  11.644  23.167  25.129  0.2415  0.2296 -0.2905
68543W        W 6037   7.720   8.574  11.604  0.1490 -0.1224 -0.1956
68544W        W 6038   7.524   3.285   0.213  0.2388 -0.1017 -0.2823
68545W        W 6039  17.329  20.596   4.718 -0.0462 -0.1457 -0.0053
68546W        W 6040  10.889  10.863   6.981 -0.1998 -0.3694  0.2854
68547W        W 6041   6.383   3.700  20.739 -0.1404  0.5315 -0.0707
68548W        W 6042   1.492  18.247   9.464  0.2132  0.1344 -0.0181
68549W        W 6043  24.679  23.779  21.192  0.0211  0.0338 -0.0370
68550W        W 6044  21.967  31.325  21.698  0.0700  0.1465  0.2554
68551W        W 6045  22.744   8.932   5.910 -0.0420 -0.1703  0.2090
68552W        W 6046   4.604  34.818   6.292 -0.0725  0.0640  0.0414
68553W        W 6047  33.621  18.160  16.257  0.1114  0.1092 -0.3283
68554W        W 6048  14.619  35.013  20.628  0.0893 -0.0514  0.0443
68555W        W 6049  12.769   7.230   5.686 -0.1305 -0.3504 -0.2216
68556W        W 6050  19.535  20.205  25.029 -0.0337 -0.2777 -0.3869
68557W        W 6051  12.184  10.104   9.023 -0.1356  0.1286  0.1555
68558W        W 6052  19.962  22.024   7.551 -0.1260  0.3688 -0.2686
68559W        W 6053  11.673  27.410   9.708  0.1931  0.2898 -0.2247
68560W        W 6054  26.815  32.495  24.429  0.1703  0.0687  0.1367
68561W        W 6055  27.553   8.963  18.332  0.0789 -0.2386  0.1561
68562W        W 6056  16.010   4.451   0.138 -0.0255  0.2478 -0.0943
68563W        W 6057  20.383  18.765  25.286  0.1278 -0.1207 -0.0602
68564W        W 6058  34.130  21.394  26.009 -0.0317 -0.0052  0.2408
68565W        W 6059  15.489  32.254   5.699 -0.4512 -0.1527  0.0842
68566W        W 6060   9.234  29.456   0.791  0.1189  0.0489  0.0259
68567W        W 6061  24.584  18.205  15.770  0.2514 -0.0621 -0.1832
68568W        W 6062  23.772   1.828   2.633 -0.0563 -0.5569 -0.3577
68569W        W 6063  20.910  35.054  26.249 -0.1003  0.0411  0.0834
68570W        W 6064  10.672  25.263  13.770 -0.1108  0.1477 -0.0013
68571W        W 6065  26.360  19.826  21.066 -0.2320  0.0723 -0.2031
68572W        W 6066  18.347  21.349  26.165  0.2402  0.2811 -0.2536
68573W        W 6067   4.034  28.687  14.019  0.0566 -0.0912 -0.1236
68574W        W 6068  10.079  13.551   1.151 -0.1681  0.0114  0.0601
68575W        W 6069  29.738  10.553  11.189 -0.0215 -0.3162 -0.1988
68576W        W 6070  33.729   4.676  25.715 -0.2477 -0.1283  0.1098
68577W        W 6071   6.186  24.681  22.026 -0.2870 -0.0416 -0.4458
68578W        W 6072  12.542  18.242   9.777 -0.1120 -0.1838  0.2979
68579W        W 6073  19.574  35.040   1.016 -0.0053  0.1719 -0.2938
68580W        W 6074   9.337  24.593   2.138 -0.2164 -0.1606 -0.0367
68581W        W 6075  24.899   2.886   0.695  0.1059  0.2568 -0.3136
68582W        W 6076  19.741  32.004  24.073  0.0455 -0.0638 -0.3320
68583W        W 6077   8.879   9.384  23.945  0.1699  0.2892  0.0029
68584W        W 6078   8.556  10.699  24.544  0.1520  0.2386  0.0510
68585W        W 6079  21.298  25.017  22.982  0.2613  0.0431  0.0029
68586W        W 6080   3.330  14.178  22.740 -0.1256  0.1148 -0.1407
68587W        W 6081  19.812  22.855   1.816 -0.0321 -0.0690  0.0489
68588W        W 6082  34.726  16.089   8.284 -0.1701 -0.1485 -0.0592
68589W        W 6083  19.388   4.620   9.478 -0.1637  0.1490  0.3944
68590W        W 6084  20.465  32.546   0.706 -0.0284  0.1421  0.1710
68591W        W 6085  11.084  23.414  11.260  0.1643 -0.2046  0.0598
68592W        W 6086   9.319  26.556  15.632  0.0482  0.0428  0.1718
68593W        W 6087  28.420  14.662  22.428 -0.1132 -0.0761 -0.2117
68594W        W 6088  13.520  31.433   3.667 -0.0297  0.1388 -0.1244
68595W        W 6089   5.016  29.341  12.141  0.0357 -0.2743 -0.0335
68596W        W 6090  18.571  16.771   1.159 -0.1635  0.0897 -0.0451
68597W        W 6091  19.603  29.004   0.751 -0.0176  0.0717 -0.0850
68598W        W 6092  31.167   9.733  12.721  0.1795  0.5046  0.1181
68599W        W 6093  29.417   7.906  22.907  0.1153 -0.0567  0.1621
68600W        W 6094  21.052  21.855   6.535 -0.1155  0.0829  0.0360
68601W        W 6095   2.845  20.500  17.169  0.4162 -0.1864 -0.0126
68602W        W 6096  24.891  22.468  21.650  0.0457  0.1221 -0.0814
68603W        W 6097   9.472  27.305  11.042  0.1251  0.3441  0.6920
68604W        W 6098  23.528  30.246  12.321  0.0834 -0.1105 -0.3174
68605W        W 6099   9.320   9.554  21.312 -0.2548 -0.2369 -0.2405
68606W        W 6100  28.198  11.945  14.385 -0.1289 -0.2678 -0.2307
68607W        W 6101  24.591  28.415  15.268  0.0095  0.0125 -0.0564
68608W        W 6102   8.233  10.187  23.668 -0.1797  0.0159 -0.1402
68609W        W 6103  21.796   7.269  16.499 -0.1085  0.1391 -0.2714
68610W        W 6104  33.798   8.529   0.225 -0.1775 -0.1768  0.0271
68611W        W 6105   7.276  19.990   0.924 -0.0190  0.1164 -0.2655
68612W        W 6106  25.054  22.984   0.239 -0.0254 -0.0410  0.4678
68613W        W 6107  14.679  10.852   6.920 -0.0019 -0.0348 -0.2744
68614W        W 6108  10.571  18.708   4.877 -0.1912  0.1975  0.2947
68615W        W 6109  15.854  15.828   9.428 -0.0343 -0.2248  0.3032
68616W        W 6110  17.573  14.615  19.255  0.2372  0.0329  0.0574
68617W        W 6111   3.167  15.357  17.897 -0.1160  0.0958 -0.1016
68618W        W 6112   5.740  11.953  19.818 -0.0624  0.1829 -0.3279
68619W        W 6113  17.631   3.141   9.674 -0.3091  0.0331  0.2512
68620W        W 6114  24.128   7.829  19.352 -0.2342 -0.3842 -0.3511
68621W        W 6115   3.784  24.447  19.956  0.0230 -0.2531 -0.1180
68622W        W 6116  10.515  32.758  13.051  0.1826  0.0900  0.4402
68623W        W 6117  18.475  17.037   8.579 -0.0123  0.0009  0.0066
68624W        W 6118  29.373  26.099   9.908  0.0301  0.0422 -0.0297
68625W        W 6119  23.922   1.565  13.601 -0.0571  0.2795 -0.0541
68626W        W 6120   5.473  24.239   7.991  0.1681  0.0047  0.1358
68627W        W 6121  10.763  30.984  14.026  0.0006 -0.2188 -0.2887
68628W        W 6122  28.657  22.499  16.851 -0.0478  0.2523  0.1873
68629W        W 6123  26.595   5.609   3.461  0.1377 -0.2388  0.0117
68630W        W 6124   7.046   1.797   5.733 -0.0888 -0.1629 -0.0953
68631W        W 6125  28.149  32.087  24.948 -0.0266  0.0089  0.2938
68632W        W 6126   0.656  22.853  25.686 -0.1144 -0.0841  0.1264
68633W        W 6127   9.018  27.308  10.364 -0.2535 -0.1280 -0.1787
68634W        W 6128  34.571  21.136  24.419 -0.1667  0.0331  0.1298
68635W        W 6129  33.988  26.674  13.554  0.1108  0.0846 -0.0615
68636W        W 6130  14.834  14.515  21.734  0.1029  0.2205 -0.0811
68637W        W 6131  25.624  24.778  23.725  0.0738 -0.0442  0.0027
68638W        W 6132  27.080  20.559  17.938 -0.2117 -0.1915  0.0871
68639W        W 6133  17.468   6.730   4.689 -0.0716  0.2327  0.1799
68640W        W 6134   1.468   3.858   4.356 -0.0768 -0.0066  0.0447
68641W        W 6135   3.546  20.098  25.119  0.1731  0.3264 -0.1404
68642W        W 6136  20.190  26.072   4.175  0.2441 -0.1965  0.0054
68643W        W 6137  13.164  33.682  11.884 -0.1407 -0.1768  0.1060
68644W        W 6138   8.993  34.590  22.175  0.4030 -0.2732  0.1543
68645W        W 6139  31.966  10.855  23.207  0.0941 -0.1367 -0.0107
68646W        W 6140   6.160   2.735   7.064 -0.1896 -0.0376 -0.0310
68647W        W 6141  15.147  30.871  11.580 -0.0184 -0.1038 -0.2956
68648W        W 6142  20.385   4.047  19.323 -0.2112  0.1020 -0.0776
68649W        W 6143  25.784   4.913  19.668  0.2042 -0.1502  0.1021
68650W        W 6144  27.374  23.524   0.385 -0.0202 -0.0893 -0.0661
68651W        W 6145  28.641  16.120   6.375 -0.0815 -0.1445 -0.0835
68652W        W 6146  15.702  18.986  12.726  0.0612 -0.0740  0.0082
68653W        W 6147  16.186  19.027  10.024  0.0658 -0.2103 -0.1408
68654W        W 6148   6.956  30.390   5.402  0.0936  0.0294 -0.0019
68655W        W 6149   8.955  15.526  23.215 -0.3817  0.1183  0.0166
68656W        W 6150  10.081   4.384   1.227  0.2232 -0.1971  0.5022
68657W        W 6151  15.461  34.839   2.085 -0.1660  0.1627 -0.4479
68658W        W 6152  24.265  31.479  13.163  0.1317 -0.1270  0.0364
68659W        W 6153  34.030  24.654  16.679 -0.2112  0.2035  0.0768
68660W        W 6154  28.730  10.112  12.878 -0.1579 -0.1825  0.0857
68661W        W 6155   1.290  14.366  25.758  0.0182  0.2908 -0.3359
68662W        W 6156  29.612  17.913   6.301  0.1005  0.0628 -0.1579
68663W        W 6157   2.058  19.445  23.282 -0.1422 -0.3742  0.0889
68664W        W 6158  27.372   2.009  21.395 -0.0659  0.0462 -0.2602
68665W        W 6159  26.292  17.861  21.797  0.0974 -0.0650 -0.0709
68666W        W 6160   6.275  32.626  10.532 -0.0097 -0.1928  0.2274
68667W        W 6161  30.952  28.677   3.724  0.3071  0.1447 -0.2921
68668W        W 6162   2.567  15.016  14.248  0.0149  0.2633 -0.3699
68669W        W 6163  13.680   3.888  20.768 -0.0332  0.0206 -0.3499
68670W        W 6164   7.347  12.370  17.318  0.1185  0.1920  0.0848
68671W        W 6165  23.631  10.163  17.032  0.3905 -0.2158  0.0347
68672W        W 6166  24.983  11.289  16.566  0.1099 -0.1909  0.1608
68673W        W 6167  22.773   4.622  15.349 -0.0079 -0.0144 -0.0237
68674W        W 6168  26.979  28.745  17.914 -0.3476  0.0196  0.1699
68675W        W 6169  28.080  34.640  24.703  0.3920  0.1164 -0.2225
68676W        W 6170  11.886   7.338   8.175 -0.2754 -0.3087  0.1822
68677W        W 6171  18.452   4.209   7.948 -0.2667 -0.0840  0.0484
68678W        W 6172  23.493   4.760  23.463 -0.0876 -0.0600  0.0231
68679W        W 6173  21.842  11.240  16.170 -0.0338  0.2360  0.0780
68680W        W 6174  18.888  18.064  19.501  0.4160  0.0467 -0.2203
68681W        W 6175  30.801  11.839  22.738  0.2677 -0.1291  0.2376
68682W        W 6176  30.070  30.866  12.065  0.2083 -0.2088  0.3839
68683W        W 6177   9.635  16.284   5.221  0.2655 -0.1805 -0.0406
68684W        W 6178   3.583  16.387  25.274 -0.1160 -0.0604  0.0985
68685W        W 6179  13.492   5.862  21.231  0.3408  0.1980  0.2830
68686W        W 6180  33.021   3.883  16.042 -0.0751  0.1108 -0.1336
68687W        W 6181  27.604  13.260   8.529  0.1287  0.0201 -0.1829
68688W        W 6182   8.720  32.344   1.264 -0.0151 -0.0816 -0.2621
68689W        W 6183  14.331  13.899   6.749 -0.2423  0.1303 -0.2415
68690W        W 6184  32.629   9.102  21.826  0.2527 -0.1593 -0.0975
68691W        W 6185   5.757  27.128  22.652  0.2986 -0.2553 -0.1600
68692W        W 6186  32.088  13.429  12.449 -0.2547  0.0170  0.1393
68693W        W 6187   8.120  25.298  14.455  0.1822 -0.1552  0.0734
68694W        W 6188  24.923  26.615  12.230 -0.0474 -0.1629 -0.2264
68695W        W 6189  27.303  33.208  20.976 -0.2238 -0.4101  0.0274
68696W        W 6190  33.321  24.135  15.754  0.1843 -0.0649  0.2509
68697W        W 6191  27.211  22.766  18.545  0.0518  0.2739  0.0322
68698W        W 6192  12.273   0.609   9.965 -0.3725 -0.0084 -0.2007
68699W        W 6193   4.906   8.021   5.526 -0.3381 -0.0084 -0.3019
68700W        W 6194  10.649  20.458   7.404 -0.1642  0.0714 -0.4422
68701W        W 6195  30.143  22.682   6.784  0.1350 -0.0621 -0.0461
68702W        W 6196  11.717  13.112   5.816 -0.1263 -0.1866 -0.1138
68703W        W 6197  10.584  23.831   4.416 -0.0967  0.0528 -0.3978
68704W        W 6198  15.411  26.534   1.984  0.0074  0.0260  0.1665
68705W        W 6199  24.400  16.989  16.271  0.0501  0.0856 -0.0131
68706W        W 6200  15.937  31.296  11.256 -0.0349  0.1901  0.4195
68707W        W 6201  24.312  34.656  13.276  0.3319  0.0643 -0.3702
68708W        W 6202  11.792  23.945   5.539 -0.0110  0.2655 -0.0842
68709W        W 6203  19.450  15.482  18.099  0.1007 -0.1908  0.0401
68710W        W 6204   7.366   2.857   9.320  0.2070  0.3884  0.1785
68711W        W 6205  12.254   1.701  10.009  0.0615 -0.0514 -0.1253
68712W        W 6206  20.821   3.380  15.674 -0.2215 -0.2309  0.2962
68713W        W 6207  34.515  29.398  22.888  0.0669  0.1473  0.2452
68714W        W 6208   2.979  31.167  22.395 -0.3141  0.3957  0.2035
68715W        W 6209  34.997  23.680  19.143  0.2454  0.1233 -0.4693
68716W        W 6210  23.996   2.895  13.150 -0.0894 -0.0954 -0.2368
68717W        W 6211  27.484   7.452  18.569  0.0108  0.0870 -0.3299
68718W        W 6212  11.941  20.716  13.457  0.3885  0.1117  0.2062
68719W        W 6213  27.982  30.272  20.907  0.0630 -0.0203  0.2083
68720W        W 6214  23.070  17.095   0.720  0.2678 -0.0899  0.2094
68721W        W 6215  23.588  30.518   3.150 -0.0477  0.2202  0.1435
68722W        W 6216  33.274  19.137   7.915  0.0876 -0.1654  0.0946
68723W        W 6217   1.205  17.820  20.049 -0.0077 -0.0321  0.2568
68724W        W 6218  15.779   9.539   3.693 -0.1667  0.0379 -0.0052
68725W        W 6219  19.758  33.454  18.060 -0.1198 -0.1872 -0.0249
68726W        W 6220   2.137  19.110  15.729 -0.5260 -0.1596  0.1167
68727W        W 6221  21.102  24.111   7.436 -0.1265 -0.2174 -0.2282
68728W        W 6222  18.406  11.176   1.314 -0.0295  0.0119  0.2591
68729W        W 6223  18.092  13.107   4.143 -0.0601  0.1650 -0.1804
68730W        W 6224  12.985  30.597   8.548 -0.2108  0.1603  0.1749
68731W        W 6225  12.024  22.574   6.769 -0.1329  0.1889 -0.0775
68732W        W 6226  33.970  31.822   5.724  0.0474  0.1955 -0.2584
68733W        W 6227   6.226  32.716   7.934  0.1370 -0.2189  0.2251
68734W        W 6228  28.194   7.626  12.467  0.2090  0.2515  0.0255
68735W        W 6229  12.266   1.042   6.756  0.1947 -0.0128 -0.0858
68736W        W 6230  27.509   4.152  13.875 -0.1640 -0.0574 -0.1936
68737W        W 6231  30.305   4.190  15.993  0.2013 -0.1219  0.2829
68738W        W 6232  23.250  33.306  16.896 -0.2127  0.1631 -0.0278
68739W        W 6233  16.434  25.992   1.394  0.0217 -0.0961  0.2475
68740W        W 6234  32.373  21.600  24.454 -0.0846 -0.1805  0.3165
68741W        W 6235  32.423  19.673   9.838  0.4603 -0.0826  0.0825
68742W        W 6236  32.816  35.353  22.766 -0.0174 -0.1311  0.0559
68743W        W 6237  17.623   0.246   8.414  0.2754  0.1305  0.1138
68744W        W 6238   9.301  35.104   6.745  0.0965 -0.0159 -0.2221
68745W        W 6239   2.845  23.944  20.713  0.4746  0.0999 -0.0239
68746W        W 6240  19.588  15.615  22.923 -0.0976  0.2282 -0.0682
68747W        W 6241  11.405  13.747  21.177  0.0567  0.0270 -0.0420
68748W        W 6242  23.233   6.696  19.332  0.3162  0.0630  0.2288
68749W        W 6243  16.028   2.719   8.013 -0.1062  0.1728  0.1059
68750W        W 6244  35.009  27.962   5.776 -0.1526 -0.0218  0.1727
68751W        W 6245  17.884  12.033   0.383 -0.0742 -0.4025 -0.1580
68752W        W 6246  20.627  19.313  20.194 -0.0696 -0.1275 -0.1155
68753W        W 6247  30.922  15.016  21.653  0.0541  0.0081  0.0667
68754W        W 6248  11.199   4.380   3.321 -0.0167  0.1447  0.0309
68755W        W 6249  12.299  27.233  10.658  0.2963  0.4238  0.4364
68756W        W 6250  33.411  31.535  22.649 -0.0512 -0.1318 -0.1454
68757W        W 6251  29.038  11.173  13.605 -0.0046 -0.1584 -0.0835
68758W        W 6252  13.663  21.138  24.652  0.0157 -0.0457  0.0459
68759W        W 6253  13.965  12.384   5.843  0.0417 -0.1140  0.0269
68760W        W 6254  20.757  27.631  17.579 -0.5169 -0.2151  0.1677
68761W        W 6255  33.573   2.715  24.104  0.0109  0.1302 -0.0542
68762W        W 6256   4.288  17.454  19.605  0.1671  0.3352  0.0208
68763W        W 6257  24.893  20.240  10.493  0.5850 -0.3465  0.1321
68764W        W 6258  20.385  12.075   8.619  0.1218 -0.1021 -0.2760
68765W        W 6259   3.432   5.578  17.652 -0.3695 -0.0685 -0.0058
68766W        W 6260  20.620  35.000   6.421  0.2174  0.0453 -0.2508
68767W        W 6261   3.254  22.434  23.275 -0.1943 -0.1125 -0.1644
68768W        W 6262  26.319   3.937   5.045  0.1086  0.1605  0.2267
68769W        W 6263   4.490  24.858   9.352 -0.0724 -0.0199 -0.0893
68770W        W 6264  28.044  14.665  10.015  0.1541 -0.0000  0.0669
68771W        W 6265  29.995  30.918   4.397 -0.2626 -0.0909 -0.0513
68772W        W 6266  15.389  15.140   6.022  0.1768 -0.0956  0.2791
68773W        W 6267  33.464  15.156  15.125 -0.3880  0.3220 -0.0143
68774W        W 6268  12.768  23.487  16.725  0.1034 -0.0700  0.2930
68775W        W 6269  24.020  13.543  12.866 -0.1735 -0.1574 -0.1306
68776W        W 6270  14.860   6.853  19.799  0.0752 -0.3659  0.2380
68777W        W 6271   0.273   8.873  14.790  0.2274  0.1167 -0.1060
68778W        W 6272   6.950   9.219  22.597 -0.0848  0.0823  0.0369
68779W        W 6273   8.577  23.294   2.062 -0.2416  0.4318  0.3683
68780W        W 6274  13.621  25.519   0.067  0.0963  0.0385  0.1460
68781W        W 6275   4.695  13.611  25.637 -0.0737  0.2311  0.0820
68782W        W 6276   0.951  28.797   2.513 -0.0672 -0.3393 -0.1136
68783W        W 6277   4.537  23.883  25.924 -0.0934 -0.1536 -0.1951
68784W        W 6278  15.881  20.209   3.327 -0.1426 -0.3137  0.1149
68785W        W 6279  12.399   4.400  19.077  0.0933  0.0507 -0.1972
68786W        W 6280  35.361  22.269  16.105  0.1571 -0.1248  0.2672
68787W        W 6281   5.804  16.568  17.425  0.0760 -0.1517  0.0200
68788W        W 6282  21.515   6.175  22.700 -0.2641  0.0470  0.2630
68789W        W 6283  24.697  30.023  22.139  0.0929 -0.2051 -0.0646
68790W        W 6284  10.842  14.488  23.689 -0.0802  0.0859  0.0666
68791W        W 6285   8.685  29.958   6.241  0.2559  0.3691 -0.1106
68792W        W 6286   6.050  32.374  13.241  0.0158  0.1012  0.1633
68793W        W 6287  18.187  22.122  22.109  0.1405  0.0061  0.2915
68794W        W 6288  20.920  21.683  19.853  0.0812  0.2380 -0.0578
68795W        W 6289  32.424  29.227  13.712 -0.2661 -0.3098  0.1102
68796W        W 6290   3.347  25.564   7.274 -0.0307  0.2725  0.2633
68797W        W 6291  25.178   0.811   5.754 -0.3147  0.0948 -0.0474
68798W        W 6292  16.896  25.227  10.586  0.0792 -0.2109 -0.2178
68799W        W 6293  31.129  35.020   4.524  0.1311 -0.0057 -0.2351
68800W        W 6294  31.902   8.941  22.205  0.0076  0.2057 -0.0385
68801W        W 6295  20.835   5.740   2.611  0.0202 -0.0950  0.0983
68802W        W 6296  33.838  27.966  22.809  0.5136  0.3288  0.0124
68803W        W 6297  22.140  26.832  21.013 -0.0936 -0.0320  0.2215
68804W        W 6298  16.537  26.848   6.728  0.1702 -0.1526 -0.0699
68805W        W 6299  12.762  18.000  14.758 -0.3540  0.1374  0.0805
68806W        W 6300  13.240  22.708   0.271  0.1038 -0.3151 -0.0894
68807W        W 6301   7.004  34.001  20.883 -0.2298 -0.1197 -0.0111
68808W        W 6302   3.471  32.147  23.707 -0.0145  0.1837 -0.0425
68809W        W 6303  23.064   6.660   1.050 -0.2038 -0.2531 -0.0465
68810W        W 6304  22.302  32.726  22.911  0.1850  0.3974 -0.0271
68811W        W 6305  13.398  15.811   3.915  0.5169  0.0392 -0.1878
68812W        W 6306  18.670  26.103  23.594 -0.1346 -0.1637  0.0936
68813W        W 6307  17.804  20.049  26.242  0.3589 -0.2053 -0.1064
68814W        W 6308   1.275  35.146  22.010  0.3455 -0.2151  0.1140
68815W        W 6309  31.628  14.642  13.606 -0.4050  0.1449 -0.2492
68816W        W 6310   2.551   0.572   3.059  0.2978 -0.0570 -0.0249
68817W        W 6311  15.613  10.445  22.499  0.0818 -0.2630 -0.1502
68818W        W 6312   2.301  27.326   1.364 -0.1113  0.2095 -0.1111
68819W        W 6313  28.914  26.390  18.424 -0.0985 -0.1019 -0.0606
68820W        W 6314  18.433  18.906   3.971  0.0192 -0.0774 -0.4439
68821W        W 6315   6.010   7.655  25.752  0.0946  0.0737 -0.1301
68822W        W 6316  26.929  19.949  14.882 -0.1092  0.3394  0.1276
68823W        W 6317  30.398  13.907   9.021  0.2537 -0.0458 -0.1100
68824W        W 6318  31.115  29.972  24.547 -0.0395  0.2390  0.2039
68825W        W 6319  13.728  24.677  14.846 -0.1453  0.2372 -0.1972
68826W        W 6320  14.134  30.621  24.430  0.1138  0.0042  0.3626
68827W        W 6321  33.612  18.180  22.197  0.1356  0.0086  0.0901
68828W        W 6322   3.331   2.669   8.553 -0.0212 -0.0145  0.1360
68829W        W 6323  13.924  10.148   8.877 -0.1731 -0.1417 -0.2229
68830W        W 6324  10.028  29.343   4.552  0.2254 -0.3556  0.0206
68831W        W 6325  32.243  17.934  10.893  0.2785  0.2094  0.1849
68832W        W 6326  22.151   3.253  17.604  0.2649 -0.0054 -0.0118
68833W        W 6327  19.773  20.907  24.769  0.1486  0.0157  0.2227
68834W        W 6328  33.753   4.950  15.544 -0.3765 -0.0959  0.0797
68835W        W 6329  19.308   7.954   0.094  0.0496 -0.1881 -0.4361
68836W        W 6330  11.784  12.398   1.833  0.2510 -0.0730 -0.0019
68837W        W 6331  26.358  13.376  10.446 -0.0296  0.1415  0.0082
68838W        W 6332   9.477  31.733   6.226 -0.0051  0.1551 -0.0980
68839W        W 6333  16.192  10.341   3.016 -0.2719  0.0303 -0.5708
68840W        W 6334   9.999  17.742  23.942  0.1691 -0.5195  0.1525
68841W        W 6335  20.114   2.374   1.191  0.0410 -0.1986 -0.1258
68842W        W 6336  32.408  26.448  12.043 -0.0562  0.0014 -0.0614
68843W        W 6337  18.449  15.069   8.682  0.1536  0.1736  0.1302
68844W        W 6338  28.251  19.773  21.669 -0.2053  0.2433  0.2546
68845W        W 6339  14.374  15.802  12.138 -0.0160  0.2197  0.0112
68846W        W 6340  20.865  14.617   4.078  0.2032  0.0690  0.1950
68847W        W 6341  12.831   4.812   0.226 -0.1206  0.1460 -0.3245
68848W        W 6342  26.092  29.405  20.372  0.0446  0.0897  0.0947
68849W        W 6343   8.670  31.609  10.918  0.1848 -0.1198  0.1248
68850W        W 6344  28.915  34.449   2.940 -0.1852 -0.0405 -0.2100
68851W        W 6345  23.266  12.630  13.036 -0.0433 -0.2487 -0.0127
68852W        W 6346  14.822   5.801   0.122  0.3368  0.2956  0.1976
68853W        W 6347  32.883  20.689  22.234  0.2246 -0.0307  0.0219
68854W        W 6348   7.887  30.278   0.969 -0.1926  0.1047 -0.0993
68855W        W 6349   5.021  16.961  17.971 -0.1230 -0.2098 -0.3004
68856W        W 6350   6.320  17.930   3.272 -0.1465  0.1318  0.0883
68857W        W 6351  25.653  14.052  22.560  0.1020 -0.0164 -0.2022
68858W        W 6352   8.478  11.859  26.106  0.2226  0.0965 -0.3255
68859W        W 6353   3.603   5.989   6.623  0.1362 -0.1369  0.0247
68860W        W 6354   1.903   2.438   4.254 -0.0080 -0.0893  0.0196
68861W        W 6355   7.007  12.035   9.364 -0.1933 -0.2800 -0.0841
68862W        W 6356  30.681  10.887  10.852 -0.1768  0.0935 -0.0599
68863W        W 6357  15.070  33.098  23.118  0.3815 -0.2749  0.3396
68864W        W 6358   1.125  11.747  14.408 -0.1174 -0.3629  0.1011
68865W        W 6359  11.628  24.843   6.529  0.0536  0.2451 -0.2748
68866W        W 6360   4.888   6.119   9.496 -0.1448 -0.0002  0.2116
68867W        W 6361   4.835   6.667   1.533 -0.0838 -0.0970  0.0696
68868W        W 6362  28.043  16.462  13.383  0.1990  0.0001  0.0957
68869W        W 6363   6.672  23.241   9.125  0.0852 -0.0810  0.0215
68870W        W 6364  11.193  16.725   7.719 -0.1148 -0.2835 -0.0551
68871W        W 6365  10.063  24.828  22.168 -0.0300  0.1455  0.0061
68872W        W 6366  20.411  22.034  21.871 -0.0681 -0.1990 -0.2723
68873W        W 6367  14.043  17.508  23.290  0.1149  0.1547 -0.1989
68874W        W 6368  24.857   7.524  15.641  0.0197 -0.1564 -0.1808
68875W        W 6369  31.602   6.569   3.966 -0.0057  0.0378  0.1649
68876W        W 6370   4.037  25.719  25.158  0.2672 -0.0589  0.1290
68877W        W 6371  19.366  24.223  10.266  0.1248  0.1161 -0.0223
68878W        W 6372   0.032  33.512  16.676  0.1813  0.1469  0.0804
68879W        W 6373   4.318  30.456  13.467  0.1127 -0.1256  0.1785
68880W        W 6374  23.451  15.357  15.555  0.1058 -0.1217  0.0269
68881W        W 6375  13.939  18.543  12.936 -0.0997  0.0879  0.1219
68882W        W 6376  19.838  11.117  22.914  0.0992 -0.1720  0.1866
68883W        W 6377  16.859   2.644  17.327 -0.1506 -0.1658 -0.3120
68884W        W 6378  12.126  13.327  19.619 -0.0905 -0.3179 -0.1421
68885W        W 6379  34.339  15.424  19.907  0.1846 -0.0462  0.0905
68886W        W 6380  28.711  32.610   5.669 -0.0228 -0.0132  0.2257
68887W        W 6381  24.660   0.084  13.428 -0.1408  0.1999 -0.0666
68888W        W 6382  27.282  19.738   6.308 -0.6258 -0.0703  0.3047
68889W        W 6383  29.890  34.256  13.016 -0.1133  0.2901  0.6510
68890W        W 6384  31.177  27.322  16.909 -0.3282 -0.1045  0.0584
68891W        W 6385   0.014   7.309   3.798  0.1428 -0.0105  0.0680
68892W        W 6386  33.211   1.296  13.548  0.2261 -0.3260 -0.0056
68893W        W 6387  22.445   7.953  24.033  0.0243 -0.1522 -0.3504
68894W        W 6388  29.320  11.782  15.306 -0.4692  0.4634 -0.2733
68895W        W 6389   8.432  15.181  26.041  0.2553 -0.1025  0.0245
68896W        W 6390  34.797   4.939  14.448  0.2566 -0.2769  0.3000
68897W        W 6391   4.078  18.130  18.055  0.3305  0.1090  0.0806
68898W        W 6392  23.530  30.990  14.633  0.0323 -0.0497 -0.1110
68899W        W 6393  18.924   8.798   3.209 -0.2213  0.2989  0.1777
68900W        W 6394  11.120  18.615   1.831  0.1434 -0.0669  0.1511
68901W        W 6395   7.063  17.510  21.916 -0.1391 -0.0048 -0.0298
68902W        W 6396  26.002   3.851  23.650  0.1285  0.0903  0.0064
68903W        W 6397  35.269  16.159  18.292 -0.1976 -0.0081 -0.2015
68904W        W 6398  18.068  28.161  21.059 -0.0288 -0.0496  0.0259
68905W        W 6399  27.396  10.297  15.216  0.1852 -0.0910 -0.3283
68906W        W 6400   8.512   4.882  13.711 -0.1447  0.0561  0.0162
68907W        W 6401  33.041  28.373  25.200  0.0039  0.0491  0.0009
68908W        W 6402   1.945  16.972  23.445  0.1106  0.2456  0.0187
68909W        W 6403  21.412  33.409   0.631 -0.0397 -0.2042  0.0392
68910W        W 6404  15.721   7.643  23.358  0.3236 -0.4564  0.1137
68911W        W 6405  34.423  11.238   0.871 -0.0044  0.0970  0.1376
68912W        W 6406  26.502   1.355  16.564  0.1745  0.1701 -0.1601
68913W        W 6407  32.770  31.477  18.104  0.1793 -0.2999  0.2878
68914W        W 6408  10.687  34.714  11.947  0.0328  0.1610  0.3335
68915W        W 6409  21.329   1.534  24.300  0.1776  0.0895 -0.0959
68916W        W 6410  34.459   3.449  25.095 -0.1547  0.2508  0.1294
68917W        W 6411  18.336  27.106  10.025 -0.4771  0.0596  0.1110
68918W        W 6412  28.538  21.969   9.983 -0.1240  0.2111 -0.1788
68919W        W 6413  17.164  28.972  21.291  0.0794  0.1458  0.1594
68920W        W 6414  13.531   2.502   6.620 -0.1523  0.0656 -0.1131
68921W        W 6415  17.218  13.230   1.396 -0.3800 -0.0344 -0.0658
68922W        W 6416  30.880  24.083   8.280 -0.2394 -0.4298 -0.2630
68923W        W 6417  12.435  33.326   7.617 -0.1540 -0.1612  0.1019
68924W        W 6418  27.027  20.371   7.635 -0.2140 -0.0331  0.3296
68925W        W 6419   7.443  27.648   9.742 -0.0229  0.0240 -0.1943
68926W        W 6420  27.935   9.912  11.913  0.1176 -0.1352  0.0122
68927W        W 6421  15.100  16.933   0.160  0.3029 -0.1035  0.3068
68928W        W 6422  17.725  29.889   5.234  0.0229  0.1096 -0.1126
68929W        W 6423  14.791   0.660   9.708  0.1231 -0.0787  0.0772
68930W        W 6424  25.718  12.428  14.045  0.1164  0.1769  0.0042
68931W        W 6425  24.546  30.756  19.231  0.1611  0.2487  0.2138
68932W        W 6426  33.119   7.878  10.373  0.0521  0.1652 -0.0547
68933W        W 6427  34.473  22.705  19.070 -0.1230  0.2666  0.2299
68934W        W 6428   8.703  11.156  20.578 -0.2257 -0.1229 -0.0232
68935W        W 6429  17.197  13.172  23.208 -0.0655  0.0852  0.1725
68936W        W 6430  18.597   0.343  20.416  0.1806  0.0640  0.1369
68937W        W 6431   1.743  16.136  12.694 -0.2139 -0.0573  0.1860
68938W        W 6432  14.102   2.560  22.057  0.1818 -0.2210  0.2447
68939W        W 6433  28.913  19.849   8.218  0.0660  0.0548  0.1775
68940W        W 6434   2.120  20.533  20.736 -0.1652  0.0760  0.1615
68941W        W 6435  33.933  10.816  14.139  0.1027  0.2109 -0.0894
68942W        W 6436  14.503  12.604   4.115  0.0928  0.0370  0.3826
68943W        W 6437  35.109  22.220   1.006 -0.1179 -0.2602 -0.1543
68944W        W 6438  10.787   8.461   7.085 -0.0844  0.0095  0.0132
68945W        W 6439  15.472   2.107  22.473 -0.0380 -0.1171 -0.2886
68946W        W 6440  11.729  19.517  24.188 -0.2295 -0.1411 -0.2902
68947W        W 6441   1.809  34.518   5.649  0.0207 -0.1821 -0.1259
68948W        W 6442  25.818  29.920  16.557 -0.5994 -0.1391  0.2597
68949W        W 6443   3.831  25.491   4.168 -0.0751 -0.0270 -0.2036
68950W        W 6444  28.609   8.225  10.931  0.0682 -0.3703 -0.1430
68951W        W 6445  20.076  16.747  17.076  0.1934  0.1110  0.0017
68952W        W 6446  13.171  19.852  23.374 -0.1056  0.0879 -0.0496
68953W        W 6447  18.209  32.822   6.970 -0.3152  0.2409  0.1741
68954W        W 6448  25.467   0.075  11.115  0.0688 -0.2088 -0.1393
68955W        W 6449  35.281   8.773   4.498  0.2993 -0.2334  0.1625
68956W        W 6450  18.880   7.023  19.306 -0.0629 -0.0192  0.0800
68957W        W 6451   7.458   3.893  23.133 -0.0798  0.1744 -0.1308
68958W        W 6452   9.127  11.192   4.657 -0.0520 -0.1160 -0.0819
68959W        W 6453  27.382  16.141  18.380  0.0880  0.0666 -0.1001
68960W        W 6454  16.667   9.399   3.312 -0.3114  0.0957 -0.2330
68961W        W 6455   8.320  31.040   9.736  0.0969 -0.1655 -0.1412
68962W        W 6456  18.464   5.925   0.106  0.2301 -0.1386  0.2072
68963W        W 6457  29.709  24.942  20.858  0.1452 -0.4240 -0.0700
68964W        W 6458   1.711  26.999   6.028  0.0771 -0.2286  0.2699
68965W        W 6459   8.278  35.064   9.428  0.0908 -0.3716  0.1050
68966W        W 6460  10.959  25.687   9.076  0.4479 -0.1555  0.2161
68967W        W 6461  11.894   3.322   2.252  0.3851  0.0814 -0.1016
68968W        W 6462  30.172  24.231  11.313  0.3511 -0.0612  0.1225
68969W        W 6463  12.044   3.100  23.904 -0.1774  0.3097  0.1055
68970W        W 6464  16.477  10.846   0.227 -0.3051 -0.3438  0.2223
68971W        W 6465   2.888   4.079   3.250 -0.1056 -0.1292 -0.4218
68972W        W 6466   8.950  21.172  12.441  0.0337 -0.1789  0.2728
68973W        W 6467  31.900   4.142  19.576  0.0690 -0.0292  0.0142
68974W        W 6468  19.205  17.544  10.143  0.1685 -0.0898  0.0577
68975W        W 6469  16.666  22.134  25.381  0.2832  0.2449  0.0519
68976W        W 6470   6.229  10.857  22.596 -0.0836 -0.2928 -0.2021
68977W        W 6471  26.365  26.102  17.339 -0.1324  0.3347 -0.0256
68978W        W 6472   7.593  11.820   8.749 -0.1092 -0.1089  0.1579
68979W        W 6473  21.968  19.161  24.897  0.2532 -0.0379 -0.4099
68980W        W 6474  27.610  26.672  23.307 -0.2763 -0.1978  0.0543
68981W        W 6475  21.222   9.969   4.448  0.1079  0.0579  0.0579
68982W        W 6476  34.234  35.001  20.183  0.1557  0.2770  0.0055
68983W        W 6477  23.522  12.522  25.704 -0.1801  0.4334 -0.0187
68984W        W 6478   5.645  12.572  16.365 -0.1063  0.4216 -0.2513
68985W        W 6479   0.820  21.882  18.260 -0.0826  0.4851 -0.2426
68986W        W 6480  20.154  19.311  19.506  0.2450 -0.3902 -0.2282
68987W        W 6481   6.868  19.204   4.551 -0.0097 -0.1012 -0.1691
68988W        W 6482   6.664   2.282   1.171 -0.0862  0.1486  0.3442
68989W        W 6483   8.617  15.649  24.594  0.0018  0.3727  0.0355
68990W        W 6484  28.872  34.738   5.577  0.1789  0.2410  0.1593
68991W        W 6485   7.027   1.384   1.329 -0.0361  0.0653 -0.0138
68992W        W 6486   6.965  31.418   0.645  0.0818 -0.0961 -0.5852
68993W        W 6487  15.815  24.028   7.905 -0.1034  0.1459 -0.0135
68994W        W 6488   1.177  22.898  14.439  0.1749  0.1985 -0.0637
68995W        W 6489  12.465   1.274  25.860 -0.0768 -0.0366 -0.1511
68996W        W 6490  26.523   9.381  12.899 -0.2309  0.2215  0.1215
68997W        W 6491  20.303   9.787  17.458 -0.2599  0.0985 -0.1584
68998W        W 6492  14.203  13.135  20.974  0.3444  0.0324 -0.1284
68999W        W 6493  27.021   1.659  16.631 -0.3657 -0.2008 -0.2573
69000W        W 6494  28.451  12.800  18.788  0.0916  0.0269  0.3707
69001W        W 6495  20.267   3.033  17.891 -0.0210  0.2745 -0.1939
69002W        W 6496   1.500  23.410   2.345  0.0807  0.1868 -0.3976
69003W        W 6497  31.718  14.002   7.779  0.2687  0.0446 -0.0223
69004W        W 6498  12.780  30.961   9.798 -0.0998 -0.5328 -0.0585
69005W        W 6499   8.591  24.983  14.617 -0.1636  0.1937 -0.0579
69006W        W 6500   7.364   8.157  11.805  0.0040 -0.0696 -0.1453
69007W        W 6501  16.326  25.365  12.547 -0.1176 -0.0952 -0.4027
69008W        W 6502  22.968  27.813  13.668  0.0399  0.1246 -0.6612
69009W        W 6503  16.343  14.984  24.954  0.0982  0.2636 -0.1852
69010W        W 6504  30.021   4.341   0.223 -0.2249  0.1297  0.0958
69011W        W 6505   1.153  23.175  17.705 -0.0233 -0.2315 -0.4573
69012W        W 6506  21.285   8.152  21.390  0.0792 -0.0474  0.0679
69013W        W 6507  21.612  10.979   1.086  0.3178 -0.1646  0.2893
69014W        W 6508   0.701  23.122  12.043  0.1465 -0.2974 -0.1509
69015W        W 6509  23.446   5.770  17.406  0.1216 -0.2059 -0.2217
69016W        W 6510  35.267  18.222  18.558  0.2230  0.2831 -0.1043
69017W        W 6511  17.378  14.321   1.689  0.0558 -0.0593 -0.2330
69018W        W 6512  14.187  14.845   9.790 -0.2833 -0.2228  0.0259
69019W        W 6513  18.842  16.529  22.730 -0.2611  0.0635  0.0137
69020W        W 6514  12.886  27.662   8.303 -0.2142 -0.0137 -0.2993
69021W        W 6515  28.129  13.806   6.301  0.0103  0.0430 -0.3543
69022W        W 6516  29.134  18.753  18.246  0.1559  0.4273  0.0859
69023W        W 6517   8.464  32.347  24.334  0.1586 -0.0723  0.1284
69024W        W 6518   7.567   7.358   5.310 -0.1195  0.0454  0.0399
69025W        W 6519  30.265  15.459  14.736 -0.0372  0.0585  0.2429
69026W        W 6520  20.179  11.924  22.990  0.2311 -0.1708 -0.1975
69027W        W 6521  11.379   5.650   4.779  0.0117  0.0732  0.2720
69028W        W 6522   6.160  29.992  12.162 -0.0944 -0.0788  0.2754
69029W        W 6523  25.127  24.613  13.570 -0.0634  0.2670  0.0276
69030W        W 6524  14.093  23.325   3.608 -0.0609 -0.0473  0.1521
69031W        W 6525   3.801   7.656  26.039 -0.1754 -0.0888 -0.0234
69032W        W 6526   3.122  32.079   4.837  0.3065 -0.1979  0.0083
69033W        W 6527   0.977  31.943  23.736 -0.2347  0.0177 -0.0357
69034W        W 6528  23.722  30.484  21.881 -0.2358 -0.1007 -0.0425
69035W        W 6529   6.714  11.787   7.842 -0.2772 -0.0324  0.0950
69036W        W 6530   8.511  25.736  15.865 -0.4407 -0.0800 -0.2594
69037W        W 6531   5.177  31.890  13.662  0.1397 -0.4669  0.1350
69038W        W 6532  11.075  19.045  26.091 -0.2304  0.1583 -0.1606
69039W        W 6533  14.783  16.087   9.787 -0.1665 -0.0473  0.0204
69040W        W 6534  11.745  14.828   4.195 -0.0566  0.1418 -0.2654
69041W        W 6535  14.428  27.070  25.451  0.0394  0.0276 -0.0772
69042W        W 6536  27.372  22.142  11.508 -0.0555  0.0334  0.0885
69043W        W 6537  30.796  25.647  21.852  0.2171  0.0028 -0.1898
69044W        W 6538  32.692  12.500   0.780 -0.2115 -0.2140  0.0198
69045W        W 6539  20.339   9.763  16.561  0.4465  0.2182 -0.1686
69046W        W 6540  24.645   0.787  24.806  0.0499 -0.0866  0.2390
69047W        W 6541  33.447  31.116  25.463 -0.2312  0.1351  0.0503
69048W        W 6542  27.156  21.904  25.673 -0.2171  0.2969  0.1781
69049W        W 6543   6.818  10.614   9.950 -0.0545 -0.0044  0.0525
69050W        W 6544  21.164  29.991   3.372  0.1971 -0.2234 -0.3471
69051W        W 6545   4.254  29.015  13.209  0.0070  0.1200  0.0710
69052W        W 6546   5.159  19.681  23.471 -0.2076  0.1491 -0.0788
69053W        W 6547  13.643  14.324  21.022  0.0717  0.0557  0.1637
69054W        W 6548  12.936   0.926   4.090 -0.0971  0.0832  0.3048
69055W        W 6549  22.724   3.754  24.951  0.1610 -0.0819 -0.0223
69056W        W 6550   8.420   0.571   0.146  0.1271 -0.1856 -0.0256
69057W        W 6551  29.345   6.985   3.156  0.1538  0.1623  0.2719
69058W        W 6552  27.496  32.229  18.486 -0.3007 -0.0754 -0.3888
69059W        W 6553   6.138   0.381  23.629  0.0849  0.1160 -0.0178
69060W        W 6554  11.335  25.231  11.308 -0.0801  0.1545  0.0901
69061W        W 6555  26.920   0.919  14.101 -0.2480 -0.1428  0.1942
69062W        W 6556   6.353  34.195   3.584  0.1111  0.0618 -0.1487
69063W        W 6557  12.270  14.674   9.055  0.0141 -0.2556 -0.0558
69064W        W 6558  31.287  19.726  11.127  0.0722  0.2758 -0.0135
69065W        W 6559  20.276  29.415  19.919  0.0983  0.2843  0.1671
69066W        W 6560  34.859  15.803  20.526  0.1909  0.0068  0.0451
69067W        W 6561  14.154   3.227   4.891 -0.1143 -0.2469 -0.0500
69068W        W 6562  33.259   2.732   5.111 -0.0965  0.0264 -0.3395
69069W        W 6563  23.946  28.632  11.563 -0.0301  0.0504 -0.2591
69070W        W 6564  17.447  15.292   4.919 -0.3362 -0.3319 -0.0674
69071W        W 6565  13.107  33.206  22.130 -0.0008 -0.2751 -0.0211
69072W        W 6566   4.635   7.916  24.809  0.1022  0.1100 -0.0645
69073W        W 6567  16.788   7.971   9.360 -0.0568 -0.0554  0.1438
69074W        W 6568  20.604   4.779  24.824  0.1941  0.0141 -0.0989
69075W        W 6569  17.758   8.688   0.605  0.3744  0.0112  0.0245
69076W        W 6570  29.170  19.746   6.545 -0.2305  0.3347  0.1696
69077W        W 6571   7.116  23.717   4.146  0.0539  0.2871  0.0336
69078W        W 6572  14.348  12.229   2.436  0.0179  0.2397  0.2340
69079W        W 6573  15.422   9.225  23.429 -0.0652  0.4673  0.0331
69080W        W 6574  14.391   0.766  12.181 -0.0921  0.3672 -0.0089
69081W        W 6575  29.696   3.548   1.078  0.1212  0.2205 -0.3591
69082W        W 6576  13.882   3.822   5.054 -0.1458 -0.0592 -0.2721
69083W        W 6577  11.701  22.514   7.263  0.0245 -0.0647 -0.0176
69084W        W 6578  12.862  21.682  16.200 -0.1774  0.1334  0.2730
69085W        W 6579   4.431  16.648  19.859 -0.0544 -0.5375  0.0669
69086W        W 6580  11.132  21.601  23.773 -0.1354  0.0540  0.0552
69087W        W 6581   4.877  18.470  22.241  0.0284 -0.0343  0.0145
69088W        W 6582  19.413  15.867   9.093 -0.0549  0.0894 -0.0604
69089W        W 6583  22.837  15.270  18.561  0.5497 -0.2271 -0.2349
69090W        W 6584  14.481   0.196  26.150 -0.3723  0.0163 -0.0971
69091W        W 6585  17.671  18.008   2.092  0.0285 -0.2976  0.0817
69092W        W 6586  27.362   4.334   0.731  0.1875  0.0601  0.1960
69093W        W 6587  34.392  12.728   9.298  0.1917 -0.0989 -0.0494
69094W        W 6588  34.097  11.837  14.595  0.0544 -0.3333 -0.0472
69095W        W 6589  30.767  34.346  11.279 -0.0370  0.0951  0.0814
69096W        W 6590  15.964  22.619  21.734 -0.0040  0.0757  0.0656
69097W        W 6591  28.455  30.942   5.850  0.1267  0.1221  0.1724
69098W        W 6592   8.463  35.369   2.208  0.2653 -0.1384 -0.1066
69099W        W 6593  22.895  24.047  25.217  0.2126  0.0622  0.0757
69100W        W 6594  28.423   6.825  16.331 -0.0700  0.1763 -0.2678
69101W        W 6595  26.306  23.326  11.012 -0.0203  0.0869  0.2307
69102W        W 6596  18.581  20.197   4.692  0.2022  0.1819 -0.1767
69103W        W 6597  13.457  14.004  13.186  0.1890  0.1294 -0.0025
69104W        W 6598  18.109   1.418  18.366 -0.0614  0.1678  0.0745
69105W        W 6599  24.392  10.551  20.231 -0.2218  0.0121  0.3426
69106W        W 6600  28.430   0.032  15.934  0.2483 -0.0503 -0.1715
69107W        W 6601   9.732  21.540  11.519  0.1698  0.1922  0.1635
69108W        W 6602  14.984  22.748   4.412  0.1213  0.0652 -0.1220
69109W        W 6603  24.458  32.155  14.171  0.0402  0.0344 -0.1140
69110W        W 6604  12.077  12.264  22.415 -0.2403  0.3068 -0.1417
69111W        W 6605  18.060   1.291  21.471 -0.1891  0.0177 -0.0876
69112W        W 6606  31.850  26.937  22.836  0.1968  0.4196  0.0221
69113W        W 6607  11.738  18.183   2.365 -0.1911 -0.1317 -0.1562
69114W        W 6608  23.160   7.088  19.752 -0.2729  0.2084 -0.0814
69115W        W 6609  11.256  10.767  24.646 -0.0568  0.0579  0.1391
69116W        W 6610  24.864   5.877  19.968 -0.2249  0.2738  0.2433
69117W        W 6611  16.895  18.547   1.548  0.2755  0.1065 -0.2088
69118W        W 6612   5.241  32.775   2.989 -0.0749 -0.0839  0.1448
69119W        W 6613  24.247   5.353  24.020 -0.0368  0.0449  0.1689
69120W        W 6614  15.974  22.809   7.928 -0.2252 -0.1221  0.3493
69121W        W 6615  11.098  32.457  13.725 -0.3326 -0.2425  0.0101
69122W        W 6616  15.185  11.906  19.768 -0.2794  0.1496 -0.3113
69123W        W 6617  22.318  20.841  15.735  0.0204  0.2018  0.0886
69124W        W 6618   0.478   7.001  12.051  0.3261 -0.0041  0.2718
69125W        W 6619  27.809  20.635  10.553 -0.1893  0.0615 -0.0013
69126W        W 6620  26.447   8.144   9.891  0.0717 -0.2182 -0.2361
69127W        W 6621  16.481  15.133  10.798 -0.1098 -0.1193  0.0005
69128W        W 6622   8.850  30.265  26.250 -0.3979  0.1200  0.2636
69129W        W 6623  12.864  24.345  24.984  0.0132  0.0943  0.1977
69130W        W 6624  12.203  29.800   5.179  0.0583 -0.1194 -0.2802
69131W        W 6625  12.303  29.522   6.143  0.0461 -0.2789 -0.1924
69132W        W 6626  19.764   1.384  22.172 -0.0113  0.2697 -0.0989
69133W        W 6627   9.081   5.867   4.926 -0.1752  0.2663 -0.0195
69134W        W 6628   9.912  22.978   6.223 -0.0327  0.0570  0.0934
69135W        W 6629  33.970  20.793  20.847  0.1180 -0.2014 -0.0196
69136W        W 6630  11.863  24.790   7.928  0.1422 -0.0852  0.0208
69137W        W 6631   9.550  32.230   2.450 -0.2444 -0.1987  0.2096
69138W        W 6632  20.348  20.567  19.097 -0.3181  0.0459 -0.1889
69139W        W 6633   6.452  26.516   2.105 -0.0191 -0.1013 -0.0884
69140W        W 6634   0.783  22.783  23.382  0.0794  0.0066  0.1381
69141W        W 6635  15.236   8.121   2.207  0.1215  0.0824  0.0678
69142W        W 6636  30.084  20.138  24.943  0.1976 -0.1411 -0.0315
69143W        W 6637  22.844   4.659  21.672  0.3104 -0.3958 -0.1142
69144W        W 6638  27.730  34.979  18.195  0.0387  0.2803  0.1478
69145W        W 6639  13.616   0.009  20.564 -0.1769 -0.0032 -0.0899
69146W        W 6640  11.039  29.721  23.666  0.0277  0.2495 -0.1576
69147W        W 6641   9.718  14.653  10.833 -0.2612  0.3603 -0.0173
69148W        W 6642  17.408  29.425  24.209  0.1640  0.2455  0.2449
69149W        W 6643  25.089  26.506  15.902 -0.0210 -0.0219 -0.1058
69150W        W 6644  32.045  29.351  15.709  0.1288  0.2635  0.3786
69151W        W 6645  17.619  32.774  17.782 -0.3460 -0.0403 -0.2646
69152W        W 6646   9.551   8.797  25.141 -0.4516 -0.3398 -0.2148
69153W        W 6647  33.732  25.918  14.207 -0.2577  0.2168 -0.0499
69154W        W 6648  25.333  21.708   0.660  0.1846 -0.1638  0.0390
69155W        W 6649  16.682  33.966   6.511  0.2462  0.0754 -0.1268
69156W        W 6650  33.602   6.773  17.307 -0.1361 -0.1563 -0.3305
69157W        W 6651  30.884  24.139  22.109 -0.1821 -0.0729  0.1236
69158W        W 6652  28.651  18.405  12.054 -0.0909 -0.1463  0.2692
69159W        W 6653  19.403   9.359  23.246  0.1065 -0.2598 -0.1333
69160W        W 6654  16.466   6.046  17.301 -0.0086  0.1281  0.2605
69161W        W 6655  30.175  16.497   5.453  0.1861 -0.0624 -0.0430
69162W        W 6656  20.888   9.202  22.314  0.2199 -0.5463 -0.0820
69163W        W 6657   6.973  29.753  11.993 -0.1267 -0.0119  0.1930
69164W        W 6658  11.876  12.858   7.088  0.1335  0.1419 -0.0753
69165W        W 6659  22.435  35.022  20.146  0.1830  0.2374 -0.1312
69166W        W 6660  25.389   1.623   4.847 -0.0772 -0.3195 -0.3253
69167W        W 6661   0.105  19.035  17.285 -0.1112 -0.0479  0.1200
69168W        W 6662  34.573  17.232  15.392  0.2628 -0.2123 -0.2480
69169W        W 6663  15.091  18.273   9.466 -0.1141 -0.1187 -0.1945
69170W        W 6664  28.532   6.663  19.996  0.1623  0.4764  0.4305
69171W        W 6665   7.448  30.018   0.194  0.2451 -0.1198  0.4050
69172W        W 6666  30.970  27.688   0.530  0.1770  0.0382 -0.1879
69173W        W 6667  19.631  15.190  25.597  0.3343 -0.0754  0.1353
69174W        W 6668  23.162   1.335  21.298 -0.0078 -0.2061  0.1110
69175W        W 6669  27.575  21.926  17.407 -0.0295  0.0283  0.3428
69176W        W 6670  20.843  31.916   4.987  0.1208 -0.1372 -0.0583
69177W        W 6671   9.867  24.156   7.744 -0.0448  0.5856  0.0281
69178W        W 6672  10.780   5.766  13.455 -0.0652 -0.1598  0.1488
69179W        W 6673  30.264  23.204  25.409  0.0197  0.0078  0.0566
69180W        W 6674  20.252   8.079  23.905 -0.1210  0.2095  0.3495
69181W        W 6675  16.130   3.672   4.035 -0.0607  0.0656  0.1658
69182W        W 6676  32.220  26.562  22.820  0.0839  0.0535 -0.0554
69183W        W 6677   8.652  29.273  22.779  0.2328  0.1287 -0.0867
69184W        W 6678  21.900   0.385   2.807  0.2723 -0.1422 -0.0480
69185W        W 6679   2.592  13.287  18.399  0.0605  0.0017 -0.2185
69186W        W 6680   1.926  28.887   8.664  0.0826 -0.3459  0.1451
69187W        W 6681  16.290  24.668  13.982 -0.0828  0.2127 -0.0055
69188W        W 6682  13.441  26.180   9.688  0.2999  0.2416 -0.0767
69189W        W 6683  18.836  22.371   9.485 -0.1984  0.0752 -0.0731
69190W        W 6684   8.470   4.431   0.673 -0.1269  0.0715  0.1323
69191W        W 6685  27.309  31.485  21.424 -0.1598  0.3203 -0.1561
69192W        W 6686  16.358  23.991  16.329 -0.2632 -0.1361  0.0281
69193W        W 6687  19.199   4.959  20.930 -0.0557  0.0828 -0.3698
69194W        W 6688   1.808  33.934  15.989  0.0838 -0.4543 -0.0733
69195W        W 6689  28.095  18.402  13.854 -0.4066 -0.0819 -0.0135
69196W        W 6690  16.151  16.928   2.074 -0.1723 -0.1117 -0.1260
69197W        W 6691  13.052  30.804   1.408  0.3146 -0.1028  0.1447
69198W        W 6692  15.038  10.262   9.144 -0.1643 -0.1143  0.2154
69199W        W 6693   8.184   0.868  26.093 -0.2234 -0.1052 -0.1453
69200W        W 6694  31.844   4.458  22.780 -0.1163 -0.1596 -0.0138
69201W        W 6695   9.114  21.812  15.789 -0.0461  0.3046 -0.0703
69202W        W 6696   9.787  27.230   0.543  0.2163 -0.2342  0.1024
69203W        W 6697   8.938  18.711   4.011 -0.0439 -0.2487  0.1315
69204W        W 6698   2.762  33.384  25.022  0.1310  0.3993  0.1412
69205W        W 6699  23.719   9.348   0.345 -0.0720 -0.2741  0.1459
69206W        W 6700  19.191   5.994  17.722 -0.1432  0.2122  0.3034
69207W        W 6701  26.470  34.483  13.473 -0.2321 -0.2423  0.2267
69208W        W 6702  15.538  30.398   9.054  0.1166 -0.2462  0.2222
69209W        W 6703   8.189   5.608  21.826 -0.3462  0.1322  0.4620
69210W        W 6704  25.259  27.093   0.370  0.0235 -0.1012 -0.0166
69211W        W 6705  17.456  26.517  24.506 -0.1440  0.0321  0.1374
69212W        W 6706   4.066   8.057   1.827 -0.2152  0.0288 -0.0588
69213W        W 6707   2.281  18.385  15.219 -0.1647  0.1315 -0.0332
69214W        W 6708   1.659   8.576  14.247 -0.0083 -0.1810 -0.2164
69215W        W 6709   9.835  16.524  24.777  0.1715  0.1515  0.0731
69216W        W 6710   3.322   6.258   2.689 -0.2837  0.0041 -0.0997
69217W        W 6711  13.988  22.708  22.677  0.0939  0.2188 -0.1676
69218W        W 6712  24.167   5.384  15.204  0.0103 -0.1582 -0.0867
69219W        W 6713  10.100   2.966   1.862  0.0310  0.2795  0.1919
69220W        W 6714   5.570  27.280  13.052 -0.1008 -0.0717  0.0087
69221W        W 6715  13.642   9.799  20.413 -0.1135 -0.0430  0.0198
69222W        W 6716   1.054  24.393  23.821  0.1439 -0.1151 -0.3322
69223W        W 6717  31.511  15.595  16.754 -0.0947 -0.1052  0.0270
69224W        W 6718   3.193  20.095   0.033  0.4106 -0.1285  0.0274
69225W        W 6719  11.306  20.905   6.200 -0.0998 -0.1929 -0.0075
69226W        W 6720  20.432   2.723   8.751  0.0593  0.2040 -0.1083
69227W        W 6721  15.929  34.518  10.244  0.1498 -0.1124  0.0136
69228W        W 6722  26.909  14.439   6.348  0.2304  0.1861  0.2093
69229W        W 6723  19.060   5.598  24.938 -0.4921  0.1545 -0.3363
69230W        W 6724   1.796  18.564  16.529  0.0700 -0.0779  0.3419
69231W        W 6725  13.493  33.759   9.953  0.1285 -0.0111  0.5396
69232W        W 6726  26.201  29.280  16.147  0.1832 -0.5283  0.0930
69233W        W 6727  15.247  15.840  20.947  0.0280 -0.0175  0.0025
69234W        W 6728  25.949  26.592  16.328  0.3567 -0.0272 -0.1240
69235W        W 6729  29.033  34.863  17.668 -0.3090  0.3848  0.0608
69236W        W 6730  11.738  31.390  24.080  0.2249 -0.1251 -0.0191
69237W        W 6731  22.710   1.093  22.273 -0.3577  0.2307 -0.3256
69238W        W 6732   5.970  34.169   1.394 -0.1273  0.0474  0.0140
69239W        W 6733  19.146  18.398  10.083 -0.0145 -0.2630  0.0962
69240W        W 6734   6.048   0.879  24.912 -0.1249 -0.0366 -0.3439
69241W        W 6735   4.992  17.123   0.159  0.2422  0.0313 -0.0898
69242W        W 6736  15.936  10.132  20.395 -0.0709  0.1270 -0.3102
69243W        W 6737   8.273  18.444   7.162  0.2337  0.1145  0.0514
69244W        W 6738  35.174  11.450   9.921 -0.2253  0.0162 -0.0155
69245W        W 6739  13.685   6.543   2.619  0.3176  0.0654 -0.1055
69246W        W 6740  29.438  29.261  16.995  0.0997  0.2726  0.1778
69247W        W 6741  26.481  12.190  12.331 -0.0208  0.0851  0.0988
69248W        W 6742  32.660  11.033  18.196  0.0933 -0.1135 -0.2636
69249W        W 6743  20.259   0.024   9.051 -0.0653  0.2472  0.3141
69250W        W 6744  22.894  25.958   3.208  0.1626  0.0245  0.3319
69251W        W 6745   5.156  34.854  24.846 -0.4914  0.0539 -0.0148
69252W        W 6746  16.655  26.762   0.131 -0.0979 -0.3402 -0.0528
69253W        W 6747   3.345   9.655  17.717 -0.0651 -0.1071 -0.3179
69254W        W 6748  11.001   0.793   6.052 -0.2613  0.1922  0.2805
69255W        W 6749   9.342  16.304  20.648  0.1153 -0.0218  0.0334
69256W        W 6750  11.028   1.460   6.921 -0.3370  0.1823  0.2130
69257W        W 6751  14.545   2.592   3.870  0.0477 -0.3861  0.1759
69258W        W 6752  32.807  15.911  10.655 -0.0508  0.2027 -0.0905
69259W        W 6753  18.981  12.800   0.910  0.0886 -0.0713 -0.3579
69260W        W 6754  32.756  14.380  13.235 -0.2188  0.6073 -0.1746
69261W        W 6755   0.338   1.667  21.371 -0.2867  0.5712 -0.0101
69262W        W 6756  19.653  18.829   0.390  0.0497 -0.3440  0.1454
69263W        W 6757   0.447   0.457   6.040  0.0008 -0.0792  0.3110
69264W        W 6758   4.278  27.176   5.832 -0.0850  0.0187  0.0333
69265W        W 6759  27.920  29.901  19.703  0.1904  0.1073 -0.1671
69266W        W 6760  17.768  27.984  23.632 -0.0551 -0.1450  0.2913
69267W        W 6761   4.091   9.580   8.118  0.1090  0.1953 -0.3835
69268W        W 6762   7.101  16.303   2.045  0.1188 -0.1896  0.2936
69269W        W 6763  18.804  12.087  10.033 -0.1835  0.0891 -0.2331
69270W        W 6764  31.456   2.061  25.354 -0.3441 -0.1198  0.0597
69271W        W 6765  17.770   6.439  19.740 -0.0928 -0.1175 -0.1165
69272W        W 6766  31.164  17.547  18.375 -0.0099  0.0694 -0.1678
69273W        W 6767  18.515  30.458   2.134 -0.3272 -0.0125 -0.0395
69274W        W 6768  32.674  33.464   5.049 -0.2389  0.1726 -0.1656
69275W        W 6769  30.282   3.599   0.969 -0.3268  0.3260  0.1936
69276W        W 6770  33.655  26.109   2.414  0.0929 -0.0474  0.1613
69277W        W 6771  22.371   2.393  22.108  0.2284 -0.1335 -0.0618
69278W        W 6772  15.920  11.966   6.443 -0.0738  0.0409  0.0647
69279W        W 6773   7.027  16.865  11.002 -0.1024  0.0053  0.0997
69280W        W 6774  25.343   2.244   0.240 -0.2411  0.1131 -0.2030
69281W        W 6775  11.832  10.701  14.254 -0.0217 -0.5536 -0.1478
69282W        W 6776  25.778   2.669  22.743  0.2056  0.1237  0.1323
69283W        W 6777  30.422   2.140  11.602 -0.1394  0.1304  0.0603
69284W        W 6778  28.609  20.622  11.534  0.4937 -0.2403  0.0346
69285W        W 6779  21.040  20.574  25.691  0.0667 -0.2213 -0.2466
69286W        W 6780  18.415  28.795   3.487  0.1170 -0.1849  0.0721
69287W        W 6781   7.479  13.183  24.018 -0.2460 -0.1234  0.2077
69288W        W 6782  31.415   0.333  20.017 -0.2063  0.2435  0.1397
69289W        W 6783   8.765  34.899  11.070  0.0006  0.1365 -0.2204
69290W        W 6784  32.892  21.666  25.088  0.1098 -0.0647  0.1242
69291W        W 6785  16.149   4.147   4.188 -0.1960 -0.0764  0.0528
69292W        W 6786  14.226  27.381   9.312  0.1594 -0.1868 -0.1004
69293W        W 6787   9.368  29.477  16.192 -0.2560  0.0648 -0.2898
69294W        W 6788   7.481  13.974  17.796 -0.0818 -0.3803 -0.1519
69295W        W 6789  25.494  21.065  19.350 -0.2060 -0.0547 -0.0469
69296W        W 6790  25.151  11.451  12.339 -0.0815 -0.1569  0.0359
69297W        W 6791  21.065  12.286  23.690  0.0139  0.0588  0.1674
69298W        W 6792  10.215  26.938  24.143 -0.1097  0.1172 -0.2274
69299W        W 6793   4.124  34.614  22.401 -0.2346 -0.2855  0.4665
69300W        W 6794  31.458  34.316  17.037 -0.1822  0.0864 -0.1341
69301W        W 6795  33.098   4.596  21.213 -0.0158 -0.2851  0.3646
69302W        W 6796  31.257  20.739  11.876  0.1757  0.3660 -0.1243
69303W        W 6797   2.062   3.332  15.126  0.1295 -0.0383  0.1769
69304W        W 6798  13.569   8.580  25.638  0.2523 -0.0596  0.1034
69305W        W 6799  11.489   6.035  22.819  0.0572 -0.0074 -0.1729
69306W        W 6800   4.981  34.117  23.858 -0.0024  0.2907  0.1524
69307W        W 6801  10.537  25.662  22.507 -0.1396  0.0616 -0.1879
69308W        W 6802  11.109  22.097  25.436 -0.2429 -0.0271 -0.1249
69309W        W 6803  16.834  11.019  19.085  0.1694 -0.3292  0.3184
69310W        W 6804  32.805  20.939  19.108 -0.0492 -0.0231  0.4656
69311W        W 6805  26.616  16.968  16.194  0.1385 -0.0786 -0.2819
69312W        W 6806  22.293  35.052  19.630 -0.0885 -0.2519 -0.1104
69313W        W 6807   7.890   4.442  24.189  0.0736 -0.1162 -0.0006
69314W        W 6808  34.240   3.296  15.460 -0.1078 -0.0765 -0.2499
69315W        W 6809  16.967  26.142   6.056 -0.0789 -0.0431  0.0798
69316W        W 6810  12.318  22.989   1.511  0.1832  0.1031  0.1867
69317W        W 6811  16.660  14.668  13.251 -0.2460  0.2974 -0.2089
69318W        W 6812  25.487  12.000   9.155 -0.2937 -0.1606 -0.0584
69319W        W 6813  12.065  15.260  25.077  0.0194  0.1253  0.1907
69320W        W 6814   9.945  31.515  24.099 -0.1558 -0.1239  0.0266
69321W        W 6815   6.175  33.950   2.175  0.0621  0.0970  0.1775
69322W        W 6816  32.200   0.504   0.131 -0.3611 -0.2196  0.0831
69323W        W 6817  24.640   8.004  23.494  0.0127 -0.0095 -0.0481
69324W        W 6818  15.292  17.930   6.951  0.3054  0.4576  0.4732
69325W        W 6819   5.398  29.287  24.234 -0.0092  0.1001  0.3757
69326W        W 6820  17.159   7.247   5.454  0.1126 -0.1277  0.2649
69327W        W 6821  19.137   3.681   3.036  0.0486  0.1575  0.0051
69328W        W 6822   1.677  24.263  21.205  0.0351 -0.4536 -0.3278
69329W        W 6823  25.514  31.711  23.489 -0.0612  0.1071 -0.0641
69330W        W 6824  24.753  16.822  11.052  0.1012 -0.6094 -0.2403
69331W        W 6825   3.364   0.227   5.442  0.1944  0.2454  0.1016
69332W        W 6826  30.203  16.535   6.941  0.1169  0.1604 -0.0573
69333W        W 6827  27.054   8.787  13.563  0.0023 -0.0236  0.2870
69334W        W 6828  18.798  23.308  22.800 -0.1802  0.2274 -0.2531
69335W        W 6829  21.344  24.162  26.212  0.0863 -0.2139  0.0878
69336W        W 6830  13.290  17.700  13.842  0.1789  0.1312 -0.0778
69337W        W 6831  33.952   0.879  20.039 -0.0785  0.1401  0.1369
69338W        W 6832  28.871   1.781  22.313  0.0517 -0.1370  0.4287
69339W        W 6833  13.799  23.936   5.250  0.5934 -0.1860  0.1235
69340W        W 6834   5.448  12.195  24.782  0.2566 -0.2777  0.2253
69341W        W 6835  11.969  22.158   9.906  0.1483 -0.0772 -0.0756
69342W        W 6836  33.157  29.039  16.817  0.0958  0.0501  0.0688
69343W        W 6837  13.292  30.967   8.938 -0.1703 -0.3629  0.0647
69344W        W 6838  31.071  20.924  19.324  0.0470 -0.2266 -0.0939
69345W        W 6839  10.507  15.595   7.106  0.1353 -0.0630  0.0934
69346W        W 6840  12.481  33.504   2.548  0.0896 -0.0088 -0.2038
69347W        W 6841  28.053  17.169  13.836 -0.0089 -0.0911  0.2003
69348W        W 6842  11.102  23.784  15.906 -0.4716  0.1755 -0.1829
69349W        W 6843  17.360  35.274  20.924 -0.2033 -0.2244  0.3391
69350W        W 6844  18.215  12.626   6.009 -0.6761 -0.1110 -0.0751
69351W        W 6845  20.946  22.160  19.808  0.1072  0.5522 -0.1246
69352W        W 6846  35.107   7.668  21.660 -0.1666 -0.0463  0.1871
69353W        W 6847   3.682  13.469  16.107  0.1145 -0.0958  0.1558
69354W        W 6848  31.684  32.996  17.324  0.2631  0.2149  0.0427
69355W        W 6849  26.232   4.493  14.499  0.1780  0.1038 -0.1589
69356W        W 6850   5.165  20.472   0.447  0.1142  0.1051 -0.1982
69357W        W 6851  23.484  22.570   1.150  0.4561 -0.1508  0.1930
69358W        W 6852  30.073  34.363  18.407 -0.0713 -0.0842  0.2536
69359W        W 6853  30.645   8.002  25.741  0.1049  0.0807 -0.2776
69360W        W 6854  11.764  26.267  24.797 -0.1249  0.1583  0.2559
69361W        W 6855   1.010  15.455  19.218  0.0733  0.0769  0.0596
69362W        W 6856   7.534  10.357  21.875  0.0118  0.4733  0.3187
69363W        W 6857  31.755  19.942  13.541 -0.1602 -0.1382 -0.0248
69364W        W 6858   4.412  30.354  23.586  0.0386 -0.2412 -0.2160
69365W        W 6859  20.468  20.377  20.451 -0.0576  0.1345  0.2165
69366W        W 6860  12.311  24.052   3.973 -0.1018 -0.0411 -0.2501
69367W        W 6861   5.288  13.975  18.362 -0.1133  0.0648  0.1729
69368W        W 6862  30.180  32.050  12.550  0.0157  0.0737  0.2760
69369W        W 6863  12.699  11.142   7.755  0.0031 -0.0320  0.2081
69370W        W 6864  15.979  26.668  23.897 -0.0881  0.1268  0.0750
69371W        W 6865  23.018  29.248   2.070  0.0205 -0.2056  0.4602
69372W        W 6866  20.713  35.129  25.651 -0.1233 -0.0765 -0.0053
69373W        W 6867   1.460   0.761  18.370  0.0441  0.1053 -0.0045
69374W        W 6868  13.429  26.692  12.247  0.3018  0.1754  0.0762
69375W        W 6869  25.097  10.103  15.927 -0.0748  0.2858  0.1107
69376W        W 6870  28.909  12.888   7.009  0.2033 -0.1817 -0.1792
69377W        W 6871  30.191   1.289  25.658  0.3433 -0.2578 -0.0820
69378W        W 6872   8.597  24.182   1.669  0.0777  0.0577  0.0307
69379W        W 6873  16.741  17.800  12.947  0.0328 -0.1373  0.1062
69380W        W 6874  13.334  10.291   8.997  0.1660  0.1344 -0.1573
69381W        W 6875  25.010   8.244  12.565 -0.0934 -0.1073  0.0478
69382W        W 6876  19.424   4.334   2.615 -0.0178 -0.0942 -0.2036
69383W        W 6877   7.964  16.040   9.289 -0.3763  0.3979  0.2549
69384W        W 6878   7.269  23.069  26.129  0.1174  0.2818  0.0114
69385W        W 6879  13.514  33.130  24.660 -0.0863 -0.3075 -0.1841
69386W        W 6880  34.396  15.972  20.071 -0.0074  0.0516 -0.0437
69387W        W 6881   5.086  18.771   1.162 -0.1712  0.0439  0.1911
69388W        W 6882  30.583  22.340  17.472 -0.1405 -0.0408  0.0725
69389W        W 6883   4.695  29.987   3.715 -0.1126  0.1508 -0.1777
69390W        W 6884   4.746  22.152  26.133 -0.0261 -0.1237 -0.0483
69391W        W 6885  31.418   7.388   3.040 -0.4658  0.0614 -0.0910
69392W        W 6886   3.082  25.520   3.092 -0.1823 -0.2153 -0.0332
69393W        W 6887   6.383  10.791   7.439  0.0132  0.0714 -0.0871
69394W        W 6888  29.253  10.873   0.811 -0.1053 -0.1895 -0.4752
69395W        W 6889   6.850  32.649  15.000 -0.0114  0.0371 -0.3037
69396W        W 6890  23.886  32.425  12.363 -0.0234 -0.1784 -0.1349
69397W        W 6891  22.665   6.942   3.155  0.0166 -0.0618  0.2637
69398W        W 6892  28.308  12.329  19.858 -0.0247 -0.1958  0.1436
69399W        W 6893  31.067  30.351   4.398  0.1667  0.1133 -0.1116
69400W        W 6894  22.587  15.583  24.428 -0.4952 -0.1973 -0.1840
69401W        W 6895   3.637  30.215   7.531 -0.0924  0.1103  0.0178
69402W        W 6896  12.453   3.083  19.118 -0.4133 -0.2174 -0.0578
69403W        W 6897  23.900   0.718  24.361  0.2252 -0.2897  0.1093
69404W        W 6898  19.786   7.206   1.348  0.2136 -0.2272  0.2061
69405W        W 6899  34.408  32.867   7.117 -0.0031  0.0722 -0.3109
69406W        W 6900  26.378  20.241   8.558  0.0008 -0.0310 -0.1096
69407W        W 6901   8.448  14.073   2.061  0.0184 -0.0763  0.2136
69408W        W 6902  23.290  24.279  18.034  0.1187  0.0502 -0.3473
69409W        W 6903  22.867  26.432   4.492 -0.0703  0.4526  0.0266
69410W        W 6904   4.696  30.998   4.550 -0.0750  0.1100  0.1107
69411W        W 6905  26.706   1.997   4.567  0.0639  0.1185  0.2073
69412W        W 6906   2.662  31.786  18.956  0.0104  0.0185 -0.0388
69413W        W 6907  31.586  19.468  11.383  0.1835  0.1268  0.0202
69414W        W 6908   7.707   6.045   6.022  0.0654 -0.2172 -0.0347
69415W        W 6909  17.378  20.332  24.829 -0.0620  0.1132 -0.2061
69416W        W 6910  31.873  29.381  20.343  0.3518  0.1280 -0.1105
69417W        W 6911  26.781   0.842   2.623 -0.2062  0.3039  0.2273
69418W        W 6912  34.538   3.520  13.820 -0.1765 -0.2092  0.0379
69419W        W 6913  24.590   5.957   3.978 -0.1222 -0.0127 -0.1011
69420W        W 6914   3.211  25.427   1.708  0.4353  0.1578 -0.0597
69421W        W 6915  23.357  25.195   3.073  0.1520 -0.2256  0.0336
69422W        W 6916  15.822   5.286  23.843  0.2530 -0.2201 -0.0178
69423W        W 6917  15.380   2.390  11.423  0.1265  0.1341  0.0008
69424W        W 6918  31.677  18.745  23.177 -0.0798 -0.1431  0.1552
69425W        W 6919  12.407  25.803   0.866 -0.0431 -0.1166 -0.1124
69426W        W 6920  13.737  26.248   6.396 -0.1778  0.0533  0.0029
69427W        W 6921  30.392  32.569  23.473  0.1658  0.0272  0.2429
69428W        W 6922   6.883   0.256  10.729  0.0022 -0.0273  0.1142
69429W        W 6923  20.281  32.591   2.272  0.1052 -0.0904 -0.1106
69430W        W 6924  26.231  34.171  16.724 -0.0748 -0.0817 -0.2251
69431W        W 6925  16.655  18.947  11.100  0.0496 -0.1567  0.0669
69432W        W 6926  11.512   7.040  12.378  0.0341  0.1506  0.0155
69433W        W 6927  11.946   0.522   3.981  0.0530  0.2451  0.2268
69434W        W 6928  23.336  34.107  12.458  0.1265  0.3355  0.1610
69435W        W 6929  13.365   0.371  13.120 -0.0807  0.0776 -0.0607
69436W        W 6930  21.789  13.351  21.231 -0.0021 -0.2259  0.2745
69437W        W 6931  18.286  23.370  26.103 -0.0577  0.0209 -0.0145
69438W        W 6932  28.328  25.802  19.688  0.2130  0.0366 -0.1309
69439W        W 6933  17.634  15.723  22.545 -0.1092 -0.4356 -0.2572
69440W        W 6934  12.442   6.122   1.116 -0.1728  0.0188 -0.2950
69441W        W 6935  30.298  22.013  16.375  0.0733  0.0025  0.1148
69442W        W 6936  17.255   8.900   7.493  0.0967 -0.1848  0.2158
69443W        W 6937  14.099  12.658   1.768  0.0143 -0.0508 -0.0369
69444W        W 6938  32.820   5.913  11.429  0.3526  0.0203  0.0601
69445W        W 6939  30.465  11.896  10.527  0.4107 -0.2858  0.0217
69446W        W 6940   6.422  10.133   7.539 -0.0078  0.2116 -0.0422
69447W        W 6941  11.937   8.037   9.073  0.0999 -0.0916 -0.0493
69448W        W 6942  29.587  28.410  18.558  0.1365  0.1069 -0.0407
69449W        W 6943   5.008  34.804   2.543  0.3556  0.1175  0.1354
69450W        W 6944  18.475   9.381   7.393  0.3853 -0.0466 -0.0813
69451W        W 6945   4.669  11.088  25.890  0.1371 -0.0944  0.0475
69452W        W 6946   3.208  14.101  14.771  0.2735  0.0531  0.0407
69453W        W 6947  16.926  10.486  10.278 -0.0887  0.3245 -0.1947
69454W        W 6948   3.607  11.921  25.349  0.0402  0.0493  0.1952
69455W        W 6949  21.783  12.778  14.091  0.2175  0.3255  0.0014
69456W        W 6950  27.375  30.467  25.289  0.0848  0.2501  0.1948
69457W        W 6951  18.700   0.044  19.519  0.1915  0.0007 -0.4667
69458W        W 6952  20.614   9.808   7.075  0.1434  0.0037 -0.0041
69459W        W 6953   2.428  33.932   8.304  0.0488  0.1089 -0.0053
69460W        W 6954  35.164   0.740  20.675  0.2325  0.1149 -0.1374
69461W        W 6955   7.158   7.171  24.559  0.0484 -0.0932 -0.0647
69462W        W 6956  29.946  15.686  18.493  0.2877 -0.1822  0.2416
69463W        W 6957   9.958  14.577   9.894 -0.3549 -0.1225 -0.0085
69464W        W 6958  23.140  19.010  18.638  0.0378  0.0501  0.0608
69465W        W 6959   1.080   3.841  17.096  0.2461  0.0680  0.3476
69466W        W 6960  20.150   2.512  24.427  0.0360  0.2891 -0.0204
69467W        W 6961  31.591   3.949  22.890 -0.0960 -0.1434  0.1591
69468W        W 6962  20.945   6.021  19.537  0.3205 -0.0406  0.0724
69469W        W 6963  20.009   4.622  16.279 -0.1575 -0.1589  0.0143
69470W        W 6964  27.841  17.824  20.705 -0.0643  0.0768  0.2689
69471W        W 6965  34.587   5.548  12.349  0.0638  0.2326 -0.0818
69472W        W 6966   7.419  16.993   3.605 -0.1458  0.2676  0.2199
69473W        W 6967  22.402  25.491  16.358  0.0446  0.0773  0.1397
69474W        W 6968  10.178   6.403  13.901 -0.1496 -0.0525  0.1808
69475W        W 6969  32.819  18.863  25.736  0.3927  0.0623  0.2731
69476W        W 6970  11.445   9.967  24.715  0.2240  0.1852 -0.0411
69477W        W 6971   9.004  19.779  13.810 -0.2958  0.1141 -0.3776
69478W        W 6972  14.542   1.654  23.571  0.3756  0.0579 -0.0188
69479W        W 6973   6.223   7.800   9.001 -0.2318 -0.0458 -0.1333
69480W        W 6974  27.095  11.027  24.410  0.1063  0.2103 -0.0789
69481W        W 6975  13.012  32.507  14.128  0.0016 -0.0381  0.0069
69482W        W 6976  11.455   5.716  21.793  0.1493 -0.0950 -0.1688
69483W        W 6977  27.618  13.518  21.862 -0.0486 -0.2647  0.2435
69484W        W 6978   3.699  27.139  24.027 -0.4011 -0.2175 -0.0797
69485W        W 6979  13.994  25.030  15.234  0.1498  0.0608  0.0006
69486W        W 6980  23.441  25.175  23.848  0.2563  0.0387 -0.0778
69487W        W 6981  10.974  29.098   7.347 -0.2017  0.1637  0.2514
69488W        W 6982  15.058   9.491  20.535 -0.4745 -0.1007  0.2125
69489W        W 6983  10.392  17.216   0.900 -0.0798  0.0953  0.0961
69490W        W 6984   0.032  13.274   9.456 -0.1288 -0.0242 -0.0011
69491W        W 6985   9.619  24.807  25.631  0.2530  0.3788 -0.0606
69492W        W 6986  30.876  13.862   7.772  0.1204  0.1413 -0.2099
69493W        W 6987  21.178   0.032  17.619  0.0928  0.0582  0.1117
69494W        W 6988  26.776   6.243  17.077  0.2267  0.4406  0.0087
69495W        W 6989  14.323  15.954   5.079 -0.2123 -0.0704  0.1878
69496W        W 6990   0.837  32.863  17.026 -0.0433  0.0328 -0.0119
69497W        W 6991  28.520   3.374  17.307  0.1796 -0.0933 -0.0657
69498W        W 6992  32.051  12.909   8.815 -0.2162 -0.2463  0.1558
69499W        W 6993  31.021  26.653  10.783  0.0603 -0.1157  0.0478
69500W        W 6994  22.686  16.815  14.671  0.1848 -0.0244 -0.1581
69501W        W 6995   4.574  26.030  19.702 -0.2408  0.1215  0.1599
69502W        W 6996   4.828   1.832   2.066  0.2847  0.0020  0.2552
69503W        W 6997  14.463  19.303   2.072  0.3090  0.0179  0.1262
69504W        W 6998  15.448   6.155   6.640 -0.1584 -0.0411 -0.1392
69505W        W 6999   6.637  12.379  20.603  0.1763  0.2182  0.3564
69506W        W 7000  13.214  25.279  22.330 -0.0947 -0.0387  0.0426
69507W        W 7001   4.364  28.543   8.473  0.0225  0.0775  0.1816
69508W        W 7002  15.808   5.276   0.460 -0.0602 -0.0423  0.3043
69509W        W 7003  11.419   6.052  12.370 -0.0015  0.1459  0.0759
69510W        W 7004  34.605   0.374  15.788  0.2701  0.2141  0.3029
69511W        W 7005   9.966  22.572  24.187 -0.1845  0.0637 -0.1517
69512W        W 7006  30.962   4.238  11.862  0.2722 -0.1496 -0.0920
69513W        W 7007  19.452  13.070  21.070  0.3284  0.2449 -0.4016
69514W        W 7008  28.286  23.517   6.688  0.0347 -0.0925  0.0238
69515W        W 7009  12.935   2.738   0.710  0.1665 -0.2419  0.1175
69516W        W 7010  27.906  18.288   9.695  0.2230 -0.0384 -0.3629
69517W        W 7011   4.607  18.112  20.024  0.2156  0.0127 -0.1527
69518W        W 7012  12.254  33.707   4.411 -0.0550 -0.2228 -0.1794
69519W        W 7013  13.854  29.175  13.898  0.1106  0.1194  0.1976
69520W        W 7014   4.870  11.858   5.782  0.2907 -0.0253  0.0925
69521W        W 7015  29.464  26.759  24.075 -0.1603 -0.0392 -0.2196
69522W        W 7016   3.322  24.811  24.102  0.2153  0.2293 -0.1054
69523W        W 7017  18.923  12.693   7.250  0.0048  0.1236  0.1355
69524W        W 7018  30.122  19.738  16.506  0.0546 -0.1497 -0.1520
69525W        W 7019  28.809  18.426  18.400  0.0003 -0.0860  0.3636
69526W        W 7020   3.202  33.607   3.244 -0.2416 -0.1396 -0.2222
69527W        W 7021   8.353   4.076  22.022  0.0187 -0.0368 -0.0495
69528W        W 7022  23.884   5.525  14.759 -0.1690  0.0352 -0.1741
69529W        W 7023   9.670  20.496   8.893 -0.1036  0.2887  0.0948
69530W        W 7024  28.169  21.265   8.989  0.0063 -0.1387  0.0523
69531W        W 7025  18.428  10.268  22.937 -0.1535 -0.0001 -0.0608
69532W        W 7026   3.436   6.012   0.268 -0.0530 -0.4145  0.1768
69533W        W 7027  30.081   5.413   3.822  0.0686 -0.3300  0.1468
69534W        W 7028   2.490  32.092  25.278 -0.1761  0.4134  0.1665
69535W        W 7029  11.743  23.915   6.122 -0.0531  0.0414 -0.1101
69536W        W 7030   5.933  33.272   2.807 -0.0604 -0.2252  0.0214
69537W        W 7031  28.805  29.617  15.990  0.0934  0.0047  0.1447
69538W        W 7032   5.324  13.387   6.968  0.0361  0.0376 -0.0762
69539W        W 7033  10.799   2.135  14.159 -0.2195 -0.2621 -0.2788
69540W        W 7034   3.206  19.577  20.462  0.1405  0.4709  0.1517
69541W        W 7035  25.511  24.042  19.150 -0.0807 -0.0182 -0.0428
69542W        W 7036   6.865  18.767  22.030  0.0970 -0.0244  0.1361
69543W        W 7037  31.077  25.202  16.236 -0.0096  0.1335  0.0375
69544W        W 7038   1.169   0.504  20.085 -0.1463  0.3730  0.0697
69545W        W 7039   3.795  19.866  23.309  0.0323  0.1760  0.3316
69546W        W 7040  25.559   6.857  13.496  0.2357 -0.1031  0.2010
69547W        W 7041   2.485  31.649  25.023 -0.0999  0.0606  0.1422
69548W        W 7042  19.390   3.363   5.190 -0.0320 -0.2341  0.2356
69549W        W 7043  24.444   3.388   1.400  0.0810  0.1495  0.3151
69550W        W 7044  28.342  31.962   1.959 -0.0237 -0.1174  0.1348
69551W        W 7045  25.620   3.378  12.705  0.2426  0.0068 -0.0832
69552W        W 7046  19.921   5.770   7.373 -0.1088 -0.0093 -0.0793
69553W        W 7047  22.283   6.855   2.807  0.1716  0.4618  0.3618
69554W        W 7048  20.179   4.211   0.630 -0.2125 -0.1971 -0.1294
69555W        W 7049  20.770   3.936   2.076  0.0215 -0.2806 -0.1366
69556W        W 7050  32.425  23.307  22.248 -0.0945  0.0199  0.2407
69557W        W 7051  13.497  31.139   7.629  0.1413 -0.0290 -0.1719
69558W        W 7052  24.079  11.350   0.452 -0.1827  0.1593 -0.1857
69559W        W 7053  28.336  15.329  15.832  0.2378  0.1088  0.0710
69560W        W 7054   5.055   2.300  25.567  0.0931  0.4552  0.3342
69561W        W 7055  23.761  32.382  19.621  0.0938 -0.4209  0.2681
69562W        W 7056  13.005  21.616   3.542 -0.0891 -0.1004  0.0870
69563W        W 7057  29.465  12.892   5.334 -0.1535 -0.1117  0.1336
69564W        W 7058   3.305  14.840  17.632  0.2571  0.3156  0.0569
69565W        W 7059  18.538   3.191   9.629  0.0290 -0.2556  0.3495
69566W        W 7060  10.158   4.131  24.796  0.0132 -0.1951 -0.2011
69567W        W 7061   9.565  13.435   0.366  0.1468  0.1249 -0.3542
69568W        W 7062  16.038   6.338  17.322 -0.2761  0.2126 -0.0309
69569W        W 7063  29.596  18.321  13.971 -0.0060 -0.2468  0.0148
69570W        W 7064  32.619   0.742  24.212 -0.0884  0.0238 -0.0556
69571W        W 7065  32.756  11.443   6.491 -0.1607 -0.0949  0.0092
69572W        W 7066   9.930   8.850  14.216 -0.2311  0.1313  0.5183
69573W        W 7067  32.207  29.817   3.898 -0.4215 -0.0323 -0.0206
69574W        W 7068  33.121   2.853  17.588  0.0633 -0.4333  0.0406
69575W        W 7069  33.209  30.803  18.662 -0.0027 -0.2036  0.1838
69576W        W 7070  33.057   7.755   2.173 -0.1235 -0.0060  0.0390
69577W        W 7071  12.467  25.985  12.537  0.0725  0.0098  0.3279
69578W        W 7072  29.342  35.172  16.449  0.0947  0.0531 -0.1410
69579W        W 7073  19.324  28.179  21.461  0.1323  0.0746 -0.2103
69580W        W 7074  27.739  11.666  25.357  0.1988  0.1043  0.1309
69581W        W 7075  25.526  24.549  20.689  0.2239 -0.1286 -0.1289
69582W        W 7076  18.419   0.683   1.715 -0.2074 -0.1058 -0.0779
69583W        W 7077  32.618   3.953  14.103  0.0637  0.1780 -0.1044
69584W        W 7078  11.963   8.328  23.538 -0.0052 -0.0218 -0.1576
69585W        W 7079  10.816   4.017   4.414 -0.0609 -0.0075 -0.1217
69586W        W 7080  15.684   1.630  21.337 -0.2349 -0.0921 -0.2545
69587W        W 7081   4.920  14.079  19.175  0.2029 -0.0392 -0.0758
69588W        W 7082  20.581   3.008  26.155 -0.1104 -0.0724  0.0705
69589W        W 7083   3.491  18.582  14.707  0.2569 -0.0476 -0.2961
69590W        W 7084  15.238  23.813   7.907 -0.0215  0.2128  0.0272
69591W        W 7085  20.807   0.984  22.852  0.1274  0.5317  0.1566
69592W        W 7086  14.828  15.035  10.626 -0.2476 -0.0347 -0.0836
69593W        W 7087  16.525   0.065   7.292  0.1739  0.1116 -0.0605
69594W        W 7088  19.124  31.050  17.855  0.0289  0.0452  0.0461
69595W        W 7089  30.814  34.153   4.301  0.1639 -0.0765  0.0732
69596W        W 7090   3.701  23.937  19.613  0.0018 -0.1108  0.0201
69597W        W 7091  31.516  21.706  18.280 -0.0556  0.0521 -0.1204
69598W        W 7092  19.775   6.026   1.391 -0.0286 -0.0439 -0.0243
69599W        W 7093  21.017  13.508  17.140 -0.1768  0.0631 -0.2147
69600W        W 7094   3.925   8.690  22.972 -0.0131  0.0270  0.3213
69601W        W 7095  19.720   2.894  24.954  0.2201  0.0446  0.3559
69602W        W 7096  34.867   1.218  16.827 -0.0887 -0.2054 -0.0349
69603W        W 7097   2.516  35.160   9.881  0.0565  0.3334 -0.1161
69604W        W 7098  13.419  18.954  11.093  0.0564  0.1252  0.0625
69605W        W 7099   7.999  14.459  23.960  0.0301  0.0522  0.2099
69606W        W 7100  21.430  34.309  18.432 -0.0184 -0.2840  0.0213
69607W        W 7101  17.784  14.905  18.417 -0.1313  0.1439  0.0882
69608W        W 7102  23.139   4.809  16.920 -0.0489  0.3255  0.2673
69609W        W 7103  22.790  34.143  14.877 -0.0088 -0.2269 -0.1589
69610W        W 7104  20.773  27.654  19.356  0.2003  0.1919  0.0213
69611W        W 7105  18.566   7.484   8.612  0.1094 -0.1974 -0.3536
69612W        W 7106   2.381  28.743  18.879 -0.2965 -0.1081  0.1083
69613W        W 7107  28.724  31.379  14.832  0.0298  0.0970 -0.1750
69614W        W 7108   1.013  26.304  26.083  0.0940  0.1333 -0.0613
69615W        W 7109  31.091   8.682  13.374 -0.0368 -0.1613  0.0627
69616W        W 7110  18.909  15.363  22.328 -0.0264 -0.0072 -0.1796
69617W        W 7111  11.906   7.194  21.168  0.2480 -0.1580 -0.2171
69618W        W 7112   1.652  12.677  19.108  0.2866  0.1062  0.1641
69619W        W 7113  20.054   3.446  10.348 -0.0895  0.1472 -0.0999
69620W        W 7114  14.837  14.497   0.694  0.1074  0.4045 -0.0534
69621W        W 7115   4.914   0.721   7.382  0.2512 -0.0403 -0.4241
69622W        W 7116   9.908  34.352   6.914  0.2051  0.3700 -0.4253
69623W        W 7117  28.323  10.565  21.714  0.1235  0.1483  0.0749
69624W        W 7118  17.878   1.041  21.061  0.3345 -0.2536  0.0813
69625W        W 7119  29.098  20.172  25.898 -0.0479 -0.0893 -0.1502
69626W        W 7120  11.354  22.866   5.798 -0.0156 -0.0911 -0.0892
69627W        W 7121  29.374  21.303   5.666  0.0770 -0.0754  0.4269
69628W        W 7122   4.732  11.605  23.333 -0.4787 -0.1990  0.0296
69629W        W 7123  21.542  17.243   2.928 -0.0516  0.0255  0.2188
69630W        W 7124   6.536  24.905   4.739  0.1947 -0.0608  0.0440
69631W        W 7125  30.105  22.456  15.454 -0.1811 -0.0350 -0.0631
69632W        W 7126  32.312  15.826  13.051 -0.0965 -0.3191 -0.2606
69633W        W 7127  15.783   5.501  26.194 -0.3900  0.0890  0.2931
69634W        W 7128   1.552  27.894   6.727 -0.0702 -0.1603 -0.2084
69635W        W 7129  10.055   6.535   8.919 -0.0839  0.2429 -0.1338
69636W        W 7130   6.467  14.478  25.773 -0.3117  0.0235  0.1400
69637W        W 7131  23.672  34.669  20.012 -0.1314  0.0453  0.1785
69638W        W 7132   8.972  32.940   6.576  0.0197 -0.0816  0.0292
69639W        W 7133   5.582  22.701   4.548 -0.1666  0.0458 -0.0672
69640W        W 7134  25.375  25.735  13.966  0.0142 -0.3116 -0.1441
69641W        W 7135  27.648  12.517  15.399 -0.1118  0.2770  0.0192
69642W        W 7136  10.990  20.876   8.079  0.2212 -0.3620  0.1045
69643W        W 7137  17.461   9.839  10.268  0.2136 -0.0342 -0.3150
69644W        W 7138   7.268  19.044  10.161 -0.2412  0.0813 -0.1312
69645W        W 7139  23.640   6.544  25.440  0.2028  0.3748  0.0639
69646W        W 7140  12.163  15.265   2.954  0.0555  0.1382  0.1963
69647W        W 7141   1.247   3.138  15.107 -0.4157 -0.0285 -0.1658
69648W        W 7142  18.102   2.420   8.957 -0.2386  0.1615 -0.0484
69649W        W 7143   8.467   9.588   1.578  0.2051  0.1136  0.0723
69650W        W 7144  21.730  29.941  13.813  0.0208 -0.3898 -0.2632
69651W        W 7145   0.233  17.852   9.779  0.4500  0.2442  0.2270
69652W        W 7146  17.501   7.072   0.972  0.1292  0.0508 -0.2990
69653W        W 7147  10.868  22.973  10.492 -0.0701 -0.2242  0.0469
69654W        W 7148   1.419  25.887   3.106  0.2403 -0.0004 -0.1067
69655W        W 7149   9.385  18.816   7.842  0.1935  0.3109 -0.1864
69656W        W 7150  32.046  10.460  24.190 -0.0712 -0.0502 -0.0174
69657W        W 7151   6.312  22.502  22.910  0.0665 -0.0534 -0.4407
69658W        W 7152   6.445  25.208   4.241  0.0232  0.1381  0.4589
69659W        W 7153   1.975   0.622  19.785 -0.2549  0.1669 -0.1277
69660W        W 7154  30.988  11.844  21.441  0.2023  0.0060 -0.0409
69661W        W 7155   0.845  22.967   0.519  0.1114  0.3814  0.2188
69662W        W 7156   8.742  14.362  10.639  0.2115  0.1078  0.0171
69663W        W 7157  27.030   6.698   0.220  0.0229  0.0424  0.5735
69664W        W 7158  24.135  12.835  24.062  0.2119  0.0831 -0.0070
69665W        W 7159  22.792  16.903  25.107  0.0488  0.2560 -0.1565
69666W        W 7160  13.500   1.914   1.308  0.0402 -0.0796 -0.1310
69667W        W 7161  32.576  10.090  14.611 -0.0528  0.0804  0.2421
69668W        W 7162  26.731  24.752  13.983 -0.1600  0.0226 -0.1001
69669W        W 7163   2.852  26.686  18.763 -0.0968 -0.2525 -0.2783
69670W        W 7164  28.919   4.506  14.676 -0.0478 -0.0272 -0.1923
69671W        W 7165  28.783  18.819  23.529  0.1048  0.1246  0.3821
69672W        W 7166   0.339  14.675  17.715  0.1440 -0.0683 -0.3635
69673W        W 7167   0.724   3.736  24.942  0.3355 -0.3023  0.0240
69674W        W 7168  31.706  34.368  24.361 -0.1012 -0.2202 -0.2939
69675W        W 7169  22.700   0.182  25.422 -0.0336 -0.1378 -0.0605
69676W        W 7170   3.056   2.474   0.882  0.1039  0.2027 -0.2040
69677W        W 7171  14.215  29.354  26.042  0.2623  0.3697  0.0370
69678W        W 7172  10.514  16.729  19.475 -0.0623  0.3440 -0.3175
69679W        W 7173  25.899  34.597  16.088 -0.2746 -0.1796  0.3748
69680W        W 7174  25.923  29.420  13.250  0.0206 -0.1525  0.0800
69681W        W 7175   4.623  21.675   4.121 -0.0451 -0.0348 -0.0701
69682W        W 7176  34.251  12.169  14.218  0.1474  0.1284 -0.3827
69683W        W 7177  16.660  14.109  26.133  0.0575  0.0639  0.0197
69684W        W 7178  13.034  31.562  13.750 -0.2044 -0.0583 -0.2328
69685W        W 7179  32.680  15.435  22.278 -0.0867 -0.0253 -0.1606
69686W        W 7180  25.123  12.231  17.657  0.2130 -0.0850 -0.1454
69687W        W 7181   3.568  17.245  23.696  0.1228  0.1328  0.0142
69688W        W 7182   8.101  22.658  13.410 -0.2213 -0.0392 -0.0107
69689W        W 7183  11.970   8.623   9.091  0.3610 -0.0257 -0.0078
69690W        W 7184   0.191  18.414   0.736 -0.1075  0.1326  0.0263
69691W        W 7185  34.584  10.354  19.984 -0.2930 -0.0804  0.0239
69692W        W 7186  26.483  18.200  13.272 -0.1006  0.2209  0.2542
69693W        W 7187  33.242  20.244   7.654  0.0716  0.0674  0.0316
69694W        W 7188  27.910   7.158   1.644 -0.0861  0.4107  0.1986
69695W        W 7189  34.237   7.118  26.022 -0.2258  0.1086 -0.0834
69696W        W 7190  14.416  24.091  24.397  0.0769  0.2798 -0.1250
69697W        W 7191  29.082  34.328   3.661 -0.2199 -0.2187 -0.0489
69698W        W 7192  29.565  21.578  16.007 -0.1157  0.2571  0.0709
69699W        W 7193  12.050   4.666   3.834 -0.2731 -0.0053 -0.0758
69700W        W 7194  31.250  13.004  15.242 -0.1063  0.0238  0.0140
69701W        W 7195  10.294  25.099   9.391 -0.2980 -0.0150 -0.1180
69702W        W 7196  25.263  14.910  21.730  0.1469  0.1617  0.1614
69703W        W 7197  11.203  18.310   3.484  0.2204  0.1337 -0.1771
69704W        W 7198  12.868  30.688   2.657 -0.0635 -0.0313 -0.0608
69705W        W 7199  21.494  14.261   2.519  0.0489 -0.1532  0.3247
69706W        W 7200  14.223   9.174  22.945 -0.4144 -0.1295 -0.1369
69707W        W 7201  33.695  17.884   8.580  0.0590  0.0350  0.1776
69708W        W 7202   2.699  28.638  20.145 -0.1021 -0.0203  0.0847
69709W        W 7203  33.738   6.833  25.462 -0.1233 -0.1130 -0.1264
69710W        W 7204  31.833  19.149  15.054  0.3635  0.0605  0.1133
69711W        W 7205   4.253   1.528   8.301  0.2133  0.1085  0.1754
69712W        W 7206  28.615  20.845  20.418  0.0198  0.0809  0.1914
69713W        W 7207  23.931  27.925   1.249  0.1361 -0.0502  0.5211
69714W        W 7208  24.625  20.401  13.674  0.2293 -0.3142  0.1918
69715W        W 7209  20.412   8.908  20.064  0.0154  0.0938  0.0765
69716W        W 7210   6.182  11.384   0.985  0.1137 -0.0538  0.3013
69717W        W 7211  22.127  26.686  18.108  0.0708  0.3009 -0.1782
69718W        W 7212  17.925   5.052   1.388 -0.3185  0.1241  0.3770
69719W        W 7213   7.486  25.791   1.068  0.1631  0.1573 -0.2527
69720W        W 7214  19.460  14.651   7.112  0.1143  0.0400 -0.0853
69721W        W 7215  10.594   4.292   6.001  0.2845 -0.0062  0.3569
69722W        W 7216  26.757   6.742   0.674 -0.0476  0.0024  0.1201
69723W        W 7217  11.740  30.634  16.363  0.0983 -0.0922  0.1118
69724W        W 7218  15.722  27.615   3.906 -0.0177  0.2522 -0.1375
69725W        W 7219   7.006  26.164  11.065 -0.0557  0.2036 -0.1335
69726W        W 7220  20.155  31.840   7.044 -0.3069  0.0702  0.1122
69727W        W 7221  14.045  14.312  18.820 -0.1498  0.0977  0.0441
69728W        W 7222  25.606  27.994  23.328  0.1710  0.0324  0.1358
69729W        W 7223  23.471  22.985  21.335  0.2512 -0.1945 -0.0120
69730W        W 7224  34.429  33.835   6.562 -0.0988 -0.0886  0.0128
69731W        W 7225  11.943   6.172  12.437  0.0679  0.2214 -0.1165
69732W        W 7226   3.627   9.256  17.269 -0.3006 -0.1009 -0.3905
69733W        W 7227  24.777  11.223  19.760 -0.0660  0.0762 -0.0466
69734W        W 7228   7.063  21.331   1.123 -0.0013 -0.0415 -0.3029
69735W        W 7229  19.935   6.367  19.414 -0.1213  0.1034  0.0388
69736W        W 7230  19.441   8.935  20.315  0.1285  0.0682 -0.0614
69737W        W 7231   1.571  24.554  23.666 -0.1103 -0.0247  0.4322
69738W        W 7232  11.215  30.064   9.484  0.1176  0.5165 -0.1195
69739W        W 7233  20.458   2.093  22.539  0.0478 -0.1750  0.3900
69740W        W 7234  33.200  31.984   4.534  0.0359 -0.2902  0.4444
69741W        W 7235  24.860  12.756  13.932 -0.1972 -0.0386 -0.0176
69742W        W 7236  26.305   8.624   0.479  0.2867  0.1476  0.0903
69743W        W 7237   0.058  13.171  15.416  0.2976  0.1336 -0.1270
69744W        W 7238   7.254   1.791   0.553 -0.5393 -0.2353  0.0995
69745W        W 7239   4.157   3.741  24.416 -0.3054  0.0363 -0.2243
69746W        W 7240  12.269  15.888   0.048  0.1301 -0.2849  0.1110
69747W        W 7241  25.459  32.892  19.340 -0.0213  0.2093 -0.1767
69748W        W 7242  29.226   8.929  21.302  0.0905  0.0031 -0.0009
69749W        W 7243  15.973  27.276  25.179 -0.0071 -0.0054  0.0003
69750W        W 7244  19.999  29.558  17.106  0.3347  0.0439  0.0734
69751W        W 7245  24.425   8.015  19.723  0.1950 -0.0420  0.1200
69752W        W 7246  33.662   3.599   6.998  0.1204  0.0292 -0.2710
69753W        W 7247   1.125   5.125   7.374 -0.2307  0.1750 -0.0427
69754W        W 7248   1.457  34.970   3.210 -0.0724 -0.1574  0.0853
69755W        W 7249  25.543   8.070  23.606  0.1117 -0.0320  0.1378
69756W        W 7250  29.549   0.091  18.093 -0.0984 -0.1707 -0.3017
69757W        W 7251   4.978  28.542   5.853 -0.1470 -0.1152  0.1236
69758W        W 7252  11.078  18.692  11.000  0.4824  0.0182 -0.0567
69759W        W 7253  29.485  32.029  11.922  0.3220  0.0938  0.1022
69760W        W 7254  25.119   4.023  23.461 -0.0314 -0.1289  0.0262
69761W        W 7255  12.581  15.584  23.185  0.1255  0.0143  0.1038
69762W        W 7256  14.878  26.820  21.939 -0.1871 -0.2141 -0.0203
69763W        W 7257   2.294  15.283  16.856 -0.2436  0.1997 -0.1289
69764W        W 7258  11.274  20.393   2.685 -0.0083  0.0519 -0.0657
69765W        W 7259  19.157  22.039   3.995  0.0267 -0.2628  0.0934
69766W        W 7260  14.266  14.240   8.703 -0.4704  0.0015 -0.0799
69767W        W 7261  11.938  13.177  11.684  0.1531  0.0821  0.2264
69768W        W 7262  22.385  31.256  19.925  0.2404  0.3073 -0.1537
69769W        W 7263   7.160  12.731  22.092  0.0262  0.1336 -0.0055
69770W        W 7264  13.495   5.357  24.378 -0.0126  0.0734 -0.0515
69771W        W 7265  17.293   5.685   3.378  0.0490 -0.0917 -0.1326
69772W        W 7266   8.963   9.964   2.224  0.1023 -0.0819  0.1446
69773W        W 7267   2.717  33.370   3.081 -0.2002  0.2602  0.6872
69774W        W 7268  19.743  10.214   9.078  0.0904 -0.2867 -0.1686
69775W        W 7269  33.750   4.592   2.319 -0.1401  0.0617 -0.3087
69776W        W 7270  28.681   0.598  22.297 -0.0334 -0.2518  0.1822
69777W        W 7271  23.602   4.645  17.899  0.1595  0.1043  0.2719
69778W        W 7272   3.262  25.960   0.775 -0.1968 -0.0565 -0.0168
69779W        W 7273  26.255   8.828  21.405  0.1260 -0.1113  0.0518
69780W        W 7274   6.388  14.243   3.884  0.1477 -0.1267  0.2051
69781W        W 7275  35.255  17.363   1.075  0.1451  0.0919 -0.2803
69782W        W 7276  33.246   0.600  22.505  0.3277  0.1321  0.1010
69783W        W 7277   1.108  12.575   2.823 -0.1122  0.1454  0.0442
69784W        W 7278  24.727  12.958   0.625  0.1649 -0.0034 -0.0411
69785W        W 7279  23.108  23.709  24.828  0.2055  0.1023 -0.0753
69786W        W 7280  31.465  33.206  25.552  0.2018 -0.0359 -0.1661
69787W        W 7281   1.200  25.717  15.931  0.0462 -0.0204  0.2053
69788W        W 7282  29.972  33.350  13.168 -0.2008  0.2246 -0.0151
69789W        W 7283  26.420  15.927   6.783 -0.0812  0.0407  0.0162
69790W        W 7284  12.530   4.051   3.606 -0.2401 -0.3847 -0.2348
69791W        W 7285  23.459  28.852  11.834 -0.2280  0.1041 -0.2549
69792W        W 7286  31.679  19.348   9.091  0.1192  0.2398 -0.1516
69793W        W 7287  11.110  12.666  20.235 -0.4577  0.2586  0.1605
69794W        W 7288  30.328  19.550  20.180 -0.1795  0.2424 -0.2673
69795W        W 7289  32.698  21.206  21.830  0.1684  0.0609  0.3031
69796W        W 7290   3.137  19.749  15.332 -0.0241  0.2880  0.0337
69797W        W 7291  17.854   2.122   5.783 -0.2767  0.1308 -0.1485
69798W        W 7292   5.668  34.447  11.374 -0.0798 -0.1246 -0.0406
69799W        W 7293  24.639  35.024   0.412 -0.0086 -0.0160  0.0356
69800W        W 7294  24.702   8.537  12.280  0.1053  0.1398  0.3326
69801W        W 7295  26.016   9.999  21.119  0.1851  0.0301  0.0795
69802W        W 7296   3.800  28.387  19.199 -0.1679 -0.0550  0.4196
69803W        W 7297  23.163   3.222  23.282  0.3806 -0.0038  0.2188
69804W        W 7298  25.286   3.063  13.375 -0.2570  0.0359  0.0065
69805W        W 7299  20.290  31.335   5.613  0.0386 -0.0833 -0.0187
69806W        W 7300  25.509  32.847  22.000  0.2183 -0.2858 -0.0782
69807W        W 7301  24.572   6.452  20.526  0.2532 -0.0681 -0.1979
69808W        W 7302  18.394  14.651  21.540  0.1144  0.1224 -0.2005
69809W        W 7303  22.617  20.494  22.432 -0.3525  0.2931 -0.1124
69810W        W 7304  20.045  26.643   8.609  0.0954  0.1492  0.2772
69811W        W 7305  26.955  13.080  15.790  0.3418 -0.2873  0.1795
69812W        W 7306  14.732  28.155  11.085  0.0810  0.0302  0.0776
69813W        W 7307  17.570  15.008   0.720 -0.2163  0.0906 -0.0482
69814W        W 7308  16.178  14.864  10.316 -0.1277 -0.0856  0.1209
69815W        W 7309  26.892  20.621  25.723  0.0430  0.0006  0.3344
69816W        W 7310  12.507   3.536  10.166  0.1607 -0.0927  0.0139
69817W        W 7311  11.991  18.465  23.890  0.1219 -0.0744  0.1183
69818W        W 7312  22.512  29.321   4.797 -0.2704 -0.2139  0.0717
69819W        W 7313  15.900  18.796  20.900  0.1573 -0.0600  0.0612
69820W        W 7314  30.619  24.092  13.617  0.3121  0.0140  0.0943
69821W        W 7315  22.246  15.310   1.076 -0.0807  0.0935  0.1740
69822W        W 7316  32.122  12.616  23.949  0.4225 -0.2969  0.1945
69823W        W 7317  23.681  19.643  14.321 -0.1573  0.3121 -0.0869
69824W        W 7318  10.154  28.385  13.224 -0.0003 -0.0575 -0.2981
69825W        W 7319   6.282  11.565   6.579 -0.1008 -0.0546 -0.2830
69826W        W 7320  25.080   6.333  14.245  0.0455  0.1879  0.0604
69827W        W 7321  14.969   3.899  18.955 -0.0256 -0.2468 -0.0399
69828W        W 7322  23.241  18.415  15.477 -0.1435  0.0014 -0.1511
69829W        W 7323  24.491   3.234  22.459  0.2554  0.2462  0.1689
69830W        W 7324   0.269  34.578  17.646  0.1185  0.0365  0.0257
69831W        W 7325  21.726   0.886  25.496 -0.0231 -0.0844  0.0794
69832W        W 7326   4.905   3.869   6.052 -0.1882 -0.1874 -0.3425
69833W        W 7327  32.122  16.474  25.467 -0.2737 -0.1126 -0.0895
69834W        W 7328   8.515   3.943   4.316  0.0672 -0.0026 -0.1936
69835W        W 7329   5.601  27.642   2.446 -0.0887  0.0221 -0.1432
69836W        W 7330  18.245  28.107   9.928 -0.2014  0.2021  0.0267
69837W        W 7331  24.211  12.985  12.204 -0.1627  0.1179 -0.3156
69838W        W 7332  24.813  23.151  22.934 -0.2847 -0.1232  0.0985
69839W        W 7333  18.997   3.230  23.046 -0.1066 -0.0112  0.0218
69840W        W 7334  25.567  34.508  22.719 -0.0860 -0.0297  0.1778
69841W        W 7335  29.371  10.375  16.932  0.1291  0.1476  0.1891
69842W        W 7336  24.018  28.209   3.951 -0.0594 -0.0139 -0.4227
69843W        W 7337  33.206  19.343  20.136  0.2289 -0.0481 -0.0370
69844W        W 7338  28.562  19.886   7.805  0.0326 -0.1669  0.2521
69845W        W 7339  32.990   8.964  17.982 -0.0836 -0.1117  0.0219
69846W        W 7340  34.416   8.907  10.213  0.1301 -0.0341  0.3641
69847W        W 7341  21.326  32.562  24.701  0.0079  0.0506  0.0982
69848W        W 7342   6.578  13.538   2.656  0.1435 -0.0193  0.2584
69849W        W 7343  17.151   9.989   4.284  0.0368 -0.1816  0.0679
69850W        W 7344  31.170  27.015  23.253  0.0089  0.0317 -0.1474
69851W        W 7345  19.730  20.446   4.418  0.0354 -0.2016 -0.1092
69852W        W 7346  10.455   9.313  11.598  0.0097 -0.1262 -0.0172
69853W        W 7347  11.321   4.849   1.492  0.0651  0.4017  0.2217
69854W        W 7348   0.753  32.646  25.352  0.0131 -0.0679 -0.4164
69855W        W 7349  26.313   1.015  14.761 -0.0539 -0.0971  0.1913
69856W        W 7350   9.794  12.491  21.201 -0.0070  0.0941  0.1511
69857W        W 7351  26.065  21.843  14.248  0.0593  0.0063 -0.1491
69858W        W 7352  32.093  12.935  13.730 -0.0333 -0.1151 -0.1246
69859W        W 7353  20.544   2.138  14.369  0.0107 -0.1132  0.1231
69860W        W 7354  29.135   9.275   0.964 -0.0670 -0.2309 -0.3505
69861W        W 7355  11.933  23.545  15.048 -0.1225 -0.0442  0.0580
69862W        W 7356  30.201  19.659   7.886 -0.1731  0.0050  0.2785
69863W        W 7357  23.692  18.974  24.863 -0.1409 -0.1464 -0.1165
69864W        W 7358  24.903  14.514  26.051  0.1366 -0.4139  0.0277
69865W        W 7359  18.871  34.683   0.393 -0.0785 -0.0601 -0.1909
69866W        W 7360  14.335  30.181   5.405 -0.0282  0.0881  0.2350
69867W        W 7361  29.215  34.208   6.307  0.0982  0.1484  0.2219
69868W        W 7362  20.271  22.288  25.630  0.0941 -0.2264 -0.1822
69869W        W 7363  32.470  29.664   5.946 -0.0895  0.0191  0.1368
69870W        W 7364  35.353  13.187  10.873 -0.2848 -0.0978 -0.0920
69871W        W 7365  12.945  23.918  15.027  0.1764 -0.2136  0.0232
69872W        W 7366  30.942  20.784   7.078 -0.2870 -0.0545  0.3450
69873W        W 7367  28.664   9.620  16.071 -0.1143 -0.0420 -0.2958
69874W        W 7368   2.686  22.923   2.387  0.3536  0.0648 -0.3898
69875W        W 7369  13.800  15.879  10.630  0.3595 -0.1109  0.0401
69876W        W 7370  32.787  24.635  22.270 -0.0466 -0.3407 -0.0445
69877W        W 7371   9.719  27.644  12.265 -0.0167  0.0624 -0.2676
69878W        W 7372  28.714  29.444  12.389 -0.1526  0.2275 -0.2728
69879W        W 7373   2.587   9.805  18.935  0.2018  0.4408 -0.0977
69880W        W 7374  25.024  23.367   1.512 -0.0239  0.3212 -0.1049
69881W        W 7375   3.258  13.770   3.454  0.2019  0.0369 -0.1735
69882W        W 7376  18.970  28.304  22.223  0.0623 -0.4603  0.1232
69883W        W 7377  28.451  32.362   2.341  0.2175 -0.2288  0.1389
69884W        W 7378  23.881  22.538  22.261 -0.1931 -0.2649 -0.1839
69885W        W 7379  16.442  11.535  24.240 -0.1182 -0.0765 -0.1134
69886W        W 7380  33.415   1.825  19.899  0.0608 -0.1726  0.0388
69887W        W 7381   0.466  27.580  21.298 -0.2002 -0.4263 -0.3399
69888W        W 7382  12.096  24.388   1.402 -0.3081  0.0102  0.4099
69889W        W 7383   9.516  34.175   7.255  0.2160  0.3248  0.1993
69890W        W 7384  32.506  18.341   6.247 -0.0750  0.1336 -0.2014
69891W        W 7385   6.410   8.518   3.284  0.3642 -0.0231  0.1565
69892W        W 7386   7.724   3.317  22.989 -0.3038 -0.0597 -0.1495
69893W        W 7387  27.503   3.179  14.579 -0.1489 -0.0292  0.1236
69894W        W 7388  25.007  11.240  24.694  0.1913  0.1160  0.0313
69895W        W 7389  23.322  28.944  22.572 -0.0999 -0.2815  0.2839
69896W        W 7390  33.137  20.027   7.214  0.1471 -0.0902 -0.1138
69897W        W 7391  15.745   8.261  25.316  0.2750  0.0062 -0.0685
69898W        W 7392  18.238   6.187   1.981  0.1858 -0.0947  0.4708
69899W        W 7393   9.759   6.960  11.579  0.0418  0.0508  0.1145
69900W        W 7394  17.065  31.814   1.927 -0.2614 -0.2839 -0.1495
69901W        W 7395  16.895  10.143  23.860  0.0248  0.4555 -0.1776
69902W        W 7396   3.300   9.960  18.350  0.4622  0.0301 -0.0364
69903W        W 7397   9.488  33.571   6.837  0.3767  0.3133 -0.0578
69904W        W 7398  31.952  29.002  24.694  0.3451 -0.1145  0.2160
69905W        W 7399  17.395   2.970   6.869  0.1337  0.0080 -0.0589
69906W        W 7400  20.666  25.380   4.220 -0.1953 -0.0373  0.0699
69907W        W 7401  13.453  14.014   7.831  0.1220  0.3735  0.0123
69908W        W 7402  16.031   3.541   0.546 -0.1329 -0.0846  0.1469
69909W        W 7403  33.749  18.010  22.725 -0.0384 -0.2147 -0.1894
69910W        W 7404  21.507   7.702  18.425 -0.1818  0.0567 -0.3390
69911W        W 7405   8.700  10.148  23.351  0.1445  0.1733 -0.3077
69912W        W 7406   5.245  24.022  25.971  0.1357 -0.0616  0.0312
69913W        W 7407  32.240   2.620  18.378 -0.1717 -0.2570  0.0041
69914W        W 7408   4.183  15.815  20.375  0.1953 -0.1961 -0.1328
69915W        W 7409  30.977   6.615  18.679  0.1383  0.1245  0.2824
69916W        W 7410   2.024  23.130  21.309  0.1005  0.1597  0.0589
69917W        W 7411  31.384  30.823  17.222 -0.0020 -0.2615 -0.2165
69918W        W 7412  18.947   4.230  10.580  0.1181  0.3623  0.2045
69919W        W 7413   2.191  26.469  24.858 -0.1596  0.2055  0.3221
69920W        W 7414  14.341  23.567   2.223  0.3513 -0.0772 -0.1926
69921W        W 7415  10.917  27.210  23.896 -0.2618 -0.2936  0.1653
69922W        W 7416   1.264  24.528  20.798  0.1167  0.4214 -0.0371
69923W        W 7417  20.231   9.101   6.472 -0.0402  0.2070  0.0099
69924W        W 7418  24.024   9.088  24.454 -0.0960  0.0275 -0.1527
69925W        W 7419  12.922  10.614  26.085  0.2921  0.2505 -0.0994
69926W        W 7420  19.717  17.002  24.148  0.2050  0.1329  0.1188
69927W        W 7421  27.850  13.483   5.508 -0.1382 -0.0712  0.2941
69928W        W 7422   9.803  34.984   4.646  0.0544  0.4275  0.0021
69929W        W 7423  16.839  23.000   0.816 -0.0451  0.1121 -0.0108
69930W        W 7424  18.294  16.654  24.773 -0.0762  0.0016 -0.0166
69931W        W 7425  35.183  28.761  21.431 -0.0022 -0.0732  0.2279
69932W        W 7426  18.642  10.340   0.695 -0.0176  0.2673 -0.2952
69933W        W 7427  16.006  17.148  22.453  0.1826  0.0076 -0.0509
69934W        W 7428  25.094  22.475  17.909 -0.2649  0.0484 -0.1320
69935W        W 7429   8.004  10.690   6.137 -0.2247  0.1300 -0.0791
69936W        W 7430  29.652  35.067  14.971 -0.3038 -0.3169 -0.0084
69937W        W 7431  17.026   1.241  17.842 -0.0345 -0.1237  0.1129
69938W        W 7432  10.061  29.228  16.761 -0.1852  0.2234 -0.1007
69939W        W 7433  18.331  26.298   0.933  0.0417 -0.0977 -0.0734
69940W        W 7434  23.256   5.409   0.590  0.0751  0.1409  0.0660
69941W        W 7435   7.335   1.321  20.429 -0.2162 -0.1806  0.0532
69942W        W 7436  10.071  18.881  20.383  0.1046  0.2214  0.0511
69943W        W 7437   3.978  29.280   5.199  0.2356  0.2185  0.0665
69944W        W 7438   5.219  14.347  24.651 -0.0076  0.0938  0.2029
69945W        W 7439  30.514  17.060   5.553  0.1354  0.2021  0.3163
69946W        W 7440  20.380  30.356  21.914  0.0777 -0.0390  0.0671
69947W        W 7441   3.819  27.385  12.612  0.0883  0.1217  0.0634
69948W        W 7442  30.814  20.403  12.512  0.2005  0.1583 -0.3510
69949W        W 7443   0.898   0.663  19.446  0.1951  0.1874  0.0950
69950W        W 7444  27.722  34.184  25.555 -0.1220 -0.3937  0.1298
69951W        W 7445  18.251  10.836  10.432  0.0444 -0.2914 -0.6143
69952W        W 7446   2.703  33.443  19.457  0.1053 -0.0265 -0.3670
69953W        W 7447   3.173  27.609  24.822 -0.1371  0.1974 -0.1374
69954W        W 7448  25.482  29.629  23.200 -0.0487  0.0627 -0.0632
69955W        W 7449  18.050   6.653  11.598 -0.4550  0.0446  0.0524
69956W        W 7450  33.135  23.008  15.379  0.2091 -0.1945 -0.3286
69957W        W 7451   9.413  33.952   5.439 -0.2018 -0.2748 -0.2540
69958W        W 7452  26.651  32.700  12.234  0.0124  0.0477 -0.0581
69959W        W 7453  12.166  21.878  10.899  0.1663 -0.0126 -0.2484
69960W        W 7454  23.193  32.910  20.743  0.3464 -0.0153 -0.0721
69961W        W 7455  11.639  22.236   2.190  0.0410 -0.1110 -0.0778
69962W        W 7456   1.619   5.845   7.265 -0.1377 -0.1150 -0.1325
69963W        W 7457  17.747  34.072   2.942 -0.3585 -0.1015  0.0799
69964W        W 7458  22.641  32.408   5.582  0.0493 -0.0749  0.0793
69965W        W 7459  10.877  15.525   5.153  0.4752  0.0048 -0.0697
69966W        W 7460  21.627  31.191   3.956  0.0085 -0.0158  0.0526
69967W        W 7461  11.855  23.200  24.636 -0.1179 -0.1750 -0.0941
69968W        W 7462  33.622  30.978  22.684 -0.1218  0.0127  0.4024
69969W        W 7463  30.738  29.726   3.028 -0.2014 -0.2442  0.1118
69970W        W 7464  20.963  29.224  20.620  0.1195  0.2640  0.0233
69971W        W 7465   8.617  25.548   7.546  0.2685 -0.0683  0.1734
69972W        W 7466  26.732  31.558   4.266  0.3882  0.1145 -0.2041
69973W        W 7467  34.000   5.209   6.012  0.0033 -0.2716 -0.0913
69974W        W 7468  28.061  19.643   7.967 -0.3681 -0.0920 -0.0605
69975W        W 7469  31.221  17.525  24.854 -0.1571 -0.1111 -0.1426
69976W        W 7470  15.212   5.081  24.564 -0.1217 -0.2602  0.1192
69977W        W 7471  34.950   3.887   0.132 -0.1186  0.0415 -0.1949
69978W        W 7472   2.128  21.296   2.797 -0.2126 -0.4040 -0.0847
69979W        W 7473  20.503   9.086  25.832  0.1270  0.0218  0.1232
69980W        W 7474  22.053   5.242  19.591 -0.2496  0.2880 -0.1220
69981W        W 7475  33.444  29.073  13.900 -0.2643 -0.0469  0.0821
69982W        W 7476  30.178  14.549  13.454 -0.0488  0.2076 -0.2506
69983W        W 7477  34.830  31.477  24.865 -0.3940  0.0916 -0.3034
69984W        W 7478  14.755  13.051   6.403 -0.2489  0.0218 -0.2655
69985W        W 7479   5.120  19.358   4.489 -0.0466 -0.1422  0.2413
69986W        W 7480  12.758  23.548   3.394  0.1278  0.2519 -0.1803
69987W        W 7481   6.509   5.813   2.099  0.2132  0.0180  0.3981
69988W        W 7482  35.365   8.570  24.678 -0.5080  0.1671  0.1512
69989W        W 7483  22.113   0.949  13.147 -0.3197  0.0232 -0.1810
69990W        W 7484  28.714   5.720  17.417  0.0759 -0.0288 -0.0958
69991W        W 7485  32.482   0.056  15.866 -0.1306 -0.0237  0.1289
69992W        W 7486   4.725  24.222   7.332 -0.1120 -0.1617  0.0002
69993W        W 7487  21.368   5.627   5.827  0.1461  0.1764 -0.3838
69994W        W 7488  31.379  23.086  12.690  0.3844 -0.4210 -0.2549
69995W        W 7489  13.654  30.219   9.201 -0.0065  0.1700  0.1753
69996W        W 7490   7.524  14.996   0.165  0.0479  0.0279 -0.0813
69997W        W 7491  11.334  16.480  24.836  0.3204 -0.1028 -0.0092
69998W        W 7492  20.706  29.739  23.224 -0.2538 -0.0434 -0.0800
69999W        W 7493   0.119   5.101  16.940 -0.2735  0.3091 -0.1527
70000W        W 7494   2.425   1.836  24.692  0.0075 -0.0384  0.2945
70001W        W 7495  16.428  22.507  23.822  0.0639 -0.2346  0.3859
70002W        W 7496  29.255  33.727  18.963 -0.2537  0.2048 -0.1652
70003W        W 7497  33.659  10.588  13.693  0.0028  0.1151 -0.0787
70004W        W 7498  27.057  18.264   9.545 -0.2344  0.2423  0.1873
70005W        W 7499  14.331  27.949   5.286  0.2588 -0.1326  0.2349
70006W        W 7500  32.386  12.500   7.086 -0.2042 -0.2196  0.0243
70007W        W 7501  27.848   5.413  10.235  0.0747  0.0187 -0.1992
70008W        W 7502  31.679   3.836  16.921 -0.0903  0.3104 -0.2170
70009W        W 7503   1.901  17.469   1.764  0.1752  0.2255 -0.1254
70010W        W 7504  13.162   6.788   3.755 -0.3284 -0.1303 -0.0723
70011W        W 7505  14.539   7.970   3.624  0.3657 -0.0809  0.0814
70012W        W 7506  16.112   6.544   9.506  0.0973 -0.0148 -0.1326
70013W        W 7507  26.348  18.866   6.921  0.0219 -0.3479  0.0038
70014W        W 7508  23.583  34.491  22.384  0.0223  0.0377  0.0805
70015W        W 7509   9.641  33.856  24.501 -0.1446  0.0009  0.0638
70016W        W 7510  28.687  11.506  19.957  0.2932 -0.1628  0.0049
70017W        W 7511  24.721  17.506  18.371  0.1669 -0.0258  0.2105
70018W        W 7512  10.441   8.293   6.327  0.4049  0.2388 -0.6543
70019W        W 7513   0.903  34.260  24.888 -0.1075 -0.0914  0.1370
70020W        W 7514  18.913   2.051   0.573  0.0340  0.2284 -0.1751
70021W        W 7515  19.238   3.523   9.920  0.0287 -0.0987  0.0601
70022W        W 7516  21.122   6.944   1.320  0.2062 -0.1886 -0.2372
70023W        W 7517  16.296   8.593   5.830  0.2285  0.0749 -0.1419
70024W        W 7518  29.370   7.753  25.379  0.3742  0.0784 -0.1486
70025W        W 7519  31.110  22.857   0.010  0.0316  0.4281 -0.0072
70026W        W 7520   6.273  20.743  26.101 -0.0970  0.0299 -0.2052
70027W        W 7521  19.618   3.684  22.451 -0.1906  0.2165  0.1515
70028W        W 7522  12.458   7.781  25.932  0.0183  0.0591 -0.0667
70029W        W 7523  30.176  16.194   9.386 -0.0177 -0.0633  0.1365
70030W        W 7524  17.495   0.921  25.020 -0.2314  0.1775  0.0821
70031W        W 7525  28.184  18.357  12.130 -0.0337 -0.1974 -0.2345
70032W        W 7526  16.304  24.935   9.873  0.0505  0.2713  0.0056
70033W        W 7527  15.408  18.621   4.989  0.1513 -0.0017 -0.0014
70034W        W 7528  32.327  11.211  10.849 -0.0496 -0.0404 -0.0406
70035W        W 7529   6.377   0.254  10.744  0.4249 -0.0004 -0.1726
70036W        W 7530  18.196  24.237  26.005  0.3711  0.0509  0.1685
70037W        W 7531   4.661   1.659   5.074  0.1468 -0.0589  0.1685
70038W        W 7532   8.475  35.029  25.911 -0.1046  0.2712 -0.0551
70039W        W 7533  23.371  24.238   3.962 -0.2618 -0.1114 -0.0715
70040W        W 7534  13.875   3.267  11.397  0.1881  0.2234  0.0006
70041W        W 7535  32.240  25.992  16.046  0.3272  0.1551 -0.2319
70042W        W 7536  21.295   9.294   0.623 -0.1977  0.1239  0.0399
70043W        W 7537  14.036   8.860  10.669 -0.0320  0.0907 -0.0905
70044W        W 7538  15.518  21.114   4.128 -0.0670  0.3061 -0.1333
70045W        W 7539  19.875  20.890  10.060  0.0366 -0.4151 -0.0951
70046W        W 7540   3.700  13.555   3.544 -0.4172  0.0334  0.1502
70047W        W 7541  11.409   1.220   2.523  0.0516  0.0313  0.2455
70048W        W 7542  18.068  11.129  11.519 -0.0810 -0.0196 -0.0054
70049W        W 7543  16.118  14.646  13.085  0.2426 -0.1672  0.0170
70050W        W 7544  31.953  26.515  16.800 -0.1362 -0.2041  0.0953
70051W        W 7545  15.262  11.688  25.075 -0.0544  0.0207  0.0187
70052W        W 7546   9.235  13.293   9.151  0.4286  0.1577 -0.1486
70053W        W 7547  25.000  30.517  22.724  0.0478 -0.1537 -0.0592
70054W        W 7548  29.068  22.903  10.339 -0.3165  0.4575 -0.2455
70055W        W 7549  12.234   1.801  24.472 -0.0191  0.0562 -0.1825
70056W        W 7550   5.772   2.441   6.919  0.0399 -0.2261  0.1246
70057W        W 7551  12.102  14.070  19.085 -0.0392 -0.0102 -0.2963
70058W        W 7552   0.022   6.476  15.960  0.1065 -0.0821 -0.1160
70059W        W 7553  31.879   2.209  16.914  0.0936 -0.1489  0.1041
70060W        W 7554  33.897   7.255  12.254 -0.0024  0.2882  0.2234
70061W        W 7555  13.365   8.576   7.829  0.0615 -0.2885  0.0722
70062W        W 7556  13.079  15.469  23.708 -0.0789 -0.0032 -0.2153
70063W        W 7557  14.215  28.355   8.558 -0.0086  0.1828 -0.2341
70064W        W 7558   9.561  27.091  15.477  0.1086  0.1054 -0.1469
70065W        W 7559  14.089   5.622  12.053  0.3538 -0.3311 -0.1516
70066W        W 7560  27.119  32.991  22.089  0.0170  0.0966 -0.3135
70067W        W 7561  23.158  25.118  16.560  0.0851 -0.1177  0.1074
70068W        W 7562  17.506  17.742   9.168 -0.3151 -0.1632  0.1797
70069W        W 7563  32.582  16.162  18.853  0.0927 -0.1142  0.2454
70070W        W 7564  21.312  20.103  22.483 -0.0118 -0.0603 -0.1236
70071W        W 7565  13.212  11.415  19.105  0.3418  0.0867 -0.0259
70072W        W 7566  26.545  26.088  10.874  0.3833 -0.2056 -0.1065
70073W        W 7567  33.569  13.886  14.865  0.1435  0.0980  0.1900
70074W        W 7568   2.090   2.780   3.343 -0.1919  0.2494  0.1085
70075W        W 7569  20.748  28.573  22.401 -0.0726  0.3593 -0.0377
70076W        W 7570  23.674  27.414  16.540  0.1203  0.0551 -0.1180
70077W        W 7571  34.413  22.208  18.940 -0.1228 -0.0892  0.0256
70078W        W 7572  33.160   7.100  17.048  0.1084 -0.0623  0.0257
70079W        W 7573  34.963  24.761  21.350 -0.1843  0.1904  0.4050
70080W        W 7574  33.106  31.814  17.844  0.1136 -0.1381 -0.0939
70081W        W 7575  26.000   8.229   3.714 -0.1002 -0.0895 -0.2310
70082W        W 7576  15.486  25.113   8.775  0.1914  0.1149  0.0927
70083W        W 7577  11.883   8.296   9.518 -0.0077  0.0593  0.2450
70084W        W 7578  11.666  11.031  11.214 -0.1595 -0.2712  0.2397
70085W        W 7579   9.331  20.594   5.526  0.2540  0.0681  0.0381
70086W        W 7580  25.959  34.035   4.111  0.1236 -0.1605 -0.0492
70087W        W 7581  33.367  22.302  13.999  0.1217 -0.1752  0.1793
70088W        W 7582   3.935  16.441  18.787 -0.1424 -0.1145  0.1437
70089W        W 7583   2.452   8.361   1.390 -0.1494  0.0725  0.0782
70090W        W 7584   7.157  19.727   5.043 -0.1609  0.1725 -0.0990
70091W        W 7585  11.488   1.312  25.420 -0.0418 -0.1951 -0.1093
70092W        W 7586  24.063  17.525  23.844  0.1201 -0.1821  0.2165
70093W        W 7587  29.711  31.306  12.053  0.2891 -0.1145 -0.4047
70094W        W 7588  21.010   6.216   6.355  0.0177  0.0520  0.1251
70095W        W 7589  34.715   8.276  18.303  0.1372 -0.2290 -0.2933
70096W        W 7590  30.581  17.884  23.723  0.1599  0.1770  0.0217
70097W        W 7591  30.808  22.258  15.996 -0.1773  0.0744  0.1520
70098W        W 7592  18.228  34.709   1.897  0.2031 -0.0678  0.0229
70099W        W 7593  24.128   9.743  19.583  0.1036 -0.1647 -0.0678
70100W        W 7594  10.947  15.999  26.207 -0.1759  0.1896 -0.3538
70101W        W 7595   6.856  34.335  26.184  0.3134 -0.0692  0.0622
70102W        W 7596  28.697  27.970  20.506 -0.0718  0.3826  0.1547
70103W        W 7597  25.065  29.927  14.134 -0.2555  0.2832  0.0691
70104W        W 7598  29.119  19.861  15.189  0.2260 -0.2730 -0.1225
70105W        W 7599   8.119   5.012   3.315  0.1344 -0.1418  0.1981
70106W        W 7600  28.236   3.159   5.519 -0.1340  0.1272 -0.3563
70107W        W 7601  32.955  17.698   9.248 -0.4467 -0.1393  0.2023
70108W        W 7602   6.611  11.464  23.650 -0.4935  0.2542  0.3744
70109W        W 7603  18.285  14.963   6.149 -0.2382  0.1917  0.3415
70110W        W 7604   5.365  23.082   5.295  0.2337 -0.0232  0.0276
70111W        W 7605  13.042  15.576   2.057  0.1639  0.0260  0.0051
70112W        W 7606  18.651   5.842   4.438  0.1142 -0.0478 -0.0490
70113W        W 7607  15.937  13.238  20.790 -0.2624 -0.1073  0.2216
70114W        W 7608   4.625  35.310   3.757 -0.0138 -0.3244 -0.0692
70115W        W 7609  32.334   9.420  23.326  0.0353  0.1554  0.0603
70116W        W 7610   2.051   5.505   5.478 -0.1511 -0.2234 -0.0561
70117W        W 7611  26.676  23.539  25.459  0.1984 -0.1771  0.0608
70118W        W 7612  16.829  17.553  25.154 -0.1024 -0.0974 -0.6253
70119W        W 7613  17.126  30.968  25.113  0.0846 -0.2303  0.0034
70120W        W 7614  11.017  29.408  16.929  0.1711  0.1382 -0.2629
70121W        W 7615  21.530  22.136   2.174 -0.0217  0.0477 -0.2537
70122W        W 7616  19.514  18.926   5.428  0.0646  0.1232  0.1619
70123W        W 7617   8.616  15.916  23.239  0.3082  0.0316  0.0437
70124W        W 7618  10.868   0.251  26.161  0.3497 -0.0313  0.0887
70125W        W 7619  31.686  23.974  15.144  0.1150 -0.0836 -0.0161
70126W        W 7620  17.412   5.179  10.323  0.1674  0.2134 -0.1607
70127W        W 7621  15.299  34.224   4.538 -0.1324 -0.0166  0.1363
70128W        W 7622  14.998   7.713   8.674  0.2945 -0.2199 -0.0124
70129W        W 7623  11.277  22.230  14.863 -0.0524  0.0656  0.0355
70130W        W 7624  19.624   1.488   5.342 -0.3158  0.1980  0.1265
70131W        W 7625  12.000  16.912   7.142  0.2284  0.0626  0.2567
70132W        W 7626   3.589  22.653  24.814  0.1204 -0.0368 -0.1552
70133W        W 7627  13.192  12.285  11.385  0.1768 -0.0403 -0.0928
70134W        W 7628   7.066  28.959   5.472  0.0469  0.0984 -0.0856
70135W        W 7629   1.417  30.052   7.490  0.0142  0.4745  0.0152
70136W        W 7630  34.879  25.248  21.537  0.1493  0.1088 -0.1563
70137W        W 7631   1.849   2.456   2.195  0.1656  0.0787  0.3810
70138W        W 7632  16.388   0.172  24.745 -0.0565  0.0646  0.3050
70139W        W 7633  33.773  10.628  16.717 -0.1027 -0.1508  0.0031
70140W        W 7634  22.720  21.620   1.413 -0.4115 -0.3768  0.0347
70141W        W 7635   4.047  27.786   6.762 -0.0657 -0.0868  0.3178
70142W        W 7636   7.828   4.384  18.868 -0.1100 -0.0490 -0.1984
70143W        W 7637   5.366  11.822   6.185 -0.1962  0.2602  0.0424
70144W        W 7638   0.095   6.621  24.650  0.1242  0.0199  0.1545
70145W        W 7639  13.399  24.116  12.638  0.2687  0.2387 -0.0673
70146W        W 7640   2.765  34.251   8.016 -0.0244 -0.0286  0.2075
70147W        W 7641   4.263  26.423  22.901  0.0036 -0.1703  0.1440
70148W        W 7642  20.451  32.409   2.956 -0.1097 -0.2174  0.3483
70149W        W 7643  22.923  17.810  24.788 -0.2742  0.0216  0.0057
70150W        W 7644  10.445  25.116   5.437  0.0128  0.3120 -0.2726
70151W        W 7645  33.177  10.395  17.686 -0.4525  0.1691 -0.1641
70152W        W 7646  12.656  13.059  18.851  0.3379 -0.0227 -0.1762
70153W        W 7647  18.847  15.842   2.450 -0.0661 -0.3140  0.2155
70154W        W 7648   7.176  12.367  11.010  0.1821  0.2692  0.1402
70155W        W 7649  24.723  18.735   7.949  0.0817 -0.3090 -0.0858
70156W        W 7650  27.000  12.958   6.418 -0.0652 -0.0945  0.1868
70157W        W 7651   9.834  24.604   4.670  0.0467  0.0208  0.1230
70158W        W 7652   1.042  18.416   9.956  0.1120 -0.0623  0.1910
70159W        W 7653  10.429   7.008  21.530 -0.0841  0.1241  0.0472
70160W        W 7654   9.105  21.671  16.823 -0.1070  0.1048  0.2426
70161W        W 7655   8.491  33.976   2.789  0.1424 -0.2563 -0.2920
70162W        W 7656  27.644  14.547   9.092 -0.1674 -0.1328  0.0088
70163W        W 7657  27.391  30.413  22.440  0.2785  0.2680  0.2132
70164W        W 7658  23.531  32.744   1.047  0.1217 -0.0471 -0.1774
70165W        W 7659   9.052   3.849  13.912  0.2876 -0.0064  0.1191
70166W        W 7660  13.353  20.693  14.586  0.0157  0.0747  0.2201
70167W        W 7661  10.064  29.172  17.282 -0.0952  0.3354  0.2968
70168W        W 7662  31.350  17.856  22.894  0.1260  0.1871 -0.1611
70169W        W 7663  29.434  20.437   5.260 -0.0312  0.4845 -0.1348
70170W        W 7664   6.012  27.824   8.596  0.1017  0.0491 -0.2779
70171W        W 7665  29.725   9.508  18.180 -0.1601  0.2757 -0.1037
70172W        W 7666  14.760  16.551   7.744 -0.0521  0.1561  0.0582
70173W        W 7667  28.749  17.154  22.591  0.3715  0.1106 -0.2392
70174W        W 7668  25.117  32.126  24.396 -0.0402 -0.0800  0.0233
70175W        W 7669  19.961  13.939   6.301 -0.1511  0.3250  0.2175
70176W        W 7670   1.760   0.418  16.298  0.1504 -0.2734 -0.3583
70177W        W 7671  21.593   5.434  18.038 -0.1591  0.2988  0.2773
70178W        W 7672  20.968  34.892   8.212 -0.1986  0.0070  0.1234
70179W        W 7673  27.391  15.116  19.913 -0.0554  0.1031 -0.0330
70180W        W 7674   0.189   8.156  26.214  0.2510  0.1409  0.1112
70181W        W 7675  21.937  18.788  22.655 -0.0837 -0.0350 -0.0215
70182W        W 7676  13.760  18.352  22.279  0.0644  0.3103  0.1628
70183W        W 7677   2.536   7.258   2.304 -0.2649 -0.4050  0.2625
70184W        W 7678   5.263   0.011  22.723  0.0315  0.0083 -0.2622
70185W        W 7679  24.117   9.631   0.001  0.1526 -0.2990  0.0693
70186W        W 7680  25.479   7.896  16.363  0.0321  0.2215  0.0070
70187W        W 7681  23.489  19.261  25.275  0.0363  0.0874 -0.1958
70188W        W 7682   3.775  21.840  19.599 -0.1313  0.3361 -0.2790
70189W        W 7683   6.352  29.233  11.048 -0.2446  0.0241  0.1119
70190W        W 7684  15.520  29.276   0.227 -0.0810  0.1848 -0.0599
70191W        W 7685  31.921  30.612   4.498  0.0294  0.2341  0.1373
70192W        W 7686  16.608  14.642   6.535  0.0308 -0.0223 -0.0088
70193W        W 7687   6.323   8.177   2.789  0.1218 -0.0774 -0.1819
70194W        W 7688  32.352  16.087  18.339 -0.0108 -0.1232  0.0888
70195W        W 7689  31.846   8.207  14.229 -0.0059  0.2035 -0.0843
70196W        W 7690  21.941  29.297  22.616  0.0636  0.0665 -0.0150
70197W        W 7691  16.192  19.062  21.851  0.2177 -0.2474  0.3170
70198W        W 7692  16.072  14.026   1.590 -0.0052  0.1829  0.1692
70199W        W 7693   7.848  19.732  24.884 -0.1421 -0.0221 -0.1853
70200W        W 7694  11.858  14.864   9.959 -0.1502 -0.0633  0.1140
70201W        W 7695  15.340   7.962  19.404  0.1909  0.1385 -0.1312
70202W        W 7696  21.349   8.731  25.292 -0.2523 -0.0134 -0.2059
70203W        W 7697  32.931  11.925  20.766 -0.1437 -0.1334  0.1141
70204W        W 7698  17.566  21.259   6.319  0.0728 -0.1277 -0.0272
70205W        W 7699   8.620  26.388  10.141  0.1598 -0.1503 -0.1819
70206W        W 7700  17.330  13.084  18.745  0.4449  0.0433 -0.1182
70207W        W 7701  25.948  17.692  19.344  0.1136  0.0323 -0.1924
70208W        W 7702  22.731   7.375  20.617  0.0081  0.1785  0.1525
70209W        W 7703  30.379  14.703  18.386  0.1187 -0.1191  0.2168
70210W        W 7704  34.055  25.515  12.904  0.2504  0.1930 -0.1091
70211W        W 7705   4.498   1.163   8.951  0.0529 -0.1723 -0.0007
70212W        W 7706  25.550  32.414  19.139 -0.0764 -0.0476 -0.4364
70213W        W 7707   5.920  25.397  23.002  0.1091  0.2446 -0.4939
70214W        W 7708  32.703  12.928  21.966 -0.1272 -0.2992 -0.0187
70215W        W 7709  30.532  12.547  13.538 -0.0321  0.2464  0.0680
70216W        W 7710  26.942  27.440  25.519 -0.0889  0.2979  0.0558
70217W        W 7711  35.136   4.674  15.282 -0.0521 -0.0513 -0.0960
70218W        W 7712  30.563  14.597   6.558  0.1089 -0.0131  0.4024
70219W        W 7713  29.572   2.067  23.961 -0.1612  0.0009 -0.0864
70220W        W 7714   8.800  26.716  11.508 -0.0837  0.0439 -0.3534
70221W        W 7715  18.110  26.726   7.632  0.0128 -0.0346  0.1657
70222W        W 7716  34.408  24.127  17.365 -0.2341 -0.1508  0.1105
70223W        W 7717  14.681  12.124  10.315 -0.0229 -0.0060 -0.3067
70224W        W 7718  24.105  19.972   1.037 -0.2493  0.1833 -0.0449
70225W        W 7719  22.875  12.966  24.169 -0.2973 -0.0056 -0.1309
70226W        W 7720   4.716  14.976  17.516  0.1228  0.1594  0.1244
70227W        W 7721  14.113   7.144   7.096 -0.3194  0.1033  0.1733
70228W        W 7722  16.318   1.011   8.838 -0.0380 -0.0090  0.2557
70229W        W 7723  27.378  14.849  13.142  0.0256 -0.0340  0.1156
70230W        W 7724   8.092  31.241  11.563  0.0192 -0.0010 -0.1687
70231W        W 7725  34.302  10.340  22.968 -0.1620 -0.1503 -0.0076
70232W        W 7726  21.335  33.005   3.682 -0.1387  0.0470 -0.1810
70233W        W 7727  33.570  34.329  14.938  0.0007 -0.0330  0.1713
70234W        W 7728  31.600  28.298  23.207 -0.2659  0.1153 -0.1172
70235W        W 7729  18.920  28.616  22.713 -0.1456  0.5780 -0.2504
70236W        W 7730   4.927  12.982  26.164  0.3574 -0.1334  0.0362
70237W        W 7731  34.709   9.437  20.633 -0.2124 -0.1860 -0.0199
70238W        W 7732  10.380  26.685  16.893 -0.1087 -0.0225  0.0624
70239W        W 7733  12.853  19.189   6.886  0.1573 -0.0072  0.1732
70240W        W 7734  13.624   0.518   9.548 -0.3028  0.0296  0.1066
70241W        W 7735  14.450  16.029   4.569 -0.1721  0.3062  0.2514
70242W        W 7736  14.933  14.542   0.195 -0.0536  0.2617 -0.0970
70243W        W 7737  22.290  23.761   3.287  0.0251  0.2170  0.1099
70244W        W 7738  34.927  26.655   1.007 -0.2321 -0.1924  0.1229
70245W        W 7739  10.403   2.320   9.235  0.2007 -0.0153 -0.0219
70246W        W 7740  28.592   8.853  11.829 -0.3491  0.1603  0.0087
70247W        W 7741  15.470   6.013  12.644  0.0448 -0.0923 -0.0711
70248W        W 7742  29.283  26.849  16.437 -0.1630  0.0466  0.3129
70249W        W 7743   0.976  13.216  15.160  0.0389  0.0743 -0.2890
70250W        W 7744   9.991  19.435   9.740 -0.1600 -0.2754 -0.0321
70251W        W 7745  12.634  16.435  14.309 -0.1188  0.0578 -0.1193
70252W        W 7746  17.146   0.815  21.470 -0.1334 -0.3236 -0.4161
70253W        W 7747  12.171  13.824  25.926 -0.0036 -0.0356 -0.0909
70254W        W 7748  34.523  13.133  23.313  0.0930 -0.0466  0.2497
70255W        W 7749   0.887  26.002  21.620  0.0348  0.0109  0.0605
70256W        W 7750  34.669  34.589  21.425 -0.0372 -0.1350  0.1052
70257W        W 7751  12.515  33.194   5.734  0.2127  0.3460  0.1130
70258W        W 7752  31.060  32.344  20.962  0.0057  0.2982  0.0677
70259W        W 7753  23.679   9.835  20.772 -0.1209  0.0578  0.0821
70260W        W 7754  18.959   7.868  19.706 -0.1606  0.2311  0.0971
70261W        W 7755  12.050  21.752  14.659  0.2753 -0.0390  0.2936
70262W        W 7756  21.053  25.905  25.964  0.2218  0.2304 -0.2503
70263W        W 7757  16.122  35.179  19.082 -0.2700 -0.1536 -0.2078
70264W        W 7758  26.191   5.930   3.447  0.2036 -0.1665  0.0945
70265W        W 7759  26.233   8.600   9.623  0.0350  0.1195  0.1236
70266W        W 7760  35.311   1.548   2.269 -0.1585 -0.1625  0.1003
70267W        W 7761   0.912  26.251  22.802  0.1506 -0.4345 -0.0932
70268W        W 7762   0.794   8.860  19.566  0.0985 -0.3203  0.0313
70269W        W 7763  25.215  22.436  15.820 -0.1155  0.2172  0.4227
70270W        W 7764  22.695  10.212   5.691 -0.1106 -0.0325  0.2299
70271W        W 7765   6.647   8.906  25.534  0.2489  0.0399  0.1761
70272W        W 7766   7.744   4.823   5.984  0.0421 -0.1827  0.2374
70273W        W 7767  26.447  30.268   0.751  0.1845  0.0512 -0.0151
70274W        W 7768  28.620  34.746  19.741 -0.1185  0.0021 -0.0553
70275W        W 7769  25.365  12.573  21.743 -0.3156  0.0913  0.1080
70276W        W 7770  29.086  26.754  17.221 -0.1489  0.3051 -0.0151
70277W        W 7771  23.689  27.051  20.911  0.0872  0.1112  0.1385
70278W        W 7772  34.843  15.818  13.115 -0.1626 -0.0399 -0.1660
70279W        W 7773   5.580  13.050  16.171  0.0776 -0.1985  0.0308
70280W        W 7774   8.873  11.637  20.863  0.3317 -0.1366 -0.0582
70281W        W 7775  11.917  25.540  17.668 -0.2150 -0.0651  0.1883
70282W        W 7776  26.762  30.835  18.918  0.3136  0.1276  0.0806
70283W        W 7777  13.549  26.308   5.653 -0.0638  0.0691 -0.0543
70284W        W 7778   7.057  13.673  23.412 -0.3088  0.0024 -0.3096
70285W        W 7779   8.455   8.723   5.565 -0.0223  0.2065  0.1827
70286W        W 7780   0.254  14.226  23.449  0.1647 -0.0455  0.0071
70287W        W 7781   2.701  12.810  18.258  0.0617  0.0911 -0.0695
70288W        W 7782  19.635   3.060  19.940  0.0661  0.3089 -0.3553
70289W        W 7783  15.645  29.385   9.653 -0.0980 -0.3791  0.2500
70290W        W 7784  20.300  30.473  23.333  0.1073  0.1579 -0.0407
70291W        W 7785  34.834  35.374  22.633 -0.1242  0.1325 -0.0014
70292W        W 7786  33.734   7.606  10.623 -0.0040  0.1238  0.2113
70293W        W 7787   0.858   4.929  23.181 -0.4190 -0.2764  0.0303
70294W        W 7788  18.896  23.200  23.862  0.0335  0.0471 -0.0210
70295W        W 7789  21.682  19.063  17.786 -0.1164 -0.0847 -0.1627
70296W        W 7790   6.205  23.181  25.128 -0.3549 -0.1000  0.0285
70297W        W 7791  12.874  28.038   7.288  0.1379  0.3929 -0.0155
70298W        W 7792  29.222  23.277  16.469 -0.1522  0.1157  0.0594
70299W        W 7793  12.816   9.533   5.286 -0.1138 -0.0265 -0.0629
70300W        W 7794  27.662  12.708  14.326  0.0335  0.2290  0.3739
70301W        W 7795  23.167   0.545   5.048 -0.0726 -0.1683  0.1051
70302W        W 7796  10.612   9.746   2.447  0.1446  0.3562 -0.1731
70303W        W 7797  13.963  25.675  23.064 -0.0936 -0.2464 -0.2652
70304W        W 7798  19.136  20.140   3.664 -0.2481 -0.2245 -0.0202
70305W        W 7799  20.174  11.393  24.647  0.2246 -0.0097 -0.2089
70306W        W 7800   8.448  16.341  21.687  0.3227 -0.4527  0.1316
70307W        W 7801   9.653   4.866  11.077  0.0965 -0.0148  0.0015
70308W        W 7802  12.705  27.311  17.580 -0.0996 -0.0676 -0.0021
70309W        W 7803   8.681  21.662   6.830 -0.0577  0.1795 -0.0424
70310W        W 7804   4.661   1.185  11.502 -0.5957  0.0731  0.0523
70311W        W 7805  29.163  26.995   1.942  0.0769 -0.1001  0.0277
70312W        W 7806  31.667  23.492  22.695  0.0449  0.1890  0.2263
70313W        W 7807   0.052  20.006  22.746  0.0769 -0.3843  0.2989
70314W        W 7808  21.771  30.012   3.515 -0.2084 -0.2409 -0.0986
70315W        W 7809  15.159  22.858   5.829 -0.0923 -0.1351 -0.1888
70316W        W 7810  28.902  31.058  25.009  0.0890  0.2595 -0.1134
70317W        W 7811  30.281   9.309  17.663 -0.0907  0.1336 -0.1177
70318W        W 7812  14.759   8.283  13.566 -0.1076  0.0181  0.0730
70319W        W 7813  16.220  23.821  25.715  0.4254 -0.3907  0.2158
70320W        W 7814  27.291  34.811  20.963  0.3276  0.0190  0.0015
70321W        W 7815   5.670  17.852   1.795  0.0220 -0.2985 -0.0119
70322W        W 7816  19.256  26.801   2.852  0.0014  0.1445  0.1352
70323W        W 7817   7.703   7.395   8.340  0.3097 -0.1310  0.0355
70324W        W 7818  32.743  16.189  11.249 -0.3895 -0.0748  0.1390
70325W        W 7819  29.638  18.994   7.233  0.3482 -0.0808  0.1146
70326W        W 7820  22.404  33.552  17.979  0.1347  0.4067  0.0935
70327W        W 7821   7.006  10.360   6.408  0.0739  0.0599 -0.0325
70328W        W 7822  22.473  18.373  25.132  0.1428 -0.1062  0.2639
70329W        W 7823  12.596  29.182  22.800  0.1226  0.0993 -0.2402
70330W        W 7824   9.468   6.367   9.500 -0.2243 -0.2765  0.0435
70331W        W 7825   6.710  21.013  10.252  0.0804 -0.1146  0.2638
70332W        W 7826   9.756   4.605   1.646  0.0189 -0.0251  0.0888
70333W        W 7827   0.806  22.989  20.677 -0.0272 -0.1058 -0.1376
70334W        W 7828  30.836  19.354   9.229  0.0430 -0.1621  0.0602
70335W        W 7829  27.969  26.483  24.444  0.0122  0.2353 -0.1243
70336W        W 7830  33.255  19.155  17.780  0.1300  0.1426  0.0560
70337W        W 7831   9.706  13.835  22.544  0.2706 -0.3665  0.0065
70338W        W 7832  31.414  26.763  20.660 -0.0032 -0.1714 -0.1161
70339W        W 7833  22.464  17.005  22.563  0.3076  0.5019 -0.2808
70340W        W 7834   5.143  33.732  11.177  0.2559  0.0011  0.0669
70341W        W 7835  15.472  24.805   0.241  0.2619 -0.2319 -0.1645
70342W        W 7836  14.169   8.695  23.305 -0.1208 -0.0944 -0.1911
70343W        W 7837  32.140  23.176  22.736 -0.2630  0.0581  0.0296
70344W        W 7838  34.480   3.995   2.858  0.1830  0.0344  0.2136
70345W        W 7839  24.211  27.454  19.548  0.1205 -0.0945 -0.0468
70346W        W 7840  34.388  15.770  25.853 -0.1165 -0.1359 -0.1379
70347W        W 7841   1.332  31.897  19.352  0.2878  0.0232  0.0929
70348W        W 7842  24.770   1.004  22.433  0.1218 -0.2953  0.0463
70349W        W 7843   6.898  33.288  23.745 -0.2629  0.0415  0.1836
70350W        W 7844  30.362   3.136   5.752  0.3635 -0.5421  0.0003
70351W        W 7845  11.704  13.883  18.850  0.0024 -0.1822 -0.1153
70352W        W 7846  29.389  21.913   5.811  0.1141 -0.2076 -0.0083
70353W        W 7847   6.257  25.629  23.471 -0.1519 -0.0197  0.0780
70354W        W 7848  32.681   5.755  14.229 -0.2535 -0.0476 -0.4122
70355W        W 7849  25.575   6.278  15.053  0.1813 -0.1085 -0.1654
70356W        W 7850   2.711  17.354  23.101 -0.1930  0.0996  0.0453
70357W        W 7851  16.831   1.652   5.878 -0.0132  0.0227 -0.0485
70358W        W 7852   8.301  29.165  24.558 -0.0192  0.1099  0.0759
70359W        W 7853  14.698   9.365   8.604 -0.0568 -0.2478 -0.3026
70360W        W 7854  33.951  28.512  16.606  0.2052  0.2178 -0.0831
70361W        W 7855   7.279  20.844  10.266 -0.2019  0.2098 -0.1809
70362W        W 7856   0.337  13.676  25.385  0.1142 -0.3894  0.3079
70363W        W 7857  21.509  11.125  22.815  0.2556 -0.1685  0.1660
70364W        W 7858  22.188  26.211  18.000 -0.1783 -0.3606  0.2157
70365W        W 7859   6.021   0.261  23.134  0.1160 -0.2033 -0.1581
70366W        W 7860  21.247  29.448   5.352 -0.0361  0.2691  0.3989
70367W        W 7861  28.120  28.777  26.134 -0.0625  0.1371  0.0345
70368W        W 7862  12.281  20.450   8.712 -0.3250 -0.1434 -0.2127
70369W        W 7863  23.301  24.633   0.938  0.0366  0.2600 -0.0754
70370W        W 7864  22.124  19.311  17.909  0.2017 -0.1628 -0.2603
70371W        W 7865  34.896  11.084   0.881 -0.0489  0.1917  0.2387
70372W        W 7866  32.831  34.124  19.334 -0.0640 -0.2421 -0.1297
70373W        W 7867   1.327   9.946  21.555  0.0978  0.0117 -0.1466
70374W        W 7868  32.572  30.058  21.973  0.0559 -0.1835 -0.2062
70375W        W 7869  28.697  18.298  11.023 -0.0311 -0.1552  0.1606
70376W        W 7870  25.323   8.858  21.951 -0.2565 -0.0703  0.0630
70377W        W 7871  17.298  11.839  24.598 -0.3118 -0.0914 -0.0554
70378W        W 7872  29.362  34.519   5.295 -0.1532  0.0182  0.1808
70379W        W 7873  34.280  32.303   3.211  0.1057  0.0205 -0.0858
70380W        W 7874  13.267  31.111  20.638 -0.1279  0.0711 -0.1371
70381W        W 7875   0.054  27.837  15.727  0.2132 -0.1686  0.1180
70382W        W 7876   8.240  25.122   2.864  0.2658 -0.1262  0.1598
70383W        W 7877  29.488  27.522  12.431 -0.0610  0.1857 -0.0456
70384W        W 7878   1.494   6.594  25.585  0.0607 -0.0743  0.0113
70385W        W 7879  21.644  14.333  23.010  0.1450 -0.1481 -0.2307
70386W        W 7880   8.661  10.494   2.271  0.3449 -0.3300 -0.0647
70387W        W 7881  23.281   2.460  20.349  0.0520  0.1575  0.1458
70388W        W 7882  30.043   5.345   9.938 -0.2558  0.0929  0.1802
70389W        W 7883  16.064  35.049   9.039  0.0423  0.0245  0.0553
70390W        W 7884   4.978  28.410   3.143 -0.0941  0.1472 -0.0968
70391W        W 7885  22.171   3.829  19.652  0.1640 -0.3920  0.0801
70392W        W 7886  25.432  26.711  20.578  0.1295  0.0166 -0.1657
70393W        W 7887   6.736  21.740   1.213  0.3566  0.3069 -0.0457
70394W        W 7888  31.104  26.394  25.942 -0.4050  0.3090  0.2686
70395W        W 7889   8.850   4.611  13.359  0.0641  0.2630  0.0560
70396W        W 7890  17.457  24.943  13.237 -0.0467  0.1004  0.2011
70397W        W 7891  11.061  28.448  17.289  0.2163 -0.1013  0.1755
70398W        W 7892  33.635  32.117  15.495 -0.0902  0.1324  0.0509
70399W        W 7893  19.722  15.182  18.421  0.1372  0.0803  0.0281
70400W        W 7894  16.352  27.387   4.113  0.1333 -0.0446 -0.0634
70401W        W 7895  10.308  26.373   1.495 -0.1636 -0.3378 -0.1708
70402W        W 7896  30.971  29.256  25.880  0.0514  0.3495 -0.5153
70403W        W 7897   3.821  10.944  22.091  0.0796  0.2074  0.0465
70404W        W 7898  10.258  17.723   1.713  0.2878  0.1707  0.3497
70405W        W 7899  11.730  29.566  24.825 -0.0723 -0.1857  0.0621
70406W        W 7900  10.917   5.380  10.941  0.1262 -0.2608  0.0753
70407W        W 7901  35.090  25.917  23.726  0.0460 -0.1156  0.1395
70408W        W 7902  20.299   1.953  23.410 -0.2428 -0.0542 -0.5155
70409W        W 7903  14.882   8.921  12.659 -0.2403  0.0273  0.3607
70410W        W 7904  27.284  26.969  20.228 -0.2357  0.0899 -0.1087
70411W        W 7905  27.082   6.439  10.574  0.2361 -0.0523 -0.1238
70412W        W 7906  15.870  11.312  24.136 -0.0502 -0.0965  0.0189
70413W        W 7907   2.724  21.375  24.396  0.1798 -0.1879  0.2526
70414W        W 7908   1.254  30.506  25.593 -0.0118 -0.1503  0.0668
70415W        W 7909   3.887  19.219  15.681  0.0130  0.2115 -0.3214
70416W        W 7910  35.008  10.026   3.040 -0.2985  0.2521  0.4333
70417W        W 7911  31.579  31.493   2.283 -0.2418 -0.2041 -0.1031
70418W        W 7912  22.041  33.246   0.074 -0.3491  0.0506 -0.0533
70419W        W 7913   5.695  30.321   9.347  0.0881 -0.4550  0.0854
70420W        W 7914  21.509   5.508   1.891 -0.0342 -0.2960  0.0804
70421W        W 7915  30.955   7.907  18.097 -0.1876  0.2565  0.1896
70422W        W 7916  33.624  10.668  17.838  0.0843 -0.0975 -0.1357
70423W        W 7917  32.184   4.079   1.634 -0.0591 -0.1720  0.0546
70424W        W 7918  32.852  15.328  14.246 -0.1006  0.1733 -0.3031
70425W        W 7919  14.996   0.102   2.634  0.1292  0.0024  0.2135
70426W        W 7920  24.128  31.362   5.868 -0.0788  0.0941 -0.2057
70427W        W 7921  32.738  19.538   0.141  0.5381  0.0599 -0.1256
70428W        W 7922   5.238   0.515  11.283  0.2455 -0.1378  0.3611
70429W        W 7923   5.245  27.770   3.584  0.0549  0.0611 -0.2930
70430W        W 7924  20.416  27.009  23.860  0.3160 -0.1724 -0.0029
70431W        W 7925  35.367  12.593  16.207 -0.0739 -0.1379 -0.0556
70432W        W 7926   7.241  27.798   7.108  0.0005 -0.0392  0.0321
70433W        W 7927  10.520  21.551   4.559  0.1082  0.0820 -0.1191
70434W        W 7928  22.585  13.529  25.312 -0.1361  0.0058 -0.1087
70435W        W 7929  16.729  18.856   5.296 -0.0955 -0.3573 -0.1718
70436W        W 7930  24.141  11.348  21.740 -0.3280  0.2558 -0.0640
70437W        W 7931   9.523  10.131  13.931 -0.0298 -0.0945  0.0327
70438W        W 7932  24.704  13.650  11.754  0.4959  0.3561  0.0876
70439W        W 7933  16.112   3.384  22.686 -0.1234 -0.2943  0.2375
70440W        W 7934  10.039  30.632  12.554  0.2269 -0.1321 -0.0589
70441W        W 7935  24.268  33.611  26.138 -0.2837 -0.0554 -0.2208
70442W        W 7936  13.095  13.502   4.514  0.0515  0.0906  0.1748
70443W        W 7937  23.748  31.837  24.381  0.1042 -0.3871  0.1941
70444W        W 7938  20.927   0.121   2.314 -0.1827  0.3329 -0.0830
70445W        W 7939  14.015  19.786   3.702  0.1010  0.2159 -0.0137
70446W        W 7940  18.243  33.273   2.758 -0.0433 -0.0123  0.2656
70447W        W 7941   4.773  32.581   8.108 -0.1009 -0.1880 -0.0736
70448W        W 7942   5.596  20.879   7.591 -0.0912 -0.0221  0.1174
70449W        W 7943  14.826  23.661   1.942  0.1684  0.4525 -0.0325
70450W        W 7944  16.774  26.841   9.484  0.2099 -0.0616  0.1941
70451W        W 7945  31.211  30.469   4.877 -0.0352  0.1846 -0.0522
70452W        W 7946  24.298  32.757   3.521  0.0435 -0.0041 -0.3296
70453W        W 7947   4.809  14.595  19.192 -0.0330  0.2030 -0.2132
70454W        W 7948   5.253   5.727   4.864 -0.4293  0.1709  0.0355
70455W        W 7949  15.614  33.589  20.727  0.1818 -0.3625 -0.0501
70456W        W 7950   6.226  30.618   0.349 -0.1907  0.0468  0.1251
70457W        W 7951   5.629   6.340   3.418 -0.1101 -0.0871 -0.2836
70458W        W 7952   2.194  19.061  25.272 -0.0026 -0.0183 -0.2237
70459W        W 7953  10.033  28.613  17.484 -0.0859 -0.2132  0.3302
70460W        W 7954  28.468  16.937   7.443  0.1321 -0.1138 -0.1424
70461W        W 7955   0.580  21.260   1.440 -0.4414  0.4829  0.1211
70462W        W 7956  10.258  27.778   1.996  0.0434 -0.4310  0.1780
70463W        W 7957   4.758  33.354  10.011  0.1389 -0.0823 -0.4628
70464W        W 7958  27.228  33.421  19.279  0.3723 -0.0452 -0.3798
70465W        W 7959  23.272  32.205  21.053  0.1995 -0.0521  0.1339
70466W        W 7960  24.825  12.135  26.097 -0.0336 -0.0706 -0.0359
70467W        W 7961  27.871  15.576  21.516 -0.0417 -0.3249 -0.0726
70468W        W 7962   2.503  14.882  21.641 -0.2453 -0.0714  0.1713
70469W        W 7963  16.986  21.650  21.645 -0.0484  0.2632 -0.0397
70470W        W 7964   7.435   2.462   9.964  0.1524  0.1438 -0.0305
70471W        W 7965  21.904   4.568  24.600 -0.3122  0.2254 -0.0007
70472W        W 7966   4.076  18.810  19.459 -0.3591  0.2180 -0.0890
70473W        W 7967  32.912  31.773   0.879  0.0062  0.1044 -0.1030
70474W        W 7968   1.530   7.017   3.399 -0.0688 -0.0504 -0.0840
70475W        W 7969  24.058   7.075  18.272  0.0410  0.0769 -0.0174
70476W        W 7970   6.227   2.200  21.339 -0.2185 -0.0474 -0.0840
70477W        W 7971  13.813   0.156   5.210 -0.0334  0.1492  0.0876
70478W        W 7972  20.030  22.704   6.893  0.0661 -0.0099 -0.0805
70479W        W 7973  23.101  19.052   2.921  0.1378  0.1854  0.1483
70480W        W 7974  32.299   8.871  19.373 -0.1660  0.0982  0.0770
70481W        W 7975   2.552   0.206  24.651 -0.1123  0.3120  0.0537
70482W        W 7976  14.617  21.977  11.174 -0.0335 -0.2081  0.2091
70483W        W 7977  11.744  32.270  12.179  0.2131 -0.2739  0.0834
70484W        W 7978  10.813  12.539   7.456 -0.0106 -0.2248 -0.2513
70485W        W 7979  18.043  16.272  21.561  0.2814 -0.2250  0.1877
70486W        W 7980   3.058   3.514  20.049 -0.1455 -0.0035 -0.0858
70487W        W 7981  29.970   0.819   1.033  0.1688  0.0110 -0.1589
70488W        W 7982   8.731   4.235  12.963 -0.2636  0.2369  0.1742
70489W        W 7983  14.015  19.347  21.834  0.2724 -0.4504  0.1307
70490W        W 7984  19.202   0.976  20.849  0.0197  0.0955 -0.0674
70491W        W 7985  27.105  32.663  20.842  0.0315  0.2834 -0.0491
70492W        W 7986   1.199  27.642  21.513  0.3504  0.1311  0.0753
70493W        W 7987  20.456  30.110  26.161  0.3156  0.0395 -0.0486
70494W        W 7988  15.138  31.346  13.294  0.3710 -0.0007  0.1521
70495W        W 7989  19.771  34.301  20.272  0.1295  0.3221 -0.4674
70496W        W 7990   1.647  23.184   1.664  0.2809 -0.3432  0.2535
70497W        W 7991   5.524   5.082   1.234  0.1143  0.0312  0.1755
70498W        W 7992  32.148  13.851  17.810 -0.3808  0.2817  0.0652
70499W        W 7993  35.138  24.132   1.616 -0.0775  0.3550  0.2102
70500W        W 7994  26.959   4.909  15.865 -0.3403  0.0873 -0.4394
70501W        W 7995  19.125  23.514  20.882 -0.2090 -0.0414 -0.1973
70502W        W 7996   0.567   3.670   1.127  0.2161 -0.3646  0.2827
70503W        W 7997  30.901  30.958  21.146  0.0582 -0.2083 -0.2010
70504W        W 7998   5.808  16.567  22.355 -0.1562 -0.3507  0.2127
70505W        W 7999  20.516  31.331  21.242  0.3030 -0.1209  0.2109
70506W        W 8000  20.231  32.979  23.149 -0.2319 -0.0341  0.2637
70507W        W 8001  11.876  22.671   0.720 -0.0440 -0.0305 -0.0994
70508W        W 8002  20.210  32.200  22.030 -0.0983 -0.0852  0.0825
70509W        W 8003   9.661   1.496  22.586  0.0149  0.0537  0.0873
70510W        W 8004   4.397  12.104  15.932 -0.1077  0.0174 -0.3176
70511W        W 8005  20.983   7.747   5.196 -0.3486  0.0301 -0.2276
70512W        W 8006   4.597   2.849   5.930 -0.0493 -0.1020 -0.1313
70513W        W 8007  11.157  12.465   5.826 -0.2016 -0.0751 -0.0703
70514W        W 8008  13.600   0.965   4.670  0.0797  0.0839 -0.1593
70515W        W 8009  14.336  35.038  25.478  0.1714  0.2398  0.0239
70516W        W 8010   3.363  33.134  11.084  0.1910  0.1487 -0.2975
70517W        W 8011   4.855  27.647  11.120 -0.1203 -0.1561  0.0896
70518W        W 8012   4.782   3.772   3.233 -0.1710  0.2095 -0.1957
70519W        W 8013  32.285  18.695  18.086 -0.2090  0.1371  0.0331
70520W        W 8014  30.784  28.060  22.294  0.2804 -0.0452  0.0119
70521W        W 8015  21.389   3.595  18.399 -0.3663  0.1905 -0.0711
70522W        W 8016  28.243  26.886  24.050 -0.3671  0.1061 -0.1315
70523W        W 8017   9.172  13.144  12.029 -0.2734  0.3578  0.0767
70524W        W 8018   7.268  26.137  24.006  0.2955  0.0541  0.2856
70525W        W 8019  27.396   8.410  21.465  0.0765  0.1498 -0.0535
70526W        W 8020  14.149   3.678   1.070 -0.0660 -0.0094 -0.0287
70527W        W 8021  34.131   7.171  25.322  0.1486 -0.1351  0.0260
70528W        W 8022  24.196  24.270   0.153 -0.1315 -0.2506 -0.1741
70529W        W 8023   4.235   8.147  21.194  0.1017  0.0501 -0.3337
70530W        W 8024   7.103  13.184  11.718  0.0384 -0.5236  0.0831
70531W        W 8025  34.291   0.393  16.195 -0.0680  0.4412  0.2828
70532W        W 8026   0.763  21.629  25.640  0.0442 -0.2711 -0.0432
70533W        W 8027  23.013  23.395  18.114 -0.1173  0.1856 -0.1253
70534W        W 8028  32.041   9.210  12.096 -0.0426 -0.1152 -0.2367
70535W        W 8029   8.539  16.932  22.298  0.1410 -0.1207 -0.0857
70536W        W 8030   9.936   9.872   4.442 -0.0360 -0.3007 -0.0635
70537W        W 8031  12.339  32.603  11.507 -0.4335  0.0758  0.1712
70538W        W 8032  21.835  13.532   1.577  0.0951 -0.2620  0.1929
70539W        W 8033  14.068  29.046  14.885 -0.0032 -0.0851 -0.0849
70540W        W 8034  19.361  29.021  22.505  0.2202 -0.1746 -0.0690
70541W        W 8035  18.875  10.454   1.996  0.1294 -0.1148 -0.1916
70542W        W 8036  24.155   9.096   0.755  0.0136  0.0565  0.0824
70543W        W 8037   3.195  25.159  20.913  0.0564  0.1112 -0.3204
70544W        W 8038  17.113  28.615   5.038  0.1746  0.3714  0.0142
70545W        W 8039  22.865  35.155   5.764 -0.2840 -0.0419 -0.0008
70546W        W 8040  12.255   9.166  23.856  0.2271 -0.2134  0.0531
70547W        W 8041   9.676  16.940  22.548 -0.2673 -0.2523 -0.1265
70548W        W 8042  33.501  32.580  14.560 -0.0261  0.2190 -0.0595
70549W        W 8043  19.477  16.497  25.797  0.1099 -0.3123  0.0941
70550W        W 8044  35.130   2.128  18.662  0.2869 -0.2723  0.0322
70551W        W 8045  21.460  32.126  21.107 -0.1664 -0.1531 -0.1118
70552W        W 8046   4.810  23.374   8.710 -0.0721  0.0308  0.0096
70553W        W 8047   8.977  11.241  25.374  0.2920 -0.2471  0.0044
70554W        W 8048   6.990   5.988  19.907  0.1347  0.1274  0.1876
70555W        W 8049  24.540   8.814  25.576 -0.1233  0.0148  0.0258
70556W        W 8050   9.031  30.952  25.726 -0.0641 -0.0085  0.2987
70557W        W 8051  29.376  14.194  21.678 -0.2547 -0.0485 -0.0923
70558W        W 8052  32.742  14.473  10.525  0.1559  0.2747  0.3112
70559W        W 8053   6.348  35.027  13.880 -0.0421  0.0403  0.0237
70560W        W 8054  16.521  12.839  23.658 -0.2636  0.0017  0.1858
70561W        W 8055  11.790   8.356  21.854  0.0567 -0.0209  0.0659
70562W        W 8056   2.382  11.628  25.382 -0.1086  0.0476  0.4087
70563W        W 8057  16.895  27.255   5.108 -0.0530  0.1892 -0.3286
70564W        W 8058   7.935  16.604  11.067  0.1087  0.0044  0.0343
70565W        W 8059   8.438  27.435   0.569 -0.2991 -0.0448  0.1532
70566W        W 8060   0.823  15.128  25.878  0.1294 -0.2333 -0.0677
70567W        W 8061  10.766  18.960   7.971 -0.0214  0.2642 -0.0270
70568W        W 8062   3.088   8.272   5.686  0.0279  0.1111  0.3650
70569W        W 8063   6.139  13.813  16.345  0.0708  0.3100  0.0221
70570W        W 8064  28.237  18.298  19.511  0.1591 -0.1878 -0.0954
70571W        W 8065  34.596   2.768  18.533  0.5593 -0.1688  0.1594
70572W        W 8066   6.516  12.192  25.265  0.1226 -0.1282 -0.4476
70573W        W 8067  25.083  15.090  23.695 -0.2143  0.0768 -0.2304
70574W        W 8068  33.520  15.867  20.187 -0.2346  0.0640  0.0035
70575W        W 8069  13.641  18.200   6.404  0.0256 -0.2270  0.1676
70576W        W 8070  26.617  12.635   0.004  0.1571  0.0467  0.1448
70577W        W 8071   8.139   0.286  13.687 -0.0491 -0.1482 -0.2152
70578W        W 8072  21.102   4.383  17.477 -0.1788 -0.0269  0.0940
70579W        W 8073  15.918  11.256   5.039  0.0917 -0.1388  0.0189
70580W        W 8074  34.217  27.888   0.092 -0.0939 -0.0483 -0.1053
70581W        W 8075  19.997  26.022   6.336 -0.4223 -0.3058 -0.3690
70582W        W 8076  27.644  22.650  14.510 -0.0792 -0.1618  0.4965
70583W        W 8077  24.959  26.165  23.300  0.4334  0.0214  0.1701
70584W        W 8078   6.513  33.782  11.980  0.0861  0.1191  0.1861
70585W        W 8079  22.747  32.688  15.165 -0.2556  0.2441  0.1480
70586W        W 8080  21.767   2.392  25.591  0.0777 -0.0918 -0.0260
70587W        W 8081   3.256  33.108   6.579  0.3577 -0.0541  0.2442
70588W        W 8082   7.651  21.985  13.742 -0.1438 -0.1984  0.0503
70589W        W 8083  23.885   7.137  14.419  0.0585 -0.4768 -0.0021
70590W        W 8084  27.659  15.044   5.479  0.1534  0.0282  0.0703
70591W        W 8085  33.448  31.786   4.964 -0.0668 -0.0252  0.1579
70592W        W 8086  17.085   4.152   7.587 -0.2545  0.2501  0.0081
70593W        W 8087   5.030  16.752   1.259  0.1660  0.0533  0.1107
70594W        W 8088   8.731  20.521   5.549  0.3565  0.0999 -0.2065
70595W        W 8089  15.950  26.198  22.533  0.2506  0.2220 -0.0290
70596W        W 8090  24.342  18.477  16.209  0.1668 -0.1039  0.0052
70597W        W 8091  27.274  32.724   4.619  0.0083  0.2114  0.0944
70598W        W 8092  28.087  35.203  21.309  0.0941  0.0331  0.1575
70599W        W 8093  34.565  11.664   1.719  0.1533  0.1494  0.1201
70600W        W 8094   3.137  22.457   4.130 -0.1455  0.1261  0.0190
70601W        W 8095   6.059  15.332   1.957 -0.0641 -0.1552  0.1334
70602W        W 8096  25.639  14.962  23.079 -0.3466  0.1730 -0.3095
70603W        W 8097  10.830  10.747  21.517  0.1691  0.1295  0.0681
70604W        W 8098  19.863  23.498  10.250  0.0044  0.1681  0.1201
70605W        W 8099  26.517  13.556  20.242  0.3732 -0.1341 -0.2960
70606W        W 8100  19.327  27.181  19.468  0.0163  0.1226  0.0534
70607W        W 8101  34.616  18.862  14.572 -0.0243  0.2149  0.1131
70608W        W 8102  31.991  33.776  20.090  0.0202 -0.0473 -0.1372
70609W        W 8103  23.508  27.196  23.463 -0.0508  0.2487  0.0344
70610W        W 8104  34.899  25.358  20.949  0.0043  0.1953  0.3702
70611W        W 8105  19.611  10.997   4.464  0.1968 -0.0190 -0.2783
70612W        W 8106  15.983  13.119   9.194  0.0239 -0.2911 -0.2650
70613W        W 8107  26.310  27.152  10.788  0.0309  0.3569 -0.2624
70614W        W 8108   1.233  25.688  23.894  0.0297  0.1679  0.0239
70615W        W 8109  32.524   1.098  18.002  0.3253 -0.4218 -0.0362
70616W        W 8110   3.384   8.599   1.347 -0.0255  0.1134  0.2201
70617W        W 8111  30.367  17.568  13.726  0.2383 -0.0075 -0.1863
70618W        W 8112  32.602   7.921  25.297  0.2379  0.0109 -0.0234
70619W        W 8113   2.823  19.932  24.888 -0.1129 -0.0987 -0.0706
70620W        W 8114  27.431   1.226   5.569  0.0133  0.1201 -0.2851
70621W        W 8115  22.443  25.943   4.112  0.3140 -0.0408  0.0742
70622W        W 8116   4.198  12.388   4.841 -0.1349  0.2766  0.2336
70623W        W 8117  28.528  14.680  12.038 -0.2122 -0.1321  0.0823
70624W        W 8118  22.870  28.891  14.184 -0.2877 -0.1121  0.1520
70625W        W 8119  33.097   0.386   2.545 -0.0341 -0.2069 -0.2198
70626W        W 8120   6.845  21.030  23.208 -0.0766  0.4886 -0.1183
70627W        W 8121  11.686  15.384   4.974  0.1184  0.2547  0.1774
70628W        W 8122  17.696  15.514  12.579  0.2435 -0.0997  0.0210
70629W        W 8123  11.035  23.525   3.541  0.0178  0.1224  0.0710
70630W        W 8124   8.523  33.152  10.044 -0.0772 -0.0455  0.2309
70631W        W 8125  28.417  34.328  24.897  0.1077 -0.1894 -0.3984
70632W        W 8126   7.522  31.613   4.359  0.1409  0.1446  0.1551
70633W        W 8127   3.037  10.396  22.913  0.1138  0.1297  0.0921
70634W        W 8128  35.030  32.118  24.172  0.1762 -0.2327 -0.2232
70635W        W 8129  16.849  23.028  12.579  0.1211 -0.0199  0.1171
70636W        W 8130  33.275   4.273   6.560  0.3005  0.2893  0.0631
70637W        W 8131   8.777  23.306   7.829 -0.4559 -0.1235  0.1760
70638W        W 8132  16.451   9.136  10.431 -0.0326 -0.2297 -0.2068
70639W        W 8133  16.001  28.502   3.506 -0.1083 -0.0772 -0.3157
70640W        W 8134  17.626   6.135  20.913 -0.2492  0.2142 -0.2807
70641W        W 8135  11.979  10.011  24.647  0.1959  0.3625 -0.2745
70642W        W 8136   8.205  17.965   3.278  0.0012  0.4815  0.4015
70643W        W 8137  12.047  15.075   4.709 -0.2271  0.2449 -0.1207
70644W        W 8138  27.095  22.580  19.468  0.2002  0.0212  0.1148
70645W        W 8139   6.781  18.461  20.747 -0.1374  0.0768 -0.1829
70646W        W 8140  15.513  16.643  13.318  0.1590  0.0219 -0.0985
70647W        W 8141   4.151   2.536  10.812  0.1500 -0.1490  0.2864
70648W        W 8142   2.831   1.789   9.468 -0.0571  0.0249  0.0008
70649W        W 8143  18.951   1.943  18.778 -0.1055 -0.0191 -0.0186
70650W        W 8144  24.661  26.429  13.486  0.2459  0.1274  0.3092
70651W        W 8145  34.088   1.835  25.660  0.1733 -0.0412  0.1557
70652W        W 8146  25.114  34.473   5.444  0.4420 -0.0631  0.1519
70653W        W 8147  18.543  16.871   7.789  0.2788 -0.1073 -0.1532
70654W        W 8148   6.264  20.825  21.190 -0.3611 -0.1902 -0.1701
70655W        W 8149  29.428   7.417  14.841 -0.0743 -0.1456  0.0554
70656W        W 8150  26.506  24.723  11.157  0.2403 -0.1995  0.3415
70657W        W 8151   0.782  22.881  24.840 -0.0157 -0.1832 -0.0273
70658W        W 8152  27.374  19.452  19.921  0.1676  0.1218 -0.1731
70659W        W 8153  12.995  34.068  20.861  0.0327 -0.0118 -0.0258
70660W        W 8154   0.922  21.565  18.631  0.3312  0.0609  0.4609
70661W        W 8155  27.334   3.606  16.486 -0.0947 -0.0683 -0.0477
70662W        W 8156  33.282  10.950   8.352  0.0585  0.3797  0.3106
70663W        W 8157  14.162   6.742   9.513  0.1129 -0.0508 -0.0745
70664W        W 8158  34.029  22.198  22.188  0.1112 -0.2706  0.3901
70665W        W 8159   6.245   7.604   5.749  0.0546  0.0303  0.0751
70666W        W 8160  22.542   4.007   1.070 -0.5036 -0.1896 -0.0326
70667W        W 8161  27.203  28.371  25.742 -0.0558 -0.0207  0.2865
70668W        W 8162  24.133  33.569  22.400  0.1346 -0.2050 -0.2069
70669W        W 8163   4.033  11.681  21.469  0.0432 -0.0348 -0.2024
70670W        W 8164  34.177  13.933  10.261 -0.2164 -0.0826 -0.0012
70671W        W 8165   3.923   7.040   3.561  0.3732 -0.1962 -0.0362
70672W        W 8166   3.614  26.853   9.422  0.1519  0.0739  0.0052
70673W        W 8167  10.840  16.150  14.001 -0.2352  0.1234 -0.1295
70674W        W 8168   6.489  27.492  10.619 -0.0695  0.1341 -0.0234
70675W        W 8169   0.969  31.607   6.940 -0.4237 -0.0301  0.1304
70676W        W 8170  12.376  13.230   0.848 -0.1991 -0.0425  0.0154
70677W        W 8171  17.219  20.741  13.252 -0.0166 -0.0107  0.1440
70678W        W 8172  12.719  14.115   1.167  0.0944 -0.1091 -0.0156
70679W        W 8173  13.910  31.551  13.955  0.2584 -0.1587 -0.0036
70680W        W 8174   6.326   0.530  11.352  0.1210 -0.0040 -0.0055
70681W        W 8175  21.005   8.252   6.004 -0.0181  0.0487 -0.0813
70682W        W 8176  21.891  10.054  17.341  0.2284 -0.1469  0.1344
70683W        W 8177  23.598   9.651  19.602 -0.0610  0.1139 -0.1701
70684W        W 8178   4.220  32.255  24.351 -0.0258 -0.0936  0.1543
70685W        W 8179  14.140   6.264  10.371  0.3545  0.0673  0.1378
70686W        W 8180   5.644   2.686  18.707 -0.1437  0.0292  0.0763
70687W        W 8181   6.246   5.375   1.695  0.1256  0.0932  0.3064
70688W        W 8182  21.870  20.939  22.194  0.1565  0.0785  0.0643
70689W        W 8183   4.103   8.883  20.321  0.0769  0.1399  0.0700
70690W        W 8184  31.400  34.605  24.846 -0.0414  0.0805  0.3518
70691W        W 8185  30.792   5.020  23.237  0.3629 -0.2946  0.0353
70692W        W 8186  26.485   1.562  22.894  0.0255 -0.0094 -0.2763
70693W        W 8187  10.239  27.905  21.140  0.1906  0.0537 -0.0743
70694W        W 8188   8.914  18.847   9.155 -0.2659 -0.0599  0.0944
70695W        W 8189   9.577  34.408  14.012 -0.0286  0.0200  0.0557
70696W        W 8190  27.722  22.580  19.096 -0.0450 -0.2677  0.2532
70697W        W 8191   8.551  31.767   4.905 -0.3053  0.0801 -0.0118
70698W        W 8192   8.208  34.325  23.054  0.1000  0.1355  0.0481
70699W        W 8193  17.113  26.750  21.185  0.0525  0.0209  0.0479
70700W        W 8194  25.976  18.246  13.557  0.0760  0.1903 -0.1262
70701W        W 8195  28.202  13.244  12.228 -0.2138 -0.0233  0.2188
70702W        W 8196   2.342  17.763  25.807 -0.4198 -0.1026  0.0837
70703W        W 8197  23.419   7.892   1.527 -0.0767  0.0596  0.1008
70704W        W 8198  35.368   2.644  13.692 -0.0951 -0.0216  0.0411
70705W        W 8199  11.851   4.556  11.069  0.1927 -0.2365  0.1846
70706W        W 8200  22.237  20.356   4.202 -0.2310  0.0741 -0.2805
70707W        W 8201  14.149  34.326  24.266  0.1969 -0.0505  0.0086
70708W        W 8202  26.957   2.615  18.363  0.1219 -0.2787  0.2747
70709W        W 8203  30.232  28.105  15.599  0.1758  0.2527 -0.3660
70710W        W 8204   3.964  17.785   2.613  0.0847 -0.0306 -0.0951
70711W        W 8205  31.378  17.396  10.667 -0.2042  0.1889 -0.6392
70712W        W 8206  29.983  29.885  21.869 -0.3154 -0.0288 -0.1422
70713W        W 8207  11.881   5.289  21.632 -0.1755 -0.1398  0.0950
70714W        W 8208  11.342  33.155  15.906  0.0735  0.0701 -0.1425
70715W        W 8209  24.890   5.634  12.978  0.2903 -0.0482 -0.4703
70716W        W 8210   7.211  13.578   1.209 -0.0760  0.1986  0.2581
70717W        W 8211  26.309  33.520  11.947  0.2272  0.0498 -0.0747
70718W        W 8212   8.865  31.747  21.014 -0.1316 -0.0829 -0.3888
70719W        W 8213   1.870   4.484  17.002  0.0598 -0.1246  0.1136
70720W        W 8214  34.362  33.857   5.821 -0.0407 -0.1011  0.0138
70721W        W 8215  23.457  24.068  17.487 -0.1550  0.0073  0.1003
70722W        W 8216  12.885  32.553  20.621  0.1650  0.3268  0.0172
70723W        W 8217  31.884  33.620  19.010 -0.3900 -0.1032  0.1509
70724W        W 8218  23.350  20.222  16.984  0.4129 -0.0920 -0.3431
70725W        W 8219  22.092   1.020  15.639 -0.0794  0.2695 -0.1329
70726W        W 8220   4.890  27.081   7.644 -0.1837  0.3283 -0.1316
70727W        W 8221   3.043  24.964   4.063  0.1141  0.0897  0.0302
70728W        W 8222   7.533  34.900   3.235  0.1070  0.1111 -0.2949
70729W        W 8223   4.300  10.319  24.382  0.2554 -0.2661  0.0192
70730W        W 8224   6.410  13.182   0.138 -0.2425  0.1246 -0.0998
70731W        W 8225  30.894  13.807  19.627  0.1203 -0.1718 -0.1268
70732W        W 8226   5.736   4.686  19.911 -0.0806  0.2385 -0.1136
70733W        W 8227  26.546   8.543  10.630 -0.0009  0.0054 -0.1383
70734W        W 8228  12.779   2.002   4.532 -0.0246 -0.0272 -0.0843
70735W        W 8229  33.099   0.286   7.209 -0.0301 -0.1592  0.2060
70736W        W 8230  34.138  32.668   5.231 -0.1017  0.1853  0.2365
70737W        W 8231  35.340  23.117  23.982  0.0734  0.1019 -0.0086
70738W        W 8232  28.191  34.978  18.016 -0.3312 -0.0239 -0.0579
70739W        W 8233  13.068  35.089  12.319  0.0242  0.1256 -0.0068
70740W        W 8234   4.662  17.764  25.738 -0.1163 -0.0579 -0.0164
70741W        W 8235  34.639  29.721   5.833  0.0559  0.0653  0.1290
70742W        W 8236  32.074  20.184  25.294 -0.2304 -0.2743 -0.0697
70743W        W 8237   4.522  35.203  12.101  0.2572  0.1909 -0.4687
70744W        W 8238  10.980  17.216   6.921 -0.1639  0.1459 -0.2214
70745W        W 8239  27.481   8.702  24.262 -0.0360  0.0051  0.1710
70746W        W 8240  16.925  18.323   0.035  0.1548  0.0903 -0.2371
70747W        W 8241  15.880  32.464   1.052  0.1455  0.0944  0.0747
70748W        W 8242  25.875  17.714  22.778  0.1191 -0.1385 -0.0565
70749W        W 8243   0.214  26.866  21.661  0.0704 -0.0531 -0.2563
70750W        W 8244  24.370  29.579  23.310 -0.0361  0.0908  0.0237
70751W        W 8245  28.132  18.862  21.230 -0.3263  0.2619  0.0378
70752W        W 8246   8.691  23.752   9.174  0.4724 -0.0624  0.3828
70753W        W 8247  21.788   1.743   1.172  0.0736 -0.2657  0.1869
70754W        W 8248   9.301   2.029  11.007  0.1087  0.0761 -0.1689
70755W        W 8249  13.310  10.491  19.588  0.0555  0.0470  0.0967
70756W        W 8250  29.093   9.562  11.168  0.0344  0.0454  0.0165
70757W        W 8251  12.277  22.622   6.314 -0.1732  0.1072 -0.0423
70758W        W 8252  23.106  20.334  23.807 -0.2514  0.3700  0.2985
70759W        W 8253   5.141  27.122   5.706 -0.1795 -0.3222 -0.1871
70760W        W 8254  27.969   8.336   1.832 -0.0004  0.1835  0.2883
70761W        W 8255  28.126  12.736  12.433  0.0824 -0.1679 -0.1169
70762W        W 8256  11.746  18.275  12.987 -0.1020  0.0997  0.1728
70763W        W 8257   1.027  18.598  14.154 -0.0164 -0.0362 -0.0547
70764W        W 8258  17.461  13.996  21.007 -0.2244  0.2141 -0.1710
70765W        W 8259  34.303  24.587  23.562 -0.1590  0.0486  0.0366
70766W        W 8260  17.606   9.878  24.372  0.0590  0.4857 -0.2455
70767W        W 8261   8.490  25.705   6.747 -0.0544 -0.0180  0.1084
70768W        W 8262  20.556   8.153   2.303 -0.0176  0.1675  0.1273
70769W        W 8263   3.317   3.525   0.202 -0.1129 -0.0864  0.0430
70770W        W 8264  30.857  22.444   9.069 -0.1903  0.2004 -0.1148
70771W        W 8265  31.341   1.207  24.393  0.1055 -0.1025  0.0181
70772W        W 8266  34.759  29.059  18.749 -0.0797 -0.0216 -0.2425
70773W        W 8267  34.439  22.849  17.540 -0.0736 -0.1353  0.0622
70774W        W 8268   7.269  15.492   9.048  0.3398 -0.0015 -0.0372
70775W        W 8269   5.385   5.996   1.907  0.0154 -0.2033 -0.1501
70776W        W 8270  30.826   3.598  16.586  0.3276 -0.2870 -0.2831
70777W        W 8271  33.856  14.243  19.555 -0.2748  0.2088  0.1802
70778W        W 8272   3.153  28.834  25.535  0.3540 -0.2986 -0.3270
70779W        W 8273  11.419   4.288   2.322 -0.1719 -0.0812  0.1330
70780W        W 8274  14.630  31.997  12.947 -0.1200  0.0381  0.1163
70781W        W 8275   9.355  32.653  22.081 -0.1693 -0.2027  0.2208
70782W        W 8276  15.858   0.886  10.390  0.1118  0.2060  0.0289
70783W        W 8277  28.765  17.899  15.932  0.1059 -0.3359  0.0909
70784W        W 8278  34.779  28.979  17.053 -0.2075  0.2375  0.0852
70785W        W 8279  16.002   2.753  19.467  0.0706  0.2358 -0.2442
70786W        W 8280  34.848  18.568  15.854  0.1118 -0.0812  0.2758
70787W        W 8281   3.198  34.565  23.218  0.0911  0.0545 -0.3401
70788W        W 8282  20.832  16.174  23.985 -0.2867  0.4912 -0.0272
70789W        W 8283  15.019  34.567   8.201 -0.1456  0.1050  0.1595
70790W        W 8284   3.545   1.707   8.963  0.2224 -0.0192  0.0061
70791W        W 8285  21.036   6.586   0.972 -0.0645 -0.1156 -0.0120
70792W        W 8286   7.926  22.557  22.529 -0.2505 -0.0245 -0.1098
70793W        W 8287  35.225   0.696   2.310 -0.0245 -0.3260 -0.0011
70794W        W 8288  16.756  15.109  13.450 -0.1092  0.2202 -0.1054
70795W        W 8289  33.878  13.943  16.117  0.0739 -0.0303  0.0635
70796W        W 8290   8.470   6.717   9.251  0.1760  0.1573 -0.1205
70797W        W 8291  35.056   2.364   3.226  0.0402  0.3819  0.0448
70798W        W 8292  21.986   8.127   3.599 -0.1564  0.2712 -0.0237
70799W        W 8293  17.473  33.261  21.976 -0.3178  0.0207  0.0863
70800W        W 8294  17.497  31.787  22.359  0.0474 -0.1249  0.0783
70801W        W 8295  28.665   7.820   8.041 -0.0171 -0.3271 -0.0752
70802W        W 8296  18.066   0.027  15.818  0.2777  0.0503 -0.2517
70803W        W 8297  26.904  34.518  12.532  0.1406  0.1035  0.0617
70804W        W 8298   7.189  26.757   8.084  0.0368 -0.2452 -0.0626
70805W        W 8299   8.649   4.534   8.628 -0.1902 -0.0600 -0.1823
70806W        W 8300   7.663   5.709  13.108  0.0688  0.0388  0.1932
70807W        W 8301   6.321   6.419  12.360  0.0727  0.0409  0.0218
70808W        W 8302  23.072  33.089  11.918 -0.0170  0.5035  0.2320
70809W        W 8303  32.282   6.274  26.138  0.0361  0.2315 -0.3864
70810W        W 8304  11.403  14.832  12.043  0.1181 -0.4213 -0.0827
70811W        W 8305   7.376  14.047  10.716  0.3398 -0.2701  0.2460
70812W        W 8306  16.343  26.739   3.854 -0.0235 -0.2043  0.1861
70813W        W 8307   8.244  23.622  26.004 -0.0838  0.0837  0.0579
70814W        W 8308  27.533  22.897  20.900  0.0321 -0.0132  0.3906
70815W        W 8309  16.155  33.790   9.109  0.1717 -0.1345  0.1488
70816W        W 8310   8.462  22.698  10.263  0.1984  0.0284  0.3210
70817W        W 8311   5.909  22.823   5.328 -0.0842  0.3392 -0.0612
70818W        W 8312  17.734   5.650   6.000  0.1922  0.0839  0.1463
70819W        W 8313   3.124  17.801  17.244 -0.2827 -0.0617 -0.0334
70820W        W 8314  16.929  22.283  22.952 -0.0039  0.1450 -0.3010
70821W        W 8315  28.641  27.499  12.959  0.0478  0.4151  0.0322
70822W        W 8316  22.342  27.002  24.746 -0.0584  0.1982  0.0573
70823W        W 8317  27.348  31.663  24.700  0.1136  0.3620  0.1043
70824W        W 8318   0.003  32.791   6.874  0.0245 -0.0615 -0.1386
70825W        W 8319  17.556  12.668  23.495  0.0725 -0.2444  0.2035
70826W        W 8320  33.738  29.859  23.244  0.2535 -0.2751 -0.0946
70827W        W 8321   9.888  23.541  13.734  0.2620 -0.2124 -0.2421
70828W        W 8322   2.798  34.312   4.741  0.0691  0.0640  0.2113
70829W        W 8323  17.870  32.744  21.819 -0.2070  0.1955 -0.2581
70830W        W 8324   3.194   1.819   1.906  0.1125  0.2387 -0.1904
70831W        W 8325  12.958  29.831  24.588  0.1773 -0.0581  0.2479
70832W        W 8326  27.253  19.963  19.062 -0.5071 -0.0834  0.0839
70833W        W 8327  23.248   0.856  16.209 -0.2266  0.0401 -0.2151
70834W        W 8328  30.893  33.933  14.432  0.1028 -0.1754 -0.3880
70835W        W 8329   2.044  18.257  19.149  0.1147 -0.0220 -0.2476
70836W        W 8330  25.898  23.968  10.829 -0.0034 -0.1264 -0.0405
70837W        W 8331  20.693   0.187  17.390 -0.1577 -0.3794 -0.0494
70838W        W 8332  13.787  15.612  23.605  0.0291 -0.1644  0.0970
70839W        W 8333  15.489  14.628   5.207 -0.1374  0.0912 -0.1254
70840W        W 8334  11.929  32.910  14.231 -0.0521  0.1224 -0.1309
70841W        W 8335  32.198   5.043  11.647  0.1258  0.1530  0.0775
70842W        W 8336  12.503   7.874  22.125 -0.0965  0.1563 -0.2504
70843W        W 8337  19.052  29.537   9.371  0.0444  0.1802  0.0688
70844W        W 8338  26.367  16.607  18.355  0.4470  0.2879 -0.0204
70845W        W 8339  13.478  25.048  17.578 -0.0331 -0.3359 -0.1240
70846W        W 8340   8.303  28.678   5.954  0.1538 -0.1064 -0.0203
70847W        W 8341  19.001  13.758   1.139 -0.1597  0.0329 -0.0182
70848W        W 8342  17.449  30.182  24.886  0.2701 -0.2306  0.1282
70849W        W 8343  20.841   1.669  16.546  0.0403 -0.0322 -0.0534
70850W        W 8344  14.304  11.798  25.006 -0.0986  0.0818  0.0573
70851W        W 8345   9.313  16.334   0.377  0.2567  0.0809 -0.0564
70852W        W 8346  22.623  31.516  14.109 -0.1374  0.1945  0.2045
70853W        W 8347   8.347  28.220   0.071 -0.0455 -0.4208  0.3098
70854W        W 8348  18.044   5.359  17.943 -0.0352  0.1233 -0.2186
70855W        W 8349  12.331  21.449  12.464 -0.2357 -0.1554 -0.2135
70856W        W 8350   2.373  17.250  21.990 -0.2538 -0.0350  0.1553
70857W        W 8351  21.290  32.317  19.746 -0.0453  0.1854 -0.2689
70858W        W 8352  33.407  16.435  22.945  0.0242  0.3035 -0.2933
70859W        W 8353   5.994  28.077  22.258 -0.0486  0.2160  0.0822
70860W        W 8354  26.036  22.538  15.982  0.0079 -0.1845  0.0669
70861W        W 8355  28.445  19.214  23.914  0.1012 -0.5295 -0.2876
70862W        W 8356  12.684  14.759   8.547  0.0921  0.0785 -0.0733
70863W        W 8357  11.558  17.089   5.225 -0.0689  0.1965 -0.0918
70864W        W 8358  32.864   7.909  16.512  0.0018 -0.2884  0.4562
70865W        W 8359  21.779  17.730  25.299 -0.4060  0.2258 -0.1469
70866W        W 8360  30.883   5.994  13.670  0.2803 -0.0306  0.3219
70867W        W 8361   0.694   6.101  25.115  0.3802  0.0958  0.2681
70868W        W 8362  25.206  15.554  12.656 -0.3245  0.0806  0.0652
70869W        W 8363  21.238  34.851  15.573 -0.1437  0.0403  0.2371
70870W        W 8364   9.683  15.343   7.740 -0.2632 -0.0373  0.0969
70871W        W 8365  10.653   1.515  11.493  0.0385 -0.1843  0.5715
70872W        W 8366  16.141   2.285   4.494 -0.0328  0.2930 -0.0364
70873W        W 8367  11.378  22.746   1.536 -0.1262  0.0567  0.0863
70874W        W 8368   4.091   2.340  25.945  0.1014  0.2694  0.2220
70875W        W 8369  21.618  28.104  18.944  0.0745 -0.2714 -0.1081
70876W        W 8370   1.645  21.897   0.107  0.3986  0.2194 -0.0643
70877W        W 8371  30.113  25.904  16.492  0.0125  0.0447  0.1411
70878W        W 8372   5.653   8.243  23.262 -0.0023 -0.3003  0.1886
70879W        W 8373  18.911   7.335  23.914  0.1464 -0.3147  0.1872
70880W        W 8374   7.114  10.565   6.945 -0.0027 -0.2069  0.2261
70881W        W 8375  17.899   3.537   1.338 -0.1552 -0.1567 -0.2793
70882W        W 8376   7.000  28.200   0.050  0.3365  0.0318  0.1919
70883W        W 8377  14.368  33.089  21.209  0.0412  0.1575 -0.0445
70884W        W 8378  26.260   1.706   0.047  0.2134  0.0313 -0.6064
70885W        W 8379  26.013  31.529  16.550 -0.2333 -0.0196 -0.2128
70886W        W 8380  21.513  19.463  17.427  0.0883 -0.0648 -0.4381
70887W        W 8381  10.873   3.027   9.326 -0.0336 -0.1130 -0.2790
70888W        W 8382  34.702  32.849   8.256  0.0233  0.0403 -0.0695
70889W        W 8383   0.369  17.576  12.096  0.1352 -0.0138 -0.0304
70890W        W 8384   1.604  10.364  15.215  0.0882  0.2612 -0.1083
70891W        W 8385  25.709  30.213  20.553 -0.1885  0.2834 -0.0956
70892W        W 8386  35.140  23.928  20.881  0.1018 -0.2276  0.2025
70893W        W 8387   9.195  25.578   7.564 -0.0068  0.1724  0.3271
70894W        W 8388  34.147  19.054  17.779  0.0969 -0.1484  0.3435
70895W        W 8389  27.843   8.506  19.105  0.2584 -0.0753  0.0785
70896W        W 8390   7.806  26.776   7.785 -0.1883 -0.1328  0.0597
70897W        W 8391  16.483  34.288  25.559 -0.3697 -0.0950 -0.1157
70898W        W 8392  34.842  21.077  10.713  0.0917 -0.1111 -0.0328
70899W        W 8393  34.372  34.475   6.679  0.0348  0.3188  0.0377
70900W        W 8394   5.604  34.758   8.478  0.1919 -0.1520  0.3154
70901W        W 8395  14.278  27.642  11.480  0.0816 -0.5163  0.0551
70902W        W 8396  10.472  13.097   4.165 -0.0532 -0.0647  0.1237
70903W        W 8397   7.409   3.105  10.516  0.1302 -0.2688  0.1696
70904W        W 8398  33.149  16.007   6.638  0.2517  0.3372 -0.2579
70905W        W 8399  11.489   4.798  24.946 -0.2242  0.0544 -0.0276
70906W        W 8400  23.308  31.729  24.153 -0.1879 -0.1623 -0.2613
70907W        W 8401  16.022   7.357  10.771 -0.0522  0.5109 -0.3220
70908W        W 8402   8.662  30.631   0.924 -0.0123  0.1544 -0.0910
70909W        W 8403  28.151  22.731  20.267  0.0434 -0.2833 -0.0629
70910W        W 8404  25.196   1.360   1.889 -0.0833 -0.2251 -0.2933
70911W        W 8405  30.357  18.205  12.224 -0.1907  0.1564 -0.2558
70912W        W 8406  29.004  20.360  14.200  0.1986  0.2857  0.0260
70913W        W 8407   5.284  14.427  19.244  0.0349  0.0905 -0.3996
70914W        W 8408  21.729   2.790  18.078  0.0628  0.0284  0.1471
70915W        W 8409  12.871  27.813  22.334 -0.1264 -0.2170 -0.0852
70916W        W 8410  25.419  12.123  15.919  0.1908  0.1116  0.0830
70917W        W 8411   4.272   0.291   3.789 -0.0565  0.1346 -0.0179
70918W        W 8412  34.335  15.631  15.754 -0.0058  0.0635 -0.2457
70919W        W 8413  14.444   1.685   1.826  0.0961  0.3696  0.3452
70920W        W 8414   8.098   3.579   1.388  0.1924  0.3032  0.0372
70921W        W 8415  12.269  22.800  15.487  0.0215  0.0039  0.3660
70922W        W 8416  31.532   7.224  11.249 -0.0959 -0.3392  0.1834
70923W        W 8417   4.644  17.885   1.818  0.1383 -0.1623  0.1622
70924W        W 8418  34.259   4.072   6.600  0.1601 -0.0033 -0.2516
70925W        W 8419   0.600   5.634  20.041 -0.3504  0.0168  0.0042
70926W        W 8420  30.717   3.420  13.938  0.0403  0.0488  0.0944
70927W        W 8421   7.818  15.868  23.919 -0.3764  0.4916  0.1163
70928W        W 8422  15.200  20.703  23.382  0.0151  0.0116 -0.0080
70929W        W 8423  18.877   9.791  21.832  0.1860 -0.3032 -0.0489
70930W        W 8424   5.277   0.506  23.713  0.2196 -0.0506 -0.3576
70931W        W 8425  21.122  33.023  15.585 -0.1302  0.2125  0.4173
70932W        W 8426  15.228  16.151   0.018  0.1176 -0.1999 -0.0122
70933W        W 8427  20.783   9.821   6.031 -0.0122 -0.0037 -0.0247
70934W        W 8428  28.847  19.283   7.359 -0.0314 -0.0105  0.1276
70935W        W 8429  18.059  14.969  25.769 -0.1513  0.0804  0.2115
70936W        W 8430  31.081  31.274  12.965  0.0686  0.0608  0.3712
70937W        W 8431  12.952  12.685  11.220  0.2225  0.4659 -0.4754
70938W        W 8432  19.004   7.369   8.358 -0.0602 -0.0640 -0.0848
70939W        W 8433  27.387  12.490  10.327  0.0990 -0.0949 -0.0557
70940W        W 8434   3.083  26.574  20.258  0.2548 -0.1904  0.0124
70941W        W 8435   4.067  26.199   3.526  0.2876  0.2409  0.1774
70942W        W 8436  22.225  33.856  13.072 -0.0527 -0.1547  0.0100
70943W        W 8437  18.611  13.377   4.954  0.2128 -0.1498 -0.1333
70944W        W 8438  15.594   7.860   4.638 -0.0555  0.4332  0.3663
70945W        W 8439  33.091   5.294   0.851 -0.0523 -0.0478 -0.1379
70946W        W 8440   7.039  29.358  15.362 -0.3539  0.0321 -0.2305
70947W        W 8441   1.852  34.780   4.762 -0.0545 -0.1693  0.1697
70948W        W 8442   7.739  27.089  25.281 -0.1535 -0.0089  0.1023
70949W        W 8443   4.993  31.479  13.366  0.1505  0.0153  0.1328
70950W        W 8444  14.691  18.524   1.031 -0.0216 -0.0757 -0.1212
70951W        W 8445  19.885   5.278   7.537 -0.0706  0.0092 -0.1677
70952W        W 8446  12.198  31.652  11.618  0.3526  0.0643 -0.1259
70953W        W 8447  16.954  32.779  26.203  0.0656 -0.1342 -0.3061
70954W        W 8448  13.200  35.025   2.724  0.1126  0.1361 -0.1130
70955W        W 8449  29.825   4.856  19.487 -0.1552  0.4873 -0.0331
70956W        W 8450   8.191  34.207   1.659  0.0022  0.1668 -0.0298
70957W        W 8451  19.663   4.647  21.046 -0.0559 -0.5472 -0.1392
70958W        W 8452  19.174  10.424   8.814  0.2009 -0.2750  0.4384
70959W        W 8453  34.421  12.771   1.553  0.1164  0.2847  0.1360
70960W        W 8454  14.622  11.207   0.976  0.0888 -0.1387  0.1306
70961W        W 8455   0.043   7.010   6.358 -0.1199 -0.2871 -0.1017
70962W        W 8456  31.956  33.156  22.782 -0.0634  0.1838  0.4281
70963W        W 8457  22.775  15.526   0.901  0.0083  0.0373 -0.2587
70964W        W 8458  28.567   0.117  24.761  0.1172 -0.0721  0.0426
70965W        W 8459   4.549  33.343   7.242  0.0166  0.3322 -0.1598
70966W        W 8460  26.766  17.899   5.667  0.1718 -0.0612 -0.4836
70967W        W 8461  15.357  24.052   9.598  0.0166  0.0622  0.0463
70968W        W 8462  17.438  11.259  13.693 -0.3843  0.1323  0.1393
70969W        W 8463  10.198  32.882  23.887 -0.0354  0.0811 -0.0082
70970W        W 8464  18.117  23.353  21.679  0.1252 -0.3768 -0.2251
70971W        W 8465  14.988  11.372   7.917 -0.1770 -0.1310 -0.1549
70972W        W 8466   9.689   9.207  23.026  0.0983  0.0831  0.2949
70973W        W 8467  18.571  28.020  21.882 -0.0813  0.0606  0.3671
70974W        W 8468  20.064  23.630  25.249 -0.2723  0.1197  0.1922
70975W        W 8469   0.865  27.086   2.607 -0.0361  0.2278 -0.2493
70976W        W 8470  21.549  26.741  16.966 -0.0793  0.2928  0.2687
70977W        W 8471  16.276   7.524   4.775  0.2585 -0.0488  0.1090
70978W        W 8472  32.819  10.353  21.852 -0.2800 -0.1306 -0.2520
70979W        W 8473  28.314  14.623  25.736  0.1499  0.3466  0.0463
70980W        W 8474  31.804  10.573  13.447 -0.2383  0.0638 -0.3087
70981W        W 8475   5.008   2.838  21.713 -0.0415 -0.0731 -0.0652
70982W        W 8476  12.054   8.519  19.408 -0.0125 -0.0507 -0.0194
70983W        W 8477   7.358  10.936   1.826  0.0545 -0.2371  0.2975
70984W        W 8478   9.843  16.192  20.792  0.1880 -0.0557 -0.1719
70985W        W 8479  13.958  20.635   3.702  0.2074  0.0138 -0.3811
70986W        W 8480  10.840   5.370   6.156  0.1285  0.2271  0.3074
70987W        W 8481   3.653   0.891  17.756 -0.0453  0.1269 -0.0760
70988W        W 8482  29.595  11.689  23.378  0.0487  0.1059  0.2810
70989W        W 8483  22.102  18.560  15.737 -0.0607  0.1170  0.3754
70990W        W 8484  23.308   8.886   1.566  0.1185 -0.0526 -0.0762
70991W        W 8485  10.846  29.556  10.722  0.1159 -0.0844  0.3755
70992W        W 8486  27.298   0.866   4.246 -0.0086  0.0987 -0.0733
70993W        W 8487  14.229   2.877  23.576 -0.1973 -0.0513  0.3597
70994W        W 8488  21.187  18.721  16.985  0.1219  0.0705 -0.2840
70995W        W 8489  11.543  26.457  16.803  0.0849 -0.1135 -0.1702
70996W        W 8490  31.493  14.572  23.830 -0.1757 -0.0359 -0.1311
70997W        W 8491  23.131   7.162  26.130  0.0991 -0.1696  0.0151
70998W        W 8492  10.061  19.238  24.599 -0.1517  0.0430  0.1881
70999W        W 8493   5.479  10.286  17.806 -0.4327  0.0234  0.2080
71000W        W 8494   0.559  18.872   8.449 -0.1366 -0.0223 -0.0507
71001W        W 8495  27.136  28.285  14.644 -0.0310  0.0738 -0.0179
71002W        W 8496  35.082   9.877  20.481  0.0906  0.0514 -0.3141
71003W        W 8497  31.441  21.507  16.211  0.4585  0.1918 -0.0496
71004W        W 8498  23.845  11.285  14.125  0.0308 -0.2041  0.2289
71005W        W 8499   7.393   7.719  22.861  0.2434  0.0833 -0.0711
71006W        W 8500  31.336  17.700  11.421  0.0265 -0.0973  0.1499
71007W        W 8501   0.780  21.952  17.730  0.1830 -0.0490  0.1550
71008W        W 8502  31.976  12.109  12.819 -0.0253 -0.3546 -0.1859
71009W        W 8503  21.864  18.889  23.569  0.0733 -0.3905  0.3605
71010W        W 8504  17.473   4.550   5.540 -0.1105  0.0893 -0.1245
71011W        W 8505  25.631  10.854  20.534  0.0581 -0.1063 -0.3163
71012W        W 8506  30.101   6.072  11.622  0.2320 -0.0795  0.1386
71013W        W 8507   6.474  15.717  23.253  0.0431 -0.1218  0.0843
71014W        W 8508  12.635  18.484  20.001 -0.2368  0.1924 -0.2244
71015W        W 8509   6.725  12.616  23.604  0.1861 -0.0979  0.0440
71016W        W 8510  27.354  26.447  14.779  0.0423 -0.2647 -0.0943
71017W        W 8511   9.976   5.706   6.023 -0.2295  0.0582 -0.0725
71018W        W 8512  12.373  18.038   4.113 -0.2579 -0.4771  0.1701
71019W        W 8513   9.226  12.817   7.686 -0.1282  0.0845 -0.1330
71020W        W 8514  12.717  12.581  22.019  0.0111  0.4749 -0.1209
71021W        W 8515   3.237   9.185  23.664 -0.1829 -0.0113  0.1081
71022W        W 8516  32.446  10.660  16.870  0.0277 -0.0564  0.0504
71023W        W 8517  29.846   8.166   1.563 -0.0846 -0.0204 -0.0530
71024W        W 8518  11.510   7.454  12.090  0.0374  0.2307  0.1395
71025W        W 8519  23.155   3.559  22.820  0.1402 -0.0838 -0.1753
71026W        W 8520  19.659  19.008  24.741  0.1541 -0.0382 -0.0232
71027W        W 8521  11.287  25.811  10.098 -0.0590 -0.0099 -0.1891
71028W        W 8522  24.871  30.227   1.100  0.4351 -0.0652 -0.1084
71029W        W 8523  29.713   6.028  22.757 -0.1565 -0.2197  0.1220
71030W        W 8524   3.343  14.170  15.741 -0.0403 -0.2279  0.0174
71031W        W 8525  26.629  16.066   8.851 -0.0858 -0.0998  0.1182
71032W        W 8526   4.267  23.951   0.148  0.1634 -0.0039  0.2543
71033W        W 8527  34.246  16.123  10.515 -0.0667  0.0770  0.0198
71034W        W 8528  33.857  34.995  13.977 -0.0446  0.1719 -0.0130
71035W        W 8529  16.364   1.712  23.062  0.0924 -0.0221 -0.0278
71036W        W 8530  26.214  28.722  19.111 -0.0346  0.0803 -0.0918
71037W        W 8531  18.464  10.911   4.904  0.1909 -0.2604  0.0853
71038W        W 8532   6.039   0.726  21.326 -0.1122 -0.0249  0.0870
71039W        W 8533   3.621   0.379  21.492  0.0092  0.3434  0.1398
71040W        W 8534  33.513  30.527   3.375  0.0955  0.2728 -0.0114
71041W        W 8535   7.170  25.739  16.294  0.1161 -0.1301 -0.0452
71042W        W 8536  27.051  31.878  22.933  0.0501 -0.0272 -0.1040
71043W        W 8537  29.726  18.801   6.006 -0.1628 -0.1130 -0.1880
71044W        W 8538  27.326  27.563   9.150  0.0326  0.1600  0.0732
71045W        W 8539   5.945  23.066   1.978  0.0944  0.1904 -0.1582
71046W        W 8540  32.569  19.540   6.140  0.1572 -0.0141  0.1976
71047W        W 8541  25.058  17.151  13.729 -0.1597 -0.0049 -0.0851
71048W        W 8542  18.624  33.974  17.918 -0.1884 -0.0691  0.0551
71049W        W 8543  32.625   2.590  15.673 -0.2353  0.0385  0.1831
71050W        W 8544   0.850  13.360  24.916 -0.0335 -0.1710 -0.2122
71051W        W 8545  22.234  20.064  17.076 -0.1215  0.2442 -0.1026
71052W        W 8546  24.328  12.278   0.554 -0.0125 -0.0319  0.0143
71053W        W 8547  31.327  15.808  24.455  0.1330  0.1566 -0.0966
71054W        W 8548  11.366   7.489  10.648 -0.0327  0.0745  0.0057
71055W        W 8549   5.682  10.852  19.574 -0.1044 -0.3500 -0.1287
71056W        W 8550  17.171   4.728  17.829  0.0962  0.1058  0.0624
71057W        W 8551  23.784   1.893  26.118  0.3197  0.1861  0.0953
71058W        W 8552   9.331  10.944  18.811 -0.2474  0.0634  0.1735
71059W        W 8553  12.206  24.568   7.644 -0.3089 -0.4296 -0.1510
71060W        W 8554  34.333  20.972   0.665 -0.2827  0.1049 -0.2896
71061W        W 8555   9.541  18.084  23.024  0.0911  0.3379  0.0585
71062W        W 8556  17.200  29.984   6.563 -0.0748 -0.1030 -0.0921
71063W        W 8557   4.002   1.134  10.148 -0.1334 -0.2284  0.1068
71064W        W 8558   7.401   4.846  23.153 -0.1656 -0.0605 -0.2425
71065W        W 8559  20.606  20.600  24.226 -0.2972 -0.1777  0.1280
71066W        W 8560  31.533  28.430  16.584 -0.1236 -0.1319 -0.1702
71067W        W 8561   0.770  17.322  19.008 -0.1927 -0.4538  0.2042
71068W        W 8562  14.788  16.745  10.840 -0.2023 -0.1439 -0.1518
71069W        W 8563  30.438  25.199  10.459  0.0109 -0.2931 -0.2417
71070W        W 8564  26.195  14.471   6.810  0.2797  0.4406 -0.1710
71071W        W 8565   7.505   4.226  22.421 -0.3513  0.3090  0.0183
71072W        W 8566  27.523  12.661   6.466 -0.0557 -0.0743  0.0356
71073W        W 8567  27.460  29.707  19.541  0.0689 -0.0608  0.0662
71074W        W 8568   0.058   1.403  18.151 -0.2215  0.2557 -0.0836
71075W        W 8569  21.429  31.321   7.363 -0.1834 -0.2619  0.0407
71076W        W 8570  19.505   2.718   2.771 -0.0698  0.1642 -0.2749
71077W        W 8571   0.661  13.217   1.149  0.0530 -0.1516 -0.0424
71078W        W 8572  10.288   9.914  21.605  0.2232  0.1351 -0.3939
71079W        W 8573  17.956   1.133   6.456 -0.0703 -0.2285  0.0427
71080W        W 8574  10.425  19.945   8.610 -0.0441 -0.0264 -0.1910
71081W        W 8575  31.027   0.415  19.282  0.1871  0.0620  0.0959
71082W        W 8576   3.339  15.843   3.515 -0.3468  0.0583 -0.0344
71083W        W 8577  33.053  11.788  25.375  0.1363  0.0143  0.4908
71084W        W 8578   1.676  16.063  13.413 -0.3938 -0.0470  0.1057
71085W        W 8579  32.447  31.066   0.186 -0.3421  0.3431 -0.1178
71086W        W 8580  28.659  30.407  21.375 -0.3451  0.1852  0.1134
71087W        W 8581  20.025  31.315  22.993 -0.1528  0.0658 -0.1840
71088W        W 8582   5.401  23.759   6.769 -0.2327  0.4457  0.2259
71089W        W 8583  29.170  31.258  16.903  0.2060  0.2240  0.0161
71090W        W 8584  24.726  23.882   0.754 -0.1984  0.2046 -0.0513
71091W        W 8585   0.173  29.570   1.465  0.1935 -0.3475 -0.0476
71092W        W 8586  27.170   4.314  10.797 -0.1158 -0.0495  0.0170
71093W        W 8587  21.443  16.688  22.169  0.0631 -0.0801 -0.1032
71094W        W 8588  13.035  23.634   6.920 -0.1809 -0.0807 -0.0227
71095W        W 8589  33.653   8.562  12.736 -0.0190  0.2343 -0.0332
71096W        W 8590  20.655  14.906  18.478  0.0974  0.0742  0.5123
71097W        W 8591  29.936  31.277  14.229  0.2059 -0.2153  0.1637
71098W        W 8592  30.809  19.253  24.385 -0.0008 -0.2219 -0.1650
71099W        W 8593  31.799  28.992  19.526 -0.1583  0.1927  0.1746
71100W        W 8594  20.491  10.937  24.839  0.0285 -0.2870  0.1423
71101W        W 8595  22.438   8.578  15.198  0.0269 -0.2176  0.1473
71102W        W 8596   6.295   1.673   4.716 -0.1020 -0.1741  0.0279
71103W        W 8597  34.759  29.385  19.193  0.0526 -0.0228  0.4616
71104W        W 8598  34.005  10.528  24.856  0.0533  0.1296  0.0974
71105W        W 8599   8.377  31.777  14.696 -0.2002 -0.0970  0.0413
71106W        W 8600   8.355  28.408  13.589 -0.2338  0.0338 -0.1596
71107W        W 8601  30.154  19.356  19.172 -0.0912 -0.2559 -0.0148
71108W        W 8602   7.939  19.433   9.396  0.0569  0.0305  0.2372
71109W        W 8603  27.332  18.886  10.267 -0.1799 -0.1147  0.2242
71110W        W 8604  15.180   2.178  20.448  0.3488  0.1524 -0.0421
71111W        W 8605  24.816   0.135  19.580  0.3275 -0.0049 -0.4314
71112W        W 8606   2.480  33.772   0.682  0.2847  0.0438  0.1294
71113W        W 8607  22.517  13.544  19.987 -0.0202  0.1347  0.2030
71114W        W 8608  32.137  11.866  14.930 -0.3465 -0.0621 -0.3683
71115W        W 8609  27.637  31.466   3.264 -0.3583  0.2413  0.5168
71116W        W 8610  13.394   0.353  25.111  0.1163  0.0337  0.4164
71117W        W 8611   6.635  15.897   6.260  0.3141  0.3452  0.0190
71118W        W 8612  12.470  32.225  13.970 -0.1742  0.0021 -0.0598
71119W        W 8613  16.512  20.677  13.754 -0.0069  0.1496  0.0750
71120W        W 8614   7.955  28.478   6.320  0.0972  0.1554 -0.1970
71121W        W 8615  28.424  25.852  16.252  0.1881  0.0022  0.0413
71122W        W 8616  29.923  22.147  23.451 -0.1286  0.0838  0.1158
71123W        W 8617  16.571  25.224   1.095  0.2124 -0.2673  0.2161
71124W        W 8618  15.766  11.777  23.071  0.1016 -0.2469  0.2376
71125W        W 8619   6.394   6.382  10.563  0.3691 -0.1181 -0.0490
71126W        W 8620   7.213  10.027   4.592 -0.3089 -0.0270 -0.0227
71127W        W 8621  33.830  32.450  19.630 -0.2624  0.2136 -0.0833
71128W        W 8622  28.808  18.523  24.419  0.1047  0.0096 -0.1460
71129W        W 8623  20.482  16.724   3.928  0.2043 -0.2231 -0.0612
71130W        W 8624  15.428  34.050   2.526 -0.0385 -0.0294  0.3322
71131W        W 8625  11.421  33.569  11.754  0.3353 -0.1818 -0.1222
71132W        W 8626  22.110  12.250   0.134 -0.4504  0.0896  0.1429
71133W        W 8627  29.263  35.089   0.374  0.0745  0.3373  0.2193
71134W        W 8628  34.409  12.857  21.957 -0.1176 -0.2289  0.1796
71135W        W 8629  16.000  26.017  24.824  0.0259  0.0321  0.0965
71136W        W 8630   9.030  23.235  13.178 -0.2437 -0.1705 -0.0818
71137W        W 8631  14.430  34.566   9.604 -0.0917  0.0877 -0.3315
71138W        W 8632   7.800  29.431  25.619  0.3151 -0.1553  0.1610
71139W        W 8633  20.553  30.174   6.048  0.0398  0.0288 -0.1048
71140W        W 8634  34.087  26.296   2.228 -0.0918  0.2736 -0.0128
71141W        W 8635  31.590  21.724  15.717  0.2099  0.1072 -0.1888
71142W        W 8636   8.474   6.104   0.199 -0.4896  0.0614 -0.3021
71143W        W 8637  19.962   8.592   1.217 -0.1657  0.0319 -0.0175
71144W        W 8638   6.047  27.791   0.270 -0.2543  0.0654 -0.0596
71145W        W 8639  27.138   2.906   4.777 -0.1153  0.3671  0.2763
71146W        W 8640  18.388  32.071   0.442  0.3228  0.2194  0.0808
71147W        W 8641  12.861   5.024  11.999 -0.2947  0.3129 -0.0546
71148W        W 8642  10.618  35.081  21.888  0.2177  0.1179  0.0137
71149W        W 8643   4.649  34.315  10.535 -0.0243 -0.1127  0.0955
71150W        W 8644  13.419  20.798  22.257 -0.2676  0.2043 -0.2602
71151W        W 8645  13.753  24.607   4.021 -0.0138  0.0869 -0.0871
71152W        W 8646   3.416  24.328  18.661  0.3713  0.1382  0.1912
71153W        W 8647   8.413   1.013   4.714 -0.0587 -0.1017 -0.1352
71154W        W 8648  14.418   2.875  20.466  0.1082 -0.4698  0.1395
71155W        W 8649  24.692  12.587  15.086 -0.0264  0.1137 -0.0103
71156W        W 8650  20.513   0.244  18.654  0.1724 -0.1280 -0.0784
71157W        W 8651  12.593  12.355   9.837 -0.0482 -0.1411  0.2190
71158W        W 8652  31.546  21.159   4.846  0.2977  0.2113 -0.2999
71159W        W 8653  31.429  24.996  14.527 -0.0673 -0.2210  0.2267
71160W        W 8654  13.055  14.668  22.684 -0.0157  0.4333  0.0185
71161W        W 8655  16.174   5.075  11.662 -0.0169 -0.4499 -0.0675
71162W        W 8656  17.046   9.846  24.358 -0.3342  0.0028  0.0434
71163W        W 8657   0.131  23.854  19.409 -0.1771  0.0938  0.0459
71164W        W 8658  18.866  12.044  24.807  0.1386 -0.0669 -0.0117
71165W        W 8659  12.711  33.561   5.355  0.1456 -0.2711 -0.0817
71166W        W 8660   4.831  10.292   0.695 -0.1917  0.0850  0.0143
71167W        W 8661   3.689  15.195  21.135  0.0770  0.1306  0.2684
71168W        W 8662  20.455  26.042  25.101  0.1461 -0.0100  0.1532
71169W        W 8663  11.198  32.579   2.418 -0.1478  0.2563  0.1177
71170W        W 8664  21.564  18.316   0.934 -0.4748  0.1491  0.3410
71171W        W 8665   7.412  23.842   7.841 -0.0387 -0.2611  0.0353
71172W        W 8666  25.332  29.982   4.087  0.0953 -0.0095 -0.1400
71173W        W 8667  24.103   9.534  20.670  0.0411 -0.1975  0.0784
71174W        W 8668  20.006  11.047  20.300 -0.0645 -0.0768 -0.1182
71175W        W 8669  16.757  14.402   3.843 -0.1471  0.1202 -0.0632
71176W        W 8670  13.692  27.030   1.734  0.0091  0.1243 -0.1266
71177W        W 8671  18.262   1.995   0.662 -0.1928 -0.0556  0.0898
71178W        W 8672  21.401  26.181  25.043  0.0551 -0.1772 -0.3595
71179W        W 8673   8.768  33.025  14.387 -0.1570 -0.1339 -0.3246
71180W        W 8674  14.594  31.012  11.716 -0.3141 -0.1493  0.1349
71181W        W 8675  31.916  25.819  19.835 -0.2211  0.0956  0.1129
71182W        W 8676   5.034  30.602   2.860  0.2552 -0.0295  0.2763
71183W        W 8677  22.712   0.756  21.554 -0.0197 -0.0444 -0.0637
71184W        W 8678   8.445  13.508  20.882 -0.0745 -0.1267  0.1519
71185W        W 8679  32.583   9.558  12.404  0.0288 -0.0956 -0.0771
71186W        W 8680  17.527   0.970   9.238 -0.0497 -0.2402 -0.2848
71187W        W 8681  28.984   3.760  11.510 -0.2366 -0.1117  0.0337
71188W        W 8682   5.223  31.805   0.454  0.0161 -0.0779 -0.1053
71189W        W 8683  20.422   0.690  21.061  0.1740 -0.0155  0.1280
71190W        W 8684  19.351  10.958  22.735  0.1532 -0.1441 -0.3041
71191W        W 8685   6.723  24.712  23.389  0.3422 -0.2463 -0.2062
71192W        W 8686  20.054  24.407   4.788  0.0109 -0.0796  0.3874
71193W        W 8687  33.942  21.857  23.713 -0.4475 -0.0514 -0.1513
71194W        W 8688  31.704  21.256  15.880  0.0036  0.0933 -0.1300
71195W        W 8689  18.348  17.272  20.181 -0.1060 -0.3059 -0.0909
71196W        W 8690   9.569  20.538  25.922 -0.2221 -0.0173  0.2629
71197W        W 8691  11.823   4.066  21.009 -0.0713 -0.3508  0.0233
71198W        W 8692  26.706  23.492  20.164  0.1486  0.1442 -0.2482
71199W        W 8693   5.663  28.006   6.349  0.1683 -0.0626  0.1492
71200W        W 8694  29.326   4.489  10.794  0.0215  0.0511 -0.2359
71201W        W 8695  16.926  30.932   1.348 -0.1126 -0.1446 -0.0231
71202W        W 8696   6.006  11.772  19.302  0.0267  0.2682  0.2016
71203W        W 8697   6.818  24.332  24.410  0.1443  0.2430 -0.0153
71204W        W 8698  23.333  22.929  25.323 -0.0636 -0.0223  0.2681
71205W        W 8699  35.271   2.596   5.672  0.1504  0.0824 -0.3830
71206W        W 8700  18.355  29.262   3.315  0.4121  0.0666 -0.0572
71207W        W 8701  18.614  27.694  10.103 -0.0192  0.4056  0.1197
71208W        W 8702  11.136  35.128  20.812 -0.2924  0.2948 -0.2032
71209W        W 8703   8.914  12.750   0.668 -0.0056  0.0711  0.0729
71210W        W 8704   9.799   1.706  14.961  0.1009  0.0898  0.0929
71211W        W 8705  16.259  27.001   9.787 -0.1255 -0.1853 -0.0740
71212W        W 8706  29.212   6.360   9.734  0.0247 -0.0854  0.1546
71213W        W 8707  25.301  18.452   7.912 -0.0459  0.3434 -0.0506
71214W        W 8708  24.560  29.225   2.744 -0.0645  0.1540  0.0934
71215W        W 8709   8.464  22.687  10.883 -0.0240  0.1052 -0.0729
71216W        W 8710  32.964  10.082  12.400  0.0633 -0.1436  0.1094
71217W        W 8711  20.383   1.845   5.442  0.4216  0.3561 -0.2961
71218W        W 8712  17.136  21.699   6.611  0.0665 -0.0031 -0.1441
71219W        W 8713  10.061  29.949  22.462 -0.1083 -0.2404 -0.0044
71220W        W 8714   1.862  26.110   7.036 -0.0004  0.3307  0.1888
71221W        W 8715  32.183  30.800  13.358 -0.0764 -0.1493 -0.0460
71222W        W 8716  10.963  11.228  21.415  0.1037  0.1730  0.0309
71223W        W 8717  22.647  22.069  19.087  0.0241 -0.0900  0.2940
71224W        W 8718   8.702   7.554   7.528 -0.0539  0.0441 -0.2684
71225W        W 8719   9.229  25.350  13.318 -0.4395 -0.0052 -0.0825
71226W        W 8720  28.435   1.442  13.131  0.1061 -0.1352 -0.0217
71227W        W 8721  30.163  11.275  12.735  0.3837  0.3061  0.0083
71228W        W 8722  22.991  33.122  15.132 -0.0247  0.4225  0.1314
71229W        W 8723  25.923  19.158  25.486 -0.2713  0.0988 -0.2288
71230W        W 8724  13.129  31.680   1.899 -0.0033 -0.1110 -0.0999
71231W        W 8725   5.055  25.034  21.171  0.0627  0.0286  0.0695
71232W        W 8726   3.004  11.854  17.177  0.2023  0.2027  0.0423
71233W        W 8727   7.555  21.209   5.821  0.2071  0.2081  0.1244
71234W        W 8728  28.240  31.996  21.929 -0.1196 -0.0433  0.1694
71235W        W 8729  27.738   7.011  18.519  0.1579  0.2103  0.0369
71236W        W 8730  29.883  24.810  15.455 -0.1012  0.2267 -0.3058
71237W        W 8731   1.430  32.167   2.348  0.0296 -0.2413  0.0558
71238W        W 8732  15.784   3.132  25.791 -0.2137 -0.1826 -0.0370
71239W        W 8733  19.646   8.760  18.714  0.2299  0.0589 -0.6550
71240W        W 8734   6.641   3.147   0.652  0.3574  0.2484  0.3475
71241W        W 8735   9.508  17.225  20.972  0.1045  0.0376  0.3794
71242W        W 8736  27.022   4.421  17.667  0.2148  0.1220  0.2351
71243W        W 8737  25.973  32.633   0.208  0.2317 -0.0816 -0.1501
71244W        W 8738  33.951  17.167  19.222  0.0422 -0.0276 -0.2184
71245W        W 8739  23.864  32.844  13.364  0.1561 -0.2952 -0.0383
71246W        W 8740  28.725  20.429  24.177  0.1722  0.1364  0.1066
71247W        W 8741  19.674  26.350   6.540  0.2398  0.2590 -0.2991
71248W        W 8742   8.295  23.979  11.037  0.1286 -0.0277 -0.2199
71249W        W 8743  26.406   2.716   0.117  0.0272  0.1486 -0.1228
71250W        W 8744  17.705   7.925   4.281 -0.0762 -0.1864 -0.0722
71251W        W 8745  30.803   6.800  22.443 -0.1318  0.2830  0.2945
71252W        W 8746  17.064  10.141  24.761  0.0626  0.0048 -0.0038
71253W        W 8747  11.381  35.366   4.665  0.1044  0.0099  0.5410
71254W        W 8748   3.413   1.997  24.534 -0.0147  0.0521  0.4854
71255W        W 8749  29.839  31.645  25.524 -0.1150  0.0047  0.0390
71256W        W 8750  32.602  16.618  17.081  0.0443  0.3400  0.3424
71257W        W 8751   3.241   3.131  19.256 -0.1465  0.1007  0.0156
71258W        W 8752  26.534   9.371  11.528  0.0715  0.1926 -0.2114
71259W        W 8753  18.402  31.213  19.617  0.2529  0.1359 -0.4949
71260W        W 8754   1.258  10.680  20.609  0.2095  0.1498  0.2459
71261W        W 8755  18.257  27.496   6.942  0.1628 -0.1106  0.3219
71262W        W 8756  14.451  25.858  13.912 -0.0122 -0.2810  0.1339
71263W        W 8757   3.885  13.983  20.833 -0.1011  0.2287  0.0030
71264W        W 8758  33.550  24.250  25.617 -0.0888 -0.0525  0.1048
71265W        W 8759  30.004  17.820  20.766 -0.0748  0.0182  0.0909
71266W        W 8760  25.768  34.962  22.676 -0.0925  0.1115 -0.1932
71267W        W 8761  28.424   9.545  21.603  0.2117 -0.0352 -0.4096
71268W        W 8762  34.392   0.325  23.775  0.0769 -0.2195 -0.2819
71269W        W 8763   3.789  24.416  19.413  0.0580 -0.2728 -0.0041
71270W        W 8764  27.430  33.862  19.470  0.0981 -0.2428 -0.3395
71271W        W 8765  10.672   8.538   9.041 -0.1519 -0.1913 -0.2400
71272W        W 8766  19.606  26.690  22.033 -0.0327 -0.2764  0.2228
71273W        W 8767  11.379  25.696  11.092 -0.0894  0.0422  0.1817
71274W        W 8768  20.959   0.641   4.564 -0.0550  0.0761 -0.1939
71275W        W 8769  32.942  29.707  25.727 -0.1361 -0.1054  0.2033
71276W        W 8770   0.536  33.353  23.272 -0.1851  0.3781  0.2469
71277W        W 8771  22.075  33.760  21.171 -0.2505 -0.0617 -0.0816
71278W        W 8772  23.216  24.594   1.862 -0.1484 -0.2483 -0.1644
71279W        W 8773  20.073   3.319   4.543 -0.4627 -0.1352  0.0180
71280W        W 8774   9.927   3.691  10.335 -0.0062 -0.2131 -0.0287
71281W        W 8775  20.601  26.735  23.113  0.0583 -0.0867 -0.2693
71282W        W 8776  34.326  22.790  15.851 -0.4803 -0.3423  0.0819
71283W        W 8777   9.188   4.009  20.665  0.0845  0.0315 -0.3811
71284W        W 8778  26.378   4.191  13.561 -0.0814  0.0931  0.0487
71285W        W 8779  17.787   8.631  11.567 -0.1260  0.1479  0.1036
71286W        W 8780  24.194   1.086  15.252 -0.1705  0.5312  0.2596
71287W        W 8781  17.678   0.059  24.866  0.0491 -0.0443  0.0076
71288W        W 8782  19.181  33.906  25.344  0.2059  0.2013 -0.1171
71289W        W 8783  16.700  34.380  21.932 -0.0235 -0.1070 -0.3186
71290W        W 8784  13.843   2.893  23.205  0.1707  0.0479 -0.0153
71291W        W 8785  24.658  34.467  11.282  0.2051 -0.0881  0.1389
71292W        W 8786  11.334  27.439  25.422 -0.2358  0.4489 -0.1427
71293W        W 8787  31.168  11.105   6.469  0.1437  0.3847 -0.3658
71294W        W 8788  23.531  10.709  19.125  0.1010 -0.2068 -0.3033
71295W        W 8789  22.341  31.276   2.664 -0.0969  0.0068 -0.0758
71296W        W 8790  31.866   1.442  15.866  0.3352 -0.3304  0.0993
71297W        W 8791  24.786  30.006  16.699  0.3803 -0.1821  0.2135
71298W        W 8792  21.920  20.186  18.140 -0.1433  0.4210 -0.0735
71299W        W 8793   9.568   6.497  24.403 -0.1836  0.2655  0.3014
71300W        W 8794  20.208   7.998  17.706 -0.1236 -0.2355 -0.1126
71301W        W 8795  19.179   1.999  19.246 -0.1046  0.1284  0.3347
71302W        W 8796  33.553   9.138  15.293  0.2819 -0.2347 -0.0659
71303W        W 8797  33.517   4.649   1.570  0.2028  0.1718  0.1480
71304W        W 8798   9.273  20.589   2.899 -0.1701 -0.0068  0.0592
71305W        W 8799   7.589  17.277   9.053  0.2231 -0.0713  0.1227
71306W        W 8800  25.897  22.244  23.222 -0.0981 -0.0478  0.0403
71307W        W 8801  32.822   5.050  12.032  0.2364  0.0972  0.1449
71308W        W 8802  22.749  33.742   7.369 -0.3867 -0.2541  0.0357
71309W        W 8803  10.378  28.430   5.964 -0.0689 -0.2696 -0.1134
71310W        W 8804  22.529   6.353   4.250  0.0333  0.1548 -0.0856
71311W        W 8805   2.374   0.223   1.167 -0.1585  0.2516  0.0865
71312W        W 8806  13.842  22.065   9.065  0.0529  0.0721 -0.0938
71313W        W 8807  30.770  30.979  18.990 -0.1224  0.0633  0.0647
71314W        W 8808  11.258  23.347  25.453 -0.0887  0.1699 -0.0079
71315W        W 8809  15.480  19.970   6.426 -0.0790  0.0314 -0.3185
71316W        W 8810  29.731   0.786  23.202 -0.2219 -0.0438  0.2611
71317W        W 8811  33.917   5.677  14.704  0.3889  0.2327 -0.1288
71318W        W 8812   5.510  33.109  21.118  0.1088 -0.1029 -0.0528
71319W        W 8813  20.258  32.773   0.207 -0.0007  0.0763 -0.4025
71320W        W 8814  28.498  22.273  11.445  0.0473  0.1397 -0.1804
71321W        W 8815  11.679  24.212  10.441 -0.0153 -0.0818 -0.2462
71322W        W 8816   7.658  25.996  16.226  0.2591  0.0666  0.2570
71323W        W 8817  32.828   7.603  16.054  0.0587  0.1197  0.0974
71324W        W 8818  12.098  10.193  25.925  0.2666 -0.2128  0.1128
71325W        W 8819  20.662   2.284   5.295 -0.0233 -0.0065  0.0356
71326W        W 8820   3.059  24.638  23.280  0.0635 -0.0990 -0.0461
71327W        W 8821  22.180  15.910  24.408  0.2216  0.3101 -0.2002
71328W        W 8822   5.391   3.025   4.968  0.2866 -0.1001 -0.2881
71329W        W 8823  31.469   1.021   4.261 -0.1881  0.0743 -0.1801
71330W        W 8824  25.484   2.465  20.254  0.0246 -0.0595 -0.2798
71331W        W 8825  24.450  13.446  17.403  0.1638  0.1893 -0.2704
71332W        W 8826  32.588  13.531  14.739 -0.0199 -0.3014 -0.0401
71333W        W 8827  26.209   1.105  13.039  0.0681 -0.2984  0.2319
71334W        W 8828  16.755  27.751  10.586 -0.1838 -0.0086  0.0703
71335W        W 8829   7.485  15.995   9.177  0.0545 -0.0158 -0.2340
71336W        W 8830   5.604   9.063  21.936 -0.2448  0.1063 -0.0366
71337W        W 8831   5.971  17.398   1.664 -0.0412 -0.0555 -0.0977
71338W        W 8832   2.261   5.546   4.314 -0.0004 -0.0433 -0.4858
71339W        W 8833  13.323   9.797  25.684 -0.1872  0.2319  0.0220
71340W        W 8834  17.846  10.432  18.879 -0.2794 -0.1296  0.1383
71341W        W 8835   7.106  26.600  25.847  0.1871  0.1927  0.1613
71342W        W 8836  35.128  29.712  19.051  0.0164 -0.0162 -0.0749
71343W        W 8837   2.349  11.680  16.922  0.3749 -0.0031 -0.1218
71344W        W 8838  30.718  12.348  11.128  0.0249  0.1447 -0.5320
71345W        W 8839   5.969   0.451   9.672 -0.2314 -0.0893  0.2643
71346W        W 8840   4.095  14.873   0.218  0.1562 -0.2546  0.3180
71347W        W 8841  26.276  31.155  21.900  0.5722  0.2219  0.2337
71348W        W 8842  14.285  23.717  26.250  0.1071  0.2378  0.1293
71349W        W 8843  27.039  28.770  14.919 -0.0412  0.0483 -0.0015
71350W        W 8844  33.292   4.851  25.945  0.1783 -0.1379 -0.3799
71351W        W 8845  20.454   6.354   1.571  0.0031 -0.2204  0.1053
71352W        W 8846  11.388  34.264  25.249 -0.2865  0.0821 -0.1316
71353W        W 8847   8.816   2.216  10.811 -0.1614  0.3161  0.0156
71354W        W 8848  17.502  35.382   7.971  0.1073  0.2335  0.1878
71355W        W 8849   9.730   9.682  13.188 -0.2118 -0.1130 -0.1442
71356W        W 8850  11.155   0.863  22.695 -0.0564  0.1150 -0.1190
71357W        W 8851  27.396  35.218   4.165  0.0063 -0.0291  0.1109
71358W        W 8852   4.863  23.858   3.782  0.0498  0.0709 -0.3495
71359W        W 8853  34.347  16.904   0.260  0.0474 -0.2273 -0.3748
71360W        W 8854  34.897   5.704  23.289  0.0398 -0.0671 -0.1505
71361W        W 8855  24.963  26.069  11.959  0.0127 -0.0174 -0.1078
71362W        W 8856  33.332  17.502  21.137 -0.0385  0.3183  0.0550
71363W        W 8857  16.442   6.695   3.617  0.1435  0.1951 -0.2283
71364W        W 8858   4.739   8.444   0.430 -0.1868  0.3662 -0.0978
71365W        W 8859  31.920   8.229  23.452 -0.0715 -0.1543  0.2815
71366W        W 8860   7.634   8.751  20.560  0.0663  0.2580 -0.2708
71367W        W 8861  25.268  29.019  15.508 -0.2555 -0.0770  0.1260
71368W        W 8862  17.514   7.264   8.171 -0.1472 -0.0394 -0.1400
71369W        W 8863   7.441  25.960  23.270 -0.0386 -0.3658 -0.3116
71370W        W 8864   7.603  32.414   1.788  0.2340 -0.1353 -0.1265
71371W        W 8865  26.590  20.458   6.679  0.0810 -0.4940  0.0812
71372W        W 8866   8.863  28.490  15.359  0.0328  0.3170 -0.0893
71373W        W 8867  12.177   1.192   3.248  0.0258  0.0342 -0.0615
71374W        W 8868  17.494   3.352  17.184 -0.0438 -0.0199  0.1111
71375W        W 8869   0.332   5.751  13.507 -0.1604  0.3335 -0.0328
71376W        W 8870  31.377  12.545   9.994 -0.1093 -0.0516 -0.2923
71377W        W 8871  29.514  28.450  25.353 -0.0909 -0.2526 -0.0474
71378W        W 8872  16.901  28.118  11.418 -0.1470 -0.1980 -0.0367
71379W        W 8873   7.887  27.999   0.271  0.2412 -0.0232 -0.1352
71380W        W 8874  23.312   2.420  17.366  0.1597 -0.1424 -0.1042
71381W        W 8875  18.542  31.666   0.148  0.0423 -0.1412 -0.0813
71382W        W 8876  33.960  24.917  12.434  0.0174  0.1538 -0.0858
71383W        W 8877  12.125  25.279  16.666  0.3613  0.1650  0.2532
71384W        W 8878  32.195  26.193  25.003 -0.0659  0.2254  0.2018
71385W        W 8879  12.403   5.222  11.928  0.1655  0.0533 -0.0376
71386W        W 8880  25.762   2.079   4.062  0.2795 -0.0140  0.2660
71387W        W 8881   5.844  16.849   4.257 -0.0982 -0.1244 -0.3557
71388W        W 8882   6.633  34.615  19.875 -0.3164  0.1042 -0.0328
71389W        W 8883  22.883  20.824  14.029  0.0604  0.0445 -0.1011
71390W        W 8884  33.898   7.906   3.154  0.2374 -0.1038  0.3818
71391W        W 8885  31.488  18.428  17.834 -0.3470  0.0983 -0.0839
71392W        W 8886  21.082   6.394  25.823 -0.1138 -0.2381  0.1223
71393W        W 8887  32.973  22.699  20.821  0.0165 -0.2035  0.0516
71394W        W 8888  25.553   5.506   0.156  0.1230  0.0738 -0.0871
71395W        W 8889  26.511  10.427  20.173  0.2880 -0.0213  0.1884
71396W        W 8890  17.696  20.815   0.567 -0.0580  0.2786 -0.0929
71397W        W 8891   7.421  16.775  12.323  0.3346  0.0810 -0.0199
71398W        W 8892  20.505  20.324  23.001  0.1870  0.0886 -0.0722
71399W        W 8893  22.288  18.318  15.168  0.1153 -0.3541  0.0374
71400W        W 8894   5.639  18.042   5.604  0.4373  0.0330 -0.0546
71401W        W 8895  34.788   0.823   4.261  0.4805 -0.2849  0.0009
71402W        W 8896  30.309  28.023  22.048  0.1424 -0.0118 -0.0912
71403W        W 8897  27.289   8.197  10.264  0.3704  0.2082 -0.0823
71404W        W 8898   6.122  27.779   7.085 -0.0086  0.1095  0.0501
71405W        W 8899  13.281   0.583   2.555 -0.0869  0.2766  0.2984
71406W        W 8900   6.498  32.108   7.375  0.2053  0.0555 -0.1390
71407W        W 8901   9.543  31.604   4.660 -0.1091 -0.1267 -0.0313
71408W        W 8902  11.000   5.874   9.954 -0.2104  0.2200  0.0137
71409W        W 8903   8.393   8.237   4.294 -0.2602  0.1367  0.2882
71410W        W 8904   1.337  29.044  21.902  0.1864 -0.1980 -0.1432
71411W        W 8905  16.186   9.573  10.855  0.1791 -0.2726 -0.1980
71412W        W 8906   9.536  26.596   4.823 -0.3691  0.1219  0.0964
71413W        W 8907  12.304  20.885   5.325 -0.3067  0.0087 -0.0684
71414W        W 8908   7.055   6.718   3.286 -0.2119  0.0276  0.0989
71415W        W 8909   1.115  27.429  23.117 -0.1542  0.0232 -0.1491
71416W        W 8910  10.458   4.984  19.868  0.2890  0.0233 -0.3496
71417W        W 8911  18.248   9.763  20.270 -0.1290  0.0517  0.0911
71418W        W 8912  23.450  11.149  24.528  0.2172  0.3023 -0.0808
71419W        W 8913  32.716  17.965  24.144  0.0920 -0.0076 -0.1198
71420W        W 8914  34.310  10.135  24.931  0.0331  0.0556  0.2070
71421W        W 8915  19.936  11.379   6.854 -0.0153  0.0580 -0.2039
71422W        W 8916  18.358  26.154  20.390  0.4224 -0.1358  0.0364
71423W        W 8917  15.394  21.465  23.824 -0.1890  0.2434  0.1208
71424W        W 8918   9.157   7.252  20.868 -0.0793  0.2686  0.0825
71425W        W 8919  33.462   1.818  13.882  0.2072  0.0150 -0.3215
71426W        W 8920   6.458  19.465  22.604 -0.1693  0.1172  0.5563
71427W        W 8921   6.470  24.023  25.453 -0.0035  0.0113  0.1701
71428W        W 8922  30.359  10.021  15.591  0.0896 -0.0072 -0.0046
71429W        W 8923  24.557  29.919  20.964 -0.0491  0.1767 -0.1804
71430W        W 8924  34.168  17.884   8.258  0.0776  0.0506 -0.2771
71431W        W 8925  27.145  30.010  11.969 -0.1145 -0.1254  0.3352
71432W        W 8926  26.504  28.218  22.647 -0.4022  0.2745  0.0863
71433W        W 8927  18.436  34.611   1.452 -0.1402  0.0926 -0.1845
71434W        W 8928  20.188  26.871   2.077  0.0469 -0.0580  0.0011
71435W        W 8929  20.801   7.122   9.208  0.0407  0.0339  0.3694
71436W        W 8930   9.097   5.847   0.626 -0.0507  0.0424  0.1243
71437W        W 8931   8.743  17.900  13.236  0.2847  0.0447 -0.1528
71438W        W 8932  10.513  15.860  21.033  0.0974  0.2114  0.1421
71439W        W 8933  27.843  11.852  19.411 -0.2220  0.0628  0.2668
71440W        W 8934   7.552  33.098   4.504 -0.2901 -0.1438  0.0258
71441W        W 8935  35.193   1.614  14.612  0.0228  0.1705 -0.3504
71442W        W 8936  33.176  15.074  23.160 -0.0170 -0.2634  0.0699
71443W        W 8937  34.440  34.169  23.200  0.0422 -0.0778  0.1261
71444W        W 8938   8.900  12.341  20.962 -0.0577  0.0471 -0.2605
71445W        W 8939  15.336   2.822  25.832 -0.2345  0.3564 -0.0594
71446W        W 8940  30.342  30.576  19.090  0.1000 -0.2206 -0.1345
71447W        W 8941   9.496  32.743   6.518 -0.0706 -0.2133  0.2851
71448W        W 8942  17.429   1.995   5.352 -0.0545  0.0916  0.2143
71449W        W 8943  21.138   0.874   5.660 -0.0203 -0.3293  0.1322
71450W        W 8944  15.534  33.564   0.416  0.1083 -0.0465 -0.0739
71451W        W 8945  19.984  17.345  19.056  0.0561 -0.2054 -0.1365
71452W        W 8946  20.761  31.717   6.941  0.1291  0.4034  0.3811
71453W        W 8947  27.941  31.010  24.409  0.1791  0.0161  0.0098
71454W        W 8948   9.586   3.859   2.760 -0.4682 -0.1678 -0.2995
71455W        W 8949  24.226   0.889  24.007  0.2006  0.2212  0.0976
71456W        W 8950  25.859  34.589  17.776  0.0483  0.2469 -0.0277
71457W        W 8951  25.003  33.478  10.201  0.1695 -0.1593  0.0477
71458W        W 8952   2.130  10.158  20.941  0.1432  0.0357 -0.0255
71459W        W 8953  26.378  19.738   5.464 -0.2342 -0.1550 -0.3301
71460W        W 8954   9.845   3.127  10.383 -0.0029 -0.0040  0.1372
71461W        W 8955  33.439  33.186   1.790  0.1269  0.0329  0.1187
71462W        W 8956  12.055  30.737  15.869 -0.2000 -0.1106  0.2304
71463W        W 8957  17.955  34.508  16.198 -0.0069 -0.3713  0.0477
71464W        W 8958   3.524  30.189   4.189 -0.0425  0.0277  0.0499
71465W        W 8959   7.458  10.054  10.330  0.3418 -0.1083 -0.1387
71466W        W 8960  19.998  10.116  20.592 -0.3245 -0.3555 -0.2859
71467W        W 8961  10.474   7.443  13.801 -0.2001  0.0917  0.2288
71468W        W 8962  15.039  22.764   8.227  0.0382 -0.2685 -0.3898
71469W        W 8963  26.660  13.452  22.186  0.4735  0.1764  0.1038
71470W        W 8964  28.031  33.913  11.532  0.3149  0.0662 -0.1200
71471W        W 8965   5.153   3.551   8.555  0.0422  0.2588 -0.3326
71472W        W 8966   3.920   1.924   1.227 -0.2366 -0.1957  0.0585
71473W        W 8967  34.151  22.549  19.399 -0.4131  0.0299  0.0529
71474W        W 8968  20.103  13.070  16.467 -0.2008 -0.1853 -0.1531
71475W        W 8969  14.441  22.967   4.664  0.4736  0.1998  0.1040
71476W        W 8970   0.468  24.702  15.126 -0.0303  0.0878 -0.0818
71477W        W 8971  12.573  11.663   9.066 -0.3560  0.2228  0.3067
71478W        W 8972   8.541   3.777  20.675  0.0898 -0.2110 -0.2021
71479W        W 8973  31.834  27.030   0.776 -0.0324  0.3410  0.0309
71480W        W 8974  13.681  27.608   7.068  0.1578 -0.1953 -0.0307
71481W        W 8975  31.494  23.650   9.887  0.0853  0.0655  0.1716
71482W        W 8976  30.654   9.439   8.805 -0.3596  0.2199 -0.0586
71483W        W 8977  23.110  23.023  16.476 -0.2972  0.0180 -0.0285
71484W        W 8978  26.952  14.997  13.820 -0.1022 -0.1378  0.2467
71485W        W 8979  35.029  21.418  11.098 -0.0561  0.1160  0.2444
71486W        W 8980  10.366   5.793  20.951  0.0454 -0.0941  0.0671
71487W        W 8981  31.634   6.334  25.237  0.0346  0.1727 -0.0499
71488W        W 8982  13.950  12.155   0.204  0.3936 -0.3622 -0.1344
71489W        W 8983  14.478  15.721  25.769  0.0201 -0.0877 -0.0882
71490W        W 8984  23.378  23.357  18.627 -0.0011 -0.0908  0.0997
71491W        W 8985  34.893  13.410  15.424  0.1637 -0.0262  0.0643
71492W        W 8986  35.280  24.143  14.828 -0.1541  0.1424  0.1074
71493W        W 8987   4.661   3.839  19.485 -0.0674 -0.0517  0.1118
71494W        W 8988  20.889  30.548  23.822  0.3225 -0.0391  0.1119
71495W        W 8989   8.622  13.137   1.828  0.0533 -0.2915  0.0305
71496W        W 8990  11.376  22.851   3.227  0.0948  0.1851 -0.0379
71497W        W 8991   9.979  15.143  18.618 -0.0549  0.0788 -0.2908
71498W        W 8992  10.444   4.179  23.629  0.1923 -0.1030 -0.0952
71499W        W 8993  12.472  18.923  25.929 -0.1376  0.0640 -0.0905
71500W        W 8994  14.094   3.729  12.451 -0.3184 -0.3278  0.0163
71501W        W 8995  17.193  10.709  24.714  0.0787  0.1115  0.0209
71502W        W 8996   4.243   4.771  19.044  0.0230  0.0665 -0.3188
71503W        W 8997  29.613   1.168   0.981  0.0744  0.0877 -0.0200
71504W        W 8998  11.332  33.868  22.809  0.2949 -0.1200 -0.0694
71505W        W 8999  13.183   7.968   2.894 -0.0297 -0.0527  0.0978
71506W        W 9000  21.275   2.914   7.117  0.0717  0.0929 -0.1444
71507W        W 9001  34.728   6.284  16.731  0.0198  0.3961  0.1642
71508W        W 9002  27.843  21.746  15.160  0.0169 -0.3816  0.0231
71509W        W 9003  23.431   9.856  24.287 -0.2834  0.1052 -0.1947
71510W        W 9004  12.732  20.358   9.816 -0.1190  0.0249 -0.0408
71511W        W 9005  28.375  12.251  12.324 -0.3637 -0.1179  0.0644
71512W        W 9006   1.308  33.303  18.609 -0.2079 -0.0427 -0.0732
71513W        W 9007  17.833  21.187  24.472 -0.1773  0.0538  0.0736
71514W        W 9008  27.826  21.260  15.317  0.0748  0.1127  0.2808
71515W        W 9009   6.706  19.442   2.864 -0.0508  0.0527 -0.2951
71516W        W 9010  27.279   6.578   1.403  0.0313 -0.3043  0.0265
71517W        W 9011  28.228  28.587  21.320  0.0566 -0.0716 -0.1028
71518W        W 9012  22.752  34.723  20.374  0.2011 -0.0719 -0.3203
71519W        W 9013  12.488   5.174   9.251  0.0296 -0.1721  0.1410
71520W        W 9014  21.485  19.463  18.065  0.0524  0.1358 -0.1112
71521W        W 9015  14.175  26.129   4.330 -0.1587  0.0534 -0.1965
71522W        W 9016   8.539  30.702  23.656  0.0991  0.0032  0.0332
71523W        W 9017  29.926   3.000   1.617  0.3678 -0.0180  0.2397
71524W        W 9018  11.450  14.954   1.664  0.0236 -0.0746 -0.4107
71525W        W 9019  28.012  27.798  20.160 -0.1366  0.3241 -0.1283
71526W        W 9020   9.710  19.768   4.242 -0.0502  0.0080 -0.1310
71527W        W 9021  15.876  22.201  13.637  0.0006  0.3365 -0.1878
71528W        W 9022  15.166  13.692  12.422  0.1787  0.1941 -0.0318
71529W        W 9023  24.106  22.927   0.653 -0.3408 -0.2628 -0.1202
71530W        W 9024  30.814  20.923  15.506  0.1611  0.1461  0.2227
71531W        W 9025  13.035  30.690  12.490 -0.0482  0.0274 -0.1025
71532W        W 9026  14.164   2.952  11.682 -0.2644 -0.2080 -0.0483
71533W        W 9027  25.719  32.721  22.746 -0.2307  0.3821  0.1003
71534W        W 9028  28.042  34.737   4.942  0.1886 -0.0882  0.2938
71535W        W 9029  16.493  18.279   6.592  0.0930  0.1859  0.1352
71536W        W 9030  25.906  21.394   9.187 -0.0322  0.0565  0.1378
71537W        W 9031  21.571   9.788   3.177 -0.0142 -0.4205 -0.0417
71538W        W 9032  27.726  29.981  22.427  0.0406 -0.5040  0.4727
71539W        W 9033  14.226  26.132   8.331  0.2836 -0.0235  0.2438
71540W        W 9034   2.075  14.096  25.113  0.0297  0.0340 -0.0056
71541W        W 9035  22.479   9.802  17.984  0.1438 -0.0197 -0.0754
71542W        W 9036  27.481  16.082  12.737 -0.1958 -0.2827  0.1069
71543W        W 9037  17.892  34.508   4.957 -0.0615 -0.1054 -0.0027
71544W        W 9038  21.964   2.270   0.971  0.0536 -0.1274  0.4561
71545W        W 9039  21.984  34.419  17.623 -0.1239 -0.1937  0.0528
71546W        W 9040  11.774  29.102   9.765  0.0390 -0.1585 -0.3168
71547W        W 9041  34.639   6.687   2.350 -0.2129 -0.1554 -0.2023
71548W        W 9042   2.546  16.560  17.647  0.1871  0.2568 -0.1632
71549W        W 9043  31.494  15.105  15.032  0.2577  0.1371 -0.2092
71550W        W 9044  23.845  29.935  21.558 -0.0704  0.0709 -0.1844
71551W        W 9045   2.914  21.180  23.319 -0.0340 -0.0756 -0.1494
71552W        W 9046   1.498  20.171  23.422 -0.1086 -0.1568 -0.0646
71553W        W 9047  23.086   0.320  21.774 -0.3011 -0.0470  0.1810
71554W        W 9048  30.426  20.190   4.698  0.1788 -0.1240  0.0095
71555W        W 9049  34.252  12.368  22.149 -0.0818  0.1540 -0.1325
71556W        W 9050  28.928  22.106  19.600 -0.3142 -0.1325 -0.2405
71557W        W 9051  31.843  24.622  19.802 -0.3285  0.1850 -0.0925
71558W        W 9052  27.856  23.381  24.605  0.0024 -0.2201 -0.2886
71559W        W 9053  19.183  29.402  20.721  0.2462 -0.2430  0.2058
71560W        W 9054  23.254   4.367  15.122  0.1897 -0.1221  0.0394
71561W        W 9055   5.210   2.977  24.363 -0.1906  0.0397  0.3466
71562W        W 9056  23.337  18.064   0.627  0.0822  0.0239  0.1059
71563W        W 9057  15.070  11.895  20.242  0.0020  0.1186  0.2424
71564W        W 9058  10.485  32.323   7.916  0.0441  0.2343 -0.0440
71565W        W 9059   5.856  34.521   8.875 -0.2153  0.1722 -0.1729
71566W        W 9060  24.465  27.922  21.434  0.0644  0.0532  0.1111
71567W        W 9061   4.290  11.321  15.562 -0.2697 -0.2872  0.1476
71568W        W 9062  13.922  19.649  15.847 -0.0537  0.0209 -0.0938
71569W        W 9063   4.969  26.857  22.999 -0.2154 -0.0765  0.0593
71570W        W 9064  11.501  20.614  16.365 -0.0097  0.1789  0.1816
71571W        W 9065  17.039  13.496  21.945 -0.0318 -0.3373 -0.0554
71572W        W 9066  10.050  30.128   8.396  0.0409 -0.0632 -0.0247
71573W        W 9067   3.292  32.636   6.672 -0.2709  0.1126 -0.2780
71574W        W 9068  24.861  19.636  13.760 -0.1124 -0.3080  0.1923
71575W        W 9069  11.526  33.630   6.480  0.2879 -0.4683 -0.0209
71576W        W 9070  19.165  29.704   0.260 -0.1259 -0.0901 -0.1528
71577W        W 9071   1.949  27.121   6.827 -0.3987 -0.1968  0.0491
71578W        W 9072   7.805  14.846   8.119  0.4811 -0.1489  0.2905
71579W        W 9073   7.198   2.560   4.446 -0.0814  0.1420 -0.3077
71580W        W 9074   8.236   1.534   9.467 -0.0279  0.0024 -0.0945
71581W        W 9075   1.419   9.241  25.209  0.0856  0.2069 -0.2552
71582W        W 9076  31.945   0.304  22.835 -0.2488  0.0908 -0.0980
71583W        W 9077  15.534  19.358  13.029  0.3040 -0.2391  0.0189
71584W        W 9078   9.250   0.045   6.367  0.0951  0.2275 -0.2793
71585W        W 9079  28.387  31.366  24.950  0.1395  0.1625  0.0163
71586W        W 9080   9.208  11.539   7.095  0.0957  0.2627 -0.3318
71587W        W 9081  26.736   9.202   8.223 -0.0720  0.0594 -0.3703
71588W        W 9082  25.223  20.504  21.102  0.0075  0.3550  0.1985
71589W        W 9083  30.365  25.774  18.022 -0.1141  0.2764  0.0691
71590W        W 9084   5.389  12.861   3.389 -0.2906 -0.0375  0.0834
71591W        W 9085   6.071  30.858   1.094  0.2658  0.3725  0.2418
71592W        W 9086  24.829  33.016  13.695 -0.2148 -0.2360  0.0082
71593W        W 9087   2.691  30.611   4.019 -0.2454 -0.1704 -0.1882
71594W        W 9088   5.469  10.860   4.125  0.0628 -0.0521 -0.0463
71595W        W 9089  25.412  15.910  13.140 -0.2463 -0.1115 -0.1613
71596W        W 9090   0.931   3.308   0.405  0.0351  0.1061 -0.1317
71597W        W 9091  11.067   4.717  18.728  0.0410  0.0753  0.1720
71598W        W 9092  23.633  25.864   3.585  0.1715  0.0367 -0.0117
71599W        W 9093   5.623  31.261  26.003 -0.0379 -0.0627 -0.3257
71600W        W 9094  13.175   5.952   9.302 -0.0100  0.0420  0.4797
71601W        W 9095   3.199  20.938  18.919  0.0092  0.0537 -0.0745
71602W        W 9096  27.499  29.112  17.917 -0.0948 -0.2582  0.0710
71603W        W 9097  18.173  10.335   1.613 -0.0662 -0.1078  0.1214
71604W        W 9098  28.937   2.228  16.184  0.0524  0.1350 -0.1475
71605W        W 9099  12.620  15.463  21.607  0.0322  0.0304  0.0105
71606W        W 9100  32.256  13.984  22.760  0.0373 -0.2923  0.0334
71607W        W 9101   3.141  22.333   5.053  0.0091 -0.0474  0.0881
71608W        W 9102  32.066  11.208   9.106  0.2786  0.0231 -0.0504
71609W        W 9103   0.273   8.373  15.740 -0.0681  0.3628  0.0175
71610W        W 9104  16.871  32.780   6.360  0.0213  0.1840  0.0560
71611W        W 9105  12.266  20.289  23.110 -0.1199  0.1269  0.2226
71612W        W 9106  32.107  13.536  18.278 -0.2290  0.3219 -0.1633
71613W        W 9107  33.514  26.396  12.476  0.0454  0.0265  0.0217
71614W        W 9108  22.647   2.962  19.110  0.2272 -0.2289 -0.0342
71615W        W 9109  21.761  19.336   2.283 -0.0603 -0.0605  0.1031
71616W        W 9110  24.215  27.282  22.014 -0.0308  0.2675 -0.1490
71617W        W 9111  17.488  24.153  22.801 -0.0999 -0.2831  0.2595
71618W        W 9112  25.860  27.744  13.620  0.0637 -0.0382  0.2825
71619W        W 9113  13.965  22.631   7.098  0.1907  0.0739  0.0058
71620W        W 9114   2.618   9.028  22.383  0.1000 -0.1882 -0.2442
71621W        W 9115   1.676  29.915  19.686  0.3413  0.0164  0.0170
71622W        W 9116   7.244  35.255  12.624  0.1378 -0.2700  0.4190
71623W        W 9117  11.122  11.332   2.527  0.2287 -0.0626  0.1674
71624W        W 9118  15.863  18.839  13.275 -0.3040  0.3279  0.2978
71625W        W 9119  14.878  11.469   7.443  0.0262  0.2042 -0.5606
71626W        W 9120  11.676   8.020  13.662 -0.0081  0.1923 -0.1556
71627W        W 9121  21.751   6.789   1.163  0.3228 -0.0261  0.1260
71628W        W 9122   9.009  16.733   8.553  0.1542  0.0125  0.0499
71629W        W 9123   9.439  12.398  11.296  0.1025 -0.0827 -0.3003
71630W        W 9124   2.109  16.598  19.967  0.0260  0.0078  0.0212
71631W        W 9125  18.435   5.313  11.463  0.0285 -0.0989  0.0778
71632W        W 9126   9.824   8.024   1.687  0.2656  0.2309 -0.0944
71633W        W 9127  27.755   1.925  13.209 -0.2179 -0.2285  0.0988
71634W        W 9128  23.531  34.611  15.840  0.0301  0.0087  0.4236
71635W        W 9129  13.506  24.357  12.046  0.0440 -0.0892  0.0173
71636W        W 9130   0.843   6.911   2.315 -0.0074  0.1708  0.3465
71637W        W 9131   6.796  19.641   5.369  0.0999 -0.0271  0.0172
71638W        W 9132   6.999  26.618   9.003  0.0185 -0.1262  0.0701
71639W        W 9133   4.808  25.685   9.423 -0.0986  0.0134 -0.0938
71640W        W 9134  10.687  35.135  26.044 -0.0605  0.2006  0.0155
71641W        W 9135  24.053  31.680   3.098 -0.2256  0.0350 -0.0726
71642W        W 9136  32.740  29.903  18.359 -0.1252  0.3232  0.3790
71643W        W 9137  28.811   1.081  14.648 -0.1216  0.0347 -0.0963
71644W        W 9138  20.545  11.627  19.889  0.0265  0.1410  0.3030
71645W        W 9139  31.990  30.687  11.417  0.0660  0.1658 -0.1020
71646W        W 9140  14.256  20.853   0.349  0.1580 -0.0699 -0.2622
71647W        W 9141  25.987   0.349  23.842 -0.0943  0.0223  0.2252
71648W        W 9142  27.767  27.734  14.189  0.4111  0.0286 -0.1797
71649W        W 9143   7.594  10.720  11.127  0.2127 -0.2633  0.0184
71650W        W 9144   5.935   7.018  19.776 -0.2893 -0.0273 -0.1267
71651W        W 9145  16.176  34.939   5.495  0.1473 -0.1682 -0.0048
71652W        W 9146   3.599  24.091  19.163  0.0041 -0.3370 -0.0001
71653W        W 9147  16.215  27.193   6.108  0.1661 -0.1257 -0.0284
71654W        W 9148  18.733  28.706  25.404 -0.2235  0.0357 -0.0003
71655W        W 9149  19.155  34.841  17.998 -0.3887  0.0940 -0.4307
71656W        W 9150  33.208   1.732  17.308  0.0560 -0.0950  0.0875
71657W        W 9151  29.755   4.702   1.965  0.2713 -0.0981 -0.3806
71658W        W 9152  35.153  32.351  19.574 -0.1040 -0.2370 -0.1238
71659W        W 9153   1.035   9.072  21.366 -0.2441 -0.0224 -0.2962
71660W        W 9154   0.742   5.436  13.620 -0.1162  0.0364  0.1385
71661W        W 9155  28.195  24.970  25.871  0.3187 -0.1050 -0.1789
71662W        W 9156  12.831   4.455   3.675  0.0016 -0.1463 -0.0808
71663W        W 9157   6.532  13.124  25.472  0.0772  0.0154  0.3388
71664W        W 9158  19.209   9.919  19.917 -0.0940 -0.1420  0.2205
71665W        W 9159  15.443  18.406  23.027 -0.1730 -0.1640 -0.3239
71666W        W 9160  21.019   1.680   4.124 -0.0299 -0.0723  0.1291
71667W        W 9161  34.826  13.428   9.315  0.1051 -0.0873 -0.0590
71668W        W 9162  18.921   7.645   6.713 -0.0448 -0.1114 -0.1898
71669W        W 9163  33.272  30.248  15.766  0.3892 -0.0671 -0.0898
71670W        W 9164   6.102  35.354  25.763 -0.1997  0.1373 -0.1371
71671W        W 9165  16.865   9.003  20.322 -0.0641 -0.4340 -0.1530
71672W        W 9166   2.988  16.585  15.120  0.2934 -0.1506 -0.1593
71673W        W 9167  31.246  30.957  25.457  0.1827  0.0693 -0.1832
71674W        W 9168   9.878  30.090  11.490 -0.0295 -0.1807  0.0682
71675W        W 9169  12.876  34.171   5.877 -0.0456  0.3591 -0.3330
71676W        W 9170   4.817   3.274   6.253 -0.2345  0.0083 -0.4761
71677W        W 9171  24.259  21.319  12.078 -0.2546  0.1701 -0.0477
71678W        W 9172   4.375  27.866  23.513  0.0670  0.0026 -0.1081
71679W        W 9173   1.395  32.299  18.997  0.1433  0.0527 -0.1559
71680W        W 9174   3.427  30.561  11.684 -0.2399 -0.1149  0.2483
71681W        W 9175   7.827  29.210  15.184  0.1607 -0.2395  0.3609
71682W        W 9176   9.278  10.343   3.429  0.0775  0.0202 -0.1643
71683W        W 9177  19.839   7.316   3.867 -0.2686 -0.0840  0.1673
71684W        W 9178  13.218  20.093   8.649 -0.1857 -0.0569  0.3179
71685W        W 9179   5.555   9.997   9.393  0.0342  0.2183 -0.0731
71686W        W 9180  25.675  29.806   4.409 -0.0291  0.0797 -0.1942
71687W        W 9181  14.839   9.712  13.420 -0.2825 -0.3578  0.0579
71688W        W 9182  25.040   0.369  16.204  0.4378 -0.0828  0.0075
71689W        W 9183   8.251  20.644  23.040  0.3732  0.2211  0.2881
71690W        W 9184  20.970   7.593  21.319  0.2095 -0.0811  0.0072
71691W        W 9185   2.252  22.031  17.527  0.1326 -0.0495  0.0139
71692W        W 9186  25.942  11.440  26.024 -0.1159 -0.4445 -0.2105
71693W        W 9187  33.099  26.990  18.697 -0.2547  0.0007 -0.1094
71694W        W 9188  15.017  12.452  13.977  0.0119 -0.0284 -0.3212
71695W        W 9189   0.070  23.122  18.841  0.1883 -0.2016  0.0056
71696W        W 9190   8.865  27.663   8.058  0.2403  0.0281 -0.1408
71697W        W 9191  32.474   9.062  21.348 -0.3682  0.2124  0.2232
71698W        W 9192  14.732  10.241  21.134 -0.4412 -0.0443 -0.0174
71699W        W 9193  18.474  14.449   3.561 -0.2787 -0.3329 -0.1504
71700W        W 9194  26.202  27.599  24.535 -0.0430  0.3590  0.1119
71701W        W 9195   6.611  16.558   7.326  0.1817  0.0030 -0.0294
71702W        W 9196  24.658   8.056  20.376 -0.0612  0.4106 -0.1701
71703W        W 9197  14.224  29.071  21.177  0.3488  0.0843 -0.0432
71704W        W 9198  25.764  27.517   3.353 -0.1489  0.0563 -0.0582
71705W        W 9199   6.308   1.327  23.007 -0.1597  0.1660 -0.3417
71706W        W 9200   7.159   4.805   0.714 -0.1441 -0.0094 -0.1245
71707W        W 9201   1.251  24.820  21.590 -0.1588 -0.0975 -0.0872
71708W        W 9202  35.112   5.554  20.937  0.3735  0.1386  0.0647
71709W        W 9203  16.843   7.347   2.953  0.0592  0.4132 -0.0840
71710W        W 9204   0.911  27.347   1.009 -0.2134 -0.0254  0.1797
71711W        W 9205  12.747   2.317  22.536  0.2872 -0.0225  0.0908
71712W        W 9206   0.815  21.729  12.361 -0.2507 -0.0001  0.0099
71713W        W 9207   9.847   6.800  20.547  0.2218 -0.0043 -0.2394
71714W        W 9208  35.349  13.271   0.767  0.0475  0.2474  0.0264
71715W        W 9209  28.935  24.099   9.637 -0.0415  0.1358  0.2208
71716W        W 9210   0.072  15.270  19.423 -0.3920 -0.2531  0.0302
71717W        W 9211  12.519   9.360   3.648  0.1941  0.1351  0.0140
71718W        W 9212  21.698  17.425   0.652 -0.1157  0.0986  0.0135
71719W        W 9213  33.671   0.156  13.406  0.0698  0.2223 -0.1414
71720W        W 9214   3.725   2.127   0.688 -0.0716 -0.0268 -0.1759
71721W        W 9215  15.380  18.236  22.003 -0.0657  0.2862 -0.2105
71722W        W 9216  35.017   2.887   0.957 -0.0316 -0.1790  0.0138
71723W        W 9217  23.490  34.131  25.749  0.0635  0.1480  0.1376
71724W        W 9218  20.302   8.028  20.987 -0.1226 -0.0510 -0.1027
71725W        W 9219  13.894  32.646  10.439  0.0376 -0.1437  0.0109
71726W        W 9220  21.055   7.709   5.756  0.1781  0.0537 -0.0076
71727W        W 9221  16.960  31.316   6.523 -0.1008 -0.0587 -0.0380
71728W        W 9222  10.340   6.434  23.886 -0.3254  0.2815  0.0797
71729W        W 9223   6.746   5.099  25.594 -0.1029  0.0181 -0.0738
71730W        W 9224  19.801   3.834   9.267  0.1021 -0.1668  0.1811
71731W        W 9225   2.179  21.134  18.669 -0.1264 -0.1451 -0.4294
71732W        W 9226   0.647   3.621  24.423  0.2445 -0.2679  0.0504
71733W        W 9227  35.362   1.526   1.763 -0.1406 -0.2956  0.1955
71734W        W 9228  10.975   0.156   8.210  0.0645 -0.1032  0.0915
71735W        W 9229   1.027  28.440   4.941  0.0492 -0.1687 -0.0700
71736W        W 9230  27.779  25.175  16.803  0.1979  0.1376 -0.2726
71737W        W 9231   9.543  26.556   9.964 -0.0518 -0.0542  0.2914
71738W        W 9232   5.737   3.633  25.056  0.4125  0.2934 -0.0705
71739W        W 9233  26.126  26.075  25.708  0.0758 -0.0326 -0.3953
71740W        W 9234   1.560  32.083   4.998  0.1843  0.0836  0.3189
71741W        W 9235  15.451   3.551  20.574  0.3349 -0.0578  0.1448
71742W        W 9236   2.125   9.073   4.665 -0.0403  0.1768 -0.0096
71743W        W 9237  21.664  33.099  13.369  0.0165  0.0742 -0.2172
71744W        W 9238  34.155   6.155   5.679  0.2946 -0.2679 -0.5192
71745W        W 9239  19.884   0.859  16.899  0.0109  0.2240  0.1984
71746W        W 9240  12.924  28.064  25.852  0.1555 -0.2505 -0.0397
71747W        W 9241  10.083  20.597   3.180  0.0664 -0.0529 -0.0521
71748W        W 9242  22.796   7.850  17.262  0.1438 -0.0635 -0.0434
71749W        W 9243  15.182  15.321   7.106 -0.0030  0.1042 -0.2757
71750W        W 9244   8.519   5.986   9.416 -0.1469 -0.4343 -0.2440
71751W        W 9245  29.844  28.864  18.947 -0.0805  0.0432 -0.0111
71752W        W 9246  14.444   2.223  17.853 -0.5819  0.1152  0.1997
71753W        W 9247  23.434   5.515   1.163 -0.0819 -0.0610 -0.1489
71754W        W 9248  14.655  24.283   9.450  0.1224 -0.1618 -0.0199
71755W        W 9249   8.463  30.409   3.481 -0.1743  0.0049 -0.2455
71756W        W 9250  15.139  11.488  14.959  0.3612  0.2202 -0.1054
71757W        W 9251  15.092   9.904   0.442 -0.2577  0.1252 -0.0676
71758W        W 9252  34.711  15.240  13.018  0.1372  0.2159  0.1526
71759W        W 9253  23.460  29.760  24.361  0.0167  0.1400 -0.1257
71760W        W 9254  31.911   4.637  12.138  0.0010  0.0456 -0.2564
71761W        W 9255  20.027   1.173  21.792  0.0037  0.1463 -0.1348
71762W        W 9256  12.210  29.382  24.878  0.0098  0.1319  0.0051
71763W        W 9257  23.211  14.056  20.735  0.3432  0.0940  0.0329
71764W        W 9258  16.758   6.314  24.496  0.3335 -0.0962 -0.1567
71765W        W 9259  33.623  11.711  10.820  0.0803 -0.2040  0.2509
71766W        W 9260  22.543   3.898  16.880  0.2528  0.0185 -0.3717
71767W        W 9261  14.487  13.070  13.480 -0.0786 -0.4060  0.2358
71768W        W 9262  27.756  31.477  13.678  0.1580 -0.2440  0.2142
71769W        W 9263  15.337   6.115  18.749  0.0952 -0.1659 -0.0770
71770W        W 9264  18.424   8.826   8.195 -0.0646 -0.1849  0.1517
71771W        W 9265  19.768   5.054  21.242  0.2688 -0.1151  0.2705
71772W        W 9266  31.895  21.922  13.594  0.3153 -0.1312  0.0889
71773W        W 9267  32.147  23.523  13.129 -0.1224 -0.3900  0.1328
71774W        W 9268  18.663   4.164  17.642 -0.1620 -0.0106 -0.0915
71775W        W 9269  31.509   0.092  23.089  0.0840  0.0182 -0.0341
71776W        W 9270   1.819  16.994  21.034 -0.2711 -0.0400 -0.1861
71777W        W 9271   2.186  16.226  16.814  0.0749  0.1225  0.0124
71778W        W 9272  26.205  20.381  23.831  0.1017 -0.1037  0.0333
71779W        W 9273  27.900  31.914   3.311  0.4002 -0.1149  0.0127
71780W        W 9274  17.259  10.378  25.550 -0.2902 -0.1112  0.3188
71781W        W 9275   8.046  22.888  10.577  0.0344 -0.1595  0.0573
71782W        W 9276  27.228  10.798   9.785 -0.2398 -0.1260 -0.1159
71783W        W 9277   0.452  33.000   9.106  0.1640  0.0208  0.0708
71784W        W 9278  27.043  14.646   7.146 -0.0162  0.0255 -0.0457
71785W        W 9279  19.033   7.066   2.729 -0.0991 -0.0104  0.0417
71786W        W 9280   7.853   9.065   5.496  0.0704 -0.0720  0.1051
71787W        W 9281  31.662  28.493  21.749  0.3889  0.1011  0.1219
71788W        W 9282   2.422   2.271   0.889  0.0326  0.1342 -0.1311
71789W        W 9283  11.478  28.925   8.735 -0.1488  0.0203  0.1280
71790W        W 9284  22.660   1.939  14.020  0.0474 -0.2851  0.0478
71791W        W 9285  31.372   4.260  14.694  0.2406  0.2955 -0.3277
71792W        W 9286  24.473  24.456  26.069 -0.3501  0.0330  0.0744
71793W        W 9287  20.666  13.999  20.877 -0.0946 -0.2633 -0.0859
71794W        W 9288  27.083  18.227  16.391  0.0631  0.2070  0.1573
71795W        W 9289   0.674  10.416  11.983 -0.1009  0.0183  0.1649
71796W        W 9290   7.479  31.604   4.925 -0.2467  0.0453  0.2004
71797W        W 9291  12.401  23.277  13.845  0.4462  0.1640  0.0444
71798W        W 9292  32.646  19.530  11.972 -0.1129 -0.0389  0.1427
71799W        W 9293   9.548  33.604  24.905 -0.1362 -0.0046 -0.0094
71800W        W 9294  34.604  18.800  24.931  0.0178  0.2699  0.0028
71801W        W 9295  30.472   7.556  16.406 -0.1084 -0.1267 -0.4777
71802W        W 9296  20.267   8.853   7.109  0.0362 -0.3900 -0.2387
71803W        W 9297  24.542  11.855  13.859 -0.1678  0.2140  0.1268
71804W        W 9298  22.896  29.118  22.294 -0.3135  0.0376  0.0842
71805W        W 9299   5.574  27.809  24.136 -0.0193  0.1248  0.2329
71806W        W 9300  25.761  12.161   9.854  0.3865 -0.1075  0.3946
71807W        W 9301  27.954  15.346  12.583 -0.0624  0.0290 -0.0692
71808W        W 9302   8.873   0.329  21.858  0.1704 -0.5829  0.1437
71809W        W 9303   8.882   7.206  24.538 -0.0369 -0.0310 -0.1314
71810W        W 9304  34.739  11.945  15.731 -0.1477  0.1306 -0.1236
71811W        W 9305   9.313   7.497   4.720 -0.1400 -0.0687 -0.0577
71812W        W 9306   2.454  21.925  15.932  0.0726 -0.1831 -0.3660
71813W        W 9307  18.113  18.467   5.016  0.1958  0.3610 -0.3980
71814W        W 9308  34.449  26.282  20.678 -0.3006 -0.2750  0.2153
71815W        W 9309   7.141  14.830  10.655 -0.1115  0.1248  0.2088
71816W        W 9310  21.217   4.278  22.705  0.1386 -0.2712 -0.1306
71817W        W 9311  34.881  23.808  13.958  0.0661 -0.2000  0.1145
71818W        W 9312  13.796  20.310  22.289  0.1346  0.1615 -0.1075
71819W        W 9313  11.944   0.418  10.307  0.0445  0.1053  0.0601
71820W        W 9314  34.948  27.436   2.052  0.1684  0.2367 -0.2023
71821W        W 9315   8.789   2.401  14.878 -0.1967 -0.4341  0.3091
71822W        W 9316  18.283  25.176   8.213 -0.0206 -0.1746 -0.4184
71823W        W 9317  17.278  17.058   4.119 -0.4291 -0.0738  0.0298
71824W        W 9318   0.883  21.737  15.138  0.0168 -0.1203  0.0840
71825W        W 9319  11.555   1.087   8.267  0.1718  0.2204 -0.0435
71826W        W 9320  23.679  16.643  14.453 -0.2163 -0.1404 -0.1060
71827W        W 9321  14.276  23.173  24.959 -0.2158 -0.1178  0.1396
71828W        W 9322  32.474  32.409  12.912 -0.1993 -0.0396 -0.2513
71829W        W 9323  35.019  31.757  16.556  0.1102 -0.4071 -0.1280
71830W        W 9324  34.062   6.414  13.894  0.2804 -0.1451 -0.0408
71831W        W 9325   0.628   1.032  20.759  0.1821  0.2553 -0.0653
71832W        W 9326  22.097  13.901  19.906  0.0062 -0.0399  0.0229
71833W        W 9327   5.784  16.956   4.785 -0.1732  0.0491  0.2098
71834W        W 9328   9.168  10.622  19.924  0.1587 -0.0112 -0.2994
71835W        W 9329  34.127   3.344  25.990 -0.0221 -0.3467  0.1192
71836W        W 9330  17.158   0.144  21.498  0.2349  0.1054 -0.3126
71837W        W 9331  13.829   0.874   3.163  0.0492 -0.0567  0.1655
71838W        W 9332  17.793  24.463  22.428 -0.2068 -0.3499 -0.0468
71839W        W 9333   1.476  11.827  22.822 -0.0828 -0.0316  0.2630
71840W        W 9334  11.017   5.506  21.691 -0.1829 -0.1061 -0.0203
71841W        W 9335   4.511   3.265  22.690  0.3453 -0.1067 -0.0103
71842W        W 9336  18.028  11.297   1.765  0.1620  0.2202 -0.1946
71843W        W 9337   1.324  32.346   7.608 -0.1918 -0.2006  0.2303
71844W        W 9338  20.173  31.851   1.545 -0.0363  0.1069  0.1829
71845W        W 9339  29.527   4.460   1.568  0.1217  0.0826 -0.0060
71846W        W 9340  23.799   9.050  16.817 -0.1051 -0.2470  0.1403
71847W        W 9341  18.906   2.706   5.251  0.3067 -0.2707  0.2499
71848W        W 9342  30.524  18.992  23.025  0.0492  0.2842  0.3207
71849W        W 9343   7.017  29.157  12.056  0.0063  0.1317 -0.0866
71850W        W 9344  29.635  33.630  20.261 -0.0101  0.1211 -0.1415
71851W        W 9345  26.552  21.523  23.318 -0.2025  0.3754 -0.1243
71852W        W 9346   8.979  30.080   7.669  0.0042 -0.4301  0.0699
71853W        W 9347  10.152   3.188   7.558  0.3073 -0.0267 -0.4242
71854W        W 9348  19.469  10.678  18.116 -0.2290  0.0474 -0.1645
71855W        W 9349  33.047  12.642  12.805 -0.0381  0.1183  0.1529
71856W        W 9350  17.936   0.687  17.724 -0.0921 -0.0157 -0.0802
71857W        W 9351  28.085  12.179  17.452 -0.2287  0.3282 -0.2763
71858W        W 9352  19.411  15.333  20.390  0.0621 -0.1735 -0.0653
71859W        W 9353   7.266  32.468   9.784  0.0610  0.0539  0.0292
71860W        W 9354  28.250  19.402  20.947  0.1124 -0.3787 -0.5586
71861W        W 9355  34.788   0.015   1.614 -0.1253  0.0208  0.1182
71862W        W 9356  23.465  31.000  25.598 -0.0549 -0.1126  0.1851
71863W        W 9357  32.591   5.439  15.796 -0.2629  0.3433 -0.1015
71864W        W 9358  10.574  31.627  13.351  0.0368 -0.3216 -0.0333
71865W        W 9359   6.648   0.227   2.238 -0.0113  0.0175 -0.1404
71866W        W 9360   8.993  32.291   0.317 -0.3331 -0.0295  0.0709
71867W        W 9361  33.930   7.994  23.954 -0.0478  0.3226  0.0028
71868W        W 9362  13.889  29.918  25.234  0.1307  0.1761 -0.1624
71869W        W 9363   5.144  23.057  25.780  0.2728  0.0231  0.1347
71870W        W 9364  19.629  26.049   3.232  0.4445  0.1153 -0.0735
71871W        W 9365   4.372   7.461   7.158  0.0244  0.0013  0.3503
71872W        W 9366  34.100  11.748   9.858  0.1185  0.3342  0.3485
71873W        W 9367  17.950  12.662   7.768 -0.0255  0.2887 -0.1589
71874W        W 9368  13.238   8.757   0.241  0.0314  0.4357  0.2584
71875W        W 9369   0.370   3.557   5.018 -0.0411  0.0734  0.1433
71876W        W 9370   8.647  34.425   1.904 -0.1615 -0.2186 -0.0540
71877W        W 9371  27.653  19.661  13.846 -0.0666 -0.2280 -0.0001
71878W        W 9372  29.708   0.155  21.224 -0.0252  0.0088  0.0561
71879W        W 9373  16.462   8.174   6.968  0.0514  0.1392 -0.0366
71880W        W 9374   2.359   1.638  25.747  0.0031  0.0478 -0.3400
71881W        W 9375  35.201  12.024  19.683 -0.1349 -0.1771  0.0751
71882W        W 9376   4.891  16.982   3.931 -0.3264 -0.0669 -0.1865
71883W        W 9377  28.981  11.985  15.782  0.0006 -0.0625 -0.3945
71884W        W 9378   3.540  34.951  10.719 -0.0527 -0.0585  0.2546
71885W        W 9379  32.734   0.589  11.917 -0.0732 -0.0843 -0.3944
71886W        W 9380  19.739  26.008   7.407  0.0294  0.0946  0.2971
71887W        W 9381  12.703  35.379  21.851 -0.2040  0.0857  0.4073
71888W        W 9382  11.711  21.458  14.370 -0.1359 -0.1667 -0.0332
71889W        W 9383  22.674   2.543   2.168 -0.1243 -0.1161 -0.0295
71890W        W 9384  11.735   5.401   3.965  0.1006  0.1913  0.0547
71891W        W 9385   2.941  29.368  25.431 -0.0596 -0.2736  0.2727
71892W        W 9386   7.504  18.133  21.631 -0.0689  0.0571  0.1431
71893W        W 9387  34.752  21.016  12.316 -0.1753  0.2957  0.1957
71894W        W 9388  30.707  21.321   7.323 -0.1206 -0.0032 -0.1585
71895W        W 9389  20.696  24.884  18.606  0.0126  0.2875 -0.0686
71896W        W 9390  33.447   2.880   6.103 -0.3232 -0.1664  0.0432
71897W        W 9391   5.277  15.598  20.958  0.2908  0.1398  0.1730
71898W        W 9392  27.281  29.648   2.744 -0.0086  0.1744 -0.3124
71899W        W 9393  28.905   9.965  23.248  0.0718 -0.2222  0.0096
71900W        W 9394  17.658  29.821  24.535 -0.1696 -0.0406 -0.1965
71901W        W 9395   0.704  14.656  14.827  0.2783  0.0517 -0.3617
71902W        W 9396  24.412   7.466   1.788  0.1329 -0.1049  0.0340
71903W        W 9397  13.520  30.306   7.063 -0.1801  0.6274  0.0973
71904W        W 9398   3.069   5.527  16.289 -0.0160  0.3057 -0.1284
71905W        W 9399  28.348   1.955  13.273 -0.3716 -0.0276  0.0156
71906W        W 9400  24.054  19.089  12.564 -0.1540 -0.1622 -0.1527
71907W        W 9401  29.662  23.131  19.572 -0.2089 -0.3309  0.1864
71908W        W 9402  28.401  23.480   8.259 -0.0612  0.0462 -0.0338
71909W        W 9403  23.718   4.908  15.672  0.2176 -0.0717  0.2632
71910W        W 9404  10.342  31.194  11.716 -0.3035  0.1315 -0.1777
71911W        W 9405  17.409  34.292  18.243 -0.3673  0.3050 -0.0185
71912W        W 9406  17.009   4.867  10.439 -0.0821 -0.1061 -0.1754
71913W        W 9407  31.589  28.744  21.286 -0.0202 -0.2245 -0.2580
71914W        W 9408  22.866   1.221  16.216 -0.2538 -0.3174 -0.1857
71915W        W 9409  19.138  24.846   2.471  0.0015  0.1593  0.1116
71916W        W 9410  25.473  21.395  22.999 -0.1018 -0.1871 -0.2175
71917W        W 9411  18.861   2.050  21.485 -0.1546 -0.0834  0.1146
71918W        W 9412   8.046  18.825   9.652  0.0112 -0.3204 -0.0625
71919W        W 9413  23.112  33.622   2.959  0.0944  0.0859 -0.1729
71920W        W 9414  17.190  17.450   7.327 -0.3119  0.0506 -0.0016
71921W        W 9415   9.351  17.700   3.977  0.1418 -0.1125 -0.4187
71922W        W 9416  33.047   4.314  13.176  0.2905  0.0604  0.2063
71923W        W 9417  26.358  33.421   5.737 -0.0304 -0.2554 -0.0121
71924W        W 9418  15.989   2.210   8.220 -0.0180 -0.3305 -0.0418
71925W        W 9419  34.256   4.223   6.126  0.0097  0.3350  0.1659
71926W        W 9420  22.190   5.339  22.425 -0.2208  0.0767  0.1819
71927W        W 9421   8.620  35.148   8.284 -0.1225  0.2444  0.1161
71928W        W 9422  23.007  29.467  19.137 -0.0825  0.0879 -0.0679
71929W        W 9423   2.139  20.819  11.779  0.0479  0.2094 -0.0445
71930W        W 9424  13.587  11.169  23.710 -0.4491  0.2740  0.0155
71931W        W 9425   9.105   9.933  23.352  0.1313  0.1064 -0.2919
71932W        W 9426  26.556   2.004  12.851 -0.0413 -0.2575  0.1484
71933W        W 9427  30.087  19.385  23.611  0.3670  0.0035  0.1304
71934W        W 9428  12.426  16.981  22.309  0.2138 -0.1480 -0.0636
71935W        W 9429  24.072  34.709   1.194  0.2151 -0.0586 -0.0198
71936W        W 9430   4.360  11.964   0.026 -0.0892  0.0669 -0.3439
71937W        W 9431  19.616  15.681   8.379 -0.1205 -0.1526 -0.1257
71938W        W 9432  13.944  19.723   0.931 -0.1746 -0.0707  0.3589
71939W        W 9433  24.096  26.996  19.685  0.0739  0.0631  0.2026
71940W        W 9434   7.244  11.448   6.180 -0.0093  0.2308 -0.1044
71941W        W 9435   9.445  29.295   9.461  0.1125 -0.2021 -0.2216
71942W        W 9436  19.564  33.015   1.692 -0.1661 -0.0741 -0.1304
71943W        W 9437  14.998  15.041   1.488 -0.2281 -0.0001  0.2092
71944W        W 9438   3.750   1.287  18.000 -0.0937  0.0759 -0.1285
71945W        W 9439   3.438   7.848  23.058  0.0247 -0.3721 -0.3212
71946W        W 9440  26.984   9.710  11.641  0.0144 -0.0121  0.0643
71947W        W 9441  26.658  33.861  14.235 -0.2698 -0.1547  0.2091
71948W        W 9442  14.223   1.853  25.688  0.0495 -0.3126  0.0392
71949W        W 9443  33.867  34.645   3.808 -0.1210 -0.1418  0.1061
71950W        W 9444  21.880  12.090   5.536  0.2568  0.0638  0.1712
71951W        W 9445   3.341  13.603  20.520 -0.1201 -0.3237 -0.1976
71952W        W 9446  20.708  18.172   3.250 -0.4024 -0.1466 -0.2130
71953W        W 9447   8.942  17.832  10.902 -0.1570 -0.0696 -0.0073
71954W        W 9448  16.157  33.462   9.488 -0.4318 -0.1189 -0.2395
71955W        W 9449   5.524   9.944  22.105  0.0937  0.3389 -0.4414
71956W        W 9450  16.096  23.080   5.777 -0.2958 -0.3088  0.0138
71957W        W 9451  22.260  30.187  17.293  0.3439  0.0930  0.2415
71958W        W 9452  11.912  32.347   3.981  0.0819 -0.2233  0.0091
71959W        W 9453  12.381  24.510   4.436 -0.1039 -0.4818 -0.1131
71960W        W 9454   3.275  11.736  18.307  0.1442  0.0278  0.1220
71961W        W 9455  31.293  13.157   5.233 -0.0978  0.1685  0.2876
71962W        W 9456   5.196  25.598  25.663  0.0412  0.0228  0.0847
71963W        W 9457  23.374  23.487  17.684 -0.0797 -0.0335  0.3115
71964W        W 9458  15.851  10.040   3.934  0.4127 -0.1748  0.0113
71965W        W 9459  34.038  26.441  23.810  0.1786  0.0430 -0.4773
71966W        W 9460  15.385   8.416  20.297  0.0499 -0.1782 -0.2191
71967W        W 9461  29.897  18.257  20.455 -0.0908  0.0832  0.1444
71968W        W 9462   8.437  21.887   2.468  0.3206 -0.4457 -0.0987
71969W        W 9463  15.447   8.213  18.717  0.0652 -0.1361 -0.4133
71970W        W 9464  20.520   8.803   1.100  0.0627 -0.5318  0.0450
71971W        W 9465  32.872  32.116  16.711  0.0798  0.0486  0.3154
71972W        W 9466   6.278   8.532   5.143  0.1657 -0.1451 -0.3107
71973W        W 9467  15.008  23.670   6.189 -0.4560  0.1097 -0.0845
71974W        W 9468   6.394  32.206  13.588 -0.2485 -0.2433 -0.1556
71975W        W 9469   7.388  23.735  22.290  0.2873 -0.1780 -0.1996
71976W        W 9470  10.193   4.263  23.187  0.0507 -0.2978  0.0813
71977W        W 9471  16.179   6.136   1.484  0.1656  0.2827  0.2961
71978W        W 9472   6.955  30.752  23.117  0.0075 -0.2124  0.1638
71979W        W 9473  24.294  12.431  21.899 -0.1437  0.0031  0.2077
71980W        W 9474  32.425  26.540  26.029 -0.1703 -0.0735 -0.0593
71981W        W 9475   8.494  19.902   7.487  0.1130  0.1789  0.0189
71982W        W 9476   5.566  17.936  20.439  0.0651 -0.1510  0.0381
71983W        W 9477  28.915   2.360  22.414 -0.0941  0.0461  0.1111
71984W        W 9478   3.623  23.482  23.869  0.0690 -0.0150 -0.3132
71985W        W 9479  11.422  31.641   7.985 -0.0919  0.0909  0.1136
71986W        W 9480   6.692  14.260   9.459 -0.3771  0.2872  0.1274
71987W        W 9481  24.965   2.893   5.557 -0.0354  0.4135 -0.1548
71988W        W 9482   6.366  17.615   5.556 -0.0882  0.1815 -0.0438
71989W        W 9483   3.400  12.169  23.977 -0.3680 -0.1369  0.3015
71990W        W 9484  10.032  23.452  10.121 -0.2672  0.0358  0.0877
71991W        W 9485   3.760   9.809   0.460  0.0812  0.0761  0.0695
71992W        W 9486   1.782   5.906  24.302  0.0519  0.2046 -0.1850
71993W        W 9487  24.961  22.305  11.675 -0.2360  0.0098 -0.2084
71994W        W 9488   2.679  22.267  20.011 -0.4069  0.2221 -0.1264
71995W        W 9489  22.562  14.526  24.845  0.0856 -0.1002 -0.0394
71996W        W 9490   9.309   9.680   4.603  0.2532 -0.0061  0.1242
71997W        W 9491  28.681   7.570  24.860 -0.1167 -0.1921 -0.2833
71998W        W 9492  13.142  27.042   4.005  0.2223 -0.1840 -0.0534
71999W        W 9493   8.585  31.402  15.996  0.0030 -0.2265  0.0586
72000W        W 9494   0.633  18.167  11.278  0.0215  0.0931 -0.0245
72001W        W 9495  21.978  15.025   0.433  0.0652  0.2362 -0.0610
72002W        W 9496   8.797  12.774   8.008 -0.0242  0.0751 -0.1262
72003W        W 9497   2.019   5.434  20.217 -0.0629 -0.5280 -0.0562
72004W        W 9498  16.701   6.704   8.121  0.1704 -0.0399 -0.0611
72005W        W 9499  33.378  11.943  21.454 -0.1410 -0.0785  0.1923
72006W        W 9500  15.261  17.745   2.407 -0.0074 -0.1971  0.2116
72007W        W 9501  20.116   8.416   0.710 -0.3370  0.1985  0.0197
72008W        W 9502   1.939   4.281   0.775 -0.0670  0.0136  0.2853
72009W        W 9503   5.813   2.273  11.446  0.0835  0.1288  0.1244
72010W        W 9504  28.697  24.099  18.871  0.3935 -0.0848  0.1883
72011W        W 9505  23.051   0.156  14.486  0.1810 -0.0446 -0.0020
72012W        W 9506  25.032  32.529   2.606 -0.0941  0.0163 -0.1931
72013W        W 9507  12.918  19.827  24.755  0.1576  0.1194  0.2412
72014W        W 9508  19.411  27.649  24.440  0.3372 -0.3179  0.1740
72015W        W 9509   5.273  25.354   5.933 -0.0507 -0.0689 -0.1199
72016W        W 9510  10.144  32.796   4.821 -0.0608  0.1753  0.0315
72017W        W 9511  25.409  12.654  18.090 -0.0034  0.6627  0.0470
72018W        W 9512   7.669   1.356  22.650 -0.0122 -0.1393 -0.0193
72019W        W 9513  22.984  33.900  24.862 -0.3419 -0.0083  0.0145
72020W        W 9514  14.631  18.326   1.504  0.0053 -0.1397 -0.1081
72021W        W 9515  31.722   9.354  25.125  0.1501 -0.0018  0.1549
72022W        W 9516   3.934   3.043   6.875  0.0593 -0.0399 -0.0073
72023W        W 9517  29.628  25.522  11.492  0.2543 -0.2889  0.0473
72024W        W 9518  21.616  35.021   2.343  0.0344  0.0016 -0.0172
72025W        W 9519  20.384  19.254   3.985 -0.1610  0.2185  0.2092
72026W        W 9520  18.960  23.088   2.447 -0.3072  0.0857  0.1214
72027W        W 9521  30.688   3.302   0.822  0.0025 -0.1425  0.1013
72028W        W 9522  10.562  15.221   7.429 -0.3342 -0.1484 -0.0629
72029W        W 9523   1.220   0.127  25.090 -0.3124  0.2287  0.0620
72030W        W 9524   6.528   4.461   1.124  0.0988  0.3634  0.1582
72031W        W 9525  14.854  25.420   2.389 -0.2301 -0.1208 -0.0396
72032W        W 9526  19.213  29.264  16.920  0.0351 -0.0850 -0.3665
72033W        W 9527   2.420  18.044  12.469 -0.1477  0.0840 -0.0061
72034W        W 9528  33.174   2.850  25.929 -0.2443  0.4339  0.0803
72035W        W 9529  23.929  13.776  19.966  0.1125 -0.0891  0.0999
72036W        W 9530  23.190  20.020  13.538 -0.1210 -0.0259 -0.2069
72037W        W 9531  26.972   6.290   0.648 -0.1404 -0.2246  0.0630
72038W        W 9532  12.190   8.388   6.715 -0.2150 -0.0086 -0.2127
72039W        W 9533  32.183  32.083  25.322 -0.0301 -0.1095 -0.2573
72040W        W 9534  21.803  14.024  25.762  0.2221  0.2884  0.1760
72041W        W 9535   8.388   5.298  20.798 -0.2458  0.1455  0.2191
72042W        W 9536   6.311  25.275   7.222  0.1753  0.2400 -0.0978
72043W        W 9537  11.717   2.703   1.360  0.0042  0.0676  0.0219
72044W        W 9538   8.390  22.246   7.485 -0.1217  0.1630 -0.1769
72045W        W 9539  18.963  31.092   3.436 -0.1553  0.0239 -0.1002
72046W        W 9540  30.284  13.046  12.053  0.0680 -0.1008 -0.3793
72047W        W 9541  25.128  34.316  19.292  0.2654  0.1061  0.0786
72048W        W 9542  12.518   6.097  26.025 -0.0965  0.0075 -0.0494
72049W        W 9543  13.313  24.293  15.355 -0.0770 -0.3497  0.1243
72050W        W 9544  27.471  34.927  26.054  0.1437  0.0494  0.3120
72051W        W 9545   5.559  31.920  14.089 -0.1476  0.0067 -0.2915
72052W        W 9546  18.510   3.160  25.402 -0.0054 -0.1911 -0.1853
72053W        W 9547  22.028  15.202  22.467 -0.0229  0.0099 -0.3308
72054W        W 9548  21.964   3.147   6.870 -0.1888 -0.0726 -0.0414
72055W        W 9549  18.603  34.383  17.276 -0.0794  0.0859  0.1424
72056W        W 9550   2.792  27.404   8.421 -0.0177 -0.3906 -0.0681
72057W        W 9551  22.933   6.631   2.262 -0.0071  0.1964  0.4495
72058W        W 9552  10.645  32.029  16.146 -0.3499  0.0907 -0.0873
72059W        W 9553  26.755  21.730   9.558 -0.0825 -0.1044  0.1653
72060W        W 9554  22.945   8.512   1.317 -0.4127 -0.3207 -0.3801
72061W        W 9555  23.563  30.363   2.684  0.0446 -0.1133 -0.1545
72062W        W 9556   9.942  35.294  12.764 -0.1882 -0.1854  0.1924
72063W        W 9557  16.504  31.296  25.616  0.0962  0.2472  0.0882
72064W        W 9558  10.556  34.166   1.855 -0.1958 -0.0844  0.1270
72065W        W 9559   1.897  15.845  18.071  0.1898  0.1419 -0.0882
72066W        W 9560  21.752  22.663   3.006 -0.0713  0.1169 -0.1313
72067W        W 9561  18.802   6.037  18.644  0.1067 -0.1098  0.0704
72068W        W 9562  23.141  26.683  21.333  0.1033 -0.3758  0.0655
72069W        W 9563  32.453  28.578   0.208  0.1646  0.1681  0.2224
72070W        W 9564   5.900  31.017   4.065  0.0265  0.1419  0.2382
72071W        W 9565  16.564  10.819  19.513 -0.3111 -0.3122 -0.5784
72072W        W 9566  26.842  24.035  16.833  0.0495 -0.1411  0.0750
72073W        W 9567  24.746   3.279  12.519 -0.1016  0.0917  0.0347
72074W        W 9568   7.898   8.396   8.604  0.2691  0.0814 -0.1593
72075W        W 9569  32.954  11.980   0.702  0.1675  0.3532 -0.2081
72076W        W 9570   7.364   4.339   1.626  0.1572 -0.0079  0.0285
72077W        W 9571   2.140  13.099  25.416  0.5887  0.0646  0.0429
72078W        W 9572  32.104   6.080  24.772 -0.0151  0.0543 -0.0673
72079W        W 9573  26.696  29.559  22.478  0.1627  0.4180  0.1770
72080W        W 9574  17.764  24.906   5.538  0.1565 -0.1293  0.2171
72081W        W 9575   0.075  29.596   6.438  0.0861  0.2814  0.0644
72082W        W 9576   4.124  19.605  20.151  0.3562 -0.1903  0.0190
72083W        W 9577  31.324  32.391  24.489  0.0325 -0.0823  0.2066
72084W        W 9578  31.163  31.842  15.924  0.0249 -0.0772  0.1077
72085W        W 9579  16.579   5.417  21.366  0.0030 -0.1052 -0.2090
72086W        W 9580  13.465  27.263   0.653 -0.1306 -0.1047  0.0741
72087W        W 9581   5.365  11.381   4.804  0.0450 -0.0913  0.2875
72088W        W 9582  30.400  31.044  14.794  0.2816 -0.0956 -0.0185
72089W        W 9583  15.008   5.531  20.312 -0.4305 -0.0651  0.1469
72090W        W 9584  19.701  13.051  20.557 -0.1798 -0.1905 -0.3340
72091W        W 9585   7.160  13.026  10.743  0.2205  0.3569 -0.3565
72092W        W 9586   3.927   7.332  23.373  0.0564  0.0940 -0.2577
72093W        W 9587  26.019  31.080   3.816  0.0235  0.2837  0.1120
72094W        W 9588  31.414  11.367   8.203 -0.1336  0.0067 -0.1221
72095W        W 9589   8.758  15.694   3.069  0.0920  0.0375  0.1800
72096W        W 9590  24.588  24.621   2.836 -0.5684  0.3332  0.2776
72097W        W 9591  22.194   6.469  17.689 -0.3275  0.1143  0.3761
72098W        W 9592  26.969  12.164  16.828 -0.2482 -0.0239 -0.0767
72099W        W 9593  21.840   5.255  19.029  0.0661  0.1677 -0.0714
72100W        W 9594  13.079  13.243  14.366  0.1049 -0.0141  0.1761
72101W        W 9595  34.932  13.141  10.654  0.0437 -0.0515 -0.1672
72102W        W 9596   5.533   7.661   8.966 -0.0035 -0.1028  0.0997
72103W        W 9597  33.718  27.434  18.433 -0.0870 -0.1954  0.0974
72104W        W 9598  21.497  34.914  16.444 -0.1943 -0.4281 -0.1455
72105W        W 9599   9.334  13.985   9.870  0.0493  0.2409  0.2217
72106W        W 9600  26.342   1.061   1.255  0.1923  0.1426 -0.0312
72107W        W 9601   4.657  18.784  21.172  0.0537  0.4558  0.1851
72108W        W 9602  16.470  11.883   6.578  0.0117 -0.0174  0.0677
72109W        W 9603  14.411  31.995  13.529 -0.1957 -0.0500  0.0924
72110W        W 9604  34.993  35.037  21.469  0.1449 -0.1153 -0.1760
72111W        W 9605  19.462   5.939   9.811 -0.2437 -0.1878 -0.1664
72112W        W 9606   5.541  14.946  22.087 -0.0007  0.0023  0.2686
72113W        W 9607  26.688   3.414  21.359  0.3043  0.0499  0.1750
72114W        W 9608  14.415   8.870  20.799 -0.2359  0.1844 -0.0262
72115W        W 9609  29.880  17.656  24.370 -0.1132  0.1891  0.3000
72116W        W 9610   4.054  13.669  25.069 -0.1422 -0.1990 -0.0555
72117W        W 9611  25.697   5.163   1.985 -0.0696 -0.0382 -0.4854
72118W        W 9612   0.895   9.942   2.868  0.1691  0.2140 -0.0393
72119W        W 9613  34.974  16.768  10.803 -0.0176  0.3460 -0.0654
72120W        W 9614  27.266  15.073   6.820  0.0329 -0.3262  0.2081
72121W        W 9615  24.640  10.082  16.925  0.1536  0.0847 -0.1925
72122W        W 9616  32.034  29.941  25.414 -0.0914 -0.3908  0.1366
72123W        W 9617  30.828  29.613  22.467 -0.1076 -0.0445 -0.1479
72124W        W 9618  34.549   7.875  22.834 -0.3019  0.0970  0.0410
72125W        W 9619  10.975   0.540  13.852  0.1295  0.0223 -0.2034
72126W        W 9620  24.826  20.780  20.888  0.0264 -0.0856 -0.1132
72127W        W 9621  15.701  10.766   1.513 -0.3362  0.0734 -0.1889
72128W        W 9622  35.254   4.983   6.058  0.1033  0.0410 -0.0391
72129W        W 9623  11.259   6.362   9.424 -0.2421  0.0819 -0.0891
72130W        W 9624   3.372   9.874  15.750  0.3665 -0.1859  0.0457
72131W        W 9625  19.853  21.945   4.657 -0.0309 -0.0770 -0.0136
72132W        W 9626   6.383   5.664   3.062  0.2220  0.2943 -0.1571
72133W        W 9627   2.130  30.989   0.972  0.1303 -0.0194 -0.0012
72134W        W 9628  26.279  31.441  12.456  0.0101  0.1353  0.2004
72135W        W 9629  26.910  20.388  13.963  0.2087  0.0388  0.1944
72136W        W 9630  14.376   2.865   0.365 -0.1929  0.3814 -0.1563
72137W        W 9631   6.638  17.896  21.904  0.0051  0.0335  0.0076
72138W        W 9632  23.122  17.033  15.493  0.2558 -0.2155 -0.2480
72139W        W 9633  32.027  27.321   1.542 -0.2446  0.0029  0.1459
72140W        W 9634  19.425  29.088  24.973  0.0216  0.2967 -0.0411
72141W        W 9635  34.871  27.217  25.326  0.0835 -0.2469  0.2393
72142W        W 9636  19.855  27.715   6.983  0.0175 -0.2031 -0.0778
72143W        W 9637  34.824  25.097  16.646 -0.0276 -0.0289 -0.3088
72144W        W 9638  27.689   9.524  23.917 -0.1970 -0.2168  0.0573
72145W        W 9639   0.763  34.703   6.531 -0.1884  0.0546  0.1345
72146W        W 9640   1.348  22.452  14.547  0.0848 -0.2643 -0.1340
72147W        W 9641   0.737  15.873  13.116  0.1524  0.1282  0.3427
72148W        W 9642  22.459  31.582   1.038  0.1294 -0.0308  0.1445
72149W        W 9643  19.276  33.730  19.437 -0.0331 -0.3152  0.1687
72150W        W 9644  25.561  27.264   0.005  0.0874  0.0169 -0.1927
72151W        W 9645  27.609  14.563  10.197 -0.1425 -0.2254  0.1597
72152W        W 9646   2.802  26.260   6.076 -0.0110  0.0975 -0.1669
72153W        W 9647  34.444   0.486  20.700  0.0075 -0.2753  0.0783
72154W        W 9648  20.390  12.968   6.364 -0.1200 -0.3181  0.0735
72155W        W 9649   1.473  28.993  18.687  0.2803  0.2594  0.3234
72156W        W 9650  14.964  14.475   7.331  0.0531  0.0412  0.0285
72157W        W 9651  23.555   3.263  15.677  0.1385  0.0652  0.0269
72158W        W 9652  11.136  24.453  12.312 -0.0335  0.0652  0.1299
72159W        W 9653  31.039  27.259  19.169  0.0867 -0.1201  0.3672
72160W        W 9654   7.743  21.897   0.983  0.0495  0.0100  0.0587
72161W        W 9655  32.102  27.385   1.068  0.0296  0.1246  0.0885
72162W        W 9656  13.519  22.520   5.711 -0.2246 -0.0831  0.3075
72163W        W 9657  16.303  19.459  22.631 -0.1745  0.2772 -0.3503
72164W        W 9658   8.193   8.923  24.367  0.1452 -0.0681 -0.0269
72165W        W 9659  31.086  26.021  16.600  0.4002 -0.0187  0.0305
72166W        W 9660  24.722   7.437  14.048 -0.2144  0.3013  0.2437
72167W        W 9661  33.490  23.884  17.494  0.0708 -0.3003 -0.2090
72168W        W 9662  22.477  31.342  21.778 -0.0866 -0.3605 -0.2444
72169W        W 9663  21.024   5.605   4.466  0.1542 -0.3885 -0.1426
72170W        W 9664  22.332  26.494  14.673  0.2674 -0.3828  0.2878
72171W        W 9665   1.997  30.752  19.660  0.1263 -0.2133 -0.0891
72172W        W 9666  25.011  29.690  17.562 -0.0492  0.1684  0.0113
72173W        W 9667   5.386  12.410  10.046 -0.1258 -0.1951  0.1232
72174W        W 9668   1.721  33.458   0.394 -0.1780 -0.1387 -0.0983
72175W        W 9669  25.630   0.073  11.710 -0.0959 -0.4095  0.0656
72176W        W 9670  13.461  33.237  23.547  0.0859  0.1315  0.1296
72177W        W 9671  27.969  29.758  10.516  0.0438 -0.2475  0.0532
72178W        W 9672  13.218  17.087   5.311  0.1155 -0.0051  0.0179
72179W        W 9673  14.451  13.846  11.178 -0.0775  0.1673 -0.1739
72180W        W 9674  30.936  17.972  17.232  0.1050  0.2239  0.0797
72181W        W 9675   0.919  10.684  22.301 -0.0376 -0.0337 -0.1401
72182W        W 9676  12.013  29.377  12.635  0.0457 -0.1952  0.3151
72183W        W 9677  35.349  28.914   5.909 -0.2352  0.2940  0.2398
72184W        W 9678   8.038  21.860   5.817  0.0877  0.0745  0.0785
72185W        W 9679  33.773  11.594  21.285 -0.2684  0.1124  0.0587
72186W        W 9680  28.903  22.445  11.705  0.0385 -0.0680 -0.1822
72187W        W 9681  18.843  18.454   9.597  0.1793 -0.0871  0.1852
72188W        W 9682  17.590  34.838   5.110 -0.2161 -0.2880  0.0433
72189W        W 9683  21.274   4.329   2.899  0.1309 -0.3293  0.4630
72190W        W 9684  30.790  29.924  11.669  0.0234  0.3632  0.1978
72191W        W 9685  31.077  28.406  17.456  0.1343 -0.1279  0.2583
72192W        W 9686  29.421  22.012  14.276  0.1374 -0.0584 -0.0431
72193W        W 9687  15.195   2.670   0.034 -0.0441  0.2099 -0.3662
72194W        W 9688   9.575   4.680  22.078  0.1133 -0.0684 -0.3915
72195W        W 9689  18.489  34.426  24.545 -0.2392 -0.0702  0.0747
72196W        W 9690   8.516  19.561   0.968 -0.0141  0.1270  0.1229
72197W        W 9691  29.248  34.836  15.119 -0.3642  0.1314  0.0228
72198W        W 9692  33.075  12.687  21.627  0.0030 -0.1926  0.1279
72199W        W 9693  13.273  24.749  10.862 -0.2330  0.0788  0.2887
72200W        W 9694   6.762  13.826  24.240 -0.2645 -0.1738  0.1438
72201W        W 9695  25.750  23.441  24.266  0.0281  0.1729 -0.0987
72202W        W 9696  28.841  13.201  23.112 -0.0725  0.0767  0.2472
72203W        W 9697  33.183  16.403   7.495  0.3366 -0.1559 -0.3803
72204W        W 9698  16.889  25.254   4.886 -0.3163 -0.0914 -0.0518
72205W        W 9699  18.625   7.650   7.151  0.1828  0.1122 -0.1689
72206W        W 9700  23.557  10.713  24.324  0.1146 -0.1581 -0.0154
72207W        W 9701  26.436  17.271   7.206 -0.1433  0.1928  0.0536
72208W        W 9702  20.327   7.546  19.834  0.1107 -0.3694 -0.3529
72209W        W 9703   9.949  21.976  10.465 -0.1059  0.0882 -0.1568
72210W        W 9704  12.886  33.040  13.307  0.1707 -0.0579  0.0551
72211W        W 9705  31.441   8.340  17.789 -0.2185  0.3068  0.0889
72212W        W 9706  26.444  18.181  12.229 -0.2269  0.2967  0.1385
72213W        W 9707  32.699  11.440  20.793 -0.2363 -0.0602 -0.0206
72214W        W 9708  26.130  10.847  16.960 -0.0537 -0.0516 -0.0402
72215W        W 9709  28.280   0.032  21.744  0.0071 -0.1468 -0.1227
72216W        W 9710  22.978  28.232  18.588 -0.1038 -0.0608  0.1041
72217W        W 9711   0.676   0.522  17.447 -0.3246  0.2101  0.1471
72218W        W 9712  27.511  26.412  20.679 -0.0479  0.0763  0.1200
72219W        W 9713   0.678  24.700  16.517  0.3930  0.0444  0.0182
72220W        W 9714   7.360   9.266  23.795  0.0929  0.1606 -0.0424
72221W        W 9715   0.443  30.051  22.805  0.2267  0.3956 -0.0985
72222W        W 9716  17.242   7.293  11.584 -0.0839 -0.1113  0.0719
72223W        W 9717  29.811  11.541  18.344  0.1094 -0.1660 -0.3164
72224W        W 9718   9.169  27.566  13.030  0.1778  0.0851 -0.1824
72225W        W 9719   2.796  13.207   3.359 -0.1614 -0.2170 -0.1852
72226W        W 9720  10.772  23.066  25.315  0.0754  0.2150 -0.0446
72227W        W 9721  16.991  13.140   3.660 -0.1386  0.0696 -0.1926
72228W        W 9722  31.458  28.378  17.123  0.3181 -0.1502  0.1439
72229W        W 9723  33.950  25.970  22.582 -0.1507  0.0476  0.1491
72230W        W 9724   0.807   5.989   3.653 -0.3023  0.0076 -0.0835
72231W        W 9725  20.233  22.665  19.136  0.0002  0.2385 -0.3320
72232W        W 9726  23.188   5.523   6.309  0.1718  0.1695 -0.1003
72233W        W 9727   1.311   4.411   0.210  0.2506 -0.0108  0.1309
72234W        W 9728  32.491  31.433   4.221  0.1215 -0.1132 -0.0043
72235W        W 9729  25.769   6.661   1.489 -0.0070  0.0091  0.1661
72236W        W 9730  25.610  13.913  10.579  0.0081  0.0343  0.2909
72237W        W 9731   2.938  29.083   3.953  0.3198 -0.0958  0.1238
72238W        W 9732  16.512   9.743  24.622  0.1875  0.1018 -0.0803
72239W        W 9733   5.734   2.459   9.637  0.2108  0.1013  0.3959
72240W        W 9734  21.761   8.700   7.062  0.1002  0.1015  0.2567
72241W        W 9735   6.236   2.115  18.467  0.0066  0.3183  0.0348
72242W        W 9736  31.033  27.829  18.894  0.1538 -0.3870  0.0581
72243W        W 9737  25.331  26.581  20.059 -0.2964 -0.1921 -0.0223
72244W        W 9738  23.776  21.312  22.767  0.2814 -0.2268  0.1628
72245W        W 9739   8.139  12.705   4.450 -0.4635 -0.0489  0.2420
72246W        W 9740  23.328  26.782  22.518  0.0648 -0.0370 -0.1111
72247W        W 9741  32.000   1.534   3.615 -0.3768  0.0882 -0.2805
72248W        W 9742  29.436  12.136  14.184  0.1016 -0.0614 -0.3541
72249W        W 9743   9.475   4.270   8.962 -0.1043  0.1096  0.1525
72250W        W 9744  20.780  30.827  19.294 -0.1065  0.3746 -0.1461
72251W        W 9745   0.900  11.264  20.951 -0.1604  0.1627 -0.2157
72252W        W 9746   1.603   4.961  20.736 -0.0757  0.0353  0.1105
72253W        W 9747  18.986  27.631   7.446  0.0410 -0.0435  0.2483
72254W        W 9748  10.270  29.471  17.664  0.0589  0.2585  0.1479
72255W        W 9749  19.387  10.802  19.514  0.1970 -0.0871 -0.2775
72256W        W 9750  18.864  23.641   7.597  0.3881  0.0702  0.1447
72257W        W 9751  26.068  25.660  19.200 -0.0481  0.0757  0.1887
72258W        W 9752   0.648  26.210  15.124 -0.1922 -0.0253  0.5370
72259W        W 9753  34.549  15.553  11.003  0.1265  0.3085  0.3278
72260W        W 9754  28.979   7.030  14.972  0.1721 -0.1164  0.0938
72261W        W 9755  19.342  34.766  15.721  0.0172  0.0549 -0.0949
72262W        W 9756  17.670  32.268   1.011  0.1984 -0.2068 -0.3157
72263W        W 9757   1.769  23.580  18.126  0.0509 -0.2437  0.1669
72264W        W 9758   4.072  31.994  19.713 -0.1939 -0.2534  0.1100
72265W        W 9759  13.995   8.085   1.070 -0.2517  0.0067  0.0336
72266W        W 9760  24.585   2.102   0.536  0.0772 -0.1091 -0.2257
72267W        W 9761  30.082  20.731  10.277 -0.1533 -0.1539 -0.1159
72268W        W 9762   5.785   0.385   0.399 -0.0491  0.5163 -0.2624
72269W        W 9763  14.888  11.730   8.546 -0.0860  0.3115  0.0608
72270W        W 9764   8.858  30.773   2.325 -0.0459 -0.0327 -0.2205
72271W        W 9765  25.208  30.895  18.840  0.0311  0.1625  0.0431
72272W        W 9766   3.233   7.877   4.149 -0.0604 -0.0379  0.1593
72273W        W 9767   4.104  26.923   0.355 -0.1987  0.1622 -0.0424
72274W        W 9768   3.127   3.973  15.553  0.2025  0.0649  0.0015
72275W        W 9769  13.538  11.075  20.915 -0.1591  0.2007 -0.0715
72276W        W 9770  10.407  26.525   5.166 -0.2468  0.2222 -0.0669
72277W        W 9771  34.632   6.271  19.972  0.1578 -0.0368  0.0221
72278W        W 9772  20.824  15.846  19.378  0.0701 -0.0821  0.0387
72279W        W 9773  14.702  29.671   3.191 -0.3312  0.2000 -0.1277
72280W        W 9774  13.871  14.157   5.861 -0.0982  0.2370 -0.0225
72281W        W 9775  12.154  24.243   7.293 -0.1240  0.2291 -0.1197
72282W        W 9776   2.666  27.683  17.342 -0.0453 -0.1108  0.0459
72283W        W 9777  24.212  28.244  24.817  0.0946 -0.0463 -0.2900
72284W        W 9778  16.075   8.719  25.466 -0.2445  0.3543  0.0950
72285W        W 9779  34.780  20.822  24.109  0.0166  0.0424  0.1016
72286W        W 9780   8.790   1.797  20.685  0.2171  0.1148  0.0986
72287W        W 9781  17.191   7.816  23.058 -0.1336 -0.1889 -0.3307
72288W        W 9782  15.767  21.339  22.958 -0.0232 -0.1287  0.1042
72289W        W 9783   7.140  20.033  19.711  0.1407  0.1549  0.0966
72290W        W 9784  17.733  35.183   2.660 -0.0414  0.1441 -0.4752
72291W        W 9785   5.582  34.053  22.937 -0.2318  0.1787  0.0904
72292W        W 9786  31.371  19.238  24.316  0.1151  0.1283 -0.0204
72293W        W 9787  29.277  31.862   5.308  0.2573  0.5330  0.3546
72294W        W 9788  29.929  12.778   6.779 -0.1873 -0.2252  0.1237
72295W        W 9789  15.039   9.918   1.838  0.0257  0.0225  0.0909
72296W        W 9790  17.314  28.382   2.595  0.1430 -0.1554 -0.1611
72297W        W 9791  31.321  32.407   6.070 -0.1607  0.0943 -0.0269
72298W        W 9792  32.058  10.078  19.324  0.0212  0.0305  0.3503
72299W        W 9793   2.527  29.985   8.137  0.1733 -0.0538  0.3753
72300W        W 9794  11.034  22.560   5.189  0.0549 -0.1505  0.1275
72301W        W 9795   8.835  34.311  14.074  0.0467 -0.2992  0.0837
72302W        W 9796   6.582   6.466   1.377  0.2913  0.0531  0.1504
72303W        W 9797  19.140  12.486   8.469  0.3633 -0.0170  0.0408
72304W        W 9798  11.077  29.490  14.845 -0.0851 -0.0788  0.0412
72305W        W 9799  25.883  29.960  14.869  0.0483 -0.1056  0.2542
72306W        W 9800  12.924  29.689   4.429  0.1219  0.0896 -0.1598
72307W        W 9801  29.070   4.794  21.019 -0.1495  0.4088  0.1468
72308W        W 9802  22.095  12.808  23.146  0.1122 -0.1014  0.0114
72309W        W 9803  32.073  18.324  21.898  0.0469  0.0251  0.2326
72310W        W 9804  17.377  28.651  25.326  0.0042 -0.4414 -0.0587
72311W        W 9805   6.197  25.718   1.698  0.2296  0.3178 -0.0842
72312W        W 9806  33.989   2.852   6.219  0.0626  0.0159 -0.1329
72313W        W 9807  23.385   9.221  19.578  0.0222  0.0152 -0.2087
72314W        W 9808   4.488   1.802   1.191 -0.3004 -0.0506 -0.0537
72315W        W 9809   2.457  10.790  16.512 -0.3338 -0.2935 -0.3048
72316W        W 9810  22.529  15.406  21.744 -0.2993  0.2321  0.4254
72317W        W 9811  14.701   4.914  18.337  0.2211  0.0435  0.4254
72318W        W 9812  27.819  32.239   0.502  0.0906 -0.2852  0.2792
72319W        W 9813  26.947  10.520  17.493  0.1909 -0.1525  0.0826
72320W        W 9814  21.412   3.889   1.615 -0.3384 -0.1125 -0.2597
72321W        W 9815  30.798   1.502   5.019 -0.1659  0.3972 -0.1830
72322W        W 9816  30.828   4.468  24.582  0.2254 -0.0212  0.1596
72323W        W 9817  17.754   7.516  21.083  0.1136 -0.2342 -0.1561
72324W        W 9818   2.659  20.029  22.844  0.2737  0.1128 -0.0354
72325W        W 9819  18.810  16.109  21.623  0.1780 -0.2057 -0.0185
72326W        W 9820   3.984  27.357  19.368 -0.0568 -0.0729 -0.1541
72327W        W 9821  22.370   1.134  20.888 -0.0813  0.2410 -0.2755
72328W        W 9822  10.414  35.022  23.767 -0.1215 -0.0658  0.0189
72329W        W 9823  20.742   0.725  18.557 -0.1592  0.1897  0.2714
72330W        W 9824  15.870  31.396  25.730  0.0341  0.0229 -0.0116
72331W        W 9825  27.416   1.439   0.240 -0.1875 -0.0026  0.0889
72332W        W 9826  20.738  10.724   2.290  0.2214 -0.0880  0.2637
72333W        W 9827  31.507   4.757  16.114 -0.2433 -0.0492 -0.1348
72334W        W 9828  29.438  28.456   9.612  0.0637 -0.1854  0.3653
72335W        W 9829   6.642   9.335  21.841  0.1078 -0.1363  0.3606
72336W        W 9830  19.147   8.623   5.536  0.0517 -0.1308 -0.2435
72337W        W 9831  25.377   2.766  12.966  0.0672 -0.0025  0.0956
72338W        W 9832  31.796  14.168  21.490 -0.1658 -0.2480 -0.1050
72339W        W 9833  26.461  23.087  24.694  0.1689 -0.0035 -0.0215
72340W        W 9834  21.991  27.118  24.398 -0.0654  0.0113 -0.1782
72341W        W 9835  27.716  27.648  14.713  0.1410 -0.1878 -0.1678
72342W        W 9836  16.416   5.574  24.168 -0.1212  0.1254  0.2733
72343W        W 9837  29.425  34.710  14.024 -0.0678 -0.0858  0.0321
72344W        W 9838  26.876  34.142  22.586 -0.4688  0.0879 -0.0140
72345W        W 9839  34.676   4.417  25.818  0.0455  0.1651 -0.0889
72346W        W 9840  24.183  21.199  21.424 -0.1688  0.2225 -0.1004
72347W        W 9841  13.778  26.967  15.510  0.0076  0.0833  0.1246
72348W        W 9842  17.842  27.927  22.618 -0.0293  0.0255 -0.2209
72349W        W 9843  32.394  21.609  18.380 -0.1802 -0.0343 -0.0785
72350W        W 9844  18.533  20.204  13.021  0.1046  0.0112  0.0659
72351W        W 9845   7.835   6.125  25.404 -0.0576  0.2308 -0.0286
72352W        W 9846   5.689   2.948   9.561 -0.0529  0.1149  0.2371
72353W        W 9847   3.948  20.892  23.965  0.2008  0.3846  0.1050
72354W        W 9848  25.729   1.419   5.172 -0.1346 -0.0634 -0.0538
72355W        W 9849   4.741  16.528   6.001  0.3053  0.0563 -0.2142
72356W        W 9850  12.878   8.888  25.556  0.2094 -0.1700 -0.2116
72357W        W 9851  23.886  18.292  18.494  0.0785 -0.0114 -0.1135
72358W        W 9852   8.951   6.813   5.920  0.1141 -0.2048 -0.1369
72359W        W 9853   1.468  29.085  23.639 -0.1675 -0.0899 -0.1328
72360W        W 9854  32.693  28.830   3.349 -0.1480  0.3004 -0.2310
72361W        W 9855  27.825  21.212   9.627  0.4398  0.2621  0.0044
72362W        W 9856  33.845  32.852  21.408  0.2438  0.2290 -0.1110
72363W        W 9857   5.959   0.369  19.888 -0.1048  0.0475  0.1196
72364W        W 9858  28.032  20.144  13.334  0.0720  0.1046 -0.0307
72365W        W 9859  14.630  34.130  23.769  0.0400  0.2659 -0.1187
72366W        W 9860  20.954  14.700   3.223 -0.0338  0.0956  0.2331
72367W        W 9861   6.971   5.774  20.352 -0.0134 -0.0356  0.0446
72368W        W 9862   2.134  31.851   2.862 -0.0013  0.0526 -0.1240
72369W        W 9863   5.516  15.938   7.855 -0.5645 -0.2534 -0.3693
72370W        W 9864  32.549   5.989  19.017  0.2040 -0.1978  0.1429
72371W        W 9865   8.501   1.040  20.857 -0.1231 -0.1586  0.0450
72372W        W 9866  28.631  33.492  18.017 -0.0987 -0.3376 -0.4690
72373W        W 9867   0.290  32.500  20.480  0.1482  0.1082 -0.2583
72374W        W 9868  21.009  27.143   4.614  0.0666 -0.0301 -0.2330
72375W        W 9869   6.002  18.568  19.300  0.3487  0.1567  0.1397
72376W        W 9870  23.095   4.676   6.774  0.0580  0.0984 -0.1065
72377W        W 9871  17.921   7.517  11.080 -0.1334 -0.0206  0.1181
72378W        W 9872  11.720  14.609   7.478 -0.1784  0.0695  0.2396
72379W        W 9873  33.496  31.684  20.804  0.0254  0.3635 -0.2103
72380W        W 9874  35.116  12.735  13.974 -0.1528 -0.2425 -0.1820
72381W        W 9875   5.705   9.975   4.385 -0.1624 -0.1759 -0.2173
72382W        W 9876  30.114  33.490  12.263  0.2386 -0.3228  0.0057
72383W        W 9877   2.589  10.207  17.867  0.2641  0.0685  0.1934
72384W        W 9878  14.046   3.555  18.841  0.1363 -0.3118  0.1237
72385W        W 9879  32.452   6.197   1.730  0.3797  0.4036 -0.1927
72386W        W 9880   2.426   2.389   6.851 -0.0822 -0.2125  0.2090
72387W        W 9881   1.238   1.968   2.656 -0.3803 -0.0285 -0.2499
72388W        W 9882  11.917  30.571   9.698 -0.1134 -0.1365 -0.0615
72389W        W 9883  27.155  29.537  19.980  0.3786 -0.1052 -0.0217
72390W        W 9884  15.817  33.362  22.758 -0.0439  0.1108 -0.1615
72391W        W 9885  29.658  34.096  20.059 -0.2069  0.4619  0.0850
72392W        W 9886  23.446  19.936  24.819 -0.3099  0.1289 -0.0862
72393W        W 9887  27.315   6.972  17.289  0.1449  0.1113  0.1022
72394W        W 9888   5.618  31.741  13.420 -0.3789 -0.0879  0.1428
72395W        W 9889   5.648   1.885   2.635 -0.0458  0.2886  0.0524
72396W        W 9890  20.484  28.007  17.788 -0.2259  0.3740 -0.2645
72397W        W 9891  35.103  29.879  24.741 -0.1107 -0.0519 -0.0713
72398W        W 9892   2.624  26.125   3.629 -0.4601 -0.0565 -0.3507
72399W        W 9893   3.727   0.559  20.589 -0.1865  0.0165  0.0057
72400W        W 9894  32.305  19.535  19.052 -0.1397 -0.3060 -0.1866
72401W        W 9895  28.414  27.731  13.494  0.0490  0.0080  0.6679
72402W        W 9896  30.618  19.890  23.011  0.0217 -0.4806  0.0284
72403W        W 9897   2.335  22.030  21.131 -0.1419 -0.3413  0.3009
72404W        W 9898  26.788  27.951  18.200  0.2851 -0.1181 -0.2763
72405W        W 9899  16.218   5.673   2.745 -0.0287  0.2759  0.2399
72406W        W 9900  32.107  20.312   5.924 -0.0127 -0.0167 -0.0374
72407W        W 9901  22.616   2.610  25.022 -0.0278  0.3643  0.0259
72408W        W 9902  19.725  15.574   4.165 -0.0595 -0.1746 -0.2311
72409W        W 9903  13.593  25.728  23.473 -0.0642  0.2042  0.1719
72410W        W 9904  27.146  13.059  13.009  0.2148  0.0911  0.1346
72411W        W 9905  20.431  15.561  19.513  0.2676 -0.0569 -0.1087
72412W        W 9906   9.821  29.054  14.436 -0.2481 -0.2277  0.1284
72413W        W 9907   6.211   3.260   8.629 -0.0595 -0.0809 -0.1563
72414W        W 9908   0.924  11.542  20.578  0.1010  0.1284 -0.1585
72415W        W 9909  25.392  23.875  11.025 -0.1219  0.3391  0.0881
72416W        W 9910   0.604  23.690  18.646 -0.1590 -0.0870  0.1385
72417W        W 9911  15.898   3.814   7.545  0.1503 -0.0753 -0.0283
72418W        W 9912  20.119   0.741  16.478  0.4022 -0.1724  0.0172
72419W        W 9913  33.530   2.597  15.320  0.1256 -0.1192 -0.1597
72420W        W 9914  31.112   9.842  25.661 -0.1293 -0.0043  0.1146
72421W        W 9915  14.871  18.694   6.307  0.3245  0.0302 -0.0145
72422W        W 9916  25.403  31.002  15.135 -0.0737  0.4060  0.2401
72423W        W 9917   3.456  12.905  21.034 -0.1261 -0.1648  0.0582
72424W        W 9918  12.872  15.928  12.845  0.0128 -0.0696 -0.2020
72425W        W 9919   2.657  25.158  18.689  0.2989 -0.4000 -0.4393
72426W        W 9920  14.729   3.535   5.521  0.0479 -0.0116  0.1307
72427W        W 9921  18.803  27.742   0.438  0.3766 -0.2719  0.0461
72428W        W 9922  16.260   9.624   4.332 -0.0549  0.1068  0.0836
72429W        W 9923  29.637  19.331  14.258  0.0631  0.0113 -0.1545
72430W        W 9924  22.207   5.867  18.992  0.1305 -0.1824  0.1142
72431W        W 9925   3.930   4.856  19.422 -0.1155  0.3898 -0.0437
72432W        W 9926  26.103  35.116  14.326 -0.0027 -0.1481 -0.2751
72433W        W 9927  16.144  16.544   5.316 -0.0668  0.2822  0.0082
72434W        W 9928  11.115  25.682   9.596  0.2206  0.2204 -0.0827
72435W        W 9929  23.956  16.740  21.344 -0.2800 -0.2040  0.2703
72436W        W 9930  22.081   5.371  23.467 -0.1664 -0.0262 -0.3694
72437W        W 9931  23.138   9.573  20.786 -0.1525 -0.0921 -0.0555
72438W        W 9932   0.277   7.059   0.211  0.2187 -0.2093  0.1853
72439W        W 9933  21.177   9.169  20.822 -0.0841  0.0649 -0.0810
72440W        W 9934  11.363  25.886  24.894  0.2447  0.1085  0.2621
72441W        W 9935   7.175  14.887  23.183 -0.0237 -0.0663 -0.0861
72442W        W 9936  11.801  22.622  10.318 -0.1239 -0.0110  0.0098
72443W        W 9937  27.294  12.682  11.468 -0.2574  0.3722  0.0139
72444W        W 9938  26.576  12.231  14.107  0.3428  0.0818  0.2165
72445W        W 9939  31.875  28.579  14.022 -0.2395 -0.2928  0.0547
72446W        W 9940   0.275  13.008   9.103 -0.0158  0.2484  0.1339
72447W        W 9941  20.669   3.453  24.035 -0.1701  0.4010 -0.0016
72448W        W 9942   1.080  24.396  17.204  0.0176 -0.0392 -0.2584
72449W        W 9943  35.133  25.966  17.010 -0.3893  0.0542 -0.2369
72450W        W 9944  34.296  22.678  13.831 -0.3397  0.1887  0.1249
72451W        W 9945   2.137  21.013  23.654  0.1173  0.0263  0.4937
72452W        W 9946   2.414  23.227  15.674 -0.1330 -0.2568  0.0022
72453W        W 9947  27.939  14.317  25.928 -0.3136  0.2009  0.2173
72454W        W 9948  30.358   3.088  24.105  0.1400  0.1090 -0.1348
72455W        W 9949  26.716  14.975   8.166 -0.1755 -0.0981 -0.4090
72456W        W 9950   6.400  19.191  23.027 -0.0230  0.0581 -0.0967
72457W        W 9951  12.691  34.403  20.194 -0.0289  0.1411  0.1296
72458W        W 9952  28.246   0.952   1.333  0.0116  0.0262  0.0022
72459W        W 9953  10.725  18.151   4.130 -0.1794  0.2427 -0.2520
72460W        W 9954  29.216  19.538  10.364  0.2142  0.1954 -0.1438
72461W        W 9955  23.288  20.263   0.994  0.1866  0.3230 -0.1761
72462W        W 9956  16.791  32.570   1.760 -0.0930  0.2276  0.2328
72463W        W 9957  22.907  30.199  15.238  0.0907 -0.0380 -0.0139
72464W        W 9958   7.901  15.733  21.098  0.1121  0.0173 -0.0345
72465W        W 9959   9.527  12.711  26.178  0.0462 -0.0988  0.0237
72466W        W 9960   1.974  10.471  23.497  0.1391  0.2204 -0.1331
72467W        W 9961  26.381   9.606   2.004  0.1013  0.1781  0.2623
72468W        W 9962   3.040  24.626   4.898  0.1761 -0.2160  0.1598
72469W        W 9963   5.590   1.491  20.433 -0.1144  0.1250 -0.5015
72470W        W 9964  25.492  23.504  25.322  0.1889 -0.2326 -0.1582
72471W        W 9965  25.345  32.460   1.582  0.4031  0.1534 -0.0307
72472W        W 9966  11.464  26.174   0.846 -0.1256 -0.2189 -0.1430
72473W        W 9967  34.701  16.305  12.205 -0.1790 -0.1684 -0.1192
72474W        W 9968  26.184  11.634   9.293 -0.0337  0.0261 -0.3552
72475W        W 9969  14.334  13.217  13.965  0.2278  0.0110 -0.0711
72476W        W 9970   7.787  22.015  26.048 -0.1624 -0.3256  0.0137
72477W        W 9971  28.360   8.537   1.579  0.1283  0.2365 -0.1879
72478W        W 9972  25.197  28.094  24.086  0.1341 -0.0641  0.1040
72479W        W 9973   2.705  25.746   2.800 -0.0502  0.1112 -0.0561
72480W        W 9974   0.046   4.480  21.592 -0.3812  0.0410 -0.2118
72481W        W 9975  30.522   1.479  12.674  0.0523  0.0954 -0.0472
72482W        W 9976  30.964  13.207   4.803  0.1489 -0.1730 -0.1748
72483W        W 9977  30.436   3.733  19.176  0.0509  0.0635  0.0096
72484W        W 9978  24.790  16.555  15.154 -0.1288 -0.1747 -0.0300
72485W        W 9979  13.752  18.255   5.863  0.1647 -0.0350  0.1035
72486W        W 9980  16.724  25.563   5.261  0.1012 -0.1466  0.2060
72487W        W 9981  30.164  30.321   5.089 -0.2398 -0.2614 -0.2271
72488W        W 9982  19.470  27.260  23.520 -0.0242 -0.1835 -0.2006
72489W        W 9983  25.307   3.029   3.097  0.1001 -0.1132 -0.0182
72490W        W 9984  22.097  28.902  23.677 -0.1052  0.0335  0.0709
72491W        W 9985  29.399  14.272  25.398  0.1901 -0.1413 -0.2320
72492W        W 9986  15.007  20.251  12.907 -0.0652 -0.0083  0.0236
72493W        W 9987  22.868   3.868  24.071  0.0272  0.0119  0.0516
72494W        W 9988   7.410  32.879  21.426  0.1847 -0.1585  0.3260
72495W        W 9989  10.802  23.702  12.171  0.0157 -0.2005 -0.1196
72496W        W 9990  12.541  12.801  10.992 -0.2028  0.1887  0.1602
72497W        W 9991   5.029  14.625  16.695 -0.2831  0.2064  0.1741
72498W        W 9992   6.084  23.660   0.537  0.0769  0.0562  0.3176
72499W        W 9993  13.160   4.087  23.931  0.0405 -0.1442 -0.2643
72500W        W 9994  13.982  14.887   3.512 -0.1335 -0.2248  0.1753
72501W        W 9995  16.090  10.894   3.626  0.3170 -0.0651  0.0008
72502W        W 9996  26.153  14.072   9.673 -0.0372 -0.2017  0.0973
72503W        W 9997   8.153  32.582  12.066 -0.1209 -0.1905  0.1944
72504W        W 9998  17.555  12.192   9.565  0.1703  0.6311 -0.0644
72505W        W 9999   7.039  13.706   6.590 -0.0149 -0.2171  0.3263
72506W        W10000  27.626  33.558  23.905 -0.0097 -0.0331 -0.1706
72507W        W10001   0.374  17.481  14.256 -0.2092 -0.0343 -0.0513
72508W        W10002   8.439   1.355  11.558  0.0167  0.0667  0.2632
72509W        W10003  34.094  21.956  13.392 -0.0425  0.0518  0.0791
72510W        W10004  27.929   8.584  11.389 -0.2138  0.0335  0.0497
72511W        W10005   5.769  27.126  23.358  0.2439 -0.1785  0.0775
72512W        W10006  31.384  23.799  20.966  0.1171  0.0012  0.1984
72513W        W10007   0.834  21.490  23.213  0.0532  0.1758 -0.0772
72514W        W10008  19.994  13.765   2.937 -0.1372  0.3352  0.1559
72515W        W10009   5.441   3.554  19.743  0.1178  0.0837  0.0293
72516W        W10010   4.675   1.483  22.888  0.1041 -0.1526  0.2198
72517W        W10011  30.568  27.098  12.211 -0.1343  0.0247  0.2899
72518W        W10012  18.265  21.504   5.199  0.2881 -0.0485 -0.1170
72519W        W10013  18.078  32.374  18.257 -0.0430 -0.0457  0.1696
72520W        W10014  35.338  18.952  18.516 -0.0182  0.1203 -0.0682
72521W        W10015   0.160  14.272  14.675 -0.0584  0.1216 -0.0033
72522W        W10016  31.227  27.006  12.924  0.0102 -0.1440 -0.2626
72523W        W10017  14.263  29.196   7.956  0.2612  0.1162 -0.2748
72524W        W10018  15.669  13.636   5.196 -0.2712  0.0041  0.1428
72525W        W10019  21.918  31.950  21.034  0.0904  0.1669 -0.2566
72526W        W10020   2.448  11.670  20.414  0.0225 -0.0529  0.0125
72527W        W10021  11.248   3.058   8.503 -0.2647  0.1798  0.0604
72528W        W10022   6.738   5.710  12.838  0.2648  0.0570  0.0075
72529W        W10023   7.196  33.856  25.944 -0.0689 -0.0596 -0.0792
72530W        W10024  20.255   4.084   5.179  0.0510  0.0160  0.3168
72531W        W10025   5.225   6.596   0.240  0.0662  0.0183  0.2473
72532W        W10026  16.370  29.546  24.102  0.0022  0.2046  0.0986
72533W        W10027  23.430   2.930  13.410  0.0817 -0.0393  0.2176
72534W        W10028  20.905  19.732   5.954 -0.1304  0.2447 -0.1232
72535W        W10029   8.105   4.461  20.618 -0.2469 -0.1051 -0.1935
72536W        W10030   0.259   8.676   2.492  0.1436 -0.1486 -0.0867
72537W        W10031  18.485  11.961  11.045 -0.0309  0.0514  0.0202
72538W        W10032  29.667   0.853  25.814  0.0679  0.1778  0.1407
72539W        W10033   7.938  18.213  13.929  0.0592  0.0363  0.0698
72540W        W10034   7.546   4.319   9.146  0.0753 -0.0642 -0.0239
72541W        W10035   5.846  34.004  21.960 -0.0798 -0.0124 -0.0454
72542W        W10036  23.045   7.501  24.526  0.0003  0.0791 -0.1668
72543W        W10037  14.595  34.634   3.370 -0.0761  0.0426 -0.0603
72544W        W10038  18.608  24.896   7.457  0.0450  0.3564  0.0454
72545W        W10039  27.121  23.481  25.247  0.2357  0.0251  0.1642
72546W        W10040  16.500  22.880   1.209 -0.2969  0.0386 -0.2161
72547W        W10041   5.737   1.209   6.123  0.0240 -0.0800 -0.0953
72548W        W10042  27.814  20.622   6.612 -0.0922  0.0193  0.0925
72549W        W10043   7.310  24.963   4.191 -0.0729  0.1685  0.3453
72550W        W10044   9.155  11.219   3.484  0.2815 -0.1150 -0.0793
72551W        W10045  27.567   5.804  17.629 -0.1749 -0.0304  0.2265
72552W        W10046  12.078  17.331   0.431  0.0004  0.3517  0.0834
72553W        W10047  31.553  16.789  21.734  0.1740  0.1469 -0.2412
72554W        W10048   3.760  23.776   0.885  0.4100 -0.1583  0.1818
72555W        W10049  13.954   0.720   8.304  0.2094  0.1725  0.0415
72556W        W10050   3.101  11.993  23.457  0.1366 -0.2369  0.0489
72557W        W10051  22.291   3.730  17.760  0.1391 -0.0091 -0.0509
72558W        W10052   1.204  21.615  16.032  0.1668 -0.0976 -0.3425
72559W        W10053  28.860  13.247  20.045  0.0611  0.1609 -0.1482
72560W        W10054  27.276  26.857  25.079 -0.1088  0.1322 -0.2211
72561W        W10055  11.446   1.545   5.572  0.0865  0.0601 -0.3464
72562W        W10056  14.249   9.962  25.337  0.0437  0.0238  0.0925
72563W        W10057  12.633  11.430   4.450  0.0170 -0.0185  0.4266
72564W        W10058  27.395  24.517  18.556 -0.2291 -0.0129  0.4511
72565W        W10059  22.166  22.400   1.127  0.0562 -0.2617  0.0004
72566W        W10060  14.815  20.360  15.294 -0.1113  0.0433  0.0388
72567W        W10061   9.967  21.600  16.146 -0.1360 -0.0419  0.1946
72568W        W10062   7.168  20.105  23.233  0.0662  0.1265 -0.4455
72569W        W10063  12.290  33.722   1.234 -0.0926  0.0552 -0.1797
72570W        W10064   5.410   1.799  10.940 -0.0411  0.0683 -0.3130
72571W        W10065   1.644   9.568  24.434  0.1510 -0.3968 -0.3284
72572W        W10066  32.144  16.366   7.608  0.0897 -0.0332 -0.3581
72573W        W10067   6.791  32.056   4.513 -0.0354 -0.0845 -0.0280
72574W        W10068  23.565  30.582   0.059  0.2726 -0.3415  0.2316
72575W        W10069  23.413  29.426  16.463 -0.2014  0.2147 -0.1286
72576W        W10070  34.066   7.416  11.429 -0.1905  0.2923  0.1099
72577W        W10071  11.056  27.012   1.461  0.1853  0.1485  0.0913
72578W        W10072  19.719   6.638  23.141 -0.1185 -0.0431  0.1075
72579W        W10073  11.459  15.048   7.582 -0.0760  0.3721 -0.1766
72580W        W10074   4.172  34.221  10.756  0.0347  0.2333 -0.1650
72581W        W10075  26.639  15.728  10.188  0.0854 -0.1804  0.2163
72582W        W10076  21.438  19.998  18.213  0.0816 -0.2622  0.5789
72583W        W10077  35.273   9.305   3.513 -0.2304 -0.0875  0.1348
72584W        W10078  34.331  20.898   7.743  0.0169 -0.2332  0.0477
72585W        W10079  18.618   5.456  18.287 -0.1994 -0.5060 -0.1302
72586W        W10080  13.331  17.996   9.007  0.1338 -0.2823  0.0607
72587W        W10081  14.409  30.827  10.037  0.0249  0.1722  0.2271
72588W        W10082  30.432  19.306   7.062 -0.4444 -0.3652 -0.1014
72589W        W10083  18.197  13.735   3.226 -0.1187  0.1530  0.2482
72590W        W10084   2.725   2.475  15.271 -0.2247  0.0001 -0.1362
72591W        W10085  15.914  27.815  12.192  0.0906 -0.1223  0.0816
72592W        W10086   9.543  32.826  24.199  0.1714  0.1254  0.1477
72593W        W10087  19.195  35.077   0.598 -0.1703 -0.1091  0.1978
72594W        W10088   6.585   4.649  26.086  0.3035 -0.3227  0.0505
72595W        W10089   9.643  29.173   1.604  0.0367  0.0183 -0.0199
72596W        W10090   1.090  10.058  15.099  0.1310  0.0105  0.3314
72597W        W10091  26.226   4.492   5.060 -0.0450 -0.1218 -0.0694
72598W        W10092   8.398   2.755   4.225 -0.1447 -0.4355  0.1568
72599W        W10093  33.921  31.946   5.247 -0.0239 -0.2809 -0.0832
72600W        W10094  28.402  18.168  18.580  0.0009 -0.0435  0.1294
72601W        W10095  11.227   2.223  24.528  0.0277  0.0963  0.1556
72602W        W10096  13.106  18.395   4.549 -0.0491  0.1751  0.4965
72603W        W10097  11.269  11.070   8.975 -0.4471 -0.0949 -0.1331
72604W        W10098  15.879  13.456  10.136 -0.1108  0.2487  0.0938
72605W        W10099  23.892   6.915  14.955 -0.0735 -0.2008  0.2491
72606W        W10100  22.595  20.198  26.043  0.1072  0.2395 -0.0288
72607W        W10101   6.118  23.264  24.232 -0.0562 -0.1518  0.0121
72608W        W10102  15.260   4.015   9.585  0.1754  0.1595 -0.0699
72609W        W10103  34.772  24.285  10.986  0.0306  0.1602  0.0668
72610W        W10104  20.460  27.444  25.811  0.1644 -0.1566 -0.2503
72611W        W10105  32.941  20.447  22.671 -0.0304 -0.2148  0.1232
72612W        W10106  19.470   7.657  21.019  0.1367 -0.2196 -0.1131
72613W        W10107   7.623   5.223  11.499 -0.3464  0.1402  0.0764
72614W        W10108  23.029  34.745  13.994 -0.1177 -0.1922 -0.2301
72615W        W10109  14.353   4.622  22.483  0.0642  0.2258  0.2608
72616W        W10110  21.642   3.778   7.225 -0.1098 -0.4368 -0.0895
72617W        W10111  27.325   4.833  14.970 -0.3172 -0.0017  0.1332
72618W        W10112  34.259  18.507  12.730 -0.1565 -0.3888 -0.0695
72619W        W10113   9.390   1.098   3.677 -0.2412 -0.1722  0.0669
72620W        W10114   2.175  11.534  21.323  0.0183  0.1458 -0.1417
72621W        W10115  21.767   0.938   2.808 -0.3537  0.0837 -0.1539
72622W        W10116  13.870  20.068  25.704 -0.1204  0.2580  0.1610
72623W        W10117  28.030  25.824   0.740  0.0057 -0.0513  0.1106
72624W        W10118  11.061  16.165   1.988 -0.1850  0.1317 -0.2473
72625W        W10119   8.987  29.840  15.338  0.1296 -0.0701  0.2856
72626W        W10120  28.771   2.165  23.384 -0.1899 -0.0331  0.3005
72627W        W10121   5.719  18.140   6.932 -0.0390  0.2178  0.3486
72628W        W10122   8.787  23.041  13.671  0.2792  0.3721  0.0004
72629W        W10123  21.575  10.499   0.991  0.0609  0.2270 -0.0850
72630W        W10124  11.963  17.168  21.994 -0.1725  0.1365 -0.2652
72631W        W10125  12.450  32.822   5.078  0.1008  0.2522  0.0488
72632W        W10126   5.313  26.539   4.589  0.0998 -0.1619 -0.0385
72633W        W10127  16.878   5.628   1.113  0.1060  0.0776  0.1146
72634W        W10128  29.346  29.598  10.223  0.0564  0.0261 -0.1252
72635W        W10129  27.914  26.128  12.616 -0.1333 -0.0821 -0.3258
72636W        W10130  23.216  17.794  26.101  0.1137  0.0174 -0.1786
72637W        W10131  26.472  12.406  17.449 -0.2334 -0.0350 -0.3197
72638W        W10132  19.405  21.917   9.073  0.1754 -0.1234 -0.0757
72639W        W10133   4.864  31.167   0.996 -0.0638  0.0717 -0.0515
72640W        W10134   0.010   8.194  19.927  0.3961 -0.1914  0.3598
72641W        W10135  24.113  23.407   3.051 -0.0235  0.2078 -0.1061
72642W        W10136  10.904  24.345  22.949 -0.2473  0.0776 -0.0237
72643W        W10137   6.804  13.844   5.078  0.0185 -0.4319 -0.0696
72644W        W10138  27.932  33.669   2.117  0.3527  0.0540 -0.0219
72645W        W10139   3.473  23.015   3.524 -0.2008  0.0549 -0.0742
72646W        W10140  25.762  10.496   0.628 -0.4138 -0.1076  0.0539
72647W        W10141  10.969  19.700   3.348  0.1180  0.0532 -0.1780
72648W        W10142  33.438   4.838  23.466  0.2169  0.1533 -0.0088
72649W        W10143  32.431  17.316  22.140 -0.0938 -0.1077  0.0712
72650W        W10144  22.711   5.518   0.770 -0.0606 -0.1300 -0.1892
72651W        W10145  30.891  28.995  15.691 -0.0695  0.1151  0.2255
72652W        W10146  31.568  21.952  21.311 -0.1800  0.0509 -0.2840
72653W        W10147  15.693   4.146  22.199 -0.1240  0.3401  0.0063
72654W        W10148  33.524  25.926  11.040  0.2404  0.1964 -0.0314
72655W        W10149  18.847  17.480  18.898 -0.0292 -0.1083  0.0249
72656W        W10150  18.552  30.197  18.945  0.2434 -0.0098  0.1997
72657W        W10151  23.581   1.656   6.738 -0.0263  0.1228  0.0457
72658W        W10152  17.348   4.943  21.020 -0.1303 -0.1276 -0.1949
72659W        W10153  28.963  11.026  22.228 -0.0032 -0.0879  0.1267
72660W        W10154   2.648  24.478  25.424 -0.1911 -0.1292  0.2713
72661W        W10155   9.439  28.159  24.284 -0.1166  0.1347  0.3154
72662W        W10156  34.885   1.386   5.138 -0.0194  0.1379 -0.0743
72663W        W10157  12.427  31.436   3.198  0.1493  0.2612 -0.1804
72664W        W10158   8.301  24.467   9.220  0.0442 -0.2234 -0.3279
72665W        W10159   0.141   0.294  25.405  0.0343  0.2476 -0.1382
72666W        W10160   8.367  10.242  18.714 -0.2162  0.0542  0.0727
72667W        W10161  28.103  24.886  11.889  0.0324  0.2364  0.0335
72668W        W10162   5.339   4.960  20.118  0.2437 -0.0561 -0.0569
72669W        W10163   7.057  12.664   9.010  0.0827 -0.3284 -0.1430
72670W        W10164  29.379  26.143  15.406  0.1700 -0.1396 -0.0543
72671W        W10165  15.972   6.991   4.187 -0.2016 -0.1733  0.0324
72672W        W10166  12.110   7.932   3.519  0.1846 -0.0982  0.2704
72673W        W10167  20.752  29.623  13.617  0.2366  0.0334  0.0074
72674W        W10168   5.864  30.843   5.995 -0.0341 -0.3302  0.0783
72675W        W10169  28.914  34.464   5.128 -0.1403 -0.0562  0.0652
72676W        W10170  29.523  32.745  24.124  0.1063 -0.0294  0.0836
72677W        W10171  14.994  13.738  12.900 -0.1222 -0.3385 -0.0255
72678W        W10172  23.435  30.014  22.475 -0.0476 -0.0935 -0.0795
72679W        W10173  35.275   9.667  15.218 -0.1098 -0.0457  0.1193
72680W        W10174  28.397  13.076  23.371  0.1506  0.0088  0.0994
72681W        W10175  23.258  28.339  24.233 -0.1523  0.1685  0.4656
72682W        W10176   3.850   1.624   7.135  0.0173  0.2075  0.2639
72683W        W10177  14.163  15.235  11.223 -0.3463 -0.0581  0.4554
72684W        W10178  29.789  31.969  11.528 -0.1904  0.1874  0.3351
72685W        W10179  14.786  32.893  19.891 -0.0468  0.1240  0.3411
72686W        W10180  20.050   1.049   8.169  0.0453  0.3160 -0.2734
72687W        W10181  23.796  23.783  21.625 -0.0474  0.1669 -0.1279
72688W        W10182   1.751   2.260  19.904 -0.0101  0.2751  0.1549
72689W        W10183   9.949  25.211  12.563 -0.1778 -0.1650 -0.1148
72690W        W10184  15.098  18.327   4.761 -0.2458 -0.2364 -0.1298
72691W        W10185   7.438  14.062  22.711  0.1287  0.3738  0.4114
72692W        W10186  24.621  20.282  15.133  0.1807 -0.1123  0.1575
72693W        W10187  18.709  10.788   2.343  0.2467  0.0389  0.1238
72694W        W10188  16.242   9.580  20.401 -0.0865  0.0700 -0.2566
72695W        W10189  31.259   1.199  20.761 -0.4054 -0.0755  0.1561
72696W        W10190  16.081   7.168   0.737 -0.1292 -0.3946  0.1372
72697W        W10191   6.746  21.071   5.634 -0.1266 -0.1638 -0.1322
72698W        W10192  26.505  27.249  23.719 -0.0485 -0.0708  0.1725
72699W        W10193   6.475   4.263  21.522  0.2603 -0.1001  0.1395
72700W        W10194  28.969  14.216  23.077  0.1271  0.0095  0.0794
72701W        W10195  20.626  27.287  23.071  0.1678 -0.1040 -0.0959
72702W        W10196   1.287  29.660   8.924 -0.0505  0.2014 -0.2824
72703W        W10197   2.611  19.124  16.710 -0.3187  0.1216  0.4349
72704W        W10198  34.638  11.273  20.653 -0.2019 -0.0126  0.2363
72705W        W10199  12.381  34.794   3.030  0.1507  0.0085  0.1627
72706W        W10200  31.537   3.841   0.980 -0.0052  0.0530 -0.0729
72707W        W10201  14.964   7.773  12.953 -0.1485 -0.1049  0.0109
72708W        W10202   6.605  30.630  23.963  0.2753 -0.0575 -0.2374
72709W        W10203  14.423  31.925  26.226 -0.0545 -0.1754 -0.0437
72710W        W10204  27.048  30.183  16.045 -0.2596  0.1163  0.1346
72711W        W10205  29.457   6.444   2.101 -0.5579  0.1518  0.1687
72712W        W10206  32.350  29.570  12.735  0.3290  0.1943  0.2922
72713W        W10207  29.520  21.357   7.545  0.0333  0.4162  0.1508
72714W        W10208  30.430   1.622  20.376  0.2765 -0.2393  0.1279
72715W        W10209   5.496  29.263   2.908  0.1546 -0.0845 -0.1826
72716W        W10210   7.978   8.254  10.594 -0.0060 -0.1060  0.0629
72717W        W10211   3.131   5.342  22.696 -0.2271 -0.0845 -0.1347
72718W        W10212  21.047  18.230   1.100 -0.0706  0.1059 -0.0172
72719W        W10213   0.157   9.715  19.058 -0.3056 -0.0962  0.0683
72720W        W10214  19.114   2.630  23.117  0.1725 -0.0715 -0.2069
72721W        W10215  17.924  16.439   7.047 -0.1413 -0.0490  0.0601
72722W        W10216   0.311   7.421  25.577 -0.1969  0.1155 -0.1776
72723W        W10217  31.770   2.091  12.518  0.1230 -0.3499  0.1498
72724W        W10218  12.863  13.974  20.718  0.2731  0.0053  0.2492
72725W        W10219  13.741   4.858   6.281  0.1220  0.1365 -0.1785
72726W        W10220   6.267  15.417   3.258 -0.2695 -0.0838 -0.2739
72727W        W10221  32.696   3.167  19.000  0.2751 -0.1065 -0.1283
72728W        W10222  31.176   0.715   2.221 -0.0830  0.0136 -0.2721
72729W        W10223  11.239  32.062   7.751 -0.0100  0.1097  0.0350
72730W        W10224   3.360   1.192  24.218  0.0890 -0.0762 -0.3156
72731W        W10225  30.301  29.374  15.173 -0.2270 -0.0027  0.0405
72732W        W10226  28.067  20.346  23.108 -0.2901  0.1230  0.1857
72733W        W10227  10.086  27.220  26.049  0.3413 -0.2702 -0.0400
72734W        W10228  21.733  32.963  17.365 -0.0161  0.0735  0.3011
72735W        W10229  12.605  31.726   8.063 -0.3853  0.4797  0.2604
72736W        W10230  21.352   8.883  24.316 -0.0702  0.0918  0.0182
72737W        W10231  12.181  27.535   6.330  0.4136  0.1811  0.2191
72738W        W10232   1.810  17.483  24.409  0.0319  0.1143 -0.2956
72739W        W10233  14.673   3.749  17.696 -0.1284  0.1033  0.1465
72740W        W10234  21.901  32.487   1.762  0.0237 -0.1280 -0.1130
72741W        W10235  33.209   9.417  18.026 -0.1114 -0.0266 -0.3801
72742W        W10236  18.095  21.489   1.958 -0.0799  0.0039 -0.0270
72743W        W10237  15.748  22.731   1.287 -0.1743  0.1578  0.0013
72744W        W10238  33.044  16.336  22.314 -0.3906  0.0628  0.0201
72745W        W10239  30.261   3.265  14.356 -0.0815 -0.1746  0.1831
72746W        W10240  15.008   9.083   8.219 -0.3631  0.0942  0.2117
72747W        W10241   4.909  29.575   1.492  0.0837 -0.3342 -0.3659
72748W        W10242  23.794  29.811   1.203  0.0088  0.1585 -0.0203
72749W        W10243  18.729  15.723  10.273  0.3159  0.3810 -0.0283
72750W        W10244  18.484  19.731  11.099 -0.0081 -0.2225 -0.1881
72751W        W10245  11.686  16.704  12.429 -0.1664  0.1301  0.0962
72752W        W10246  18.310  34.832  17.526  0.0908 -0.0865  0.0848
72753W        W10247   8.169  17.284   9.755  0.0057 -0.0308 -0.1422
72754W        W10248   7.109   5.692  23.931  0.0185 -0.0451 -0.0001
72755W        W10249  19.845  10.742   1.811  0.0939 -0.3011 -0.2755
72756W        W10250  24.255  30.709  12.299 -0.0834 -0.3383  0.3061
72757W        W10251  15.535  35.262   7.051 -0.0986 -0.1062 -0.1533
72758W        W10252   2.402  11.884  25.846 -0.2799 -0.1879 -0.1210
72759W        W10253  29.424  24.111  15.153  0.1082 -0.3764 -0.0316
72760W        W10254  16.929   2.972   2.812  0.2632 -0.3381 -0.3388
72761W        W10255  25.715  23.659   9.769  0.0101  0.0381  0.1814
72762W        W10256  21.139  33.709  20.982  0.0642 -0.2829  0.0078
72763W        W10257   1.591  33.082  24.817 -0.2255 -0.2666 -0.2637
72764W        W10258   5.024  15.751   2.785 -0.2116  0.2874  0.1425
72765W        W10259  34.366  28.956  15.737  0.0391  0.1270 -0.1531
72766W        W10260  33.762  12.109  15.441 -0.3154  0.3183 -0.0239
72767W        W10261   6.831  30.399  14.377 -0.1615  0.2578  0.2302
72768W        W10262  34.943  25.085   1.735 -0.0463  0.0847  0.5323
72769W        W10263  16.887   9.402  19.450  0.0076 -0.2811  0.0942
72770W        W10264  15.467  14.480  21.145  0.3183 -0.0598 -0.0040
72771W        W10265   4.197  28.735   1.739  0.0684  0.0496 -0.1195
72772W        W10266  16.427  12.894   0.471 -0.0837  0.0508 -0.1688
72773W        W10267  27.223  22.157   7.980  0.1151 -0.0563  0.0251
72774W        W10268   6.398  25.336   8.135 -0.3354  0.0733  0.1194
72775W        W10269  31.365   4.970  17.682 -0.2378 -0.4050  0.0108
72776W        W10270   2.391  29.230   4.954 -0.3504  0.1508  0.4787
72777W        W10271  18.636  33.732   0.051  0.1650  0.1400 -0.0656
72778W        W10272  26.466  23.950   1.000  0.1027  0.1558  0.1524
72779W        W10273   5.991  19.917  21.263 -0.1167 -0.5517 -0.1235
72780W        W10274   1.507  23.709  25.591 -0.1048  0.0517  0.2615
72781W        W10275   2.930  27.062  24.709  0.0655  0.1708  0.2256
72782W        W10276   5.770  16.393   7.817 -0.1762  0.3106  0.0385
72783W        W10277  27.534   2.377  25.543  0.0034  0.1219 -0.1917
72784W        W10278  29.379   6.874  16.133 -0.0900  0.0024  0.0438
72785W        W10279  34.889   8.852  23.647 -0.1271 -0.0962 -0.0701
72786W        W10280   4.031  20.167  19.051 -0.2305 -0.0978  0.3048
72787W        W10281  32.958  18.724  12.548  0.2329  0.0451 -0.0966
72788W        W10282  34.784  13.928  16.347  0.3440  0.0981  0.0192
72789W        W10283   2.129  15.155  12.424 -0.1706 -0.0233  0.2411
72790W        W10284  31.981  32.300  12.871  0.3034  0.0358 -0.0255
72791W        W10285  33.838  11.217  25.512  0.2265 -0.2514 -0.0627
72792W        W10286  23.830  33.431   6.472 -0.0761  0.5694  0.0027
72793W        W10287   9.622  13.365  24.099 -0.0084  0.3386 -0.0331
72794W        W10288   8.189  29.531  25.918 -0.3789 -0.0417  0.0239
72795W        W10289  14.784  21.986  13.029  0.0298 -0.2276  0.1008
72796W        W10290  26.309  17.774  11.403 -0.1503  0.1441 -0.2151
72797W        W10291   1.967  21.365  16.421  0.1179 -0.1106  0.0803
72798W        W10292  33.231  19.685   6.809 -0.1384  0.0617  0.1798
72799W        W10293  12.682  18.582   3.449  0.1238  0.3997 -0.2597
72800W        W10294   7.088   6.355   2.279  0.0675  0.1209  0.1939
72801W        W10295   0.415  28.490  16.179 -0.1615 -0.0541 -0.0989
72802W        W10296  32.205  18.604   9.825 -0.2230 -0.1846  0.3053
72803W        W10297  13.640  23.766  13.654 -0.2965 -0.0514  0.0240
72804W        W10298  33.230  22.864  17.897  0.1524 -0.2204 -0.0099
72805W        W10299   0.172  18.522  11.075  0.1003 -0.0407 -0.0168
72806W        W10300   6.269   2.861  12.530  0.3105  0.2763 -0.0597
72807W        W10301  10.636  21.171  21.501  0.0870 -0.0868 -0.1055
72808W        W10302  30.736   3.877  15.100  0.0517 -0.1589  0.2438
72809W        W10303  22.166  14.619  16.835 -0.1446  0.1051  0.0239
72810W        W10304   4.882  17.939   7.914 -0.2010  0.3197 -0.1436
72811W        W10305   6.602  13.656  23.740  0.1140 -0.1678  0.0942
72812W        W10306  32.598  24.819   9.296  0.0670  0.0496 -0.0152
72813W        W10307  16.988  22.021  24.260  0.1870 -0.1420 -0.3365
72814W        W10308   0.580   2.711   6.804 -0.2347 -0.2229  0.2716
72815W        W10309  13.517   3.119   5.432 -0.0384 -0.1819  0.0867
72816W        W10310   0.242  31.430  21.076 -0.2195  0.1817  0.2053
72817W        W10311   9.994  20.876  23.225 -0.0221  0.1755  0.3892
72818W        W10312  19.077  15.413  10.453 -0.2974  0.1899 -0.0416
72819W        W10313  26.326   2.602   4.835  0.2518  0.0339 -0.0401
72820W        W10314  11.643  15.421   1.859  0.0210  0.0999  0.0400
72821W        W10315   3.165  18.338   0.201 -0.2556 -0.1140  0.1248
72822W        W10316  29.685  24.606  10.417 -0.0257  0.6144  0.0191
72823W        W10317  32.331  24.635  25.484 -0.2257 -0.0075  0.4061
72824W        W10318  30.262  30.710  25.390  0.0671 -0.2648 -0.0471
72825W        W10319   8.637  21.821  10.904  0.0946  0.2928 -0.0600
72826W        W10320   2.445  34.255  20.176 -0.1855 -0.1143  0.2192
72827W        W10321   1.658   9.153  26.013  0.1215 -0.2332 -0.1435
72828W        W10322  34.323  18.468  23.858 -0.0641 -0.2147  0.0322
72829W        W10323  28.273  22.506   6.495 -0.0532 -0.2520 -0.1554
72830W        W10324  33.121  16.652   9.610 -0.0380  0.0928 -0.1084
72831W        W10325  18.721   4.134  19.691  0.2355 -0.0371  0.0772
72832W        W10326  22.295  16.091  21.004  0.4272 -0.2482  0.0724
72833W        W10327  33.466  30.198   0.777  0.2633  0.0534 -0.0803
72834W        W10328   1.292  17.414  19.649  0.0223 -0.1448  0.0974
72835W        W10329  24.168  31.003   5.096 -0.0510  0.3525  0.2315
72836W        W10330   0.833  23.807  25.063  0.0509  0.1359  0.1356
72837W        W10331  34.769  31.036  14.424  0.0210 -0.0134 -0.1776
72838W        W10332   3.089  20.528  24.659  0.1691 -0.1525  0.0310
72839W        W10333  29.444  17.604   9.331 -0.0687  0.1490 -0.0836
72840W        W10334  10.414  21.273   6.256  0.2813 -0.2819 -0.1560
72841W        W10335  11.010   4.964   6.520  0.1392  0.0631 -0.1124
72842W        W10336  15.549   8.358   2.623 -0.0746  0.0589 -0.3390
72843W        W10337  17.370  18.135   8.358 -0.2615  0.0974 -0.1045
72844W        W10338  30.117  33.517   0.305 -0.0251 -0.1459 -0.2670
72845W        W10339  26.929  33.968  25.680  0.3015 -0.0974  0.0387
72846W        W10340  30.640  27.761  21.049 -0.2068 -0.2320 -0.0309
72847W        W10341   4.560  12.696  15.859  0.0088  0.0917 -0.2355
72848W        W10342  24.962  12.543  19.027  0.1828 -0.0134 -0.1425
72849W        W10343   8.971  10.353  19.303 -0.2039 -0.1192 -0.0189
72850W        W10344  12.204  25.826  13.197 -0.0633  0.1974 -0.1880
72851W        W10345  25.181  29.209  14.665  0.0482  0.3851 -0.0491
72852W        W10346  27.090  18.023  23.224 -0.0494 -0.0631  0.1320
72853W        W10347  21.984  10.029  25.041  0.0211 -0.2362  0.1883
72854W        W10348  24.008  18.567  13.734 -0.2425 -0.2324 -0.1822
72855W        W10349  31.669  23.609  11.170  0.1979 -0.0197  0.2212
72856W        W10350  16.117   4.816  19.299  0.0386  0.0631 -0.1540
72857W        W10351  27.824   7.219  15.269  0.0747  0.0085 -0.0331
72858W        W10352   7.784   1.310   9.315 -0.0581  0.2476  0.1179
72859W        W10353  27.749  15.333  10.704 -0.2494  0.2671  0.0152
72860W        W10354  22.811  34.349   4.319 -0.2263 -0.0702 -0.3835
72861W        W10355   5.752   7.892  18.274 -0.1422  0.0276 -0.1460
72862W        W10356  26.551  19.011  11.003 -0.2569 -0.2891  0.2144
72863W        W10357   5.888  26.624  21.347 -0.2472  0.3704  0.1506
72864W        W10358  17.728  19.381  20.092  0.3302 -0.0379  0.1150
72865W        W10359   0.715  15.978  22.235 -0.1778  0.0935 -0.0754
72866W        W10360   4.774  19.518  25.731 -0.0303 -0.1246  0.0018
72867W        W10361  27.178   3.316  21.743 -0.0320  0.2459 -0.1047
72868W        W10362  31.044   3.305  19.384  0.0437  0.0966  0.1746
72869W        W10363   3.357  17.680   3.170  0.1763 -0.3202  0.2521
72870W        W10364  29.569   0.152  14.102 -0.0822 -0.3305 -0.0424
72871W        W10365   6.391  14.467  23.847  0.0625  0.1480 -0.0152
72872W        W10366  19.914  11.829  15.882  0.0122  0.1601 -0.2349
72873W        W10367  13.401  18.523  15.707  0.3513  0.1648  0.0628
72874W        W10368  25.616  15.088  20.828  0.1365  0.2129  0.3373
72875W        W10369  29.200  15.409   9.786 -0.2012  0.0339  0.3122
72876W        W10370   6.087  24.562  22.676 -0.3219  0.0549 -0.1721
72877W        W10371  23.058   1.801  18.512 -0.1507  0.1565  0.0914
72878W        W10372   3.345  24.335   1.582 -0.3242 -0.2793  0.3986
72879W        W10373  28.054   6.493  22.537 -0.0530 -0.0899 -0.2081
72880W        W10374  27.440  28.512  17.932  0.2323  0.0293 -0.5109
72881W        W10375   5.701  13.752  20.584 -0.5068 -0.1103  0.1710
72882W        W10376  34.953  20.219   0.190 -0.2418 -0.1037 -0.0668
72883W        W10377   4.720  10.529   0.230 -0.6049  0.2886  0.1606
72884W        W10378  18.440   4.367  20.522  0.1433  0.0659 -0.2554
72885W        W10379  10.911   6.404  22.234 -0.0234 -0.0753 -0.1001
72886W        W10380   1.855  22.096  19.611 -0.2580  0.1410 -0.1023
72887W        W10381  26.236  30.677  11.755 -0.3921 -0.2974 -0.1753
72888W        W10382  22.063   0.595   4.802  0.3520  0.3020 -0.0541
72889W        W10383   7.732  28.632  22.930 -0.1711  0.1577 -0.2316
72890W        W10384  28.353  14.383  22.873 -0.1952  0.0581  0.3462
72891W        W10385  29.732   5.679  18.194 -0.1064  0.1234  0.0450
72892W        W10386  15.065  23.829  16.779  0.0612  0.0651  0.2620
72893W        W10387  14.875  18.297  12.975  0.0357 -0.0420  0.3057
72894W        W10388   7.409  33.082   7.161 -0.0505 -0.2963 -0.1391
72895W        W10389  29.924  14.949   5.666  0.2420 -0.2699  0.0213
72896W        W10390  10.836  33.400   4.701 -0.2018 -0.1197  0.0821
72897W        W10391  24.361  10.363   0.773 -0.2389 -0.0496 -0.0259
72898W        W10392  27.033  18.916  22.336  0.3966 -0.0233  0.3015
72899W        W10393  11.203  23.562   6.270  0.1948  0.0183 -0.1275
72900W        W10394  33.041  28.074   0.717 -0.0517  0.0615  0.0158
72901W        W10395   8.848   6.576  22.847  0.2364  0.1692 -0.2668
72902W        W10396  14.748  21.045   4.771 -0.0838  0.3036  0.2654
72903W        W10397   4.994   5.426   8.991 -0.0087 -0.2192 -0.2336
72904W        W10398  29.618  18.282  10.835  0.0822  0.0595 -0.2922
72905W        W10399  15.049  30.024  13.131  0.0347 -0.1431 -0.0989
72906W        W10400  17.168   4.754   9.074 -0.0246 -0.2605  0.0604
72907W        W10401  32.591  16.198  25.194 -0.0565  0.0010  0.0334
72908W        W10402  18.107  29.901  19.076 -0.2266  0.0141  0.2062
72909W        W10403  22.313   5.039  23.786  0.0178 -0.2084 -0.0932
72910W        W10404  25.496  28.336  12.067 -0.1807  0.1487 -0.0257
72911W        W10405  31.795  20.745  20.131  0.0038 -0.1946  0.1165
72912W        W10406  19.622  25.154   5.518 -0.2085 -0.2080 -0.0473
72913W        W10407   0.342  14.656  11.769  0.2535 -0.1096 -0.0272
72914W        W10408   2.818   4.217  23.363  0.3919  0.1207  0.0631
72915W        W10409  18.155  11.868  11.580 -0.4154  0.0426  0.0544
72916W        W10410  19.705   7.476   6.787 -0.0550  0.4285 -0.0835
72917W        W10411  35.075   7.928  18.630  0.1694  0.2222  0.0418
72918W        W10412   7.721  24.408   3.149  0.2130  0.1723  0.2213
72919W        W10413  11.619   0.646  20.994  0.1189 -0.1784 -0.1314
72920W        W10414  23.008   1.946  12.663  0.0938  0.0479 -0.0616
72921W        W10415  19.001  31.732  18.463 -0.0588  0.0731  0.0695
72922W        W10416  20.785   7.161  22.015  0.0596 -0.3083  0.1517
72923W        W10417  23.461  16.949  21.598 -0.1551  0.2087  0.0271
72924W        W10418  25.664  11.902  24.159  0.2224  0.0728 -0.0900
72925W        W10419   1.031  13.696  11.725 -0.3355 -0.3761 -0.1670
72926W        W10420  35.064  17.609  25.808 -0.1085 -0.3078 -0.1874
72927W        W10421   6.032  17.715   8.625  0.0646  0.3834 -0.1078
72928W        W10422   8.583  10.916   7.952 -0.1608  0.0458 -0.2446
72929W        W10423   3.221  19.214   2.946  0.2535  0.1313 -0.0972
72930W        W10424  34.623   2.040  14.696 -0.0168  0.2573 -0.2376
72931W        W10425  27.735   4.180   3.690 -0.0352  0.0333 -0.1510
72932W        W10426  11.280   3.983  25.514 -0.1552 -0.3155 -0.0966
72933W        W10427   0.002   7.901  14.930  0.6525 -0.1829  0.1708
72934W        W10428   3.600  23.401   5.102 -0.2059 -0.3082  0.0981
72935W        W10429  35.143   1.995   0.880 -0.1481 -0.0454 -0.0215
72936W        W10430  14.379   0.569  18.511  0.2960 -0.2268 -0.0745
72937W        W10431   6.962   2.847  19.541 -0.2338 -0.0827 -0.0672
72938W        W10432  15.071  23.717   4.939  0.2566 -0.0396 -0.1150
72939W        W10433  13.114   5.077   0.575 -0.3785 -0.0612  0.2904
72940W        W10434  11.228  18.323  13.856  0.3188 -0.1894  0.0752
72941W        W10435  25.148  19.312  25.864  0.1939 -0.3538 -0.0755
72942W        W10436  34.376  19.357  13.750  0.0039 -0.1978  0.2803
72943W        W10437  19.463  29.583   5.480 -0.0374  0.0082  0.1208
72944W        W10438  15.024  21.813  13.486 -0.2391  0.1528  0.0833
72945W        W10439  14.542  30.502  24.648 -0.0414  0.0224  0.0390
72946W        W10440   6.720   9.982   1.346 -0.1101 -0.2143  0.2073
72947W        W10441  21.876   9.035   4.109 -0.0878  0.0003  0.1593
72948W        W10442  32.906  26.582  23.535 -0.0609  0.0629  0.2676
72949W        W10443  28.728  32.018  15.711  0.1990  0.0543  0.1346
72950W        W10444   0.463  33.224   0.196 -0.0439 -0.1634  0.0735
72951W        W10445  26.042   6.887  18.948 -0.0560  0.0042  0.0804
72952W        W10446  27.006   8.549  21.202  0.1221  0.0552  0.2236
72953W        W10447  25.715  20.628   0.130  0.2071  0.2015  0.0203
72954W        W10448  18.628   0.410  25.744 -0.0913 -0.0744 -0.1401
72955W        W10449  32.047  25.280  12.978 -0.0348  0.1986 -0.1509
72956W        W10450  19.401  19.564   6.160 -0.0081 -0.1138 -0.2322
72957W        W10451  15.108  30.435   8.143 -0.0573 -0.1842 -0.1827
72958W        W10452  20.658  32.786  25.641 -0.2702  0.0526  0.0404
72959W        W10453   4.296  18.171   3.037 -0.0494  0.0548 -0.3285
72960W        W10454  25.555  11.833  12.154 -0.0725 -0.1426 -0.3296
72961W        W10455  14.871   4.572  21.945  0.2696  0.2619  0.0812
72962W        W10456  19.607   7.165  24.950  0.2569 -0.0682  0.1842
72963W        W10457   8.969   9.155   1.013 -0.2362  0.3413 -0.1927
72964W        W10458  17.317  10.969   3.260  0.1843 -0.0199 -0.0220
72965W        W10459  20.825  26.273  17.286 -0.1892 -0.0008  0.2410
72966W        W10460  27.970  32.777  24.176  0.1034 -0.3141  0.0291
72967W        W10461  18.639  14.723   5.394 -0.0862 -0.0282 -0.0907
72968W        W10462  28.518  31.385   2.776  0.0734  0.0125 -0.0651
72969W        W10463  15.772  29.631   7.714 -0.1520 -0.0107 -0.1656
72970W        W10464   1.942  19.195   9.384 -0.1170  0.0503 -0.0371
72971W        W10465  34.134   9.908  23.216 -0.1894  0.0744 -0.0148
72972W        W10466   5.972  30.757  11.883  0.0519  0.2377 -0.0284
72973W        W10467  32.859  25.028  17.847 -0.0722  0.1639  0.1727
72974W        W10468  23.680   9.517   1.942  0.0861 -0.0271  0.0622
72975W        W10469   8.411  29.741   5.899  0.0347  0.2987 -0.3119
72976W        W10470  29.858  26.859  18.572 -0.0894  0.0166  0.0903
72977W        W10471   0.288   4.739   1.061  0.1500 -0.2122 -0.5412
72978W        W10472  33.868  20.085  18.286 -0.1139  0.1109  0.0619
72979W        W10473   8.433  28.958   3.727  0.0746  0.1354  0.1023
72980W        W10474  22.655   2.159   7.410  0.2799  0.0647 -0.2332
72981W        W10475  13.626  23.180   2.921 -0.1143 -0.0255  0.0087
72982W        W10476   8.754  15.754   4.713 -0.0753 -0.2141  0.0124
72983W        W10477   9.985  28.838  13.337 -0.0033 -0.3411  0.0881
72984W        W10478   2.910  19.018  20.107 -0.4103 -0.2827 -0.2008
72985W        W10479  11.114   6.209   8.911  0.3491  0.1453  0.0697
72986W        W10480  22.407  28.141  25.405 -0.1388 -0.0595 -0.0913
72987W        W10481  10.935   4.800  21.473 -0.1171  0.0536 -0.0816
72988W        W10482  28.502  35.022  23.479  0.0499 -0.0525  0.2085
72989W        W10483  15.756  20.724   7.932 -0.1187  0.3037 -0.1260
72990W        W10484   2.833   0.628   9.529  0.0544 -0.2311 -0.2168
72991W        W10485   6.969   2.478   5.064  0.0428 -0.2627 -0.1715
72992W        W10486  18.265  32.644   9.619 -0.2227  0.0490  0.1394
72993W        W10487  29.868  24.670   0.012 -0.0042  0.1397 -0.3449
72994W        W10488   0.342   8.904  15.346  0.2762 -0.3238  0.0951
72995W        W10489  10.463  10.386  22.509  0.0226  0.6609 -0.2236
72996W        W10490  13.540   8.036  13.910  0.0851 -0.2800 -0.0485
72997W        W10491  28.808   4.621   1.366 -0.1652 -0.1411 -0.1460
72998W        W10492   3.094   4.766  20.476 -0.3287  0.0349 -0.1426
72999W        W10493  27.239  29.418  17.572 -0.3520  0.0478  0.0316
73000W        W10494   4.423   4.716  22.827 -0.2625 -0.0726  0.1757
73001W        W10495  31.363  30.305  24.813  0.1868 -0.1306 -0.1117
73002W        W10496  16.265   0.761  21.643 -0.0363  0.4225 -0.1344
73003W        W10497  15.774  18.885   2.163 -0.5402 -0.0740  0.4709
73004W        W10498  14.440  18.177   0.766 -0.0399  0.2432  0.0072
73005W        W10499  15.941  34.566   1.265 -0.2102 -0.0238  0.0664
73006W        W10500  19.771  12.035   8.959 -0.2059  0.4427 -0.0617
73007W        W10501  14.434   1.420   3.382 -0.2610  0.1423  0.1260
73008W        W10502  13.061  32.405  10.226  0.0458 -0.0530  0.1563
73009W        W10503   5.227   8.895   4.780 -0.2753  0.0586 -0.3058
73010W        W10504   9.423  13.866  11.430 -0.2268 -0.5139 -0.2200
73011W        W10505  23.875  25.749   2.467  0.1883 -0.0102 -0.3122
73012W        W10506  15.445   0.740  17.168  0.1186 -0.1069  0.0633
73013W        W10507  21.950  16.825  17.178 -0.1169 -0.3480  0.0880
73014W        W10508  24.366  17.131  23.888  0.0471 -0.1471 -0.1698
73015W        W10509   1.512  27.571  25.968  0.0543 -0.1624  0.2404
73016W        W10510  12.129  34.207  22.030 -0.0690 -0.5372  0.0212
73017W        W10511  13.476  16.333  10.660 -0.1398 -0.2081  0.0586
73018W        W10512  24.405  29.178  22.557  0.4774 -0.0500  0.1231
73019W        W10513   5.021   8.745   5.610  0.0907 -0.2155  0.1365
73020W        W10514  34.014  14.611  16.711 -0.1192 -0.0491  0.1269
73021W        W10515  22.056  33.712  17.111  0.0261  0.2462 -0.3642
73022W        W10516  24.142   8.715  15.934  0.0505  0.2224  0.1816
73023W        W10517  23.779   7.477  15.862  0.1518  0.0464 -0.0785
73024W        W10518  10.037  24.119  16.158  0.0060  0.1031  0.0121
73025W        W10519   2.459   7.512  16.962  0.1045  0.2019  0.0892
73026W        W10520  22.551   5.966   5.037 -0.0931 -0.1009  0.1667
73027W        W10521  34.590   0.973  26.004 -0.2796  0.0781  0.1119
73028W        W10522   7.003  29.477   1.098 -0.0505 -0.0176 -0.2546
73029W        W10523  23.075  13.328  24.469  0.0366  0.1071 -0.1167
73030W        W10524  10.776  13.638   8.558  0.2046 -0.2957 -0.1278
73031W        W10525  26.161  16.516  11.288  0.1810 -0.0203  0.0255
73032W        W10526   2.305  20.101  24.232  0.1258  0.1995  0.2583
73033W        W10527   8.129  22.179  11.973 -0.0860 -0.2963  0.2990
73034W        W10528  16.623  26.619  13.759 -0.0072 -0.2199 -0.0437
73035W        W10529  13.750  17.697  20.659 -0.1407 -0.1075 -0.0541
73036W        W10530   3.104  27.195  10.873  0.3906 -0.2268  0.0828
73037W        W10531   0.225   9.654   0.833  0.0750  0.0841 -0.0303
73038W        W10532  21.994  21.384  21.363  0.2008 -0.0503 -0.0150
73039W        W10533  33.560  22.708  21.632  0.3129  0.1220  0.2429
73040W        W10534   4.390   4.256  22.450  0.1545  0.0486 -0.1722
73041W        W10535  10.940   8.647  22.612  0.1450  0.0595 -0.0060
73042W        W10536  25.115   6.982  23.832 -0.4047  0.0161 -0.1040
73043W        W10537  15.955  23.718   3.137 -0.0894 -0.2326 -0.2074
73044W        W10538  14.244   5.842   6.160 -0.1764  0.0601 -0.0694
73045W        W10539   3.583   3.398  18.933 -0.0081 -0.0550  0.0979
73046W        W10540  20.652  31.494  17.748  0.1815 -0.1989  0.1207
73047W        W10541   8.035   5.460   6.546 -0.0057 -0.0413 -0.4014
73048W        W10542  26.799  20.686   7.191  0.0727 -0.0113 -0.1035
73049W        W10543  30.631  13.115  21.109 -0.1210 -0.1336  0.2354
73050W        W10544   7.326  25.830  11.453  0.0499  0.1399 -0.1352
73051W        W10545  11.288  33.139   9.601 -0.0695 -0.0841  0.0685
73052W        W10546  30.993  35.126   2.797 -0.2075 -0.0826 -0.3563
73053W        W10547  18.888  21.273  21.060  0.2176  0.1657 -0.3026
73054W        W10548  31.718  24.224  17.631 -0.1360 -0.1386  0.3224
73055W        W10549  32.655  27.243  18.857 -0.4172  0.0434  0.1200
73056W        W10550   9.890  22.149  24.689 -0.0456 -0.0064 -0.1824
73057W        W10551   1.873  13.897  18.869  0.0296  0.2823 -0.0428
73058W        W10552  16.391   8.174   7.777 -0.0058 -0.0617 -0.0880
73059W        W10553  18.741   2.917  18.906  0.0998  0.3868  0.1426
73060W        W10554  17.180   5.670  22.593 -0.0822 -0.1377 -0.1345
73061W        W10555  17.220   4.953  25.585 -0.1786 -0.0434 -0.3686
73062W        W10556  28.307  19.019  15.340 -0.1639 -0.0514  0.0464
73063W        W10557  28.519  24.959  16.567  0.2003  0.1866 -0.1545
73064W        W10558   2.290  24.604   4.491 -0.1339  0.1533  0.1378
73065W        W10559  12.833  26.477  10.758  0.1270 -0.3627 -0.1854
73066W        W10560   0.042  20.769  16.971  0.0481 -0.2078 -0.0072
73067W        W10561  11.730   1.783   3.856  0.5096  0.1528 -0.2461
73068W        W10562  13.308  10.507   7.383 -0.2724 -0.1732  0.3398
73069W        W10563  19.132   7.526  20.576  0.0091  0.1257  0.0142
73070W        W10564  19.008  34.867  18.507  0.1981  0.1113 -0.1013
73071W        W10565  33.721   5.514  24.825  0.0295 -0.0178  0.2613
73072W        W10566  13.578  28.967   5.391  0.0006  0.0431  0.0095
73073W        W10567  19.307   7.385  17.725 -0.1399  0.0051  0.0094
73074W        W10568  20.322  10.486  20.483 -0.2409  0.0583 -0.1323
73075W        W10569  16.213   2.234   5.012 -0.3110  0.0849  0.1866
73076W        W10570  18.386  20.855  26.002  0.1738 -0.0683  0.0491
73077W        W10571   5.777  28.783  14.161 -0.3736 -0.0531  0.1690
73078W        W10572   6.265  14.560  18.790  0.2821 -0.0899  0.0967
73079W        W10573  33.161  11.657   7.739 -0.2484 -0.1743 -0.0455
73080W        W10574  15.606  28.791  21.348 -0.1924 -0.1481  0.1022
73081W        W10575   1.227  10.505  22.716 -0.3360 -0.2936  0.2229
73082W        W10576  20.545  34.408  20.691  0.1216  0.0918 -0.1061
73083W        W10577  11.576  26.819  25.630 -0.2657  0.1968  0.4216
73084W        W10578  28.961  30.605  25.332 -0.2642 -0.1787  0.0789
73085W        W10579  21.714  32.711   2.156  0.0010 -0.3132 -0.0171
73086W        W10580  15.839  19.263  22.601 -0.1046  0.1162 -0.1652
73087W        W10581   2.838   2.838   7.967  0.1014 -0.2746 -0.0428
73088W        W10582   0.927  16.481  14.091  0.0115 -0.2366 -0.2156
73089W        W10583   1.296  20.024  13.924  0.2623 -0.1248  0.3998
73090W        W10584   3.514   3.934  19.773 -0.0342  0.3393  0.0119
73091W        W10585   5.306   4.141  11.381  0.1426  0.2876 -0.0816
73092W        W10586  19.780   9.979  19.941 -0.1055 -0.0549 -0.1214
73093W        W10587  20.277  18.725   1.711  0.0233  0.1638  0.1933
73094W        W10588   5.083   8.485   8.379  0.1314  0.0239  0.0190
73095W        W10589   7.056   6.023  11.970 -0.0080  0.0094  0.1635
73096W        W10590  29.190  31.126   3.979 -0.4408 -0.0694 -0.0555
73097W        W10591  21.130  29.593   0.231 -0.3392  0.1122  0.0163
73098W        W10592  28.933  26.928  23.342  0.1985 -0.1579  0.1207
73099W        W10593  19.138  21.539  18.357  0.1851 -0.1326  0.0870
73100W        W10594  18.443  18.975  23.163  0.2942 -0.1761 -0.1952
73101W        W10595   7.999  17.398   8.784  0.1494 -0.1262 -0.0608
73102W        W10596   6.215  13.590   4.616 -0.1402 -0.2606 -0.0440
73103W        W10597  10.421  31.484  15.718  0.1110 -0.2143  0.3269
73104W        W10598  15.221  23.535  26.177  0.0475  0.0364  0.0130
73105W        W10599   0.270  35.305  22.490  0.0129  0.0335  0.1554
73106W        W10600  29.333  25.341   7.269 -0.0557 -0.1161 -0.2389
73107W        W10601  19.652  25.918  23.222 -0.1533  0.1550 -0.1357
73108W        W10602  23.851  14.923  14.220  0.1312 -0.2047 -0.2579
73109W        W10603  30.389  13.159   0.137  0.1592  0.0380 -0.1094
73110W        W10604  17.154  21.386  10.627 -0.3122  0.1506  0.0182
73111W        W10605  25.794  16.156  21.130 -0.0022 -0.0271 -0.1302
73112W        W10606  13.337   8.661  20.010 -0.2953  0.2341 -0.0654
73113W        W10607  12.585   9.777   2.203 -0.0863  0.3365 -0.1228
73114W        W10608  13.929  31.182  23.307  0.0606 -0.0558 -0.0041
73115W        W10609  33.501  26.278   0.410 -0.3400  0.3085 -0.1418
73116W        W10610   9.885   0.633   3.533  0.3319  0.0426  0.1932
73117W        W10611   6.510  26.900   5.993  0.2695 -0.0887 -0.0603
73118W        W10612  26.914  22.897  13.045  0.6729  0.3000 -0.0305
73119W        W10613  27.178   8.373  19.482  0.0475 -0.1697  0.0144
73120W        W10614  13.258  33.862  10.692  0.2432 -0.1264  0.2929
73121W        W10615  13.763  29.198   1.639  0.5912  0.1524  0.1526
73122W        W10616  30.104  26.518  24.558  0.4214  0.0528  0.0200
73123W        W10617  12.273  22.066  13.946  0.1404 -0.1517  0.1026
73124W        W10618  17.865  29.611   7.359 -0.2401 -0.3172 -0.3180
73125W        W10619  27.607  27.170  12.170 -0.1532  0.3296 -0.0967
73126W        W10620  21.647  32.268  18.305  0.1443  0.2169  0.2150
73127W        W10621  15.480  14.107  10.658  0.1000  0.1199 -0.0610
73128W        W10622  18.808  29.682  20.057  0.2016  0.1316  0.0663
73129W        W10623  22.403  15.389   0.430  0.0579  0.1038 -0.0498
73130W        W10624   8.694  17.058  24.799  0.0481  0.0075  0.0615
73131W        W10625  20.969  24.011  20.605 -0.3779 -0.1721 -0.0686
73132W        W10626  30.661  17.727  12.743 -0.2393  0.0111  0.0098
73133W        W10627  22.738   6.005  18.106 -0.1425 -0.0765 -0.2308
73134W        W10628  29.026  21.868  21.196  0.0006 -0.3087  0.1114
73135W        W10629   5.407  18.843  22.857 -0.1945 -0.0927  0.0882
73136W        W10630  35.323  33.525   5.844  0.3456 -0.1345 -0.0600
73137W        W10631  20.569   8.689  24.736 -0.3307 -0.0348 -0.1123
73138W        W10632  33.956  33.877  15.709  0.2356  0.0711 -0.3164
73139W        W10633  14.114   3.135   6.366  0.3112 -0.1132  0.1295
73140W        W10634   3.881  10.615  21.737 -0.0339  0.0876 -0.0756
73141W        W10635  22.434  31.880  12.573  0.2945 -0.0204 -0.1223
73142W        W10636  34.327  16.466  25.098  0.3249  0.4165  0.1101
73143W        W10637   8.186  11.308  12.325 -0.0810  0.1346  0.1730
73144W        W10638   8.441  31.890   9.604 -0.0306  0.1385 -0.1234
73145W        W10639   8.291  30.181   2.565  0.1309 -0.2504 -0.1157
73146W        W10640  20.628  12.197  17.909  0.2717  0.0226 -0.0580
73147W        W10641  25.395  31.704  14.477  0.1268  0.1885 -0.3403
73148W        W10642  29.379  23.174  23.864 -0.2674  0.0038  0.2456
73149W        W10643   4.085   7.535  23.881 -0.1109 -0.2264  0.0096
73150W        W10644  10.658  25.595  17.611  0.0036 -0.0171  0.0690
73151W        W10645   6.694   7.130  26.226  0.1726  0.0004 -0.0114
73152W        W10646  29.225  13.161  14.813  0.0027 -0.2185  0.0686
73153W        W10647  28.225   7.845  14.236 -0.6746 -0.3390  0.0896
73154W        W10648  11.445  20.173  11.347  0.0346  0.1505  0.3486
73155W        W10649  31.621  29.297   0.137 -0.0439  0.2411 -0.1269
73156W        W10650  29.334  22.751  24.520 -0.0667 -0.0332 -0.1799
73157W        W10651  21.765  14.994  19.551 -0.0561 -0.2243  0.1506
73158W        W10652  33.276  34.181  23.644 -0.2415  0.0660  0.1016
73159W        W10653  28.428  18.319  14.569  0.0377 -0.0913 -0.0962
73160W        W10654   8.310  14.824  12.042 -0.0294  0.1146  0.2778
73161W        W10655  25.786  17.884  18.411 -0.0412 -0.0289 -0.2114
73162W        W10656   0.400   2.330   7.014 -0.0592 -0.1449  0.0861
73163W        W10657  13.437  17.302   2.198  0.0894  0.0258  0.3287
73164W        W10658  29.114   1.692  17.790 -0.0326 -0.0956 -0.0230
73165W        W10659  25.138  22.014  12.560  0.0042 -0.1177  0.1905
73166W        W10660  17.980  23.175  23.157  0.2104 -0.2834 -0.0740
73167W        W10661  23.971  27.318   2.888 -0.0658 -0.2478  0.1469
73168W        W10662   8.827  35.026  25.592 -0.3820  0.2134 -0.1884
73169W        W10663   1.219   1.154   0.321 -0.2704 -0.1877  0.0763
73170W        W10664  10.359   2.973  22.876 -0.1474 -0.1840  0.2294
73171W        W10665  27.684  30.675  23.621  0.0135  0.0547  0.0230
73172W        W10666  10.874   4.456  11.846  0.0217  0.1458 -0.1540
73173W        W10667  28.256  27.032  11.371  0.3976  0.3384 -0.0509
73174W        W10668  16.539  16.212   1.276  0.2280  0.2405 -0.2142
73175W        W10669  19.262  15.370   0.756  0.3377  0.1369 -0.0129
73176W        W10670   9.671  23.270  25.313 -0.3163 -0.2446  0.1054
73177W        W10671  16.808  31.883   6.153  0.0684  0.1019  0.1265
73178W        W10672  21.385  29.470  20.545  0.0860 -0.3167 -0.4017
73179W        W10673  24.372  30.413  13.194 -0.0695 -0.1211 -0.4073
73180W        W10674  21.972  20.324  25.929  0.3582  0.2513  0.0377
73181W        W10675   7.416  32.494   6.006  0.2125  0.1108  0.1715
73182W        W10676  21.793  33.371   2.270  0.0194  0.1236  0.3273
73183W        W10677   0.478   1.116   5.256  0.1114  0.1792 -0.2815
73184W        W10678  10.659  24.819   2.923  0.1345  0.2620  0.1789
73185W        W10679  19.530   2.687  16.263 -0.1028  0.0073 -0.2571
73186W        W10680  20.780   3.254   1.697 -0.1796 -0.0241  0.2411
73187W        W10681   7.074  19.566  20.838  0.1309 -0.2382 -0.1530
73188W        W10682  27.322   6.031  11.381  0.3020  0.1113 -0.0636
73189W        W10683   7.149   9.316  10.990  0.2110  0.0621  0.0892
73190W        W10684  16.630   4.200  18.815 -0.0546  0.1645  0.1083
73191W        W10685  14.301   8.795   2.551  0.1647  0.0717  0.4287
73192W        W10686  19.874  10.469  20.101  0.0992 -0.3130  0.0972
73193W        W10687  21.085   8.859   0.823  0.1408 -0.1408 -0.0265
73194W        W10688  18.306  22.231   9.508  0.0344 -0.0217 -0.2546
73195W        W10689   1.738  31.919  22.309 -0.5527 -0.1738  0.1355
73196W        W10690  12.580  32.896   8.564 -0.0654  0.3702 -0.1039
73197W        W10691  32.807   8.609  17.017  0.4553 -0.0369  0.3148
73198W        W10692  26.543  14.692  14.882  0.0753 -0.1227 -0.1716
73199W        W10693  29.272   2.211   1.756  0.0433 -0.2524 -0.0011
73200W        W10694  11.823   3.832   9.441  0.2146  0.1514  0.0109
73201W        W10695  29.063  15.503  25.113  0.0300 -0.4026  0.1196
73202W        W10696  24.310   7.598  21.734 -0.1095 -0.0425  0.3922
73203W        W10697  21.248  31.241  14.223  0.0468  0.0890 -0.0497
73204W        W10698   9.187   4.160  21.567 -0.0183 -0.1194  0.2326
73205W        W10699  28.511  23.317  13.925  0.3754  0.1332  0.0394
73206W        W10700  30.364  12.512   7.959  0.2410  0.0030  0.2585
73207W        W10701   9.370  29.801   1.171 -0.2524 -0.1410 -0.1827
73208W        W10702   6.092  35.071  22.878  0.2807  0.4353  0.4694
73209W        W10703   7.176  24.926   2.205 -0.3516 -0.1062 -0.1848
73210W        W10704  33.825  20.020  25.698 -0.1432  0.2454 -0.0605
73211W        W10705   5.373  26.774  22.481 -0.0358 -0.2574  0.2007
73212W        W10706  10.323   1.540   0.902 -0.0383  0.0851  0.1055
73213W        W10707  29.630  35.181  17.712 -0.1097  0.1537  0.3677
73214W        W10708  11.262  31.966  13.857 -0.1026 -0.0850 -0.1920
73215W        W10709  24.416   1.440   5.877 -0.1988 -0.2201 -0.1298
73216W        W10710  11.474   3.005   4.805  0.2413 -0.1354  0.2259
73217W        W10711  23.441  33.507  23.681 -0.1909 -0.3647 -0.3684
73218W        W10712  32.773  15.874   7.778 -0.0893 -0.0564 -0.3740
73219W        W10713  14.591  19.327  24.295  0.3046 -0.3531  0.2396
73220W        W10714  29.393   1.537   0.688 -0.2619 -0.0172  0.1894
73221W        W10715   9.898  18.431   2.072  0.0003  0.0183  0.0413
73222W        W10716  19.555   4.374   6.390 -0.1731 -0.2851 -0.1480
73223W        W10717  13.831   4.652  18.521  0.0127 -0.1532 -0.0805
73224W        W10718  24.360  12.662  12.661 -0.1978  0.2368 -0.0145
73225W        W10719  24.426   1.505  17.579  0.1183  0.1620 -0.2463
73226W        W10720  25.338   3.302  17.372  0.2048  0.2327 -0.1675
73227W        W10721  27.245  16.503  15.149  0.3369  0.4175  0.2001
73228W        W10722  34.533  19.727  20.986 -0.1052 -0.2137 -0.0169
73229W        W10723  24.727  24.452   9.284 -0.1089  0.0972  0.2420
73230W        W10724  10.461   0.286  11.559  0.3696  0.0804  0.0102
73231W        W10725  13.995  28.797   9.529  0.1945 -0.0954  0.1015
73232W        W10726   7.943  34.745  23.071  0.2753 -0.0499 -0.1116
73233W        W10727  31.034  32.258  21.767 -0.2166  0.3921  0.1225
73234W        W10728   6.346  23.339   0.220  0.0087  0.3177 -0.0369
73235W        W10729  32.709   9.353   1.482  0.2858  0.1464  0.2101
73236W        W10730  27.111  23.530   9.865  0.0900  0.1143  0.0874
73237W        W10731  10.744  33.513  15.628  0.1073  0.1242  0.0824
73238W        W10732  26.744  15.424  22.439  0.2991  0.0061 -0.0649
73239W        W10733   1.431  29.179   4.765 -0.1203  0.1495  0.1789
73240W        W10734  12.352  30.418  25.158  0.0897  0.1154 -0.0073
73241W        W10735  17.910  20.159   2.649  0.0416 -0.3297  0.0154
73242W        W10736  15.271   4.784  12.034 -0.0734  0.1075  0.0854
73243W        W10737   1.708  19.126  16.024  0.1052 -0.0508  0.2050
73244W        W10738  14.778  17.973  24.288  0.2969  0.0437 -0.0324
73245W        W10739  15.288  11.798   8.243  0.2974 -0.1743 -0.0863
73246W        W10740  10.084  22.738  10.734  0.0044 -0.0214  0.0399
73247W        W10741  13.710  10.064  21.752 -0.1317 -0.2518 -0.1008
73248W        W10742  22.726  31.889  19.024  0.0997  0.1802 -0.0953
73249W        W10743  30.484  34.188  16.842  0.1140 -0.1223 -0.0454
73250W        W10744   9.840   7.658  20.967 -0.2623 -0.1500  0.0792
73251W        W10745  24.686  29.231  24.524  0.3018 -0.0090  0.0564
73252W        W10746  13.398   4.085  11.783  0.2533  0.1938 -0.0742
73253W        W10747  18.898  24.949   8.220 -0.2510 -0.1332  0.0272
73254W        W10748  13.741  20.896   7.496  0.2826 -0.0456  0.0312
73255W        W10749  31.152  24.921  21.795 -0.2637 -0.0266  0.1229
73256W        W10750  26.893   6.000  17.556  0.0688  0.0687  0.2024
73257W        W10751   1.377   3.258  19.678 -0.2386  0.0017 -0.1865
73258W        W10752  23.438  27.491  11.319  0.0514 -0.0484  0.0816
73259W        W10753  15.837  15.250  10.194  0.0472  0.0053  0.0478
73260W        W10754  12.826   0.276  23.240  0.2658 -0.0821  0.1983
73261W        W10755  29.606  21.969  24.036 -0.0549 -0.1482  0.2739
73262W        W10756   1.253  17.691  25.064 -0.1659  0.0563  0.0316
73263W        W10757  12.993  28.824  24.369 -0.0332 -0.1701 -0.0648
73264W        W10758  27.702  32.816   2.092  0.3043  0.1607  0.3299
73265W        W10759  31.452  31.852  14.487  0.1506 -0.0776  0.0553
73266W        W10760  14.443   2.133  23.243  0.0179 -0.2604  0.0390
73267W        W10761  14.685  10.930   0.561 -0.0660 -0.0144  0.4304
73268W        W10762  28.945   1.274  18.091 -0.0053 -0.0583  0.1385
73269W        W10763  31.333  20.627   8.256 -0.3600 -0.1960  0.0433
73270W        W10764  21.879  29.103  17.911 -0.0749  0.1233  0.3564
73271W        W10765   9.220   6.185  19.534 -0.2100 -0.1812 -0.1888
73272W        W10766  31.243  10.496  23.844 -0.0286  0.3713 -0.0371
73273W        W10767   0.053   4.231  18.183  0.2531 -0.0881  0.0765
73274W        W10768  33.922  23.090  22.046  0.3217  0.0610  0.2584
73275W        W10769  16.029  27.892   7.296  0.1427  0.0492  0.3068
73276W        W10770  31.637  24.251  14.733  0.4348 -0.1133  0.1765
73277W        W10771   5.568  17.791  21.420  0.0502  0.2558 -0.0945
73278W        W10772  24.786   0.163  15.032 -0.0614 -0.1169  0.1044
73279W        W10773   7.962   8.435  21.039  0.1470  0.0086  0.0288
73280W        W10774  25.327  18.499  25.345 -0.4620 -0.1882  0.3371
73281W        W10775  26.222  30.314   2.206 -0.0953 -0.1050  0.2409
73282W        W10776   4.423   4.435   5.445 -0.1968  0.1526 -0.2024
73283W        W10777   9.072  14.043  23.809  0.1908 -0.0116  0.0294
73284W        W10778  30.733  30.746   4.598  0.2006 -0.0250 -0.2584
73285W        W10779  10.710  25.094  25.043  0.1976 -0.0620  0.1771
73286W        W10780  11.091  31.151  10.144  0.3075 -0.1576  0.2360
73287W        W10781   9.239  28.996   8.090  0.0325  0.0587 -0.0710
73288W        W10782   1.763  24.789  22.549 -0.1208 -0.0221 -0.1025
73289W        W10783  33.510  23.471  12.788 -0.2104 -0.2373  0.2141
73290W        W10784  10.051  19.615  10.428  0.0573  0.2961 -0.0161
73291W        W10785  23.551  35.322  21.867  0.1976 -0.1041 -0.0299
73292W        W10786  12.747  17.642  23.299  0.1024 -0.2633  0.3460
73293W        W10787  34.457  30.951  17.178 -0.0401  0.0961 -0.1563
73294W        W10788   0.862  26.815  25.935  0.2220  0.1993  0.1130
73295W        W10789  11.982  15.584   8.059 -0.0073 -0.0662 -0.0849
73296W        W10790  11.885  25.428  17.101  0.2156 -0.4206 -0.1754
73297W        W10791  16.363   0.364   0.910  0.1435 -0.0134  0.0452
73298W        W10792  15.903  31.586  21.497 -0.0831  0.0533  0.1135
73299W        W10793  13.220  26.454  13.586 -0.0408  0.0247 -0.0836
73300W        W10794  14.502  32.227  22.780 -0.1648  0.1139  0.2056
73301W        W10795  24.033  34.605  18.389  0.1183  0.2962  0.2265
73302W        W10796  17.773   0.702  21.543  0.1031  0.1152  0.1032
73303W        W10797  29.488   8.022  19.555  0.1506 -0.0296 -0.1137
73304W        W10798   9.877  18.040   6.050 -0.1444  0.1013 -0.1277
73305W        W10799  28.487  15.070  16.633 -0.2800 -0.1132 -0.2376
73306W        W10800  11.251   9.405   6.374 -0.0230  0.3540  0.3688
73307W        W10801  20.249   6.948  18.545  0.1048  0.2976  0.2033
73308W        W10802  17.247  22.781  24.953  0.0090 -0.1003  0.2637
73309W        W10803  33.784  33.061   0.138  0.1969  0.1806  0.0067
73310W        W10804   8.998  10.250  22.917  0.0012  0.0951 -0.3805
73311W        W10805   7.168  20.543  21.731 -0.0055 -0.0187  0.1018
73312W        W10806   4.142  26.647   9.704  0.2446  0.2074 -0.0989
73313W        W10807  26.759   9.794  10.010  0.3716 -0.2189  0.1484
73314W        W10808  11.499   8.868   8.841  0.0530  0.1445 -0.0406
73315W        W10809  17.286  10.030  26.220 -0.0768  0.4746 -0.1792
73316W        W10810  25.135  28.708  21.464  0.1248  0.0044  0.0212
73317W        W10811  28.470   3.375   2.902  0.1399 -0.0451 -0.1759
73318W        W10812  28.376  21.350  10.390  0.0325  0.0009 -0.3139
73319W        W10813  19.530  13.753  10.038 -0.0152  0.0009  0.0196
73320W        W10814   3.545  25.304   5.240  0.0214 -0.0211  0.1205
73321W        W10815  31.382  33.787  17.610  0.2594 -0.4920  0.0720
73322W        W10816  23.222   9.705   3.075  0.1681 -0.0957 -0.1408
73323W        W10817   2.171  21.429   1.363 -0.0934 -0.0843  0.0389
73324W        W10818  19.252  11.719   6.402  0.3549 -0.1743 -0.1106
73325W        W10819  24.666  12.457  13.018  0.2072 -0.0060  0.2946
73326W        W10820  34.595   5.902  12.035 -0.0651 -0.2390 -0.1398
73327W        W10821   9.053  23.799  12.884  0.0861 -0.0374  0.0350
73328W        W10822  10.068  24.988   1.417 -0.2601  0.1758 -0.4727
73329W        W10823   1.313  32.636  24.697 -0.0422  0.0656  0.0275
73330W        W10824  16.820   2.174   5.035  0.2524 -0.1159  0.0622
73331W        W10825   2.549  28.943  24.288 -0.0796  0.0635 -0.1128
73332W        W10826   9.901  30.360  22.150  0.1943 -0.2375 -0.0742
73333W        W10827   6.338  15.237  23.229 -0.2396  0.1274 -0.2873
73334W        W10828  16.112   5.203  21.166  0.0241 -0.1225  0.1616
73335W        W10829  29.826   1.145  26.203  0.0985 -0.1376  0.0072
73336W        W10830  13.373   2.013   0.421 -0.0745 -0.1218  0.0064
73337W        W10831  19.879   7.850  21.402 -0.0582  0.2094  0.1340
73338W        W10832  24.625   3.369  23.335  0.1449 -0.2033 -0.3564
73339W        W10833  24.470  29.190   0.495  0.0994 -0.1690  0.0005
73340W        W10834  24.582  32.173  14.817  0.0617 -0.0495 -0.1310
73341W        W10835  12.040   3.214   6.564 -0.0367 -0.0722 -0.0613
73342W        W10836  20.091  23.916   6.239 -0.0030 -0.0685 -0.0393
73343W        W10837  14.996  25.972   7.239 -0.1651  0.0784  0.0948
73344W        W10838  11.982  22.676  16.965 -0.0439  0.0449  0.1015
73345W        W10839   1.958  12.673  25.806 -0.0043  0.0699 -0.0279
73346W        W10840  15.274  10.333  23.979 -0.0684 -0.1646 -0.0230
73347W        W10841  22.270   3.404   4.033 -0.0087 -0.1741  0.1248
73348W        W10842   5.734  12.250   4.553 -0.1590 -0.2658  0.0933
73349W        W10843  21.396  30.449  15.163  0.3210 -0.0704  0.0449
73350W        W10844  16.050  23.869  10.440 -0.0887  0.1162 -0.1187
73351W        W10845   5.700   0.066  13.407  0.0410 -0.0812  0.0969
73352W        W10846  25.466  17.014  10.511 -0.0332 -0.0506 -0.1750
73353W        W10847   9.029  32.962   1.806 -0.0363  0.0686  0.0725
73354W        W10848  33.472  32.071  23.401  0.2414  0.1865 -0.2062
73355W        W10849  27.186  14.715  16.305 -0.2640 -0.3548  0.0538
73356W        W10850  20.055  14.115   8.147 -0.3462  0.0486  0.1896
73357W        W10851  22.034  30.253  18.197 -0.2261  0.0207 -0.3319
73358W        W10852  24.015  33.283  14.004  0.0804 -0.0769 -0.2324
73359W        W10853  33.472  10.876  22.193  0.2720 -0.0566 -0.1990
73360W        W10854  22.495   7.126  18.904 -0.1368  0.2452  0.1871
73361W        W10855   6.121   1.316  19.986  0.0682  0.1810  0.3390
73362W        W10856   0.111   1.183   7.506  0.1494  0.1550 -0.0056
73363W        W10857   9.160  35.335   7.121  0.1163 -0.1673 -0.3023
73364W        W10858  34.283   5.962   3.479 -0.1565  0.0763 -0.2321
73365W        W10859  12.335   3.390  22.176  0.1864 -0.1563 -0.4777
73366W        W10860  11.671  30.165   6.346  0.0465 -0.0900 -0.0068
73367W        W10861  34.217   9.366   2.655  0.0265  0.2336 -0.0684
73368W        W10862   5.282   9.988   8.991 -0.0959 -0.0269  0.1522
73369W        W10863  33.588  10.581  23.747 -0.4223  0.2543 -0.0956
73370W        W10864  13.026  15.699   8.872  0.1696  0.2414 -0.0192
73371W        W10865   1.242   7.350  17.944 -0.0561  0.0702 -0.3652
73372W        W10866  11.584   2.462   8.850  0.1313 -0.2655 -0.0385
73373W        W10867  12.949  11.227  23.021 -0.1756  0.3180  0.0587
73374W        W10868  14.245  14.713  11.194 -0.0683  0.2701 -0.1103
73375W        W10869  24.384  15.731  25.633 -0.1077 -0.0191  0.1487
73376W        W10870   1.897  22.650  19.788 -0.1006 -0.1164 -0.0673
73377W        W10871  24.408  34.640  15.409 -0.0773  0.0160  0.0537
73378W        W10872  19.779  33.647  16.856 -0.0626 -0.1053 -0.1769
73379W        W10873  26.718  14.779  20.166  0.0091  0.1027  0.4232
73380W        W10874  12.473  32.020  11.429 -0.0113  0.1526  0.1101
73381W        W10875  16.967  25.802   8.123 -0.0751  0.0792  0.0693
73382W        W10876  26.275  26.898  13.873 -0.0992  0.0418 -0.2625
73383W        W10877  18.923  12.511  20.375 -0.0398  0.0911 -0.0175
73384W        W10878  30.795   0.429  24.434 -0.2574 -0.3134 -0.1347
73385W        W10879   1.210  20.622  21.039 -0.3591  0.0083 -0.0588
73386W        W10880  20.269   7.744   4.494  0.1085 -0.0267 -0.1594
73387W        W10881  24.502  14.751   8.499 -0.0371 -0.1675 -0.1636
73388W        W10882  26.598  20.706  11.681  0.0813  0.0519  0.0594
73389W        W10883  29.852  14.933  20.273  0.0470  0.2245  0.2648
73390W        W10884  32.428  10.344  20.857 -0.2402 -0.2605  0.0417
73391W        W10885  11.665  27.647  12.129 -0.0402 -0.0877 -0.1694
73392W        W10886   4.461  18.695   2.904 -0.1391  0.1556  0.0070
73393W        W10887  18.706  17.237   1.064  0.0545 -0.0582 -0.2558
73394W        W10888   5.106  33.907  22.102 -0.1184  0.2598  0.0699
73395W        W10889  19.576  28.209   4.249 -0.0404 -0.1923  0.0709
73396W        W10890  28.123   3.397  15.430  0.2694 -0.4383 -0.0819
73397W        W10891  26.003  29.886  13.496  0.1237  0.2078 -0.0702
73398W        W10892  22.689  29.145   1.737 -0.2005 -0.4127 -0.7433
73399W        W10893  30.821  27.792  10.444  0.1977 -0.0055 -0.2844
73400W        W10894  33.230  27.635  25.847  0.2412 -0.0864  0.0130
73401W        W10895  29.553  21.871  12.089  0.1334 -0.1252 -0.0569
73402W        W10896  33.526  28.939   2.310 -0.0031 -0.0719 -0.4501
73403W        W10897  33.757  20.862  23.716  0.1348  0.4938  0.0029
73404W        W10898  10.486   0.191  21.686 -0.1172  0.0012  0.2261
73405W        W10899  17.729   9.423  10.318 -0.0788  0.3617 -0.1445
73406W        W10900  17.954  25.443   1.132  0.1115  0.1194  0.1264
73407W        W10901  11.928   2.552  12.530 -0.0506 -0.0394  0.0476
73408W        W10902  19.100  21.884  20.365  0.3901  0.1183 -0.4078
73409W        W10903  17.932   3.890  18.423  0.4199 -0.0889  0.0815
73410W        W10904  31.760  26.542  10.128 -0.4123  0.0241 -0.1385
73411W        W10905   2.652  27.289   0.303  0.3147 -0.5078 -0.0429
73412W        W10906  21.171  30.128   2.880  0.4956 -0.1559 -0.1219
73413W        W10907  12.291  34.109  23.057  0.2870  0.0878 -0.0297
73414W        W10908  32.280  27.873   2.749  0.0452 -0.0499 -0.0596
73415W        W10909  17.020  23.924   2.661 -0.2873 -0.1803 -0.1233
73416W        W10910  16.915  13.445   7.328 -0.0166 -0.0994 -0.0804
73417W        W10911   9.076  31.979   8.690 -0.0077 -0.0727  0.3077
73418W        W10912  32.925  13.524  11.783  0.2257  0.1620  0.0244
73419W        W10913  13.408  19.791   9.178 -0.1838 -0.0762  0.2525
73420W        W10914  29.381  32.844  21.152  0.1106 -0.0193  0.3313
73421W        W10915  18.912  13.872  23.488  0.1698  0.1690 -0.0258
73422W        W10916  10.930  13.285   1.007  0.3058  0.0241  0.3041
73423W        W10917   4.320   1.533   7.703 -0.1304  0.0614 -0.4446
73424W        W10918  20.077  20.651  23.372 -0.1460 -0.2918 -0.0751
73425W        W10919  11.596   6.106   4.680  0.2922 -0.2487  0.2646
73426W        W10920  19.017   1.945  16.454 -0.3343 -0.2065 -0.0776
73427W        W10921  29.022   5.660  20.869 -0.0748  0.3333  0.0512
73428W        W10922  10.949  17.200   5.863  0.3094  0.0747 -0.0938
73429W        W10923  23.529   1.513  25.791 -0.2436  0.0716 -0.0318
73430W        W10924  11.055  24.494   3.375  0.0202  0.1449  0.3114
73431W        W10925   0.905  28.927  21.352 -0.0275  0.0809  0.4795
73432W        W10926   4.578   3.265   0.082 -0.0450  0.0131 -0.0575
73433W        W10927  23.640  31.738   4.501 -0.1317 -0.1823  0.1896
73434W        W10928  24.192  16.725  13.669 -0.3088  0.0362 -0.2748
73435W        W10929  21.885   0.159  15.125  0.1449 -0.1523 -0.1764
73436W        W10930  21.665  17.361  22.795  0.0770 -0.0457 -0.0129
73437W        W10931   3.574  15.560  17.681  0.2169 -0.1985  0.1218
73438W        W10932  32.451  23.048  16.390  0.3248 -0.0002 -0.2158
73439W        W10933   5.993  15.883  18.478  0.0770  0.0200  0.2445
73440W        W10934  16.392  34.142   3.731 -0.2048 -0.3594  0.2182
73441W        W10935  12.293  17.357  25.693 -0.0903  0.0338 -0.2023
73442W        W10936  18.385  26.150  10.427 -0.0956 -0.0242 -0.1946
73443W        W10937  15.730   1.490   3.148  0.0492  0.1176  0.0161
73444W        W10938   7.359  30.669  13.536  0.0815  0.1901 -0.1730
73445W        W10939   3.514   2.517   2.358  0.0609  0.3560 -0.5590
73446W        W10940   5.819   0.048   2.351  0.2846  0.0500 -0.0800
73447W        W10941  25.747   8.116  13.684 -0.0476  0.3507  0.0907
73448W        W10942  34.792  27.447  23.382 -0.0057 -0.2190  0.2458
73449W        W10943   6.814   3.239  11.085  0.0314 -0.2507  0.0820
73450W        W10944   0.667   7.570  23.810  0.0514  0.2064 -0.5213
73451W        W10945  17.453  20.356   2.607 -0.3477  0.0080 -0.0510
73452W        W10946  16.296  10.319   7.540 -0.2070  0.1025 -0.0388
73453W        W10947  27.681  13.023  19.998 -0.0449  0.1840  0.0609
73454W        W10948   4.320   4.227  20.448 -0.0695 -0.0385 -0.0770
73455W        W10949  22.190   3.871  24.749 -0.3106  0.0743 -0.5225
73456W        W10950   1.692  13.752  14.490  0.0374  0.2083  0.1872
73457W        W10951  24.898  34.756  21.429  0.1739 -0.0206  0.0621
73458W        W10952   7.830  23.931  12.219  0.0158 -0.1385  0.0043
73459W        W10953  18.706  18.514   5.782 -0.0895  0.0106 -0.1271
73460W        W10954   6.000   4.593   4.626  0.0084 -0.0290  0.0008
73461W        W10955   7.929   2.408  10.429  0.2042  0.0304 -0.0566
73462W        W10956  28.588  16.616  23.762  0.1750  0.3007  0.1575
73463W        W10957   8.886  27.350  12.610 -0.3471 -0.1579 -0.3847
73464W        W10958  23.428  17.655  20.898  0.1038 -0.3013  0.0354
73465W        W10959  27.531  13.258  22.904 -0.2525 -0.0273 -0.1327
73466W        W10960   8.205   2.218   3.038  0.1070  0.0182  0.2525
73467W        W10961   2.841  25.616   4.035  0.1723 -0.0382 -0.1368
73468W        W10962  18.572   4.973   9.844 -0.0763  0.2497 -0.2101
73469W        W10963  23.199   5.235  22.037  0.3795 -0.1597 -0.2211
73470W        W10964  20.736  31.405   0.131 -0.4606 -0.0248  0.2703
73471W        W10965  29.557  19.891   9.176  0.1209  0.0543  0.0810
73472W        W10966  23.325  20.062  14.468 -0.2298  0.2170  0.1734
73473W        W10967  15.703   8.264  24.428  0.0136 -0.3595 -0.0224
73474W        W10968  19.442  12.334   8.047 -0.1064 -0.0607 -0.0989
73475W        W10969   2.249  35.099   4.869  0.1667  0.0314  0.1729
73476W        W10970  33.333  20.963  10.934  0.0364  0.1251  0.0641
73477W        W10971  12.732  23.027   3.355  0.0444  0.4568 -0.1244
73478W        W10972  20.658  27.810  24.781  0.2800  0.0744 -0.1267
73479W        W10973  19.738   4.275   0.832 -0.3100  0.4075 -0.1660
73480W        W10974  21.067  17.534  18.567  0.2865 -0.1707 -0.0530
73481W        W10975   1.102   8.739  17.770 -0.2528  0.2384  0.0533
73482W        W10976   2.194   6.143  21.261  0.1337  0.2707  0.0433
73483W        W10977  22.258  30.647  13.335  0.1444 -0.1899  0.1047
73484W        W10978  31.333  13.232  23.939 -0.0720 -0.3846  0.0321
73485W        W10979   3.160  25.239   0.032  0.1417  0.0018  0.1184
73486W        W10980   0.304  16.044  25.143  0.3383  0.2434 -0.3372
73487W        W10981  25.741  33.979  22.992 -0.2462  0.1405  0.2101
73488W        W10982  31.916  31.436  18.391  0.0056  0.1645  0.3673
73489W        W10983   0.187  15.290  21.079  0.0655 -0.1923 -0.0110
73490W        W10984  22.615  23.276   0.448 -0.4015  0.1256 -0.4443
73491W        W10985  24.367   4.181  19.961  0.0439  0.0799 -0.0605
73492W        W10986  25.466  14.970  14.200  0.1616  0.0558 -0.1046
73493W        W10987  24.463   6.359   1.371 -0.2700  0.2773 -0.5231
73494W        W10988  31.033   7.585   2.742 -0.1321  0.1530  0.1618
73495W        W10989  33.503  17.271  21.625 -0.0922  0.0960 -0.2147
73496W        W10990   9.968  30.216  16.890 -0.2225 -0.1670  0.1691
73497W        W10991  16.351  29.699   5.523 -0.0706  0.0766 -0.0228
73498W        W10992  11.123  31.141  15.715 -0.0076 -0.5515  0.1128
73499W        W10993  20.125  23.181   2.367  0.0564 -0.1548 -0.0253
73500W        W10994  34.247  32.590  19.974  0.0939 -0.2548  0.2310
73501W        W10995   3.762  33.569   8.968  0.0757 -0.0074  0.1091
73502W        W10996   0.545   1.324   3.770 -0.0127  0.0933  0.2349
73503W        W10997   7.190  20.155   0.449 -0.1422  0.0735 -0.1453
73504W        W10998  15.574  21.202  20.760  0.1070 -0.4729  0.0965
73505W        W10999  14.025  17.991   3.102 -0.4536  0.1186  0.1031
73506W        W11000   8.425  20.156   5.964 -0.1561  0.1124 -0.2115
73507W        W11001  23.495  28.357   2.310 -0.0182 -0.1867  0.4695
73508W        W11002   2.033   8.360  25.870  0.0127  0.2885 -0.0452
73509W        W11003  12.940  19.072   1.293  0.2666 -0.0283 -0.1506
73510W        W11004   2.506   4.861   0.470  0.0046  0.2508 -0.0352
73511W        W11005  17.781  11.672   1.806  0.0295 -0.2787  0.0270
73512W        W11006  14.922  12.986  14.450  0.1121 -0.2439  0.0820
73513W        W11007   9.904  11.567   2.517  0.3801  0.1915 -0.2396
73514W        W11008  28.140  17.568  24.501  0.0059 -0.0766  0.1377
73515W        W11009  14.365  31.208   9.164  0.2405  0.1896 -0.0045
73516W        W11010  35.383  19.119  12.187 -0.1945  0.1337  0.0879
73517W        W11011  28.874  27.513   3.688 -0.0797  0.0963 -0.1913
73518W        W11012  26.280  31.913  24.979  0.0959 -0.0464 -0.0182
73519W        W11013  12.980   8.820   6.160 -0.0810  0.4768  0.1944
73520W        W11014  33.717  32.474  23.733  0.0994 -0.0837 -0.0336
73521W        W11015  28.883  19.107   5.406 -0.4447  0.2527  0.1396
73522W        W11016  19.094   5.395  20.673 -0.3579  0.1606  0.0714
73523W        W11017   2.489  26.829  23.368 -0.1721  0.2224 -0.1478
73524W        W11018  31.273  26.078  23.681 -0.3745 -0.0435  0.2261
73525W        W11019  19.056  17.152   5.764  0.1678 -0.2411 -0.3358
73526W        W11020  10.692  24.136   3.009 -0.0715 -0.0968 -0.0517
73527W        W11021  34.963  28.917   1.719 -0.0588  0.1567 -0.1300
73528W        W11022  19.485  25.855  24.054  0.0381 -0.1077  0.0850
73529W        W11023   2.784   2.043  22.487  0.0640 -0.2232  0.2339
73530W        W11024  31.525  33.253  13.121 -0.0850 -0.1348 -0.0283
73531W        W11025  33.455  30.222  16.279 -0.2338 -0.0221 -0.0746
73532W        W11026  23.447  26.506  23.980  0.2609 -0.1724 -0.4386
73533W        W11027   9.529   1.127  22.971 -0.0515 -0.4024 -0.0439
73534W        W11028   9.034  11.306   5.175  0.0508 -0.0161 -0.4073
73535W        W11029  33.578  23.929  24.511 -0.5634 -0.0729 -0.2445
73536W        W11030  21.413  10.694   5.209 -0.2051  0.1394 -0.0408
73537W        W11031   9.589  31.396   9.792 -0.1927 -0.2156  0.4709
73538W        W11032  29.950  30.316  10.503 -0.0426 -0.0088  0.0549
73539W        W11033   1.815  25.544   3.124  0.0362  0.2078 -0.2247
73540W        W11034  35.292  17.563  22.058  0.1899  0.4056 -0.3365
73541W        W11035   5.439  25.556   1.479  0.4135 -0.1380  0.2224
73542W        W11036  12.483  33.311  13.433  0.1081 -0.3116 -0.1887
73543W        W11037   5.346  31.510   6.005 -0.1149 -0.3773  0.1272
73544W        W11038  12.996  32.058  15.193  0.0355  0.2463  0.2650
73545W        W11039  30.702  28.371  24.380  0.0498  0.0354 -0.1563
73546W        W11040  20.871  27.274   0.374 -0.2101  0.3115 -0.1102
73547W        W11041  31.995  15.546  14.609  0.0181 -0.2366  0.0432
73548W        W11042  35.001  31.123  25.251  0.0044 -0.2298  0.1103
73549W        W11043  30.921  11.558  12.954  0.2471  0.0639  0.0601
73550W        W11044  21.776  20.740  19.018 -0.0043 -0.0239 -0.2838
73551W        W11045   2.050  33.366  17.680  0.1618  0.0382  0.0597
73552W        W11046   6.003   4.408   6.451  0.2152 -0.0771  0.1281
73553W        W11047   8.530  22.622   7.198  0.0834  0.1928 -0.0921
73554W        W11048   9.654  34.694  15.607  0.1974  0.1240  0.3487
73555W        W11049  27.393  21.299  15.799  0.2727  0.3266 -0.1116
73556W        W11050   9.655  18.845  10.428 -0.0151 -0.0421 -0.0357
73557W        W11051   0.287  21.021   1.754  0.0572 -0.1742  0.3401
73558W        W11052  17.662   6.285   4.854 -0.4092  0.1544 -0.0191
73559W        W11053  32.785   7.450  17.297 -0.1974  0.0402  0.4188
73560W        W11054   9.740   1.513  13.452 -0.1966 -0.3099  0.2629
73561W        W11055  12.837  24.959  12.980 -0.0173  0.2665 -0.0502
73562W        W11056  13.657  11.450   4.804 -0.3849 -0.4049 -0.1065
73563W        W11057  13.856   9.464  10.889 -0.3179  0.0894  0.0892
73564W        W11058  12.630   9.358   4.905  0.0002  0.2408 -0.0124
73565W        W11059   3.191  31.469   7.848 -0.0147 -0.1325 -0.0323
73566W        W11060   9.500   5.487  24.723  0.0844  0.0496  0.2739
73567W        W11061  24.298  35.150   1.246 -0.1125  0.1818 -0.0706
73568W        W11062   8.429  11.905   4.197 -0.1113 -0.2449  0.0487
73569W        W11063  30.161  21.540   5.860 -0.0191  0.0230  0.0197
73570W        W11064  10.785  27.464   1.518 -0.1656 -0.2223  0.0899
73571W        W11065  12.599   8.428   8.577 -0.1604  0.2099  0.0283
73572W        W11066  18.401  17.726   7.008 -0.3761  0.1941  0.1771
73573W        W11067   9.509  26.148   0.604  0.0288 -0.1963  0.0277
73574W        W11068  32.345   0.863   1.209  0.1796 -0.0561  0.3023
73575W        W11069   4.069  20.136  19.549  0.4013  0.0929  0.1221
73576W        W11070   9.486   2.821  13.354 -0.0001  0.4041  0.0638
73577W        W11071  17.471   5.038   8.358  0.2585 -0.2237 -0.0676
73578W        W11072   4.041   7.744   2.692  0.1221  0.1979 -0.2551
73579W        W11073  25.203  25.205  25.139  0.1548 -0.1161  0.0334
73580W        W11074  10.503  20.174   9.640  0.0413 -0.0765 -0.4190
73581W        W11075  34.451   2.905  15.146  0.3614  0.1991  0.0541
73582W        W11076   9.755  12.441  24.559 -0.1056 -0.0169  0.2726
73583W        W11077   5.100  26.023   1.863  0.1789 -0.0651 -0.0675
73584W        W11078  29.964  11.224  17.537  0.2085  0.1750  0.1122
73585W        W11079  20.847  17.035   6.130  0.1573  0.1180 -0.3532
73586W        W11080  23.175  25.207  24.303 -0.1736  0.0636  0.0498
73587W        W11081   9.159  25.655   0.587  0.0225  0.0435 -0.0848
73588W        W11082  19.630   8.290  23.483 -0.0850  0.0693  0.1519
73589W        W11083   3.724  32.629  22.683 -0.1828 -0.3188 -0.0626
73590W        W11084   3.244  30.775   7.158  0.1972  0.2971 -0.3930
73591W        W11085  28.033   7.377  14.025  0.2028  0.2230 -0.1452
73592W        W11086   0.274  20.268  23.134 -0.1933  0.0888 -0.0685
73593W        W11087  28.101   0.777  10.996 -0.1126  0.1019  0.0659
73594W        W11088  30.503   9.721  17.991  0.0235  0.0864 -0.1334
73595W        W11089  17.209  15.313  12.609 -0.2241 -0.0114 -0.2002
73596W        W11090  34.207  27.630  25.563  0.0944 -0.3754  0.2798
73597W        W11091   3.441  35.176  22.191  0.1828 -0.1738  0.1244
73598W        W11092  19.507  21.903  19.259  0.0217 -0.2933  0.0313
73599W        W11093  18.994   2.591   0.477  0.5701 -0.0278  0.3290
73600W        W11094   9.713  35.347   4.957  0.0274  0.5606  0.0596
73601W        W11095  10.968  28.581   6.622 -0.4058  0.0938  0.0909
73602W        W11096  30.600  16.950   8.320 -0.4092 -0.3291 -0.0380
73603W        W11097   7.247  20.413  26.176 -0.2171  0.1850  0.0001
73604W        W11098  26.868   6.267  14.131 -0.0367  0.1322  0.2539
73605W        W11099   1.411  11.023  17.490 -0.1432 -0.0984  0.0022
73606W        W11100  30.725  28.278  14.102  0.3561 -0.1691 -0.0993
73607W        W11101  18.744  26.849   9.672  0.0806 -0.0676 -0.1199
73608W        W11102  17.371  17.811  20.922  0.2156  0.2341  0.1733
73609W        W11103   9.356  10.560   0.791 -0.0571 -0.0492 -0.4139
73610W        W11104  23.312  32.605  16.053  0.0589 -0.1978 -0.4007
73611W        W11105  29.034  18.125  17.153 -0.0284  0.2198 -0.3527
73612W        W11106   5.812  20.641   8.588  0.0997 -0.5969 -0.0219
73613W        W11107   2.317  21.481  17.274 -0.1470 -0.0887 -0.0536
73614W        W11108   2.063  34.480   0.220 -0.3284  0.1323 -0.0866
73615W        W11109  29.403  26.943  14.326  0.4422 -0.0488  0.5032
73616W        W11110  29.898  34.663  15.275  0.3420  0.2201  0.0580
73617W        W11111  25.317   8.434  15.140 -0.0699  0.0366 -0.1669
73618W        W11112  19.866   2.244   8.092 -0.0258 -0.0491  0.1404
73619W        W11113  29.963  31.136  15.157 -0.0488 -0.1230  0.0571
73620W        W11114  29.161  21.416  22.072 -0.0301 -0.0272  0.0295
73621W        W11115   2.658   7.578  24.322  0.2446  0.1251 -0.2479
73622W        W11116  24.300  21.536  18.813 -0.1441 -0.0598  0.2509
73623W        W11117  25.693  16.787  10.972 -0.1955  0.1368  0.1690
73624W        W11118  21.436  26.232  25.903  0.1323  0.0023  0.2107
73625W        W11119   0.759   5.421   0.989 -0.1944 -0.1993 -0.2571
73626W        W11120  33.157  18.119  17.575  0.2716  0.2261  0.0172
73627W        W11121  18.655  11.462   8.059  0.1359  0.0061  0.2836
73628W        W11122   9.379   5.188   6.568 -0.1245  0.0309  0.2510
73629W        W11123  11.595  14.037  22.019 -0.1774  0.1768  0.0859
73630W        W11124  27.661  33.403  14.026  0.1684 -0.0496 -0.1987
73631W        W11125  16.120  12.913   5.514  0.4947 -0.3231  0.1127
73632W        W11126   5.020  33.684   6.212  0.0971  0.0116  0.0279
73633W        W11127   6.786  34.887  14.912  0.0067 -0.5406  0.1304
73634W        W11128  26.240  26.822  11.384  0.0195 -0.0060 -0.1526
73635W        W11129  34.534  20.381  18.930  0.0331  0.0702 -0.0010
73636W        W11130  27.144  33.875  13.967 -0.0896 -0.0671 -0.1388
73637W        W11131  10.205   7.511   1.116 -0.2223  0.0014  0.0245
73638W        W11132  20.297  28.313   7.431  0.0673 -0.0545  0.0069
73639W        W11133  11.017  25.945   6.352 -0.2325  0.1950 -0.0801
73640W        W11134  18.347  31.605  17.773  0.0395 -0.2496 -0.3894
73641W        W11135  10.268   3.115   3.942  0.0607  0.2154 -0.2684
73642W        W11136  18.318  16.615  22.731 -0.0485  0.0892 -0.0811
73643W        W11137   6.941  25.782   2.797 -0.1246 -0.0026 -0.4360
73644W        W11138   7.470  26.478  23.010  0.2309  0.1713  0.0346
73645W        W11139   6.696   0.983  23.148 -0.0739 -0.3592 -0.3920
73646W        W11140  29.075  28.394  19.339 -0.0978  0.2011  0.1384
73647W        W11141  27.707  31.535  25.634  0.0774  0.0143  0.3779
73648W        W11142  28.992  16.835   7.572 -0.1752  0.0189  0.0185
73649W        W11143   1.316   3.138   3.721 -0.0918 -0.0409  0.0519
73650W        W11144   2.058  30.008   2.189  0.1152 -0.0322 -0.0383
73651W        W11145   3.669  34.895   9.485  0.0317  0.1808 -0.1214
73652W        W11146  12.200   7.874   6.998  0.3178  0.0322 -0.1748
73653W        W11147  17.993  32.706  24.928  0.0370  0.1638  0.2217
73654W        W11148  15.273   4.451  25.796 -0.0497  0.1625 -0.0646
73655W        W11149  21.888  24.292   4.307  0.0147 -0.2090  0.0250
73656W        W11150  33.584  12.774   0.378 -0.1134  0.3481  0.3422
73657W        W11151   1.124  19.781  20.522  0.1503 -0.1211  0.2096
73658W        W11152   0.209   3.437  15.535 -0.1839 -0.1316  0.0367
73659W        W11153   8.613  21.445  13.615 -0.3023 -0.2776  0.2827
73660W        W11154  14.584  24.242   3.758 -0.2566  0.0460  0.0822
73661W        W11155  30.045  31.004   3.694 -0.1006  0.3836 -0.1836
73662W        W11156  24.515  28.177  18.245 -0.0487  0.0390 -0.0889
73663W        W11157  15.983  14.567  21.184 -0.0073  0.0738 -0.0892
73664W        W11158   1.065   3.334  16.036  0.2428  0.0889  0.2966
73665W        W11159   3.338  20.948  15.869 -0.1847 -0.0719  0.1374
73666W        W11160  24.896  32.937   2.847  0.0486 -0.3443  0.0477
73667W        W11161  31.796  15.585   6.543  0.1075 -0.2539  0.0018
73668W        W11162  18.429  32.951  20.860 -0.2269 -0.0615  0.1145
73669W        W11163  28.529  26.800  23.624 -0.0545  0.0269  0.1377
73670W        W11164  35.161  26.998   3.508 -0.0196 -0.1321 -0.1211
73671W        W11165  29.828  13.857  15.309 -0.1229 -0.3208  0.0711
73672W        W11166  29.794  22.992  13.716 -0.0915 -0.0352  0.1935
73673W        W11167  26.595  25.324  15.228 -0.3262  0.0682  0.0564
73674W        W11168   6.098  27.059   2.845  0.0622 -0.0283  0.2003
73675W        W11169  16.637   4.917   3.885 -0.0902 -0.3138  0.1101
73676W        W11170  16.889  34.449   3.575  0.4175  0.2629  0.2587
73677W        W11171  29.627  20.607  25.691 -0.2213  0.2404 -0.1500
73678W        W11172  31.256   9.215  24.904 -0.1778 -0.1628 -0.2196
73679W        W11173   4.852   7.188  16.839 -0.0054 -0.0141  0.0930
73680W        W11174   4.445   7.953  17.313  0.0223 -0.1200 -0.2969
73681W        W11175  13.744  15.829   8.065 -0.0493  0.0686 -0.2454
73682W        W11176  15.334   6.541  12.605 -0.0572 -0.1487 -0.1129
73683W        W11177   1.861   0.698   5.691 -0.0431 -0.1452  0.3920
73684W        W11178   8.384  25.867   7.845  0.3145  0.0739  0.1355
73685W        W11179  26.439   1.553   4.630  0.0234  0.0549 -0.1991
73686W        W11180  17.920  20.378  20.951  0.3450 -0.0735  0.1095
73687W        W11181   5.416   9.558   3.499  0.3585 -0.1802 -0.0249
73688W        W11182  35.193  20.289   7.508  0.1836  0.0295 -0.1253
73689W        W11183   2.112  13.584  19.260 -0.1584  0.1732 -0.0214
73690W        W11184  10.083  12.812   5.507 -0.4292  0.2546 -0.0863
73691W        W11185  18.140   7.422   3.719 -0.3650 -0.1225  0.1674
73692W        W11186  14.352  14.143   2.928  0.0722  0.1301 -0.1021
73693W        W11187   7.587  17.759   5.877 -0.2368  0.0537  0.4009
73694W        W11188  28.666  25.614  15.884  0.1365  0.2167 -0.4485
73695W        W11189   6.367   3.787  22.839 -0.3046  0.0038  0.1506
73696W        W11190  29.538  30.721  24.879  0.3436 -0.0223  0.2651
73697W        W11191  21.518  32.601  13.718  0.0199  0.0263 -0.0793
73698W        W11192  32.357  18.555  15.536  0.5522  0.0853 -0.2059
73699W        W11193  14.600  10.110  13.042  0.0284 -0.2831 -0.2026
73700W        W11194   4.625  21.717   5.770 -0.1705 -0.0994  0.1603
73701W        W11195  11.303   9.564   0.595  0.2277 -0.0954 -0.1999
73702W        W11196  22.151  31.827  22.910 -0.2407 -0.0827  0.0861
73703W        W11197  14.453  13.022  20.456 -0.1092 -0.0440 -0.2211
73704W        W11198   7.382  16.866   6.707 -0.2793 -0.3966 -0.2042
73705W        W11199  25.842  33.902   1.347 -0.4086  0.0517  0.0084
73706W        W11200  13.861  25.874   5.562  0.0097 -0.0289 -0.2226
73707W        W11201  21.183   9.542  21.520  0.2435  0.0175  0.0305
73708W        W11202  13.708  24.879   5.007 -0.0554 -0.0759  0.1305
73709W        W11203  32.463  29.594  19.588 -0.0424  0.0961  0.0909
73710W        W11204  16.467  25.820  21.791 -0.2435  0.0611 -0.1474
73711W        W11205   8.866  20.253   2.090  0.1403  0.0827 -0.4615
73712W        W11206  21.353  21.452  23.361 -0.1625  0.2463  0.0359
73713W        W11207  28.861  22.617  11.121  0.3004  0.1970  0.0599
73714W        W11208  34.246  13.082  12.301 -0.2120  0.0360  0.1776
73715W        W11209  21.536  27.326  24.557  0.1411  0.1647  0.1485
73716W        W11210   2.450  25.735  25.132  0.4490  0.0784 -0.1930
73717W        W11211   8.075   1.199  22.435 -0.0557  0.1235 -0.1438
73718W        W11212   9.047   0.326  24.586  0.0152 -0.0566 -0.0733
73719W        W11213  21.612  19.556  14.849  0.0401  0.2214  0.1200
73720W        W11214  34.917  31.482   7.846 -0.1355  0.1133 -0.2216
73721W        W11215   8.526  17.578   9.941 -0.1235 -0.1340 -0.0280
73722W        W11216  28.045   5.987  23.099  0.1348  0.0768 -0.3825
73723W        W11217  14.894  11.659  22.057  0.3642 -0.0091  0.2118
73724W        W11218  28.638  18.530  19.343 -0.1052 -0.2215 -0.1426
73725W        W11219   9.098   0.437  20.428  0.0994  0.1342  0.2402
73726W        W11220  34.924  14.481  21.908 -0.2420  0.0840 -0.0040
73727W        W11221   1.267  17.055  26.203 -0.2356 -0.0223  0.2011
73728W        W11222  16.632   9.034   8.549  0.2645  0.0258 -0.3676
73729W        W11223  26.528   3.791  23.771 -0.0909  0.1343 -0.2628
73730W        W11224  28.456  32.618  23.874 -0.1588 -0.0999  0.0023
73731W        W11225   1.523   8.613  14.798  0.0450  0.3830  0.0364
73732W        W11226  30.146  12.099  10.888  0.2049  0.3522 -0.4872
73733W        W11227  23.457   3.071   4.001 -0.0802  0.2022 -0.4267
73734W        W11228  22.998  20.965  16.512 -0.2080  0.1488 -0.1449
73735W        W11229  27.234  10.486  11.016 -0.0536  0.0374  0.1478
73736W        W11230  31.892  32.269   0.718 -0.2306  0.2671  0.1515
73737W        W11231   2.878   2.019   5.144  0.1132  0.0135  0.0886
73738W        W11232  29.681  16.872  22.985 -0.1266 -0.3694  0.0238
73739W        W11233   8.875   4.748  12.902  0.1830 -0.2870  0.5704
73740W        W11234   0.596  28.980  22.450  0.0287  0.0567 -0.2963
73741W        W11235  26.611  18.155  14.137 -0.3121  0.1649 -0.3288
73742W        W11236  21.833  12.452  18.313 -0.1379 -0.2570  0.5047
73743W        W11237  20.371  30.314  19.476 -0.3418 -0.0461  0.0661
73744W        W11238   9.901   5.324   2.293  0.2267 -0.4626  0.3315
73745W        W11239  27.661   4.109  14.827 -0.2367 -0.1486 -0.1629
73746W        W11240  26.061  24.395  11.399  0.0139  0.0905 -0.3680
73747W        W11241  35.105  17.535   9.153  0.0621  0.0748  0.0714
73748W        W11242  28.039   1.306  21.744  0.2881 -0.0447  0.2874
73749W        W11243   3.884  31.579  21.964  0.1285 -0.0325 -0.0078
73750W        W11244  26.000  12.198  12.055  0.1771 -0.2286 -0.0220
73751W        W11245   5.345  24.647  23.399  0.3171  0.0100 -0.0283
73752W        W11246  33.698  12.269  16.868  0.1264 -0.0616  0.0111
73753W        W11247  19.891  25.561   5.279  0.0142  0.4930 -0.1877
73754W        W11248  15.789  16.421   4.365  0.1990 -0.4444 -0.0081
73755W        W11249  22.659  32.807  12.680  0.1903 -0.0622  0.0406
73756W        W11250   6.702  14.472  16.878  0.1818 -0.3565 -0.1800
73757W        W11251   9.852  21.031   9.335 -0.1148  0.0944  0.2735
73758W        W11252  25.534  13.528  10.218  0.0433  0.0198  0.0519
73759W        W11253  21.518  28.190   1.487  0.1797 -0.1514  0.0586
73760W        W11254  30.758   1.502  25.173  0.1834 -0.1214  0.0531
73761W        W11255  30.225  18.759   4.772 -0.1293 -0.2075 -0.1161
73762W        W11256   4.937   9.367   3.113  0.3104 -0.2118  0.1523
73763W        W11257   3.385   3.108  22.959 -0.0847  0.0041 -0.1972
73764W        W11258  28.361  11.373  21.136 -0.3303  0.0497  0.2114
73765W        W11259  13.066  17.966  21.357  0.1844 -0.0927 -0.0439
73766W        W11260   6.805   2.329   6.717 -0.1316  0.0485 -0.0805
73767W        W11261  12.066  23.104  24.200  0.0037  0.0247 -0.0795
73768W        W11262  31.922  19.274  18.853 -0.0523  0.2108 -0.0184
73769W        W11263   1.883  31.375  22.342 -0.0292  0.1342  0.0506
73770W        W11264   5.363  12.149  23.530  0.1926  0.0082  0.0335
73771W        W11265  23.987  27.354  13.461 -0.1333  0.4241 -0.1423
73772W        W11266  28.385  15.966  14.636  0.1198 -0.2580 -0.4674
73773W        W11267   3.476  34.035  21.718 -0.2643  0.1525 -0.0979
73774W        W11268  29.185  12.952  23.432 -0.1558 -0.4533  0.0818
73775W        W11269   3.135   8.791  16.529  0.3249 -0.4642 -0.1253
73776W        W11270  23.743  32.658  14.739 -0.1064  0.0010  0.4206
73777W        W11271   9.839  15.349  24.244  0.0015 -0.1722  0.2633
73778W        W11272   7.843  33.368  10.778 -0.1256 -0.1446  0.1552
73779W        W11273  18.450  13.238  25.380 -0.3606  0.0062 -0.2059
73780W        W11274  11.589  29.261  15.693 -0.2040  0.3942 -0.0853
73781W        W11275  24.137  12.851  19.393  0.2614  0.1694  0.0459
73782W        W11276   2.482  17.661  21.403  0.0640  0.1068 -0.1302
73783W        W11277   6.239  30.303  21.466  0.3417  0.0402  0.0486
73784W        W11278  30.443  15.592  23.278 -0.1803 -0.3681  0.0515
73785W        W11279  30.717  19.466  13.828 -0.0206  0.1107  0.0893
73786W        W11280  14.664  17.797  22.454 -0.0672 -0.1454  0.5586
73787W        W11281   5.884   2.305  18.931 -0.0058 -0.0946 -0.3617
73788W        W11282  25.616  34.383   3.903  0.0601  0.3330  0.4886
73789W        W11283  28.773  33.209  23.612 -0.0721 -0.0274 -0.2565
73790W        W11284   7.995  10.711   2.865 -0.2349  0.0233 -0.1721
73791W        W11285  35.226  12.976  22.178  0.0029 -0.0306 -0.0808
73792W        W11286   4.314  11.061  22.114 -0.0842  0.2281  0.3401
73793W        W11287  28.125   6.836  15.144  0.2921  0.0681 -0.0758
73794W        W11288   6.949  19.988   0.036  0.0432  0.3523 -0.1483
73795W        W11289  17.374  30.158  21.349  0.1963 -0.0093 -0.0922
73796W        W11290  22.037  24.092   3.787 -0.1752 -0.0497  0.2195
73797W        W11291  33.519   0.845  20.311  0.1754  0.1020  0.0787
73798W        W11292   2.516  34.691  22.141  0.1227  0.3064 -0.4213
73799W        W11293  32.637   7.972  20.611 -0.0258 -0.0267  0.0399
73800W        W11294   1.833  18.217  13.944  0.0024 -0.1105  0.1989
73801W        W11295   3.152  23.280   4.882 -0.2286 -0.1843  0.1411
73802W        W11296   7.360  11.683   9.187 -0.1346 -0.2885  0.2735
73803W        W11297   6.314  10.346  25.127  0.2440 -0.1780 -0.1819
73804W        W11298   5.275  16.407  23.418  0.0788  0.1830  0.1511
73805W        W11299  11.642  10.000   0.939  0.2686 -0.0046 -0.0312
73806W        W11300   1.956  27.698  23.150  0.0188  0.0263 -0.0539
73807W        W11301  32.472  14.744  15.000 -0.0666  0.1250  0.2043
73808W        W11302  21.160  33.873  22.395 -0.2739  0.2025 -0.0235
73809W        W11303  17.517   7.726   1.201  0.1089 -0.0549  0.4351
73810W        W11304  34.396  34.291  14.194 -0.3502  0.1617 -0.0117
73811W        W11305   3.529   8.039  15.943 -0.1914 -0.2454 -0.2043
73812W        W11306   5.194   7.732   9.666  0.2335  0.0933  0.0503
73813W        W11307  18.289  31.193  20.117 -0.0733  0.0575 -0.1959
73814W        W11308  12.613  26.699   7.496  0.1961  0.0402  0.2143
73815W        W11309   0.816  18.457  24.725 -0.2292  0.2076  0.0219
73816W        W11310   3.080  12.823   2.240  0.0705 -0.0285 -0.1712
73817W        W11311   3.951   0.789  11.117 -0.0142  0.1839  0.0911
73818W        W11312  21.077   5.011   3.892  0.2328 -0.0692 -0.0388
73819W        W11313   2.066  15.416   1.314  0.0741  0.0545  0.0073
73820W        W11314  19.338  35.097  16.196 -0.3042  0.0920  0.2558
73821W        W11315  10.353   6.206   6.852 -0.0540 -0.1161  0.1209
73822W        W11316   2.470  16.065  24.320  0.1264 -0.2521  0.0570
73823W        W11317  10.153   0.896   3.096 -0.1567 -0.1958 -0.2056
73824W        W11318   4.343  25.828   1.506  0.2048  0.0026  0.0181
73825W        W11319  19.300  14.210  21.880 -0.0835  0.0220  0.0323
73826W        W11320  34.479   3.546   2.651  0.1244  0.4772 -0.1504
73827W        W11321  14.773  28.155   6.966 -0.2101 -0.2034  0.0208
73828W        W11322  11.468   1.584  25.023 -0.3507 -0.1257 -0.1299
73829W        W11323  27.170  15.956  15.142 -0.5240  0.5883  0.0482
73830W        W11324   6.578   7.156  10.415 -0.0491  0.0814  0.0630
73831W        W11325  13.712   0.922  26.079  0.1348  0.0220 -0.0810
73832W        W11326   0.444  32.707   1.637 -0.0436 -0.2927  0.1830
73833W        W11327  12.372  10.849  25.127 -0.1642  0.4095  0.3793
73834W        W11328  31.189   6.357  20.153 -0.1840  0.1279 -0.1210
73835W        W11329  25.809   7.313  17.160 -0.0246  0.4194 -0.3505
73836W        W11330   5.867  24.854   5.737  0.2951  0.1300 -0.2340
73837W        W11331  19.440  21.820  10.191 -0.1343  0.2928 -0.1028
73838W        W11332  33.218   1.696   4.566  0.2693 -0.1868  0.0493
73839W        W11333  27.711  26.295  15.461 -0.1361  0.1369  0.0520
73840W        W11334  31.073   5.383   1.093  0.0312  0.1159 -0.1346
73841W        W11335  17.570  18.739  18.802 -0.0955 -0.1637  0.2652
73842W        W11336   7.008  33.114   8.488  0.1543 -0.2134 -0.1950
73843W        W11337  10.351   5.299  25.575  0.0200  0.0513  0.0254
73844W        W11338  17.580  33.066   5.017 -0.0563 -0.2361 -0.0667
73845W        W11339  12.540  14.428   3.169 -0.3269 -0.1922  0.0487
73846W        W11340  16.454   8.839  25.158  0.0242 -0.1981  0.1998
73847W        W11341  19.494  29.965  17.905  0.1972 -0.0594 -0.0391
73848W        W11342  18.468  21.028  10.769 -0.3363  0.1447  0.2381
73849W        W11343   7.262  25.933   8.966 -0.2631 -0.3096 -0.0501
73850W        W11344  30.518  23.063   6.809 -0.0795 -0.1567  0.0531
73851W        W11345  19.365  25.082  22.821  0.0646 -0.0667 -0.1609
73852W        W11346  15.918  22.547   0.798  0.0828 -0.1156 -0.1205
73853W        W11347   7.373  26.383   6.216 -0.0256 -0.0740  0.2195
73854W        W11348   8.834   7.430   7.055  0.1436  0.4437  0.0052
73855W        W11349  25.131  31.554   1.467  0.1793  0.0600 -0.0881
73856W        W11350   3.004   5.304   6.060 -0.1261  0.1635 -0.1980
73857W        W11351  15.338   3.705   1.785 -0.0372 -0.2360  0.2067
73858W        W11352  30.795  20.429  13.741 -0.3331 -0.2417 -0.1811
73859W        W11353   0.794   0.836   1.976 -0.1684 -0.3397 -0.1682
73860W        W11354  14.995  19.771   4.644 -0.1039  0.1881  0.2646
73861W        W11355  34.639   4.439  16.675  0.0813  0.1510  0.2165
73862W        W11356  28.213  28.230  22.274 -0.0191 -0.1575 -0.0107
73863W        W11357   0.366  29.181  17.950  0.1940 -0.3063 -0.0498
73864W        W11358  17.080  11.182  20.364  0.1465 -0.2364 -0.1470
73865W        W11359   7.597  27.158   4.846  0.5196  0.1418 -0.4560
73866W        W11360  21.443   0.428  17.746 -0.0305  0.0986 -0.1193
73867W        W11361   1.495  25.904  18.407  0.1269  0.1208  0.3886
73868W        W11362  34.401  26.624  18.002 -0.4329 -0.0329  0.1059
73869W        W11363   0.651   9.525  11.630 -0.1075  0.1781 -0.0950
73870W        W11364   6.106  15.194   5.795  0.0249  0.1645  0.2644
73871W        W11365  29.109   4.583   0.559 -0.1026  0.3135  0.0647
73872W        W11366   9.896  10.938   7.287  0.2014 -0.1998  0.2340
73873W        W11367  13.000   1.425   4.178  0.1578  0.1745 -0.1000
73874W        W11368  31.436  23.050  17.447 -0.2561  0.1787 -0.0966
73875W        W11369  26.648  32.936  20.704  0.2561 -0.0320 -0.2339
73876W        W11370   9.095  21.051   1.585 -0.0838  0.2233 -0.1373
73877W        W11371  15.791  17.426   9.653  0.3465  0.0367 -0.0468
73878W        W11372  15.335  21.942   0.900 -0.0874 -0.1660  0.0169
73879W        W11373  31.007  31.987  16.792 -0.0927 -0.0783 -0.0750
73880W        W11374  31.014   5.881  22.295 -0.1243 -0.0226  0.0603
73881W        W11375   2.454  34.917   7.540 -0.1235  0.0805  0.0170
73882W        W11376  17.698  17.386   8.696 -0.1024 -0.1692  0.0126
73883W        W11377  30.266  17.032   4.690  0.1026 -0.2032 -0.0141
73884W        W11378  10.501  23.635  15.980  0.1281 -0.1443 -0.0903
73885W        W11379  16.405  21.407  14.119 -0.1857  0.1400 -0.0120
73886W        W11380  23.047  12.362   0.799  0.0589  0.2657  0.0681
73887W        W11381   9.983   8.624  24.197 -0.0987  0.1519  0.2827
73888W        W11382  13.980  23.099  23.469  0.1115  0.0437  0.0503
73889W        W11383  17.140  15.233  24.658  0.3985  0.2270 -0.0134
73890W        W11384   4.271  20.895  19.374 -0.2899 -0.0297  0.0644
73891W        W11385  30.087  11.222  21.211  0.1906  0.0257 -0.0023
73892W        W11386  10.552   5.234  11.275  0.2611 -0.0986  0.0058
73893W        W11387  32.242   2.355  20.357  0.2473  0.0244  0.6049
73894W        W11388   8.748   6.044  12.745  0.0530  0.3208  0.0583
73895W        W11389  35.210  13.626  24.814  0.1251 -0.2447  0.1484
73896W        W11390  16.407   1.291  21.683  0.1343  0.3109 -0.3979
73897W        W11391   6.355  17.753   5.018 -0.1410  0.1081  0.2744
73898W        W11392   5.295  23.392   2.694  0.1344 -0.0078 -0.0080
73899W        W11393   1.353  11.724  13.164  0.0079 -0.0860 -0.3167
73900W        W11394   8.880  17.380   5.318  0.0959  0.0303  0.0564
73901W        W11395   9.789  25.453   4.934 -0.2110 -0.1457 -0.0611
73902W        W11396  15.373  16.558  20.329  0.2421 -0.0947  0.0949
73903W        W11397  25.396  18.790  13.964  0.0554 -0.0928  0.1421
73904W        W11398  29.418  14.763   7.198 -0.1694 -0.2915  0.3601
73905W        W11399   0.383   2.046   4.905  0.0631  0.0449  0.2051
73906W        W11400  16.569  18.082  12.152  0.0232 -0.2222  0.1359
73907W        W11401   9.486  30.795   6.093 -0.4002  0.0369  0.1295
73908W        W11402  12.066  19.789   0.444 -0.2492 -0.0287  0.0159
73909W        W11403  14.925   1.973   1.097  0.2020  0.2466  0.2452
73910W        W11404  22.822  35.057   7.108  0.1611  0.0053  0.0454
73911W        W11405  21.405  22.068   7.412 -0.0988 -0.2236  0.2552
73912W        W11406  23.398   6.213  21.946  0.2038 -0.3159  0.0886
73913W        W11407   6.590  12.408  24.419 -0.1555 -0.1771  0.0481
73914W        W11408  33.054   9.396  15.178 -0.3482  0.2109  0.0412
73915W        W11409  20.589   8.303  17.969  0.1048  0.1099  0.1563
73916W        W11410  23.052  20.393  26.140 -0.0484  0.1452  0.4651
73917W        W11411  32.080  31.758  23.577 -0.0269 -0.3537 -0.1529
73918W        W11412   5.216  19.354  20.165  0.1473  0.1721  0.1304
73919W        W11413  24.752  30.854  19.777 -0.2360  0.4858 -0.1672
73920W        W11414  22.445  32.991  21.375 -0.0687 -0.1873 -0.2893
73921W        W11415   4.096   1.122  24.371 -0.5721  0.1075 -0.0571
73922W        W11416  14.824  23.005   7.020  0.0441 -0.0137  0.3874
73923W        W11417  24.135  16.279  21.492 -0.1514 -0.2698 -0.1536
73924W        W11418   3.616  15.590  26.164 -0.1830  0.0303 -0.2162
73925W        W11419  27.730   4.303  12.579  0.0725 -0.1654 -0.0930
73926W        W11420  18.978  31.722  21.816 -0.3156 -0.1106 -0.0511
73927W        W11421   0.242  31.175   0.012  0.1030 -0.0690 -0.4519
73928W        W11422  16.037   0.781   7.754  0.2114 -0.1502 -0.2446
73929W        W11423   7.264   5.282   3.550  0.1409  0.0370 -0.0909
73930W        W11424  32.039   4.362  17.608  0.1052  0.1410  0.0823
73931W        W11425   5.595  22.907  20.266  0.0120 -0.1649 -0.0741
73932W        W11426  24.327   1.198  18.892 -0.3303 -0.1886  0.3472
73933W        W11427   4.328  18.597  17.918  0.2587 -0.0269 -0.2750
73934W        W11428  30.566  22.490  21.984  0.2556  0.0178 -0.2282
73935W        W11429  24.061  16.698  17.027 -0.1853  0.0403  0.0242
73936W        W11430   1.619   1.798   1.077  0.2731  0.0357 -0.0929
73937W        W11431  21.766   8.082  18.200 -0.0646  0.0247 -0.0828
73938W        W11432  16.628  33.868  21.781 -0.0236  0.0368 -0.2476
73939W        W11433  30.730  19.283  20.123 -0.0206  0.1980 -0.1993
73940W        W11434  23.160   2.485  25.639  0.0072  0.0541  0.2515
73941W        W11435   8.874   5.411  24.935 -0.1817  0.1962 -0.3436
73942W        W11436  32.974  21.698  12.223 -0.1169 -0.1045 -0.1459
73943W        W11437  18.906  10.445  20.207  0.2516 -0.0697  0.1259
73944W        W11438   8.424   7.619  11.129  0.3218 -0.0599  0.1011
73945W        W11439  28.967   8.872  15.170  0.2042 -0.0895 -0.3032
73946W        W11440  20.957  10.070  19.114 -0.0270 -0.3123 -0.0860
73947W        W11441   7.840  15.645   9.546  0.0405  0.2040 -0.0553
73948W        W11442  15.069  14.895   2.809 -0.2605 -0.0793  0.1116
73949W        W11443  24.706  21.628  24.555  0.0772 -0.2395  0.0117
73950W        W11444   6.811  26.401   9.830 -0.0456 -0.0029  0.0494
73951W        W11445  29.023   5.323   2.475  0.0155 -0.3091 -0.1069
73952W        W11446  27.182  13.906   8.429 -0.0971 -0.0887  0.2257
73953W        W11447  26.444  24.055  22.001  0.0598  0.0732  0.0541
73954W        W11448   4.916  17.012   0.761 -0.0166  0.0682 -0.1244
73955W        W11449   0.355  17.339  17.757 -0.1500 -0.0400 -0.3610
73956W        W11450  18.873   0.821  20.366 -0.1309 -0.1145 -0.0670
73957W        W11451  24.574   2.999  14.489 -0.1456 -0.1998 -0.3242
73958W        W11452  11.630   6.539  10.293  0.0314  0.0827  0.0112
73959W        W11453  26.439  33.617  21.960 -0.1032 -0.0540 -0.1300
73960W        W11454  26.550   9.568  12.008  0.1897 -0.2151 -0.3851
73961W        W11455  31.643   2.920  21.167  0.3867 -0.2212  0.0880
73962W        W11456  18.208  16.243   3.644 -0.0246 -0.1506  0.1577
73963W        W11457  20.252  22.562   8.253 -0.0032  0.1602 -0.0599
73964W        W11458  14.960  15.522   4.347 -0.1495  0.3370  0.2068
73965W        W11459  31.411   0.729  15.182  0.2593  0.0356 -0.0115
73966W        W11460  31.645  26.115  19.057  0.1895 -0.0628 -0.2566
73967W        W11461   9.627   2.643  14.800  0.2069  0.1863  0.1089
73968W        W11462  30.222   2.876  12.864 -0.2631  0.1191  0.0760
73969W        W11463   9.107  14.013   1.272  0.0720  0.0658  0.0017
73970W        W11464  15.607   0.490  18.849  0.2081  0.2104  0.1182
73971W        W11465   2.977  26.573   5.201 -0.0431  0.0223 -0.0703
73972W        W11466  21.814   1.389  18.204 -0.2967  0.1650 -0.1074
73973W        W11467  18.341   2.011   1.732  0.2841  0.3191  0.1938
73974W        W11468   4.103  22.042  16.552  0.0665  0.1693  0.1581
73975W        W11469  25.662  23.530  19.984  0.2911  0.1619 -0.0921
73976W        W11470  34.468  23.596  26.186  0.1211 -0.0089  0.0539
73977W        W11471  26.586  17.686  17.858 -0.4352 -0.0486  0.2431
73978W        W11472  25.551  22.530  24.039 -0.2754  0.2617  0.1937
73979W        W11473  15.831  22.968  23.427 -0.0531 -0.3003  0.0531
73980W        W11474  31.702  17.461  14.441 -0.0404 -0.0765  0.0596
73981W        W11475   2.041  23.438  23.647 -0.0787 -0.3707 -0.1721
73982W        W11476   7.034  28.722   8.544 -0.0461 -0.0864 -0.0002
73983W        W11477  16.098   6.208  18.212  0.0992  0.1201 -0.0435
73984W        W11478  33.630   1.570  24.763 -0.0004  0.2178 -0.0900
73985W        W11479   3.565  15.856   2.038  0.0700 -0.4752 -0.3380
73986W        W11480   6.524   6.632   0.010  0.0613 -0.0425  0.0858
73987W        W11481  31.140  21.881  24.653  0.0756 -0.0923 -0.2591
73988W        W11482   9.390   5.158  25.589 -0.3092  0.0512  0.1614
73989W        W11483  33.285  31.053  12.676 -0.2210  0.0676  0.1461
73990W        W11484   6.304  25.715  21.814  0.0318  0.1153 -0.0294
73991W        W11485  18.775   1.157  15.995  0.1131 -0.0535  0.0763
73992W        W11486  15.010  33.778  19.793  0.3459 -0.2382 -0.1424
73993W        W11487  30.904  13.061  24.245 -0.1824  0.0771  0.1296
73994W        W11488   7.205  33.982   8.143 -0.2010  0.0290 -0.0138
73995W        W11489  29.464   5.896  24.301  0.3054 -0.1651 -0.0207
73996W        W11490   5.225  28.610  11.148 -0.3209  0.0064  0.0815
73997W        W11491   5.361  20.149  23.133  0.1417  0.1046 -0.0552
73998W        W11492   3.381  24.397  19.637 -0.0188  0.4876 -0.1385
73999W        W11493   7.724  21.582   8.536  0.0487  0.0637 -0.2633
74000W        W11494   2.336  24.172   1.007 -0.0570  0.3498  0.2759
74001W        W11495  24.848   7.541  10.997 -0.1768 -0.1764  0.0537
74002W        W11496   1.681  23.219  16.499  0.1446 -0.3388  0.1835
74003W        W11497   3.392  25.978   2.210  0.1594  0.2715 -0.3586
74004W        W11498   8.166  32.737   5.221  0.1535  0.0745 -0.1093
74005W        W11499  16.053   8.202  22.266 -0.2421 -0.0078  0.1791
74006W        W11500  19.216   3.551  16.357  0.0631 -0.1558 -0.1368
74007W        W11501  10.776  17.227   8.941  0.0751 -0.1390  0.0313
74008W        W11502  21.160  19.082  21.541 -0.0180  0.1636  0.3409
74009W        W11503  28.079   6.836   2.866 -0.0978 -0.2012  0.0415
74010W        W11504  22.888  31.458   2.720 -0.1030  0.1690 -0.0356
74011W        W11505   5.444  15.067   2.171  0.3125 -0.0343 -0.1754
74012W        W11506  14.981   1.152  24.240 -0.0680 -0.0609  0.0757
74013W        W11507   1.293  33.437   7.274 -0.0066  0.2035 -0.1847
74014W        W11508  29.750  29.586  12.661  0.0353 -0.1124 -0.1493
74015W        W11509  10.735  25.489   3.607  0.0723 -0.2842  0.0609
74016W        W11510  24.726  18.572  13.190 -0.2403  0.3149  0.3568
74017W        W11511  23.457  20.146  20.654  0.1118  0.0922  0.5539
74018W        W11512  18.904   3.165   0.439  0.1209 -0.0401 -0.3517
74019W        W11513  21.995  16.343   0.281  0.0186  0.0802  0.2448
74020W        W11514  28.533  15.418  14.915 -0.2325  0.0671  0.1166
74021W        W11515  28.912  10.778  24.335 -0.0360  0.1673 -0.2511
74022W        W11516  20.663   1.630  17.721  0.1488 -0.1377 -0.0304
74023W        W11517  23.693  29.456  23.886  0.0047  0.1589 -0.1085
74024W        W11518  31.620  16.085  19.756 -0.0880  0.2170  0.3407
74025W        W11519   2.854  12.300  18.941 -0.0366  0.3710 -0.1255
74026W        W11520  32.433  19.798  11.585 -0.0358 -0.0820 -0.1716
74027W        W11521  20.033  12.695   1.030  0.1980  0.0081 -0.2048
74028W        W11522   9.559  10.829  20.891 -0.2403 -0.1239 -0.2420
74029W        W11523  30.262  23.551  12.928  0.2543  0.1339 -0.3787
74030W        W11524  22.697  21.160   1.574  0.2443  0.0032  0.3506
74031W        W11525  16.568   4.246  10.127  0.2134  0.2619  0.2774
74032W        W11526  13.059  14.936   8.802  0.2362 -0.0757 -0.2308
74033W        W11527   7.652  10.714   0.321 -0.2611 -0.2140  0.1465
74034W        W11528  24.155  17.932  20.239 -0.2065  0.0593  0.0272
74035W        W11529   4.313  33.484  11.774 -0.0182 -0.0508 -0.1151
74036W        W11530  22.543  34.965   1.765 -0.0469  0.0555 -0.0234
74037W        W11531   6.305  26.738   7.814  0.1760 -0.0011  0.3752
74038W        W11532  33.231   6.279   1.068 -0.1287  0.1331  0.0849
74039W        W11533  32.426  24.092  25.827 -0.1068  0.0593  0.0458
74040W        W11534   3.140   9.656   7.774  0.1368 -0.0259  0.0117
74041W        W11535  34.341   4.871  21.573  0.0615 -0.2281 -0.2355
74042W        W11536  10.120  32.959   9.633  0.2395 -0.1893  0.1137
74043W        W11537  25.540  17.411  18.934 -0.0098  0.4369  0.1583
74044W        W11538  35.260  35.328   5.568  0.2768 -0.1767 -0.1536
74045W        W11539  16.064  23.132   2.440 -0.0159 -0.0511 -0.2682
74046W        W11540  17.496   8.004   3.364  0.1050 -0.1930  0.0285
74047W        W11541   3.222  10.152   7.562 -0.1513 -0.2221  0.6354
74048W        W11542  17.009   7.525  13.426  0.0961  0.0462  0.2734
74049W        W11543  26.528  20.663   5.921  0.4034 -0.0264 -0.2096
74050W        W11544  12.055   4.680   6.353 -0.1410 -0.0830  0.0589
74051W        W11545   6.589  16.162  23.408  0.2270  0.0948 -0.0294
74052W        W11546  20.523  26.587   8.410 -0.0636  0.2040  0.2447
74053W        W11547  33.020  33.787  18.643  0.1186  0.0918 -0.0502
74054W        W11548   6.874  30.458  26.004 -0.0905 -0.1959  0.1573
74055W        W11549  23.053  28.069  17.647  0.2663 -0.2096 -0.3006
74056W        W11550  16.628  22.154  10.563  0.1773  0.1537  0.1037
74057W        W11551  15.638   3.022  11.403 -0.1280  0.0277  0.0635
74058W        W11552   7.426  32.029  14.273 -0.0796  0.0551 -0.2390
74059W        W11553  29.993   8.992  12.475 -0.0565  0.1190  0.4421
74060W        W11554  12.181  28.481  14.123  0.0518 -0.1902 -0.3410
74061W        W11555  16.992   0.240  19.589 -0.0028  0.0308 -0.0896
74062W        W11556  26.967  21.296  24.488 -0.0197  0.4333 -0.0658
74063W        W11557  31.284   9.296  12.081  0.2420  0.0360  0.2389
74064W        W11558  17.234   9.205  10.955 -0.1061  0.0432 -0.0175
74065W        W11559  25.077  35.292   6.008  0.2451  0.1026 -0.1922
74066W        W11560  31.196  15.578  13.918 -0.0420 -0.0895 -0.0226
74067W        W11561  11.956  17.642  21.451  0.1390 -0.1972  0.3190
74068W        W11562  23.795   6.831  21.412 -0.0477  0.2185  0.0560
74069W        W11563   6.303   6.265  20.807 -0.0553  0.2665 -0.3256
74070W        W11564  10.352  10.876  22.513  0.3723 -0.2762 -0.0245
74071W        W11565   4.885   5.514   7.898 -0.0722  0.1749  0.3255
74072W        W11566   7.636   7.002  25.861 -0.1969 -0.2523 -0.2449
74073W        W11567  17.017  17.391  25.652  0.0595  0.2346  0.0808
74074W        W11568   3.910  18.399  21.497 -0.0616  0.0199  0.0848
74075W        W11569  28.081  24.422   9.773  0.0304  0.0684  0.2842
74076W        W11570  23.134  25.042  24.843 -0.1611 -0.0744 -0.1124
74077W        W11571  10.938   7.280   9.738  0.1088  0.3307  0.2125
74078W        W11572   7.500   4.657   6.667  0.0612  0.0893  0.2142
74079W        W11573   9.325  34.304   4.125 -0.0391 -0.1072 -0.0076
74080W        W11574  34.637  20.389  16.321  0.0638 -0.2848 -0.3701
74081W        W11575  17.347  14.028   5.609 -0.0850 -0.2166  0.3269
74082W        W11576  25.915   0.772  21.603  0.0631 -0.1165 -0.1633
74083W        W11577  25.617  16.035  24.069  0.1144  0.2547 -0.2115
74084W        W11578   7.128  27.369  16.206  0.0479  0.0395  0.1722
74085W        W11579   9.816  26.779  24.650  0.2507  0.0636 -0.3483
74086W        W11580  28.779   5.531  25.887 -0.0544  0.3733 -0.3292
74087W        W11581  20.483   4.538   1.549 -0.3407  0.0869  0.1988
74088W        W11582  33.959   0.918  26.129 -0.2006 -0.0130 -0.2909
74089W        W11583  13.831  25.202   9.426 -0.2695 -0.0451 -0.0289
74090W        W11584  20.309   8.235   6.102  0.1472  0.0308 -0.3272
74091W        W11585  33.008   6.765  17.916  0.1371 -0.0682 -0.1485
74092W        W11586  11.095  34.473  13.964 -0.1344 -0.1361 -0.2054
74093W        W11587  26.285  31.895  26.206 -0.0632  0.0087 -0.1979
74094W        W11588  18.721  19.790  25.308 -0.1208  0.0956 -0.1599
74095W        W11589   2.792  10.615  14.465 -0.1956  0.0964 -0.0065
74096W        W11590  19.258  33.314  20.743 -0.0980 -0.0301  0.4044
74097W        W11591  22.011  14.282  18.306 -0.3245  0.0720  0.4176
74098W        W11592  27.687  27.143  13.361 -0.0978 -0.0426 -0.3692
74099W        W11593  21.304  10.834  24.591 -0.1335  0.3418 -0.2825
74100W        W11594  12.917  15.939  11.611 -0.2143 -0.0436  0.1774
74101W        W11595   8.535  28.166  10.532  0.1800 -0.2108 -0.1561
74102W        W11596  14.867  18.289   4.154 -0.3314 -0.1876 -0.1367
74103W        W11597  18.590  28.910   4.795  0.3608 -0.1476  0.1408
74104W        W11598  30.816   0.722  17.815  0.1853 -0.2523 -0.3501
74105W        W11599  21.262  13.184   1.000 -0.0217 -0.2794 -0.0900
74106W        W11600   1.759  30.879   3.093  0.1720 -0.0683  0.3778
74107W        W11601  15.351   1.722   0.003  0.1458  0.3343  0.1836
74108W        W11602  19.522   0.984   5.206  0.1066  0.0129  0.1330
74109W        W11603  20.519   0.202  21.210 -0.4306  0.0213  0.0124
74110W        W11604  24.307  14.885  14.960  0.1150  0.2237  0.1548
74111W        W11605  26.533  11.967  16.681 -0.2431  0.2387 -0.0639
74112W        W11606  13.069  10.056   1.303 -0.2955 -0.1649  0.4370
74113W        W11607  12.575  24.580  21.863  0.1314  0.2022 -0.0420
74114W        W11608  32.336  17.305   0.296  0.0331 -0.4448  0.1754
74115W        W11609  25.437  21.214   8.500 -0.0499  0.1834  0.2146
74116W        W11610   3.489  28.741   6.788  0.0710 -0.2097  0.2042
74117W        W11611   0.917  15.933  15.690  0.0910 -0.0325  0.4489
74118W        W11612  29.059  14.418  20.578  0.1773  0.1880  0.1306
74119W        W11613   3.231  29.893   6.268  0.1710 -0.1853 -0.0966
74120W        W11614  28.900  12.128   8.102  0.3737  0.1054  0.3187
74121W        W11615  21.923  10.364  18.530 -0.1234  0.0841 -0.1949
74122W        W11616  28.893   6.662  11.356 -0.2950 -0.0012 -0.0274
74123W        W11617  23.247   2.226  19.298 -0.0694 -0.1557 -0.0532
74124W        W11618  21.645  29.345  16.606  0.0185  0.0213 -0.0076
74125W        W11619  17.879  32.287  18.669  0.0884  0.1816 -0.2284
74126W        W11620  20.122  12.234  25.361  0.1445  0.2737  0.4552
74127W        W11621  32.901  27.551  19.630  0.0130 -0.1204 -0.3007
74128W        W11622  11.665  29.110  22.185  0.0576  0.3135 -0.3606
74129W        W11623   1.530   4.466  17.342 -0.2491  0.0586 -0.1642
74130W        W11624   3.553  15.060   4.071  0.0454 -0.0178 -0.0399
74131W        W11625  26.715  13.743  25.036 -0.1643 -0.0092  0.1675
74132W        W11626  35.158  23.218  19.956 -0.3492  0.1055 -0.2127
74133W        W11627   3.798   7.462   5.922 -0.3523 -0.1762  0.1313
74134W        W11628  11.585  13.513   4.204 -0.0072 -0.0216  0.2407
74135W        W11629  23.993  12.217   1.702 -0.0313  0.3068  0.1122
74136W        W11630  14.807  23.802  10.220 -0.2999 -0.3196 -0.2379
74137W        W11631   2.177  24.630  22.810 -0.0858 -0.2306  0.3260
74138W        W11632  19.747  17.240  21.984  0.2597  0.2703  0.1023
74139W        W11633  27.767  33.391  19.217  0.1916  0.1288  0.1901
74140W        W11634   3.638   6.745  25.960  0.2192 -0.1403 -0.0980
74141W        W11635  27.775   8.845  20.625 -0.2017 -0.0797  0.1598
74142W        W11636  32.224   2.627   4.295  0.1717 -0.2234  0.0189
74143W        W11637  33.565  14.244  22.842 -0.0788  0.2434 -0.2869
74144W        W11638   5.369  21.707   7.184  0.0885 -0.0340 -0.0223
74145W        W11639  16.905   7.179  20.114 -0.3124  0.2679  0.0050
74146W        W11640   4.946   5.201   3.432  0.1589  0.0906  0.1198
74147W        W11641  24.180   4.418  15.113 -0.2679 -0.0142 -0.3039
74148W        W11642  15.460  25.319  22.414 -0.1396  0.1241 -0.1264
74149W        W11643  15.464  24.875   5.453 -0.2584  0.1372  0.3389
74150W        W11644  34.073   2.827  14.836  0.1425 -0.0952 -0.0113
74151W        W11645  14.743  24.353   3.137 -0.1032 -0.2114 -0.1520
74152W        W11646  10.509  23.226  11.409 -0.0356  0.0441  0.0740
74153W        W11647  29.527  25.921   8.422  0.2535 -0.0373 -0.1320
74154W        W11648  32.643  27.498  22.588  0.0581 -0.1496  0.2682
74155W        W11649  35.115   5.257  14.135 -0.0465 -0.0349 -0.1639
74156W        W11650  27.820  23.827  16.961  0.1987  0.2877 -0.1577
74157W        W11651  33.722  29.956  18.575  0.0073  0.0932  0.1017
74158W        W11652  18.621  33.012   1.737 -0.1478 -0.2321  0.0518
74159W        W11653   0.941  16.512  23.788  0.0970 -0.3601 -0.1339
74160W        W11654  35.126  17.414  18.821 -0.2492  0.0255  0.0360
74161W        W11655   3.735  26.581  11.379  0.1020  0.2422  0.0520
74162W        W11656   2.136  31.606  24.094  0.3385  0.1472 -0.0290
74163W        W11657   0.537  27.896   2.690  0.0709 -0.1295  0.0320
74164W        W11658   8.164  17.543  10.987  0.4875 -0.2893  0.1850
74165W        W11659  13.212   4.491   7.737 -0.1125 -0.0403  0.1328
74166W        W11660  20.793  12.168  21.076  0.5112  0.1737  0.1627
74167W        W11661  23.412  26.654  16.668  0.2964  0.0084 -0.1367
74168W        W11662  29.947   5.256  23.223  0.3317  0.2085 -0.0879
74169W        W11663  32.970  17.233  18.362  0.0905 -0.0382 -0.0032
74170W        W11664   7.986  23.913   8.794 -0.0227  0.1071  0.2563
74171W        W11665  27.489  13.333  10.625  0.1489  0.2714  0.0427
74172W        W11666   4.710   9.754   2.810 -0.0287 -0.1443 -0.0425
74173W        W11667  23.198  34.523  25.537  0.0305 -0.0595  0.2371
74174W        W11668  23.724  27.276  21.881 -0.0932 -0.0497 -0.0891
74175W        W11669  31.055   7.807  17.593  0.0522 -0.3910  0.2660
74176W        W11670  34.725   5.850   6.376  0.3942  0.2737  0.1363
74177W        W11671  19.293  32.403   2.529  0.2166 -0.2019 -0.3904
74178W        W11672  27.058  33.867  12.590 -0.1961  0.0943 -0.0191
74179W        W11673  33.049   3.528  20.275  0.0571  0.0142 -0.0207
74180W        W11674  17.124   6.416   8.228  0.0327  0.2599  0.2249
74181W        W11675  21.485  24.584  22.724  0.2864  0.2814  0.0538
74182W        W11676  21.733  24.092  21.946  0.0688  0.0260  0.0276
74183W        W11677  26.042  31.185  16.203  0.1470 -0.0267  0.1010
74184W        W11678   4.224  34.488   0.541 -0.3347  0.3132  0.1584
74185W        W11679  13.149  29.413   3.962 -0.1130 -0.2751 -0.1550
74186W        W11680  13.449  17.073  25.710 -0.1782  0.0276  0.3644
74187W        W11681  32.729   8.164   2.640  0.3594  0.0020 -0.0646
74188W        W11682  10.155  20.237   5.054  0.0002  0.2206  0.1076
74189W        W11683  16.844   5.338   4.115  0.0002 -0.0538  0.2239
74190W        W11684  15.109  15.115   9.055 -0.0648  0.0354  0.2015
74191W        W11685  16.557  15.680  20.669  0.0194  0.1960  0.3126
74192W        W11686   0.508  31.946  16.920  0.0958  0.1456 -0.1472
74193W        W11687  21.112  28.345  20.413 -0.0072 -0.2580 -0.2421
74194W        W11688   4.831   9.386   8.464  0.2716  0.0583 -0.0235
74195W        W11689   5.857  12.179  18.049  0.4106 -0.3017 -0.0212
74196W        W11690  11.610  26.723  17.387  0.1441 -0.2272  0.1922
74197W        W11691  12.076   8.786  25.729 -0.0412  0.1620  0.2222
74198W        W11692   1.566   9.841   2.001 -0.2016 -0.1917  0.2363
74199W        W11693   5.397  15.683   6.156  0.4121  0.2729  0.1400
74200W        W11694  25.170  19.096  24.555  0.1212 -0.0376 -0.1678
74201W        W11695   3.351   3.967   9.638  0.1665 -0.1531 -0.0601
74202W        W11696  27.771  18.766  25.879  0.1412 -0.0356 -0.1778
74203W        W11697  17.039   5.266  25.216 -0.1569  0.1402 -0.1536
74204W        W11698  11.596   7.018  19.554  0.4191 -0.0962  0.1174
74205W        W11699   2.557  18.862  15.552 -0.3160 -0.1459 -0.1552
74206W        W11700  23.152  26.513  22.143 -0.4045 -0.1207  0.1057
74207W        W11701   8.797  11.859  23.340  0.2983 -0.0186 -0.1338
74208W        W11702   0.775  16.349  20.091 -0.1313 -0.0351 -0.0999
74209W        W11703   1.613  23.260   1.193  0.2882 -0.0839 -0.2403
74210W        W11704   8.279  27.483  23.244  0.1302 -0.1134  0.2036
74211W        W11705  31.158  27.535  21.634  0.1299 -0.1091 -0.1019
74212W        W11706   7.422  23.212  11.861  0.0963 -0.0632 -0.0265
74213W        W11707  29.640  21.879  12.641  0.4483 -0.0784 -0.1446
74214W        W11708   5.074   6.391  23.772  0.1115  0.0140 -0.1849
74215W        W11709  33.328  27.860   3.831 -0.1384  0.1489 -0.2667
74216W        W11710  15.480  23.218  16.235 -0.3622  0.1639 -0.0018
74217W        W11711  17.244  17.323  21.029  0.0504  0.0928 -0.2736
74218W        W11712   5.234  12.855  20.810 -0.0879  0.1877  0.0061
74219W        W11713   6.364   2.694  13.355 -0.2124 -0.0810  0.2210
74220W        W11714   8.829  19.625   2.865  0.2708 -0.0958 -0.0938
74221W        W11715   9.212  21.974   4.905 -0.0515 -0.3574 -0.1522
74222W        W11716   8.335  12.169   3.337 -0.0306  0.0776 -0.1181
74223W        W11717   3.088  22.205  19.574  0.2948 -0.1057  0.0545
74224W        W11718  30.512  28.717  14.466 -0.0186  0.0283  0.0562
74225W        W11719  22.737  19.508   3.185 -0.3943 -0.4380 -0.1165
74226W        W11720  14.278  19.755   1.749 -0.0069  0.3293 -0.0514
74227W        W11721   4.072  20.182  24.954  0.1683 -0.0110 -0.1499
74228W        W11722   2.628  19.798   3.564  0.1192  0.2749  0.1070
74229W        W11723   5.173   3.173  22.550 -0.1603  0.3637 -0.2073
74230W        W11724  35.136   0.536   5.484  0.1297 -0.0271  0.2192
74231W        W11725  33.123  26.064  11.695  0.0483 -0.1942  0.2271
74232W        W11726  27.765   3.028  18.498 -0.0527  0.2437 -0.2762
74233W        W11727  19.011   9.376  11.334 -0.1621 -0.0095 -0.1859
74234W        W11728   7.213  27.978  15.437 -0.1395  0.0358 -0.1612
74235W        W11729   3.767  25.621   7.611 -0.1410 -0.0033  0.1811
74236W        W11730  26.150  35.171  24.062  0.0380  0.1294 -0.0072
74237W        W11731   0.521   8.344  11.409  0.0733 -0.1548  0.1741
74238W        W11732   6.977  24.431   5.270  0.0616 -0.1238  0.0821
74239W        W11733  14.624  34.610  20.326  0.1958 -0.0297 -0.1797
74240W        W11734  18.073  35.354   3.099 -0.0992  0.0969  0.1051
74241W        W11735  30.963  13.457  25.190  0.0121 -0.0217  0.3502
74242W        W11736  18.183  13.608   4.168 -0.1683 -0.0576 -0.1989
74243W        W11737  27.689   0.465  24.328 -0.1293 -0.0146 -0.1549
74244W        W11738   2.175  25.041  21.787 -0.1895 -0.0885 -0.0542
74245W        W11739   3.191  32.510  25.267 -0.1090 -0.0977 -0.0050
74246W        W11740  13.614  17.179   0.165  0.0867 -0.2773 -0.0722
74247W        W11741  17.533  13.030   8.559 -0.0068  0.2871  0.1452
74248W        W11742  27.801  11.439  13.455  0.0624  0.0797  0.0726
74249W        W11743   0.654  24.821   4.915 -0.2831  0.0635 -0.1108
74250W        W11744   1.099  12.644  22.110  0.0018 -0.1114 -0.5467
74251W        W11745  22.898  14.134  24.761  0.0633 -0.1517 -0.0944
74252W        W11746   9.173  16.413   6.924 -0.3292  0.1640 -0.1050
74253W        W11747   0.005  19.013  19.923  0.1586 -0.1211  0.1022
74254W        W11748  28.245  34.354  22.847  0.1098  0.0390  0.0679
74255W        W11749  13.659   9.850  23.337  0.2934  0.0841  0.1411
74256W        W11750  32.971  33.291   7.018 -0.0501 -0.1199 -0.1244
74257W        W11751  26.871  31.660  16.957  0.0279 -0.0603  0.0839
74258W        W11752  28.502  12.103   8.946 -0.0297  0.0188  0.1972
74259W        W11753   1.244  32.250  23.457 -0.0863  0.1308  0.1630
74260W        W11754   5.099  27.153   5.212 -0.1929 -0.0498 -0.1302
74261W        W11755  30.545  11.606  17.728 -0.1057 -0.0048  0.3821
74262W        W11756  21.551  16.368  25.111 -0.0609  0.0724 -0.1079
74263W        W11757  23.209   3.641  18.894 -0.0752  0.0133  0.4403
74264W        W11758  29.425  30.423  25.356  0.3112  0.0310  0.1791
74265W        W11759  15.504  19.192  24.672 -0.1933  0.2674  0.1069
74266W        W11760  23.417  14.216  14.187 -0.3512  0.0005 -0.0937
74267W        W11761   8.186  35.169  12.240  0.1179 -0.0067 -0.0036
74268W        W11762  12.489  21.951   8.850 -0.1561 -0.3626 -0.0895
74269W        W11763  17.745  25.252   6.390 -0.1850 -0.0511  0.2101
74270W        W11764  17.700  12.867   9.165  0.1270 -0.0006  0.2933
74271W        W11765   4.270   3.386   8.423 -0.0004  0.2647  0.1387
74272W        W11766  29.778  23.181  17.563 -0.1047 -0.0509  0.0136
74273W        W11767  12.717  27.021  21.917  0.0234 -0.0984  0.1207
74274W        W11768  12.393   0.809   2.423 -0.1804 -0.1845  0.0129
74275W        W11769  25.059  27.568  16.550 -0.3778  0.2746 -0.1038
74276W        W11770  31.294  22.621  16.884  0.2977  0.2735 -0.0378
74277W        W11771  33.238  19.078  14.197  0.0636  0.3310  0.4314
74278W        W11772   8.868  15.993  23.707  0.0448 -0.0921 -0.1342
74279W        W11773  26.536  23.413  14.801 -0.0661  0.0093  0.0832
74280W        W11774  33.465  33.020  25.479 -0.0627  0.1477 -0.2052
74281W        W11775  14.037  32.112   5.669 -0.0459  0.1080  0.1913
74282W        W11776  19.796  15.105   0.118  0.0139 -0.1634 -0.0498
74283W        W11777  14.063  25.509   0.422 -0.0032 -0.1207  0.0808
74284W        W11778   2.830  26.440   7.044  0.3433  0.0820  0.4308
74285W        W11779  33.244  13.352  20.081  0.1344  0.0867 -0.0523
74286W        W11780  25.137  30.632  11.849  0.0218 -0.1288 -0.0625
74287W        W11781  13.015  33.958   3.195  0.1142  0.0402 -0.1396
74288W        W11782  15.965  13.763  12.509 -0.2885 -0.1599  0.1170
74289W        W11783  17.900   6.657   8.891  0.2455  0.2392 -0.2092
74290W        W11784   3.520  31.067   8.019  0.0084 -0.0520 -0.0478
74291W        W11785   4.886  21.220   5.753  0.1334 -0.4106 -0.2508
74292W        W11786  15.626  28.942  11.380  0.2416  0.4893 -0.0228
74293W        W11787  25.204  17.459  10.638 -0.2429 -0.2320  0.1693
74294W        W11788  16.155  27.158   3.651 -0.1154  0.2015  0.0451
74295W        W11789   0.980  26.867   6.466  0.0762 -0.2217 -0.0241
74296W        W11790  35.084  27.349  25.975  0.1286 -0.0161 -0.2204
74297W        W11791   2.405  28.410   1.559  0.2234 -0.0264  0.0842
74298W        W11792  21.964  29.617   1.337  0.2072  0.1620  0.2296
74299W        W11793  10.523  19.714  23.332 -0.0405  0.5020  0.2912
74300W        W11794   0.001   9.306  17.337 -0.2364  0.1866 -0.0617
74301W        W11795   7.400  13.378   3.273 -0.0670  0.1085 -0.0172
74302W        W11796  14.774   3.973   5.170  0.0626 -0.0186  0.1893
74303W        W11797  21.152  34.565  17.263  0.4025  0.2493  0.1250
74304W        W11798   4.829   8.123   6.562 -0.2598  0.1629  0.2503
74305W        W11799  35.325   4.199   2.317  0.1468  0.0524 -0.0026
74306W        W11800   3.649  20.285  21.677 -0.0910  0.1307  0.4233
74307W        W11801  24.709  15.536  17.804 -0.1503  0.2513  0.3616
74308W        W11802  10.220  17.882  12.178  0.2852  0.3161  0.2182
74309W        W11803  22.525  13.495   2.795  0.2492  0.1781  0.1057
74310W        W11804  14.401  23.856  22.652  0.0992 -0.2286 -0.1401
74311W        W11805  16.813  34.928   3.474 -0.3022 -0.4510 -0.1946
74312W        W11806  13.576  23.089  16.157 -0.2966  0.0303 -0.1028
74313W        W11807   9.006  33.303   0.489 -0.3039 -0.4950 -0.0736
74314W        W11808  23.968   2.849   5.301  0.0259  0.3136  0.2862
74315W        W11809   5.517   8.081   2.969  0.0713  0.1308 -0.0408
74316W        W11810  12.006  12.690   3.384  0.1554 -0.1982 -0.1271
74317W        W11811  32.114   3.280  19.635 -0.3337 -0.3150 -0.2643
74318W        W11812   7.071  35.054   1.371 -0.0303  0.0279 -0.1869
74319W        W11813   8.072  28.377   9.259  0.1582  0.0550 -0.2129
74320W        W11814  30.552  17.067  18.355 -0.1872  0.2668 -0.2099
74321W        W11815  18.973  14.634  21.675  0.2646  0.0920 -0.1175
74322W        W11816  21.577  13.614  17.796 -0.1358 -0.0294 -0.0104
74323W        W11817  16.890   2.012   6.197 -0.2219 -0.1201 -0.0374
74324W        W11818  29.935  29.651  11.722  0.2075  0.2605  0.2395
74325W        W11819  21.163   7.480   7.312 -0.0489 -0.1025 -0.3220
74326W        W11820  14.047  19.265  15.527  0.3343 -0.0443 -0.0784
74327W        W11821  11.894  24.109  13.644 -0.3154  0.0052 -0.1270
74328W        W11822  35.180   2.917  22.897  0.2326  0.1947  0.2069
74329W        W11823  13.999  35.113  19.135  0.1731  0.0165 -0.1836
74330W        W11824   0.711  21.298   8.376 -0.1808 -0.2956 -0.2201
74331W        W11825   6.618  13.889  20.855  0.1564 -0.0286  0.0608
74332W        W11826   6.943  29.320  23.804 -0.1928  0.1710 -0.0667
74333W        W11827   6.819  14.643   5.768 -0.1383 -0.1333  0.2363
74334W        W11828   2.216   5.174   5.929 -0.2214 -0.0678 -0.1424
74335W        W11829  26.299  22.042  23.602 -0.1313 -0.2322  0.1270
74336W        W11830  11.238  22.336  16.468  0.1179  0.0061 -0.2036
74337W        W11831  33.524  12.076   0.477 -0.2253  0.1707  0.4853
74338W        W11832  17.326   3.333  11.405  0.4067 -0.4325  0.2387
74339W        W11833  30.877   1.750   1.710 -0.1625  0.0549 -0.0688
74340W        W11834  27.663  23.419  25.113  0.2191  0.0684  0.2508
74341W        W11835  19.983  25.379   2.795  0.0144  0.4229 -0.0940
74342W        W11836  21.223  31.901   5.389 -0.2077  0.3138  0.0902
74343W        W11837  15.567  30.037   5.893  0.0617  0.2922 -0.1845
74344W        W11838  31.103   3.026  15.049 -0.3319 -0.3216 -0.0147
74345W        W11839  17.195  13.960  22.950 -0.0106 -0.2702 -0.0145
74346W        W11840  35.075  30.054  15.299 -0.1641  0.0839 -0.1979
74347W        W11841   3.331  16.754   4.586 -0.2767  0.0952  0.0820
74348W        W11842  33.929  33.321  19.988 -0.0239  0.1619 -0.1582
74349W        W11843  16.831  24.327   7.083  0.1613 -0.1434 -0.0122
74350W        W11844   9.317  29.389   8.442 -0.1966  0.2343  0.1685
74351W        W11845  34.428  28.454   0.979 -0.2204 -0.1013 -0.1094
74352W        W11846  21.976  25.257   1.810  0.0369  0.0942  0.0868
74353W        W11847   1.723  12.514  26.193  0.0215 -0.1213 -0.1486
74354W        W11848   0.585  19.483  14.320  0.1390 -0.1352  0.1146
74355W        W11849  19.431  16.417   4.056 -0.0911 -0.1263 -0.2574
74356W        W11850  23.439  30.883  23.393 -0.3580 -0.3140  0.0881
74357W        W11851  29.992  21.618  16.408  0.0996 -0.3487 -0.0439
74358W        W11852   8.538  23.422  12.335 -0.0674  0.0990 -0.2083
74359W        W11853  25.145  14.703  13.336 -0.0670  0.1294  0.1129
74360W        W11854  32.995  20.770  17.098 -0.0885 -0.2185 -0.0119
74361W        W11855   0.219  14.994  18.167  0.1048 -0.0584  0.0842
74362W        W11856  29.145   4.996  17.307 -0.1468 -0.1492 -0.0479
74363W        W11857  17.646  26.818   4.873 -0.1706  0.1403 -0.3197
74364W        W11858  20.924  10.672  24.869 -0.2336  0.0268 -0.0035
74365W        W11859  26.155  19.066  14.899 -0.1297 -0.2447 -0.0490
74366W        W11860  29.250  13.507  11.169  0.1894 -0.4310 -0.0359
74367W        W11861   8.342  10.522   8.170  0.2140 -0.0021  0.2172
74368W        W11862  27.403  33.393  12.457  0.1742 -0.0783  0.1936
74369W        W11863  26.342  20.735  22.146  0.0638 -0.2613 -0.1321
74370W        W11864  19.447  14.102   2.237  0.0644  0.1655  0.0626
74371W        W11865  27.913  16.203  12.990  0.0463  0.0493  0.3904
74372W        W11866  34.410   2.781  17.354  0.0628 -0.0018  0.0016
74373W        W11867  11.290  33.100  11.526 -0.0042  0.0821 -0.1861
74374W        W11868  33.190   5.036  23.034 -0.0346  0.2052 -0.3001
74375W        W11869  35.104  26.642   5.782 -0.0182  0.0389  0.1105
74376W        W11870   7.092   3.137  12.554 -0.1710 -0.0210  0.1378
74377W        W11871  29.018  10.923   8.523  0.0834  0.0130 -0.1602
74378W        W11872   0.576  30.352   3.124  0.2817 -0.1594  0.0112
74379W        W11873  25.790  32.000  23.252  0.0730 -0.1959 -0.2756
74380W        W11874  27.682  22.036  22.456  0.2090 -0.3710  0.1141
74381W        W11875  27.057  29.840  24.250 -0.0019  0.0707 -0.0602
74382W        W11876  14.945  13.995  24.539 -0.0146  0.1353  0.2305
74383W        W11877   4.161  17.319   2.697 -0.1961 -0.1340 -0.1275
74384W        W11878  28.453   8.359  12.015  0.2706 -0.0402  0.0605
74385W        W11879   9.334  18.012   0.208 -0.3334 -0.3678  0.1017
74386W        W11880  12.822  10.646   7.827  0.0960 -0.1126  0.0466
74387W        W11881  14.957  26.350  22.465  0.0662  0.3105  0.0638
74388W        W11882   8.483  33.126   5.183 -0.1748 -0.1049 -0.2481
74389W        W11883  11.091  20.789  23.949  0.2205  0.1979 -0.0140
74390W        W11884  10.103  23.416   6.272  0.1015  0.1255 -0.0747
74391W        W11885   4.233  26.571   8.587  0.0704 -0.1101 -0.1617
74392W        W11886  11.307   8.780  19.871  0.5179  0.2306  0.0336
74393W        W11887  32.732   1.572  17.205  0.0882 -0.3573  0.1356
74394W        W11888   5.131  19.166  23.146 -0.0122  0.1754 -0.1053
74395W        W11889  25.302  30.179  15.824  0.0004  0.2134 -0.2797
74396W        W11890  18.623  21.546  20.353 -0.1100  0.2498 -0.4252
74397W        W11891  11.848   6.033  23.797  0.0944  0.1475 -0.2091
74398W        W11892  15.448  24.672  13.221  0.0965  0.2960 -0.2000
74399W        W11893   1.416  19.782  18.551 -0.2505  0.1759  0.0528
74400W        W11894  11.040   0.980  11.843  0.1938 -0.0908 -0.1134
74401W        W11895  31.487   2.342  21.768  0.0978 -0.0698  0.1986
74402W        W11896  30.359  20.372  15.182  0.2064 -0.1411  0.3286
74403W        W11897   5.577  25.041   3.211  0.1595  0.0424  0.2086
74404W        W11898   5.698   6.445   0.230  0.0932  0.1840 -0.1514
74405W        W11899  29.248   4.084  25.504 -0.1009 -0.2436 -0.1178
74406W        W11900  15.035  24.621  26.212 -0.1079 -0.2198  0.1050
74407W        W11901  29.516  22.265  24.511 -0.0979  0.0652  0.2608
74408W        W11902  15.911  11.668   5.403  0.0681  0.2193  0.0505
74409W        W11903  33.443  34.005   0.505 -0.2242  0.0933 -0.2127
74410W        W11904  12.258   2.220  11.319 -0.5537 -0.2151  0.1269
74411W        W11905   2.202  33.156   6.516 -0.2272 -0.2465  0.1010
74412W        W11906  28.538  14.850   5.460 -0.2694  0.2657  0.0525
74413W        W11907  22.418  22.982  15.913 -0.0084 -0.1433  0.2665
74414W        W11908  34.713  25.195  25.569 -0.2411  0.0013  0.0133
74415W        W11909  10.804   4.342  20.304  0.3156  0.1916  0.0340
74416W        W11910   8.911   8.020  20.135 -0.0191 -0.1485 -0.0177
74417W        W11911   1.866  22.757  12.707 -0.1170 -0.0537 -0.1210
74418W        W11912  28.431  25.838  24.083 -0.0915  0.1781  0.3908
74419W        W11913  20.547   9.269   1.204 -0.1163 -0.0896  0.1858
74420W        W11914  14.286   2.278  25.235 -0.4336  0.1568 -0.3530
74421W        W11915  35.052  23.418  22.036  0.2241 -0.0025 -0.0799
74422W        W11916  34.211  31.513  23.120  0.0621  0.2884  0.0439
74423W        W11917  20.922  19.723  25.461 -0.1023 -0.1024 -0.1167
74424W        W11918  21.078   2.803   3.296 -0.0367  0.1134 -0.1502
74425W        W11919  19.149   0.819  23.605  0.0539  0.4831  0.0159
74426W        W11920  16.685  29.991   7.460 -0.1137 -0.3533  0.0419
74427W        W11921   7.550  22.547   6.383 -0.2050 -0.1708 -0.3311
74428W        W11922  12.606  33.950   2.320  0.1904 -0.0681  0.1801
74429W        W11923  11.213  28.061  12.810 -0.3017 -0.3704 -0.2037
74430W        W11924   8.423  16.223  20.781  0.0496 -0.2226  0.0788
74431W        W11925  10.879  10.416  10.305  0.0197  0.1158 -0.2652
74432W        W11926  11.908  22.407  14.071 -0.4241 -0.0809 -0.1553
74433W        W11927  18.787  16.446   0.405 -0.0145 -0.1893 -0.2068
74434W        W11928   3.079   8.412  20.469  0.2386 -0.1096  0.1643
74435W        W11929  11.217  31.353   4.145 -0.0282  0.3953  0.0101
74436W        W11930  17.617  23.495   7.350 -0.2443 -0.1316 -0.0294
74437W        W11931  24.448   9.112  22.373 -0.3379 -0.1304 -0.0109
74438W        W11932  15.968  28.925   0.347 -0.0523 -0.0657  0.2382
74439W        W11933   0.829  33.185  16.489  0.4086 -0.0530  0.1173
74440W        W11934   0.269  24.316  22.411 -0.1221  0.1041  0.0820
74441W        W11935  34.718  24.465  11.968 -0.3172  0.0522  0.0233
74442W        W11936  14.872   7.096  20.902  0.0947  0.0114 -0.2399
74443W        W11937  35.259  31.323   8.246 -0.0457  0.1720 -0.1083
74444W        W11938  30.590  11.648   9.534 -0.1237  0.0965 -0.1185
74445W        W11939  11.782   9.349   5.524  0.0863  0.1670 -0.0540
74446W        W11940  23.986   0.722   1.561 -0.1871 -0.2197  0.1368
74447W        W11941   3.541  25.600  25.817  0.4062  0.1048 -0.0720
74448W        W11942   0.694  12.362  18.679  0.1474  0.1083  0.0098
74449W        W11943  26.037  12.179   9.359 -0.1961 -0.1167  0.0992
74450W        W11944  19.032   0.208  22.021  0.1217  0.0992  0.0513
74451W        W11945   5.500  28.604   1.080  0.0935  0.2807 -0.1520
74452W        W11946   4.456  18.219  18.339 -0.4625 -0.2181  0.2268
74453W        W11947   4.814  21.417  17.668  0.0044 -0.2206  0.0844
74454W        W11948  19.124  27.808  25.693 -0.3554  0.0269 -0.0883
74455W        W11949  17.280  34.578  24.315  0.1753 -0.1185 -0.1132
74456W        W11950  23.367  16.752  16.910  0.0577  0.0391  0.0201
74457W        W11951  24.367  30.012  23.937 -0.0237 -0.1815 -0.3192
74458W        W11952   7.054  27.318  12.029 -0.5732  0.2367  0.1019
74459W        W11953  16.245   5.021   3.525 -0.2361 -0.2436  0.0814
74460W        W11954   7.324   4.185   4.890  0.3283  0.0640  0.2126
74461W        W11955  20.030  14.113   2.567  0.1642  0.0870  0.3483
74462W        W11956  15.502  11.161  13.554  0.1976 -0.1639  0.1940
74463W        W11957  29.314  23.859  18.201  0.4170 -0.1409  0.0965
74464W        W11958  24.020  13.434  13.963  0.1813 -0.3340  0.1437
74465W        W11959  20.716  10.130  21.120 -0.0369 -0.1682 -0.0988
74466W        W11960   6.230   3.200   1.028  0.2019 -0.2291  0.0612
74467W        W11961  12.729  17.539  20.620  0.0633  0.3155 -0.0648
74468W        W11962   5.649  23.084  21.241 -0.1708 -0.0392 -0.2292
74469W        W11963  25.978  27.496  11.130  0.0961 -0.1210 -0.1719
74470W        W11964   7.015  16.372   9.003 -0.0452 -0.1641 -0.0142
74471W        W11965   9.771   0.410   1.941 -0.1967  0.1249  0.3297
74472W        W11966  30.554  12.984   7.945 -0.1841 -0.0786  0.2361
74473W        W11967  17.319   5.609   5.212  0.0393  0.1723 -0.1602
74474W        W11968  29.596  22.319  13.484 -0.1053 -0.1349 -0.2161
74475W        W11969  13.998  33.785  25.403 -0.0664  0.0181 -0.0916
74476W        W11970   9.461  10.086   9.937 -0.2905 -0.0812 -0.2431
74477W        W11971  19.352  11.097  26.223  0.1767 -0.0873 -0.1530
74478W        W11972  12.786  19.117  21.795 -0.3558 -0.1728 -0.1482
74479W        W11973   1.129  21.195  21.266 -0.0954  0.2621  0.0803
74480W        W11974   2.337  24.063  26.241 -0.1278  0.3586 -0.3306
74481W        W11975  30.150  13.890   8.226 -0.0751 -0.2038  0.0064
74482W        W11976  11.432  22.248   7.884 -0.0929 -0.1185  0.0130
74483W        W11977  30.061  27.945   1.728  0.0684  0.5259  0.1465
74484W        W11978  30.037  25.602  25.569 -0.0775  0.0891 -0.2982
74485W        W11979  22.395  27.672  16.502 -0.2370  0.1465  0.2090
74486W        W11980  13.122   5.007   8.643 -0.0829 -0.1893 -0.0046
74487W        W11981  15.523  19.473  14.102  0.1948 -0.2106 -0.1082
74488W        W11982  11.647  16.073  12.896 -0.0936 -0.2656  0.1843
74489W        W11983  30.854  25.722  13.263 -0.0606  0.0135  0.0469
74490W        W11984   8.557   4.593  11.126 -0.1254 -0.0072  0.0150
74491W        W11985   1.779  25.711   2.685 -0.1104 -0.0270  0.1640
74492W        W11986  19.582  32.273  15.241 -0.1411  0.3228  0.1450
74493W        W11987  30.444   6.684   9.718 -0.1254  0.0174  0.0463
74494W        W11988  24.961  25.267   3.373 -0.1430  0.0829  0.0051
74495W        W11989  10.669  24.454   7.887  0.1542  0.0048  0.1848
74496W        W11990  30.287  33.546   2.431 -0.0872 -0.1294 -0.4591
74497W        W11991  29.944  27.077  10.359  0.0544  0.1945  0.1621
74498W        W11992  18.730   0.731   9.287  0.0360 -0.0062  0.0386
74499W        W11993   4.445  32.353  21.383 -0.3483  0.0886  0.2975
74500W        W11994   1.105  13.231  22.020 -0.0027  0.5270  0.0899
74501W        W11995  28.051   3.752  21.580 -0.2094 -0.2893 -0.2043
74502W        W11996  32.543  30.593  21.620  0.1255 -0.4574 -0.1065
74503W        W11997  25.722  21.735  25.178  0.2175 -0.0624 -0.0838
74504W        W11998  30.156  30.006  13.859  0.0027  0.0153  0.0004
74505W        W11999   8.637   1.917   2.257  0.0214  0.0218 -0.1326
74506W        W12000  33.973   6.800   0.821  0.1258  0.3262 -0.0454
74507W        W12001  11.607  18.242  14.232  0.0138 -0.6854  0.0884
74508W        W12002  14.718   0.169  18.361  0.1821  0.2171  0.1329
74509W        W12003  30.607  34.196  25.669 -0.0575 -0.2383  0.4951
74510W        W12004  24.634  13.325  25.760 -0.2525 -0.0596  0.2360
74511W        W12005  15.285  12.108   6.908  0.0510 -0.0323 -0.1296
74512W        W12006  15.470  18.377  13.309  0.0475  0.2670 -0.2786
74513W        W12007  11.858  23.336  23.249 -0.1337 -0.0269 -0.0438
74514W        W12008  10.736  11.455  24.430  0.0155 -0.1409  0.1167
74515W        W12009  10.825  18.532  13.094  0.0849  0.3765 -0.2537
74516W        W12010  24.852  16.732  19.235  0.2111  0.4380  0.0285
74517W        W12011  29.962   9.596  19.216 -0.1355 -0.0840  0.2346
74518W        W12012  18.087   4.169   0.959 -0.0058  0.3092  0.0786
74519W        W12013   8.756   1.033  14.724  0.0034 -0.1062  0.0597
74520W        W12014  23.062   8.094  23.024  0.2969  0.1825 -0.0088
74521W        W12015  18.093  20.291   7.318 -0.1687 -0.2423 -0.3172
74522W        W12016  11.307  15.241  19.617 -0.2055 -0.2304  0.2256
74523W        W12017  23.736  32.390   0.288 -0.2684  0.0322  0.0496
74524W        W12018  16.752  24.678  10.607  0.0561  0.0890 -0.1625
74525W        W12019  33.230  33.233   4.538  0.1771 -0.0547  0.0299
74526W        W12020  20.908  23.718  23.396 -0.1353 -0.0408  0.0658
74527W        W12021  26.088  13.872  22.795  0.3287  0.0896 -0.1758
74528W        W12022   9.916  11.509  24.573 -0.0550  0.0230  0.1139
74529W        W12023   9.864  29.539  14.870 -0.0347  0.0243 -0.0182
74530W        W12024   6.338  31.441   4.945  0.1410  0.0802 -0.1776
74531W        W12025  15.441  20.800   7.038  0.0287  0.1458  0.1129
74532W        W12026  14.020  17.879   9.482  0.1387  0.0031 -0.0506
74533W        W12027  22.722  23.414  19.577 -0.0563 -0.1416 -0.0097
74534W        W12028   2.137   1.046  24.301  0.1504  0.1505 -0.1261
74535W        W12029   5.623   5.909  25.453 -0.0731 -0.2070  0.2122
74536W        W12030  15.659   3.672  24.079 -0.1489 -0.1115 -0.2108
74537W        W12031  10.058  26.076   3.970 -0.1534 -0.3120  0.0923
74538W        W12032  18.420  25.613  21.146  0.1229  0.1575 -0.1515
74539W        W12033   7.891   7.348   3.340 -0.0030  0.0290 -0.0737
74540W        W12034  33.693  30.802  25.020 -0.3481 -0.0027  0.2642
74541W        W12035  26.658  19.913  11.566  0.0060  0.1825 -0.0446
74542W        W12036  34.842  22.551  25.437  0.1622 -0.0689  0.1426
74543W        W12037  33.829   8.705  20.137 -0.2816  0.2373  0.0559
74544W        W12038  27.558  22.820  23.780 -0.1670 -0.0320 -0.1367
74545W        W12039  12.306  13.075   3.241 -0.1654 -0.0946 -0.4718
74546W        W12040  34.995   0.972   1.637 -0.4248 -0.3982  0.0061
74547W        W12041  29.469   0.692  12.371  0.0240 -0.1025  0.0096
74548W        W12042  33.378  10.651  16.330 -0.1493  0.0567 -0.1201
74549W        W12043  33.627  13.212  21.023 -0.0462  0.3152  0.2062
74550W        W12044   7.152   5.565  21.641  0.2173  0.2142  0.0108
74551W        W12045  26.159  21.728  13.006  0.0480 -0.1271 -0.0451
74552W        W12046  19.535  32.750   3.835  0.1774  0.0681  0.0926
74553W        W12047  27.190   1.936  24.779 -0.0273  0.1101  0.1356
74554W        W12048  34.393  21.810   0.599 -0.4090 -0.0052  0.3305
74555W        W12049   3.629   4.658  15.969 -0.2704 -0.1325 -0.3416
74556W        W12050  10.628  19.210   2.738  0.0652  0.2829 -0.0606
74557W        W12051  19.722  32.528  22.133 -0.0417 -0.2529 -0.0959
74558W        W12052  24.032  19.698  25.312 -0.2225  0.1751  0.0484
74559W        W12053  20.243  20.665  24.596  0.0684  0.1274 -0.1066
74560W        W12054  29.832  34.633   3.350  0.2417 -0.0185 -0.2589
74561W        W12055  32.866  13.949  23.461  0.2980  0.1540 -0.0010
74562W        W12056  15.032  31.615   4.431 -0.1025 -0.0661  0.3337
74563W        W12057   1.878   4.155  23.138 -0.1457 -0.0515 -0.2038
74564W        W12058  12.994  30.898   8.142 -0.1492 -0.0049 -0.1484
74565W        W12059  17.392   5.367   4.793 -0.0362  0.0843 -0.3569
74566W        W12060   7.811  32.949  22.526 -0.2959  0.2474 -0.1075
74567W        W12061   1.148  11.019   1.198 -0.1839  0.0680 -0.1838
74568W        W12062  15.021  19.796  20.854 -0.2489  0.1410  0.1589
74569W        W12063  27.460  26.303   8.572  0.3021  0.3471  0.0022
74570W        W12064  13.997   7.184  12.796  0.1517  0.0820  0.0363
74571W        W12065  15.325  33.023  22.694  0.2963 -0.1754  0.4206
74572W        W12066   6.670  27.453   9.169  0.0401  0.0038 -0.0782
74573W        W12067  22.476   0.854  24.334 -0.0692  0.0000 -0.2702
74574W        W12068  33.946  33.325  16.832  0.0466  0.1069 -0.0104
74575W        W12069  17.839   9.912   6.500 -0.1375  0.0032  0.2625
74576W        W12070  23.520   2.416  13.370  0.0765 -0.2492  0.1142
74577W        W12071   9.823  10.637   3.516  0.1688 -0.0478 -0.1635
74578W        W12072   2.375  20.594  17.269 -0.0009 -0.0154  0.2762
74579W        W12073  25.601  19.640  21.690 -0.1828  0.1698  0.2290
74580W        W12074   9.395   1.241  20.102 -0.2245 -0.0324  0.0188
74581W        W12075   4.041  11.000  25.194 -0.4421  0.1029 -0.0975
74582W        W12076  13.755  25.499   6.904  0.2878  0.1912  0.0738
74583W        W12077  13.926  18.325  24.758  0.1644 -0.1132  0.0150
74584W        W12078  10.579   6.564  10.307 -0.2552  0.1463 -0.0093
74585W        W12079  16.220  15.749  11.201 -0.0460 -0.4360 -0.0354
74586W        W12080  15.627  16.841  20.672  0.0193  0.3079 -0.0423
74587W        W12081   2.085   2.128   8.688  0.0431  0.1784  0.0142
74588W        W12082  12.944  29.455   3.497  0.0341 -0.1407 -0.2331
74589W        W12083  15.100  22.730  23.991 -0.1588 -0.0122  0.2148
74590W        W12084  33.447  13.566  21.859  0.1021  0.0457 -0.2378
74591W        W12085  33.298  29.404  23.829 -0.0708 -0.0231  0.1518
74592W        W12086  32.430  24.694  14.898 -0.0638  0.1071 -0.3675
74593W        W12087   7.909  34.049   3.719  0.1183  0.1375 -0.0584
74594W        W12088  10.636   7.787  14.427  0.1469 -0.0021 -0.2607
74595W        W12089  24.601  14.886  23.794  0.0795 -0.3778  0.0975
74596W        W12090  23.513  12.993  21.612  0.3564  0.5738  0.3331
74597W        W12091  33.969  32.165   0.431 -0.3657  0.0018  0.0700
74598W        W12092  12.982   1.228  19.280 -0.0291  0.2668  0.0902
74599W        W12093  29.567  17.795  19.145 -0.1488  0.1419 -0.4210
74600W        W12094  25.431  18.436  20.455  0.2029  0.1209 -0.1780
74601W        W12095  29.618  23.838   8.712  0.2045 -0.1692  0.1897
74602W        W12096  20.502  24.655   2.461  0.0636  0.0522 -0.1257
74603W        W12097  19.254  15.471   3.112  0.3608 -0.1129  0.1802
74604W        W12098  14.516   8.141  11.478 -0.1205 -0.3137 -0.0957
74605W        W12099  26.079  13.389  17.229 -0.0940 -0.1042 -0.0744
74606W        W12100  35.125  29.824  21.540  0.2461 -0.1659  0.1227
74607W        W12101  19.078   6.322  21.468 -0.1355 -0.1077  0.2162
74608W        W12102  13.876   6.084   4.181  0.2871  0.4339 -0.0130
74609W        W12103  28.779  29.107   9.352 -0.2058  0.0504  0.0251
74610W        W12104  27.138  26.272  10.118  0.1745  0.0752 -0.0908
74611W        W12105  17.035  17.092  22.740  0.0572  0.3288 -0.2229
74612W        W12106   8.921   9.599  25.605 -0.0358 -0.0352 -0.0001
74613W        W12107   1.474  25.263  15.775  0.0392 -0.2177  0.1331
74614W        W12108  34.384   6.951   4.670  0.1747 -0.2604 -0.0891
74615W        W12109  15.009   8.306  10.045  0.3833 -0.1031 -0.2802
74616W        W12110  13.646  22.117   1.356  0.2871  0.0205 -0.0586
74617W        W12111  14.824   2.718   6.836 -0.0988 -0.3704  0.0557
74618W        W12112  34.660  18.099  22.039 -0.3224  0.1073  0.1155
74619W        W12113  31.922  33.673  25.600  0.2673 -0.1927 -0.3675
74620W        W12114  23.351   8.020   2.894 -0.0538  0.1431  0.1885
74621W        W12115  18.001  33.483   3.173 -0.2262 -0.2897 -0.0072
74622W        W12116  11.930   3.931  20.448  0.2217 -0.2137 -0.3007
74623W        W12117  29.550  12.639   9.640  0.0648  0.0419  0.1162
74624W        W12118  23.378  19.757   0.760 -0.0886  0.0734  0.3121
74625W        W12119  33.807  15.898  12.901  0.2274 -0.0291  0.4036
74626W        W12120  11.107  34.696  24.043  0.1000  0.2688 -0.3805
74627W        W12121  18.769  31.439   5.652  0.2739 -0.1210  0.0305
74628W        W12122   0.788   7.760   0.418  0.0845 -0.1717  0.0381
74629W        W12123   0.738   5.593  16.033 -0.0739  0.1963 -0.0883
74630W        W12124   2.743   8.024   4.075 -0.0257  0.0304 -0.0404
74631W        W12125  16.225  18.246  25.320 -0.0744 -0.1869  0.1026
74632W        W12126  20.227  11.355   3.853 -0.0387 -0.2732 -0.2174
74633W        W12127  10.398  12.915  11.088 -0.1135  0.3696 -0.1395
74634W        W12128  12.319   4.491   5.117 -0.2567 -0.0514  0.3663
74635W        W12129   3.977  13.528  19.203  0.0193 -0.2508  0.0178
74636W        W12130  32.681  19.940   6.410 -0.3312 -0.0166 -0.5173
74637W        W12131   1.308   5.893  24.143 -0.0269 -0.0290 -0.0452
74638W        W12132  31.391  14.130   0.060  0.0927 -0.3085 -0.1001
74639W        W12133  11.195   3.137  22.925 -0.3460 -0.3466  0.2104
74640W        W12134   7.305  27.147  24.830 -0.1837 -0.0555 -0.0497
74641W        W12135  33.304   6.688  18.262  0.0514  0.1491 -0.0170
74642W        W12136   5.948  25.973  11.265 -0.3247 -0.0900 -0.0340
74643W        W12137  16.581  14.980   8.936  0.1501 -0.1460 -0.2181
74644W        W12138   3.140  20.349  22.783 -0.0644 -0.1106 -0.2142
74645W        W12139  21.863  29.505  25.145  0.5473 -0.1081 -0.0553
74646W        W12140  35.320  12.640  23.403  0.2066  0.0821 -0.0819
74647W        W12141  10.335   7.896   8.393 -0.1993  0.1805  0.0849
74648W        W12142  23.729  34.662  12.734  0.1052  0.2964  0.0461
74649W        W12143  17.219   0.024  16.977  0.1336  0.1091  0.0310
74650W        W12144  23.255  19.430  26.157  0.2098  0.2293  0.0343
74651W        W12145   8.470  12.069   1.120 -0.1529 -0.0415  0.2400
74652W        W12146   1.292  17.009  10.718 -0.3891 -0.4415  0.0833
74653W        W12147   3.971  11.673  20.450 -0.0273  0.3480 -0.1103
74654W        W12148  20.163   2.385  17.831  0.2301 -0.1394 -0.0358
74655W        W12149  16.446  19.378  10.243  0.0097  0.2585  0.0362
74656W        W12150   7.231  33.855  21.885  0.0311  0.2467  0.0303
74657W        W12151  34.964   4.014  15.106 -0.0176  0.1761  0.1874
74658W        W12152  32.450  24.541  24.889 -0.1445  0.0447 -0.3122
74659W        W12153   7.764  13.369   1.444 -0.0780  0.0634 -0.1348
74660W        W12154  15.129  23.045   7.694 -0.2706 -0.3379 -0.0162
74661W        W12155   5.339  16.612  22.028  0.1222 -0.2142  0.1356
74662W        W12156  32.486   9.909  24.920 -0.1335 -0.2800  0.1054
74663W        W12157  15.990  12.614   1.971 -0.0813 -0.0725 -0.1924
74664W        W12158  18.376  25.989  22.978 -0.0495 -0.2361 -0.0494
74665W        W12159   9.036   6.822  25.317 -0.4301 -0.0296  0.1509
74666W        W12160  20.769   1.742   3.608  0.0836  0.1800 -0.1665
74667W        W12161  32.459  25.522  12.188  0.6442 -0.0156 -0.1492
74668W        W12162  21.458  24.943  17.605  0.0023  0.0703 -0.1238
74669W        W12163   9.661  31.343   8.749  0.3112 -0.1255  0.0049
74670W        W12164  17.187   4.312   5.167  0.3430 -0.3093  0.0932
74671W        W12165  17.544  28.030   5.376 -0.3083 -0.0644  0.0851
74672W        W12166  22.003   1.444  21.788 -0.0331 -0.0713  0.1902
74673W        W12167  22.126  16.825  24.315  0.1763 -0.2793  0.0711
74674W        W12168  34.905  24.355  25.973  0.1574  0.4003 -0.0687
74675W        W12169   7.987  22.014   7.254  0.3232  0.0052  0.2284
74676W        W12170   0.043   2.940   4.713 -0.0078  0.0098 -0.0956
74677W        W12171   9.801  25.127   4.573  0.0433  0.0496  0.1111
74678W        W12172  10.856  22.256   1.946 -0.1639 -0.1041  0.0286
74679W        W12173   2.686  23.420  23.500  0.1666 -0.0436  0.0664
74680W        W12174  28.119  12.966  18.031  0.2681 -0.1291 -0.1367
74681W        W12175  20.663  29.001  22.637 -0.0895  0.0948 -0.1342
74682W        W12176  31.458   0.845   5.487  0.0792  0.1053 -0.1387
74683W        W12177   7.788   4.062   1.318 -0.1320  0.0376 -0.0353
74684W        W12178   8.149  14.982  21.758 -0.0508 -0.3684  0.0174
74685W        W12179   8.330  17.193  18.435  0.2935  0.0589  0.0560
74686W        W12180  29.863  29.876  21.392 -0.0035 -0.1757 -0.2087
74687W        W12181  28.583  11.403  12.121 -0.1354 -0.0721  0.3468
74688W        W12182  18.057  32.041   8.746  0.0604  0.0030 -0.0510
74689W        W12183  35.251  20.466  16.082  0.0591 -0.1535  0.3123
74690W        W12184  25.800   4.235   4.853  0.0621 -0.3188 -0.1439
74691W        W12185  18.107   5.354   7.661 -0.0681 -0.0741  0.0302
74692W        W12186  18.221  23.092  25.653  0.1292 -0.0252  0.2430
74693W        W12187  16.051   2.667   5.604  0.1393  0.2906  0.1121
74694W        W12188  34.299  29.686  20.942  0.2145  0.1030 -0.0793
74695W        W12189  31.727  20.900  15.563  0.0792 -0.1466  0.2019
74696W        W12190   0.218  26.555  17.059  0.0206 -0.1238  0.1015
74697W        W12191  20.551  23.852  22.646 -0.0958  0.3261  0.2795
74698W        W12192  32.788   0.115   2.220 -0.3828  0.1017  0.1795
74699W        W12193  14.881   1.846  23.286 -0.0117  0.1514 -0.0591
74700W        W12194   0.599  29.435   7.999 -0.1639 -0.0357 -0.0301
74701W        W12195  27.646  30.031  14.706 -0.2288  0.0730  0.0210
74702W        W12196  34.020  23.656   0.886  0.0479  0.0511  0.1246
74703W        W12197  25.608   2.147  12.253 -0.0313  0.0998 -0.0759
74704W        W12198  12.658  15.325  19.546 -0.0134  0.0021  0.1364
74705W        W12199  24.026  19.905  16.178  0.0600 -0.2960 -0.1021
74706W        W12200  24.816   4.950   5.545 -0.0992  0.0487  0.3950
74707W        W12201  26.183  18.021  11.831  0.3448 -0.1176 -0.0110
74708W        W12202  31.174  20.614  18.508  0.2151  0.1409 -0.2043
74709W        W12203  20.616  12.201  24.499 -0.0092 -0.2638 -0.1316
74710W        W12204  29.004   9.240  24.600  0.0761  0.1990  0.0614
74711W        W12205  29.045   3.617   0.411 -0.1592  0.3197 -0.0138
74712W        W12206  18.905   3.419  21.719 -0.0763  0.0976 -0.1147
74713W        W12207   4.771  22.356   4.855 -0.0525  0.1713 -0.1290
74714W        W12208  31.224  10.571  11.568  0.2272  0.0250  0.1327
74715W        W12209   1.754   2.089   4.572 -0.0259  0.2707  0.0972
74716W        W12210  26.277  32.130  18.196 -0.0202  0.0351  0.1855
74717W        W12211   4.031  20.102  22.978 -0.0258 -0.2515 -0.1290
74718W        W12212  31.108   2.879   4.316 -0.2134 -0.1260 -0.1078
74719W        W12213   9.872  24.457  11.354 -0.1204  0.2549 -0.0560
74720W        W12214   7.874  10.181   6.642 -0.0383 -0.0554 -0.0479
74721W        W12215  29.472  21.855   7.411 -0.2051  0.1218  0.2721
74722W        W12216   5.648  32.820   6.588  0.0734 -0.3135  0.0035
74723W        W12217  17.237   3.753  11.086 -0.0110  0.0828 -0.1306
74724W        W12218  12.288  24.907   1.855 -0.0091 -0.3430  0.2291
74725W        W12219  33.758   4.598  16.818 -0.0995 -0.0936  0.2187
74726W        W12220   8.651  16.521  13.229  0.1016 -0.0065 -0.0810
74727W        W12221  16.131   2.834  23.593 -0.1153 -0.2474  0.3286
74728W        W12222   5.026  28.786  10.340  0.3696  0.3850  0.1441
74729W        W12223  30.463   1.513   3.425 -0.1080  0.1404 -0.2115
74730W        W12224  10.411  18.689  21.244 -0.2683 -0.1059  0.0720
74731W        W12225  26.251  22.964  21.028 -0.0246  0.3304  0.1705
74732W        W12226  14.036   8.580   0.823  0.2180 -0.1256  0.3135
74733W        W12227  18.163   2.173  24.284 -0.3634  0.0053  0.1180
74734W        W12228   5.950  29.927   7.116  0.0939  0.0226 -0.4389
74735W        W12229  13.414  30.682  20.471  0.0324 -0.2031  0.1083
74736W        W12230  12.196  19.436   9.980  0.1531 -0.1469 -0.2964
74737W        W12231  12.338   7.442  13.706 -0.0301 -0.1387 -0.0675
74738W        W12232  13.783  14.854   9.177  0.0466 -0.2582 -0.2362
74739W        W12233  32.602  25.046  24.865  0.2552 -0.0260  0.3157
74740W        W12234   6.926  11.928   7.257  0.1951 -0.2884  0.2362
74741W        W12235  11.914  24.053   3.641  0.0762 -0.2156  0.0475
74742W        W12236  23.735  22.507  25.339 -0.1077  0.4803  0.1734
74743W        W12237   9.622  27.763   2.616 -0.0373 -0.1349 -0.5070
74744W        W12238  34.546   7.104  20.443 -0.0518  0.1523  0.0119
74745W        W12239  19.457  34.714  20.513  0.1423  0.0596 -0.1129
74746W        W12240  11.948   4.535  23.014 -0.0775  0.2151 -0.0967
74747W        W12241  16.257   0.647  24.680  0.0717  0.0678 -0.0012
74748W        W12242   8.330  26.852   7.880  0.1043  0.1105  0.1858
74749W        W12243   6.841   5.087  23.345 -0.2519  0.3051 -0.0316
74750W        W12244  23.301  21.992  14.700  0.1323 -0.0381 -0.0914
74751W        W12245  26.041  11.832  22.608 -0.1292 -0.0720 -0.1415
74752W        W12246  18.486   3.090  10.106 -0.2141  0.2547  0.0154
74753W        W12247  30.055  21.458  13.001  0.1129  0.2490  0.2468
74754W        W12248   9.265  21.600   0.684 -0.1473 -0.0422 -0.4042
74755W        W12249  35.230   6.842   5.305 -0.1905 -0.4286 -0.0232
74756W        W12250  10.296   4.685  13.982 -0.1314 -0.4059 -0.1172
74757W        W12251  10.176  15.572  21.280 -0.0442  0.0857 -0.0546
74758W        W12252  19.198  29.251  18.955 -0.1988 -0.1691 -0.0787
74759W        W12253  14.528  32.838   7.671  0.0592 -0.1521 -0.1345
74760W        W12254  15.399   5.196   2.002  0.1037 -0.2764  0.0396
74761W        W12255   0.907  13.875   9.645  0.1103 -0.1027 -0.1571
74762W        W12256   7.668  21.674  10.976  0.0347  0.1584  0.5162
74763W        W12257  23.200   5.052  16.511 -0.1053 -0.0605  0.0658
74764W        W12258  10.787  17.871   9.452 -0.1190 -0.5220 -0.1560
74765W        W12259  14.804  12.847  21.403  0.0672  0.4178  0.1619
74766W        W12260  20.488  15.655   3.155  0.1059  0.0859  0.0453
74767W        W12261  26.813  22.334  25.603 -0.1759 -0.2865  0.0806
74768W        W12262  12.900  13.599  25.177 -0.1046 -0.0090 -0.1540
74769W        W12263  27.011  32.062  19.763  0.1042 -0.0767 -0.0533
74770W        W12264   4.589  12.363  22.078  0.2104 -0.1117 -0.1400
74771W        W12265  32.503   1.165   2.396 -0.1437  0.0568  0.0061
74772W        W12266   8.654  19.401  14.391 -0.0695  0.1777  0.0810
74773W        W12267  17.022  15.736  21.126  0.1259  0.1871  0.2322
74774W        W12268  12.698  18.579  10.131 -0.0057 -0.1199 -0.0124
74775W        W12269   4.636   0.914   2.784 -0.0029  0.0552 -0.1042
74776W        W12270   9.668   0.835   5.106 -0.1219 -0.1506  0.0013
74777W        W12271   6.613  18.449   3.187 -0.0304 -0.1291  0.1674
74778W        W12272  19.583  33.552  22.405 -0.2801 -0.1614 -0.1899
74779W        W12273  15.085  15.438   1.784  0.1716  0.0856  0.0552
74780W        W12274  15.081  24.314  14.345 -0.1646 -0.3532  0.2203
74781W        W12275   0.351   2.460   8.010  0.0903  0.1324 -0.1132
74782W        W12276  17.561  20.712   9.662 -0.1350 -0.3224  0.2025
74783W        W12277  22.200  18.384  21.700 -0.1623  0.1310  0.0746
74784W        W12278  20.491  25.188   0.689 -0.1593 -0.2713  0.0564
74785W        W12279  10.663  28.929  24.412  0.0127 -0.0648 -0.2685
74786W        W12280   1.906  18.887   0.362  0.2819  0.0409 -0.2285
74787W        W12281   4.246  17.423  16.873 -0.0554  0.1793  0.0581
74788W        W12282   5.148   0.056  11.462 -0.2045 -0.1296  0.0120
74789W        W12283  30.782  26.628  12.060 -0.1519  0.3665  0.1299
74790W        W12284  24.430  18.868  23.562 -0.2444 -0.2100  0.0801
74791W        W12285  28.824  34.723   0.886 -0.0596 -0.0196  0.1150
74792W        W12286  14.865  33.351  23.892 -0.3092 -0.1077 -0.3408
74793W        W12287  16.316  26.855   2.874 -0.2483 -0.0217  0.1575
74794W        W12288  30.912   4.878  20.701  0.2716  0.0094  0.2496
74795W        W12289  15.493   5.110  23.517 -0.2412 -0.1581 -0.2943
74796W        W12290  24.872   3.203  19.187 -0.2609  0.1292 -0.0215
74797W        W12291  21.543  14.692  20.221 -0.1490 -0.1037  0.1033
74798W        W12292  24.638  19.866   0.391  0.1668  0.3995 -0.1433
74799W        W12293  15.574  16.787  23.223 -0.0911 -0.0146 -0.0555
74800W        W12294  12.636  31.424   8.528  0.0160  0.0312 -0.0492
74801W        W12295  18.581   0.943   7.845 -0.1492  0.1382  0.0702
74802W        W12296   0.072  26.149  23.413  0.0523  0.1184 -0.2248
74803W        W12297  20.335  32.053  25.605  0.3979  0.2616 -0.2703
74804W        W12298  30.734  28.144  21.758 -0.1383 -0.3180 -0.3605
74805W        W12299  11.807   8.303   0.571  0.0148 -0.2609  0.1459
74806W        W12300  17.691  13.006  19.897  0.0133 -0.2263  0.0669
74807W        W12301  28.464  25.987  25.020 -0.0968  0.1033  0.0259
74808W        W12302  14.943  10.357  22.098  0.1954 -0.0074 -0.2375
74809W        W12303   6.091  22.454  23.970 -0.1077 -0.0113 -0.2990
74810W        W12304  29.239  28.416  14.788  0.0237  0.0254 -0.0448
74811W        W12305  30.572  15.906   8.964  0.1466 -0.0808 -0.0391
74812W        W12306   5.721  27.203   0.349 -0.1810 -0.0594  0.0545
74813W        W12307   2.466  18.178  18.920  0.0030  0.0821  0.0279
74814W        W12308  20.790  30.164  24.611 -0.0481 -0.0238  0.0489
74815W        W12309  26.464  14.813  16.730  0.0155 -0.0028  0.0925
74816W        W12310  31.925  35.132   5.236 -0.3366  0.0309 -0.1677
74817W        W12311  18.559  22.504  21.773  0.1233 -0.0924 -0.0672
74818W        W12312  29.118  23.220   7.124  0.1678  0.0240  0.0858
74819W        W12313   6.411  19.016  25.723 -0.0390 -0.1656 -0.1246
74820W        W12314  21.182  16.657   1.627  0.1850  0.0413  0.2355
74821W        W12315  17.447   4.101  17.692  0.7234 -0.0853 -0.1312
74822W        W12316   2.180  25.493  18.960 -0.2199 -0.0149  0.2969
74823W        W12317  19.894  21.097  25.347 -0.2175 -0.2518  0.1437
74824W        W12318   4.481  11.008   0.199 -0.3362 -0.4372 -0.0929
74825W        W12319   1.416  24.556  18.640 -0.1583 -0.2476  0.2966
74826W        W12320  23.696  34.435  25.335 -0.0239 -0.0723 -0.2413
74827W        W12321  10.785  25.438   8.510 -0.3727 -0.0961  0.3006
74828W        W12322  23.093   3.469  24.316  0.3611  0.0514 -0.1338
74829W        W12323  10.740   9.748   1.779 -0.0246  0.1477 -0.1352
74830W        W12324  19.766  30.934  20.729  0.1393  0.0252  0.2966
74831W        W12325  18.238   4.066  19.362  0.1948  0.0398  0.3307
74832W        W12326  24.976  20.468  23.514  0.0743  0.1622  0.1170
74833W        W12327   7.560  16.811  18.216  0.3259 -0.2007  0.1568
74834W        W12328  11.300  27.902  11.752 -0.0895  0.2822  0.0277
74835W        W12329   7.694   7.362  21.355 -0.2783 -0.0685  0.0846
74836W        W12330  19.866   3.261   5.125  0.2203 -0.0291  0.0822
74837W        W12331   9.994   3.920   1.225  0.0717  0.0365  0.2437
74838W        W12332  19.812  29.560   1.527  0.1885 -0.0330 -0.3495
74839W        W12333  21.169  34.848  25.830 -0.2343  0.4567 -0.1531
74840W        W12334  30.843  24.467  20.355  0.0646 -0.0598  0.0572
74841W        W12335  25.936  17.403   8.955  0.1264  0.2874  0.0425
74842W        W12336  15.485   2.010   2.924 -0.0839 -0.2263  0.2332
74843W        W12337   3.375  16.706  19.985 -0.0320  0.2447  0.1389
74844W        W12338  24.244  28.717  15.541  0.3675 -0.0789  0.3263
74845W        W12339  12.855  17.326   5.616  0.2821  0.0918  0.1422
74846W        W12340  29.020  14.436  11.244  0.0003 -0.3174  0.2170
74847W        W12341  11.054  32.318   5.400  0.4083 -0.0622  0.2637
74848W        W12342  15.916   5.953  22.550 -0.0988  0.2297  0.1274
74849W        W12343  27.813  16.870  20.375  0.0578  0.1189  0.0321
74850W        W12344   9.357  26.929   9.636  0.3078 -0.1752 -0.1274
74851W        W12345   1.214   0.658  16.454 -0.0196 -0.0111 -0.0228
74852W        W12346  16.810  31.444  10.393 -0.1367 -0.1340  0.0897
74853W        W12347   9.960  34.832   3.020  0.0132 -0.0526  0.0776
74854W        W12348   2.780  22.482  18.928  0.1280  0.1535  0.1061
74855W        W12349  26.362  19.833  11.973  0.0757 -0.3044 -0.1882
74856W        W12350  25.075  33.719  12.371  0.3046 -0.2271  0.1603
74857W        W12351  32.611  13.981  13.949 -0.0116 -0.0889  0.2992
74858W        W12352  24.840   4.525   0.453 -0.1295  0.2487 -0.1017
74859W        W12353   8.874   7.510  19.895 -0.1953 -0.4239 -0.4565
74860W        W12354  32.272  34.857   5.538 -0.0567 -0.4147 -0.1316
74861W        W12355  22.048  15.820  22.580 -0.0433  0.3318  0.2372
74862W        W12356   5.695   6.420  23.788  0.0735  0.0201  0.1307
74863W        W12357   9.513  34.044   1.336  0.2619 -0.1745 -0.0731
74864W        W12358  12.938  27.629   9.128  0.1542  0.2467 -0.5388
74865W        W12359  33.936  34.307  18.364 -0.1828  0.0945 -0.0235
74866W        W12360  12.113   0.447  12.151  0.2920 -0.0600 -0.2489
74867W        W12361  24.643  21.959  11.441  0.3103 -0.0573 -0.2319
74868W        W12362   5.765  27.589  21.170  0.0043 -0.2696 -0.3540
74869W        W12363  23.267  27.414  26.244 -0.2675  0.1902  0.0402
74870W        W12364  21.530  21.128   0.165 -0.0350 -0.0384 -0.1067
74871W        W12365  27.118  32.955  18.006 -0.2553 -0.0217  0.1174
74872W        W12366  30.629  11.652  16.113  0.1610  0.0567  0.2142
74873W        W12367  23.388   0.462  18.501  0.0290  0.1357  0.1599
74874W        W12368  26.215  27.358  14.815  0.0099  0.1151  0.0792
74875W        W12369  19.342  23.395  10.669 -0.2580 -0.2315 -0.3013
74876W        W12370  32.436  10.070  12.392  0.0591  0.1100  0.2414
74877W        W12371  30.492  26.837  11.384 -0.1495 -0.1926 -0.1011
74878W        W12372   1.250  28.868   0.195 -0.0747 -0.2252 -0.3762
74879W        W12373  23.994  19.192  23.983 -0.0680 -0.1645 -0.1229
74880W        W12374  22.096  18.474   1.831 -0.0057  0.1715  0.1036
74881W        W12375  14.855  32.415   0.567  0.0697 -0.0664  0.1843
74882W        W12376   7.510  27.931  26.220  0.0361 -0.0746 -0.0109
74883W        W12377   4.082  33.725   6.432  0.0199  0.0253 -0.0809
74884W        W12378  16.248  20.760  21.174  0.2023 -0.4034  0.0319
74885W        W12379  21.701  17.889  21.560 -0.0042 -0.1488  0.2424
74886W        W12380  24.168  13.570  17.858  0.0342  0.0962  0.1506
74887W        W12381   5.949  22.194   5.896  0.0252  0.0010 -0.2995
74888W        W12382  19.005  24.860  21.143 -0.2311 -0.3025 -0.2262
74889W        W12383  22.067   5.650   3.477  0.0229 -0.0550 -0.1255
74890W        W12384  13.486   3.517   7.582 -0.1116  0.1975 -0.3515
74891W        W12385  35.089  17.450  11.482 -0.1252  0.0968 -0.1771
74892W        W12386  13.549  14.379   7.203 -0.1527 -0.0310 -0.1281
74893W        W12387   5.255   5.404   6.294  0.1752 -0.1736  0.3265
74894W        W12388   0.434  33.469  18.081 -0.3346  0.1437 -0.4242
74895W        W12389   7.511  21.376   7.539  0.1254  0.0160  0.1714
74896W        W12390  30.872  12.224  12.115  0.2801  0.2756  0.3347
74897W        W12391  20.501  13.305   5.966  0.2010  0.1298  0.0427
74898W        W12392  24.653   9.984  19.683 -0.1172  0.1109  0.0405
74899W        W12393  22.493  14.326  21.823  0.2739  0.1352  0.1354
74900W        W12394  21.917  25.538  23.236 -0.0537  0.2511  0.4060
74901W        W12395  24.637  21.973  25.135  0.3329  0.0202 -0.1177
74902W        W12396   4.058  20.710  21.667 -0.2238 -0.0405  0.3561
74903W        W12397  23.748  28.092  22.205 -0.0676 -0.0325  0.1182
74904W        W12398  27.770  33.367   2.929  0.1839  0.5423  0.1230
74905W        W12399   7.967   7.578   5.089  0.2500  0.0687 -0.3147
74906W        W12400  28.209  16.501   7.540  0.4501  0.2383  0.2704
74907W        W12401  14.457  16.101  19.528 -0.0934  0.0363 -0.0108
74908W        W12402  10.188  27.810   9.070  0.0092 -0.0966  0.1362
74909W        W12403  11.699  15.861   3.542  0.0703 -0.0197  0.2889
74910W        W12404  31.014   3.252  13.448 -0.0601  0.1327  0.2388
74911W        W12405  20.044  13.283  26.175 -0.2798  0.0479 -0.0642
74912W        W12406  17.130  13.009  11.332 -0.2722  0.0640 -0.1286
74913W        W12407  31.039  35.196   3.732 -0.0455 -0.1014 -0.5118
74914W        W12408  17.795  11.147   9.669  0.2189 -0.2854 -0.1702
74915W        W12409  14.616  22.617  23.923 -0.0600  0.3068 -0.2018
74916W        W12410  32.854   7.756  25.833 -0.1065  0.0794  0.0025
74917W        W12411  18.065  25.969   5.000  0.1473  0.0020  0.2257
74918W        W12412   0.130  12.838   0.645 -0.1018 -0.1218 -0.0534
74919W        W12413   8.200   4.651   3.629  0.2829  0.1786  0.0760
74920W        W12414  10.010  25.786   8.966  0.2493  0.1629  0.2134
74921W        W12415   3.366  14.337  15.152 -0.3787  0.0502 -0.3587
74922W        W12416   3.100   7.842   5.971 -0.0780  0.3316 -0.1961
74923W        W12417   8.999  22.588  25.678  0.0823 -0.1866 -0.0606
74924W        W12418   6.158   1.389   6.933  0.2930  0.1198  0.1301
74925W        W12419  20.765   3.749  23.024 -0.0225 -0.2832 -0.0600
74926W        W12420   7.817   7.875  22.113  0.1263  0.0269 -0.0321
74927W        W12421  14.494  18.807  10.573 -0.2192 -0.0554 -0.1039
74928W        W12422  18.232  10.667   0.720  0.2764 -0.0351 -0.1477
74929W        W12423  34.365  17.109  20.941 -0.0938  0.1397 -0.0825
74930W        W12424  27.120  27.845  15.953  0.2873  0.0612  0.2109
74931W        W12425   2.436  25.839  23.872  0.4110  0.1866 -0.0440
74932W        W12426   4.460  20.679  24.228 -0.0980 -0.5063  0.1163
74933W        W12427  30.854  29.103  23.345 -0.2254  0.2192  0.0924
74934W        W12428  24.987   4.008  18.901  0.3405 -0.1279  0.1041
74935W        W12429  14.914   3.146   7.231 -0.0135  0.2331 -0.1076
74936W        W12430   3.976   6.095  21.924  0.1383 -0.0010  0.0677
74937W        W12431  18.226  13.124  10.355  0.0300  0.0056 -0.0119
74938W        W12432  11.257   6.040  24.958  0.1458  0.1800 -0.0324
74939W        W12433  10.294  18.300  10.104  0.0042 -0.0916 -0.0240
74940W        W12434   5.087  21.683   3.869 -0.3612 -0.3497 -0.2799
74941W        W12435  15.317  18.751   2.608 -0.1506  0.2840 -0.1173
74942W        W12436  20.739  14.664  17.445  0.1588  0.2449 -0.3135
74943W        W12437  15.215  15.381  12.316  0.1766  0.1845 -0.1448
74944W        W12438  29.607  22.580   9.221 -0.0586 -0.1051 -0.3194
74945W        W12439   6.469  10.343  22.690  0.0111  0.1493 -0.2866
74946W        W12440  33.896  16.466  21.389  0.1072 -0.0174  0.3038
74947W        W12441  28.567  15.485   4.696 -0.1191  0.2487  0.0962
74948W        W12442  23.775  28.738  13.767 -0.3571 -0.1633 -0.4278
74949W        W12443  33.745  13.905  10.561  0.4359 -0.3074 -0.1118
74950W        W12444   8.206   9.359  11.341  0.2675 -0.0662 -0.4038
74951W        W12445  31.765  18.145   6.133  0.1901  0.1202  0.2638
74952W        W12446  15.011   3.619  19.848 -0.1075  0.3601 -0.1489
74953W        W12447  32.263  15.441  12.048  0.2803  0.1483 -0.0266
74954W        W12448   6.558  14.934  17.053  0.3660 -0.2374 -0.2477
74955W        W12449  17.217   4.383  25.386  0.0042 -0.2351  0.0157
74956W        W12450  33.049  26.239  19.044  0.2847 -0.1489 -0.1374
74957W        W12451  24.467   0.788  12.740  0.0627 -0.1371  0.2503
74958W        W12452  17.044   7.120  12.510 -0.0220  0.3250 -0.0668
74959W        W12453   6.096   3.240  25.105 -0.2562 -0.0067  0.0843
74960W        W12454  11.914   3.130  19.615  0.1030 -0.0038  0.1139
74961W        W12455  10.124   8.547   8.904  0.0891 -0.0420  0.2690
74962W        W12456  14.014  30.159   6.976 -0.1422  0.3498 -0.0084
74963W        W12457  14.035  18.904  25.658 -0.1748 -0.3222  0.0724
74964W        W12458  28.291  20.993  22.244  0.3444 -0.1637 -0.0220
74965W        W12459  16.977  13.921  22.401 -0.0349 -0.2265 -0.4579
74966W        W12460  21.033  19.752   4.657 -0.1620  0.0645 -0.0565
74967W        W12461  28.089   5.263  17.066  0.1862 -0.3015  0.0030
74968W        W12462  28.386  29.886  25.676  0.0505  0.1062  0.4591
74969W        W12463   3.578  17.248  14.838  0.1208  0.2085  0.3293
74970W        W12464  24.563   0.968   4.987  0.1504  0.1496  0.0903
74971W        W12465  12.287   8.662  26.150  0.1232 -0.0363  0.0742
74972W        W12466   4.231  31.635  10.389  0.3661  0.2776 -0.1338
74973W        W12467  22.437  18.428   2.206  0.0886 -0.2886 -0.5871
74974W        W12468  18.982  15.039   2.057  0.3931 -0.0701 -0.0216
74975W        W12469  20.035  13.964   0.434 -0.0602 -0.0166 -0.1032
74976W        W12470  33.100   8.372  22.440  0.1081  0.0182 -0.0469
74977W        W12471  10.271  17.075  25.309 -0.0331  0.0265 -0.2356
74978W        W12472  34.126  23.679  21.947  0.0040  0.1826 -0.1494
74979W        W12473  29.184  19.030  21.294  0.0066  0.1049  0.0857
74980W        W12474  12.880  24.010  13.648  0.0284 -0.0817  0.1796
74981W        W12475  30.540  18.789   6.077  0.1330 -0.0801  0.1273
74982W        W12476  10.196  32.771  25.253  0.0527 -0.2571 -0.0704
74983W        W12477  17.064   1.521   6.306 -0.3525  0.1690  0.0242
74984W        W12478  19.062  18.611   8.776 -0.0925 -0.0063 -0.2265
74985W        W12479  29.912  14.206  24.516  0.0524  0.0755  0.2070
74986W        W12480  29.406   3.131  14.074  0.0813 -0.2674  0.0099
74987W        W12481  13.429  22.650   4.979  0.1643  0.1706  0.0029
74988W        W12482  24.899  26.647  13.083  0.2855  0.3340  0.1830
74989W        W12483  34.818  15.511  15.489  0.3268 -0.3461  0.2946
74990W        W12484  17.401  33.947   6.547  0.1617  0.1400 -0.0647
74991W        W12485   9.503   3.198   5.651  0.0547  0.1189  0.1071
74992W        W12486   8.713  22.350   3.232  0.2396 -0.2314 -0.0970
74993W        W12487  29.299  15.464  12.006 -0.1807 -0.0699  0.2482
74994W        W12488  19.977   3.521  19.876 -0.1235  0.2397 -0.2488
74995W        W12489  11.988   1.863   4.973 -0.0872  0.0588 -0.0267
74996W        W12490   2.169   3.907  19.287 -0.1421  0.0894 -0.1701
74997W        W12491  11.916   4.036  10.654  0.0418  0.1334  0.2287
74998W        W12492   5.271  19.937   6.139 -0.1416 -0.0098 -0.0189
74999W        W12493  14.304  28.156  15.254  0.2211 -0.0002 -0.1981
75000W        W12494  19.385  13.633  23.387 -0.1149 -0.3467 -0.4037
75001W        W12495  23.393   8.059  24.503  0.0601  0.1149  0.2117
75002W        W12496  13.484   3.170   1.228  0.3149  0.1341  0.0834
75003W        W12497   9.914  12.076  20.486  0.3208 -0.0277 -0.3754
75004W        W12498  27.552  10.695  12.509  0.0036  0.0419  0.0583
75005W        W12499  21.447  32.534  15.259  0.1998  0.4365 -0.3477
75006W        W12500  16.730   1.763  24.392 -0.3079  0.0451 -0.1993
75007W        W12501  31.658  19.532   6.064  0.1113  0.0428 -0.2272
75008W        W12502  28.716  19.750  17.912 -0.1731 -0.1228  0.2801
75009W        W12503  34.042  17.202  20.138  0.0612 -0.2871 -0.1498
75010W        W12504  31.131  30.455   1.449  0.1563 -0.0660  0.0907
75011W        W12505  15.856  13.194  24.856 -0.1155  0.1805  0.4592
75012W        W12506  14.116  26.646   6.084 -0.0411  0.2332 -0.0823
75013W        W12507  34.128  34.990  23.216  0.1851  0.0509 -0.1560
75014W        W12508  30.421  12.240  14.565 -0.2347  0.0736 -0.3131
75015W        W12509  13.601  17.346  11.038  0.1609  0.1396 -0.1635
75016W        W12510   1.368  31.401  23.663 -0.0730 -0.0860 -0.1699
75017W        W12511  32.405  30.842  12.654 -0.2493 -0.0860 -0.1765
75018W        W12512   7.313  29.369  21.907 -0.3309 -0.1389 -0.3062
75019W        W12513  29.295  28.847  18.556 -0.2711 -0.0485 -0.3451
75020W        W12514  14.357  26.789  25.070  0.0660  0.1955 -0.1655
75021W        W12515  30.535  15.257   9.609  0.0898  0.1383 -0.0991
75022W        W12516   8.342  32.971  12.337  0.0536 -0.1788  0.4246
75023W        W12517   6.214   7.053   9.392  0.1802 -0.1786 -0.2527
75024W        W12518  25.504  10.449  18.135 -0.2494  0.0152  0.0994
75025W        W12519  24.965  27.889   2.082  0.4711  0.0627  0.0032
75026W        W12520   4.354  14.026   0.265 -0.0334  0.1354  0.3064
75027W        W12521  32.366  14.952  20.007 -0.3274 -0.1263 -0.0514
75028W        W12522  10.159   5.451  10.343  0.1860  0.1707 -0.0654
75029W        W12523  12.352  10.717  13.558 -0.2435 -0.0065 -0.0447
75030W        W12524  29.172   5.375  16.152 -0.1942 -0.0427  0.0236
75031W        W12525  24.677  21.089  24.302 -0.0210 -0.1323 -0.1706
75032W        W12526  26.766  30.326  21.821 -0.0651  0.3277  0.0435
75033W        W12527  25.661  25.464   1.370 -0.2752 -0.0977 -0.2084
75034W        W12528  28.689   0.919  11.982  0.0581  0.1934 -0.1123
75035W        W12529   0.661  11.037  20.163  0.2734  0.3308  0.1944
75036W        W12530   6.946  32.802  20.547  0.3160 -0.1011 -0.0961
75037W        W12531  19.683  19.363   7.509  0.2838 -0.1469  0.1082
75038W        W12532   3.303  24.650   4.502 -0.3548  0.2630 -0.1373
75039W        W12533  23.734  24.512   1.891 -0.3035 -0.2589 -0.0816
75040W        W12534   7.177  15.211  20.892 -0.1586 -0.1537  0.0289
75041W        W12535   9.811  15.682  25.625 -0.3838  0.1554  0.4151
75042W        W12536  22.455   2.524   6.199  0.1877  0.2407  0.0122
75043W        W12537  22.761  12.844  25.284 -0.1226  0.0170  0.0916
75044W        W12538  21.470   3.081  19.548  0.2079  0.0786 -0.4764
75045W        W12539  12.375  26.296  22.981 -0.4584 -0.0165  0.0406
75046W        W12540  21.220   6.513   1.967  0.2341  0.0776  0.3811
75047W        W12541  28.691  11.956  24.662 -0.0084  0.1486 -0.1304
75048W        W12542   7.324  30.582   1.640  0.1767 -0.5170  0.0858
75049W        W12543  22.129   1.886  14.015 -0.0912  0.1818 -0.2044
75050W        W12544  17.412   5.849   8.853 -0.0897 -0.2332 -0.2346
75051W        W12545  30.457  13.060  10.821 -0.0321 -0.0171  0.1719
75052W        W12546  28.921   1.224  21.647  0.1287  0.4143 -0.1535
75053W        W12547   8.274  18.397   9.820  0.0041 -0.0824 -0.0083
75054W        W12548   0.741   9.164  18.596  0.2393  0.1571  0.0697
75055W        W12549   5.642  11.492  20.467  0.0598  0.1118  0.0417
75056W        W12550   6.161  13.304  17.382  0.4478 -0.2672 -0.0751
75057W        W12551   8.924  25.647   5.518  0.3481 -0.1026  0.0165
75058W        W12552   1.965   6.242  12.951  0.0214  0.0081 -0.1074
75059W        W12553  33.037  16.845  16.038 -0.0495  0.0274 -0.0135
75060W        W12554   0.528  11.123  24.573 -0.1720 -0.1014  0.0737
75061W        W12555  16.452  11.781  13.012 -0.1928 -0.1462 -0.0100
75062W        W12556  22.515  35.112  13.394 -0.2754 -0.0624  0.0359
75063W        W12557  19.950  24.695   2.285 -0.0819  0.1538 -0.1460
75064W        W12558   6.402   6.572  10.039  0.0747 -0.2046  0.0547
75065W        W12559   5.706  16.203  22.707  0.0861  0.0487 -0.1009
75066W        W12560  11.216  22.271   2.897 -0.0708 -0.3951 -0.1851
75067W        W12561  34.820  33.917  15.251 -0.3164 -0.1432 -0.3550
75068W        W12562  12.821   3.219  24.602  0.0957  0.1294  0.0423
75069W        W12563  11.178  16.815   0.261 -0.0259  0.0010 -0.0326
75070W        W12564  11.874  25.109   8.336  0.0959 -0.2744  0.3511
75071W        W12565  14.568  23.804   8.799 -0.0126 -0.3728  0.2070
75072W        W12566  34.217  27.749  25.075  0.1282  0.1391 -0.4360
75073W        W12567  21.474   3.711   5.874 -0.1388 -0.0517  0.1883
75074W        W12568  22.093  26.707   2.830 -0.0895 -0.0823  0.2410
75075W        W12569   9.305  19.820  12.895  0.1854  0.0920 -0.3594
75076W        W12570  19.960  27.786  21.137 -0.3122  0.0107  0.2036
75077W        W12571   7.337   5.802   3.671  0.2364  0.1840 -0.0056
75078W        W12572  13.296  15.216  12.868 -0.0373  0.0895 -0.3795
75079W        W12573   3.305  18.257  17.249 -0.1517  0.1601  0.1409
75080W        W12574  32.179  14.535  22.177 -0.2962 -0.0669 -0.4322
75081W        W12575  21.033  32.067  21.532  0.5608  0.0311 -0.4449
75082W        W12576   8.507  15.385   2.229 -0.0680  0.0487 -0.0373
75083W        W12577  19.008   1.600   0.815 -0.3280 -0.1027 -0.2382
75084W        W12578  15.493   6.100   1.700 -0.2497  0.0023  0.1159
75085W        W12579  26.684   4.545  18.544 -0.0836 -0.0356 -0.1536
75086W        W12580  23.618   6.295  24.609 -0.3275 -0.3299 -0.1212
75087W        W12581   9.423  23.751  17.142 -0.3902  0.1759 -0.1384
75088W        W12582   9.972   1.700   2.297  0.0744 -0.1668  0.1468
75089W        W12583  33.800  11.294  19.966  0.1486 -0.0867  0.1280
75090W        W12584  19.491  31.566  21.878 -0.1155  0.2200 -0.1824
75091W        W12585   2.747  18.377  16.155 -0.2526  0.0389  0.2268
75092W        W12586   6.976  28.221   1.113  0.2209 -0.0168  0.1864
75093W        W12587  34.927   3.283  17.737  0.0718 -0.0612  0.0259
75094W        W12588  34.093   2.529   1.709 -0.0998  0.2877 -0.0523
75095W        W12589  21.007   4.546   1.113 -0.0296 -0.1583  0.1871
75096W        W12590  26.175  17.106  16.376 -0.0587 -0.1773 -0.2751
75097W        W12591  13.147  23.885  11.385 -0.2772 -0.1615 -0.0073
75098W        W12592   9.978  23.255   1.620  0.2139 -0.2259  0.3694
75099W        W12593  18.219  26.109   6.518 -0.1080 -0.1281 -0.0101
75100W        W12594  27.700  28.249  22.123 -0.0243  0.0523  0.1659
75101W        W12595  26.386  18.034  22.792  0.1987 -0.1313 -0.0367
75102W        W12596  17.326  35.257   3.490 -0.3654 -0.1469  0.0215
75103W        W12597  34.731  11.403  18.421 -0.0587 -0.2939  0.0479
75104W        W12598  28.879   6.231  22.773 -0.1970  0.0350 -0.2281
75105W        W12599  26.138  21.502  10.919  0.1438  0.2044  0.1481
75106W        W12600  30.414  23.960  21.062  0.1802 -0.3870 -0.0172
75107W        W12601  11.544  30.373  15.051  0.0521 -0.2495 -0.0678
75108W        W12602  11.927  25.197   7.538  0.0371  0.1470  0.0433
75109W        W12603  32.924  11.614  20.402  0.1160 -0.1445 -0.2018
75110W        W12604   0.108   8.403  14.924  0.1688  0.1145 -0.2553
75111W        W12605  31.493  16.980   8.000  0.0184  0.2899  0.1723
75112W        W12606   6.130  23.781  24.274  0.1802 -0.0775  0.0334
75113W        W12607   8.463   0.084  22.684 -0.2034 -0.0649 -0.2656
75114W        W12608   9.153  27.215   6.643  0.0366 -0.2363 -0.1185
75115W        W12609  28.902  34.589  16.450 -0.1641  0.0022 -0.4031
75116W        W12610  28.270  27.687  20.617 -0.1680  0.3906 -0.0019
75117W        W12611  29.640  13.926  23.712  0.1940  0.1351 -0.1846
75118W        W12612  33.441  20.838  11.438  0.0927  0.0210  0.0410
75119W        W12613  16.135  12.886  19.550  0.0324 -0.2697  0.0906
75120W        W12614   6.418   3.899   2.672 -0.1917 -0.0413  0.0374
75121W        W12615  15.552  10.324  13.741 -0.3551 -0.1306 -0.0356
75122W        W12616  29.015  22.643  20.056  0.2485  0.1940  0.1009
75123W        W12617  21.635  29.615  13.059 -0.1006  0.1727 -0.0766
75124W        W12618   5.819  11.051  17.341  0.1223  0.0690  0.0060
75125W        W12619  20.698   3.604  24.532  0.0943 -0.0719  0.1607
75126W        W12620  32.018  17.864  14.459  0.0551 -0.0260 -0.1023
75127W        W12621  13.793  13.083  20.247  0.2231 -0.0578  0.1565
75128W        W12622   6.900  30.467   2.531  0.5313  0.2949  0.2140
75129W        W12623  16.332  18.660  11.865  0.3087 -0.1244 -0.0400
75130W        W12624  13.359  12.331  20.136 -0.1694  0.2533 -0.2210
75131W        W12625  22.343  25.818  23.305  0.0728  0.2819 -0.1965
75132W        W12626  10.195   6.880  23.998  0.0219 -0.1962  0.2706
75133W        W12627  13.031  27.937   7.767  0.1721  0.0900  0.1409
75134W        W12628  33.767   1.450  21.547 -0.3143  0.0047 -0.1001
75135W        W12629   5.158   4.666   5.956 -0.1625 -0.1300  0.2769
75136W        W12630  21.290  25.726   2.172 -0.0926  0.1054  0.1511
75137W        W12631   7.245   5.783   6.017 -0.2174 -0.2229 -0.0438
75138W        W12632   2.693   4.714   6.881 -0.3379 -0.2306 -0.0945
75139W        W12633   4.168   7.434   7.677  0.0547 -0.2023  0.0409
75140W        W12634   9.365  18.925   6.327 -0.2873 -0.1351 -0.1317
75141W        W12635   5.767  33.245   2.362  0.0200  0.0967  0.1382
75142W        W12636  34.850   1.457  17.321  0.2873  0.1543  0.0782
75143W        W12637   4.175  35.177   7.700 -0.4804 -0.1952  0.0721
75144W        W12638  15.229  24.631  25.499  0.1062  0.0230 -0.2952
75145W        W12639  11.526   3.415   1.890  0.1043  0.3191 -0.2946
75146W        W12640  14.881  24.764  12.567  0.1507  0.3203 -0.2058
75147W        W12641  31.541  19.530  17.370 -0.4941  0.0869  0.0680
75148W        W12642  35.339  27.365  17.082  0.0461 -0.0361 -0.0768
75149W        W12643  11.222   6.314  21.008  0.1991 -0.0408 -0.1572
75150W        W12644  12.857   9.867   0.898  0.2212  0.2490  0.0646
75151W        W12645  33.461   5.972  11.525 -0.0366 -0.0570  0.0430
75152W        W12646  11.916   4.238  10.116  0.1714 -0.2172  0.0863
75153W        W12647  34.116  14.216  25.447  0.0041  0.2148 -0.0225
75154W        W12648  23.099  32.991   0.026 -0.2348 -0.0544  0.0253
75155W        W12649  34.613  33.713  21.754  0.0485  0.0707 -0.2727
75156W        W12650   9.585  31.434  10.285 -0.0166  0.1976  0.2100
75157W        W12651  24.701   9.446  22.065  0.6146  0.2148 -0.0688
75158W        W12652   5.990  26.822  14.723  0.0598 -0.0825  0.3757
75159W        W12653  11.401  20.514  23.685 -0.0985  0.0215  0.4823
75160W        W12654  21.090   4.216  21.339  0.2551 -0.0234 -0.2916
75161W        W12655  11.212  18.607  23.330 -0.1136 -0.0208  0.2232
75162W        W12656  29.400  14.382  23.838  0.2809 -0.0985  0.1801
75163W        W12657  12.000  35.126  22.207  0.0156  0.1378  0.1233
75164W        W12658  33.650   6.921  22.493  0.3661  0.0030  0.1709
75165W        W12659  32.034  26.622  18.270 -0.4037  0.0785 -0.0486
75166W        W12660   7.224  20.507   7.963  0.0519 -0.4219  0.0787
75167W        W12661  14.400  29.401  15.132 -0.2815  0.1533 -0.2142
75168W        W12662   2.312   0.439   8.454  0.0340 -0.0474 -0.1349
75169W        W12663  22.181   2.013   1.402  0.0570 -0.3168  0.1718
75170W        W12664  31.023  31.160  18.031 -0.1416  0.2594  0.1029
75171W        W12665  15.129  15.767   7.319 -0.2228  0.2654  0.1645
75172W        W12666   0.892  12.548  24.753 -0.1191 -0.2672  0.3007
75173W        W12667  32.423  22.787  17.429 -0.0061  0.2633  0.0735
75174W        W12668   2.572   6.945  23.214  0.0754  0.0267  0.2761
75175W        W12669   0.126  25.113  26.215  0.1629  0.1235  0.2519
75176W        W12670  20.067  26.285  20.507 -0.2787 -0.1716 -0.0629
75177W        W12671  23.796  19.873  19.585  0.2229  0.1425 -0.2483
75178W        W12672   4.366   5.956  20.031 -0.2914  0.0395 -0.1634
75179W        W12673  29.280  27.593  15.401  0.0183  0.0092  0.1180
75180W        W12674  30.309   5.892  18.776 -0.2009  0.0205  0.1832
75181W        W12675   7.568  14.267  23.303  0.0532  0.1017 -0.0709
75182W        W12676   7.303  22.171   6.566 -0.1479 -0.2156 -0.1183
75183W        W12677  21.552  16.861  14.606  0.1659  0.0172 -0.0319
75184W        W12678  29.047  20.642  23.847  0.2334  0.0779 -0.2022
75185W        W12679   0.147   3.455  24.438  0.1593 -0.0223 -0.3962
75186W        W12680  19.720  24.500  18.806 -0.4615  0.0603 -0.1139
75187W        W12681  25.712  11.769  21.058  0.3217  0.0114 -0.3765
75188W        W12682  27.052   7.436  17.222  0.0970 -0.1759  0.1350
75189W        W12683  19.831  34.655   4.691 -0.0703 -0.0324  0.2563
75190W        W12684  27.449  12.501  18.882 -0.0181 -0.3001 -0.1284
75191W        W12685  25.689  19.149  14.585  0.2651  0.2460  0.3558
75192W        W12686   9.301  27.356  14.548  0.0201 -0.0520  0.2803
75193W        W12687  29.440   3.665   2.652 -0.2644 -0.3124  0.0556
75194W        W12688  11.479   8.782  21.415  0.2835 -0.0431 -0.1088
75195W        W12689   9.208  18.400  22.024 -0.0257  0.0457 -0.2534
75196W        W12690   9.833   7.832  23.022  0.2730  0.1696  0.0099
75197W        W12691   3.399  30.412   6.168  0.1321  0.1323  0.0959
75198W        W12692  12.316  18.501  21.985  0.3187 -0.1161  0.0173
75199W        W12693  24.283  17.577  21.651 -0.3459 -0.0689 -0.1154
75200W        W12694  23.799   0.369  23.511  0.0407  0.0199 -0.2194
75201W        W12695  27.648   6.253   2.544 -0.2984 -0.0422 -0.3063
75202W        W12696   7.902  27.595   4.056 -0.0210  0.0957 -0.2474
75203W        W12697   0.093   1.746   1.093 -0.0825  0.0176 -0.0374
75204W        W12698  32.895  23.967  25.742 -0.2165 -0.1460  0.0339
75205W        W12699  21.110   0.307   2.709 -0.2679  0.1046 -0.1924
75206W        W12700  31.163  34.935  24.459  0.2210 -0.1707 -0.0577
75207W        W12701  15.311   5.775  20.639 -0.1293 -0.1501  0.2304
75208W        W12702  21.883  13.379  25.282 -0.1553 -0.1222 -0.2387
75209W        W12703  11.578   7.281  19.130  0.1708  0.3154  0.0050
75210W        W12704  18.106   2.624   2.677 -0.1630  0.1838  0.0642
75211W        W12705  20.448   2.299   6.674 -0.1331  0.0117 -0.2861
75212W        W12706  16.079   8.322  26.153  0.0802  0.2109 -0.0822
75213W        W12707  27.006  34.541  24.045  0.0365  0.0296 -0.0250
75214W        W12708  26.109  10.535  25.930 -0.0962 -0.0256  0.0686
75215W        W12709  27.913   0.975  24.399  0.1710  0.0700 -0.0737
75216W        W12710  34.996  12.202  11.529 -0.1737  0.1147  0.1953
75217W        W12711   7.688  19.484   1.339  0.0214 -0.2639  0.1284
75218W        W12712  27.017  33.350  16.599  0.3509 -0.0716 -0.0608
75219W        W12713  27.170  29.390  22.668  0.3630 -0.1633  0.2204
75220W        W12714   2.362   0.330   5.215 -0.1592  0.1923  0.1221
75221W        W12715  31.728  14.642   6.075  0.1971 -0.1976  0.0590
75222W        W12716   8.482  10.446  20.599 -0.0191  0.3017  0.2569
75223W        W12717  14.991  27.899  12.392  0.2027 -0.0401  0.0196
75224W        W12718  33.685   8.898  19.702  0.4339 -0.2142 -0.0473
75225W        W12719  15.238   5.311  21.552 -0.1694  0.1286  0.1447
75226W        W12720   7.580  11.886   6.845  0.1745 -0.0255  0.1639
75227W        W12721   2.119   2.923  23.207 -0.0538  0.0608 -0.4601
75228W        W12722  21.378  29.016  22.398  0.0735  0.1749 -0.4438
75229W        W12723  16.062   5.988  24.930  0.0110  0.1013  0.0473
75230W        W12724  19.473  21.220   3.458 -0.1615 -0.2501 -0.0347
75231W        W12725  26.658   8.082   2.372  0.0122 -0.2305 -0.1418
75232W        W12726  13.122  32.543  22.378  0.0140 -0.0092 -0.3234
75233W        W12727  21.722  17.380   1.919  0.0175  0.1556  0.4474
75234W        W12728  12.059  23.996   9.937  0.2539  0.0123 -0.0136
75235W        W12729   0.445  13.258  18.284  0.2036 -0.2830  0.1712
75236W        W12730  12.643   9.185  12.113 -0.0869  0.3253 -0.0220
75237W        W12731  17.235   3.132   7.349 -0.1306 -0.0653 -0.2457
75238W        W12732  27.898  32.887  19.171  0.0521  0.2903 -0.4253
75239W        W12733  29.118  28.714  13.314 -0.0730 -0.3242  0.0093
75240W        W12734  31.586  14.826   7.481  0.0649  0.1154 -0.0736
75241W        W12735  32.607  31.191  19.671  0.0156  0.3515 -0.2890
75242W        W12736  12.121  28.994  10.193  0.1531  0.2451  0.2979
75243W        W12737  32.738  17.959  21.532 -0.1398 -0.2114 -0.3244
75244W        W12738  14.831  16.634   6.332 -0.1051  0.2445 -0.1894
75245W        W12739  10.963  30.314  11.476 -0.1074  0.0885 -0.2665
75246W        W12740   1.328  17.386  24.091 -0.2370  0.1273 -0.0965
75247W        W12741  14.402   4.295   7.751 -0.0234 -0.1107 -0.1039
75248W        W12742  31.078   9.143  13.540 -0.0882  0.1774  0.1087
75249W        W12743   3.436  33.504   0.628  0.0025 -0.0858 -0.4805
75250W        W12744  30.319  26.531  25.553 -0.2755  0.1069  0.1615
75251W        W12745  22.863  26.171   1.729  0.0183  0.0537 -0.0864
75252W        W12746   0.232  25.982  15.994 -0.1183  0.0705 -0.0867
75253W        W12747  33.192   3.081  14.635 -0.1041  0.0239 -0.0720
75254W        W12748   6.734   4.474  23.787 -0.1976 -0.1120 -0.1364
75255W        W12749  34.498   7.313  23.948 -0.1871  0.0762  0.0647
75256W        W12750   7.551  30.925   7.418  0.2215 -0.4001  0.0785
75257W        W12751   0.346   0.785  21.189  0.0308 -0.0078  0.0162
75258W        W12752  27.294  31.163  23.026 -0.3046  0.0796 -0.0676
75259W        W12753  31.840  18.350  14.436 -0.3623 -0.1908  0.0091
75260W        W12754  27.338  28.467   0.211 -0.0922 -0.0681  0.0781
75261W        W12755  27.786  17.697  23.596 -0.2452 -0.2388 -0.1361
75262W        W12756   2.452  32.845   6.130  0.1461 -0.2550 -0.0717
75263W        W12757   7.000  13.005   7.994  0.1070 -0.1215  0.0485
75264W        W12758  14.795  27.793   3.863 -0.0323 -0.0588 -0.3256
75265W        W12759  33.672  16.887  23.360  0.1917  0.2710  0.3098
75266W        W12760   8.869  14.519   8.942  0.0071 -0.2201  0.1622
75267W        W12761  21.873   0.522   0.263  0.1340  0.1727  0.2209
75268W        W12762  31.962  31.413   0.546 -0.0483 -0.0509  0.1946
75269W        W12763  14.419   4.617   9.190 -0.2209 -0.1174  0.0743
75270W        W12764   7.044  35.060   9.137 -0.1487 -0.1623 -0.3501
75271W        W12765  17.845  21.503   3.605  0.0710  0.2633 -0.1781
75272W        W12766   5.647   0.088  19.621 -0.0648 -0.1214 -0.1088
75273W        W12767  33.640  10.796  18.349 -0.0003  0.1084  0.0033
75274W        W12768  30.103   3.935  21.446 -0.0708 -0.0816 -0.2092
75275W        W12769  18.554  29.877   4.131 -0.0736  0.3115 -0.2419
75276W        W12770   6.129   4.826  22.305 -0.2785 -0.0710 -0.1776
75277W        W12771  11.182  25.418   0.031 -0.1966  0.0965  0.0377
75278W        W12772   9.095  22.689  11.038 -0.0213  0.1069  0.3077
75279W        W12773   7.253  17.063  20.221  0.2815 -0.0948 -0.2383
75280W        W12774  11.881  26.399  25.848 -0.2243  0.1225 -0.1619
75281W        W12775   0.873  28.178  18.071 -0.1614 -0.0028 -0.0018
75282W        W12776  32.252   5.208  20.236  0.3171 -0.0641  0.1988
75283W        W12777  33.796  18.643  22.139  0.1201 -0.0513 -0.0622
75284W        W12778  10.980  14.901  21.439  0.0470 -0.1724  0.2254
75285W        W12779   9.706  11.895   5.297 -0.1154 -0.0386 -0.2236
75286W        W12780  18.758   2.064  25.634 -0.0441  0.3727 -0.0417
75287W        W12781  23.877  20.029  21.433  0.1600  0.2518 -0.2054
75288W        W12782  30.431  25.589   0.813 -0.1614 -0.0641  0.0698
75289W        W12783  17.050  18.156   5.719  0.1290  0.0418  0.3971
75290W        W12784  23.853  22.853  24.486 -0.0337  0.1423  0.1218
75291W        W12785   9.080   2.523  23.409 -0.1539  0.0668 -0.2408
75292W        W12786  26.323  24.527  14.034  0.0164  0.2809 -0.0931
75293W        W12787  16.560  31.416  21.675 -0.2060 -0.0434  0.2086
75294W        W12788  31.596  17.772  14.831 -0.3198 -0.3236 -0.1401
75295W        W12789  31.822  12.485  11.519 -0.0120 -0.0840 -0.0784
75296W        W12790   4.460  28.433   8.972  0.1161 -0.0266  0.1180
75297W        W12791  31.731  24.158  19.951  0.5809  0.1062  0.4376
75298W        W12792  13.881  22.372  22.367 -0.2168 -0.0081  0.3629
75299W        W12793  11.022  28.337   3.272  0.0186 -0.0467  0.3667
75300W        W12794  31.472  35.223  14.879  0.1328 -0.0393  0.3116
75301W        W12795  28.770  12.281  20.248  0.0776 -0.5319  0.2702
75302W        W12796  17.686  19.672  10.383  0.0543  0.3926  0.1483
75303W        W12797  14.636  33.366  23.153  0.0900 -0.1101 -0.2289
75304W        W12798  34.304  11.047  12.921 -0.1185 -0.0147 -0.1657
75305W        W12799  18.465  25.278   4.903 -0.2042 -0.0390 -0.0289
75306W        W12800  33.333  26.479   0.922  0.0103 -0.0798  0.3881
75307W        W12801  16.086  13.524   8.744  0.0486 -0.1112  0.2036
75308W        W12802   8.501  16.120  25.682  0.2219 -0.0667  0.0326
75309W        W12803   3.962  34.557   5.048  0.4095  0.2897 -0.0164
75310W        W12804  30.979   5.028  23.707  0.3961 -0.2065 -0.2082
75311W        W12805  29.064  20.964   6.632 -0.0456  0.0821 -0.3178
75312W        W12806  23.703  17.653  12.539 -0.0830 -0.1137  0.1275
75313W        W12807  32.707   2.449  25.102 -0.1224  0.0404 -0.1384
75314W        W12808   9.885   7.803  21.568  0.0040  0.0654 -0.1629
75315W        W12809  12.821   6.943  19.623 -0.0409  0.1140 -0.3871
75316W        W12810   5.651  13.782  17.098 -0.0944 -0.0725  0.0371
75317W        W12811  26.734  32.853  12.686 -0.2034 -0.0875  0.3637
75318W        W12812  20.919  23.464  20.659  0.2653  0.0056  0.0659
75319W        W12813   3.653  35.241   3.274  0.2287  0.1123  0.0242
75320W        W12814  14.453  18.040  21.379 -0.0599 -0.0107 -0.4020
75321W        W12815  23.784  31.894  12.194 -0.1611  0.1020 -0.0215
75322W        W12816   3.162   6.893   7.107 -0.0443  0.0306 -0.0712
75323W        W12817  33.386  13.488  18.972  0.1130 -0.1767 -0.3203
75324W        W12818  11.039  32.886   7.431 -0.0155  0.1074 -0.0013
75325W        W12819   1.493  11.512  24.544  0.3254  0.0233 -0.3113
75326W        W12820  20.181  22.258  21.411  0.1568 -0.1318  0.1153
75327W        W12821   6.672   0.294   5.761  0.0122 -0.2185  0.2334
75328W        W12822   9.069  33.420  22.611  0.0015  0.0896 -0.0872
75329W        W12823  18.660  22.941   8.761  0.1563  0.2990 -0.3680
75330W        W12824   5.391  28.483  22.798  0.3174 -0.3381 -0.1005
75331W        W12825   4.935   4.024  22.425 -0.0435  0.0637  0.1724
75332W        W12826  26.085   6.496   1.064  0.0274 -0.0913  0.2509
75333W        W12827  13.956  16.793  10.212 -0.0231 -0.2628 -0.0954
75334W        W12828  34.700   3.198  23.680 -0.2459 -0.1267 -0.1283
75335W        W12829  19.858  13.805  19.336 -0.3020  0.2477 -0.0081
75336W        W12830  14.393  15.844   0.545 -0.0440 -0.2194 -0.0006
75337W        W12831  20.087   0.546   7.490 -0.0318 -0.2294 -0.1936
75338W        W12832   9.547  16.692   1.437 -0.0823 -0.0485  0.1125
75339W        W12833  27.810  16.204  17.352 -0.0953 -0.2334  0.3143
75340W        W12834  25.260   5.205   2.355  0.1108 -0.2054 -0.0447
75341W        W12835  21.010  13.422  18.254  0.2431 -0.0798 -0.1511
75342W        W12836   3.342  10.537  22.550  0.0466 -0.2017  0.0253
75343W        W12837  21.832  12.873  23.917  0.0472  0.1959  0.1500
75344W        W12838  22.678  24.614  22.828  0.1482 -0.0017 -0.1069
75345W        W12839  11.879   6.596  19.494 -0.0770  0.1675 -0.0058
75346W        W12840  26.703   1.742   1.221  0.1503 -0.0959  0.1103
75347W        W12841  17.383  11.417   3.008 -0.1394 -0.1035 -0.1167
75348W        W12842   3.816  34.908  21.909 -0.0337 -0.1317  0.0853
75349W        W12843  17.612  11.205  11.300 -0.1129  0.2586  0.3654
75350W        W12844  17.209  31.753  21.679 -0.0286 -0.1190  0.2112
75351W        W12845   1.212  29.632  19.846 -0.2039 -0.1195 -0.1088
75352W        W12846  24.401  34.047   3.363  0.3783 -0.0078 -0.5674
75353W        W12847  34.239  21.181  15.297 -0.0272 -0.1446  0.0544
75354W        W12848  30.721  30.752  26.224  0.0519  0.2189 -0.0080
75355W        W12849  20.057   6.981   0.484 -0.0616 -0.0583  0.3107
75356W        W12850  29.461  19.628  15.401 -0.1512  0.0789  0.1962
75357W        W12851   1.667  28.510   2.909  0.1350  0.2069  0.0573
75358W        W12852  23.432  34.794   3.234 -0.1761  0.6848 -0.2426
75359W        W12853  18.440   3.414   6.249 -0.1303 -0.0992  0.1074
75360W        W12854  27.510  25.056  15.058  0.2499 -0.0137  0.0714
75361W        W12855  20.003   9.356  17.384 -0.1135  0.0224  0.3662
75362W        W12856   0.075  13.020  15.907  0.2055 -0.1326 -0.0563
75363W        W12857  11.334  24.751  11.760 -0.2148 -0.0576  0.4458
75364W        W12858   6.533   1.996   7.420 -0.0353  0.0666  0.3037
75365W        W12859   9.464  19.450   0.392 -0.2503 -0.3016 -0.1082
75366W        W12860  25.095  14.316  21.362  0.2125 -0.2606  0.0162
75367W        W12861   2.623   8.563  23.726 -0.1828  0.1876  0.0764
75368W        W12862  32.829   6.976  12.002 -0.2800 -0.0824 -0.1549
75369W        W12863  19.794  15.010   4.124 -0.0097 -0.1815 -0.0294
75370W        W12864  11.023   3.179   4.992 -0.0190 -0.2761 -0.1162
75371W        W12865  26.032   9.023   9.306  0.1448  0.1049 -0.0710
75372W        W12866  18.309  18.105  12.631 -0.1965 -0.1975 -0.3305
75373W        W12867  10.590  26.355  16.460 -0.0077 -0.0921 -0.1361
75374W        W12868  35.141  15.644  24.547  0.2609 -0.0891 -0.2094
75375W        W12869  25.663   7.578   1.247  0.1165  0.0259 -0.3273
75376W        W12870  27.614  17.912   4.792 -0.1435  0.1116 -0.1193
75377W        W12871  32.475  18.348  11.110  0.0930  0.0560 -0.1539
75378W        W12872  22.410  13.242  23.096 -0.0049 -0.0903  0.0413
75379W        W12873   5.389  27.515  10.209 -0.0959  0.2537 -0.0416
75380W        W12874  11.444  17.279   9.939 -0.3232 -0.0424  0.1422
75381W        W12875  25.865  18.018  16.742  0.0657  0.1603  0.0591
75382W        W12876   8.890   4.424  25.917 -0.0589  0.0319 -0.2174
75383W        W12877  14.134  16.873  24.948  0.0066  0.0702 -0.0484
75384W        W12878  32.689   3.630  24.946 -0.3394 -0.1442  0.1139
75385W        W12879  13.428   5.625  19.169 -0.0422 -0.0008  0.0664
75386W        W12880   4.224  30.724   6.246 -0.1767 -0.1459 -0.0101
75387W        W12881  32.867  20.619  26.221 -0.1092  0.0957  0.3705
75388W        W12882   3.039   8.842  18.262  0.1490  0.4124 -0.2671
75389W        W12883   6.355  33.872   9.156  0.1155  0.0908  0.2118
75390W        W12884   0.683  30.238  16.978 -0.0547  0.0882 -0.1631
75391W        W12885   7.200  15.406  11.130 -0.1171 -0.1684  0.1001
75392W        W12886  29.392  14.930  22.756  0.1312 -0.1087  0.1054
75393W        W12887  33.185  13.615   9.381 -0.1697 -0.3404 -0.1187
75394W        W12888  29.694  17.749  25.710 -0.4109  0.0703  0.0412
75395W        W12889  31.177  34.672   3.328 -0.1082  0.1639  0.0911
75396W        W12890  16.088   8.995  19.736  0.1221 -0.1276 -0.1548
75397W        W12891  19.763   0.400   0.228 -0.0245 -0.1306  0.0347
75398W        W12892  11.989   0.751   8.200 -0.0545  0.1717 -0.1744
75399W        W12893  19.903   6.242   2.341  0.0996  0.0904  0.2047
75400W        W12894  21.089  11.187  24.958 -0.0423 -0.1789  0.3398
75401W        W12895  12.916  34.683   7.607  0.1400  0.1225  0.0599
75402W        W12896   9.430   9.157  11.170  0.0592  0.1078  0.5098
75403W        W12897   6.588  21.257  22.642  0.5641  0.0930  0.0955
75404W        W12898  18.561   1.248  25.998  0.2187  0.1106  0.0663
75405W        W12899  24.463  19.839  17.715  0.0863 -0.2067 -0.2065
75406W        W12900  14.910  13.603  10.209 -0.0737 -0.0521  0.3084
75407W        W12901  34.900  20.705  13.593 -0.0210 -0.0697 -0.4325
75408W        W12902  30.671   3.077  23.213 -0.0250 -0.7084 -0.0654
75409W        W12903  32.237  30.440   3.250  0.0635 -0.0138  0.1070
75410W        W12904   1.122  30.965  23.482 -0.2775  0.1691 -0.1891
75411W        W12905  22.185   7.016   0.038  0.1038 -0.1301  0.3800
75412W        W12906  14.990   9.786  22.232  0.1090 -0.3212 -0.3423
75413W        W12907  28.040  10.134  23.006 -0.0963  0.1732  0.3244
75414W        W12908  28.869  32.141  17.940 -0.0487  0.0384 -0.1049
75415W        W12909  19.741   9.325  20.397  0.3000 -0.0412 -0.1384
75416W        W12910  21.174  12.523  17.073 -0.1159  0.0008  0.2091
75417W        W12911  10.821  13.102  10.019  0.0878 -0.3241 -0.3156
75418W        W12912  12.003  16.772  23.440 -0.3785  0.0611  0.2164
75419W        W12913  24.099   8.199  22.279  0.1235 -0.1588  0.1467
75420W        W12914  17.245  18.509   6.255 -0.2832 -0.0556  0.0120
75421W        W12915  34.560  32.651  17.327 -0.1663 -0.1315  0.2529
75422W        W12916   6.747   9.152  25.110 -0.1995 -0.1188  0.0046
75423W        W12917  30.310  34.563   0.600  0.2506  0.0527 -0.4836
75424W        W12918  19.436  21.672  21.613 -0.0172  0.2748  0.3350
75425W        W12919   1.860  11.648  22.472  0.2378  0.0686 -0.3178
75426W        W12920   2.696  21.885  19.517  0.1569  0.2024 -0.2920
75427W        W12921  21.022  33.158  16.899 -0.1269 -0.1162 -0.3422
75428W        W12922  29.263   8.314  21.528  0.0478  0.1264  0.1979
75429W        W12923   8.607  19.917  21.305  0.1717  0.1474  0.2048
75430W        W12924  22.338  32.908  18.097  0.1769  0.1317 -0.2471
75431W        W12925   8.359  10.100   1.628  0.1754  0.0064 -0.1588
75432W        W12926   7.089   2.546  11.470 -0.2051  0.0658  0.1262
75433W        W12927  25.483  20.780  25.120 -0.1583 -0.1028 -0.1741
75434W        W12928  28.783   4.148   2.545  0.1093 -0.0298 -0.2656
75435W        W12929  13.318  14.413   0.947 -0.2055 -0.0528  0.0112
75436W        W12930  14.139  21.670   2.072 -0.0954  0.2070  0.1156
75437W        W12931  19.781  28.934  22.801  0.0399  0.1904 -0.1269
75438W        W12932  10.897  19.616  11.967 -0.0434 -0.0299  0.1044
75439W        W12933  34.337  32.529   2.685  0.1866 -0.0343 -0.1153
75440W        W12934   0.513   7.217  25.066  0.1186 -0.2093  0.0517
75441W        W12935   6.684  26.503  21.820 -0.3838 -0.0809  0.0349
75442W        W12936  16.163  21.627  24.588  0.1088 -0.1923 -0.1267
75443W        W12937  10.660  33.982  16.920  0.1627  0.0476 -0.0957
75444W        W12938  33.311  22.156  11.061 -0.1300 -0.0187 -0.1159
75445W        W12939   9.875  23.682   1.993 -0.1246 -0.2580  0.2446
75446W        W12940  32.118  17.024  18.942  0.2831 -0.0002 -0.0577
75447W        W12941  34.534  21.433  13.040 -0.2783  0.0326  0.3382
75448W        W12942  10.093  24.728  14.481 -0.1485  0.2642 -0.1213
75449W        W12943  23.665  13.904  21.158  0.1527  0.0207  0.3007
75450W        W12944  12.601  26.214  14.360  0.0660 -0.2458  0.2888
75451W        W12945  19.444  25.085  21.291 -0.0384  0.0742 -0.0555
75452W        W12946  30.157  11.116  10.708  0.1796 -0.1065  0.0095
75453W        W12947  19.505  34.487  16.200 -0.3504 -0.0243 -0.1369
75454W        W12948  33.104   1.569   2.976  0.5894 -0.1612  0.3223
75455W        W12949  25.505  31.389  25.050  0.1818 -0.1738  0.4023
75456W        W12950  19.489   3.804   3.965  0.1325  0.0466 -0.0988
75457W        W12951  33.213  34.052  26.234  0.2457  0.2013 -0.0625
75458W        W12952  13.448  28.492   3.964 -0.1444  0.1830 -0.0346
75459W        W12953  28.200  14.434   4.566  0.2137 -0.1734 -0.3930
75460W        W12954   0.162  20.101  10.542  0.2863 -0.3484  0.0858
75461W        W12955  16.362   0.051  17.698 -0.1306  0.2546  0.1830
75462W        W12956  12.453  16.068  23.492 -0.2754 -0.0297 -0.4875
75463W        W12957  32.745  11.162  16.774  0.1110  0.2271 -0.1684
75464W        W12958  28.655   5.717   0.615  0.2885 -0.1089 -0.1604
75465W        W12959   4.250  17.927   2.196  0.1794  0.0958 -0.1216
75466W        W12960  29.332   3.556  20.876  0.0658  0.1234  0.1700
75467W        W12961  25.443  14.399  21.017 -0.1447  0.1476 -0.0855
75468W        W12962  25.958   8.180  17.546  0.2113 -0.1511 -0.2163
75469W        W12963  10.211  34.811  23.176  0.1914  0.2089  0.1692
75470W        W12964  10.715  35.058  23.362  0.0493 -0.0356 -0.1115
75471W        W12965  29.178  26.279  12.659  0.1767  0.0758 -0.1439
75472W        W12966   7.735  14.735  23.559  0.1782 -0.1126  0.0542
75473W        W12967  21.076  12.886  24.921  0.4126 -0.0260 -0.1236
75474W        W12968  25.313   2.576  17.292  0.2210  0.1426  0.2612
75475W        W12969  24.254  19.467  24.898  0.0188  0.1373 -0.0942
75476W        W12970  11.782   5.965   1.949  0.0831 -0.3089 -0.0221
75477W        W12971   2.024  24.758  16.842  0.2129 -0.0623  0.1570
75478W        W12972  14.595  11.529   9.587  0.1223 -0.0110  0.2480
75479W        W12973  32.971  23.003  23.003  0.0087  0.0166  0.1666
75480W        W12974   4.410  24.958   6.068  0.4751  0.1875  0.2871
75481W        W12975  30.923  34.292  19.449  0.0209 -0.0594  0.0341
75482W        W12976  16.262  21.240  12.278  0.0716 -0.3688 -0.0372
75483W        W12977  24.474  28.158  23.581 -0.1206  0.0528  0.0950
75484W        W12978  11.290  30.498   8.567  0.1598 -0.0692 -0.1526
75485W        W12979  22.803   2.675  21.013 -0.1596 -0.2008 -0.0039
75486W        W12980  10.498  13.455  22.280  0.3844  0.0672  0.1459
75487W        W12981  11.269   8.645  25.715  0.1405  0.0785  0.0252
75488W        W12982  11.867  24.731   7.314 -0.2283  0.2011  0.1728
75489W        W12983  34.278   3.034  22.005 -0.0722  0.2867 -0.2618
75490W        W12984   3.200  20.858  22.900 -0.2151 -0.1621 -0.1342
75491W        W12985  30.277   0.918   2.525  0.1863 -0.0902 -0.2093
75492W        W12986  19.204  19.286   5.704  0.3130  0.1136  0.2713
75493W        W12987  31.784   7.619  15.004  0.0388  0.1815 -0.2827
75494W        W12988   2.862  31.132   5.877 -0.2945 -0.0858 -0.2442
75495W        W12989  18.077  10.779  19.282 -0.0007 -0.0152 -0.0103
75496W        W12990   9.448  34.777   2.796  0.1525 -0.0016 -0.1786
75497W        W12991  19.875  13.248   7.213 -0.0079 -0.1197 -0.1615
75498W        W12992  14.135  15.455   7.498 -0.0156  0.2455 -0.1674
75499W        W12993  28.015   6.358  21.246 -0.2138  0.0647  0.2414
75500W        W12994   0.753  32.051   1.919  0.0468  0.0531  0.4025
75501W        W12995  14.620   3.379   8.544  0.0929 -0.0459 -0.2041
75502W        W12996  22.905  25.526  19.377 -0.1950  0.1616 -0.1124
75503W        W12997  15.795  14.425  24.522 -0.5110 -0.1119 -0.0480
75504W        W12998  34.469   8.101  24.916  0.2453  0.1748 -0.0915
75505W        W12999  21.327  22.177  24.049 -0.0595  0.4442 -0.2714
75506W        W13000  16.264  19.194   2.605 -0.1464  0.2993 -0.0081
75507W        W13001  14.461  27.837  24.018 -0.3973  0.3873 -0.0842
75508W        W13002  23.613  14.456  25.677 -0.1412  0.1336 -0.0242
75509W        W13003  12.746  33.716   5.848 -0.1364 -0.1262  0.1048
75510W        W13004   0.542  29.194   5.199 -0.2664  0.0948 -0.1400
75511W        W13005  13.577  28.266  23.598  0.2626  0.1338 -0.3655
75512W        W13006  10.767  15.248  11.449  0.0554 -0.1910  0.0087
75513W        W13007  25.506   2.969  24.093  0.0286  0.4041  0.1969
75514W        W13008   1.555  12.628  20.609  0.2806  0.3250 -0.2561
75515W        W13009  20.815  29.074  17.051  0.0326  0.1345 -0.1291
75516W        W13010  34.071  13.490  16.867  0.0688  0.2664 -0.2117
75517W        W13011  30.263  29.675  25.391 -0.1889 -0.1109  0.1920
75518W        W13012  15.273   2.605   6.652  0.1935 -0.1803  0.0728
75519W        W13013   3.968  15.688  20.832  0.0897  0.1413  0.2875
75520W        W13014  12.975   4.145  23.028 -0.2286  0.2170 -0.3605
75521W        W13015   0.896  32.928   0.371  0.1137 -0.3698  0.1059
75522W        W13016   4.829  16.769   4.646 -0.1855  0.2164  0.0244
75523W        W13017  21.232  32.567  19.074  0.2299 -0.0050 -0.1393
75524W        W13018  10.354   0.533   3.450 -0.1874 -0.0642  0.3142
75525W        W13019  27.024   1.369  12.906  0.0349  0.1199  0.0101
75526W        W13020  24.508   7.857   2.949  0.0814 -0.2640 -0.1401
75527W        W13021  16.746  17.498  20.812 -0.2474  0.1685  0.0508
75528W        W13022  20.002  17.961   2.230  0.1598  0.0040 -0.2334
75529W        W13023  15.009  14.589   5.339  0.1340 -0.0794  0.3141
75530W        W13024  31.207   1.196  18.014 -0.3659  0.1394 -0.2302
75531W        W13025   5.247  20.745  22.798  0.0171  0.4541  0.0997
75532W        W13026  12.902  25.422  10.856  0.2616  0.0280 -0.0069
75533W        W13027  27.414  13.578   5.310  0.1239 -0.2518  0.3540
75534W        W13028  31.044   7.366  23.104  0.1566  0.0351 -0.4049
75535W        W13029  20.676   6.010  16.423  0.5411 -0.1484  0.0866
75536W        W13030  20.497  14.949  21.672 -0.1953  0.2136 -0.3058
75537W        W13031  18.781  34.565  19.046  0.1351 -0.2427  0.1406
75538W        W13032  12.477  18.452  13.243 -0.0855 -0.0745  0.1520
75539W        W13033  30.659  17.772  25.576  0.2300 -0.1371 -0.1840
75540W        W13034  20.393  12.915  17.057  0.0136 -0.2462  0.2163
75541W        W13035  19.303  19.829  22.703  0.0428 -0.0925 -0.1740
75542W        W13036  34.351   0.176  25.702  0.3200  0.0875 -0.1878
75543W        W13037  34.483   9.093  16.813  0.2529  0.0266  0.4943
75544W        W13038  31.819   4.380  16.642 -0.1514 -0.0628 -0.0682
75545W        W13039  33.914  35.206   1.184 -0.0407 -0.1523  0.0332
75546W        W13040  31.137  26.004  18.834 -0.0769  0.1062 -0.1378
75547W        W13041  35.154  13.469   8.989  0.2150 -0.1905  0.1293
75548W        W13042  12.789   4.940   1.857 -0.2444 -0.1729  0.0015
75549W        W13043   1.430  31.834   8.941 -0.1126 -0.1303  0.3173
75550W        W13044  31.313  29.317  23.420  0.2021  0.0372 -0.0446
75551W        W13045   3.768  18.453  20.396 -0.0905  0.0174 -0.1615
75552W        W13046  19.785   8.792   5.263  0.1387 -0.0308 -0.0755
75553W        W13047  28.409  18.234  12.984  0.1512  0.2199  0.0006
75554W        W13048   2.979   2.395  22.817 -0.0275  0.2209 -0.0138
75555W        W13049  21.954  31.502  16.743 -0.2259 -0.2906 -0.0210
75556W        W13050   3.572  25.290  21.370  0.1162 -0.0147 -0.1617
75557W        W13051  24.791  18.602  10.854  0.2008 -0.1415  0.5044
75558W        W13052  19.327   9.249   9.745 -0.0991  0.0927 -0.1817
75559W        W13053  33.231  29.674  21.304 -0.0597  0.1745  0.2876
75560W        W13054   0.945  12.066  17.622 -0.1393  0.0291 -0.2987
75561W        W13055  16.374  21.771   1.878 -0.3231 -0.0092  0.0038
75562W        W13056   7.578   4.615  23.703 -0.1142 -0.1748  0.0802
75563W        W13057  10.159  25.757  24.117 -0.0938  0.0095  0.0953
75564W        W13058  23.990  16.729  20.200 -0.1139 -0.2029 -0.2844
75565W        W13059  12.968  32.839   5.797  0.0924  0.0256  0.1988
75566W        W13060  11.117  22.656  23.292 -0.1832  0.2554 -0.1686
75567W        W13061   3.587  24.317  23.092  0.2073  0.0800 -0.0369
75568W        W13062   6.873  23.771  10.840 -0.2130  0.1276  0.1963
75569W        W13063   4.958  35.245   1.082  0.1870  0.0190  0.1398
75570W        W13064   4.211  33.836  20.005  0.0268  0.3378 -0.0789
75571W        W13065   6.976  16.741   1.841  0.1114  0.0313  0.4029
75572W        W13066   9.001  20.919  24.473 -0.1323  0.2774 -0.0224
75573W        W13067  23.585  24.739  16.424  0.1334  0.2981  0.4153
75574W        W13068   8.853   5.450   8.618 -0.1100  0.2875 -0.1022
75575W        W13069  34.917  33.262  20.098 -0.0071  0.1140 -0.0109
75576W        W13070  29.771  17.734  19.593  0.3365 -0.1855 -0.1058
75577W        W13071  26.102   9.624  19.312  0.3949 -0.0655 -0.4286
75578W        W13072  30.234  33.313  11.782  0.0566 -0.1401 -0.0457
75579W        W13073  29.344  27.840  13.328  0.2515 -0.0612  0.2461
75580W        W13074   9.688  27.743  13.277  0.0115  0.3506  0.0321
75581W        W13075   6.181   0.991  24.406 -0.3128  0.1031 -0.2020
75582W        W13076  32.213  20.670   7.857 -0.1527 -0.2781 -0.1204
75583W        W13077  31.438  20.897  22.382  0.1556  0.1398  0.0201
75584W        W13078   7.736   3.032  25.766  0.1823 -0.4508 -0.2574
75585W        W13079  33.369   0.146   0.615  0.3256 -0.2038 -0.0666
75586W        W13080  31.957  23.455  19.416  0.1456  0.3456  0.1114
75587W        W13081  10.564  25.571  23.800 -0.3677 -0.0271  0.4309
75588W        W13082  27.992  31.968  20.155  0.1744 -0.1924 -0.1378
75589W        W13083  24.086   0.616   2.653 -0.2341 -0.1272  0.2380
75590W        W13084   0.233  17.417   9.387  0.0954  0.0007 -0.2375
75591W        W13085  20.731  26.762  18.294 -0.3034  0.0502 -0.0088
75592W        W13086  24.908   0.549  12.584 -0.0972 -0.0461  0.0831
75593W        W13087   0.275  32.969  23.393 -0.1519 -0.0257 -0.3675
75594W        W13088  29.050  22.877  24.105 -0.0990 -0.0474  0.1743
75595W        W13089   9.421   3.711  12.184 -0.1971 -0.1339  0.3325
75596W        W13090   4.997  26.873  23.835  0.0508  0.1287 -0.1698
75597W        W13091   7.273   8.496   6.072  0.1582 -0.2762 -0.2063
75598W        W13092   9.534  29.430  11.801  0.0407 -0.0166  0.0713
75599W        W13093   9.413  30.772  23.180 -0.0402 -0.1136  0.3177
75600W        W13094   3.869   6.219  25.120  0.0483 -0.0318 -0.0222
75601W        W13095  31.150  24.280   7.939 -0.0527  0.1246 -0.2528
75602W        W13096  29.551  30.884   3.724  0.0431 -0.0442 -0.0733
75603W        W13097  34.559  24.961  22.397 -0.2762 -0.0189 -0.0084
75604W        W13098   3.602   6.947  20.421  0.1305 -0.0614  0.0765
75605W        W13099  16.962  11.962   5.195  0.2188  0.1692 -0.1707
75606W        W13100  11.492  13.428   1.899  0.0222  0.1527 -0.0652
75607W        W13101   4.999  35.239  12.813  0.1994 -0.1969 -0.1566
75608W        W13102   5.601  35.331  23.098  0.0136 -0.5698  0.0965
75609W        W13103  29.547  12.919  10.517 -0.2146  0.1263 -0.0357
75610W        W13104   3.894   7.625   8.190 -0.1348 -0.1481 -0.1024
75611W        W13105  33.934   3.901  21.589 -0.0294 -0.1271  0.2223
75612W        W13106  16.621   5.086   5.698 -0.2032 -0.3917  0.0761
75613W        W13107   0.036  30.977  16.022 -0.1639  0.1395 -0.0443
75614W        W13108  33.727  28.226  21.588 -0.0606 -0.0293  0.2519
75615W        W13109  26.266  18.618   8.992 -0.1329  0.3673 -0.0795
75616W        W13110  35.146  33.011  25.280 -0.0970 -0.2612  0.2039
75617W        W13111   7.319   4.074   5.401  0.1055 -0.2455  0.3624
75618W        W13112  28.034  19.710   8.458 -0.2340  0.0741  0.1778
75619W        W13113  18.180  29.872   8.335  0.1692  0.0280  0.2234
75620W        W13114  30.147  31.396  20.978 -0.1243  0.1052 -0.2878
75621W        W13115  11.649   1.620  12.971 -0.2529  0.1175  0.1747
75622W        W13116  28.082  29.754  21.653  0.1575  0.4027  0.0220
75623W        W13117  34.169   3.336  19.034 -0.0242  0.0520  0.0290
75624W        W13118   7.672   8.685  19.401 -0.0621  0.0043  0.0886
75625W        W13119   1.516   4.336  23.485  0.0535  0.0255  0.1992
75626W        W13120   8.693  13.443   7.973  0.1657  0.1433 -0.5214
75627W        W13121  28.816   1.657  25.651  0.3596  0.1523  0.1536
75628W        W13122  11.012   1.706   4.607 -0.0421  0.4842  0.0697
75629W        W13123  34.234   6.535  20.071  0.3427 -0.2352  0.1843
75630W        W13124  15.509  33.830  26.163 -0.5004  0.0035 -0.2525
75631W        W13125  30.707  13.808  11.304 -0.4818  0.1592 -0.2439
75632W        W13126   1.433  27.361  22.410 -0.1323  0.3575  0.0485
75633W        W13127   1.213   9.154  19.881 -0.0811  0.0063  0.0786
75634W        W13128   6.441  14.219   0.960  0.0582 -0.2265 -0.0886
75635W        W13129  22.916   1.374   4.653  0.1766  0.1134  0.1120
75636W        W13130   1.485  23.955  14.951  0.1753  0.1775 -0.1655
75637W        W13131   7.730   9.064  23.329 -0.1081  0.1160 -0.0939
75638W        W13132   0.966  25.738   2.869 -0.1274  0.3549 -0.1342
75639W        W13133  11.849  11.294  10.550  0.1340  0.1039 -0.3203
75640W        W13134  24.046  18.045  25.481  0.1951  0.3495 -0.0277
75641W        W13135  16.940  26.957   0.499 -0.1512  0.0684 -0.0707
75642W        W13136  13.027  13.708   9.997 -0.3042 -0.2072 -0.1131
75643W        W13137  18.966  12.168   4.174 -0.0163 -0.1093 -0.2771
75644W        W13138  14.120  25.983  21.550 -0.2461 -0.1469 -0.1736
75645W        W13139  16.637   2.771  10.077  0.2171 -0.1000  0.1499
75646W        W13140  24.817  28.608   2.722 -0.0482  0.1162  0.2351
75647W        W13141  27.405  24.760  25.338  0.1194  0.1014  0.0099
75648W        W13142  30.536  31.675  11.860 -0.1340 -0.0024  0.1033
75649W        W13143   9.492   1.917   4.740 -0.0834 -0.1076 -0.0758
75650W        W13144  14.813  34.597  22.071  0.1902 -0.2415 -0.0468
75651W        W13145   5.851  10.957   2.006 -0.0356  0.1612  0.2152
75652W        W13146  17.723  34.765   7.969 -0.6265 -0.1404 -0.2236
75653W        W13147   9.501  15.682   6.886 -0.1346 -0.1372 -0.0019
75654W        W13148  30.908   8.354  20.537 -0.0618 -0.2004 -0.0166
75655W        W13149  11.781  20.700  11.414 -0.0037 -0.2093 -0.5257
75656W        W13150   7.988   9.168   2.937 -0.1034  0.3063 -0.3429
75657W        W13151  23.757  26.323   1.630 -0.2214 -0.2501 -0.0809
75658W        W13152  32.831   0.362  13.687  0.1508 -0.2693  0.0761
75659W        W13153  33.272  35.261   6.733  0.2086  0.0421  0.0691
75660W        W13154  34.949  20.968  25.592 -0.2960 -0.0973 -0.1599
75661W        W13155  33.986   5.572   0.450  0.1678  0.1209 -0.1034
75662W        W13156   3.177  13.937  19.563 -0.1976  0.3873 -0.2663
75663W        W13157  20.477  31.472   3.715  0.1910  0.2494  0.0717
75664W        W13158  17.822   4.201  25.456 -0.0662 -0.0357  0.0142
75665W        W13159  33.186  34.671  14.359  0.0282  0.1270 -0.0983
75666W        W13160  34.204  28.145  24.483  0.0257  0.2497 -0.1108
75667W        W13161  15.054  32.940   1.797  0.2917  0.1817 -0.0022
75668W        W13162  18.323   8.232  10.048  0.2505 -0.3927 -0.0949
75669W        W13163  34.565   6.556  15.853  0.1048  0.1329  0.1014
75670W        W13164  11.158  16.061   0.861  0.1318  0.1261 -0.0192
75671W        W13165  18.175   6.418  19.422  0.0646  0.0796  0.1803
75672W        W13166  30.234   8.115  23.027  0.1241 -0.0747 -0.0109
75673W        W13167  14.822  22.564  24.418  0.1828 -0.1484 -0.1868
75674W        W13168   4.130  10.528  16.232  0.0238  0.3033  0.0527
75675W        W13169   9.136  18.275  25.174  0.0146 -0.0194  0.1820
75676W        W13170   3.667   8.233  21.065 -0.1590  0.0330  0.0448
75677W        W13171  29.911   2.992   0.286 -0.0277 -0.3047  0.0647
75678W        W13172  26.246  28.581  13.685  0.3616 -0.1651 -0.1002
75679W        W13173  20.107  20.074   0.229 -0.0208 -0.0289 -0.0115
75680W        W13174   2.215  31.308   5.363 -0.1179  0.2602 -0.0025
75681W        W13175   5.292  13.146   8.352 -0.0635 -0.1355  0.2593
75682W        W13176   6.831  15.705   4.764 -0.1678  0.1345 -0.3359
75683W        W13177   0.362  20.268  24.875 -0.0046  0.1862 -0.1101
75684W        W13178  25.536  25.526  18.372  0.1441  0.1848  0.1413
75685W        W13179  24.335  22.944  11.751  0.1553 -0.0462 -0.1937
75686W        W13180   5.516   5.218  11.101  0.0375  0.1275 -0.0585
75687W        W13181  20.093  27.862   6.557 -0.2214  0.0433  0.1688
75688W        W13182   6.521  30.808  15.749 -0.4159 -0.3794 -0.1606
75689W        W13183  10.885  10.337   0.400 -0.2166  0.0205 -0.2257
75690W        W13184  19.712   5.597  26.051  0.1687 -0.1925  0.0637
75691W        W13185   0.996  34.330  24.024  0.1251 -0.0013 -0.0958
75692W        W13186   4.547  23.392   3.930  0.0621  0.1169  0.0073
75693W        W13187  32.179  27.373  10.523  0.3460  0.0323  0.0993
75694W        W13188  27.556   7.065  26.085 -0.1611 -0.1049 -0.1288
75695W        W13189  26.919  33.943  19.488 -0.1031  0.1258 -0.1425
75696W        W13190   6.570   8.517   0.847 -0.1810 -0.0046 -0.1532
75697W        W13191  14.323  33.062  19.800 -0.0230 -0.4141  0.2197
75698W        W13192  18.504  23.695  21.498 -0.2583 -0.1080 -0.1308
75699W        W13193   0.328  34.302  22.549  0.0445 -0.0868  0.1294
75700W        W13194  15.569  22.365  14.040  0.0200  0.1068  0.1188
75701W        W13195   6.247   9.729  20.441 -0.2680  0.1233  0.1090
75702W        W13196  17.005  29.678  20.659  0.0472  0.0236 -0.1737
75703W        W13197  17.914  17.023  20.451  0.2155 -0.1878 -0.0758
75704W        W13198  20.446   8.508  25.168 -0.0345 -0.0178  0.1638
75705W        W13199   3.443  15.744   1.175  0.2926 -0.1465  0.2582
75706W        W13200   7.069   9.857  11.971  0.2034 -0.0459 -0.0396
75707W        W13201  22.863  11.553  23.122  0.0223  0.2825 -0.3622
75708W        W13202   0.384  34.329   2.456  0.0351  0.0443  0.3585
75709W        W13203   1.792  16.069  20.664  0.1487  0.1491  0.0550
75710W        W13204  17.663   7.203   0.508 -0.1729  0.0386  0.0198
75711W        W13205  23.747  28.060  24.963  0.2219 -0.0981  0.2122
75712W        W13206  27.651  35.040  12.091  0.2800  0.0303  0.2303
75713W        W13207  13.267  24.126   8.796 -0.1701 -0.0934  0.1391
75714W        W13208  11.501  28.330   4.008  0.1313  0.1611 -0.2377
75715W        W13209  22.165  31.835  18.134 -0.1651  0.3462  0.0193
75716W        W13210   6.926   4.284  24.286  0.3499  0.1269 -0.1771
75717W        W13211  16.032   4.294   4.716 -0.0271  0.0243  0.0535
75718W        W13212  12.960   2.962   3.350 -0.0364 -0.0855 -0.2528
75719W        W13213   6.646   5.145   5.044 -0.1826 -0.4776 -0.2089
75720W        W13214  24.896  32.949  24.248 -0.0104 -0.0877  0.0630
75721W        W13215  13.586  13.787   2.931  0.0645  0.3755  0.3374
75722W        W13216   3.703   9.806  22.436  0.2397 -0.3077 -0.1641
75723W        W13217  19.484   3.987  16.566  0.4054  0.0631 -0.1373
75724W        W13218  30.853  25.538  19.459  0.1501 -0.0108  0.0197
75725W        W13219  21.486  10.510   2.660 -0.0644 -0.1351  0.0247
75726W        W13220  35.180   5.978   6.524 -0.0923 -0.0698 -0.0120
75727W        W13221  25.233  20.444  14.274  0.3092 -0.0593  0.0194
75728W        W13222  33.325  19.014  23.699  0.0425 -0.0532 -0.1345
75729W        W13223  17.445   6.290  13.085 -0.2848  0.3930 -0.0932
75730W        W13224  30.702  32.605  14.294 -0.1987  0.1341  0.0328
75731W        W13225  21.936   5.595  18.519 -0.1542  0.1945 -0.0486
75732W        W13226   0.861  10.740  15.795 -0.0747  0.1023  0.1422
75733W        W13227  26.885   3.626  14.867 -0.0273 -0.1223  0.1136
75734W        W13228  30.706   0.965  15.506 -0.2902 -0.0320  0.0609
75735W        W13229  10.912  28.208  23.596 -0.0570 -0.0099 -0.1779
75736W        W13230  15.176  27.019   3.357  0.0051 -0.1304 -0.1964
75737W        W13231   6.758  28.607   2.970  0.1894 -0.1532 -0.4416
75738W        W13232  25.336  14.542  15.221  0.3519  0.0728 -0.0250
75739W        W13233  23.513  24.532  19.752 -0.0999  0.0376 -0.1308
75740W        W13234  18.127  34.195   1.109 -0.0599  0.0593 -0.2133
75741W        W13235   7.644  25.385  14.442  0.2590 -0.1190  0.0833
75742W        W13236  11.898   9.064  12.537 -0.2105 -0.1602 -0.1407
75743W        W13237  22.629  29.026   5.719  0.1027 -0.0846  0.2108
75744W        W13238   9.884  28.765   1.614 -0.2784 -0.1876  0.0219
75745W        W13239   1.958  23.482   0.255  0.2128 -0.1043  0.0533
75746W        W13240  15.542  19.243   0.905 -0.2700 -0.0304 -0.0458
75747W        W13241  32.277   1.402   2.815  0.1413 -0.2675  0.1748
75748W        W13242  35.073  32.382   0.971 -0.0050 -0.0740  0.0170
75749W        W13243  25.451  31.787  11.293 -0.2876 -0.0109  0.1349
75750W        W13244  27.181  22.178  10.530 -0.1446  0.0988  0.2593
75751W        W13245  18.615   6.794   4.346  0.0440  0.2771 -0.4325
75752W        W13246  15.460  13.153   6.766  0.3763  0.1360  0.0686
75753W        W13247  16.399  26.354  25.375 -0.0783  0.2148 -0.3948
75754W        W13248  26.159  33.745  12.380 -0.4887 -0.1378  0.2607
75755W        W13249  18.833  11.534  19.658  0.0029 -0.3961 -0.3435
75756W        W13250  28.409   1.700  20.861 -0.1366  0.1141 -0.0318
75757W        W13251   9.081  31.805  15.666 -0.5056 -0.0576  0.0456
75758W        W13252  16.929  20.156  24.671 -0.0935 -0.5173 -0.2278
75759W        W13253  30.859  11.828  18.009 -0.2240 -0.0040  0.1191
75760W        W13254   4.503  14.303   4.303 -0.4395  0.1941 -0.1844
75761W        W13255   5.482  23.531   5.009 -0.1962  0.1711 -0.0339
75762W        W13256  24.041  20.161  12.707 -0.0839 -0.0748 -0.0059
75763W        W13257  13.013  28.565  14.487  0.2246 -0.0923 -0.3396
75764W        W13258  21.210  25.504   4.217 -0.0309 -0.1414  0.0501
75765W        W13259   1.850  27.373  25.172 -0.1438  0.0732  0.3200
75766W        W13260  11.557  25.585  11.589 -0.2811 -0.2098  0.0646
75767W        W13261  32.192  28.132  15.816  0.1355 -0.2106 -0.0405
75768W        W13262   8.812  29.528   0.443  0.0645 -0.3175 -0.0157
75769W        W13263  30.466  29.331  22.404 -0.4496  0.1930 -0.0521
75770W        W13264  30.167   8.481   0.035 -0.0154  0.0912 -0.0749
75771W        W13265  18.256  30.691   8.195 -0.2884  0.0647  0.1223
75772W        W13266  18.653  11.963   6.527  0.1954 -0.0686  0.2555
75773W        W13267  25.641  31.909  16.562 -0.0156  0.4145  0.0925
75774W        W13268   0.326   6.063  20.948  0.1954 -0.2346  0.1304
75775W        W13269  19.314   7.320   3.195  0.0222  0.0328 -0.1780
75776W        W13270   4.702  32.116  24.670 -0.2124 -0.0712 -0.2468
75777W        W13271   5.422  35.353  24.644  0.0223 -0.2762  0.2821
75778W        W13272   5.108   7.854   0.385  0.0775  0.0370 -0.1575
75779W        W13273  10.622  23.314   5.591 -0.0369  0.0870  0.0372
75780W        W13274  34.064   9.214   0.253  0.4510 -0.2714  0.2353
75781W        W13275  28.517   9.979  22.877 -0.1497  0.0678 -0.0129
75782W        W13276  27.389  33.824  25.720 -0.4076 -0.0243  0.0420
75783W        W13277   1.430  32.287  25.040 -0.2118  0.3066  0.0785
75784W        W13278   3.558  11.371   6.900 -0.0054  0.1158 -0.0819
75785W        W13279  31.495  32.600  15.003 -0.2487 -0.4229  0.2062
75786W        W13280  27.656  29.166  17.440 -0.0564 -0.0146 -0.1878
75787W        W13281   9.751   4.894  12.271  0.1916 -0.1587  0.2477
75788W        W13282  21.342   6.394   8.038 -0.2718 -0.3841 -0.0716
75789W        W13283  10.215  26.876  25.626 -0.0446  0.2286 -0.2485
75790W        W13284  12.637  33.392  25.103  0.0263 -0.1030 -0.1546
75791W        W13285   2.670  14.082  19.478 -0.0722 -0.0072  0.1350
75792W        W13286   8.329  30.843  15.220 -0.2338 -0.0270  0.2464
75793W        W13287   9.654  31.698  12.017  0.1604 -0.0087 -0.0338
75794W        W13288  14.160  16.104  25.724 -0.2349  0.1578 -0.4074
75795W        W13289  19.202  26.150   9.706  0.1701  0.2986  0.0558
75796W        W13290   8.163  27.963  25.486 -0.1324  0.0417 -0.2891
75797W        W13291  17.492  18.557  11.246 -0.0605  0.1604 -0.2257
75798W        W13292  18.547  13.457  10.165 -0.1011  0.0135  0.1208
75799W        W13293  11.472  28.727   3.337  0.1280 -0.0484  0.0119
75800W        W13294   1.903  32.886   1.255  0.0589 -0.2962  0.0072
75801W        W13295  21.596   1.738  17.845  0.0439 -0.6357 -0.2914
75802W        W13296   0.817  11.617  14.043  0.0242  0.0778 -0.4184
75803W        W13297  27.878  19.343   9.351  0.1794  0.1894  0.0618
75804W        W13298   8.814  31.484   3.666 -0.1433 -0.1563 -0.1091
75805W        W13299  28.971  30.809   0.168  0.1748  0.2304 -0.1562
75806W        W13300  24.496  25.922  24.976 -0.1789 -0.3578  0.2316
75807W        W13301   5.049  18.138  22.615  0.3522  0.2693  0.1549
75808W        W13302   6.349  34.247  12.868  0.1589 -0.1661 -0.2219
75809W        W13303  29.098  31.853  22.898 -0.0976  0.1330  0.0632
75810W        W13304   0.265  33.129  22.151 -0.5829  0.1410  0.1759
75811W        W13305   2.858  34.657   7.707 -0.0458 -0.1115 -0.2366
75812W        W13306  30.569  16.015  21.863  0.3486 -0.4524  0.1928
75813W        W13307  32.279  33.283  19.387  0.1424  0.0659 -0.3324
75814W        W13308  34.312  16.965  15.697  0.3428 -0.1952 -0.2830
75815W        W13309   6.924   7.506  17.828 -0.1244 -0.2561  0.1137
75816W        W13310   9.564   1.861  23.452 -0.1415  0.1984  0.1061
75817W        W13311  27.075  33.154  14.576 -0.1594  0.1813 -0.1541
75818W        W13312  18.573  15.590  11.255 -0.1603 -0.0313  0.0068
75819W        W13313  11.257  32.872   1.928 -0.0431  0.2087 -0.1810
75820W        W13314   5.470   7.807   1.729 -0.1482 -0.0701 -0.1487
75821W        W13315  31.379   0.534  24.502 -0.0750  0.1477 -0.0311
75822W        W13316  16.338   1.207  23.764  0.0365 -0.0816  0.1394
75823W        W13317  28.809  12.288   9.679  0.1684  0.2914  0.1534
75824W        W13318  20.905  13.627  19.824  0.0648  0.1620 -0.2674
75825W        W13319  16.252  13.446   9.766  0.0167  0.3715 -0.4237
75826W        W13320  14.154  14.989   3.058  0.1251  0.1113  0.0682
75827W        W13321  18.792  22.775  10.290  0.1314 -0.0234 -0.1207
75828W        W13322  33.056   8.138  23.489 -0.0103 -0.1641  0.4154
75829W        W13323  29.136  34.883  22.497  0.0162  0.0474  0.2209
75830W        W13324   2.218   4.348  21.237 -0.0851  0.0521 -0.2136
75831W        W13325  22.983  26.619   0.152  0.2615 -0.0843  0.0340
75832W        W13326   0.193   3.520   6.108  0.0738  0.3896  0.2310
75833W        W13327  34.286   4.934   4.083 -0.0082  0.1517 -0.1199
75834W        W13328  27.366  15.030  11.450  0.0148 -0.1872  0.0606
75835W        W13329   2.105  33.980   1.759 -0.2457 -0.2990 -0.0384
75836W        W13330   0.832  28.315   2.752  0.2676 -0.3002  0.0416
75837W        W13331  32.332  23.313  11.970 -0.2810  0.3996  0.1212
75838W        W13332   3.853  15.935   0.892  0.1357 -0.0724  0.2436
75839W        W13333  15.884  22.093  13.097  0.0494  0.1675 -0.1281
75840W        W13334  27.878  16.774   7.301  0.0151 -0.2951  0.0914
75841W        W13335  34.576   0.819  15.368 -0.4785 -0.0343  0.0369
75842W        W13336  10.691  20.927  11.053 -0.0533 -0.0355  0.0967
75843W        W13337  27.591  17.894   7.524 -0.0652 -0.1030 -0.3518
75844W        W13338   7.739   5.210   4.776  0.2247 -0.1582  0.2943
75845W        W13339  16.387  29.254   8.456 -0.0119 -0.1179 -0.2079
75846W        W13340  22.354   7.431   0.305  0.0334  0.1692 -0.0205
75847W        W13341  11.175  11.369   3.331 -0.0879 -0.0282 -0.1410
75848W        W13342  27.054  16.199  13.321 -0.0871 -0.1452  0.3191
75849W        W13343  18.039  12.652  11.620 -0.2957  0.1494  0.0340
75850W        W13344  29.235  22.322   7.542  0.1858  0.0470  0.2115
75851W        W13345  21.250  29.430  16.163  0.5051 -0.0141 -0.2154
75852W        W13346   5.101  33.611  12.904 -0.2846 -0.2412 -0.0648
75853W        W13347  18.451  12.273  25.018  0.0905  0.0022  0.2559
75854W        W13348  23.671   4.693  15.179 -0.2454  0.1713 -0.0062
75855W        W13349   7.640   8.770   5.111 -0.1086 -0.0849  0.0401
75856W        W13350  23.665  14.243   1.353 -0.1608 -0.1102  0.0190
75857W        W13351   0.733  18.970  10.171 -0.0584 -0.0063 -0.2673
75858W        W13352  14.293  26.278   2.883  0.4189 -0.1499 -0.1118
75859W        W13353  33.564   7.324  23.923 -0.0498  0.3203  0.0703
75860W        W13354  16.016   9.976   7.710 -0.0004  0.3325 -0.1466
75861W        W13355  33.370  23.378  24.359  0.1023 -0.0764  0.3477
75862W        W13356  25.044   6.700   4.211 -0.2170 -0.0892  0.1126
75863W        W13357  33.663  23.774  15.806 -0.3226 -0.0449  0.0164
75864W        W13358  25.224  10.940  12.087 -0.4032 -0.2209  0.0905
75865W        W13359  19.293  13.688   7.462  0.1521 -0.0400 -0.0042
75866W        W13360  31.449  19.299  26.159 -0.1449 -0.2241 -0.0396
75867W        W13361  27.124   9.893  15.472  0.3175  0.2521  0.0181
75868W        W13362  14.237  30.518  10.860 -0.2449 -0.3587  0.1531
75869W        W13363  21.376  17.520  21.583  0.0549 -0.0388  0.1185
75870W        W13364  23.268  33.896  17.625 -0.1025 -0.0159 -0.0821
75871W        W13365  29.175  29.458  20.427  0.3131  0.4406  0.0371
75872W        W13366  34.869  29.553  19.985  0.0720  0.0223  0.0394
75873W        W13367  27.483  10.220  24.708 -0.0555 -0.1147  0.1768
75874W        W13368  19.608   2.141  20.901  0.0591 -0.1020 -0.0094
75875W        W13369   3.184  24.097  24.625  0.1084  0.2299  0.2819
75876W        W13370  23.194  14.068  23.377  0.2402  0.1283  0.1083
75877W        W13371  20.697   2.920   6.294 -0.1413 -0.1285 -0.1834
75878W        W13372   2.819  30.172  22.420 -0.1309  0.0357 -0.1546
75879W        W13373  17.269  22.686   2.174 -0.1021 -0.0108 -0.1771
75880W        W13374   2.554  13.182  23.550 -0.2523 -0.1405 -0.0889
75881W        W13375   6.492  34.236   8.071  0.0348 -0.0815 -0.4609
75882W        W13376   6.444  19.154   7.469  0.4640 -0.1396  0.0715
75883W        W13377  30.206  29.163  22.884 -0.0136  0.0882  0.1222
75884W        W13378  16.919  26.832  23.801  0.0707 -0.2358 -0.1581
75885W        W13379  30.885  13.215  13.730 -0.2472 -0.3779 -0.1870
75886W        W13380  21.269   9.665   8.483 -0.2213 -0.1085 -0.0185
75887W        W13381   3.103  29.306   0.908 -0.0897  0.1592 -0.0916
75888W        W13382  17.069  28.578   8.335 -0.2234  0.3908  0.3201
75889W        W13383   4.057  32.843  12.464  0.1393 -0.1320  0.0244
75890W        W13384  12.980  27.454   6.580  0.1707 -0.1131 -0.1750
75891W        W13385  10.898  16.323   7.472  0.1330 -0.0015 -0.2973
75892W        W13386  11.026  23.154  12.891 -0.1158 -0.0728  0.2473
75893W        W13387   3.933  35.316  11.971  0.0449  0.1941 -0.3848
75894W        W13388  33.930  10.717  14.621 -0.4565 -0.2249  0.1364
75895W        W13389   7.818  10.340   4.232  0.1734 -0.1705  0.1311
75896W        W13390   8.740   9.974  18.898 -0.1945 -0.0518  0.0874
75897W        W13391  25.302  25.737  19.822 -0.0600 -0.0733 -0.0416
75898W        W13392  21.374  14.488   0.407  0.0558  0.3951 -0.0886
75899W        W13393  10.901  22.000   6.402  0.1020 -0.0188  0.4930
75900W        W13394  20.194  15.919   2.127 -0.0569  0.0246  0.1107
75901W        W13395   1.641  24.869  19.566  0.0717 -0.1144 -0.2132
75902W        W13396  15.926   3.885   8.746  0.0094 -0.0648  0.1715
75903W        W13397  27.878  18.805  11.131 -0.0483  0.2467 -0.2282
75904W        W13398  14.087  10.577   0.417 -0.1915 -0.1132 -0.2602
75905W        W13399   0.581  16.066  24.244  0.0907 -0.2761  0.0661
75906W        W13400  34.747   3.842  21.999  0.0856 -0.2397  0.1274
75907W        W13401  23.881  13.228   1.560 -0.0164  0.0334  0.3191
75908W        W13402  21.576  29.144  12.911  0.1950 -0.0234  0.2895
75909W        W13403  26.498   1.118   5.944  0.0392 -0.3039  0.0999
75910W        W13404  27.436  34.291  13.801  0.1844 -0.1052  0.0148
75911W        W13405   1.497  16.873  23.667  0.2851 -0.2638  0.0605
75912W        W13406  22.224   6.274  21.068  0.0551  0.3737  0.1388
75913W        W13407  30.987  25.705   8.256 -0.1563  0.1275  0.3945
75914W        W13408   8.879  24.072  23.811 -0.1208  0.0646 -0.0768
75915W        W13409  33.156  32.971   6.537  0.0606 -0.2331 -0.2337
75916W        W13410  14.069  34.657   1.777 -0.1799 -0.4436  0.1952
75917W        W13411   6.059  34.141  24.431  0.1000  0.1051 -0.0198
75918W        W13412   5.795  33.356   4.960 -0.1644 -0.4594 -0.1960
75919W        W13413  33.774  20.947   0.754  0.0131  0.0010  0.0147
75920W        W13414  18.134  23.833  12.886 -0.1935 -0.1298  0.0925
75921W        W13415  33.884  32.640  12.930  0.1232 -0.1257 -0.4539
75922W        W13416  29.406  16.579  22.673 -0.2704  0.2277 -0.0313
75923W        W13417  15.660  29.893   1.297 -0.0127  0.2223  0.1640
75924W        W13418   0.489   5.656  25.793  0.0425  0.2129  0.2445
75925W        W13419  31.973   0.994   4.833  0.1219  0.3107  0.1628
75926W        W13420  24.361  18.812  21.144 -0.0943  0.1451 -0.1957
75927W        W13421  10.863  34.665  21.684 -0.1756 -0.0764  0.0353
75928W        W13422   1.606   6.815  15.012  0.0125 -0.3673 -0.0160
75929W        W13423  11.708  13.710   0.134  0.2199 -0.1299  0.0311
75930W        W13424  18.066  28.116   2.156  0.0471  0.0167  0.2534
75931W        W13425  14.281   5.097   7.228 -0.1040  0.0997 -0.0800
75932W        W13426   0.779  30.734  24.996  0.0756  0.1135  0.0119
75933W        W13427  21.287   3.676  15.013 -0.3203  0.1055  0.1863
75934W        W13428  11.859   9.602  12.734  0.0941 -0.0235  0.0682
75935W        W13429  10.399   2.517  11.562  0.0946 -0.0960  0.0161
75936W        W13430   8.212   7.277  20.364  0.2059  0.0832  0.3988
75937W        W13431  23.612  27.486  15.567 -0.3381  0.0516 -0.0373
75938W        W13432  11.783  11.202  21.447 -0.0615 -0.3320 -0.2165
75939W        W13433  33.743  26.617  20.640 -0.1650  0.0313 -0.1969
75940W        W13434  28.382  13.450  11.817  0.1881  0.2496 -0.1113
75941W        W13435   9.281  12.470  13.386 -0.3959  0.2227  0.0626
75942W        W13436  15.705  21.001   2.707 -0.1545  0.0627  0.0543
75943W        W13437  26.083  15.965  13.442 -0.0272 -0.0276  0.2047
75944W        W13438  12.249  13.662   5.404  0.5151 -0.0768  0.1093
75945W        W13439  24.541  15.747  13.484  0.0008 -0.1498 -0.1314
75946W        W13440   8.911  15.764  11.382  0.3189  0.1780 -0.2765
75947W        W13441  14.048  11.349  23.668 -0.1907 -0.3354 -0.0033
75948W        W13442  31.160   9.141  24.387  0.0347 -0.0161 -0.3035
75949W        W13443  25.475   0.157  23.557  0.0734  0.0150  0.1130
75950W        W13444  35.012  31.000  16.957 -0.4643  0.2329  0.2461
75951W        W13445  10.589   0.044  24.724  0.2824 -0.1767 -0.0529
75952W        W13446  14.835   0.679  19.227 -0.1332 -0.1715  0.1112
75953W        W13447  34.211  20.100   7.499 -0.0126  0.0430  0.2902
75954W        W13448  17.511  12.363   5.779 -0.3699  0.0206 -0.1495
75955W        W13449  12.030  21.405  25.758  0.2164  0.0811 -0.0245
75956W        W13450   5.496   8.625  25.498  0.1664 -0.0248 -0.0080
75957W        W13451  30.799  16.420  19.252  0.0326 -0.2210  0.2233
75958W        W13452  12.601  13.514  24.823 -0.0522  0.2092  0.1102
75959W        W13453  21.942  33.880   3.217  0.1825  0.0106 -0.1032
75960W        W13454  16.718   0.130   8.954 -0.0558 -0.0908 -0.0772
75961W        W13455   4.206   8.784   1.998 -0.1014  0.0654  0.1236
75962W        W13456  26.486  16.861  13.181  0.0578  0.1011  0.2222
75963W        W13457  13.161  26.944   5.904 -0.0200  0.0289 -0.0626
75964W        W13458  17.383  19.586  12.114 -0.0506 -0.2711  0.1702
75965W        W13459  29.418  20.273  10.759 -0.1173 -0.0063 -0.0351
75966W        W13460  11.178  11.131  20.600  0.2024  0.2629  0.0476
75967W        W13461   6.752  26.114  12.389 -0.0386 -0.3143  0.0414
75968W        W13462  12.599  15.403   2.639  0.0148  0.0117 -0.3322
75969W        W13463  19.645  13.712   0.458  0.2333 -0.0066  0.2243
75970W        W13464   2.040  27.539  22.701 -0.1862 -0.1522 -0.1885
75971W        W13465   7.672  31.266  11.127  0.2994 -0.1187 -0.0489
75972W        W13466  16.563   9.066   3.741  0.2052  0.1235  0.2402
75973W        W13467  35.279   3.994  22.240  0.2798  0.3218  0.2215
75974W        W13468   7.729   7.342  12.703  0.2943 -0.1570  0.2624
75975W        W13469  31.015  30.806  12.613 -0.0848 -0.2512  0.1697
75976W        W13470   2.428   8.008  23.712 -0.1910 -0.1592  0.0455
75977W        W13471  15.343  34.012  12.127  0.0157 -0.3816  0.1317
75978W        W13472  14.611  13.991  13.269  0.0849  0.0181  0.1563
75979W        W13473   3.239  23.583   2.113 -0.0072  0.2411  0.3186
75980W        W13474   4.117  31.492  12.156 -0.0489  0.2467  0.0501
75981W        W13475   8.839  23.764  14.884 -0.0770 -0.0046 -0.1852
75982W        W13476  19.350   3.397   0.532  0.1411 -0.0583 -0.0193
75983W        W13477  19.621  20.903   3.889 -0.0912  0.0337 -0.0157
75984W        W13478  18.208  33.366  20.615  0.0355  0.2569  0.0035
75985W        W13479  30.278  30.058   1.552 -0.1073 -0.5145 -0.1740
75986W        W13480  18.681  19.237   7.871  0.3836 -0.3750  0.1447
75987W        W13481  10.179   6.533  11.499  0.1549  0.0517  0.1036
75988W        W13482  32.563  16.647  19.021  0.1635 -0.2134  0.0713
75989W        W13483  21.030  18.968  23.904 -0.1204 -0.2022  0.2903
75990W        W13484   8.380  31.911  12.731  0.2077 -0.2834  0.2599
75991W        W13485   6.332  11.363  24.071  0.2445  0.1325 -0.1032
75992W        W13486   8.116  12.697  18.388  0.1683 -0.0462  0.2616
75993W        W13487  11.593  27.755  16.270  0.3277 -0.1970  0.1854
75994W        W13488  14.291   1.940  11.940  0.1633 -0.4127 -0.2199
75995W        W13489   6.155  17.013  22.899  0.2690  0.0160 -0.2655
75996W        W13490   1.546  11.686   1.380  0.1241 -0.1634  0.0380
75997W        W13491  35.358  31.399  25.770 -0.0881 -0.2452 -0.3138
75998W        W13492  33.552   2.670  19.949 -0.1932 -0.0614 -0.0831
75999W        W13493  33.398  29.863  14.822 -0.1782  0.0713 -0.3601
76000W        W13494  20.180  27.561   3.094 -0.3502 -0.0663  0.1363
76001W        W13495  34.195   2.859  25.933  0.1228 -0.4177  0.2496
76002W        W13496  13.514  17.930  13.357 -0.2689  0.1451 -0.0680
76003W        W13497  10.425  28.124  10.283 -0.3250  0.0087  0.2646
76004W        W13498  26.099  31.303  17.889 -0.2609 -0.0191  0.0232
76005W        W13499  11.643   4.668   9.917 -0.0700  0.0854  0.2135
76006W        W13500  28.899  11.418  20.492 -0.2019 -0.0692  0.3036
76007W        W13501  21.425  29.161   0.243 -0.0568 -0.0524  0.0450
76008W        W13502  32.232  16.876   5.903  0.0010  0.1958 -0.1702
76009W        W13503  11.442  28.574   5.912  0.0042  0.1056  0.2193
76010W        W13504   5.849   2.448   7.868  0.0165  0.0101  0.0835
76011W        W13505  21.732  24.533  25.911  0.3856  0.4445  0.1807
76012W        W13506  28.361  31.257  21.197  0.1226 -0.0516  0.1521
76013W        W13507   6.321   9.005  23.058  0.0022  0.0249 -0.2823
76014W        W13508  17.999  29.118  22.161  0.1270 -0.0502 -0.0861
76015W        W13509  17.797   9.799  19.411  0.0484  0.0399 -0.0023
76016W        W13510   1.683  24.405  24.170 -0.0873 -0.1201 -0.0932
76017W        W13511  20.428  17.905   2.518 -0.1700  0.0379 -0.2475
76018W        W13512  20.823   3.916   7.895  0.0563 -0.0020 -0.1874
76019W        W13513  15.496  29.228  24.977  0.1389 -0.2574  0.0118
76020W        W13514   1.927  27.906  23.609  0.2073 -0.1706  0.4295
76021W        W13515  18.354  16.192   4.910 -0.3347  0.2652  0.0972
76022W        W13516  12.899  25.311  14.395 -0.0631 -0.0322  0.0323
76023W        W13517  15.077   3.340  24.311 -0.2109 -0.0533  0.1577
76024W        W13518  24.809   5.097   2.156  0.2231 -0.2409  0.0966
76025W        W13519   4.896  31.811   4.610  0.0984  0.2059 -0.0317
76026W        W13520  29.345   6.559  10.940  0.0286  0.3720 -0.1958
76027W        W13521  14.358  15.037   4.520 -0.0132  0.0667 -0.1319
76028W        W13522  13.979  19.180  13.516  0.0925 -0.2289  0.0948
76029W        W13523   3.444  14.060  14.329 -0.0009 -0.1877  0.1339
76030W        W13524  11.099  18.608   4.977  0.1153  0.3433  0.3739
76031W        W13525  27.555  29.006  18.738 -0.0036  0.2285 -0.1880
76032W        W13526  15.882  34.341  21.419  0.0305 -0.0942  0.0714
76033W        W13527   4.125  27.172   7.883  0.2074  0.0408 -0.0661
76034W        W13528  29.498  28.830   2.534 -0.2612  0.0557 -0.1468
76035W        W13529  16.430   9.540  13.030  0.2951  0.0270  0.1148
76036W        W13530  19.723   7.651   2.867 -0.3283  0.0969  0.2916
76037W        W13531   8.323   8.671  21.513  0.1136  0.0248  0.0318
76038W        W13532   2.166   7.963  17.777 -0.3949  0.0726  0.1265
76039W        W13533  32.342  10.759  19.986  0.4134  0.1368 -0.2525
76040W        W13534  20.481  16.583  17.370 -0.2287  0.2090 -0.2486
76041W        W13535  32.094  29.988  21.888 -0.0097 -0.2046 -0.4739
76042W        W13536  28.862   0.469  12.280 -0.2766  0.0787 -0.1189
76043W        W13537  13.425  20.589   7.751 -0.2658 -0.0794 -0.1506
76044W        W13538  32.098  15.404  15.511 -0.2356  0.1627  0.0098
76045W        W13539  10.242  13.237   5.819 -0.0271 -0.5149 -0.1337
76046W        W13540   9.332  33.752   0.301  0.2148 -0.0494  0.0125
76047W        W13541  25.035   4.308  17.507 -0.0463 -0.1110  0.3011
76048W        W13542  18.325  17.547   9.432  0.2315 -0.0174 -0.1393
76049W        W13543  25.286  20.191  10.138  0.0827  0.0224 -0.0105
76050W        W13544  19.071  27.148   7.574 -0.5191  0.0355 -0.0283
76051W        W13545  24.664   5.625  19.559 -0.0505  0.1725  0.4222
76052W        W13546  17.686   1.906   0.914 -0.2363  0.0680  0.2283
76053W        W13547  12.890  19.052  10.302  0.2811  0.1141  0.1046
76054W        W13548  29.418  23.208  25.891 -0.2731 -0.0834 -0.1546
76055W        W13549  13.474  28.737  23.506  0.0311 -0.0875 -0.1760
76056W        W13550  15.106  18.970   7.446 -0.0616 -0.1299  0.2441
76057W        W13551  11.303  11.336   7.062 -0.1524 -0.1923  0.2905
76058W        W13552  20.332  25.079  24.551  0.1478  0.0826  0.1217
76059W        W13553  21.799  30.086   1.093  0.0311 -0.2737 -0.0046
76060W        W13554   8.369  35.010   8.841  0.2170  0.4031  0.0300
76061W        W13555   2.867  24.840  24.904 -0.2346 -0.0200  0.0578
76062W        W13556   1.703  21.285  21.975 -0.2414 -0.3025 -0.0593
76063W        W13557  25.121  11.103  20.663  0.1363 -0.3371 -0.1762
76064W        W13558   0.499  26.548  18.858  0.2519  0.1166 -0.0268
76065W        W13559   9.668  25.076  21.933 -0.1368  0.1991 -0.0923
76066W        W13560  11.813  12.387   9.308  0.0813  0.3056 -0.2594
76067W        W13561   3.920   4.893  20.711  0.0449  0.0039  0.1172
76068W        W13562  19.931   0.387  18.013 -0.0594  0.1277  0.0917
76069W        W13563   4.137  11.700  19.774  0.1343 -0.1067  0.1789
76070W        W13564  17.545  29.908  23.152 -0.0227  0.1186 -0.0695
76071W        W13565  24.096   4.391  25.925  0.3121 -0.0427 -0.1337
76072W        W13566  20.267  19.989   6.869 -0.1986  0.0521 -0.1139
76073W        W13567  26.167  21.346  13.883 -0.1347 -0.0934 -0.0540
76074W        W13568  31.858   5.860  23.232 -0.2285 -0.0557  0.1107
76075W        W13569  16.980  15.646  10.225  0.1976  0.0073 -0.0315
76076W        W13570  16.313   1.074  25.112  0.3266 -0.1020 -0.0550
76077W        W13571  12.489  19.520   2.388  0.4007  0.0818  0.3477
76078W        W13572   6.359  22.072   1.896 -0.1583  0.6109  0.0936
76079W        W13573  27.088  34.565  16.877 -0.1727 -0.0936  0.1620
76080W        W13574  26.931  20.313   9.355  0.1592 -0.1540  0.3807
76081W        W13575   0.065   8.586  14.444  0.2405  0.3127  0.2925
76082W        W13576  11.167  12.353  23.767  0.1770  0.0414 -0.3795
76083W        W13577  23.264  22.978  22.728  0.3804  0.3682 -0.0140
76084W        W13578  17.145  26.580   1.289 -0.1460 -0.1090  0.2079
76085W        W13579  34.758  32.650   5.937  0.0983  0.2129 -0.2258
76086W        W13580  13.651   2.061  11.293  0.2817 -0.1065 -0.0670
76087W        W13581  17.132  20.174   1.832  0.2115 -0.0874  0.1785
76088W        W13582  25.312  15.872  22.679 -0.0862 -0.3309  0.0284
76089W        W13583  12.510  22.851  22.285 -0.3716  0.1953  0.1575
76090W        W13584  25.816  28.311   0.937 -0.2449  0.0260 -0.1213
76091W        W13585  33.304  23.605   0.392 -0.0395 -0.0220 -0.0777
76092W        W13586  17.858   1.768   5.437 -0.0830  0.1558  0.0968
76093W        W13587  25.111   9.142  19.925  0.2192 -0.2990  0.2427
76094W        W13588  11.909   7.185  11.767 -0.0833 -0.0945  0.2308
76095W        W13589  30.366  34.852  16.920 -0.0133 -0.0529 -0.3660
76096W        W13590  10.955  29.581   0.353  0.0074  0.1416  0.0685
76097W        W13591  13.875  26.772  10.094  0.1968 -0.0910  0.3539
76098W        W13592   3.587   6.217   4.530 -0.1073 -0.2839 -0.2080
76099W        W13593  16.004   6.954  24.770  0.0014 -0.1461 -0.2570
76100W        W13594  20.220   5.135  23.607 -0.0184 -0.0578  0.0747
76101W        W13595  25.282  14.473  11.604 -0.0428  0.1872 -0.1728
76102W        W13596   3.806  22.215   3.516 -0.0455 -0.3545  0.1171
76103W        W13597   8.052  34.028  24.434 -0.0909  0.2598 -0.2032
76104W        W13598   1.063   6.504  23.341  0.0525  0.2547  0.1967
76105W        W13599   5.346   0.700   4.779 -0.0107 -0.2411 -0.0869
76106W        W13600  22.950  28.003  15.147  0.0020 -0.2026  0.1472
76107W        W13601  17.833  20.422  11.035  0.1444  0.3597  0.2950
76108W        W13602  33.695  17.037  19.669  0.3733 -0.1080 -0.1974
76109W        W13603  14.792  15.914   2.621  0.0291 -0.1450  0.0865
76110W        W13604  17.898   1.152   5.401 -0.0615 -0.1206 -0.3917
76111W        W13605  21.281  10.940  17.386 -0.2546 -0.0447  0.1350
76112W        W13606  34.870  23.030  23.082  0.0856  0.0604  0.2071
76113W        W13607   0.411   3.842   6.853 -0.2457  0.0535  0.2361
76114W        W13608  14.889  11.245  20.420 -0.2207  0.1106 -0.0082
76115W        W13609  21.540  10.754   3.115 -0.1066  0.0210  0.0097
76116W        W13610  15.366   5.606  23.367 -0.3174 -0.3925  0.0599
76117W        W13611   5.948  24.716  10.383  0.0912  0.1899 -0.0735
76118W        W13612  30.362  18.521   9.643  0.0583  0.1371 -0.0904
76119W        W13613  34.782   8.590  18.788  0.1551 -0.2597 -0.2331
76120W        W13614  23.564   2.274  16.470  0.2666 -0.0149 -0.1019
76121W        W13615  25.578  31.123  23.600 -0.0129  0.3529 -0.1572
76122W        W13616   4.789  25.565   5.277 -0.0297  0.1658  0.0984
76123W        W13617  15.189   3.306   7.948  0.3999  0.1300  0.0770
76124W        W13618  26.936  25.196  26.145 -0.1731  0.2482  0.2211
76125W        W13619  21.013   1.351  16.189  0.1395  0.0382 -0.0242
76126W        W13620   5.312  26.176  22.551 -0.3320  0.0427  0.3733
76127W        W13621  27.424  10.958  13.849  0.0552 -0.0438 -0.2427
76128W        W13622  30.906  22.943  17.732  0.1625  0.0639 -0.0233
76129W        W13623  15.204  17.551   5.432  0.0322 -0.1140  0.2222
76130W        W13624  16.848   6.051  10.967 -0.0733 -0.1312  0.2954
76131W        W13625  12.852  10.664   9.395  0.3465  0.2023 -0.1558
76132W        W13626  10.546  17.802  20.273  0.0012 -0.1270  0.0562
76133W        W13627  28.650  31.528  19.543  0.0608 -0.0196  0.1747
76134W        W13628   5.901  16.053   4.370 -0.0580  0.1401 -0.2311
76135W        W13629  27.854  28.363   4.199  0.0432  0.3037 -0.0376
76136W        W13630   2.696  34.882  22.976 -0.4130 -0.3160 -0.1913
76137W        W13631   2.012   4.991  25.828  0.2065  0.0557 -0.0613
76138W        W13632  21.402  10.882  22.419  0.2358  0.2388  0.2687
76139W        W13633  11.395  33.549   3.305 -0.1688 -0.5251 -0.2615
76140W        W13634  13.499   8.033  25.670 -0.0951  0.0132  0.0430
76141W        W13635  20.968  10.023  24.066  0.0542 -0.2017 -0.2416
76142W        W13636  26.349  25.559  11.530  0.2764  0.2999 -0.3158
76143W        W13637  21.221  23.540   3.256  0.1377  0.1815  0.2277
76144W        W13638   2.618   9.517  14.915  0.1415  0.1207 -0.1244
76145W        W13639  13.297  35.074   2.034  0.2814 -0.2885 -0.1366
76146W        W13640  32.223  24.232  17.496 -0.2481 -0.1454 -0.1965
76147W        W13641  15.400  34.763   1.065  0.0787 -0.0504  0.1564
76148W        W13642  29.884  33.331  22.895  0.1175 -0.1629 -0.1156
76149W        W13643   4.564  32.308  19.655 -0.2399  0.0378 -0.1582
76150W        W13644  28.622  19.526   6.338  0.0388  0.0845 -0.0657
76151W        W13645  13.735  10.679   6.377 -0.0659  0.0681  0.1304
76152W        W13646  21.490   0.325   3.094 -0.1747  0.2368 -0.0792
76153W        W13647   2.038  28.141   4.713 -0.0540 -0.1167  0.2603
76154W        W13648  25.153  34.029   0.968  0.3063  0.0609  0.2794
76155W        W13649  10.771   5.388   1.909 -0.1776  0.0606 -0.3087
76156W        W13650   8.038  23.028  15.241 -0.2520  0.2467 -0.2127
76157W        W13651  26.677  22.777  21.147 -0.4103  0.0705 -0.3543
76158W        W13652   6.153  22.362   5.368  0.1528 -0.0224 -0.2122
76159W        W13653  29.362   1.990  22.528 -0.3117 -0.3126  0.1061
76160W        W13654  27.446  14.986  23.816 -0.0925 -0.1310 -0.2437
76161W        W13655  24.642  15.677  25.189 -0.1755 -0.0676 -0.2000
76162W        W13656  23.503  10.570  23.851  0.1131  0.1283 -0.1807
76163W        W13657  34.546  15.242  10.037 -0.1869  0.3678 -0.0550
76164W        W13658  16.687  19.128  21.935  0.0442 -0.1484 -0.1228
76165W        W13659   8.870   9.403  21.694 -0.1353 -0.2443 -0.0077
76166W        W13660   7.639   7.830  24.542  0.2369 -0.0891 -0.0570
76167W        W13661  17.135  14.258  12.473 -0.0261 -0.0709  0.1203
76168W        W13662   3.397  31.901   9.787 -0.0497  0.0781  0.0765
76169W        W13663   3.006   1.850  19.219 -0.3987 -0.1260 -0.1815
76170W        W13664  19.683  20.596   7.696  0.1319  0.2851  0.0259
76171W        W13665  14.241  24.704  24.756 -0.2097  0.0483 -0.0268
76172W        W13666   9.180  28.109  21.897  0.0724  0.1144 -0.1131
76173W        W13667  29.935  20.373  23.452 -0.2134 -0.0695 -0.1663
76174W        W13668  21.372  32.466  20.264  0.1366  0.4319  0.1025
76175W        W13669   5.066   5.639   9.450 -0.0395  0.0259 -0.0379
76176W        W13670   3.385  30.029   4.664  0.3861  0.1055  0.0217
76177W        W13671   1.196  33.867   6.971 -0.0927 -0.1399 -0.2746
76178W        W13672  30.563  10.221  21.099  0.2643 -0.1131 -0.0498
76179W        W13673  31.384  24.541  13.480 -0.0389 -0.0611  0.1596
76180W        W13674  18.357   9.115   6.914 -0.1733 -0.0724  0.0863
76181W        W13675  12.328  22.640  25.370  0.1715 -0.1043 -0.0414
76182W        W13676  34.460  26.907  26.021 -0.0730 -0.1526 -0.1533
76183W        W13677  22.793  25.756   0.822  0.2398 -0.1215 -0.0390
76184W        W13678  14.842  28.822   4.401  0.1131 -0.0368  0.1981
76185W        W13679  24.984  13.479  19.310 -0.1124  0.2597  0.2870
76186W        W13680  11.254   0.632   3.185  0.0524 -0.0182  0.1181
76187W        W13681  28.213  11.053   6.673 -0.1279  0.2991 -0.0425
76188W        W13682  16.079  20.487  11.849  0.4614 -0.0507  0.0321
76189W        W13683   8.143  24.463  23.464  0.0331  0.3681 -0.1167
76190W        W13684  23.411  28.135  20.096  0.0715  0.1747 -0.3567
76191W        W13685  27.247  25.868  11.499  0.2899 -0.3397 -0.1567
76192W        W13686  32.418  15.274   5.913 -0.0105  0.1401  0.0946
76193W        W13687  32.843  10.802   0.277 -0.1397 -0.0886 -0.0617
76194W        W13688  33.037  19.202  12.272 -0.2620  0.5059  0.4420
76195W        W13689   1.054   0.197  21.962 -0.1861  0.0704  0.0676
76196W        W13690  12.297   5.223  23.442 -0.0879  0.0118  0.0666
76197W        W13691  21.356  18.196  22.670 -0.1237  0.0545 -0.0287
76198W        W13692  27.102  32.446  18.168 -0.2099  0.0975 -0.0040
76199W        W13693   2.806  32.281   4.563  0.1077  0.1500 -0.0277
76200W        W13694  31.458   1.557  22.944 -0.1913  0.2175 -0.0291
76201W        W13695  34.287  34.026   1.153  0.0187  0.0031  0.0477
76202W        W13696  35.222  14.671  12.491 -0.1384 -0.2002 -0.2170
76203W        W13697  30.318  25.467  16.512  0.4282  0.2385  0.2094
76204W        W13698  19.182   2.131   7.854  0.2136  0.2927 -0.1113
76205W        W13699  10.946   8.957  20.324 -0.1779 -0.2623 -0.0784
76206W        W13700  18.002  29.341  19.740  0.0306  0.1192 -0.1695
76207W        W13701   9.069  15.252  12.250  0.1778 -0.0871 -0.0664
76208W        W13702   7.013  29.295  24.338 -0.1265 -0.2011  0.5277
76209W        W13703  29.357  14.303  20.948 -0.0750  0.2537  0.0337
76210W        W13704  12.905   1.960   1.525  0.0124 -0.0275  0.1102
76211W        W13705   0.015   1.302   6.362  0.2319  0.3337  0.1968
76212W        W13706  10.791  29.200  11.676  0.1136 -0.0598 -0.3208
76213W        W13707  29.221  33.515  22.043  0.1076  0.0031 -0.0177
76214W        W13708   4.960  14.581   5.091 -0.1672  0.2427  0.1437
76215W        W13709  33.380  12.416  15.015 -0.0883  0.1426 -0.0580
76216W        W13710  17.113  16.527  11.990  0.5289  0.0401 -0.0423
76217W        W13711  11.056  26.402   7.308 -0.1626 -0.0379 -0.2133
76218W        W13712  25.111  18.294  19.026  0.0314  0.0784 -0.0670
76219W        W13713  17.172  12.578   8.724 -0.1493 -0.0739  0.0523
76220W        W13714   2.940   0.094   6.001  0.0390  0.0596 -0.0431
76221W        W13715  28.895  24.809  15.569  0.0139  0.2528  0.1603
76222W        W13716   5.602  13.819   6.425 -0.1488  0.1688  0.0680
76223W        W13717  25.144  21.731  20.432 -0.1656  0.1238  0.0530
76224W        W13718  31.650  11.271  10.033 -0.0324  0.0517 -0.1101
76225W        W13719  17.657  25.236  22.891  0.0414  0.2263 -0.1507
76226W        W13720  10.062  19.762   7.650  0.3415  0.3301 -0.0178
76227W        W13721   4.369  11.848   5.517  0.1373  0.1331  0.2498
76228W        W13722  29.829   5.569  11.798  0.0595 -0.3258  0.0219
76229W        W13723  31.627  13.836  11.245  0.0394 -0.0964  0.1922
76230W        W13724  23.787  17.188  15.045  0.1129 -0.0388  0.0420
76231W        W13725  33.053  32.476  12.651  0.2415  0.0165 -0.1010
76232W        W13726  34.563  35.238   2.099 -0.0955  0.0549 -0.1097
76233W        W13727  24.627  16.493   9.518  0.1481  0.2468 -0.0290
76234W        W13728   9.977   5.471   8.076 -0.1086 -0.1073 -0.0006
76235W        W13729  28.393  31.299  20.160  0.1657  0.0690 -0.1229
76236W        W13730  19.456  28.172   0.838 -0.0182  0.2792 -0.0036
76237W        W13731  11.529   4.908   2.289  0.0439 -0.0257 -0.1116
76238W        W13732  12.969  29.464  24.130  0.1409 -0.3350  0.0362
76239W        W13733   6.213  15.069   5.283  0.1215  0.2218 -0.0428
76240W        W13734  26.365  30.172  23.979 -0.2214  0.0845 -0.0569
76241W        W13735   8.264  27.844  15.254  0.0328  0.0061  0.1369
76242W        W13736  32.518  16.716  24.997  0.1029  0.0649 -0.1688
76243W        W13737  18.621  28.599   6.743 -0.0453 -0.1840  0.0143
76244W        W13738  33.614   4.320   3.149 -0.2328 -0.1495  0.2967
76245W        W13739  32.611   5.464   0.127 -0.0297 -0.2541 -0.0533
76246W        W13740  20.056   8.470  23.212  0.0355  0.1292  0.1067
76247W        W13741  34.202  34.790   1.735  0.0527 -0.0271 -0.0238
76248W        W13742  15.229  12.343   5.260  0.5957 -0.1788  0.1119
76249W        W13743   7.141  12.676   8.430  0.2281 -0.2032 -0.0359
76250W        W13744  26.178   3.491  22.472 -0.1339 -0.4338 -0.3419
76251W        W13745  22.260  22.883  22.493  0.1157  0.4634 -0.1103
76252W        W13746  13.360  18.398  12.366  0.0046  0.1289 -0.1325
76253W        W13747  30.489  14.572   0.513  0.0154  0.0699 -0.0991
76254W        W13748  18.717   7.455  17.543  0.0979 -0.0755 -0.1534
76255W        W13749   3.866  31.038   1.582  0.2055  0.0683 -0.0892
76256W        W13750  28.225  14.845  15.982  0.2901  0.1199  0.2461
76257W        W13751  16.825  16.388   6.407 -0.0514 -0.0308 -0.5419
76258W        W13752  27.983  20.895  13.644  0.0039  0.1028 -0.0035
76259W        W13753  22.238   0.636   1.092  0.0108  0.1322  0.3337
76260W        W13754   9.564  27.692   8.533  0.0539  0.1154  0.0995
76261W        W13755  30.231  28.756  24.374 -0.1648 -0.2129  0.5627
76262W        W13756  15.952  13.612   3.394  0.1105 -0.3521  0.3889
76263W        W13757  29.185   7.161   0.337 -0.0308 -0.0505 -0.4015
76264W        W13758   6.605   7.115  18.105 -0.1630  0.2253 -0.1852
76265W        W13759  25.294  10.066  20.434  0.1499 -0.0835 -0.3792
76266W        W13760  13.233  26.142  23.433  0.2510 -0.0569 -0.0414
76267W        W13761  28.658   7.333  12.223 -0.1180 -0.3941  0.0026
76268W        W13762  25.002  22.292   1.078 -0.0863 -0.1267  0.0457
76269W        W13763  29.080  31.655  24.747  0.0322 -0.1335 -0.1382
76270W        W13764  24.986  12.771   0.072  0.0655  0.1130  0.1389
76271W        W13765  20.894  14.508  23.925  0.2943 -0.0813 -0.4848
76272W        W13766  14.287  32.093  21.719  0.3083  0.1157  0.0694
76273W        W13767  22.121  27.296  14.197  0.2296 -0.0612 -0.1118
76274W        W13768  22.017   4.076  16.927 -0.2373  0.0929 -0.0633
76275W        W13769   4.945   7.723   7.832  0.2146  0.0311 -0.1576
76276W        W13770  22.755  24.416  24.118  0.0909  0.1614  0.0695
76277W        W13771  24.989   5.218  16.310  0.1014 -0.1610 -0.3759
76278W        W13772   8.174   2.256  21.907 -0.0461 -0.0091  0.2047
76279W        W13773  16.176  29.131   4.314  0.2622 -0.0626 -0.0778
76280W        W13774  24.489   5.168  22.828 -0.3309 -0.2306  0.1878
76281W        W13775  33.247   2.308  20.618  0.0701 -0.2945  0.0546
76282W        W13776   3.384  24.700   0.534 -0.0664 -0.2965  0.0333
76283W        W13777   8.590  18.531   0.630  0.0657  0.0617 -0.4286
76284W        W13778  32.476  21.696  25.337  0.0141 -0.0059  0.0928
76285W        W13779  19.644  32.082  17.669 -0.1954  0.0117 -0.4270
76286W        W13780   3.140  33.966  11.110  0.5959  0.1101 -0.1131
76287W        W13781  26.911  31.662  18.158 -0.1292 -0.1041  0.0165
76288W        W13782  28.682  35.071  16.322  0.3355  0.0338  0.1016
76289W        W13783   4.348   7.163   9.494 -0.1262  0.0592 -0.3453
76290W        W13784   5.441   1.511  25.415 -0.2270  0.0390 -0.4071
76291W        W13785  17.417   8.397  26.237  0.0544  0.2922 -0.0447
76292W        W13786  15.925  15.945   4.250 -0.2870 -0.0355 -0.1074
76293W        W13787  34.493  24.788  19.118  0.1350  0.1797  0.1010
76294W        W13788  34.512  34.344   5.247  0.1689  0.0112  0.2048
76295W        W13789   1.422  32.985   6.531  0.0388 -0.0387  0.4366
76296W        W13790  31.817  18.115  10.590 -0.0808  0.0430 -0.4102
76297W        W13791  12.454  20.985   8.909 -0.1767  0.3055 -0.3241
76298W        W13792  10.227  15.377  13.058  0.2878  0.0032  0.1831
76299W        W13793   6.866  30.880  10.800 -0.0292  0.2485  0.0293
76300W        W13794  21.543   6.457  19.510  0.0712  0.0491 -0.3676
76301W        W13795  17.304   6.394  19.594  0.1798  0.1315 -0.0009
76302W        W13796  31.666  29.951  13.661 -0.0597 -0.1044 -0.0701
76303W        W13797  31.329  35.121  20.324 -0.2401 -0.1141 -0.2894
76304W        W13798   6.166  13.078   6.622  0.0422  0.0473 -0.0523
76305W        W13799  11.420  22.354   4.602  0.2397 -0.0979 -0.3464
76306W        W13800   4.875   8.218  17.242  0.2973  0.0365  0.0551
76307W        W13801  13.942  33.207  21.493  0.1944  0.0323  0.0591
76308W        W13802  35.068   6.768  13.847  0.1461  0.2159 -0.1489
76309W        W13803   7.126  34.278   9.503 -0.1712  0.0113 -0.0998
76310W        W13804   4.283  21.699   0.480  0.0765  0.4311 -0.0936
76311W        W13805  10.587   5.598  24.242  0.0594  0.1908  0.1310
76312W        W13806  15.814   6.412  19.687 -0.0868  0.2580  0.0188
76313W        W13807   2.973  15.571   0.966  0.0894 -0.3560 -0.2597
76314W        W13808   8.217  12.938  18.829  0.1949  0.0471  0.0963
76315W        W13809  17.139  12.629   3.874 -0.1274 -0.0487 -0.0247
76316W        W13810  21.186   4.349  20.467 -0.1532 -0.1131 -0.2029
76317W        W13811  18.222  16.079  20.538 -0.0176  0.1256  0.1285
76318W        W13812  15.950  33.073  21.405  0.1791 -0.2005  0.1971
76319W        W13813  11.524   0.756   8.939  0.3674 -0.0931 -0.3106
76320W        W13814   5.119  15.465   0.765  0.2792  0.0487 -0.2696
76321W        W13815  35.036  34.977   2.311 -0.0914  0.0887 -0.1497
76322W        W13816  27.472  24.623  20.148 -0.2493  0.0810  0.1374
76323W        W13817  10.808  30.320  25.473 -0.3301 -0.0458 -0.2433
76324W        W13818  10.122  15.651   3.524  0.2160  0.0295 -0.1447
76325W        W13819  31.393  27.613  11.701 -0.0422 -0.1286 -0.0613
76326W        W13820  17.285  33.091   7.517 -0.0844 -0.3036  0.0899
76327W        W13821  14.059   7.163   1.886 -0.1075  0.0840  0.0247
76328W        W13822  16.764   4.467  21.182  0.1327 -0.1326 -0.1992
76329W        W13823  31.196  18.567  22.258  0.0923 -0.0387  0.2404
76330W        W13824  17.410   3.668  19.764 -0.1857  0.0577  0.1261
76331W        W13825   9.384  20.665  14.127 -0.0187  0.0629  0.1323
76332W        W13826   1.370   2.443  22.855  0.1319  0.2900 -0.1333
76333W        W13827   2.409  17.938  19.949 -0.3791  0.0794 -0.1895
76334W        W13828  10.426  10.502  25.765 -0.2731 -0.0155 -0.1491
76335W        W13829  27.593  19.317  11.504 -0.0604 -0.1889 -0.2128
76336W        W13830  32.571  11.759   8.016 -0.3257 -0.1157 -0.0170
76337W        W13831  31.858  16.849  15.162  0.1077 -0.1930  0.1352
76338W        W13832   8.622   0.204  26.088  0.0139  0.2455  0.0887
76339W        W13833   1.657  26.167   5.699  0.0046  0.2318 -0.1523
76340W        W13834  30.574  24.407  22.499 -0.0383 -0.0109 -0.2391
76341W        W13835   0.512   7.094  17.785  0.2720 -0.3242 -0.3354
76342W        W13836  27.716  15.841   6.160 -0.0882 -0.0938  0.1259
76343W        W13837   0.541  12.111  16.731  0.0940  0.1450 -0.1378
76344W        W13838  33.951  21.712  14.716 -0.2086 -0.1239  0.0752
76345W        W13839   9.695   5.712  22.627  0.0364 -0.0518  0.1987
76346W        W13840  12.403   7.762   2.746 -0.2406 -0.0570  0.1848
76347W        W13841  20.060  11.143  22.297  0.0699  0.0126  0.0602
76348W        W13842  20.660  28.993   4.782 -0.2563  0.0149  0.0240
76349W        W13843   1.196   6.772  19.272 -0.0697  0.0902 -0.0099
76350W        W13844   4.224  18.572  22.991 -0.1995  0.3045  0.3113
76351W        W13845  30.468  22.910   6.227  0.4659 -0.1462 -0.0438
76352W        W13846  32.028   3.160   4.526  0.3350  0.2051  0.1818
76353W        W13847  14.555  13.252   9.816  0.2753 -0.2219 -0.1856
76354W        W13848  27.941  25.865  10.355 -0.1407 -0.1437  0.1430
76355W        W13849  25.754   9.552  21.087  0.0077  0.3449 -0.0919
76356W        W13850   5.478  11.517   5.684  0.0253 -0.1657  0.2190
76357W        W13851  26.844  34.707  22.752 -0.4368  0.5784  0.2537
76358W        W13852  33.782   7.383  22.242  0.1329  0.0816 -0.1961
76359W        W13853  10.279   4.219  21.935  0.0808  0.0940  0.3483
76360W        W13854  15.712   8.624  24.077  0.1509 -0.0382  0.0425
76361W        W13855  27.887  10.667  14.318 -0.1407 -0.0781  0.0386
76362W        W13856  17.779  22.482  11.756 -0.3048 -0.1514  0.1607
76363W        W13857  27.702  11.638  23.677  0.0496  0.5583  0.0622
76364W        W13858   5.661  27.713   0.583  0.1037  0.1057 -0.2131
76365W        W13859   0.659  30.109  21.962 -0.0278  0.0925 -0.0357
76366W        W13860  14.974   0.202   4.573 -0.0102 -0.0467  0.1840
76367W        W13861  17.098  11.877  12.173 -0.3296  0.2355 -0.3299
76368W        W13862  23.150  29.210  20.023  0.1272 -0.1308  0.1524
76369W        W13863  34.179  18.392  11.991 -0.1476 -0.1951 -0.0111
76370W        W13864  15.082  16.413  23.424 -0.0125  0.2337 -0.0565
76371W        W13865  11.616  13.225   7.369 -0.1453  0.2094  0.1045
76372W        W13866   4.151  14.453  20.947 -0.0454 -0.1687  0.3485
76373W        W13867   8.899  26.089  21.876  0.3376 -0.2587  0.0002
76374W        W13868  11.232  25.064  16.189 -0.1390  0.0006  0.0283
76375W        W13869  14.747   7.596  21.029  0.2653  0.3426  0.1240
76376W        W13870  33.834   3.167  21.320  0.1686  0.0655 -0.1629
76377W        W13871  11.971   5.259  20.379  0.1798 -0.1225 -0.2144
76378W        W13872   0.044   6.235  17.447  0.1787 -0.0276  0.1825
76379W        W13873   8.686   7.424   2.423 -0.2349 -0.1379  0.0561
76380W        W13874  24.741  17.313  22.265  0.2711  0.0471 -0.2234
76381W        W13875  30.861   6.522  18.219  0.1644  0.3560  0.1009
76382W        W13876  14.499  17.898   6.860 -0.3525  0.4549  0.3372
76383W        W13877  28.338  14.186  23.332 -0.1607 -0.0675 -0.1372
76384W        W13878  15.238  32.789  25.433  0.1399  0.2248 -0.0434
76385W        W13879  30.047  15.922  17.062  0.0988  0.2443 -0.2376
76386W        W13880  11.604  28.877  11.878 -0.0853  0.0833 -0.2469
76387W        W13881   9.282  27.807   5.587  0.0175  0.1334 -0.0007
76388W        W13882  27.267  17.706  23.666  0.1664  0.2011  0.0613
76389W        W13883  32.450  13.235  12.742  0.0651 -0.4107 -0.1073
76390W        W13884  21.880   5.213  25.108 -0.0694 -0.0023 -0.1914
76391W        W13885   3.909   3.255   5.507 -0.2336 -0.0141  0.0707
76392W        W13886  16.180   2.363  20.223  0.4867 -0.0109 -0.1445
76393W        W13887   5.788  34.177  23.471 -0.0315  0.3200 -0.1634
76394W        W13888  15.221  15.514  20.573 -0.1563  0.1081  0.0875
76395W        W13889  11.368  17.144  22.653 -0.0420  0.1810 -0.1947
76396W        W13890  13.978  14.312  20.626 -0.0345 -0.1184 -0.1403
76397W        W13891   1.516  24.232   4.525  0.3154 -0.1195  0.1602
76398W        W13892   2.758  32.260   7.910 -0.0781 -0.0648  0.1296
76399W        W13893  28.363   5.317   0.472  0.3426 -0.1033  0.0113
76400W        W13894   8.357  35.084  23.459  0.0320 -0.3540 -0.1757
76401W        W13895  14.279  32.211  10.680 -0.0702 -0.0376  0.2010
76402W        W13896  12.802  20.403  16.886 -0.1872 -0.2674 -0.1010
76403W        W13897  25.840   3.981   3.694 -0.1447  0.3485  0.0151
76404W        W13898  16.757  17.943  13.428  0.0129 -0.0119  0.0002
76405W        W13899  16.979  16.203  11.609  0.3410 -0.0595  0.4409
76406W        W13900  31.374   0.728  22.150  0.3134 -0.2949  0.2106
76407W        W13901  23.724  22.433  21.292 -0.0237  0.2030  0.0094
76408W        W13902  28.226   1.094  13.443  0.5369  0.3686  0.0660
76409W        W13903   1.774  27.442   5.823  0.3188  0.3151 -0.0970
76410W        W13904  11.402  33.872   8.337 -0.1137  0.1274  0.0278
76411W        W13905   2.669  12.304  24.613 -0.0439 -0.1574  0.1032
76412W        W13906   2.608   4.588   2.990 -0.4324 -0.1843 -0.2677
76413W        W13907  17.723   2.522   3.006 -0.2543 -0.0833  0.0029
76414W        W13908  23.588   0.110  20.346 -0.1572  0.1278 -0.1204
76415W        W13909   8.281   6.694   6.213 -0.0628 -0.0933 -0.0614
76416W        W13910  17.322  29.744   7.726 -0.2066 -0.2188  0.1867
76417W        W13911  27.108   9.626  19.062 -0.0486 -0.0989 -0.2347
76418W        W13912  28.069  23.364  21.403  0.4324  0.1545  0.0432
76419W        W13913  32.453  22.151  18.454 -0.0345  0.1151  0.2163
76420W        W13914  17.293  27.555  21.354  0.1795 -0.2698 -0.2021
76421W        W13915   3.987  14.686  18.284  0.0165  0.0010 -0.0552
76422W        W13916  28.375   6.122  10.634 -0.0773 -0.3148  0.2369
76423W        W13917  10.927  25.607  13.350 -0.1024  0.3729 -0.0246
76424W        W13918   5.371  12.727   4.449  0.0538  0.1733 -0.0879
76425W        W13919  23.404  35.200   0.078 -0.1108  0.0750  0.1944
76426W        W13920  17.698  33.396   1.849  0.0452 -0.1538  0.2018
76427W        W13921   4.511  13.704  15.121  0.2741  0.3754 -0.3987
76428W        W13922  34.059  14.211  14.165 -0.2801  0.3047 -0.2510
76429W        W13923  31.396  16.082  10.935  0.0208  0.2353  0.1650
76430W        W13924   5.341  23.906  24.566  0.2728 -0.0043 -0.2794
76431W        W13925  24.900  32.003  25.666  0.1666  0.2672  0.0683
76432W        W13926  14.069  29.028  15.408  0.0112  0.0468  0.0483
76433W        W13927  21.071  34.265  23.340  0.0972  0.0059 -0.2128
76434W        W13928  10.195  32.895   1.896  0.0891 -0.3222  0.3625
76435W        W13929   3.691  28.780   5.178 -0.1364  0.3810 -0.0369
76436W        W13930  17.030   7.103   2.591  0.1887  0.0030 -0.1851
76437W        W13931  20.797  28.135  22.096 -0.2757 -0.0987 -0.1650
76438W        W13932   4.133  20.869  23.484  0.0059  0.0736  0.2237
76439W        W13933  13.626  31.071   3.285 -0.5210  0.2134  0.2583
76440W        W13934  28.265  12.941  11.664 -0.0171  0.0332 -0.1035
76441W        W13935  34.736  15.973  26.097 -0.5132  0.1391 -0.1369
76442W        W13936  34.555   3.494  17.549 -0.0884  0.0777 -0.0337
76443W        W13937  18.688   3.714  19.931 -0.1701 -0.2600  0.1233
76444W        W13938  24.807   9.693  12.922 -0.5320  0.0369 -0.1258
76445W        W13939   6.811  35.129   4.768 -0.0716 -0.1236  0.1568
76446W        W13940  32.403   3.083   2.384  0.0494  0.4802  0.0349
76447W        W13941   4.038   9.074  23.479 -0.1124  0.0761  0.1343
76448W        W13942   7.293   0.609  14.301  0.0301 -0.3759 -0.2822
76449W        W13943   5.948   6.459   7.723  0.0479 -0.0274 -0.1575
76450W        W13944  31.433  22.653   9.775  0.5032  0.0113  0.3227
76451W        W13945  16.152  28.684   9.568  0.1623  0.0451  0.0483
76452W        W13946  17.417  11.018  22.556 -0.1509  0.0062 -0.2747
76453W        W13947   9.135  32.898  23.439  0.3677 -0.0233  0.0988
76454W        W13948  18.365  32.885   7.473 -0.0052 -0.2968 -0.1431
76455W        W13949   8.347  27.585  22.098  0.1173 -0.1855 -0.2654
76456W        W13950  28.145  16.470  17.607 -0.1544  0.0122  0.1971
76457W        W13951  11.397  15.664  10.349 -0.0458 -0.1438  0.0471
76458W        W13952  23.002  28.421  21.531  0.2678 -0.4046  0.1858
76459W        W13953  17.047  21.915   8.948  0.0912  0.2016  0.0754
76460W        W13954  22.089  24.601   1.522 -0.2917  0.0622 -0.3727
76461W        W13955   9.487  31.552   3.138 -0.3897 -0.0215  0.2684
76462W        W13956  27.758   5.756   3.411  0.0487  0.0844  0.1760
76463W        W13957  33.582  21.040  19.343 -0.0222 -0.1389  0.0626
76464W        W13958  34.349   1.887  22.718 -0.1411 -0.0765  0.0208
76465W        W13959  17.080   6.535   0.963  0.0734  0.2538  0.0480
76466W        W13960  34.669  27.063  21.331 -0.1188 -0.3992  0.1478
76467W        W13961  12.995  25.498   6.529 -0.0111 -0.0287  0.3365
76468W        W13962  14.082  29.023   2.117  0.1590 -0.3718  0.0111
76469W        W13963   1.586  23.148  17.924  0.2652 -0.1400  0.3118
76470W        W13964   5.865   8.484  21.900  0.3629  0.0575  0.2046
76471W        W13965  22.081  24.973  21.000 -0.1988  0.1396 -0.1991
76472W        W13966   5.203  17.676  24.152 -0.0613 -0.2109  0.1377
76473W        W13967  33.991   9.918   0.990 -0.3545 -0.2950  0.3462
76474W        W13968  31.692   4.687   4.278 -0.0699  0.0009 -0.3410
76475W        W13969  28.186   9.008  11.580  0.3248  0.1686 -0.0322
76476W        W13970   0.648  33.684  17.687  0.1634  0.0682  0.0791
76477W        W13971  22.953  23.411  22.939 -0.2782  0.1328 -0.2095
76478W        W13972  33.530  25.416  17.984 -0.0348  0.4515 -0.2981
76479W        W13973   7.615  16.249   1.969 -0.2584 -0.2224 -0.4176
76480W        W13974  15.815  17.899  25.255 -0.0545 -0.1194  0.1135
76481W        W13975   8.547  33.914   1.299 -0.1288  0.2161  0.3060
76482W        W13976  15.669  28.981   1.156 -0.0660  0.2442 -0.0546
76483W        W13977   8.274  24.671   0.527 -0.1133  0.2893  0.3004
76484W        W13978  13.438  32.059  24.194 -0.1837 -0.3706  0.0127
76485W        W13979  23.118  15.740  20.841  0.3695  0.2085 -0.2900
76486W        W13980  26.435  22.029  13.322 -0.1046 -0.2291 -0.0430
76487W        W13981  20.068  33.683  18.452 -0.2288 -0.2461  0.1094
76488W        W13982  26.799  18.384   8.909 -0.1084 -0.1557 -0.0327
76489W        W13983  23.511  25.989  16.742 -0.1126 -0.0918 -0.1710
76490W        W13984  16.854   3.034  23.755  0.4645  0.1257 -0.3510
76491W        W13985  25.476  10.009  25.479 -0.0322  0.0163  0.1642
76492W        W13986  17.982  16.523   9.640 -0.2294  0.3153  0.1190
76493W        W13987  29.847   5.818   0.397  0.2147  0.1480  0.1471
76494W        W13988  30.658  22.321  11.903 -0.0796  0.0881 -0.0653
76495W        W13989  12.878  34.539   7.113  0.1095 -0.0615  0.2007
76496W        W13990  14.841  12.532   3.710  0.2444  0.2181 -0.0903
76497W        W13991  13.724  12.043  25.732  0.0259 -0.1177 -0.0835
76498W        W13992  23.035  30.790   3.910  0.1049 -0.2288  0.2508
76499W        W13993  14.612   8.357  25.822  0.0018 -0.0242 -0.0143
76500W        W13994  34.527   0.522   3.449  0.0113  0.1777 -0.2534
76501W        W13995  32.860  13.182  15.818 -0.0280 -0.2984 -0.2726
76502W        W13996  22.692  18.228  21.268 -0.0715 -0.1343 -0.1114
76503W        W13997  21.840  35.036  14.587  0.3690 -0.1258 -0.1778
76504W        W13998  11.357   4.889  25.434  0.0649  0.3553  0.1096
76505W        W13999  16.209  14.461   2.356 -0.1451  0.0383 -0.0293
76506W        W14000  25.168  34.835  18.797 -0.0920  0.1923 -0.1421
76507W        W14001  28.905   4.461  15.782  0.2046 -0.0028  0.0646
76508W        W14002  15.913   0.645  19.195  0.0518  0.1700  0.3184
76509W        W14003  20.126   9.665  21.875  0.2838  0.0272  0.1342
76510W        W14004  14.907  31.084   3.335  0.1963  0.1032  0.3324
76511W        W14005  21.546  10.671  25.593 -0.0603  0.2237 -0.0265
76512W        W14006  24.233  26.492  19.414 -0.0911  0.0206 -0.0059
76513W        W14007  28.315  12.877  19.303 -0.0182  0.3177 -0.2475
76514W        W14008  17.892  26.213  21.588  0.1344 -0.0287 -0.2130
76515W        W14009  19.422   4.654   6.000 -0.0886 -0.1484 -0.0873
76516W        W14010  14.820  28.783  10.016 -0.0214  0.0605  0.3318
76517W        W14011  10.101  25.323  22.034  0.0624 -0.1452  0.4862
76518W        W14012  19.375  18.866  21.748  0.2735 -0.2284  0.1396
76519W        W14013  16.953  11.513   7.353  0.1068  0.0303  0.1088
76520W        W14014  20.212  29.399   0.245 -0.2500 -0.1437 -0.0705
76521W        W14015   4.501   6.287  21.201 -0.2227  0.1356 -0.1248
76522W        W14016   5.824  27.895   2.061  0.0280  0.1852  0.1120
76523W        W14017  22.353   1.703  20.797 -0.1326  0.2000  0.1856
76524W        W14018   9.431  34.303   0.699  0.1121  0.2128  0.2065
76525W        W14019  18.269  12.371  21.484  0.1384 -0.1987  0.0774
76526W        W14020   1.039   2.917   7.556 -0.3258 -0.1950 -0.1285
76527W        W14021   0.290   9.173   0.736  0.1410  0.0642  0.2541
76528W        W14022  24.231  16.544  22.512 -0.2025  0.0855  0.0233
76529W        W14023  34.311  34.012  24.193 -0.2009  0.2611 -0.1263
76530W        W14024   2.451  29.514   4.563  0.0789 -0.1860  0.2654
76531W        W14025  27.210   6.725  15.581 -0.0641 -0.1202 -0.0404
76532W        W14026  15.824  30.304   6.281 -0.2501 -0.0976 -0.3211
76533W        W14027  11.561  31.952  22.587  0.2643 -0.1698  0.0802
76534W        W14028  26.177   9.331   8.888 -0.1241 -0.2269  0.0597
76535W        W14029  15.972   0.638  18.564  0.2609  0.0365  0.1965
76536W        W14030  10.512  19.408  23.819 -0.0447  0.0530  0.2126
76537W        W14031   4.063  11.167   6.177  0.0147  0.2364  0.2400
76538W        W14032  29.725  33.065  18.354  0.0283  0.2814 -0.1695
76539W        W14033  28.274  30.751  12.086 -0.3167 -0.4812  0.0875
76540W        W14034  16.711  19.388  22.371  0.0343  0.0604  0.0149
76541W        W14035  18.864   8.370  19.934 -0.3534 -0.0395  0.0292
76542W        W14036  33.596   5.027   4.302  0.0683 -0.0206 -0.0386
76543W        W14037  18.766  21.596  25.510 -0.1507  0.5631 -0.0228
76544W        W14038  27.590  12.793  10.694  0.1371  0.0654 -0.0663
76545W        W14039  17.062   7.204  25.446 -0.1311  0.0594  0.3023
76546W        W14040  13.934  11.152   5.678  0.1829 -0.1109  0.0088
76547W        W14041  18.548  25.174   7.001  0.2972 -0.0929  0.1080
76548W        W14042  34.356  21.810   8.110  0.1248 -0.0484 -0.2208
76549W        W14043   6.928  23.356   1.333  0.0769 -0.0347  0.1534
76550W        W14044  23.665   0.498  24.753  0.2798 -0.1377 -0.0364
76551W        W14045  15.908  13.424   7.480 -0.1727 -0.1069 -0.2010
76552W        W14046  29.541  16.852  17.502  0.0639 -0.3957  0.1419
76553W        W14047   9.095   9.108  21.190 -0.1052  0.1100  0.2043
76554W        W14048   8.190  15.113   6.671  0.1570 -0.1020  0.0957
76555W        W14049  27.852   3.945  23.917 -0.1339 -0.0040 -0.0528
76556W        W14050  34.215  27.448   3.441  0.1506  0.0057  0.0730
76557W        W14051  29.852  16.644   5.132 -0.0031  0.0857 -0.1494
76558W        W14052  27.154  33.667  20.334  0.3784 -0.2364 -0.0013
76559W        W14053   9.507  11.575  19.590  0.0977  0.0099  0.0935
76560W        W14054  23.926  32.108   0.625  0.1240  0.1739  0.2281
76561W        W14055  18.662  28.346  24.983 -0.1529  0.2252 -0.1522
76562W        W14056   1.800   7.380   3.988  0.0126  0.0723 -0.0400
76563W        W14057  13.146  18.889  21.483  0.0381 -0.1624 -0.0265
76564W        W14058   0.180  32.591   0.054 -0.0450  0.0119  0.0796
76565W        W14059  31.079  11.845  14.800  0.1437  0.1204 -0.2483
76566W        W14060  12.799   9.792   6.949  0.0670  0.2745 -0.0044
76567W        W14061  18.963   4.087  23.201 -0.0251  0.0068  0.1903
76568W        W14062  28.766  27.691  24.052 -0.3048 -0.1102 -0.0860
76569W        W14063  10.161   5.699   7.701  0.0479  0.1328 -0.2349
76570W        W14064  32.802  24.626  13.321  0.1452 -0.1344 -0.0618
76571W        W14065  17.892  23.390   6.857 -0.1641 -0.0955 -0.2470
76572W        W14066  17.083   8.671  13.446  0.0828 -0.2745  0.4380
76573W        W14067   6.927  28.631  20.757  0.0201 -0.0253 -0.1133
76574W        W14068   0.721  31.948  25.088 -0.0267 -0.0992  0.4125
76575W        W14069  33.404  21.491  12.750  0.0186 -0.1197  0.2311
76576W        W14070  11.707   7.764  10.399  0.1115  0.0755  0.1203
76577W        W14071   3.687  11.066   6.510 -0.0320  0.0393  0.0281
76578W        W14072  14.391   3.994  25.556 -0.2963  0.0866 -0.1153
76579W        W14073  24.561  20.380  20.745 -0.3285  0.1994  0.1806
76580W        W14074   5.001  31.585  25.986 -0.0487 -0.0713  0.1758
76581W        W14075   6.511  32.799   9.232  0.2767 -0.1836  0.1434
76582W        W14076  28.087  23.809  25.858  0.0353  0.2223 -0.1696
76583W        W14077   5.575  10.048  18.218  0.0172 -0.0085  0.0772
76584W        W14078  24.709  34.963  13.242  0.1444 -0.0494  0.0283
76585W        W14079  21.420   0.838  21.146  0.0052 -0.1562  0.0973
76586W        W14080  24.457  33.891  24.240  0.1691 -0.2616 -0.1797
76587W        W14081   4.369  31.351  23.868 -0.3045 -0.3410 -0.1387
76588W        W14082   7.594   6.924   0.321 -0.3013  0.0860 -0.0536
76589W        W14083  33.378  10.404  14.957 -0.0242 -0.3743 -0.0928
76590W        W14084  11.011  18.416   5.409  0.0506 -0.0844  0.0665
76591W        W14085  18.735  14.502   8.049 -0.1856  0.1841 -0.1519
76592W        W14086   7.752  18.797  22.836 -0.5346 -0.0545 -0.0030
76593W        W14087  28.084   0.364  11.785  0.2023  0.0740 -0.1597
76594W        W14088  28.086  21.645   8.631  0.3753  0.4082  0.1795
76595W        W14089  27.073  30.840  22.395  0.0603  0.0155  0.0001
76596W        W14090  33.836  25.582  16.623 -0.0952 -0.0748  0.3046
76597W        W14091   5.957   5.050  23.594 -0.2764 -0.0223  0.1798
76598W        W14092  28.414  25.519  11.816 -0.0132 -0.2005  0.1466
76599W        W14093  13.996  28.029  24.067  0.1608  0.0483  0.0286
76600W        W14094  33.703   2.740  19.018 -0.1298 -0.1251  0.3608
76601W        W14095   2.681  23.116  22.645 -0.4247  0.0320  0.2417
76602W        W14096  11.895  11.101  20.979  0.0966  0.1192 -0.0031
76603W        W14097  22.690  13.097  17.813 -0.0466 -0.0700  0.0230
76604W        W14098  33.630   2.020  22.989  0.1452  0.0552 -0.0064
76605W        W14099  16.246  22.453   1.187  0.1276 -0.1989 -0.0901
76606W        W14100   4.401  16.649  18.985 -0.1576  0.0533 -0.1524
76607W        W14101   6.426  12.000  16.761 -0.0875 -0.0314 -0.1343
76608W        W14102   2.774   9.018   3.106 -0.0498  0.1725  0.2886
76609W        W14103  32.900  19.079   8.856 -0.2431 -0.0962 -0.1384
76610W        W14104  27.000  34.413   1.239  0.2111  0.0203 -0.0005
76611W        W14105  18.038  13.053   1.442 -0.2515  0.3150  0.0815
76612W        W14106  15.846   8.278   9.512  0.1874 -0.0350 -0.0109
76613W        W14107  25.492  27.805  18.674 -0.1482  0.3169  0.1298
76614W        W14108  19.639  14.109   8.838  0.0354  0.1287  0.3139
76615W        W14109  11.718  17.647   0.090  0.0032 -0.0464  0.0944
76616W        W14110  34.846  20.307   6.858 -0.1120 -0.0410 -0.0811
76617W        W14111  21.012  29.872   6.553 -0.1011  0.0822 -0.4667
76618W        W14112   7.527  34.212   0.611  0.2823  0.0557 -0.3545
76619W        W14113   1.780  20.102  22.656  0.1086  0.2349  0.0993
76620W        W14114   6.357  11.861   3.374 -0.2343 -0.2507 -0.1326
76621W        W14115  31.282  16.013  10.376  0.1290 -0.1718 -0.1410
76622W        W14116  16.491  25.978   1.945  0.3473  0.1577  0.0222
76623W        W14117  13.199   2.600   3.486  0.1714  0.0386 -0.0586
76624W        W14118  16.655   9.093  18.536  0.1727  0.0569  0.1517
76625W        W14119  11.104  27.480   4.450  0.1100  0.3263  0.1048
76626W        W14120   1.947  31.470  21.445 -0.2149 -0.0935 -0.0021
76627W        W14121  34.950  24.821  24.790 -0.0214  0.1123 -0.0421
76628W        W14122  15.547  13.009   0.555  0.1446 -0.2583  0.2175
76629W        W14123  16.427   0.158  25.324 -0.0010 -0.4175 -0.0304
76630W        W14124  23.293  22.220  23.072  0.0361  0.6142  0.1799
76631W        W14125  32.517  31.114   1.943 -0.1662 -0.4592 -0.2615
76632W        W14126   6.651  32.080  24.057 -0.1817  0.0164 -0.0466
76633W        W14127  25.300   7.686  10.886  0.2531 -0.1993 -0.1623
76634W        W14128   8.544   7.081  26.143  0.1785  0.5042  0.1845
76635W        W14129   2.050  33.023   5.451  0.0966  0.2248  0.3296
76636W        W14130  26.298  32.585  20.591  0.2665 -0.0491 -0.2747
76637W        W14131  11.146  22.176   2.360  0.1223 -0.0418 -0.0686
76638W        W14132  30.890  23.260  15.049 -0.2291 -0.2548 -0.0218
76639W        W14133   5.727  28.174   5.331 -0.0390 -0.0740  0.0743
76640W        W14134  21.179  34.131   5.382  0.0318  0.1791 -0.3848
76641W        W14135  35.384  33.800  25.720  0.1253  0.0177 -0.1264
76642W        W14136   4.392  13.342   2.330 -0.2748  0.2922  0.0243
76643W        W14137   0.424  26.631  26.106  0.0484  0.5619 -0.0567
76644W        W14138   0.106   1.054   5.565 -0.1263 -0.4389 -0.5349
76645W        W14139   6.922  33.080   9.364 -0.0218  0.0713 -0.2297
76646W        W14140   2.818   2.755   0.442  0.0303  0.0221 -0.0945
76647W        W14141  16.081   7.323   7.015  0.0979  0.0262 -0.2266
76648W        W14142   0.057  32.262   6.749 -0.0840 -0.2214 -0.0290
76649W        W14143   7.905   4.494  13.471 -0.1052 -0.0559  0.1123
76650W        W14144  31.027  17.685  10.815  0.1413 -0.1958 -0.1224
76651W        W14145  24.721  31.706  18.987  0.1848 -0.2343 -0.1655
76652W        W14146  12.409   0.261  13.933 -0.1840 -0.1316  0.0479
76653W        W14147   5.259   4.298  22.638 -0.1800 -0.0470  0.0539
76654W        W14148   3.868  13.330  23.567  0.2846 -0.2544  0.2636
76655W        W14149  11.755  28.133   9.853 -0.0774 -0.1687 -0.3102
76656W        W14150  29.588  19.591  16.443 -0.0106 -0.0310 -0.1557
76657W        W14151   4.346  14.625  23.081 -0.0711 -0.1521 -0.0409
76658W        W14152   0.051  20.859  19.262 -0.1715  0.0144  0.0385
76659W        W14153  21.404   1.871   1.574  0.0984  0.0671  0.3765
76660W        W14154   0.614   5.661   6.364 -0.3554  0.0215 -0.4031
76661W        W14155   3.370   0.866   5.462  0.0591 -0.1549  0.1216
76662W        W14156   9.400  12.219   8.931 -0.1901 -0.1516  0.1670
76663W        W14157  21.374  25.440  15.745  0.0633 -0.0367  0.0507
76664W        W14158  10.097   2.204   4.333 -0.0156 -0.1460  0.0621
76665W        W14159   3.427  15.218  25.845 -0.2359  0.1158 -0.0695
76666W        W14160   5.987   1.815  19.904 -0.2534  0.0113  0.0024
76667W        W14161   7.666  13.506  11.901  0.0207 -0.0685 -0.1600
76668W        W14162  31.755   7.425  24.196  0.1824 -0.0848  0.2576
76669W        W14163  30.907   4.476  10.296  0.0427 -0.3226  0.1912
76670W        W14164  15.310  32.127  22.669  0.2096 -0.3891 -0.3229
76671W        W14165  11.043   1.657  25.921  0.2996 -0.4044  0.1264
76672W        W14166   7.867   5.276  24.597  0.0556  0.0638 -0.3053
76673W        W14167  26.495  12.645  11.997 -0.1199  0.1780 -0.3336
76674W        W14168   3.737  17.574  21.559 -0.1368  0.1215  0.4846
76675W        W14169  22.359  11.609  18.464 -0.0151 -0.2352 -0.0559
76676W        W14170  10.262  25.193  16.852  0.0897  0.5602  0.0240
76677W        W14171  17.916  22.501  10.966  0.2067  0.3794  0.1223
76678W        W14172  12.943   2.857  23.161  0.2487  0.1971  0.3525
76679W        W14173  26.713  31.100  24.296 -0.2427 -0.0092  0.1914
76680W        W14174  34.950  28.359   5.050 -0.2549  0.1082  0.1086
76681W        W14175  26.047  33.817  14.567  0.1106  0.0741 -0.1759
76682W        W14176  33.862  34.732  17.574  0.3641 -0.3450  0.0013
76683W        W14177  35.337  32.255   5.094 -0.1506  0.0868  0.0247
76684W        W14178  10.270  11.422   1.073 -0.1866  0.0703 -0.2507
76685W        W14179  33.616  32.483  22.245  0.0312 -0.1573  0.2005
76686W        W14180  19.347  24.553   1.400  0.3353 -0.0396 -0.0803
76687W        W14181   9.531  14.239  18.615  0.3238  0.0312  0.2224
76688W        W14182  28.637  12.418  14.259 -0.1323  0.0305 -0.1021
76689W        W14183  34.509  12.869  25.721  0.0423 -0.2604 -0.0355
76690W        W14184  21.273  18.089  21.228 -0.1301  0.0485  0.0003
76691W        W14185  34.754   8.891  12.504 -0.1010 -0.0614 -0.3736
76692W        W14186  11.050  34.988   6.966  0.0870  0.1731  0.0969
76693W        W14187  29.360   2.157  15.310  0.0488 -0.1376 -0.1445
76694W        W14188  14.299  33.219   2.430  0.1963  0.2253 -0.1342
76695W        W14189  17.577   2.693   0.982  0.3502 -0.0471  0.0132
76696W        W14190   7.443  22.095   4.036 -0.4440  0.1290 -0.1926
76697W        W14191  30.040  33.859  13.462 -0.0043  0.1116 -0.1452
76698W        W14192  29.356  24.986  22.616 -0.0472 -0.0927 -0.1859
76699W        W14193   8.096  30.580   9.635 -0.0063 -0.2059 -0.0007
76700W        W14194  19.286  23.720  20.409  0.1448  0.0493 -0.0708
76701W        W14195   6.710  34.555   1.709 -0.0666  0.1112 -0.0926
76702W        W14196  26.001   1.346   6.191 -0.2958 -0.1235  0.1415
76703W        W14197   3.499  27.356   8.668  0.0657 -0.0983 -0.0549
76704W        W14198  27.062  15.801  21.091 -0.5321 -0.0500 -0.0649
76705W        W14199  19.965  12.368  18.470  0.4120  0.4539 -0.1772
76706W        W14200  16.238  17.658  13.710 -0.2809 -0.2513  0.3177
76707W        W14201   3.015  21.574  14.257  0.0536  0.2650  0.4270
76708W        W14202   6.273  29.025   8.678 -0.0221 -0.3159  0.3130
76709W        W14203  19.459   0.487  22.879 -0.0837 -0.4028  0.0237
76710W        W14204   5.653   3.265   4.032 -0.0612 -0.1701  0.0177
76711W        W14205  27.121  10.983  19.854 -0.0122 -0.0204  0.2801
76712W        W14206  10.515  26.194   6.446  0.3274  0.0827  0.0472
76713W        W14207  24.437  33.892  22.142 -0.3721 -0.0915  0.0945
76714W        W14208  30.632  18.535  19.830 -0.3476  0.0495  0.2363
76715W        W14209  27.679  12.871   8.826  0.3614 -0.0921  0.0057
76716W        W14210  29.519   1.443  19.112 -0.1333  0.0379  0.2094
76717W        W14211  29.146  14.625  15.460  0.2611  0.0115 -0.1613
76718W        W14212  35.371  17.889  16.578 -0.1293  0.3895  0.1060
76719W        W14213  27.995  13.387  10.677  0.1158  0.0912 -0.1640
76720W        W14214  33.279  17.962  21.094 -0.4930 -0.2714 -0.2258
76721W        W14215  26.398   0.109  21.438 -0.0918 -0.4106 -0.2926
76722W        W14216  29.590  20.916   5.918  0.0974  0.1813  0.0941
76723W        W14217  16.893   4.969  21.512 -0.1207  0.2980  0.3919
76724W        W14218  24.086  26.565  24.174 -0.0604 -0.0967 -0.3267
76725W        W14219   5.422  34.161  26.219  0.2581  0.2054 -0.1821
76726W        W14220   9.823  24.592  16.210 -0.0876  0.2411 -0.2496
76727W        W14221  23.232  17.220  21.291  0.0402 -0.3400 -0.0038
76728W        W14222  25.841  27.407  25.790 -0.0047 -0.0583  0.3021
76729W        W14223  26.431  20.914  21.110  0.0809  0.0715  0.2520
76730W        W14224  14.829  28.631  15.630  0.1428  0.0513  0.1732
76731W        W14225  30.723  11.894  13.521  0.1237 -0.0393  0.0050
76732W        W14226   8.328  15.516   5.515 -0.0671  0.3298 -0.1148
76733W        W14227   6.808  18.325  21.244 -0.2433 -0.0588 -0.0103
76734W        W14228  13.374  10.156  22.131 -0.3993 -0.1968 -0.1831
76735W        W14229  24.098   5.967  12.553 -0.1729 -0.1702 -0.0635
76736W        W14230  27.407  23.141  11.994 -0.2840  0.2963 -0.0311
76737W        W14231  13.879  34.394   9.722 -0.0436 -0.4049 -0.2678
76738W        W14232  21.080  31.767   0.239  0.2428  0.2138 -0.2079
76739W        W14233   8.175  29.609  21.407  0.3504  0.0767 -0.2089
76740W        W14234  25.865  34.077  11.755 -0.5164 -0.2065  0.0757
76741W        W14235  11.169   3.135  21.519 -0.5272  0.0989 -0.1632
76742W        W14236  21.761  28.022  13.749  0.1122 -0.0620 -0.0578
76743W        W14237  19.054  30.344  18.131  0.0664  0.1944 -0.0404
76744W        W14238  22.514  16.723  17.179  0.1782  0.3456 -0.0398
76745W        W14239  28.454  27.128  22.874  0.2868  0.1102  0.0718
76746W        W14240   4.518  11.229  24.286  0.1884  0.0930 -0.0434
76747W        W14241  21.398   3.143  20.718  0.0986  0.2030 -0.1263
76748W        W14242  12.893  32.313   9.322 -0.1479 -0.1287  0.0464
76749W        W14243  24.025  28.647  13.191 -0.0903 -0.1548  0.0116
76750W        W14244  21.988   1.016  16.250  0.2229 -0.3077  0.0732
76751W        W14245  22.465  14.918   1.439 -0.0056 -0.2689  0.0501
76752W        W14246   6.190   0.551  24.146  0.1519 -0.0975  0.0505
76753W        W14247  29.838   3.970  23.858 -0.2527 -0.0100 -0.0144
76754W        W14248   8.678  17.297   0.211  0.0823 -0.0026 -0.0309
76755W        W14249  31.491  14.020   8.621 -0.0374 -0.1617 -0.1771
76756W        W14250  22.709  12.365  23.446 -0.0378  0.0741  0.1145
76757W        W14251   0.154  11.281  22.378 -0.0742  0.1324  0.1339
76758W        W14252   4.257   4.541   6.958 -0.0207  0.0271  0.0284
76759W        W14253   4.284  16.304  20.221  0.1147 -0.1105 -0.0282
76760W        W14254  19.067  31.802  20.955 -0.3351  0.1218 -0.0964
76761W        W14255   4.178  33.724   4.666 -0.1113  0.2360  0.2690
76762W        W14256  11.418  22.764   6.248 -0.0568  0.0093  0.0718
76763W        W14257  27.752  29.568  13.042 -0.0532 -0.3264  0.0059
76764W        W14258  16.686  13.749  22.773 -0.0476 -0.1143 -0.3209
76765W        W14259  20.900  19.972  24.160 -0.0663 -0.1155  0.1282
76766W        W14260  25.106  34.323  14.712 -0.0013 -0.2354  0.2559
76767W        W14261  25.493  34.760   1.519 -0.0797 -0.2508 -0.1407
76768W        W14262  34.157  12.021   0.253  0.0182  0.1367 -0.3154
76769W        W14263  30.672  22.376   8.562  0.3012  0.0723  0.2497
76770W        W14264  23.135  16.823  15.976 -0.1557 -0.1382 -0.1279
76771W        W14265  31.424  30.611  16.787 -0.1072 -0.0682  0.1921
76772W        W14266  29.949   3.607   2.528 -0.0672 -0.0848 -0.1090
76773W        W14267  27.324  20.693   5.364  0.2697 -0.0172  0.1836
76774W        W14268  35.356  12.413  17.106  0.0092  0.2021  0.0027
76775W        W14269  12.878  19.815   7.826  0.2369 -0.0807  0.1400
76776W        W14270   4.021  26.595   9.054 -0.3307 -0.0232  0.1004
76777W        W14271  20.273  16.478  24.570 -0.2546 -0.1021  0.1826
76778W        W14272  16.558  13.677  22.122 -0.0518 -0.4180 -0.0856
76779W        W14273  14.979  14.768   9.933  0.1913  0.0634  0.3462
76780W        W14274   3.913   6.221  24.178 -0.3127 -0.0956  0.1034
76781W        W14275   0.862   0.136  26.075  0.0615  0.0434 -0.2191
76782W        W14276  27.900  23.625  14.730 -0.0293 -0.0358  0.1509
76783W        W14277  29.771  15.864  20.264 -0.1683 -0.0470  0.1076
76784W        W14278  14.230  30.092  13.636  0.0266  0.2792 -0.3015
76785W        W14279   9.200   2.002   7.984 -0.4240 -0.1490  0.0174
76786W        W14280   6.881   6.777   5.260  0.1483 -0.0345  0.0722
76787W        W14281   1.314   7.014  25.392 -0.0150 -0.0755 -0.0030
76788W        W14282  14.409  12.562   2.918 -0.0798  0.1542 -0.0455
76789W        W14283  20.850   7.866   7.199 -0.1054 -0.1599  0.3763
76790W        W14284   5.277  13.440   0.737 -0.0964  0.0843  0.0549
76791W        W14285  26.801   1.689  24.908  0.2184 -0.0063  0.2093
76792W        W14286   5.026  29.342   1.041  0.0941  0.1833 -0.0007
76793W        W14287  27.016  33.566  21.257  0.1739  0.1491  0.3919
76794W        W14288   0.848  20.312  20.790 -0.1769 -0.1286  0.1192
76795W        W14289  32.579  30.993  25.506  0.3783  0.1574 -0.3177
76796W        W14290   7.921  22.360  24.010  0.1039  0.0248  0.0242
76797W        W14291  30.277  11.915  18.552  0.1583  0.0644 -0.2712
76798W        W14292  19.815  15.545   3.681  0.2644 -0.0337  0.0308
76799W        W14293   6.926   9.154  10.550 -0.0820  0.1225 -0.2695
76800W        W14294  16.567  11.725  10.888 -0.0134  0.0915 -0.1524
76801W        W14295   1.560  26.059   1.227  0.0311 -0.1161  0.3390
76802W        W14296   9.394   3.119  26.049 -0.2320  0.4376  0.1268
76803W        W14297  21.591  33.836  25.180 -0.0262  0.1256 -0.1469
76804W        W14298  14.834  22.626   0.373 -0.0492  0.2605 -0.0932
76805W        W14299  19.825  21.167  20.917  0.2418 -0.1008  0.3088
76806W        W14300   1.960   1.611  19.542 -0.2775 -0.1951  0.4093
76807W        W14301   1.974   8.847   5.100 -0.0826  0.0235 -0.2372
76808W        W14302   6.564   1.926   3.214 -0.4397 -0.2525 -0.0991
76809W        W14303   8.363  34.801   6.387  0.2101 -0.2797 -0.5604
76810W        W14304  13.356  28.324  15.738 -0.0405 -0.0442 -0.2027
76811W        W14305   1.430   5.727  19.034 -0.2688  0.1073  0.4286
76812W        W14306   6.651  16.480   3.847 -0.2332 -0.3091 -0.0778
76813W        W14307  30.417  27.390  24.817  0.3067  0.4482 -0.0439
76814W        W14308  31.874   6.849  19.517  0.3105  0.1505  0.2113
76815W        W14309  19.236  34.314   6.588 -0.0877 -0.0406  0.2096
76816W        W14310  34.260  22.546  23.036  0.1331  0.0057 -0.1495
76817W        W14311   7.733   4.935   9.982 -0.4659  0.2347 -0.1940
76818W        W14312  15.850  19.538  23.831 -0.2091  0.0962  0.0105
76819W        W14313  31.136  26.777  15.841  0.0410 -0.4826  0.1498
76820W        W14314   0.724  21.026  12.917 -0.2428 -0.2394  0.1596
76821W        W14315  20.567  19.386   2.607 -0.0221  0.0013 -0.1734
76822W        W14316  11.940  31.029   2.444  0.3112  0.0757 -0.0581
76823W        W14317  16.595  22.813   4.120 -0.0526  0.1260 -0.1178
76824W        W14318  24.660  22.669  11.954  0.3544  0.0626  0.1505
76825W        W14319  15.761  18.487   2.559  0.1140  0.0859  0.0766
76826W        W14320   7.378   3.104  21.490 -0.0850 -0.1546 -0.0118
76827W        W14321  13.486   3.921  21.643  0.2168 -0.3872 -0.3187
76828W        W14322  22.099   4.182  17.576 -0.1124  0.2957 -0.1836
76829W        W14323  25.904  18.743  13.679  0.0518 -0.1557 -0.4198
76830W        W14324  19.392  33.078   2.456  0.0351  0.1796 -0.0309
76831W        W14325  14.179  34.860   0.127  0.0893 -0.0552 -0.0746
76832W        W14326   5.441   4.334   2.160 -0.2860  0.1357  0.2063
76833W        W14327  32.376  25.941  17.510 -0.1356  0.3814  0.2257
76834W        W14328  20.035  35.061   4.876 -0.2780  0.3237  0.0094
76835W        W14329   1.157   7.824  23.051  0.1121 -0.1432  0.5458
76836W        W14330  13.189   9.869  23.126  0.4474 -0.0523 -0.5421
76837W        W14331   2.816  28.552   4.699  0.2196  0.1458  0.2344
76838W        W14332   0.062  14.088  25.020 -0.0977 -0.1278 -0.0011
76839W        W14333   2.753  24.476   4.446  0.2322 -0.1503  0.2372
76840W        W14334  33.468  29.281  17.225  0.1140  0.2170 -0.0361
76841W        W14335  26.287   0.360  23.445 -0.0620  0.0851 -0.1666
76842W        W14336  23.763  12.518  23.026 -0.1360  0.0034 -0.2295
76843W        W14337  19.620  28.074  22.942 -0.0745  0.0350 -0.0387
76844W        W14338  29.136  10.080  12.585  0.3608 -0.0019 -0.1285
76845W        W14339   0.806  19.777  12.531 -0.1019 -0.2204  0.5446
76846W        W14340  14.806   7.891  25.647 -0.1243 -0.1508 -0.0704
76847W        W14341  14.523  15.573   5.362 -0.1356 -0.0820  0.0097
76848W        W14342  29.229  32.508  22.807 -0.2240  0.0859 -0.2646
76849W        W14343   9.303  13.189   6.337  0.0290  0.0494  0.0208
76850W        W14344  15.627  11.459   3.106 -0.4894 -0.3823 -0.2950
76851W        W14345  18.364  23.818   8.896  0.0300  0.1248  0.1238
76852W        W14346  30.725   2.699  15.683  0.1817 -0.0736  0.0019
76853W        W14347   0.891  30.027   7.376 -0.1194 -0.3676  0.0451
76854W        W14348  21.348   0.497   5.371 -0.2191 -0.1091 -0.0758
76855W        W14349  14.625  33.795   2.311 -0.1539 -0.1460  0.0465
76856W        W14350   4.795  33.806  10.167 -0.1421  0.0532 -0.2012
76857W        W14351  10.657  30.194   3.098 -0.0516  0.2081  0.0388
76858W        W14352   4.914  11.310   8.543 -0.1050  0.2701 -0.0173
76859W        W14353  33.150  19.538  18.176  0.0692  0.1236 -0.2398
76860W        W14354  32.565  11.202  19.208 -0.2310  0.1178  0.1247
76861W        W14355  16.102  25.548  14.217 -0.2857 -0.4528  0.4394
76862W        W14356   7.351  12.260   8.551  0.0389 -0.0311  0.3312
76863W        W14357  18.724  32.842   7.854  0.0614 -0.5879 -0.3363
76864W        W14358  11.505  24.571   1.966  0.1147  0.0885 -0.4140
76865W        W14359   8.011   0.946   5.496 -0.1462  0.3101  0.0247
76866W        W14360  16.668   2.096  21.350  0.1253 -0.3441 -0.5505
76867W        W14361  31.864  23.775  12.786  0.1940 -0.0050 -0.3230
76868W        W14362  25.385   7.378  17.414 -0.0002 -0.0652  0.0322
76869W        W14363   6.184  32.785   1.871  0.1049 -0.3756  0.2515
76870W        W14364  26.073  14.204  19.799  0.0124 -0.1635 -0.0517
76871W        W14365   5.279   2.080   5.618 -0.2520 -0.1021  0.2664
76872W        W14366  29.728   1.679  21.305 -0.0541  0.3851 -0.0287
76873W        W14367  21.166  32.998  20.375  0.1968  0.4464  0.1842
76874W        W14368  19.596   6.416  24.950  0.0604  0.0665 -0.1935
76875W        W14369  10.265  14.788  25.303 -0.4390  0.0514 -0.0240
76876W        W14370   7.271  13.567  19.139 -0.2683  0.0162 -0.1012
76877W        W14371  10.343  19.143   8.891  0.2104 -0.0517 -0.0805
76878W        W14372   0.052  17.185  18.432  0.0917 -0.0182 -0.1474
76879W        W14373   9.866  31.671   6.700 -0.1174 -0.2525 -0.0145
76880W        W14374  19.518  13.428  19.403 -0.0032  0.0840 -0.2299
76881W        W14375   3.848  29.183  13.416 -0.2745 -0.1248 -0.0157
76882W        W14376  24.339  24.434  14.527 -0.3583  0.0742  0.0202
76883W        W14377   1.801  19.372  11.774 -0.3286 -0.0692 -0.1658
76884W        W14378  33.966  34.657   5.564  0.2766 -0.0810  0.0694
76885W        W14379  34.749  25.437  19.177 -0.0202 -0.0259  0.0079
76886W        W14380  22.924  23.431  23.489  0.1241 -0.0168  0.1639
76887W        W14381  22.835  18.126   1.582  0.0678  0.1158  0.0358
76888W        W14382   1.496   6.092  25.677  0.1137 -0.0898  0.1909
76889W        W14383   6.229   8.733  10.045 -0.1155 -0.0149 -0.0048
76890W        W14384  15.370   1.896   4.368 -0.0709  0.0256  0.0155
76891W        W14385  27.385   4.433  11.774  0.0810  0.0392 -0.1153
76892W        W14386  21.780  33.550   2.855 -0.0265 -0.1090  0.1711
76893W        W14387  25.831  23.871  24.583 -0.0592 -0.2663  0.0242
76894W        W14388   8.953  16.190  24.230 -0.0542  0.0328 -0.0384
76895W        W14389  33.458  21.632  22.089 -0.1359 -0.0063 -0.0234
76896W        W14390  34.848  12.503  14.780 -0.0704 -0.1169  0.0437
76897W        W14391  29.570   0.600  14.378  0.1243 -0.2125  0.0070
76898W        W14392  22.959  29.692   2.323 -0.1453 -0.1773 -0.0231
76899W        W14393  27.429  22.253  19.281  0.2822  0.0578  0.0765
76900W        W14394  25.220  28.712  11.820 -0.0196 -0.0515  0.1016
76901W        W14395  34.730  27.900  20.122  0.0558  0.2348 -0.4218
76902W        W14396   6.162  16.531   8.142 -0.0225 -0.0160 -0.0415
76903W        W14397   2.310  16.702   0.209 -0.2981  0.3411  0.0246
76904W        W14398   2.740   3.462   2.376 -0.0730  0.1410 -0.1518
76905W        W14399  31.903  20.539   7.075 -0.2567 -0.2441 -0.0742
76906W        W14400   2.809  23.692   1.782 -0.0254  0.1420  0.0969
76907W        W14401  20.344  31.844   4.948  0.1077 -0.2918 -0.2856
76908W        W14402  30.674  28.665  17.121 -0.0258 -0.2250 -0.1056
76909W        W14403  16.641   2.088  19.290  0.3088  0.3967 -0.1070
76910W        W14404   8.992  14.191  13.117 -0.2745 -0.3697  0.0269
76911W        W14405  30.789  21.885  16.353  0.0680  0.1195 -0.0362
76912W        W14406  21.600  33.777   1.022  0.0095 -0.1200 -0.1058
76913W        W14407  13.245  14.548   9.740  0.0951 -0.0977  0.0492
76914W        W14408  22.632  20.754  17.033 -0.0669  0.0700  0.3767
76915W        W14409  20.915   8.803   6.000 -0.2479  0.3276  0.1802
76916W        W14410  31.163  12.006  11.757  0.0226  0.0696  0.1199
76917W        W14411  23.953  28.544  21.939  0.0444  0.0116 -0.1814
76918W        W14412  10.516   1.098  13.845 -0.0055 -0.2845 -0.0444
76919W        W14413   9.810  17.886   3.484 -0.1652 -0.3310 -0.3459
76920W        W14414  20.457  26.586  20.223  0.0222 -0.1746 -0.1797
76921W        W14415   3.658   1.962  23.415  0.2510 -0.1402  0.0951
76922W        W14416  13.198  30.739  24.414  0.1822 -0.1682 -0.0416
76923W        W14417   5.061  26.674  14.237 -0.0722 -0.0535  0.0411
76924W        W14418  32.125   6.032  10.318 -0.2048  0.0626  0.0496
76925W        W14419   8.672  14.081  19.999  0.0685 -0.0666 -0.2715
76926W        W14420   9.863   5.458   1.571 -0.1877  0.0159  0.0376
76927W        W14421  25.252  29.856  10.243 -0.3651 -0.3205  0.1333
76928W        W14422  15.017  30.274  12.391  0.2210  0.1585  0.2665
76929W        W14423  26.089  35.140  19.942  0.1879  0.2699  0.0935
76930W        W14424   8.238   3.713   8.806 -0.0010  0.1676 -0.1795
76931W        W14425   4.361   7.222  21.476 -0.1751 -0.1261  0.2967
76932W        W14426  33.370   7.135   0.154  0.0004  0.0116  0.0716
76933W        W14427  16.916   0.744  10.761  0.3211  0.2335 -0.1232
76934W        W14428   9.299   1.452   4.555  0.0147  0.0251  0.1047
76935W        W14429  20.977  25.112   5.046 -0.0372 -0.3310  0.1015
76936W        W14430   7.735   7.746  11.872 -0.0089 -0.1333  0.1822
76937W        W14431  18.598  35.335   7.850 -0.0100  0.2259  0.0503
76938W        W14432  11.768  25.796  25.191  0.0293  0.1773 -0.2904
76939W        W14433  28.740   1.300   5.407  0.1249 -0.2170 -0.1178
76940W        W14434  13.037   5.332   5.692 -0.3215  0.2132  0.0473
76941W        W14435  32.313  20.620   7.377  0.3386  0.1697  0.1707
76942W        W14436  22.800   8.773  25.221  0.0442 -0.1711 -0.0718
76943W        W14437  15.015  25.906  22.165  0.6434 -0.2849 -0.0414
76944W        W14438  17.862  12.714  24.045  0.0601 -0.2483  0.2750
76945W        W14439  21.694  10.003   4.621 -0.0972  0.1073  0.0974
76946W        W14440  13.482   5.056   8.288 -0.1537  0.1553  0.2582
76947W        W14441  25.048  34.718   0.499  0.2278  0.1177  0.3447
76948W        W14442  14.745  32.141  21.497 -0.2278  0.0630  0.3760
76949W        W14443   5.365   5.832  18.013 -0.1827 -0.6381 -0.3990
76950W        W14444   8.393  19.905  25.749 -0.0830 -0.3296 -0.2947
76951W        W14445  25.304  34.201   2.324 -0.4142 -0.2477 -0.0163
76952W        W14446  12.157  10.723  22.738  0.0168  0.0013  0.0706
76953W        W14447  31.001  10.455  21.784 -0.1438  0.0081 -0.0190
76954W        W14448  11.860  12.972  11.135  0.1446 -0.3617 -0.1091
76955W        W14449  15.078  31.108  12.024  0.1653 -0.0653  0.1585
76956W        W14450  30.033  33.920  17.315  0.0848  0.0385  0.2193
76957W        W14451   7.106  17.424   4.962 -0.2091 -0.1393 -0.0650
76958W        W14452  22.650  31.195  14.629  0.1418  0.0984  0.2931
76959W        W14453  30.237  16.499   9.806  0.0114  0.2566  0.1819
76960W        W14454  23.689   4.744   5.038 -0.1324  0.0528 -0.1520
76961W        W14455  31.919  21.188  16.951 -0.1558 -0.3596  0.0278
76962W        W14456  20.616  17.102   5.656 -0.0016  0.3571 -0.1133
76963W        W14457  21.461  29.410  22.701  0.0106  0.2401 -0.4736
76964W        W14458  33.829  24.247  18.698 -0.2368  0.2434  0.2694
76965W        W14459  30.411   7.629  13.494 -0.2105 -0.0842  0.0692
76966W        W14460  15.309   9.446   1.828 -0.0516 -0.1986  0.0729
76967W        W14461  16.354  16.634  26.109 -0.0454 -0.3111  0.0165
76968W        W14462  28.683  35.072  14.017  0.1067 -0.0542 -0.0761
76969W        W14463  20.783  33.305  18.054  0.0078 -0.1885  0.1259
76970W        W14464  14.434   5.959   4.058  0.2114 -0.0622 -0.4427
76971W        W14465   6.376  19.255  25.250 -0.3799  0.1489 -0.1712
76972W        W14466  27.128  26.694  23.365  0.1794 -0.2730 -0.0306
76973W        W14467   7.543  10.956   5.421  0.0979  0.0684 -0.1995
76974W        W14468   1.297  20.387  13.610 -0.0214 -0.0589 -0.0409
76975W        W14469   5.657  15.244   2.606  0.1105  0.1355 -0.1494
76976W        W14470  23.903  10.768  14.883 -0.0985 -0.1195  0.2472
76977W        W14471  26.815  27.073  15.585 -0.0755  0.2063  0.0015
76978W        W14472  20.145  17.109   4.724  0.1180  0.0164 -0.0681
76979W        W14473  32.070  27.074  13.734 -0.0205 -0.3287  0.1330
76980W        W14474  20.876   3.057  16.295  0.1712  0.1755  0.0597
76981W        W14475  23.335  29.803  23.876 -0.0599 -0.2818  0.1203
76982W        W14476  23.069   7.326   3.881 -0.2017 -0.0021  0.2033
76983W        W14477  23.301  31.037  14.178 -0.1297  0.0432  0.1179
76984W        W14478  19.359  26.567   6.928  0.1785  0.1259 -0.0063
76985W        W14479  32.469  10.222  22.776 -0.1234 -0.1716  0.2796
76986W        W14480  34.791   7.067  18.504 -0.1471  0.1600  0.2682
76987W        W14481   7.831  18.080  20.872 -0.1244 -0.0650 -0.0179
76988W        W14482  19.314  17.757  20.934  0.1013 -0.1901 -0.1715
76989W        W14483   0.182  23.033  26.111 -0.0378 -0.1305  0.1085
76990W        W14484  30.943  29.385  24.612 -0.1516  0.0015  0.1322
76991W        W14485  34.118  10.223   0.119  0.1331  0.1656  0.1670
76992W        W14486  24.256  29.509  24.277 -0.1045 -0.2138 -0.2716
76993W        W14487  17.960   4.737  21.852  0.1920  0.0278 -0.0643
76994W        W14488  15.612  25.475  11.374 -0.1071 -0.1561 -0.2836
76995W        W14489  34.577  29.324   7.020  0.1583  0.0355  0.0903
76996W        W14490  28.199   2.744  19.520 -0.1470 -0.0013  0.2802
76997W        W14491  13.226  28.539  23.946 -0.0123 -0.1233 -0.3678
76998W        W14492  22.746   9.871  21.280  0.3206 -0.2454 -0.0267
76999W        W14493  11.953   2.452   8.040 -0.1925  0.0026 -0.2599
77000W        W14494  32.506  15.678  13.544 -0.1071 -0.0689 -0.0288
77001W        W14495   7.281  35.207  23.087 -0.2416 -0.1875 -0.1266
77002W        W14496  10.706   5.706  11.269  0.1541  0.0180  0.2383
77003W        W14497  34.220  21.818  24.115 -0.0228 -0.1073 -0.1362
77004W        W14498  17.759  10.203   9.382 -0.0850 -0.1887  0.0829
77005W        W14499  27.229  27.873  19.847  0.0512 -0.1170 -0.1202
77006W        W14500  32.863  31.988  16.227  0.1700  0.0783 -0.3573
77007W        W14501  14.231  27.262  15.768  0.1024 -0.2368  0.0244
77008W        W14502   6.744  19.570  24.069 -0.0306  0.1394 -0.0209
77009W        W14503  31.200  16.496  10.289  0.0092 -0.2874 -0.1304
77010W        W14504  19.428   1.868  24.143  0.1210 -0.0301 -0.0552
77011W        W14505  34.930   5.106  15.588 -0.3673 -0.2792  0.0919
77012W        W14506  30.224  31.341   4.053 -0.0189  0.0765 -0.1454
77013W        W14507  18.295  27.173   9.495  0.1415  0.2068 -0.3925
77014W        W14508  18.658  12.191  26.150 -0.0206 -0.0736  0.0559
77015W        W14509  11.661  28.479   4.471 -0.4439  0.1312 -0.2335
77016W        W14510  28.731  30.102  19.551 -0.2961  0.1246  0.0025
77017W        W14511  34.048   2.421   5.509  0.1446  0.1590  0.3897
77018W        W14512  26.487   4.833  11.808  0.0603  0.0164  0.1608
77019W        W14513  33.840  29.293  23.161  0.0468  0.0916 -0.0867
77020W        W14514  12.418  17.044  26.010 -0.1030  0.3301  0.0621
77021W        W14515   4.773   6.498   6.829  0.1886 -0.0652 -0.0759
77022W        W14516  12.825  32.905   9.978  0.1864  0.1417  0.1405
77023W        W14517   3.878   0.310  23.927 -0.2509 -0.0364 -0.1898
77024W        W14518  10.677  29.941   2.245  0.0087  0.2040 -0.1872
77025W        W14519  27.380  18.760  24.180  0.2418 -0.2023  0.0664
77026W        W14520  10.452  14.746  22.393  0.2516  0.0851  0.0684
77027W        W14521  28.837  24.484  20.797  0.0035 -0.0567 -0.2206
77028W        W14522  11.691  31.040   6.418  0.0942  0.1381 -0.0421
77029W        W14523  27.020  29.224  14.650 -0.2840 -0.1641  0.1599
77030W        W14524  27.052  26.649  11.571  0.1808  0.1062  0.1456
77031W        W14525  18.226  16.267  12.217  0.2657  0.1864  0.0501
77032W        W14526  33.258  27.291   2.036 -0.2734 -0.1886  0.1360
77033W        W14527  10.539  28.210   5.516  0.1395  0.1004 -0.3940
77034W        W14528  10.484  32.892  16.042  0.1704 -0.1174 -0.0001
77035W        W14529  29.288   8.408  15.061  0.1111  0.4537  0.0077
77036W        W14530  30.365  24.524  15.584 -0.2239 -0.0542  0.0816
77037W        W14531  11.153  28.434  14.694 -0.1013 -0.0286  0.2431
77038W        W14532  21.658  30.033  14.324  0.3318  0.0700  0.0664
77039W        W14533  25.351   3.277  13.849 -0.0523  0.1358  0.0068
77040W        W14534  19.334  23.824  22.222 -0.2448 -0.0213  0.1438
77041W        W14535  24.917   6.025  17.865  0.0817  0.4622  0.1023
77042W        W14536   5.771  11.124   5.633 -0.1047  0.0194  0.2470
77043W        W14537  23.196  34.861  16.286 -0.0236  0.1187  0.2815
77044W        W14538  25.491  34.118  18.330  0.0641  0.0183  0.1345
77045W        W14539  15.792  24.455  10.423  0.0147 -0.2756 -0.0762
77046W        W14540   8.844  31.708   5.267  0.1499 -0.0157  0.3774
77047W        W14541  15.505   1.142  24.411  0.1316  0.0298 -0.0099
77048W        W14542  14.181  20.582   4.119  0.0700 -0.0680 -0.3367
77049W        W14543   7.964  21.788  23.375 -0.0402  0.2544 -0.2478
77050W        W14544   5.800  32.471   7.658  0.2358  0.0781  0.1091
77051W        W14545  27.830  31.896  22.191  0.1246  0.1030  0.0145
77052W        W14546   6.901  33.171   5.309 -0.0170  0.0840 -0.0435
77053W        W14547   6.381  25.567  24.414 -0.1641  0.0963 -0.0667
77054W        W14548  16.734  19.087   4.490 -0.1203 -0.4667 -0.0929
77055W        W14549  15.763  20.753  20.854 -0.0272 -0.0683  0.0538
77056W        W14550   8.646  34.755  21.271  0.1499 -0.2053 -0.1503
77057W        W14551   0.416  16.042  12.496  0.0739  0.0934  0.0151
77058W        W14552   5.581  28.398   6.726 -0.0895 -0.1529 -0.1123
77059W        W14553  26.055  30.953  21.166  0.0136  0.2228  0.1333
77060W        W14554   3.137  25.581   6.836 -0.2627 -0.1045 -0.2026
77061W        W14555  30.082  20.492  12.291  0.5463  0.1895  0.0678
77062W        W14556  18.053  25.806   2.421 -0.0569  0.2866 -0.0751
77063W        W14557   9.227  34.492   8.001 -0.1107  0.0534  0.0497
77064W        W14558  28.144  32.246  20.958 -0.0669 -0.1452 -0.0165
77065W        W14559  13.180  31.111  13.605  0.2483  0.2239 -0.0183
77066W        W14560  29.973  15.935  21.748 -0.2358 -0.0904  0.0516
77067W        W14561  25.036  24.389  16.016  0.0106 -0.0621  0.4627
77068W        W14562  21.076   1.544   6.806 -0.0119  0.1310 -0.3661
77069W        W14563   8.687   0.106   3.503  0.0975 -0.3044 -0.4235
77070W        W14564  19.490   5.517  17.894  0.0444  0.3605  0.0087
77071W        W14565   9.536  29.664  23.736  0.2963  0.0180 -0.0363
77072W        W14566  32.303  11.445   8.309  0.2453 -0.2880 -0.0146
77073W        W14567  35.220  23.271  16.458 -0.2961  0.1656  0.2947
77074W        W14568  13.271  26.037  14.890 -0.0287  0.0983  0.3118
77075W        W14569  18.650  11.837   7.114 -0.2585 -0.1680 -0.1012
77076W        W14570   8.810  30.871   3.285 -0.0418  0.3323  0.0325
77077W        W14571  16.957  11.706  21.612 -0.2984 -0.1874  0.1896
77078W        W14572  19.554  10.184   8.024  0.0201  0.0872 -0.1373
77079W        W14573  27.100  10.295  21.160 -0.2711  0.0247 -0.1596
77080W        W14574   4.931   2.015  21.396 -0.0679  0.1319 -0.0656
77081W        W14575  28.322  32.522  22.042 -0.0101  0.0231  0.2253
77082W        W14576   6.165   8.546   3.735 -0.0144  0.0713  0.1285
77083W        W14577  26.280   2.280  15.619  0.0436 -0.1221  0.1904
77084W        W14578  16.326  17.019  21.950 -0.0896 -0.0242 -0.1443
77085W        W14579  15.416  23.618  11.240 -0.0287 -0.0376 -0.0609
77086W        W14580  22.176   3.541  23.437 -0.0669 -0.0352 -0.1804
77087W        W14581  17.123  31.840  21.177  0.0376 -0.1291  0.3171
77088W        W14582  34.936   8.920  24.241 -0.0506 -0.0173  0.0673
77089W        W14583  29.512  23.481  19.988  0.2263  0.0261  0.3420
77090W        W14584  13.695   2.037  12.502 -0.0213  0.0249  0.1112
77091W        W14585  25.777   3.117  15.750  0.0795 -0.1181  0.1474
77092W        W14586   6.388  35.042  11.214 -0.1741 -0.2048 -0.1939
77093W        W14587   1.662  17.250   9.538 -0.4147  0.4286 -0.3641
77094W        W14588  34.274  13.794  24.773  0.2387  0.1223  0.5020
77095W        W14589  29.067  20.649  19.738  0.0543 -0.1973  0.0876
77096W        W14590   7.954  32.379   6.127  0.5149  0.1221  0.1073
77097W        W14591  27.473  15.792   7.604 -0.3063  0.3988  0.1362
77098W        W14592   0.062  10.064  23.799  0.1602 -0.3620 -0.1439
77099W        W14593  13.378  31.759   5.049 -0.2301  0.0426  0.0806
77100W        W14594  26.364  28.337   4.059 -0.2016  0.4343  0.0921
77101W        W14595  15.154  11.208  23.440  0.0858 -0.0728  0.2201
77102W        W14596  18.332  18.517  21.445  0.0957  0.3395  0.0908
77103W        W14597   1.726   4.645  25.628 -0.3056 -0.3482 -0.0960
77104W        W14598  24.229  11.198  14.689  0.4647 -0.1553  0.1284
77105W        W14599  20.963  20.127   6.291  0.2371  0.1045  0.0184
77106W        W14600   3.053  32.457   7.515  0.0739  0.1634  0.0234
77107W        W14601  32.475  32.202   5.210 -0.0164  0.3165 -0.2662
77108W        W14602  17.485  18.096   6.038 -0.0024  0.1988 -0.2616
77109W        W14603  23.761   2.822  18.324  0.0880 -0.4450 -0.1031
77110W        W14604  33.373  16.462  16.980 -0.1130 -0.0541 -0.0378
77111W        W14605  33.795   4.353  17.340 -0.1820 -0.0220 -0.2523
77112W        W14606  31.109  15.211  26.232  0.2436  0.1289 -0.1871
77113W        W14607   7.962  23.003   4.917  0.1814 -0.2526  0.2351
77114W        W14608  29.806  29.682   2.513  0.0314  0.3917 -0.0381
77115W        W14609   5.858  11.782   6.440 -0.0956 -0.1946  0.0300
77116W        W14610  26.655  33.747  23.014  0.1222 -0.2027  0.0743
77117W        W14611  14.083   0.581  20.214  0.2044  0.1160 -0.0284
77118W        W14612  25.063  34.311  21.219  0.1567  0.2706  0.1238
77119W        W14613  14.622   7.598  13.769 -0.0469  0.0345  0.0380
77120W        W14614  23.176  21.365   1.930  0.0504 -0.1273  0.1782
77121W        W14615   5.192   1.686  20.859  0.0872 -0.0763 -0.2885
77122W        W14616  27.713  19.777  25.299  0.3786 -0.4605  0.2411
77123W        W14617   3.669   0.899  18.325  0.0135  0.0697 -0.0588
77124W        W14618  24.996   3.262   2.160  0.1985 -0.0579  0.0417
77125W        W14619  34.944  24.085  12.979  0.3068 -0.0595 -0.0204
77126W        W14620  11.456  12.329  11.420  0.1218  0.2425 -0.2524
77127W        W14621   1.811  16.868  16.185 -0.1006 -0.0261  0.1223
77128W        W14622  34.502   6.405  13.537  0.1214  0.1510  0.0949
77129W        W14623  27.681   9.473  25.935  0.0367  0.4117  0.1583
77130W        W14624   1.742  32.169  21.843  0.0660 -0.2526 -0.0074
77131W        W14625   6.500  18.162  19.899 -0.0567 -0.0982  0.5690
77132W        W14626  32.543  29.572  13.240  0.2742 -0.1197 -0.0857
77133W        W14627   2.370  22.202  22.993  0.2377  0.1011  0.2593
77134W        W14628   9.499  33.910   1.794  0.0259 -0.0260  0.2657
77135W        W14629  27.512  10.723  22.841 -0.0170 -0.2428  0.2060
77136W        W14630  25.624  25.392   0.841 -0.0717  0.1215  0.1445
77137W        W14631   0.962  30.204  18.663 -0.0917 -0.3149  0.0046
77138W        W14632  24.184  16.666  12.482  0.0506 -0.1816  0.1330
77139W        W14633  16.389  27.346   1.592 -0.3296 -0.0144  0.0687
77140W        W14634  30.753  34.488  14.825  0.1637  0.2712  0.1253
77141W        W14635   7.220  25.743   1.986  0.0526 -0.1771  0.1452
77142W        W14636  32.065  29.714  13.280 -0.0467  0.2080  0.1901
77143W        W14637  17.961  30.847  20.059  0.0358 -0.0522  0.1361
77144W        W14638  27.790  24.848  14.443 -0.0156 -0.3316 -0.2053
77145W        W14639  13.627  18.414   3.148 -0.1797 -0.2504  0.0875
77146W        W14640  28.852  16.736   9.868 -0.2449 -0.1038  0.1434
77147W        W14641  18.162  14.180  25.137  0.3407  0.0533 -0.1325
77148W        W14642  11.555   9.422  25.389  0.1500  0.1791  0.0244
77149W        W14643  11.380  32.880   0.455 -0.1364 -0.0422 -0.1338
77150W        W14644  18.291  15.730  25.521 -0.0311 -0.1033  0.2298
77151W        W14645  28.041   7.820  23.139 -0.2267 -0.1994 -0.0102
77152W        W14646  27.425  18.651  18.623  0.0623  0.2331  0.0303
77153W        W14647  27.052   1.414  22.689  0.0111  0.1418  0.1392
77154W        W14648  12.796  15.396   1.603 -0.1527 -0.1435 -0.1691
77155W        W14649  24.362   8.295   0.118 -0.4548  0.1383 -0.2294
77156W        W14650  30.938   2.314  24.674 -0.1803  0.0249 -0.1845
77157W        W14651  24.692  28.860  11.456  0.1539 -0.1809  0.2121
77158W        W14652  33.365  15.560  23.097 -0.0130  0.2920 -0.4201
77159W        W14653   9.174   6.238  13.940  0.0742 -0.0979 -0.2073
77160W        W14654  25.144  26.172  20.220 -0.1004 -0.0390  0.2672
77161W        W14655  28.436  13.811  24.774  0.0305  0.0442 -0.2050
77162W        W14656  28.195  17.300  14.661 -0.1767 -0.3037  0.1485
77163W        W14657  17.446  12.690   3.469  0.0523  0.0956  0.0593
77164W        W14658  30.029  30.896  24.617  0.1090 -0.0072  0.2124
77165W        W14659   3.475  13.769   3.989  0.0920  0.1601  0.0053
77166W        W14660   6.551  17.103  20.679  0.2424 -0.0025 -0.3237
77167W        W14661  23.996  26.998   0.815 -0.2632  0.1341  0.1358
77168W        W14662   3.532   3.602  19.388  0.1527 -0.3679  0.1887
77169W        W14663  29.164  12.918   7.797 -0.3723 -0.0310  0.2765
77170W        W14664   8.273  34.052   5.568  0.1056  0.1753 -0.0158
77171W        W14665  13.219   7.200   6.959  0.1454 -0.2242 -0.0271
77172W        W14666  10.803  26.048   3.638  0.0214 -0.1730  0.3782
77173W        W14667   9.995  12.813   4.831 -0.0067  0.3164  0.3107
77174W        W14668  26.182  34.439  26.128  0.1771 -0.0172  0.1721
77175W        W14669   5.258  23.929  23.275  0.0283 -0.2089 -0.0833
77176W        W14670  34.510  16.960  10.198 -0.0085 -0.1731 -0.3145
77177W        W14671  18.839   5.015  20.267 -0.0106 -0.0251 -0.0682
77178W        W14672  18.865   4.688  20.637  0.0556  0.3097 -0.0506
77179W        W14673   7.478  31.312  10.145  0.0177 -0.2047 -0.1877
77180W        W14674  12.699  31.617  24.471  0.3443  0.0507 -0.0153
77181W        W14675  23.354  18.904  22.827 -0.1445 -0.1756  0.1405
77182W        W14676  10.299  27.915   6.302 -0.0286 -0.0901 -0.1397
77183W        W14677  29.578  32.389  11.373 -0.1141 -0.3551 -0.5688
77184W        W14678  34.354   4.538   3.558 -0.0823  0.0620  0.0895
77185W        W14679  27.474   0.060   2.089 -0.1963 -0.1554  0.0258
77186W        W14680  33.701  17.221  16.542 -0.2277  0.2060 -0.2761
77187W        W14681   3.292   7.092   1.255 -0.2096  0.3513  0.0689
77188W        W14682  23.482  25.214  21.310 -0.3117 -0.3352  0.0407
77189W        W14683   5.883  12.822   4.892  0.1380  0.0682 -0.1851
77190W        W14684  27.247   2.323   2.737  0.3187  0.1848  0.1319
77191W        W14685   8.587  34.504  20.354  0.2999  0.0201  0.0661
77192W        W14686  14.199  24.896   0.195 -0.0559  0.1894  0.1031
77193W        W14687  32.601  14.542  24.587  0.1902 -0.2056  0.2889
77194W        W14688   9.737  33.350  13.622 -0.1424 -0.0122  0.0359
77195W        W14689  24.088  13.747  23.627  0.3036  0.0008  0.1255
77196W        W14690  18.565  23.667   6.226  0.1513  0.2040  0.1827
77197W        W14691   5.643  33.406  24.595 -0.1500 -0.2836  0.1997
77198W        W14692   4.254  20.521  16.227  0.1766 -0.0783 -0.0413
77199W        W14693  26.445   1.944  14.559 -0.2725  0.1162  0.1533
77200W        W14694  15.778  22.652  10.525 -0.1533  0.2114  0.1697
77201W        W14695   9.247  19.560   9.945  0.2662 -0.1577  0.0044
77202W        W14696  22.877  19.413  19.683  0.1654 -0.1044 -0.1351
77203W        W14697  13.184  32.851  12.946  0.0544 -0.0584  0.0482
77204W        W14698   1.183  21.232  20.773 -0.1409 -0.1223 -0.0166
77205W        W14699  16.440  18.310  22.998 -0.0862 -0.0698  0.0923
77206W        W14700  30.572  12.179  18.882 -0.0028  0.1511  0.1034
77207W        W14701  27.726  12.779  22.775 -0.0395 -0.1536 -0.3252
77208W        W14702   8.967  32.781  15.917 -0.1499  0.1416  0.0520
77209W        W14703   7.151  20.547  22.301 -0.1189 -0.0402 -0.0707
77210W        W14704   7.974  33.293   3.034 -0.2307 -0.1912 -0.0970
77211W        W14705  17.934  12.569   0.439 -0.0209 -0.0506  0.1045
77212W        W14706  24.679   8.381  21.437  0.0430  0.0980 -0.0591
77213W        W14707  13.304   9.110   3.696 -0.0744  0.1339 -0.0562
77214W        W14708  25.075   8.627   1.839  0.2221 -0.2261 -0.1667
77215W        W14709  19.293   8.341  10.078  0.3077  0.3133 -0.2968
77216W        W14710  34.308  23.681  22.444 -0.0131  0.0079 -0.0252
77217W        W14711  29.153   0.271   4.534 -0.0187 -0.0214 -0.0102
77218W        W14712  13.285  32.522  24.303  0.2333  0.0564  0.4035
77219W        W14713  32.613  12.860   7.667  0.3595  0.1818  0.1411
77220W        W14714  28.976  23.807  25.362 -0.1123  0.0820  0.1300
77221W        W14715   6.580  10.077  20.469  0.0384  0.0278  0.3884
77222W        W14716  18.261  34.571   6.608 -0.1587 -0.1200 -0.0242
77223W        W14717   3.825  11.710  24.049 -0.0562  0.1389 -0.1725
77224W        W14718  17.206  16.894  12.953 -0.0226 -0.0691 -0.1902
77225W        W14719  12.353  20.924  13.094  0.1827  0.2068 -0.0943
77226W        W14720  13.891  30.403   5.068 -0.3534 -0.0886 -0.1211
77227W        W14721  11.516   1.481  21.488 -0.2143 -0.1762  0.0265
77228W        W14722  14.280  21.623  17.108 -0.0638  0.0763  0.1062
77229W        W14723  25.818  15.779  10.336 -0.0648  0.0534  0.0359
77230W        W14724   9.222   5.188  23.072  0.1663 -0.4121 -0.2536
77231W        W14725  26.095  25.245  22.570 -0.0291  0.2691  0.0470
77232W        W14726  33.354  20.759  24.065  0.0580 -0.0344 -0.2838
77233W        W14727  22.052  26.741  22.840 -0.0482  0.0501 -0.0535
77234W        W14728  18.868  19.897   3.023  0.1291  0.3621 -0.1872
77235W        W14729   6.831  15.661  11.520  0.0013 -0.0730 -0.1419
77236W        W14730   4.512  17.400  26.093  0.2630  0.2193  0.2159
77237W        W14731  25.696  18.315  24.472  0.1335  0.2836 -0.0873
77238W        W14732  14.850   7.501  20.535 -0.1671  0.1975  0.1060
77239W        W14733   4.728  28.990  19.894  0.0568 -0.1545  0.0575
77240W        W14734  26.752  14.760  17.921 -0.1801  0.1159 -0.1314
77241W        W14735   4.698  32.098   1.501  0.1270  0.1605  0.2447
77242W        W14736   1.695   5.179  25.474  0.0502 -0.1988 -0.2035
77243W        W14737   3.467  32.870  25.420 -0.2367 -0.1498 -0.1417
77244W        W14738   1.705   4.195  21.935 -0.1098  0.3970  0.0161
77245W        W14739  30.733  21.947  19.791  0.3721 -0.0792 -0.2986
77246W        W14740  10.180  17.534  10.652  0.2155 -0.0912 -0.0432
77247W        W14741  12.725  25.536  10.408 -0.0661 -0.0950  0.0474
77248W        W14742  19.514  32.080  16.193 -0.0506  0.0747  0.1789
77249W        W14743  27.609   1.171  13.438 -0.2234 -0.2073 -0.1171
77250W        W14744  32.245   5.574  23.082  0.0387 -0.1802  0.1196
77251W        W14745  17.622  28.386   2.167 -0.0549  0.2283 -0.2926
77252W        W14746   6.596   1.950   3.936 -0.0908  0.0368  0.2044
77253W        W14747   6.966   6.988   6.653 -0.2225 -0.0046 -0.4504
77254W        W14748  19.529   3.544   7.937  0.1101 -0.1330  0.1036
77255W        W14749  27.120   4.732  18.235 -0.1132 -0.0711  0.0799
77256W        W14750  30.976  13.947  24.377 -0.2822  0.0105  0.2353
77257W        W14751  33.403  20.880  12.746 -0.0178 -0.0632 -0.1368
77258W        W14752  32.980   1.538  19.452  0.1137 -0.4109  0.0159
77259W        W14753   5.733  23.106  21.728  0.0326 -0.2064  0.1233
77260W        W14754   4.625  32.344   2.720  0.2335 -0.0353  0.2395
77261W        W14755  29.591  25.191  18.536 -0.2111 -0.1838 -0.3311
77262W        W14756  31.016  33.357  18.686  0.0571  0.1788 -0.0686
77263W        W14757   4.562  18.623  20.330  0.0923 -0.1569 -0.0959
77264W        W14758  24.837   9.186  13.059  0.0838 -0.0170 -0.1685
77265W        W14759  10.009  21.601  17.531 -0.3132 -0.0679  0.0725
77266W        W14760  14.958  23.338  12.211 -0.1089 -0.3559 -0.1516
77267W        W14761   8.318  12.900  11.458  0.1300  0.0819 -0.1617
77268W        W14762  30.845  27.813  26.222  0.0365  0.0500  0.3086
77269W        W14763  30.738  25.953  19.200 -0.1710  0.3066  0.0459
77270W        W14764  16.560  28.043   2.257  0.5977  0.2939  0.1840
77271W        W14765  22.586  14.192  14.470 -0.1644 -0.0802  0.2744
77272W        W14766  14.067  32.010   1.508 -0.1581 -0.0005  0.0560
77273W        W14767  10.862  30.299   8.800 -0.1697 -0.3098 -0.4096
77274W        W14768  21.589  15.684  21.737 -0.0021  0.1296 -0.1111
77275W        W14769  16.010  22.445  15.424  0.0720  0.2479 -0.1815
77276W        W14770  27.987  34.532  24.209 -0.0153  0.1654 -0.3103
77277W        W14771  20.732   3.485   3.864 -0.0751 -0.1158 -0.0047
77278W        W14772  22.081   4.138   2.620 -0.0440  0.0992 -0.0981
77279W        W14773  27.183   6.424  20.090  0.2699 -0.0524  0.0222
77280W        W14774   2.023  16.358  26.187  0.0621 -0.0681 -0.1803
77281W        W14775  26.602  20.066  23.868 -0.2401  0.2246  0.1921
77282W        W14776  17.547  22.345  24.852  0.2305  0.0084  0.1464
77283W        W14777   1.644   1.626   2.444 -0.0087  0.3149  0.0555
77284W        W14778  24.482   2.792  20.283  0.0628 -0.0737  0.1759
77285W        W14779   4.689  25.044  22.743 -0.2682  0.0464  0.1877
77286W        W14780  29.293  30.442  26.177 -0.3261 -0.0265  0.3513
77287W        W14781   6.811   6.769  21.868  0.1587 -0.1120  0.2133
77288W        W14782   1.617  32.518  23.233  0.2115  0.0149 -0.0532
77289W        W14783  22.731  13.231  18.387  0.0122 -0.0457 -0.0956
77290W        W14784  33.068  30.517   5.138  0.1393 -0.0358  0.0858
77291W        W14785  16.855  16.279   5.418 -0.1883  0.2521 -0.1290
77292W        W14786   4.526  32.107   6.810  0.0218 -0.0465  0.0255
77293W        W14787   5.150  11.956   0.845  0.1134  0.0134 -0.1742
77294W        W14788  35.335   2.373  18.257  0.1875 -0.1241  0.0534
77295W        W14789  16.141  23.621  22.877  0.0122  0.2506 -0.4356
77296W        W14790   2.584  10.505  24.722  0.3415 -0.4748  0.2439
77297W        W14791  14.359  26.207   0.451 -0.1764 -0.2730  0.0386
77298W        W14792   3.249  32.716  22.295  0.3974  0.2246  0.2464
77299W        W14793  19.307  25.103  20.225 -0.1694 -0.1191 -0.0997
77300W        W14794   5.741  33.241  20.456 -0.2502  0.0863 -0.1817
77301W        W14795  31.195  22.634  13.347  0.2534 -0.0197 -0.0617
77302W        W14796  13.009   1.570   8.347  0.3175  0.1265 -0.2340
77303W        W14797  32.881  14.908   6.045  0.1733  0.0131  0.4916
77304W        W14798  13.226   2.217  11.178 -0.0762 -0.3428  0.0406
77305W        W14799   3.976  31.695  22.432 -0.0874 -0.0438 -0.2403
77306W        W14800   0.505  20.527  25.951 -0.0848 -0.3203  0.0075
77307W        W14801   5.736   3.127   1.961 -0.4213  0.1033 -0.2370
77308W        W14802   7.999  20.453  22.184 -0.0243  0.2211 -0.0670
77309W        W14803  22.362  34.267   5.826 -0.4344 -0.2945  0.0355
77310W        W14804   4.010  17.526  23.622  0.0891  0.1611 -0.1067
77311W        W14805   4.437   4.005   2.931 -0.0199 -0.0650  0.0717
77312W        W14806  30.278  13.028  13.968  0.4720  0.2393  0.0097
77313W        W14807   3.187  13.864  23.128  0.1050 -0.5654 -0.1217
77314W        W14808  33.223  26.398   2.402  0.0500  0.0955 -0.2672
77315W        W14809  20.317  33.786   3.140  0.1476  0.1162  0.2270
77316W        W14810   8.447  28.314   9.612 -0.2529  0.2235  0.1968
77317W        W14811  17.331  16.992   8.493 -0.1060 -0.0493 -0.0085
77318W        W14812  29.466  10.789  23.464 -0.3227  0.2936  0.0813
77319W        W14813   2.075  34.835  24.393 -0.1080  0.1417 -0.1217
77320W        W14814  31.320  21.339  22.694 -0.3084 -0.1536 -0.1572
77321W        W14815  16.625  25.256  24.306  0.4044 -0.0430  0.4252
77322W        W14816   4.408  14.716  25.009  0.0292  0.0181  0.0381
77323W        W14817  24.754  28.037   0.059 -0.0067 -0.2702  0.1893
77324W        W14818  11.551  26.154  12.203 -0.0455  0.3030 -0.2299
77325W        W14819   1.747   6.203  21.083 -0.2495 -0.0867  0.0080
77326W        W14820  21.718  29.390  14.524 -0.1478  0.1740 -0.2542
77327W        W14821  26.344  30.554  23.566  0.2197  0.1459 -0.0247
77328W        W14822   8.269  22.103  25.245  0.1812  0.3348 -0.1594
77329W        W14823   4.173  14.279   2.636  0.2051  0.0623  0.0447
77330W        W14824   4.722  26.633   2.978  0.0589  0.1144 -0.3008
77331W        W14825  10.250  14.256  14.002  0.2838 -0.0387 -0.1325
77332W        W14826   0.523   9.239  14.121  0.1014  0.4085  0.2137
77333W        W14827  31.956  21.567  21.803 -0.5166  0.0707 -0.0712
77334W        W14828   0.739  32.879   7.260  0.0315  0.3474  0.1781
77335W        W14829  10.048   3.157   5.801  0.0242 -0.0670 -0.0628
77336W        W14830  33.799   1.464  14.864  0.2924 -0.0398 -0.2220
77337W        W14831  11.718  33.102  10.089 -0.4457 -0.0507 -0.1844
77338W        W14832  31.208   8.794  12.205 -0.1590  0.2145 -0.1807
77339W        W14833  27.933  13.255  17.029 -0.0966  0.4988  0.1538
77340W        W14834  26.573  34.785  19.152 -0.0591  0.3128  0.0558
77341W        W14835  20.493   0.049   1.928 -0.1349 -0.1773  0.0028
77342W        W14836  16.325   2.934  25.543 -0.0303 -0.2833  0.1351
77343W        W14837  11.988   3.251  19.130  0.1317  0.2184 -0.1651
77344W        W14838  31.683  29.151  15.399 -0.2347  0.0670  0.2764
77345W        W14839  32.617  25.915   0.790 -0.1813 -0.2351 -0.2119
77346W        W14840  30.528  14.973   0.796 -0.0133  0.1012 -0.0660
77347W        W14841   2.151  24.894  20.818  0.0416  0.1111  0.2528
77348W        W14842  26.493  28.917  24.178 -0.0954  0.0885 -0.0843
77349W        W14843  10.562   1.922   5.583  0.3091  0.0322  0.0804
77350W        W14844  25.495  31.329   2.461 -0.2812  0.0389 -0.0847
77351W        W14845  29.825   9.936  25.175  0.0887 -0.2340 -0.0752
77352W        W14846  18.143  30.522   1.246 -0.4922  0.1322 -0.1735
77353W        W14847  19.495   2.181  16.496  0.0044  0.0297 -0.0146
77354W        W14848   3.343  21.281   1.219 -0.1254  0.1826  0.0889
77355W        W14849  16.573  12.904   3.734  0.0700 -0.1021  0.0808
77356W        W14850  13.183  35.320  24.168  0.3013 -0.0421  0.0627
77357W        W14851  21.934  30.188   3.972  0.1411  0.0007 -0.1399
77358W        W14852   4.450  26.922  23.099 -0.3148 -0.1070  0.0314
77359W        W14853  34.460  25.225  20.587  0.1071 -0.0026 -0.1404
77360W        W14854  32.630  15.885   9.636 -0.1361 -0.0600 -0.1056
77361W        W14855  20.833   5.434   0.684 -0.0365 -0.1573  0.2543
77362W        W14856  22.529  16.666  23.028  0.1040 -0.0743  0.0357
77363W        W14857  21.740  14.555  19.253  0.0718 -0.0406  0.2360
77364W        W14858   9.591  30.605  24.955 -0.0298 -0.0365  0.1860
77365W        W14859   8.292  20.896  22.043 -0.0371 -0.4022 -0.3487
77366W        W14860   7.699   2.296  21.078  0.0994  0.3622  0.0891
77367W        W14861  19.032   7.375   7.786  0.1816 -0.1693  0.0716
77368W        W14862  10.668  32.599   9.257  0.0771 -0.1444  0.0108
77369W        W14863  21.124   6.273  21.835 -0.1083  0.2696  0.0108
77370W        W14864  21.519  14.230  17.105 -0.2276 -0.2793 -0.0738
77371W        W14865  12.269   0.747   1.286  0.1336 -0.1226  0.3090
77372W        W14866  26.714  12.818  14.001  0.1129  0.2597  0.1983
77373W        W14867  28.912  34.522   1.731 -0.1005 -0.1190 -0.0775
77374W        W14868   8.148  34.953  24.189 -0.2063 -0.1386  0.1548
77375W        W14869   5.014  16.293   1.413 -0.0969  0.0449  0.0842
77376W        W14870  19.141  21.785   0.266 -0.3380  0.0691  0.2474
77377W        W14871  12.702  11.833   8.572 -0.2051 -0.0214 -0.1344
77378W        W14872  33.970   0.031  19.922  0.3849  0.2790 -0.0768
77379W        W14873  14.329  32.652   7.149  0.2515 -0.1264  0.1012
77380W        W14874  13.652  21.176  21.428  0.0994 -0.1954  0.2211
77381W        W14875  13.956   1.436   3.207 -0.0549  0.1758 -0.2341
77382W        W14876  20.391  14.192  20.574  0.2596  0.3323  0.0772
77383W        W14877  26.041   7.292  16.144  0.0159  0.2267 -0.3523
77384W        W14878  32.814  12.551  13.727  0.1964  0.0155 -0.1426
77385W        W14879   3.927   9.719   6.421  0.0632  0.0271  0.1115
77386W        W14880  29.200  11.521  23.091 -0.2833  0.1073  0.3495
77387W        W14881  31.870  30.172  19.390  0.0051  0.0037  0.1518
77388W        W14882   1.390  33.514  20.679  0.0406 -0.0655  0.1353
77389W        W14883   9.986  32.260   4.241 -0.1049  0.2720  0.0781
77390W        W14884  19.819   5.136  17.204  0.1338  0.0024  0.0433
77391W        W14885  28.218  20.784   7.530 -0.2194 -0.3215  0.0724
77392W        W14886  15.728  32.164   7.179  0.0788  0.2360  0.2110
77393W        W14887  34.030  32.507   7.043 -0.1072  0.0989 -0.1669
77394W        W14888  23.572   1.841  19.496 -0.1535 -0.2726 -0.0464
77395W        W14889   2.367  14.349   0.731 -0.1215 -0.1299 -0.2628
77396W        W14890  12.194  33.139   8.392 -0.1520 -0.0381  0.2373
77397W        W14891  19.173  30.472  20.568  0.1318  0.1518  0.1903
77398W        W14892  18.910  33.314   4.379 -0.1846  0.1080 -0.1670
77399W        W14893  30.948  24.919  13.223  0.0483  0.0991  0.0118
77400W        W14894  31.002  23.705   9.753 -0.0033  0.1723 -0.1705
77401W        W14895   9.961  23.134  25.734 -0.0724  0.1093 -0.3967
77402W        W14896  32.639  25.880  22.286 -0.0194 -0.0231 -0.0989
77403W        W14897  34.884  14.714  13.904 -0.0221  0.0901  0.1226
77404W        W14898   8.598   0.275   4.255 -0.1228 -0.0970  0.0124
77405W        W14899  11.638  10.824   0.285 -0.4110 -0.0911 -0.1152
77406W        W14900   9.392  30.243  11.550 -0.2592 -0.1328  0.1047
77407W        W14901  11.141  11.231   1.724 -0.1492 -0.2120  0.0941
77408W        W14902  32.793  26.661  25.566  0.1639 -0.2653 -0.1554
77409W        W14903   6.955  17.709   3.722 -0.1133 -0.0446  0.1824
77410W        W14904  10.989  34.129   7.636 -0.5005 -0.2256  0.0963
77411W        W14905  11.546  27.559   0.308  0.3033 -0.3359  0.4393
77412W        W14906  25.291   1.245  25.611 -0.0575  0.2200 -0.1931
77413W        W14907   3.550   7.310   8.271 -0.0963  0.0475  0.2150
77414W        W14908  22.506  26.454   4.094 -0.2369  0.1084 -0.2437
77415W        W14909  32.347  34.943  24.873 -0.1307  0.0959  0.1831
77416W        W14910  21.544   8.397  16.668 -0.2381 -0.0268  0.0439
77417W        W14911  26.730  32.616  10.789 -0.4157  0.0107 -0.2211
77418W        W14912  31.520  33.555  25.884  0.0467 -0.1067 -0.1399
77419W        W14913  27.529  32.737  17.765 -0.0192  0.0510 -0.1964
77420W        W14914  11.052  26.671   6.724 -0.0587  0.0899  0.1009
77421W        W14915   1.257  33.291   0.176  0.5355  0.0420 -0.1027
77422W        W14916   0.784  14.689  24.824  0.0085  0.1264  0.0783
77423W        W14917  21.272  27.707   2.792 -0.0854  0.3600  0.2079
77424W        W14918  30.479   3.069  16.005  0.0364 -0.1555  0.2195
77425W        W14919  17.099  26.915   6.871  0.0399  0.2791  0.0067
77426W        W14920  15.903  19.444  24.753  0.0270 -0.2032  0.1335
77427W        W14921  27.753  32.966  23.262  0.0427  0.0252  0.2801
77428W        W14922   9.907  30.703   5.021 -0.0167 -0.1876 -0.1419
77429W        W14923  20.649  29.650  26.236  0.0207 -0.3297  0.2225
77430W        W14924   2.679   4.442  21.281 -0.3595  0.0689 -0.1203
77431W        W14925  12.153  33.674  15.169  0.0970 -0.0148 -0.0229
77432W        W14926  31.824  31.928  21.577  0.1725  0.1222  0.1409
77433W        W14927  16.082  18.285   4.610 -0.1362  0.0619 -0.2478
77434W        W14928  23.572  33.511  24.272  0.1052 -0.0360  0.0588
77435W        W14929  11.320  15.590  10.907  0.0937 -0.1848 -0.1420
77436W        W14930  12.211  35.030  11.939  0.0529 -0.3705 -0.0168
77437W        W14931  25.149  10.305  16.549  0.2523  0.0750  0.0155
77438W        W14932   9.548  21.620  14.194  0.0371  0.1053 -0.2454
77439W        W14933   6.311   4.353   1.853  0.3070  0.0382  0.1558
77440W        W14934   8.702  34.685  10.202  0.0576 -0.2304  0.3791
77441W        W14935  19.925   6.163  24.065 -0.1580  0.0204  0.0364
77442W        W14936  18.797   2.332   4.913 -0.0831 -0.2441  0.0004
77443W        W14937  26.545  16.346  24.162  0.1384 -0.1179  0.1343
77444W        W14938   4.883  21.352  20.239 -0.0318  0.1599 -0.1932
77445W        W14939  33.642   0.280  22.440  0.2398  0.0702 -0.0004
77446W        W14940  30.492  23.335  16.998  0.2218  0.0062 -0.0446
77447W        W14941   7.136   1.649   3.277 -0.1282  0.2349  0.2295
77448W        W14942   8.486  19.512  10.663  0.2232 -0.1654 -0.2628
77449W        W14943  12.997   5.800   4.290 -0.1794 -0.1297  0.0750
77450W        W14944   1.928   2.344  18.497  0.1642 -0.1716  0.0310
77451W        W14945  35.137  23.684  19.781 -0.0684  0.0697 -0.1433
77452W        W14946  25.236  27.245  17.733  0.0192  0.0866 -0.5074
77453W        W14947  33.566  26.745   0.044  0.1095  0.0330 -0.1742
77454W        W14948   4.889  24.937   7.567  0.1044 -0.1591  0.1018
77455W        W14949  16.280   0.402   9.629  0.0411 -0.1519 -0.0667
77456W        W14950   8.326  23.609   9.636 -0.2110 -0.0113  0.3650
77457W        W14951  10.741   7.542   4.335  0.3529 -0.0868  0.0010
77458W        W14952  31.341   2.338  22.288  0.0672 -0.0926  0.1175
77459W        W14953  35.202  12.326  21.101  0.0545  0.0901  0.1934
77460W        W14954  15.449   4.030  18.232  0.0295 -0.2798 -0.0278
77461W        W14955  15.401  10.776  20.753 -0.1441 -0.2205  0.1051
77462W        W14956   0.737  33.124   4.568  0.0708 -0.0076  0.4625
77463W        W14957  15.516  13.947  25.455 -0.1530 -0.2643  0.2236
77464W        W14958  30.293  27.848  17.198 -0.2008  0.2157 -0.1346
77465W        W14959  12.800  25.199  18.090  0.0766 -0.1601  0.2263
77466W        W14960   8.476  18.677   9.434  0.2139 -0.1353 -0.1376
77467W        W14961   5.469  20.688  19.640  0.4272 -0.0800  0.0213
77468W        W14962  21.915   0.197  14.524  0.0370 -0.3254 -0.0751
77469W        W14963   7.096  21.221   9.559 -0.1499  0.1954  0.0894
77470W        W14964  22.564  28.979  13.835 -0.0333 -0.2049 -0.0857
77471W        W14965  28.470   1.852  19.387 -0.1714  0.1773 -0.0230
77472W        W14966  13.644  16.182  23.523  0.1464 -0.0268  0.1026
77473W        W14967   7.982  19.300  10.463  0.1799 -0.1969  0.0151
77474W        W14968  33.776  33.171   3.750  0.1911 -0.1206  0.0879
77475W        W14969  19.608  25.374  25.484  0.1901 -0.0315  0.2594
77476W        W14970  33.471   4.672  15.887 -0.0364  0.0945  0.1636
77477W        W14971  21.965  34.854  16.264 -0.0650 -0.0813 -0.1698
77478W        W14972  10.830  31.736  14.040 -0.1455  0.3343 -0.0090
77479W        W14973   0.070  11.234  19.026 -0.0072  0.0059  0.0893
77480W        W14974  12.986  33.137  14.240 -0.2202  0.1865  0.0210
77481W        W14975  33.749   2.339  16.900 -0.2213  0.2970  0.2896
77482W        W14976  25.214   6.490   0.655 -0.0283 -0.0692  0.0000
77483W        W14977  26.315  28.589  14.240  0.2018  0.2494  0.0290
77484W        W14978  25.730  25.555  19.505 -0.0012 -0.0623 -0.0807
77485W        W14979  27.106  19.626   0.054  0.2466 -0.0286 -0.4728
77486W        W14980   0.993   9.081  18.163 -0.0584 -0.1777 -0.0492
77487W        W14981  24.996  10.336  18.096 -0.0921  0.1361 -0.0058
77488W        W14982   7.218   8.673  11.630 -0.0169  0.2418 -0.3479
77489W        W14983   8.383  32.408   7.546  0.1348  0.2712 -0.0889
77490W        W14984  34.861  15.332   9.670  0.0296 -0.0440 -0.1501
77491W        W14985  35.112   8.281  20.312  0.0970 -0.0035 -0.3059
77492W        W14986  13.642  33.695   7.509 -0.0483  0.3238 -0.1522
77493W        W14987  15.461   0.535  10.905  0.1515  0.3270  0.1849
77494W        W14988  11.203  24.537   0.497 -0.3604 -0.0745 -0.0349
77495W        W14989  33.694  22.998  16.468  0.2027 -0.1968  0.2047
77496W        W14990  13.125  14.190   5.304  0.0489  0.2156 -0.0797
77497W        W14991   9.094   6.356  25.236 -0.1239 -0.1927  0.0600
77498W        W14992  13.751   2.041  11.971  0.2132 -0.1433 -0.1548
77499W        W14993  22.174  16.612  22.712  0.0354  0.0735 -0.1296
77500W        W14994   9.207  23.446   8.082  0.3420  0.1664  0.2685
77501W        W14995  14.474  32.174   1.819  0.0055 -0.4014  0.0622
77502W        W14996   0.165  18.386  21.332 -0.0780 -0.1684  0.0236
77503W        W14997  11.482  26.441   0.253 -0.0806  0.0029  0.0313
77504W        W14998  10.186  30.891  12.127 -0.2778  0.1683 -0.0342
77505W        W14999  35.069  28.676  17.334 -0.1701 -0.1639 -0.1161
77506W        W15000  18.011  28.689  21.086  0.0681  0.4530  0.0692
77507W        W15001  30.584  16.093  22.417  0.1088  0.2188  0.3789
77508W        W15002  17.261   5.787   9.635 -0.1968 -0.0226  0.2456
77509W        W15003  21.229  29.607  15.305  0.3377 -0.1585  0.3663
77510W        W15004   6.769  34.598  23.747  0.1646 -0.0501 -0.1637
77511W        W15005   1.969   1.871  23.433 -0.2043 -0.1786  0.3334
77512W        W15006  15.427  16.232  19.939  0.0363  0.3288 -0.0417
77513W        W15007  27.673  29.939  16.608 -0.0134 -0.0210 -0.2596
77514W        W15008  17.344  23.975  13.079 -0.1019 -0.1617  0.0632
77515W        W15009   9.972  21.910  25.496 -0.1653  0.0671  0.1808
77516W        W15010   4.212  17.844  19.935  0.1427  0.2335  0.1619
77517W        W15011  20.614  22.385  23.656  0.0110 -0.2624  0.3075
77518W        W15012  12.506  26.700   2.946 -0.1785 -0.0395 -0.2198
77519W        W15013   8.871  17.830   9.719  0.1276  0.3831 -0.0769
77520W        W15014  12.443  31.384  12.903  0.1111  0.2149  0.3038
77521W        W15015  28.924   8.991  18.536  0.4597 -0.0740 -0.2823
77522W        W15016  29.038  29.099  15.940  0.0003 -0.1860  0.3462
77523W        W15017  19.761  20.742   8.242 -0.2115 -0.1516 -0.4613
77524W        W15018  20.174   9.763  25.324 -0.1734 -0.1956 -0.0891
77525W        W15019   6.560   2.217   2.298  0.0049  0.0882 -0.0560
77526W        W15020  25.936  33.727  13.617 -0.0839 -0.1333  0.2358
77527W        W15021  14.544   7.944  19.167 -0.1698  0.1494  0.0690
77528W        W15022  17.419  12.195   3.753  0.0501 -0.0348 -0.3502
77529W        W15023   3.947   5.544  21.267 -0.0155 -0.1311  0.0575
77530W        W15024   2.964  16.689  13.365  0.0196  0.2158 -0.1440
77531W        W15025  30.842  12.712  25.260  0.1079 -0.2478 -0.0734
77532W        W15026  11.619   7.114  10.300  0.0896 -0.2823  0.0861
77533W        W15027  19.525  27.498   5.739  0.1371  0.1329 -0.3531
77534W        W15028   3.312  12.344  16.957  0.2038  0.2055 -0.2863
77535W        W15029  29.412   1.863  23.009 -0.2003 -0.1613  0.1571
77536W        W15030  31.630  18.853  18.986  0.0130  0.0572 -0.0833
77537W        W15031  34.133  25.993  24.821  0.1238  0.1227  0.0325
77538W        W15032  20.254  23.005   3.566 -0.2031 -0.1730 -0.1052
77539W        W15033  31.038   1.994   0.773 -0.1474 -0.1049 -0.0054
77540W        W15034  23.427   8.503   3.199  0.2075  0.2140 -0.3582
77541W        W15035  23.638  32.473  13.633 -0.1515  0.1296  0.2024
77542W        W15036   3.848  29.393  11.180 -0.1043  0.0974 -0.4531
77543W        W15037  12.852  12.203  14.099  0.1322 -0.5669 -0.1259
77544W        W15038  20.958  23.735   5.161  0.4412  0.2953  0.0110
77545W        W15039  19.805   1.387   9.004  0.0337 -0.2081 -0.0733
77546W        W15040  34.022  29.503   0.236  0.3263  0.0347 -0.0757
77547W        W15041  11.519   3.829   8.092  0.0357  0.3766 -0.4824
77548W        W15042   8.354  26.077  10.379  0.1243 -0.4136  0.1718
77549W        W15043   7.801  26.632  13.028 -0.1801 -0.3491 -0.4463
77550W        W15044   6.376  32.211  12.905 -0.1093 -0.0195  0.0088
77551W        W15045  22.204  33.324  12.723  0.1943 -0.0295  0.2391
77552W        W15046  34.583  30.266   0.012 -0.0622 -0.2541 -0.1681
77553W        W15047  10.494  30.004  25.759  0.1609 -0.1318 -0.0304
77554W        W15048  22.365  28.812   4.660 -0.1300 -0.1208 -0.3178
77555W        W15049  22.096  17.617  16.865  0.0015 -0.0451 -0.1900
77556W        W15050  14.416  20.708   4.858  0.1040 -0.0370  0.0657
77557W        W15051  26.129   4.550  15.363 -0.4159 -0.1365  0.1453
77558W        W15052  30.133   0.783  25.948 -0.1813 -0.1983 -0.0152
77559W        W15053  32.296  35.260   4.786 -0.2384 -0.0091 -0.1458
77560W        W15054   6.602   9.787  11.703 -0.1926 -0.0520  0.1325
77561W        W15055   5.314   0.919   1.652 -0.1870 -0.2910  0.0864
77562W        W15056   0.054  22.976  14.845  0.1918  0.0088  0.0130
77563W        W15057  13.747  26.196  10.673 -0.0332  0.0430 -0.0178
77564W        W15058  32.333  13.648   7.752 -0.1722 -0.0605 -0.0474
77565W        W15059   6.095  24.111   2.431  0.2388  0.3441 -0.0158
77566W        W15060  30.616  33.500  16.156  0.0626 -0.0337 -0.1131
77567W        W15061   2.601  22.533   1.107 -0.1873  0.0196  0.0690
77568W        W15062  21.655  34.890  22.802  0.1862  0.0070  0.1010
77569W        W15063   9.440  28.616   8.623 -0.2003 -0.1367  0.0060
77570W        W15064  12.031  29.286  24.378 -0.1865  0.0754  0.3507
77571W        W15065   2.600  33.591  20.916 -0.1905  0.1423 -0.0477
77572W        W15066  12.447  26.518  15.962 -0.0934  0.1022 -0.3684
77573W        W15067  12.628  10.201  11.742 -0.2602 -0.1616 -0.0867
77574W        W15068  14.334  20.960   6.888 -0.2372 -0.2072  0.1466
77575W        W15069  33.840   8.975  10.955 -0.0059 -0.1088 -0.2208
77576W        W15070  13.045  23.128   7.115 -0.0662 -0.0436 -0.0030
77577W        W15071  29.685  11.194  13.682  0.0179  0.4015  0.1699
77578W        W15072  19.411  25.345   2.770  0.1648  0.0158  0.0447
77579W        W15073  35.381  27.728  24.781 -0.1233  0.1882  0.2401
77580W        W15074  25.949  15.743  12.952  0.2583 -0.1243  0.1274
77581W        W15075  16.095  25.776  12.862  0.4247 -0.2347 -0.2942
77582W        W15076   9.148  12.262  23.340  0.0772  0.1384 -0.1105
77583W        W15077  29.853   8.142  16.563 -0.0137  0.2354  0.0307
77584W        W15078  14.014   4.114   3.176  0.0120 -0.3155  0.1112
77585W        W15079  27.514   1.239  23.868  0.5730  0.1205 -0.2070
77586W        W15080  23.021  23.549   4.218 -0.1695  0.0754 -0.1940
77587W        W15081  35.132  24.140  16.623  0.2107 -0.3825 -0.1958
77588W        W15082  12.632   1.701  26.118 -0.0197 -0.2130 -0.0453
77589W        W15083   5.526  26.826  23.777 -0.0948 -0.1920 -0.1103
77590W        W15084  33.746  13.293   8.636  0.1897  0.0034 -0.0051
77591W        W15085   2.778  26.177  22.715  0.0932 -0.0421 -0.0931
77592W        W15086  28.718  19.948  11.976  0.2275 -0.1404  0.1994
77593W        W15087   8.274  24.243   7.896  0.1472  0.0914 -0.1853
77594W        W15088  34.508  14.666   9.955  0.1539 -0.0915 -0.3083
77595W        W15089  14.584  17.537  12.023 -0.2698 -0.0956 -0.0557
77596W        W15090  28.422   9.527  20.700 -0.2752 -0.0812  0.0331
77597W        W15091   6.148   2.042  25.759  0.1109  0.0333  0.0590
77598W        W15092  23.302   7.008  25.186 -0.1066 -0.2595 -0.1892
77599W        W15093  17.015   6.297   2.832 -0.0337 -0.0670  0.0812
77600W        W15094   9.579  12.508   2.746  0.0693 -0.0973 -0.1740
77601W        W15095  28.384  14.923  11.671 -0.1394 -0.1536  0.0074
77602W        W15096  24.283  19.241  16.535  0.2816  0.0159 -0.0739
77603W        W15097  26.467   6.038  11.064  0.2860  0.3084  0.1870
77604W        W15098  32.381  27.101  21.161 -0.2129  0.0141 -0.0567
77605W        W15099  27.123  33.418  13.537  0.4742  0.3452 -0.2303
77606W        W15100   5.233  34.583   9.520 -0.0480  0.0056 -0.0652
77607W        W15101  14.354  35.360   4.951 -0.0314 -0.0262  0.0708
77608W        W15102   5.017   9.854   3.164 -0.1092 -0.0929  0.1181
77609W        W15103  20.550  25.925  21.800  0.4038 -0.5930  0.0428
77610W        W15104  30.964  30.826   3.509  0.2036 -0.0475 -0.0428
77611W        W15105   6.666  13.696  16.654 -0.3469 -0.1444  0.1694
77612W        W15106   6.882  13.205   9.137 -0.1186  0.3146  0.0772
77613W        W15107  26.902  10.006  25.753  0.1238 -0.1456 -0.0817
77614W        W15108  33.435  34.495  21.881  0.2665  0.0075  0.2400
77615W        W15109   5.801  24.884  24.982 -0.1427 -0.3267 -0.4368
77616W        W15110   5.723  25.771   9.427  0.1177 -0.0661 -0.0691
77617W        W15111  12.333  21.275   1.648 -0.3484  0.2728  0.2045
77618W        W15112  34.671  17.383  25.044  0.0747  0.1836  0.0630
77619W        W15113  22.132   4.693  17.770 -0.4934 -0.1485  0.3380
77620W        W15114   3.485   2.174  21.183 -0.1453 -0.0186  0.2411
77621W        W15115  14.522  31.971  25.626 -0.1039 -0.1842  0.1213
77622W        W15116  32.937   5.483  20.231  0.0319 -0.0453  0.0709
77623W        W15117  16.822  15.506  10.664 -0.2414 -0.2092  0.3552
77624W        W15118  31.007  28.020  13.668  0.1089  0.0850 -0.1077
77625W        W15119   9.821  13.332   7.067 -0.1992  0.0773  0.1281
77626W        W15120  23.680   9.299  16.252  0.2121  0.0808  0.0016
77627W        W15121   7.826  25.839   0.272 -0.1407 -0.3782  0.1586
77628W        W15122   8.562  19.352  24.559  0.3104  0.2040  0.0241
77629W        W15123  26.706   9.290  16.147 -0.0448  0.0123 -0.0761
77630W        W15124  28.848   4.969  18.069  0.1194  0.3458 -0.5410
77631W        W15125  30.118  22.677  22.154 -0.0686 -0.1664 -0.0235
77632W        W15126  15.408  28.872   9.597 -0.0530  0.0760  0.0315
77633W        W15127   9.078  30.738  12.980 -0.0228  0.0174  0.0706
77634W        W15128  13.246  21.420  25.351  0.3681  0.2947 -0.1642
77635W        W15129  26.703  22.981  14.708  0.2861  0.0495 -0.0940
77636W        W15130  28.612  31.498  12.589 -0.0366  0.0318 -0.1802
77637W        W15131   8.963  10.842   3.937 -0.1354  0.0202  0.1533
77638W        W15132  10.670   0.506   8.433 -0.0303  0.0783 -0.1892
77639W        W15133  25.422  17.068  24.989  0.0159  0.2694  0.3127
77640W        W15134  34.616  10.762   9.484  0.0450  0.1882  0.2054
77641W        W15135   7.529  14.908  10.128 -0.0035 -0.0656 -0.3242
77642W        W15136  27.043  12.225  11.300 -0.0094 -0.0250  0.2458
77643W        W15137  33.240  12.248  10.270  0.1711 -0.2094 -0.3194
77644W        W15138  11.963  34.179   8.574 -0.1364 -0.3526 -0.0949
77645W        W15139   6.475   3.017   6.702 -0.1103  0.1767 -0.1255
77646W        W15140  15.875  23.166  13.395 -0.0634 -0.2880 -0.0339
77647W        W15141  15.254   0.824  23.236 -0.2395 -0.4315  0.0662
77648W        W15142  26.812   2.582  19.984  0.2462  0.0149 -0.3681
77649W        W15143  31.609  10.539   9.565 -0.0110 -0.1690 -0.2562
77650W        W15144  19.427  30.375   5.041  0.4001 -0.0146 -0.0840
77651W        W15145  29.784   9.463   8.996 -0.0554  0.1319  0.1899
77652W        W15146  35.311   8.607  16.764  0.2643 -0.0912 -0.0244
77653W        W15147   8.088  22.230  15.885  0.1061  0.1600  0.1867
77654W        W15148   3.803  17.451   3.019 -0.1970 -0.1686 -0.2225
77655W        W15149  31.141  23.088   8.258  0.2101  0.0040  0.0722
77656W        W15150  12.212  16.553  11.441  0.0560 -0.2165 -0.0833
77657W        W15151  32.916   7.096  22.662 -0.0452  0.3430  0.0581
77658W        W15152  26.134  34.312   5.774  0.0979 -0.1210  0.0186
77659W        W15153   6.030   5.595   2.334 -0.4305  0.0294 -0.0918
77660W        W15154   0.923  25.520  19.044  0.1677  0.1310 -0.2418
77661W        W15155   5.415  19.998  20.790 -0.4702 -0.1023 -0.2816
77662W        W15156  31.652   8.355  13.602 -0.0252  0.0068 -0.3420
77663W        W15157  22.474  21.619   0.157 -0.3856 -0.0916 -0.0821
77664W        W15158  31.226  10.017  22.545 -0.4428 -0.0208 -0.1257
77665W        W15159  22.288   1.793  17.391  0.3452 -0.1891  0.0925
77666W        W15160  15.120   4.097  23.403 -0.1839 -0.0702 -0.2757
77667W        W15161  25.009  25.328  18.098 -0.0413  0.0189  0.0888
77668W        W15162  25.568  16.313  12.638  0.3434  0.0536 -0.0180
77669W        W15163   6.184  20.617   5.004  0.0370 -0.0119 -0.1847
77670W        W15164  32.625   2.032   7.072  0.0979  0.4355 -0.2141
77671W        W15165   2.260  29.400  21.595  0.2651 -0.0138  0.0948
77672W        W15166  23.304  23.125  23.250  0.0640  0.1932  0.1528
77673W        W15167  14.954  21.545   1.639  0.0446  0.0999  0.0192
77674W        W15168  13.031  34.773   5.645 -0.0457  0.1784 -0.3451
77675W        W15169   0.324  17.178  17.276 -0.0011  0.1735 -0.2863
77676W        W15170  34.218  20.735  24.396 -0.0116 -0.1939  0.0262
77677W        W15171   3.644  29.341  11.776 -0.2422 -0.1052 -0.1048
77678W        W15172   5.408  30.928   2.635  0.0168  0.0199 -0.1367
77679W        W15173  31.230  24.935  25.960 -0.0107 -0.4403  0.0763
77680W        W15174   6.242  35.159  12.471  0.1253 -0.1300 -0.1627
77681W        W15175  26.192  15.963  25.229  0.0650 -0.2397  0.0732
77682W        W15176  22.776  12.018  21.959 -0.2164 -0.1307  0.0449
77683W        W15177   5.268  27.990  23.246 -0.0153  0.0855 -0.1348
77684W        W15178  34.630  16.713  14.444 -0.0020 -0.1866  0.4046
77685W        W15179  13.544   5.824   6.671 -0.0019  0.0332 -0.0292
77686W        W15180  24.543  29.498   3.155 -0.2158 -0.0474  0.2517
77687W        W15181  21.373  16.770   1.151 -0.0789 -0.1174  0.1100
77688W        W15182   5.145  25.110   8.874  0.1399  0.1382  0.2768
77689W        W15183   6.471  30.743  26.186 -0.1841  0.2509  0.0534
77690W        W15184  12.182  19.970  22.668  0.1484 -0.0490 -0.0360
77691W        W15185   6.265  34.712  12.677 -0.1941 -0.0624  0.0830
77692W        W15186  19.588   0.543  25.186  0.1533 -0.0078  0.1595
77693W        W15187  23.736   3.918  20.731 -0.1000 -0.3914  0.0956
77694W        W15188  30.036  28.743   4.651  0.1036  0.6804 -0.0524
77695W        W15189   5.029  28.334   4.748  0.1322  0.0591 -0.1992
77696W        W15190   1.468   3.800  23.598  0.1118 -0.0355 -0.1258
77697W        W15191  15.426   0.411  25.620 -0.0718  0.0199  0.1054
77698W        W15192  27.994  18.847  17.294 -0.0607  0.0242 -0.2771
77699W        W15193  27.511  27.643  16.261 -0.0541 -0.2125  0.1075
77700W        W15194  25.615  11.298  10.823  0.1580  0.0362 -0.2111
77701W        W15195  34.052  17.273  23.410 -0.1017 -0.1464  0.2606
77702W        W15196   1.015  32.957   1.930  0.1108 -0.1661 -0.2170
77703W        W15197  31.302  11.094  11.600  0.0567 -0.0846 -0.0535
77704W        W15198   5.178  33.522  19.747  0.1071  0.0554 -0.1212
77705W        W15199   6.983  15.055   1.706 -0.0414 -0.0347  0.1212
77706W        W15200   2.742  21.954  21.578 -0.0023  0.2004  0.3684
77707W        W15201  25.766   8.538  17.881  0.2525  0.0294  0.2236
77708W        W15202  30.577   5.195  10.618  0.2334 -0.0180 -0.0669
77709W        W15203  30.952  16.261  23.719  0.2544 -0.3063  0.2431
77710W        W15204  13.262  33.830   7.798  0.0812  0.0647 -0.3696
77711W        W15205  17.527   9.063   7.898 -0.1145 -0.0107 -0.0099
77712W        W15206  12.804  15.744  20.318 -0.1614  0.1167 -0.2585
77713W        W15207  12.718   7.406  21.799 -0.1611 -0.0655  0.0877
77714W        W15208  33.865  12.800  13.682 -0.0259 -0.1754  0.3637
77715W        W15209  25.458   8.806  20.318  0.2909  0.4909  0.2723
77716W        W15210  33.407  28.512  15.459  0.0377  0.1363 -0.0201
77717W        W15211  17.887  21.345   8.256  0.0278  0.0751  0.1210
77718W        W15212  16.858   9.548   8.350 -0.2395  0.0674  0.0497
77719W        W15213  12.733  32.300  11.767  0.0404  0.0870  0.2482
77720W        W15214   3.644  16.428  25.739  0.1507  0.0294 -0.2560
77721W        W15215  22.027  24.191  15.694  0.1802 -0.0645 -0.0149
77722W        W15216  33.424   6.321  17.901 -0.1197  0.0092 -0.3519
77723W        W15217  18.651  11.500   7.555 -0.1242 -0.2287  0.4156
77724W        W15218  17.944  29.706  23.415  0.0934  0.0897 -0.2625
77725W        W15219  32.187  27.096  18.697  0.3176  0.0788  0.2005
77726W        W15220  33.535  32.182   7.281  0.0422 -0.1358 -0.1219
77727W        W15221  22.855  23.444  17.548 -0.1533 -0.1178  0.2262
77728W        W15222  15.844  11.076   4.171  0.4227 -0.1034 -0.2949
77729W        W15223   8.243  14.091  18.608 -0.0446 -0.2703  0.0114
77730W        W15224  23.756  11.670  25.307 -0.0780  0.0588 -0.1036
77731W        W15225  34.144  10.498  17.002  0.1368 -0.1507 -0.0925
77732W        W15226  18.937   6.802  18.041  0.0820  0.1531  0.1501
77733W        W15227  29.985  15.611  14.303 -0.2169  0.1741 -0.2740
77734W        W15228  29.538  19.572  18.096  0.0971  0.2193 -0.2963
77735W        W15229  15.837  11.185  19.018 -0.1446 -0.2510  0.4333
77736W        W15230  18.550   8.962  21.673  0.2605  0.0908  0.0038
77737W        W15231  23.769  26.097  18.342  0.1126  0.0200 -0.1445
77738W        W15232  11.082   7.980  23.840 -0.1978  0.0335  0.1095
77739W        W15233   8.234  23.774   6.538 -0.0380  0.0313  0.0572
77740W        W15234  23.554   8.328  18.645 -0.0497 -0.1351 -0.1663
77741W        W15235  11.277   6.096   5.632 -0.0098 -0.0697  0.0847
77742W        W15236  28.612  14.415   5.142 -0.2425 -0.0315 -0.1290
77743W        W15237  28.878  29.832   0.466 -0.3239 -0.3535 -0.3233
77744W        W15238  24.904  15.055  18.658 -0.2825  0.1437 -0.2851
77745W        W15239   0.345   0.185  16.608 -0.1474  0.0689  0.2665
77746W        W15240   6.621  27.186   3.252  0.2787  0.0311 -0.0667
77747W        W15241   7.267  30.927  12.366  0.0266  0.0544  0.1142
77748W        W15242  11.666  20.904  23.804 -0.0319  0.1002  0.0350
77749W        W15243  32.990  10.063   9.876 -0.1940  0.0280  0.3292
77750W        W15244   5.122  26.609  10.106 -0.3041  0.3563 -0.1374
77751W        W15245  32.560  16.698  15.352 -0.0833  0.0720  0.0762
77752W        W15246   4.826  33.428  24.417  0.0169 -0.0199 -0.3287
77753W        W15247  30.101   7.262   1.676 -0.0237 -0.2707  0.1854
77754W        W15248  26.684   4.641  13.169 -0.2577 -0.0165 -0.0285
77755W        W15249  14.256  28.556  12.565 -0.1573  0.0823  0.3244
77756W        W15250  29.919   8.186   7.584  0.2987  0.1565  0.0001
77757W        W15251  15.023   7.284   8.984 -0.3713  0.0869  0.2323
77758W        W15252   4.680   1.881  24.809 -0.2391  0.0788  0.1811
77759W        W15253  14.226   6.470  19.073  0.2305 -0.3102  0.0074
77760W        W15254  14.323  31.693  12.697 -0.0175 -0.0637  0.1699
77761W        W15255  22.516  29.190  16.124 -0.2189 -0.0376  0.2562
77762W        W15256  33.433  16.367  18.286 -0.0282 -0.0192 -0.1261
77763W        W15257  17.313  31.567   7.827  0.3218 -0.2033  0.2392
77764W        W15258   2.021   8.828  13.734  0.0492 -0.1513  0.1786
77765W        W15259   2.121   5.163   4.716  0.2068 -0.1130 -0.0946
77766W        W15260  12.424  22.722  23.980 -0.1544 -0.0958 -0.0958
77767W        W15261  16.460  30.184   5.539 -0.0831  0.0392 -0.1069
77768W        W15262  13.017  11.946  20.026  0.1499  0.0054 -0.1391
77769W        W15263  14.702  10.555   6.520  0.2838  0.4387  0.2617
77770W        W15264  24.174   8.912   1.752  0.0613  0.2139  0.0020
77771W        W15265  23.582   7.099  16.898 -0.0322  0.2036 -0.1842
77772W        W15266  31.172  10.885  24.315 -0.2286  0.0049  0.0187
77773W        W15267   1.685  15.723  15.316  0.0273 -0.1613 -0.2526
77774W        W15268  16.177   0.774   6.347  0.1058 -0.2393 -0.2576
77775W        W15269  13.180  22.430   3.136 -0.3479 -0.2244  0.2831
77776W        W15270  13.702  14.168   2.227  0.1112  0.3231  0.1791
77777W        W15271  23.323  28.536  12.415 -0.0133 -0.1579 -0.0961
77778W        W15272  28.255   9.028  12.152  0.1824 -0.0208  0.1493
77779W        W15273  11.615  33.103  23.317  0.1890 -0.1510  0.1511
77780W        W15274  27.946   3.583   4.774  0.2277  0.1442 -0.2935
77781W        W15275  32.669  11.538   7.552  0.2426 -0.0142  0.0473
77782W        W15276  29.236   2.989  17.921 -0.0638  0.1178  0.1887
77783W        W15277   4.901   2.720   2.324 -0.2244  0.2996  0.1460
77784W        W15278   9.557  22.909   0.765 -0.0680  0.1807  0.0323
77785W        W15279  25.401  30.987  24.193 -0.0493 -0.1658 -0.0595
77786W        W15280  17.417  19.382   0.526  0.0053 -0.0381  0.1090
77787W        W15281  19.268  24.828   8.931  0.4731  0.0524  0.3519
77788W        W15282  22.047  31.213  22.177  0.0125  0.1626  0.1054
77789W        W15283  15.183  10.764   3.466 -0.2372 -0.1897  0.3259
77790W        W15284  32.601  27.889  20.291  0.4369  0.0588 -0.0672
77791W        W15285  33.511   2.343   7.149 -0.0853 -0.0541  0.3635
77792W        W15286  14.389  14.657  23.700  0.0605 -0.0285  0.0667
77793W        W15287   4.408  23.255   4.379  0.1886 -0.3034 -0.0040
77794W        W15288  27.284  14.917   7.500  0.0095 -0.0026 -0.2634
77795W        W15289  33.404   4.175   1.440 -0.0498  0.1772 -0.0787
77796W        W15290  30.116  29.599  14.708 -0.2256 -0.0400 -0.1443
77797W        W15291  33.226  13.613  13.096 -0.2245 -0.1402 -0.1414
77798W        W15292   1.854   3.093  19.630  0.0563 -0.6169 -0.0297
77799W        W15293  11.748  32.506  21.873  0.2185  0.0590  0.1203
77800W        W15294   7.080  32.682   5.208 -0.2207  0.2039  0.0910
77801W        W15295  31.824   9.510  23.079 -0.2927 -0.0278  0.2478
77802W        W15296   9.579   1.585  20.445 -0.2639 -0.0364 -0.0173
77803W        W15297   5.161  13.991  17.870 -0.0637 -0.4265 -0.2182
77804W        W15298   1.359  33.613   4.264 -0.1464 -0.0358 -0.1147
77805W        W15299   4.991  10.744   8.690  0.3170  0.0453 -0.1140
77806W        W15300  32.649  17.531   6.084 -0.1860 -0.4550 -0.2769
77807W        W15301  22.688  17.113  19.608 -0.0255 -0.0245  0.1032
77808W        W15302  33.974  31.575  20.054  0.1518 -0.1481 -0.0548
77809W        W15303  26.292  10.747  21.449 -0.1760  0.2884  0.4450
77810W        W15304  12.169  35.288  11.394  0.3509  0.1695  0.0642
77811W        W15305  27.646  21.697   8.847  0.0585 -0.1956  0.2776
77812W        W15306   3.740  26.397   5.676  0.0075 -0.0458 -0.0529
77813W        W15307  12.219  35.241  13.693  0.1658 -0.0751  0.0845
77814W        W15308   2.525  29.108  21.952  0.0762  0.0323  0.2026
77815W        W15309  28.299  32.884  15.651  0.0515 -0.4358 -0.1859
77816W        W15310  27.918  13.252  16.511 -0.0097 -0.1120  0.3532
77817W        W15311  27.607   2.269  13.551 -0.4291 -0.2540 -0.0356
77818W        W15312  32.461   8.192  13.744  0.3442 -0.0036 -0.0576
77819W        W15313  34.527   0.895   3.752 -0.0961 -0.0214  0.2174
77820W        W15314  33.244  25.254  19.765 -0.0682  0.0891  0.4161
77821W        W15315  19.674  17.421   3.299  0.1285  0.1462 -0.0339
77822W        W15316   4.109  21.385   0.897  0.0323  0.2828  0.0772
77823W        W15317  15.177   3.322  21.541 -0.0361  0.5253  0.2109
77824W        W15318   6.094   3.098   4.249  0.0571 -0.1492 -0.0969
77825W        W15319  15.848  26.153  10.290  0.1215  0.0890 -0.0962
77826W        W15320  17.541  12.635  20.156  0.0143 -0.0038 -0.1152
77827W        W15321  23.141  34.494   2.978  0.2138  0.0600  0.1846
77828W        W15322   4.535  33.233   2.976 -0.1906 -0.0623 -0.3051
77829W        W15323  19.516   1.850   8.143 -0.0623 -0.3428  0.3178
77830W        W15324   4.632  31.305   7.337  0.1220 -0.1573 -0.0582
77831W        W15325  20.891  11.510  25.237  0.2248  0.0440  0.0768
77832W        W15326  11.773  30.248  12.511  0.0927 -0.2304  0.3221
77833W        W15327  21.188  13.878  18.074 -0.0539 -0.1316  0.1497
77834W        W15328  27.953  17.025   6.829  0.1543 -0.0139 -0.3093
77835W        W15329  32.383   7.174  18.941 -0.0519  0.1673  0.0119
77836W        W15330  24.550  14.103  22.294  0.2125 -0.3097  0.1408
77837W        W15331  15.868  25.886   8.617 -0.0144 -0.0343  0.1165
77838W        W15332  23.377   8.623  19.048 -0.0668 -0.0157 -0.0921
77839W        W15333   4.787   1.571  21.184  0.0814 -0.2301 -0.0768
77840W        W15334  11.135  25.355   5.819  0.0437 -0.2280 -0.0839
77841W        W15335  30.384  25.244   7.505 -0.0051 -0.1549  0.0222
77842W        W15336  33.358  17.941  15.342  0.1094 -0.0483 -0.0366
77843W        W15337   3.612   0.792   2.428  0.2094 -0.0759 -0.0907
77844W        W15338  24.875  22.712  23.631  0.2414  0.0586 -0.2567
77845W        W15339  13.677  31.009  20.934 -0.1889 -0.2605 -0.4012
77846W        W15340  20.055   5.204  18.495  0.0941  0.3073  0.1452
77847W        W15341   5.379  23.762   7.812  0.0991 -0.0229  0.2177
77848W        W15342   7.588  22.724  10.338  0.0564 -0.2964 -0.0260
77849W        W15343  17.443  31.363  23.663 -0.0897 -0.1064 -0.1616
77850W        W15344   9.071  24.828  14.834 -0.1285  0.3072 -0.0254
77851W        W15345   8.324   3.583  24.224  0.0830  0.1229 -0.0996
77852W        W15346   4.225   0.569   9.884  0.0966  0.0006  0.0263
77853W        W15347  10.149   6.184  19.784  0.0005  0.1680  0.0870
77854W        W15348  20.756   4.372   7.160 -0.1932 -0.2094  0.0393
77855W        W15349  30.649   4.366  20.467  0.1751  0.1712  0.1351
77856W        W15350  20.122  10.542  24.665 -0.0525  0.0819  0.1110
77857W        W15351  19.966   6.799   3.757  0.0420 -0.3430 -0.0171
77858W        W15352  32.600  11.889  11.479 -0.1118  0.1289  0.0543
77859W        W15353  29.116  11.149  23.483  0.1560  0.1241 -0.0127
77860W        W15354  26.067  16.187   9.519 -0.1252  0.0691 -0.0715
77861W        W15355  35.284  18.867  21.848  0.0050 -0.1194  0.1340
77862W        W15356  25.505  29.191  13.843  0.1335 -0.0579 -0.1481
77863W        W15357  15.326  12.052   7.388  0.3584 -0.3530 -0.1554
77864W        W15358   4.249  18.827  25.356  0.0659  0.1156 -0.2578
77865W        W15359  14.560   1.987  22.283  0.4041  0.1443 -0.1139
77866W        W15360   6.101  13.853  17.288  0.1021 -0.2278  0.4410
77867W        W15361  17.697   3.712   7.920 -0.0570  0.1932  0.0060
77868W        W15362  30.011  31.159  17.229  0.0070 -0.3023  0.3532
77869W        W15363   0.921   7.748  17.316  0.0776  0.1892  0.1893
77870W        W15364  27.643   3.847  17.473  0.0683 -0.0969 -0.0366
77871W        W15365   2.745   0.495   6.284  0.0164  0.1836 -0.4105
77872W        W15366   3.672  17.015  22.861 -0.0091  0.1472  0.1053
77873W        W15367  13.676  25.789  23.962 -0.1022 -0.0983  0.2531
77874W        W15368   7.494   1.405  11.114  0.1620  0.1600  0.2508
77875W        W15369  12.728   5.247  23.734 -0.2948  0.2440  0.3881
77876W        W15370   0.447  20.311  17.685 -0.2835  0.4700 -0.0661
77877W        W15371   7.305  12.531  24.915  0.0697  0.1895  0.0738
77878W        W15372   9.968  30.964   5.796  0.1351 -0.2209 -0.2282
77879W        W15373  18.543  15.667  24.873  0.0263 -0.3750 -0.2330
77880W        W15374  19.306   0.809  18.435 -0.1519 -0.0284 -0.3957
77881W        W15375  19.906  27.735  19.295 -0.4974 -0.0551 -0.3142
77882W        W15376  10.126  23.533   4.018 -0.3239 -0.0039 -0.2363
77883W        W15377  11.764  15.375   7.364 -0.0462  0.0305 -0.0472
77884W        W15378  31.616   0.934   2.235 -0.2561 -0.0055  0.0718
77885W        W15379  14.269  21.055  23.236  0.0108  0.1477  0.0862
77886W        W15380  11.980  23.890  15.663  0.3748  0.0220 -0.0964
77887W        W15381  12.837   3.689   2.064 -0.1849  0.0111 -0.0021
77888W        W15382  23.713  18.545  22.330  0.0269  0.0562  0.3413
77889W        W15383   8.599  24.832   9.107  0.0119  0.2325 -0.2624
77890W        W15384   5.225  31.986  20.706  0.4534  0.1484  0.1941
77891W        W15385  32.587   7.914  11.941 -0.1081  0.0365 -0.0878
77892W        W15386  13.760  31.362  14.430  0.2201  0.1618 -0.0626
77893W        W15387  15.111   5.317   5.201 -0.0508  0.0290  0.0987
77894W        W15388   9.473  21.984  10.094 -0.1452 -0.2224 -0.1182
77895W        W15389   5.962  27.980  14.048 -0.0228  0.1606 -0.2832
77896W        W15390  14.947  10.391  21.572  0.1220 -0.0585  0.1001
77897W        W15391  33.795   1.272  19.173 -0.1839 -0.0027  0.1866
77898W        W15392   3.953  27.493  10.878 -0.0856  0.0601 -0.0391
77899W        W15393  22.330   0.454  20.141  0.0323  0.2779 -0.2616
77900W        W15394  24.688  30.350  19.967  0.0873 -0.0562  0.2432
77901W        W15395  26.060   2.426  17.224 -0.0147 -0.1401  0.0927
77902W        W15396   3.460  18.890  23.509  0.0236 -0.1963  0.0037
77903W        W15397   1.724  13.170  24.724  0.1433 -0.1052  0.0177
77904W        W15398  35.141  34.556   4.077 -0.0770  0.3647  0.0479
77905W        W15399  13.807  18.688  13.642  0.2003  0.1417  0.2427
77906W        W15400  29.840  10.464  23.433 -0.0629  0.0439 -0.2856
77907W        W15401   4.726   1.568  20.668 -0.1139  0.1305 -0.2268
77908W        W15402  33.354  10.785  21.531 -0.3507  0.0527 -0.3659
77909W        W15403  22.895  18.921  21.607  0.1919 -0.2710 -0.2058
77910W        W15404  22.330  16.687   1.400 -0.1074  0.3170 -0.1428
77911W        W15405   7.496   2.813  20.954 -0.0303 -0.0109  0.0778
77912W        W15406  12.941  14.840  25.679 -0.0565 -0.0056  0.2015
77913W        W15407  13.136  10.097   7.143  0.2311 -0.0273  0.3256
77914W        W15408  19.065  24.409   3.156 -0.0029 -0.1784  0.0525
77915W        W15409   4.999  23.332   1.771 -0.1713 -0.2279 -0.1324
77916W        W15410  13.629  23.888   7.266 -0.1888 -0.1340 -0.2490
77917W        W15411  11.833  21.713  13.390  0.0532 -0.1869  0.1571
77918W        W15412   1.183  11.355  12.591  0.0181 -0.0713 -0.0865
77919W        W15413  29.082  12.442  19.326  0.2208  0.0146  0.1661
77920W        W15414  17.927   5.810  11.235 -0.0262 -0.0214  0.0028
77921W        W15415   6.700  21.783  23.474  0.2308 -0.0084  0.1130
77922W        W15416  32.196   6.165  16.649 -0.0830 -0.2555 -0.4205
77923W        W15417  25.108   8.079  18.575  0.4310 -0.0023  0.2877
77924W        W15418  17.039  28.543   5.540  0.1941 -0.3760 -0.2789
77925W        W15419  16.926   0.014   6.938 -0.0959 -0.0398 -0.1004
77926W        W15420  15.998  25.408   4.601  0.2138 -0.2795 -0.0146
77927W        W15421  14.795  27.604  24.417  0.0640  0.2633  0.2536
77928W        W15422  14.493   3.836  10.248 -0.0309 -0.3579  0.1595
77929W        W15423  25.913   7.830  10.700 -0.0864 -0.1043  0.1875
77930W        W15424   5.147  12.335  19.115  0.1439  0.0849 -0.3494
77931W        W15425   2.934  11.188  18.426 -0.0345 -0.4321 -0.2317
77932W        W15426  28.703  13.746  16.968 -0.2522 -0.3154 -0.0110
77933W        W15427  26.017  13.074   1.484 -0.1827 -0.1498  0.0200
77934W        W15428  16.144  20.720   6.756  0.2169 -0.1466  0.0979
77935W        W15429  25.511  29.352   4.020 -0.0758  0.0192  0.3271
77936W        W15430  18.191  20.569   8.209  0.1019 -0.0327  0.1329
77937W        W15431  29.544  16.590  14.338  0.1750  0.2681 -0.2751
77938W        W15432  18.173   6.650  25.684 -0.0154 -0.2002  0.0803
77939W        W15433  34.385  24.257  11.307  0.2762  0.2128 -0.1716
77940W        W15434  33.100  31.500   4.247 -0.2748 -0.0973  0.3045
77941W        W15435   3.901  31.904  10.856 -0.0323  0.1188  0.2914
77942W        W15436  25.765   3.506  13.941  0.1402  0.1643 -0.2497
77943W        W15437  19.226   6.196  21.902 -0.1847  0.0111 -0.1406
77944W        W15438  16.938  21.531  24.427 -0.2063  0.1431  0.1383
77945W        W15439  28.623  35.075  21.067 -0.0189  0.0373 -0.0783
77946W        W15440  19.902  34.118  18.676  0.0581 -0.0773 -0.0285
77947W        W15441  34.466   5.312  25.321  0.0922 -0.1731  0.1348
77948W        W15442  18.556  26.444  24.054  0.0154 -0.0758  0.3831
77949W        W15443   1.721   0.153  24.818 -0.1407  0.0254 -0.0089
77950W        W15444   7.850  17.327   7.905 -0.1811  0.1872 -0.2317
77951W        W15445   3.553   8.549   7.196  0.0512 -0.2109 -0.2061
77952W        W15446  12.862  23.749   1.172  0.0026 -0.1244  0.1528
77953W        W15447  31.072  30.939  16.860  0.1709  0.1317 -0.2620
77954W        W15448  26.673  22.536  13.367  0.1331 -0.0251  0.0261
77955W        W15449  13.126   3.047   5.060 -0.0219 -0.2184  0.1489
77956W        W15450  19.615  25.220   0.700  0.2789  0.0526 -0.0043
77957W        W15451  31.392  17.375  14.083  0.2459 -0.2386  0.1065
77958W        W15452  32.863   2.076   3.504 -0.2492 -0.1274 -0.1360
77959W        W15453  13.124  29.960  11.662 -0.1972  0.2898  0.2065
77960W        W15454  31.550  17.416  17.507 -0.2201 -0.3186  0.0115
77961W        W15455  29.214   0.998  24.783 -0.1863 -0.2920  0.1565
77962W        W15456  25.704   3.759  21.666 -0.1012 -0.0634 -0.1833
77963W        W15457  20.920   8.996   0.335 -0.1587 -0.1417 -0.4298
77964W        W15458   9.324   0.950  14.918 -0.1282  0.1220 -0.1449
77965W        W15459  14.346  33.704   4.862  0.1287  0.1819  0.1753
77966W        W15460   3.840  32.033   6.264  0.1608  0.0225 -0.0319
77967W        W15461  15.444  26.475  12.465  0.0119  0.2001 -0.1267
77968W        W15462  25.273   2.963  16.347  0.3303 -0.3101  0.1956
77969W        W15463  14.813   6.866  22.538 -0.1135  0.0305  0.1483
77970W        W15464  27.676  18.837  11.759  0.3852 -0.2206 -0.0886
77971W        W15465   6.998  14.638   7.565 -0.1183  0.2278  0.1316
77972W        W15466  11.568  21.688   0.618 -0.2738 -0.1016 -0.5484
77973W        W15467  28.395   5.072   4.640 -0.2596  0.1294 -0.1923
77974W        W15468  14.494   7.335   2.133  0.1367 -0.0130  0.1050
77975W        W15469  14.363   6.352  18.548  0.2046 -0.1406 -0.1860
77976W        W15470  28.974  27.503  17.946 -0.0902  0.0885  0.2411
77977W        W15471  27.198  14.593   8.843 -0.0491 -0.0968  0.2067
77978W        W15472  16.728   2.667  21.356 -0.0529  0.0679  0.0757
77979W        W15473  17.125   2.470  19.691 -0.1149  0.0361  0.5205
77980W        W15474  34.724  18.956  11.395 -0.2337 -0.0284  0.3825
77981W        W15475  17.054  20.482  26.114  0.1402  0.2520  0.0236
77982W        W15476  25.903  30.894  10.897 -0.1706 -0.3902 -0.0406
77983W        W15477   6.847  17.517  23.203 -0.1318  0.0812 -0.1433
77984W        W15478  33.062  16.478   6.513 -0.2560 -0.1204  0.4193
77985W        W15479   9.456   1.452  12.363  0.1807 -0.4624  0.0524
77986W        W15480   1.728  20.681  11.409  0.0529  0.2744 -0.3281
77987W        W15481  10.234  11.325  13.886 -0.0303  0.0240  0.2938
77988W        W15482   6.140   5.214  11.019  0.1348 -0.0983 -0.0091
77989W        W15483  25.273  13.888  21.517 -0.3668 -0.0240 -0.1144
77990W        W15484  13.666   8.350   9.872 -0.1196 -0.2752  0.0324
77991W        W15485  34.002  12.571  21.805  0.1827  0.0128  0.0391
77992W        W15486  25.171  10.832   2.152 -0.4464  0.0452 -0.0475
77993W        W15487   3.237  13.328  21.171  0.1805 -0.0002 -0.0212
77994W        W15488  27.325  22.685   7.983  0.1615 -0.1096 -0.0751
77995W        W15489   7.080  24.769  14.379 -0.0223 -0.0204  0.0949
77996W        W15490  34.707  32.797   2.381 -0.0439  0.0050 -0.0499
77997W        W15491  25.487   0.514  13.332 -0.2350  0.3357  0.1460
77998W        W15492  14.000  23.277  24.530 -0.4159 -0.2829 -0.2715
77999W        W15493  29.084  13.437  18.779 -0.1679 -0.2934 -0.1334
78000W        W15494  33.386  21.165   7.726 -0.0062 -0.1855  0.1264
78001W        W15495  30.503   0.996   3.579  0.0064  0.0388  0.1730
78002W        W15496   7.075  25.969   8.475  0.0219  0.3961  0.1141
78003W        W15497  13.739   6.477  23.443 -0.1049 -0.0455  0.2348
78004W        W15498  14.929  22.817  16.756 -0.0577 -0.0534 -0.1465
78005W        W15499  32.273  30.156  21.487  0.1318 -0.2112 -0.2237
78006W        W15500   1.694  22.021  14.785 -0.1087 -0.0873 -0.0670
78007W        W15501  31.889  28.203  17.856  0.1764  0.2431  0.1088
78008W        W15502   1.302  10.104  13.860  0.1081 -0.2022  0.2453
78009W        W15503   8.195   1.874   9.889  0.0997 -0.1067 -0.2305
78010W        W15504  30.818  18.881  17.417  0.1195 -0.0149  0.0173
78011W        W15505  34.345  13.948  22.444 -0.1123  0.2663  0.0754
78012W        W15506  30.620  15.818  10.413 -0.0219  0.1227 -0.2019
78013W        W15507   2.270  18.440  21.250  0.0373  0.1540 -0.0856
78014W        W15508  10.802  23.391  25.688  0.0066 -0.0362 -0.0934
78015W        W15509  20.571   2.944  22.591 -0.1626  0.1350 -0.0081
78016W        W15510  19.137  15.103  21.242  0.1405 -0.0219 -0.2874
78017W        W15511   7.211  28.859   9.596 -0.0544  0.2620  0.0372
78018W        W15512   0.275  32.045   4.204 -0.2280 -0.2984  0.1960
78019W        W15513   6.737  29.032   8.959 -0.0703  0.2670 -0.1785
78020W        W15514  26.097  27.381  13.954  0.1845  0.2128 -0.1461
78021W        W15515  35.007  31.087   7.186  0.2402 -0.0299 -0.0760
78022W        W15516  16.846  14.497   1.742 -0.1545 -0.2423  0.0655
78023W        W15517  24.752   9.708   3.020  0.0983 -0.1806 -0.2538
78024W        W15518   5.561  14.686  24.685  0.2212 -0.0194 -0.1511
78025W        W15519   0.404  16.802  10.816  0.0933 -0.0460 -0.0039
78026W        W15520  29.128   2.178  16.608 -0.0132  0.2037  0.3177
78027W        W15521  24.864   2.038  17.000  0.0550  0.1582 -0.2465
78028W        W15522  15.774  34.313  19.090  0.1915  0.3141  0.3450
78029W        W15523  21.077  15.401   0.605  0.3231 -0.0709 -0.1144
78030W        W15524  19.506   9.805   8.808 -0.2372  0.1066 -0.0612
78031W        W15525  27.172  20.732  11.018  0.0629  0.0138 -0.0709
78032W        W15526   1.436  12.083  17.800 -0.1529 -0.0635 -0.1258
78033W        W15527  10.782  22.774   4.218  0.0708 -0.0661 -0.3094
78034W        W15528  16.303   5.813   3.691 -0.1696  0.1248 -0.1239
78035W        W15529  27.415  15.388  11.907 -0.1875  0.1560 -0.1532
78036W        W15530  35.092   5.120  15.044 -0.0063 -0.2741 -0.0327
78037W        W15531  33.857  25.054  22.283 -0.1390  0.1817 -0.2760
78038W        W15532  21.189  14.442  17.707  0.0731 -0.0895  0.0264
78039W        W15533  22.090  31.656   1.424  0.0887 -0.2576 -0.0661
78040W        W15534  31.246  14.375  24.523 -0.2130  0.2616  0.0454
78041W        W15535  30.463  16.145  16.885 -0.0503  0.1089 -0.1338
78042W        W15536   3.381  28.340  11.726 -0.3797  0.3160  0.0848
78043W        W15537   0.734   4.202   7.782 -0.0491 -0.1300  0.0921
78044W        W15538  24.064  22.419  25.696 -0.2455  0.1604  0.1736
78045W        W15539  19.407   9.414   9.136  0.1000 -0.0368  0.0999
78046W        W15540   4.141  15.875   3.310 -0.0660 -0.1280 -0.2781
78047W        W15541  30.693  14.531  23.072  0.1002 -0.0781 -0.4520
78048W        W15542   8.057  19.261  20.291 -0.2633  0.0105 -0.0585
78049W        W15543   9.146  13.887  24.845  0.0736 -0.1740 -0.1742
78050W        W15544   8.157  26.520   0.484 -0.0941  0.0934 -0.3051
78051W        W15545  23.389   9.246  18.004  0.1396 -0.1713 -0.0698
78052W        W15546  24.967  28.382  18.146 -0.2646 -0.1371  0.0972
78053W        W15547  13.846  20.018  23.926 -0.1661 -0.1122  0.1054
78054W        W15548  17.695   2.303  22.511 -0.2455 -0.1233 -0.3060
78055W        W15549   2.746   3.709  22.558  0.0444 -0.1049  0.1612
78056W        W15550  32.800  10.899  17.590 -0.1960 -0.1160 -0.1610
78057W        W15551  12.698   3.638   5.030 -0.1724  0.2441 -0.4514
78058W        W15552   7.196  33.306  13.026  0.1927 -0.0916 -0.1255
78059W        W15553  24.988   6.328  17.258  0.1742 -0.0287  0.0858
78060W        W15554  10.609  27.014   5.318  0.2007  0.2217 -0.0811
78061W        W15555  15.049  28.073  11.499  0.3928 -0.1841  0.0949
78062W        W15556   1.265  19.420  21.396  0.4065 -0.3363 -0.2027
78063W        W15557  14.539  18.260   1.990  0.2457 -0.0675 -0.1616
78064W        W15558  32.962  30.477   4.281  0.0393 -0.2914  0.1172
78065W        W15559   7.808   3.529   6.983 -0.2831 -0.0999  0.2568
78066W        W15560  14.924   6.829   1.585  0.0254 -0.0647 -0.1364
78067W        W15561  21.077   5.291   1.166 -0.1404 -0.2900  0.0453
78068W        W15562  26.362  28.493  25.080 -0.0714 -0.1807  0.0986
78069W        W15563  29.000  25.216  22.352 -0.1921 -0.0558  0.3820
78070W        W15564  25.442  32.343  13.978 -0.0412 -0.1186  0.2782
78071W        W15565  33.667  26.250  21.163  0.2864 -0.0527 -0.1549
78072W        W15566  32.480  22.589  12.695 -0.1685 -0.0970  0.2665
78073W        W15567   2.879  24.861  17.940  0.1162  0.2109 -0.1584
78074W        W15568  26.161   3.289  12.730  0.0545 -0.2675 -0.0626
78075W        W15569  29.156  15.515  24.642  0.2477  0.1398  0.1150
78076W        W15570  24.413  23.069  22.501  0.4089  0.3885 -0.0124
78077W        W15571  33.207   2.324  18.356  0.1672 -0.1231 -0.0268
78078W        W15572  27.940   2.558  22.263 -0.0285  0.1513  0.1592
78079W        W15573   8.015   5.945  23.446 -0.0102  0.0015 -0.2777
78080W        W15574   7.815  13.734   6.169  0.0342 -0.3549  0.0861
78081W        W15575  26.704  30.211   3.350 -0.1764 -0.1885 -0.3731
78082W        W15576  15.131  22.449   2.671  0.1719 -0.0030  0.2427
78083W        W15577  19.466   1.185  21.267 -0.0921  0.1089  0.0624
78084W        W15578  18.612  10.960   3.831  0.1770  0.0351  0.0721
78085W        W15579  30.908  15.632  25.838 -0.1144  0.0923 -0.1074
78086W        W15580   6.796  34.545  13.600 -0.0518  0.1581 -0.1275
78087W        W15581  35.358  20.826  13.820  0.1938 -0.1980  0.0571
78088W        W15582  13.465  24.035  14.110  0.1242 -0.0898  0.0531
78089W        W15583  15.867   2.504  25.685 -0.3921 -0.0167 -0.2190
78090W        W15584   0.870  18.370  25.727  0.1456 -0.2238  0.0081
78091W        W15585  11.382   2.055   5.923 -0.2519 -0.1209 -0.3469
78092W        W15586  34.969   1.639   6.037  0.3116 -0.0227  0.0677
78093W        W15587  14.800  31.595   6.225  0.2521 -0.2644 -0.1334
78094W        W15588  15.957  13.237  10.582 -0.2237  0.1574  0.0268
78095W        W15589  12.157   8.177  13.656  0.1177  0.0102  0.0344
78096W        W15590  16.571   0.494   9.986 -0.1069 -0.0226 -0.2208
78097W        W15591   5.872   6.079  18.338  0.0398 -0.1265  0.3074
78098W        W15592  17.939   4.437  16.378 -0.1623 -0.0561 -0.0103
78099W        W15593  17.956  12.361  22.575  0.0522  0.0392 -0.2434
78100W        W15594   1.366  14.273  14.542 -0.0147  0.1436 -0.0765
78101W        W15595  23.187   8.824   5.283  0.1917  0.1457 -0.2137
78102W        W15596  27.319  32.222   4.366 -0.1997  0.3668 -0.4570
78103W        W15597  20.921  20.510   7.275 -0.1726 -0.0465  0.0440
78104W        W15598  28.490   4.165  15.659 -0.2598 -0.1776 -0.1571
78105W        W15599  15.177  22.079  22.693  0.0398  0.1469 -0.2699
78106W        W15600  26.832  24.821  16.438 -0.1387 -0.2322  0.1637
78107W        W15601  24.302  17.637   9.736 -0.0877  0.1556  0.2301
78108W        W15602  35.283  13.967  22.602 -0.0740  0.0344 -0.0349
78109W        W15603  19.778  29.734  18.397  0.2493 -0.2113  0.0318
78110W        W15604  13.490   9.705   3.846  0.1012 -0.1144  0.3534
78111W        W15605   4.233   5.122   0.297  0.0148  0.0831  0.2219
78112W        W15606  10.262  29.879   3.148  0.3791 -0.4054  0.2486
78113W        W15607  23.493   4.093  21.710 -0.2784  0.1795 -0.1751
78114W        W15608  11.723  14.251   1.754  0.1212  0.1030  0.1488
78115W        W15609   3.226   7.270  19.608 -0.1334 -0.2261  0.0697
78116W        W15610  28.751  11.866  23.438  0.1452 -0.0960 -0.0435
78117W        W15611  20.760  12.202  25.482  0.1407 -0.0009 -0.2227
78118W        W15612   7.732  32.879  20.340  0.1457 -0.1894  0.1987
78119W        W15613  23.833  11.258  16.867 -0.2501  0.0042  0.0462
78120W        W15614  35.263   1.944   0.378 -0.0287  0.0093 -0.0446
78121W        W15615  20.765  34.619  23.525  0.0420  0.5141 -0.1449
78122W        W15616   2.938  24.443  19.456  0.5375 -0.0226  0.0025
78123W        W15617   7.002  22.591   7.979  0.1107  0.2925 -0.1723
78124W        W15618  21.682  28.123  22.724 -0.1589 -0.1541  0.1354
78125W        W15619  10.756   4.724  22.856 -0.0800 -0.1440  0.0181
78126W        W15620  14.059  16.193   8.292  0.1630  0.2873  0.3144
78127W        W15621  20.892  27.097  16.182  0.2639 -0.0473 -0.1988
78128W        W15622  29.189  19.496   5.380 -0.0644 -0.0436  0.2592
78129W        W15623   8.350  30.557   9.233  0.1467  0.2086 -0.2081
78130W        W15624  13.538   5.711   5.521 -0.0894  0.0525  0.1027
78131W        W15625  32.136   0.113  21.062  0.0998 -0.2943 -0.3880
78132W        W15626  14.482   4.708  19.074 -0.1475  0.1745  0.0458
78133W        W15627  22.435  19.993  19.383  0.4403  0.0779 -0.0095
78134W        W15628   7.394   1.340   9.650 -0.0989  0.1375 -0.1899
78135W        W15629  23.297  29.609  20.365  0.1204  0.0006  0.1874
78136W        W15630   5.134  17.730  22.167  0.2032 -0.0399 -0.1307
78137W        W15631  34.906  18.754  15.292  0.2004  0.1001 -0.2467
78138W        W15632  30.686  17.785  20.474  0.1765  0.0857 -0.2266
78139W        W15633   4.598  25.929   6.171  0.1821 -0.1758  0.2304
78140W        W15634  15.605  17.652  20.799 -0.1165  0.0796  0.0083
78141W        W15635  23.854  16.320   1.449 -0.3318  0.4018  0.2980
78142W        W15636   5.232  14.335   1.816  0.0668 -0.1771  0.2929
78143W        W15637  14.809  17.538  26.119  0.1028 -0.1392  0.4139
78144W        W15638   3.413  26.805   1.582  0.0866 -0.0471  0.0641
78145W        W15639  29.695   9.159  15.007 -0.1391 -0.2563  0.1964
78146W        W15640  24.611  19.783  24.672 -0.1517  0.0252  0.0577
78147W        W15641  22.123  30.167  25.481  0.4996 -0.0438 -0.0942
78148W        W15642   1.268  14.176  21.352  0.2254  0.0777 -0.1914
78149W        W15643  24.302   8.713   0.440 -0.0581  0.1097  0.0729
78150W        W15644  10.223  26.775   1.227  0.0412  0.0112  0.1939
78151W        W15645  30.096  13.255  19.645  0.2467 -0.1216 -0.1089
78152W        W15646  15.424  21.939  13.102  0.0958  0.2659 -0.2305
78153W        W15647  28.293   1.533  22.895 -0.0028 -0.0931 -0.0917
78154W        W15648   0.405   3.093   5.897 -0.1313 -0.0170 -0.0799
78155W        W15649   1.636  27.467  21.658  0.0039 -0.2624  0.1742
78156W        W15650   9.776  31.446   5.892 -0.3667 -0.0572 -0.3258
78157W        W15651   6.438  11.194   0.236 -0.1019  0.0944 -0.0619
78158W        W15652  12.308   4.469   0.785 -0.0190 -0.3606  0.0757
78159W        W15653  31.029  23.749  21.417 -0.0443 -0.3155  0.0217
78160W        W15654  21.949  20.863   4.446  0.1397  0.3104  0.2581
78161W        W15655  34.156  17.820   6.894  0.1601 -0.0753  0.3510
78162W        W15656  20.994  21.884  24.302 -0.2446  0.1192  0.1922
78163W        W15657  18.902  21.654  19.804 -0.2050  0.4616  0.0196
78164W        W15658  13.191   6.368   7.346 -0.2438 -0.2793 -0.1350
78165W        W15659  11.115  13.235   4.212  0.1460  0.0537 -0.2412
78166W        W15660  12.623  32.909   6.874  0.1498  0.2587 -0.2056
78167W        W15661  22.962  22.332  22.270 -0.2034  0.5230  0.3264
78168W        W15662  10.040  31.973   7.049 -0.1728  0.0434  0.0063
78169W        W15663  24.938  30.330  23.201  0.0030  0.4063  0.1973
78170W        W15664  18.394  32.187  17.848  0.0371  0.1689 -0.0283
78171W        W15665   6.589   9.914  22.046 -0.0556 -0.1030  0.3232
78172W        W15666  14.468   9.397  13.362 -0.3775 -0.2380  0.0195
78173W        W15667  33.264   9.288  19.970 -0.0603 -0.0036 -0.1500
78174W        W15668  15.550   1.230  17.523 -0.0828  0.2776 -0.1016
78175W        W15669  32.818  27.700   3.626 -0.0308 -0.2803 -0.1112
78176W        W15670   3.872   2.103  24.423  0.0027 -0.1220  0.1884
78177W        W15671  16.531  17.395   0.675  0.1856  0.0982  0.0727
78178W        W15672  31.645  34.840   2.077  0.2167 -0.0139  0.0417
78179W        W15673  15.315  18.445   7.191 -0.4187  0.1480  0.1659
78180W        W15674  15.236   7.619  21.878 -0.0512 -0.3005 -0.0954
78181W        W15675  10.786  25.200   9.060 -0.1999 -0.1879  0.0047
78182W        W15676  12.654  21.405  12.870 -0.1856  0.1274  0.2043
78183W        W15677  25.943   2.075  21.535 -0.1643  0.0220 -0.3306
78184W        W15678  20.752  22.563  26.208  0.1314 -0.1092 -0.1787
78185W        W15679  15.084   5.933   6.340 -0.0491  0.3395 -0.0777
78186W        W15680  34.539   2.640   4.403  0.0121  0.1472 -0.0178
78187W        W15681  33.033  19.114  23.159 -0.2170  0.0859  0.2601
78188W        W15682  23.077  26.659  17.762  0.2239 -0.0519  0.1493
78189W        W15683   7.269  33.652  12.612  0.4071 -0.0356  0.0295
78190W        W15684   8.063   3.141   4.418 -0.1732 -0.0471  0.0775
78191W        W15685   1.164   1.793  22.469  0.2337 -0.1561 -0.2841
78192W        W15686   5.437   1.195  22.069  0.0215  0.0013  0.1643
78193W        W15687  32.328  28.679  14.798 -0.1490 -0.1925  0.3248
78194W        W15688  33.076  15.113  18.225  0.3231 -0.1858  0.3414
78195W        W15689  31.546  21.621  24.118 -0.2083  0.1866  0.1175
78196W        W15690  13.102  24.745  16.636  0.4089 -0.4410  0.0276
78197W        W15691  23.104  23.900  17.795  0.3044  0.2315  0.4217
78198W        W15692  13.252   3.807   6.410  0.1390 -0.0681 -0.2168
78199W        W15693   4.906  18.386  24.318  0.2040 -0.4245 -0.2125
78200W        W15694  11.590  33.195   3.041  0.1612 -0.1028 -0.1033
78201W        W15695  14.964   6.555   8.227 -0.1353  0.2906 -0.2672
78202W        W15696  14.481  18.367   0.265  0.0729  0.0870  0.2999
78203W        W15697  12.165  21.799  25.448  0.3483 -0.1194  0.0409
78204W        W15698  10.008   3.486  13.776 -0.0745  0.1536  0.1466
78205W        W15699   6.766  27.299  24.482  0.0695  0.0815 -0.1044
78206W        W15700   2.060   0.633   2.372 -0.1613  0.3400 -0.1364
78207W        W15701  24.365  24.626  20.553  0.2985 -0.1585  0.2580
78208W        W15702  25.804  20.827   8.187  0.0946  0.0669 -0.0399
78209W        W15703  32.346  13.593  14.170 -0.0746  0.0449  0.0152
78210W        W15704  21.438  18.725   1.440 -0.0501  0.1283  0.0482
78211W        W15705   0.574  25.258  25.984  0.1268  0.0918 -0.0653
78212W        W15706   5.269  16.846   4.565 -0.1996 -0.1357  0.2643
78213W        W15707  13.286   3.689  24.122 -0.4341  0.0868 -0.2230
78214W        W15708  14.448  14.856   6.021 -0.2200  0.3623 -0.2418
78215W        W15709  32.777   2.084  17.253 -0.0984 -0.0365 -0.2562
78216W        W15710  28.046  34.542   1.320  0.2309 -0.0359  0.0428
78217W        W15711  34.372  17.191  25.607  0.0657 -0.1092  0.1773
78218W        W15712  28.889  13.323   8.155  0.0418 -0.0252 -0.1399
78219W        W15713  33.534  25.726  25.979 -0.1301 -0.0391 -0.1427
78220W        W15714  19.218  21.411  24.285  0.1455 -0.1441  0.0430
78221W        W15715  31.908  14.510   0.500  0.0146  0.1412  0.1110
78222W        W15716  10.255  20.674  13.983 -0.2711 -0.2097 -0.2321
78223W        W15717  13.081   8.857   0.694 -0.0516  0.0877 -0.0928
78224W        W15718  27.307  24.132  21.996 -0.3677 -0.2551 -0.0450
78225W        W15719  31.323   2.905   0.052  0.0626  0.1885 -0.0727
78226W        W15720   0.083  34.014  25.268  0.0845 -0.0920 -0.0341
78227W        W15721  11.814  28.699  21.836  0.1241 -0.2276 -0.0107
78228W        W15722   7.762  19.272   0.318 -0.1533  0.1831 -0.0727
78229W        W15723   0.866  21.086  22.904 -0.2126  0.0642  0.2150
78230W        W15724  15.880  15.086   4.446  0.2049 -0.0701 -0.1021
78231W        W15725  17.460  16.657   3.750 -0.0796  0.1079  0.0842
78232W        W15726  34.373   3.424  22.670 -0.1639  0.0350 -0.2270
78233W        W15727   1.057   0.376   7.251  0.0238  0.1848 -0.1045
78234W        W15728   2.654  27.332   9.214 -0.1046 -0.0942 -0.2743
78235W        W15729  29.893  28.444  24.148  0.3234  0.0960 -0.2722
78236W        W15730   8.805  33.034   9.612  0.0886 -0.0809 -0.2407
78237W        W15731  11.460   1.807  13.381  0.0457  0.1597  0.2250
78238W        W15732  24.419   9.312  21.020 -0.2002  0.2001  0.1461
78239W        W15733  33.060  25.339   9.917 -0.4233 -0.1585  0.2157
78240W        W15734   9.640   7.212  14.431 -0.1268  0.0260 -0.0493
78241W        W15735  20.523  18.991   3.570 -0.1825  0.0087 -0.4654
78242W        W15736   6.317   0.131   0.436 -0.2977  0.0339 -0.0331
78243W        W15737  28.897   8.206   9.374 -0.1767 -0.0538  0.1614
78244W        W15738   2.953  30.272   4.353 -0.5526  0.0723 -0.6339
78245W        W15739   2.040  29.429   0.693  0.1157 -0.0233 -0.1740
78246W        W15740  25.156   8.623  14.675 -0.1263  0.0522  0.0336
78247W        W15741   2.713  32.189  20.427 -0.1370 -0.2017  0.1062
78248W        W15742   2.166   8.646  19.556  0.0459 -0.2245  0.2912
78249W        W15743  26.498  32.095  24.351 -0.0298  0.4855 -0.2471
78250W        W15744  15.382   3.006  24.069  0.0070  0.1593  0.0316
78251W        W15745  19.869   2.811  17.755  0.0178 -0.0146  0.2559
78252W        W15746  23.923  16.790  15.442 -0.0381 -0.0318 -0.0206
78253W        W15747   7.641  30.917   1.413 -0.2383  0.1858 -0.0457
78254W        W15748  15.442  26.914   6.614 -0.0229 -0.1472 -0.0022
78255W        W15749  29.360  29.832   5.107 -0.0902  0.4221 -0.1070
78256W        W15750   4.395  11.982   2.526  0.0981 -0.0694  0.1105
78257W        W15751   1.759  20.746  18.520 -0.0867 -0.0159  0.1799
78258W        W15752  32.339  15.893   5.815  0.0648 -0.0709  0.0562
78259W        W15753  32.634  32.586  14.087  0.3747 -0.0389 -0.0254
78260W        W15754  18.827   9.439  22.373  0.1203  0.1566 -0.2061
78261W        W15755  21.009  26.687   6.225 -0.2999  0.0779 -0.0244
78262W        W15756  30.796  28.454  15.574  0.0990 -0.1724  0.0723
78263W        W15757  21.144  16.601  24.765  0.0693  0.0104 -0.0181
78264W        W15758  22.762  16.407  13.843 -0.2368  0.0347 -0.4679
78265W        W15759   4.571  30.478  22.549  0.0027 -0.3762  0.0232
78266W        W15760  19.343  15.278   9.728 -0.2417  0.0207  0.2822
78267W        W15761  17.369  16.749  26.036 -0.3556 -0.2542  0.0477
78268W        W15762  33.816  23.523  12.401  0.0603  0.0696 -0.0828
78269W        W15763   8.067  28.638  23.771 -0.0667 -0.5407  0.2917
78270W        W15764   0.485  15.344   0.565  0.0212 -0.2067  0.2551
78271W        W15765   1.389   5.217   6.230  0.0970 -0.0222 -0.0721
78272W        W15766  19.032  34.159  16.470  0.2380  0.1285 -0.1268
78273W        W15767  30.167  34.274  26.024 -0.0703  0.3148 -0.2161
78274W        W15768  30.561  32.749   4.605 -0.2060 -0.1445  0.0205
78275W        W15769  18.694  26.933   2.832  0.2266 -0.1553  0.2329
78276W        W15770   0.660  12.466  22.274 -0.1199 -0.1273  0.0043
78277W        W15771  20.483  10.733   0.188 -0.1252 -0.1970  0.3053
78278W        W15772   4.846  31.536  24.052  0.1194 -0.0602  0.0487
78279W        W15773  20.306   7.240   0.067 -0.2524 -0.0648 -0.1947
78280W        W15774  13.139  32.356   6.459 -0.0031  0.2381 -0.2108
78281W        W15775   6.638   0.773   2.351 -0.1792  0.2991  0.1127
78282W        W15776   4.661  28.206  19.766 -0.0943  0.3085 -0.1975
78283W        W15777  15.507  27.673   7.253  0.0141  0.2555  0.1583
78284W        W15778  14.808  23.105   0.637 -0.1578 -0.1307  0.0622
78285W        W15779  22.737   2.865  17.244 -0.3626  0.0035 -0.3094
78286W        W15780  35.254   3.619  12.630 -0.0080 -0.1161  0.2738
78287W        W15781  13.486  28.680  25.123 -0.0494 -0.1734  0.2278
78288W        W15782  16.350  26.393  12.894  0.0568  0.0088  0.0464
78289W        W15783  15.363  23.953  24.899  0.3030  0.1017  0.1879
78290W        W15784  18.554   3.635   1.985 -0.2815 -0.1386  0.0631
78291W        W15785   1.045  26.132   3.352 -0.3505 -0.3579  0.1194
78292W        W15786  14.482   4.227  18.325  0.0114 -0.0332 -0.4230
78293W        W15787  17.839   8.316  24.335  0.0110  0.2155 -0.2143
78294W        W15788  15.543   0.565  24.722 -0.1430  0.1432 -0.0469
78295W        W15789   1.704  28.143   8.234  0.0400  0.0875 -0.1196
78296W        W15790  30.447  15.045  18.021 -0.0007 -0.1031 -0.1056
78297W        W15791  10.781  24.844   9.416 -0.1341 -0.2990 -0.0718
78298W        W15792  21.358  33.664  21.597 -0.0971 -0.0058  0.1257
78299W        W15793  16.768   9.800  19.736 -0.0982  0.0525 -0.3070
78300W        W15794  12.758  21.710   9.346  0.4119 -0.2013  0.0840
78301W        W15795  15.796  20.877  21.922  0.2784  0.1159 -0.0135
78302W        W15796  12.476  32.959  20.490  0.0343  0.2432  0.1858
78303W        W15797   3.794  17.009  17.617 -0.0567  0.0909 -0.0722
78304W        W15798  26.515  13.996  23.389 -0.1140 -0.0032 -0.2083
78305W        W15799  35.197  19.371  21.886  0.2925 -0.2701 -0.1601
78306W        W15800  23.941   3.414   1.698  0.2886  0.1965 -0.2102
78307W        W15801   1.144  15.098  10.504  0.1328  0.4452  0.1008
78308W        W15802   1.729  25.800  17.693  0.2783  0.0843  0.0372
78309W        W15803  17.515  30.352  22.959 -0.1448 -0.2064  0.1362
78310W        W15804  29.060  12.612  24.765 -0.1167  0.1802 -0.2219
78311W        W15805  20.960  21.599  18.808 -0.1673  0.0264 -0.1892
78312W        W15806  21.714   4.682  25.087  0.0360  0.3570 -0.0478
78313W        W15807  29.169  10.132  19.147  0.2097 -0.2729 -0.1676
78314W        W15808  30.921  18.311  19.150  0.0813 -0.1209 -0.0068
78315W        W15809   1.790  12.923  19.594  0.3015  0.1227  0.2042
78316W        W15810  11.121  13.521   9.891  0.4073  0.3477 -0.1996
78317W        W15811  16.851  14.699  19.646 -0.1234 -0.0235 -0.4072
78318W        W15812  14.110  10.927  21.304  0.0257  0.3918 -0.2369
78319W        W15813  25.834  31.672  24.790  0.1973  0.2523 -0.0108
78320W        W15814  20.957   9.214  22.865 -0.2670  0.2518 -0.0161
78321W        W15815  26.884   3.054  11.031  0.0202  0.1425 -0.2985
78322W        W15816  30.198  20.299  20.214  0.0782  0.0252  0.0915
78323W        W15817  26.851  27.734  10.675  0.0582  0.0767 -0.1116
78324W        W15818  12.143   5.376   9.561  0.1661 -0.2115  0.2896
78325W        W15819   2.454  28.384   0.291  0.0401  0.2708  0.1620
78326W        W15820   8.432  11.484  11.928  0.0449  0.1227 -0.2448
78327W        W15821   1.687  24.868  15.597 -0.0849  0.1907 -0.0366
78328W        W15822   0.651  33.424  25.897  0.2649  0.1558 -0.0681
78329W        W15823  29.808  29.537  20.984 -0.2778  0.0898 -0.0884
78330W        W15824  33.337  33.741  13.574 -0.1255 -0.1210  0.0475
78331W        W15825  31.716  24.604  26.067 -0.0476 -0.1517  0.0395
78332W        W15826  33.894  21.887   8.330 -0.0334  0.0741  0.1308
78333W        W15827   3.566  31.085  11.487  0.0758  0.1070 -0.2759
78334W        W15828   6.833  18.180  24.295  0.0373  0.0569  0.2329
78335W        W15829   8.990   2.999   4.969 -0.2190 -0.2937 -0.1756
78336W        W15830   8.004  25.640   3.464 -0.0074  0.0115 -0.2218
78337W        W15831   9.997   6.700  14.268  0.3354 -0.0506  0.1353
78338W        W15832   9.622  19.528  25.888  0.1134 -0.0048 -0.0303
78339W        W15833  23.993  30.889  26.116 -0.0373 -0.0989 -0.1965
78340W        W15834  27.338  26.304  13.357 -0.0349  0.2762  0.2013
78341W        W15835   2.685   8.276  17.074  0.0117  0.0459 -0.1346
78342W        W15836  10.902  33.227   1.695 -0.1253  0.3340 -0.1128
78343W        W15837   8.371  27.697   3.729 -0.0172 -0.1545 -0.0445
78344W        W15838   7.713  32.103   2.553 -0.0664 -0.0217 -0.0924
78345W        W15839  10.509   0.972   9.364 -0.0538  0.2232 -0.0065
78346W        W15840  21.933  33.547  18.946 -0.1269  0.2217  0.1867
78347W        W15841  10.642   4.619  14.652 -0.0484  0.0809 -0.0581
78348W        W15842  10.917   1.940   8.064 -0.0066  0.2072 -0.2453
78349W        W15843  29.582  16.522   8.253 -0.0521  0.1081  0.3203
78350W        W15844  33.418  24.266  15.257 -0.1701 -0.0323 -0.2419
78351W        W15845   5.903  15.177  19.356 -0.1963 -0.2994  0.1561
78352W        W15846  19.435  12.957  18.034  0.0647 -0.2859 -0.1324
78353W        W15847   1.540  29.408   8.553 -0.0334 -0.2011 -0.4542
78354W        W15848  20.966   3.514  16.070  0.1883  0.1104  0.2950
78355W        W15849   1.511   1.280  24.823 -0.1766 -0.0507  0.2735
78356W        W15850  29.878  10.052  16.357  0.1240  0.1869 -0.0033
78357W        W15851  21.913  32.906  12.672 -0.3017 -0.2182 -0.0781
78358W        W15852  35.347  21.987  14.756  0.2504  0.3576 -0.1310
78359W        W15853   4.623  33.885   0.625 -0.1114  0.1979  0.0422
78360W        W15854  27.025  33.158  24.251  0.1904  0.3173 -0.0244
78361W        W15855  33.785  18.096  21.150  0.2211 -0.0695  0.0339
78362W        W15856  11.837   4.470   5.100 -0.0815 -0.0319  0.3924
78363W        W15857   4.895  30.888   7.578 -0.0452  0.0078  0.2570
78364W        W15858  33.076  30.494   0.424 -0.0002 -0.1932  0.1549
78365W        W15859  30.753  33.175  15.384  0.3060  0.0279 -0.2672
78366W        W15860  11.926   8.655   8.584 -0.1201 -0.1869  0.0971
78367W        W15861  15.509  12.529  24.068  0.3377 -0.0353 -0.0539
78368W        W15862   9.309  14.895  25.628 -0.1453  0.2176 -0.1704
78369W        W15863   8.458  23.435  13.600  0.1752 -0.1406 -0.0091
78370W        W15864  22.818  16.542  19.670 -0.1907 -0.2992  0.2501
78371W        W15865   6.853  11.680  11.890 -0.1187  0.0210  0.2581
78372W        W15866  26.378  26.703  14.833  0.3070  0.2881 -0.1638
78373W        W15867   8.255  23.782   3.731 -0.1036 -0.1209 -0.1325
78374W        W15868  20.290  16.164  20.768 -0.0854 -0.0696  0.1242
78375W        W15869  23.193  23.152   3.950 -0.1063 -0.0633 -0.0456
78376W        W15870  20.310   3.648  17.300  0.1870  0.0190  0.2526
78377W        W15871  30.194  12.687  12.669 -0.0386 -0.2579  0.0939
78378W        W15872  19.640  11.368  10.150 -0.0493  0.4910  0.1254
78379W        W15873  17.050  29.754   9.181  0.1822 -0.1845  0.0942
78380W        W15874  13.889   1.437  21.379  0.0304 -0.2754  0.1235
78381W        W15875  34.306   8.853   2.860  0.2399 -0.0949  0.2154
78382W        W15876  32.014  13.180  17.261  0.0666  0.1863 -0.2002
78383W        W15877  13.663  24.485   7.575  0.0624 -0.0324 -0.0773
78384W        W15878   6.349   6.979   8.839  0.1114  0.4655 -0.2175
78385W        W15879  24.702  11.970  20.265 -0.3564 -0.1445  0.1746
78386W        W15880   2.584  32.171  21.133  0.0177 -0.1392  0.1089
78387W        W15881   3.917   8.426  17.995 -0.0857 -0.0224 -0.2043
78388W        W15882   8.071   5.458  21.141  0.2435 -0.0533  0.1682
78389W        W15883  21.916  23.862   2.175 -0.0572 -0.0951 -0.0360
78390W        W15884  14.697   6.674  12.230 -0.1172 -0.2511  0.1912
78391W        W15885   5.384  13.750   7.421  0.0872  0.1403 -0.5246
78392W        W15886  10.138  13.264  24.416  0.0812 -0.1805 -0.2155
78393W        W15887  30.818  23.768  14.976 -0.0545  0.1535 -0.2280
78394W        W15888  31.215  23.086   6.538 -0.2005  0.3198 -0.0315
78395W        W15889  13.879  18.420  15.774 -0.0491 -0.0026  0.1985
78396W        W15890  21.931   3.473  23.883 -0.0833  0.2863 -0.0552
78397W        W15891  23.741  17.844  19.789 -0.2580 -0.1456  0.0038
78398W        W15892   4.752  12.702  17.178 -0.3897  0.0369  0.0961
78399W        W15893  10.427   5.323   7.796  0.3198 -0.0435 -0.1032
78400W        W15894  23.283   0.731  16.795 -0.0951 -0.3280 -0.2132
78401W        W15895  14.922  22.380   5.308 -0.0362 -0.0731  0.1607
78402W        W15896   7.703  28.122  10.189  0.1404 -0.4426 -0.3051
78403W        W15897  24.015   6.180  14.634  0.4410 -0.1251  0.2308
78404W        W15898  12.991  26.373  13.139 -0.0995 -0.0817  0.0756
78405W        W15899   9.393   9.824   6.485 -0.0426  0.2393  0.1356
78406W        W15900  26.457  13.674  17.997  0.1389  0.0098  0.0178
78407W        W15901  13.150  13.007   3.661  0.4291  0.0340 -0.0924
78408W        W15902  15.542  10.332  23.103  0.1255 -0.0866 -0.0193
78409W        W15903   7.272  32.734  24.967 -0.1661 -0.1248 -0.3290
78410W        W15904  16.489   1.639   6.780 -0.2983  0.4876 -0.2983
78411W        W15905   7.261  29.233   8.733 -0.2401 -0.1565  0.1707
78412W        W15906  24.897  34.197   6.683 -0.1184 -0.1296 -0.4002
78413W        W15907  24.601  31.748   1.692 -0.0801  0.0095 -0.0208
78414W        W15908   9.054  18.891  22.232  0.1783  0.0582 -0.3235
78415W        W15909  29.373  27.893  17.922 -0.0201 -0.0518 -0.1605
78416W        W15910   8.745   0.631   5.121  0.3205 -0.1448  0.3100
78417W        W15911  34.770  17.386  12.707  0.3940  0.2893 -0.0299
78418W        W15912   7.104  11.654  22.849 -0.4880  0.0325 -0.2004
78419W        W15913   6.852  34.487  12.334 -0.2696  0.0448  0.2038
78420W        W15914  29.712   4.976  15.750 -0.3190 -0.0412  0.2003
78421W        W15915  31.833  32.113  13.692 -0.2181  0.0338  0.1446
78422W        W15916  15.391   9.569  25.524  0.2696 -0.0443  0.1867
78423W        W15917  26.549  24.490   8.722 -0.0518 -0.1121  0.1093
78424W        W15918  18.011  26.936   1.650 -0.0865 -0.4076 -0.0683
78425W        W15919  21.974  23.695  18.009  0.2143 -0.1868  0.2767
78426W        W15920   4.850   3.520   4.149  0.1611  0.1280  0.0413
78427W        W15921   8.584   5.616   5.373 -0.3416 -0.1452 -0.0724
78428W        W15922  15.414  31.507  24.650  0.2241  0.2317 -0.1878
78429W        W15923  24.782  23.405  12.686  0.1700  0.1194 -0.2561
78430W        W15924  30.093  12.653  10.908 -0.0162 -0.2548 -0.1375
78431W        W15925  30.214   7.304  19.403 -0.1160  0.0782  0.5186
78432W        W15926  11.720   5.746   0.285  0.0464  0.1122  0.0030
78433W        W15927  10.328   7.240   8.447  0.0483  0.2469  0.1642
78434W        W15928  25.353  22.491  19.636  0.2963  0.1336  0.0957
78435W        W15929   9.555   4.626   4.226 -0.2130 -0.0724 -0.1091
78436W        W15930  18.439  29.566   7.447  0.2716 -0.1619 -0.4223
78437W        W15931   6.235  20.975   6.999  0.1719 -0.2093 -0.0932
78438W        W15932  24.704  30.599   4.496 -0.2230 -0.2502  0.0340
78439W        W15933  13.627   6.945   0.166  0.0081 -0.1250  0.2247
78440W        W15934   6.532  27.953   1.138  0.0030  0.3914  0.0190
78441W        W15935  18.435   4.640   5.751 -0.0338  0.1093 -0.1321
78442W        W15936  26.795   6.817  26.079 -0.1988 -0.0667  0.0926
78443W        W15937   7.629  12.581   9.671  0.0181 -0.0359  0.1194
78444W        W15938  34.693  23.542  25.656 -0.3233 -0.3450 -0.0356
78445W        W15939   1.297  28.901   9.476  0.1499  0.0722 -0.3344
78446W        W15940  31.579   1.144  15.467  0.0708 -0.0780 -0.0565
78447W        W15941  16.632  16.852   0.165 -0.1582 -0.1558  0.0637
78448W        W15942   5.581  11.660   1.342 -0.2251 -0.0276 -0.0923
78449W        W15943  34.033  15.106   0.734  0.1545  0.1710 -0.0912
78450W        W15944  13.433  23.067  22.534 -0.0279  0.1000 -0.0018
78451W        W15945  33.614  23.106  13.628 -0.3970 -0.1545  0.0534
78452W        W15946  32.963  27.732  22.931  0.3183  0.2258 -0.2585
78453W        W15947  31.108  28.065   1.662  0.0896 -0.1417 -0.3353
78454W        W15948   6.857  23.132   0.136  0.0738  0.0535 -0.3275
78455W        W15949  34.014  33.837  20.793  0.3150 -0.2733  0.2375
78456W        W15950  30.291  34.836   1.065  0.1382  0.0073  0.0028
78457W        W15951  31.093  34.441  24.457 -0.0608 -0.0038 -0.0801
78458W        W15952  32.105   2.938   1.892  0.2116 -0.4101 -0.1431
78459W        W15953  14.031  33.037  22.477  0.1077 -0.0129  0.1526
78460W        W15954  34.240   7.277  12.664  0.1058  0.1478  0.1194
78461W        W15955   7.571  31.395   0.406  0.3253 -0.0474 -0.1235
78462W        W15956  12.336  23.740   1.021 -0.2490 -0.1928  0.0729
78463W        W15957  30.107   8.607  23.661  0.3729 -0.2964 -0.2608
78464W        W15958  14.637   1.018   3.222  0.1369  0.2456  0.0650
78465W        W15959  24.520  33.480   3.998 -0.0794 -0.0412  0.0561
78466W        W15960  34.384   0.584  24.672  0.1824 -0.2689  0.0564
78467W        W15961   4.481  11.386   2.829  0.0428 -0.0095 -0.3454
78468W        W15962  31.041  15.290  22.018  0.1413 -0.3236  0.1275
78469W        W15963  17.116  24.985   5.299 -0.3058  0.0209 -0.1310
78470W        W15964  10.768   8.528   0.246 -0.1014  0.0928  0.1295
78471W        W15965   3.802  27.744   8.788  0.2054 -0.1876 -0.1570
78472W        W15966  23.986  21.759  16.349 -0.1765 -0.2321  0.0826
78473W        W15967   6.476  34.400  23.299  0.0093 -0.0047 -0.0211
78474W        W15968  15.963  29.848   8.122 -0.1523 -0.2239  0.1888
78475W        W15969  21.209   5.425   6.657 -0.3828 -0.2753 -0.1640
78476W        W15970   5.806   7.919  21.261 -0.1293 -0.0176  0.1879
78477W        W15971  23.422   1.787  20.484 -0.5048 -0.0788 -0.2227
78478W        W15972  32.606  21.632   0.520  0.2401  0.0175 -0.1042
78479W        W15973  16.074   8.624  21.509 -0.1735  0.1076  0.0431
78480W        W15974  14.016  21.133   0.715  0.3961 -0.1826  0.0720
78481W        W15975  15.493  19.013  20.830 -0.0028  0.0352 -0.0605
78482W        W15976  16.229   3.545  18.471 -0.2735  0.1022  0.1127
78483W        W15977   7.922  10.967  18.753  0.0205 -0.1648  0.4812
78484W        W15978  33.084  18.573  25.181 -0.1220 -0.0315 -0.0937
78485W        W15979  14.200  16.418  19.835 -0.0066 -0.3385  0.3110
78486W        W15980  13.438  11.466   2.683  0.2332  0.1780  0.1026
78487W        W15981  25.810   1.417  11.635  0.0587  0.2512  0.1577
78488W        W15982  30.537  35.121  12.943 -0.4100  0.0992  0.1097
78489W        W15983  31.667   0.308  20.877  0.1159 -0.0265 -0.0176
78490W        W15984  11.190  16.867  23.742  0.2373 -0.0371  0.0142
78491W        W15985   2.600   3.790  26.240 -0.1432 -0.0006 -0.1790
78492W        W15986  18.362  28.991  23.432 -0.0133 -0.0330 -0.4957
78493W        W15987  17.064   8.783  21.576 -0.1530 -0.0436 -0.0705
78494W        W15988  33.780  34.995  25.283  0.3135 -0.1833  0.0957
78495W        W15989   1.153  22.985   2.436  0.0253  0.0234 -0.0463
78496W        W15990  15.284  15.769   2.571  0.0789 -0.1606  0.1849
78497W        W15991   3.961  12.711  19.844 -0.1025 -0.2809  0.1574
78498W        W15992  15.743  11.439   1.815 -0.2435  0.0077  0.0675
78499W        W15993   8.887  33.867  23.331  0.1671 -0.0253 -0.2850
78500W        W15994  14.146  17.804   2.111 -0.0671  0.0135 -0.0578
78501W        W15995   2.702  13.578  15.156 -0.2755  0.0964 -0.2050
78502W        W15996   4.736   5.983   0.307 -0.2696  0.1046 -0.1132
78503W        W15997  32.288  16.352  24.077  0.0613  0.0892 -0.0222
78504W        W15998  34.130  11.880  12.587  0.0922 -0.0510  0.0755
78505W        W15999  33.286  11.968  11.711 -0.2190 -0.0755 -0.0944
78506W        W16000   4.202   9.167  16.856  0.0461  0.0196  0.0263
78507W        W16001  10.065  34.330  15.624 -0.1440 -0.0386 -0.1397
78508W        W16002  12.672  11.368  22.629 -0.0581  0.0538 -0.2425
78509W        W16003  30.035   0.239   3.144 -0.0586  0.2114 -0.1359
78510W        W16004  15.289   0.467   0.627 -0.1640 -0.3072 -0.3460
78511W        W16005  14.351  24.523  25.344 -0.1878  0.1109 -0.0195
78512W        W16006  17.660  29.597  21.399  0.1776  0.1018 -0.0267
78513W        W16007  21.770  21.894  26.246 -0.0708 -0.3067 -0.0095
78514W        W16008   6.593   7.296  22.150 -0.0807 -0.2013  0.0733
78515W        W16009  23.361  10.579  26.072 -0.0671  0.0622  0.1358
78516W        W16010  15.851  32.303  25.208 -0.1079 -0.0730  0.3232
78517W        W16011   9.567   2.899   9.617 -0.0458  0.1266 -0.1500
78518W        W16012   8.828  13.516  12.235 -0.0470 -0.3681 -0.0327
78519W        W16013  21.484  12.202   1.252  0.2273 -0.0853 -0.0216
78520W        W16014   0.690   5.377   5.008  0.1817 -0.1401 -0.0055
78521W        W16015  34.121   3.234   6.490 -0.1350  0.1165  0.0232
78522W        W16016   8.972  11.404  11.741  0.1407 -0.0575 -0.0667
78523W        W16017  27.767   6.054  22.651 -0.1370  0.1195 -0.2153
78524W        W16018  16.779  26.200  12.732 -0.3263 -0.1163  0.2800
78525W        W16019  33.647  28.089   1.629 -0.0544 -0.0320  0.0952
78526W        W16020   4.885  27.062   9.971  0.0565 -0.0110 -0.2248
78527W        W16021   2.490   0.403  24.222 -0.1490 -0.0608 -0.3631
78528W        W16022  11.590  12.316  13.643 -0.4574  0.0213  0.1590
78529W        W16023  13.480   6.010  23.550 -0.0141  0.0451 -0.1232
78530W        W16024   8.416  22.596  23.311 -0.0482  0.2700  0.0355
78531W        W16025  12.966  14.250  20.160  0.0532 -0.2567 -0.2976
78532W        W16026  23.649  20.252  17.426 -0.1144 -0.0778 -0.2523
78533W        W16027   5.433  11.059  24.382 -0.1013 -0.4090 -0.4162
78534W        W16028  20.640  21.062   4.852 -0.0642 -0.0113 -0.0447
78535W        W16029  27.391   0.697   0.725  0.0822  0.0714  0.0509
78536W        W16030  17.562  18.678  12.651 -0.1002  0.0549 -0.2334
78537W        W16031  12.362  13.738   1.027  0.0920  0.0413  0.0748
78538W        W16032  29.825   4.010   3.756  0.1605  0.0965 -0.4946
78539W        W16033  11.847  24.913  16.926  0.1801  0.2493  0.0733
78540W        W16034  29.719  31.222   4.038  0.1895 -0.0156  0.0943
78541W        W16035   6.703   5.445  11.387 -0.1412  0.3623  0.0816
78542W        W16036  25.100  21.528  25.574  0.3447  0.0175 -0.0640
78543W        W16037   6.070   6.703   3.168 -0.0668  0.2038 -0.6022
78544W        W16038  14.585  34.802   8.527  0.0485  0.0991  0.1685
78545W        W16039   6.329  30.119   6.186  0.0226  0.0423  0.3989
78546W        W16040  31.053  28.774  23.687  0.2894  0.0143 -0.1086
78547W        W16041   1.783  27.030  17.234  0.0215  0.1574 -0.1053
78548W        W16042   6.413  12.049  20.275 -0.2680 -0.2460 -0.0916
78549W        W16043  12.428   3.246  12.221 -0.0233 -0.2196 -0.0964
78550W        W16044  10.822  30.547   8.351 -0.1355 -0.1804 -0.1425
78551W        W16045  27.839  10.651   6.665 -0.3990 -0.1696  0.0406
78552W        W16046  25.869  31.126  24.165  0.0475 -0.2287  0.1132
78553W        W16047  13.500  11.667   3.915  0.2000  0.1332 -0.1358
78554W        W16048   5.888  10.366  24.774 -0.1967 -0.0968 -0.2566
78555W        W16049  31.019  34.648  13.752  0.1730  0.3302 -0.3252
78556W        W16050   0.473   6.476   6.616 -0.0380  0.3127  0.1917
78557W        W16051  16.110  11.099  20.227  0.1576  0.0672  0.3108
78558W        W16052  16.193   2.728   1.551  0.1132 -0.0556  0.0410
78559W        W16053  20.009  29.574   7.036 -0.0743  0.0260 -0.0477
78560W        W16054  30.545   1.490  21.503 -0.1690  0.2251 -0.1296
78561W        W16055   4.960   4.437  22.029 -0.1884 -0.0560  0.1633
78562W        W16056   4.681   0.828   2.230  0.1996  0.0101  0.1146
78563W        W16057  12.953  16.315   0.715  0.2286  0.1930  0.2642
78564W        W16058  34.765  19.156   8.856  0.4037 -0.0345  0.1432
78565W        W16059  15.481   7.481  18.437  0.1574 -0.0226 -0.0194
78566W        W16060  31.455  27.758  19.288 -0.3087  0.1518  0.2468
78567W        W16061   9.276  20.049  25.305  0.0578 -0.1046 -0.0083
78568W        W16062  15.678  34.900   7.991 -0.1450 -0.1076 -0.1044
78569W        W16063   3.647   3.214  17.646  0.2371 -0.2002  0.1170
78570W        W16064  17.799   2.291   7.211 -0.0775 -0.2798  0.0688
78571W        W16065  28.403  16.667  22.916  0.0012  0.1854 -0.2851
78572W        W16066  28.630  17.128  24.455  0.0894  0.0952  0.1047
78573W        W16067  15.776   2.803  18.460  0.0640 -0.1715  0.0372
78574W        W16068  13.499  29.676  25.467  0.1756  0.1885  0.1699
78575W        W16069  25.076  29.122  25.647 -0.1013 -0.4201  0.2503
78576W        W16070  22.891  24.542  20.145 -0.0306  0.0215 -0.2518
78577W        W16071  10.403  21.147  10.713  0.2606  0.3001  0.4554
78578W        W16072  33.512  34.902   2.020  0.1801  0.0279  0.1768
78579W        W16073   4.244  22.203  24.714  0.0817 -0.2888 -0.2298
78580W        W16074  18.063  15.318  18.455 -0.2724  0.0415  0.3876
78581W        W16075  10.124   0.516  14.047 -0.4166  0.3218 -0.0726
78582W        W16076   8.189  31.524  24.056 -0.0729 -0.1733  0.1945
78583W        W16077  25.183  11.841  15.119 -0.1221 -0.0760  0.0542
78584W        W16078   5.083  19.206  24.790  0.2071  0.1287 -0.0386
78585W        W16079  16.727  26.636  11.476 -0.2941  0.0497 -0.1061
78586W        W16080  20.090  19.027  25.965 -0.0441 -0.4190 -0.3321
78587W        W16081  20.841  17.173   2.000  0.3468 -0.0438 -0.0536
78588W        W16082  30.384  29.074  26.184  0.0647  0.2049 -0.2233
78589W        W16083   6.242   3.668   2.296  0.1266  0.1937  0.0400
78590W        W16084   6.854   7.747  23.813 -0.1774 -0.2903 -0.0664
78591W        W16085  32.394   6.185  12.605 -0.0504  0.5428 -0.4931
78592W        W16086  17.135   4.890   3.955  0.0639  0.3526  0.2110
78593W        W16087  34.349   8.151  19.142 -0.0363 -0.0410 -0.2965
78594W        W16088  23.756  18.522  15.701 -0.0958 -0.0592  0.0475
78595W        W16089  20.250   8.115   8.696 -0.3060 -0.0098 -0.0116
78596W        W16090  16.645  15.912  13.037  0.3981 -0.1858  0.3079
78597W        W16091  31.057  12.944  21.286 -0.2518  0.0642  0.0455
78598W        W16092  31.140  28.260  14.507 -0.2118  0.0349  0.3092
78599W        W16093  14.736  10.946  25.402 -0.2764 -0.0998 -0.2079
78600W        W16094   3.228   1.383  18.282  0.2545  0.0803 -0.1465
78601W        W16095  25.433  13.432  18.786 -0.1948 -0.0774 -0.0206
78602W        W16096   3.890   0.445  11.741 -0.1868 -0.2368 -0.0950
78603W        W16097  21.163  11.955  19.235  0.0699 -0.2245 -0.0108
78604W        W16098  19.399  29.131  22.030 -0.0251 -0.2903 -0.0817
78605W        W16099   6.584   1.897  20.434  0.0865 -0.5154  0.3008
78606W        W16100  31.319  15.395  19.141  0.0429 -0.2305 -0.1790
78607W        W16101   0.144  15.278  24.553  0.0090 -0.2947  0.0265
78608W        W16102  27.459   0.512  13.206  0.0884  0.0099 -0.1181
78609W        W16103  14.974  30.656   4.172  0.0952  0.1212  0.2861
78610W        W16104   7.055  13.750  22.880 -0.1270  0.2229 -0.0176
78611W        W16105  13.869  20.947  23.516  0.2469 -0.3959 -0.1276
78612W        W16106  17.715  12.168  23.400 -0.1819  0.0735 -0.0107
78613W        W16107  26.099  30.331  25.268  0.1983  0.1563 -0.3705
78614W        W16108  31.811  12.449  23.475 -0.1050 -0.1365  0.1884
78615W        W16109  33.342   7.349  24.772 -0.1335  0.1572 -0.3931
78616W        W16110  14.838   5.856  23.184 -0.0325  0.1381  0.3452
78617W        W16111  26.246  10.441  13.457  0.3450 -0.0586  0.0235
78618W        W16112  15.715   9.925   5.591  0.1432  0.0486  0.2125
78619W        W16113  31.348  29.295   1.014  0.0601  0.2804  0.0720
78620W        W16114  26.358  13.924  10.117  0.0538  0.1652 -0.0601
78621W        W16115   6.695  11.164  20.194 -0.0879  0.1035  0.0640
78622W        W16116  29.137   5.252  15.113 -0.0894  0.1176  0.1561
78623W        W16117  24.364  25.907  22.256 -0.1580  0.0715  0.0438
78624W        W16118   9.246  13.426   8.637 -0.1816 -0.3110  0.0414
78625W        W16119  32.667   3.813  13.217  0.0583 -0.3041 -0.0416
78626W        W16120  16.942  16.252   2.484 -0.1008  0.3021 -0.0318
78627W        W16121   8.397   3.662  19.637  0.0300 -0.1750 -0.0759
78628W        W16122  23.057   8.035   1.942 -0.0243  0.0426 -0.2720
78629W        W16123   7.720   1.071   7.298  0.2274  0.2938  0.0701
78630W        W16124  14.882  34.857  11.115  0.4460 -0.0144 -0.0836
78631W        W16125  18.578   2.422   0.902  0.2825  0.1502 -0.0672
78632W        W16126   4.412  32.683  20.605  0.0749 -0.0263 -0.0778
78633W        W16127   0.551  21.238  20.418  0.3313 -0.0317 -0.0586
78634W        W16128  10.489  25.047  24.063  0.0037  0.0000 -0.0049
78635W        W16129  16.677   6.719  12.032  0.3914  0.0188  0.2426
78636W        W16130  27.245  32.278   3.891  0.0686  0.0416 -0.2691
78637W        W16131   1.338   2.305   4.420  0.2962 -0.4567  0.0889
78638W        W16132  24.813  25.594  12.593  0.0300  0.2227 -0.2425
78639W        W16133  31.850  22.096  11.300 -0.1481 -0.3290 -0.4008
78640W        W16134  10.499  32.278  10.247 -0.1577  0.0270 -0.3928
78641W        W16135  25.697  28.302  21.640 -0.1034  0.0347 -0.1786
78642W        W16136  34.234  13.919  20.945 -0.0707 -0.0475  0.0588
78643W        W16137   0.637  17.841  14.545 -0.0112  0.0911  0.1092
78644W        W16138   4.772   9.020  17.730 -0.0961 -0.2466 -0.0845
78645W        W16139   6.158  26.996   1.989 -0.0788  0.1270  0.2016
78646W        W16140  22.702  29.114  11.448  0.2438 -0.0775 -0.1653
78647W        W16141   5.029  35.044  11.150 -0.0360  0.1861  0.2916
78648W        W16142  27.987  31.057  20.364 -0.1096  0.2180 -0.0400
78649W        W16143  35.270  14.916   1.719  0.1689  0.0268 -0.2390
78650W        W16144  11.705   7.643  11.418 -0.1012  0.2098 -0.1254
78651W        W16145  16.174  33.073   9.796 -0.1728 -0.3348 -0.1520
78652W        W16146  26.976  13.941  15.168  0.1091  0.1995 -0.2533
78653W        W16147  26.400   2.202   0.147 -0.2118 -0.0170 -0.1632
78654W        W16148   4.750   3.036  10.642  0.2641  0.1340 -0.1258
78655W        W16149  31.427  23.506  15.057 -0.1555  0.1430 -0.0265
78656W        W16150  34.500   0.988  13.932 -0.2171  0.0660 -0.0495
78657W        W16151  24.629  30.852   2.793 -0.0442 -0.2123  0.0362
78658W        W16152  13.957  20.314   5.572 -0.0398 -0.0049  0.2492
78659W        W16153  34.501  30.737   0.352 -0.1831  0.2316 -0.3525
78660W        W16154  18.821  31.274  22.614  0.2960  0.0939 -0.1975
78661W        W16155  10.674  13.870   7.829  0.0610  0.3187 -0.2280
78662W        W16156  19.414   3.276  21.479  0.0557  0.2655 -0.1786
78663W        W16157  18.827  16.661  10.011 -0.0870 -0.0629  0.2698
78664W        W16158   1.749  35.121   3.606  0.1840 -0.0889  0.3130
78665W        W16159  22.591  19.021  23.854 -0.2195 -0.0803  0.0396
78666W        W16160  25.725   8.202  25.135  0.2217  0.0482  0.0065
78667W        W16161  31.422  21.086   5.556  0.3062 -0.2094 -0.0474
78668W        W16162  13.414  18.666  12.852 -0.2303  0.1992  0.0890
78669W        W16163  23.534  32.050  19.211  0.0202  0.3435 -0.2578
78670W        W16164  12.642  22.705   5.343  0.0762 -0.0527 -0.4506
78671W        W16165   2.728  21.619  23.036 -0.1471 -0.1257 -0.0267
78672W        W16166  18.216  22.348   0.195 -0.1747  0.1187 -0.3216
78673W        W16167  34.154  32.240  24.612 -0.0511  0.0948  0.0751
78674W        W16168  16.868  10.214  22.819 -0.0924  0.0075  0.0863
78675W        W16169   1.390  27.041  24.763 -0.1185 -0.0045 -0.0503
78676W        W16170  32.019  13.141  21.467 -0.1833 -0.2074  0.0223
78677W        W16171  17.085  34.280   6.214  0.1059  0.1955  0.2393
78678W        W16172  22.365   5.453  16.110 -0.0371  0.0594 -0.0494
78679W        W16173   2.552   5.940   1.803 -0.2053  0.0293 -0.0536
78680W        W16174  28.903   1.463  20.648 -0.2108  0.1664  0.2936
78681W        W16175  16.651  28.172  24.050  0.1227  0.1388  0.0844
78682W        W16176   8.815   3.277   9.415  0.1850  0.2217 -0.1052
78683W        W16177  15.857  22.873  10.034 -0.0666 -0.1775 -0.2492
78684W        W16178   6.646   6.627  21.188  0.0302 -0.2438  0.0998
78685W        W16179  16.749   9.993  18.706 -0.1018 -0.1038 -0.5154
78686W        W16180  24.831  30.378  25.408  0.1193  0.0565 -0.3247
78687W        W16181  30.517  28.007  19.758 -0.0429 -0.0592 -0.1552
78688W        W16182  28.967  10.332  22.369  0.0032  0.0859  0.1059
78689W        W16183   8.665  14.320   1.293 -0.1936 -0.1148  0.0519
78690W        W16184  19.349   0.760  16.872 -0.0644 -0.1081  0.0151
78691W        W16185  12.075  32.945   7.749  0.0599  0.2145 -0.0240
78692W        W16186  32.205  26.940  15.053  0.3046 -0.2881 -0.0959
78693W        W16187   7.328   0.543  22.787 -0.2416 -0.0416 -0.1547
78694W        W16188  26.485   7.201   0.663  0.0451 -0.0253  0.0121
78695W        W16189  24.386  24.257  19.582  0.0447 -0.0288  0.1000
78696W        W16190   9.500   8.478  20.658 -0.2984 -0.2066 -0.3881
78697W        W16191  31.567  11.177  12.002  0.0445  0.0025 -0.2670
78698W        W16192   0.121   9.356  15.566 -0.0799 -0.0072 -0.0049
78699W        W16193   4.387  31.867   1.871 -0.0437  0.0416  0.1966
78700W        W16194  31.458   4.411  12.236 -0.0950 -0.0746 -0.1355
78701W        W16195  34.322  28.233   3.753 -0.2498  0.2345  0.0639
78702W        W16196  18.471   9.041   2.428 -0.1748  0.2736  0.0576
78703W        W16197  28.765   0.090  12.560  0.1234  0.0101 -0.1565
78704W        W16198  10.989  12.500  14.141  0.0349  0.0130  0.0013
78705W        W16199  30.816  31.707   6.125  0.0514  0.3235  0.4022
78706W        W16200  29.366  33.212   1.920  0.3969 -0.3446  0.0630
78707W        W16201   8.803  24.784   0.533 -0.1013 -0.0948  0.0558
78708W        W16202  19.354  13.186   5.397  0.1762  0.0523  0.1876
78709W        W16203  16.291  31.462   1.220 -0.0102  0.1678  0.1922
78710W        W16204  18.383   3.632  19.577 -0.2135  0.1854  0.2240
78711W        W16205  24.179  21.979  16.812 -0.1189  0.4100  0.3263
78712W        W16206   1.809   9.530   1.275 -0.4368  0.0571 -0.0918
78713W        W16207  28.149   6.423  16.683 -0.1526  0.0952 -0.1086
78714W        W16208  11.578   8.677   1.542 -0.1723 -0.0482  0.0273
78715W        W16209  25.717   4.518  24.072 -0.0192 -0.1185 -0.2611
78716W        W16210  26.834  33.903  21.772  0.0640 -0.1707  0.0932
78717W        W16211   2.298   4.964  14.960  0.0373 -0.0767  0.0516
78718W        W16212  16.316  21.142  20.854  0.0413 -0.1504 -0.1540
78719W        W16213  14.235   4.898   5.957 -0.0743 -0.0192  0.2740
78720W        W16214   0.126  31.917  21.389  0.0143 -0.1785  0.2888
78721W        W16215  28.311  18.380   7.252  0.0760 -0.0685  0.1010
78722W        W16216  20.748  19.243   0.583 -0.0856  0.3845 -0.0311
78723W        W16217  24.002  14.098  16.930 -0.1865 -0.1054  0.0032
78724W        W16218   1.380   7.672   4.591  0.0040  0.0175  0.1431
78725W        W16219  35.284   1.860   2.691  0.2102 -0.0393  0.1342
78726W        W16220   0.399   9.421  14.596 -0.0761 -0.1691  0.0131
78727W        W16221  26.335   2.503   5.749  0.2900  0.1074 -0.0151
78728W        W16222  31.761  21.323  21.406  0.1249  0.4816  0.0912
78729W        W16223   6.854   3.898  19.324  0.0345 -0.1165 -0.2892
78730W        W16224  27.121   6.657  14.435 -0.1061  0.0819 -0.0208
78731W        W16225  24.390  27.392  25.128  0.0578 -0.2735  0.0643
78732W        W16226  24.190   8.696  22.641 -0.0207 -0.1273 -0.2423
78733W        W16227  10.476   3.968  12.698  0.1990  0.1844 -0.1715
78734W        W16228  16.295  15.494   4.461  0.1552  0.0696  0.1052
78735W        W16229  12.915  13.858  11.721  0.2051  0.3776  0.0381
78736W        W16230  31.613   1.140  25.739 -0.0650 -0.0286 -0.0705
78737W        W16231  14.641  21.447  13.565  0.1000  0.0545 -0.3981
78738W        W16232  14.195  19.751   2.787 -0.1120 -0.0539  0.0362
78739W        W16233  24.805  11.920   0.747  0.1953  0.1909  0.3618
78740W        W16234   5.222  28.128  14.183 -0.0186 -0.1957  0.2090
78741W        W16235   8.694   2.587  11.637  0.1507  0.0083  0.1658
78742W        W16236   2.034   8.927  23.217 -0.0632  0.2676  0.1891
78743W        W16237  24.016  33.820  15.669 -0.0020 -0.0687 -0.0924
78744W        W16238  17.460  17.333  21.784 -0.0011  0.0225 -0.0730
78745W        W16239  11.090  20.264  11.904  0.1476  0.2448  0.0425
78746W        W16240  28.658   0.893  23.522 -0.0887  0.1353  0.0496
78747W        W16241   5.880   7.924   9.444 -0.1261  0.0521  0.2852
78748W        W16242  32.492   4.456   4.513 -0.0514 -0.0933 -0.2656
78749W        W16243  28.347  14.017  19.572 -0.0702  0.1774  0.1498
78750W        W16244  28.888  12.298  11.531 -0.0057  0.2806 -0.2057
78751W        W16245  25.803  12.098  10.788  0.0334 -0.1202  0.1002
78752W        W16246   2.522   8.584   2.652  0.1898 -0.0204  0.0373
78753W        W16247   7.315  18.118  20.181  0.3507 -0.4619 -0.1845
78754W        W16248  13.374  26.998  10.187  0.0983 -0.0042 -0.0782
78755W        W16249  29.756  21.140  19.344  0.1643  0.0801  0.0060
78756W        W16250  15.357  23.311  24.169 -0.1105  0.0557 -0.1171
78757W        W16251   1.987   8.287  19.209  0.0092 -0.0297  0.2333
78758W        W16252  10.109   3.648   2.490 -0.2525 -0.0671  0.2919
78759W        W16253  29.177   4.942  10.484 -0.0595  0.0870 -0.2503
78760W        W16254  34.278   9.775  25.321  0.0630 -0.1398  0.0587
78761W        W16255  32.346  10.854   0.371  0.5048 -0.0345 -0.0323
78762W        W16256   5.137  10.411   2.094  0.0837 -0.1135 -0.0874
78763W        W16257   5.048  28.653  25.877 -0.2728  0.1699 -0.0892
78764W        W16258  14.575  11.805   5.466 -0.0312 -0.1659  0.3599
78765W        W16259  29.216  33.520   5.106 -0.0544 -0.2711  0.3868
78766W        W16260   8.299  15.729   8.903 -0.1229  0.0086 -0.3573
78767W        W16261   5.723  26.758   2.959 -0.1900 -0.0362 -0.2334
78768W        W16262  11.475   3.977  19.898 -0.2197  0.0249 -0.0766
78769W        W16263  14.763   6.280  25.268 -0.0177  0.0957 -0.1167
78770W        W16264  31.187  30.519   2.412 -0.0122  0.0577 -0.0766
78771W        W16265  32.124  12.982  18.580  0.2983 -0.3204  0.0950
78772W        W16266  34.152  21.337  19.135 -0.0854 -0.1068 -0.0930
78773W        W16267   2.608  30.257  25.427 -0.1288 -0.1093 -0.4054
78774W        W16268   4.007   3.234   4.403 -0.0338 -0.4153 -0.2982
78775W        W16269  15.772  10.058  21.815  0.2288 -0.1217 -0.0141
78776W        W16270  25.141  17.177  25.880  0.2148 -0.0208 -0.1688
78777W        W16271  29.594   0.692  13.648  0.0265 -0.2270 -0.2810
78778W        W16272  28.377  12.330  11.618 -0.2009  0.0911 -0.1335
78779W        W16273  17.904  17.809   4.084 -0.2051 -0.1304  0.2540
78780W        W16274  31.665  28.323  18.353  0.2168 -0.1366  0.1165
78781W        W16275  12.740  35.114   6.568  0.2792  0.1564  0.3155
78782W        W16276  31.720   3.608  11.651 -0.2413  0.0761 -0.2649
78783W        W16277  29.039  24.923  23.644 -0.0172  0.1551 -0.0690
78784W        W16278  19.483  32.262  15.723 -0.1403  0.0942 -0.0616
78785W        W16279  10.830  30.232  14.866  0.0602  0.1901  0.1181
78786W        W16280  10.852  32.822  11.438  0.0905 -0.1752 -0.3292
78787W        W16281   8.404  17.471   9.357 -0.0691  0.2473 -0.0549
78788W        W16282   5.495   0.002  21.501  0.1329 -0.0544  0.4907
78789W        W16283   7.983   2.013  23.308 -0.4743 -0.0093  0.2613
78790W        W16284  31.865   7.908   3.697  0.1515 -0.1051 -0.1126
78791W        W16285  32.831  32.750  22.878 -0.0324  0.1074  0.1900
78792W        W16286  14.654   6.298  24.793 -0.1041  0.1188  0.1752
78793W        W16287  18.055  28.137  24.613 -0.0072 -0.1311  0.3425
78794W        W16288  32.999  27.943  14.850 -0.1098  0.1431 -0.3617
78795W        W16289  13.242  21.705  23.961 -0.0303  0.2068  0.2124
78796W        W16290  22.167  25.880  25.347  0.0962  0.1909  0.4357
78797W        W16291  30.295   1.062  11.715  0.0083  0.1328 -0.0047
78798W        W16292  23.963  27.418  25.428 -0.0310  0.0464  0.0266
78799W        W16293   1.844   7.944  20.635  0.0458  0.2186  0.3208
78800W        W16294   3.244   4.397   0.094 -0.1107 -0.2549  0.3479
78801W        W16295  11.749  21.908   6.349  0.2023  0.1835 -0.1134
78802W        W16296  10.531  16.322   1.527  0.0142  0.0207  0.1428
78803W        W16297  20.372  14.670   1.585  0.1021 -0.1332  0.0768
78804W        W16298  34.385  13.712   0.032 -0.0195 -0.0510 -0.2954
78805W        W16299   9.583   2.787   7.870  0.2081 -0.1505  0.2210
78806W        W16300  23.394   1.193  13.075 -0.3017 -0.0328 -0.2112
78807W        W16301  19.180   1.625  21.446  0.1182 -0.0918 -0.0577
78808W        W16302   0.276  23.933  15.142 -0.1554 -0.0042  0.0719
78809W        W16303  27.940  16.908   5.413 -0.3914  0.2571 -0.2128
78810W        W16304  13.577  12.539   7.672 -0.0420 -0.0376  0.0083
78811W        W16305   1.464  34.325  25.108  0.1095  0.1297  0.1412
78812W        W16306  21.555  23.567  23.942  0.1052  0.0732  0.0421
78813W        W16307  15.290  19.794  12.745 -0.0785 -0.2579 -0.0438
78814W        W16308  32.125  25.353  22.279  0.1854  0.0024 -0.4702
78815W        W16309   8.520  27.017  16.418  0.0335  0.0292  0.1823
78816W        W16310   5.036  28.387   2.153 -0.0639  0.1840 -0.0294
78817W        W16311  25.940   4.520  12.009 -0.0668 -0.2510 -0.1278
78818W        W16312  24.993  33.899  14.419 -0.0196  0.0547 -0.0701
78819W        W16313  32.288  17.293  19.791  0.1718  0.0898  0.1307
78820W        W16314  15.808  18.553  20.394  0.2034 -0.0343 -0.1107
78821W        W16315  29.167  24.385  12.937  0.2132  0.1603 -0.0605
78822W        W16316   5.042   1.213   2.677  0.1756 -0.1113 -0.1789
78823W        W16317  16.706  31.680  20.997 -0.3062 -0.3170  0.0365
78824W        W16318  14.521  27.368  23.869 -0.1080 -0.1360 -0.1437
78825W        W16319  13.396  17.106   6.574 -0.2628  0.1989 -0.1395
78826W        W16320  26.057  21.379  24.983  0.2113 -0.1821 -0.1700
78827W        W16321  34.799  32.751  20.820  0.0514 -0.2232  0.0392
78828W        W16322   2.135   5.602   2.623  0.3831 -0.0532  0.0430
78829W        W16323  35.292   7.641  14.052  0.1001 -0.0321  0.1872
78830W        W16324  28.725  14.908  20.778 -0.0501  0.1612 -0.2677
78831W        W16325  25.469  11.051  22.359  0.1532 -0.0041 -0.0207
78832W        W16326   2.496  10.418  22.241  0.0993 -0.1509 -0.1737
78833W        W16327  30.860  15.405   0.514  0.1616  0.0789 -0.0193
78834W        W16328  14.263  34.130  25.791  0.1856 -0.1493  0.1245
78835W        W16329  10.501  24.283  26.167  0.0900 -0.1649  0.2511
78836W        W16330  13.772   4.659  11.110 -0.1170  0.3255 -0.0838
78837W        W16331  29.140   2.799   1.009  0.1449 -0.2096  0.1408
78838W        W16332  31.124  12.459  15.313  0.1713  0.0057 -0.1338
78839W        W16333   8.282  14.903   2.872 -0.0964 -0.0575  0.0633
78840W        W16334  11.752  32.509  15.447  0.2280 -0.3779 -0.0517
78841W        W16335  20.128  25.686   3.603 -0.0467  0.0500 -0.2962
78842W        W16336  34.891  32.802  15.045 -0.1632  0.0194  0.3308
78843W        W16337  34.608   4.140  18.669  0.2018 -0.0197  0.2165
78844W        W16338  23.360  25.026  14.424 -0.1317 -0.1801  0.0774
78845W        W16339  22.451  25.503   3.164 -0.2402 -0.1956  0.1664
78846W        W16340   9.712   0.284  12.541 -0.0070  0.0136  0.3420
78847W        W16341   0.919  16.624   0.143  0.2816  0.3217  0.0294
78848W        W16342  17.825  28.662   8.760  0.0231  0.0699  0.1818
78849W        W16343   6.542   9.872   5.648  0.0896 -0.2027  0.0649
78850W        W16344  15.137  33.596  25.860 -0.1254 -0.1102 -0.0959
78851W        W16345   4.583  29.261   9.671 -0.1774  0.1656 -0.0006
78852W        W16346  12.019  25.189   3.292  0.1294  0.0980 -0.2827
78853W        W16347   0.123  34.849   3.765 -0.4308 -0.0537  0.3824
78854W        W16348   5.652  20.141   4.368 -0.2769  0.0929  0.2643
78855W        W16349   3.627   8.054  18.168  0.1503 -0.1165 -0.0611
78856W        W16350   5.163  18.064  21.765 -0.0073 -0.0168 -0.1090
78857W        W16351  28.011  22.944   0.757 -0.1158 -0.1863  0.5298
78858W        W16352  17.702  26.897   4.399  0.2450  0.1777  0.0099
78859W        W16353  16.824   5.012  21.000 -0.0018 -0.2781  0.1229
78860W        W16354  16.803  34.089   5.868 -0.0298  0.1093 -0.1576
78861W        W16355  32.878  18.577  18.455  0.0522 -0.1699  0.1493
78862W        W16356  33.703   5.907  12.777 -0.0644 -0.0242  0.1511
78863W        W16357   0.828  25.981  22.381  0.0501  0.1424  0.1261
78864W        W16358  29.282  21.197  18.906 -0.2785 -0.0210 -0.0782
78865W        W16359  31.282  33.650  21.458 -0.2737  0.0694  0.0003
78866W        W16360  18.445  34.323  23.351 -0.4219 -0.0738 -0.3069
78867W        W16361  28.661   7.148  21.237 -0.0620  0.1847  0.0070
78868W        W16362   7.048  31.725  25.999  0.0994 -0.0372  0.0913
78869W        W16363  22.014  31.509  20.790 -0.3066  0.2353  0.3824
78870W        W16364   8.481  13.838  21.423 -0.1984  0.0571  0.0700
78871W        W16365  34.847  35.081   7.359 -0.0438 -0.0255  0.0657
78872W        W16366   8.821  24.861  12.645  0.4243 -0.1170 -0.1838
78873W        W16367   6.597  14.593  10.390 -0.3350 -0.3044  0.1196
78874W        W16368   5.716  29.365  25.266  0.0024  0.0348  0.0931
78875W        W16369   3.260  11.206  25.694 -0.0861 -0.2109  0.1892
78876W        W16370  32.906  23.500  23.136 -0.1965  0.0007 -0.1544
78877W        W16371   8.651  31.060   1.256  0.2372 -0.2470  0.0688
78878W        W16372  24.132  13.362  11.182 -0.0705 -0.1399  0.0593
78879W        W16373   0.103  26.605   2.518 -0.2289 -0.0708  0.1843
78880W        W16374  22.764  15.587  23.901  0.1073 -0.0357  0.2576
78881W        W16375  28.543   6.692   0.442  0.2026  0.0804 -0.1540
78882W        W16376  32.354   5.867   2.132  0.1699 -0.3432  0.1166
78883W        W16377  32.659  29.217   0.158  0.0652  0.0370  0.4429
78884W        W16378  25.304   0.837  24.253 -0.0343  0.0255  0.4062
78885W        W16379   9.444  16.029  24.877 -0.2277 -0.0248 -0.2064
78886W        W16380  14.866  16.781  14.535 -0.1609 -0.1181 -0.0817
78887W        W16381  25.811  14.276   0.401  0.0005 -0.0896  0.0320
78888W        W16382   1.122   2.854  18.848  0.3593  0.0005 -0.1449
78889W        W16383   9.680  34.448  12.998  0.0671  0.0735 -0.0781
78890W        W16384  12.074  34.029   0.922  0.1349  0.1769  0.5518
78891W        W16385  27.718  28.595  12.554  0.0165 -0.2006 -0.3291
78892W        W16386   9.460   0.007  13.487  0.1595 -0.1460 -0.0935
78893W        W16387  13.755  17.849  11.050  0.0464  0.3131 -0.1073
78894W        W16388  25.964   4.840  14.940 -0.3041 -0.1320  0.0413
78895W        W16389  25.400  19.590  13.644  0.0422  0.0688 -0.0996
78896W        W16390  32.971  26.195  23.865 -0.1600  0.1776 -0.0844
78897W        W16391   7.871  24.832  10.886  0.0863 -0.2872 -0.1832
78898W        W16392   9.174  34.140   9.091 -0.2124 -0.2179 -0.0843
78899W        W16393  24.024   4.975   0.134 -0.1624  0.1296  0.3540
78900W        W16394  22.175   4.555  16.794  0.0136  0.1015 -0.2179
78901W        W16395  12.012   0.432  23.518  0.2187  0.0193 -0.1063
78902W        W16396  20.207  30.281  23.826  0.3456 -0.0482 -0.1459
78903W        W16397  27.908  34.255  11.895 -0.0355  0.1179  0.0081
78904W        W16398   2.714  13.699  20.228  0.0371 -0.2895 -0.4916
78905W        W16399   1.693  21.885  18.762 -0.1984 -0.2636 -0.3272
78906W        W16400  22.074  13.919  21.742 -0.1339  0.4198  0.0569
78907W        W16401  23.701   5.917  19.582 -0.0823  0.0044 -0.0494
78908W        W16402   0.308   9.207   3.203  0.0807  0.1567  0.0078
78909W        W16403  10.071  32.283   2.708 -0.0400 -0.0426  0.0783
78910W        W16404  29.413  13.560  20.286 -0.0852  0.0575 -0.0652
78911W        W16405  34.357   6.525   1.020 -0.4469 -0.2179  0.1543
78912W        W16406  15.180  13.208   0.877 -0.3856  0.3850  0.1857
78913W        W16407  19.421  30.628   0.960 -0.4336  0.0491 -0.2194
78914W        W16408  31.325  28.910  19.185 -0.0241 -0.1033 -0.1479
78915W        W16409  28.405   5.752  24.100  0.1822 -0.1147  0.0635
78916W        W16410  33.825  21.890   7.260 -0.0471  0.3461  0.0997
78917W        W16411  20.173  25.188   3.337 -0.1413  0.1759  0.2803
78918W        W16412  19.538  21.387   2.952  0.1153 -0.2451  0.1470
78919W        W16413  12.670  10.790  22.626  0.0695 -0.2094 -0.2008
78920W        W16414  13.360   9.481  20.128  0.1257 -0.1578 -0.1470
78921W        W16415  16.629  25.470  12.903  0.2591  0.0411 -0.2612
78922W        W16416  34.009  28.145  16.260  0.1111  0.0523 -0.2019
78923W        W16417  19.291  31.283  24.128 -0.0993 -0.2822 -0.0757
78924W        W16418  16.479  14.995  12.392 -0.0902 -0.0801  0.1369
78925W        W16419   0.271  19.751  10.076  0.2215  0.1405  0.0712
78926W        W16420  31.968  14.036  21.019  0.2646  0.1911 -0.1800
78927W        W16421  18.129  34.788  25.456  0.2092  0.0871  0.3992
78928W        W16422   5.926  19.746  26.162  0.0574  0.2334 -0.1834
78929W        W16423  24.150   1.529   4.533  0.0085  0.3088 -0.3294
78930W        W16424  20.020  11.984  25.802 -0.1862 -0.0908 -0.0991
78931W        W16425  24.579  12.063  11.784 -0.0359 -0.2357  0.0571
78932W        W16426  34.504  32.642  25.967 -0.0617 -0.2905  0.0270
78933W        W16427  12.835  25.769  14.038  0.0252 -0.0770  0.0812
78934W        W16428  24.958  33.420   1.504 -0.0262 -0.2108  0.2351
78935W        W16429  29.946  27.093  21.509  0.2226 -0.0767  0.3249
78936W        W16430  11.190  21.793  15.052  0.0235 -0.0163  0.2220
78937W        W16431  17.206   3.098   6.253  0.1540 -0.1071 -0.0759
78938W        W16432  13.135  12.899  13.457 -0.1993  0.0217 -0.0814
78939W        W16433  10.353   9.713   5.247  0.1680 -0.0164  0.1281
78940W        W16434  10.323  19.958  12.965 -0.1539  0.3347 -0.5903
78941W        W16435  35.275  19.134   7.967  0.1340  0.0537 -0.2124
78942W        W16436  11.112   6.770  12.681  0.1538  0.0291  0.0259
78943W        W16437  32.788  33.809  25.524 -0.0748 -0.0652  0.3044
78944W        W16438  12.479  11.293   9.500 -0.0659  0.0043 -0.1675
78945W        W16439  29.958  31.899   4.576 -0.1886 -0.4498 -0.0471
78946W        W16440  12.250  30.395  12.629 -0.4172 -0.0618  0.0516
78947W        W16441   1.428   4.897   0.141 -0.2244 -0.0972 -0.0327
78948W        W16442  10.090   0.528   4.377  0.2207  0.3041 -0.2242
78949W        W16443  17.796  31.649   6.726  0.1156  0.0315  0.3780
78950W        W16444  21.863  13.218  15.975  0.0813  0.1223  0.1494
78951W        W16445  26.993   6.085  21.891 -0.1637 -0.3607 -0.0726
78952W        W16446  32.230  29.376   5.579 -0.1530  0.0474 -0.5676
78953W        W16447   6.112  26.114  23.327 -0.2329 -0.0329 -0.3289
78954W        W16448  22.898  15.952  22.574  0.3308  0.0541 -0.0299
78955W        W16449   4.247  26.207   6.440  0.1039 -0.0300 -0.3825
78956W        W16450  10.762  11.814   8.857 -0.0639 -0.0565 -0.0156
78957W        W16451  10.248  35.358  23.378 -0.1363  0.2001 -0.1835
78958W        W16452  24.545   1.357  14.792  0.0120  0.3413 -0.1123
78959W        W16453  12.772  25.461  15.479  0.1886 -0.0557 -0.1668
78960W        W16454   7.134  15.387  19.209 -0.3476  0.1161 -0.0912
78961W        W16455   1.475  26.698  22.752 -0.1288  0.1921  0.1037
78962W        W16456  29.374   8.138   1.894  0.0087  0.0129  0.5091
78963W        W16457  10.304  33.502  23.843  0.2989 -0.4290  0.1580
78964W        W16458  19.075  15.852  21.064  0.0623 -0.2471 -0.0347
78965W        W16459  15.192  20.027  10.118  0.2312  0.0765 -0.2109
78966W        W16460  16.864   4.728  18.695 -0.0631  0.1991  0.3033
78967W        W16461  28.527   4.541  12.038  0.0134  0.2927 -0.0542
78968W        W16462  25.374   2.907  25.188 -0.0099 -0.2067 -0.1126
78969W        W16463  34.700  28.842  20.563  0.0662  0.0775  0.5607
78970W        W16464  17.374  19.385  24.991 -0.2322  0.1134 -0.0859
78971W        W16465   2.959  29.442  22.091 -0.1534 -0.1288  0.3092
78972W        W16466   1.220  33.170   4.652  0.0759  0.0919  0.2206
78973W        W16467  31.780  13.437  21.118  0.0475  0.0519  0.0718
78974W        W16468  29.166  29.846  19.641 -0.1770  0.2667  0.2757
78975W        W16469  31.394  17.226  20.055 -0.0966  0.0844  0.0849
78976W        W16470   6.599   8.969   7.609 -0.1486 -0.0270  0.0135
78977W        W16471  17.922  18.101   8.209 -0.1938 -0.2349 -0.0507
78978W        W16472   6.230  34.668   1.465 -0.1525  0.0022  0.0678
78979W        W16473  20.979   2.107   0.078 -0.0257 -0.0204 -0.1493
78980W        W16474  24.777  21.213  17.755 -0.0368  0.2213  0.0198
78981W        W16475  29.992  22.928  10.070  0.0083 -0.1029 -0.1025
78982W        W16476  32.708  10.439  19.717  0.2004  0.0187 -0.0302
78983W        W16477  15.893   1.360  20.389 -0.1689 -0.1465  0.0094
78984W        W16478   0.518   3.245   6.394  0.0786  0.1331 -0.1591
78985W        W16479  32.312  13.038  14.656  0.0751  0.0556  0.1713
78986W        W16480   2.753  24.482  22.145 -0.0105 -0.0746  0.0074
78987W        W16481  32.120  30.203  24.189 -0.1508 -0.3104 -0.1151
78988W        W16482   2.704  12.274  20.353 -0.1074 -0.5493 -0.1857
78989W        W16483  27.048   9.375  12.813 -0.0102  0.2916  0.1699
78990W        W16484   5.945   1.934  22.274 -0.2967  0.2852  0.2900
78991W        W16485  10.626  25.818  10.726  0.0363  0.2951 -0.2340
78992W        W16486   9.728  25.277   1.667  0.0101 -0.1515  0.1271
78993W        W16487  30.093  10.664  18.358  0.3611  0.0285  0.0502
78994W        W16488  24.641   1.736   7.183  0.1026 -0.1309 -0.2819
78995W        W16489  27.067  15.412  15.275 -0.0519 -0.1007 -0.0693
78996W        W16490   0.154  13.433  11.696 -0.3536 -0.0022  0.0486
78997W        W16491  12.523  24.298   6.929 -0.1273  0.0960  0.2750
78998W        W16492   0.906  10.176  24.476  0.4041  0.2249  0.1764
78999W        W16493   9.943  22.376  14.236  0.1569  0.1261  0.1861
79000W        W16494  15.396   3.628  23.422 -0.0154  0.0498  0.1478
79001W        W16495   1.646   5.134  13.806  0.3650 -0.0320 -0.0400
79002W        W16496  20.951   9.072   1.504  0.2350 -0.0201  0.3071
79003W        W16497   5.940  31.288  14.764 -0.1782  0.2151  0.0049
79004W        W16498   8.126  24.289  14.583  0.1305  0.0059  0.2344
79005W        W16499  11.391  10.449  10.280  0.1447  0.2430 -0.3902
79006W        W16500  20.245  16.172  16.506  0.4550 -0.0518  0.2255
79007W        W16501   7.082  12.023   8.143 -0.0922 -0.0444 -0.2396
79008W        W16502  16.340  13.285   6.752  0.0425  0.1386 -0.0156
79009W        W16503  12.604  25.354   7.052 -0.1230  0.1253 -0.1359
79010W        W16504  26.088  28.779  19.599 -0.1562  0.1300  0.1868
79011W        W16505  28.200   3.827   1.093  0.2256  0.1701  0.1793
79012W        W16506  35.193  18.198  22.839  0.0767 -0.0199  0.2002
79013W        W16507  11.221   7.895  23.344 -0.3141  0.0313 -0.3128
79014W        W16508  14.853  15.453  25.984  0.0825 -0.0020  0.0216
79015W        W16509   8.684  33.387  20.843  0.0556  0.0175  0.1100
79016W        W16510   4.878  14.382  21.011  0.0612  0.2628  0.0915
79017W        W16511   3.197  31.246  18.481 -0.1894 -0.1389  0.2188
79018W        W16512  11.386   4.428   5.305  0.0493 -0.0335  0.0927
79019W        W16513   2.222  13.865   3.507  0.0556 -0.1684  0.0873
79020W        W16514   2.196   5.596  20.694 -0.2099 -0.1872  0.2029
79021W        W16515  12.399   3.336  10.968 -0.6061 -0.1340  0.1649
79022W        W16516  23.179   7.584  19.424  0.2255 -0.1654  0.1547
79023W        W16517  32.437   1.244  15.521  0.0974  0.0972 -0.3804
79024W        W16518  30.317   1.667   2.892  0.0304 -0.1730  0.4182
79025W        W16519  31.821  32.197  23.705 -0.0676 -0.1497  0.0984
79026W        W16520  18.453  14.367   0.878  0.1150 -0.4089 -0.0149
79027W        W16521  34.942   0.793   0.096  0.0280 -0.0947  0.3248
79028W        W16522  12.702  20.286  13.771 -0.2240  0.0127 -0.0797
79029W        W16523  20.952   8.531  25.085 -0.0951 -0.0441  0.0009
79030W        W16524  31.413   2.717   6.711 -0.2764 -0.0962 -0.1413
79031W        W16525  31.404   8.465  11.774  0.0247 -0.0533  0.2100
79032W        W16526  22.114   5.680   0.633  0.2139  0.1912 -0.1442
79033W        W16527  14.671  27.032  12.526 -0.1690  0.1720 -0.3096
79034W        W16528  33.169  34.709   1.626 -0.0903  0.0923 -0.0016
79035W        W16529   5.208   2.770  19.177  0.1968 -0.1646  0.0364
79036W        W16530  34.102  10.914  25.823 -0.1530  0.0630 -0.0518
79037W        W16531   9.255   2.805  21.232 -0.3023  0.0682  0.0017
79038W        W16532  17.375   0.607  18.522  0.0775  0.1417 -0.0428
79039W        W16533  30.097  11.864  11.304  0.0802  0.2014 -0.2924
79040W        W16534  26.242  14.627  18.134  0.1392  0.0446  0.2871
79041W        W16535  19.394  16.079  22.922  0.3161 -0.0019  0.2243
79042W        W16536  20.934  16.033  20.177  0.3499 -0.1349  0.1874
79043W        W16537  30.066  28.966  13.616  0.2026  0.3327 -0.2208
79044W        W16538   0.552   6.143   2.786  0.1360 -0.0390 -0.1382
79045W        W16539  14.077  31.033   6.983 -0.0046  0.0526  0.0684
79046W        W16540  28.841  21.503  20.091  0.1139  0.2259 -0.1896
79047W        W16541   9.304  25.618  14.260 -0.2044  0.1139 -0.1059
79048W        W16542  15.285  34.537  23.585  0.0567  0.4012 -0.0496
79049W        W16543   1.970   8.369   3.144  0.4089 -0.0263  0.0620
79050W        W16544  32.010  27.615  13.645 -0.0992  0.3927  0.2439
79051W        W16545  30.704   0.408  11.854 -0.3107  0.1762 -0.0649
79052W        W16546  18.066   6.103   2.705  0.1505  0.0977 -0.2786
79053W        W16547   0.502  18.171  12.748 -0.0577  0.0671  0.0410
79054W        W16548  33.677  28.524  20.332 -0.5150 -0.0417 -0.3604
79055W        W16549  27.121  15.693  10.290 -0.0092 -0.2811 -0.2445
79056W        W16550   4.493  18.570  16.551  0.0979  0.1029  0.1325
79057W        W16551  20.108  33.000  25.522 -0.2020  0.0902  0.0487
79058W        W16552   6.612  10.370   8.483 -0.0344  0.0634  0.0798
79059W        W16553  23.052  27.873  19.839  0.3849  0.3961  0.1742
79060W        W16554   0.800  24.378   4.046 -0.0491  0.0022 -0.1681
79061W        W16555  16.358  21.761   4.852 -0.0640 -0.1797  0.0456
79062W        W16556  20.364  26.398  18.206 -0.2135  0.1326 -0.0302
79063W        W16557  11.807  32.191   0.442 -0.0904  0.1515  0.0232
79064W        W16558  30.557  12.822  11.207  0.0848  0.1335 -0.0601
79065W        W16559  13.909  30.071   4.649 -0.0439  0.3157  0.0433
79066W        W16560  17.661  18.249  18.907  0.0539  0.2501  0.1334
79067W        W16561  13.528  28.335   0.220  0.0023  0.0968  0.0913
79068W        W16562   4.149  13.486   3.774 -0.2972 -0.2061  0.0923
79069W        W16563   7.425   8.253   3.232 -0.2463  0.0918  0.0525
79070W        W16564  27.844   6.953  23.767  0.4174 -0.2705  0.0050
79071W        W16565  21.693   2.413   2.337  0.0146  0.0491  0.1481
79072W        W16566   2.604   4.019  25.690  0.0468  0.1349  0.1694
79073W        W16567  25.866  31.478  12.057  0.2620 -0.1886  0.0244
79074W        W16568  10.845  29.393   9.168  0.1311  0.2700 -0.1388
79075W        W16569  27.350  27.305   2.150 -0.0820  0.3337  0.0591
79076W        W16570  18.719  32.009   6.929  0.0232 -0.1386 -0.2040
79077W        W16571  10.891  13.775   9.157  0.0536  0.1980  0.2679
79078W        W16572   0.913  14.548  11.264  0.1101 -0.1225  0.0283
79079W        W16573  20.042   9.751  22.364  0.0906  0.0808  0.1836
79080W        W16574   9.480   2.178  11.420 -0.0230 -0.1669 -0.1513
79081W        W16575  30.463  34.436  20.212  0.3753  0.2507  0.1652
79082W        W16576   8.980  16.041  19.809  0.3917  0.2097  0.0855
79083W        W16577  33.968  31.546  23.859  0.2661 -0.0204 -0.3293
79084W        W16578  32.531  19.141  16.308 -0.1634 -0.2176  0.0115
79085W        W16579   4.661  26.298  25.344 -0.0665 -0.0213  0.1867
79086W        W16580  28.718  28.476  21.172  0.0396 -0.1756 -0.0440
79087W        W16581  18.616  33.512   3.758  0.1382 -0.1270  0.2032
79088W        W16582  31.638  24.113  24.089  0.0854  0.1125 -0.1681
79089W        W16583  31.501  19.499  22.147  0.1248  0.0942  0.3108
79090W        W16584   8.150  30.209   0.479 -0.1215  0.0864  0.1637
79091W        W16585  26.526   9.161  19.569 -0.2443 -0.1458  0.1187
79092W        W16586  19.810  26.381   5.144 -0.2630 -0.3094 -0.0667
79093W        W16587  18.342   8.201   3.425  0.4554 -0.0217  0.0547
79094W        W16588  19.418  24.959  18.381  0.2035 -0.0783 -0.0072
79095W        W16589   9.633  30.062  12.663  0.1920 -0.2604  0.3685
79096W        W16590   8.345  35.008  21.792  0.2645 -0.3340 -0.1586
79097W        W16591   5.038  31.597   7.335  0.0555 -0.2993 -0.1111
79098W        W16592  20.270  28.127  21.866 -0.0009  0.1617  0.1456
79099W        W16593   8.078   6.780   5.648 -0.0522 -0.2605 -0.3088
79100W        W16594  28.190  26.836  12.401  0.2956  0.2017  0.1623
79101W        W16595   5.488  13.710   8.780  0.0098 -0.0320 -0.0967
79102W        W16596  13.114  11.101  22.570  0.0734  0.0488  0.0407
79103W        W16597   1.984  16.958  21.553  0.1266 -0.1196 -0.0646
79104W        W16598   6.231  10.102   9.200  0.1273  0.0074 -0.1635
79105W        W16599   4.573  29.010  14.155 -0.2028 -0.0970 -0.5430
79106W        W16600  10.342  11.174   9.457  0.2721 -0.0005  0.0705
79107W        W16601   5.028   6.526   3.071 -0.1502  0.2124 -0.1970
79108W        W16602   2.437  26.419   2.384  0.2574 -0.2070 -0.0133
79109W        W16603  10.633  30.088  23.500  0.4834  0.1491 -0.1083
79110W        W16604   9.740  23.800  10.470 -0.0460 -0.3798 -0.1213
79111W        W16605  15.838  18.836   0.768 -0.0248 -0.0404  0.4589
79112W        W16606  16.615  10.452   0.603 -0.3314 -0.1355 -0.0847
79113W        W16607  14.889  32.419  24.176 -0.2285  0.2514  0.0520
79114W        W16608  31.323  11.404  26.224 -0.0615  0.0217 -0.0763
79115W        W16609  15.980  16.584   9.706  0.1786  0.0471  0.0156
79116W        W16610  24.371   5.310   1.578 -0.2940 -0.1491  0.1676
79117W        W16611  13.084  22.871  16.308  0.0493  0.1145  0.3901
79118W        W16612  17.576   3.350   0.771 -0.0997  0.1420 -0.0234
79119W        W16613  30.328  25.493  15.388  0.3960  0.3193 -0.1703
79120W        W16614  11.351  26.542   4.033  0.2361 -0.1340  0.3147
79121W        W16615  26.522   1.483  18.508 -0.1994  0.1612  0.0259
79122W        W16616  28.994  30.463  13.902  0.5861  0.1255  0.2836
79123W        W16617  15.303  22.619   6.928 -0.0492 -0.2241  0.4076
79124W        W16618  20.644   9.584  20.725  0.1127 -0.5275  0.2710
79125W        W16619  28.521   9.124  24.636  0.0495  0.2693  0.2164
79126W        W16620  30.025  22.061  21.237 -0.2056 -0.1702 -0.1192
79127W        W16621  20.816  19.804  17.620 -0.0168 -0.3859  0.4988
79128W        W16622  13.149   1.355  25.219  0.1042  0.1274  0.1188
79129W        W16623  18.725  19.986   5.413  0.0879  0.1114  0.0868
79130W        W16624  33.015  29.018  11.435  0.0170 -0.0452  0.0578
79131W        W16625  23.640  12.506  17.010  0.0662 -0.1487  0.1209
79132W        W16626  17.067   5.829  25.235 -0.0873 -0.0692  0.3213
79133W        W16627  17.913  27.328   3.785  0.3297  0.0909 -0.3723
79134W        W16628  17.058  33.535   5.166 -0.2468 -0.0813 -0.3930
79135W        W16629  30.001  27.246  19.429  0.0696  0.2063 -0.0239
79136W        W16630  29.946   2.556  13.705  0.0415  0.1003  0.0413
79137W        W16631  18.529   3.514   3.734 -0.0567 -0.1606 -0.2343
79138W        W16632   4.532  24.543  20.696 -0.0452  0.1871 -0.1864
79139W        W16633  31.330  33.014  14.728 -0.1324  0.1310 -0.0166
79140W        W16634  23.859  19.562   0.821  0.0487 -0.1747 -0.0977
79141W        W16635   3.431  33.852   5.126 -0.4202 -0.0880  0.0202
79142W        W16636  25.653  32.317  24.400  0.1784  0.3507  0.0900
79143W        W16637   5.946  12.673  24.667 -0.0368 -0.1625 -0.2275
79144W        W16638  12.327   6.252   2.890 -0.0552 -0.1261 -0.2212
79145W        W16639   2.411  29.391  24.032 -0.0299  0.2722 -0.2880
79146W        W16640  27.492  28.598  12.990  0.0201 -0.0287 -0.0590
79147W        W16641  22.135  15.013  21.895 -0.1734 -0.1281 -0.1278
79148W        W16642  12.281   2.016  21.392  0.2114 -0.1934 -0.1472
79149W        W16643   6.841  29.107  10.984  0.1517  0.0481  0.1534
79150W        W16644  28.772  30.890  17.055  0.2163  0.1015 -0.1900
79151W        W16645   8.080  31.148   7.985  0.0201 -0.0348  0.0937
79152W        W16646  30.257  26.407  22.825 -0.1202  0.0187  0.1370
79153W        W16647   7.317  31.933   7.699 -0.2170 -0.1014  0.0868
79154W        W16648  10.468  25.310   2.667 -0.1781  0.0652  0.0875
79155W        W16649  18.938   9.711  24.613 -0.1501 -0.1473 -0.0046
79156W        W16650  15.435   8.244  10.798  0.1326 -0.2282 -0.4803
79157W        W16651  14.794   7.642   1.168  0.0135 -0.0752 -0.4195
79158W        W16652  15.894  14.558  22.599 -0.0775 -0.0894  0.1148
79159W        W16653  19.799  15.607  26.223 -0.0226 -0.2039 -0.2591
79160W        W16654  22.447  26.315  24.165 -0.1495 -0.0755 -0.0540
79161W        W16655  32.517   2.120   5.165  0.1125  0.1280  0.0072
79162W        W16656  16.511  16.270  21.689  0.2527 -0.0214  0.1801
79163W        W16657   8.425  18.493  11.041 -0.1164 -0.2095  0.5307
79164W        W16658  14.476  20.270   3.485  0.0194  0.1609 -0.3223
79165W        W16659  28.292  26.185  23.670  0.1796 -0.1456  0.4100
79166W        W16660  23.811  35.307   4.514 -0.1566  0.0847 -0.0822
79167W        W16661  12.302  23.217  14.989  0.0540  0.0870 -0.0114
79168W        W16662  34.809  23.885  13.429 -0.2973  0.2438  0.0240
79169W        W16663  30.053  16.251  20.780 -0.0540 -0.1432  0.0623
79170W        W16664  22.605  20.720  13.284  0.2930 -0.2257  0.0580
79171W        W16665  20.068  23.155  25.202  0.2622  0.1508  0.0025
79172W        W16666  22.565  12.011   2.056  0.0564 -0.1776 -0.0757
79173W        W16667   0.979   8.697  22.530 -0.1019  0.2606  0.2118
79174W        W16668  32.004  20.174  13.956  0.0027  0.1759 -0.1063
79175W        W16669  23.650  16.385  20.360  0.0504  0.1687 -0.3410
79176W        W16670  17.684  20.089  19.260 -0.1431  0.0562  0.0526
79177W        W16671   6.051  16.025  25.659  0.2517  0.2931 -0.2796
79178W        W16672  33.521  19.628   9.102 -0.1988 -0.0098  0.0562
79179W        W16673  18.341  17.210  10.125 -0.1187 -0.1786 -0.2264
79180W        W16674  11.660  24.169  13.104  0.0960 -0.1175  0.0529
79181W        W16675  22.220   6.249  25.966  0.4613 -0.1214 -0.2163
79182W        W16676  19.821  31.079  24.161 -0.3230  0.1805 -0.1236
79183W        W16677  15.563  29.770  25.617  0.0204  0.1217 -0.0741
79184W        W16678  13.685   4.327  21.907  0.0742  0.0981  0.1014
79185W        W16679  32.936  33.943   2.350 -0.0254 -0.0111  0.0212
79186W        W16680  18.351   3.056  17.074  0.1153 -0.0919 -0.0153
79187W        W16681  18.909  17.423   5.354  0.1346 -0.0554  0.0011
79188W        W16682   3.921  22.573  20.090  0.1640  0.0948  0.1217
79189W        W16683   4.192   7.706  24.659  0.1605 -0.0322  0.1549
79190W        W16684  10.637  30.959  24.806  0.0084 -0.1311 -0.1905
79191W        W16685  14.126  23.096  12.467  0.2070  0.0563  0.3239
79192W        W16686  20.286   9.366   5.308  0.1209 -0.1070  0.0335
79193W        W16687  28.079  14.150  19.119 -0.0740 -0.3306 -0.3174
79194W        W16688  25.093  30.176  17.602 -0.0024 -0.0907 -0.1377
79195W        W16689  30.374  13.975  10.520 -0.1921 -0.2403 -0.1610
79196W        W16690  30.237  28.519   1.582  0.2225 -0.0308 -0.2289
79197W        W16691  28.822  27.063  24.738 -0.2478  0.0678  0.0779
79198W        W16692   2.284   6.950   5.294 -0.2217  0.0062 -0.0697
79199W        W16693  33.801  11.723  20.321 -0.3487  0.0776 -0.0321
79200W        W16694  17.899  23.891  11.773 -0.0171  0.2117  0.2709
79201W        W16695  32.562  14.244  12.204  0.4022  0.0697 -0.0009
79202W        W16696   8.482  33.262  24.217 -0.1145  0.0738  0.2350
79203W        W16697  15.809  17.478   6.828 -0.1547  0.1696  0.1394
79204W        W16698  16.869  11.329   2.293  0.1898  0.2901  0.0578
79205W        W16699  16.472   6.065   2.943  0.0444 -0.6036 -0.3006
79206W        W16700  30.940  26.396   9.674  0.0407  0.0667 -0.2526
79207W        W16701  11.210   8.913   0.329 -0.0793  0.1377 -0.1435
79208W        W16702  30.506  12.128  19.787  0.1903  0.2650  0.1065
79209W        W16703   1.263   4.159  21.023  0.1624  0.5092 -0.0946
79210W        W16704  17.088  19.283  20.310 -0.4000 -0.2431 -0.0725
79211W        W16705  22.793   7.613  19.794  0.0062  0.1003 -0.0908
79212W        W16706  21.849  12.552  19.449  0.0266 -0.1991  0.0117
79213W        W16707  20.054   6.900  20.836  0.6420 -0.0068  0.0416
79214W        W16708   2.247  29.248   3.446  0.0399 -0.1319  0.0016
79215W        W16709  28.011  10.045   9.139 -0.2254 -0.0777 -0.1880
79216W        W16710  12.784  22.534   9.906 -0.1314  0.0451 -0.0509
79217W        W16711  32.839   7.180   3.925  0.0458  0.2471 -0.2344
79218W        W16712  14.051   3.012  24.064  0.1726 -0.0599  0.4779
79219W        W16713   1.756  31.798  10.075 -0.0413 -0.5856  0.1727
79220W        W16714   3.473  10.820   5.401  0.0847  0.0293 -0.0668
79221W        W16715  12.412  10.227  20.900 -0.0588  0.1126 -0.0447
79222W        W16716  30.123   9.338   8.629 -0.0953 -0.0583 -0.1797
79223W        W16717  20.392  11.201  26.164  0.0314  0.2675 -0.0364
79224W        W16718  21.293  16.854   2.711  0.1800  0.2315 -0.0555
79225W        W16719  23.051   4.557  23.093  0.0066 -0.1976 -0.1215
79226W        W16720  16.214  25.828  15.496 -0.0307  0.2653  0.1183
79227W        W16721  20.189  18.366   0.888  0.2683 -0.0101 -0.2217
79228W        W16722   9.656   3.824   0.898  0.1618  0.0444 -0.1136
79229W        W16723  30.972  23.955  17.450 -0.0928 -0.0576 -0.0613
79230W        W16724   8.891  31.170   0.082 -0.0159 -0.2470  0.0589
79231W        W16725   0.032   8.264  19.298 -0.2900  0.1046 -0.0166
79232W        W16726  19.195  12.468   1.235 -0.0165  0.2403 -0.2392
79233W        W16727  18.541  32.524  18.195 -0.0062 -0.2309 -0.2381
79234W        W16728  28.168  21.570  22.598  0.2355  0.0485 -0.0278
79235W        W16729  22.530  16.989  16.302 -0.2791  0.3572  0.0598
79236W        W16730  13.456  26.829   9.688  0.1689 -0.0058  0.0518
79237W        W16731   1.129   5.885  15.824  0.4739 -0.4438 -0.3234
79238W        W16732  19.099  33.352  20.264 -0.2478 -0.2792  0.0085
79239W        W16733  25.129  19.399   1.220 -0.2727 -0.0052  0.0221
79240W        W16734  15.100   8.405  25.804  0.0224 -0.2033 -0.1091
79241W        W16735  16.243  17.350   7.097 -0.1344 -0.0080  0.2605
79242W        W16736   5.608  10.958   9.862 -0.0680  0.5210 -0.0853
79243W        W16737  11.679  16.616   3.361 -0.2310  0.0278 -0.0676
79244W        W16738  12.126  29.447   4.816  0.1158  0.2639 -0.2141
79245W        W16739   8.573  12.055  19.960  0.1453 -0.0631 -0.1069
79246W        W16740  15.906  27.603   5.971  0.1512 -0.0298 -0.0733
79247W        W16741  17.666   6.507  10.147  0.3257  0.2498  0.1440
79248W        W16742  29.080  29.681  24.195 -0.0698  0.1631 -0.2153
79249W        W16743  25.083  31.590  19.400  0.1042  0.2635 -0.1216
79250W        W16744  25.057  26.129   2.797  0.2848 -0.2181 -0.0907
79251W        W16745  33.441   7.723  18.266  0.1678 -0.0028  0.1232
79252W        W16746  18.398  27.672   7.406  0.1829 -0.0618 -0.1185
79253W        W16747  15.356  14.423  12.754 -0.0686  0.0687 -0.3906
79254W        W16748   4.254  34.625  12.684  0.2817 -0.0331  0.1053
79255W        W16749   2.459  19.998  20.142 -0.0929  0.1740 -0.2838
79256W        W16750  14.923  21.009   1.940  0.2500  0.3292  0.2680
79257W        W16751  31.679  13.524  25.251  0.1381 -0.1139 -0.1127
79258W        W16752  17.618  20.818  20.566 -0.2235 -0.0643  0.2581
79259W        W16753  34.002  27.985  25.890 -0.0862 -0.0454 -0.2212
79260W        W16754  32.454  11.632  20.283  0.0469 -0.0478 -0.3111
79261W        W16755  14.474  16.529   0.174 -0.2792 -0.2094 -0.0970
79262W        W16756  34.357  11.692  20.447  0.2539  0.0332 -0.2942
79263W        W16757   4.097   9.823  18.430 -0.5524 -0.1049  0.0788
79264W        W16758   2.030  29.497   9.333 -0.0134 -0.1737  0.0767
79265W        W16759   6.509  30.705   1.321 -0.0322  0.2225 -0.3758
79266W        W16760  14.592  32.837   1.689  0.1271  0.0747  0.0632
79267W        W16761   4.368  24.789   0.584  0.0368  0.2676 -0.0920
79268W        W16762  10.539  18.377  25.679 -0.1286 -0.1073  0.0746
79269W        W16763   9.472  31.083  22.340  0.1437  0.0761  0.0855
79270W        W16764  27.269  10.136  26.145 -0.0084  0.1286  0.2271
79271W        W16765   5.010  12.949   2.076 -0.1534 -0.1146 -0.0699
79272W        W16766  14.566  32.325  25.112 -0.2881  0.0180  0.0239
79273W        W16767  10.076   2.858  12.300 -0.0405 -0.0036 -0.1897
79274W        W16768  20.243  23.773   7.768 -0.0160 -0.2209 -0.0471
79275W        W16769   7.906  16.276   5.098 -0.1590 -0.0093  0.2135
79276W        W16770  26.283   1.196   0.248 -0.0023 -0.0513  0.0946
79277W        W16771  19.008  27.437  19.772  0.1278 -0.3151 -0.0240
79278W        W16772  28.936  32.150  16.601 -0.0353  0.2060  0.0748
79279W        W16773   2.387  34.159  25.993 -0.3297 -0.0689 -0.1348
79280W        W16774  34.795  13.070  24.290  0.2151  0.4132  0.2375
79281W        W16775   5.648  28.124  20.662 -0.0076 -0.4488 -0.1833
79282W        W16776   1.969   5.392   6.323  0.0140  0.1324 -0.2261
79283W        W16777  13.774   5.797  11.051  0.0927 -0.0853 -0.0437
79284W        W16778  27.731  21.523   8.335 -0.1257  0.0035  0.0641
79285W        W16779  25.465  24.919  20.113 -0.2407 -0.4297 -0.1157
79286W        W16780  20.005  11.532   2.502 -0.0199  0.4857  0.3079
79287W        W16781  29.413  15.873   9.876  0.1417  0.2688 -0.0192
79288W        W16782  12.482  26.701  24.404 -0.3626 -0.1719 -0.3012
79289W        W16783  11.415   9.040  10.554  0.2873  0.0351 -0.1584
79290W        W16784  30.682  29.830  24.734 -0.1920 -0.1641  0.1570
79291W        W16785  33.050  34.910   5.954 -0.0374 -0.1134 -0.0124
79292W        W16786   8.429  26.892  25.859 -0.5289  0.1390 -0.0229
79293W        W16787  17.481   6.621   7.063  0.2457  0.0504 -0.0419
79294W        W16788  10.774  34.655  11.008  0.3170  0.2103  0.0692
79295W        W16789  20.036  34.370   6.131 -0.1807 -0.0658 -0.0065
79296W        W16790   7.259  17.930   7.537  0.1690 -0.4579  0.0582
79297W        W16791  20.152   8.316  11.313 -0.0135  0.0505 -0.1518
79298W        W16792  16.643  21.493  11.467 -0.2841 -0.0942 -0.0002
79299W        W16793   1.303  33.655   4.940 -0.0890  0.1810 -0.0226
79300W        W16794  29.316  23.023  18.657 -0.3721  0.2048  0.1462
79301W        W16795  21.276   4.784   4.372  0.0743  0.0375  0.2354
79302W        W16796   1.346  32.233  17.428  0.0757  0.3388 -0.3547
79303W        W16797  29.096  19.993  18.773 -0.1118  0.4497  0.2381
79304W        W16798  18.384  24.303   8.609  0.1820 -0.3849  0.2856
79305W        W16799   9.537  21.389  24.987  0.0525 -0.0398 -0.1288
79306W        W16800  23.304  28.668  17.913  0.0567  0.3120 -0.1690
79307W        W16801  21.095   7.455   1.602  0.1651 -0.3481  0.2404
79308W        W16802  12.730  14.023  24.379 -0.0191  0.2435  0.1525
79309W        W16803  28.499  24.814  20.608  0.0168 -0.2809 -0.0167
79310W        W16804  18.279  20.679  19.809  0.0845 -0.3333 -0.2777
79311W        W16805  31.555  26.385  24.087 -0.0998  0.1603  0.0427
79312W        W16806  19.911   3.755   5.332  0.0057  0.0689  0.0137
79313W        W16807  25.051  12.123  16.707  0.3809 -0.2221 -0.0061
79314W        W16808  28.665  27.157  16.199  0.1639  0.2539 -0.0521
79315W        W16809  29.785  22.743   7.126 -0.2542  0.1865 -0.0418
79316W        W16810  15.325   3.313  26.239  0.0104  0.4992  0.2105
79317W        W16811  33.095   7.700  23.939 -0.0946 -0.0561  0.2086
79318W        W16812  21.038  20.435  21.477  0.0669 -0.2370  0.1105
79319W        W16813   3.898  23.439   5.611 -0.1574  0.0839  0.2047
79320W        W16814  18.357  14.588   8.460 -0.0737  0.0375 -0.0438
79321W        W16815  30.122  15.057  14.489  0.0098 -0.2878 -0.0174
79322W        W16816  17.185   4.224   0.771 -0.0253 -0.2003 -0.1898
79323W        W16817  15.633   9.558   8.648 -0.2357 -0.0586 -0.0670
79324W        W16818   1.197  33.596  17.335  0.0142 -0.2520  0.1883
79325W        W16819  16.913  11.968   3.529  0.4154 -0.1221  0.0164
79326W        W16820  10.109  16.808  10.611 -0.0553  0.0123 -0.0343
79327W        W16821   4.879   2.177   2.509  0.2164 -0.0907  0.1601
79328W        W16822  33.231  23.008  16.733  0.1546 -0.1289 -0.1732
79329W        W16823  10.892   4.853   2.042  0.0329  0.2220 -0.3269
79330W        W16824  29.478  33.270  13.173  0.2035  0.1126 -0.2841
79331W        W16825  24.681  23.476   0.197  0.0625 -0.0533 -0.1190
79332W        W16826  10.644   8.009  24.013 -0.3508  0.3840 -0.0334
79333W        W16827  13.704   8.631  26.168  0.0949  0.1135  0.1569
79334W        W16828  15.503  24.100   4.116  0.0737  0.1260 -0.2446
79335W        W16829   9.097  26.944   1.204  0.1199  0.0304 -0.3109
79336W        W16830  29.907  20.543  17.645  0.0761 -0.2546 -0.1419
79337W        W16831  33.101  34.143  14.217  0.2233 -0.0116 -0.1790
79338W        W16832  26.634  29.987  23.494  0.0333 -0.0468  0.2794
79339W        W16833   9.836   7.227   6.911  0.2414 -0.0734  0.0191
79340W        W16834   1.610  11.259   1.643 -0.2469 -0.0219  0.1572
79341W        W16835  22.829  22.391  23.741 -0.1394  0.0014 -0.0346
79342W        W16836   9.048  25.320  12.102 -0.4886  0.0936 -0.0105
79343W        W16837  17.455   8.750  25.136 -0.2859 -0.0505 -0.0251
79344W        W16838   6.429  33.966  23.583  0.0215  0.2029  0.2021
79345W        W16839  11.298   9.539  24.970  0.0702 -0.0065  0.2898
79346W        W16840  19.353   7.141   8.903  0.3317  0.5013 -0.2155
79347W        W16841  11.442  28.747   2.815  0.1719  0.0381 -0.4734
79348W        W16842  32.119  31.568  24.052  0.2477 -0.1509  0.0421
79349W        W16843   8.003   9.939  26.123  0.0828  0.3227 -0.1364
79350W        W16844  25.858  34.747   5.938  0.1709  0.1153  0.1946
79351W        W16845  17.333  11.923   1.629  0.2674  0.0592  0.0377
79352W        W16846  19.616  25.654   3.672 -0.0624 -0.0631  0.2442
79353W        W16847  14.736  29.120   8.366 -0.0939 -0.1042  0.1243
79354W        W16848  33.486  28.489  24.975  0.0100 -0.2634  0.5468
79355W        W16849  25.713  28.383  13.669 -0.0812  0.2344 -0.0077
79356W        W16850  10.188   1.705  11.292 -0.1029  0.1468 -0.0362
79357W        W16851  24.909   7.638  21.156  0.3386  0.1753 -0.1425
79358W        W16852  11.699  19.576   6.506  0.1534 -0.1304 -0.2922
79359W        W16853  30.915  32.625  12.270 -0.0318  0.0698  0.2859
79360W        W16854  18.729  34.915  19.481 -0.1745  0.0295 -0.2389
79361W        W16855  30.975  20.350  22.405  0.0665  0.1280 -0.3188
79362W        W16856  32.773  23.731  17.038  0.2593  0.2036  0.0376
79363W        W16857   1.402  21.855  20.801  0.0046 -0.1206  0.0731
79364W        W16858  28.404  29.182  25.725  0.1082  0.0847  0.1352
79365W        W16859   2.835  20.550  21.961  0.0755 -0.0438 -0.1009
79366W        W16860  20.455  33.557   5.991 -0.3009  0.2323  0.0726
79367W        W16861  34.959   7.769  18.075 -0.3097 -0.2178  0.0299
79368W        W16862  28.023  30.563  25.548  0.0852 -0.0684 -0.1696
79369W        W16863  21.856  30.069  17.661 -0.1442 -0.0759 -0.1154
79370W        W16864   8.400   4.431  25.843  0.0476  0.1894  0.1819
79371W        W16865  32.164  12.290  18.404 -0.0546 -0.0021 -0.0097
79372W        W16866   9.439  24.585  14.477  0.1395 -0.1800  0.2406
79373W        W16867  21.739  25.670  20.717  0.2010  0.3229  0.0241
79374W        W16868  35.383   6.983  13.490 -0.2256 -0.4887  0.2817
79375W        W16869  25.629  26.982  18.502 -0.3096  0.0482 -0.4803
79376W        W16870   0.270  26.085  24.656 -0.2212  0.1604 -0.2207
79377W        W16871   1.930   0.803  21.181  0.0590  0.0316  0.1109
79378W        W16872   5.583  28.031   7.766 -0.1011  0.0451 -0.2858
79379W        W16873   0.540  13.370  17.713  0.0081  0.0157 -0.0211
79380W        W16874  27.371  23.145  13.782 -0.0426  0.1833  0.0514
79381W        W16875   1.361  35.194  15.451  0.1217 -0.0618 -0.1839
79382W        W16876  32.266   3.848   2.127 -0.1868  0.0751  0.3710
79383W        W16877  26.733  28.497  12.110 -0.2665 -0.1457 -0.3696
79384W        W16878   6.362  20.261  20.918  0.0384  0.1705 -0.0979
79385W        W16879  32.025  27.801  17.639  0.0418 -0.2141  0.1974
79386W        W16880  20.856  29.907  19.509  0.0833 -0.0534 -0.1119
79387W        W16881  22.674  25.459  15.912  0.4230 -0.0073  0.1453
79388W        W16882   4.297  20.938   3.707 -0.1405 -0.0012 -0.1796
79389W        W16883   6.805  35.158  10.890 -0.0943  0.0306  0.0227
79390W        W16884  10.312  11.397   2.127  0.1580 -0.2568 -0.0910
79391W        W16885  33.295   3.002  24.498 -0.0760  0.1600  0.1078
79392W        W16886  10.454  22.810   1.820  0.2178  0.1742  0.0189
79393W        W16887   6.872   9.549   3.194 -0.0515 -0.1985  0.0879
79394W        W16888  35.349  14.809  15.605 -0.1833  0.1421 -0.1162
79395W        W16889   0.863   3.769  19.006 -0.0863 -0.1562  0.0538
79396W        W16890  24.131  10.883  16.402  0.1287  0.3793 -0.1518
79397W        W16891  20.345  33.780   0.367  0.0842  0.0555 -0.1095
79398W        W16892  15.287  25.724  26.207 -0.0366  0.0161  0.0040
79399W        W16893   7.496  30.673  15.938  0.0553 -0.1927  0.2019
79400W        W16894  13.654  12.503   1.944  0.1684  0.1218  0.1950
79401W        W16895  10.382  17.468  11.281  0.1618  0.0383  0.0669
79402W        W16896  13.011  30.284  10.660  0.0413  0.0184  0.2688
79403W        W16897  34.025  34.136   6.536 -0.0258 -0.1398 -0.1480
79404W        W16898   6.234  16.674   8.696  0.1927 -0.2391 -0.0072
79405W        W16899  19.307  17.584  21.915  0.0796 -0.1616 -0.1385
79406W        W16900   2.388   2.604   7.932 -0.4290  0.1518  0.4096
79407W        W16901   3.879  31.768  18.716  0.0121 -0.0025 -0.0600
79408W        W16902  26.654  28.173  21.525 -0.1350 -0.0058  0.0791
79409W        W16903  13.836   4.048  26.239  0.1494  0.1388  0.0817
79410W        W16904   9.279  17.889   8.398  0.2225 -0.2365  0.1181
79411W        W16905  17.608   1.596   4.524 -0.1348 -0.1544 -0.1696
79412W        W16906   8.619  34.744  13.992  0.0560 -0.3049 -0.0747
79413W        W16907  34.540  11.779  23.368 -0.2412  0.0083  0.0245
79414W        W16908  30.271   9.464  13.343  0.2199 -0.2008  0.2079
79415W        W16909   5.335  21.122   2.416 -0.1587  0.0093  0.2650
79416W        W16910  25.888   7.489  25.559  0.0225 -0.3933  0.2387
79417W        W16911   6.151  32.203   6.188 -0.0578 -0.3630 -0.0602
79418W        W16912  13.199  32.019  22.295 -0.0226 -0.2592 -0.1150
79419W        W16913  21.776  34.672  17.264  0.2494  0.0855 -0.2356
79420W        W16914  26.545   9.045   0.280  0.1096  0.0940  0.2011
79421W        W16915   5.529  30.965  24.793  0.2601 -0.0716  0.2052
79422W        W16916  25.225  26.384  10.778  0.1147 -0.0273  0.0533
79423W        W16917   2.401  12.317  15.175  0.1041 -0.0009 -0.0792
79424W        W16918  20.821  16.634  21.519 -0.2203 -0.1943 -0.2190
79425W        W16919  30.283  23.727  18.022  0.2686 -0.2259 -0.0670
79426W        W16920  29.432   6.182  15.415  0.3606 -0.1013 -0.1244
79427W        W16921   4.696  21.411  17.154  0.0286  0.2004 -0.0317
79428W        W16922  15.779   0.986   9.109 -0.1644  0.1004  0.2256
79429W        W16923   7.253  20.062   2.676 -0.0883 -0.0689 -0.3275
79430W        W16924   9.766   2.902   4.042  0.0509  0.1909 -0.0048
79431W        W16925  21.987  29.640   1.857  0.2281  0.0603  0.4236
79432W        W16926  23.184   5.097   3.046 -0.2051 -0.0629 -0.0621
79433W        W16927  16.574  11.766   3.934 -0.2072 -0.2071 -0.0292
79434W        W16928  35.130  24.612  23.714 -0.3096 -0.0279 -0.3262
79435W        W16929  28.993   3.465  21.233 -0.2531 -0.0998  0.3296
79436W        W16930  22.699  28.920  21.452 -0.2968 -0.2662 -0.1067
79437W        W16931   9.548   5.339  20.191  0.0469  0.0396  0.0276
79438W        W16932   4.333  15.140  25.314  0.3034  0.0613  0.0682
79439W        W16933  22.544  25.810   3.592 -0.0269  0.1833 -0.1204
79440W        W16934  16.480  19.013   9.531  0.3256  0.1832 -0.1298
79441W        W16935   6.128   3.737  24.835 -0.0512  0.0525  0.0316
79442W        W16936   6.993  10.505   4.913 -0.2084  0.2560  0.2707
79443W        W16937  15.614  31.619  10.987 -0.4194  0.1456  0.2779
79444W        W16938   2.600  17.125  15.930  0.1464 -0.0305  0.2425
79445W        W16939  22.012  32.679  22.097 -0.0214  0.1463  0.1201
79446W        W16940  26.524   1.478  12.929  0.0440  0.2581 -0.0862
79447W        W16941  25.290  21.601  15.269 -0.0423 -0.0426 -0.3748
79448W        W16942   7.798   1.877  13.521  0.1872 -0.2792  0.1742
79449W        W16943   9.468   7.641  12.365  0.1109  0.0981  0.2184
79450W        W16944   4.348  33.114  11.402  0.0596  0.3588  0.0478
79451W        W16945   1.084   4.084   3.194  0.1251  0.0361  0.2069
79452W        W16946   7.306  17.853   9.067  0.1928  0.0539  0.0361
79453W        W16947   7.551  25.440  24.276  0.2181  0.0409 -0.1627
79454W        W16948  21.182  13.380   5.842  0.0172 -0.0674  0.3175
79455W        W16949   6.867  25.072   7.899 -0.3834  0.3033  0.0269
79456W        W16950  34.339  23.759  17.039 -0.0856  0.0783  0.2751
79457W        W16951  31.155  14.058  19.256  0.0257  0.2553 -0.0505
79458W        W16952  15.325   2.087   4.826  0.0019  0.0910  0.0314
79459W        W16953  20.159  28.787  18.327  0.1647  0.1414  0.2008
79460W        W16954  21.280  31.650   6.994 -0.1050  0.0510  0.0343
79461W        W16955   1.782  30.708  23.036 -0.1083 -0.0468 -0.0288
79462W        W16956  24.756  17.441  13.995 -0.0087 -0.1730  0.1621
79463W        W16957  10.275  19.828   2.414 -0.2616 -0.0221 -0.1534
79464W        W16958  32.657  24.798   0.548 -0.3722  0.1068 -0.1570
79465W        W16959  12.174  18.108  12.896  0.3457  0.4498 -0.2500
79466W        W16960   2.088  31.549  19.027  0.0008 -0.1898  0.2139
79467W        W16961  24.772  22.378  19.013  0.0326  0.1417 -0.4043
79468W        W16962   2.830  12.305  17.042 -0.3816  0.0645  0.0790
79469W        W16963  25.873  19.670  10.938 -0.2752 -0.0607  0.0922
79470W        W16964  26.306  31.754   4.367  0.0167  0.0351 -0.0293
79471W        W16965  10.259  17.147   8.642  0.3019  0.1953  0.2177
79472W        W16966   5.454   6.582  26.034 -0.0385  0.0076  0.0929
79473W        W16967  20.971  21.120  24.815  0.0680 -0.1140  0.3377
79474W        W16968  20.402   3.677   1.358 -0.0598  0.0664  0.1880
79475W        W16969  24.181  14.023  12.620 -0.2717  0.0002  0.1482
79476W        W16970  16.852   1.289  18.744  0.0631  0.3387 -0.0466
79477W        W16971  15.634  24.076  12.414 -0.1822 -0.0898  0.2096
79478W        W16972  26.087  34.589  21.525  0.1736 -0.0033  0.2426
79479W        W16973  29.014  21.600  11.922 -0.1002  0.2243  0.0179
79480W        W16974   7.985  10.506  18.990 -0.0250 -0.1601  0.1324
79481W        W16975  21.087  25.491  19.502  0.2933  0.2404 -0.0406
79482W        W16976  23.218  26.992  23.946 -0.1722  0.2815  0.1703
79483W        W16977  30.701  33.611  24.268  0.4050  0.3231 -0.1233
79484W        W16978  31.229   1.491  19.450  0.0953 -0.0412 -0.0280
79485W        W16979  27.144  34.064   1.967  0.1994  0.1400 -0.1025
79486W        W16980  10.547  23.316  24.008 -0.1045  0.2891  0.0111
79487W        W16981   8.805  30.994   7.695 -0.0005 -0.1286  0.0738
79488W        W16982   7.096   3.527  11.463  0.0497 -0.2465  0.0001
79489W        W16983  28.236  27.781  19.571 -0.4619  0.2824 -0.0698
79490W        W16984  19.412  18.579  25.154  0.0717  0.1631 -0.1157
79491W        W16985  28.601  23.586  17.653 -0.0501  0.3426  0.3351
79492W        W16986  20.196   4.534   9.371  0.3195 -0.0258  0.0988
79493W        W16987  10.945  23.204   8.113  0.0112 -0.1026  0.0011
79494W        W16988   7.374  24.818   0.023 -0.0345 -0.1325  0.1504
79495W        W16989  22.745   3.660  21.886 -0.1830  0.1159  0.2537
79496W        W16990  35.299  24.556  24.573  0.0859  0.1805  0.1017
79497W        W16991  30.930  30.603  17.195 -0.1414  0.0329  0.0607
79498W        W16992  10.271   7.059  10.239  0.0862 -0.0371  0.1819
79499W        W16993  23.026  27.672  22.599  0.0726  0.1231  0.1440
79500W        W16994  12.252  28.038   3.790  0.2118 -0.4959 -0.3049
79501W        W16995  23.018   2.393   0.739  0.2310 -0.0575  0.0456
79502W        W16996  11.845  26.313  23.190 -0.0274  0.0248  0.1264
79503W        W16997  12.002  32.160  22.140 -0.2089 -0.0481 -0.0664
79504W        W16998  32.051   8.022  20.334  0.3773  0.2620 -0.1918
79505W        W16999  30.218  35.085  20.959 -0.3097  0.0461 -0.0342
79506W        W17000   1.629  33.874   3.762 -0.1600 -0.0760  0.1793
79507W        W17001  10.661   5.770   6.389 -0.0138  0.2629  0.2117
79508W        W17002   4.705  21.873   2.233 -0.0826  0.0508  0.1564
79509W        W17003  32.664  14.856  11.535 -0.0398  0.2164  0.1839
79510W        W17004  33.722  12.932  15.498 -0.0035  0.3079 -0.1748
79511W        W17005   5.215  33.613  20.976 -0.0911  0.1795 -0.2746
79512W        W17006   5.797  31.740  24.185 -0.1640 -0.1420 -0.0827
79513W        W17007   5.514  34.537  23.748 -0.1307  0.1748  0.1958
79514W        W17008  27.988  30.957   2.001 -0.2271 -0.0637 -0.0332
79515W        W17009   4.326  14.776  19.127 -0.3964 -0.2719 -0.0447
79516W        W17010  19.667  11.425   7.871 -0.0248  0.1565 -0.0479
79517W        W17011  29.936   1.337  12.758 -0.2674  0.1026  0.0417
79518W        W17012  14.745   8.991  21.700 -0.1010 -0.0152 -0.1540
79519W        W17013   7.715  14.682  26.009 -0.0639  0.0326  0.1156
79520W        W17014  17.739  10.644  25.464 -0.0682  0.0757  0.2795
79521W        W17015  30.276  34.408  16.085 -0.0150  0.1361 -0.0250
79522W        W17016  22.882  18.471  22.840 -0.0620 -0.0355 -0.1129
79523W        W17017  17.293  26.652   3.997  0.0938  0.0591  0.0535
79524W        W17018  17.338  25.491   6.131 -0.1713  0.1546  0.0159
79525W        W17019  23.967  14.222  26.134 -0.2383  0.2737 -0.0381
79526W        W17020  33.497  34.466  18.811 -0.2055 -0.1273  0.1122
79527W        W17021  30.800   6.956  15.764  0.1869 -0.0115  0.2016
79528W        W17022  33.341  21.624  10.464  0.1453  0.0674 -0.0327
79529W        W17023  22.804  28.389  14.528 -0.1884  0.1768 -0.0025
79530W        W17024  18.712  23.274   5.259  0.1570 -0.0212 -0.2089
79531W        W17025  30.682   1.773   0.208 -0.1994 -0.2517 -0.3562
79532W        W17026  11.505  23.691   3.658  0.1604 -0.0467  0.2867
79533W        W17027  28.900  33.548  10.505 -0.0079  0.0696 -0.1554
79534W        W17028  18.374   5.245  20.179 -0.0539 -0.1782  0.0408
79535W        W17029  24.341  25.217  16.831  0.0828  0.1793  0.1019
79536W        W17030   7.332  33.216  20.573  0.0464 -0.0246  0.0471
79537W        W17031   3.969  16.811  17.179  0.0261  0.0197 -0.1373
79538W        W17032  29.230  29.464  11.097  0.1372  0.0998  0.0746
79539W        W17033  32.145  24.820  12.837 -0.1458  0.1688  0.0934
79540W        W17034  24.790  34.864  12.506 -0.2565  0.2645 -0.2743
79541W        W17035   9.428   2.958   2.380  0.0512 -0.2150 -0.2927
79542W        W17036  11.621  25.599   1.283 -0.1645 -0.0377 -0.1714
79543W        W17037  28.737  10.908   6.983  0.1703  0.4054  0.3814
79544W        W17038   9.060  24.935   3.268 -0.0563 -0.0726  0.0151
79545W        W17039  32.967  30.718  14.398  0.1414 -0.3220  0.3588
79546W        W17040  35.024  21.427   1.070 -0.2202  0.4499 -0.1779
79547W        W17041  23.977  31.054   6.248 -0.1971  0.1655 -0.1881
79548W        W17042  33.648  24.186  25.084  0.1854 -0.0495 -0.3074
79549W        W17043   8.861  10.543   2.940 -0.0743  0.1551  0.4031
79550W        W17044  28.919  34.347  24.951 -0.1434  0.0560 -0.0151
79551W        W17045   1.218  26.455  19.914 -0.1646 -0.0740 -0.1569
79552W        W17046   6.760  35.182  11.630  0.1045  0.3400  0.0868
79553W        W17047  20.563   2.602  15.930 -0.3027  0.0844  0.0378
79554W        W17048   3.225   0.436   6.364 -0.1173  0.0103  0.1895
79555W        W17049  24.365   9.260  16.845 -0.2240 -0.0353 -0.4792
79556W        W17050   4.708  33.767  11.849 -0.2293 -0.1459  0.2320
79557W        W17051   5.101   9.190   2.073 -0.0196  0.2240 -0.4778
79558W        W17052  13.294  10.011   4.907 -0.0219 -0.3257  0.1666
79559W        W17053   5.008  17.686  20.732  0.1899  0.0805  0.1118
79560W        W17054   6.726  26.388  10.311  0.1203 -0.1334 -0.2362
79561W        W17055  33.247  17.208  20.647 -0.2710  0.0061 -0.0290
79562W        W17056   0.718  14.555  16.982  0.2974  0.0389  0.3071
79563W        W17057  19.383  15.344  24.664 -0.1327  0.0871  0.2508
79564W        W17058   6.084  16.284  20.800 -0.0596 -0.1762  0.2321
79565W        W17059   4.627   0.327   4.127  0.2783 -0.2013 -0.1125
79566W        W17060   2.866   9.113  15.685 -0.1540 -0.1553 -0.1193
79567W        W17061  10.757  24.160  12.274  0.0825 -0.1522 -0.1301
79568W        W17062   1.311   0.723  21.760  0.0534  0.1162  0.1602
79569W        W17063  29.672  14.609  24.283 -0.0154 -0.0507  0.0218
79570W        W17064   6.241  25.555  10.971 -0.1633 -0.0862 -0.0825
79571W        W17065  22.660  11.309  25.965 -0.2239  0.0580  0.0147
79572W        W17066   0.234   3.069  13.733  0.0740  0.0029 -0.1628
79573W        W17067  17.551   0.380   6.660  0.1088  0.1724  0.1268
79574W        W17068  17.290  26.777   8.625 -0.0020  0.2416 -0.0246
79575W        W17069   8.351  21.970  11.613 -0.1350  0.1394  0.0283
79576W        W17070  24.961  21.001  14.942  0.0808  0.1174  0.1308
79577W        W17071   8.253   3.000   6.160  0.3635  0.1691  0.1924
79578W        W17072   0.938  30.858   4.541  0.2422 -0.3378 -0.0856
79579W        W17073   2.885  17.596  13.057  0.0458  0.1082  0.1313
79580W        W17074  13.050   8.306  25.577 -0.1781  0.2586 -0.1081
79581W        W17075  10.988   4.672   2.921 -0.1234  0.2439  0.1307
79582W        W17076   8.901   5.833   8.288  0.1129 -0.3690 -0.0406
79583W        W17077  14.269  33.761  24.599 -0.1126  0.0147  0.0327
79584W        W17078  25.452  32.716  17.359 -0.0129 -0.2726 -0.1172
79585W        W17079  13.198  13.028  22.678 -0.1357 -0.1422  0.2687
79586W        W17080  29.275  13.069  20.292  0.0633 -0.2018 -0.2799
79587W        W17081  10.790   9.677   5.010  0.0205  0.1669  0.1598
79588W        W17082  11.410  24.931   8.196  0.0374 -0.0993  0.0144
79589W        W17083  18.415  24.127   7.673  0.1684 -0.3561  0.1057
79590W        W17084  18.914  11.576  10.278 -0.1154  0.1496 -0.2350
79591W        W17085   3.618   4.586   8.093 -0.1066 -0.0388 -0.4093
79592W        W17086  18.184   4.466  11.131  0.1755 -0.1279 -0.4423
79593W        W17087  28.556  13.154  18.365  0.1078  0.0350 -0.0044
79594W        W17088   3.400  29.359  24.483 -0.0143 -0.1410  0.0563
79595W        W17089   0.833  35.103   0.701 -0.1982  0.1907 -0.1955
79596W        W17090  12.204   1.188   5.249 -0.0836 -0.3099 -0.4293
79597W        W17091   5.128  27.577   2.313 -0.3146  0.0680 -0.0387
79598W        W17092  26.017  13.392  11.384 -0.0744  0.1555  0.1006
79599W        W17093   7.422  26.972  25.768  0.3094 -0.0337 -0.0842
79600W        W17094  19.155   1.102  21.686  0.0700  0.0666 -0.1335
79601W        W17095  24.861  10.008  25.650  0.0052  0.1323 -0.1973
79602W        W17096   7.776   9.212   2.494 -0.1986 -0.4991 -0.1218
79603W        W17097  24.415   4.883   5.134 -0.1192 -0.0572  0.1028
79604W        W17098  14.236   1.762  18.798 -0.1721  0.1276 -0.1042
79605W        W17099  26.547  20.350  20.643 -0.1400  0.1162  0.2341
79606W        W17100   2.864  21.570  19.997 -0.1553 -0.6098  0.0010
79607W        W17101  22.373   5.099  25.349  0.0967 -0.1138  0.0812
79608W        W17102  15.808   1.045   4.828  0.2602 -0.1918  0.2447
79609W        W17103  32.922  22.008  22.872  0.1293  0.1177  0.0751
79610W        W17104   3.358   2.077   0.996  0.0237  0.2471 -0.1440
79611W        W17105  32.714  13.181  17.383 -0.2523  0.3689  0.1504
79612W        W17106   8.317  25.063  22.548 -0.2007  0.0722  0.0858
79613W        W17107  13.375   3.176  22.932 -0.2375  0.3621  0.0620
79614W        W17108  18.557  10.985   7.503  0.0334 -0.3210  0.0711
79615W        W17109   6.721  25.387  13.136  0.0285 -0.0889  0.2542
79616W        W17110   7.439   0.034   9.089 -0.0934  0.1238  0.1822
79617W        W17111   9.779  26.384  23.492  0.0898 -0.0106 -0.1949
79618W        W17112  28.503  12.212  25.866  0.1377 -0.0075  0.1444
79619W        W17113  23.124   5.776  18.243 -0.3100 -0.1567  0.1248
79620W        W17114  33.482  11.091  18.823  0.1278  0.2017  0.1007
79621W        W17115   1.974   1.053  22.986  0.3245 -0.1126 -0.0928
79622W        W17116   6.509  18.676  20.413 -0.0203  0.0324 -0.0628
79623W        W17117  32.990   8.520  25.374  0.0528 -0.1264 -0.0896
79624W        W17118  14.285   5.012  22.814 -0.3129 -0.2906 -0.2659
79625W        W17119  32.888   1.016   4.183  0.0491  0.1483 -0.1775
79626W        W17120  20.300  19.881  22.985 -0.0303  0.2116 -0.2949
79627W        W17121  22.696  22.949  19.085 -0.3293  0.0385 -0.2401
79628W        W17122  13.591  11.902   0.420 -0.2273  0.1115  0.1075
79629W        W17123   3.576  26.826  26.027  0.1102  0.1466 -0.0150
79630W        W17124  33.912  11.463   1.619  0.1377  0.0385  0.1751
79631W        W17125  27.844  22.490  25.962 -0.1965 -0.2204 -0.1820
79632W        W17126   5.590  29.479   9.633 -0.2281  0.1376  0.1984
79633W        W17127  25.850  25.839  24.171 -0.4177 -0.0566 -0.1082
79634W        W17128  25.767   8.098   1.134 -0.3398  0.4475  0.1370
79635W        W17129  26.459  23.902  13.471 -0.2716  0.0707  0.0090
79636W        W17130  34.296  26.651  25.615  0.0372  0.1226 -0.0015
79637W        W17131  14.618  12.945  22.683  0.0373  0.1807  0.1056
79638W        W17132   7.106  34.779   9.744 -0.0217  0.1851  0.2823
79639W        W17133  10.548   3.333   5.041  0.0393  0.0455  0.0490
79640W        W17134  22.718  19.831  17.274 -0.1163 -0.0071  0.2551
79641W        W17135  24.287  26.357  18.141 -0.3499 -0.1801 -0.3820
79642W        W17136  34.500  31.585  23.640 -0.1442 -0.0182  0.1573
79643W        W17137  33.087   4.216  25.781  0.1363 -0.0111 -0.1692
79644W        W17138  31.290  11.035  25.412 -0.4117  0.1635  0.0855
79645W        W17139  14.844  11.938   9.366  0.0621 -0.0817  0.2145
79646W        W17140  26.822  33.136  26.075  0.0390  0.2990  0.0956
79647W        W17141  16.430   8.151  21.009  0.0166  0.0837 -0.2049
79648W        W17142  10.088  17.126   6.941  0.1134  0.0445 -0.4296
79649W        W17143  13.208  11.011  21.895  0.0568 -0.6727  0.0722
79650W        W17144   7.217  13.346   5.017 -0.2202  0.0108 -0.2226
79651W        W17145  27.225   0.683  13.726 -0.0977 -0.1243  0.1974
79652W        W17146  31.000  25.997  19.633  0.2546 -0.3349  0.1664
79653W        W17147  22.858  33.359  16.532  0.3022  0.4726  0.1203
79654W        W17148  30.398  13.264   7.576  0.0901  0.1043  0.0329
79655W        W17149  19.593  16.385  23.269  0.2548 -0.0750 -0.0240
79656W        W17150  31.563  18.271  16.146  0.4487 -0.2718 -0.0915
79657W        W17151   3.268  24.678   1.985 -0.0373 -0.1510  0.0153
79658W        W17152   1.157  18.273  19.881  0.1723  0.0425 -0.2039
79659W        W17153  27.053  16.654   4.927 -0.0256  0.0475 -0.3472
79660W        W17154  14.667   8.207  22.469 -0.0126 -0.4733 -0.2034
79661W        W17155  16.806  18.243   4.006  0.0719  0.0339  0.2443
79662W        W17156  28.828  14.466  10.763 -0.1371 -0.2144 -0.2912
79663W        W17157  18.934   4.409   5.665 -0.3819 -0.0131 -0.4974
79664W        W17158  19.372  16.489  19.328  0.4940 -0.0548 -0.3630
79665W        W17159  20.330  22.460  24.097 -0.2454  0.0434 -0.2318
79666W        W17160  14.299  34.879  20.921  0.0187  0.1184 -0.2236
79667W        W17161   1.800   1.457   5.277  0.2076 -0.1800  0.2219
79668W        W17162  22.525  16.168  23.047  0.3788 -0.0560  0.0150
79669W        W17163  13.997  31.970  12.252  0.0011  0.0069 -0.2332
79670W        W17164   7.936  20.497  11.951 -0.0321 -0.0369  0.1284
79671W        W17165  29.863   9.936  22.272  0.2473  0.4070  0.0192
79672W        W17166   7.112  16.574   4.842  0.1995  0.0873  0.3299
79673W        W17167  19.555  15.302   5.966 -0.1799 -0.1302 -0.4303
79674W        W17168   8.678   6.834  10.228 -0.0671 -0.0070  0.2458
79675W        W17169  19.988  32.469  17.487  0.3445  0.2968  0.0075
79676W        W17170   0.646  10.920  18.160 -0.1443 -0.0493 -0.0050
79677W        W17171  33.452   8.821  24.155  0.2470  0.0322  0.1659
79678W        W17172  12.904   8.023  11.246 -0.1488  0.1418  0.0738
79679W        W17173   3.731   7.214   0.990 -0.3623  0.0172  0.0409
79680W        W17174  15.802  19.827  10.744 -0.2182 -0.2456 -0.1901
79681W        W17175   9.686  10.913  11.720  0.1652 -0.0946 -0.0475
79682W        W17176  21.591   5.374  21.898 -0.1429  0.5705  0.2995
79683W        W17177  25.840   4.606   0.218  0.0659 -0.3150 -0.4111
79684W        W17178  10.279  20.533  12.838  0.1290  0.1248  0.1477
79685W        W17179  18.182  28.286  22.019 -0.0158  0.0581 -0.0352
79686W        W17180  27.748  29.554  14.638  0.0850  0.1639 -0.1068
79687W        W17181  15.310  29.908   8.613 -0.1428  0.1493  0.0669
79688W        W17182  32.865  20.408  12.203  0.1763  0.0089  0.3561
79689W        W17183  33.690   5.874   1.697  0.1156  0.0510 -0.3516
79690W        W17184   5.444  14.564   4.827 -0.1171 -0.2834  0.0555
79691W        W17185  12.107  15.446   0.313  0.2674  0.0756  0.1181
79692W        W17186  26.366  26.400   1.009  0.0209 -0.2423 -0.1785
79693W        W17187  18.085   0.641  20.205 -0.0816 -0.2834 -0.2499
79694W        W17188  33.539  32.759   3.889  0.1936 -0.0450  0.1056
79695W        W17189  20.950  12.059   2.413 -0.1468  0.0538 -0.0374
79696W        W17190   7.810  22.780  24.352 -0.2789 -0.0942 -0.0494
79697W        W17191   8.524   9.062   1.844 -0.1276  0.1606  0.1606
79698W        W17192  14.148   9.827  26.194  0.2743  0.0912  0.2208
79699W        W17193  14.696  26.281   5.413  0.3585  0.0981 -0.0298
79700W        W17194  10.707   0.825  12.173 -0.3053 -0.0256  0.0071
79701W        W17195   7.085  22.844   5.247 -0.0657  0.0518 -0.0783
79702W        W17196  23.933  29.685   5.155  0.0201 -0.2841 -0.1753
79703W        W17197  10.086  24.170  16.685 -0.0373  0.1336 -0.1247
79704W        W17198   7.005   6.353  20.295  0.1329 -0.3147 -0.0254
79705W        W17199  34.726   0.784  24.983 -0.1122  0.1490  0.0117
79706W        W17200  14.534   4.356  10.723 -0.0402 -0.0813 -0.4203
79707W        W17201  32.157  23.655   9.127  0.0709 -0.1073 -0.2921
79708W        W17202   0.822  28.584  19.656 -0.1026  0.1391 -0.1253
79709W        W17203   7.731  31.809  24.654  0.0700  0.3245  0.4485
79710W        W17204   8.472  10.087  12.303 -0.3639  0.2001 -0.0779
79711W        W17205  33.522   2.352   3.481 -0.1195  0.1970 -0.0788
79712W        W17206   4.800  31.907  22.428 -0.2312  0.3203  0.1033
79713W        W17207  20.828   5.866  24.992 -0.0270  0.1815  0.2400
79714W        W17208  11.335   0.562   7.395 -0.3727  0.1791  0.0502
79715W        W17209  19.909  14.382  23.353  0.1998 -0.3332  0.1070
79716W        W17210   6.728  16.785   5.221 -0.0743  0.1122 -0.1147
79717W        W17211   4.779  34.580   8.619 -0.1817  0.2089 -0.0267
79718W        W17212   0.800  22.185  12.564 -0.0570  0.2115 -0.1735
79719W        W17213  23.510  31.849  17.369  0.1021 -0.1105 -0.0625
79720W        W17214   4.245   9.549   0.431 -0.0325 -0.0308 -0.1091
79721W        W17215  29.590  27.748  20.085  0.1825 -0.0780 -0.1787
79722W        W17216  10.622  12.419  24.524  0.0451  0.0875 -0.0670
79723W        W17217   3.585  29.157   4.885 -0.0778  0.0017 -0.2342
79724W        W17218  12.235   9.033  21.568 -0.2007 -0.2024  0.0589
79725W        W17219   7.776  26.613  14.778  0.2627  0.1118 -0.0597
79726W        W17220  23.608   5.507  21.085  0.1984 -0.5839  0.0151
79727W        W17221  25.332  29.613  18.369  0.3486 -0.2223 -0.0558
79728W        W17222  28.394  23.465   9.332  0.0638  0.1758 -0.1566
79729W        W17223  28.169  22.708  25.361  0.2600 -0.3724  0.0702
79730W        W17224  10.441  13.183   0.944 -0.5326 -0.3955 -0.1173
79731W        W17225  30.800  21.050  11.962  0.1058 -0.0623 -0.0258
79732W        W17226  13.863   3.369   5.924 -0.2210 -0.3958 -0.2730
79733W        W17227  19.305   5.456   8.860  0.1023 -0.3613 -0.0587
79734W        W17228  15.328  32.053  12.297 -0.0190  0.0325 -0.1353
79735W        W17229   3.152   5.208   2.512 -0.1927  0.2103 -0.0844
79736W        W17230   8.074  29.604  22.916 -0.0996  0.0466  0.1963
79737W        W17231  25.316   4.856  23.178 -0.1467 -0.2354 -0.0211
79738W        W17232  11.629  18.598  24.757 -0.2857  0.2003 -0.1825
79739W        W17233  32.333  25.040  11.700  0.1718 -0.1709  0.0759
79740W        W17234  12.362  34.115  24.378  0.2128 -0.0449  0.1457
79741W        W17235  24.338   7.550  16.910 -0.2605  0.1303 -0.1693
79742W        W17236  28.306   5.232  13.915  0.1603 -0.0177  0.0820
79743W        W17237   2.486  29.697  10.505  0.0863  0.0416  0.0730
79744W        W17238  10.604  34.458   9.401  0.0682 -0.1277 -0.1438
79745W        W17239  14.508  17.348   1.281  0.0970  0.3783 -0.0409
79746W        W17240  27.145  10.974  12.460  0.0632  0.1706  0.0348
79747W        W17241  32.094  34.260  16.278 -0.3866  0.1125  0.0113
79748W        W17242   2.252  31.981   9.167  0.2050 -0.0413  0.1264
79749W        W17243  25.553  34.121  17.474 -0.1747  0.2751  0.0743
79750W        W17244  28.811  26.577  21.110  0.0545  0.2859  0.2846
79751W        W17245  15.021   5.568  17.977  0.2823 -0.1392 -0.1007
79752W        W17246  16.526  11.844  20.705 -0.0216  0.3874 -0.0422
79753W        W17247  16.099  11.257  26.068  0.0740  0.2905  0.0456
79754W        W17248   9.217   6.780   3.802  0.1092 -0.1546  0.0318
79755W        W17249   1.011  28.823   5.902  0.1708  0.2430 -0.1050
79756W        W17250   9.660   4.205   5.894  0.0253  0.1337 -0.3574
79757W        W17251  32.788  10.217  20.545 -0.3228  0.1199  0.7017
79758W        W17252   6.653  10.440   0.262  0.2380  0.0825 -0.1050
79759W        W17253  32.247   3.196  24.104  0.0684 -0.0481  0.2962
79760W        W17254  17.541   9.354  20.772 -0.0900 -0.0837  0.1680
79761W        W17255  30.589  10.916  26.015  0.0141  0.0189 -0.3192
79762W        W17256  14.382  28.234  25.358  0.3646  0.0557  0.2760
79763W        W17257  32.720  18.959  22.036  0.0273  0.1363 -0.0613
79764W        W17258   8.495  28.019  15.997  0.2088  0.1065 -0.1371
79765W        W17259   8.173  12.142  18.937 -0.1053 -0.0273  0.3104
79766W        W17260  22.265  10.305   1.216  0.0186  0.3884 -0.1021
79767W        W17261  34.969   5.503  18.617  0.0923  0.0173 -0.1730
79768W        W17262   3.141   6.752  21.127  0.0259  0.0857  0.0011
79769W        W17263  25.791  10.139  22.165  0.1486 -0.0352 -0.1237
79770W        W17264   6.654  18.189   0.133 -0.1735  0.0284 -0.2043
79771W        W17265   5.051  11.251   2.949 -0.4011 -0.0534 -0.0620
79772W        W17266  18.159  12.266  11.923 -0.0187  0.0518 -0.1736
79773W        W17267  16.878  15.012   3.515  0.0038  0.2145  0.1978
79774W        W17268   9.436  30.675   8.213  0.2206  0.0029  0.2530
79775W        W17269  11.464  28.027   3.306 -0.0045 -0.0176 -0.0411
79776W        W17270  26.829   4.106  19.021 -0.2854 -0.1379 -0.2042
79777W        W17271  18.663  32.482   3.157  0.0279 -0.0011  0.3519
79778W        W17272   7.968   9.114  20.255 -0.1346  0.1611 -0.3593
79779W        W17273  24.759  25.803  16.006  0.0063  0.2204  0.1140
79780W        W17274  32.636  25.697   0.258 -0.0837 -0.1729  0.0332
79781W        W17275   5.689   7.710  19.068  0.2150  0.1874  0.0612
79782W        W17276  27.593  11.860  22.666  0.0522  0.1682 -0.0999
79783W        W17277  24.871  14.617   0.320  0.1956  0.2082 -0.0332
79784W        W17278  20.981  11.274   7.885 -0.1621 -0.1994 -0.1240
79785W        W17279  34.386  22.498  15.440 -0.1025  0.2461  0.0741
79786W        W17280   3.672  10.583   0.898 -0.0891 -0.1166  0.0918
79787W        W17281   3.215  31.859   6.199  0.1740  0.2037  0.2303
79788W        W17282   2.449  21.168  16.296  0.1162 -0.1456  0.4672
79789W        W17283   1.568  27.507  17.972  0.3909  0.2453  0.1895
79790W        W17284  13.650  16.704  22.771 -0.3238 -0.2304  0.0129
79791W        W17285  30.640  22.696  18.352  0.2699 -0.2086  0.0065
79792W        W17286  25.399  12.181  20.808 -0.0108 -0.2672 -0.1963
79793W        W17287   8.931   8.362  14.229 -0.1477 -0.1297  0.1591
79794W        W17288  16.307  32.272   1.086  0.2456 -0.0604  0.0843
79795W        W17289  31.594  34.235  15.926  0.0713  0.2593 -0.0196
79796W        W17290  25.021  15.927  26.149  0.0783  0.1981  0.1316
79797W        W17291   1.522  12.169  15.182 -0.0849  0.1028  0.2996
79798W        W17292  27.811  19.609  13.347 -0.1875 -0.0337 -0.2814
79799W        W17293  28.242   9.526  25.959  0.2003  0.0668  0.1635
79800W        W17294  16.266   0.598  25.274 -0.1180 -0.0964 -0.1329
79801W        W17295  18.465  24.391  10.444 -0.3022  0.2434 -0.0256
79802W        W17296  28.081  13.800  23.903 -0.1256  0.2348 -0.1855
79803W        W17297  10.983   8.533   4.483 -0.1473  0.0680 -0.2563
79804W        W17298  32.853  28.862  21.954 -0.2183  0.2231  0.2292
79805W        W17299   5.193  21.912   6.354 -0.0871 -0.2344  0.1007
79806W        W17300  34.808  32.001  16.132 -0.1958  0.0202 -0.0620
79807W        W17301  20.331   5.840  17.267 -0.1847  0.0989  0.1911
79808W        W17302  15.853  32.691  22.210 -0.1542 -0.0151  0.1412
79809W        W17303  15.784  22.215   5.424  0.1672 -0.1346 -0.1019
79810W        W17304  23.597   3.614   2.116 -0.0300  0.1966 -0.0600
79811W        W17305  12.879  30.836  10.609  0.2476 -0.0280 -0.0050
79812W        W17306  14.567  26.109  12.115 -0.1316 -0.4286  0.0001
79813W        W17307   2.738  21.578   0.614  0.0712 -0.4643 -0.2276
79814W        W17308  29.723   7.704  25.894  0.0666 -0.1452 -0.0050
79815W        W17309  22.952  33.159  18.778 -0.0341 -0.1869  0.0073
79816W        W17310   7.541   1.921  11.581  0.0377 -0.0223 -0.2532
79817W        W17311  25.140  23.601  24.509 -0.0668  0.3936 -0.0324
79818W        W17312  13.233   2.340  22.350 -0.0525 -0.1447 -0.0521
79819W        W17313  31.758  25.006  12.562 -0.3102  0.0071 -0.1815
79820W        W17314  25.006  20.830  15.900 -0.0711 -0.0287  0.2189
79821W        W17315   7.024   5.959  23.484 -0.0789 -0.1609  0.1597
79822W        W17316   7.604  22.109  23.302 -0.2200 -0.1318 -0.2177
79823W        W17317   7.302  28.381  20.924  0.2314 -0.1972 -0.3408
79824W        W17318  31.911  25.578  11.065 -0.3337 -0.0955  0.1833
79825W        W17319   0.309  34.720  25.811 -0.0424  0.0371 -0.2714
79826W        W17320  29.688  19.607  22.207 -0.1150 -0.0179 -0.0810
79827W        W17321   0.702  31.112   3.422  0.1455 -0.0590 -0.2365
79828W        W17322  30.002  30.044  24.284 -0.1026  0.0056 -0.0667
79829W        W17323   3.393  30.628   2.398 -0.2172 -0.0513 -0.1331
79830W        W17324  32.931  33.044  20.934  0.2320  0.1306 -0.1025
79831W        W17325  12.925  19.959  22.037  0.0645 -0.1243  0.1316
79832W        W17326   6.399  33.052   5.427  0.1665  0.0101 -0.0745
79833W        W17327  20.459   6.198  16.942  0.0504  0.0581 -0.0217
79834W        W17328  10.660  25.614  14.186 -0.2460  0.0296  0.0295
79835W        W17329  12.682   8.440  11.027  0.1688  0.1264  0.0041
79836W        W17330  28.735  15.193   6.101  0.1382  0.0132  0.1060
79837W        W17331  31.718  18.797  14.637 -0.2520  0.2087  0.0537
79838W        W17332  10.993  12.168  20.321 -0.1937 -0.3107 -0.1881
79839W        W17333  29.502  26.325   8.152  0.1705  0.1553  0.0129
79840W        W17334  29.086  21.523   7.389  0.1913  0.1074 -0.0261
79841W        W17335   2.050  35.151   1.373 -0.1202 -0.1856 -0.1006
79842W        W17336  10.535  22.419   5.136 -0.1142 -0.1987  0.0159
79843W        W17337   1.454   0.266   8.930 -0.3948 -0.3434  0.0199
79844W        W17338  34.733   5.617  17.348  0.0073  0.0466  0.1492
79845W        W17339   0.853   7.321  15.982  0.0643  0.0253 -0.0909
79846W        W17340  13.013  10.777  11.041 -0.3130 -0.0703 -0.1724
79847W        W17341  11.093   1.248  21.145  0.2164  0.2668 -0.1200
79848W        W17342  16.192   2.291  20.703 -0.0162 -0.1933  0.0970
79849W        W17343  24.317  32.877  21.708 -0.3626 -0.2743 -0.1319
79850W        W17344  11.527  22.037   7.382  0.0786 -0.0518 -0.1973
79851W        W17345   4.709  15.396   3.210 -0.3824 -0.1284 -0.4376
79852W        W17346   5.863   4.510   0.414 -0.2411 -0.2535  0.0700
79853W        W17347  20.764  27.224  17.230 -0.0599  0.2154  0.2823
79854W        W17348   0.534   6.291  25.565  0.1586  0.2387 -0.1451
79855W        W17349   0.502  33.073  19.006  0.1738  0.0648 -0.1642
79856W        W17350  28.575  20.874  25.072  0.1096  0.0187 -0.0740
79857W        W17351  13.863   5.431  22.028 -0.0649 -0.2374  0.1065
79858W        W17352   9.904  18.778  14.171  0.1819  0.0938 -0.0245
79859W        W17353   9.016  21.095  22.721 -0.1092 -0.2468  0.2779
79860W        W17354  16.804  28.587   8.777 -0.3717 -0.1327  0.2770
79861W        W17355  22.637  18.195  20.422  0.1109 -0.2535  0.1322
79862W        W17356  17.580  25.601  23.504 -0.1107 -0.0835  0.1858
79863W        W17357  34.966  29.632   7.576 -0.0018 -0.0690  0.4591
79864W        W17358   8.405  13.390  11.377 -0.0768 -0.3216  0.0969
79865W        W17359  28.416  34.070   0.597  0.0114 -0.2896 -0.0580
79866W        W17360  25.616  14.867  19.208  0.0242  0.0143 -0.2949
79867W        W17361  34.120  14.397  20.829 -0.0962  0.0687  0.1939
79868W        W17362  13.298  22.063  16.065 -0.1572  0.1001 -0.0569
79869W        W17363   2.273  13.307  14.980  0.3738  0.1839 -0.3959
79870W        W17364  29.202  25.213  23.185 -0.3176 -0.2798  0.2570
79871W        W17365  25.019  29.536  18.011  0.1403 -0.2103  0.3463
79872W        W17366  10.228  26.085   6.875 -0.1060  0.1502  0.0401
79873W        W17367  17.649  28.400  10.847 -0.0463  0.0139 -0.0138
79874W        W17368  12.780  20.958  12.691  0.1729 -0.2010  0.1507
79875W        W17369  13.300  26.502   1.838 -0.1631  0.1305  0.2274
79876W        W17370  23.380  24.213  14.099  0.0156  0.1604  0.3206
79877W        W17371  18.927  12.723   3.913 -0.1947  0.1054 -0.1275
79878W        W17372   7.094   8.144   3.655  0.2525  0.0899 -0.0172
79879W        W17373   0.954   4.035  19.452  0.1018 -0.1700 -0.1162
79880W        W17374   8.257  21.664   3.055 -0.1416 -0.3091  0.0396
79881W        W17375  22.911  27.077  16.039  0.4613 -0.0595  0.2577
79882W        W17376  30.899  20.252  18.667  0.2580 -0.1752  0.0093
79883W        W17377  27.033  26.004   1.892 -0.0920  0.1410 -0.0052
79884W        W17378  32.731   1.209   2.913  0.0025  0.0834  0.2964
79885W        W17379  26.980   2.337  21.635  0.1502 -0.0299  0.4257
79886W        W17380   5.959  18.519  21.578 -0.0324 -0.1575  0.0244
79887W        W17381  28.061  20.676   7.045 -0.2957  0.2930 -0.0014
79888W        W17382  17.243   4.813  24.914  0.0293  0.1015  0.0689
79889W        W17383  29.772   8.984  24.108  0.0473 -0.0194 -0.2452
79890W        W17384  24.803   4.355  24.946  0.0317  0.1192 -0.1197
79891W        W17385  15.347   3.775  19.379 -0.1110  0.1431 -0.0144
79892W        W17386  31.194  27.709  13.276  0.1064  0.3450  0.1812
79893W        W17387   7.003  28.114  25.006 -0.1250 -0.2133  0.3308
79894W        W17388  19.525  16.045  23.634 -0.1468  0.2003  0.0294
79895W        W17389  15.900  24.948   7.771  0.0452  0.0042  0.1401
79896W        W17390   8.618  31.096  10.848  0.1952  0.2450  0.0769
79897W        W17391  20.163  32.785  15.916  0.1840 -0.2722  0.1296
79898W        W17392  17.613  30.505   2.748  0.1601 -0.2691  0.1805
79899W        W17393  12.982  28.651  15.395 -0.2141 -0.2424 -0.1511
79900W        W17394  33.229  28.239  15.828 -0.4026  0.0163 -0.2511
79901W        W17395   5.188  24.181   0.970  0.2799  0.1196  0.3184
79902W        W17396  18.547  22.105  25.382  0.0282 -0.1540  0.1404
79903W        W17397  10.840   1.891  21.895 -0.2524 -0.2087 -0.3028
79904W        W17398   8.857  25.891  12.919  0.1402 -0.2029 -0.0331
79905W        W17399  28.557  25.973  12.270 -0.0865 -0.1321  0.3582
79906W        W17400  34.927  17.182  19.672 -0.1988  0.3922  0.0907
79907W        W17401  24.880  24.179   1.198 -0.0849  0.1182 -0.0851
79908W        W17402  19.919  17.314  22.712 -0.1145 -0.0899  0.1851
79909W        W17403  17.685   2.911  17.605  0.2118  0.1734  0.0507
79910W        W17404  14.273  27.335   8.021 -0.1312  0.0967 -0.0318
79911W        W17405  33.420  19.046  25.133 -0.2168  0.1285  0.1282
79912W        W17406   5.613   8.060  10.431 -0.0008 -0.0401  0.0182
79913W        W17407  17.614   4.069   5.309 -0.1290  0.1931 -0.0195
79914W        W17408  23.456   5.470  19.487  0.4280 -0.2122 -0.1708
79915W        W17409  11.734  23.657  24.349 -0.1511  0.0337  0.0804
79916W        W17410  34.771  12.338  10.246  0.0595  0.0152  0.0966
79917W        W17411  11.947  19.476   2.466  0.2617  0.0553 -0.0278
79918W        W17412  28.443  13.346  17.820  0.2441 -0.4115  0.1416
79919W        W17413  25.431  13.457   9.465  0.0413  0.1696 -0.0805
79920W        W17414  32.615  18.958  26.151  0.0110  0.0421  0.0341
79921W        W17415  19.028   9.234  10.820 -0.0563 -0.0880 -0.1928
79922W        W17416  32.500  28.808  21.178 -0.3039  0.1572  0.2208
79923W        W17417  19.630  34.248  17.531 -0.2774  0.0889  0.0783
79924W        W17418  15.909  17.096  24.794 -0.1636 -0.0363 -0.0707
79925W        W17419  22.968  31.737  15.591  0.0068 -0.2292 -0.0978
79926W        W17420   3.103  19.161  13.793 -0.6600  0.0741 -0.0453
79927W        W17421   5.814  34.216  19.643  0.1589 -0.0417  0.0815
79928W        W17422  12.669   2.131   5.071 -0.1240 -0.1901 -0.2825
79929W        W17423  20.204  23.981   5.700  0.0245 -0.2206 -0.2613
79930W        W17424  21.778  33.593   3.600 -0.0505 -0.3480 -0.1485
79931W        W17425   7.034  24.842  24.446 -0.0357 -0.0031  0.1866
79932W        W17426  20.424  12.276   1.545  0.2724 -0.1206  0.4129
79933W        W17427   7.406  33.939   2.833  0.0796  0.1813  0.3019
79934W        W17428  21.500  33.541  24.343  0.0431  0.2102 -0.0367
79935W        W17429  22.400  18.851  21.785 -0.0279 -0.1435  0.1676
79936W        W17430  12.700   3.157  19.956 -0.1615  0.2747  0.0124
79937W        W17431   6.096  13.596   7.937 -0.0027  0.0675 -0.0577
79938W        W17432  26.907  23.556   9.289 -0.2573 -0.2875 -0.0980
79939W        W17433  31.811  20.594  23.182 -0.1497  0.0521  0.4526
79940W        W17434  16.831  32.640   4.939  0.0655 -0.2288 -0.0623
79941W        W17435  15.027   4.394  24.965 -0.4379 -0.2182 -0.0374
79942W        W17436   5.240  10.799  19.918  0.2165  0.0308 -0.0417
79943W        W17437   1.144  18.883  23.285 -0.1149  0.0758  0.0993
79944W        W17438  20.152   7.962   1.882 -0.1493  0.4121 -0.0316
79945W        W17439  12.769   5.403  11.641 -0.1175  0.1935 -0.0178
79946W        W17440  14.110  17.747   0.685  0.0022  0.0975  0.0463
79947W        W17441  12.602  32.746  20.988 -0.4053 -0.0981  0.0452
79948W        W17442  30.023  13.260  13.020 -0.0710  0.1132  0.1270
79949W        W17443  12.243  29.553   8.467  0.0540 -0.1759  0.0923
79950W        W17444   2.424  18.071  15.734 -0.1533  0.0628  0.0507
79951W        W17445   1.998  31.714   8.086  0.1684 -0.1244 -0.1218
79952W        W17446  23.332  25.540  16.742 -0.1919  0.5050  0.2435
79953W        W17447   0.696  18.257   0.706 -0.0983 -0.0489 -0.2184
79954W        W17448  28.656  25.220  18.494 -0.1112 -0.0369  0.2967
79955W        W17449  15.689  32.458   6.136  0.0931 -0.3601  0.0179
79956W        W17450  25.456  31.834  19.678 -0.1664 -0.0170 -0.0996
79957W        W17451  32.646  30.052  17.451  0.0508  0.2385  0.1677
79958W        W17452  30.323   5.547  11.741 -0.0020  0.1349 -0.0122
79959W        W17453  20.835  20.600  16.564 -0.0068  0.3147  0.0415
79960W        W17454  33.648   1.276  20.602  0.0465  0.1622  0.2281
79961W        W17455  23.367  34.476   5.544 -0.1172  0.0632 -0.0392
79962W        W17456  16.571  16.544  20.257 -0.1864 -0.0903  0.1460
79963W        W17457  34.950   3.587   5.547 -0.1297 -0.1952  0.0456
79964W        W17458  12.075  34.610   5.911 -0.1719  0.1810 -0.2504
79965W        W17459  34.738  14.447  18.102  0.2721 -0.3262  0.0897
79966W        W17460  11.860  19.774   4.411 -0.2679  0.1871  0.0665
79967W        W17461  34.117  23.902  15.843  0.2958 -0.0328  0.0456
79968W        W17462  15.576  16.258   1.483  0.1900 -0.0487  0.0012
79969W        W17463  16.223  29.833   5.108 -0.0599 -0.0794  0.3046
79970W        W17464  22.446  24.669  24.548  0.1117  0.1924 -0.2262
79971W        W17465   2.575  17.924   1.429  0.0958  0.1459 -0.2495
79972W        W17466  33.504   3.873   6.503  0.0442  0.0528 -0.1882
79973W        W17467   7.014   6.038   9.088 -0.3588 -0.4288  0.2054
79974W        W17468  14.505  19.368  10.011 -0.0677 -0.1583 -0.1378
79975W        W17469   4.190  22.161  17.921  0.1653  0.4648 -0.2380
79976W        W17470  16.217  21.287  23.772 -0.0916  0.1230  0.0030
79977W        W17471  17.399  31.150   0.335  0.0840  0.0840  0.0266
79978W        W17472   4.080   3.307   7.859 -0.0581  0.2506 -0.2239
79979W        W17473  24.174  24.179  17.877 -0.1361  0.1320 -0.2991
79980W        W17474  10.604  10.836   6.240  0.0753  0.1766 -0.3755
79981W        W17475  32.586  27.032  13.765  0.2114 -0.0912  0.0447
79982W        W17476  12.993   8.641  20.418  0.1008  0.0838  0.2265
79983W        W17477  32.201   8.356  17.698 -0.0582 -0.3551 -0.3125
79984W        W17478  19.663   4.068   4.404  0.2349 -0.2556  0.1061
79985W        W17479  14.484  25.710   4.569 -0.2056 -0.2336  0.0792
79986W        W17480  24.215  25.363   2.853 -0.0924  0.2449  0.2147
79987W        W17481  11.506  18.488   5.402  0.0290  0.2854  0.2080
79988W        W17482   7.586  10.940  11.725 -0.1512 -0.0571 -0.0225
79989W        W17483   1.113  27.413   4.955  0.0676 -0.3073  0.0131
79990W        W17484  28.727  31.617  20.573 -0.2496  0.2843 -0.1647
79991W        W17485  30.643  12.817  22.792 -0.2201  0.1985  0.0726
79992W        W17486   6.316  27.545   5.666  0.2858  0.3012  0.2474
79993W        W17487  13.840   9.982  22.267  0.2052 -0.1559 -0.0352
79994W        W17488  14.242   7.284   7.586 -0.0421  0.2704  0.0242
79995W        W17489   0.654  25.150  24.174  0.5178  0.0801  0.2890
79996W        W17490  35.198   6.928  12.382  0.2388 -0.2175 -0.0203
79997W        W17491   0.950   4.589  20.005 -0.1950  0.3286  0.0805
79998W        W17492   7.063   7.854   3.249 -0.0111 -0.1959 -0.3658
79999W        W17493   3.909  27.731   7.355  0.2222  0.0001 -0.2150
80000W        W17494   1.273  18.802  17.111 -0.0677  0.1726 -0.3146
80001W        W17495   9.652   4.743  25.753  0.4379  0.2595  0.2651
80002W        W17496  17.081   9.230   8.709  0.2258 -0.0599 -0.0820
80003W        W17497   4.462   0.728  21.782  0.2338  0.2731 -0.0983
80004W        W17498  26.445   9.798  13.860 -0.0152 -0.1592 -0.1984
80005W        W17499   2.909  25.950  21.225 -0.0449  0.0248 -0.1073
80006W        W17500  13.017  11.982  12.573  0.1140  0.0806  0.0342
80007W        W17501   6.942  23.074   8.187  0.1717 -0.2433 -0.0512
80008W        W17502  32.914   0.869  22.734  0.2299  0.1142 -0.2148
80009W        W17503   7.564  27.948  25.738 -0.0426  0.2237  0.1628
80010W        W17504  20.962  11.598  20.334  0.0438  0.1993 -0.0819
80011W        W17505  26.250   8.466  25.526  0.1114 -0.2860  0.1891
80012W        W17506  24.510   5.730  22.837 -0.1996  0.0504  0.1746
80013W        W17507  23.825  32.829   3.653  0.2656  0.2337 -0.0225
80014W        W17508  13.634  28.223   4.855 -0.2471 -0.0277 -0.1500
80015W        W17509  22.623  27.984  16.115 -0.3326 -0.5775  0.2139
80016W        W17510  35.177   2.160  22.179 -0.0556 -0.1839 -0.0879
80017W        W17511  17.233  20.891  25.322  0.3450  0.1577  0.0131
80018W        W17512  34.147   4.297   2.245  0.0105 -0.3457  0.0506
80019W        W17513   7.324  15.656  22.463 -0.0281 -0.1046  0.4916
80020W        W17514  24.337  12.494  19.011 -0.0794  0.1303  0.3452
80021W        W17515   2.203   4.680  16.255  0.0959  0.0558  0.3286
80022W        W17516   2.031  13.719   1.571 -0.0582 -0.0018  0.1799
80023W        W17517  19.603  11.276  20.118 -0.0048 -0.0832 -0.1758
80024W        W17518  31.917  35.168  19.633 -0.0465 -0.0217  0.3281
80025W        W17519  26.357  16.951  14.694 -0.1172 -0.2392  0.3503
80026W        W17520   9.918  26.983   4.078 -0.0689  0.0885 -0.1360
80027W        W17521  22.815  28.552   5.397 -0.3010 -0.3428  0.0218
80028W        W17522  10.586   2.631   0.494 -0.1056 -0.0848  0.0535
80029W        W17523  11.480  27.650   5.623 -0.0103 -0.3093 -0.0463
80030W        W17524  20.442   0.008  19.153  0.0098 -0.0029 -0.1157
80031W        W17525  10.287   8.780  11.505  0.0381  0.1580 -0.1115
80032W        W17526   2.020  21.727   1.813  0.1231 -0.0417 -0.1418
80033W        W17527  30.501  16.250  13.121  0.0040  0.0142  0.0756
80034W        W17528  29.321  13.096  15.740  0.2984  0.2686  0.1426
80035W        W17529  10.864  17.397  11.777 -0.0363 -0.1860  0.1871
80036W        W17530  33.428  31.702   0.902  0.3036  0.1107 -0.0321
80037W        W17531  25.570   5.081   1.029 -0.0949  0.4046 -0.1806
80038W        W17532   5.201   6.622  25.134 -0.0141  0.1499 -0.1681
80039W        W17533  13.992  15.731  24.443 -0.0979 -0.0528  0.1113
80040W        W17534  25.783  21.169  10.911 -0.1020  0.2563  0.0643
80041W        W17535  16.803  11.413  10.056 -0.0290  0.4695 -0.0293
80042W        W17536  26.070  10.009  26.204  0.2394 -0.2654  0.0255
80043W        W17537  27.795   0.063  14.421 -0.0831  0.2806  0.0965
80044W        W17538  21.325  22.892  20.680  0.0390 -0.0763  0.3099
80045W        W17539   6.218  23.332   8.771 -0.0721 -0.1144 -0.1237
80046W        W17540  27.567  21.226  20.181  0.0765 -0.0704 -0.1903
80047W        W17541   7.767  12.382  20.316 -0.0535 -0.0661 -0.5780
80048W        W17542   1.972  33.581  10.172  0.2888 -0.2393  0.0369
80049W        W17543  24.536  17.573   7.412 -0.1225 -0.1733 -0.0421
80050W        W17544  15.759  30.667   8.693 -0.3895  0.0025  0.1281
80051W        W17545   7.181  26.853  12.158  0.1895 -0.0333  0.0341
80052W        W17546  26.488   3.710   3.334  0.1259 -0.3286 -0.0293
80053W        W17547  27.562  14.516  22.239  0.1564 -0.0814  0.2297
80054W        W17548   7.504  24.034   1.621  0.0265  0.0928  0.0239
80055W        W17549  15.448  23.739  16.422  0.1515 -0.0431 -0.1898
80056W        W17550   9.631  14.366   2.993 -0.1293 -0.2909  0.3627
80057W        W17551  13.375   6.888  11.731  0.1453 -0.0393  0.3283
80058W        W17552   1.948  31.418   3.841  0.1070 -0.2547 -0.0205
80059W        W17553  18.011  14.375  19.226  0.5087  0.3547 -0.2541
80060W        W17554  10.523  21.845   1.554  0.0598  0.2728  0.1635
80061W        W17555  25.234  11.866  21.135 -0.0708 -0.1663  0.0692
80062W        W17556  33.614  22.085  14.988  0.0571  0.1334 -0.0904
80063W        W17557  19.244  24.807   6.668  0.1548  0.1140  0.0344
80064W        W17558  14.208  15.338  24.848 -0.1036  0.3206  0.3924
80065W        W17559  23.933  15.552   2.486  0.0378  0.1404 -0.1895
80066W        W17560  31.079  15.275  11.705 -0.4223  0.0540  0.0517
80067W        W17561  10.920  19.386  20.854  0.2169  0.1240 -0.1895
80068W        W17562  18.021  15.220  22.733 -0.0085 -0.0491 -0.2711
80069W        W17563   7.514  15.540  17.929  0.0392 -0.1480 -0.4036
80070W        W17564  15.525  16.528   2.604 -0.0734 -0.1131 -0.3068
80071W        W17565   0.593  19.096  22.617 -0.2079  0.1519 -0.1945
80072W        W17566  34.960  15.558   8.329  0.2473  0.1259  0.0238
80073W        W17567   3.977  33.485  19.059 -0.1502  0.0763 -0.2370
80074W        W17568  16.976  25.717   4.737  0.6135  0.3822 -0.0255
80075W        W17569  15.269  13.721   2.940  0.0644 -0.0646  0.0022
80076W        W17570   1.121   2.853  17.495 -0.0252  0.3529  0.2956
80077W        W17571   1.987   8.433  24.892 -0.3801  0.0762 -0.3260
80078W        W17572  23.356  23.038   2.840 -0.0087 -0.3148 -0.0939
80079W        W17573  23.384   1.741   0.610 -0.2652 -0.1761 -0.0150
80080W        W17574   2.280  29.043   6.904  0.3027  0.0127  0.0160
80081W        W17575   9.070   0.956  23.639  0.1350  0.0212  0.2032
80082W        W17576  24.191   5.723  14.361 -0.0766 -0.1172  0.0660
80083W        W17577  31.041  16.603  17.388  0.2416  0.1993  0.1395
80084W        W17578  35.186   3.323   7.508 -0.0403 -0.1768  0.0952
80085W        W17579   0.032   5.249  24.758  0.0864  0.1541 -0.1150
80086W        W17580   1.741  18.748  14.568 -0.2053 -0.2634  0.0275
80087W        W17581  30.849  17.503   9.110  0.0530  0.1677  0.0106
80088W        W17582  23.463  23.077  18.080  0.2430 -0.3856  0.0225
80089W        W17583   2.603  28.694   6.596 -0.1257  0.1025  0.1344
80090W        W17584  31.498   4.238  19.824 -0.2059 -0.2995 -0.0584
80091W        W17585  20.182  16.749   8.300  0.1049 -0.0222  0.1552
80092W        W17586  24.822  24.885  14.435 -0.1408 -0.1413  0.0279
80093W        W17587   7.551   7.645   5.927  0.0437 -0.0204 -0.2166
80094W        W17588  14.749  15.057   6.746  0.2748 -0.2494 -0.3179
80095W        W17589  28.261  10.909  17.055  0.0720  0.0075 -0.0693
80096W        W17590  27.536  15.909  19.852  0.2159 -0.0044 -0.0981
80097W        W17591   4.129   0.487  23.555  0.0447 -0.0974  0.1450
80098W        W17592   5.447  34.955   2.262  0.1776  0.2451 -0.0582
80099W        W17593  25.935  12.389  16.088  0.1309  0.0257  0.0720
80100W        W17594  30.288   3.027  21.446 -0.2604  0.2217  0.1056
80101W        W17595  18.312  24.336   5.803  0.0004 -0.0083  0.0402
80102W        W17596  21.883   3.579   4.918 -0.0332  0.0356  0.0690
80103W        W17597  20.547   1.553  15.363  0.0782  0.0078 -0.0090
80104W        W17598  30.676  30.776  18.124 -0.0148 -0.0102  0.2809
80105W        W17599   9.360  31.337  25.031  0.3001  0.0624  0.4403
80106W        W17600   7.959  25.068  14.905  0.0434  0.0687  0.0708
80107W        W17601  25.217  34.998  12.358 -0.0485 -0.1011 -0.1095
80108W        W17602  28.964   7.223  13.118  0.3403 -0.0760 -0.0154
80109W        W17603  33.880   1.915  13.472  0.1143 -0.1101 -0.0381
80110W        W17604   8.789  34.443   4.961  0.1681 -0.1130 -0.1107
80111W        W17605   5.030  27.612  22.605 -0.0100 -0.1851  0.1321
80112W        W17606  10.530  35.135   6.741  0.1009 -0.0127 -0.1206
80113W        W17607  22.391   9.709   4.507 -0.0623  0.1340 -0.1630
80114W        W17608  30.451   5.033  21.261 -0.0265 -0.3306 -0.2987
80115W        W17609  22.894   3.584  19.959 -0.0275 -0.0745 -0.3342
80116W        W17610  10.909   4.315   1.100  0.1801  0.1197  0.1217
80117W        W17611  26.037  17.724  20.534  0.4774 -0.5722  0.0397
80118W        W17612  20.025  12.985   5.980  0.0343  0.0480 -0.1532
80119W        W17613   8.518  10.988   6.949  0.1467  0.2310 -0.0318
80120W        W17614  18.945  14.159  19.370 -0.2882 -0.2493 -0.2511
80121W        W17615  19.403   4.241  10.368  0.0423  0.2258 -0.5263
80122W        W17616  16.147  13.030   8.576  0.0002 -0.0901 -0.1205
80123W        W17617   9.405   3.862   9.953 -0.2357  0.2838 -0.0071
80124W        W17618  16.865  26.798   4.729 -0.0381 -0.1077 -0.2235
80125W        W17619   5.818  19.225  23.825 -0.0026 -0.1592 -0.3720
80126W        W17620  22.781  24.705  19.382  0.1842  0.0528  0.1107
80127W        W17621  28.654  14.961   9.575 -0.2352  0.2476 -0.3212
80128W        W17622  17.508  21.860  25.026  0.2249 -0.2507  0.1073
80129W        W17623  29.098  14.546   7.510  0.2685  0.4774  0.0052
80130W        W17624  33.943   8.968  24.121  0.1032 -0.0604 -0.1276
80131W        W17625  24.006   6.353   4.408 -0.1783 -0.1294  0.1596
80132W        W17626  14.670   4.006  22.188  0.0287  0.1852  0.0509
80133W        W17627   7.644  19.353  10.885 -0.1209  0.0990 -0.1067
80134W        W17628   5.942  17.908   2.605 -0.0065 -0.2592  0.2626
80135W        W17629   9.306   6.323   4.851 -0.2809 -0.3286 -0.0316
80136W        W17630  31.038  16.230  11.360  0.0714 -0.0999 -0.2574
80137W        W17631  16.346  22.877  12.530  0.4006 -0.2880 -0.2512
80138W        W17632  14.044  20.661  23.857  0.1672  0.0255  0.0743
80139W        W17633  13.823   3.842  24.288 -0.0270  0.1479 -0.2039
80140W        W17634  30.310   6.141  22.725  0.0604  0.2108  0.2087
80141W        W17635   4.654  15.887   3.878 -0.0738  0.0551 -0.0736
80142W        W17636  30.130   6.163  17.668  0.1081  0.1413 -0.3179
80143W        W17637  11.743  29.045  24.810  0.2097  0.0272  0.3567
80144W        W17638   1.040  27.519   2.057  0.2013 -0.0555 -0.0645
80145W        W17639  15.890   2.052  20.033  0.3997 -0.0531  0.3281
80146W        W17640  10.274   3.361  10.186  0.0620 -0.1403 -0.1416
80147W        W17641  21.640   0.217   6.910  0.0692 -0.1517  0.3463
80148W        W17642  25.225   4.234  25.262 -0.1424 -0.1220 -0.0052
80149W        W17643  15.350  32.534   1.605 -0.2513 -0.1614 -0.0815
80150W        W17644   5.176  17.541  21.635  0.1249 -0.0865 -0.4889
80151W        W17645   2.817  20.190  21.293 -0.2932 -0.0518 -0.0180
80152W        W17646   7.651  35.109  24.373 -0.1774  0.1843 -0.0791
80153W        W17647  12.656  32.663  22.351  0.1162  0.0758 -0.0195
80154W        W17648   6.321   4.822   1.750 -0.0015 -0.0353  0.0849
80155W        W17649   3.289  29.938   3.706 -0.0248 -0.0208 -0.1994
80156W        W17650   6.896   6.558   6.263 -0.1413  0.5729 -0.0526
80157W        W17651  28.726  13.576  22.633  0.3100 -0.1007 -0.0794
80158W        W17652  12.252  19.083   2.551  0.0933 -0.1834 -0.0828
80159W        W17653   0.947   8.297   6.047 -0.1378 -0.3313 -0.4265
80160W        W17654   6.431  29.674  21.579 -0.1021  0.1728 -0.0685
80161W        W17655   2.114  20.507  18.206 -0.2385 -0.1027 -0.1218
80162W        W17656   7.815  34.439  24.162 -0.1493 -0.2292  0.1490
80163W        W17657  27.922  25.297  10.956 -0.2013 -0.0267 -0.1999
80164W        W17658  13.918   7.015  22.925 -0.0711  0.4033  0.4455
80165W        W17659  20.567  24.427  23.358 -0.0590  0.3026 -0.2929
80166W        W17660  26.450   1.427  24.503 -0.2846  0.0235 -0.0624
80167W        W17661  33.308   5.270   2.897 -0.4359 -0.2269  0.3260
80168W        W17662  35.320  32.013  20.509  0.0815 -0.2537  0.3449
80169W        W17663  34.456  31.701  18.747  0.1010  0.0498  0.1774
80170W        W17664  33.106  17.621  10.781 -0.1363  0.0545  0.1387
80171W        W17665  32.687  23.947  12.485 -0.0817 -0.2667  0.0855
80172W        W17666  10.968   5.540  26.034 -0.2339  0.2544 -0.0095
80173W        W17667  16.864  31.167   6.035  0.1098 -0.2310 -0.1732
80174W        W17668  34.706   5.888   2.179  0.0223  0.0301  0.0744
80175W        W17669  16.700  33.574   1.536  0.2181  0.0190  0.0697
80176W        W17670  10.532  28.772  10.620 -0.4168  0.0765  0.2825
80177W        W17671  29.225  22.032  11.664 -0.0658  0.0985  0.0706
80178W        W17672  33.431   6.516  23.132 -0.0532  0.1389  0.2256
80179W        W17673  11.689   2.917   7.816  0.1458  0.1816 -0.0879
80180W        W17674  13.868  14.903   0.566 -0.1818 -0.0220 -0.2692
80181W        W17675  19.366   7.195  20.260 -0.1892  0.1988 -0.2871
80182W        W17676  27.968  20.239  12.208  0.2953 -0.2706  0.0050
80183W        W17677   7.388  21.874   5.280 -0.0983  0.0735  0.0685
80184W        W17678  14.434   6.311  12.381  0.0120  0.0869 -0.1936
80185W        W17679  29.961   9.027   9.980 -0.2560 -0.1049  0.1190
80186W        W17680  29.723  26.259  17.056 -0.1297 -0.0618  0.2561
80187W        W17681  32.217  21.373  22.560  0.1939 -0.0155  0.1513
80188W        W17682  21.386   2.546  23.273 -0.2074 -0.0436  0.0684
80189W        W17683   2.939  15.049  16.739  0.3249  0.1390 -0.1439
80190W        W17684  22.569  24.815  21.273 -0.0064 -0.0534  0.2897
80191W        W17685  24.626  21.012  19.930  0.1945  0.1644 -0.0401
80192W        W17686  31.887  17.608  24.838  0.2338 -0.5291 -0.1506
80193W        W17687  24.370   0.076  15.407  0.1365  0.3416 -0.1616
80194W        W17688  21.190   1.083   4.739 -0.0212  0.0575 -0.1057
80195W        W17689  34.191   1.954  16.273 -0.4598 -0.0172  0.3180
80196W        W17690  32.799   2.588  20.535 -0.1219 -0.2539 -0.2088
80197W        W17691   2.497  30.526  19.427  0.0973  0.0371 -0.0786
80198W        W17692  30.131  18.593   6.668  0.3028 -0.1831  0.0313
80199W        W17693  33.985   0.993   7.006  0.2113  0.2333 -0.0263
80200W        W17694  26.152  17.009  12.484 -0.2343  0.0392  0.1005
80201W        W17695  30.297   6.555  12.760  0.1000 -0.1995  0.2033
80202W        W17696  35.052  16.876  14.724  0.1947 -0.1098 -0.5553
80203W        W17697  10.180   0.509   8.370  0.0364  0.0572  0.0259
80204W        W17698  14.631   5.343   3.767 -0.2822  0.0431  0.2749
80205W        W17699   7.195   9.574   7.740  0.3073  0.2994  0.0146
80206W        W17700   4.053  31.278  11.556 -0.0909  0.1829  0.1369
80207W        W17701   9.857  19.258   1.205 -0.2698  0.0899  0.1162
80208W        W17702   5.593   9.365   6.062 -0.0586  0.2745  0.0455
80209W        W17703  13.320  18.816   1.436  0.2092  0.0612  0.2958
80210W        W17704   9.023  20.451  24.620  0.0339 -0.1483 -0.0217
80211W        W17705   1.293  21.360   2.927  0.0322 -0.1355  0.0010
80212W        W17706  18.138  18.081  20.598 -0.0761  0.0954 -0.1500
80213W        W17707  25.882  19.042  23.850 -0.1187  0.2166  0.2173
80214W        W17708   6.432  33.479  23.752  0.2122 -0.0635 -0.3131
80215W        W17709   6.768  21.223   3.334 -0.0432 -0.2678 -0.0591
80216W        W17710   8.772  20.334   0.265 -0.2524  0.2398  0.2068
80217W        W17711  25.580  11.240  19.160 -0.4879  0.4402  0.0695
80218W        W17712  14.785  20.944  23.300  0.0093 -0.0497  0.1231
80219W        W17713   9.084  34.414  26.051 -0.3690 -0.1980  0.1182
80220W        W17714  28.607  10.632  22.124  0.1078  0.0349 -0.0577
80221W        W17715  20.585  18.516  21.267  0.0924  0.0149  0.0700
80222W        W17716  10.443  30.615   3.413  0.3343 -0.0528  0.2089
80223W        W17717  20.610  31.593   4.566 -0.1034  0.3114 -0.1180
80224W        W17718  29.179  32.843   1.618  0.1234 -0.0221  0.0748
80225W        W17719   3.153  29.288   8.610  0.1951  0.0406 -0.3370
80226W        W17720  32.477  28.221   3.265 -0.3190  0.1161 -0.4576
80227W        W17721   8.699  18.260   9.580 -0.0028  0.5835 -0.0831
80228W        W17722   6.388  19.847  24.332  0.0429 -0.3130 -0.2598
80229W        W17723  13.685  22.524  10.093  0.0505  0.1024 -0.3855
80230W        W17724  21.784  17.932   1.634  0.1101  0.1634  0.1853
80231W        W17725  12.768  34.591  11.436 -0.0207 -0.3601 -0.1661
80232W        W17726  27.960   8.494   9.505  0.1889  0.0785  0.3525
80233W        W17727  11.902   9.284   9.676  0.2488  0.1754 -0.1536
80234W        W17728   8.987  12.931  25.151  0.1830  0.1097  0.0470
80235W        W17729  16.134  13.027   7.149  0.0682  0.1976  0.1651
80236W        W17730   3.356  34.551  10.978  0.1404  0.2910 -0.0133
80237W        W17731  28.507  27.191   0.480 -0.1086  0.0442  0.2092
80238W        W17732   1.529   6.268   5.877 -0.2104  0.1005 -0.1287
80239W        W17733  12.966  29.060   8.574 -0.0197 -0.0572  0.0232
80240W        W17734  24.047  19.434  10.249 -0.2486 -0.0835 -0.1326
80241W        W17735  10.996  24.775   1.967 -0.0394  0.2052  0.0362
80242W        W17736  11.701  15.039  22.116 -0.1461  0.0946 -0.0053
80243W        W17737  14.193   4.687  21.290  0.4544 -0.1994 -0.0385
80244W        W17738   3.165  27.780   8.721 -0.0628 -0.1316 -0.1659
80245W        W17739   0.433  15.551  16.535 -0.0089 -0.1801  0.1645
80246W        W17740   9.454  16.311   5.748 -0.0483 -0.0421 -0.0245
80247W        W17741   1.384  26.653  25.929  0.0835  0.1877 -0.0680
80248W        W17742  12.810  25.446   0.621  0.1831  0.0546  0.0578
80249W        W17743  11.781  24.329  17.369  0.1596 -0.0308 -0.0809
80250W        W17744  31.372  12.044  16.640  0.1360 -0.2758  0.3064
80251W        W17745  10.865  31.264   0.686  0.0184  0.0462 -0.2360
80252W        W17746  31.137  32.049  19.092 -0.1804 -0.1504  0.0702
80253W        W17747  12.099  24.930   6.382 -0.1233  0.2694  0.0290
80254W        W17748  31.069  27.518  25.510 -0.3875  0.0888  0.0804
80255W        W17749   0.578  18.374  13.190 -0.1515  0.1282  0.0852
80256W        W17750  24.341  15.751  12.452 -0.0588  0.2976  0.2560
80257W        W17751  26.239   7.365  16.812 -0.0163  0.1347 -0.1989
80258W        W17752  21.371   0.066  24.058  0.1042 -0.3500 -0.2728
80259W        W17753  18.097  32.044   7.722 -0.0664  0.1716 -0.2390
80260W        W17754  27.026  20.387  15.840 -0.1464  0.0118  0.3840
80261W        W17755   0.166   2.804   1.470 -0.2135 -0.0159  0.0604
80262W        W17756   3.419  21.054  17.596  0.0874  0.0223 -0.0313
80263W        W17757  24.219   0.764  19.182  0.0070 -0.0682  0.3244
80264W        W17758   3.768   3.444  24.269  0.1680 -0.0863  0.0521
80265W        W17759   6.793   8.370  17.699 -0.0649  0.0750 -0.1868
80266W        W17760   9.157  29.679  23.437  0.0489 -0.0636 -0.1989
80267W        W17761  23.590  18.008  16.614 -0.0053 -0.0291  0.2098
80268W        W17762  16.781  11.496  23.731  0.0308  0.1458  0.0300
80269W        W17763  30.211  24.674  10.384  0.0193  0.1402 -0.1691
80270W        W17764  14.534  31.917   5.693 -0.1352  0.2697  0.0121
80271W        W17765  13.656  11.191   9.576 -0.0379  0.0725  0.4723
80272W        W17766  21.387  20.595   4.567 -0.1826 -0.0928 -0.0290
80273W        W17767   1.604  32.432   5.437  0.0417 -0.1220  0.0071
80274W        W17768   6.884   9.588   1.664  0.2458  0.1326 -0.2071
80275W        W17769  15.133  14.379  11.151 -0.1470  0.1912 -0.1458
80276W        W17770  11.194   3.168   9.890  0.0011 -0.0656 -0.0510
80277W        W17771  33.257   8.345  21.965  0.3979  0.0812  0.1696
80278W        W17772  33.833  10.761  25.293 -0.2269 -0.2056 -0.3820
80279W        W17773  12.378  33.927  12.214  0.0785  0.2090  0.0307
80280W        W17774  30.134  26.662  14.782  0.2071  0.2202  0.3363
80281W        W17775   9.979  29.170  15.872 -0.2791  0.0444  0.1352
80282W        W17776   2.248   4.145  17.924  0.1646  0.1034  0.0097
80283W        W17777  13.169  10.679   2.588  0.1782 -0.0388 -0.1511
80284W        W17778  18.069  24.779  23.129 -0.2010  0.1375  0.3514
80285W        W17779  18.635  23.125   7.355  0.3157 -0.2031  0.2336
80286W        W17780   3.747   7.625  17.981  0.2621  0.0463  0.1767
80287W        W17781   0.428  16.343  14.985 -0.1442  0.0427 -0.1474
80288W        W17782  15.755   0.895   5.299  0.2035  0.0018  0.5668
80289W        W17783  27.395  17.123   8.913 -0.0254 -0.0108  0.0329
80290W        W17784  17.136   3.348   5.639  0.0318 -0.1343 -0.4505
80291W        W17785   4.227  18.276  19.186 -0.0326 -0.1063  0.0697
80292W        W17786  15.811   3.812   4.830 -0.0213  0.0613 -0.1183
80293W        W17787  21.436  21.863  18.143 -0.1222 -0.0714 -0.0993
80294W        W17788  16.044  25.652  11.164 -0.2605  0.4933  0.1254
80295W        W17789  18.001  19.675   3.362  0.0575 -0.0645  0.4308
80296W        W17790  25.008  14.615  12.163 -0.1592  0.0393 -0.2003
80297W        W17791   2.955  29.804   1.612  0.0071 -0.0390 -0.1711
80298W        W17792  30.292  19.949   5.315  0.2530  0.3863  0.1062
80299W        W17793  13.691  29.771   6.835  0.0546  0.0442 -0.2243
80300W        W17794   5.428  26.372  21.540  0.1057 -0.2258 -0.1218
80301W        W17795   7.067   0.412  21.435  0.2786  0.4714 -0.0406
80302W        W17796  18.815  20.442   6.768  0.2058  0.0127 -0.0012
80303W        W17797  30.389  19.183  17.104 -0.0263  0.1065  0.1186
80304W        W17798  18.794   7.022   8.080  0.0631 -0.1092  0.3164
80305W        W17799   9.154  31.501  11.058 -0.0041 -0.1673 -0.0588
80306W        W17800   9.950  17.519  21.082 -0.1649 -0.0149 -0.1275
80307W        W17801  33.030  32.474   6.529  0.1944 -0.1478  0.1833
80308W        W17802  18.753  12.415  21.246  0.0170  0.1110  0.1593
80309W        W17803  20.356  23.764  26.184 -0.0207 -0.0378  0.0551
80310W        W17804   0.511  33.388  16.885  0.0022  0.0935 -0.2493
80311W        W17805  11.189  34.883  23.529  0.1728  0.0666 -0.1255
80312W        W17806  15.731   2.426   2.877  0.2534  0.2593 -0.0234
80313W        W17807  34.487  33.273   8.009  0.1766 -0.2950  0.2470
80314W        W17808  23.611  21.351  16.339  0.0574 -0.2924 -0.2224
80315W        W17809  17.237  19.746  11.625 -0.0467 -0.0464 -0.1002
80316W        W17810  11.329  32.953   6.452  0.3164 -0.1464 -0.0408
80317W        W17811  13.419  16.038   7.127  0.1175 -0.3416 -0.1191
80318W        W17812  24.224  29.515  16.207 -0.1056  0.4844 -0.1141
80319W        W17813   1.322  19.755  12.623  0.0808  0.2995  0.1618
80320W        W17814  15.358  34.965  10.390 -0.1451  0.1709 -0.0664
80321W        W17815   5.506  16.254   3.583  0.5749 -0.2020  0.1566
80322W        W17816  17.153  32.678  17.794 -0.2218  0.1611  0.0766
80323W        W17817  20.637   2.994  18.234  0.1737  0.1174  0.1715
80324W        W17818  13.967  34.147  22.981 -0.0388 -0.1060 -0.0727
80325W        W17819   4.427   5.010   1.945 -0.1996  0.3185 -0.0314
80326W        W17820  21.684  28.627   6.649 -0.0852  0.1599 -0.0135
80327W        W17821  11.234   7.479  23.124  0.3152 -0.2608 -0.1843
80328W        W17822   9.048   3.191  12.909  0.0231  0.1128 -0.1105
80329W        W17823  12.212  15.001  18.147  0.1400  0.1798  0.1297
80330W        W17824  14.196   6.351   6.475 -0.4423 -0.1725 -0.3288
80331W        W17825   0.755  19.242  12.794  0.1561 -0.0430 -0.1780
80332W        W17826   2.607   5.637   4.704  0.1384 -0.1576  0.0013
80333W        W17827   6.395  26.227   2.473 -0.0377  0.2341 -0.2454
80334W        W17828  13.636  10.492   2.524  0.3000 -0.0220  0.3267
80335W        W17829   2.157   3.274   7.294 -0.2276  0.2173 -0.1749
80336W        W17830  20.396  17.169   2.170 -0.0783  0.1921  0.0120
80337W        W17831  22.283  34.707  15.942 -0.0507  0.1971  0.0626
80338W        W17832  16.116  18.172   9.015 -0.2069  0.0646 -0.0248
80339W        W17833  24.462  24.902  14.811  0.0723 -0.1537 -0.1435
80340W        W17834  25.011   7.251   3.304  0.2818 -0.0928  0.0581
80341W        W17835  11.555  17.943  14.631 -0.0021  0.0246 -0.0939
80342W        W17836   2.841  29.487   7.369  0.0067  0.1653 -0.3093
80343W        W17837   7.959  29.245   2.432 -0.0271 -0.0848  0.2555
80344W        W17838  13.936  30.873   1.231 -0.0597 -0.0347 -0.0184
80345W        W17839  30.409   6.411  23.689 -0.3299  0.3275 -0.1983
80346W        W17840  34.676  29.740  26.120 -0.1141 -0.0609 -0.0153
80347W        W17841  16.742  29.668  10.835 -0.2892 -0.0702 -0.1208
80348W        W17842  28.496   0.463   1.215 -0.0268 -0.1369  0.0701
80349W        W17843  18.988  11.235  23.505  0.1527 -0.3227 -0.0884
80350W        W17844   7.625  29.683   2.054 -0.0953  0.0919  0.0589
80351W        W17845   9.480   0.748  10.751  0.0254  0.1558 -0.2029
80352W        W17846  14.776  33.649  25.444  0.0937 -0.0718  0.0037
80353W        W17847  12.794  11.948  13.328 -0.3560  0.1382  0.2167
80354W        W17848  33.993  29.467  24.538 -0.3846 -0.1771  0.0320
80355W        W17849  26.127  13.336  24.812  0.1920 -0.3103  0.1043
80356W        W17850   6.833  35.105  23.290  0.0139 -0.2529 -0.2385
80357W        W17851   9.747  17.721  10.836 -0.1526  0.0037 -0.0758
80358W        W17852  19.557   4.164  18.647  0.0348 -0.1945  0.1369
80359W        W17853  20.973  10.927   7.542  0.0266 -0.3594 -0.0360
80360W        W17854  13.144   3.043  10.719  0.1294 -0.2816  0.2732
80361W        W17855  11.677   4.994   3.642  0.0087 -0.1443 -0.0731
80362W        W17856  18.374  27.920   1.208  0.2145 -0.1672 -0.2413
80363W        W17857  31.737  21.275  22.468  0.1334  0.0999 -0.3267
80364W        W17858  13.847  31.343  10.517  0.3971  0.1977  0.2239
80365W        W17859  17.316   6.025  10.694 -0.3692  0.1973  0.3764
80366W        W17860  18.544  26.580   4.291 -0.2426  0.0060  0.1603
80367W        W17861  22.506   3.609  23.040 -0.0557  0.0291 -0.0423
80368W        W17862  22.975   1.129  24.569  0.1195 -0.2454  0.3674
80369W        W17863   5.101  26.301   7.484 -0.3549 -0.1501  0.2532
80370W        W17864  19.129  18.844  19.189  0.0227 -0.0937 -0.2677
80371W        W17865  26.710   8.143  25.532  0.1612  0.0788  0.0193
80372W        W17866  27.986  32.042  13.571 -0.0246 -0.1227  0.4165
80373W        W17867   7.864  31.967   9.449  0.2513 -0.1258  0.0673
80374W        W17868  18.000  21.598   9.952  0.1315  0.0832 -0.0063
80375W        W17869  11.725  20.228   2.205 -0.0265 -0.1174  0.0672
80376W        W17870  22.958  28.625  14.990 -0.2440  0.1932  0.1104
80377W        W17871  13.557   4.414  24.100  0.0875  0.0979 -0.1807
80378W        W17872  15.616  25.087   6.431 -0.0816 -0.2727  0.0389
80379W        W17873   1.236  31.665  20.738  0.2061 -0.0230 -0.1345
80380W        W17874   2.850  10.507   2.395 -0.0563 -0.2047 -0.1019
80381W        W17875  13.462  31.519  13.057  0.0711 -0.0750 -0.2415
80382W        W17876  16.358   9.583   7.973 -0.1416 -0.0287 -0.0550
80383W        W17877  18.877  12.374   8.067 -0.2201 -0.1259  0.1004
80384W        W17878  20.663  11.304  16.817 -0.1893  0.1000  0.3168
80385W        W17879  21.686  10.447  18.087 -0.0671  0.0930  0.1675
80386W        W17880   6.907  32.391   2.178  0.3532  0.0156 -0.0098
80387W        W17881  18.408  24.606   2.926  0.0226 -0.2496  0.0366
80388W        W17882  14.377  32.502  12.953 -0.0851 -0.2873 -0.0523
80389W        W17883  11.129  12.181   1.060  0.2865  0.2882  0.1712
80390W        W17884   8.915   2.812  13.518 -0.1677 -0.0121 -0.1607
80391W        W17885  32.531   2.052  16.174  0.2918 -0.1452  0.2736
80392W        W17886  22.858  23.172   1.422 -0.2615 -0.0995 -0.0076
80393W        W17887  31.584  17.217  24.504  0.0635  0.0440 -0.5348
80394W        W17888  14.341  19.964   8.207 -0.0389  0.0305  0.1483
80395W        W17889  34.629  20.170  14.642 -0.1260 -0.0821 -0.0910
80396W        W17890  12.706   4.758   5.456  0.3021 -0.0852 -0.2612
80397W        W17891  12.501  18.385  24.640  0.1773  0.2592  0.2478
80398W        W17892  28.624  29.448   1.244 -0.0647  0.0018 -0.1937
80399W        W17893  16.886  34.757  17.452  0.0162  0.2198  0.2486
80400W        W17894  27.929  13.685  19.252  0.1916  0.1498 -0.0319
80401W        W17895   7.236  25.398  21.564 -0.0453  0.1178 -0.1601
80402W        W17896   2.067  12.943  19.148  0.0465 -0.0473 -0.2001
80403W        W17897  25.660   5.305  25.919 -0.1093  0.2617 -0.1139
80404W        W17898  13.391  16.645  12.362 -0.2323  0.2249  0.1359
80405W        W17899  21.073  11.528   0.706 -0.2881  0.0691 -0.0358
80406W        W17900   1.459  22.783   0.323  0.0564  0.7574  0.0367
80407W        W17901   6.051  11.924   8.528  0.1150  0.1893  0.0503
80408W        W17902  10.093  30.921   0.917 -0.2172 -0.1133  0.1805
80409W        W17903   6.463   1.242   2.475 -0.2895 -0.0487  0.1734
80410W        W17904   3.615  34.670  22.392 -0.1410 -0.3007 -0.2527
80411W        W17905   8.037   4.342   9.278 -0.5014 -0.4028 -0.1774
80412W        W17906   6.388  33.485   8.443  0.0538 -0.0938  0.1445
80413W        W17907  24.694   7.944  21.670 -0.1084  0.1168  0.0734
80414W        W17908   8.901   2.615   7.303 -0.3871  0.1746  0.1151
80415W        W17909  13.430  28.273  10.705  0.0147 -0.0754 -0.2035
80416W        W17910  21.091   8.940   2.241 -0.0889 -0.3570 -0.0246
80417W        W17911  30.218  19.098  18.262  0.1438  0.1922  0.0149
80418W        W17912   9.075  21.919  11.599  0.0446  0.4654  0.1470
80419W        W17913  21.905  20.188  19.560  0.0088 -0.3516  0.1214
80420W        W17914  30.510  14.421  14.321 -0.3839  0.0580 -0.0764
80421W        W17915  24.981  25.028  12.487  0.1537 -0.2666  0.0212
80422W        W17916  27.148  11.852  21.452 -0.0612  0.2098  0.1648
80423W        W17917   2.601  11.495  18.264  0.2441 -0.2034  0.4179
80424W        W17918   2.737  13.022  15.737  0.1696  0.0414  0.4756
80425W        W17919  30.778  33.012   3.876 -0.0052 -0.1474  0.2896
80426W        W17920  27.529   0.827  11.067  0.0669 -0.2416 -0.1350
80427W        W17921   9.323  28.382  11.973 -0.2587 -0.0323 -0.1825
80428W        W17922   1.717  12.699  22.246 -0.0969  0.0167  0.2519
80429W        W17923  13.503   5.747  25.244  0.1444  0.2445 -0.0537
80430W        W17924  33.687   1.803   7.953 -0.0894 -0.4171  0.1701
80431W        W17925  20.576   9.290  18.128 -0.1578 -0.1065  0.1458
80432W        W17926  12.721  30.492  12.825  0.2308 -0.1500  0.2596
80433W        W17927  12.039  21.182   8.177 -0.0297 -0.1932  0.0444
80434W        W17928  14.029  11.335  24.709 -0.0330 -0.1362 -0.2658
80435W        W17929   5.581  13.917  26.035 -0.1560  0.5805 -0.2159
80436W        W17930  10.017  31.086   9.540 -0.0918  0.0061  0.0226
80437W        W17931  10.830  10.292   9.250  0.2541 -0.3456 -0.1367
80438W        W17932   8.238  15.603  22.370  0.0608 -0.1859  0.0203
80439W        W17933   2.932  28.371   3.395  0.2731 -0.2615  0.0461
80440W        W17934   5.853  25.747   4.473 -0.1830 -0.1094 -0.2539
80441W        W17935  27.928  28.316  10.355 -0.0363  0.1202 -0.0660
80442W        W17936  21.429  12.583  24.678  0.1490 -0.1110 -0.2327
80443W        W17937  12.292   4.675   7.492 -0.4176 -0.2292 -0.1967
80444W        W17938  15.748  25.550  13.197  0.1527  0.3494 -0.1322
80445W        W17939  18.844  30.261  20.239 -0.2186 -0.0468  0.0203
80446W        W17940   8.036   0.618   0.473  0.0078 -0.0371 -0.0307
80447W        W17941  25.490  15.805  10.846  0.1739  0.2439  0.1171
80448W        W17942  25.440  34.922   6.200 -0.4229 -0.2451 -0.0515
80449W        W17943  29.152   6.426  13.849 -0.0067  0.1244 -0.0040
80450W        W17944   1.381  29.291   7.090 -0.1021 -0.3951 -0.1992
80451W        W17945   1.129  10.765   0.713 -0.0306 -0.2021  0.2308
80452W        W17946   3.766   3.345  21.301 -0.0633  0.0646 -0.1808
80453W        W17947  10.598   2.545  21.487  0.0827 -0.0607  0.2710
80454W        W17948  20.977   4.759   2.897  0.1489 -0.1087 -0.1002
80455W        W17949   7.599  21.534   8.019 -0.1856  0.3032  0.1272
80456W        W17950  32.499  22.554  14.716 -0.0380  0.2833 -0.1577
80457W        W17951  34.315  32.831   0.659 -0.0412 -0.4261  0.3215
80458W        W17952  27.084  28.918  19.813 -0.3505 -0.2028  0.0610
80459W        W17953  11.830  12.872  12.226 -0.1086 -0.0186 -0.3137
80460W        W17954  25.932   8.659  20.458 -0.1314 -0.2633 -0.2081
80461W        W17955  23.462   8.275  16.388  0.3420  0.3817 -0.3488
80462W        W17956  17.669  22.189   9.233 -0.3681 -0.1772 -0.3496
80463W        W17957   5.121  29.670  24.628 -0.1115 -0.2761 -0.2318
80464W        W17958  31.782   5.071  11.851  0.0025 -0.1592 -0.1556
80465W        W17959  13.795   7.200   9.305 -0.3881 -0.2934 -0.0361
80466W        W17960  31.124  18.102  18.050 -0.0359  0.2018 -0.0846
80467W        W17961  21.705  35.335  23.216 -0.0852  0.0536 -0.1997
80468W        W17962  31.300   2.294  12.743 -0.0288  0.2553 -0.0440
80469W        W17963  23.517  10.929  17.746 -0.3429 -0.1111 -0.1565
80470W        W17964  31.934   1.483  15.343  0.2135 -0.2819 -0.0457
80471W        W17965  15.546  11.827   7.810  0.0638 -0.1293  0.2262
80472W        W17966   9.032  12.351  21.779  0.2449 -0.0998  0.0955
80473W        W17967   0.421  15.041  15.197 -0.0699  0.0809  0.1976
80474W        W17968  23.481   2.456  25.271  0.2520  0.3951  0.2460
80475W        W17969  29.312  21.459  19.364 -0.0454 -0.0017  0.0661
80476W        W17970  10.902  33.375   9.247 -0.1496  0.0709  0.1870
80477W        W17971  23.737  33.364  20.399 -0.2730 -0.0364  0.1797
80478W        W17972   1.535  33.654  21.232  0.1309  0.0725  0.1061
80479W        W17973  26.635  24.272  19.475 -0.0495 -0.1181  0.0652
80480W        W17974  24.862  14.695  21.506 -0.0441 -0.0267 -0.1225
80481W        W17975   2.515  35.285   5.801  0.1410 -0.2686  0.2055
80482W        W17976  22.720  11.583   3.778 -0.1103  0.1679 -0.1297
80483W        W17977  20.410  17.203  19.306  0.0320 -0.2185 -0.1186
80484W        W17978   4.150   6.772  23.244  0.2108 -0.2048  0.4076
80485W        W17979   1.278   8.255  20.014  0.0021  0.0460  0.1091
80486W        W17980  26.918   1.475   4.666  0.3190  0.2049  0.0607
80487W        W17981   3.378  27.292  10.135  0.2042 -0.0942 -0.3257
80488W        W17982   8.133  15.542   0.012 -0.0485  0.2220 -0.0978
80489W        W17983  17.688  15.732   2.287 -0.2525 -0.1315 -0.0636
80490W        W17984   2.329   3.533   7.789  0.0505  0.2166  0.0272
80491W        W17985   7.122   2.544  20.268  0.0388  0.2146 -0.1271
80492W        W17986  30.803  18.215   5.295  0.1255  0.1248  0.1201
80493W        W17987  34.707   7.263   1.507 -0.0888  0.0749  0.2194
80494W        W17988   2.207  21.766  19.477  0.0560  0.2495 -0.2101
80495W        W17989  32.798  17.587   0.354  0.1160  0.1643  0.4683
80496W        W17990  13.257  18.796  10.624  0.0382  0.3107 -0.2027
80497W        W17991  14.751  24.641  12.068  0.0473 -0.1465  0.1127
80498W        W17992   3.721  16.665  21.423 -0.0702 -0.1633  0.3789
80499W        W17993  32.290  35.234  18.739 -0.1246  0.2030  0.0699
80500W        W17994  25.833  25.501  21.066 -0.0931  0.0068  0.2092
80501W        W17995  32.166  25.457   8.116  0.1464 -0.0156 -0.0793
80502W        W17996  33.157  29.634  24.555 -0.0912 -0.1385  0.0851
80503W        W17997  35.154   3.548  25.703  0.3283 -0.2007 -0.0456
80504W        W17998  11.480   6.860  11.933  0.0249 -0.0429 -0.1881
80505W        W17999  21.398  21.163   3.189 -0.0737 -0.1251  0.3709
80506W        W18000  15.092  11.392   4.907  0.0231  0.0837 -0.2302
80507W        W18001  28.622  18.591  18.805 -0.2282  0.1894  0.2203
80508W        W18002   5.171  17.212  16.944  0.1443  0.0234 -0.1000
80509W        W18003  10.569   4.632   5.635 -0.1308  0.1319 -0.1448
80510W        W18004  25.519  29.771  12.142 -0.0869 -0.1496 -0.1392
80511W        W18005  13.480  15.866   1.851 -0.1936 -0.3269 -0.1790
80512W        W18006  31.462  18.529  10.533  0.0267 -0.1221 -0.4133
80513W        W18007  24.476  17.876  25.225 -0.1292  0.2426  0.0589
80514W        W18008  22.092  29.972  18.578 -0.4883 -0.0719  0.0415
80515W        W18009  23.142  31.868  23.324  0.1153 -0.2404  0.1336
80516W        W18010  22.448  32.837  23.740  0.1089  0.0844 -0.3087
80517W        W18011  18.713  15.812  23.259 -0.2180  0.0484 -0.2735
80518W        W18012  18.719  16.677   3.420  0.0975 -0.1295 -0.3356
80519W        W18013   1.963  23.953   1.837  0.0774  0.2984 -0.1984
80520W        W18014  23.231  21.103  19.155  0.0929  0.1663 -0.1978
80521W        W18015  11.595  34.984  13.153 -0.3841  0.1947 -0.2907
80522W        W18016   0.049  11.312  11.444  0.0895  0.1482 -0.2516
80523W        W18017   2.272   7.535  16.518 -0.1625  0.1299  0.2303
80524W        W18018  31.270  15.212  19.637 -0.3045  0.2271 -0.0881
80525W        W18019  34.065  18.639   7.425 -0.3069  0.2800 -0.4549
80526W        W18020  30.038  16.344   7.371 -0.0980 -0.7014 -0.0987
80527W        W18021   8.961  23.208  23.960  0.1310  0.0818  0.1477
80528W        W18022  28.827  10.349  10.812  0.2058  0.2072 -0.0325
80529W        W18023  23.206  18.313  17.090  0.0950  0.1744 -0.1773
80530W        W18024  32.072  17.176  24.629  0.0829 -0.0628 -0.3960
80531W        W18025  18.048  26.804  23.070  0.0840  0.1289 -0.1585
80532W        W18026  25.100  32.750  18.519 -0.0363  0.0094 -0.5820
80533W        W18027  33.897  30.593   3.047 -0.0095 -0.0081 -0.2306
80534W        W18028  33.904  32.296   4.931 -0.1681 -0.0600  0.1396
80535W        W18029   2.811   8.138   3.481  0.3965  0.3801 -0.3933
80536W        W18030   7.583   2.913   4.570  0.1256 -0.2673 -0.2557
80537W        W18031  29.384  17.200  24.480 -0.2418 -0.0213  0.1213
80538W        W18032   6.043  19.411  20.392 -0.1629 -0.0414  0.2367
80539W        W18033   5.208  34.164   4.831 -0.0150  0.3217  0.0263
80540W        W18034  17.946   1.998   7.564  0.0429 -0.0521 -0.0018
80541W        W18035  10.318   2.754  25.677 -0.2130  0.2307 -0.4327
80542W        W18036  13.494  29.303   1.180  0.0954 -0.0404  0.3961
80543W        W18037   4.058  10.926  21.303 -0.0138  0.3348 -0.4239
80544W        W18038  12.454  24.953  15.344 -0.3657  0.1865 -0.0348
80545W        W18039  30.011  27.288  15.942  0.0670 -0.0949  0.1045
80546W        W18040   1.494   0.054   8.483 -0.0328 -0.2390  0.2398
80547W        W18041  22.093  14.596   0.028 -0.1159  0.3532 -0.0115
80548W        W18042  27.959  24.749  16.663  0.2476 -0.0756 -0.3186
80549W        W18043  33.863  21.208  12.791 -0.4809 -0.1521 -0.0077
80550W        W18044  26.149  20.014   7.002  0.1633 -0.2212 -0.1679
80551W        W18045  22.281   4.808   0.937  0.1166  0.0207  0.5399
80552W        W18046  32.231  13.527  18.774  0.0642  0.1837  0.0398
80553W        W18047   1.409  30.913  18.658 -0.0584 -0.2512 -0.2335
80554W        W18048  27.394  12.005  25.407  0.5589  0.1161 -0.0035
80555W        W18049  34.348   5.707  11.644 -0.0326 -0.0326 -0.1684
80556W        W18050  24.190  32.191   0.188  0.0064 -0.1308 -0.0900
80557W        W18051  23.742  28.802  10.546 -0.1343  0.2551 -0.3038
80558W        W18052  32.137  24.446  16.546  0.0119 -0.0771 -0.2167
80559W        W18053  16.835   3.935  17.340 -0.0560 -0.1400  0.2630
80560W        W18054  13.735   3.380  18.425 -0.0943  0.0542  0.0629
80561W        W18055   8.007  28.549   8.682 -0.0230 -0.1714  0.0924
80562W        W18056  25.688  22.633  22.142  0.1454 -0.0517 -0.0560
80563W        W18057  18.900   7.760   4.318  0.0223  0.5027  0.1948
80564W        W18058  21.748   3.640  15.312  0.0113 -0.1170 -0.0730
80565W        W18059   7.666   7.052   5.721 -0.1404  0.0732  0.0235
80566W        W18060  32.230   7.445  14.763  0.3717 -0.2288 -0.4211
80567W        W18061   9.315  27.746   2.118 -0.0474 -0.0211 -0.2352
80568W        W18062   1.005  33.357  16.926 -0.0532  0.0528  0.0042
80569W        W18063  24.278  11.834  20.919 -0.0178 -0.2111  0.1174
80570W        W18064   1.289   2.117  23.640  0.0240 -0.0883  0.2849
80571W        W18065  18.205  29.567  22.364  0.2178 -0.2221 -0.0502
80572W        W18066  13.794   7.154  20.549  0.1407 -0.0266 -0.1009
80573W        W18067   0.615   1.447   6.928 -0.1509 -0.2559  0.1001
80574W        W18068  27.019  27.439  18.139  0.1759 -0.0276 -0.2726
80575W        W18069  10.171   3.536  10.704  0.0797 -0.1586  0.2100
80576W        W18070  20.267   3.939   6.998  0.0142 -0.3486 -0.1806
80577W        W18071   0.567  34.549   8.679 -0.0427  0.1572  0.0036
80578W        W18072  12.666  15.826  12.122  0.0895  0.1805 -0.0937
80579W        W18073  16.050  34.352   3.289 -0.1658  0.1604 -0.0850
80580W        W18074  17.118  13.997   2.839  0.1402  0.1423 -0.0391
80581W        W18075  32.191  10.953  13.522 -0.2561 -0.1420  0.0057
80582W        W18076  15.128  12.160  22.019 -0.2458  0.1453 -0.4281
80583W        W18077  26.958  18.750  20.019 -0.1792  0.1341  0.0348
80584W        W18078  10.651   3.024  12.995 -0.1753  0.2642  0.0131
80585W        W18079  25.291  18.653  23.277  0.2941  0.2313  0.0224
80586W        W18080   4.745   1.380   2.281  0.0859  0.0459 -0.0163
80587W        W18081   8.564  25.876   9.280  0.1171  0.1844  0.0113
80588W        W18082   1.218  34.152   4.309  0.1072 -0.2968 -0.2132
80589W        W18083  33.737  21.599  24.800  0.0521  0.0265 -0.0002
80590W        W18084  17.423  27.075   3.806  0.3511  0.1004 -0.0950
80591W        W18085  33.201  22.081  22.086 -0.0185 -0.0390 -0.2372
80592W        W18086  14.205  25.083  11.066 -0.0005  0.0790  0.0754
80593W        W18087  12.833  19.843   2.217  0.0878 -0.0679  0.1974
80594W        W18088   0.948   5.404  17.850  0.1225 -0.3580  0.0887
80595W        W18089  19.916   8.226  24.330 -0.0023 -0.1974 -0.1492
80596W        W18090   5.169   7.720   6.460  0.0965  0.0784 -0.2634
80597W        W18091  16.341  16.127  21.072 -0.0592  0.0868  0.4838
80598W        W18092   9.692  21.945  23.623 -0.0822 -0.1273  0.2683
80599W        W18093   0.859  23.820  18.115  0.1564  0.1193 -0.0777
80600W        W18094  28.108   0.911  13.961 -0.2837 -0.2419  0.2373
80601W        W18095  30.011  33.001  25.211  0.0941 -0.0683  0.4016
80602W        W18096  14.081  16.570   6.789  0.0928  0.2612 -0.2320
80603W        W18097  27.040  26.290  10.688  0.0699  0.0388  0.2186
80604W        W18098  14.010  11.097   2.153 -0.0554 -0.3293 -0.0696
80605W        W18099  17.012   7.864   2.168  0.0866 -0.4635 -0.2565
80606W        W18100   1.691  27.409  19.291  0.0935  0.0481  0.3442
80607W        W18101   9.104   9.933  10.317 -0.0470 -0.3169 -0.2100
80608W        W18102  12.549  13.445   7.295  0.0316  0.1987  0.1712
80609W        W18103  26.762  33.345   0.491  0.0687 -0.0253  0.2414
80610W        W18104   3.509  24.769  20.763  0.2578 -0.1129 -0.1641
80611W        W18105   8.648  29.462   4.614  0.2904  0.2897 -0.4520
80612W        W18106  12.242  13.115   3.729 -0.1770  0.3635  0.2444
80613W        W18107   8.093  11.383  25.132 -0.1612  0.1383  0.1814
80614W        W18108   8.140   3.496  20.988 -0.0738  0.0757 -0.1123
80615W        W18109  21.357  19.896   3.481  0.2989  0.0280 -0.0384
80616W        W18110  21.816   8.711  18.690 -0.2308 -0.3795  0.2417
80617W        W18111  20.676  21.696  21.612  0.0959  0.1113 -0.3175
80618W        W18112   8.395   7.254   9.798  0.0909  0.0485  0.1002
80619W        W18113  20.925   4.311   3.234  0.0180 -0.0489  0.0665
80620W        W18114   6.419  35.188  22.519 -0.2935  0.1681 -0.0610
80621W        W18115  32.213  27.756   1.943  0.0935 -0.0339 -0.0543
80622W        W18116   8.152  31.307  25.164  0.0423 -0.0736  0.4603
80623W        W18117   9.131  26.972   7.437 -0.2114  0.0039 -0.1095
80624W        W18118   5.302  23.428  21.938 -0.0279 -0.1756  0.0086
80625W        W18119   5.409  23.237   6.646 -0.0718  0.3822  0.0265
80626W        W18120  24.173  30.556  21.683 -0.2348 -0.1258 -0.1102
80627W        W18121  15.160  29.627   0.095  0.1703  0.2720  0.1170
80628W        W18122   7.440  26.184  12.836  0.0045  0.0057  0.1015
80629W        W18123   3.241  20.948  12.686 -0.3497  0.0674 -0.1496
80630W        W18124  14.284  28.916  21.682  0.0926  0.2231  0.0957
80631W        W18125  15.985   4.662  24.041  0.2094  0.0228 -0.1461
80632W        W18126  18.519  16.759  25.910  0.1254 -0.1855 -0.1191
80633W        W18127  34.079   4.744  21.980  0.0789  0.2298  0.1336
80634W        W18128  19.943   6.320   1.846 -0.2797 -0.4708 -0.0754
80635W        W18129   6.790  29.198  13.674 -0.1566  0.0645 -0.3339
80636W        W18130  33.834  17.064  13.210  0.0669 -0.1138 -0.2447
80637W        W18131   1.269  28.440   2.391  0.3069 -0.2361  0.1324
80638W        W18132  27.946   2.196   4.083  0.0946 -0.2793  0.4151
80639W        W18133   8.009  11.781   7.821 -0.0112  0.1778 -0.0062
80640W        W18134  20.394   0.470  20.198 -0.0246 -0.4516  0.0653
80641W        W18135   2.799   7.753  18.672 -0.3275 -0.2489 -0.1288
80642W        W18136  21.316   7.852  25.912 -0.1213 -0.0925 -0.0036
80643W        W18137  16.245  18.953   2.175  0.1679  0.0828  0.0756
80644W        W18138  17.790  14.944  24.321 -0.2459  0.2505  0.1509
80645W        W18139   6.604  29.441   8.584 -0.3387 -0.2150  0.1392
80646W        W18140  20.128  28.190   1.386  0.0140  0.2223 -0.1009
80647W        W18141  18.579  22.060   3.720  0.2601  0.1006  0.2597
80648W        W18142  25.988   1.646   4.740 -0.1189 -0.2251  0.1912
80649W        W18143  30.380   8.520   2.124 -0.0446 -0.1103 -0.0329
80650W        W18144   7.486   3.715  24.524  0.0675  0.0733 -0.1635
80651W        W18145  25.190  16.904   8.395  0.2300 -0.0699  0.1971
80652W        W18146  29.698   0.692  22.055 -0.1363 -0.0811  0.3092
80653W        W18147  20.810  19.955  23.171 -0.0060  0.1287 -0.1824
80654W        W18148  26.301  12.249  23.670 -0.3995  0.0323 -0.2874
80655W        W18149  12.249  10.615  19.734 -0.0782  0.0729  0.0460
80656W        W18150  15.916  10.296  26.108  0.0241  0.1118 -0.0697
80657W        W18151  14.882  27.954   6.527 -0.1875 -0.0418  0.0927
80658W        W18152  10.975  34.672   8.531 -0.2311 -0.0442 -0.3000
80659W        W18153   6.872  23.347  24.417  0.0570 -0.0247 -0.0129
80660W        W18154   9.840   1.825  12.184  0.0105 -0.0831  0.0357
80661W        W18155  32.542  25.144  24.369  0.0621  0.2138  0.0192
80662W        W18156  20.249  33.735  17.074  0.0314  0.1487 -0.0320
80663W        W18157  16.740  10.162   9.386  0.1324  0.1784 -0.2153
80664W        W18158   8.824   0.610  15.385 -0.0080 -0.1815 -0.0695
80665W        W18159  31.024  15.965  16.812  0.1844 -0.1217 -0.2706
80666W        W18160  20.667   0.464   5.612  0.3867  0.1482 -0.0694
80667W        W18161   6.410  33.706  13.667  0.0975  0.3318  0.4557
80668W        W18162  33.530  16.486  18.824 -0.1861  0.5029  0.3231
80669W        W18163  22.859  15.721  15.216  0.2477 -0.4867  0.0977
80670W        W18164  22.155   9.681  16.178  0.1240  0.1730  0.0347
80671W        W18165   3.468  24.454  21.771  0.2592 -0.1789 -0.1287
80672W        W18166   8.416  15.755   2.612  0.0445 -0.3479  0.0510
80673W        W18167  32.804   0.928   5.087 -0.1652 -0.1128  0.0319
80674W        W18168  25.784  30.744   3.139  0.1346  0.0846 -0.2281
80675W        W18169   1.756   3.181  14.243  0.4428  0.1047  0.0475
80676W        W18170  30.399  27.582   1.878 -0.0257  0.0261 -0.1858
80677W        W18171  12.423   3.091   3.406 -0.0318 -0.3649 -0.2152
80678W        W18172   6.432  30.257  25.292  0.0294 -0.2725 -0.2380
80679W        W18173  31.908  10.653  16.799 -0.2388  0.1805  0.0346
80680W        W18174  26.218   0.970  16.372 -0.0541  0.0894 -0.0621
80681W        W18175   0.344   2.234  21.366 -0.2713  0.2505  0.1105
80682W        W18176  26.645  10.085   8.447 -0.2307  0.1843  0.0561
80683W        W18177  21.240  16.413   0.825  0.1935 -0.0637  0.1722
80684W        W18178  28.868  25.700  10.884 -0.0136  0.0229 -0.0326
80685W        W18179   9.030   0.944   2.503 -0.0870  0.0237  0.3144
80686W        W18180  29.576  14.161  13.820  0.0421  0.0554  0.0976
80687W        W18181  11.709   3.479  10.603 -0.0757 -0.4200  0.0627
80688W        W18182  22.982   2.686   7.951 -0.1880 -0.2499 -0.3411
80689W        W18183  29.052  27.560  14.896  0.0287 -0.1157  0.0685
80690W        W18184  34.969  11.918   1.828  0.1748  0.1873 -0.0784
80691W        W18185  26.857  22.071   9.941 -0.3466  0.2721 -0.2725
80692W        W18186   1.414  18.352  24.381  0.1267 -0.2552 -0.1056
80693W        W18187  11.573  12.861  20.403 -0.0120  0.2897 -0.0687
80694W        W18188  14.893   2.427   6.315 -0.1871  0.0296 -0.2383
80695W        W18189  29.926  25.542  22.338  0.0778  0.0586  0.0660
80696W        W18190  13.819  26.908  23.110 -0.1843 -0.0140  0.1038
80697W        W18191  33.112  19.528  13.945  0.1296 -0.0848  0.0952
80698W        W18192  31.602  27.383  13.085  0.1611 -0.2514  0.0977
80699W        W18193   1.678   6.557  19.502 -0.0851  0.0258 -0.0234
80700W        W18194  26.526  26.007  13.309 -0.2501  0.3113 -0.0885
80701W        W18195  25.326  23.067  11.335  0.0973 -0.3540 -0.0585
80702W        W18196  34.995  11.173  20.138 -0.0803  0.0517 -0.0211
80703W        W18197  17.802   1.272  22.029 -0.0680  0.0288  0.0897
80704W        W18198  34.548   6.385  21.524 -0.1070 -0.1265  0.1023
80705W        W18199  24.765  14.903  22.731  0.0546  0.1355  0.1989
80706W        W18200  19.524  27.950   2.108  0.2167  0.1203 -0.0893
80707W        W18201  34.849   2.620  20.473 -0.0647  0.1810  0.0708
80708W        W18202  32.907   8.485  13.919 -0.0651  0.2127  0.0359
80709W        W18203  32.592   0.639  19.358  0.0229  0.0628 -0.2176
80710W        W18204  20.438   7.644  23.800 -0.0438 -0.1397  0.0174
80711W        W18205   8.852   2.307   9.390 -0.1856  0.1884 -0.1069
80712W        W18206  15.039   8.763   0.391  0.1726 -0.0054 -0.1745
80713W        W18207  21.656  30.513   0.743  0.1061 -0.1093 -0.0871
80714W        W18208  11.561   8.803   9.405  0.1417  0.0192 -0.0738
80715W        W18209  12.386  31.514  21.140 -0.1529  0.2073 -0.0558
80716W        W18210  34.247   5.901  18.818 -0.7151 -0.4060 -0.1647
80717W        W18211   9.484   0.540  13.794 -0.1201 -0.1154 -0.0200
80718W        W18212  13.227  22.201   4.835 -0.0557 -0.0368  0.1790
80719W        W18213  18.890  34.580  21.759  0.0063  0.1303  0.2284
80720W        W18214  29.029  23.175  19.886  0.2114 -0.2238 -0.0945
80721W        W18215  12.860  12.646  20.874 -0.0128 -0.3061  0.1387
80722W        W18216   4.066  19.106  17.928  0.3379  0.1330  0.0599
80723W        W18217  11.735  29.913   1.698  0.0792  0.3297 -0.2448
80724W        W18218   4.291  16.302   3.000  0.1192  0.0435 -0.0690
80725W        W18219  14.848   0.900  22.422  0.1911  0.0582 -0.0643
80726W        W18220  31.838   3.877   1.937 -0.0522  0.0406  0.1178
80727W        W18221  14.111  11.741  19.110 -0.1578 -0.2297 -0.2309
80728W        W18222   0.673  17.549  11.290 -0.2857 -0.2004  0.2425
80729W        W18223  25.571  20.502  20.609 -0.0726  0.1616  0.1314
80730W        W18224   0.354   6.281  14.207  0.2236 -0.0279  0.0139
80731W        W18225  22.071  29.783  22.348 -0.2395 -0.0299 -0.0007
80732W        W18226  19.190  14.388   5.962  0.0922 -0.1907  0.3125
80733W        W18227   3.700  33.371  25.517 -0.2143  0.2207 -0.2966
80734W        W18228   1.128  29.161  22.622 -0.0590  0.4399 -0.1772
80735W        W18229  26.687   1.155   5.054 -0.2740  0.1525 -0.0189
80736W        W18230  19.137  20.947   3.693  0.4464 -0.2634 -0.2373
80737W        W18231  19.014  29.850   7.023 -0.0950  0.0200 -0.0838
80738W        W18232  14.907  17.347  23.243  0.3958 -0.2016 -0.0584
80739W        W18233   3.112  24.704  21.103  0.2431 -0.0823 -0.0610
80740W        W18234  28.711  29.278   2.626  0.0359  0.2205  0.0353
80741W        W18235   0.241   8.701  23.559  0.2297  0.0503 -0.1169
80742W        W18236  27.538   3.702  13.665  0.4193 -0.2749 -0.0503
80743W        W18237  15.868  14.378   4.991 -0.0525 -0.2515 -0.1695
80744W        W18238   9.016   5.226  12.857  0.0511 -0.1376  0.0633
80745W        W18239   4.082   3.601  20.031  0.0764 -0.2008 -0.0106
80746W        W18240  13.402   1.556  22.830 -0.0116 -0.0394  0.2356
80747W        W18241   5.540  12.805  22.454 -0.2410  0.0097 -0.0536
80748W        W18242   1.861  19.669  23.750 -0.0816 -0.1656  0.0511
80749W        W18243  33.624  12.854  13.189 -0.1934  0.1389  0.2713
80750W        W18244  11.904   0.412  13.154  0.0496 -0.0241  0.1627
80751W        W18245  30.195  23.239  16.624  0.0149 -0.3155  0.2604
80752W        W18246  21.666  14.087  21.825  0.0651 -0.2724  0.0391
80753W        W18247  22.625   3.044  22.944 -0.3152  0.0128  0.0982
80754W        W18248   2.161   2.983   9.173 -0.0920 -0.1258  0.0297
80755W        W18249  14.674  11.945  12.400 -0.0184  0.0572  0.1038
80756W        W18250  26.727  23.900  10.003  0.3755 -0.2629 -0.0197
80757W        W18251   0.287   4.151  13.272  0.0464  0.0125  0.0818
80758W        W18252  20.422  24.264  21.131 -0.0495 -0.2374 -0.0224
80759W        W18253   0.676   7.453  19.527  0.1292  0.1062 -0.0671
80760W        W18254   4.943  11.280   8.023  0.0819  0.1664  0.2202
80761W        W18255  22.018  15.081  20.367  0.1551  0.1014  0.1905
80762W        W18256  15.776   2.854   3.214 -0.1814 -0.3596 -0.0906
80763W        W18257   9.474  12.830   6.651  0.0655  0.0410 -0.2306
80764W        W18258  18.255   8.480  23.945 -0.1136  0.1254 -0.1473
80765W        W18259  19.782   1.702  15.986 -0.3936 -0.2977 -0.0010
80766W        W18260  27.822  10.302  13.160 -0.2349  0.2756 -0.2221
80767W        W18261  28.280  21.226  17.382  0.1746 -0.2041 -0.0686
80768W        W18262  31.686  16.563   7.772 -0.0508  0.0105 -0.2369
80769W        W18263  16.308  12.854   1.677  0.2458  0.1020 -0.2143
80770W        W18264  29.290  35.209  20.515 -0.1825  0.1943  0.0015
80771W        W18265  26.080  31.731  24.095  0.0834  0.0912  0.3995
80772W        W18266  20.674  19.456   1.321 -0.1723 -0.2437  0.0001
80773W        W18267  31.836  14.017   6.024 -0.2030 -0.0138  0.1662
80774W        W18268   3.341  31.259  12.245 -0.4417  0.1448  0.1401
80775W        W18269  26.705  23.802  21.030 -0.0862 -0.2385  0.0152
80776W        W18270   2.682  23.147   0.766  0.4604  0.2291 -0.0483
80777W        W18271  11.033  19.876   1.984 -0.2471  0.2229  0.3145
80778W        W18272  29.769   4.265   2.101 -0.3020  0.1607 -0.2518
80779W        W18273  20.510  21.327   2.963 -0.0859  0.1689  0.2512
80780W        W18274   5.518  32.014  10.269 -0.4320  0.2446 -0.0164
80781W        W18275  17.492  24.986   6.031  0.0181 -0.2357 -0.0500
80782W        W18276  11.608   5.256   7.873 -0.2601 -0.2453 -0.1373
80783W        W18277  20.525  11.877   5.014 -0.0618  0.1550  0.0803
80784W        W18278  10.176  33.672  13.620  0.1271  0.3551 -0.1829
80785W        W18279  27.494  10.069  14.719 -0.1115 -0.0734 -0.2860
80786W        W18280  18.739  15.325  21.099 -0.0473  0.2178 -0.1520
80787W        W18281  19.389  11.664   8.313  0.1040 -0.0485 -0.1838
80788W        W18282  10.331  12.706  13.999 -0.0285  0.2115  0.0452
80789W        W18283  33.322  10.921  16.711  0.1586  0.0967  0.1324
80790W        W18284  24.518  21.204  24.835 -0.0464  0.0569 -0.2020
80791W        W18285   1.802  25.770   1.561  0.0924  0.1374 -0.1591
80792W        W18286   6.211  19.928   6.538  0.0309  0.3395 -0.2364
80793W        W18287  21.791  25.693   4.943  0.0275 -0.0508 -0.0574
80794W        W18288  12.081  26.512  15.028 -0.1039  0.1998 -0.2204
80795W        W18289   1.083   3.291  17.142  0.0902  0.1811  0.4930
80796W        W18290  20.638  24.146   3.908  0.1596  0.0074 -0.3984
80797W        W18291  12.568  21.010  24.244  0.3437  0.0568  0.0069
80798W        W18292  29.983   9.474   7.481 -0.0134 -0.1342  0.1806
80799W        W18293  19.122  24.036   7.174 -0.0532  0.1261  0.2649
80800W        W18294  29.796   9.713   0.303  0.1593 -0.1194  0.3080
80801W        W18295  22.735  25.815  25.384  0.0004  0.0068  0.3265
80802W        W18296  10.938   5.327   7.607  0.0554 -0.1624  0.1664
80803W        W18297  23.825  17.648  12.036  0.0632 -0.0315  0.0473
80804W        W18298  24.719  14.665  15.841  0.0270 -0.0426 -0.2531
80805W        W18299  20.383   0.772   6.627  0.2535  0.0071 -0.0278
80806W        W18300   2.417  12.887  25.814  0.2067  0.1224  0.1271
80807W        W18301   6.904  22.684   2.610 -0.1099  0.0491 -0.3236
80808W        W18302  33.619  31.272  16.316 -0.0006 -0.1126 -0.3257
80809W        W18303  14.608  13.550   1.659  0.1754  0.0304  0.0233
80810W        W18304  29.667  32.386  15.921  0.1628  0.0435 -0.1820
80811W        W18305  15.440  31.557   7.928 -0.0638 -0.3042  0.1086
80812W        W18306  22.512   2.325  20.014  0.0829  0.2856  0.0367
80813W        W18307   3.916  33.358   9.414  0.2693 -0.2384 -0.2485
80814W        W18308   2.790  12.110  14.971  0.1797 -0.2105 -0.3305
80815W        W18309  34.940   2.941  14.976 -0.2096 -0.0703  0.0671
80816W        W18310  11.718  15.572  21.526 -0.1105  0.0515  0.1494
80817W        W18311  15.531  13.521  25.692 -0.1801 -0.3291 -0.0840
80818W        W18312  34.385   9.176  17.324  0.0478 -0.1420  0.1411
80819W        W18313  11.259  30.050  11.782 -0.3774  0.3353  0.3353
80820W        W18314  11.405  31.817  11.279 -0.2551  0.0248 -0.2118
80821W        W18315  15.704  15.702  24.293  0.0408 -0.0987  0.0142
80822W        W18316  32.657  23.104  25.173  0.3760  0.4121  0.1084
80823W        W18317  18.538  27.360  23.454  0.0697 -0.0819  0.0418
80824W        W18318   8.154  14.919   2.039  0.0454 -0.3098  0.1239
80825W        W18319  16.915  28.847  10.170 -0.2010 -0.2189 -0.1662
80826W        W18320  28.805  17.950  18.359  0.2271  0.1433  0.2110
80827W        W18321   2.919  12.434  25.153 -0.1051 -0.1462 -0.2387
80828W        W18322  22.643  34.464  19.947 -0.4737 -0.4344 -0.0438
80829W        W18323  32.325  20.045  23.742  0.0615  0.1300  0.3422
80830W        W18324  23.406   6.453   6.101  0.6574  0.2575 -0.1215
80831W        W18325  26.089  30.614   1.504  0.1011 -0.0037  0.0925
80832W        W18326  18.396  10.166  26.116  0.3352  0.0623  0.1449
80833W        W18327  13.941   4.964   1.592  0.2179  0.0326 -0.0982
80834W        W18328  13.193  15.409  21.246  0.2375 -0.2430  0.1157
80835W        W18329  13.178   0.580   1.236 -0.0286 -0.3840 -0.0372
80836W        W18330   5.449  16.742   2.784 -0.0233  0.1709  0.2125
80837W        W18331  14.630  16.689  20.697 -0.0697  0.0285  0.2681
80838W        W18332  10.122   2.140   5.643  0.3922 -0.0339 -0.0638
80839W        W18333   5.701   1.771   3.860 -0.0946  0.0641  0.0539
80840W        W18334  14.562  33.922  11.337 -0.2807  0.3094  0.4613
80841W        W18335   3.760   2.356   3.428  0.0955  0.2194  0.1573
80842W        W18336   8.556  10.057  21.916  0.1780 -0.0750 -0.0384
80843W        W18337  28.224  17.220  24.188  0.0396  0.0552 -0.2088
80844W        W18338  30.828  29.884  20.792 -0.1637 -0.1796 -0.0585
80845W        W18339   3.595  12.483  22.228 -0.0186  0.0853 -0.0308
80846W        W18340  22.300  11.172  20.634 -0.2072 -0.0765 -0.2373
80847W        W18341  29.086  29.413  22.170 -0.2860 -0.2147 -0.0651
80848W        W18342  31.983  21.173   8.593  0.1021  0.0349 -0.3097
80849W        W18343  13.911  12.027   6.830 -0.0598  0.1092 -0.2412
80850W        W18344  14.191  20.092  22.569 -0.1241 -0.1976 -0.0381
80851W        W18345   1.505  32.210  10.180 -0.0884  0.1674 -0.3278
80852W        W18346  23.986  10.287  22.646 -0.2255  0.0236  0.0945
80853W        W18347  33.936  15.043  22.136  0.0337  0.2041  0.2544
80854W        W18348  27.430  17.295  15.807  0.0697  0.2895  0.0170
80855W        W18349  34.098  22.017  15.449  0.0544 -0.0531  0.0227
80856W        W18350  25.397   9.530  23.251 -0.0606  0.2153 -0.0603
80857W        W18351  21.674   3.537  17.007 -0.4239  0.0225  0.2135
80858W        W18352  33.176  22.603  10.583  0.0504 -0.1327 -0.2041
80859W        W18353  14.938  17.490  10.187  0.1295  0.0161  0.1120
80860W        W18354  14.446   3.630  11.183  0.0179 -0.0737 -0.1482
80861W        W18355  21.252  32.249  16.203  0.1546 -0.3379 -0.1714
80862W        W18356  10.082   5.664   2.767  0.2221 -0.2022  0.2499
80863W        W18357   3.422  33.848  20.809  0.0736 -0.1234 -0.1106
80864W        W18358   2.924  16.067  18.159 -0.0133 -0.1681 -0.0679
80865W        W18359  14.895   7.888   9.149  0.1974  0.2653  0.1212
80866W        W18360  24.148  26.731  14.135 -0.1519  0.2849  0.0032
80867W        W18361  33.948   1.182  18.551  0.0059 -0.0098  0.0267
80868W        W18362  34.100  10.938  11.083 -0.0221  0.0270  0.0076
80869W        W18363  11.746  33.939  22.122  0.1295 -0.4423 -0.0809
80870W        W18364  31.347  11.683  17.155  0.1451 -0.1037  0.0322
80871W        W18365  14.755  19.950   0.457  0.1608  0.1464  0.0918
80872W        W18366  27.664  18.973  15.514 -0.1632 -0.2515  0.0049
80873W        W18367  13.695   3.530   4.278 -0.0178  0.0082 -0.4406
80874W        W18368   1.894   9.015  13.198 -0.3012  0.2177  0.0161
80875W        W18369  16.813   1.184   8.753 -0.1693  0.1278 -0.1972
80876W        W18370  21.100  19.238  18.335 -0.0778 -0.0102 -0.1933
80877W        W18371   6.532   3.721   4.422  0.1516 -0.1694  0.0065
80878W        W18372  29.321  29.231  11.975  0.2813  0.0807 -0.2604
80879W        W18373   2.129   8.616  17.911  0.3366  0.2029  0.0113
80880W        W18374  26.187  16.817  20.985  0.0057  0.0380 -0.0969
80881W        W18375   3.754  26.570  18.912 -0.0144 -0.1673  0.0052
80882W        W18376  23.256   3.190  24.781 -0.0609 -0.0526  0.1141
80883W        W18377   1.997  25.534  19.468  0.0062  0.0009 -0.2140
80884W        W18378  20.433  29.882   0.377  0.1019 -0.1305 -0.0530
80885W        W18379  28.410  28.146  10.508  0.4476 -0.4733 -0.4213
80886W        W18380   2.323  10.613   3.335  0.1523 -0.0360  0.1322
80887W        W18381  11.673   8.652  20.626 -0.1746  0.0813 -0.0238
80888W        W18382  17.614  23.475   9.580  0.2975 -0.1249 -0.1202
80889W        W18383  15.964  18.585   4.255  0.4072 -0.1041 -0.2375
80890W        W18384   1.829  23.652   3.057 -0.2375 -0.1368  0.2126
80891W        W18385  33.669   4.471  15.424 -0.0051 -0.1290  0.1326
80892W        W18386  16.264  27.414   5.026 -0.0098 -0.3348 -0.1135
80893W        W18387  19.649   2.292  26.032 -0.1116  0.0137 -0.1475
80894W        W18388  13.581  34.985   8.263  0.1674 -0.2091 -0.1217
80895W        W18389  20.256   3.862  18.797  0.2734 -0.1294 -0.3277
80896W        W18390  24.416  31.561  21.547  0.1455 -0.0546  0.1774
80897W        W18391  23.922   3.146   4.869 -0.1517  0.1000 -0.1861
80898W        W18392  22.693  22.196  18.499  0.0403  0.0946 -0.0899
80899W        W18393  33.537   5.562  12.024  0.3123 -0.1323  0.2132
80900W        W18394  14.664   7.508  24.194 -0.1777  0.1841  0.2482
80901W        W18395  27.091   3.776  12.777  0.0262  0.0256  0.0093
80902W        W18396   9.983  29.879  15.314 -0.0250 -0.0040  0.3253
80903W        W18397  13.486  10.039   4.289  0.4550 -0.2613  0.1326
80904W        W18398  25.157  29.590   2.255  0.3393 -0.0505 -0.1810
80905W        W18399  32.027  14.081  15.552  0.1309 -0.0319 -0.1023
80906W        W18400  35.266  16.121  25.958  0.4648 -0.0927  0.1860
80907W        W18401  22.708  18.827  14.441 -0.0685  0.0534  0.1471
80908W        W18402  28.447   8.730  20.626  0.1610  0.0582 -0.1278
80909W        W18403  13.212  27.311  24.883  0.1663  0.3116 -0.2228
80910W        W18404   8.170  21.008   7.354 -0.3921  0.2217  0.0783
80911W        W18405  18.752  21.685  11.197 -0.0920  0.0403 -0.1851
80912W        W18406  10.326  20.705  12.359 -0.0634  0.1112  0.2179
80913W        W18407  35.262  15.366  16.304  0.4787  0.2842 -0.1283
80914W        W18408  12.362   4.443   6.998 -0.0084  0.3144 -0.2860
80915W        W18409  20.184  35.209  23.251  0.2565 -0.0264  0.0614
80916W        W18410  12.078  19.909  25.380 -0.1472 -0.2081 -0.2193
80917W        W18411   0.992  30.537   5.474  0.0304  0.0604 -0.2466
80918W        W18412  15.392   4.161   2.548 -0.1372 -0.0358  0.0633
80919W        W18413  12.450  13.352  21.876 -0.1148 -0.1218 -0.0343
80920W        W18414  13.327  30.654   2.488  0.2245 -0.0922 -0.0775
80921W        W18415  18.738  31.552  17.079 -0.2336 -0.1379 -0.1093
80922W        W18416  25.969  16.689   5.710 -0.0463 -0.0668 -0.0341
80923W        W18417  18.955  18.674   2.068  0.1137 -0.0056  0.0990
80924W        W18418  23.804  21.900  17.186  0.2009 -0.0760  0.0141
80925W        W18419  23.388   3.511  19.888 -0.0002  0.2304  0.0230
80926W        W18420   5.012  30.471   6.775 -0.3877  0.3761  0.4022
80927W        W18421   9.240  19.753  23.717  0.1348  0.3196  0.2187
80928W        W18422  21.499  20.423  25.982  0.1332  0.0852 -0.0164
80929W        W18423  11.213  15.698   1.892  0.1356 -0.4346  0.3365
80930W        W18424   7.915   3.903  10.010  0.2136 -0.0546  0.0107
80931W        W18425  35.184   9.179  12.661 -0.0230 -0.0583 -0.1448
80932W        W18426  31.612   6.736   2.135  0.3530  0.0274  0.3776
80933W        W18427  15.929   8.140  21.813 -0.0781 -0.5688 -0.1656
80934W        W18428  25.561   9.618  14.647 -0.1421  0.0170  0.0104
80935W        W18429  27.593   2.027   3.624  0.0573 -0.0514  0.3093
80936W        W18430   2.255  22.546   0.073  0.1118  0.0796  0.0738
80937W        W18431   3.997  34.129   5.326  0.1008  0.1364 -0.0094
80938W        W18432  26.492  32.555  15.146  0.3116 -0.0661  0.3419
80939W        W18433  35.318  25.512  23.771  0.0287  0.0128  0.1529
80940W        W18434  30.073  33.565   4.556 -0.1295 -0.1107 -0.2580
80941W        W18435   7.868   1.480  25.773 -0.0416  0.2740  0.0303
80942W        W18436   8.428  29.112  21.347 -0.0917 -0.2852  0.0512
80943W        W18437   5.652  28.848  15.207 -0.3574  0.1108  0.0342
80944W        W18438   2.753  23.967   5.376 -0.1690 -0.0675  0.1900
80945W        W18439  31.806  22.006  24.310  0.2198 -0.0713  0.0151
80946W        W18440   9.409  17.949   0.667  0.0166 -0.0821  0.0736
80947W        W18441   2.229   5.673  21.397  0.0395 -0.1416 -0.0150
80948W        W18442  30.332   4.896  12.107  0.1755 -0.0309 -0.2519
80949W        W18443  32.376  30.670  15.306 -0.1846  0.3144  0.1086
80950W        W18444  18.209  10.478  20.439  0.0932  0.1901 -0.0380
80951W        W18445  24.499  14.891  22.342  0.0362  0.0576 -0.2437
80952W        W18446  17.904  32.817  17.362 -0.1963  0.2978 -0.0866
80953W        W18447   7.823   5.896   6.546  0.0910 -0.2840 -0.0998
80954W        W18448  12.600  25.517   4.145  0.1176  0.1404 -0.1638
80955W        W18449  16.705  27.466   7.881  0.2883 -0.1003  0.3456
80956W        W18450  32.422  16.111  25.661 -0.1689 -0.0737 -0.2843
80957W        W18451  22.907   6.948  18.351  0.0081  0.1814  0.1327
80958W        W18452   5.708  24.408  25.956 -0.3013  0.3230  0.0059
80959W        W18453   8.843  31.304   9.003  0.2267  0.1213 -0.0345
80960W        W18454  14.321  11.325   1.817 -0.0059 -0.0520 -0.0574
80961W        W18455   5.007   5.513  20.939  0.3573 -0.2447  0.2613
80962W        W18456  31.701  16.987   6.093  0.2192  0.0490  0.1933
80963W        W18457  13.790  28.633  26.179  0.1412  0.3230 -0.1673
80964W        W18458   4.544   3.948  20.039 -0.3737 -0.1171  0.1064
80965W        W18459   4.428   0.225  24.172  0.1895  0.1350 -0.0591
80966W        W18460  12.983  25.138   1.793 -0.1519  0.2899  0.0789
80967W        W18461  11.790   2.202   8.504  0.1327  0.0695  0.1345
80968W        W18462   1.991   7.234  24.609 -0.2923  0.2043  0.3459
80969W        W18463   5.437  20.670  23.270  0.0847 -0.1814 -0.2433
80970W        W18464  12.449  12.552   3.642  0.2134 -0.0185  0.1550
80971W        W18465  13.236   2.800   4.602  0.3549  0.0153 -0.1914
80972W        W18466  20.998  28.320  20.999 -0.2237 -0.3220  0.0010
80973W        W18467  26.913  13.583  17.711  0.3312  0.2881 -0.4063
80974W        W18468   2.023  22.398  14.167  0.3246  0.1626 -0.2815
80975W        W18469  25.712  16.425   7.219  0.0930  0.0416 -0.3106
80976W        W18470   7.074  25.658   9.368  0.0420  0.0105  0.1936
80977W        W18471  24.063   5.511  22.848 -0.1494  0.1725 -0.0638
80978W        W18472  18.849  17.132  20.209 -0.4204  0.0004 -0.1874
80979W        W18473  16.715  33.669  22.644  0.0823  0.0017 -0.6012
80980W        W18474  12.384  12.036   7.499  0.1118  0.1486 -0.3473
80981W        W18475  19.652  10.856   3.092  0.0043  0.1724  0.2901
80982W        W18476  30.595   5.275  20.841  0.0995  0.1229 -0.2045
80983W        W18477  31.642  26.044  15.297  0.0361  0.0841  0.1078
80984W        W18478   9.389   1.404  26.077  0.0993 -0.1053 -0.0348
80985W        W18479  34.306  19.395  17.026 -0.0086 -0.0501 -0.1288
80986W        W18480   2.184   1.639   5.719  0.1843 -0.2033 -0.2147
80987W        W18481  34.322   6.011  14.769 -0.1617  0.1343 -0.1314
80988W        W18482  33.865  22.598  18.404 -0.0580 -0.1339  0.1039
80989W        W18483   0.790  21.567   8.780 -0.1739 -0.0137 -0.1322
80990W        W18484  18.372  27.605  20.375 -0.3260  0.2285  0.3388
80991W        W18485   8.328   7.843  10.577  0.0016  0.0167 -0.2044
80992W        W18486  28.946  23.236   7.650 -0.1656  0.0645 -0.2237
80993W        W18487   8.997  26.773   2.223  0.0563 -0.2748  0.0408
80994W        W18488  18.685  18.198   2.978 -0.1743 -0.1829  0.3053
80995W        W18489   9.687   8.894   6.240  0.2737  0.0004  0.0536
80996W        W18490   6.269  33.415  20.519  0.0902 -0.1737  0.1558
80997W        W18491   0.813  30.471  25.384 -0.0035 -0.1378 -0.2481
80998W        W18492  34.006   1.655   3.454 -0.0607  0.1096  0.1554
80999W        W18493  10.265  16.897   2.164 -0.2501 -0.1835  0.0342
81000W        W18494  13.681  32.212  14.792 -0.1695 -0.0498 -0.0153
81001W        W18495  22.441  22.837  16.881 -0.1489  0.1588  0.0461
81002W        W18496   1.552  23.521  14.652 -0.0568 -0.1545  0.1986
81003W        W18497   6.095  34.111   9.588  0.0975  0.5172 -0.0110
81004W        W18498  33.374  32.460  20.586 -0.2087  0.0048 -0.1638
81005W        W18499   8.558  17.114   0.659 -0.2134  0.1704  0.2211
81006W        W18500  11.809  10.674   2.807  0.0589 -0.1226 -0.0324
81007W        W18501  21.589   9.155  18.527  0.0061 -0.2846 -0.3689
81008W        W18502   3.440  13.402  17.173  0.1403  0.0307 -0.0109
81009W        W18503  13.553  23.246   8.445  0.2559 -0.0233 -0.0318
81010W        W18504   3.454   8.828   6.210 -0.0513 -0.1529 -0.1134
81011W        W18505  14.985   8.000   3.902 -0.0221  0.0718 -0.0145
81012W        W18506   9.927  27.401  24.123  0.0489 -0.0330  0.1031
81013W        W18507   2.866  35.158  22.543  0.2084 -0.1257  0.1323
81014W        W18508   5.551   7.812   6.176 -0.0015  0.2460  0.0890
81015W        W18509   8.524   9.585  13.319  0.1824 -0.2533  0.2567
81016W        W18510  10.937  30.480   3.437  0.0039 -0.1701 -0.1083
81017W        W18511  27.842  13.832  17.801  0.0350  0.0885  0.2883
81018W        W18512  28.025   5.403  11.872 -0.0867  0.0241 -0.0831
81019W        W18513  18.349  12.886   8.403  0.0999 -0.0576 -0.1640
81020W        W18514   2.834  22.095   4.244  0.1446  0.0951 -0.0478
81021W        W18515  19.557   7.333  23.284  0.2190 -0.2954  0.0764
81022W        W18516  31.332   1.194  18.494 -0.0464 -0.0236  0.1240
81023W        W18517  11.488  25.439   8.404 -0.2997 -0.2002  0.2428
81024W        W18518  21.738  18.941   2.594  0.1278  0.1283  0.0134
81025W        W18519  17.796  28.766   0.675 -0.0879 -0.1400 -0.1751
81026W        W18520  21.497  23.449  23.448  0.1052  0.2379 -0.2038
81027W        W18521  13.036  15.717   5.264 -0.3969  0.2809 -0.1604
81028W        W18522  25.182   2.914   1.603  0.1458 -0.0933  0.1574
81029W        W18523  29.872  32.486  18.499 -0.1673 -0.1215  0.3412
81030W        W18524  31.439  11.688  10.934 -0.1313 -0.0570  0.2840
81031W        W18525  19.326  34.503  18.332  0.1797  0.5145  0.2365
81032W        W18526  14.329  34.506   5.387 -0.0444  0.1352 -0.0778
81033W        W18527  24.231  15.146   1.213 -0.1188  0.1232 -0.0725
81034W        W18528   0.402  33.969   2.762  0.1180 -0.0155 -0.4334
81035W        W18529   1.393  26.420   3.761 -0.4020 -0.0470 -0.1851
81036W        W18530   6.181  28.263   5.444  0.1426 -0.0132  0.2326
81037W        W18531   8.293  30.401   1.789  0.3011 -0.0006 -0.0225
81038W        W18532  24.990   9.582  16.034 -0.4249 -0.1663  0.1570
81039W        W18533  30.298  34.836  19.935 -0.3309  0.0952  0.2914
81040W        W18534  21.589   9.781  16.917 -0.1112  0.0784  0.2048
81041W        W18535  25.584   7.496  13.499 -0.0183  0.0791 -0.0838
81042W        W18536  16.941  34.655  16.805  0.2095  0.0886  0.1467
81043W        W18537  28.178   1.035  11.934 -0.3208  0.0181  0.1038
81044W        W18538  23.770  22.975  25.535 -0.1701 -0.2638  0.1963
81045W        W18539  28.699  10.089  12.344  0.1858 -0.1653 -0.1342
81046W        W18540  14.888   2.061  24.684  0.1753  0.1124 -0.0061
81047W        W18541  15.596  26.149  26.035  0.0846 -0.1086  0.0146
81048W        W18542  15.393  31.129  25.384 -0.0040  0.1556  0.0606
81049W        W18543   9.947  34.713  25.595  0.2028 -0.0942 -0.2937
81050W        W18544  19.962   3.550   7.135 -0.0186  0.1272  0.1370
81051W        W18545  12.340   8.617  19.786  0.1089 -0.0521 -0.4431
81052W        W18546  32.870   6.646  25.768  0.2713 -0.0238 -0.0025
81053W        W18547  23.975   8.314   2.359 -0.1331  0.0140 -0.1679
81054W        W18548  32.870  10.888  21.563 -0.1720 -0.1543  0.2403
81055W        W18549  17.609  18.245   4.987  0.1119 -0.2074  0.2670
81056W        W18550   8.686   9.331  10.629 -0.1901 -0.2011  0.0834
81057W        W18551  18.820  12.617  25.927 -0.2631 -0.0433  0.1889
81058W        W18552   0.075  18.350  21.865  0.1737 -0.1218 -0.3066
81059W        W18553   6.371  34.953  25.560  0.2772  0.1834  0.1225
81060W        W18554  24.483  28.652  24.562  0.0280  0.0182 -0.1873
81061W        W18555  14.165  12.589   3.682  0.2151  0.0479 -0.0318
81062W        W18556   1.619  17.960  22.381  0.3636  0.3854  0.0386
81063W        W18557   9.508  11.393  13.412 -0.1778 -0.2751 -0.1763
81064W        W18558   4.355  30.087  11.422  0.1822 -0.1024  0.2345
81065W        W18559  28.312  20.575  17.502 -0.2225 -0.0865 -0.1318
81066W        W18560  22.852  24.470   4.542 -0.3173  0.0101 -0.0805
81067W        W18561  24.035   0.160   3.573  0.3145 -0.0688 -0.4555
81068W        W18562  32.802  31.936   3.536 -0.0460 -0.1120  0.0983
81069W        W18563  14.158  15.603  10.866  0.3859 -0.1885 -0.1249
81070W        W18564  12.816  31.509  24.036 -0.1145 -0.2894 -0.1202
81071W        W18565   3.644   5.280  25.194 -0.0978 -0.3049  0.0284
81072W        W18566  35.083  16.278   0.187  0.1671 -0.0663  0.1735
81073W        W18567  20.500   0.489   0.491 -0.2028 -0.1755 -0.0375
81074W        W18568  17.204   8.619  25.811  0.0621  0.0881  0.4356
81075W        W18569  16.254   3.177  11.170  0.2036 -0.1467 -0.0756
81076W        W18570  33.042   3.182   0.551  0.4521 -0.0523  0.3500
81077W        W18571  25.487   0.253   1.315 -0.0972  0.1809 -0.0281
81078W        W18572   9.192   4.992  14.205 -0.0521 -0.0976  0.0476
81079W        W18573   7.162   7.157  19.053 -0.2136  0.0341  0.0521
81080W        W18574  26.052  24.341  23.921 -0.0340 -0.3579  0.0107
81081W        W18575   7.797   1.321  20.144  0.0946 -0.3405  0.1892
81082W        W18576  26.799  18.195  24.897 -0.0865  0.1427  0.2092
81083W        W18577  34.541  24.849   1.651  0.0223 -0.3700  0.0564
81084W        W18578   6.609   3.165   3.792 -0.0500  0.1404  0.0748
81085W        W18579  12.861  13.880   4.182  0.1851  0.0810  0.0079
81086W        W18580  14.922  30.475  13.190  0.0883 -0.0320 -0.2762
81087W        W18581  32.265  31.127  12.307 -0.1647 -0.3202  0.2072
81088W        W18582   8.008  21.309   9.520 -0.2674 -0.1206 -0.0458
81089W        W18583  28.106   6.291   1.606  0.0492  0.0171  0.1451
81090W        W18584  21.360  10.706  23.620  0.1388 -0.0259  0.0489
81091W        W18585   9.924  28.083  26.126 -0.2164  0.3180 -0.0660
81092W        W18586   9.056   5.529   7.095 -0.0823 -0.3205 -0.1711
81093W        W18587  27.903  29.367  19.522 -0.4540  0.0829  0.0279
81094W        W18588  10.656   7.930   8.926  0.0692 -0.1061  0.3676
81095W        W18589  29.734  16.028  15.860 -0.1682  0.0794 -0.0356
81096W        W18590  17.289  28.834   6.317  0.0027 -0.3958  0.1861
81097W        W18591  25.250   7.672  19.417 -0.0021 -0.1504 -0.2391
81098W        W18592  27.882  22.851   6.655  0.1910  0.2075 -0.1294
81099W        W18593  28.911  14.895  17.988  0.1697  0.0563  0.2582
81100W        W18594  14.819  20.405   9.400  0.0021  0.4864 -0.2123
81101W        W18595  25.438  12.748   8.941 -0.0312  0.0309  0.2331
81102W        W18596  11.876   3.298   5.085 -0.3530  0.2466 -0.0952
81103W        W18597  21.985  33.868  16.223 -0.3933  0.2537 -0.2394
81104W        W18598  27.127  20.776   9.415 -0.0265  0.1089  0.4124
81105W        W18599  11.287  13.526   5.376  0.0935  0.0488  0.2308
81106W        W18600  26.151  33.620  16.061 -0.0605  0.0894 -0.3806
81107W        W18601  11.365  25.724   2.653  0.3284  0.2728 -0.2352
81108W        W18602  20.493  34.260   3.915 -0.1919  0.2983  0.1246
81109W        W18603  20.088  29.655   8.070 -0.1606 -0.0298 -0.2482
81110W        W18604  27.834   7.165   0.627  0.0029 -0.0483 -0.0348
81111W        W18605  19.341  19.677   4.911 -0.0996  0.0515 -0.0175
81112W        W18606  15.805  19.008   5.273  0.0449  0.5313 -0.0921
81113W        W18607  35.275   5.581  15.257  0.0248 -0.1863  0.0035
81114W        W18608  24.060  35.054  15.194  0.2158  0.2783  0.0700
81115W        W18609   7.503  34.268  14.869  0.3008  0.1835  0.1843
81116W        W18610  17.365  17.379  25.252  0.1642  0.2321  0.0186
81117W        W18611   8.001  13.827   8.238  0.0854  0.2162  0.1155
81118W        W18612   4.921   6.088  18.187 -0.1891  0.0851 -0.0123
81119W        W18613  30.293  12.658  19.690 -0.1248  0.1370 -0.0589
81120W        W18614  11.795  19.461   0.865 -0.4336 -0.3080 -0.0104
81121W        W18615  17.378  18.828   3.267  0.1151  0.2682 -0.2702
81122W        W18616  18.863  15.388   9.455  0.0305 -0.2503  0.1157
81123W        W18617  14.083   6.183   0.276  0.5171  0.0924  0.1936
81124W        W18618  33.189  14.456  18.694 -0.0306  0.1591 -0.2053
81125W        W18619  16.597   8.553  12.418  0.0882 -0.0587 -0.3235
81126W        W18620  20.116   5.714   4.380  0.1332 -0.0445 -0.3385
81127W        W18621  16.784  35.208  24.562  0.3100 -0.1221  0.0437
81128W        W18622  31.834  16.277  16.223 -0.0284 -0.0024 -0.1772
81129W        W18623  10.976  11.997   5.097  0.0354  0.1518 -0.7074
81130W        W18624  20.588   4.179  21.224 -0.0583  0.4181  0.2884
81131W        W18625  15.276   5.759  17.572  0.0824  0.1232  0.2018
81132W        W18626   1.727   3.929   3.893  0.2636  0.3500 -0.4548
81133W        W18627  19.651   0.118  15.805 -0.4270  0.1996  0.2271
81134W        W18628   3.407  18.387  25.277 -0.0308 -0.2089  0.3366
81135W        W18629   6.079  35.319  23.960 -0.2872  0.1830 -0.0859
81136W        W18630  26.984  34.894   4.186 -0.0024  0.2844  0.0004
81137W        W18631  22.481  17.137  24.628 -0.1038 -0.1307  0.0632
81138W        W18632  29.442  26.244   7.387 -0.3634 -0.3500  0.2841
81139W        W18633  12.619  25.287  24.094  0.0802  0.3234  0.0459
81140W        W18634   8.866  15.021  12.828 -0.4175  0.0318 -0.1577
81141W        W18635  29.500  34.871  21.845 -0.1572  0.0292  0.0520
81142W        W18636   0.918  20.982  13.440  0.1260 -0.1063 -0.1456
81143W        W18637   3.737   8.444   7.745 -0.2384 -0.0710 -0.0730
81144W        W18638  10.379  19.131   4.614 -0.5024 -0.2290  0.0689
81145W        W18639  18.491  33.615   6.554 -0.0356 -0.0818 -0.1763
81146W        W18640  27.068  11.298  23.032  0.0366 -0.1796  0.0423
81147W        W18641  24.046   6.895  13.588 -0.2651 -0.0972 -0.0697
81148W        W18642  16.015  14.203   8.293 -0.3907 -0.2410 -0.2774
81149W        W18643   5.856   9.556  25.366 -0.1870  0.3091  0.0673
81150W        W18644   4.709   0.037  19.011 -0.3188 -0.1936  0.1894
81151W        W18645  16.891  23.497  10.114 -0.0768  0.1956 -0.2448
81152W        W18646   4.182  32.117   7.318 -0.1462  0.0848  0.0024
81153W        W18647   3.121  11.295  21.057 -0.0644 -0.2509  0.0525
81154W        W18648  26.207  22.297  14.057 -0.2245 -0.2751 -0.1336
81155W        W18649  26.032   1.086   3.888 -0.2127 -0.2931 -0.0851
81156W        W18650   7.899  26.474  24.691  0.0215  0.1148  0.1227
81157W        W18651   4.938  32.520  21.335  0.4185  0.2266 -0.0004
81158W        W18652   7.362  26.050   4.979 -0.0626 -0.1276 -0.0483
81159W        W18653   7.980  13.202   6.424 -0.0867 -0.1068  0.2731
81160W        W18654  14.047  20.028   3.199  0.1638  0.2442  0.0971
81161W        W18655  26.362   0.834  25.758  0.0574 -0.0787  0.4524
81162W        W18656   4.792  32.155   3.573  0.3149 -0.1271  0.1656
81163W        W18657  16.267  27.501  23.407  0.4327  0.0650  0.2827
81164W        W18658  13.646  10.338   8.448 -0.3505 -0.0237 -0.4178
81165W        W18659  14.538   8.786   4.954  0.1593  0.0331 -0.2011
81166W        W18660  18.123  30.149   2.085 -0.0307 -0.0540  0.0387
81167W        W18661   1.950   6.285  24.716  0.1398 -0.0332 -0.2177
81168W        W18662   1.827  21.207  25.971 -0.0012 -0.1914  0.2724
81169W        W18663   7.648  29.431   3.254  0.1966  0.0683 -0.0467
81170W        W18664   2.401   3.349   2.054 -0.2267  0.1103  0.3153
81171W        W18665  14.393  29.154  13.427  0.1631  0.2799 -0.0287
81172W        W18666  27.023  17.421  23.298 -0.3787 -0.1744  0.0224
81173W        W18667  24.562   1.512  25.842 -0.1118  0.1223 -0.1471
81174W        W18668   7.086  16.941  19.327 -0.1942 -0.2711  0.0543
81175W        W18669  12.766   7.685   3.135 -0.0418  0.0037 -0.2482
81176W        W18670  13.122  30.143   6.184 -0.2353 -0.0530  0.2250
81177W        W18671  33.535  24.182  22.581  0.3213  0.1761 -0.0335
81178W        W18672  14.569   7.550   3.333  0.0268 -0.1825 -0.0394
81179W        W18673   8.939   5.618  23.155 -0.2898 -0.1529 -0.1790
81180W        W18674  16.799  25.651  13.391 -0.0854 -0.5136  0.0247
81181W        W18675  13.141   5.925  19.448  0.2302  0.1915 -0.0141
81182W        W18676  16.443  34.879  24.670  0.3153 -0.0835  0.2428
81183W        W18677  32.818   8.048  18.276 -0.1266  0.1128 -0.2740
81184W        W18678  20.747   2.803   2.510 -0.3141 -0.1574 -0.0806
81185W        W18679   9.063  10.356  13.132  0.1192 -0.2621  0.1664
81186W        W18680  18.589  21.792   4.092 -0.0404 -0.4493 -0.0824
81187W        W18681   9.470  32.097  22.724  0.2123 -0.3199  0.1791
81188W        W18682   1.817  31.793   1.212  0.0450 -0.1560 -0.1729
81189W        W18683  22.862   8.560  22.133  0.2298 -0.1069  0.2812
81190W        W18684  25.946   8.878  10.396 -0.1552 -0.2722  0.0775
81191W        W18685   7.559   7.352  24.349  0.0088 -0.0772  0.2294
81192W        W18686  18.547   5.333   2.826 -0.0385  0.2602 -0.1090
81193W        W18687  13.617   9.059   1.547 -0.0348 -0.1287 -0.0129
81194W        W18688   4.412  25.634  21.950  0.0826  0.1337  0.2761
81195W        W18689   5.474  18.341   3.912  0.1801 -0.3608  0.1999
81196W        W18690  13.659  26.319  26.195 -0.1403 -0.0108  0.2225
81197W        W18691  15.210  19.043  14.448  0.0816  0.0100  0.0196
81198W        W18692   4.370   9.970  19.391 -0.0433 -0.2367 -0.2337
81199W        W18693   4.910   6.740  19.761 -0.1593  0.1918 -0.3389
81200W        W18694  17.992  32.792   8.258 -0.1247 -0.3733 -0.2658
81201W        W18695  27.949  30.402  15.610  0.2734 -0.1817  0.1996
81202W        W18696  32.076  20.165  10.109 -0.1112  0.3499  0.0348
81203W        W18697  30.367  16.609   4.979  0.1208  0.0855  0.0397
81204W        W18698   8.757  16.836  21.431  0.2008  0.0836 -0.0110
81205W        W18699  15.799  13.439   9.632 -0.2275 -0.0664 -0.0818
81206W        W18700  34.962   4.868  13.223 -0.6324 -0.0117  0.2932
81207W        W18701  27.346  23.207   8.607  0.1568 -0.0143  0.1834
81208W        W18702  33.361  27.620  22.701  0.0655  0.1249  0.0706
81209W        W18703   9.853  25.412  17.110 -0.2464 -0.1540 -0.2592
81210W        W18704   5.740  33.158  22.660  0.1200 -0.1703 -0.2551
81211W        W18705  30.590  12.282  22.901  0.3011  0.0094  0.0260
81212W        W18706  35.296  28.166   3.322  0.1420  0.1771 -0.0807
81213W        W18707   0.174  19.413  25.316  0.2693 -0.0225  0.1964
81214W        W18708  26.422  24.326  24.287 -0.2533 -0.3819  0.2812
81215W        W18709  16.640  20.064  23.252  0.3170 -0.1874 -0.1338
81216W        W18710  16.296  26.261  13.502 -0.0190 -0.1904 -0.0475
81217W        W18711  15.331  28.466   2.280 -0.0555 -0.1111  0.2747
81218W        W18712  12.653   4.586   4.513 -0.0016  0.1818  0.1069
81219W        W18713  21.756  27.816  18.554 -0.0423  0.1163  0.2496
81220W        W18714   3.448  18.217  25.801  0.0903 -0.0954 -0.1990
81221W        W18715  24.331   7.243  12.577  0.0812  0.2438 -0.1594
81222W        W18716  27.045  23.271  26.204 -0.1976  0.1892  0.1448
81223W        W18717  28.290  22.398  25.709  0.1880  0.2476 -0.0919
81224W        W18718  28.300   7.284  15.395 -0.2823 -0.1327  0.1264
81225W        W18719  27.079  25.257  19.168 -0.2708 -0.4690  0.1547
81226W        W18720   5.039   8.558  20.885  0.1956 -0.1130  0.1208
81227W        W18721  32.617   6.204  20.047 -0.2557  0.0475  0.1335
81228W        W18722  11.248  23.168  13.796 -0.1182  0.0429 -0.0460
81229W        W18723  27.043  33.550   1.387 -0.0921  0.0024  0.2588
81230W        W18724  12.119  10.229   5.813  0.0370  0.0678 -0.1288
81231W        W18725   9.034   4.947  23.485  0.0585 -0.0782  0.0455
81232W        W18726  28.495  33.265  19.886  0.0227 -0.0755 -0.1069
81233W        W18727   3.715  30.915   0.407 -0.2358  0.2632  0.1168
81234W        W18728  26.090  22.871   9.188  0.2993 -0.1280 -0.1210
81235W        W18729  11.402   7.849  12.569 -0.0989 -0.0001 -0.1800
81236W        W18730  15.831  22.683  16.284 -0.2164  0.1502  0.3161
81237W        W18731   0.343   7.195  12.503  0.0931  0.1550 -0.1147
81238W        W18732  17.786  27.913  22.104 -0.3355  0.0924  0.0429
81239W        W18733  25.149  25.403  21.600 -0.1323  0.0081 -0.0126
81240W        W18734  21.150   3.169  18.767  0.0433 -0.0179 -0.0054
81241W        W18735   1.794  20.011  21.716  0.2235 -0.2441  0.1183
81242W        W18736  11.725  19.960  15.744 -0.3274  0.0729  0.1074
81243W        W18737  28.000  26.922  13.048  0.6250  0.0956  0.0896
81244W        W18738   8.448  14.505   2.628  0.1755 -0.1059 -0.3524
81245W        W18739  28.460  29.403  13.915  0.1208 -0.4746 -0.0998
81246W        W18740   0.846  20.045  17.909 -0.1383 -0.1015 -0.0525
81247W        W18741  33.498  14.947  13.684 -0.0819 -0.0703  0.0392
81248W        W18742   7.121  14.175  23.215 -0.0136  0.0333 -0.0370
81249W        W18743  26.231  26.090  14.167 -0.0069 -0.2502 -0.0717
81250W        W18744  13.989  22.949   1.228 -0.0007 -0.0423 -0.0492
81251W        W18745   5.226   1.365   7.863  0.0248  0.2022  0.0871
81252W        W18746  34.920   8.461  19.670  0.0986  0.0696  0.2029
81253W        W18747  28.125  25.186  23.912 -0.3982  0.0003  0.0262
81254W        W18748   5.130  10.772  22.307  0.2083 -0.1677  0.0276
81255W        W18749  32.361   1.810  17.956  0.1144  0.0578  0.1564
81256W        W18750  33.024  14.746  26.086 -0.2127 -0.1544  0.2191
81257W        W18751  11.938   7.656  11.871  0.2296 -0.0789 -0.0959
81258W        W18752   1.634   7.460   5.839 -0.1294 -0.3628 -0.0864
81259W        W18753  33.997  27.060  21.230 -0.1007  0.0723  0.1583
81260W        W18754  31.225  31.480  18.560  0.0397 -0.2541 -0.0092
81261W        W18755   5.788  26.266   5.164  0.1047  0.1245  0.0237
81262W        W18756  20.331   0.669   4.528 -0.3103 -0.0248 -0.1087
81263W        W18757  33.408  24.502  21.556 -0.0819 -0.1337 -0.1070
81264W        W18758  29.627  30.781  26.019  0.0371  0.0212  0.2217
81265W        W18759  16.613  14.834   2.582  0.1900 -0.3268 -0.0601
81266W        W18760  15.340  20.054   5.456 -0.2890  0.0482 -0.2383
81267W        W18761   0.356   3.053  24.686 -0.0204 -0.1020  0.3131
81268W        W18762  17.068  19.973  23.623 -0.2082 -0.3673  0.0401
81269W        W18763  24.135  25.314  14.854  0.5729  0.2830  0.2090
81270W        W18764  13.825  11.583   9.247  0.0870  0.1508  0.0859
81271W        W18765  24.580  21.001  13.116  0.0199 -0.0441 -0.0918
81272W        W18766  18.427  18.549   2.632  0.0184  0.4114 -0.0420
81273W        W18767  26.826  17.576  13.367 -0.0502 -0.2032  0.3000
81274W        W18768  11.788  21.086  22.924  0.0654  0.1670 -0.2093
81275W        W18769  15.064  32.005  25.510  0.1018 -0.3983  0.1869
81276W        W18770  12.900  30.420  14.418 -0.0847 -0.0864 -0.2931
81277W        W18771   9.696   4.739   4.708  0.3547  0.0700 -0.0530
81278W        W18772   5.183   8.426  24.132 -0.1115  0.0681 -0.1702
81279W        W18773  18.102  29.351  23.115 -0.1160  0.1303  0.2358
81280W        W18774   9.773  10.462   9.074  0.3055 -0.0508 -0.0008
81281W        W18775  15.342  17.533   7.351  0.1294  0.1425 -0.1494
81282W        W18776  26.719  28.437  20.350  0.3272 -0.0577 -0.0043
81283W        W18777   2.695   0.451   1.919 -0.0312 -0.1530 -0.0334
81284W        W18778  18.440  22.732   3.976  0.2025  0.1303 -0.0175
81285W        W18779   7.901  19.034   5.964 -0.1581 -0.0723  0.1353
81286W        W18780  14.843   5.732  10.567 -0.0730 -0.1151 -0.0728
81287W        W18781  27.167  10.501  18.488 -0.0887  0.0954  0.0206
81288W        W18782  21.663  30.946  21.648  0.1393  0.3159 -0.2997
81289W        W18783  19.316   4.893  20.281  0.0528 -0.2377 -0.1623
81290W        W18784  31.670  26.774  12.268 -0.1999 -0.0475 -0.1392
81291W        W18785  24.768  29.562  21.884  0.0623 -0.3643  0.2200
81292W        W18786  24.291  21.229  14.362 -0.1006 -0.1491 -0.3356
81293W        W18787  24.561  10.129  17.819  0.0599 -0.0188  0.2035
81294W        W18788  25.614  19.469  24.578  0.0912 -0.2704  0.0170
81295W        W18789  26.609  15.950  14.694  0.0359  0.1616  0.0864
81296W        W18790   0.135  21.417  17.722  0.5065 -0.1174  0.0227
81297W        W18791  15.692   0.782   2.527  0.0511 -0.3116  0.0472
81298W        W18792  20.513   9.638  26.225 -0.1051  0.2209  0.0683
81299W        W18793   1.206  33.560  22.431  0.0710  0.1087 -0.3265
81300W        W18794  33.111   6.982  16.550 -0.1820  0.1706 -0.0385
81301W        W18795  34.109  11.934  10.657  0.0083  0.3666  0.0491
81302W        W18796  31.339  14.290   0.770 -0.1886  0.4339 -0.0755
81303W        W18797  34.167  25.894  14.629 -0.0946 -0.1338  0.3890
81304W        W18798  10.031  13.928  20.721  0.1434 -0.2125  0.2970
81305W        W18799  15.722   1.673  23.690  0.2571  0.2865  0.0780
81306W        W18800  17.919  18.077  25.559  0.0610 -0.0065 -0.2364
81307W        W18801  10.214   7.484   5.999  0.0414 -0.1495  0.0534
81308W        W18802  11.219  14.848  25.534 -0.4992  0.1252  0.0167
81309W        W18803  21.795   1.020  14.887  0.0458  0.1980 -0.1930
81310W        W18804  14.734  20.951   9.568  0.2014 -0.1884  0.4761
81311W        W18805  29.753  12.469  12.521  0.0768 -0.0100  0.2723
81312W        W18806  10.129  12.800  12.585 -0.1033 -0.0506  0.0148
81313W        W18807  23.547   4.089  15.425 -0.1914 -0.1793  0.0116
81314W        W18808   0.675  16.186   9.827  0.1271  0.1955 -0.0390
81315W        W18809  14.298  30.460   0.150  0.1799 -0.1735  0.1668
81316W        W18810   2.304   0.350   9.306  0.0493  0.1232  0.0656
81317W        W18811  17.954  18.320   2.494  0.3080  0.0137  0.1381
81318W        W18812   1.199  17.915   1.255 -0.0335 -0.1070  0.3808
81319W        W18813  16.693  18.993  21.461  0.1687 -0.0766 -0.0396
81320W        W18814  24.486   0.714  12.230  0.2934  0.3344 -0.1844
81321W        W18815  24.041   3.371   3.011  0.0637 -0.1313  0.3346
81322W        W18816  10.850  13.897   5.403 -0.2857 -0.0991  0.0464
81323W        W18817  19.314  30.560   1.492  0.1459 -0.2571 -0.2894
81324W        W18818   1.331  11.568  25.687  0.0966 -0.2324 -0.1993
81325W        W18819   1.359  34.339   3.832  0.1564  0.2285  0.0678
81326W        W18820  30.351  30.149  18.742 -0.1413 -0.1492  0.1017
81327W        W18821  34.654   8.084  24.331 -0.0927 -0.3145 -0.0514
81328W        W18822   6.743  35.378   3.318 -0.3570 -0.1688 -0.3314
81329W        W18823  34.104  28.204  12.660 -0.0494 -0.2293  0.1327
81330W        W18824  29.592  13.590  14.008 -0.0922  0.0205 -0.0059
81331W        W18825  31.641  17.607  18.329  0.0483 -0.1027 -0.0952
81332W        W18826   5.423  26.769   5.242  0.2457 -0.2862 -0.1599
81333W        W18827  18.751   5.030   0.531  0.2184 -0.1419 -0.0005
81334W        W18828  31.716  11.658  24.677  0.1390 -0.1716 -0.2656
81335W        W18829  22.798   1.993  24.421  0.1489  0.2041  0.2813
81336W        W18830   4.186  30.477   0.641 -0.0226 -0.0240 -0.3916
81337W        W18831   7.405  10.319  10.736 -0.1593 -0.1254  0.0731
81338W        W18832  27.097  26.579  21.354 -0.0850 -0.0744 -0.1593
81339W        W18833   9.926  23.346  18.112  0.1038 -0.0123 -0.1401
81340W        W18834  32.326  28.411  13.922  0.1863  0.3496  0.1770
81341W        W18835  15.281  22.779  10.618 -0.1123  0.1481 -0.0554
81342W        W18836  10.075   6.540  24.354 -0.2034 -0.0813 -0.1511
81343W        W18837   8.619  13.367  26.002 -0.0411  0.0098  0.1360
81344W        W18838  16.068  16.663  22.353  0.1179 -0.1587 -0.2908
81345W        W18839  23.390  28.268   0.649  0.0486  0.1383 -0.0484
81346W        W18840  18.384  34.550  20.997 -0.1305  0.1857 -0.1236
81347W        W18841  17.048  15.155   9.017 -0.0235 -0.2298  0.0059
81348W        W18842   6.706  16.166  11.431  0.2072  0.1083  0.1441
81349W        W18843  30.017  35.117   2.337 -0.1572  0.3695 -0.0036
81350W        W18844  26.820  17.775   7.153  0.0776  0.1484  0.0966
81351W        W18845   3.170  11.832  21.145  0.0037  0.0136 -0.2733
81352W        W18846   5.356  25.925  24.979  0.2980 -0.1521  0.0133
81353W        W18847   1.438   1.622   0.258  0.1335 -0.3458 -0.1631
81354W        W18848  16.618  30.124   2.183  0.0150 -0.0124 -0.0829
81355W        W18849  33.380   8.087  13.516  0.0262  0.0056 -0.1897
81356W        W18850  27.700  16.645  12.621  0.1377 -0.2684  0.2591
81357W        W18851   1.294  15.220  19.630  0.0390 -0.2053  0.2010
81358W        W18852   1.784  15.657   1.811 -0.1540  0.3194 -0.1330
81359W        W18853  16.521   4.804   6.203 -0.0435 -0.3318 -0.1242
81360W        W18854  11.679   5.531   1.648 -0.0998 -0.2048 -0.2159
81361W        W18855  13.656  26.320  10.170 -0.1113 -0.3553  0.2257
81362W        W18856  34.689  35.118  19.965  0.2570  0.0727 -0.2788
81363W        W18857  16.721  24.246  14.495 -0.0365 -0.4157  0.1077
81364W        W18858  23.002  22.650   1.343 -0.2377 -0.0001  0.1588
81365W        W18859   4.334  12.858  26.252  0.1003 -0.0912 -0.1140
81366W        W18860  35.154  17.754  20.647 -0.0793 -0.0200  0.2509
81367W        W18861  29.405  20.680  21.535 -0.1309  0.1221 -0.0349
81368W        W18862  20.872   9.830  17.416  0.2129 -0.0518 -0.0097
81369W        W18863  19.753   5.421  21.595  0.1631  0.2220 -0.0723
81370W        W18864  32.737  11.064   0.797  0.0759 -0.1184  0.0044
81371W        W18865   3.442  15.815   2.950 -0.1206 -0.1468 -0.0928
81372W        W18866  22.366   0.730  21.215 -0.0508  0.4007  0.1471
81373W        W18867  19.995  10.176  10.579  0.1516 -0.1682 -0.0881
81374W        W18868  27.873   0.135  10.403 -0.4364  0.1119  0.1309
81375W        W18869  31.056  10.037  15.068 -0.0518  0.2995  0.2098
81376W        W18870  20.534   8.513  22.313  0.0393 -0.0390 -0.0280
81377W        W18871  35.184   4.220  20.396 -0.0242 -0.3385  0.2141
81378W        W18872  19.822  15.348   1.682 -0.3750 -0.0948  0.1401
81379W        W18873  34.467  22.719  23.972  0.2727 -0.1457 -0.3028
81380W        W18874  21.219  30.089  14.182 -0.2087  0.0701  0.0981
81381W        W18875  24.325  16.520  16.555 -0.0469 -0.0357 -0.1831
81382W        W18876  28.053  16.311  25.152  0.1762 -0.3373 -0.1404
81383W        W18877  27.466  31.908  16.203  0.1826 -0.0451  0.2983
81384W        W18878  26.907  30.873  16.812  0.1124 -0.0393  0.1826
81385W        W18879  10.475  12.186   4.381 -0.3450  0.0123  0.0108
81386W        W18880  21.850  21.783  19.311 -0.1764 -0.0559 -0.0488
81387W        W18881  29.449   5.872  19.239 -0.0814  0.4001 -0.2660
81388W        W18882   9.652   0.422  14.321  0.0648  0.0294  0.1046
81389W        W18883  29.438  31.698   3.888  0.0148  0.1483 -0.5332
81390W        W18884  15.822   7.003   6.570 -0.3998 -0.0454 -0.1886
81391W        W18885   0.595  17.602  16.566 -0.0225  0.1130  0.1879
81392W        W18886   8.172  30.167  22.576  0.2153 -0.0348 -0.0138
81393W        W18887  33.056   8.931  22.388 -0.2717 -0.2567 -0.1128
81394W        W18888   8.198   8.321  12.331 -0.0773  0.2970 -0.0546
81395W        W18889  33.617  33.308   5.868  0.0848 -0.0986  0.3971
81396W        W18890  19.561  18.910  22.415 -0.0905  0.1235  0.0516
81397W        W18891  13.431  11.334  24.931  0.2605 -0.1640 -0.0400
81398W        W18892  26.396  18.428  24.223 -0.1529  0.1782 -0.0312
81399W        W18893  24.189  31.176  20.483  0.1095 -0.0968  0.0828
81400W        W18894  21.076  29.791   3.852  0.4058  0.2335 -0.1752
81401W        W18895  21.219   2.779   2.377 -0.0594 -0.0893 -0.1156
81402W        W18896   9.561  20.057  23.297  0.1401 -0.5145  0.0181
81403W        W18897  10.409  24.590  24.813  0.1589  0.1574  0.3024
81404W        W18898  34.307  19.826  25.726 -0.1422 -0.3433 -0.0099
81405W        W18899   4.294   2.465   3.167 -0.0462  0.0792 -0.2571
81406W        W18900  22.482  34.513  17.379  0.2117  0.0653 -0.0523
81407W        W18901  31.205  16.545   5.165 -0.0781 -0.2918 -0.1584
81408W        W18902  21.543  26.057  23.667  0.1734 -0.2506  0.0600
81409W        W18903  34.634  27.455  22.934  0.0043  0.4446 -0.2393
81410W        W18904  31.573   0.166  19.568 -0.2227 -0.1232  0.3474
81411W        W18905  16.049  12.536  19.174  0.0282 -0.1874 -0.3198
81412W        W18906  32.360  25.069  21.432  0.0528  0.0147  0.1076
81413W        W18907   9.186  22.388   3.287 -0.2435 -0.3052 -0.0931
81414W        W18908  11.040  17.605   8.509 -0.0960  0.1824 -0.0024
81415W        W18909  17.563  13.317  11.405 -0.0382 -0.1927 -0.0154
81416W        W18910  29.247  21.749  19.790 -0.2373 -0.0819 -0.2270
81417W        W18911  11.239  17.443  13.957 -0.0924  0.1781 -0.1916
81418W        W18912  29.140  18.583  15.227 -0.0513  0.0181  0.1512
81419W        W18913  33.750  16.282  14.129 -0.0180 -0.0342  0.0425
81420W        W18914  34.524  19.633  15.842 -0.4458  0.1505 -0.2700
81421W        W18915  30.174  32.421  22.925 -0.2231  0.3670  0.0138
81422W        W18916  19.194   7.777  23.715 -0.0984 -0.0023 -0.1849
81423W        W18917  17.326   6.936  18.563  0.2307 -0.0495 -0.0205
81424W        W18918  32.458  15.294  13.819  0.3569  0.1465  0.0978
81425W        W18919   3.901  30.777  25.653 -0.3047 -0.1135  0.1374
81426W        W18920  19.496   6.644   1.241 -0.3500  0.1481 -0.0980
81427W        W18921  23.811  14.640  23.852 -0.2511  0.1011 -0.0896
81428W        W18922  11.979  23.191  21.404  0.0258 -0.0095  0.1197
81429W        W18923  22.000   4.261  25.254 -0.1699 -0.1283 -0.1195
81430W        W18924   8.872  27.807  10.314  0.2132  0.1830 -0.1403
81431W        W18925  16.389  17.150  20.906 -0.1904  0.1181  0.0194
81432W        W18926   6.955  30.307   2.983  0.0182 -0.3812 -0.1467
81433W        W18927   8.135  32.397  20.896 -0.0547 -0.0851  0.2467
81434W        W18928  13.305  26.529   5.247  0.0736  0.0163  0.1050
81435W        W18929  23.935  17.181  17.712  0.2608 -0.0451  0.0388
81436W        W18930  22.488  26.041  22.087 -0.2860  0.0229  0.2459
81437W        W18931  17.036  18.524   2.424 -0.0778  0.0330  0.0663
81438W        W18932  12.905  16.936  21.891 -0.0805 -0.2479  0.3858
81439W        W18933  28.228  18.932   7.192 -0.3669  0.0161  0.3717
81440W        W18934  26.430  16.419  20.079  0.0882  0.1118 -0.0624
81441W        W18935  20.608  21.223  22.669 -0.3279 -0.0338  0.1401
81442W        W18936  26.782  19.989  20.369 -0.0818  0.1420 -0.1346
81443W        W18937  21.525  22.269  20.490  0.0825 -0.2108 -0.1765
81444W        W18938   0.627  34.104  16.278 -0.0279  0.2583 -0.1321
81445W        W18939  26.879  20.666  14.473 -0.0532  0.1142  0.1834
81446W        W18940  31.688  26.971  20.292  0.0411  0.1101  0.1478
81447W        W18941  15.636   3.900  11.271  0.0356  0.0966 -0.0323
81448W        W18942  14.280  30.593   7.642  0.1663  0.1161 -0.2691
81449W        W18943  15.128  11.249  23.956 -0.0103  0.0967  0.0342
81450W        W18944  32.144   7.569  26.037  0.2429  0.0286 -0.2790
81451W        W18945  31.981  22.239   7.576  0.0614  0.0111  0.1749
81452W        W18946  12.342  26.140   6.402  0.1173  0.0695 -0.0947
81453W        W18947   0.929  28.293   3.285 -0.2011  0.0509 -0.0459
81454W        W18948  14.790  28.668  10.920 -0.0689 -0.4569 -0.1843
81455W        W18949  23.401   7.711  23.132  0.1783 -0.0153  0.2584
81456W        W18950  20.572   8.392  18.921  0.0157  0.1564  0.1500
81457W        W18951   3.466  26.503  23.328 -0.0301 -0.0681 -0.0684
81458W        W18952   8.800  30.512  25.488 -0.1325  0.0080 -0.2105
81459W        W18953  22.120   6.274   6.176  0.3427  0.1446 -0.4417
81460W        W18954   4.715  34.562   9.593  0.1001  0.0430 -0.0613
81461W        W18955   2.903  35.170  24.550 -0.1079 -0.0008  0.1483
81462W        W18956  27.729  23.729  18.882 -0.0848  0.0508 -0.0139
81463W        W18957  30.449   5.216   0.548  0.3026 -0.0176 -0.0240
81464W        W18958  31.643   8.064  19.991  0.4574  0.1447  0.1242
81465W        W18959  31.843   6.491  12.035  0.1958  0.1373 -0.0379
81466W        W18960  22.382  34.459  20.612 -0.1122 -0.1335 -0.3899
81467W        W18961  10.574   5.000   5.111  0.2404  0.1848  0.2478
81468W        W18962  13.864   5.784  10.546  0.0060  0.1467 -0.1284
81469W        W18963  25.289  26.277  16.758 -0.3215 -0.2008 -0.1870
81470W        W18964  11.539  24.299   4.183  0.4100 -0.1976 -0.1225
81471W        W18965  23.591  12.610  18.552 -0.0893  0.2299  0.0849
81472W        W18966  21.820  18.234  25.650 -0.0145 -0.0964  0.1950
81473W        W18967  13.524   6.626   1.051  0.1850  0.3456  0.2551
81474W        W18968  18.748  23.632   9.161 -0.0168  0.0484 -0.2975
81475W        W18969   6.078  23.393   9.414 -0.4079  0.2524 -0.0389
81476W        W18970  27.713   7.894  11.031  0.0412 -0.2148 -0.0894
81477W        W18971  19.387  24.180   1.752  0.0983  0.1357  0.0330
81478W        W18972  11.670   8.731  12.288 -0.2081 -0.2016  0.0775
81479W        W18973  22.206  32.600  12.893 -0.2260 -0.0625 -0.0277
81480W        W18974  28.939  18.079  12.275  0.2752  0.2343 -0.0557
81481W        W18975  34.547  28.989  25.781 -0.0507  0.1851  0.0406
81482W        W18976  26.584  34.520  16.619  0.3534 -0.2246  0.2817
81483W        W18977  26.544  35.149  22.652 -0.2752 -0.0366  0.6027
81484W        W18978   5.061   1.848  12.679  0.1178 -0.3423 -0.0284
81485W        W18979  11.141  13.706   3.841  0.1782  0.0026  0.0306
81486W        W18980   2.236   3.742  22.783 -0.0956 -0.2708 -0.2600
81487W        W18981   9.110   1.638   2.234  0.4739 -0.2169 -0.1150
81488W        W18982  12.188   6.761   6.259 -0.1235 -0.2375 -0.0675
81489W        W18983   0.246   3.044   7.537  0.2857  0.1428  0.1151
81490W        W18984   5.952   0.792   4.142  0.2487 -0.0386 -0.2855
81491W        W18985  24.229  12.947  13.593 -0.2783  0.2797 -0.1811
81492W        W18986  31.886   8.741  11.215  0.3339 -0.2526  0.2670
81493W        W18987   3.750  26.415  22.842  0.1008  0.2074  0.2233
81494W        W18988   4.939  34.998  12.300 -0.3485  0.2607  0.2970
81495W        W18989   3.116   0.980  25.877  0.2301 -0.1236 -0.0706
81496W        W18990  24.811  31.821  24.653  0.1688 -0.0783 -0.2894
81497W        W18991  14.769   4.052  20.206 -0.1350 -0.1046  0.1871
81498W        W18992   8.843   4.799   3.117 -0.2091 -0.0965  0.3325
81499W        W18993  12.471  19.525   6.058 -0.0366 -0.2325 -0.3181
81500W        W18994   9.816  35.148  15.025 -0.0217 -0.1334 -0.1537
81501W        W18995  35.030  34.917  16.074  0.1247  0.0543 -0.0090
81502W        W18996   6.452  30.308   4.623 -0.0198  0.0194 -0.0792
81503W        W18997   7.631  23.233  10.558 -0.2969 -0.0162  0.0759
81504W        W18998  31.576  20.301  23.632  0.0053  0.0211  0.2888
81505W        W18999  17.400  18.779  10.814 -0.3859 -0.0559 -0.3723
81506W        W19000  18.251  34.809  10.120  0.2404 -0.1962 -0.0791
81507W        W19001   4.454  15.331  19.764 -0.0754  0.0028 -0.0905
81508W        W19002  26.380  26.126  21.592 -0.1235 -0.0092 -0.0865
81509W        W19003  28.703  17.215  14.558 -0.2142 -0.3033 -0.0720
81510W        W19004   4.486  35.354  25.143 -0.2875  0.2846  0.3533
81511W        W19005  18.185   9.615   7.742  0.0490 -0.0205 -0.2106
81512W        W19006  25.980  30.171   0.582 -0.1640  0.1650 -0.2276
81513W        W19007  13.733   7.611   8.675 -0.0790 -0.1796  0.3450
81514W        W19008  31.132   3.243   2.797 -0.1375 -0.2858 -0.0165
81515W        W19009  33.714   5.040   2.019 -0.0694 -0.0345 -0.0492
81516W        W19010  33.297  21.930  15.844  0.0837 -0.0096  0.2079
81517W        W19011   1.255   8.251   1.650  0.0264  0.1128 -0.3905
81518W        W19012  20.875   6.623   7.206 -0.0068 -0.2275 -0.1808
81519W        W19013  10.792  26.475   2.763  0.1860 -0.0186 -0.2324
81520W        W19014   4.554  22.990   3.618  0.2014 -0.0868  0.1786
81521W        W19015  29.936  34.300  23.023  0.0559 -0.0787  0.1976
81522W        W19016  21.821  23.264   2.832  0.3078 -0.1275  0.1043
81523W        W19017   5.523   1.123   9.789 -0.1694 -0.0085 -0.0539
81524W        W19018  29.534   5.469   3.397  0.0789  0.2478 -0.1531
81525W        W19019  15.637  25.040   0.695 -0.1562 -0.1701 -0.2125
81526W        W19020  21.544  32.227   3.083 -0.0896  0.1270 -0.0984
81527W        W19021   8.185  22.226   4.755 -0.0077  0.0382  0.1032
81528W        W19022  27.133  33.832   3.965  0.0127  0.0813  0.2321
81529W        W19023   3.678   5.973  20.399  0.1046  0.0665 -0.0781
81530W        W19024  25.673  15.259  16.420  0.2365 -0.1586 -0.1599
81531W        W19025  31.268   0.647   2.735  0.0299 -0.2723 -0.1930
81532W        W19026   8.145   7.440  10.193  0.0980 -0.0288  0.1170
81533W        W19027  29.720  11.075  18.331  0.2893 -0.1683  0.2586
81534W        W19028  26.245  10.469  17.331 -0.0928  0.1429  0.0745
81535W        W19029  31.473  15.315   7.559 -0.2838 -0.2357 -0.0877
81536W        W19030  22.372  17.591  17.228 -0.1219  0.2005 -0.1960
81537W        W19031  34.830  23.844  21.605  0.1173  0.1319  0.0161
81538W        W19032   2.997  29.824   6.960 -0.2039 -0.1484  0.1523
81539W        W19033  12.772   1.323   7.021  0.1663 -0.0256 -0.0926
81540W        W19034  26.241   0.371  21.035 -0.0416  0.3300 -0.3087
81541W        W19035  23.332  22.061  15.745  0.0382  0.1407 -0.4106
81542W        W19036  28.899  10.070   8.765  0.1912 -0.0028  0.2183
81543W        W19037  21.505   6.851   7.782  0.1072  0.0147 -0.0050
81544W        W19038  21.891  24.689   3.988 -0.1635  0.0444  0.0950
81545W        W19039   2.739  17.409  25.890  0.3982 -0.0287  0.0641
81546W        W19040  16.076  13.197   3.740 -0.1201  0.0278 -0.2733
81547W        W19041   0.050   3.543   0.774 -0.2116 -0.1804 -0.2445
81548W        W19042  33.246  25.003  14.751  0.2453  0.0414  0.0241
81549W        W19043  15.085   6.410   5.338  0.0758 -0.0101 -0.2939
81550W        W19044  18.991  32.713  16.496 -0.0989 -0.1072  0.3079
81551W        W19045   8.217  17.328   8.240 -0.2481 -0.0211 -0.1240
81552W        W19046  14.313  24.644   3.225 -0.1797  0.0404  0.1388
81553W        W19047  10.239   2.101   6.848 -0.0802 -0.0041  0.0649
81554W        W19048  29.305  12.677  15.450  0.2001  0.1599 -0.0504
81555W        W19049   2.876   0.292   0.074  0.3779  0.1187 -0.0793
81556W        W19050  23.830  21.510  25.596  0.1607  0.0232  0.1054
81557W        W19051   3.716   9.356  21.007  0.1747  0.0870 -0.0150
81558W        W19052  13.199  12.193   0.326  0.0703  0.1639 -0.2420
81559W        W19053  26.480  33.789  20.756 -0.1332  0.3108 -0.1158
81560W        W19054  27.021  31.290   1.698 -0.0008  0.4117  0.1548
81561W        W19055  23.186   8.566   4.242 -0.0835  0.2232 -0.0420
81562W        W19056  13.066  25.403  13.076 -0.5364  0.0952 -0.0820
81563W        W19057  34.647  27.234   2.478  0.2354  0.1367 -0.0060
81564W        W19058  22.384  11.480  15.294  0.1713  0.0683  0.3113
81565W        W19059  20.572   5.376  15.390  0.1964  0.0398  0.2549
81566W        W19060  14.890   6.322   1.157 -0.3815  0.1011  0.3061
81567W        W19061  24.021  11.736  17.953  0.0018 -0.1240 -0.0164
81568W        W19062  10.575  22.612   8.312  0.0595 -0.0416 -0.2155
81569W        W19063  30.831  13.154  18.895  0.0699  0.0633  0.5562
81570W        W19064  12.054  23.867   1.715  0.3539 -0.1162  0.1990
81571W        W19065   0.919  14.877  19.625 -0.0008 -0.0900 -0.3056
81572W        W19066  28.274  12.314  22.213  0.0891 -0.1753 -0.1061
81573W        W19067   7.764  16.307  23.692  0.2030  0.3001 -0.0049
81574W        W19068  10.585  32.841  22.213  0.0810 -0.2748 -0.2139
81575W        W19069   1.351   9.180  17.811  0.1388 -0.3604  0.0736
81576W        W19070   8.281  11.837  23.586  0.0167 -0.2716  0.0396
81577W        W19071  22.409   6.739   1.920 -0.0497  0.1524 -0.0153
81578W        W19072  25.355  26.610  18.138  0.2818 -0.0590 -0.1524
81579W        W19073  16.128  26.729  24.412  0.0030 -0.1950  0.0447
81580W        W19074  21.430  28.745  18.854  0.1079 -0.0438  0.0951
81581W        W19075  22.525  30.303   1.541 -0.0875 -0.1799 -0.3275
81582W        W19076   1.867   5.553   0.261 -0.0468 -0.1107 -0.0560
81583W        W19077  26.869  26.481  14.670 -0.3747  0.1628 -0.3056
81584W        W19078   7.673  13.105   7.235  0.2680 -0.0861  0.4216
81585W        W19079   8.235  10.165  11.701 -0.0751  0.1948 -0.0438
81586W        W19080  25.346   7.209   1.146  0.0564 -0.0457  0.2923
81587W        W19081  31.935  13.415  15.540 -0.2297 -0.2994  0.1167
81588W        W19082   0.705  32.179   5.612 -0.0850  0.1350 -0.0231
81589W        W19083   5.291  10.531  23.333 -0.0914  0.3764 -0.2550
81590W        W19084   8.248   2.712  24.967 -0.2335  0.1870 -0.0388
81591W        W19085  14.542  31.303  12.904 -0.2106  0.2271  0.0635
81592W        W19086  11.485  13.982  24.022 -0.0316 -0.0731  0.0917
81593W        W19087   3.191   4.130  21.489 -0.1732 -0.2234  0.0393
81594W        W19088  19.457   5.577   3.333 -0.1194 -0.1510 -0.0309
81595W        W19089  16.567  13.985   1.778  0.1161 -0.0266 -0.1335
81596W        W19090  32.309  21.792  11.143  0.0950 -0.1893 -0.1220
81597W        W19091  14.632  12.249  23.577 -0.1496 -0.1715  0.1869
81598W        W19092   9.721   4.659   6.142 -0.1307  0.3882  0.1641
81599W        W19093   1.811  33.671   6.140  0.0780 -0.0558 -0.0753
81600W        W19094  30.115  12.011  13.269  0.1679 -0.1093  0.1601
81601W        W19095  16.737  29.038   3.828 -0.0809  0.3204 -0.2203
81602W        W19096  29.745  34.886   4.617  0.1875  0.0962 -0.1299
81603W        W19097  24.291   2.329  18.001  0.2020  0.3296  0.0475
81604W        W19098  11.623   8.290   3.350 -0.2101 -0.0666  0.1058
81605W        W19099  26.711   0.772  13.653  0.1687  0.1643 -0.0503
81606W        W19100  29.735   2.726  15.971 -0.0191 -0.2031 -0.0773
81607W        W19101  32.180  18.667  11.282 -0.3224  0.1250 -0.2955
81608W        W19102  24.849  18.145  20.599  0.1815  0.0016  0.0209
81609W        W19103  12.262  27.201  16.201  0.0294 -0.1560  0.2503
81610W        W19104   1.500  26.167  26.005  0.1641  0.0072  0.2669
81611W        W19105  11.486   6.299  23.650 -0.2994 -0.1414  0.2476
81612W        W19106   1.650  31.403  19.192  0.1624  0.0700  0.2791
81613W        W19107   6.268  28.963   5.493 -0.3718 -0.0567 -0.0502
81614W        W19108  33.384  33.305   2.616  0.0015 -0.0121 -0.0475
81615W        W19109   7.935  26.153  21.998 -0.1294  0.3451  0.1618
81616W        W19110  23.657  29.237  13.710 -0.0666  0.2411 -0.1775
81617W        W19111  26.617  31.882   4.773 -0.0419  0.0997  0.0802
81618W        W19112   2.572   5.008   3.811  0.0731  0.2307  0.1694
81619W        W19113   4.259  27.658   7.681 -0.1325  0.1434  0.0822
81620W        W19114  30.825  15.385  24.989 -0.1925 -0.1260 -0.1631
81621W        W19115  12.742   0.741   7.805 -0.3054 -0.1925 -0.2111
81622W        W19116  18.942  19.155   7.486 -0.0945 -0.3949 -0.1529
81623W        W19117   9.742  23.346   6.620  0.0726  0.1232  0.1021
81624W        W19118   8.359  31.635  11.881  0.0970  0.1855  0.1476
81625W        W19119  32.807  12.511  11.684 -0.0006  0.1185  0.2410
81626W        W19120  22.683   1.252   1.770 -0.0323  0.0152 -0.0914
81627W        W19121  28.888  23.156   5.793 -0.3896 -0.2022  0.1996
81628W        W19122  16.273  22.758   8.347  0.0210 -0.1405 -0.3102
81629W        W19123  25.008  31.414  14.589  0.1358 -0.0523  0.1919
81630W        W19124  25.488   5.884  22.868 -0.2355  0.1779 -0.1770
81631W        W19125  28.735  24.706  12.810  0.0802 -0.4316 -0.1640
81632W        W19126   2.939   9.046   5.423  0.1042 -0.3260  0.3433
81633W        W19127  31.142  25.040  15.759  0.0929  0.1075 -0.0100
81634W        W19128  21.346  19.987   1.956  0.1244  0.0103  0.3282
81635W        W19129  24.033  14.285  20.658 -0.0266 -0.0405  0.1179
81636W        W19130  33.977   5.108  24.559 -0.1063  0.3605 -0.0368
81637W        W19131  17.040  15.402   6.101  0.0375 -0.3824 -0.1234
81638W        W19132   3.221  10.998   1.742 -0.1326  0.1579 -0.1315
81639W        W19133   5.823  27.121  21.334  0.2671 -0.1037  0.0377
81640W        W19134   5.937  10.339  18.031 -0.0835 -0.0116  0.0239
81641W        W19135  25.282  20.416  11.921  0.1435  0.1139 -0.1991
81642W        W19136  18.384  12.368   0.286 -0.1489 -0.3751 -0.0732
81643W        W19137  29.388  25.083  18.971 -0.2821 -0.0199  0.3657
81644W        W19138   4.256  20.822   1.017 -0.2700 -0.0818 -0.0096
81645W        W19139  23.446  16.202  20.846 -0.3081  0.2187  0.1596
81646W        W19140  20.066   1.729  23.827  0.0458  0.1793  0.1031
81647W        W19141   1.856  23.217   2.706 -0.0928  0.0474 -0.0250
81648W        W19142  23.795   6.056  17.655  0.2989 -0.1601  0.2394
81649W        W19143  19.124   0.497   7.771  0.0012 -0.0217 -0.2424
81650W        W19144  20.627  26.781   3.798 -0.0302  0.2143  0.0099
81651W        W19145  31.380  12.068  25.499  0.2791  0.0212 -0.0914
81652W        W19146   4.211  25.638   5.990 -0.2130  0.2413 -0.1502
81653W        W19147  20.983  11.271  22.068 -0.0384  0.0023  0.0370
81654W        W19148  19.414   9.047  21.729 -0.0180 -0.1617 -0.2938
81655W        W19149  24.526   1.714   5.226 -0.0995 -0.0177  0.2281
81656W        W19150   0.208   0.388   6.467  0.1466 -0.1131  0.0199
81657W        W19151  15.945  29.776   4.565  0.1312  0.1447  0.0890
81658W        W19152  31.743   6.449  21.657  0.1519  0.0386 -0.2596
81659W        W19153  17.620  14.445  22.037  0.1200  0.1870  0.0022
81660W        W19154  32.570  21.978  13.243 -0.1871  0.2069  0.5479
81661W        W19155  23.378   6.517  17.711 -0.0636  0.0079 -0.1781
81662W        W19156  30.043  19.053  24.652 -0.0161 -0.0399  0.0183
81663W        W19157   3.699  22.999  23.971  0.0965  0.3917  0.1219
81664W        W19158   7.922  29.432   7.111 -0.2556  0.1905 -0.1908
81665W        W19159  27.729  27.702  11.191  0.0477 -0.1177  0.0022
81666W        W19160  32.860  20.330  25.212 -0.1058 -0.3496 -0.1719
81667W        W19161  11.315  28.902   7.669 -0.3063 -0.1239 -0.3798
81668W        W19162   3.944  28.232   9.506  0.2840  0.0921 -0.0539
81669W        W19163   6.747  29.904   4.720 -0.1903  0.0776 -0.0959
81670W        W19164  23.933   0.486   5.771  0.3211  0.2647  0.0778
81671W        W19165  11.003  20.032  11.147  0.0694  0.2021  0.0194
81672W        W19166  15.843  20.498  11.395  0.2082  0.3254  0.1229
81673W        W19167  28.240  31.184   0.678  0.3910 -0.0592  0.1904
81674W        W19168   3.856   8.395  15.855 -0.4189 -0.0915  0.2548
81675W        W19169  18.547  32.608   2.563  0.0721  0.0581 -0.1427
81676W        W19170   8.489  14.346  12.513 -0.2222  0.2198 -0.1571
81677W        W19171  10.912  26.660   4.980 -0.3156 -0.0758  0.1244
81678W        W19172  14.608  16.996   7.622  0.1972 -0.1816 -0.1003
81679W        W19173  31.304  23.875  15.427  0.0646 -0.2407  0.0365
81680W        W19174   5.028  33.197   3.087  0.1357 -0.0019 -0.0557
81681W        W19175  26.883  11.705  13.431 -0.3140  0.0651  0.1237
81682W        W19176  18.757   7.202   6.431  0.0567  0.0578 -0.0835
81683W        W19177   0.853  13.242  25.686  0.1214 -0.3804 -0.1661
81684W        W19178  16.597   7.048  17.739 -0.3547  0.2155  0.3756
81685W        W19179  15.938  16.655   0.826  0.2520 -0.0639 -0.0104
81686W        W19180  21.329  10.291   4.858  0.1692 -0.0823  0.0351
81687W        W19181  33.897  28.449   0.684  0.0141 -0.1877  0.2758
81688W        W19182  15.546  14.232  10.192 -0.0254 -0.0508  0.3584
81689W        W19183   8.505  34.122  23.438  0.2819 -0.0661 -0.2435
81690W        W19184  21.144  29.449   6.782 -0.1648  0.1214 -0.0963
81691W        W19185   8.255   8.041  20.763  0.1097  0.0156 -0.2393
81692W        W19186   7.571   0.126  26.136 -0.2957  0.4232  0.1115
81693W        W19187   0.116   5.342   0.279  0.1710  0.1689 -0.1308
81694W        W19188  30.911  16.133   5.022  0.0528 -0.3005  0.3228
81695W        W19189   6.758   2.100  21.544  0.1319 -0.0617  0.0936
81696W        W19190  26.940   4.249  20.485 -0.2222 -0.1142  0.2059
81697W        W19191  26.618  26.329  21.166 -0.0097  0.0072  0.0525
81698W        W19192   2.218  10.724  17.051  0.0945  0.3587 -0.0331
81699W        W19193  11.363   9.952  21.311 -0.0831 -0.2486  0.0396
81700W        W19194  22.122   4.742  19.105  0.0243 -0.0348  0.0357
81701W        W19195  23.970  13.586  15.363 -0.1406 -0.1160 -0.0374
81702W        W19196  22.224  17.992   1.949 -0.2262  0.1237 -0.3486
81703W        W19197  17.670  26.486  19.823  0.0883 -0.0270  0.5539
81704W        W19198  23.246  22.853  15.992  0.0668  0.2040  0.1470
81705W        W19199  12.885  11.239  25.771 -0.0199 -0.0023  0.0048
81706W        W19200  26.260  31.978  19.890  0.0386 -0.1226  0.2386
81707W        W19201  13.083  18.306  20.027 -0.4176  0.0841  0.1577
81708W        W19202  20.183  25.629   6.036 -0.1751  0.0432 -0.1134
81709W        W19203  13.339  32.792   6.723  0.2491  0.2351 -0.1985
81710W        W19204  24.675   2.285  21.945  0.2390 -0.2289  0.3238
81711W        W19205  26.814   8.832   7.910 -0.1489 -0.0261 -0.3378
81712W        W19206  27.757   7.149   9.062  0.1175  0.0999 -0.2125
81713W        W19207  26.708  14.466   5.853 -0.0257  0.1454 -0.0767
81714W        W19208  17.788  19.708   4.126 -0.2036 -0.0619 -0.1437
81715W        W19209  20.062   3.744   3.163  0.1992  0.0328 -0.0367
81716W        W19210  26.882   2.205  13.608 -0.1674  0.2659 -0.1149
81717W        W19211  14.760  23.559   0.152  0.0876  0.0651 -0.1886
81718W        W19212  16.527  33.354  22.200  0.0409 -0.1716 -0.0296
81719W        W19213  31.987  26.874   3.032  0.3263  0.0393  0.3963
81720W        W19214  17.238   9.686   1.215  0.1965  0.1657  0.0107
81721W        W19215  26.816  21.991  11.456  0.2752 -0.0042 -0.0039
81722W        W19216  32.721  12.137  22.356 -0.0451 -0.0619  0.0984
81723W        W19217   6.557  16.260   2.841 -0.1047  0.1946 -0.1649
81724W        W19218  23.739   0.378   2.335 -0.3186 -0.1570  0.4159
81725W        W19219  21.749  12.677  23.491  0.0950  0.1089  0.2755
81726W        W19220  12.847   9.281  13.480 -0.0216  0.1559 -0.0105
81727W        W19221  29.775   3.458  24.899 -0.2300 -0.2398  0.1350
81728W        W19222   6.377  15.929   1.656 -0.2270 -0.1595 -0.3100
81729W        W19223   4.190   7.759   5.914 -0.0406  0.2256 -0.1269
81730W        W19224  14.686  25.616   8.725  0.1546 -0.2155  0.0434
81731W        W19225  33.041  30.523  16.150 -0.0031 -0.1016 -0.0229
81732W        W19226   3.673  23.832   4.534 -0.1321 -0.3076  0.1655
81733W        W19227  26.706  10.257  19.740  0.0899 -0.0113 -0.0180
81734W        W19228  32.789  12.402  22.785 -0.0837 -0.0052  0.0632
81735W        W19229  17.667   5.559   3.954  0.0629  0.3958  0.2367
81736W        W19230   4.442  16.638  16.449  0.2955 -0.2181  0.0341
81737W        W19231   2.199  33.196   4.991  0.1524  0.2374  0.2319
81738W        W19232   5.650   0.562  25.109 -0.0713  0.2528  0.2070
81739W        W19233  25.161   4.231  12.359  0.1205  0.1412  0.2670
81740W        W19234   1.853   1.051   3.866  0.1733 -0.2175 -0.2630
81741W        W19235  27.893   3.162  14.238 -0.1973 -0.2274  0.1402
81742W        W19236  12.817  23.678  15.595  0.4194  0.0570  0.0449
81743W        W19237  17.275  13.229   7.634  0.0194 -0.1687  0.0614
81744W        W19238  27.726  23.101  15.697  0.0980  0.1260  0.1400
81745W        W19239  35.181  29.497   4.678  0.0986 -0.2255 -0.0847
81746W        W19240   5.183  23.411  24.090  0.0659 -0.0560  0.1070
81747W        W19241   5.232  29.518   9.231  0.2081  0.0397  0.0578
81748W        W19242   8.148  20.831  12.509  0.1928  0.0762  0.2114
81749W        W19243  32.720  35.102  18.475 -0.1387  0.0806  0.1134
81750W        W19244  32.617  31.453  20.183 -0.0315 -0.0599 -0.1385
81751W        W19245   5.931  33.763   1.105 -0.2080  0.2704  0.3210
81752W        W19246  16.639  20.262  13.065  0.1204 -0.0871  0.2926
81753W        W19247  14.844  19.271  26.027 -0.0718 -0.0285  0.2240
81754W        W19248   7.910  16.389  24.659 -0.2236  0.3983  0.1005
81755W        W19249  33.662  13.443  15.790 -0.1069  0.0936  0.1139
81756W        W19250  35.361   6.879  16.393 -0.3270  0.1724 -0.0986
81757W        W19251   9.670   0.597   6.424  0.1252  0.5555  0.1583
81758W        W19252  21.079  10.616   1.864 -0.1926 -0.1687 -0.0348
81759W        W19253  17.905   1.550  10.418 -0.5542 -0.0601 -0.0568
81760W        W19254  27.588  17.834  22.093 -0.0707  0.2643 -0.1433
81761W        W19255   2.296  30.710  10.455 -0.1131 -0.2340  0.0080
81762W        W19256   1.155  20.145  18.305  0.1640  0.0581 -0.0801
81763W        W19257  29.411  17.304  11.895 -0.2625 -0.0459 -0.1708
81764W        W19258  10.072   1.184  14.838  0.0611  0.0581  0.0274
81765W        W19259  14.480  17.806  15.230  0.1168  0.2060  0.0320
81766W        W19260  13.180  16.659  25.912  0.2564 -0.0083 -0.1725
81767W        W19261  10.476  33.205   7.235 -0.1025 -0.0773  0.1942
81768W        W19262  27.822   2.534  18.480 -0.0199  0.3220  0.1725
81769W        W19263  23.215  15.445  22.799 -0.1379  0.1102 -0.1137
81770W        W19264  23.357  26.649  15.324  0.1147  0.0953 -0.0274
81771W        W19265  29.820  20.690  14.418  0.1641  0.2983  0.3148
81772W        W19266  29.306  22.576  22.327  0.3054 -0.1884 -0.4543
81773W        W19267   7.191   1.117   7.443 -0.3539 -0.0704  0.0035
81774W        W19268  16.255  25.013   4.465  0.1081 -0.2128 -0.3008
81775W        W19269  24.695   7.157  19.586  0.4006 -0.2768  0.0939
81776W        W19270  24.752  20.567  14.188  0.0916 -0.2648 -0.0763
81777W        W19271  34.186  20.144   1.272  0.1356  0.0561  0.3236
81778W        W19272  30.367  18.037  20.169 -0.2869 -0.0791  0.4683
81779W        W19273   7.650   2.015   0.806  0.3527  0.1568 -0.2587
81780W        W19274   9.186   4.842  25.877 -0.4578  0.3859 -0.0453
81781W        W19275   2.683  28.270  22.915 -0.0114 -0.1553  0.0002
81782W        W19276  24.919  33.875  24.045  0.1235  0.2401  0.3222
81783W        W19277   8.128  29.978   6.947 -0.0540 -0.1742 -0.0100
81784W        W19278  33.060  19.640  23.353  0.0956  0.1361  0.0068
81785W        W19279   3.567   3.146  26.194 -0.0210  0.1784 -0.1695
81786W        W19280  31.451  17.231  19.536 -0.3067  0.0405  0.1686
81787W        W19281  31.418  14.186   8.144 -0.2625  0.4632  0.1644
81788W        W19282  23.117   2.875  16.004 -0.2702 -0.0426 -0.0777
81789W        W19283  23.335  14.230  22.104  0.1644  0.0840  0.0652
81790W        W19284   9.899  13.697   5.309 -0.1754  0.0377 -0.1547
81791W        W19285  22.289  26.842  17.277  0.6475 -0.3036 -0.1776
81792W        W19286  22.833  24.625  18.140 -0.1063 -0.0386 -0.3861
81793W        W19287  30.137  28.821  16.986 -0.1824  0.4570  0.4704
81794W        W19288  16.198  34.038   6.559 -0.1154 -0.0650 -0.1001
81795W        W19289  25.966   7.306  23.921  0.1815  0.0628 -0.3381
81796W        W19290  26.777  14.843   7.657 -0.0358  0.0574  0.0976
81797W        W19291  11.174  14.589  20.978  0.0100 -0.2845 -0.1779
81798W        W19292  22.474   1.265  21.400  0.1439  0.1032  0.2786
81799W        W19293  34.242  21.410  16.880  0.1880 -0.6297 -0.2814
81800W        W19294  33.494  28.929  25.872 -0.2185  0.3439 -0.0022
81801W        W19295  16.853  28.659  11.196  0.4488 -0.1030  0.1852
81802W        W19296   8.889  14.856   7.254 -0.2009 -0.1526 -0.0259
81803W        W19297   6.919  14.195  22.591 -0.1092  0.3730  0.1768
81804W        W19298  15.744   6.580   1.832 -0.0779 -0.3113  0.1788
81805W        W19299  26.608   5.869  25.084  0.1845 -0.2174  0.0274
81806W        W19300  10.942  33.849  15.342  0.2734 -0.0016  0.2477
81807W        W19301   6.163   8.581   6.169 -0.0948 -0.1881 -0.0550
81808W        W19302  20.404   2.668   7.072  0.1392 -0.0659  0.1826
81809W        W19303  12.720  22.660  16.867  0.0212  0.2736  0.1203
81810W        W19304  12.330   3.444  19.565  0.2323 -0.1666 -0.0410
81811W        W19305   0.732  15.029  22.545 -0.3973  0.3746 -0.2060
81812W        W19306  32.210  22.106   7.991 -0.1395 -0.0879  0.3224
81813W        W19307   8.369   4.316   7.719  0.2406 -0.1256 -0.3072
81814W        W19308  11.351  21.287  21.310  0.2669  0.0564 -0.1199
81815W        W19309  13.071  18.960  11.540 -0.0799 -0.1771  0.2292
81816W        W19310  31.736  10.482  17.790  0.0781  0.1178 -0.0516
81817W        W19311   5.194   7.555  22.534 -0.3111 -0.1167 -0.0872
81818W        W19312   8.044  21.028   1.425 -0.1450 -0.1660 -0.0286
81819W        W19313   2.249  16.550  13.974  0.1288 -0.0501 -0.0318
81820W        W19314   4.059   6.290  16.630  0.1810 -0.0455 -0.2636
81821W        W19315   4.348  14.072  15.998  0.1243  0.3495  0.0282
81822W        W19316  28.270  11.223  17.647 -0.2951  0.1329 -0.0702
81823W        W19317  26.219   5.241  13.623 -0.0923  0.1201  0.0504
81824W        W19318   9.103  26.458  10.811 -0.0681  0.1330  0.3047
81825W        W19319  35.090   2.995  20.697  0.0429 -0.2659 -0.1250
81826W        W19320  32.487  23.356   8.832  0.3237  0.2958  0.1157
81827W        W19321   7.238   8.419  24.326 -0.2086  0.1537  0.2576
81828W        W19322   4.401   6.167   9.360 -0.0948  0.1543 -0.1354
81829W        W19323   9.629  22.345  12.081  0.0221 -0.2323 -0.0028
81830W        W19324  28.124  24.451  21.710 -0.2026 -0.1439 -0.1112
81831W        W19325  34.784   6.547   3.425 -0.3602  0.1327 -0.2012
81832W        W19326  19.905   3.574   2.530 -0.3120  0.0701  0.2071
81833W        W19327   7.050  15.426   3.756 -0.1775  0.0175 -0.2262
81834W        W19328  10.517  27.254  24.700  0.0641  0.1240  0.1032
81835W        W19329  34.881  26.525  23.189  0.0279 -0.0097  0.2587
81836W        W19330  22.890  33.704  13.164 -0.0527 -0.0049  0.0002
81837W        W19331  14.758   2.535   0.150 -0.2550  0.0454  0.1292
81838W        W19332   1.975  24.345   4.938  0.0373 -0.1287 -0.1039
81839W        W19333  10.448  23.940  23.287  0.2614  0.1103  0.0868
81840W        W19334  30.082   1.422  20.659 -0.4234  0.2708 -0.1313
81841W        W19335   9.852  21.427  26.226  0.3449  0.1516  0.2963
81842W        W19336  11.245  28.105   2.380 -0.2732 -0.2656 -0.2649
81843W        W19337  22.606  14.396  24.305  0.3304  0.4025  0.0833
81844W        W19338  22.822   3.537  21.155 -0.0355  0.2774  0.0676
81845W        W19339   2.660  33.156   2.513  0.0747 -0.0286  0.0467
81846W        W19340   0.152   7.716  23.770 -0.0421  0.0561 -0.0431
81847W        W19341  30.285  17.067  20.328  0.0721 -0.0839  0.0086
81848W        W19342   8.787   8.782   7.201 -0.4067 -0.3597  0.0406
81849W        W19343  17.112  28.545   7.376 -0.2218  0.1467  0.0152
81850W        W19344   6.127  30.882  24.054  0.0340  0.1101  0.2429
81851W        W19345  14.580  33.118  10.843 -0.0949 -0.0650  0.0254
81852W        W19346  19.032   3.929  10.091  0.1057  0.0480 -0.0117
81853W        W19347  25.894  20.972  17.953  0.0881 -0.3791  0.0378
81854W        W19348   4.887  29.293  10.225  0.1476  0.0898  0.1006
81855W        W19349   7.020  15.752   2.383  0.0973  0.0575  0.1731
81856W        W19350  20.196   6.501  22.173 -0.0114 -0.2469  0.0221
81857W        W19351  15.460  33.599  11.272  0.1669  0.3521  0.0169
81858W        W19352   9.464   5.415  11.063 -0.1403 -0.0980 -0.0290
81859W        W19353  23.469  17.031   2.041 -0.1800 -0.1058  0.0058
81860W        W19354   5.518  22.312   2.438 -0.1745 -0.0870  0.2509
81861W        W19355  15.288   5.463  11.574 -0.1072  0.2933  0.1763
81862W        W19356  30.143  21.912  12.583 -0.1541  0.0811 -0.2081
81863W        W19357  29.952  12.623   9.028 -0.0171  0.0204 -0.3132
81864W        W19358  10.112  15.236  11.575  0.0498  0.1350  0.1301
81865W        W19359  25.821  16.227   8.197  0.0722 -0.1341 -0.0728
81866W        W19360  18.134   6.311  21.588 -0.0932  0.0474  0.2027
81867W        W19361  30.039  31.687   3.229 -0.1133 -0.0120 -0.2762
81868W        W19362  27.241  22.535  23.387 -0.0008 -0.0622 -0.2802
81869W        W19363  17.483   7.630   7.848  0.5375 -0.1662 -0.0750
81870W        W19364  15.962  34.894  25.923  0.2313 -0.1881 -0.3565
81871W        W19365  25.534   9.978  21.368  0.1232  0.2580  0.1070
81872W        W19366  14.773  25.967  10.839 -0.2705 -0.0110  0.1309
81873W        W19367  11.874  25.297   0.553 -0.0048  0.0700  0.1485
81874W        W19368  14.651  32.815  12.004  0.2529  0.0554  0.1139
81875W        W19369   1.143   3.561   3.465 -0.3306  0.2131 -0.2178
81876W        W19370  31.777  15.897   5.312  0.1289  0.3319 -0.0724
81877W        W19371  30.413  32.178  25.123 -0.1644 -0.4114 -0.4677
81878W        W19372  27.912  15.725  16.110 -0.2981 -0.1824  0.1524
81879W        W19373  19.625  10.459  21.891 -0.0493  0.1310 -0.1224
81880W        W19374  17.399  18.267  23.934  0.0206  0.0871 -0.1361
81881W        W19375  24.539  28.994  24.949  0.3525  0.1381 -0.1809
81882W        W19376   1.829  10.921   0.275  0.3158 -0.1075 -0.1300
81883W        W19377  11.281   1.401  10.275 -0.1359  0.1854  0.0401
81884W        W19378  30.676   6.522  17.617  0.0196  0.0613  0.1497
81885W        W19379  26.301   3.620   0.864 -0.0302 -0.0141  0.4372
81886W        W19380  29.699  24.854  22.279 -0.0107  0.2284 -0.0317
81887W        W19381  19.547  23.206   2.247 -0.1897 -0.0634  0.2251
81888W        W19382  16.024   2.868  21.481 -0.5052 -0.5219 -0.1125
81889W        W19383  27.491   7.538  24.687  0.2809  0.1932 -0.1390
81890W        W19384   4.624  12.254   5.042  0.0542  0.2574 -0.1126
81891W        W19385  21.240  28.298  19.830 -0.1028 -0.1337  0.3980
81892W        W19386  12.285  16.079  11.250 -0.4243 -0.0384  0.0829
81893W        W19387   5.414  10.763   8.463  0.1841 -0.1381  0.0575
81894W        W19388  14.178  22.842   7.961 -0.1699 -0.2199  0.0171
81895W        W19389  14.512   3.935  19.265  0.1983  0.0604  0.1345
81896W        W19390  27.239  29.207   0.806 -0.0201  0.3332  0.1242
81897W        W19391  20.790  25.644  21.133 -0.0942 -0.1752  0.0020
81898W        W19392  33.770   9.578  11.078  0.0679  0.1932 -0.1363
81899W        W19393  18.064  18.501  12.311 -0.1117 -0.1482 -0.0931
81900W        W19394  30.733   3.216  19.789  0.1491 -0.1141 -0.0900
81901W        W19395  34.020   2.544   6.991 -0.1757 -0.0819  0.0609
81902W        W19396  10.870  28.760  15.674  0.0270  0.4399  0.1308
81903W        W19397  28.345  16.822  18.509 -0.0800  0.2667  0.2809
81904W        W19398  10.867  21.334   7.277 -0.5071 -0.3456  0.2604
81905W        W19399  22.677  26.015  17.790  0.0901 -0.2247 -0.0425
81906W        W19400   0.249  29.548  15.741  0.0470 -0.0581  0.0074
81907W        W19401  12.439   7.222   4.793 -0.3313 -0.3365  0.1604
81908W        W19402   7.501  33.583   4.441  0.0990 -0.1586  0.0884
81909W        W19403  34.759  25.596   0.730 -0.3208 -0.0028 -0.0415
81910W        W19404  26.994  19.027  10.649  0.2895  0.1151  0.2426
81911W        W19405   7.537   3.758   2.185  0.1765 -0.0378 -0.0219
81912W        W19406  22.727  17.357  21.681  0.1959 -0.1548  0.3421
81913W        W19407  12.164  22.456  11.243  0.2664 -0.0736  0.0234
81914W        W19408  32.158  31.917  16.696 -0.1291  0.1138  0.0737
81915W        W19409  22.938  27.923  20.734  0.2809  0.1411 -0.0369
81916W        W19410  21.676  21.537   2.977  0.0143 -0.0270 -0.1164
81917W        W19411  16.760  12.133  11.796 -0.1794  0.2075  0.0215
81918W        W19412  12.000   9.122  26.132 -0.0798 -0.3048 -0.1585
81919W        W19413   4.939  33.082  12.335  0.0971 -0.2695 -0.0806
81920W        W19414  30.198  33.627  21.706  0.4245 -0.1130 -0.2243
81921W        W19415   8.203  29.160  22.421  0.1344 -0.3200  0.1990
81922W        W19416  18.402  34.572  22.917  0.1235  0.1738 -0.0694
81923W        W19417  22.759   2.657   1.643 -0.0955 -0.0789 -0.1204
81924W        W19418   2.810   5.263   6.777 -0.0469  0.0700 -0.0904
81925W        W19419  16.439   5.440  22.033  0.1299  0.2269  0.0155
81926W        W19420  13.563  11.093  24.475 -0.0178 -0.1619 -0.1689
81927W        W19421  14.008  13.567  21.123 -0.2777  0.2098 -0.0566
81928W        W19422  15.674   1.539  25.889 -0.0042 -0.1091  0.3071
81929W        W19423   7.371  24.038  21.828 -0.1058  0.1256  0.1245
81930W        W19424  18.464  18.786  25.916  0.1014 -0.1385  0.0722
81931W        W19425  17.089  24.488  22.795 -0.0235  0.5467 -0.1585
81932W        W19426  28.429  31.295  17.206  0.2891  0.0008  0.1687
81933W        W19427  26.947   2.650  25.893 -0.0964  0.1860  0.0299
81934W        W19428  12.084   8.452   3.502  0.1807 -0.1479  0.0635
81935W        W19429  30.725  31.380  23.633 -0.0604 -0.0270  0.0149
81936W        W19430  17.665   8.450  12.901 -0.1158  0.2740  0.1288
81937W        W19431  17.334   5.401   6.130 -0.1392  0.1704  0.1515
81938W        W19432  31.483  12.358  18.501 -0.3098  0.1280  0.0493
81939W        W19433  29.143   6.593  15.299  0.1634 -0.0416  0.0480
81940W        W19434  14.200  22.374   3.133 -0.1056  0.0791  0.1331
81941W        W19435  23.080   4.314   1.899 -0.0090  0.1006 -0.1550
81942W        W19436   7.465   3.457  25.842  0.0245  0.1519 -0.0530
81943W        W19437  10.784   2.316  11.176 -0.1938 -0.1553 -0.0757
81944W        W19438  20.317   5.450   8.841  0.0944 -0.1202  0.1472
81945W        W19439  14.279  13.113   0.026 -0.1169  0.0715  0.3988
81946W        W19440  28.188  11.021  19.962  0.0981  0.3225  0.0306
81947W        W19441  21.643  25.534  17.044 -0.0522  0.3153 -0.1462
81948W        W19442  18.179  17.048   9.616  0.0976  0.4415 -0.0959
81949W        W19443  34.029  24.240  13.869 -0.3054 -0.4462 -0.0177
81950W        W19444  24.193  34.575   2.820 -0.0029 -0.0072  0.0555
81951W        W19445  17.008  27.684   5.885 -0.1708 -0.2046  0.0912
81952W        W19446  15.427   9.766  12.461 -0.1448  0.0253  0.1153
81953W        W19447  30.131  13.943  14.373 -0.2783 -0.2951  0.3475
81954W        W19448  22.072  17.636   2.235  0.0354 -0.2091  0.0979
81955W        W19449  30.017   0.117  16.865 -0.0449 -0.0596  0.2427
81956W        W19450   0.615   3.492  18.216  0.4555  0.2609 -0.0812
81957W        W19451  31.309  34.848   7.079  0.0006 -0.1826 -0.0126
81958W        W19452  20.358  22.176  24.941 -0.0632  0.0367 -0.2235
81959W        W19453  17.305  17.449   9.862  0.1185 -0.0856  0.0771
81960W        W19454   0.531  13.989  13.439  0.0055 -0.0682  0.1348
81961W        W19455  10.340   4.650  24.133  0.4008  0.2488  0.1528
81962W        W19456  28.756  17.934  21.643 -0.3542 -0.2170  0.3818
81963W        W19457   4.020   2.524  22.016  0.0789 -0.0230 -0.3549
81964W        W19458  23.254  22.883  13.100  0.1314  0.1942 -0.2597
81965W        W19459  11.029   8.267  11.735 -0.0112 -0.0591  0.1040
81966W        W19460  13.490  20.331  14.926 -0.4969 -0.0469  0.1760
81967W        W19461  18.052   9.802   1.160 -0.1646  0.3258 -0.1269
81968W        W19462  19.067  10.655  10.642 -0.1576 -0.2447 -0.0088
81969W        W19463  17.942  19.031  12.574  0.2361  0.0885  0.2062
81970W        W19464  13.995  33.523  22.594  0.0192 -0.0581  0.2129
81971W        W19465  30.064  12.816  25.459 -0.0472 -0.1546  0.0288
81972W        W19466   8.064   1.454   1.764 -0.0405 -0.3237 -0.1395
81973W        W19467  23.315  20.829  26.169 -0.1550  0.2743 -0.1032
81974W        W19468  23.954  32.346   1.066  0.2344 -0.1604 -0.2045
81975W        W19469  27.584  22.132  12.008 -0.0897  0.0622 -0.2490
81976W        W19470  12.760  11.006  23.405  0.0253  0.0759 -0.0198
81977W        W19471  25.833  20.011  10.160 -0.3857  0.2244  0.1845
81978W        W19472  32.095  24.931  16.658 -0.0391  0.2188 -0.3164
81979W        W19473  28.337  11.636  25.975 -0.0598  0.3690 -0.1939
81980W        W19474  10.018  28.262   7.782  0.2817  0.2862 -0.3826
81981W        W19475  15.815   3.506  12.287  0.2351  0.1115 -0.0006
81982W        W19476  14.690   4.939  22.312  0.0449 -0.0742  0.3379
81983W        W19477  16.793   9.382   2.406 -0.0679 -0.2972  0.4027
81984W        W19478  23.864   0.398   7.374  0.0699 -0.0684 -0.2737
81985W        W19479  34.177  21.111  12.207 -0.0660  0.1915  0.0868
81986W        W19480   0.556  11.248  20.613  0.2606 -0.1204 -0.2768
81987W        W19481  14.180   5.823   4.494 -0.0154 -0.0164  0.0067
81988W        W19482   8.457  20.250   1.009  0.2475  0.1080  0.1013
81989W        W19483   4.918  34.961  22.692 -0.1650  0.0022 -0.1046
81990W        W19484  21.031   8.168   5.467 -0.1619 -0.1699 -0.0575
81991W        W19485  33.451  27.694   0.511  0.2425 -0.0136 -0.2989
81992W        W19486  32.446  20.736  15.103  0.0479  0.1698  0.3012
81993W        W19487  12.347  10.419   0.341  0.0202 -0.4257  0.1615
81994W        W19488  12.148  10.582   6.948  0.2761  0.0848  0.2398
81995W        W19489  17.784  11.806  22.011  0.0793 -0.1890  0.3066
81996W        W19490  10.835   2.480   2.655  0.0498 -0.0260 -0.0771
81997W        W19491  19.297   4.587  10.035 -0.1930 -0.1961 -0.2204
81998W        W19492  19.816  33.310   1.161  0.0302  0.0784  0.1026
81999W        W19493   2.725   4.964  24.663  0.0922 -0.3209  0.1007
82000W        W19494  32.735   3.063   3.594  0.0741 -0.0382 -0.2482
82001W        W19495  21.424   2.341  15.039  0.0449  0.0435 -0.2433
82002W        W19496  15.614   9.691  10.086 -0.1708  0.1547 -0.0113
82003W        W19497   9.706  34.918   7.758  0.2033 -0.3016 -0.1641
82004W        W19498  30.035   5.054   2.128 -0.2298 -0.0136 -0.1485
82005W        W19499   9.543  32.601  13.043 -0.0686  0.1594  0.2400
82006W        W19500  30.697  32.747  15.146  0.0161 -0.2436  0.0119
82007W        W19501   2.862  27.841  21.166  0.1432 -0.1007  0.1121
82008W        W19502  17.073   3.913   5.548  0.0244  0.1916 -0.1485
82009W        W19503  14.603  16.207  25.403  0.1364 -0.0689 -0.4002
82010W        W19504  29.317   8.251   9.108  0.1098  0.2093 -0.0301
82011W        W19505  18.580  22.475   5.754 -0.1393 -0.1961 -0.0864
82012W        W19506  10.362  33.084  11.431 -0.1460 -0.0502  0.2088
82013W        W19507  18.111  11.669  18.182  0.0303 -0.2481  0.1587
82014W        W19508  14.334  17.696  24.855 -0.1694  0.0593 -0.3767
82015W        W19509   6.393  30.285   2.384  0.4361  0.0768 -0.0798
82016W        W19510  29.182  13.272  18.172  0.0484  0.1924  0.0119
82017W        W19511  30.179  30.426  16.684 -0.1058  0.5096  0.0086
82018W        W19512  15.122   2.183  26.053 -0.0922  0.0964  0.1056
82019W        W19513  33.333  20.058   6.493  0.1995 -0.1747 -0.3033
82020W        W19514  30.038   3.433  25.831 -0.3444 -0.2460  0.1325
82021W        W19515  26.427  13.352  25.845  0.1498 -0.1076 -0.0697
82022W        W19516  11.681  32.245   7.298  0.2063  0.1704 -0.0640
82023W        W19517  34.700  10.657  17.377 -0.2750 -0.0402 -0.0686
82024W        W19518  28.496   7.326  17.139  0.0794  0.1167  0.1516
82025W        W19519  31.482   6.809  24.683 -0.2140 -0.2400  0.1805
82026W        W19520  26.229  33.658  15.426  0.1136 -0.2861 -0.0956
82027W        W19521  30.337  11.299  19.555  0.4011  0.1293 -0.1064
82028W        W19522  18.027  25.733   4.000 -0.1769  0.1022 -0.1877
82029W        W19523  13.763   9.840   8.317  0.2730  0.0315  0.0730
82030W        W19524  34.699  18.729   0.242  0.1916 -0.1380  0.0325
82031W        W19525  22.208  21.572  18.977  0.0884  0.1524 -0.3721
82032W        W19526  22.571   1.200  15.762 -0.1797 -0.3706  0.0075
82033W        W19527  14.009  20.479  11.995  0.5147  0.2383  0.1181
82034W        W19528  32.740  32.346   6.111  0.0311 -0.0592 -0.1777
82035W        W19529   0.139   5.770  22.218  0.0825  0.2440  0.1214
82036W        W19530   8.789  24.638  24.379 -0.0409 -0.5560 -0.4931
82037W        W19531  18.988  33.620  21.998  0.2282 -0.3301 -0.1228
82038W        W19532   7.177  15.160  24.249  0.2331  0.0819 -0.3314
82039W        W19533  16.687   1.695  19.563 -0.3010  0.1953  0.0636
82040W        W19534   6.965   3.861   2.601 -0.3747  0.3301 -0.0151
82041W        W19535   0.991  21.546  16.619 -0.2412 -0.1491  0.3820
82042W        W19536  15.822   6.862  10.663  0.1211 -0.2958  0.0509
82043W        W19537   6.454  19.886   0.201 -0.1039 -0.1794 -0.4853
82044W        W19538  31.962   9.931  20.457 -0.1004 -0.3139 -0.2791
82045W        W19539   9.365  31.203  11.477  0.0630 -0.3123  0.0643
82046W        W19540   1.110  30.488  23.133 -0.1769  0.1193  0.1423
82047W        W19541   7.634  19.793   1.748  0.0259 -0.0659  0.0258
82048W        W19542  31.688  24.356  18.984 -0.1006 -0.0319 -0.1536
82049W        W19543  17.994  13.054   0.700  0.0469 -0.0856 -0.2130
82050W        W19544  11.645  25.010  18.003  0.1372  0.1875 -0.1057
82051W        W19545  32.906  10.827  24.352  0.1878 -0.0232 -0.0888
82052W        W19546  13.776  12.228  19.830 -0.0015 -0.1262  0.1854
82053W        W19547  32.106   6.467   1.487  0.2237 -0.3878  0.1706
82054W        W19548  24.234  17.301   7.753 -0.0695  0.1669  0.1236
82055W        W19549  25.072  19.727  17.332  0.2382 -0.0514  0.0072
82056W        W19550   8.340  33.825  13.347  0.0719  0.1547 -0.0619
82057W        W19551   8.091  21.634  22.784  0.0261  0.1014 -0.1215
82058W        W19552  21.468   7.604   0.185 -0.0593 -0.0751  0.2374
82059W        W19553  21.777   6.891  19.680  0.0727 -0.0091  0.0468
82060W        W19554  29.636  20.657  14.921  0.0240 -0.0245 -0.2439
82061W        W19555   0.424   0.172   1.301  0.0782 -0.3527 -0.2999
82062W        W19556  15.112   8.501   7.077  0.2773  0.0712 -0.1336
82063W        W19557  16.331  10.053   6.334 -0.0564 -0.0642  0.1875
82064W        W19558  34.458  35.111  16.881 -0.0074  0.3190 -0.0671
82065W        W19559  30.162  21.258  16.868  0.2559  0.0407  0.2476
82066W        W19560  30.690  16.975  15.297  0.1895 -0.3141 -0.0053
82067W        W19561  34.989  29.697   3.797  0.0130  0.0530  0.0724
82068W        W19562  32.860   8.432  17.788  0.3139 -0.1190 -0.2752
82069W        W19563  21.126  30.314   7.681 -0.3451  0.1965 -0.0634
82070W        W19564  19.901   6.306  21.586  0.1085  0.3219  0.1427
82071W        W19565  25.529  28.793  24.516 -0.0283  0.4388  0.0272
82072W        W19566  30.121  34.539  24.558 -0.1003  0.1242  0.0347
82073W        W19567   3.113  20.028  14.837  0.0729 -0.0334  0.1009
82074W        W19568   3.354  11.553   0.355 -0.2077 -0.1197  0.1009
82075W        W19569  13.835  22.782   9.627  0.0082  0.2529 -0.1200
82076W        W19570  21.362  28.728   2.737  0.1404  0.3235 -0.0015
82077W        W19571  29.539  10.632  25.496 -0.0183 -0.3777  0.1959
82078W        W19572  11.469  18.715   8.871 -0.1346  0.2568  0.1362
82079W        W19573  30.226  34.627   3.651 -0.0513  0.1067 -0.0332
82080W        W19574   5.081   7.415   0.772  0.0636 -0.3563 -0.0376
82081W        W19575  34.847  17.205  11.084  0.0481  0.1870  0.2148
82082W        W19576  19.271  27.575  20.196 -0.0098 -0.4500 -0.0785
82083W        W19577  11.860  10.873  19.935 -0.2169 -0.0382 -0.0650
82084W        W19578   8.800  25.159  15.071  0.1915 -0.0688 -0.0210
82085W        W19579   6.235   7.272  25.437 -0.3133 -0.2605 -0.0847
82086W        W19580  27.350  28.527  19.616 -0.2281  0.2847  0.0851
82087W        W19581   8.089   4.881  20.990 -0.2167  0.1616  0.1552
82088W        W19582  31.178   1.983  16.305 -0.2287 -0.3036  0.0705
82089W        W19583   2.355  26.493  19.391  0.0804  0.0109  0.0803
82090W        W19584  30.887   8.208  14.362 -0.0036  0.1134 -0.0534
82091W        W19585  20.662  17.428  22.220 -0.0996  0.1336  0.1741
82092W        W19586   6.168   1.902  20.858  0.2670 -0.2237  0.1404
82093W        W19587  26.984  31.960  14.851 -0.4608 -0.0323  0.3731
82094W        W19588  32.640  34.836   0.460 -0.3264 -0.2182  0.1796
82095W        W19589  28.874   1.708  21.701 -0.2912  0.3588  0.3368
82096W        W19590  13.625  24.407   2.131 -0.1212 -0.0858  0.2771
82097W        W19591  30.480  21.556  16.076 -0.0186  0.2520 -0.0357
82098W        W19592  33.906   2.261  24.071  0.0005  0.0659 -0.1091
82099W        W19593  30.816  20.180  21.185 -0.3546  0.0524  0.1896
82100W        W19594  28.862   7.255  24.490  0.0097 -0.2845  0.0252
82101W        W19595  28.949   4.532  11.132 -0.1991 -0.2395  0.1077
82102W        W19596  20.702  20.703  18.728 -0.1094 -0.1293  0.0963
82103W        W19597   7.132  26.736  14.127 -0.0932  0.3236 -0.0181
82104W        W19598   4.940  25.027   9.583 -0.1634 -0.0812  0.1644
82105W        W19599  19.989   0.018   5.291  0.0706  0.0918 -0.0688
82106W        W19600  26.756  12.507   0.454 -0.0219  0.1479 -0.1618
82107W        W19601   0.653  34.512  17.160 -0.0324 -0.0384  0.1623
82108W        W19602  32.451   6.453  15.231 -0.1682 -0.1450 -0.1969
82109W        W19603  32.464  33.538  18.573 -0.1340 -0.0308  0.1655
82110W        W19604  18.391   4.932  10.964  0.2766 -0.2722 -0.1865
82111W        W19605  20.529  25.092  23.545  0.1759  0.1760  0.0127
82112W        W19606  12.509  15.462  25.191  0.0054  0.1227  0.1329
82113W        W19607  22.128   3.781   5.359 -0.1360  0.0458 -0.0267
82114W        W19608  10.697   9.643  21.758  0.0614  0.0373 -0.0726
82115W        W19609  19.023   1.809   8.339 -0.1431 -0.2675 -0.1886
82116W        W19610  32.347  16.722  22.736  0.1071  0.1753  0.1357
82117W        W19611  33.892  26.945  12.205 -0.1642  0.3151  0.0273
82118W        W19612  34.690  29.995  16.370 -0.0605  0.1453 -0.0812
82119W        W19613   6.431   6.676   2.767  0.3503  0.0126 -0.1603
82120W        W19614   2.481  18.507  13.749  0.1564 -0.2933  0.1313
82121W        W19615  10.177  22.330   4.797  0.3198  0.1325 -0.2127
82122W        W19616  23.675  14.778  16.472 -0.0392 -0.2086  0.0390
82123W        W19617   9.711  29.864  22.044  0.0908 -0.2027  0.1842
82124W        W19618  33.889   4.812  15.028  0.0978 -0.3652  0.0575
82125W        W19619  34.031   5.219  11.833 -0.1759  0.0499 -0.1363
82126W        W19620  30.298  11.130  23.982  0.0393  0.0195  0.0701
82127W        W19621  16.794   5.396  24.457  0.0126 -0.0990  0.1499
82128W        W19622  30.053  26.968  16.947  0.2406  0.1481 -0.2980
82129W        W19623  29.656  33.472  25.835 -0.5425 -0.0509 -0.1683
82130W        W19624  21.471  24.690   3.664 -0.1578 -0.0263  0.2255
82131W        W19625  10.575  16.977   2.844 -0.1078  0.0718 -0.1402
82132W        W19626  18.804  29.835  16.805  0.1048 -0.2562  0.0376
82133W        W19627  20.106  26.552   2.907  0.0797  0.2283  0.1059
82134W        W19628   3.970   2.059  21.334 -0.1423  0.0490  0.1243
82135W        W19629   8.536   6.685  23.389 -0.0002 -0.0193 -0.2686
82136W        W19630   6.982   8.392  18.191 -0.0881 -0.0440  0.0044
82137W        W19631  16.672   3.052  22.986  0.1186  0.0208  0.2399
82138W        W19632  28.170   1.269  15.824 -0.0586  0.0988 -0.0169
82139W        W19633  22.540  25.858  16.813 -0.1404 -0.0451  0.0893
82140W        W19634  21.631  14.140  17.977 -0.1489 -0.1644 -0.2981
82141W        W19635  24.288  29.984   3.336 -0.1378 -0.2515  0.0521
82142W        W19636  24.892  24.344  16.560  0.2064 -0.0156  0.1208
82143W        W19637   1.784   6.991  17.789 -0.2043  0.0592 -0.2026
82144W        W19638  11.943  25.879  25.673  0.0672  0.0907 -0.1029
82145W        W19639  29.338  32.487  12.085  0.0025  0.1491  0.0757
82146W        W19640  29.917  23.675  16.480  0.2004 -0.1456  0.1138
82147W        W19641  21.437  18.446  20.947  0.1591 -0.0424 -0.0414
82148W        W19642  18.570  33.092   6.107 -0.1316 -0.3867  0.0592
82149W        W19643   8.601  33.288   2.702 -0.1053  0.2297  0.1390
82150W        W19644  21.912  25.441  16.618 -0.0402  0.2741 -0.0518
82151W        W19645  33.542   3.966  18.572 -0.0048 -0.2063 -0.2652
82152W        W19646  34.065   2.627  21.552 -0.1075 -0.1080  0.2404
82153W        W19647  11.658  12.252   7.965 -0.1722 -0.0256  0.2354
82154W        W19648  29.416  15.625   6.132  0.0253  0.1311  0.2327
82155W        W19649   6.051  25.768   5.964 -0.1653  0.1644 -0.0400
82156W        W19650  16.644  14.700  11.994  0.0949  0.2491 -0.3055
82157W        W19651   3.049   4.708  21.549 -0.1112 -0.0994  0.2280
82158W        W19652  32.065  29.967   2.881  0.0723 -0.0364  0.3395
82159W        W19653  30.192  19.258  10.303 -0.2575 -0.1771 -0.3202
82160W        W19654   4.463  29.082   7.213  0.1526 -0.2584 -0.4019
82161W        W19655  16.670   3.455  11.105 -0.1842 -0.1965  0.0753
82162W        W19656   3.234  25.066  22.479  0.3590  0.1051  0.1591
82163W        W19657  24.228   5.843  24.262 -0.2824  0.0095  0.0735
82164W        W19658  14.522  12.651  26.174 -0.1013 -0.2116 -0.1861
82165W        W19659  28.192   4.178  16.595  0.2384 -0.0724 -0.2761
82166W        W19660  33.776  14.319  17.572  0.0896  0.1951  0.1903
82167W        W19661   2.435  27.721  20.115 -0.1803 -0.1213 -0.1639
82168W        W19662  25.931  23.271  14.845 -0.0985  0.1054  0.1390
82169W        W19663  23.881  23.789  24.755 -0.1227 -0.1746  0.1268
82170W        W19664  26.903   4.159   4.099 -0.1134 -0.0672  0.0794
82171W        W19665  24.580  29.501  12.221 -0.0764 -0.0464 -0.1509
82172W        W19666  20.461  23.610  23.302  0.1960 -0.2132  0.0834
82173W        W19667   3.236   6.442   3.606 -0.0262 -0.0699 -0.0035
82174W        W19668  22.717  10.728  24.200  0.0093 -0.2376  0.5581
82175W        W19669  34.925  23.403  14.182 -0.0227  0.0768 -0.3152
82176W        W19670  31.852  12.419   0.273  0.2145 -0.1344  0.0280
82177W        W19671  11.613  16.023   8.069  0.4911  0.2432  0.1345
82178W        W19672  31.318   2.494  18.003 -0.2651  0.0281  0.1488
82179W        W19673   2.873  21.911  16.748  0.0325 -0.0933 -0.0466
82180W        W19674  26.082   3.185  11.184 -0.2432 -0.0829 -0.1389
82181W        W19675  32.910  28.449  16.561 -0.0650  0.2598 -0.1270
82182W        W19676  14.926  18.391  21.266 -0.0512 -0.0446  0.0015
82183W        W19677   3.598  29.457  26.140 -0.1960 -0.0931  0.0628
82184W        W19678   6.737  32.973  13.045  0.1490 -0.2831  0.0541
82185W        W19679  31.408   7.292  13.256 -0.0095 -0.4655  0.0528
82186W        W19680   1.373  25.533  25.481  0.4170 -0.0400  0.0581
82187W        W19681  10.054  35.201  25.945 -0.1626  0.2208  0.1543
82188W        W19682  14.344  30.382   0.651  0.3337  0.3962 -0.5073
82189W        W19683   7.790  34.327  12.650 -0.3195  0.1477 -0.3428
82190W        W19684   1.276   0.502  23.207 -0.3582 -0.2533  0.1150
82191W        W19685  32.562  33.269  22.238  0.2252  0.1855 -0.0120
82192W        W19686  10.466   8.907   0.939  0.1514 -0.0928 -0.1737
82193W        W19687  20.295   3.962  20.132  0.3878 -0.1206 -0.1661
82194W        W19688  33.287  22.177  10.348 -0.0972 -0.0582  0.0682
82195W        W19689  26.084   8.420   1.461 -0.1279  0.1603  0.1696
82196W        W19690  26.610  21.440  18.378  0.1603 -0.1484 -0.1949
82197W        W19691  32.814  28.707   5.874  0.4055  0.2458  0.1609
82198W        W19692  11.933  18.587   0.385  0.0128 -0.1822  0.4479
82199W        W19693  33.412  35.114  14.756 -0.0106 -0.0148 -0.1225
82200W        W19694  23.018  21.626   0.216 -0.3841 -0.2708 -0.3789
82201W        W19695  31.120   0.710  17.108 -0.1884 -0.0280  0.2664
82202W        W19696   1.631   2.030   7.476 -0.1684 -0.1523 -0.0835
82203W        W19697  12.356  28.609  11.270  0.0127  0.0262 -0.1187
82204W        W19698   4.831   0.081  12.392  0.1430  0.0083  0.2151
82205W        W19699   1.991   0.688   2.880  0.1946  0.0122  0.2314
82206W        W19700  30.110  26.060  24.253 -0.2386 -0.0751  0.1604
82207W        W19701   8.709   1.332   9.391 -0.0901  0.3361  0.2728
82208W        W19702  32.001  32.003  21.135  0.1030 -0.1652 -0.1558
82209W        W19703  10.353  32.167  10.788 -0.2485  0.0794  0.3154
82210W        W19704   0.809  11.697  23.670 -0.1791 -0.1998 -0.1742
82211W        W19705  14.458   8.325  24.946 -0.0421  0.3240  0.0252
82212W        W19706  30.354  19.900  16.054 -0.2996  0.0534  0.3934
82213W        W19707  22.701  28.358  17.918  0.0374  0.1298  0.2315
82214W        W19708  10.059  24.884   8.969 -0.2825  0.1041 -0.4078
82215W        W19709   8.514  14.946   2.416 -0.1310 -0.1238 -0.2513
82216W        W19710   5.584  24.653   8.171 -0.1018  0.1421 -0.1864
82217W        W19711  30.835  27.186  21.809  0.0655 -0.0481  0.1470
82218W        W19712  17.704  24.282  26.002  0.3299 -0.1013  0.2690
82219W        W19713  32.646  28.799  13.879 -0.0505  0.2587  0.1515
82220W        W19714   1.538   2.459   2.545  0.0819 -0.2018 -0.1897
82221W        W19715  25.410   7.478  22.109  0.0444  0.0893  0.1995
82222W        W19716   5.056  21.985  19.542 -0.0096 -0.3190 -0.1306
82223W        W19717  18.849  25.396  20.359  0.0393 -0.0055 -0.1361
82224W        W19718   3.927  25.478   9.236 -0.0021 -0.1972 -0.2884
82225W        W19719  24.544  14.343  18.384  0.0551  0.1078 -0.0356
82226W        W19720   4.687   5.488   0.122  0.1395 -0.0261 -0.3031
82227W        W19721  17.559  34.271  17.203  0.1266  0.1290  0.1102
82228W        W19722  16.549  19.645   8.111  0.2488  0.2320  0.0950
82229W        W19723  23.643  10.926  21.641 -0.1201 -0.1362 -0.0468
82230W        W19724  20.400  18.301   2.243  0.0621 -0.0569 -0.3146
82231W        W19725   0.207  19.777  14.177 -0.0820  0.1442  0.3323
82232W        W19726   0.934  28.954  25.437  0.1694 -0.3937 -0.1738
82233W        W19727  34.543  18.945  16.661 -0.2500 -0.2125  0.0413
82234W        W19728  17.934  32.272   6.036 -0.2795  0.1197  0.1371
82235W        W19729   3.703  32.253  12.053 -0.3391 -0.1982  0.2028
82236W        W19730  22.638  32.303  12.882 -0.0744 -0.0353 -0.1861
82237W        W19731   5.582   2.054  19.860 -0.0404 -0.1104 -0.0329
82238W        W19732   3.692  24.904   2.783 -0.0307  0.0438 -0.0306
82239W        W19733   3.457  32.256  23.026  0.0185  0.1040  0.0715
82240W        W19734  32.774  16.322   9.892 -0.1514 -0.2676 -0.1924
82241W        W19735  15.215  12.406   1.041  0.2138  0.0020  0.3488
82242W        W19736  17.986  21.535   2.446 -0.0241  0.2641  0.0966
82243W        W19737  14.874   3.168  23.862  0.0318 -0.0367  0.1196
82244W        W19738   1.594  24.807   0.500 -0.2104 -0.0614 -0.0214
82245W        W19739   7.293  13.856   3.248  0.0044  0.0722 -0.2932
82246W        W19740  29.488  30.192  24.902 -0.1319 -0.1337 -0.0869
82247W        W19741  11.422  34.592  11.428  0.1589  0.3868 -0.2083
82248W        W19742  23.281   0.456  13.177 -0.1538 -0.3595 -0.0864
82249W        W19743   9.152  29.916  15.809 -0.1876  0.1637 -0.0857
82250W        W19744  23.932  11.035   0.850  0.0538 -0.1064 -0.0818
82251W        W19745   8.229   4.156  19.863  0.1517 -0.1459  0.2840
82252W        W19746  32.254  31.106  13.916 -0.0637 -0.0955  0.0231
82253W        W19747  34.931   5.321   2.774 -0.1548 -0.3190 -0.2011
82254W        W19748  30.235  29.287   0.364 -0.0659 -0.0116 -0.1001
82255W        W19749  21.675   0.735  26.035 -0.0050  0.0480 -0.1506
82256W        W19750   8.969   2.535   2.671 -0.0604 -0.0280 -0.2176
82257W        W19751  14.310  10.340   3.586  0.0496 -0.0546 -0.3126
82258W        W19752   6.541   3.854  24.611  0.1136 -0.2143 -0.0185
82259W        W19753   2.412   2.469  20.214  0.0941 -0.2062  0.0053
82260W        W19754  21.516  29.138  24.387 -0.0041  0.3104 -0.0326
82261W        W19755  18.227  12.766  17.354 -0.0313  0.2591  0.0209
82262W        W19756  10.068   0.182   1.594 -0.0117 -0.1610  0.2568
82263W        W19757  26.545  28.734  23.198  0.0495 -0.0788 -0.1234
82264W        W19758  16.870   8.692   6.544 -0.1932 -0.1212  0.1164
82265W        W19759  33.984   0.861  21.785 -0.1092  0.2467  0.0784
82266W        W19760   9.018  13.630   3.115  0.0146  0.3938  0.0189
82267W        W19761  16.333  15.789  10.768  0.3099 -0.1478 -0.1913
82268W        W19762  29.068  29.590   0.868  0.0608 -0.0054  0.0982
82269W        W19763  17.221   9.729   8.713  0.0625 -0.1436  0.1021
82270W        W19764  30.640   0.763  16.797 -0.1306 -0.0500 -0.0505
82271W        W19765  19.423  34.137  22.487 -0.0508 -0.0396 -0.1588
82272W        W19766   7.825  10.946  23.622 -0.1957 -0.0103 -0.2245
82273W        W19767  27.698   9.249  24.372  0.0113  0.1742 -0.1640
82274W        W19768  23.908   1.134  11.600  0.0758  0.0011  0.2216
82275W        W19769   5.960   3.647  19.985  0.1017  0.2499 -0.1044
82276W        W19770  10.172   0.200  10.811  0.1136 -0.0295  0.2289
82277W        W19771  14.116  25.984  12.444  0.2715 -0.3876  0.2212
82278W        W19772   5.588  13.252   9.218 -0.0610  0.1157 -0.3802
82279W        W19773  31.044  32.867   3.300  0.2060 -0.1060  0.1116
82280W        W19774  13.437   7.842  12.897  0.2110  0.1054 -0.0517
82281W        W19775  12.038  33.240  21.419  0.2237  0.1548  0.3869
82282W        W19776  30.148   8.604  23.129 -0.2113  0.0447  0.2918
82283W        W19777  18.539   7.963  21.641 -0.0943 -0.2492  0.0531
82284W        W19778  17.242   0.296   7.651 -0.0438  0.0092  0.0146
82285W        W19779   9.320  34.631   7.535 -0.0200  0.0391 -0.1000
82286W        W19780  29.912  24.018  11.789 -0.3712 -0.1848 -0.0244
82287W        W19781   8.225  10.450   1.986 -0.1466 -0.0546  0.0124
82288W        W19782   6.302  12.676   3.201 -0.0703  0.1111  0.1243
82289W        W19783   4.456  32.912   3.956  0.2234 -0.1640  0.2148
82290W        W19784  15.004  25.797  25.225  0.1533  0.0495 -0.0284
82291W        W19785  31.672   4.727   5.209  0.1731 -0.3597  0.0222
82292W        W19786   3.359  13.177   1.375  0.2806 -0.4171 -0.1801
82293W        W19787  27.381  25.567  21.069 -0.0457  0.1967  0.1533
82294W        W19788  26.850  26.262  14.241 -0.1273  0.1759  0.0616
82295W        W19789   3.088  24.489   3.187 -0.3163 -0.0948  0.1261
82296W        W19790  22.254  15.662  19.135 -0.0997  0.1956  0.2654
82297W        W19791  34.493  22.186  25.314  0.2211 -0.2944 -0.1889
82298W        W19792  24.933   3.134  21.058  0.1732 -0.0024  0.4200
82299W        W19793  10.582  19.899  23.932  0.0737  0.1499 -0.3595
82300W        W19794  28.136  32.534  26.013 -0.2223 -0.0312 -0.3102
82301W        W19795  32.339  11.708  13.759 -0.1280  0.4716 -0.0324
82302W        W19796   3.183  12.636  20.577  0.1282 -0.0346  0.0623
82303W        W19797  27.301  28.302  20.282  0.0514 -0.1446 -0.0571
82304W        W19798   5.867   6.793   8.889  0.2761  0.0624 -0.0270
82305W        W19799  10.470   7.496   8.031 -0.2295 -0.1297 -0.0619
82306W        W19800  17.293  19.081  20.769 -0.1052  0.3637 -0.1112
82307W        W19801  31.967   2.965  15.582 -0.4620 -0.0751  0.2049
82308W        W19802  15.291  26.475  25.113 -0.4335  0.1127 -0.0329
82309W        W19803  10.827  30.673   6.185  0.0454  0.0885  0.0251
82310W        W19804  17.562   4.796  21.482 -0.4763 -0.0834 -0.3331
82311W        W19805  32.664  12.559   0.271  0.2795 -0.0383  0.0759
82312W        W19806   9.945  33.403  11.516 -0.1338  0.2218 -0.3755
82313W        W19807  17.747  27.565  24.304 -0.2974 -0.2101  0.0864
82314W        W19808   6.507   8.393   7.125 -0.2698 -0.0592  0.1019
82315W        W19809  32.479  10.741  10.764 -0.2441 -0.0483  0.2166
82316W        W19810  32.946  25.396  18.414 -0.1649  0.1128 -0.0853
82317W        W19811  20.796  31.019   3.669 -0.1960 -0.0916  0.2516
82318W        W19812   5.508  34.084   1.246 -0.0372 -0.1090 -0.4314
82319W        W19813  35.021   4.621   2.336  0.0755  0.0134  0.1059
82320W        W19814  10.673   0.400   8.970  0.0995 -0.0561  0.0347
82321W        W19815  15.950  30.259  22.307  0.3945 -0.0617  0.1499
82322W        W19816  13.488  10.112  12.139 -0.1685 -0.1170  0.2387
82323W        W19817  28.243  24.586  12.287 -0.1500  0.0239  0.0605
82324W        W19818  12.606  30.447  14.903 -0.0602 -0.1254 -0.2805
82325W        W19819  18.651  24.413  20.647 -0.0390  0.3459 -0.0093
82326W        W19820   5.686  30.199  13.224 -0.1831  0.1250 -0.1709
82327W        W19821  21.451   6.189  17.034  0.2083 -0.1495 -0.0790
82328W        W19822  10.146   8.827   1.703 -0.1733  0.2238 -0.2669
82329W        W19823  30.259  16.753   5.904  0.0842  0.1603 -0.2289
82330W        W19824   8.378  19.071   4.664  0.0273 -0.3746  0.1521
82331W        W19825  34.092  33.462  26.172  0.1792 -0.1038  0.3385
82332W        W19826  14.525  28.311  14.345  0.1790 -0.2152 -0.1202
82333W        W19827  23.052   2.506  14.426 -0.2090 -0.2876 -0.1181
82334W        W19828  10.793   0.547   7.908  0.2546  0.3574 -0.1128
82335W        W19829  17.701   2.906  23.211  0.2969  0.0539 -0.0269
82336W        W19830  28.574   4.620   3.798 -0.4072 -0.0245 -0.0995
82337W        W19831   2.695  32.988  23.973 -0.0439  0.0189  0.0715
82338W        W19832  14.480  14.569   7.486 -0.1295  0.0257  0.0256
82339W        W19833  13.532  22.986   6.413  0.0142  0.2462 -0.1610
82340W        W19834  25.035  20.425  19.010  0.0054 -0.1124 -0.0089
82341W        W19835  15.250  17.490   9.786  0.1148  0.0587  0.0238
82342W        W19836   2.655   5.821  19.741  0.2572  0.3162  0.0881
82343W        W19837   5.706   9.891   6.275 -0.0358 -0.1473  0.0431
82344W        W19838   4.560  18.924  19.330  0.1111  0.0056 -0.1237
82345W        W19839  10.805  16.380  12.067  0.3231 -0.1477 -0.2456
82346W        W19840  19.658   6.191   2.779 -0.1068 -0.0513 -0.2178
82347W        W19841  17.898  16.058  20.027 -0.0438 -0.0533  0.2197
82348W        W19842   4.150  33.801  19.484  0.2989 -0.1702 -0.2700
82349W        W19843  10.404   3.838   3.319  0.1950 -0.2194  0.1386
82350W        W19844  11.704  22.716   2.212  0.2658 -0.3052 -0.0766
82351W        W19845  21.074  22.789  19.062 -0.1927  0.0826 -0.0746
82352W        W19846  29.888   2.267   5.731 -0.3682  0.0267  0.2758
82353W        W19847  29.048  26.976  17.803  0.2396  0.2393 -0.0524
82354W        W19848  17.006   8.788   9.266 -0.0990  0.1676 -0.3995
82355W        W19849   6.709  28.241  24.426 -0.1396  0.1169 -0.0317
82356W        W19850   9.228  34.977  22.368 -0.1691 -0.1332  0.0071
82357W        W19851   0.114   8.817  22.532 -0.1088  0.1072  0.2420
82358W        W19852   9.900   1.858  25.638  0.0965  0.1346 -0.0779
82359W        W19853  14.055   7.898  12.149 -0.4130 -0.0014 -0.0314
82360W        W19854  26.076  33.817  19.901  0.1506  0.3691 -0.1501
82361W        W19855  20.876  28.742   6.803 -0.1130  0.3803  0.0842
82362W        W19856  32.699  16.798   7.537  0.2602 -0.0670 -0.0686
82363W        W19857  27.746   7.390  22.799 -0.3371 -0.1281 -0.3848
82364W        W19858  11.473  33.432  10.581  0.0858  0.0922 -0.0141
82365W        W19859   0.063   7.134  24.790 -0.0607 -0.1264 -0.0792
82366W        W19860  31.058   6.881  17.920  0.1919  0.0561  0.2489
82367W        W19861  22.941  19.767  25.060  0.2897 -0.0067 -0.1069
82368W        W19862  15.950   0.371  24.943 -0.0166 -0.2339  0.2237
82369W        W19863  15.114  25.164  24.428 -0.1408  0.1860 -0.0145
82370W        W19864   1.752  32.705  16.475 -0.2423 -0.0735  0.0418
82371W        W19865  23.962  27.093  14.405  0.0757 -0.1121  0.1842
82372W        W19866  14.672  20.163   6.230  0.0663  0.0893 -0.1164
82373W        W19867  10.906  23.555  23.808  0.2826  0.1298 -0.0739
82374W        W19868  12.921   6.047   4.921  0.0747  0.0595  0.0666
82375W        W19869  28.324   1.397   2.249 -0.2465 -0.0151  0.3006
82376W        W19870   8.056  10.049  10.310 -0.0242 -0.1899  0.1914
82377W        W19871  18.993  15.023   4.224 -0.3330 -0.2544  0.0213
82378W        W19872  18.669  24.183   9.150 -0.1907 -0.2068 -0.0634
82379W        W19873  25.352  29.948   3.179 -0.1521  0.1456  0.3945
82380W        W19874  26.150   1.355  14.328  0.2387 -0.0381 -0.0099
82381W        W19875  25.141  31.602   3.760 -0.1299  0.2958  0.5188
82382W        W19876   0.437   4.006   0.205  0.4607  0.2534 -0.1503
82383W        W19877  31.591  28.135  15.419  0.4070  0.4487 -0.0397
82384W        W19878  17.082  12.665  18.937  0.0473 -0.3450  0.2172
82385W        W19879  11.569  11.000   0.876  0.1939 -0.0457 -0.3551
82386W        W19880  30.446  33.077  12.345  0.1370 -0.1157 -0.1056
82387W        W19881  28.862  20.423   5.421 -0.2862  0.0381  0.0293
82388W        W19882   3.467  17.719   3.753  0.2169  0.2685 -0.0020
82389W        W19883   5.120  27.792   9.359 -0.2755  0.0154  0.1699
82390W        W19884  34.130  20.650  25.233  0.2193 -0.3344  0.3030
82391W        W19885  16.107  12.823  20.549 -0.0467  0.0280 -0.2712
82392W        W19886  14.050  18.915   5.173  0.3085 -0.1224  0.1070
82393W        W19887  33.716  12.623  23.528  0.0265  0.1515  0.2515
82394W        W19888  14.951   2.167  22.533  0.0235  0.1529  0.0089
82395W        W19889  32.454  22.262   6.887  0.3560 -0.1196  0.0089
82396W        W19890   8.098  33.013  10.362 -0.3308 -0.4896 -0.2057
82397W        W19891  26.065  33.518  24.604 -0.0149 -0.4208 -0.0567
82398W        W19892  25.901  10.661  22.017  0.1146 -0.2547  0.0198
82399W        W19893  15.987  11.092  25.630  0.0493 -0.0503 -0.0071
82400W        W19894  32.239   6.767  20.489 -0.1180  0.1215 -0.0861
82401W        W19895  13.412  23.640   6.391 -0.0616 -0.0548 -0.3438
82402W        W19896  22.727  34.649  16.294 -0.3230 -0.1407 -0.1452
82403W        W19897  29.911   8.403  18.024 -0.0179 -0.0952 -0.1329
82404W        W19898   9.994  12.650  13.499 -0.0505 -0.1144 -0.0359
82405W        W19899   8.496  30.806  12.508 -0.0796 -0.0092  0.1106
82406W        W19900  14.456   7.643  21.493  0.2543  0.2227 -0.0227
82407W        W19901  14.492  18.412  23.407  0.0257 -0.0674 -0.1375
82408W        W19902  22.306  21.367  19.554  0.0362 -0.1139  0.1924
82409W        W19903  28.785   0.788  14.048 -0.2780  0.1589 -0.1228
82410W        W19904  18.061  12.888  24.677  0.0347 -0.1186 -0.0355
82411W        W19905   8.251  12.257  10.430  0.2915 -0.1623 -0.0846
82412W        W19906   4.248  23.477  23.697  0.0781 -0.1434  0.2676
82413W        W19907  15.008   0.992   7.355  0.1770 -0.2084 -0.1338
82414W        W19908  16.314  32.658  22.106 -0.4718 -0.0860 -0.2185
82415W        W19909   6.604  26.005  11.823 -0.2261 -0.1818 -0.1146
82416W        W19910  18.753  28.801   6.239  0.4207  0.3399  0.0935
82417W        W19911   3.966  28.560   4.230 -0.0737 -0.3091 -0.2554
82418W        W19912  22.542  30.655   3.775  0.1624 -0.0065 -0.0673
82419W        W19913   9.391   1.988  15.049  0.1440 -0.3174 -0.1271
82420W        W19914  13.609  34.622   3.573  0.0473  0.3026  0.3565
82421W        W19915  32.670   3.410  16.711  0.0773 -0.0643 -0.1012
82422W        W19916   2.654  34.404  23.954  0.2474 -0.1625 -0.2350
82423W        W19917  28.525  31.335  25.486 -0.0220 -0.1462 -0.1737
82424W        W19918  12.311  12.012   2.810  0.0928 -0.1769 -0.0627
82425W        W19919  32.312  18.560  14.700 -0.0028 -0.2160 -0.0818
82426W        W19920  27.311   8.467  14.515  0.0573  0.0540  0.0631
82427W        W19921   8.175  34.908   6.873  0.1460  0.0555  0.1316
82428W        W19922   8.574  24.998   3.254  0.2943 -0.1095 -0.2733
82429W        W19923   2.429  12.302  20.925 -0.3097 -0.1760 -0.1634
82430W        W19924  32.401   6.963  16.018  0.1649 -0.1214  0.0732
82431W        W19925  35.296  12.374  18.589 -0.1013  0.1533  0.0953
82432W        W19926  20.227  30.417   1.322 -0.0782 -0.0370  0.2842
82433W        W19927   8.766   4.536  21.976  0.0266 -0.1339 -0.1095
82434W        W19928  13.606  21.792  16.440 -0.3458  0.0788  0.1024
82435W        W19929  27.994  28.100  23.637  0.1396 -0.1525  0.3457
82436W        W19930  30.730  31.216  12.552 -0.2514 -0.2014  0.0986
82437W        W19931  33.877   2.560   3.766 -0.4347  0.2963  0.1435
82438W        W19932  10.771  16.723  23.343  0.2392  0.1405  0.0333
82439W        W19933  31.571  18.583  10.999 -0.3493 -0.3600 -0.2731
82440W        W19934  28.291   5.433  19.197 -0.0110 -0.0795 -0.1523
82441W        W19935   6.064  32.823   8.486  0.1444 -0.0237 -0.3552
82442W        W19936  20.129   7.514   1.032  0.0490 -0.0022  0.0454
82443W        W19937  24.775  12.319  23.672  0.0299  0.0762  0.2093
82444W        W19938   7.381   6.425   1.095 -0.1692  0.0167  0.1108
82445W        W19939  25.172  28.375  25.400 -0.2225 -0.1161 -0.0839
82446W        W19940  31.744  26.156  24.669 -0.1474 -0.0491 -0.3647
82447W        W19941   2.954  28.616  11.783  0.1291 -0.1542  0.0277
82448W        W19942  17.066   9.486  22.690  0.4744  0.3198 -0.4402
82449W        W19943  20.711   6.676   8.266 -0.0689 -0.0917  0.0677
82450W        W19944  35.143  16.190   9.554 -0.2034 -0.0234 -0.0777
82451W        W19945  26.637   0.708  24.570 -0.1408  0.2422  0.4350
82452W        W19946  32.770  18.020  19.666  0.0957  0.0085 -0.2749
82453W        W19947   4.264   8.325   0.789  0.4214  0.2548 -0.0227
82454W        W19948  22.859  33.508  13.717 -0.1383  0.0137 -0.0620
82455W        W19949   8.925  15.501  19.478 -0.0582 -0.1955  0.5290
82456W        W19950   9.155  30.589  24.790  0.1954 -0.3792  0.1145
82457W        W19951  17.503   9.099   6.355  0.0476  0.0258  0.1594
82458W        W19952  27.486   3.645  23.749 -0.1592  0.1433  0.0612
82459W        W19953  23.037   8.402  24.615  0.0890  0.1689 -0.0409
82460W        W19954  11.478  27.912  23.690 -0.0276 -0.0697  0.0666
82461W        W19955  25.667   1.664   1.825  0.2060  0.3740  0.0895
82462W        W19956  24.967  13.255   9.629 -0.0748  0.2546  0.0716
82463W        W19957  29.657  25.767  10.838  0.1144 -0.3487  0.2448
82464W        W19958  14.404   2.865   1.224 -0.1195  0.3664  0.4161
82465W        W19959  34.044   6.894   1.330 -0.2487 -0.1471  0.3233
82466W        W19960  27.769  23.551  21.811 -0.1750 -0.1505  0.2428
82467W        W19961  13.652  32.292   1.638  0.3128  0.1848  0.0518
82468W        W19962  10.169   3.692   9.795 -0.4423  0.2900 -0.1298
82469W        W19963  16.349  17.390   3.017 -0.0238  0.0096  0.0721
82470W        W19964   5.502   8.894   5.488 -0.1249  0.2780 -0.0566
82471W        W19965   5.829   0.620   2.768 -0.0055 -0.0204  0.1078
82472W        W19966  17.000  33.201   7.073  0.1172 -0.0336 -0.2267
82473W        W19967  28.740  17.879  25.601 -0.2499  0.0901  0.0495
82474W        W19968   9.052  20.990  11.161  0.1944  0.1631 -0.1421
82475W        W19969  18.906  11.594  20.675 -0.1504 -0.0572 -0.0391
82476W        W19970  17.792  28.891  25.122 -0.2952 -0.0204  0.1982
82477W        W19971  13.247  10.829   6.444 -0.0687  0.1282 -0.0658
82478W        W19972  15.234  10.138  21.017 -0.2910  0.0813 -0.3078
82479W        W19973  12.070  18.069   3.683  0.0688  0.0258  0.1806
82480W        W19974   5.482  25.107   5.175 -0.3776  0.0644 -0.1124
82481W        W19975  18.383  22.125  19.338 -0.3042  0.1921  0.0458
82482W        W19976   6.212  33.808   6.838 -0.0605 -0.1280  0.0725
82483W        W19977  24.250  10.003  13.617  0.0837 -0.0117  0.2211
82484W        W19978  25.854   9.430  22.941  0.4009 -0.1030  0.0302
82485W        W19979  27.273  23.071  24.227 -0.2760  0.0009 -0.1320
82486W        W19980  19.765   0.838  19.065 -0.1067 -0.1061 -0.3028
82487W        W19981  34.838  33.542   5.003 -0.1035 -0.1463 -0.1866
82488W        W19982  34.178   5.618  24.458  0.0594  0.0631  0.0108
82489W        W19983  24.911  11.940  12.121  0.0219  0.0051  0.1103
82490W        W19984  33.007  25.101   0.804 -0.0755 -0.1269  0.0809
82491W        W19985  26.040  28.841  20.100 -0.1632  0.1409 -0.0363
82492W        W19986  13.597  12.428  22.094  0.3196  0.0092 -0.0692
82493W        W19987   4.588  33.732  12.810 -0.0658  0.0425  0.1290
82494W        W19988  18.431  22.632  10.799  0.0123  0.0649  0.1054
82495W        W19989  12.292   0.935  24.374  0.1785 -0.0681 -0.4287
82496W        W19990  30.289  23.901  23.858  0.0398 -0.0899 -0.1687
82497W        W19991  10.643  29.296   4.108 -0.0541  0.0862 -0.1498
82498W        W19992  25.769  25.247  23.676 -0.0339 -0.1389 -0.2056
82499W        W19993  14.053  15.614  13.198 -0.2921 -0.1126 -0.1181
82500W        W19994  11.127  10.025  24.111 -0.1081  0.4051 -0.0001
82501W        W19995  19.408   4.179   7.221 -0.1694 -0.0288  0.3203
82502W        W19996  33.309   7.330  22.462  0.4087 -0.3165  0.0296
82503W        W19997  21.057  21.053  20.310 -0.2257 -0.0458 -0.2880
82504W        W19998  11.357  28.443  16.846  0.1301 -0.0603 -0.3562
82505W        W19999  18.718  35.019  16.109 -0.1937 -0.1215 -0.3148
82506W        W20000   1.715  17.700  23.970 -0.0680  0.1193  0.1038
82507W        W20001  12.544   2.352  10.368  0.0055  0.1171 -0.1541
82508W        W20002  10.405  27.718   5.467  0.3824 -0.0092 -0.0554
82509W        W20003  12.678  30.140  13.690 -0.1827  0.1484 -0.2180
82510W        W20004  12.811   2.939  12.465 -0.0324  0.1491  0.1981
82511W        W20005  14.218   6.629   3.488  0.1901  0.0289  0.0700
82512W        W20006  14.249  19.057   8.276 -0.1570 -0.3431 -0.0685
82513W        W20007   8.265   6.608  10.481 -0.0641 -0.0980  0.0951
82514W        W20008   0.650  14.402  21.687 -0.0396 -0.1018 -0.0515
82515W        W20009  24.584   6.030  23.216  0.1276  0.2565 -0.1178
82516W        W20010  27.053  34.640  17.607 -0.1118 -0.0831 -0.2351
82517W        W20011  27.200  19.895  10.596  0.0646  0.1998  0.1481
82518W        W20012   8.650   0.319  14.110  0.4623  0.2786 -0.1996
82519W        W20013  23.970  13.589  21.445  0.2644 -0.1480 -0.0372
82520W        W20014   3.579  32.112  19.687 -0.0854 -0.1501  0.2047
82521W        W20015  28.273  13.822   8.115 -0.4172  0.3951 -0.0097
82522W        W20016  15.732   2.349  10.202 -0.0379 -0.1249 -0.0842
82523W        W20017  35.016  32.536   6.653  0.1045  0.1749 -0.0319
82524W        W20018  11.332   5.106   3.997 -0.0983 -0.1991 -0.0464
82525W        W20019   4.989  30.679  12.614 -0.1912  0.0904  0.2073
82526W        W20020   6.526   1.763  18.836  0.0705 -0.1671 -0.0442
82527W        W20021  11.589  11.934  25.325  0.1431  0.1104  0.1793
82528W        W20022   6.157  23.164   2.458 -0.0827  0.2659 -0.1775
82529W        W20023  22.012   6.366  22.549  0.0191 -0.0840 -0.1539
82530W        W20024   1.883   6.802   1.004 -0.1397  0.1513  0.2263
82531W        W20025   9.291  19.509  24.278 -0.0878 -0.1740  0.1474
82532W        W20026   2.539  18.654  20.298  0.2559  0.2112 -0.1355
82533W        W20027  10.051  20.132   4.132  0.1318 -0.1118  0.0766
82534W        W20028   3.810  26.203  25.093 -0.0015 -0.0533 -0.2841
82535W        W20029  18.581  32.331   7.642 -0.0103 -0.1854  0.2258
82536W        W20030  28.153  10.447  19.681  0.0777 -0.0147  0.3662
82537W        W20031  16.250  19.062  22.339 -0.2102  0.2062 -0.3351
82538W        W20032  27.840  27.732   8.814 -0.1386 -0.2649 -0.0822
82539W        W20033  29.425  19.102  10.854 -0.2285  0.1911  0.0916
82540W        W20034  19.620  15.904  21.292 -0.0953 -0.0518  0.1225
82541W        W20035  30.629  28.599  17.666 -0.1313 -0.1922 -0.0412
82542W        W20036  20.171   9.412  24.924 -0.0092 -0.0519 -0.0044
82543W        W20037  23.044  18.139  18.065  0.2167 -0.0699 -0.0829
82544W        W20038  23.239   8.363  14.358 -0.2576  0.0114  0.0300
82545W        W20039  26.930   0.859  25.076  0.1034  0.0373  0.0321
82546W        W20040  33.404  32.298   4.861  0.2797  0.1734  0.2007
82547W        W20041  31.481  29.330  24.658 -0.0689 -0.0150  0.0470
82548W        W20042  13.249  17.521   1.038 -0.0479  0.0513  0.1131
82549W        W20043  15.371   5.316   0.719 -0.1779 -0.1163  0.2382
82550W        W20044  11.510   4.450  20.833 -0.0778  0.1156 -0.1508
82551W        W20045  33.967   0.765   2.959  0.1877 -0.2739  0.2844
82552W        W20046   2.112  30.944   4.596 -0.1047  0.1837 -0.3163
82553W        W20047  28.988  25.386  12.018  0.2878  0.2049 -0.0657
82554W        W20048   2.844  12.065  25.683 -0.2418 -0.0252 -0.2781
82555W        W20049   5.851   1.431   7.314 -0.1798  0.1739  0.5137
82556W        W20050  33.494  11.374  22.261 -0.0349 -0.2650 -0.2526
82557W        W20051  21.640   2.342  20.275  0.0447  0.2489  0.1003
82558W        W20052  21.545  16.434  20.690  0.0168  0.0482 -0.0154
82559W        W20053  16.244  13.382   5.746 -0.1615 -0.1000 -0.0101
82560W        W20054  25.786  18.578  19.031  0.1391  0.1602  0.0181
82561W        W20055  31.433  20.206  20.808 -0.1636 -0.0268  0.0873
82562W        W20056  22.491  27.900  24.608 -0.2473 -0.2071  0.0196
82563W        W20057  17.893   2.361  25.687 -0.1000  0.1587  0.0049
82564W        W20058  12.352  11.107  25.972 -0.0659 -0.1266 -0.0141
82565W        W20059  28.102  10.557   9.923 -0.1669 -0.2579 -0.1585
82566W        W20060  24.313  30.121  18.213 -0.0248  0.1530  0.1100
82567W        W20061  24.990  23.619  17.958  0.2977 -0.2429 -0.0622
82568W        W20062  29.717  14.728  23.079 -0.0226  0.3463  0.1279
82569W        W20063  17.630  21.104   2.296  0.1702  0.0604  0.2533
82570W        W20064  20.286   1.358  18.801  0.3630 -0.1995 -0.0175
82571W        W20065  33.654  10.358  25.535 -0.1518  0.2068  0.1751
82572W        W20066  28.930  32.521   1.368  0.1439  0.3515  0.0349
82573W        W20067  23.212   5.118   5.501  0.2063 -0.1147 -0.1369
82574W        W20068  27.880  30.626  16.612 -0.2836  0.0094  0.2693
82575W        W20069  25.909  31.316   4.312  0.1258 -0.0428  0.0533
82576W        W20070  12.109  14.480   3.370 -0.1630 -0.2817  0.2428
82577W        W20071  17.873   1.870   8.970 -0.3081 -0.2921 -0.0590
82578W        W20072  30.120  14.137  17.733  0.1284 -0.0790  0.1515
82579W        W20073  24.238  34.231  21.754  0.2439  0.0828  0.0937
82580W        W20074  27.335  23.707  15.282  0.1194  0.0964  0.1057
82581W        W20075  29.849   5.644   4.280 -0.1899  0.1147  0.0219
82582W        W20076  34.299  16.789  24.320  0.1028 -0.0881  0.0918
82583W        W20077  27.562  32.248  15.766  0.3406  0.1143  0.0261
82584W        W20078  28.549  19.703  19.738 -0.0591  0.2258 -0.0323
82585W        W20079  16.366   5.881   1.023 -0.2495  0.2383 -0.0774
82586W        W20080   8.867   2.192  11.326 -0.2176 -0.0900  0.2728
82587W        W20081  17.254  33.056  21.550  0.0566  0.0956  0.4299
82588W        W20082   0.960   7.886  23.518  0.2740 -0.0430 -0.1878
82589W        W20083  26.142  18.193  19.168 -0.1576 -0.0965  0.0424
82590W        W20084  16.980  10.130   5.453  0.0641 -0.1451 -0.1943
82591W        W20085  20.193   1.650   2.447 -0.0807  0.3355  0.2229
82592W        W20086  10.700   0.906  10.244  0.1070 -0.2542  0.4106
82593W        W20087   7.946  12.732  19.825 -0.0955 -0.0592  0.0863
82594W        W20088  10.480  27.546  15.706 -0.2089 -0.1294  0.2254
82595W        W20089  17.799  12.124  25.858  0.0882 -0.0302  0.2842
82596W        W20090   1.275  19.822  25.296  0.2191  0.2469 -0.0248
82597W        W20091  30.049  32.410  12.862 -0.4271 -0.0948  0.3005
82598W        W20092  19.023  10.917  18.874  0.3985 -0.1414 -0.3980
82599W        W20093   9.292  24.611  16.976 -0.2414 -0.0288  0.3699
82600W        W20094  29.448   4.145   4.415 -0.2145  0.0481 -0.0856
82601W        W20095  10.499   0.990   8.179  0.0914  0.1298 -0.0253
82602W        W20096  14.688  25.101   7.365  0.0439  0.0753 -0.0485
82603W        W20097   0.734  12.705  25.176  0.1858  0.1194  0.1223
82604W        W20098  18.516  19.874   7.141 -0.0316  0.1608  0.0549
82605W        W20099   9.268   8.050  22.304 -0.0034 -0.3057  0.1027
82606W        W20100  33.683  19.393   7.373 -0.0214  0.1469 -0.4415
82607W        W20101  25.311  19.569  14.741  0.0396 -0.3250 -0.2819
82608W        W20102  17.324  10.383   4.500  0.1198 -0.2212 -0.1437
82609W        W20103  31.089  15.427   7.260 -0.2397 -0.3905  0.0884
82610W        W20104   3.538   3.523   3.572  0.4604 -0.1455 -0.2583
82611W        W20105   3.595  25.568   4.778  0.0871 -0.2430 -0.2456
82612W        W20106  18.640  23.401   5.807 -0.3435 -0.2728  0.1569
82613W        W20107  19.278   9.544   3.031 -0.0254  0.1644 -0.1281
82614W        W20108   9.857   2.637   2.622 -0.0664 -0.0716  0.1254
82615W        W20109  15.260  14.228   7.727 -0.0717  0.0025  0.0024
82616W        W20110   5.191   9.341  24.797  0.1282  0.0798 -0.0458
82617W        W20111   4.122  27.670   1.714  0.1984 -0.0060  0.1917
82618W        W20112  20.284  27.823  24.400  0.1154  0.0593  0.3990
82619W        W20113  16.385  31.707   6.898 -0.0893  0.0325 -0.2197
82620W        W20114  32.226   7.326  16.545 -0.0073  0.0404  0.0586
82621W        W20115   2.456   3.423  20.372 -0.0145 -0.1439  0.0433
82622W        W20116  33.226  16.841   9.117 -0.1148 -0.1635  0.0842
82623W        W20117  25.906  17.622  15.671 -0.0624  0.1477  0.0672
82624W        W20118   6.696  27.976  15.781  0.0116 -0.1742  0.1029
82625W        W20119   1.597   5.296  14.314  0.2621 -0.1283 -0.0361
82626W        W20120   5.863  12.689   5.453 -0.0746  0.0779 -0.0199
82627W        W20121  33.048  15.294  26.165  0.0289 -0.3932 -0.2052
82628W        W20122  16.411  11.503   4.388 -0.0798 -0.1453 -0.2586
82629W        W20123  26.590   5.383  20.834  0.1660  0.1239  0.3366
82630W        W20124  27.884  18.361  25.440  0.2930 -0.0275 -0.0619
82631W        W20125  10.545  13.424   3.204  0.2673  0.0860  0.2179
82632W        W20126   1.611   3.181   5.840 -0.0882 -0.2236 -0.4362
82633W        W20127  23.673   1.331   3.337  0.0634  0.2684 -0.1225
82634W        W20128  23.225  34.178   3.800  0.0253 -0.1340  0.1327
82635W        W20129  15.238  23.132  22.747 -0.1702 -0.0779  0.2167
82636W        W20130  18.783   3.558   8.299  0.2986 -0.0475  0.0159
82637W        W20131  16.886  21.516   3.037 -0.2240 -0.2183  0.6556
82638W        W20132  12.270  29.157  13.035  0.0512  0.2242 -0.0181
82639W        W20133  19.585  27.202   0.873 -0.1648  0.1752  0.1802
82640W        W20134  31.451  12.661  20.335  0.2847  0.1634  0.1188
82641W        W20135  24.277   7.561  14.319  0.1671 -0.2950 -0.0294
82642W        W20136   3.987   6.483   6.339  0.0017  0.0713  0.1945
82643W        W20137   0.401   9.415  12.924 -0.1820 -0.1980 -0.1383
82644W        W20138  30.668  16.186  12.613  0.1162 -0.0645  0.0113
82645W        W20139  28.594   7.644  16.707 -0.0851 -0.1133 -0.3676
82646W        W20140  25.216   5.631  16.527  0.0752  0.0044 -0.1646
82647W        W20141  22.438  31.523   3.786 -0.2179 -0.2790  0.2816
82648W        W20142  16.067  12.449  24.488 -0.0442 -0.1912  0.2646
82649W        W20143  14.732  29.056  22.673  0.0019 -0.2090  0.3458
82650W        W20144  15.658  18.217   6.880 -0.2338  0.2358 -0.0029
82651W        W20145   6.935  10.572   1.666 -0.0346 -0.2326 -0.3202
82652W        W20146   8.558  19.322   5.465  0.1956 -0.2097 -0.2025
82653W        W20147  10.962   0.530  20.688 -0.0975 -0.2779  0.3369
82654W        W20148   2.766   3.386   4.748  0.0592 -0.0412 -0.0035
82655W        W20149  31.308  27.604   2.884  0.0159  0.0824 -0.1753
82656W        W20150  18.970  27.463   2.035  0.0665  0.1995 -0.0065
82657W        W20151   2.327  14.385  20.856  0.0116 -0.3534 -0.2142
82658W        W20152  22.812   4.818   7.685 -0.2707  0.1379  0.0863
82659W        W20153   2.853  26.254   5.579 -0.1078 -0.3082 -0.2370
82660W        W20154  30.423   4.969  16.449 -0.0136 -0.0366  0.1635
82661W        W20155  22.195  34.714  22.174 -0.0837 -0.2005  0.2559
82662W        W20156  34.197  27.254  19.205 -0.2460  0.4387  0.0899
82663W        W20157  21.925  25.073   3.643 -0.4338  0.0865 -0.0409
82664W        W20158   8.762  30.278   5.855  0.1849  0.0321  0.2485
82665W        W20159  18.132  21.928   3.800 -0.0352  0.1106 -0.1369
82666W        W20160   6.301  27.911   2.923  0.0046 -0.2561 -0.0831
82667W        W20161  29.759   0.391  16.618 -0.0974 -0.3447  0.2022
82668W        W20162  10.090  30.021   1.902 -0.1568  0.1054  0.1124
82669W        W20163   3.291  33.034   1.530  0.2530 -0.0214  0.0652
82670W        W20164  34.070  25.843  12.120 -0.2576 -0.0023 -0.0104
82671W        W20165  26.900  34.057   1.549 -0.1168  0.0771 -0.0667
82672W        W20166   9.768  24.552   9.884  0.0147  0.0911  0.1209
82673W        W20167  26.417  34.960  13.257  0.1784 -0.0894  0.0233
82674W        W20168  27.867  31.277  17.886  0.0724 -0.0704 -0.4506
82675W        W20169  12.719  22.176   5.449 -0.0171  0.0508  0.0648
82676W        W20170  16.687   2.831  22.536  0.0245 -0.0768 -0.3454
82677W        W20171  28.703  23.478   5.489  0.0873  0.1307  0.0245
82678W        W20172  12.617  17.717   9.691  0.2020  0.3383 -0.0423
82679W        W20173  13.481  19.852  21.120  0.1507 -0.1648 -0.1246
82680W        W20174  23.731  25.007  23.231  0.0223 -0.3283 -0.0424
82681W        W20175  27.654  35.135  11.566 -0.0901  0.1197  0.1391
82682W        W20176   0.249  29.845   1.069  0.3609 -0.0235 -0.0393
82683W        W20177  22.141   9.631   1.869 -0.2101 -0.0787 -0.2653
82684W        W20178  14.994   5.537   2.065  0.2107  0.0758 -0.0293
82685W        W20179  24.753  33.638  22.382 -0.1516  0.1654  0.1731
82686W        W20180  10.249  31.234  24.893  0.2551  0.0990  0.0452
82687W        W20181  31.766   7.564   0.080  0.1987 -0.2675 -0.0579
82688W        W20182  10.724   0.942   6.978  0.2443  0.0050 -0.2221
82689W        W20183   0.650  25.623  24.158 -0.0597 -0.1092  0.0391
82690W        W20184  30.114  24.203  22.902 -0.1277 -0.1990 -0.3162
82691W        W20185  26.821   9.575   0.601 -0.2164 -0.1538 -0.0533
82692W        W20186  32.668  19.174   5.135  0.0050 -0.0065 -0.2131
82693W        W20187   8.367   7.566  26.228 -0.1091  0.2589  0.1514
82694W        W20188  31.965  10.405   0.365 -0.2572  0.2577  0.1745
82695W        W20189  34.290   9.214  22.336 -0.4144 -0.1152 -0.1658
82696W        W20190  31.935   9.830  23.480  0.2070  0.1282 -0.1116
82697W        W20191  33.270  24.456  19.623  0.2085  0.0207  0.0445
82698W        W20192  15.131  16.681   2.287 -0.0034  0.2641  0.2157
82699W        W20193  14.154   8.678   7.657  0.1696  0.0302 -0.0978
82700W        W20194   1.864  32.296   1.480  0.5859 -0.0361  0.1804
82701W        W20195  31.711  32.022  13.174  0.0364 -0.1923 -0.0630
82702W        W20196  13.728  34.268   7.139 -0.0850 -0.0932 -0.1983
82703W        W20197  10.901   7.394  22.295  0.1556 -0.3056  0.3232
82704W        W20198  17.223  13.588   3.527 -0.2835  0.0927 -0.2766
82705W        W20199  11.157  27.225  24.304  0.3042 -0.0709 -0.1561
82706W        W20200  33.204   5.260  23.490 -0.0272 -0.1750  0.0357
82707W        W20201  13.070  13.941  25.710  0.0119 -0.1008 -0.1037
82708W        W20202  31.488  10.886   7.347 -0.0279  0.2476  0.2609
82709W        W20203   6.206  26.178  13.154 -0.1751  0.1333  0.2895
82710W        W20204   8.247   4.019  24.957 -0.0493  0.0891  0.2516
82711W        W20205  29.953  34.396  25.621  0.1166  0.1441  0.1813
82712W        W20206  27.719  20.566  11.053 -0.1548  0.0134 -0.1391
82713W        W20207  14.806   1.929   9.393  0.1098  0.0091 -0.3010
82714W        W20208  16.608  21.228  12.698 -0.2246  0.0337  0.0565
82715W        W20209   5.485  29.509   4.217 -0.2903  0.0778 -0.0293
82716W        W20210  24.269   5.796   3.100 -0.0742  0.0220  0.2955
82717W        W20211  34.004  16.780  16.332 -0.0894  0.1348 -0.1250
82718W        W20212   5.935  24.371   5.697 -0.0246 -0.0661  0.0296
82719W        W20213   5.009  12.008  24.495 -0.0274  0.1653  0.1660
82720W        W20214  21.701  33.067  14.726 -0.4682 -0.0746  0.2037
82721W        W20215   6.191  32.520   7.380 -0.0604  0.2217 -0.2402
82722W        W20216  16.617  24.370  24.912  0.4092 -0.0984 -0.1483
82723W        W20217  20.998  21.528  16.201 -0.0039 -0.1769 -0.0326
82724W        W20218  30.953  28.678  18.922 -0.1292  0.0265  0.2720
82725W        W20219   1.895  22.070  22.334 -0.0220  0.1608  0.1448
82726W        W20220  13.243  24.495  24.244 -0.1608 -0.2644 -0.4914
82727W        W20221  14.527  12.036  20.962  0.2274  0.1536 -0.1443
82728W        W20222  33.358  19.829  10.510 -0.1754 -0.0089 -0.1310
82729W        W20223  24.783  25.678  10.951  0.2470 -0.1994 -0.1382
82730W        W20224  11.026  27.029   1.961 -0.2458 -0.1551  0.1734
82731W        W20225   2.357   2.306  24.409  0.5039  0.1515  0.1846
82732W        W20226   9.069  19.537  25.282 -0.1754  0.0821  0.2659
82733W        W20227   6.404  30.475  12.301 -0.1232  0.0582 -0.0502
82734W        W20228  34.316  16.495  18.665  0.3578  0.1350 -0.1693
82735W        W20229  13.762   2.854   0.034 -0.1093  0.2890 -0.1825
82736W        W20230  13.709  20.520   3.264  0.2824 -0.0062 -0.1563
82737W        W20231  12.453   1.534  19.174 -0.0631 -0.2743  0.2948
82738W        W20232  18.182  32.407   2.305  0.1555  0.0065  0.0649
82739W        W20233  15.828  27.020   9.560  0.2991  0.1122 -0.0458
82740W        W20234   4.132  31.043   2.391 -0.2590  0.1147  0.0752
82741W        W20235   9.144  32.097  20.802  0.0392  0.0330 -0.0320
82742W        W20236  24.547  12.452   2.665  0.4832 -0.1107 -0.1875
82743W        W20237   8.991  17.130  10.861 -0.0761 -0.1411  0.0141
82744W        W20238   5.972  29.078   6.076 -0.0311 -0.1952  0.1223
82745W        W20239  19.524  32.517   6.743  0.1799 -0.0853  0.0037
82746W        W20240  23.879  33.097  22.171  0.3005 -0.0178 -0.2930
82747W        W20241  21.272  32.141  20.646  0.3030 -0.1380 -0.2177
82748W        W20242   0.556  18.407  14.302  0.0240 -0.2554 -0.2408
82749W        W20243   0.048  18.374  25.229 -0.1482 -0.1910 -0.2226
82750W        W20244   4.233  27.049  25.015 -0.3533  0.0614 -0.2091
82751W        W20245  11.196  13.550   2.747 -0.1648 -0.0188  0.1629
82752W        W20246  27.900  28.902   3.010  0.0014  0.0622 -0.1160
82753W        W20247  23.839   6.315   3.504  0.1501  0.0324  0.2163
82754W        W20248   2.732  20.281  22.364 -0.0517  0.2291 -0.0399
82755W        W20249   7.251  23.490   3.301 -0.1156 -0.2860 -0.0889
82756W        W20250  25.473   0.824   5.120  0.1303  0.0990  0.0196
82757W        W20251   0.907  13.142  12.155 -0.2708  0.0621 -0.0296
82758W        W20252   9.297   6.112  24.108 -0.0294  0.1192 -0.0651
82759W        W20253  28.780   4.028  25.744 -0.3652 -0.1269 -0.1499
82760W        W20254  24.311  17.676  11.099 -0.3082  0.1859 -0.3276
82761W        W20255   5.598  22.862   3.767 -0.0484  0.1184  0.2417
82762W        W20256   9.203  11.819   0.181 -0.2728 -0.2163  0.1098
82763W        W20257  31.720  30.552  14.579  0.0148  0.1227 -0.2145
82764W        W20258  25.115  21.156  10.308 -0.0201 -0.3516 -0.0830
82765W        W20259  12.795   8.793   8.947 -0.2249  0.0831 -0.1688
82766W        W20260  15.604  25.870  14.676  0.1717  0.0185 -0.0664
82767W        W20261   1.719   1.973  21.775 -0.2372 -0.0462 -0.1651
82768W        W20262  20.274   6.531   0.592 -0.0383 -0.2447  0.1193
82769W        W20263  13.966   7.954   4.845 -0.1286  0.1323  0.0215
82770W        W20264  25.206  26.425  19.084 -0.1697 -0.3928 -0.0989
82771W        W20265  32.345  24.596   8.914  0.1207 -0.0057  0.1502
82772W        W20266  25.381  25.169   9.759 -0.3411  0.0762 -0.4268
82773W        W20267  26.823  18.347  23.573 -0.2992 -0.3316 -0.0119
82774W        W20268   4.711  19.419   0.401 -0.2376 -0.1974 -0.1867
82775W        W20269  22.316  21.102  18.272  0.0270 -0.1569  0.1533
82776W        W20270  34.837   8.618  21.093  0.1081 -0.1199 -0.1234
82777W        W20271  16.759   6.127   7.062 -0.0602 -0.0445 -0.2073
82778W        W20272  19.223   3.660  10.440  0.0939  0.1621 -0.1960
82779W        W20273  32.146   5.094  21.606 -0.0121 -0.1650  0.0486
82780W        W20274  25.139   9.272  23.608  0.0399 -0.0028 -0.1534
82781W        W20275   1.173  30.472   2.549 -0.1488  0.1420 -0.0273
82782W        W20276  16.990   6.550  18.713 -0.7609 -0.3559  0.4031
82783W        W20277  27.367  16.550  14.160  0.2088 -0.0963  0.0762
82784W        W20278  26.887  17.873  19.426  0.1181  0.0643 -0.0834
82785W        W20279  15.574  31.197  24.037 -0.1667 -0.1238 -0.0292
82786W        W20280   8.006  10.494  11.399 -0.0294  0.0010  0.1134
82787W        W20281   4.268   9.649   7.310  0.1422 -0.0114 -0.1641
82788W        W20282   0.881  33.530   4.322 -0.2668  0.0124  0.0386
82789W        W20283  23.552  17.432  23.824 -0.0271  0.1250  0.0498
82790W        W20284  31.539   2.106   5.200  0.1101  0.0666  0.0567
82791W        W20285  15.949   0.131  26.201 -0.1792 -0.2399  0.1008
82792W        W20286  24.692  34.931  22.447  0.2434  0.2540 -0.0099
82793W        W20287   1.118   6.008   6.128 -0.1594 -0.2200  0.1748
82794W        W20288  20.354  31.649   3.176 -0.1612  0.3012  0.1380
82795W        W20289   8.787  32.084   5.609  0.1236 -0.0243 -0.2390
82796W        W20290  31.876  33.015  13.591 -0.3561 -0.0162 -0.1169
82797W        W20291  22.172  33.368   1.962  0.0007 -0.0685  0.1950
82798W        W20292  25.450  24.100  10.557  0.3210  0.2580  0.0760
82799W        W20293  22.199  12.716  16.179  0.0713  0.0259  0.1287
82800W        W20294   9.758  32.765   8.113  0.2055 -0.0920 -0.0515
82801W        W20295  11.443  12.454  22.006  0.1804 -0.0834  0.0586
82802W        W20296   1.192   8.277  16.826 -0.1771 -0.1173  0.1237
82803W        W20297  30.795  28.533   0.834 -0.2102 -0.0384  0.0757
82804W        W20298  18.751  13.186  10.629  0.0622  0.0271 -0.0387
82805W        W20299   6.814   3.264  19.805  0.2247 -0.2781 -0.0101
82806W        W20300   9.097   2.830   9.422 -0.0579  0.2226  0.0695
82807W        W20301  20.967  25.988   1.778  0.2746 -0.0853  0.0473
82808W        W20302  15.423   6.670  19.594  0.2448  0.1483  0.1671
82809W        W20303  31.163  25.077   9.288 -0.0068 -0.2689  0.1756
82810W        W20304  25.418   4.019  19.506 -0.0740  0.1072 -0.1639
82811W        W20305   6.887   1.204  11.784 -0.1763 -0.2215  0.2716
82812W        W20306  33.986  20.512  18.002 -0.0712  0.1518  0.0979
82813W        W20307  21.021   6.742  21.656  0.1275  0.0286 -0.0193
82814W        W20308   0.166  22.749  17.622 -0.2631  0.2717  0.1186
82815W        W20309  13.779  26.318   9.336 -0.0116 -0.2003  0.1459
82816W        W20310  34.578  18.169  15.346  0.2031  0.1871  0.1203
82817W        W20311  28.795  33.461  12.657  0.0453 -0.0673  0.0407
82818W        W20312   7.356  32.054   2.175 -0.2253 -0.1827  0.0914
82819W        W20313   2.169   8.340  14.151  0.0438  0.0301 -0.1696
82820W        W20314   4.061   3.432  25.302  0.0502 -0.2929 -0.2979
82821W        W20315   8.828   0.439   8.921 -0.0684 -0.2479  0.0813
82822W        W20316   8.202  34.515  24.422  0.0153 -0.0793  0.1218
82823W        W20317  15.400  23.394  14.426 -0.2132  0.3731  0.0107
82824W        W20318  13.521  29.280  12.542 -0.0143  0.0292  0.1414
82825W        W20319  18.438  12.481   7.178 -0.0137  0.3200 -0.1904
82826W        W20320   3.838   7.169  21.334  0.1060  0.1133  0.0791
82827W        W20321   5.773  25.143   0.684 -0.0367  0.2009  0.1125
82828W        W20322  27.533   3.342  15.946 -0.0847 -0.0669  0.0280
82829W        W20323  23.489  34.318  19.188 -0.0591 -0.0096  0.2494
82830W        W20324  11.602  29.108  10.224  0.0254  0.0805 -0.1192
82831W        W20325  21.505  26.804  21.613 -0.0403 -0.1116  0.0068
82832W        W20326  12.599  14.061   2.166 -0.4021  0.2519  0.1621
82833W        W20327   7.440  18.587   8.206 -0.0099 -0.0021 -0.3332
82834W        W20328  20.379  21.069   7.530  0.2825  0.0602  0.0465
82835W        W20329   5.747  18.276  26.223 -0.2344  0.2516 -0.0276
82836W        W20330   8.657  28.231   5.119  0.1894  0.0538 -0.2425
82837W        W20331  21.042  23.402  22.128 -0.3693  0.3711  0.1722
82838W        W20332  17.303   1.194   9.897  0.1417 -0.2211 -0.0349
82839W        W20333  27.654   6.675  17.553 -0.3491  0.2306 -0.0948
82840W        W20334   4.860  24.692   4.268  0.0158 -0.0018 -0.2376
82841W        W20335  26.543  23.224   9.304  0.3817 -0.0035 -0.1017
82842W        W20336   4.205  27.799   9.661  0.0674 -0.1451 -0.2761
82843W        W20337   4.617  21.482   1.954  0.0897  0.0967  0.0517
82844W        W20338  22.942  11.088  19.845 -0.2025 -0.1706 -0.2142
82845W        W20339   7.997  30.374   7.606 -0.2342  0.2668  0.1611
82846W        W20340   2.479   7.905  26.092  0.0927 -0.0495  0.0118
82847W        W20341  24.220  13.853  20.491  0.0636  0.0762  0.0909
82848W        W20342   0.524   7.760  18.406 -0.0551 -0.1693  0.1151
82849W        W20343   4.873  20.138   4.821  0.1620  0.3298 -0.0737
82850W        W20344  12.641   8.506   3.650  0.0494  0.0709 -0.2281
82851W        W20345  21.158  21.496   2.937  0.0561 -0.0777  0.2007
82852W        W20346   0.758  19.545  11.896  0.0340  0.0667 -0.0710
82853W        W20347  30.075   5.502   0.750  0.0928  0.2357 -0.0490
82854W        W20348  28.475  25.974  13.118  0.2296  0.0750  0.1494
82855W        W20349  32.694  18.861  11.248  0.0387 -0.0169  0.3508
82856W        W20350   0.754  32.214   6.804  0.2147 -0.0047 -0.1010
82857W        W20351   6.148   3.603   9.172  0.0319  0.0744 -0.1587
82858W        W20352  19.659  17.762   1.319 -0.0247 -0.2443 -0.0892
82859W        W20353   1.261  14.013  22.783  0.1916 -0.3154 -0.2070
82860W        W20354  11.104   9.587  14.293 -0.3615 -0.1340 -0.1068
82861W        W20355  31.964   5.347  16.492 -0.2679 -0.0299 -0.1110
82862W        W20356   9.769  16.525   2.584 -0.1484 -0.3155  0.0161
82863W        W20357   9.977   1.471   6.258  0.1142 -0.1055 -0.1280
82864W        W20358  29.283   9.733  20.181  0.0842  0.1278  0.1170
82865W        W20359  19.076   0.715  22.095 -0.0296  0.2521 -0.3419
82866W        W20360  21.351  34.033   1.406 -0.0726  0.0180  0.1841
82867W        W20361  16.288   8.374  22.772 -0.2037  0.0896 -0.0449
82868W        W20362  27.149  12.651  26.050 -0.6236  0.0884  0.0074
82869W        W20363  27.450  33.739  15.893 -0.1540 -0.1870  0.1383
82870W        W20364   2.671  30.660   5.570 -0.0106  0.1887  0.3072
82871W        W20365  35.003  31.243  21.720  0.0186  0.1300 -0.0085
82872W        W20366  17.835  15.773   8.287  0.3139 -0.0162 -0.1141
82873W        W20367  33.380  15.601  10.063  0.0395 -0.1030  0.0530
82874W        W20368  29.152  17.499  10.242  0.2085 -0.0403  0.1657
82875W        W20369  16.225   8.810  13.628 -0.0456  0.1091 -0.0172
82876W        W20370  26.229   0.619   0.994  0.0467 -0.2590 -0.1684
82877W        W20371  10.252   5.768   8.408 -0.0842 -0.3089 -0.2843
82878W        W20372  30.320  23.115  15.213 -0.3245  0.0951  0.1686
82879W        W20373  12.577  34.159   8.638  0.0786  0.0434  0.0043
82880W        W20374  24.095  24.151  14.108 -0.1214 -0.1265  0.0156
82881W        W20375  21.288  24.121  25.236  0.2086 -0.1914 -0.2509
82882W        W20376  29.291  21.831  20.644 -0.1477 -0.0898  0.1402
82883W        W20377   0.737  10.320  22.604 -0.2506 -0.1787  0.1495
82884W        W20378  16.775   8.480   0.437 -0.1642 -0.2459 -0.1101
82885W        W20379   0.930   0.631  15.709  0.0696  0.1597 -0.0086
82886W        W20380  16.368  19.445  24.542 -0.1559 -0.1760  0.1293
82887W        W20381  19.706  12.819  22.962  0.2412 -0.1574  0.0748
82888W        W20382  29.178  10.490  10.438 -0.0695 -0.3401 -0.0546
82889W        W20383   6.227  31.102   6.277 -0.2071  0.3135 -0.2829
82890W        W20384   2.886  14.594   3.985  0.3615  0.0890  0.1410
82891W        W20385   7.129  14.319   2.892  0.0257  0.3386  0.3127
82892W        W20386  19.684  30.194   1.001 -0.1735 -0.2991 -0.0353
82893W        W20387  15.182  29.443   3.065  0.0124  0.0998  0.1876
82894W        W20388   3.077  31.755   8.733 -0.0274 -0.3626 -0.1404
82895W        W20389  16.557  21.185   0.362 -0.0153  0.1489  0.1673
82896W        W20390  14.714  23.481  25.934  0.2085  0.1383 -0.1926
82897W        W20391   0.409  16.119  26.081  0.2362  0.5678  0.2562
82898W        W20392  28.253   6.465  22.045 -0.1403  0.0990 -0.0939
82899W        W20393   6.872   7.546   4.141 -0.1483 -0.1214 -0.5164
82900W        W20394   2.925   0.214  10.207  0.1004 -0.3052  0.0031
82901W        W20395  35.054  24.134  19.603  0.1560 -0.2259 -0.0839
82902W        W20396   6.620  32.788  14.539  0.1301 -0.1452 -0.1374
82903W        W20397   4.825   0.860   4.070 -0.1560  0.4203 -0.0438
82904W        W20398  18.338  25.995   9.795 -0.0212 -0.2215 -0.2976
82905W        W20399  10.796  23.292   3.114 -0.0592 -0.0344  0.0115
82906W        W20400  19.689   9.666  26.183 -0.1562  0.3080  0.1334
82907W        W20401  12.682  20.417  14.237 -0.1712  0.0521  0.1718
82908W        W20402   0.949  26.606   3.601  0.1238 -0.1433 -0.2385
82909W        W20403   1.923  12.813  25.011  0.2099  0.1201  0.0062
82910W        W20404  14.738  13.455  26.177  0.6638  0.0512 -0.2578
82911W        W20405   3.937  11.279  19.611 -0.1583 -0.2868 -0.1115
82912W        W20406  31.513  34.687   4.249 -0.0907  0.0244  0.2190
82913W        W20407  26.301  18.151   8.768 -0.0216  0.1099 -0.0618
82914W        W20408   7.626  25.465  13.370 -0.1218 -0.3033  0.0800
82915W        W20409   0.491  31.223   2.023 -0.1712  0.3119  0.0303
82916W        W20410   1.790  20.570   1.032 -0.1829  0.0712 -0.0850
82917W        W20411   5.184  12.862  16.386 -0.1169 -0.0143  0.0326
82918W        W20412  26.134  24.277  19.815  0.0727  0.0009  0.0317
82919W        W20413  32.879  16.302  22.809 -0.0814  0.1405 -0.1015
82920W        W20414  31.850  34.048  26.049  0.3016  0.0332 -0.1191
82921W        W20415  31.447  12.763  12.898 -0.1223  0.0676 -0.3481
82922W        W20416   7.809  23.459   0.383  0.1021  0.4491 -0.1806
82923W        W20417  11.340  11.039  21.681 -0.0416 -0.0273  0.0767
82924W        W20418  21.780  30.952   3.541 -0.0536 -0.0908  0.2102
82925W        W20419   3.665   5.055   2.807  0.0868  0.1977  0.2969
82926W        W20420   4.494  26.793   0.024  0.0832 -0.0883 -0.1780
82927W        W20421  25.419  25.113  24.631  0.1020  0.0897 -0.1269
82928W        W20422  18.010  34.893  23.994 -0.0446 -0.0669 -0.5249
82929W        W20423  14.143  10.304  19.791  0.2416 -0.2378  0.0095
82930W        W20424  32.508  11.260  17.789 -0.4487 -0.2173 -0.0442
82931W        W20425  19.958  16.839   3.324  0.0051 -0.0397  0.2167
82932W        W20426  14.083   5.673  19.735 -0.0180  0.0226 -0.1055
82933W        W20427  34.894  32.481  17.642  0.1555  0.1683 -0.0456
82934W        W20428  24.914  34.357  18.794 -0.1723 -0.1976  0.0401
82935W        W20429  16.143  16.797  23.305  0.3600  0.0419 -0.4939
82936W        W20430  14.502  19.737  21.995 -0.5324 -0.1719  0.1529
82937W        W20431   5.629  11.158  24.902 -0.1593  0.3153 -0.1486
82938W        W20432  21.558  34.184  22.660  0.0263  0.1736  0.1820
82939W        W20433  17.087  15.998   6.239 -0.0122 -0.0075 -0.0245
82940W        W20434  17.100  30.001   0.448  0.3697  0.1064  0.1038
82941W        W20435   4.022   0.197  26.049  0.0617  0.0425 -0.1647
82942W        W20436   5.389  10.254  25.860 -0.2596 -0.1313 -0.2640
82943W        W20437  34.172  29.979   0.727  0.3051 -0.2222  0.0166
82944W        W20438  33.853  27.257  23.042  0.2234 -0.2241  0.0348
82945W        W20439  32.718  27.961   1.661 -0.1194 -0.2662 -0.2324
82946W        W20440  15.154  34.068   8.278 -0.0254  0.2872 -0.0107
82947W        W20441  25.608   7.107  12.251  0.1621  0.0218 -0.0016
82948W        W20442  23.957   8.616  13.894  0.0722 -0.1656  0.0339
82949W        W20443  27.566  24.292   8.424 -0.0501 -0.1591 -0.0142
82950W        W20444  20.387  11.711  26.022 -0.2368 -0.0018  0.4723
82951W        W20445  30.144  29.857   2.854  0.1179 -0.1222  0.2985
82952W        W20446  11.035  20.627  13.105  0.1174  0.3167  0.1827
82953W        W20447  25.471  33.524  13.416 -0.1124  0.0290 -0.2251
82954W        W20448  17.720   6.816   8.034  0.1926 -0.1401 -0.1784
82955W        W20449  17.211   4.747   0.634 -0.1227 -0.1226 -0.1907
82956W        W20450  30.527  21.774  12.226  0.0725  0.1364  0.0133
82957W        W20451  25.883  18.629  20.593  0.2189  0.0224  0.2355
82958W        W20452  25.922  34.237   2.861  0.2298  0.2367 -0.2032
82959W        W20453   7.870  22.569  14.754  0.1677 -0.0927 -0.1101
82960W        W20454  25.392  20.046  19.058  0.0665 -0.2106 -0.0737
82961W        W20455  33.641  31.438   5.875  0.0063 -0.0184  0.0340
82962W        W20456   8.515  23.036  16.066  0.1384  0.2538  0.0444
82963W        W20457  19.935  26.569  20.919  0.0657  0.0037  0.0972
82964W        W20458   4.432  12.888  16.411  0.3965 -0.0043 -0.2790
82965W        W20459   5.329  33.572   7.103 -0.3482 -0.0041  0.1341
82966W        W20460  13.066  22.317  12.954 -0.3046 -0.1353  0.1450
82967W        W20461   0.328  18.057  13.511 -0.0822 -0.0832 -0.1361
82968W        W20462   9.724  12.067   7.156  0.0499  0.4431 -0.2291
82969W        W20463   3.949   7.539  19.898  0.2509 -0.1019 -0.1965
82970W        W20464  11.927  32.113   5.834  0.0057  0.0399  0.0790
82971W        W20465  19.571  35.091   4.541  0.1508 -0.0686  0.0577
82972W        W20466   5.743   8.249  25.058 -0.0993 -0.2153  0.1129
82973W        W20467  17.605   5.813   7.561 -0.4087 -0.1321 -0.0737
82974W        W20468  13.128  26.503  11.755  0.2651  0.2040  0.2086
82975W        W20469   7.424  34.116   4.473 -0.2954  0.2053 -0.1931
82976W        W20470  22.362  34.977  20.688 -0.0008  0.1672 -0.0816
82977W        W20471  30.806  24.465  18.838  0.1942  0.0428 -0.1011
82978W        W20472  31.830  28.701   3.567  0.0087  0.3252  0.2674
82979W        W20473  15.201  14.789  10.350  0.0413  0.1377  0.2115
82980W        W20474  34.649   6.540  23.520  0.3111 -0.0872 -0.4214
82981W        W20475   5.549  26.551   0.962 -0.1960 -0.2440 -0.3702
82982W        W20476  34.820  29.575  23.987 -0.3195  0.0558  0.1276
82983W        W20477  22.637   8.457  20.878  0.0237 -0.0605  0.0756
82984W        W20478  23.243   8.528  16.798 -0.0135 -0.2759 -0.2063
82985W        W20479  27.242   9.537  10.768  0.2519  0.1060 -0.3253
82986W        W20480  10.372  12.795   7.341 -0.1988  0.0142  0.1812
82987W        W20481  17.202   2.538   9.925  0.1858  0.2020 -0.2910
82988W        W20482  16.565  10.741  11.129  0.0063 -0.3751  0.0415
82989W        W20483   2.435  33.451  24.073  0.2391 -0.1262  0.1865
82990W        W20484   3.020  34.824   1.462  0.3565 -0.0045 -0.2677
82991W        W20485  24.210  16.041   1.834 -0.2535  0.1103  0.0242
82992W        W20486   1.060  25.308  16.678 -0.0395 -0.2968  0.0886
82993W        W20487  13.877  15.348  19.672 -0.3416  0.1468  0.0044
82994W        W20488  22.384  20.091  22.586  0.3114 -0.1912  0.1329
82995W        W20489  19.684  31.002   0.422  0.3186 -0.2723 -0.1866
82996W        W20490  11.937  23.862   7.593  0.0682  0.1600 -0.1551
82997W        W20491  17.184  25.007  22.843 -0.4713 -0.4502  0.0801
82998W        W20492   6.734   3.502  13.086  0.2952 -0.0940  0.0166
82999W        W20493  21.377   2.029  24.034  0.3227  0.1881 -0.0517
83000W        W20494  31.523  11.546   9.533 -0.1467  0.0384  0.0829
83001W        W20495   4.338   6.171   4.575  0.2184  0.1236 -0.0062
83002W        W20496   4.154  22.330  23.215 -0.0660  0.2684 -0.0990
83003W        W20497  23.058  22.562  24.251 -0.0585 -0.1131 -0.1340
83004W        W20498   1.968  17.999  20.115 -0.0275  0.0526  0.4246
83005W        W20499   3.583   9.334   5.026 -0.3369 -0.0906 -0.1677
83006W        W20500  17.253   5.263   7.060  0.2757 -0.3619 -0.1020
83007W        W20501  27.255  22.190  12.429  0.3998 -0.1557  0.3296
83008W        W20502  32.166  35.163  24.408  0.2109  0.0464  0.0337
83009W        W20503  33.034  25.401  19.334  0.0104 -0.1456  0.1573
83010W        W20504   3.867  12.680  25.172  0.2287  0.0157  0.1946
83011W        W20505  19.699  18.020  21.211  0.2125 -0.2100  0.1620
83012W        W20506  32.755  16.343  24.240  0.1053  0.1189  0.0417
83013W        W20507  29.766  33.633  16.005 -0.0127 -0.0534 -0.2488
83014W        W20508  22.842  32.691   4.146 -0.1244 -0.4590  0.0628
83015W        W20509  19.695  25.956   4.124 -0.2751  0.1074  0.1732
83016W        W20510  21.765  12.152  17.168  0.1634  0.3036  0.0774
83017W        W20511  11.898  25.690  10.988  0.3792 -0.1010 -0.1566
83018W        W20512  24.958  18.197  22.014  0.1476  0.1771  0.1300
83019W        W20513  20.932   5.502  22.509  0.2335  0.3057 -0.2130
83020W        W20514  29.545  27.501  13.635  0.0580 -0.0766 -0.0440
83021W        W20515   0.592  26.170  23.263 -0.1388 -0.4882  0.2530
83022W        W20516  20.861  26.310  23.356  0.2195 -0.1887 -0.3222
83023W        W20517  27.871   0.822   4.225  0.0710 -0.2930  0.2337
83024W        W20518  25.877  21.594  15.613  0.0254  0.0533  0.2661
83025W        W20519  20.752   0.229  19.507 -0.1076 -0.0461 -0.0100
83026W        W20520  32.993  20.007  24.805  0.0731  0.0594 -0.1865
83027W        W20521   2.154  28.073  20.459  0.3759 -0.2116  0.1321
83028W        W20522  19.638   7.685  22.573 -0.0908 -0.0878  0.0930
83029W        W20523  32.191  27.436   2.919  0.1612  0.1157  0.0039
83030W        W20524  12.658  34.016  22.199 -0.2177 -0.4460 -0.0775
83031W        W20525  33.525  13.354  23.156  0.0946 -0.0481 -0.0530
83032W        W20526  16.712  33.135   8.087  0.2691  0.0246  0.5797
83033W        W20527  32.881  10.945  13.955  0.1524 -0.1695  0.2602
83034W        W20528  28.051   6.267  10.240  0.0062 -0.1496  0.0583
83035W        W20529  32.065   4.985   4.435 -0.1250  0.0846 -0.3806
83036W        W20530   9.778  14.691  23.539  0.4600 -0.0577  0.1676
83037W        W20531  26.526  19.759   7.401 -0.1000 -0.1803 -0.2491
83038W        W20532  34.966  12.740  17.074  0.1202  0.2126 -0.1458
83039W        W20533   6.398  31.322  21.803  0.0809 -0.0012  0.0487
83040W        W20534  27.413   6.276  20.473 -0.4271 -0.3765 -0.1413
83041W        W20535  12.511  18.041  14.189  0.1091  0.0034 -0.1228
83042W        W20536  16.427   9.966   0.761  0.0797  0.1910 -0.1101
83043W        W20537  16.493  30.498   7.508  0.0496  0.0884 -0.0576
83044W        W20538  28.538  11.529  14.166  0.0491 -0.1715  0.0356
83045W        W20539  20.093  26.713  19.238  0.1587 -0.0120 -0.1699
83046W        W20540   3.690  28.164   0.517  0.0348 -0.2182 -0.1326
83047W        W20541  31.795  13.067  22.902 -0.1971  0.0250 -0.1259
83048W        W20542  11.178   2.968  24.676 -0.1871  0.1404 -0.1755
83049W        W20543  27.679  22.427  20.139 -0.0934  0.1357  0.0561
83050W        W20544   4.245  25.385  10.309 -0.1747 -0.0701  0.2618
83051W        W20545   5.720  27.411  26.105  0.1916  0.1705 -0.1702
83052W        W20546  25.136  22.859  22.011 -0.0608  0.2149  0.1229
83053W        W20547  13.010   3.139   0.491 -0.0153  0.2654 -0.1439
83054W        W20548   8.914  33.993   0.517 -0.0132 -0.0525  0.0841
83055W        W20549  11.765  13.728  24.382  0.1617 -0.1488  0.1696
83056W        W20550  30.932  21.883  17.438  0.0068  0.0195 -0.1375
83057W        W20551  15.363  27.443   2.025 -0.0422  0.2038 -0.2918
83058W        W20552   3.601   7.951   2.896 -0.4025 -0.0259  0.2152
83059W        W20553  33.460   3.098  15.562 -0.4093  0.0741 -0.0833
83060W        W20554  25.351  13.785   8.511  0.1171  0.1829 -0.2469
83061W        W20555  15.915  34.730  22.779  0.0710  0.0638  0.0723
83062W        W20556  16.629  27.843  10.098  0.2201  0.1832 -0.1703
83063W        W20557  19.573  12.208   4.998 -0.1827  0.2347 -0.1153
83064W        W20558  20.735   0.101   6.119 -0.0535 -0.3165 -0.1434
83065W        W20559  20.671   3.121  17.298 -0.0453 -0.2416 -0.0269
83066W        W20560  18.549  27.158  25.292 -0.0087 -0.1653 -0.0178
83067W        W20561   1.750   4.869   3.242  0.1863 -0.0035 -0.5451
83068W        W20562  16.024   2.810   4.182 -0.0555  0.1064  0.0729
83069W        W20563  17.997   0.147   9.069 -0.0355 -0.0641 -0.1665
83070W        W20564   8.759  11.779   3.258  0.1712  0.0322 -0.0238
83071W        W20565  17.051  26.881  24.291 -0.0832 -0.3605  0.0167
83072W        W20566   2.233   6.174  14.325  0.4957 -0.0878 -0.1693
83073W        W20567   5.087  10.417  25.038 -0.0976 -0.0635  0.1814
83074W        W20568  34.663   0.490   6.334  0.0356 -0.2365 -0.2124
83075W        W20569  32.964  31.935   4.985 -0.2384 -0.0049 -0.0651
83076W        W20570  34.978  12.355  23.117  0.2046  0.1627  0.0270
83077W        W20571  21.478  19.217  22.618  0.1579  0.0254  0.2058
83078W        W20572  33.806   2.133  22.471 -0.0166 -0.3200 -0.2364
83079W        W20573  20.812  31.777  25.657  0.0490  0.1262 -0.0725
83080W        W20574   0.101  22.116  17.150 -0.0303  0.1221 -0.0449
83081W        W20575  24.344   7.558  25.975  0.3500 -0.0613  0.1640
83082W        W20576  32.185  23.885  21.885  0.0041  0.3874  0.0321
83083W        W20577  21.954   9.415   3.240 -0.2137 -0.1324 -0.0589
83084W        W20578   0.414   6.570  14.635 -0.2755  0.1812  0.1344
83085W        W20579  18.217  13.490  24.077  0.0555  0.2392  0.1376
83086W        W20580  31.706  19.177  11.772  0.3227  0.4495 -0.3821
83087W        W20581  34.114   2.206  17.814 -0.3155 -0.1013  0.2790
83088W        W20582  22.569  33.934  22.367  0.1885 -0.3761 -0.1466
83089W        W20583   0.783  16.078  24.968  0.1855  0.1945  0.1903
83090W        W20584  11.135   5.413  13.571  0.1297 -0.1466  0.0988
83091W        W20585   7.876  20.194  23.697 -0.2104 -0.0798 -0.5430
83092W        W20586   4.010  28.064  24.077 -0.4226 -0.2276  0.1803
83093W        W20587  29.912  25.236   9.747  0.2507  0.0100 -0.1918
83094W        W20588   8.501  15.719  20.655  0.1292  0.2126 -0.0115
83095W        W20589  21.389   5.589  20.910 -0.0176 -0.2655  0.4208
83096W        W20590   0.153  34.651  24.341  0.0356  0.0469  0.0772
83097W        W20591  14.518   8.789  20.124  0.0522 -0.1975  0.0234
83098W        W20592   7.264  28.322   5.147 -0.0449 -0.1286 -0.0869
83099W        W20593  29.124  27.633  18.405 -0.0343  0.2424  0.2051
83100W        W20594  30.927   2.313  15.997 -0.1859 -0.0103 -0.0192
83101W        W20595   6.108  32.366  11.121  0.1603  0.0734  0.0989
83102W        W20596  12.911  11.276   0.955  0.3648 -0.3281  0.0967
83103W        W20597  23.129  33.227  18.132  0.0443 -0.1053  0.1457
83104W        W20598  20.294  27.147  19.463  0.1403 -0.1810  0.2152
83105W        W20599  15.162   4.207  11.286 -0.1429 -0.0667 -0.1899
83106W        W20600  20.733  30.221   3.195  0.0232 -0.0555  0.1878
83107W        W20601  33.161  30.863  17.574  0.2785  0.1904 -0.1667
83108W        W20602  31.720  11.257   0.262  0.1076  0.0361 -0.0384
83109W        W20603  18.245   0.299  22.042  0.0211 -0.2029 -0.1299
83110W        W20604  17.842  20.843  22.921  0.0081  0.4903 -0.1222
83111W        W20605  25.314  28.754  15.073 -0.1897 -0.0269  0.2579
83112W        W20606  18.943  14.405   3.351 -0.0786  0.2874 -0.1517
83113W        W20607   0.147   1.644  23.809  0.0203  0.0979  0.2554
83114W        W20608  16.144  25.986  11.525 -0.0526 -0.0588 -0.3688
83115W        W20609   5.240   6.187   8.408 -0.0842  0.0390  0.3516
83116W        W20610  28.925  31.975  13.464  0.1837  0.3885  0.1743
83117W        W20611  25.160  11.427  22.572  0.0051 -0.1746  0.0453
83118W        W20612  17.894  34.096   6.760 -0.0177 -0.0307  0.0078
83119W        W20613  34.485  31.983  17.264  0.4334 -0.2223  0.1094
83120W        W20614  18.998   6.574   8.923  0.1391 -0.1426  0.0139
83121W        W20615  15.021  32.612  22.731 -0.0115  0.1464  0.0317
83122W        W20616  27.948   9.066  19.779  0.2228  0.3031 -0.1632
83123W        W20617  13.032  20.788  12.195 -0.2409  0.0637  0.0512
83124W        W20618  15.739  19.333   4.894 -0.2300 -0.2985 -0.4205
83125W        W20619  34.961  19.246  10.858 -0.3007  0.1003 -0.0015
83126W        W20620   8.836  25.665  13.938  0.1867 -0.1615 -0.1986
83127W        W20621  30.665   7.966  21.784 -0.3321 -0.0236  0.0168
83128W        W20622  18.219  17.909   9.867  0.2555 -0.1494 -0.1246
83129W        W20623   6.064   1.777  18.964  0.1220  0.3351  0.3913
83130W        W20624  19.392  27.051  21.191 -0.1641  0.0541  0.0281
83131W        W20625  12.793  11.885   5.520 -0.0684 -0.1790 -0.1778
83132W        W20626  26.591  13.010  12.394 -0.1558  0.5096 -0.1932
83133W        W20627  27.354  13.684  22.632 -0.1454 -0.0270 -0.2281
83134W        W20628  11.943   4.887   9.600  0.2488 -0.2577 -0.2794
83135W        W20629  32.789  10.934  20.733 -0.0098 -0.2870  0.3673
83136W        W20630  28.257  29.633   0.336 -0.0793 -0.1726 -0.0698
83137W        W20631  29.817  13.726  20.501 -0.4394 -0.0780  0.0039
83138W        W20632  10.017  23.843   6.524  0.0315 -0.0389  0.0654
83139W        W20633   2.210  17.793  24.184  0.2474 -0.0237  0.0357
83140W        W20634  21.295   5.176  16.240 -0.0076  0.0433  0.3523
83141W        W20635  30.319  10.789  18.848  0.1617  0.0036 -0.0566
83142W        W20636  23.076  13.974  14.464 -0.0812  0.0322 -0.1965
83143W        W20637  27.798   0.693  17.340 -0.2472 -0.0782  0.2897
83144W        W20638  31.961  23.653  23.858 -0.1397 -0.2499  0.2857
83145W        W20639  24.911   0.423  16.911  0.1272 -0.1526 -0.1379
83146W        W20640  24.939  18.918  15.449 -0.1533 -0.0415  0.1427
83147W        W20641  34.493  12.091  23.747 -0.1882  0.0647  0.0098
83148W        W20642  33.758   8.550  18.444 -0.3158 -0.0514 -0.2856
83149W        W20643   9.381  21.799  23.998  0.1814  0.1533 -0.0380
83150W        W20644  26.724  24.684  15.965  0.1542 -0.2761  0.3095
83151W        W20645  34.943   2.387   6.943 -0.1068  0.3395 -0.0347
83152W        W20646  26.470   6.980   2.415 -0.0022  0.2539 -0.1380
83153W        W20647  20.777  31.077  22.577  0.0371 -0.0609 -0.1629
83154W        W20648  18.478  14.454  19.146  0.0995 -0.0113 -0.0746
83155W        W20649   8.357  32.990  11.858 -0.2913  0.0471  0.0466
83156W        W20650   8.026   5.885   8.296 -0.1423  0.0178  0.0749
83157W        W20651  13.288  26.019   7.591  0.1427 -0.3244  0.0607
83158W        W20652  22.116  27.274  22.269 -0.1746  0.0683  0.0260
83159W        W20653  10.912   4.961  11.901  0.0381 -0.0370  0.1031
83160W        W20654  33.320   9.712  19.365 -0.3044 -0.1095  0.3168
83161W        W20655   6.540   0.979  18.835  0.3798  0.0223  0.0012
83162W        W20656  22.956   1.080  16.987 -0.1299 -0.1850  0.2196
83163W        W20657  26.571  11.042   8.503  0.0718 -0.1362  0.2612
83164W        W20658  18.922  30.473  23.476 -0.1069  0.2405 -0.4596
83165W        W20659  30.273  14.025  25.406  0.0942 -0.0178  0.0721
83166W        W20660  11.747   9.493   4.512  0.0586 -0.1737  0.3130
83167W        W20661  29.470  12.079  23.693 -0.0078 -0.3202  0.3209
83168W        W20662   8.047   5.141   4.104  0.1273 -0.0580 -0.0027
83169W        W20663  26.745   7.781   1.468  0.3035 -0.1428  0.1183
83170W        W20664  32.694  29.199   1.192 -0.1969  0.3111 -0.0780
83171W        W20665   3.758  22.917  20.463  0.1474  0.2189  0.1306
83172W        W20666  17.305  24.798  25.389 -0.0278  0.2744 -0.1901
83173W        W20667   0.219   0.625  24.852  0.0376  0.2866 -0.2490
83174W        W20668  28.839  22.438   8.819  0.0545 -0.3378  0.0598
83175W        W20669   3.349   5.015  21.339  0.0715  0.3644 -0.3744
83176W        W20670  10.406  11.411  18.682  0.1936  0.4746  0.2966
83177W        W20671  21.554  31.578  26.245 -0.2403  0.1226 -0.0971
83178W        W20672  14.280  25.336   8.673  0.1914  0.4163  0.1655
83179W        W20673   7.561  14.482  17.779 -0.0084  0.0105  0.2035
83180W        W20674  31.539   9.625  24.730 -0.3438  0.0101 -0.0326
83181W        W20675   7.083  15.941  11.186  0.1844 -0.1358  0.0469
83182W        W20676   1.228  18.171  24.846  0.0162  0.0439  0.2825
83183W        W20677  28.976  16.437  13.029 -0.3828 -0.0763  0.0560
83184W        W20678  12.557  20.640  23.312 -0.0280 -0.2197 -0.0632
83185W        W20679  13.594  28.706  25.610 -0.1559 -0.4237  0.0759
83186W        W20680  30.010   9.359  20.702  0.4328  0.0476  0.1877
83187W        W20681  14.558  20.997   5.339  0.1040  0.2564  0.0600
83188W        W20682  33.600   6.201   2.066  0.0386  0.1201  0.0607
83189W        W20683  16.810  14.511   7.338 -0.0344  0.1124 -0.2021
83190W        W20684  13.069  27.756   0.404 -0.1396  0.3159 -0.2671
83191W        W20685   2.207  10.867  24.592  0.0916 -0.1611  0.0816
83192W        W20686  16.824  21.022   7.022  0.2346  0.0879  0.1166
83193W        W20687  10.972  27.163  16.623  0.1178  0.0202  0.0189
83194W        W20688  13.251  27.152  12.368  0.0117  0.1956 -0.1405
83195W        W20689  24.715  18.863  23.103  0.1509  0.0804 -0.0755
83196W        W20690   0.438   7.446   4.079 -0.1638 -0.0846  0.0784
83197W        W20691  30.952  29.837  12.495  0.3132 -0.1724 -0.3354
83198W        W20692  33.911  35.143  18.132 -0.2136 -0.0110  0.2662
83199W        W20693  29.401  15.668  20.798 -0.2306 -0.3181 -0.1420
83200W        W20694  21.533   6.949  20.956  0.2779  0.1748 -0.1480
83201W        W20695  13.925   6.504   9.928 -0.0280  0.2449  0.0353
83202W        W20696  11.157  17.479   9.358 -0.0787 -0.3030  0.2012
83203W        W20697   3.112  30.162  10.832  0.0589 -0.3111  0.3648
83204W        W20698  18.653   9.961  18.530  0.1391  0.1289 -0.1770
83205W        W20699  24.767  35.260  21.063 -0.0315 -0.0652 -0.1063
83206W        W20700  29.398   1.416   6.164 -0.2575 -0.0276 -0.1886
83207W        W20701  17.024  12.760  13.070  0.0432  0.2426  0.0878
83208W        W20702  16.721  22.817   8.612  0.2238  0.2868  0.0352
83209W        W20703  12.245  20.408   3.350  0.1278  0.1007  0.3183
83210W        W20704  33.364  27.593  14.975  0.3202 -0.0489  0.1112
83211W        W20705  23.988   0.240  19.217 -0.1872  0.0715  0.1194
83212W        W20706  10.520   5.099   5.888  0.1446  0.0920 -0.0812
83213W        W20707  25.756   5.090   3.055 -0.2222  0.2124  0.0042
83214W        W20708   2.746  27.429   5.500  0.1516  0.0955 -0.1003
83215W        W20709   9.334   2.106   0.266 -0.0923 -0.0194  0.0696
83216W        W20710  26.977   9.113   2.343 -0.2536 -0.0209  0.1803
83217W        W20711   1.515  19.217  23.651  0.0907  0.0568  0.2674
83218W        W20712  30.524  22.096  17.953  0.0124  0.0154 -0.0849
83219W        W20713  27.305  23.281  20.674  0.1433 -0.0962 -0.1488
83220W        W20714   3.545  10.436  16.627  0.0702 -0.1907 -0.1932
83221W        W20715   1.155  23.669  22.777  0.0648 -0.2729 -0.1079
83222W        W20716  26.064  18.301  19.647  0.4000  0.1496  0.2376
83223W        W20717  22.313  29.138  25.554 -0.0499  0.1465  0.3702
83224W        W20718  21.474  13.274   2.711 -0.0882 -0.1269  0.2643
83225W        W20719  34.880  33.417  20.722 -0.2269  0.1244  0.2049
83226W        W20720  27.420   3.634   2.298 -0.0345  0.2811  0.0255
83227W        W20721  10.637   4.750   9.117 -0.1583  0.3497  0.0829
83228W        W20722  13.605  24.943  16.691 -0.0036 -0.0884 -0.1281
83229W        W20723  29.687   9.497  19.987 -0.0280  0.0490  0.1760
83230W        W20724  31.028  15.553  10.335 -0.0815  0.2977  0.1611
83231W        W20725  18.337   9.855   9.728 -0.0759 -0.1608 -0.0859
83232W        W20726   4.409   2.279   0.041 -0.0111  0.0254  0.0303
83233W        W20727  15.399   6.440   0.957 -0.0327 -0.1035 -0.1770
83234W        W20728  11.674  25.712   0.738  0.1562  0.1405 -0.1503
83235W        W20729  19.461   5.203  24.824 -0.0182  0.0403 -0.0315
83236W        W20730  27.004  11.756   7.892  0.1413 -0.0901 -0.0703
83237W        W20731  18.408   2.957  20.270  0.1743  0.2027  0.0100
83238W        W20732   2.405   1.206   7.931  0.0647 -0.0807  0.1550
83239W        W20733  22.379  15.686  18.670  0.2674 -0.1583 -0.0832
83240W        W20734  34.492  34.289  25.060 -0.1565 -0.2521 -0.0255
83241W        W20735  28.548  17.864  13.382 -0.1981  0.2179  0.0058
83242W        W20736  23.506  12.857  23.588  0.2638  0.2328 -0.1080
83243W        W20737   0.022  22.176   9.991 -0.4203 -0.0412 -0.0224
83244W        W20738   1.646  15.539  20.661  0.2619 -0.3849 -0.3340
83245W        W20739  26.343  14.908   9.854 -0.1504 -0.2158  0.4943
83246W        W20740  14.004   0.592   7.808 -0.1738 -0.0552 -0.0758
83247W        W20741  26.886  33.850  24.915 -0.0904 -0.3108  0.0525
83248W        W20742  26.463   8.759  24.173  0.0432 -0.0651 -0.0618
83249W        W20743  30.814  16.432  13.597  0.3301  0.0112  0.0989
83250W        W20744  25.598  30.330  22.021 -0.0875 -0.0960 -0.3800
83251W        W20745  25.428  26.981   2.309  0.0040 -0.2271 -0.4152
83252W        W20746  23.349  27.119  11.740 -0.1125 -0.1570  0.1831
83253W        W20747  13.073  34.457  12.969 -0.1041  0.1581  0.1818
83254W        W20748  10.651   3.584   0.630  0.0581  0.0950 -0.1343
83255W        W20749  30.014   0.085  20.593  0.1477 -0.1387  0.0643
83256W        W20750  32.317  29.722  20.146 -0.2308  0.2695  0.1086
83257W        W20751   3.360  12.731   1.734  0.1855  0.0747  0.0945
83258W        W20752   7.380  11.874  20.480  0.0653  0.0999  0.1203
83259W        W20753  33.415  14.101  17.334  0.0539  0.0352  0.1984
83260W        W20754  17.641  34.971   1.084  0.1125 -0.0052  0.0799
83261W        W20755   4.433  26.094   1.944  0.1736 -0.0416 -0.0114
83262W        W20756  27.502  17.140   7.041 -0.0208  0.1738 -0.1282
83263W        W20757  22.902  29.060  23.709 -0.1766  0.0912  0.2175
83264W        W20758  23.751   6.072  25.612 -0.2226 -0.0970  0.2164
83265W        W20759   8.591  35.180  23.931  0.2879  0.1057  0.2147
83266W        W20760  25.874  25.772  14.102  0.1283  0.2403 -0.4501
83267W        W20761  23.371   5.467  14.485 -0.1201 -0.0330  0.0058
83268W        W20762  32.511   3.229   4.078  0.1075 -0.0786 -0.6108
83269W        W20763  14.849  25.609  13.943 -0.0487  0.2046  0.0007
83270W        W20764   8.875  35.233  14.087  0.2572  0.2283 -0.2375
83271W        W20765  27.288  14.937   9.424 -0.0199 -0.0645 -0.2682
83272W        W20766   1.003   9.844   1.791 -0.0695 -0.0923  0.1086
83273W        W20767   3.603   3.488   5.866 -0.0744 -0.1315  0.0812
83274W        W20768  23.235   0.359   3.156 -0.0853  0.3283 -0.0576
83275W        W20769  34.814   9.640   0.486  0.1105 -0.1584 -0.1079
83276W        W20770   7.293  33.376   2.256 -0.2279 -0.0055 -0.1165
83277W        W20771  34.683  23.300  20.500 -0.0568  0.0607  0.0549
83278W        W20772   6.077  19.095   8.471 -0.0400 -0.3555 -0.0903
83279W        W20773  35.311  27.142  20.476 -0.0307  0.0603 -0.0281
83280W        W20774   5.635  21.552   2.459  0.2824 -0.0055 -0.0368
83281W        W20775  28.736  28.297  22.282 -0.0157 -0.0857 -0.3886
83282W        W20776  19.660  34.971   1.881  0.0555 -0.2563  0.1768
83283W        W20777   5.878  15.018   3.209  0.3094 -0.1323 -0.0791
83284W        W20778  20.682  29.472   0.537  0.0909  0.0833  0.0075
83285W        W20779  10.784   0.830  24.355 -0.0682  0.1420  0.0117
83286W        W20780  20.193  29.933   5.543  0.0996  0.1512 -0.3126
83287W        W20781  25.454  28.618   0.910  0.1584  0.0630 -0.0668
83288W        W20782   9.264   1.362  23.510 -0.0670 -0.1850  0.0196
83289W        W20783   3.114   9.362   6.974 -0.0092  0.0165  0.2118
83290W        W20784  23.250   7.551  16.894 -0.0098 -0.1974 -0.1238
83291W        W20785  26.305  19.236   7.339  0.3597  0.1986  0.1787
83292W        W20786   7.447   9.961  21.081  0.0009  0.1123  0.3759
83293W        W20787   8.661  18.115   7.359  0.1098  0.0617 -0.4473
83294W        W20788   6.449   9.012  21.486 -0.0135 -0.2250  0.0220
83295W        W20789  29.962  19.057  23.020 -0.0769 -0.1798  0.2663
83296W        W20790  34.426  18.012  20.053 -0.0881 -0.1640 -0.0076
83297W        W20791  12.786   5.242   3.877  0.0709  0.0178 -0.2326
83298W        W20792  14.394  22.684   5.130  0.0370 -0.1588 -0.1573
83299W        W20793  18.297  24.289   8.110 -0.1156  0.0559 -0.2898
83300W        W20794  29.546  10.060  24.084 -0.0106 -0.0351 -0.1404
83301W        W20795   4.624   0.056   7.928 -0.1313 -0.1311  0.0486
83302W        W20796  29.142   7.570  16.120 -0.2360  0.0216  0.1900
83303W        W20797  22.464  27.182   0.820 -0.0133  0.1734 -0.1760
83304W        W20798  25.745   2.817  15.306  0.1528  0.0691 -0.0072
83305W        W20799  29.439  20.103  15.708 -0.1232 -0.0214 -0.1303
83306W        W20800   1.359  30.813  21.023 -0.1544  0.4959  0.2339
83307W        W20801   8.808  11.742   8.247  0.1641 -0.1155  0.0933
83308W        W20802   7.837  24.821  11.770  0.0049  0.0749 -0.1798
83309W        W20803  29.987   0.170  15.006 -0.1125 -0.1184  0.2878
83310W        W20804   0.319  18.625  23.464 -0.2010  0.4926  0.3179
83311W        W20805   9.468   2.807  23.212 -0.1637  0.1314 -0.0012
83312W        W20806  20.029  25.219   9.361  0.1467 -0.0170  0.2237
83313W        W20807   1.744   4.674  22.149  0.0644 -0.0918  0.2183
83314W        W20808  19.598   3.882   6.258  0.1790  0.1169  0.1655
83315W        W20809  26.314  21.025  17.430  0.0373 -0.2744 -0.1071
83316W        W20810   6.824  32.164   9.886  0.2525  0.1341  0.0130
83317W        W20811  31.561  32.205   1.593  0.2251  0.3514  0.2485
83318W        W20812  15.906  12.078   4.345  0.2719 -0.1897 -0.1413
83319W        W20813  17.836  13.373  10.825  0.0006 -0.1068 -0.2070
83320W        W20814  24.700   3.364  25.595  0.1050  0.0311 -0.1521
83321W        W20815  21.847  14.347   0.564  0.1978  0.0242  0.0059
83322W        W20816  28.512  11.782   8.538  0.0797  0.1780 -0.1541
83323W        W20817  25.165  30.952   1.427  0.0031  0.3823  0.1067
83324W        W20818   6.137  10.602   8.322 -0.2737 -0.1109 -0.1503
83325W        W20819   0.168  35.226  18.495  0.0323 -0.0788  0.2219
83326W        W20820  11.668  15.036   0.596 -0.2794  0.0423 -0.3160
83327W        W20821  26.553   1.087   4.526 -0.0646  0.0277 -0.0045
83328W        W20822   5.639  31.607  23.718 -0.0808 -0.1971 -0.0409
83329W        W20823   7.669   9.513  21.859  0.0446  0.1429  0.1528
83330W        W20824  30.721   6.530  15.448 -0.0029 -0.3249 -0.0788
83331W        W20825  29.623  30.369  15.918 -0.0685 -0.1813  0.1889
83332W        W20826   6.173  30.448   7.997  0.0845  0.1745 -0.2141
83333W        W20827   7.457  28.017   9.179  0.1924 -0.2372  0.0621
83334W        W20828  26.440   9.065   2.498 -0.3178  0.0758  0.1571
83335W        W20829   1.282  25.889   0.100 -0.0037 -0.1481 -0.1030
83336W        W20830  20.609  22.919  25.255  0.0556  0.0877  0.1868
83337W        W20831   3.803   2.983  22.679 -0.2316 -0.2347 -0.0047
83338W        W20832  15.375  13.153   4.344  0.1268 -0.0864  0.2852
83339W        W20833   7.675  31.518   7.928  0.0341 -0.3095  0.1621
83340W        W20834  26.587  11.016  24.185  0.1653 -0.0755  0.0573
83341W        W20835   4.692  19.446  21.929 -0.1981 -0.0828 -0.1723
83342W        W20836   3.510  14.585  16.139  0.1008  0.0098  0.1932
83343W        W20837   5.158   2.291   5.220  0.1031 -0.2030 -0.0561
83344W        W20838  34.986  22.032  19.680 -0.1822 -0.3767 -0.0685
83345W        W20839  12.397  14.460   6.854 -0.0027  0.0441  0.1991
83346W        W20840  12.215  13.987   4.587  0.0570  0.1211 -0.6268
83347W        W20841  11.735  25.497   2.885 -0.4235  0.1601  0.1775
83348W        W20842  12.813  11.715  19.132  0.0103 -0.1761  0.0424
83349W        W20843  33.192   2.373  24.165  0.1187  0.0359  0.1980
83350W        W20844  32.867  11.239  21.187 -0.3992  0.0791 -0.3697
83351W        W20845  30.083  12.224   7.662 -0.1448  0.0100 -0.0735
83352W        W20846  29.204   4.986  11.004 -0.1471  0.0636  0.0853
83353W        W20847  17.599  19.011  24.704  0.1120  0.0956 -0.1373
83354W        W20848   6.647   2.272   8.262  0.1418 -0.2429  0.1592
83355W        W20849  13.374  31.649   2.426 -0.1499  0.1187  0.1115
83356W        W20850  11.118  29.076   5.643  0.2798 -0.0994  0.0258
83357W        W20851  33.448  12.715  24.394 -0.2591 -0.0206 -0.1234
83358W        W20852   4.186   7.490  20.824 -0.1617 -0.2605  0.0094
83359W        W20853  11.602  26.827  13.109  0.1522 -0.2747  0.1943
83360W        W20854  21.930  28.790  13.279 -0.0181 -0.2654  0.0878
83361W        W20855  17.570  24.590   4.439  0.2449  0.4672  0.0077
83362W        W20856  30.405   7.931  19.509  0.2146  0.0590 -0.1484
83363W        W20857  25.371  33.683  25.226 -0.3589 -0.2117  0.0186
83364W        W20858   9.268  14.266  21.475 -0.0075 -0.0547 -0.1713
83365W        W20859  10.322  24.713   4.999 -0.2692 -0.1104 -0.1017
83366W        W20860  20.475   6.458   7.889  0.0508 -0.0245  0.1545
83367W        W20861  13.227  22.148   3.562  0.2628  0.0861  0.2824
83368W        W20862  16.837   1.081  22.568 -0.1326 -0.0875  0.4480
83369W        W20863  16.645  27.867   0.996 -0.0317 -0.0692 -0.1034
83370W        W20864  11.386  14.980   8.565 -0.3004  0.1665  0.0620
83371W        W20865  11.563  20.253  14.336 -0.1135  0.0797  0.3195
83372W        W20866   1.739  32.502  17.399 -0.0833  0.0666 -0.4999
83373W        W20867  34.566  20.312  23.349 -0.0258 -0.0378  0.0837
83374W        W20868  31.090  12.240  18.135  0.0399  0.0350  0.0252
83375W        W20869  23.551  14.127  24.564  0.0966 -0.0773 -0.2166
83376W        W20870  26.054  28.671   0.157  0.0371 -0.0565 -0.1889
83377W        W20871   5.532  19.185   1.670 -0.0647 -0.0732 -0.0695
83378W        W20872  32.745  19.567  20.396 -0.2573 -0.3023  0.2575
83379W        W20873  32.195  26.305  13.225 -0.2000 -0.3998  0.0042
83380W        W20874   0.990  34.948   7.028  0.0468  0.0877 -0.2288
83381W        W20875  34.791  14.642  16.341  0.1098 -0.1097  0.0627
83382W        W20876  22.658  17.146  22.158  0.1125 -0.2601  0.2351
83383W        W20877   4.591  24.222   1.865  0.1090  0.0565  0.1213
83384W        W20878   8.634  18.111  19.147  0.0139  0.1150  0.2497
83385W        W20879  17.940  19.666  23.737 -0.1436 -0.0097 -0.2544
83386W        W20880  20.968  34.487   0.695 -0.2047  0.0940 -0.3262
83387W        W20881  25.030  24.319  24.927 -0.0023  0.1006  0.1622
83388W        W20882  16.389  19.213   3.692  0.0512 -0.0440  0.0904
83389W        W20883   8.101  10.805  12.285  0.1250  0.0721  0.1275
83390W        W20884   1.427  26.513   7.628  0.0472 -0.0750  0.0196
83391W        W20885   8.838   6.752   4.200 -0.1438 -0.2505  0.0543
83392W        W20886  12.356  33.396  21.807 -0.1489 -0.1647 -0.0701
83393W        W20887   0.998  34.232  20.726  0.0125  0.0340  0.3406
83394W        W20888  11.240   8.855  11.857 -0.0007  0.2164  0.1307
83395W        W20889  20.203  14.730  23.564  0.2781  0.3128  0.0647
83396W        W20890  23.723  14.198  25.323 -0.1710 -0.2049  0.0180
83397W        W20891  33.069   2.327   1.533  0.0107  0.0577  0.3999
83398W        W20892  19.344  28.723   4.185  0.0915 -0.1361 -0.0340
83399W        W20893  24.311  12.952  17.534 -0.3815 -0.1156  0.0447
83400W        W20894   0.236  29.818  22.321 -0.2260  0.0495  0.1185
83401W        W20895  11.105  27.989   9.247 -0.1177  0.3290  0.2534
83402W        W20896  29.330  29.030  19.016  0.1435  0.1568 -0.1393
83403W        W20897  31.614  22.208  11.738  0.0017  0.2089 -0.1072
83404W        W20898  14.521  11.704   4.627 -0.0830  0.2292  0.1814
83405W        W20899  20.249  29.683   3.140  0.0489  0.0818 -0.2962
83406W        W20900  30.529  22.795  23.210 -0.1442 -0.0640  0.0408
83407W        W20901  26.595  16.567  25.964 -0.0954 -0.3078 -0.1517
83408W        W20902   4.586  19.352   4.791  0.0863 -0.4135  0.0467
83409W        W20903  16.887  11.641   7.847  0.0662 -0.2777 -0.0998
83410W        W20904  23.133  15.433  21.455  0.2258 -0.3032  0.2323
83411W        W20905   2.552   3.945  22.086 -0.0360 -0.1880 -0.2119
83412W        W20906  15.190  30.371  11.530  0.0189 -0.1187 -0.2984
83413W        W20907   8.956  15.497   1.331 -0.1608 -0.3504  0.1049
83414W        W20908  20.165  13.094   6.863 -0.1361  0.0667  0.1161
83415W        W20909  13.369  17.078   9.567  0.0156 -0.1427  0.4652
83416W        W20910  12.561   2.668   8.035  0.0606 -0.2143  0.0265
83417W        W20911  25.146   8.656   3.138 -0.0581  0.1677 -0.0242
83418W        W20912  30.143  13.028  20.984  0.0204 -0.0436  0.2540
83419W        W20913  15.520  29.612  24.058  0.2520 -0.2249  0.0258
83420W        W20914  26.697  29.086  25.837  0.1383 -0.2626  0.0695
83421W        W20915  13.460  12.450   0.739 -0.0585 -0.0691  0.1421
83422W        W20916  28.059   3.628   5.328  0.3720 -0.0223  0.1970
83423W        W20917  11.325  15.688  20.506  0.0404 -0.1425 -0.3593
83424W        W20918   3.319  25.676  21.180  0.0899 -0.1249  0.2157
83425W        W20919  25.034   7.694  17.052 -0.0205 -0.0428 -0.0614
83426W        W20920  26.104  32.071  19.164  0.0141  0.2135  0.0908
83427W        W20921   8.421  13.716   5.421 -0.1810 -0.1662 -0.1148
83428W        W20922  18.298  13.276  24.918  0.0187 -0.1147 -0.1852
83429W        W20923  19.296  18.361   4.538  0.1453 -0.1747  0.0706
83430W        W20924  12.458  18.124  22.839 -0.1474  0.0524  0.2118
83431W        W20925  16.413  10.184  24.892 -0.0353  0.1866  0.0312
83432W        W20926  23.555  11.692  18.173  0.0385  0.2068  0.0910
83433W        W20927  19.880  23.133  22.593 -0.1115  0.0293 -0.0791
83434W        W20928  11.820   2.442  24.921 -0.2013  0.1775  0.1315
83435W        W20929  26.581   6.532  14.461 -0.0146 -0.2356 -0.0425
83436W        W20930   7.868  15.230  19.595 -0.3173  0.4129  0.0211
83437W        W20931   4.245  27.998   8.678 -0.1312 -0.1400 -0.0424
83438W        W20932  16.312   1.915  16.891 -0.1764  0.1719  0.1771
83439W        W20933   5.847   7.674  25.245  0.1166 -0.0787 -0.0345
83440W        W20934  21.272   7.748   3.557  0.0601 -0.0357 -0.0274
83441W        W20935  25.766  14.626  22.505  0.2007 -0.1711  0.0474
83442W        W20936  21.214  14.698   4.485  0.4752  0.1154  0.3380
83443W        W20937   2.854  26.547  19.610  0.3661  0.5078 -0.1829
83444W        W20938   1.007  33.912  25.921  0.2443 -0.0963 -0.0351
83445W        W20939  32.436   0.075  18.161 -0.1636  0.1609 -0.1339
83446W        W20940   4.650  25.201   2.995 -0.0581  0.0656 -0.2076
83447W        W20941   1.996  18.387  21.707 -0.2805 -0.2442 -0.0185
83448W        W20942   9.997  22.131   5.232 -0.0300  0.0829  0.2156
83449W        W20943  12.280  30.199   5.932  0.1670 -0.0778  0.0928
83450W        W20944  10.066  20.277  13.199 -0.0763 -0.3631 -0.4242
83451W        W20945  11.237   9.685   6.770 -0.3240 -0.2334 -0.0331
83452W        W20946  22.759  24.513  15.630 -0.1929  0.2313  0.2771
83453W        W20947   6.916  33.803  22.721 -0.0710 -0.1145 -0.2629
83454W        W20948  12.345   2.665  25.227  0.0507 -0.3289 -0.1628
83455W        W20949  10.161  16.718   7.821 -0.1456  0.0894  0.0401
83456W        W20950  27.033  19.623   8.798  0.0791  0.0017 -0.1618
83457W        W20951   9.055  29.392   3.130  0.1364 -0.1298 -0.0811
83458W        W20952   4.328   8.719  19.077 -0.1853 -0.0725 -0.0308
83459W        W20953  13.089  23.209   0.266  0.0892  0.0072  0.0167
83460W        W20954  20.071  28.321  20.755  0.1712 -0.0387 -0.0448
83461W        W20955  24.804  25.090  21.690  0.0433  0.1742 -0.1382
83462W        W20956  16.904  16.933   9.944 -0.0453  0.0314 -0.2207
83463W        W20957  16.737   6.623  19.921  0.0193 -0.0218  0.1052
83464W        W20958  29.573  19.718  14.838  0.2770  0.2895  0.0004
83465W        W20959  15.562   4.778   6.789  0.0509 -0.1487  0.2423
83466W        W20960  32.459   4.366  13.773  0.1391  0.0531 -0.0992
83467W        W20961  18.616   2.207  18.445  0.0477  0.0533  0.1340
83468W        W20962  13.418   7.288   3.849  0.0318  0.0786  0.0507
83469W        W20963   0.784   9.129  12.833 -0.2296 -0.5645 -0.1667
83470W        W20964   0.064   7.941   4.571 -0.0963  0.1606  0.0872
83471W        W20965  27.118  17.145   0.019  0.4409 -0.0084  0.0198
83472W        W20966  24.861  25.785  20.106  0.1638 -0.2619 -0.0506
83473W        W20967  10.308  19.248  10.156  0.2583  0.1047 -0.0608
83474W        W20968  31.002  30.751   1.974  0.3734 -0.0411  0.0131
83475W        W20969   7.238   6.713   9.737 -0.1520 -0.0664  0.0933
83476W        W20970  26.390   4.521  14.978 -0.2166  0.1034 -0.2494
83477W        W20971  12.646   4.443  24.427 -0.3272  0.3201  0.0578
83478W        W20972  15.237  24.081  22.718 -0.0036 -0.2218 -0.0807
83479W        W20973  15.696   0.775  24.133 -0.4937  0.2358  0.3837
83480W        W20974   9.453  25.226  23.244  0.0133 -0.1568  0.0252
83481W        W20975  35.218  29.531  22.104 -0.0221 -0.3109  0.2397
83482W        W20976   8.104   5.676   7.006 -0.0574  0.0671  0.1684
83483W        W20977  22.136   5.061   4.715 -0.2588  0.2511  0.0681
83484W        W20978  24.122   4.607  17.190 -0.0636  0.0056  0.0847
83485W        W20979  25.707   0.387  14.902 -0.3316  0.1134  0.3682
83486W        W20980   8.606  15.916   7.073 -0.0397 -0.2505 -0.0002
83487W        W20981  32.523  21.067  25.380 -0.1410 -0.0323  0.0425
83488W        W20982  15.172  13.979  24.994 -0.0089  0.1982 -0.4370
83489W        W20983  31.897   0.202  13.999  0.1269 -0.0016 -0.0791
83490W        W20984  11.229   5.474   5.687  0.2893 -0.1449 -0.2750
83491W        W20985  24.394   6.641  14.039 -0.1518  0.1754  0.3486
83492W        W20986   6.942  15.526  24.844 -0.0701 -0.0509 -0.2592
83493W        W20987  22.492  24.447  19.729  0.2861 -0.0200 -0.1268
83494W        W20988   6.482  17.787  11.361  0.0237  0.1336  0.1458
83495W        W20989  25.015  31.903  14.725  0.4675  0.0025  0.0210
83496W        W20990  24.085  33.979  17.141  0.1754 -0.0407 -0.0351
83497W        W20991   2.852   5.769   0.372  0.2200  0.0928 -0.4114
83498W        W20992  14.161  18.397  21.151 -0.1533  0.3271  0.1866
83499W        W20993   7.707   0.235   6.707  0.0835  0.4396  0.0240
83500W        W20994  18.564  11.752  20.395  0.1923  0.0531  0.0332
83501W        W20995   8.232  23.502   4.222  0.1703  0.1955 -0.1142
83502W        W20996  34.169  18.776  14.862  0.2767 -0.0295 -0.0406
83503W        W20997   8.456  11.145  19.762 -0.1088 -0.1528  0.2818
83504W        W20998   6.472   7.872   4.446 -0.2007 -0.1972  0.0184
83505W        W20999   6.684   0.184   7.569 -0.0657 -0.0346  0.0055
83506W        W21000  13.579  17.885   7.066  0.1155  0.1235 -0.2457
83507W        W21001   2.448  28.687  22.504  0.1184 -0.0535 -0.1039
83508W        W21002  29.159  21.146  20.570  0.0778  0.2948 -0.1217
83509W        W21003  22.301  18.481   3.819  0.1156 -0.1661 -0.1036
83510W        W21004  14.970   2.841  25.463 -0.2238  0.0061 -0.2329
83511W        W21005  10.031   0.340   3.053  0.2982 -0.0365 -0.0321
83512W        W21006  22.267  26.203   2.038  0.0517  0.1179  0.0262
83513W        W21007  26.830  21.916  18.172  0.0516 -0.3218  0.0979
83514W        W21008   7.870  29.078  21.560  0.2001  0.3340  0.0988
83515W        W21009  35.371   2.657   6.860  0.1915 -0.2587 -0.0375
83516W        W21010   2.452  33.460   1.108  0.0500 -0.0953  0.0987
83517W        W21011   2.940   4.028   0.734  0.3675 -0.0321 -0.0186
83518W        W21012  18.232   6.940  18.718 -0.0625 -0.1000 -0.1334
83519W        W21013   9.117  23.204  22.169  0.0027  0.0495 -0.0198
83520W        W21014  31.508  22.884  23.258 -0.1729 -0.2571  0.1300
83521W        W21015  25.831   0.697   1.296  0.2531  0.0544 -0.4394
83522W        W21016  30.804  11.997  24.607 -0.1557  0.1850  0.1764
83523W        W21017  34.232  13.253  17.315  0.2477  0.0438 -0.0120
83524W        W21018  18.593  32.066   6.448  0.4405 -0.1376 -0.0839
83525W        W21019  12.129  33.644   8.892 -0.2358 -0.1297  0.2029
83526W        W21020  34.702   4.883   2.747 -0.2519 -0.0043  0.1248
83527W        W21021  15.637  29.852   0.222  0.1894 -0.2678 -0.1018
83528W        W21022  18.304  16.304   6.764  0.1800  0.1954 -0.0539
83529W        W21023  20.133   6.558  17.704 -0.0346 -0.2578 -0.0165
83530W        W21024   5.074  24.039   6.053  0.3846 -0.1299 -0.1896
83531W        W21025   1.803  11.466   3.305 -0.0232 -0.1022 -0.1676
83532W        W21026  25.866  18.666  25.061  0.0468 -0.1151  0.1795
83533W        W21027  24.127  23.772  24.294 -0.1768  0.3701  0.1602
83534W        W21028   3.324   3.640  23.695 -0.1281  0.0681 -0.0816
83535W        W21029   8.550   0.597  12.848  0.2272 -0.2358  0.0344
83536W        W21030  25.682   2.284  16.494 -0.1174  0.1957 -0.1243
83537W        W21031  34.610  14.541  22.817  0.0961 -0.0790  0.0832
83538W        W21032  18.289  18.717  23.680  0.2487 -0.0574  0.1714
83539W        W21033  11.900  18.003   2.889  0.1884 -0.0488 -0.0418
83540W        W21034  15.120  19.091  22.521  0.1263  0.0337  0.1984
83541W        W21035  22.513  25.796  21.220 -0.2016 -0.0286 -0.0259
83542W        W21036  23.386  20.969  14.919  0.0175 -0.1067  0.2286
83543W        W21037  31.413   5.479  24.675 -0.1226 -0.1624  0.1099
83544W        W21038   8.914  27.982   3.991 -0.0493 -0.2462 -0.2645
83545W        W21039  29.530   3.750  12.696 -0.0972 -0.1245  0.2210
83546W        W21040   5.721   3.458  19.286 -0.0610 -0.1593 -0.0792
83547W        W21041  16.358   9.431  22.358  0.0545  0.2753  0.0056
83548W        W21042   4.077   9.112   3.784  0.0232  0.2416  0.0083
83549W        W21043  15.492  25.938   5.743 -0.0840  0.0003 -0.0548
83550W        W21044   6.166  28.008  13.077 -0.0460 -0.1971 -0.1201
83551W        W21045  28.384   7.211   9.819  0.2595  0.1513 -0.2476
83552W        W21046  13.136  15.133  13.288 -0.1089  0.1388 -0.0303
83553W        W21047  15.051  35.324  10.293 -0.3819 -0.1937  0.1481
83554W        W21048  17.445  10.359  19.265 -0.1366 -0.1001  0.0853
83555W        W21049  30.126  18.763   5.734 -0.1887  0.0556  0.4332
83556W        W21050   5.993   5.275   6.613  0.0448  0.0487 -0.0911
83557W        W21051  30.587  32.821  16.847  0.0060  0.0756 -0.1224
83558W        W21052  14.975  17.394   7.706 -0.3083  0.0337  0.2148
83559W        W21053  22.747   1.057  13.949  0.2574  0.0665  0.2198
83560W        W21054  19.779  14.320  16.627 -0.0935 -0.3700  0.3107
83561W        W21055   6.115  18.386  20.245  0.3543 -0.0823 -0.0550
83562W        W21056  11.726   0.485  25.589 -0.0750 -0.1275  0.0552
83563W        W21057  19.679   3.809  19.538 -0.0003 -0.1027 -0.3537
83564W        W21058  27.430  23.888  25.095  0.0567 -0.0883  0.0079
83565W        W21059  35.035  19.187  22.819  0.0540 -0.1020  0.0204
83566W        W21060   5.280  17.439   0.592 -0.3504  0.1498  0.0255
83567W        W21061  31.416  23.893   9.435 -0.2287 -0.0620  0.1176
83568W        W21062  13.603  24.124   5.845  0.0732 -0.0149 -0.0678
83569W        W21063  14.345  19.174   7.798  0.0457 -0.1075  0.2031
83570W        W21064  13.164  22.445  24.793 -0.3197 -0.0430 -0.1811
83571W        W21065  10.464   4.249  25.653  0.2202 -0.0918 -0.1888
83572W        W21066   8.175  11.451   6.969 -0.1725  0.2695 -0.2606
83573W        W21067  16.971  32.975   2.773  0.1134  0.0063  0.2818
83574W        W21068  25.098  33.308   4.724 -0.0165 -0.0681  0.1737
83575W        W21069   0.889  32.438   1.651  0.1009 -0.0588  0.2108
83576W        W21070   1.999  11.511  18.603  0.0880 -0.2636  0.2204
83577W        W21071  11.148  31.486   9.755  0.2985  0.0146 -0.0408
83578W        W21072  13.307   1.707   7.851  0.3365 -0.2551 -0.2327
83579W        W21073   8.145   6.731  18.767  0.0344 -0.2735 -0.0056
83580W        W21074  30.287  17.732  19.712 -0.0620  0.0233  0.1888
83581W        W21075  22.955   4.819  19.662 -0.3310 -0.2427  0.1089
83582W        W21076  30.516  22.274  14.896  0.0028  0.3362  0.0063
83583W        W21077   3.850  19.888   4.790 -0.0857 -0.0738 -0.2087
83584W        W21078  30.999  35.316  21.995 -0.1742  0.0479 -0.1812
83585W        W21079  19.010   0.052  20.474  0.1071  0.2397 -0.0238
83586W        W21080  32.138   2.383  15.951 -0.0161  0.3258  0.3325
83587W        W21081  25.304  10.362  14.883 -0.3585 -0.2275  0.2833
83588W        W21082  32.236  32.713   3.211  0.3776 -0.1130 -0.0716
83589W        W21083   2.403   0.055   4.461 -0.2969 -0.1000  0.0338
83590W        W21084  23.802  10.122  12.650 -0.2969  0.0108 -0.1211
83591W        W21085  17.081  34.161   0.316 -0.0760 -0.0212  0.0704
83592W        W21086  12.065  33.565  11.976 -0.0021 -0.3691  0.2246
83593W        W21087   9.360   3.303   3.977  0.1494  0.4479  0.1022
83594W        W21088  31.078  31.602   2.148 -0.0021 -0.0952 -0.0048
83595W        W21089   8.451  24.714  13.149  0.1167  0.1709 -0.1244
83596W        W21090   9.518  33.996   8.178  0.2565  0.1415 -0.1514
83597W        W21091  33.631  15.144  23.205  0.3772 -0.2132 -0.2265
83598W        W21092   9.761  31.059  24.856  0.0296  0.2445  0.2632
83599W        W21093  28.326  16.105  14.114  0.0756 -0.0958 -0.0375
83600W        W21094   9.016  10.641   4.469 -0.1289  0.0375  0.0391
83601W        W21095  33.518  11.837  23.990 -0.1069 -0.0279  0.2677
83602W        W21096  23.721  20.867   0.269  0.0004 -0.2558  0.1570
83603W        W21097  26.451  30.245  20.463  0.2276 -0.1783  0.2119
83604W        W21098   4.166  29.820   1.569  0.0520  0.1687 -0.1159
83605W        W21099  32.837   6.022   1.327 -0.1141  0.1540 -0.2689
83606W        W21100  10.472   0.525  20.811 -0.1985 -0.1457 -0.0200
83607W        W21101   8.428   1.779  11.259 -0.0181 -0.0808 -0.0402
83608W        W21102  17.992  24.248  20.916 -0.5315 -0.1477  0.2558
83609W        W21103  28.820  35.345   4.758  0.0158  0.0120 -0.2397
83610W        W21104  15.362  35.159   4.581 -0.3617 -0.2182 -0.0632
83611W        W21105  29.545   5.982   9.460  0.0414  0.0630  0.2415
83612W        W21106   2.539  34.648  16.724 -0.0086  0.1160 -0.5285
83613W        W21107  16.404  31.285  20.108  0.3213  0.2618  0.0229
83614W        W21108  17.476  30.591   4.242 -0.1308  0.0842 -0.1819
83615W        W21109  19.780  14.261  22.687 -0.0314 -0.1398  0.0158
83616W        W21110  16.860  10.489   8.334 -0.1792  0.2208 -0.1222
83617W        W21111  15.824  22.631  22.273 -0.0625 -0.0442 -0.2031
83618W        W21112  21.951  24.269  23.414 -0.0032 -0.1096 -0.1985
83619W        W21113  12.135  18.103  21.686 -0.3408  0.2819 -0.2121
83620W        W21114  26.824  11.730  11.471 -0.0766 -0.2476 -0.0415
83621W        W21115  33.067  18.832  16.887 -0.0617  0.1178 -0.1083
83622W        W21116  10.591  33.838  10.022 -0.2079  0.2939  0.0887
83623W        W21117  24.996  28.656   3.745 -0.1360 -0.6177  0.3623
83624W        W21118  15.828   0.720   8.200 -0.2256 -0.0115 -0.2076
83625W        W21119  30.430  35.013   3.857  0.2757  0.4154  0.1043
83626W        W21120  16.981  23.975   5.118 -0.2317 -0.1748  0.2609
83627W        W21121  30.715  27.603  10.903  0.3862 -0.0957  0.2650
83628W        W21122  17.519  25.169   1.283 -0.2082  0.2204 -0.0332
83629W        W21123  22.830  27.147  24.975 -0.0440 -0.2639 -0.0818
83630W        W21124  34.846  22.500  18.830  0.2771  0.1415 -0.0195
83631W        W21125  18.231   9.496  19.485 -0.2648  0.2605 -0.2409
83632W        W21126  14.483   8.596   0.623 -0.0264  0.2303 -0.0193
83633W        W21127  33.114  35.302  23.573 -0.1714  0.1058  0.0678
83634W        W21128  20.757   5.708   7.311  0.1427 -0.0260 -0.4463
83635W        W21129  30.614  26.394  21.272 -0.1151 -0.0550 -0.1268
83636W        W21130  15.549  32.581   5.326  0.3984 -0.0061 -0.2326
83637W        W21131  33.726  13.329   0.437  0.2740  0.0086  0.2813
83638W        W21132  22.697   9.962  18.563  0.0418  0.2746  0.2148
83639W        W21133   2.982  20.954  25.267  0.0095 -0.1554  0.1768
83640W        W21134  28.612  18.944  17.433 -0.2569  0.1597 -0.0037
83641W        W21135   6.830  12.509   0.985 -0.1160 -0.2610  0.1177
83642W        W21136  30.200  28.218  24.519 -0.1457  0.1325  0.1455
83643W        W21137   5.586  13.689  18.720 -0.1439  0.3452 -0.2460
83644W        W21138  23.544  19.364  22.776  0.1309  0.3267 -0.2558
83645W        W21139   1.584   5.239   4.846 -0.2296 -0.0222 -0.0902
83646W        W21140   4.271  32.475   3.929  0.2622  0.0553  0.1224
83647W        W21141   3.396  22.684  20.112  0.0355  0.0895 -0.0102
83648W        W21142  11.187  14.739  25.035 -0.4101  0.1166  0.0276
83649W        W21143  34.741  16.326   9.278  0.1987  0.1641 -0.0631
83650W        W21144  27.645  24.254  10.135 -0.0902  0.0055  0.1711
83651W        W21145  11.869   1.709  21.239 -0.0324  0.0329  0.1564
83652W        W21146  18.468  20.565  24.163  0.1364 -0.0047  0.0437
83653W        W21147   1.687   2.290   5.334 -0.0331 -0.1642 -0.0680
83654W        W21148  21.059  18.803   1.882 -0.2223  0.5120 -0.0719
83655W        W21149  10.194  21.023  16.119 -0.0487 -0.0383  0.2148
83656W        W21150   6.711  14.531   3.101  0.0986 -0.3866 -0.0854
83657W        W21151   6.183  28.611   6.647  0.2756  0.2625  0.2979
83658W        W21152  15.046   3.047  18.630 -0.0772  0.2203  0.1357
83659W        W21153  17.509  12.736  24.812 -0.2836  0.2031 -0.1771
83660W        W21154  14.830  22.377  25.622 -0.0281 -0.0009  0.0179
83661W        W21155  22.896  12.781  20.905 -0.0703  0.0611  0.0676
83662W        W21156  25.370  18.219  23.981  0.0680  0.3528  0.1923
83663W        W21157  11.605   4.970   0.153 -0.0463 -0.1420  0.0585
83664W        W21158  28.181  26.349  13.413 -0.1578  0.0747 -0.2034
83665W        W21159  21.048   8.335   2.119 -0.2415 -0.0766  0.4740
83666W        W21160  22.809   1.825   4.852 -0.0830  0.0132 -0.3896
83667W        W21161  26.329  29.739  10.965 -0.0380 -0.0640 -0.4413
83668W        W21162   1.497   2.824   7.824  0.0655  0.1623  0.4948
83669W        W21163  20.420  17.188  22.663 -0.0674 -0.4707 -0.0714
83670W        W21164  24.642  33.720   0.271 -0.2314  0.1441  0.0209
83671W        W21165  34.818  23.125  20.944 -0.0956 -0.2228 -0.2116
83672W        W21166  16.440   6.441   6.680 -0.0797  0.1359 -0.1082
83673W        W21167  30.622   8.120  14.731  0.0632 -0.2781  0.0445
83674W        W21168  23.939  13.027  21.261 -0.0239  0.0259 -0.0824
83675W        W21169  26.480  18.964  24.338 -0.1735  0.0396  0.2403
83676W        W21170   7.627  27.439  16.357  0.1971 -0.4034 -0.0097
83677W        W21171  21.887  25.875   1.080 -0.3627  0.2123  0.3049
83678W        W21172   5.495   5.198   3.997 -0.2720  0.0751  0.2216
83679W        W21173  27.401  28.228  21.589  0.1098 -0.1140  0.0131
83680W        W21174  12.916  31.201  24.758  0.0321 -0.1945  0.4141
83681W        W21175  24.547  13.079  24.463 -0.0591 -0.1094 -0.0352
83682W        W21176  19.165  19.573  21.111 -0.1839  0.0159 -0.1644
83683W        W21177   8.520  10.206   6.813 -0.1349  0.0924  0.1259
83684W        W21178  31.023  19.169   5.370 -0.1392 -0.5826 -0.2346
83685W        W21179  13.202  29.633   3.133  0.0625  0.1237  0.0135
83686W        W21180  30.603  26.853  15.089  0.1096  0.0379  0.0561
83687W        W21181  16.448  29.360   0.641 -0.0014  0.0849  0.1629
83688W        W21182   4.549  12.783   2.000 -0.3163  0.2619  0.1317
83689W        W21183  14.475  35.177  11.791 -0.0882 -0.0006  0.2405
83690W        W21184  13.708   8.652  11.604 -0.2376 -0.0377  0.0726
83691W        W21185   5.716  16.992  22.071  0.1949  0.2082  0.2830
83692W        W21186  27.343   9.503  20.613 -0.0751 -0.2750 -0.1806
83693W        W21187   6.218  13.705   6.445  0.0952  0.3487 -0.1683
83694W        W21188  12.005   2.645  21.970  0.0420 -0.3429  0.0514
83695W        W21189  26.009   3.853  24.720  0.0353  0.1597  0.1624
83696W        W21190  13.526   9.518  14.302 -0.0150  0.0183 -0.1453
83697W        W21191  25.498  14.989  20.324  0.2757  0.1251  0.0852
83698W        W21192  10.426  11.929  12.936 -0.3620  0.1301  0.0837
83699W        W21193  13.077  25.518  14.883  0.2264  0.0382 -0.1252
83700W        W21194  28.610  24.501  23.483 -0.0269 -0.1513 -0.1646
83701W        W21195  27.235  31.220  25.514 -0.2957  0.0624  0.2642
83702W        W21196   9.006  13.194   3.324  0.1416 -0.3740 -0.1814
83703W        W21197   1.299   6.885  21.724  0.1949  0.0678  0.0925
83704W        W21198  18.308  17.168  12.402 -0.3646  0.0765 -0.0045
83705W        W21199   9.206  22.088  23.499 -0.0744  0.3842  0.1293
83706W        W21200   3.039  14.417   1.410 -0.0044 -0.0769  0.0658
83707W        W21201  11.609  26.432   1.323  0.1529 -0.0019 -0.3078
83708W        W21202   3.188  32.106   8.370 -0.1613 -0.0614  0.0050
83709W        W21203  14.930   2.213   3.905 -0.0917  0.1264  0.3181
83710W        W21204   5.599  14.085  24.825  0.1903  0.0401  0.0003
83711W        W21205  30.466  14.013  14.007  0.1288 -0.1215  0.3809
83712W        W21206  18.618  11.601  26.094 -0.0155 -0.2541  0.0132
83713W        W21207   4.255  28.912  12.228  0.1522  0.0008  0.2828
83714W        W21208  18.896  18.168   0.079 -0.3158  0.6176 -0.1504
83715W        W21209   6.227  13.267  16.333 -0.1200 -0.1691 -0.1518
83716W        W21210  23.229   8.166  17.286  0.0618  0.2636 -0.1522
83717W        W21211  21.894  12.044  23.598  0.1599  0.0940 -0.0349
83718W        W21212   5.781  17.272  23.089  0.0833 -0.1860 -0.0756
83719W        W21213  35.211  18.227  23.344 -0.3128  0.0215  0.1197
83720W        W21214   8.091   9.279   1.620 -0.0766  0.1682  0.1191
83721W        W21215   9.636  21.281   2.590  0.0234 -0.1088  0.4006
83722W        W21216  33.250  18.015  22.836  0.1743 -0.0862 -0.0916
83723W        W21217   3.793  34.113  20.240 -0.1563  0.3573 -0.0126
83724W        W21218   7.918  19.661   3.790 -0.0278  0.5303 -0.1713
83725W        W21219  12.126   3.594  11.297 -0.0704 -0.1800  0.3227
83726W        W21220   9.434  24.090  23.241  0.1524  0.0205 -0.1757
83727W        W21221  27.164  30.966  11.591 -0.2558 -0.0589 -0.0419
83728W        W21222   2.759  18.976   2.931  0.0459  0.3123 -0.0834
83729W        W21223  17.861  17.623   4.569 -0.0675 -0.0294 -0.0536
83730W        W21224  26.629  11.347  22.105  0.0786 -0.2345 -0.0297
83731W        W21225  22.689  19.520  21.560 -0.1102  0.0769  0.0337
83732W        W21226  28.570  30.815   4.612 -0.0628  0.3315 -0.1719
83733W        W21227  31.255  16.935   7.463 -0.1311  0.0883 -0.1331
83734W        W21228  16.348  33.172  25.408 -0.1309  0.2198 -0.1679
83735W        W21229  26.856   0.302  13.830  0.0420  0.1918 -0.0689
83736W        W21230  11.994  29.254   0.107 -0.0776  0.2585  0.3691
83737W        W21231  22.083   8.453   7.417 -0.1959  0.1169 -0.1361
83738W        W21232   6.423   5.099  24.170 -0.1188  0.0387  0.0090
83739W        W21233   2.204  12.326   0.039 -0.2261  0.1842  0.0439
83740W        W21234  26.761  16.282   0.093  0.2017 -0.0352  0.2030
83741W        W21235  14.538  30.961  12.201  0.1630 -0.0488  0.0055
83742W        W21236  14.898  18.438  24.095  0.0495 -0.1529 -0.0716
83743W        W21237  20.075  19.573  19.959  0.3309 -0.1032 -0.1240
83744W        W21238  16.393  24.457  12.213  0.3937  0.4152 -0.0530
83745W        W21239  14.774  23.180   2.710  0.0113  0.1422  0.1839
83746W        W21240   7.794  25.829  26.003  0.2989 -0.2758  0.1189
83747W        W21241   7.502  12.942  25.151  0.2136 -0.2211 -0.1436
83748W        W21242  33.148  10.963  19.974 -0.0977 -0.0209 -0.0441
83749W        W21243   0.371  22.704  20.579  0.0059  0.1602 -0.0560
83750W        W21244  22.375  24.907  17.256  0.1379 -0.1614 -0.0892
83751W        W21245  26.177  28.338   0.591 -0.0817 -0.1695 -0.0064
83752W        W21246  31.397  13.844  16.693 -0.1820  0.2800  0.0363
83753W        W21247   5.464  30.158  24.575  0.0613  0.0152  0.2834
83754W        W21248  34.062  22.952  22.515 -0.1917  0.0534 -0.0775
83755W        W21249  31.807  17.433  19.837 -0.0423 -0.2119 -0.0526
83756W        W21250  11.192  25.700  10.593  0.0553 -0.3095 -0.1792
83757W        W21251   3.250   2.170  23.197  0.2802  0.1372 -0.1440
83758W        W21252   3.573  13.383  25.814  0.1952 -0.2452  0.0397
83759W        W21253  34.387  22.322  16.187  0.3787  0.0566  0.0230
83760W        W21254   5.281  14.268   5.668 -0.0022  0.1529 -0.4248
83761W        W21255  25.443   5.905  13.587 -0.5804 -0.1896  0.2691
83762W        W21256  13.351  30.253  23.904  0.2887  0.2570 -0.3163
83763W        W21257   8.272  15.306   4.419 -0.2350  0.0628  0.0197
83764W        W21258  16.433  26.854   9.148 -0.1470 -0.2081 -0.1544
83765W        W21259   6.522   9.851  19.761 -0.2111  0.4342  0.1498
83766W        W21260   0.388  30.744  23.605  0.0233 -0.2789  0.1340
83767W        W21261  14.697  18.409   7.495 -0.0538 -0.1794  0.1446
83768W        W21262   8.433   9.205  19.756 -0.0474 -0.0628  0.1461
83769W        W21263  27.625  26.961   0.879  0.1646 -0.1933  0.0564
83770W        W21264  11.142   9.082  21.173 -0.1200  0.0288 -0.0807
83771W        W21265  31.062  28.759  17.857 -0.1927 -0.2084 -0.3129
83772W        W21266  25.843   7.070  14.757 -0.1328  0.0440  0.0567
83773W        W21267  11.673  15.266  24.441  0.1155 -0.3976 -0.0916
83774W        W21268   1.899  10.031  16.681 -0.0734  0.3432 -0.1757
83775W        W21269  11.017  10.163   8.780 -0.2232  0.0518  0.3680
83776W        W21270  14.578  30.895   4.498  0.1973 -0.2489 -0.1595
83777W        W21271  22.905   6.442   6.733  0.1521 -0.1024  0.2198
83778W        W21272   6.776  18.946   3.633  0.1833  0.0236 -0.0076
83779W        W21273   6.098   6.920  18.834 -0.1590  0.0265 -0.1831
83780W        W21274   6.025   7.476   0.491  0.2329  0.0306  0.4080
83781W        W21275  22.044  16.159  22.951  0.0576 -0.0433  0.1658
83782W        W21276  14.077  24.633   2.142 -0.0747 -0.1272  0.0954
83783W        W21277  33.450  21.089  11.861  0.0013 -0.0410  0.0449
83784W        W21278  12.011  12.814  25.180  0.1170  0.0855 -0.0169
83785W        W21279   3.778   0.594   9.509 -0.0037 -0.1450 -0.2332
83786W        W21280   6.698  24.255   9.523 -0.0822  0.1292  0.2235
83787W        W21281  23.284   4.227  16.046  0.2187 -0.0135  0.1165
83788W        W21282  26.153   8.393  12.872 -0.1369  0.1100  0.1125
83789W        W21283  16.687  12.385   2.988  0.0541 -0.1095  0.1456
83790W        W21284  17.089  13.586  18.518 -0.0195  0.4164  0.0049
83791W        W21285   9.177  20.823   0.925 -0.0406  0.1023 -0.0686
83792W        W21286  33.981   7.818  18.311  0.2145 -0.1078  0.0213
83793W        W21287  20.024   2.827  16.034  0.1398  0.0706 -0.0145
83794W        W21288  19.577   8.495  22.032  0.1407  0.2600 -0.2790
83795W        W21289  20.470   2.753  20.827 -0.2368 -0.3058 -0.1622
83796W        W21290  29.411  34.905  24.892 -0.2261 -0.0798  0.0326
83797W        W21291  10.231  32.316  25.004 -0.0627 -0.2182  0.2225
83798W        W21292   0.885  30.814  23.925  0.0756  0.1788  0.1002
83799W        W21293  22.252   2.486  24.637 -0.1917  0.2106 -0.0646
83800W        W21294  22.070  10.391   0.730  0.3363 -0.0784  0.0206
83801W        W21295  11.745  21.698  11.293  0.0249  0.1118 -0.0360
83802W        W21296  25.297   8.841  13.091  0.0006  0.0377 -0.2584
83803W        W21297  10.362  34.135  21.946  0.3085  0.0706 -0.1788
83804W        W21298  19.157  22.241   5.550  0.0804  0.0879  0.0848
83805W        W21299  15.712  16.935   2.384  0.1619  0.0350 -0.0141
83806W        W21300  28.062  11.656   7.246  0.1202  0.1237  0.1127
83807W        W21301  16.417  34.344  18.489  0.0761 -0.2452 -0.4037
83808W        W21302  16.410  30.983   1.191  0.2006  0.0253 -0.1084
83809W        W21303  28.360  11.040  21.512 -0.2021  0.4353 -0.3985
83810W        W21304  34.961  32.274  17.080 -0.0133 -0.2972  0.1809
83811W        W21305  19.010  27.899   3.442  0.0385  0.2574 -0.1308
83812W        W21306  11.382   6.232   5.123  0.1852 -0.1494  0.3172
83813W        W21307   0.457  28.365  15.165  0.1433 -0.1015 -0.1066
83814W        W21308  31.894   4.359   2.053  0.2531  0.1025  0.1690
83815W        W21309  26.185  21.590  17.475  0.2482 -0.0832 -0.1378
83816W        W21310  24.582   9.020  19.924 -0.1967  0.0899  0.1659
83817W        W21311  11.813  19.046   9.809 -0.0921  0.2523  0.2862
83818W        W21312  31.108   4.620  12.624 -0.0008  0.0777  0.0289
83819W        W21313  28.097  18.893  23.122 -0.3348  0.0495 -0.1613
83820W        W21314  14.836  32.002   5.317 -0.1814 -0.0711  0.2560
83821W        W21315  27.578  29.586   0.670  0.0438  0.1567  0.1479
83822W        W21316   0.242  27.671  22.763 -0.1905 -0.1450  0.3200
83823W        W21317  24.991  23.010  15.738  0.1403  0.1469  0.1803
83824W        W21318  17.059   9.212   6.617 -0.1539  0.1082 -0.0890
83825W        W21319  14.272  12.782   4.615 -0.3527 -0.2295 -0.2977
83826W        W21320  15.007   9.360  11.682  0.1164  0.1519 -0.0485
83827W        W21321   9.368   3.874   0.467 -0.4454  0.1372  0.0016
83828W        W21322  32.791  14.292   8.131  0.0220  0.3110 -0.0346
83829W        W21323  20.943   5.830   8.490 -0.2669 -0.0493  0.2009
83830W        W21324   6.146  28.840   2.395  0.1886  0.1500  0.2280
83831W        W21325   3.433  26.964   7.263 -0.2646 -0.2168 -0.0720
83832W        W21326  35.188   6.419  19.609 -0.0863  0.0207 -0.0457
83833W        W21327  21.992  21.040  24.641  0.1924  0.0169 -0.0828
83834W        W21328  23.638  16.184  21.684 -0.1123  0.1073 -0.0153
83835W        W21329  21.055  23.596  17.176 -0.0793  0.1093  0.1429
83836W        W21330   6.738  17.910   1.985  0.1771  0.2668 -0.0442
83837W        W21331  18.233  26.446  21.162  0.0887 -0.4847 -0.0996
83838W        W21332  15.121  28.298  24.970 -0.1645 -0.0672  0.1081
83839W        W21333  24.344   3.315  18.471  0.1971  0.2928  0.0647
83840W        W21334   7.419  24.125   2.520  0.1296 -0.2798  0.0955
83841W        W21335  14.403   7.079   8.560  0.2310  0.4242  0.1938
83842W        W21336   9.271  25.027   6.317  0.0811 -0.2107 -0.3107
83843W        W21337   5.454  17.464  17.286  0.0561  0.1354  0.1733
83844W        W21338  19.781  12.397  25.657  0.3502  0.0015  0.1770
83845W        W21339   7.432  33.151   6.313  0.1798  0.1521  0.2318
83846W        W21340  11.378  32.781   9.939 -0.0354  0.0301  0.0062
83847W        W21341  20.111  12.653   1.562 -0.0172  0.0886  0.1338
83848W        W21342  10.828  12.583  10.265 -0.1607 -0.1254  0.0820
83849W        W21343  29.003   5.858  25.538 -0.0774  0.2348 -0.0781
83850W        W21344   0.402  28.370   7.297 -0.1185  0.0273  0.2568
83851W        W21345   9.377  21.100  13.945 -0.3450  0.0012 -0.0080
83852W        W21346  35.118  34.740  21.054  0.0395  0.1225  0.0660
83853W        W21347   2.588   4.483   6.375  0.2380 -0.1907 -0.3993
83854W        W21348  33.367  14.082  17.837  0.1682 -0.1826  0.2481
83855W        W21349  14.470  27.256  10.273  0.1265 -0.0590 -0.2165
83856W        W21350   4.314  32.678   0.798  0.1381  0.1077 -0.2685
83857W        W21351   3.347   2.806  17.775 -0.0293  0.0532  0.3067
83858W        W21352   5.709   5.145  24.904 -0.0534  0.4453  0.0629
83859W        W21353  35.097   7.345  22.159  0.0314 -0.1121  0.0818
83860W        W21354  27.711   0.718  12.012  0.0232 -0.0545 -0.0543
83861W        W21355   3.053  22.610   2.483 -0.0539 -0.4535  0.4430
83862W        W21356  25.952   4.908  17.651  0.3544 -0.1864 -0.0133
83863W        W21357  22.599  35.159   6.654  0.1610  0.0114  0.4228
83864W        W21358  33.371  23.149  21.760  0.4463 -0.0306 -0.3574
83865W        W21359  14.296  10.579  23.585  0.0175  0.0654 -0.3798
83866W        W21360  34.620  27.034  19.631  0.1748  0.0272  0.0833
83867W        W21361  11.213   6.787  11.498 -0.0875 -0.2923 -0.0276
83868W        W21362  20.675   9.752  17.851 -0.3244  0.2294  0.0020
83869W        W21363  33.660  30.565  17.687 -0.0062  0.0901  0.0565
83870W        W21364  10.518   3.855   2.708  0.0190  0.0975 -0.1378
83871W        W21365  34.901  18.946  24.110  0.1270  0.0885 -0.0410
83872W        W21366  22.255  13.448  21.970 -0.0094  0.2091 -0.0233
83873W        W21367  26.563   6.113  22.412  0.0247  0.1344 -0.3712
83874W        W21368   3.113   6.602  20.225 -0.0580 -0.0458  0.1746
83875W        W21369  16.790  13.786   3.319  0.3397  0.0667  0.1425
83876W        W21370   2.701  31.928  10.069 -0.1046  0.0213  0.2676
83877W        W21371   3.778   9.156  26.074 -0.1984 -0.0282 -0.0994
83878W        W21372  16.705  18.950   8.341 -0.3263  0.0355  0.0223
83879W        W21373  24.496   0.530   2.362  0.1097 -0.1559  0.1341
83880W        W21374  14.957  18.946   9.520 -0.2390  0.1571  0.0911
83881W        W21375  35.191  11.023   9.444  0.1263 -0.2043 -0.0237
83882W        W21376  26.025  34.618  16.608 -0.0601  0.0974  0.1085
83883W        W21377   1.234  34.649  25.622  0.1691  0.1276  0.0363
83884W        W21378  12.876   9.057  14.392 -0.1890 -0.0547  0.0796
83885W        W21379  10.333  22.707  23.822  0.1686  0.3436  0.0152
83886W        W21380  32.768  21.194  20.948  0.1340 -0.0571 -0.2249
83887W        W21381  11.319  23.446   4.109 -0.1349 -0.1506 -0.1787
83888W        W21382  12.621   3.695   9.648  0.0244 -0.1175 -0.1986
83889W        W21383  28.980  22.944  15.706 -0.0453 -0.2598  0.1715
83890W        W21384   1.327  25.826   2.421 -0.1816 -0.1212  0.0082
83891W        W21385   1.111  10.423  13.500  0.1100 -0.0648 -0.3785
83892W        W21386  30.564  29.528  26.140 -0.0055 -0.1379  0.0016
83893W        W21387  29.849  21.479   4.663  0.2393 -0.0425 -0.2416
83894W        W21388  28.396  17.252   5.195  0.0959  0.0731 -0.5713
83895W        W21389  29.120  23.715  10.341 -0.1872  0.3924  0.1073
83896W        W21390  31.582  12.849  18.582 -0.1237  0.2969  0.1178
83897W        W21391  13.821  23.711   9.195  0.0515  0.1433  0.2314
83898W        W21392  11.309  19.145   6.699 -0.1291 -0.1588  0.0888
83899W        W21393  19.306  11.506  19.450  0.2126  0.2584  0.1959
83900W        W21394  23.217  31.030   5.165 -0.2915  0.3132 -0.0201
83901W        W21395   8.848  12.838  18.954 -0.0309 -0.0917  0.1978
83902W        W21396  16.888   3.850  25.008  0.3517 -0.1631  0.1202
83903W        W21397  12.010   1.344   4.804 -0.2980  0.2509  0.0147
83904W        W21398  27.983  15.861   8.951 -0.1885  0.1035 -0.0623
83905W        W21399  18.932  29.542  23.803 -0.1883 -0.0123  0.0884
83906W        W21400  31.429  25.581  19.751  0.3887 -0.3310 -0.1857
83907W        W21401  27.343   6.376  16.849  0.0637 -0.2500  0.0148
83908W        W21402   3.793  19.636   0.520 -0.0984 -0.1210  0.0200
83909W        W21403  17.390  17.418   4.522  0.0560 -0.0994  0.0927
83910W        W21404  10.177  10.535   7.138 -0.0354  0.0003  0.0022
83911W        W21405   4.201  31.702   7.003  0.0513 -0.0930  0.2324
83912W        W21406  32.213   1.571  19.413 -0.0023  0.0134  0.0367
83913W        W21407   9.434  18.857  21.838  0.1996  0.1670 -0.0184
83914W        W21408  20.292  23.765   2.235  0.1634 -0.3408  0.1528
83915W        W21409  19.755  26.452   7.148  0.0010 -0.0100 -0.0957
83916W        W21410  26.027  35.117  25.367 -0.0664 -0.1727  0.2380
83917W        W21411  27.916   2.305  11.749  0.0982  0.5310 -0.2173
83918W        W21412  17.371   7.632  18.090 -0.4274  0.2170  0.2096
83919W        W21413  19.541   6.146  11.178 -0.1748 -0.2456  0.2010
83920W        W21414  32.858  35.053   2.452 -0.1965  0.1804 -0.1543
83921W        W21415  20.999   0.830   5.134 -0.0312  0.0481  0.1586
83922W        W21416   9.348  18.580   2.699 -0.0315  0.1636  0.2189
83923W        W21417   6.535  11.965   6.379 -0.2077  0.0137  0.2464
83924W        W21418   7.031  31.639   4.579 -0.0506  0.1280 -0.1984
83925W        W21419  17.371  24.076   8.775  0.2904 -0.2589 -0.0134
83926W        W21420  28.364  31.277  18.033  0.0138 -0.0168  0.3840
83927W        W21421  19.947   4.456  25.326  0.2727 -0.0357  0.2347
83928W        W21422   0.970  24.144  19.200 -0.0484 -0.0450  0.3206
83929W        W21423  25.971   8.054  14.771 -0.0363 -0.0264 -0.0098
83930W        W21424   6.292  13.516   5.142  0.0554 -0.1029  0.0753
83931W        W21425  26.777  14.303   7.609 -0.0090  0.1069 -0.0849
83932W        W21426   1.482  16.170  15.275 -0.1407 -0.0981 -0.0933
83933W        W21427   9.556  14.440  12.558  0.0675 -0.2100  0.3421
83934W        W21428   1.208  16.158  16.530  0.0978  0.0677 -0.3700
83935W        W21429  20.794  19.007  17.297 -0.0083 -0.1034  0.2005
83936W        W21430  20.413  11.754  17.730 -0.0393 -0.1582  0.3358
83937W        W21431  25.615   4.146   0.580 -0.4201 -0.0600  0.0570
83938W        W21432  24.507  10.506  14.268  0.0872  0.2958  0.1710
83939W        W21433  29.287  29.378  19.367  0.0278  0.1685  0.0256
83940W        W21434  17.821   9.551   2.004 -0.0282  0.0476  0.2841
83941W        W21435  24.940  29.026  18.148  0.3712  0.0365 -0.2236
83942W        W21436  28.334   6.750  12.884 -0.0260 -0.1788 -0.0946
83943W        W21437   1.422  18.070   0.179  0.3522 -0.2344  0.1298
83944W        W21438   8.174   1.129   0.778 -0.2330 -0.1009  0.0237
83945W        W21439  23.523   3.808   6.442 -0.1198  0.1525 -0.2847
83946W        W21440   3.208  20.130  22.180  0.0326  0.1283 -0.2258
83947W        W21441  25.139  23.263  13.132  0.1565 -0.0841  0.0249
83948W        W21442  15.047  17.995   5.469 -0.1521 -0.0234 -0.2004
83949W        W21443  12.147  21.689   1.605 -0.1773  0.0935  0.0785
83950W        W21444   2.101  32.825   8.187  0.2486 -0.2486 -0.2682
83951W        W21445  18.515  18.647   6.986  0.0459  0.1847  0.2451
83952W        W21446  26.854  22.231  19.806  0.2966 -0.0040 -0.0652
83953W        W21447  28.137  18.699  14.350  0.3165 -0.3499  0.2394
83954W        W21448  31.197   5.764  15.666 -0.3445  0.2317  0.2679
83955W        W21449  34.134   5.217   2.210 -0.1996  0.0851  0.5437
83956W        W21450  31.896  29.462   3.901  0.3156  0.1560  0.2061
83957W        W21451   6.844  28.023  11.533 -0.0710 -0.1309  0.0079
83958W        W21452  25.048  17.158  20.894  0.1671  0.2001  0.0289
83959W        W21453  33.218  14.868   1.064 -0.1545 -0.2697 -0.0314
83960W        W21454   6.176  18.611  19.777  0.0544 -0.1429  0.1297
83961W        W21455   4.703   7.502   6.425 -0.0736  0.1147  0.2678
83962W        W21456  13.038  20.257   7.607 -0.0825  0.1337 -0.2616
83963W        W21457  17.050   5.436  11.760 -0.1255 -0.1351  0.3192
83964W        W21458   7.760  16.347  13.440  0.0307  0.4006  0.0574
83965W        W21459  29.858  28.049  10.867 -0.1343  0.2320 -0.0609
83966W        W21460  22.327   7.341  24.943 -0.3424  0.1468  0.0792
83967W        W21461  22.415   2.586   0.831 -0.2743  0.2307  0.0250
83968W        W21462  17.039   6.108  21.707 -0.1205  0.1844  0.0546
83969W        W21463  20.850  23.505  22.841 -0.3554  0.2185  0.1798
83970W        W21464  24.981   2.210  11.463 -0.0887 -0.0794 -0.0647
83971W        W21465  14.571  17.860   3.880 -0.1151  0.1524  0.1569
83972W        W21466  19.412  32.666  23.085  0.3445 -0.0285 -0.0061
83973W        W21467  23.884  20.541  13.140 -0.1225  0.4012 -0.1088
83974W        W21468  17.841  16.796  24.554  0.2466 -0.0612  0.2681
83975W        W21469   9.809   1.919  25.134  0.1083 -0.0046  0.0781
83976W        W21470  30.315  15.148  20.060 -0.0125  0.1088 -0.0143
83977W        W21471  22.170   1.699   6.686  0.1562 -0.1546 -0.3001
83978W        W21472   0.329   9.384  24.708 -0.1773  0.2069  0.0569
83979W        W21473   4.456  20.448  25.133 -0.1046 -0.3186  0.1782
83980W        W21474  18.667   1.850   0.210  0.1104 -0.0486 -0.0360
83981W        W21475  33.647  25.552  19.784  0.0826 -0.1963  0.1399
83982W        W21476  28.006  18.566  19.935  0.3861  0.1220 -0.2507
83983W        W21477  29.733  27.329  11.591  0.3479  0.0096 -0.0796
83984W        W21478   8.823  30.235   1.221 -0.1909  0.2867  0.0387
83985W        W21479   2.777  23.477  25.230 -0.2178 -0.4380 -0.0776
83986W        W21480  30.030  31.103   6.182  0.2495  0.1145 -0.2055
83987W        W21481  33.761  34.754  24.437  0.2694  0.4251 -0.3238
83988W        W21482  32.512  16.879  23.220  0.1228 -0.0033 -0.0856
83989W        W21483  13.339   9.267  24.667 -0.0248 -0.1668  0.1123
83990W        W21484  29.862  12.347   0.024 -0.0323 -0.0573  0.2246
83991W        W21485  35.012  13.608  13.370 -0.0261 -0.3326  0.0649
83992W        W21486   8.981  11.841  18.849  0.2715 -0.2755 -0.3027
83993W        W21487  30.889  12.527  15.805 -0.3502  0.0373 -0.0814
83994W        W21488  18.859  28.525  20.657 -0.0647 -0.1321  0.2270
83995W        W21489  19.289  16.863  24.396 -0.2079  0.1963  0.0796
83996W        W21490  25.104  30.021  25.640 -0.1793 -0.2312 -0.0773
83997W        W21491  11.271  33.570  26.089 -0.0561 -0.3567 -0.1207
83998W        W21492   8.873  23.217   3.170 -0.1439 -0.1014  0.2079
83999W        W21493   5.091  26.472   1.381 -0.0560 -0.1405 -0.2008
84000W        W21494   0.591  21.689  20.719 -0.1026 -0.1215  0.5161
84001W        W21495  25.477   3.286  19.893 -0.0600  0.1082 -0.0783
84002W        W21496  15.695  34.156   6.121 -0.0493  0.2130  0.2138
84003W        W21497   2.993  28.482  24.480  0.2182 -0.2851  0.0779
84004W        W21498   7.607  11.204  19.750 -0.0622  0.0959  0.0211
84005W        W21499   1.162  31.954   3.101  0.1721  0.0143 -0.4910
84006W        W21500   0.190  26.366  19.949  0.4305 -0.1809  0.0011
84007W        W21501   5.298  18.621  20.318  0.4231 -0.1560 -0.0680
84008W        W21502  25.250  10.822  13.920  0.0599 -0.0476 -0.0676
84009W        W21503  14.591   6.352  12.961  0.0738  0.1212 -0.2106
84010W        W21504  33.143   4.655  18.087  0.1261  0.2322  0.1565
84011W        W21505  21.969  22.844   2.056  0.1742  0.1524  0.0655
84012W        W21506  17.635  24.491  10.521  0.1521  0.1875  0.1099
84013W        W21507  30.759  27.106  13.861  0.0970  0.0988 -0.1759
84014W        W21508  21.567   6.829  18.227  0.2944 -0.0338  0.2080
84015W        W21509  16.962  16.261  12.864  0.2719 -0.0744 -0.0770
84016W        W21510  13.083  20.082   0.701  0.0326 -0.2179  0.1854
84017W        W21511   6.202  18.259  21.976 -0.1548  0.2823 -0.0517
84018W        W21512   2.738  17.003  24.390  0.0675  0.1183  0.1332
84019W        W21513  16.196   7.850   2.086 -0.2737 -0.2472  0.2497
84020W        W21514  24.312  14.293  22.709 -0.3591  0.1517  0.0489
84021W        W21515   6.535  15.314   7.276 -0.1014  0.0790 -0.2545
84022W        W21516   6.869  10.298  21.912 -0.0860  0.0227  0.0854
84023W        W21517  14.134  22.979  25.704 -0.1075  0.1217  0.0923
84024W        W21518  35.007  32.618   0.522  0.1648 -0.0024 -0.2256
84025W        W21519  29.893  26.070  21.588  0.2080  0.0278 -0.1887
84026W        W21520  25.141  25.604   1.385  0.3389  0.1204  0.0689
84027W        W21521   7.836  30.393  20.515 -0.2373  0.1611 -0.3742
84028W        W21522   6.067  10.839  23.048  0.3649  0.0506  0.2462
84029W        W21523  11.569  34.975  20.972  0.0456 -0.1995 -0.2025
84030W        W21524  30.117  25.842   8.536 -0.0202  0.0305 -0.0202
84031W        W21525  10.848   6.601  25.791 -0.1720  0.0809 -0.2765
84032W        W21526  22.152  18.357  20.040 -0.1643 -0.0801 -0.0146
84033W        W21527   7.832  29.056   6.765 -0.3070 -0.1580 -0.0023
84034W        W21528   4.013  15.223  21.607 -0.1808  0.2557  0.2225
84035W        W21529  34.622  12.680  13.002 -0.0343 -0.1791 -0.2055
84036W        W21530  28.843  17.247  20.387 -0.3402  0.0863  0.0689
84037W        W21531  27.626  23.924  12.012 -0.3245  0.0398 -0.1148
84038W        W21532   8.416  21.000  25.390  0.3706 -0.0007  0.0465
84039W        W21533  28.352  18.103   9.786 -0.0557 -0.0058  0.0898
84040W        W21534  12.562  17.968   0.762  0.1746 -0.1250  0.1759
84041W        W21535  28.765  18.884  20.207 -0.2532 -0.1648 -0.1626
84042W        W21536  29.015  17.607  11.749  0.1312  0.0403 -0.0952
84043W        W21537   8.087  23.044   4.170 -0.0828 -0.0910  0.1017
84044W        W21538  20.834  32.615  23.799 -0.1567 -0.1471  0.0463
84045W        W21539  20.945   6.014   7.632  0.0597 -0.1168  0.0810
84046W        W21540  26.950  17.364  20.759 -0.0424  0.0458  0.1457
84047W        W21541   4.808  28.829  21.949 -0.0003  0.1145 -0.1833
84048W        W21542  22.262  22.987  21.970 -0.0290  0.2487 -0.1077
84049W        W21543  14.641  18.203  14.509 -0.1960 -0.1752 -0.1440
84050W        W21544  29.173   0.727  23.222 -0.1726  0.0714  0.1658
84051W        W21545  20.787  28.251   6.918 -0.0680  0.0625  0.1018
84052W        W21546   9.891   9.415   7.322 -0.3156 -0.2084  0.1304
84053W        W21547   6.214  26.618  13.442  0.0943  0.0189 -0.1444
84054W        W21548  28.130  28.891  20.615  0.0995 -0.1147 -0.0728
84055W        W21549  12.787   2.059  25.799  0.1111  0.0194  0.0904
84056W        W21550   3.116   9.778   2.236  0.2329 -0.0489 -0.0024
84057W        W21551  21.977   6.437  16.341 -0.0435 -0.0233 -0.1064
84058W        W21552  27.579  14.111   9.327  0.0330 -0.1435 -0.0911
84059W        W21553   9.667   5.853  19.803  0.2335 -0.2059 -0.4659
84060W        W21554  20.962  32.891   5.339  0.0801 -0.4305 -0.1010
84061W        W21555  20.089  11.275   8.758  0.3628  0.1779  0.1762
84062W        W21556   3.744   6.158   7.491  0.1516  0.3000  0.1320
84063W        W21557   2.221   6.482  20.928  0.3045  0.0996 -0.1954
84064W        W21558  15.592  14.874   0.703 -0.0840 -0.0803 -0.0148
84065W        W21559  24.432   6.083  18.722  0.1686  0.0909  0.1351
84066W        W21560  20.671   8.676   8.940  0.0408  0.0567 -0.1460
84067W        W21561  27.612  24.902  21.340  0.1573  0.1368  0.0945
84068W        W21562   9.319  19.340  13.093  0.0012 -0.0666  0.2301
84069W        W21563  27.068  10.086  18.896  0.1347  0.0606 -0.1319
84070W        W21564  33.430  18.519  22.537 -0.1706  0.0343 -0.0396
84071W        W21565  34.740   1.283  15.859  0.0115  0.0172  0.0600
84072W        W21566   7.902   6.247   4.828 -0.0865 -0.2696  0.1723
84073W        W21567  26.978  24.348  17.867  0.1917  0.1986 -0.0068
84074W        W21568  16.617   8.419  24.796 -0.2916 -0.2185 -0.5095
84075W        W21569  30.237  18.835  17.407  0.1904 -0.3809  0.1830
84076W        W21570  35.185   9.359  19.761  0.1575  0.0295  0.1856
84077W        W21571  14.648  32.292   4.943  0.1292  0.0964  0.1124
84078W        W21572  18.789  10.857   5.579  0.0575 -0.3223 -0.0309
84079W        W21573   6.239   3.774  22.234 -0.2312 -0.1286  0.1102
84080W        W21574  23.212  11.273  14.965  0.2090 -0.2537 -0.4270
84081W        W21575  28.122  13.911   5.794 -0.1623  0.0748 -0.0272
84082W        W21576  26.372  12.547  21.978  0.1204 -0.1289  0.0248
84083W        W21577  23.172  29.720  12.020 -0.0000  0.4170 -0.0669
84084W        W21578  30.881   7.700   0.311 -0.0050 -0.4222  0.2057
84085W        W21579  23.890  20.356  23.590 -0.1746 -0.2500 -0.1812
84086W        W21580  23.604  17.518  17.086  0.1432 -0.0996  0.0477
84087W        W21581   5.440   7.013   8.445 -0.1802  0.1186 -0.2522
84088W        W21582   0.651   8.170  21.855 -0.0702 -0.1094  0.0796
84089W        W21583  19.713  33.228  20.992  0.0810 -0.1579  0.0340
84090W        W21584  12.032  17.866   0.884 -0.2358 -0.3703 -0.1861
84091W        W21585  27.827  27.978  18.085  0.1090  0.0682  0.1601
84092W        W21586  34.995   4.840   5.422 -0.2867  0.1215  0.2900
84093W        W21587  23.004  34.500  24.159  0.0405 -0.0879  0.1975
84094W        W21588  31.084   2.935  14.478  0.0396 -0.1003  0.0982
84095W        W21589  26.700   3.018  20.945 -0.2196  0.2223 -0.3506
84096W        W21590  27.143   8.447  25.578 -0.2522  0.1697 -0.0416
84097W        W21591   3.044   9.040  23.236  0.0568 -0.2642  0.1784
84098W        W21592  22.045  14.359  19.686  0.0630  0.7246  0.0155
84099W        W21593  28.316  21.401  19.276  0.1217  0.3969  0.0315
84100W        W21594  17.783  16.838  19.383 -0.1300 -0.0053  0.2281
84101W        W21595  20.274  12.556   3.829  0.0007  0.0253 -0.0092
84102W        W21596  32.276  15.847   7.776  0.2021 -0.0373  0.2648
84103W        W21597   2.633  16.041   3.564 -0.0982 -0.1812  0.1371
84104W        W21598  17.599   3.298   2.230  0.0396 -0.2389 -0.2333
84105W        W21599   4.570   9.424  17.561 -0.3275  0.4266 -0.0099
84106W        W21600  23.925  19.351  24.457 -0.0581  0.2315 -0.1858
84107W        W21601  12.541  15.507  10.858  0.3165 -0.0051 -0.1481
84108W        W21602  18.216  19.052   1.715  0.2848 -0.0894  0.0423
84109W        W21603  32.077  14.319  23.431  0.2349 -0.0266 -0.3689
84110W        W21604  29.536   2.784  18.277 -0.0177 -0.1127 -0.1635
84111W        W21605  14.363  30.455   2.621  0.1181 -0.1784  0.2071
84112W        W21606   9.003   1.689   0.618  0.1075  0.1506  0.2047
84113W        W21607  32.031  34.295   0.993  0.0290 -0.0036  0.0802
84114W        W21608  34.814   7.821  25.717 -0.2756  0.0323  0.0008
84115W        W21609  18.065  26.933  21.167 -0.1011  0.3005 -0.0143
84116W        W21610  17.329   1.540  26.180 -0.4142  0.2933  0.2961
84117W        W21611  28.257  31.254  19.257  0.2003  0.1788  0.0434
84118W        W21612  30.589   7.255  11.080  0.2248  0.3108  0.0573
84119W        W21613  22.577  10.813  21.410  0.1794 -0.0345 -0.1357
84120W        W21614   4.403   2.343   6.562 -0.0601 -0.0019 -0.1597
84121W        W21615  26.525  25.148  14.781 -0.1585 -0.0260 -0.1904
84122W        W21616  30.275  19.157  25.101  0.1474  0.4434  0.1451
84123W        W21617   8.013  34.019   2.808  0.3461 -0.2051  0.0522
84124W        W21618   1.955   4.649  18.329  0.0278  0.4560 -0.1492
84125W        W21619  12.717  18.844  23.842 -0.1699  0.2454  0.2146
84126W        W21620  14.792  16.170  22.058 -0.1205  0.3298  0.1993
84127W        W21621  20.061   2.448  16.994 -0.0199  0.0069 -0.2038
84128W        W21622  20.511  19.093  19.689 -0.0667  0.2646 -0.0666
84129W        W21623  25.720   8.013  12.803 -0.0961 -0.0230  0.0460
84130W        W21624  27.880   4.737   1.025  0.1420  0.1212 -0.5126
84131W        W21625  24.861  10.692  21.084  0.1242 -0.1588  0.0779
84132W        W21626  17.242  22.754   6.325  0.1618 -0.2155 -0.1301
84133W        W21627  14.331  24.487   0.527  0.1437 -0.0827 -0.1573
84134W        W21628  28.170  11.676  20.801 -0.2154  0.1722 -0.1749
84135W        W21629  35.339  15.104   9.738 -0.1196  0.2579 -0.0694
84136W        W21630   4.502  15.772   4.961  0.2296 -0.0180  0.2138
84137W        W21631  23.375  35.063  20.102 -0.1615 -0.3750 -0.0929
84138W        W21632   7.903  12.642  21.543  0.2203  0.2798  0.1917
84139W        W21633   1.686  33.721  17.796  0.5096 -0.0775  0.1168
84140W        W21634   6.163  14.972   7.314  0.1173  0.0970  0.2213
84141W        W21635  18.008  10.986   5.056 -0.1407 -0.2778  0.5268
84142W        W21636  25.684   2.685   3.127  0.0889 -0.2731  0.1609
84143W        W21637   6.140  28.293   1.026  0.0051 -0.1279 -0.4064
84144W        W21638   4.521   9.893   5.115  0.0439 -0.1785 -0.1851
84145W        W21639   8.011  12.588   0.584 -0.2040 -0.0156  0.2251
84146W        W21640   3.005  31.277   6.515 -0.1510 -0.0094 -0.0718
84147W        W21641  33.003   2.083  21.845 -0.1225  0.2823 -0.2566
84148W        W21642  10.103  22.998  25.124 -0.1709  0.1975 -0.4915
84149W        W21643  11.971   7.916  21.980  0.1293 -0.1374  0.3946
84150W        W21644  29.279  34.030  25.262 -0.0019 -0.1195 -0.0794
84151W        W21645  10.524  12.356  22.901 -0.1366  0.1796 -0.0095
84152W        W21646  28.132  13.418   5.956 -0.0519  0.2236  0.0485
84153W        W21647  29.215   4.059   2.882  0.1535 -0.0345 -0.1417
84154W        W21648  16.444  28.027   9.479  0.1324  0.2097 -0.2514
84155W        W21649  15.295  25.321   2.580  0.1783  0.0941 -0.2631
84156W        W21650  18.955  17.288  25.252 -0.0036  0.1290  0.0062
84157W        W21651  31.424  29.667  21.229 -0.2319 -0.0294 -0.0498
84158W        W21652   5.773  23.477   6.890  0.1226 -0.0336  0.1848
84159W        W21653  23.250  21.575  22.828  0.1433  0.0494 -0.2014
84160W        W21654  24.976   8.070   0.897 -0.1418 -0.0746 -0.1558
84161W        W21655  31.448  15.319  11.204  0.2077 -0.0549  0.1109
84162W        W21656   4.187  13.959   3.309  0.0633 -0.0534 -0.0738
84163W        W21657  26.178  22.616  13.040  0.0736  0.2194  0.1742
84164W        W21658  29.312  27.131  11.733  0.1924  0.2282 -0.2282
84165W        W21659  17.000  25.354   4.240  0.0631 -0.0036  0.0889
84166W        W21660   0.367  26.859   0.352 -0.1139 -0.2918  0.2479
84167W        W21661  35.378   4.678  15.749 -0.0595  0.0245  0.2445
84168W        W21662  24.254  23.008  23.015  0.1013 -0.4139 -0.2064
84169W        W21663   9.538  25.579  25.403 -0.0005 -0.3062  0.1908
84170W        W21664  10.780   4.072  19.862 -0.1717 -0.1238  0.2639
84171W        W21665   5.517  23.808  20.195 -0.2244 -0.0868 -0.0424
84172W        W21666   7.164   9.208  21.927  0.0977 -0.0720  0.1663
84173W        W21667   3.231   3.925   6.103  0.0365  0.1388 -0.2260
84174W        W21668   0.917  27.557   2.525 -0.4021  0.1563  0.0975
84175W        W21669   1.814  25.303   4.998  0.1183  0.4522  0.0309
84176W        W21670  32.802  32.881  13.680 -0.2750  0.0879  0.1008
84177W        W21671  25.811  33.197  16.806  0.4163 -0.0159  0.1630
84178W        W21672  19.638  16.072  25.635 -0.2977  0.2759 -0.1184
84179W        W21673  22.967   8.079  19.520  0.1510 -0.2975 -0.4314
84180W        W21674   4.219  13.402  21.516  0.0335  0.0651  0.0957
84181W        W21675  30.342  16.307  13.861  0.0225 -0.0720 -0.1288
84182W        W21676  24.618  24.030  16.878  0.1042  0.5124 -0.0106
84183W        W21677  12.850  18.666   0.475  0.2546 -0.1681  0.2399
84184W        W21678   8.820  20.009  12.765  0.1791  0.0804 -0.2127
84185W        W21679   9.230   4.025  25.006  0.1484  0.1737  0.2199
84186W        W21680  29.324   9.932  10.551 -0.0859  0.3207 -0.2687
84187W        W21681  20.886   6.791   6.273  0.0264  0.0591  0.0809
84188W        W21682   4.146  20.361   4.997 -0.1071 -0.1924  0.1196
84189W        W21683  25.506   1.931  13.770 -0.1196 -0.2461  0.0279
84190W        W21684  11.180   3.159  21.996  0.1043 -0.2992 -0.2738
84191W        W21685   7.684  14.187  19.775  0.0049  0.0027  0.0278
84192W        W21686   2.813  17.340  14.065  0.0245  0.0836 -0.2106
84193W        W21687  24.681  19.607  20.366 -0.0550 -0.1557  0.3178
84194W        W21688  20.698  15.133  22.091 -0.1979  0.0220  0.1145
84195W        W21689  34.082  20.474   7.784  0.1940 -0.0942 -0.3380
84196W        W21690  11.870   4.542   6.858  0.0693 -0.1169 -0.1572
84197W        W21691  11.893  29.381   5.351 -0.0507 -0.1366 -0.1624
84198W        W21692  34.527  11.767  21.429  0.0517 -0.0342  0.0437
84199W        W21693  21.506   1.496  17.116  0.0220  0.0384  0.0241
84200W        W21694  25.538   9.610  20.663 -0.0184 -0.2712 -0.0643
84201W        W21695   1.112  27.346   7.309  0.1290  0.1050 -0.0451
84202W        W21696  20.574   1.738   2.131 -0.1410  0.0649 -0.1361
84203W        W21697  26.495  20.647   9.566  0.0559 -0.3167  0.5107
84204W        W21698  31.956  29.523   3.291 -0.0671  0.3348  0.1213
84205W        W21699  23.005   9.490   2.633  0.1077 -0.3069  0.2174
84206W        W21700  19.163  25.388   1.850  0.3494 -0.0675 -0.1174
84207W        W21701  12.500   3.076  25.568  0.0126 -0.2275  0.0650
84208W        W21702  14.154  26.919  13.035 -0.0137  0.3034  0.0652
84209W        W21703   4.842  15.826  21.017  0.2599  0.0287  0.0811
84210W        W21704  33.811   1.358  17.372  0.0673 -0.1643  0.0594
84211W        W21705  27.421  34.640  11.739  0.4136 -0.0897  0.0008
84212W        W21706  26.007   4.067  21.438 -0.1437 -0.1722  0.3825
84213W        W21707  15.812   9.200  20.175  0.2356  0.0600 -0.0768
84214W        W21708   7.423   3.548   8.276  0.1026 -0.0673  0.0062
84215W        W21709  10.641   1.777  11.089  0.1000  0.0927  0.0044
84216W        W21710  31.329  33.072  26.202  0.1070 -0.1401 -0.1448
84217W        W21711  21.520  27.899   0.550 -0.2376  0.3105  0.0392
84218W        W21712  22.345  23.017  17.698  0.0237 -0.1736 -0.0974
84219W        W21713  34.743  33.701  16.227  0.5382  0.0659  0.1608
84220W        W21714  25.808  19.404  14.976 -0.1408 -0.2909 -0.1270
84221W        W21715  10.279   3.766   5.067 -0.0661 -0.2717 -0.1272
84222W        W21716  26.536  14.650   7.208 -0.1561 -0.3675  0.0885
84223W        W21717  18.494   7.533  24.303  0.1205 -0.0772  0.3236
84224W        W21718  29.103  25.728  19.587 -0.3680  0.2656 -0.1640
84225W        W21719   2.795  33.954  10.671  0.3012 -0.2392 -0.0111
84226W        W21720   9.613  19.913  15.440 -0.0383  0.0569 -0.0797
84227W        W21721  12.603  24.674   0.031 -0.3662  0.3871  0.1325
84228W        W21722  29.676   8.065   9.436 -0.0254  0.0425  0.2611
84229W        W21723  35.006   5.044  16.878  0.2217  0.0745  0.1427
84230W        W21724   9.508   1.087  13.716  0.1657 -0.0772  0.1573
84231W        W21725   0.566  30.155   3.679 -0.0402 -0.1560  0.1219
84232W        W21726  11.806  12.405  21.063  0.0312 -0.0118 -0.1313
84233W        W21727  27.324  18.097  18.766  0.0952 -0.0632  0.3412
84234W        W21728  12.133   5.078  20.781 -0.1594  0.2925  0.1738
84235W        W21729  23.378   2.153  21.287 -0.0761 -0.0516 -0.1247
84236W        W21730   9.738  30.065  14.316 -0.2562 -0.0469  0.2479
84237W        W21731  18.148  22.423   3.708  0.0627 -0.0887 -0.1878
84238W        W21732   9.045  11.235   0.826 -0.4338 -0.2141 -0.0836
84239W        W21733  16.571  11.396   3.040 -0.0416  0.2297  0.2797
84240W        W21734  26.963  12.698  12.680 -0.1114 -0.0731  0.0150
84241W        W21735  29.418  13.287  26.122  0.0195  0.0249 -0.2715
84242W        W21736  22.316  22.730  20.412 -0.5654  0.0763 -0.0180
84243W        W21737  11.792   6.272   7.157 -0.2201  0.1800 -0.2841
84244W        W21738  19.163  29.131   0.900  0.1223  0.2820  0.1948
84245W        W21739  17.049   4.121  21.029  0.0680  0.0498  0.0520
84246W        W21740  18.989  24.220  26.047  0.2628 -0.0240 -0.1606
84247W        W21741  30.261   6.157  24.129  0.6998  0.0407  0.1809
84248W        W21742  28.353  32.793  19.656 -0.2095  0.2518  0.0048
84249W        W21743  10.222   5.603  22.835 -0.0366  0.0280  0.2975
84250W        W21744  31.291   4.107  18.471  0.1227  0.0488 -0.0130
84251W        W21745  21.914  24.654  16.061  0.3577  0.0411 -0.0575
84252W        W21746   9.691   5.016  12.792 -0.2844  0.0952  0.1200
84253W        W21747  20.104  18.546   4.506  0.2900 -0.0685 -0.3272
84254W        W21748  19.153  25.321   6.995  0.2030 -0.0984  0.2598
84255W        W21749  14.951   8.363   9.515  0.0529  0.1616 -0.0284
84256W        W21750   9.041  18.992  22.843  0.2905  0.0293  0.1609
84257W        W21751   5.152  20.208  21.546  0.1364 -0.2745  0.1271
84258W        W21752  10.860  21.066  22.099  0.1139  0.0357  0.3406
84259W        W21753  29.503  15.981  17.804  0.2785 -0.0705 -0.4942
84260W        W21754   9.836   6.414   8.436  0.4042  0.0303 -0.0104
84261W        W21755  10.931  24.876  10.522 -0.1282  0.2577  0.2619
84262W        W21756  28.301   8.073  21.495 -0.0470  0.1554 -0.0173
84263W        W21757  26.778  31.057   9.774  0.0651 -0.0719  0.2005
84264W        W21758  28.524  22.744  10.109 -0.0715 -0.1656  0.1555
84265W        W21759  20.287  28.003  18.455 -0.1601 -0.5241  0.0775
84266W        W21760  19.453   8.909   2.382  0.1676  0.1523  0.0505
84267W        W21761  17.716   6.234  22.400 -0.0996  0.0348  0.2653
84268W        W21762  13.340  30.352  14.157 -0.0162  0.1084  0.4185
84269W        W21763  31.260  10.017  16.503 -0.2253  0.1576 -0.0327
84270W        W21764  16.354  33.560   6.525 -0.2798  0.1711 -0.0252
84271W        W21765  13.107  10.479  23.910 -0.0837 -0.3453 -0.3326
84272W        W21766  10.217   3.109  12.742  0.0998 -0.0309 -0.0557
84273W        W21767  15.977  11.758   4.877 -0.1835 -0.2274  0.1362
84274W        W21768  23.144   3.110  21.048  0.0492 -0.1236  0.1233
84275W        W21769  30.070  12.652  13.698 -0.0494  0.3313  0.2318
84276W        W21770  27.231   5.261  25.783 -0.1935 -0.2300  0.2246
84277W        W21771   2.986   1.180   3.700 -0.0494 -0.3236 -0.1048
84278W        W21772   6.183  12.306   9.223 -0.1911 -0.2693  0.0474
84279W        W21773   6.475  26.846   7.258  0.0393  0.0334  0.1217
84280W        W21774   5.314  16.651   6.992 -0.0820 -0.0405 -0.1915
84281W        W21775  24.167   9.071  21.426  0.0510  0.1520 -0.1308
84282W        W21776  29.443   8.091  24.321  0.0944  0.4207 -0.0587
84283W        W21777  31.789  17.120  13.347  0.0408  0.2546  0.2369
84284W        W21778  13.491  19.684  11.607 -0.1467  0.0312 -0.0487
84285W        W21779  33.632  21.149  18.206  0.0586  0.3313  0.0860
84286W        W21780   9.186  30.945   9.234  0.2156 -0.1536 -0.1903
84287W        W21781   2.564  34.243  19.667  0.1746 -0.2022  0.2125
84288W        W21782  29.715  14.677  25.484  0.0764  0.2250  0.0031
84289W        W21783   4.833  26.525  24.251 -0.0644 -0.0060  0.2134
84290W        W21784  19.099  19.241  23.930 -0.1374 -0.3233 -0.2031
84291W        W21785  26.210   2.817  12.878  0.0942 -0.0981 -0.0833
84292W        W21786  12.321   2.244  19.648  0.0405  0.0432 -0.0303
84293W        W21787   5.770  16.505   0.278 -0.0650 -0.1339  0.2300
84294W        W21788  19.059  27.521   4.482 -0.1394  0.4378 -0.0389
84295W        W21789  10.578   0.476  25.321 -0.0587  0.0653  0.0916
84296W        W21790  18.180  11.770   3.785  0.0081 -0.1453  0.2705
84297W        W21791  13.953  13.615  10.978 -0.2630 -0.1275 -0.1145
84298W        W21792  14.963  13.998   9.399 -0.0591  0.1551  0.0831
84299W        W21793  10.880   7.682   9.406 -0.2621  0.2992 -0.2871
84300W        W21794  23.772   6.817  19.033 -0.2670 -0.0426 -0.2565
84301W        W21795   2.705  29.685   5.010  0.1162 -0.0128 -0.0423
84302W        W21796  30.533  25.882  21.352 -0.3496 -0.0759  0.0482
84303W        W21797   9.616   2.292   5.682  0.1760 -0.0814  0.4680
84304W        W21798  10.495   1.471  20.811 -0.3446  0.0437  0.0763
84305W        W21799  34.671   2.992  22.777 -0.4853  0.0370  0.0133
84306W        W21800  12.125  24.385   9.482  0.0906  0.1864 -0.0812
84307W        W21801  35.376   4.259  15.482 -0.0119  0.1328  0.3483
84308W        W21802  20.552  27.681  15.783 -0.1676 -0.3659  0.2479
84309W        W21803   3.133  12.469  24.250  0.1766 -0.1411  0.2803
84310W        W21804   8.218  35.180   7.874  0.0366  0.2448 -0.1603
84311W        W21805  19.050  11.700  18.410  0.3735 -0.1567 -0.1526
84312W        W21806  10.340  33.677  15.317 -0.1169  0.0388 -0.0812
84313W        W21807  23.807   9.503  13.709  0.1616  0.1893 -0.2835
84314W        W21808  11.889  14.026  13.557 -0.2904  0.1747  0.0258
84315W        W21809   6.586  27.779  13.286  0.1906  0.1368  0.0184
84316W        W21810  32.923   4.202  18.078  0.1250 -0.0670 -0.1363
84317W        W21811  14.246  23.337  22.117 -0.2094  0.2202 -0.1308
84318W        W21812  29.931   9.100   7.804 -0.0666  0.0315  0.0001
84319W        W21813  22.246   6.774  18.100 -0.1575  0.2866 -0.0900
84320W        W21814  21.970  32.021   2.834 -0.1250  0.0969  0.0622
84321W        W21815  25.270   3.151  15.855 -0.0968 -0.1567 -0.1662
84322W        W21816  23.215  28.374  12.895 -0.1225 -0.1989  0.2154
84323W        W21817   4.000  13.965  14.458  0.0224 -0.0682  0.1591
84324W        W21818  28.320   0.762   5.880 -0.0379 -0.2079 -0.1821
84325W        W21819   9.838  31.369   4.269 -0.0992 -0.3858 -0.3139
84326W        W21820  27.590  14.065  11.250  0.2077 -0.0885 -0.0350
84327W        W21821   8.096   7.095  24.824  0.2215 -0.0911  0.2804
84328W        W21822  18.009  25.034  23.942  0.1307 -0.0363  0.2122
84329W        W21823   2.083  22.010  26.068  0.3738  0.3251 -0.2404
84330W        W21824  24.438  18.805  12.842  0.0859 -0.2836 -0.1065
84331W        W21825   0.389  25.432  22.779 -0.2723 -0.2626 -0.0722
84332W        W21826  20.248   3.257   6.399 -0.0935 -0.2947 -0.3890
84333W        W21827   4.836   2.370   9.151  0.0556  0.1283  0.2407
84334W        W21828  23.216  25.005  22.054 -0.0487 -0.0630  0.2302
84335W        W21829  29.912  28.759  19.789 -0.3180 -0.0870 -0.0517
84336W        W21830   0.251  15.353  10.518 -0.3273  0.1104 -0.0030
84337W        W21831  18.423  29.820  17.719  0.1154 -0.1546  0.1493
84338W        W21832  11.587   4.999  23.092 -0.0045  0.0747  0.0891
84339W        W21833  10.120  33.823  21.566  0.1307  0.1307  0.1650
84340W        W21834  14.587   6.724   6.281  0.2226  0.1269  0.2720
84341W        W21835  13.107  35.384   5.246 -0.2134 -0.0622 -0.3168
84342W        W21836  33.676  10.111  11.010 -0.0707  0.2813 -0.0389
84343W        W21837  21.863  31.439  21.223 -0.0194 -0.0453  0.1999
84344W        W21838  18.145   5.255  24.907  0.1736  0.1181 -0.1928
84345W        W21839   3.691  14.507  20.266 -0.0764 -0.2449 -0.0368
84346W        W21840  22.202   9.711   5.959 -0.2292  0.1727 -0.1265
84347W        W21841  12.359  16.298   5.907 -0.1872 -0.0249 -0.0476
84348W        W21842  31.930  30.803  24.884 -0.2150  0.0174  0.1826
84349W        W21843  28.236  20.791   4.782  0.0810 -0.1655  0.0055
84350W        W21844  23.136  25.800  12.249  0.0564 -0.3000 -0.1278
84351W        W21845  12.039  33.861  23.429  0.2720 -0.2600 -0.0976
84352W        W21846  28.233  35.290  22.610 -0.0106 -0.0876  0.1209
84353W        W21847  11.097  27.153   3.568 -0.2177 -0.1838 -0.3144
84354W        W21848  17.313  19.696  24.315 -0.0059 -0.0181  0.0711
84355W        W21849   4.963  22.565  22.147 -0.1866  0.2138 -0.2077
84356W        W21850  17.052  15.550   6.808  0.0011  0.0442  0.4104
84357W        W21851   1.630   2.737  16.465  0.2499  0.4039  0.0073
84358W        W21852  18.656  21.619   8.939 -0.0243  0.2269  0.2441
84359W        W21853  10.508   7.189   0.322 -0.0383 -0.2112  0.0191
84360W        W21854  35.322  23.182  21.216  0.0217  0.2517  0.0342
84361W        W21855  31.241  13.495  11.326 -0.0378  0.3036 -0.2901
84362W        W21856  14.741   6.714  10.942  0.0863  0.2305  0.1183
84363W        W21857  16.952   1.076  10.333  0.0939 -0.1201  0.1923
84364W        W21858   4.628  33.443  20.349  0.1302  0.2552  0.2580
84365W        W21859  16.835  27.739  11.102 -0.0358 -0.0062 -0.2163
84366W        W21860  30.743  22.112  23.989  0.2117 -0.2807 -0.1595
84367W        W21861  32.432   3.178  25.075 -0.0573  0.0675  0.0312
84368W        W21862  27.515  24.060  19.976  0.0870 -0.0182 -0.1316
84369W        W21863  26.182  18.540  22.966  0.1456 -0.0453 -0.0447
84370W        W21864  26.688  12.430  13.638 -0.0274 -0.1336 -0.1164
84371W        W21865  25.987  28.252  15.635  0.3503  0.1267  0.2071
84372W        W21866  31.452   6.819  21.490  0.0440 -0.1753 -0.0739
84373W        W21867  21.102  21.211  17.297 -0.2470 -0.1785 -0.1544
84374W        W21868  13.437  14.036  10.174  0.2496  0.1637  0.1820
84375W        W21869   6.455  11.532  21.643 -0.3464  0.1778  0.2295
84376W        W21870  15.790   3.458  11.093 -0.1647 -0.0949 -0.0022
84377W        W21871  15.868  34.099  10.959 -0.1442 -0.2879  0.1517
84378W        W21872  20.866  28.132   2.077 -0.1468  0.2626  0.0975
84379W        W21873   7.192  34.647  25.421 -0.1827 -0.1090  0.0565
84380W        W21874  16.799  27.868   3.029  0.2742  0.2054 -0.0580
84381W        W21875   9.370  22.914  21.878  0.2671  0.1353 -0.0472
84382W        W21876  34.609   6.805   1.383  0.1137 -0.1562 -0.0314
84383W        W21877  18.340   8.039  11.841  0.0857  0.2155  0.1227
84384W        W21878   2.536   8.635  21.960  0.0877  0.0047 -0.1359
84385W        W21879  15.035   2.044  22.062 -0.2274 -0.3339  0.1644
84386W        W21880   2.294  25.178  21.243 -0.2596  0.1046 -0.2048
84387W        W21881  23.432   9.148  14.950 -0.0995  0.2298  0.1635
84388W        W21882   1.192   4.579   1.211  0.1276  0.0756 -0.2360
84389W        W21883   8.612  12.762   2.662 -0.1332 -0.0861 -0.0669
84390W        W21884   2.456  29.790  20.779 -0.3918  0.2554  0.1835
84391W        W21885  23.617  25.496  23.409  0.0762 -0.3744 -0.0570
84392W        W21886   0.393  18.825  20.300  0.0981  0.1595  0.1127
84393W        W21887   8.477  29.131   7.505  0.0462  0.3597  0.1533
84394W        W21888  23.701   2.149   3.954 -0.1790 -0.1131  0.0326
84395W        W21889   0.227   4.051   3.431 -0.1761  0.1526  0.1175
84396W        W21890  34.480  35.027  22.799  0.2638  0.2677 -0.0925
84397W        W21891  35.075  22.452  22.127  0.2307  0.0995  0.0324
84398W        W21892  31.501   9.153  19.604 -0.0277 -0.2475 -0.1738
84399W        W21893  25.827  16.463  13.460 -0.0732  0.1286 -0.0006
84400W        W21894  14.226   5.060   9.042 -0.3051 -0.1063 -0.0996
84401W        W21895  27.760  17.095  19.470  0.3065  0.0541  0.1189
84402W        W21896  30.938  20.715   7.555  0.2411  0.0053 -0.0150
84403W        W21897  16.637   4.635   1.477 -0.0065 -0.2635 -0.0280
84404W        W21898  31.390  34.785   6.540  0.0422  0.0160 -0.0283
84405W        W21899   6.766  24.660   5.755  0.1128  0.3360  0.3303
84406W        W21900  17.328  31.401  10.385  0.2112  0.0093  0.2289
84407W        W21901   4.015  27.621   6.258  0.1799  0.2338 -0.0411
84408W        W21902  25.791   6.276  12.939  0.0629 -0.1971  0.1420
84409W        W21903  14.737  17.590   8.630  0.1042  0.0675 -0.3839
84410W        W21904  27.232  10.746   9.116 -0.2407  0.0705 -0.2031
84411W        W21905  23.413  26.020  13.999  0.0628  0.0689 -0.2293
84412W        W21906  25.290  16.925  21.912 -0.0965 -0.2679 -0.1633
84413W        W21907  32.160  10.652  13.120 -0.1360 -0.0663  0.1711
84414W        W21908  21.990  27.243   0.834  0.2132 -0.1129 -0.4662
84415W        W21909  23.610  29.775  22.954 -0.0027  0.0825 -0.0987
84416W        W21910  18.719  30.943  19.883 -0.2401 -0.0394  0.4300
84417W        W21911  16.170  13.634  10.688  0.0032 -0.1514  0.0865
84418W        W21912  10.987   5.944   9.440 -0.0499  0.3179 -0.1262
84419W        W21913  28.522  18.646  16.949  0.0163  0.0865  0.0883
84420W        W21914   2.554   2.330  24.945 -0.0555 -0.1218 -0.1514
84421W        W21915  16.476   1.493  24.773 -0.1630 -0.2580  0.1176
84422W        W21916  33.447  11.128   8.772 -0.0143  0.1654 -0.2794
84423W        W21917  35.282   1.020  22.683 -0.1711  0.2228 -0.1095
84424W        W21918  22.018  27.740  22.879  0.1767  0.1498  0.1541
84425W        W21919  28.550  23.188  15.227  0.4031  0.0531  0.1725
84426W        W21920   7.712   5.487  21.572  0.4820 -0.2569  0.2914
84427W        W21921  27.691  29.871  20.551  0.0688 -0.2250  0.0277
84428W        W21922  33.061   2.738   2.744  0.3190 -0.0501  0.0899
84429W        W21923   0.510  32.943   6.116  0.0679 -0.1586  0.0220
84430W        W21924  17.878  27.742  20.181 -0.4009 -0.0775 -0.4366
84431W        W21925  31.751  32.982   5.025 -0.0408 -0.2578 -0.0662
84432W        W21926   0.226  12.074  24.332 -0.0999  0.0228  0.5599
84433W        W21927  28.751  26.021  22.990  0.0579  0.1098  0.0224
84434W        W21928  34.139  11.825  19.088  0.0004  0.1924 -0.1492
84435W        W21929  20.679  18.076  24.631  0.2058  0.1580  0.1073
84436W        W21930  28.035  24.071  19.698  0.0624  0.2467  0.0937
84437W        W21931  18.138  25.082   3.438  0.1475 -0.0701  0.1467
84438W        W21932  16.190  33.150  19.665 -0.0927 -0.0802 -0.0026
84439W        W21933   9.488  27.163   0.941 -0.0400 -0.1082 -0.1494
84440W        W21934  19.897   9.166   3.656  0.0432  0.3248  0.1653
84441W        W21935  24.455  16.097  22.280  0.0327 -0.0474 -0.4693
84442W        W21936  24.328  19.329  19.323 -0.1723  0.2925  0.0736
84443W        W21937   3.644  19.781   2.044 -0.1037 -0.0940 -0.4740
84444W        W21938  12.664  18.176   5.010  0.1108 -0.2030 -0.2213
84445W        W21939  27.371   3.899  22.454 -0.2906  0.1945 -0.2855
84446W        W21940  15.247  14.226   6.094  0.0216  0.1648  0.1046
84447W        W21941   8.305  17.920   7.004  0.0043 -0.0213 -0.1235
84448W        W21942   0.404  34.164  24.754 -0.1940  0.0652  0.3905
84449W        W21943  27.295  28.811   1.234  0.0778  0.5019  0.0989
84450W        W21944   5.801  12.593  21.986 -0.1620  0.1188 -0.1593
84451W        W21945   9.926   6.356  12.806 -0.1052  0.4984  0.2629
84452W        W21946  12.510  15.801   8.970 -0.3647  0.2445 -0.1209
84453W        W21947  21.247  12.795  15.964 -0.1358 -0.4280 -0.1228
84454W        W21948  26.172  30.922  12.631  0.3313  0.2737 -0.1556
84455W        W21949   4.185  12.603  20.330 -0.3948  0.3007  0.3065
84456W        W21950  25.476  34.724   5.254 -0.0617 -0.2091  0.1867
84457W        W21951  10.231  12.028  11.013  0.1114 -0.2974 -0.0857
84458W        W21952  11.927  33.415  14.316 -0.5312 -0.1585  0.0078
84459W        W21953  14.612  33.840  26.052  0.0454 -0.0677 -0.3477
84460W        W21954   1.311  13.440  18.183  0.0384 -0.0148  0.1384
84461W        W21955  10.769  13.500  20.097  0.3601  0.1231  0.5018
84462W        W21956  25.890  21.742   0.661 -0.0619  0.0628 -0.1891
84463W        W21957  16.161  34.726  22.174  0.1594 -0.0953  0.1838
84464W        W21958  30.326  31.701  24.319 -0.0153 -0.2992 -0.0326
84465W        W21959  35.277  16.642  25.914 -0.1438  0.1254 -0.1448
84466W        W21960  31.718  15.726   9.957  0.2674  0.1914  0.1007
84467W        W21961   4.914  34.097  25.461 -0.0017 -0.1495  0.1358
84468W        W21962  12.038  11.068  20.463  0.2006  0.1182 -0.1948
84469W        W21963  12.953  31.547  23.137 -0.2637 -0.0722 -0.0227
84470W        W21964   6.811   7.859   7.410 -0.0318 -0.1480 -0.2026
84471W        W21965  33.357  28.772  17.223 -0.0625  0.0951  0.3545
84472W        W21966  29.001  27.978  12.450 -0.0546 -0.2403 -0.1517
84473W        W21967  27.170   1.146  21.289 -0.0326  0.0232  0.1972
84474W        W21968   5.077  32.897   6.689  0.0836 -0.0144  0.0619
84475W        W21969   2.624   5.045  18.793  0.2502  0.1560 -0.2817
84476W        W21970  35.240  18.007  22.254 -0.0511  0.0989 -0.2514
84477W        W21971  11.258  14.635   4.979  0.0169  0.0766 -0.0584
84478W        W21972   4.787   8.650   1.059 -0.0378  0.0394  0.1954
84479W        W21973  27.272  21.168   8.229  0.0440  0.0035  0.2766
84480W        W21974  28.052  31.141   3.523 -0.1321 -0.4164  0.0995
84481W        W21975   3.344  14.885  18.131  0.0415 -0.0054 -0.0299
84482W        W21976   0.356  21.093  25.031 -0.1198 -0.0441 -0.1835
84483W        W21977  20.839  19.183  23.416  0.0699  0.0360 -0.4180
84484W        W21978  20.493  10.026   1.595  0.1292  0.1259 -0.0754
84485W        W21979   5.207   3.016  23.447 -0.0722 -0.0789  0.3306
84486W        W21980  25.871  31.691  25.277  0.2261 -0.0075  0.0941
84487W        W21981   1.424  23.646  21.920  0.0622  0.2615 -0.2382
84488W        W21982  19.433   6.724   2.228  0.0318  0.4192 -0.0771
84489W        W21983  30.996   5.309  26.192  0.1078  0.2279 -0.0646
84490W        W21984   4.948  31.566  21.125  0.3382  0.2442  0.2334
84491W        W21985   5.330   2.506   4.808  0.0926 -0.0712 -0.0164
84492W        W21986  10.004  19.242  13.958 -0.1095 -0.0996 -0.2088
84493W        W21987  22.163  17.520   0.840  0.0218 -0.1644 -0.2156
84494W        W21988  18.705   4.632   1.423 -0.3113  0.0631 -0.0957
84495W        W21989  13.682  21.821   9.534 -0.0949  0.0974 -0.0888
84496W        W21990  31.309  20.249   8.660  0.1420  0.1072  0.0467
84497W        W21991  25.748  13.018  20.508  0.0352  0.4344  0.2486
84498W        W21992   1.461  15.423   2.742 -0.3172 -0.1485  0.1022
84499W        W21993  10.178  10.993  11.282 -0.0892 -0.2129  0.0562
84500W        W21994  21.501   5.332  16.641  0.1215  0.0505 -0.1420
84501W        W21995   9.256   5.462   3.628  0.2326  0.1127  0.0806
84502W        W21996  17.761  22.509   0.021 -0.1777 -0.0663 -0.1406
84503W        W21997  20.422  22.410   1.188  0.2935  0.0009  0.1773
84504W        W21998  17.496   0.643  20.163 -0.2342 -0.0099 -0.1189
84505W        W21999   0.943   6.954  13.801  0.1128  0.2040  0.0588
84506W        W22000  14.909   0.091  24.973  0.2767  0.1150 -0.0426
84507W        W22001  31.903  29.638  19.432 -0.0000 -0.0994  0.0229
84508W        W22002  15.971  28.165   9.739  0.2206  0.4121 -0.0026
84509W        W22003   4.883   4.901   2.856 -0.1617 -0.1795  0.0368
84510W        W22004  30.196   7.353  24.224  0.0848  0.2375  0.0006
84511W        W22005  23.742  15.196   1.307 -0.2402 -0.1157  0.2198
84512W        W22006  12.909   4.905   9.225  0.1264  0.0950 -0.2083
84513W        W22007  23.524  25.354  21.757  0.0389  0.3088 -0.1204
84514W        W22008   3.132  15.440  21.106  0.1360 -0.1425  0.1118
84515W        W22009   8.419  25.344  15.461 -0.1327 -0.1932 -0.1085
84516W        W22010  31.661  31.190   5.262  0.3939 -0.1332  0.1788
84517W        W22011  19.700  22.954  20.084  0.2074 -0.0325  0.0113
84518W        W22012  13.328   9.490  13.582  0.1054  0.0709 -0.0571
84519W        W22013  14.318  12.580  25.694 -0.0254  0.0993  0.0516
84520W        W22014   8.045  33.571   3.981 -0.0376 -0.3176 -0.0586
84521W        W22015  34.252  10.785  13.733  0.0543 -0.2143 -0.1704
84522W        W22016   5.456  16.566  20.683  0.2185 -0.1590 -0.2429
84523W        W22017  15.478  33.786   3.685  0.0168  0.1406 -0.0270
84524W        W22018  17.508  34.080  24.990 -0.1356  0.2540  0.0937
84525W        W22019  10.341  16.486  12.818  0.1271  0.0680  0.0760
84526W        W22020   1.993  16.098  24.074 -0.2297 -0.2443 -0.1756
84527W        W22021  19.788   0.884  16.024 -0.2719 -0.1322 -0.2392
84528W        W22022  31.667  29.894  12.007  0.2241  0.0199 -0.1742
84529W        W22023  15.944   7.836   3.033 -0.3284  0.4290 -0.1062
84530W        W22024  19.933   0.352  23.246  0.0176  0.0908  0.0111
84531W        W22025  16.514  13.294   2.731  0.2840 -0.0544  0.2969
84532W        W22026  34.522  33.110  20.528  0.2084  0.0011  0.2514
84533W        W22027  24.409  32.819  18.099 -0.0724 -0.1486 -0.2806
84534W        W22028   9.099   1.726   3.236  0.0007  0.2335 -0.1605
84535W        W22029  25.653  35.308  23.993  0.2555 -0.5232 -0.0817
84536W        W22030   4.504  25.673  22.399  0.1635 -0.0367 -0.0137
84537W        W22031   0.441  12.447  24.594  0.3061 -0.2856 -0.3196
84538W        W22032  16.472   3.568  22.024 -0.3268 -0.0758 -0.0842
84539W        W22033  31.055  30.097   2.113  0.0136 -0.2663  0.0178
84540W        W22034  18.545   3.964  18.713 -0.1011 -0.0516  0.0767
84541W        W22035   9.551  32.297  10.720 -0.0958  0.1605  0.0005
84542W        W22036  11.070  32.065   2.268 -0.2720 -0.0139  0.0716
84543W        W22037  10.325   3.245  11.948  0.0569 -0.2123  0.2839
84544W        W22038  25.496   1.616   0.633 -0.2783 -0.0437  0.1939
84545W        W22039  17.726  32.729  21.235 -0.1401 -0.2038 -0.2685
84546W        W22040  29.998  34.434  23.531  0.0453 -0.0815 -0.1058
84547W        W22041   6.966  25.297  25.698 -0.0082  0.1188 -0.0398
84548W        W22042  23.125  31.101  14.847  0.0172  0.2270  0.0034
84549W        W22043  19.783  13.992   5.756  0.1445  0.1640 -0.0513
84550W        W22044  21.206  22.497   3.089  0.4185 -0.1155 -0.1793
84551W        W22045  11.645   5.898  23.340 -0.0644 -0.3018  0.1497
84552W        W22046  11.751  24.025   6.596 -0.1543 -0.1451  0.3773
84553W        W22047  26.443  24.091  12.529  0.0751 -0.1962  0.1309
84554W        W22048  30.727   2.896  17.278  0.0617 -0.1356  0.0753
84555W        W22049  16.189   6.473   2.811 -0.3858 -0.0229  0.2370
84556W        W22050  21.271  29.256  20.084  0.0767 -0.2631 -0.1222
84557W        W22051   3.617  33.584  21.856  0.1903  0.1938  0.2349
84558W        W22052   5.902  12.120  24.656  0.1347  0.4318 -0.1204
84559W        W22053   9.954  26.824  23.692  0.0386 -0.0490  0.0633
84560W        W22054  11.603  30.836   5.074 -0.0453  0.0179  0.2990
84561W        W22055  20.305   3.091   2.558 -0.2308 -0.1237  0.0526
84562W        W22056  12.283  14.929  12.077 -0.2264 -0.2473  0.0134
84563W        W22057   3.302  31.829  25.478  0.0475 -0.0437  0.1262
84564W        W22058  27.027  28.887  11.898 -0.2422  0.0688 -0.1019
84565W        W22059   3.013  12.124  15.421  0.1965  0.3755  0.1720
84566W        W22060  28.079  13.022  20.320 -0.0561 -0.4677 -0.1693
84567W        W22061   6.634   7.219   3.482 -0.0554 -0.1840 -0.0035
84568W        W22062  29.488   5.094  24.370  0.0794 -0.1107 -0.1269
84569W        W22063  18.630  33.869   3.374  0.2451 -0.1336  0.1215
84570W        W22064  35.013  14.608  20.818 -0.1505  0.0350  0.1142
84571W        W22065  34.873  30.882  17.925  0.1259 -0.2007 -0.0425
84572W        W22066  11.321   4.245  10.037  0.1657 -0.0162 -0.1329
84573W        W22067  32.435  10.942  23.402 -0.2116  0.0814  0.0667
84574W        W22068  32.482  15.415  15.186  0.2808  0.2058 -0.0835
84575W        W22069  14.014   8.898  12.513 -0.0511 -0.0317  0.0630
84576W        W22070  15.802  13.144  11.882 -0.1838  0.3372  0.1942
84577W        W22071  27.948  31.486  15.404 -0.0643 -0.1747 -0.0844
84578W        W22072   2.957  26.981  24.173  0.0048  0.0448 -0.1658
84579W        W22073   3.385   7.979   6.395 -0.0216  0.1321  0.1658
84580W        W22074   3.540   6.466  21.286 -0.2076 -0.0711  0.1671
84581W        W22075  20.057  15.732  23.766  0.1088  0.0117  0.1031
84582W        W22076  32.945  28.327   3.134  0.4045  0.0201 -0.1677
84583W        W22077  16.675  23.739  22.775 -0.1464 -0.1066  0.1969
84584W        W22078   8.744   3.771   2.234  0.1820  0.0798  0.0190
84585W        W22079   3.601  34.800  18.717  0.1034 -0.5127 -0.1059
84586W        W22080   8.846  15.022  23.907 -0.1568 -0.2119 -0.0196
84587W        W22081  33.990  27.315  25.246  0.5562  0.1178  0.3271
84588W        W22082  32.144   7.097  17.690  0.1689 -0.0928 -0.3915
84589W        W22083   0.731  16.544  24.338 -0.7124  0.0923 -0.0424
84590W        W22084  35.376  31.138   2.093  0.0204  0.2159  0.2498
84591W        W22085  11.842   7.579   6.928 -0.1014 -0.0465  0.2205
84592W        W22086  16.275  13.965   3.191  0.1057  0.0072 -0.0843
84593W        W22087  18.720  32.378  25.945  0.0187 -0.1055  0.1431
84594W        W22088  31.374  26.623   0.148 -0.0782  0.1310 -0.0973
84595W        W22089   9.083  17.460  20.917 -0.2482  0.3940  0.0787
84596W        W22090  21.677  29.239   1.739 -0.0485 -0.2119  0.0072
84597W        W22091  23.798   4.563  20.057  0.1131 -0.0456 -0.0602
84598W        W22092  24.121  22.683  15.423  0.1299 -0.1570  0.1641
84599W        W22093  22.624  29.333  20.024 -0.0128  0.1012  0.3122
84600W        W22094  12.795  20.278   4.208  0.1692  0.1559 -0.1043
84601W        W22095  17.711  24.955   3.990 -0.0019  0.2498  0.2084
84602W        W22096  25.655  18.397   0.047  0.4538  0.1745 -0.2348
84603W        W22097  14.019   8.269  11.811  0.0275 -0.1822 -0.1526
84604W        W22098  12.002  32.683   9.198  0.0207 -0.0111 -0.1522
84605W        W22099  23.732   2.569  15.256 -0.0084  0.1107 -0.2471
84606W        W22100   1.537   2.089  18.886  0.0889 -0.0783  0.0502
84607W        W22101   6.263  11.276   5.775 -0.0516 -0.1691 -0.0049
84608W        W22102  10.041   6.892   5.121 -0.0077 -0.2050  0.1299
84609W        W22103  15.068  21.283  24.277 -0.0673 -0.3337  0.0551
84610W        W22104   5.885   6.129  10.594  0.0045 -0.1017  0.0961
84611W        W22105  32.019  17.212  12.133  0.1460  0.1070  0.0486
84612W        W22106   3.999  26.663  20.729  0.2382 -0.2864  0.1349
84613W        W22107  31.883  25.850  11.619  0.0446  0.2329  0.2171
84614W        W22108   4.216   8.532  25.168 -0.0545  0.1416 -0.0180
84615W        W22109  30.815  29.530  15.810 -0.0365 -0.1661  0.1762
84616W        W22110   6.094  26.020  14.073 -0.0667 -0.2190 -0.1479
84617W        W22111   0.332   4.274  20.596 -0.0967 -0.1449  0.1098
84618W        W22112  17.821   5.580  21.876 -0.1568 -0.0577  0.2180
84619W        W22113  13.501   2.664   8.811  0.2501 -0.0937 -0.0989
84620W        W22114   8.903   9.762   9.724  0.0741  0.1868 -0.0776
84621W        W22115   9.452   4.388   0.285  0.0590 -0.1004 -0.0951
84622W        W22116   4.417  30.741  25.949 -0.1674  0.1289  0.1115
84623W        W22117  23.988   2.460  16.112  0.2515  0.2809  0.1376
84624W        W22118  19.445  28.980  17.603  0.0573  0.2119 -0.2492
84625W        W22119  23.749   7.569  20.201  0.0895  0.0465  0.2507
84626W        W22120   8.188  28.565  11.073 -0.1402  0.0351 -0.0720
84627W        W22121  11.571  27.840  25.638 -0.1540  0.0243  0.0628
84628W        W22122  31.519  17.259  14.856  0.0441  0.0363 -0.0280
84629W        W22123  34.919  13.769  11.977  0.1206  0.2446 -0.0308
84630W        W22124  12.834   3.259  20.873 -0.4543 -0.0730  0.0639
84631W        W22125  14.511  17.369   7.220  0.1297  0.0959 -0.0742
84632W        W22126   2.819   4.966  14.495  0.0523 -0.1323 -0.2842
84633W        W22127  26.340  29.945   5.199  0.2491  0.2838  0.1217
84634W        W22128   0.967  21.925  20.563  0.0281  0.2815 -0.1098
84635W        W22129   9.583  16.467   9.376  0.0338  0.0396 -0.0611
84636W        W22130  19.131  18.888   4.523  0.3982  0.2910 -0.2011
84637W        W22131   9.567   9.979   8.998  0.1428 -0.0635  0.0841
84638W        W22132   1.852   0.941   5.162  0.1865  0.2781 -0.4014
84639W        W22133  33.902  13.678  23.192  0.2231 -0.2982 -0.0954
84640W        W22134   8.466  24.189   8.851  0.2043  0.1753  0.1815
84641W        W22135  31.421  30.863  20.450 -0.2515  0.0298 -0.2635
84642W        W22136  15.399   3.321  10.209 -0.1658 -0.2429  0.1612
84643W        W22137   9.781   0.947  24.837  0.0926 -0.3693  0.3104
84644W        W22138  18.411   5.355   8.541 -0.1819 -0.0678 -0.3529
84645W        W22139   7.857  14.910   1.545 -0.1760 -0.0720  0.1042
84646W        W22140   1.583  33.355   3.728  0.1169 -0.2311 -0.0357
84647W        W22141  32.041  14.467  10.343  0.0775 -0.0162 -0.1098
84648W        W22142  31.044   2.210   5.992  0.1247 -0.0589 -0.0766
84649W        W22143  13.521  27.524   1.621 -0.1464  0.1815 -0.2023
84650W        W22144  17.138  13.778   0.574  0.0517  0.0175 -0.0352
84651W        W22145   8.856  23.022   9.333  0.2289  0.0822  0.1643
84652W        W22146  15.096  17.494   1.225 -0.2007 -0.0679  0.0140
84653W        W22147  23.618  33.413  22.539  0.2919  0.1760  0.1009
84654W        W22148   9.712   6.303  14.124 -0.0491 -0.0505  0.1994
84655W        W22149  21.539  16.988   0.637 -0.2990  0.6022 -0.5823
84656W        W22150  10.520  19.444   7.184 -0.0704  0.2452  0.1928
84657W        W22151   5.106  22.010   4.582 -0.1638  0.0742 -0.1032
84658W        W22152   1.371  25.068  17.067 -0.0985  0.1477  0.2205
84659W        W22153  10.593  14.001  20.098  0.2535  0.1681  0.1645
84660W        W22154  19.645  23.410  18.954 -0.2283 -0.2886 -0.0352
84661W        W22155   0.396  32.923  16.581  0.1275 -0.1634 -0.0495
84662W        W22156  34.226  33.015   3.618  0.0674  0.5189 -0.0551
84663W        W22157  10.288  33.582  10.889  0.1138  0.1065 -0.0244
84664W        W22158  22.962  16.165  15.223 -0.2063  0.0494  0.3636
84665W        W22159  16.339  16.988  24.468 -0.4412  0.1918  0.0149
84666W        W22160  21.601  10.112   7.120  0.2239  0.1773  0.2019
84667W        W22161  24.605  10.875  16.536 -0.0848 -0.0747 -0.0537
84668W        W22162  26.675   8.420  13.431 -0.0935 -0.0058 -0.1559
84669W        W22163   0.542  25.795  18.212  0.0130 -0.1350  0.1335
84670W        W22164  30.706  26.035  22.776 -0.0126 -0.2462 -0.0907
84671W        W22165  27.408  11.851  14.702 -0.1446 -0.1167 -0.3479
84672W        W22166  22.084  17.712  17.687 -0.1762 -0.2780  0.4590
84673W        W22167  11.547  12.827  20.982  0.2364 -0.0822  0.0765
84674W        W22168  29.195  35.282  12.758 -0.1601 -0.1569 -0.0465
84675W        W22169  24.193   9.952  13.079 -0.1215 -0.3251  0.3800
84676W        W22170   9.238  22.282  16.057  0.0630 -0.1704 -0.0417
84677W        W22171   6.075  30.352   9.635 -0.3006  0.1941 -0.1665
84678W        W22172  28.279  22.277  15.905 -0.2352 -0.1562  0.1375
84679W        W22173  19.411  30.001   3.577 -0.0805  0.1376 -0.2302
84680W        W22174  18.539  21.855   5.419  0.1707  0.1364 -0.0435
84681W        W22175   9.927  23.534  26.141 -0.1520 -0.2485 -0.1067
84682W        W22176   4.468  24.091  23.964  0.2362  0.3390  0.0823
84683W        W22177   3.578   1.297   9.863  0.1899 -0.1679 -0.3062
84684W        W22178  23.197   4.623   1.297 -0.0872  0.2333  0.1274
84685W        W22179   7.939  16.303   0.636 -0.2804  0.0475 -0.1269
84686W        W22180  28.366  14.939  19.421 -0.3093  0.0661  0.1883
84687W        W22181  14.222  23.374   1.470  0.4273  0.1265 -0.2787
84688W        W22182  18.035  15.202  12.105  0.0460  0.2240 -0.0083
84689W        W22183   4.073   7.687   4.526 -0.1664 -0.0610  0.3241
84690W        W22184   7.683   4.525   8.688  0.2930 -0.0518  0.0097
84691W        W22185  14.943   8.472  10.700 -0.0836  0.0330  0.0424
84692W        W22186  26.751  20.026   5.156  0.0095 -0.0889  0.1752
84693W        W22187  12.642  18.109   3.657  0.0855  0.0711  0.0142
84694W        W22188   8.499  26.655   2.313 -0.0169  0.1888 -0.1376
84695W        W22189  26.288  32.990  11.971 -0.0211  0.1729 -0.0449
84696W        W22190  12.020  25.364   5.542  0.0810 -0.0334  0.2369
84697W        W22191  35.156  27.965  20.308  0.4715  0.1872 -0.0413
84698W        W22192  10.048  11.670  10.575  0.2183 -0.2773  0.0780
84699W        W22193  18.401  12.711  22.780 -0.2457  0.1259 -0.0966
84700W        W22194   0.181  33.382   7.647  0.1081  0.1515 -0.0519
84701W        W22195  14.167  10.938  12.688 -0.0050  0.1386  0.3782
84702W        W22196  14.798   5.907   7.256  0.3217 -0.0924 -0.0502
84703W        W22197   0.962  26.245   4.038 -0.3623  0.0537  0.0839
84704W        W22198  31.959  12.619  12.851  0.0464  0.0327 -0.1262
84705W        W22199  26.869  22.656  17.550 -0.3215  0.2264 -0.3603
84706W        W22200  26.576  15.523  26.011  0.0189  0.1638 -0.1921
84707W        W22201  35.223   1.977  23.544 -0.3903 -0.1546 -0.0116
84708W        W22202  20.579  15.383   2.174  0.6572  0.1491 -0.0648
84709W        W22203  14.265   1.357  21.754  0.0482 -0.0171 -0.3149
84710W        W22204  16.838  30.727   0.223  0.0411  0.1774 -0.0139
84711W        W22205  18.766   4.141   8.332  0.0194 -0.0640 -0.1035
84712W        W22206  29.151  31.574  20.927  0.0325 -0.1900  0.0533
84713W        W22207  17.277  20.240  11.008  0.1026 -0.1712  0.1827
84714W        W22208  13.665  29.915  23.524  0.1502 -0.4762  0.0109
84715W        W22209  35.210  33.353  24.571  0.0512 -0.1793  0.0488
84716W        W22210  25.967  35.070  18.293  0.1933 -0.0304  0.1352
84717W        W22211   8.906  33.215  10.395 -0.0355 -0.2269  0.4319
84718W        W22212  26.430  10.335  16.880  0.3300  0.0495 -0.1447
84719W        W22213  28.320   4.061   2.161 -0.0022 -0.0827  0.2394
84720W        W22214  28.497  22.168  13.098  0.0921 -0.4896 -0.0310
84721W        W22215  10.094   4.164  13.670  0.3365  0.2035 -0.0595
84722W        W22216   4.198   2.037   3.480  0.0983  0.1185 -0.1599
84723W        W22217  10.430  10.932  13.023 -0.0939 -0.2099  0.2408
84724W        W22218  27.413  28.558  22.925 -0.1427 -0.0993  0.2590
84725W        W22219  27.579   1.870   0.495  0.1033  0.1131  0.0080
84726W        W22220  30.036  34.857  12.702 -0.4334 -0.1352  0.2929
84727W        W22221  23.391  26.268  12.216 -0.2302  0.1060 -0.0892
84728W        W22222  34.712  22.459  24.967 -0.0132 -0.2244 -0.1659
84729W        W22223  26.985  26.932  21.716 -0.2485 -0.1629 -0.1265
84730W        W22224  34.118  16.406  20.560  0.1709 -0.1026  0.1124
84731W        W22225   8.824  18.051  20.645  0.0898  0.2580  0.1100
84732W        W22226  17.144  34.808  18.858  0.4010 -0.0975  0.0109
84733W        W22227  20.031   2.724  23.763 -0.2071 -0.2116 -0.0049
84734W        W22228   9.773   2.709  11.947 -0.0552 -0.2009  0.0639
84735W        W22229  26.990  13.453   7.806 -0.0468 -0.1977  0.0686
84736W        W22230  10.665   3.535  21.294 -0.0016  0.1001 -0.0108
84737W        W22231  29.446   6.437  15.863 -0.2464 -0.2653  0.0919
84738W        W22232  23.786  24.373   0.895 -0.5934 -0.5666  0.1205
84739W        W22233  14.465  21.870  12.221  0.2189  0.1081  0.0734
84740W        W22234  33.840  22.588  24.467 -0.0481 -0.0724 -0.3884
84741W        W22235  30.112  18.373  10.063 -0.0823  0.2259  0.0523
84742W        W22236   6.284  11.784   0.667 -0.0402 -0.1799  0.2568
84743W        W22237  24.967  25.479  23.904  0.0978 -0.2706 -0.3660
84744W        W22238  13.171   6.544  20.205 -0.0876 -0.1101  0.1406
84745W        W22239   3.107  24.064  19.179 -0.2904  0.1048  0.2497
84746W        W22240   6.349  32.340  23.037 -0.2594 -0.0294 -0.0881
84747W        W22241  19.472  28.402  24.490 -0.0292  0.4202 -0.0226
84748W        W22242  34.388   7.993  20.481 -0.1722 -0.0296 -0.2158
84749W        W22243  28.649   6.676  14.462  0.1466 -0.0310  0.1831
84750W        W22244  17.996   0.615   3.041 -0.2092 -0.3269  0.0509
84751W        W22245   0.555   2.355  20.707  0.0477  0.1090  0.1595
84752W        W22246  19.208  14.683   3.845 -0.0704  0.0652 -0.0497
84753W        W22247  32.314   0.483  13.270  0.0404  0.2379 -0.2692
84754W        W22248  18.351   8.238  24.367 -0.1442 -0.2467 -0.4972
84755W        W22249   7.672   4.624   0.878  0.0542 -0.0873  0.0244
84756W        W22250   5.222  21.739   1.267 -0.2159  0.0203  0.0912
84757W        W22251  19.292  35.016  24.405 -0.0060 -0.1244 -0.2700
84758W        W22252   3.059  23.033  19.281 -0.3721  0.0963  0.2116
84759W        W22253  12.502   8.558   7.589  0.0013  0.3060  0.2451
84760W        W22254  35.138  19.303  21.406  0.0774 -0.2832  0.0528
84761W        W22255  10.375   8.964  11.018  0.1516  0.0461 -0.3062
84762W        W22256   6.480  35.360  20.996  0.4486  0.2456 -0.0072
84763W        W22257  28.624  35.056   3.920 -0.0776 -0.1730 -0.1727
84764W        W22258  20.040   7.299  25.938  0.1493 -0.1556 -0.0231
84765W        W22259  22.790  22.469  16.639 -0.2417 -0.0416  0.1146
84766W        W22260  11.237  10.518  12.513  0.2820  0.0098  0.0738
84767W        W22261  10.731   6.673   1.477  0.1227 -0.1438  0.1785
84768W        W22262   5.908  11.693   3.354 -0.2712 -0.2129 -0.1176
84769W        W22263  11.127  23.062   2.833  0.0390 -0.0122 -0.1249
84770W        W22264  17.090   0.268  23.370  0.1118  0.0103 -0.0188
84771W        W22265  25.659  26.155  13.636  0.0150  0.0439 -0.0098
84772W        W22266   6.314  23.900   6.338 -0.2000  0.0074 -0.2351
84773W        W22267  21.501  21.546  21.208 -0.2876 -0.0527  0.1318
84774W        W22268   7.017  31.809  25.448 -0.0362  0.1314 -0.3524
84775W        W22269  10.321  31.750  10.424 -0.2715 -0.1594 -0.4608
84776W        W22270  34.433  25.106  23.270  0.1641 -0.1334 -0.0450
84777W        W22271  28.192  17.793  16.159 -0.1470  0.2397 -0.0456
84778W        W22272   8.631   4.843  22.389  0.0718 -0.1342  0.2816
84779W        W22273  26.927  25.611  13.849 -0.0514 -0.1349 -0.1131
84780W        W22274  26.690   8.942  12.010  0.0529  0.0581  0.2424
84781W        W22275  21.879  25.058   0.582 -0.1807  0.2311  0.0139
84782W        W22276  10.189  31.453  21.545  0.2873  0.1155 -0.0944
84783W        W22277   7.458  22.879  16.196  0.0136 -0.1557  0.0996
84784W        W22278   1.423  32.321  18.426 -0.0899  0.1300  0.2970
84785W        W22279   9.906  15.198   3.278 -0.0039  0.2686  0.3629
84786W        W22280  34.749  11.372   0.353 -0.0341  0.1928  0.4267
84787W        W22281  30.768   9.161  18.968 -0.6101 -0.3308 -0.1429
84788W        W22282  28.061  25.700  17.845 -0.0002 -0.2452  0.0851
84789W        W22283  24.304  20.429   1.011 -0.2003 -0.2814  0.1914
84790W        W22284  31.459  16.767   7.054 -0.0223 -0.1570  0.1604
84791W        W22285   8.611  11.413   2.997 -0.0141  0.3088  0.0279
84792W        W22286   4.541  19.726   2.241 -0.2843 -0.3575 -0.0111
84793W        W22287   8.095   7.880  19.601  0.0344 -0.0331  0.0894
84794W        W22288  21.679  22.866  25.744  0.1588  0.1985 -0.0686
84795W        W22289  10.690   2.894  11.166 -0.2817  0.0888  0.1601
84796W        W22290  12.150  18.892  12.441 -0.0977  0.0035 -0.1250
84797W        W22291  10.792  34.902   2.180 -0.0377  0.3725  0.0375
84798W        W22292  16.760  19.721  10.483  0.1436  0.2317  0.2334
84799W        W22293   7.209   5.442  11.270 -0.4413  0.0037 -0.0565
84800W        W22294  26.144  12.714   9.210 -0.0759 -0.3903 -0.0911
84801W        W22295  17.676  19.948   3.088 -0.1633 -0.2505 -0.0505
84802W        W22296  33.102   5.846  13.942  0.2119 -0.0790  0.0232
84803W        W22297  13.289  24.468  14.887 -0.1952 -0.1161 -0.1929
84804W        W22298  24.257  13.154  23.150  0.1827 -0.0448 -0.0786
84805W        W22299  19.786  17.278  23.714  0.0039  0.0371  0.0083
84806W        W22300   3.726  13.770  23.445 -0.3776 -0.2610 -0.1525
84807W        W22301  32.314   1.243  14.957 -0.3420  0.1481 -0.3317
84808W        W22302   6.502  28.582   7.045 -0.2421 -0.0025 -0.2942
84809W        W22303  28.294   3.628  14.400 -0.2970 -0.2826 -0.3070
84810W        W22304  14.033   9.560  23.464 -0.1588 -0.0918 -0.2352
84811W        W22305  19.863  34.722  25.178 -0.1603 -0.1866 -0.1383
84812W        W22306  19.696  14.585   8.151 -0.2603  0.2418  0.0621
84813W        W22307   9.444   4.272   6.828  0.1016 -0.1885  0.0702
84814W        W22308   2.838  17.544  17.606  0.3590  0.3578  0.1728
84815W        W22309   8.317  31.803   5.357 -0.0763  0.2483  0.1425
84816W        W22310   9.164  32.596   1.227 -0.1720  0.0108 -0.0146
84817W        W22311   4.133  31.963   5.880  0.0361  0.2536 -0.0540
84818W        W22312  15.007  18.699   7.980  0.1996  0.1098  0.0641
84819W        W22313  20.133  21.086   4.762 -0.1359 -0.2508  0.0921
84820W        W22314  24.999  17.747  14.991 -0.2257  0.2697  0.1689
84821W        W22315  29.106  19.666   5.847  0.1973 -0.3468 -0.3591
84822W        W22316   7.639  19.967   3.552  0.2416 -0.2781 -0.2098
84823W        W22317  26.092  23.197  20.016  0.2996  0.1784 -0.2563
84824W        W22318  34.606  10.242  14.897  0.2475  0.2726  0.1042
84825W        W22319  10.110  30.734  15.045 -0.1294 -0.1364 -0.0286
84826W        W22320  27.558  12.277   8.855 -0.2017 -0.0173  0.0110
84827W        W22321  21.066  33.995  15.942  0.1959 -0.0661 -0.0212
84828W        W22322  14.857   2.174   9.800 -0.1818  0.0755 -0.0523
84829W        W22323   6.105   8.392   1.407 -0.2427 -0.1546 -0.0235
84830W        W22324  23.680   4.896   5.553  0.0417 -0.2724 -0.1021
84831W        W22325  21.091  23.165  21.687 -0.1671  0.0295 -0.3421
84832W        W22326  18.641  24.571   4.395  0.2496 -0.2582 -0.0135
84833W        W22327  30.821  29.444  16.304 -0.0396  0.2069 -0.2780
84834W        W22328  24.605   5.508  20.130 -0.2236 -0.2156 -0.0867
84835W        W22329   0.280  31.752   5.549 -0.2568  0.0062 -0.2184
84836W        W22330  24.881  18.349  10.002  0.1150  0.0471 -0.1406
84837W        W22331   6.209  16.763   2.063 -0.0127  0.1681 -0.0335
84838W        W22332   0.846  32.105  18.227 -0.0827 -0.2660 -0.1594
84839W        W22333  30.766   0.702   5.001 -0.4430 -0.0847 -0.2524
84840W        W22334  20.517  19.454  17.397  0.1625  0.1646 -0.1186
84841W        W22335  24.859  26.626  25.429  0.0529  0.0304  0.1291
84842W        W22336  18.758   8.469   5.169  0.1202  0.1642 -0.2312
84843W        W22337  20.784   7.611   3.527 -0.0034 -0.0992  0.1858
84844W        W22338  30.946  22.169  13.451 -0.2002  0.4563  0.2265
84845W        W22339  34.561   1.694  25.876 -0.1613  0.3220 -0.1982
84846W        W22340  34.895   1.233   3.970 -0.3617  0.3720 -0.0050
84847W        W22341  18.727  18.520  24.014 -0.0373 -0.3296  0.3183
84848W        W22342  31.545  11.878   8.042 -0.2118  0.1846 -0.0989
84849W        W22343  27.291  19.996  25.100  0.1277  0.0851  0.2178
84850W        W22344   7.561  18.333  22.775 -0.1218  0.3471  0.0693
84851W        W22345   0.888  13.156  18.005  0.1605 -0.0937 -0.2798
84852W        W22346  15.753  33.962   4.497  0.2593  0.3192 -0.0095
84853W        W22347  14.292  21.804   0.754  0.0377 -0.0245  0.3375
84854W        W22348  11.507  12.947  24.948 -0.1857  0.2947  0.2774
84855W        W22349  26.861  14.711  11.036  0.0609 -0.0319 -0.1593
84856W        W22350   3.500  15.856  19.526 -0.1163 -0.1231  0.1456
84857W        W22351  30.519  26.718   0.812 -0.1426  0.0878  0.2410
84858W        W22352  32.952  16.699  18.204 -0.0334 -0.2053  0.1069
84859W        W22353   9.666  23.902   9.054 -0.1215  0.1940  0.2666
84860W        W22354  34.125  27.329   1.611 -0.2749  0.1424  0.0586
84861W        W22355  27.049  16.771  16.523  0.2788 -0.0738 -0.2873
84862W        W22356  10.131   7.227   9.294 -0.0589 -0.1463  0.2165
84863W        W22357  13.154  26.810   0.875 -0.3447 -0.1886 -0.0754
84864W        W22358  14.274  21.517   5.344  0.2752 -0.2521 -0.1832
84865W        W22359  34.851  22.885  21.399 -0.1584  0.0465 -0.1658
84866W        W22360  28.449  22.763  18.395 -0.1433  0.3616  0.1633
84867W        W22361  12.919  21.463   2.396 -0.4436 -0.0190  0.0665
84868W        W22362  23.097  11.141  14.002 -0.2196 -0.2446  0.3213
84869W        W22363  32.000  23.170  22.017  0.2134  0.2343  0.0820
84870W        W22364  26.741  26.568  12.504 -0.0452  0.1698  0.0362
84871W        W22365  25.594   0.961  17.863 -0.4043 -0.0095  0.0675
84872W        W22366  25.190   8.200   4.211  0.0147  0.2458 -0.1586
84873W        W22367  15.196   8.719   7.879 -0.0102  0.1064 -0.0782
84874W        W22368   7.546  12.160  20.889 -0.0590 -0.0842 -0.1498
84875W        W22369   0.854  10.463  18.070 -0.1230 -0.0163 -0.1852
84876W        W22370  29.684  11.913  12.566 -0.2773 -0.0192  0.1337
84877W        W22371  20.343   7.990   9.132 -0.0127  0.3568 -0.2531
84878W        W22372  23.134   9.578  25.683  0.1330  0.0401  0.1114
84879W        W22373   7.528   4.189   4.190  0.2168 -0.2451 -0.0647
84880W        W22374  31.246  16.852  15.770 -0.2473 -0.1975 -0.0691
84881W        W22375  31.124  10.393  16.128 -0.0048 -0.1078 -0.2566
84882W        W22376  26.318   5.805  20.921  0.1903 -0.2657  0.0366
84883W        W22377  11.211  32.746  23.194 -0.0659 -0.1077 -0.1099
84884W        W22378   4.204  29.187   3.688  0.0712  0.0933  0.2788
84885W        W22379  25.560  31.505  23.967  0.0178  0.1800 -0.1694
84886W        W22380  35.284   0.932  21.931  0.0640  0.0232  0.3143
84887W        W22381  24.508  33.389  24.468 -0.0594 -0.0751 -0.2588
84888W        W22382  18.367   1.318  22.026  0.2532 -0.1717 -0.1003
84889W        W22383  26.076   9.898  13.456  0.0070  0.0588 -0.2268
84890W        W22384   6.237  27.417  14.610  0.0877  0.0618 -0.2820
84891W        W22385  28.565   8.342  26.089  0.0295  0.1698 -0.3010
84892W        W22386  17.468  25.835   4.925  0.1544  0.0051  0.0061
84893W        W22387  25.573   6.816   4.220 -0.0033  0.1393 -0.0898
84894W        W22388  30.703  11.028  24.339  0.2628  0.1827 -0.2088
84895W        W22389  22.698  17.303  23.605  0.0867  0.2460  0.0745
84896W        W22390  22.698  33.177  18.326 -0.0623 -0.0476  0.0941
84897W        W22391  15.597  29.827  13.234  0.0357 -0.2122  0.0946
84898W        W22392  12.890  23.049  14.603  0.1384 -0.0071  0.0197
84899W        W22393   8.866  22.778   2.818 -0.4433  0.1735  0.1585
84900W        W22394  26.247  20.414  19.789  0.0721  0.1967 -0.0767
84901W        W22395  12.722  31.543  26.164 -0.1574 -0.0462 -0.0112
84902W        W22396   5.211  15.136   7.403 -0.0269  0.0261 -0.1935
84903W        W22397  21.306   5.809  21.762 -0.1137  0.0676  0.0109
84904W        W22398  14.607   5.901   5.437 -0.1466 -0.1481  0.1477
84905W        W22399  20.918  11.026   1.649 -0.0107  0.0860 -0.0801
84906W        W22400  11.654  35.148  12.612 -0.0983  0.1908  0.0060
84907W        W22401  33.916  22.102   6.804  0.0696  0.1068  0.0090
84908W        W22402  11.489  28.536   2.036 -0.0566  0.0638 -0.3514
84909W        W22403  17.902  11.640  22.442  0.0411  0.0392 -0.1251
84910W        W22404   7.937  34.776   7.461  0.1837 -0.0951  0.1139
84911W        W22405  29.813  12.710  24.138 -0.1658 -0.5922 -0.2807
84912W        W22406  12.310   2.820   9.283 -0.2498  0.0058  0.1081
84913W        W22407  10.851  27.147  16.047  0.0910 -0.1428  0.2958
84914W        W22408  23.737  28.246   5.342 -0.0693  0.0010 -0.0673
84915W        W22409  31.872  28.524   2.240  0.2614 -0.0685 -0.0028
84916W        W22410  28.678  15.013  16.140  0.0223 -0.1129 -0.1279
84917W        W22411  32.405   2.911  12.365  0.0847 -0.0271 -0.0031
84918W        W22412  10.046  28.005   5.218 -0.1740  0.0782  0.1030
84919W        W22413   4.593   7.410  24.715  0.0873  0.1549  0.0796
84920W        W22414  29.713   1.646  20.426  0.2370 -0.0496  0.1100
84921W        W22415   1.852  14.865  16.641 -0.1694 -0.1402  0.2298
84922W        W22416  28.367  22.394  24.530 -0.3355  0.2012 -0.2124
84923W        W22417  26.926  11.034  16.710  0.0553 -0.3221  0.2997
84924W        W22418  26.131  19.156  20.137  0.0886 -0.1386 -0.0296
84925W        W22419   4.241  19.607  22.772  0.1629  0.2317 -0.2409
84926W        W22420  22.219  19.592  22.279  0.0289 -0.0018  0.1988
84927W        W22421   1.571  32.193   7.121 -0.0533  0.1538 -0.2667
84928W        W22422   1.654  16.756  18.058  0.0566 -0.1124 -0.0069
84929W        W22423  18.310  19.961   1.464 -0.0426  0.1041  0.0646
84930W        W22424  12.903  34.250  21.790 -0.0720 -0.0758 -0.3129
84931W        W22425  11.159  29.364  14.264 -0.1874  0.0545 -0.1012
84932W        W22426  21.849  16.216  20.275 -0.1611  0.2639  0.2762
84933W        W22427  30.810  30.029   1.427  0.0549  0.3151  0.1700
84934W        W22428  22.970  25.743  15.548  0.1016  0.0716  0.0376
84935W        W22429  20.239  32.904   7.316 -0.2168 -0.0339 -0.0274
84936W        W22430   4.131  33.823   7.961  0.2609 -0.1524  0.1958
84937W        W22431   1.703  13.137  16.080 -0.1251 -0.0713  0.0881
84938W        W22432   7.882  12.167   0.274  0.1222 -0.1662 -0.0165
84939W        W22433  19.504   8.911   0.258 -0.2365 -0.2065 -0.0268
84940W        W22434  25.705   4.437  17.878  0.1865  0.1245  0.1111
84941W        W22435   6.479   0.402   3.558 -0.0569 -0.3427  0.1314
84942W        W22436  19.152   2.391  16.789 -0.1366 -0.1185 -0.2269
84943W        W22437  33.270  32.551   0.647  0.3873  0.2227  0.0626
84944W        W22438  34.870   8.800  23.093 -0.1286 -0.0667  0.0825
84945W        W22439  21.303   6.484   1.452 -0.1285 -0.5311 -0.1580
84946W        W22440  18.959  24.420   1.816  0.0391 -0.3289 -0.0412
84947W        W22441  22.229  31.906  23.461  0.0612 -0.0137  0.0445
84948W        W22442  30.417  11.334  25.578 -0.1935 -0.0497 -0.0396
84949W        W22443  30.666   8.860   0.034  0.2150 -0.2818 -0.0665
84950W        W22444   8.100  12.648   7.475  0.3399  0.0909 -0.0863
84951W        W22445  27.399  22.725  17.543  0.0871 -0.1566 -0.3794
84952W        W22446   7.491  34.453  10.730 -0.1171 -0.2071  0.2146
84953W        W22447  12.736   2.297  12.151 -0.0256  0.1820 -0.2145
84954W        W22448  25.109  24.002  14.281  0.1223  0.0013 -0.2291
84955W        W22449  25.238  14.101  10.191  0.0158  0.1980 -0.2517
84956W        W22450  12.619  28.101   0.389 -0.0962 -0.0413 -0.2035
84957W        W22451  23.145  22.993   1.842 -0.0928  0.0363  0.0451
84958W        W22452  20.925  32.613  19.991 -0.2917 -0.2638 -0.2234
84959W        W22453  31.369  16.882  20.868 -0.0951 -0.2917  0.0893
84960W        W22454  17.193  30.149  26.175 -0.1526  0.1967  0.1341
84961W        W22455  13.394  33.464   9.487 -0.0417  0.0238  0.3056
84962W        W22456   8.404  28.552  16.341 -0.3460  0.3526 -0.1219
84963W        W22457  21.135  11.071  25.523  0.0431 -0.1529  0.0190
84964W        W22458  26.030  10.204  18.064 -0.0788 -0.3120 -0.2386
84965W        W22459  25.823  29.264  23.263  0.3059 -0.1894 -0.0857
84966W        W22460  31.687  13.456  13.266 -0.0167 -0.0270 -0.0966
84967W        W22461  27.644   7.080   3.549 -0.0365 -0.1347 -0.0660
84968W        W22462   1.237  16.573  23.358  0.0317  0.1175  0.0094
84969W        W22463  19.173  18.917  24.798 -0.2050 -0.3310 -0.2429
84970W        W22464   1.312  33.408   6.764 -0.3812  0.0257 -0.3620
84971W        W22465  27.322  27.094  23.059 -0.0138 -0.0305  0.1235
84972W        W22466  28.999   6.767  20.362 -0.1450  0.0255  0.0441
84973W        W22467  25.446  20.013  20.828 -0.2434  0.3336  0.1880
84974W        W22468  22.934  26.620  11.948 -0.3091 -0.0979 -0.2063
84975W        W22469  21.279  27.268  24.109  0.2731 -0.1546  0.0398
84976W        W22470  24.355  10.885   0.660  0.1918 -0.1636  0.0820
84977W        W22471  11.872  35.363  24.637  0.1621  0.0628  0.0830
84978W        W22472  18.470   8.367   6.461 -0.0290 -0.0286 -0.1988
84979W        W22473  28.717  18.928  11.150  0.1759 -0.0834 -0.4248
84980W        W22474  32.623  15.027  26.168 -0.1105 -0.0812 -0.4608
84981W        W22475  26.209   5.804  16.223  0.0538 -0.3140  0.1288
84982W        W22476  32.151   1.738   0.108  0.1309 -0.0009  0.0204
84983W        W22477  18.455  32.748   0.633 -0.0678 -0.0900 -0.0281
84984W        W22478  32.941  32.795  21.829  0.2632 -0.1944 -0.2286
84985W        W22479  32.808   3.520   6.045  0.0789 -0.2823 -0.2656
84986W        W22480  30.596   6.169  16.465  0.1745  0.0782 -0.0830
84987W        W22481  26.496   8.113  12.499  0.0555  0.3722  0.3156
84988W        W22482  11.791  28.983   1.838  0.0551  0.1523 -0.0205
84989W        W22483  26.319  22.889  25.159  0.1061 -0.1305  0.2267
84990W        W22484  23.345  14.605  22.924 -0.3382 -0.0626  0.0957
84991W        W22485  31.183  11.729  14.284 -0.1487 -0.0930  0.1545
84992W        W22486   9.327   4.744  20.055  0.2641 -0.1603 -0.3083
84993W        W22487  15.380   3.791   3.330 -0.2160 -0.1768  0.0713
84994W        W22488  20.188  10.818   1.458  0.2716  0.0727  0.0527
84995W        W22489   6.395   5.401  25.773 -0.2140  0.0402 -0.1421
84996W        W22490  16.722   5.008  22.032 -0.0143  0.0299 -0.1799
84997W        W22491   4.422  29.995  19.897 -0.2549  0.1317 -0.3350
84998W        W22492  14.512   7.633   2.809 -0.0843  0.1173  0.0946
84999W        W22493  23.456  19.791   1.804  0.1253  0.2561  0.0044
85000W        W22494  25.994  29.297  12.760  0.1757  0.0043  0.0458
85001W        W22495  20.927  29.473   1.621 -0.0734  0.0336  0.0915
85002W        W22496  14.589  34.083  12.777  0.0565  0.1508  0.2187
85003W        W22497  26.350  14.707   0.254 -0.1410  0.1055 -0.1301
85004W        W22498  14.803  35.224  11.447  0.2268 -0.2080 -0.1075
85005W        W22499  13.474  12.203   8.860 -0.0194  0.0244 -0.1723
85006W        W22500  26.322  27.025  20.041 -0.1776 -0.1137  0.0657
85007W        W22501   7.065  28.747  21.211 -0.1839 -0.0235 -0.0977
85008W        W22502  32.007  26.745  22.374  0.1629  0.2453 -0.0972
85009W        W22503  24.519   6.539   2.695  0.0720 -0.2457 -0.1759
85010W        W22504  27.236  24.065  13.534  0.1179  0.1026  0.1747
85011W        W22505  11.075  20.965   2.746  0.2555 -0.0032  0.0993
85012W        W22506  22.494  18.234  15.687  0.0731  0.0493 -0.0537
85013W        W22507  29.579  30.295   0.772 -0.2359 -0.0274  0.2321
85014W        W22508   1.903  28.069  24.563 -0.1206 -0.0930 -0.1150
85015W        W22509  10.040  33.961   5.659  0.2142 -0.0975  0.3684
85016W        W22510  28.842   8.971  24.942  0.1714  0.3078  0.0335
85017W        W22511  10.842  10.689  12.267 -0.2209 -0.2220 -0.1918
85018W        W22512  10.798  13.798   3.035  0.0536 -0.1173  0.1367
85019W        W22513  26.841  13.956  22.154 -0.1584  0.1268  0.0862
85020W        W22514  26.982  34.238   4.230  0.1132 -0.0253  0.1950
85021W        W22515  15.570   3.173  17.513  0.0294 -0.2958  0.0731
85022W        W22516  27.323  23.505  23.269  0.2267 -0.4773 -0.0012
85023W        W22517  32.060  34.553  14.705  0.0249 -0.1752  0.1183
85024W        W22518  30.550  10.862   7.810 -0.0669 -0.2092 -0.1567
85025W        W22519  29.552  10.280  13.485  0.0724  0.1846  0.0888
85026W        W22520  14.112  17.122  20.908 -0.3080  0.0293 -0.1334
85027W        W22521  21.975   1.050   5.107  0.2214  0.2142  0.0014
85028W        W22522  14.830  15.689   7.999 -0.2485 -0.0992 -0.1035
85029W        W22523  27.457  13.122   6.703  0.1838  0.2430  0.2295
85030W        W22524  20.218  32.657  18.325 -0.1836 -0.2745 -0.1277
85031W        W22525   4.484   9.368  20.542 -0.4677 -0.1345 -0.0575
85032W        W22526  33.354  18.070  15.821  0.2336 -0.0410  0.0699
85033W        W22527  12.764  13.750   6.899 -0.0805  0.1869  0.0521
85034W        W22528  21.777  34.807   6.281  0.2814  0.1771  0.0488
85035W        W22529  28.795  35.251  19.763 -0.1624 -0.2082  0.0063
85036W        W22530  33.338  23.172  19.105  0.1858 -0.2873  0.1482
85037W        W22531  33.585  15.618  25.010  0.0269  0.0278  0.1446
85038W        W22532  21.696  21.031  19.680 -0.0533  0.0298 -0.0653
85039W        W22533  19.661  30.860   7.832 -0.1002  0.0090  0.0231
85040W        W22534   6.738  16.761   9.367  0.5643 -0.1593 -0.0454
85041W        W22535   3.159  28.791   4.372 -0.0328  0.0282  0.1468
85042W        W22536  30.082  19.710  21.490 -0.3104 -0.1809  0.3955
85043W        W22537  18.635  20.769   5.651  0.2552 -0.2266  0.2121
85044W        W22538  19.726   6.733  24.617  0.1991  0.2415 -0.0457
85045W        W22539   6.518   4.671   5.172  0.0978 -0.2505  0.0861
85046W        W22540  24.868  18.793  23.987 -0.0933  0.2774 -0.3024
85047W        W22541  31.049  16.687   6.807  0.0793  0.0904  0.4585
85048W        W22542   9.963  11.248  10.855  0.2655 -0.0994 -0.1794
85049W        W22543  21.682  28.665  23.513  0.1669  0.1747 -0.1469
85050W        W22544  21.516   6.821   9.317 -0.0291 -0.1409  0.2027
85051W        W22545  18.644  24.944   3.909  0.0010  0.0075  0.1314
85052W        W22546   4.432   9.179   2.749 -0.0313 -0.2454 -0.2793
85053W        W22547   3.992   9.702   4.703 -0.0129 -0.0301 -0.4885
85054W        W22548  22.400   0.612  25.181 -0.1092 -0.1619 -0.0426
85055W        W22549   5.987  17.795   9.575  0.3175 -0.2566  0.2671
85056W        W22550  34.103  26.443  22.506 -0.2157 -0.2114  0.2250
85057W        W22551   9.767   9.307  12.748  0.0187 -0.1475  0.1211
85058W        W22552  19.990   2.747  22.190  0.1004 -0.3570 -0.0757
85059W        W22553  26.238  17.935   5.596 -0.3438 -0.1780  0.1774
85060W        W22554   6.372  34.189  24.777  0.0808  0.3368  0.1383
85061W        W22555  27.789  26.885  17.123  0.2721  0.0070  0.1326
85062W        W22556   8.019  21.534  14.419 -0.1826  0.0992  0.1581
85063W        W22557  13.619  28.024  16.041  0.4141  0.2847  0.3885
85064W        W22558   9.740  29.528   5.308 -0.2202  0.1842  0.0447
85065W        W22559  12.607  23.186  13.346 -0.1432 -0.2308 -0.5308
85066W        W22560  20.365   6.191   9.076  0.0896  0.2500 -0.3078
85067W        W22561  23.123  20.858  13.380 -0.1649 -0.1320 -0.0980
85068W        W22562  16.696  17.541   7.903  0.0266  0.0897 -0.3617
85069W        W22563   7.911   9.614  18.561  0.0205  0.1242  0.1622
85070W        W22564  21.197  16.212   4.896 -0.1052 -0.0376  0.1212
85071W        W22565  34.254  16.048   6.920 -0.3302  0.2772  0.2138
85072W        W22566  31.636  25.628  17.342 -0.0651 -0.1384 -0.2440
85073W        W22567  30.448  15.036   7.398 -0.0652 -0.0288 -0.3468
85074W        W22568  18.744  28.127   5.203  0.1132  0.4074 -0.0745
85075W        W22569  11.914   2.296  21.230  0.1741 -0.0363  0.0415
85076W        W22570   9.017   2.064   9.920  0.2338  0.0556 -0.0753
85077W        W22571  31.274  23.579  18.692 -0.1427  0.0925 -0.2027
85078W        W22572  10.131  24.602  12.994  0.2334 -0.0558  0.2042
85079W        W22573   8.224  25.522   9.769  0.2305  0.0129  0.2494
85080W        W22574   9.025  14.135  10.287  0.1665 -0.0507 -0.2768
85081W        W22575  23.681  22.059  16.744 -0.2770 -0.1664  0.1811
85082W        W22576  35.005  27.083   5.533 -0.1386  0.1635 -0.0934
85083W        W22577  25.544  31.770   2.309  0.0011 -0.2580  0.0693
85084W        W22578  34.459  18.457  13.624  0.1631  0.2131 -0.2705
85085W        W22579  25.606  33.035  26.167 -0.4785  0.1277 -0.1136
85086W        W22580  25.590   9.482  11.783  0.3802 -0.1112  0.0100
85087W        W22581  33.158  35.372  22.312 -0.1376  0.4208  0.2566
85088W        W22582  12.778  13.739   2.575  0.2220  0.0828  0.1888
85089W        W22583  13.358   8.148   4.793  0.0418  0.0487 -0.2507
85090W        W22584  27.018  12.205  15.962  0.0418 -0.2186  0.1236
85091W        W22585  18.940  24.819   7.062 -0.1260 -0.0390  0.2380
85092W        W22586  20.288  24.973  20.060 -0.3013  0.0593 -0.2712
85093W        W22587  18.284   5.154  17.458  0.1041 -0.0989  0.1366
85094W        W22588   4.973  10.075  23.216 -0.1889  0.1408 -0.0134
85095W        W22589  11.470   9.032   6.732 -0.1430  0.0704  0.3362
85096W        W22590  33.013  31.345  15.016 -0.1003 -0.1598 -0.2569
85097W        W22591   6.551   5.079   6.326 -0.0139 -0.1632 -0.0414
85098W        W22592  26.792  29.775  11.585  0.1367 -0.2199  0.1298
85099W        W22593  26.523  24.825  22.683 -0.1924  0.0470  0.0359
85100W        W22594  24.131  28.011  18.480 -0.1581  0.2448 -0.2786
85101W        W22595  33.322   9.385   2.602  0.2087 -0.2374  0.1561
85102W        W22596  35.379   4.269  24.655 -0.3770  0.1142 -0.1004
85103W        W22597   7.186  25.151  15.193 -0.0077  0.1711 -0.1741
85104W        W22598   7.662  17.851   4.547  0.1199 -0.0533  0.1011
85105W        W22599   2.742   3.748   5.175  0.0069  0.3385 -0.0133
85106W        W22600  27.642  15.118  21.661 -0.0800  0.0666  0.0079
85107W        W22601  30.748  10.434   1.064 -0.3550  0.0214  0.0281
85108W        W22602  33.835  24.670  21.689 -0.0616 -0.0886  0.3149
85109W        W22603   6.141  16.409  23.377 -0.0734  0.1055 -0.0223
85110W        W22604  25.914   8.375  21.447  0.0875  0.2425  0.2967
85111W        W22605   4.830  23.628  20.831  0.2071 -0.0040 -0.1760
85112W        W22606  32.092  30.301  18.931 -0.1384  0.0143 -0.3190
85113W        W22607   7.843   9.859   0.820  0.2694  0.2060 -0.2793
85114W        W22608  10.635  19.280  23.227 -0.1400  0.1346  0.0836
85115W        W22609  14.694   4.503  20.027  0.0918 -0.1390  0.1753
85116W        W22610  32.434   6.344   2.190 -0.1374 -0.0989  0.2178
85117W        W22611  23.103  18.062  19.574  0.2593  0.0681 -0.3026
85118W        W22612  31.690  13.851  14.510 -0.0228 -0.2456 -0.1035
85119W        W22613  27.119  30.950  10.675 -0.1965 -0.0869  0.2203
85120W        W22614  11.009  28.714   8.040 -0.0720 -0.0091  0.1302
85121W        W22615  29.534  24.679  13.252 -0.2561 -0.1130 -0.0755
85122W        W22616  24.932  31.255   2.160 -0.0481  0.3342  0.2393
85123W        W22617  23.195  17.530  25.159 -0.0018  0.0428 -0.0890
85124W        W22618  26.317  24.767  16.216 -0.0198 -0.3640  0.1236
85125W        W22619  20.955   4.817   6.081  0.1654 -0.0791 -0.0280
85126W        W22620  17.105   4.279   7.115 -0.0571 -0.2543  0.1539
85127W        W22621   3.544  23.855   3.631  0.1055 -0.2559 -0.1281
85128W        W22622  31.160  28.726  16.901  0.0328 -0.2062  0.0898
85129W        W22623  34.727   1.758   1.120  0.1397  0.0469  0.2031
85130W        W22624  25.316   8.946  21.404 -0.0088 -0.1454 -0.0298
85131W        W22625  26.730  19.462  13.074  0.1275  0.2378 -0.0011
85132W        W22626  22.256  30.146  14.540 -0.3945  0.2494 -0.0559
85133W        W22627  13.860  13.142  21.531  0.0599 -0.0672 -0.0623
85134W        W22628  23.880  16.580  17.616 -0.0783 -0.0451  0.1818
85135W        W22629  23.030  26.151  18.654 -0.2450 -0.3118  0.2362
85136W        W22630  11.767  20.576  15.935  0.1240  0.3519 -0.1600
85137W        W22631  13.399  22.353   7.730  0.0996 -0.2127 -0.3002
85138W        W22632   9.053  15.070  22.327 -0.2106  0.0545 -0.0049
85139W        W22633  30.069  30.099  14.386 -0.1992 -0.2300  0.0703
85140W        W22634  18.850   9.032   5.054 -0.1343 -0.1780  0.2850
85141W        W22635  34.754  30.893  19.197 -0.1893  0.1622 -0.3937
85142W        W22636  19.552  15.676  18.658 -0.1142  0.0886  0.0916
85143W        W22637  14.840  16.777  22.751  0.2673 -0.2702 -0.1514
85144W        W22638  21.707  22.548  25.204  0.1145 -0.0122  0.2223
85145W        W22639  25.979  34.075  16.251 -0.1611 -0.2980  0.0566
85146W        W22640  31.657  18.044  18.647 -0.0986  0.1983  0.2491
85147W        W22641  20.100   9.832   0.292 -0.1304 -0.0214 -0.4468
85148W        W22642  24.568  21.655  11.905 -0.0761 -0.0405 -0.0113
85149W        W22643  10.180  14.237  26.147 -0.1252  0.0471  0.3719
85150W        W22644  17.230  17.063   2.632  0.1845  0.2999  0.1790
85151W        W22645  17.703  27.330  10.851  0.1993 -0.0228 -0.2213
85152W        W22646  24.846  30.710  18.208  0.1458 -0.1574 -0.0339
85153W        W22647  18.405  32.537   8.080  0.3945  0.0398  0.0272
85154W        W22648  33.166  11.111  21.886 -0.0738 -0.1151  0.1763
85155W        W22649   7.538  30.340  24.004 -0.1688  0.3462  0.3922
85156W        W22650  22.437   6.409  16.627 -0.1489  0.1968  0.0286
85157W        W22651  26.130  25.844  15.281  0.1411  0.1705  0.1682
85158W        W22652  16.202   0.652   2.402 -0.0809 -0.2248 -0.2372
85159W        W22653  19.924  31.335   8.021  0.0335 -0.1691 -0.1519
85160W        W22654  35.213  22.997   0.210  0.0234 -0.0883 -0.0341
85161W        W22655  14.730   8.750   9.314  0.2500  0.2102 -0.3561
85162W        W22656  25.408  20.082  11.539 -0.1465 -0.4490 -0.2024
85163W        W22657  23.545  13.153  26.215 -0.1687  0.1576  0.0887
85164W        W22658  15.389   2.716  23.653 -0.0835  0.0442 -0.1283
85165W        W22659   5.302  27.592   7.556 -0.0404 -0.2360  0.2695
85166W        W22660  32.616   9.211  10.610  0.2707 -0.0440  0.1436
85167W        W22661  34.714  31.439  16.821 -0.1090  0.0299 -0.0419
85168W        W22662  35.095  27.820  17.086 -0.1853 -0.1724  0.1476
85169W        W22663  28.862  18.523  14.551  0.2008  0.1970 -0.0280
85170W        W22664  24.352  13.223  16.124 -0.0722  0.0849 -0.1220
85171W        W22665  32.966   2.443  12.420  0.1073  0.0810 -0.1024
85172W        W22666   1.076  12.061   3.148  0.4470  0.0880 -0.0440
85173W        W22667   5.195  12.269   7.132  0.1266 -0.2261 -0.0380
85174W        W22668  13.969  10.835  10.554  0.0988 -0.0732 -0.1689
85175W        W22669  10.793  33.016  14.703 -0.0475  0.0937 -0.1665
85176W        W22670  22.745  23.936  24.204  0.1353 -0.0084  0.0526
85177W        W22671  24.648  13.933   2.111  0.1744  0.0389 -0.1502
85178W        W22672   8.845  28.207  11.845 -0.0770  0.0736  0.0342
85179W        W22673  26.168  14.570  13.641  0.1968  0.0716 -0.3651
85180W        W22674   1.612   5.478   1.424 -0.0600 -0.0043 -0.1743
85181W        W22675  34.592  15.065  22.867 -0.2536  0.0802  0.2908
85182W        W22676   8.097  34.997  11.696  0.0636  0.1149 -0.1321
85183W        W22677  17.771   6.523  12.052  0.0706 -0.0525  0.0963
85184W        W22678  16.956  31.546   8.118 -0.0789  0.3767 -0.0813
85185W        W22679  29.319  12.644  16.459 -0.2499 -0.0198  0.2182
85186W        W22680  30.989  18.799   5.852 -0.2628 -0.1503 -0.1220
85187W        W22681   8.707   9.182  24.935 -0.0759 -0.2564 -0.4403
85188W        W22682  12.844  23.596  24.376  0.2593 -0.0218  0.0798
85189W        W22683  21.060   2.643   4.435  0.0552 -0.1053  0.1226
85190W        W22684  27.053  19.105  12.177 -0.1056 -0.1838 -0.0047
85191W        W22685   3.184   1.454  19.592 -0.0735  0.0511  0.4823
85192W        W22686  35.122   3.732  20.463 -0.4417  0.0025  0.0781
85193W        W22687  28.278   7.443  10.888  0.0501  0.0360 -0.0520
85194W        W22688  33.870   4.930   5.008 -0.0921 -0.1804  0.1683
85195W        W22689   3.319  16.474  21.186  0.2180 -0.1702 -0.0674
85196W        W22690  34.491  33.820  15.696  0.1911 -0.0600  0.1730
85197W        W22691   4.325  16.998  25.776 -0.5883 -0.0208 -0.2797
85198W        W22692  20.426   9.389   7.843  0.1268 -0.1115 -0.3229
85199W        W22693   1.473  11.837  12.635  0.0284 -0.1147  0.1029
85200W        W22694  34.054  24.941  13.787 -0.0168  0.4589  0.0488
85201W        W22695  29.286  27.438  23.967  0.0657  0.3532 -0.1613
85202W        W22696  17.937  15.386   5.689  0.0100 -0.0877 -0.1095
85203W        W22697  10.579   3.358  25.337 -0.3320 -0.3018 -0.1596
85204W        W22698  31.914  35.226  25.118 -0.1289  0.0765  0.0007
85205W        W22699  13.377   9.425   2.434  0.0011  0.3317  0.2482
85206W        W22700  25.623  23.612  18.152  0.1430 -0.0042  0.2746
85207W        W22701  24.788   4.172  23.934 -0.0164 -0.1424  0.2112
85208W        W22702   8.174   0.727  12.202  0.2002  0.0524 -0.0403
85209W        W22703  25.947   0.366  13.403 -0.0088 -0.2385 -0.1300
85210W        W22704  28.704  27.383   2.075 -0.0959 -0.0690  0.1237
85211W        W22705   4.273  21.797  20.855  0.1627  0.1045 -0.0371
85212W        W22706  20.983   7.333  22.829 -0.0436  0.1522 -0.1135
85213W        W22707  26.695  35.212  18.954  0.0349  0.0506  0.3921
85214W        W22708   6.513   1.690  19.974 -0.0231 -0.3961  0.2493
85215W        W22709  33.561  27.924  16.168 -0.0086  0.0347  0.4445
85216W        W22710   7.336   1.836  19.369 -0.0429 -0.2177  0.1377
85217W        W22711  30.970  30.636  15.167  0.0128 -0.1288  0.0124
85218W        W22712  34.059  30.582  18.043 -0.0795  0.0440  0.1558
85219W        W22713  18.928   5.328  22.297 -0.1616  0.0969  0.0215
85220W        W22714  21.745   0.615   0.788 -0.0749  0.1743 -0.1110
85221W        W22715   8.047  16.218   4.384  0.0415  0.0728  0.0657
85222W        W22716  18.687  27.871   1.883 -0.2030 -0.0881 -0.0121
85223W        W22717  29.671  19.759  23.596 -0.0344 -0.1709 -0.0168
85224W        W22718  17.693  17.098  23.448  0.0636 -0.0486 -0.3170
85225W        W22719  27.743   0.634   6.031 -0.2691  0.1116 -0.0472
85226W        W22720  19.952  33.739  21.925 -0.1251  0.1816 -0.0635
85227W        W22721  13.246   0.058   9.382  0.2358  0.1004 -0.1168
85228W        W22722   8.074  13.060   2.466 -0.0243 -0.3936  0.0925
85229W        W22723  22.605   1.792  23.994 -0.2369  0.2516  0.2821
85230W        W22724  19.555   7.823  23.287  0.0570 -0.0134 -0.0685
85231W        W22725   8.063   7.519  24.555  0.2193 -0.0888 -0.1372
85232W        W22726  31.436  28.631  22.792 -0.0014  0.1028 -0.0542
85233W        W22727  31.159  10.830  12.253  0.0164 -0.2121  0.0716
85234W        W22728   0.943  25.459  19.541 -0.2707  0.1048  0.0632
85235W        W22729  14.135  25.443   5.507 -0.0960  0.1582 -0.1458
85236W        W22730  10.255  26.128   8.565 -0.0533 -0.1180 -0.1618
85237W        W22731  18.979  12.034  20.305 -0.3331 -0.0246  0.0178
85238W        W22732  11.243   8.670   7.841  0.0041 -0.3197 -0.1359
85239W        W22733  14.531  20.865   2.148  0.0722  0.0959 -0.0443
85240W        W22734  20.214   5.988   3.916 -0.1239  0.2566 -0.2666
85241W        W22735   8.397  33.670  14.658 -0.2786  0.0206  0.0836
85242W        W22736   4.934   1.577  18.526  0.2120  0.1230  0.0550
85243W        W22737   9.854   8.340   0.117  0.2305 -0.0825  0.1117
85244W        W22738  32.454  10.007   0.404  0.3246  0.1475  0.2521
85245W        W22739  24.777  12.922  25.436  0.2107 -0.4620 -0.2664
85246W        W22740   2.896   5.574   5.137  0.0263 -0.1269 -0.2610
85247W        W22741  10.959  30.035  14.303 -0.1234  0.1783 -0.2372
85248W        W22742   5.338  27.235   9.329 -0.1821 -0.0780 -0.3888
85249W        W22743  17.754  15.920   5.654 -0.0700  0.1079 -0.3162
85250W        W22744  12.901   7.587  19.446 -0.0062  0.0535  0.1669
85251W        W22745  12.099  33.180   6.068 -0.0078 -0.4180 -0.3593
85252W        W22746   5.238  32.959  11.653  0.0326 -0.2979  0.2946
85253W        W22747  16.405   8.475   9.834  0.0125  0.2469  0.0579
85254W        W22748  34.872  31.921  22.406 -0.1763  0.1099 -0.1600
85255W        W22749  10.470  12.223   7.547  0.0657  0.0731  0.1997
85256W        W22750   5.157   0.972  12.133 -0.1978 -0.3133 -0.0593
85257W        W22751  27.776  27.353  17.497 -0.2124  0.3177  0.1233
85258W        W22752  25.609   6.139   1.339  0.0271 -0.1004 -0.1651
85259W        W22753  32.886  30.436  19.175 -0.1203  0.1028  0.0232
85260W        W22754  32.623   6.487  16.940  0.0394 -0.0727 -0.3340
85261W        W22755   4.607  31.836   7.261 -0.1079 -0.0171 -0.1757
85262W        W22756  24.372  13.603  13.615  0.1945 -0.3649 -0.2657
85263W        W22757  25.863  24.025  23.302  0.2925  0.0776 -0.2622
85264W        W22758  18.299  34.504   2.680 -0.1492 -0.0570  0.3708
85265W        W22759  33.906   8.623   2.034 -0.0992 -0.1046 -0.3276
85266W        W22760  32.857  14.191   7.229  0.0791 -0.0668 -0.0341
85267W        W22761  21.114   0.654   4.121  0.0321  0.0831  0.0206
85268W        W22762  24.136   3.799  20.217  0.0169  0.0630 -0.2288
85269W        W22763  18.565  11.046   8.398  0.1107  0.1017 -0.3507
85270W        W22764  23.108  28.922  21.207 -0.1310  0.1560  0.3885
85271W        W22765   8.567  17.663  22.762  0.0689  0.0806 -0.1008
85272W        W22766   6.282  22.100   4.980 -0.0169 -0.0330  0.2901
85273W        W22767  15.224  17.863  25.884 -0.5916  0.1972  0.1300
85274W        W22768  16.068   4.022  11.598 -0.1957  0.1211 -0.0704
85275W        W22769  19.407   1.672  19.608 -0.1210  0.1259  0.3635
85276W        W22770   7.597   1.557  21.631 -0.1639  0.2663 -0.1792
85277W        W22771   7.352  17.374  19.290 -0.0129  0.0607 -0.0370
85278W        W22772  32.955   2.887   1.656  0.0671 -0.2439  0.2363
85279W        W22773   0.668   9.598   3.504  0.3196 -0.1336  0.1322
85280W        W22774  13.430  21.027   9.179  0.1850 -0.3279 -0.1546
85281W        W22775  27.175  18.959   6.012  0.1462 -0.0767 -0.1490
85282W        W22776  29.670   0.343  12.842  0.0755 -0.0256 -0.2049
85283W        W22777   1.376  27.610   1.484  0.0119 -0.5067 -0.2727
85284W        W22778  27.171  13.749  23.533 -0.3234 -0.0352  0.1373
85285W        W22779  31.438  12.502  17.603 -0.1972 -0.0251  0.1430
85286W        W22780  13.324   4.879  12.223 -0.1298  0.0162  0.4384
85287W        W22781  20.243  26.398  23.782  0.2726 -0.1202  0.1690
85288W        W22782  16.868  33.863   3.756  0.0077 -0.2149 -0.0433
85289W        W22783  25.960  18.298  22.057 -0.0938  0.2216  0.1017
85290W        W22784  27.864  17.495  11.674 -0.0757  0.1338 -0.1872
85291W        W22785   6.271  10.250  21.780 -0.1979  0.1577 -0.2568
85292W        W22786   5.683   5.811   6.690 -0.2657  0.1930 -0.3741
85293W        W22787  14.139  24.395  22.475 -0.4338  0.2351  0.0420
85294W        W22788  10.275  13.379   0.330 -0.0362  0.2272 -0.0126
85295W        W22789   1.914  19.055  17.552  0.0324 -0.3387  0.1745
85296W        W22790   8.156  11.668   0.206  0.1107 -0.0419 -0.0931
85297W        W22791  19.764  33.460  19.857  0.2604  0.1407 -0.1588
85298W        W22792  20.791   7.272   7.052 -0.1075 -0.0793  0.1511
85299W        W22793   2.698   8.251   5.198  0.0613  0.1506 -0.0263
85300W        W22794  12.615  10.824  21.984 -0.3614  0.1158  0.0665
85301W        W22795  26.587   4.910  18.240 -0.3103  0.0983 -0.1681
85302W        W22796  31.044  11.062  24.790 -0.0361  0.1387  0.1544
85303W        W22797   3.635   7.478  22.785 -0.4128 -0.2336 -0.2480
85304W        W22798  28.495  15.500  25.342  0.0480 -0.0523  0.3851
85305W        W22799  23.428  30.601  13.830 -0.1762 -0.2489  0.0910
85306W        W22800   4.156  29.525  11.535  0.0523  0.0651  0.0616
85307W        W22801  17.148   8.032  19.888 -0.3294  0.0776  0.0948
85308W        W22802  25.622  19.166  11.108 -0.0670  0.0206  0.1400
85309W        W22803   4.015  26.726   4.331 -0.0982 -0.1015  0.0276
85310W        W22804  29.413  15.084  25.713  0.0385  0.2207  0.1707
85311W        W22805  21.056  23.003   7.308 -0.0426 -0.0114  0.0737
85312W        W22806  12.522   6.348  10.917  0.1750 -0.1586 -0.1746
85313W        W22807  20.163   6.401  25.112  0.3754 -0.2048 -0.0079
85314W        W22808  31.351  30.481  21.806 -0.0936 -0.1609  0.3210
85315W        W22809   6.859   0.653   8.838  0.0733  0.1282 -0.0863
85316W        W22810  20.714  11.286  20.686 -0.3229  0.1058  0.2634
85317W        W22811  23.284  27.951   1.916  0.2332 -0.2176  0.0828
85318W        W22812   9.627   1.135   9.340  0.0041  0.0538 -0.0217
85319W        W22813  28.394  12.342   9.443 -0.0350  0.0132  0.0941
85320W        W22814  16.780  14.167  12.106 -0.0429  0.1550 -0.1472
85321W        W22815   5.564   0.739  12.633 -0.0810  0.2835  0.0999
85322W        W22816  13.191  33.867   2.394  0.8092  0.0570 -0.1374
85323W        W22817   4.035   7.031   0.357  0.0773  0.2029  0.1175
85324W        W22818   8.397  19.974  25.249 -0.3169  0.4579 -0.0744
85325W        W22819  32.345   6.126  11.211  0.3056 -0.1634 -0.1124
85326W        W22820  10.533  26.863  14.947 -0.0495 -0.2402  0.1598
85327W        W22821   4.350  32.421   8.320  0.0542 -0.0185  0.0850
85328W        W22822   6.968  34.553   2.462 -0.0878  0.0420 -0.0791
85329W        W22823  25.250  13.448  13.472 -0.2444 -0.1548 -0.0191
85330W        W22824  17.115   5.344   1.426 -0.0931 -0.3256  0.0750
85331W        W22825  11.317  10.138  22.581 -0.1045 -0.1911 -0.3291
85332W        W22826  34.587   1.231   7.518 -0.1832  0.1568  0.0703
85333W        W22827  16.190  29.996   6.701 -0.1791  0.0850 -0.1542
85334W        W22828  27.063  13.626   7.295  0.1537 -0.1030 -0.0942
85335W        W22829   0.593   9.539  22.997  0.2706  0.0799  0.1523
85336W        W22830  13.463  14.428  22.942  0.1444 -0.0054  0.2159
85337W        W22831  32.842  10.770   9.921  0.0728 -0.2108  0.0987
85338W        W22832  23.953  11.265  13.565  0.0326  0.0364  0.1145
85339W        W22833  27.249  12.916  24.676 -0.0738 -0.2766  0.2542
85340W        W22834   9.713  12.742   0.947 -0.0150 -0.0440  0.2823
85341W        W22835  31.637  31.655  21.162  0.2504  0.0749 -0.0225
85342W        W22836  28.702   3.047  13.613 -0.0856  0.1976  0.0519
85343W        W22837  15.670  12.305   7.765 -0.1779  0.1515  0.0024
85344W        W22838  11.353  24.499   6.200 -0.0312 -0.1523  0.1302
85345W        W22839  14.508  16.819   4.114  0.2542 -0.2454 -0.3312
85346W        W22840  31.455  25.056  24.050 -0.4765  0.4501 -0.0225
85347W        W22841  25.973   8.568  14.978 -0.0327 -0.0437 -0.1916
85348W        W22842   9.655   4.676   1.170  0.1678 -0.0561 -0.3319
85349W        W22843  27.548  23.572  13.065  0.2427  0.0549 -0.2881
85350W        W22844  34.230   5.931  13.798  0.3164  0.1143 -0.2063
85351W        W22845   2.716   0.615   4.277  0.4049 -0.1838  0.0538
85352W        W22846   5.326  32.294   8.225 -0.0243  0.1378 -0.0734
85353W        W22847   4.172  12.912  21.801  0.0702  0.0751 -0.3855
85354W        W22848  15.157  10.518  19.351  0.0296 -0.1512  0.2269
85355W        W22849  17.246  26.338  21.475 -0.0154  0.2083 -0.0349
85356W        W22850  23.718  18.072  24.616  0.2706 -0.1417 -0.2203
85357W        W22851  24.414  33.149  15.031 -0.0697 -0.1220 -0.3210
85358W        W22852   7.252  10.022  11.537 -0.3626 -0.1063  0.0683
85359W        W22853  10.013  22.450   1.430  0.2462 -0.0810  0.0710
85360W        W22854   3.557   5.836   1.648 -0.0686  0.0766  0.1175
85361W        W22855  31.050  12.638   8.866 -0.1537  0.4645  0.1104
85362W        W22856  30.683  24.760  17.124 -0.1308  0.0196 -0.2852
85363W        W22857   0.173  10.579   0.531  0.0701  0.3905  0.0181
85364W        W22858  33.065  29.586   2.470 -0.1383  0.1337 -0.1667
85365W        W22859  11.125  34.872  21.261 -0.1215 -0.2131  0.0246
85366W        W22860  26.487   1.785  16.077  0.1315  0.0084  0.2617
85367W        W22861  24.762  25.020  22.673  0.4446  0.2792 -0.0532
85368W        W22862   3.796  16.122  24.356  0.1106 -0.0311 -0.2086
85369W        W22863  35.078  19.730   8.121  0.1613  0.0447  0.2298
85370W        W22864  34.394  31.253   0.301  0.2329 -0.1598 -0.0714
85371W        W22865  24.131  24.577  18.661 -0.0350  0.0301 -0.1143
85372W        W22866   8.184   3.083  25.466  0.1895  0.2112 -0.0184
85373W        W22867  25.263  15.091   8.889 -0.2300  0.3060  0.4442
85374W        W22868  15.304  21.390  11.441 -0.1343  0.0653  0.4111
85375W        W22869  25.659  23.613  23.135 -0.0766 -0.1422 -0.2627
85376W        W22870  13.577  15.076  20.328  0.0093 -0.2274 -0.4009
85377W        W22871  24.814   5.467  16.693  0.0287  0.0038 -0.0969
85378W        W22872  31.192   1.074  20.175  0.0885  0.3963 -0.0187
85379W        W22873  22.932  27.854   1.250  0.0892  0.1687  0.1003
85380W        W22874  33.543  11.252  10.417  0.1398 -0.1522 -0.1268
85381W        W22875  23.691   1.771  16.098 -0.0441 -0.0084  0.3199
85382W        W22876  12.212  33.330  24.155 -0.1606  0.1176 -0.0204
85383W        W22877  27.828  25.360  11.840 -0.0772  0.0205  0.2339
85384W        W22878  21.848  18.348  17.473 -0.2362  0.2002 -0.2946
85385W        W22879   6.535  29.325  15.665 -0.0061 -0.1176  0.1347
85386W        W22880  19.510  15.555  23.772 -0.3500  0.0476  0.0384
85387W        W22881  26.625  34.184  25.122  0.5568  0.2330 -0.1998
85388W        W22882  12.079  33.737   2.245 -0.0696  0.0265 -0.0865
85389W        W22883   0.004   7.242  19.044  0.0580  0.0730  0.0261
85390W        W22884  30.465  15.154  23.004  0.2088 -0.0305  0.1401
85391W        W22885   6.986  26.210   4.492  0.1558 -0.0547 -0.0982
85392W        W22886  34.063  32.388  22.007 -0.2060 -0.1335  0.2701
85393W        W22887  26.242  32.841  24.005 -0.0357  0.0861  0.0601
85394W        W22888  18.832  13.801  26.100  0.1552 -0.2631 -0.1339
85395W        W22889  15.046  23.337   5.692 -0.1490 -0.0874  0.1072
85396W        W22890   7.843  31.431   6.588  0.3481  0.0074  0.1936
85397W        W22891  18.727  12.256   4.612  0.4214  0.1723 -0.1742
85398W        W22892  32.489  32.243  16.399 -0.1759 -0.2594  0.1353
85399W        W22893   5.233  32.007   6.030  0.3529  0.2023 -0.0868
85400W        W22894  33.441   2.159  12.456 -0.1484 -0.0466 -0.0205
85401W        W22895  25.098   7.070  10.883  0.2512 -0.3837  0.0391
85402W        W22896   7.025  25.146   9.285  0.4591 -0.2149 -0.2628
85403W        W22897   3.186  32.990  20.920 -0.1023 -0.1484 -0.3668
85404W        W22898   8.630  25.661   6.275 -0.0984 -0.2733  0.2507
85405W        W22899  35.160   2.140  14.855  0.0697  0.0870  0.1173
85406W        W22900  10.974   4.443  22.507 -0.0195 -0.3539 -0.2929
85407W        W22901   9.448   6.201  13.107  0.1311  0.0746 -0.0069
85408W        W22902  11.427  30.678  13.227  0.2156  0.1650  0.1471
85409W        W22903  33.692  31.660  21.790  0.0722  0.1284 -0.1549
85410W        W22904  14.318  11.039  21.730  0.2437 -0.1600  0.4683
85411W        W22905  24.992  27.071  20.978  0.0683 -0.1959 -0.0751
85412W        W22906  16.233  14.269   1.057 -0.1508 -0.0009 -0.1602
85413W        W22907  22.628  35.191  13.891  0.1618  0.5829 -0.0297
85414W        W22908   1.500   3.915  22.760 -0.2885 -0.2850  0.1147
85415W        W22909  16.028  23.062  10.724 -0.1128 -0.2135  0.4809
85416W        W22910   1.184  32.226  26.179 -0.0528 -0.2035  0.2197
85417W        W22911  24.244  34.389   4.162  0.5289 -0.0838  0.1783
85418W        W22912   6.965   0.304  26.089 -0.1816 -0.1099 -0.1278
85419W        W22913  24.352  26.069  20.632  0.1807 -0.1328 -0.0777
85420W        W22914  34.003   2.590  19.659  0.0724 -0.1269  0.2242
85421W        W22915  16.595   0.947  25.487  0.2008 -0.0207  0.1098
85422W        W22916  34.522  32.339  16.873  0.2002  0.1376 -0.0761
85423W        W22917  14.342  22.142  23.280  0.1393  0.0265  0.0944
85424W        W22918  19.999  33.189  18.669  0.3610 -0.4565 -0.2517
85425W        W22919  22.203   0.549  17.500 -0.1957  0.5453 -0.0437
85426W        W22920   1.721  30.123  23.689  0.1704 -0.4372 -0.1131
85427W        W22921  25.868  14.630  24.466 -0.1887  0.0441  0.0754
85428W        W22922  17.945  26.293   2.314  0.1310  0.0330  0.3610
85429W        W22923   6.199  12.604  19.240 -0.0934  0.2894 -0.0540
85430W        W22924  31.891  24.450  13.284  0.4483  0.2706 -0.0059
85431W        W22925  11.240  23.739   1.613  0.3948 -0.0104 -0.1119
85432W        W22926  16.490   0.762   7.516 -0.0434 -0.2724 -0.1823
85433W        W22927   1.501   7.870  23.533  0.2138 -0.0828  0.0119
85434W        W22928  34.575   3.580  21.103 -0.1032  0.1630  0.0096
85435W        W22929  21.657   6.815  21.456 -0.0280  0.0503 -0.3581
85436W        W22930   0.789   6.456  16.049  0.2709  0.1125 -0.2038
85437W        W22931   0.327   5.551  15.784  0.2353  0.1244  0.2869
85438W        W22932  35.030  12.406  12.753 -0.2620 -0.1358  0.2669
85439W        W22933   0.961   5.044   5.379  0.3453 -0.1821 -0.1649
85440W        W22934  11.059  23.565  14.125  0.0175  0.1482  0.1640
85441W        W22935  16.361   7.524  11.627  0.2904 -0.5325  0.0764
85442W        W22936  27.115  17.831  18.380 -0.0734  0.2947 -0.0286
85443W        W22937   8.825  32.253   4.588  0.0922 -0.1898  0.1806
85444W        W22938   5.504  22.968  23.373 -0.3128 -0.0119 -0.0041
85445W        W22939  26.143   2.473  15.086  0.2173 -0.1627  0.1707
85446W        W22940  19.971   2.826   5.436 -0.1503  0.2459  0.0188
85447W        W22941  31.707  17.444  23.295  0.0513 -0.1654 -0.0148
85448W        W22942  31.488  25.845  25.287 -0.1713 -0.2272  0.0055
85449W        W22943  11.468   6.259  19.307 -0.0505  0.1142  0.0391
85450W        W22944   8.471  15.370  19.190 -0.0879 -0.2591 -0.3725
85451W        W22945  24.790   8.165  17.678 -0.1236  0.1753 -0.1536
85452W        W22946  13.030  34.759   0.856  0.3970  0.1549 -0.1096
85453W        W22947  22.084  33.644  18.481  0.3114  0.1133 -0.1342
85454W        W22948  18.570  32.157  18.646  0.2390  0.0917  0.2630
85455W        W22949  12.917   2.016   9.213  0.2047  0.0950  0.4148
85456W        W22950  17.509  24.871  24.914  0.2681  0.0228  0.2523
85457W        W22951  16.155   6.103  25.686 -0.0242  0.1329 -0.2014
85458W        W22952   9.215  33.444  21.183  0.0352 -0.1878  0.0720
85459W        W22953   2.470  34.412   1.038  0.2596  0.1022  0.0756
85460W        W22954   9.476  30.926  12.698 -0.3404  0.0941 -0.2827
85461W        W22955  10.331  11.222  23.446 -0.1609  0.1190 -0.2132
85462W        W22956  31.038   6.040  18.158  0.1983 -0.0913 -0.4680
85463W        W22957   0.315  20.359  15.261 -0.0094  0.0072  0.1273
85464W        W22958   6.400  22.175  23.593 -0.0878 -0.4789 -0.0333
85465W        W22959   5.106  11.519  18.555 -0.2203  0.1045 -0.2014
85466W        W22960  10.617  21.343   1.624 -0.0082  0.0859  0.2095
85467W        W22961  18.074   6.455   0.634  0.5210 -0.2729  0.0824
85468W        W22962  17.694  10.561   0.543 -0.0155  0.0523 -0.0667
85469W        W22963  15.181  34.636   3.352 -0.0773  0.1816  0.2398
85470W        W22964   7.729  32.216   3.904  0.1373  0.0300  0.1350
85471W        W22965  22.183   2.015   3.705  0.1672  0.2069  0.1943
85472W        W22966  26.419  16.953  16.820 -0.1926 -0.0832 -0.1420
85473W        W22967   3.620  11.232   1.493  0.0515 -0.0026 -0.0115
85474W        W22968   2.885   8.579  23.179  0.0862  0.3942  0.0472
85475W        W22969  11.826  11.162  13.073  0.5293 -0.3677  0.0225
85476W        W22970  27.285   0.099  11.502 -0.1138  0.1698  0.0243
85477W        W22971  14.873  19.065  25.424 -0.1566 -0.0390 -0.1108
85478W        W22972  20.389   4.334  18.907  0.1629  0.1378 -0.2961
85479W        W22973  35.255  29.960  25.545 -0.3007 -0.0496 -0.1058
85480W        W22974   0.941  22.560  17.120  0.2402 -0.2049 -0.0718
85481W        W22975  16.889  28.130   9.731  0.4020  0.2223 -0.0538
85482W        W22976  24.470  26.055   0.505 -0.1495  0.1472  0.0311
85483W        W22977  10.612  28.152  17.341  0.1684 -0.0779 -0.2516
85484W        W22978  17.133   9.245  12.742 -0.2701  0.2289  0.2397
85485W        W22979   5.787  29.382   0.026  0.0270 -0.2892  0.1819
85486W        W22980  11.660   4.179  19.499  0.0995  0.1074 -0.1327
85487W        W22981  34.018   9.330  15.443  0.2727 -0.3934  0.0147
85488W        W22982   9.699  24.867   2.424  0.2089  0.1144  0.1027
85489W        W22983  18.734   1.653  15.924  0.0020  0.3770 -0.2882
85490W        W22984   7.593   0.256  23.676  0.0667  0.0463  0.4830
85491W        W22985  20.026  32.332   2.636 -0.2542  0.1242 -0.1423
85492W        W22986  15.372   9.275  21.447 -0.0098 -0.1788  0.1248
85493W        W22987  31.863  19.109  12.627 -0.1604  0.2607 -0.3644
85494W        W22988  19.581  14.862  24.312  0.0408 -0.0446 -0.1528
85495W        W22989  20.344  18.433  23.870  0.3743 -0.2913 -0.0259
85496W        W22990   2.652  12.662  23.356  0.1565 -0.1476  0.2724
85497W        W22991  13.606  31.637  11.280  0.2304  0.0810  0.1046
85498W        W22992   9.883  19.319   0.694  0.0244 -0.1783 -0.0395
85499W        W22993  31.663  22.440  21.482  0.1443 -0.2629 -0.0516
85500W        W22994  24.757  31.442   3.488  0.2163 -0.2477 -0.0514
85501W        W22995  25.464  13.990  11.797  0.0086  0.0281  0.4623
85502W        W22996  25.925   7.061   1.176  0.0083 -0.3036  0.0272
85503W        W22997  16.246  14.472   3.936 -0.1010 -0.1621 -0.0702
85504W        W22998  20.080  12.519  19.355  0.0530 -0.0472  0.1047
85505W        W22999  28.759  13.763   7.911  0.2825  0.0746 -0.2015
85506W        W23000   6.878  17.118   6.033 -0.0464 -0.0202  0.0466
85507W        W23001  20.372   7.136   2.112 -0.0645 -0.2312  0.2099
85508W        W23002   7.476  18.442   5.445  0.0381  0.2909 -0.1757
85509W        W23003  26.315  14.454  10.071  0.0658  0.0281  0.2852
85510W        W23004  27.742  26.331  22.960  0.0375 -0.1073  0.0971
85511W        W23005  28.111  17.693   7.016 -0.0552 -0.1132 -0.2483
85512W        W23006  30.939   5.040   5.416 -0.2844  0.1357 -0.1964
85513W        W23007  30.680   6.596  21.408  0.0474  0.0022 -0.1563
85514W        W23008   9.971  31.387  10.546 -0.0295  0.1577  0.2451
85515W        W23009  20.484  17.843   5.184  0.0878 -0.0372  0.1798
85516W        W23010  15.220   6.811  20.121 -0.0352  0.0539  0.4278
85517W        W23011   8.717  31.212   2.017 -0.1288  0.1231  0.1174
85518W        W23012   4.300  10.944   1.331 -0.0390 -0.0214 -0.2205
85519W        W23013  14.637   9.415   6.697  0.0769 -0.2632  0.0583
85520W        W23014   9.697  21.984  14.540 -0.1372 -0.1174 -0.1740
85521W        W23015  10.889  24.702  16.085 -0.3063  0.2135 -0.3033
85522W        W23016   4.911   0.126  11.930 -0.2700  0.3100 -0.4434
85523W        W23017  28.159   7.249  11.997  0.1039 -0.0730  0.1445
85524W        W23018  25.938   8.053  20.489 -0.2336 -0.0344  0.1636
85525W        W23019   5.854  16.880  25.237 -0.0991  0.1522  0.1711
85526W        W23020   0.806   5.335   4.145  0.0722 -0.1321  0.0803
85527W        W23021  18.368  25.910  23.944  0.0874 -0.0567  0.0108
85528W        W23022   9.558   5.656   2.679  0.2105  0.3201  0.1896
85529W        W23023  14.281   8.300  23.515  0.1135 -0.2191  0.2570
85530W        W23024  29.237  27.058   0.863  0.0104  0.0243 -0.1777
85531W        W23025   0.476  32.592   6.946  0.1259  0.1097  0.0865
85532W        W23026   8.919  29.613   1.478  0.0594  0.3499 -0.0357
85533W        W23027  10.259  32.797   3.824  0.3326 -0.1129 -0.3853
85534W        W23028   1.196  12.831  16.329 -0.0518  0.2274 -0.0001
85535W        W23029  15.285  10.020   9.732 -0.0462  0.2095  0.0596
85536W        W23030  26.198  32.519  25.071  0.1429  0.1892  0.0828
85537W        W23031   5.080   8.349   0.113  0.0989 -0.0241  0.1912
85538W        W23032  20.190  18.693   0.409  0.2157  0.4330  0.4822
85539W        W23033   8.451  10.643   7.272  0.2034  0.2621  0.1139
85540W        W23034  16.647  11.606   6.985 -0.1431 -0.1551 -0.3897
85541W        W23035  15.298  27.217   7.777 -0.1022  0.1521  0.2392
85542W        W23036  13.210  33.918  13.024  0.0076  0.0393  0.2042
85543W        W23037   7.456   6.624   8.410  0.2744  0.2772 -0.0494
85544W        W23038  16.445  20.495  14.591  0.0374 -0.0596  0.1299
85545W        W23039  25.784  20.218  18.309  0.3766 -0.2787 -0.0326
85546W        W23040  28.431  15.724   8.342  0.1710 -0.1149  0.1861
85547W        W23041  10.687   3.055   6.782 -0.2653  0.0051  0.0890
85548W        W23042   7.833  23.143  23.939 -0.0924 -0.2082  0.1385
85549W        W23043  16.398   4.945   1.769  0.1333  0.1527  0.1571
85550W        W23044  27.584  10.323  14.128  0.1746  0.0403  0.0335
85551W        W23045  18.477   0.573   5.097 -0.4550 -0.1773  0.3546
85552W        W23046  23.749   2.304   2.560 -0.0573 -0.0993 -0.0207
85553W        W23047  32.076  20.010  25.794 -0.1378 -0.0679  0.2217
85554W        W23048  13.056   8.149  13.749  0.0487 -0.0016 -0.2082
85555W        W23049  10.901  14.238   4.959  0.1674 -0.2148  0.1332
85556W        W23050  29.613  21.395  19.802  0.0704 -0.1719  0.1926
85557W        W23051  24.073   3.138  14.522 -0.1294 -0.2398  0.3183
85558W        W23052  17.134  28.117   2.203  0.2020 -0.1083  0.0602
85559W        W23053   6.905  32.553  25.838 -0.1121  0.2707  0.0722
85560W        W23054  23.328  23.967  21.760  0.2487 -0.0058 -0.0554
85561W        W23055   1.105   8.568  18.626 -0.0238  0.1268 -0.0441
85562W        W23056  10.558   9.668  13.140  0.2435  0.2363 -0.1518
85563W        W23057  18.585  11.548   8.530  0.3507 -0.0318 -0.1282
85564W        W23058  22.268  30.727  19.690  0.0235  0.1174  0.2048
85565W        W23059  15.312  15.228  11.592 -0.1296  0.4071  0.0173
85566W        W23060   2.059  18.396  26.139  0.0173  0.1073 -0.0541
85567W        W23061  32.111  15.847  15.798  0.2973 -0.1834 -0.2042
85568W        W23062   1.194   9.524  24.805  0.1050  0.0927 -0.2898
85569W        W23063  12.106  19.032  21.230 -0.0038  0.4103  0.0450
85570W        W23064  24.942  25.650  17.206 -0.0139 -0.0230  0.2285
85571W        W23065  31.420   6.145   0.252  0.0753 -0.1219  0.1589
85572W        W23066  32.682  19.876  23.137 -0.1892  0.2139  0.2979
85573W        W23067  27.779   3.587   1.371  0.0524  0.1420  0.1057
85574W        W23068  33.790   0.455  25.519 -0.5014  0.0276 -0.4331
85575W        W23069  23.345   5.576   3.560  0.0930 -0.0163 -0.1189
85576W        W23070   7.663  34.962   9.802 -0.1804  0.1076  0.2853
85577W        W23071  13.285  11.666  10.193  0.0421  0.1046 -0.1780
85578W        W23072  34.213  12.139  12.990 -0.4287 -0.0933 -0.3618
85579W        W23073  35.134  27.396  15.085 -0.0452  0.1652 -0.4839
85580W        W23074  17.796   6.164   2.249 -0.1428 -0.0520  0.0451
85581W        W23075  29.246  35.301  22.790  0.2645  0.0235  0.1953
85582W        W23076  18.389   1.978   2.535  0.0771  0.0119 -0.0318
85583W        W23077   8.682   1.529  15.065  0.0037  0.1190  0.0094
85584W        W23078  15.667  11.513  13.218  0.2135 -0.0749  0.1955
85585W        W23079  18.986   6.906  25.278  0.2549  0.0700  0.0681
85586W        W23080  29.658  15.280  12.303  0.1416 -0.0716  0.0793
85587W        W23081  33.644  16.840  25.951  0.1249  0.0237 -0.1764
85588W        W23082  27.477  21.448  18.652  0.2953  0.3079 -0.0310
85589W        W23083  21.659   7.760  23.380  0.2481  0.3244 -0.2762
85590W        W23084   0.909  10.492  13.047 -0.0897 -0.3588  0.0505
85591W        W23085  19.018   7.924   1.477 -0.0527 -0.1734  0.0867
85592W        W23086  35.114  26.048  19.958 -0.0008 -0.0969 -0.0468
85593W        W23087  27.345  16.139  20.258 -0.2410 -0.0359  0.2784
85594W        W23088   6.508  33.979   4.003 -0.0719 -0.4297 -0.0637
85595W        W23089  20.634  23.218   7.532 -0.1201 -0.2239 -0.1875
85596W        W23090  28.460  34.285  14.060 -0.0906  0.1820 -0.0382
85597W        W23091  24.749  14.546  23.449 -0.0563 -0.3920  0.1252
85598W        W23092  31.352  29.342  20.355  0.0594  0.0705 -0.1619
85599W        W23093  27.712   5.488  21.637  0.0033  0.1695 -0.2128
85600W        W23094   2.003  32.216   3.199 -0.1175 -0.1947  0.1187
85601W        W23095   1.773   8.630  16.570 -0.1110  0.1316  0.0395
85602W        W23096  12.281  30.469   6.890 -0.2184  0.0567 -0.3691
85603W        W23097  11.726  17.339   8.025 -0.1803  0.0443  0.0181
85604W        W23098  27.795  21.523  23.535 -0.1493  0.1589 -0.1202
85605W        W23099  22.564  29.426  14.143 -0.0303 -0.4139  0.2988
85606W        W23100  12.735  25.774   9.187 -0.0344  0.0435 -0.0207
85607W        W23101  35.320   8.652   2.064 -0.0328  0.0937 -0.0383
85608W        W23102  32.505  27.094  25.471 -0.2277 -0.1781  0.2598
85609W        W23103  33.566  34.660   6.053 -0.0178  0.1836 -0.0253
85610W        W23104  11.965   9.789  13.766 -0.0120 -0.2474 -0.0649
85611W        W23105   4.208   2.954   1.834 -0.1253 -0.2761 -0.2759
85612W        W23106  15.870   6.748  11.677 -0.0560  0.0072 -0.0286
85613W        W23107  26.566  18.662  11.401 -0.1646 -0.1163  0.3948
85614W        W23108   3.329  22.604  23.805  0.1223 -0.0835 -0.1147
85615W        W23109  19.909  34.632  24.556  0.0932 -0.3250  0.0729
85616W        W23110   0.296  23.139   0.421 -0.1025  0.1722 -0.0613
85617W        W23111   2.110  32.535   2.176 -0.0352 -0.2549  0.2086
85618W        W23112  25.542  30.813   2.703 -0.0719  0.0078 -0.0549
85619W        W23113   0.669   8.767  13.142 -0.2998 -0.1477  0.0064
85620W        W23114   2.736  18.902  21.364  0.0012  0.4966  0.0742
85621W        W23115   2.899   6.314  17.490 -0.0087 -0.2934 -0.2527
85622W        W23116  18.391  32.319  24.928 -0.0680  0.0246 -0.0263
85623W        W23117   3.198  25.521  24.609  0.1118 -0.0947 -0.3487
85624W        W23118  19.138   9.367   2.505 -0.0364  0.2742  0.1324
85625W        W23119  21.910  29.416  23.167 -0.0549 -0.2715  0.0367
85626W        W23120   2.678  30.024  19.251 -0.2542 -0.0338 -0.0211
85627W        W23121  28.023  33.104   4.733 -0.1463  0.1080 -0.0174
85628W        W23122  28.920   1.392   3.012  0.0575 -0.1696 -0.0073
85629W        W23123   4.211  24.521   5.884  0.2496 -0.0305  0.0356
85630W        W23124  13.123  34.445   3.357  0.3928 -0.3936  0.0822
85631W        W23125  30.851   7.911  10.632  0.1533 -0.0301 -0.2244
85632W        W23126   1.752   5.269  19.191  0.1481 -0.2328 -0.0281
85633W        W23127  28.576  32.506  17.740  0.1746 -0.2211 -0.1509
85634W        W23128  19.129   8.373  20.644  0.0197  0.0125 -0.0233
85635W        W23129  18.914  28.241   0.512  0.2285 -0.1817 -0.1225
85636W        W23130  32.208  22.150  23.586 -0.0475 -0.0175 -0.1375
85637W        W23131   0.676   5.066  16.894 -0.1049 -0.1935  0.1189
85638W        W23132  32.447  33.787   2.415  0.1772 -0.0915  0.1921
85639W        W23133   7.562  16.367  18.510  0.0015 -0.1943  0.3162
85640W        W23134   1.847   2.932   2.552  0.0042  0.1403  0.3313
85641W        W23135   7.981  12.239  21.201  0.1397  0.0295  0.0873
85642W        W23136  16.514  31.561   2.685  0.4732  0.1833 -0.2070
85643W        W23137  12.694  17.615  10.175  0.2766 -0.0377 -0.4602
85644W        W23138   1.326  35.297   7.463  0.1249 -0.0404 -0.0601
85645W        W23139  27.723  19.363  24.710 -0.4000 -0.2074 -0.1599
85646W        W23140  23.357  22.952  24.499  0.1884  0.0586  0.0155
85647W        W23141  31.071  35.205  17.870  0.1686  0.0286  0.1894
85648W        W23142  15.410   7.546  22.580  0.1814 -0.1332  0.1832
85649W        W23143  12.562  30.960  23.767 -0.0897 -0.0699 -0.2857
85650W        W23144  27.620  29.677  17.311  0.1884  0.2248  0.0501
85651W        W23145   6.139   4.722   2.235  0.2039  0.0765 -0.1548
85652W        W23146  28.705  20.956  23.627 -0.0774  0.2625  0.1349
85653W        W23147   0.334   9.421  25.233 -0.1612  0.2561  0.1280
85654W        W23148  32.812  17.106  16.803 -0.4676 -0.3379  0.2630
85655W        W23149  15.899  31.952  19.903  0.0878  0.2789  0.0463
85656W        W23150  13.321  23.167  12.863 -0.1062  0.2484  0.1376
85657W        W23151  11.315   1.040   6.881  0.2099  0.1730 -0.0653
85658W        W23152  16.354  22.602  10.543 -0.1433  0.1787 -0.0400
85659W        W23153  15.694   6.324  25.652  0.2037  0.2660  0.1969
85660W        W23154  32.287  16.456  25.998  0.1110  0.1349 -0.0211
85661W        W23155  27.424  32.170   5.281 -0.0861  0.2499 -0.1218
85662W        W23156  25.852   6.191  17.319 -0.3553 -0.1481 -0.1994
85663W        W23157  30.138  28.086   3.001 -0.1991  0.0337  0.0804
85664W        W23158  27.505  26.030  20.285 -0.1363 -0.2463  0.0526
85665W        W23159   0.981  33.809  19.879  0.2510  0.2986 -0.2318
85666W        W23160   7.267  28.857   2.942  0.1383 -0.1476 -0.3325
85667W        W23161  30.267  14.195  18.320 -0.0188  0.1226 -0.1625
85668W        W23162   9.790   1.930   9.515 -0.1466  0.2448 -0.0841
85669W        W23163   4.997   6.389  18.672  0.1579  0.3229  0.0233
85670W        W23164   8.547   3.298  22.365 -0.0821 -0.0192  0.1673
85671W        W23165  11.530  20.919  15.187 -0.1082  0.0688  0.3041
85672W        W23166  18.638  20.180  21.154 -0.0246  0.0093 -0.0536
85673W        W23167  11.533  21.553   4.722  0.2532 -0.3273 -0.1616
85674W        W23168   3.939   2.982   1.411 -0.3833 -0.2733  0.1240
85675W        W23169   4.677   4.401  21.440 -0.1306  0.0441 -0.2339
85676W        W23170  11.085  10.077   6.371 -0.1630  0.1979  0.1806
85677W        W23171  30.497  10.373  26.118  0.3494  0.1228  0.1471
85678W        W23172  18.402  17.841   3.931 -0.0676 -0.0364  0.0000
85679W        W23173   7.492   2.935   6.323 -0.1912 -0.1333  0.0027
85680W        W23174  34.360  25.842  18.298  0.2899 -0.0780 -0.5192
85681W        W23175   0.292  10.824  19.891  0.1573  0.1466  0.0083
85682W        W23176  17.499  14.935   8.696  0.3723 -0.1819 -0.2118
85683W        W23177  23.869   0.384  14.214  0.1611 -0.1491 -0.1111
85684W        W23178  19.067   5.476  17.245  0.0335 -0.3089 -0.0914
85685W        W23179  17.346  24.626  13.758 -0.0800  0.0354  0.0382
85686W        W23180  19.659  25.800  25.014 -0.0310  0.1243 -0.0684
85687W        W23181  15.175  26.273   4.865 -0.0732 -0.0156 -0.0523
85688W        W23182  27.722  14.038  24.176 -0.1015 -0.4352  0.3176
85689W        W23183  20.894  21.331  19.409 -0.2770 -0.2879 -0.2569
85690W        W23184  20.863   7.573  24.497  0.1587 -0.0312 -0.1350
85691W        W23185  17.663  28.899  11.469  0.1351  0.0313  0.2713
85692W        W23186   8.550  11.003   8.516 -0.0635 -0.3058 -0.2072
85693W        W23187   1.088   9.349  24.331  0.0811  0.0630 -0.0038
85694W        W23188  34.409  22.660  26.194  0.2326  0.2663  0.1135
85695W        W23189   9.436  34.243   8.597  0.2804  0.1250 -0.2810
85696W        W23190  23.195  35.324  20.758  0.3735  0.0659  0.1672
85697W        W23191  33.930  11.877  11.229  0.0566  0.0393  0.0342
85698W        W23192   6.098  23.537  21.398  0.0069  0.2588 -0.1881
85699W        W23193  20.910  22.106   1.479 -0.0564  0.0002 -0.2709
85700W        W23194  24.589  11.234  11.393 -0.3818 -0.1090  0.0608
85701W        W23195   4.974  32.640  23.003 -0.0316 -0.2358  0.3855
85702W        W23196  13.492   8.401   2.302  0.0092 -0.0204 -0.0744
85703W        W23197  30.009  28.410   3.348  0.3359 -0.1084 -0.4357
85704W        W23198  12.341  17.314  14.960  0.2811 -0.3213 -0.4193
85705W        W23199  31.793  33.525  17.402 -0.0268 -0.0558  0.1736
85706W        W23200  35.054  20.674  20.047  0.0884 -0.2099 -0.1683
85707W        W23201   3.246  33.754  22.987 -0.1562  0.0033 -0.2263
85708W        W23202  17.392  20.537  22.670 -0.0977  0.1454  0.3931
85709W        W23203  26.434  31.990   3.784 -0.0916  0.1674  0.4274
85710W        W23204  20.592  20.358   8.817  0.1719  0.1498 -0.0376
85711W        W23205   8.820   4.303  11.480  0.1640  0.0126 -0.3197
85712W        W23206  19.115  28.947   4.631  0.0174 -0.1428 -0.1950
85713W        W23207  10.376  10.572   0.924  0.1733 -0.0865 -0.0385
85714W        W23208  24.517   0.323  12.546  0.1590  0.1159  0.0673
85715W        W23209  16.239  24.562   5.397 -0.1880  0.1173 -0.0587
85716W        W23210  11.180   7.811   4.949 -0.0991  0.3701 -0.1461
85717W        W23211   9.968  19.761  21.696 -0.1474 -0.2687  0.0909
85718W        W23212   8.442   2.693  20.649 -0.0130  0.0588  0.2074
85719W        W23213  28.299  26.218  17.048 -0.2102 -0.1307 -0.1062
85720W        W23214   8.926  23.713  24.159 -0.2679  0.2550 -0.3525
85721W        W23215   8.934  21.599   7.537  0.1201 -0.0587 -0.0417
85722W        W23216  12.423  19.480   4.698 -0.0812  0.2871 -0.4667
85723W        W23217  29.169  24.993  13.809  0.2059 -0.1649  0.0518
85724W        W23218  15.486  33.095   8.409 -0.0246 -0.0427 -0.2818
85725W        W23219  18.010  23.792   4.005  0.0297  0.1857 -0.0724
85726W        W23220  33.296  17.808   8.320  0.0368  0.0215 -0.0220
85727W        W23221  23.607  29.860   2.990 -0.0310 -0.0857 -0.2307
85728W        W23222  27.977   2.276   2.672 -0.0031  0.1167 -0.0617
85729W        W23223  28.737  15.053   4.658  0.2926  0.0291 -0.2006
85730W        W23224  31.329  24.707  14.061 -0.3005 -0.0821 -0.0286
85731W        W23225   5.420  11.013  16.948 -0.1393 -0.0978  0.0292
85732W        W23226  13.703   4.275  10.535 -0.1082 -0.3148 -0.0426
85733W        W23227  33.165  34.673   1.126 -0.1486 -0.2363 -0.0533
85734W        W23228  20.870  24.624   2.033 -0.3841 -0.0494  0.2471
85735W        W23229  28.664   9.544  21.146  0.2425 -0.0545 -0.0554
85736W        W23230  23.153  19.354  21.886 -0.1017  0.0800 -0.1309
85737W        W23231  22.010  21.454  22.356 -0.1256 -0.1488 -0.1504
85738W        W23232  30.670  21.171  10.637  0.1614 -0.0481 -0.2981
85739W        W23233  13.691   3.876   0.724  0.0365  0.1000 -0.0344
85740W        W23234   4.334  13.903  19.283 -0.1701  0.3478 -0.0032
85741W        W23235   6.449  17.961  22.414 -0.0608  0.1167 -0.2991
85742W        W23236   2.297  25.525  21.718 -0.1838 -0.4091  0.1291
85743W        W23237  27.743  16.735  19.869  0.1872  0.0353  0.2138
85744W        W23238  22.919  32.423  16.399  0.3263 -0.3194 -0.0202
85745W        W23239   2.422   5.056  16.032 -0.1674  0.0116  0.0602
85746W        W23240  19.267   9.069  18.751  0.0480  0.3207  0.4870
85747W        W23241   6.567  13.045  21.747  0.0165  0.2220  0.1593
85748W        W23242   1.763   1.738  20.831 -0.2469  0.1852 -0.3715
85749W        W23243   6.645   0.378  13.658  0.1521 -0.1957  0.2261
85750W        W23244  25.330   3.020  19.061 -0.0910  0.1167  0.2006
85751W        W23245  31.292   5.438  21.987 -0.0554 -0.1923  0.0839
85752W        W23246   0.544   8.037  23.819  0.0376  0.2181 -0.1424
85753W        W23247  16.322  20.084   2.228 -0.1410 -0.0402  0.0824
85754W        W23248   5.816   1.197   6.602 -0.3313 -0.0511  0.1448
85755W        W23249   5.975   9.548  20.809 -0.1844  0.2364 -0.0701
85756W        W23250   1.875   1.140  18.719  0.0165  0.0341 -0.1907
85757W        W23251  16.718   4.039  22.015 -0.0369 -0.0209 -0.0025
85758W        W23252   3.771  23.486  21.868 -0.0729  0.3738  0.0731
85759W        W23253  26.559  27.448  22.126  0.0748  0.0869  0.1091
85760W        W23254  19.486  26.351  22.886  0.3537  0.2254  0.0766
85761W        W23255  24.695   2.637  14.238  0.0898  0.2495 -0.0510
85762W        W23256  26.932  33.638  14.605 -0.1366 -0.0491  0.0387
85763W        W23257   2.552  10.367   2.027  0.2127  0.3296  0.1653
85764W        W23258  23.782  27.653  18.526 -0.0767 -0.2775  0.1124
85765W        W23259  28.132  14.243  16.637 -0.0787  0.1272  0.1615
85766W        W23260  33.945  15.823  12.207 -0.1496  0.0621  0.3246
85767W        W23261  18.012  31.964  17.694 -0.0766  0.0834 -0.0249
85768W        W23262  10.848   9.276   7.565  0.4842 -0.3137 -0.1447
85769W        W23263  12.936  12.402   1.634  0.3485 -0.1165 -0.0601
85770W        W23264  26.741  20.906  24.232  0.3176 -0.2819  0.5016
85771W        W23265  13.500  14.180   4.939 -0.3473 -0.2101  0.0575
85772W        W23266  10.441  16.984   3.334  0.0255  0.1079 -0.0757
85773W        W23267  11.704  35.112  13.654  0.1061  0.3039  0.1624
85774W        W23268  34.591   4.015   3.335 -0.0708 -0.1662 -0.1249
85775W        W23269   9.634  13.309  22.648  0.1700 -0.2001 -0.0781
85776W        W23270  14.176  25.842   3.464  0.0037  0.0110 -0.1433
85777W        W23271   7.549  33.622   0.111 -0.0883  0.1208 -0.2249
85778W        W23272   0.072  32.118  24.682 -0.0735  0.0672 -0.0129
85779W        W23273  14.442  19.764   9.673 -0.0743 -0.1055  0.0809
85780W        W23274  30.869  28.841  21.791 -0.1231  0.0873  0.0325
85781W        W23275  26.978  12.280  12.125 -0.0731 -0.1678 -0.2063
85782W        W23276   9.343  16.159  12.159 -0.1206  0.1549  0.0531
85783W        W23277   0.027  31.770  20.033  0.1453  0.0904  0.2286
85784W        W23278  10.744  11.197  12.441 -0.0322  0.0924  0.0233
85785W        W23279  29.195   4.491  25.229  0.1516  0.1109  0.1548
85786W        W23280   9.374  35.195   9.905 -0.0595 -0.2045  0.1167
85787W        W23281  22.121  15.424   4.038  0.2045  0.1131  0.0394
85788W        W23282  13.890  21.617   1.635  0.2952  0.2190 -0.1960
85789W        W23283  23.537  33.751  21.164 -0.2184 -0.0603 -0.3065
85790W        W23284  24.610   9.204  25.212 -0.0952 -0.1142  0.4053
85791W        W23285  13.443   8.256   3.406  0.2467 -0.0694  0.1373
85792W        W23286   1.683  20.889  19.915 -0.0233 -0.1070  0.0498
85793W        W23287   9.215  24.600  10.106 -0.4800 -0.0056  0.0709
85794W        W23288  19.089  21.096   1.645  0.3761  0.0640  0.0240
85795W        W23289   4.109   8.824  25.644  0.2647 -0.0562 -0.0079
85796W        W23290  20.481  16.229  20.301 -0.0058  0.1672 -0.0518
85797W        W23291  16.199   9.113   8.831 -0.1873 -0.3555 -0.0733
85798W        W23292  18.751  31.900   5.680 -0.1499  0.0998  0.0539
85799W        W23293  13.813  17.790   4.965 -0.0254  0.0897 -0.1376
85800W        W23294  21.692  10.740  24.127 -0.2952  0.1504 -0.2250
85801W        W23295   1.262  16.479  10.851 -0.4258 -0.1088 -0.2599
85802W        W23296  31.334  23.747  10.818 -0.0393  0.0441  0.1243
85803W        W23297  32.796  32.597  19.392  0.4357  0.2957  0.1573
85804W        W23298  35.281  29.891  24.244  0.2518 -0.0760  0.1909
85805W        W23299  27.792  26.225  13.683  0.1323  0.4036 -0.0718
85806W        W23300  31.240  13.683  25.532 -0.0116  0.0168  0.0477
85807W        W23301  16.164  25.667   6.966 -0.2275 -0.0795 -0.0611
85808W        W23302  15.380  28.014   8.019 -0.0552  0.1001 -0.1920
85809W        W23303  12.352  11.162   5.727 -0.1975  0.1090 -0.1096
85810W        W23304   1.004   3.003  19.483 -0.0627 -0.1355 -0.2685
85811W        W23305  18.190  17.973  23.662 -0.0837 -0.2326 -0.4922
85812W        W23306  27.322  33.322  17.050 -0.1127  0.0027  0.1736
85813W        W23307  17.161  13.156   1.867 -0.2653  0.1810  0.1672
85814W        W23308  26.341  33.304   4.084 -0.0816  0.5043 -0.1459
85815W        W23309  28.770  24.573  12.374  0.0263 -0.4871 -0.3805
85816W        W23310  29.519  21.264  17.452 -0.0020 -0.3420  0.0605
85817W        W23311   8.111  25.010   8.371  0.0940  0.1451  0.0363
85818W        W23312  16.308  22.350  14.584  0.1193  0.0149 -0.1479
85819W        W23313   1.864   1.535  23.027  0.5367 -0.0228 -0.1688
85820W        W23314  10.991  33.701  12.530  0.0548 -0.5538 -0.0067
85821W        W23315   8.651  24.696   3.759  0.3953 -0.2856 -0.2252
85822W        W23316  14.937  27.456  10.367  0.2882  0.1430  0.2156
85823W        W23317  22.889  21.108  14.439 -0.0376 -0.0402 -0.0348
85824W        W23318  22.829   4.053  16.407 -0.1821 -0.0068 -0.0654
85825W        W23319  26.040  24.337  12.253  0.0547  0.0645  0.1034
85826W        W23320  24.144  31.498   5.230 -0.0557 -0.0212  0.0210
85827W        W23321   0.081   9.922  21.978 -0.1718  0.2540 -0.0695
85828W        W23322  12.211   8.935   2.298 -0.0398 -0.1075  0.4439
85829W        W23323  26.659  10.824  26.048  0.1965 -0.5387 -0.0092
85830W        W23324  22.361   4.986  17.034  0.5217  0.0811 -0.1850
85831W        W23325  14.952  10.570   7.909 -0.2769  0.1214  0.1245
85832W        W23326  21.465  35.055  21.665  0.0833 -0.2164  0.1683
85833W        W23327  23.156   1.879   6.388  0.1434 -0.0423 -0.1150
85834W        W23328  28.354  15.239   8.331 -0.1699 -0.0715  0.0828
85835W        W23329  10.388  11.463   3.195  0.0034 -0.1237  0.3478
85836W        W23330   4.022  28.172   1.521 -0.1027 -0.3801 -0.3024
85837W        W23331   4.830  26.547   1.924  0.2553 -0.2984  0.0727
85838W        W23332   8.798  18.527  11.376 -0.0163 -0.0414  0.0192
85839W        W23333  28.550  34.085  22.574 -0.2142 -0.0922  0.0937
85840W        W23334  11.190   3.452  21.072 -0.0527 -0.0460 -0.0073
85841W        W23335  34.706  26.733  16.924 -0.1711 -0.2216 -0.1095
85842W        W23336  24.623   0.366  19.186  0.0671 -0.0469  0.0223
85843W        W23337  16.064  25.224  15.797  0.0583  0.1585 -0.3205
85844W        W23338  20.797  23.867   1.905  0.2346  0.2309  0.0679
85845W        W23339  32.619  17.067   9.738  0.1704  0.0438  0.3735
85846W        W23340  27.347  14.687  22.934  0.1138  0.2098 -0.1699
85847W        W23341  19.107  31.347  21.108  0.2019 -0.0259  0.0335
85848W        W23342  22.132  19.723  16.659  0.0635 -0.4094 -0.0707
85849W        W23343  31.500   3.670  22.356 -0.0568 -0.0664  0.0240
85850W        W23344   4.751  16.499   1.808 -0.0826 -0.1502 -0.1447
85851W        W23345  23.443  27.739   1.449  0.0648 -0.0866 -0.0955
85852W        W23346   9.529   3.363   4.855 -0.5527 -0.1763  0.1271
85853W        W23347   5.748  21.361   3.380 -0.0007  0.2116 -0.0304
85854W        W23348  16.195  15.482  22.968 -0.1351 -0.0008 -0.0042
85855W        W23349  13.573  21.585   9.100 -0.0166 -0.1288  0.2530
85856W        W23350   2.310   8.223   5.652 -0.4548  0.0930  0.0118
85857W        W23351   3.210  21.568   0.496  0.0902 -0.0441 -0.0889
85858W        W23352   4.006   7.511  17.565 -0.4709 -0.1982 -0.1611
85859W        W23353  29.654  25.379   0.364  0.1811 -0.2224  0.0862
85860W        W23354  10.233  28.062   8.204  0.4008 -0.2867 -0.1310
85861W        W23355  19.825  14.440  21.649 -0.1231 -0.0282  0.4111
85862W        W23356  33.072  33.628   3.828  0.0552 -0.0699 -0.0476
85863W        W23357  26.639   8.633  13.914  0.0280  0.1572 -0.0275
85864W        W23358  28.854  26.583   0.352  0.1623  0.0433  0.1233
85865W        W23359  20.108   8.694  18.552 -0.0472  0.2163  0.1940
85866W        W23360  26.218  12.959   9.802 -0.1131  0.0234 -0.4063
85867W        W23361  33.168  29.129  14.642  0.1335 -0.0850  0.4080
85868W        W23362   0.512  34.380   0.593  0.3185  0.1035  0.0662
85869W        W23363   7.690  33.878  10.731 -0.1079 -0.0104  0.0173
85870W        W23364  30.983  25.018   8.812 -0.1064 -0.0744 -0.1955
85871W        W23365  29.306  22.682  13.750  0.1028  0.2842  0.3847
85872W        W23366  34.624   7.247  18.048 -0.1771 -0.1832 -0.0498
85873W        W23367  10.775  18.182   5.958 -0.2583  0.3496 -0.0011
85874W        W23368  20.560   1.272   0.778 -0.1280 -0.1300  0.1357
85875W        W23369   0.691   7.742  24.777  0.0096  0.2715  0.1282
85876W        W23370  28.514  11.819  11.385  0.0487 -0.1699 -0.0616
85877W        W23371  16.417  25.753   4.908 -0.0432 -0.2797  0.3133
85878W        W23372  31.368  16.448   8.616 -0.1243 -0.2221 -0.0342
85879W        W23373  20.379   4.326   4.414 -0.0560  0.0907 -0.1666
85880W        W23374   8.305  28.455  11.761  0.3957 -0.1283 -0.4340
85881W        W23375   8.696  30.771  13.291  0.1060 -0.2697  0.1937
85882W        W23376   1.525  20.389  21.954  0.0801 -0.3026  0.0179
85883W        W23377   8.785  21.454  15.683 -0.0057  0.3110  0.1506
85884W        W23378  13.189  11.959  13.670 -0.1908 -0.3469  0.0785
85885W        W23379  28.314  23.141  11.217  0.0599  0.1304  0.3662
85886W        W23380  34.776   0.178  16.904 -0.1946 -0.0197  0.1023
85887W        W23381   5.949  10.259  20.163 -0.1687 -0.1622  0.1379
85888W        W23382  10.844  27.211   0.454 -0.0738  0.1423  0.0905
85889W        W23383  15.094  33.777  24.650  0.0539 -0.3061 -0.2313
85890W        W23384  29.748   6.020  16.330 -0.1258  0.0369 -0.0773
85891W        W23385  28.941  30.797  14.709 -0.0125 -0.2338  0.2301
85892W        W23386   2.658  28.564  17.441 -0.1420 -0.1791 -0.1286
85893W        W23387  32.472  11.297   9.329  0.0270 -0.1853 -0.1185
85894W        W23388   2.752  25.681  17.793  0.1504 -0.0438  0.1734
85895W        W23389  24.554  11.669  13.007  0.1898 -0.2247 -0.0304
85896W        W23390  22.767  32.548  22.274 -0.0996  0.0300 -0.0790
85897W        W23391   8.361   1.634   7.220 -0.1211 -0.0213  0.1350
85898W        W23392  23.754  34.061  11.312 -0.2132 -0.0993 -0.3751
85899W        W23393  27.865  22.556  11.919  0.2273  0.0025 -0.1646
85900W        W23394  12.519  18.698  25.398 -0.2210  0.0210  0.2708
85901W        W23395  25.408  28.830   4.043  0.2396  0.0106  0.2557
85902W        W23396  15.661  34.508   5.140 -0.1224 -0.0041  0.0528
85903W        W23397  19.100  35.352   4.671  0.2991  0.2662  0.0543
85904W        W23398   2.331   2.885  19.693  0.0472 -0.0158 -0.1696
85905W        W23399   3.695  10.745   7.381 -0.1270 -0.5918  0.1195
85906W        W23400   8.688  33.677   2.394 -0.3640 -0.1528 -0.2727
85907W        W23401   4.839   1.143   1.865  0.1850  0.0657  0.0147
85908W        W23402   1.330  30.790  20.487 -0.0287 -0.0984 -0.0385
85909W        W23403   1.275   4.619  16.485  0.0213 -0.1188 -0.0497
85910W        W23404   4.659   3.235   4.579 -0.2082 -0.0218  0.0005
85911W        W23405   6.312  12.603  16.847 -0.0499  0.4783 -0.6155
85912W        W23406  28.264  28.662  11.458 -0.3072 -0.1589  0.1545
85913W        W23407  24.062   6.280  19.651 -0.0203  0.0595 -0.4118
85914W        W23408  11.986  13.839  10.787  0.2231  0.1263  0.1425
85915W        W23409  20.542  20.407  17.795 -0.3368  0.2332 -0.0255
85916W        W23410   1.391  25.212   0.194 -0.0211 -0.2726 -0.0018
85917W        W23411  24.590  30.762   1.493  0.3773 -0.1962 -0.0067
85918W        W23412   5.921   0.394  22.195  0.3248  0.1097 -0.0358
85919W        W23413  31.840  30.074  12.853 -0.1863  0.0918  0.0649
85920W        W23414  27.530  22.340  13.513 -0.0431  0.0154 -0.0272
85921W        W23415  35.203  15.681  14.691 -0.0858  0.1845 -0.0167
85922W        W23416   1.737  21.067  25.453  0.0428 -0.0573 -0.0356
85923W        W23417   8.873  12.240   3.405 -0.0417  0.0855  0.2181
85924W        W23418  24.772  11.688  11.506 -0.1370  0.0073  0.1653
85925W        W23419  11.219  23.768  12.991 -0.1079  0.0052  0.0244
85926W        W23420  14.979  14.697  21.286  0.2834 -0.2082 -0.4770
85927W        W23421  27.434   2.763  12.491  0.3119  0.2554  0.2115
85928W        W23422  11.756  26.081  13.214 -0.0130 -0.2655 -0.0177
85929W        W23423  30.020  11.061  22.190 -0.2503 -0.1794 -0.2611
85930W        W23424  30.571  10.785  14.890  0.0590  0.0529  0.1023
85931W        W23425  15.951  16.864  25.869  0.3007  0.1335  0.1806
85932W        W23426  11.873   1.472  20.007  0.0599 -0.1982  0.3533
85933W        W23427  30.684   3.855   2.490  0.1270  0.0749 -0.0842
85934W        W23428  33.567  32.366  24.589  0.0290 -0.0141 -0.0104
85935W        W23429  28.375  30.124  24.409  0.1795  0.1257  0.0599
85936W        W23430  22.298  30.693  12.511 -0.2040  0.2017  0.1451
85937W        W23431   4.685  27.039   5.448 -0.0880  0.3455  0.1086
85938W        W23432  28.503  16.542  13.280  0.0234  0.0384 -0.1522
85939W        W23433  27.732   5.864  21.291  0.0452 -0.0837 -0.1846
85940W        W23434  34.979   0.803  14.056 -0.1574 -0.0107 -0.2020
85941W        W23435  18.382  11.907  24.584  0.1950  0.1943 -0.0931
85942W        W23436  30.822  27.186   8.346  0.0079 -0.0322  0.0794
85943W        W23437  15.910   4.825   6.415  0.3850 -0.4677 -0.4027
85944W        W23438   5.287  20.532  18.531 -0.0456  0.2329  0.0475
85945W        W23439  18.635  18.640  17.984  0.2593 -0.0301  0.1238
85946W        W23440  29.702  28.467   2.986  0.1388 -0.1776  0.3305
85947W        W23441   2.125   8.181  22.784  0.0030 -0.0883  0.1339
85948W        W23442  27.076   8.416   9.812 -0.0855  0.1522 -0.2576
85949W        W23443  24.937  11.284   1.371  0.1865  0.2381 -0.0407
85950W        W23444   3.904  25.865  23.164 -0.0097 -0.0082  0.1318
85951W        W23445   7.947   7.691  19.068 -0.0522 -0.2684 -0.0886
85952W        W23446   4.787  15.006   7.695  0.0836  0.4307  0.1825
85953W        W23447  12.141   9.693  22.538  0.6785  0.0977 -0.2347
85954W        W23448  16.170  10.092   9.337  0.0380 -0.3411 -0.0985
85955W        W23449  22.792   9.926   5.237 -0.2653  0.0910 -0.2327
85956W        W23450  25.748  34.991   4.000  0.4250 -0.0471  0.1238
85957W        W23451  29.097  29.945  14.196  0.1658 -0.0794 -0.0500
85958W        W23452  18.109  26.931   2.919  0.0131  0.3276  0.0041
85959W        W23453  30.873   2.973  22.240 -0.0008 -0.1010 -0.2279
85960W        W23454  29.835  24.565  15.011  0.2570 -0.1962  0.0814
85961W        W23455  31.239  21.353  24.474 -0.2585 -0.1941 -0.0841
85962W        W23456   3.584  10.941   5.946  0.3300  0.1988 -0.2956
85963W        W23457   6.732  28.474  15.074 -0.0081  0.1083  0.1430
85964W        W23458   0.141  16.520  19.054 -0.3478  0.1555 -0.5009
85965W        W23459  24.328  33.307  24.903 -0.2375 -0.0928  0.0473
85966W        W23460   7.160  24.687   9.538 -0.2379  0.1208  0.3335
85967W        W23461  31.776  23.878  17.276 -0.1104  0.0855 -0.0382
85968W        W23462  14.082  18.169   8.614 -0.2188  0.3167  0.0504
85969W        W23463  32.647   2.156  23.235 -0.0644 -0.0313  0.2873
85970W        W23464  16.513   1.071  18.483  0.1820 -0.1410 -0.3677
85971W        W23465   7.592  14.135   0.411  0.2279  0.2226 -0.2216
85972W        W23466   5.117  33.788   1.366 -0.1722 -0.1134 -0.1723
85973W        W23467  23.712   9.042  13.940  0.0874  0.0824  0.1069
85974W        W23468  22.981   8.790  17.476  0.1019 -0.4271 -0.1686
85975W        W23469  30.833  21.118  11.110 -0.2395  0.0398  0.0540
85976W        W23470  11.052  33.572  10.793 -0.3086 -0.1288 -0.1102
85977W        W23471   9.334  11.814   4.470 -0.0067  0.1926 -0.1201
85978W        W23472  29.624  13.630   9.905  0.0289 -0.0276 -0.0890
85979W        W23473  35.119  10.539  23.052 -0.0835 -0.0457 -0.1342
85980W        W23474   3.683   7.112   3.111 -0.2310 -0.0772  0.0444
85981W        W23475  25.236  32.842  22.507  0.2047 -0.0512  0.0924
85982W        W23476  16.440   7.024   6.744 -0.0005  0.0012 -0.1902
85983W        W23477  14.354   7.011  19.791 -0.0233 -0.0941  0.0017
85984W        W23478   0.692  31.141   8.248 -0.3919  0.0426 -0.0437
85985W        W23479  17.846  16.909   9.912  0.1915 -0.0236 -0.1341
85986W        W23480  32.426  19.233  21.264  0.2836  0.0262  0.4818
85987W        W23481  11.450   2.289  25.802 -0.0038 -0.0280 -0.3110
85988W        W23482  13.109  28.738  13.051  0.1560  0.0818 -0.2209
85989W        W23483   0.744  30.402   4.988 -0.0288  0.0221 -0.1505
85990W        W23484  25.974  25.280  11.107 -0.1319 -0.0752 -0.1141
85991W        W23485   8.333   6.942   1.051 -0.0016 -0.0541 -0.1659
85992W        W23486  27.281  11.355   7.645  0.2305  0.1331 -0.3006
85993W        W23487  16.075  26.942   7.074 -0.1626  0.0291  0.1172
85994W        W23488  10.349  18.415   2.878  0.0152  0.0314  0.4789
85995W        W23489   5.133  11.910  17.047  0.1316  0.0731 -0.0020
85996W        W23490  13.296  15.826   9.856  0.2405  0.2142 -0.1292
85997W        W23491  32.996  23.005  12.243  0.1642 -0.0563 -0.0846
85998W        W23492  29.250   0.901  17.864  0.0341 -0.0407 -0.0204
85999W        W23493  30.894  21.789  13.078  0.2138  0.2569  0.1002
86000W        W23494   8.983  20.269  14.676  0.1473 -0.1101  0.5674
86001W        W23495  12.686   4.689   1.134  0.0036 -0.1679 -0.0623
86002W        W23496  32.489  10.211  18.543  0.0423  0.1361 -0.1013
86003W        W23497  30.850  21.615  20.158 -0.2603 -0.1841 -0.1172
86004W        W23498  13.658  22.922  13.450  0.0628 -0.1153  0.1387
86005W        W23499  30.317   8.214  24.152  0.0326 -0.2626  0.0811
86006W        W23500  11.662  25.459   7.888  0.0115 -0.1263  0.2694
86007W        W23501  10.186   3.174  19.074 -0.1956  0.2538  0.0848
86008W        W23502  29.315   3.341   5.330 -0.2141  0.1502  0.1191
86009W        W23503  14.273  23.221  14.986 -0.0936 -0.0359  0.0523
86010W        W23504  17.247   7.892   5.740  0.0872  0.0774  0.0642
86011W        W23505  15.861  18.477  12.943 -0.0721  0.3735  0.2174
86012W        W23506  10.748  15.105   0.227 -0.0919  0.1145 -0.4396
86013W        W23507  34.599   9.968  22.139  0.1449 -0.2029 -0.1662
86014W        W23508  22.987  12.992  19.015  0.0682  0.0670 -0.0461
86015W        W23509  20.680   4.832   8.877  0.2194 -0.2480  0.1107
86016W        W23510  31.691  23.830  13.514  0.0076 -0.0208 -0.4015
86017W        W23511  34.974   7.351  25.861  0.0873 -0.0636 -0.1926
86018W        W23512  24.148  29.283  22.077 -0.2634 -0.3163 -0.2071
86019W        W23513  10.156  23.625  16.783  0.0177 -0.0822 -0.2537
86020W        W23514  20.051  16.888   1.417 -0.0113  0.0030  0.0286
86021W        W23515   9.158   4.670   7.617  0.1003  0.2069  0.2250
86022W        W23516  12.757   0.496   2.602 -0.0313  0.1302 -0.2853
86023W        W23517  14.614  30.187   3.163 -0.0009  0.0303  0.2624
86024W        W23518   5.375  28.199   8.947  0.1437  0.0409  0.1355
86025W        W23519  11.765   5.204   4.816 -0.0653 -0.2342 -0.0931
86026W        W23520  21.171  15.349   3.619 -0.3881  0.0597  0.1105
86027W        W23521  27.471   7.432   1.777 -0.0040  0.1271  0.3601
86028W        W23522  21.314  11.888  21.536 -0.1094  0.0420  0.0958
86029W        W23523  12.570  14.322  19.865  0.0194  0.2810 -0.0794
86030W        W23524  21.825  27.051   4.071 -0.0719  0.2235  0.0228
86031W        W23525   5.721  21.577   1.337 -0.0502  0.3370  0.1722
86032W        W23526  23.374  28.147  19.575  0.0746 -0.0773  0.0151
86033W        W23527  30.554   0.719  13.012 -0.2013 -0.1108  0.1645
86034W        W23528  16.457  32.223   8.852  0.0109 -0.1920 -0.0260
86035W        W23529  28.789  13.785   7.364  0.1108 -0.0329 -0.1408
86036W        W23530  26.646  23.864  24.017 -0.4407 -0.1144  0.0760
86037W        W23531  19.648   1.300  24.594  0.1917  0.0790  0.2779
86038W        W23532  14.917   4.442  21.274  0.2189  0.4084 -0.1661
86039W        W23533  26.172  13.128  25.504 -0.2908 -0.1680  0.1131
86040W        W23534  16.207   7.732  22.094 -0.1181  0.0413 -0.0665
86041W        W23535  31.327   0.897  24.923 -0.3050  0.0604 -0.0286
86042W        W23536  25.985  27.852   9.232  0.0650 -0.1391  0.1384
86043W        W23537   0.315  30.435   4.015 -0.1176 -0.1467  0.3125
86044W        W23538  34.687   7.688  10.916  0.0227 -0.1804  0.0972
86045W        W23539  31.351  12.740  25.674 -0.0413 -0.1408  0.0364
86046W        W23540  26.814  24.235  10.942  0.1868  0.1472 -0.0577
86047W        W23541  17.798  22.901  10.463  0.0530 -0.2129  0.0003
86048W        W23542  26.522  10.353  10.376 -0.2090  0.3625  0.3195
86049W        W23543  14.791  34.774  18.756  0.3648 -0.2448  0.1269
86050W        W23544  31.225  18.377  17.261 -0.1842 -0.2023  0.4853
86051W        W23545   4.689  17.467   3.438  0.0681  0.0575 -0.0470
86052W        W23546   4.937  23.568   5.974 -0.1826 -0.1980 -0.0732
86053W        W23547  17.938  32.439  23.589  0.0233 -0.1341 -0.4067
86054W        W23548  26.488  26.914   2.405 -0.4048 -0.0187  0.1689
86055W        W23549   0.330  14.616  11.250 -0.3195 -0.2239 -0.1914
86056W        W23550  18.256   0.943  25.698 -0.1123 -0.1507  0.2457
86057W        W23551   3.786   6.435   8.671 -0.3106 -0.2302  0.0031
86058W        W23552   3.033  35.308  18.786 -0.1613  0.1143  0.1653
86059W        W23553  19.018  24.934   6.142  0.1342 -0.0683 -0.2800
86060W        W23554  16.255  14.654  20.558 -0.1387  0.1148  0.2695
86061W        W23555   6.962   0.125   8.895  0.2351 -0.4695  0.2136
86062W        W23556  26.268   8.455  20.114 -0.1390 -0.0036  0.0704
86063W        W23557   7.420  23.930   7.330  0.0999  0.0049  0.1173
86064W        W23558  27.562  26.578  13.983 -0.0160  0.0254  0.1691
86065W        W23559  21.366  27.360  15.528 -0.2679  0.2145  0.1922
86066W        W23560   6.935  13.272   8.408  0.0025 -0.2597 -0.1950
86067W        W23561   2.537   0.960  23.218  0.0937 -0.3231 -0.1195
86068W        W23562   8.040  18.202  10.971 -0.0581  0.2924  0.2724
86069W        W23563  20.654   4.389   2.847 -0.1322  0.0538 -0.0392
86070W        W23564  33.517  23.377  17.650  0.0522  0.2512 -0.1376
86071W        W23565   0.482  16.477  13.852 -0.2367 -0.2268  0.0244
86072W        W23566  15.487   2.174  25.695 -0.0301 -0.0207 -0.2692
86073W        W23567  17.018  10.978   8.537 -0.1755  0.2816  0.1347
86074W        W23568  16.579  32.788  10.661  0.1474  0.0854 -0.0028
86075W        W23569  33.388  10.924   9.869  0.2421 -0.1747  0.1225
86076W        W23570   2.775  25.986   0.476 -0.1807 -0.0117 -0.1642
86077W        W23571  33.233  14.722  15.975  0.3061  0.2198 -0.3869
86078W        W23572  21.868  34.353   4.662 -0.2090 -0.3006  0.3869
86079W        W23573  23.308   4.732   2.718  0.3258 -0.0456  0.0389
86080W        W23574  15.895  21.497  16.032 -0.0921  0.1640 -0.0543
86081W        W23575  18.506  14.163   5.765  0.0007  0.3803  0.4436
86082W        W23576   2.670   5.497   2.417  0.0892 -0.2840  0.3729
86083W        W23577  28.762   3.342  14.432 -0.0678  0.0490 -0.0547
86084W        W23578  28.491  14.571  18.017  0.1833 -0.0601  0.1404
86085W        W23579  31.994  33.205   1.812  0.3649 -0.1504  0.1235
86086W        W23580   6.086  24.383   5.222  0.0668 -0.1137 -0.0188
86087W        W23581  34.547  29.440   2.353  0.1772 -0.3429 -0.0568
86088W        W23582  18.871  30.946   5.927  0.0886 -0.0382 -0.0981
86089W        W23583   8.536  14.052  11.049 -0.1476 -0.1487 -0.0642
86090W        W23584  16.430   8.033  23.669 -0.1519  0.2250  0.2570
86091W        W23585  14.835  18.170   7.083  0.0501 -0.0292  0.0074
86092W        W23586  26.150  26.618   2.159 -0.4305 -0.2620  0.0695
86093W        W23587  35.351  24.982  21.047  0.0258  0.1219  0.2055
86094W        W23588  32.405  27.002  14.220  0.0350  0.1333  0.0429
86095W        W23589   7.061   5.063   4.388  0.0596 -0.3715 -0.1278
86096W        W23590   8.847   7.308  12.881  0.1029 -0.0570  0.2307
86097W        W23591  20.749  28.138  25.958  0.1194  0.2823 -0.1847
86098W        W23592   1.660   7.006   0.323 -0.0678  0.2750  0.0294
86099W        W23593  28.552  28.455   9.892  0.1111  0.0873 -0.1664
86100W        W23594  21.485  28.573  13.269 -0.1693  0.1643 -0.1585
86101W        W23595  10.095  32.300   4.757  0.0862 -0.4785 -0.1337
86102W        W23596   3.617  21.408  20.460 -0.0407 -0.1615  0.2011
86103W        W23597   8.246  27.062  22.086 -0.1243 -0.0690 -0.0820
86104W        W23598  33.728  21.893   1.290  0.1495  0.0748  0.0642
86105W        W23599   3.033  13.267  20.250  0.0313  0.0979  0.3137
86106W        W23600  14.709  13.256   8.081  0.1742 -0.1243  0.0218
86107W        W23601  23.135   4.306   2.446  0.3830  0.1014  0.0490
86108W        W23602  32.653   8.131  15.260  0.0822 -0.5477  0.1365
86109W        W23603   3.433  13.246   0.905 -0.5806  0.0275 -0.0440
86110W        W23604  20.863  28.546  17.215 -0.0410  0.1606 -0.0868
86111W        W23605   9.259  26.470  22.070 -0.1901  0.0031  0.1321
86112W        W23606  15.071  31.599   7.117 -0.2245 -0.1627  0.3226
86113W        W23607  34.550  15.200  15.805  0.1074 -0.3003 -0.0610
86114W        W23608   7.416  15.560  21.244 -0.1667 -0.2295  0.0029
86115W        W23609  23.385   2.841  23.601 -0.0433  0.3474  0.2372
86116W        W23610  30.675   9.405  17.039 -0.0653  0.0819 -0.1039
86117W        W23611  22.101  30.940  17.578 -0.2835 -0.1421  0.1102
86118W        W23612  26.840  35.284  19.547 -0.2522 -0.0233 -0.0711
86119W        W23613  11.404   1.615  10.763 -0.1795 -0.3111  0.2191
86120W        W23614  23.223  34.826  26.018 -0.1071 -0.0129  0.0669
86121W        W23615   0.187  27.538  15.316 -0.2691  0.1216 -0.1696
86122W        W23616  24.299  29.664  25.463 -0.2013  0.1263 -0.0685
86123W        W23617  18.513  15.538  22.137 -0.1628 -0.2271  0.1552
86124W        W23618   3.416  28.290  23.141  0.1280 -0.0464  0.2518
86125W        W23619  10.199  28.398   4.227 -0.0066 -0.1531  0.0371
86126W        W23620  14.392  28.449  22.673  0.1587 -0.0251 -0.0124
86127W        W23621   2.073   3.421   4.581 -0.2195  0.1143  0.1560
86128W        W23622  11.359  28.424  11.893  0.0978 -0.0494  0.0404
86129W        W23623   8.560   8.027   3.852 -0.0311 -0.0028 -0.1630
86130W        W23624  18.233   8.635  10.537  0.0378  0.0860 -0.1035
86131W        W23625   5.802   2.989  19.286 -0.0922  0.1131  0.1627
86132W        W23626  19.939  30.004   2.932  0.1274 -0.2039 -0.0498
86133W        W23627   2.177   4.887   0.971  0.1212 -0.1810 -0.2225
86134W        W23628  34.334  34.573  25.775 -0.0526  0.1847 -0.0303
86135W        W23629  33.455   1.928  26.248  0.0815 -0.2809 -0.0920
86136W        W23630   5.305  11.133   5.319 -0.0885  0.0245  0.0092
86137W        W23631  31.754   3.206  22.340 -0.2992 -0.0519  0.0988
86138W        W23632  26.137  24.840  23.674 -0.1619  0.2673 -0.0074
86139W        W23633   4.796  20.646  25.578  0.2574  0.0756 -0.2087
86140W        W23634   1.121  24.839   2.849 -0.0585 -0.0379  0.2085
86141W        W23635  32.826  29.787  12.462 -0.1042 -0.0828 -0.1597
86142W        W23636  28.026  30.811  18.023 -0.0122  0.2094  0.0427
86143W        W23637  32.020  24.576   1.226 -0.1636  0.0930  0.1267
86144W        W23638  14.621  34.948   9.900  0.1521 -0.0448  0.1957
86145W        W23639  16.103   6.682  25.681  0.0736 -0.0828 -0.2911
86146W        W23640  19.293  31.191   6.101 -0.3423  0.2096  0.1622
86147W        W23641  10.518   5.491   0.767 -0.0547 -0.2181  0.0231
86148W        W23642   5.448  17.861   5.167 -0.2169 -0.0262  0.3666
86149W        W23643  14.259  15.959   2.509  0.0298 -0.1847 -0.1031
86150W        W23644  34.904  22.143  10.855 -0.0529 -0.3035  0.1551
86151W        W23645  33.527  13.300   9.090  0.5059  0.3692  0.2174
86152W        W23646   3.482  14.036  24.562  0.2793  0.0048 -0.1765
86153W        W23647   3.865  13.602   4.650 -0.0742 -0.3448  0.0312
86154W        W23648  12.634  31.274  10.215 -0.0583 -0.3476 -0.1686
86155W        W23649  29.202  32.447  21.430  0.2319  0.1508 -0.0333
86156W        W23650   3.151   5.990  15.169  0.1608  0.0690 -0.0294
86157W        W23651   1.218  32.818   2.964  0.1251  0.2865  0.1120
86158W        W23652  11.742  33.623  14.754  0.0694 -0.0454 -0.2687
86159W        W23653  21.182   0.943   2.048  0.1218 -0.1144  0.0713
86160W        W23654   9.453   7.494   2.724 -0.1304 -0.2595 -0.0193
86161W        W23655  23.203  28.372  16.997  0.2529  0.0013 -0.0473
86162W        W23656  17.144  33.479   3.984  0.1586  0.1428  0.0832
86163W        W23657  26.378  33.744  14.952  0.0875  0.4340 -0.0961
86164W        W23658  16.295  14.262   7.583 -0.0212  0.0500  0.1460
86165W        W23659  28.040  22.168  12.206  0.0522 -0.3920 -0.0881
86166W        W23660  28.691  31.693  21.034  0.1293  0.2483 -0.1162
86167W        W23661   0.297  23.994  16.154 -0.0374  0.1730 -0.0366
86168W        W23662   9.478  32.547  23.421 -0.2005 -0.2995  0.1816
86169W        W23663  15.460   4.651  18.416 -0.2558 -0.1408  0.2694
86170W        W23664  10.457   1.887  24.500 -0.1588 -0.0291 -0.2752
86171W        W23665  13.853  13.042  11.327  0.1224  0.0656  0.0661
86172W        W23666   2.066  26.953  19.513  0.0702 -0.0216 -0.0666
86173W        W23667  12.276  34.425  10.962  0.0039  0.0276  0.0031
86174W        W23668   5.011   7.893  21.855 -0.3014  0.1919 -0.1770
86175W        W23669  35.160   3.945  17.042 -0.1346 -0.1018 -0.1115
86176W        W23670   7.525  24.028  24.981 -0.1526  0.0987  0.0314
86177W        W23671  11.524   9.032   2.493 -0.2746  0.2639  0.1554
86178W        W23672   7.591  30.492  24.893  0.2446  0.1866 -0.2072
86179W        W23673  13.419  30.070   4.936 -0.2301  0.0744 -0.4420
86180W        W23674   6.376  26.491  25.342 -0.1873  0.1949 -0.1793
86181W        W23675  24.642  16.551  18.617 -0.1581  0.1123  0.0882
86182W        W23676  12.376  23.639  15.214 -0.1265  0.1769  0.0028
86183W        W23677   4.447   8.776   0.732 -0.2339  0.1126 -0.0495
86184W        W23678   1.666  30.733   9.513 -0.1324 -0.3087  0.2653
86185W        W23679   5.234   1.010   3.091  0.0109  0.1578  0.0797
86186W        W23680   3.505   0.298   8.835  0.1799  0.0034 -0.3684
86187W        W23681   1.548  22.279  21.020  0.4096 -0.0516  0.0527
86188W        W23682  12.898   8.960   6.711  0.0182  0.2152 -0.0627
86189W        W23683  34.201  13.023  12.882 -0.0057 -0.1031 -0.0516
86190W        W23684  17.786   3.273  22.243  0.2818 -0.1930  0.0612
86191W        W23685  31.191  27.490  12.813 -0.2121 -0.1862 -0.0796
86192W        W23686  20.061  23.198  18.167  0.0608  0.0134  0.0232
86193W        W23687   7.583  34.847  21.866 -0.0147 -0.2733  0.1444
86194W        W23688  27.876   9.756   1.374  0.0944  0.0545  0.2624
86195W        W23689  12.578  17.952   8.881 -0.2170  0.0234 -0.0138
86196W        W23690  26.235  26.832  20.979  0.0009  0.0222 -0.2043
86197W        W23691  23.821  33.420  13.560  0.0188 -0.1098 -0.3531
86198W        W23692  17.395  21.180   8.941 -0.0478  0.0097 -0.1570
86199W        W23693   5.977   8.955   7.467  0.1515  0.2556  0.2184
86200W        W23694  32.850  17.063  14.515  0.4774 -0.2450 -0.0917
86201W        W23695   8.097  30.445   8.803 -0.0550 -0.1374 -0.3303
86202W        W23696   7.751  19.716   9.001 -0.2257 -0.0720 -0.1614
86203W        W23697  13.138  17.585   9.800 -0.2916  0.2609 -0.0733
86204W        W23698   8.428  25.879  24.043  0.1155 -0.1105  0.0777
86205W        W23699   4.785  13.527   3.048 -0.0554  0.1123 -0.1744
86206W        W23700  12.843   4.130  10.981 -0.2520  0.0219  0.4062
86207W        W23701   8.405  15.650  21.147  0.0677  0.0659  0.0485
86208W        W23702  24.303  34.469  16.370  0.0535 -0.1865 -0.4195
86209W        W23703  32.382   0.841   0.568 -0.2916 -0.0820  0.1201
86210W        W23704  24.367   1.563   0.519 -0.0046  0.1197  0.3522
86211W        W23705  10.286  32.182   9.224  0.2182  0.1858 -0.2735
86212W        W23706  11.469   3.850  19.052 -0.0914  0.0493  0.0239
86213W        W23707   4.671   7.161   5.356  0.0908 -0.0360 -0.1269
86214W        W23708  21.788  20.932   0.584  0.0652  0.0226 -0.1107
86215W        W23709  21.860  15.584  18.753 -0.4577  0.0024  0.2232
86216W        W23710  27.575   4.743  14.096 -0.1331  0.0204  0.0687
86217W        W23711  32.015  26.236  16.432  0.1913  0.2553 -0.0491
86218W        W23712  22.526  11.217  17.780 -0.1859 -0.1302  0.1734
86219W        W23713   4.258  13.756  17.417 -0.2489  0.0311 -0.1776
86220W        W23714  25.795  30.804   4.160 -0.2883  0.2654  0.3632
86221W        W23715  21.037  31.199  16.940 -0.0484  0.1227 -0.1223
86222W        W23716  26.298  10.048  15.667  0.4238  0.1416 -0.0461
86223W        W23717  16.128  32.339  23.033 -0.0817 -0.1081 -0.2122
86224W        W23718  29.622   0.766   3.485  0.1475 -0.2500  0.0469
86225W        W23719   7.717  18.198   7.265  0.1295  0.1123 -0.3854
86226W        W23720  12.805   0.017   8.417 -0.1526 -0.0656 -0.2441
86227W        W23721  23.927   7.734  22.044 -0.0554  0.0510  0.3183
86228W        W23722  18.181  34.259   1.676 -0.2047 -0.0236  0.0002
86229W        W23723  12.484  32.011  26.229  0.2298 -0.0398  0.2571
86230W        W23724   7.980  10.093  20.486  0.2300 -0.0290  0.4324
86231W        W23725  10.704  12.765   8.923  0.0218 -0.2323 -0.1694
86232W        W23726   5.384  10.015  21.626 -0.0751  0.2320 -0.4174
86233W        W23727   3.507   9.757  19.404 -0.1524  0.0071  0.1484
86234W        W23728  26.223  22.579  16.997  0.1981 -0.0322  0.0129
86235W        W23729  10.304  27.047   0.292  0.0077  0.1638 -0.2023
86236W        W23730   8.093   7.014  11.677 -0.1471 -0.2559  0.0269
86237W        W23731  15.402  32.335   1.089  0.1477  0.0925  0.1051
86238W        W23732   7.832   8.119   8.970  0.0387  0.0443 -0.1925
86239W        W23733  12.759  32.867   0.619  0.0427  0.0111 -0.0355
86240W        W23734   7.968  33.401   4.485 -0.2670 -0.0248  0.1642
86241W        W23735  13.124   2.022   8.526  0.1214 -0.2285 -0.1323
86242W        W23736  16.265  11.446   1.829  0.0298  0.1931  0.1042
86243W        W23737  19.156  10.913   0.393  0.0663  0.2486 -0.2215
86244W        W23738  28.685   6.067  23.286  0.1342  0.0718  0.1154
86245W        W23739   6.639  14.878  18.618 -0.2180 -0.0472 -0.0018
86246W        W23740  21.194  32.496  21.785 -0.0702 -0.3044  0.0402
86247W        W23741  19.128  23.843   4.604 -0.0704 -0.1190  0.0379
86248W        W23742   3.135  16.513  25.965  0.3558 -0.1293  0.3715
86249W        W23743  13.096   5.552  19.749  0.3314  0.2217  0.1381
86250W        W23744   9.631  13.386  11.313 -0.3788 -0.3094 -0.2623
86251W        W23745  12.799  34.335  10.954  0.1145  0.0499  0.1040
86252W        W23746  18.918  14.677   6.409  0.1447 -0.0786 -0.0298
86253W        W23747  16.762  32.144  23.839 -0.1196  0.0317 -0.2695
86254W        W23748  15.193  15.634  24.023 -0.3314 -0.1493 -0.1343
86255W        W23749  22.612   2.451   6.988 -0.3232 -0.0071 -0.2111
86256W        W23750  13.410  14.342  21.956  0.1764 -0.2003  0.0030
86257W        W23751  25.471  12.634  22.674  0.1199 -0.2100  0.3211
86258W        W23752  18.716  31.312   8.594  0.0410 -0.2110 -0.0839
86259W        W23753  21.695  33.452   5.119  0.1231 -0.0395 -0.0549
86260W        W23754  32.574   3.301   6.409 -0.1972 -0.0598  0.2067
86261W        W23755  29.853  28.160  22.361 -0.0075  0.1357  0.0716
86262W        W23756   5.072   2.148   1.169  0.2409 -0.2863 -0.1141
86263W        W23757  29.993   8.450  14.180 -0.0152 -0.2154  0.0742
86264W        W23758  13.053  20.281  14.620 -0.0213 -0.0349 -0.1950
86265W        W23759  19.188  33.307  22.399  0.0531  0.1301  0.1743
86266W        W23760   6.004  14.826  19.812  0.2086  0.2620 -0.3449
86267W        W23761   0.058  33.480   8.440  0.1550  0.1573 -0.0068
86268W        W23762  17.585  21.202   2.868 -0.0049 -0.0687  0.1464
86269W        W23763  11.723  29.762  12.860  0.0020 -0.2359  0.1292
86270W        W23764  27.109  16.203  21.454  0.1725  0.3147 -0.0854
86271W        W23765  14.551  26.681  23.461 -0.1570  0.0643  0.2441
86272W        W23766  16.036  12.199  11.585 -0.1360  0.4281 -0.1209
86273W        W23767   6.898   2.788  18.578 -0.4322  0.2570 -0.2157
86274W        W23768  28.230  21.042   6.166 -0.0767 -0.0569 -0.1437
86275W        W23769  35.029  18.714  14.770 -0.1134 -0.2522 -0.2148
86276W        W23770   1.630  23.115  23.642 -0.3792  0.4820 -0.0924
86277W        W23771   8.515  27.261  24.755  0.2031 -0.4332 -0.0317
86278W        W23772   9.069  31.632  16.125 -0.0008  0.2281 -0.2626
86279W        W23773  19.473  21.496   5.844  0.1175 -0.1545  0.1654
86280W        W23774  15.948   6.873  19.561 -0.0698 -0.0843 -0.2285
86281W        W23775  34.875   7.560   2.621 -0.1743  0.1015 -0.4123
86282W        W23776  24.289   0.916   5.822 -0.1390  0.1011 -0.0902
86283W        W23777   6.318   8.607   7.594 -0.0043  0.4269 -0.0776
86284W        W23778  30.444   8.222  23.564 -0.2005 -0.0553  0.2748
86285W        W23779  14.383  25.007  23.515 -0.1525  0.0692  0.2562
86286W        W23780  27.870  21.951  10.362  0.1352 -0.0949  0.0292
86287W        W23781  21.807  30.856  22.448 -0.0300  0.1947  0.1889
86288W        W23782  24.675  22.055  26.127 -0.0272  0.3122 -0.3575
86289W        W23783  19.522  20.099   6.287 -0.0692  0.1768 -0.1041
86290W        W23784  31.962  12.112  15.866  0.0652  0.0287  0.0505
86291W        W23785   0.070  33.823   7.512  0.3736  0.0979 -0.0209
86292W        W23786  19.936   3.228   3.365 -0.2432 -0.2366 -0.1698
86293W        W23787  34.369   7.896  14.611 -0.0380 -0.0650 -0.4634
86294W        W23788   1.962  34.703   6.117 -0.1603  0.1222 -0.0188
86295W        W23789  17.840   3.284  10.656 -0.0210  0.2211 -0.0110
86296W        W23790   0.049   8.668  19.651 -0.1169 -0.0599 -0.0317
86297W        W23791   9.754  12.017  21.249 -0.0032  0.0337 -0.1636
86298W        W23792  34.457   6.410   0.191  0.3293 -0.0570 -0.0090
86299W        W23793  19.938   0.010   4.422  0.1169  0.0844 -0.0881
86300W        W23794  10.131  12.478  20.262 -0.1085  0.1782  0.1747
86301W        W23795  22.904  24.207  23.698  0.0311 -0.1278 -0.0627
86302W        W23796  20.261  16.083   2.964  0.1254  0.0974 -0.0687
86303W        W23797  14.779  11.654  22.816  0.1339  0.1919  0.1730
86304W        W23798  33.524   3.495   1.599 -0.0694  0.0442 -0.3869
86305W        W23799  35.367   8.323  22.202  0.4897  0.1188 -0.3068
86306W        W23800   6.688   1.688   4.373  0.1211  0.0931 -0.1132
86307W        W23801  18.593  22.471   8.556  0.0817 -0.2677  0.0937
86308W        W23802  29.601  19.079  13.382 -0.2114  0.1027  0.3224
86309W        W23803  30.234  20.548  14.717  0.4147  0.0305 -0.0950
86310W        W23804  32.462  14.938   8.731  0.1274 -0.1279  0.2944
86311W        W23805  17.304  13.361  10.961  0.1231  0.0326 -0.1881
86312W        W23806   6.212  27.501   9.909 -0.1349  0.1918 -0.0397
86313W        W23807  32.413   4.118  22.581  0.2300 -0.2644  0.0506
86314W        W23808  21.573   7.760  24.985 -0.2205 -0.0448 -0.1458
86315W        W23809  27.835   1.542  16.287  0.3347  0.0883 -0.1940
86316W        W23810   7.043   0.553  13.830 -0.0064  0.0653  0.0102
86317W        W23811  15.743   7.786   9.893  0.1490  0.4632  0.1199
86318W        W23812  34.065  26.872  14.806 -0.3292 -0.0837 -0.1790
86319W        W23813  29.857   4.649  23.989  0.0229  0.0179  0.4147
86320W        W23814  11.926  26.763   9.176 -0.1008 -0.2190  0.2187
86321W        W23815  31.754  22.342  20.042 -0.0264  0.0669 -0.1266
86322W        W23816  33.704  30.039  26.066  0.3469  0.0652  0.1685
86323W        W23817  25.340  19.011  25.488 -0.0168  0.2312  0.4036
86324W        W23818   6.143  23.047   5.714  0.1226  0.1994  0.3627
86325W        W23819  16.397   9.592   9.288 -0.0249 -0.1026 -0.2849
86326W        W23820  26.091  34.675  19.288  0.1194  0.2552 -0.0473
86327W        W23821   9.818  24.843  26.087 -0.0484  0.1365 -0.1225
86328W        W23822  29.576   9.551  11.351 -0.2400  0.1055  0.0451
86329W        W23823  13.263  14.115  11.483  0.4327 -0.2335  0.0352
86330W        W23824  16.333  33.356  10.713  0.0792  0.0881  0.1996
86331W        W23825  30.904  13.903   0.146  0.0488  0.0131  0.0098
86332W        W23826   3.686  13.437   5.392 -0.1506  0.2013  0.0931
86333W        W23827   7.326  13.733   2.253  0.0729  0.0616  0.0374
86334W        W23828   8.014  24.240  16.332  0.0561 -0.1318  0.2651
86335W        W23829  29.060  19.889   9.376  0.2070  0.1073 -0.0154
86336W        W23830   7.953  24.657   7.069  0.2758 -0.1533 -0.3188
86337W        W23831   7.051  28.843  15.371  0.0403 -0.1628  0.2287
86338W        W23832  34.046  32.430   4.472  0.1245  0.3970 -0.3020
86339W        W23833  10.799   2.169  12.875 -0.1746  0.0732 -0.1866
86340W        W23834  16.915  14.306   9.888  0.2876  0.0868  0.1391
86341W        W23835  18.646  12.668   7.665 -0.1386 -0.0078  0.4512
86342W        W23836   8.569  19.757   9.289 -0.1537 -0.0348  0.0605
86343W        W23837  26.146  31.868  12.746  0.1532  0.0164 -0.0380
86344W        W23838   7.097  13.332   9.724 -0.1228  0.1755 -0.1953
86345W        W23839   0.135   9.820  17.926 -0.1588 -0.2212  0.1750
86346W        W23840  11.298  27.828  10.656 -0.1012  0.0791  0.0471
86347W        W23841  22.761  33.866  21.466 -0.2505 -0.2521 -0.0468
86348W        W23842   7.242   6.137  11.012  0.2461 -0.0188 -0.1074
86349W        W23843  13.403  22.208   8.253 -0.3081  0.0120 -0.2828
86350W        W23844   5.684  33.597  10.215  0.0093  0.0436  0.2386
86351W        W23845   4.728   3.313   7.463  0.0958 -0.1965 -0.2912
86352W        W23846  26.705  12.778  17.809  0.1433 -0.2738 -0.0015
86353W        W23847   4.154  24.501   2.057 -0.2911  0.0176 -0.0727
86354W        W23848  22.126  28.320   1.485 -0.0121  0.1915 -0.0500
86355W        W23849  14.362   6.138   6.896  0.2409  0.1322 -0.1999
86356W        W23850  34.857   0.384  18.954  0.0293  0.0174  0.2075
86357W        W23851   6.998  30.039  21.374 -0.0009 -0.0563  0.1373
86358W        W23852  28.070  17.703  22.838 -0.2827  0.0035  0.2457
86359W        W23853   8.410   7.128  12.959 -0.2748 -0.0299  0.1765
86360W        W23854  16.669   6.800  13.298 -0.1829 -0.2475 -0.0605
86361W        W23855  17.665  33.389   7.586 -0.1718 -0.0399  0.1163
86362W        W23856   5.503  13.294   3.779  0.4836 -0.1462 -0.0558
86363W        W23857  22.937  10.531  21.060 -0.2346 -0.0497  0.0270
86364W        W23858  21.682   9.139   1.143 -0.1181 -0.2260  0.2487
86365W        W23859   5.628   7.119   1.513 -0.1064  0.0474  0.1753
86366W        W23860  10.403  28.069   0.907  0.0199 -0.3299 -0.1159
86367W        W23861  12.832  22.498   4.528  0.1615  0.0304  0.3683
86368W        W23862  26.993  20.854  11.487  0.1244  0.0039 -0.2272
86369W        W23863   6.463  13.924   2.331 -0.2465 -0.2881 -0.1148
86370W        W23864  13.116  27.261   0.219  0.1996 -0.0794 -0.2300
86371W        W23865  35.116  16.486  23.776 -0.1511  0.0654 -0.0134
86372W        W23866  13.285   8.851   4.129  0.3244 -0.3405  0.0924
86373W        W23867  20.985   6.871   8.808  0.1110 -0.1075 -0.2163
86374W        W23868  17.847  33.987   8.072 -0.0216  0.2330  0.1063
86375W        W23869   1.435  23.896  24.184  0.0111 -0.1009  0.0147
86376W        W23870  33.024  19.721  21.310 -0.0640  0.0784  0.0715
86377W        W23871  11.893  35.293  14.687  0.0430 -0.0489  0.1272
86378W        W23872  15.780  32.320  11.481 -0.0794 -0.2390 -0.3240
86379W        W23873  28.995   8.229  21.119  0.1364 -0.0028 -0.2686
86380W        W23874  29.961  10.575  19.199 -0.0092  0.1007 -0.0320
86381W        W23875  31.769  16.158  10.275 -0.1435  0.0972  0.1095
86382W        W23876  22.135   0.887   4.374 -0.1027 -0.1296  0.1392
86383W        W23877  15.893  19.297  13.475 -0.1932 -0.4962 -0.0382
86384W        W23878  32.158  28.406  18.259 -0.0312  0.0196 -0.0508
86385W        W23879  17.111  30.533  24.687 -0.1172 -0.1733 -0.1086
86386W        W23880  26.182   6.531  23.191 -0.2110  0.1490 -0.0797
86387W        W23881  19.387   4.591   4.233 -0.2797  0.0697 -0.0993
86388W        W23882  28.101  11.197   0.379  0.0686  0.1627 -0.1251
86389W        W23883  21.365  24.511   5.648 -0.2338 -0.2280 -0.0027
86390W        W23884  17.398  10.150  20.232  0.3398  0.1049  0.0097
86391W        W23885  29.930   3.694  21.875  0.1898  0.2067 -0.3204
86392W        W23886   0.715  34.425   9.165  0.4240  0.4098  0.0192
86393W        W23887  25.113  20.345  22.146 -0.1956  0.1063  0.0375
86394W        W23888  30.002  31.489  22.374  0.2319  0.0361 -0.1240
86395W        W23889  20.585  19.067   1.801  0.1165  0.0129  0.1418
86396W        W23890  23.313  12.080  16.966 -0.0618 -0.1318  0.2515
86397W        W23891  25.646  12.150  17.442  0.0686  0.0240 -0.3350
86398W        W23892  24.178   4.875  25.949  0.0038 -0.1593 -0.0254
86399W        W23893  15.989  18.096  22.065  0.2401 -0.3257 -0.4332
86400W        W23894  11.809  25.417  18.184 -0.1618 -0.1425 -0.1130
86401W        W23895  31.754   5.217  17.474 -0.2198  0.1941 -0.1295
86402W        W23896  12.522  19.430  11.729  0.0352  0.3268 -0.2795
86403W        W23897   5.683  27.342  13.742 -0.1617  0.0965  0.2607
86404W        W23898   3.174   9.578  19.766  0.0864 -0.1474  0.1984
86405W        W23899  35.015  21.069  21.731 -0.0708 -0.0890  0.1616
86406W        W23900  11.244   8.199  20.684 -0.0666 -0.1778 -0.1080
86407W        W23901  16.916  24.288   6.039 -0.0460 -0.1553 -0.0449
86408W        W23902   6.156  33.270   3.344 -0.2613 -0.1360  0.0979
86409W        W23903  13.416  15.596  26.195  0.0668 -0.1841  0.0967
86410W        W23904   0.037   7.765  23.023 -0.2035 -0.0786 -0.1243
86411W        W23905  21.921  11.172  15.180 -0.2410 -0.1835 -0.3503
86412W        W23906   3.871  28.736   2.255 -0.0337  0.0186 -0.2763
86413W        W23907  23.647  23.291  20.544 -0.2331 -0.3570 -0.2266
86414W        W23908   6.366  26.568  23.322 -0.2094  0.3214  0.0294
86415W        W23909  29.839  34.814  14.477  0.0477  0.1613  0.2056
86416W        W23910  26.809   2.325  23.137  0.1184 -0.2196  0.1271
86417W        W23911  12.857  21.315  16.710 -0.2227  0.0157  0.1692
86418W        W23912  10.903  31.853  15.066  0.1366  0.2094 -0.1825
86419W        W23913  30.303  30.545   0.139 -0.4700 -0.0212 -0.3556
86420W        W23914  16.061  17.593  19.471 -0.2834  0.2053 -0.0255
86421W        W23915  15.961  19.200   0.397 -0.4079  0.3691  0.1951
86422W        W23916   4.259   6.490  25.310 -0.1541 -0.1954 -0.0633
86423W        W23917  10.080  21.457   6.638  0.0885  0.4884 -0.1218
86424W        W23918  14.967   5.967   8.363 -0.0890 -0.2530 -0.1065
86425W        W23919  13.874   2.149   0.600 -0.1867 -0.0347  0.2814
86426W        W23920   9.625  34.125   5.909  0.0615 -0.0104  0.4651
86427W        W23921  27.436  20.596  23.659 -0.0477  0.2689 -0.0816
86428W        W23922  17.632  19.765  13.071  0.1381 -0.1131 -0.1868
86429W        W23923   0.954  17.336   8.708 -0.0073 -0.1575 -0.2821
86430W        W23924  11.004  23.236   5.892 -0.2311 -0.3722  0.1582
86431W        W23925  15.427  16.547   4.708  0.0559 -0.2109 -0.1705
86432W        W23926   1.624  25.939  21.149 -0.1024 -0.2763 -0.0776
86433W        W23927  32.663  25.935  11.828 -0.2946  0.0645  0.0622
86434W        W23928  12.963  10.582   6.818  0.1288 -0.2251  0.0040
86435W        W23929  16.185   2.683   0.960  0.2028  0.1440  0.0831
86436W        W23930   9.211   7.245  13.299 -0.2660 -0.0199  0.4845
86437W        W23931  26.396  31.580  11.416 -0.2746 -0.4501  0.0076
86438W        W23932  14.916  21.279  25.441 -0.1983 -0.0245  0.1195
86439W        W23933   0.225  15.488  14.959  0.0284 -0.0422  0.2785
86440W        W23934  19.441   9.104  10.582  0.0190 -0.1380  0.0926
86441W        W23935  18.753  22.232   4.700  0.0860  0.1766  0.3321
86442W        W23936   8.351   6.596  22.918  0.1370 -0.1136  0.0387
86443W        W23937  22.908  17.470  13.756 -0.1841  0.0578  0.3430
86444W        W23938  14.959  20.023  22.937  0.0440 -0.1828  0.0021
86445W        W23939   0.589   6.763  14.172  0.0052 -0.1166 -0.2173
86446W        W23940   8.488  20.137   3.236  0.0263  0.0416  0.1625
86447W        W23941  18.745  20.825   6.497  0.1240  0.1489  0.3004
86448W        W23942  10.013   8.575   2.717  0.0972 -0.1761  0.1346
86449W        W23943  31.513   9.794  26.000 -0.0875  0.1173  0.3452
86450W        W23944   5.778  34.587  12.534 -0.1487 -0.1745  0.1987
86451W        W23945  18.306   0.808  17.454  0.2414 -0.1212 -0.2952
86452W        W23946  10.476  29.741   6.493  0.0390 -0.0772 -0.3270
86453W        W23947   8.127  19.259   3.670 -0.0425  0.2488  0.2121
86454W        W23948  12.092  15.833   3.957  0.1182 -0.2834  0.0719
86455W        W23949  27.531  12.627  19.771  0.2191 -0.3513  0.0052
86456W        W23950  20.033  11.181  23.958 -0.1885 -0.2877  0.2412
86457W        W23951   7.592  33.454   9.834 -0.2578  0.0666  0.0730
86458W        W23952  17.414  34.439   9.078  0.0258 -0.1044 -0.0661
86459W        W23953   8.795  10.783  19.584 -0.1142  0.1506 -0.3527
86460W        W23954  33.907   1.661   5.010  0.0749  0.0794 -0.0576
86461W        W23955   5.942  32.148  12.606 -0.0374 -0.4568 -0.1278
86462W        W23956   1.082   4.208  23.692  0.1625  0.0118 -0.1199
86463W        W23957  12.357  34.524  12.496  0.0859 -0.0316  0.3883
86464W        W23958   4.118  15.624  21.849  0.3032 -0.0191 -0.2259
86465W        W23959   6.193  25.671  13.712  0.2975 -0.1157  0.0175
86466W        W23960  16.843  10.754  25.518  0.1051  0.1462  0.0344
86467W        W23961  26.292  11.866  11.507 -0.1859  0.2502  0.0600
86468W        W23962   3.334  13.656  20.057 -0.3600  0.1619 -0.0197
86469W        W23963   6.339   4.887   7.196 -0.0849  0.0735  0.0221
86470W        W23964  23.660   1.392   2.234  0.1604  0.1612  0.1890
86471W        W23965  20.917  30.440  19.609  0.0503 -0.1026 -0.0464
86472W        W23966  23.109   6.814  17.459  0.0139 -0.0160  0.0890
86473W        W23967  24.213  10.210  15.657 -0.1710  0.1212  0.0848
86474W        W23968   8.124   4.781  10.791  0.3779 -0.2477  0.0527
86475W        W23969  17.898   6.268  10.934 -0.4258  0.0172  0.0708
86476W        W23970  27.676   6.376  12.353 -0.3017 -0.0237 -0.1972
86477W        W23971   6.069   8.695  22.327 -0.2306  0.1775 -0.1251
86478W        W23972   3.399   9.493  16.887 -0.0955  0.0083  0.2354
86479W        W23973   7.636  12.469  11.278  0.0025  0.2326 -0.0511
86480W        W23974   6.588  25.643   3.741  0.2756  0.0014 -0.0264
86481W        W23975   7.344  17.004   5.002  0.1048 -0.0654  0.1105
86482W        W23976   1.797   2.727  20.499  0.2825 -0.0588 -0.1176
86483W        W23977  14.028  19.321   6.075 -0.0415 -0.0344  0.1364
86484W        W23978  12.659   6.007   5.643  0.0188  0.1435  0.0595
86485W        W23979  32.136  26.752   0.485  0.0556 -0.1116 -0.0449
86486W        W23980  11.563   6.824  25.594  0.1409 -0.0272 -0.0065
86487W        W23981  12.320  31.643   0.669  0.1723  0.0785  0.0475
86488W        W23982  25.090  24.911  25.534  0.2120  0.0624  0.3839
86489W        W23983  22.932   3.980   6.383  0.1892 -0.2481  0.2041
86490W        W23984  26.084  27.408  22.394 -0.4255  0.2831  0.1744
86491W        W23985  16.651  12.132  10.595  0.2346 -0.3602 -0.1204
86492W        W23986   9.962   4.365   0.242 -0.1478 -0.1490 -0.0980
86493W        W23987  11.254  18.832   6.300 -0.0057  0.0887 -0.1827
86494W        W23988  18.815  35.289  22.546  0.2071  0.1633  0.1266
86495W        W23989  13.039  19.399   2.337  0.0603 -0.0270 -0.0175
86496W        W23990  35.342  10.848  24.539  0.0034 -0.0129  0.0232
86497W        W23991  12.215  31.215   4.822  0.0293 -0.0572 -0.0211
86498W        W23992  23.513  34.819  14.000 -0.0557 -0.3371 -0.5957
86499W        W23993  24.969  14.109  25.764 -0.0428  0.2545  0.2618
86500W        W23994  26.148  27.588   0.466 -0.0633 -0.1121 -0.1047
86501W        W23995  29.922  33.384  17.345 -0.2696  0.0605 -0.1827
86502W        W23996  18.050   0.385  22.503  0.1367 -0.2136 -0.1170
86503W        W23997  20.000  30.539   3.740 -0.0403 -0.0800 -0.1365
86504W        W23998  12.765  31.441   9.071 -0.0645 -0.0407 -0.2618
86505W        W23999  25.519  24.141  22.011  0.2999 -0.0759  0.1217
86506W        W24000   3.914  34.144  18.116  0.0153  0.0390  0.1845
86507W        W24001   2.807  12.231   4.304  0.1735  0.1500  0.1191
86508W        W24002  30.926   1.493  24.167  0.2342 -0.1636 -0.2580
86509W        W24003   5.323   2.398   2.584  0.0373 -0.0476  0.1287
86510W        W24004  23.847  32.686   1.420 -0.3112  0.1664  0.0188
86511W        W24005  32.538  27.665  17.110  0.1333  0.0556  0.0546
86512W        W24006  16.299  22.364   4.195  0.0229  0.0565 -0.3406
86513W        W24007   1.811  14.346  18.230 -0.1301  0.2334 -0.1289
86514W        W24008  26.010   4.512  18.416  0.4347  0.4012  0.1328
86515W        W24009  27.315   0.227  14.525  0.1322  0.0847 -0.0162
86516W        W24010   2.225  32.052  22.519 -0.0734  0.1571 -0.0046
86517W        W24011  27.342  11.945  19.616  0.1824 -0.2300 -0.0759
86518W        W24012   5.609  18.213  21.681  0.5230  0.3521  0.4436
86519W        W24013  34.583  31.862   1.030  0.0312 -0.1756  0.0923
86520W        W24014  11.630  20.200   8.247 -0.0694 -0.1811  0.1042
86521W        W24015  30.463   0.767  19.133  0.0236  0.4189 -0.1509
86522W        W24016   2.043  30.016  18.510  0.1381 -0.3347 -0.0730
86523W        W24017   7.001  13.210  18.804 -0.1590 -0.0715  0.3080
86524W        W24018  25.680  29.214  20.033 -0.3900  0.3372 -0.0788
86525W        W24019  24.133  26.881  20.605 -0.1473 -0.0509 -0.0995
86526W        W24020  20.159   9.755  22.951  0.0765 -0.1197 -0.0071
86527W        W24021   4.036  24.000  24.047 -0.1849  0.1492  0.0579
86528W        W24022  28.193  17.087  19.163 -0.0982  0.2669  0.1860
86529W        W24023  10.041  25.019   9.828 -0.2627  0.1515 -0.1347
86530W        W24024  22.927  30.535  20.355  0.5270  0.0880  0.0485
86531W        W24025  12.654  22.714  13.657  0.0189 -0.3280  0.2483
86532W        W24026   0.472   3.972  12.388  0.0559 -0.1949 -0.3286
86533W        W24027  23.429   3.782   5.688 -0.0937 -0.0823  0.2434
86534W        W24028  24.249  35.217   4.021  0.0729  0.0491 -0.0838
86535W        W24029  13.648   5.470  11.750  0.3274 -0.2016 -0.1199
86536W        W24030  21.843  31.621  14.936 -0.3138 -0.4033 -0.0589
86537W        W24031  30.419  33.493  21.145 -0.2542 -0.0796  0.1401
86538W        W24032  18.949  32.066   0.961  0.0403 -0.0597  0.3026
86539W        W24033   5.546   3.026  24.727  0.1377 -0.1637 -0.2040
86540W        W24034  22.530   7.898  15.347  0.0566 -0.0659 -0.1656
86541W        W24035   0.562  13.838  11.799  0.3570  0.2078  0.2851
86542W        W24036  15.678  22.477  25.713  0.1933 -0.0701  0.1298
86543W        W24037  12.704  15.339  25.689 -0.5905 -0.3459  0.0067
86544W        W24038  16.214   2.708  21.015 -0.0436 -0.0984 -0.2159
86545W        W24039   6.787   0.889   3.897 -0.0227 -0.1530 -0.0000
86546W        W24040   9.322  30.400   0.380  0.0356  0.1429  0.1698
86547W        W24041   1.640  21.750  25.905  0.0881 -0.1076  0.1839
86548W        W24042  19.127   3.878   8.094 -0.1113 -0.0702  0.1240
86549W        W24043  28.768  10.386  18.873  0.0819 -0.3056 -0.1202
86550W        W24044  15.201   3.750   2.318 -0.0056 -0.2053  0.1454
86551W        W24045  33.236  25.209   1.933 -0.0365 -0.0006  0.0425
86552W        W24046   6.840   6.298  24.687 -0.0430 -0.2210 -0.0352
86553W        W24047  27.996  12.589  10.463  0.0398  0.1613  0.2971
86554W        W24048  21.810   3.747  23.104  0.0779  0.3398  0.2357
86555W        W24049  23.103   5.056   0.929 -0.1958 -0.1893 -0.0729
86556W        W24050  17.717  26.591   3.758  0.2396 -0.2210  0.0879
86557W        W24051  29.707  19.814  19.954  0.0472  0.0556 -0.1590
86558W        W24052  21.626  13.248   3.188  0.0805 -0.0748 -0.0816
86559W        W24053  30.397  24.001  18.692 -0.1191 -0.1808  0.1800
86560W        W24054  13.739  34.082  25.770 -0.2321 -0.0870  0.0816
86561W        W24055  10.962  10.205  20.996 -0.0602 -0.1357  0.1861
86562W        W24056  29.820   5.913   2.518  0.0849  0.1229  0.0435
86563W        W24057  18.751  16.748   9.520 -0.0304  0.0742 -0.0674
86564W        W24058  28.168  15.313  23.395 -0.0064  0.0103  0.1861
86565W        W24059  10.373  31.692  21.995  0.1169  0.2908  0.0216
86566W        W24060  24.336   2.234  15.779 -0.0828 -0.0129 -0.2879
86567W        W24061  28.382  29.442  23.400 -0.2315 -0.0453  0.0437
86568W        W24062  32.254   4.243   0.675  0.0117  0.2053  0.2767
86569W        W24063  32.510  34.159   0.981 -0.0640  0.0015  0.4045
86570W        W24064   2.174   4.560  17.443  0.0028  0.3005 -0.1315
86571W        W24065  30.020  13.631  16.562 -0.0645 -0.2190 -0.2084
86572W        W24066  17.914   9.065   2.776  0.0394 -0.2789 -0.1126
86573W        W24067  32.603  35.144   2.896 -0.0399 -0.1946 -0.2501
86574W        W24068   5.181  23.099  20.753  0.0344 -0.2159 -0.1883
86575W        W24069  24.938  26.920  18.067  0.1851  0.3918  0.3851
86576W        W24070   5.678   4.359   3.639 -0.0027  0.2240 -0.1621
86577W        W24071  12.645  29.408   9.500 -0.0709 -0.0243  0.1615
86578W        W24072  31.715  12.428  15.534  0.1521  0.1068 -0.0579
86579W        W24073  26.601  10.832   0.759  0.2630  0.0221  0.2745
86580W        W24074   1.454  33.169  21.580  0.0130 -0.0723  0.1294
86581W        W24075  11.271  34.899  23.047  0.2741 -0.1906 -0.0114
86582W        W24076  14.541   7.282   5.950  0.1983 -0.1940 -0.2845
86583W        W24077  10.857  16.903  12.128  0.0435 -0.1415 -0.0077
86584W        W24078  34.218  17.598  14.750  0.2335 -0.2048 -0.1669
86585W        W24079  18.066  13.044   6.771  0.0313  0.2240  0.1396
86586W        W24080   7.311   7.064  12.810  0.1851  0.0812 -0.0192
86587W        W24081  13.550  10.112   7.471 -0.1321 -0.0538  0.2889
86588W        W24082  10.827  25.661  17.153  0.1547  0.1691 -0.0283
86589W        W24083  23.854  13.370   1.084 -0.0710  0.3140 -0.0064
86590W        W24084  12.049  21.874  24.934 -0.1552  0.1570  0.1806
86591W        W24085  20.922  20.053   4.187 -0.0946 -0.2333 -0.1350
86592W        W24086  28.972  30.281  12.875 -0.2877 -0.1630  0.0726
86593W        W24087   4.703   0.912  25.072 -0.3547  0.0977 -0.0802
86594W        W24088   5.941  30.347   4.480  0.2746  0.2318  0.0889
86595W        W24089  15.822  14.107  19.792 -0.1570  0.1406  0.0005
86596W        W24090  15.729  12.255  13.276  0.4733  0.1038  0.5393
86597W        W24091  15.691  11.879  20.788  0.0099  0.0204 -0.2861
86598W        W24092  33.821  12.675  11.753  0.0505  0.0153  0.3825
86599W        W24093  14.107   9.255   1.337  0.2364 -0.1118 -0.1941
86600W        W24094  32.254  11.641  15.929  0.1765 -0.0049  0.0269
86601W        W24095   6.860  22.317   6.076 -0.0040  0.2264  0.0218
86602W        W24096  16.737   3.469  25.305 -0.2252 -0.1622  0.0922
86603W        W24097  28.402  11.112  26.212 -0.0353  0.2398  0.0422
86604W        W24098  28.652  23.710  24.458  0.1241  0.0114 -0.1648
86605W        W24099  13.870  15.614  21.363 -0.0344 -0.1313 -0.2969
86606W        W24100  31.086   8.833  20.626  0.0020 -0.0631 -0.1932
86607W        W24101  17.260  23.199   5.695  0.1729  0.0841 -0.1045
86608W        W24102  21.316   0.180   8.815  0.1012 -0.1470 -0.1786
86609W        W24103   2.203  29.051   9.593  0.0794 -0.3316  0.0076
86610W        W24104  25.737  33.208  10.539 -0.2405 -0.0737 -0.0556
86611W        W24105  19.525  21.729   3.327 -0.3888  0.0255 -0.0027
86612W        W24106  33.135  34.315  14.710 -0.0452  0.0677 -0.1887
86613W        W24107  11.016  33.801   5.671 -0.0272 -0.0078  0.0292
86614W        W24108  23.025  14.813  15.163 -0.1421 -0.2061  0.1263
86615W        W24109   4.606  22.135  22.113 -0.3269  0.2965 -0.1227
86616W        W24110  33.013   7.042  26.047 -0.2221 -0.2557  0.2050
86617W        W24111  19.327   2.718   7.306  0.1117  0.3435 -0.0480
86618W        W24112  14.867  26.821  11.911  0.1359 -0.1819 -0.1427
86619W        W24113  33.756   9.256  11.916 -0.0408 -0.4150  0.1442
86620W        W24114  19.345  32.429  17.252  0.1104  0.3893 -0.0300
86621W        W24115  17.933  17.671   6.454  0.3856  0.1486 -0.1987
86622W        W24116  13.822  11.372   8.821 -0.3432  0.0647 -0.0345
86623W        W24117  19.274  25.777  21.676 -0.0242  0.0910 -0.2542
86624W        W24118  18.120   3.873   2.280 -0.1190  0.2914  0.1558
86625W        W24119  17.272  24.338  25.725  0.0154  0.0584 -0.0407
86626W        W24120  27.419   9.440  11.553  0.0090 -0.1814 -0.0220
86627W        W24121  27.440   1.634   6.075 -0.0079 -0.0453  0.2749
86628W        W24122  23.229   7.502  15.108 -0.0307 -0.1787 -0.0918
86629W        W24123  21.854   6.439  16.833  0.1187 -0.2137  0.1342
86630W        W24124   9.211  22.570   7.785 -0.0552  0.1015 -0.0598
86631W        W24125   2.535   6.168  18.515  0.4866  0.1924  0.0884
86632W        W24126  15.018  17.928  12.079 -0.1499 -0.1630  0.0075
86633W        W24127   1.085  22.014  24.859 -0.1788 -0.1174  0.0190
86634W        W24128   5.115  10.408   4.050 -0.1299 -0.2534 -0.2551
86635W        W24129  15.987  18.077  22.603 -0.2330  0.2247  0.1463
86636W        W24130   4.992  18.252   1.687  0.0126 -0.1030 -0.1020
86637W        W24131  17.178   2.207   8.765  0.1053  0.0817  0.1365
86638W        W24132   5.449  19.133  22.289 -0.0715 -0.1225  0.1542
86639W        W24133  12.791  21.176   4.602  0.0312  0.1109 -0.1967
86640W        W24134  12.674   2.483  24.836 -0.1118 -0.0845  0.3024
86641W        W24135   1.206   1.777   4.161  0.0869  0.2365  0.3266
86642W        W24136  25.543  34.421  20.589 -0.0697  0.0097 -0.0528
86643W        W24137  21.481   5.971   0.102 -0.0701 -0.1974 -0.7849
86644W        W24138  11.015  20.113   3.038  0.2338  0.1996  0.1393
86645W        W24139   5.834  28.356   1.438 -0.2730  0.2293  0.2289
86646W        W24140   9.048   1.150   7.591 -0.0722 -0.0710  0.2704
86647W        W24141  15.467   6.395  23.748  0.1855  0.0519 -0.2124
86648W        W24142  20.619  24.914  20.440  0.0127 -0.0709  0.1922
86649W        W24143  30.413  14.259  22.729 -0.0551 -0.1551 -0.2475
86650W        W24144  24.039  10.695  24.068  0.0170 -0.0880  0.4078
86651W        W24145  31.095  18.878  25.232  0.1441  0.2801 -0.3517
86652W        W24146   8.717  21.537  12.991 -0.1360  0.2063 -0.1130
86653W        W24147  28.269  10.643   9.433  0.1899  0.1998  0.2451
86654W        W24148  32.593   6.519  19.200  0.1058  0.0735 -0.1518
86655W        W24149  21.589   5.097   2.833 -0.0333  0.1662 -0.0824
86656W        W24150  33.737  32.161  17.087 -0.2589 -0.3384  0.0472
86657W        W24151   1.442   6.672  21.266 -0.0897 -0.3845 -0.0431
86658W        W24152  29.442  11.433  16.953 -0.0834 -0.0037 -0.1799
86659W        W24153  28.803  16.094   6.883 -0.0325  0.0862 -0.0335
86660W        W24154   0.155  14.393  10.089  0.1275  0.2734 -0.3638
86661W        W24155  26.426  10.477  18.282 -0.0850 -0.1106 -0.0459
86662W        W24156  14.115  10.003  23.115 -0.2911  0.1724 -0.1727
86663W        W24157  21.012   7.443  18.639 -0.0447 -0.2329  0.4767
86664W        W24158  18.780  20.545   3.629 -0.2061  0.0275  0.0098
86665W        W24159  29.251  11.578  19.165 -0.0716  0.0077 -0.1125
86666W        W24160  31.260   4.605   0.908  0.0801  0.1966 -0.1565
86667W        W24161  23.112   9.449  23.392  0.1960 -0.0334 -0.0465
86668W        W24162  24.547  13.633  14.057  0.0324 -0.0510 -0.3107
86669W        W24163   8.481  11.425  12.801  0.1414 -0.1642  0.0731
86670W        W24164   3.744  21.585  17.910  0.1434  0.1126  0.0367
86671W        W24165  31.678  18.261   7.523  0.0019  0.1246 -0.1428
86672W        W24166  17.977   0.551   5.344  0.2979  0.2667 -0.1636
86673W        W24167  13.709  17.540   9.669 -0.0758  0.3100 -0.0311
86674W        W24168   5.733  23.189   3.190 -0.0929  0.1557 -0.5076
86675W        W24169  11.442  29.029  13.854 -0.0023 -0.2132 -0.0342
86676W        W24170  33.293  23.211   9.778 -0.3150 -0.0148 -0.1354
86677W        W24171  14.351   6.761  12.713 -0.0583 -0.1334 -0.1102
86678W        W24172   3.290  17.122   2.092  0.1190 -0.0599  0.2196
86679W        W24173  28.131   2.619  14.830 -0.1699 -0.0963 -0.1558
86680W        W24174  26.601  23.470   0.068 -0.1427 -0.0967  0.0157
86681W        W24175  32.767  34.229  21.014 -0.1372  0.2077 -0.2607
86682W        W24176  28.665   4.275  25.277  0.2010 -0.1793 -0.5071
86683W        W24177  20.835  30.204  19.125 -0.1544  0.0060  0.2635
86684W        W24178   5.182  30.284  13.406 -0.0582 -0.0464  0.1911
86685W        W24179  32.012   2.128  11.456  0.2804 -0.1838 -0.0196
86686W        W24180  35.044   3.224  14.551  0.2383 -0.4372  0.1997
86687W        W24181   7.074  23.492  23.305  0.0748  0.0819 -0.0760
86688W        W24182   0.956  24.339  14.481  0.1693  0.0331  0.0035
86689W        W24183  35.159  17.505  12.982 -0.4004 -0.1610 -0.0605
86690W        W24184  32.993  25.987  20.863  0.0025 -0.0048 -0.3129
86691W        W24185  10.053   2.016  22.086  0.1010  0.0711 -0.0717
86692W        W24186  20.786  30.639  15.923  0.1771  0.2304  0.1165
86693W        W24187  23.565  15.859  25.189  0.0389  0.1066 -0.0600
86694W        W24188   9.368  28.875  11.884 -0.0440 -0.1025 -0.0611
86695W        W24189  14.547  24.618   1.376  0.1759 -0.3066  0.1767
86696W        W24190   8.058  26.134  25.147  0.1425  0.0477 -0.1520
86697W        W24191  28.992  30.202  16.088  0.1645  0.1249 -0.0257
86698W        W24192  10.678  17.614   4.468 -0.1040  0.0789  0.0089
86699W        W24193  18.015   2.867   8.724  0.1268 -0.1662  0.3066
86700W        W24194  32.236  27.603  13.016 -0.3945 -0.0911  0.1039
86701W        W24195  24.786   4.766  24.610  0.1057 -0.2495  0.1018
86702W        W24196  24.287  13.342   0.060  0.2320  0.0426  0.0059
86703W        W24197   3.549   0.291  20.034  0.3233  0.1014  0.3009
86704W        W24198  10.116   2.556   3.964 -0.1707  0.0760 -0.0303
86705W        W24199  13.490   8.107   8.400 -0.0419 -0.2111 -0.0594
86706W        W24200  27.388   2.969   4.357  0.1091  0.1989 -0.4338
86707W        W24201  22.802   9.122   3.025 -0.1400 -0.0023 -0.0741
86708W        W24202   6.651  28.939   2.227  0.1385  0.2051  0.1906
86709W        W24203   6.524  18.622   5.341  0.2405  0.1105  0.0048
86710W        W24204  35.058  21.682  25.841  0.0043  0.1014  0.0540
86711W        W24205  19.125   2.958   4.746 -0.1545 -0.0339  0.0772
86712W        W24206  24.844  29.895   3.294  0.2455  0.1790 -0.0228
86713W        W24207  10.302  35.383   2.592 -0.1114  0.2414  0.0791
86714W        W24208  20.647  27.239  21.730 -0.0456  0.0551 -0.0933
86715W        W24209  20.648  31.092   5.316  0.0373  0.0544  0.1965
86716W        W24210  27.678  28.491   3.311  0.1864  0.3091 -0.1378
86717W        W24211  29.758  33.580   3.434 -0.2325  0.1634 -0.0946
86718W        W24212  16.450  29.382  25.912 -0.2836  0.2351  0.0435
86719W        W24213   2.938  29.577   4.071  0.0491  0.2080  0.0904
86720W        W24214   6.141   1.587  10.443 -0.0884 -0.1378 -0.0988
86721W        W24215  32.818  31.366   0.509  0.3132  0.2434  0.2432
86722W        W24216  14.118  11.820  23.511  0.2725  0.0122  0.3001
86723W        W24217  15.006   2.702  22.097 -0.2750  0.2571  0.0210
86724W        W24218  15.685  17.765  23.853 -0.3867 -0.0931 -0.1906
86725W        W24219  18.018  11.753  18.833  0.1081  0.1349 -0.2474
86726W        W24220  22.417  18.843  19.869 -0.2177  0.2619  0.2132
86727W        W24221  24.218  24.984  15.275  0.1889 -0.1128 -0.0748
86728W        W24222   5.448   8.762   2.184 -0.1066 -0.1084 -0.0148
86729W        W24223  33.755   4.097  22.120 -0.0865 -0.0004  0.0008
86730W        W24224  21.172  14.760   6.073 -0.0726 -0.2506 -0.0048
86731W        W24225  20.819  34.217  25.480 -0.1414 -0.1525  0.1545
86732W        W24226   3.879   8.156   2.512 -0.0423 -0.3453 -0.1804
86733W        W24227   5.016  16.212  18.133 -0.1240 -0.5905  0.0985
86734W        W24228  23.913  31.265  12.955 -0.1830  0.0092  0.2666
86735W        W24229  20.864  33.667  19.923 -0.1360  0.0186 -0.0766
86736W        W24230   3.405  16.910  25.957  0.0156 -0.1940  0.0494
86737W        W24231  17.812  35.283   4.858 -0.2290  0.0900 -0.0581
86738W        W24232   2.586   3.478   8.671 -0.0483 -0.1332  0.1074
86739W        W24233  13.789   0.490  25.335  0.0648 -0.1544  0.0079
86740W        W24234  22.469  25.443  19.082  0.0998  0.1112  0.0971
86741W        W24235   1.411  28.392   3.350 -0.0049 -0.1967  0.4499
86742W        W24236   6.807  34.901   5.235 -0.2820  0.1040  0.3041
86743W        W24237  31.353   5.715  12.636  0.0038 -0.1196  0.3492
86744W        W24238   9.708  28.200  13.152 -0.0777 -0.0036 -0.2329
86745W        W24239  27.072  23.742  23.684  0.0057 -0.0626  0.0588
86746W        W24240  13.664   1.885   3.437  0.1348 -0.0038 -0.1963
86747W        W24241  16.750  11.566   5.515  0.4933 -0.2157  0.1579
86748W        W24242  30.176   9.159  19.424  0.1427 -0.4283 -0.1520
86749W        W24243   6.349   3.663  26.177  0.0459  0.2036 -0.1399
86750W        W24244  24.742   7.544  12.267 -0.0459 -0.2651 -0.0627
86751W        W24245  29.703  25.137  14.473 -0.1227 -0.2602 -0.1095
86752W        W24246   9.618  15.143  18.237 -0.3127  0.1281  0.2829
86753W        W24247  10.555  34.732  25.191 -0.0210  0.0873 -0.0979
86754W        W24248  35.059  11.383  18.822  0.2330 -0.1850 -0.1441
86755W        W24249  12.099  13.967   3.210 -0.3448 -0.2714 -0.1179
86756W        W24250   7.852  21.179  24.296  0.0778  0.1391  0.2479
86757W        W24251  18.436  32.719   4.076 -0.1324  0.0121 -0.3463
86758W        W24252  19.949  13.980  24.297 -0.1011 -0.0583 -0.0171
86759W        W24253   9.890   7.969  20.134  0.1801 -0.0482  0.0634
86760W        W24254  13.356  15.488  20.808 -0.1953  0.0745  0.0558
86761W        W24255  21.645   3.923   4.370  0.1170  0.4030 -0.0801
86762W        W24256  25.031  27.847  17.006  0.1578  0.2039  0.0747
86763W        W24257  19.822   3.547  23.447 -0.0372 -0.1274  0.1140
86764W        W24258   4.497  22.537   1.553 -0.2417 -0.1977  0.0262
86765W        W24259  15.998  34.136  20.058 -0.1184  0.0314  0.4198
86766W        W24260  33.627   1.697  25.828 -0.0126 -0.0544 -0.2017
86767W        W24261  17.756  12.204  11.575  0.3130 -0.2611 -0.0724
86768W        W24262  33.293   1.517   0.857 -0.0730 -0.0243 -0.0757
86769W        W24263  21.108   8.107  16.482  0.4034 -0.2254 -0.0772
86770W        W24264  22.438  34.084  14.147  0.1705 -0.1726 -0.0702
86771W        W24265  32.916  11.946  16.222  0.1064  0.0942 -0.4002
86772W        W24266   5.924  20.886  22.529  0.0413 -0.3018  0.0144
86773W        W24267  30.661  11.828  25.712  0.4793 -0.0361 -0.0937
86774W        W24268  10.257   7.628   0.645 -0.3416  0.2614  0.1744
86775W        W24269  33.612  24.750  25.669  0.2440  0.1659 -0.1547
86776W        W24270  24.442  30.385  16.823 -0.0213 -0.0951 -0.0351
86777W        W24271   8.699  34.148  22.118 -0.1135 -0.1672 -0.1573
86778W        W24272  20.070  35.353  21.151 -0.0914  0.2235 -0.0877
86779W        W24273  22.821  31.617   3.282  0.1023  0.0962 -0.2539
86780W        W24274  13.085   6.463   9.533  0.2164 -0.1539 -0.0030
86781W        W24275  23.546  33.759  23.175  0.0027  0.0874  0.3729
86782W        W24276  10.692  16.363   3.533  0.3289 -0.2538 -0.3588
86783W        W24277  18.435  26.480  25.319 -0.0685  0.1224 -0.1695
86784W        W24278  22.426   6.979  15.798  0.0472  0.0552 -0.0880
86785W        W24279  14.380  35.191   9.549 -0.1257 -0.0101  0.1258
86786W        W24280   4.394  25.371   0.628  0.0946  0.0683  0.1225
86787W        W24281  32.752   8.697  12.334  0.1878 -0.1800 -0.1320
86788W        W24282  31.714  27.936  14.942 -0.3088 -0.0667 -0.0621
86789W        W24283  29.821  29.590  25.129 -0.1620 -0.0201 -0.2421
86790W        W24284   6.199  14.428   7.030  0.1475 -0.0744  0.2384
86791W        W24285   8.210  21.319   6.973 -0.1903 -0.1306 -0.0944
86792W        W24286  10.948   6.588  11.932  0.1057 -0.2266 -0.2772
86793W        W24287  16.891   8.705  11.095  0.0787  0.2087 -0.4487
86794W        W24288  12.173  25.625  14.803 -0.4406 -0.2857 -0.0600
86795W        W24289  34.309  16.273  23.597 -0.2151  0.1832 -0.2518
86796W        W24290  12.072  17.664   2.516 -0.0781  0.1058  0.0992
86797W        W24291  13.640   1.338   1.693 -0.0633  0.0865 -0.1418
86798W        W24292  35.280  11.395   0.686  0.2839  0.0332 -0.1067
86799W        W24293   8.392  24.373  13.657 -0.0694 -0.0524 -0.2544
86800W        W24294  16.380  26.600  12.465 -0.0102  0.2093  0.0262
86801W        W24295   3.701  32.004  12.858 -0.0962 -0.1576  0.0278
86802W        W24296  29.951  25.850  19.834 -0.0812  0.0288 -0.2163
86803W        W24297  16.691  19.827  11.791  0.0609  0.0502  0.1699
86804W        W24298  22.687  13.412  19.023  0.4238 -0.3198  0.1692
86805W        W24299   5.328  17.353  17.886 -0.1409 -0.0558 -0.0288
86806W        W24300  34.951  18.235   0.080 -0.2012  0.3666  0.0561
86807W        W24301   3.954   5.979   5.745 -0.1263  0.1313 -0.0906
86808W        W24302  27.398   7.260   0.914  0.1056 -0.0469  0.3053
86809W        W24303   0.695  15.968  25.440  0.4905  0.1907  0.3336
86810W        W24304  18.908  28.866  22.206  0.0410  0.1342 -0.2055
86811W        W24305   2.326  14.015  24.405  0.0516  0.0469 -0.3329
86812W        W24306  10.615  15.338  12.002  0.4131  0.2880 -0.1060
86813W        W24307  16.027  11.943  23.489 -0.3111  0.0266 -0.1508
86814W        W24308  15.578   4.250   8.447  0.0585  0.2527  0.0536
86815W        W24309  28.731  10.268  19.685 -0.0464  0.2401 -0.1716
86816W        W24310  18.973  24.755  20.217  0.0864  0.2709  0.2021
86817W        W24311  33.924   2.758  13.701  0.0338 -0.0775  0.0036
86818W        W24312  19.178  32.508   4.176 -0.1699  0.3428 -0.1087
86819W        W24313   3.962  19.849  17.385 -0.0159 -0.2736  0.0184
86820W        W24314   4.769  10.580   3.705  0.2183  0.0814  0.0072
86821W        W24315  15.267  20.032  24.144  0.1628 -0.1840 -0.1105
86822W        W24316   8.814   3.847  10.985  0.1950 -0.1459  0.1387
86823W        W24317  31.299  22.435  24.809 -0.0258  0.0710 -0.0335
86824W        W24318  21.426  32.266  23.057 -0.3245 -0.0757 -0.0756
86825W        W24319  22.424  20.745   1.798 -0.1615  0.2069  0.1854
86826W        W24320  30.886  20.411  15.509  0.3279 -0.3331 -0.0277
86827W        W24321  14.326  22.316   5.583  0.1497  0.1438  0.0100
86828W        W24322   2.058  14.047  21.807  0.0130 -0.0648  0.0172
86829W        W24323  16.863   8.313  26.041  0.1776 -0.0049 -0.0620
86830W        W24324  31.392  34.667  25.738 -0.1100  0.0826  0.0582
86831W        W24325  33.965  24.035   9.563 -0.1028  0.0367 -0.0595
86832W        W24326  31.084  23.115   9.589 -0.0605 -0.1971 -0.3798
86833W        W24327   8.175   9.402  24.392  0.3228  0.1076  0.1000
86834W        W24328  19.740   9.728   4.892 -0.1903  0.1944  0.0943
86835W        W24329  11.154  31.190   2.425  0.0024 -0.1693 -0.1147
86836W        W24330  30.503  16.005   7.459 -0.1626  0.0821  0.2818
86837W        W24331  32.388  12.987  10.403 -0.1085  0.0912 -0.1104
86838W        W24332  24.253  19.257  15.143  0.1324  0.1437  0.1612
86839W        W24333  34.861   9.265   0.898  0.2252 -0.1732 -0.2755
86840W        W24334  16.788  20.417  12.522  0.1264  0.1421  0.1257
86841W        W24335   2.289   7.368  19.598 -0.0012 -0.0769  0.1801
86842W        W24336  14.162  25.268  12.762  0.1985 -0.1666 -0.0657
86843W        W24337   6.219   4.396  19.640  0.6541 -0.1214  0.2854
86844W        W24338   6.238  22.260   2.808  0.0646  0.2352  0.1797
86845W        W24339  12.112  25.775  10.511 -0.0080  0.1661  0.2677
86846W        W24340  14.483   1.525  25.974  0.1755  0.1956 -0.0461
86847W        W24341   1.082  25.118   3.459 -0.2179 -0.3761  0.0713
86848W        W24342  34.968   3.828   4.535 -0.0977 -0.0874  0.0069
86849W        W24343  26.172  19.840  19.408 -0.0953  0.0211  0.1192
86850W        W24344  20.509  13.856   4.644  0.0309 -0.0601 -0.1389
86851W        W24345  17.518   8.547   4.942  0.0276  0.3823 -0.1197
86852W        W24346   6.034  31.307   4.518  0.0054 -0.1418  0.2077
86853W        W24347  15.359  11.648  24.061 -0.0364  0.2580  0.0115
86854W        W24348  31.981  22.953  13.899  0.0214 -0.1849  0.1735
86855W        W24349   7.020   6.973   4.266  0.2074 -0.1977 -0.4574
86856W        W24350  32.330  30.028  13.676 -0.2858  0.2054  0.0526
86857W        W24351  18.250  11.451  10.397 -0.2056 -0.2198  0.3072
86858W        W24352  21.796   3.493  18.771 -0.0306  0.1922 -0.1213
86859W        W24353   5.138  25.925   3.848 -0.1910  0.0081  0.0934
86860W        W24354  30.339  21.590   7.542  0.0356  0.0298 -0.2708
86861W        W24355   7.397   1.771  22.135  0.0431  0.0801 -0.0789
86862W        W24356  20.299  33.148  20.861 -0.3982  0.2376 -0.0101
86863W        W24357  10.568  29.134   4.585 -0.1287  0.0076  0.1693
86864W        W24358  21.867  14.100  19.089 -0.1665  0.4283  0.1736
86865W        W24359  12.309  18.229  20.616  0.0369  0.0705 -0.0323
86866W        W24360  13.084  11.488  21.192 -0.0031 -0.0239  0.1865
86867W        W24361  10.649  31.148  13.157 -0.0376  0.2346 -0.0709
86868W        W24362  12.933  25.648   7.619  0.1560 -0.2693  0.1245
86869W        W24363  13.039  10.089  12.372  0.1552  0.0527  0.0009
86870W        W24364  30.160  29.372  25.836 -0.1611  0.0066 -0.0694
86871W        W24365  18.669  26.158   8.385  0.3529 -0.1845  0.0268
86872W        W24366  11.611   1.133  12.799  0.1652 -0.1843 -0.2247
86873W        W24367  33.327  12.242  23.559 -0.1652  0.0469  0.0052
86874W        W24368  25.809  21.413  21.681  0.1336 -0.1494  0.1204
86875W        W24369  32.837  35.059  19.390 -0.0732  0.0381  0.0674
86876W        W24370  25.929  14.053  13.433  0.1408 -0.0978  0.3715
86877W        W24371   2.244   9.477   4.464 -0.1155 -0.0668  0.1978
86878W        W24372  33.012   6.682   5.277 -0.1797  0.1575  0.0896
86879W        W24373  12.159  19.122  24.603  0.0105 -0.2383 -0.2543
86880W        W24374  23.525   2.313  14.854  0.0558 -0.0656 -0.0646
86881W        W24375  20.446  31.292  14.494  0.0377  0.3129  0.0924
86882W        W24376  15.242  19.670  23.198 -0.0932  0.0991  0.0469
86883W        W24377   8.241  14.121   3.445 -0.0970  0.1242  0.1283
86884W        W24378  25.774  14.948  21.313 -0.0124  0.0841 -0.0970
86885W        W24379  12.622  18.679   6.519 -0.2942  0.0239 -0.4080
86886W        W24380  30.656  19.769  24.282 -0.2717  0.1455  0.1151
86887W        W24381  16.407  18.789   0.535 -0.1464 -0.0903  0.1908
86888W        W24382  16.702  34.373   7.288 -0.0177  0.1701  0.0707
86889W        W24383  29.480  29.983  24.443  0.1333  0.2329  0.2054
86890W        W24384  26.840  27.390  26.058 -0.1742 -0.0691  0.0362
86891W        W24385  19.699   0.116   6.273 -0.1664 -0.0571 -0.1630
86892W        W24386  35.039   3.698   2.911 -0.0904 -0.1154 -0.0602
86893W        W24387   6.938   3.972  10.484 -0.0520  0.0528 -0.3752
86894W        W24388  16.380  25.600  25.687 -0.2037  0.0184  0.0716
86895W        W24389  19.353  32.948  19.349 -0.1256 -0.0782  0.1336
86896W        W24390  19.026  23.396   1.539 -0.0239  0.0116  0.0439
86897W        W24391  15.538  23.791  24.340 -0.2473  0.0288  0.0177
86898W        W24392  12.676  15.418   5.683 -0.3046 -0.3141  0.4005
86899W        W24393  14.693  14.850   9.382  0.1020 -0.3423 -0.3837
86900W        W24394  35.128   4.860  21.068 -0.2760  0.0883 -0.0446
86901W        W24395   9.974  24.183   5.530  0.3077  0.1932  0.1035
86902W        W24396  28.317  24.218  18.438  0.1161 -0.2006 -0.1540
86903W        W24397  34.369   7.649   1.875  0.1844  0.0662 -0.1864
86904W        W24398  21.181  19.677  23.264 -0.3048  0.1002  0.0239
86905W        W24399  28.748  11.044  20.845  0.2434  0.1276 -0.2516
86906W        W24400  16.765  12.851   0.136  0.0953 -0.0130 -0.0822
86907W        W24401   8.325  16.638   1.552  0.2434  0.1798  0.0136
86908W        W24402  10.526  20.643   7.919 -0.0773 -0.0926 -0.1901
86909W        W24403   9.945  28.365   9.258  0.1082  0.4236  0.1528
86910W        W24404  20.638  34.145   2.706  0.4376 -0.0109  0.1593
86911W        W24405   9.488  35.228  12.594  0.2755  0.1827  0.1306
86912W        W24406  15.513  34.221   3.379  0.3276  0.1322  0.4162
86913W        W24407   7.686  24.270   5.908  0.0808  0.0366 -0.2214
86914W        W24408  28.068  26.577  13.938 -0.2052 -0.0133  0.0846
86915W        W24409   1.301   6.717   2.380  0.0812 -0.0843 -0.2162
86916W        W24410  27.069  32.664   2.849  0.1805  0.1012 -0.0796
86917W        W24411  12.892  16.573   8.602 -0.0838  0.2709  0.0374
86918W        W24412  23.037   2.089   3.093  0.1919  0.0685 -0.1046
86919W        W24413  28.355  25.217  16.159 -0.2051 -0.2807  0.0893
86920W        W24414  17.407   5.209   8.915 -0.2224 -0.0686 -0.2337
86921W        W24415  14.021   7.584  22.216 -0.2237  0.2622 -0.0929
86922W        W24416  13.112  19.530  21.878  0.2326  0.1740 -0.0268
86923W        W24417  31.645   1.336   2.566 -0.0948  0.1315  0.1194
86924W        W24418  27.393  27.993  17.845 -0.0645  0.0442  0.1915
86925W        W24419  28.911   6.446  12.303 -0.2364  0.0587 -0.3016
86926W        W24420   2.755  29.144   2.675  0.0266 -0.0503  0.2554
86927W        W24421  15.241   4.200  20.451 -0.0351  0.1016 -0.1463
86928W        W24422  11.763   9.045  10.898 -0.0308  0.2568  0.0287
86929W        W24423  18.736   7.334  25.301  0.0919 -0.0200 -0.3427
86930W        W24424   9.855  16.085   4.282 -0.3006 -0.1264  0.1585
86931W        W24425   7.350  33.384  25.519  0.0816 -0.0073  0.0943
86932W        W24426  33.112  33.777  21.629 -0.1101  0.3375 -0.4260
86933W        W24427  15.889  18.152  26.236  0.2076  0.1550  0.1397
86934W        W24428  19.005  29.069  25.183 -0.0004  0.1829 -0.0405
86935W        W24429  33.945  34.846  19.762 -0.0449 -0.2372 -0.2249
86936W        W24430  22.864  23.852  23.233 -0.1438  0.0962  0.0373
86937W        W24431  13.264  13.872  12.740  0.0291  0.0463  0.0703
86938W        W24432  25.152  23.771  11.839  0.1342  0.3489 -0.0492
86939W        W24433  16.001   0.225   8.920  0.1013 -0.0863 -0.3979
86940W        W24434  15.271   9.276   5.249 -0.1472  0.1054 -0.0773
86941W        W24435   9.748  19.209  24.276  0.1103 -0.1107 -0.0123
86942W        W24436  10.314  17.912   3.604  0.0042  0.0568  0.1399
86943W        W24437  13.418  12.196  12.812 -0.1885 -0.2727  0.0046
86944W        W24438  12.099  35.323  23.454  0.2415  0.0365  0.1467
86945W        W24439  12.294  29.634   3.486  0.0850  0.1785  0.0679
86946W        W24440  29.755  33.458   5.456  0.1700 -0.1560 -0.0300
86947W        W24441  30.475  23.714   9.623  0.0126 -0.0347  0.0712
86948W        W24442  27.980  22.814  18.324  0.3982  0.2251 -0.0790
86949W        W24443  12.975  31.154  22.312 -0.3599 -0.1442 -0.0163
86950W        W24444  31.611   6.949  24.208  0.2286  0.0515 -0.3159
86951W        W24445   7.549   8.779  23.776 -0.0457  0.1455 -0.1367
86952W        W24446  19.930   1.545   4.552 -0.0840  0.1094 -0.1494
86953W        W24447  20.801   1.147  26.249 -0.0292  0.1137 -0.2125
86954W        W24448  11.101  26.253  15.670  0.0694 -0.0741 -0.0445
86955W        W24449   3.279  15.394  15.544  0.0347  0.0987 -0.2175
86956W        W24450  26.734  21.369  17.388  0.0016 -0.1760 -0.0962
86957W        W24451  27.170  34.364  25.986 -0.1993 -0.1266  0.1649
86958W        W24452  13.035  31.151   8.591 -0.0720 -0.0196 -0.0798
86959W        W24453  27.973  19.086  22.629  0.0231  0.1090 -0.1431
86960W        W24454  28.261  23.703  18.762 -0.2155 -0.2665  0.1357
86961W        W24455  35.370   1.246   5.044  0.0233  0.3273  0.0907
86962W        W24456   0.841  17.987  13.611 -0.2262  0.0594  0.1784
86963W        W24457   8.131   4.900  25.797  0.0786  0.0628 -0.0427
86964W        W24458  13.844  14.053   6.852 -0.2761  0.3211 -0.2889
86965W        W24459  18.603  25.654   8.773  0.2867 -0.0995  0.1468
86966W        W24460  11.112   8.239   3.680  0.2240 -0.0334 -0.1827
86967W        W24461  31.458  33.321  16.879  0.0030 -0.0856 -0.4632
86968W        W24462  24.710  17.029  12.812 -0.1032 -0.0459 -0.0113
86969W        W24463  16.002  20.865   7.442 -0.2129  0.1083 -0.3136
86970W        W24464  19.494   1.905   4.784  0.0456  0.0792  0.0296
86971W        W24465  27.983   1.979  13.677  0.0386 -0.2609 -0.0508
86972W        W24466  23.170  22.518  22.684  0.1554 -0.2229 -0.0883
86973W        W24467  31.949  28.990  21.625  0.1496  0.2634  0.0654
86974W        W24468  12.591  13.507  13.842 -0.0654 -0.0724  0.3728
86975W        W24469  13.521  11.963  22.430 -0.3183  0.1388 -0.0635
86976W        W24470  22.342  32.624  16.792 -0.0441 -0.0396  0.3804
86977W        W24471  22.382  16.222  21.945  0.0287 -0.0645  0.0711
86978W        W24472   0.653   6.346  23.104  0.2537  0.1454 -0.4139
86979W        W24473  21.915  15.542  20.516 -0.0561 -0.0856 -0.0110
86980W        W24474  10.547  28.170  21.508 -0.1450 -0.0333 -0.1280
86981W        W24475  22.211   3.103  26.212  0.1900  0.1376 -0.0530
86982W        W24476   4.950  29.722  25.377 -0.3120 -0.1971 -0.1065
86983W        W24477  23.887  32.846  21.372 -0.2542 -0.1530  0.1051
86984W        W24478  12.721   4.591  12.314  0.1518 -0.0617 -0.0764
86985W        W24479  32.241  15.839   8.793 -0.3248  0.0120  0.0193
86986W        W24480   8.477  12.783  10.322  0.3446 -0.0219 -0.1797
86987W        W24481  23.093  15.051  18.948 -0.1129 -0.1192 -0.1548
86988W        W24482   7.537   2.470   2.962  0.0262 -0.2789 -0.2108
86989W        W24483  27.026  31.549  20.562 -0.0620 -0.2063 -0.1523
86990W        W24484   2.578   7.201   7.656  0.3858  0.0361 -0.0893
86991W        W24485  19.362   5.226   1.582 -0.2019  0.0997  0.1250
86992W        W24486  30.430  28.739  12.676  0.0660 -0.5393  0.1443
86993W        W24487  23.595  26.052  25.785 -0.0248  0.4197  0.0362
86994W        W24488  10.215  16.437   0.023 -0.3536  0.3081 -0.1772
86995W        W24489  33.086  33.856  20.838 -0.3894  0.1500 -0.0055
86996W        W24490  21.290  13.398  16.729  0.1418  0.1216 -0.0871
86997W        W24491  26.987  17.219  22.162  0.0921 -0.1876  0.3388
86998W        W24492  17.819   4.435  11.613 -0.1278  0.2911 -0.0813
86999W        W24493  16.664   5.677  11.996 -0.3014  0.0346  0.2883
87000W        W24494   0.253  18.511  18.550 -0.0668 -0.2443  0.2513
87001W        W24495  11.710   3.329  10.099 -0.2160 -0.1103  0.2893
87002W        W24496  18.200   6.051   1.464  0.2769 -0.0827 -0.0647
87003W        W24497  17.931  23.281  13.447 -0.3364  0.3657  0.1881
87004W        W24498  10.347  21.843  24.976  0.1550  0.1306  0.1342
87005W        W24499  20.586   3.971   0.099 -0.2190  0.3839 -0.0217
87006W        W24500  17.403  21.067   1.384  0.0836  0.1545  0.5082
87007W        W24501   8.761   1.830  11.592 -0.1243  0.0024 -0.1675
87008W        W24502  24.719  30.299  12.042  0.3065 -0.0093  0.1219
87009W        W24503  17.348   9.924   3.728 -0.1885  0.4069  0.1066
87010W        W24504  34.696   3.250   5.259 -0.1426 -0.6217 -0.1011
87011W        W24505  19.827  22.830   4.817 -0.0793  0.2356  0.0217
87012W        W24506   4.220  15.676   1.609  0.4385  0.1081 -0.6523
87013W        W24507  34.585  11.771  12.299 -0.1619 -0.0641 -0.3980
87014W        W24508   9.186  30.458  22.733 -0.0564 -0.0346 -0.2109
87015W        W24509  32.352  15.145  11.080  0.0114 -0.1012  0.0008
87016W        W24510  27.622   1.964   2.719  0.1716 -0.1527  0.2016
87017W        W24511  12.907   3.451   8.485 -0.0208 -0.0691  0.4448
87018W        W24512  34.466   5.954  15.685  0.2725  0.2365  0.3731
87019W        W24513   8.165   4.439   8.593 -0.1623  0.1135  0.4598
87020W        W24514  20.513  12.998   3.254 -0.1610 -0.3848  0.1076
87021W        W24515  24.520   9.816  21.186  0.0718 -0.3131  0.3058
87022W        W24516   5.909  21.816  24.734  0.2380 -0.4393 -0.0506
87023W        W24517  21.763  18.929   0.076 -0.1775  0.1930  0.4727
87024W        W24518  28.361   8.164  13.825  0.1545  0.3054  0.0753
87025W        W24519  32.134   6.551  16.203 -0.1639  0.1340 -0.1147
87026W        W24520  11.223  19.806   6.434  0.0895 -0.4729 -0.0017
87027W        W24521  13.360   7.210  24.092  0.2660  0.0301  0.0488
87028W        W24522  19.630  12.678   1.442  0.0421 -0.1474 -0.2012
87029W        W24523   7.178  30.725   3.226  0.0975 -0.0680  0.0597
87030W        W24524   2.660   4.608  22.397 -0.1206 -0.0779 -0.0992
87031W        W24525   9.033  16.305   6.483 -0.0683  0.5285 -0.2156
87032W        W24526   9.969  13.576  13.681  0.1879  0.0092  0.1487
87033W        W24527   0.908  18.335  16.536 -0.0217 -0.2783  0.0792
87034W        W24528  19.988  33.497  23.518 -0.2549 -0.3362 -0.0782
87035W        W24529   5.891  22.741  25.243  0.2345 -0.4833  0.0266
87036W        W24530   7.824   1.397  24.083 -0.5491 -0.1644 -0.1418
87037W        W24531  23.330   1.808   2.510  0.0399  0.1579 -0.0806
87038W        W24532  24.043  28.615  23.834  0.0166 -0.0254  0.0222
87039W        W24533  24.279  13.819  19.562 -0.0931  0.1612 -0.0735
87040W        W24534  26.365  15.108  18.105  0.1272 -0.0644  0.0386
87041W        W24535  19.815  33.041  20.564  0.1172  0.0126  0.2434
87042W        W24536   4.485  23.955   5.969 -0.1730 -0.1016  0.0326
87043W        W24537  28.668   3.116  21.803 -0.0503 -0.1991  0.0955
87044W        W24538   8.942  35.012   5.550  0.0403  0.1995 -0.1691
87045W        W24539  31.254   1.549  22.078  0.1769 -0.2144  0.1649
87046W        W24540  12.222   7.685  11.470 -0.1201 -0.0845  0.0714
87047W        W24541  33.191   8.285  17.399 -0.0128 -0.0147  0.3255
87048W        W24542   4.765   4.874  23.347 -0.1791  0.0547 -0.3544
87049W        W24543  21.463  33.156   4.208  0.1037 -0.2075 -0.2954
87050W        W24544  22.957  24.915  14.699  0.0160 -0.1746  0.1928
87051W        W24545   2.308   5.035  24.454 -0.0957 -0.0389 -0.0504
87052W        W24546  35.062   9.034  21.592 -0.1872  0.0047  0.1710
87053W        W24547  22.853  23.778  16.954  0.1497  0.1147  0.2298
87054W        W24548  31.578   9.200  11.551 -0.0392  0.0102  0.2217
87055W        W24549  31.480  35.125   4.929 -0.0174  0.1575 -0.3528
87056W        W24550   9.912  21.492  23.531  0.2367  0.4086  0.0665
87057W        W24551  26.089   8.233   0.085  0.0033  0.0113 -0.1738
87058W        W24552  18.571   3.473  22.550 -0.3300 -0.0317  0.3121
87059W        W24553  18.183  27.084  20.334 -0.1169  0.0339  0.1026
87060W        W24554  29.646   6.931   2.129 -0.1342  0.2616  0.2639
87061W        W24555  32.033  11.677  19.905  0.1972  0.0621 -0.3726
87062W        W24556  12.786   4.343  11.441 -0.2878 -0.0146 -0.1516
87063W        W24557   1.095  15.934  25.768 -0.2049  0.1512 -0.1097
87064W        W24558  18.372  11.094   5.424  0.2857  0.2859  0.0658
87065W        W24559  14.150   8.714  22.758 -0.0684  0.1276 -0.3405
87066W        W24560  25.743   5.949  14.627  0.2811  0.3663  0.1223
87067W        W24561   8.982  19.639   5.287  0.1703  0.0259  0.0538
87068W        W24562   0.240   2.565  23.027  0.0159 -0.0546  0.0940
87069W        W24563  17.217  17.588   3.262  0.1325  0.0074  0.2538
87070W        W24564  23.371   9.547  14.691 -0.2077 -0.3631  0.3199
87071W        W24565  33.973  26.795   3.862  0.1850 -0.0382  0.1854
87072W        W24566  15.067  18.017  12.594  0.2363  0.0877  0.1156
87073W        W24567  12.725  12.980   5.938 -0.1581 -0.3000 -0.3024
87074W        W24568  15.598   6.859  25.121 -0.3105 -0.1194 -0.1507
87075W        W24569  31.268  12.540  10.847 -0.0999  0.1268 -0.0374
87076W        W24570  28.015  11.898  24.957 -0.0639 -0.2734  0.1436
87077W        W24571   9.430  26.717  23.577  0.3169 -0.1259  0.2417
87078W        W24572  24.033   4.789  18.181  0.0150  0.2283 -0.1061
87079W        W24573   7.310  26.066   5.511 -0.1907 -0.2329  0.0080
87080W        W24574  32.895  16.734  24.593  0.0595  0.1165 -0.0541
87081W        W24575  11.758  29.021   6.753 -0.2276  0.0286  0.2615
87082W        W24576  10.310   2.407  23.782 -0.0894 -0.1390  0.2740
87083W        W24577  22.959  27.473   2.079 -0.1023 -0.2788  0.0588
87084W        W24578   5.450   0.625  22.051  0.3177 -0.1263 -0.0132
87085W        W24579   4.909  27.433  21.401  0.1267 -0.0140 -0.0241
87086W        W24580  31.674   2.765  14.767 -0.1091  0.4077 -0.0660
87087W        W24581   3.392  18.415  23.450 -0.0939 -0.1779 -0.1449
87088W        W24582   2.952   5.704  20.971  0.1902  0.0259  0.1159
87089W        W24583  13.365   5.472  26.168 -0.3386 -0.0220 -0.2204
87090W        W24584   7.930   6.428  18.389 -0.0062 -0.0626 -0.1287
87091W        W24585  29.759  17.841  14.530  0.1755 -0.2367  0.0711
87092W        W24586  19.615  11.371  24.752  0.0422 -0.0891  0.0035
87093W        W24587   6.723  34.303  22.782  0.1643 -0.1601  0.1279
87094W        W24588  25.756   6.125  15.551  0.0169 -0.2625 -0.1890
87095W        W24589  12.247  27.366  23.239  0.0963 -0.2283 -0.3280
87096W        W24590  26.127  10.939   8.669  0.2212  0.3834 -0.0414
87097W        W24591   7.847   0.923  24.323  0.1917  0.0362  0.3741
87098W        W24592   0.037   0.532  16.233 -0.3406 -0.1231  0.0576
87099W        W24593  21.256  20.182  23.441 -0.1729 -0.3785 -0.0140
87100W        W24594  18.121  23.473   4.391 -0.2787  0.0524 -0.2692
87101W        W24595  34.470  11.972  24.631 -0.1198 -0.0389  0.0714
87102W        W24596  24.510  27.693  18.274  0.1802  0.2100  0.0666
87103W        W24597  33.019   1.348  16.890  0.0085 -0.1017 -0.4381
87104W        W24598  13.728  16.182  21.302 -0.0759 -0.2908 -0.1765
87105W        W24599  19.630  34.869  18.358  0.0531  0.0594  0.0548
87106W        W24600  31.111   8.977   1.975  0.0796 -0.2071  0.0586
87107W        W24601  22.533   2.101  24.807 -0.2113  0.2028  0.0223
87108W        W24602   5.535  12.451  21.279  0.2072  0.2537  0.2464
87109W        W24603  20.352  11.839  24.287 -0.1016  0.0077  0.0307
87110W        W24604  14.516  32.394   5.468  0.1694 -0.0432  0.0852
87111W        W24605  33.963  32.895  15.645  0.0077  0.0028 -0.0590
87112W        W24606   7.321   5.421  20.608  0.0660  0.2346  0.0959
87113W        W24607   7.920  31.611  12.817 -0.1382  0.0304 -0.2612
87114W        W24608   2.845  30.815  25.436 -0.0006 -0.0411 -0.2661
87115W        W24609  13.098  17.480  24.592  0.1916  0.3203 -0.1711
87116W        W24610  17.389  19.404  21.838  0.3380 -0.1738  0.2461
87117W        W24611  27.727  22.014  12.693 -0.2423  0.0758  0.1754
87118W        W24612  19.667  12.776  20.116 -0.1219  0.0225 -0.0322
87119W        W24613  29.845   6.216  23.192  0.0260 -0.0525  0.0477
87120W        W24614  25.525  28.692  26.246 -0.1140 -0.3196 -0.1418
87121W        W24615  27.294  26.478  20.072 -0.1091  0.0753 -0.0262
87122W        W24616  29.526  34.308   0.895  0.1376 -0.1264  0.2333
87123W        W24617   1.671  31.360   9.689  0.0913  0.1462  0.2600
87124W        W24618  28.549   2.562  19.927 -0.2158  0.1220 -0.3502
87125W        W24619  19.710  15.351   3.222 -0.2871 -0.1456  0.3657
87126W        W24620  12.678  18.250  22.414 -0.1574  0.0535  0.1629
87127W        W24621  28.273  18.653  15.802  0.2478  0.1231  0.0179
87128W        W24622  27.603  10.278  23.224 -0.1278  0.2507  0.2444
87129W        W24623  20.458  29.263  25.455 -0.3045 -0.1555  0.2422
87130W        W24624  24.150   7.657   2.588 -0.0447  0.1917  0.2852
87131W        W24625  22.198   2.684  15.816 -0.0555 -0.0236  0.3341
87132W        W24626  27.790  16.742  10.622 -0.1281 -0.0809  0.1796
87133W        W24627   5.655   5.478   9.604 -0.2366 -0.1965 -0.0470
87134W        W24628   6.745   1.003   1.487  0.0090 -0.0720 -0.1280
87135W        W24629  22.298  24.838  16.722  0.2344 -0.3509  0.0417
87136W        W24630  32.078  29.279  14.657 -0.2246 -0.1504 -0.0418
87137W        W24631   9.319   2.311  21.408 -0.2441 -0.0581 -0.0317
87138W        W24632  17.595   0.829   5.617  0.0491 -0.1221 -0.2753
87139W        W24633  30.784  11.522  22.312  0.2615 -0.1468 -0.1673
87140W        W24634  28.670  26.279  16.602  0.0001  0.1258  0.0217
87141W        W24635  28.784  31.366  15.315  0.3050 -0.0275  0.0112
87142W        W24636  12.403  13.101  22.674 -0.0985 -0.1364  0.3498
87143W        W24637  34.356  12.966  13.390 -0.1544 -0.3225 -0.1316
87144W        W24638  33.944   4.624  21.276  0.1252 -0.2399  0.1096
87145W        W24639  15.566  16.046   4.724 -0.0285 -0.0630  0.0908
87146W        W24640  10.322  27.533  25.067  0.2134 -0.0324  0.3518
87147W        W24641  32.230  22.777  10.939 -0.1288 -0.1837  0.3417
87148W        W24642   3.902  28.391   2.788 -0.2480 -0.0972  0.1667
87149W        W24643  32.267  33.234  23.877 -0.0885 -0.2283 -0.0923
87150W        W24644  34.085   1.820  17.421  0.1290  0.0341 -0.4305
87151W        W24645   8.863   7.639  18.914 -0.0756  0.2824 -0.0649
87152W        W24646  31.826  11.911  12.273 -0.1675  0.1285 -0.1314
87153W        W24647   4.546   8.538  17.592 -0.1737 -0.2365  0.1166
87154W        W24648  18.715  13.315   1.736 -0.0729  0.0704 -0.3130
87155W        W24649   9.511   4.518  19.663 -0.3326  0.0174 -0.0961
87156W        W24650  34.905  29.808  16.879  0.0494  0.4565 -0.0343
87157W        W24651   5.114  15.027   3.758 -0.1862 -0.0721  0.1601
87158W        W24652   3.521  21.812  19.175  0.0651 -0.0737  0.0728
87159W        W24653  23.076   0.027  21.266  0.3191 -0.1826  0.3900
87160W        W24654   0.482  31.399   0.735 -0.1710 -0.1843 -0.4611
87161W        W24655  15.799   6.516   1.347 -0.4792  0.1002  0.0688
87162W        W24656  10.552  22.626  12.105  0.1217 -0.1819 -0.1036
87163W        W24657   6.072   2.562   0.134  0.1677 -0.2063  0.1852
87164W        W24658   9.656  32.686   1.088  0.1676 -0.0144 -0.0698
87165W        W24659  10.163  27.713   7.217 -0.5079 -0.0436  0.3338
87166W        W24660   5.659   2.455  26.225 -0.1834  0.2121  0.1997
87167W        W24661  16.957  30.932   2.977  0.0675  0.1536  0.3142
87168W        W24662   8.429   2.318   8.388  0.2353  0.0336  0.3568
87169W        W24663  28.486  23.610  25.493 -0.3212  0.1208 -0.3029
87170W        W24664  10.000  31.760   6.236 -0.2427 -0.3341  0.2310
87171W        W24665  31.426   7.090  19.163 -0.1869 -0.0839  0.2425
87172W        W24666  14.460  18.019  21.940  0.1519 -0.2183  0.3536
87173W        W24667   3.432   2.740  25.025  0.0477  0.2470 -0.1394
87174W        W24668  22.644  23.225   3.213  0.3859 -0.0700 -0.3119
87175W        W24669  20.295  29.667   1.698  0.2372 -0.0746  0.1121
87176W        W24670  30.098  34.530   4.708 -0.1620 -0.1308 -0.0336
87177W        W24671  27.570  20.148  16.769  0.1506  0.1761 -0.2212
87178W        W24672  28.449   8.569   9.219 -0.3446 -0.0003 -0.1688
87179W        W24673  20.565  16.401   0.300  0.0921  0.1267  0.1767
87180W        W24674  28.032  22.821  12.771  0.0323  0.3013  0.1570
87181W        W24675  17.284  25.354   7.369 -0.2089 -0.0710 -0.0491
87182W        W24676   8.761  28.671  13.697  0.0661  0.0268 -0.0454
87183W        W24677  15.473  14.114   5.261  0.2300  0.0086 -0.1967
87184W        W24678  25.432  19.715  22.851 -0.0380 -0.0447  0.2169
87185W        W24679  21.652   1.415   2.640 -0.1694  0.0062  0.2558
87186W        W24680  34.538  28.971  20.100  0.0601 -0.0587 -0.0916
87187W        W24681   9.952  32.169   0.205  0.1361  0.0215  0.0283
87188W        W24682   8.801  19.381   7.544  0.3268 -0.0665  0.2546
87189W        W24683   5.511  10.654  20.265  0.1157 -0.0427  0.0453
87190W        W24684  14.777   5.743   7.968 -0.0337  0.0879 -0.0098
87191W        W24685   9.837  31.200  25.763 -0.0263 -0.0602 -0.1743
87192W        W24686   7.181  23.014   4.793  0.1425  0.1232  0.0279
87193W        W24687  30.221  10.652  11.124 -0.2842 -0.1252 -0.0854
87194W        W24688  21.993  26.407   2.436  0.0965  0.2058  0.2553
87195W        W24689  25.004   6.123   1.447 -0.1598  0.2965 -0.3724
87196W        W24690   2.449  10.365  23.486 -0.1486  0.1486  0.2356
87197W        W24691  13.563  20.619   2.774  0.0794  0.0521  0.1198
87198W        W24692  24.703  35.225  17.060 -0.0499 -0.2750 -0.2133
87199W        W24693  30.071  15.892   6.504 -0.0679 -0.1328 -0.0661
87200W        W24694  21.891   4.401  20.802 -0.0996  0.0977  0.0716
87201W        W24695  12.797   3.664  18.844  0.1820 -0.1179 -0.2099
87202W        W24696  32.420  34.193   1.661 -0.1429 -0.1463  0.0064
87203W        W24697   6.601  15.827   7.518 -0.0614  0.5136 -0.1145
87204W        W24698  16.162  31.118  12.226  0.0508 -0.0722 -0.1257
87205W        W24699   1.094  20.970  20.313 -0.0426 -0.3327  0.6725
87206W        W24700  25.672   9.318   9.104  0.2216  0.0406 -0.2110
87207W        W24701  33.637  27.079  23.907 -0.0600 -0.1595 -0.0447
87208W        W24702  34.890  30.496  16.315  0.0698 -0.0234 -0.1822
87209W        W24703   5.098   1.525  20.344 -0.4221 -0.1909  0.0932
87210W        W24704  33.748   0.464   8.253 -0.0393  0.1574  0.1481
87211W        W24705  31.225  19.686  24.237  0.3217  0.0996  0.4086
87212W        W24706   5.517  23.455  26.001  0.4528 -0.0506  0.2132
87213W        W24707  22.549  22.735  24.097 -0.0421  0.0477 -0.2399
87214W        W24708  19.649   8.746  20.771 -0.2406 -0.0098 -0.0796
87215W        W24709  31.965   2.153  14.554 -0.0088 -0.1123 -0.2868
87216W        W24710   6.627  17.296  23.626  0.0505  0.3170 -0.0381
87217W        W24711  17.191  29.936  22.742  0.3066  0.1707 -0.0882
87218W        W24712  29.505  29.655   2.078  0.0559 -0.3891 -0.3395
87219W        W24713  30.458  28.850  15.319 -0.2261  0.0587  0.0767
87220W        W24714  28.072   1.675  15.434 -0.1441  0.2071 -0.4404
87221W        W24715   2.192  33.779   5.839  0.1846  0.1714 -0.3691
87222W        W24716  27.855  23.358   6.831  0.0583 -0.0652 -0.0614
87223W        W24717  13.204  32.379  11.545 -0.2457 -0.0291 -0.0263
87224W        W24718  21.007  29.837  14.912 -0.1833 -0.2823 -0.1724
87225W        W24719   1.619  31.072  19.649 -0.1075 -0.0063 -0.3442
87226W        W24720  12.657  32.980   3.363 -0.3524  0.1281 -0.3275
87227W        W24721  14.389   2.901  10.742  0.1373  0.0836 -0.3805
87228W        W24722  25.664  19.138  19.832  0.1100 -0.0141 -0.1394
87229W        W24723   0.959  30.633   3.003  0.2555  0.1189 -0.1203
87230W        W24724   8.691   9.349  26.015 -0.0477 -0.3363 -0.2883
87231W        W24725   1.554   2.806   2.958  0.0318  0.0872  0.0293
87232W        W24726  22.962  17.684  24.325 -0.1544  0.2399 -0.1003
87233W        W24727   8.399  24.764   5.611 -0.1372 -0.2051  0.0510
87234W        W24728   1.248  15.864   0.304 -0.1093  0.0702  0.2240
87235W        W24729  33.747  12.693  12.770 -0.0173  0.2842 -0.1042
87236W        W24730  12.822   4.795  21.965 -0.0480 -0.3674  0.0039
87237W        W24731  28.054  29.000  15.569 -0.3729 -0.1222 -0.1137
87238W        W24732  16.001  32.739   2.902  0.1617 -0.2115 -0.0790
87239W        W24733  22.260   9.440  23.512  0.3944 -0.0329  0.3254
87240W        W24734   2.445   3.008   2.425  0.1595 -0.1438  0.2056
87241W        W24735   1.402   6.710   0.850 -0.1579  0.2084 -0.3088
87242W        W24736  21.294  32.311  14.405  0.1406 -0.1523 -0.2614
87243W        W24737  22.100  25.109  16.329  0.0251 -0.1104 -0.1658
87244W        W24738  11.262   3.057  12.895 -0.2453 -0.0677  0.1523
87245W        W24739  34.483  11.611  19.588 -0.0479 -0.2087 -0.1373
87246W        W24740   2.220  23.356   0.670  0.1472 -0.2863 -0.0911
87247W        W24741  31.433  34.250  13.611 -0.0632  0.0376  0.0644
87248W        W24742  29.668  17.922   7.251  0.1799 -0.0957  0.1403
87249W        W24743  29.185  29.005   4.115  0.0140 -0.0135  0.0151
87250W        W24744  21.058   3.974   8.358  0.0193 -0.0432 -0.0966
87251W        W24745  34.363   2.378  23.447  0.3241 -0.0698  0.0654
87252W        W24746  19.069   4.626  25.468  0.0405  0.1897 -0.1078
87253W        W24747  14.700  28.268   5.134  0.0154 -0.1672 -0.1088
87254W        W24748  15.047   6.795  22.988 -0.4058 -0.1683  0.1494
87255W        W24749   6.777  23.908   6.628  0.0252  0.1091  0.0736
87256W        W24750  14.078  16.583  13.922  0.1116  0.0592  0.2775
87257W        W24751  31.948  29.534  25.763 -0.0026 -0.0495  0.0024
87258W        W24752  30.625  34.267  12.290  0.2008  0.3468 -0.0241
87259W        W24753  32.205  28.521  12.585  0.1406 -0.0155 -0.0385
87260W        W24754  10.161  17.307  24.855 -0.0325  0.2856  0.0758
87261W        W24755  10.642  29.261  15.491  0.1237 -0.0528  0.2900
87262W        W24756  27.757  16.910  10.020  0.0477  0.0804 -0.1467
87263W        W24757  11.957  32.629   2.964  0.3894  0.1800  0.0276
87264W        W24758   3.223  16.293  23.549 -0.2292  0.0517  0.1650
87265W        W24759   8.974  28.148   7.752 -0.5776 -0.0739  0.4276
87266W        W24760  20.469  25.608   7.597  0.0424  0.2715 -0.1406
87267W        W24761  23.198   7.225  23.128 -0.0461  0.0274  0.0792
87268W        W24762   4.474   7.052  17.147 -0.2618 -0.0966 -0.0035
87269W        W24763   7.030   1.046   8.543  0.1823 -0.0651 -0.4175
87270W        W24764  27.490  33.554  21.410  0.0270 -0.1228 -0.0485
87271W        W24765  16.320  11.863  11.760  0.2419  0.1431 -0.2079
87272W        W24766  30.626  23.723   7.993 -0.0614  0.0463 -0.1327
87273W        W24767  24.292  29.632   0.754  0.0600 -0.2005  0.1997
87274W        W24768  19.261  26.368   5.787  0.1141 -0.0503  0.0366
87275W        W24769   5.991  29.146  13.791  0.2315 -0.4295  0.0274
87276W        W24770  13.865   5.375  25.438  0.0768  0.0500  0.2518
87277W        W24771  23.507  20.169  23.311 -0.0752  0.1379  0.0027
87278W        W24772   5.456   0.542   0.760 -0.0442 -0.2172 -0.0864
87279W        W24773  21.668   7.240  21.737 -0.0210  0.1605  0.1136
87280W        W24774  26.929  34.783  10.939  0.0220 -0.1803 -0.3564
87281W        W24775  32.256  14.885   0.619  0.0620 -0.0506  0.0259
87282W        W24776  26.583  13.937  19.110 -0.1349  0.0377  0.1147
87283W        W24777  29.089  29.552  13.839  0.1550 -0.0953  0.0111
87284W        W24778  29.815  19.951  17.842 -0.0173 -0.0079  0.2511
87285W        W24779  27.805   9.755  18.288  0.1294  0.0321 -0.1532
87286W        W24780  12.647  28.144  24.696  0.0715  0.0825  0.0593
87287W        W24781   0.181  31.856  15.689  0.1671 -0.0639 -0.0459
87288W        W24782  28.603   1.227   1.085 -0.0143  0.0689 -0.1856
87289W        W24783  33.761  35.272  14.427  0.0989 -0.3944 -0.0456
87290W        W24784   5.306   9.327   1.600 -0.0859  0.1526 -0.2850
87291W        W24785  14.552   7.415  11.552 -0.0630 -0.0120 -0.3863
87292W        W24786   8.692  21.686   3.764  0.0553  0.2169  0.2524
87293W        W24787  10.446  32.225  13.983 -0.2749  0.0591  0.1318
87294W        W24788  22.735   1.478  24.346 -0.2745 -0.4281 -0.0365
87295W        W24789  13.779  32.330   5.292 -0.0968 -0.0639 -0.0293
87296W        W24790  15.867   6.083   0.936  0.0251 -0.2294  0.0904
87297W        W24791  28.453  12.764  13.200  0.2271 -0.1825  0.3817
87298W        W24792  22.635   3.550  25.380  0.0104  0.0312 -0.1178
87299W        W24793  20.120  14.027  17.353 -0.0154 -0.2446 -0.0650
87300W        W24794   0.751   8.020   1.560  0.1414  0.1661  0.0780
87301W        W24795  31.863  18.764  21.782  0.0588 -0.0140 -0.3349
87302W        W24796   9.588  26.669  16.147 -0.1340  0.1690  0.0170
87303W        W24797  24.853  17.286  11.888  0.2062 -0.2140  0.1085
87304W        W24798  31.729   5.382   4.393  0.0659 -0.0620 -0.2040
87305W        W24799  31.950  22.686   9.124  0.1119 -0.1305 -0.0840
87306W        W24800  23.959  33.364  23.452  0.2736  0.0241 -0.0849
87307W        W24801   2.831  13.201   1.078 -0.0361  0.0625  0.1391
87308W        W24802  11.523  20.471  25.359 -0.0794  0.0832  0.0006
87309W        W24803   0.386   2.343  18.444 -0.3422  0.1756 -0.1087
87310W        W24804  24.528  10.566  16.962 -0.1317  0.0321  0.0280
87311W        W24805  24.027  31.119  17.904 -0.0760 -0.1446  0.1028
87312W        W24806  25.747  21.895  26.063  0.0103  0.0010 -0.1335
87313W        W24807  23.482  24.981   1.549  0.0515  0.2082 -0.3430
87314W        W24808   0.612   8.482   2.162  0.1031  0.5162  0.0738
87315W        W24809  23.207  35.245   3.259  0.1567 -0.0350  0.0330
87316W        W24810  14.660  30.736   1.967  0.0653  0.0612  0.0203
87317W        W24811   4.926  18.498  19.998 -0.2168  0.2212 -0.1404
87318W        W24812  12.986   8.770   5.397  0.3362  0.0900  0.0682
87319W        W24813   0.930  28.575   6.722 -0.2130 -0.5075  0.3533
87320W        W24814  15.989   5.423  19.507 -0.0035  0.0991 -0.2647
87321W        W24815  33.002   6.575   1.416 -0.1877 -0.2650 -0.2291
87322W        W24816  30.235   8.709  24.269 -0.2258  0.0931 -0.1398
87323W        W24817  29.422   9.132  23.658  0.0033 -0.0255  0.0421
87324W        W24818   6.720   2.087   9.465  0.1554  0.1413  0.4081
87325W        W24819   0.586   0.901   5.832 -0.0947 -0.1636  0.1109
87326W        W24820  24.797  11.849  23.859  0.0507  0.0703  0.2008
87327W        W24821   2.143  30.378   1.797  0.2346 -0.2060  0.1530
87328W        W24822  13.322   1.338  20.119  0.4892 -0.0552  0.0681
87329W        W24823  10.245   3.626   0.260 -0.0722 -0.0878  0.3328
87330W        W24824  22.427   0.088   5.743  0.0688  0.2198  0.0161
87331W        W24825  24.183  25.328  13.272 -0.4134  0.0048 -0.0350
87332W        W24826   6.175   4.824   6.688 -0.1270  0.4163  0.1646
87333W        W24827  28.567  14.129  17.766 -0.1480 -0.0636  0.0210
87334W        W24828  34.281   4.382   4.044 -0.0543 -0.0391 -0.1084
87335W        W24829   1.489   9.332  15.181  0.0059 -0.0037 -0.3328
87336W        W24830  25.040   5.938  22.659 -0.0384  0.0665 -0.2662
87337W        W24831  21.406  17.311   1.087  0.3067 -0.4527 -0.0049
87338W        W24832  34.232  17.658  12.712 -0.0455  0.1583  0.0436
87339W        W24833  29.128  24.582  15.078  0.1057 -0.0244  0.0459
87340W        W24834  27.132  33.036  10.825 -0.0480  0.4062 -0.1627
87341W        W24835   9.760   5.260   0.032  0.1452 -0.0465 -0.1142
87342W        W24836  17.391  31.844  10.653  0.0154 -0.1413 -0.0643
87343W        W24837  24.584  27.047  12.288  0.1581  0.1270  0.1016
87344W        W24838  28.872   1.888   1.860 -0.0476  0.0656  0.2161
87345W        W24839  10.315   8.096  10.596 -0.3328  0.1754 -0.0140
87346W        W24840  31.003  32.842  22.633 -0.0838 -0.4322 -0.1093
87347W        W24841   9.968  11.250   4.806 -0.1356  0.1057  0.1187
87348W        W24842  24.076   9.734  24.398  0.1089  0.0042  0.0772
87349W        W24843  33.098  22.544  15.665  0.3324  0.1182 -0.1363
87350W        W24844  10.445  29.047  11.055 -0.0823 -0.1938 -0.1693
87351W        W24845  17.994   7.097  20.316  0.0023 -0.2211  0.0693
87352W        W24846   1.235  32.449   2.019  0.1165 -0.2460 -0.2835
87353W        W24847   8.940  10.767   8.313  0.2076  0.2346  0.0954
87354W        W24848  18.782  22.691  22.389  0.0879  0.0218 -0.0793
87355W        W24849   9.042   9.737  22.035 -0.0662 -0.1257  0.1795
87356W        W24850  22.788   9.721  21.782 -0.1771 -0.0810  0.1164
87357W        W24851  12.874  20.555   7.220 -0.1692 -0.0627  0.1093
87358W        W24852  11.890  30.616   2.247  0.2255 -0.0510  0.1725
87359W        W24853   3.766   1.221  23.976  0.0078 -0.2403  0.1998
87360W        W24854  15.175  11.496  10.512 -0.1347 -0.1986  0.1170
87361W        W24855   9.166  22.120   2.836 -0.0300  0.1383  0.2488
87362W        W24856  10.589  32.341   4.721 -0.1976  0.2670  0.1378
87363W        W24857   3.343   4.614  18.486  0.1077 -0.1309  0.0182
87364W        W24858   6.896  20.538  21.092  0.2127  0.1040  0.0852
87365W        W24859  27.688  16.934  11.793 -0.1458 -0.1902 -0.2612
87366W        W24860  19.131  17.868  24.004  0.0535 -0.0278 -0.0482
87367W        W24861  16.246  16.354   4.189  0.1005  0.2492 -0.1025
87368W        W24862  12.004  13.402  24.111 -0.0446 -0.1990 -0.1963
87369W        W24863   5.737  19.663   0.557 -0.0543 -0.1450 -0.0759
87370W        W24864   0.305   3.112  23.150 -0.1595  0.0147 -0.0079
87371W        W24865   9.066  17.116  20.555 -0.1437 -0.0479 -0.1806
87372W        W24866  22.865   5.467  20.725 -0.1188  0.0703  0.2055
87373W        W24867  29.007  18.477  21.578  0.0210  0.1736  0.0450
87374W        W24868   9.438  22.052   0.593  0.4570  0.1951  0.0114
87375W        W24869  13.929   1.958   2.017  0.1760  0.1016  0.0835
87376W        W24870  10.622  31.772  21.487 -0.1229  0.0159  0.0573
87377W        W24871   3.046  10.427  25.158 -0.0925  0.0176  0.0406
87378W        W24872  20.600  16.000  25.345 -0.2398  0.0202 -0.0892
87379W        W24873   8.783  11.172  21.078  0.0424 -0.1209  0.1935
87380W        W24874  24.849  26.811  19.011 -0.0648 -0.1633 -0.0376
87381W        W24875  12.071  34.045  14.892  0.1041  0.1209 -0.1156
87382W        W24876   4.634  22.143  23.158  0.0834  0.4300  0.2537
87383W        W24877  27.679   5.332  24.814 -0.1621  0.3915 -0.0799
87384W        W24878  23.094  26.923  19.445  0.1563 -0.1784 -0.0373
87385W        W24879  26.085  17.565  26.071 -0.4087  0.0007 -0.1086
87386W        W24880  21.340  33.131  21.653 -0.0420  0.1281  0.0539
87387W        W24881  13.714   8.324   5.519  0.1585 -0.2627 -0.2453
87388W        W24882  11.495  31.288  22.627  0.7002 -0.3436  0.0544
87389W        W24883  20.591  27.315   4.798 -0.0538 -0.0250 -0.0259
87390W        W24884  18.370   6.853  26.128  0.0136 -0.1592 -0.0146
87391W        W24885  33.482  17.999  19.392 -0.3455 -0.1432 -0.1926
87392W        W24886  34.160  20.862   8.592  0.1365  0.0610  0.0843
87393W        W24887  19.090  13.088   4.939 -0.2395  0.0027 -0.1500
87394W        W24888  21.011   5.778  20.597  0.1604  0.1865  0.0668
87395W        W24889   8.777   4.540  19.362 -0.1851  0.2139  0.1434
87396W        W24890  18.983  27.068  20.438 -0.3722  0.2957 -0.0378
87397W        W24891  23.430  32.902  13.080  0.1361  0.1519  0.1407
87398W        W24892  19.548   5.672  11.559  0.0922 -0.0796 -0.0382
87399W        W24893  28.996   6.619  22.414 -0.2865 -0.0507 -0.0415
87400W        W24894  26.619  20.838  16.338  0.0644 -0.1599 -0.0548
87401W        W24895  27.193  33.373  15.032 -0.1251  0.2521 -0.2284
87402W        W24896  20.295  17.755  19.679 -0.2169 -0.1682 -0.1122
87403W        W24897  25.684  23.916  13.607 -0.0592 -0.0489 -0.0949
87404W        W24898   9.560  28.744  11.429 -0.1509  0.1000 -0.2154
87405W        W24899  34.217  24.113  14.481  0.2952  0.1878  0.0028
87406W        W24900  31.867  23.726   0.450 -0.0631 -0.0467 -0.3979
87407W        W24901  17.637  25.632   2.754  0.1333 -0.2166  0.3078
87408W        W24902  28.659   5.737  19.167  0.0602  0.2749  0.0314
87409W        W24903   9.395  22.026  12.534  0.2431  0.2140 -0.2056
87410W        W24904   6.186  16.747  23.989 -0.1144 -0.1758  0.1580
87411W        W24905   1.331  30.597  23.690 -0.2063 -0.0714  0.2106
87412W        W24906  33.028  15.915  10.117  0.0037  0.0656 -0.3964
87413W        W24907  12.582   6.119   4.098 -0.3452 -0.2362  0.0728
87414W        W24908  29.499  18.749  10.031 -0.0054  0.2143  0.0938
87415W        W24909  11.894  30.124  13.245  0.0928  0.0053 -0.1696
87416W        W24910  16.241   6.809  18.304  0.1113  0.0056  0.0278
87417W        W24911   5.981  28.423   3.589  0.2490  0.0697 -0.2487
87418W        W24912   4.540  24.581  24.840  0.1192 -0.2281 -0.0802
87419W        W24913  11.493  21.102   9.234  0.0803 -0.2156 -0.0441
87420W        W24914  26.720  14.030   5.609 -0.1985 -0.0067 -0.1989
87421W        W24915  31.273  32.717  17.404  0.0007 -0.2403 -0.0822
87422W        W24916  10.327   6.109  13.039  0.3212 -0.0562 -0.2269
87423W        W24917  17.438  24.536   2.010 -0.1298  0.0280 -0.2652
87424W        W24918  13.346  14.911   0.409  0.1690 -0.0752  0.3432
87425W        W24919  24.495   4.766  19.204  0.1291  0.0588  0.1029
87426W        W24920  34.117   2.887  18.706 -0.0430 -0.0329 -0.0305
87427W        W24921  12.906  13.320  19.212  0.0910 -0.0406 -0.1183
87428W        W24922  19.481  29.647   7.131 -0.2211  0.3919  0.0752
87429W        W24923  18.409  12.220  22.745 -0.0024  0.0424 -0.0934
87430W        W24924  21.926   6.573   2.562  0.1148  0.0014 -0.1057
87431W        W24925  12.844  26.550   6.935 -0.1714  0.2997 -0.2559
87432W        W24926  19.324  32.581   3.326  0.1148 -0.1162 -0.2482
87433W        W24927  27.785  16.487  24.071  0.1576 -0.2310  0.1923
87434W        W24928  25.252  11.946  12.515  0.1600 -0.1574  0.0100
87435W        W24929  21.931  19.098  19.835  0.0589  0.1463 -0.1104
87436W        W24930   9.906   5.946  10.388 -0.0011  0.1208  0.3886
87437W        W24931   5.565   0.967   4.452 -0.3539 -0.0012  0.0326
87438W        W24932  19.818  22.316   1.536  0.2939 -0.2418  0.1120
87439W        W24933  22.321  23.234  20.398 -0.0447  0.2846 -0.1149
87440W        W24934   9.704   4.734  10.196 -0.3718  0.3859  0.0980
87441W        W24935  30.570  20.839   9.798  0.1887  0.1974 -0.2057
87442W        W24936  16.476  20.956  25.620 -0.1579 -0.0232 -0.1902
87443W        W24937   2.321  10.864  23.468 -0.0987  0.4532  0.0732
87444W        W24938  27.965  29.017  21.521  0.0399 -0.1535 -0.1133
87445W        W24939   2.062  19.208  18.546  0.0347  0.1604 -0.2409
87446W        W24940   7.937  15.428   2.639 -0.0273  0.1253 -0.0993
87447W        W24941  28.878  31.958  21.640 -0.0857 -0.2087 -0.1956
87448W        W24942  34.757   5.152   2.267  0.5733 -0.1699 -0.0698
87449W        W24943   4.164  29.027  19.883 -0.1551 -0.2981 -0.1835
87450W        W24944  27.286  10.833  21.004  0.1043 -0.1018 -0.3422
87451W        W24945   6.014  22.313   2.324 -0.2319  0.1487  0.1208
87452W        W24946  12.921   2.217  20.214 -0.2287 -0.5039 -0.0451
87453W        W24947   0.493  31.454  23.066  0.0770 -0.1999 -0.5049
87454W        W24948  31.768   9.740  19.609 -0.1758 -0.1639  0.0037
87455W        W24949  33.828  28.730   3.283  0.1162  0.2058  0.0023
87456W        W24950  15.745  11.456   3.670  0.1755  0.0091 -0.0561
87457W        W24951  27.106   1.284  20.321  0.2028 -0.1038  0.1802
87458W        W24952  34.743  23.054  15.687  0.1654 -0.0599  0.0943
87459W        W24953  25.349   4.400   5.023 -0.1482 -0.1326 -0.1027
87460W        W24954   9.819  17.251   5.345 -0.1409  0.0730  0.0231
87461W        W24955  16.845   4.071  20.473  0.2439  0.1739 -0.3506
87462W        W24956  10.156  10.905  20.643  0.0921  0.1758 -0.1675
87463W        W24957  17.028  20.295  13.429 -0.3443  0.1774  0.0193
87464W        W24958  15.880   6.272  12.387 -0.2476 -0.0354  0.0170
87465W        W24959  30.477   4.219   4.308 -0.0521 -0.0923 -0.1034
87466W        W24960  25.340  13.118  18.328  0.1348 -0.2397 -0.0064
87467W        W24961  35.144  17.380  10.230 -0.1723  0.2559  0.1306
87468W        W24962   1.630  20.560  17.945 -0.1299  0.0757  0.0695
87469W        W24963  27.913  34.927   1.709  0.0317 -0.1184  0.1172
87470W        W24964   3.724  22.638   3.317 -0.0154  0.1412  0.3129
87471W        W24965  16.182  33.122   9.058 -0.2900  0.2221 -0.1000
87472W        W24966  17.764   1.950   6.850  0.1454  0.2354  0.2113
87473W        W24967  30.686   1.776   5.796  0.1133 -0.1517  0.1212
87474W        W24968  11.572   4.325   8.268 -0.3092 -0.2462 -0.0927
87475W        W24969   9.957  15.695   6.980  0.0742 -0.0115  0.1377
87476W        W24970  14.252  14.852   4.056  0.1676  0.2831 -0.4258
87477W        W24971  13.429  27.258   6.229  0.0190 -0.1782 -0.0673
87478W        W24972   5.036  20.246   4.232 -0.4142  0.0878 -0.2238
87479W        W24973  10.750   5.219   9.965  0.0196 -0.4037  0.2842
87480W        W24974   3.457   8.276  23.375  0.2223 -0.0818  0.1428
87481W        W24975  15.863  13.407   1.488 -0.0168  0.0380 -0.2858
87482W        W24976   3.452  32.455  25.675 -0.0264  0.4313  0.0391
87483W        W24977  19.315   0.491  20.348 -0.0036 -0.1110 -0.0724
87484W        W24978   4.602  24.069  24.732 -0.0625 -0.1064  0.0499
87485W        W24979   9.290  14.780   8.962 -0.0626 -0.1316 -0.0173
87486W        W24980  12.638  33.775   9.420  0.1617  0.3180 -0.2319
87487W        W24981  18.099  24.741  10.455  0.1048 -0.1819 -0.2371
87488W        W24982  12.260   1.372   2.327  0.0143  0.2520  0.0403
87489W        W24983  12.626  24.259  13.113  0.1102  0.0438  0.0482
87490W        W24984  26.934  11.150  20.743  0.1158 -0.3018  0.1456
87491W        W24985   3.967   2.512   0.651  0.0149  0.2574 -0.0989
87492W        W24986  23.708  13.391   2.064 -0.3347 -0.0044 -0.0155
87493W        W24987  16.310   3.666   7.274  0.2744 -0.1600 -0.0280
87494W        W24988  18.167  34.361   0.655  0.2741  0.1457 -0.1136
87495W        W24989   9.859   9.113  23.897 -0.1304 -0.2602 -0.0623
87496W        W24990  16.328  31.207   6.842 -0.1795 -0.0717 -0.0929
87497W        W24991  11.341  19.197  13.597 -0.2374 -0.0766  0.2326
87498W        W24992   5.202  27.002   1.150  0.0979 -0.0715 -0.1342
87499W        W24993  25.007   0.818   0.682  0.0561  0.3662 -0.1400
87500W        W24994  17.761  34.594  25.847 -0.1411  0.0317 -0.2059
87501W        W24995  28.321  32.331  24.579 -0.0797 -0.5456 -0.0999
87502W        W24996  14.783  33.802  21.095  0.0906 -0.2955  0.2050
87503W        W24997   9.707   3.328   1.954 -0.2568 -0.0711  0.0890
87504W        W24998  28.162  16.431  18.859 -0.0656 -0.0334  0.2264
87505W        W24999  17.988  31.351   7.067  0.1443  0.1858  0.1385
87506W        W25000   6.341   6.743  21.590 -0.0431  0.3525 -0.1429
87507W        W25001  19.841   9.702   6.347  0.0584 -0.0629  0.1390
87508W        W25002  29.113  23.689  11.554 -0.0541 -0.2453 -0.2180
87509W        W25003  25.219  26.520   9.948  0.1130 -0.0947  0.2077
87510W        W25004  28.672  16.145  22.939 -0.1814 -0.0428  0.2809
87511W        W25005  28.814  10.501  14.791  0.1101 -0.0231 -0.2681
87512W        W25006  29.205  34.851  24.120 -0.2164  0.1535 -0.4698
87513W        W25007   1.043   4.348  17.262 -0.0644  0.0304  0.0010
87514W        W25008   8.953  27.206  14.264 -0.0510 -0.3456 -0.1362
87515W        W25009  23.026   5.241  17.089 -0.0157 -0.0713 -0.0649
87516W        W25010  29.311   5.467  19.595  0.0853  0.1281  0.0725
87517W        W25011  17.211  24.635   9.644 -0.1615 -0.2399  0.0086
87518W        W25012  34.758  27.716   0.039  0.1762 -0.1019 -0.1384
87519W        W25013  34.146   1.710  21.749 -0.1457  0.0816  0.0069
87520W        W25014  21.325  31.758  14.784 -0.1714  0.2370  0.3748
87521W        W25015  33.376  25.699   1.701  0.2400  0.1039 -0.1301
87522W        W25016   5.059   4.667   9.811 -0.0089 -0.1187  0.1688
87523W        W25017  22.666  20.139   1.683 -0.1055 -0.1967  0.1444
87524W        W25018  23.251  20.636  24.694 -0.0488 -0.2118  0.3517
87525W        W25019   9.538   5.813   9.941 -0.1642  0.1355 -0.0453
87526W        W25020   7.372  21.823  22.079 -0.0102 -0.1826  0.3005
87527W        W25021   2.212   5.735   6.051  0.0355  0.3314  0.2497
87528W        W25022  29.728  19.584  12.601  0.1214 -0.5386 -0.1126
87529W        W25023  26.630  23.802  25.967 -0.0835  0.0531 -0.2031
87530W        W25024   5.370  15.230  23.368 -0.3065  0.0137 -0.0702
87531W        W25025  16.548   8.587  21.325 -0.0429  0.0070 -0.1503
87532W        W25026  27.637  11.819  25.920 -0.3877  0.3029 -0.0645
87533W        W25027  26.598  14.902  18.961  0.3648 -0.2424  0.2657
87534W        W25028  10.758  33.191   0.055  0.0423 -0.0899 -0.1682
87535W        W25029  34.077  23.045  19.268  0.1685  0.0718 -0.3677
87536W        W25030  34.715  21.872  12.181  0.0972  0.0148 -0.2989
87537W        W25031  14.060  23.653  23.710 -0.5796 -0.3412 -0.2322
87538W        W25032   5.447  10.099   2.972 -0.1683 -0.1699 -0.1371
87539W        W25033  14.043  17.742  21.622  0.1353 -0.1036  0.1894
87540W        W25034  32.752  12.990  13.025  0.3938  0.0504 -0.4358
87541W        W25035   3.849  18.773  24.996 -0.2409  0.0976  0.1603
87542W        W25036  26.784  12.640  19.884 -0.0552 -0.1832 -0.0036
87543W        W25037  34.052  10.056  10.005  0.1610  0.1481  0.0779
87544W        W25038  18.237   9.163  12.589 -0.1093 -0.2371 -0.1761
87545W        W25039   7.548  15.359   8.606  0.2058  0.1988  0.1128
87546W        W25040   0.212  12.753  13.415  0.2302 -0.1218 -0.3658
87547W        W25041  17.582  35.247  15.687 -0.0400  0.1835  0.0120
87548W        W25042  33.636  25.757  15.239  0.0252  0.2611 -0.1031
87549W        W25043  31.918  29.441  12.832 -0.0586 -0.1217 -0.2722
87550W        W25044   2.967  28.889   3.477 -0.0679  0.0169  0.1238
87551W        W25045   7.359  11.994  24.801 -0.2189  0.0787  0.1433
87552W        W25046  15.904  20.498   7.154 -0.1478  0.0424  0.0654
87553W        W25047  20.587  34.751  25.913  0.0323  0.1315 -0.0507
87554W        W25048  12.551  12.879   7.878 -0.0502  0.2726 -0.0305
87555W        W25049  18.085  27.585  21.808  0.3022  0.0320  0.0761
87556W        W25050   9.339  14.165  18.166  0.0431  0.1180 -0.0518
87557W        W25051  17.587   8.833   4.420  0.0044  0.2419  0.0869
87558W        W25052   8.765   2.873  25.153 -0.1634 -0.1427  0.1745
87559W        W25053  10.427  19.940  25.130  0.0998  0.0218  0.1333
87560W        W25054  15.767  18.117   2.936 -0.1843 -0.2148  0.1592
87561W        W25055  31.949  11.694   5.879  0.0216 -0.3706 -0.1026
87562W        W25056  11.775  11.782  23.306  0.0588  0.0357 -0.1762
87563W        W25057   6.696   5.648  26.099 -0.1111  0.1552  0.0293
87564W        W25058  10.701   9.154  10.685  0.1171  0.2736 -0.1669
87565W        W25059   0.413   6.968   0.796  0.1558  0.0897 -0.1057
87566W        W25060  33.415  33.345  22.440  0.1059  0.0474 -0.1532
87567W        W25061   4.247  17.545   4.203  0.0651 -0.2090 -0.0408
87568W        W25062  27.862   3.007  10.986  0.1629 -0.1338  0.0278
87569W        W25063  28.871  17.965   5.715  0.3137  0.0668 -0.2220
87570W        W25064  15.133  22.893  13.243  0.0080 -0.0041 -0.0996
87571W        W25065  20.786  12.655  25.290  0.0929  0.3586 -0.0662
87572W        W25066  28.777  14.662  13.838 -0.3098 -0.0014  0.5381
87573W        W25067   3.822   4.758   6.926 -0.0607 -0.0633  0.2640
87574W        W25068  34.079   1.388  14.491  0.1745  0.1300  0.0499
87575W        W25069  16.856   9.073   8.068 -0.1085 -0.0232  0.1486
87576W        W25070  15.840  34.166   0.462 -0.1988  0.1037 -0.1456
87577W        W25071  10.179   1.684   0.259  0.3551  0.0086 -0.0723
87578W        W25072   8.570   9.896   3.908  0.2768 -0.1963 -0.3380
87579W        W25073  10.703  20.148  25.597  0.0972 -0.3132  0.0697
87580W        W25074  30.436  12.586  12.235 -0.0657 -0.1752 -0.1037
87581W        W25075  34.155   3.029   3.697 -0.1156 -0.0375 -0.1381
87582W        W25076  12.225  17.398  22.510  0.3563 -0.3885  0.1584
87583W        W25077  12.734  34.932  22.777 -0.0685 -0.2460 -0.0571
87584W        W25078  24.057  26.450  20.316 -0.0918 -0.0544  0.2518
87585W        W25079  20.647   7.079   1.723 -0.0785 -0.2926  0.0188
87586W        W25080  22.136   6.444  24.186  0.6782  0.0260  0.0447
87587W        W25081   8.174  18.188   4.967 -0.1817 -0.0470 -0.1134
87588W        W25082   5.672  21.193   1.030 -0.1198  0.2244  0.1451
87589W        W25083  28.488  18.893   7.989 -0.2166 -0.0618 -0.0843
87590W        W25084  33.099  34.519  22.393  0.1795  0.0026 -0.2877
87591W        W25085  23.857  24.226  19.558 -0.1454 -0.0401 -0.1695
87592W        W25086   7.241  27.655   2.580 -0.2165 -0.1712  0.1140
87593W        W25087   5.934  25.423  24.225  0.2320  0.2261 -0.1958
87594W        W25088   4.349  31.362  12.592  0.1649 -0.0634 -0.1278
87595W        W25089  13.314  19.235   3.435  0.0967 -0.1331  0.0096
87596W        W25090  32.805   8.522  11.483 -0.1877  0.0967 -0.0220
87597W        W25091  16.422  26.015  21.301  0.0978 -0.2033 -0.2511
87598W        W25092  17.166   1.919   8.328 -0.2279  0.0590  0.1157
87599W        W25093   2.493   3.262  19.266  0.1446 -0.1664 -0.3263
87600W        W25094  22.777  27.332  13.023  0.0206 -0.0060  0.0780
87601W        W25095  11.780   5.763  11.036  0.0420 -0.2117  0.0503
87602W        W25096   0.174  29.037  25.543  0.4494  0.1218 -0.1193
87603W        W25097  21.712  33.872  13.054 -0.2284 -0.0203  0.1808
87604W        W25098  11.421  10.301   9.699 -0.2342 -0.0391  0.0477
87605W        W25099  11.159   6.948   8.305 -0.4237  0.2170 -0.1940
87606W        W25100  11.565  12.775  25.404  0.1428  0.1190  0.0163
87607W        W25101  10.146  35.368   5.915 -0.0088  0.4207 -0.2944
87608W        W25102  28.574  29.245  24.664 -0.2023 -0.3864  0.0345
87609W        W25103  34.593  21.320   0.901  0.0672 -0.1531 -0.0981
87610W        W25104   2.614  31.391  24.382 -0.3449  0.0592 -0.1605
87611W        W25105  22.377  10.970  15.213 -0.3328  0.2451 -0.0997
87612W        W25106  22.065  24.925  21.548 -0.0202  0.1304  0.0133
87613W        W25107  27.357  26.126  21.622  0.2451 -0.2723 -0.4486
87614W        W25108   9.072   3.130  23.093  0.0244  0.1174 -0.1237
87615W        W25109  12.512  10.984   8.186 -0.0538 -0.0380  0.0300
87616W        W25110  12.456  29.208  15.768 -0.2498 -0.3261  0.1144
87617W        W25111  17.318  10.855  19.281 -0.0853 -0.0155  0.2424
87618W        W25112   1.655  28.104   0.743  0.4023 -0.2929 -0.0248
87619W        W25113  23.456  31.083  12.828  0.4201  0.1676  0.2584
87620W        W25114   1.552  14.781  17.536 -0.4189  0.0052  0.1828
87621W        W25115  14.363   5.410   5.251  0.3145 -0.0771  0.2273
87622W        W25116  13.010  27.039  26.023  0.1502 -0.1837 -0.3769
87623W        W25117   6.685  34.643   0.702 -0.0229  0.0483 -0.0985
87624W        W25118   3.904  29.932   5.732 -0.0972  0.1600  0.0088
87625W        W25119  11.961  30.747  13.513  0.2433  0.2623  0.2698
87626W        W25120  18.055  27.219   7.313 -0.1415 -0.0434 -0.1106
87627W        W25121   7.938  34.423   7.066 -0.0031  0.0829  0.2581
87628W        W25122   5.778   1.537  13.420 -0.1834  0.1152  0.0255
87629W        W25123   7.376   4.671  19.810 -0.0946 -0.1535  0.0404
87630W        W25124  15.809   8.906   7.728 -0.0989  0.1823  0.1555
87631W        W25125  12.728  28.101   3.538 -0.2399  0.1553  0.3463
87632W        W25126  10.648  15.251   9.387 -0.1261 -0.1807  0.0464
87633W        W25127   3.407  10.133   0.662  0.0589  0.0012 -0.1005
87634W        W25128  16.818  16.784   2.514  0.0916  0.1808 -0.0500
87635W        W25129   8.097  22.165   2.167 -0.0021  0.4731 -0.0965
87636W        W25130  31.653   0.822   0.899 -0.1775 -0.1947  0.1875
87637W        W25131  13.655  34.129  21.038  0.3182 -0.0270  0.5202
87638W        W25132  33.290   7.256  21.469 -0.2213  0.1775  0.3426
87639W        W25133  32.783  18.842  15.552  0.0666 -0.1473 -0.3094
87640W        W25134  11.632  28.635  16.476  0.0329  0.2601  0.0614
87641W        W25135  18.912  17.834   3.895 -0.0043 -0.2104  0.0071
87642W        W25136  20.227   5.505   3.879  0.1448  0.0597  0.1229
87643W        W25137  18.997  29.114  17.489  0.1550  0.1426  0.0181
87644W        W25138   6.305  21.195   2.175  0.1959 -0.3262  0.0026
87645W        W25139  27.472   1.663  11.710 -0.0416  0.0904 -0.1577
87646W        W25140  17.334   4.903  18.809 -0.1892 -0.3348 -0.0939
87647W        W25141  16.581  33.456   6.990  0.1143  0.0933 -0.2638
87648W        W25142  14.605  17.170   2.912 -0.1306 -0.0586  0.0997
87649W        W25143   4.437  14.105  25.727  0.1925  0.1586  0.0770
87650W        W25144  15.207  25.021  10.963  0.0953 -0.1866  0.1013
87651W        W25145  12.046  16.441  20.396  0.0097  0.1459  0.0678
87652W        W25146  25.439  25.665  21.277  0.1490 -0.1105 -0.2537
87653W        W25147   1.093  10.382   4.171  0.0878  0.0751  0.1175
87654W        W25148  18.766  33.506   4.902 -0.0112 -0.0260  0.1351
87655W        W25149  22.254   4.074  14.577 -0.1391 -0.0947 -0.1388
87656W        W25150   6.614   5.826   0.378  0.2239 -0.1761  0.0677
87657W        W25151  30.245  16.974  23.730 -0.3459  0.0371 -0.0589
87658W        W25152  19.813   3.925  22.038 -0.4018 -0.3568 -0.0129
87659W        W25153  26.207   8.942  11.459  0.3774 -0.0085 -0.1638
87660W        W25154  25.761  34.021  26.190  0.1989  0.2693 -0.0521
87661W        W25155  30.630  24.247  17.168 -0.2987  0.1440  0.0526
87662W        W25156   4.038  24.501   2.630 -0.0922 -0.0539  0.2458
87663W        W25157  28.323  26.514  21.209  0.2593  0.2819 -0.0470
87664W        W25158  25.074  15.943  24.374 -0.0769 -0.1749 -0.1017
87665W        W25159   5.291  21.357   0.039  0.1321 -0.1172 -0.5065
87666W        W25160  16.127   1.204  17.541  0.0924 -0.2739 -0.1782
87667W        W25161   3.219  22.718  17.318  0.1907 -0.1946  0.1348
87668W        W25162   8.488  29.338   2.316  0.2179  0.0301  0.1747
87669W        W25163  17.213  34.362   7.164 -0.0661 -0.1162 -0.0132
87670W        W25164  17.278  27.361  24.411  0.2745 -0.0025  0.1342
87671W        W25165  32.161  32.025  20.616  0.3009  0.2380 -0.0885
87672W        W25166   2.776   0.399   9.117  0.0123  0.0314  0.1817
87673W        W25167   0.775  15.724   9.664  0.1339  0.3732 -0.0014
87674W        W25168   1.991  15.624  17.551  0.1465 -0.0715 -0.0555
87675W        W25169   1.146  12.393  26.007 -0.0163 -0.2730 -0.5216
87676W        W25170  13.921  15.201   6.835 -0.0087 -0.1316  0.1489
87677W        W25171  13.557  27.550  11.013  0.2513  0.0023 -0.1558
87678W        W25172  30.480  28.685   1.982  0.1352 -0.1569 -0.1903
87679W        W25173  23.505   6.775   2.596  0.1340 -0.0987  0.0444
87680W        W25174   9.201  15.646   4.582 -0.2484  0.1375 -0.0566
87681W        W25175  25.779  32.534  13.434  0.2332 -0.1026  0.1660
87682W        W25176  12.442  30.424   2.023 -0.1181  0.1994  0.1024
87683W        W25177   1.545  24.911   1.000  0.3782 -0.2484 -0.1510
87684W        W25178  11.654  10.578   1.412 -0.1261 -0.3495 -0.0902
87685W        W25179   3.588  26.675   2.961 -0.4653  0.1125  0.1696
87686W        W25180  32.538  12.956  24.125  0.2918 -0.2398  0.1394
87687W        W25181  24.602   8.451  23.790  0.2235 -0.0634 -0.0637
87688W        W25182  19.207   1.554  18.555 -0.1169 -0.0367 -0.1780
87689W        W25183  15.311  12.743  11.967  0.2703 -0.0306 -0.1711
87690W        W25184  28.859  27.400  21.370  0.1114 -0.2562  0.0903
87691W        W25185  26.587   5.700  15.941  0.0548 -0.0025 -0.0877
87692W        W25186  23.403   2.914   7.610 -0.2923 -0.1424  0.3071
87693W        W25187   3.812  22.458   2.199  0.1315  0.1928  0.1618
87694W        W25188  10.263  34.982   4.496  0.0005 -0.2139 -0.1305
87695W        W25189  23.471  33.800  19.426 -0.0199 -0.4647  0.0323
87696W        W25190   4.472  35.096  22.344 -0.0153  0.5760 -0.5103
87697W        W25191  16.839  17.993   2.314  0.3114 -0.0539  0.2214
87698W        W25192  16.434   0.490   0.461  0.3477  0.3626 -0.0110
87699W        W25193   1.101  28.015  16.526 -0.3448  0.0148 -0.1392
87700W        W25194  14.866   6.913  23.447  0.4931 -0.0987 -0.1246
87701W        W25195  14.069   1.065  23.944  0.0039 -0.3017  0.1794
87702W        W25196  13.365  33.117  24.013 -0.1199  0.0981 -0.2454
87703W        W25197  24.633  18.869  16.477 -0.2239 -0.0790  0.0538
87704W        W25198  15.519  14.852   1.302  0.0677 -0.2313  0.0981
87705W        W25199   9.689  22.699   3.401  0.2110  0.3107 -0.0219
87706W        W25200  11.229  17.550  22.298 -0.4246 -0.0529  0.5689
87707W        W25201   8.614  12.720   5.265  0.2077  0.2321 -0.0645
87708W        W25202   6.206   9.240   5.844  0.0140  0.2273  0.1297
87709W        W25203   1.994   2.947   2.030  0.1315  0.0362 -0.0870
87710W        W25204  15.837   7.593   8.205  0.1109 -0.0892 -0.1580
87711W        W25205  22.567  22.158  21.370 -0.0277 -0.0600 -0.0015
87712W        W25206  27.037   9.463  19.565  0.1352  0.3179 -0.0541
87713W        W25207  30.989  24.944   0.352 -0.0612  0.1494 -0.0650
87714W        W25208  31.955   2.609   3.906 -0.0638 -0.1369 -0.1040
87715W        W25209  26.389  35.201  11.742  0.0843  0.1335  0.0916
87716W        W25210   7.852  23.538   7.944 -0.0653 -0.1831 -0.0875
87717W        W25211  16.436  20.817   2.936  0.2647  0.1244 -0.0401
87718W        W25212   3.525   6.332  21.780 -0.0543 -0.2872 -0.2515
87719W        W25213  13.611   8.985   8.578  0.1221 -0.2225 -0.1249
87720W        W25214   1.038  18.941   1.762  0.0016  0.1899 -0.2175
87721W        W25215   6.649   8.592   2.842 -0.0344 -0.1315 -0.0513
87722W        W25216  22.808  22.746  16.165  0.0871  0.2847 -0.0952
87723W        W25217  19.804  12.747   4.069 -0.1572 -0.1701 -0.2019
87724W        W25218  25.332  27.952  15.812  0.1710 -0.2307 -0.0889
87725W        W25219   8.234   8.093   0.098  0.0960 -0.0709 -0.1712
87726W        W25220   8.011  23.187  16.264  0.1862 -0.0262  0.1583
87727W        W25221  18.057  14.289   6.095  0.0081  0.1165  0.1847
87728W        W25222  33.193  19.328  24.125 -0.1404 -0.1058 -0.1897
87729W        W25223  26.144  27.231   3.338  0.3071 -0.1633 -0.3607
87730W        W25224   6.108  15.461   3.942  0.1399  0.0864  0.1642
87731W        W25225   5.037  33.859  25.058  0.0977 -0.1987  0.3027
87732W        W25226  18.621   8.012  20.073 -0.1774  0.0953 -0.0364
87733W        W25227  10.411  12.730  21.101 -0.0637  0.2316 -0.0712
87734W        W25228  32.674   3.380  25.432  0.1583 -0.0157  0.0788
87735W        W25229  10.086   4.677  20.946 -0.0080  0.0366  0.4592
87736W        W25230   5.040  18.752  23.934 -0.0505  0.2135  0.0405
87737W        W25231   2.900   2.398  24.557  0.0517 -0.1424 -0.2702
87738W        W25232   7.575  26.528   5.179  0.1627  0.0124  0.0885
87739W        W25233  15.487  24.299  16.418  0.3938 -0.3105  0.0387
87740W        W25234  34.313   7.500  25.693  0.1783 -0.1394 -0.0773
87741W        W25235  32.975  16.980   6.524  0.1500  0.0380  0.0011
87742W        W25236  19.991  11.726   0.116  0.2274  0.2372 -0.2530
87743W        W25237  18.000  13.638  25.741  0.0200  0.1671 -0.2289
87744W        W25238  10.325  13.174   1.508 -0.0095  0.0162  0.0699
87745W        W25239  17.989  31.158   6.542 -0.1256  0.0310 -0.0386
87746W        W25240  15.402  26.593   5.810 -0.2707  0.3269 -0.2858
87747W        W25241  29.558  31.989  17.531 -0.1568  0.0677  0.0025
87748W        W25242  14.594   9.818  20.403  0.1241 -0.1194 -0.0153
87749W        W25243   7.046  33.535  20.872 -0.2372  0.2198 -0.2915
87750W        W25244  33.659  18.924  14.478  0.2808 -0.2716  0.2215
87751W        W25245  24.789   7.311  14.608  0.0849 -0.1051 -0.2060
87752W        W25246  11.429   4.355   0.605 -0.0859  0.0191 -0.0791
87753W        W25247  16.152  20.024   5.388 -0.0715  0.2025 -0.0016
87754W        W25248  13.079   1.478  21.788  0.2094  0.3767 -0.0609
87755W        W25249  23.166  22.089  13.579  0.1421  0.4004 -0.1865
87756W        W25250   9.269   6.797  11.477 -0.0346 -0.1274  0.4095
87757W        W25251  30.501  28.388   4.595  0.1678  0.1076 -0.0810
87758W        W25252  34.392  13.388  19.512 -0.2226  0.2528 -0.1078
87759W        W25253   9.042   6.720  26.117 -0.0204 -0.0832  0.0919
87760W        W25254  16.322  26.885  12.864 -0.0406  0.2039  0.0952
87761W        W25255  16.415   1.098   0.171  0.1648 -0.3667 -0.0673
87762W        W25256   6.272  25.122  23.302  0.0321 -0.1779  0.1212
87763W        W25257   8.074   2.258   8.971 -0.0034 -0.0419  0.0212
87764W        W25258  18.979   9.777   8.857  0.0113 -0.2714  0.2734
87765W        W25259  30.206  19.180  21.490 -0.2990 -0.0155  0.0862
87766W        W25260   2.869  13.827  16.168  0.2820 -0.0499  0.0444
87767W        W25261  31.975   1.517  16.383  0.0168 -0.1071  0.1778
87768W        W25262  27.712   7.077   3.041  0.0632  0.0805 -0.0785
87769W        W25263  19.723  17.957  20.679  0.0571 -0.0692  0.0339
87770W        W25264  29.522  16.567  12.791  0.1553 -0.0125 -0.0416
87771W        W25265  26.685  30.769  18.379  0.1592 -0.0159 -0.1291
87772W        W25266  17.739   5.744   4.950  0.2586  0.2382 -0.1388
87773W        W25267  31.433  12.587  13.400  0.2030  0.2270  0.3392
87774W        W25268  19.075  29.643  22.755 -0.2428  0.2151 -0.1929
87775W        W25269  28.509   2.262   3.740  0.0918 -0.2120 -0.2317
87776W        W25270  28.713  13.922  15.152  0.3164 -0.0198 -0.0011
87777W        W25271  32.452   4.838  20.749 -0.1897  0.0041  0.0222
87778W        W25272  32.195  18.309  23.683 -0.1843  0.0642  0.2153
87779W        W25273  20.218  34.737  20.489 -0.1866 -0.1730 -0.0309
87780W        W25274   5.702   4.414  23.804  0.1592  0.0885  0.0983
87781W        W25275  27.339  16.350   7.674 -0.1191 -0.1019 -0.0444
87782W        W25276   2.719  29.791   6.498 -0.0712  0.2473 -0.1864
87783W        W25277  15.537  26.839  23.698 -0.2957 -0.4112  0.2554
87784W        W25278  23.035  13.696  17.537  0.0064  0.0915  0.0781
87785W        W25279  33.124  23.705  15.897  0.2022 -0.1257  0.0714
87786W        W25280   9.171  33.878   4.496 -0.0576 -0.2402  0.1928
87787W        W25281   9.414  14.582   5.238  0.1923  0.0514  0.0233
87788W        W25282  31.843  24.608  13.767  0.1716  0.2205 -0.1915
87789W        W25283  16.265   9.497  25.946  0.1423  0.1752  0.0915
87790W        W25284   5.685  25.821   6.311 -0.0958  0.1375  0.1196
87791W        W25285   1.815  34.565   3.955  0.1920 -0.0552  0.1246
87792W        W25286  14.293  34.289  11.541  0.2218 -0.2039  0.1927
87793W        W25287  11.681   6.138  13.909 -0.4229  0.1018 -0.0797
87794W        W25288   0.192   9.849  13.266 -0.1146  0.0614  0.1111
87795W        W25289  12.066   6.626   5.367 -0.2129  0.0731  0.1046
87796W        W25290  15.644  25.265   7.471 -0.2506  0.1137  0.0422
87797W        W25291   0.751  25.631  21.944 -0.0979  0.0091 -0.0632
87798W        W25292  22.809  15.892  16.997  0.0621 -0.1795 -0.0587
87799W        W25293  22.357  12.699   0.214 -0.2175 -0.0508 -0.2931
87800W        W25294  22.789  29.334  25.440 -0.3904 -0.2302 -0.2789
87801W        W25295  31.990   8.873  24.997 -0.1494 -0.2312  0.1810
87802W        W25296  17.435  23.117  10.217 -0.1311  0.0987  0.1496
87803W        W25297  15.413  31.653   1.672 -0.2652  0.1577 -0.2515
87804W        W25298  15.716  14.999   3.897 -0.0856 -0.1232 -0.0226
87805W        W25299  23.984  34.950  23.293  0.0651  0.0027  0.0984
87806W        W25300   6.739   2.776  12.468  0.1027 -0.0948 -0.0034
87807W        W25301  29.013   4.365  12.185  0.2746 -0.0965 -0.1701
87808W        W25302  13.037  14.666  24.275  0.0675 -0.0475  0.1338
87809W        W25303  34.691  33.714  22.481  0.0515  0.3956  0.1705
87810W        W25304   5.335   2.543   3.082  0.1271  0.2308  0.0787
87811W        W25305  29.012  34.018   5.004  0.0504  0.1427  0.0584
87812W        W25306  17.802  24.855   1.061  0.2196  0.0691  0.0818
87813W        W25307  29.004  23.277  19.186 -0.1975  0.2512 -0.3887
87814W        W25308   6.066  34.086  23.077  0.0739  0.0463 -0.2383
87815W        W25309  15.918  10.029   8.698 -0.2312 -0.0722 -0.0000
87816W        W25310  34.009  33.659   6.712  0.1564  0.0768 -0.4813
87817W        W25311  34.077  18.443  13.225  0.1622  0.1491  0.0645
87818W        W25312  30.102  25.006  16.785 -0.0029 -0.4048  0.1195
87819W        W25313   5.405   8.643   6.018  0.2114 -0.1739  0.1064
87820W        W25314  12.096   9.308   7.061 -0.1862  0.0202 -0.4456
87821W        W25315  32.994  21.776  17.131 -0.1481 -0.0499 -0.1968
87822W        W25316  26.311  10.226  14.267 -0.1823 -0.2369  0.1987
87823W        W25317  32.927   1.699   6.374 -0.2927  0.3261  0.1528
87824W        W25318  14.430  15.754  21.444  0.1295  0.0522  0.4989
87825W        W25319  33.637  14.315   0.289  0.4761  0.1669  0.1188
87826W        W25320  32.930  32.768  15.629 -0.3071  0.0901  0.0109
87827W        W25321  34.265  26.320  13.376  0.1570 -0.0905  0.1842
87828W        W25322  11.455   1.006  21.300 -0.3198  0.1484 -0.4122
87829W        W25323   7.842  31.308   8.399 -0.1848 -0.1279  0.1057
87830W        W25324  28.561  29.887  16.819 -0.1778 -0.0913  0.0777
87831W        W25325  28.950   3.171  19.111 -0.1598 -0.1994 -0.1012
87832W        W25326  23.965   9.925  18.170  0.1692 -0.5758 -0.0757
87833W        W25327   3.130   1.646  21.346 -0.1751  0.2495 -0.0871
87834W        W25328  12.892  26.051  11.781  0.1613  0.5229 -0.0417
87835W        W25329   9.269  16.934   1.755  0.0476 -0.4381 -0.2110
87836W        W25330  11.731  18.178  13.712 -0.1551 -0.2607 -0.0845
87837W        W25331  12.774   0.297  21.294  0.2161  0.2415  0.0822
87838W        W25332  28.342  10.037  24.445  0.1789  0.1598  0.2523
87839W        W25333   7.240  13.764   4.255 -0.0546  0.0135 -0.0707
87840W        W25334  27.228  26.679   0.705  0.0832 -0.1402 -0.0638
87841W        W25335   7.187  11.367   8.778  0.1764  0.1842 -0.1811
87842W        W25336  17.104  31.126   9.491  0.0261 -0.1398  0.0004
87843W        W25337   3.613  11.121   3.964 -0.2602 -0.0953 -0.0004
87844W        W25338   7.380  32.632  23.841  0.1963 -0.1684 -0.4159
87845W        W25339  31.848  34.393  18.576 -0.0962  0.2672 -0.1446
87846W        W25340   9.742   7.150  14.992  0.0233 -0.2292 -0.1902
87847W        W25341  30.351  30.119  12.636 -0.2422 -0.1679  0.1257
87848W        W25342  23.422  27.415   3.915 -0.0944 -0.0168  0.0524
87849W        W25343  29.114   9.712   8.408 -0.5527 -0.0350  0.1477
87850W        W25344  18.460  32.394  21.033 -0.0552 -0.0423  0.2510
87851W        W25345  10.317   1.764  13.644 -0.4276  0.0710 -0.0974
87852W        W25346  33.740  29.472  23.667  0.0130  0.0803 -0.0347
87853W        W25347  23.895  12.559  21.468 -0.2135  0.3087 -0.1340
87854W        W25348  34.324  19.283  22.938  0.2970 -0.0736 -0.1463
87855W        W25349   5.566  12.088  16.625  0.0197 -0.1133  0.3046
87856W        W25350  14.154  13.720   1.557 -0.0251 -0.0585  0.1847
87857W        W25351  22.868  14.261  17.560  0.3265  0.0404  0.0014
87858W        W25352  17.273   8.280   1.290 -0.0773  0.1590 -0.3111
87859W        W25353  28.688  10.476  16.975  0.0683  0.1611 -0.1592
87860W        W25354  30.647   7.589  15.578 -0.1953 -0.1455  0.0935
87861W        W25355   9.951  16.257  21.772 -0.1585  0.1079 -0.1347
87862W        W25356  28.742  26.721  16.819  0.1094  0.0131 -0.0847
87863W        W25357   8.233   8.648  25.512  0.3093 -0.3162 -0.3026
87864W        W25358  32.629  10.745  13.431  0.2450 -0.0907  0.3503
87865W        W25359  16.839  14.994   1.764 -0.1441  0.3141 -0.0563
87866W        W25360  27.590  19.287   6.244 -0.2411  0.1427  0.3145
87867W        W25361  29.474  28.415  23.905  0.1729 -0.0671  0.0792
87868W        W25362  12.704  26.915  15.726 -0.2424 -0.0944  0.0617
87869W        W25363   6.135  18.195  17.785  0.1701  0.0242  0.0331
87870W        W25364  28.350  20.145  19.845 -0.2399 -0.0295  0.4018
87871W        W25365  17.724  34.789   7.124  0.0874  0.2761  0.1864
87872W        W25366  30.496   5.215  24.246  0.1455  0.0892 -0.0538
87873W        W25367  16.741   1.971  18.238 -0.0251 -0.2671  0.1033
87874W        W25368  16.271   4.256   5.526  0.0964 -0.0842 -0.0133
87875W        W25369  34.578  18.029  19.175  0.2026  0.0344 -0.0545
87876W        W25370  17.738   4.159   2.241  0.1958 -0.0313  0.0279
87877W        W25371  12.333   8.470  18.880  0.0178  0.0877 -0.1071
87878W        W25372   4.950  11.150  18.284 -0.2134 -0.0300  0.2735
87879W        W25373  15.317  16.135   2.237 -0.3350  0.0316 -0.3419
87880W        W25374  32.078  33.833  20.591  0.0498  0.4185 -0.1911
87881W        W25375   8.856  21.223   3.957 -0.2203  0.2844 -0.2051
87882W        W25376   9.074  16.142  13.404 -0.2408 -0.0043  0.1806
87883W        W25377  23.679  34.059  17.917  0.0991  0.1441  0.1526
87884W        W25378  26.813   0.030   3.221  0.1617  0.1321 -0.1337
87885W        W25379   7.076  32.053   8.200  0.1839 -0.0480 -0.2821
87886W        W25380   0.522  11.474  19.298  0.4239  0.0774 -0.1755
87887W        W25381   0.368   0.084   5.598 -0.1223 -0.0872 -0.0302
87888W        W25382   6.589   4.412   7.188 -0.1589 -0.2962  0.0050
87889W        W25383   8.207  34.004  15.468 -0.1516 -0.1599  0.1302
87890W        W25384  28.687   9.047   7.793  0.1308 -0.2277  0.2671
87891W        W25385   5.548  28.418  23.308 -0.4113 -0.0815 -0.0569
87892W        W25386  34.564   4.546  21.896  0.2969  0.0314 -0.0822
87893W        W25387  25.620   6.367  13.430 -0.0526  0.1080 -0.1631
87894W        W25388  11.646   9.731  19.858  0.0275  0.1425 -0.0983
87895W        W25389  34.069  31.045  25.311 -0.1452  0.2964 -0.1470
87896W        W25390   7.830  19.343  22.857  0.2915 -0.1083  0.2686
87897W        W25391   5.460  25.527  24.456 -0.0166 -0.1113  0.0110
87898W        W25392   3.469  33.143   7.375 -0.3660  0.1197  0.0937
87899W        W25393  21.113   3.633   4.489 -0.0294 -0.0667 -0.0987
87900W        W25394   5.003   7.043   8.184  0.1032  0.0555 -0.0902
87901W        W25395  12.544  25.810  17.289 -0.0826 -0.0102 -0.0372
87902W        W25396  17.858  26.791  20.781 -0.0705  0.0292  0.0597
87903W        W25397  16.920  25.965   6.617 -0.0743  0.0388  0.2835
87904W        W25398  26.372  26.598  22.026 -0.1048 -0.0143 -0.3631
87905W        W25399   7.859  28.557  20.945  0.0252 -0.0128  0.2007
87906W        W25400  13.245   2.363   1.464 -0.1828 -0.1672 -0.1817
87907W        W25401  24.432  28.324  10.743 -0.2579 -0.0844  0.1532
87908W        W25402  26.438   5.947  20.339  0.2206 -0.0800  0.0692
87909W        W25403  12.719  32.418  12.297 -0.3928 -0.0758  0.1639
87910W        W25404  11.938  14.692  18.401  0.0244 -0.1278 -0.2190
87911W        W25405  12.707  31.003  12.781 -0.1036 -0.0681  0.4289
87912W        W25406  22.904  26.198   0.566  0.2173  0.2008 -0.1007
87913W        W25407  27.312  29.942  19.071 -0.1030  0.2946  0.3014
87914W        W25408  15.646  21.997   4.443  0.2361 -0.0254 -0.4216
87915W        W25409  34.587  34.760   4.272 -0.0704  0.2812  0.0935
87916W        W25410  27.324  25.497  25.987  0.3819 -0.0715 -0.4264
87917W        W25411  29.814  26.009  14.115  0.1546  0.2292 -0.0224
87918W        W25412  24.030  16.415   0.592 -0.3557  0.0585 -0.1419
87919W        W25413  16.228   1.941   7.194 -0.2484 -0.1998 -0.0484
87920W        W25414   4.295   0.762  24.841  0.0456  0.3659 -0.1225
87921W        W25415  25.942   4.230  23.281 -0.1287 -0.0080 -0.1178
87922W        W25416   3.144   4.329   3.610  0.3012 -0.0188 -0.1443
87923W        W25417   1.055  17.926  17.445 -0.0367  0.1836  0.1303
87924W        W25418   4.497  10.066  19.836  0.2023 -0.5038  0.3041
87925W        W25419   6.690  16.485   6.832  0.0742  0.0095 -0.1877
87926W        W25420  29.441  17.078  12.660  0.1703 -0.0631 -0.0128
87927W        W25421   7.396  30.628  24.434 -0.0693  0.2452 -0.1121
87928W        W25422  14.485  14.178  12.714  0.1467  0.3073 -0.0121
87929W        W25423  30.235  22.980   7.302 -0.0252 -0.0360  0.1133
87930W        W25424   0.587  23.025  22.867 -0.0950 -0.2170 -0.1886
87931W        W25425  14.244  24.329  14.630 -0.2901  0.0910 -0.1392
87932W        W25426  13.940  21.318   8.384 -0.1516 -0.1637  0.5878
87933W        W25427   8.961  27.860  14.528  0.0036 -0.0609 -0.2809
87934W        W25428   5.856  20.855   5.435  0.0068  0.0039  0.1194
87935W        W25429  28.349   2.363  26.158 -0.2348 -0.0493  0.0011
87936W        W25430   1.931  30.335   3.308  0.1496  0.0584 -0.0816
87937W        W25431  16.105  25.901  26.074  0.1745 -0.2644 -0.3127
87938W        W25432  28.306  28.772  14.857  0.0386  0.0606 -0.0625
87939W        W25433  31.859  13.662  15.997 -0.0911  0.2010 -0.0207
87940W        W25434  16.953  33.486  18.669  0.1087 -0.1971 -0.1702
87941W        W25435  33.772  28.050   4.146  0.0929  0.3496 -0.1235
87942W        W25436  17.237   4.170  10.089 -0.2184 -0.1065 -0.1453
87943W        W25437   1.854   2.619   1.675  0.0421 -0.2840 -0.1078
87944W        W25438  12.903  24.683  25.438 -0.0308 -0.0111 -0.0643
87945W        W25439   9.279  26.064  10.570 -0.2714 -0.3907 -0.3015
87946W        W25440   6.760   7.292   5.086 -0.0429 -0.2081 -0.2664
87947W        W25441  19.680  18.345   9.404  0.0163 -0.1526 -0.2997
87948W        W25442  24.684   9.575   2.122 -0.0534  0.0915 -0.2662
87949W        W25443  20.642   4.308   4.923  0.1048  0.0149  0.1998
87950W        W25444  26.436  33.265  25.660  0.0728  0.0058 -0.3463
87951W        W25445   7.506  14.615  24.004  0.0223 -0.2727  0.0065
87952W        W25446  24.778  32.170  10.687 -0.0989  0.1037 -0.0648
87953W        W25447  22.164  18.121  21.261 -0.1604  0.1026  0.2330
87954W        W25448  31.389  26.476  16.269 -0.2718 -0.0478  0.0124
87955W        W25449  11.331  28.704  17.683 -0.1202 -0.0674 -0.1885
87956W        W25450  30.213  34.865  18.864  0.0466 -0.1029 -0.2595
87957W        W25451  21.439  18.080  22.063  0.1313  0.3597  0.1112
87958W        W25452  26.945   4.974  23.656  0.1491 -0.0260 -0.0293
87959W        W25453   2.225  10.233  16.959  0.2532 -0.3034 -0.2642
87960W        W25454   1.121  35.242  21.571  0.0066 -0.1284  0.1354
87961W        W25455   3.316   9.248  16.420  0.2566  0.1615  0.0889
87962W        W25456  17.924  13.379   2.373 -0.1429 -0.1951 -0.0562
87963W        W25457   8.531  15.244  25.523 -0.0424 -0.1145  0.0298
87964W        W25458   7.826   7.119  13.432 -0.0285 -0.1531  0.0936
87965W        W25459   4.103   2.161  23.406  0.3491 -0.0588  0.2287
87966W        W25460  13.887   5.298   6.515  0.3158 -0.1286 -0.4155
87967W        W25461   3.735   3.357  23.788 -0.0015  0.0486 -0.0646
87968W        W25462  32.612  17.395  13.747 -0.0059  0.0893 -0.1288
87969W        W25463  15.931  34.627   0.101  0.0757  0.4989 -0.1138
87970W        W25464  10.327  14.689  23.436  0.2820  0.2412  0.2885
87971W        W25465  24.471  34.457  22.112 -0.0126 -0.2698 -0.0290
87972W        W25466  13.596   3.975   2.572 -0.1458  0.2021  0.0702
87973W        W25467   1.280   9.670  14.771 -0.1012  0.0092 -0.3186
87974W        W25468  12.317  24.988   2.906 -0.2726 -0.3248 -0.1204
87975W        W25469  10.451  27.907   1.472 -0.0792 -0.3555  0.0306
87976W        W25470  31.398  12.100  10.653 -0.0062  0.1391  0.1880
87977W        W25471  29.692   6.887  16.544  0.0553 -0.2196  0.4248
87978W        W25472  12.933  17.041   2.892  0.0550 -0.1696 -0.3211
87979W        W25473   1.261  29.747  25.005 -0.0128 -0.1554 -0.1274
87980W        W25474   4.943  16.032  16.908 -0.2529  0.0786  0.0092
87981W        W25475  24.233  23.702  16.118 -0.0710 -0.0738 -0.0974
87982W        W25476   3.275  30.677  20.578 -0.4204 -0.0102 -0.1144
87983W        W25477  16.859  11.971  12.768 -0.1947  0.2441 -0.0010
87984W        W25478   1.053  32.833  21.566  0.2095 -0.3886 -0.0038
87985W        W25479  21.990   6.836   7.443  0.3034  0.0272 -0.0601
87986W        W25480  11.362  24.151  23.090  0.0857  0.0665 -0.3019
87987W        W25481  27.902   6.419  20.746 -0.0976 -0.0070 -0.2053
87988W        W25482  29.299  22.292  19.878  0.0684  0.0116  0.1316
87989W        W25483  28.659  21.752  14.357  0.1544 -0.2086  0.1065
87990W        W25484  26.398  20.633  25.528 -0.0487 -0.4768  0.0202
87991W        W25485  20.427  16.800   5.987  0.0562 -0.1931 -0.2123
87992W        W25486   0.866  21.824   0.935 -0.2341  0.1612 -0.4120
87993W        W25487   0.601   0.326  25.657 -0.3131  0.4018 -0.2510
87994W        W25488  33.513   2.164  14.631 -0.1542  0.1238  0.0230
87995W        W25489   5.819  15.479   3.019  0.3254 -0.4411 -0.2078
87996W        W25490   1.181   0.277  25.576  0.1330 -0.1621 -0.0228
87997W        W25491  13.892  34.846   1.214  0.0204  0.0381 -0.3288
87998W        W25492  22.249  17.715  18.147 -0.0786  0.0272 -0.0990
87999W        W25493  22.785  18.541  17.792  0.1906  0.0654  0.3059
88000W        W25494  29.693  34.099  19.565 -0.1894 -0.0993 -0.2832
88001W        W25495  26.963   6.288  11.180 -0.1045  0.1917  0.2128
88002W        W25496  23.301  22.618  14.274  0.0672 -0.0043 -0.0527
88003W        W25497  19.817  33.635  16.347 -0.0391 -0.0181 -0.0261
88004W        W25498   6.413   4.953  23.651  0.2489  0.1206 -0.0336
88005W        W25499  10.998   6.197   2.161 -0.1394 -0.0466  0.0414
88006W        W25500   7.670  17.002   0.657  0.3164  0.2246  0.0336
88007W        W25501  13.442  27.675  22.654  0.3536 -0.2329  0.0173
88008W        W25502  26.958  32.655  13.188 -0.1380  0.1269  0.1182
88009W        W25503  31.413  21.046  19.739 -0.2395  0.2144  0.1006
88010W        W25504   7.828   8.647   3.741 -0.4350 -0.0656 -0.1256
88011W        W25505   8.941  30.129   9.020  0.0432  0.2227  0.0919
88012W        W25506  34.957  35.131   8.294  0.0673 -0.0787 -0.2644
88013W        W25507   0.890   0.146  18.747 -0.2911  0.0684  0.4377
88014W        W25508  11.175  26.676  18.332 -0.1303 -0.0095 -0.1216
88015W        W25509  24.352  33.730  19.416  0.1873  0.3422  0.0315
88016W        W25510  34.880  31.266  15.263  0.0356 -0.0565 -0.2686
88017W        W25511  31.457   4.541  22.488 -0.0846  0.2448  0.3618
88018W        W25512  16.262   0.264  19.206 -0.3416  0.1725 -0.2881
88019W        W25513  18.736   6.085  21.890  0.1097  0.3116  0.2845
88020W        W25514  25.993   9.816  10.234  0.0758  0.0278  0.0147
88021W        W25515   3.989  11.670  25.536 -0.0466 -0.3041  0.0411
88022W        W25516   6.146  16.557  21.283  0.2896  0.1645 -0.2048
88023W        W25517  24.191   2.496   3.741  0.1849  0.0016  0.1400
88024W        W25518   0.332  34.630  23.374 -0.2530  0.1698  0.0132
88025W        W25519  22.603  29.494   3.047 -0.0577 -0.0353  0.0025
88026W        W25520  11.064  12.779  12.822  0.0872 -0.1872 -0.0188
88027W        W25521  34.133  12.829  25.117  0.3996  0.0795  0.0577
88028W        W25522  17.186  34.873  22.939 -0.0557  0.3335  0.1263
88029W        W25523   7.394   4.720   7.192 -0.0706  0.0471 -0.0701
88030W        W25524  29.563   8.442   1.289 -0.0402  0.0109  0.2790
88031W        W25525  19.728  25.120  25.049  0.1024  0.1439  0.0410
88032W        W25526  10.142  22.542  15.244  0.1412  0.0466 -0.1887
88033W        W25527   5.590   5.598  20.814 -0.0437 -0.3766  0.1631
88034W        W25528  28.979   8.627  13.214  0.1234 -0.1303  0.0415
88035W        W25529  15.916  13.581   4.769  0.1923  0.1149 -0.0276
88036W        W25530  28.849  29.844  25.555 -0.1840 -0.0474  0.0956
88037W        W25531  17.606  25.679  25.934  0.4134 -0.0752 -0.1956
88038W        W25532  12.559  10.299   5.565 -0.2520 -0.1677 -0.0750
88039W        W25533   3.937   4.295   4.564 -0.0020 -0.1080 -0.1627
88040W        W25534   1.383  28.472   7.481 -0.0469 -0.0945 -0.0831
88041W        W25535  25.550  17.228  17.133 -0.5608  0.1075 -0.1705
88042W        W25536  18.109  13.751  10.328 -0.2185 -0.0328  0.0190
88043W        W25537  35.289  20.738  20.931 -0.3393 -0.1987 -0.1082
88044W        W25538  28.479   3.566  23.989 -0.0226 -0.1814 -0.1496
88045W        W25539   2.676  24.844  19.147 -0.0194 -0.1127 -0.0786
88046W        W25540  25.473   8.170  21.081  0.1118  0.0777 -0.1227
88047W        W25541  19.909  13.877  25.297  0.1666 -0.0996 -0.2050
88048W        W25542  28.888  32.807   4.978 -0.0764  0.0838 -0.3472
88049W        W25543   8.006   1.795   4.254  0.1514 -0.1458  0.3427
88050W        W25544  33.140  13.415  20.715  0.1230  0.0069 -0.0421
88051W        W25545  15.426  12.071  23.296  0.2174  0.1417  0.2462
88052W        W25546  33.667   8.310  23.431 -0.3492 -0.1863  0.0155
88053W        W25547   7.370  28.458  15.455 -0.1380 -0.0368 -0.0465
88054W        W25548  12.247  20.612  11.124  0.1657 -0.0407  0.1695
88055W        W25549  31.210   9.857   7.661  0.2295 -0.1539 -0.2240
88056W        W25550  14.123  22.322  14.865 -0.1368  0.0609  0.0233
88057W        W25551  12.228  27.540   1.543  0.4343 -0.1399  0.1949
88058W        W25552  11.582   7.973  11.864  0.0108  0.1613 -0.0395
88059W        W25553  28.406  10.670  24.346  0.0964 -0.0557  0.0276
88060W        W25554  25.142  15.753  13.565 -0.3390 -0.0859  0.2300
88061W        W25555  30.884   0.722   3.376  0.1812 -0.1270  0.2571
88062W        W25556  25.948  20.974  15.717  0.1868  0.1567 -0.0316
88063W        W25557  32.359  21.386  17.001 -0.2024 -0.0979 -0.0867
88064W        W25558  15.539  17.278   2.792  0.2811  0.0898 -0.1740
88065W        W25559   8.175  17.760   7.887  0.3223  0.3645  0.1389
88066W        W25560  12.509  17.281   1.218  0.0227  0.0436  0.1327
88067W        W25561  28.334  14.519  18.477  0.0586 -0.1309  0.3391
88068W        W25562  22.719  28.875   2.272 -0.2308 -0.3677  0.1904
88069W        W25563  17.998  23.949   4.848 -0.0882  0.3158 -0.0910
88070W        W25564  10.655  16.735  13.751  0.2017  0.2256 -0.0204
88071W        W25565   3.864  27.642  25.536  0.0140  0.0976 -0.1840
88072W        W25566  32.916  24.094  14.095  0.0624 -0.0124  0.3340
88073W        W25567  20.672  27.599   0.003 -0.0290  0.2541  0.0460
88074W        W25568   3.070  23.438   5.346  0.0871 -0.1871 -0.1822
88075W        W25569  19.862  22.920  23.830  0.0464  0.2475 -0.0298
88076W        W25570  28.198  14.226  11.749 -0.0454 -0.3477  0.0248
88077W        W25571  10.962   1.333   3.664  0.1508 -0.0622 -0.1931
88078W        W25572  21.758   1.616  22.224  0.2197 -0.1445 -0.0104
88079W        W25573  10.801   8.540  20.589 -0.0870  0.0436 -0.0108
88080W        W25574   0.624   5.088   3.131  0.3303  0.2526 -0.4485
88081W        W25575  11.721  13.917  11.289  0.2177 -0.0896  0.1175
88082W        W25576  28.132   5.118  11.431  0.5510 -0.1388 -0.1222
88083W        W25577  17.037  16.471  20.000  0.2364  0.2592 -0.0190
88084W        W25578   3.353  30.228   0.709 -0.2097 -0.0264 -0.0360
88085W        W25579  15.155  15.675  11.858 -0.0640  0.0559 -0.0817
88086W        W25580  12.740  23.370   8.387 -0.2247 -0.2537 -0.3634
88087W        W25581   4.022  18.172  24.618 -0.0693  0.3891  0.1774
88088W        W25582  18.468   1.099  18.296 -0.0182 -0.2306  0.0055
88089W        W25583  34.868  16.343  25.117 -0.2708 -0.0029  0.1510
88090W        W25584  20.490  33.401   7.671 -0.0303  0.0588 -0.1452
88091W        W25585  16.111  27.753  14.930 -0.0529  0.0128  0.2295
88092W        W25586  31.370  28.974   3.085 -0.0407 -0.2644 -0.1232
88093W        W25587  11.158  23.266   9.555 -0.2598 -0.1935  0.0743
88094W        W25588  34.594   8.606  16.380 -0.0409  0.1097 -0.1932
88095W        W25589  21.196  31.253  20.783  0.1234  0.0140  0.0284
88096W        W25590  19.691  17.097  25.842  0.2591 -0.1151  0.1049
88097W        W25591   6.503  15.552   2.141  0.1973 -0.1336 -0.1386
88098W        W25592  23.181  20.817  25.691 -0.1240  0.0452  0.4598
88099W        W25593  32.202  28.791   4.203  0.1796  0.2349  0.0711
88100W        W25594  11.936  15.775   8.530  0.2832 -0.0242  0.0384
88101W        W25595  27.625   8.148  15.588 -0.1290 -0.2851 -0.1362
88102W        W25596   0.524  12.523  25.624  0.1629  0.0477  0.1805
88103W        W25597   7.767  32.509   9.099  0.0450 -0.1974 -0.1427
88104W        W25598   5.110   2.254  23.869  0.1433 -0.1511  0.0313
88105W        W25599  12.620   4.913   0.690 -0.0806 -0.0316 -0.0138
88106W        W25600  26.035   7.764  19.470  0.0815 -0.0412  0.1033
88107W        W25601  29.163  12.288  19.789  0.1222 -0.0595 -0.0708
88108W        W25602  33.214  13.885  20.090 -0.2419 -0.1890 -0.1643
88109W        W25603  14.175  17.414  24.502  0.0480 -0.1612  0.0158
88110W        W25604  19.644   0.093   1.732  0.1799  0.1679  0.0439
88111W        W25605  15.678  14.825  24.286 -0.1244 -0.1641  0.2432
88112W        W25606   6.297   2.666  20.182 -0.1595 -0.0678 -0.0061
88113W        W25607  33.420   4.064  12.942 -0.1558  0.3722  0.1435
88114W        W25608   1.619  19.559  16.744  0.0823  0.0567 -0.0764
88115W        W25609   0.356  24.797  18.748 -0.3121 -0.0823  0.0875
88116W        W25610   7.470  22.295   8.911 -0.2339 -0.1459 -0.0931
88117W        W25611  32.428  29.709   3.078  0.1641  0.1285 -0.1708
88118W        W25612  33.352  10.269   0.536  0.0665  0.2675  0.4194
88119W        W25613  22.995  19.647  16.871 -0.0895  0.1534  0.0025
88120W        W25614   9.965  11.913  11.482 -0.0749  0.1975 -0.1191
88121W        W25615  12.085   3.242  25.460 -0.0367 -0.1775  0.1830
88122W        W25616  34.612  30.829  26.143  0.0177 -0.0209  0.1963
88123W        W25617   7.682  19.971  14.109 -0.3234  0.1758  0.1599
88124W        W25618   3.433  34.452  20.075  0.1125  0.1925  0.0318
88125W        W25619  27.472   7.674   9.258  0.2375  0.0089 -0.2347
88126W        W25620  10.311  28.350   0.005  0.0204  0.2269  0.0662
88127W        W25621   1.896  20.081   2.959  0.2293 -0.2286 -0.0251
88128W        W25622   3.451  28.704  10.172 -0.0721  0.2323  0.3606
88129W        W25623  16.935  21.274   0.678  0.0419 -0.1330 -0.3026
88130W        W25624  33.675   1.401   7.423  0.0112 -0.0231 -0.0137
88131W        W25625  32.141  33.698   7.033  0.2039  0.3590  0.1287
88132W        W25626  32.677   8.138  17.160 -0.0077  0.0263  0.1305
88133W        W25627  14.081  18.023   3.745  0.1242  0.2855  0.0900
88134W        W25628  20.961  10.508  25.789 -0.0786 -0.1023 -0.1274
88135W        W25629  35.326  25.867   1.375  0.1189 -0.0880 -0.1126
88136W        W25630  31.843  25.676  24.525  0.1784  0.2371  0.0075
88137W        W25631  11.328  19.129  25.258 -0.2552 -0.0194  0.2311
88138W        W25632  23.196  14.955  18.381  0.1773  0.1292  0.0337
88139W        W25633  30.915   2.558   2.433  0.0679 -0.1024 -0.1874
88140W        W25634  29.387  10.031   8.165 -0.0849  0.0169 -0.2030
88141W        W25635  22.389  32.128   2.452 -0.0108  0.1982  0.0802
88142W        W25636  17.286   0.978   2.060  0.1403  0.0365 -0.0399
88143W        W25637  26.111  14.793  15.322 -0.1656 -0.1459 -0.0792
88144W        W25638   7.395  29.015  24.457  0.1526  0.1423 -0.1831
88145W        W25639  17.322  11.602  20.509  0.3362  0.2129  0.1945
88146W        W25640   9.884  35.356   0.639 -0.3035 -0.1384 -0.0441
88147W        W25641   2.147  20.740  22.772  0.0185 -0.0579  0.0771
88148W        W25642  16.251   6.179  20.960  0.0220 -0.2501  0.1018
88149W        W25643  29.502  16.996   8.469  0.0894  0.0598  0.1948
88150W        W25644   2.946   6.131  25.417 -0.1579  0.1060 -0.0252
88151W        W25645  15.750   4.813  17.557  0.0534  0.0252  0.1607
88152W        W25646  12.679  17.577   3.870  0.0965 -0.0008  0.1606
88153W        W25647   7.390   1.028  24.943 -0.1986 -0.1661 -0.1870
88154W        W25648   6.070  29.930  14.594 -0.2557 -0.0190 -0.0007
88155W        W25649  13.052  13.012   2.625 -0.2287  0.2688 -0.1671
88156W        W25650  26.707  29.114  24.885  0.0429 -0.1914 -0.3382
88157W        W25651  29.427  20.289  17.518 -0.1846  0.2024 -0.0934
88158W        W25652   0.839  12.081  13.770  0.0374  0.1161 -0.0556
88159W        W25653  19.792   5.030  24.350  0.2588 -0.1386  0.2129
88160W        W25654  20.493  20.136   0.594 -0.3633 -0.0265 -0.0131
88161W        W25655  10.229   4.416   1.688  0.0314 -0.1753 -0.0381
88162W        W25656  12.024  18.058  11.676  0.4106 -0.2156  0.0346
88163W        W25657  35.175  29.552   5.365  0.1319 -0.0004  0.0903
88164W        W25658   7.787  18.913   3.463  0.0542  0.0348 -0.0601
88165W        W25659  24.456  19.036  13.331 -0.2373 -0.0357 -0.1600
88166W        W25660  19.915  10.575   7.337 -0.5382 -0.3094  0.2844
88167W        W25661  13.917  10.412  11.249 -0.3022  0.1188 -0.2630
88168W        W25662  19.745   2.065   5.532 -0.0950  0.2430 -0.1016
88169W        W25663   1.475  12.852  21.864  0.4046  0.0054  0.1597
88170W        W25664  34.393  22.417  13.356  0.1021 -0.1318 -0.0107
88171W        W25665  16.654  30.074  25.977  0.1871 -0.0056  0.0755
88172W        W25666   1.979  29.891  20.470 -0.2485  0.2397 -0.1366
88173W        W25667   5.266  34.243  10.874 -0.1942  0.2949 -0.2217
88174W        W25668  24.024  17.786  17.308  0.2476  0.1251 -0.1188
88175W        W25669  16.279  28.791  24.854 -0.0355  0.2391  0.1781
88176W        W25670  35.146   1.548   8.775 -0.1333 -0.3225 -0.1544
88177W        W25671   3.188   1.145   5.844 -0.0090  0.2015 -0.2224
88178W        W25672   0.404  34.317   3.103 -0.1875 -0.3254 -0.0006
88179W        W25673  34.098  25.982  23.892  0.2636  0.1531 -0.1003
88180W        W25674   0.894  31.721   0.904 -0.2690  0.2981  0.0191
88181W        W25675  28.904  10.486  23.420  0.3616  0.0246 -0.2244
88182W        W25676   3.438  29.238  10.284 -0.0268  0.1614 -0.2153
88183W        W25677  22.858   9.722   4.734 -0.1241  0.0006 -0.1577
88184W        W25678   8.725   2.886   5.907  0.0168 -0.0978 -0.0217
88185W        W25679   8.624   1.765   9.688 -0.0006 -0.0196 -0.2418
88186W        W25680  32.013  26.116   2.296  0.0205 -0.2543  0.0440
88187W        W25681  20.779   7.264  20.991 -0.0785 -0.1148 -0.0990
88188W        W25682  18.844  18.246   7.693 -0.1416 -0.0111 -0.1539
88189W        W25683  31.197   3.106  13.973 -0.0268  0.0708 -0.5496
88190W        W25684  22.092   0.676   3.646  0.1552  0.0414  0.3023
88191W        W25685   7.643   6.760  18.785  0.2288  0.1861 -0.2752
88192W        W25686  24.091  11.630  25.765  0.0732  0.1112 -0.2581
88193W        W25687  30.747   4.073  18.986  0.2962 -0.0071  0.2885
88194W        W25688  30.951   1.823   4.103 -0.1452  0.0452 -0.0933
88195W        W25689  26.990  12.652   7.263 -0.1121 -0.1039 -0.1181
88196W        W25690   2.339  15.270  15.342 -0.2007  0.0854 -0.0941
88197W        W25691  18.864  22.992  12.079  0.3188  0.0651  0.0568
88198W        W25692  33.375  20.384  16.364 -0.0594  0.1887 -0.2236
88199W        W25693   8.465  27.994   9.199  0.2113 -0.0798 -0.0849
88200W        W25694  19.611   3.127  23.233 -0.0470 -0.2368  0.2019
88201W        W25695   4.767   6.404  17.748  0.1334 -0.2975  0.0259
88202W        W25696  10.615   2.551   6.824 -0.0607  0.3139 -0.0352
88203W        W25697  22.564  26.885  13.370  0.3555  0.3183  0.2344
88204W        W25698  33.688  14.736  15.829  0.2394  0.0719  0.2454
88205W        W25699  31.926   5.178  15.282  0.0734  0.4755 -0.2169
88206W        W25700  31.187  16.706  18.876 -0.0976  0.0676  0.1077
88207W        W25701  13.603  14.321   5.443 -0.0495  0.2327  0.1761
88208W        W25702  11.148   9.129   7.994 -0.2109  0.0144  0.0874
88209W        W25703   3.081  10.385  16.534 -0.1300  0.3078 -0.3983
88210W        W25704  28.226   6.139  15.857 -0.0095 -0.0601  0.3620
88211W        W25705  10.025  10.629  20.032 -0.0524  0.2770 -0.1765
88212W        W25706  34.198  33.719  23.332  0.1100 -0.0567 -0.2740
88213W        W25707  29.567   4.962  15.246 -0.1969 -0.1980 -0.0399
88214W        W25708  25.830   5.683   2.230  0.2180 -0.2506  0.0428
88215W        W25709   4.310  17.049  19.292  0.0130 -0.0872  0.1935
88216W        W25710  18.303  25.248  21.555 -0.0290 -0.0500  0.3285
88217W        W25711  19.021   1.234   6.255  0.1768  0.3270 -0.2217
88218W        W25712  25.818  12.637  11.915 -0.1923 -0.0380 -0.0491
88219W        W25713   8.547   7.725  12.791 -0.1396  0.1912  0.0884
88220W        W25714  21.337  15.228   4.548 -0.0165  0.1496 -0.0613
88221W        W25715  30.388  15.620  19.899  0.0370  0.0707 -0.1903
88222W        W25716  31.915   6.168   1.848 -0.1441 -0.1008 -0.1055
88223W        W25717  31.135  19.453  18.353 -0.1689  0.1270 -0.2656
88224W        W25718   8.690   0.393   9.386  0.2609  0.1641 -0.0168
88225W        W25719  19.519  17.849  18.732 -0.1208  0.2491  0.0013
88226W        W25720  27.222  23.039   7.337 -0.2373 -0.0570  0.2037
88227W        W25721   0.281  16.679  23.533  0.0702  0.0278  0.1354
88228W        W25722  10.862   4.327   8.831  0.2929  0.1844  0.0798
88229W        W25723  31.498  34.005  25.645 -0.0634  0.1259 -0.3282
88230W        W25724   6.749  27.321  25.509  0.0148  0.0405 -0.0512
88231W        W25725   2.456   3.386  16.411 -0.0787  0.1690  0.0157
88232W        W25726  32.286  24.638  11.405 -0.2127 -0.0583 -0.0662
88233W        W25727  14.419  14.135  25.862 -0.0872 -0.0033 -0.0912
88234W        W25728  16.907  11.475   1.586 -0.4043  0.0648  0.0708
88235W        W25729  34.276  25.789  13.635 -0.1695  0.1091  0.0827
88236W        W25730  12.207   1.722  13.734 -0.0886  0.2304 -0.0886
88237W        W25731   7.338  20.692  13.080 -0.0594 -0.2011 -0.2394
88238W        W25732  27.151   0.326   5.258 -0.1544  0.2786  0.0245
88239W        W25733  34.909  12.688  24.577  0.0432  0.1608 -0.2158
88240W        W25734  15.526  12.448   0.662 -0.0322 -0.0843 -0.2124
88241W        W25735  34.457  10.454   0.782 -0.3118 -0.2199 -0.1499
88242W        W25736  15.055  35.300  24.205 -0.0804 -0.0137  0.0279
88243W        W25737  33.285  14.297  26.032 -0.1970 -0.3409  0.0287
88244W        W25738   7.556  20.142  25.363  0.0159  0.2062 -0.0977
88245W        W25739  31.879  32.452   3.515 -0.0046  0.0338  0.2665
88246W        W25740   9.388   5.227  21.871 -0.0694 -0.0156 -0.1810
88247W        W25741  26.063  28.016  25.330 -0.2158 -0.0870 -0.0494
88248W        W25742  29.874  21.963  13.076 -0.1258 -0.2566  0.0714
88249W        W25743   1.084  33.442   1.532  0.3851 -0.2245 -0.2361
88250W        W25744  14.546   4.837  10.820  0.3213 -0.2141 -0.0598
88251W        W25745  26.525  17.377  23.526 -0.0570  0.2599 -0.1055
88252W        W25746  25.417   1.341  22.712 -0.0510 -0.1667  0.1626
88253W        W25747   0.312  35.220  24.126 -0.3656  0.2738 -0.1784
88254W        W25748  32.464  33.054   1.819  0.0683 -0.1598 -0.0382
88255W        W25749  33.595  16.702  16.607  0.2008  0.2341 -0.2164
88256W        W25750   0.196  15.836  11.842 -0.1180  0.2409 -0.1111
88257W        W25751   4.355  12.894  24.507  0.0341 -0.0602 -0.1131
88258W        W25752  11.764  28.451  24.067  0.1332  0.0579  0.5209
88259W        W25753  24.759   1.728  16.162 -0.0362 -0.1573 -0.0823
88260W        W25754   6.333  14.400  17.251  0.0842 -0.1552 -0.1278
88261W        W25755  25.816  25.421  11.646  0.0927  0.2991 -0.2721
88262W        W25756  15.074   6.348  21.409 -0.2495  0.2019 -0.1102
88263W        W25757   1.487  14.637  18.477 -0.1327 -0.2402 -0.0556
88264W        W25758  32.641  23.725  24.097 -0.1559  0.1458  0.1120
88265W        W25759   2.262  22.815   4.984  0.0122  0.1975 -0.2205
88266W        W25760  10.337  27.670   9.998 -0.0848 -0.1132  0.0124
88267W        W25761  31.993  11.463  22.035 -0.0727  0.1636  0.0054
88268W        W25762  21.406   1.362   6.284 -0.1798 -0.1209  0.2563
88269W        W25763   8.038  30.721  16.205  0.2665 -0.0509  0.3283
88270W        W25764   9.110  21.593   7.071 -0.2869  0.1351 -0.0604
88271W        W25765   2.178  24.488  21.201  0.3429 -0.2271  0.1006
88272W        W25766  13.299  25.509   4.167 -0.0567  0.2123 -0.4816
88273W        W25767  26.600   3.972  17.180  0.0800  0.0421 -0.0787
88274W        W25768   2.577   8.320  16.071 -0.3427  0.1807  0.0400
88275W        W25769  20.956  23.374  21.281 -0.3176 -0.0540  0.3918
88276W        W25770  34.332   7.989  15.882  0.0403 -0.1736  0.2240
88277W        W25771  33.518   8.568   2.401 -0.1059 -0.2297 -0.2020
88278W        W25772  18.052  22.509   7.137  0.2228 -0.1411  0.0087
88279W        W25773  28.594   9.309  16.496  0.0972  0.0991 -0.0365
88280W        W25774  10.895  20.829   4.110  0.1370 -0.5263 -0.0098
88281W        W25775  22.621   7.917   5.014 -0.1968  0.4188  0.0515
88282W        W25776  13.442   7.813   3.993  0.0726 -0.3023  0.3658
88283W        W25777  33.106  34.132  22.002  0.0257 -0.0804 -0.3469
88284W        W25778   4.866  10.327   8.919 -0.0966  0.0707  0.0579
88285W        W25779  25.530  33.545  15.227 -0.1461 -0.1291 -0.2417
88286W        W25780  23.232   3.711  18.090 -0.2704 -0.0925  0.1035
88287W        W25781  20.694  33.499  20.911 -0.1173  0.3098  0.1152
88288W        W25782  14.174  30.445  14.066 -0.0389  0.0873  0.3559
88289W        W25783  13.200  26.634   8.136 -0.1106 -0.2860 -0.1193
88290W        W25784  25.286  13.373  17.479 -0.2571  0.0598  0.2191
88291W        W25785  15.945   0.831  20.167 -0.0809  0.0886 -0.1833
88292W        W25786  19.906  27.651  23.609 -0.0498  0.1680  0.0261
88293W        W25787   4.611   4.959   3.740  0.1727 -0.0239  0.2700
88294W        W25788  24.596  15.163   1.624 -0.2252 -0.3087 -0.1497
88295W        W25789  21.013   4.045   6.737  0.1855  0.0336  0.0828
88296W        W25790  18.313  28.688  20.032 -0.1201 -0.0810  0.0171
88297W        W25791   5.869  25.661   2.407  0.1478 -0.2387 -0.1251
88298W        W25792   3.827  21.130  16.102 -0.2486 -0.2152 -0.1695
88299W        W25793   3.905  31.794  11.762 -0.1228  0.1007 -0.1702
88300W        W25794  10.162  30.181   2.417 -0.3241 -0.0339  0.0870
88301W        W25795  11.445  27.175   7.421  0.0054 -0.1062 -0.0244
88302W        W25796  14.077  15.337   9.910 -0.1535 -0.0152 -0.0412
88303W        W25797  19.913   8.740  19.171  0.0879  0.0842  0.1752
88304W        W25798   8.811  28.325  16.554  0.2446  0.2237 -0.0997
88305W        W25799  19.507  33.256  17.125 -0.2131 -0.0945  0.1345
88306W        W25800  15.098  11.299   8.378 -0.1261 -0.0544 -0.1176
88307W        W25801   1.244   8.860  14.326 -0.1053  0.2472  0.0725
88308W        W25802  31.417   1.050  22.980 -0.3686  0.1781  0.1413
88309W        W25803  11.261  24.313   0.884  0.1130  0.0963 -0.0383
88310W        W25804   4.525   1.785  21.577  0.1559 -0.1173 -0.0703
88311W        W25805  22.113   1.536  20.327 -0.2839  0.0062 -0.1903
88312W        W25806  19.494  15.829  20.538  0.0463 -0.0031 -0.2107
88313W        W25807  12.336   6.905   9.612  0.1250 -0.0622 -0.2923
88314W        W25808   1.652  17.186  15.077  0.1382  0.0177  0.1745
88315W        W25809   6.227  28.913  24.618  0.4542 -0.0572  0.1521
88316W        W25810   4.435   8.944   6.641  0.2475 -0.0693 -0.2524
88317W        W25811  10.650  23.685  11.334 -0.2160 -0.1905  0.1409
88318W        W25812  15.419   2.661  12.039  0.1193 -0.0932 -0.0663
88319W        W25813  22.741  15.867  21.771 -0.0873  0.2306  0.2920
88320W        W25814  33.537   1.116  13.138  0.1328  0.1414 -0.0874
88321W        W25815  13.041   1.280   7.744  0.2407  0.0970  0.1084
88322W        W25816   9.297  23.234  13.628  0.2197 -0.0107 -0.0615
88323W        W25817  14.665  18.426   9.672  0.0058 -0.0294  0.0204
88324W        W25818  14.619  24.407   4.385  0.0494  0.0079 -0.2209
88325W        W25819  10.332  22.840   4.972 -0.0981  0.0858 -0.0364
88326W        W25820  17.020  11.162   7.735  0.0814  0.2394  0.2198
88327W        W25821  24.095   3.675  14.542 -0.2254 -0.2513  0.2961
88328W        W25822  20.256   7.139  18.076 -0.0141  0.1428 -0.0679
88329W        W25823  26.461  34.216   4.151 -0.0033  0.1111  0.0221
88330W        W25824  29.513  10.324  18.747 -0.0287 -0.3743 -0.5456
88331W        W25825  33.970  32.888   0.997  0.0304 -0.1130  0.1676
88332W        W25826  30.247  12.061  15.583  0.0764  0.0571  0.1475
88333W        W25827   3.204   6.334  22.998  0.0927  0.1543 -0.2922
88334W        W25828  10.150  20.536  11.468 -0.2019  0.1112  0.4328
88335W        W25829  32.631  18.445  24.374 -0.1536  0.2416 -0.0600
88336W        W25830  26.138  21.382   7.521 -0.1071 -0.1802 -0.1236
88337W        W25831  16.756  21.066  14.000  0.1330  0.2147 -0.0944
88338W        W25832  12.935  16.249  21.222  0.0598  0.0099 -0.1737
88339W        W25833  22.695   0.430  20.936  0.0635  0.1221  0.4139
88340W        W25834   4.100  35.022  18.354 -0.3425  0.0673  0.1758
88341W        W25835   0.788   1.880  25.926 -0.0781  0.1779  0.4970
88342W        W25836  24.469   1.875  21.630 -0.3047 -0.1899  0.1063
88343W        W25837  21.598  29.554  18.957 -0.1071  0.0201  0.0112
88344W        W25838   7.358   9.562  10.541 -0.1466  0.0315  0.0450
88345W        W25839  10.952  15.629  11.746 -0.0293  0.0303 -0.0372
88346W        W25840  27.228   2.641   1.802  0.0309 -0.1997 -0.2645
88347W        W25841  15.002  15.696   2.204 -0.0316 -0.3650 -0.2674
88348W        W25842  26.355  21.643   9.024 -0.2830 -0.2148  0.2965
88349W        W25843  28.286  33.268   1.545  0.1254  0.2604  0.1264
88350W        W25844   1.802  28.002  22.709 -0.1085  0.1236  0.4844
88351W        W25845   6.133  11.767   9.677 -0.1549  0.0146 -0.1173
88352W        W25846   8.441  29.479  23.226 -0.2097 -0.0658 -0.1496
88353W        W25847  33.763  18.284  12.325 -0.1429 -0.1199 -0.3319
88354W        W25848  16.584   7.583   3.448  0.0617  0.2673 -0.2558
88355W        W25849   0.181  22.626  13.192  0.1836 -0.1333 -0.0317
88356W        W25850   8.601   9.116   4.670 -0.0551 -0.2004  0.2413
88357W        W25851  29.963  24.046   6.824 -0.0839  0.0470 -0.1198
88358W        W25852  21.656  25.431  17.766  0.2142  0.0446 -0.1552
88359W        W25853   8.503  20.725  23.475  0.0832 -0.0622  0.2952
88360W        W25854  23.044   0.942   5.875 -0.0163  0.2299  0.1460
88361W        W25855  15.789  17.089   5.071 -0.3264  0.2577 -0.0713
88362W        W25856   5.860  15.646  24.270  0.2268 -0.2889  0.0401
88363W        W25857  22.738  21.143  19.469 -0.0085 -0.1037 -0.3764
88364W        W25858  30.368  34.096  13.222 -0.1646 -0.3096 -0.1937
88365W        W25859  20.024  19.580   0.329 -0.1011 -0.0087  0.3846
88366W        W25860   1.202  20.902  23.921 -0.3491  0.1573  0.0129
88367W        W25861   7.893  21.612  10.110 -0.0798  0.1232  0.0431
88368W        W25862  18.657  14.281  26.225 -0.2235  0.0348  0.2583
88369W        W25863  28.994   9.366  10.644  0.1230 -0.1831 -0.4611
88370W        W25864  19.905  10.891   4.050  0.0091  0.1520  0.0391
88371W        W25865  33.591  13.359  25.712 -0.0445  0.0471 -0.4721
88372W        W25866   0.555  24.072  21.381 -0.0474  0.2915 -0.2150
88373W        W25867  34.429  18.779  10.979 -0.2743  0.0028 -0.3505
88374W        W25868  16.685  28.184   5.592 -0.2476  0.0988 -0.1533
88375W        W25869   1.810  32.727  18.164  0.1242  0.2010 -0.1426
88376W        W25870   6.504  16.069  18.767 -0.0181  0.4213  0.0337
88377W        W25871  33.835  10.605   1.393  0.1577  0.2075  0.2534
88378W        W25872   4.223  13.254  22.750  0.1191 -0.3961  0.1094
88379W        W25873   7.164  16.066  23.300 -0.1569 -0.1421  0.1121
88380W        W25874  31.810  34.781   6.893 -0.1061 -0.0272  0.1482
88381W        W25875   9.916  12.188   8.835 -0.1131 -0.0171 -0.0424
88382W        W25876   9.905  26.228   7.572  0.0544 -0.1082  0.5275
88383W        W25877  24.322  20.187  14.106  0.5025  0.0375 -0.0667
88384W        W25878  14.339  32.752  20.365 -0.3643  0.2262  0.4926
88385W        W25879  24.578  25.848  24.493  0.1963  0.0220  0.1487
88386W        W25880  12.967  20.925  14.274  0.0843 -0.1067  0.0109
88387W        W25881   3.867  10.357  15.205  0.0654 -0.1466  0.0239
88388W        W25882  20.194  32.647  24.800 -0.0673  0.0742  0.0223
88389W        W25883  24.804   7.526  17.841  0.2117 -0.0087 -0.0384
88390W        W25884  16.141  19.220   9.151 -0.2143 -0.1022  0.0085
88391W        W25885   7.256  25.514   1.526 -0.2229  0.0702 -0.1129
88392W        W25886  12.047  33.315  23.537 -0.2207  0.2041 -0.0841
88393W        W25887  15.915   4.742  21.390 -0.2223 -0.2417 -0.0476
88394W        W25888  27.960  18.874  16.750  0.0638 -0.0840 -0.1704
88395W        W25889  21.738  15.816   0.069  0.0348 -0.0620  0.2472
88396W        W25890   4.386  10.663  21.641 -0.2405  0.3036 -0.0756
88397W        W25891   0.067  28.254  18.636 -0.0720 -0.4739  0.1771
88398W        W25892   3.073  33.094  19.267  0.1034  0.0914  0.1286
88399W        W25893  23.373  31.999   5.430  0.1469 -0.3163  0.3853
88400W        W25894  25.692  16.299  11.124 -0.2195 -0.1970  0.2282
88401W        W25895   9.624  28.015  22.452 -0.0083 -0.1075 -0.0216
88402W        W25896  17.401  10.077   6.326  0.1240 -0.1140  0.2236
88403W        W25897  14.598  24.867   1.983 -0.0743  0.0438  0.3193
88404W        W25898  30.447  11.935   0.015 -0.1183 -0.1378  0.1377
88405W        W25899  30.908  26.721  19.235  0.3267  0.2756  0.1168
88406W        W25900   1.889   1.421   2.065 -0.1938  0.0734 -0.0383
88407W        W25901  34.647   7.492  15.566  0.1820  0.0461  0.1300
88408W        W25902   4.344  11.874  15.504  0.5871  0.0399 -0.1293
88409W        W25903  18.368  25.525   1.374 -0.0548  0.3287 -0.0933
88410W        W25904   5.725  13.194   6.390  0.0536  0.0790 -0.0759
88411W        W25905  11.931  17.500   6.252 -0.1482  0.3560 -0.0409
88412W        W25906  24.406  23.699  17.857  0.1328  0.1374 -0.1380
88413W        W25907  30.563  10.501   0.373 -0.0784  0.0620  0.2073
88414W        W25908  17.110  15.114  11.240  0.1354 -0.2963 -0.0294
88415W        W25909  24.511  22.200  11.874  0.0942  0.1214 -0.0241
88416W        W25910  31.396  18.716   7.182  0.4287  0.0697  0.0511
88417W        W25911  17.637  11.212  19.616 -0.2534  0.1079  0.2118
88418W        W25912  19.192  23.820   5.171 -0.0209  0.1396  0.0975
88419W        W25913   1.759  13.425  23.230 -0.2182  0.0156 -0.1001
88420W        W25914  32.167  16.702  13.254  0.0803 -0.0367  0.0427
88421W        W25915  26.572   0.667  15.014 -0.1328  0.3041 -0.0677
88422W        W25916  16.527   8.045  25.901  0.0596 -0.0713 -0.1523
88423W        W25917  31.305  22.113  17.192 -0.1212 -0.1684 -0.1851
88424W        W25918  27.831   3.408  12.790  0.2769 -0.3190 -0.0082
88425W        W25919  24.185  11.090  23.770  0.1963 -0.0989  0.0933
88426W        W25920  12.924  23.017  23.212 -0.1526  0.0890 -0.2870
88427W        W25921  14.960   1.759   3.505 -0.1642  0.0944 -0.2188
88428W        W25922  28.330  21.004  20.788  0.0546 -0.2881 -0.0360
88429W        W25923  34.680  15.084  23.629  0.0869  0.2825  0.1197
88430W        W25924  35.215  29.873   5.880  0.0093  0.0170 -0.1093
88431W        W25925   0.099  33.418   1.346  0.1500 -0.2654  0.2222
88432W        W25926   8.103  27.262  24.431 -0.0080 -0.2033 -0.1244
88433W        W25927   7.226  28.167  10.070 -0.5061 -0.0440 -0.3116
88434W        W25928   9.430  16.367  12.601 -0.0438  0.0405  0.3896
88435W        W25929  32.160   5.510  18.964  0.1800 -0.0633  0.2170
88436W        W25930  30.528  20.056  25.072 -0.2767 -0.1427  0.0287
88437W        W25931  14.534   5.564  22.874  0.2031 -0.1892  0.2157
88438W        W25932   3.934   2.274   2.142  0.0574  0.2612  0.2043
88439W        W25933   5.688  24.431   0.232  0.3665  0.2417 -0.1271
88440W        W25934  22.950  31.581   1.410 -0.0869  0.2430  0.0160
88441W        W25935  28.082  14.422  21.956  0.1311 -0.2028  0.0423
88442W        W25936  23.314  33.356   6.650 -0.0123  0.1030  0.1545
88443W        W25937   5.626  11.679   4.551  0.1502  0.0680 -0.1162
88444W        W25938   9.622   7.807   7.778  0.1332 -0.2605 -0.1198
88445W        W25939   7.701  17.497   0.403 -0.1733 -0.0463  0.1987
88446W        W25940   4.908  12.921   3.718  0.0877  0.1861 -0.1967
88447W        W25941  30.041  22.860  12.802  0.1671  0.0056 -0.3414
88448W        W25942  15.744  17.267   4.175 -0.2718 -0.4308 -0.3156
88449W        W25943  23.626  33.622  12.631 -0.2186  0.2703 -0.2240
88450W        W25944  30.921  24.828  11.408 -0.3355 -0.0220  0.0039
88451W        W25945  29.356  33.781   0.587 -0.3101  0.1396 -0.2972
88452W        W25946  15.273  10.636   6.483 -0.2167 -0.1766  0.0625
88453W        W25947   8.324  16.228   8.652  0.3741 -0.1393 -0.0217
88454W        W25948   1.626  29.306  17.618 -0.5526  0.1585  0.1631
88455W        W25949  19.999  24.561  20.803  0.0689  0.1244 -0.1357
88456W        W25950  33.058  22.097   0.667  0.1968  0.1079 -0.0518
88457W        W25951  35.276  22.366  13.581 -0.3233 -0.4130 -0.0169
88458W        W25952  17.229  34.034  17.560 -0.0026  0.1369  0.0744
88459W        W25953  19.463   7.593  18.158  0.0374 -0.1168 -0.1009
88460W        W25954   6.295  33.388  12.211  0.2099 -0.0614  0.1154
88461W        W25955  20.583   0.392   1.495  0.0687  0.2201  0.1504
88462W        W25956  24.258  24.688  13.019  0.1032 -0.0474  0.1634
88463W        W25957  20.275  34.759  15.554 -0.0063 -0.1407 -0.2836
88464W        W25958  27.975  23.221  17.982  0.1597 -0.0384  0.0826
88465W        W25959  26.223  18.047  25.635 -0.0970  0.2401  0.1136
88466W        W25960   7.082   8.670   0.707 -0.0629 -0.1905 -0.3353
88467W        W25961  24.622   8.619  14.688 -0.0703  0.0257  0.0714
88468W        W25962  21.819   8.916  17.705  0.2645 -0.1497 -0.0730
88469W        W25963  28.666  33.157  11.894  0.0588 -0.2277  0.1116
88470W        W25964  30.386  25.057  12.308 -0.0582  0.4596 -0.2502
88471W        W25965  25.924   7.639  15.420  0.1171  0.0458 -0.2945
88472W        W25966  11.449  15.521  19.986  0.2039 -0.0179 -0.2279
88473W        W25967  34.726  35.170   0.318 -0.1003 -0.0757 -0.0726
88474W        W25968  23.835  33.529  16.110 -0.1183 -0.0116  0.1948
88475W        W25969  27.265   1.678  16.153 -0.2631 -0.3754 -0.2309
88476W        W25970   4.779   6.284  25.100 -0.0880  0.0972  0.2260
88477W        W25971  25.741  23.159  13.001  0.1657  0.1893 -0.2607
88478W        W25972  17.804   3.420  19.042  0.1237 -0.2682 -0.2827
88479W        W25973   4.544   9.341   3.530  0.1835 -0.1399  0.0275
88480W        W25974  30.285   8.985  16.282  0.0098  0.1185 -0.3152
88481W        W25975  21.669  22.455  19.340 -0.2038 -0.0878 -0.1239
88482W        W25976   9.015   9.113  11.776 -0.0177 -0.3203  0.0687
88483W        W25977  25.575   4.733  20.765 -0.2364 -0.1537  0.2096
88484W        W25978  22.959   2.410  23.570  0.0705 -0.1199  0.1181
88485W        W25979  28.636  12.513  21.717  0.2600  0.1266  0.0775
88486W        W25980  34.848  22.092   0.523 -0.2416 -0.0770 -0.1493
88487W        W25981   2.359  30.371   7.770 -0.0108 -0.1992  0.0934
88488W        W25982  12.924  21.016  10.236 -0.2021  0.1702 -0.0917
88489W        W25983   7.848   3.441  26.147 -0.0645 -0.2307  0.3162
88490W        W25984  18.842  29.519   1.724  0.2615 -0.0088  0.1905
88491W        W25985  28.561  21.460  13.288  0.2830  0.1352 -0.0250
88492W        W25986  33.765   2.709   0.892 -0.0555  0.1594 -0.2408
88493W        W25987   5.828  10.850  21.414 -0.0444 -0.2113  0.0841
88494W        W25988  24.867   9.974  15.004 -0.1116  0.1367  0.2838
88495W        W25989   7.159  19.759  25.497  0.0123  0.1653 -0.1857
88496W        W25990  31.009  32.570  19.233 -0.1206  0.1110  0.0963
88497W        W25991  25.215  11.979  20.231 -0.1432  0.2258 -0.3467
88498W        W25992  16.012  30.790   3.267 -0.0151 -0.0823 -0.5290
88499W        W25993  23.600  30.455  16.461  0.3046  0.1001 -0.0447
88500W        W25994  32.142  25.026  13.934  0.1145 -0.0042  0.1640
88501W        W25995  34.627  34.849   8.612 -0.0821 -0.0865  0.1414
88502W        W25996  20.401  17.905  20.210  0.1443  0.0788  0.1011
88503W        W25997  27.683  12.704  23.699 -0.1208  0.0780  0.0156
88504W        W25998  19.425   2.415   5.587 -0.2103 -0.0527  0.1523
88505W        W25999  19.866  23.257  22.103  0.1692  0.0207 -0.0555
88506W        W26000   3.464  24.727   5.237 -0.2503  0.2580 -0.0762
88507W        W26001  11.483  30.014   3.067 -0.0458  0.3736 -0.0607
88508W        W26002   3.606  14.977   4.694 -0.2067 -0.1128 -0.0380
88509W        W26003   9.715  20.968  15.878 -0.2041  0.2007  0.2702
88510W        W26004  33.105  24.229  25.319 -0.5331  0.4017 -0.1636
88511W        W26005   6.024  24.942   3.385  0.3436  0.0523 -0.1105
88512W        W26006   5.154  26.792   2.217 -0.0211 -0.0895 -0.0431
88513W        W26007  11.212  13.723  18.931  0.2151  0.2384  0.2057
88514W        W26008  16.829  32.690  21.651 -0.1284 -0.0942  0.2551
88515W        W26009  18.071  28.761   5.421 -0.2312  0.2010 -0.0363
88516W        W26010   0.818  23.460  16.914  0.1472  0.1353 -0.0592
88517W        W26011  21.476  19.803   5.936 -0.0089 -0.0019 -0.0213
88518W        W26012   9.427   8.012  20.301  0.0004  0.1749  0.0220
88519W        W26013  25.386  31.459  16.922 -0.2354 -0.1501  0.2154
88520W        W26014  29.299  31.804   0.738 -0.0109  0.2840 -0.3673
88521W        W26015  25.967  12.440  22.818  0.0835 -0.0193 -0.2073
88522W        W26016   2.808   1.854  21.968 -0.2188 -0.0528  0.0989
88523W        W26017   7.612  34.663  22.703  0.2758 -0.0569  0.4641
88524W        W26018  13.258   8.167  11.864  0.3008 -0.0636 -0.2432
88525W        W26019  23.157  34.973   4.720  0.4166 -0.0926 -0.1141
88526W        W26020  24.874  29.999   3.901  0.0069  0.2360  0.2062
88527W        W26021  27.998  27.682  21.112  0.0684 -0.0202  0.0609
88528W        W26022   2.058  13.253  12.901 -0.4347  0.0079  0.1544
88529W        W26023  34.627   3.140   3.533  0.1716 -0.3935 -0.2476
88530W        W26024   8.550   8.838  10.613 -0.4941  0.1283 -0.0921
88531W        W26025  28.080  34.790  20.377 -0.1959  0.1900 -0.0790
88532W        W26026   8.612  35.313  11.398 -0.5022  0.1373 -0.1795
88533W        W26027   4.284  35.227  10.101  0.2690  0.0511 -0.3516
88534W        W26028  10.469  13.347  23.067 -0.0836  0.1929  0.1376
88535W        W26029  10.573  35.053  15.272 -0.0179  0.2043 -0.2588
88536W        W26030   8.055   9.315   6.674 -0.0044 -0.1196  0.0025
88537W        W26031  13.360  28.072  11.166 -0.1129  0.0034 -0.2159
88538W        W26032  24.265  32.450  21.427 -0.1352 -0.1290  0.1106
88539W        W26033  10.681  29.004  10.174  0.1266 -0.2384  0.3726
88540W        W26034  31.378  18.284  15.706  0.1693 -0.0400 -0.2437
88541W        W26035  25.686  25.146  21.445 -0.3459 -0.0423  0.2500
88542W        W26036  12.980  30.950  25.219 -0.2458  0.0932  0.0910
88543W        W26037   8.821  33.946  13.161 -0.1223 -0.2396 -0.0569
88544W        W26038  11.997  34.918   9.255  0.2976  0.1786  0.0204
88545W        W26039  12.566  21.641   4.585 -0.2300 -0.2039  0.1458
88546W        W26040  26.292  17.035  26.090 -0.0804  0.1800  0.3764
88547W        W26041  12.972  26.789  24.233  0.0065 -0.0885  0.0837
88548W        W26042   1.643  24.092  14.519 -0.2145  0.1128 -0.0559
88549W        W26043   8.944  14.930  24.844 -0.0819  0.1179  0.2746
88550W        W26044  31.310  22.579   6.487 -0.1117 -0.1373 -0.0259
88551W        W26045  24.018  18.494  19.851  0.0248  0.0046 -0.2333
88552W        W26046   9.631  10.874   6.719 -0.0029 -0.0412  0.0415
88553W        W26047  31.905   1.254  23.711 -0.0151  0.3504 -0.1124
88554W        W26048   0.875  29.093  17.927 -0.0008  0.1361  0.0581
88555W        W26049  21.734   0.150  24.811  0.0619  0.1873  0.3039
88556W        W26050  17.699   1.409  16.206 -0.1364  0.0479  0.1737
88557W        W26051  27.148   7.054  25.778 -0.1785  0.1552  0.0439
88558W        W26052  28.765  25.514  11.413  0.2578 -0.3627  0.0868
88559W        W26053   7.374  22.796  22.680  0.0740  0.0352 -0.1813
88560W        W26054  19.341   6.892  19.340 -0.3705  0.1292  0.0143
88561W        W26055  11.139  12.959  20.664 -0.0240 -0.2542 -0.0372
88562W        W26056  11.989  30.319   1.866 -0.1475  0.1668 -0.0533
88563W        W26057  18.863   2.804   1.827  0.0113  0.2173  0.0510
88564W        W26058  12.398  28.831  23.506  0.1063 -0.0458  0.1495
88565W        W26059  18.239  26.813  22.495 -0.0752  0.4276  0.0181
88566W        W26060   8.112   6.322   5.862  0.0271  0.0658 -0.0274
88567W        W26061   7.773   5.963  22.576 -0.0610  0.0021  0.0746
88568W        W26062  31.816   1.677   1.813  0.5396  0.1235  0.4053
88569W        W26063   3.849  34.492   5.732 -0.1280  0.0859 -0.0213
88570W        W26064  17.772   1.170  23.465  0.0143 -0.0322 -0.0053
88571W        W26065  14.133  11.539   4.969 -0.0880 -0.4074 -0.1032
88572W        W26066   0.065  15.811  22.888  0.2296 -0.1076  0.1904
88573W        W26067   3.202  11.528  17.464  0.1855 -0.1098 -0.1549
88574W        W26068  19.318   5.138  10.774 -0.0437  0.0154 -0.1934
88575W        W26069   2.660  20.541  22.800  0.0214 -0.1640  0.2767
88576W        W26070  31.916   2.805  19.406  0.0348  0.1452 -0.0143
88577W        W26071   5.467  35.017  25.618 -0.1564  0.2746  0.2416
88578W        W26072  34.942   7.026  23.633 -0.0565 -0.0182 -0.0903
88579W        W26073  12.580  27.695  13.440 -0.1796  0.1938 -0.0992
88580W        W26074  16.357   6.024  10.208  0.1831  0.0015  0.0245
88581W        W26075  24.435  33.303  18.065 -0.2546 -0.2790 -0.1260
88582W        W26076   8.879  11.538  11.262  0.0518 -0.2792 -0.3891
88583W        W26077  30.997  33.306   3.475  0.0078 -0.0032 -0.0790
88584W        W26078   9.793  10.694  18.727  0.1214  0.0378 -0.3593
88585W        W26079  13.532   6.810   7.760  0.1025  0.1301 -0.1490
88586W        W26080  15.120  14.308  25.401  0.2280  0.0881 -0.1318
88587W        W26081  33.452  10.295  10.473 -0.1466 -0.2337  0.0375
88588W        W26082  29.964  18.211   5.649  0.0989  0.0953  0.4103
88589W        W26083   5.510  22.958   2.769 -0.1967 -0.0187  0.1516
88590W        W26084  18.055   8.412   7.313 -0.1213 -0.0405  0.2887
88591W        W26085  27.408  27.316  14.930 -0.1148  0.0394  0.1526
88592W        W26086   8.355  15.499   5.019  0.0806  0.1171 -0.1628
88593W        W26087   9.246  21.490   5.488  0.2255  0.1878 -0.1961
88594W        W26088  27.420  19.767   5.812  0.1518 -0.0606  0.2497
88595W        W26089  29.241  16.013  24.733 -0.1221 -0.0894  0.1554
88596W        W26090  22.954  26.197  13.961 -0.1829 -0.1847 -0.1448
88597W        W26091  30.302   7.217  18.508 -0.2368  0.0125  0.1005
88598W        W26092   9.273  19.109   5.259  0.2186  0.0072  0.0443
88599W        W26093  22.355   8.803  26.127 -0.0055 -0.1927  0.0005
88600W        W26094  35.226  12.980  17.488 -0.2847 -0.1423  0.1689
88601W        W26095  12.217  20.940   2.081  0.1939  0.2821  0.0037
88602W        W26096  10.710  15.890   8.053 -0.0217 -0.0755  0.0261
88603W        W26097  17.663  24.774   3.507 -0.1053  0.0833 -0.0074
88604W        W26098  10.399   9.495  14.353 -0.2367  0.0723  0.0638
88605W        W26099  27.483  11.484  13.056  0.0796 -0.2318 -0.0372
88606W        W26100  13.882  18.553   4.160 -0.0196  0.4332  0.1615
88607W        W26101  26.500  15.642  16.769  0.0463 -0.2124  0.0006
88608W        W26102  15.182  10.931  13.156 -0.0978  0.1758  0.0070
88609W        W26103  25.520  27.320   1.395 -0.0690 -0.0593  0.0252
88610W        W26104  24.507  14.830  18.711 -0.0519 -0.1013 -0.2171
88611W        W26105   2.928  33.918  19.617 -0.0880 -0.2415  0.1978
88612W        W26106   5.716   3.447   9.447  0.0019 -0.2458 -0.4298
88613W        W26107  31.329  35.224  23.572 -0.1953  0.1499  0.0714
88614W        W26108  19.603  23.463  19.956 -0.0450  0.0519 -0.1555
88615W        W26109  22.667  31.286  15.475  0.1068 -0.1837 -0.0810
88616W        W26110  32.201  18.984  22.517  0.2264 -0.2292 -0.1041
88617W        W26111  11.265   5.437   3.607  0.0472 -0.1703  0.0253
88618W        W26112  16.175   5.651  21.020 -0.1796  0.3210 -0.0333
88619W        W26113  23.727   5.040  14.740  0.3402 -0.1561 -0.1008
88620W        W26114  28.464  28.534  12.595 -0.1854 -0.0434 -0.2277
88621W        W26115  29.262  24.050  19.500 -0.0036  0.3868 -0.3591
88622W        W26116  30.446  25.698  11.246 -0.1037  0.1685 -0.1505
88623W        W26117   2.155   1.152  17.150 -0.0431  0.1484  0.0053
88624W        W26118  18.431  32.785   5.283  0.2183 -0.1087  0.0657
88625W        W26119  31.572  20.693  20.735  0.0693  0.1360 -0.2500
88626W        W26120  17.094  30.473   5.051  0.0261  0.1566  0.1579
88627W        W26121  20.704  13.791  24.259 -0.0837  0.0828 -0.1061
88628W        W26122  21.257  29.922   5.530  0.1443  0.1030 -0.1091
88629W        W26123  26.426   4.854  17.437  0.1528  0.0570  0.0596
88630W        W26124   7.770  28.889  22.481 -0.0514 -0.0694 -0.0407
88631W        W26125  16.269   9.946   7.191 -0.0656  0.0287  0.2983
88632W        W26126  22.499  13.996  19.146  0.1657 -0.0294 -0.0010
88633W        W26127   0.381  25.241  20.773  0.1453 -0.1968 -0.0445
88634W        W26128  15.173  27.818  15.190 -0.0261  0.0311 -0.1945
88635W        W26129  31.714  20.372  21.253  0.2817  0.1559  0.1893
88636W        W26130  18.307   0.686  19.019  0.1125 -0.2513  0.2035
88637W        W26131  19.358   8.274  19.717  0.1161 -0.0463 -0.0504
88638W        W26132  30.050  33.029  11.446 -0.0176  0.0818  0.0864
88639W        W26133  35.363  33.207  18.157  0.3285  0.1059  0.1807
88640W        W26134   6.659   4.764   2.749 -0.2923 -0.0221 -0.1325
88641W        W26135   5.968   1.113  13.353  0.0300  0.0428  0.0222
88642W        W26136  10.734   4.531  25.923  0.0728 -0.0895 -0.0082
88643W        W26137  18.208   2.689  26.077 -0.0263  0.1826 -0.0324
88644W        W26138  22.265  23.032   0.203  0.0427  0.1838  0.0861
88645W        W26139   1.753  25.768  23.139  0.0624  0.3845 -0.0533
88646W        W26140  25.755  10.885   0.289 -0.2434 -0.2188  0.0085
88647W        W26141   3.264  31.809  21.643  0.2108  0.0173  0.0184
88648W        W26142  25.181  19.962  12.548  0.1281 -0.1997 -0.0130
88649W        W26143  10.720   5.421  20.800 -0.0096 -0.0982  0.0927
88650W        W26144  24.432   0.874  11.507  0.1850  0.1986 -0.1388
88651W        W26145   5.223   5.994  25.138 -0.2444 -0.2790  0.1475
88652W        W26146   1.472   9.977  22.871  0.1654 -0.2794  0.1057
88653W        W26147   4.059  15.616  19.512  0.0122 -0.1651 -0.1505
88654W        W26148  22.559  10.515   0.569  0.1210 -0.1712  0.1212
88655W        W26149  13.346   1.871  21.611  0.0538  0.2504  0.2137
88656W        W26150  34.847  14.125   1.172 -0.1873 -0.2496 -0.0349
88657W        W26151  18.015  24.375  12.694 -0.0485  0.0920 -0.3822
88658W        W26152  29.884  32.476  24.981  0.3668  0.3273 -0.0555
88659W        W26153   5.305   3.928   1.943  0.0058 -0.2499 -0.0500
88660W        W26154   7.473  23.975  13.849  0.3290  0.4050 -0.2458
88661W        W26155   1.023  12.574  19.722  0.1263 -0.1988 -0.1923
88662W        W26156   9.374  12.119  18.546 -0.1556  0.1770 -0.0990
88663W        W26157   8.368  16.417   9.210  0.3279  0.3169  0.1745
88664W        W26158  29.590  14.505  18.958 -0.0486  0.0123  0.2521
88665W        W26159  19.426  18.758   2.273  0.1598 -0.2357  0.0888
88666W        W26160  11.310  34.185  16.207  0.1074 -0.0788  0.1294
88667W        W26161  10.566   8.253  25.398 -0.2179  0.1014  0.3048
88668W        W26162   7.723   5.066   6.756 -0.0767 -0.1284 -0.0838
88669W        W26163  25.697  34.371  14.691  0.1836 -0.1013 -0.1638
88670W        W26164   1.461  30.218   8.899  0.0526  0.0763  0.1596
88671W        W26165  19.693   8.276   9.032  0.1747  0.2708 -0.1339
88672W        W26166  17.680   8.758  25.955 -0.1874  0.3397 -0.1083
88673W        W26167  16.574  15.794  21.329 -0.4120 -0.0988 -0.0074
88674W        W26168  21.353  25.339   3.344 -0.0658  0.0402  0.0807
88675W        W26169   2.404  35.126  19.703  0.2474 -0.0372 -0.2736
88676W        W26170  31.315  18.950  16.548  0.3118  0.0347  0.0359
88677W        W26171   3.571  29.858   1.704  0.1725  0.1936 -0.0628
88678W        W26172  33.626  20.100  23.031 -0.2214  0.0812  0.0465
88679W        W26173  25.254  18.846  10.666 -0.0408 -0.3711  0.2438
88680W        W26174  23.103  30.655  24.772 -0.0940  0.3010  0.0820
88681W        W26175   3.702  28.855   3.032 -0.1297 -0.0794 -0.1567
88682W        W26176  29.145  17.012  18.645  0.2385 -0.0042  0.0140
88683W        W26177  30.898   7.391  16.062  0.2165 -0.1447 -0.0768
88684W        W26178  25.053  12.459  20.329 -0.3673  0.0606 -0.0193
88685W        W26179  10.463   6.730   4.830  0.0970  0.0248  0.1036
88686W        W26180   3.009  15.048   2.017 -0.0974  0.0639  0.0606
88687W        W26181   4.162  24.947   5.663 -0.0662  0.1423  0.1815
88688W        W26182  21.158   9.301   1.132 -0.3329 -0.0693  0.0223
88689W        W26183  25.459  11.330  18.048 -0.3697 -0.0310  0.2831
88690W        W26184  27.963  30.660  16.062  0.0274 -0.1434 -0.3016
88691W        W26185   0.480   2.671  15.788 -0.0707  0.1715 -0.0639
88692W        W26186  17.855   7.302   7.568  0.0661 -0.2868 -0.0124
88693W        W26187  24.924  24.373   0.021 -0.0355 -0.0715  0.0814
88694W        W26188  25.577  21.981  15.648 -0.1545  0.1902  0.0843
88695W        W26189  30.562  19.036   5.576 -0.4118  0.4345 -0.0448
88696W        W26190   9.005  14.991   9.305  0.1735  0.0620 -0.0367
88697W        W26191  21.924  11.548  23.715  0.3525  0.0390 -0.4045
88698W        W26192   3.163  29.512   5.408  0.1883 -0.2347  0.2665
88699W        W26193   1.945  23.716  16.648 -0.0717 -0.0286  0.2188
88700W        W26194   9.386  24.402  26.018  0.2009 -0.1923 -0.0575
88701W        W26195   4.614   4.705  16.977 -0.2546  0.0152  0.1770
88702W        W26196  22.929   3.887  15.955 -0.1500 -0.0018 -0.1083
88703W        W26197   3.234  29.013  11.998 -0.4090 -0.0773 -0.2131
88704W        W26198  27.878  10.823  24.657 -0.0191  0.1152  0.2664
88705W        W26199  11.664  22.956  25.832 -0.1511  0.1580  0.2372
88706W        W26200  25.378  13.153  22.632  0.0368 -0.2799  0.1186
88707W        W26201   7.191  11.553  24.516 -0.0253 -0.2790  0.2130
88708W        W26202   8.076   8.215  20.017 -0.1977  0.3063 -0.0673
88709W        W26203  16.929  32.535   9.443 -0.0129  0.0878  0.0574
88710W        W26204   6.180  34.006  21.122  0.1249 -0.1218  0.1067
88711W        W26205  27.117  11.909   8.456  0.2064 -0.0678 -0.0196
88712W        W26206  11.131   3.918   2.528  0.0523  0.2849 -0.0937
88713W        W26207  25.157   3.287   4.163  0.1627 -0.0565  0.0008
88714W        W26208   6.386  34.254   6.836 -0.2556  0.0555 -0.2463
88715W        W26209  23.610  15.932  24.051  0.2154  0.3751 -0.2026
88716W        W26210   1.037   8.552  17.200 -0.1644  0.0005  0.0476
88717W        W26211   7.248  13.704   8.340  0.0204 -0.0449  0.2543
88718W        W26212  13.858  29.266   9.614 -0.1191 -0.2198  0.1117
88719W        W26213  32.838  18.660  18.912 -0.0424 -0.0867 -0.0712
88720W        W26214  24.097   4.915  15.030 -0.1609  0.0104 -0.1877
88721W        W26215   8.381  29.761  21.820 -0.0380 -0.0359  0.0417
88722W        W26216   8.039  21.267  12.887 -0.0008  0.1516  0.0421
88723W        W26217  25.060  26.277  18.496 -0.0300 -0.2600  0.1729
88724W        W26218  22.874   2.595  19.529  0.1504  0.0151 -0.1013
88725W        W26219  34.092  22.320  14.726  0.2967 -0.0081 -0.1837
88726W        W26220   6.579  10.828   5.652 -0.1278 -0.1832 -0.1392
88727W        W26221  17.860   1.196   9.482 -0.2166  0.1981 -0.0875
88728W        W26222   8.761  14.799  24.369 -0.3329 -0.5190  0.1930
88729W        W26223  14.355  30.396   8.436  0.2467  0.0363  0.1852
88730W        W26224   2.230   5.660   3.127  0.1321  0.2768  0.2234
88731W        W26225  18.597   1.146   1.563 -0.1102 -0.0263  0.1218
88732W        W26226  25.021   9.417  16.551 -0.0007 -0.0037  0.0710
88733W        W26227  15.647  14.808  23.746  0.1617  0.2321 -0.1449
88734W        W26228   8.450  24.312  16.049 -0.0328  0.1374  0.0256
88735W        W26229   6.700   9.857  23.757  0.2722  0.0824 -0.2657
88736W        W26230  34.375  30.610   1.304  0.0933  0.1519 -0.1104
88737W        W26231  26.563  33.301   0.965  0.1353  0.2927 -0.1342
88738W        W26232  34.750  13.658  13.827 -0.2464  0.2805  0.0679
88739W        W26233  17.842   1.671   8.466  0.2003  0.0913 -0.2316
88740W        W26234   7.082  17.222  10.666 -0.3740  0.0102 -0.0506
88741W        W26235  13.352  13.492  13.139 -0.5357  0.2177 -0.0901
88742W        W26236  33.812  16.450   8.307 -0.1503  0.0585 -0.2700
88743W        W26237   8.878  30.664   4.250  0.1298  0.0246 -0.2265
88744W        W26238   5.949   7.234  25.952 -0.2366 -0.1462  0.1677
88745W        W26239   6.109  26.250  10.392  0.3680  0.2373 -0.0721
88746W        W26240  21.215  15.911  19.635  0.0998 -0.1843 -0.0898
88747W        W26241  25.729   6.959  21.414  0.2548  0.0392  0.1880
88748W        W26242  21.120   6.476   8.486  0.0631  0.1714  0.0668
88749W        W26243  28.113   3.220  11.635 -0.1893  0.0353 -0.0943
88750W        W26244  18.993  27.254  25.027 -0.0123 -0.0112  0.3510
88751W        W26245   0.932  34.207   5.523  0.1365  0.1174 -0.2109
88752W        W26246  32.932  29.359  21.641  0.0646  0.0170 -0.1355
88753W        W26247   4.775  25.159   0.944 -0.1693  0.0924  0.3648
88754W        W26248  28.654  14.793  25.371  0.0658 -0.1319  0.1656
88755W        W26249  28.621  20.280  11.105  0.2442 -0.1133  0.3872
88756W        W26250  24.509   4.657  18.186 -0.1201  0.1620 -0.1851
88757W        W26251  20.659  14.235   1.416  0.1085  0.0363 -0.0781
88758W        W26252  33.022  11.774   8.186 -0.0402  0.3407  0.1297
88759W        W26253  18.516  22.178  11.696 -0.0165 -0.1677  0.1721
88760W        W26254  13.195  33.621   8.784 -0.0842 -0.1565  0.0175
88761W        W26255  17.834  12.343   9.185  0.1863 -0.0044  0.1095
88762W        W26256  22.018   6.790  25.850  0.1603 -0.0520  0.1378
88763W        W26257   9.539  25.408  12.256  0.1906 -0.4498  0.1348
88764W        W26258   9.119   6.548  13.235 -0.0818 -0.0794 -0.2156
88765W        W26259  28.861  26.560  24.783  0.0991 -0.1657 -0.3129
88766W        W26260  16.839   7.827  17.626 -0.2188 -0.1335  0.2934
88767W        W26261  16.541   1.277  19.173 -0.0091 -0.2103  0.2967
88768W        W26262   7.642   7.311   1.521  0.2959  0.2423  0.0784
88769W        W26263  32.552   4.888   5.326 -0.3995 -0.1772 -0.1193
88770W        W26264   8.893  12.392   1.028 -0.1102  0.0484  0.3643
88771W        W26265   0.193   5.592  20.786  0.0334  0.4153 -0.0150
88772W        W26266   5.777   4.190  20.808  0.1197 -0.0446  0.0926
88773W        W26267   3.944  31.219   3.990  0.0617 -0.2370  0.0871
88774W        W26268   0.165   7.481  13.045  0.1564  0.0418  0.1191
88775W        W26269   1.727  10.217  22.374  0.0008 -0.1290  0.1461
88776W        W26270  30.651  11.093  21.217 -0.0542 -0.1435  0.2120
88777W        W26271  31.495  22.382  10.638 -0.0825 -0.0595 -0.1638
88778W        W26272   3.656  25.649   6.872 -0.0614 -0.3020 -0.1029
88779W        W26273   3.620  31.091   6.537 -0.0351 -0.1107  0.1554
88780W        W26274   0.381  18.420   7.454 -0.2837 -0.0650 -0.2939
88781W        W26275  14.348   1.774  21.449 -0.2925 -0.2046 -0.0881
88782W        W26276  28.605  22.745  24.316 -0.1471 -0.0077 -0.0264
88783W        W26277  28.353  35.130   4.848 -0.0384  0.0777  0.0481
88784W        W26278  34.776   3.162  18.207  0.0093 -0.2491  0.1798
88785W        W26279  19.258  32.503  16.159  0.0154  0.0041 -0.0649
88786W        W26280   8.800  13.164   2.862 -0.2505 -0.2271  0.1892
88787W        W26281   2.024   6.170   2.925 -0.2871  0.0136  0.0938
88788W        W26282  11.102   9.286  10.917  0.0634  0.1088 -0.0767
88789W        W26283  29.878  30.510  22.738  0.1601  0.0396 -0.0804
88790W        W26284   8.616  11.021   9.003 -0.0917 -0.0808 -0.0152
88791W        W26285   7.659  14.196  20.293 -0.1441 -0.5509  0.0848
88792W        W26286  19.607   5.936  25.653 -0.0991  0.1898  0.0141
88793W        W26287  30.971  23.420  10.608  0.1578  0.1658 -0.3147
88794W        W26288   4.682  11.343   7.577 -0.2738  0.0109 -0.1093
88795W        W26289  34.513  22.632  21.015  0.1882 -0.0376  0.0121
88796W        W26290  20.260   9.478   2.125 -0.2732 -0.0869  0.1453
88797W        W26291  35.104  25.538  18.585  0.0011 -0.1479  0.1905
88798W        W26292   1.698  33.522  17.367  0.1483  0.2992 -0.0986
88799W        W26293   7.230  31.350   5.256  0.0382  0.2100  0.0938
88800W        W26294  10.817  18.502  11.887 -0.3381 -0.1084  0.0855
88801W        W26295  32.772  11.655  13.421  0.2225  0.2486 -0.2321
88802W        W26296   3.929  28.601  19.702 -0.0795  0.0125 -0.1989
88803W        W26297  23.121  22.967  25.788  0.2174 -0.0829 -0.2962
88804W        W26298   1.526  24.395   0.270 -0.0710  0.0312 -0.0721
88805W        W26299  11.629  31.664  22.167  0.0895 -0.0125 -0.2843
88806W        W26300  32.908  28.671  25.624 -0.3536 -0.0851 -0.2144
88807W        W26301  34.288   8.727  23.851 -0.1638  0.1850  0.1425
88808W        W26302  24.004  32.818  19.570 -0.2215 -0.2555 -0.0929
88809W        W26303   3.124  22.524   1.056 -0.1481  0.0448 -0.5433
88810W        W26304  28.972  21.951   6.524 -0.1549 -0.0623  0.4148
88811W        W26305  27.409  27.300  24.252  0.1192  0.0857  0.0366
88812W        W26306  20.859  27.721  21.758  0.0606 -0.1617 -0.0407
88813W        W26307  14.345   4.144   9.240  0.0219 -0.1474  0.0663
88814W        W26308  24.578  12.909   9.618 -0.1545  0.1005  0.0359
88815W        W26309  35.376  17.842  14.291 -0.1026 -0.2861  0.0878
88816W        W26310   9.038   3.010   1.237  0.2826 -0.2885  0.1976
88817W        W26311  13.078  15.796   4.309  0.0766 -0.1220  0.1017
88818W        W26312  29.600  32.767   2.744 -0.0968  0.1113  0.0938
88819W        W26313  32.321  23.606   8.130 -0.2754  0.0476 -0.1332
88820W        W26314  13.914  13.278   8.003  0.0598  0.3015 -0.1025
88821W        W26315  11.986  15.868  13.185 -0.0209  0.0139  0.0807
88822W        W26316  34.837  25.053  18.723  0.1756  0.0569 -0.0015
88823W        W26317  33.941  20.325  10.728  0.0106  0.1059  0.2657
88824W        W26318  24.322  23.373  18.263 -0.0349 -0.1826 -0.2214
88825W        W26319  30.508  28.224  25.888 -0.0642  0.3689  0.1053
88826W        W26320  14.044  19.393   8.600  0.1260  0.1581 -0.0700
88827W        W26321  32.272   9.027  13.155  0.2751  0.1899  0.0438
88828W        W26322  20.195   7.506  17.295 -0.2134 -0.1783  0.1966
88829W        W26323  13.523   5.123  10.236 -0.4218 -0.0131 -0.0798
88830W        W26324  16.371  12.508   5.330 -0.3377  0.0643 -0.1871
88831W        W26325   2.145  31.226   9.883 -0.0063  0.0062  0.0485
88832W        W26326  31.269  31.909   2.586  0.1604 -0.0043  0.0377
88833W        W26327  35.329  31.861   8.537 -0.0021  0.0630  0.0168
88834W        W26328  27.684  17.733  12.892 -0.0808 -0.0507 -0.1226
88835W        W26329  30.598   2.728   0.770  0.2577 -0.0403  0.0068
88836W        W26330   1.604  35.332  20.188 -0.1456 -0.1041 -0.1233
88837W        W26331   1.491   0.215   6.633  0.0178 -0.1479 -0.0627
88838W        W26332   5.586   8.756   8.319 -0.1011 -0.3146 -0.0735
88839W        W26333  14.672   2.084   5.606  0.4684  0.0864 -0.0171
88840W        W26334   7.054   2.052  11.676  0.2772  0.2243 -0.0090
88841W        W26335   3.390  26.560   4.891 -0.0993  0.2546  0.0844
88842W        W26336   6.295  14.193  19.201  0.1363 -0.0362  0.1532
88843W        W26337  15.090  29.565  23.374 -0.4619 -0.1725 -0.0099
88844W        W26338  12.417  13.329   1.408 -0.0178  0.1352 -0.2319
88845W        W26339  16.652   6.527   9.359  0.1424  0.2563  0.0048
88846W        W26340  30.851   8.401  26.053 -0.3503  0.1531  0.1422
88847W        W26341   9.642  32.303   7.353  0.2011 -0.0619 -0.0769
88848W        W26342  30.487  13.192  15.069 -0.1216 -0.1909  0.1267
88849W        W26343  32.755   2.641   1.263  0.2828 -0.0861  0.1509
88850W        W26344  23.277  28.171  18.121 -0.0001 -0.0078 -0.1955
88851W        W26345   4.822  16.981  23.560  0.1064  0.2392 -0.2999
88852W        W26346  34.624  34.890  26.089  0.3883 -0.1016 -0.2156
88853W        W26347  14.248  11.510   8.473 -0.0531 -0.1101  0.3331
88854W        W26348  29.505   5.476   9.654  0.1334  0.0555  0.2692
88855W        W26349  18.621  32.908  24.360 -0.2290  0.6179  0.2222
88856W        W26350  34.068   5.409  20.157  0.3601  0.2430 -0.1800
88857W        W26351  16.739  12.212   9.292 -0.2897  0.1611  0.0243
88858W        W26352   2.975   1.153   8.605 -0.3444  0.1490 -0.2385
88859W        W26353  28.945  27.171   1.313 -0.0490  0.0253 -0.2965
88860W        W26354   5.533   9.696  25.003  0.0865 -0.0759  0.0707
88861W        W26355  15.961  25.249  12.827  0.2266 -0.0877  0.1912
88862W        W26356   2.306  18.799  14.618  0.0428  0.1794  0.2354
88863W        W26357  26.876  19.897  11.100  0.3510  0.3597 -0.0795
88864W        W26358  13.121   2.492   6.991 -0.1517  0.0801  0.2228
88865W        W26359  12.352  13.833   8.610  0.0613  0.2201  0.1440
88866W        W26360  29.535  23.672  13.742  0.2096 -0.1640  0.0365
88867W        W26361   1.350  11.667  14.898 -0.1818 -0.0044  0.0310
88868W        W26362  23.798  12.156  19.675  0.3430  0.2025  0.2556
88869W        W26363  31.283  14.578  23.124  0.0678  0.1561  0.0424
88870W        W26364  19.133  17.617   8.352  0.2343  0.0133  0.1866
88871W        W26365   3.765  28.204   7.447 -0.2611  0.0405  0.4195
88872W        W26366   4.462   8.860   6.081 -0.0294  0.0372  0.0256
88873W        W26367  27.664  24.030  15.462 -0.0246 -0.0485  0.1094
88874W        W26368   8.185   2.065  10.858 -0.0703 -0.0797  0.1155
88875W        W26369  29.185   4.252  26.013 -0.0167  0.0957  0.0954
88876W        W26370  21.280  18.879   2.422  0.0510  0.0157  0.1072
88877W        W26371   5.876  26.361  21.773 -0.3477  0.2573  0.0082
88878W        W26372  28.861  11.639  13.774 -0.4780 -0.2048  0.0226
88879W        W26373  12.081  24.920  23.075 -0.1774 -0.1314  0.0657
88880W        W26374  10.442  26.748  10.381  0.0131  0.0680 -0.1203
88881W        W26375  13.810   9.846  13.990 -0.1635 -0.0109 -0.0015
88882W        W26376  34.240  27.893  16.582 -0.1389 -0.0269  0.0510
88883W        W26377  27.401   1.691  18.382  0.1674 -0.0145  0.2320
88884W        W26378  30.269  29.123  14.624  0.2946 -0.1431  0.2991
88885W        W26379  34.177  20.299  21.858  0.1914  0.0145  0.1285
88886W        W26380  34.427  15.456  25.394 -0.0978  0.0058  0.3581
88887W        W26381  26.191  10.066  17.609  0.1863  0.1332 -0.1649
88888W        W26382  26.433   0.555   0.476 -0.0390  0.0812  0.2144
88889W        W26383  29.071  28.742  25.955 -0.0454  0.1622 -0.0353
88890W        W26384  17.947  12.324  12.381 -0.1109  0.1510 -0.2431
88891W        W26385  16.980  15.635   8.270 -0.2300 -0.0824  0.0606
88892W        W26386  24.007  14.933  12.888  0.0240 -0.2555  0.0923
88893W        W26387  32.898  16.623  14.685 -0.1224  0.1291  0.0367
88894W        W26388  21.046  21.433   1.817 -0.2294 -0.1570  0.2652
88895W        W26389   4.614   9.640  23.891  0.0788  0.1434 -0.0365
88896W        W26390  16.926  14.090   1.433 -0.0581 -0.0454  0.2854
88897W        W26391   9.455  12.532  10.257 -0.1481 -0.1232 -0.0827
88898W        W26392   8.917  29.869   0.884 -0.1117 -0.1794 -0.0778
88899W        W26393   3.823  32.317   4.845  0.3622 -0.3545 -0.1422
88900W        W26394  33.833  31.253   6.946  0.0817 -0.0554  0.1321
88901W        W26395   5.366   4.263   9.752  0.1786  0.1936 -0.0618
88902W        W26396  13.264  16.880   4.812  0.2184  0.0747 -0.3404
88903W        W26397   4.733  34.438   1.693  0.0297  0.0388 -0.2404
88904W        W26398  21.508  23.322  18.950  0.0683  0.4588 -0.0353
88905W        W26399  14.248   3.509  19.310 -0.1195  0.0866  0.1088
88906W        W26400   5.418  33.404  12.560  0.1251 -0.5152  0.1376
88907W        W26401  16.610  33.962  25.233  0.0002 -0.3370  0.4105
88908W        W26402  32.042  18.685  15.163 -0.0533 -0.0092  0.1493
88909W        W26403  15.917  23.465  23.280  0.1702 -0.2680 -0.1641
88910W        W26404  27.619  29.539  23.782  0.0525  0.0662  0.0370
88911W        W26405  14.538   0.782  24.797  0.1713 -0.1707  0.0614
88912W        W26406  21.075  33.315  21.282 -0.2012 -0.0779 -0.0541
88913W        W26407   7.392   4.448   3.775  0.0295  0.0233  0.1582
88914W        W26408  11.461  22.986   9.284 -0.2285  0.2285  0.3084
88915W        W26409   8.109   6.987   7.716 -0.4045 -0.2240 -0.3571
88916W        W26410  23.037   1.350  18.043 -0.2651 -0.0016  0.1299
88917W        W26411  28.009  15.081   8.792 -0.0388  0.0557 -0.1203
88918W        W26412  29.781  12.490   0.492  0.2603 -0.0910 -0.0295
88919W        W26413  29.629  14.849  18.550 -0.1162  0.2446 -0.0798
88920W        W26414  34.468   9.747  15.179  0.2193  0.0293  0.1385
88921W        W26415  14.435  16.857  13.733  0.2044  0.1951 -0.1389
88922W        W26416  11.469  16.890  20.590  0.0079 -0.1444  0.0678
88923W        W26417  14.393  33.250  12.235  0.1534 -0.0342  0.3364
88924W        W26418  12.830  12.158   3.499  0.0009  0.1798  0.0648
88925W        W26419  18.074   8.027  22.373  0.0199  0.0725  0.0036
88926W        W26420  24.968  35.009   6.415  0.2173 -0.1444 -0.0808
88927W        W26421   8.411  29.927  24.958  0.2484 -0.3069  0.4745
88928W        W26422  27.691  32.568  14.473 -0.2665 -0.5594  0.5168
88929W        W26423  19.854  23.310   4.615  0.2219  0.2567 -0.1353
88930W        W26424  10.032  15.768  21.686 -0.2343  0.2257 -0.2581
88931W        W26425   9.606  30.732   0.628  0.2088  0.1426  0.1502
88932W        W26426  34.823   6.772  21.426 -0.0258 -0.0760  0.2046
88933W        W26427  14.650  34.805  21.316 -0.1322 -0.1140 -0.2473
88934W        W26428   4.272  29.943   3.976 -0.2037 -0.1187 -0.1561
88935W        W26429   0.171  12.447  12.877  0.1784  0.0323  0.0157
88936W        W26430  27.019  34.924  25.725  0.1207  0.1103  0.0728
88937W        W26431  23.468  33.419  16.487 -0.2162 -0.0742  0.1806
88938W        W26432   5.095  19.245   1.409  0.2254 -0.0087 -0.3172
88939W        W26433   8.729  34.931   0.453 -0.3891 -0.2958 -0.4932
88940W        W26434   1.725  30.291   0.200 -0.2436 -0.1189 -0.2022
88941W        W26435  33.867  34.780   0.943  0.0878  0.2706  0.2077
88942W        W26436  29.215  25.123  13.309  0.2065 -0.1628  0.0669
88943W        W26437  31.828  16.071  15.390 -0.0978  0.0954  0.0269
88944W        W26438  14.483   3.912  18.715 -0.0196 -0.2241  0.0149
88945W        W26439  15.590   1.415   0.921  0.0079  0.0293 -0.2057
88946W        W26440   6.843  25.066  13.919  0.0134 -0.0151  0.0344
88947W        W26441   1.047   7.120  23.555 -0.0921 -0.1716 -0.0853
88948W        W26442   8.695  32.443  10.799 -0.0308  0.0366  0.0058
88949W        W26443  19.441  11.409   7.343 -0.1469  0.1814 -0.2604
88950W        W26444   8.312  29.503  23.822 -0.2495  0.0964  0.3246
88951W        W26445  27.614  10.508  18.052  0.0412 -0.0671 -0.2136
88952W        W26446  16.839  17.246   5.169  0.1344  0.3062  0.1510
88953W        W26447  22.257  30.871  21.838  0.1242  0.1839 -0.3408
88954W        W26448   3.534  23.052   2.881  0.1416  0.2925  0.3916
88955W        W26449  20.240   9.497   8.363 -0.0337  0.0562  0.1881
88956W        W26450   0.341   3.638  23.069  0.1177 -0.2514 -0.0426
88957W        W26451   0.096  14.947  22.524  0.0077  0.2394 -0.1655
88958W        W26452  21.457   0.116   1.502 -0.1582  0.0370 -0.0574
88959W        W26453  33.006  31.480   4.766 -0.1592  0.3821 -0.3635
88960W        W26454  28.390   0.363  11.325 -0.2991  0.0603 -0.0540
88961W        W26455  29.436  30.645   1.765 -0.4455 -0.1041 -0.0188
88962W        W26456  12.624   0.658   5.714 -0.1055 -0.0795  0.0289
88963W        W26457  26.901   9.017  16.916 -0.2281 -0.1860 -0.0159
88964W        W26458   6.509  25.902  22.330  0.0263  0.1986  0.1298
88965W        W26459  14.929   1.285  19.052 -0.1434  0.2050  0.2496
88966W        W26460   1.405  20.481  25.960 -0.3355 -0.0137  0.2795
88967W        W26461  16.131  26.206   4.829 -0.2875  0.1755  0.1768
88968W        W26462  14.714   7.331   0.226 -0.1006 -0.0052 -0.1983
88969W        W26463  15.348   3.727   2.788 -0.1976  0.0460  0.3043
88970W        W26464   5.092  23.665  21.547 -0.0359 -0.2888  0.1468
88971W        W26465   2.062  17.285  23.867  0.1715 -0.1513 -0.1149
88972W        W26466  12.558   8.777   4.832  0.1636  0.2344 -0.0838
88973W        W26467   8.431   3.252   8.978  0.0771 -0.3210 -0.0534
88974W        W26468  26.045  18.558  23.448  0.1019 -0.0324 -0.1468
88975W        W26469  26.587  21.264  10.921 -0.1890  0.1122 -0.2223
88976W        W26470  21.952   9.155  22.129 -0.1776  0.2802 -0.2401
88977W        W26471  25.557  26.026  10.651  0.0409 -0.0456 -0.0224
88978W        W26472   7.346  12.256  18.590 -0.2408  0.0634  0.1069
88979W        W26473  27.497   1.052  12.749  0.2068  0.1880 -0.1235
88980W        W26474   3.227   5.633  22.255  0.2405  0.0532 -0.2806
88981W        W26475   8.432  11.060   5.192  0.0522  0.1852  0.0642
88982W        W26476   8.421  26.334  15.153 -0.0776  0.1002 -0.2946
88983W        W26477  22.016  10.732  21.665  0.3293 -0.3306  0.2153
88984W        W26478  13.595   6.549   8.706  0.0578 -0.1643  0.4370
88985W        W26479  21.673  25.900  15.756  0.1490 -0.0242 -0.0678
88986W        W26480  26.196  29.601  15.637  0.2884 -0.2467 -0.1311
88987W        W26481  10.764  20.101  12.776 -0.0373 -0.0115 -0.1536
88988W        W26482  15.570  11.374  19.406 -0.2004 -0.4319  0.1880
88989W        W26483  16.444   0.826   3.105  0.1541 -0.3209  0.0449
88990W        W26484   9.114  29.679   4.728  0.0461  0.1046 -0.1692
88991W        W26485  27.207  16.346  22.891  0.0167 -0.0203  0.0342
88992W        W26486  21.711  24.699  18.744 -0.2833 -0.2546  0.3508
88993W        W26487  22.621   4.730  23.945 -0.1457  0.2749  0.1113
88994W        W26488   2.981   4.266  24.313 -0.2799  0.2676  0.0925
88995W        W26489  29.148  11.790  19.646 -0.1159 -0.0269 -0.0561
88996W        W26490  15.480  33.089   0.364 -0.2800 -0.0525 -0.2932
88997W        W26491  19.314  20.684  19.607  0.1573  0.0698  0.1479
88998W        W26492  32.830  23.479  11.206 -0.0182 -0.1323  0.1060
88999W        W26493  19.587  16.023  25.055 -0.1233 -0.0613  0.1884
89000W        W26494  17.451  19.590  22.817 -0.0767 -0.1042  0.3806
89001W        W26495  32.338  15.154   9.894  0.1662 -0.0296  0.1476
89002W        W26496   0.777   9.441   4.096 -0.3675  0.1796 -0.0018
89003W        W26497  19.411   6.283   5.931 -0.3641 -0.3003  0.1152
89004W        W26498  31.134  19.777  12.852  0.2646 -0.0049 -0.3196
89005W        W26499   3.416   2.558   7.407  0.2503  0.0788 -0.0824
89006W        W26500  20.232  15.884  21.325  0.0874 -0.1922  0.0814
89007W        W26501  12.903   9.937  11.445  0.0587  0.1204 -0.0229
89008W        W26502   9.744  23.938   9.989 -0.0849 -0.2459  0.0638
89009W        W26503   3.003   5.127  23.684 -0.2061 -0.2638  0.0060
89010W        W26504  19.859  26.404   4.294  0.0376  0.1625  0.0963
89011W        W26505   1.367   0.871  26.164 -0.0631  0.0891  0.0061
89012W        W26506   1.948  25.890  19.797  0.2604  0.2472  0.1020
89013W        W26507  27.133  32.389  11.762 -0.0071  0.0122 -0.1656
89014W        W26508  24.095  11.786  18.433 -0.0148 -0.0306  0.0406
89015W        W26509  15.804  24.185   7.065 -0.0668  0.0913  0.0325
89016W        W26510  16.671  28.027   8.074 -0.1061 -0.0754  0.2601
89017W        W26511  16.582  27.899  24.637  0.1882 -0.5500 -0.0368
89018W        W26512   7.004  32.186   7.339  0.0705 -0.1641 -0.0369
89019W        W26513   4.603  29.441  25.575  0.1283  0.0810 -0.2618
89020W        W26514  13.530  32.434  13.893 -0.0150 -0.0843  0.0673
89021W        W26515  30.002  15.457  16.577  0.1968 -0.1236  0.2155
89022W        W26516   0.263  22.038   2.184 -0.1387 -0.2904 -0.1171
89023W        W26517  28.464  24.095  17.931 -0.3230 -0.1185 -0.2306
89024W        W26518  23.446  16.558  13.070 -0.1874  0.1336 -0.0418
89025W        W26519   9.454   3.158  11.818  0.1067 -0.1188  0.0963
89026W        W26520  18.040  13.580   8.111 -0.1701 -0.1801 -0.2388
89027W        W26521  20.968  35.106  19.603 -0.3073 -0.3225 -0.4407
89028W        W26522  27.932  32.566  15.566  0.1584 -0.0329 -0.2098
89029W        W26523  20.038   1.286  15.888  0.1948 -0.2433  0.2498
89030W        W26524  16.795  30.768   4.701 -0.1306  0.1506 -0.1505
89031W        W26525  27.328  15.389   4.761  0.1825 -0.1519 -0.0865
89032W        W26526  20.791  33.303  16.495  0.0526  0.2087  0.6604
89033W        W26527   8.634   4.949   4.785  0.0717 -0.1221 -0.1492
89034W        W26528  11.258  33.785   1.360  0.0703 -0.0002 -0.0407
89035W        W26529  12.747  35.033  24.759  0.0175 -0.1283  0.0392
89036W        W26530  29.330   7.556  20.511 -0.2619 -0.2748 -0.3828
89037W        W26531  27.241  27.787  11.851  0.0269 -0.1615 -0.0079
89038W        W26532  14.787   9.788   5.495 -0.1934  0.4211  0.0036
89039W        W26533  17.302   6.044  23.014  0.0157 -0.2184 -0.1378
89040W        W26534  29.532  19.686  18.621 -0.4963  0.2602  0.0122
89041W        W26535  20.883  30.963  24.114  0.2325 -0.1965 -0.0088
89042W        W26536  31.974  16.347   9.711 -0.2720 -0.0104 -0.0010
89043W        W26537  19.708  29.977  21.128 -0.1703  0.0012  0.1579
89044W        W26538  17.087  14.884  23.412  0.1861  0.2562  0.0136
89045W        W26539   9.174   5.931   3.795 -0.1920  0.2713  0.0508
89046W        W26540  34.325  31.194  20.105 -0.3204  0.0665  0.0713
89047W        W26541  25.600  34.244  15.866  0.0124 -0.1520  0.1567
89048W        W26542  11.360  18.716  20.825 -0.0655 -0.3245 -0.1781
89049W        W26543   6.441  23.679  25.898  0.3821 -0.1245  0.1102
89050W        W26544  21.944  25.942   4.100  0.1481 -0.2273  0.3187
89051W        W26545   6.686  20.489   4.854  0.1103  0.1882 -0.0484
89052W        W26546  11.760  29.548  10.070  0.0519  0.0903 -0.1317
89053W        W26547  16.306   1.138  20.292 -0.4037  0.1774  0.1625
89054W        W26548  27.131  17.486  19.665  0.1299 -0.0575  0.3305
89055W        W26549  27.409  16.980  11.002  0.1564 -0.0057  0.0148
89056W        W26550  26.227  31.970  16.713  0.1560  0.0139  0.3507
89057W        W26551  28.858  22.077  17.030 -0.0335 -0.1554  0.2975
89058W        W26552  20.336   1.443  19.636  0.0313 -0.2093  0.4543
89059W        W26553  12.769  19.113  15.876 -0.2439 -0.2942  0.0862
89060W        W26554  26.159  19.111  18.726  0.1544  0.0012  0.1038
89061W        W26555   7.432  19.671   6.786 -0.0205 -0.0289  0.3050
89062W        W26556  23.971  26.481  25.428  0.1759 -0.0478  0.2547
89063W        W26557  14.790  26.941  26.035 -0.1580 -0.1987  0.2680
89064W        W26558   6.462  19.283   3.841  0.2574 -0.0040  0.2431
89065W        W26559  31.817  16.460   6.257 -0.0641 -0.1769  0.1552
89066W        W26560  32.279   6.609  18.558 -0.1332  0.0937 -0.1436
89067W        W26561  15.403   4.480  17.942  0.0955  0.1432  0.3021
89068W        W26562   2.774  12.556  21.286  0.3013  0.2623  0.1837
89069W        W26563  22.428   1.382   7.015  0.0172  0.0288  0.0551
89070W        W26564  14.241  22.005   9.343  0.1500 -0.4475 -0.0954
89071W        W26565  27.381  21.357  24.821 -0.3491 -0.3261  0.0224
89072W        W26566   6.593  24.033  24.951 -0.0050 -0.0649 -0.1128
89073W        W26567  32.850  12.053  19.752 -0.1060 -0.3221 -0.1765
89074W        W26568   5.716  13.657  18.106  0.2953  0.0944  0.2728
89075W        W26569   7.529   0.212  11.535  0.1442 -0.4011  0.1435
89076W        W26570  32.902  16.145  16.904 -0.3647 -0.3559 -0.2577
89077W        W26571   7.386  33.210   5.081 -0.0724 -0.2367 -0.2239
89078W        W26572  10.872  32.722   0.578 -0.0334  0.1733  0.4146
89079W        W26573  11.000  28.928  15.190  0.1712  0.4555 -0.0573
89080W        W26574   3.717  16.835  20.900 -0.0824  0.0538  0.2515
89081W        W26575  34.786   2.042  20.548 -0.3096  0.2276 -0.2568
89082W        W26576  23.526   3.496  16.749  0.2727  0.0550  0.0695
89083W        W26577  10.687   9.146  22.003 -0.0475  0.1394 -0.0176
89084W        W26578  28.128  17.602  10.630 -0.0573 -0.1442  0.0732
89085W        W26579  13.533  12.346   6.740  0.1643 -0.0090  0.0622
89086W        W26580  26.425  28.707   9.409 -0.3344 -0.1551  0.3695
89087W        W26581  27.332  12.289  20.639 -0.2060 -0.1125 -0.0397
89088W        W26582  11.500   1.946  19.800  0.3184 -0.3656 -0.1564
89089W        W26583   0.686  22.127  19.672  0.0588 -0.0247  0.1350
89090W        W26584   3.112  14.636   0.574  0.2789  0.0300  0.2526
89091W        W26585  24.862  32.329  20.639 -0.1514  0.1446  0.3023
89092W        W26586  12.298  17.256  21.567  0.0989  0.3787 -0.2749
89093W        W26587  25.531   0.933  21.930  0.1577 -0.0923  0.0193
89094W        W26588  19.576  14.688  18.585 -0.0982 -0.3029  0.0156
89095W        W26589  18.883   6.781  20.888 -0.1488 -0.0024  0.0738
89096W        W26590  25.418  26.412  23.532 -0.1252 -0.0493  0.4678
89097W        W26591   2.953  26.103   5.032 -0.0290 -0.3386  0.2304
89098W        W26592  26.101  21.388  20.072 -0.3698 -0.1197 -0.1818
89099W        W26593  30.782  28.225  18.727  0.1534  0.2773  0.4854
89100W        W26594  12.190  34.548  21.030  0.2269 -0.1580 -0.4329
89101W        W26595  17.899   1.277  19.340  0.4204  0.1335  0.0482
89102W        W26596  22.224  28.427  13.095  0.0345  0.2271  0.3904
89103W        W26597  29.208   9.108  20.298  0.4167  0.2155 -0.0131
89104W        W26598   5.893  29.852  10.225 -0.2434  0.1475  0.0165
89105W        W26599  29.005  20.011  23.253 -0.1355  0.2940 -0.1795
89106W        W26600   8.646   5.012  14.525 -0.0639  0.3076 -0.3686
89107W        W26601  29.766  12.915  19.190  0.2382  0.0775 -0.2866
89108W        W26602  32.301  31.941   6.851  0.2062  0.0350  0.1500
89109W        W26603   7.803  28.876  23.345 -0.6291 -0.1714 -0.3347
89110W        W26604  23.705  34.617   1.522 -0.0159 -0.1230 -0.0520
89111W        W26605  19.378  27.181  22.959 -0.1795 -0.1065  0.1381
89112W        W26606  18.072  22.081  25.603 -0.0862  0.0271 -0.1804
89113W        W26607   0.754   9.264  25.456 -0.2370  0.1586 -0.3661
89114W        W26608  13.168   1.158   2.624  0.0601  0.0980  0.0452
89115W        W26609  27.495  34.733  17.387 -0.3166 -0.0286  0.2708
89116W        W26610  18.387  15.975  11.462 -0.1216 -0.0452 -0.2792
89117W        W26611  15.660  33.263   9.823 -0.1390 -0.3240 -0.3116
89118W        W26612  24.388  16.467  19.066  0.2088 -0.1213 -0.1522
89119W        W26613  33.164  15.380   7.244 -0.0941  0.0286 -0.1719
89120W        W26614  18.556  34.146  19.778  0.0889  0.0988 -0.0375
89121W        W26615  33.531  32.568  15.666  0.0777  0.1848  0.0158
89122W        W26616  30.340  23.156  13.660  0.4079  0.0392  0.0845
89123W        W26617  24.258  14.193  14.063 -0.0615  0.2791  0.0943
89124W        W26618  15.277  23.805   5.839 -0.1502 -0.0912  0.0361
89125W        W26619   2.678  30.009   9.404  0.0377  0.0620  0.1624
89126W        W26620  25.282   3.570  14.252  0.2637 -0.0755  0.0987
89127W        W26621   2.916  18.601  24.748 -0.0424 -0.1705  0.2464
89128W        W26622   5.252   5.779   7.630  0.1168 -0.2818  0.3396
89129W        W26623  24.380   2.811  15.767  0.0670 -0.1264 -0.3767
89130W        W26624  32.051  22.112   8.455  0.0834 -0.2852  0.3770
89131W        W26625  17.540  30.527  24.303  0.2112  0.0966  0.0334
89132W        W26626   5.319  25.089   7.862 -0.4822  0.1156  0.0412
89133W        W26627   0.501   7.769   2.063  0.1000 -0.1825 -0.2653
89134W        W26628  18.908   0.995  16.699  0.3939 -0.2396 -0.0424
89135W        W26629  33.044  24.668   0.152 -0.1357  0.0437  0.0547
89136W        W26630   6.303  26.897  24.315 -0.0416  0.0493 -0.0819
89137W        W26631  13.135  16.367   2.742  0.1756  0.1239  0.2215
89138W        W26632   3.271  34.662   3.393 -0.2186  0.0554  0.0542
89139W        W26633  29.794  14.208  18.085  0.0994 -0.0309  0.2989
89140W        W26634  33.952  25.316  23.086 -0.0401 -0.1835  0.3982
89141W        W26635  24.787  25.430  19.077 -0.2537 -0.4123  0.1962
89142W        W26636  32.327  21.875  20.825  0.0016 -0.3576  0.0297
89143W        W26637  34.428   9.965  16.490 -0.1633  0.1020  0.0502
89144W        W26638  24.703  15.913  10.797  0.0539 -0.4105 -0.0260
89145W        W26639  30.526  32.040  17.168 -0.1395  0.1854 -0.3516
89146W        W26640  32.223  12.825  11.914 -0.1762 -0.0369  0.2137
89147W        W26641  27.317  31.100  17.168  0.1397 -0.2129  0.1313
89148W        W26642  18.025  31.001  19.198 -0.1437 -0.1035  0.0198
89149W        W26643  20.668  15.680   0.861  0.0798 -0.2523  0.2046
89150W        W26644  19.510  32.531   7.235 -0.0662 -0.0890  0.1067
89151W        W26645  12.004   5.460  21.148 -0.1099 -0.1644  0.3647
89152W        W26646   3.218  34.288   8.218  0.0342  0.2579 -0.0453
89153W        W26647  26.396   5.065  24.463 -0.0795 -0.3149 -0.4463
89154W        W26648  17.406   3.268   3.568  0.0964  0.2682 -0.2026
89155W        W26649  24.102  27.588  21.538  0.3387  0.2167 -0.0871
89156W        W26650   5.533   4.453   8.459  0.1854  0.2691  0.0188
89157W        W26651  18.179  22.548   5.449 -0.3412 -0.0324 -0.0741
89158W        W26652   0.935  13.939  14.086  0.2832  0.0693  0.2309
89159W        W26653  21.817   2.262   1.901  0.0469  0.4225  0.0692
89160W        W26654  18.065  24.892   9.549 -0.3626  0.0408 -0.2022
89161W        W26655   3.799  28.090   4.553  0.0902  0.2304  0.1676
89162W        W26656  29.892  16.956  24.338  0.3032  0.0018 -0.1022
89163W        W26657   9.792  10.835   8.494  0.0618 -0.1098  0.0227
89164W        W26658   6.481  23.799   7.894  0.0554  0.1153  0.0166
89165W        W26659   7.237  28.280   1.623  0.1049  0.2219 -0.1759
89166W        W26660  12.372   0.733  26.097 -0.4353  0.2514 -0.0374
89167W        W26661  11.487  11.408  22.574 -0.0187 -0.0628  0.3442
89168W        W26662  23.776  22.807  22.682 -0.0078  0.2456 -0.2032
89169W        W26663  23.414  33.902   2.142  0.1151  0.1643 -0.0381
89170W        W26664  11.744   1.394   8.758  0.0276  0.0378 -0.1173
89171W        W26665  23.711  31.592  18.312  0.0685 -0.1091 -0.1518
89172W        W26666   9.776  34.827  26.156  0.3332  0.1696 -0.0247
89173W        W26667   8.134   3.048  24.568  0.2601  0.1536  0.2542
89174W        W26668  31.466  34.185   4.435  0.0449  0.2587 -0.2672
89175W        W26669   7.628   0.860  12.433  0.2311  0.1794  0.0981
89176W        W26670  29.300  27.379   0.051  0.0126 -0.3035  0.3645
89177W        W26671  18.782   8.191   8.852 -0.0762 -0.1428  0.1313
89178W        W26672  19.006  23.274   3.224  0.1040 -0.1303  0.4725
89179W        W26673  29.196  10.141  19.793  0.1017 -0.1160  0.0223
89180W        W26674  22.537  26.690  20.746  0.3176 -0.2560 -0.1229
89181W        W26675   5.201  35.027   8.696  0.0383 -0.0236  0.1976
89182W        W26676   8.369  23.856  15.298 -0.0651 -0.0728  0.2223
89183W        W26677   4.361  11.014   4.802  0.2161  0.1599 -0.1580
89184W        W26678  18.621  30.744   0.470 -0.0596 -0.2774 -0.1376
89185W        W26679  19.132   4.151   3.198  0.0255 -0.2141 -0.1226
89186W        W26680  29.161  21.544   8.527 -0.0917 -0.5472 -0.0198
89187W        W26681   6.332  10.104   5.210  0.0847  0.2909  0.3202
89188W        W26682   3.674  27.673  21.438 -0.1800  0.0663 -0.2262
89189W        W26683  21.014  24.776   2.530  0.1305  0.2214  0.2173
89190W        W26684   8.396   9.599  22.689 -0.0468  0.1715 -0.0278
89191W        W26685   8.480   4.263  23.148 -0.1406 -0.1351  0.2281
89192W        W26686  31.834   7.703  16.367 -0.0410 -0.0990  0.1524
89193W        W26687  14.184  32.454   3.824  0.0415 -0.0972 -0.0179
89194W        W26688  19.835  20.273  24.647  0.1625 -0.2261 -0.0833
89195W        W26689  32.434   7.207  19.973  0.0031  0.3816  0.1174
89196W        W26690   9.894  28.581   5.813 -0.3193  0.0472 -0.1073
89197W        W26691  26.754  26.769  21.030  0.1634 -0.1677 -0.1161
89198W        W26692  21.124   8.965   4.296 -0.0414 -0.1201  0.0139
89199W        W26693  13.182   5.591   6.905  0.0563 -0.0764 -0.2379
89200W        W26694  33.272  33.741   7.067  0.0733  0.0345  0.0427
89201W        W26695  29.482  11.737  25.131 -0.0036  0.1412  0.0472
89202W        W26696  23.425  25.511   2.182 -0.1402 -0.0488  0.0032
89203W        W26697  33.843  15.686  14.181 -0.3487 -0.1309  0.1202
89204W        W26698  13.478  32.178  15.204 -0.2951  0.3366 -0.0595
89205W        W26699  26.443  35.153  25.619 -0.1796 -0.2467  0.1044
89206W        W26700   6.453   0.467  19.723 -0.2731  0.0461  0.4124
89207W        W26701  22.043  32.459  18.033  0.2067 -0.0174 -0.0436
89208W        W26702  20.684   3.662   6.815 -0.2640 -0.1393 -0.0108
89209W        W26703  13.892   8.257  13.302  0.1386  0.1040  0.2218
89210W        W26704  31.006   2.831  21.789 -0.1568 -0.2604  0.4184
89211W        W26705  13.791   7.864   0.317 -0.2218  0.0503 -0.0345
89212W        W26706   3.106  11.097   5.745  0.1736  0.0563 -0.1125
89213W        W26707  14.236  30.305   3.947  0.3286 -0.1903 -0.1786
89214W        W26708   8.981   7.750   6.737  0.0671  0.1201 -0.1320
89215W        W26709   2.670  12.390   1.372  0.0983  0.1860  0.0933
89216W        W26710  18.389  33.317   5.163  0.1551 -0.1794  0.1148
89217W        W26711  14.022  25.737  22.130  0.2112  0.0590 -0.1966
89218W        W26712   4.980  17.655  22.735  0.1958  0.0957  0.2781
89219W        W26713  19.041  26.370  18.438 -0.4227 -0.1726 -0.0698
89220W        W26714   4.635  13.942  17.801  0.3677 -0.1254  0.0597
89221W        W26715   1.143   9.193  12.495 -0.2085  0.1709 -0.0270
89222W        W26716  28.127  30.250   3.993 -0.0909  0.0043  0.0578
89223W        W26717  29.280  25.006  17.466  0.0258  0.0224  0.0866
89224W        W26718  14.779  15.346  22.309  0.3534 -0.0333 -0.1938
89225W        W26719  16.280  26.817   4.760 -0.2969 -0.1288 -0.1312
89226W        W26720  10.274  15.788  12.795  0.1629  0.0043  0.1011
89227W        W26721  25.581  22.086  20.358 -0.0845 -0.0263 -0.1432
89228W        W26722   0.627   8.042  19.938 -0.0264 -0.2045 -0.0899
89229W        W26723   7.353   3.072  22.763  0.0805 -0.1849 -0.2524
89230W        W26724  13.300   4.854  24.866  0.1938 -0.0579 -0.2014
89231W        W26725  20.085  26.783   5.224 -0.1702 -0.0492 -0.0082
89232W        W26726  28.879  17.636  23.645 -0.0263 -0.3285 -0.3090
89233W        W26727  12.172  27.103  14.318 -0.1547  0.1986  0.1005
89234W        W26728  20.454  29.428  24.934 -0.1486  0.3301  0.2012
89235W        W26729  27.043  18.455  13.812 -0.0023 -0.1666  0.0026
89236W        W26730  35.257  10.370  16.382 -0.0596  0.0125 -0.2237
89237W        W26731  13.801  13.073   0.252 -0.1368  0.0519  0.1409
89238W        W26732  26.148  31.031   1.189  0.4038 -0.2145  0.3705
89239W        W26733  11.430   9.702  23.820 -0.0626  0.3460 -0.2323
89240W        W26734   6.565  11.425  10.309  0.0659 -0.0956  0.0590
89241W        W26735  29.239   9.737  18.091 -0.0221 -0.2040  0.0051
89242W        W26736  16.251   4.167   7.431  0.2073  0.1603 -0.2772
89243W        W26737  33.841   9.284  13.432  0.0808  0.0976  0.1740
89244W        W26738  23.768  24.263  11.898 -0.2537  0.0582 -0.2214
89245W        W26739  20.840  34.561  21.121  0.0855  0.1802 -0.1345
89246W        W26740  20.561  22.416   5.147  0.1141  0.1790 -0.1551
89247W        W26741  34.415   6.646  16.965 -0.0782 -0.1291  0.3287
89248W        W26742   9.805   1.976   7.122 -0.0504 -0.0845  0.0481
89249W        W26743   7.215  20.888  21.229  0.1237 -0.0561  0.0276
89250W        W26744  18.787  19.792  10.161  0.1279  0.3517  0.0239
89251W        W26745  23.038  11.807  24.331  0.3310  0.0189 -0.3120
89252W        W26746  20.449   2.445  15.326 -0.0900  0.1153 -0.1460
89253W        W26747  19.198   0.823   5.600 -0.3133 -0.0033  0.2154
89254W        W26748  33.561  25.488  18.551 -0.1242 -0.1610  0.1448
89255W        W26749  24.347   2.469  24.308 -0.1271 -0.1962 -0.1983
89256W        W26750  23.926   7.414  23.283 -0.2206 -0.0304 -0.1152
89257W        W26751  16.490  32.339   5.311  0.3171 -0.0533 -0.0074
89258W        W26752  28.849  33.620  20.151  0.2469  0.0554 -0.5503
89259W        W26753   2.117  10.716  25.580 -0.0776  0.2161  0.1395
89260W        W26754  10.644  21.205   2.677 -0.1447 -0.1734  0.1655
89261W        W26755  16.518  28.999   3.027  0.0160  0.3578  0.0175
89262W        W26756  32.526  14.383   1.224  0.1244 -0.4208 -0.0528
89263W        W26757   9.911  10.548  25.647 -0.2691  0.0227 -0.2345
89264W        W26758  18.235  15.540  10.392 -0.1646  0.0608  0.1468
89265W        W26759  17.893  19.521   1.712 -0.2662 -0.1341  0.2070
89266W        W26760   6.146  13.542   0.323  0.1729  0.2023  0.0694
89267W        W26761  17.984  26.467  22.146 -0.3280  0.1105  0.4280
89268W        W26762   4.716  18.239   2.777 -0.0958  0.1300  0.1606
89269W        W26763  19.835  18.972   8.959 -0.2619 -0.1639  0.2567
89270W        W26764  22.274   5.490   5.899  0.0028 -0.0227  0.2000
89271W        W26765  21.454  14.799  21.176  0.0202  0.0999  0.4829
89272W        W26766   5.818  27.433  14.237  0.1548  0.1421 -0.1685
89273W        W26767  26.856   1.769   2.135  0.0316 -0.2177 -0.4757
89274W        W26768   6.532  19.628   7.861  0.1442  0.1821 -0.0683
89275W        W26769   7.668  34.544  19.898  0.1918 -0.3534 -0.0358
89276W        W26770  10.249  12.581  13.055  0.0441  0.1909 -0.2818
89277W        W26771  21.084  11.782   6.742  0.1545 -0.2367  0.4986
89278W        W26772  16.920  11.751  19.438  0.4546 -0.2238 -0.0348
89279W        W26773  34.510  31.306   5.636  0.1686  0.0623  0.4034
89280W        W26774  16.363   2.134   8.790  0.0490  0.2635 -0.0684
89281W        W26775   0.020  28.167   7.931  0.0030 -0.1580  0.1200
89282W        W26776   2.414  14.931  20.845  0.1348  0.2677  0.2108
89283W        W26777  28.359   4.783  23.129  0.2535  0.1730  0.2996
89284W        W26778  16.324   5.263   2.413  0.5102  0.3890  0.3982
89285W        W26779  19.351  21.106  18.725  0.0808 -0.4666 -0.2690
89286W        W26780  15.978   7.285   6.124  0.1163 -0.0775  0.0180
89287W        W26781   9.243  13.091  19.242 -0.0602  0.0266 -0.0027
89288W        W26782  34.123  28.550  15.591  0.0838  0.1000 -0.1230
89289W        W26783  21.117  15.018  17.693 -0.0395  0.1090 -0.2656
89290W        W26784   1.440  19.786  14.404 -0.0702  0.3617  0.2405
89291W        W26785  34.406  30.663  20.255  0.0561  0.2665 -0.2023
89292W        W26786  27.143   1.592  21.574 -0.1914  0.0374  0.0585
89293W        W26787  14.200  20.740  12.416 -0.3284  0.2673  0.1676
89294W        W26788  16.982   7.246  11.116 -0.0006  0.1911 -0.1090
89295W        W26789  28.609  33.647   1.630 -0.1474  0.2407  0.0860
89296W        W26790   0.716  14.444  18.779  0.0574 -0.0937 -0.3567
89297W        W26791  14.708   4.937   6.461 -0.1498  0.2555  0.2236
89298W        W26792  22.814  21.922  16.485 -0.2045  0.1240 -0.0029
89299W        W26793  12.935  23.446  13.032 -0.2240  0.0447 -0.0079
89300W        W26794  29.368   5.551  12.744 -0.0610  0.2586 -0.0929
89301W        W26795  10.825  19.621  21.391  0.2248 -0.2113 -0.3531
89302W        W26796  30.802  10.771  16.325 -0.3128  0.0035  0.0763
89303W        W26797  14.323   0.976   4.022 -0.0199  0.2473  0.1801
89304W        W26798  18.537   4.736   8.987 -0.2714 -0.1415  0.2846
89305W        W26799  22.821  31.571   5.952  0.1592  0.0932 -0.5898
89306W        W26800  24.567  35.219  19.217 -0.1932 -0.1364  0.1381
89307W        W26801  30.862  17.756  10.203  0.5003  0.0289  0.0901
89308W        W26802  26.762  22.933  15.302  0.0411 -0.0080 -0.0969
89309W        W26803  33.516  24.534  10.802 -0.0779  0.2866  0.0540
89310W        W26804  29.622  19.659  21.209 -0.3071  0.2411 -0.2286
89311W        W26805   0.834  23.611  17.543  0.0455  0.3332 -0.0748
89312W        W26806  18.146   5.833   6.154 -0.0348  0.1458 -0.4542
89313W        W26807  28.312  34.847  22.916 -0.0758 -0.1915 -0.1999
89314W        W26808  10.884  14.407   9.787 -0.3319  0.3979  0.1178
89315W        W26809  17.664   2.929   6.465 -0.2549  0.1894 -0.0757
89316W        W26810   5.039   9.888   7.677 -0.1650 -0.2068 -0.0514
89317W        W26811   2.919  14.538  23.930  0.2703 -0.1600  0.1749
89318W        W26812  16.737  23.342  10.939  0.1592 -0.1435  0.0687
89319W        W26813   2.702  34.345   2.784 -0.0042  0.1532  0.2706
89320W        W26814  21.095  22.725  17.335  0.0808 -0.0002  0.3110
89321W        W26815  26.255   2.855  22.604  0.2396 -0.1350 -0.1841
89322W        W26816  25.743  26.249  11.275  0.0316  0.1251 -0.1406
89323W        W26817  12.207  23.709  16.564  0.0580 -0.0240 -0.1003
89324W        W26818  33.529  29.652   0.131 -0.4617 -0.2711 -0.3445
89325W        W26819  17.604  26.487  23.151  0.1467  0.0171 -0.3154
89326W        W26820  13.066  17.177  12.116 -0.1810 -0.2574 -0.0358
89327W        W26821  17.975  23.599   1.101 -0.0061  0.1002  0.0919
89328W        W26822   0.486   7.545  15.285  0.3381 -0.0573  0.1777
89329W        W26823   1.530   7.890  19.707 -0.2858 -0.1357  0.0389
89330W        W26824  29.726  12.828  21.856 -0.0132 -0.0069  0.0002
89331W        W26825   8.108   9.134   1.052 -0.1161 -0.2277  0.1302
89332W        W26826  11.025  17.709   7.557 -0.2998 -0.0043 -0.1974
89333W        W26827   0.226  29.062   3.261 -0.1352  0.1044  0.1682
89334W        W26828  15.659  10.117  13.245  0.2094  0.2411  0.1029
89335W        W26829  22.428  33.711   3.103  0.1779  0.1456  0.2475
89336W        W26830   1.797  15.023  22.114  0.0765  0.1816 -0.1118
89337W        W26831   9.515   2.863  10.626 -0.1668  0.1947 -0.2371
89338W        W26832  19.776   8.001  21.887 -0.2675  0.0670  0.0792
89339W        W26833   1.036  24.472  25.614  0.1015  0.5996 -0.0569
89340W        W26834  26.875  30.349   1.531  0.1165  0.1461  0.1353
89341W        W26835   1.539  10.754  23.501 -0.1126  0.1920 -0.1220
89342W        W26836  18.828   9.359  24.977 -0.0440  0.1341  0.0735
89343W        W26837   9.362   5.270   8.810 -0.3041  0.1765 -0.0497
89344W        W26838  15.604   5.693   7.775  0.0519 -0.0870  0.0899
89345W        W26839   3.560   8.356  16.308  0.0496 -0.0877 -0.3019
89346W        W26840   4.092  26.872  11.670  0.0294 -0.1036  0.3951
89347W        W26841   2.005  15.105  21.582  0.0630 -0.1134  0.2679
89348W        W26842   9.016  27.945  24.388 -0.0982 -0.2213 -0.2783
89349W        W26843   9.727   0.831  14.621 -0.1312  0.1330  0.2607
89350W        W26844  27.779  27.791  24.532 -0.0285 -0.1022 -0.0976
89351W        W26845   4.157  15.017  18.702 -0.1711  0.0769 -0.0596
89352W        W26846  23.632   0.288  16.609  0.0536 -0.0021 -0.2141
89353W        W26847   0.723  29.693   0.167  0.0522  0.0077 -0.1088
89354W        W26848  16.260  19.724  23.475  0.0536  0.4423  0.0798
89355W        W26849  29.472   0.394   1.517  0.3100 -0.2139  0.0264
89356W        W26850  12.641   9.658   9.192  0.0277 -0.1447  0.0312
89357W        W26851   1.765   1.217   7.264  0.0489 -0.0473 -0.4777
89358W        W26852  18.754  27.804   2.957  0.2268  0.2394 -0.1316
89359W        W26853  17.791  25.979   1.974  0.1339  0.0656 -0.1304
89360W        W26854  14.191  13.510  20.473  0.1331 -0.2858  0.0549
89361W        W26855  14.987  16.954   4.145  0.2862 -0.0318  0.1240
89362W        W26856  24.507   6.682  24.511 -0.1033 -0.1820  0.1226
89363W        W26857  10.012  25.933   4.848 -0.4022 -0.2887 -0.1974
89364W        W26858  13.215   5.369   4.415  0.1686 -0.1749 -0.1964
89365W        W26859  31.722  33.906  16.337  0.0725 -0.0947  0.1583
89366W        W26860   8.342  32.203   6.357  0.2350 -0.1815  0.2231
89367W        W26861  16.970   9.374  23.998  0.2689  0.0877 -0.0625
89368W        W26862  20.175   6.604   8.309  0.0711 -0.1910  0.2073
89369W        W26863  31.169  10.901  16.603 -0.3643 -0.0160 -0.1746
89370W        W26864  29.996  21.007   4.664 -0.1353 -0.1604  0.1335
89371W        W26865   9.548  26.930   4.427  0.3558 -0.2507 -0.0237
89372W        W26866  26.907  17.374  15.143  0.2001 -0.3665  0.3085
89373W        W26867  32.685  26.250   0.160 -0.0686 -0.1810  0.3623
89374W        W26868  15.524  34.127  18.267  0.1264 -0.1195  0.1282
89375W        W26869  17.642  15.049   7.299 -0.2830  0.1386  0.4194
89376W        W26870  31.664   7.058   3.902  0.0397 -0.1588 -0.4739
89377W        W26871   4.465   9.770   3.776 -0.0162 -0.0866 -0.3714
89378W        W26872   8.482  15.992  22.035  0.2781 -0.0521 -0.1195
89379W        W26873  16.552  16.863  10.361  0.2337  0.3034 -0.0895
89380W        W26874  19.505   8.416  20.252  0.1591 -0.4379 -0.1662
89381W        W26875  13.830  28.544  16.015 -0.0870  0.0317  0.0481
89382W        W26876  15.525  29.446   5.312  0.1494  0.3986 -0.1968
89383W        W26877  15.674  34.331  24.147 -0.4134 -0.0409  0.1014
89384W        W26878  22.254  22.972   3.030 -0.0765  0.4365 -0.1665
89385W        W26879   7.705  20.085  20.490  0.2898  0.0092 -0.1552
89386W        W26880  14.402  14.748  20.062 -0.1313  0.1655  0.2060
89387W        W26881   2.715   2.777   1.511 -0.0797  0.1708  0.1895
89388W        W26882   3.342  18.522  17.655  0.1405  0.1003  0.0104
89389W        W26883  34.104  25.980  15.213  0.0598 -0.0169 -0.2361
89390W        W26884  28.799   5.699   2.768  0.0281 -0.1544  0.0733
89391W        W26885  16.190  25.273  12.058  0.2438  0.0653 -0.0823
89392W        W26886  13.350  28.265   2.198 -0.0559 -0.2109 -0.0942
89393W        W26887  20.168   0.404  14.917  0.1691  0.2559 -0.2247
89394W        W26888   5.945   3.142  23.170  0.0137 -0.0373 -0.0782
89395W        W26889  12.535  30.772   0.738  0.1199 -0.0534 -0.1988
89396W        W26890   2.231   4.880   5.504  0.0251 -0.0826 -0.0133
89397W        W26891  22.713  34.932  19.277  0.1869  0.1079  0.3671
89398W        W26892  26.124   3.953   1.877  0.3718  0.2849  0.1394
89399W        W26893   9.599  18.997   2.749  0.0503  0.1375 -0.1962
89400W        W26894  24.151  20.719  21.984 -0.1396  0.2800  0.0167
89401W        W26895  10.047   0.826  23.391  0.4764  0.0501  0.0809
89402W        W26896  31.203  30.854   2.923 -0.1320  0.2970 -0.2404
89403W        W26897  14.339   9.503   4.178 -0.0076 -0.2599 -0.2257
89404W        W26898   6.522   1.274  19.718  0.0235  0.0504 -0.0832
89405W        W26899   7.138  30.290   9.638  0.0585  0.0955 -0.0889
89406W        W26900   8.548  16.542  26.026  0.1045 -0.0227 -0.0938
89407W        W26901  20.013  34.058   4.861  0.1537  0.0030 -0.1233
89408W        W26902   4.962  22.916  25.376  0.1165  0.2007 -0.2836
89409W        W26903   1.444   2.277   0.947 -0.1697 -0.0657  0.0512
89410W        W26904   7.239  21.601   3.389  0.4279 -0.0979  0.1353
89411W        W26905   6.609  30.272   7.859  0.3401  0.0360  0.0268
89412W        W26906  21.667  27.027  26.169  0.1502 -0.1306 -0.2011
89413W        W26907  17.900  29.989  25.426  0.0472  0.0228 -0.5031
89414W        W26908   7.721  25.220   6.243  0.0522  0.2437  0.2581
89415W        W26909   4.226  32.935   8.669  0.0811 -0.3243 -0.0518
89416W        W26910   9.247  26.277  16.110 -0.0314 -0.2487 -0.2812
89417W        W26911  34.557  19.485  15.361  0.0531  0.0133 -0.0946
89418W        W26912  25.574  13.382  13.898  0.2769 -0.0845 -0.0396
89419W        W26913  22.922  34.862  23.366  0.1572 -0.3498  0.0214
89420W        W26914   4.989   1.251   5.328  0.2246  0.0265 -0.2777
89421W        W26915  11.382  29.567   4.502  0.2050  0.1456  0.0808
89422W        W26916  19.857  11.606  20.339  0.1953 -0.0193 -0.0278
89423W        W26917  27.154   3.250   0.360 -0.1226 -0.0302  0.0224
89424W        W26918  28.750  34.169  16.298 -0.1044  0.3541  0.1688
89425W        W26919  17.508  13.821   9.385 -0.4192  0.0233 -0.2985
89426W        W26920  24.075  10.040  17.654  0.1920 -0.1004  0.0545
89427W        W26921  27.261  18.175  12.241  0.1024 -0.2125  0.0093
89428W        W26922   1.035  34.683  24.607  0.1873  0.0457  0.0786
89429W        W26923  28.931   8.580  22.441  0.0206  0.0309 -0.1155
89430W        W26924  21.968  17.748  24.561  0.0376 -0.2184 -0.0358
89431W        W26925   2.097  32.225  19.662 -0.0143 -0.0154  0.2011
89432W        W26926  14.981   7.955  13.895  0.3049 -0.2737 -0.3770
89433W        W26927   8.234   2.409  14.271  0.3400  0.0338  0.0509
89434W        W26928  20.650  22.763   9.014 -0.0061  0.3464 -0.0189
89435W        W26929  29.208   1.899   4.810  0.0735  0.2894  0.3271
89436W        W26930   0.491   2.747  14.943 -0.1148 -0.1825  0.0352
89437W        W26931  26.725  16.284  21.932 -0.1374  0.3706  0.0812
89438W        W26932  12.820  33.663   1.058 -0.1769  0.1461  0.1316
89439W        W26933  17.083  22.648  12.990  0.0964 -0.0668  0.1707
89440W        W26934  30.378  14.986   6.888  0.2259  0.1065  0.0998
89441W        W26935  34.071  24.690  25.914  0.1801  0.0061  0.0674
89442W        W26936  19.815  18.613  19.926  0.0503  0.2073  0.1146
89443W        W26937   6.462   1.107  13.996 -0.1964 -0.2691 -0.0263
89444W        W26938  25.908   0.211   5.726  0.1692 -0.0609  0.0176
89445W        W26939  14.311  17.943   4.893 -0.2156 -0.1006 -0.1054
89446W        W26940  28.447  34.446  18.840 -0.0668  0.0190  0.1438
89447W        W26941   8.159   0.086  12.751 -0.0437 -0.0638  0.0628
89448W        W26942  34.176  13.516  15.882  0.0170 -0.0582 -0.2512
89449W        W26943  23.677  12.053  20.318 -0.1164 -0.0029 -0.3282
89450W        W26944  28.638  26.260  17.655 -0.1016 -0.0623  0.2018
89451W        W26945  30.689   5.497   1.481 -0.1383 -0.2080  0.1657
89452W        W26946  21.414   5.719  17.045 -0.1250 -0.0168 -0.0971
89453W        W26947  28.403  15.877  22.056  0.4762 -0.0069  0.0015
89454W        W26948   7.539  26.209  25.105 -0.0993  0.0645 -0.1173
89455W        W26949  27.357  22.721  22.907 -0.0373 -0.1145 -0.0042
89456W        W26950  22.816  26.560  16.017 -0.0559  0.3439  0.2131
89457W        W26951  12.464   8.298  11.484  0.1028 -0.1404 -0.1631
89458W        W26952  12.500   2.723  22.099  0.1205 -0.1654  0.2913
89459W        W26953  17.695  11.784   3.725 -0.0811 -0.0989 -0.1578
89460W        W26954   0.263  16.845  24.826 -0.1605 -0.1107  0.1034
89461W        W26955  32.037  32.773  15.192  0.1157 -0.1959 -0.1472
89462W        W26956  15.263  32.153  23.385 -0.2016  0.0706 -0.3542
89463W        W26957  24.401  12.992   2.929  0.2444 -0.0137  0.3509
89464W        W26958  13.074  30.052  23.067  0.1777  0.0609 -0.0812
89465W        W26959  27.750  14.450  24.684  0.1209  0.1929  0.4505
89466W        W26960  17.673  17.266   7.311  0.2801  0.0675 -0.0315
89467W        W26961   4.580  10.869   7.377  0.0432 -0.2325  0.3185
89468W        W26962  32.335  12.473  20.086  0.1872  0.0405 -0.0710
89469W        W26963  13.516  32.522   0.985  0.0115  0.2168 -0.2650
89470W        W26964  17.352   8.652   2.077  0.1579 -0.2059  0.4179
89471W        W26965  17.558  33.372  16.240  0.0304 -0.0181  0.1071
89472W        W26966  19.923  12.048   2.278 -0.0532  0.0297  0.2340
89473W        W26967   4.098  10.977   8.856 -0.0475 -0.1109 -0.1598
89474W        W26968   8.825  30.550  21.707 -0.2240 -0.2104  0.1266
89475W        W26969   1.241  19.523   7.727 -0.0801  0.1311  0.1095
89476W        W26970  10.388  12.230  13.457 -0.0909 -0.1776  0.3098
89477W        W26971  26.193   1.001  22.871 -0.2755 -0.1094  0.1443
89478W        W26972  18.699   8.351  20.409  0.0067  0.1969 -0.3155
89479W        W26973  15.285   5.555   4.244 -0.1820  0.1258 -0.3365
89480W        W26974   0.863   6.050  13.340  0.1115 -0.0377 -0.2257
89481W        W26975  17.262   1.687   3.688 -0.2514  0.5519 -0.1319
89482W        W26976  12.886   3.963  24.342 -0.1343  0.1137  0.2150
89483W        W26977  26.336  24.548  15.493 -0.2565  0.1529 -0.2698
89484W        W26978  31.816   6.467  16.781  0.0883  0.0943  0.1339
89485W        W26979   7.588   4.931   8.045  0.0356 -0.1674 -0.0843
89486W        W26980  24.314  26.378  16.586  0.0996  0.0476  0.0396
89487W        W26981   8.858  26.389  22.420 -0.2042  0.1431  0.0825
89488W        W26982  30.829  13.459  18.446  0.2638 -0.0221 -0.1579
89489W        W26983  11.406   1.284  13.306  0.1254 -0.5863  0.2052
89490W        W26984   3.747  35.383  11.543  0.0798 -0.0666 -0.2936
89491W        W26985  20.776  14.054   0.291 -0.1039 -0.1464  0.5175
89492W        W26986  23.143  16.899  19.574 -0.1319 -0.0731 -0.3364
89493W        W26987  26.790   8.573  11.097 -0.1363  0.4038  0.0414
89494W        W26988  19.125  12.147  17.498  0.0582  0.1362 -0.0316
89495W        W26989   0.913  22.015  10.555  0.3319 -0.0348  0.0951
89496W        W26990   2.563  27.879   7.235 -0.1748 -0.0974  0.2010
89497W        W26991  17.594  11.362   4.600  0.1470 -0.3482 -0.0693
89498W        W26992  32.227  18.727  16.361  0.0768 -0.1547  0.0964
89499W        W26993   6.898   0.694  19.983  0.0891  0.1891 -0.1474
89500W        W26994  11.020  17.870  20.916  0.1438  0.0422  0.0118
89501W        W26995  33.166  16.654  10.080 -0.0318  0.0304  0.0626
89502W        W26996   8.458  31.902   7.895  0.0639 -0.2844  0.4137
89503W        W26997  16.006   1.717   5.031 -0.1488 -0.0366  0.2947
89504W        W26998  30.438  12.324  22.069  0.0507  0.4976 -0.1134
89505W        W26999  29.042  20.344  18.369  0.0257 -0.1623 -0.0373
89506W        W27000  17.231  21.919  22.931 -0.0841 -0.3452  0.1184
89507W        W27001  15.358   6.907   1.857  0.1727 -0.0438  0.3489
89508W        W27002  14.593  33.742   3.277  0.0587  0.3187 -0.1378
89509W        W27003  29.712   1.800  16.991 -0.2112  0.1508 -0.1164
89510W        W27004  30.749   1.327  11.744  0.0341  0.0074  0.0420
89511W        W27005   4.610  19.564   2.714 -0.0632 -0.1074 -0.1556
89512W        W27006  29.089  19.408  14.967 -0.0986  0.0351 -0.0731
89513W        W27007  33.998  12.522  25.628  0.0154  0.2016  0.1892
89514W        W27008  12.569   5.783   4.494 -0.0023  0.0916 -0.0555
89515W        W27009   6.708  19.457   0.323 -0.0945  0.1033  0.1458
89516W        W27010   8.762   1.076  22.706  0.1057  0.2715  0.0498
89517W        W27011  35.378   2.260   4.920  0.2000 -0.3024  0.1286
89518W        W27012   8.811   8.677  25.817  0.1325 -0.1011  0.0895
89519W        W27013  33.722  33.292   6.453 -0.0265  0.0149  0.3414
89520W        W27014  32.125  26.935  15.964 -0.2509  0.1525  0.3443
89521W        W27015  21.697  27.236   6.967 -0.0511  0.0137 -0.1609
89522W        W27016  22.868  26.203  24.534  0.2278  0.0235  0.0695
89523W        W27017  23.793   2.422   4.419  0.1551 -0.2228  0.0256
89524W        W27018   6.534  31.274  25.573 -0.3431 -0.0950 -0.2880
89525W        W27019  15.167   4.736   2.428 -0.0404  0.0490 -0.3304
89526W        W27020  34.674  34.086   0.773 -0.0552  0.0852 -0.1675
89527W        W27021  31.528  30.257  20.736 -0.3261 -0.1372  0.2842
89528W        W27022  20.459  35.330   5.138 -0.3098 -0.1115 -0.0810
89529W        W27023  16.388   3.129  23.978 -0.0779  0.0610  0.1153
89530W        W27024  26.932   2.593  14.239 -0.1387  0.1784 -0.1138
89531W        W27025  30.621   8.918  21.809 -0.3074 -0.0437  0.2278
89532W        W27026  30.131  34.974  20.447 -0.0818 -0.0440  0.0705
89533W        W27027  28.605  11.499   9.827  0.1054 -0.0503  0.0169
89534W        W27028  12.087  13.389   7.058  0.2167  0.2315 -0.0696
89535W        W27029   0.417  18.925  26.178 -0.0641 -0.0968 -0.1296
89536W        W27030   1.623   8.387  25.324 -0.5943 -0.1235  0.2692
89537W        W27031  15.756   2.873  21.028 -0.1151  0.0592  0.1071
89538W        W27032  16.042   7.837   4.415  0.1195 -0.0086  0.2213
89539W        W27033  19.462  15.426   0.273 -0.2627 -0.2979 -0.1491
89540W        W27034  14.291  12.502   6.887  0.0879 -0.0600 -0.0490
89541W        W27035   1.041   3.661  25.873  0.2472 -0.1330 -0.0630
89542W        W27036  35.137  34.261   7.433  0.1257 -0.2978 -0.0639
89543W        W27037  20.941  12.423   2.770 -0.1919 -0.0292  0.2464
89544W        W27038  25.439   4.736  19.081  0.0175 -0.1364 -0.0306
89545W        W27039   0.573  25.352   4.788  0.0266  0.0712  0.0948
89546W        W27040  34.550  25.704  11.509 -0.0003 -0.0238 -0.4235
89547W        W27041  11.738  23.258   4.865 -0.1314  0.0220  0.1566
89548W        W27042   6.196   4.235  22.562  0.0203  0.0245 -0.0445
89549W        W27043   0.080   2.633   5.206 -0.1018 -0.0691 -0.4482
89550W        W27044  17.657  30.477   3.808 -0.0027 -0.1714 -0.0224
89551W        W27045  26.139  11.175  10.764  0.0028  0.0863 -0.1145
89552W        W27046  19.322   5.415   4.827 -0.1613  0.0345 -0.2373
89553W        W27047  33.314   3.621  18.793  0.1649  0.1780 -0.1359
89554W        W27048  30.931  28.210  10.750  0.2039  0.1809 -0.2297
89555W        W27049   6.969  26.580  16.226  0.1386  0.0069  0.0431
89556W        W27050  18.794  32.444  19.980  0.0430 -0.1293  0.0460
89557W        W27051  18.129   9.819  24.361 -0.0430  0.2969 -0.2328
89558W        W27052  11.400   9.935  25.272 -0.2041 -0.1008 -0.1285
89559W        W27053  18.926  22.452  11.689  0.0621 -0.0892 -0.1863
89560W        W27054  13.346  25.007  12.832 -0.3358  0.2438 -0.1931
89561W        W27055  21.717  18.706  25.565 -0.0421 -0.1546  0.1094
89562W        W27056   9.562  26.512   6.241  0.1354  0.0113  0.0367
89563W        W27057  30.539  31.173  12.968  0.1076  0.4500  0.1106
89564W        W27058  30.674  20.839  22.244  0.2538  0.1599  0.0134
89565W        W27059  18.530  28.395  21.049 -0.0259  0.0962  0.0638
89566W        W27060   4.965   8.117  18.851 -0.3243  0.0789 -0.0820
89567W        W27061  31.761   8.760  21.637 -0.0827 -0.0089  0.1376
89568W        W27062  19.816   3.560  22.881  0.0452  0.0720 -0.2132
89569W        W27063   2.833  17.934  22.325 -0.0194  0.3758 -0.0496
89570W        W27064   0.782   8.654  25.718 -0.0218  0.2929  0.0784
89571W        W27065  25.649   1.575   4.351 -0.0236  0.0971  0.2214
89572W        W27066  26.550  13.570  14.505  0.0199 -0.0533  0.1964
89573W        W27067  22.474   0.069  22.667  0.1606  0.0495 -0.0875
89574W        W27068   7.148  34.591  20.527 -0.0481 -0.0337 -0.0619
89575W        W27069  17.160   0.731   4.731 -0.0009 -0.1487 -0.0969
89576W        W27070  13.828  19.667  20.756 -0.0157  0.2645 -0.1316
89577W        W27071  27.758  24.521  12.059 -0.2473 -0.0567  0.0199
89578W        W27072  33.504   2.874  19.506  0.0325  0.0855  0.0794
89579W        W27073  27.712  26.185   9.996  0.0579 -0.0292 -0.1499
89580W        W27074  21.243  24.915  20.477  0.4315  0.0006 -0.0507
89581W        W27075  13.038   9.296  20.412  0.2155  0.3090  0.1727
89582W        W27076  31.053  28.514   2.461  0.0602  0.0654  0.2997
89583W        W27077  26.720  16.657  25.482 -0.2804 -0.1641  0.0467
89584W        W27078  30.871   6.579  24.631  0.1381 -0.1042 -0.1317
89585W        W27079  26.493  14.446  13.277  0.3975  0.3680 -0.0628
89586W        W27080  12.999  28.620   2.345 -0.1791 -0.0413 -0.1311
89587W        W27081  24.277   6.178  17.818 -0.0550 -0.4484 -0.1173
89588W        W27082   9.071  34.165  12.461 -0.3551  0.3160 -0.1913
89589W        W27083  11.329  15.214  24.822  0.0303  0.2083  0.0261
89590W        W27084  17.196  25.426  26.169 -0.3265  0.0316  0.1389
89591W        W27085  32.466  20.332  10.947 -0.1446 -0.2375  0.0229
89592W        W27086  18.864  24.787   5.414 -0.1591 -0.0179 -0.1740
89593W        W27087  16.840  27.364  22.476  0.3419  0.2125 -0.1743
89594W        W27088  24.189   0.507  18.741 -0.1254 -0.1542  0.6053
89595W        W27089  25.020  30.056  11.734 -0.0934  0.1934  0.0255
89596W        W27090  19.675  33.732   0.848 -0.3474  0.0794  0.1705
89597W        W27091   3.269  26.926  23.661  0.0976 -0.1956  0.1335
89598W        W27092   3.890  33.079   9.006 -0.2532 -0.3657  0.4540
89599W        W27093   2.455   1.925  23.309  0.0582 -0.0714  0.2038
89600W        W27094  17.528   8.722  22.949  0.0213 -0.2199 -0.0286
89601W        W27095  29.493  10.425  17.839  0.0008  0.1561 -0.0912
89602W        W27096  29.271   2.234  23.342  0.0115 -0.2194  0.0584
89603W        W27097   0.769  18.252   1.297  0.1338  0.2129  0.1497
89604W        W27098   7.911  32.705  10.085  0.2269  0.0176 -0.0574
89605W        W27099   2.084  31.726  20.007  0.2714  0.0068 -0.3325
89606W        W27100  18.173  34.046  19.271 -0.1513 -0.3239 -0.1905
89607W        W27101  13.577  18.278  23.213  0.0616 -0.0226  0.2848
89608W        W27102   7.599  15.388   1.704 -0.0192 -0.2791  0.2545
89609W        W27103   5.015   2.789  24.959  0.0625  0.1314 -0.0502
89610W        W27104  17.723   4.022   1.442  0.0256 -0.3637 -0.0668
89611W        W27105  25.318  30.742  23.729  0.1786 -0.1044 -0.1194
89612W        W27106  30.925  28.436  19.678 -0.1812 -0.0868 -0.0163
89613W        W27107  23.743  10.879  25.178  0.2190  0.0480  0.0146
89614W        W27108  25.372  33.859  18.846 -0.1695 -0.4551 -0.0746
89615W        W27109  23.390  27.694  20.560 -0.0510  0.0884 -0.2710
89616W        W27110   6.382   7.873  19.267 -0.3662 -0.2268 -0.1474
89617W        W27111   4.290  23.541  19.287  0.0603  0.1009 -0.2061
89618W        W27112  21.184  26.427  23.696  0.1013 -0.0161 -0.0557
89619W        W27113  23.798  18.084   2.105  0.0478  0.1557  0.2371
89620W        W27114   1.695  29.542  18.843  0.0129 -0.2162  0.2288
89621W        W27115   1.063   6.162   4.022  0.1622 -0.0884 -0.1123
89622W        W27116  32.182  35.358  13.030  0.0691 -0.1180  0.3554
89623W        W27117  13.321  34.683   2.428  0.0160  0.1646  0.0492
89624W        W27118  16.511   6.901  20.362  0.0409  0.2157 -0.0793
89625W        W27119  20.668  13.314  21.392 -0.0179 -0.0265 -0.1880
89626W        W27120  20.397   1.566  16.275  0.0938  0.0950 -0.2329
89627W        W27121  15.231   2.979   4.709  0.1565  0.0496 -0.0859
89628W        W27122  13.653  24.059  25.310 -0.0481 -0.0284 -0.2961
89629W        W27123  19.971   7.397  21.282  0.0805  0.1114  0.1405
89630W        W27124  28.544  26.433  22.638  0.3152 -0.4293 -0.0772
89631W        W27125  34.574  20.241   1.029  0.2760 -0.0800 -0.1746
89632W        W27126   9.275  34.716   0.412 -0.0279  0.1139  0.2000
89633W        W27127  32.505  12.659  21.640  0.5566  0.3443 -0.2136
89634W        W27128  16.865  10.954  25.066  0.2702 -0.1095  0.0310
89635W        W27129  33.120  13.007   7.343  0.0398 -0.4157 -0.1283
89636W        W27130  30.684   8.513   0.405  0.2379 -0.0312 -0.0342
89637W        W27131  23.884   8.145  15.274  0.0632  0.2134  0.2632
89638W        W27132  31.561  17.777  15.642 -0.0297  0.0091  0.1571
89639W        W27133  13.473  18.351  13.753  0.1470 -0.4135 -0.2574
89640W        W27134  32.081  28.158  23.196  0.2153  0.0807 -0.0340
89641W        W27135  21.181  30.345   5.221  0.1058 -0.0717  0.1961
89642W        W27136  11.882  25.927   4.629 -0.0232  0.0606  0.3121
89643W        W27137  12.216  19.809  11.556 -0.0006 -0.0666  0.0040
89644W        W27138  31.821  13.462  24.577  0.0119 -0.0545 -0.0775
89645W        W27139   3.123   6.778  21.981 -0.2194  0.0180 -0.2964
89646W        W27140   3.004  12.681  16.665 -0.1231  0.0090  0.0298
89647W        W27141  27.361   2.848  25.700 -0.1804  0.3252 -0.2984
89648W        W27142  22.510  14.754  14.434  0.0899  0.2015  0.1619
89649W        W27143  30.175  10.928   9.013 -0.2084  0.0200 -0.0467
89650W        W27144  20.724  32.445   3.426  0.1430 -0.0192 -0.0313
89651W        W27145  18.106  17.494   8.448  0.2697  0.0913 -0.2685
89652W        W27146  11.285   2.711   3.906  0.0408 -0.1817 -0.0939
89653W        W27147   8.964   3.735   7.273 -0.0813 -0.0347  0.3781
89654W        W27148  25.876   0.126   4.092 -0.1981  0.3114  0.1237
89655W        W27149  14.052  24.753  13.466  0.4071  0.0754  0.1565
89656W        W27150  30.773  28.422  13.594 -0.3431 -0.1004 -0.3347
89657W        W27151  14.679  34.495  23.349 -0.4074  0.2266  0.0323
89658W        W27152  22.654   0.941  18.921 -0.1802 -0.3321  0.1803
89659W        W27153  22.164  10.758   0.340  0.0572  0.1676 -0.2137
89660W        W27154  23.424  12.046  18.448 -0.1419 -0.1456 -0.0985
89661W        W27155  25.081  18.262  23.146  0.0044  0.0058  0.0454
89662W        W27156   4.035   5.679   2.447 -0.2022  0.1008  0.1751
89663W        W27157   0.745  24.565  23.370 -0.1131 -0.2011 -0.3946
89664W        W27158  29.994  30.635  15.666  0.1105  0.2129 -0.2578
89665W        W27159   0.990  12.844  10.323  0.1809  0.0102 -0.1028
89666W        W27160  30.042  25.589  15.968  0.0288 -0.0140  0.0599
89667W        W27161  33.917   0.812   5.232 -0.0851  0.1460 -0.0299
89668W        W27162  14.022  22.649   1.871  0.1357  0.1038 -0.1595
89669W        W27163  23.524  21.159  18.178 -0.0563  0.3626  0.0686
89670W        W27164  26.879  23.448  17.654  0.3164 -0.0135 -0.0689
89671W        W27165  21.621  34.893   7.609  0.0833  0.2106 -0.4158
89672W        W27166  27.935  16.149  15.834 -0.3257 -0.2181  0.0271
89673W        W27167  26.463  16.584  12.221  0.0673  0.0540 -0.2902
89674W        W27168  30.794  35.120  23.948 -0.1865  0.2379 -0.0388
89675W        W27169  20.646  17.037  20.260 -0.0200 -0.0153 -0.2735
89676W        W27170  22.085  31.699  21.988 -0.1349  0.1958 -0.1815
89677W        W27171   4.546  22.353  19.553  0.0134  0.5546  0.1897
89678W        W27172  19.884  11.624  25.078  0.1113  0.2837 -0.2142
89679W        W27173  16.960  13.737   5.449 -0.1327  0.2537 -0.3914
89680W        W27174  27.120  28.093  17.064 -0.0108  0.1123 -0.0407
89681W        W27175  29.713  20.477   6.795  0.0632  0.1393  0.0014
89682W        W27176  10.073  13.248   4.497  0.2247  0.0744 -0.2277
89683W        W27177   5.510  24.582   6.011 -0.0969  0.2283  0.0757
89684W        W27178  34.321  17.495   6.584  0.4226 -0.3102 -0.0990
89685W        W27179  12.968   6.399  12.294  0.2728 -0.0690  0.1336
89686W        W27180  18.656  30.332  26.052  0.2003  0.2856  0.0647
89687W        W27181  33.352  30.977   0.457  0.0633 -0.3708  0.2846
89688W        W27182  31.970   6.940  15.685 -0.2942 -0.0060 -0.0973
89689W        W27183  30.384  19.394   6.603  0.1678  0.2450  0.1942
89690W        W27184  11.454  16.016  24.720 -0.0624  0.0395 -0.0943
89691W        W27185  11.267  27.728  11.146  0.2602  0.1585  0.0810
89692W        W27186  21.239  12.537  25.771 -0.2200 -0.0751 -0.0018
89693W        W27187  12.976  22.461   5.820  0.4688  0.1207 -0.0920
89694W        W27188  12.665   4.962  23.208  0.0229 -0.0238  0.0012
89695W        W27189  25.661  20.865   9.394  0.0332  0.0635 -0.0857
89696W        W27190  12.149  15.573   2.576  0.1649  0.3055  0.0075
89697W        W27191   0.393   7.770  24.213 -0.0865  0.0134  0.0498
89698W        W27192   9.950   7.470  11.802 -0.0095 -0.1803  0.0975
89699W        W27193   2.238   2.160  22.503  0.0377 -0.2970  0.0625
89700W        W27194  12.749   0.263   3.570  0.2960  0.3607 -0.1093
89701W        W27195  26.332  17.491  12.517  0.2227  0.1814 -0.1156
89702W        W27196  32.311  12.981  20.457  0.1242 -0.3975 -0.0536
89703W        W27197   7.147  14.538   8.374 -0.0358 -0.2783 -0.0369
89704W        W27198  14.818  28.591   9.013  0.1179  0.1304  0.0790
89705W        W27199  26.517   8.091  22.400  0.4415 -0.2498 -0.0092
89706W        W27200  27.713  25.736  25.720  0.3971 -0.1224 -0.0961
89707W        W27201   8.631  17.200  11.722 -0.3476 -0.0264 -0.0222
89708W        W27202  32.077   1.462   2.292  0.0558 -0.1346  0.1599
89709W        W27203  32.442   4.420  12.236  0.0927 -0.2938  0.1348
89710W        W27204  23.019  34.247   2.015 -0.0597 -0.1726  0.0708
89711W        W27205  13.881  11.201  26.204  0.0822 -0.0907 -0.3148
89712W        W27206   6.971  29.974  10.619  0.4231 -0.1033  0.0109
89713W        W27207  22.429  16.950  17.900 -0.2034  0.1293 -0.0886
89714W        W27208  26.568  11.811  14.499  0.2723 -0.1453 -0.0664
89715W        W27209   3.990  18.101   1.110 -0.1234  0.0926 -0.0697
89716W        W27210  35.173  27.956  21.693  0.0490 -0.1972  0.0909
89717W        W27211  17.298  13.213  10.468 -0.0215 -0.2933  0.0486
89718W        W27212   5.942   3.945   2.681  0.1115 -0.1374  0.1496
89719W        W27213  16.218   4.659   4.117  0.0210 -0.0696  0.1707
89720W        W27214  29.192  32.670   0.667 -0.1882  0.0937  0.1921
89721W        W27215  17.848  12.844  20.468 -0.0170 -0.0774 -0.0656
89722W        W27216  35.126  24.241  13.905 -0.2014 -0.1450 -0.0691
89723W        W27217  33.669   2.035   2.616  0.0553 -0.0593  0.2900
89724W        W27218  20.524  14.190  25.153  0.0142 -0.0527 -0.1008
89725W        W27219   2.334  25.518   1.534 -0.2694 -0.1815  0.2514
89726W        W27220  21.751   1.179   3.654  0.2779 -0.1963  0.1108
89727W        W27221   7.356  29.492   7.515  0.2149 -0.0928 -0.2264
89728W        W27222  33.213  17.309  18.762 -0.1647 -0.0109 -0.1857
89729W        W27223  26.270   5.837   9.742 -0.1337  0.0065  0.0388
89730W        W27224   0.647   9.979   0.923  0.0386  0.0479  0.1162
89731W        W27225  29.073  14.088  16.971  0.1722  0.0632 -0.1489
89732W        W27226  28.955  33.064  24.089 -0.1383  0.1314 -0.1486
89733W        W27227   4.973  19.305  18.473 -0.0533 -0.3103  0.0211
89734W        W27228  30.319  29.116  25.224  0.2434 -0.2081 -0.1490
89735W        W27229  21.329   1.867   1.032 -0.1284  0.0652  0.1343
89736W        W27230  24.994  28.121  19.608 -0.0125 -0.0789  0.1193
89737W        W27231  24.433  31.178  12.690  0.1770  0.0728  0.2008
89738W        W27232  17.044  24.491  10.205  0.0707  0.0733 -0.1151
89739W        W27233  18.746   7.554   2.312  0.2621  0.2059  0.1750
89740W        W27234  11.896  23.537   6.567  0.2821 -0.0883 -0.0665
89741W        W27235  11.590  23.994   0.141 -0.3509 -0.0406  0.1781
89742W        W27236  18.430  18.228  20.945  0.0886  0.0353 -0.2651
89743W        W27237  29.967  31.879  16.177  0.2869  0.1071 -0.0219
89744W        W27238  15.474  16.073   6.396  0.2953  0.1457  0.3439
89745W        W27239   2.552  13.574  17.332 -0.0760 -0.1223 -0.0689
89746W        W27240   5.647   3.288  18.018  0.0322  0.2093 -0.4204
89747W        W27241  21.720  10.024   2.606 -0.0258  0.0678 -0.0190
89748W        W27242  33.102   2.707  18.722 -0.0865  0.3827 -0.0382
89749W        W27243   4.041  21.057  20.192  0.1144 -0.1963 -0.0321
89750W        W27244   7.360  13.867  20.016 -0.2177  0.0272 -0.2457
89751W        W27245   5.030  14.938   3.212  0.0036 -0.0526  0.2239
89752W        W27246   0.363  33.817   4.901 -0.0724  0.0379  0.0256
89753W        W27247  19.876  14.939   2.559  0.0072 -0.2470  0.1038
89754W        W27248  10.129   5.817  19.458 -0.0924  0.0878  0.2695
89755W        W27249   2.136  22.338   5.164  0.1821  0.0731 -0.0286
89756W        W27250  29.581   2.707  20.754 -0.0522  0.3045 -0.0070
89757W        W27251   3.125  28.065   2.526 -0.0507 -0.2705 -0.1840
89758W        W27252   2.852   8.356  24.141 -0.0170 -0.3247 -0.0395
89759W        W27253  14.022  32.134   4.172  0.1733  0.1328  0.4825
89760W        W27254  32.915   2.313  20.145 -0.2157  0.2943  0.1078
89761W        W27255   4.431  34.794   0.925 -0.1221 -0.0973 -0.0089
89762W        W27256  11.657  28.170  15.017 -0.2129  0.1014 -0.0769
89763W        W27257  14.609   1.739   6.836  0.1380  0.0281  0.0513
89764W        W27258  18.835   0.766  26.077 -0.1728 -0.0811 -0.1858
89765W        W27259  13.263  27.636  21.585 -0.0220 -0.2737 -0.0225
89766W        W27260  21.248   8.579   6.339  0.1651  0.0304 -0.1778
89767W        W27261  20.829  34.838   1.075 -0.3912  0.3586  0.0652
89768W        W27262  16.013  29.313  24.913  0.1451 -0.2102  0.0931
89769W        W27263  11.436  30.399  24.777  0.1263 -0.2846  0.0181
89770W        W27264  34.137  25.551  23.495  0.3779 -0.2649  0.0275
89771W        W27265   9.230  18.737  25.462  0.1251  0.1718  0.0237
89772W        W27266  13.608   9.125   2.090 -0.4517 -0.0273  0.1647
89773W        W27267  23.563  25.724  22.589 -0.0043 -0.2190 -0.2789
89774W        W27268  13.363  20.215  15.454  0.1303 -0.1138 -0.0592
89775W        W27269  10.020   3.690  23.143  0.3189  0.2080 -0.1393
89776W        W27270  34.808  24.717  10.766  0.0217 -0.1796 -0.0349
89777W        W27271   2.354   4.200   3.281 -0.1341  0.0563 -0.1574
89778W        W27272   3.540   8.337  17.659  0.0159 -0.2734 -0.2178
89779W        W27273  14.824  19.569  25.366  0.2028 -0.0165  0.0459
89780W        W27274  26.690  26.622   2.038  0.1278  0.1010  0.3219
89781W        W27275  15.314   1.057  20.629  0.0798 -0.0120 -0.0328
89782W        W27276  16.714  15.380  25.059  0.1284 -0.2693  0.0803
89783W        W27277  33.317   2.492  16.593  0.1903 -0.0089 -0.3924
89784W        W27278  14.225  32.027   2.624  0.1922 -0.0853  0.3017
89785W        W27279  12.705   2.117   8.765 -0.0860  0.0304 -0.1603
89786W        W27280   2.806   6.514   2.205  0.1445 -0.1466 -0.1681
89787W        W27281   7.982  17.272   2.844 -0.0652  0.3056 -0.2912
89788W        W27282  28.646  28.994  18.058  0.1310 -0.0999  0.0953
89789W        W27283   3.195  11.136  22.457 -0.0572  0.1176  0.0313
89790W        W27284   7.942   1.081   0.348  0.0025 -0.1314 -0.0681
89791W        W27285  28.959   2.461  13.665 -0.2333 -0.0362 -0.1508
89792W        W27286  35.252  14.878  14.213  0.0921  0.1673 -0.0580
89793W        W27287   3.766   0.984   5.718 -0.3055 -0.0892  0.2918
89794W        W27288  13.512  30.504   3.999 -0.0190  0.2874  0.0609
89795W        W27289  23.028  17.675   3.200  0.4347 -0.1771  0.4356
89796W        W27290  22.328   7.921  25.991  0.2214  0.2660 -0.0972
89797W        W27291  31.262  30.445  23.059  0.1168  0.1185 -0.0983
89798W        W27292   2.077   9.891  22.270  0.1680 -0.3854  0.3271
89799W        W27293  21.729   0.535  24.037 -0.1657  0.2668 -0.0170
89800W        W27294  13.693  28.663  14.720 -0.1232 -0.3094 -0.0157
89801W        W27295   8.257  11.192  21.302 -0.0931 -0.2165 -0.3697
89802W        W27296  16.129  13.379  12.166  0.2352  0.2810  0.0950
89803W        W27297  31.908   1.706  16.879 -0.1389  0.0233  0.3190
89804W        W27298  10.397  30.857   1.312 -0.0928  0.0419 -0.0080
89805W        W27299  30.072  20.698  25.246  0.0850 -0.0808 -0.0263
89806W        W27300  33.262   7.831  12.575 -0.1384 -0.4169 -0.1962
89807W        W27301   8.456  10.039   8.060 -0.1827 -0.1936 -0.0662
89808W        W27302  26.098  28.492   2.534  0.1373  0.0146 -0.3742
89809W        W27303  22.595  19.675   2.702 -0.0373  0.2167 -0.3059
89810W        W27304  26.817   7.264  18.541 -0.4492 -0.2331 -0.1871
89811W        W27305  12.691   5.849   6.229 -0.0272 -0.0631  0.1169
89812W        W27306  19.391  20.661  23.806 -0.1801 -0.1714  0.0270
89813W        W27307  12.468  24.750  23.881  0.1350 -0.2597  0.1089
89814W        W27308  26.069   4.162  19.277  0.0490  0.0161  0.3210
89815W        W27309  28.386  14.635  10.928 -0.0106  0.0530  0.5635
89816W        W27310   9.956  25.469   3.138  0.1144  0.1226 -0.0437
89817W        W27311  23.395  24.672  19.314  0.1828 -0.0331  0.2784
89818W        W27312  31.497  19.293  14.654 -0.0835  0.3049  0.3407
89819W        W27313  23.943   4.483  13.606  0.1655  0.2746  0.1687
89820W        W27314  33.286   0.054   5.751 -0.0221 -0.0876 -0.0300
89821W        W27315  17.266  23.439  22.053  0.0108  0.0210  0.1523
89822W        W27316  19.526  20.573  20.791  0.0038  0.2201 -0.2081
89823W        W27317  33.106  18.150   9.942  0.2297 -0.1829 -0.0686
89824W        W27318   1.900   1.764  19.070  0.1357  0.2026 -0.0106
89825W        W27319  32.581   9.999  20.057  0.1158  0.4101 -0.0349
89826W        W27320  22.793  35.050  18.699 -0.5956 -0.1246  0.0681
89827W        W27321  26.657   5.983  21.481  0.3166  0.0474  0.0641
89828W        W27322   9.597  22.098   3.206  0.1437 -0.3749  0.1337
89829W        W27323  24.599  32.522  17.153  0.1193  0.0654  0.1168
89830W        W27324  33.055  12.317  12.225  0.2614  0.0264  0.2008
89831W        W27325   0.165  30.290  24.233  0.4198 -0.1624 -0.3902
89832W        W27326  22.264  31.087   1.325  0.1903 -0.2537  0.4929
89833W        W27327   3.558  16.612   0.046 -0.0460  0.0685  0.0073
89834W        W27328  23.174   1.128  26.231 -0.1313 -0.3476 -0.1862
89835W        W27329  32.258  14.635  25.393  0.3126  0.1511 -0.0044
89836W        W27330   7.757   3.386  21.245 -0.1173  0.1205 -0.1067
89837W        W27331  22.428   0.555   5.672 -0.1353 -0.0504 -0.2851
89838W        W27332  32.764   5.033  13.808  0.3071 -0.0035 -0.0455
89839W        W27333  20.023  28.951   0.452  0.0897  0.1331 -0.1989
89840W        W27334  32.755  13.137  14.328 -0.0746 -0.0662  0.1414
89841W        W27335  24.158  33.410  13.208  0.0350 -0.0981 -0.0674
89842W        W27336  35.113   1.317   7.862 -0.0692  0.2933  0.2260
89843W        W27337  11.655   5.368  22.068  0.3913 -0.0155  0.0699
89844W        W27338   5.516   0.424   3.873 -0.2509 -0.2174 -0.1840
89845W        W27339   0.511   1.625  14.940  0.1896 -0.2666 -0.1314
89846W        W27340   1.904   2.402  24.207 -0.1408  0.2208  0.6751
89847W        W27341   8.250   7.870  24.156  0.0627  0.0475 -0.2133
89848W        W27342  32.065   1.348  12.790  0.0378 -0.0023 -0.1398
89849W        W27343  27.894  24.211  24.091 -0.2173 -0.2452 -0.0283
89850W        W27344  10.164  14.889  23.043 -0.1459 -0.0817  0.0621
89851W        W27345  16.823   7.557   3.950  0.2945  0.1563  0.1131
89852W        W27346  22.697  22.986   2.188  0.3517  0.0003 -0.0914
89853W        W27347  26.054   9.020  22.325  0.0248 -0.0081  0.0001
89854W        W27348  34.957  20.996  14.142  0.1571  0.4021  0.3379
89855W        W27349   2.690   3.208   0.719 -0.0331  0.0712  0.0562
89856W        W27350  24.522  19.309  25.297  0.2247 -0.3099 -0.0235
89857W        W27351  12.765  20.047   7.270 -0.2714  0.3889 -0.0900
89858W        W27352  11.869  34.623   1.400 -0.0686 -0.0462 -0.1448
89859W        W27353  22.539  29.831  22.587 -0.1940  0.0025  0.0038
89860W        W27354   1.353  19.122  16.777  0.2379 -0.2596  0.0569
89861W        W27355   9.382  28.876   9.754  0.0699 -0.1022 -0.0434
89862W        W27356  10.042  30.446  10.585 -0.0044 -0.2460 -0.2336
89863W        W27357  35.098  15.957  13.951 -0.0257  0.0728 -0.1980
89864W        W27358  26.031  26.316  13.247  0.0899  0.1668  0.0926
89865W        W27359   8.933  22.527   3.713 -0.0721 -0.1178  0.0207
89866W        W27360  19.717  34.899   8.514  0.1311  0.0008  0.2186
89867W        W27361  28.214  13.349  14.147  0.3386  0.1783  0.1065
89868W        W27362  22.545  34.563  24.446  0.0094 -0.0210 -0.1603
89869W        W27363  29.105  35.091  15.943  0.6405 -0.0496  0.0636
89870W        W27364  23.519   3.052  20.604 -0.0676 -0.0055  0.0380
89871W        W27365  30.220  20.183   5.730  0.2800 -0.1701 -0.1454
89872W        W27366  12.999  30.253   2.853 -0.0807  0.0661  0.0315
89873W        W27367  29.093   8.817  23.379  0.1867  0.1580 -0.3216
89874W        W27368   3.059  30.275  23.598 -0.1908 -0.0607 -0.2054
89875W        W27369   3.363  16.807   2.650  0.1803  0.1247  0.0287
89876W        W27370   4.104   9.191  17.416 -0.1291  0.0234  0.0120
89877W        W27371  23.783  34.377  21.800  0.2120 -0.2519 -0.1371
89878W        W27372  15.178  33.419   9.139 -0.1238 -0.1064  0.2736
89879W        W27373  28.162   9.679  14.333  0.1016 -0.3671 -0.1459
89880W        W27374  34.011  21.885   9.250 -0.2422  0.0502  0.3750
89881W        W27375  25.607   1.770  16.627 -0.1571 -0.0224 -0.1248
89882W        W27376   1.824   5.774  15.133  0.0142  0.1295  0.2383
89883W        W27377   3.250  35.286  11.587 -0.0503  0.2011 -0.3160
89884W        W27378   3.234  32.222  20.351 -0.2103  0.3837  0.0349
89885W        W27379  27.237   9.619   7.890 -0.1037 -0.0393 -0.2728
89886W        W27380  12.759  27.698   4.832 -0.1863 -0.0275  0.2772
89887W        W27381   7.394   0.793   7.100 -0.0333 -0.1404  0.0257
89888W        W27382  25.415  16.411  11.665  0.1251  0.0242  0.1321
89889W        W27383   5.157   1.992  18.563 -0.1773 -0.2213  0.0502
89890W        W27384  33.377   0.356   4.533  0.0500  0.0875 -0.0880
89891W        W27385  13.700  30.584  23.690 -0.1293  0.4313  0.4180
89892W        W27386  26.702  24.057  15.892  0.1886 -0.2037  0.1657
89893W        W27387  19.435   1.281   3.477 -0.2475 -0.1052 -0.2821
89894W        W27388  26.131  29.474  14.910 -0.1034  0.1160 -0.1729
89895W        W27389   5.484  25.798   5.891  0.0081  0.3724  0.0971
89896W        W27390   4.215  23.825  19.740  0.0576  0.0209  0.1330
89897W        W27391  10.260  17.896   4.195  0.2518  0.0015  0.0270
89898W        W27392  34.536  16.209  16.867 -0.0509 -0.0926  0.0917
89899W        W27393  17.183   8.483  22.661 -0.0292 -0.1143 -0.2662
89900W        W27394  14.782  31.855   6.668 -0.2199  0.2995 -0.2112
89901W        W27395  21.451   9.703  18.974  0.0652 -0.0246  0.0661
89902W        W27396   0.574   1.522   0.850 -0.0530 -0.0562 -0.2655
89903W        W27397  34.420   6.516  24.310 -0.0638  0.1533 -0.1288
89904W        W27398  32.598   8.434  24.438  0.3625  0.3472 -0.0449
89905W        W27399  24.166   6.805   4.633 -0.0859  0.1464  0.0896
89906W        W27400  28.332  18.504   9.427 -0.1426 -0.0953 -0.1976
89907W        W27401  29.223  18.213  21.911 -0.0995  0.0461  0.1507
89908W        W27402  17.082  20.219  22.143  0.0223 -0.2408 -0.1489
89909W        W27403  15.925  31.908  10.619 -0.0387 -0.0045  0.0093
89910W        W27404  34.727  24.347  16.721  0.1121 -0.0764 -0.4843
89911W        W27405  14.378  34.785  21.807  0.0754 -0.1026 -0.0696
89912W        W27406  32.298   2.100  13.243  0.0903 -0.0421 -0.1794
89913W        W27407  25.918  15.634   8.635  0.0833 -0.0193 -0.1114
89914W        W27408  35.017  16.979   7.772 -0.2745 -0.1374  0.1421
89915W        W27409  30.688  30.895  16.080  0.0787 -0.0748  0.2868
89916W        W27410  19.508  23.999   3.757  0.0486  0.3300  0.0955
89917W        W27411  13.651  32.584  11.550  0.1827  0.0551 -0.0744
89918W        W27412  34.404  21.184  16.336 -0.1690 -0.1037 -0.0422
89919W        W27413   1.366   1.366  20.131 -0.3193 -0.0740  0.0374
89920W        W27414  10.600   1.174   2.816  0.0421  0.0387 -0.4418
89921W        W27415  33.729  14.314  14.588 -0.1767  0.0023 -0.0123
89922W        W27416   3.258  20.046  16.382  0.1188  0.0403  0.0923
89923W        W27417  25.796   1.926   5.152 -0.0215  0.0385 -0.0092
89924W        W27418   1.102  24.730   1.179 -0.3235  0.2129 -0.4269
89925W        W27419  25.769  21.434  12.846 -0.3868 -0.2270  0.0554
89926W        W27420  19.210  23.372  18.718 -0.2389  0.1256  0.0721
89927W        W27421  25.593   8.784   2.896  0.1901  0.3955  0.2642
89928W        W27422  21.624  11.689   7.080 -0.1238 -0.1127 -0.1878
89929W        W27423  34.524  23.055  19.492 -0.2685  0.2332 -0.0093
89930W        W27424  20.585  12.149  25.932 -0.0837 -0.2178 -0.3647
89931W        W27425  22.658  23.570  20.153  0.2631  0.1079 -0.0906
89932W        W27426  28.840  13.001  19.614  0.0155  0.0624 -0.0190
89933W        W27427   7.632  31.141  11.623  0.0873  0.1762  0.0647
89934W        W27428   0.621   6.511   5.662  0.3258  0.0123 -0.0077
89935W        W27429  28.478  26.926  10.218 -0.0606 -0.2153 -0.2115
89936W        W27430  13.124  10.598  20.787 -0.0147 -0.2854  0.0883
89937W        W27431  12.943   0.970   8.255 -0.0332 -0.2941 -0.0435
89938W        W27432  28.645   1.743  18.032 -0.2739  0.3078  0.0651
89939W        W27433  32.192  29.397  23.058  0.1188  0.0703 -0.0418
89940W        W27434  14.032  10.829   9.614 -0.2544 -0.4240  0.1773
89941W        W27435   7.217   4.857   8.366  0.2755  0.2962  0.0126
89942W        W27436   5.498  31.917  21.189 -0.2081  0.1262  0.2118
89943W        W27437   5.587  27.925  10.781  0.0662 -0.0536 -0.0748
89944W        W27438   0.715  10.641  21.641 -0.1278 -0.2591  0.0381
89945W        W27439  18.328   7.038  22.909 -0.0934 -0.0555  0.0647
89946W        W27440  12.024   3.296  21.365 -0.0620  0.1646 -0.0892
89947W        W27441  16.295  21.021  22.113 -0.0717 -0.1454  0.1120
89948W        W27442  27.517  31.115  18.641 -0.2779 -0.1190 -0.0770
89949W        W27443   4.243   5.976  23.811 -0.2129 -0.1317 -0.2752
89950W        W27444  24.619  13.698  12.789  0.1684 -0.1622  0.1216
89951W        W27445   8.416  11.775  11.246 -0.0078  0.2612  0.1138
89952W        W27446   1.392  20.112  13.050  0.1115 -0.1651  0.0488
89953W        W27447  33.433   8.952  15.747 -0.3036  0.2081  0.1373
89954W        W27448  26.054  14.946  19.014 -0.1312 -0.2058 -0.0794
89955W        W27449   9.467   8.279  19.209  0.1815 -0.0890  0.1252
89956W        W27450  11.203  29.929  10.728  0.1380  0.3200 -0.1745
89957W        W27451  20.762  17.988  23.149 -0.2413 -0.0024  0.1599
89958W        W27452   6.670   3.693   7.898 -0.4562 -0.1440 -0.0056
89959W        W27453  24.669   8.098  20.904 -0.2088 -0.3169  0.1606
89960W        W27454   4.280   1.284  25.310 -0.1494  0.0864  0.1982
89961W        W27455  25.917  10.162  10.888 -0.0650 -0.0999 -0.1576
89962W        W27456  27.187  24.579  20.593 -0.2480  0.0377 -0.1725
89963W        W27457  21.648  13.857  25.299  0.0899  0.0744 -0.0608
89964W        W27458  33.842   9.899  19.867  0.2991 -0.0465 -0.2178
89965W        W27459  15.614  25.591   4.350 -0.5583 -0.0780 -0.0674
89966W        W27460  10.468   3.997  21.343 -0.0184 -0.0656  0.0049
89967W        W27461  15.151  16.465  22.393  0.3289  0.0929 -0.2462
89968W        W27462  33.377  16.662  20.856  0.1577 -0.0208 -0.2761
89969W        W27463  25.380  16.232  13.544  0.0055 -0.0637 -0.1986
89970W        W27464   7.451   2.575  10.495 -0.0469 -0.4267 -0.3183
89971W        W27465   6.837  17.142   4.278  0.0625 -0.0247  0.0686
89972W        W27466  14.500  29.507  21.581  0.0453 -0.3543  0.3632
89973W        W27467  11.424  12.944  23.663  0.0069  0.0757 -0.1878
89974W        W27468  28.947   8.020  15.175  0.0509 -0.2409  0.1514
89975W        W27469  15.230  21.074   2.879 -0.0675 -0.0592 -0.0660
89976W        W27470   2.252  19.342  23.788  0.2241 -0.4226  0.2577
89977W        W27471   7.608  24.009  25.485  0.0168 -0.2746 -0.0844
89978W        W27472  30.460  33.988  18.535  0.0460  0.0056  0.2426
89979W        W27473   6.666  24.221  10.698  0.1352 -0.3913 -0.1651
89980W        W27474  25.551  28.977  10.482  0.0112 -0.2485 -0.0920
89981W        W27475  29.810  29.136  25.293  0.1554  0.1191 -0.0125
89982W        W27476  25.203   2.023  20.987 -0.0051  0.0369 -0.1475
89983W        W27477   8.085  12.592   6.313 -0.1522  0.0163 -0.1475
89984W        W27478   1.927  18.982  26.063 -0.1576 -0.1259 -0.0912
89985W        W27479  29.905  21.849  17.673  0.0106  0.0374  0.1435
89986W        W27480   0.732  17.563  16.024 -0.0740 -0.1032  0.0562
89987W        W27481  28.807  29.041  18.558  0.3932 -0.1066  0.0929
89988W        W27482  25.757  11.272  21.214 -0.1121  0.2244  0.1854
89989W        W27483  31.308  12.919  13.871 -0.0659  0.3267 -0.0346
89990W        W27484  24.374  11.428  20.120 -0.1430 -0.1496 -0.0853
89991W        W27485  15.270   7.212  20.633 -0.1510  0.2501  0.0035
89992W        W27486  33.047  28.200  18.509 -0.0138  0.0299 -0.0161
89993W        W27487  31.246  32.913   4.778 -0.1693 -0.0156  0.1626
89994W        W27488  35.044  32.458   2.224 -0.0923 -0.2643  0.0540
89995W        W27489  30.991   0.737  13.209 -0.3711 -0.0050  0.0265
89996W        W27490  12.189  10.299  25.429 -0.0957  0.1200 -0.1536
89997W        W27491   8.271   1.154  13.484  0.0296 -0.1495 -0.1291
89998W        W27492  23.277  31.721   2.422  0.1210 -0.1335  0.3800
89999W        W27493  19.115  28.630   6.682 -0.1197  0.0085  0.3673
90000W        W27494  26.358  34.714  19.747  0.0112 -0.0528  0.2723
90001W        W27495   8.721  22.075  13.093 -0.0168  0.0221 -0.0629
90002W        W27496  30.095   4.876   4.032 -0.0914 -0.2103  0.3595
90003W        W27497  24.789   5.224   6.120 -0.1021  0.0368  0.1684
90004W        W27498  10.981  10.100  13.768  0.0928 -0.0714 -0.1643
90005W        W27499   8.836  20.291   7.369 -0.3168  0.0075  0.0180
90006W        W27500  18.079  34.137  23.090 -0.0579  0.0579 -0.5967
90007W        W27501  33.760  21.101  19.940  0.1199 -0.0236 -0.0406
90008W        W27502   3.295   1.467   2.374  0.2865  0.0621  0.1329
90009W        W27503   1.753   4.955  17.949 -0.1339  0.1712 -0.0903
90010W        W27504  11.612  12.744   3.137 -0.3881  0.0844  0.0985
90011W        W27505  34.727  31.564  21.255  0.0360  0.0886 -0.1804
90012W        W27506  26.614  17.341  24.792 -0.2981 -0.0167 -0.2546
90013W        W27507  30.460  27.881  17.851  0.0978  0.0325 -0.0229
90014W        W27508   2.295  10.882   4.716  0.0044 -0.4082  0.3788
90015W        W27509   8.540   1.603  14.585  0.1830 -0.1178  0.1438
90016W        W27510  23.219   2.721  21.861 -0.3198 -0.0438 -0.0541
90017W        W27511  27.421   7.129   2.166 -0.2575  0.0471  0.0018
90018W        W27512   4.120  30.285   2.751 -0.2810  0.3481 -0.0369
90019W        W27513  22.957   8.786  21.161  0.2180 -0.1676 -0.1948
90020W        W27514  24.367  27.765  13.670 -0.2928  0.0213  0.1294
90021W        W27515  30.742  10.257   9.290 -0.0263  0.0807 -0.0516
90022W        W27516  28.123  13.023   9.900 -0.0366  0.4458  0.1832
90023W        W27517   1.222  17.877  19.514  0.5368 -0.0603 -0.0283
90024W        W27518  15.003  19.529  14.264 -0.0297 -0.2519 -0.0392
90025W        W27519   4.675   9.722   7.956 -0.0559  0.0421  0.1521
90026W        W27520  11.840  16.579  19.435 -0.2672 -0.1638 -0.0792
90027W        W27521  30.492  12.937  14.439  0.1366  0.0211 -0.0416
90028W        W27522  19.670   8.047  10.925 -0.1538 -0.1814  0.0130
90029W        W27523  15.047  11.520   6.204 -0.1962  0.1676 -0.0103
90030W        W27524   2.321  23.032   4.509  0.0576  0.1454 -0.0901
90031W        W27525   3.194   8.949   4.914 -0.1252  0.2149  0.1184
90032W        W27526   2.312  15.555  25.876 -0.4123 -0.0159 -0.1751
90033W        W27527  22.834  28.613  19.391 -0.3845  0.0254 -0.1308
90034W        W27528  32.042   0.868   5.356  0.0069  0.0062  0.0095
90035W        W27529  17.322  32.152   6.144  0.3698 -0.0530 -0.1291
90036W        W27530  26.679   4.521  12.166 -0.1405  0.2161  0.1641
90037W        W27531   4.975  33.513  19.288  0.0002 -0.0694 -0.2186
90038W        W27532   7.198   7.578  11.767  0.3821  0.1358 -0.1655
90039W        W27533  11.024  13.948   7.405  0.1266 -0.1977 -0.0146
90040W        W27534  31.466  33.393   0.373  0.2117 -0.0041 -0.0320
90041W        W27535  25.361  32.581   0.949 -0.1300  0.1968  0.0620
90042W        W27536  10.706  18.307  21.196  0.5316 -0.0159 -0.1223
90043W        W27537  34.009   1.205   3.610 -0.2843 -0.1229 -0.1702
90044W        W27538  35.068  19.108  22.297 -0.1453  0.0675  0.1375
90045W        W27539  31.546  34.172  23.583 -0.1240 -0.1906 -0.1184
90046W        W27540  25.315  31.944   2.807 -0.2859 -0.0514  0.3810
90047W        W27541  17.556  15.916   9.318 -0.1082 -0.0641  0.5095
90048W        W27542  34.120  16.917  21.297  0.5413 -0.2626  0.0457
90049W        W27543  28.498   9.712  12.663  0.0637  0.0574  0.0513
90050W        W27544  13.506  26.294  11.958 -0.1434  0.0071  0.0901
90051W        W27545  11.806  32.532   7.834 -0.0321  0.0057 -0.0406
90052W        W27546  12.067   4.639   5.538 -0.0910 -0.1995  0.1882
90053W        W27547  16.133  12.899  10.889 -0.0134 -0.3460 -0.2606
90054W        W27548  11.486  30.799  13.806 -0.2705  0.1437 -0.1709
90055W        W27549  25.674  30.270  13.443 -0.1291  0.1247 -0.3401
90056W        W27550   7.454   6.049  10.385 -0.1959 -0.1062 -0.0570
90057W        W27551  34.452  10.184   1.241 -0.1384 -0.1378 -0.0171
90058W        W27552   3.304  29.240  23.342  0.0412  0.0079 -0.2384
90059W        W27553  34.504  31.953  16.570 -0.1823  0.2701 -0.1899
90060W        W27554  32.084  12.836  15.199 -0.0042  0.2693 -0.1666
90061W        W27555  13.608   3.610  21.203 -0.3937  0.1479 -0.1209
90062W        W27556  16.348  32.974   0.027 -0.0364  0.1207  0.1542
90063W        W27557  33.579   3.777   4.285 -0.0638  0.1893 -0.3798
90064W        W27558  31.955  21.919  14.211 -0.5154 -0.0238  0.1422
90065W        W27559  31.983  21.592  10.055 -0.1392 -0.0515  0.3754
90066W        W27560  29.919   9.860   8.129  0.2206 -0.0237 -0.0528
90067W        W27561  27.250  21.374  12.196 -0.3824 -0.1234 -0.2356
90068W        W27562  25.179  24.215  23.962 -0.2909 -0.1779 -0.1839
90069W        W27563  12.595  14.105  11.469  0.0959 -0.0648  0.2042
90070W        W27564  17.225   8.993  20.638  0.2950  0.1205  0.1284
90071W        W27565  10.851  25.820   0.073  0.2098  0.0750  0.2742
90072W        W27566  17.532  24.256  21.178  0.0140  0.0773 -0.0285
90073W        W27567  17.878  13.170  24.239 -0.2542  0.1710 -0.1257
90074W        W27568  34.565  19.876  22.417 -0.0770  0.0997 -0.1376
90075W        W27569  15.350   2.266   9.921 -0.2579 -0.3587  0.1211
90076W        W27570  14.555  21.224  12.614  0.2393  0.1949  0.1652
90077W        W27571  19.213  24.725  24.700 -0.0872  0.0382  0.1224
90078W        W27572  22.396   8.991  16.668  0.4519 -0.2639  0.0663
90079W        W27573  20.476  28.036  21.063 -0.1236  0.2193 -0.0288
90080W        W27574  29.444  16.414  13.778  0.0704  0.0654 -0.1268
90081W        W27575   0.144   0.246   5.187 -0.0605  0.0378 -0.2739
90082W        W27576  30.358  20.215  17.941 -0.0302 -0.1595 -0.3401
90083W        W27577  22.418  30.030  24.885 -0.1432  0.0031 -0.0479
90084W        W27578   1.632  16.603  22.849  0.2970  0.1553 -0.0565
90085W        W27579  13.923  20.909  13.888  0.0941  0.0885  0.0680
90086W        W27580  28.187  31.810  17.158  0.3278  0.2296 -0.0055
90087W        W27581   5.271  30.798  11.604  0.2045 -0.0570  0.2618
90088W        W27582  26.722  21.216  15.315  0.1085 -0.1151 -0.1548
90089W        W27583  29.805   2.367  10.777  0.1009 -0.0730 -0.1280
90090W        W27584   4.764  33.708  22.559 -0.1435 -0.0550 -0.0741
90091W        W27585  30.474  16.628  24.162 -0.0653 -0.3002 -0.0618
90092W        W27586   5.071   4.017   8.450 -0.2530  0.0279  0.0243
90093W        W27587  20.650  28.835  13.971 -0.2858  0.1213 -0.3710
90094W        W27588   1.733  25.600   5.462 -0.1185  0.0192 -0.1568
90095W        W27589   7.217  20.949   0.642  0.2754 -0.1088 -0.4606
90096W        W27590   3.896  32.652  20.655  0.1758  0.1257  0.0966
90097W        W27591  18.507  35.205  22.910  0.3219  0.2285 -0.0987
90098W        W27592  32.225  21.660  20.094  0.1665  0.0325  0.0216
90099W        W27593  22.424  10.398   0.089 -0.0989  0.0954  0.2556
90100W        W27594  18.602   6.571  25.344  0.1043  0.1029  0.0352
90101W        W27595   4.709   6.644   0.161  0.1324 -0.2376  0.0571
90102W        W27596  12.950  13.076  25.143  0.4881 -0.2179  0.0924
90103W        W27597   3.843  14.834  16.878 -0.0901 -0.1375 -0.0684
90104W        W27598   0.287  30.644  21.176  0.1229 -0.0883 -0.2694
90105W        W27599   3.257  20.052  24.701 -0.1228  0.1925 -0.1255
90106W        W27600  32.957  23.880  15.398  0.1853  0.2913 -0.3234
90107W        W27601  26.082  25.173  25.215  0.2421 -0.0556 -0.2682
90108W        W27602  21.631  23.226  16.395 -0.0268 -0.0511 -0.3077
90109W        W27603  28.313   8.756  19.359 -0.1613 -0.3167 -0.2901
90110W        W27604   4.638  22.914  25.730 -0.0195  0.1093 -0.0182
90111W        W27605  15.416  27.127  26.190 -0.2766 -0.0708  0.1786
90112W        W27606  33.752  12.116   9.878  0.0423 -0.1010  0.1502
90113W        W27607  25.251  17.113  21.454 -0.0489  0.0390 -0.0556
90114W        W27608  21.665   7.511  15.314  0.1388  0.0589 -0.0972
90115W        W27609  24.378  12.094  24.825 -0.0720  0.0483  0.3100
90116W        W27610  34.818  11.657  14.640  0.2368 -0.3255 -0.1932
90117W        W27611   5.467  33.900  19.367  0.2982 -0.2340 -0.0835
90118W        W27612  16.832  29.723   7.860 -0.0405 -0.2824  0.0268
90119W        W27613  11.016   8.504   2.907 -0.0464 -0.1972  0.0163
90120W        W27614   2.977   5.747   5.621 -0.1566 -0.0073 -0.3832
90121W        W27615  33.580   4.697  13.650  0.2128  0.0201 -0.1259
90122W        W27616  23.843  20.859  18.490  0.1621 -0.3427  0.1723
90123W        W27617   0.168  30.310  22.190 -0.0705  0.1177 -0.0567
90124W        W27618   9.345  25.228   8.227  0.2319  0.1313  0.1914
90125W        W27619  29.829   0.704  24.253  0.2887  0.0764 -0.0184
90126W        W27620   1.654   2.188  23.204  0.0505  0.2274  0.1403
90127W        W27621   6.316  30.938   1.725  0.3406 -0.1708  0.0724
90128W        W27622   5.924   7.474  21.144 -0.1674 -0.0422 -0.1064
90129W        W27623  33.338  23.797   8.991  0.1471  0.1425 -0.1345
90130W        W27624  26.675  23.613   6.727 -0.3012 -0.0785 -0.0516
90131W        W27625  24.976  28.638  24.671  0.0869 -0.3447 -0.0909
90132W        W27626  33.114  14.499  16.430  0.2091 -0.0631  0.0706
90133W        W27627   7.162   4.766  10.700 -0.1226  0.0100  0.0159
90134W        W27628  15.095  31.080  21.761  0.1670 -0.0447  0.0104
90135W        W27629  19.986   7.466  10.529 -0.0120  0.1572 -0.0337
90136W        W27630   2.946  13.530  19.765 -0.1455 -0.0990  0.0182
90137W        W27631  14.036  23.885  11.653 -0.0663 -0.1678  0.0244
90138W        W27632   0.872  20.933  16.707 -0.0004  0.0544 -0.0659
90139W        W27633   8.405  18.920   3.403  0.2454 -0.0184  0.0216
90140W        W27634  11.878   9.492  18.830  0.2663  0.1739 -0.1485
90141W        W27635  33.955   5.586  22.357 -0.0098  0.2300 -0.1555
90142W        W27636  15.087  23.943   2.221  0.0931 -0.1682 -0.0695
90143W        W27637  24.855  27.464  25.242 -0.1941 -0.1842  0.2421
90144W        W27638   0.636  23.058  23.930  0.1045  0.2619 -0.0396
90145W        W27639   2.048  26.665  23.622  0.1504  0.0367  0.1449
90146W        W27640   9.098  22.271  13.387 -0.0036  0.0487  0.0630
90147W        W27641   3.311  29.649  25.362 -0.0256  0.0980  0.2138
90148W        W27642  29.861   7.869  19.819 -0.0286 -0.2957  0.0550
90149W        W27643  22.573   1.013  24.862  0.0026  0.0766  0.2150
90150W        W27644   2.374   1.554  23.787  0.0501  0.1121 -0.1290
90151W        W27645   7.109  31.098   5.815  0.1973 -0.2414  0.0160
90152W        W27646  12.242  15.477   7.395 -0.2734 -0.1052  0.1751
90153W        W27647   5.403  13.437  10.804 -0.0614  0.1584 -0.2190
90154W        W27648  26.912  23.293   7.045 -0.3183  0.0378  0.3840
90155W        W27649  30.566  35.218   6.542  0.3121  0.1715 -0.0489
90156W        W27650  16.453  27.454   0.717  0.0004 -0.3281 -0.0825
90157W        W27651   2.848  30.961  10.525  0.0762 -0.0855  0.0894
90158W        W27652   2.668  15.120  16.237 -0.0644  0.1712 -0.2214
90159W        W27653  17.238   3.681  17.435  0.0255 -0.1983 -0.0149
90160W        W27654  17.236   2.333   5.826  0.0761 -0.0347  0.3595
90161W        W27655  13.592  11.416  13.327  0.2834 -0.0364  0.2372
90162W        W27656  33.148  17.388   5.052 -0.0461  0.2705 -0.1088
90163W        W27657  10.989  31.728  25.554 -0.2135 -0.2104 -0.0448
90164W        W27658   3.258  23.749   4.738 -0.0071 -0.0821 -0.0434
90165W        W27659  18.155   8.022   3.865  0.3244 -0.1392  0.0251
90166W        W27660  16.738   9.077  10.020  0.1382  0.1272  0.2617
90167W        W27661  14.843  14.049  20.871 -0.1576  0.0298  0.0494
90168W        W27662  24.246  29.842  16.643  0.0432 -0.0481 -0.1622
90169W        W27663   0.920  30.609   0.066 -0.0625  0.1645  0.1294
90170W        W27664  15.843  30.806  22.089  0.2123  0.2022 -0.3282
90171W        W27665   1.485  29.061  21.278 -0.1527 -0.1298  0.0138
90172W        W27666  30.799  33.260  20.767  0.0379  0.0091 -0.1588
90173W        W27667  13.102  11.165  10.514  0.2739  0.1116  0.0456
90174W        W27668  25.513  31.134  16.119 -0.1418  0.1332 -0.0459
90175W        W27669  14.247  19.021  10.936  0.3595  0.2446 -0.3437
90176W        W27670  16.124   5.850   8.300 -0.1336 -0.1055  0.0978
90177W        W27671  14.632  35.068  23.395 -0.1004  0.0514  0.0889
90178W        W27672  20.201  32.937  15.447  0.1219  0.1796  0.2720
90179W        W27673  32.797  26.138  23.357 -0.0310  0.0670  0.0115
90180W        W27674  24.952  14.620  11.284  0.0824 -0.0118 -0.2447
90181W        W27675  28.682  27.818   9.127 -0.2757 -0.0271  0.0775
90182W        W27676  14.925  15.043   6.284  0.2777  0.3141 -0.0311
90183W        W27677  25.021  26.578   1.577  0.1649  0.1380  0.1555
90184W        W27678  26.717  35.190   0.861 -0.0373  0.0607  0.2380
90185W        W27679   3.967   8.309   3.732  0.1875  0.2220  0.0347
90186W        W27680  29.973  10.412   9.279  0.0942 -0.0991 -0.3688
90187W        W27681  17.061  23.048  14.703 -0.1875  0.1571 -0.1208
90188W        W27682   6.546   5.255  19.610  0.1308  0.0931 -0.4426
90189W        W27683   2.781  35.089   8.868  0.2812  0.0789  0.4146
90190W        W27684  23.546  22.752   3.183  0.1038  0.1984  0.2244
90191W        W27685  24.514  18.551  21.783  0.0491 -0.1081 -0.2005
90192W        W27686  27.460  34.374  20.981 -0.2689 -0.0274  0.0153
90193W        W27687  21.267  23.314   5.203  0.0821 -0.1958  0.1901
90194W        W27688  10.934  32.791  20.707 -0.0142 -0.1228  0.0808
90195W        W27689  10.587  27.166   1.221 -0.1192  0.0629  0.0212
90196W        W27690  26.951  21.214  18.671  0.1834  0.0648  0.1532
90197W        W27691   1.865  33.414  25.107  0.0971 -0.2357  0.0254
90198W        W27692   1.807  28.441  25.015 -0.2432  0.1095  0.0867
90199W        W27693  18.440  27.521   8.277  0.2600 -0.2723  0.3495
90200W        W27694   9.278  12.388  21.335 -0.2750  0.1564 -0.1467
90201W        W27695  17.000   5.120   4.607  0.1270 -0.0127  0.1456
90202W        W27696  33.944  13.431  26.154  0.0321 -0.0002  0.2700
90203W        W27697  14.370   6.637  20.641  0.0542  0.1869 -0.2738
90204W        W27698  22.842  27.902  18.198 -0.0411  0.0513 -0.2270
90205W        W27699  14.713  31.088   6.293 -0.1410 -0.2271  0.2171
90206W        W27700  17.261   7.773   3.034 -0.1999 -0.2329 -0.1934
90207W        W27701   5.517  30.747   0.289 -0.0705  0.1176 -0.1196
90208W        W27702   9.437  35.191   5.413 -0.2329 -0.1276  0.0969
90209W        W27703  27.632  10.851  19.857 -0.1852 -0.3542  0.3190
90210W        W27704   1.084  11.769  18.084 -0.0990  0.0984  0.0272
90211W        W27705  30.543   4.772  14.949  0.3810 -0.0134  0.2448
90212W        W27706  31.089   0.332   3.829 -0.1420 -0.2773 -0.4796
90213W        W27707   2.811  26.641   8.068 -0.0458  0.0533 -0.0443
90214W        W27708   2.372   1.046   0.844  0.0132 -0.3177 -0.1583
90215W        W27709  16.319  28.884   7.237 -0.0497  0.0448 -0.2904
90216W        W27710  15.970  13.836  25.623  0.0123 -0.1929 -0.1439
90217W        W27711   8.035  31.803   6.097 -0.0304  0.0213  0.1479
90218W        W27712  34.151  31.538  16.468 -0.0209 -0.1186  0.0023
90219W        W27713  13.180  11.038   9.586 -0.3016 -0.0105 -0.1934
90220W        W27714  24.901  18.476  17.232 -0.1888  0.0507  0.1755
90221W        W27715  18.174  16.407   1.405  0.4016  0.0363 -0.1413
90222W        W27716  10.109  23.998   4.197  0.2655  0.2588  0.0674
90223W        W27717  19.609  24.754   4.885  0.4241 -0.1751  0.2479
90224W        W27718  25.005  27.582  11.709 -0.1205 -0.1419 -0.0260
90225W        W27719   4.294  35.306   2.617 -0.2585 -0.5165  0.0746
90226W        W27720  14.377   8.960  23.927 -0.1627 -0.3073 -0.0364
90227W        W27721  13.820  18.233  24.282 -0.1636  0.2562  0.1831
90228W        W27722   8.092  35.149   9.969 -0.2006  0.1753 -0.1938
90229W        W27723   5.550  26.882   3.743 -0.0115  0.2949  0.0603
90230W        W27724   1.053  28.922   3.966  0.4175  0.0242  0.0403
90231W        W27725  28.043   3.517  22.514  0.2818  0.0153  0.1374
90232W        W27726  25.976  28.904  14.965 -0.2324  0.0218 -0.0292
90233W        W27727  33.164  19.910  20.345 -0.2762 -0.2831  0.3688
90234W        W27728   8.458  34.759  23.066  0.0621 -0.0268 -0.0820
90235W        W27729  15.125   8.619  19.796  0.0004 -0.0687  0.0386
90236W        W27730  26.880   7.243  10.947  0.1241  0.0074  0.2013
90237W        W27731   6.821  26.862  24.289 -0.1228  0.3433  0.0076
90238W        W27732  29.056  10.984  25.583  0.1604  0.2238 -0.0157
90239W        W27733  12.966  32.576  10.729  0.3062  0.2870  0.1772
90240W        W27734  33.685   3.223  18.798 -0.1654 -0.0404  0.0359
90241W        W27735  11.323  12.226  12.706 -0.1062 -0.2557 -0.1475
90242W        W27736   7.322  28.504  23.204  0.1075 -0.1809  0.1387
90243W        W27737   3.815  34.437   7.646  0.1089 -0.0060 -0.2311
90244W        W27738   8.540  34.401  15.422 -0.3523 -0.0243 -0.1419
90245W        W27739  21.540   9.864  22.396  0.2949 -0.2069 -0.0598
90246W        W27740   3.081   4.231   7.353  0.0845 -0.2350  0.1488
90247W        W27741  18.417  29.219   5.312  0.3466  0.1908  0.0026
90248W        W27742   1.133  16.442   1.216 -0.3444  0.1367  0.0964
90249W        W27743   9.855  10.185  24.127  0.1087 -0.0230  0.3963
90250W        W27744   1.296  10.864  15.536 -0.0368  0.2985  0.1066
90251W        W27745   5.914  13.206  10.066 -0.0806 -0.2795 -0.1480
90252W        W27746  20.387   4.836   4.236  0.3445  0.0721  0.1585
90253W        W27747  22.302  33.771   1.666 -0.2341  0.0227 -0.0194
90254W        W27748  29.392   2.790  20.246 -0.0807  0.3501  0.0536
90255W        W27749  35.166  25.552   3.361 -0.1731  0.2041  0.0995
90256W        W27750  32.468  14.887  18.204 -0.0769  0.4320  0.0786
90257W        W27751   3.801  14.765  20.736 -0.1317 -0.1575  0.0309
90258W        W27752   6.009   5.828   3.652  0.1987  0.2716  0.1624
90259W        W27753   0.717  32.829   5.633  0.2368  0.0037  0.1617
90260W        W27754  13.140   2.801   0.147  0.0463 -0.1339  0.1528
90261W        W27755  25.893  18.985  13.244  0.1053 -0.1017  0.0447
90262W        W27756  22.694  10.627  23.274 -0.1344 -0.1867 -0.0582
90263W        W27757  28.123  18.574  18.531  0.0742 -0.1950 -0.1512
90264W        W27758  20.630  31.044  15.522 -0.1736  0.2093 -0.0230
90265W        W27759  28.487  27.523   1.601 -0.0119 -0.2700 -0.1551
90266W        W27760  26.694  33.654  17.776 -0.1615 -0.2522  0.2557
90267W        W27761  10.634   0.599  11.190  0.2745 -0.0114  0.3713
90268W        W27762  33.508   1.137  21.884 -0.0355  0.2990  0.5440
90269W        W27763  30.859  12.566  24.779 -0.0065  0.0444  0.1461
90270W        W27764  28.838  22.359  23.947  0.0367  0.1014  0.0846
90271W        W27765  20.421  24.542   0.891 -0.0739  0.1673 -0.1847
90272W        W27766   9.178   4.225   6.284  0.2788  0.0025 -0.2926
90273W        W27767  23.478  11.606  20.326  0.0719  0.1697 -0.1818
90274W        W27768  27.105   5.961  15.103  0.2602 -0.1547 -0.2202
90275W        W27769  23.410   6.431   5.300 -0.1433  0.1647 -0.0412
90276W        W27770  15.121  16.998  22.401 -0.1487  0.1102 -0.1069
90277W        W27771   7.502   6.424   9.993 -0.1950 -0.0580  0.3239
90278W        W27772   5.239   1.052   2.189  0.2321  0.2760  0.0368
90279W        W27773  27.888  26.442  16.493 -0.0667  0.1531  0.2356
90280W        W27774  35.171  21.868   8.525  0.0786  0.1508  0.0006
90281W        W27775  22.060  31.695   2.481  0.0425 -0.1881 -0.0243
90282W        W27776  13.096  24.528   8.496  0.0652  0.0661 -0.4016
90283W        W27777   8.003  12.912  10.552  0.1878 -0.1745  0.1601
90284W        W27778   1.906   3.775   2.105 -0.0223 -0.0390  0.0674
90285W        W27779  17.713   1.940   3.816  0.1152  0.3452  0.3254
90286W        W27780   2.595  16.204  13.169  0.3007  0.0532  0.0126
90287W        W27781  29.913   2.359   3.667 -0.2079  0.0961  0.1642
90288W        W27782   9.078  27.567  21.644  0.3327  0.0886 -0.1142
90289W        W27783  15.641   9.999  22.766 -0.1921  0.1198 -0.1361
90290W        W27784  19.524   7.729   3.880 -0.1893 -0.0995 -0.0483
90291W        W27785  13.855  17.478   5.747 -0.2321  0.1312  0.2457
90292W        W27786  21.458   9.261   3.900 -0.1670  0.0451 -0.2629
90293W        W27787  34.440  12.490  21.557  0.2501 -0.0311 -0.0371
90294W        W27788   0.592   4.925   7.236  0.0638  0.1023  0.0794
90295W        W27789  25.132  14.441  13.780  0.1024  0.1996 -0.2216
90296W        W27790  31.613  27.036   3.359  0.1367 -0.4052  0.1355
90297W        W27791  35.251  15.678  18.184 -0.1425 -0.2881 -0.4467
90298W        W27792  25.510  32.972   1.593 -0.0928 -0.0245 -0.0863
90299W        W27793  30.416  17.156  11.681 -0.3424 -0.1990  0.2474
90300W        W27794  12.871   7.546   6.342 -0.1880  0.0051 -0.4379
90301W        W27795  29.590   8.670  12.578  0.1350 -0.4107  0.0812
90302W        W27796  30.474  30.460  15.879  0.1598  0.0739  0.2624
90303W        W27797   5.363  24.535   4.382  0.1203  0.1145  0.1813
90304W        W27798  25.364  18.060  17.833  0.0226 -0.1131  0.2672
90305W        W27799  12.026  25.250   1.480 -0.0448  0.1015  0.0483
90306W        W27800  13.458  25.905  11.011  0.2329  0.0504  0.3669
90307W        W27801  14.626  25.913  25.544  0.0110  0.1061  0.1661
90308W        W27802  22.498  29.562  19.283  0.1612  0.2180  0.0285
90309W        W27803  13.825  11.751  23.984 -0.0739  0.1212  0.0723
90310W        W27804  12.054  10.079  21.609  0.0754 -0.0177  0.0422
90311W        W27805  28.330  30.804  15.788 -0.0302  0.1269 -0.0161
90312W        W27806   6.725   1.078   1.996  0.0167  0.0343  0.0924
90313W        W27807  29.673   9.275  19.542  0.3599 -0.4136  0.0999
90314W        W27808  20.385   4.287  16.330  0.0002 -0.0929 -0.1433
90315W        W27809  16.675  33.680   5.540  0.0869 -0.0611  0.1968
90316W        W27810   9.729  26.880   8.053 -0.0870 -0.3858  0.0067
90317W        W27811  16.185  32.859  20.073 -0.0079 -0.0161 -0.1643
90318W        W27812  17.966  29.237   4.071  0.3044  0.0534 -0.0980
90319W        W27813   6.710  12.132  18.027 -0.0301  0.0238 -0.1380
90320W        W27814   0.683  28.691   3.084 -0.0253  0.0834  0.0134
90321W        W27815  11.841  24.813   9.643 -0.0077  0.0522 -0.0998
90322W        W27816  17.870  28.262   1.699 -0.0310  0.1930  0.1211
90323W        W27817   7.733  34.950   4.905 -0.0285  0.0141  0.1678
90324W        W27818  30.598  35.107  17.942 -0.1638 -0.0203  0.4490
90325W        W27819   7.921   1.188  11.572 -0.1355  0.2962 -0.1920
90326W        W27820  23.181  29.263  11.899 -0.1631  0.0315  0.2222
90327W        W27821  19.341  18.275   7.852 -0.4333  0.0665 -0.2829
90328W        W27822  31.057  23.565   9.176 -0.3508 -0.1173  0.2826
90329W        W27823   9.448   1.491   7.402 -0.2252  0.0176  0.2130
90330W        W27824   3.283   6.714   5.328 -0.3192  0.1575 -0.0688
90331W        W27825  13.580   1.850  19.622 -0.0077 -0.0514  0.0735
90332W        W27826  17.193  29.296   5.806  0.1385  0.0613  0.1653
90333W        W27827   8.000  25.033  13.239  0.2865  0.2153  0.0327
90334W        W27828  33.572   6.390   4.092  0.2625 -0.4147  0.0709
90335W        W27829   2.465  10.031  24.478  0.1362 -0.0189  0.0640
90336W        W27830   9.539  33.522   8.088  0.1249 -0.3105  0.1883
90337W        W27831  31.177  33.513  12.248 -0.0165 -0.1630  0.1798
90338W        W27832   5.690   5.633   6.069 -0.1071 -0.2177  0.3085
90339W        W27833  21.240   9.513  16.486 -0.3146 -0.2944  0.0215
90340W        W27834  17.738  13.929  21.505  0.0717 -0.1229 -0.0033
90341W        W27835  25.099  26.735  16.841  0.1306 -0.1397 -0.0169
90342W        W27836  20.718  18.275  17.035 -0.1530  0.0883  0.1105
90343W        W27837  17.213  10.521   6.337  0.1101 -0.3207  0.4299
90344W        W27838  24.662  24.182  20.710 -0.0176  0.0916 -0.2645
90345W        W27839  10.038  15.653  20.650  0.0180 -0.3571  0.1650
90346W        W27840  28.708  33.695   0.760 -0.1217 -0.0507  0.2427
90347W        W27841  17.973  32.534   7.778  0.0652  0.1220 -0.0380
90348W        W27842  24.935  20.076  16.890 -0.2269 -0.3268 -0.1635
90349W        W27843  12.402  34.426  26.000  0.1521  0.1570  0.0073
90350W        W27844  30.755   9.007  12.048 -0.2370 -0.0135  0.3715
90351W        W27845  27.942   1.452  11.805  0.0684 -0.1362  0.0466
90352W        W27846   6.880   8.401  20.037 -0.2515 -0.0641  0.1862
90353W        W27847   0.668  15.981  14.162 -0.1369  0.1817  0.2561
90354W        W27848  11.790  11.530   6.853  0.0648  0.2162 -0.0857
90355W        W27849   6.451  15.198  25.461 -0.0148  0.0801  0.1482
90356W        W27850  10.255   2.028  24.929 -0.1847  0.2101 -0.0380
90357W        W27851  26.546  28.850  19.939 -0.1060 -0.0022  0.3067
90358W        W27852  27.908  34.193  23.240 -0.0438  0.1652 -0.2080
90359W        W27853  13.129   7.989   6.464 -0.1540  0.0645  0.0176
90360W        W27854   7.969  15.209  19.111  0.1487  0.4333  0.3013
90361W        W27855  20.068  31.266  19.581  0.3692  0.2644 -0.0409
90362W        W27856  12.367  19.514  11.120 -0.0788  0.1049 -0.0247
90363W        W27857  10.128  24.073  10.898  0.0556  0.1079 -0.0674
90364W        W27858  34.408   7.615  23.286  0.2103 -0.1058 -0.1078
90365W        W27859  35.191  22.926  22.241  0.1343  0.0992  0.0965
90366W        W27860  14.024  20.986   3.336  0.3234  0.1211 -0.0983
90367W        W27861   3.663  10.983   3.471 -0.1414 -0.2654 -0.1809
90368W        W27862  15.429  20.512   0.094  0.1007 -0.0339 -0.0627
90369W        W27863  27.271  30.396  14.487 -0.0126 -0.2440  0.0736
90370W        W27864  19.843  11.797   1.046  0.1909 -0.1027  0.2244
90371W        W27865   5.881  20.196  25.116  0.0061  0.1125 -0.1444
90372W        W27866   9.106   5.743   5.457 -0.1806  0.0249  0.1245
90373W        W27867   1.316   2.995   6.184 -0.0543 -0.0855 -0.1087
90374W        W27868   1.206  15.908   0.888  0.0182 -0.1897 -0.0781
90375W        W27869  14.280  18.023  24.435 -0.0390  0.0837 -0.0257
90376W        W27870  15.016  12.050  25.448  0.1086 -0.1194  0.1423
90377W        W27871  30.862  14.048  12.716  0.0532 -0.1037 -0.2828
90378W        W27872  22.821   9.808   4.237  0.1267  0.1798 -0.0284
90379W        W27873   2.115   2.194   5.691 -0.2288 -0.1934 -0.0252
90380W        W27874   8.591  27.204  11.548 -0.3502 -0.2609 -0.1080
90381W        W27875  25.958  10.656   1.511 -0.0798  0.0496  0.0457
90382W        W27876   4.579  29.886  10.810 -0.0169 -0.0033  0.2218
90383W        W27877   5.324  30.464  20.348  0.0988 -0.0744  0.4702
90384W        W27878  19.332  21.033   9.599  0.2898 -0.1052  0.0153
90385W        W27879   6.908   3.514   0.441  0.0342 -0.0280  0.0125
90386W        W27880   1.765  25.945  16.627 -0.0830  0.2527 -0.2724
90387W        W27881  14.537   8.008   4.779  0.2099  0.0039  0.1345
90388W        W27882   3.025   1.388   9.906 -0.0872  0.2150  0.0349
90389W        W27883   6.329  22.502  25.376 -0.0871 -0.4658 -0.0417
90390W        W27884  21.260  29.833   7.050  0.0953  0.3739  0.1659
90391W        W27885   9.248  32.072  11.917  0.0276  0.0602 -0.0034
90392W        W27886  19.623  14.964   4.855 -0.0806  0.1450 -0.3019
90393W        W27887  10.922   3.937   8.211 -0.0536 -0.3031  0.0829
90394W        W27888  23.375  26.403  13.680 -0.2862 -0.0390 -0.4516
90395W        W27889  33.201  11.479  24.912 -0.1023 -0.3850  0.4313
90396W        W27890  24.006  25.791  26.020  0.2123 -0.1578  0.0939
90397W        W27891  22.625  15.467  21.257  0.1305  0.0955 -0.1951
90398W        W27892   1.667   1.814   8.975 -0.1525  0.3032 -0.0125
90399W        W27893  18.087  11.195   6.654 -0.0246  0.2772 -0.2947
90400W        W27894  14.961   9.242  13.492 -0.2843 -0.2323 -0.2026
90401W        W27895  18.158  26.466   0.203  0.2131 -0.1436 -0.2339
90402W        W27896  35.089  10.474  11.412  0.1572 -0.1146  0.0644
90403W        W27897  13.970  18.189   7.281  0.0983  0.0231  0.0323
90404W        W27898  16.998  31.308  21.910  0.2789 -0.1798  0.0153
90405W        W27899  32.078  14.298  14.968  0.2509  0.1955 -0.3219
90406W        W27900  23.990  19.584  23.042  0.2006 -0.0813 -0.1012
90407W        W27901  23.623  34.883  19.478 -0.1763  0.0742 -0.0310
90408W        W27902   8.529   5.028   6.480  0.1460  0.2165  0.1799
90409W        W27903  24.705  28.702  21.191  0.0599  0.1354  0.0821
90410W        W27904  13.648   6.946   4.100 -0.0079  0.1945  0.1971
90411W        W27905   2.927  22.956   0.196 -0.1252  0.0191  0.0762
90412W        W27906  34.295  13.763  16.392  0.1459  0.1821 -0.1366
90413W        W27907   0.419  30.086   6.852  0.1563 -0.1336  0.1972
90414W        W27908  25.489  22.295  16.535 -0.3792  0.0035 -0.0336
90415W        W27909  22.912  30.054  22.337  0.0489  0.0404 -0.1180
90416W        W27910  16.716  13.338   5.973  0.1528 -0.0551 -0.4949
90417W        W27911   3.759   9.384  24.688  0.3991  0.2139  0.1811
90418W        W27912  25.560   3.977   0.088  0.0645 -0.0437  0.1257
90419W        W27913  22.011   8.528  17.413  0.1635 -0.1982 -0.3999
90420W        W27914  25.689  15.653  12.571 -0.2398 -0.3170 -0.0153
90421W        W27915  31.937  26.942  10.346  0.0889 -0.0914 -0.0327
90422W        W27916  21.940  29.870   0.232  0.4093  0.3719 -0.1347
90423W        W27917  27.817  28.447  11.679 -0.0701  0.5333  0.0925
90424W        W27918   6.776  30.391  11.094 -0.1637 -0.3108 -0.1758
90425W        W27919  16.747   2.573  24.751  0.0065  0.2889  0.0564
90426W        W27920  12.886  15.974  24.798 -0.0196  0.0825 -0.2060
90427W        W27921  24.546  24.750  19.698 -0.2505  0.1624 -0.0469
90428W        W27922  28.958   9.692  20.653 -0.0801 -0.0161 -0.0836
90429W        W27923  30.196   9.738  21.912 -0.1023  0.1413  0.3053
90430W        W27924  16.649  13.779  20.477  0.4014 -0.2348 -0.0617
90431W        W27925  12.916   0.797  23.198 -0.3406 -0.0598 -0.0636
90432W        W27926  34.299   9.225   1.580  0.0201  0.2631 -0.2752
90433W        W27927   4.877   5.890   2.062  0.1662 -0.3066 -0.1966
90434W        W27928   4.735   9.934  22.818 -0.2170  0.1900 -0.0830
90435W        W27929   8.128  32.238   1.109 -0.2950  0.0698 -0.1197
90436W        W27930   1.585  32.646  20.316 -0.0619  0.0561 -0.1568
90437W        W27931  14.078  29.272   8.442 -0.2504 -0.1943  0.0137
90438W        W27932  26.824  20.950  22.023  0.2103  0.0448 -0.0160
90439W        W27933  34.462  16.921  10.798 -0.1566 -0.0442  0.0097
90440W        W27934  35.005  22.779   9.363 -0.1635 -0.0606 -0.1839
90441W        W27935   0.237  15.714  23.393 -0.0793  0.2512  0.1318
90442W        W27936  21.364  28.936   2.142  0.0195 -0.1922 -0.2809
90443W        W27937  11.993  28.837   3.569  0.2360  0.0388 -0.3358
90444W        W27938  10.176  23.269   5.445 -0.1237 -0.1973 -0.3354
90445W        W27939   1.630   7.369  23.657  0.2526 -0.1288 -0.2493
90446W        W27940  20.746   2.818  15.473  0.0638  0.1506 -0.2171
90447W        W27941  30.412   0.816  25.493  0.2623 -0.0292 -0.2756
90448W        W27942  10.267  28.602   8.491  0.1207 -0.0877  0.1206
90449W        W27943   5.003  22.223   2.537  0.0929 -0.1187 -0.0650
90450W        W27944  15.969  13.166   1.891  0.0480 -0.0384  0.2216
90451W        W27945  25.869  13.200  22.460  0.0549 -0.0855 -0.1527
90452W        W27946  24.134  26.198  16.043 -0.0408  0.0323 -0.4052
90453W        W27947   8.319   6.647  13.238  0.0119 -0.2848  0.1526
90454W        W27948  19.059   7.240   5.541  0.0217 -0.0812  0.0898
90455W        W27949   9.032   0.751  13.971 -0.2062  0.1123  0.1096
90456W        W27950  34.740  14.134  19.132 -0.2414 -0.3658 -0.0631
90457W        W27951   3.247   3.492   8.573  0.0200 -0.0787 -0.3431
90458W        W27952  22.102  21.687  24.926  0.1130  0.2548 -0.3454
90459W        W27953  34.907  13.882  16.853  0.2596 -0.2928  0.1082
90460W        W27954  17.665  22.192   6.709 -0.0518  0.1548 -0.0575
90461W        W27955   1.569  15.815  17.679  0.0147  0.1210  0.4625
90462W        W27956  30.187  35.025  15.918 -0.1390 -0.2371  0.1011
90463W        W27957  29.398  23.180  13.902 -0.0045 -0.3494 -0.0881
90464W        W27958   0.150   1.051  26.112 -0.0560  0.2463  0.2618
90465W        W27959  10.175   6.749  23.505 -0.1065 -0.0175 -0.2350
90466W        W27960  26.100  19.171  10.786  0.1792 -0.0519 -0.1645
90467W        W27961  16.955  21.849   0.306  0.0572 -0.1792  0.0162
90468W        W27962   7.588  17.243  20.520  0.1398 -0.4525 -0.0454
90469W        W27963  15.071  33.664   2.445  0.2043  0.2687  0.0246
90470W        W27964  33.485  22.555  16.494 -0.1190  0.1279  0.3403
90471W        W27965  27.499  33.228  25.464 -0.1418  0.2323  0.2177
90472W        W27966  20.533  30.845  21.953 -0.0124 -0.1026  0.0921
90473W        W27967  23.575  14.438  23.357 -0.2272 -0.0739 -0.1339
90474W        W27968  11.573  30.456  10.554  0.2799  0.0797  0.0478
90475W        W27969  30.426  19.152  12.916 -0.1714  0.1439  0.0671
90476W        W27970  34.246  32.189  18.878  0.1397  0.4095 -0.2870
90477W        W27971  28.284  20.245  23.889  0.1078  0.4526 -0.1438
90478W        W27972   3.737  33.150   3.348 -0.2227 -0.0614  0.0399
90479W        W27973  25.895  32.457   3.285 -0.2107  0.1777 -0.0507
90480W        W27974  21.169   4.528   6.853 -0.1749 -0.2586  0.0768
90481W        W27975  30.860  10.025  24.835  0.2193 -0.0143 -0.5142
90482W        W27976   4.829  32.515   6.828 -0.0378 -0.1046  0.0590
90483W        W27977   2.706  31.887   0.858 -0.0437  0.0372 -0.1502
90484W        W27978   5.915   6.810   5.199 -0.1427 -0.1443  0.0941
90485W        W27979   5.091  18.274  17.500  0.0172  0.1634  0.2649
90486W        W27980  25.377  34.735  14.521  0.2477 -0.1132  0.0466
90487W        W27981  20.613   2.060  17.957 -0.2388 -0.1665 -0.2255
90488W        W27982  26.856  21.519  20.517 -0.0713 -0.1072  0.2129
90489W        W27983  29.241  34.312  24.265  0.0382 -0.0553 -0.2649
90490W        W27984  21.026  31.985  23.193 -0.0389  0.1261  0.1793
90491W        W27985  24.148  12.480  13.322 -0.3213 -0.2717  0.1475
90492W        W27986  31.247  23.926  14.709 -0.0185  0.3336  0.2884
90493W        W27987  28.293  16.159  24.564 -0.0805 -0.2316 -0.1817
90494W        W27988  31.502   5.639  11.716 -0.1825 -0.1465 -0.0736
90495W        W27989  28.668   3.205   1.668  0.1478  0.1858  0.1565
90496W        W27990  27.413  22.236  25.187  0.0240 -0.0142 -0.1029
90497W        W27991  21.367  19.024   3.011  0.1034  0.3082 -0.2842
90498W        W27992  21.001  12.967   1.411  0.1188  0.1700  0.0437
90499W        W27993  25.299   5.126  21.079  0.0259 -0.0129 -0.3376
90500W        W27994  25.134   8.703   1.362 -0.0421 -0.0013 -0.0387
90501W        W27995  27.199   9.242  24.353 -0.1822  0.4572 -0.2051
90502W        W27996  14.072  18.758  24.713  0.1737 -0.2779 -0.0281
90503W        W27997  13.783  11.721   1.284  0.1156  0.6334  0.2905
90504W        W27998  18.067  13.959  19.022 -0.1511  0.2512  0.1399
90505W        W27999  30.310  24.800  11.311  0.0157  0.0834 -0.1710
90506W        W28000  32.437  15.843  23.345 -0.1492  0.1736  0.0671
90507W        W28001   2.247   2.133  21.714 -0.1267  0.0486  0.2500
90508W        W28002  13.258   5.431   9.280  0.0666 -0.0669 -0.1898
90509W        W28003  10.237  10.581   1.905  0.0458 -0.0982 -0.1175
90510W        W28004  22.938  27.061   2.356  0.1038 -0.2055  0.2094
90511W        W28005  29.143  19.338  15.626 -0.0313  0.3240  0.2702
90512W        W28006  33.518   8.234  20.051  0.1919  0.0403 -0.0205
90513W        W28007   2.631  12.859  25.323  0.0897  0.2048 -0.1280
90514W        W28008  33.312  20.461   8.813 -0.1493  0.4101 -0.1571
90515W        W28009  26.247  13.685   7.498 -0.1118  0.2556  0.2137
90516W        W28010  29.909  13.060  15.753  0.1114  0.1786  0.2384
90517W        W28011   7.101   1.386   2.253  0.0300 -0.2734  0.0657
90518W        W28012   5.703  35.127   8.788 -0.1292 -0.0121 -0.0720
90519W        W28013  34.465  24.938  21.560 -0.0653 -0.0818  0.0056
90520W        W28014  20.011  34.963  15.151  0.0955 -0.0355 -0.0936
90521W        W28015  18.100  13.800   2.663 -0.1965 -0.0436 -0.0218
90522W        W28016   5.645  22.602   1.443  0.0715  0.4236  0.2828
90523W        W28017  23.866   1.312   0.828 -0.1854 -0.1071  0.3076
90524W        W28018  17.893   0.309   7.948 -0.2760 -0.1742  0.0860
90525W        W28019  20.298  24.569   7.298  0.0811  0.0598 -0.1709
90526W        W28020  33.693  33.131   4.329 -0.3688  0.0235  0.2695
90527W        W28021  35.034  28.834  20.948 -0.2912 -0.2563  0.2707
90528W        W28022   4.723  19.604  24.756 -0.1586  0.2629  0.3732
90529W        W28023  22.933  33.194  17.278  0.1102  0.0997  0.1265
90530W        W28024  28.212  34.243  15.011 -0.0202 -0.0495 -0.0911
90531W        W28025  11.737   4.405   4.246 -0.0373  0.2171 -0.0297
90532W        W28026  18.707  14.286  25.257 -0.0563 -0.1688  0.2828
90533W        W28027   1.432   5.904  16.215 -0.1920  0.1771  0.1205
90534W        W28028  13.125   3.129  20.511  0.0087 -0.0302 -0.0641
90535W        W28029  12.007  22.670   8.512 -0.0265 -0.1617 -0.0698
90536W        W28030   8.744  11.871   9.204  0.0195 -0.3841 -0.0825
90537W        W28031  18.948  32.216  16.362 -0.3098  0.0752 -0.2857
90538W        W28032   7.227  23.210  13.187 -0.1947 -0.0977 -0.0036
90539W        W28033  21.231  32.602   0.176  0.0450 -0.2215 -0.0872
90540W        W28034   7.766  20.753   8.661  0.3200  0.1750  0.0235
90541W        W28035   0.257   1.243   0.498  0.2604  0.0127 -0.2434
90542W        W28036  10.099  14.204   9.528  0.0195  0.2418 -0.2137
90543W        W28037  29.332  34.074   4.597  0.0994  0.3082 -0.0785
90544W        W28038  25.673   8.051  16.793  0.0687 -0.3637 -0.2442
90545W        W28039  21.326  24.832  19.011 -0.2965  0.0584 -0.1300
90546W        W28040  21.533  27.136  18.863 -0.0569  0.4051  0.1950
90547W        W28041  34.869  18.289  10.564 -0.1161  0.4834 -0.1236
90548W        W28042  14.927  34.590   4.646  0.2096 -0.0531 -0.0738
90549W        W28043  19.498  34.673   0.708  0.0733 -0.3766  0.0541
90550W        W28044   5.232  21.979  18.670  0.3931 -0.2544 -0.3747
90551W        W28045   5.932   6.299  19.693 -0.0210 -0.2238 -0.1603
90552W        W28046  32.328  21.101   8.202  0.1124 -0.0550 -0.1597
90553W        W28047  29.954  17.270  25.714 -0.0218  0.1495 -0.0585
90554W        W28048   6.478  34.957  24.027  0.2091  0.1989  0.1589
90555W        W28049  30.355   7.038  14.968 -0.2563 -0.3907  0.5575
90556W        W28050  10.013  31.853   2.380 -0.2306 -0.1546 -0.0627
90557W        W28051  14.615   1.213   6.868 -0.0479 -0.1190  0.0298
90558W        W28052  17.128   7.080  23.731 -0.0919 -0.1013 -0.0002
90559W        W28053   1.029  17.309  17.349  0.0681  0.0359  0.0769
90560W        W28054  29.213  22.489  14.210  0.0626 -0.0354 -0.0817
90561W        W28055  28.373   7.460   1.549  0.1636 -0.3266  0.1515
90562W        W28056   6.412   5.002   1.308 -0.0127 -0.3446 -0.0032
90563W        W28057  28.502  18.270  11.507 -0.1083  0.1108  0.2438
90564W        W28058   6.584  12.361   4.073  0.0832 -0.0101 -0.1111
90565W        W28059  28.331  20.430  16.338 -0.4102  0.2761  0.0201
90566W        W28060   6.688  34.730   6.829 -0.0377 -0.0330 -0.4941
90567W        W28061  21.635  21.118  24.237  0.0427 -0.0402  0.0065
90568W        W28062   1.324  10.837  24.054 -0.0907 -0.2337 -0.1977
90569W        W28063  14.450  29.291  20.383  0.0625 -0.0119 -0.0870
90570W        W28064  18.854  26.275   4.005 -0.1051  0.0156  0.4012
90571W        W28065  10.631   5.005   0.540  0.0815 -0.0952  0.1929
90572W        W28066  10.133  22.232   8.646 -0.2093 -0.2716 -0.1048
90573W        W28067  31.828  25.803  16.875  0.2104  0.0412  0.2254
90574W        W28068   6.715  29.777   1.530 -0.0575  0.2070  0.0730
90575W        W28069  12.333  14.494  25.432 -0.1145 -0.1918  0.2169
90576W        W28070  25.798  16.850   9.230  0.0918 -0.0625  0.0089
90577W        W28071   9.869  15.103  25.037 -0.2647  0.0156 -0.2859
90578W        W28072  21.054  20.797  19.689  0.1212  0.1227  0.1485
90579W        W28073  17.620   8.181   9.429 -0.2461 -0.1746 -0.1338
90580W        W28074  18.844  10.716  11.768  0.1349 -0.0255 -0.2217
90581W        W28075   7.165  12.462   1.426 -0.0662  0.1224 -0.0257
90582W        W28076  15.335  33.524  22.425 -0.2703 -0.2940 -0.0319
90583W        W28077  14.975  24.015  26.137  0.0341  0.1615  0.1280
90584W        W28078  25.743  23.962  19.678  0.0250  0.1668 -0.2486
90585W        W28079  31.103  29.488  18.503  0.0742 -0.0095  0.0319
90586W        W28080  10.175  13.929  22.261 -0.0151 -0.0817  0.1866
90587W        W28081  32.667  15.388   6.952  0.2192 -0.1190  0.0749
90588W        W28082  23.737  18.006  17.827  0.3150  0.3739 -0.4684
90589W        W28083   2.893   1.330   8.020  0.1742 -0.0307 -0.0008
90590W        W28084  17.708  16.138  12.198 -0.0920  0.0035  0.0261
90591W        W28085  28.693   7.268  10.645  0.0124 -0.1512  0.1056
90592W        W28086  27.048  30.269  21.154 -0.2408 -0.1303 -0.2504
90593W        W28087  16.864   7.948  20.867 -0.0708  0.3670 -0.1445
90594W        W28088   2.780   4.866  15.572 -0.1012  0.0439 -0.0285
90595W        W28089   2.260  18.207  11.921  0.1919  0.4449  0.0530
90596W        W28090  11.553  26.522  15.244 -0.3101 -0.2250 -0.0148
90597W        W28091  34.323   2.889  20.538 -0.1469  0.2790  0.2598
90598W        W28092  33.629  17.222  10.003  0.0337  0.0071 -0.0098
90599W        W28093  14.429  15.530   4.465 -0.0873 -0.2205  0.0929
90600W        W28094  26.600  21.235   6.334 -0.1699 -0.2806  0.0996
90601W        W28095  12.418  30.198   1.566  0.0659 -0.0757 -0.0086
90602W        W28096  17.683  31.744  21.057  0.2308 -0.0241  0.0890
90603W        W28097  10.637  19.911  24.425  0.0759  0.2104 -0.0227
90604W        W28098  23.507   6.409  21.445 -0.1728 -0.0049 -0.1672
90605W        W28099  16.439   2.261   1.752 -0.0344 -0.0944 -0.1444
90606W        W28100  31.067  22.255   7.398  0.1080  0.0081 -0.0502
90607W        W28101   2.436   2.495   3.080  0.5974  0.0818 -0.0348
90608W        W28102  28.590  27.288  12.501  0.3948  0.0257 -0.2389
90609W        W28103   9.354   4.367   4.895 -0.0402  0.0564  0.0036
90610W        W28104  24.427  27.225  12.733 -0.2090 -0.0511  0.2611
90611W        W28105  11.982  28.521  24.677 -0.0360  0.1374 -0.0179
90612W        W28106  10.565  33.648  21.796 -0.1460 -0.1485 -0.3370
90613W        W28107   6.387  10.461  22.258  0.0230 -0.1503 -0.0453
90614W        W28108  21.716   1.784   4.056  0.1986 -0.4216  0.1176
90615W        W28109  12.055  10.376  21.227 -0.1130  0.0447  0.0401
90616W        W28110  32.791  22.091   9.411 -0.0928 -0.0662  0.1168
90617W        W28111   3.087  26.270   7.800 -0.2388 -0.1365  0.0888
90618W        W28112   0.144   1.067  16.236 -0.3330  0.0035 -0.0436
90619W        W28113  11.911   5.724   9.189  0.2171  0.2606  0.1694
90620W        W28114  30.763  27.205  25.184 -0.1301 -0.0431  0.1228
90621W        W28115  13.509  22.167  25.589  0.0085 -0.0489  0.3916
90622W        W28116  30.830  24.783  16.371  0.0595 -0.0166  0.0451
90623W        W28117   0.076  31.883  25.631 -0.1866 -0.1985 -0.0347
90624W        W28118   0.729   3.265   7.754 -0.0319  0.0257 -0.0306
90625W        W28119   4.142  34.301   9.855 -0.0281  0.0593  0.2671
90626W        W28120  21.976  29.496  18.588  0.0184  0.0791 -0.1260
90627W        W28121  28.931  11.829  24.234  0.2508 -0.1379  0.1634
90628W        W28122  17.626  19.167   4.310 -0.1166  0.1063  0.1797
90629W        W28123  16.533   6.379  26.002  0.1004  0.4963 -0.4581
90630W        W28124  13.746  34.230  12.426 -0.0914 -0.0802  0.0768
90631W        W28125  30.233  18.503  20.144 -0.0898 -0.2165  0.3409
90632W        W28126  22.381  29.849  23.748  0.0324  0.1888 -0.0822
90633W        W28127  12.426   2.689   9.779  0.2194  0.1699 -0.0694
90634W        W28128  32.239  29.928  19.213  0.0559 -0.4613 -0.0747
90635W        W28129  11.392  17.039   8.357 -0.0988  0.1812  0.1335
90636W        W28130   8.436  17.558   6.154  0.1476  0.0648 -0.0747
90637W        W28131   4.985  11.438   0.709 -0.0626  0.0163 -0.1614
90638W        W28132   2.253  21.209  25.748  0.0365  0.1580 -0.0085
90639W        W28133   2.968  21.351  17.430  0.0312 -0.2104  0.0173
90640W        W28134  19.033  10.120   1.619 -0.0530 -0.1804  0.1060
90641W        W28135  11.616  20.829  22.483  0.1679 -0.0426 -0.1003
90642W        W28136  26.728  34.030  23.387  0.0087 -0.2050 -0.1931
90643W        W28137  16.536  28.012   0.502  0.2333 -0.1282 -0.1527
90644W        W28138  14.575  20.047  21.563 -0.2512 -0.2056  0.0735
90645W        W28139  20.021  31.159  23.734 -0.1110 -0.0641  0.2504
90646W        W28140  10.046  29.690   9.617 -0.1291 -0.0663  0.1096
90647W        W28141  24.880  26.457   9.604  0.0776  0.0832 -0.0859
90648W        W28142   9.678  15.890  12.634  0.0623 -0.0136 -0.2513
90649W        W28143   8.016  25.114   0.608  0.1598  0.0683 -0.1573
90650W        W28144  26.414  29.579   2.601 -0.0458 -0.2311  0.2681
90651W        W28145  16.126  32.627   0.635  0.2154  0.2004 -0.1032
90652W        W28146  20.431  32.893  16.784  0.0854  0.0157  0.2364
90653W        W28147   6.573   3.665   3.891  0.1751  0.0833  0.1188
90654W        W28148  18.264  23.663  22.318  0.0006 -0.2418 -0.1365
90655W        W28149   5.964  16.047  26.144 -0.4221  0.1742 -0.1516
90656W        W28150   0.537  19.616  14.866 -0.0101  0.1753 -0.2600
90657W        W28151   8.542   7.417  21.617 -0.0229 -0.0945 -0.1123
90658W        W28152  25.922  22.320  22.725  0.3657 -0.0345 -0.1180
90659W        W28153   2.384  29.587   9.740 -0.1634  0.0487  0.1541
90660W        W28154  13.675  28.825   0.413 -0.1881 -0.0756 -0.0044
90661W        W28155  13.456  25.707   1.373 -0.4993 -0.0949  0.0515
90662W        W28156   4.633   4.095  10.566  0.2420  0.0611 -0.0372
90663W        W28157  23.872   5.870  23.436  0.1833 -0.2716 -0.0419
90664W        W28158  17.469  25.795  10.597  0.2453  0.1294 -0.2234
90665W        W28159  22.297   8.666  18.900  0.1509 -0.0863  0.0399
90666W        W28160  17.987  13.386   9.249 -0.0119 -0.0967  0.1407
90667W        W28161  10.277   1.474  24.204  0.1691  0.0558 -0.0280
90668W        W28162  13.161  12.782  14.258  0.1044 -0.4776  0.0775
90669W        W28163   9.394  29.982   0.683 -0.2624  0.0772  0.0072
90670W        W28164  15.649  29.403   9.026 -0.3118  0.0178 -0.2034
90671W        W28165  30.795   2.228  16.593  0.2584  0.0402  0.1757
90672W        W28166  30.221  14.851  18.849 -0.1311  0.4626 -0.2620
90673W        W28167   6.757  12.673  21.521  0.1080 -0.2002  0.5821
90674W        W28168  27.470  29.584  12.413  0.0823  0.0081 -0.0108
90675W        W28169   9.321   7.713  18.430 -0.2086  0.0195 -0.0234
90676W        W28170   3.955   2.957   3.953  0.0006 -0.0934 -0.1808
90677W        W28171  32.064  33.429  20.885  0.3232  0.0367 -0.0556
90678W        W28172  30.704  24.870   7.309  0.0650 -0.1152  0.0921
90679W        W28173  18.354   1.583   5.314 -0.4211 -0.4286  0.2325
90680W        W28174   3.302  10.947  21.511  0.4061 -0.1728  0.2322
90681W        W28175  28.919  31.895   3.934 -0.4203  0.3515  0.2159
90682W        W28176  14.016  14.875   7.833 -0.0873 -0.4386 -0.0748
90683W        W28177  34.685  13.593  15.866  0.1538 -0.3137 -0.0682
90684W        W28178  25.379   2.633   4.860 -0.2386 -0.0531  0.0024
90685W        W28179  18.351  13.923   6.294  0.0427  0.1511 -0.1008
90686W        W28180  14.344   9.136   4.653  0.0969 -0.2183 -0.1509
90687W        W28181  26.814  21.406  14.826 -0.0534  0.2088  0.0365
90688W        W28182  20.130  14.814  18.656  0.0668 -0.1287  0.1104
90689W        W28183   4.818   9.678  19.463 -0.2698 -0.0038  0.0923
90690W        W28184  20.037   9.407  25.783 -0.4291  0.0573 -0.0009
90691W        W28185  27.481  16.034  16.946 -0.4292 -0.1994 -0.3382
90692W        W28186  11.149   9.657  12.197  0.1234  0.0558 -0.0127
90693W        W28187  35.167   1.599  18.691 -0.3402  0.0931 -0.1357
90694W        W28188  32.151   9.465   1.568 -0.1130 -0.3368  0.2487
90695W        W28189  31.114   7.967  25.804 -0.1457 -0.2003 -0.0234
90696W        W28190  24.435  23.087  15.322 -0.1394  0.0845  0.0322
90697W        W28191   1.235   8.292   2.626  0.1681  0.2863 -0.0642
90698W        W28192  26.174  32.831  13.370  0.0247  0.1126 -0.0075
90699W        W28193   9.633  15.980  21.509 -0.0767 -0.2359  0.3209
90700W        W28194  30.097   3.924  25.769  0.1434  0.0749 -0.0151
90701W        W28195   7.370  25.997  10.152 -0.3364 -0.1052  0.1173
90702W        W28196  16.134  21.304  25.678  0.3179  0.0906 -0.2465
90703W        W28197  23.210  25.306  20.717  0.2293  0.1019  0.2235
90704W        W28198  10.265  34.733  14.943  0.2258 -0.2758 -0.1982
90705W        W28199  18.741  16.814  18.295 -0.0619 -0.4345  0.4761
90706W        W28200   7.365   9.053   0.960 -0.1200 -0.0540  0.0031
90707W        W28201  10.420   1.232  24.946  0.0388  0.0455 -0.4989
90708W        W28202  25.353  32.531  11.279  0.2560  0.1007 -0.0161
90709W        W28203   8.069   5.279  10.013 -0.1723  0.4786 -0.1119
90710W        W28204  31.641   5.504  18.964  0.1377  0.5074  0.1991
90711W        W28205   2.469   9.476  22.295 -0.0892 -0.4635  0.0823
90712W        W28206  31.053  12.528  13.087  0.0760 -0.0447  0.2021
90713W        W28207  20.128  29.921  20.924 -0.7240  0.0498  0.2998
90714W        W28208  16.312   3.962   2.315 -0.1376  0.0247 -0.1341
90715W        W28209  29.528   0.004   0.798  0.0860  0.1601  0.1179
90716W        W28210  13.618  20.625  25.393  0.2147 -0.1184 -0.2433
90717W        W28211  20.549  28.878  24.955  0.0964  0.0466  0.1429
90718W        W28212  16.211   8.021  13.006  0.0031  0.4200  0.1140
90719W        W28213   6.691  28.465   7.676  0.0315 -0.0745 -0.1856
90720W        W28214  26.558  10.233   8.921  0.1912  0.1157  0.1149
90721W        W28215  21.367  22.008   4.003 -0.0020  0.2278  0.2781
90722W        W28216   2.980   2.806  24.828  0.2939 -0.2589 -0.0093
90723W        W28217  16.663   4.765  17.627 -0.0921 -0.1157  0.2241
90724W        W28218  29.637   0.487   5.925  0.4934  0.3291 -0.0548
90725W        W28219  30.717  31.643  13.005 -0.0252  0.2035 -0.2944
90726W        W28220  26.702  35.236   2.288 -0.1830  0.2055  0.1105
90727W        W28221   0.614  33.793  23.918 -0.4463 -0.0492 -0.0457
90728W        W28222  19.807   9.296   8.121  0.2233  0.3272 -0.1764
90729W        W28223  14.908  33.569   6.203  0.1556 -0.5072  0.3940
90730W        W28224  34.279  22.889   8.971 -0.1103  0.0452 -0.4272
90731W        W28225   3.694  26.308  19.589  0.1407  0.2709 -0.3309
90732W        W28226   9.514  22.265   7.303  0.1761 -0.1584  0.2217
90733W        W28227  19.508   7.123  12.042 -0.0073 -0.0408  0.1253
90734W        W28228   3.325  16.818  17.614 -0.0703 -0.2568 -0.2442
90735W        W28229  23.787  10.472   1.690 -0.1420  0.2141  0.1777
90736W        W28230  14.826  13.513  24.161  0.0285 -0.0231  0.0802
90737W        W28231  21.914  14.091   3.285  0.1111 -0.1455 -0.1279
90738W        W28232  12.220  11.081   6.663 -0.3288  0.0085 -0.1100
90739W        W28233  29.924  12.239  23.910  0.1418  0.2621 -0.0206
90740W        W28234  23.690  24.062  22.113  0.1857  0.0787 -0.0873
90741W        W28235   5.926  33.074  25.484 -0.0035 -0.0646  0.1238
90742W        W28236   0.866  18.863  13.701  0.0202  0.2164  0.2063
90743W        W28237   3.485  12.420  25.194  0.1616  0.0844 -0.1721
90744W        W28238  13.781  31.006  20.417 -0.1922 -0.2277  0.0303
90745W        W28239  13.365   0.108   2.717  0.0996 -0.3263  0.0493
90746W        W28240  27.966   3.926  25.084  0.0141  0.0045  0.2633
90747W        W28241  33.738   4.352  24.167  0.2442  0.1091  0.3274
90748W        W28242  20.359  27.543   6.862 -0.1275 -0.2786  0.1393
90749W        W28243  21.205  23.672   5.601  0.1671  0.2496  0.0485
90750W        W28244  27.232  21.756   9.222  0.0981  0.2503  0.0367
90751W        W28245  30.235  31.541   0.548 -0.4298  0.5862 -0.1528
90752W        W28246  30.101  10.171  10.877  0.3640 -0.2344 -0.1041
90753W        W28247  25.551  29.936   2.197  0.1066 -0.1380 -0.2020
90754W        W28248  34.161  34.781  15.965 -0.0056  0.0756 -0.1056
90755W        W28249   9.452   8.055  12.717  0.2304 -0.1181 -0.2121
90756W        W28250   4.792  10.088   2.364 -0.2301  0.0158  0.1591
90757W        W28251  13.421  24.239   0.436 -0.0001  0.0949 -0.3194
90758W        W28252  14.934  15.220   7.914 -0.1717 -0.0956  0.3971
90759W        W28253  17.847   1.967  16.656 -0.0835 -0.0210  0.2900
90760W        W28254   3.203  32.735  21.788 -0.1984  0.0814 -0.0298
90761W        W28255  21.382  17.262  19.282 -0.0234  0.0034 -0.3152
90762W        W28256  34.293  12.657  12.102 -0.1922 -0.0014  0.0674
90763W        W28257  24.646  34.420  15.728  0.0384  0.3446 -0.0441
90764W        W28258  10.219  13.001   9.383  0.0018  0.0826  0.1678
90765W        W28259  28.786   4.933   0.319 -0.0549 -0.2468  0.6632
90766W        W28260  32.397  10.470   8.263  0.1951  0.0130 -0.3443
90767W        W28261  30.011   9.853   0.746  0.0244  0.2591  0.2845
90768W        W28262   2.603   7.386   5.172  0.0343 -0.0763 -0.0603
90769W        W28263  19.071  15.235  22.817 -0.0535  0.0082  0.2780
90770W        W28264  11.876  13.790   1.375 -0.2202 -0.1750  0.0063
90771W        W28265  29.014  11.365  15.175  0.3840 -0.0000 -0.0352
90772W        W28266  26.921  32.136  12.230 -0.0658  0.2577 -0.0832
90773W        W28267  21.692  25.901  22.888  0.2069  0.1001 -0.1478
90774W        W28268  16.825  12.609  10.522 -0.2524  0.1800  0.1857
90775W        W28269  29.072  21.648  14.016 -0.1246 -0.0511  0.0464
90776W        W28270  32.684  14.416  26.182 -0.2990 -0.2799 -0.0025
90777W        W28271   6.667  19.602   4.218 -0.0722 -0.0577  0.1294
90778W        W28272  25.508   8.999  10.110  0.0478 -0.2159 -0.1396
90779W        W28273  27.947  20.237  11.738  0.2966  0.0107  0.3010
90780W        W28274   4.657  23.038  20.197 -0.0765 -0.0890 -0.0156
90781W        W28275  26.398  19.057  15.380  0.2578  0.3878  0.1274
90782W        W28276   1.201   5.569   7.046 -0.1353 -0.0577 -0.0147
90783W        W28277  22.721  21.626   0.956 -0.2007 -0.0159 -0.1225
90784W        W28278   1.099  13.881  14.626  0.0809  0.0686  0.0158
90785W        W28279   0.083  23.304  13.553 -0.1042 -0.2739 -0.0072
90786W        W28280  23.718   1.959  14.545 -0.2197 -0.1441  0.3095
90787W        W28281  12.108  32.049  24.912 -0.2545 -0.0338 -0.2840
90788W        W28282  15.182   6.415  25.576 -0.1341  0.1134  0.0345
90789W        W28283  16.193  13.151   1.171 -0.0044 -0.0031 -0.0404
90790W        W28284   2.547  33.356   3.958 -0.0241 -0.0413 -0.0071
90791W        W28285  29.829   3.566  11.077 -0.1273 -0.1636 -0.2729
90792W        W28286   7.003  11.195  17.946  0.1669  0.1787 -0.0103
90793W        W28287  17.854   0.194  20.271 -0.3898 -0.1007  0.2374
90794W        W28288  27.729   6.081  25.173  0.2889 -0.0557 -0.3172
90795W        W28289  33.142   1.692   2.029 -0.0148  0.2138 -0.1050
90796W        W28290  23.843  20.295  24.438 -0.3472 -0.1449 -0.2525
90797W        W28291   3.492  12.913  25.001 -0.1025 -0.4682  0.0060
90798W        W28292  13.067  26.184  16.154  0.2848 -0.3291  0.1630
90799W        W28293  33.703   3.967  17.674  0.4583  0.2484 -0.1436
90800W        W28294   5.333   6.766   1.748 -0.2444  0.4695  0.3376
90801W        W28295  24.258  25.200  22.824  0.0737  0.2028  0.0370
90802W        W28296   0.452  31.922  21.750 -0.0878 -0.2678 -0.1148
90803W        W28297  29.714  11.875   9.631 -0.1494  0.1999 -0.1656
90804W        W28298  31.244   9.604  17.382 -0.1929 -0.0981 -0.1289
90805W        W28299   8.064  29.560   8.254  0.0433 -0.2215 -0.1679
90806W        W28300   8.909  31.751   2.017 -0.1469  0.4235  0.0650
90807W        W28301  32.734  20.855  12.358 -0.0787  0.2610 -0.3904
90808W        W28302  29.400  32.192   5.658  0.0052 -0.1686  0.2009
90809W        W28303  34.246   2.279   5.944  0.5889 -0.3410 -0.1437
90810W        W28304  30.889  32.618  25.819 -0.3750  0.1946 -0.1281
90811W        W28305  10.361  19.933   8.030 -0.0951  0.2061  0.0727
90812W        W28306  13.430  25.523  13.531  0.3258 -0.3076  0.0715
90813W        W28307  18.177  21.262   2.945  0.0400  0.1779  0.2173
90814W        W28308  12.114  26.471  14.021 -0.1623 -0.0666 -0.1845
90815W        W28309  26.835  18.223  15.727 -0.0392  0.1713  0.0519
90816W        W28310  24.121  28.989  13.544 -0.1185  0.3405 -0.0316
90817W        W28311   9.763  28.028   2.104  0.0886 -0.0427  0.2974
90818W        W28312  30.885   0.961  16.037  0.1201 -0.5290  0.1672
90819W        W28313  14.957  32.718  22.183 -0.2249  0.2109  0.2643
90820W        W28314  26.435  12.418  24.922  0.0600 -0.1688 -0.0350
90821W        W28315  27.743  11.115  23.176 -0.1609 -0.2188  0.2045
90822W        W28316  18.563   4.995  10.342 -0.0290  0.1981  0.1032
90823W        W28317  23.411  20.688  21.335 -0.3442  0.1090 -0.0416
90824W        W28318   3.343  28.351   5.217 -0.0439  0.2603  0.0358
90825W        W28319  28.673  19.070  15.770  0.1774  0.2377 -0.0040
90826W        W28320  24.828  15.609  22.573  0.2459  0.0554 -0.1418
90827W        W28321  24.899  14.665  12.699 -0.1928  0.1454 -0.3464
90828W        W28322  31.668   8.282   0.264 -0.1503 -0.4017  0.1367
90829W        W28323  34.110  27.021  21.757 -0.3379 -0.0122 -0.2185
90830W        W28324  31.256  31.755  21.527 -0.1534  0.2478 -0.0346
90831W        W28325  21.543  21.380  22.081 -0.2206  0.0085 -0.6178
90832W        W28326   6.875  19.272  22.358  0.1889 -0.0199  0.0445
90833W        W28327  24.719  33.529  13.131  0.0054 -0.0571  0.1802
90834W        W28328   0.362  11.119  22.922  0.2511 -0.1483 -0.0777
90835W        W28329  35.146   3.360   8.012 -0.0670 -0.5227  0.2156
90836W        W28330  35.383   4.110  17.561 -0.1129  0.2394 -0.2087
90837W        W28331  23.702   0.568   3.288 -0.1886  0.0309  0.0558
90838W        W28332  23.953  19.106   0.490  0.2867 -0.0368 -0.0410
90839W        W28333  31.775  33.454  25.194 -0.1345 -0.0202  0.0725
90840W        W28334  28.205  25.434   6.803  0.0366 -0.0206  0.1066
90841W        W28335  34.762  13.607  24.975  0.3068 -0.3424 -0.0130
90842W        W28336   0.383   1.312  17.752 -0.0541  0.0208 -0.1751
90843W        W28337  31.932   8.597  23.820 -0.1328  0.0993  0.1593
90844W        W28338   0.442  31.206  16.489 -0.1116  0.1406 -0.1799
90845W        W28339   0.529  15.913  10.537 -0.2924  0.2345  0.0480
90846W        W28340  18.713   0.411   3.750 -0.1421 -0.2345 -0.2856
90847W        W28341  33.198  10.581  13.545  0.1406  0.1743 -0.0298
90848W        W28342   3.525   0.448  11.356  0.2732 -0.1197 -0.0721
90849W        W28343  11.636  14.020  22.899 -0.3067 -0.0090  0.0106
90850W        W28344   2.446  34.521  21.537 -0.0870 -0.1871 -0.1100
90851W        W28345   0.434  16.798  11.883  0.2072 -0.0742 -0.0439
90852W        W28346  34.259  23.639  20.440 -0.1176 -0.1061 -0.0233
90853W        W28347  10.337  24.636  16.780 -0.0715  0.2162  0.1843
90854W        W28348   2.289  12.756  14.932  0.1622  0.0003 -0.0629
90855W        W28349  32.435  32.266   2.301  0.0335  0.1904 -0.3187
90856W        W28350  23.880   1.246  14.010 -0.2022 -0.2092  0.0171
90857W        W28351  32.754  28.269  17.527  0.1655  0.1458  0.3312
90858W        W28352  28.597  33.718  16.759 -0.1761  0.1766  0.2922
90859W        W28353  25.497  12.156  17.961 -0.2977 -0.3668  0.0682
90860W        W28354  27.689  17.900   9.987  0.1810 -0.0065 -0.2550
90861W        W28355  20.141  23.784  21.067 -0.0531  0.0695  0.2285
90862W        W28356  14.158   4.021  23.080 -0.3217 -0.2228  0.0029
90863W        W28357   5.020  30.250  14.028  0.1997  0.1944  0.0570
90864W        W28358   7.453  29.369   3.815 -0.1014  0.1210 -0.1939
90865W        W28359   2.587   0.703  23.662  0.0178  0.2399 -0.0192
90866W        W28360   1.000  34.606   5.153  0.1616  0.1889  0.0006
90867W        W28361  10.812  29.629   7.374 -0.1005  0.1012 -0.3321
90868W        W28362  28.986  25.691  13.948  0.1551  0.0236 -0.2354
90869W        W28363  33.850  13.089  16.145  0.3646 -0.0568  0.2141
90870W        W28364  22.845  32.238  18.607  0.2258 -0.1087 -0.1386
90871W        W28365   3.610  11.873  19.681  0.1262  0.2430  0.3500
90872W        W28366  11.952   2.190   3.047  0.0851 -0.1930 -0.1291
90873W        W28367  31.036   3.455  14.332  0.0469  0.1865 -0.2257
90874W        W28368  32.354  14.726  10.639  0.2067 -0.3324 -0.1251
90875W        W28369  19.079  13.851  18.625 -0.2392  0.4205 -0.5495
90876W        W28370   6.947  26.227  24.394 -0.2695 -0.2839 -0.3778
90877W        W28371  29.917  31.942  18.595  0.0315 -0.0088 -0.0232
90878W        W28372  30.086  11.322  12.124  0.3324 -0.0234 -0.1545
90879W        W28373  10.448  15.201   3.327  0.0169 -0.2605 -0.0884
90880W        W28374  10.567   0.483   4.045 -0.1117 -0.2005 -0.1747
90881W        W28375  26.246   4.443  25.507 -0.0940 -0.0487 -0.3773
90882W        W28376  32.363  26.451  15.145  0.1559  0.1399  0.1307
90883W        W28377   7.434   2.562  11.873 -0.1314 -0.0805 -0.3076
90884W        W28378   8.727  14.593   9.399 -0.1581  0.1096  0.1506
90885W        W28379  11.634   3.220  21.772  0.0651 -0.0890  0.3672
90886W        W28380   4.192  19.576  23.291  0.0580 -0.1044 -0.1563
90887W        W28381  22.768   0.649  22.036  0.1101 -0.0723 -0.0374
90888W        W28382  16.923  30.348   6.290 -0.1264  0.0795 -0.3764
90889W        W28383  30.875  35.329  21.506  0.1552 -0.0225 -0.0963
90890W        W28384  32.995  27.774  12.751  0.3054 -0.1370  0.0773
90891W        W28385  26.664  31.198  12.839  0.1271  0.1448 -0.0641
90892W        W28386   8.414  29.138   5.891  0.1125  0.0017  0.1456
90893W        W28387  25.614  34.440   5.612 -0.1126 -0.1003 -0.1592
90894W        W28388  32.418  19.299  17.738 -0.0919 -0.1275 -0.1218
90895W        W28389  10.062  28.698  23.625 -0.1105 -0.1402 -0.1488
90896W        W28390  20.692  33.046  22.379  0.2151  0.1178  0.1111
90897W        W28391  27.637  21.787  25.452  0.3531 -0.1964 -0.0926
90898W        W28392  19.876  29.700  19.187  0.0234 -0.0767 -0.0845
90899W        W28393   4.102   9.597  16.169 -0.2245 -0.0847  0.1428
90900W        W28394  13.845  28.868   8.028 -0.1156 -0.3293 -0.1848
90901W        W28395  21.338   9.977  22.865 -0.0868  0.1483  0.2078
90902W        W28396  33.004  21.594  23.752 -0.0354 -0.0783 -0.2682
90903W        W28397  18.672  20.808  23.482  0.0248 -0.1948  0.0250
90904W        W28398   8.808  34.352  23.096 -0.0080 -0.0932  0.0010
90905W        W28399  28.950  32.110  24.775 -0.0213 -0.0598 -0.3016
90906W        W28400  19.838  34.309  15.718 -0.1766  0.0482 -0.0308
90907W        W28401  20.115  22.422  20.557 -0.0615  0.2386 -0.1467
90908W        W28402  28.758  32.092   2.807 -0.0335 -0.1448  0.0867
90909W        W28403  32.922  34.311  21.526  0.1516  0.0918  0.1490
90910W        W28404  21.439  29.043   5.670 -0.3135  0.0133 -0.1372
90911W        W28405   1.608  11.199   2.483  0.2648  0.0546  0.1822
90912W        W28406  16.165  12.044   3.796 -0.0195 -0.0034 -0.1893
90913W        W28407  32.788  18.287  14.601  0.0940 -0.2345 -0.1519
90914W        W28408  28.678  14.560   8.762 -0.1339 -0.4017 -0.1547
90915W        W28409  30.524  10.552  25.545 -0.0054  0.0529 -0.1239
90916W        W28410   6.895  11.787  24.952  0.1914  0.3437  0.3690
90917W        W28411  31.325  18.177  10.943  0.2725  0.0311  0.4190
90918W        W28412  26.861  15.796  25.705 -0.2145  0.0747  0.0899
90919W        W28413  18.980  24.900   0.954 -0.2317 -0.0662 -0.1960
90920W        W28414  12.669  30.349  16.732  0.0629  0.4710  0.0837
90921W        W28415  28.078  13.782  12.199 -0.0394 -0.0918 -0.1094
90922W        W28416   6.203  22.161  22.523  0.1088 -0.3394 -0.4683
90923W        W28417  15.978  13.017   6.070  0.1226 -0.0073  0.0747
90924W        W28418   3.955   4.408   9.185  0.0450  0.2129 -0.0380
90925W        W28419   4.404  23.002  21.529  0.1297 -0.1161  0.0368
90926W        W28420  22.853  15.129  13.380  0.1855 -0.3466  0.1189
90927W        W28421  17.450   3.722   0.501  0.0356 -0.2117  0.5016
90928W        W28422  33.726  31.748  16.602 -0.1734  0.1401 -0.2192
90929W        W28423  31.030  19.710  25.062 -0.1149 -0.2197 -0.0843
90930W        W28424   8.977  32.227  13.914  0.0187  0.0851 -0.0063
90931W        W28425  17.360  20.262  21.617  0.0289  0.0551  0.1780
90932W        W28426   4.813  18.318  16.894  0.1389  0.0869  0.1950
90933W        W28427  19.276  23.811   0.865  0.2422  0.1851 -0.0901
90934W        W28428  30.158  16.866  16.895  0.0653  0.1706 -0.0051
90935W        W28429  14.120  20.798   1.868  0.1741 -0.0943  0.0130
90936W        W28430   7.633  10.872   9.280 -0.3018 -0.0168 -0.0123
90937W        W28431   3.998  17.800  17.717  0.5363  0.1146  0.2120
90938W        W28432  32.694  12.649  12.261  0.0130  0.0902 -0.0162
90939W        W28433  24.495  17.026  18.938 -0.3518  0.1425  0.3620
90940W        W28434  19.614   1.664   3.166  0.1450  0.0815  0.0155
90941W        W28435   1.465  34.520  22.403  0.2527 -0.1362  0.0970
90942W        W28436  16.146  11.546  19.929  0.0357  0.2983  0.1686
90943W        W28437   3.423   0.279   0.740  0.1067  0.2310  0.1327
90944W        W28438  13.453   5.721  12.818 -0.0171 -0.0487  0.0117
90945W        W28439  33.111  29.278   0.809  0.2350 -0.0478 -0.1311
90946W        W28440   9.814   8.862   1.173  0.2188 -0.2510  0.1308
90947W        W28441  10.547  12.446   3.458 -0.2190 -0.2816  0.2386
90948W        W28442  32.272   4.234  23.400 -0.1059  0.0463 -0.1822
90949W        W28443  27.427   1.032   2.042 -0.1870 -0.0509  0.0449
90950W        W28444   8.689   7.945   8.529 -0.2717 -0.1698  0.1200
90951W        W28445  32.187   0.028  23.468  0.2663  0.1893 -0.2338
90952W        W28446  32.015  34.871  13.143  0.1288  0.0268  0.0169
90953W        W28447   2.157  15.714  24.282 -0.1261 -0.0409 -0.3164
90954W        W28448  18.001   8.215  19.781  0.1306  0.1928  0.0694
90955W        W28449  20.701   6.950   5.779 -0.0704  0.1369 -0.0314
90956W        W28450  16.730   6.836  25.601 -0.1325 -0.0304  0.0792
90957W        W28451   6.679  28.399   3.547  0.0875  0.0667 -0.0781
90958W        W28452   8.316  29.748  25.458  0.1600 -0.0209 -0.0699
90959W        W28453   7.300  35.222  11.102 -0.0517  0.0811 -0.1547
90960W        W28454  19.885  28.943   1.181  0.1693 -0.0894  0.0654
90961W        W28455  13.653  28.297   5.819 -0.3857 -0.2425 -0.1802
90962W        W28456  28.322  23.983  21.859 -0.0581  0.0013  0.1645
90963W        W28457  25.890  15.844  12.112  0.1154  0.2341  0.0293
90964W        W28458  14.119   8.450   2.973  0.0065 -0.3040  0.0164
90965W        W28459   8.126   2.154   3.727  0.0770  0.1037 -0.2161
90966W        W28460  24.401  32.444   0.623  0.2364 -0.1636  0.1602
90967W        W28461  18.955  22.705  10.788  0.0082  0.0311 -0.2952
90968W        W28462  18.976  35.383  17.690  0.3422  0.0136  0.0768
90969W        W28463  22.683  17.907  21.754  0.2544  0.1784  0.4344
90970W        W28464   0.293   0.490   2.129 -0.1780 -0.1398 -0.0545
90971W        W28465  11.987  17.579   5.500  0.0319  0.2953 -0.0688
90972W        W28466  28.324  11.583  24.314  0.0708  0.1534  0.1911
90973W        W28467  30.311  26.050  13.131  0.2009  0.0846  0.3007
90974W        W28468  17.283   7.595   0.146 -0.0699 -0.1873 -0.0028
90975W        W28469   0.614  26.879  17.757  0.0771  0.0236  0.1424
90976W        W28470  15.590  26.283  21.422 -0.0896 -0.0348 -0.1867
90977W        W28471  31.493  15.930   0.474 -0.0363 -0.1863 -0.0437
90978W        W28472  31.947  24.719  17.918  0.2174  0.2573 -0.2017
90979W        W28473   8.865  12.460  25.297 -0.0965 -0.2284  0.1786
90980W        W28474   2.923  33.945  25.700 -0.0777  0.3222 -0.0686
90981W        W28475  21.604  22.394  26.245  0.1023 -0.0037 -0.0713
90982W        W28476  21.137   5.476  17.441 -0.3780 -0.0488 -0.0999
90983W        W28477  28.427  11.039  14.542 -0.3313 -0.1648  0.3507
90984W        W28478  27.540   2.807  25.244  0.0583 -0.0715 -0.0741
90985W        W28479  32.324   3.112  20.082  0.1442 -0.0216 -0.2733
90986W        W28480  19.314   1.454  22.650 -0.2920  0.2390 -0.1248
90987W        W28481  29.330   7.630  13.036 -0.1361  0.0554  0.1333
90988W        W28482   4.745  10.214  19.183 -0.1192 -0.4530  0.2064
90989W        W28483   4.101  29.010  11.592 -0.1458 -0.0808 -0.2336
90990W        W28484  21.161   9.935  19.940 -0.1695  0.0089  0.0917
90991W        W28485  13.700   5.924  12.011 -0.1929  0.1796 -0.0802
90992W        W28486   0.895  15.991  10.213 -0.0881 -0.3906 -0.0682
90993W        W28487  20.041  15.374   5.926  0.0902  0.0310  0.1088
90994W        W28488   7.797   7.951  13.623 -0.0347  0.0923  0.0570
90995W        W28489   1.626   0.822  23.251  0.1327 -0.0686  0.2505
90996W        W28490   2.937  19.487  16.788  0.0070  0.0639  0.0422
90997W        W28491  26.446  15.619  14.360  0.1523 -0.0226 -0.1023
90998W        W28492  16.618  28.115   7.098  0.0504 -0.1377  0.0970
90999W        W28493  19.725  28.467   0.538  0.2038  0.0773 -0.3071
91000W        W28494  31.742  16.161   8.723  0.1200 -0.1369  0.0398
91001W        W28495  33.298  27.043   3.204 -0.0631  0.0419 -0.0570
91002W        W28496  28.604  16.306  20.391  0.2227 -0.2661 -0.2155
91003W        W28497  27.980   7.720  21.931 -0.3394 -0.3154  0.2871
91004W        W28498  15.204  11.616  14.359 -0.0809  0.0123  0.1814
91005W        W28499  32.182  20.037  19.637 -0.2000 -0.1730 -0.1634
91006W        W28500   5.618   0.738   9.474  0.0218 -0.0624  0.1149
91007W        W28501  30.103  16.868   7.334 -0.2434  0.0947 -0.0621
91008W        W28502   2.436  13.325  18.910 -0.3424  0.0123 -0.1360
91009W        W28503   4.151  12.847   1.583  0.0904 -0.3198  0.0679
91010W        W28504  16.129  26.118   7.514 -0.0888  0.1498 -0.2351
91011W        W28505  13.983  23.562  17.102 -0.0386 -0.0571  0.3168
91012W        W28506  14.925  29.869  10.698  0.0731  0.2397 -0.4322
91013W        W28507  11.608  31.454  16.276 -0.0702  0.0282 -0.3154
91014W        W28508  27.061  30.666  15.964 -0.1886  0.0923  0.2485
91015W        W28509   6.617   8.131  21.762  0.1106  0.0465 -0.1679
91016W        W28510  34.797  14.321   9.180 -0.1332 -0.1571 -0.1800
91017W        W28511   3.812  22.598  17.901 -0.0386 -0.1661  0.0195
91018W        W28512  28.098  10.541   8.942  0.0572  0.2556  0.0527
91019W        W28513  22.130  22.199  19.195 -0.1576  0.1386  0.3420
91020W        W28514   2.113  17.740  18.237  0.0724  0.1129  0.2392
91021W        W28515  14.849   4.358   9.556  0.1147  0.2077 -0.0864
91022W        W28516   8.106   1.676  20.149  0.0872 -0.2260  0.2218
91023W        W28517  29.691  28.623  20.991  0.0863  0.1244  0.1139
91024W        W28518   6.165   4.261   3.038  0.0873  0.2932 -0.2662
91025W        W28519   9.544  16.394  11.315  0.3015 -0.0251 -0.0580
91026W        W28520  34.294   1.526   0.542  0.3236  0.1424  0.0444
91027W        W28521  14.706  24.353  23.645 -0.1017 -0.1762  0.2749
91028W        W28522   1.049  27.415  19.938 -0.1391  0.0876 -0.3894
91029W        W28523  20.562  20.352   1.535 -0.2319  0.0797  0.0568
91030W        W28524  28.763  17.722  17.210  0.0115 -0.2495  0.1827
91031W        W28525  12.786  34.144   9.756 -0.0822  0.0543  0.1829
91032W        W28526  28.153   5.385  12.424  0.1036 -0.1777 -0.1400
91033W        W28527  18.374  16.117  19.889 -0.1729 -0.0985 -0.2713
91034W        W28528  24.268   1.347  25.110  0.1075  0.0241 -0.0490
91035W        W28529  25.666   5.863   4.056  0.2194 -0.2040 -0.1939
91036W        W28530  18.468   3.109   6.982  0.2374 -0.2330 -0.0038
91037W        W28531  15.726  12.181  14.003 -0.0991 -0.2121  0.2416
91038W        W28532  20.439  32.588   8.101  0.1161 -0.2506 -0.0141
91039W        W28533  10.990  35.243  14.227  0.0918 -0.0785 -0.2574
91040W        W28534   6.741   7.132  25.386  0.0242 -0.2975  0.2086
91041W        W28535  28.979  24.203  22.279  0.1945  0.1278  0.0700
91042W        W28536  19.087   3.036  17.585 -0.0443  0.1713 -0.2321
91043W        W28537  26.296  22.098   8.815 -0.2102 -0.0771 -0.0872
91044W        W28538   9.514   8.308  10.781 -0.0747  0.0224 -0.2590
91045W        W28539  26.258   2.833  11.689  0.1123 -0.1745 -0.0288
91046W        W28540  25.416  15.827  19.595  0.0418 -0.0893 -0.2102
91047W        W28541  27.170  28.949  17.430  0.0315  0.1459 -0.1230
91048W        W28542   9.992  25.125   4.105  0.0199  0.1055  0.0899
91049W        W28543  31.154  12.188  17.209  0.3136  0.1725  0.0754
91050W        W28544  13.483  29.655  10.977  0.1791 -0.0733  0.0318
91051W        W28545  35.200  19.821  24.444  0.1594 -0.1473 -0.0622
91052W        W28546   3.898  28.342   5.095 -0.2043 -0.0432  0.2569
91053W        W28547  15.676  23.098  22.948  0.0503  0.0313  0.1736
91054W        W28548   4.665  32.276  10.500  0.0887 -0.1949 -0.1301
91055W        W28549  17.024   2.189  16.967  0.1376  0.0980  0.0472
91056W        W28550   3.330  24.981  24.601 -0.1255 -0.1096  0.1955
91057W        W28551  25.323  29.624  11.750  0.0388  0.0671  0.0803
91058W        W28552  13.328  28.246  14.693 -0.0836 -0.1681  0.1664
91059W        W28553  23.854  20.452  20.412  0.0519  0.1507 -0.2857
91060W        W28554   4.877  28.345   5.191 -0.1607 -0.1991  0.1989
91061W        W28555   5.650   4.103   7.259  0.0059  0.1345 -0.0119
91062W        W28556   0.490   5.013   5.319 -0.2043 -0.1652  0.0833
91063W        W28557  24.823   8.463   0.427 -0.3274  0.3372 -0.0298
91064W        W28558  29.547  35.218  11.500 -0.4738  0.0485 -0.0499
91065W        W28559  31.491   8.570   1.242  0.0442  0.3367 -0.1994
91066W        W28560  35.350  29.185   1.673  0.5208 -0.2464  0.1363
91067W        W28561   9.503  33.104  13.171 -0.3015 -0.1502 -0.0962
91068W        W28562  23.783   6.448  16.010  0.0778 -0.1022 -0.4236
91069W        W28563   4.980   9.864   8.476 -0.2074  0.3593  0.2369
91070W        W28564  27.750  11.453  10.140  0.3020 -0.0425 -0.4369
91071W        W28565  24.373  29.656  17.486  0.0452  0.2302  0.1930
91072W        W28566  11.433  15.887  13.311  0.4559  0.2887  0.3896
91073W        W28567  18.038   2.890   6.795 -0.0563 -0.3198  0.2253
91074W        W28568  14.493  24.838   2.849  0.2464  0.2710 -0.0771
91075W        W28569   7.411  24.242   4.886 -0.1645  0.2227  0.1021
91076W        W28570  33.885  12.497  15.742 -0.1837  0.0309  0.0801
91077W        W28571  30.682  12.522  16.344  0.1086  0.2112 -0.0070
91078W        W28572  15.171   7.028   7.351 -0.0193 -0.0995  0.0575
91079W        W28573  17.102  29.787  21.100  0.0137  0.1259  0.2453
91080W        W28574   8.817  32.385  11.338 -0.1799 -0.3538  0.0513
91081W        W28575  22.604   5.881  16.475 -0.1372  0.1379  0.0658
91082W        W28576  27.684  19.728  11.830 -0.1627 -0.0023 -0.1973
91083W        W28577   6.867  26.269  12.864  0.2378  0.3870 -0.1329
91084W        W28578  31.703  15.921  12.477 -0.1747  0.3785 -0.0764
91085W        W28579  20.172  17.991   4.470  0.0435  0.2801  0.2159
91086W        W28580  16.418  16.594   8.027  0.0519  0.2242 -0.1367
91087W        W28581   8.758   1.756  22.071 -0.0824 -0.1113 -0.2398
91088W        W28582  24.451  18.921   0.205  0.2242 -0.0084  0.0235
91089W        W28583  14.689  22.247   3.304 -0.0408 -0.1889 -0.2989
91090W        W28584  10.899  23.518  11.703  0.0091  0.0203 -0.0212
91091W        W28585   2.720  30.587   7.289 -0.1924  0.1217  0.0038
91092W        W28586  15.552  22.387  21.922  0.0480  0.4485 -0.0002
91093W        W28587  22.632  13.558   1.459 -0.1270 -0.5535 -0.1061
91094W        W28588   9.440  34.257  15.257 -0.0231 -0.1813  0.4843
91095W        W28589  11.632  13.239   6.804  0.0537  0.2147  0.0408
91096W        W28590  20.862  26.405   5.172 -0.3482  0.1341  0.0986
91097W        W28591  16.632  23.500  15.548 -0.1533 -0.1408  0.2530
91098W        W28592  19.296  24.270  21.397 -0.0750 -0.0229  0.0694
91099W        W28593   7.708   7.562  23.176 -0.0630 -0.4108  0.1331
91100W        W28594  26.534   6.939  15.246 -0.1714  0.0641 -0.2662
91101W        W28595  21.001   8.118   2.592 -0.2679  0.1209  0.0275
91102W        W28596  24.834  20.859   9.418 -0.2286  0.1851  0.3234
91103W        W28597  13.336  22.560   4.436 -0.3199  0.2335 -0.1747
91104W        W28598   9.008  26.353   3.098 -0.0216 -0.1299 -0.6152
91105W        W28599  30.279  10.175  16.610  0.1956  0.0752  0.1670
91106W        W28600  24.177  33.079   1.535  0.0525 -0.3708  0.0100
91107W        W28601  27.735  14.993  14.509 -0.0304  0.3798  0.0512
91108W        W28602  11.667  28.976  12.399  0.2755  0.1734  0.0548
91109W        W28603  21.576  11.734  22.549 -0.0313  0.1498  0.0228
91110W        W28604  28.580  13.512  12.423 -0.0600  0.0596 -0.3399
91111W        W28605  29.517  11.414  11.285  0.2065  0.0329  0.0179
91112W        W28606   9.947   0.273   3.932 -0.1331 -0.1046 -0.0218
91113W        W28607  26.333   1.462  15.080  0.2628 -0.2896 -0.0103
91114W        W28608  17.199  29.396  21.495  0.3390 -0.0541 -0.4399
91115W        W28609  26.363   1.504  22.103 -0.0365  0.1232 -0.1849
91116W        W28610   0.483   0.251   6.980 -0.4617  0.0951 -0.0038
91117W        W28611   9.423  29.452  21.563 -0.0922 -0.0592  0.1431
91118W        W28612   9.120  16.494   9.031 -0.0656 -0.1889 -0.1469
91119W        W28613  21.544   8.435   1.841  0.0331  0.3172  0.0806
91120W        W28614   4.519  35.107  12.639  0.3142  0.2980  0.2687
91121W        W28615  28.542  10.464  18.423 -0.1274 -0.0078 -0.3474
91122W        W28616   4.768  11.680   1.858  0.0778  0.0787 -0.0997
91123W        W28617   9.384  12.364  12.346  0.3259  0.0012 -0.0486
91124W        W28618  29.738   4.550  13.781 -0.3343  0.0203 -0.0981
91125W        W28619   8.896  13.433  20.148  0.0422  0.2416  0.0059
91126W        W28620  13.734  30.626   9.594  0.1974 -0.0012 -0.0412
91127W        W28621  14.178  34.925   3.285  0.0442  0.2706  0.0465
91128W        W28622  31.221   9.549   9.500 -0.2121  0.4125 -0.2004
91129W        W28623   3.273   4.361  16.895 -0.1132 -0.1225 -0.0656
91130W        W28624   7.518   6.799   1.469 -0.1877 -0.0786 -0.0319
91131W        W28625   2.764  27.039  10.465 -0.2372 -0.3891  0.1146
91132W        W28626   0.839  13.890  19.002  0.2347 -0.0552 -0.0545
91133W        W28627  25.673   3.790  19.120  0.2477 -0.0073 -0.4651
91134W        W28628  21.178   6.447   4.999 -0.2401  0.0013  0.0743
91135W        W28629  23.078  25.700  22.450  0.0370 -0.0953  0.1749
91136W        W28630  32.155  16.466  18.675 -0.1617 -0.3658 -0.1421
91137W        W28631  30.209  24.728  17.982 -0.0209  0.1359 -0.0713
91138W        W28632  12.548  23.717   5.136  0.1391 -0.1080  0.1378
91139W        W28633  30.648  19.466   8.760  0.0908 -0.0625  0.4017
91140W        W28634  31.665  18.987   7.543  0.3260  0.2058  0.1998
91141W        W28635  26.439  34.960  24.882  0.0190  0.0014 -0.1166
91142W        W28636   2.580  16.640  18.590 -0.2009  0.1903 -0.0034
91143W        W28637  28.143   1.708   0.007  0.0177 -0.0588 -0.2079
91144W        W28638  13.710  16.914  24.579  0.1172 -0.3434 -0.0077
91145W        W28639  29.845  14.459   6.234 -0.2655 -0.2237  0.0548
91146W        W28640  29.183  27.836  13.809  0.1549  0.0730  0.1013
91147W        W28641  15.828   6.589  11.178 -0.0009  0.0067  0.0296
91148W        W28642  23.593   6.263   0.138 -0.0197 -0.0602 -0.1156
91149W        W28643  30.899   1.816  24.584 -0.2298 -0.0943  0.0543
91150W        W28644  14.938  34.118   2.537  0.2538 -0.1137 -0.0075
91151W        W28645   8.187   4.939  24.312  0.0574 -0.1660 -0.0487
91152W        W28646  23.518  32.372  17.900  0.0807  0.0577  0.2357
91153W        W28647   0.085  29.318   3.817 -0.0493 -0.1078 -0.2701
91154W        W28648   8.683  27.278   2.423  0.3356 -0.0720 -0.1605
91155W        W28649  13.332   7.932  19.444  0.0543 -0.7096 -0.0421
91156W        W28650  22.152  33.279  19.361 -0.1316  0.2268 -0.2753
91157W        W28651   6.984  34.806  11.299 -0.2130  0.1074  0.1050
91158W        W28652  19.642  13.986  23.650 -0.0882  0.7236  0.1082
91159W        W28653   4.618  15.068   3.708 -0.3192 -0.0741 -0.1963
91160W        W28654   1.838  16.844   2.549  0.3044 -0.0128  0.1888
91161W        W28655   1.584  26.499  24.935 -0.3949  0.2319 -0.4286
91162W        W28656  30.421  34.993  17.407 -0.0974 -0.1218  0.1044
91163W        W28657  10.743  13.311  21.466  0.0774  0.1908 -0.0538
91164W        W28658  13.801  31.900   4.602 -0.3541  0.0588  0.0464
91165W        W28659  17.689  21.028   7.477  0.0661  0.2468  0.0934
91166W        W28660  21.362   3.630  26.170 -0.0841 -0.0048  0.3423
91167W        W28661  21.378  10.250  23.839  0.5551 -0.0391  0.1171
91168W        W28662  10.142  27.221   5.502 -0.1647 -0.0852  0.1606
91169W        W28663  19.927   8.140   4.403 -0.0250  0.0713 -0.0995
91170W        W28664  17.716   2.700  18.074 -0.2287 -0.0217  0.0848
91171W        W28665  22.811  15.913   1.284  0.2293  0.1820 -0.0962
91172W        W28666   3.184  12.369  17.458 -0.2514 -0.0588 -0.0371
91173W        W28667  18.465  22.001  23.498 -0.2555  0.0457  0.0891
91174W        W28668   3.448  19.692   2.856  0.1252  0.0031  0.2724
91175W        W28669  30.364   6.044  16.094  0.4828  0.3196 -0.2528
91176W        W28670  15.431   8.744  12.656 -0.0128  0.1213  0.0136
91177W        W28671  11.911   0.900   8.662  0.0347 -0.0512 -0.1696
91178W        W28672  21.135  18.652  18.540 -0.2607 -0.1860 -0.3287
91179W        W28673  12.470  25.707  14.420 -0.2536  0.0294 -0.3889
91180W        W28674  11.681   7.654  24.127  0.3717 -0.1577  0.4901
91181W        W28675   6.467  21.246  24.181  0.0510  0.2446 -0.3050
91182W        W28676  29.998  27.711  13.952 -0.1705  0.2715 -0.0523
91183W        W28677   3.573  10.795   2.598  0.1023 -0.0601 -0.0144
91184W        W28678   2.022   3.475  15.618  0.2061 -0.1739 -0.2087
91185W        W28679  27.955   6.690  11.405 -0.0884  0.0270 -0.1911
91186W        W28680  22.024  15.956  15.735  0.0554  0.0486 -0.5344
91187W        W28681  24.519  23.316  15.787  0.0414 -0.1049 -0.0994
91188W        W28682  34.272  29.878  24.525 -0.0945  0.0892 -0.0664
91189W        W28683  30.053  24.250  14.727 -0.0638 -0.4060  0.1232
91190W        W28684  35.363  33.614  15.301 -0.0670 -0.2348 -0.0107
91191W        W28685   8.101  25.467   1.320  0.1425 -0.1740 -0.0766
91192W        W28686   5.780   9.385   7.213 -0.3259  0.1788  0.0551
91193W        W28687   4.426  19.893   4.884  0.1303  0.0529 -0.1639
91194W        W28688   0.574   0.609  18.688  0.4013 -0.4071 -0.0784
91195W        W28689  13.730  20.274   9.721 -0.0922 -0.0894 -0.2917
91196W        W28690   5.272  33.039  26.239 -0.2228  0.1379  0.1099
91197W        W28691  19.293   6.182   0.381 -0.1030  0.0188  0.2720
91198W        W28692  30.287  23.968  16.528  0.1735 -0.0144 -0.0130
91199W        W28693   5.030  32.966  22.128 -0.1727  0.0573 -0.1212
91200W        W28694  15.964   8.421   6.142  0.3155  0.1023 -0.3186
91201W        W28695   1.971  27.649   1.711 -0.0473 -0.0220  0.2819
91202W        W28696  20.447  15.702   3.657 -0.0191 -0.0904  0.1049
91203W        W28697  20.455   0.450   0.998  0.0030  0.1591  0.0481
91204W        W28698  13.781  30.279  15.971 -0.1474 -0.1021  0.0442
91205W        W28699  22.036   9.947  16.647  0.2358 -0.2328  0.0737
91206W        W28700  18.550  20.239  20.092 -0.1656  0.0382  0.0962
91207W        W28701  18.384  20.058   4.178 -0.3400  0.3783  0.1618
91208W        W28702  32.102   6.449  15.585  0.0976 -0.4458  0.0318
91209W        W28703  17.918  35.277   7.199  0.1883 -0.3312  0.2525
91210W        W28704  16.588  17.718  11.665  0.2736  0.0893  0.0975
91211W        W28705  28.361   5.174  25.832  0.2446 -0.2221  0.0110
91212W        W28706  28.968   7.973  25.933  0.0255 -0.4932  0.0013
91213W        W28707  17.176  23.034   8.412  0.1235  0.1129 -0.0288
91214W        W28708  23.812  16.633  12.176  0.2873 -0.0424 -0.0853
91215W        W28709  31.942   5.832  14.741  0.1599 -0.0826  0.1436
91216W        W28710  20.673  31.552  18.622 -0.3799 -0.0380 -0.1618
91217W        W28711   9.270  32.483   4.449  0.2305 -0.0384 -0.0542
91218W        W28712  21.762  31.067  24.874 -0.0238 -0.0970  0.3654
91219W        W28713   0.380  27.372  24.763  0.2443  0.0148  0.1084
91220W        W28714  16.717  30.074  20.836 -0.0398  0.2103 -0.1477
91221W        W28715  31.204   0.038  24.532  0.1379 -0.2153 -0.2615
91222W        W28716  11.368  33.561  25.623 -0.1505  0.1420 -0.1426
91223W        W28717   8.307  18.179   9.304 -0.0541 -0.2154 -0.0505
91224W        W28718  30.612  17.123   6.092 -0.1370 -0.0773 -0.0645
91225W        W28719  31.972  20.532  15.962 -0.0591  0.1147  0.4092
91226W        W28720  10.559  23.167  16.926 -0.1173  0.1566  0.0394
91227W        W28721  33.402   8.002   3.123  0.0936  0.2479 -0.2223
91228W        W28722   5.114   6.565   5.985  0.2803 -0.0437 -0.0354
91229W        W28723  32.820  28.766  17.592  0.1060  0.0759  0.2839
91230W        W28724  33.977  18.182  19.227 -0.0049  0.2177 -0.0907
91231W        W28725   3.241  17.159  22.617 -0.0027  0.1461 -0.1276
91232W        W28726  22.865  24.380  18.576  0.1047 -0.1711 -0.1203
91233W        W28727  20.694  10.033   2.982 -0.1322  0.2634 -0.0172
91234W        W28728  27.014   7.348  22.545  0.2270 -0.0330 -0.2115
91235W        W28729  15.230   4.291  10.045 -0.2378  0.0037  0.2297
91236W        W28730   1.913  25.005  25.103  0.0499 -0.0512  0.2313
91237W        W28731  10.731   7.302  14.793  0.0701 -0.0396 -0.0522
91238W        W28732  16.674   5.547  25.011 -0.0889  0.3157 -0.0062
91239W        W28733  15.771  14.426   2.003  0.0799 -0.0207 -0.1822
91240W        W28734  29.559  21.443  13.942 -0.3820 -0.0387  0.0054
91241W        W28735   8.538   6.379   1.126 -0.0716 -0.0617 -0.1382
91242W        W28736  21.737  20.262  23.283  0.1007 -0.1009  0.1387
91243W        W28737  25.594  18.270  18.640  0.1859  0.2291 -0.4021
91244W        W28738  13.728  27.753  10.296  0.2057 -0.1116  0.0454
91245W        W28739   8.993  26.615   5.253  0.0567 -0.0857 -0.1584
91246W        W28740   3.022   8.278   7.910 -0.1695 -0.1572 -0.0885
91247W        W28741  18.059  12.277   5.604  0.1599  0.3152  0.0979
91248W        W28742  12.521  11.497  25.001  0.2202  0.0351 -0.0525
91249W        W28743  31.198  33.617  25.403 -0.0894  0.1390 -0.0768
91250W        W28744   5.290  14.613   0.426 -0.1300 -0.2762  0.0855
91251W        W28745  35.168  19.109  23.308  0.2140  0.1375 -0.0382
91252W        W28746  15.663   8.313  19.881 -0.1821 -0.3159  0.1629
91253W        W28747  15.965  14.793  10.869  0.0459  0.3047 -0.0166
91254W        W28748  29.854  12.181   8.776  0.2961 -0.0750  0.0095
91255W        W28749  24.299   3.835  23.958  0.1009 -0.1777 -0.0420
91256W        W28750  34.538  17.969  14.863 -0.0524  0.0724  0.1193
91257W        W28751  32.629   3.538  15.350  0.0183 -0.0554 -0.2253
91258W        W28752  13.083  19.025   1.933 -0.4723  0.1177 -0.1506
91259W        W28753  18.608  23.412   1.786 -0.3566  0.0622 -0.2203
91260W        W28754  13.957  27.666   3.769  0.0085  0.0446 -0.2179
91261W        W28755  21.812   3.364   3.016  0.1443 -0.0062 -0.3858
91262W        W28756  28.066  32.637  17.801 -0.4810 -0.0139 -0.1053
91263W        W28757  31.145   1.007  17.544  0.1523 -0.1346 -0.1736
91264W        W28758   9.741  16.895  19.985  0.1048 -0.3230 -0.1534
91265W        W28759   1.931  28.462   0.493 -0.2691  0.1675  0.0696
91266W        W28760  32.365  27.830  11.206 -0.1103  0.0469  0.0201
91267W        W28761  17.432   3.700  19.259  0.0285 -0.0473  0.0014
91268W        W28762  32.087  18.213   0.263  0.0627 -0.1853 -0.1308
91269W        W28763  16.139  21.474   0.191 -0.0799 -0.1312 -0.1647
91270W        W28764   5.228  34.463   7.258 -0.2030  0.1589 -0.4397
91271W        W28765   8.510  14.140  12.994  0.1730 -0.0692  0.0884
91272W        W28766  15.925   4.807   9.688 -0.0732 -0.1567  0.3615
91273W        W28767  34.973  10.470   9.369 -0.0870  0.0945 -0.2106
91274W        W28768  26.012  21.284  24.417 -0.1501 -0.0676 -0.3287
91275W        W28769   8.302  21.440  15.440  0.1701 -0.1386  0.3863
91276W        W28770   7.132  14.759   0.480 -0.1798  0.4569 -0.1876
91277W        W28771   7.495  34.404  21.382  0.0116 -0.2076  0.0366
91278W        W28772  26.920  31.787   1.805  0.0241  0.1155  0.1716
91279W        W28773  29.685  29.622  22.147  0.1670  0.0203  0.1399
91280W        W28774  20.415  10.410  23.332 -0.0388 -0.4044  0.2185
91281W        W28775   1.679  16.272  17.913  0.2649  0.4031  0.0960
91282W        W28776  34.270  18.822   0.493 -0.1384 -0.2563 -0.4472
91283W        W28777  19.105  11.909  26.162 -0.1073 -0.2267 -0.0324
91284W        W28778  11.114  19.344  23.184 -0.0827 -0.1259 -0.0417
91285W        W28779  32.652  34.695   0.948  0.0041  0.1103 -0.2524
91286W        W28780  26.899  16.279  24.501  0.1440  0.0699 -0.1320
91287W        W28781   0.637   8.008  12.416  0.3397 -0.2358  0.3135
91288W        W28782  10.441   3.799   8.291 -0.0355  0.2703  0.2129
91289W        W28783   1.662   6.650  15.825 -0.1544  0.3212 -0.2056
91290W        W28784  14.798  14.360  22.761  0.1637  0.2216 -0.1089
91291W        W28785  14.825  14.904  19.797 -0.1024 -0.0479  0.0406
91292W        W28786  12.338  19.273   0.016  0.1688 -0.1778  0.2719
91293W        W28787  25.992  26.016   2.166 -0.0456 -0.1509  0.0029
91294W        W28788  16.080  11.580  14.108 -0.4711 -0.0791 -0.1646
91295W        W28789   6.446  28.898   2.766 -0.2129  0.0897  0.0691
91296W        W28790  29.108  17.602  17.675 -0.4354 -0.5514 -0.0365
91297W        W28791   1.013  32.451  18.652  0.0536  0.0285 -0.0416
91298W        W28792  12.154  28.782  21.490 -0.3787  0.1896  0.0114
91299W        W28793   6.301   2.585  10.193 -0.0088 -0.2501  0.0139
91300W        W28794   0.311  16.403  23.977  0.0721  0.0182 -0.2731
91301W        W28795  25.765   5.325   1.466  0.0216 -0.1452 -0.0704
91302W        W28796  17.938   4.136   2.760 -0.0934 -0.2640 -0.0600
91303W        W28797  11.617   4.080  26.015 -0.2622 -0.0421  0.0722
91304W        W28798  10.389  29.266  10.588 -0.0329  0.0293  0.2128
91305W        W28799  34.810  17.665  22.265 -0.0536 -0.0704 -0.0905
91306W        W28800  34.819   3.359  12.820 -0.0959 -0.0307  0.0178
91307W        W28801  28.321  17.029  13.198 -0.0530 -0.0811  0.0922
91308W        W28802   7.429   8.333   9.524 -0.0518  0.3567  0.0761
91309W        W28803  19.922  11.549  24.266 -0.0723  0.1112 -0.1608
91310W        W28804  26.372  26.318   1.753  0.0723  0.2099  0.1913
91311W        W28805  31.357   9.975  10.788 -0.0623  0.1484 -0.1356
91312W        W28806   2.110   3.934  19.940 -0.0812 -0.0611 -0.1864
91313W        W28807   7.938  22.984  12.631 -0.0037 -0.1223 -0.1495
91314W        W28808  22.265  34.912  24.538 -0.2729 -0.1858 -0.0219
91315W        W28809  34.576  33.114   6.009  0.1980 -0.0420  0.1512
91316W        W28810  27.301  28.643  16.272  0.0950  0.1050  0.0537
91317W        W28811  23.436   5.649  20.596  0.1946  0.1446  0.0608
91318W        W28812  11.683  12.565   4.984  0.0451  0.0481  0.1728
91319W        W28813  10.986  31.013  21.040 -0.0191  0.0250  0.1875
91320W        W28814   9.833  15.109   0.540 -0.0578 -0.1299 -0.2524
91321W        W28815  13.053   5.042  20.562  0.0792  0.1367  0.0997
91322W        W28816   7.134  14.823  25.293 -0.0430 -0.0381 -0.1669
91323W        W28817  22.510  21.114  14.826 -0.0491  0.1726  0.0979
91324W        W28818  13.484  14.884  22.807 -0.1267  0.1201  0.1613
91325W        W28819  20.163  26.533  22.028  0.1158  0.1819  0.2316
91326W        W28820  21.769  25.141  22.886 -0.0495 -0.2421 -0.1640
91327W        W28821  28.718   9.992  13.741 -0.1571  0.0237  0.0648
91328W        W28822   0.757  15.693  24.592  0.1101  0.1399 -0.2667
91329W        W28823  27.593   5.754  11.697  0.0599  0.3636 -0.1920
91330W        W28824  23.813  22.848  20.357  0.2279 -0.0575  0.2063
91331W        W28825   1.743  12.452  17.606  0.0485  0.1693  0.0113
91332W        W28826  14.560   9.375  12.730 -0.0277 -0.0079 -0.0658
91333W        W28827  14.839  18.941  22.906  0.1307 -0.0007 -0.0785
91334W        W28828  19.675  17.151   0.218 -0.2078 -0.1155  0.1008
91335W        W28829   1.013  13.330   1.457 -0.0237 -0.2706 -0.2289
91336W        W28830  30.718   9.589  14.386 -0.1523 -0.2413  0.0136
91337W        W28831  12.928  17.156   3.472  0.0709  0.1819  0.3374
91338W        W28832  24.733  19.390  23.527  0.0606 -0.0999  0.3522
91339W        W28833  25.940  14.340  24.037 -0.1080  0.1136 -0.0932
91340W        W28834  12.822   3.641  20.194  0.1248 -0.2062  0.1966
91341W        W28835  33.629  30.273  18.097 -0.0691 -0.1653  0.0715
91342W        W28836   4.968  19.651   4.894  0.1391 -0.0049 -0.0726
91343W        W28837   4.909  28.630   1.280 -0.0768  0.2029  0.1279
91344W        W28838  34.559  27.483   1.167  0.1121 -0.0866  0.1925
91345W        W28839  26.711  28.333   2.548 -0.3682  0.0351 -0.1072
91346W        W28840  15.419  19.947  20.556 -0.0093 -0.3192 -0.1566
91347W        W28841  31.071  13.415  21.177 -0.1336  0.2138  0.0711
91348W        W28842  34.869  33.934   5.898 -0.1585 -0.3124  0.4110
91349W        W28843  24.674  33.281   4.534  0.2359  0.0351 -0.3758
91350W        W28844  10.394   4.316  14.966  0.0939 -0.2487  0.0721
91351W        W28845  19.712  26.591  25.548 -0.1004 -0.1616  0.3303
91352W        W28846   9.439  21.111  12.574 -0.1158  0.0430  0.0495
91353W        W28847  19.232  15.543   5.406 -0.0521  0.2071 -0.2741
91354W        W28848  27.011  21.025  17.709  0.0490 -0.0027 -0.0473
91355W        W28849  12.762   2.380  23.809 -0.2263  0.0739  0.0442
91356W        W28850  16.480  34.101  20.536 -0.0330 -0.1829  0.2158
91357W        W28851  27.134  19.041  11.666 -0.1393 -0.0212  0.1294
91358W        W28852   5.619   7.525   9.439 -0.0933 -0.1341  0.1373
91359W        W28853  16.644  33.252   5.316 -0.1571  0.0530  0.4318
91360W        W28854  24.062   2.648  19.054 -0.1501  0.1475  0.1223
91361W        W28855  32.463  20.381  26.029  0.1517 -0.2890  0.2073
91362W        W28856  25.680  18.151  11.091  0.1084 -0.1845 -0.0196
91363W        W28857  34.358  21.625  22.048  0.1920 -0.2224  0.3754
91364W        W28858  26.321  33.371  14.523 -0.0225  0.0891 -0.1090
91365W        W28859  18.765  19.054   5.638  0.0975 -0.3160 -0.1219
91366W        W28860  17.664  11.166  24.858 -0.0906 -0.0871  0.1965
91367W        W28861  30.835   2.649  18.169 -0.1501  0.0077  0.1235
91368W        W28862  27.978   7.551  16.831 -0.0612  0.0230  0.0642
91369W        W28863   2.788  24.249  21.144 -0.0314  0.1242  0.0545
91370W        W28864  11.213  11.832  25.708 -0.0222 -0.1256 -0.3511
91371W        W28865   9.582   9.077  21.365  0.0058  0.2962 -0.2167
91372W        W28866  14.194  30.761  11.397  0.0444 -0.3289  0.0204
91373W        W28867   9.739  31.667   7.303  0.2036 -0.3826  0.0756
91374W        W28868  24.317   5.296   2.130 -0.1084 -0.0292  0.1442
91375W        W28869  30.769  34.915   4.197  0.0458  0.0119  0.1237
91376W        W28870  31.264   5.160  15.941 -0.0173  0.1507  0.1775
91377W        W28871  16.185   8.655   9.191 -0.1018  0.1573 -0.2981
91378W        W28872   7.040  28.696  25.196 -0.2567 -0.1877 -0.1604
91379W        W28873  21.364  11.063  19.058  0.0710  0.3857  0.0475
91380W        W28874   5.760  22.493  22.833 -0.1829 -0.0338 -0.1825
91381W        W28875   6.037   9.800  19.995 -0.1535 -0.1841  0.1214
91382W        W28876  23.320  31.702  14.004  0.4592 -0.1748 -0.1728
91383W        W28877   7.574  26.963   2.593 -0.0058 -0.1355  0.0187
91384W        W28878  34.174   1.727  23.134 -0.1331  0.1344  0.1665
91385W        W28879  23.467   1.447  25.284  0.3708 -0.0953 -0.0779
91386W        W28880  29.751  23.311   7.443 -0.2433 -0.1589  0.1385
91387W        W28881  32.965   2.534  22.268 -0.1430  0.2120 -0.0643
91388W        W28882  10.871  17.993   7.938  0.2041  0.1750 -0.1647
91389W        W28883   3.589   0.347   4.481  0.1215 -0.0279  0.4034
91390W        W28884  22.977  33.124   3.192  0.1551  0.3354  0.0100
91391W        W28885  13.812  19.556   3.140 -0.0821  0.0960 -0.0404
91392W        W28886  13.720  11.776   1.860  0.0120  0.0061 -0.2141
91393W        W28887  32.739   4.699   2.433  0.0485  0.3730 -0.0373
91394W        W28888  26.966   5.223   1.017 -0.0495  0.0348 -0.0308
91395W        W28889  10.123  18.602   1.660 -0.2560 -0.1463  0.1403
91396W        W28890   7.813  30.600   5.092  0.1031 -0.0091 -0.1836
91397W        W28891  18.863  29.061   6.690 -0.0185  0.1750 -0.1250
91398W        W28892  32.924  24.930  10.148  0.1061  0.2393  0.2040
91399W        W28893   0.799   8.192   3.456  0.0531 -0.0819  0.0656
91400W        W28894  16.401  30.880   5.060 -0.2373 -0.2703 -0.0841
91401W        W28895  23.226   1.431   5.050  0.0498 -0.0880  0.0773
91402W        W28896   0.765  33.981   8.124  0.0184  0.2793 -0.1114
91403W        W28897   8.280  14.537   3.720 -0.0383 -0.0007  0.1832
91404W        W28898  25.226  11.581   0.758  0.2236  0.2159 -0.1458
91405W        W28899   5.342   4.927   6.358  0.1885  0.3544  0.0306
91406W        W28900  31.457  31.547   6.536 -0.5897 -0.0762 -0.0136
91407W        W28901  33.071  32.688   1.235 -0.3643 -0.0034 -0.0541
91408W        W28902  30.424  16.147   4.764 -0.1182 -0.0392  0.1545
91409W        W28903   1.158   4.336   4.160 -0.1278  0.0038  0.3377
91410W        W28904  11.814   7.784  15.011  0.1625  0.2565  0.1556
91411W        W28905   5.357  18.405   1.311 -0.1480  0.0528  0.0272
91412W        W28906  15.849  28.133   5.989 -0.0018 -0.0416  0.0732
91413W        W28907  32.098  15.256  14.189 -0.1099  0.0304  0.1757
91414W        W28908  29.286  23.219  24.369 -0.3123 -0.4213 -0.3370
91415W        W28909  33.839  11.070  13.744  0.2218  0.2319 -0.1518
91416W        W28910  20.582   4.289  19.792  0.5988 -0.0619 -0.0383
91417W        W28911  12.852  29.203   2.667  0.0355  0.1103 -0.0059
91418W        W28912  30.669  16.647  23.712 -0.1506  0.0044  0.0151
91419W        W28913  25.301  17.831  11.176 -0.0762  0.1042  0.0019
91420W        W28914   4.155  31.512  21.135  0.2124  0.1477 -0.0091
91421W        W28915  20.664  19.407  19.396 -0.1462 -0.0296  0.2243
91422W        W28916  31.204  32.563  21.379  0.0857 -0.2550 -0.0491
91423W        W28917  17.774  33.068   6.812 -0.3900  0.3912 -0.2087
91424W        W28918  27.570   4.401   0.163  0.0089  0.0199 -0.1033
91425W        W28919   7.259  29.614   0.338 -0.0787 -0.4783 -0.3196
91426W        W28920  13.415  15.512   2.875  0.2680  0.1638 -0.3770
91427W        W28921  15.733  21.401   2.105 -0.2679 -0.2153  0.2656
91428W        W28922  20.138  23.856   4.743  0.3979  0.3164  0.0009
91429W        W28923   8.702  25.050   7.432 -0.0113  0.1119 -0.0623
91430W        W28924  35.241  31.555   2.377 -0.1301  0.0790  0.2335
91431W        W28925  11.679  31.760  15.409 -0.1078 -0.0200 -0.2114
91432W        W28926   7.997  33.426   1.249 -0.0594  0.0054  0.0360
91433W        W28927  14.653  20.772  14.979  0.4710  0.1146 -0.0536
91434W        W28928  22.656  10.371   2.504  0.0967 -0.1411 -0.0710
91435W        W28929  13.215  16.792   1.550 -0.1131  0.1204  0.1640
91436W        W28930  28.385   4.396  24.483  0.0443  0.1165 -0.4219
91437W        W28931  14.117  12.394  24.964 -0.0709 -0.2060  0.0595
91438W        W28932  31.273  34.455   2.205  0.3473 -0.2323  0.1214
91439W        W28933  24.682  17.674  13.546 -0.0774 -0.2100  0.2559
91440W        W28934  17.029  10.480  13.177  0.1878  0.3861  0.1733
91441W        W28935  20.113  24.175   5.220 -0.1505  0.2997 -0.3010
91442W        W28936  23.225   5.959  21.583  0.1744  0.0139 -0.2398
91443W        W28937   9.920   6.880   3.374 -0.2011 -0.2689  0.0511
91444W        W28938  19.085  17.497  23.594 -0.1913 -0.1956 -0.1426
91445W        W28939  29.372   3.239  24.674 -0.0437 -0.0477  0.1107
91446W        W28940   5.260  19.580   7.089 -0.4836  0.1977  0.0816
91447W        W28941  26.482  15.987  25.953  0.3825 -0.1489  0.3217
91448W        W28942  15.017  30.944  14.162 -0.1174  0.0467  0.1482
91449W        W28943  21.118  21.854  25.470 -0.2320  0.3512 -0.1604
91450W        W28944  15.677  32.354  10.672 -0.0273 -0.0279  0.0782
91451W        W28945  17.263  30.900   5.552  0.0517 -0.3857  0.0908
91452W        W28946   2.779  19.255  20.649  0.0673 -0.2609 -0.0870
91453W        W28947  20.647   2.294   1.474 -0.0720 -0.0939  0.1318
91454W        W28948   3.599  13.231  25.371 -0.0703  0.0806 -0.1734
91455W        W28949  18.827   6.125   9.801 -0.1751 -0.3448 -0.2148
91456W        W28950   5.611  23.771   8.212 -0.1538  0.0950  0.0068
91457W        W28951   4.845  27.036   4.758  0.0283 -0.0310 -0.2311
91458W        W28952  28.335  19.872  14.595  0.1961  0.0698 -0.0345
91459W        W28953  24.424  20.449  11.958  0.1863 -0.2613  0.1533
91460W        W28954  27.154   0.161  13.492  0.2058 -0.2993  0.2608
91461W        W28955  33.622  16.134  15.799  0.0704 -0.0006 -0.2821
91462W        W28956   3.891  10.672   4.325 -0.2350  0.3681  0.2230
91463W        W28957  26.530  15.247  21.673 -0.0101  0.0766  0.0851
91464W        W28958  11.432  26.931   1.178 -0.0665  0.1754 -0.2076
91465W        W28959  11.790  21.450   3.262  0.0164  0.0311  0.0814
91466W        W28960  33.660  28.704  17.950  0.2443  0.2610  0.0925
91467W        W28961  11.526  34.160   7.302  0.0516  0.0390  0.1222
91468W        W28962  23.597  13.166   0.712  0.1853  0.0753 -0.1519
91469W        W28963  29.139   7.062   2.206  0.2964  0.1030  0.0504
91470W        W28964  24.322  24.917  24.993 -0.0021 -0.0668 -0.0426
91471W        W28965  15.706  11.163   5.481 -0.0677  0.2125  0.3001
91472W        W28966  32.321  22.333   9.488  0.2933  0.0794 -0.0073
91473W        W28967   6.940   9.962   0.857  0.1035 -0.3672  0.1834
91474W        W28968  27.498  34.365  22.803  0.1418 -0.1308 -0.0292
91475W        W28969  22.363  32.335  15.015 -0.3168 -0.1105 -0.0427
91476W        W28970   7.709  25.296   1.034  0.0985  0.1154  0.2955
91477W        W28971  21.996  29.486  23.681  0.1210  0.2428  0.5297
91478W        W28972   5.384  18.275  25.932  0.0137  0.0898  0.1548
91479W        W28973  23.719   8.261  14.636 -0.1171  0.0688  0.0710
91480W        W28974   5.536  15.871   6.590 -0.0962 -0.0635 -0.2361
91481W        W28975  33.167  30.113  18.160 -0.1444  0.1371 -0.1506
91482W        W28976  29.860  19.519  11.581 -0.0791  0.0559 -0.1264
91483W        W28977  27.860   0.895  22.642  0.0830  0.0641  0.3797
91484W        W28978  17.961   4.319  23.990 -0.2375 -0.0300  0.1264
91485W        W28979  28.236   2.151  15.024 -0.1799  0.2107  0.0011
91486W        W28980  14.626  12.256  22.041 -0.1549  0.1066  0.2733
91487W        W28981  19.494  20.568   9.672  0.1763 -0.0009  0.0100
91488W        W28982  11.712   6.957   8.432 -0.3768 -0.1098  0.2162
91489W        W28983  26.250  20.984  10.913  0.0191 -0.2824 -0.2514
91490W        W28984   0.057  27.688  25.917 -0.1720 -0.0288  0.3804
91491W        W28985  30.429  27.600   3.284 -0.1730  0.1294 -0.0737
91492W        W28986  25.712   8.737  22.238 -0.2001 -0.1037 -0.0395
91493W        W28987  12.108   0.242  25.266  0.0205 -0.0010 -0.1387
91494W        W28988   5.339  30.780  23.941 -0.1611 -0.1354  0.2558
91495W        W28989  31.517  18.482  25.364  0.1718  0.1802 -0.3452
91496W        W28990  14.404  33.766   0.459  0.0175  0.0557 -0.1734
91497W        W28991  23.029  22.701  16.955  0.1319  0.0543 -0.1446
91498W        W28992  24.018  30.775  13.684  0.1048 -0.0912 -0.3171
91499W        W28993   5.644  21.319  25.898  0.1560  0.2258  0.4428
91500W        W28994  23.987  14.178  19.617  0.1080  0.3073 -0.0046
91501W        W28995  11.159  32.940  13.001 -0.0597  0.1061  0.1287
91502W        W28996  27.734   5.556  12.241 -0.1363 -0.1409 -0.0868
91503W        W28997   6.795  23.843   0.888 -0.1038 -0.1659  0.1130
91504W        W28998  34.834   0.787  21.921  0.2395 -0.2467  0.0136
91505W        W28999  13.211  17.651  24.135  0.2131  0.0608 -0.0529
91506W        W29000  22.613  20.558   2.760  0.0713  0.1938 -0.1556
91507W        W29001  13.127   9.301  20.893  0.1857 -0.1446  0.0891
91508W        W29002   6.231   3.173  13.182 -0.4102 -0.1703 -0.1678
91509W        W29003  28.899  21.711  10.417  0.0112 -0.0624  0.2097
91510W        W29004  26.939  26.274   0.546  0.1140  0.0811 -0.1669
91511W        W29005  25.449   5.026   4.405  0.0094 -0.1034 -0.0259
91512W        W29006   4.702   3.271   3.547 -0.0164 -0.0803 -0.0898
91513W        W29007  31.959   0.982  22.207  0.2477  0.0781  0.0036
91514W        W29008   0.529   8.132   4.336  0.3032  0.0909 -0.1939
91515W        W29009  35.218  34.366   6.668  0.2068  0.0440  0.0378
91516W        W29010  32.227  15.148  20.494  0.1039  0.1037 -0.0725
91517W        W29011  30.945  14.034  13.224 -0.2564  0.0297  0.2834
91518W        W29012  20.004   6.379   8.730  0.1430 -0.0401  0.0991
91519W        W29013  11.995  31.067  12.080  0.1094  0.1962  0.0020
91520W        W29014   2.368  29.095  24.817 -0.0386  0.0819 -0.0206
91521W        W29015  26.560  21.912  25.410 -0.1590  0.0719  0.1042
91522W        W29016   7.922   7.874  10.274 -0.3490 -0.1531  0.0009
91523W        W29017  32.696  24.554   9.729  0.0685 -0.3536 -0.1604
91524W        W29018  30.575   2.986  24.704 -0.0782  0.2973 -0.1767
91525W        W29019   8.364  19.828  14.257 -0.0122 -0.1479  0.1743
91526W        W29020   3.824  31.233   2.048 -0.0659  0.0986 -0.0590
91527W        W29021  25.526   2.758  18.167 -0.0861  0.4995  0.1184
91528W        W29022   8.566  27.415   8.619 -0.1451  0.0088  0.2812
91529W        W29023  33.708   5.940   2.477 -0.0234  0.0277 -0.2610
91530W        W29024  11.778   4.945   4.326  0.3418 -0.1408  0.1244
91531W        W29025   5.260  25.538   5.474 -0.0334 -0.0803 -0.0160
91532W        W29026   3.685   0.561   1.977 -0.4048  0.3188  0.0470
91533W        W29027   2.126   2.097   0.289  0.0170 -0.0447  0.0690
91534W        W29028  25.055  15.130  15.044 -0.0711  0.0017  0.0499
91535W        W29029  17.345   6.750  21.936 -0.0325  0.2586 -0.1905
91536W        W29030  17.142  11.757  11.665  0.4002  0.0654 -0.0708
91537W        W29031  18.190  21.668   8.981 -0.5201  0.0932 -0.4035
91538W        W29032   5.817  30.669   2.403  0.2529  0.0690 -0.2053
91539W        W29033  19.733   1.321  18.842 -0.2108 -0.0479  0.0677
91540W        W29034   8.451  17.185  23.793  0.1372 -0.2639  0.0676
91541W        W29035   0.979   5.085  26.117 -0.0424  0.1690 -0.3401
91542W        W29036  15.108  12.970  22.433  0.1434  0.0533 -0.1197
91543W        W29037  23.142  24.739  14.062 -0.0110  0.2223  0.2893
91544W        W29038  10.267  35.235   9.741 -0.1090 -0.0402 -0.2655
91545W        W29039  18.263   0.997   9.116 -0.0569  0.0700  0.2569
91546W        W29040  27.422   2.648   6.642  0.0852  0.0258 -0.1370
91547W        W29041   3.623  24.004  24.328 -0.2094  0.0250  0.0146
91548W        W29042   0.398   2.750   5.602 -0.1419 -0.2594  0.2990
91549W        W29043  29.837   4.010  14.976  0.2358 -0.3880  0.0804
91550W        W29044   2.522  29.156  10.548 -0.1904 -0.0381 -0.0949
91551W        W29045  11.089   5.874   8.206 -0.0196  0.0181 -0.0114
91552W        W29046  32.815  12.955  26.232  0.2064 -0.1804 -0.3278
91553W        W29047   9.072  25.417   1.822  0.1616 -0.2787 -0.0957
91554W        W29048  25.144   7.964  20.730  0.0005 -0.1966  0.0359
91555W        W29049  24.803  21.710  23.367  0.1375 -0.0480 -0.0120
91556W        W29050   4.332   5.299  18.190  0.1771 -0.1674  0.2281
91557W        W29051   1.157  21.207  18.946 -0.0568  0.0972  0.1908
91558W        W29052  27.147  33.556  11.625  0.0087  0.0023 -0.1168
91559W        W29053  24.992  24.469   0.750  0.3084  0.1918 -0.2402
91560W        W29054  11.916  23.048   8.092 -0.1541 -0.1334  0.0529
91561W        W29055  12.246   6.630  26.056  0.0111 -0.0845 -0.2208
91562W        W29056  16.126  27.924  11.741  0.0772 -0.0575  0.1514
91563W        W29057  10.445  15.407   8.314 -0.3133  0.0210 -0.1035
91564W        W29058   5.448  29.892  22.552 -0.3576  0.0846  0.0154
91565W        W29059  24.170  10.891  18.347 -0.3356  0.1841  0.0684
91566W        W29060  15.719  28.061  20.747  0.2840  0.1756  0.0950
91567W        W29061   8.675  17.503  19.659  0.1569  0.0466 -0.3414
91568W        W29062  30.077  26.871  12.102 -0.0964  0.0113 -0.0367
91569W        W29063  23.406  21.111  14.411  0.1977  0.1499 -0.0390
91570W        W29064  31.924  17.526  10.606 -0.0531 -0.2169 -0.1511
91571W        W29065  27.151   2.192  24.319  0.1936 -0.1786  0.0152
91572W        W29066  21.189   7.880  18.783  0.1504 -0.1893  0.0872
91573W        W29067   7.824  11.704  25.406  0.3342  0.3170 -0.1028
91574W        W29068   7.883  13.659  10.722  0.4624  0.1217 -0.0460
91575W        W29069   0.506  28.058  22.174 -0.1205 -0.2213 -0.0793
91576W        W29070  28.625  16.619  17.619 -0.0934 -0.0723 -0.0384
91577W        W29071  27.527   7.446  13.873  0.0745 -0.0163 -0.0078
91578W        W29072   5.362  14.559  17.256 -0.0206 -0.1971  0.3497
91579W        W29073  25.141  22.021  11.267 -0.2416  0.1026 -0.2335
91580W        W29074  17.611  34.172  24.468  0.1655 -0.0918  0.1728
91581W        W29075  32.412   7.078  21.393 -0.2766 -0.0661 -0.0664
91582W        W29076   6.864  11.070   1.760  0.3264 -0.3171  0.2452
91583W        W29077   7.150  32.837   2.309  0.0985 -0.2718 -0.2535
91584W        W29078  28.963  19.752  16.212 -0.0229  0.0552  0.0131
91585W        W29079  18.976  12.235   5.610  0.2969 -0.3415 -0.1463
91586W        W29080  11.529  31.706  25.651 -0.0095  0.0214 -0.3190
91587W        W29081  11.491  22.695  24.908  0.0030  0.1622 -0.3546
91588W        W29082   0.336  26.618  20.416 -0.0422  0.0808 -0.2759
91589W        W29083  26.473   6.944   3.895 -0.0891  0.0637  0.0226
91590W        W29084  13.092  15.930   6.186 -0.3415  0.1478 -0.4716
91591W        W29085  10.689   0.160  22.156  0.1721  0.0531  0.1433
91592W        W29086  28.265  13.826  20.534 -0.0422 -0.0778 -0.3581
91593W        W29087  32.229   1.222  25.022 -0.0434 -0.3055 -0.2170
91594W        W29088  13.822  24.741   9.380  0.1882 -0.0625 -0.1091
91595W        W29089   4.103  26.698   3.748 -0.3132 -0.0050 -0.1079
91596W        W29090  20.242  33.953  23.870 -0.3004 -0.2990  0.1140
91597W        W29091  10.911  11.493   2.927 -0.1527  0.0687 -0.0964
91598W        W29092  21.559   9.264  16.101 -0.0426 -0.0415  0.1742
91599W        W29093   7.872  17.214   3.524  0.3110  0.0008  0.1578
91600W        W29094   6.533  34.692   6.304  0.2125 -0.0087 -0.2482
91601W        W29095   6.642  13.671  21.266  0.1377  0.1419 -0.0605
91602W        W29096   8.806  12.276   5.635  0.0951 -0.0178  0.1293
91603W        W29097   6.711  34.864  21.219  0.2013  0.3092  0.1258
91604W        W29098  11.883  21.936  15.230 -0.2562 -0.0160 -0.1953
91605W        W29099  22.775  11.671   1.304  0.0987  0.1906 -0.0377
91606W        W29100  32.653  14.455   5.859  0.0368 -0.2244 -0.0261
91607W        W29101  13.555  25.511   5.712 -0.0551  0.2225  0.1804
91608W        W29102  28.822  27.904  12.017  0.0509 -0.0682  0.3447
91609W        W29103  21.936  30.939  12.360  0.1303 -0.1651  0.1853
91610W        W29104  31.948  11.259  13.853  0.0056 -0.0658  0.0900
91611W        W29105   5.189  26.686   5.908 -0.1608 -0.1022  0.0277
91612W        W29106  12.097  35.026   1.793  0.0822  0.0966 -0.0510
91613W        W29107   4.147   8.449   7.342  0.3905 -0.3214  0.0631
91614W        W29108   3.477  31.368   1.058  0.2197 -0.0412 -0.1381
91615W        W29109  27.039  31.914  11.751 -0.1431 -0.1718 -0.2056
91616W        W29110  18.001  32.873  22.808 -0.2986  0.0574  0.0099
91617W        W29111   8.466   6.090   5.548 -0.0025 -0.0703  0.0527
91618W        W29112  30.578  18.446   6.495 -0.1599  0.3559  0.0489
91619W        W29113  16.899  16.522   1.404 -0.0711 -0.2841 -0.0627
91620W        W29114  14.576  13.809   4.694  0.3308 -0.2074 -0.5781
91621W        W29115  10.999  31.908   5.694  0.1131  0.0031 -0.1870
91622W        W29116  30.982  11.666  23.556  0.1174  0.2446  0.2294
91623W        W29117  17.252  30.269   4.566 -0.2566 -0.1228  0.2325
91624W        W29118  24.975  22.884  24.115  0.1865  0.0520 -0.1381
91625W        W29119  19.339  10.981   1.686  0.1435 -0.2559 -0.1291
91626W        W29120  11.576  29.765  23.590 -0.1484 -0.0073  0.0836
91627W        W29121  29.730  23.465   8.342 -0.2815 -0.0872  0.1142
91628W        W29122  13.812  26.880  13.498 -0.0834  0.4148  0.2885
91629W        W29123  12.971  24.030  16.590 -0.1313 -0.0957 -0.1563
91630W        W29124   8.182  17.416  21.628 -0.0008 -0.0272 -0.1869
91631W        W29125  34.449   1.207  14.960  0.1630  0.1484 -0.1971
91632W        W29126  32.706  25.918  17.004 -0.2128 -0.1748  0.2927
91633W        W29127   7.472   0.111  14.515  0.1460 -0.0204  0.1144
91634W        W29128  12.226  21.088   5.775  0.0242 -0.0774  0.1645
91635W        W29129   7.558  17.882  19.804 -0.0233  0.0243  0.1341
91636W        W29130  18.642  12.334   6.087  0.1126  0.1547  0.1060
91637W        W29131  18.916   5.317   8.451 -0.0321 -0.1584  0.0151
91638W        W29132  23.059  29.894  22.814 -0.0715 -0.0103 -0.2546
91639W        W29133  15.076  30.930   1.099 -0.0161 -0.2236 -0.1868
91640W        W29134   3.848   7.717  21.337 -0.0215  0.1433 -0.0031
91641W        W29135  14.815  10.090   7.725  0.0967  0.0433  0.0606
91642W        W29136  25.483  27.653  25.981 -0.3233  0.2032 -0.2136
91643W        W29137  20.339  25.756  19.504 -0.1697  0.2231  0.0359
91644W        W29138  22.724  31.851  21.777 -0.0473  0.0201  0.0373
91645W        W29139   7.241  16.309   8.080 -0.0010 -0.1255  0.0634
91646W        W29140  19.126  16.578   6.466  0.3144  0.0622 -0.2217
91647W        W29141  20.684  18.528   0.897  0.0718 -0.1059 -0.0303
91648W        W29142  11.493   5.279   6.813  0.0034  0.2315  0.1331
91649W        W29143  21.294  14.447  18.200  0.0942  0.2789  0.0985
91650W        W29144  24.382  28.973   9.675 -0.0977 -0.2452 -0.1416
91651W        W29145  19.604  26.935  25.919 -0.1912  0.0274 -0.1753
91652W        W29146   8.982  29.052  14.842 -0.0212 -0.1096 -0.2088
91653W        W29147  21.299  18.576   3.263 -0.0496  0.3053  0.3040
91654W        W29148  20.112  20.845   7.863 -0.1874 -0.0248  0.0316
91655W        W29149  23.350   7.331   4.761 -0.2570  0.1189  0.3220
91656W        W29150  13.592   2.507   1.111 -0.1423  0.1760  0.0195
91657W        W29151  20.461  17.503   1.012 -0.1623 -0.2292 -0.2416
91658W        W29152  32.926  20.160  10.477  0.1218  0.0840 -0.2812
91659W        W29153  18.452  33.558   4.526 -0.1777 -0.1452 -0.2112
91660W        W29154  25.436  14.482  25.105  0.0729 -0.0345 -0.3190
91661W        W29155  26.704   0.826  14.578  0.1282  0.0678 -0.2145
91662W        W29156  32.797   0.651  25.158 -0.1008  0.0504  0.1845
91663W        W29157  28.300  13.911  14.835  0.0913 -0.2567 -0.0968
91664W        W29158  32.674  16.761  17.763  0.1851 -0.3283  0.1079
91665W        W29159   1.214  31.038   2.245  0.0723  0.4031 -0.2269
91666W        W29160   5.115  14.833  23.404  0.1995  0.2269  0.2384
91667W        W29161  22.285   1.332  19.806  0.2268  0.1358 -0.0195
91668W        W29162  16.035  31.315   0.377 -0.0926  0.3703 -0.1090
91669W        W29163  27.878  32.955  18.635 -0.1028 -0.1819 -0.2517
91670W        W29164  28.586  22.367  14.770 -0.0218 -0.1360 -0.0618
91671W        W29165   4.156  23.162  17.573 -0.2507  0.0859 -0.1627
91672W        W29166  12.524  15.083  23.264 -0.0306  0.2010  0.2101
91673W        W29167  27.041  29.398   1.242  0.1190  0.4975 -0.0916
91674W        W29168   9.736  20.161  23.743  0.2433 -0.1584 -0.2928
91675W        W29169  10.621  13.142  20.872 -0.0299  0.0470 -0.0255
91676W        W29170  14.758  32.396   9.044 -0.2961  0.2825 -0.0327
91677W        W29171   9.995  11.844   4.897 -0.4389 -0.0269 -0.1262
91678W        W29172  29.599   3.281   3.937  0.2108 -0.0514 -0.3785
91679W        W29173  23.291   2.564  26.183  0.3197 -0.0621  0.0619
91680W        W29174  15.166  34.965   9.962 -0.2461  0.3832  0.5531
91681W        W29175  25.810  25.343  17.312 -0.0643  0.1742  0.1435
91682W        W29176   9.914   6.498  25.658  0.3790  0.3915 -0.1521
91683W        W29177  32.239  19.579  21.673  0.2206  0.4634 -0.2353
91684W        W29178  28.651   3.374  12.577  0.0770 -0.0866  0.0344
91685W        W29179  22.505  30.446  25.364  0.0615  0.1001 -0.0512
91686W        W29180   0.458  16.045   1.606 -0.0426  0.4277  0.3457
91687W        W29181  13.946  30.602  10.007  0.0389 -0.1979  0.1139
91688W        W29182  14.292   7.191  25.816  0.1394  0.1553  0.2159
91689W        W29183   8.312  25.887   3.768  0.0454  0.1166 -0.1784
91690W        W29184  12.362  25.571  24.589 -0.0364 -0.1726 -0.0198
91691W        W29185  26.839  14.271  20.008 -0.0426  0.0724  0.1449
91692W        W29186  30.198   5.654  22.036 -0.1909  0.0797 -0.0034
91693W        W29187  14.384  17.659  13.043  0.2286 -0.1385  0.0926
91694W        W29188  12.495  19.752  15.372 -0.3261 -0.0241 -0.0800
91695W        W29189  10.189   5.021  26.046  0.1326 -0.3134  0.1769
91696W        W29190  16.733  16.760   5.326 -0.0798 -0.0889  0.1228
91697W        W29191  26.179   0.172  16.643  0.1476 -0.1927  0.0337
91698W        W29192   7.136  20.554  20.602  0.2508 -0.1703 -0.0533
91699W        W29193  31.491  21.186  14.154  0.0954  0.0066  0.0674
91700W        W29194   2.778  21.685   3.460 -0.2793  0.0915  0.0419
91701W        W29195   2.455   6.622   1.118 -0.3449  0.0097 -0.1042
91702W        W29196  25.662  28.246  18.598  0.2399 -0.2415 -0.0478
91703W        W29197  29.836  27.503  15.511 -0.3467 -0.4454  0.4126
91704W        W29198  27.706  16.631   7.807  0.0471 -0.0052 -0.0546
91705W        W29199  19.017  18.018   4.747 -0.0687  0.0634  0.0335
91706W        W29200  35.013  15.227  22.507 -0.0101 -0.0643  0.1854
91707W        W29201  28.409  28.267  14.852 -0.1575 -0.0077  0.0070
91708W        W29202  34.748   1.192  24.071 -0.3001  0.0059  0.0633
91709W        W29203  27.678  19.426  15.815 -0.0214  0.2043 -0.0456
91710W        W29204  18.504  16.461  23.778  0.0125 -0.2233  0.0961
91711W        W29205  30.428  26.395   0.448  0.1718  0.1848  0.2044
91712W        W29206  19.980  11.811   8.566  0.1171  0.0773 -0.1002
91713W        W29207  26.492  33.747  25.843  0.0857 -0.4151 -0.1494
91714W        W29208   9.995  11.988  23.366 -0.0817 -0.2715 -0.2145
91715W        W29209  22.183  17.853  26.230  0.0324 -0.0718 -0.1160
91716W        W29210   0.055  24.688   0.863 -0.1000  0.2360 -0.0420
91717W        W29211   3.071   3.466   0.635 -0.0203 -0.1447 -0.1972
91718W        W29212  29.604  19.939  13.485  0.3579  0.1920 -0.2480
91719W        W29213   1.189  22.330  12.102  0.0175  0.0779  0.3822
91720W        W29214   4.033  32.517   1.982  0.1146 -0.1219 -0.4911
91721W        W29215   4.837  34.502  25.135  0.2594  0.1937 -0.0090
91722W        W29216  32.563   0.791  14.085  0.1748  0.2307 -0.4652
91723W        W29217  32.667  24.435  17.443 -0.1614 -0.0139  0.0099
91724W        W29218  27.702  28.799  14.189 -0.0663  0.0037  0.1089
91725W        W29219  29.201   5.800  22.722 -0.0142 -0.0672 -0.2165
91726W        W29220  11.639  22.853  22.627 -0.2789 -0.2099 -0.0260
91727W        W29221   6.048  33.108  23.127 -0.3479  0.5023 -0.0585
91728W        W29222  27.980  24.215  17.801  0.0450  0.0444  0.1460
91729W        W29223  27.048  20.108  17.732 -0.1299 -0.1694 -0.0959
91730W        W29224  33.444  16.623   5.202  0.0889 -0.3250  0.0206
91731W        W29225  22.149  33.140   5.917  0.2804  0.4072 -0.1959
91732W        W29226   2.748  28.951  11.416 -0.2214 -0.1026 -0.2176
91733W        W29227  12.834   4.723  23.631  0.2894 -0.4454  0.0445
91734W        W29228  31.665  16.151  14.443 -0.0494 -0.1118  0.4683
91735W        W29229  13.041  34.689   9.063 -0.0422 -0.2660  0.0322
91736W        W29230  32.626  10.257  24.084  0.1681 -0.2951 -0.3171
91737W        W29231  14.361   7.658  19.769 -0.0175  0.0012  0.0088
91738W        W29232  10.702  35.201   0.339  0.0441 -0.0260 -0.1948
91739W        W29233  32.870   5.908   4.535  0.1081  0.3215  0.0801
91740W        W29234  18.082   2.558   5.561 -0.0582 -0.0144 -0.2448
91741W        W29235  30.895  20.293  23.047  0.0024 -0.1092  0.0320
91742W        W29236  15.707  32.017   1.403  0.2177  0.0709 -0.1285
91743W        W29237  16.825  19.488  20.714  0.1871 -0.0933  0.0018
91744W        W29238  20.876  13.592  16.112  0.0018 -0.1876  0.0538
91745W        W29239  21.130  28.182  16.904  0.1453  0.1832  0.1605
91746W        W29240   1.539   9.442  20.733  0.2112 -0.1424  0.0115
91747W        W29241  25.950  19.795  22.649  0.0019  0.1042 -0.3351
91748W        W29242  22.677  33.231  19.195 -0.1557  0.5737 -0.1047
91749W        W29243   7.433  30.373   1.173 -0.0226  0.2443 -0.2316
91750W        W29244  15.137  31.530   5.313 -0.2320  0.1292  0.1775
91751W        W29245   0.714  12.340   0.067 -0.3026 -0.2397 -0.2858
91752W        W29246  33.176   7.275  24.290  0.1986  0.1150  0.2166
91753W        W29247   7.649  21.679  14.809 -0.0762 -0.1405 -0.0276
91754W        W29248   2.568  16.568  20.020 -0.1138 -0.0615  0.0575
91755W        W29249  33.081  18.311  12.194 -0.0450 -0.2290  0.2223
91756W        W29250   3.794   3.374   9.001 -0.2910 -0.2111  0.2250
91757W        W29251   2.295  30.542   4.328 -0.3402  0.0360 -0.0440
91758W        W29252  12.764  20.072  13.275 -0.0115  0.2028  0.1171
91759W        W29253  30.009  21.885  21.744  0.0043 -0.2913 -0.1630
91760W        W29254   5.068  29.562   3.911 -0.2020  0.1806 -0.2152
91761W        W29255  31.886   2.684  22.145  0.0682 -0.0689  0.1508
91762W        W29256   4.126   6.768   3.158 -0.1365  0.1031  0.0890
91763W        W29257   9.577   8.634  10.241  0.0180  0.0208 -0.0209
91764W        W29258   5.970  22.541   8.225 -0.1217 -0.1543 -0.0376
91765W        W29259  13.138  15.156  24.167 -0.3389  0.1467 -0.3117
91766W        W29260  26.324  18.384  21.767  0.1934  0.0344 -0.1191
91767W        W29261  14.296  19.364  11.408 -0.1248  0.1236  0.1876
91768W        W29262  23.400  34.890  22.662  0.2464 -0.1941 -0.3224
91769W        W29263   0.219  32.139  24.168 -0.2571 -0.1403  0.0153
91770W        W29264  10.870   2.286  23.882 -0.2907  0.2164 -0.1548
91771W        W29265   6.180   1.599  19.441 -0.1284  0.0135 -0.3591
91772W        W29266  26.611   9.605   2.534 -0.2372  0.1208 -0.2465
91773W        W29267  18.707  26.675  18.698 -0.2363 -0.0526  0.1489
91774W        W29268  32.447   9.878  20.844  0.0040 -0.4089  0.2496
91775W        W29269   6.892  16.047   6.682  0.0679  0.0164  0.0780
91776W        W29270  15.372   3.772   7.700 -0.0848  0.0859 -0.1581
91777W        W29271   6.192  17.390  25.268 -0.1684  0.1613 -0.1911
91778W        W29272  20.124  25.421   4.782  0.3367  0.5159  0.1808
91779W        W29273  27.392  32.185  12.177 -0.0578 -0.0094  0.0657
91780W        W29274  15.146  29.935  20.927 -0.2468 -0.0850  0.2108
91781W        W29275  12.271  14.514  24.282  0.0129  0.0465 -0.0464
91782W        W29276  28.613  24.723  16.972  0.0808  0.2743 -0.2449
91783W        W29277   6.195  34.020  19.888 -0.0687 -0.2156  0.0150
91784W        W29278  11.392   9.221   7.522  0.1799  0.2775 -0.3425
91785W        W29279  27.905  15.997  21.821  0.2573 -0.1516  0.0179
91786W        W29280   4.301  18.636  23.680 -0.1390  0.0116  0.1400
91787W        W29281  32.329  35.151  25.433 -0.1721 -0.3466  0.0453
91788W        W29282  34.524   6.486  25.422  0.2439  0.1178  0.1018
91789W        W29283  23.613   6.319  17.255 -0.0274  0.1631 -0.0181
91790W        W29284  18.102  20.421   8.707  0.0250  0.0986  0.0048
91791W        W29285  33.799  14.703   8.443  0.3849  0.2427  0.1957
91792W        W29286   4.223   0.898   3.527 -0.1944  0.0860  0.1472
91793W        W29287  13.077  14.640  10.909 -0.3004  0.1601  0.1212
91794W        W29288  28.012  10.584  12.314 -0.1692 -0.2240  0.2784
91795W        W29289   0.826   2.196   4.036 -0.0187 -0.1871 -0.0596
91796W        W29290  34.538  31.266  18.893  0.1553  0.1992 -0.1110
91797W        W29291  32.051  15.909  14.243  0.0046  0.0107 -0.0009
91798W        W29292   8.100  15.704  19.451 -0.1329  0.2931  0.0676
91799W        W29293  24.384   4.733  25.469  0.0203 -0.1255  0.0688
91800W        W29294  16.891   6.648   4.088 -0.0755 -0.0064  0.0634
91801W        W29295  22.538  27.922  14.830 -0.0696  0.0743  0.0607
91802W        W29296  11.958   9.959  13.037 -0.0909  0.0047 -0.1367
91803W        W29297  18.916  22.057  21.647 -0.1062 -0.0328 -0.1484
91804W        W29298  13.554   4.691  19.356  0.1361  0.0344 -0.0237
91805W        W29299  18.770   8.489  20.895 -0.0947  0.3263 -0.0952
91806W        W29300   7.442   8.547  18.080  0.2142 -0.3031  0.3679
91807W        W29301  20.140   4.522  10.955 -0.0451 -0.0427 -0.1306
91808W        W29302  35.207  30.169  25.122 -0.0935  0.1334 -0.1215
91809W        W29303  14.239   4.638   0.546  0.0102 -0.0367 -0.0433
91810W        W29304  26.484   5.626  24.527 -0.0545  0.0342 -0.5607
91811W        W29305  33.022  30.921   1.280 -0.1765  0.0722  0.0913
91812W        W29306  27.194  27.933  10.315 -0.2669 -0.0585 -0.0410
91813W        W29307  28.745  26.284  23.438  0.0292  0.0739  0.1464
91814W        W29308  29.702  19.993  23.116 -0.3083 -0.0702  0.0511
91815W        W29309   6.406  30.598  13.412  0.2077  0.2614  0.0939
91816W        W29310   1.440   7.361  22.754 -0.0825  0.5081 -0.1051
91817W        W29311  31.701  13.441   0.121 -0.0567 -0.1326 -0.3716
91818W        W29312  26.193  34.124  21.644  0.0271  0.0127 -0.2889
91819W        W29313   0.135  21.728  23.706 -0.0596  0.1404 -0.2199
91820W        W29314  23.831  22.047   1.868 -0.0055 -0.3968  0.3432
91821W        W29315   4.693   6.127  20.390  0.0404 -0.1941  0.0745
91822W        W29316  28.750   7.767  12.592  0.0601 -0.0653 -0.0817
91823W        W29317  32.064  31.270   2.114  0.1572 -0.0106  0.1414
91824W        W29318  12.678   7.681   1.452  0.1720 -0.1050 -0.3777
91825W        W29319  16.077  20.415   1.333 -0.1991  0.1366 -0.0695
91826W        W29320  14.375  22.333  16.609  0.3285 -0.0523 -0.0750
91827W        W29321  12.279  22.764  16.541  0.0925  0.0727 -0.1966
91828W        W29322  28.106  29.737  14.895 -0.1714 -0.0248  0.0407
91829W        W29323  20.267  10.752   9.603 -0.0804 -0.3083 -0.5713
91830W        W29324  29.179  23.762  23.078 -0.0388  0.0262  0.1955
91831W        W29325  21.851  32.145   2.274 -0.1631  0.3012 -0.3132
91832W        W29326  18.386  34.619  19.605  0.2291  0.0214 -0.2512
91833W        W29327   8.527  33.399   1.963  0.0353 -0.2222  0.1133
91834W        W29328  14.292  28.298  13.024 -0.0752 -0.1545  0.4927
91835W        W29329   7.923  14.793   3.846 -0.2556 -0.2637 -0.1997
91836W        W29330  29.004   1.487   0.170 -0.0963 -0.2412  0.4399
91837W        W29331   9.278  21.836   6.418 -0.3472  0.0039 -0.2198
91838W        W29332   4.728  32.511   4.109  0.0211 -0.1316  0.0514
91839W        W29333  14.136  33.189   8.877 -0.1506 -0.1120  0.0519
91840W        W29334  23.947   0.961   2.994  0.1756 -0.1526  0.0375
91841W        W29335  33.381  32.073  24.986  0.2541  0.0888 -0.0642
91842W        W29336   9.317  20.502  22.601  0.2354  0.2752  0.1772
91843W        W29337   2.587   2.300  17.182 -0.1283 -0.4090  0.2740
91844W        W29338  26.915  23.302   0.450  0.0550 -0.2842  0.2492
91845W        W29339  32.601  31.570  12.427  0.0790 -0.2397 -0.4444
91846W        W29340  34.010  24.420  12.392 -0.0860  0.0506  0.0143
91847W        W29341  11.286  21.578   7.255 -0.0704 -0.0372 -0.0598
91848W        W29342  17.646  33.328  25.684 -0.1733  0.2138 -0.0875
91849W        W29343  27.691  35.290  21.054 -0.1036 -0.0073 -0.3699
91850W        W29344  17.685  26.098   3.949 -0.1761  0.1303 -0.2030
91851W        W29345  32.318  32.724  18.175 -0.0461 -0.1807  0.2051
91852W        W29346  25.387   5.091  19.471 -0.3735 -0.0198  0.0054
91853W        W29347  19.783  30.681   1.606  0.2757 -0.0137 -0.1605
91854W        W29348   1.517  23.332   0.127  0.0719  0.0114  0.0654
91855W        W29349  14.691  25.391  24.264  0.2596 -0.3580 -0.2656
91856W        W29350  18.203  25.555  11.690  0.0026  0.3060 -0.0800
91857W        W29351  18.539  19.329   1.999 -0.1914 -0.0937 -0.1460
91858W        W29352   5.696  22.393  24.922 -0.0063  0.1757  0.1710
91859W        W29353   7.496  23.505   2.882 -0.1138  0.0739  0.1032
91860W        W29354  34.937  19.833  14.951 -0.0013 -0.0383  0.5290
91861W        W29355  25.806  25.213  13.933  0.2308 -0.2352  0.1113
91862W        W29356  26.323  11.775   1.809 -0.1063 -0.1741  0.2734
91863W        W29357  29.057  29.236  17.809  0.2117  0.2809 -0.2733
91864W        W29358  12.826   6.333  20.544 -0.2152  0.0446 -0.0132
91865W        W29359   7.132  14.348  10.438 -0.1836  0.5397 -0.4583
91866W        W29360   5.769   2.969  24.263  0.1541 -0.0379 -0.1011
91867W        W29361  28.874  17.126  13.371  0.1135  0.4424  0.3039
91868W        W29362  20.886  33.337   0.602 -0.2861 -0.2200  0.0512
91869W        W29363   8.832  25.326  25.102 -0.0796  0.0384  0.2135
91870W        W29364  32.762   7.700  22.633  0.1723  0.2140  0.0504
91871W        W29365   7.565  19.812  23.553  0.1967  0.0745 -0.4501
91872W        W29366  10.827  13.743   6.964  0.1619 -0.0194  0.1600
91873W        W29367  13.646  21.386  15.537 -0.1589  0.0234  0.2571
91874W        W29368  25.389  23.038   1.613 -0.0661  0.0278 -0.1410
91875W        W29369   5.317  13.006   5.248  0.0539 -0.0633 -0.0833
91876W        W29370  24.118  23.963  13.211  0.0651  0.0326  0.1969
91877W        W29371  27.681  15.601  11.553  0.3455  0.0540 -0.3407
91878W        W29372  10.262   0.993  24.529  0.0509 -0.0531  0.2375
91879W        W29373  18.273   7.405   4.917 -0.2896  0.0777  0.4018
91880W        W29374  17.708  15.579  24.866  0.0628 -0.1548  0.1245
91881W        W29375  26.632  17.687  23.104  0.2880 -0.1531  0.0116
91882W        W29376  18.423  21.716  11.841 -0.3841  0.3758  0.0466
91883W        W29377   4.079   1.093  21.916  0.1600  0.1470 -0.1374
91884W        W29378  11.886  33.296   7.436  0.0714 -0.3068  0.2036
91885W        W29379  27.289  19.115  24.700  0.0287 -0.0980 -0.0803
91886W        W29380   7.056  14.820  10.179  0.5636 -0.1262  0.0264
91887W        W29381   4.756  12.370   7.905 -0.2132 -0.1191  0.1604
91888W        W29382  28.365  30.137  20.000  0.0051  0.4079 -0.2909
91889W        W29383  17.522  13.107  25.545 -0.2066  0.0128  0.0838
91890W        W29384  28.562  32.379  20.782  0.3161 -0.0129 -0.3661
91891W        W29385   8.376  32.506   4.367  0.0746 -0.0067  0.3724
91892W        W29386  16.275  31.409  10.434  0.2353  0.1311 -0.1394
91893W        W29387  13.407   5.510   3.396 -0.2511 -0.3536  0.2829
91894W        W29388   0.652  19.924  11.480 -0.1057  0.0086  0.0092
91895W        W29389   8.225  26.211   2.401  0.0361 -0.0161 -0.1199
91896W        W29390  31.417  21.962  15.200  0.0141  0.1680 -0.2402
91897W        W29391  21.611  21.485  17.836 -0.0754 -0.1924  0.1164
91898W        W29392   2.895   8.353   1.071  0.2069 -0.3148  0.0568
91899W        W29393   6.563   5.884  19.501  0.1440 -0.2128  0.0282
91900W        W29394   3.609   2.884  19.439 -0.0867 -0.1270  0.0354
91901W        W29395  22.365  17.193  14.516  0.1603  0.0315 -0.0555
91902W        W29396   6.869  26.778   5.726  0.2753  0.0173  0.2056
91903W        W29397  20.983  14.794   0.859 -0.4316 -0.4173 -0.0534
91904W        W29398  23.801   0.168   0.710 -0.1705 -0.1351 -0.0031
91905W        W29399  13.411  10.281   6.233 -0.0965 -0.1131  0.2547
91906W        W29400  31.781  27.328  11.985  0.1127  0.3660  0.1838
91907W        W29401  12.025  24.760  16.035  0.0989  0.1994  0.2461
91908W        W29402   9.028  33.928   1.546  0.1240 -0.2968 -0.1851
91909W        W29403  23.304  30.167   4.632  0.2651 -0.3560  0.2306
91910W        W29404   2.302  34.631   2.552 -0.0521  0.2529  0.3027
91911W        W29405   1.281  32.871  24.212 -0.3142  0.0984  0.4498
91912W        W29406  12.288  34.611  22.826  0.0345  0.0429  0.1234
91913W        W29407  13.022  32.639   1.049 -0.0479  0.0356 -0.1485
91914W        W29408  34.051  34.583  15.014 -0.0969  0.0227  0.0061
91915W        W29409  24.032  15.791  10.910 -0.0746 -0.1405  0.0345
91916W        W29410  10.791  32.672  25.998  0.1833  0.1803  0.3162
91917W        W29411  32.932  19.675  14.857  0.0523  0.1585  0.0987
91918W        W29412   9.585  13.400   1.968  0.2746  0.0545  0.1436
91919W        W29413  22.962  16.787  19.103  0.2449 -0.1811 -0.3752
91920W        W29414   9.189   3.743  24.067 -0.3127 -0.0601 -0.0110
91921W        W29415  34.222  30.736  15.861 -0.2651  0.2648  0.0923
91922W        W29416  28.097   8.719  21.881 -0.1702  0.1478 -0.1705
91923W        W29417  20.248  33.148   3.770  0.0539 -0.2402 -0.0273
91924W        W29418   5.760   4.030   8.592 -0.0561  0.0050 -0.0053
91925W        W29419  23.364   6.705  22.946  0.0713 -0.0246 -0.1693
91926W        W29420  35.023  14.213   8.248 -0.4004  0.2306 -0.1935
91927W        W29421  34.594  14.060  12.215 -0.2305 -0.1495  0.0187
91928W        W29422   6.867  18.700   1.511  0.1616  0.1118 -0.2378
91929W        W29423  25.530  28.947  25.259 -0.4123 -0.2532 -0.0593
91930W        W29424   0.569  30.014  18.337 -0.3692  0.2034  0.1674
91931W        W29425  14.502  34.324   5.790 -0.4664 -0.1831  0.1198
91932W        W29426  15.128  25.102   3.806 -0.0881 -0.2280  0.4127
91933W        W29427  21.820  12.728   0.247 -0.1084  0.0764 -0.2185
91934W        W29428  26.049   9.690  18.835 -0.2383 -0.2130  0.0352
91935W        W29429   2.582  12.149  23.263  0.0994 -0.0497 -0.0989
91936W        W29430  18.488  29.194  25.444 -0.2372 -0.1271  0.1159
91937W        W29431  10.674   7.064   4.530 -0.1159 -0.1735 -0.0784
91938W        W29432  32.262  20.764   5.910 -0.2891  0.4163 -0.1407
91939W        W29433  20.364  13.873  22.635 -0.2422 -0.2947 -0.1562
91940W        W29434  28.815   9.183  20.762 -0.0930 -0.2288 -0.0174
91941W        W29435  15.399  20.061   7.378 -0.1408 -0.2421 -0.0201
91942W        W29436  23.048  29.400  23.099 -0.2561 -0.0897 -0.0868
91943W        W29437  15.000   1.247   7.857  0.2113  0.1134  0.0502
91944W        W29438   9.530   1.983  24.034 -0.3232  0.2383 -0.3779
91945W        W29439  19.208  20.180  23.087 -0.1711  0.0310 -0.0083
91946W        W29440  32.856   4.755  15.063  0.0146  0.1122 -0.0111
91947W        W29441  22.306  20.128  15.315  0.1088 -0.0637  0.0227
91948W        W29442   8.866  11.886  24.268 -0.1636  0.1570 -0.0528
91949W        W29443   6.206   4.404  10.843  0.2289  0.0416  0.2467
91950W        W29444  31.961   0.110   6.433  0.0648 -0.2770 -0.1928
91951W        W29445  13.615  18.118  21.712 -0.1229 -0.0838  0.4410
91952W        W29446  17.972  19.617   9.133 -0.1534  0.1517 -0.1267
91953W        W29447  24.998  28.589  12.593  0.0556 -0.0700 -0.0628
91954W        W29448  25.767  21.623  17.082 -0.2055 -0.1686 -0.0091
91955W        W29449  14.169  33.685  23.063 -0.1920  0.1968 -0.0062
91956W        W29450  10.416  27.809   4.911 -0.1533 -0.0272  0.2320
91957W        W29451   0.379   0.459  20.125  0.2710  0.0061  0.2127
91958W        W29452  15.254  15.520   7.705  0.0045  0.3224  0.0288
91959W        W29453  24.714  11.139  22.520  0.0234  0.3450 -0.0002
91960W        W29454   9.468  33.542  14.053 -0.0288 -0.2384 -0.3710
91961W        W29455  17.466   2.143  19.811 -0.1916 -0.0607 -0.1627
91962W        W29456   9.415  11.166  20.192  0.0382 -0.0343 -0.1329
91963W        W29457  32.073  11.957  24.397 -0.0789 -0.1177 -0.0676
91964W        W29458  20.026   7.165  19.845 -0.0151  0.3774  0.0973
91965W        W29459  34.518  27.277  21.861 -0.2764 -0.1837  0.0225
91966W        W29460  23.533  32.499   1.803  0.1149 -0.3959 -0.1485
91967W        W29461   8.851  10.161   2.640 -0.1740  0.0204 -0.2240
91968W        W29462  29.376  25.514  13.711 -0.1386  0.0201 -0.2441
91969W        W29463   3.715  13.562   1.431 -0.0548 -0.1710 -0.1399
91970W        W29464   8.738  30.178   8.121 -0.5421  0.2639 -0.0362
91971W        W29465  20.307   9.807   4.806 -0.0830  0.0058  0.2591
91972W        W29466   7.945   5.767  20.800 -0.0338 -0.1973 -0.0305
91973W        W29467   0.501   6.933   4.050 -0.1869 -0.1815 -0.1432
91974W        W29468  23.587  13.720   1.290  0.0323  0.0696  0.0728
91975W        W29469   2.234  15.938   2.652  0.3418  0.2926  0.3868
91976W        W29470  19.737  10.354   3.203 -0.1727  0.0130 -0.0390
91977W        W29471  11.705  25.775  14.722  0.1652  0.0136  0.0575
91978W        W29472  10.406  20.706  25.701 -0.0054  0.2936  0.0041
91979W        W29473   7.215  14.829  20.465 -0.0379 -0.0551  0.1371
91980W        W29474   7.316  26.754   3.765  0.3252  0.0601 -0.4977
91981W        W29475  31.877  17.937  13.563 -0.2362  0.2583  0.1440
91982W        W29476  23.718  15.967   1.796  0.0344  0.1660 -0.0558
91983W        W29477  16.055  17.225   4.644 -0.0926  0.1283 -0.1380
91984W        W29478  15.266   5.498  22.079  0.0478 -0.0868 -0.0856
91985W        W29479  13.413   0.301   5.442  0.0913 -0.3539  0.1060
91986W        W29480   6.653   2.819  11.621 -0.0108  0.1643 -0.2297
91987W        W29481  15.564   9.447   6.815 -0.4683  0.0764 -0.0079
91988W        W29482   0.136  31.165  22.408  0.0444  0.0628 -0.1195
91989W        W29483  24.676   3.562   6.125 -0.0596  0.0043 -0.2947
91990W        W29484   8.168  16.118  11.072 -0.0429  0.2502  0.2412
91991W        W29485  12.967   7.447   0.764  0.3619  0.1986 -0.1329
91992W        W29486  30.583  12.721  13.020  0.0557  0.0590  0.1824
91993W        W29487  17.444   9.512  26.242 -0.1191 -0.0223 -0.1214
91994W        W29488   9.112   4.777  24.399 -0.1445  0.0907  0.1863
91995W        W29489   6.541  17.174   0.882  0.0633  0.2944 -0.2117
91996W        W29490  14.649   7.712  18.167 -0.2155  0.1455 -0.0985
91997W        W29491   9.822  22.198  15.156  0.1466  0.2326  0.3199
91998W        W29492   1.611  19.224  22.627  0.0867  0.0641 -0.1982
91999W        W29493   3.705  34.595  19.319 -0.1481 -0.0050 -0.0506
92000W        W29494   9.847   5.256  22.702  0.0485 -0.0492 -0.0552
92001W        W29495   4.496  13.660   7.348 -0.0609  0.1181 -0.0077
92002W        W29496  26.220  21.100  25.774  0.1052  0.2092  0.1202
92003W        W29497   9.862  25.620  10.036  0.1321 -0.0883 -0.0523
92004W        W29498  19.786  28.414  21.774  0.1976 -0.0508  0.0871
92005W        W29499  15.386   1.471  11.117 -0.2543 -0.0428  0.0543
92006W        W29500   6.015   5.439   0.473  0.1480  0.1058  0.0553
92007W        W29501  33.646  32.154   0.815 -0.1649  0.1991 -0.1707
92008W        W29502   7.370   2.370  10.987 -0.1048  0.0164  0.0045
92009W        W29503  14.398  15.724   5.897  0.2157  0.0886  0.0709
92010W        W29504  12.816   1.774  12.435 -0.4632 -0.0972  0.2651
92011W        W29505  22.824  15.313  20.385 -0.0285 -0.1792 -0.1728
92012W        W29506  34.269  23.137  23.760 -0.0804  0.1278  0.1018
92013W        W29507  29.415   5.594   0.337  0.0924 -0.2094 -0.1160
92014W        W29508  20.727  13.761  17.909  0.1354 -0.0078  0.1590
92015W        W29509  23.803  13.700  16.030  0.0540 -0.1378  0.1421
92016W        W29510  17.863  24.147   6.746 -0.2850 -0.1358  0.1562
92017W        W29511  27.524  20.687  10.164 -0.0124 -0.1761 -0.3239
92018W        W29512  18.156  18.781  19.492  0.1327  0.2055  0.0282
92019W        W29513   5.213   3.685   7.427 -0.2706  0.1471 -0.1540
92020W        W29514   0.859  29.244  19.906  0.0330 -0.0261  0.0232
92021W        W29515   5.044  17.600   6.130  0.1097 -0.2015  0.1122
92022W        W29516  18.053  13.499  21.419 -0.2834  0.2893 -0.0429
92023W        W29517  29.830   0.242  18.506  0.0305  0.1411  0.0365
92024W        W29518   3.037   9.277   6.354  0.1368 -0.3051 -0.1631
92025W        W29519  12.482  27.371  11.087  0.0159  0.4501 -0.0871
92026W        W29520  28.489  13.318  10.576  0.1562 -0.2043  0.0322
92027W        W29521  21.917   5.809  25.934  0.2384  0.0836 -0.3129
92028W        W29522   8.224   0.109  25.775 -0.3274 -0.3962 -0.1191
92029W        W29523  29.405  21.230  11.277  0.0519 -0.1904 -0.5926
92030W        W29524   3.740  24.021  25.280 -0.2978  0.0253 -0.1369
92031W        W29525  14.405  22.880   1.469 -0.0509 -0.1400  0.1129
92032W        W29526  23.677  31.544  12.579  0.2753 -0.1035 -0.1078
92033W        W29527  14.400  10.335  26.025 -0.0624 -0.0617  0.0485
92034W        W29528  24.375  28.665   4.480 -0.0311 -0.0483  0.1695
92035W        W29529   7.379  12.764  11.727 -0.1984  0.0805  0.2018
92036W        W29530  26.834  25.936  10.449 -0.0132  0.2295  0.3378
92037W        W29531  23.465  18.596  25.756  0.1270  0.1381 -0.2710
92038W        W29532  14.844  12.582   8.120  0.1650  0.0829  0.2656
92039W        W29533   8.899  34.263  10.891 -0.1060 -0.1127 -0.1610
92040W        W29534  33.590  23.318  14.116  0.1528 -0.0915  0.1175
92041W        W29535  19.570  35.128  15.444 -0.0254  0.0392  0.2162
92042W        W29536  27.377  24.398  21.610 -0.1062 -0.0664 -0.1081
92043W        W29537   2.618  12.725  19.777 -0.1615  0.2309  0.5180
92044W        W29538  20.667  35.124  23.159  0.0009  0.2417  0.1119
92045W        W29539  13.769  16.684   0.312 -0.0055 -0.3445 -0.0823
92046W        W29540  34.111  22.965  15.431  0.0565 -0.0813 -0.3597
92047W        W29541   9.322   8.614   0.939  0.0280 -0.0867  0.1492
92048W        W29542  12.973   5.063   5.194  0.1648 -0.0156  0.2188
92049W        W29543  18.033  26.420   7.204  0.3804  0.1030 -0.0070
92050W        W29544  25.769   2.277  10.976  0.1955  0.1247  0.1239
92051W        W29545  33.542  26.343  19.282 -0.3387 -0.0657  0.1809
92052W        W29546   6.510  19.830   8.324 -0.0231 -0.6211  0.0623
92053W        W29547  20.905  22.559  22.145 -0.0265 -0.6973 -0.1540
92054W        W29548  10.588  25.676   2.339  0.1083 -0.0733  0.1801
92055W        W29549  17.560  22.744   8.481  0.1897  0.3832  0.0637
92056W        W29550  33.284   4.551  25.504 -0.3058 -0.0863 -0.2576
92057W        W29551  28.907   0.262   1.388 -0.1089  0.0974  0.1880
92058W        W29552   8.059  26.061   5.617  0.1722  0.3820 -0.1254
92059W        W29553   2.741  26.506  20.651  0.1091  0.0439 -0.3054
92060W        W29554  27.554  18.375  11.468  0.0438 -0.1692  0.2524
92061W        W29555  34.115  30.031  25.005 -0.1516  0.3102  0.0980
92062W        W29556  25.668  15.906  17.943  0.0093 -0.1706 -0.0790
92063W        W29557  34.600  20.270  11.615 -0.3083  0.0637  0.1730
92064W        W29558   9.914   6.008   0.689  0.0140 -0.2729 -0.4793
92065W        W29559  19.218   2.400  25.821 -0.0052 -0.0694 -0.4026
92066W        W29560  31.105  32.875  18.862 -0.3779  0.1216  0.0399
92067W        W29561   9.791   5.049  23.810 -0.1521 -0.2380 -0.2318
92068W        W29562   9.489   1.558   3.477  0.2184  0.0335 -0.0753
92069W        W29563  34.045  10.806  13.311  0.1628 -0.0365 -0.1666
92070W        W29564  12.129  15.274   5.175  0.1530 -0.4599 -0.0441
92071W        W29565  22.332  33.407  17.358  0.2580  0.0476  0.1944
92072W        W29566   5.846  16.402   8.494 -0.0363  0.2036  0.0768
92073W        W29567  20.756  35.302   1.384  0.0170  0.0062  0.1253
92074W        W29568  26.029  33.238  12.298 -0.1388 -0.1574 -0.0409
92075W        W29569  28.559  20.950   9.014  0.0490 -0.1412 -0.0933
92076W        W29570  15.867  14.436   7.232  0.2300 -0.0924 -0.0190
92077W        W29571  23.761  12.620  19.677 -0.0685  0.0815  0.0469
92078W        W29572  24.611  32.277  25.983 -0.0416  0.0249 -0.2343
92079W        W29573  27.206   7.651  18.191 -0.2954  0.0143 -0.0463
92080W        W29574  10.065  32.499   5.688 -0.0041  0.2134 -0.2439
92081W        W29575  22.167   4.290  23.210 -0.1206  0.3971 -0.1256
92082W        W29576   8.654   9.062  22.062  0.1019 -0.2314  0.2858
92083W        W29577   0.619  25.446   4.288  0.2707 -0.3386 -0.1503
92084W        W29578  26.857  35.363   4.087  0.2010  0.2130 -0.0151
92085W        W29579  13.180  21.143   9.847  0.1311 -0.2245 -0.0291
92086W        W29580   0.927  23.019  21.416  0.2753  0.0562 -0.0974
92087W        W29581   6.592   1.337  24.416 -0.0476  0.1490  0.2561
92088W        W29582   9.703  30.034   6.171 -0.0371 -0.3288 -0.0522
92089W        W29583  24.947  22.177   9.156 -0.1748 -0.0467 -0.1683
92090W        W29584  11.924  23.847  10.796  0.1775 -0.4596 -0.1299
92091W        W29585   5.381  21.307  20.210 -0.2633 -0.4372 -0.1440
92092W        W29586  22.837   6.695  21.106  0.1674 -0.0714 -0.0651
92093W        W29587  20.136  25.985   5.071 -0.0402 -0.1428  0.1553
92094W        W29588  22.334   3.365   6.611 -0.3605 -0.0313  0.0810
92095W        W29589  32.069   0.829  15.585 -0.1525  0.0835 -0.2012
92096W        W29590   8.168  28.294   7.738 -0.1314 -0.0795 -0.0151
92097W        W29591  11.166  25.668   0.998 -0.2881  0.0215  0.0845
92098W        W29592  33.555   0.935  18.788  0.3218  0.0403 -0.5033
92099W        W29593   7.835   7.681  24.068 -0.0906 -0.0225  0.1891
92100W        W29594  20.578  31.395  23.067  0.1011  0.0842  0.2235
92101W        W29595  27.573   7.717  24.233 -0.0194  0.3973  0.2381
92102W        W29596   1.947  26.177  25.190  0.2739  0.2693  0.0612
92103W        W29597  30.346  13.434   5.459 -0.0332 -0.0863 -0.2377
92104W        W29598  10.150  34.989  10.543  0.0820  0.0845  0.2021
92105W        W29599   5.564  15.813  22.253  0.1950 -0.0011 -0.1089
92106W        W29600  33.849  16.106  23.651  0.0617  0.1150 -0.2516
92107W        W29601  11.921   2.446  25.991  0.4704 -0.3442 -0.2278
92108W        W29602  19.013  18.050  20.049 -0.2617  0.3144  0.2483
92109W        W29603  29.283   0.075  26.160  0.0557 -0.0664  0.2837
92110W        W29604   9.791   4.911  21.676  0.2294  0.0222  0.0919
92111W        W29605  29.374   8.837  13.028 -0.1281 -0.2154  0.0886
92112W        W29606   7.639  12.851   6.232 -0.0446  0.0856 -0.2260
92113W        W29607   4.843  25.409   9.863 -0.1366 -0.4298  0.1474
92114W        W29608  10.053  15.506  10.325  0.0997  0.2334 -0.0228
92115W        W29609   4.621   4.273   8.333 -0.1423  0.0561 -0.1835
92116W        W29610  29.623   5.441  21.693 -0.0044 -0.1214  0.2640
92117W        W29611   1.845  26.844  25.069  0.1615 -0.3665 -0.3250
92118W        W29612  29.121  33.349  19.244  0.0620  0.0785  0.0210
92119W        W29613  29.389  34.185   4.029  0.1754 -0.0171  0.1350
92120W        W29614  15.514  25.361   1.049 -0.0029 -0.2278 -0.2809
92121W        W29615  25.507  24.459  19.932 -0.1699 -0.2916  0.1032
92122W        W29616  27.121  25.361  12.935 -0.1478  0.1748  0.2037
92123W        W29617  29.873  21.397  12.544  0.1063 -0.1460  0.1160
92124W        W29618  14.885  16.075   7.016  0.4615 -0.0263  0.1405
92125W        W29619  13.684  33.436   4.442 -0.5284 -0.0509  0.0763
92126W        W29620   1.832  14.400  15.845 -0.1514 -0.0317  0.0678
92127W        W29621  18.450  28.262  18.790  0.4088 -0.1487  0.0638
92128W        W29622  11.567  15.579  21.988 -0.0457 -0.1902 -0.2850
92129W        W29623  30.317  16.164   8.035  0.0064 -0.1353  0.0290
92130W        W29624  16.836   5.875  10.022  0.1231 -0.0664  0.3300
92131W        W29625  31.592  21.556   6.939 -0.1333 -0.1572  0.1641
92132W        W29626   9.555   1.336   8.349 -0.1467  0.0993 -0.1173
92133W        W29627   4.399  29.533  22.047  0.0242 -0.3123 -0.1819
92134W        W29628  18.732   9.955  10.121 -0.1225  0.0971  0.0165
92135W        W29629  26.584  33.209  19.858 -0.0772  0.0672  0.0171
92136W        W29630  17.786   4.944  19.015 -0.2477 -0.0965 -0.2656
92137W        W29631  12.357   4.544   8.558 -0.2405  0.2294  0.3860
92138W        W29632  14.970  34.311   3.654 -0.2172  0.0562  0.4893
92139W        W29633  20.330  20.424  21.433  0.0658 -0.3202  0.0744
92140W        W29634  34.700  26.296  20.212 -0.2007  0.4001 -0.1081
92141W        W29635  21.832  31.414   4.824 -0.3393 -0.1332  0.1360
92142W        W29636  20.863   9.602  18.974 -0.0094  0.3405  0.1426
92143W        W29637   7.034   2.611   0.579 -0.2510 -0.1555 -0.1250
92144W        W29638  14.642  31.657   2.618  0.0985  0.1672  0.2376
92145W        W29639   6.213   9.722   7.144 -0.0885  0.0873 -0.0339
92146W        W29640   2.975  19.970  16.844 -0.0533 -0.1129 -0.1153
92147W        W29641   3.914   0.539   1.498 -0.2901  0.0501 -0.1046
92148W        W29642  33.023   7.930  22.048  0.2314 -0.1244 -0.0815
92149W        W29643   5.966  10.019   5.570 -0.1461 -0.1840  0.1054
92150W        W29644  22.606  16.655  18.767 -0.2200 -0.0661  0.6116
92151W        W29645  20.029  10.729   8.482  0.1504  0.0931  0.0137
92152W        W29646   6.569  32.614   5.533 -0.0962 -0.1681 -0.1747
92153W        W29647   5.213  10.806   7.092  0.1891 -0.1048  0.1508
92154W        W29648  27.472  32.439  16.223 -0.1692 -0.0639 -0.0276
92155W        W29649   3.829   5.871  17.296 -0.6040  0.2100 -0.3448
92156W        W29650  31.439   1.575  15.063  0.0053 -0.2239 -0.0730
92157W        W29651  27.596   7.047  23.371  0.0571  0.2932  0.0887
92158W        W29652  20.033  19.898  22.002 -0.1067  0.1431 -0.0249
92159W        W29653  30.015  32.049  21.712 -0.0303 -0.1748 -0.0655
92160W        W29654   3.793  21.017  19.143  0.1145  0.2306  0.0089
92161W        W29655  25.586  29.201  11.015  0.2174 -0.3438  0.0225
92162W        W29656   4.440   6.667   4.363 -0.2641 -0.0803  0.3202
92163W        W29657  34.640  20.865  19.018 -0.2964  0.0126 -0.1614
92164W        W29658  18.024  22.499   9.970 -0.1334 -0.0298 -0.1851
92165W        W29659  29.059  11.269  18.317 -0.0009 -0.0595  0.3450
92166W        W29660   5.895  21.080   4.895  0.1801  0.0149  0.3490
92167W        W29661  23.802  17.172  13.325 -0.2076  0.1327 -0.1487
92168W        W29662   5.163  31.453   1.905 -0.0846  0.0006 -0.0685
92169W        W29663  10.151   7.306  24.507  0.3043 -0.1921 -0.2362
92170W        W29664   7.558  33.720  16.125  0.1272 -0.0500  0.2125
92171W        W29665  15.479   6.472  10.455  0.0731 -0.3188  0.0182
92172W        W29666  29.094  20.315   7.252 -0.2587  0.2132 -0.2191
92173W        W29667  22.037   9.850  22.480  0.1544 -0.2032 -0.2310
92174W        W29668  29.167  20.841   5.484 -0.0419  0.1000 -0.1201
92175W        W29669  15.869  10.756   8.490  0.0240  0.1334 -0.0667
92176W        W29670  29.411   0.072  18.957  0.2150  0.1114 -0.1362
92177W        W29671  12.416  22.939   9.509 -0.0503 -0.0198  0.5437
92178W        W29672  15.101   9.417  13.014 -0.0695 -0.0956  0.0597
92179W        W29673  16.246   6.733   6.365  0.1010  0.2657 -0.0226
92180W        W29674  30.973  26.753   0.900  0.0336  0.1146 -0.1529
92181W        W29675   3.825   0.114  18.263 -0.1051  0.1173 -0.2357
92182W        W29676   1.004  20.235  12.784  0.1073  0.0313  0.0505
92183W        W29677  27.973  31.211   1.519 -0.1256  0.0283  0.2319
92184W        W29678   2.095  17.328  16.113  0.0771  0.0309 -0.2996
92185W        W29679  25.449   6.511  17.314  0.2334 -0.0235 -0.3789
92186W        W29680  27.505  31.043   1.742 -0.0579  0.0254  0.2512
92187W        W29681  18.348  14.296  11.681  0.0407 -0.1581  0.0992
92188W        W29682  28.903   3.293   4.656  0.0087  0.1970  0.0162
92189W        W29683  29.617  16.357   8.722  0.0726  0.1569 -0.2493
92190W        W29684   5.154   3.507  23.451 -0.2096  0.1190  0.0268
92191W        W29685   8.331   4.579   6.225  0.2759 -0.0288 -0.1614
92192W        W29686  35.056  34.056  18.620 -0.1416  0.0362 -0.2034
92193W        W29687   8.595   6.190  25.962  0.0017 -0.0034  0.0487
92194W        W29688  26.238  32.925   3.367 -0.2233 -0.0914  0.4441
92195W        W29689  21.405   6.071   8.488  0.0353 -0.0463 -0.2649
92196W        W29690  19.482  13.469   6.208  0.1519 -0.2468  0.0396
92197W        W29691   1.954  25.591  21.203 -0.3050 -0.1061 -0.0163
92198W        W29692  21.980   2.751   2.863 -0.0406  0.2315 -0.2193
92199W        W29693   9.803  30.230  26.119 -0.1553  0.1395  0.2884
92200W        W29694  10.893  21.928  10.876  0.1222 -0.0459 -0.1397
92201W        W29695  11.793  31.354   5.460  0.2073 -0.4224 -0.1120
92202W        W29696   1.918  21.221  11.450  0.1565  0.1902  0.1871
92203W        W29697   7.875  20.374   6.206 -0.1767  0.0644 -0.1283
92204W        W29698  21.313  13.799  24.949 -0.3039  0.0945 -0.3150
92205W        W29699  13.834   8.835   4.166 -0.1280 -0.1563  0.0156
92206W        W29700  28.308  20.058  15.084  0.1682  0.0850 -0.2708
92207W        W29701  18.690  16.192   3.350 -0.1191 -0.1522 -0.0216
92208W        W29702  15.509  30.730   1.717  0.0053 -0.0273  0.0651
92209W        W29703  20.128  14.875   0.620  0.1183  0.2247  0.0376
92210W        W29704  17.385  25.370   4.704 -0.0348  0.0065 -0.1836
92211W        W29705  30.465   1.466  12.142  0.1176  0.3804 -0.1723
92212W        W29706  20.965  18.006  22.339  0.0475 -0.1688 -0.3059
92213W        W29707  18.577  32.110   2.125  0.1775  0.3951  0.1024
92214W        W29708   7.489   4.842  22.207 -0.2879  0.0199 -0.4334
92215W        W29709   7.051  29.480   4.605  0.3289 -0.1119 -0.0039
92216W        W29710  31.004   5.749  20.932 -0.1589 -0.0654  0.0607
92217W        W29711  12.137  15.024  24.569  0.0073  0.4100 -0.0818
92218W        W29712  29.015  12.195  17.188  0.0649  0.1730  0.0026
92219W        W29713  29.343   2.663  13.011  0.1929 -0.0150  0.1733
92220W        W29714   4.078  17.814  24.987 -0.0235 -0.3052  0.2302
92221W        W29715  19.161   9.158   0.704  0.2190 -0.1956 -0.0730
92222W        W29716  14.769  28.382  12.611  0.0875  0.3042  0.0474
92223W        W29717  30.548  26.834  16.718 -0.0074 -0.0634 -0.6233
92224W        W29718  12.557  28.000  25.229 -0.2729  0.3776  0.0298
92225W        W29719  31.054  32.018   5.702  0.3420 -0.6247 -0.0640
92226W        W29720  12.611  23.798  22.561  0.0745 -0.1089 -0.4037
92227W        W29721  21.528   9.765  25.034  0.2364  0.2279 -0.3080
92228W        W29722   3.977  17.680  26.135 -0.2673 -0.0592 -0.0425
92229W        W29723  11.001  19.969  10.286  0.1462 -0.3627 -0.0198
92230W        W29724   2.083  20.854   1.448  0.3874 -0.0355 -0.2377
92231W        W29725  22.625  33.491  15.378  0.1387 -0.1894  0.1726
92232W        W29726  14.677  15.407   3.528  0.0495 -0.2116 -0.3023
92233W        W29727  28.682  19.420  14.557  0.1869 -0.1784  0.0772
92234W        W29728  22.312  28.591  13.589  0.0973  0.3099 -0.5420
92235W        W29729  32.699   3.384  26.131 -0.1955 -0.1221  0.0892
92236W        W29730  12.199  22.993   0.355  0.1068  0.1570 -0.0820
92237W        W29731  18.152  13.394   1.076  0.0623  0.0963  0.0482
92238W        W29732  12.752  10.622  14.691  0.2449 -0.1116  0.1128
92239W        W29733  25.036  19.104  16.724 -0.0777 -0.0033 -0.1673
92240W        W29734  17.585  13.965   0.785  0.0452  0.0543 -0.0543
92241W        W29735  16.768   9.662   2.944 -0.0037 -0.1493 -0.1064
92242W        W29736  14.837  17.038   5.227  0.3775 -0.0474 -0.3228
92243W        W29737  16.079   7.719   5.827  0.1029  0.0127 -0.1105
92244W        W29738  19.795  29.414   0.994  0.0851  0.0307  0.1243
92245W        W29739  11.834  12.693  22.219 -0.1430 -0.1992 -0.0687
92246W        W29740   8.260  18.657  12.011 -0.2197  0.3680 -0.0520
92247W        W29741  23.456  34.528   1.992  0.1061  0.0100  0.2088
92248W        W29742  32.192   3.560   4.312 -0.0143 -0.0377 -0.0380
92249W        W29743  28.440   2.059  19.879  0.0152  0.0506  0.1218
92250W        W29744  31.499  23.343  20.433  0.3150  0.2378  0.3407
92251W        W29745  11.713  33.822  20.373  0.2498  0.0926  0.0278
92252W        W29746  28.544   3.501  18.881 -0.0850  0.0599 -0.1494
92253W        W29747  11.090  33.332   7.707 -0.0677 -0.0523  0.5696
92254W        W29748   9.343  23.483  15.884  0.0088 -0.0486  0.0128
92255W        W29749  17.328  25.319   7.916 -0.2462  0.0341 -0.1249
92256W        W29750   9.345   1.151  25.086  0.0954  0.2401 -0.1334
92257W        W29751  35.294  23.034  13.996 -0.2156 -0.1846  0.0098
92258W        W29752  29.238  33.229  12.607 -0.2587  0.1024 -0.0360
92259W        W29753  27.471  21.880   7.542  0.1091 -0.3049 -0.2530
92260W        W29754  12.656  21.266   3.616  0.0002 -0.0426 -0.1906
92261W        W29755  16.841  23.435   1.977  0.5153  0.2704 -0.1921
92262W        W29756  27.336  11.247  16.955 -0.1019 -0.0203  0.2052
92263W        W29757   9.958  16.858  23.684  0.2545 -0.1772 -0.0544
92264W        W29758   5.050  12.024   7.609 -0.1571 -0.0743  0.0480
92265W        W29759   4.731   9.802   0.752  0.3264  0.0756  0.0668
92266W        W29760  11.536   1.005  22.332 -0.0373  0.0435 -0.0200
92267W        W29761   8.217   3.961  12.827  0.3242 -0.2120 -0.5181
92268W        W29762  21.731  26.020  18.008  0.0588 -0.1402 -0.0371
92269W        W29763   7.995  30.640  12.271  0.0691 -0.4153 -0.2699
92270W        W29764   2.391   4.114   6.641  0.0786 -0.2035 -0.0034
92271W        W29765  32.351  17.453  10.832  0.2370  0.2677 -0.1900
92272W        W29766  21.758  34.065  16.668 -0.2233  0.0427 -0.1811
92273W        W29767  33.887   2.959   2.003  0.2360  0.0866 -0.0421
92274W        W29768   4.541  21.292   0.662  0.0451 -0.3169 -0.2218
92275W        W29769  17.271   5.732  21.537  0.3732  0.2184 -0.0144
92276W        W29770   1.615  10.548  13.795  0.1354  0.1376 -0.0522
92277W        W29771  30.696   1.834  16.083 -0.2364 -0.3024  0.1362
92278W        W29772  11.279  13.656  22.699 -0.4161  0.0492 -0.1260
92279W        W29773  26.028  12.573  19.205  0.1509  0.1340  0.2456
92280W        W29774  11.836  17.923  23.038  0.2217  0.0453  0.2161
92281W        W29775  19.160  23.206   7.682 -0.0032  0.1740 -0.0870
92282W        W29776   6.099  17.418   2.548  0.2878  0.2856 -0.1364
92283W        W29777  27.931  20.294   4.313  0.0863  0.0589  0.1929
92284W        W29778  31.619  19.799  23.487 -0.4712 -0.1542  0.2860
92285W        W29779  32.935  27.582  23.621  0.2169 -0.2349 -0.1737
92286W        W29780  32.333  25.230  20.896  0.0194  0.2536 -0.0006
92287W        W29781  13.102  16.474  22.019 -0.0377  0.1042 -0.0400
92288W        W29782  12.069   8.016   2.486  0.2209 -0.0908 -0.0407
92289W        W29783  21.026  15.676  18.328 -0.1900 -0.1299 -0.0567
92290W        W29784  25.290  25.789  18.767  0.1169  0.0874 -0.1431
92291W        W29785  31.766  34.056  17.363 -0.1424  0.0972  0.2886
92292W        W29786  29.109  13.984  17.656 -0.0175  0.0525  0.1521
92293W        W29787   7.860  35.282   3.454  0.0629 -0.1150  0.2472
92294W        W29788  15.574  25.648   2.974  0.0383 -0.2607  0.1244
92295W        W29789  11.430  24.587   0.103  0.0643  0.3078  0.4523
92296W        W29790  18.096  16.492   4.094  0.2127 -0.0683  0.0053
92297W        W29791  33.476  21.399  15.940 -0.0087 -0.1540  0.2187
92298W        W29792  22.971  28.044   3.509 -0.0845  0.0727  0.3592
92299W        W29793  15.034  21.325   9.175  0.0652  0.1307  0.0251
92300W        W29794  32.654  16.042  21.978  0.4476  0.1551  0.0730
92301W        W29795   3.033  33.163   5.769  0.1779 -0.5948 -0.2075
92302W        W29796  27.007   8.415   0.635 -0.4131 -0.0430 -0.0875
92303W        W29797  19.724   1.395   2.028  0.0071  0.0705  0.1305
92304W        W29798  12.523  25.311   3.204  0.1497 -0.0397 -0.0546
92305W        W29799  14.804  16.249  23.926  0.0765  0.0327 -0.2773
92306W        W29800  29.576  29.852  17.661 -0.0413 -0.1075 -0.0339
92307W        W29801  27.733  15.049  17.176 -0.0338 -0.2340  0.1338
92308W        W29802   4.853   2.760  10.039 -0.2031  0.0644 -0.2268
92309W        W29803   4.195  29.150  20.352  0.0311  0.3318  0.1716
92310W        W29804  15.228  27.581   3.868 -0.2343  0.1578  0.0717
92311W        W29805  17.276  35.277  21.933 -0.0437 -0.1706  0.2710
92312W        W29806  16.600  28.628   9.851 -0.2167 -0.0516  0.2340
92313W        W29807   2.587  34.107  11.260  0.1492  0.0564 -0.1019
92314W        W29808  28.876  25.043  12.488 -0.2080 -0.0707  0.0033
92315W        W29809   8.524  11.706  24.008  0.1455 -0.2589 -0.2805
92316W        W29810  17.650  25.171  12.412  0.0594  0.1681  0.3322
92317W        W29811  33.642  19.878  20.593  0.3042 -0.4969  0.1816
92318W        W29812  22.956  35.296   2.339 -0.0639 -0.0637  0.1594
92319W        W29813   6.525   5.522   4.727 -0.0951  0.0989 -0.2559
92320W        W29814   4.097  15.419  22.863 -0.1005 -0.0096 -0.1287
92321W        W29815   0.561  12.368  15.193 -0.1237 -0.0061  0.0879
92322W        W29816  30.559  30.709   3.185  0.1706 -0.3405 -0.0000
92323W        W29817   4.672  28.727   7.608  0.1185  0.1195 -0.0458
92324W        W29818  33.912  22.064  11.764  0.0396  0.1369 -0.1824
92325W        W29819  16.582   1.492  20.539 -0.1533 -0.2326  0.3072
92326W        W29820  30.220  13.686  11.375  0.2499  0.0694  0.2372
92327W        W29821  33.713  25.071   8.745 -0.1508  0.1646  0.2230
92328W        W29822  26.774   7.445  17.992  0.1617 -0.3274  0.0251
92329W        W29823  19.315  33.114   3.520  0.2841 -0.1934 -0.2851
92330W        W29824  12.313  29.686  11.800 -0.1412 -0.0999 -0.4344
92331W        W29825  14.880   6.301  12.481 -0.2497 -0.0523  0.0630
92332W        W29826  24.262   0.364  13.268 -0.0844 -0.0219  0.3459
92333W        W29827  16.243   7.813  20.261  0.2550 -0.0114 -0.0116
92334W        W29828   1.886  22.282  21.813 -0.2549  0.1837  0.0314
92335W        W29829  11.922   5.470   7.062 -0.1458  0.1857 -0.0288
92336W        W29830  33.416   2.830   6.981  0.1243 -0.2455 -0.1206
92337W        W29831  34.449  18.401  26.209 -0.1140 -0.1202  0.1762
92338W        W29832   4.497   6.155   1.202 -0.5924  0.2805 -0.1622
92339W        W29833  30.270  27.316  15.237  0.0252  0.1976  0.2909
92340W        W29834  10.907  24.968   7.034  0.0240 -0.2451 -0.0185
92341W        W29835  22.485  34.148   6.317 -0.1279  0.0457  0.1967
92342W        W29836  14.602   9.366   1.161 -0.3724  0.1618  0.2043
92343W        W29837   7.302   8.503  23.439 -0.2731 -0.1476  0.0659
92344W        W29838  32.867  15.156   8.589  0.0014 -0.0652 -0.0289
92345W        W29839   8.051  16.116   6.527 -0.2814 -0.1046 -0.2141
92346W        W29840  21.364  14.668  22.640  0.1349 -0.1152 -0.0587
92347W        W29841  30.178  32.579  16.709 -0.1427 -0.1950  0.0044
92348W        W29842  35.137  19.554  22.447 -0.2366 -0.0471 -0.3199
92349W        W29843   7.267  16.481   3.015  0.0687  0.0292 -0.1513
92350W        W29844  18.636   7.772  10.171 -0.1633 -0.1759 -0.0219
92351W        W29845  19.152  11.870  19.843 -0.0882 -0.1700  0.1197
92352W        W29846   3.122  27.618  22.528 -0.2262  0.0129  0.0940
92353W        W29847   0.285  11.404   2.944 -0.0255  0.1677  0.1922
92354W        W29848  16.839  20.022  25.149 -0.3074 -0.2446 -0.1838
92355W        W29849  20.895  19.118   5.204 -0.0596  0.1553 -0.1069
92356W        W29850   1.011  15.063  11.064 -0.0336  0.3690 -0.0404
92357W        W29851  30.210   1.425  17.679 -0.0468 -0.0744 -0.2536
92358W        W29852  29.356  11.541   9.631  0.0501  0.0845  0.2104
92359W        W29853  29.663  18.801  14.087 -0.0674 -0.2157  0.3917
92360W        W29854  30.935   7.591   1.328 -0.0884 -0.1907  0.2592
92361W        W29855  12.524   0.042  11.012 -0.0269 -0.1019 -0.0531
92362W        W29856  19.887  27.362  21.471  0.2204  0.0047  0.1991
92363W        W29857  24.229   9.575  17.554 -0.0611 -0.0270 -0.1401
92364W        W29858  21.768   1.029  23.699  0.2064  0.0510 -0.0389
92365W        W29859  32.253  10.726  19.120  0.0966  0.2289  0.1466
92366W        W29860  25.612  32.698   4.169  0.1333  0.2643  0.1846
92367W        W29861  19.121  32.630  18.015 -0.0431  0.0927  0.0172
92368W        W29862  26.544  31.347  15.045  0.2525 -0.0803  0.2911
92369W        W29863  17.963  29.436   5.062  0.0353 -0.0674 -0.0041
92370W        W29864  34.037   9.748  23.684  0.0602 -0.0033  0.1699
92371W        W29865   6.958   4.302  26.034  0.2915 -0.1248  0.0776
92372W        W29866  23.642  32.855   0.112  0.0254  0.1304  0.0844
92373W        W29867   7.739   5.786   7.425  0.1227 -0.1610  0.0489
92374W        W29868  12.810  14.120   1.748 -0.2536  0.4328  0.0020
92375W        W29869  34.267   1.603  18.477 -0.0763 -0.1297 -0.1378
92376W        W29870  29.368  33.082   4.186 -0.1362 -0.0530 -0.0953
92377W        W29871   5.341  31.937  25.375  0.0002  0.0720 -0.0375
92378W        W29872   9.919  10.193   1.983  0.1301  0.1214 -0.1580
92379W        W29873   3.406   7.167   6.682 -0.3390 -0.1576 -0.3922
92380W        W29874  19.088   8.870  24.855 -0.0140 -0.1592 -0.0380
92381W        W29875  11.820   6.013   3.949  0.1717 -0.1617 -0.0747
92382W        W29876  26.623   5.889   0.966  0.1058 -0.1553  0.2722
92383W        W29877   3.362  14.784  21.451 -0.2725  0.0909  0.2585
92384W        W29878   8.482  17.748  21.819 -0.1435 -0.1317  0.2970
92385W        W29879   5.136  33.127   8.408  0.0985  0.0652  0.0640
92386W        W29880  18.589  28.840  19.649 -0.1698  0.1202 -0.0617
92387W        W29881  20.264  30.873  20.827 -0.0465 -0.3711 -0.1318
92388W        W29882  21.776  19.658  24.063  0.1148 -0.0329 -0.2426
92389W        W29883  11.751  22.140  24.571 -0.0694 -0.2471 -0.1205
92390W        W29884   8.644  26.695   3.274 -0.0557  0.3852 -0.1394
92391W        W29885  24.800  16.929   9.495  0.2325 -0.0097  0.1732
92392W        W29886  14.160   6.948  18.986  0.1284 -0.2077 -0.3038
92393W        W29887  12.913  11.440  10.920  0.2191  0.2536  0.0296
92394W        W29888  26.923   0.586  25.526 -0.0397  0.2630  0.0250
92395W        W29889  25.924  35.165   1.340 -0.0902  0.1158 -0.2264
92396W        W29890  25.167   4.989  25.806 -0.0268  0.0131  0.0152
92397W        W29891  20.384  32.094  23.900  0.1585 -0.2393  0.0597
92398W        W29892  14.006  16.335   3.281  0.2191  0.4751 -0.0456
92399W        W29893  11.320   9.295  13.910 -0.0983  0.1057 -0.1561
92400W        W29894  16.742  15.132   6.497 -0.1044 -0.0726 -0.0388
92401W        W29895   8.803  27.602  22.416  0.2738  0.0497 -0.3343
92402W        W29896   2.480  28.134  20.939 -0.0909  0.0765 -0.1340
92403W        W29897  18.030  28.559  24.240 -0.1787  0.2459 -0.1308
92404W        W29898  31.962  28.606  17.415 -0.2137  0.3666 -0.2505
92405W        W29899  11.518  20.488   5.507  0.0627  0.4306 -0.0242
92406W        W29900  14.092  14.719   1.682  0.3574  0.1182  0.2611
92407W        W29901  26.102  27.453  21.330 -0.0993  0.0370  0.1144
92408W        W29902  15.331   8.016  11.316  0.3409  0.0418  0.0397
92409W        W29903   8.792  16.598   6.001 -0.0797  0.2494  0.0359
92410W        W29904  21.425   5.145   7.465  0.0916  0.2650  0.2190
92411W        W29905  31.578  22.332   8.942 -0.0708  0.1638 -0.0168
92412W        W29906  31.428  19.514  10.690 -0.1990 -0.0952  0.3229
92413W        W29907  13.902  15.508  11.595 -0.1016 -0.0732  0.2060
92414W        W29908   2.680   7.234  17.387 -0.3442  0.1812 -0.1605
92415W        W29909  15.681  28.451  14.020  0.1050 -0.1566  0.4540
92416W        W29910   2.550   0.465  25.146  0.1430  0.0949 -0.0026
92417W        W29911  15.300  28.753  10.045  0.2179  0.0956  0.0137
92418W        W29912  10.108  26.511  16.548  0.0340  0.0901 -0.1920
92419W        W29913  11.122   9.114   9.105 -0.2292  0.1803 -0.2936
92420W        W29914  17.433  12.162  12.520 -0.1291 -0.0738  0.0167
92421W        W29915  20.236  12.777   2.496  0.0618 -0.0496 -0.0850
92422W        W29916  15.029   6.024   0.678  0.1417 -0.0431 -0.2695
92423W        W29917   1.747  17.281  18.994  0.1188 -0.0773 -0.1306
92424W        W29918  18.135   2.917   8.161 -0.1003 -0.2938  0.0878
92425W        W29919  13.492  15.575  21.656  0.3537  0.0510 -0.6695
92426W        W29920  17.466  33.008   9.759  0.0037  0.0770 -0.1824
92427W        W29921   7.703   3.627   8.679  0.1441  0.3799  0.0427
92428W        W29922  15.594   9.448  19.057  0.0245 -0.2522  0.2751
92429W        W29923  27.690  25.447  20.073  0.0449 -0.0669 -0.0726
92430W        W29924  14.991   2.341  10.256 -0.0594 -0.2235  0.1239
92431W        W29925  16.729  25.988  25.607  0.1478  0.1249  0.0064
92432W        W29926   2.871  23.789  24.845 -0.2420 -0.0734 -0.0488
92433W        W29927  10.379  20.320   2.384 -0.1278  0.0999  0.0865
92434W        W29928   2.288  25.969   2.558 -0.0872  0.2351  0.2647
92435W        W29929   2.003  29.661   4.373  0.0133 -0.2208  0.0149
92436W        W29930  13.907  16.753   4.010 -0.0957  0.2103 -0.0419
92437W        W29931  35.108  18.112  20.281  0.0109  0.2229  0.0966
92438W        W29932  17.561  23.942  25.154 -0.1422  0.1158 -0.1396
92439W        W29933   0.055  21.581  26.182  0.1883 -0.1709 -0.0208
92440W        W29934  23.195  29.003  12.671 -0.0221 -0.1191  0.2803
92441W        W29935  16.791  20.369   0.315  0.0861  0.0082  0.1598
92442W        W29936  32.359  14.576   7.962 -0.1463  0.1424  0.0364
92443W        W29937   9.918   3.895  14.147 -0.2763 -0.1121 -0.0621
92444W        W29938  17.518   3.988   9.296  0.0720  0.0819  0.1229
92445W        W29939  31.823  13.704  14.974 -0.0147 -0.1135 -0.2530
92446W        W29940  31.770   2.092  15.383 -0.4183 -0.2556 -0.1674
92447W        W29941  19.523   4.334  21.976  0.1785 -0.2030  0.1821
92448W        W29942  16.761   0.491   9.379  0.2575  0.0476  0.0532
92449W        W29943  25.136   2.447   5.407 -0.0923 -0.0230  0.2377
92450W        W29944   1.976  18.115  23.286  0.1117 -0.1422  0.1279
92451W        W29945  22.373  13.845  22.284  0.1967 -0.0427  0.1109
92452W        W29946   8.733  28.012   3.549 -0.0628 -0.1018  0.0579
92453W        W29947  34.236   8.878  13.932  0.1040 -0.0958 -0.1635
92454W        W29948   2.763   1.384  19.872  0.0738 -0.2058 -0.3273
92455W        W29949  12.320  19.949  10.495 -0.0540  0.1595 -0.1762
92456W        W29950  21.942   5.000  22.817 -0.0780  0.0687  0.0296
92457W        W29951  35.133   6.427  13.356 -0.0770  0.4294 -0.1277
92458W        W29952  30.966  24.324  23.415 -0.1564 -0.0714 -0.2799
92459W        W29953  16.814  17.651  26.159 -0.0425  0.2009 -0.2303
92460W        W29954  25.652  22.649  10.519 -0.1102  0.3235 -0.1157
92461W        W29955  10.204   7.529  23.249  0.2469  0.0410 -0.2352
92462W        W29956  27.388   6.694  19.708  0.1307  0.1901  0.2647
92463W        W29957   5.065  20.404   0.950  0.0923  0.4414  0.1788
92464W        W29958  32.729  16.704  21.219 -0.1193 -0.1060 -0.0467
92465W        W29959   3.587  27.717  25.943 -0.1024 -0.1193  0.1952
92466W        W29960  23.559  21.571  23.384 -0.1170 -0.1227 -0.4227
92467W        W29961  31.835   7.992   2.769  0.2085 -0.0765 -0.1369
92468W        W29962  26.537  26.165   2.234  0.0436 -0.2002  0.2556
92469W        W29963  26.042  25.155   1.015  0.1188 -0.1404 -0.1373
92470W        W29964   9.765  33.332   7.713  0.0137  0.2062 -0.1569
92471W        W29965  30.100  16.266  12.474 -0.1806  0.0528 -0.5581
92472W        W29966  33.757  13.643   8.088  0.4524 -0.0087 -0.0153
92473W        W29967  35.253  17.543  25.256  0.2534  0.2689  0.3444
92474W        W29968  16.530  34.415  21.301 -0.0359 -0.0396  0.4154
92475W        W29969  18.646  24.223   1.029  0.0592 -0.1294  0.1420
92476W        W29970  19.951   1.828  19.734 -0.0210  0.3911 -0.0766
92477W        W29971  21.308   7.406  20.966  0.1758  0.0831 -0.1885
92478W        W29972  31.005   6.509  17.005 -0.0791  0.0986 -0.2033
92479W        W29973  24.602  31.251  11.258  0.0081 -0.2661  0.3377
92480W        W29974  22.828   2.594   3.044  0.0517 -0.0707  0.0465
92481W        W29975  10.500  13.841   8.882 -0.3163  0.0748 -0.2093
92482W        W29976   9.388   9.580  13.839  0.0225  0.2735  0.0927
92483W        W29977  28.867   3.113  25.444 -0.1775 -0.0046 -0.0680
92484W        W29978  23.076  33.609  15.438  0.2769  0.1493 -0.2112
92485W        W29979  14.610  17.511   3.463 -0.0335  0.1781  0.1088
92486W        W29980  22.461   5.603  17.907 -0.3016  0.0018  0.2743
92487W        W29981  32.256   5.208  12.935 -0.3673  0.0552  0.2127
92488W        W29982  34.454   3.671  14.730  0.2372  0.0165  0.1210
92489W        W29983   8.705  22.367   1.220 -0.0560  0.1370  0.0020
92490W        W29984  19.199  14.100  23.868  0.1344  0.0324 -0.1910
92491W        W29985  21.980  15.946  14.846 -0.0439 -0.1613 -0.0212
92492W        W29986  21.186  16.309   5.806  0.0755 -0.2658  0.1998
92493W        W29987  32.128  16.882  16.246  0.0736  0.2674  0.0127
92494W        W29988  31.598  27.954  20.766  0.3318  0.0838  0.0635
92495W        W29989  29.562  26.867  21.759 -0.0302  0.0126  0.1592
92496W        W29990  16.153  21.694  23.286 -0.1129  0.1461  0.0087
92497W        W29991  34.231   3.830   1.988 -0.0726  0.1396  0.3196
92498W        W29992  26.349  15.232  17.211 -0.3636 -0.5117 -0.2207
92499W        W29993  24.084  22.132   2.329 -0.3058  0.1627  0.2703
92500W        W29994  24.531  27.763   2.945  0.1442 -0.3316 -0.4054
92501W        W29995  35.263  26.312   0.713  0.0716 -0.1736 -0.2865
92502W        W29996  26.140  31.492  14.811 -0.4003 -0.2838 -0.0050
92503W        W29997  26.248   7.781   0.224  0.2637  0.0610 -0.3393
92504W        W29998   3.194   7.860  18.425 -0.1251  0.3398 -0.0176
92505W        W29999   8.424  29.911   1.996 -0.1916 -0.1288  0.1072
92506W        W30000   3.189   2.204  21.917  0.2640  0.1200  0.3844
92507W        W30001  17.219  33.905  18.048  0.1641 -0.0571 -0.0012
92508W        W30002  17.317  21.957   7.445  0.0406  0.1636 -0.0847
92509W        W30003  10.840   7.761   3.445 -0.2242  0.0091  0.1342
92510W        W30004   4.870   4.198   9.686  0.3147 -0.2829 -0.0148
92511W        W30005   9.011  19.606  20.605  0.2952  0.0190  0.0409
92512W        W30006  25.948  11.510  12.175  0.3108  0.0388 -0.2514
92513W        W30007  14.060  18.118  10.090 -0.1526  0.1260  0.0089
92514W        W30008   5.466   9.527   4.390 -0.1482 -0.0113  0.1936
92515W        W30009  25.374   4.024  25.885 -0.0249  0.2376  0.2804
92516W        W30010  35.183  31.541  22.358  0.1396 -0.3619 -0.2753
92517W        W30011  29.693   7.305  13.237 -0.1016 -0.0427 -0.0465
92518W        W30012   1.598  15.996  23.433 -0.0252  0.1101 -0.2064
92519W        W30013   5.637  19.729  23.118  0.3671 -0.1073 -0.0355
92520W        W30014   1.145   1.974  21.353 -0.0222 -0.3775 -0.0528
92521W        W30015   3.924  32.088   3.971  0.1684  0.0759 -0.0871
92522W        W30016  27.995   3.569  10.826 -0.3144 -0.0322 -0.2491
92523W        W30017  19.382  23.631   2.989 -0.1976  0.0391 -0.2755
92524W        W30018  16.797   1.391   1.812  0.1009  0.1705  0.1317
92525W        W30019  21.902  29.284  12.451 -0.5793 -0.3648  0.3858
92526W        W30020  28.014  28.509  14.561  0.3144  0.1659 -0.0963
92527W        W30021   0.831  21.239  23.903  0.1853 -0.0155  0.3619
92528W        W30022  17.493  10.320  24.532  0.1911 -0.1774  0.0101
92529W        W30023   0.399  27.172   0.833 -0.0727 -0.0408  0.0019
92530W        W30024  29.539  25.813  16.778 -0.0207 -0.2226 -0.0274
92531W        W30025  17.542   2.263  19.340 -0.0603 -0.2242  0.1477
92532W        W30026  15.651  24.446   5.343  0.0478  0.2415 -0.1176
92533W        W30027  28.877  11.821  18.140 -0.1320 -0.1249  0.0687
92534W        W30028  18.042  17.066   8.804 -0.0679 -0.0312 -0.0391
92535W        W30029  29.468  18.242   7.602 -0.1487  0.0657 -0.3164
92536W        W30030  11.384  34.363   8.661 -0.0699  0.0305 -0.1925
92537W        W30031   1.914   6.679  25.255 -0.1524 -0.1556  0.0887
92538W        W30032  31.584   4.326  13.990 -0.3000  0.0248  0.3233
92539W        W30033  22.935  29.422  17.246 -0.0816 -0.1820 -0.1580
92540W        W30034  23.847  29.561  17.545 -0.3725 -0.1681  0.2262
92541W        W30035  10.896   2.535  24.347  0.2548  0.1484 -0.0591
92542W        W30036  31.071  11.106  18.733 -0.3002  0.0200  0.0565
92543W        W30037  29.446  26.623  16.881 -0.1518  0.2335 -0.0662
92544W        W30038  25.625  34.078  24.898 -0.2173 -0.3901  0.0354
92545W        W30039  14.734   5.111  19.190 -0.0988 -0.0818 -0.4048
92546W        W30040  10.524  13.874  13.935 -0.1948 -0.2663  0.1775
92547W        W30041  17.727  22.086  12.795  0.1042 -0.2570  0.0875
92548W        W30042  26.524   7.817  17.774 -0.2763 -0.3200 -0.2853
92549W        W30043  30.775  12.976  15.485 -0.1482 -0.3250 -0.3065
92550W        W30044  12.375  27.371  11.545  0.0222  0.0839 -0.1644
92551W        W30045  15.860  12.902  24.443 -0.0523  0.1179 -0.2619
92552W        W30046  20.263  30.961   3.670  0.1239 -0.2048 -0.0390
92553W        W30047   8.860   3.025   8.875 -0.3099  0.0549 -0.1091
92554W        W30048   1.061  26.565  17.937  0.0089 -0.0301 -0.0605
92555W        W30049  20.887  12.778   0.054  0.3642 -0.0020  0.0114
92556W        W30050  19.643  11.089   8.417  0.1818 -0.2228  0.0600
92557W        W30051   7.959  14.156  17.649 -0.0104  0.0663  0.4388
92558W        W30052  30.922  31.500  19.885  0.0684 -0.0491 -0.0083
92559W        W30053  23.272   1.727   5.801 -0.1027 -0.2429  0.2518
92560W        W30054   4.397   3.530  17.555 -0.3505 -0.0149 -0.0091
92561W        W30055  10.984  26.310  25.196 -0.0667  0.4766 -0.0973
92562W        W30056  32.537  28.104  16.287  0.0318 -0.3615 -0.5385
92563W        W30057  17.744   6.177   7.273 -0.2601  0.0817  0.1819
92564W        W30058  34.478  27.938  25.881 -0.0977 -0.3848  0.0413
92565W        W30059  12.263   0.086  20.692  0.0074 -0.0577  0.0793
92566W        W30060  29.130  24.468  13.731 -0.2240 -0.2052 -0.2400
92567W        W30061  33.613  11.467  16.623  0.2185 -0.1689 -0.1628
92568W        W30062  31.245  31.325  21.135 -0.0872 -0.1041 -0.1935
92569W        W30063  19.113  33.216   1.912  0.0350  0.1229  0.0771
92570W        W30064   9.970  18.388   9.136  0.0352  0.1137  0.2138
92571W        W30065   7.829  29.256  24.291 -0.4475  0.3177 -0.0842
92572W        W30066  30.003  15.137  15.630 -0.0601 -0.1696  0.1516
92573W        W30067  20.293  30.886   1.503  0.1287  0.1115  0.0416
92574W        W30068  16.310   6.559  19.668  0.1262  0.0209 -0.2237
92575W        W30069  16.731  15.877   9.726  0.2289  0.0694  0.0350
92576W        W30070   3.216  23.219  16.325  0.1280 -0.2497 -0.3926
92577W        W30071  18.658   8.262  18.765  0.0231  0.0748  0.1029
92578W        W30072  20.284   7.477   7.940  0.2184 -0.1500  0.2608
92579W        W30073  25.239  29.242  22.308 -0.2669  0.0642  0.0435
92580W        W30074  26.422  10.544  15.508  0.0039 -0.3739  0.0235
92581W        W30075   0.559  28.185  19.400  0.1727  0.1093 -0.0743
92582W        W30076  26.075  16.305  18.722  0.1737  0.1448  0.1155
92583W        W30077  29.205   3.122  13.622 -0.0023 -0.0168  0.0435
92584W        W30078  19.297  31.470  16.950 -0.0921 -0.2482 -0.1827
92585W        W30079  11.748  19.079   5.880  0.0100  0.2428  0.0555
92586W        W30080   4.841  22.955   1.445 -0.0551 -0.0696 -0.2414
92587W        W30081  10.195  28.841  12.489 -0.0959 -0.1754  0.2069
92588W        W30082  27.515  20.583  11.493 -0.1456 -0.0017 -0.1025
92589W        W30083  23.671   3.459  24.648  0.3430  0.1315 -0.1035
92590W        W30084   3.899   7.585   1.619  0.0524 -0.0537 -0.1693
92591W        W30085   2.669  10.463  15.698  0.1845  0.5199  0.2079
92592W        W30086  29.468  24.060  23.455 -0.0113  0.3189 -0.0057
92593W        W30087   5.805  20.771   0.496  0.2547  0.2350  0.1248
92594W        W30088  18.391   6.770   0.814 -0.1974 -0.2494 -0.1382
92595W        W30089  28.165   4.961  12.096  0.2685  0.0515 -0.0399
92596W        W30090  27.028  33.462  21.854 -0.0800 -0.0879 -0.0498
92597W        W30091   5.049  14.386  24.214  0.2690  0.0488  0.4021
92598W        W30092   6.929   9.116   2.927 -0.0369  0.2509  0.0164
92599W        W30093  31.910  28.431  14.920  0.1268 -0.0089  0.1898
92600W        W30094  23.809  32.059  25.782 -0.0061 -0.2024 -0.0347
92601W        W30095   2.625  28.837   9.314  0.0289 -0.2756 -0.0596
92602W        W30096  32.340  13.164  23.254 -0.1573 -0.1697  0.0740
92603W        W30097   2.154  27.685  17.746  0.2286  0.2309 -0.1276
92604W        W30098  25.359   7.869  14.952 -0.2721  0.0507  0.2334
92605W        W30099   5.844  18.549  17.920 -0.1153 -0.2121  0.0630
92606W        W30100  20.101  19.106   1.267  0.3069 -0.0351 -0.0575
92607W        W30101   9.526   6.789   7.650 -0.0869  0.0691  0.0740
92608W        W30102  11.673  24.854  13.074  0.1660  0.0405  0.0520
92609W        W30103  11.444  13.774   1.062  0.1495  0.1953 -0.2379
92610W        W30104  29.974  23.671  22.195  0.2441  0.0650 -0.0071
92611W        W30105   3.913   3.601  17.738  0.2453  0.1119 -0.2095
92612W        W30106   2.469  13.754  13.613 -0.1890  0.0515 -0.2196
92613W        W30107   6.439   1.092   5.451  0.2801 -0.3070  0.2537
92614W        W30108  30.699  13.304   6.304  0.1635  0.0326 -0.0322
92615W        W30109  15.325  11.968  13.404  0.1085  0.1207  0.0548
92616W        W30110  13.870  15.763   4.121 -0.1844 -0.1535  0.1126
92617W        W30111  10.025  18.652   7.401  0.1207  0.0227  0.2412
92618W        W30112   3.948  33.170  22.860  0.1371 -0.3629  0.2135
92619W        W30113   3.979  15.508  18.549  0.0091 -0.0090  0.0469
92620W        W30114  32.056  18.992  20.527 -0.0476 -0.0837 -0.2642
92621W        W30115  20.637  17.398  21.240 -0.3197 -0.4073 -0.0054
92622W        W30116  12.882  17.920  23.779 -0.0129  0.0435  0.1761
92623W        W30117   8.141  21.111  11.347 -0.3710 -0.1981  0.2700
92624W        W30118  21.167   9.730   3.762 -0.0021  0.3215 -0.0075
92625W        W30119   4.318  19.096  22.112  0.0384  0.2288  0.1063
92626W        W30120  23.790   8.499  23.210  0.1136  0.1115  0.1543
92627W        W30121  20.596  23.344   5.184  0.1902 -0.4943 -0.0207
92628W        W30122   4.211  10.022   0.103  0.0513  0.1157  0.3845
92629W        W30123   3.124  26.375  21.266  0.0276 -0.0615 -0.0665
92630W        W30124  28.694  27.694  17.165  0.2062  0.1340 -0.1160
92631W        W30125   4.516  29.477   5.702 -0.4438 -0.1061 -0.3646
92632W        W30126  15.767  18.965   2.685 -0.0860 -0.1619  0.0876
92633W        W30127  13.903  29.388   5.438  0.1641  0.0566 -0.0258
92634W        W30128  16.550  15.108  22.050  0.2791 -0.1771 -0.1618
92635W        W30129  25.662  21.059  22.616 -0.1284  0.0718 -0.0458
92636W        W30130  31.143  15.782  19.606  0.2585  0.1514  0.0245
92637W        W30131  34.871   9.464   3.031 -0.0831 -0.3931 -0.0780
92638W        W30132  32.403   6.587  25.655  0.1829  0.0063  0.2115
92639W        W30133   6.451  25.166  21.935  0.0716  0.0931 -0.0100
92640W        W30134   5.048  11.624   4.536 -0.2042  0.1125  0.4108
92641W        W30135  12.713   1.488   1.877 -0.2780 -0.1466  0.4154
92642W        W30136  30.539  23.971  14.111  0.0438  0.0401  0.1328
92643W        W30137  28.198  29.948  21.195  0.0919  0.0230  0.0936
92644W        W30138   7.679   4.174   0.379 -0.0529 -0.1334  0.4858
92645W        W30139  12.866  33.015   7.296 -0.3451  0.0657 -0.1413
92646W        W30140  21.230  29.861  19.141 -0.0563  0.0118  0.1128
92647W        W30141  11.033  16.492  24.463  0.2319 -0.0947  0.0774
92648W        W30142  27.701  18.573   5.528 -0.0414  0.0985 -0.2667
92649W        W30143  15.227  21.699   8.134  0.1590  0.1699 -0.1374
92650W        W30144  16.162  17.990  24.253 -0.1542  0.1694 -0.0777
92651W        W30145  20.340   3.455  23.291 -0.0478  0.1223 -0.3512
92652W        W30146  28.569  16.238  13.647 -0.4106 -0.1704 -0.0237
92653W        W30147  12.474  29.327   5.312 -0.2046 -0.2218 -0.4529
92654W        W30148  10.020  15.411   8.710 -0.2476 -0.1434 -0.0543
92655W        W30149  23.549  29.453  24.857 -0.1205 -0.0422  0.1294
92656W        W30150   4.886  30.712  26.222 -0.1217 -0.5531  0.2286
92657W        W30151  30.768  25.310  13.540  0.1401 -0.1499 -0.2155
92658W        W30152  18.094   3.889   7.686  0.1625 -0.0708 -0.0026
92659W        W30153   9.756  31.461  14.924 -0.0787  0.0991  0.3639
92660W        W30154   5.815  20.295  23.340 -0.0288  0.1707 -0.0147
92661W        W30155   7.589  10.759   8.268  0.0776 -0.0751 -0.0968
92662W        W30156  19.273   4.919  22.312 -0.3963  0.2543 -0.1062
92663W        W30157  34.042  22.826  11.156 -0.2257  0.0918  0.3264
92664W        W30158  19.636  28.900   8.279  0.1952 -0.0599  0.0160
92665W        W30159  20.576  30.213  18.210 -0.4350  0.0180 -0.2050
92666W        W30160   3.867   1.116   4.465  0.2382 -0.2412  0.2971
92667W        W30161  13.414  20.271   0.375 -0.3130 -0.2132  0.1838
92668W        W30162   0.997  12.853  15.515  0.0012 -0.0905 -0.1365
92669W        W30163   3.296  20.673  15.362 -0.2608  0.1427 -0.0301
92670W        W30164  34.393  20.749  21.326 -0.1491  0.1433 -0.1017
92671W        W30165  23.009  17.208  16.393 -0.4138  0.3384  0.1477
92672W        W30166  15.412  26.724   4.649 -0.0821  0.1280 -0.0592
92673W        W30167   1.473  12.484  25.687 -0.1767 -0.4141 -0.0475
92674W        W30168  13.794   6.506   5.679 -0.0935 -0.0096 -0.1610
92675W        W30169  29.219  12.175  16.193  0.2072 -0.2181  0.0832
92676W        W30170   2.753   7.023  15.836  0.1163  0.3015  0.3468
92677W        W30171   7.856  10.528   7.404 -0.1207 -0.1026 -0.2906
92678W        W30172  20.760  16.450   4.512 -0.1635 -0.0568  0.1863
92679W        W30173  29.066  24.544  19.878 -0.2323 -0.1209 -0.2875
92680W        W30174  31.429  33.271  15.555  0.1464  0.2917  0.0618
92681W        W30175  22.624   7.204  17.114  0.0692  0.1911  0.0527
92682W        W30176  10.760   8.206  21.692  0.0801 -0.1301  0.2987
92683W        W30177  31.190   7.195  10.063 -0.1367  0.3832  0.1936
92684W        W30178  29.377  17.721  14.797 -0.0607  0.2543 -0.1625
92685W        W30179  31.280  15.644  16.027  0.1946 -0.3297  0.0901
92686W        W30180  29.203  19.147  22.533  0.1692  0.0388  0.2980
92687W        W30181  24.963   4.737  26.227 -0.2501  0.0329  0.2570
92688W        W30182  26.403   1.667  12.508 -0.2115  0.0395 -0.1018
92689W        W30183   6.792   0.073  12.641 -0.0124 -0.1026 -0.0240
92690W        W30184  18.376  19.627  12.432 -0.5258 -0.2664  0.0573
92691W        W30185  31.014  18.621  21.722  0.1760  0.1370  0.3160
92692W        W30186  21.741  19.647  16.334  0.4149  0.1564  0.0538
92693W        W30187  16.042  32.637  11.906 -0.0519  0.0312 -0.1980
92694W        W30188   2.259  34.301   5.902 -0.1767  0.0855 -0.2531
92695W        W30189   9.272  19.083   4.254  0.0510  0.0426 -0.3983
92696W        W30190  11.067  19.638  12.581  0.0668  0.0108 -0.2891
92697W        W30191  33.535   8.989  20.733 -0.0838 -0.0758 -0.1812
92698W        W30192  14.347  30.376   9.822 -0.2306 -0.3811 -0.4574
92699W        W30193  15.470  25.513  22.896 -0.2289 -0.0265 -0.0367
92700W        W30194  32.883  20.265  16.642 -0.5037 -0.0354 -0.0762
92701W        W30195  16.932  28.835   7.948  0.0733  0.2321 -0.0697
92702W        W30196  31.415  14.289  19.754  0.0734  0.0381  0.0768
92703W        W30197  31.762  30.178   3.236 -0.0242  0.2438 -0.1118
92704W        W30198  24.452  33.496   1.539  0.0953 -0.2369 -0.0003
92705W        W30199  19.408  31.235  25.838  0.1251 -0.0598  0.0131
92706W        W30200  32.086   0.898   5.874  0.0718  0.3184  0.0055
92707W        W30201  32.160  27.041  23.211 -0.1778  0.0780 -0.0184
92708W        W30202  21.363  27.864  16.391 -0.1354 -0.0373  0.2022
92709W        W30203   1.237   7.682  21.156 -0.1061 -0.0513  0.1439
92710W        W30204  18.470   3.065   2.002 -0.2360 -0.0531 -0.0551
92711W        W30205   9.030   7.992  20.602 -0.0512 -0.3840  0.0928
92712W        W30206  24.392   3.981  25.766 -0.2423  0.0456  0.3375
92713W        W30207  34.579   4.112  12.248  0.0157 -0.3694  0.0506
92714W        W30208  28.561  25.910   1.042 -0.3567  0.0683  0.1124
92715W        W30209   2.210  22.254   3.044  0.0621 -0.1030 -0.2788
92716W        W30210  34.601  25.329   1.472  0.2853 -0.2159  0.1513
92717W        W30211  33.377  20.737  19.997  0.1143  0.1059 -0.1443
92718W        W30212  31.250  22.824  15.148 -0.1021  0.0654  0.2320
92719W        W30213  17.307  17.828   4.169  0.2513  0.2693 -0.1467
92720W        W30214  26.441  29.521  13.991 -0.1155 -0.2757  0.0812
92721W        W30215  18.305  16.396  26.233  0.2321  0.1871 -0.1170
92722W        W30216  31.088  31.650  15.291 -0.0737  0.1652 -0.1288
92723W        W30217   2.307  30.468  22.379 -0.2776 -0.0870  0.0464
92724W        W30218  12.863  17.134   9.385 -0.1776  0.1061  0.0421
92725W        W30219   8.580  27.306  21.412  0.2253 -0.4815 -0.2636
92726W        W30220  10.114  30.820   8.935 -0.1744 -0.2327 -0.0715
92727W        W30221  29.905  16.574  10.233 -0.1069  0.0867 -0.0439
92728W        W30222  31.376   4.213   1.867 -0.2635 -0.3517  0.1164
92729W        W30223   9.589   2.621  11.058 -0.0687 -0.0947 -0.3312
92730W        W30224  23.658   7.306  16.451 -0.3047 -0.1720  0.4655
92731W        W30225  29.588  30.234  16.766 -0.0469  0.2293 -0.1019
92732W        W30226   8.329  16.609   7.245  0.0444 -0.2933 -0.0890
92733W        W30227   2.397  25.157  16.927 -0.1290 -0.2290  0.0366
92734W        W30228  30.340  28.238  18.238  0.0773  0.0794  0.1452
92735W        W30229  15.616   2.080  17.608  0.0526  0.0830 -0.2954
92736W        W30230   5.468  15.247   8.601 -0.1256  0.1083 -0.0649
92737W        W30231  17.447   9.242  24.952  0.1889  0.1849  0.1106
92738W        W30232  13.371  12.283  12.351  0.1757  0.2654  0.1500
92739W        W30233  25.335  23.058  16.078  0.1285 -0.1688  0.0919
92740W        W30234   3.173  28.386  22.729  0.1735 -0.0490  0.0752
92741W        W30235  29.725  11.885   7.904 -0.2811 -0.2672  0.0656
92742W        W30236  19.368  15.154  22.455  0.1732  0.1464 -0.1216
92743W        W30237   8.557   4.978   3.564 -0.1263  0.2568  0.0991
92744W        W30238  10.281  18.138   1.380  0.2093 -0.0217  0.2511
92745W        W30239  25.585  30.207   0.869  0.2993  0.1771  0.3747
92746W        W30240   6.220  25.813  22.793  0.1680 -0.1483  0.0357
92747W        W30241   8.496   5.555   1.810  0.0506  0.0638  0.1110
92748W        W30242  33.317   1.030   0.813 -0.1084  0.0877  0.1067
92749W        W30243   7.694  14.977   5.578 -0.0947  0.2153  0.0192
92750W        W30244  31.227  26.775   2.519  0.0140  0.0929 -0.0323
92751W        W30245  13.994  34.753   5.907  0.0210 -0.0511  0.2209
92752W        W30246  29.762  16.778   6.820 -0.2001  0.1025 -0.3290
92753W        W30247  14.471  17.132  10.934 -0.2457 -0.0902 -0.3460
92754W        W30248  31.022  23.468  12.834  0.2971 -0.1227 -0.0107
92755W        W30249   0.015  18.542  24.624 -0.0742 -0.0873 -0.2274
92756W        W30250  28.653   8.371  10.460  0.0383 -0.0522 -0.0293
92757W        W30251  27.348  10.955  15.515  0.3136 -0.2436 -0.0249
92758W        W30252   6.855  11.608   1.592 -0.0123 -0.3416 -0.2258
92759W        W30253   5.887  35.274   0.563 -0.1890  0.0376 -0.1065
92760W        W30254  20.574  23.307  20.972 -0.1649 -0.1377 -0.2164
92761W        W30255  26.991  14.969  15.493  0.2772 -0.0745 -0.2434
92762W        W30256   4.645  29.018   3.123  0.1531  0.0332  0.2594
92763W        W30257  23.687  28.958   4.628 -0.1181 -0.0784 -0.1138
92764W        W30258   0.085   8.389   4.214 -0.0899 -0.2727  0.0891
92765W        W30259  10.727  32.808   3.972  0.0511  0.1789 -0.0955
92766W        W30260  17.564  26.956   2.971  0.1795  0.2948 -0.0681
92767W        W30261  34.467  23.653  14.421  0.0041 -0.1074 -0.2910
92768W        W30262  11.277  31.182  25.221 -0.1044  0.4313 -0.4296
92769W        W30263  25.399   0.119   5.664 -0.1006  0.1586 -0.1271
92770W        W30264  17.694  10.102  25.394 -0.2863 -0.0855  0.0096
92771W        W30265  14.179  32.141  11.600 -0.1967 -0.2031 -0.2076
92772W        W30266  12.704  30.039   1.906  0.2721 -0.0120 -0.2626
92773W        W30267  33.240  27.974  21.959 -0.0027 -0.2672 -0.0666
92774W        W30268  11.281  12.081  14.263 -0.1606  0.0031 -0.3481
92775W        W30269  29.530   6.054  24.753  0.3897  0.0741  0.3318
92776W        W30270  34.084  31.369  17.898 -0.2770 -0.0954  0.0165
92777W        W30271  31.772   8.468  25.833 -0.1111 -0.1334  0.1558
92778W        W30272  16.616  31.252  10.981 -0.0238 -0.3227  0.0930
92779W        W30273  16.165  24.233  25.240  0.1238 -0.2462  0.3867
92780W        W30274  19.332   6.589   2.727 -0.0025  0.1263  0.0424
92781W        W30275  12.222   7.928   4.408  0.0585 -0.1644  0.0714
92782W        W30276  16.549   5.225   9.546 -0.1481 -0.6094 -0.2197
92783W        W30277  29.057  21.338  23.174 -0.0542  0.2340  0.2570
92784W        W30278   5.020   2.941   2.800 -0.1752 -0.0638  0.3241
92785W        W30279  28.780  24.816   7.141  0.0042 -0.1885  0.2498
92786W        W30280   1.996   5.983  23.290  0.0570 -0.4260  0.1031
92787W        W30281   7.414  29.005  24.933  0.0526  0.1979 -0.0194
92788W        W30282  22.030   8.352   1.122 -0.0450  0.0127 -0.3484
92789W        W30283   3.798  19.430  20.497 -0.0682 -0.1348  0.1608
92790W        W30284  10.807  14.093   1.894  0.1370  0.0344 -0.0908
92791W        W30285   6.962  11.147  23.826 -0.0704 -0.4173 -0.0420
92792W        W30286  15.042  27.105  14.013 -0.1601  0.0258  0.0702
92793W        W30287  24.094  26.416  23.732  0.2178 -0.0478  0.3555
92794W        W30288   5.702   4.993  18.937 -0.1166 -0.0726 -0.2063
92795W        W30289  24.694  28.096   9.917  0.2188 -0.0246  0.2333
92796W        W30290  31.156  21.894  18.621 -0.1337  0.0212 -0.1488
92797W        W30291   2.407  32.851  17.379 -0.2015 -0.0316 -0.1229
92798W        W30292  25.716  11.623   8.109  0.0016  0.1155 -0.0423
92799W        W30293  19.831   4.360   5.971  0.1408  0.0539  0.1180
92800W        W30294  34.779  30.903  20.055  0.0103  0.1852  0.2291
92801W        W30295  24.300  34.193  19.703 -0.1516  0.3249  0.1172
92802W        W30296   0.602  32.962   3.982  0.2823  0.1013 -0.0436
92803W        W30297   9.812  20.301   4.589  0.0673  0.1085 -0.1004
92804W        W30298  14.490   7.835  24.493  0.0666  0.1137 -0.0381
92805W        W30299  14.420  10.163   5.603  0.1060  0.4136 -0.0146
92806W        W30300  12.685  32.917   4.024 -0.0326 -0.2657 -0.2085
92807W        W30301  12.657   0.265  25.502  0.0935  0.0422 -0.1312
92808W        W30302  13.931  28.193   2.849  0.0737 -0.1661 -0.2129
92809W        W30303  26.820  16.283  16.210 -0.1907 -0.2010  0.0028
92810W        W30304  18.695  15.624  10.758 -0.0175  0.2654  0.1201
92811W        W30305  12.303   2.403   6.185  0.0798 -0.0710 -0.0738
92812W        W30306  15.066  33.993  18.930  0.0458 -0.0291  0.0149
92813W        W30307  29.065  29.140  11.496 -0.0449 -0.0512 -0.0658
92814W        W30308   0.130  16.430  22.858  0.1225  0.2185 -0.0730
92815W        W30309  29.287  11.291  14.576  0.0973 -0.1049  0.1072
92816W        W30310  22.918  26.200  19.234 -0.1506 -0.0870 -0.3770
92817W        W30311  16.618  26.492   6.072  0.0325 -0.2485  0.2277
92818W        W30312   6.295  14.430  22.162  0.0532  0.1426  0.0788
92819W        W30313  11.765  10.243  12.655  0.0972  0.0223 -0.3236
92820W        W30314  14.405  31.423   9.706  0.0590 -0.0450  0.0787
92821W        W30315   3.656  34.362   8.538  0.1818 -0.1984 -0.0437
92822W        W30316   6.532  17.160   3.323 -0.0329 -0.2160  0.0689
92823W        W30317  27.739   9.418   8.096  0.2210  0.3048  0.1879
92824W        W30318  10.472  27.340  22.949 -0.0413 -0.0542  0.1107
92825W        W30319  15.310  27.096  25.249 -0.2166  0.4408 -0.1431
92826W        W30320  35.212   1.943   5.770  0.0053 -0.2928 -0.0601
92827W        W30321  28.871   2.223   2.309 -0.4009  0.2867 -0.3092
92828W        W30322   9.913  14.618   0.715  0.2794  0.2485 -0.0886
92829W        W30323  25.337  16.758  21.084 -0.0133 -0.0209 -0.1362
92830W        W30324   7.634  31.957   8.263 -0.2033 -0.1850  0.0672
92831W        W30325  35.212  11.963  25.719  0.2464  0.1497 -0.0959
92832W        W30326  16.374  25.297  23.331 -0.1760 -0.2896 -0.0070
92833W        W30327  32.148  21.971  17.662  0.3703 -0.1287 -0.3622
92834W        W30328  11.182  31.243  16.222 -0.4270 -0.1994  0.0135
92835W        W30329  27.841   8.237  12.155  0.0442  0.1108  0.4590
92836W        W30330  22.630  25.007  16.341 -0.0298  0.0172  0.0150
92837W        W30331  15.777   2.413  20.954  0.5525  0.0326 -0.0375
92838W        W30332  10.717   4.248  12.319  0.1902  0.0013 -0.1071
92839W        W30333  32.063  25.339  25.628 -0.1525  0.2647 -0.3683
92840W        W30334  21.479  26.441   2.529 -0.1197  0.4012 -0.3713
92841W        W30335   2.840  27.742  23.309  0.2334 -0.2867 -0.2391
92842W        W30336   0.211   2.306   2.769 -0.0314 -0.6016 -0.1898
92843W        W30337   7.180  28.217  12.299 -0.1903 -0.1670 -0.0633
92844W        W30338  29.013  17.149   8.970  0.0009  0.0302  0.0516
92845W        W30339  12.152   4.390  24.533  0.1808  0.0339 -0.0782
92846W        W30340  13.338  10.672   0.614  0.1280 -0.1354 -0.0649
92847W        W30341  34.459  31.658  22.603 -0.2506  0.0978  0.0158
92848W        W30342  26.752   1.338  21.785 -0.1349  0.3498  0.1567
92849W        W30343  10.021   7.475   9.793 -0.1513  0.0216 -0.2138
92850W        W30344   0.809  22.672  12.258 -0.3005  0.3208  0.1895
92851W        W30345  21.108   9.738   0.887  0.1922  0.0736 -0.0677
92852W        W30346   6.522   0.885  19.366  0.1523  0.1370 -0.1802
92853W        W30347  14.755  15.412  21.231 -0.3035  0.0302 -0.0317
92854W        W30348  10.296  30.958  22.765 -0.2027  0.0061  0.2160
92855W        W30349   1.179  34.877   7.829 -0.2373  0.4084  0.2384
92856W        W30350   1.337  16.685  19.416  0.0585  0.0944 -0.0570
92857W        W30351   5.280   9.065  25.790  0.0644 -0.0782  0.0419
92858W        W30352  33.996   0.470   0.355  0.0178  0.0488  0.1235
92859W        W30353  30.310   1.051   6.324  0.1026  0.0856 -0.1129
92860W        W30354   4.275  23.432  23.185 -0.0099  0.1300  0.3021
92861W        W30355   8.101  13.241  10.990 -0.1794  0.0665 -0.2416
92862W        W30356   7.645   5.175   3.180  0.2308  0.1691 -0.0483
92863W        W30357  22.019  26.231  22.822 -0.4395  0.1495  0.0806
92864W        W30358  23.104  31.188   5.837  0.1164  0.3423  0.0967
92865W        W30359   6.359  11.808  24.338 -0.1563 -0.0882 -0.1177
92866W        W30360  17.556  15.220  26.217 -0.2573 -0.2464  0.0896
92867W        W30361  15.597  27.538  22.508  0.0516 -0.6710 -0.0489
92868W        W30362  32.198  25.725  12.620 -0.0777 -0.3857  0.1181
92869W        W30363  14.610   4.129   0.656  0.5306 -0.3326 -0.1006
92870W        W30364  17.915  31.904  23.582 -0.2615  0.0125 -0.1261
92871W        W30365   9.754   4.543   8.516 -0.2465  0.1104  0.2111
92872W        W30366  17.509   0.115  18.390 -0.1075  0.0040  0.3086
92873W        W30367  11.952   8.584  21.015  0.0790 -0.1755 -0.0806
92874W        W30368   4.269  20.592  17.135 -0.0908  0.3154 -0.3116
92875W        W30369  32.983  23.537  19.029 -0.1042 -0.3110 -0.0819
92876W        W30370  23.082  21.376  18.646 -0.0532  0.0722 -0.0593
92877W        W30371  13.987  11.612   3.031 -0.0448  0.0131 -0.3601
92878W        W30372  22.904  10.056  17.643 -0.1515 -0.2518  0.0345
92879W        W30373   4.298  23.904   7.023  0.0072  0.0908 -0.1769
92880W        W30374  32.762  20.352  17.204 -0.0199  0.0525  0.1681
92881W        W30375  15.968  10.848  23.716  0.1656 -0.0403  0.0975
92882W        W30376   8.710  21.677  11.370 -0.3107  0.1169  0.0622
92883W        W30377  34.363  26.223  18.769 -0.1304  0.2204 -0.3435
92884W        W30378  22.484  10.070  16.426 -0.0310  0.2147 -0.0449
92885W        W30379  33.135   5.827  25.714 -0.0049  0.0344 -0.5295
92886W        W30380  27.009  20.791  19.919  0.2981 -0.2852  0.0611
92887W        W30381  28.223   5.651  25.826 -0.1051 -0.0403 -0.3205
92888W        W30382  11.665  29.627   9.563  0.0040 -0.0298 -0.0234
92889W        W30383  34.960  10.870  13.825 -0.2220 -0.2092 -0.2150
92890W        W30384  27.471   7.838  21.525 -0.4045 -0.2542 -0.0841
92891W        W30385  10.312  26.156  11.083  0.0772 -0.1372 -0.1339
92892W        W30386  33.184   7.474  12.886 -0.1377  0.0932  0.1379
92893W        W30387  24.917  13.136  10.560 -0.2925  0.2148  0.2142
92894W        W30388  31.250  25.167  25.047 -0.1068 -0.1968 -0.4194
92895W        W30389  30.319  11.547  17.302 -0.0591  0.0433 -0.1438
92896W        W30390  15.740  32.415  19.307  0.1554  0.0449 -0.0289
92897W        W30391  15.853  17.440   7.539  0.0229 -0.1022  0.0683
92898W        W30392  24.467  15.613   1.817  0.1633  0.2462 -0.1034
92899W        W30393  24.472  10.890  23.005 -0.3643  0.2837  0.0642
92900W        W30394  26.947  21.692  15.292 -0.0145  0.3721 -0.2469
92901W        W30395  29.046  34.201  21.236  0.1744  0.0322  0.3281
92902W        W30396  18.255  10.676   1.211 -0.2940  0.0472 -0.2042
92903W        W30397   8.181   1.520   0.358  0.1809  0.2192  0.1464
92904W        W30398   3.472   0.649   8.006 -0.1965 -0.0716  0.2746
92905W        W30399   2.127  10.676  19.147 -0.2525 -0.0174  0.1307
92906W        W30400  24.730   5.970  21.405  0.0521  0.0277  0.2549
92907W        W30401  32.262  23.705   9.976 -0.0206 -0.1809 -0.2205
92908W        W30402  30.776  28.631  12.168  0.0276 -0.2007  0.4029
92909W        W30403  27.172   6.982  22.070 -0.0694 -0.0182 -0.1700
92910W        W30404  10.028  23.269   8.533  0.0585  0.0747  0.0441
92911W        W30405  25.385  21.089  17.807 -0.2645 -0.0625 -0.0677
92912W        W30406  28.957  25.742  13.162  0.0456  0.2220  0.3115
92913W        W30407  19.456  14.640  22.557  0.3530 -0.0621  0.0373
92914W        W30408   1.300  20.065  20.913  0.1362 -0.4279  0.0241
92915W        W30409   9.575  26.093   9.701 -0.2019 -0.0103  0.1514
92916W        W30410  20.605  26.079   6.690 -0.0830  0.0821 -0.1149
92917W        W30411   9.829  11.296   0.504 -0.0219 -0.1241  0.0790
92918W        W30412  11.981   7.573  10.022  0.0294 -0.0557 -0.1273
92919W        W30413  30.579  18.503  21.989 -0.2046  0.0437 -0.0787
92920W        W30414  11.694  30.376   8.883 -0.1564  0.0026  0.0551
92921W        W30415  12.076  26.434   1.041 -0.1643  0.3262  0.3467
92922W        W30416  35.256   2.538   0.632 -0.0148  0.0711 -0.1559
92923W        W30417  19.624  17.872  25.691  0.0133 -0.2786  0.0612
92924W        W30418  19.630   0.860  25.622 -0.2330  0.4076 -0.0894
92925W        W30419  15.162  17.655  20.618  0.0034  0.1239 -0.0149
92926W        W30420  20.382  14.573  18.148 -0.2718  0.0042 -0.2489
92927W        W30421  24.919  20.235  18.165  0.0799 -0.0254  0.0515
92928W        W30422   3.021  13.999  23.614  0.2462  0.3668 -0.0665
92929W        W30423  19.473  31.294   3.405 -0.1262 -0.2246 -0.5968
92930W        W30424  30.571  32.878   2.951 -0.1867  0.1573 -0.0389
92931W        W30425  26.012   6.351  18.365  0.1424 -0.2295  0.2000
92932W        W30426  20.894   9.779  22.236 -0.1993  0.2422  0.2877
92933W        W30427  28.944  20.754   8.118  0.1297  0.2268 -0.1219
92934W        W30428  27.347  18.230  14.853 -0.4725  0.2930 -0.1105
92935W        W30429  32.316  24.065  23.912  0.1434 -0.0874 -0.2374
92936W        W30430  27.950  31.614  13.262  0.1125 -0.0470 -0.0706
92937W        W30431  18.336   8.007  19.084  0.0893 -0.0956  0.1526
92938W        W30432  33.241  17.743   7.779  0.3971  0.1559  0.0146
92939W        W30433   1.399   4.742   6.898 -0.0615  0.1931 -0.0620
92940W        W30434  11.968  18.691  23.421 -0.0436 -0.1355 -0.2687
92941W        W30435  23.354  29.596  15.451  0.2994  0.3336  0.0583
92942W        W30436  34.160  25.119  12.026 -0.1160 -0.0053  0.0964
92943W        W30437  30.698   6.846  22.951  0.2232  0.4449  0.1573
92944W        W30438  18.404  31.897   9.191 -0.0276  0.2781 -0.3209
92945W        W30439  26.478  12.564   9.578 -0.0725  0.1688 -0.1088
92946W        W30440  22.599  23.441  14.580 -0.1449 -0.0523 -0.0045
92947W        W30441  30.062   6.630  22.092  0.2272 -0.1224  0.0990
92948W        W30442  17.767  22.318   0.937 -0.0252  0.1098 -0.0562
92949W        W30443  35.106  33.846  23.710  0.0235  0.0775 -0.2649
92950W        W30444  17.491   9.597   4.101 -0.1499 -0.1831 -0.1241
92951W        W30445  18.626  16.793  10.474  0.0694 -0.0619 -0.1634
92952W        W30446  14.383  23.633   0.976 -0.0243  0.4882  0.0391
92953W        W30447   5.710  24.824   1.632 -0.0963 -0.3417  0.0066
92954W        W30448   1.257  35.008  20.152  0.3307  0.1084  0.0079
92955W        W30449  28.994  20.292  20.988 -0.0715 -0.0405 -0.0772
92956W        W30450  11.346   6.501   1.999 -0.0162 -0.0509 -0.2421
92957W        W30451   2.433  20.593  13.612 -0.2163  0.0408  0.2936
92958W        W30452  34.045  28.173  14.121 -0.0875  0.4155  0.0781
92959W        W30453  14.170  12.725  13.915 -0.2033  0.0110  0.1653
92960W        W30454  29.461  32.655  18.276  0.2681 -0.0497  0.1985
92961W        W30455  32.831  28.579  23.643  0.0997  0.1007  0.1278
92962W        W30456  17.508  14.348  22.527  0.1111 -0.2422 -0.1612
92963W        W30457  10.472  16.142  13.665 -0.1738  0.0534  0.2266
92964W        W30458  18.271  19.585   0.112 -0.2976  0.0853 -0.1965
92965W        W30459  34.555  32.199  19.815  0.0180  0.0863 -0.1403
92966W        W30460   5.911  23.906   3.859 -0.2332 -0.2080 -0.0731
92967W        W30461  23.062   7.367  23.813 -0.1721  0.0710 -0.0179
92968W        W30462  28.781  12.710  23.662 -0.0233  0.1496 -0.2350
92969W        W30463   4.234  28.874  10.337 -0.0289  0.2456  0.0811
92970W        W30464  14.921   0.085  20.630  0.3641 -0.0479  0.1839
92971W        W30465  17.101  25.799  25.851 -0.3206  0.1918 -0.0477
92972W        W30466  32.598  34.008  18.739  0.3510 -0.3617  0.3550
92973W        W30467  28.088  11.860  17.832  0.0518 -0.0382 -0.2161
92974W        W30468   8.194  23.835   2.580  0.2373  0.3702  0.2075
92975W        W30469  21.936   0.786  18.604  0.4354 -0.3440 -0.0493
92976W        W30470  15.979  20.642   5.015 -0.3049  0.1500 -0.0895
92977W        W30471   8.241  19.808  22.793 -0.1327  0.2694 -0.3231
92978W        W30472  15.669   4.036  19.057  0.1566 -0.0298 -0.3732
92979W        W30473   8.906  14.492   2.815  0.3643 -0.2289 -0.0724
92980W        W30474  10.685  11.051   3.218  0.1490 -0.1615 -0.0304
92981W        W30475  14.201  27.841   2.653 -0.1031 -0.0418  0.1012
92982W        W30476  28.142  21.889  17.406  0.2482 -0.1564  0.2824
92983W        W30477  30.606  30.244   4.565 -0.2458  0.2957 -0.1699
92984W        W30478   9.496  34.348  11.094 -0.1846  0.0313 -0.1064
92985W        W30479   0.106   1.605  21.928 -0.2600 -0.0768 -0.3346
92986W        W30480  20.904  12.486   1.316 -0.3187 -0.1309 -0.1114
92987W        W30481  14.670   9.382   5.199  0.1803 -0.1792 -0.0912
92988W        W30482  33.640  15.274  11.729 -0.2197 -0.3866 -0.0520
92989W        W30483  32.821  28.834   2.258 -0.2283  0.0140 -0.1543
92990W        W30484  19.330  28.705   5.130  0.1217  0.3152 -0.2510
92991W        W30485   2.749  32.852  22.756 -0.0679  0.0965  0.0679
92992W        W30486  23.022  10.558   4.531 -0.3103  0.0183 -0.0036
92993W        W30487   1.193  30.068  24.518 -0.2427 -0.0098 -0.0256
92994W        W30488  11.794  12.957   2.511 -0.2242  0.1686 -0.0590
92995W        W30489   5.099  31.827  24.684 -0.0341  0.1627  0.0945
92996W        W30490  30.719  19.391  12.468 -0.2363  0.0783  0.0560
92997W        W30491  11.600   8.566   6.588  0.1359  0.1326  0.0506
92998W        W30492  21.773  31.534  16.184  0.2310 -0.3758 -0.2045
92999W        W30493  32.787   8.955  19.197 -0.1867 -0.0114 -0.3802
93000W        W30494  19.266  15.945   4.122 -0.0304  0.3021  0.1128
93001W        W30495  18.520  14.117   9.178 -0.0591  0.0110  0.1073
93002W        W30496  15.089  26.584   6.523 -0.3148 -0.2456  0.2393
93003W        W30497   9.705  12.123   4.600  0.0731 -0.1689 -0.0705
93004W        W30498  18.996  11.973   8.466 -0.4134  0.0104  0.1207
93005W        W30499   1.718  17.613   0.339 -0.2157  0.3571 -0.2252
93006W        W30500   5.976  30.283  20.872 -0.1595 -0.1017 -0.0661
93007W        W30501  26.900  25.482  14.633  0.2035  0.1625  0.4459
93008W        W30502  21.024  11.136  21.151  0.0915 -0.1970  0.1568
93009W        W30503  11.856   4.672  25.334 -0.0309  0.0420 -0.0842
93010W        W30504   9.126   9.330  12.190 -0.0319 -0.0820  0.1862
93011W        W30505  28.392  23.709  23.034  0.2554 -0.2652  0.0221
93012W        W30506  18.007   4.546  10.648  0.3029  0.2837 -0.3088
93013W        W30507  23.729  30.323  17.650  0.1490  0.4941 -0.1777
93014W        W30508  21.617   3.920   0.943 -0.2468 -0.1029  0.1455
93015W        W30509   7.447  18.992  21.602 -0.1485 -0.0830  0.0950
93016W        W30510   3.085  15.115   0.661 -0.1056  0.0333 -0.0851
93017W        W30511   7.020   0.416   9.318  0.1456 -0.1607 -0.1110
93018W        W30512  12.336  16.555   1.185 -0.0066 -0.3050  0.0519
93019W        W30513  32.889  12.042  24.282 -0.0941  0.0595 -0.1554
93020W        W30514  10.285  32.001   6.619 -0.0523 -0.3401 -0.1778
93021W        W30515  15.036  29.882   0.594 -0.1434  0.1189  0.2283
93022W        W30516  14.810  11.644   9.029 -0.1191  0.1652 -0.1667
93023W        W30517  17.614  12.440  10.096  0.1294 -0.1540 -0.3881
93024W        W30518  27.878  14.608  25.495 -0.2857  0.1261 -0.1902
93025W        W30519  27.396  20.144  19.545  0.0185 -0.1241 -0.0427
93026W        W30520  24.390  27.083   2.975  0.4017 -0.0650  0.0994
93027W        W30521  22.289   6.563   5.762  0.2705  0.1363 -0.1929
93028W        W30522  11.189  16.189  25.220 -0.0720 -0.0112 -0.4109
93029W        W30523  32.132  20.289  24.639 -0.2310  0.4173  0.0059
93030W        W30524   1.740   2.205  17.553 -0.2609 -0.1759  0.2568
93031W        W30525  13.846   0.246  12.913  0.1170 -0.0412 -0.2579
93032W        W30526  33.098  20.121   5.953  0.1568 -0.0511 -0.2021
93033W        W30527  27.846   1.522  18.275 -0.2019  0.1359 -0.1301
93034W        W30528  31.364  31.728   6.042 -0.0909  0.0905 -0.1573
93035W        W30529  15.435  25.395  10.753 -0.1274  0.3185  0.0012
93036W        W30530   5.445   6.825   5.525  0.1589 -0.2935  0.1557
93037W        W30531  14.256  11.843  10.405 -0.1488 -0.0699 -0.2305
93038W        W30532   4.812  30.094  23.466 -0.2153 -0.1890 -0.1130
93039W        W30533  26.683  32.253   1.780 -0.0542  0.3643 -0.2784
93040W        W30534  12.134  29.659  11.316 -0.1080 -0.1634 -0.1223
93041W        W30535  22.701  31.912  16.194 -0.4870  0.0100  0.1860
93042W        W30536  28.416  11.886  18.867  0.3336 -0.1191  0.2768
93043W        W30537  22.406  10.146  15.931 -0.0710  0.0463 -0.0181
93044W        W30538  32.625  25.901   1.357  0.0955  0.0976 -0.1195
93045W        W30539  14.548  28.218  14.836 -0.3250 -0.1622 -0.0448
93046W        W30540  13.623  25.946  12.336  0.1075 -0.1600 -0.1340
93047W        W30541  27.125  27.192  12.490 -0.1164  0.0488  0.0560
93048W        W30542   9.247  26.359   2.403  0.1288  0.1510 -0.3833
93049W        W30543   5.004  25.277   1.639  0.1342  0.1854  0.0599
93050W        W30544  14.891   2.941   1.203 -0.0545  0.4387  0.4650
93051W        W30545   3.349  29.570   4.938  0.1053 -0.0405 -0.0398
93052W        W30546  25.177  21.193  22.532  0.0934 -0.1181  0.0830
93053W        W30547  25.843   0.596   4.818  0.3448 -0.2576  0.0278
93054W        W30548   8.910  28.232   2.354  0.1258 -0.0570 -0.3205
93055W        W30549  23.398   5.572  14.962 -0.3318  0.3117 -0.0132
93056W        W30550  30.138   1.872  18.405 -0.1330 -0.1165  0.0147
93057W        W30551   5.773  26.418  25.960 -0.0486  0.1360 -0.1438
93058W        W30552  28.053  32.309   1.431 -0.0136  0.1927 -0.2313
93059W        W30553   1.957  17.969   0.783 -0.0215  0.1562  0.0086
93060W        W30554  17.454   0.455   9.435  0.2059  0.0907  0.2043
93061W        W30555   5.742  14.245  20.381 -0.1072 -0.0754 -0.0398
93062W        W30556  34.323  22.153  13.857 -0.0558 -0.5902 -0.0151
93063W        W30557  20.560   6.092  18.170 -0.0988  0.1203  0.3386
93064W        W30558  13.870  12.794   0.738  0.3597 -0.1261  0.2933
93065W        W30559   1.804  26.760  24.518  0.1241  0.2866  0.0436
93066W        W30560  35.243   0.238  22.540  0.1182 -0.0892  0.2729
93067W        W30561   0.800   2.172  13.659 -0.1822  0.1424  0.3562
93068W        W30562  16.601   2.849   0.624  0.1667 -0.0729  0.0165
93069W        W30563  23.871  25.029  21.590  0.0161  0.2286 -0.3128
93070W        W30564   2.357  34.606   7.941 -0.1737  0.0861 -0.1528
93071W        W30565  19.630   0.601  22.425 -0.3174  0.0490 -0.2308
93072W        W30566   4.026  27.195   1.458 -0.0804  0.1936 -0.1210
93073W        W30567  32.747  20.883   6.025  0.4138 -0.0162 -0.1097
93074W        W30568  10.770  15.859  23.920  0.0169  0.0395  0.1089
93075W        W30569  26.571  30.909  16.134  0.3089 -0.3763 -0.2647
93076W        W30570   3.215   0.634  21.544  0.1081  0.1436  0.2760
93077W        W30571  18.365   5.761  18.737  0.1833  0.1686  0.1762
93078W        W30572  33.003   3.752  17.896 -0.0961 -0.5963 -0.0868
93079W        W30573  11.937  32.972   9.621  0.0576 -0.0366  0.1620
93080W        W30574  30.878   4.710  17.727 -0.2250 -0.3426 -0.2367
93081W        W30575   7.410  34.870  14.150 -0.2602  0.2301  0.3265
93082W        W30576  22.302  25.996  19.304  0.0565 -0.2085  0.0684
93083W        W30577  17.024  10.405  13.689 -0.0056  0.2140 -0.2441
93084W        W30578  28.711  12.930  16.612 -0.3181  0.1580  0.1465
93085W        W30579  32.637  26.497   0.663  0.0487 -0.0647  0.1711
93086W        W30580  10.511  26.524  22.683 -0.0970 -0.3049  0.3989
93087W        W30581  17.716  16.655   8.777  0.2096  0.1274 -0.0777
93088W        W30582   8.804  16.224   7.948  0.2795 -0.3923  0.2583
93089W        W30583  24.014   4.204   0.139  0.2513 -0.0605  0.0111
93090W        W30584  29.886  11.277  20.419 -0.2979 -0.0931  0.2459
93091W        W30585  20.012  32.586  14.969 -0.0812  0.2395 -0.2682
93092W        W30586  18.288  20.363   1.130  0.3178  0.0045 -0.1383
93093W        W30587   2.362  27.948  21.801  0.0987  0.1734 -0.3846
93094W        W30588  10.542   0.366   4.629  0.3253  0.3364  0.0901
93095W        W30589  23.208   1.210  13.907 -0.2070 -0.0369  0.0104
93096W        W30590  18.889  19.563  20.537 -0.0472  0.0712  0.4149
93097W        W30591  17.329  26.805   0.196  0.0017  0.2440  0.1254
93098W        W30592  21.853  17.509   1.344 -0.0116 -0.0800  0.1043
93099W        W30593   4.533  18.815  18.869  0.1233  0.1311  0.1680
93100W        W30594   0.179  23.310  20.329 -0.3964  0.0313  0.1501
93101W        W30595  22.433  13.807   0.758  0.0035 -0.2685  0.0276
93102W        W30596   0.223  21.076   0.033 -0.0947  0.5051  0.2134
93103W        W30597  12.435   0.890   8.437 -0.2386  0.2287 -0.2034
93104W        W30598  22.257  15.504  14.842  0.2993  0.3437 -0.1522
93105W        W30599   8.243  23.845  14.274  0.1594  0.2632 -0.1741
93106W        W30600   5.176  27.933   5.063 -0.1648  0.2709 -0.1642
93107W        W30601  30.420  19.650  14.651  0.1834  0.1991  0.2644
93108W        W30602  24.621   6.354  16.881  0.1101  0.4466  0.0696
93109W        W30603   3.445   6.841  16.222  0.3168 -0.2118  0.0593
93110W        W30604   2.494  16.862  18.046  0.1391 -0.2568 -0.0453
93111W        W30605   4.258  18.309  17.507 -0.1707 -0.2369 -0.1406
93112W        W30606  19.505  27.145   7.779 -0.1381 -0.3503 -0.1102
93113W        W30607  28.711  30.479   2.216 -0.1573 -0.1372  0.0226
93114W        W30608  20.178   2.352   5.416  0.0165  0.0028  0.4412
93115W        W30609  31.755  25.544  10.585 -0.0071 -0.1730  0.0166
93116W        W30610  17.980  34.764   9.643  0.0958 -0.0355  0.1188
93117W        W30611   5.107  30.950  13.174 -0.4193  0.0238 -0.0952
93118W        W30612  20.505  32.814   5.003  0.1814 -0.0008 -0.1541
93119W        W30613  17.352  10.465  21.713  0.1291  0.0336  0.0698
93120W        W30614  12.716  32.506   1.821 -0.0253 -0.1557  0.0071
93121W        W30615   4.360  10.818  15.370  0.1578  0.4112  0.2140
93122W        W30616  17.097  18.777   7.834 -0.0373  0.1094  0.0481
93123W        W30617  23.240   6.071  17.776 -0.0826  0.0183  0.4424
93124W        W30618   0.382  19.563  23.711 -0.2545  0.2289 -0.0256
93125W        W30619   5.940  28.420   7.070  0.0282  0.0692  0.3072
93126W        W30620  12.665   4.514   9.084  0.3577  0.0956  0.0160
93127W        W30621   2.803  13.166  14.780 -0.3377  0.2436 -0.0440
93128W        W30622   6.090  16.786  17.031  0.1547 -0.0208 -0.1645
93129W        W30623  33.813  21.387  23.811 -0.1764 -0.1475 -0.0645
93130W        W30624   3.503  22.202  16.889  0.0322 -0.1497 -0.1170
93131W        W30625  24.304  18.362  12.656 -0.0339 -0.2933 -0.0757
93132W        W30626  32.246  35.303   6.089 -0.0732 -0.1513 -0.2427
93133W        W30627  23.956  20.018  21.997 -0.1839  0.1058  0.0414
93134W        W30628  12.679  31.497  11.535 -0.2282  0.1339 -0.1975
93135W        W30629  19.813   3.913  23.796 -0.3296 -0.0528 -0.0209
93136W        W30630   4.323   6.819  24.050  0.1396  0.3438 -0.0388
93137W        W30631  31.890  21.539  25.049 -0.0302  0.2497  0.0166
93138W        W30632  33.692  24.731  24.286  0.2470 -0.1089  0.0621
93139W        W30633  25.407  20.839  16.916 -0.1560  0.0159 -0.1426
93140W        W30634   7.809   6.814   2.467 -0.0739  0.0670  0.0779
93141W        W30635  12.839  20.777  16.053  0.1316 -0.3220 -0.1580
93142W        W30636   1.795  14.548  20.852  0.3870  0.2391  0.1806
93143W        W30637   7.149  34.827   6.954 -0.0601 -0.3924 -0.0559
93144W        W30638   9.195  16.628  19.815  0.0066 -0.1093 -0.3922
93145W        W30639  12.546  20.512  12.854 -0.0719 -0.2739 -0.1965
93146W        W30640   0.936  18.103  14.142  0.0458 -0.0901 -0.2079
93147W        W30641  22.636  10.526  20.167  0.0175  0.2036 -0.2502
93148W        W30642   7.655  34.578  13.812 -0.1676  0.0912 -0.0839
93149W        W30643  34.237   2.035  22.216  0.5284  0.0392 -0.0766
93150W        W30644  17.036  22.002   3.155  0.0340  0.1830  0.0014
93151W        W30645   1.709  29.892   8.572 -0.1189  0.0172 -0.0152
93152W        W30646   3.914   7.054  16.128  0.1455 -0.0199 -0.0930
93153W        W30647  20.844  24.331   2.706  0.0469 -0.0691 -0.2002
93154W        W30648  26.265   4.896  21.469 -0.2483  0.0592  0.0933
93155W        W30649  13.580   3.130   4.703 -0.4441 -0.1796 -0.2249
93156W        W30650  31.944  22.840  14.364 -0.1489 -0.2800 -0.1871
93157W        W30651   3.109  22.539  24.611  0.0874  0.3850 -0.0010
93158W        W30652  17.886  21.778  11.042  0.1835 -0.1590 -0.3524
93159W        W30653  26.623  22.454  20.237  0.0655  0.3269  0.2316
93160W        W30654  31.259  17.216   6.586  0.2311 -0.1155  0.0243
93161W        W30655  30.268   0.558  20.614  0.3573 -0.0448 -0.1369
93162W        W30656  13.957  27.129   8.901  0.0163  0.1808 -0.0797
93163W        W30657  20.174   4.364   7.332  0.3017  0.1307  0.3499
93164W        W30658   9.647   2.203  11.927 -0.5360 -0.1267  0.4473
93165W        W30659  15.705   4.424   9.968 -0.1440  0.0341  0.4345
93166W        W30660  18.014   5.623   9.878 -0.2292  0.3822  0.3799
93167W        W30661  12.735  16.490   8.115 -0.3854 -0.0360  0.1823
93168W        W30662  21.104  31.283   3.973 -0.1886 -0.1251  0.1636
93169W        W30663  33.007   5.894  18.797  0.1326  0.0709 -0.1982
93170W        W30664   6.816   1.319  12.310  0.1947  0.0053  0.0330
93171W        W30665  11.018  33.919  16.489  0.1670 -0.0727  0.1714
93172W        W30666  18.399  24.371   2.490  0.0161 -0.0671  0.0888
93173W        W30667  32.487  19.787   9.310  0.2367  0.2821  0.2579
93174W        W30668  23.368  31.091  26.086 -0.3720 -0.0240 -0.1872
93175W        W30669  17.221  29.080   1.878  0.0960  0.0456 -0.0391
93176W        W30670  32.088  17.975  25.240 -0.2431 -0.2711 -0.3782
93177W        W30671   3.529  14.674   1.296  0.0250 -0.5588  0.0373
93178W        W30672  20.844  25.204  22.755  0.1012  0.0929  0.1659
93179W        W30673  24.269   8.801   2.829  0.0641 -0.1817 -0.2373
93180W        W30674   4.450   8.286  18.864  0.2179 -0.1127 -0.4521
93181W        W30675  28.292  18.752  17.741 -0.0070 -0.1721 -0.1552
93182W        W30676  16.270  17.614  12.871 -0.2504 -0.2106 -0.1532
93183W        W30677  31.749  22.180   7.104 -0.0823 -0.0978  0.0477
93184W        W30678  17.810  17.217  25.482 -0.0586  0.0621 -0.0220
93185W        W30679   9.847  12.642   1.423 -0.0537  0.1024 -0.2155
93186W        W30680  34.265  28.293   0.444  0.2426 -0.0581 -0.1768
93187W        W30681   9.394  18.473  23.798  0.0038  0.0152 -0.4024
93188W        W30682  10.736  21.882  15.481  0.1184 -0.0957 -0.0222
93189W        W30683  23.988  30.307  17.162  0.0336  0.3303  0.0882
93190W        W30684  33.231   2.880  20.737 -0.2377  0.1322  0.2213
93191W        W30685   4.524  29.874   2.659 -0.2350  0.1706 -0.1159
93192W        W30686  19.404  30.230   8.082  0.0687  0.3923  0.1962
93193W        W30687  22.312  17.152  17.013  0.1801  0.1041 -0.0261
93194W        W30688   9.023   7.118  18.973  0.2126 -0.0633 -0.0521
93195W        W30689  33.931  22.121   0.450 -0.0147  0.0147  0.0547
93196W        W30690   4.333  11.219   7.136  0.1450 -0.0427 -0.0136
93197W        W30691  19.709  18.011   0.061 -0.1716 -0.4670  0.2593
93198W        W30692   5.958  21.166  25.091  0.4055 -0.3833 -0.0657
93199W        W30693  34.061   2.809  20.077 -0.1307 -0.0275  0.0872
93200W        W30694  21.945   6.080  18.585  0.2122  0.0419  0.2204
93201W        W30695  18.548  17.305  10.549  0.1102  0.2108 -0.0955
93202W        W30696  26.217   8.028   2.604 -0.2273 -0.0568 -0.5085
93203W        W30697  29.983  31.915  24.864 -0.0023 -0.0855 -0.0439
93204W        W30698   2.725  30.870   6.794  0.1884  0.0037  0.0088
93205W        W30699   7.166  20.975   8.897 -0.1492  0.0319  0.1807
93206W        W30700  26.119  24.632  19.070  0.2340  0.3072 -0.3177
93207W        W30701   4.457   5.181  16.516  0.0117  0.4632  0.1597
93208W        W30702  22.998   1.034   4.218 -0.2641  0.2282  0.0496
93209W        W30703  22.458  29.368  21.429 -0.1261  0.5528 -0.1014
93210W        W30704  15.805  22.130   1.065 -0.1566  0.0546  0.3225
93211W        W30705   2.521   0.042   3.221 -0.1723 -0.2459  0.0648
93212W        W30706  13.459  11.126  14.163 -0.0217  0.3483  0.2856
93213W        W30707  20.731  18.664  19.447 -0.4278 -0.1065 -0.1561
93214W        W30708  27.529  23.415  16.923  0.3967  0.0702 -0.1716
93215W        W30709  24.758   8.200   1.798 -0.0659 -0.0627 -0.1133
93216W        W30710  23.743   8.246  19.085  0.0845  0.1361 -0.0535
93217W        W30711  13.177  20.553   5.418 -0.0451 -0.2844  0.0311
93218W        W30712  35.185  34.051   8.335 -0.3858 -0.1338  0.2290
93219W        W30713  26.301   6.450  15.580 -0.0770  0.0136  0.0009
93220W        W30714   0.755   5.883   4.285 -0.0454 -0.1107 -0.1499
93221W        W30715  16.098   9.328  18.468 -0.1379  0.0351  0.0909
93222W        W30716  27.521  13.866  23.041 -0.1350 -0.0138  0.1105
93223W        W30717   4.537  15.475  25.971 -0.1371  0.0934  0.0471
93224W        W30718  16.972   6.300  25.331  0.0230 -0.0078  0.2366
93225W        W30719   1.664   7.069   1.337 -0.1342  0.0752 -0.1066
93226W        W30720   6.567  28.611   8.749  0.3395  0.0021  0.0128
93227W        W30721   7.782   2.994   4.058 -0.1079  0.0468  0.1937
93228W        W30722   2.534   4.415  25.363  0.0389  0.0555  0.0693
93229W        W30723  19.578   7.757   5.171 -0.1239  0.0735  0.2561
93230W        W30724   4.417  31.828   2.802  0.0509  0.1049  0.0128
93231W        W30725  30.820  26.496  15.487 -0.1499 -0.2046  0.2290
93232W        W30726  19.691  17.539   2.294 -0.1202  0.0336 -0.4341
93233W        W30727  34.268  26.076   0.271 -0.0990 -0.1937 -0.2840
93234W        W30728  31.091   1.308   4.695  0.0925 -0.0313  0.0404
93235W        W30729  16.669  11.968   7.456  0.0040  0.1797  0.0515
93236W        W30730  19.926   3.701   1.568  0.4946  0.0582 -0.1548
93237W        W30731  33.259  27.814  24.232 -0.1713 -0.0484 -0.0341
93238W        W30732  29.370  25.731  20.546 -0.1128 -0.1206  0.0702
93239W        W30733  34.396  32.693   1.218 -0.1355  0.1966  0.2672
93240W        W30734  29.118  30.859   1.459 -0.1519  0.2707  0.1252
93241W        W30735  21.046   8.574  16.792  0.1468 -0.1783  0.0156
93242W        W30736  15.488  34.659   4.655 -0.0058 -0.0242 -0.0975
93243W        W30737   9.506  16.088  23.608  0.0751  0.0389 -0.1358
93244W        W30738  27.529  22.981  23.280 -0.2015 -0.0181 -0.4114
93245W        W30739   6.294   9.857  25.535 -0.0165  0.1401 -0.2642
93246W        W30740   4.075   4.844   0.942 -0.0584  0.0308 -0.0154
93247W        W30741   5.820  12.673  18.021 -0.0304  0.3361 -0.3027
93248W        W30742   4.498  10.236   6.701  0.0945  0.2464  0.3355
93249W        W30743  30.751  18.216  22.381  0.1606  0.1336 -0.2395
93250W        W30744  27.469  34.470   3.067  0.0174  0.0402 -0.0145
93251W        W30745   0.032   6.177  12.157 -0.0828  0.3242 -0.0408
93252W        W30746   1.796  20.442  11.870 -0.0476  0.2085 -0.0131
93253W        W30747  12.656  24.793  14.936 -0.1468  0.1540 -0.2639
93254W        W30748  17.316  29.471   4.482 -0.1745 -0.0492  0.1522
93255W        W30749  12.550  23.966  16.326  0.2956 -0.0336 -0.1242
93256W        W30750  31.610  18.746   6.578 -0.2179  0.0472 -0.1826
93257W        W30751  14.611   9.652  19.447 -0.1637  0.0396 -0.1615
93258W        W30752  34.558  15.744   8.596 -0.0533 -0.0413 -0.2400
93259W        W30753  25.490   5.609  20.546  0.0971 -0.0324  0.3147
93260W        W30754   4.057  28.863  24.653 -0.2315  0.2051  0.1557
93261W        W30755  22.059  26.968   6.214  0.0618  0.0959  0.0229
93262W        W30756   3.197  35.034   6.313  0.3901  0.1781  0.0071
93263W        W30757  24.419  28.784   3.017 -0.1295  0.1622  0.2716
93264W        W30758  10.691  33.414  24.183 -0.0386 -0.1285  0.0001
93265W        W30759  19.776   6.397  20.696 -0.4486 -0.0182 -0.3001
93266W        W30760  23.435  26.246  17.171  0.0631 -0.2088  0.1007
93267W        W30761   2.671  33.136   8.874 -0.3821 -0.0730 -0.1026
93268W        W30762  32.902  24.429  18.412 -0.0987  0.0544 -0.0205
93269W        W30763  21.680  28.935  22.827 -0.0179 -0.1472 -0.0251
93270W        W30764  27.217   1.832  15.681 -0.0161  0.0113 -0.1377
93271W        W30765  31.759   6.986  22.585  0.0730  0.1283  0.0356
93272W        W30766  33.761  18.406  26.068 -0.2195  0.1029  0.2245
93273W        W30767   0.175   1.741  17.343 -0.1011 -0.0399 -0.1119
93274W        W30768  10.868   9.426   9.430 -0.1876  0.1538  0.0488
93275W        W30769  17.459  24.814  11.522  0.0270  0.2493  0.0637
93276W        W30770   5.095  28.037   7.927 -0.2397  0.0044 -0.1474
93277W        W30771  33.465   8.225  11.211  0.0959 -0.0852 -0.0646
93278W        W30772   2.141  32.349   7.327 -0.2563  0.0700  0.1295
93279W        W30773  17.925   1.411  22.519 -0.0672  0.1070 -0.4827
93280W        W30774  32.003  33.997  13.402 -0.0297 -0.1038 -0.1131
93281W        W30775   7.037  14.191   2.323 -0.1415 -0.1913 -0.1151
93282W        W30776  17.293  28.332  19.529  0.1859  0.2374  0.2177
93283W        W30777  25.685  18.874  16.198  0.0166  0.3292 -0.0297
93284W        W30778  13.489  16.571  23.266 -0.2987  0.2156 -0.3648
93285W        W30779  32.325  15.323   9.060 -0.1352 -0.1323  0.1596
93286W        W30780  22.321  24.172  24.356 -0.1656 -0.2204  0.1754
93287W        W30781   8.579  15.176  22.410 -0.1441 -0.2360 -0.1061
93288W        W30782  35.242  32.913   1.440 -0.0500 -0.1794  0.2452
93289W        W30783  23.634   2.391  23.497 -0.3145 -0.0807  0.3441
93290W        W30784  31.091   7.430  18.433  0.2565  0.2145  0.0399
93291W        W30785  18.502  18.671   0.814 -0.0330  0.0360  0.0472
93292W        W30786  28.444  16.898  13.625 -0.3121  0.0742  0.0276
93293W        W30787   4.040  25.825  24.097  0.1204  0.1193  0.0852
93294W        W30788  12.851  31.600  22.437 -0.0409 -0.4072 -0.1610
93295W        W30789   2.186  19.688  18.539  0.0641  0.0155 -0.0144
93296W        W30790  24.889  21.734  19.617  0.0922 -0.1370  0.1789
93297W        W30791   7.251  26.455  13.217  0.0358 -0.2010  0.4157
93298W        W30792  26.781   8.685  23.718 -0.0453  0.3179  0.1104
93299W        W30793  34.434   2.288   7.908  0.1283  0.0468 -0.0790
93300W        W30794   7.132  10.668  11.898  0.2486  0.1809 -0.1006
93301W        W30795  22.560   0.520  18.671  0.0781 -0.2699  0.1464
93302W        W30796  23.366  29.464  22.612 -0.0459  0.3779 -0.0272
93303W        W30797  28.498  30.641   0.250  0.0240  0.0055  0.0666
93304W        W30798  20.582   6.835   1.279  0.0104  0.2494 -0.0903
93305W        W30799  21.344  21.363   7.263  0.1336 -0.1099  0.3434
93306W        W30800   5.388   0.413   5.725 -0.1616  0.1845 -0.0543
93307W        W30801  28.281  21.277  24.056  0.2303  0.0446 -0.2373
93308W        W30802  24.375  30.589  17.343  0.1728  0.0391 -0.1200
93309W        W30803  32.446   3.039  23.392 -0.1908  0.1552 -0.2782
93310W        W30804  12.931  11.497  23.988 -0.1365  0.1369  0.2040
93311W        W30805  34.579  29.611  24.812  0.2520  0.1275 -0.0152
93312W        W30806  17.027  19.831  25.587 -0.0067  0.3435  0.1270
93313W        W30807  27.857  24.762  17.666 -0.0960 -0.1727 -0.0254
93314W        W30808   2.756   3.554  16.787  0.0327  0.2111  0.0566
93315W        W30809   6.043  14.961  22.339 -0.1873  0.0045 -0.0631
93316W        W30810   4.490  28.939  25.705 -0.0710 -0.1628 -0.1762
93317W        W30811  30.320  27.591  14.810  0.1523 -0.1567  0.1924
93318W        W30812  15.247   4.168   8.025  0.1039  0.0516  0.0706
93319W        W30813  33.345   1.620  22.038  0.2054  0.4235  0.0267
93320W        W30814  13.525  18.599  21.874  0.0824 -0.0105  0.0003
93321W        W30815  13.039   8.692  20.951  0.0446  0.0065 -0.1545
93322W        W30816  29.358  10.850  24.676  0.1276 -0.0892  0.0193
93323W        W30817  26.809  30.797   4.953  0.1176 -0.0639  0.3449
93324W        W30818   1.304  21.030  12.948  0.1261 -0.2518 -0.1001
93325W        W30819  21.231   5.225  22.209  0.1327 -0.1137 -0.1550
93326W        W30820  14.221  23.933   4.537  0.2124 -0.1986 -0.2170
93327W        W30821  28.287  25.013  10.828 -0.2127  0.4289 -0.0463
93328W        W30822  24.729   1.467   0.812 -0.3248  0.1707 -0.0609
93329W        W30823  15.353   2.439  17.433  0.2874  0.1913  0.2152
93330W        W30824  28.731  34.403  12.208 -0.2426  0.1012  0.1858
93331W        W30825  28.557  21.854   4.973 -0.1230 -0.0289 -0.0977
93332W        W30826   0.765   1.639  24.348 -0.2156 -0.2837 -0.1172
93333W        W30827  17.115  18.526   3.728  0.3044 -0.0960  0.2501
93334W        W30828  19.374  16.912   6.749  0.0811  0.0602  0.1078
93335W        W30829  12.437  14.987  25.381  0.3304  0.5120 -0.1160
93336W        W30830  17.758  31.363   8.388 -0.0061 -0.2043 -0.0255
93337W        W30831  24.947  14.281  25.152 -0.2364 -0.1462  0.1092
93338W        W30832   1.493  19.037  19.716 -0.1555  0.0368 -0.0491
93339W        W30833  17.303  14.323  20.524 -0.0491 -0.1620  0.2983
93340W        W30834  27.951  30.042  25.856  0.1445 -0.0621 -0.1947
93341W        W30835  11.114  16.463  23.160  0.2433 -0.0511  0.1532
93342W        W30836  16.098  13.727  11.776  0.0567 -0.5021 -0.1093
93343W        W30837  11.155   6.847   7.741 -0.1635 -0.0983  0.1569
93344W        W30838   0.161  19.061  24.810  0.1127  0.0566  0.1739
93345W        W30839  33.262  25.568  25.068 -0.1187  0.0868 -0.1927
93346W        W30840  15.394  29.584   3.617  0.1203  0.1858 -0.1717
93347W        W30841  17.087  21.800  13.720  0.2278 -0.2005 -0.1554
93348W        W30842   8.853  15.920  22.438 -0.1340  0.2381 -0.0287
93349W        W30843   0.951  16.848  24.669  0.0592 -0.0064 -0.0271
93350W        W30844  31.362  15.891   8.388 -0.2590  0.0600  0.0404
93351W        W30845   2.605  22.531   4.290 -0.1217 -0.4254  0.2175
93352W        W30846  25.960  31.672  23.648 -0.0853 -0.0133  0.1289
93353W        W30847  10.276   9.283  25.162  0.1578  0.2428 -0.0863
93354W        W30848  13.182   9.341  25.591  0.0236  0.0700  0.0777
93355W        W30849  32.061  13.312  17.853 -0.0101  0.2353  0.0990
93356W        W30850  32.499  19.684  19.508 -0.1218  0.0347  0.0518
93357W        W30851  30.732  16.572   5.283  0.0834 -0.0022 -0.2731
93358W        W30852  15.494  23.390   1.662 -0.2688  0.0431  0.2000
93359W        W30853   9.643  19.312  21.130  0.0860  0.1532 -0.2130
93360W        W30854  14.930  34.220   1.580 -0.1473 -0.1728 -0.0517
93361W        W30855   2.041   7.483   0.903 -0.1458  0.2188  0.0775
93362W        W30856   6.191   6.354   1.741 -0.3621  0.2941  0.0314
93363W        W30857  16.413  25.693   6.573  0.1265  0.0870 -0.0141
93364W        W30858  19.397  20.824   4.350 -0.0093 -0.0730  0.0904
93365W        W30859   6.323  11.994  21.730 -0.0106  0.0489  0.0053
93366W        W30860  28.084  22.685  17.733  0.3007  0.1555  0.2973
93367W        W30861  10.567  34.615  12.439  0.0600 -0.0733 -0.2223
93368W        W30862   3.284  17.693  22.222  0.1199 -0.1918 -0.3301
93369W        W30863  22.389  21.146   2.711  0.0979  0.3416 -0.0410
93370W        W30864   3.182  32.396   4.142 -0.3389 -0.1207 -0.0959
93371W        W30865  19.469   4.212  19.212 -0.2286  0.0517 -0.1416
93372W        W30866  30.723  22.057  16.965 -0.2935 -0.2187 -0.1711
93373W        W30867  31.869  32.745  21.753 -0.0117 -0.0776 -0.0407
93374W        W30868  31.845  10.516  14.405 -0.0046 -0.1772 -0.0385
93375W        W30869  18.440  33.750   5.486  0.0814  0.2632 -0.0807
93376W        W30870  22.130  29.104   3.061 -0.1074  0.0270  0.2013
93377W        W30871   0.663  22.734   3.160  0.1457 -0.2814  0.3854
93378W        W30872  15.388  29.603  21.602 -0.1808  0.1130  0.0848
93379W        W30873  26.504  29.889  12.950 -0.0621  0.1042 -0.0378
93380W        W30874  20.631   2.419  24.397 -0.3635 -0.0528 -0.2603
93381W        W30875  23.652  26.349  12.687 -0.0877  0.1090 -0.0157
93382W        W30876  17.308  10.696  11.340 -0.0245  0.0197 -0.0325
93383W        W30877  24.742   1.883   2.484  0.0438  0.1349 -0.0172
93384W        W30878  31.525  28.518  17.618  0.1728  0.1286  0.1269
93385W        W30879  35.323  10.636  15.422 -0.0069 -0.1497 -0.3345
93386W        W30880  10.628   0.290  23.199  0.1396  0.2740  0.0566
93387W        W30881  25.587  11.324  14.513  0.0022  0.2102 -0.0485
93388W        W30882  13.416   7.619   6.642 -0.1050 -0.2411  0.1081
93389W        W30883  21.051   0.578  23.030  0.0410 -0.0952 -0.3782
93390W        W30884   0.841   9.758   2.304  0.0731  0.0026  0.1242
93391W        W30885   8.101  12.577   0.112  0.0809  0.0549  0.2031
93392W        W30886  24.770  13.353   0.955 -0.0275 -0.0100  0.0267
93393W        W30887  28.493  28.523  16.736  0.2386  0.2416  0.2295
93394W        W30888  22.032  11.959  18.324 -0.1320 -0.0499 -0.1332
93395W        W30889  17.192  19.453   4.204  0.0487 -0.0275  0.1742
93396W        W30890  13.657   8.905  21.537  0.2030  0.0507 -0.1942
93397W        W30891   8.504  21.882  15.918 -0.1114 -0.0049  0.4470
93398W        W30892  15.803  22.209  14.495  0.0031  0.3294 -0.0667
93399W        W30893  31.419  21.991  13.063  0.1800  0.3669 -0.2351
93400W        W30894  34.591  12.298  22.556 -0.2701 -0.1460  0.2728
93401W        W30895  29.856  13.956   4.367  0.0290 -0.1884 -0.1225
93402W        W30896  28.310   0.613   1.732  0.1315  0.4181  0.2592
93403W        W30897  35.045  10.641  15.834 -0.1881  0.0964 -0.1331
93404W        W30898  25.802  11.788   9.569 -0.3510 -0.0134  0.1023
93405W        W30899   1.749  25.762  20.261  0.1966 -0.1130  0.2204
93406W        W30900   5.134  15.273   5.619 -0.0206  0.3561 -0.1312
93407W        W30901  12.206   7.541   3.215  0.0947  0.0276  0.0946
93408W        W30902  13.592  31.939  24.676  0.1511  0.0927  0.0922
93409W        W30903  17.670   7.653  12.117  0.1579 -0.0140 -0.1078
93410W        W30904  18.536  19.270   6.046 -0.1941  0.0176  0.3920
93411W        W30905  12.370   1.285  12.995  0.1520 -0.3183 -0.0645
93412W        W30906   1.968   2.950   5.157 -0.1499 -0.1836  0.1977
93413W        W30907  12.101  30.164  11.805  0.0886 -0.2023  0.3617
93414W        W30908  28.761  24.939  10.712 -0.0654 -0.4425  0.1569
93415W        W30909  24.662  24.817  15.355  0.1280  0.1417 -0.1061
93416W        W30910  33.088   9.624  22.781  0.0319  0.0856 -0.1222
93417W        W30911   7.653   7.923   8.330  0.0145  0.1964  0.0921
93418W        W30912  34.470   4.974  16.735 -0.1496 -0.1764 -0.0424
93419W        W30913  13.965  12.436   6.456 -0.1696 -0.3084  0.0757
93420W        W30914  17.742  31.709  24.825 -0.1508 -0.1332 -0.3378
93421W        W30915  20.876   0.857  17.565 -0.0187 -0.1990  0.1492
93422W        W30916  22.660  27.293   3.940 -0.1409  0.0945 -0.1795
93423W        W30917  20.298  17.697  24.806  0.3043 -0.2106 -0.1502
93424W        W30918  13.498  13.997   6.295 -0.1360 -0.1435  0.1123
93425W        W30919  10.433   3.213   2.630  0.1213 -0.1412  0.2587
93426W        W30920  22.340  29.173  19.496  0.1035 -0.0895  0.0569
93427W        W30921   8.008   0.554  21.992  0.1149  0.0791 -0.1499
93428W        W30922  26.013  18.308   9.391  0.0076 -0.3953  0.3577
93429W        W30923  24.320  14.372  15.811  0.1096 -0.1110  0.2272
93430W        W30924  17.387  20.148   5.554  0.0991  0.1369 -0.1974
93431W        W30925  16.550   1.440   2.312  0.0952  0.0803  0.2262
93432W        W30926   7.237   9.973  22.052  0.1407  0.2842 -0.1142
93433W        W30927  13.702  27.208  14.677 -0.2233 -0.0075 -0.1159
93434W        W30928  12.304   3.978  22.230 -0.0756 -0.0392  0.1173
93435W        W30929   7.383  24.519   9.054 -0.2416 -0.5000 -0.4247
93436W        W30930  19.587   1.104   0.596  0.0976 -0.1105  0.1243
93437W        W30931   4.351  32.054   4.923  0.1718  0.2683  0.3115
93438W        W30932  15.551  23.708   9.068  0.4102 -0.2918  0.0479
93439W        W30933  12.799  32.483  24.366 -0.0636 -0.1691  0.1719
93440W        W30934   8.980   4.143  23.222 -0.1871 -0.1626 -0.1518
93441W        W30935  25.420   7.850  19.927  0.0934  0.1134  0.2876
93442W        W30936  21.629   2.757  19.957 -0.1440  0.0950 -0.3169
93443W        W30937  29.073  21.235   5.215 -0.0884 -0.0294 -0.1323
93444W        W30938   3.080   5.157  18.506 -0.2315  0.1557 -0.1601
93445W        W30939  15.358   0.499   1.127  0.0492  0.1385  0.0202
93446W        W30940   0.037  24.468  19.070  0.3583  0.0129  0.4008
93447W        W30941   7.259   6.873   2.341 -0.0644 -0.0266 -0.1385
93448W        W30942   8.710   3.890   3.220  0.1727  0.1442 -0.1454
93449W        W30943   3.560  26.440   9.131  0.3168  0.3775 -0.0538
93450W        W30944  34.272  11.893  22.419 -0.0091  0.1081  0.2129
93451W        W30945   4.594   1.107   0.517  0.1050  0.0530 -0.0987
93452W        W30946   9.039  23.553  14.393 -0.2732  0.2394 -0.0836
93453W        W30947   1.327  12.088  19.694  0.2200 -0.1330 -0.4287
93454W        W30948  12.333  18.022   4.618  0.1277 -0.0617 -0.0021
93455W        W30949  13.239   1.287   4.619  0.3922 -0.2585  0.0678
93456W        W30950  11.635   0.525   0.606 -0.1515 -0.3064 -0.1739
93457W        W30951  14.806  26.492   7.854 -0.1280 -0.3300 -0.1037
93458W        W30952  18.600  12.593  19.338  0.1950  0.3824  0.1440
93459W        W30953  33.052  20.055   4.973 -0.0508 -0.0094 -0.1154
93460W        W30954   0.477   6.323  21.438 -0.1000  0.1126  0.0782
93461W        W30955  18.290  20.930  11.538  0.0252 -0.1390  0.0101
93462W        W30956  20.760  18.164  19.780  0.2689 -0.1299  0.2391
93463W        W30957  18.597  32.883   9.870 -0.3818 -0.0998  0.2184
93464W        W30958  10.450  34.091   7.638 -0.0006  0.0759  0.0810
93465W        W30959  22.408   7.618   6.008 -0.0956 -0.0288  0.0636
93466W        W30960  25.511  29.896  17.422 -0.1701 -0.1968  0.1848
93467W        W30961  30.904  33.578  22.974 -0.0412 -0.2345  0.0664
93468W        W30962  28.462  19.715   8.976  0.1840 -0.0813 -0.0469
93469W        W30963  23.699  18.591  17.013 -0.1509 -0.0386  0.0604
93470W        W30964  21.089  22.044   2.828 -0.3119  0.0408  0.5060
93471W        W30965  34.423  23.982  25.888 -0.0609  0.3133 -0.1130
93472W        W30966  14.142   5.115   4.032  0.1046 -0.0806  0.0023
93473W        W30967   7.289  17.541  21.352 -0.4747 -0.0388  0.2131
93474W        W30968  16.088   9.240   4.606 -0.0066  0.1536  0.0093
93475W        W30969  34.930   3.582   7.152 -0.1678 -0.1366 -0.2271
93476W        W30970  15.268  34.719   7.761 -0.1399  0.1431 -0.0790
93477W        W30971  23.315   4.975  15.036 -0.0880  0.3104  0.1948
93478W        W30972  26.157  17.013  14.111  0.3329  0.0976  0.2137
93479W        W30973  32.683   1.629  23.863 -0.2390 -0.0480 -0.1345
93480W        W30974  15.642   4.430   6.068 -0.1214 -0.1582  0.2626
93481W        W30975   7.305  16.579   0.515 -0.1649 -0.3361 -0.1385
93482W        W30976  27.783  29.925   1.721 -0.1309 -0.1521  0.0298
93483W        W30977   5.550  31.426   2.780 -0.0423 -0.0698  0.3952
93484W        W30978   6.741  26.511  23.747 -0.2890  0.0528 -0.2825
93485W        W30979  26.313  21.682  15.347  0.1267 -0.0946  0.2320
93486W        W30980  30.779  30.300  24.846 -0.2463 -0.3964  0.0072
93487W        W30981  22.731  33.728  17.553 -0.0217 -0.2694 -0.0705
93488W        W30982   3.115   6.781   3.985 -0.2200  0.1998 -0.0362
93489W        W30983  12.183  29.668   7.483 -0.4180 -0.1348  0.0281
93490W        W30984   6.169  12.692   2.722  0.0558 -0.1120  0.0569
93491W        W30985  19.051  29.836   2.371  0.1722  0.1103 -0.0215
93492W        W30986   9.361  23.951   4.864  0.1844  0.1295  0.1872
93493W        W30987  25.109  29.547  15.070  0.1771  0.2872 -0.0632
93494W        W30988  18.671  18.810  12.245 -0.2552 -0.1525 -0.1773
93495W        W30989   0.615  26.495  16.738  0.1797 -0.0245  0.0569
93496W        W30990   7.997  20.831   2.852 -0.2563 -0.2703  0.0954
93497W        W30991  15.363  19.095  10.961  0.1859  0.2991  0.1502
93498W        W30992   1.902  33.789   2.789  0.0066 -0.1125  0.0566
93499W        W30993  25.648  27.562  19.455  0.0429  0.3209 -0.2057
93500W        W30994  29.277  13.803   8.304 -0.2107 -0.0340 -0.1528
93501W        W30995   1.286   9.405   2.473 -0.1165  0.0643  0.0300
93502W        W30996   0.411   1.407  24.740 -0.3073  0.1849  0.1458
93503W        W30997  31.231   9.805  12.146 -0.0304 -0.1460 -0.0269
93504W        W30998   8.895  35.186  10.075  0.0688 -0.0017  0.0956
93505W        W30999  20.869   1.943  22.794  0.1711  0.1103 -0.2330
93506W        W31000  26.630  15.731  11.371  0.2350  0.1035  0.0146
93507W        W31001  16.565   4.700  19.552  0.0017 -0.0322 -0.1067
93508W        W31002  20.986  34.491  17.757  0.0601 -0.1723 -0.3924
93509W        W31003  14.112  30.892  21.200  0.2756 -0.0099 -0.1493
93510W        W31004   3.978  14.941   4.349  0.1743 -0.0881  0.0199
93511W        W31005  13.802   4.942   5.098  0.1393  0.4434  0.3696
93512W        W31006  20.408  10.910   8.924  0.0785 -0.1961  0.1010
93513W        W31007  29.959  16.230  11.978  0.0400  0.1210 -0.5223
93514W        W31008  10.709  11.147  18.982 -0.0233  0.3138 -0.0671
93515W        W31009   3.336   1.277  23.698 -0.2798 -0.2089 -0.0784
93516W        W31010  16.439  34.374   1.776  0.1322 -0.0017 -0.0302
93517W        W31011  13.567   7.093  12.350  0.1044 -0.4666 -0.1869
93518W        W31012  33.481  33.920   2.459  0.1653  0.3517 -0.0464
93519W        W31013  27.147  27.022  25.694  0.2012 -0.1178 -0.0703
93520W        W31014   8.053  14.251  24.458 -0.2045 -0.2117 -0.0813
93521W        W31015  28.869   8.463  17.872 -0.2989  0.0790  0.0302
93522W        W31016  28.270  15.506  10.768  0.0118 -0.0093  0.1325
93523W        W31017  12.572   8.465  23.323  0.3101 -0.1706 -0.0782
93524W        W31018  32.547  29.693   4.881 -0.1039 -0.0071  0.0218
93525W        W31019  17.578   4.823  23.956  0.1088 -0.2270  0.0354
93526W        W31020   0.537  31.683  20.066  0.2004 -0.1024  0.0936
93527W        W31021  31.242   2.519  11.848  0.0056 -0.0860  0.0301
93528W        W31022  13.438   0.401  18.834 -0.1167 -0.0818  0.1113
93529W        W31023  32.836   1.075  19.557  0.2701  0.1246 -0.0998
93530W        W31024   3.403  16.802  18.133 -0.3432  0.0985  0.0675
93531W        W31025  10.716  21.055  16.046 -0.2191 -0.0317 -0.1787
93532W        W31026  26.168  28.086  16.584  0.0881  0.0766  0.3901
93533W        W31027  20.989  21.944  22.011 -0.1408  0.1310 -0.3489
93534W        W31028  25.645   7.371  19.489  0.0009 -0.0695  0.0153
93535W        W31029  27.526  22.432  17.145  0.0373 -0.1238 -0.0706
93536W        W31030  24.313   4.139  13.714 -0.0794  0.1505 -0.1375
93537W        W31031  20.303  18.149   8.678 -0.2402  0.0549  0.4976
93538W        W31032   9.203  21.083   4.791  0.2174  0.0232  0.2265
93539W        W31033   0.241  26.261   4.221 -0.0640 -0.2261 -0.0405
93540W        W31034   6.367   0.269  14.415  0.0327 -0.5111 -0.1905
93541W        W31035   5.435  33.409   8.003 -0.0976 -0.2403 -0.3193
93542W        W31036  16.435   7.218  21.211  0.1713  0.4720  0.1756
93543W        W31037   7.488   4.692   0.373  0.0419 -0.0754 -0.0951
93544W        W31038   3.729  11.100   4.584 -0.2695 -0.1141 -0.1289
93545W        W31039  23.461  11.809  25.684  0.1037 -0.1957 -0.0976
93546W        W31040  14.233  32.317  25.967 -0.0360  0.0392  0.0535
93547W        W31041  25.096  32.746  20.747  0.0405  0.0313  0.0066
93548W        W31042   5.205   8.573   0.742  0.1021 -0.0804  0.0313
93549W        W31043  25.560  29.728  16.178  0.3214  0.0608  0.1017
93550W        W31044   1.191  30.900  25.956  0.2150 -0.0037 -0.0128
93551W        W31045  29.561  17.907  11.153  0.2512 -0.2286  0.1639
93552W        W31046   2.181  19.903   0.398  0.0924 -0.0529  0.1531
93553W        W31047  35.271  25.352  16.368  0.3402 -0.2384  0.0896
93554W        W31048   3.221  27.463   2.450  0.4816  0.1385  0.1425
93555W        W31049  32.129  30.651  18.560  0.1303 -0.2857  0.0389
93556W        W31050   2.186  31.645   3.442 -0.1444  0.1036  0.1447
93557W        W31051  10.042  18.915   9.681  0.2002 -0.5360 -0.0745
93558W        W31052  14.979  25.704   3.729 -0.1203  0.0378 -0.1054
93559W        W31053  10.517  12.753   4.559  0.1548  0.2647  0.0495
93560W        W31054   6.533   4.393  10.411 -0.4118  0.0763  0.1017
93561W        W31055   4.716  34.530  23.932 -0.2193 -0.2345 -0.3003
93562W        W31056  17.922  14.065  11.629 -0.2765 -0.2162  0.0552
93563W        W31057  15.777  17.377   6.308 -0.0205  0.0883 -0.0299
93564W        W31058  26.544   5.339  12.178 -0.4950 -0.1832  0.1762
93565W        W31059  27.213   5.588   3.231 -0.3277  0.1093  0.3924
93566W        W31060   3.021  22.828  22.014 -0.1639  0.2362 -0.0386
93567W        W31061  31.672  20.446   6.108  0.0374  0.0359  0.1258
93568W        W31062  13.609   6.188   5.319  0.4420 -0.1062 -0.1873
93569W        W31063   6.829  21.988   6.427 -0.3547  0.3614  0.0523
93570W        W31064  29.201  10.482   7.126  0.0203 -0.3957  0.0593
93571W        W31065  26.291  26.633  10.139  0.0673  0.1575 -0.1236
93572W        W31066  33.131  19.241  26.021  0.0711 -0.0387  0.0397
93573W        W31067   4.728  17.804   2.303  0.0930 -0.0311 -0.1848
93574W        W31068  34.739  30.108  18.222 -0.1102  0.1546  0.1837
93575W        W31069  21.965  30.954   5.009 -0.0174  0.1487  0.0854
93576W        W31070  21.693  18.692   3.577 -0.0050 -0.0207  0.1705
93577W        W31071   9.078  27.309   2.097 -0.0553 -0.0291 -0.1264
93578W        W31072  31.841  23.612  20.839 -0.0241  0.1206  0.0265
93579W        W31073  30.075   0.023  18.926 -0.0042  0.1265  0.0546
93580W        W31074   7.354  15.223   3.238 -0.1551  0.0479  0.0365
93581W        W31075  27.110  34.487   2.174  0.2882  0.0182  0.3330
93582W        W31076  33.445  14.014  12.351 -0.4902 -0.0155 -0.0627
93583W        W31077  10.535   6.126   2.616  0.0886  0.1012  0.1248
93584W        W31078  34.799  27.746  13.586  0.1586 -0.1496  0.1783
93585W        W31079  34.676  29.821   0.843  0.2045 -0.0569 -0.4183
93586W        W31080  14.586  34.159   7.495  0.1889  0.0086  0.1911
93587W        W31081  25.390   2.790  19.929 -0.0773  0.3053 -0.2286
93588W        W31082  21.886  12.032   3.920 -0.1430  0.2467 -0.1026
93589W        W31083   5.448   6.159   7.935  0.1083  0.4016 -0.1612
93590W        W31084   0.180  31.633   3.264  0.3758 -0.2412  0.1701
93591W        W31085  27.189  33.177   1.778 -0.2894 -0.1260 -0.0170
93592W        W31086   7.027   2.443   2.238 -0.1331  0.0100  0.1254
93593W        W31087   0.477  10.787   2.048  0.0179 -0.0184  0.3071
93594W        W31088  15.006  12.367  13.385 -0.0424  0.0851  0.1210
93595W        W31089   8.635  24.602   1.348  0.2661  0.0251 -0.2426
93596W        W31090  26.727  22.416  14.697 -0.0500 -0.2445 -0.3544
93597W        W31091  11.174   3.935   5.355 -0.3388 -0.1455 -0.2230
93598W        W31092   7.079  32.502  22.220  0.3885 -0.2229 -0.0832
93599W        W31093  19.716  31.347   6.456  0.3465  0.1016  0.0443
93600W        W31094   5.324  15.811   1.662 -0.2153 -0.0385 -0.3150
93601W        W31095   8.722  10.342   5.629  0.1247 -0.2439 -0.0508
93602W        W31096  31.493  23.486  22.174 -0.0175 -0.0368  0.1697
93603W        W31097  25.344  10.997  14.817 -0.0212 -0.2792  0.2324
93604W        W31098   2.723  17.220   0.449  0.1515  0.1607  0.0090
93605W        W31099  24.360  31.212   1.552  0.4441 -0.1302 -0.1685
93606W        W31100  12.229  17.441   7.103 -0.0362  0.0549 -0.0772
93607W        W31101  27.341  11.770  15.822 -0.2814  0.1787 -0.0592
93608W        W31102  21.058  12.455  15.612  0.2276  0.2995 -0.3591
93609W        W31103  15.409   6.019   4.039  0.1239  0.1518 -0.0193
93610W        W31104  29.215   2.492  11.652 -0.0755  0.0870 -0.0506
93611W        W31105  20.169   5.195  20.616  0.0709 -0.2104  0.2726
93612W        W31106   6.523  13.876  18.214  0.1431  0.0383  0.0596
93613W        W31107   7.612  27.681   2.997 -0.1134  0.1052  0.2100
93614W        W31108   4.325  10.057   0.658 -0.0218 -0.0796  0.2393
93615W        W31109  31.441   5.897   3.196 -0.0530 -0.0881 -0.0637
93616W        W31110  25.155  20.515   0.227  0.1632 -0.2961 -0.1214
93617W        W31111   7.860  18.934  26.206 -0.0473 -0.2325  0.0256
93618W        W31112  27.235  28.197   2.644 -0.0132  0.3181 -0.2120
93619W        W31113  13.967  28.100  26.111 -0.1106 -0.0322 -0.2122
93620W        W31114  15.842  15.052  26.042  0.1481  0.0878 -0.1346
93621W        W31115  12.060   8.620  15.049  0.0380  0.0610  0.2369
93622W        W31116  18.997  35.095  23.962 -0.1205  0.1312 -0.3253
93623W        W31117  28.606  21.009  19.527 -0.2342 -0.2688 -0.2824
93624W        W31118  27.603  33.694  16.809  0.1303 -0.0894  0.0962
93625W        W31119  34.034  14.043  24.411 -0.2478 -0.1858  0.0779
93626W        W31120   6.518  17.810   9.465  0.2515 -0.0119 -0.0539
93627W        W31121  34.076  15.924  21.028  0.1472  0.0847  0.0292
93628W        W31122   4.429  19.183   2.314  0.2080 -0.4713 -0.1607
93629W        W31123  31.971  18.365  18.269  0.2052 -0.5204 -0.2102
93630W        W31124  26.851   2.613   1.473 -0.0949 -0.0225  0.1004
93631W        W31125  12.330  24.903  12.121  0.5270  0.0540  0.1613
93632W        W31126   6.413   0.140  24.283  0.0426 -0.0713 -0.0831
93633W        W31127  15.893  24.270   2.317 -0.2664  0.1020  0.3667
93634W        W31128  30.292  15.901  15.196 -0.0200 -0.3768 -0.0618
93635W        W31129  12.751   5.106  12.502  0.0975 -0.1753  0.0596
93636W        W31130  32.024  24.404  22.004  0.3550  0.0946 -0.1691
93637W        W31131   3.403  16.229  19.862  0.0309 -0.0026 -0.1269
93638W        W31132  31.863  18.759  10.314 -0.1346 -0.1507 -0.4192
93639W        W31133  34.863  28.324  20.326  0.3358  0.3421 -0.1405
93640W        W31134   8.332  20.392   6.405 -0.0960  0.0670  0.0005
93641W        W31135  19.897  16.230  16.863  0.0455 -0.1715  0.0591
93642W        W31136  19.600  31.159   0.862  0.1904 -0.1596 -0.1315
93643W        W31137   2.335  33.031   2.003  0.2873  0.2710  0.1115
93644W        W31138  34.879   6.357  20.912 -0.0044 -0.1601 -0.3053
93645W        W31139  14.920  19.783   7.101  0.3046 -0.0865  0.0957
93646W        W31140  19.739   3.630  24.625 -0.1383 -0.1350 -0.0620
93647W        W31141   1.964  19.368  12.652 -0.0776  0.2019 -0.0152
93648W        W31142   0.015   8.370  13.258  0.0460 -0.0075  0.1608
93649W        W31143   5.236   6.290  17.805 -0.3111  0.0704  0.0792
93650W        W31144  22.740  31.132   1.249 -0.0356  0.1853 -0.0205
93651W        W31145  23.024  26.438   4.029 -0.1920 -0.1691  0.2230
93652W        W31146   6.562  11.449  17.121 -0.1310 -0.4012 -0.2305
93653W        W31147  26.872  22.784  23.004 -0.1791  0.4557 -0.3291
93654W        W31148  10.181  15.936  22.166 -0.1255  0.0001 -0.0390
93655W        W31149  27.581  26.721   2.239  0.3034  0.2058  0.4137
93656W        W31150  24.310   6.542   1.798 -0.0075  0.1394 -0.0433
93657W        W31151  25.075  30.416   1.516  0.3782 -0.2165  0.1213
93658W        W31152  13.440   8.014   7.666  0.2831 -0.0752  0.0198
93659W        W31153   4.553   5.675   2.464  0.0477 -0.1013 -0.0321
93660W        W31154  10.037  11.776  25.968  0.0475  0.3404  0.1560
93661W        W31155  22.864   4.269   7.781 -0.1561  0.0611 -0.0039
93662W        W31156  20.391  34.647   0.919 -0.1876  0.0809 -0.0843
93663W        W31157  29.655  10.088   9.549 -0.1565 -0.0534  0.1032
93664W        W31158  28.361   4.746  10.456  0.0673 -0.2105 -0.1281
93665W        W31159   6.009  29.729  10.936  0.1139  0.1722  0.1448
93666W        W31160   6.676  21.998  25.361 -0.1740  0.1709  0.1041
93667W        W31161  15.927   3.787   1.973  0.0859 -0.0109 -0.1692
93668W        W31162   2.635  23.868   2.232 -0.1283  0.1058  0.2275
93669W        W31163  16.114   0.101   0.496 -0.2817 -0.2130  0.1671
93670W        W31164  18.504  32.460   1.854  0.0349 -0.2165  0.2114
93671W        W31165  16.402  12.309  23.534  0.1528 -0.2782 -0.0357
93672W        W31166  21.838  19.463  26.234 -0.1759  0.1228  0.0875
93673W        W31167  11.295  28.708  26.162  0.1871  0.0075  0.2383
93674W        W31168   3.148  33.931   2.746  0.4091 -0.2442 -0.0582
93675W        W31169  34.865   2.254   4.558  0.2245  0.0474  0.2654
93676W        W31170  18.609  20.890   9.241  0.1471 -0.1300  0.0556
93677W        W31171   0.670   2.292   2.241  0.1359 -0.1071 -0.0495
93678W        W31172  25.927  17.388   7.182 -0.0249 -0.2041  0.1709
93679W        W31173  25.317   1.271  17.360 -0.0495 -0.1880  0.0368
93680W        W31174   9.825  17.414  25.329 -0.1030 -0.2521 -0.0684
93681W        W31175  24.024  33.389  25.421  0.1903  0.0240 -0.1878
93682W        W31176   9.126  18.032  20.293  0.0698  0.3390  0.0396
93683W        W31177  26.092   5.135   1.144  0.1473  0.0286  0.0441
93684W        W31178  17.036  13.880  10.874 -0.1919  0.1992  0.0456
93685W        W31179   1.455  18.162  11.060  0.2203  0.0980  0.1031
93686W        W31180  12.537  10.710   2.208 -0.2236 -0.0229 -0.2256
93687W        W31181  35.249   9.369   0.593 -0.0292 -0.1287  0.0588
93688W        W31182  28.389  13.990  12.600 -0.1341  0.0647  0.1442
93689W        W31183   7.130   7.273  10.486  0.2592 -0.1941 -0.1209
93690W        W31184  22.906  15.895  23.381 -0.0418  0.0754  0.1563
93691W        W31185  25.384  18.079  12.167  0.2335  0.4023 -0.3334
93692W        W31186  34.913  18.655  16.807  0.1986 -0.0700 -0.1763
93693W        W31187  22.749  30.304  22.959 -0.1547  0.0335 -0.1777
93694W        W31188  15.938  11.472  11.994  0.1926  0.0867  0.0495
93695W        W31189  26.018   2.190  14.611  0.0537  0.1257  0.4169
93696W        W31190  19.279  31.788  19.655  0.0838 -0.0560 -0.2234
93697W        W31191   9.927  17.478   2.557  0.1988  0.1503  0.0061
93698W        W31192  34.585   0.009   6.187  0.0527 -0.0281 -0.2267
93699W        W31193  16.433   5.696   6.339 -0.1581 -0.0896 -0.1467
93700W        W31194  24.612   5.007  16.490 -0.0735  0.2158  0.1530
93701W        W31195  27.272  31.747  19.422  0.0233 -0.0609 -0.1078
93702W        W31196   1.247  17.352   0.566 -0.0811 -0.1403 -0.2447
93703W        W31197   1.382  32.827  18.410 -0.0771  0.1719 -0.0860
93704W        W31198  25.367   9.024   1.673 -0.0122 -0.1726  0.1884
93705W        W31199  28.969   5.836  24.075 -0.2331  0.1396  0.0403
93706W        W31200  18.907   6.755   1.334 -0.3255  0.3678  0.2139
93707W        W31201  19.584  21.867  25.487  0.1380  0.2258  0.0212
93708W        W31202  12.766  11.922   7.209  0.1991  0.1837 -0.2924
93709W        W31203   5.524  33.224   3.254 -0.2626 -0.2580  0.1533
93710W        W31204  12.037   2.546  20.808  0.2910 -0.2027 -0.1593
93711W        W31205  29.693  16.103  12.723 -0.0832  0.0065  0.1379
93712W        W31206  16.314  21.017  20.320 -0.1334  0.0931  0.0031
93713W        W31207  27.657  20.460   5.661 -0.0852 -0.1671  0.1036
93714W        W31208  17.250  11.534   5.378 -0.4700  0.3071  0.4141
93715W        W31209   3.688   3.949  24.566 -0.0936  0.1864  0.0869
93716W        W31210  30.492   4.745  21.673  0.1628 -0.2165  0.0194
93717W        W31211  23.247   3.426  13.203  0.2270  0.3937  0.2893
93718W        W31212  29.472   9.526  16.112 -0.1262  0.2259  0.1300
93719W        W31213   8.163   3.343   2.189 -0.1188  0.2947 -0.0235
93720W        W31214  20.789  19.735  20.251  0.1053 -0.1957 -0.2793
93721W        W31215  30.702   6.875   9.221  0.1170  0.2315 -0.0121
93722W        W31216  30.604   3.993  24.640 -0.1080 -0.1726  0.0926
93723W        W31217  26.986  11.910   0.366  0.0283  0.0191  0.1106
93724W        W31218  16.811  30.360   7.951 -0.1628  0.0169  0.1261
93725W        W31219  14.734  20.569  12.625 -0.0054 -0.0220 -0.2257
93726W        W31220  20.473  24.634  24.210  0.1937 -0.0152  0.6302
93727W        W31221  31.773  29.812  16.346 -0.1210 -0.2389 -0.1394
93728W        W31222  22.027  20.137   3.839  0.0627 -0.0781 -0.1800
93729W        W31223  27.804  25.358  26.123  0.1097  0.0761 -0.1034
93730W        W31224  18.220  14.309  12.318  0.0208  0.2290 -0.2361
93731W        W31225  16.452  24.300   0.632  0.0505 -0.0433  0.0221
93732W        W31226  17.914  31.191  21.236  0.1064  0.1884  0.0099
93733W        W31227  20.515  12.626  19.571  0.2185  0.0205 -0.3689
93734W        W31228  14.578  14.025  11.763  0.0420  0.4528  0.0223
93735W        W31229  26.804  27.679  11.146  0.1937 -0.0615 -0.0980
93736W        W31230  19.628  17.802  17.750 -0.1815 -0.1496  0.1149
93737W        W31231   6.527   0.338   4.891  0.1028  0.0386 -0.0039
93738W        W31232   0.572   1.374  25.825 -0.0360  0.4022 -0.0121
93739W        W31233   5.592  31.818  24.923 -0.1746  0.5002 -0.0683
93740W        W31234  24.357  17.200  18.013  0.1297 -0.2685  0.1511
93741W        W31235  34.701  15.900  21.396 -0.1523  0.1045 -0.2393
93742W        W31236  26.246   0.059   0.583 -0.4197  0.1220  0.0172
93743W        W31237   8.740  15.675  18.546 -0.2442 -0.2408  0.0884
93744W        W31238  33.078  32.202  23.041 -0.2494  0.0544 -0.0834
93745W        W31239  12.668  20.570   3.218  0.1724  0.0357  0.1590
93746W        W31240  24.183  34.941   5.499 -0.0704 -0.0463  0.3290
93747W        W31241  14.579  26.209  12.632  0.0046  0.1085 -0.1107
93748W        W31242   1.669  19.150  13.692 -0.0170  0.2954  0.2560
93749W        W31243  14.942  31.353  22.956 -0.2298  0.0436 -0.2424
93750W        W31244  23.532  11.246   1.294 -0.4956  0.0176 -0.0338
93751W        W31245   2.740  22.191  17.259 -0.0232  0.0227  0.0319
93752W        W31246   7.712  31.831  10.134 -0.1590  0.0906 -0.0111
93753W        W31247   5.615  17.542  23.502 -0.1194  0.3414 -0.1498
93754W        W31248   3.932  13.849   5.560  0.0545  0.1494  0.0147
93755W        W31249  30.303  32.774   0.047  0.3147 -0.2716 -0.3099
93756W        W31250   9.394  21.795   4.453 -0.0840 -0.0255  0.0331
93757W        W31251  21.277  32.020  19.198 -0.2102  0.0097  0.3207
93758W        W31252  32.365  16.796  14.590  0.0909  0.3078 -0.4647
93759W        W31253   5.340   0.881   4.046  0.1034  0.0269 -0.0798
93760W        W31254   6.861  16.609   8.132 -0.0768 -0.0248 -0.0368
93761W        W31255   8.400  12.621  19.216 -0.0444  0.3348  0.2921
93762W        W31256  34.157   9.503  25.926  0.0362  0.2687 -0.1264
93763W        W31257   8.670  29.343  11.104  0.3770  0.0235 -0.0726
93764W        W31258   7.416  33.677   5.450 -0.0247  0.4813  0.1510
93765W        W31259  15.509  18.220   5.262  0.0488 -0.2985  0.0986
93766W        W31260  14.869  34.596   1.177  0.0885 -0.0793  0.2815
93767W        W31261  29.757  34.406   3.787  0.0604 -0.0863 -0.0579
93768W        W31262  13.534  21.258   5.874  0.2826 -0.0452 -0.2007
93769W        W31263  25.944  22.646  23.540 -0.2685 -0.1673 -0.1293
93770W        W31264   1.153  22.468   1.738  0.1970  0.0759 -0.1275
93771W        W31265  10.913   4.052  25.842 -0.0290  0.0355 -0.0624
93772W        W31266  31.075  10.131  10.028 -0.1490  0.2424 -0.0310
93773W        W31267  34.983  20.161   9.759  0.3673  0.5057  0.0706
93774W        W31268  28.142  16.045   6.479 -0.1381  0.4809  0.2093
93775W        W31269  29.323  33.343   0.924 -0.2329  0.1240  0.1117
93776W        W31270   2.533  24.293  19.077  0.1394 -0.0778  0.2070
93777W        W31271   3.416  27.081  18.224 -0.2904 -0.1378 -0.0152
93778W        W31272   5.524  34.638   5.234 -0.1665 -0.2670  0.1635
93779W        W31273   9.693  10.982  25.871  0.0845  0.1385 -0.1357
93780W        W31274  14.883  30.550  21.270  0.0045  0.1166  0.1842
93781W        W31275   5.791  21.402   6.305 -0.1424 -0.0715 -0.0299
93782W        W31276  18.747  17.997   6.155  0.1149 -0.3357  0.0320
93783W        W31277   6.821   9.431   4.037 -0.0939 -0.1177  0.0120
93784W        W31278  15.729  19.500  20.803  0.0370  0.4662 -0.0139
93785W        W31279   3.220  31.561  11.822 -0.1785 -0.2922 -0.1969
93786W        W31280  16.084  30.028  11.795 -0.0019 -0.0545  0.0925
93787W        W31281  29.073  28.323  17.842 -0.1630  0.1297 -0.0293
93788W        W31282   5.216  32.561   7.250 -0.0380  0.0565  0.0126
93789W        W31283  23.254  30.150   0.196  0.1487  0.2240 -0.0235
93790W        W31284   2.570  34.141   0.310 -0.0753  0.0168 -0.0882
93791W        W31285  29.689  15.485  24.372 -0.1899  0.0353  0.0938
93792W        W31286  13.197  32.750  25.290 -0.0683  0.0452  0.0919
93793W        W31287  30.697  27.394  14.330 -0.0373  0.2733  0.0797
93794W        W31288   0.831  25.850  16.393 -0.1536  0.2515 -0.0095
93795W        W31289  10.457   6.606   9.850  0.1172 -0.1558  0.0798
93796W        W31290   1.587  22.893  13.488 -0.1095 -0.1009  0.3871
93797W        W31291   2.582   7.155  16.620 -0.0278  0.3015 -0.1421
93798W        W31292  27.014   9.932  12.977  0.3273  0.0742 -0.1421
93799W        W31293  15.766   2.312  24.306  0.0778 -0.0933  0.0922
93800W        W31294  34.781  19.594   9.148  0.0405  0.0446 -0.1465
93801W        W31295   9.680  19.945  24.991  0.2886  0.1061  0.1635
93802W        W31296  24.140  11.667  22.424  0.1706 -0.0021  0.0130
93803W        W31297  16.439  11.466  22.367 -0.3204  0.1143 -0.2307
93804W        W31298   5.564   7.563  24.355  0.0974 -0.0732 -0.1997
93805W        W31299  31.295  30.448   3.343 -0.4245  0.1607  0.0776
93806W        W31300  20.638   5.081  21.136 -0.2593 -0.0491 -0.4611
93807W        W31301   8.414  10.476  12.632 -0.4034  0.1916  0.3760
93808W        W31302   9.907  27.730  25.815  0.0139  0.2143  0.5110
93809W        W31303   5.741  33.193   6.237  0.1716 -0.1155 -0.0454
93810W        W31304  33.358  20.964   6.815 -0.0693 -0.0541 -0.0916
93811W        W31305  15.257  22.129  24.681  0.4091  0.4411  0.0365
93812W        W31306  21.601  25.231  21.062 -0.3276  0.2111 -0.1902
93813W        W31307  18.437   0.275   4.143 -0.1851 -0.2226 -0.7423
93814W        W31308   2.736   2.605  19.817  0.0766 -0.1807  0.1450
93815W        W31309  28.088  24.132  12.180  0.0585  0.0829  0.0353
93816W        W31310  34.942   6.489   0.060 -0.1556 -0.0031 -0.0417
93817W        W31311  12.882  16.830  10.818  0.0753  0.0271  0.1583
93818W        W31312   4.440   9.657  16.525  0.2280  0.1939 -0.1288
93819W        W31313   0.919   1.940   3.106 -0.0071  0.1013 -0.1397
93820W        W31314   3.261  11.340  16.574  0.0751 -0.0911 -0.1592
93821W        W31315  21.756  24.123  24.453  0.2322  0.0080 -0.1016
93822W        W31316  16.847  16.539   2.951 -0.1890  0.0496  0.1087
93823W        W31317  17.079  20.727  13.725  0.0587  0.1523 -0.0467
93824W        W31318  22.822  21.447  19.070 -0.0999  0.0934  0.0917
93825W        W31319   5.371  24.290  25.420 -0.0602 -0.0693 -0.1930
93826W        W31320  28.785   9.130  21.469 -0.0342  0.0314 -0.2501
93827W        W31321  35.205  16.885  18.858  0.0543 -0.1401 -0.1533
93828W        W31322   5.086  34.533  22.437 -0.0897 -0.0296  0.0248
93829W        W31323  26.197   7.104  25.581  0.3120  0.1203 -0.0521
93830W        W31324  15.524  10.322   9.122 -0.2404 -0.1338 -0.0990
93831W        W31325  16.153  11.461  10.759  0.2232  0.0210  0.0796
93832W        W31326  28.264  31.670  22.365  0.1804  0.0163 -0.1201
93833W        W31327  23.479   2.421  16.007  0.1678 -0.2902 -0.2129
93834W        W31328  14.905  27.141   6.416  0.3240 -0.1040  0.1092
93835W        W31329   4.943  10.748  15.842  0.0263  0.2411  0.0754
93836W        W31330  24.325  17.992  17.659 -0.0030 -0.1211  0.2117
93837W        W31331   7.547   2.526   4.834  0.1290 -0.0696 -0.1944
93838W        W31332  12.153   7.800  13.320 -0.1689  0.1488  0.4732
93839W        W31333  26.535   1.002   0.746 -0.0182  0.2702 -0.1645
93840W        W31334   7.665  14.123   3.011  0.0223 -0.2800  0.0673
93841W        W31335  22.197  31.723  16.112  0.1995 -0.1587  0.0391
93842W        W31336   6.118  33.975  11.526  0.0863  0.3456  0.3577
93843W        W31337   6.667   6.336  23.470 -0.1650  0.1597  0.2675
93844W        W31338   7.732  17.815  21.335  0.1924  0.0078 -0.0496
93845W        W31339   9.545  24.672   7.606 -0.0375  0.1674 -0.0719
93846W        W31340  17.028   8.434  11.653  0.2576  0.1861 -0.0307
93847W        W31341  16.155  21.559  10.073 -0.2288  0.2320 -0.0267
93848W        W31342  30.171  10.652  22.384 -0.0892 -0.1038 -0.2105
93849W        W31343  30.799  10.506  12.562  0.1021 -0.1160 -0.0819
93850W        W31344  20.473  16.220  23.610  0.1932  0.1398  0.1927
93851W        W31345  16.464  28.301   6.676 -0.0550 -0.0830  0.3141
93852W        W31346  25.995  26.411  11.693 -0.0166  0.0801 -0.3729
93853W        W31347  17.753   8.116   4.887  0.2092  0.2121  0.1913
93854W        W31348  30.065  20.888  12.566 -0.0206 -0.1328  0.0909
93855W        W31349  29.662  32.231  16.862  0.1037 -0.3865 -0.2773
93856W        W31350  22.392  13.139   2.275  0.1898 -0.2289 -0.0600
93857W        W31351  18.789   7.917   2.687 -0.0374  0.1445 -0.2834
93858W        W31352  34.412  32.281  25.118 -0.1229 -0.2223  0.1203
93859W        W31353  30.555  14.656   4.365  0.1420  0.1197 -0.0000
93860W        W31354   9.079   3.639  21.506  0.0140  0.1132 -0.0895
93861W        W31355  30.526  13.129  22.352  0.2045  0.2064 -0.0150
93862W        W31356  35.272   9.646  24.591  0.1499  0.1005 -0.0628
93863W        W31357   4.635  17.950   4.291  0.1124 -0.0283  0.0420
93864W        W31358  27.995  26.803  18.835  0.2411  0.0279  0.1505
93865W        W31359   4.598   4.928   6.736 -0.0125  0.1068 -0.1371
93866W        W31360   8.996  22.724  13.315  0.2079 -0.5792 -0.0594
93867W        W31361  14.811  33.152  12.490  0.2041 -0.4502  0.2131
93868W        W31362  20.044   0.137  17.614  0.2537  0.4199  0.3465
93869W        W31363   9.924  15.684  19.992  0.4780  0.5523 -0.0692
93870W        W31364  20.775  22.956   0.385 -0.4814 -0.1734 -0.2008
93871W        W31365  30.899  22.117  22.019  0.0104 -0.1729 -0.2483
93872W        W31366  34.027  13.310  23.907  0.1931  0.3191 -0.1628
93873W        W31367  32.172  28.542  24.528  0.0568 -0.2020  0.1887
93874W        W31368  31.262  17.309  23.518 -0.3447  0.0644  0.4962
93875W        W31369  26.541  26.368  16.969  0.2018 -0.1892 -0.1583
93876W        W31370  22.959  35.257  26.090 -0.0911 -0.0725  0.4177
93877W        W31371  24.022  32.098   5.560  0.2634  0.1227 -0.0617
93878W        W31372   2.915  34.500  20.252 -0.0525  0.3056  0.0347
93879W        W31373  28.742   4.746  25.250 -0.1675  0.1053 -0.0266
93880W        W31374   5.167   2.034   8.446  0.0113  0.0764 -0.0401
93881W        W31375  23.625  35.049   0.739  0.1334 -0.1081  0.0383
93882W        W31376  26.759  14.031   8.591 -0.0668 -0.0163  0.0475
93883W        W31377  18.794  21.118  19.452  0.0496 -0.3583  0.1638
93884W        W31378  21.777  24.814   1.887  0.1110 -0.3533  0.2114
93885W        W31379  16.117  10.080  10.677  0.0751  0.1008  0.0582
93886W        W31380  24.414  11.135  25.979  0.0912 -0.2089 -0.1444
93887W        W31381  12.792  34.769  25.770  0.0471 -0.5102  0.0212
93888W        W31382  10.310  14.884   6.319  0.1082 -0.3720  0.1744
93889W        W31383  35.223   5.897  25.174  0.1705 -0.1386 -0.1490
93890W        W31384   0.914  32.668  17.645  0.1570  0.1374 -0.1256
93891W        W31385  28.333   0.163  14.625 -0.1250 -0.0380 -0.1497
93892W        W31386  17.586  30.356  19.912  0.1044 -0.4454 -0.0090
93893W        W31387   8.643  21.140   8.402 -0.4245  0.4144  0.0156
93894W        W31388   3.571  17.967  20.588 -0.0601  0.0437 -0.0891
93895W        W31389  25.313  34.751  19.619 -0.0419  0.0912 -0.2379
93896W        W31390  17.325  20.772   0.892  0.0342  0.4053 -0.2879
93897W        W31391  13.869  31.704  23.262 -0.4606  0.2655 -0.0611
93898W        W31392  11.603  11.372  10.004  0.1777 -0.1413  0.2380
93899W        W31393  14.542  24.834  13.685 -0.1043 -0.1442  0.0755
93900W        W31394  14.929  23.240  11.226 -0.2912  0.1940  0.0506
93901W        W31395  26.364  27.112   0.556 -0.0966 -0.0098  0.5467
93902W        W31396  27.664  20.860  15.046  0.1003 -0.1107  0.1642
93903W        W31397  17.693  31.920  26.072 -0.1558 -0.2512  0.1182
93904W        W31398  18.293  18.112   6.654  0.2519 -0.1314  0.1356
93905W        W31399  24.318  27.760  20.938  0.2529  0.1008 -0.0922
93906W        W31400  20.366  26.591  25.053 -0.0907 -0.0676 -0.3243
93907W        W31401  25.729   9.244  26.119 -0.0118  0.0133 -0.0412
93908W        W31402  15.229  29.006   3.285 -0.2063 -0.0056  0.0771
93909W        W31403  16.773   9.658  22.118  0.4003  0.1578 -0.0170
93910W        W31404  22.064   8.190  25.051 -0.2490  0.0488  0.0010
93911W        W31405  21.331  28.576  19.427 -0.1242 -0.0832 -0.0048
93912W        W31406  12.806  34.574   8.599  0.0418 -0.1860  0.0633
93913W        W31407   3.502  30.323   5.111  0.1568 -0.0674  0.0134
93914W        W31408  14.484  13.256  25.394  0.1345  0.0211 -0.1201
93915W        W31409  22.047   1.444  17.657  0.1159 -0.3380 -0.3321
93916W        W31410  10.256  13.540  20.907 -0.0459  0.3422 -0.2827
93917W        W31411  33.796   5.932  12.296  0.3082  0.0797  0.1356
93918W        W31412  25.802  22.011  16.072  0.2671  0.1745 -0.0982
93919W        W31413  35.094  18.272  12.810 -0.2633 -0.2241  0.1225
93920W        W31414  22.899  15.272  17.334  0.0733  0.1014  0.0195
93921W        W31415   0.063  12.243  11.129 -0.1187 -0.1210  0.3755
93922W        W31416   8.987  12.717  10.426  0.1401 -0.2139  0.0109
93923W        W31417   3.768  34.131   7.200 -0.1040 -0.0052  0.1061
93924W        W31418  33.708  30.303  14.190 -0.2141 -0.2284 -0.0826
93925W        W31419  26.818  29.964  10.317  0.1376 -0.2009 -0.1871
93926W        W31420   9.882   1.329  12.044 -0.4516  0.0689  0.1783
93927W        W31421  33.017  17.294   7.971 -0.0700  0.0240  0.1586
93928W        W31422  11.604   6.890   9.023 -0.2899  0.1205  0.0157
93929W        W31423  23.781  10.946   2.011 -0.0945 -0.4258 -0.1949
93930W        W31424  32.784   9.998  23.676 -0.3232  0.1281  0.0800
93931W        W31425  17.795  28.486  23.379 -0.2042 -0.0446 -0.4451
93932W        W31426  18.913  20.755  22.491  0.0515 -0.0448  0.2972
93933W        W31427  20.417  13.565  19.184  0.0081  0.2174 -0.2054
93934W        W31428  34.009  13.119  10.965  0.3401  0.2495 -0.5536
93935W        W31429  27.558   3.708  14.205  0.0242  0.0294 -0.1208
93936W        W31430  34.762  17.271  10.525 -0.0500  0.4735  0.0628
93937W        W31431  20.154  27.726  26.246 -0.0503  0.2014  0.0960
93938W        W31432  14.963  20.415  22.253  0.0097  0.0240 -0.1327
93939W        W31433   8.081  30.626  10.786  0.1445  0.2264  0.0605
93940W        W31434   4.521  34.670  12.193  0.1757 -0.3485 -0.1635
93941W        W31435   7.520  16.358   4.632 -0.2295 -0.1462 -0.0186
93942W        W31436  14.055  35.342   4.480  0.2125 -0.1196  0.1707
93943W        W31437  14.104  31.245  24.338  0.2474 -0.0900  0.1262
93944W        W31438   8.762  28.098   3.056 -0.2391  0.1666 -0.0571
93945W        W31439   1.429  23.180  11.314  0.1372  0.0401 -0.2639
93946W        W31440  27.849  20.723  16.314  0.5766 -0.0944  0.3709
93947W        W31441  19.361  14.761  22.052  0.0159  0.0700 -0.1247
93948W        W31442  27.678  28.196  18.939 -0.1963 -0.0590 -0.2417
93949W        W31443   7.479   0.282  24.419  0.2782  0.1212 -0.0489
93950W        W31444  28.019  11.147  15.935  0.4030  0.0083 -0.2341
93951W        W31445   7.394  27.423   6.180 -0.4074  0.3192 -0.0661
93952W        W31446  29.759  18.213  17.748 -0.2023 -0.0111  0.2450
93953W        W31447  34.423  31.249   2.506 -0.1535  0.3237  0.0817
93954W        W31448  19.840   7.175  25.457  0.1892 -0.1591 -0.1947
93955W        W31449  24.777  34.171  22.433  0.0283 -0.0074  0.0890
93956W        W31450  33.865   2.079  23.539  0.3160  0.0843  0.2481
93957W        W31451   4.317  10.504  19.061  0.0268  0.1062 -0.0174
93958W        W31452  13.899   2.650   2.844  0.1137 -0.0887 -0.2033
93959W        W31453  10.791   7.975   7.918  0.0156 -0.0936  0.0957
93960W        W31454   3.624  10.756  21.193  0.4131  0.1520  0.2082
93961W        W31455  30.420  19.894   9.673 -0.0578 -0.1052  0.1550
93962W        W31456  16.289  17.082  10.023  0.2445 -0.3078  0.1416
93963W        W31457  26.535  29.226  14.433  0.0195  0.1757 -0.2096
93964W        W31458  11.698  21.013   9.656 -0.0160 -0.1211 -0.0532
93965W        W31459  21.584  16.932  15.575 -0.0503 -0.1795  0.2614
93966W        W31460  29.700  31.462  14.620 -0.0882  0.2108  0.0056
93967W        W31461  19.077   0.880  23.113 -0.3449  0.0361 -0.3507
93968W        W31462  28.216  10.661  16.103  0.2813  0.1745 -0.0824
93969W        W31463  14.893  10.300  20.647  0.1328 -0.2472 -0.0385
93970W        W31464  21.178  24.574  18.546  0.5832 -0.1860  0.1236
93971W        W31465  19.939  35.121  14.216 -0.1779 -0.0555 -0.0999
93972W        W31466   0.142  25.870  18.635 -0.2151 -0.1678 -0.0475
93973W        W31467   9.620   8.720  24.630 -0.2819  0.1341 -0.1055
93974W        W31468  19.503  24.655   9.302 -0.2428  0.0301 -0.3750
93975W        W31469  10.986   5.334   7.095 -0.0681 -0.2744 -0.0231
93976W        W31470  27.176   9.965  14.342 -0.3793  0.1535  0.4162
93977W        W31471   2.958  15.314  26.072 -0.2166 -0.2661 -0.2167
93978W        W31472   8.596  11.627  21.373  0.0456 -0.0153 -0.0170
93979W        W31473  22.829  14.706  19.140 -0.1522  0.0487 -0.1007
93980W        W31474  28.859  15.504   8.779 -0.2031 -0.2992  0.1659
93981W        W31475  25.795  33.437  14.576  0.0091  0.0989 -0.2484
93982W        W31476  10.113  12.546   0.622 -0.1207  0.0677 -0.0876
93983W        W31477  34.725  24.661   1.261  0.1047 -0.1243  0.0613
93984W        W31478  21.595  13.028   5.855  0.0179 -0.1267  0.0578
93985W        W31479  12.103  34.066  15.458 -0.1796 -0.1670 -0.0668
93986W        W31480  17.136  32.298  22.100  0.1087  0.0014  0.2110
93987W        W31481  18.451   6.996  20.733 -0.1541 -0.1391  0.2981
93988W        W31482  30.489  10.771   0.812  0.2680  0.2288 -0.0231
93989W        W31483  13.231  19.018  22.005  0.2734  0.3357 -0.4061
93990W        W31484   2.351  34.852  20.299  0.1453 -0.1287  0.0818
93991W        W31485  11.996  26.587  23.779 -0.0429  0.0885  0.1563
93992W        W31486  14.408  25.486   2.662 -0.0321 -0.0434  0.1814
93993W        W31487   9.440  24.075   6.322 -0.0666  0.0115 -0.0285
93994W        W31488   4.477  28.999   4.433 -0.2467  0.1235  0.2634
93995W        W31489  31.328   0.621  18.833  0.0516 -0.2541  0.0397
93996W        W31490  14.625  16.434  11.819 -0.1561  0.2601  0.1878
93997W        W31491   9.788  32.846   3.633 -0.4027 -0.2626  0.0627
93998W        W31492  21.656   4.800  18.912  0.0846 -0.1388  0.2705
93999W        W31493  27.029   7.730  18.657 -0.1452  0.0548  0.1223
94000W        W31494  33.232  28.969   1.228 -0.3152  0.3478 -0.1209
94001W        W31495  33.154  32.394  15.936  0.0097 -0.1516 -0.2238
94002W        W31496  26.411  14.673  20.957  0.1323 -0.2269  0.0855
94003W        W31497  10.478  19.832   7.444 -0.0642 -0.0493 -0.3577
94004W        W31498  27.177  33.064  20.486 -0.0498  0.0360 -0.1264
94005W        W31499   7.666  31.668   2.814  0.2773  0.0004 -0.0065
94006W        W31500   9.412  32.540  21.254 -0.1046  0.2405 -0.4388
94007W        W31501   2.437  27.138  21.883  0.0317  0.1345  0.0850
94008W        W31502  18.535  31.324   3.700  0.5350 -0.0464  0.0251
94009W        W31503   6.700  23.802  24.389 -0.1123 -0.0583  0.1130
94010W        W31504  19.999   9.273  22.221 -0.1318  0.0647  0.0839
94011W        W31505   2.071  31.541  25.799  0.2134  0.1679 -0.0184
94012W        W31506  21.076   9.680  21.063  0.0538 -0.0259  0.2179
94013W        W31507  33.870  14.140   7.892 -0.0022 -0.1193 -0.0930
94014W        W31508  24.193  10.411  18.705  0.2804 -0.0709  0.0150
94015W        W31509   0.578  25.565  18.658 -0.1124 -0.0032 -0.1093
94016W        W31510  15.879  28.676   6.013 -0.0849  0.4118 -0.0561
94017W        W31511  24.954  32.779  11.263 -0.0713  0.0388 -0.3012
94018W        W31512   0.237  21.139   9.475 -0.0625  0.0358 -0.0072
94019W        W31513  33.415  31.454  20.320  0.0587 -0.0883 -0.1121
94020W        W31514   7.867   2.963  10.630  0.1524 -0.4540  0.0666
94021W        W31515  35.021   9.942   2.035  0.3390 -0.0265  0.1130
94022W        W31516   9.980   1.940   6.479  0.0843 -0.3785 -0.0308
94023W        W31517  20.453  11.500   7.162 -0.3982 -0.0409 -0.0954
94024W        W31518  30.962   8.886   0.575 -0.1306  0.1367  0.1270
94025W        W31519  20.232  30.902  19.190 -0.1249  0.1233  0.0017
94026W        W31520   3.773  31.866  24.415 -0.2046 -0.2006 -0.0539
94027W        W31521   0.406  18.213  25.610 -0.1449 -0.4883  0.0762
94028W        W31522  24.952   7.542  22.098 -0.0432  0.0791  0.1751
94029W        W31523  16.640  12.434   0.432 -0.0108 -0.0870 -0.0945
94030W        W31524   6.286  16.859   4.684 -0.1652 -0.0118 -0.1820
94031W        W31525  21.783  30.823  18.027 -0.0315 -0.0200  0.1334
94032W        W31526   5.796  27.679  13.330  0.0466  0.3005 -0.0280
94033W        W31527  29.164  24.874  12.852 -0.1618 -0.1884  0.0509
94034W        W31528   0.172  23.347  22.056 -0.0426 -0.0843  0.1791
94035W        W31529  26.987   9.768   1.059 -0.3275 -0.3089 -0.0897
94036W        W31530   0.144  13.778  18.725  0.5944  0.1215  0.2577
94037W        W31531  13.511  18.459  25.351  0.0746 -0.0027  0.0877
94038W        W31532  25.658  13.751  17.464  0.0146 -0.1187 -0.1634
94039W        W31533   8.610  25.559   4.009 -0.2081 -0.0468  0.0613
94040W        W31534  25.578   2.334   2.729  0.3563 -0.3238  0.2142
94041W        W31535   2.746  27.745  18.817  0.1833  0.3342  0.1653
94042W        W31536  18.466   8.477  21.363 -0.2024  0.0489 -0.1054
94043W        W31537  31.634  25.793  12.662  0.2102  0.1466 -0.0865
94044W        W31538  17.812  22.895  21.720  0.1008 -0.0543  0.1908
94045W        W31539  18.006   4.214   3.977  0.3071 -0.0625 -0.2141
94046W        W31540  15.311   7.487   2.371 -0.1875  0.0297 -0.0559
94047W        W31541   9.567  12.092   8.333  0.0836  0.0761  0.1514
94048W        W31542  14.500  32.787   9.052 -0.3775 -0.3610 -0.1193
94049W        W31543   4.632   5.383  25.156 -0.0906 -0.0984 -0.0709
94050W        W31544  19.442  20.201  24.414  0.0249  0.5270 -0.3802
94051W        W31545  18.301  25.837   6.107  0.2262  0.2344  0.3064
94052W        W31546  28.798   4.509   2.968  0.2480 -0.0445 -0.5362
94053W        W31547  27.881  32.043  15.499 -0.2509 -0.2076 -0.1850
94054W        W31548  30.092  10.313  25.760  0.0760  0.2760 -0.3190
94055W        W31549  14.048  16.256   1.296 -0.3541  0.0563  0.1262
94056W        W31550  29.885   2.018  15.401  0.1709  0.0175 -0.2524
94057W        W31551  32.900   2.242   2.621 -0.0008 -0.1375  0.1239
94058W        W31552  30.222  31.431  16.817  0.1623  0.1485  0.2498
94059W        W31553  31.375  18.774   9.458 -0.2634  0.0426  0.0989
94060W        W31554  23.102  22.971  15.222 -0.2374 -0.2420 -0.2842
94061W        W31555  11.743  35.207   7.926  0.1073 -0.3943 -0.1262
94062W        W31556  21.829   7.339   0.426  0.1910 -0.0453 -0.0711
94063W        W31557   0.880  31.892  21.510  0.1719  0.0790 -0.0806
94064W        W31558   9.171   7.528   2.278 -0.0728 -0.0144  0.3539
94065W        W31559   4.185  13.109   7.356 -0.1760  0.1502 -0.1224
94066W        W31560   3.199  16.699  16.669 -0.2239 -0.0734 -0.0282
94067W        W31561  25.346   9.311  13.156  0.1224  0.4744  0.2160
94068W        W31562  15.114  12.257   8.419 -0.1762 -0.0768  0.1380
94069W        W31563  31.158  34.099   3.511  0.0206  0.0538 -0.0593
94070W        W31564  11.030  29.790   1.628 -0.1989 -0.0023  0.2763
94071W        W31565  12.615  22.408  17.506 -0.1614 -0.1037  0.1383
94072W        W31566   1.820  22.775   1.492 -0.0594  0.0625  0.1958
94073W        W31567  12.628   4.080   5.217  0.0578  0.2775  0.1395
94074W        W31568   0.157   5.757   4.123 -0.0173 -0.1616 -0.0670
94075W        W31569  17.303   0.508   4.207  0.0801  0.1266 -0.0794
94076W        W31570  19.472  30.352  24.565  0.0795 -0.1350  0.3867
94077W        W31571   7.403   3.852  20.353 -0.4165 -0.1445 -0.2042
94078W        W31572  22.890  12.653  25.734 -0.2386  0.1425 -0.0772
94079W        W31573  25.091  28.195  24.935  0.3268  0.0443 -0.1064
94080W        W31574   2.258   7.194   4.266  0.0900 -0.2356 -0.0492
94081W        W31575  33.407  15.886  18.055  0.1038  0.2888 -0.3245
94082W        W31576  33.608  24.823  21.252 -0.4063 -0.1012 -0.2515
94083W        W31577   8.924   0.995   0.275 -0.2776  0.4014  0.2440
94084W        W31578  13.038  27.129   3.489  0.3377 -0.3674 -0.0527
94085W        W31579  27.078  18.847  16.613 -0.0484 -0.0914 -0.1364
94086W        W31580  19.590   5.676  24.799  0.0863  0.0408 -0.2327
94087W        W31581   6.820   0.365   4.499  0.0938 -0.1639 -0.0502
94088W        W31582  28.170  27.725   1.303 -0.1752 -0.3573  0.1600
94089W        W31583  26.803  32.666  22.756 -0.0007  0.1712  0.2274
94090W        W31584  23.911  33.973  21.367  0.0200 -0.1828  0.2954
94091W        W31585  16.460   1.716   6.225 -0.1135  0.2793 -0.0438
94092W        W31586  34.998  29.272   2.101 -0.0646 -0.2901  0.0822
94093W        W31587  28.599  29.058  14.360 -0.3648 -0.1216 -0.1184
94094W        W31588  21.094   1.546   2.677 -0.1775 -0.1918 -0.2073
94095W        W31589  11.853   7.031   3.912  0.0522 -0.1122 -0.1704
94096W        W31590  16.070  33.245  23.239 -0.0539 -0.3791 -0.0583
94097W        W31591  14.155  28.009  10.091 -0.0144 -0.3326  0.1065
94098W        W31592  28.416  16.456  10.587 -0.2282 -0.1874  0.0285
94099W        W31593  12.771   3.450  19.307  0.1495 -0.2853  0.2064
94100W        W31594  16.313  32.212   4.163  0.1541 -0.0346 -0.1799
94101W        W31595  32.546  20.373  22.935  0.0163 -0.0087 -0.0473
94102W        W31596  13.083  14.240  19.126 -0.0843 -0.0973 -0.0086
94103W        W31597   7.293  19.302  25.643 -0.0483 -0.3348 -0.0136
94104W        W31598   5.679  26.098  10.870 -0.2520  0.0451 -0.0469
94105W        W31599  14.699  12.116   8.200 -0.3769  0.1379 -0.0108
94106W        W31600  13.577  18.675   6.610 -0.1105 -0.0650  0.0831
94107W        W31601   2.427   9.513  15.467  0.1683 -0.1504  0.1517
94108W        W31602  30.830  13.500  21.984  0.2956  0.2132  0.0812
94109W        W31603  30.175  34.065  12.097 -0.1369  0.1682 -0.0883
94110W        W31604   8.118   3.229  13.844 -0.0776 -0.3107  0.4249
94111W        W31605  31.059  14.265  17.798  0.0912  0.2381 -0.0395
94112W        W31606  16.873   3.706  19.885 -0.1802  0.2467 -0.0134
94113W        W31607  34.791  34.941  16.582  0.1175 -0.1191 -0.2276
94114W        W31608   1.655  33.713   7.016 -0.1015  0.0318  0.1101
94115W        W31609   4.834  14.277  25.409 -0.0296 -0.0221 -0.3707
94116W        W31610  31.861  15.765  24.596 -0.1299  0.0769  0.1461
94117W        W31611  26.658   0.410   2.356 -0.0180  0.2143 -0.4364
94118W        W31612  34.217  32.805   8.110  0.2330 -0.1535 -0.2114
94119W        W31613  22.087   3.109   4.831  0.1860  0.0820 -0.4592
94120W        W31614   0.263  10.223  25.372 -0.2159  0.2922  0.2323
94121W        W31615   4.725  33.036  11.005  0.0005  0.0770  0.0252
94122W        W31616  26.752  12.838  22.618  0.0614 -0.0409 -0.0122
94123W        W31617   3.165  15.761  16.817 -0.3176  0.1907  0.1092
94124W        W31618   8.338  33.445  10.453 -0.2466 -0.0368  0.2960
94125W        W31619   8.211   2.492  20.204 -0.1052  0.1758 -0.0866
94126W        W31620   1.812   4.640  26.162  0.1789 -0.2240 -0.1645
94127W        W31621  10.054  13.920   8.031  0.0304 -0.2989 -0.1861
94128W        W31622  26.404   5.339  11.674 -0.0473 -0.0478 -0.2154
94129W        W31623  21.846  11.023   3.481  0.1779  0.1266  0.2540
94130W        W31624   1.168  19.835  10.635 -0.0456 -0.0793  0.1100
94131W        W31625  17.957  17.793  11.636  0.0211  0.3023 -0.0199
94132W        W31626  30.008   2.227  12.852  0.0076  0.3325  0.2817
94133W        W31627  21.461  31.267  23.383 -0.0542  0.0975 -0.0738
94134W        W31628  33.913  25.608   0.937 -0.0592 -0.0772 -0.2868
94135W        W31629   2.093  13.853  26.112 -0.1191  0.3425  0.1082
94136W        W31630  13.354   0.614  23.471 -0.1054  0.0590 -0.1227
94137W        W31631  13.292  25.688  12.728 -0.0598 -0.1504 -0.2433
94138W        W31632  21.522  12.404  15.423  0.1693  0.1254  0.0436
94139W        W31633  21.547  18.583  18.738  0.1808  0.0986  0.1478
94140W        W31634   7.700  32.937   1.391 -0.1508 -0.0750  0.1532
94141W        W31635  15.064  26.743  11.452 -0.0178  0.2330  0.1842
94142W        W31636  27.457  19.464   9.620  0.3429 -0.0264  0.0920
94143W        W31637   4.974  32.244   3.075  0.1527 -0.0189  0.0160
94144W        W31638   0.994  25.585  25.834  0.0619  0.3834  0.1080
94145W        W31639  32.043  14.162  11.673  0.1216 -0.1980 -0.0771
94146W        W31640  13.374  18.699   4.873  0.0012 -0.0390  0.0828
94147W        W31641  28.215  26.806  25.413  0.2804 -0.1069  0.0924
94148W        W31642  26.915   6.054   1.613 -0.2191 -0.0974 -0.1888
94149W        W31643  22.916  13.629   0.873  0.1741  0.1086 -0.0747
94150W        W31644  19.642   9.123   4.236 -0.0589  0.0297  0.0995
94151W        W31645   6.327   2.209   8.669 -0.2500 -0.0011  0.0010
94152W        W31646   3.495   9.301   3.643  0.1491  0.0627 -0.0835
94153W        W31647  31.739   9.886  22.620 -0.0036  0.2027  0.1938
94154W        W31648  15.253   2.591   0.579  0.2753 -0.2297  0.1054
94155W        W31649   1.101  17.982  21.664  0.0759  0.1793 -0.1214
94156W        W31650   8.374  15.804   4.363 -0.3054  0.2006 -0.1149
94157W        W31651  28.761  22.621  14.402 -0.1158 -0.3445  0.1560
94158W        W31652   7.532  26.248   0.481  0.2011 -0.1465  0.1134
94159W        W31653   2.707  19.415  19.309 -0.0803  0.1134 -0.1224
94160W        W31654  25.783  20.210  16.426 -0.0689  0.1044  0.0005
94161W        W31655  32.969  28.059  26.143  0.2983 -0.2071 -0.0931
94162W        W31656  23.591   5.952   5.570  0.3342  0.0002 -0.2502
94163W        W31657  12.712   5.401   0.556  0.1052  0.1448  0.1528
94164W        W31658  10.623   8.992   1.722 -0.0729 -0.4646  0.0108
94165W        W31659  26.372   7.219  23.380  0.2819 -0.0294  0.2028
94166W        W31660  21.601  15.461   1.687  0.3951  0.1382  0.1231
94167W        W31661  13.632  13.662  20.206  0.1477  0.0145 -0.0147
94168W        W31662  32.995  21.504  17.638 -0.0289 -0.1330  0.1149
94169W        W31663   6.716  11.244   6.028 -0.1245  0.2913 -0.1620
94170W        W31664  33.212  13.224  22.645  0.1397  0.1442 -0.0056
94171W        W31665  14.681  33.787   1.653  0.1519 -0.0303  0.0631
94172W        W31666  30.643  10.322  15.198 -0.0703  0.3329 -0.1713
94173W        W31667  21.322  20.252  16.832 -0.1503 -0.0360 -0.0734
94174W        W31668   5.600  26.768  24.641  0.0216  0.2446 -0.1736
94175W        W31669  30.554  12.015  20.237 -0.0763  0.1989 -0.1695
94176W        W31670   5.352  20.828  22.186  0.1821  0.2472  0.2925
94177W        W31671  19.142  27.324  25.500 -0.1856  0.0867  0.3746
94178W        W31672   8.151  33.885   8.495  0.2129  0.0472  0.1026
94179W        W31673  22.943   5.458  22.444  0.1510 -0.1199  0.0789
94180W        W31674  15.600  27.578   2.562  0.3097 -0.1127 -0.1146
94181W        W31675  10.316  22.213   8.171  0.3700  0.1918  0.0452
94182W        W31676  24.610  23.182  10.703  0.3196  0.1547  0.1669
94183W        W31677  11.900  21.146  12.339  0.1891  0.1218 -0.1156
94184W        W31678   5.483  25.792   4.841  0.0408 -0.2335 -0.1701
94185W        W31679  35.295  23.858  12.672  0.1349 -0.0603  0.3356
94186W        W31680   0.578  12.068  23.387  0.2503 -0.0829 -0.1226
94187W        W31681  14.458  27.677  23.489  0.0890 -0.1562  0.3913
94188W        W31682  12.497  16.383   2.206  0.2410  0.2135  0.0636
94189W        W31683   0.427   1.363  20.428  0.1327 -0.3241  0.2217
94190W        W31684  32.453  24.546  23.710 -0.1182 -0.0983  0.2465
94191W        W31685  28.707   8.979  19.680  0.1170  0.0356  0.3803
94192W        W31686   8.583   1.181   7.249 -0.1032 -0.1642  0.1257
94193W        W31687  16.643  33.534   8.362  0.3004  0.0047 -0.2947
94194W        W31688  12.764  28.359   7.744  0.2087  0.0494  0.0620
94195W        W31689  20.050  27.262   4.391 -0.0431 -0.1660 -0.0456
94196W        W31690  18.787   7.185  10.622 -0.0193 -0.4215  0.0740
94197W        W31691   6.303  32.925  21.223 -0.0885  0.2029  0.0811
94198W        W31692  21.158  13.310   0.554 -0.2265  0.0846  0.0788
94199W        W31693   6.633  30.213  11.954 -0.0073 -0.2467 -0.2623
94200W        W31694  11.539   1.052  21.820 -0.0092 -0.1971 -0.3100
94201W        W31695  22.507  22.489  18.892  0.0443 -0.0546  0.4614
94202W        W31696   7.299  12.903   9.919  0.4796  0.1417  0.1478
94203W        W31697   7.364  33.853  15.192 -0.1604 -0.3769  0.2912
94204W        W31698  22.585   3.743   1.501 -0.4063 -0.0338 -0.1209
94205W        W31699  11.562  28.893  23.502  0.0799 -0.1378 -0.1420
94206W        W31700   7.879  30.451   1.453  0.0783 -0.1598 -0.1623
94207W        W31701  10.498  14.059  21.014 -0.2878 -0.0070  0.2010
94208W        W31702   1.089   2.835  25.955  0.0630 -0.1710 -0.0823
94209W        W31703  19.836  18.747   0.827  0.3366  0.0125 -0.0462
94210W        W31704  11.831  22.074   5.509  0.0542 -0.0604 -0.0559
94211W        W31705  32.902  21.291   0.217 -0.3205  0.1106 -0.1155
94212W        W31706   1.148  15.025   0.030  0.1388  0.1802 -0.0855
94213W        W31707  17.583   2.621   5.600 -0.0635  0.1498  0.3250
94214W        W31708  32.782  22.599  20.369  0.1673 -0.3310 -0.3799
94215W        W31709  11.903  27.922   8.068  0.1353  0.3517  0.1214
94216W        W31710  12.558  10.559  23.063  0.0864 -0.1240  0.0410
94217W        W31711  33.601   8.042  17.593 -0.3474 -0.1187 -0.0596
94218W        W31712  12.149  24.431  17.020 -0.1592  0.0555 -0.1722
94219W        W31713   4.645  30.406   8.647 -0.0956 -0.0076 -0.0670
94220W        W31714  29.264  25.253   9.767  0.2644 -0.1779 -0.2653
94221W        W31715  11.114  34.518   9.514  0.1272  0.0398 -0.1100
94222W        W31716  29.570  22.394   6.094  0.0378 -0.1949  0.0253
94223W        W31717   5.470  30.670  13.424  0.0818  0.4234  0.1737
94224W        W31718   7.255  30.380   6.851 -0.1059 -0.0069 -0.2623
94225W        W31719  29.361  20.027   5.564 -0.0011  0.0653  0.1935
94226W        W31720   9.008   1.684  12.148  0.0317  0.1765 -0.2585
94227W        W31721  17.405   9.913   3.210 -0.1236  0.2356 -0.1100
94228W        W31722  31.018  18.630   6.312  0.0959  0.4245 -0.0432
94229W        W31723  11.582  11.263  19.237  0.4342  0.1047  0.1709
94230W        W31724  33.185  26.362  25.567 -0.1612 -0.2928  0.2168
94231W        W31725  14.794  30.942  13.386 -0.0989 -0.2222  0.1325
94232W        W31726  27.796  23.138  22.680 -0.1092  0.1079 -0.3045
94233W        W31727   7.820  15.028  12.892 -0.1432  0.0649 -0.1158
94234W        W31728   2.857   7.987  20.470  0.2908 -0.0542  0.0388
94235W        W31729  30.508  24.138  10.906 -0.2300 -0.4618  0.1469
94236W        W31730  23.688   3.670  21.436 -0.1299  0.1568  0.0251
94237W        W31731   5.152   7.051  22.552 -0.2986 -0.1179 -0.0125
94238W        W31732  10.727   9.714  11.815 -0.2395  0.0911  0.0500
94239W        W31733  29.963  15.449   6.326  0.0125 -0.0999  0.0587
94240W        W31734  15.815  19.920  12.822 -0.2403 -0.2011  0.1882
94241W        W31735  33.172  31.049  20.976 -0.3594  0.2036 -0.3903
94242W        W31736  22.220  19.776  21.666  0.1114  0.0034 -0.1296
94243W        W31737  32.468   6.297  13.141 -0.5543  0.1993  0.2502
94244W        W31738   8.585  35.295  21.436 -0.1166 -0.3755 -0.0673
94245W        W31739  22.791   1.590   3.171 -0.0851 -0.1897  0.0836
94246W        W31740  34.235  20.039  13.706 -0.4031 -0.0086  0.2555
94247W        W31741  23.706  24.964  18.519 -0.2292 -0.0799 -0.1596
94248W        W31742  10.099  17.877  11.152  0.1208 -0.0096 -0.0490
94249W        W31743  31.123  14.688  11.714 -0.0275 -0.2680  0.0080
94250W        W31744  35.232  29.331   0.244  0.2757  0.0251  0.0038
94251W        W31745  23.221   9.947  15.860 -0.1483  0.1344  0.0091
94252W        W31746   8.318  26.656  11.084 -0.0551  0.2850 -0.1554
94253W        W31747   5.189  24.654  20.873 -0.1462 -0.0980 -0.0866
94254W        W31748  29.887  33.209   2.556  0.1031 -0.0653 -0.2601
94255W        W31749   7.610  33.933  21.589 -0.2608 -0.0688  0.0938
94256W        W31750   9.128   7.258  11.387  0.1543 -0.1085  0.1984
94257W        W31751  13.888  11.992   7.578  0.2976  0.1832 -0.3007
94258W        W31752  33.629  10.373   0.128 -0.3199  0.1105  0.0190
94259W        W31753   6.923   4.089   1.730 -0.0034 -0.0502 -0.3758
94260W        W31754  23.772   1.255  12.476  0.2466  0.2613  0.1144
94261W        W31755  28.982  30.388   5.006 -0.2056 -0.0272 -0.0693
94262W        W31756  28.084  16.714  11.530  0.0187  0.2888  0.1869
94263W        W31757  22.068  29.027   0.333 -0.1440 -0.2980 -0.0800
94264W        W31758   4.071  30.132   9.579 -0.1806  0.0081 -0.0979
94265W        W31759  12.291   2.024  20.867 -0.0748 -0.0940 -0.0458
94266W        W31760  35.132   8.575  25.190 -0.0021 -0.1866 -0.2719
94267W        W31761  21.793   7.807   0.531  0.0107  0.4690 -0.1766
94268W        W31762  26.736  26.979  22.159 -0.0769  0.0777  0.0150
94269W        W31763  13.770   3.373  12.347 -0.3680  0.2031 -0.1341
94270W        W31764  13.310  15.891  21.198  0.3982 -0.1609 -0.0316
94271W        W31765   6.592   6.787  18.525  0.1149 -0.0819 -0.3159
94272W        W31766  11.437  31.779  13.279  0.3015 -0.0898  0.2994
94273W        W31767  23.292  12.421  24.647 -0.0075  0.0938 -0.2216
94274W        W31768   2.033  18.626  10.446 -0.0288  0.2256  0.0613
94275W        W31769  18.010   1.123  16.894 -0.0459 -0.1251 -0.0324
94276W        W31770   3.057  25.268   1.181  0.0733 -0.1802  0.1949
94277W        W31771  30.195  20.237   6.644  0.1003 -0.2349 -0.1976
94278W        W31772  25.218  29.490  21.514  0.0627  0.1842 -0.1343
94279W        W31773  26.134  12.362   0.211 -0.1304 -0.0929  0.4389
94280W        W31774  22.156   3.631   2.240 -0.0286  0.0064  0.0259
94281W        W31775  22.732  13.699  19.481  0.1041 -0.0633 -0.0770
94282W        W31776  29.486  24.055   7.042  0.1040  0.4646  0.1610
94283W        W31777  32.798  15.077  23.515  0.1101 -0.1746  0.0168
94284W        W31778  31.036   7.087  18.821 -0.1624  0.0310  0.3906
94285W        W31779  33.716  25.249  26.191 -0.4018 -0.2566 -0.0170
94286W        W31780   3.941   8.912   6.433  0.4330 -0.0279  0.1406
94287W        W31781   4.505   2.941   2.769  0.3437 -0.0955 -0.2272
94288W        W31782  13.122   1.647   2.474 -0.4142 -0.0423 -0.0887
94289W        W31783  27.538  24.008   0.192 -0.1311 -0.0444 -0.0435
94290W        W31784  16.687  24.024   0.103 -0.2851  0.1171 -0.0279
94291W        W31785   8.743   4.358  21.493  0.1088  0.0792 -0.0040
94292W        W31786  21.339  30.868  23.655  0.2582 -0.0802  0.1293
94293W        W31787  28.477  28.495  14.337  0.4298  0.1002  0.0932
94294W        W31788  28.534  34.391   2.034  0.3025 -0.1560 -0.0748
94295W        W31789   7.178   3.619  19.551 -0.1381 -0.1212  0.1496
94296W        W31790   9.939   1.985   1.934  0.2264 -0.3908  0.2108
94297W        W31791  28.964  31.328   1.614  0.1347  0.1386  0.0227
94298W        W31792  18.761  31.085  21.390  0.0027 -0.0924 -0.1988
94299W        W31793  32.088  14.559  13.338 -0.3607 -0.0209  0.0646
94300W        W31794  31.552  26.249  12.404 -0.0278  0.0291 -0.4607
94301W        W31795  33.677  25.640  18.984  0.2270  0.4740  0.0689
94302W        W31796   2.388   6.427   1.946 -0.1293 -0.0984  0.2363
94303W        W31797  11.498  33.828   5.793 -0.3625  0.0788  0.1838
94304W        W31798   9.169   6.771   1.611  0.0807 -0.3019 -0.1441
94305W        W31799  28.155  30.467  14.200 -0.0000 -0.4384  0.0737
94306W        W31800  32.700  30.246  18.042 -0.2432 -0.1211 -0.3240
94307W        W31801  32.917  15.741  21.087  0.1871  0.1398 -0.2244
94308W        W31802  24.016  27.631   4.645  0.3004 -0.0831  0.1425
94309W        W31803  35.051  27.626   2.528 -0.2160  0.1552 -0.0315
94310W        W31804   6.324   3.486   0.469 -0.1473 -0.1853 -0.0522
94311W        W31805  20.863  25.507  25.721  0.2554 -0.2835  0.3748
94312W        W31806  14.142  30.782   2.258  0.0110  0.1718 -0.4205
94313W        W31807  21.355   0.227  15.111 -0.1428  0.2189 -0.1747
94314W        W31808  19.861   7.063  10.183  0.0309 -0.2154 -0.1620
94315W        W31809   2.603  19.257  13.859  0.0883  0.4459 -0.3024
94316W        W31810  18.102   5.006  19.404 -0.2385  0.1213 -0.0794
94317W        W31811  26.967  32.201  10.917  0.0400  0.0972  0.2059
94318W        W31812  27.742  34.250  19.293 -0.2124  0.3575  0.0497
94319W        W31813   6.768  17.452  21.499 -0.1594  0.0508  0.4336
94320W        W31814  28.845  33.253  17.042 -0.2901  0.0314 -0.0341
94321W        W31815  19.767   7.359   6.277 -0.0811 -0.1278 -0.2206
94322W        W31816  29.690  26.309  12.825  0.1498  0.0206  0.0483
94323W        W31817  12.728  29.346  21.382 -0.1655 -0.1891  0.0515
94324W        W31818   6.385   4.761  24.813 -0.5291  0.2117  0.0194
94325W        W31819   0.661  30.202   0.014 -0.1531  0.1272 -0.0962
94326W        W31820   0.838  26.776  21.908 -0.0646 -0.0934 -0.1006
94327W        W31821   4.744  34.922   3.336 -0.0135  0.1005 -0.1735
94328W        W31822  28.648  27.335  20.593 -0.1344  0.1224  0.4265
94329W        W31823  29.646  21.747  10.721 -0.0814  0.0156  0.0187
94330W        W31824   5.589  11.289  25.368 -0.1213  0.1713 -0.1577
94331W        W31825  18.277  12.030  17.904 -0.1470 -0.0255  0.0678
94332W        W31826  10.039  14.528  24.439 -0.4979  0.0515 -0.0267
94333W        W31827  35.159  17.340  14.906  0.4095 -0.0591 -0.2344
94334W        W31828   7.315  21.753  13.486 -0.1231  0.1614  0.0352
94335W        W31829   4.557  24.343   6.854 -0.0138 -0.0547  0.0142
94336W        W31830  15.582  27.439  24.852 -0.0289  0.0016 -0.1122
94337W        W31831  12.398  32.382  12.746  0.1664  0.0419 -0.0753
94338W        W31832   9.550  20.803  10.274  0.2841  0.0998 -0.0963
94339W        W31833  20.076  22.790   0.619 -0.4634 -0.1456  0.3074
94340W        W31834   0.879  34.658   3.056 -0.0030  0.2086 -0.0493
94341W        W31835  15.966  10.157  12.466 -0.0103  0.0898 -0.1254
94342W        W31836  24.573  21.334  11.404 -0.0499 -0.1026  0.0213
94343W        W31837   6.551   6.853  12.231 -0.0578  0.3494  0.1937
94344W        W31838  30.751  15.339  20.406  0.0764  0.0907 -0.1797
94345W        W31839   6.047  17.565   7.792 -0.1526  0.0756  0.2981
94346W        W31840  26.920   0.474  23.045 -0.0885 -0.0427 -0.2279
94347W        W31841  14.290   4.173  21.130  0.1796 -0.1058 -0.1535
94348W        W31842  33.346  21.007   8.202  0.1806  0.3721  0.0680
94349W        W31843  20.479  15.060  17.580  0.1355  0.2453 -0.1138
94350W        W31844  24.169  17.227  23.411  0.0867 -0.2163 -0.0491
94351W        W31845  34.558  34.368  18.617  0.0130  0.0119 -0.1009
94352W        W31846  18.104  22.476  21.507 -0.1003 -0.2492 -0.2076
94353W        W31847   8.473  22.512   8.535  0.1654  0.0322 -0.0759
94354W        W31848  24.191  27.300  16.721 -0.0550  0.0827  0.0691
94355W        W31849  28.348  19.090   5.743  0.0069  0.0310 -0.0560
94356W        W31850  16.109  24.450  14.938 -0.2437 -0.0535  0.1571
94357W        W31851  15.153  34.604  21.116 -0.0505 -0.4379 -0.0198
94358W        W31852  26.134  10.056  18.566  0.1387  0.3098 -0.2562
94359W        W31853  34.568  14.594  23.722 -0.2575 -0.0548  0.1065
94360W        W31854  13.922   6.860   7.475 -0.1115  0.0967 -0.2313
94361W        W31855  31.531   1.351  19.899  0.0585 -0.2209 -0.3465
94362W        W31856  12.906  12.646  22.498  0.1852  0.2326  0.2502
94363W        W31857   5.516  29.049  26.028  0.1562 -0.4601  0.3234
94364W        W31858  20.780  14.821  18.008  0.0655  0.1106 -0.2322
94365W        W31859  10.867  27.097  10.906  0.0373  0.2418  0.0263
94366W        W31860  10.489   6.816   3.360 -0.2295 -0.0713  0.1458
94367W        W31861  33.479   8.104  18.623 -0.0742  0.2703  0.0042
94368W        W31862  34.868  33.350  22.149  0.0990 -0.0673  0.1590
94369W        W31863  30.460  17.884   9.982 -0.0938 -0.2063  0.0529
94370W        W31864   6.145  10.532   3.327  0.1683 -0.2130 -0.2258
94371W        W31865  34.408   6.776  11.768 -0.1981 -0.0929 -0.1622
94372W        W31866  24.785   2.175  15.984 -0.0450  0.2356 -0.0467
94373W        W31867   9.299   5.107   4.310 -0.1220  0.2813 -0.0803
94374W        W31868  19.837   8.845  24.261  0.0728  0.0232 -0.2688
94375W        W31869  16.378   1.056  22.851  0.2953 -0.3136 -0.2646
94376W        W31870   6.762  22.035  21.730  0.0257  0.1209  0.0179
94377W        W31871   6.203   4.551   0.097 -0.2168 -0.1499 -0.2747
94378W        W31872   1.667  18.233  23.723  0.1290  0.0044 -0.0718
94379W        W31873  16.789  14.578  20.516  0.0045  0.1623 -0.2991
94380W        W31874   7.653   7.113  11.184  0.0325 -0.4255 -0.1022
94381W        W31875  15.548  26.088   4.534  0.3344 -0.0351 -0.2458
94382W        W31876  19.277   4.232   9.105  0.3766  0.1003  0.2077
94383W        W31877  30.919  28.853  20.875  0.0183  0.0924  0.0164
94384W        W31878  21.695   2.801  16.485  0.2556 -0.1281 -0.2858
94385W        W31879  34.233  15.413  18.495  0.4641 -0.3666 -0.0862
94386W        W31880  26.216  34.593   4.493  0.2379  0.3043 -0.2245
94387W        W31881  34.913  35.345  20.509 -0.1706 -0.0253  0.0713
94388W        W31882  29.669  14.111  19.288  0.0220 -0.2245 -0.2243
94389W        W31883  28.211  20.066  20.886 -0.1172  0.3005  0.1295
94390W        W31884  21.237   4.510  18.827 -0.0975  0.0254 -0.1229
94391W        W31885   9.385  10.054  26.206 -0.1013  0.1105  0.0625
94392W        W31886   1.256   9.989  18.469 -0.0074  0.3092 -0.2307
94393W        W31887  22.886   7.398  25.003  0.1130 -0.4156 -0.1965
94394W        W31888  16.374   3.136   3.896  0.0041  0.1788  0.1015
94395W        W31889   6.860   5.240   3.867 -0.2149  0.2421 -0.0459
94396W        W31890  28.523  18.640  14.023 -0.0695 -0.1200 -0.4102
94397W        W31891   3.659  29.784   7.098 -0.0910 -0.3127  0.0221
94398W        W31892  27.991  29.515  20.810 -0.0691 -0.0618  0.2457
94399W        W31893  18.564   9.923   8.070  0.1251  0.2527 -0.1046
94400W        W31894   5.236  17.635  19.902  0.0958 -0.0418 -0.0261
94401W        W31895  13.894  31.316  25.143  0.3317  0.0080  0.1093
94402W        W31896  10.388  14.742   1.253 -0.2688  0.2116  0.0718
94403W        W31897  22.634  21.141  20.278  0.1289 -0.0899  0.1145
94404W        W31898  23.968  27.155  23.377 -0.0974  0.1144  0.1869
94405W        W31899  31.718  16.616   5.226  0.0437 -0.3677 -0.0974
94406W        W31900  24.601  25.818   2.783  0.1699  0.0965  0.0768
94407W        W31901   8.367  12.042   6.405 -0.0130 -0.2359 -0.0063
94408W        W31902  14.224  22.480   7.566  0.0336  0.0023  0.0807
94409W        W31903  29.648   4.750  17.444 -0.0102  0.0485  0.2715
94410W        W31904  16.216  12.553  25.632 -0.1384  0.1351 -0.2823
94411W        W31905   6.693  26.618   4.680 -0.1766  0.2234 -0.1668
94412W        W31906  10.790   2.068   9.517 -0.1948  0.1644  0.1916
94413W        W31907  12.203   2.300  24.664  0.4678  0.2835  0.1719
94414W        W31908   6.963  27.460   6.853  0.1094  0.0834  0.1367
94415W        W31909  19.479  16.223   9.625  0.0600  0.1320 -0.2474
94416W        W31910  11.663  14.251   3.296  0.1008  0.3333  0.0607
94417W        W31911   0.209  14.241  17.522  0.1971 -0.0789  0.2183
94418W        W31912   6.144  22.879   8.501  0.0738  0.0110  0.0671
94419W        W31913   1.215  25.643  15.396  0.1344  0.2071  0.3689
94420W        W31914   5.687  14.350   1.670  0.1431  0.2145  0.0558
94421W        W31915  25.381  18.218  24.973 -0.3515 -0.0441 -0.0540
94422W        W31916  31.276   2.902  15.609 -0.0036  0.0146  0.2214
94423W        W31917  20.898  24.235   6.422 -0.2736 -0.1114  0.2795
94424W        W31918   2.114  11.479  18.059  0.3523 -0.0953  0.1412
94425W        W31919  14.367  34.269  20.009  0.1709 -0.1222  0.2240
94426W        W31920   6.073  32.301   8.515  0.3688  0.1621  0.2819
94427W        W31921  14.588  26.270   9.929 -0.1383  0.1409  0.0043
94428W        W31922  23.730  16.660  22.822  0.1331 -0.3378  0.0784
94429W        W31923   6.675  16.654   1.108 -0.0783  0.0352  0.1443
94430W        W31924  14.115   1.141   9.379  0.0492 -0.0065 -0.3334
94431W        W31925  20.252   4.654  23.627  0.0819 -0.0648 -0.0536
94432W        W31926  10.474  21.969   3.457  0.1269 -0.2066  0.0605
94433W        W31927  34.444  12.588  24.576 -0.0589  0.2076 -0.2656
94434W        W31928  35.311   9.586  14.667  0.1508  0.0786 -0.0248
94435W        W31929  16.882  18.552   9.208 -0.0153  0.0163 -0.1537
94436W        W31930  19.795  16.973   5.207 -0.0177 -0.1833 -0.0936
94437W        W31931   3.330   3.469   9.067  0.0883 -0.2426 -0.1421
94438W        W31932  14.426   5.054   9.621  0.1988 -0.0347 -0.2790
94439W        W31933   0.032   3.808  22.722 -0.0836 -0.0742  0.2132
94440W        W31934  31.060  24.303   0.861  0.1838  0.1830  0.0358
94441W        W31935  24.051  19.694  16.614  0.1829  0.2103 -0.0041
94442W        W31936  31.373  23.602  12.557 -0.0855  0.0649 -0.2251
94443W        W31937  27.715  28.722  25.092  0.2552 -0.0372  0.1714
94444W        W31938  13.382  33.195   9.064  0.0495  0.0343  0.3820
94445W        W31939  11.861  27.163  16.523  0.0236  0.1886  0.0736
94446W        W31940  16.972  20.174   9.933 -0.0641 -0.1364  0.1147
94447W        W31941  16.211  20.133   5.956  0.4164 -0.3060 -0.1586
94448W        W31942  15.516  25.279  23.411 -0.0065  0.0522  0.1554
94449W        W31943  27.104  33.700  23.357  0.0941 -0.0843 -0.1276
94450W        W31944   8.163  20.435  25.982 -0.0916  0.0142  0.0887
94451W        W31945  35.033  30.360  24.285  0.1476  0.1513 -0.0265
94452W        W31946  10.544  23.620   2.857  0.2706  0.1151 -0.1403
94453W        W31947  13.814  27.616   9.188  0.2019 -0.0947 -0.1553
94454W        W31948  18.407  12.787  21.907  0.0991  0.2929  0.1771
94455W        W31949   5.995  15.473  23.560  0.2666  0.2285  0.0227
94456W        W31950  14.083  24.762  11.442 -0.0926  0.0358  0.0569
94457W        W31951  15.551   5.465   5.005 -0.3043 -0.1698  0.1190
94458W        W31952  26.456  25.999  19.504 -0.2567 -0.1451  0.0615
94459W        W31953  19.182  25.775   7.411  0.1887 -0.2918 -0.0474
94460W        W31954  12.315   7.324   7.884  0.3267  0.3228  0.1183
94461W        W31955  14.508   0.685  19.642 -0.1457 -0.1858 -0.0939
94462W        W31956  16.536   8.603  20.288  0.1475  0.1526  0.0203
94463W        W31957   7.240  29.787  23.078  0.0109  0.0539 -0.2451
94464W        W31958  25.461   8.373  20.627  0.1968 -0.0189  0.2924
94465W        W31959  31.298  11.445  22.626 -0.0043 -0.2357 -0.1736
94466W        W31960  31.886   1.861  25.959  0.1636  0.1254 -0.0191
94467W        W31961  17.432  11.700  11.217  0.0485  0.1125  0.1681
94468W        W31962  21.700   9.804  21.502  0.1054 -0.0038 -0.0729
94469W        W31963  19.308  11.557  20.992 -0.1719  0.0838 -0.1631
94470W        W31964  30.765  30.357  15.516 -0.1166 -0.1195  0.0275
94471W        W31965  11.373  11.655  20.915 -0.2779 -0.1262  0.1330
94472W        W31966   9.130   5.218  24.551 -0.0315 -0.5811 -0.1264
94473W        W31967  16.698   9.408   0.512 -0.1602  0.1700 -0.0522
94474W        W31968  13.400  15.971  12.486 -0.0915 -0.0941  0.2103
94475W        W31969  15.036  33.093   6.934 -0.0271 -0.1040 -0.0248
94476W        W31970  30.240  32.389   2.151 -0.1986 -0.0538 -0.3729
94477W        W31971   9.282  17.463  12.631  0.0770 -0.0224 -0.0737
94478W        W31972  31.962  10.464  20.810 -0.1652 -0.2772 -0.0415
94479W        W31973   4.769   2.650   8.021  0.5157  0.1926 -0.0747
94480W        W31974   6.595  32.431   3.588 -0.2492 -0.3668 -0.0848
94481W        W31975  33.488  34.879   7.089  0.0860  0.0763 -0.2522
94482W        W31976  23.530  30.877  16.083  0.0383  0.3567 -0.1152
94483W        W31977  16.382   7.438   9.899 -0.1783 -0.1735  0.0111
94484W        W31978  30.106   0.929  13.694  0.3180  0.2670 -0.0725
94485W        W31979  27.015  21.891  14.091 -0.0755 -0.1976 -0.0062
94486W        W31980  13.267   2.962   6.709  0.1108  0.1310  0.3240
94487W        W31981  21.931  17.401  23.220  0.2057  0.0280 -0.1340
94488W        W31982  16.064  12.797  10.380  0.2990  0.2059 -0.0300
94489W        W31983  13.693  35.296   4.176  0.1809  0.1715 -0.0219
94490W        W31984  18.493  15.308   7.721 -0.2381 -0.2744  0.4933
94491W        W31985   5.358  13.188  24.559  0.2082  0.1620  0.0809
94492W        W31986  14.122  24.676   1.081  0.0735 -0.2349 -0.0346
94493W        W31987  12.483  17.744  21.495  0.1792  0.0831  0.1259
94494W        W31988  33.641  16.002  15.018 -0.0710  0.1722  0.2589
94495W        W31989   8.389  15.839   0.422  0.0345  0.0854  0.0118
94496W        W31990   9.828  14.859  20.765 -0.0630  0.0517 -0.2014
94497W        W31991  12.127   7.534   7.429  0.1016  0.0310  0.0977
94498W        W31992  23.266  34.315  18.754  0.1794 -0.1139 -0.2723
94499W        W31993  30.211  34.521  17.380 -0.0450 -0.2135  0.1026
94500W        W31994  17.536   0.844   1.213  0.0159 -0.1122  0.0097
94501W        W31995  29.223  10.213  12.043 -0.2942 -0.2676  0.2728
94502W        W31996   3.492  14.351  19.454  0.0277 -0.0923  0.1929
94503W        W31997  32.020   4.562   4.797  0.0839  0.1554 -0.2808
94504W        W31998   4.425  18.085  26.042  0.3303 -0.2425  0.2780
94505W        W31999  10.899  24.563  12.753 -0.2441 -0.0189 -0.2297
94506W        W32000  12.078  19.382   8.903  0.0390  0.0194 -0.2588
94507W        W32001  32.272  32.719  22.756 -0.1021 -0.3418  0.0840
94508W        W32002  35.216  26.894  21.339 -0.0857  0.2334 -0.0755
94509W        W32003  21.429  16.337  18.328 -0.1816 -0.1870 -0.0757
94510W        W32004  19.071   1.274   3.898 -0.0834 -0.1354 -0.2459
94511W        W32005  34.880  34.097  22.738  0.1406  0.0068  0.0702
94512W        W32006  34.153  16.543   7.597  0.0075  0.2770  0.0056
94513W        W32007  15.634  24.639   7.440 -0.0720 -0.4018  0.4809
94514W        W32008   6.114   7.795  22.414  0.2375 -0.5732  0.2849
94515W        W32009   6.093   6.759   1.417  0.2068 -0.0875  0.1779
94516W        W32010  33.690  17.125  22.511 -0.0458 -0.3248  0.0330
94517W        W32011  20.304  28.189   0.015  0.3590  0.2822  0.0087
94518W        W32012  32.448   9.560   1.140  0.3758  0.0809  0.2475
94519W        W32013  23.394  11.771  21.112 -0.1101 -0.0358 -0.3286
94520W        W32014  11.184  13.764  20.264 -0.0640  0.1209  0.3286
94521W        W32015   5.663  16.702   2.003  0.2185 -0.3690  0.1451
94522W        W32016  10.937   2.538   5.229  0.0375  0.0387  0.1751
94523W        W32017  32.834  20.066   7.796  0.1355  0.0187 -0.3665
94524W        W32018  15.030   4.413  10.836  0.0169  0.0631  0.0930
94525W        W32019  32.885  25.631  13.503 -0.2991  0.1756 -0.1854
94526W        W32020  14.737  10.760  19.142  0.4236  0.0569 -0.0372
94527W        W32021  33.619  28.603  13.548 -0.2944 -0.1330  0.4062
94528W        W32022  21.466  11.148  15.376 -0.4078  0.1109 -0.1166
94529W        W32023  20.880  26.407   5.794 -0.0842 -0.3796 -0.0678
94530W        W32024  14.243   8.615   1.677 -0.0962  0.0358 -0.0340
94531W        W32025  22.084  33.743  15.414  0.2258  0.0314 -0.1772
94532W        W32026  33.440  22.668  17.474  0.0536 -0.1746 -0.0154
94533W        W32027   5.783  29.048  23.986  0.1139 -0.1622 -0.0400
94534W        W32028   8.042   9.605   5.177 -0.1471 -0.1508 -0.4127
94535W        W32029  13.550  30.035  11.902 -0.4126  0.1447 -0.1680
94536W        W32030  22.760  22.900  22.728  0.1193 -0.0102  0.1597
94537W        W32031   0.130  28.213   1.656 -0.0603  0.0009  0.0215
94538W        W32032  17.192  11.210  24.596  0.2246 -0.1650  0.1035
94539W        W32033  31.629  32.537   2.508 -0.1595 -0.1598  0.2552
94540W        W32034  12.548   3.454   0.321  0.2576 -0.2111  0.0674
94541W        W32035   7.548  30.062   5.329 -0.4007 -0.1649 -0.1477
94542W        W32036  20.604  27.072   4.329  0.3197 -0.1019 -0.1390
94543W        W32037  21.167  21.468  20.870  0.2708  0.1706 -0.1553
94544W        W32038  14.654  22.586   6.276  0.0846  0.1499  0.3347
94545W        W32039  14.061   2.198  10.971 -0.1538  0.0059  0.2058
94546W        W32040  32.741  19.303  15.482 -0.1066  0.2060  0.1021
94547W        W32041   2.844  25.604  24.253  0.0875 -0.1228  0.0915
94548W        W32042  32.597  30.922   2.481  0.0971 -0.3009  0.3690
94549W        W32043   2.669   7.481   6.796 -0.1247 -0.6660  0.1349
94550W        W32044  32.935  32.223  13.058 -0.0724 -0.0680 -0.1060
94551W        W32045  18.568  17.747   2.122 -0.1213 -0.2131 -0.0062
94552W        W32046  29.638  31.441  19.490 -0.0212  0.0497  0.0561
94553W        W32047  22.242  25.881  18.828  0.0469  0.1976 -0.1675
94554W        W32048  29.350  21.952  13.220  0.1230  0.0633 -0.0591
94555W        W32049  16.148  22.479   0.307  0.0792  0.1965 -0.1065
94556W        W32050  31.814  33.703  22.768  0.0820 -0.1778  0.0745
94557W        W32051  30.935  14.661  17.218  0.0034 -0.2156 -0.1400
94558W        W32052  23.922  29.065  16.215 -0.0593  0.1370  0.0659
94559W        W32053  15.435  21.961   2.764 -0.1236  0.1172  0.0818
94560W        W32054  12.811  16.313  13.825  0.1880  0.0481 -0.0929
94561W        W32055  18.978  12.903  18.893 -0.0249 -0.1366  0.0239
94562W        W32056  27.903  17.373  17.513  0.1560  0.0189 -0.2173
94563W        W32057  11.991  26.155   3.552 -0.2267 -0.0405 -0.2183
94564W        W32058   2.592  22.035  23.866 -0.0221  0.1166  0.1046
94565W        W32059  26.545  34.310   5.527  0.0499  0.0685 -0.0924
94566W        W32060  11.553   4.063  11.019 -0.0132 -0.1993 -0.1171
94567W        W32061   8.897  15.868   0.358 -0.3056 -0.2636 -0.2792
94568W        W32062  31.938   0.298  18.147 -0.0453 -0.0154 -0.1264
94569W        W32063  13.399  24.192  13.661 -0.3336  0.0793 -0.1131
94570W        W32064  13.384  27.676   4.195  0.0210 -0.0297  0.2343
94571W        W32065  19.818  23.223   9.446  0.2840  0.1192 -0.0373
94572W        W32066  28.645   9.196  11.344  0.2950 -0.0451 -0.1470
94573W        W32067  28.645  19.001   6.970 -0.1505  0.0791 -0.1434
94574W        W32068   4.201  21.434   3.982  0.2493 -0.1012  0.2855
94575W        W32069   4.759  34.496  19.399 -0.2075  0.1156 -0.0897
94576W        W32070  29.816  22.886  21.774  0.3129  0.1556 -0.1003
94577W        W32071  13.694   9.539   1.491  0.0503  0.2155 -0.1525
94578W        W32072   0.649  33.586   2.460  0.0656 -0.3287 -0.1841
94579W        W32073  29.719  18.593  25.905 -0.1909  0.2154  0.0886
94580W        W32074   6.826  10.405   7.307  0.1522 -0.1623 -0.0184
94581W        W32075  13.017  34.105  25.121 -0.0468  0.2700 -0.0464
94582W        W32076   3.833  13.106   1.263 -0.1151  0.1222 -0.0310
94583W        W32077   8.454  17.309  13.281  0.2109 -0.1543  0.2634
94584W        W32078  32.025  18.311  25.936  0.1084 -0.1884  0.2300
94585W        W32079  32.659  24.619  11.753 -0.0872 -0.1777  0.0833
94586W        W32080   9.858  21.068  12.779 -0.2145  0.0428 -0.3014
94587W        W32081  29.614  12.916  20.979  0.1616 -0.3323 -0.1795
94588W        W32082  19.740  32.128   1.707  0.1358 -0.0357 -0.0458
94589W        W32083  13.933  21.862   6.086 -0.1534  0.0417  0.0083
94590W        W32084  32.270  24.867  14.473 -0.3381  0.0215 -0.0694
94591W        W32085  12.826  20.664  24.409  0.0165  0.0212 -0.3278
94592W        W32086  32.312  21.238  10.819 -0.1752  0.0924  0.0931
94593W        W32087  33.418  10.296  15.984 -0.1758  0.1952 -0.0807
94594W        W32088   1.780  25.136  21.093  0.1377 -0.1038  0.0621
94595W        W32089   4.539   9.346   6.955 -0.0818  0.1348  0.0823
94596W        W32090   9.940  15.614  23.009  0.1079 -0.0651  0.1988
94597W        W32091  34.307   5.640   1.998  0.3535  0.0957  0.3705
94598W        W32092  26.399  12.468   0.913 -0.1087  0.1069 -0.4274
94599W        W32093  29.671  11.854  13.313 -0.0194  0.0796 -0.2792
94600W        W32094  22.732  22.935  14.058 -0.0454 -0.1211 -0.1451
94601W        W32095  14.697  22.580  16.378 -0.0743 -0.3439  0.1673
94602W        W32096  23.233  30.010   2.041  0.1459 -0.3102 -0.0574
94603W        W32097  24.380  32.529  14.521 -0.1162 -0.2256  0.0120
94604W        W32098   1.274  27.086   1.875  0.0106  0.3149  0.2208
94605W        W32099   1.959  27.276   8.321 -0.0997  0.0409  0.1393
94606W        W32100   0.863   6.406  26.169  0.2445  0.0892  0.1539
94607W        W32101   1.913  25.158  16.211 -0.3507 -0.1515 -0.0424
94608W        W32102  35.231  11.288   0.157  0.1949 -0.3496 -0.0669
94609W        W32103  32.579  31.940  20.255 -0.2589 -0.2558 -0.0651
94610W        W32104  20.220  15.330   3.420  0.0680  0.1282  0.1383
94611W        W32105  30.990   4.254  15.465 -0.3091 -0.0025 -0.3131
94612W        W32106  10.188  32.806   4.320 -0.0786  0.1463 -0.2905
94613W        W32107   2.123   1.455   1.079  0.0815  0.1143  0.1555
94614W        W32108  17.401  16.381  11.272 -0.1397 -0.0377  0.0336
94615W        W32109  19.908  23.818   8.962 -0.1197  0.2245 -0.0395
94616W        W32110  12.439  34.144  11.376  0.0326  0.3916  0.0556
94617W        W32111  14.568  13.895  20.195 -0.2120 -0.3919 -0.0770
94618W        W32112  16.252  18.843  21.207  0.1366 -0.0841  0.2497
94619W        W32113  23.699   8.272  13.183  0.0074  0.4129 -0.2926
94620W        W32114  24.989   2.924   3.887  0.1805  0.1840 -0.1426
94621W        W32115  24.843  18.968  20.923 -0.0918 -0.0575 -0.0141
94622W        W32116   7.619  10.768   4.599  0.0793  0.2536 -0.0024
94623W        W32117  19.437   7.817   7.090  0.1391 -0.4117  0.3610
94624W        W32118   5.277  22.726   2.352 -0.1199  0.1685  0.0525
94625W        W32119  33.432  15.119  22.131  0.1251 -0.0197 -0.3308
94626W        W32120  28.802  15.970   7.491  0.4522 -0.0330 -0.0905
94627W        W32121  23.757  34.483  23.450  0.0028  0.2998  0.0097
94628W        W32122  24.647  31.700   2.183 -0.2247 -0.0826  0.0510
94629W        W32123   8.461  31.859   7.377  0.2971 -0.0031  0.1287
94630W        W32124  28.697  20.363  25.017  0.0807  0.2640  0.1742
94631W        W32125   8.381   1.901  14.167  0.1848 -0.0578 -0.1916
94632W        W32126  21.982   4.271   3.972  0.0984  0.2209 -0.0770
94633W        W32127  18.380  29.746   0.748  0.1174 -0.0774 -0.1370
94634W        W32128   6.016  32.724   4.487  0.0935  0.0792  0.0261
94635W        W32129  30.760  10.991  25.335  0.2678 -0.0559 -0.1494
94636W        W32130  34.803   0.332  17.988  0.2295 -0.1045  0.1255
94637W        W32131  12.549  16.961   7.257 -0.1368 -0.0035  0.1721
94638W        W32132   9.235  35.119   4.948 -0.2739 -0.2130  0.1351
94639W        W32133  34.294  18.265  24.591 -0.2231  0.0750  0.2894
94640W        W32134  16.434   9.408   7.082  0.0569  0.2201  0.0409
94641W        W32135  33.825  13.147  12.494 -0.1827 -0.1843 -0.2542
94642W        W32136   9.763  31.154  13.557 -0.0488  0.2005 -0.2968
94643W        W32137  18.549   3.033   8.652  0.0075 -0.0552  0.2280
94644W        W32138   4.258   3.732   7.496  0.0018 -0.1211 -0.2592
94645W        W32139  28.102  33.322   2.500  0.1980 -0.1405  0.0646
94646W        W32140  32.502   3.109   5.829 -0.3568  0.1868 -0.4568
94647W        W32141   5.547  15.753  22.748  0.2154 -0.2108  0.0106
94648W        W32142  24.222   5.618   4.005 -0.0386 -0.0559  0.4263
94649W        W32143  20.234   3.531   3.733 -0.1344 -0.2754  0.2608
94650W        W32144  30.004  33.518  18.608 -0.2032  0.0672 -0.0348
94651W        W32145  28.075   6.965  19.318  0.0811 -0.1218 -0.1210
94652W        W32146  20.639   3.943   6.238  0.0099  0.3466 -0.0167
94653W        W32147  26.674  12.076  19.106  0.1741 -0.0385  0.1439
94654W        W32148  30.459  23.645  24.977 -0.0572 -0.3728 -0.1975
94655W        W32149   0.236  16.833  17.656 -0.0646 -0.0459 -0.1897
94656W        W32150  20.000  21.775  19.528 -0.0757  0.0475 -0.0043
94657W        W32151   4.868  21.409  24.105  0.1789  0.1514 -0.1311
94658W        W32152  35.071   2.135   6.235  0.2557  0.0135 -0.0795
94659W        W32153  28.138  12.005  16.488 -0.0059 -0.1512 -0.0753
94660W        W32154  16.766  21.065  24.377  0.2599 -0.6043  0.0757
94661W        W32155  17.319  34.352  18.741  0.1429 -0.0266 -0.1208
94662W        W32156  18.908  18.540  24.710  0.0158  0.0037  0.0657
94663W        W32157  33.275  12.120  22.121  0.1749  0.0565  0.0620
94664W        W32158  31.689  32.521  11.964  0.0452 -0.0085  0.0626
94665W        W32159  30.023   8.907  21.451 -0.0386  0.1567  0.0632
94666W        W32160  17.150  15.797  11.821  0.1372  0.0475  0.1474
94667W        W32161  11.502  30.884  24.866 -0.1918  0.0533  0.2718
94668W        W32162  18.399  31.794  21.908 -0.0453 -0.0502  0.0257
94669W        W32163  31.793  14.427  26.187 -0.1180  0.1017 -0.0675
94670W        W32164   8.010   7.060  10.744  0.0294  0.1336  0.0878
94671W        W32165  18.517  29.696   8.033  0.2896  0.2949  0.0397
94672W        W32166  26.279  20.334  15.183 -0.1307  0.1645  0.1765
94673W        W32167  10.367  17.291   2.479 -0.1159 -0.2197 -0.1312
94674W        W32168  16.300  22.132   5.243 -0.4208 -0.1984  0.1667
94675W        W32169  28.425   4.767  26.205  0.0608 -0.0946  0.1397
94676W        W32170  21.203  12.365  25.285 -0.0089  0.0997 -0.0218
94677W        W32171  24.740  27.100  16.714 -0.0278 -0.2718 -0.1092
94678W        W32172   6.676  32.975  10.644  0.2329  0.1312  0.2833
94679W        W32173  12.825  26.308   4.536  0.3635  0.0036 -0.3157
94680W        W32174  15.401  35.351  23.712  0.3582 -0.0782 -0.2792
94681W        W32175   1.238   5.813  13.033 -0.2266  0.0907  0.0712
94682W        W32176  13.250   2.279   4.654 -0.2684  0.0190 -0.2418
94683W        W32177  34.304  26.120  25.589 -0.2756 -0.3555 -0.3448
94684W        W32178  18.982   9.858  19.425 -0.0221  0.4108  0.1532
94685W        W32179  16.410  20.922   4.385  0.0771  0.1207 -0.1167
94686W        W32180   9.096   2.269   5.574 -0.1210 -0.3139 -0.0348
94687W        W32181  16.107  16.699   3.358  0.1562 -0.2228 -0.2048
94688W        W32182  21.283  29.498   6.298 -0.0579 -0.0981  0.0608
94689W        W32183  26.607   9.750  17.627  0.1832 -0.0902  0.0043
94690W        W32184  17.523  19.702  25.318 -0.0810 -0.1787  0.0123
94691W        W32185  33.240  15.949  22.710  0.0450 -0.0744 -0.3012
94692W        W32186  12.631  19.237   9.187  0.0367 -0.1194 -0.1465
94693W        W32187   6.252  32.577  12.401 -0.2379  0.4234  0.0779
94694W        W32188   3.448   0.715   1.507  0.3172  0.1596  0.0231
94695W        W32189  13.832  16.226   1.720 -0.2824  0.2752 -0.0897
94696W        W32190  14.238  34.534  23.673 -0.0155  0.0135 -0.1146
94697W        W32191  32.500   5.364   3.770 -0.0471 -0.0044  0.0416
94698W        W32192  22.636  10.793  22.627  0.0669 -0.0516  0.1317
94699W        W32193  23.052  28.226  19.089  0.1112  0.0831 -0.2311
94700W        W32194   3.430  22.990  23.454  0.1050  0.1701 -0.0315
94701W        W32195  12.838  13.171  18.394  0.1879  0.1121  0.0283
94702W        W32196  31.547  19.529  20.956  0.0671 -0.5436 -0.0976
94703W        W32197  28.099  28.746  20.134 -0.0664 -0.0656 -0.0986
94704W        W32198   5.418   9.299  10.730  0.1458 -0.0808 -0.0541
94705W        W32199  29.297   4.835  14.242  0.2636 -0.1769 -0.0718
94706W        W32200   5.696  13.334   5.572  0.2403 -0.1910  0.1833
94707W        W32201   2.146   8.469  16.251  0.2376  0.2619 -0.1262
94708W        W32202   8.351  21.982  26.204  0.3797  0.0582 -0.1328
94709W        W32203  18.068  27.235  24.428 -0.0514  0.3150 -0.1306
94710W        W32204  34.940  10.041  24.337  0.1072  0.3636 -0.0360
94711W        W32205  12.981  35.384  23.641 -0.1319 -0.1548  0.2393
94712W        W32206  15.741  13.398   6.361 -0.0846 -0.0538 -0.1761
94713W        W32207  14.540  21.164   3.937 -0.1770 -0.3405 -0.1665
94714W        W32208  29.543  31.652  24.527 -0.2514  0.1910 -0.1421
94715W        W32209  19.444  30.084  18.445 -0.1623  0.0231  0.0621
94716W        W32210  11.091  17.248   6.314  0.0631 -0.1976 -0.1325
94717W        W32211  31.232  17.839  13.981  0.2598 -0.1437 -0.0352
94718W        W32212  29.019  32.697  17.927 -0.2531  0.0345  0.1955
94719W        W32213   5.693   4.960   0.764  0.0201 -0.1419  0.2886
94720W        W32214  24.501  28.272   4.194  0.0605 -0.0974  0.0342
94721W        W32215  22.889  27.800  19.373  0.0257  0.3022 -0.2555
94722W        W32216  10.523  29.565  16.920  0.0590 -0.0118 -0.0741
94723W        W32217  34.627  25.500   2.442 -0.1700 -0.1241 -0.0531
94724W        W32218  32.432  26.712  22.009  0.1256 -0.2706  0.1196
94725W        W32219  26.707   4.798  11.292  0.0443 -0.0596 -0.0500
94726W        W32220   4.376  12.949  19.640 -0.2144 -0.2746  0.0478
94727W        W32221  18.670  14.517   9.437 -0.0004 -0.0698 -0.0474
94728W        W32222   3.641   3.813   5.405  0.1662  0.0818 -0.0705
94729W        W32223  14.591  28.140  22.295  0.0732 -0.2144 -0.2794
94730W        W32224   0.656  22.564  13.339 -0.1399 -0.1473  0.1816
94731W        W32225   7.114  23.145   2.466 -0.0057  0.1611 -0.0999
94732W        W32226  11.133   1.399  22.610  0.4352 -0.1060 -0.1286
94733W        W32227  33.170  10.155  14.354  0.1395  0.3419 -0.0628
94734W        W32228   6.993   0.126   0.684 -0.1619  0.3280 -0.0907
94735W        W32229   6.687  17.074   7.380 -0.1474  0.0179  0.0312
94736W        W32230  13.900  31.164  11.429 -0.0068  0.0466 -0.0345
94737W        W32231  18.261   7.928  23.727  0.0049 -0.0097  0.1625
94738W        W32232   1.568   9.360  18.968 -0.2819  0.2162 -0.3766
94739W        W32233  29.219  32.043  17.081  0.1886 -0.2072 -0.1043
94740W        W32234  11.840  16.005  13.642  0.0116  0.0334  0.0740
94741W        W32235  20.630   6.870  22.908  0.1693 -0.0787 -0.1030
94742W        W32236   9.757  31.804   1.981  0.0718 -0.0581  0.1414
94743W        W32237  28.750   7.562   9.323 -0.0074  0.3088  0.0807
94744W        W32238  26.467   0.293  14.555  0.0849  0.0392  0.0754
94745W        W32239  12.068  21.410  11.026 -0.1145  0.3652  0.1552
94746W        W32240   0.605   3.725   6.364  0.1878  0.1949 -0.1112
94747W        W32241  12.827  20.829  16.535  0.1318  0.2172  0.0258
94748W        W32242  23.890  22.291  16.385  0.0411 -0.2700  0.2171
94749W        W32243  24.911  27.885  14.323  0.0483 -0.1565  0.1826
94750W        W32244   1.266  21.174   1.707  0.2371 -0.2714 -0.1955
94751W        W32245  28.894   0.912  11.502  0.0531 -0.0050  0.2457
94752W        W32246  16.225  18.550   7.548  0.2589 -0.3554  0.0214
94753W        W32247  33.862  13.669  21.221 -0.0838  0.0042 -0.0849
94754W        W32248   9.895  12.961  21.193 -0.4305 -0.0549 -0.2475
94755W        W32249  20.487  18.853   2.228  0.4386 -0.1989  0.0992
94756W        W32250   5.290   8.428   2.618 -0.0259 -0.0185  0.1232
94757W        W32251   9.558  22.421   9.892 -0.0497  0.0433 -0.0796
94758W        W32252  16.640  32.771   0.583 -0.2176  0.1470 -0.0043
94759W        W32253  12.177  15.643  20.914  0.1439 -0.0917  0.1078
94760W        W32254   5.602  12.381  24.357 -0.3452 -0.0940  0.0804
94761W        W32255  22.733   4.540  26.037  0.1016 -0.2221 -0.0662
94762W        W32256  28.474   0.857  16.213  0.3323 -0.4196  0.2027
94763W        W32257  18.038   6.162  12.349  0.2836  0.0402 -0.1159
94764W        W32258   9.668  34.990   3.428 -0.0347  0.0728 -0.2470
94765W        W32259   2.853  21.319   4.295  0.2349  0.0653 -0.1689
94766W        W32260  25.791   6.395  23.959 -0.0342  0.4444 -0.2405
94767W        W32261   4.637   0.909   6.889  0.1550  0.1758  0.1859
94768W        W32262   0.052  31.530   3.829 -0.0524 -0.0010  0.1367
94769W        W32263   4.804  25.862   7.589  0.2363 -0.0191 -0.1413
94770W        W32264  20.814   4.967   5.637  0.5312  0.0532 -0.0839
94771W        W32265  10.812  31.392   1.989  0.2655  0.1845  0.0493
94772W        W32266   3.367   7.608  22.321  0.0588  0.0839 -0.1536
94773W        W32267  28.561  12.802   9.292  0.0580  0.2601  0.4398
94774W        W32268  22.765  28.961  17.089 -0.2997 -0.0101  0.2408
94775W        W32269  13.302  26.157   6.110  0.4112 -0.0986 -0.0221
94776W        W32270  10.129   7.676   7.718 -0.1064  0.2564 -0.0876
94777W        W32271   0.845   4.043  21.730 -0.0709  0.3141  0.0403
94778W        W32272  32.672  25.065  19.328 -0.0907 -0.1475 -0.2042
94779W        W32273  14.267  34.632  10.064  0.2086 -0.0150  0.1686
94780W        W32274  28.828  10.948  11.926 -0.0920  0.0729 -0.0692
94781W        W32275   6.763  28.234  11.008  0.1540 -0.3276  0.0290
94782W        W32276  15.418  16.570  24.568  0.0111 -0.2521  0.0024
94783W        W32277  13.737  24.394  14.448  0.1244  0.0508  0.1588
94784W        W32278   0.050   1.173  25.530  0.0220 -0.0967  0.0469
94785W        W32279   7.848  13.796   0.725  0.1313  0.0803  0.0205
94786W        W32280  29.891  22.191   6.943  0.0361 -0.0327  0.2061
94787W        W32281  17.183   0.407  25.937  0.1852  0.2536 -0.0055
94788W        W32282  22.185   2.677  16.331  0.2046  0.1288 -0.0231
94789W        W32283   2.296   8.535  24.099 -0.0453  0.1989  0.1816
94790W        W32284  24.177  28.790  10.830 -0.1813 -0.1921  0.1852
94791W        W32285  11.425  15.303  23.990  0.1527  0.3003 -0.0412
94792W        W32286  23.133   2.702  23.150  0.2195  0.1089 -0.1504
94793W        W32287  24.593   9.207   1.827  0.0065  0.0517  0.2906
94794W        W32288  11.434  14.854   3.395 -0.0089  0.2034 -0.2130
94795W        W32289  16.568  30.761  10.937 -0.2413 -0.1070  0.5127
94796W        W32290  22.460  16.603  14.259  0.1206 -0.2005  0.2471
94797W        W32291  26.158   9.950  21.857  0.2997  0.1785  0.1213
94798W        W32292  16.853  35.174  18.657 -0.1770 -0.1928 -0.0957
94799W        W32293  22.645  23.197  15.141 -0.2000  0.1050 -0.2520
94800W        W32294  13.195  10.456   8.113 -0.1414 -0.2712  0.0082
94801W        W32295  23.529  16.769  15.169  0.3249 -0.0980 -0.1661
94802W        W32296   5.551  12.178  16.072  0.1745  0.0211  0.1790
94803W        W32297   9.927  26.990  13.607  0.1608  0.0897  0.1701
94804W        W32298   7.913  20.136  11.066  0.3982 -0.4464 -0.1871
94805W        W32299  18.673  31.195  26.163  0.0386 -0.1417 -0.0369
94806W        W32300  10.929  20.519   0.794 -0.2743  0.0658  0.2999
94807W        W32301  11.509   2.382  10.358  0.2350 -0.0011  0.0788
94808W        W32302  15.686  19.673   0.055 -0.0313 -0.0109 -0.5979
94809W        W32303  13.682  24.492  13.958 -0.1365  0.1173 -0.1406
94810W        W32304  25.117  18.799  16.317  0.0836 -0.1573  0.0503
94811W        W32305  17.894  15.873   7.124 -0.1176  0.1041 -0.0995
94812W        W32306  16.484  16.655   5.715 -0.1038 -0.1423  0.1559
94813W        W32307  28.714  25.376   0.965  0.0136  0.1879  0.3161
94814W        W32308   0.850  15.485  10.284 -0.0579 -0.1734  0.0182
94815W        W32309   6.442   0.070   8.949  0.1215 -0.1416 -0.0907
94816W        W32310   1.483   7.156  15.455  0.1624  0.3344 -0.1244
94817W        W32311  31.286  24.271  20.180 -0.0619 -0.1537  0.0093
94818W        W32312  32.811  11.446  11.728  0.0284 -0.2758 -0.2435
94819W        W32313  22.762  11.594  16.536 -0.1998  0.1632 -0.1335
94820W        W32314   8.170  33.452   0.018 -0.4908 -0.3682 -0.1053
94821W        W32315   1.263  32.463  20.897  0.1211  0.0978  0.1793
94822W        W32316  21.064  25.189   1.293 -0.1015  0.2428 -0.2916
94823W        W32317  14.358  16.061   6.808  0.1519 -0.1918 -0.1505
94824W        W32318   4.532  12.330  25.120  0.1374  0.1640 -0.2244
94825W        W32319  33.681  10.467  21.344  0.4478  0.0579 -0.0904
94826W        W32320  21.863  14.920  21.492 -0.1657  0.2927  0.0973
94827W        W32321  34.866  17.158   9.345  0.1113  0.1222 -0.3198
94828W        W32322   2.179  19.419  24.928 -0.1189  0.0621  0.5792
94829W        W32323  10.772   0.685  22.342 -0.0017  0.0082  0.0728
94830W        W32324   9.447   0.964  22.502  0.0444 -0.0048 -0.2107
94831W        W32325  16.032   6.202   4.061 -0.0098  0.1799 -0.3174
94832W        W32326   3.441  24.471   2.910  0.4259 -0.1682  0.3344
94833W        W32327  28.406  31.556  11.884  0.1697 -0.0079 -0.0350
94834W        W32328   2.181  16.094  17.730 -0.3461 -0.0450  0.0768
94835W        W32329   9.399   6.258   4.157 -0.0557  0.1223  0.0594
94836W        W32330   3.407  11.590   5.186  0.1439  0.0510  0.0370
94837W        W32331   3.220  14.196  17.039 -0.1520  0.0184 -0.3069
94838W        W32332   2.391   1.466  21.928 -0.0509 -0.0687 -0.1443
94839W        W32333  29.104   7.372   1.695  0.1467 -0.3656  0.1545
94840W        W32334   9.532  13.796  18.910 -0.1841 -0.1047  0.2561
94841W        W32335   8.733   6.874  12.456 -0.0186 -0.4632 -0.0507
94842W        W32336   1.188  15.781  15.119 -0.3660 -0.1664  0.1242
94843W        W32337   8.177  28.262  12.536  0.0267 -0.0500 -0.0772
94844W        W32338  29.815  14.908  13.667 -0.2832  0.1701  0.0492
94845W        W32339  31.798  21.257  25.777  0.2572  0.1778 -0.1925
94846W        W32340  22.131  23.122  26.002 -0.3014  0.0840  0.0480
94847W        W32341  10.191   0.276  16.125 -0.1122 -0.0677 -0.2186
94848W        W32342  31.262  35.310  17.391  0.1316  0.1322 -0.0416
94849W        W32343   6.829  23.328  25.908 -0.2398  0.3071  0.2392
94850W        W32344   3.748  22.296  23.881  0.4958 -0.2299  0.2080
94851W        W32345  20.876  20.761  20.696 -0.0686  0.0630  0.1897
94852W        W32346  34.218   5.118   1.170 -0.1035 -0.2075 -0.0381
94853W        W32347   0.076  16.947   0.784 -0.4105 -0.1656 -0.0488
94854W        W32348  28.680  32.238  19.233 -0.2863  0.1600  0.0163
94855W        W32349   5.828   0.764  12.163  0.0696  0.2321 -0.2187
94856W        W32350  24.632  28.372  22.505  0.1751 -0.0919 -0.1776
94857W        W32351  23.780   1.761   5.732  0.0161  0.0815  0.0076
94858W        W32352  19.808  22.761   2.313 -0.1973 -0.1457 -0.0942
94859W        W32353  16.221  12.593  22.045 -0.1365 -0.1235 -0.1874
94860W        W32354   4.872  13.557   5.923  0.0185 -0.3085  0.2562
94861W        W32355  18.480   1.725   9.039  0.1211  0.1496 -0.0170
94862W        W32356  19.848  25.161  20.236  0.1655 -0.0724 -0.1992
94863W        W32357  24.013  22.773  11.409 -0.3550  0.0939 -0.0056
94864W        W32358   9.571  30.371  23.387 -0.1287 -0.2816 -0.0484
94865W        W32359  21.745   4.349   1.837 -0.1433 -0.3661  0.0615
94866W        W32360  13.941   4.722  24.204  0.0480 -0.1094  0.0931
94867W        W32361  10.757  19.510   4.661  0.3409  0.1862 -0.2971
94868W        W32362  17.967   2.445  16.778 -0.0967 -0.0495 -0.0192
94869W        W32363  34.376  19.979  23.808  0.1128  0.1009 -0.1529
94870W        W32364  15.642  23.420   7.017 -0.0109 -0.0784 -0.2948
94871W        W32365  27.363  22.179  19.762 -0.1280  0.0971 -0.0943
94872W        W32366  26.811  15.438  14.849 -0.2290  0.0003 -0.0346
94873W        W32367  15.829  10.798   4.604  0.1264  0.3714 -0.1308
94874W        W32368  11.232  32.407  21.699  0.0234 -0.0193  0.0008
94875W        W32369  25.389  31.977   1.259  0.3915 -0.2192 -0.2378
94876W        W32370   1.532  31.751   5.914  0.0694  0.1215  0.1110
94877W        W32371   3.333  10.318  13.628 -0.1203  0.0192  0.1404
94878W        W32372   0.747   4.024  23.281  0.2214 -0.3260  0.1423
94879W        W32373   2.116  12.531  22.521  0.0963 -0.3981  0.0614
94880W        W32374   3.827  19.090  21.666  0.3225 -0.1472  0.1712
94881W        W32375   7.198   4.024  24.989 -0.2060 -0.0579  0.0432
94882W        W32376  29.698  15.778  16.318 -0.4901  0.1414  0.2784
94883W        W32377   7.434  21.645  12.358 -0.0654 -0.0619 -0.0639
94884W        W32378  33.998  29.382  20.141  0.0427  0.0945 -0.2724
94885W        W32379   9.467  27.044   2.946 -0.1274 -0.0981 -0.0553
94886W        W32380  10.309  31.720  13.985 -0.0386 -0.0789  0.2512
94887W        W32381  30.743   9.480  25.642 -0.1120 -0.3574  0.1216
94888W        W32382  29.556  21.966  15.729  0.2688 -0.1674 -0.0501
94889W        W32383   1.394   3.978  14.942  0.0901 -0.3227 -0.1223
94890W        W32384  20.493  28.017  14.547 -0.1069  0.4692 -0.1181
94891W        W32385  13.316   8.780  24.804  0.1716  0.2401 -0.2070
94892W        W32386  32.767  33.663  19.094 -0.0322  0.0029 -0.0759
94893W        W32387  26.175  25.379  24.262 -0.1094 -0.2640 -0.1269
94894W        W32388  14.472  16.102  13.809 -0.0220  0.1361  0.1089
94895W        W32389  22.624  22.849  25.768 -0.0616 -0.0973 -0.4048
94896W        W32390  20.815  10.268  24.513  0.0494  0.0998  0.1409
94897W        W32391  28.098  15.355  19.306  0.0508  0.2965  0.2430
94898W        W32392  15.594   3.683  17.808 -0.1881 -0.2848 -0.0756
94899W        W32393  23.374  34.232   6.882  0.2416  0.1631 -0.2502
94900W        W32394  27.378   1.793  22.476  0.0164  0.0244  0.0554
94901W        W32395  18.139   7.058   2.351 -0.1419  0.2335  0.1111
94902W        W32396  26.214  31.092   0.679  0.0436 -0.1112 -0.1851
94903W        W32397  10.718  13.373   0.571  0.2152 -0.0950  0.1926
94904W        W32398  24.350  17.850  19.109 -0.4929  0.0991 -0.1764
94905W        W32399   4.581   9.899  20.690  0.1750 -0.3813  0.2721
94906W        W32400  17.803  15.844  25.257 -0.1625 -0.0265  0.2807
94907W        W32401   7.969  20.784  25.713  0.0964  0.0056  0.2725
94908W        W32402  13.159  24.638  26.232  0.1461  0.0403 -0.0816
94909W        W32403   5.671  14.487   2.158  0.0431  0.0104  0.0879
94910W        W32404  21.950  35.146  19.106  0.0609  0.3022  0.2379
94911W        W32405   5.631  10.918  22.727  0.1660  0.2285 -0.0763
94912W        W32406   8.164  13.112   9.196 -0.0117 -0.0103 -0.0519
94913W        W32407  27.103   3.169  16.143  0.1138  0.0108 -0.0820
94914W        W32408   8.278   8.760  20.142 -0.4124 -0.3418  0.0387
94915W        W32409   7.989  19.071  13.700 -0.2185  0.2089  0.1610
94916W        W32410   5.817   3.437   1.164 -0.0621  0.2167  0.2449
94917W        W32411  29.728  13.812  25.413 -0.2003 -0.0196  0.0293
94918W        W32412  12.960   0.995  22.107  0.3531 -0.3180  0.3689
94919W        W32413   5.398   5.684  11.163 -0.1017 -0.2570  0.0365
94920W        W32414   6.657  24.384  25.809  0.0075 -0.3650 -0.3986
94921W        W32415  35.110  26.809  25.185 -0.0238 -0.2180 -0.2844
94922W        W32416  27.967  19.956   5.678  0.0884 -0.3198  0.0611
94923W        W32417   9.588  29.992  21.528  0.3361  0.0026  0.2021
94924W        W32418  15.316   7.282  23.513 -0.2757 -0.1721 -0.0487
94925W        W32419  33.840  28.487   5.107 -0.0948  0.1356 -0.2848
94926W        W32420  30.228  12.517  24.420 -0.2429 -0.0097  0.1191
94927W        W32421   2.144  33.514  19.514  0.0651 -0.3200  0.3470
94928W        W32422   1.856  27.025  22.648 -0.0546 -0.1480 -0.1001
94929W        W32423  24.710  10.933  14.038  0.0856 -0.3458 -0.0829
94930W        W32424  30.277   9.062   7.462 -0.0472  0.0459 -0.1881
94931W        W32425  12.067   8.833   9.522 -0.2148 -0.1922  0.0794
94932W        W32426   3.569  19.529  25.433 -0.2217 -0.0091 -0.1680
94933W        W32427   7.577  18.275  25.504  0.6567  0.0348 -0.1148
94934W        W32428   9.721   7.043   2.826 -0.2879  0.2795 -0.1971
94935W        W32429  34.218  15.020  19.624 -0.0096  0.6341  0.2184
94936W        W32430  15.193   0.370  19.085  0.0495  0.1409 -0.1736
94937W        W32431   3.036  34.862  22.162 -0.0316 -0.0866  0.0147
94938W        W32432  16.496   5.854  24.602 -0.0533 -0.1871  0.1233
94939W        W32433   9.328  16.301  21.185 -0.0234  0.2664 -0.1664
94940W        W32434  14.681  20.142  14.607  0.0049 -0.0738 -0.1291
94941W        W32435  13.621  16.369  25.738 -0.0725  0.1955  0.1486
94942W        W32436  23.239  23.509  20.422 -0.1285 -0.1216  0.0852
94943W        W32437  25.867  22.356   9.259  0.3480 -0.1575 -0.1522
94944W        W32438   2.535   8.946   1.403  0.0248  0.3562 -0.0395
94945W        W32439   0.637   3.221  15.641  0.0852  0.1869 -0.1018
94946W        W32440   5.096  10.078   7.125 -0.0347 -0.2530 -0.0705
94947W        W32441  10.227  33.431   9.187 -0.0339 -0.1276  0.1957
94948W        W32442   9.198  34.390   2.975  0.0632  0.0054  0.0931
94949W        W32443  11.336   8.003   6.460  0.4091 -0.0495  0.0265
94950W        W32444  24.367  30.625  18.397 -0.1862 -0.2910  0.3806
94951W        W32445  25.843  21.777   7.575 -0.0653  0.0093 -0.2260
94952W        W32446  30.136   3.113  10.959 -0.0412 -0.1180  0.1330
94953W        W32447  33.677  34.891  23.531 -0.0201  0.1355 -0.1263
94954W        W32448  16.399   3.999  25.594 -0.3419 -0.0224  0.1213
94955W        W32449   5.808  26.962  25.206 -0.3155 -0.2016  0.3025
94956W        W32450  30.645   3.967  13.579  0.3987 -0.2325 -0.1874
94957W        W32451   0.108  29.175  23.020 -0.1022  0.1161 -0.0943
94958W        W32452  32.780  15.137  18.974 -0.1460  0.0311 -0.2323
94959W        W32453   2.335   4.835  16.988 -0.0798  0.0832 -0.0813
94960W        W32454  10.628   7.337  21.864 -0.0309 -0.0343 -0.4518
94961W        W32455   1.203  30.798  24.286 -0.0195  0.1663 -0.1924
94962W        W32456  15.116  34.485   0.705 -0.0273  0.0916  0.0846
94963W        W32457  12.431   0.416   9.090 -0.2775 -0.2365 -0.0306
94964W        W32458  11.301  23.278  10.369  0.1229 -0.1579  0.3083
94965W        W32459  17.898  14.666  12.131  0.0151  0.2441 -0.0491
94966W        W32460  16.725  21.094  23.845 -0.0452 -0.0299  0.2666
94967W        W32461  12.305  27.649   9.166 -0.3798 -0.0252  0.1533
94968W        W32462   6.695  23.603   0.037 -0.2597 -0.2451  0.1527
94969W        W32463  29.705  33.863  16.488 -0.4008 -0.1392  0.3193
94970W        W32464   9.068  18.179   5.761 -0.0351  0.0290 -0.2941
94971W        W32465  28.989  29.635  11.732  0.3447  0.1352  0.1407
94972W        W32466  30.084   1.399  21.181  0.0402 -0.3741 -0.3076
94973W        W32467  18.943  26.923  22.452 -0.0349 -0.2705 -0.0938
94974W        W32468  34.070   6.029  23.192  0.2692 -0.1614 -0.0452
94975W        W32469   0.295   3.995  18.895  0.1688  0.0204  0.1945
94976W        W32470  22.910  10.397  14.689 -0.2002  0.4104 -0.1272
94977W        W32471   9.109  20.438   4.282  0.1559  0.4880 -0.1522
94978W        W32472  26.244  31.372  22.325  0.1947  0.3769 -0.2723
94979W        W32473  31.464  21.571   9.369 -0.2694  0.1742 -0.1682
94980W        W32474  11.304  20.015  25.096  0.1165 -0.3383  0.2013
94981W        W32475  18.448  32.998  25.619  0.0437 -0.2304 -0.1945
94982W        W32476  12.072  16.304   0.213  0.4171  0.1183 -0.0725
94983W        W32477  28.508  26.911  13.280 -0.3174  0.0558  0.2747
94984W        W32478  33.235   6.341  25.547 -0.0127  0.1539 -0.2288
94985W        W32479  31.886  33.822  21.192  0.0399 -0.1143 -0.1155
94986W        W32480   2.973  28.979  10.199 -0.1304 -0.1006 -0.3031
94987W        W32481  22.431  35.367  15.435  0.2442  0.2845 -0.1259
94988W        W32482   7.560  32.377  11.664  0.3311 -0.1767  0.0252
94989W        W32483  23.260  16.278  17.883 -0.0886 -0.0978  0.0703
94990W        W32484  19.199  14.633  20.244  0.0926  0.0903  0.2211
94991W        W32485   9.078  25.163  21.764  0.0177 -0.0701 -0.2462
94992W        W32486   6.736   5.075  10.463  0.1963 -0.0319 -0.0115
94993W        W32487   7.316   4.202   2.107  0.0235 -0.0421 -0.2239
94994W        W32488  34.095   3.243  25.510 -0.4721 -0.1390  0.1028
94995W        W32489  16.426  10.981   7.301 -0.0783  0.1736 -0.1779
94996W        W32490  32.525  10.676  15.540  0.2362  0.0138 -0.2280
94997W        W32491  21.257   1.691  22.428  0.1523  0.1247 -0.0731
94998W        W32492  27.734  14.352  13.348  0.0037 -0.1865  0.1133
94999W        W32493   2.860  10.128  20.214  0.1796  0.1465 -0.3269
95000W        W32494  35.362  32.996   0.314 -0.2594 -0.2071 -0.0030
95001W        W32495  18.649  16.607   2.903  0.1787  0.1117  0.1825
95002W        W32496  19.652  18.944  20.353 -0.0030 -0.3033 -0.2315
95003W        W32497  32.337  22.893  11.431 -0.0758 -0.2432  0.1337
95004W        W32498  32.053  27.643  23.270  0.2369 -0.3931  0.0187
95005W        W32499   3.371  31.288   6.151  0.0447  0.3311 -0.0756
95006W        W32500   1.748  14.271  21.291  0.3281  0.2508  0.0549
95007W        W32501  18.552  33.454  20.288  0.2609  0.2053 -0.1324
95008W        W32502  20.206   4.123   2.136  0.0641 -0.0275 -0.1308
95009W        W32503   1.231  23.545  25.986  0.1230 -0.2969  0.0267
95010W        W32504   3.025  16.096  19.336 -0.0216  0.2156  0.4993
95011W        W32505   7.200  17.711   1.219 -0.1638  0.4291  0.6104
95012W        W32506   9.161  10.975   7.824  0.0850 -0.0659 -0.0562
95013W        W32507  28.709   9.831  16.533 -0.3597 -0.1611 -0.0933
95014W        W32508  20.582  32.848  22.793 -0.1314  0.1960 -0.0501
95015W        W32509  27.195  17.388  13.059  0.1875 -0.0136  0.0510
95016W        W32510  16.710  15.297  23.258 -0.1263 -0.0627  0.1571
95017W        W32511  21.695  18.365  21.369  0.1149 -0.3534 -0.1686
95018W        W32512   0.897   4.949  14.085 -0.3269  0.0521 -0.1393
95019W        W32513  16.380  27.543  22.272  0.2067  0.0256 -0.1053
95020W        W32514  29.611  30.783  15.313 -0.3502 -0.1315  0.3341
95021W        W32515  10.373   7.705   9.402  0.1795 -0.1880 -0.2270
95022W        W32516  18.297   7.159  17.582  0.0646  0.1280 -0.1146
95023W        W32517  30.567  22.169   9.456  0.3027 -0.2649  0.0477
95024W        W32518  29.264  32.291  14.307 -0.1692  0.2622  0.1151
95025W        W32519  24.268   1.502  12.765  0.4841  0.1998  0.0310
95026W        W32520  10.507  14.682   9.057 -0.1168 -0.3145  0.0340
95027W        W32521  12.621  20.520   9.344  0.1352  0.0703  0.1727
95028W        W32522  16.576  10.082  21.224 -0.0837 -0.0957 -0.1157
95029W        W32523   5.377  18.096  19.990  0.0778  0.1046 -0.0891
95030W        W32524  17.056  34.230   8.797  0.0689 -0.1570 -0.1655
95031W        W32525  16.247  31.487  23.576 -0.3826 -0.1176  0.2780
95032W        W32526  13.629   8.126   6.563  0.1448  0.0432 -0.1999
95033W        W32527   1.097   5.206  15.633 -0.0675  0.2956 -0.2923
95034W        W32528  27.072  23.968   9.073  0.1361  0.2475  0.1960
95035W        W32529  10.125  13.116  20.716  0.1525 -0.0625  0.0164
95036W        W32530  30.632  32.234  23.137  0.0312 -0.0683 -0.1005
95037W        W32531  21.825  32.645  13.234 -0.0021 -0.1852 -0.0639
95038W        W32532   9.934  10.180   1.386 -0.0575 -0.1884  0.0464
95039W        W32533  11.795   7.519  22.754 -0.0553 -0.0781  0.2215
95040W        W32534   9.103  24.670   9.116 -0.0407 -0.0536  0.4623
95041W        W32535  19.572   0.176   6.757 -0.0122  0.2293 -0.0132
95042W        W32536  34.157  26.500  21.064  0.0578 -0.2986  0.1591
95043W        W32537   7.957  22.103   7.790  0.3012 -0.0110 -0.0653
95044W        W32538  15.495  34.632   0.432 -0.1156 -0.0983 -0.0600
95045W        W32539  17.411  28.444   1.456  0.0925  0.0917  0.0960
95046W        W32540   8.570  24.451   0.176 -0.0143  0.1389  0.2590
95047W        W32541  32.314   5.850  20.820 -0.2783  0.0445  0.2199
95048W        W32542  32.692  14.514  23.647 -0.1338  0.0878 -0.0249
95049W        W32543   1.767  15.500  14.694 -0.0836  0.5018 -0.0255
95050W        W32544  24.160   0.248  12.218 -0.2933 -0.0442  0.0534
95051W        W32545  21.477  28.395  16.398 -0.4489 -0.1291  0.0174
95052W        W32546   9.618  34.844   0.859 -0.1756 -0.3097  0.2156
95053W        W32547  30.725  12.964  12.597 -0.2147  0.0317  0.0739
95054W        W32548  32.970   2.953  21.375  0.0799 -0.2719 -0.0968
95055W        W32549  21.724   1.016   0.236  0.1246  0.0195  0.0698
95056W        W32550  30.523  25.063  19.744 -0.1518 -0.1386 -0.0918
95057W        W32551  20.077  18.013  17.762 -0.0198  0.1267 -0.2107
95058W        W32552  33.736  13.916  20.215 -0.2000  0.3289 -0.2360
95059W        W32553   8.928   6.956  23.609  0.1238  0.2028  0.2079
95060W        W32554  12.944   7.993  24.382  0.1416  0.0423  0.0755
95061W        W32555   5.041  33.063   9.304 -0.1620 -0.2214 -0.1794
95062W        W32556  26.783   2.417   2.448 -0.0199  0.1274 -0.4903
95063W        W32557  26.635  23.941  19.893  0.0491  0.2868 -0.2741
95064W        W32558  13.914  33.369   2.102  0.2316  0.2914  0.1437
95065W        W32559  25.408  20.517   9.698 -0.3725 -0.2650 -0.0470
95066W        W32560   8.795  21.463   9.876 -0.2359 -0.2562  0.1037
95067W        W32561  20.270  19.946   3.309 -0.0682 -0.1447  0.2072
95068W        W32562   2.110  21.426  20.217 -0.2713  0.3159 -0.2885
95069W        W32563   0.032  11.308  20.806 -0.0727 -0.1729  0.4481
95070W        W32564  15.771  30.040   2.766  0.2339 -0.2982 -0.1874
95071W        W32565  14.555   6.169  21.457  0.0507 -0.0376 -0.5029
95072W        W32566  26.673  28.815   3.093 -0.4050 -0.2055 -0.2598
95073W        W32567  16.022  33.313  20.662  0.0549  0.1314 -0.1176
95074W        W32568  14.456   1.569   7.912  0.0862  0.0953  0.1483
95075W        W32569  16.254  14.789  24.462 -0.2391 -0.3636  0.1314
95076W        W32570  18.420  12.944   1.131  0.1991  0.1803  0.1842
95077W        W32571  12.168  25.269   7.948  0.0387 -0.2605  0.1416
95078W        W32572  13.011  16.616   5.144 -0.0514  0.0826 -0.0647
95079W        W32573   4.248   2.296  25.492 -0.0599 -0.1409  0.2733
95080W        W32574  28.706  28.827  11.657 -0.0304 -0.1056  0.0486
95081W        W32575  26.310  25.583  10.890 -0.2797 -0.3595 -0.0198
95082W        W32576   1.646  24.144  15.521 -0.1255  0.0906 -0.0463
95083W        W32577  15.619   9.751  26.024 -0.0356  0.3630  0.0194
95084W        W32578   0.498  26.060  17.089 -0.0581  0.0980  0.1334
95085W        W32579  19.045  26.081  19.690 -0.2358 -0.1019 -0.2428
95086W        W32580   7.979   4.019  22.376  0.2204 -0.0965  0.0911
95087W        W32581  25.818  23.247  13.846 -0.0302  0.1314 -0.2404
95088W        W32582  24.441  25.055   1.529  0.2474 -0.0201 -0.0266
95089W        W32583  28.806  35.358  22.407 -0.3573 -0.0490  0.3324
95090W        W32584  31.950  15.297   7.627  0.1618 -0.1073  0.0232
95091W        W32585  29.256  12.888  12.576 -0.0828  0.2736  0.2188
95092W        W32586   7.190  31.237   1.055 -0.0800 -0.0566 -0.2013
95093W        W32587   7.959  13.812   2.664 -0.0410 -0.0988 -0.0097
95094W        W32588  26.892  17.265  11.819 -0.0287  0.0317  0.0130
95095W        W32589  13.210  27.684  12.430 -0.3951 -0.0195 -0.1491
95096W        W32590  22.109   5.060   6.508  0.0493  0.1782 -0.1673
95097W        W32591  35.344   5.220  20.523 -0.1767  0.2053 -0.1534
95098W        W32592  25.101  22.070   9.591 -0.2482  0.1552  0.0026
95099W        W32593  10.458  19.194   6.128 -0.0184 -0.0900 -0.0993
95100W        W32594  10.569  17.634   3.953 -0.0059  0.2119  0.1937
95101W        W32595  27.997  31.657  22.834 -0.0796  0.0351  0.0528
95102W        W32596   2.554  10.438   4.755 -0.1761  0.1457  0.1316
95103W        W32597   1.768  19.983  15.865 -0.0459 -0.1207  0.1965
95104W        W32598  10.047  19.127   7.308 -0.0792 -0.1029  0.0528
95105W        W32599   7.940   0.074   5.429  0.0377  0.2795 -0.0863
95106W        W32600   8.584  26.388  13.745  0.2330 -0.1576  0.0422
95107W        W32601  21.407  30.767  15.714  0.4100  0.0056 -0.0118
95108W        W32602  32.837   4.278   2.828 -0.1930  0.0041  0.0931
95109W        W32603  15.041  31.471  20.376  0.0047 -0.1264 -0.1190
95110W        W32604   5.052  20.087   1.951  0.0681  0.3108  0.0657
95111W        W32605  18.016  29.754  20.696 -0.2375  0.1413 -0.1698
95112W        W32606  27.852  13.236  21.476  0.1704  0.1415 -0.1611
95113W        W32607  28.876  15.950   9.970  0.0931  0.2131  0.0822
95114W        W32608  15.077  20.570  13.352  0.1635 -0.1670  0.2018
95115W        W32609  30.456  28.472  20.564  0.2515 -0.0143 -0.1379
95116W        W32610  30.018   8.990  15.436 -0.3129 -0.0107  0.1207
95117W        W32611  31.772   4.696  17.380  0.1357 -0.2709  0.0115
95118W        W32612  14.020   3.546  20.579 -0.3278  0.3192 -0.1085
95119W        W32613  11.462  23.063  12.468 -0.0984 -0.2841  0.2001
95120W        W32614  28.710   0.487  21.688 -0.0446 -0.2009 -0.1996
95121W        W32615  31.886  10.326  22.824  0.1835  0.1649  0.1499
95122W        W32616  19.248  30.025   4.747 -0.0151 -0.1173 -0.5048
95123W        W32617  18.194   6.599   8.004  0.0751 -0.0242 -0.1040
95124W        W32618   6.826   2.886   4.194 -0.1132 -0.0188  0.0765
95125W        W32619  24.645   7.661  18.642  0.1625 -0.1561  0.2129
95126W        W32620  17.424  22.044  23.819  0.1569 -0.3555 -0.1471
95127W        W32621  10.482  25.771  21.995  0.0339 -0.0217 -0.2337
95128W        W32622   0.591  27.100   4.234  0.0692  0.0091 -0.1962
95129W        W32623   0.090  29.326   1.023 -0.1177  0.3682  0.0959
95130W        W32624  21.430  25.455   7.066 -0.0441  0.2070  0.1432
95131W        W32625  24.688  29.124   5.444  0.0147  0.3215  0.2648
95132W        W32626  31.155  23.271   7.746  0.3637  0.0524  0.0708
95133W        W32627  10.346   2.124   0.553 -0.1182 -0.0837 -0.0513
95134W        W32628  30.398  15.211  23.688 -0.0710 -0.1920  0.0922
95135W        W32629  32.355   3.201  16.339 -0.0194 -0.1002 -0.0963
95136W        W32630  26.838  21.379  11.362 -0.0050  0.0504 -0.3130
95137W        W32631  28.603   8.848  16.417  0.2022  0.0948 -0.0154
95138W        W32632  16.161   8.645  23.778  0.0272 -0.3047  0.1422
95139W        W32633   2.158  19.261  17.104  0.4391  0.1263  0.1631
95140W        W32634   6.700  28.357  11.947  0.1646 -0.0452 -0.0002
95141W        W32635  31.491  12.112  13.544 -0.1156  0.0848  0.1646
95142W        W32636  25.209  32.706  14.258 -0.1597  0.1385 -0.3966
95143W        W32637  19.591  12.074   0.159 -0.1573 -0.0903  0.0553
95144W        W32638  32.041  26.195  25.934  0.1820 -0.1223  0.1231
95145W        W32639  24.261  11.163  24.287 -0.2652  0.3400  0.1130
95146W        W32640  18.280   0.244   0.549  0.2693  0.3119  0.1994
95147W        W32641   8.430  30.538  24.149 -0.3815  0.0371  0.0612
95148W        W32642   0.080  34.435   7.104 -0.1471 -0.0270  0.0907
95149W        W32643  27.745   9.299  12.408  0.1541  0.2093 -0.1834
95150W        W32644  19.853  14.969   3.642 -0.0836 -0.0178  0.2448
95151W        W32645  28.609   0.713   2.921 -0.2921  0.0863  0.1070
95152W        W32646  21.678  19.761  24.530  0.1890  0.0126 -0.1640
95153W        W32647  15.763   1.285  10.170 -0.1349  0.1394 -0.0785
95154W        W32648   7.644  24.446  12.048  0.0845 -0.1493  0.1291
95155W        W32649  27.245  23.222  22.890  0.0927 -0.2700  0.1995
95156W        W32650  25.054  13.187  24.633  0.1791  0.2472 -0.1450
95157W        W32651  30.642   6.284  14.469 -0.0194 -0.2075 -0.0318
95158W        W32652  11.752  25.832   5.695  0.3115  0.1547 -0.0535
95159W        W32653  22.660   2.490  13.286  0.2877  0.3269  0.0745
95160W        W32654   5.820   0.022  24.414 -0.0223 -0.2371  0.2182
95161W        W32655  12.708  11.788   0.810 -0.0241  0.0255 -0.0466
95162W        W32656  22.643  31.633  19.591  0.3643 -0.0950  0.0640
95163W        W32657  15.707  18.007  12.035  0.2372  0.0780 -0.2878
95164W        W32658   0.724   2.021   0.560  0.1646  0.2561  0.1417
95165W        W32659   3.887  19.066   1.406 -0.1352  0.1379 -0.0301
95166W        W32660  23.619   1.036  15.321  0.1041 -0.1253 -0.1437
95167W        W32661  30.931  16.672  18.463  0.1237 -0.0548  0.0129
95168W        W32662  31.261  31.289  23.834  0.3256  0.0600 -0.2211
95169W        W32663  17.431   7.668  25.709 -0.0636  0.0878 -0.1296
95170W        W32664  33.555   8.250  25.365  0.0951  0.0583 -0.3505
95171W        W32665   1.886  22.802   2.409  0.1569 -0.1270  0.0620
95172W        W32666  26.908  24.971  11.398 -0.1789  0.1419  0.0360
95173W        W32667  17.287   0.055  23.827  0.0905 -0.1147 -0.2969
95174W        W32668   9.635  11.750   6.764 -0.1326 -0.1403 -0.0412
95175W        W32669  34.143  18.333  15.169  0.0965 -0.1687 -0.4829
95176W        W32670  23.395  33.844  12.969  0.0443  0.2567  0.1841
95177W        W32671   5.544  20.366   5.417  0.0008  0.0033 -0.1843
95178W        W32672  20.011  15.997  19.165  0.1047 -0.0609  0.0239
95179W        W32673  15.572   9.494  21.887  0.2549 -0.3869 -0.0432
95180W        W32674  30.655  27.853  15.393 -0.2430  0.1452 -0.1179
95181W        W32675  25.273  12.917  21.300  0.1640  0.1200 -0.1068
95182W        W32676  34.960  27.966   3.035 -0.0494 -0.2930 -0.0228
95183W        W32677  22.034   2.293   8.042  0.1038  0.0494 -0.0023
95184W        W32678  28.609  16.742  11.636 -0.2556 -0.0267  0.1087
95185W        W32679  25.704  22.079  24.289  0.0747 -0.0043 -0.0927
95186W        W32680  24.012   1.541  21.230  0.0413  0.1577  0.1322
95187W        W32681  33.945  21.944   7.830 -0.1635 -0.2943  0.0794
95188W        W32682  32.491   6.532  24.899  0.0706 -0.4101  0.1426
95189W        W32683  34.064  12.918   9.645 -0.1524  0.2077  0.0206
95190W        W32684  27.461  33.966   2.914  0.1224  0.0295  0.2201
95191W        W32685  27.982   6.222   0.929 -0.1186 -0.2234 -0.0143
95192W        W32686  24.636  34.854  25.810  0.2925  0.1654 -0.0570
95193W        W32687  10.458  17.414  26.074  0.0340  0.0070  0.4671
95194W        W32688   0.089   0.580  14.007 -0.0955 -0.2775  0.0074
95195W        W32689  14.805   6.433  22.312 -0.1617  0.2582  0.1871
95196W        W32690  21.029  26.380   6.648  0.0306  0.1777  0.1179
95197W        W32691  12.559  28.667   6.468 -0.2910 -0.2752 -0.1173
95198W        W32692  26.022  24.840  22.928  0.0211 -0.1285 -0.3212
95199W        W32693  20.961   1.382  25.521 -0.4451  0.2319 -0.0370
95200W        W32694   6.589   3.003  22.483  0.0956 -0.1037  0.0092
95201W        W32695   0.521  22.260  15.452  0.0607  0.2054 -0.2153
95202W        W32696   0.686  28.006  21.626 -0.0375 -0.2204 -0.0426
95203W        W32697  27.661  22.410  20.844 -0.3086  0.1659  0.0115
95204W        W32698   4.560  24.377  25.945  0.3346 -0.0320 -0.1302
95205W        W32699  22.226  27.378   5.196 -0.0853  0.0815  0.2517
95206W        W32700  20.544  32.150   7.830 -0.2107  0.3021  0.0808
95207W        W32701  27.553  31.394   5.035 -0.1203 -0.1462  0.0045
95208W        W32702  14.610   2.169  18.740 -0.1125 -0.2680 -0.2502
95209W        W32703  26.021   0.570  19.387  0.2386 -0.0879 -0.1108
95210W        W32704  24.155  16.563  18.454  0.1706 -0.1416  0.0069
95211W        W32705  22.215  25.798  17.839 -0.1125 -0.2439  0.1523
95212W        W32706  16.515  17.926   3.532  0.1265 -0.0028 -0.2181
95213W        W32707   1.567   9.950   1.061 -0.1648  0.5437 -0.1465
95214W        W32708  17.419  25.807   7.797 -0.0618 -0.1150 -0.2904
95215W        W32709  20.442   2.172  23.022  0.0253  0.2576  0.1223
95216W        W32710  26.254   6.012  26.206  0.4319 -0.0152 -0.2516
95217W        W32711  25.782   6.151  11.850  0.1323  0.0668  0.1683
95218W        W32712   1.361   2.139   7.896  0.1037 -0.1093 -0.1955
95219W        W32713   9.023  30.861  10.856 -0.2089  0.0775 -0.2230
95220W        W32714  15.182   8.941  13.107  0.2406  0.0840  0.4297
95221W        W32715  10.230  31.975   1.172 -0.1278  0.2968 -0.1022
95222W        W32716  29.319  33.115  18.068  0.0288 -0.3536  0.0526
95223W        W32717  28.571  17.313  18.447  0.0306 -0.0010  0.4786
95224W        W32718  32.876  19.773  14.396  0.0826 -0.0583  0.1681
95225W        W32719  17.263  23.134   9.211 -0.2000 -0.3906 -0.0446
95226W        W32720  17.217  11.460   9.658 -0.2400  0.1512 -0.1778
95227W        W32721   6.375  26.885   6.469 -0.1625  0.1757 -0.0275
95228W        W32722  23.738   3.295  18.310  0.2419 -0.2186 -0.0905
95229W        W32723   9.390   1.796  21.442  0.1230 -0.0758 -0.0835
95230W        W32724  10.873  21.783   4.028 -0.2500  0.1344 -0.2486
95231W        W32725  35.088  11.099  12.700  0.3140  0.2332  0.1821
95232W        W32726  27.584  17.945   6.180  0.1299  0.1018 -0.3388
95233W        W32727   8.894  29.347  15.314  0.2131 -0.0719  0.0090
95234W        W32728  12.146  14.637  20.067 -0.2350 -0.1315  0.1834
95235W        W32729  14.488  20.152  12.749 -0.0511  0.2222  0.1700
95236W        W32730  31.755   4.202  23.310  0.0684  0.2284 -0.4157
95237W        W32731  32.165  34.038   2.064  0.1501  0.1635 -0.1350
95238W        W32732  19.591  20.525   5.937 -0.0851 -0.0593  0.1038
95239W        W32733  27.808  32.798   0.980 -0.0685  0.2449  0.2507
95240W        W32734  34.191   8.357  22.616  0.1527  0.4108 -0.2781
95241W        W32735  27.032  27.634  12.285  0.0859 -0.4345  0.4032
95242W        W32736  34.000  31.294  17.433 -0.1064  0.0503  0.1413
95243W        W32737   3.945  23.402   0.578  0.1311  0.1071 -0.0696
95244W        W32738  17.654  12.474   5.302  0.1344  0.0317 -0.0292
95245W        W32739   1.588  14.778  25.174 -0.1987  0.1593  0.1139
95246W        W32740  29.333  34.966   1.563  0.0547  0.0286 -0.0003
95247W        W32741   6.342   7.177  24.091 -0.3473  0.4649  0.2072
95248W        W32742  28.161  30.074  14.503 -0.0737  0.0790 -0.1986
95249W        W32743  12.842  34.554   8.086  0.1587  0.0216 -0.3050
95250W        W32744  19.503  28.992   2.400 -0.0532 -0.0325  0.0069
95251W        W32745   7.478   3.359   9.244  0.0620 -0.0412  0.0798
95252W        W32746   5.396  23.989  10.136  0.0705  0.1702 -0.3527
95253W        W32747   7.344  26.560  23.572  0.0151  0.3146  0.1660
95254W        W32748  21.265   5.948   2.534  0.1321 -0.3185  0.3976
95255W        W32749   5.052   6.384   7.648 -0.0297 -0.3165  0.1620
95256W        W32750  20.961  14.680  21.591 -0.0586  0.1458 -0.2031
95257W        W32751  32.613  32.452   6.809 -0.0144 -0.1604 -0.0259
95258W        W32752  29.268  26.547   2.544 -0.0917  0.0200  0.1201
95259W        W32753  26.463  17.404  17.126  0.0078 -0.0893 -0.1522
95260W        W32754  26.927  20.752  16.714  0.0572 -0.2519 -0.2505
95261W        W32755  13.546   6.962  23.298  0.1428  0.2086 -0.0075
95262W        W32756  22.660  29.661  22.032 -0.2053  0.1199 -0.2294
95263W        W32757   8.576  33.615  25.499  0.2468 -0.0949 -0.0819
95264W        W32758  10.715   4.138  24.795 -0.3014 -0.2662 -0.1797
95265W        W32759  27.525  33.147   4.446  0.1321 -0.0588  0.2210
95266W        W32760  13.976  29.149   2.622 -0.0188 -0.3323  0.1004
95267W        W32761   8.629  31.411  14.362  0.0067  0.1673  0.3247
95268W        W32762  22.653  14.783  21.094  0.2076  0.0407  0.0021
95269W        W32763  30.877  29.730  24.106 -0.0766 -0.2631 -0.0442
95270W        W32764  30.697  16.691  10.542  0.1536  0.0579  0.0287
95271W        W32765   0.653   9.465  17.227  0.1900  0.3127 -0.2710
95272W        W32766  21.185  32.234   0.526  0.1275  0.2086 -0.0743
95273W        W32767  13.979   4.839   9.395 -0.2100  0.1822 -0.4013
95274W        W32768   2.054   5.790  19.843 -0.2774  0.1612 -0.0106
95275W        W32769  23.583  33.664   4.638  0.1701 -0.1707 -0.1897
95276W        W32770  29.208  24.981   9.352 -0.2518  0.0056  0.0120
95277W        W32771  25.767  29.263  15.473  0.0570 -0.0645  0.3141
95278W        W32772   0.728  29.265  23.059 -0.0424  0.4076 -0.3592
95279W        W32773  14.444  10.373  11.596 -0.0383 -0.0471  0.0295
95280W        W32774  12.097  25.168  24.155  0.1317 -0.0440 -0.1038
95281W        W32775  30.429   0.341   2.643 -0.1576 -0.0440 -0.2612
95282W        W32776  14.134  30.913   5.885 -0.1942  0.1101 -0.0067
95283W        W32777  19.152  14.392  17.577 -0.1240 -0.0172  0.1260
95284W        W32778  32.779   3.841  17.319  0.0670  0.1068  0.2108
95285W        W32779  23.399  14.782   1.262  0.3920 -0.1419  0.2486
95286W        W32780  15.128  30.458  25.926  0.2581 -0.0012  0.0271
95287W        W32781  21.429   0.433  23.373 -0.0645 -0.0374  0.1508
95288W        W32782  18.711  22.359  19.741  0.0550  0.1589 -0.2965
95289W        W32783  29.418  23.024  17.903  0.4037  0.1712 -0.0600
95290W        W32784  30.636   9.564  15.883 -0.1600  0.2664  0.0085
95291W        W32785   1.245   6.240   4.968  0.1793  0.0791  0.0393
95292W        W32786  22.433  29.375  23.507 -0.1139 -0.4669 -0.3326
95293W        W32787   9.661   3.982   0.001  0.0843  0.0371  0.0194
95294W        W32788  32.067  30.993  23.236 -0.0589 -0.2172  0.4861
95295W        W32789  32.156  34.389  17.648 -0.1085 -0.0080  0.0628
95296W        W32790  13.597   1.729   0.786 -0.2774  0.1141  0.0707
95297W        W32791  34.394  23.569  13.278 -0.1623 -0.3475  0.0916
95298W        W32792   9.369   0.008   2.274  0.1829  0.2541  0.0168
95299W        W32793  30.969  23.831  11.642  0.1613 -0.0133 -0.0394
95300W        W32794  20.367   3.188  20.460  0.1300  0.1470 -0.3529
95301W        W32795  32.358   1.726  21.420  0.0248  0.0290 -0.1023
95302W        W32796  31.329  32.868  22.328  0.1722 -0.0904  0.0239
95303W        W32797  11.688  14.989   2.133 -0.0481  0.2463 -0.2656
95304W        W32798  35.260  30.947  17.360  0.1775  0.6542  0.3655
95305W        W32799   3.710  20.177  16.345  0.1817  0.2012 -0.2332
95306W        W32800  34.863  11.757   2.504  0.0149 -0.4831 -0.3308
95307W        W32801  32.302  10.220  21.788 -0.0226 -0.0476  0.0596
95308W        W32802  17.191  12.380   1.472  0.0945 -0.0132  0.1246
95309W        W32803  14.512   7.654  12.943 -0.2363 -0.3295 -0.0186
95310W        W32804  12.352  34.569   1.596 -0.0032  0.0674 -0.1940
95311W        W32805   0.181  27.278   3.342 -0.2673 -0.1876  0.1143
95312W        W32806  31.894  17.883   8.103  0.1172  0.0283 -0.1052
95313W        W32807  28.388  16.316  18.388 -0.1107 -0.1293  0.1876
95314W        W32808  30.354  16.543  19.466 -0.2765 -0.2739  0.0747
95315W        W32809  35.162  17.308  22.470 -0.0775  0.1455  0.0514
95316W        W32810   1.084  28.325   1.436  0.2034  0.0839  0.1973
95317W        W32811  23.557  12.194  18.915  0.3525 -0.0486 -0.0446
95318W        W32812  15.086   4.051  16.815 -0.0065  0.2698  0.2863
95319W        W32813  26.012  26.785   2.621 -0.1399 -0.1291 -0.0301
95320W        W32814  34.924  23.860  26.037 -0.3637 -0.0295  0.6012
95321W        W32815  13.529  31.748  12.211  0.0897  0.2073 -0.0898
95322W        W32816  20.502  10.435   9.349 -0.1731  0.1109  0.0596
95323W        W32817  31.120   0.668   6.706 -0.0902  0.2426  0.0214
95324W        W32818  15.060  17.754   3.773  0.0789  0.1408  0.0833
95325W        W32819   8.438  28.601   8.110  0.0556  0.0612  0.1540
95326W        W32820  24.861   0.847   2.600 -0.3127 -0.2534 -0.0366
95327W        W32821  25.256  32.809  12.027 -0.1195  0.0514 -0.0640
95328W        W32822  14.272  21.813   5.704  0.1672 -0.0567 -0.0160
95329W        W32823  30.433  18.697  10.401  0.0114  0.1195  0.0683
95330W        W32824  24.849  24.649  13.103 -0.0615  0.0357  0.1532
95331W        W32825   5.135   3.188   3.815  0.1579 -0.4338 -0.0276
95332W        W32826  33.120  33.267   5.093  0.1358 -0.2290 -0.1493
95333W        W32827   4.621  10.084  22.291  0.0308 -0.0706 -0.0879
95334W        W32828   9.565   6.731  21.799 -0.0690 -0.1007 -0.1309
95335W        W32829  15.661  34.589  19.625 -0.0134  0.1841  0.1481
95336W        W32830  24.218  14.239   9.541 -0.1047 -0.0172 -0.1759
95337W        W32831   9.975  33.138   2.255  0.2219 -0.1468 -0.2500
95338W        W32832  15.369  14.302   9.717  0.0483  0.1058  0.1108
95339W        W32833  25.888   5.508  21.411 -0.0165  0.1402 -0.1535
95340W        W32834  26.067   5.998  19.472 -0.0557 -0.0111 -0.1958
95341W        W32835   1.426  13.601  15.823  0.2436  0.1233 -0.1979
95342W        W32836   8.218   8.100  10.959 -0.1844 -0.0317 -0.0594
95343W        W32837  16.936  21.790  10.216  0.1573 -0.1577 -0.2291
95344W        W32838  33.286  21.884  26.064 -0.0199 -0.0432 -0.2955
95345W        W32839   4.136   4.384   5.067 -0.0400  0.0997  0.2581
95346W        W32840  26.595  14.516  23.397 -0.2637  0.5064 -0.2711
95347W        W32841   0.242  23.547   1.852 -0.0651  0.1288  0.1605
95348W        W32842   2.665  21.128  21.674  0.1116  0.2376 -0.1584
95349W        W32843  20.349   6.581  21.303  0.1289  0.0985 -0.1116
95350W        W32844  26.825   0.112  11.827  0.4746 -0.2084 -0.0544
95351W        W32845   7.185  13.185   3.703  0.5248 -0.0540 -0.2109
95352W        W32846  34.680  29.639  15.985 -0.3727 -0.0530  0.1519
95353W        W32847  35.077  20.539  11.652 -0.2280 -0.0258  0.0801
95354W        W32848   8.601  21.136  12.129  0.0897 -0.0372  0.0039
95355W        W32849  29.955  11.419  21.718 -0.0734 -0.0388 -0.1102
95356W        W32850   1.946  22.970   0.125 -0.1515 -0.0344 -0.1453
95357W        W32851   3.223  16.905  23.842 -0.1016  0.2680 -0.2508
95358W        W32852  13.133  12.816   4.180  0.0897 -0.1535  0.3962
95359W        W32853  21.475   4.979   1.168 -0.3221 -0.1865 -0.1586
95360W        W32854  34.086  21.390   7.797  0.2746  0.2446  0.0542
95361W        W32855   1.508  32.608  26.016  0.3310 -0.2099  0.0620
95362W        W32856  29.589   2.693  25.533  0.3832  0.0760 -0.1253
95363W        W32857  26.982  21.049  21.179  0.2265  0.0110  0.0890
95364W        W32858   5.156  28.816   8.301  0.2370  0.1957 -0.2302
95365W        W32859  24.679   9.786  19.233 -0.0579 -0.1124 -0.0505
95366W        W32860  10.465  10.611  20.321  0.0665 -0.1298 -0.4277
95367W        W32861  31.811  34.850  20.202 -0.1887  0.2278  0.0696
95368W        W32862  17.732  25.377   4.208 -0.2743  0.3215 -0.0490
95369W        W32863   3.257   4.047   5.626  0.0374  0.1603  0.2847
95370W        W32864  18.917   5.469  16.332 -0.1971 -0.2185 -0.0024
95371W        W32865  33.370  28.680  25.386 -0.2247  0.0041  0.1188
95372W        W32866  11.333   7.697  20.526  0.1647  0.2680 -0.2998
95373W        W32867  21.863  17.085  18.841 -0.0219 -0.0030  0.0579
95374W        W32868  11.003  33.541  24.825 -0.3548  0.3136  0.5283
95375W        W32869  22.777   7.048   1.882 -0.1851 -0.1968 -0.0177
95376W        W32870   4.766  21.546   6.820  0.1657 -0.0193 -0.0405
95377W        W32871   1.131   7.391  25.074 -0.1684 -0.0477 -0.0126
95378W        W32872  10.945  22.903   1.779 -0.1401 -0.2171  0.3038
95379W        W32873   9.715   9.850   7.526  0.1491 -0.1907  0.1941
95380W        W32874  11.077  20.923  16.812 -0.0518 -0.2392 -0.1554
95381W        W32875  16.780  26.667   3.177 -0.0288  0.1621 -0.0456
95382W        W32876  11.941   6.014   1.025  0.2646 -0.0564  0.2424
95383W        W32877  30.212  27.745  20.776  0.0391 -0.2385 -0.0814
95384W        W32878   4.185   6.393  20.049 -0.1883 -0.2848 -0.3733
95385W        W32879  21.253   8.195  18.366  0.1088 -0.1215  0.1727
95386W        W32880  34.916  29.107  21.737 -0.4186 -0.1626  0.1140
95387W        W32881  27.642   0.298  13.636  0.1826 -0.1950 -0.0720
95388W        W32882   3.927  17.876   3.892  0.1144  0.1930  0.4264
95389W        W32883  33.194   0.220  13.358  0.1702  0.3097 -0.1226
95390W        W32884   8.847  23.614  16.030  0.0881  0.1634 -0.3520
95391W        W32885  25.232  24.124  17.997 -0.2717 -0.1326 -0.6398
95392W        W32886  19.511  16.682   1.960 -0.0020  0.2651 -0.0107
95393W        W32887  10.942  17.997   3.098 -0.0351 -0.1575 -0.3458
95394W        W32888   5.711  23.037   6.258  0.1189 -0.1743 -0.1135
95395W        W32889  28.208  24.414  14.806 -0.0847  0.2790 -0.4397
95396W        W32890   7.975  22.217  21.574 -0.1920  0.0953  0.0653
95397W        W32891  10.845   5.255  25.357  0.0169  0.0722 -0.1344
95398W        W32892   9.410  18.132   1.144 -0.3738 -0.0996  0.3090
95399W        W32893   9.734  24.790   3.744  0.0337  0.3234 -0.0036
95400W        W32894  34.403  30.143  21.035 -0.1682 -0.2050 -0.0109
95401W        W32895  35.143   3.805   7.676 -0.0817  0.0685 -0.2799
95402W        W32896  24.485  18.049  17.137  0.0346 -0.0943  0.3363
95403W        W32897   1.040   2.731   1.160 -0.0767 -0.2433  0.1326
95404W        W32898  13.010  11.479   8.845  0.0903  0.0434 -0.1533
95405W        W32899  10.335   7.666  25.408 -0.0952  0.1804 -0.3824
95406W        W32900  17.664  14.791   6.839  0.0416 -0.1562 -0.3637
95407W        W32901  23.346  28.616   5.474  0.0623 -0.1947 -0.0986
95408W        W32902  29.846   6.280  21.432  0.0973  0.2098  0.0537
95409W        W32903  14.534   0.186  23.989  0.3841  0.0299 -0.0706
95410W        W32904  16.209  15.277  23.442 -0.2286 -0.0576 -0.0505
95411W        W32905   4.078   4.228   2.211  0.0225  0.0226  0.1636
95412W        W32906  35.336   5.577   2.659  0.1646  0.0933  0.0854
95413W        W32907  30.974  15.505  13.461  0.1516  0.1098  0.2164
95414W        W32908   4.384  34.845   1.541 -0.2346 -0.0903 -0.0336
95415W        W32909  13.917  16.981   6.509  0.3436 -0.1821  0.0695
95416W        W32910   5.969  29.914  22.393  0.4444  0.0451  0.1098
95417W        W32911  14.018  33.733   8.846  0.1587  0.0965  0.2867
95418W        W32912  17.575  23.631   0.413  0.1711 -0.0522 -0.0930
95419W        W32913  23.534  11.661  14.931 -0.1576 -0.0650 -0.2416
95420W        W32914  21.806   7.863  15.984  0.0477 -0.0967  0.1997
95421W        W32915   9.816  13.783  11.725  0.1292 -0.1041  0.1132
95422W        W32916  11.087  14.144   2.877  0.0449 -0.0035  0.0118
95423W        W32917   9.655  30.112   2.311  0.2164 -0.1075  0.0111
95424W        W32918  12.643   3.115   3.867  0.0710  0.0598 -0.1286
95425W        W32919  35.131  14.387  15.423  0.0443  0.0008  0.1241
95426W        W32920  12.553  25.251  22.996 -0.0428  0.0740  0.0621
95427W        W32921  33.596   6.150  23.468  0.1754  0.0618 -0.2728
95428W        W32922  29.764   1.355   1.750  0.4231  0.2726  0.0994
95429W        W32923   8.805  19.697  21.971  0.1129  0.1179  0.1962
95430W        W32924   6.680   6.630   4.154 -0.2376 -0.1237  0.0708
95431W        W32925  10.184  31.554  12.543  0.1026  0.0053  0.0377
95432W        W32926   7.767   4.244  24.980  0.1908  0.0200  0.3996
95433W        W32927   7.852  15.918  18.956  0.0099 -0.0425  0.1192
95434W        W32928  32.561  27.468  21.687 -0.1370  0.4147  0.1505
95435W        W32929  32.027  34.099  25.320 -0.1794  0.4120  0.0647
95436W        W32930  21.892   6.873   5.732 -0.0361  0.0923 -0.2381
95437W        W32931   8.147  18.071   4.448  0.0616 -0.0143 -0.1354
95438W        W32932  18.522   5.684  25.090  0.4652  0.0473 -0.1611
95439W        W32933  14.278   8.389   2.120  0.1159  0.0087  0.3377
95440W        W32934  34.035  27.058   0.518 -0.1374 -0.3119 -0.0835
95441W        W32935  11.723   7.594  22.289  0.2264  0.0125  0.0785
95442W        W32936  18.044   2.972  21.302 -0.2736  0.0628 -0.1884
95443W        W32937  30.449   5.758  11.310 -0.0007 -0.2273  0.1944
95444W        W32938  11.890  11.929  24.952 -0.2919  0.1895  0.0844
95445W        W32939  19.760  32.292  22.997  0.1265 -0.0827 -0.0998
95446W        W32940  31.695  27.168  25.087 -0.2712  0.0330  0.0629
95447W        W32941  22.986  34.383  23.262  0.1140 -0.1735  0.0830
95448W        W32942  23.967  30.994   5.577  0.0753  0.1278  0.1459
95449W        W32943  15.838   3.330  10.611  0.1121 -0.1385 -0.0489
95450W        W32944   8.618  14.904   3.543  0.1566 -0.1023  0.2583
95451W        W32945  10.186  13.115  10.609  0.2479 -0.3615  0.0547
95452W        W32946  10.518  16.052  11.049 -0.1552  0.1865 -0.2389
95453W        W32947  17.514   7.146   5.978  0.0954  0.4019  0.0599
95454W        W32948  32.232  27.336  19.224 -0.1211 -0.0789 -0.1272
95455W        W32949  32.947  18.657  23.489  0.0122 -0.1595 -0.0869
95456W        W32950  26.179  23.901  24.223 -0.1463 -0.1024 -0.1635
95457W        W32951  16.990   7.370  12.918 -0.1376 -0.0829  0.0823
95458W        W32952   6.500  26.144   3.869  0.5641 -0.0876 -0.1308
95459W        W32953  21.353  27.347  22.356  0.0391 -0.2585  0.1822
95460W        W32954  27.103  28.443  20.738  0.0633  0.1572  0.0204
95461W        W32955  21.916  26.431   6.159 -0.0966  0.2904 -0.0279
95462W        W32956   7.228  21.915  23.649 -0.0039 -0.2361  0.1688
95463W        W32957   3.008  28.219  23.419 -0.3427  0.0272 -0.1932
95464W        W32958  13.480  16.621   5.392 -0.1761  0.1992  0.0777
95465W        W32959  13.119  32.170  24.632 -0.0416  0.0870 -0.1508
95466W        W32960  16.491  25.924  13.138 -0.0402  0.0656  0.3797
95467W        W32961   8.965  27.114  23.166  0.2440  0.0213 -0.2809
95468W        W32962  13.216  16.805   3.756  0.2414  0.0012  0.1392
95469W        W32963  23.963  34.347   1.847  0.0230  0.0255  0.1151
95470W        W32964  24.898  17.969  10.360  0.1248  0.4086  0.2342
95471W        W32965   4.035   1.621   2.728 -0.0905 -0.1490 -0.0849
95472W        W32966   4.543   0.175  22.145  0.2742  0.4235 -0.2659
95473W        W32967  17.595  19.150   5.303  0.1021  0.3146 -0.1361
95474W        W32968   3.049  25.006   5.238 -0.1975 -0.1770  0.0521
95475W        W32969  28.648  34.778  12.498  0.3881 -0.2007  0.2606
95476W        W32970  25.496  13.654  17.968  0.1715  0.1737  0.0028
95477W        W32971   2.078  10.936  21.467  0.1877  0.2212 -0.3048
95478W        W32972  28.096   6.996  24.222  0.0068  0.2185 -0.1685
95479W        W32973  12.627  22.109  10.789 -0.0017  0.1269 -0.0740
95480W        W32974  10.669  33.857  24.002  0.0519 -0.1477  0.0770
95481W        W32975  31.696   2.973   1.534  0.0982  0.2689 -0.0028
95482W        W32976   0.200  14.336  18.492 -0.1250 -0.1868 -0.1037
95483W        W32977   6.848  15.175  19.817  0.2786 -0.1126 -0.4302
95484W        W32978  34.470  21.008  10.298 -0.1047 -0.1334  0.1480
95485W        W32979  34.357  28.913  21.713 -0.2044  0.3460 -0.3538
95486W        W32980  28.036   3.401  15.937 -0.0653 -0.1222  0.2294
95487W        W32981   9.022  16.748  10.470 -0.1893 -0.4674  0.1301
95488W        W32982  28.983  21.111  13.448 -0.0597 -0.0692 -0.0663
95489W        W32983  11.324  19.070  21.166  0.3273  0.0372 -0.3426
95490W        W32984   8.970  14.026  12.230  0.2982  0.1469  0.0112
95491W        W32985  15.858   4.618  22.289 -0.1821 -0.0083 -0.0007
95492W        W32986   2.351  30.720   3.638 -0.1029  0.0853  0.1006
95493W        W32987  15.170   3.785   5.517  0.0366 -0.2087  0.1988
95494W        W32988  20.487  27.650  21.426 -0.1634  0.0962 -0.2065
95495W        W32989   4.038  27.590  11.477  0.1365  0.1246 -0.0676
95496W        W32990  21.273  20.721   0.208  0.1593  0.1392 -0.2222
95497W        W32991  20.495  16.184   3.817 -0.2766 -0.1369 -0.0195
95498W        W32992  17.154  16.581  21.050  0.4025  0.1500 -0.2494
95499W        W32993   1.694  23.540   0.758 -0.1379 -0.3627  0.2573
95500W        W32994   3.798  10.115   2.870  0.2263 -0.0815 -0.1343
95501W        W32995  30.206  27.492  12.358  0.0533 -0.1705  0.0822
95502W        W32996  14.867  12.028  24.903  0.2003 -0.0282 -0.0054
95503W        W32997  13.786   4.084  21.208 -0.2682 -0.0282 -0.0037
95504W        W32998   9.899   9.759  21.945  0.0717  0.1435  0.0026
95505W        W32999  32.775  10.582  22.593  0.2172  0.0767  0.1174
95506W        W33000  25.836  28.987   3.176 -0.0073 -0.2647  0.1595
95507W        W33001   3.585  32.523   8.268 -0.1253  0.2114  0.0275
95508W        W33002   4.182  13.372  24.344  0.1103 -0.0743 -0.0591
95509W        W33003   5.832  26.111  15.414  0.0921  0.3836  0.1612
95510W        W33004   9.772  25.531   8.163  0.3518  0.2225 -0.1270
95511W        W33005  34.366  30.943  17.737  0.1051 -0.1115 -0.1757
95512W        W33006   1.226   3.297   7.820 -0.2191  0.4137  0.0285
95513W        W33007  17.189   8.167  12.594 -0.0398  0.1607  0.0027
95514W        W33008   5.629  32.414  19.886 -0.1387 -0.0599 -0.0444
95515W        W33009  10.965   4.910   5.372 -0.0748  0.0007  0.1080
95516W        W33010  12.301   7.539  22.691 -0.1101  0.1301  0.1389
95517W        W33011  20.655  32.722  15.912  0.0914 -0.4197 -0.1351
95518W        W33012  12.204  20.780  12.151 -0.1974 -0.0945 -0.4571
95519W        W33013   3.322   0.830  20.092 -0.0966  0.2010 -0.1064
95520W        W33014   5.355   5.661  22.307 -0.3282 -0.2276 -0.1317
95521W        W33015  14.943   4.935  23.446 -0.0433  0.0252 -0.0095
95522W        W33016   8.012   2.806   7.660  0.1994 -0.0507  0.1201
95523W        W33017  25.678  28.659  19.759 -0.1056  0.0980 -0.0502
95524W        W33018  27.812   5.488  16.733 -0.0780 -0.0499 -0.0866
95525W        W33019  29.374   5.749  23.794  0.0420  0.0271  0.1255
95526W        W33020  19.923  16.727  26.154  0.0734  0.0097 -0.0305
95527W        W33021  14.399  13.462   1.144 -0.1436  0.1455  0.2783
95528W        W33022  21.530  33.575   1.468  0.2711 -0.0226 -0.1191
95529W        W33023  25.715  25.411  20.584 -0.4902 -0.0657 -0.0731
95530W        W33024   2.607   2.073   5.934  0.0855 -0.1439 -0.1434
95531W        W33025  31.484   6.706  18.851  0.0311 -0.0106 -0.0505
95532W        W33026  30.207  18.373  13.168  0.3225 -0.3487  0.0088
95533W        W33027  22.321  12.336  22.026 -0.2088 -0.4248 -0.3606
95534W        W33028   1.192   2.927   8.218  0.0584 -0.0222  0.0324
95535W        W33029  21.323  12.436   2.257 -0.2390  0.2317 -0.0127
95536W        W33030   4.006  27.108   2.388 -0.0032  0.1547 -0.2980
95537W        W33031  11.554  22.504   9.691 -0.1025  0.3836  0.0348
95538W        W33032   1.231   0.027   4.902 -0.0797  0.0394 -0.2946
95539W        W33033  23.841  31.088  17.079  0.3686  0.0871  0.0032
95540W        W33034  28.858  32.248   0.857  0.0593  0.1008  0.1725
95541W        W33035  30.908  12.854  20.276  0.1184  0.1237  0.1153
95542W        W33036  19.146   2.216   4.539  0.0189 -0.0766 -0.0275
95543W        W33037  23.586  20.305  16.151  0.4621  0.1042 -0.0021
95544W        W33038  26.298  15.088  21.276 -0.2175 -0.0031  0.1205
95545W        W33039  15.301  30.224   1.526 -0.1834 -0.2493 -0.1869
95546W        W33040  24.762   9.101  18.602  0.1020  0.0825 -0.0004
95547W        W33041  28.809   7.873  11.418 -0.1397 -0.1875 -0.2974
95548W        W33042  22.222  31.254  16.382  0.0639 -0.0112  0.0986
95549W        W33043  33.266  30.456  24.946  0.0621  0.1519  0.0146
95550W        W33044  11.677  14.208   6.644  0.2211 -0.1437 -0.1659
95551W        W33045   7.691   4.683  10.457  0.2919  0.0056  0.1375
95552W        W33046  28.513  10.162  16.160 -0.2007 -0.5094  0.0034
95553W        W33047  33.993  24.046  25.524  0.1585 -0.0171  0.2477
95554W        W33048  10.194  30.954  14.486  0.1705 -0.0145 -0.1537
95555W        W33049  24.861   7.416   3.755 -0.2027  0.2991 -0.0079
95556W        W33050  30.288  22.287  24.277  0.0859  0.0976  0.2396
95557W        W33051  34.980  22.580   0.663 -0.1693  0.3386 -0.3259
95558W        W33052  26.321   6.425  12.910  0.1574 -0.1920 -0.1017
95559W        W33053   1.627  34.178  22.036 -0.0545 -0.2377  0.0357
95560W        W33054   4.644  15.276   7.269 -0.2570  0.1312 -0.0940
95561W        W33055   6.513  11.101   3.945  0.0297  0.3334  0.1011
95562W        W33056  15.629   4.910   5.934 -0.0980 -0.0007  0.0068
95563W        W33057   9.774  33.903   0.507  0.0812  0.1194 -0.4023
95564W        W33058   4.645  11.854  25.156  0.1049  0.1412 -0.1453
95565W        W33059  25.532   2.655  22.313 -0.0593 -0.1200  0.2301
95566W        W33060  30.198   4.244  13.695  0.1409 -0.2065  0.0696
95567W        W33061   6.328  18.342  21.255 -0.1079  0.0249  0.1808
95568W        W33062   1.164  20.069  21.808 -0.3221 -0.0315  0.0342
95569W        W33063  22.040   8.947   2.398 -0.0858 -0.1605 -0.0243
95570W        W33064  12.717  24.113   0.008 -0.3485  0.0305  0.1428
95571W        W33065  17.539  26.632   6.899 -0.0509  0.1100  0.0476
95572W        W33066  28.593  11.056   7.914  0.2313  0.1899 -0.3722
95573W        W33067  22.195  22.695  18.392  0.2924  0.0619  0.0810
95574W        W33068  21.788   6.867  24.061  0.0693  0.2338  0.1253
95575W        W33069  35.189  10.283   1.688  0.0055 -0.2349  0.1850
95576W        W33070  10.282  23.908  15.285  0.1890  0.1366 -0.0743
95577W        W33071  22.948  24.009  21.426  0.1853  0.0270  0.3502
95578W        W33072   6.326   4.299  25.071 -0.1104 -0.3436  0.2589
95579W        W33073   5.750  28.911   4.693  0.1371  0.0021  0.0767
95580W        W33074  11.540  13.916   2.884  0.1033  0.2116 -0.3683
95581W        W33075  32.954  22.483  22.963  0.1926 -0.4504  0.2940
95582W        W33076  33.095  25.218  23.297 -0.1261  0.0372 -0.1273
95583W        W33077  12.096  21.497  23.308 -0.0373  0.0440 -0.3127
95584W        W33078  25.294  31.837   5.961  0.2066  0.1451  0.1400
95585W        W33079  19.200  23.987   2.725 -0.1434  0.1074  0.1790
95586W        W33080  26.758  16.753  15.042  0.0254  0.1939  0.2303
95587W        W33081   9.304  18.431   8.235 -0.0812  0.0672 -0.0253
95588W        W33082  21.635   4.355  16.057  0.0820  0.0241  0.1195
95589W        W33083  30.712   9.884  25.323 -0.0082  0.3770  0.0662
95590W        W33084   9.650   1.285  11.363  0.0780  0.1686  0.1711
95591W        W33085   2.847  33.370  24.440 -0.0373  0.0113 -0.1412
95592W        W33086   8.381  15.392  19.812 -0.0419  0.1082  0.3240
95593W        W33087  26.250  20.057   9.828 -0.2858  0.0480  0.0635
95594W        W33088  28.163  12.862  23.789  0.1829 -0.0368  0.0092
95595W        W33089  12.800   2.473   4.390 -0.3067 -0.0601  0.1326
95596W        W33090  24.327  19.343  11.509 -0.0813 -0.2604  0.0899
95597W        W33091  27.880  16.058  14.728 -0.0024 -0.0567 -0.0177
95598W        W33092   9.828   2.217  10.875  0.0850  0.0662  0.0414
95599W        W33093  26.706   2.757  20.515  0.0828  0.2251  0.0991
95600W        W33094   0.503  22.435  17.367 -0.1277 -0.0973  0.1367
95601W        W33095  21.011   0.663  19.629  0.0350 -0.0661  0.1741
95602W        W33096   6.384  14.021   5.341  0.3499  0.0332 -0.0391
95603W        W33097  35.294  34.722  16.569 -0.0867  0.4099  0.3690
95604W        W33098  14.663  24.318   0.195  0.0988  0.2757 -0.1716
95605W        W33099  26.847  16.062   9.817  0.1367  0.1071 -0.0163
95606W        W33100  30.047  21.296  16.019 -0.0300  0.1488 -0.2292
95607W        W33101  22.902  26.757  16.508 -0.1058 -0.0918 -0.3854
95608W        W33102  32.824   9.391  11.134  0.1550 -0.1949  0.3300
95609W        W33103  26.518   8.244   1.865 -0.3452  0.0419 -0.2004
95610W        W33104   7.084  22.507   4.883  0.0180  0.0429 -0.0672
95611W        W33105   9.146  22.440  23.131  0.0913  0.5802 -0.1360
95612W        W33106  14.568  15.254   9.700 -0.1956 -0.0828 -0.1872
95613W        W33107   6.514  28.600  24.893 -0.0662  0.0909 -0.0585
95614W        W33108   0.740   5.226  15.072 -0.1108 -0.1144  0.1844
95615W        W33109  14.167  25.439  22.553 -0.1028  0.0778  0.1246
95616W        W33110  18.351   6.567  19.017  0.6086 -0.0772 -0.1057
95617W        W33111  14.608  25.280  10.385 -0.0130 -0.0085  0.1394
95618W        W33112   9.189   8.341  23.813  0.1172  0.0021 -0.1896
95619W        W33113  34.674   4.949   0.938  0.2657 -0.3829  0.0142
95620W        W33114  16.930  20.602   5.651  0.2063  0.2973 -0.0536
95621W        W33115  16.303  19.600  20.364  0.2464 -0.2649 -0.1964
95622W        W33116  22.371  26.965   4.120 -0.1271  0.0181 -0.1053
95623W        W33117  34.583  27.064  15.990  0.1264  0.0061  0.0277
95624W        W33118  15.828   1.550  18.839  0.2496 -0.0882 -0.1082
95625W        W33119   2.163   6.855  20.192 -0.0795  0.0369  0.1246
95626W        W33120   1.302   6.613   6.711 -0.3563 -0.2264  0.3123
95627W        W33121   7.625   0.327  22.255 -0.1347 -0.2521  0.2002
95628W        W33122  23.657  26.389  24.426 -0.1294  0.0621 -0.2595
95629W        W33123  24.423  32.619   5.039  0.0167  0.1712  0.2267
95630W        W33124   7.840  26.865   3.626 -0.1821 -0.2246  0.0289
95631W        W33125  12.050   0.977  10.330 -0.1382  0.4576  0.1578
95632W        W33126  23.810  17.294  21.738  0.0296 -0.0699 -0.1892
95633W        W33127  24.579  31.775  26.001 -0.0196  0.0227 -0.1467
95634W        W33128  29.639  17.364  22.825 -0.1632 -0.2335  0.2701
95635W        W33129  25.752  16.643  19.840  0.0551 -0.1762 -0.3923
95636W        W33130  26.983  29.740   3.696 -0.1292  0.1326  0.0044
95637W        W33131  17.791   0.595  24.723 -0.0095  0.0304 -0.0509
95638W        W33132  30.553  30.019  11.179  0.2296  0.2419  0.0338
95639W        W33133  21.453  23.148   7.547  0.5257 -0.1979 -0.0550
95640W        W33134   8.785  32.600  22.405  0.0380 -0.1700  0.1508
95641W        W33135  20.959  24.044   5.931 -0.0424 -0.1141 -0.2126
95642W        W33136   5.274  27.261  20.525  0.1618 -0.4211  0.0454
95643W        W33137  11.692  34.697  12.026 -0.1014  0.1845  0.0227
95644W        W33138  22.273  18.697  19.179 -0.3371 -0.1587 -0.2627
95645W        W33139  12.440  20.560  14.993 -0.1283 -0.1661  0.0665
95646W        W33140  16.879   8.923   0.601 -0.1581  0.1380  0.2372
95647W        W33141  25.097   3.959   0.361 -0.0150  0.0613  0.0468
95648W        W33142   4.641  32.598  11.498  0.1893  0.1161  0.1035
95649W        W33143  30.103   0.030  12.840 -0.1844 -0.0223 -0.0971
95650W        W33144  10.822  10.189   2.672  0.0918 -0.2654 -0.0981
95651W        W33145   9.389   4.056  10.886  0.0984 -0.2038 -0.0266
95652W        W33146  32.758   8.471  20.637 -0.0365 -0.2748  0.0167
95653W        W33147   8.653   2.226  21.973  0.0439  0.1771  0.1451
95654W        W33148   4.255  11.715  18.279  0.0609 -0.0677 -0.0726
95655W        W33149  31.493   2.544  15.248  0.2602  0.1475 -0.3077
95656W        W33150  23.538   9.054   4.875  0.1228  0.2149  0.1548
95657W        W33151   7.188   0.276  12.321 -0.0246 -0.4269  0.0186
95658W        W33152   7.511   6.557   2.910 -0.1366 -0.0026 -0.0946
95659W        W33153   3.638  32.560  19.814  0.0754 -0.5740  0.0725
95660W        W33154  11.462  22.066  11.557 -0.1146 -0.0006  0.0713
95661W        W33155  27.340  12.118   6.670  0.0111  0.3430  0.2017
95662W        W33156  24.272  13.415  20.140  0.1102 -0.1054 -0.2696
95663W        W33157   7.148   3.588   9.583  0.2492  0.1217  0.2677
95664W        W33158  25.552  34.984  25.312  0.2462 -0.0230 -0.1912
95665W        W33159  17.746  30.767  23.119  0.0553 -0.0476  0.0253
95666W        W33160   0.714  34.780  25.551  0.0604  0.0631  0.1689
95667W        W33161   4.323  10.757   1.845 -0.1200  0.1334  0.0555
95668W        W33162  27.589   3.579   0.884  0.3564 -0.1578 -0.2405
95669W        W33163   1.558  21.780  17.521  0.2201  0.2905  0.4553
95670W        W33164  16.198   8.854   6.420 -0.0584  0.2295  0.0284
95671W        W33165   1.298   5.996  24.618  0.1169  0.0723  0.0530
95672W        W33166   9.608  24.276  12.059 -0.1930 -0.0809  0.1147
95673W        W33167   0.494  13.882  10.521 -0.1083  0.1829  0.1574
95674W        W33168   8.214  12.575   9.543 -0.2013  0.2339  0.0998
95675W        W33169   7.369  19.280   7.848 -0.2645 -0.2265  0.0349
95676W        W33170  15.738   7.064   7.395  0.2500  0.3854  0.0719
95677W        W33171  23.935  15.961  19.566  0.3029  0.2317  0.0444
95678W        W33172  28.155  21.720  12.933 -0.0974  0.1813  0.0520
95679W        W33173  33.494   3.885  12.124  0.0707 -0.3672 -0.0015
95680W        W33174  14.369  11.703  13.159  0.1747 -0.1703 -0.0185
95681W        W33175  11.342  28.352   4.928  0.1178 -0.0671 -0.0602
95682W        W33176  15.318  21.570   5.053  0.0232  0.2381  0.1532
95683W        W33177  14.016   7.291  25.388 -0.1793  0.2409 -0.0437
95684W        W33178  11.340  31.465   0.562 -0.0647 -0.2524 -0.2148
95685W        W33179  31.543  15.655  13.411 -0.2187 -0.0580  0.0758
95686W        W33180  12.395  22.467   4.816 -0.0196 -0.0795 -0.0566
95687W        W33181   7.269   8.444   4.898  0.0769 -0.4048  0.0226
95688W        W33182  27.674  11.147   6.346  0.1079 -0.1914  0.0750
95689W        W33183  28.838   9.512  13.577  0.0501  0.2448  0.2100
95690W        W33184  26.327  34.043  13.812  0.2725 -0.2572 -0.2068
95691W        W33185  24.487  14.921  21.258  0.0737  0.2283 -0.1626
95692W        W33186  11.252   4.553   9.634 -0.1897  0.1168  0.0282
95693W        W33187   7.408  24.998  23.028 -0.0062 -0.1005  0.2804
95694W        W33188  24.804  27.094  25.650  0.0083  0.0248 -0.0998
95695W        W33189  23.483   2.458   5.160 -0.0559  0.2935  0.2027
95696W        W33190  19.797  31.374   4.929 -0.0024 -0.0696  0.1322
95697W        W33191  21.164  12.207  24.430  0.1637 -0.0273 -0.0822
95698W        W33192  20.478  20.793   1.171  0.1926  0.2786 -0.0637
95699W        W33193  27.809   7.514  15.705  0.1229  0.0164 -0.4256
95700W        W33194   4.614  15.522   6.876  0.2826 -0.0674  0.1484
95701W        W33195  11.552  17.413  19.782  0.0723  0.0670  0.0537
95702W        W33196  11.150  15.752   8.204  0.3144  0.3557 -0.3638
95703W        W33197   5.905  34.050  25.419  0.0789 -0.0058 -0.1360
95704W        W33198  31.837  32.270   4.543  0.0037 -0.0153 -0.1908
95705W        W33199  19.964   5.586   3.243 -0.3956  0.0664  0.2583
95706W        W33200  23.636  23.351   3.148  0.2764 -0.0456 -0.1221
95707W        W33201   7.612  30.336  21.993  0.1446 -0.5226 -0.2861
95708W        W33202  27.901   5.726  12.706  0.2164 -0.0591 -0.4853
95709W        W33203  22.011   1.394  25.663 -0.0023 -0.2251 -0.1703
95710W        W33204  10.322  32.219  16.593  0.0771  0.2864  0.0958
95711W        W33205   8.300   0.104   9.240  0.1515  0.0629  0.0396
95712W        W33206  32.986  24.836  13.691 -0.2697  0.0734 -0.0153
95713W        W33207   8.840  17.517  25.021  0.0183  0.1198  0.2855
95714W        W33208  19.583  26.805  20.115 -0.0809  0.1450  0.1191
95715W        W33209   1.654  13.816  19.381 -0.1626 -0.1518 -0.1123
95716W        W33210  14.596  32.536  21.851  0.0371 -0.0683 -0.1310
95717W        W33211  31.629  15.065   8.505 -0.2100 -0.2947  0.1387
95718W        W33212  17.554  13.090   6.607  0.2364 -0.1845  0.1292
95719W        W33213   2.384  15.479   2.422 -0.0241  0.0097  0.1016
95720W        W33214  25.181  13.717   9.850 -0.0357 -0.2685  0.1902
95721W        W33215   3.192   0.586  18.555  0.0618 -0.1144 -0.3896
95722W        W33216   6.512  24.188  26.242  0.1257 -0.0496  0.0146
95723W        W33217   9.716  23.783  25.012  0.0612 -0.2289  0.2062
95724W        W33218   9.209  28.156  15.136  0.1407 -0.0704 -0.0305
95725W        W33219  18.113  32.465   7.315 -0.3079  0.0109  0.1079
95726W        W33220   0.557  33.507  22.179  0.1753  0.2637  0.1574
95727W        W33221  19.507   3.067   7.671 -0.1097  0.0018 -0.1603
95728W        W33222  12.925  17.272   4.926  0.0153  0.4771 -0.3255
95729W        W33223   4.641   6.608  20.203 -0.1736  0.0523  0.2234
95730W        W33224  10.841  30.719  15.653  0.0516  0.0884 -0.1490
95731W        W33225   8.171  15.942   4.764 -0.1141 -0.1362  0.0839
95732W        W33226  11.690   0.017  25.594 -0.2973 -0.1202 -0.0243
95733W        W33227  31.899  32.906   5.997  0.3583  0.2530 -0.5060
95734W        W33228  14.346   0.683   9.409 -0.3773 -0.0385 -0.0725
95735W        W33229  23.701  10.028  24.701 -0.0034 -0.3464  0.1251
95736W        W33230  25.497  21.019  21.657 -0.0213 -0.3438  0.0173
95737W        W33231  10.522   5.853  26.192  0.0914  0.0017  0.1944
95738W        W33232  12.736  32.345   4.721 -0.0285  0.1420 -0.1024
95739W        W33233  31.422  31.168  12.062 -0.0935 -0.0110 -0.2008
95740W        W33234  33.257  10.642  18.806  0.0907  0.2800  0.2910
95741W        W33235  10.762  24.685   6.142 -0.0611  0.2548  0.3630
95742W        W33236  31.141  10.438   9.493  0.0082  0.0886  0.2289
95743W        W33237  25.541  11.275  11.500 -0.1466 -0.1347  0.2465
95744W        W33238  15.858  20.490  23.674  0.2640 -0.0264  0.0089
95745W        W33239  22.081  12.464  19.903 -0.0362 -0.0157 -0.1419
95746W        W33240  32.761  29.401  16.824 -0.1479 -0.0275 -0.0669
95747W        W33241  29.612  22.750  23.593 -0.0186 -0.0727 -0.1857
95748W        W33242  17.941  18.446  25.174  0.1912  0.3441  0.2806
95749W        W33243   1.050   4.134  18.167 -0.4677 -0.1720  0.0544
95750W        W33244  12.551  15.077   5.316  0.4058  0.0349  0.0821
95751W        W33245  10.264  30.500  16.541  0.0825  0.2423 -0.1749
95752W        W33246  13.709  20.234   3.809  0.1436  0.2634 -0.0792
95753W        W33247  12.832   3.792  20.866 -0.0390 -0.1792  0.0384
95754W        W33248  19.652  18.695  19.160  0.0684 -0.0394 -0.4091
95755W        W33249   0.913   9.946  25.830  0.3080  0.0514  0.1921
95756W        W33250  29.098  35.008  12.343 -0.1364  0.2173  0.0862
95757W        W33251  17.000   6.683   3.588  0.3048  0.0562  0.2139
95758W        W33252  20.167  19.000  24.927  0.0856 -0.1136  0.4307
95759W        W33253  13.940  20.562   6.829 -0.1102 -0.4261  0.1016
95760W        W33254  13.604  21.565  11.957  0.0055 -0.0531  0.2097
95761W        W33255  26.826  22.723   9.253 -0.2013  0.0176 -0.1327
95762W        W33256  17.010  30.282  19.834  0.0732 -0.1273  0.0283
95763W        W33257   7.773  13.759  24.566  0.0070  0.3856  0.3229
95764W        W33258  20.945  13.271   2.444 -0.0159 -0.1798 -0.0936
95765W        W33259  25.400  32.818  23.429 -0.1427 -0.1716 -0.3352
95766W        W33260  11.343  18.920   9.765 -0.0999 -0.1792  0.0076
95767W        W33261   5.174  10.658   0.407 -0.0034 -0.0624  0.0684
95768W        W33262  12.688   2.188  12.690  0.0751 -0.3208 -0.1737
95769W        W33263  17.392  16.556  10.047  0.0954  0.0952 -0.3280
95770W        W33264   8.975   5.357   8.111  0.1155 -0.0864  0.0376
95771W        W33265   2.486   2.536  19.359 -0.0897 -0.3006  0.1446
95772W        W33266  16.922  26.148   2.559 -0.2346  0.0729 -0.2258
95773W        W33267   0.303   7.313  22.874  0.0716 -0.1042  0.0020
95774W        W33268  16.441  10.930  10.637 -0.1920 -0.2058 -0.0648
95775W        W33269  13.745   8.544   1.894 -0.2643 -0.0181  0.0397
95776W        W33270  32.093  22.512  22.746  0.0497  0.0379 -0.0760
95777W        W33271  11.014   7.103   3.607  0.1187  0.1606  0.2544
95778W        W33272  24.680  16.643  22.850  0.1191  0.0129 -0.2475
95779W        W33273   7.447  22.622  13.124 -0.0110 -0.1662 -0.3154
95780W        W33274  28.858  15.683   5.349 -0.0542 -0.0738  0.2890
95781W        W33275  27.186  26.610  22.871 -0.1727  0.4183 -0.1299
95782W        W33276  23.549  18.291  19.667  0.2050 -0.3363 -0.0195
95783W        W33277   9.334   8.719   9.460  0.2300 -0.0740 -0.0296
95784W        W33278   0.642   5.589   2.841  0.0591  0.0381 -0.2901
95785W        W33279   5.054  22.799  23.432  0.1297  0.0280 -0.2455
95786W        W33280   8.356  31.478  21.580 -0.0738  0.1691 -0.0202
95787W        W33281   9.813  26.867  23.216 -0.1709 -0.0287  0.1496
95788W        W33282  25.962   9.738  24.012  0.1664 -0.2789  0.0514
95789W        W33283  16.901   3.637  21.789 -0.0935  0.0816 -0.0228
95790W        W33284  22.703   7.946   0.142  0.3649  0.1127 -0.1829
95791W        W33285  21.872  33.164   6.457  0.0033  0.0873 -0.0014
95792W        W33286  11.115  12.711  24.659 -0.2328 -0.1251  0.1074
95793W        W33287  19.571  33.785   3.719  0.0417 -0.0013 -0.0203
95794W        W33288  27.394   7.677  22.606  0.1843  0.0793  0.0592
95795W        W33289   9.108  24.110   6.701 -0.1378  0.0728 -0.1584
95796W        W33290  15.362   9.734  13.403  0.0460  0.0750 -0.0878
95797W        W33291  26.919   3.420  12.269 -0.3729 -0.1471 -0.0129
95798W        W33292   6.415  29.724   0.110 -0.1156 -0.0171 -0.0254
95799W        W33293   3.074  24.223   1.954 -0.3819 -0.1093  0.0590
95800W        W33294  31.690  11.050  14.230  0.2252  0.3652 -0.1288
95801W        W33295  10.469   8.691  10.639 -0.1612 -0.0623  0.0636
95802W        W33296  22.163  27.721   5.757  0.0775 -0.4083 -0.2673
95803W        W33297   9.863  29.054  14.927  0.0195 -0.2687 -0.2025
95804W        W33298  15.554   8.785   0.550  0.0969 -0.0761 -0.2408
95805W        W33299   1.952  33.839   6.650  0.2301 -0.1123  0.0669
95806W        W33300  21.654  32.796  16.833  0.1830 -0.0089 -0.0780
95807W        W33301   9.707   2.361   4.676  0.2412 -0.1776 -0.1529
95808W        W33302  22.387  26.896  22.472  0.2352  0.0588  0.3642
95809W        W33303   1.575  24.854   2.538  0.0328 -0.5230 -0.1195
95810W        W33304   5.428   6.361  20.365  0.0926  0.4691  0.0544
95811W        W33305  20.674  29.953  18.608  0.0511 -0.2897 -0.0726
95812W        W33306  16.185  34.585  25.098  0.2687  0.0541  0.2821
95813W        W33307   8.877  26.867  25.581  0.4114 -0.0067 -0.1849
95814W        W33308  18.359   9.618  12.319  0.0169  0.0705  0.0868
95815W        W33309   6.147   5.399   6.136 -0.0063 -0.2224  0.0632
95816W        W33310  16.909  23.286  11.884  0.1215  0.1237 -0.0291
95817W        W33311  11.242  27.775   2.774 -0.0188  0.1280 -0.0107
95818W        W33312  33.128  11.875  14.880  0.0613 -0.3540  0.2411
95819W        W33313   7.580  28.442   2.998  0.4507 -0.1951  0.0241
95820W        W33314   0.440   4.025  13.714  0.0786  0.2186 -0.2652
95821W        W33315  18.423  22.969  23.056 -0.0370  0.0497  0.0718
95822W        W33316   1.094   1.131  20.931 -0.1626  0.3372  0.1848
95823W        W33317  16.763   9.518  11.815 -0.1939 -0.0578  0.1519
95824W        W33318  25.997  11.272  17.174 -0.0868  0.0453 -0.1081
95825W        W33319   9.618  31.214  23.142  0.2699  0.2423 -0.1680
95826W        W33320   4.525  15.667  25.119 -0.2197 -0.1837 -0.1498
95827W        W33321  15.700  23.158  12.529  0.0201 -0.3508 -0.2489
95828W        W33322  20.528   7.099  20.033 -0.0494 -0.2888  0.0079
95829W        W33323   7.164  30.491  10.799  0.1618 -0.2238 -0.0328
95830W        W33324   4.870   1.121  18.742 -0.3488 -0.0958 -0.0867
95831W        W33325   9.421  11.681  23.890 -0.1806 -0.0871 -0.2747
95832W        W33326   0.466  31.291   5.730 -0.0832  0.2599 -0.1297
95833W        W33327  30.050  18.222  23.143 -0.1809  0.2003  0.2006
95834W        W33328  17.817  14.923  22.345  0.2367  0.0968 -0.0201
95835W        W33329  33.301  21.828  13.961  0.1226 -0.0117  0.3021
95836W        W33330  28.222  20.158  18.655  0.3959  0.0302 -0.1544
95837W        W33331  33.834  15.352  12.175 -0.0488  0.3715 -0.1094
95838W        W33332  15.724  27.653   7.800  0.1192  0.4697  0.0530
95839W        W33333  11.577  23.683  10.522 -0.0874  0.1808 -0.0360
95840W        W33334   0.678  20.469   0.831  0.0681 -0.3075 -0.0435
95841W        W33335   6.114   1.100  12.825 -0.3349 -0.1777 -0.2004
95842W        W33336  24.283   4.629  24.555 -0.1976  0.1923 -0.0834
95843W        W33337  10.315  27.059  14.538 -0.0973  0.1472  0.2202
95844W        W33338  13.068   6.612  14.576 -0.0997 -0.1569 -0.0987
95845W        W33339  20.033   8.509  17.950  0.1001 -0.3598 -0.1549
95846W        W33340  34.596  12.518  23.397 -0.0168 -0.3281  0.1209
95847W        W33341  17.169  29.363  22.011  0.1688 -0.2715  0.2971
95848W        W33342   8.739  10.519  22.512  0.2724  0.2771  0.2386
95849W        W33343   5.558  32.742  20.770  0.0621 -0.0560 -0.1073
95850W        W33344   7.894  13.014   9.643  0.0411 -0.0441 -0.1284
95851W        W33345  28.642  11.590  15.872 -0.1703  0.2595 -0.3069
95852W        W33346  18.201  28.256   4.236 -0.2389 -0.0614  0.1179
95853W        W33347  33.622  18.071  17.024  0.2452  0.0953 -0.2228
95854W        W33348  34.885  10.182  24.804  0.0822  0.0427  0.0823
95855W        W33349  29.730  15.993  24.555 -0.0035 -0.0442  0.3193
95856W        W33350  13.051  24.890  14.633  0.0171  0.0177  0.3615
95857W        W33351  18.808  32.606   0.298  0.0076  0.1142  0.0332
95858W        W33352  13.735  29.947  24.092 -0.2058 -0.0495  0.1307
95859W        W33353   8.008   8.418   0.487  0.1792 -0.1546  0.2880
95860W        W33354   9.329  11.455   2.477 -0.1439 -0.1915  0.0596
95861W        W33355  25.691  23.664  26.028 -0.0110  0.0738  0.2621
95862W        W33356  31.257  24.490  14.576  0.1160  0.0253 -0.2007
95863W        W33357   8.415  16.369  25.091  0.1946  0.2094  0.0935
95864W        W33358  11.762  29.827  15.811 -0.2488  0.0889  0.2750
95865W        W33359  20.073  29.934   1.282 -0.3949  0.0404 -0.0534
95866W        W33360  19.447   6.995   9.599  0.1336  0.3286 -0.4126
95867W        W33361  13.942  30.875   5.301 -0.1259  0.2287  0.1925
95868W        W33362  28.062  30.866   1.116  0.3219  0.0342 -0.0022
95869W        W33363  12.638   3.682  21.272  0.1192 -0.1726  0.2047
95870W        W33364  15.508  24.245   0.128  0.0177 -0.0835  0.1000
95871W        W33365  23.954   0.774   6.163  0.0722  0.0865  0.0799
95872W        W33366   2.763  25.842  24.702  0.1133  0.0861  0.2349
95873W        W33367  25.977  11.232  20.355 -0.2459  0.0493  0.1378
95874W        W33368  29.931   9.264  10.663  0.3128 -0.2205 -0.0666
95875W        W33369  25.445  17.280  11.260  0.2810  0.1861 -0.1235
95876W        W33370  10.965   5.664  20.398  0.0938 -0.0756 -0.0998
95877W        W33371  12.466   1.385  12.387 -0.0794 -0.0603  0.1714
95878W        W33372   9.342  23.109  15.369  0.0093  0.1729  0.0589
95879W        W33373   1.055  11.936   0.118 -0.2501 -0.1458 -0.0695
95880W        W33374  24.273  32.614  15.081 -0.2279  0.1162 -0.3789
95881W        W33375   2.382  20.794  12.622  0.0477 -0.2377  0.1365
95882W        W33376  20.116   2.972  18.371  0.0133 -0.1100  0.1344
95883W        W33377   7.922  31.994  21.088 -0.3795 -0.1976  0.0350
95884W        W33378  16.758  10.399   7.809  0.3127  0.0413 -0.0432
95885W        W33379  35.263   4.360  13.167 -0.0931  0.1886 -0.0103
95886W        W33380   6.964   0.577   1.404  0.2594 -0.1906  0.3099
95887W        W33381  23.637  31.107  18.525 -0.2075 -0.0051 -0.0910
95888W        W33382  27.846   2.860  21.843  0.1719 -0.4236 -0.0891
95889W        W33383  19.140  19.998  21.357  0.0623 -0.0140  0.1163
95890W        W33384  12.360  16.503  23.022 -0.1744  0.0407 -0.1362
95891W        W33385   6.124  22.165  25.097 -0.1144 -0.0969 -0.2790
95892W        W33386   5.254  11.481  16.653 -0.0230 -0.3601 -0.2975
95893W        W33387  25.949  20.477   9.697  0.2882 -0.2027  0.1148
95894W        W33388  25.260  32.665  13.655  0.1637 -0.0872 -0.1239
95895W        W33389  12.421  19.881  22.116 -0.3191 -0.1808  0.1188
95896W        W33390  33.743  32.281  18.748  0.0444 -0.2337  0.1389
95897W        W33391   5.234  22.205  22.809  0.3906  0.2771  0.1417
95898W        W33392  21.639   8.521  23.515  0.1748  0.1991  0.2988
95899W        W33393  34.549  29.329  22.048 -0.4549  0.1579 -0.0017
95900W        W33394   9.553  16.008  10.880 -0.0843 -0.0260  0.0096
95901W        W33395   9.909  27.071  21.632  0.0526 -0.1932 -0.2188
95902W        W33396  11.095   1.629   0.195  0.0796  0.4016 -0.2954
95903W        W33397  33.737  11.396  11.250 -0.1401  0.1404  0.3121
95904W        W33398  11.423  17.889  21.559  0.0140  0.0922 -0.2137
95905W        W33399  29.251  16.085  21.611 -0.0651 -0.5619  0.0292
95906W        W33400   1.257  15.864  14.299  0.2319 -0.3037  0.1525
95907W        W33401  35.142  11.994  17.241  0.3095  0.1780 -0.4525
95908W        W33402  28.420  12.654  12.056  0.1558  0.1182  0.0654
95909W        W33403  28.845  12.846   6.106 -0.1498  0.1061  0.2927
95910W        W33404   2.592  16.076  15.246  0.5124 -0.2326 -0.1542
95911W        W33405  35.047   0.850   3.657 -0.0219  0.0580  0.2152
95912W        W33406  24.244   1.904  16.985  0.0328  0.2752  0.0490
95913W        W33407  27.681  11.571  17.248 -0.1300 -0.2688  0.0349
95914W        W33408  18.694  26.644   8.794 -0.1198 -0.2243  0.1322
95915W        W33409  17.977  33.163   8.603  0.0296 -0.1651  0.0156
95916W        W33410   5.607  25.136  25.523 -0.1873 -0.0305 -0.0415
95917W        W33411  11.123  13.393  11.667 -0.1138  0.0415  0.4790
95918W        W33412  19.288  23.492  23.995 -0.0395 -0.1917 -0.0633
95919W        W33413  30.249  20.315  16.324  0.0686 -0.1344 -0.0875
95920W        W33414  13.135  30.159  21.831  0.1608  0.0750  0.2932
95921W        W33415   4.870  23.089  22.556 -0.0146  0.0766  0.1239
95922W        W33416   0.959   5.877  17.657 -0.5410  0.1513 -0.1607
95923W        W33417  34.242   2.346  19.317  0.1843  0.0916  0.1091
95924W        W33418  29.130  22.186   6.075  0.4413 -0.1908 -0.0133
95925W        W33419  14.670   9.131  24.254  0.1355 -0.0708  0.1494
95926W        W33420  26.577  10.229  17.852  0.0122  0.2415 -0.2935
95927W        W33421  17.794   7.684   2.945 -0.2038 -0.4865 -0.2136
95928W        W33422  12.848  19.805  14.601  0.1950 -0.3275  0.0119
95929W        W33423  33.773   7.223  21.104 -0.2727 -0.1857  0.0351
95930W        W33424  29.230  27.011  11.253 -0.0375  0.0452  0.3756
95931W        W33425  27.114  20.641  11.905  0.2276  0.1714  0.2096
95932W        W33426  33.308  27.961  21.352 -0.0900  0.1696 -0.0970
95933W        W33427  29.739  33.989   0.309  0.0430  0.1407 -0.2150
95934W        W33428  10.755  29.760  16.082 -0.2539  0.3365 -0.3056
95935W        W33429  10.370  34.922   2.680 -0.0664 -0.1492  0.3093
95936W        W33430  22.601   1.619   4.299 -0.2277 -0.0256  0.0162
95937W        W33431   8.199   5.709   9.150  0.0883  0.1548 -0.0761
95938W        W33432   9.554   3.626  25.870 -0.1602  0.1934  0.2335
95939W        W33433  25.855  21.540  20.510 -0.0296 -0.1165 -0.0238
95940W        W33434  28.712  19.677  10.752 -0.1045 -0.3310 -0.0771
95941W        W33435  13.586  30.561  25.153  0.1313 -0.0273  0.0744
95942W        W33436  23.069   0.082   2.825  0.0370 -0.2661  0.0232
95943W        W33437  31.369  15.068  22.551 -0.2294 -0.0356 -0.0205
95944W        W33438   5.843  11.701  25.626  0.0070 -0.0370 -0.0043
95945W        W33439  13.768  15.409   1.606  0.0224  0.1179  0.0524
95946W        W33440  31.261   0.966   1.266 -0.2617 -0.2279  0.0213
95947W        W33441  15.268  22.263   9.962 -0.0852  0.1917  0.1459
95948W        W33442   6.505  32.034   8.754  0.2295 -0.1851  0.1590
95949W        W33443  33.673  31.744  15.097  0.0443 -0.1228 -0.3049
95950W        W33444  28.625  17.591  10.448 -0.0911  0.0955  0.1850
95951W        W33445  25.178   8.933  16.500 -0.1996  0.0208 -0.3637
95952W        W33446  33.202  15.260  12.208 -0.1954  0.0531 -0.0209
95953W        W33447  13.189   5.193  11.670  0.1706 -0.1726 -0.1390
95954W        W33448  31.051  21.913  17.952  0.2526  0.1428 -0.0613
95955W        W33449  13.802   4.558  23.683 -0.0007  0.3647 -0.0358
95956W        W33450   0.378   0.812   4.258  0.4299 -0.1573 -0.0863
95957W        W33451  16.568   0.751  25.943  0.1240  0.1946 -0.0363
95958W        W33452  34.040  35.239   6.268  0.2220 -0.1046 -0.1001
95959W        W33453  12.216  17.971   9.220  0.1324 -0.2473  0.3310
95960W        W33454  22.874  34.197   6.641 -0.1381 -0.0525 -0.0546
95961W        W33455   4.084  29.595  10.843 -0.1626 -0.2318  0.0935
95962W        W33456  21.219   3.033  20.204 -0.4237  0.0305 -0.1041
95963W        W33457   8.704  19.966  10.943  0.4068  0.2346 -0.2344
95964W        W33458  23.426  31.044  22.022 -0.2233  0.1782 -0.1121
95965W        W33459   6.453   9.156   0.147  0.1456 -0.0435 -0.0272
95966W        W33460  24.477  22.270   0.776 -0.1688  0.0272 -0.1019
95967W        W33461  13.656  30.834   4.873  0.1147 -0.0344  0.0178
95968W        W33462   5.510   8.533   8.749  0.0621 -0.1111 -0.2971
95969W        W33463   8.861   9.573   1.896  0.1857 -0.2349  0.3764
95970W        W33464  21.725  32.049  16.059  0.1077 -0.0812 -0.2295
95971W        W33465  34.912  22.474  21.634  0.4963  0.0533  0.1140
95972W        W33466   5.443  21.044  24.918  0.2237  0.2628 -0.0078
95973W        W33467  26.819  17.094   9.667 -0.0589  0.1406  0.1656
95974W        W33468  25.502  32.046  14.983  0.0341 -0.0675  0.3683
95975W        W33469   4.619  26.524   8.945  0.0241  0.3010  0.3539
95976W        W33470  15.612  31.710  22.576  0.2075 -0.0888  0.0294
95977W        W33471  28.770   7.941   2.274  0.1939  0.2531  0.0415
95978W        W33472  11.210  27.516  14.916  0.1735 -0.4476 -0.1216
95979W        W33473  17.973  11.096  23.345 -0.1844  0.0449 -0.2941
95980W        W33474   3.838  21.865  20.533  0.2616  0.0315 -0.0022
95981W        W33475  30.268  24.027   6.394  0.1009 -0.1985 -0.1379
95982W        W33476  23.498  15.343  21.012 -0.0070  0.4518  0.1295
95983W        W33477  20.309   3.712  21.958  0.1721 -0.2420  0.0172
95984W        W33478  27.472  11.915  20.205 -0.1037 -0.1134  0.1509
95985W        W33479  11.303  17.909   4.179  0.0137 -0.3000 -0.3768
95986W        W33480   4.929  25.632   3.518  0.2740  0.1468  0.0878
95987W        W33481  14.471  13.749  24.452  0.2151  0.1942  0.1094
95988W        W33482   6.333  21.558  23.773  0.0210  0.1435  0.0547
95989W        W33483  15.901  22.978   5.325  0.0549  0.0832  0.2729
95990W        W33484  29.525  15.648  15.026 -0.0602 -0.3952 -0.1434
95991W        W33485   4.484   8.949   1.593  0.4442  0.2537 -0.2704
95992W        W33486  13.350  22.299  23.299 -0.3095  0.2061  0.1261
95993W        W33487  14.946  24.652  13.978 -0.0091 -0.0329  0.0821
95994W        W33488  10.025  15.159   4.780 -0.3676  0.0874  0.2746
95995W        W33489   4.711  11.660  24.260 -0.1787  0.1017 -0.1156
95996W        W33490  12.391  24.850  17.118  0.2180  0.1254  0.1982
95997W        W33491  21.861  19.644   3.245  0.1079  0.0455 -0.0214
95998W        W33492   8.744  26.050  22.737  0.0906  0.0244 -0.3001
95999W        W33493  18.644  20.986   2.721  0.0444  0.0585  0.0978
96000W        W33494  10.622  25.886  14.579  0.0218  0.4308  0.0190
96001W        W33495  29.073   1.579  16.661  0.2257  0.0846  0.0803
96002W        W33496  22.054  12.220  16.081 -0.0336 -0.0252 -0.1904
96003W        W33497   7.644  19.248  25.145  0.0942 -0.0384 -0.0324
96004W        W33498   4.152  35.184   8.190 -0.1706  0.0824  0.2383
96005W        W33499  23.616  32.953  23.510  0.1356  0.0408 -0.0147
96006W        W33500  10.922   8.203  22.368 -0.0822  0.0824 -0.3086
96007W        W33501   8.204  22.823   2.011  0.5459  0.0695 -0.2353
96008W        W33502  10.248  24.330   9.037 -0.0495 -0.0073 -0.3712
96009W        W33503  14.585  22.636  15.547  0.4310  0.0384 -0.0887
96010W        W33504   7.986   2.451  22.370 -0.1477 -0.0116  0.2585
96011W        W33505   2.355  21.095   3.723  0.0948 -0.0453  0.0887
96012W        W33506  11.956  29.320   3.492  0.1626 -0.2690 -0.1443
96013W        W33507  13.691  31.739  25.143  0.0325  0.0904 -0.2867
96014W        W33508   6.843  13.989   3.977 -0.2765 -0.1628  0.0350
96015W        W33509  23.764  21.348  18.708  0.3292  0.0670 -0.2023
96016W        W33510  17.990  22.799  20.288  0.4799 -0.4162  0.2132
96017W        W33511  12.797  27.177   4.834 -0.1443  0.1461  0.1465
96018W        W33512   9.566   7.789   3.716 -0.2183 -0.0616 -0.2379
96019W        W33513   9.772   2.973   4.978 -0.1345  0.1967  0.1896
96020W        W33514  16.170  15.875   1.920 -0.0489  0.3794  0.1116
96021W        W33515  35.103   7.013  26.238  0.2504  0.0090  0.0350
96022W        W33516  17.786   8.612   7.704  0.0378 -0.2360 -0.0369
96023W        W33517  12.037  26.871  10.430  0.1982 -0.0968 -0.1147
96024W        W33518  29.498  11.542   0.110 -0.2979  0.0006  0.0468
96025W        W33519  15.761   5.398  24.653 -0.0786 -0.0113  0.0301
96026W        W33520  29.862   6.473  23.751 -0.3126  0.3195 -0.1453
96027W        W33521  17.293  28.367   9.983 -0.2484  0.0463 -0.1914
96028W        W33522  34.834   3.814  24.009 -0.3201  0.4428 -0.2563
96029W        W33523   2.467   6.245   7.289  0.2420 -0.0786 -0.0793
96030W        W33524  25.904   2.581  21.455  0.2370  0.0026  0.0800
96031W        W33525  33.089  11.488  23.524  0.0706 -0.0805 -0.2566
96032W        W33526  24.234  23.018  24.854 -0.1707  0.1146 -0.0601
96033W        W33527  14.500   1.469  20.827  0.1414  0.0787  0.1573
96034W        W33528  20.314  14.455   6.907  0.2799 -0.3569  0.1270
96035W        W33529  11.674  26.675   5.358 -0.0129 -0.0376  0.1957
96036W        W33530   0.471  10.171   3.381  0.1246 -0.1921 -0.0414
96037W        W33531  13.079   0.845   5.734  0.0004 -0.1073  0.1063
96038W        W33532  10.276  11.708   6.060  0.0652  0.2412 -0.1959
96039W        W33533  24.387  35.006  22.084  0.1827 -0.1326 -0.1257
96040W        W33534  34.729  11.751  20.118  0.1673 -0.3640  0.0870
96041W        W33535  26.537  14.953  14.055 -0.0233 -0.1230  0.1326
96042W        W33536   2.289  25.196   4.755 -0.0658 -0.1180  0.2521
96043W        W33537  16.116  28.113  23.333 -0.0845 -0.1024 -0.1355
96044W        W33538   7.100  29.494  12.519  0.1832  0.0953 -0.0915
96045W        W33539  17.289   1.190  25.386 -0.0117 -0.1230  0.1308
96046W        W33540   6.404  28.295  11.326  0.2176  0.0206 -0.0860
96047W        W33541  28.954   4.987  13.558  0.0693 -0.1287  0.4258
96048W        W33542   8.293  33.862  20.959 -0.2522 -0.3238  0.0196
96049W        W33543  15.942  20.488  24.884  0.2901  0.0500  0.0085
96050W        W33544  33.512  32.426   4.299  0.3309 -0.3621  0.1140
96051W        W33545   2.994  21.569  21.262  0.0042  0.2069 -0.1248
96052W        W33546   1.797  17.010  24.964 -0.0112  0.0581  0.3814
96053W        W33547  25.710  12.345  24.321 -0.1825 -0.0987 -0.1448
96054W        W33548   0.973   7.717  20.262  0.3538  0.0235 -0.0085
96055W        W33549   7.936  15.407  10.706  0.3451 -0.3132 -0.0613
96056W        W33550  31.314   9.147  22.455  0.0021  0.0493 -0.1387
96057W        W33551  29.464  17.097  14.007  0.1708  0.2289  0.0145
96058W        W33552  14.382  13.239  19.766  0.1017 -0.0926 -0.1401
96059W        W33553   0.417  27.118  20.644 -0.0090  0.0757 -0.1523
96060W        W33554  21.828   2.271  26.089  0.2581 -0.0540  0.1391
96061W        W33555  26.035  25.823  14.679 -0.1256 -0.2203  0.1709
96062W        W33556  30.469  26.482  21.743  0.0090  0.1826  0.2636
96063W        W33557  32.050   7.042  18.569 -0.2383 -0.0171 -0.1978
96064W        W33558  21.312  16.148  17.432  0.2541  0.5648 -0.0018
96065W        W33559   9.333  33.837   0.792 -0.0647 -0.0237  0.3956
96066W        W33560  10.761  15.724   4.697 -0.0219  0.0286 -0.1151
96067W        W33561  14.321  11.056   1.426  0.1711  0.2564 -0.0258
96068W        W33562  11.548   0.393  24.556 -0.0524 -0.0494  0.0287
96069W        W33563   7.815  26.783   9.786 -0.1648 -0.0669  0.0279
96070W        W33564  22.797  26.787   5.726  0.1473 -0.0981  0.1016
96071W        W33565  35.340  34.138  24.607  0.4007 -0.2824 -0.1636
96072W        W33566  18.120   6.724  11.048 -0.3422  0.0658 -0.2290
96073W        W33567  24.835  34.793   5.973 -0.0273  0.1774 -0.1228
96074W        W33568  24.997  21.893   8.528  0.0405  0.1127  0.3555
96075W        W33569   1.006  29.679  23.289  0.0636 -0.0661 -0.1945
96076W        W33570  35.054  23.977  12.140 -0.0320  0.0440 -0.0074
96077W        W33571  29.317   9.229   8.590  0.0067 -0.0180 -0.1951
96078W        W33572  17.751  13.572   3.853 -0.2294  0.1601 -0.0623
96079W        W33573  19.107   4.898   8.146  0.0210  0.2884 -0.1708
96080W        W33574  26.163   4.262  23.815  0.0998  0.0080  0.0314
96081W        W33575  18.700   6.786  18.755  0.1443  0.0354 -0.1307
96082W        W33576   8.098  31.009  13.408  0.2236 -0.3373  0.2395
96083W        W33577  26.943  30.316  14.064  0.1342  0.0412 -0.1534
96084W        W33578  23.265  14.564  21.648  0.0581 -0.1741  0.0067
96085W        W33579  31.931  22.186  15.233 -0.1513  0.0169 -0.1595
96086W        W33580  32.618  28.265  22.056 -0.1546  0.0837 -0.2454
96087W        W33581  23.390  32.206   2.605 -0.1963  0.2895  0.0067
96088W        W33582   7.435  34.713  10.226  0.0473  0.2324  0.0590
96089W        W33583  21.444   9.385  22.145 -0.1108 -0.1170  0.0227
96090W        W33584  28.712  11.790  15.373  0.0308  0.1335  0.1195
96091W        W33585   1.727  23.894  20.768 -0.0774  0.2894  0.2008
96092W        W33586  18.139   5.334   3.169  0.0860 -0.2064  0.0099
96093W        W33587  31.364  28.923  20.814 -0.1101  0.1835 -0.0432
96094W        W33588  35.010  11.805  23.210 -0.0829  0.3184  0.0931
96095W        W33589  20.949  10.412  25.295  0.3907 -0.0198  0.1173
96096W        W33590  16.850  16.644  18.843 -0.1022 -0.0923  0.0501
96097W        W33591  11.931   2.482  25.405  0.6501  0.0076  0.0186
96098W        W33592  15.037  21.433  14.305  0.0153  0.0623 -0.2335
96099W        W33593  10.150  18.973   2.843 -0.1062 -0.1166 -0.1059
96100W        W33594   7.805  26.610  23.379  0.2007 -0.5224 -0.1551
96101W        W33595  13.534   7.301   5.208 -0.1224  0.0326  0.0925
96102W        W33596   7.608   9.638  11.371 -0.0853  0.0007  0.2301
96103W        W33597  10.079  22.074  15.661  0.3865  0.2377 -0.0000
96104W        W33598  34.861  15.690  25.499  0.0773  0.1025  0.0686
96105W        W33599   1.291  21.613  25.570 -0.2407 -0.2188 -0.1050
96106W        W33600  17.144  12.588  12.298  0.1314  0.0791  0.0374
96107W        W33601  14.282  23.585  23.187  0.0194 -0.3810  0.2012
96108W        W33602  18.753  10.990  17.874  0.2149 -0.0618  0.4285
96109W        W33603  17.056  28.825   1.452  0.1126  0.0613 -0.0364
96110W        W33604  17.090  21.165  12.989  0.0850  0.3009 -0.1221
96111W        W33605   3.245  13.591   0.549 -0.3412  0.2362  0.5056
96112W        W33606  32.609   3.956  16.863 -0.0723  0.2524  0.1316
96113W        W33607   6.598  19.201  21.170 -0.0817 -0.2554  0.2954
96114W        W33608   3.767   0.323  22.376 -0.2120 -0.1811  0.2734
96115W        W33609   4.356  12.807  21.271  0.2567 -0.0523 -0.2911
96116W        W33610  26.314  29.582  16.605  0.2233  0.1592  0.2800
96117W        W33611  34.645  28.565   0.522 -0.2096 -0.2719  0.4975
96118W        W33612   4.588  30.552   4.213 -0.0086 -0.0260  0.1008
96119W        W33613  23.361  35.089  21.455 -0.1904  0.2010 -0.2523
96120W        W33614  29.194   7.461  17.782 -0.1364 -0.3364 -0.0073
96121W        W33615   8.259   8.173  11.444  0.1604  0.1581 -0.2364
96122W        W33616   6.540   3.124  10.681 -0.1610 -0.0961  0.0763
96123W        W33617   3.049   0.019   2.277 -0.0282 -0.5102 -0.1032
96124W        W33618  31.437   1.148   0.578 -0.3072 -0.0024  0.0257
96125W        W33619  23.917  29.636  14.402 -0.0803  0.0993 -0.1759
96126W        W33620  18.714  31.425   4.983 -0.2669 -0.0312  0.2707
96127W        W33621   1.220  21.685   2.432 -0.0952  0.0298  0.2615
96128W        W33622   1.397  32.899   1.643 -0.0304 -0.0098  0.1284
96129W        W33623  23.696  16.681  18.552  0.2763  0.0062  0.2754
96130W        W33624  29.710   6.218  16.859 -0.0772  0.0277  0.1724
96131W        W33625  12.437   0.036   0.935 -0.3296  0.0294 -0.1888
96132W        W33626  27.185   8.606  14.074 -0.1864  0.0630 -0.3493
96133W        W33627  20.526  10.401  24.992  0.2675  0.0309 -0.3641
96134W        W33628  34.737  26.831   3.264  0.4058 -0.1519 -0.2650
96135W        W33629  26.312   0.788  12.659 -0.1746  0.1557  0.0122
96136W        W33630   2.030  18.142  13.300  0.1492  0.3009  0.1723
96137W        W33631  21.124  32.954  22.023 -0.1609  0.0017 -0.2024
96138W        W33632   4.269  28.572  21.577 -0.3200 -0.3847 -0.2575
96139W        W33633  34.934  15.194  23.160 -0.0562 -0.0024  0.3110
96140W        W33634  19.542   9.616  16.960 -0.1245 -0.0160 -0.1655
96141W        W33635  19.095  21.369   2.134 -0.1692  0.0231  0.2090
96142W        W33636  24.935  13.970  21.870  0.0015  0.0712 -0.2922
96143W        W33637  12.081   3.502  13.007 -0.0037 -0.2774  0.0138
96144W        W33638   3.116  35.133   1.051  0.1437 -0.1643  0.0411
96145W        W33639   6.832   1.933  22.818 -0.1515 -0.2791 -0.0985
96146W        W33640  10.571  10.855  19.446 -0.0207  0.3304 -0.1283
96147W        W33641  21.027  34.353   5.810  0.0491  0.1653 -0.0033
96148W        W33642  17.507   5.959  18.289 -0.0285  0.0664 -0.1468
96149W        W33643  23.923   3.516  14.116  0.0823  0.0759  0.0407
96150W        W33644  21.133  15.543   4.082 -0.4535  0.2760 -0.2407
96151W        W33645  24.599   3.126  21.902  0.1408  0.0973 -0.3151
96152W        W33646  33.604  10.658   0.724  0.1602 -0.3741  0.0399
96153W        W33647   5.798  20.400  22.836  0.0123  0.0357 -0.0108
96154W        W33648   4.041  16.458  18.238 -0.2559  0.0341  0.0194
96155W        W33649  17.511  21.558   2.459  0.2318  0.0879  0.2568
96156W        W33650   6.875  22.114   1.922  0.0724  0.2247 -0.0807
96157W        W33651  34.236  29.968   3.969  0.0367 -0.0105 -0.1225
96158W        W33652  10.426  17.842   5.913  0.0339 -0.2456  0.0662
96159W        W33653  27.799   5.787  24.769  0.1625 -0.2160  0.0464
96160W        W33654  15.071  18.522   1.878 -0.0251 -0.0387 -0.1334
96161W        W33655  23.440  26.195  14.863 -0.3580 -0.1705 -0.0079
96162W        W33656  34.865  10.481  26.026  0.2409 -0.0690 -0.0654
96163W        W33657  16.709  30.052   2.816 -0.1718  0.0969  0.4731
96164W        W33658  11.826   4.461   0.914  0.3531  0.1303 -0.0931
96165W        W33659  13.992   0.024   6.476 -0.0103  0.0925 -0.0357
96166W        W33660  16.802  19.454   9.600  0.2497 -0.1667  0.1901
96167W        W33661  27.289  23.615   7.376  0.1877 -0.0324  0.4553
96168W        W33662  12.366  25.553  15.770  0.0516  0.3920 -0.1109
96169W        W33663  28.517  31.633  25.963  0.0862  0.3138  0.0177
96170W        W33664  14.815  29.458  22.337  0.5065 -0.1869  0.0475
96171W        W33665  33.816  11.606  17.716 -0.0628 -0.2440  0.2921
96172W        W33666  13.148  15.379   0.996  0.0040 -0.0646  0.1636
96173W        W33667  28.938  30.211   3.834  0.3165  0.2762 -0.2436
96174W        W33668  17.969  22.655  22.996 -0.4488 -0.2095 -0.1763
96175W        W33669   8.152  28.828  15.383  0.2103  0.0949  0.0205
96176W        W33670   3.773  22.159   4.695 -0.0488  0.2093  0.3363
96177W        W33671  29.801  21.833   9.128 -0.1253  0.0822  0.2114
96178W        W33672  30.382  23.026  18.632  0.1324  0.1094  0.1185
96179W        W33673  31.401   4.738  25.348 -0.2276 -0.0656 -0.1356
96180W        W33674   9.749  17.419   9.969 -0.1065  0.1398  0.1079
96181W        W33675  31.980  29.196  13.309 -0.0240 -0.0775 -0.1228
96182W        W33676  28.301  14.245   8.429 -0.1793 -0.0615  0.2537
96183W        W33677  13.528   3.111  12.813 -0.0803  0.0851  0.1213
96184W        W33678  10.427  28.373  12.255  0.2129  0.0476 -0.1118
96185W        W33679  26.464  31.958  14.914 -0.1154  0.2913  0.2779
96186W        W33680  27.141  12.394   8.658  0.0753  0.0471  0.2365
96187W        W33681  22.480   7.467  21.404  0.0699 -0.3303 -0.0659
96188W        W33682   0.548   2.581  21.725  0.2123 -0.3798  0.0457
96189W        W33683  23.445  11.111  20.417 -0.0549  0.0564  0.2166
96190W        W33684   2.483  34.912   8.500  0.2713  0.0538 -0.3502
96191W        W33685  30.038   5.798  25.731  0.2436 -0.2270  0.2961
96192W        W33686   8.895  24.126  22.320 -0.3045  0.0828 -0.1073
96193W        W33687   9.296  25.678  10.260  0.2271  0.1621 -0.0511
96194W        W33688  20.513  21.256  18.668  0.4202  0.2059 -0.1004
96195W        W33689  30.502  19.701  23.825  0.1064 -0.1169  0.0458
96196W        W33690  24.361  33.370   6.916 -0.1974  0.0489  0.0262
96197W        W33691   1.331  34.981  16.408  0.2891 -0.0032  0.0713
96198W        W33692  14.962  11.686  11.971  0.2710 -0.0406  0.1199
96199W        W33693  22.233  20.687  22.635 -0.1764  0.7131 -0.0079
96200W        W33694  29.483  12.059  19.060  0.2092  0.1618 -0.4177
96201W        W33695  17.417   1.106   7.627  0.2783  0.4222  0.0510
96202W        W33696  35.215  31.489  20.380  0.0223  0.0276 -0.1601
96203W        W33697  19.733   2.039   8.546  0.1860  0.1820  0.0709
96204W        W33698  16.068  25.868   1.670 -0.1853  0.1698 -0.0729
96205W        W33699  33.428   8.937  17.626  0.0070  0.1741 -0.1039
96206W        W33700  27.694  14.742   8.655 -0.1351 -0.3353  0.1054
96207W        W33701  18.811  22.807  24.880  0.0224 -0.0423  0.1900
96208W        W33702  21.054  21.872  21.290 -0.3900 -0.1145 -0.1044
96209W        W33703  19.427  10.232  20.240 -0.2705  0.2165 -0.3537
96210W        W33704  18.241  11.235  18.375 -0.0278  0.1497 -0.0519
96211W        W33705  12.732  18.844  13.609 -0.0850  0.1363  0.0229
96212W        W33706  18.430  24.076  10.016  0.0613 -0.1416  0.3358
96213W        W33707  12.530  13.506  24.251 -0.1478  0.3960 -0.1859
96214W        W33708   7.255  13.376  11.241 -0.2460 -0.2797 -0.1561
96215W        W33709  28.945  33.523  13.128  0.0589  0.1582  0.0573
96216W        W33710   7.997   2.378  13.305 -0.1728  0.0163  0.2807
96217W        W33711  34.522  22.932  22.787  0.0826 -0.1337  0.0006
96218W        W33712   5.431   1.712  26.018 -0.1108  0.0108 -0.3170
96219W        W33713  29.927   5.997  24.474  0.0023 -0.2515 -0.1148
96220W        W33714  32.750   1.879   4.602 -0.1778 -0.0875  0.2122
96221W        W33715  26.901  12.272   7.600 -0.1668 -0.1351  0.1796
96222W        W33716  12.217  30.921  15.136 -0.0880 -0.0442 -0.0517
96223W        W33717  23.767  28.290   3.514  0.2554 -0.1802 -0.0474
96224W        W33718  16.598  13.286  22.889 -0.1880 -0.1991  0.0624
96225W        W33719   3.388  18.661  20.184  0.1081  0.1508 -0.0474
96226W        W33720  31.411   4.742  25.953  0.0669 -0.1046 -0.1481
96227W        W33721  25.290  30.019  19.672  0.3711  0.1696  0.2836
96228W        W33722  18.614  16.510   2.306  0.1306 -0.3206 -0.2998
96229W        W33723   1.327  22.358  20.496 -0.0346 -0.1157  0.2049
96230W        W33724   4.071  19.638   3.108  0.1288 -0.1125  0.1560
96231W        W33725  25.610  13.639  12.647 -0.2150  0.0689  0.0749
96232W        W33726  18.505   6.805  17.813 -0.1118 -0.3040 -0.0118
96233W        W33727  29.482  21.187  13.506 -0.1337  0.2755 -0.0275
96234W        W33728  33.018  23.588  23.802 -0.2832  0.0375 -0.1507
96235W        W33729  13.911  12.002  24.701 -0.1633  0.0019  0.3164
96236W        W33730  13.082   0.573   8.671  0.0890  0.1383 -0.0953
96237W        W33731  20.491  25.092   2.234 -0.0486 -0.0702 -0.2715
96238W        W33732  23.806  27.829   0.136 -0.0724 -0.3194  0.1621
96239W        W33733  20.490  25.357   3.734  0.0098 -0.1349  0.1138
96240W        W33734   3.087   3.629  21.671  0.0995 -0.0482 -0.4141
96241W        W33735   3.369  19.167  21.920  0.1244 -0.2216 -0.3360
96242W        W33736   5.458   2.397  10.637 -0.0627  0.0769  0.1751
96243W        W33737   2.229  33.181   9.124 -0.0410  0.1684 -0.3035
96244W        W33738  29.024   3.935  20.707  0.0903 -0.0639 -0.2260
96245W        W33739  12.048   2.928  12.086 -0.1397  0.3155 -0.1027
96246W        W33740   1.072   5.606  18.697 -0.2222  0.1385 -0.1877
96247W        W33741  20.193   3.962  20.861 -0.0478  0.0961  0.0729
96248W        W33742   8.984  31.551  24.732  0.1907 -0.1504  0.2213
96249W        W33743  27.427  27.422  18.521  0.3645 -0.0668  0.1789
96250W        W33744  25.758  21.770  19.917  0.2802  0.1478  0.0123
96251W        W33745   5.421  24.466   1.337  0.1255  0.0236  0.1628
96252W        W33746  33.833  14.227  15.058 -0.1180 -0.0323 -0.0430
96253W        W33747   6.192  32.741   0.560  0.1382  0.0146 -0.2420
96254W        W33748  23.985  12.868  22.769 -0.0864  0.2135  0.1697
96255W        W33749  11.561   0.968  25.852  0.0867 -0.0825  0.3743
96256W        W33750  28.767  20.776   8.564 -0.0914  0.1508  0.4408
96257W        W33751   3.688   4.358  20.706  0.3512  0.0572 -0.1012
96258W        W33752  33.249  24.986  14.145 -0.0195  0.2077 -0.2390
96259W        W33753  17.538  32.262   5.665  0.0676  0.1608 -0.1537
96260W        W33754   8.932  22.855   5.605 -0.1916  0.0484  0.0549
96261W        W33755   1.209   4.331  13.536 -0.0649 -0.1306  0.1711
96262W        W33756   1.266  20.085  22.266 -0.0032  0.4259 -0.3429
96263W        W33757  15.652  20.805   1.533  0.1032 -0.0654  0.1502
96264W        W33758   7.380  27.635   8.370 -0.0735  0.2019 -0.1582
96265W        W33759  17.412  28.880  10.064  0.1953  0.3664  0.0734
96266W        W33760  33.295  25.418   0.168 -0.0877  0.1282 -0.0001
96267W        W33761   0.499   2.622   8.596 -0.0601  0.1074  0.1096
96268W        W33762  19.764   7.038  22.353  0.0621  0.2272 -0.0561
96269W        W33763  17.312  25.726   8.796  0.4409  0.0662 -0.2299
96270W        W33764  22.663   0.190  24.903 -0.1515  0.0374  0.1076
96271W        W33765  28.250   4.946  13.179 -0.0191 -0.1112 -0.0548
96272W        W33766  21.822  15.982  25.821 -0.0024 -0.1474  0.2058
96273W        W33767   8.481   4.285   3.922 -0.3227 -0.1086 -0.0060
96274W        W33768  18.316  32.618  16.946 -0.1234 -0.0883 -0.4175
96275W        W33769  25.239  34.461  11.265 -0.0369  0.2651 -0.1037
96276W        W33770  35.055  16.635   9.054 -0.1501  0.3712 -0.1985
96277W        W33771  13.308  25.744  16.339  0.0812  0.1424  0.0177
96278W        W33772  30.131  33.387  13.948  0.2683  0.0843 -0.2233
96279W        W33773  23.460  10.424  12.982 -0.0795  0.1278  0.0146
96280W        W33774  25.669   8.982  23.086 -0.1670 -0.4080  0.1205
96281W        W33775  16.009   1.126   1.586  0.3005 -0.1747  0.3628
96282W        W33776  13.640  34.637   6.784  0.0481 -0.1786  0.0868
96283W        W33777  25.003  14.936  13.769 -0.1651 -0.3605 -0.2424
96284W        W33778  28.830  19.044  18.539  0.0552 -0.0820  0.2565
96285W        W33779  23.793   3.634   4.994 -0.2719 -0.2966 -0.1075
96286W        W33780  14.002  23.531  13.936 -0.0421 -0.3310  0.0187
96287W        W33781  12.177  10.894  13.988 -0.0471 -0.2172 -0.0312
96288W        W33782   5.057  10.374  22.052  0.0789 -0.1553  0.1773
96289W        W33783  32.145  30.790  19.024  0.0330 -0.0950  0.0997
96290W        W33784  23.678   0.215  16.011  0.1825  0.2214  0.0066
96291W        W33785   0.400  19.576  12.823 -0.2317 -0.0094 -0.0458
96292W        W33786  25.612   5.282  17.419 -0.0742  0.4137 -0.4053
96293W        W33787  25.265   4.358   1.774 -0.2483  0.2683  0.1146
96294W        W33788  16.782  32.329  10.786 -0.2442  0.1311 -0.1276
96295W        W33789   8.300  35.142   4.562  0.0306  0.3816  0.0920
96296W        W33790  21.869  19.623  19.584 -0.2896  0.0491 -0.1168
96297W        W33791   0.414  34.956  17.234  0.3313  0.2534  0.0662
96298W        W33792  20.305  15.427  24.118 -0.2872  0.0696  0.1990
96299W        W33793  17.620  32.940   7.914  0.1270 -0.1315  0.0815
96300W        W33794  25.364  26.582  16.360  0.0196 -0.2804  0.1740
96301W        W33795  23.056  17.921  22.829 -0.5274 -0.1127 -0.3321
96302W        W33796  23.038  15.289  24.204  0.2952 -0.3505 -0.1909
96303W        W33797   1.184  15.582  12.043 -0.0257 -0.1686 -0.2293
96304W        W33798   7.169  24.445   1.284  0.1563  0.1623 -0.0619
96305W        W33799  19.898  30.476   7.601 -0.1690 -0.2578  0.0565
96306W        W33800  27.810   8.393   0.414 -0.1793 -0.0695 -0.1307
96307W        W33801   9.444  25.087   2.078  0.2399  0.1383  0.0843
96308W        W33802  10.087  21.497  12.577  0.1187  0.3171  0.1297
96309W        W33803  11.891  25.028  23.603  0.0950 -0.1953 -0.3006
96310W        W33804  13.029  15.100   5.572  0.0076 -0.2106  0.0236
96311W        W33805  18.357   7.615   5.655 -0.2219 -0.0462  0.2708
96312W        W33806   7.983  11.981   3.611  0.2480  0.0716  0.0765
96313W        W33807   8.914   1.086   5.223  0.0434  0.1785 -0.0682
96314W        W33808  27.225  10.400   9.503 -0.0644  0.3741 -0.2389
96315W        W33809  20.821  34.772   7.729 -0.0098 -0.1686  0.1623
96316W        W33810   8.560  34.504  24.806  0.0112  0.2189 -0.2988
96317W        W33811  13.324  35.032  23.547 -0.1667  0.2369 -0.0271
96318W        W33812   8.976   7.465   2.936 -0.1956 -0.3172 -0.0096
96319W        W33813  28.374  35.095   0.696  0.0910  0.0103  0.3140
96320W        W33814  12.171   7.318  12.318  0.1014  0.0714  0.3649
96321W        W33815  28.456  11.170  20.475 -0.0627 -0.4499 -0.0659
96322W        W33816   2.401   5.563   3.785 -0.1028  0.0487 -0.1400
96323W        W33817   7.729  22.585   3.535  0.0990  0.0887  0.1352
96324W        W33818  21.159  15.771  24.180 -0.1029  0.3342  0.0777
96325W        W33819  14.297  30.184  25.839  0.0149  0.3051  0.1049
96326W        W33820   1.958   5.040   1.413 -0.1460  0.0004  0.0173
96327W        W33821  15.963  31.914   6.690 -0.0347  0.1584  0.0169
96328W        W33822   6.985   4.182  25.456  0.1722  0.1583 -0.1587
96329W        W33823  30.965  16.067  20.922 -0.3976 -0.2615 -0.1218
96330W        W33824   2.588  25.816  18.991  0.2268  0.3326  0.0496
96331W        W33825  13.561   7.992  23.153  0.0895 -0.0525 -0.2194
96332W        W33826  19.496  18.571  24.650 -0.3594  0.0546  0.0636
96333W        W33827  27.527  22.516   8.394 -0.0184 -0.3493  0.1271
96334W        W33828   4.144  26.149   5.934  0.3023 -0.1496  0.0582
96335W        W33829  28.659   4.476  22.215  0.0559 -0.1218  0.1821
96336W        W33830  12.047  19.694   9.295  0.0968 -0.2274 -0.2549
96337W        W33831  16.541  15.165   7.734  0.1965  0.3717  0.1372
96338W        W33832  10.683  31.773  12.401  0.3454 -0.1004 -0.0218
96339W        W33833   6.563  14.731  18.122 -0.0687 -0.2302 -0.0598
96340W        W33834  17.935   6.511  21.162  0.0962  0.2061 -0.0881
96341W        W33835   0.745   1.527  20.926 -0.0226  0.1787  0.0271
96342W        W33836  33.128  12.864  13.403 -0.0914 -0.2099 -0.1206
96343W        W33837  35.259  33.416  23.543 -0.1316  0.1485 -0.3342
96344W        W33838  32.536  10.155  10.092  0.0515 -0.1491  0.0716
96345W        W33839  29.012   6.221  10.172 -0.3132  0.1122  0.1275
96346W        W33840   3.770  14.503  16.525 -0.0852 -0.0167  0.2941
96347W        W33841  13.139  33.427   2.656 -0.0447 -0.1181 -0.0622
96348W        W33842  11.517  12.446   8.877 -0.2467  0.0013  0.2735
96349W        W33843  13.022  32.156   4.023 -0.1025 -0.1587  0.3747
96350W        W33844   3.020  24.474  22.594  0.1520 -0.2919 -0.0849
96351W        W33845  21.043   5.743  25.465  0.2409  0.1416  0.0333
96352W        W33846  33.142  19.469  18.722 -0.3210  0.1066 -0.3638
96353W        W33847   0.954  22.386  17.607  0.0184  0.0976 -0.0362
96354W        W33848  24.262  20.486  25.964  0.2368 -0.3250 -0.1852
96355W        W33849   1.465  19.560  13.929  0.1048  0.0855 -0.1692
96356W        W33850  27.360  33.860  21.029 -0.2091 -0.2790 -0.1105
96357W        W33851  31.023  19.319  25.443  0.0751 -0.2813  0.0149
96358W        W33852  32.025  33.910  24.435  0.1144 -0.1710  0.0967
96359W        W33853  20.830   8.547   6.932 -0.1776  0.1782 -0.0834
96360W        W33854  15.272  33.040  12.103  0.0893 -0.0903  0.2126
96361W        W33855  11.193  31.711   2.721 -0.0673 -0.0043 -0.1643
96362W        W33856   5.962   8.232  10.772 -0.2421 -0.0130  0.0498
96363W        W33857  12.634   5.350  22.081 -0.1427  0.3489 -0.1126
96364W        W33858  18.357  26.514   6.800 -0.2531  0.2324 -0.1578
96365W        W33859  34.091  12.220  11.769  0.0204 -0.3889 -0.1407
96366W        W33860  22.209   0.158  19.356  0.2206 -0.2689  0.0530
96367W        W33861  23.328   1.882   4.788 -0.0124 -0.2542 -0.0296
96368W        W33862   3.022  17.821  24.238  0.0840 -0.1070  0.0854
96369W        W33863  15.418  34.788   3.746 -0.2926  0.1144  0.0912
96370W        W33864   5.464  33.152  21.699  0.1163 -0.1505 -0.0647
96371W        W33865   7.331  10.468   2.040  0.0218 -0.0380  0.1398
96372W        W33866   3.660  31.698   4.194 -0.1163 -0.0198  0.1822
96373W        W33867  25.074   7.965  15.399  0.0539 -0.2410  0.0439
96374W        W33868   8.063   6.841  22.489 -0.0034  0.0692  0.1438
96375W        W33869   2.311  27.000  17.589 -0.2418  0.1178  0.3996
96376W        W33870  26.480  20.414  24.300  0.0753  0.0208  0.1753
96377W        W33871   9.539   4.893  23.406  0.1165 -0.2677 -0.1002
96378W        W33872   9.122  26.743  13.241 -0.0633  0.1038 -0.1368
96379W        W33873  22.905  35.258  16.241 -0.2351  0.2524 -0.3916
96380W        W33874   1.755  17.549  19.834 -0.3770 -0.0722 -0.0897
96381W        W33875  24.245  34.269   6.229  0.3337  0.2341 -0.2102
96382W        W33876  20.387  20.684   6.432  0.0783  0.0346  0.0773
96383W        W33877   8.902  20.665   2.504  0.2568 -0.1695  0.0998
96384W        W33878  29.322  13.753  25.765  0.2306 -0.0981  0.0533
96385W        W33879  12.388  18.189  25.060 -0.2509 -0.2339 -0.1312
96386W        W33880  27.677  26.415  22.130  0.1629 -0.0690 -0.1709
96387W        W33881  12.016  30.964  11.109  0.2110 -0.2051 -0.1033
96388W        W33882  23.841   2.652   4.845  0.0632  0.0896  0.1806
96389W        W33883   0.224   3.953  16.694 -0.1798  0.0252  0.0044
96390W        W33884  32.430  14.629  23.227 -0.0822  0.0207 -0.0465
96391W        W33885  10.861  17.707   2.371 -0.0613  0.1105 -0.0483
96392W        W33886  19.755  14.681  25.611 -0.0587  0.0856  0.1062
96393W        W33887  26.377  32.587  19.121  0.1700 -0.1397 -0.2360
96394W        W33888   8.391  12.111   5.836  0.2162 -0.1585  0.0341
96395W        W33889  22.575  14.421   0.117  0.0305 -0.2049  0.3204
96396W        W33890  17.126   3.843  18.511  0.0471  0.1706 -0.0972
96397W        W33891  21.579   5.092   0.096 -0.0106  0.2790 -0.0887
96398W        W33892  21.852  14.303  21.386  0.0791 -0.2336 -0.2294
96399W        W33893  28.616  21.634  21.365  0.3109  0.4928  0.2811
96400W        W33894  30.209  24.459  24.060 -0.0972 -0.0895 -0.1798
96401W        W33895   9.252  31.554   8.953  0.1402 -0.0541  0.1078
96402W        W33896  30.469  12.464  20.117  0.0019  0.1616 -0.1454
96403W        W33897   4.163  15.733   4.190  0.3473  0.0050 -0.1649
96404W        W33898  18.018  20.342  19.517  0.2254 -0.3100  0.0265
96405W        W33899  25.306  25.306  13.633  0.3370  0.0061 -0.1068
96406W        W33900  32.915  10.092   9.398 -0.1779 -0.0425  0.1735
96407W        W33901  21.587  12.169  17.654  0.1520 -0.2600  0.0133
96408W        W33902  27.214  28.642  21.409 -0.0075 -0.2339 -0.0383
96409W        W33903   8.600   1.180  19.641  0.1036  0.2321 -0.1377
96410W        W33904   8.640   4.109   9.401  0.2536  0.2441 -0.2704
96411W        W33905  33.578   5.678  23.293  0.1221 -0.2284 -0.1086
96412W        W33906  30.765  21.887  24.992  0.4359  0.3309 -0.3209
96413W        W33907  33.410  19.468  16.070  0.0864 -0.2574  0.0232
96414W        W33908  31.875  24.843  23.747  0.5488  0.0030 -0.3658
96415W        W33909  29.433   0.402  19.902  0.3660 -0.4143  0.0193
96416W        W33910  21.503  22.753  21.525  0.4121 -0.1025  0.1149
96417W        W33911  22.082  33.087   0.999 -0.3711  0.0986 -0.2453
96418W        W33912  29.177  21.687   9.967 -0.1837  0.1548 -0.1059
96419W        W33913   2.381  28.239  22.209 -0.1454 -0.1494  0.0976
96420W        W33914  28.621  31.783  10.647 -0.1885 -0.1514  0.2605
96421W        W33915   1.164   4.872  16.048 -0.0952  0.3561 -0.2376
96422W        W33916  29.937  17.894  10.032 -0.2856 -0.0063  0.1332
96423W        W33917  17.858  28.483  25.543  0.1681 -0.3026  0.0742
96424W        W33918  17.314  31.738   4.321 -0.1318  0.0808  0.1771
96425W        W33919  22.302  34.833  13.741  0.4102  0.1219  0.2870
96426W        W33920  31.202  31.379  14.312  0.1516 -0.1327 -0.1498
96427W        W33921   2.485   1.675  19.595  0.0075  0.0056 -0.1058
96428W        W33922  22.287   7.230   7.674  0.2818  0.2317 -0.0158
96429W        W33923   9.688  25.893   2.999  0.0722 -0.2699  0.0096
96430W        W33924  31.836  19.312   7.919 -0.1512 -0.1058  0.0163
96431W        W33925   7.667  22.550  12.613  0.0859  0.4291  0.0984
96432W        W33926   2.560  26.800  24.917 -0.0752 -0.0138  0.1269
96433W        W33927  29.671  11.632  14.169 -0.0008  0.0247  0.0780
96434W        W33928  21.812   9.515  17.408 -0.0082 -0.0728 -0.1832
96435W        W33929   7.334  33.584  10.822  0.0319 -0.2811 -0.0725
96436W        W33930  11.999  12.952   0.680  0.2557  0.0207  0.1690
96437W        W33931   1.107  19.911  11.572 -0.0547 -0.0267  0.2945
96438W        W33932  12.074   8.861   3.074 -0.3220  0.1123  0.3834
96439W        W33933   9.943   7.968   4.251 -0.0332 -0.0187 -0.0034
96440W        W33934  34.671  33.794  23.463  0.3512  0.1201  0.1715
96441W        W33935  31.402  34.434  14.100 -0.0336  0.0105 -0.1267
96442W        W33936   7.491  11.597  26.218 -0.1554  0.1678  0.0192
96443W        W33937  15.877  33.241   8.667 -0.2894  0.1704 -0.3148
96444W        W33938   7.944   0.618  11.713 -0.1199 -0.1403  0.3110
96445W        W33939  23.843   7.168  21.900  0.1043  0.0797  0.0627
96446W        W33940  23.298  25.875  23.069 -0.1948  0.0235 -0.1728
96447W        W33941  29.123   5.407  22.439  0.0578 -0.1882 -0.1043
96448W        W33942   6.025  27.752  20.741  0.1164  0.0724 -0.3203
96449W        W33943   8.928  19.186  15.039 -0.1729  0.0956  0.1825
96450W        W33944  30.217  22.160   8.537  0.2871  0.0162  0.0386
96451W        W33945  18.023  31.749   1.415  0.1083 -0.1486 -0.0326
96452W        W33946  22.771  26.850   3.802 -0.1594 -0.0115 -0.0998
96453W        W33947  12.420   8.905  23.064 -0.1002 -0.3494  0.2996
96454W        W33948   1.205  25.359  17.531  0.1056 -0.0440 -0.0465
96455W        W33949  33.190   8.695  19.391  0.0318 -0.1091  0.0862
96456W        W33950   2.932   6.415   7.263 -0.2389  0.2181  0.1422
96457W        W33951   1.839   8.668  15.679 -0.0484  0.0985  0.1114
96458W        W33952  30.836   8.850   8.240 -0.1542 -0.0728 -0.1917
96459W        W33953   0.265  19.253  18.730 -0.0384 -0.4074  0.0833
96460W        W33954  15.853  18.281   5.690 -0.3183  0.1281 -0.1678
96461W        W33955  33.166   8.848  12.734 -0.3091  0.1383  0.1040
96462W        W33956   0.195   1.225   8.902 -0.1077  0.2563 -0.0348
96463W        W33957   7.693   6.308  24.947 -0.1340 -0.0822 -0.3153
96464W        W33958  23.446  35.093   3.632 -0.1554  0.1818  0.1264
96465W        W33959   4.311  22.646   6.016  0.0395  0.3110 -0.2809
96466W        W33960  28.523   9.877  24.034 -0.2733  0.2714 -0.1527
96467W        W33961   0.892  18.546   8.332 -0.1425  0.1015 -0.2092
96468W        W33962  13.498   8.526   1.476 -0.4809  0.1307 -0.2116
96469W        W33963   5.489  15.463  23.900 -0.0728  0.0505 -0.0077
96470W        W33964  21.227  26.892   0.519  0.4244 -0.0163  0.0435
96471W        W33965  20.967  15.617  16.259 -0.0230 -0.1940  0.1865
96472W        W33966  13.526  21.341   9.560  0.1826 -0.0602 -0.0992
96473W        W33967   4.385   4.657   0.581 -0.2589  0.2297  0.1830
96474W        W33968   5.233   8.058   8.188 -0.0007  0.2292  0.1706
96475W        W33969   0.312  25.335  15.939 -0.1761  0.2346 -0.0269
96476W        W33970   3.545  34.110  21.257  0.5237  0.1352  0.0347
96477W        W33971  24.186   1.341   4.984  0.2673 -0.0544 -0.2765
96478W        W33972   1.528   1.400  26.059  0.0799  0.1171  0.1284
96479W        W33973  20.109  11.808  19.012  0.2977 -0.1445 -0.1086
96480W        W33974  17.940  31.524  17.517 -0.3295  0.0645  0.2997
96481W        W33975   4.467   7.522   2.724  0.2442  0.1117  0.0710
96482W        W33976  25.472   6.722  11.532  0.0276 -0.0078 -0.1863
96483W        W33977  29.563  10.153  25.614  0.2272  0.3231 -0.0734
96484W        W33978  21.057  14.071  25.281 -0.1291  0.1318 -0.1081
96485W        W33979   9.452  27.894  25.963  0.1049 -0.0161  0.1309
96486W        W33980   0.750  27.949   5.950  0.2185 -0.0699 -0.3228
96487W        W33981   2.674  11.837  24.690 -0.1357  0.2036 -0.2173
96488W        W33982   5.708  32.410  14.048 -0.2434  0.2698 -0.0876
96489W        W33983  18.399  14.210  20.222 -0.2222  0.1325 -0.0857
96490W        W33984   8.109   4.965   2.348  0.2712  0.0707 -0.0821
96491W        W33985  32.249  17.839  16.844  0.1652 -0.2669  0.3659
96492W        W33986  18.342   8.875  12.151  0.0958 -0.0236  0.1189
96493W        W33987  29.553   7.839   8.595  0.1940  0.0561  0.0354
96494W        W33988  19.592  34.977   6.334 -0.1321  0.1483  0.0498
96495W        W33989  31.001  22.755  10.000 -0.0788  0.5501  0.1269
96496W        W33990  13.449  17.668  21.788 -0.1507 -0.2710  0.0125
96497W        W33991   1.643  30.652  21.654  0.2075 -0.0713 -0.1117
96498W        W33992   9.211  29.318  13.380 -0.3505 -0.2543  0.0570
96499W        W33993  11.169  10.105  11.274  0.4104 -0.0433  0.0457
96500W        W33994  35.122   6.080  18.590 -0.2964 -0.0643  0.5224
96501W        W33995   0.816   2.477   7.394 -0.0891 -0.4000 -0.0298
96502W        W33996  15.715  32.807   0.714 -0.2920  0.1197 -0.3441
96503W        W33997  17.254   1.625   7.871  0.0353 -0.0633  0.0201
96504W        W33998  10.826   0.305   3.209  0.3282  0.0079 -0.1471
96505W        W33999  34.094   7.206  13.530  0.0960 -0.1476 -0.2454
96506W        W34000  15.841   9.948  23.220 -0.0820 -0.4124  0.3089
96507W        W34001  33.189  23.387  13.691  0.3440  0.0622 -0.0876
96508W        W34002  29.033   4.935  22.628 -0.1465 -0.0972 -0.0389
96509W        W34003  31.038  14.532   5.276  0.0342 -0.0511 -0.1634
96510W        W34004  28.896  13.078  10.467  0.0152  0.1367  0.2451
96511W        W34005  21.427  14.085   0.945  0.0540  0.1773  0.0873
96512W        W34006   3.611  29.716   7.815  0.1619 -0.1491 -0.0410
96513W        W34007  34.312  18.903   8.495  0.1247  0.0618 -0.2158
96514W        W34008  11.782   9.543   6.705 -0.2324  0.2538  0.0715
96515W        W34009  27.250  33.559  11.012 -0.2153 -0.3279 -0.0880
96516W        W34010  32.974   2.990  12.234  0.1972  0.1302 -0.2119
96517W        W34011   5.698  28.301   8.218  0.2140  0.0702 -0.0370
96518W        W34012  33.243  15.353  21.284 -0.1371 -0.0226  0.1324
96519W        W34013  23.995   2.801  25.210 -0.1129 -0.3126 -0.0707
96520W        W34014   9.298  30.394   2.640  0.0213 -0.0302 -0.1085
96521W        W34015  16.608   6.078   1.882  0.1716  0.0650  0.0465
96522W        W34016  25.590  29.097  14.385  0.0841 -0.0608  0.2443
96523W        W34017  11.297  20.688   3.168 -0.1465  0.0378 -0.1258
96524W        W34018   8.290  25.875  26.135 -0.2830  0.1864 -0.1590
96525W        W34019  31.109   7.800  14.699 -0.3305 -0.2563  0.2175
96526W        W34020   7.639  15.845   1.516  0.0491 -0.1130 -0.1399
96527W        W34021   4.053  34.779  24.512 -0.0234  0.0883  0.0235
96528W        W34022  24.237   7.194  13.277  0.0154 -0.0619  0.1478
96529W        W34023  20.096  11.363  21.354 -0.1571  0.0162 -0.2272
96530W        W34024  21.975  12.838  25.331  0.1853  0.0165  0.0085
96531W        W34025  17.681  28.430  21.317 -0.2078 -0.0637 -0.2639
96532W        W34026   4.382   2.228   5.702  0.0285  0.0728  0.0582
96533W        W34027  12.879  22.890   2.834 -0.0420  0.1734  0.5532
96534W        W34028   6.931  34.965   1.910  0.2368  0.0915  0.1281
96535W        W34029   5.424  32.849  13.788 -0.2000 -0.1254  0.2182
96536W        W34030   7.400   6.311  22.876  0.2045 -0.5266 -0.0801
96537W        W34031  19.045  35.306   1.089  0.1086 -0.1848 -0.1618
96538W        W34032  26.700  26.120  25.645  0.1623 -0.0487 -0.0843
96539W        W34033  21.814  14.571   1.321  0.4128 -0.0902  0.2675
96540W        W34034  17.821  15.287   3.629  0.0362  0.0174  0.0528
96541W        W34035  15.591  13.578  10.776 -0.0136  0.2283  0.0030
96542W        W34036  32.340  25.773  16.641  0.0652 -0.1854 -0.1330
96543W        W34037  22.667   7.645   1.083  0.1434 -0.0581 -0.2701
96544W        W34038  20.152   1.491  20.138 -0.2861 -0.0274 -0.1555
96545W        W34039   3.426  30.147  19.877  0.0133  0.1382  0.1346
96546W        W34040  30.006  24.852  19.831  0.0048 -0.2730  0.0988
96547W        W34041  27.293  15.344  13.803  0.0769 -0.1611 -0.2410
96548W        W34042  27.192   7.245  16.757 -0.2149 -0.2103 -0.1395
96549W        W34043  33.557  29.209  12.855 -0.2961 -0.0616  0.1214
96550W        W34044   4.744   1.761  22.482  0.0811 -0.0099  0.5340
96551W        W34045  27.374  32.199  25.348 -0.0155 -0.2081 -0.2429
96552W        W34046  19.801   6.229   0.445  0.2228 -0.1284 -0.0473
96553W        W34047  33.749  31.998   3.266 -0.0115  0.0894 -0.2396
96554W        W34048  25.829  24.950  12.897 -0.2454  0.3616 -0.2009
96555W        W34049   5.929   5.807   0.911 -0.0918  0.1807 -0.0946
96556W        W34050  16.967  28.300  25.301  0.1950  0.0707  0.0153
96557W        W34051   1.918   1.346  23.971 -0.0573  0.0912  0.0617
96558W        W34052   9.984  10.081   9.432 -0.3366  0.0368  0.1104
96559W        W34053  22.862  26.098  15.876  0.1211  0.1884 -0.0161
96560W        W34054  14.075  22.416   1.427  0.0324  0.0361  0.1645
96561W        W34055  14.685  29.109   0.801  0.2972  0.1077 -0.1179
96562W        W34056  11.274   8.802   1.056 -0.0146 -0.0698 -0.0235
96563W        W34057  20.852  14.713  16.924  0.0928  0.4719 -0.0081
96564W        W34058  10.614   0.822   1.601  0.4322  0.2093  0.0423
96565W        W34059   7.094   3.394  26.223 -0.3320  0.0775  0.0829
96566W        W34060  11.535   7.056  24.069 -0.0520 -0.0461  0.1603
96567W        W34061   3.609  18.656  26.223  0.0905  0.0667  0.2627
96568W        W34062  29.302   1.314  19.593 -0.1500 -0.3401  0.4913
96569W        W34063   1.716  24.798  23.186  0.3387 -0.0519 -0.0371
96570W        W34064  34.806   2.284   4.048  0.1915  0.1161 -0.2515
96571W        W34065  14.783  17.024  19.745  0.2389 -0.0170 -0.2320
96572W        W34066  17.731  21.188   6.884  0.1727  0.1519 -0.2228
96573W        W34067   6.444  33.364  13.241 -0.0772 -0.2607 -0.0465
96574W        W34068   1.177  12.539  17.425 -0.0106 -0.1964  0.1152
96575W        W34069  29.107  17.848   6.145 -0.3842 -0.1051 -0.3888
96576W        W34070   5.621  13.289  25.805  0.1171 -0.0720  0.2632
96577W        W34071  10.539  19.974  14.010  0.0855 -0.0512  0.1462
96578W        W34072   0.045  15.367  18.547 -0.0157  0.1351 -0.0804
96579W        W34073  28.516  18.818  18.273  0.3131 -0.2242 -0.0849
96580W        W34074  33.370  10.164  25.923 -0.1362  0.1238  0.2430
96581W        W34075  11.472  27.321   8.828 -0.1159 -0.0573  0.0161
96582W        W34076  31.046  10.393  16.797 -0.3093 -0.5587 -0.0229
96583W        W34077  20.570  28.918   0.684  0.0344 -0.0149 -0.0441
96584W        W34078  19.774   6.952  20.359 -0.0297 -0.1617 -0.3547
96585W        W34079  18.602  17.615  22.232 -0.0324 -0.2152  0.0711
96586W        W34080   2.191  28.580   9.434  0.0881  0.0249 -0.3245
96587W        W34081   3.779   6.922   6.446 -0.3402  0.0902  0.2213
96588W        W34082  17.635   1.821   2.471 -0.2208 -0.3158 -0.1902
96589W        W34083   1.459   4.939   5.225  0.1110 -0.0242  0.2878
96590W        W34084  16.410  19.456   0.483  0.2915 -0.2265  0.0913
96591W        W34085  10.770   1.508   3.209 -0.2757 -0.2183  0.3908
96592W        W34086  23.913  26.958  25.553 -0.6562 -0.1387 -0.5026
96593W        W34087  34.047  17.387  21.559 -0.2219  0.1830  0.0144
96594W        W34088  16.535  11.427  19.434  0.1901  0.1078  0.0292
96595W        W34089  18.567  14.832   7.637 -0.3129 -0.1583  0.1161
96596W        W34090   7.164   7.819  10.652  0.4124 -0.1302  0.0038
96597W        W34091   8.401   7.097  22.071 -0.0544 -0.0309 -0.3179
96598W        W34092  19.281  31.968   1.414  0.1097 -0.0468 -0.1505
96599W        W34093  12.286  28.996   1.828 -0.0861  0.0260  0.2082
96600W        W34094  18.613  11.943  18.250 -0.0161 -0.5500 -0.1174
96601W        W34095  20.073  12.574   5.647  0.1877 -0.2786  0.0756
96602W        W34096  20.600  31.032   0.530  0.0292  0.0223 -0.2062
96603W        W34097   6.570  24.419   7.326  0.2083 -0.2094 -0.0898
96604W        W34098  21.975  32.168  21.981 -0.2554 -0.1661  0.1717
96605W        W34099   7.235  19.411   7.320 -0.0018  0.0545  0.3531
96606W        W34100  29.444  32.762  14.416  0.1568 -0.1225 -0.0455
96607W        W34101   3.118   3.787   7.063  0.1060  0.2114  0.1732
96608W        W34102  24.181   8.073  21.775 -0.1504  0.2897 -0.0113
96609W        W34103   7.754  10.429   7.881 -0.1019  0.1892 -0.2064
96610W        W34104   8.286  23.159   5.349  0.0725  0.1011  0.2405
96611W        W34105  26.181  20.170  16.040 -0.1412 -0.0374 -0.0914
96612W        W34106  14.405  25.213  15.213  0.0215  0.1983 -0.0400
96613W        W34107  16.786   2.491  22.914  0.0108 -0.0643  0.3547
96614W        W34108  14.556   6.879  26.092 -0.0292  0.0769  0.0687
96615W        W34109   3.502   5.823   1.078  0.0546  0.1146 -0.1980
96616W        W34110   5.382  10.899   3.097  0.2475  0.0982  0.2176
96617W        W34111   5.948  22.664   4.066  0.0363  0.0267 -0.1442
96618W        W34112  13.470   8.221  25.214 -0.1934  0.1567 -0.1541
96619W        W34113  21.740  35.008   0.663  0.5120 -0.1818  0.0382
96620W        W34114   4.540  12.267   4.496 -0.0229  0.0871  0.0243
96621W        W34115  22.623  11.110  17.200 -0.0253 -0.1070  0.1589
96622W        W34116  13.740   2.500  18.478 -0.1718  0.2974 -0.1560
96623W        W34117  28.773   1.780  24.514  0.0650  0.1388 -0.0373
96624W        W34118  29.110  26.483  17.824  0.1052 -0.2266  0.1308
96625W        W34119  25.668   8.504  12.035  0.0937 -0.2574  0.2358
96626W        W34120  12.057  28.060   9.318 -0.1485 -0.0250 -0.4239
96627W        W34121   3.176  19.878   3.476  0.0676 -0.0191 -0.1805
96628W        W34122  25.276  16.796   9.337 -0.0067 -0.0489  0.0559
96629W        W34123  21.577  13.030  25.607 -0.0514  0.2677 -0.2441
96630W        W34124  32.178  30.844  16.341 -0.0911 -0.1111 -0.0458
96631W        W34125   8.269  23.147   1.647  0.1620  0.0675  0.0065
96632W        W34126  30.127  15.018   8.350 -0.0569  0.3995  0.0246
96633W        W34127   8.077  11.412  11.025  0.1775 -0.2789 -0.1967
96634W        W34128  19.229  24.229   5.625 -0.1358 -0.1497  0.1607
96635W        W34129  14.024  11.313  21.005  0.2094 -0.1139 -0.2496
96636W        W34130  31.067  28.466  18.386 -0.0057  0.1399 -0.1345
96637W        W34131  20.593  29.300  20.976 -0.0869  0.2551 -0.0180
96638W        W34132   9.815   0.082  13.884 -0.0404  0.0209  0.0774
96639W        W34133   6.332  24.504   1.852 -0.1276 -0.1756 -0.0800
96640W        W34134  12.615  18.113  10.296  0.0281  0.0366 -0.2229
96641W        W34135  12.407   5.290  10.296  0.4182  0.0371 -0.1126
96642W        W34136  28.155   6.372  11.070  0.0137 -0.3295 -0.0628
96643W        W34137  26.141  19.425  13.076  0.1316  0.2547  0.1164
96644W        W34138  15.873  25.587   3.560  0.3015  0.1940  0.1030
96645W        W34139  31.606  16.950  23.708  0.1613 -0.0300  0.0204
96646W        W34140  23.481  10.529   4.759  0.0983 -0.1710  0.0213
96647W        W34141  12.249  34.080   9.183 -0.2106 -0.1743 -0.2776
96648W        W34142  29.771  21.158  14.683  0.1162  0.2440 -0.1015
96649W        W34143  24.362   9.395  15.422 -0.1915 -0.1979  0.0499
96650W        W34144   4.079  26.077  22.340 -0.0634 -0.2024  0.0765
96651W        W34145   6.255   2.455  11.207 -0.0230  0.1895  0.2215
96652W        W34146  10.972   2.108  26.165  0.1981 -0.3155 -0.0111
96653W        W34147   1.790  13.312  18.114  0.0516  0.1181 -0.1504
96654W        W34148   5.289   2.736  26.059  0.1722 -0.2583 -0.2426
96655W        W34149   9.695   2.370  20.646 -0.3895  0.2175  0.4424
96656W        W34150  10.123  27.725   7.704  0.1017 -0.1471  0.0709
96657W        W34151  14.100   3.804   5.961  0.0836 -0.0131 -0.1722
96658W        W34152  20.207  31.523  17.336  0.2918 -0.0995  0.3873
96659W        W34153  32.774  32.581  18.367  0.0547 -0.0075 -0.2907
96660W        W34154   6.406  17.906   1.638  0.0268 -0.1553 -0.3357
96661W        W34155   7.410  32.762  20.836  0.1048  0.0302  0.2107
96662W        W34156  13.743   3.889  18.732 -0.1804 -0.2290 -0.1884
96663W        W34157  22.026  20.810  21.703  0.0092 -0.1831  0.0335
96664W        W34158  16.863  27.616   4.208  0.2695  0.1554 -0.1401
96665W        W34159  13.999   4.951   8.260 -0.1989  0.2326  0.2299
96666W        W34160  20.669  31.103  16.058 -0.0265  0.1103 -0.3467
96667W        W34161  13.175  26.434  16.997 -0.2455 -0.1148 -0.2315
96668W        W34162  15.266  26.472  11.844  0.0576 -0.1249  0.4331
96669W        W34163  10.989  21.675   1.415 -0.0515 -0.0133  0.1928
96670W        W34164  16.389  27.695   3.184 -0.0705 -0.3955  0.0961
96671W        W34165  25.579   0.831  19.125 -0.0456 -0.1409  0.1324
96672W        W34166  10.106  26.985  11.038 -0.0108  0.1306 -0.0486
96673W        W34167  33.760  32.571  25.513  0.1779  0.2231  0.0493
96674W        W34168  29.745  12.553  15.196  0.2156 -0.0258  0.1897
96675W        W34169   3.718  14.264  22.040 -0.1242  0.1083  0.2011
96676W        W34170   5.439  14.913  18.082 -0.4036 -0.0181  0.1105
96677W        W34171  30.639   8.987   7.777  0.1769 -0.0205 -0.2964
96678W        W34172  19.432  34.504  24.493 -0.0174 -0.0872 -0.1041
96679W        W34173   4.070  32.828   6.642  0.3003 -0.0831  0.0950
96680W        W34174  22.796  26.138  26.235 -0.1060 -0.3246  0.3407
96681W        W34175  34.306   5.664  16.049  0.3132  0.0618  0.0263
96682W        W34176   6.747   6.076  25.229  0.2441 -0.3162  0.4154
96683W        W34177   6.869  27.869  14.300 -0.2316  0.1391  0.2278
96684W        W34178  16.404  20.595   5.815 -0.2267  0.0425  0.3805
96685W        W34179   2.724   2.922   3.918 -0.0258  0.0887  0.2573
96686W        W34180  23.874  29.169  17.226  0.1684  0.0580 -0.1325
96687W        W34181  20.574  26.187  22.834 -0.2104  0.0245  0.0411
96688W        W34182   0.511  34.569   4.922  0.1757 -0.4181 -0.0394
96689W        W34183  29.459  30.147  13.148 -0.4431  0.3962  0.0986
96690W        W34184  13.273  18.889  13.608 -0.2372  0.2843 -0.5234
96691W        W34185  16.062   0.980  23.244 -0.2668 -0.1140 -0.0336
96692W        W34186  25.844  22.008  21.812  0.0881 -0.0219 -0.2734
96693W        W34187   9.817  35.323  20.306  0.0604  0.1200  0.0271
96694W        W34188  15.663  12.248   6.039  0.1986 -0.1101  0.2115
96695W        W34189  11.647  34.073  15.210  0.2309  0.2995  0.1897
96696W        W34190   6.547   8.199  23.964 -0.0732  0.0845 -0.2027
96697W        W34191  16.046  18.923   1.264  0.1116  0.0962 -0.3269
96698W        W34192   9.277   6.071  23.134 -0.3984  0.0147  0.2297
96699W        W34193  13.663  34.282  20.414 -0.0144  0.3116  0.0451
96700W        W34194  18.301  19.474  22.462  0.5706  0.2962 -0.0284
96701W        W34195  19.658  35.045   6.829  0.2033  0.2675 -0.2933
96702W        W34196  22.713  14.625   0.985 -0.4632  0.0236 -0.2625
96703W        W34197  12.517   9.138   9.310 -0.0287  0.0922  0.0990
96704W        W34198   7.124  18.706  20.974  0.0502 -0.0126 -0.1447
96705W        W34199  19.524  21.552  18.819 -0.0399 -0.0611  0.2146
96706W        W34200   1.013   4.113   1.034  0.0666  0.2984 -0.1863
96707W        W34201  17.602  26.059  12.246 -0.3733 -0.0511  0.0175
96708W        W34202  31.378  24.286  17.269 -0.0806  0.0766  0.0389
96709W        W34203  11.345  26.563  12.050  0.0976 -0.1124 -0.2872
96710W        W34204  30.753  27.042  15.666  0.2433  0.2478  0.1177
96711W        W34205  27.520  33.957  23.553 -0.2166  0.0466 -0.0230
96712W        W34206   0.104   5.658   1.841 -0.3904  0.2392 -0.2486
96713W        W34207  22.651  11.440   0.545  0.1466  0.1157 -0.3777
96714W        W34208  27.660  12.099   0.260  0.2109 -0.1805 -0.2086
96715W        W34209  20.642  10.522  21.393  0.1942 -0.1336 -0.2591
96716W        W34210  20.621  21.731  25.404  0.0485 -0.0902  0.1499
96717W        W34211  25.527  33.442  18.583  0.1050  0.0781  0.0479
96718W        W34212  15.568  10.179  12.731 -0.1076 -0.1011 -0.0013
96719W        W34213  27.844   4.688  22.032  0.2968 -0.1598 -0.1083
96720W        W34214   8.542   7.551   9.394 -0.0506  0.2054  0.2760
96721W        W34215  10.945  30.306  13.008 -0.3066 -0.1312 -0.0773
96722W        W34216  26.486   9.855   1.170  0.1525 -0.4342 -0.2321
96723W        W34217   0.908  32.383  20.404  0.0398 -0.0270  0.1106
96724W        W34218  17.529  19.989  10.006  0.0264  0.0071  0.2267
96725W        W34219  22.485  17.294  18.288  0.0544 -0.3253  0.1372
96726W        W34220   9.352  35.127  15.502 -0.1543 -0.0179 -0.1404
96727W        W34221  18.667  19.347   3.877  0.2281  0.1330 -0.0458
96728W        W34222  30.567  27.979   0.363 -0.1936 -0.0077 -0.0005
96729W        W34223   1.791  12.035   2.675  0.2248  0.2337  0.1208
96730W        W34224  19.656  27.163  25.485 -0.0201  0.0981  0.3778
96731W        W34225  22.587  22.740   1.770 -0.3341 -0.4890 -0.0229
96732W        W34226  15.410  28.448   0.530 -0.5411 -0.1420 -0.0855
96733W        W34227  27.262  17.225   9.919  0.1838 -0.0613  0.0716
96734W        W34228  30.641  12.359  20.576  0.1818  0.0923 -0.3965
96735W        W34229  32.801   4.929  22.041  0.0722  0.2967  0.0319
96736W        W34230  10.672   6.250   7.297 -0.0022 -0.1075  0.3073
96737W        W34231  33.094  26.493   0.213 -0.0778  0.1673 -0.1040
96738W        W34232  26.573  19.711   7.931 -0.1756  0.0472 -0.0472
96739W        W34233  28.948  29.592  25.100 -0.2093 -0.1746  0.1239
96740W        W34234  19.056  12.080  24.223 -0.1154  0.0229 -0.1842
96741W        W34235  31.029   5.595   1.938  0.0270  0.0600 -0.1829
96742W        W34236  27.559   9.859  23.567  0.0047  0.0945  0.3059
96743W        W34237   5.212  20.463   6.342  0.0741 -0.2096 -0.0966
96744W        W34238  17.110  29.658  23.236 -0.0339  0.0445 -0.2190
96745W        W34239  35.048   7.313  13.702  0.0871 -0.1290 -0.0821
96746W        W34240  15.896  18.717   9.143 -0.0911  0.2915 -0.2428
96747W        W34241  33.986   6.756   4.449  0.0433  0.0124  0.3538
96748W        W34242  12.454  13.646   4.898 -0.4304 -0.1466  0.1046
96749W        W34243  27.851  26.144  23.452  0.1165  0.1880  0.0840
96750W        W34244  20.470  16.420  17.932 -0.0211 -0.2655  0.1348
96751W        W34245  33.905  33.352  22.337  0.0660  0.1700  0.1341
96752W        W34246  25.349   6.693  21.162 -0.0621 -0.2263 -0.4458
96753W        W34247  13.083  22.924   0.769  0.2738  0.3188  0.2447
96754W        W34248  23.928  27.419  19.964  0.1740 -0.1123 -0.0439
96755W        W34249  17.709  20.565  25.277 -0.0500 -0.1094  0.4966
96756W        W34250   9.613  22.169   8.728  0.0307 -0.0107 -0.1748
96757W        W34251  23.435   0.844   3.580  0.3911  0.0939 -0.4621
96758W        W34252  11.275   1.405  13.817  0.1660  0.0710  0.0901
96759W        W34253  26.677  21.180  14.049 -0.0815 -0.1727  0.1995
96760W        W34254   7.489  22.302  22.748 -0.0134  0.0728 -0.1476
96761W        W34255  28.264  17.713  18.412 -0.4453 -0.1067  0.0286
96762W        W34256  24.662   8.514  16.628 -0.1233 -0.0342 -0.0753
96763W        W34257  29.379  20.246   8.841  0.0987 -0.0568 -0.1356
96764W        W34258   7.403  33.748  22.941 -0.2244  0.0529  0.1128
96765W        W34259   8.305   4.772  12.270 -0.1141  0.2814  0.2078
96766W        W34260  28.993   4.173  17.204  0.3051  0.0230  0.2654
96767W        W34261  17.707  19.056   4.785  0.0044  0.0318  0.1937
96768W        W34262  25.481  31.377  24.469 -0.0044 -0.1963  0.1677
96769W        W34263  14.478  32.026   8.859 -0.0832 -0.0775 -0.1615
96770W        W34264  17.259   7.912  18.559 -0.5781  0.2422  0.0718
96771W        W34265  31.503  31.848  24.543 -0.3222 -0.1107 -0.0445
96772W        W34266  21.309  28.657  15.829 -0.3464  0.1414  0.0974
96773W        W34267  17.212  10.562   5.223 -0.0782  0.2231  0.2953
96774W        W34268   0.094  27.015  19.399  0.0455  0.3515 -0.1659
96775W        W34269  14.915   2.038   7.218  0.3197 -0.1048  0.0029
96776W        W34270  23.615  19.977  14.870  0.0090 -0.1824  0.2608
96777W        W34271  33.068   0.693  20.396  0.2335 -0.0015 -0.0038
96778W        W34272  21.618   7.941   3.298  0.0271 -0.1235 -0.2611
96779W        W34273   1.060  28.439  21.229 -0.0238  0.0448 -0.1691
96780W        W34274  10.544  32.110  13.135  0.1048  0.0086 -0.1302
96781W        W34275  17.698  17.044  11.789 -0.1272  0.1397  0.0582
96782W        W34276  31.859  23.502  21.737 -0.1810 -0.1166 -0.1833
96783W        W34277  27.255  18.923  13.996  0.0695 -0.3343  0.3471
96784W        W34278  32.845   9.354  22.308  0.2827  0.2619 -0.0811
96785W        W34279  24.531  26.372  22.914 -0.4088  0.0524  0.2506
96786W        W34280  13.962  12.834   2.898 -0.0198  0.0079 -0.1622
96787W        W34281   8.509  33.641   0.366 -0.1398  0.3719  0.3314
96788W        W34282  23.603   3.448  25.753 -0.3814 -0.1474  0.0579
96789W        W34283  35.099   1.392   1.294  0.2685  0.1156  0.0069
96790W        W34284   1.524   1.372   1.283 -0.0901  0.3862 -0.0511
96791W        W34285   9.610  23.164  23.471 -0.0346 -0.0511 -0.1944
96792W        W34286  19.111   4.633   2.984 -0.2642 -0.2242  0.0271
96793W        W34287   1.719  18.710   9.406 -0.1988 -0.0230  0.1157
96794W        W34288  13.359  28.236   9.025  0.0665 -0.1138 -0.0100
96795W        W34289   4.602   0.402  19.399  0.1428  0.2577  0.3126
96796W        W34290   9.328  16.546  24.555 -0.2807  0.1623  0.1463
96797W        W34291  16.682   0.131   2.580 -0.0254 -0.0975 -0.2067
96798W        W34292  11.197   0.818   2.264 -0.1805  0.4213 -0.0560
96799W        W34293   9.981  19.365  25.464 -0.4015 -0.2219 -0.1432
96800W        W34294  15.514  19.882   2.500 -0.0953 -0.1859 -0.2060
96801W        W34295   4.395   3.670   0.424 -0.0388  0.1649  0.0592
96802W        W34296  31.712   2.610   1.931  0.0517 -0.0392  0.2489
96803W        W34297  18.233  13.595  20.756  0.0881  0.1591  0.4305
96804W        W34298  31.748  21.445   0.332  0.1082  0.5697  0.2907
96805W        W34299  27.971  21.691   7.423 -0.0617 -0.0979 -0.1819
96806W        W34300  32.641  11.413  15.715  0.1752 -0.1844 -0.1196
96807W        W34301  10.691  11.648  22.291  0.0919 -0.1384  0.3434
96808W        W34302  20.727   9.297   4.289  0.1684  0.0645 -0.0957
96809W        W34303  32.331  13.524  17.491  0.0582 -0.1299  0.3119
96810W        W34304  27.081   9.249  10.282 -0.4769  0.2358 -0.0712
96811W        W34305   0.885   0.652  25.281  0.2717  0.0339 -0.4599
96812W        W34306   8.564  17.241   5.682 -0.5600  0.0164  0.2976
96813W        W34307  11.594   1.720   8.291 -0.0633  0.1032 -0.2291
96814W        W34308  11.448   2.339  12.424  0.0171  0.1302 -0.1377
96815W        W34309  26.168  14.994   6.614 -0.0248 -0.1512 -0.0229
96816W        W34310  12.472  13.980  21.131 -0.0387 -0.0565 -0.1300
96817W        W34311  14.305  19.621  21.493 -0.3444  0.1048 -0.1512
96818W        W34312   4.118  30.647   1.263 -0.3353 -0.1029  0.2827
96819W        W34313  19.657  27.798  25.727 -0.1131 -0.2009 -0.2606
96820W        W34314  18.205  21.135  10.162 -0.1613  0.1419 -0.1271
96821W        W34315  34.128  11.447   9.424 -0.3156 -0.0838 -0.0474
96822W        W34316  27.359  20.936  18.113  0.0224  0.2189 -0.0326
96823W        W34317  20.481   5.486  22.798 -0.2222  0.0229  0.2283
96824W        W34318  19.024  16.698   1.356  0.0581 -0.1899  0.1292
96825W        W34319  23.755   8.921  22.928  0.0313  0.2443  0.0566
96826W        W34320  33.493  23.716  24.012 -0.1372 -0.2094  0.0061
96827W        W34321  32.268  32.719  18.788 -0.2644 -0.1718 -0.1333
96828W        W34322  27.029  12.467  24.261  0.1342  0.1592 -0.1253
96829W        W34323  26.041   9.843  14.355 -0.0986  0.3205 -0.0101
96830W        W34324  15.569  29.420   7.241 -0.3280 -0.1168 -0.2603
96831W        W34325  20.532  30.928   0.069  0.0624  0.1457  0.0338
96832W        W34326  23.996  20.083  20.863  0.1429  0.1509  0.1404
96833W        W34327  34.327   2.116   0.958 -0.2779 -0.1018  0.0556
96834W        W34328  18.880  31.583   1.120  0.1919 -0.0911 -0.1924
96835W        W34329  12.004  18.102   1.396  0.3253 -0.1285 -0.0160
96836W        W34330  19.807  31.302  21.535 -0.1327 -0.0615  0.0100
96837W        W34331   3.911   1.589  22.136  0.1530 -0.2116 -0.0127
96838W        W34332  23.288   6.921  15.821  0.1196  0.1359 -0.1082
96839W        W34333  15.180  11.643   7.088  0.0732 -0.2234 -0.3516
96840W        W34334   9.685   4.182  14.526 -0.3269 -0.0785 -0.1240
96841W        W34335  15.561  17.601  24.780  0.1857  0.0345  0.0005
96842W        W34336  29.829   6.485  17.270  0.1852 -0.2143  0.0754
96843W        W34337   9.424  18.293  12.879  0.0847 -0.1347  0.3699
96844W        W34338   3.665  14.501   4.319  0.0175  0.0980 -0.1287
96845W        W34339  11.394  26.760   7.143 -0.1970  0.0048 -0.1904
96846W        W34340   8.209  15.013   5.654 -0.0698  0.0493  0.1686
96847W        W34341  27.028   2.670  12.901 -0.2940 -0.0508 -0.0654
96848W        W34342  14.479   7.625  22.991  0.3145 -0.1424  0.1015
96849W        W34343  11.837  18.215   8.173  0.0803  0.1605  0.1533
96850W        W34344   8.681  18.494  11.896 -0.2775  0.0848  0.0168
96851W        W34345  13.027  16.462  24.630 -0.0442  0.3603  0.2013
96852W        W34346  13.423  23.690   1.050 -0.0171 -0.1669 -0.1005
96853W        W34347  12.463  25.693  13.651 -0.2013 -0.1779  0.1275
96854W        W34348  32.823  20.768  18.491  0.0257  0.0139 -0.0098
96855W        W34349  10.801   3.615   8.606 -0.2475  0.1358  0.1356
96856W        W34350  16.358  13.849   5.976 -0.1132 -0.3284  0.0961
96857W        W34351  31.941  16.274   9.138 -0.1677 -0.4457  0.1112
96858W        W34352  12.619  23.011   4.465  0.2072  0.3240  0.1033
96859W        W34353   8.460  19.659   4.571 -0.2186 -0.0534  0.1207
96860W        W34354  27.434  30.251   2.093  0.3040  0.2939 -0.2022
96861W        W34355   9.108   2.972  24.812  0.0187  0.2877 -0.0345
96862W        W34356   0.675  10.445   2.916  0.3365  0.1365 -0.0819
96863W        W34357   1.466  23.400  19.339  0.0913 -0.0810 -0.4998
96864W        W34358   2.794   9.524   2.660  0.0680 -0.1055 -0.0866
96865W        W34359   7.296  29.263  25.829  0.0720 -0.1442  0.1267
96866W        W34360  20.177  21.856  22.287 -0.3140 -0.0636  0.0070
96867W        W34361  23.888  25.213  14.242  0.1249 -0.1315  0.0202
96868W        W34362  27.105  31.318   0.175  0.0347 -0.0394  0.1959
96869W        W34363  23.107   3.862   6.939  0.1297  0.1435 -0.0021
96870W        W34364   9.155  21.697   4.010  0.1162 -0.3660  0.1313
96871W        W34365  15.827  30.628  20.625 -0.0001 -0.2006  0.0016
96872W        W34366  35.374  19.849   0.680 -0.0413  0.3157  0.0628
96873W        W34367  21.947  34.395   0.261 -0.0236  0.4884  0.3349
96874W        W34368   9.133  33.013  13.503 -0.0163  0.0046  0.0660
96875W        W34369   9.500   6.722  11.969 -0.1726 -0.0178  0.0707
96876W        W34370   8.592   9.352   6.739 -0.3195 -0.0061  0.1414
96877W        W34371  27.820  28.402   0.104 -0.1162 -0.1789  0.0460
96878W        W34372  14.742  14.666   3.923  0.0921 -0.1775  0.1246
96879W        W34373  32.098  19.428   9.450  0.2291 -0.1513  0.0640
96880W        W34374  24.274  28.543  11.898 -0.2392 -0.0193  0.0169
96881W        W34375  16.356   2.351  25.587  0.1368 -0.0446  0.0359
96882W        W34376  29.097  33.416  21.570 -0.2548 -0.0476 -0.1689
96883W        W34377  16.903   4.450  11.617 -0.1418  0.1474 -0.1345
96884W        W34378  19.235   3.991  25.861  0.2288  0.2253  0.1682
96885W        W34379  11.921  26.928  24.510  0.1078 -0.0994  0.1406
96886W        W34380  32.762  21.567  11.762 -0.1733 -0.0990 -0.1689
96887W        W34381   6.903  23.457   3.667 -0.1291 -0.0803 -0.1723
96888W        W34382  34.295  21.977  20.834  0.2792 -0.1862 -0.1623
96889W        W34383  27.305  32.174  11.375 -0.3426 -0.2022  0.2149
96890W        W34384   5.324  21.949  23.851 -0.4245 -0.1662  0.0548
96891W        W34385  27.465  30.266   1.545  0.1318 -0.2172  0.1758
96892W        W34386  14.158  24.987  25.918  0.0340  0.1180 -0.0773
96893W        W34387  34.097  28.083   0.991  0.2052  0.0143 -0.2665
96894W        W34388   0.023  28.051   2.867  0.1514 -0.0519  0.0433
96895W        W34389  10.659  27.957  12.545  0.1310 -0.1703  0.2444
96896W        W34390  11.289  21.776  11.209  0.2179  0.0786  0.0185
96897W        W34391  28.675   9.338  17.470 -0.2138 -0.0160  0.2119
96898W        W34392   7.443  12.864   4.434 -0.0420 -0.0075 -0.1602
96899W        W34393   5.016  19.452   7.478  0.0998 -0.0148 -0.1519
96900W        W34394  30.562  27.730  21.559  0.4465 -0.1841 -0.3845
96901W        W34395   9.439  18.614  25.010  0.1193 -0.3151  0.2785
96902W        W34396   7.634   8.863  24.864 -0.2197  0.0081  0.1596
96903W        W34397   4.778  15.342  25.502  0.3407  0.0726  0.0228
96904W        W34398   0.593  32.132  24.565  0.0441  0.4510 -0.2147
96905W        W34399  17.780  32.738   1.149 -0.0189 -0.0336  0.1435
96906W        W34400  15.291  19.213   3.555 -0.2216 -0.0931 -0.0531
96907W        W34401   6.707  26.349  25.752  0.1239 -0.0542  0.2085
96908W        W34402  27.418  20.825  14.599 -0.1163 -0.3124 -0.0893
96909W        W34403  32.282  24.779  17.452  0.0246 -0.0667 -0.1465
96910W        W34404  13.613  22.448  14.809  0.1467 -0.1366  0.1185
96911W        W34405  32.360  31.418   5.984 -0.3079 -0.2316 -0.0515
96912W        W34406  29.908   7.461  17.769 -0.2231 -0.0132  0.1751
96913W        W34407  27.103   6.073  11.855 -0.0954 -0.0918  0.0376
96914W        W34408  15.487  27.310  15.155  0.0042  0.0284 -0.1523
96915W        W34409  11.924  34.078   4.578  0.0627  0.2394 -0.5454
96916W        W34410  26.974  17.873  14.971 -0.1181 -0.0000 -0.2425
96917W        W34411  31.611   3.697   4.116  0.1261  0.1164 -0.0341
96918W        W34412  16.434  11.880   3.096 -0.0392 -0.0649 -0.2727
96919W        W34413   2.701   9.363  17.652  0.0801  0.1490  0.1355
96920W        W34414  26.222  15.624  11.068  0.0654 -0.0540 -0.0227
96921W        W34415  24.450  32.870  19.931  0.1250  0.1978  0.3289
96922W        W34416   2.629  22.239  15.038  0.0898  0.1072 -0.2349
96923W        W34417  24.314  26.725  15.577  0.2420  0.0571  0.1956
96924W        W34418   5.193  14.958   0.935 -0.0721 -0.0339  0.2129
96925W        W34419  14.494  16.225  12.378  0.1159 -0.0483 -0.1893
96926W        W34420  34.488   0.171   4.990  0.1320  0.1132 -0.0586
96927W        W34421  15.993  26.132  11.064  0.0206 -0.1348  0.4189
96928W        W34422  22.493   1.341  23.132 -0.1712 -0.0472 -0.3495
96929W        W34423  20.024  23.588   5.420 -0.1135 -0.0461  0.0488
96930W        W34424  12.943  33.231   4.837  0.0818  0.0655  0.1403
96931W        W34425   3.504  25.562   5.932  0.2235  0.1850 -0.3716
96932W        W34426  19.632  29.504   2.332  0.0860  0.0982  0.2608
96933W        W34427  28.624  22.010  24.365  0.2860 -0.0156 -0.1983
96934W        W34428  18.356   9.426  11.822 -0.2663 -0.1877  0.1128
96935W        W34429  11.893  35.158   6.524 -0.1624 -0.0451  0.0630
96936W        W34430  35.194  31.868  18.053 -0.0819  0.1726  0.1207
96937W        W34431  16.915   5.004   1.746  0.1749 -0.0893 -0.1536
96938W        W34432   8.423  14.904  19.994 -0.0046  0.2635 -0.3391
96939W        W34433  33.573   9.870  18.115  0.0155  0.2600 -0.3000
96940W        W34434  17.332  16.966   0.678  0.1693 -0.4565 -0.1573
96941W        W34435  14.976  14.108   5.523 -0.0107 -0.0865 -0.2531
96942W        W34436  30.972  30.328  13.448  0.1224 -0.2743  0.2374
96943W        W34437   7.920  20.174  21.230  0.0205 -0.1035 -0.0378
96944W        W34438   7.630  11.774   6.360 -0.1618 -0.2226  0.3865
96945W        W34439  33.750  34.142  21.756 -0.1070 -0.1271  0.3483
96946W        W34440  31.263  23.323   0.097 -0.3981 -0.0013 -0.2451
96947W        W34441  16.880  34.025   5.202  0.1744  0.0760  0.1828
96948W        W34442  15.985   9.667   6.978  0.1193  0.0405 -0.0776
96949W        W34443  31.558   2.571  23.502 -0.5881  0.0002 -0.0892
96950W        W34444  24.070  24.449  23.166  0.4647  0.0569  0.1816
96951W        W34445  10.782   8.018   5.284  0.1692 -0.1293 -0.1028
96952W        W34446  29.133   2.108  21.046 -0.0020  0.5639  0.1698
96953W        W34447   8.449  25.107  16.095  0.0096  0.1419  0.0315
96954W        W34448  23.922  17.834   9.552  0.0282  0.0127  0.1002
96955W        W34449  18.227  15.618  23.940  0.0311 -0.1281  0.0167
96956W        W34450   8.097  34.390  22.566  0.3604  0.0405 -0.0962
96957W        W34451  31.370  26.618  12.674 -0.2375  0.1819  0.0509
96958W        W34452  23.669  18.556  21.184 -0.0482  0.0049  0.1306
96959W        W34453  35.325  34.772   4.868 -0.4654  0.1242 -0.2342
96960W        W34454   3.444  27.244   7.645  0.0158 -0.0066 -0.0890
96961W        W34455  32.662  34.923  22.360 -0.2248 -0.2825 -0.1260
96962W        W34456  26.269  29.037  13.978 -0.3203  0.0289  0.0471
96963W        W34457  26.055   9.546   1.142 -0.1375  0.2046  0.1608
96964W        W34458   7.094  26.159  21.869 -0.0942  0.0545  0.1007
96965W        W34459  16.893  10.740   7.414  0.0777  0.0341 -0.3845
96966W        W34460  28.446  17.625  15.129  0.2360 -0.1190 -0.0577
96967W        W34461   8.390  22.597  24.941 -0.0519 -0.1281  0.4144
96968W        W34462  26.576  31.574  21.962  0.1957 -0.0409  0.3038
96969W        W34463  31.666  16.575  10.620 -0.1726 -0.1758  0.1775
96970W        W34464  26.195   4.126   3.294 -0.0944 -0.0035 -0.0741
96971W        W34465  35.330  29.539  22.689 -0.1361 -0.2933 -0.2667
96972W        W34466   6.948  34.057  11.609 -0.0120  0.1964 -0.0367
96973W        W34467  34.843  16.273  19.604  0.1041  0.0851  0.2147
96974W        W34468   5.458   8.264   0.515 -0.0386 -0.0949 -0.0347
96975W        W34469  29.420  20.802  18.431 -0.0239 -0.0813 -0.1868
96976W        W34470  21.591   4.005  17.468  0.0467  0.0586  0.3193
96977W        W34471  17.788  16.402   3.118 -0.0910 -0.0515 -0.1204
96978W        W34472  29.086  32.325  11.271  0.4862 -0.1551 -0.2186
96979W        W34473  29.883   2.201  12.360 -0.0502 -0.2386 -0.1531
96980W        W34474   8.120  18.660   4.700 -0.0207 -0.1064  0.2844
96981W        W34475  16.128   6.401  12.807 -0.0165  0.1330  0.2166
96982W        W34476  28.199  28.595  15.882  0.0043 -0.5261 -0.0673
96983W        W34477  10.051  14.200  23.602 -0.1868  0.1245 -0.2150
96984W        W34478  12.677  28.604  22.287  0.1692 -0.1807 -0.1036
96985W        W34479   3.012  20.894  15.035 -0.2231 -0.0201  0.0521
96986W        W34480  10.960   2.601   3.560  0.4151 -0.1402 -0.3957
96987W        W34481  12.872  27.521   4.318 -0.3435 -0.0047 -0.1684
96988W        W34482  25.954  19.148   8.177  0.1255 -0.2543  0.1753
96989W        W34483  25.623   5.811  16.384 -0.0143 -0.1454  0.2287
96990W        W34484  21.194   3.427  16.956  0.3010 -0.1473 -0.0397
96991W        W34485  20.560  29.921   8.043 -0.1341  0.1679 -0.0873
96992W        W34486  10.647  26.815  12.969  0.1795  0.0388  0.1090
96993W        W34487  28.661   6.796  20.802 -0.0506 -0.0404 -0.0162
96994W        W34488   5.026  35.067  18.901  0.2181 -0.0062  0.1836
96995W        W34489  26.537   0.004  25.223  0.0251 -0.1692  0.0223
96996W        W34490  32.468   1.089  22.843  0.0090  0.0329 -0.2662
96997W        W34491  28.926  21.761  25.167  0.0026  0.0889 -0.0457
96998W        W34492  13.770  20.263  13.499  0.0418  0.1119  0.3461
96999W        W34493  11.833  23.762   2.761  0.2973 -0.1896  0.4057
97000W        W34494  15.705  21.901  10.036  0.1676  0.1948  0.3176
97001W        W34495  26.553  13.734  15.729  0.0571  0.2045 -0.3036
97002W        W34496  19.657  21.021   5.231 -0.2256 -0.1714 -0.1659
97003W        W34497  27.129  23.063  10.911 -0.3058 -0.3182 -0.1301
97004W        W34498  27.942   7.769  17.599  0.2907  0.5937 -0.2036
97005W        W34499  32.514  35.245   5.235 -0.0569  0.1259 -0.2464
97006W        W34500  20.821  25.550  23.826  0.1996 -0.0083  0.0429
97007W        W34501  26.615  31.743  12.208 -0.0413  0.1231  0.3004
97008W        W34502  33.040  34.070   4.818  0.1071 -0.0220 -0.1668
97009W        W34503  15.595  11.870   3.930 -0.2526  0.0624 -0.0855
97010W        W34504  16.971  20.102  13.927  0.1013  0.1364  0.0127
97011W        W34505  18.378  16.160  22.884  0.2552  0.1280 -0.1387
97012W        W34506  15.394  18.376   9.047  0.0659 -0.1910  0.0626
97013W        W34507  24.430  18.774  15.131 -0.2974 -0.1247 -0.0773
97014W        W34508  16.402   4.230  16.775  0.4776 -0.0901  0.2441
97015W        W34509  19.995   1.574   3.488 -0.1461  0.2841 -0.1435
97016W        W34510  11.525  14.095   2.430  0.1446 -0.0925 -0.0806
97017W        W34511  31.369   3.637  12.515  0.0099 -0.2024  0.0023
97018W        W34512  33.936  23.821  22.744 -0.3712  0.0276 -0.2988
97019W        W34513  33.788  12.298  24.504  0.0653  0.1454  0.0382
97020W        W34514   5.362  30.827  22.923 -0.0954  0.0028  0.3270
97021W        W34515  30.341  20.184  13.825 -0.2968 -0.0185 -0.0195
97022W        W34516  18.218  17.726   6.051 -0.0247 -0.1932 -0.0469
97023W        W34517  27.397  13.881  18.114 -0.0117  0.1747 -0.2052
97024W        W34518  21.321  22.837   2.716 -0.0302  0.0031 -0.1612
97025W        W34519  15.285  29.259   2.497  0.0283 -0.1025 -0.1747
97026W        W34520  29.206   5.208  21.972  0.2898  0.0670 -0.1070
97027W        W34521  23.405  12.446  12.073  0.0861  0.3725 -0.2040
97028W        W34522  11.724  21.040  16.165  0.3864  0.0853 -0.2127
97029W        W34523  31.018  20.108   7.444  0.2832  0.0044  0.1901
97030W        W34524   5.210  34.466  21.933 -0.0113 -0.2332  0.2538
97031W        W34525  24.536   4.786   0.786  0.2908 -0.0023 -0.3600
97032W        W34526  31.902   7.250  14.431  0.4341  0.2562  0.1909
97033W        W34527  25.233  30.495  12.845 -0.2397 -0.1969  0.1685
97034W        W34528   5.043  18.314  18.394 -0.2207  0.1337 -0.0861
97035W        W34529  31.802  16.162   1.092 -0.1780  0.2124  0.0534
97036W        W34530  32.574  10.955  12.948  0.0834  0.0754 -0.2743
97037W        W34531  23.370  31.665  12.926  0.0487 -0.2145 -0.0265
97038W        W34532  18.918   6.388   4.489 -0.2538 -0.1084  0.0107
97039W        W34533  27.852   4.219  11.662 -0.1287  0.0033 -0.1366
97040W        W34534  23.918   6.970  25.271  0.3728  0.3589 -0.1994
97041W        W34535   8.586  20.117   1.464 -0.1566  0.0582  0.1682
97042W        W34536  25.402  18.562  12.005 -0.3323 -0.1024  0.1534
97043W        W34537   8.846  22.054  22.519  0.1337  0.1779 -0.3728
97044W        W34538  25.561  14.321  19.311 -0.3612 -0.2653 -0.3580
97045W        W34539   5.366   8.601   4.433  0.1656  0.4900  0.2161
97046W        W34540  20.845  14.539   0.362  0.1225 -0.0128  0.0624
97047W        W34541  13.623  31.072   0.932 -0.0786  0.0913 -0.4530
97048W        W34542   4.239  21.415   3.469  0.1951  0.1254 -0.0946
97049W        W34543  14.040  31.711   8.717  0.0061  0.1877 -0.2957
97050W        W34544  26.598  21.812  16.516  0.0031 -0.1000  0.2482
97051W        W34545   0.872   9.905  19.577  0.2322  0.1961  0.2306
97052W        W34546  17.670  29.956   5.772  0.1451  0.2966 -0.1538
97053W        W34547  13.278   8.461  23.827 -0.0068 -0.4792 -0.0726
97054W        W34548  30.695   6.123  10.868 -0.0241  0.3811  0.1108
97055W        W34549  22.056   2.071   6.211  0.0149 -0.1572 -0.2476
97056W        W34550  31.793  11.237  16.080  0.1509 -0.0859 -0.1715
97057W        W34551  30.837  10.419  11.017 -0.3736  0.2239  0.0956
97058W        W34552  13.040  31.144   7.286 -0.1603  0.0010 -0.2591
97059W        W34553  29.729  30.435  12.282 -0.0941  0.1266  0.3469
97060W        W34554  26.928  16.317  14.313 -0.0843  0.0212  0.1081
97061W        W34555   6.523   2.385   5.376 -0.0885  0.3185  0.1701
97062W        W34556  13.508  23.801  23.443 -0.0928  0.2554  0.2468
97063W        W34557  30.328  18.952  16.163 -0.2754 -0.1687 -0.2205
97064W        W34558  33.209   9.351  20.941  0.1054 -0.0021 -0.0601
97065W        W34559   7.980   9.880  22.588 -0.0517  0.3113  0.1682
97066W        W34560   2.204   4.521  25.709  0.1101  0.0714 -0.1377
97067W        W34561  19.446  31.730   3.756 -0.1249 -0.1541  0.3122
97068W        W34562  32.649  32.970  20.122  0.2136 -0.3043  0.2010
97069W        W34563  30.407   2.857  15.317  0.2794  0.0356  0.3389
97070W        W34564  22.937  19.131  16.110 -0.0292 -0.1516  0.2358
97071W        W34565  31.290  24.195  21.788  0.1030  0.3051  0.4107
97072W        W34566   1.638  34.226   2.664 -0.1203  0.4902 -0.1691
97073W        W34567  31.474   5.315   1.981  0.0075  0.0875  0.2106
97074W        W34568  24.123  16.366  22.000  0.6010 -0.1580 -0.1893
97075W        W34569  20.244   8.913   7.638 -0.0668 -0.1377  0.0767
97076W        W34570  17.245  11.970   7.505  0.1889 -0.0303  0.0430
97077W        W34571  26.997  28.939  22.555  0.0753 -0.4508 -0.0358
97078W        W34572  19.263  31.410   5.637 -0.1501  0.0105  0.0396
97079W        W34573  19.908  22.084   3.302 -0.1859 -0.0007  0.0839
97080W        W34574  23.100  16.480  20.139 -0.1569 -0.1738 -0.2040
97081W        W34575   9.340  10.733   8.709  0.3999  0.5440 -0.2423
97082W        W34576   7.558  16.245  11.414 -0.0060 -0.0945 -0.0375
97083W        W34577   9.090  28.552  11.574  0.0152  0.1097 -0.2161
97084W        W34578  12.156   2.688  13.035 -0.0354 -0.0292 -0.1067
97085W        W34579  20.779  34.656  19.721 -0.1608  0.3631 -0.1746
97086W        W34580  15.617  15.490  19.597 -0.0289  0.0821  0.2925
97087W        W34581   5.896  30.893  14.338 -0.1004 -0.1197 -0.4612
97088W        W34582  17.265  22.375   0.985  0.1938  0.0420 -0.0197
97089W        W34583  17.978  33.085   5.370  0.1996  0.2859  0.1347
97090W        W34584  15.104  27.343  23.014 -0.2795  0.1030  0.0433
97091W        W34585  11.131   9.924  20.070  0.0197 -0.2277 -0.1915
97092W        W34586  22.200  12.021  19.285  0.4250 -0.0118  0.0742
97093W        W34587  28.284  17.421   4.766  0.3372  0.1336 -0.0927
97094W        W34588   0.124  15.815  14.228  0.0828  0.0768  0.1686
97095W        W34589  10.027  13.502  25.820 -0.0459 -0.0837  0.3156
97096W        W34590  27.398  17.338  22.314  0.0395  0.2578  0.1145
97097W        W34591  33.890   8.892  16.970 -0.2311  0.0198  0.0255
97098W        W34592   8.045  22.569  12.275  0.1922 -0.2317  0.1941
97099W        W34593  18.445  26.329   7.523  0.0770 -0.1461  0.0339
97100W        W34594  26.301  24.098  20.248  0.0754  0.0296 -0.0034
97101W        W34595   4.106  14.544   4.593  0.0917 -0.1970  0.0134
97102W        W34596  24.264  23.919  14.752 -0.0688 -0.0727  0.2894
97103W        W34597  12.489   0.681  23.499 -0.2850 -0.2769  0.0382
97104W        W34598  27.294   1.893  12.234 -0.0997 -0.3001  0.0917
97105W        W34599   3.892  22.561   4.979  0.1366 -0.0381  0.2804
97106W        W34600   6.852  26.245   1.416 -0.2300  0.0783 -0.3116
97107W        W34601  35.189  18.671   1.004  0.2072  0.1001  0.0824
97108W        W34602   2.128  12.344   2.823  0.0214  0.4086  0.1750
97109W        W34603  31.023   8.335  10.326 -0.1240  0.1057 -0.2056
97110W        W34604   8.535  18.179  13.645 -0.0130 -0.0006  0.2931
97111W        W34605  29.569  28.583  21.866  0.2193  0.0258  0.0394
97112W        W34606  12.790  20.718  10.837  0.1302 -0.0016  0.2999
97113W        W34607  28.360  30.498  12.481 -0.2439  0.4418  0.2868
97114W        W34608  28.121  30.905   4.372 -0.0302  0.1394  0.1198
97115W        W34609  34.414  11.649  14.895  0.1472 -0.0783 -0.0395
97116W        W34610  35.112  22.358   9.095 -0.3670 -0.0692  0.0131
97117W        W34611   4.987  30.295   9.415 -0.1007  0.0277 -0.2269
97118W        W34612   7.146  15.977  24.653  0.0214 -0.0101 -0.1648
97119W        W34613  15.055  27.942   5.144  0.2578 -0.1613 -0.0705
97120W        W34614  18.928  27.161   3.678  0.4458 -0.1197  0.2276
97121W        W34615  12.325  17.251   5.744 -0.0017 -0.0370  0.1646
97122W        W34616  26.317  33.771   4.402  0.2088 -0.1627 -0.1848
97123W        W34617  18.879   7.081  24.437  0.0664  0.0512 -0.3227
97124W        W34618  30.742  33.468  13.942  0.2566  0.0607 -0.2270
97125W        W34619   1.358  13.081  23.312 -0.1145  0.2113 -0.3648
97126W        W34620  32.081   8.335  24.235  0.2011  0.1081  0.1542
97127W        W34621  31.235  25.465  21.879 -0.0209 -0.2802 -0.0289
97128W        W34622  23.783  24.234  20.311  0.2700  0.4378  0.0958
97129W        W34623  33.763  14.080   1.212 -0.0732 -0.0189 -0.2071
97130W        W34624   1.466  29.448   1.421 -0.0977  0.2813  0.1238
97131W        W34625   7.672   0.832   1.226 -0.0399  0.4723 -0.3106
97132W        W34626   2.871  18.093   2.764  0.2733  0.0691  0.1694
97133W        W34627  17.147  15.432  23.068 -0.1038  0.0708  0.4216
97134W        W34628  10.727  14.091  19.027 -0.0175  0.2651 -0.0642
97135W        W34629  14.681   0.164  22.213 -0.0803  0.1408 -0.0088
97136W        W34630  30.660  11.019  19.795  0.0458  0.0235 -0.2060
97137W        W34631  19.720  10.871  17.472  0.1100  0.0803  0.1755
97138W        W34632  19.593   9.955  25.245  0.1843  0.1920 -0.0392
97139W        W34633  28.094  27.090  23.618 -0.0223 -0.1849  0.0919
97140W        W34634  14.361   7.570  18.885  0.1524 -0.0590  0.0339
97141W        W34635  27.057  16.068  24.080 -0.1603  0.1226 -0.0405
97142W        W34636  11.686  31.013  17.120 -0.1367 -0.1455  0.1300
97143W        W34637  28.470  28.002  15.374  0.1293  0.0424 -0.1844
97144W        W34638   2.802  32.679  21.009  0.2502  0.0556 -0.1274
97145W        W34639  15.041  15.328  13.733  0.3071  0.3403  0.2188
97146W        W34640   0.863  19.282   1.447 -0.0593 -0.2653 -0.3004
97147W        W34641   4.874  30.619   0.998 -0.0017  0.0499 -0.0748
97148W        W34642  13.526  29.295  22.398  0.0361  0.2777 -0.1628
97149W        W34643  20.773  30.686   7.354  0.2506 -0.1079 -0.1712
97150W        W34644   2.272   7.824  23.143 -0.4260 -0.0170  0.1002
97151W        W34645  18.280  22.257  18.818  0.2717  0.0095 -0.2182
97152W        W34646  25.616  35.218  14.444  0.2740 -0.0164 -0.1748
97153W        W34647  22.385  23.749  16.722  0.0012  0.0129 -0.3482
97154W        W34648  17.026   3.776  17.904  0.1966 -0.0247  0.1199
97155W        W34649  15.171   3.166  20.057  0.5362  0.1591 -0.3666
97156W        W34650  33.280  12.220   8.287  0.3185 -0.0328 -0.3899
97157W        W34651  24.596  21.122   1.135  0.1824 -0.1841 -0.1328
97158W        W34652   8.418  10.691   3.226 -0.2243 -0.0844 -0.1853
97159W        W34653  27.045  32.613   0.873  0.2007 -0.2194 -0.1103
97160W        W34654  10.317  23.047   8.967  0.1167 -0.1522  0.2504
97161W        W34655  31.348  16.308  20.708 -0.1020  0.3657  0.3159
97162W        W34656   1.309  18.583  11.850 -0.3155  0.0398 -0.2423
97163W        W34657   1.812   5.530  24.045  0.0606  0.2140  0.1406
97164W        W34658  16.576  22.911   6.823 -0.0459  0.2002 -0.4368
97165W        W34659  26.215   1.934   4.244  0.0113 -0.4339  0.3286
97166W        W34660   7.820  11.562   1.621 -0.0374  0.2333  0.2511
97167W        W34661  33.838  32.081  12.774 -0.0252 -0.0743 -0.0129
97168W        W34662   7.553  11.159  22.933  0.0978 -0.2340  0.1071
97169W        W34663  31.344   8.857  22.061  0.1829  0.1215  0.0973
97170W        W34664   4.239   4.445  17.163  0.0199  0.0952 -0.1826
97171W        W34665  29.613  21.635   8.693  0.0094  0.0712  0.1907
97172W        W34666  27.998  16.625  26.051 -0.0478 -0.3114  0.0252
97173W        W34667  34.014   5.725  15.609  0.0889 -0.1173 -0.0400
97174W        W34668  16.769  26.679  21.632  0.2135 -0.1377 -0.0643
97175W        W34669  20.932  18.314   3.977 -0.1326 -0.0184 -0.0469
97176W        W34670   6.302  10.797  17.655 -0.2064  0.2273 -0.0596
97177W        W34671  21.149  26.113   3.369  0.0047 -0.0252  0.0347
97178W        W34672  25.623  23.639   0.897  0.1977  0.0286  0.0367
97179W        W34673  14.678  14.325   4.800 -0.1942 -0.4339  0.0462
97180W        W34674  30.160   8.507  10.132 -0.1448  0.0485 -0.2961
97181W        W34675  15.477  24.876   2.770  0.1417 -0.0594  0.2887
97182W        W34676  26.198  29.222   0.994  0.0356  0.0229  0.2548
97183W        W34677  13.327   6.427   2.894 -0.1997  0.2179 -0.1236
97184W        W34678  31.825  16.519  11.518  0.0333  0.1696 -0.1426
97185W        W34679  16.085   6.493  18.646  0.2270 -0.1591  0.1342
97186W        W34680   9.946  32.505  11.748 -0.0913  0.1811  0.0020
97187W        W34681  10.315  20.826   3.649 -0.0072  0.1535 -0.0539
97188W        W34682  24.973   3.131  20.014  0.0261  0.1831 -0.1591
97189W        W34683  10.661  24.257  15.211  0.1844  0.2269 -0.0329
97190W        W34684  28.820   8.983  14.694 -0.3317 -0.1534  0.0962
97191W        W34685  10.222  24.100   3.182  0.0621 -0.0762 -0.2865
97192W        W34686   1.148  24.231   2.977 -0.0309 -0.5372 -0.2444
97193W        W34687  34.899  26.620   3.743  0.1001 -0.2233  0.2509
97194W        W34688  30.246  20.960  19.123  0.0365 -0.0396  0.2240
97195W        W34689  34.001  17.426   0.553 -0.0578  0.1508 -0.3502
97196W        W34690  33.751   9.282  18.073 -0.0156  0.0861  0.1145
97197W        W34691  14.997  23.311  25.551  0.0552  0.0257 -0.0112
97198W        W34692  21.782   9.225   0.685 -0.0937  0.0967 -0.1085
97199W        W34693  21.386  32.724   1.733  0.2568  0.0240 -0.0875
97200W        W34694   7.997  29.905  13.522  0.2045 -0.1096 -0.1225
97201W        W34695  13.737  10.343   0.646 -0.0671 -0.2700 -0.0443
97202W        W34696  25.094  32.468   3.570  0.0775 -0.2545 -0.1911
97203W        W34697   8.927  28.315   7.234  0.2622 -0.0029  0.1059
97204W        W34698  14.810  22.461   2.228  0.3782 -0.1291  0.1907
97205W        W34699  27.389  27.195  15.398  0.1150  0.1407 -0.2711
97206W        W34700  12.646  32.881  24.752 -0.2079  0.0064  0.2792
97207W        W34701  25.938  33.279  22.783  0.0175  0.1862  0.0707
97208W        W34702  18.194  20.937   4.086 -0.0827  0.0859  0.2440
97209W        W34703  18.431   6.159   4.059  0.0521 -0.4048  0.5127
97210W        W34704  31.963  23.800  22.882  0.3906 -0.0356 -0.2425
97211W        W34705  14.486  13.675  12.690  0.1874  0.2499  0.2930
97212W        W34706  10.931  24.690  15.115 -0.3283 -0.0999  0.0599
97213W        W34707   4.156  28.084   5.577  0.4236 -0.0322 -0.2744
97214W        W34708  31.274  10.183  22.072  0.2156 -0.1649  0.0276
97215W        W34709  34.663  28.518  20.974  0.0799 -0.0117 -0.2672
97216W        W34710   9.336   2.351  13.103  0.0779 -0.0421  0.2765
97217W        W34711  11.864  29.628  23.967  0.1656  0.0911  0.0107
97218W        W34712  29.694  18.714   8.097  0.1085 -0.0298  0.0815
97219W        W34713  28.004  10.716  17.480  0.1100  0.0889  0.2801
97220W        W34714  20.720   6.335  25.006 -0.0890  0.1391 -0.0895
97221W        W34715  17.372  34.512  24.794  0.0056 -0.1578  0.0669
97222W        W34716  16.817   0.377  24.584 -0.1174  0.1613  0.0366
97223W        W34717   3.323  18.198  19.665  0.1327 -0.0595 -0.1289
97224W        W34718  22.477  19.505  19.349  0.1276  0.1156  0.1879
97225W        W34719  19.516  14.428   3.246  0.0319 -0.4360  0.0360
97226W        W34720  25.153  33.052  13.333  0.0854  0.0064  0.1857
97227W        W34721  34.679   8.045   1.847 -0.0363  0.3011  0.1523
97228W        W34722   5.178  10.896   0.864  0.1400  0.2447  0.0920
97229W        W34723  35.139  28.767  18.572 -0.0676  0.1861 -0.2941
97230W        W34724  23.707  13.186  23.184 -0.1647 -0.0552  0.0991
97231W        W34725  31.742   2.181   6.545 -0.0077  0.2966  0.1596
97232W        W34726   7.433  13.444  24.450 -0.1122 -0.0040 -0.0547
97233W        W34727   7.020   4.586  23.043 -0.0631 -0.0612  0.1005
97234W        W34728  33.908  18.317  11.596 -0.0163  0.3955  0.1409
97235W        W34729  20.381  20.338   9.616 -0.1569  0.1055  0.0196
97236W        W34730   0.904  27.199  21.470 -0.0001  0.1406  0.0433
97237W        W34731  35.003   5.955  17.122 -0.0354 -0.3835 -0.1176
97238W        W34732  33.273   2.683  12.724 -0.0354  0.2728 -0.0796
97239W        W34733   8.847  31.778  14.642 -0.1222 -0.0340 -0.0553
97240W        W34734  27.602  30.027  24.997  0.1065 -0.3923 -0.1150
97241W        W34735  19.364  22.348   9.450  0.0279  0.1298  0.1091
97242W        W34736  10.263  24.324   4.512  0.0428 -0.1748 -0.2558
97243W        W34737  24.930   1.127   3.915  0.1858 -0.1149  0.3553
97244W        W34738  30.060  14.326  19.069 -0.1467 -0.1326 -0.0240
97245W        W34739   0.348  13.977  12.966  0.0195 -0.3559 -0.2482
97246W        W34740  25.771  13.068  14.691  0.2238  0.3583 -0.1283
97247W        W34741  34.539  10.219  10.623  0.1797  0.1717  0.3409
97248W        W34742  17.742  11.107  19.092  0.0483  0.4265 -0.0338
97249W        W34743   9.906  19.939  13.540  0.1717  0.0618 -0.0145
97250W        W34744  22.629   9.416  22.796 -0.1742  0.0193  0.0466
97251W        W34745  16.203  20.197   2.918 -0.2028 -0.0379  0.1078
97252W        W34746   0.933   1.540  25.558 -0.0303 -0.0135  0.4258
97253W        W34747  13.547  18.917   0.974  0.4121  0.1024  0.0168
97254W        W34748   8.182  17.513  19.694  0.0230  0.1083 -0.1995
97255W        W34749  29.699  27.804   3.140  0.1519  0.1473  0.0101
97256W        W34750  34.449  26.390  16.645  0.2600 -0.4102 -0.2462
97257W        W34751  32.322   7.586  13.243  0.3497 -0.2222 -0.2774
97258W        W34752  24.350   3.351  16.511  0.2230 -0.0381 -0.1200
97259W        W34753   8.490  21.738   5.936 -0.3730 -0.2920 -0.0576
97260W        W34754  32.825  23.317   7.910 -0.1037 -0.1202 -0.0474
97261W        W34755  13.361   6.453   4.855  0.0349 -0.1669 -0.1777
97262W        W34756   1.715  23.631  14.194  0.2579 -0.1397  0.1348
97263W        W34757   0.218   6.875   1.833  0.0749 -0.0135  0.0750
97264W        W34758  10.289  16.459  25.750  0.0520  0.3941  0.3314
97265W        W34759  12.646  23.992   3.168  0.0654 -0.0876  0.1613
97266W        W34760  33.733  20.464   7.463 -0.3389  0.0362 -0.1110
97267W        W34761  29.682  29.022  19.385  0.0662 -0.0497 -0.0799
97268W        W34762   0.356   9.337  15.076  0.1333  0.1562 -0.0674
97269W        W34763  16.419  22.436  21.599  0.3889 -0.4059  0.0686
97270W        W34764  10.283  20.559   1.839 -0.1127 -0.0856 -0.3471
97271W        W34765  32.861   3.888   3.586  0.0343  0.0921 -0.0049
97272W        W34766  33.418  12.380  21.631  0.2698 -0.0903  0.1668
97273W        W34767  11.282  13.244  13.806  0.2503 -0.4569  0.2764
97274W        W34768  19.030  22.191  23.260  0.2238 -0.2685  0.2047
97275W        W34769  22.249  11.619  25.898  0.0042 -0.0699 -0.2483
97276W        W34770  30.648  11.084  19.171 -0.0650  0.3880 -0.0656
97277W        W34771  26.928  18.703  11.038 -0.0316  0.3210 -0.3907
97278W        W34772   2.527  15.294  20.493 -0.2298 -0.1200 -0.1215
97279W        W34773  19.321  19.548   3.035  0.1008  0.2798 -0.2690
97280W        W34774  32.383  18.971  15.032 -0.1371  0.4085  0.0190
97281W        W34775  13.719  32.001   1.077 -0.1173 -0.3049 -0.0117
97282W        W34776  15.792  18.511  12.477  0.0161  0.2047 -0.0064
97283W        W34777  31.070   3.928   2.234 -0.2613  0.0394  0.0768
97284W        W34778  17.057   5.387  21.230  0.0086  0.2738  0.1820
97285W        W34779  18.536  35.194  17.861 -0.4887  0.3005  0.0190
97286W        W34780  11.442  24.638  16.015  0.0549  0.1607 -0.1910
97287W        W34781  14.531  34.539   1.532 -0.0096 -0.1593  0.1505
97288W        W34782  34.429   7.102  23.475  0.0628  0.3797 -0.1414
97289W        W34783  26.915  20.805  13.626  0.0135  0.1567 -0.0277
97290W        W34784  18.117   2.639  24.207  0.1057  0.1981 -0.0879
97291W        W34785  21.670  28.515  20.896 -0.1211 -0.0382  0.0561
97292W        W34786  13.799  34.516   0.346  0.1088  0.0136  0.0522
97293W        W34787  18.711   9.842   3.600  0.1041  0.0486  0.0370
97294W        W34788  17.866  28.740  26.001 -0.1903 -0.1567  0.1909
97295W        W34789  23.671  20.940  20.141 -0.3888  0.0654  0.0483
97296W        W34790  20.203  17.994   9.188  0.0353  0.1146 -0.3677
97297W        W34791  25.327  22.482  22.413  0.1722  0.2178 -0.2440
97298W        W34792   6.465   4.107   1.486  0.3784  0.1976  0.0305
97299W        W34793  34.714  26.230  15.757 -0.5086 -0.1073 -0.1352
97300W        W34794  30.635   3.405  17.142  0.0034 -0.0271 -0.0359
97301W        W34795  13.360   8.573   5.756  0.1424  0.1567  0.2610
97302W        W34796  27.710  28.836  10.338 -0.1807 -0.0124 -0.0597
97303W        W34797  15.568   1.446   7.172 -0.3821  0.2066  0.1254
97304W        W34798  31.511   3.814  23.760 -0.1035  0.2823 -0.0029
97305W        W34799  29.749  26.253  14.566  0.0075 -0.0975  0.2109
97306W        W34800  26.684  31.767  20.146  0.0162  0.1266  0.2380
97307W        W34801   5.140   9.235   9.282  0.1104 -0.3129 -0.0676
97308W        W34802  29.427  12.984   6.899  0.2494  0.1687 -0.1740
97309W        W34803  16.568  21.970   0.883 -0.2181 -0.2001 -0.1112
97310W        W34804  21.922  34.665  23.908  0.2320  0.1759  0.1747
97311W        W34805  33.270  17.416   7.389  0.1452  0.1522  0.1629
97312W        W34806  13.465  21.862   1.798 -0.1947 -0.1231 -0.0376
97313W        W34807  30.730   7.838  16.119 -0.1162 -0.2708  0.1533
97314W        W34808  15.818  21.244   1.604 -0.1366  0.0866 -0.2148
97315W        W34809  18.515  23.326   2.559 -0.1532  0.0089 -0.3997
97316W        W34810  27.527  31.581  23.023 -0.2387 -0.2918  0.0160
97317W        W34811  15.786   6.612   8.026  0.0567  0.0110  0.1260
97318W        W34812   8.849  17.192   8.994  0.0355  0.0811  0.1058
97319W        W34813  25.664  20.569  24.672  0.2009 -0.0073  0.1629
97320W        W34814   8.735   0.739  23.200  0.0043  0.0836 -0.3476
97321W        W34815  32.988  13.244  13.658 -0.0898  0.0216  0.1341
97322W        W34816   4.981  12.167   2.395 -0.2783  0.0436 -0.2385
97323W        W34817  23.561  30.947  15.191  0.0043  0.5189  0.0784
97324W        W34818  14.337  13.415   7.707  0.0542  0.1862 -0.1635
97325W        W34819  13.144  32.073   6.880  0.1258  0.1115  0.0152
97326W        W34820   1.903   7.094  21.379 -0.2227 -0.1966 -0.0387
97327W        W34821   0.116  21.417  21.107 -0.2773 -0.2181  0.0622
97328W        W34822  15.575  20.974   0.709  0.2081  0.1987 -0.3641
97329W        W34823   1.606  14.299  25.355 -0.2061 -0.0670 -0.0982
97330W        W34824   7.755  23.811  23.208  0.0945 -0.1076  0.1063
97331W        W34825   3.593  30.681   7.678  0.1396 -0.0650 -0.3420
97332W        W34826  34.657  19.026  15.716  0.3012 -0.0078  0.0334
97333W        W34827  17.000  12.923  24.602 -0.0345  0.0342  0.2205
97334W        W34828   0.826  30.102   8.222  0.0774 -0.0410 -0.2625
97335W        W34829   6.743  14.466  17.489  0.1600  0.2088 -0.3641
97336W        W34830  20.894  30.990  21.623  0.4707  0.1994  0.0050
97337W        W34831   2.891  28.259   5.076  0.0034  0.3660  0.1078
97338W        W34832  29.093  10.023  23.781 -0.3030  0.1213  0.1363
97339W        W34833  25.561  17.681  17.336  0.4165 -0.1749  0.0919
97340W        W34834  33.191  29.969  26.104 -0.0879 -0.1240 -0.0201
97341W        W34835  31.068   4.112  21.614  0.1901 -0.2055  0.0285
97342W        W34836  31.354  33.016   2.827  0.2684 -0.0679  0.2200
97343W        W34837  34.948  19.025  19.923  0.0366  0.0115  0.1730
97344W        W34838  28.870  16.399  19.989 -0.0151  0.0302 -0.2852
97345W        W34839  16.307  27.376   6.599  0.4505  0.0839 -0.1256
97346W        W34840  21.765  29.534  21.758  0.2707 -0.2028 -0.0189
97347W        W34841   9.318   8.715   2.202  0.0292 -0.1166  0.3230
97348W        W34842   9.811  31.236  23.608  0.2315  0.0449 -0.1829
97349W        W34843  34.187  27.696  23.130  0.2770 -0.2626 -0.1236
97350W        W34844  19.330  32.106  21.719  0.2958  0.0939  0.0012
97351W        W34845  24.706   5.839   0.874 -0.2394 -0.0800 -0.3099
97352W        W34846  33.306  33.636   4.306 -0.0273  0.5223 -0.1020
97353W        W34847  29.336  16.532   6.970  0.3750  0.2081  0.2966
97354W        W34848   2.723  22.568   5.214  0.0292 -0.1581 -0.4020
97355W        W34849  25.998  27.880  20.809 -0.4529  0.0038  0.2313
97356W        W34850   6.420   8.145  24.546 -0.0175 -0.2441  0.0236
97357W        W34851   3.132  22.651  18.650 -0.1377 -0.0582  0.3347
97358W        W34852  20.048   5.307  19.836  0.1442  0.1420  0.1301
97359W        W34853  11.925  13.873  21.237 -0.1239 -0.0721  0.1724
97360W        W34854  22.349  24.854   3.853  0.0558  0.3242 -0.0398
97361W        W34855  27.223  13.754  18.560  0.0096  0.0608 -0.1290
97362W        W34856  13.883  13.590   3.598  0.1100 -0.1014  0.1810
97363W        W34857   7.571  15.971   7.353  0.1464 -0.1663  0.2246
97364W        W34858   5.907   7.588   0.960  0.1409  0.0249  0.0410
97365W        W34859   6.311  15.376   8.648  0.1171  0.0910 -0.3061
97366W        W34860   4.647  17.394  22.438  0.0803  0.0781  0.1826
97367W        W34861  27.620   6.145  19.624 -0.4885  0.0770  0.1710
97368W        W34862  15.710  12.856   4.033 -0.3449 -0.0487 -0.1648
97369W        W34863  12.660  25.850   2.638 -0.2077  0.0057 -0.4379
97370W        W34864  12.574   8.902  20.249  0.1030  0.3326 -0.1818
97371W        W34865   2.096   3.320   3.188 -0.1945 -0.4311 -0.0368
97372W        W34866   9.608  28.328  17.132 -0.1558  0.2374  0.0471
97373W        W34867  25.087  14.991  10.257  0.0142 -0.0333 -0.2583
97374W        W34868   6.017  28.715  10.155  0.3287 -0.0822  0.0363
97375W        W34869   8.959   6.363   0.863 -0.0359  0.2366 -0.2252
97376W        W34870   3.063  15.390  14.636  0.2692 -0.1162 -0.2658
97377W        W34871   4.574  19.986   3.080 -0.2070 -0.1092  0.3062
97378W        W34872  13.435  27.274  14.151 -0.2729  0.1595 -0.3015
97379W        W34873   3.245   2.293  24.992  0.1455  0.2074  0.1386
97380W        W34874   2.268  27.616   9.211 -0.2171 -0.1266 -0.0614
97381W        W34875  35.181  28.747  22.792  0.1069  0.0407  0.2347
97382W        W34876  29.306   3.693  20.352 -0.2721  0.1254 -0.0969
97383W        W34877  27.649   3.263  17.388 -0.0689  0.1177  0.2512
97384W        W34878  14.182  14.575   4.684 -0.3175  0.1665  0.0834
97385W        W34879  18.737  23.877  12.347 -0.0963 -0.1412 -0.2626
97386W        W34880  30.566  26.042  20.831  0.3489  0.1278 -0.0466
97387W        W34881   3.501  34.495  22.843  0.3642  0.3486  0.1160
97388W        W34882   2.028  16.419  16.235  0.1077 -0.1648  0.3224
97389W        W34883  20.441  33.044  16.287 -0.2889 -0.1809  0.0098
97390W        W34884  30.196  29.685  12.947 -0.3100 -0.1154 -0.1006
97391W        W34885  27.490  12.463  11.080 -0.0299  0.0739 -0.2891
97392W        W34886  10.843  21.746  14.091  0.2449 -0.3480 -0.2105
97393W        W34887   1.858  11.998  23.740 -0.0608 -0.1969 -0.0369
97394W        W34888  19.649   2.274   2.481 -0.0295 -0.0764  0.1560
97395W        W34889  31.510  16.507  11.133 -0.2579  0.0265  0.0726
97396W        W34890  24.228   6.424  22.881  0.1325  0.3594 -0.2447
97397W        W34891   9.253  26.464  14.824  0.0975 -0.2511 -0.1623
97398W        W34892   2.426  21.394  18.145  0.2683  0.2055  0.0234
97399W        W34893   7.942   8.385  22.392 -0.0383 -0.1515 -0.1802
97400W        W34894  15.552   7.682  25.787 -0.0209  0.1595  0.1893
97401W        W34895  11.172  24.602  23.339 -0.0811 -0.1167  0.1293
97402W        W34896  28.462  21.254  12.800 -0.1506 -0.0664  0.2838
97403W        W34897  27.837   1.486   3.652 -0.0069  0.0765  0.2001
97404W        W34898  22.297  35.256  24.061  0.0359 -0.1782 -0.3263
97405W        W34899  26.513   8.843  23.261  0.0298 -0.2774  0.0609
97406W        W34900  23.553   8.705  13.453 -0.0177  0.0650 -0.1134
97407W        W34901  15.968  13.460  22.141  0.1854  0.0020  0.1270
97408W        W34902  17.652  12.772   4.407  0.2062 -0.3513 -0.1181
97409W        W34903  11.909  30.816   9.203  0.0498  0.4117  0.0612
97410W        W34904  17.822   1.914   4.878 -0.0630  0.0452  0.4780
97411W        W34905  13.870  24.289  12.570  0.1620 -0.1703  0.2222
97412W        W34906  24.065   1.726  24.108  0.0254  0.0547  0.4306
97413W        W34907  25.092  19.303  10.186  0.2281 -0.3726  0.1135
97414W        W34908   7.684  18.910   5.512 -0.1518  0.1845  0.3084
97415W        W34909  20.601   0.914  23.339  0.2117  0.1965  0.3111
97416W        W34910  30.013  17.307  16.617  0.1987  0.0853 -0.0194
97417W        W34911  11.272  25.208  10.312  0.2378  0.2046  0.0359
97418W        W34912  25.134  33.214  22.050 -0.0679 -0.2876 -0.0752
97419W        W34913   6.905  12.513  25.533 -0.3956  0.2352  0.3409
97420W        W34914  14.701   4.189  20.636 -0.1664 -0.1176 -0.3017
97421W        W34915  30.571   4.446   3.859  0.1243  0.0037 -0.0787
97422W        W34916  31.302  11.153   0.604 -0.2675  0.1493  0.1019
97423W        W34917  32.722  15.305  20.360  0.0290  0.4524 -0.0018
97424W        W34918  28.271  21.397   4.890 -0.0163  0.0510  0.1509
97425W        W34919  15.886  21.782   8.044 -0.0047 -0.1397 -0.2583
97426W        W34920   9.555   6.469   8.059  0.3549  0.2462  0.0011
97427W        W34921  27.706   0.118  23.227  0.0894 -0.3359  0.2912
97428W        W34922  18.440  11.183  22.549 -0.3072  0.2669 -0.2473
97429W        W34923  14.625  10.941   9.783  0.0395 -0.0617  0.1646
97430W        W34924  21.729  27.324  19.402  0.0987 -0.2592 -0.1433
97431W        W34925  13.606  22.223   3.237 -0.2468  0.0667  0.4448
97432W        W34926   9.182  32.801   6.049 -0.1876 -0.1498  0.1266
97433W        W34927   4.626  15.058   4.937  0.1260  0.1606 -0.2067
97434W        W34928  21.524   5.202   8.888  0.0969  0.0963  0.1327
97435W        W34929  18.248  32.862   1.054  0.1286  0.0443 -0.3016
97436W        W34930  27.311   0.420  18.806 -0.3192 -0.0777  0.0233
97437W        W34931   5.065  26.136  21.912  0.1713  0.0067 -0.3105
97438W        W34932  26.163   1.600  23.313 -0.3135 -0.0337  0.3899
97439W        W34933  12.330  11.485   6.933 -0.2559 -0.1394  0.1084
97440W        W34934   0.982   1.386   1.239 -0.1198  0.1019  0.1856
97441W        W34935  30.011  30.978  12.947  0.0792  0.0005 -0.1973
97442W        W34936   8.035   3.167   7.289 -0.0421  0.0730 -0.1062
97443W        W34937   7.393   0.121  20.690 -0.5894 -0.2735 -0.2457
97444W        W34938  19.856  29.828  22.389  0.2938 -0.0366  0.1288
97445W        W34939   9.682  21.480   9.451 -0.3822 -0.0069  0.2118
97446W        W34940  13.346  33.394  10.453 -0.0233  0.0548 -0.3335
97447W        W34941  25.015  14.042   1.708  0.2011  0.0705  0.1514
97448W        W34942  24.816  25.138  13.316 -0.0255  0.1655 -0.0784
97449W        W34943   2.886  12.849   5.230  0.1036 -0.0995  0.1568
97450W        W34944  30.565  12.420  19.339 -0.2990 -0.2068 -0.1608
97451W        W34945  30.700  27.314  20.802 -0.1965  0.0490 -0.1271
97452W        W34946  23.842  11.869  12.964  0.2603 -0.1332 -0.6156
97453W        W34947  29.124  18.100  25.229 -0.0838  0.0249 -0.2711
97454W        W34948  14.850  23.207  22.380  0.2824  0.1721 -0.0378
97455W        W34949  34.938  28.232  25.376 -0.1579 -0.1034 -0.3003
97456W        W34950  32.865   1.321  22.892 -0.1797  0.2353 -0.0657
97457W        W34951  11.319   3.881   2.046 -0.1376  0.1130  0.1970
97458W        W34952  26.549  14.231  22.839 -0.2479  0.0178  0.4738
97459W        W34953  25.243   7.864  24.096 -0.0418 -0.0591 -0.2150
97460W        W34954   5.305  32.441   7.704  0.0777  0.0856 -0.2848
97461W        W34955  21.970  25.987   6.792 -0.2069  0.0439  0.2864
97462W        W34956   7.753  16.006   1.067  0.4424 -0.3232 -0.0499
97463W        W34957  11.087   9.510  22.052  0.0145  0.1286 -0.2245
97464W        W34958  34.863   4.552  21.422 -0.2011  0.0790  0.2768
97465W        W34959  10.316   5.093   8.843  0.2100  0.0729 -0.0780
97466W        W34960   1.028   8.871  23.070 -0.2959  0.0991  0.0537
97467W        W34961   3.241   5.960  19.074  0.0404 -0.1229  0.1566
97468W        W34962  21.662  24.284   2.000  0.0689  0.1970  0.3045
97469W        W34963   8.671  30.162   3.939  0.0897 -0.0874  0.0434
97470W        W34964  14.911  17.840  13.189  0.0652 -0.1138 -0.1163
97471W        W34965  33.848  28.939  24.949  0.2101  0.2729  0.0342
97472W        W34966  24.320  26.650  18.828 -0.1836 -0.0033  0.2526
97473W        W34967   6.728  28.108   8.646  0.1142 -0.0495  0.3578
97474W        W34968  13.455  10.485   1.045  0.0293 -0.1086  0.1287
97475W        W34969  18.487  23.829   3.954 -0.1499 -0.2147 -0.4013
97476W        W34970  13.889   5.385   8.033  0.0295  0.0035  0.0388
97477W        W34971  16.463  35.294   8.292  0.0976 -0.1999 -0.2187
97478W        W34972   1.638  34.955   1.236 -0.0326 -0.2933  0.0287
97479W        W34973   3.094  10.239  25.637 -0.0278 -0.5048  0.0371
97480W        W34974   5.741  17.138   5.331 -0.0931  0.0167 -0.1005
97481W        W34975  33.551   3.643  12.556  0.5198 -0.1593  0.1558
97482W        W34976  27.013  13.288  24.454  0.1582 -0.2703  0.1352
97483W        W34977  25.185  30.436   0.622 -0.1532  0.2294  0.0230
97484W        W34978   8.529   5.806  20.807  0.2064  0.2546  0.0900
97485W        W34979  33.768   7.852  25.191  0.0942 -0.1402 -0.0474
97486W        W34980   8.549  12.645   3.461 -0.1637  0.1014 -0.1585
97487W        W34981   8.135  10.446   9.984  0.0204 -0.0887  0.2454
97488W        W34982  33.477  14.534   9.185  0.1391  0.0410 -0.0721
97489W        W34983  26.931   6.561  15.223  0.0005 -0.0003 -0.0073
97490W        W34984   0.603  16.293  13.391 -0.1233 -0.0660  0.0564
97491W        W34985  30.142  16.661   0.023 -0.3114  0.1958 -0.3559
97492W        W34986  15.176  25.340   1.364  0.1389  0.4696  0.0121
97493W        W34987   6.846   1.575   4.877  0.0866  0.3870 -0.2480
97494W        W34988  23.519  25.314  22.292  0.2044  0.2650  0.1616
97495W        W34989  14.449   0.226   6.549 -0.0251  0.2561 -0.2010
97496W        W34990  24.906  19.391  15.633 -0.2774  0.0548  0.1536
97497W        W34991  10.186   2.476   4.774 -0.4714 -0.0845  0.1820
97498W        W34992  17.185   8.608   2.659  0.2090  0.1464 -0.0265
97499W        W34993  28.451  19.342  24.888  0.2730 -0.1625 -0.0250
97500W        W34994  16.773  32.755   5.420  0.1323  0.0380  0.0592
97501W        W34995   3.008   5.869  24.443  0.1482 -0.2326 -0.0063
97502W        W34996  10.712  23.637  10.259  0.2065 -0.2238  0.1555
97503W        W34997  17.686   5.345   7.409 -0.0579  0.0969  0.1214
97504W        W34998   2.035  34.227  20.511  0.1100  0.0536 -0.0651
97505W        W34999  29.765  18.223   4.291  0.0645 -0.0605 -0.0784
97506W        W35000  34.961  30.596  18.733 -0.0315  0.2228  0.3519
97507W        W35001   8.008  15.842   5.272 -0.0294  0.0511  0.1252
97508W        W35002   4.853  10.991  23.328  0.1429  0.1011  0.0573
97509W        W35003  23.405  29.655  11.546 -0.3738 -0.2614  0.1708
97510W        W35004  31.676  18.596  26.217  0.2594 -0.1843 -0.1556
97511W        W35005  14.203   8.638   5.379  0.0299 -0.2880  0.1096
97512W        W35006  34.527  22.434  12.399 -0.0046 -0.0183  0.2667
97513W        W35007  15.208  24.897   3.212 -0.0416  0.0536 -0.1372
97514W        W35008  20.943   7.329  23.713 -0.3673  0.0523  0.0158
97515W        W35009   0.801   6.209   5.225  0.0981 -0.1240  0.1985
97516W        W35010  22.495  34.148  25.229 -0.2918 -0.1744  0.2763
97517W        W35011   7.025  18.706  22.575  0.2778  0.1634  0.0754
97518W        W35012  31.146   2.790   6.207 -0.2775 -0.0328 -0.0541
97519W        W35013  22.499  27.836  25.832 -0.1051 -0.1356 -0.2141
97520W        W35014  33.463   0.745   6.936 -0.1080  0.0182 -0.3248
97521W        W35015   7.106  14.414   7.093 -0.2326  0.0567 -0.0865
97522W        W35016  18.405  22.801   2.559  0.3272 -0.1688 -0.1722
97523W        W35017  14.134  26.893   2.566 -0.0615  0.2546 -0.0324
97524W        W35018  31.180  31.715  24.122  0.1681 -0.1169  0.0850
97525W        W35019  15.061  34.094  23.484  0.1451 -0.3286  0.0860
97526W        W35020   3.591  26.172   3.261  0.0804  0.3566  0.1869
97527W        W35021   9.560   1.364   6.502  0.1043 -0.1835  0.2835
97528W        W35022  12.572  19.284   2.852  0.0234  0.0931 -0.0710
97529W        W35023  13.228   4.609   0.919 -0.1139  0.1086  0.0714
97530W        W35024   0.530  19.902  20.881  0.0155 -0.2114 -0.0811
97531W        W35025  13.026  28.477   3.722 -0.2432 -0.0831 -0.0753
97532W        W35026   0.025  24.033  24.601  0.0708  0.0802 -0.2106
97533W        W35027   2.225  11.058  25.202  0.2138  0.1311  0.1957
97534W        W35028   0.727  35.088  20.357  0.0100  0.2703  0.4059
97535W        W35029  12.271  22.107   4.345 -0.4594 -0.1686 -0.0920
97536W        W35030   3.102  20.698  14.037  0.0371 -0.1409 -0.1508
97537W        W35031  28.189   3.653  11.296  0.0121  0.0905  0.1232
97538W        W35032  18.771  31.037  24.271  0.1194  0.2503  0.0927
97539W        W35033   7.407   3.827   1.707  0.1326  0.2694 -0.1438
97540W        W35034   6.264  24.370  21.502  0.0044 -0.0508 -0.0751
97541W        W35035   4.672  24.393   8.646 -0.0544 -0.0237  0.0529
97542W        W35036  34.507  21.107  19.423  0.0392 -0.0052  0.1851
97543W        W35037  13.112   8.004   2.332 -0.0910  0.3230 -0.3833
97544W        W35038  10.616   3.244   1.622  0.0211 -0.1103  0.1836
97545W        W35039  13.894  15.883  23.208 -0.1727  0.3493 -0.0999
97546W        W35040  15.993  21.847   3.435  0.1791  0.2491  0.0090
97547W        W35041   0.864  12.836  21.745  0.3670 -0.0715 -0.0034
97548W        W35042  33.138  34.510  21.087  0.0341 -0.1211  0.1195
97549W        W35043  13.398  24.992  22.730 -0.0450  0.1051 -0.3298
97550W        W35044  35.146  31.021   6.150 -0.0931  0.1059  0.0421
97551W        W35045  20.484   3.172  16.005 -0.1251 -0.0049 -0.2789
97552W        W35046  28.620  10.937  19.187 -0.0814  0.5198  0.2421
97553W        W35047  10.294  32.763   8.020  0.0822  0.0284  0.0687
97554W        W35048   0.527  19.221  17.631  0.0160  0.0078 -0.2979
97555W        W35049  25.874  18.168  12.178 -0.0303  0.2701 -0.0589
97556W        W35050   8.876  29.762  10.942 -0.0288 -0.1630 -0.0623
97557W        W35051  32.650   5.719  17.754  0.0254  0.1404 -0.0664
97558W        W35052  27.188  18.478  21.088  0.3198 -0.1420 -0.0663
97559W        W35053  25.802  34.536  24.490  0.2261 -0.0546  0.2369
97560W        W35054  20.959   6.618   2.991 -0.0159  0.1183  0.0995
97561W        W35055  31.346  17.977   5.309  0.0943 -0.2049  0.0842
97562W        W35056  25.376  16.570   6.877  0.1310  0.1255  0.2556
97563W        W35057  30.891  31.346  11.212  0.0422 -0.1917 -0.2673
97564W        W35058  13.144  29.562  16.475 -0.1128 -0.0061  0.0093
97565W        W35059  32.011   4.000  20.035 -0.0994 -0.1743 -0.2529
97566W        W35060  34.727  22.784  14.144  0.1635  0.0115  0.2022
97567W        W35061  14.774  19.458   7.459  0.1368  0.2427 -0.0624
97568W        W35062   3.237  13.030   4.214  0.0493 -0.1638 -0.3701
97569W        W35063  23.327  10.844   1.614 -0.1054 -0.4672  0.0812
97570W        W35064  28.579  21.916  17.993 -0.1647  0.0236 -0.0891
97571W        W35065  29.091   3.509  14.959 -0.2762 -0.0532  0.1399
97572W        W35066  13.248  20.832   5.013  0.0464 -0.0938  0.2885
97573W        W35067   9.248  20.460   6.266  0.3283  0.2256  0.2707
97574W        W35068  12.124  13.632   5.921  0.1672 -0.2074  0.4026
97575W        W35069  28.293  15.739  12.935 -0.0306 -0.0878 -0.0662
97576W        W35070  25.566  16.429  24.341  0.1312  0.3263  0.0718
97577W        W35071  22.370  20.334   3.115 -0.0097 -0.1060 -0.0802
97578W        W35072  31.406  28.819  11.133  0.1394 -0.1266 -0.1533
97579W        W35073  34.422  31.189  13.566  0.2548  0.1383  0.1211
97580W        W35074  13.673  27.754   4.633 -0.1006  0.0434 -0.3057
97581W        W35075   8.267   6.618  21.997  0.1749  0.1993  0.2425
97582W        W35076  22.502  22.716  23.494 -0.1373  0.0940  0.2352
97583W        W35077  14.438  30.720  25.065  0.1177  0.3546 -0.3376
97584W        W35078  18.442  13.168  24.448  0.0206 -0.0232 -0.0052
97585W        W35079   3.573  30.336   2.761 -0.1701  0.2319 -0.0821
97586W        W35080   8.071  29.624  15.010 -0.0934 -0.3226  0.4181
97587W        W35081  20.222  32.878  17.286 -0.2292 -0.2596  0.2231
97588W        W35082  30.181  14.178  12.982  0.0766 -0.1498 -0.2967
97589W        W35083  27.564  18.746  17.011  0.0283 -0.1761 -0.2162
97590W        W35084   9.538   9.199   8.853  0.1605  0.0603  0.3378
97591W        W35085  26.741  28.975   3.862  0.2566  0.1075  0.2154
97592W        W35086  26.511  11.003  21.064  0.1809  0.0093  0.0836
97593W        W35087   0.540  24.147  25.697  0.0889  0.4511 -0.0848
97594W        W35088   8.448  14.263   8.410 -0.0689  0.0890 -0.2990
97595W        W35089  21.341  30.374  19.248 -0.2651  0.2569  0.2264
97596W        W35090  30.329   4.050  14.719  0.0867  0.1164 -0.1558
97597W        W35091   6.656   9.396  11.185 -0.0701  0.0035 -0.0011
97598W        W35092   6.746  20.425  22.889  0.0964  0.1384  0.0113
97599W        W35093  20.772   1.228   4.245  0.1269 -0.0008 -0.1072
97600W        W35094  31.007   0.922  19.178  0.2017  0.0504  0.2194
97601W        W35095   5.091   2.508  24.307 -0.3192 -0.2439  0.0194
97602W        W35096   0.449   9.472   2.582 -0.5374 -0.2876  0.1128
97603W        W35097  18.916  18.067   8.214  0.0555 -0.0334  0.1751
97604W        W35098   6.920   1.162  20.006 -0.2973  0.1467  0.1019
97605W        W35099  10.835  30.585  13.464 -0.0410  0.1133 -0.1601
97606W        W35100  33.102  20.819  16.209  0.0801 -0.2608 -0.0018
97607W        W35101   3.428  34.837  19.649 -0.1404 -0.0291  0.2987
97608W        W35102   4.816   6.765   7.779  0.0105  0.2271 -0.2681
97609W        W35103   0.481  10.737  13.277  0.3264  0.1934 -0.1208
97610W        W35104  34.018  23.932  24.123 -0.0657 -0.0360  0.0160
97611W        W35105  21.511  15.803  18.322 -0.1626 -0.1236 -0.3539
97612W        W35106  32.742  31.151  23.340 -0.0801  0.1172  0.1942
97613W        W35107   3.345  29.576   1.378 -0.2006 -0.0284 -0.0253
97614W        W35108  11.234  25.274   1.344  0.2798 -0.0002  0.0864
97615W        W35109  21.247  33.274  14.257  0.0269 -0.1251 -0.0958
97616W        W35110  29.305  19.302  11.803  0.2026  0.1007  0.1058
97617W        W35111  11.475  12.090  10.273 -0.1421  0.4689 -0.2640
97618W        W35112  24.298   6.039  21.668 -0.0890  0.0682  0.0051
97619W        W35113   2.466   2.519   7.460  0.3900 -0.0735 -0.1042
97620W        W35114   5.880   0.000  10.608  0.0589 -0.0755  0.0463
97621W        W35115   5.407  19.148   2.570  0.1621 -0.1021  0.1868
97622W        W35116  31.216  34.841  23.953  0.0683 -0.0225  0.0456
97623W        W35117  18.885  35.339  17.141  0.1988 -0.1138 -0.0138
97624W        W35118   5.587  14.781  19.438 -0.0304 -0.0441 -0.4045
97625W        W35119  21.900  24.959   0.085  0.1329  0.0023  0.2046
97626W        W35120  10.449  19.915  22.597  0.2359 -0.0844 -0.0413
97627W        W35121  24.322  13.912  18.621  0.0852 -0.2375  0.0688
97628W        W35122  32.779  17.804   9.688 -0.0508 -0.2709  0.1678
97629W        W35123  13.418   0.821  25.676 -0.2645 -0.0070 -0.0384
97630W        W35124  31.792  19.509   5.452  0.0615 -0.1447 -0.0087
97631W        W35125  21.621  19.198  25.267 -0.3006  0.0561 -0.0723
97632W        W35126  17.624  12.290  23.875  0.1858  0.0321 -0.1790
97633W        W35127   7.736   3.994  10.499 -0.2020 -0.2500  0.0688
97634W        W35128  34.636  28.580  18.522 -0.1253  0.2835 -0.1154
97635W        W35129  12.417   8.846   6.806  0.1857  0.0145 -0.2536
97636W        W35130  33.413  20.830  13.680 -0.1025  0.0011  0.2735
97637W        W35131  13.440   2.407  23.755 -0.3874 -0.0538  0.2649
97638W        W35132  16.345  13.010  10.086  0.2571 -0.0459  0.1404
97639W        W35133  33.613  21.912  18.891 -0.0255 -0.2327  0.0359
97640W        W35134   6.769   9.767   3.673  0.1026  0.0050  0.0791
97641W        W35135  27.812  18.016  19.820  0.1181 -0.1713  0.2559
97642W        W35136  23.757  34.334  14.272 -0.1754  0.1303  0.2474
97643W        W35137  17.788  25.928   0.209 -0.0287  0.0316 -0.0933
97644W        W35138  33.478   3.761  16.120 -0.2957  0.1692  0.0454
97645W        W35139  20.258  23.423   8.231 -0.0912 -0.2282  0.2485
97646W        W35140  27.784  23.772  16.095  0.1244 -0.2859 -0.0690
97647W        W35141  31.296   3.827  21.933 -0.2028 -0.0642 -0.1990
97648W        W35142  13.150   4.920   7.018 -0.0422  0.0804 -0.0748
97649W        W35143  33.673   7.059  22.978 -0.3279  0.0958 -0.0214
97650W        W35144   3.268  26.210  25.555 -0.2734  0.1000 -0.0189
97651W        W35145  17.519  17.919   0.362  0.1781  0.0894 -0.2011
97652W        W35146  30.531  21.308   9.016  0.1175 -0.1957  0.3337
97653W        W35147  32.334  23.519  12.454  0.0482  0.0839 -0.1508
97654W        W35148  29.722  10.833  18.799 -0.0957 -0.0573 -0.3717
97655W        W35149  30.075  19.581  14.965 -0.1081 -0.1566 -0.0157
97656W        W35150  15.511  15.092  20.530 -0.0256  0.1779 -0.1165
97657W        W35151  25.847  14.720  10.041  0.2734 -0.1954 -0.4209
97658W        W35152  10.597   4.280   7.470 -0.0005  0.1137 -0.0589
97659W        W35153  18.703  23.116  13.094 -0.0941  0.0207 -0.1184
97660W        W35154  10.536  11.900  22.690 -0.0150  0.1112  0.2791
97661W        W35155  33.335  34.713  20.124 -0.0284  0.2449  0.0200
97662W        W35156   7.321  30.160  25.265 -0.2354 -0.0588  0.2235
97663W        W35157  24.077  21.448  23.695 -0.2753 -0.0656  0.0483
97664W        W35158  27.661  19.703   7.478 -0.1350 -0.1461  0.0158
97665W        W35159  14.596   8.972   3.140 -0.3165  0.3414 -0.0823
97666W        W35160  11.831  26.991  13.535  0.0383  0.0706 -0.2158
97667W        W35161  27.162  15.620   4.331  0.0730 -0.0446 -0.3435
97668W        W35162  15.888  17.380  21.158  0.1183 -0.2854  0.1010
97669W        W35163  18.062   2.509   0.353  0.2019  0.2499 -0.1622
97670W        W35164   5.832  35.204  13.826  0.1209 -0.2643 -0.1822
97671W        W35165   4.408  13.540   0.581  0.0939  0.2193 -0.1506
97672W        W35166   9.713  24.630  22.491 -0.1348  0.0351  0.1166
97673W        W35167  34.453   8.685  18.465 -0.3519 -0.1494 -0.2170
97674W        W35168  34.765  21.915  18.163  0.1228 -0.1222  0.2271
97675W        W35169   0.458  21.206  17.395 -0.1269  0.2226 -0.3947
97676W        W35170  18.773  31.749   0.593  0.2276  0.1954  0.2892
97677W        W35171  17.250  17.472   8.260  0.1437 -0.0187 -0.0032
97678W        W35172  32.507   3.411  24.530 -0.1283 -0.0226 -0.1496
97679W        W35173  15.085  27.647  14.661 -0.2717 -0.1805  0.0485
97680W        W35174  29.219  33.696  23.077  0.1074  0.3762  0.3620
97681W        W35175  35.210  13.546  22.314 -0.4048  0.3648  0.0302
97682W        W35176   6.078  32.221   9.795 -0.0306  0.1220 -0.0553
97683W        W35177  18.634   4.105  20.190 -0.0406  0.3890  0.1749
97684W        W35178  28.274  34.789  14.149 -0.1137  0.2097  0.0112
97685W        W35179  29.238   6.945  24.586 -0.0445 -0.0837 -0.0371
97686W        W35180  24.494  17.124  14.743  0.0852 -0.1472 -0.2997
97687W        W35181  30.137  14.097  26.098  0.1179 -0.0311 -0.0881
97688W        W35182  13.963  32.243   6.214 -0.3853  0.1317  0.0260
97689W        W35183  27.554  34.712  19.621 -0.0913  0.2030 -0.3179
97690W        W35184   5.794  30.129   2.279  0.0291  0.0163 -0.0288
97691W        W35185  10.202  33.686  26.069  0.2253  0.0968  0.0425
97692W        W35186   3.163  27.571  18.641 -0.2736  0.3467  0.1354
97693W        W35187  17.222  28.075  24.089  0.1873 -0.0422  0.2421
97694W        W35188   7.501   7.345   2.424  0.1187 -0.0646  0.1038
97695W        W35189  13.055  13.766   2.148 -0.1827  0.2609  0.2577
97696W        W35190   0.689  17.417  23.760 -0.1089 -0.0693 -0.0228
97697W        W35191  15.916  30.987   1.414  0.0300 -0.0823  0.0538
97698W        W35192  12.829  21.792   5.843  0.2265 -0.1465  0.1905
97699W        W35193  12.231   8.654  10.981  0.0086 -0.4014  0.0421
97700W        W35194   9.481  30.077  16.121  0.0156 -0.1136  0.0434
97701W        W35195  19.862  24.483   3.619 -0.1663 -0.2530  0.2130
97702W        W35196  15.028   1.349  20.906 -0.0572  0.0983 -0.1533
97703W        W35197  25.212   2.614  20.887  0.2368  0.0179 -0.2280
97704W        W35198   4.395  12.396  16.400 -0.0433 -0.1814  0.0845
97705W        W35199   0.300  29.035  23.873 -0.0532  0.0747  0.2885
97706W        W35200   6.002  23.069  24.668 -0.3211 -0.0814 -0.2820
97707W        W35201  28.466   8.221  25.555 -0.1649  0.0030 -0.1952
97708W        W35202  25.028  13.084  13.147 -0.0586 -0.2097  0.1187
97709W        W35203  14.407  20.867  12.964  0.2279 -0.1246 -0.0936
97710W        W35204  25.019  21.966  17.307  0.1307 -0.3859 -0.0173
97711W        W35205  13.714  25.043   0.200  0.0701 -0.2446 -0.4487
97712W        W35206  27.625  29.873  18.237  0.0225  0.1648  0.3629
97713W        W35207  22.155  15.133  15.361 -0.1630  0.2883  0.1703
97714W        W35208  34.019   0.518  14.698 -0.1291 -0.1256  0.0393
97715W        W35209  14.630  24.075  16.719  0.1049  0.2206 -0.0113
97716W        W35210   6.517   4.641  18.728 -0.1196 -0.0179  0.1703
97717W        W35211   3.886   4.094  22.501 -0.0040 -0.1417  0.1347
97718W        W35212  32.721   6.985  16.838 -0.2589 -0.1109 -0.0748
97719W        W35213   0.334  17.275  21.981  0.0476 -0.2906  0.3507
97720W        W35214  22.278  33.627   7.631  0.1514  0.0882  0.0126
97721W        W35215   4.878   2.189   5.936 -0.0754  0.0967  0.1576
97722W        W35216   4.380  13.040   6.070  0.0048 -0.0961 -0.3607
97723W        W35217   0.998   4.794  23.629 -0.1215 -0.1271  0.1505
97724W        W35218   2.665  11.428  17.285  0.2562  0.3356 -0.4441
97725W        W35219  22.133  17.504  25.007  0.4076 -0.1855 -0.0048
97726W        W35220  14.062  28.883   5.091  0.2525 -0.2028 -0.3201
97727W        W35221  27.164  28.003  22.070  0.0434 -0.0528  0.4068
97728W        W35222   9.496  26.204   6.657  0.5305 -0.1438  0.0795
97729W        W35223  28.498   9.728   8.338  0.0797 -0.0644 -0.0866
97730W        W35224  25.469  21.742  21.767  0.3002 -0.5009  0.3655
97731W        W35225  19.493  16.278  10.484  0.1611  0.1635 -0.1628
97732W        W35226  26.558  26.819   1.520 -0.0421 -0.3258  0.1445
97733W        W35227   8.666  20.031   9.741 -0.0430 -0.1756  0.2493
97734W        W35228  17.650  20.456   9.260 -0.1420  0.2005  0.0199
97735W        W35229  10.052   4.533   5.678 -0.1885 -0.0803  0.0739
97736W        W35230  11.155   0.109   7.327 -0.1246  0.2581  0.4109
97737W        W35231   9.686  34.424  24.849 -0.1866  0.1717 -0.1652
97738W        W35232   2.095   1.192   9.603 -0.0073  0.3711  0.1220
97739W        W35233   8.427  28.454  14.589 -0.1243 -0.2632 -0.2467
97740W        W35234  17.688  13.764  11.179 -0.0697  0.0516 -0.2913
97741W        W35235  30.361   8.113  10.580  0.1503  0.2298  0.1546
97742W        W35236  28.654  35.091  25.390 -0.0431 -0.0526 -0.0515
97743W        W35237  30.971  15.524  16.505 -0.1080 -0.0115  0.0472
97744W        W35238   8.189  26.595   1.056 -0.0277 -0.1640 -0.0770
97745W        W35239  12.423  29.800   4.448  0.0713  0.0738  0.0861
97746W        W35240   5.502  32.179   4.177 -0.0385 -0.0159  0.1251
97747W        W35241  28.791  30.170  10.086 -0.0215  0.1966  0.0506
97748W        W35242  31.711  11.721  16.082  0.0166  0.0801  0.0471
97749W        W35243   1.203  14.984  22.505  0.0531  0.4256 -0.0093
97750W        W35244  19.361   8.336  17.470 -0.1527 -0.0576 -0.1722
97751W        W35245  13.692  10.031  11.575  0.0173  0.0889 -0.0325
97752W        W35246  34.754  26.420   4.621 -0.0150 -0.1368 -0.2111
97753W        W35247  14.105  26.597  10.550 -0.0113  0.0709 -0.0046
97754W        W35248  28.313  23.536  23.477 -0.0775  0.4511 -0.0530
97755W        W35249  18.232  22.953  11.134  0.3119 -0.0338 -0.3719
97756W        W35250  18.833  13.447   0.436  0.0274  0.0685 -0.1114
97757W        W35251  32.231  29.881  18.143  0.0564 -0.0332 -0.1467
97758W        W35252  22.880  27.347  14.695  0.0746 -0.1075 -0.1643
97759W        W35253  14.613  32.414   2.707 -0.0579 -0.0497  0.1808
97760W        W35254  27.799  24.506  23.210 -0.2876 -0.3144 -0.0643
97761W        W35255  13.658  15.974   4.976 -0.2714 -0.0632 -0.5027
97762W        W35256  15.616   2.287   6.723  0.0996 -0.4470  0.2344
97763W        W35257   4.314  16.873  23.847 -0.2217 -0.0539 -0.1408
97764W        W35258  11.189  24.521  13.914  0.1244  0.1907  0.1269
97765W        W35259   5.210  16.272  18.620 -0.1026  0.0028  0.2969
97766W        W35260  22.853  12.854   2.142  0.2509  0.0327  0.0329
97767W        W35261  19.767  22.569   8.464 -0.1320 -0.0434  0.2207
97768W        W35262  16.366   0.885  17.210 -0.1653  0.0275  0.0204
97769W        W35263  11.459  20.558  14.834 -0.0997 -0.2699  0.0251
97770W        W35264   2.046   1.526   3.934 -0.1022  0.0418  0.0008
97771W        W35265  19.571   0.091  24.270  0.0317  0.0883  0.2520
97772W        W35266  15.392  32.529   7.008  0.1646 -0.0993 -0.0050
97773W        W35267  17.895  29.712  22.024 -0.2528 -0.4487 -0.2706
97774W        W35268  15.206  26.347   2.592 -0.0228 -0.0307 -0.0838
97775W        W35269  25.182  10.289   1.293  0.2059  0.0046  0.2324
97776W        W35270  33.631  12.609   7.150 -0.1650 -0.1032  0.1130
97777W        W35271  25.617  20.047  19.479  0.0527  0.1378 -0.2289
97778W        W35272  23.123  25.571  23.836  0.1855  0.1549  0.1691
97779W        W35273  30.870  13.303  10.203  0.0860 -0.0959  0.3237
97780W        W35274  30.851   0.839  24.139  0.1346  0.1499 -0.0362
97781W        W35275   3.601   0.047   7.232  0.2739  0.2123  0.2021
97782W        W35276  17.582   6.538  21.550  0.4001 -0.1395 -0.2628
97783W        W35277  34.546   4.782  16.130  0.2441  0.2782  0.0874
97784W        W35278   1.744  23.708  26.015 -0.2978 -0.0020 -0.2356
97785W        W35279  31.894  25.579  20.714 -0.1400 -0.1267  0.1828
97786W        W35280  10.846  13.319   7.265 -0.2872  0.3179 -0.3349
97787W        W35281  10.318  25.018  25.737 -0.0616 -0.0110  0.1048
97788W        W35282  11.714  27.650  15.175  0.2027  0.2292 -0.2912
97789W        W35283  12.837  12.160  20.531 -0.0526 -0.2258  0.2505
97790W        W35284  21.324   1.451   4.403  0.0448  0.2597 -0.0541
97791W        W35285  23.085  34.689  20.040  0.0761  0.1499 -0.1389
97792W        W35286  31.849  25.287  26.195  0.0605  0.2684 -0.0049
97793W        W35287   4.666  31.435   2.131 -0.1158  0.2551  0.2731
97794W        W35288  25.253  15.118  22.601 -0.0601 -0.2369  0.0681
97795W        W35289  33.790  10.092   0.586  0.0264 -0.0245 -0.3925
97796W        W35290  24.275  32.941  25.517 -0.4218  0.3897  0.2484
97797W        W35291  13.975   6.529   0.620  0.1118  0.0311  0.0057
97798W        W35292  17.968  18.314  21.747  0.3044 -0.1151 -0.1300
97799W        W35293  14.557   3.405  18.859 -0.2367 -0.0729  0.0527
97800W        W35294  14.995   1.811  10.134 -0.2472 -0.1643  0.1243
97801W        W35295  10.293  28.858   3.402  0.1157  0.1192 -0.3510
97802W        W35296   3.381  13.320   4.605 -0.3107  0.2190 -0.0019
97803W        W35297   7.933   1.996   6.207 -0.0578 -0.1530 -0.1225
97804W        W35298  10.828  30.820  15.164  0.3250  0.2515 -0.1577
97805W        W35299  19.481   0.132  19.142  0.3220  0.2213  0.0619
97806W        W35300  25.296   6.788   3.206 -0.0492  0.0020 -0.0850
97807W        W35301  23.417  35.305  16.335 -0.3186  0.3262 -0.0212
97808W        W35302  27.456  25.135  25.019 -0.3362 -0.0173  0.1472
97809W        W35303  17.591  20.960  10.849  0.2780  0.2028 -0.1160
97810W        W35304  13.568   3.823   4.700 -0.1670  0.2610 -0.2007
97811W        W35305  31.688  17.610  12.257  0.1379 -0.0565  0.0789
97812W        W35306  21.377   1.669   8.501  0.0507  0.2911 -0.2053
97813W        W35307  10.881  12.559   9.758 -0.0241  0.1207 -0.2171
97814W        W35308  26.010   5.576  24.004  0.2289  0.3196  0.2094
97815W        W35309   0.665  20.231  25.602  0.0340  0.0504  0.1011
97816W        W35310   3.392  20.540  21.220  0.0084 -0.0533 -0.0551
97817W        W35311  18.602  11.806  17.518 -0.0315  0.1565  0.1385
97818W        W35312   9.325  16.928   7.134 -0.0933  0.1089  0.2794
97819W        W35313   8.941  24.083   8.840 -0.0676  0.2975  0.2924
97820W        W35314  14.268  26.717   0.640  0.1123  0.3460  0.2586
97821W        W35315  23.336  17.490  22.913 -0.0819  0.3847 -0.1356
97822W        W35316  15.068   0.738  17.590 -0.0649 -0.2569 -0.0527
97823W        W35317  25.091  29.368  12.111  0.0058 -0.0994  0.4531
97824W        W35318  23.111  24.088  22.211  0.1269  0.1628  0.1282
97825W        W35319  30.026   1.226   1.312 -0.0734  0.1537  0.1217
97826W        W35320  27.358  28.566  13.915 -0.1863 -0.0430 -0.0956
97827W        W35321  30.670   0.730  22.339  0.2679 -0.1367  0.1771
97828W        W35322  23.786   0.204   4.941  0.0764 -0.0647 -0.1844
97829W        W35323  22.066   5.883   7.036 -0.3581 -0.4193  0.1627
97830W        W35324  33.167  10.255  21.476 -0.1027 -0.1964  0.0247
97831W        W35325   9.813  28.461   3.845 -0.1413  0.1353  0.1021
97832W        W35326   8.277  25.629  23.476 -0.0356 -0.5916 -0.1448
97833W        W35327  22.162   2.515  17.804 -0.1364  0.0145  0.3993
97834W        W35328  34.385   0.183  22.888  0.2675 -0.0038  0.2813
97835W        W35329   9.944   4.483  24.482  0.3254  0.3370 -0.1538
97836W        W35330   3.317  33.437  23.497 -0.3393 -0.2181 -0.1312
97837W        W35331  14.897   5.430  23.496 -0.0217  0.0999 -0.1407
97838W        W35332  15.742  11.058   7.753  0.2945  0.2032  0.0818
97839W        W35333  13.249   5.541   2.385  0.0036 -0.4073  0.1386
97840W        W35334   0.265   5.113   6.266 -0.1317 -0.0629 -0.4412
97841W        W35335  13.171   1.680  19.855  0.3111 -0.0713  0.0799
97842W        W35336  23.127   1.892  19.669 -0.0071 -0.1673 -0.3007
97843W        W35337  17.956  15.576  19.219 -0.0078  0.3145 -0.0627
97844W        W35338  15.858  15.452  21.441  0.2897 -0.1883  0.0632
97845W        W35339  17.557  21.575  21.514 -0.0120  0.0089 -0.1685
97846W        W35340  21.267   0.454   3.608 -0.3405 -0.1202  0.0129
97847W        W35341   5.023  13.784  25.299  0.0301 -0.0992 -0.1474
97848W        W35342   8.984  23.942   9.535 -0.0606 -0.2111  0.0563
97849W        W35343  28.943   2.143  11.106  0.2967  0.0688 -0.0025
97850W        W35344  25.189  19.498  11.024  0.2855  0.0328 -0.0895
97851W        W35345  25.404   5.445   3.257  0.1065 -0.0977 -0.0650
97852W        W35346   2.371  14.097  20.033 -0.0373 -0.3624  0.0274
97853W        W35347  14.707  16.930   3.588  0.3210  0.0544  0.2445
97854W        W35348   0.507  28.028  17.080 -0.3361 -0.1374 -0.0532
97855W        W35349  27.189   0.299   0.893 -0.1210 -0.0318 -0.3179
97856W        W35350  18.571  31.935   3.102  0.0221  0.1029  0.1136
97857W        W35351  33.198   0.557   0.937 -0.1420 -0.0657 -0.0987
97858W        W35352  32.763   9.452   9.130 -0.2472 -0.0161  0.0105
97859W        W35353   3.305  11.893  14.565 -0.0555  0.0688 -0.0993
97860W        W35354  16.509  24.284  24.410 -0.0097  0.0071  0.2731
97861W        W35355  20.756   8.071   9.413 -0.1327  0.4769  0.0325
97862W        W35356  15.312  19.840  13.882 -0.1632  0.1630 -0.0252
97863W        W35357  34.365  18.527  11.514  0.0803  0.1175  0.1976
97864W        W35358  25.334   4.721  20.264 -0.2207  0.2133 -0.0295
97865W        W35359  24.846  30.243  24.439 -0.1549  0.2024  0.2946
97866W        W35360  30.806  30.788  25.669  0.1132 -0.0811  0.0599
97867W        W35361   4.809  30.790  10.398  0.0383 -0.0940 -0.2003
97868W        W35362  24.685  26.216  12.723 -0.1235 -0.1832  0.0156
97869W        W35363  11.519  25.307   7.316 -0.1167  0.0989  0.0871
97870W        W35364   8.790  31.774   9.171  0.2109 -0.1283 -0.2565
97871W        W35365  15.138   9.551   4.409  0.1943  0.0324 -0.1401
97872W        W35366   0.653  23.896  14.575 -0.0016  0.1791  0.0967
97873W        W35367  20.871  15.892  23.366  0.0386  0.0726 -0.0131
97874W        W35368  34.320   6.523  12.663  0.1487 -0.0721 -0.3215
97875W        W35369  23.618  21.061  16.787  0.0678  0.0378  0.0228
97876W        W35370  28.488  30.601  12.951 -0.1702  0.0562 -0.3641
97877W        W35371  29.927   2.296  17.103  0.1820 -0.0069 -0.1101
97878W        W35372   0.407   4.716   4.804 -0.0076 -0.3762 -0.2520
97879W        W35373  25.632  30.767   3.600 -0.1614  0.0857  0.3738
97880W        W35374   4.037  29.390   7.295 -0.2153 -0.1099 -0.0777
97881W        W35375   6.976   5.945   1.943  0.1668 -0.0490  0.0254
97882W        W35376  34.813  22.770  13.203  0.1137  0.3560  0.0241
97883W        W35377   6.453  16.359  10.618  0.1582 -0.0097 -0.0749
97884W        W35378  14.822  19.892  11.870 -0.0523 -0.1602  0.1334
97885W        W35379  16.974  10.087   9.988  0.0513  0.1218 -0.1492
97886W        W35380  10.078  28.558  21.727 -0.1001  0.1962 -0.0385
97887W        W35381   7.594  20.991   0.314  0.1085 -0.0340  0.0597
97888W        W35382  33.947   0.252   1.506  0.0346  0.1758 -0.1269
97889W        W35383   3.419  33.230  20.045 -0.0579 -0.0159  0.3208
97890W        W35384   3.776   8.954  24.973  0.3002  0.1000 -0.2301
97891W        W35385  29.455  26.295  19.822 -0.0641  0.0794  0.2010
97892W        W35386  32.612  14.821  12.572  0.0582  0.0116 -0.1039
97893W        W35387   1.336  21.742  20.283  0.1841  0.1237 -0.2217
97894W        W35388  12.149  28.222  13.114  0.1900  0.1621  0.0103
97895W        W35389   8.199   0.295  10.133  0.4720  0.0400  0.0721
97896W        W35390  34.553  24.496  21.125 -0.2977  0.1124  0.0532
97897W        W35391  24.814  22.484  25.258 -0.0430  0.0141 -0.1273
97898W        W35392  30.016  16.329   8.379 -0.0960 -0.0547 -0.1238
97899W        W35393   0.076  20.663   9.556  0.1064 -0.0354  0.3110
97900W        W35394  22.725   4.989  20.628 -0.2005 -0.2053  0.0301
97901W        W35395  18.183  11.679   5.447 -0.0534  0.0234  0.1127
97902W        W35396  10.542  11.150   6.729 -0.0829  0.1062  0.0306
97903W        W35397  18.342  31.662   5.403 -0.1370  0.1463 -0.0212
97904W        W35398   1.758   8.324  20.271  0.0527 -0.2282  0.2189
97905W        W35399   3.836  10.419  18.760  0.2563 -0.0396 -0.5079
97906W        W35400  31.050  27.592  22.537 -0.0208  0.0703  0.0649
97907W        W35401   2.896  13.028   0.517 -0.3314  0.2215 -0.3450
97908W        W35402   2.124  29.665  25.623 -0.0393 -0.0205 -0.3447
97909W        W35403  21.165  33.641  16.656  0.0487 -0.0610  0.0168
97910W        W35404   8.406  12.485  19.705 -0.0171  0.0669  0.4383
97911W        W35405   8.483   5.083  10.956 -0.1476  0.0378  0.3137
97912W        W35406  30.433   6.689  18.462 -0.0799  0.2629  0.1421
97913W        W35407  35.264  31.881  23.763  0.2215 -0.0695 -0.3500
97914W        W35408  33.876  33.811  18.533  0.2360  0.0423  0.0929
97915W        W35409   6.863  26.390  23.290 -0.1296 -0.1944 -0.2660
97916W        W35410  33.556   0.013  23.396  0.1282  0.0587  0.1212
97917W        W35411   6.705  32.201  12.425 -0.2911 -0.0936  0.0131
97918W        W35412  16.486  34.165   8.963  0.1733  0.1491 -0.0696
97919W        W35413  34.523   5.025  13.654  0.0859  0.2344  0.1143
97920W        W35414   2.610  32.354   0.099 -0.0260 -0.1158 -0.2029
97921W        W35415  19.368  19.903  19.886  0.2111  0.0363 -0.0972
97922W        W35416  17.745  31.055  20.434 -0.2497 -0.0235 -0.1452
97923W        W35417  10.794  28.137  24.416  0.0755 -0.0169 -0.3947
97924W        W35418   9.783  32.938  26.013 -0.0773 -0.0552  0.2202
97925W        W35419  28.324  11.710   0.313  0.5014 -0.2848  0.2784
97926W        W35420   9.121  18.962   2.441 -0.3461 -0.3016  0.1168
97927W        W35421  20.762   0.105  13.742  0.2754  0.1309  0.0076
97928W        W35422  18.073  14.882  19.134 -0.0288  0.1650  0.0585
97929W        W35423  12.033  15.111   1.710 -0.2171 -0.1590  0.0608
97930W        W35424   7.636  18.542   9.653  0.0182 -0.1398  0.0745
97931W        W35425   8.245  21.654   8.966  0.0812 -0.3017 -0.3696
97932W        W35426  12.809  30.396   9.668 -0.1895 -0.3606  0.2751
97933W        W35427  12.787   5.248  18.886 -0.2416 -0.0516 -0.2296
97934W        W35428  11.269  31.301  26.231 -0.1457  0.2924  0.3163
97935W        W35429  16.048  17.350  14.017  0.0620 -0.1083  0.0390
97936W        W35430  12.930  33.517  22.575 -0.2225  0.1899 -0.4316
97937W        W35431  25.877  20.110  10.703  0.3473  0.1261 -0.2455
97938W        W35432  21.492  16.053  15.836  0.3176 -0.2904  0.0855
97939W        W35433  11.418  29.249  25.089 -0.0066 -0.0129  0.3650
97940W        W35434  23.836  16.825  14.052  0.3352  0.0368 -0.3799
97941W        W35435  17.103   2.059   9.848  0.2825  0.0955  0.0601
97942W        W35436  17.755   4.100  19.265  0.3199  0.1455  0.2460
97943W        W35437   9.001  12.794  24.658  0.0106 -0.1325  0.0505
97944W        W35438  14.426   1.933  20.163 -0.2822 -0.1065  0.1686
97945W        W35439  32.494   2.508  12.693  0.1567 -0.1006 -0.4304
97946W        W35440  23.952  13.858   1.690 -0.0779  0.2552 -0.0630
97947W        W35441  26.694  28.177  10.355  0.2333 -0.1371 -0.0737
97948W        W35442  32.601  21.145  19.569 -0.1697  0.0675 -0.1717
97949W        W35443  13.921  28.566  22.659  0.1440 -0.1833 -0.2244
97950W        W35444   5.319   5.617   2.348  0.0587 -0.4051 -0.2979
97951W        W35445  17.307  34.920  20.444  0.0832 -0.1386  0.0113
97952W        W35446  23.944  22.531  19.496 -0.1762  0.1158  0.1775
97953W        W35447  26.862  17.473  15.677 -0.1795 -0.2061 -0.2107
97954W        W35448  12.919  17.160   2.352 -0.1538  0.2169 -0.2569
97955W        W35449  34.214  28.131  25.444 -0.2842 -0.0150  0.0900
97956W        W35450  12.177  25.306   6.010 -0.1549 -0.1030  0.0969
97957W        W35451  13.292  34.774  24.042 -0.0598 -0.0162  0.3123
97958W        W35452  16.599  21.667   0.024  0.4261 -0.0546  0.1162
97959W        W35453  31.365  17.428  25.397  0.0179  0.0571 -0.0372
97960W        W35454  10.696  13.684  23.820  0.1469 -0.0711 -0.3524
97961W        W35455  22.861   2.906   1.114  0.2251  0.1519 -0.1508
97962W        W35456  31.213   7.498   3.859  0.0958  0.1135  0.1972
97963W        W35457  30.646  32.256  20.078  0.2935 -0.1081 -0.3958
97964W        W35458   8.986  16.080  21.970 -0.1347 -0.1090 -0.3112
97965W        W35459  15.740  22.887   6.989 -0.0074  0.1965  0.4465
97966W        W35460  17.738  11.313  21.899  0.1322 -0.2297 -0.1788
97967W        W35461   2.433  13.755  20.704 -0.4824  0.0633  0.0378
97968W        W35462  17.699  24.711  25.738 -0.1233  0.2317  0.2901
97969W        W35463   6.492  31.570  12.092 -0.1394 -0.1569  0.0913
97970W        W35464  31.131   3.835   5.346 -0.4514 -0.0936 -0.1613
97971W        W35465  23.220   9.136  20.334 -0.2860  0.0605 -0.2207
97972W        W35466   8.415  29.370  12.690 -0.2109  0.2955 -0.0300
97973W        W35467  28.349  25.132  13.757 -0.0764  0.0610 -0.5113
97974W        W35468  17.007   6.991  18.949 -0.4104  0.2786  0.1731
97975W        W35469  25.923   1.473  22.598  0.0769 -0.1276 -0.2356
97976W        W35470   1.101  22.431  22.292  0.1074  0.0010  0.4184
97977W        W35471   0.816  17.635   0.611 -0.1065  0.2338 -0.1861
97978W        W35472  25.792  12.406  20.525  0.2629 -0.1286  0.4025
97979W        W35473  30.548  17.038  16.587 -0.0977  0.0987  0.1130
97980W        W35474  13.100   4.361  25.719 -0.0518  0.1679 -0.1249
97981W        W35475  10.501  29.430   1.471 -0.1839  0.4096 -0.2675
97982W        W35476   2.960   0.566   1.350  0.3047  0.3592  0.1205
97983W        W35477  10.323   1.223  23.430  0.3697 -0.1521 -0.1124
97984W        W35478  20.591   0.036  20.383  0.0412 -0.2461  0.0420
97985W        W35479   0.982  31.854  17.114  0.0733  0.0636 -0.0087
97986W        W35480   0.137  26.063  25.213  0.1676 -0.0963 -0.1680
97987W        W35481  31.921  21.492  19.039 -0.2476 -0.2050  0.0633
97988W        W35482   0.050  12.794   2.359 -0.2083  0.2406 -0.3557
97989W        W35483  34.260  23.820   1.313 -0.0770 -0.0737 -0.3956
97990W        W35484   7.536  16.764  19.191  0.1243  0.0102  0.1589
97991W        W35485  26.283   4.411  22.915 -0.1998 -0.1198 -0.2825
97992W        W35486  20.192   3.579   9.433  0.2043  0.1089 -0.1176
97993W        W35487   3.067  34.214  11.562 -0.0248 -0.1195 -0.4209
97994W        W35488  16.734   5.843  18.870  0.2045  0.2129 -0.0087
97995W        W35489  30.393   1.163   5.767  0.2447 -0.1082 -0.1091
97996W        W35490  14.507  30.451  24.105  0.1647 -0.0355  0.0136
97997W        W35491  23.755  14.547  21.858 -0.4017 -0.1554  0.0928
97998W        W35492  35.228  28.368  23.239 -0.2027  0.0546 -0.1982
97999W        W35493   2.941  33.693   4.012  0.5330  0.0959 -0.0674
98000W        W35494   3.090  12.775   1.289  0.4474 -0.0007  0.0752
98001W        W35495  25.008  16.658  25.886 -0.2383 -0.0097  0.2922
98002W        W35496   3.324  30.259   7.181  0.2456  0.0766 -0.2211
98003W        W35497  24.708  16.277  25.119  0.2679 -0.2219 -0.1085
98004W        W35498  17.460  28.523  25.848 -0.0518 -0.0610 -0.2246
98005W        W35499  13.314  32.517   5.912  0.0846  0.0518 -0.0640
98006W        W35500  32.928  23.557  20.024 -0.1470 -0.1861 -0.0052
98007W        W35501   5.680   7.386   6.510  0.0989  0.0978 -0.2094
98008W        W35502   5.193  22.539  24.695 -0.2428 -0.0113  0.2013
98009W        W35503  21.340  32.673   5.016  0.0150  0.0299 -0.1032
98010W        W35504   9.896   7.368  22.258  0.0548  0.1359  0.0090
98011W        W35505  34.321  24.722  24.414  0.1603  0.0762  0.0363
98012W        W35506   9.625   5.364  12.009 -0.0115  0.1433  0.0824
98013W        W35507  25.757   6.355  24.484 -0.0327 -0.1714  0.0737
98014W        W35508  22.097  22.213  17.729 -0.2495  0.2140 -0.3076
98015W        W35509  11.025  25.643  25.838  0.1515  0.0136 -0.0372
98016W        W35510  11.179  24.760  13.088 -0.1600 -0.2496 -0.1365
98017W        W35511  12.506  17.673   0.336  0.0719 -0.4895 -0.1173
98018W        W35512  15.779   6.319   4.830  0.2047 -0.1639 -0.0605
98019W        W35513   8.737  23.371   9.778  0.2034  0.3484  0.0524
98020W        W35514  28.347  33.779   2.421  0.2223 -0.0407  0.1528
98021W        W35515   2.784  18.409  15.638  0.2468 -0.1662  0.1070
98022W        W35516  33.231  19.621  15.493 -0.2633  0.1202  0.0846
98023W        W35517  24.716  14.062  20.385 -0.1691  0.2983  0.1184
98024W        W35518  15.928  17.216  10.417  0.2772  0.3166 -0.0176
98025W        W35519  20.947  20.441   0.505 -0.3272 -0.1206  0.0382
98026W        W35520  25.680   0.946   3.442  0.1930  0.2080  0.2052
98027W        W35521  16.809  33.409  23.052  0.0445 -0.1961  0.3430
98028W        W35522  15.739   0.603  23.035  0.3056 -0.0748 -0.5835
98029W        W35523   9.278  15.826  25.354 -0.1291  0.0097 -0.0403
98030W        W35524   8.839   2.321  10.274 -0.0589 -0.1225 -0.2017
98031W        W35525  14.491  28.569  21.982 -0.4344 -0.1563  0.1357
98032W        W35526  23.395  13.062   3.746 -0.0485 -0.4152  0.3066
98033W        W35527   7.623  25.004  11.297 -0.2325 -0.1172 -0.1117
98034W        W35528   8.891  15.880  12.993 -0.1064  0.1790 -0.3399
98035W        W35529   6.959   6.117   7.308 -0.1766 -0.2756 -0.1682
98036W        W35530  12.789   0.263   6.490  0.0904 -0.5110  0.0526
98037W        W35531  34.420   7.193  19.936 -0.2398  0.1659  0.1739
98038W        W35532  24.060   3.728  19.238 -0.1834 -0.2785  0.0021
98039W        W35533  14.757  13.566   8.462  0.3593  0.0155 -0.0374
98040W        W35534  16.040  23.231  10.256  0.1672 -0.1041 -0.0509
98041W        W35535  21.954  33.910  24.561  0.0458 -0.0218  0.1961
98042W        W35536  10.164  31.176  13.979 -0.1411 -0.2794  0.0547
98043W        W35537  24.862  33.554  18.137 -0.0472  0.0569  0.4512
98044W        W35538  31.372  27.231  16.439  0.0503  0.0346  0.0517
98045W        W35539  34.770   4.543  12.407 -0.1004  0.2803 -0.3043
98046W        W35540  19.764   6.078  18.985  0.1572 -0.2765  0.1799
98047W        W35541  32.815   3.853   2.018 -0.2249  0.0560 -0.1171
98048W        W35542   6.373  30.780  21.725  0.2349 -0.2402 -0.1347
98049W        W35543  29.118  14.009  16.074  0.1851  0.0716  0.3226
98050W        W35544  32.635  31.557  16.717  0.1353  0.0517  0.2425
98051W        W35545  30.958   4.536  17.099 -0.1775  0.0129  0.3359
98052W        W35546   0.856  17.228  10.019 -0.1235 -0.0815  0.0848
98053W        W35547  31.136  12.296  20.710 -0.2058 -0.1222  0.0835
98054W        W35548  14.128  30.755  14.563 -0.0945 -0.1368  0.1759
98055W        W35549   3.291   6.730  24.407 -0.0028  0.0958  0.7923
98056W        W35550   1.912  30.972  24.985  0.2222  0.1113 -0.0109
98057W        W35551   8.496   7.852  12.335 -0.1986 -0.0328 -0.1732
98058W        W35552   2.329   5.449  24.034 -0.2940 -0.1102 -0.2325
98059W        W35553   1.986  13.917  19.758  0.0742  0.0644 -0.1096
98060W        W35554  33.218  11.301  17.018 -0.2658 -0.0808 -0.0452
98061W        W35555  31.104  14.649  18.498  0.0336 -0.0011 -0.3436
98062W        W35556  11.663  30.731   0.056 -0.2807 -0.0986 -0.2235
98063W        W35557  32.652  11.269   0.219 -0.1767 -0.1234 -0.0148
98064W        W35558  22.467   3.693  20.851 -0.0173  0.1044  0.2963
98065W        W35559  13.254  16.669  19.000  0.5757  0.0914  0.0892
98066W        W35560   2.566  28.389  25.976  0.0651 -0.0778 -0.0956
98067W        W35561   0.005  16.235  16.429 -0.0556 -0.0297  0.1309
98068W        W35562  33.749  13.614  10.175 -0.1353  0.0258  0.2933
98069W        W35563   7.739  22.402   1.773 -0.0265  0.1595 -0.3513
98070W        W35564  31.585  13.991  11.887 -0.0529  0.0894 -0.3219
98071W        W35565   9.273   8.862  12.503 -0.2256  0.2790 -0.0847
98072W        W35566   6.812  15.600  18.898 -0.1966 -0.1234 -0.0398
98073W        W35567  13.826  12.833  26.062 -0.1248 -0.0267 -0.2580
98074W        W35568  18.845  32.338   8.168  0.2284  0.1383  0.1885
98075W        W35569   2.588  24.849   0.201 -0.5116 -0.1450  0.1065
98076W        W35570  30.941  31.685  22.070  0.0995 -0.0385 -0.1437
98077W        W35571  27.193   5.440  19.011  0.0793 -0.0911 -0.0063
98078W        W35572   3.496  26.595   2.438 -0.2148  0.0321 -0.1538
98079W        W35573  30.161   2.559  14.933 -0.2245  0.1067  0.0182
98080W        W35574  33.805  20.588  26.073  0.0049  0.0358  0.4117
98081W        W35575   6.454  26.777  15.173  0.0277  0.0106  0.2921
98082W        W35576  27.503  35.256   2.572  0.1213  0.1257 -0.1962
98083W        W35577  22.203  22.104  26.229  0.2455 -0.1822 -0.1235
98084W        W35578  10.168  13.100  25.608  0.0963  0.0003 -0.2844
98085W        W35579  32.300  28.996  22.209  0.1605 -0.0241  0.3864
98086W        W35580  34.959  19.954  12.561  0.3243  0.0474 -0.0366
98087W        W35581   6.086  12.626   6.935  0.1195 -0.1242  0.0486
98088W        W35582   7.886   1.892   3.380 -0.1325 -0.3101 -0.1404
98089W        W35583   5.361   9.916  23.574 -0.3166  0.1641  0.2052
98090W        W35584  30.267   3.437  20.568 -0.0503 -0.0588  0.0866
98091W        W35585  25.305  13.470  23.176  0.0179  0.0384  0.2739
98092W        W35586   8.590   2.823  23.322  0.0185  0.2809  0.1070
98093W        W35587  22.819   1.850  18.079 -0.2160  0.1026 -0.1209
98094W        W35588  11.115  22.995   2.312 -0.2649 -0.2735  0.3350
98095W        W35589   5.284   2.322  18.897 -0.3195  0.0491 -0.1609
98096W        W35590  10.355   8.323   1.692 -0.0129  0.0704 -0.3215
98097W        W35591  27.215  17.979  17.235 -0.0127 -0.2358  0.2337
98098W        W35592  31.630  15.555   8.610  0.0694  0.0080  0.3345
98099W        W35593   9.302  26.194  24.470 -0.3279  0.1329  0.2212
98100W        W35594  13.115  11.718   0.503 -0.2216  0.3929 -0.1110
98101W        W35595   1.946  14.594   2.563  0.1411  0.2378 -0.0960
98102W        W35596  28.961  29.331  12.863 -0.0018 -0.0989  0.2425
98103W        W35597  18.359  21.513  10.467 -0.0255 -0.0824  0.0122
98104W        W35598   0.779  31.667   5.496 -0.2831  0.1122  0.0937
98105W        W35599  13.405  18.067   8.058 -0.0623  0.0505 -0.1369
98106W        W35600  29.229  27.397  24.794 -0.0561 -0.0627  0.1398
98107W        W35601   9.473   4.966   2.379 -0.3856 -0.1270  0.1008
98108W        W35602   6.768  27.570   2.484 -0.0222  0.0304  0.0098
98109W        W35603  21.319  30.445   4.468 -0.0054 -0.2523 -0.2880
98110W        W35604  22.091   8.653   4.391  0.2777 -0.2733 -0.0344
98111W        W35605  26.455   5.192  23.981  0.1896  0.4088  0.0861
98112W        W35606  10.338   7.769   7.219  0.0461  0.0659  0.1147
98113W        W35607   8.307   4.453   7.259  0.0789  0.0289 -0.1804
98114W        W35608  16.951   4.292   6.675  0.0156  0.0321 -0.2511
98115W        W35609  29.031   9.265  25.300 -0.3606  0.1513 -0.1491
98116W        W35610   6.718   3.037  13.499  0.1402 -0.0454 -0.0449
98117W        W35611  14.539   7.495   9.051 -0.1106 -0.1339  0.0401
98118W        W35612  31.262   0.445  23.967 -0.0536 -0.1870  0.0279
98119W        W35613  11.723  24.704   9.215  0.1410 -0.1245 -0.0437
98120W        W35614  21.648  28.084   6.558  0.0622  0.1206  0.0627
98121W        W35615  14.708  20.441  14.173  0.1714 -0.4168 -0.0098
98122W        W35616  15.808  21.905  14.117  0.1050 -0.1263  0.2217
98123W        W35617   1.345  14.786  24.026 -0.3056 -0.2208 -0.1005
98124W        W35618  21.853   6.311   1.200 -0.4870  0.0136  0.7167
98125W        W35619  28.352  10.823  10.373 -0.0026 -0.0252 -0.1303
98126W        W35620  19.351  14.213  20.471  0.0543  0.3227  0.0288
98127W        W35621  28.754   3.597  21.950  0.0129 -0.1817 -0.0838
98128W        W35622  12.334  11.559  22.977 -0.1972  0.1361 -0.3338
98129W        W35623   8.601   8.677   4.362  0.1559 -0.0331 -0.2613
98130W        W35624  16.178   3.297  24.413 -0.1426  0.1418 -0.0127
98131W        W35625  10.091  22.997  22.339  0.1816 -0.1674  0.1128
98132W        W35626   9.565   3.181  25.578 -0.0860 -0.0118 -0.0299
98133W        W35627  20.864  19.868  19.403 -0.1727  0.3813  0.0839
98134W        W35628  24.439   0.396  18.116  0.0837 -0.0803  0.0614
98135W        W35629   9.108  28.148  25.610 -0.1390 -0.0125 -0.1546
98136W        W35630   4.685   3.899  18.831 -0.1105  0.0150  0.0161
98137W        W35631   7.231   8.117  19.739  0.1621  0.1571  0.0344
98138W        W35632  12.639  28.129  23.174  0.3522 -0.0395 -0.2184
98139W        W35633  22.110  26.370  15.183 -0.1086 -0.1215 -0.4003
98140W        W35634  14.892  29.410  13.713  0.0942  0.3379  0.4869
98141W        W35635   6.082  15.418   7.482  0.2812 -0.3577 -0.0052
98142W        W35636  22.495  11.125  15.661 -0.2743 -0.1005  0.2340
98143W        W35637  17.490  27.347   4.194  0.0469 -0.1281  0.1330
98144W        W35638   2.174  19.843  22.867  0.0464  0.4903 -0.3179
98145W        W35639  33.976  18.459  22.560  0.2114 -0.0471 -0.0378
98146W        W35640   4.570  29.881  12.784 -0.1200 -0.2917 -0.0533
98147W        W35641  20.460   8.183   1.030 -0.2519 -0.0597 -0.3154
98148W        W35642   7.754   4.656  25.338  0.1000  0.1817  0.1111
98149W        W35643  20.050   7.847  25.967 -0.4380 -0.0873 -0.1568
98150W        W35644  13.284  20.083  25.642 -0.0583  0.2581  0.1242
98151W        W35645  24.357  20.350  19.476  0.1116 -0.0374  0.0030
98152W        W35646   1.415  24.564  26.030 -0.0418 -0.1757  0.0696
98153W        W35647  20.198  15.173   1.322 -0.0236  0.1276  0.0505
98154W        W35648  23.394  11.056  26.047 -0.0970  0.0800  0.1816
98155W        W35649  18.377  23.653   5.032  0.0492  0.2087 -0.1849
98156W        W35650  22.321   7.068  25.427 -0.0596  0.3437 -0.1449
98157W        W35651   1.082  31.286  24.205  0.0328 -0.1329  0.2904
98158W        W35652   9.229  13.671  23.518 -0.1761  0.1465 -0.1193
98159W        W35653  20.561  22.362   9.379 -0.2378 -0.0161 -0.0122
98160W        W35654   8.342  19.406  25.786 -0.1978  0.3377 -0.2204
98161W        W35655   7.135  29.934   1.114  0.1698  0.2814 -0.3347
98162W        W35656  14.577  15.367   9.182  0.1497  0.0438  0.2297
98163W        W35657  33.991  25.912  13.229  0.1238  0.1088  0.0715
98164W        W35658  18.321  30.279   6.710 -0.1135 -0.1480  0.2988
98165W        W35659  28.517  18.521  22.226 -0.0125  0.1914 -0.0387
98166W        W35660  33.719  19.628  21.096 -0.0078 -0.1556  0.0346
98167W        W35661   6.001   4.141  26.157  0.2260  0.0582  0.1692
98168W        W35662   0.339  23.320  18.257  0.3676  0.0543  0.0573
98169W        W35663   9.203   1.008  21.893  0.3245  0.0855 -0.1571
98170W        W35664  31.883  18.828  17.727  0.0750 -0.1418 -0.0299
98171W        W35665  34.340  34.034   7.040  0.0265  0.0646 -0.1633
98172W        W35666  25.345  22.925  22.800 -0.2117  0.0955 -0.0371
98173W        W35667  25.067   5.199  15.313  0.0388 -0.1765  0.0455
98174W        W35668  25.270  21.313  14.650 -0.2254  0.0693  0.0063
98175W        W35669  28.507   4.726  15.776 -0.2144  0.0722 -0.0867
98176W        W35670   4.848  25.226   0.453  0.1288 -0.2059 -0.2730
98177W        W35671   0.208   7.698   3.523 -0.0020  0.0726 -0.3270
98178W        W35672  17.620  23.231  22.570  0.1285  0.0816  0.3096
98179W        W35673  25.953   0.917   5.270  0.1649  0.0544 -0.0572
98180W        W35674  14.358  34.526   2.953 -0.0087  0.1461 -0.1425
98181W        W35675  17.493   8.721   1.037  0.1795 -0.1258 -0.1217
98182W        W35676  13.395  25.117  26.053  0.1901  0.1271  0.1955
98183W        W35677  18.952  15.676  19.269  0.0389 -0.0203  0.0714
98184W        W35678   2.473  14.293  16.695 -0.1088 -0.0090 -0.2434
98185W        W35679  12.915   0.170   9.001  0.1445 -0.0626 -0.1480
98186W        W35680   9.600  25.791   1.449 -0.0523  0.1360  0.0715
98187W        W35681  13.509  17.061   1.165 -0.0371  0.0802 -0.2079
98188W        W35682  16.900  32.634   6.901 -0.2153  0.0083 -0.2017
98189W        W35683  18.171   9.455   5.823  0.0402 -0.2654  0.1377
98190W        W35684  18.330  13.183   2.035 -0.2324 -0.1179 -0.0502
98191W        W35685  26.219  14.704  23.777 -0.0405  0.0974  0.2643
98192W        W35686  34.695   3.999  20.689  0.0255 -0.1413 -0.1675
98193W        W35687  10.040  11.700   9.648  0.0300 -0.1651  0.0849
98194W        W35688  14.092   6.003  19.355 -0.2069 -0.1365  0.3439
98195W        W35689   2.592   1.966   8.824  0.0455 -0.5915 -0.0914
98196W        W35690  35.059  29.556   1.563  0.0854  0.0241 -0.2317
98197W        W35691  13.429  23.650   2.660  0.3383  0.0022 -0.1049
98198W        W35692  31.916  16.479  21.643  0.2473 -0.0598 -0.2985
98199W        W35693  26.621  20.388  12.493  0.0595  0.2572  0.2235
98200W        W35694   6.481  28.867  12.017 -0.1754  0.1295 -0.0161
98201W        W35695  24.805  18.072  17.699 -0.0638  0.0893 -0.2758
98202W        W35696   1.299   6.941  18.765  0.0753 -0.0700 -0.0969
98203W        W35697  10.499  35.316  13.061  0.1325  0.0845  0.4524
98204W        W35698  20.407   5.491  21.810 -0.1491 -0.1311 -0.0780
98205W        W35699  19.534  18.967  10.070  0.0935 -0.1610 -0.1115
98206W        W35700  14.011  30.434  21.577  0.1330 -0.1686 -0.2943
98207W        W35701  14.466   0.994  25.437  0.0381 -0.1528 -0.0657
98208W        W35702  17.288  21.375   3.879 -0.2549  0.0292 -0.1397
98209W        W35703  16.881  14.911  24.957  0.0911  0.0161 -0.3326
98210W        W35704  23.673   3.007   0.695 -0.4887  0.4155 -0.3621
98211W        W35705  27.424  13.138   9.156 -0.0298 -0.0863  0.0298
98212W        W35706  21.865  23.194  20.642  0.0537  0.4792  0.0370
98213W        W35707   7.608  11.475  12.402  0.3398 -0.0994 -0.1940
98214W        W35708  13.666  14.689   8.159 -0.1350 -0.0338  0.1633
98215W        W35709  26.908   8.827   1.648  0.2980  0.2704 -0.1380
98216W        W35710  33.833  33.697  16.515  0.4559  0.4063 -0.1931
98217W        W35711  11.949  17.359   1.041  0.1805  0.2950  0.1183
98218W        W35712  29.060   5.469   3.568 -0.2294  0.1402 -0.2079
98219W        W35713  21.173  31.498  25.439 -0.0290  0.0190  0.0830
98220W        W35714  22.334  33.063   0.578  0.0883 -0.0750 -0.0404
98221W        W35715  14.530  10.778  20.871  0.0114 -0.2688  0.0984
98222W        W35716  17.587  23.959   0.998 -0.0509 -0.2198  0.2704
98223W        W35717  21.264  30.268  14.694 -0.4448  0.3414 -0.3088
98224W        W35718  22.290  26.462  23.262  0.0581 -0.0451 -0.3485
98225W        W35719  17.819  19.109  20.533 -0.2451  0.0170 -0.0112
98226W        W35720   6.073  17.817  18.137 -0.0936  0.2120  0.0762
98227W        W35721   7.878  24.058  23.695  0.0803 -0.0915  0.0907
98228W        W35722  24.502   6.416   4.282 -0.1864 -0.3006 -0.0773
98229W        W35723  21.430   1.934   2.131  0.0360 -0.2467 -0.2312
98230W        W35724  30.993  28.009  24.164  0.0478 -0.0293 -0.1666
98231W        W35725  10.223   0.987  10.413 -0.2400 -0.1188 -0.0024
98232W        W35726  29.662  22.085  20.090 -0.1008 -0.2051  0.1800
98233W        W35727  15.447   1.270  19.642 -0.0011 -0.1526 -0.1141
98234W        W35728  14.888   2.925   8.667  0.1129  0.3086 -0.2697
98235W        W35729   6.629   4.287   4.425 -0.1785  0.1791  0.0252
98236W        W35730  25.167  19.656  18.282 -0.2691  0.0663  0.0882
98237W        W35731  32.098   5.559  15.731 -0.1937  0.0671 -0.0279
98238W        W35732   3.602  34.398  11.427  0.2967 -0.1435  0.2993
98239W        W35733  31.498  14.018  15.866 -0.0318  0.1934  0.4218
98240W        W35734   7.969  17.988  21.759  0.3653 -0.0057  0.1859
98241W        W35735  18.064  27.116   2.459 -0.4066  0.0447  0.2096
98242W        W35736  21.785  11.050  25.296 -0.1817 -0.0005  0.1307
98243W        W35737  25.504   4.803  25.410  0.0686 -0.1056  0.4657
98244W        W35738   2.025  31.864   4.768 -0.1131  0.0221  0.0706
98245W        W35739  12.845  13.011   4.524 -0.1933  0.3188 -0.0365
98246W        W35740   6.463   4.130  25.521 -0.3546 -0.0553  0.0963
98247W        W35741   2.388   2.513   4.352 -0.1280 -0.0641 -0.1036
98248W        W35742  16.487   1.035   3.629 -0.0244 -0.0807  0.0509
98249W        W35743  13.812   6.958  11.447  0.2334 -0.1156  0.2998
98250W        W35744  11.840  34.625  11.104  0.3637 -0.1664 -0.1796
98251W        W35745  30.574  13.977  17.964  0.0488  0.3518  0.2122
98252W        W35746  35.358   8.457   0.320  0.0194  0.1107 -0.1160
98253W        W35747  24.077   1.206  20.189  0.1699 -0.2543  0.2365
98254W        W35748  19.882  34.575  19.324  0.2194  0.4130 -0.0670
98255W        W35749   8.170   7.274  17.846  0.1494  0.2609 -0.0243
98256W        W35750   0.239   0.993  23.611 -0.1903 -0.0084 -0.1142
98257W        W35751  28.390   6.674  21.293  0.0447  0.2504  0.0084
98258W        W35752  32.766   7.805  23.193 -0.1962  0.0000  0.2159
98259W        W35753  23.531  12.427  23.958 -0.0905 -0.1077  0.0125
98260W        W35754  17.973   1.619  23.619  0.3248 -0.0981  0.0001
98261W        W35755   5.341   9.418  17.237 -0.0515 -0.0787 -0.2402
98262W        W35756  31.566  12.205  16.088 -0.0096  0.0766 -0.0132
98263W        W35757   7.266  22.007  25.965 -0.2725  0.3803  0.2961
98264W        W35758  25.969  25.861  21.433 -0.1258 -0.2034  0.0305
98265W        W35759  21.349   2.694  20.596 -0.0244 -0.1162  0.2040
98266W        W35760  30.018   0.479   5.508  0.3835 -0.2502 -0.0712
98267W        W35761   4.348  15.167   2.413  0.3412  0.1719 -0.1519
98268W        W35762  27.728  16.579   4.415  0.0150 -0.0020 -0.0422
98269W        W35763  30.563  34.231   0.842  0.1421  0.0646 -0.2479
98270W        W35764  11.637  24.965  16.441 -0.1221 -0.2173  0.1877
98271W        W35765  25.710   0.866  11.576 -0.1137 -0.2876 -0.3203
98272W        W35766  14.954  17.950   9.791  0.0323  0.0677 -0.3815
98273W        W35767  30.780  28.996  25.141  0.3504  0.0642  0.1530
98274W        W35768   5.515  20.972   7.002 -0.3564 -0.0722  0.1669
98275W        W35769  31.135   8.391  18.788  0.1824 -0.1654  0.1244
98276W        W35770  32.485  12.484  10.688 -0.0204 -0.1310  0.2597
98277W        W35771  28.724  15.431   3.661  0.1731  0.0707  0.0239
98278W        W35772  31.151  11.926  22.343 -0.0195  0.0795  0.1608
98279W        W35773   0.335   0.753  25.358  0.0972 -0.0124 -0.3703
98280W        W35774  33.058  19.201   6.016  0.1075  0.3890 -0.0749
98281W        W35775  24.910  20.018   8.782 -0.1475  0.0477 -0.1789
98282W        W35776  14.712  10.436  18.217  0.3326  0.3437 -0.0142
98283W        W35777  18.459  35.149  24.177 -0.4011  0.0408  0.0999
98284W        W35778   2.269  11.247  13.168 -0.0356 -0.1018  0.1322
98285W        W35779  14.941  21.593   4.109  0.3116 -0.1456  0.3079
98286W        W35780  20.743   7.667  21.751  0.0875 -0.1182  0.2883
98287W        W35781  27.642  25.222   8.279 -0.1834  0.0546 -0.1764
98288W        W35782  13.211  32.931   6.258  0.1115 -0.0761 -0.0668
98289W        W35783  27.838   0.515  21.131  0.2204  0.0380  0.2484
98290W        W35784  32.168   0.071   0.950 -0.1565 -0.0750  0.2369
98291W        W35785  30.246  35.046   3.338 -0.0434  0.1463 -0.2209
98292W        W35786  32.113  22.696  19.785  0.0990  0.4059  0.0126
98293W        W35787  33.635  17.843  14.421 -0.0488  0.2396  0.3076
98294W        W35788   1.507  28.354   5.395 -0.1603  0.2993  0.0666
98295W        W35789  27.373  31.377  16.299 -0.1959 -0.1086  0.0224
98296W        W35790   9.829   4.686   5.209  0.3068  0.4003 -0.1750
98297W        W35791  13.984   4.614   5.423  0.0260  0.0890  0.3918
98298W        W35792  13.950   8.923   3.134  0.0425 -0.2284 -0.2630
98299W        W35793  15.100  19.469   9.389 -0.0249 -0.0052 -0.0132
98300W        W35794  10.959  13.801  19.454  0.0394 -0.0246  0.1596
98301W        W35795  25.173   5.747  21.725  0.2414  0.1872 -0.2622
98302W        W35796  16.819  24.457  26.154 -0.0939  0.0940 -0.0823
98303W        W35797  31.939  14.275  22.483  0.1012  0.0487 -0.2473
98304W        W35798  11.047   1.176  25.750 -0.3108  0.0448 -0.2073
98305W        W35799  34.149   3.758  19.904 -0.1440  0.1261  0.1441
98306W        W35800   4.511  26.804  11.423  0.1485  0.0123  0.0156
98307W        W35801   3.915  15.807  16.120 -0.0648  0.0439 -0.2136
98308W        W35802   8.800  12.311  19.069 -0.2098 -0.0724 -0.0170
98309W        W35803  27.517  18.831  22.447 -0.1253 -0.2460  0.0840
98310W        W35804   9.487   2.939  12.317 -0.0025  0.0144 -0.0345
98311W        W35805  29.906   4.882   2.595 -0.1592  0.1353  0.1291
98312W        W35806  26.403  12.934  10.278 -0.0542 -0.0234 -0.2116
98313W        W35807  31.641  22.678  18.412 -0.1132 -0.1440 -0.0812
98314W        W35808  18.386  12.228  10.409  0.2397  0.0832  0.1252
98315W        W35809  17.422   2.467  18.770  0.2039  0.0327  0.0321
98316W        W35810  13.218  15.021  10.027  0.3529 -0.2402  0.0996
98317W        W35811  32.112  31.276  16.580  0.0199  0.0596  0.1964
98318W        W35812  23.866  33.720  23.777 -0.3316  0.1594 -0.3097
98319W        W35813   8.729  28.969  23.211 -0.2091  0.3340  0.0298
98320W        W35814   0.969  20.625  22.747  0.0842  0.1714  0.0279
98321W        W35815   8.596  18.997  13.653 -0.6871 -0.4249 -0.1220
98322W        W35816  34.111   5.504   3.431 -0.2938  0.0174  0.0034
98323W        W35817  20.457  25.612  18.393 -0.2683 -0.0587  0.2312
98324W        W35818  11.950  28.118   4.243 -0.1392  0.1774 -0.0216
98325W        W35819   0.742  10.292  14.297  0.1114  0.1985  0.1185
98326W        W35820   3.706  19.962  19.859  0.1301  0.0131 -0.3119
98327W        W35821   0.762  15.665   1.666  0.1633 -0.4146 -0.0296
98328W        W35822  15.595   6.783   3.359 -0.0822 -0.1861 -0.1116
98329W        W35823   2.902   6.109   3.684 -0.2084 -0.1934  0.6254
98330W        W35824  19.922   2.252  21.556  0.0259  0.2110 -0.2227
98331W        W35825  15.736   6.682   2.868  0.2078  0.0447  0.2608
98332W        W35826  31.013   5.395  22.885 -0.1517 -0.2429  0.1628
98333W        W35827  33.225  17.619  24.461 -0.0029  0.1341  0.1908
98334W        W35828  20.029   3.330  15.860  0.2908 -0.1239  0.2026
98335W        W35829  28.217  32.373   4.670  0.0362  0.2807  0.1622
98336W        W35830  26.174  29.037   1.614  0.0462 -0.2093  0.0387
98337W        W35831   3.373  18.270  19.190 -0.1855  0.1850  0.1565
98338W        W35832  25.785  26.415  12.693  0.0540 -0.0173  0.1728
98339W        W35833  19.940  13.245   4.068 -0.0178 -0.3153 -0.0813
98340W        W35834  11.114  33.351  14.585  0.0058 -0.0692 -0.2209
98341W        W35835  28.618  24.122  14.479  0.1221  0.1271 -0.0105
98342W        W35836   0.348  20.367  13.922 -0.3811 -0.2960  0.1739
98343W        W35837   8.091   8.785  23.030 -0.2328  0.1108 -0.2110
98344W        W35838   7.516  32.539   4.846  0.1268  0.1228  0.1258
98345W        W35839   7.688  19.210   5.079  0.0007  0.0851  0.1836
98346W        W35840   4.817  26.050  23.566 -0.0537 -0.1565  0.1550
98347W        W35841  30.443   3.823  24.103 -0.1419 -0.1328  0.0695
98348W        W35842  15.317   4.286   4.494  0.1831  0.0402  0.1200
98349W        W35843   8.619  24.256   6.485  0.1565  0.2589 -0.2736
98350W        W35844  29.207   2.807  16.064 -0.1064 -0.2020  0.0784
98351W        W35845  18.451  25.620   6.631 -0.2391  0.1688 -0.0614
98352W        W35846   4.764  32.318  25.989 -0.1758  0.1658  0.0550
98353W        W35847  12.114  19.104  11.951  0.0583  0.1151 -0.2115
98354W        W35848  30.611  25.911   0.401  0.1987 -0.2653 -0.1048
98355W        W35849  17.415   7.681   2.552 -0.1874 -0.0592  0.2143
98356W        W35850  13.902  20.433  13.949 -0.0840  0.0238 -0.0127
98357W        W35851  12.936  25.459  13.574  0.1779  0.0137 -0.0706
98358W        W35852  13.756   0.496   0.081  0.1732  0.0587  0.0233
98359W        W35853  21.700  28.614  13.728  0.0733  0.2159 -0.0137
98360W        W35854   3.108  14.846  25.774  0.2480 -0.1893  0.1533
98361W        W35855  18.431   6.109   7.979 -0.1024  0.1079  0.0001
98362W        W35856  11.700   9.495  24.524  0.1709  0.3334 -0.0390
98363W        W35857  29.917  26.533  20.926 -0.0155  0.0004 -0.1023
98364W        W35858   8.335   4.954   5.872  0.1815 -0.1213  0.2932
98365W        W35859  15.375  28.833   0.121 -0.2994 -0.0762  0.2118
98366W        W35860  31.740  16.396  22.118  0.2101 -0.1431 -0.0920
98367W        W35861   0.780  34.928   3.459 -0.2511  0.2602 -0.0235
98368W        W35862  27.657   7.685   0.842 -0.1043  0.0977 -0.0853
98369W        W35863  23.496   4.009  21.155 -0.1417 -0.1676 -0.0890
98370W        W35864  34.775   2.698  16.085 -0.0400 -0.1290  0.2420
98371W        W35865  16.930  32.940  23.691 -0.0834  0.2783 -0.0413
98372W        W35866  12.653  24.353   8.268 -0.0310  0.1000  0.2840
98373W        W35867  14.619   5.966   8.811 -0.0598  0.0823  0.0665
98374W        W35868  12.085   2.299   9.186 -0.0249 -0.0748  0.0108
98375W        W35869  12.226   0.732   3.482 -0.0702  0.2338 -0.0503
98376W        W35870  17.027  25.775  12.739 -0.1510 -0.1006 -0.0294
98377W        W35871  33.361   4.105  15.672 -0.1802  0.1678 -0.0195
98378W        W35872  24.543  20.189  24.411  0.2542 -0.2641  0.3798
98379W        W35873  16.559  30.917  22.885 -0.0484  0.1865  0.2515
98380W        W35874  11.390  32.514  14.161  0.0644 -0.1083  0.3795
98381W        W35875  13.198  17.211  12.976  0.0219  0.0540 -0.0403
98382W        W35876   7.877  18.128  20.374 -0.0817 -0.1826  0.0469
98383W        W35877  21.656  18.061  19.035 -0.0829 -0.3483  0.1335
98384W        W35878  35.171   6.650  23.339 -0.2102  0.3182 -0.1856
98385W        W35879  10.234   4.430  14.472  0.1722 -0.2741  0.2559
98386W        W35880  13.395  28.940  13.917 -0.0895 -0.0410  0.1496
98387W        W35881  13.499   8.838   5.267  0.2793  0.0216  0.1285
98388W        W35882  28.358  22.975   6.657 -0.0202 -0.2524  0.0181
98389W        W35883  17.845  15.576  23.006 -0.0836 -0.0262  0.0279
98390W        W35884  12.743   0.913  24.619  0.1471  0.0352  0.0317
98391W        W35885   6.853  17.988  11.649 -0.2815  0.2041  0.1840
98392W        W35886   9.912  18.446   1.190 -0.0731  0.0502 -0.2246
98393W        W35887   3.027   2.291  21.057 -0.0952  0.2048  0.0711
98394W        W35888   4.474  24.284   0.561 -0.1786  0.0060  0.0387
98395W        W35889   9.182  11.134  19.703  0.1033  0.0437 -0.1484
98396W        W35890  15.887  26.651  11.039 -0.1403  0.3080  0.1249
98397W        W35891  24.851   1.931  25.761  0.2308  0.1478  0.0237
98398W        W35892   0.464  13.132  22.716  0.2095  0.1303 -0.2273
98399W        W35893  18.845   4.033  18.310  0.0744  0.2410  0.0896
98400W        W35894  18.919  16.663  19.116 -0.2216  0.0631  0.0779
98401W        W35895  34.041   3.189  17.438  0.1842 -0.1904  0.0353
98402W        W35896   4.634   1.578   6.253 -0.0093 -0.0074 -0.0591
98403W        W35897  15.867   6.276  11.857  0.3307  0.4272 -0.2797
98404W        W35898   1.521  17.241  25.359 -0.0892 -0.3405  0.0919
98405W        W35899  34.478  32.608  14.840 -0.0768 -0.0751 -0.0435
98406W        W35900  33.464  20.553   6.616  0.1367  0.1063 -0.2509
98407W        W35901  11.955   1.909   5.968  0.1428  0.0843  0.0718
98408W        W35902  11.884   2.276  23.936  0.2154  0.1132 -0.1414
98409W        W35903  19.200   2.538   6.043 -0.1275 -0.1677 -0.0844
98410W        W35904  11.387  17.507  25.628  0.0263 -0.3075 -0.1114
98411W        W35905  12.037  30.092  23.829  0.0371  0.0681  0.1751
98412W        W35906   9.125  15.253   4.884 -0.0307 -0.1587 -0.0204
98413W        W35907  11.307   0.269   1.088 -0.0427  0.0444  0.5140
98414W        W35908   0.979  29.309   0.544  0.5549  0.1477  0.3365
98415W        W35909  25.692  28.442   0.429 -0.0211 -0.3188  0.2863
98416W        W35910   9.088   6.189  26.085 -0.0724 -0.0383  0.1331
98417W        W35911  15.590  12.184  12.493  0.2300 -0.1440  0.1679
98418W        W35912  34.262   1.824   6.813  0.1795 -0.0163  0.0934
98419W        W35913  32.388  18.331  15.962 -0.1244  0.0909 -0.3133
98420W        W35914  20.803   9.468   8.321 -0.2404 -0.1193  0.1069
98421W        W35915  28.547  35.343  11.624  0.2522 -0.2818  0.1139
98422W        W35916  10.834   5.759   5.757  0.1812  0.0494  0.3331
98423W        W35917  19.071  16.592  10.447  0.3752 -0.1457 -0.2163
98424W        W35918  23.941  24.928  18.952  0.0669  0.1064 -0.0658
98425W        W35919  26.644  29.705   0.071 -0.2351  0.1127  0.0939
98426W        W35920   3.440  14.759  18.894  0.3012 -0.0143 -0.1347
98427W        W35921   0.072  12.162  21.503 -0.1333 -0.1539 -0.1228
98428W        W35922  25.602   6.010   0.028 -0.2916 -0.0862 -0.0630
98429W        W35923  33.172  28.090   1.845  0.1489 -0.1577  0.1950
98430W        W35924   7.841   4.139   3.461  0.2416 -0.0759  0.1312
98431W        W35925  18.201  27.734   4.068 -0.0243  0.0413 -0.3812
98432W        W35926  32.774  30.674  12.928  0.2002 -0.3077  0.0213
98433W        W35927   9.908  12.602  20.706  0.0088  0.1061 -0.1235
98434W        W35928  18.821  22.589   2.409  0.0692  0.1945  0.0451
98435W        W35929  10.941  12.326   8.725  0.0592 -0.0768  0.1989
98436W        W35930  20.613   2.647  17.848  0.1068 -0.0021 -0.1886
98437W        W35931  11.507   2.921   1.782 -0.2734  0.0764  0.1104
98438W        W35932  35.316  26.416  22.976 -0.0921  0.1429  0.2336
98439W        W35933   0.171  17.232  14.660 -0.0212 -0.4369  0.1362
98440W        W35934  10.311  24.225  24.512  0.0115  0.1009 -0.1031
98441W        W35935   8.592  15.821  19.469 -0.0722 -0.0941 -0.0825
98442W        W35936  30.022  24.503  18.681  0.1645 -0.0337 -0.0503
98443W        W35937  13.985   2.856  12.615  0.0728  0.0666  0.0212
98444W        W35938  28.867  22.072  22.578  0.1129  0.3527 -0.2261
98445W        W35939  25.916  10.393  15.670 -0.2565 -0.1555 -0.1428
98446W        W35940  19.132   2.904  21.820 -0.2677  0.1054  0.4254
98447W        W35941  28.870   7.426  23.019 -0.0909  0.4272  0.2206
98448W        W35942   2.735  21.316  15.208  0.3049  0.1267 -0.2199
98449W        W35943   6.489  28.181  22.206  0.3078 -0.2714  0.1152
98450W        W35944  21.427  28.332  23.869 -0.1214 -0.2152  0.1395
98451W        W35945  10.934  35.140  24.375 -0.4929 -0.1033 -0.0432
98452W        W35946  21.283   2.681   5.014  0.0727  0.0953 -0.1163
98453W        W35947   5.289  19.216   5.560 -0.0844  0.1037  0.0931
98454W        W35948  32.405  35.093  21.025 -0.0061  0.1521  0.1036
98455W        W35949  10.438  11.969  26.250 -0.0018  0.0193  0.0450
98456W        W35950  34.585  31.784   0.120  0.1056  0.1999  0.2036
98457W        W35951  10.422  18.108  10.609  0.0909 -0.1426  0.0394
98458W        W35952   4.199   2.191  20.521 -0.1813  0.0408  0.2532
98459W        W35953  15.866  31.047  24.432 -0.0146  0.0469 -0.1434
98460W        W35954  11.293   0.756   5.068  0.1293 -0.1124  0.1168
98461W        W35955   2.208   9.041  16.716 -0.2117  0.0819  0.1630
98462W        W35956  12.916  32.910   9.152 -0.2755  0.1045  0.0132
98463W        W35957  30.534  14.533  11.206  0.1423 -0.2383  0.0960
98464W        W35958  19.839  23.841   1.576  0.0355 -0.1074 -0.2210
98465W        W35959   8.835   7.794   6.298 -0.1053 -0.1329  0.0802
98466W        W35960   9.419  19.795  13.467  0.2875  0.0102  0.2570
98467W        W35961  16.308  27.725   8.442 -0.1552  0.0662  0.0665
98468W        W35962  15.177   3.396  18.987 -0.3119 -0.2959 -0.2288
98469W        W35963  11.923  27.759   3.480 -0.3699  0.2775 -0.0272
98470W        W35964  22.954   6.201   3.105  0.1785  0.1180  0.1921
98471W        W35965   6.495  10.344  23.700  0.1207 -0.0030 -0.0118
98472W        W35966   9.833  16.822   6.656 -0.1456 -0.0942 -0.0719
98473W        W35967   5.165  30.261  26.108 -0.1120 -0.0279  0.0130
98474W        W35968   1.025  28.764  22.228 -0.0370 -0.5089  0.2065
98475W        W35969  19.741  19.786  24.594  0.3492  0.0859 -0.0816
98476W        W35970  23.710  15.022  22.038 -0.2866  0.1605 -0.0635
98477W        W35971   7.657  16.298  25.683  0.2039  0.2181 -0.0138
98478W        W35972  27.570   9.953   8.102  0.1424  0.0347  0.1428
98479W        W35973  12.297  27.125   1.288 -0.1870 -0.0523  0.0089
98480W        W35974  10.266  20.597   7.029  0.1452  0.0442 -0.1214
98481W        W35975  27.898  12.715  22.034 -0.0528 -0.1312 -0.1671
98482W        W35976  24.948  17.941  10.870 -0.1151  0.1048 -0.0178
98483W        W35977   2.849   3.134  17.126 -0.0012 -0.1759  0.0662
98484W        W35978  22.721   8.832  24.741  0.2962 -0.4189 -0.1621
98485W        W35979   4.146   3.907  22.090 -0.1302  0.0361  0.2124
98486W        W35980  20.805  21.343   4.433 -0.0255  0.1092 -0.2469
98487W        W35981  13.888   5.325   3.666 -0.0006 -0.3011 -0.1176
98488W        W35982  28.485  31.095  23.496 -0.2453 -0.3054  0.0679
98489W        W35983  12.139   8.913  12.092  0.0251  0.0347 -0.3032
98490W        W35984   8.518  27.094  23.516  0.3579 -0.1186  0.0612
98491W        W35985  22.379  23.835  18.262 -0.0116 -0.0444  0.2348
98492W        W35986  18.612   1.680   6.463  0.1838  0.4425 -0.0486
98493W        W35987  10.692  20.611   4.936 -0.2945 -0.0768  0.3889
98494W        W35988  31.731   9.438  14.331 -0.1983 -0.2013  0.1292
98495W        W35989   9.712  32.048   8.227 -0.1987 -0.0657  0.0104
98496W        W35990  13.936   8.503   3.409  0.0745 -0.0777 -0.0399
98497W        W35991  31.538  11.720  11.454 -0.0456 -0.1227 -0.2761
98498W        W35992  20.611   3.721  20.543  0.0802  0.3449 -0.0259
98499W        W35993  13.086  23.993  24.120  0.0332 -0.3418 -0.0330
98500W        W35994  29.531  16.894  18.868 -0.1184  0.0254  0.2161
98501W        W35995  18.438  35.142  19.131  0.4884 -0.1960 -0.2437
98502W        W35996  21.039  30.082  22.366 -0.0023  0.1065 -0.3130
98503W        W35997  33.231   1.853  14.313  0.0471  0.0977 -0.2032
98504W        W35998   2.877  23.557  19.153  0.2557 -0.1217  0.0716
98505W        W35999  31.811  27.833   0.939  0.0289 -0.0843  0.0522
98506W        W36000  30.703  24.203  15.280  0.2030 -0.1074  0.1078
98507W        W36001  24.305  33.018  23.121  0.2373 -0.4310 -0.2005
98508W        W36002   0.990   5.481  21.342 -0.1515  0.2853  0.1313
98509W        W36003   0.168   1.903  18.321  0.0955 -0.0633 -0.2868
98510W        W36004  19.058  33.381   6.772  0.1787 -0.2845  0.2049
98511W        W36005   4.115  14.690  24.096 -0.1732 -0.0195 -0.0098
98512W        W36006  19.542   7.918   8.290 -0.3660 -0.2688  0.0313
98513W        W36007  33.981   9.705  12.078  0.0644 -0.1627  0.1702
98514W        W36008   7.855  14.486  22.990  0.0336 -0.0571 -0.0900
98515W        W36009  15.984  10.396  22.893 -0.0852  0.0526 -0.0066
98516W        W36010  11.074  21.188  25.367  0.0077  0.0189  0.0377
98517W        W36011  20.412   9.348   7.239  0.1668  0.0198 -0.4190
98518W        W36012  11.765  30.067  22.224 -0.0745  0.0814  0.1924
98519W        W36013  31.432   9.251  21.439  0.1194 -0.0814 -0.1238
98520W        W36014  32.461  22.313  17.451 -0.0836  0.2746  0.4991
98521W        W36015  28.506   4.962  19.781  0.1696  0.2716 -0.3131
98522W        W36016  18.562  23.876  26.097 -0.1393 -0.0232 -0.0570
98523W        W36017   7.678   3.806   5.117 -0.1220 -0.2308  0.0435
98524W        W36018  35.157   6.471  25.888  0.3145  0.0506  0.0462
98525W        W36019  11.367   1.697  23.382 -0.1699 -0.2261 -0.0440
98526W        W36020   2.936  19.614   2.114 -0.0705  0.1433 -0.3655
98527W        W36021   9.089  31.917  10.776  0.1359  0.0114 -0.0429
98528W        W36022   7.095  16.842  23.846  0.0229 -0.0953  0.0323
98529W        W36023  22.453   7.804   4.468 -0.0334  0.0213  0.1075
98530W        W36024  35.310  32.639   7.851 -0.1298  0.2339  0.1235
98531W        W36025   5.778   5.546   1.459  0.1507  0.0202 -0.2104
98532W        W36026  30.784   8.007  23.247  0.1574 -0.3491 -0.0519
98533W        W36027   7.814  25.450  23.771  0.2012 -0.0542 -0.0299
98534W        W36028   9.901   7.183  10.732 -0.5660  0.0856  0.0773
98535W        W36029  35.159  27.618  22.980 -0.0988  0.0460 -0.2136
98536W        W36030  15.833   8.771   8.705 -0.3345  0.0060  0.2577
98537W        W36031  21.992  11.757  15.246 -0.0049  0.1476  0.0038
98538W        W36032  22.583  28.230   0.648 -0.2276  0.0777 -0.0031
98539W        W36033  31.286   8.322  18.299 -0.0963  0.0688  0.3637
98540W        W36034  30.976  31.425   1.023  0.0082  0.1011 -0.0796
98541W        W36035  34.311   4.258  16.312 -0.0223  0.3521  0.1757
98542W        W36036  13.213   6.663  21.236  0.1276  0.1529 -0.0116
98543W        W36037   3.954  10.160  24.930  0.0904  0.0409 -0.0945
98544W        W36038  19.909  32.741  22.699 -0.2574 -0.0511  0.1896
98545W        W36039  22.676  31.912  23.668  0.0520 -0.3496 -0.0216
98546W        W36040  17.370  15.317  22.317  0.0516  0.1970  0.0682
98547W        W36041   1.619   4.032  20.077 -0.1230 -0.3729  0.1557
98548W        W36042   0.755   5.259  25.687  0.1698  0.2777  0.2626
98549W        W36043  17.888  18.878   0.745 -0.1469 -0.0256 -0.0136
98550W        W36044   1.201  14.335  13.946  0.1391 -0.1444 -0.1663
98551W        W36045  17.259   8.986  11.956  0.4791  0.1629  0.0264
98552W        W36046  14.474  20.393   0.149  0.0601 -0.3279  0.0715
98553W        W36047  16.267   4.593   0.604 -0.0184  0.0501 -0.0243
98554W        W36048   1.186  30.642  19.534  0.1509 -0.0911 -0.0504
98555W        W36049  28.839  28.779  23.045 -0.1740  0.0352 -0.2315
98556W        W36050  21.640  15.820  19.271  0.0044  0.2083  0.0250
98557W        W36051   8.094  18.713   3.808  0.0568  0.0522  0.2053
98558W        W36052  19.839  17.664   5.710  0.0745  0.0738  0.0730
98559W        W36053  22.012  33.314  23.694  0.1808 -0.0772 -0.0985
98560W        W36054  28.376  19.410   7.011 -0.0893 -0.0100 -0.1783
98561W        W36055  25.267   0.709  17.525  0.2955 -0.1381 -0.3056
98562W        W36056  13.289  23.839  15.573 -0.0277  0.1521 -0.1021
98563W        W36057   6.478  23.197  11.088 -0.3137  0.0878  0.1903
98564W        W36058   0.216  21.288  24.576  0.0725  0.1209 -0.1223
98565W        W36059  17.558  11.573  18.966  0.5017  0.4042 -0.0080
98566W        W36060  32.787  32.013   6.523 -0.0372  0.1621 -0.3028
98567W        W36061  30.335  11.878   8.664 -0.1986 -0.0193  0.0729
98568W        W36062  12.174  13.394   8.425 -0.0230 -0.3280 -0.1314
98569W        W36063  18.380  10.794   5.813  0.4608  0.0305 -0.1845
98570W        W36064  14.485   1.787  24.406  0.1259  0.1814  0.0108
98571W        W36065  25.270  17.457  13.374  0.1763 -0.3912  0.1820
98572W        W36066  26.729  32.425  15.625 -0.0589 -0.1504  0.2454
98573W        W36067  32.333  28.225  20.005  0.2871 -0.0583 -0.1372
98574W        W36068  27.405   3.481   4.337 -0.1361 -0.0830 -0.0327
98575W        W36069  27.725  33.723  24.455  0.3842 -0.1248  0.0727
98576W        W36070  28.208  34.792  18.475  0.1326 -0.1037 -0.0679
98577W        W36071  33.641  23.015  24.132  0.2977  0.3305 -0.1484
98578W        W36072  22.178  30.007  24.455  0.2406  0.3471  0.2422
98579W        W36073  16.639  18.866  25.174  0.3689 -0.0190 -0.0089
98580W        W36074  21.980   0.116  16.344  0.0746 -0.0497 -0.0811
98581W        W36075   7.815  20.222  10.374  0.1230  0.0990  0.4091
98582W        W36076  30.665   0.322  13.298 -0.2045 -0.1420  0.3322
98583W        W36077  12.991  26.173   2.473  0.1262 -0.2031  0.1326
98584W        W36078  18.484  14.679   0.238  0.4286 -0.3997 -0.2548
98585W        W36079  30.424  14.837  13.873 -0.3957 -0.2118  0.0080
98586W        W36080  23.484   9.654  18.964  0.1771 -0.0970 -0.1728
98587W        W36081  24.936  26.543  14.892  0.1797 -0.0649 -0.0912
98588W        W36082  30.891  27.189   0.201  0.0342 -0.1012 -0.2264
98589W        W36083  29.803  12.056  25.507  0.1355  0.2326 -0.1786
98590W        W36084  12.802  27.006   2.065  0.1925 -0.0010 -0.0160
98591W        W36085  18.513  34.532   3.653 -0.0494  0.0771  0.0272
98592W        W36086  21.328   4.185  17.913 -0.1175  0.2457 -0.2206
98593W        W36087  28.033  23.276  22.207 -0.1219 -0.3104 -0.1343
98594W        W36088  33.080  21.215  16.765 -0.0032 -0.0388  0.0144
98595W        W36089  14.326   6.229  22.489  0.3591 -0.2159  0.1973
98596W        W36090  28.541   7.565  19.596  0.1189  0.4354  0.0078
98597W        W36091   5.060   6.650  18.165  0.3263 -0.1237  0.2456
98598W        W36092  17.315  17.882  18.230 -0.0152  0.0555 -0.2006
98599W        W36093   9.527  13.139  10.132  0.0782  0.0268 -0.0000
98600W        W36094  12.288  29.308   7.140  0.0289 -0.0446 -0.2335
98601W        W36095  12.389  24.440   2.307 -0.2968 -0.1555  0.1378
98602W        W36096  22.465  29.008  21.951  0.1693  0.0475  0.1144
98603W        W36097   1.820   8.331  19.748  0.1382  0.3848  0.1275
98604W        W36098  30.764  20.790  20.298 -0.0367  0.1688 -0.1681
98605W        W36099  34.520  29.029   7.440 -0.0144 -0.0642  0.1614
98606W        W36100  12.996  32.608   3.392  0.4348 -0.2219  0.0158
98607W        W36101  14.841   9.131  22.167  0.0208  0.2029  0.0323
98608W        W36102  20.799  21.277  25.221  0.1359  0.0826 -0.1847
98609W        W36103   0.456  18.740  21.675  0.2206 -0.2504 -0.1905
98610W        W36104  26.214   6.762  10.194 -0.1290  0.1717  0.0615
98611W        W36105   0.647   8.293  18.564 -0.1297  0.0208 -0.0528
98612W        W36106  33.608  32.929  23.611  0.0722 -0.2587 -0.2782
98613W        W36107  26.232  28.529  23.484  0.1558  0.3433  0.0043
98614W        W36108   2.847  20.411  14.986  0.3844  0.0892 -0.0859
98615W        W36109   8.593  22.995  25.178  0.0191  0.0440  0.2294
98616W        W36110  28.617   9.597  22.031  0.0588  0.0088  0.0218
98617W        W36111  28.725  27.732  19.651 -0.0829  0.1253 -0.1288
98618W        W36112  32.428  20.984  18.658  0.1306 -0.2743 -0.0597
98619W        W36113  24.183   0.676   3.456 -0.0367  0.1042 -0.2493
98620W        W36114  33.658   1.507  13.544  0.1816  0.2038  0.2780
98621W        W36115  11.071  28.939  13.409  0.1607 -0.2776  0.1208
98622W        W36116   1.600  13.388  21.330 -0.1714  0.0758 -0.0472
98623W        W36117  28.673  16.733  25.339 -0.0053  0.0214 -0.1551
98624W        W36118  33.982   9.690  24.230  0.1537 -0.3637  0.0784
98625W        W36119  26.655  30.808  12.485 -0.1765 -0.0038 -0.0346
98626W        W36120   2.065  32.685  17.675 -0.0057  0.2475  0.0123
98627W        W36121   0.748   0.184   4.888  0.1726 -0.3509 -0.1519
98628W        W36122  10.685  18.130   7.443  0.0535  0.3473 -0.2885
98629W        W36123  16.020  12.210  25.302 -0.3975 -0.2764 -0.1779
98630W        W36124   4.218  30.199  12.753 -0.1358  0.0501  0.3379
98631W        W36125  31.210  17.543   4.437  0.0585  0.2995 -0.1099
98632W        W36126  26.342  24.758  19.620 -0.1050 -0.0754  0.2558
98633W        W36127   2.377   8.755  17.131 -0.0988 -0.0824 -0.2966
98634W        W36128  14.378  19.184  22.986 -0.1975 -0.0327 -0.0545
98635W        W36129  10.278  14.875  24.740 -0.2957 -0.0177  0.1651
98636W        W36130  13.428  22.155   8.782 -0.1295  0.1840 -0.0434
98637W        W36131  17.172  19.080  22.122 -0.0997  0.2049  0.1408
98638W        W36132  11.650  27.105  10.114  0.5926 -0.0642 -0.2418
98639W        W36133  15.993  12.080  20.051  0.1397 -0.0938  0.3489
98640W        W36134   5.630  25.439  21.482 -0.1582  0.1835  0.0503
98641W        W36135  10.107  17.679  20.397  0.1411 -0.1945  0.1403
98642W        W36136   6.114  21.549   2.612 -0.2211 -0.1331  0.3366
98643W        W36137  16.238  29.584  10.728 -0.0317  0.0445 -0.1264
98644W        W36138   9.606  14.187   2.460  0.1148 -0.3928 -0.2942
98645W        W36139  18.274   1.494   7.681 -0.0966 -0.0744 -0.0323
98646W        W36140  17.082  31.302   2.117  0.2842 -0.0235 -0.4715
98647W        W36141  24.007  17.531  11.518 -0.1249  0.2047 -0.1085
98648W        W36142   5.590   1.591  24.956  0.1814  0.2410  0.0757
98649W        W36143   9.450  28.272   2.920  0.1126  0.1485 -0.3405
98650W        W36144  20.718  22.291   1.960  0.2220 -0.3562  0.0461
98651W        W36145  10.329   4.907  10.933  0.0685 -0.4030  0.0567
98652W        W36146   7.148  32.529  11.930  0.2617 -0.1260 -0.4109
98653W        W36147  10.120   7.036   1.481 -0.0844  0.3382  0.0710
98654W        W36148  20.410  28.483   3.960  0.4555  0.1113 -0.3766
98655W        W36149  11.237   8.385  23.533 -0.0461  0.0181  0.0429
98656W        W36150   7.760   7.859   7.723  0.1053  0.1655 -0.0615
98657W        W36151  12.436  33.774   6.900  0.1413 -0.0211  0.0274
98658W        W36152  11.789  12.765   6.420 -0.1206 -0.2259  0.1043
98659W        W36153  20.689  32.626  24.735  0.1879  0.0687 -0.0346
98660W        W36154  11.716  32.605  14.499 -0.1353  0.1062  0.2512
98661W        W36155  23.424   5.453  16.916  0.1984 -0.2373  0.2452
98662W        W36156   4.589  24.752  21.176  0.2232 -0.2730 -0.2577
98663W        W36157  31.461  17.535  13.582  0.1353 -0.0235 -0.0661
98664W        W36158  16.957  18.253  21.569  0.1838 -0.1538 -0.1203
98665W        W36159  27.632  24.938  11.752 -0.2586 -0.1295  0.0759
98666W        W36160  14.726  26.471   0.146  0.5636 -0.1276 -0.1039
98667W        W36161  28.492  11.522   7.660  0.2161  0.1281  0.2501
98668W        W36162   8.618   1.526   5.239  0.0618  0.2751  0.2903
98669W        W36163  19.061  13.967  17.209 -0.2452 -0.1543 -0.3177
98670W        W36164  30.356  24.291   9.498 -0.1938  0.0608 -0.1076
98671W        W36165  27.984  28.618  24.102  0.1907 -0.1738 -0.0888
98672W        W36166  34.600   4.358   5.771 -0.2503  0.1763 -0.1484
98673W        W36167   7.360  19.203  20.758  0.0402 -0.0935  0.1473
98674W        W36168  27.089  31.649  14.339 -0.2653  0.0284 -0.4480
98675W        W36169   5.292   9.088   4.247  0.1728  0.3176  0.0906
98676W        W36170  12.366  13.207   9.402  0.0937 -0.4277 -0.1162
98677W        W36171   6.418   9.120  10.551 -0.2990 -0.1497  0.0486
98678W        W36172  20.901  15.922   3.846 -0.0980 -0.2420  0.1115
98679W        W36173  31.502  25.453  16.086  0.3108 -0.2227 -0.0568
98680W        W36174  19.358  12.954  25.046  0.1532  0.0871 -0.2191
98681W        W36175   4.379   8.583   4.687  0.0818 -0.2817  0.1894
98682W        W36176   3.038  33.111   8.491 -0.0849 -0.1376  0.0180
98683W        W36177  18.209  15.721   5.473 -0.2638 -0.2274 -0.1848
98684W        W36178  10.751  18.814  23.170 -0.0479 -0.0560  0.2156
98685W        W36179   1.375  13.553   2.458 -0.0063 -0.0664  0.0391
98686W        W36180  32.886  30.435  15.215 -0.1299 -0.2757  0.2072
98687W        W36181   2.089  12.799  17.557  0.2863  0.0228  0.3301
98688W        W36182  33.408   3.339  20.626  0.1330  0.1312 -0.2619
98689W        W36183   8.762  29.366   0.910 -0.1188 -0.0159  0.0550
98690W        W36184  11.522   1.906   1.846 -0.1966  0.3765  0.1309
98691W        W36185  12.053  26.338   4.328 -0.2063 -0.0077 -0.0381
98692W        W36186  27.276  10.227  19.362 -0.1802 -0.1961 -0.0370
98693W        W36187   6.800  23.513   6.989 -0.1360 -0.1820 -0.1235
98694W        W36188  29.307   5.229  20.987 -0.4379 -0.0597 -0.1555
98695W        W36189  21.182  26.411  20.558  0.2147  0.2039 -0.3434
98696W        W36190   1.916  12.833  18.139 -0.0794 -0.2684 -0.1196
98697W        W36191  11.452  24.585  22.811  0.1626  0.1495  0.1786
98698W        W36192  10.221  13.566   3.932  0.1471  0.3090 -0.0152
98699W        W36193  11.734  20.435   2.901  0.1018 -0.1346 -0.1683
98700W        W36194   8.219   3.176  25.922 -0.0518 -0.0102  0.0670
98701W        W36195   7.018  25.202   5.759 -0.0565  0.0917  0.2791
98702W        W36196  16.415  17.306   1.548  0.0791  0.0202 -0.3478
98703W        W36197   4.918  31.921  10.873  0.2248  0.1107  0.0165
98704W        W36198  18.970   6.775   6.735  0.2123  0.0004 -0.2437
98705W        W36199  30.845  20.956  18.336  0.2431 -0.0502 -0.0320
98706W        W36200  21.697  34.975   2.857  0.3565  0.0462  0.0474
98707W        W36201  31.389   8.757  11.330  0.1150  0.2499 -0.1056
98708W        W36202   3.326  22.239   2.243 -0.2376 -0.0720  0.0160
98709W        W36203  10.501  11.438   4.549  0.1797 -0.3334  0.4297
98710W        W36204  16.610   7.067   4.798 -0.1964 -0.0989 -0.2642
98711W        W36205  10.536   4.699  10.524 -0.1717  0.0194 -0.0514
98712W        W36206   3.443   5.292  16.653 -0.2289 -0.2637  0.3827
98713W        W36207   7.979  31.077   0.592  0.0897 -0.0983 -0.1009
98714W        W36208   7.708   7.071  20.871 -0.0891 -0.1354 -0.1451
98715W        W36209  35.224  22.650  23.135  0.1745 -0.1204  0.3985
98716W        W36210  18.700  30.851  24.798 -0.0538 -0.0704 -0.1804
98717W        W36211  14.759  20.981  24.623  0.1365 -0.2298 -0.0179
98718W        W36212  21.824  14.720  17.130 -0.1755  0.3842  0.1438
98719W        W36213  34.756   8.768   3.117 -0.4500  0.1353  0.0965
98720W        W36214  24.290  10.920   2.750 -0.3630 -0.2427 -0.2207
98721W        W36215  15.255  33.644   9.589 -0.0029  0.0264  0.3866
98722W        W36216  24.456   6.618  13.421  0.1710  0.0539  0.0906
98723W        W36217  29.309   5.232  11.525 -0.1651 -0.0707 -0.2309
98724W        W36218  24.984   1.541   5.130 -0.0210  0.2261 -0.0452
98725W        W36219   1.723   4.649   0.485  0.3515  0.2509  0.1006
98726W        W36220  33.508  28.950   2.832  0.1445  0.2295  0.2252
98727W        W36221  16.083  19.610   5.802 -0.2639  0.0848 -0.1875
98728W        W36222  10.991   1.283   0.706  0.0309 -0.2338 -0.1122
98729W        W36223   5.623   7.159   5.026 -0.1285  0.0131  0.1784
98730W        W36224   9.221  14.613  10.683  0.1192  0.0009  0.1079
98731W        W36225  25.101  10.625  11.589 -0.4466  0.2152  0.0186
98732W        W36226   4.003  26.008   7.887  0.0331  0.1120  0.0583
98733W        W36227   8.456  31.955   4.425 -0.0329 -0.1199 -0.0140
98734W        W36228   3.014  32.792  24.343 -0.0257  0.1778 -0.1420
98735W        W36229   3.175   3.749   2.491  0.1801  0.0739 -0.1619
98736W        W36230  21.571  12.858  18.405  0.2861  0.0802 -0.0264
98737W        W36231   7.193   1.457   6.956 -0.1239  0.2528  0.1298
98738W        W36232   7.741   1.058  20.567 -0.2286  0.1853  0.0242
98739W        W36233  11.034  20.522   7.706 -0.2004  0.0031 -0.1714
98740W        W36234   6.340  10.475   9.542 -0.0062 -0.0789 -0.3014
98741W        W36235  16.491  29.815   4.566  0.1098  0.0385 -0.0830
98742W        W36236  16.316  24.572  10.269 -0.1392  0.0157  0.0062
98743W        W36237  34.820  31.324   2.076  0.3223  0.1017  0.0207
98744W        W36238  10.408  22.043  15.148  0.1058 -0.1461  0.0473
98745W        W36239   6.154  14.500   2.019 -0.0184  0.0880 -0.0101
98746W        W36240  16.110  13.755   6.574 -0.2083 -0.0796 -0.1112
98747W        W36241  11.562  16.238   1.038  0.0511  0.2533 -0.2630
98748W        W36242  19.769  23.379  24.011 -0.3724 -0.2005 -0.4488
98749W        W36243  13.123  24.582   9.079 -0.1091 -0.2958 -0.0161
98750W        W36244  13.139   8.398  12.288  0.1039 -0.1184  0.1207
98751W        W36245   2.794  20.914  12.986  0.1779 -0.0254  0.3127
98752W        W36246   5.761   8.319  21.475 -0.0098 -0.1828 -0.0994
98753W        W36247  27.817  15.092   8.123 -0.0484  0.0517 -0.3116
98754W        W36248  27.704  30.937   3.113 -0.0553  0.2260  0.0521
98755W        W36249  20.161  25.352   1.474 -0.0029 -0.4102  0.1806
98756W        W36250   0.872  25.548   1.398  0.0600  0.1922 -0.1160
98757W        W36251   7.133  16.359  24.236 -0.1708  0.2253  0.0109
98758W        W36252  10.526  33.653   7.944 -0.1489 -0.1356 -0.0916
98759W        W36253   7.473  28.673  14.345 -0.2193 -0.1972 -0.2701
98760W        W36254  15.885   6.103  10.373  0.1111 -0.0965 -0.2348
98761W        W36255   4.787  14.671   1.888 -0.0572  0.0889 -0.2174
98762W        W36256  34.838   4.218  19.682 -0.3670  0.1870  0.0268
98763W        W36257  16.917   7.629   2.569  0.2440 -0.5260  0.1246
98764W        W36258  29.756  33.866   2.403 -0.1583 -0.0594 -0.4338
98765W        W36259  15.123  27.694   5.641 -0.3107  0.5167  0.0078
98766W        W36260   4.411   2.039   6.184  0.0285  0.0546  0.1415
98767W        W36261   4.775  34.188  23.366 -0.2417  0.0182 -0.2421
98768W        W36262  26.416  16.164  23.463  0.0201  0.1497  0.2425
98769W        W36263  24.154  28.960   4.787  0.0439 -0.0501  0.0723
98770W        W36264  14.009  17.533  21.186 -0.1466 -0.1498  0.0269
98771W        W36265  24.250   9.256  14.638  0.1803  0.1081 -0.0950
98772W        W36266   9.767  15.285   1.987  0.1852 -0.3458 -0.1895
98773W        W36267  23.591  21.421  14.090  0.1392 -0.0787 -0.2885
98774W        W36268  26.853   9.451  25.752  0.0599  0.2507 -0.0222
98775W        W36269  19.077  19.387   4.290 -0.3130 -0.0106 -0.0365
98776W        W36270   3.836  25.837   5.675 -0.0494 -0.2458  0.3624
98777W        W36271  19.751  17.257   6.602 -0.0952  0.0723 -0.0971
98778W        W36272   7.392   7.327   9.456  0.1936 -0.1268  0.0567
98779W        W36273  23.367   1.698   3.023 -0.2743  0.0660 -0.0566
98780W        W36274  16.757  34.481  10.546  0.0471  0.0855 -0.2730
98781W        W36275  22.436   8.524  17.767  0.2062  0.2687  0.1656
98782W        W36276  30.389   6.575  10.802 -0.0645 -0.1435  0.0962
98783W        W36277   7.248   1.174  12.173 -0.1472  0.0231  0.0064
98784W        W36278  23.581  32.407  13.157 -0.2729  0.0211  0.0748
98785W        W36279  27.405   6.301  20.967 -0.1604  0.3470 -0.1468
98786W        W36280   3.152  21.160  21.452  0.2212  0.1962 -0.2360
98787W        W36281   3.768  11.445  25.035 -0.1225  0.0914 -0.0102
98788W        W36282  21.803  33.128   1.581  0.0464 -0.1370  0.0026
98789W        W36283  28.119  26.099  21.055  0.4134 -0.0557 -0.1646
98790W        W36284  29.342  24.667  19.255  0.0550  0.1493 -0.0952
98791W        W36285  22.440  15.859   1.624 -0.3327  0.0869  0.0637
98792W        W36286   9.231  12.260   3.718  0.3066  0.2582 -0.1179
98793W        W36287  19.209  17.154  19.826 -0.2736 -0.1173 -0.1015
98794W        W36288   7.343  19.126   0.482 -0.2612  0.3301  0.0262
98795W        W36289  24.536  34.530  17.555 -0.3502 -0.2152  0.0896
98796W        W36290   6.029  25.767  10.456 -0.0602 -0.0782 -0.3766
98797W        W36291  13.150   2.712  11.840  0.2643  0.2687 -0.0410
98798W        W36292  18.815  15.876   4.303 -0.0042 -0.1938 -0.2300
98799W        W36293  14.729   3.993  25.134  0.0714 -0.0371  0.3977
98800W        W36294   8.586  23.774   0.043 -0.0328 -0.1039  0.1469
98801W        W36295  25.092  12.830   9.900 -0.1043 -0.2494 -0.0810
98802W        W36296  10.098  24.971  16.373 -0.3919 -0.0365 -0.2194
98803W        W36297   5.810  16.126  17.733  0.0770  0.2764  0.1168
98804W        W36298  30.576   5.868  23.765  0.1015  0.3316  0.1607
98805W        W36299  30.856  22.819  22.237 -0.3361 -0.1123  0.3119
98806W        W36300  16.280  15.503   5.358  0.1841  0.0719 -0.2274
98807W        W36301  11.219  21.786  15.580 -0.3216 -0.0188  0.1144
98808W        W36302  19.930  18.993   6.211 -0.1685  0.1204 -0.1845
98809W        W36303  20.123  10.734   3.157 -0.2938  0.0280 -0.2495
98810W        W36304  25.396   7.236   2.924 -0.0804  0.1010 -0.0056
98811W        W36305   4.872  26.958  20.574 -0.0826 -0.0072 -0.0424
98812W        W36306   8.381  15.783   6.360  0.0669 -0.2525  0.1056
98813W        W36307   7.092  33.155  10.446 -0.1145 -0.0195  0.2187
98814W        W36308  18.325  11.938  12.290  0.2058 -0.0343 -0.2017
98815W        W36309  27.146  33.535   5.705  0.1169 -0.1709 -0.1536
98816W        W36310  16.482  22.054  24.130  0.2530  0.2189  0.0891
98817W        W36311  10.604  12.895  21.566 -0.1051  0.1406  0.1015
98818W        W36312  29.154  15.853  22.842  0.1470  0.0062  0.0530
98819W        W36313   3.277  24.729  25.926 -0.1018 -0.3107  0.1072
98820W        W36314  24.033  13.585  18.893 -0.0640  0.0826 -0.3565
98821W        W36315  11.079  28.028  25.720 -0.0083  0.0639 -0.0083
98822W        W36316  10.956   8.293   6.344 -0.0517 -0.1249 -0.0530
98823W        W36317   1.163  14.288  18.873 -0.1668  0.2156 -0.2335
98824W        W36318  14.477   1.387  24.044  0.0329 -0.0630  0.3356
98825W        W36319  33.683   4.582  25.182 -0.0707 -0.0045  0.4535
98826W        W36320  25.354   7.351  14.776  0.1224 -0.1020 -0.0681
98827W        W36321  27.938  34.413   5.352  0.1644 -0.0117 -0.3704
98828W        W36322  29.269  19.228   6.993 -0.0132 -0.0805 -0.2006
98829W        W36323   7.832  16.802  11.613 -0.0590  0.1618  0.1641
98830W        W36324  12.503  19.683   9.001 -0.0861 -0.0162  0.3305
98831W        W36325  29.009   8.497  18.796  0.1762  0.0358  0.0027
98832W        W36326  26.084  21.370  18.172 -0.0371 -0.0306 -0.1259
98833W        W36327  29.406  10.014  20.539  0.0276 -0.1944 -0.0985
98834W        W36328  26.210  30.691  24.951 -0.0242  0.0821  0.3439
98835W        W36329  20.564  30.612  25.915 -0.0666  0.3038  0.0209
98836W        W36330  24.315  34.319   0.946  0.1256  0.3137  0.2148
98837W        W36331  19.425  12.025   5.436 -0.0357  0.1738 -0.2176
98838W        W36332  12.839  26.747   2.545  0.3134  0.1090 -0.1335
98839W        W36333  33.916   5.920  21.326 -0.1889 -0.2976 -0.2113
98840W        W36334  16.668  10.832   8.043  0.0348 -0.1937 -0.2057
98841W        W36335   6.927  32.459   5.979 -0.1881 -0.4654 -0.1802
98842W        W36336  27.618  26.891  25.503  0.1417 -0.2495  0.0652
98843W        W36337  16.437   5.763   4.937  0.2157  0.1331  0.1075
98844W        W36338  20.222   2.094   7.781  0.1334 -0.0797 -0.2080
98845W        W36339  35.151  21.955   0.129  0.1073  0.1115  0.1107
98846W        W36340  35.193  30.850   8.617  0.2576 -0.0265  0.0022
98847W        W36341  22.857  22.849   0.503 -0.0234 -0.2576 -0.0631
98848W        W36342   1.339   6.016  18.585  0.1499 -0.0294  0.2977
98849W        W36343   8.302  22.672  23.815  0.1519 -0.0121  0.2000
98850W        W36344   4.206  10.841  17.222  0.0189 -0.0185 -0.1964
98851W        W36345  23.230  19.463   1.168  0.0948  0.1613 -0.1773
98852W        W36346   1.660  32.658   7.280 -0.2059 -0.0913  0.0898
98853W        W36347  13.192  10.487   1.621 -0.3574  0.0710  0.1578
98854W        W36348  34.411  31.453  18.282  0.0924 -0.2071  0.2215
98855W        W36349  25.370  27.337  11.855  0.1626  0.0032  0.1001
98856W        W36350  29.385  31.394   6.072  0.0546 -0.1462 -0.1054
98857W        W36351  26.115  20.448  21.313  0.0272 -0.1407 -0.3163
98858W        W36352  16.415  14.820   1.567  0.0456 -0.0130 -0.1031
98859W        W36353   6.384  31.189   9.928  0.0051  0.2306 -0.0291
98860W        W36354  13.095  23.708  23.121  0.2852 -0.2252 -0.2026
98861W        W36355   1.912  29.502   4.831  0.1401 -0.1434 -0.2070
98862W        W36356  12.228   8.913  10.459 -0.0105  0.0220 -0.0927
98863W        W36357  29.788  27.106  12.504  0.3843  0.3378 -0.0140
98864W        W36358  23.357  10.424  21.477  0.1322  0.1825 -0.0664
98865W        W36359  26.170  25.208  11.998 -0.0351  0.0869  0.0875
98866W        W36360   7.526  15.550   2.879 -0.0943  0.0743  0.0317
98867W        W36361  15.860  15.963  19.243 -0.0117  0.2927 -0.1390
98868W        W36362   0.300  27.722  25.187 -0.1180  0.3401  0.0611
98869W        W36363  12.262  17.700   1.257  0.2364 -0.0496 -0.2394
98870W        W36364  16.889  18.800  19.593 -0.0510  0.2596 -0.3117
98871W        W36365  33.829  23.130  13.152 -0.2633  0.1332  0.1025
98872W        W36366  22.517  11.789  14.823 -0.1339 -0.3195 -0.1713
98873W        W36367   9.804   5.542   6.514  0.2665 -0.3613 -0.1081
98874W        W36368  22.603  15.265  15.245 -0.1166 -0.1816  0.1294
98875W        W36369  32.891  33.938   4.228 -0.0796 -0.0081  0.2150
98876W        W36370  14.836   3.544  19.316  0.1383  0.2866 -0.0667
98877W        W36371  24.283   3.923  17.918  0.1920 -0.1431 -0.3353
98878W        W36372   1.902  15.386  20.216 -0.2031  0.2805 -0.0151
98879W        W36373  30.034  32.466   1.622  0.1179  0.0147 -0.1046
98880W        W36374   5.107  15.799   8.275 -0.1442 -0.0868 -0.1222
98881W        W36375   2.458  17.627   4.054 -0.2282 -0.2146  0.5822
98882W        W36376  10.055   0.466   5.986 -0.1935  0.1918  0.1653
98883W        W36377   0.827  23.021  13.105  0.0986 -0.3822 -0.4465
98884W        W36378   7.172  21.318   4.464 -0.1856 -0.1866  0.2086
98885W        W36379  24.948  12.946  18.035 -0.1683  0.1503  0.2149
98886W        W36380   9.285  24.410  16.149  0.1120 -0.0829 -0.3367
98887W        W36381  21.277  32.812   4.479 -0.3225 -0.0491  0.2265
98888W        W36382  34.641  13.308  20.864  0.0982 -0.1976 -0.1281
98889W        W36383  13.644  19.088  12.727  0.2209  0.2082 -0.1246
98890W        W36384  12.987  31.242   7.757  0.0949 -0.0008 -0.0395
98891W        W36385  28.155  16.903  12.448 -0.0232 -0.1617 -0.0801
98892W        W36386  11.196   9.691   0.070  0.0403 -0.1448 -0.0929
98893W        W36387  10.005   4.569   9.811  0.3390  0.2207  0.1085
98894W        W36388  28.321  35.119  20.056  0.0490  0.2111 -0.0565
98895W        W36389  24.889   7.153   2.504 -0.0282 -0.1587  0.1610
98896W        W36390  16.348  14.851   4.345  0.3872 -0.2666  0.3066
98897W        W36391  23.118   9.087  18.951 -0.1142 -0.4351 -0.0945
98898W        W36392  18.159   3.642  10.862  0.0075 -0.0551 -0.1421
98899W        W36393  26.620  18.610  20.463 -0.3871  0.2579 -0.1785
98900W        W36394  17.061  18.013  19.898 -0.1467 -0.1841 -0.0345
98901W        W36395  28.698   7.095  17.797  0.2336  0.1957 -0.1355
98902W        W36396   8.838   9.257   7.546 -0.1816  0.0605  0.4602
98903W        W36397  30.193  13.170  16.720  0.1816  0.2007  0.0191
98904W        W36398   3.790   9.544  15.748  0.1368  0.1014 -0.2005
98905W        W36399   7.740  29.546  21.696  0.2274 -0.0591  0.0862
98906W        W36400  10.364  29.693   0.906  0.0052 -0.0381 -0.2347
98907W        W36401   3.680   6.453  20.211 -0.2028 -0.3141 -0.0662
98908W        W36402  25.123   3.456  18.330  0.1327  0.2334  0.0204
98909W        W36403   1.036  23.843  21.495 -0.0150 -0.0750 -0.0989
98910W        W36404   2.378  32.705  11.678  0.0418 -0.0996  0.1144
98911W        W36405  25.538  30.743  21.585  0.0983  0.0813  0.2076
98912W        W36406   1.306  30.232   1.491 -0.0501 -0.0329  0.0481
98913W        W36407  14.855  22.257   0.964  0.1142 -0.0263 -0.1866
98914W        W36408  18.451   3.462  20.336  0.3274  0.1418  0.0079
98915W        W36409  24.291   2.894   6.684  0.0257  0.0634  0.4155
98916W        W36410  32.689  25.454  18.909  0.0224 -0.1253 -0.1286
98917W        W36411  28.572   7.161  19.312  0.1856 -0.0442  0.1056
98918W        W36412  27.119  32.289  16.572 -0.0583 -0.1729  0.0666
98919W        W36413  26.813  14.669  14.433 -0.0560 -0.0142  0.0769
98920W        W36414  11.601  32.248  24.909  0.0320 -0.0859  0.0558
98921W        W36415  10.826   9.759  23.732  0.3093 -0.0851  0.1179
98922W        W36416   5.248  31.337  21.925 -0.1527 -0.0300  0.2292
98923W        W36417   5.660  26.260  23.683  0.4431  0.0805  0.2132
98924W        W36418  28.332  20.650  19.967  0.1421  0.0523 -0.0601
98925W        W36419  19.849  20.004   4.193 -0.2916  0.3522  0.1644
98926W        W36420  13.172   6.809   4.452 -0.1009  0.1143  0.1338
98927W        W36421  28.132  25.665  21.798  0.1966  0.0426  0.2449
98928W        W36422  22.501  22.100  16.815  0.1373 -0.3551  0.0460
98929W        W36423  30.235   3.531  19.671 -0.0525 -0.1261  0.2132
98930W        W36424  30.776  34.499   5.883  0.0240 -0.0617  0.1526
98931W        W36425  11.965   1.064   9.184 -0.0529 -0.3835 -0.3388
98932W        W36426  35.346  21.280  11.520  0.0306  0.2759 -0.0037
98933W        W36427  30.408  12.255  25.872 -0.0182  0.1260 -0.2564
98934W        W36428   1.055   5.330   1.401  0.0659 -0.0475  0.1334
98935W        W36429  26.112  25.675  12.160  0.0018  0.3229 -0.2090
98936W        W36430   1.475  27.711   0.365 -0.0315  0.0250  0.2071
98937W        W36431  25.026  17.406  12.871 -0.2207  0.1415 -0.2264
98938W        W36432  27.344  32.606   1.821  0.0261  0.0658 -0.2063
98939W        W36433  30.099  12.308  20.473 -0.0748 -0.0235  0.0723
98940W        W36434  35.340  18.430  10.611  0.0622 -0.5549 -0.3311
98941W        W36435  10.727  13.402   6.179  0.0687 -0.0161  0.2244
98942W        W36436  22.962   5.686  23.801  0.2623  0.2473  0.1403
98943W        W36437   3.361   7.521   2.882  0.1215 -0.0891 -0.0562
98944W        W36438   6.180  17.896   0.065  0.0678 -0.0395 -0.2104
98945W        W36439  19.280   8.165   0.609 -0.1129 -0.3041 -0.1659
98946W        W36440  26.548   7.277  11.342 -0.0955 -0.1627  0.0353
98947W        W36441  34.208  28.990  14.228 -0.2749  0.1035  0.0095
98948W        W36442  13.214  18.585  22.290  0.1273  0.0331  0.3149
98949W        W36443  24.730  12.771  13.480  0.1391  0.0093  0.2191
98950W        W36444   8.921  10.741  20.359 -0.2256  0.3691 -0.0732
98951W        W36445  29.269   5.756  15.705  0.2229 -0.1266 -0.0961
98952W        W36446  13.525   4.124  25.720 -0.0581  0.1634 -0.2175
98953W        W36447   7.808   5.605   6.147  0.2340  0.0083  0.1051
98954W        W36448  30.380  19.941  10.818 -0.1544 -0.2929 -0.0219
98955W        W36449  32.872  14.411  25.740 -0.2060  0.0383 -0.1144
98956W        W36450  27.878  12.212  20.735  0.0511 -0.1105  0.0759
98957W        W36451   9.267   3.344   3.146 -0.0019  0.1009  0.1938
98958W        W36452  28.972  15.211   5.506  0.0714  0.1323 -0.3325
98959W        W36453  30.518   7.527  21.457 -0.3435 -0.2690 -0.2248
98960W        W36454   1.671   5.420  23.593 -0.0894 -0.3400 -0.2523
98961W        W36455  24.479  29.000  19.914  0.0813  0.0698 -0.0283
98962W        W36456  25.146   3.481  25.850  0.2319  0.0088  0.0251
98963W        W36457   3.787  12.171   0.199 -0.1349  0.4233  0.1363
98964W        W36458  14.954  13.097   4.095  0.1863 -0.3266 -0.3764
98965W        W36459  18.599   9.411  23.516  0.0165 -0.0380  0.1013
98966W        W36460   0.378  29.607   6.859  0.0568 -0.2755 -0.0779
98967W        W36461  21.095   6.051   2.961  0.1807 -0.3592  0.0504
98968W        W36462   1.722  31.107  18.240  0.3382  0.1858  0.1373
98969W        W36463  14.601   0.645  20.283  0.0995  0.1956  0.0666
98970W        W36464  29.601   4.453  15.469  0.0415 -0.0646  0.1075
98971W        W36465  27.742   2.378  20.902 -0.2214  0.2238  0.0241
98972W        W36466   5.492  21.457  20.713 -0.2380 -0.1341  0.3719
98973W        W36467   9.997  28.372   1.133 -0.3416 -0.0240  0.0231
98974W        W36468  10.000   2.161   2.538  0.1915 -0.3757  0.3702
98975W        W36469   9.509  23.553  10.863  0.2550 -0.2489 -0.0856
98976W        W36470   3.214  24.215  22.145 -0.0557  0.2047  0.0525
98977W        W36471  29.191  27.024  15.478  0.1162 -0.1110 -0.0143
98978W        W36472   9.972  19.373   5.865 -0.0833 -0.0263 -0.1962
98979W        W36473  34.119   7.534  20.297  0.2216 -0.2182  0.0123
98980W        W36474  22.963  14.909  24.994 -0.1691 -0.1414  0.1752
98981W        W36475  21.315  18.710  26.196 -0.0604  0.3227 -0.0530
98982W        W36476  33.022   2.533   0.388 -0.0244  0.0517 -0.0722
98983W        W36477  21.396  16.072  26.063  0.1625  0.0421 -0.2063
98984W        W36478  24.828  12.853  12.761 -0.2574  0.1408  0.2078
98985W        W36479   3.690  14.146   1.715  0.0825 -0.2782  0.1145
98986W        W36480  15.143  15.750  18.672 -0.3668 -0.2640 -0.0001
98987W        W36481  14.784  17.339  22.157  0.1557 -0.0267 -0.0826
98988W        W36482  20.455   7.305   3.346 -0.1330 -0.2017 -0.2180
98989W        W36483  27.275   3.804  18.108 -0.3423 -0.0588 -0.1120
98990W        W36484   6.522  16.060   9.325 -0.0189 -0.1026 -0.0380
98991W        W36485  20.755  15.966   5.790  0.3375  0.0101  0.2319
98992W        W36486  26.753  33.309  20.249 -0.4649  0.0736 -0.2766
98993W        W36487  18.584   6.994  21.892 -0.2087 -0.4435 -0.0576
98994W        W36488   2.999   9.802  17.223 -0.0548  0.0929  0.2455
98995W        W36489  20.901  18.645   1.391  0.1200  0.0132 -0.1305
98996W        W36490   9.763  30.090   1.384  0.2091  0.3379 -0.0460
98997W        W36491  21.732  19.033   1.809  0.0884 -0.1722 -0.0061
98998W        W36492  11.417  26.547  26.027 -0.2244 -0.3096 -0.0005
98999W        W36493  14.782  20.178   5.067 -0.2813 -0.1898 -0.2899
99000W        W36494   0.719  15.912  21.168 -0.3585  0.0296 -0.0742
99001W        W36495  27.210  18.070  10.581 -0.1221  0.1565 -0.1462
99002W        W36496  20.712  29.350  18.697 -0.2093 -0.0355 -0.1856
99003W        W36497  30.281  32.124   5.382 -0.0101  0.0731 -0.1994
99004W        W36498  18.244  15.685   0.650 -0.4260 -0.0138  0.0654
99005W        W36499  22.082   0.074  17.403 -0.0070 -0.4032 -0.0478
99006W        W36500  30.345   8.189   1.715 -0.2478 -0.2814 -0.0002
99007W        W36501  12.193  25.548  12.784 -0.0728 -0.1490  0.0580
99008W        W36502  16.116   4.273  19.734  0.0531 -0.0116 -0.0371
99009W        W36503   0.542  28.486  25.657 -0.0370 -0.2905  0.2799
99010W        W36504   1.116  11.401  11.381 -0.2785  0.0169  0.1495
99011W        W36505   6.271  32.009   6.818 -0.3999  0.0998 -0.2192
99012W        W36506  16.387  15.424  10.375 -0.1250 -0.1315  0.0720
99013W        W36507  10.060  13.699  13.138  0.1449 -0.0431 -0.0707
99014W        W36508  16.075   4.845   5.591 -0.0918 -0.2485 -0.1785
99015W        W36509  22.890  12.256   4.103  0.2287 -0.0563 -0.1201
99016W        W36510   6.102   1.156  10.719 -0.0751 -0.0893 -0.1983
99017W        W36511  10.052   6.776  14.826 -0.2961 -0.2439 -0.6243
99018W        W36512  13.619  22.989  25.541 -0.2085 -0.0358  0.1270
99019W        W36513  23.502  23.824  14.450  0.1642 -0.0340 -0.2219
99020W        W36514  10.113  13.625  23.994  0.2004  0.0301  0.0039
99021W        W36515  29.549   4.319   0.749  0.1489 -0.1918 -0.0923
99022W        W36516  26.157   0.363   4.490  0.2106 -0.2611  0.2695
99023W        W36517  13.741  21.594   5.480 -0.2596  0.0856 -0.2026
99024W        W36518  15.276   5.619   0.235 -0.1129 -0.1041 -0.0026
99025W        W36519  29.818  20.285  19.833 -0.0279 -0.1146  0.4209
99026W        W36520  33.217  19.367   0.279  0.1632 -0.1290 -0.2410
99027W        W36521  28.208  16.381   0.230  0.0881  0.0022  0.2062
99028W        W36522   4.660  23.482  22.845 -0.3251  0.0225 -0.0369
99029W        W36523  10.517   9.605   3.662  0.0729 -0.0622 -0.0158
99030W        W36524   7.642  13.206  10.771 -0.0646 -0.3065  0.2144
99031W        W36525  11.308   7.225   5.400 -0.1389 -0.1341 -0.0970
99032W        W36526  32.285  31.416   3.404  0.0278  0.3460  0.0551
99033W        W36527  17.955   5.667  22.338  0.1427 -0.1316 -0.0644
99034W        W36528  18.873   1.840   1.832 -0.0518  0.2613  0.1320
99035W        W36529   4.641  16.578  20.440 -0.1622 -0.4056  0.1004
99036W        W36530  26.788  14.378  16.442 -0.0594  0.0144  0.0842
99037W        W36531  34.499  23.210  18.807 -0.1834 -0.1193 -0.2387
99038W        W36532  18.976   4.925  24.136 -0.0180 -0.3852 -0.3028
99039W        W36533  19.667  15.697   9.775 -0.0180  0.3632 -0.1817
99040W        W36534   8.843  17.323  20.100  0.0083  0.0997 -0.1123
99041W        W36535   9.479  33.611  25.460  0.1912  0.2650 -0.0015
99042W        W36536  17.298   0.075  24.428 -0.0743  0.0632  0.1935
99043W        W36537  27.589  29.016  23.909 -0.0037 -0.1669  0.0839
99044W        W36538  30.869   7.296  21.934  0.3932  0.0977  0.0016
99045W        W36539  22.225  12.354  16.528  0.3127 -0.2573 -0.0385
99046W        W36540   3.850  15.000  20.217 -0.1488 -0.0076 -0.0499
99047W        W36541  12.892   8.468   2.246  0.4457 -0.3370 -0.2437
99048W        W36542  20.417  19.454  24.920 -0.3838  0.3402  0.3759
99049W        W36543  10.098   4.944   7.274  0.1993  0.2394 -0.2966
99050W        W36544   9.705  16.152   6.882 -0.2208 -0.0463 -0.1317
99051W        W36545  16.364  22.654  11.486 -0.0287 -0.3482 -0.1210
99052W        W36546  32.414  18.800  12.550  0.1423  0.1048 -0.3137
99053W        W36547  14.144  17.061  22.855  0.1284 -0.3448 -0.2301
99054W        W36548  24.786   7.344  21.555 -0.2327  0.3257  0.1049
99055W        W36549  31.543   5.082  11.005  0.0781  0.1189  0.2037
99056W        W36550  20.174  10.349  25.717  0.1052  0.0087  0.0695
99057W        W36551  16.649  13.323   1.275  0.0139  0.0263 -0.1950
99058W        W36552  19.660   9.036   0.806 -0.1324  0.3202  0.2193
99059W        W36553   3.860  26.370  10.140 -0.0972 -0.1575  0.1817
99060W        W36554  21.495   2.790   1.551 -0.0383 -0.2397  0.1154
99061W        W36555   0.507  17.646  17.363  0.3928  0.3006  0.0492
99062W        W36556   6.029  19.149   1.917  0.0740  0.1800  0.3687
99063W        W36557  21.663  17.851   3.720 -0.0785 -0.2420  0.0322
99064W        W36558   1.092   8.103   5.086 -0.2202  0.1344 -0.2288
99065W        W36559  35.062   0.791  25.781 -0.1117  0.0028  0.0117
99066W        W36560   9.048  34.580  22.679 -0.3342 -0.6096  0.1706
99067W        W36561  33.008  29.289  13.062  0.2983 -0.1905 -0.4691
99068W        W36562  12.896   4.553   8.590  0.0304 -0.0028  0.3657
99069W        W36563  33.606   6.615   3.604 -0.1561  0.2949  0.0164
99070W        W36564   6.258  24.812   5.449 -0.0435  0.0813 -0.0843
99071W        W36565   1.376   4.730  21.359  0.0739 -0.2510 -0.0556
99072W        W36566   3.388  33.565  24.773  0.0747 -0.0976  0.5745
99073W        W36567  10.245  33.111  12.691  0.4031 -0.0501  0.2500
99074W        W36568  15.882   1.467  10.976  0.2743  0.1935 -0.2668
99075W        W36569   9.595  26.339  11.036  0.0333  0.2576 -0.0095
99076W        W36570  13.310   7.070  18.970 -0.1768 -0.3183  0.1319
99077W        W36571   7.805  12.056  11.710  0.0512 -0.0061  0.0532
99078W        W36572  12.776  10.200  14.147  0.0753 -0.2133  0.0321
99079W        W36573  11.459  28.441   7.866 -0.1111  0.0086 -0.2006
99080W        W36574  20.794  34.432   5.191  0.1746  0.0287 -0.1319
99081W        W36575  10.550  34.585   8.049  0.1629  0.0365  0.1728
99082W        W36576  18.151   2.944  23.498 -0.0534  0.0285  0.0177
99083W        W36577  11.684   5.368  19.872  0.0821  0.1380 -0.2872
99084W        W36578  21.907   0.944  13.986  0.2991  0.1166 -0.2565
99085W        W36579   2.365  26.077   1.365  0.0147 -0.0843 -0.0347
99086W        W36580  16.027  17.976   6.716  0.0863  0.0123  0.1037
99087W        W36581  17.588   2.816   0.496 -0.0499  0.0200  0.0775
99088W        W36582  11.215   3.101   2.845 -0.0244 -0.1540 -0.0449
99089W        W36583   2.470  12.736  20.624  0.3147  0.0493  0.2276
99090W        W36584   9.102   9.073  24.379  0.0404  0.1584  0.1657
99091W        W36585  11.481  29.691   3.497 -0.0750  0.1022 -0.1979
99092W        W36586  13.875   7.745   6.313 -0.0735 -0.3797 -0.0432
99093W        W36587  34.115   3.891   2.524  0.1327  0.1488 -0.1706
99094W        W36588  30.442   1.885  22.693 -0.0618  0.0481 -0.1441
99095W        W36589  22.334  32.826  14.701 -0.1245 -0.4786 -0.3491
99096W        W36590  17.547  20.055  22.446 -0.1043  0.0740  0.0247
99097W        W36591   8.178  10.000   4.409 -0.0570  0.2821 -0.2184
99098W        W36592  20.638  25.322  20.216  0.0912  0.0287  0.2543
99099W        W36593  13.464   3.406   6.739 -0.0130 -0.0416 -0.2929
99100W        W36594   8.405  15.706  12.842  0.0683 -0.0136 -0.0784
99101W        W36595  20.373  12.186   3.260  0.2998  0.2683  0.1239
99102W        W36596   5.339  30.216   5.215 -0.5022 -0.0471 -0.2488
99103W        W36597  12.582  23.335  22.405 -0.1782  0.3643 -0.0290
99104W        W36598  26.883  33.206  13.142 -0.2176  0.0990  0.0896
99105W        W36599  29.964   8.316  13.182  0.0164  0.0573  0.3407
99106W        W36600  24.624  19.822  18.315 -0.1431 -0.1193  0.0522
99107W        W36601  22.619  25.203  15.046 -0.0993  0.1734  0.2170
99108W        W36602  21.956  27.363  25.042 -0.0203  0.1133  0.2742
99109W        W36603  28.613   0.488  16.739 -0.1260 -0.2190 -0.0318
99110W        W36604  26.535   6.452  10.769  0.1646 -0.2032  0.2548
99111W        W36605  28.091  12.923  23.041 -0.1912  0.1366 -0.0293
99112W        W36606  29.906   9.766  15.886 -0.1342  0.3085 -0.1127
99113W        W36607   3.579  20.491  23.691  0.2277  0.0822 -0.2390
99114W        W36608  26.145  10.212  15.223  0.0308  0.1020  0.3478
99115W        W36609  17.221  17.446  12.410 -0.3605 -0.1013  0.1586
99116W        W36610  23.903  31.795  13.023 -0.0275  0.0413  0.0468
99117W        W36611  26.217   4.633  23.377  0.0131  0.0924  0.2370
99118W        W36612  11.549  23.988   1.963 -0.2333  0.0837 -0.1172
99119W        W36613  21.506   7.553  19.997 -0.2349  0.0488 -0.1581
99120W        W36614   1.044  14.018   1.678 -0.2025  0.0575 -0.0315
99121W        W36615  11.846  10.768  11.686 -0.1677  0.0388 -0.2576
99122W        W36616  20.154  29.289  21.871 -0.2279 -0.0518 -0.3525
99123W        W36617   5.953  25.190  11.198 -0.1234  0.0681  0.0604
99124W        W36618  34.940  24.237  10.017  0.2199  0.0094 -0.1592
99125W        W36619   3.905  25.395   2.862 -0.0573  0.3687 -0.0879
99126W        W36620  26.033   3.530   3.313  0.1176 -0.4963  0.1374
99127W        W36621  14.296  12.822   2.532 -0.0480 -0.1369 -0.1119
99128W        W36622  26.740  17.268  14.645  0.0308 -0.0736  0.0918
99129W        W36623  17.760  30.666  22.173  0.0169  0.0621 -0.0603
99130W        W36624  20.934   0.526  26.145 -0.0390 -0.2593  0.2533
99131W        W36625  14.502   8.354   8.502  0.2880 -0.1605 -0.1793
99132W        W36626  12.412   0.070  22.225  0.4264  0.2583  0.1470
99133W        W36627   6.444  27.162   7.627  0.0330  0.0083 -0.1789
99134W        W36628  14.835  23.585   0.778 -0.1292 -0.0277  0.0160
99135W        W36629  26.263   9.950   1.683 -0.3426 -0.0053 -0.2020
99136W        W36630  15.788  12.579  21.915 -0.1584  0.1714  0.0617
99137W        W36631  11.216   9.163  25.588 -0.1195 -0.1298 -0.0432
99138W        W36632  16.633  31.381   3.645 -0.0680 -0.4129  0.1294
99139W        W36633  35.079   4.546  18.751  0.1826 -0.2168 -0.2960
99140W        W36634  24.446   9.611  18.026  0.1680 -0.3215  0.1339
99141W        W36635   4.258   9.826  24.229 -0.0645  0.0672  0.0651
99142W        W36636  18.737  11.631   1.451 -0.1343  0.2440  0.2302
99143W        W36637  34.989   0.300   9.189 -0.0846  0.0337 -0.2649
99144W        W36638  34.045   2.598  24.410  0.1043  0.1533 -0.5585
99145W        W36639  32.885  12.439  21.996  0.1011  0.2749  0.0778
99146W        W36640  16.377   7.259  18.490 -0.0871  0.0810 -0.3129
99147W        W36641   0.536  18.774  19.706 -0.1053 -0.3591 -0.0348
99148W        W36642  16.282   1.377  17.036  0.2377 -0.2722 -0.1230
99149W        W36643  27.719   5.337  19.279 -0.3977  0.0918  0.2249
99150W        W36644  13.017  13.804   7.355 -0.0682  0.0909  0.0099
99151W        W36645  10.673  21.863  16.891 -0.2570  0.0054 -0.0442
99152W        W36646  10.051   7.766   0.175 -0.2658 -0.0873  0.2742
99153W        W36647  26.597  21.110  25.455  0.3312 -0.0438 -0.0125
99154W        W36648  24.497  30.138   5.345  0.1860 -0.0169  0.1839
99155W        W36649   6.972   7.201  19.542 -0.1094 -0.2921  0.1415
99156W        W36650  27.288  17.192  19.299  0.0696 -0.0107  0.1756
99157W        W36651   8.586  18.042  12.145 -0.0986 -0.2364 -0.1792
99158W        W36652  27.439  32.632   5.225  0.4226  0.1617  0.3935
99159W        W36653   4.488   2.749   8.953  0.1678 -0.1450 -0.0302
99160W        W36654   9.370  12.186   6.686 -0.2452  0.1663 -0.0872
99161W        W36655  16.451  21.455  22.355  0.0878  0.2671 -0.1941
99162W        W36656  19.607  22.656  20.510  0.2374  0.0470  0.0388
99163W        W36657  10.834  28.121   4.893 -0.2664  0.0063 -0.2233
99164W        W36658  13.201   9.940  23.639  0.0744 -0.0241 -0.0054
99165W        W36659  20.400  23.718   6.770  0.0851 -0.0761 -0.3680
99166W        W36660  31.377   7.339  13.948 -0.1194 -0.0231  0.2203
99167W        W36661  21.199  25.706   3.646 -0.3036 -0.1771 -0.1593
99168W        W36662  33.943  12.356  13.893  0.0565  0.0409  0.1546
99169W        W36663   0.343  22.422  14.115  0.2211 -0.3215  0.0712
99170W        W36664   9.729   8.349  23.309  0.0208  0.0400  0.0406
99171W        W36665  22.838  13.148  16.968  0.2603  0.3722 -0.1916
99172W        W36666  27.700  14.275  19.483  0.1973  0.2728 -0.1499
99173W        W36667  11.005  13.803  18.333  0.1806  0.1187 -0.0055
99174W        W36668  30.919  23.832  20.035 -0.1814 -0.1070  0.2958
99175W        W36669   6.190  22.756   1.475  0.0286 -0.1912  0.2034
99176W        W36670  32.015   1.593  11.732 -0.1886  0.1597  0.2677
99177W        W36671   6.640  16.898   1.528 -0.2945 -0.0443  0.1786
99178W        W36672  12.510   4.798   3.754  0.1199 -0.1025  0.0311
99179W        W36673  18.587  16.321   8.672  0.0177 -0.1627 -0.1528
99180W        W36674   8.009   0.283  12.337  0.0635 -0.0331 -0.0837
99181W        W36675   0.624  11.811  17.901  0.0862  0.1469  0.1941
99182W        W36676  12.391  32.817  25.868  0.1167 -0.0932 -0.0158
99183W        W36677  13.021   4.805  10.329 -0.2216 -0.0050 -0.2605
99184W        W36678  23.831   9.578   4.354  0.2082 -0.2678  0.1211
99185W        W36679  25.862   0.848   0.155  0.3449 -0.5145  0.1719
99186W        W36680  28.481  24.724  16.077  0.0197 -0.0123 -0.3202
99187W        W36681   8.967   3.730  24.501  0.0806  0.2862  0.0959
99188W        W36682  10.311   6.712  25.848 -0.1493  0.1663 -0.0317
99189W        W36683  18.885   8.962   6.327 -0.2467 -0.0367 -0.3867
99190W        W36684   0.047  12.320  16.604 -0.0363  0.1167  0.0460
99191W        W36685  17.868  26.012   3.021  0.0542  0.0757  0.1849
99192W        W36686  31.851   6.112   3.128 -0.0642 -0.1918 -0.1261
99193W        W36687   7.891  20.647   0.583  0.1367  0.0707 -0.3775
99194W        W36688   7.726  22.892  12.097 -0.0337 -0.2013 -0.0173
99195W        W36689  32.199  10.693   7.617 -0.0050 -0.2473 -0.2285
99196W        W36690  20.093  17.180   5.690  0.1617 -0.1498 -0.0469
99197W        W36691  28.721  25.512   7.514  0.3823 -0.0423  0.3684
99198W        W36692   3.117   6.219  21.028 -0.1330 -0.0006 -0.1935
99199W        W36693  11.990  22.920  11.438  0.0546  0.2519 -0.2426
99200W        W36694   6.471   6.086  26.232  0.1372  0.3456  0.3756
99201W        W36695  12.768   0.471  10.994  0.2363 -0.1746 -0.1882
99202W        W36696  15.620  19.788  22.508 -0.0102  0.1755  0.0541
99203W        W36697  20.199  31.851   5.421 -0.2933  0.1229 -0.0855
99204W        W36698   0.765  29.960   4.657 -0.0352  0.0652 -0.1762
99205W        W36699  30.132  18.459  22.196 -0.0228 -0.0038  0.4179
99206W        W36700  22.796   5.318  18.915 -0.1499  0.0026 -0.2996
99207W        W36701  26.401   2.103  13.691 -0.1589  0.0400 -0.1756
99208W        W36702  29.712  15.938  11.650  0.0414  0.0538  0.2200
99209W        W36703  25.157   7.167  19.358 -0.0338 -0.3524  0.0195
99210W        W36704  13.506  30.394   4.498  0.3116  0.0025 -0.0753
99211W        W36705   2.604   3.236  15.897 -0.0130  0.0002  0.0666
99212W        W36706  33.324  12.654  24.865  0.1746  0.0320  0.1544
99213W        W36707  27.143  32.616  14.521  0.0762 -0.1124 -0.2024
99214W        W36708  31.240  30.131   0.420 -0.0669  0.1789  0.0210
99215W        W36709  17.112  13.346   5.149  0.2803 -0.3226  0.1153
99216W        W36710   5.250  33.328  23.789 -0.0536 -0.2038  0.1953
99217W        W36711  17.042   4.393   3.953 -0.3004 -0.1415  0.0812
99218W        W36712  11.373   7.513  10.051  0.0848  0.0438  0.1805
99219W        W36713   6.918   1.179  21.113 -0.1253  0.0047  0.3136
99220W        W36714   8.880  31.614   7.505 -0.0868  0.0399 -0.0978
99221W        W36715  19.869   7.546  23.637 -0.2157  0.2015 -0.1537
99222W        W36716  16.859  24.160   3.096  0.0320  0.2452 -0.1763
99223W        W36717  27.715   5.505  22.832 -0.2783  0.0052 -0.1144
99224W        W36718   7.678  11.370   6.982  0.0318 -0.0130  0.2598
99225W        W36719   3.726  23.127  17.902 -0.2376  0.1897 -0.1889
99226W        W36720  14.583  13.108  23.881 -0.4146  0.0669 -0.2382
99227W        W36721  15.417  26.211   8.514 -0.1511 -0.1362  0.1167
99228W        W36722   8.397  12.431  21.525  0.1328  0.0558  0.1177
99229W        W36723  21.468  27.773   3.777 -0.1429 -0.0491 -0.0480
99230W        W36724  10.632  32.852  10.393  0.0038 -0.0352 -0.1560
99231W        W36725  16.892  14.325   1.008 -0.0038  0.0036  0.2879
99232W        W36726  10.210  11.626  22.433  0.7125  0.2104  0.0264
99233W        W36727   7.428  30.556   8.757 -0.2419  0.3148 -0.1785
99234W        W36728  22.106   2.890  20.873 -0.0859 -0.4334  0.1151
99235W        W36729  34.868  17.845  19.854 -0.0662  0.1796 -0.0552
99236W        W36730  31.868  33.516  13.409 -0.1099  0.1861 -0.1962
99237W        W36731   9.041   9.025  20.497 -0.0479 -0.0702 -0.1747
99238W        W36732  21.407  34.258   4.415  0.5441  0.2105  0.0665
99239W        W36733  13.187  33.451  21.573  0.2466 -0.2716  0.0585
99240W        W36734   0.524  31.486  18.741 -0.3536 -0.4754 -0.0872
99241W        W36735   6.675  15.013   6.410 -0.0747 -0.0609 -0.0074
99242W        W36736  27.372  22.153   6.495  0.1147  0.1839 -0.1234
99243W        W36737  13.097  29.089   3.147  0.1019  0.0597 -0.2048
99244W        W36738  12.219  30.916  10.065 -0.0315 -0.0867  0.2493
99245W        W36739  22.626  24.687  23.622  0.0274 -0.1657 -0.0815
99246W        W36740  27.395  20.150   7.439  0.0822 -0.2201  0.4982
99247W        W36741  13.717  32.006   9.804  0.1452  0.1056 -0.1812
99248W        W36742  14.278   9.379   9.920  0.1934  0.2525 -0.0319
99249W        W36743  17.089  28.282   9.216 -0.0161 -0.2140 -0.1176
99250W        W36744  15.102  31.918   1.189  0.3034 -0.3482  0.0406
99251W        W36745  11.817  12.755  13.787  0.3562 -0.0616  0.0450
99252W        W36746   8.366  11.152  24.277 -0.1053  0.2272  0.1517
99253W        W36747  28.591  18.618  23.075  0.5275  0.3140  0.0299
99254W        W36748  10.493  27.345  24.177 -0.0333 -0.2441  0.2667
99255W        W36749   5.069  13.965   8.832 -0.3896  0.2940 -0.1263
99256W        W36750  18.126  21.582  13.603 -0.2889  0.0689  0.1235
99257W        W36751  11.616  26.123  15.618  0.1003  0.1600  0.1126
99258W        W36752   9.654   2.303  22.054  0.0168 -0.1257 -0.1053
99259W        W36753  12.014  17.199  24.112 -0.2570 -0.0386  0.3170
99260W        W36754  14.555  24.059  11.340 -0.0333 -0.0945 -0.0037
99261W        W36755  26.694  25.217  13.629  0.2001 -0.1207 -0.2588
99262W        W36756  23.817  31.649   5.583  0.0302  0.2791  0.0717
99263W        W36757  10.464   6.029  21.537 -0.0538  0.0432 -0.1617
99264W        W36758  28.269  10.261  13.899  0.2378  0.1370 -0.3073
99265W        W36759  33.502  28.096  14.967  0.2299 -0.0315 -0.0960
99266W        W36760   3.464   8.803   4.513  0.2077  0.0030  0.1191
99267W        W36761  34.693  16.764  20.801  0.1516  0.1857 -0.0234
99268W        W36762  15.711  10.204  10.935 -0.3719  0.2540 -0.2616
99269W        W36763  26.787  20.385  17.348  0.3062 -0.1423  0.1324
99270W        W36764  23.151  25.394  13.523 -0.1001 -0.3635  0.1190
99271W        W36765  29.873  21.660  19.171  0.0338 -0.0490  0.0787
99272W        W36766  23.720  18.520   1.802 -0.1037  0.1572 -0.2031
99273W        W36767  32.860  13.073   8.672  0.0795 -0.0801 -0.1102
99274W        W36768  25.898  29.497  11.916  0.1218  0.1649 -0.1337
99275W        W36769  25.768  27.577   0.968 -0.0150  0.1036 -0.2232
99276W        W36770  13.293  13.467  22.884 -0.1367  0.0399 -0.2060
99277W        W36771  33.037  19.577  11.067  0.1890 -0.2082  0.1007
99278W        W36772  34.190  31.489   0.691  0.2434 -0.1527  0.2481
99279W        W36773  16.523  12.930   8.253  0.0267 -0.1612 -0.2754
99280W        W36774   8.669  16.600   3.125 -0.1638  0.0993 -0.2405
99281W        W36775  25.934  30.817  20.034  0.0108  0.2057 -0.0194
99282W        W36776  14.119  18.014   2.594 -0.0639 -0.1174 -0.0153
99283W        W36777   3.803  12.328  17.684  0.3375  0.4934 -0.3215
99284W        W36778  14.379  33.221   1.588  0.0255 -0.1391 -0.2999
99285W        W36779  20.018  32.609   8.897 -0.1745 -0.1966  0.4175
99286W        W36780  15.720  24.831  22.413 -0.1734  0.3313 -0.0327
99287W        W36781   8.768  23.911  11.012  0.1870  0.2230  0.0356
99288W        W36782  19.896  10.600   6.358 -0.1845 -0.1743 -0.1116
99289W        W36783  29.816  29.683  16.012 -0.1246 -0.2943 -0.3134
99290W        W36784  11.191  25.661  14.352 -0.2865 -0.0569 -0.0136
99291W        W36785  13.050   9.698   7.849 -0.0705  0.0618 -0.2442
99292W        W36786  15.608  32.359   4.597 -0.3271  0.0729  0.0495
99293W        W36787  26.350  10.719  10.836  0.1077 -0.0586 -0.0314
99294W        W36788  27.208  12.369   0.220 -0.4139  0.1910 -0.0596
99295W        W36789   1.307   4.046  25.722 -0.0842 -0.3670  0.1380
99296W        W36790  35.058   0.359   8.703 -0.1845  0.0941 -0.0187
99297W        W36791  30.215   3.161   2.409  0.2499  0.0249  0.0720
99298W        W36792  10.422   4.542  24.675 -0.0650  0.1157  0.1115
99299W        W36793  21.804  20.606  24.481 -0.0737 -0.3078 -0.1254
99300W        W36794  32.472   8.880  14.139 -0.0826  0.1513  0.2924
99301W        W36795  32.069  34.614  19.836 -0.2998 -0.2104 -0.4737
99302W        W36796  30.628  29.130  12.220  0.1685  0.1066  0.3117
99303W        W36797  20.226  32.543  25.755 -0.1697  0.0032  0.2304
99304W        W36798  26.648  25.655  21.517  0.2143 -0.1879  0.1910
99305W        W36799   7.504  12.120   5.097 -0.3439 -0.1671 -0.1264
99306W        W36800  14.485  17.794   6.364 -0.4823 -0.0411  0.1160
99307W        W36801  10.731   4.979   2.607 -0.0500 -0.2185 -0.2483
99308W        W36802  28.112  29.032  17.299 -0.3619 -0.1088 -0.3781
99309W        W36803   7.207  26.671   0.541 -0.0216 -0.1279  0.0537
99310W        W36804   3.232   4.107  24.720 -0.0148 -0.1179 -0.1062
99311W        W36805   1.275  31.397   7.766 -0.0740  0.2832  0.2052
99312W        W36806  29.231   0.798  19.687  0.0020 -0.1406 -0.0731
99313W        W36807   4.154   5.990  20.556 -0.0977 -0.1350 -0.0999
99314W        W36808  25.854   7.132  25.998 -0.2333 -0.2419  0.1136
99315W        W36809  23.897  32.523  22.362  0.4705  0.0231 -0.0789
99316W        W36810  20.385   2.491   2.620  0.1616 -0.2964 -0.2511
99317W        W36811  32.368   2.947   0.131  0.1553 -0.0517 -0.0392
99318W        W36812  34.645  12.676  10.600 -0.2416 -0.2891 -0.0042
99319W        W36813   0.774  20.704  17.539 -0.1801  0.1106  0.0221
99320W        W36814  24.566   4.892  22.393  0.3091 -0.3446  0.1524
99321W        W36815  21.646  12.680   4.699  0.0666 -0.1363 -0.1777
99322W        W36816   6.848  13.193  23.731 -0.1068  0.1620  0.0057
99323W        W36817   8.740  20.386   2.922  0.1566  0.1410 -0.1525
99324W        W36818   1.316   4.731   4.603  0.0650  0.1757 -0.0278
99325W        W36819   6.098  15.708  20.839 -0.1995  0.2310  0.0603
99326W        W36820   4.852   7.301   9.632  0.0013  0.1098  0.3594
99327W        W36821  13.968  23.357   5.823 -0.0340  0.1551 -0.0717
99328W        W36822  24.847   5.183  25.209  0.2404 -0.0117 -0.0630
99329W        W36823  19.263  17.892   6.960 -0.3676  0.0249  0.2141
99330W        W36824   9.540  14.026   6.061 -0.3182  0.1859 -0.0724
99331W        W36825  14.554  21.286  16.766 -0.0351 -0.0312  0.0194
99332W        W36826  29.614  32.921  24.958  0.2224  0.2443  0.0297
99333W        W36827  11.751  20.224  15.059 -0.2492  0.2505  0.1612
99334W        W36828  21.231  34.426   6.988  0.2039 -0.0500 -0.3600
99335W        W36829  29.213  16.326   9.152  0.0808 -0.1687  0.1414
99336W        W36830  16.954  34.298  17.267  0.1850 -0.0786  0.2450
99337W        W36831  33.843   0.630   1.931 -0.0363  0.1059 -0.0391
99338W        W36832  21.205  31.251   6.237  0.0174  0.1504 -0.0869
99339W        W36833  10.792  16.827  24.120  0.1008  0.2498  0.1690
99340W        W36834  19.875  33.755   2.944 -0.5328  0.0342 -0.0360
99341W        W36835   3.027  20.797  20.898  0.1494 -0.0478  0.0740
99342W        W36836  33.326  13.228  11.639  0.3470 -0.0848  0.1821
99343W        W36837   8.217  33.772   6.040 -0.1991 -0.1787 -0.0128
99344W        W36838  26.237  25.525  16.759  0.0824 -0.1095 -0.4551
99345W        W36839   7.773   1.844  12.580 -0.2070  0.1273  0.0172
99346W        W36840  30.747  30.075  21.486 -0.4479 -0.3344 -0.2686
99347W        W36841  28.072  13.656  21.618 -0.2984 -0.2563 -0.3151
99348W        W36842  17.129   5.984  25.739 -0.0133 -0.1432  0.0544
99349W        W36843  10.422  15.287  25.103  0.2757 -0.1643  0.0155
99350W        W36844   0.236  17.114   0.359  0.0485  0.0699 -0.0875
99351W        W36845   3.685   4.542   2.964  0.0027  0.0425  0.1418
99352W        W36846  32.564  13.985  19.486  0.1603  0.0185  0.2856
99353W        W36847  28.882  17.948   6.675 -0.4441  0.0118  0.3164
99354W        W36848  12.392  29.220  14.819 -0.7088  0.0611 -0.0582
99355W        W36849  27.555  10.368   6.926 -0.1151  0.1509  0.2214
99356W        W36850  19.504  16.511  22.253 -0.1134 -0.2036  0.0204
99357W        W36851   2.999   0.310  25.288 -0.2183  0.1756 -0.0149
99358W        W36852  23.769   4.900   2.760  0.0433 -0.1019  0.0739
99359W        W36853  15.100   5.601   9.452 -0.0186  0.0905 -0.0033
99360W        W36854   6.829  26.194   4.955  0.2179 -0.3358 -0.1485
99361W        W36855  27.748   4.991  15.184  0.4174 -0.0342 -0.2435
99362W        W36856  32.792  26.656   2.535  0.2943 -0.2408  0.5008
99363W        W36857  16.838  14.035   5.939  0.0412 -0.1579 -0.1647
99364W        W36858   8.545  14.009  23.621 -0.3877 -0.0400 -0.1815
99365W        W36859  23.784  15.150  21.401 -0.0495 -0.1455  0.2497
99366W        W36860  22.545   5.034   4.991 -0.0219  0.0898 -0.0600
99367W        W36861  18.797   4.933  11.304 -0.2838 -0.4023 -0.4762
99368W        W36862  30.594   7.123  20.093 -0.1648  0.0588  0.1305
99369W        W36863   7.164   6.132   0.627 -0.0887 -0.0017 -0.0891
99370W        W36864  11.268   0.048   2.804 -0.1852  0.2125 -0.1866
99371W        W36865  13.498  20.291  16.299  0.1824  0.0014  0.2099
99372W        W36866  23.704   6.258  22.427  0.0579  0.0102 -0.0085
99373W        W36867  32.869  22.362  21.202  0.1276  0.0803  0.3173
99374W        W36868  11.248  15.362  18.054 -0.1957  0.0651  0.0178
99375W        W36869  10.533  13.708   7.379  0.2185 -0.2085  0.0495
99376W        W36870   5.103  34.683   4.951  0.0116  0.0744  0.2890
99377W        W36871  27.135  25.167  20.501 -0.0409  0.4597  0.0986
99378W        W36872  12.611  29.186  10.013  0.0126 -0.0153 -0.1817
99379W        W36873  33.347  29.720  15.581 -0.3775  0.0832  0.0502
99380W        W36874  31.070  32.518   0.185 -0.1411 -0.0539 -0.1821
99381W        W36875   1.276  27.389   3.833  0.3130 -0.0844 -0.1362
99382W        W36876  27.352  20.419  20.054 -0.2003  0.0417  0.1348
99383W        W36877  32.161   7.306  20.411 -0.0824 -0.1077  0.2690
99384W        W36878   7.271  13.939  20.547 -0.2454  0.0754  0.1099
99385W        W36879  17.346  23.093   3.710  0.1672  0.4299  0.1751
99386W        W36880  15.587  23.591  22.725  0.0926 -0.1921  0.2044
99387W        W36881  24.040  24.669  13.444 -0.0825 -0.0837 -0.3575
99388W        W36882   3.449   2.380   4.435  0.2330 -0.0476  0.0288
99389W        W36883   7.734  24.664  16.320 -0.2196  0.1721 -0.1861
99390W        W36884  31.155  11.780   8.929  0.2917  0.1672 -0.0696
99391W        W36885  31.716  21.334  17.917  0.0657 -0.1470 -0.1594
99392W        W36886   5.901   8.881  20.161  0.1612 -0.2352 -0.5505
99393W        W36887  17.661  29.304   5.447 -0.0509  0.0488 -0.1401
99394W        W36888   7.755  15.056   6.473  0.0869  0.3248 -0.1843
99395W        W36889  29.935  35.114  21.838 -0.2171  0.1769 -0.3505
99396W        W36890  21.830  28.111  23.269  0.2729 -0.0616 -0.0672
99397W        W36891  24.130  34.760   3.715 -0.2406 -0.1294 -0.1042
99398W        W36892  32.759   7.351  13.238 -0.0222 -0.2298  0.1477
99399W        W36893  17.428  10.583   9.146 -0.0819 -0.0247 -0.3137
99400W        W36894   0.810   1.519  17.406 -0.0450 -0.1063 -0.3220
99401W        W36895  30.372  35.300   0.915  0.1874  0.3281  0.0624
99402W        W36896  10.525  22.178   7.325 -0.1742  0.1002  0.2558
99403W        W36897  11.316  10.640   3.271 -0.1667 -0.3368  0.1181
99404W        W36898   8.883   4.254  24.319 -0.1184  0.0146 -0.0334
99405W        W36899  14.663  15.580   0.195 -0.2024 -0.1413  0.0609
99406W        W36900  34.995  31.648  18.656  0.2178 -0.3584 -0.2643
99407W        W36901  19.319   9.461  23.724  0.0250 -0.0667 -0.1900
99408W        W36902  25.380  27.511  20.167 -0.0151 -0.1150 -0.0729
99409W        W36903  14.319  33.607  13.060 -0.4091 -0.1782 -0.1802
99410W        W36904  35.212  34.734  19.290 -0.3126 -0.0424 -0.2045
99411W        W36905  16.281   8.982  18.189 -0.1983 -0.2435 -0.1106
99412W        W36906  27.798  20.284   6.182 -0.0560 -0.0289 -0.1254
99413W        W36907  24.733   3.832  13.577  0.3114 -0.0446 -0.2986
99414W        W36908   1.786   8.218  14.674  0.0976 -0.2952  0.0493
99415W        W36909  21.818  18.103  23.974  0.0356 -0.0457  0.4384
99416W        W36910  23.933   8.286   0.365  0.0406 -0.2013  0.0002
99417W        W36911  33.837  28.887  13.145 -0.1067 -0.0014 -0.1699
99418W        W36912  22.946   0.094   6.659 -0.0550 -0.0734 -0.5095
99419W        W36913  30.092  21.152   7.684 -0.0676  0.3755  0.1306
99420W        W36914   7.682  10.406   3.750 -0.1024 -0.0495  0.1978
99421W        W36915  17.716   6.871   1.620  0.1267  0.1278  0.0271
99422W        W36916  32.475  19.391  20.781 -0.3522  0.1543 -0.0261
99423W        W36917   8.379   8.097   6.215  0.1812 -0.1433  0.1900
99424W        W36918   6.455  10.867   8.073  0.1940 -0.4349 -0.0093
99425W        W36919  34.088   9.829  15.406  0.3822  0.2768  0.2654
99426W        W36920   4.273   9.182  16.322  0.2275  0.0266 -0.0769
99427W        W36921   7.022  25.221  22.231 -0.0184 -0.4359 -0.1522
99428W        W36922   1.868  24.736  21.485  0.2773  0.0597 -0.0159
99429W        W36923  27.595  13.046  18.845  0.2581 -0.1421  0.0624
99430W        W36924   5.499   3.204  20.127  0.1711 -0.1728 -0.0126
99431W        W36925  26.961  22.615  24.417  0.2306  0.3052 -0.2628
99432W        W36926   6.377  14.257   3.336 -0.1787  0.1813 -0.0844
99433W        W36927  27.090  17.429  20.169  0.0089  0.1807 -0.2318
99434W        W36928  14.829  22.342   4.180  0.1576 -0.2760 -0.4448
99435W        W36929  26.852  14.687  12.451 -0.0879 -0.0257 -0.2307
99436W        W36930  33.550   0.007   4.887 -0.1530  0.1236  0.1831
99437W        W36931   0.529  31.180  20.782  0.1259 -0.0112  0.2317
99438W        W36932  35.343  27.058  15.415 -0.0709  0.0565 -0.2322
99439W        W36933  16.729  11.666  19.882 -0.1767 -0.1193  0.2774
99440W        W36934  28.280   0.956   5.428 -0.1385 -0.0568  0.2249
99441W        W36935  17.607  25.943  10.083 -0.1076 -0.2967  0.0491
99442W        W36936  32.570  19.704  21.197 -0.0176  0.2761  0.0732
99443W        W36937  19.338   9.320  24.710 -0.2431 -0.4192  0.2057
99444W        W36938  17.495   9.301  19.597 -0.0743  0.2324 -0.3196
99445W        W36939  17.106   7.265   8.567 -0.2026 -0.2061 -0.3303
99446W        W36940  30.136   5.991  11.032 -0.1256 -0.0255 -0.2008
99447W        W36941   4.148  33.938  22.834  0.1488  0.0847  0.1103
99448W        W36942  17.961   2.345  18.420 -0.0167  0.0850 -0.1169
99449W        W36943   4.375   9.313   4.703  0.0429  0.0121 -0.1458
99450W        W36944  33.273   4.739   2.400  0.1811  0.0509  0.1906
99451W        W36945   4.125  10.966   7.602 -0.0588 -0.2140 -0.4141
99452W        W36946  21.083   7.631   6.246 -0.1546  0.0489 -0.1354
99453W        W36947  26.368  32.843  26.111  0.0760  0.1704 -0.2295
99454W        W36948  31.415   7.808  17.968 -0.0099 -0.1694  0.1278
99455W        W36949  34.449  30.680   4.937 -0.0419  0.0016 -0.1887
99456W        W36950   4.221  28.838   5.156 -0.1181 -0.0641  0.1506
99457W        W36951  22.136  32.007  15.285 -0.0414  0.1833 -0.0115
99458W        W36952  12.644  23.383  10.294  0.2113 -0.2131  0.0053
99459W        W36953   6.178  29.255  21.483  0.1882  0.5091 -0.0579
99460W        W36954   4.494   7.174   8.637  0.3081  0.0662 -0.2691
99461W        W36955  34.886   9.059   0.135 -0.5009  0.0470  0.1153
99462W        W36956  29.399  17.743  10.723  0.0627  0.1604  0.0096
99463W        W36957   8.461  29.176   0.613  0.1861  0.0858 -0.0802
99464W        W36958   7.546  13.527  20.336  0.1675 -0.0222  0.2679
99465W        W36959  31.187  21.889  20.987 -0.0696 -0.1091 -0.2667
99466W        W36960   5.829  35.019   5.050 -0.2652  0.0172 -0.3701
99467W        W36961   9.106  20.536  10.371  0.2239 -0.1777 -0.0102
99468W        W36962  10.544  23.737   2.188 -0.0825 -0.4155  0.1749
99469W        W36963  33.485  21.866   8.027 -0.1273  0.0898  0.1530
99470W        W36964  21.373  33.877  19.607 -0.2384  0.1902  0.1705
99471W        W36965  28.324  15.927   3.875 -0.1150 -0.2703 -0.0352
99472W        W36966  34.449   3.511  18.035 -0.0112 -0.0658  0.2205
99473W        W36967   8.004  35.339   1.194 -0.1370 -0.0888 -0.0630
99474W        W36968  20.854  19.124  18.824  0.1379 -0.2216  0.3050
99475W        W36969  23.507   2.529  16.909  0.0855 -0.2540  0.0727
99476W        W36970   6.094   8.040  22.890  0.2222  0.0824  0.0240
99477W        W36971  31.311  31.799   5.334 -0.1410  0.1552  0.0313
99478W        W36972   6.402   1.798  21.485 -0.2138 -0.0469  0.0444
99479W        W36973   4.160   3.440   4.916 -0.1337  0.3910  0.0396
99480W        W36974   3.303  17.642  13.860 -0.0291 -0.2399  0.2626
99481W        W36975   0.857   3.237   3.853 -0.4937 -0.1616 -0.0379
99482W        W36976  13.355  15.929  10.358 -0.1579  0.0962  0.1392
99483W        W36977  15.666  17.716  26.133  0.0217  0.0499  0.2502
99484W        W36978  12.940  25.159   3.903  0.0197 -0.2734  0.0867
99485W        W36979  32.215  28.689  20.217  0.0602 -0.0257  0.1783
99486W        W36980  29.570  10.818  10.655 -0.1271 -0.1193 -0.3183
99487W        W36981   4.213   1.572  10.281  0.0048  0.1114  0.0851
99488W        W36982  30.121  29.241  18.790 -0.3267  0.2418  0.0303
99489W        W36983  34.008   1.944  19.012  0.1102 -0.1785 -0.1535
99490W        W36984  13.379   9.948   2.484 -0.0151 -0.0651  0.1409
99491W        W36985   6.267  12.544  18.699  0.0205 -0.5117 -0.3937
99492W        W36986  28.861  23.310  25.178 -0.0712 -0.0526 -0.1833
99493W        W36987   0.878  14.593  26.054  0.0429  0.0013 -0.1104
99494W        W36988  27.920  20.911  25.214  0.0601  0.0375 -0.0772
99495W        W36989  16.864   5.313  11.218  0.2093 -0.0801 -0.0902
99496W        W36990  33.783  22.478  14.239  0.3048  0.1094 -0.2288
99497W        W36991  14.702  30.974  20.440  0.0735 -0.3381  0.1554
99498W        W36992  21.646  31.403  18.599 -0.1878 -0.0054  0.0562
99499W        W36993  17.250  33.353   2.680 -0.1414 -0.2872  0.0369
99500W        W36994  18.507  23.187  10.054 -0.0187  0.2329  0.2100
99501W        W36995  30.194  12.674  17.255  0.5847  0.1900  0.3360
99502W        W36996  23.885   5.847   2.742  0.0952  0.2108  0.0324
99503W        W36997   4.386  20.053  20.511  0.0711  0.3352 -0.0768
99504W        W36998   3.120   8.650  17.724  0.1894  0.0383 -0.3969
99505W        W36999  19.058  15.750  18.805 -0.0424 -0.0124 -0.0636
99506W        W37000   5.038   0.996   4.483  0.1613  0.4186 -0.1117
99507W        W37001  28.167  32.264  24.101 -0.0568  0.0475  0.1087
99508W        W37002  31.365  15.276  25.052  0.2756 -0.1865 -0.3079
99509W        W37003  11.334   2.208   0.472 -0.0224 -0.2259 -0.0916
99510W        W37004  29.831  16.371   4.169  0.3306 -0.3041  0.1982
99511W        W37005  34.060  11.123  24.939  0.1045  0.2118  0.0084
99512W        W37006   1.871   0.387  18.610  0.1165  0.1401 -0.3606
99513W        W37007  34.256  33.117  19.121 -0.2592 -0.0356 -0.3176
99514W        W37008   4.840  26.207   3.415 -0.4272 -0.0282 -0.0883
99515W        W37009  17.436   5.164   3.263 -0.2452  0.2446 -0.2526
99516W        W37010   6.863  19.652  24.525  0.2441  0.1325 -0.1569
99517W        W37011   4.622   1.530  24.236  0.1236 -0.0089 -0.0314
99518W        W37012  30.583  31.659   3.196  0.0904  0.1318  0.1378
99519W        W37013  32.335   8.412  15.766  0.0039  0.0559 -0.1013
99520W        W37014  26.187  13.804  20.520 -0.2771  0.0158 -0.0024
99521W        W37015  32.736  14.891   9.664  0.0892  0.2833 -0.1542
99522W        W37016  33.655   4.094  11.599  0.4096 -0.1882  0.1093
99523W        W37017  16.875  28.844  23.599 -0.0652 -0.1086  0.1950
99524W        W37018   6.161  16.168   0.381 -0.1026 -0.3263  0.0570
99525W        W37019  33.032  30.505   3.791  0.0860  0.0146 -0.1420
99526W        W37020  26.546  11.978   9.348 -0.0867 -0.1735 -0.2881
99527W        W37021   7.461  14.287   7.980 -0.1861 -0.0467  0.1556
99528W        W37022  14.692   6.882  24.931 -0.1899  0.0520 -0.1620
99529W        W37023  25.061   6.288  12.307 -0.0515  0.2344  0.0144
99530W        W37024   8.933  13.503   7.208  0.3560  0.1548  0.1999
99531W        W37025   3.755  26.760   1.205  0.0487 -0.2567  0.0732
99532W        W37026  30.648  23.733  12.584  0.2871  0.0253  0.1923
99533W        W37027  34.575  12.283  11.833 -0.0599  0.1409 -0.1785
99534W        W37028   3.021  32.240   9.730 -0.1937  0.1591 -0.4729
99535W        W37029  27.451  11.834  23.132 -0.3210 -0.2154  0.0054
99536W        W37030  30.380  29.538  17.787  0.2208 -0.1674 -0.0885
99537W        W37031   3.936  33.133   2.790 -0.2970 -0.0102  0.0495
99538W        W37032  31.221  25.673  17.603  0.3026  0.3151  0.1549
99539W        W37033  20.750  15.743  19.870  0.0449 -0.0032 -0.1400
99540W        W37034   2.671  32.046  23.787  0.2148  0.0364  0.2806
99541W        W37035  22.391  35.278   4.848  0.1024  0.0595  0.1437
99542W        W37036  16.701  32.739   3.723  0.0447  0.0559  0.2546
99543W        W37037  21.865  11.563   3.654  0.2318  0.1969 -0.3736
99544W        W37038  33.956  17.849  24.550  0.0682  0.0548  0.3948
99545W        W37039   2.299   6.492  24.395 -0.0445  0.0924 -0.2014
99546W        W37040  26.870  27.539   1.243  0.2577 -0.0160 -0.1661
99547W        W37041   1.240  28.121   5.747 -0.3971  0.2459 -0.3432
99548W        W37042  14.731  13.157   1.358  0.1453 -0.5345  0.2392
99549W        W37043   2.591  13.963  23.156 -0.0516 -0.2963  0.1548
99550W        W37044  26.859  30.502  16.448  0.1226  0.1006 -0.0391
99551W        W37045  34.325  16.930  26.004  0.2115  0.2267 -0.1040
99552W        W37046  34.511   0.424  18.362 -0.2021  0.0202 -0.0716
99553W        W37047  34.739  28.301  19.826  0.0549  0.0996 -0.2252
99554W        W37048  19.283   6.799  25.809  0.0633 -0.1292  0.2006
99555W        W37049  21.136  28.023   6.550 -0.0461  0.0477  0.2360
99556W        W37050  31.114  33.301  19.703 -0.0439  0.0287 -0.2476
99557W        W37051   7.800  33.530   3.567 -0.1013 -0.5835 -0.1731
99558W        W37052  12.194  31.141   6.383 -0.2119 -0.2912  0.2317
99559W        W37053  24.649  26.477   2.845 -0.1491  0.1349 -0.2555
99560W        W37054  12.862  19.227   6.164 -0.1328  0.2107  0.1789
99561W        W37055  22.199  25.564  14.865  0.2558 -0.2343 -0.0680
99562W        W37056  15.818  19.233  10.957 -0.5257 -0.1092 -0.0302
99563W        W37057   6.779  27.882  10.613  0.2516  0.1425  0.4053
99564W        W37058  18.255  29.896  22.826 -0.0298  0.2337  0.2013
99565W        W37059  16.239  27.577   1.147  0.0964 -0.1064 -0.0366
99566W        W37060  31.593  34.403  22.117 -0.1127  0.0361 -0.0380
99567W        W37061  29.020  29.848  18.454 -0.2675 -0.0580 -0.1150
99568W        W37062  20.478  10.018  22.399  0.0243 -0.0383 -0.0439
99569W        W37063  33.232  31.121  14.540  0.0219  0.1930 -0.0734
99570W        W37064  24.652  30.747  24.470  0.0619  0.1025 -0.2804
99571W        W37065   7.117  20.055   3.540 -0.1796 -0.1754 -0.1571
99572W        W37066   9.112  12.880  13.029  0.3284  0.5116  0.2400
99573W        W37067   8.708  29.562   7.659 -0.0793  0.2882 -0.0003
99574W        W37068   3.579  21.236   5.088  0.2366 -0.1049 -0.4480
99575W        W37069  15.456   5.553   2.722  0.0561 -0.0138 -0.0956
99576W        W37070   9.789   5.894   4.222  0.1320 -0.0916 -0.1730
99577W        W37071  13.983  17.556  14.096  0.3168  0.2294  0.1064
99578W        W37072  22.438  31.021  25.629  0.2511 -0.3166 -0.1724
99579W        W37073  26.208  31.531   3.885 -0.1420 -0.1519  0.0791
99580W        W37074  30.388  26.377  12.217 -0.0368 -0.1502 -0.0904
99581W        W37075  10.116   6.906  13.168  0.1299 -0.0344  0.3874
99582W        W37076   4.266  30.914  22.664  0.0353  0.1010 -0.1202
99583W        W37077   1.960  14.879   3.603 -0.0913  0.0023 -0.0909
99584W        W37078  26.878   5.464  15.183  0.2462  0.0561  0.1229
99585W        W37079  17.641  16.224   3.544  0.0093  0.1079 -0.0559
99586W        W37080   0.765   8.172  12.914 -0.0013  0.0146  0.0423
99587W        W37081  23.259   4.586  26.222  0.0631  0.1667  0.0595
99588W        W37082  33.621  12.499  17.368  0.0343 -0.2634  0.1133
99589W        W37083  32.461  31.006  18.702 -0.0471 -0.1109  0.0194
99590W        W37084  13.441   5.907  24.200 -0.0223  0.1955  0.0499
99591W        W37085  17.026  32.390  24.181 -0.2143 -0.2905  0.0536
99592W        W37086  11.888   8.174  19.897 -0.2101 -0.1708  0.0295
99593W        W37087   7.538  23.257   2.157  0.1687 -0.0457  0.0100
99594W        W37088  23.015  13.564  16.559 -0.0844  0.3235 -0.0202
99595W        W37089  31.551  24.824   9.886 -0.1218 -0.0765 -0.0166
99596W        W37090  26.834  35.091  15.209 -0.0784 -0.0890  0.2605
99597W        W37091   3.132  33.652   5.920 -0.0716  0.3486 -0.0521
99598W        W37092   7.916   3.920  12.063 -0.3714  0.0365  0.1184
99599W        W37093  15.032  34.351  22.439  0.0243  0.0302  0.0319
99600W        W37094   0.235  26.108  26.138 -0.1303  0.0234 -0.0029
99601W        W37095   1.494   2.200  25.270 -0.3652  0.0396 -0.0261
99602W        W37096  32.368  29.732   0.293 -0.1319  0.0756  0.1381
99603W        W37097  33.481  31.491  23.621 -0.2525  0.3079 -0.0028
99604W        W37098   9.900   3.631   5.882  0.2294  0.3016  0.1584
99605W        W37099  29.319  23.172  20.958 -0.2813 -0.3078  0.2536
99606W        W37100  20.952  30.091   0.278  0.2417 -0.3430 -0.3546
99607W        W37101  25.925  13.724   0.276  0.1043 -0.1304  0.0705
99608W        W37102  25.739   4.301   5.357  0.0636  0.0754  0.0387
99609W        W37103  21.920  30.179   6.386 -0.0567 -0.0037 -0.2285
99610W        W37104  33.435  13.956  21.483  0.1965 -0.1872 -0.0350
99611W        W37105  23.993   1.781  16.568  0.2433 -0.0763 -0.0278
99612W        W37106  30.028   9.942  19.997 -0.0544  0.3363 -0.2470
99613W        W37107  15.445   5.891  20.125  0.1446  0.2463  0.0593
99614W        W37108  27.785   0.847   2.947 -0.0278  0.2933 -0.1545
99615W        W37109  30.702  11.560  20.967 -0.1899  0.1404  0.1027
99616W        W37110  12.062   0.337   2.585 -0.0377  0.0500  0.1722
99617W        W37111  25.238  20.517  12.911  0.4431  0.2095 -0.0123
99618W        W37112   5.149   0.641   8.654  0.0508  0.1005 -0.6091
99619W        W37113  26.309  12.109  22.944 -0.1640 -0.1378 -0.2642
99620W        W37114  16.856  31.978  20.544 -0.1280  0.2979  0.2225
99621W        W37115  18.488  20.922   9.819  0.2186  0.2750  0.0040
99622W        W37116   9.646  16.528  10.745  0.1542 -0.0312  0.0059
99623W        W37117  25.056  21.326  24.712 -0.1213 -0.1429 -0.0983
99624W        W37118  35.031  10.737  23.561 -0.1458 -0.0662  0.0578
99625W        W37119  21.894  16.846  19.284  0.0782 -0.1969 -0.5116
99626W        W37120  34.949  19.432   7.742  0.5437  0.3338 -0.3508
99627W        W37121  18.827  11.363   7.048 -0.2286 -0.1414 -0.0661
99628W        W37122   8.084  20.921  24.670 -0.3341 -0.3096 -0.3074
99629W        W37123  15.932   0.997   3.901 -0.0429 -0.2925 -0.0860
99630W        W37124  15.842  24.789  12.830 -0.1670 -0.2205  0.4665
99631W        W37125  34.221  20.251  15.891  0.1454  0.1568 -0.3715
99632W        W37126   0.063  19.830  17.869 -0.1160  0.0612  0.0577
99633W        W37127  28.517   4.634  11.388 -0.1290 -0.1247 -0.1237
99634W        W37128  34.672  32.322  24.640  0.0094 -0.0711 -0.0471
99635W        W37129  14.999  16.688  24.151  0.1735  0.0378  0.0766
99636W        W37130   9.469  18.238  25.585  0.2020  0.3514 -0.0238
99637W        W37131  11.650  10.990  24.863  0.0441 -0.2255 -0.0790
99638W        W37132  30.644  30.402  16.412 -0.0895 -0.0464  0.1581
99639W        W37133  12.398  21.468  24.274  0.0963 -0.2208 -0.3191
99640W        W37134  15.845  16.036  21.946  0.0984  0.0224  0.0849
99641W        W37135  13.199  14.733  24.982 -0.0411 -0.1493 -0.0074
99642W        W37136  18.063   8.209   0.513 -0.1946 -0.2253 -0.1758
99643W        W37137   6.838  33.672   8.325 -0.2082 -0.0416 -0.4573
99644W        W37138  17.929  32.043   9.883 -0.1387  0.0801  0.1429
99645W        W37139  18.965   6.638   2.334  0.0808  0.0433 -0.1605
99646W        W37140   5.089   5.621  23.813 -0.0021 -0.0788  0.2320
99647W        W37141   5.932  29.053   0.480 -0.2691  0.0090 -0.0055
99648W        W37142  19.127  25.913   1.021 -0.1319 -0.0340  0.3587
99649W        W37143  27.972  25.707  23.691  0.3103 -0.0749 -0.3726
99650W        W37144   9.903  29.045  10.204  0.0225  0.0475 -0.0066
99651W        W37145  32.349   1.598  15.989 -0.1425 -0.1924  0.1643
99652W        W37146  32.143  27.142   3.403 -0.1856 -0.1717  0.1168
99653W        W37147  21.995  19.579  17.331  0.0258 -0.2065 -0.0956
99654W        W37148  25.002  31.360  21.507 -0.0425 -0.4092  0.0056
99655W        W37149   7.895  17.766   6.797 -0.1788 -0.3607  0.1903
99656W        W37150  26.829  34.315  15.466  0.0767  0.0548 -0.0062
99657W        W37151  32.825   6.385  18.770  0.2920  0.3036  0.0615
99658W        W37152   9.425  16.956  19.533  0.0973  0.2806  0.1116
99659W        W37153  17.627  31.435  18.429 -0.0291 -0.0920  0.2647
99660W        W37154  19.689   6.515  20.183 -0.0923  0.0216 -0.0786
99661W        W37155   9.953  24.476   1.096 -0.0216 -0.0893 -0.1211
99662W        W37156  28.288   1.822  18.401 -0.0641 -0.0523  0.1115
99663W        W37157  21.545  25.963   7.129 -0.3959 -0.1616 -0.0868
99664W        W37158  21.606  24.954  16.872 -0.0233 -0.3377  0.0066
99665W        W37159   6.463   1.487  11.860  0.0195 -0.0904  0.0021
99666W        W37160  20.169  24.100  22.446 -0.0344 -0.0659 -0.0365
99667W        W37161   3.689   1.202   2.725 -0.1368  0.2653  0.1313
99668W        W37162  22.426   6.556   2.353 -0.1128 -0.0669  0.1610
99669W        W37163   1.742   6.071   0.271  0.1710 -0.3447 -0.3437
99670W        W37164   5.166  23.816  23.742  0.0362  0.1552 -0.1265
99671W        W37165   1.985  34.994   4.258  0.2196  0.0646  0.0586
99672W        W37166  19.277  16.730   5.428  0.2693 -0.1289 -0.0241
99673W        W37167   3.743  24.714   1.774  0.3685  0.1722  0.0240
99674W        W37168  29.644  20.976  20.697 -0.1281 -0.3106 -0.3394
99675W        W37169  29.341  17.000  20.887 -0.0013  0.0465 -0.0838
99676W        W37170  21.797  17.189  16.833 -0.2445  0.0260 -0.0882
99677W        W37171  17.585  23.262   5.319 -0.2085 -0.0119  0.2050
99678W        W37172  27.447   0.376  20.836 -0.1316  0.0123  0.1927
99679W        W37173  25.361   3.953  18.401 -0.0171  0.3271  0.2006
99680W        W37174  32.526  26.581  15.629  0.0392 -0.0317  0.0274
99681W        W37175  13.454  22.615   0.676  0.0060  0.1202  0.4400
99682W        W37176   4.768  18.719  18.378  0.1343  0.1626 -0.0768
99683W        W37177  26.853  10.636  16.977 -0.3185  0.1804  0.3953
99684W        W37178   3.538  31.234   5.667 -0.2473  0.1731  0.3488
99685W        W37179  22.590   1.868  14.898  0.3518  0.3222 -0.1404
99686W        W37180  32.733  24.334   9.189  0.0318  0.1950  0.1770
99687W        W37181  33.682  23.196  19.541  0.1489 -0.0983 -0.0456
99688W        W37182  28.504   4.251  14.437  0.1076 -0.3379 -0.2997
99689W        W37183  28.491  10.834   7.444  0.0934  0.5085 -0.2963
99690W        W37184  32.753  24.879  15.634  0.0320 -0.3284 -0.0591
99691W        W37185  29.052  33.778  13.949  0.3319 -0.3187 -0.0328
99692W        W37186  29.095   2.356  14.927 -0.1776  0.3271 -0.1347
99693W        W37187  35.129   9.551  22.068  0.3155  0.0833  0.1349
99694W        W37188   1.396  26.296   2.762 -0.5520 -0.0605  0.1687
99695W        W37189  17.662  10.715  11.727  0.2967  0.0020 -0.1353
99696W        W37190  10.339  22.688  16.908  0.0846 -0.2986 -0.3311
99697W        W37191  13.137   0.064  20.554 -0.0702 -0.1173 -0.1975
99698W        W37192  28.606  19.752  23.629 -0.1135  0.0389  0.0401
99699W        W37193   2.735  23.657   4.999  0.2113  0.0780  0.1970
99700W        W37194   7.531  14.655  18.731 -0.1001 -0.0729 -0.1057
99701W        W37195  30.956   0.854  24.634  0.2597 -0.0559 -0.0770
99702W        W37196   9.800  34.650   7.348 -0.0242  0.1280  0.2629
99703W        W37197   6.027  22.911   2.861 -0.4334  0.1087 -0.0935
99704W        W37198  27.010   7.512  24.804  0.0650  0.3636 -0.1497
99705W        W37199   9.344  18.613  11.193  0.0842 -0.0649  0.2007
99706W        W37200   2.606   1.636   4.297 -0.0827 -0.2051  0.1465
99707W        W37201  19.205  31.362  16.128 -0.0744 -0.4215  0.1510
99708W        W37202   0.514  32.333   7.862 -0.0964 -0.0606 -0.2682
99709W        W37203  24.788  32.924   0.448 -0.2886 -0.2356 -0.1267
99710W        W37204  31.976  18.687  17.247 -0.0260 -0.2083  0.0416
99711W        W37205  13.933  16.911   5.527  0.0903 -0.1926 -0.1671
99712W        W37206   9.694  25.420  14.690 -0.3157 -0.1507 -0.2163
99713W        W37207  32.144   5.616  15.174 -0.0408 -0.1857 -0.1878
99714W        W37208  27.904   0.170  25.644 -0.2892  0.0586  0.0144
99715W        W37209  28.194  21.440  21.024  0.0364  0.2160 -0.3234
99716W        W37210  33.417   6.041  19.110 -0.2967  0.2518 -0.0528
99717W        W37211  27.194   0.934   1.613 -0.1200 -0.0169 -0.1101
99718W        W37212   7.356  10.565  22.247 -0.1855 -0.4325 -0.3608
99719W        W37213  31.953  10.730  15.715  0.0557  0.0985 -0.2871
99720W        W37214  12.532  15.243   6.133 -0.0530  0.0838  0.1042
99721W        W37215   3.494   6.153  17.553  0.3086  0.2497 -0.0725
99722W        W37216   1.798  13.248  22.420 -0.1448  0.0657 -0.4373
99723W        W37217  25.960  30.434   4.769  0.3521 -0.1583 -0.1917
99724W        W37218  33.667   2.308  19.332 -0.0501  0.0122  0.2103
99725W        W37219   5.758  11.836   2.839 -0.0748 -0.0404  0.1203
99726W        W37220  30.090  33.799  12.927  0.0331 -0.3190  0.0391
99727W        W37221  28.195  33.363  17.846  0.2069 -0.0371  0.1722
99728W        W37222  22.557  29.512  13.649 -0.1757 -0.2229 -0.1039
99729W        W37223  28.226   0.898  23.770  0.1445 -0.0058  0.0192
99730W        W37224  11.875  32.985  21.844 -0.0840  0.2800 -0.1743
99731W        W37225   9.767  27.879   8.105 -0.0133 -0.1380 -0.0703
99732W        W37226  34.916  14.017  24.546 -0.4879 -0.0618  0.0338
99733W        W37227  17.431  14.741   0.288  0.1614  0.2120  0.0898
99734W        W37228   0.165  30.062  25.953 -0.3137 -0.1108 -0.1218
99735W        W37229  15.914  27.264   1.294 -0.3034  0.0289 -0.1917
99736W        W37230   5.609   8.790  17.575  0.0192  0.3222 -0.2274
99737W        W37231  32.519  22.837  22.997 -0.0836  0.0592 -0.0472
99738W        W37232   7.828  11.949  18.009 -0.3210 -0.0598  0.2556
99739W        W37233  21.311   5.228  20.620  0.1560 -0.0017  0.1883
99740W        W37234  23.453   2.054  12.859  0.1408 -0.0204 -0.0399
99741W        W37235  25.669  32.445   2.836  0.0491 -0.1850 -0.0945
99742W        W37236  27.175  33.711  12.132  0.0531 -0.0031  0.0121
99743W        W37237  11.095  16.257   7.947 -0.1490  0.0127 -0.0821
99744W        W37238  18.488  28.280   1.591  0.0438 -0.0692 -0.0908
99745W        W37239   5.613   0.523  21.147 -0.1308 -0.2841  0.2912
99746W        W37240  27.559   2.489  24.135 -0.3432  0.0841  0.2134
99747W        W37241  30.603  34.105  17.348  0.1414 -0.2283  0.0452
99748W        W37242  28.171  18.381  19.001 -0.2322 -0.1017 -0.1350
99749W        W37243  28.804   5.539  11.080  0.2411 -0.0308 -0.0547
99750W        W37244   7.133  33.821  13.070 -0.1133 -0.3058 -0.2774
99751W        W37245  22.561  26.738  19.865 -0.3856 -0.2046 -0.0558
99752W        W37246   4.584  35.356  13.182 -0.1880 -0.1729 -0.1806
99753W        W37247   0.019  11.659  15.025  0.1677 -0.0662  0.1064
99754W        W37248  11.725  20.148  12.788  0.1306 -0.2566  0.4015
99755W        W37249  16.633   3.127  11.464 -0.2531 -0.0108  0.1406
99756W        W37250  13.333   6.203  11.838  0.2174 -0.0996  0.0263
99757W        W37251  12.558  18.489  15.294  0.0347 -0.0712 -0.1390
99758W        W37252  24.416  29.771  20.098  0.2849  0.2138 -0.0155
99759W        W37253   7.242  31.183   4.727 -0.1331 -0.1038  0.0603
99760W        W37254  25.228  31.158  10.609  0.1562  0.2072  0.0110
99761W        W37255   8.141  31.641   8.180  0.2066 -0.2547  0.3683
99762W        W37256   4.732  21.494  22.204 -0.1274 -0.0634  0.1623
99763W        W37257  14.127  34.829  11.140  0.1595  0.1760 -0.2466
99764W        W37258  17.178   6.401   4.980 -0.0411  0.0131 -0.0866
99765W        W37259  22.305  13.365  22.446 -0.2761 -0.2194 -0.0951
99766W        W37260   3.654  22.869  25.704  0.0733  0.2937 -0.0442
99767W        W37261   4.724  16.002   6.852 -0.0846  0.0140  0.1201
99768W        W37262   6.378  31.776  11.570  0.0670 -0.0771  0.1913
99769W        W37263  21.006   2.658  22.240  0.2540 -0.0821  0.2142
99770W        W37264   0.300  16.656  20.952  0.1532 -0.2715  0.2899
99771W        W37265   1.983  18.853  20.846 -0.1735 -0.1809 -0.2810
99772W        W37266  11.049  18.382   1.217 -0.1663  0.3377  0.3612
99773W        W37267  15.030  30.052  11.923  0.0980  0.2539 -0.0650
99774W        W37268   8.488   0.984   2.592 -0.1337  0.4843  0.2171
99775W        W37269   8.326  16.682  24.646  0.1793  0.0599  0.1293
99776W        W37270  24.519  24.356   0.898  0.3161  0.0814  0.4115
99777W        W37271   5.532   7.685  20.305 -0.0395  0.1390  0.2920
99778W        W37272  18.468  16.377  24.269  0.0547  0.0934  0.1181
99779W        W37273  34.425  31.691   7.619  0.0772  0.1234  0.2493
99780W        W37274  24.016  34.074  24.298 -0.2669  0.1272 -0.1629
99781W        W37275  13.256  24.473  14.344 -0.0823 -0.3741 -0.3294
99782W        W37276   9.087  32.806  14.832 -0.2302 -0.4056  0.1567
99783W        W37277  22.075   2.573  25.104 -0.0484 -0.0062 -0.2647
99784W        W37278  16.058  25.121   8.955  0.0522  0.0503  0.2957
99785W        W37279  33.956  20.083   9.737 -0.1765 -0.0047  0.2834
99786W        W37280  10.067  23.674  15.674 -0.1541 -0.4009  0.0416
99787W        W37281  10.220  12.228  24.754 -0.0551  0.1491 -0.1557
99788W        W37282  13.670   9.107  10.398 -0.0381 -0.0118 -0.1045
99789W        W37283  13.201   8.463  10.904 -0.5520 -0.2001 -0.3229
99790W        W37284  33.145   0.059  13.887 -0.0353  0.4065 -0.1895
99791W        W37285  13.687  33.042   7.580  0.1963  0.1299  0.2346
99792W        W37286  25.332  13.139  23.542 -0.2591  0.0781 -0.0220
99793W        W37287  12.233   1.976  10.450 -0.1528 -0.0146 -0.1738
99794W        W37288   9.408  28.644  22.789  0.1300  0.1332  0.0713
99795W        W37289  14.278  12.267  23.225  0.0053  0.1208 -0.2751
99796W        W37290  20.575  16.105   3.331  0.1496 -0.0923 -0.3596
99797W        W37291  21.979   5.227   4.168  0.2411  0.1653  0.1643
99798W        W37292  15.298  30.003   0.988 -0.2002 -0.0185 -0.3004
99799W        W37293  22.834   8.037   1.429  0.0495 -0.2023  0.1792
99800W        W37294  11.889   2.991   4.351  0.2236 -0.3705  0.5364
99801W        W37295  34.705  19.538  22.090  0.0130 -0.1011 -0.0592
99802W        W37296  18.047   6.220  24.833  0.0644 -0.0535  0.1895
99803W        W37297  33.352  15.226  16.676 -0.1010  0.1167  0.0340
99804W        W37298  27.803   4.865   3.399 -0.1470  0.0602 -0.0176
99805W        W37299   7.828  10.905   8.797  0.1080 -0.0124 -0.3368
99806W        W37300  18.414  26.688   2.439 -0.2781 -0.0663 -0.1233
99807W        W37301  18.005  34.918   4.549  0.1293 -0.0587  0.4029
99808W        W37302  19.130  28.217   6.975 -0.0367 -0.1008 -0.0866
99809W        W37303  16.446  19.121   7.867 -0.0531  0.0933  0.0545
99810W        W37304  14.479  16.694  10.186 -0.0018  0.4329  0.3205
99811W        W37305  25.641  22.613  20.352 -0.1154  0.3257 -0.2058
99812W        W37306  10.628  16.129  19.407  0.0758  0.1087  0.1427
99813W        W37307  27.394  12.929  21.196 -0.1299  0.3179  0.1268
99814W        W37308  13.483  34.308   9.071 -0.6643 -0.1203 -0.2347
99815W        W37309   1.060   1.472   2.504  0.1401 -0.0516 -0.0153
99816W        W37310   2.830  10.284  16.998 -0.0260  0.0046  0.2659
99817W        W37311  28.583  32.437  22.488 -0.3132 -0.0040  0.2829
99818W        W37312  19.561   2.354  23.027 -0.1856 -0.1292  0.3515
99819W        W37313  22.648  30.592  22.021  0.0627  0.1384  0.0538
99820W        W37314  12.502  30.623  10.952 -0.1240  0.0147 -0.0190
99821W        W37315   2.708  24.928  23.481  0.0757  0.1141 -0.0383
99822W        W37316  13.031   8.354   1.737  0.1023 -0.1834  0.2671
99823W        W37317   3.067  27.911   3.252  0.1684 -0.1521 -0.2796
99824W        W37318  13.130  24.016  11.929  0.2017  0.0970  0.2239
99825W        W37319  34.377  32.293   7.508  0.2057 -0.0890 -0.1317
99826W        W37320   8.882  31.601   0.298 -0.0614  0.3972 -0.3456
99827W        W37321  14.068   7.453   5.845  0.0290 -0.1060  0.1025
99828W        W37322  16.755  24.866   6.632  0.3013  0.2154  0.2225
99829W        W37323  21.113   2.116  21.628 -0.1539 -0.1487  0.0300
99830W        W37324   6.649  18.464  23.180 -0.4613 -0.0267 -0.2419
99831W        W37325  19.457  13.756   9.135 -0.1305  0.0447 -0.0725
99832W        W37326   1.509  29.523   9.997 -0.1657 -0.4135 -0.2763
99833W        W37327  30.656  21.560  23.278 -0.1662 -0.1995 -0.0821
99834W        W37328  14.658   2.604  21.770 -0.0818  0.0319 -0.0792
99835W        W37329  12.764  31.835   9.399 -0.2315  0.2605 -0.1958
99836W        W37330   6.056  10.254   6.225 -0.1310  0.2881  0.1372
99837W        W37331  18.941   4.051   2.657 -0.1154  0.0923 -0.2990
99838W        W37332  18.037  11.645   3.286  0.1498  0.2828  0.1945
99839W        W37333  28.294  31.179   0.145  0.0542 -0.0050 -0.4455
99840W        W37334  21.241  26.110   5.657  0.1924  0.0275  0.1284
99841W        W37335  21.897   8.708   0.193 -0.1817  0.6946 -0.0404
99842W        W37336  34.838  23.061  23.914  0.0916 -0.3613 -0.0542
99843W        W37337  15.023  14.420  13.526 -0.2581  0.1676  0.2483
99844W        W37338  13.012  13.381   5.974 -0.0965  0.1177  0.3408
99845W        W37339  30.117   4.231  14.289 -0.2458  0.0158  0.3639
99846W        W37340  21.843  11.775  16.119  0.2829 -0.1299 -0.2704
99847W        W37341  18.899   1.377   7.380 -0.1396 -0.0136 -0.0040
99848W        W37342  15.275  23.262   6.132  0.1417  0.2304 -0.0978
99849W        W37343   2.060  21.597  18.909  0.1252 -0.0733 -0.1467
99850W        W37344  30.639  26.442  19.548  0.3870 -0.2854  0.0464
99851W        W37345  21.943  18.826  16.192 -0.0110  0.0370 -0.1693
99852W        W37346  12.846  19.092  12.852  0.0246 -0.0279  0.0543
99853W        W37347  29.511   0.583   2.026  0.1586  0.0098  0.3387
99854W        W37348  21.082  19.685  22.782 -0.1808 -0.1193 -0.0973
99855W        W37349   0.308  28.688  20.577  0.0668 -0.0058  0.1617
99856W        W37350  19.087   8.004  20.292 -0.0033 -0.2061 -0.1970
99857W        W37351  23.762   8.996   1.043 -0.0890 -0.0478  0.0574
99858W        W37352   7.596   1.299  24.552  0.0047  0.1767 -0.0996
99859W        W37353  11.448  11.340  10.840  0.0989  0.1632  0.1023
99860W        W37354  33.873  11.869  12.145  0.1727 -0.0491 -0.0384
99861W        W37355  11.682  27.598  10.207 -0.0186 -0.1951 -0.1018
99862W        W37356  30.151  18.206  18.409  0.1760 -0.0706  0.0688
99863W        W37357   7.103   1.038  11.056  0.0182  0.0215 -0.0815
99864W        W37358  22.732  18.655  13.720 -0.1605  0.1415 -0.1646
99865W        W37359  20.265   5.482   6.173  0.1378 -0.0582  0.2012
99866W        W37360  13.765  14.613   0.185  0.0851 -0.1972 -0.0754
99867W        W37361  22.291  32.206  21.590 -0.2337  0.3704 -0.1449
99868W        W37362   9.087  31.080   3.797 -0.0084 -0.0292  0.0414
99869W        W37363  17.433  32.552  21.638 -0.1118  0.1597  0.1299
99870W        W37364  33.291  26.494   3.233 -0.2329  0.1345 -0.0324
99871W        W37365   4.426  23.436   2.908 -0.0684  0.0074 -0.1289
99872W        W37366  26.557  24.840  12.331 -0.0193 -0.1600  0.2343
99873W        W37367  27.843   6.522  24.403  0.1239 -0.2279  0.0608
99874W        W37368  16.071  18.960  22.988 -0.2999  0.0901 -0.1854
99875W        W37369  31.240   3.223  20.158  0.0649  0.0752  0.2943
99876W        W37370   7.930  30.374  23.280 -0.1802 -0.1386  0.1638
99877W        W37371  16.537  22.300   6.461 -0.0727  0.1665 -0.3130
99878W        W37372   8.897  34.468  11.525  0.2824  0.0474 -0.0412
99879W        W37373   1.824  28.351   6.184  0.1934 -0.1316  0.0565
99880W        W37374  27.155  27.770  12.776 -0.2744  0.0937  0.2677
99881W        W37375  20.909  13.308  24.291  0.2286 -0.0998  0.2171
99882W        W37376   6.038  20.224   3.783  0.1092  0.0593  0.1578
99883W        W37377  12.216  14.931  23.941 -0.1048  0.4457  0.0707
99884W        W37378  23.649  11.839  19.251  0.1048  0.3099 -0.3268
99885W        W37379   1.422   2.260   1.529  0.3697  0.0273 -0.1414
99886W        W37380  32.906  23.028  11.393 -0.0234  0.1206  0.0788
99887W        W37381  13.544  14.715   3.229 -0.3571 -0.2305  0.1256
99888W        W37382  22.431  34.514  19.481  0.0753  0.1663  0.1258
99889W        W37383  10.012  10.713  12.196 -0.1789  0.1719  0.2627
99890W        W37384  34.001  18.804  11.757 -0.0552  0.0836  0.4528
99891W        W37385  27.335   4.563  22.875 -0.0565  0.3838  0.1713
99892W        W37386   9.745  14.150   9.075 -0.1925  0.0473 -0.0944
99893W        W37387  13.132  17.606   1.708  0.0177 -0.1477  0.1463
99894W        W37388  20.388  25.271  23.034 -0.1302  0.0500  0.0034
99895W        W37389  10.973  27.777  14.604 -0.1609  0.0003 -0.2553
99896W        W37390  33.222   7.259  16.120  0.2883  0.0270  0.3201
99897W        W37391   6.495   0.736  10.525  0.0866 -0.0598  0.0502
99898W        W37392  11.862   7.403  25.000 -0.0323 -0.1419  0.0080
99899W        W37393  29.855  22.912  25.170 -0.2624 -0.1395 -0.0559
99900W        W37394   3.566   0.054  20.556 -0.1513 -0.0450 -0.1575
99901W        W37395   2.245  35.098  23.608  0.2800  0.2002 -0.2360
99902W        W37396  34.470  14.751  11.297 -0.2425 -0.3944 -0.0630
99903W        W37397  21.996  32.539  17.425 -0.3621  0.0902  0.0823
99904W        W37398  35.263   6.669  15.528  0.0719 -0.1781 -0.0546
99905W        W37399   6.876  32.257  20.383 -0.0558 -0.0804 -0.2789
99906W        W37400  14.728  29.988  22.298 -0.0660 -0.0572  0.0017
99907W        W37401  19.259   7.093   1.228 -0.0975  0.3744  0.4537
99908W        W37402  21.833  25.228  23.912  0.1551 -0.1618  0.0463
99909W        W37403  27.608   4.484  15.188 -0.1257 -0.0171  0.0935
99910W        W37404  33.334  22.545  17.000  0.1354 -0.0395  0.1428
99911W        W37405   0.527  27.896  16.478 -0.0107 -0.0514 -0.0405
99912W        W37406  23.982  15.607  21.010  0.0961 -0.2139  0.1125
99913W        W37407  27.164  23.116  11.493 -0.0324 -0.0762 -0.1786
99914W        W37408  31.367  13.398  14.168  0.0986 -0.1826  0.2469
99915W        W37409   5.553  25.983   8.413 -0.3123  0.3000 -0.1721
99916W        W37410   9.114  13.294   0.622  0.1337 -0.0912  0.2172
99917W        W37411  19.233   9.650  10.598 -0.0732  0.0859 -0.1876
99918W        W37412   0.087   3.036  25.527  0.1347  0.3450 -0.3134
99919W        W37413   1.404  28.774   5.132 -0.4508 -0.2891 -0.1058
99920W        W37414  32.625  29.521   2.157  0.1091  0.1161 -0.3307
99921W        W37415  33.062  13.539   7.115  0.2756 -0.1795 -0.0553
99922W        W37416  20.994  28.240   1.582 -0.1319  0.0879 -0.0668
99923W        W37417  18.205  32.336   9.196 -0.0557  0.1749  0.1358
99924W        W37418  13.071  27.513  25.815 -0.0426  0.0869  0.0447
99925W        W37419   9.516   3.404  10.049  0.0207  0.1126 -0.2356
99926W        W37420  33.509   3.137  12.573  0.2451 -0.2419 -0.1270
99927W        W37421  21.526  10.381   4.290  0.3737 -0.1286  0.0484
99928W        W37422   2.813  32.336   1.108  0.0094 -0.1057 -0.1067
99929W        W37423   6.947  23.419  11.254  0.7250  0.0453 -0.3063
99930W        W37424   2.280  26.090   3.982  0.1865 -0.1754 -0.1661
99931W        W37425  35.210  33.910   7.010 -0.1892  0.1176 -0.1571
99932W        W37426  14.396   6.877  24.247 -0.1301  0.0621  0.0054
99933W        W37427   4.535  23.135   5.238  0.1745 -0.1965 -0.4057
99934W        W37428  10.030  32.082  17.176 -0.0187  0.0418  0.1417
99935W        W37429  28.013   8.204  18.130  0.1505  0.0504 -0.2360
99936W        W37430  11.528   7.217  24.538  0.1668  0.2006 -0.0040
99937W        W37431   8.700   3.397   4.972 -0.0029 -0.2577  0.1883
99938W        W37432  27.918   4.820  19.178  0.1480  0.1221  0.0754
99939W        W37433  18.588   2.928   2.486 -0.0676  0.2435  0.0202
99940W        W37434  14.285  13.497  13.490  0.1467 -0.1399  0.0008
99941W        W37435  11.926  31.623   6.682 -0.2155 -0.0193  0.1386
99942W        W37436  27.362  25.397  19.543 -0.3226 -0.1783  0.4345
99943W        W37437  12.471  12.561  20.569 -0.0139 -0.0434  0.0172
99944W        W37438   2.086  24.611  18.411 -0.0162  0.1565  0.1863
99945W        W37439  26.125  12.644  12.438 -0.2556 -0.2210 -0.2190
99946W        W37440  11.679  33.899  12.093 -0.0851  0.0313 -0.0361
99947W        W37441  23.253   1.158  12.479  0.2170 -0.0227  0.1350
99948W        W37442  24.023  25.009  16.185  0.2364 -0.1036  0.1390
99949W        W37443   8.558  27.667   4.174  0.2613 -0.0758  0.0830
99950W        W37444  22.222  10.682  24.162  0.1887  0.1519  0.0601
99951W        W37445  10.999  31.796   0.763  0.2534  0.0902  0.0516
99952W        W37446  34.349  16.034  24.808 -0.3138  0.1256 -0.2615
99953W        W37447  13.266  11.749  11.253 -0.0438 -0.1383  0.0600
99954W        W37448   2.827  14.972  14.699  0.0906  0.1134  0.0274
99955W        W37449  24.841  21.164  19.498 -0.2122  0.1671 -0.2382
99956W        W37450  30.761  25.802  26.211 -0.2203 -0.0685  0.1160
99957W        W37451  20.404   1.591  24.592 -0.1089  0.1892  0.4101
99958W        W37452   2.196  30.690   9.651  0.2380  0.1603 -0.4107
99959W        W37453   8.883  10.148  18.376 -0.2085  0.0300 -0.1465
99960W        W37454  11.303  25.676  25.448 -0.2446 -0.1045 -0.1460
99961W        W37455  22.576  29.774  23.246 -0.0981 -0.2043 -0.3234
99962W        W37456  21.025  33.631   1.537  0.0801 -0.2372  0.1071
99963W        W37457   6.320  27.890  10.266  0.2240 -0.0335 -0.3215
99964W        W37458   8.724  33.447  23.097 -0.4998  0.0968 -0.0776
99965W        W37459  32.500  32.946  20.635 -0.1372  0.2922 -0.0045
99966W        W37460   1.098   2.360  18.877 -0.0662 -0.1068 -0.0224
99967W        W37461  22.350   6.213   1.815  0.0706 -0.2187  0.2295
99968W        W37462  35.216  17.472   9.690  0.0987  0.0614  0.0682
99969W        W37463  24.938  22.804  17.425 -0.2618  0.1559 -0.2819
99970W        W37464   6.655  19.553   1.370  0.2803 -0.0253 -0.2078
99971W        W37465  26.005  23.708  16.885  0.0057 -0.0380  0.0923
99972W        W37466  13.516  16.811   6.167  0.2647  0.1184 -0.1879
99973W        W37467   9.711   9.834  12.656 -0.1434  0.4821  0.0931
99974W        W37468  17.501  11.317  23.369  0.3191 -0.1686 -0.0289
99975W        W37469   5.999  26.097  20.846 -0.4672  0.0359 -0.2101
99976W        W37470  19.791  33.461  25.356  0.1991 -0.0596 -0.0901
99977W        W37471   8.043  16.470   1.168 -0.0291  0.0316  0.1872
99978W        W37472  20.719  34.233  21.670 -0.1942 -0.1337 -0.1559
99979W        W37473  17.963   1.109  18.876 -0.0612 -0.1073  0.0510
99980W        W37474   9.246  22.702   4.354 -0.4278 -0.1183 -0.4645
99981W        W37475   3.517  29.004  19.685 -0.1291 -0.1243 -0.0409
99982W        W37476  33.053  10.912  19.209  0.0514  0.2664  0.3576
99983W        W37477   3.061   3.740  18.342  0.1485  0.0039  0.1830
99984W        W37478  25.038  17.888  25.207  0.1297  0.0002  0.1550
99985W        W37479  28.455  10.325  15.023  0.1000 -0.1453 -0.1473
99986W        W37480   7.169  11.084  22.285  0.1421 -0.0890 -0.4596
99987W        W37481  30.985  21.510   9.177  0.1309 -0.0477 -0.2583
99988W        W37482  13.502   8.196  22.646  0.0596 -0.1479 -0.0174
99989W        W37483   9.957   4.502  12.022  0.1825  0.2032  0.0658
99990W        W37484  20.166  21.929   0.273 -0.0550 -0.0894 -0.2647
99991W        W37485  27.823   5.870   1.736  0.0177  0.1429 -0.0290
99992W        W37486  22.537  26.264   1.268  0.2593  0.1021 -0.0432
99993W        W37487  13.188  11.293   7.908 -0.0306 -0.1891 -0.0741
99994W        W37488   5.426  30.700   7.117  0.1291  0.1552  0.0958
99995W        W37489   8.999  19.621  25.859 -0.1696 -0.2006  0.1250
99996W        W37490   7.630   5.730   0.384 -0.0585  0.0506 -0.3582
99997W        W37491   7.914   3.074   6.680 -0.4081 -0.0839 -0.1834
99998W        W37492   6.030  14.617  18.159  0.0207 -0.1408 -0.0391
99999W        W37493  21.268  24.568   7.546 -0.0747 -0.2274 -0.0609
    0W        W37494  35.100  11.562  19.840  0.0953  0.0159  0.2294
    1W        W37495  22.031   1.899  18.789 -0.2018 -0.1784 -0.1264
    2W        W37496  18.512  15.237  24.463 -0.0329  0.1938  0.0387
    3W        W37497  16.037   4.494  11.633 -0.0645  0.0149 -0.3439
    4W        W37498  26.101  28.151  13.850 -0.0269 -0.1658 -0.3357
    5W        W37499  10.390  14.834  20.853 -0.1441  0.0265  0.2804
    6W        W37500   2.626  16.657  15.817 -0.1292  0.0604  0.1697
    7W        W37501  30.573  32.874  20.557 -0.0638  0.1585 -0.0100
    8W        W37502  14.194  11.659  10.869 -0.0352  0.1757 -0.2039
    9W        W37503   0.465   5.781   5.851 -0.1442  0.1859 -0.2184
   10W        W37504  10.656  29.409  13.392  0.1937 -0.0484  0.2573
   11W        W37505  27.707  30.439   3.121  0.0246 -0.1214  0.0920
   12W        W37506  26.382  31.041  17.035  0.0802 -0.0196  0.1451
   13W        W37507   1.022   3.142  19.961  0.2209 -0.1459 -0.1543
   14W        W37508  26.815   8.946   0.726  0.0716 -0.4065 -0.2288
   15W        W37509  34.283  22.164  26.173 -0.0393 -0.0193 -0.2020
   16W        W37510  20.471  13.831  21.354  0.1329 -0.0045 -0.3222
   17W        W37511   5.184   5.037   4.376 -0.0187 -0.0558  0.1288
   18W        W37512   1.386   9.431   1.069 -0.0299  0.1406  0.3251
   19W        W37513   0.813  31.664   4.986 -0.2491 -0.0567 -0.0468
   20W        W37514   6.538  13.768  24.790 -0.0601 -0.0363  0.2502
   21W        W37515   2.678  33.708   2.705  0.2052 -0.0666 -0.0219
   22W        W37516   5.467  30.674   5.539 -0.4164 -0.3938  0.1590
   23W        W37517  26.553  31.996  16.308 -0.0647 -0.1252  0.1379
   24W        W37518   7.457  23.536  13.572  0.3730 -0.0881  0.0259
   25W        W37519  27.242  19.000   9.734  0.2013  0.0483  0.0100
   26W        W37520  31.242  14.091   6.117  0.1811  0.1146  0.1626
   27W        W37521   8.735  13.486   3.641  0.1689 -0.2259 -0.1073
   28W        W37522   8.176  16.944   8.553 -0.1563 -0.2139 -0.2581
   29W        W37523   1.928  29.171   3.017 -0.0002 -0.0023  0.2829
   30W        W37524   0.879   6.212   1.090  0.0403 -0.0437 -0.0556
   31W        W37525  32.808  33.228   1.187 -0.0679  0.1120 -0.0291
   32W        W37526   2.423  10.724   2.404 -0.2894  0.2586 -0.1061
   33W        W37527   0.563  14.422  10.397  0.4346 -0.0237  0.1704
   34W        W37528   8.038  30.285   5.427  0.3989  0.0737  0.0415
   35W        W37529  16.437   2.377  18.169 -0.3597  0.4191 -0.0970
   36W        W37530  32.193  25.814  10.682 -0.2031  0.2667 -0.0683
   37W        W37531   2.595  10.663  20.220 -0.0860 -0.1179 -0.2110
   38W        W37532  26.625   9.584  14.858  0.0073 -0.3055 -0.0792
   39W        W37533  18.151  29.530   1.785  0.2626  0.0642 -0.1022
   40W        W37534  29.578   6.877  14.883 -0.1961 -0.3382  0.2122
   41W        W37535  13.195  13.964  23.580 -0.0831 -0.1349 -0.1712
   42W        W37536   7.048  11.318  24.991 -0.0122 -0.3477 -0.2187
   43W        W37537  30.381  27.377   2.433  0.0258 -0.2491  0.0302
   44W        W37538   0.893  34.493   2.572 -0.3915 -0.0388 -0.0058
   45W        W37539   1.868  33.383  24.543  0.2251 -0.3292  0.3140
   46W        W37540  18.450  26.859   6.001  0.1473 -0.2157  0.2104
   47W        W37541  15.644  35.286  11.334 -0.0419  0.0988  0.1218
   48W        W37542  21.111  34.447   1.231 -0.1681  0.0478  0.1760
   49W        W37543  29.455  27.820  12.846 -0.0988 -0.1547 -0.0192
   50W        W37544   7.244   5.449   2.421 -0.1093  0.1636  0.0226
   51W        W37545   7.080  31.945   6.633  0.0768 -0.0456  0.0235
   52W        W37546  19.002  15.079  23.767 -0.0194  0.1494  0.0846
   53W        W37547  24.700  22.395  10.094  0.0155 -0.1390  0.0047
   54W        W37548  33.943  17.941  14.873  0.2152 -0.0399 -0.0218
   55W        W37549  17.786   2.838   1.364  0.2571  0.2124 -0.3258
   56W        W37550  13.514   7.859   9.800  0.0914  0.1016  0.3090
   57W        W37551  30.860  17.500  25.230 -0.1647  0.0129 -0.0256
   58W        W37552   4.367   4.791  22.330 -0.1027 -0.0748 -0.0866
   59W        W37553  17.225   6.204  24.381 -0.1178 -0.2315  0.0007
   60W        W37554  25.427  30.934  25.647  0.1847 -0.0793 -0.3502
   61W        W37555  14.687   3.314   9.083  0.2284 -0.3138 -0.1344
   62W        W37556  14.456  32.594   2.197 -0.1059  0.0441 -0.2020
   63W        W37557  16.144  22.626   6.632  0.1039 -0.2207  0.0115
   64W        W37558  17.637   7.919  19.962  0.3115  0.0434 -0.0728
   65W        W37559   7.534  11.906   7.853 -0.1932  0.3178  0.3171
   66W        W37560   1.572   6.071  19.708 -0.1270  0.3660  0.0271
   67W        W37561  26.779  30.027  20.148  0.1559  0.0270 -0.2397
   68W        W37562  26.411  22.222  12.882 -0.0101 -0.0668 -0.1133
   69W        W37563  17.385  10.793  24.263  0.0129 -0.1454 -0.2452
   70W        W37564  31.493   1.672  17.262  0.0261  0.3209  0.0022
   71W        W37565  34.113   9.096   2.058 -0.2005 -0.0810 -0.1389
   72W        W37566  34.125  31.759   1.457  0.2250 -0.1605 -0.1868
   73W        W37567   6.704   5.046  18.363 -0.0139 -0.2795  0.2055
   74W        W37568  26.125   6.917  14.267 -0.1872 -0.3210  0.2516
   75W        W37569  22.797  11.274  23.567  0.3501 -0.1262 -0.0031
   76W        W37570  14.512   1.723   3.787 -0.1817  0.1849 -0.0148
   77W        W37571   7.133   2.913   7.862  0.1714  0.1035  0.0395
   78W        W37572   7.953  18.322  25.853  0.1084 -0.0927 -0.3142
   79W        W37573   8.236  28.230   4.842 -0.0923 -0.0362  0.0029
   80W        W37574  19.985  16.818   6.655 -0.0886 -0.2674  0.3702
   81W        W37575   0.044  14.859  10.272 -0.1652 -0.1867 -0.0253
   82W        W37576  10.720  28.570   3.613 -0.1995  0.0302  0.2596
   83W        W37577  16.729   9.084  12.077  0.2071 -0.0469  0.0372
   84W        W37578  22.346  28.630   3.182  0.0256  0.1668 -0.0243
   85W        W37579  34.642  17.471  14.926  0.0169 -0.1952 -0.0510
   86W        W37580  26.554  30.095  25.562 -0.1679  0.1404 -0.0385
   87W        W37581   5.372  16.342   1.103  0.4294 -0.0647  0.2879
   88W        W37582  17.524   8.993   3.445  0.0053  0.0863 -0.1384
   89W        W37583  34.218  10.495   9.763  0.0387 -0.1401 -0.1893
   90W        W37584  35.115   0.261  25.722  0.3045  0.4982 -0.1271
   91W        W37585   1.518  13.901  21.678  0.1183  0.0212 -0.0219
   92W        W37586  31.083  32.362   2.503 -0.1550 -0.0537 -0.0761
   93W        W37587  25.471  18.025  21.252 -0.1688 -0.4619 -0.2574
   94W        W37588  25.020  33.110  18.855  0.0508 -0.2396  0.0521
   95W        W37589  18.263   9.641   1.626 -0.1687  0.1469 -0.2187
   96W        W37590   5.043  11.861  21.650 -0.2066  0.2369 -0.2204
   97W        W37591   2.296   3.059  23.774  0.0476 -0.0411 -0.0912
   98W        W37592   6.772  32.091  25.855  0.1104 -0.1773 -0.0193
   99W        W37593  18.345  26.744  20.649 -0.1252 -0.0152  0.1007
  100W        W37594  25.852  14.384  18.855  0.0297 -0.2676  0.0273
  101W        W37595   0.706  30.235  19.426 -0.1852  0.1721 -0.2451
  102W        W37596  19.714  31.292   5.815  0.0412 -0.0635 -0.2088
  103W        W37597  25.187  12.837  12.145 -0.0815  0.0856 -0.1363
  104W        W37598  34.100  30.637   1.761  0.1500 -0.1805  0.0640
  105W        W37599   1.678  30.117   1.835 -0.2133  0.0525 -0.1103
  106W        W37600   7.987  22.500  11.005  0.0643 -0.0058 -0.0169
  107W        W37601  17.602  13.406   5.956  0.0377 -0.0993  0.0632
  108W        W37602  26.463  22.057  14.396 -0.0446 -0.0515 -0.0131
  109W        W37603   7.607  33.879   0.984 -0.1113 -0.2087  0.0731
  110W        W37604  17.331  31.441   3.005 -0.0087 -0.0207 -0.1369
  111W        W37605   5.452  28.029  13.579 -0.0682 -0.2142  0.4065
  112W        W37606  19.347   1.675   5.818 -0.0797 -0.0922  0.3523
  113W        W37607  19.191  17.176   9.693 -0.0610 -0.0873  0.0990
  114W        W37608  13.158  28.665   9.247 -0.0634 -0.0214 -0.1758
  115W        W37609  13.335  27.018  23.350  0.2423  0.0422  0.0741
  116W        W37610  11.455  24.233   3.674 -0.3027 -0.0910  0.0386
  117W        W37611  26.889  25.197  24.100  0.1227 -0.1021 -0.0757
  118W        W37612  22.234  28.078  12.703  0.3069  0.1103 -0.0511
  119W        W37613  20.187  24.622   3.316 -0.0468 -0.1532 -0.1145
  120W        W37614  30.537   9.264   0.389  0.1933  0.1567  0.1561
  121W        W37615  27.020  29.450  19.418  0.0902 -0.0390  0.2822
  122W        W37616  34.117  22.838  14.378 -0.0729 -0.1541  0.3106
  123W        W37617  29.435   6.559  12.243 -0.0163  0.0610 -0.3038
  124W        W37618  29.638   4.640   3.846 -0.1861 -0.3831  0.0292
  125W        W37619  31.529  27.187   1.709 -0.0633 -0.0758  0.0090
  126W        W37620  11.225   1.282   2.059 -0.1950  0.4339 -0.0732
  127W        W37621  11.661  29.095  23.974 -0.1342 -0.0514 -0.0985
  128W        W37622  27.608  20.120   5.317 -0.0179  0.0340 -0.0472
  129W        W37623  18.131   3.300   5.749 -0.0411  0.1084  0.0273
  130W        W37624  29.051  15.514  15.039 -0.1575 -0.0211 -0.1214
  131W        W37625  19.147   0.503  21.651 -0.3892  0.1507  0.0125
  132W        W37626  34.107  26.814  25.087  0.3623 -0.1541 -0.1406
  133W        W37627  17.574   4.879  12.173  0.1466  0.1813 -0.2284
  134W        W37628  17.492  24.411  13.248  0.1542  0.3596  0.1418
  135W        W37629   3.083   0.870   7.830 -0.1231 -0.3308 -0.0464
  136W        W37630   2.428  33.831  22.317 -0.3302 -0.1240 -0.1728
  137W        W37631  26.618   4.167   3.723  0.1465  0.2548 -0.1940
  138W        W37632   6.124  33.131  11.483 -0.3310 -0.0521  0.1133
  139W        W37633   1.999  11.452   0.379 -0.1285  0.1204  0.0473
  140W        W37634  14.555   0.358  21.405  0.1923  0.3570  0.0305
  141W        W37635   0.542   6.607  20.401  0.5398 -0.1997  0.1859
  142W        W37636   9.073  16.670   7.453 -0.0470 -0.0195  0.0103
  143W        W37637  15.035  10.694  24.862  0.0043  0.0958  0.1792
  144W        W37638  15.693   8.464  22.985 -0.5491 -0.2031  0.1125
  145W        W37639  32.542   0.872   5.506 -0.2515  0.2565 -0.0928
  146W        W37640  12.639  24.188   0.880 -0.2311  0.1242  0.0592
  147W        W37641  19.822   0.361   2.717  0.2953  0.0757 -0.0924
  148W        W37642   8.110  24.203  13.157 -0.2806 -0.0488  0.0217
  149W        W37643  18.692  27.632   5.372  0.3453  0.0882 -0.1135
  150W        W37644  17.217   3.006  17.403  0.1673 -0.1375 -0.1804
  151W        W37645  17.363  20.696   8.791  0.1079  0.0153 -0.0054
  152W        W37646  12.454  30.053   0.285 -0.1081 -0.1185 -0.2582
  153W        W37647   9.672  18.415  24.178  0.3090  0.0850 -0.1817
  154W        W37648  26.924  20.114   6.456  0.3593 -0.1362  0.2588
  155W        W37649   7.996  23.979  21.776  0.0744  0.0066 -0.1019
  156W        W37650   7.267  26.610  11.750 -0.0354  0.1242 -0.1218
  157W        W37651  35.362  10.593   9.717 -0.0526 -0.0650  0.5125
  158W        W37652  14.384   2.264  24.248  0.0374  0.0631  0.1036
  159W        W37653   0.135  34.299  18.493  0.2663 -0.3430  0.1592
  160W        W37654  31.991  15.499  10.314  0.0217  0.3053 -0.0400
  161W        W37655   5.834   4.991   9.574  0.1352  0.1058 -0.0698
  162W        W37656  22.911  31.115  17.251  0.1557  0.2787  0.0277
  163W        W37657   9.870  24.885  17.158 -0.0692 -0.2119  0.1291
  164W        W37658  12.145   9.854   7.644  0.0047  0.0962  0.1608
  165W        W37659  17.270  33.216   2.213 -0.2686 -0.2784  0.1734
  166W        W37660   0.148  25.232   2.484 -0.0775  0.0224  0.1878
  167W        W37661  32.620  33.562  17.333  0.2158  0.0089 -0.0905
  168W        W37662   0.144  20.847   9.077 -0.4334  0.4260 -0.1379
  169W        W37663  33.718  21.625  18.090 -0.2484  0.0015  0.0011
  170W        W37664  24.346  25.548  17.813  0.0767 -0.5608 -0.1367
  171W        W37665  30.672  31.394  14.991 -0.4061 -0.4136  0.2968
  172W        W37666  29.125   1.291  20.057  0.0614  0.0520 -0.1294
  173W        W37667  27.842   3.262  19.143  0.0874 -0.0575  0.0667
  174W        W37668   8.211   4.866   7.473  0.1465  0.0397  0.1039
  175W        W37669  30.753  17.860  12.232 -0.1302  0.0076  0.0126
  176W        W37670   4.559  19.732   0.768 -0.1947  0.1869  0.0016
  177W        W37671  28.283  26.219  25.453 -0.2210 -0.0370 -0.1017
  178W        W37672   4.382   1.703  22.155 -0.1040 -0.1036  0.1591
  179W        W37673  11.113   2.178  13.267 -0.2737 -0.3561  0.0060
  180W        W37674   8.308  27.993  12.956  0.2433  0.2251  0.1533
  181W        W37675  31.834  29.672  22.244  0.0870 -0.0400 -0.1982
  182W        W37676   0.782  25.924  26.239  0.1905  0.0262  0.1020
  183W        W37677  31.904  31.755   6.607 -0.2951 -0.0003  0.1039
  184W        W37678  25.481  19.795  10.569 -0.2301 -0.0884  0.1937
  185W        W37679  10.951   3.846  11.877  0.0884 -0.1265  0.1881
  186W        W37680  18.421  24.205  25.111  0.1496  0.1559 -0.2544
  187W        W37681  22.396  16.190  18.834  0.1359  0.3823 -0.4514
  188W        W37682  18.490  26.135  20.921  0.1572  0.0898  0.1264
  189W        W37683  24.205  23.367  17.131  0.0025 -0.0095 -0.3516
  190W        W37684  21.801  23.685  16.606  0.1852 -0.2147 -0.0085
  191W        W37685  29.686  24.343  24.978  0.2359  0.1097 -0.0361
  192W        W37686  23.493  23.290  13.774 -0.0089  0.0110  0.1422
  193W        W37687  22.017   5.421   7.921 -0.1129 -0.1583 -0.0595
  194W        W37688  24.657  17.198  20.600  0.0781  0.0630  0.5198
  195W        W37689  34.892  13.074  26.055  0.0933  0.0604  0.1332
  196W        W37690  20.330  28.309   6.395  0.1599 -0.0956 -0.1189
  197W        W37691  10.439  14.498   2.161 -0.0727 -0.0013 -0.0407
  198W        W37692  33.701  27.006   2.585  0.2518  0.0425  0.1860
  199W        W37693   8.883  25.453   3.195  0.0470 -0.0811 -0.1629
  200W        W37694  13.662   0.156   9.056 -0.1196  0.1010  0.0789
  201W        W37695   6.768  16.038   9.916 -0.1421  0.0278  0.2084
  202W        W37696  21.184  23.913   2.766  0.5909  0.0444 -0.1762
  203W        W37697   2.602  34.900   3.553 -0.0111 -0.1974 -0.0588
  204W        W37698   7.898  32.915   6.038  0.2710 -0.1180 -0.3674
  205W        W37699  13.357  19.957   5.248  0.0119  0.0196  0.2983
  206W        W37700   1.288  11.246  14.511  0.0655 -0.2021 -0.1091
  207W        W37701   6.209  25.556   1.035 -0.1415  0.4827  0.2053
  208W        W37702  23.445  29.639   5.281 -0.3667  0.3852  0.0194
  209W        W37703  25.870  13.141   8.291  0.2771 -0.2814 -0.1900
  210W        W37704   3.131  19.600  23.946 -0.1068  0.2800  0.2165
  211W        W37705  32.638  21.542  20.579 -0.2632 -0.2711 -0.1794
  212W        W37706  34.417   4.836  23.568  0.2100  0.0117  0.0506
  213W        W37707  32.149  13.935  12.566 -0.2325 -0.0803 -0.1923
  214W        W37708   7.617  12.832   2.548 -0.1635  0.1551  0.4614
  215W        W37709  34.580  17.541  26.003 -0.3668 -0.2094  0.0967
  216W        W37710  33.526  15.583  12.452  0.1279  0.2465 -0.2039
  217W        W37711  33.248   7.444  21.968  0.0755  0.4280  0.1850
  218W        W37712  12.534  11.779  20.580 -0.2809 -0.0620  0.1764
  219W        W37713   3.053  17.222  20.683 -0.0397 -0.3027  0.1446
  220W        W37714  33.586  27.173   0.818  0.3100 -0.0338 -0.1918
  221W        W37715  15.182  32.437  25.779 -0.1403  0.0154  0.3009
  222W        W37716   9.169   3.164   4.503 -0.3182 -0.0288 -0.3286
  223W        W37717  30.977  32.834   4.351  0.1291  0.1666  0.1822
  224W        W37718  24.187  22.240  17.656  0.2425  0.3097 -0.1223
  225W        W37719  25.058  34.845  11.602 -0.2396  0.3875  0.1138
  226W        W37720  17.120  31.814   1.126  0.1206  0.4279  0.0259
  227W        W37721  19.991  26.751  18.373 -0.3240  0.0413  0.1681
  228W        W37722   8.025  24.255   6.300 -0.3530  0.0881 -0.2326
  229W        W37723   1.728  34.758   2.702  0.0698 -0.4534  0.1576
  230W        W37724  20.320   2.946  21.246  0.1361  0.2285  0.1678
  231W        W37725  27.984   7.659  25.967  0.1380 -0.1144  0.1071
  232W        W37726  25.447  16.463  13.090 -0.1063 -0.2430  0.0172
  233W        W37727  25.425  31.855   0.252 -0.1885 -0.0847  0.2577
  234W        W37728  12.739  26.442  10.240  0.3076 -0.1205  0.1459
  235W        W37729  24.719  29.488  14.131 -0.1315 -0.0632  0.0484
  236W        W37730   4.157   2.633  25.126 -0.0570  0.3930 -0.0699
  237W        W37731   0.020  34.798  15.274  0.1010  0.2540  0.0199
  238W        W37732   3.249  19.254  19.295 -0.2764 -0.5043  0.2938
  239W        W37733  17.236  24.189   0.044  0.1177 -0.0592  0.0119
  240W        W37734  30.071  26.981  23.174 -0.2862 -0.0027 -0.0723
  241W        W37735   1.051   1.058  15.183  0.2894 -0.2864  0.1402
  242W        W37736  19.137  12.481  10.228 -0.2706 -0.3274 -0.1029
  243W        W37737   3.792  17.761  19.525  0.1383 -0.0152  0.0897
  244W        W37738  30.471  21.007   6.394 -0.0946 -0.0368  0.0613
  245W        W37739   4.767  25.624  20.005 -0.1279 -0.0471  0.1404
  246W        W37740   6.155  14.448  24.277  0.1266  0.2195  0.0794
  247W        W37741  17.015  33.253  22.422  0.0409  0.0858 -0.0530
  248W        W37742  17.119  28.867   2.458  0.1453 -0.1588 -0.1143
  249W        W37743  30.187   9.311   7.046  0.0831 -0.3412  0.1973
  250W        W37744  26.158   8.524  21.829 -0.0503  0.2463  0.1851
  251W        W37745   7.306  13.543   9.322  0.1899  0.4066 -0.0418
  252W        W37746  18.881   0.647  24.567  0.2115 -0.0713 -0.0912
  253W        W37747   1.114  11.436   0.382  0.3181 -0.1328  0.1231
  254W        W37748   4.724  22.297  18.756  0.1805  0.1241  0.1498
  255W        W37749   1.017  17.384   1.976  0.0588  0.0819  0.1371
  256W        W37750  11.305  24.443  24.933  0.2366 -0.0568  0.0923
  257W        W37751  30.854  27.423  19.556  0.0470  0.2947  0.0779
  258W        W37752   2.344  23.533   2.682  0.0862  0.2414  0.0653
  259W        W37753   0.402  31.826   9.119  0.1303  0.2472 -0.0042
  260W        W37754  32.160  32.435  14.517 -0.2243  0.0722  0.0673
  261W        W37755   6.434  11.875   6.895  0.1675  0.0480  0.0286
  262W        W37756  20.935  15.155  22.501 -0.0944 -0.1299 -0.0750
  263W        W37757  17.543   7.011   3.396 -0.0941  0.1607  0.1254
  264W        W37758  23.915   1.194   1.356  0.0891 -0.0049 -0.2628
  265W        W37759  13.268  24.110   6.205 -0.0228 -0.0914  0.0228
  266W        W37760  23.770   8.788  21.808 -0.2759  0.1154 -0.1472
  267W        W37761  17.477  20.769  21.743 -0.0322 -0.1614 -0.0107
  268W        W37762  23.845  26.135  24.029 -0.0419  0.1521 -0.1348
  269W        W37763   0.345   3.111  18.390  0.2457 -0.1560  0.1770
  270W        W37764   1.078  23.817  23.780 -0.0313 -0.0908 -0.0325
  271W        W37765   8.774  32.848   1.373  0.1848 -0.3884  0.0608
  272W        W37766   2.294   3.739   1.331 -0.1556  0.3841 -0.3546
  273W        W37767   1.386   0.989   4.359  0.5089 -0.1689 -0.1106
  274W        W37768  27.629   8.138  20.681  0.0598  0.0493 -0.1178
  275W        W37769  11.229  29.873  11.311  0.2951 -0.0867 -0.0526
  276W        W37770   4.863  22.534   3.839 -0.0178  0.0929 -0.2974
  277W        W37771  31.361  22.524   7.046 -0.1221 -0.0808 -0.2988
  278W        W37772  10.988  22.545  24.805 -0.1668  0.0524 -0.2864
  279W        W37773  17.636  32.461   8.559 -0.2867 -0.0967 -0.1471
  280W        W37774  17.642  23.584  10.108  0.0614  0.0632  0.1907
  281W        W37775  20.559   7.895  18.793 -0.1818 -0.3098 -0.0993
  282W        W37776  30.945  32.293  13.965  0.0328 -0.0265  0.2556
  283W        W37777  17.468  33.658  24.315  0.4817  0.0243  0.0673
  284W        W37778  35.072  19.203  20.400  0.3522 -0.0625  0.0859
  285W        W37779   6.813  24.813   1.036  0.0584  0.1744 -0.0143
  286W        W37780   2.905  32.516   4.990  0.2256 -0.3447 -0.0838
  287W        W37781  18.843  13.489  25.490 -0.1462 -0.1223 -0.0829
  288W        W37782  28.801  30.616  22.727  0.2508 -0.2639 -0.1112
  289W        W37783  15.097  16.860   7.503 -0.3040  0.0786 -0.1557
  290W        W37784   0.645  29.496   1.245  0.4050 -0.0907 -0.2700
  291W        W37785  20.684  29.449   8.140  0.1201  0.0604 -0.1926
  292W        W37786  19.378  31.064  18.956  0.1652  0.1795 -0.1438
  293W        W37787  18.627  27.572   3.466  0.2887 -0.0408 -0.0819
  294W        W37788  33.605  28.958  18.478  0.1140  0.0414 -0.0008
  295W        W37789  24.704  25.087  23.172  0.0985 -0.1907  0.1794
  296W        W37790   1.319  26.960  23.148 -0.5916 -0.0859  0.3297
  297W        W37791   8.766  11.641  22.829 -0.1277  0.0717 -0.0039
  298W        W37792  15.135  26.593  26.179  0.1124  0.2476 -0.3192
  299W        W37793  27.866   8.217  21.685  0.1100  0.1510 -0.0215
  300W        W37794   4.651  14.756  22.714  0.0186  0.0601 -0.0274
  301W        W37795   1.218  20.336  19.229  0.1156 -0.5573  0.0006
  302W        W37796  26.127  22.336  24.168 -0.0049 -0.0545 -0.2631
  303W        W37797  26.605  27.109  14.680  0.1233 -0.0104  0.2603
  304W        W37798  30.178   8.552  10.776  0.0783 -0.0183  0.1477
  305W        W37799  10.110  16.117  21.236  0.0975  0.0341 -0.0109
  306W        W37800  16.552   2.695  10.547  0.1289  0.1001  0.0140
  307W        W37801  14.345  12.773  12.292 -0.0581 -0.0114  0.1058
  308W        W37802  19.901  23.384   1.852 -0.2274 -0.0176 -0.1536
  309W        W37803  20.004   1.588  24.872  0.0686 -0.2046  0.3141
  310W        W37804  16.965  32.983   8.493 -0.1669  0.0511 -0.2372
  311W        W37805  26.493  11.587   0.073 -0.0208 -0.1039 -0.0430
  312W        W37806  31.925  17.827  15.287  0.0258  0.0238  0.1079
  313W        W37807  24.406  13.384  13.118 -0.1406 -0.0917  0.0087
  314W        W37808  13.560   7.523  20.162  0.2028 -0.2510  0.2604
  315W        W37809  14.552  30.792  12.892  0.0454 -0.2354  0.0315
  316W        W37810  15.992  11.953  12.242  0.3099 -0.0371  0.1475
  317W        W37811  26.604   2.589  13.815 -0.0687 -0.3696  0.0831
  318W        W37812  10.303   6.698  20.482 -0.1004 -0.0719 -0.0039
  319W        W37813  32.681   5.084  11.048 -0.2486  0.1118 -0.0548
  320W        W37814   3.007  26.962   0.062 -0.0249  0.1073  0.0389
  321W        W37815  21.755   5.147   2.120 -0.4685  0.0894 -0.2918
  322W        W37816  21.719  17.570  16.413 -0.1938  0.0723  0.0951
  323W        W37817  19.226  16.281   5.043 -0.3471 -0.1022  0.0022
  324W        W37818  11.389  22.748   4.173  0.2752  0.0052 -0.0042
  325W        W37819   7.310   1.770   7.934 -0.2417  0.2133  0.1336
  326W        W37820  28.350   6.028   2.841  0.0447 -0.3431  0.0332
  327W        W37821  29.174  14.799  25.374  0.1343 -0.0747  0.1477
  328W        W37822  32.326  14.486   7.120 -0.1632 -0.1097 -0.2819
  329W        W37823   9.427  20.845   4.417 -0.2169 -0.0809 -0.0795
  330W        W37824  22.849   4.863  25.646  0.0304 -0.0133 -0.1414
  331W        W37825   9.369  34.501   1.172  0.0752 -0.2942 -0.0314
  332W        W37826  21.059  35.318  21.948 -0.0384  0.0166  0.2084
  333W        W37827  14.711  22.897  25.811  0.4622  0.0884 -0.3102
  334W        W37828   5.918  19.202  26.006  0.0839  0.2202  0.1570
  335W        W37829   9.265   6.538   2.491  0.1169  0.0965  0.1231
  336W        W37830   4.274  10.496  18.533  0.1127  0.0400  0.2855
  337W        W37831  24.957  13.826   1.256 -0.0279 -0.2782  0.0448
  338W        W37832  11.636  21.443  26.038  0.1734  0.2855 -0.2439
  339W        W37833  34.853  11.355  10.286  0.0377  0.1001 -0.3529
  340W        W37834  11.003  16.943  21.871 -0.2188 -0.1300 -0.0810
  341W        W37835  34.083  20.278  12.467  0.1307 -0.0394  0.1045
  342W        W37836  26.798   5.607  21.761 -0.0538 -0.3128  0.0559
  343W        W37837  21.939  27.033  25.642 -0.0325 -0.1427 -0.0658
  344W        W37838  28.987   4.216   1.515  0.1487  0.0925 -0.0323
  345W        W37839   9.582   6.855  13.478 -0.4296 -0.1652 -0.3422
  346W        W37840  25.227  17.576  10.161  0.1173 -0.1593  0.0145
  347W        W37841  31.170  16.804  23.497 -0.0703 -0.3221 -0.0566
  348W        W37842  29.616  26.925  19.521 -0.0759 -0.1942  0.1115
  349W        W37843  35.191  15.451  16.812  0.3974 -0.1526  0.0010
  350W        W37844  19.112  30.863  23.751  0.0589 -0.0206  0.2297
  351W        W37845   4.185  18.978   1.881  0.0694 -0.0374  0.3000
  352W        W37846   1.100  23.869   0.716 -0.0074 -0.0153 -0.0768
  353W        W37847  12.514  14.641   1.073 -0.2877  0.1970 -0.2626
  354W        W37848  11.189  32.678  14.618  0.2590 -0.0566  0.3544
  355W        W37849  18.021  30.257  19.747 -0.1412  0.0034 -0.1511
  356W        W37850   4.293  11.504  22.977  0.2475 -0.1575  0.0674
  357W        W37851  22.543  28.865   3.852 -0.0234  0.1091 -0.1520
  358W        W37852  24.450   1.881   1.583 -0.2981  0.1039 -0.1735
  359W        W37853   1.900  22.014  17.850 -0.2188 -0.0471 -0.0014
  360W        W37854  30.270   9.754  20.972 -0.3098 -0.3864 -0.2147
  361W        W37855   2.619  12.676   2.340  0.1214  0.1049  0.1430
  362W        W37856  16.383  24.576  11.686  0.1086 -0.1633 -0.1883
  363W        W37857  29.501  25.748   1.167  0.1483 -0.2856 -0.0347
  364W        W37858   2.499  28.714   2.553 -0.0086  0.1289  0.1522
  365W        W37859  25.910  19.436   9.158  0.0234  0.2215 -0.1912
  366W        W37860  21.738   9.635   3.656  0.0396 -0.0217  0.2529
  367W        W37861  14.079  20.302  13.073  0.1703  0.0082 -0.0566
  368W        W37862   8.239  34.432   2.593 -0.0194 -0.1017  0.0099
  369W        W37863  10.661  16.790   7.611 -0.0065 -0.1391  0.2335
  370W        W37864  31.057  33.745  19.988  0.0452  0.0460  0.1640
  371W        W37865  15.652  24.224  14.954 -0.0157 -0.0471 -0.0631
  372W        W37866  28.553  25.405  24.293  0.1485 -0.2328  0.0004
  373W        W37867  17.736  32.657  25.878 -0.1014  0.0669  0.0346
  374W        W37868  25.330  21.299  16.674 -0.3281  0.0146  0.1290
  375W        W37869  10.982  35.237  20.080 -0.1096  0.0194  0.1025
  376W        W37870  28.175   1.384  18.627  0.1262 -0.2716 -0.1218
  377W        W37871   3.067  22.431  22.311 -0.3099 -0.0185 -0.2994
  378W        W37872  18.544  13.931  10.064 -0.1201 -0.3481  0.0491
  379W        W37873  31.009   6.862  12.237  0.0104  0.1265 -0.0115
  380W        W37874  17.137   4.973   2.167 -0.0803 -0.3162 -0.1358
  381W        W37875   9.165  27.812   1.629  0.2323 -0.2604 -0.0009
  382W        W37876  19.270  22.709   4.524 -0.0151  0.2963  0.0113
  383W        W37877   6.312  30.651   6.666 -0.0548  0.0406 -0.0305
  384W        W37878   2.358  27.096  10.901  0.0005 -0.0239  0.0257
  385W        W37879  32.490   5.706   1.614  0.0118 -0.2696 -0.0571
  386W        W37880   3.373  12.178  20.407  0.1463 -0.1838  0.0507
  387W        W37881  31.006  16.534   7.322  0.1344 -0.1485 -0.2581
  388W        W37882  21.487   6.387   0.876 -0.2905  0.2795 -0.1659
  389W        W37883  12.134  16.337  13.422  0.2473  0.1277  0.2424
  390W        W37884   8.251  25.518   0.301  0.3236  0.0340  0.0601
  391W        W37885  17.050  28.109  10.744  0.2711 -0.1080 -0.0165
  392W        W37886   2.320  20.708  21.991  0.0048 -0.1467 -0.1564
  393W        W37887  32.672  25.500  20.210  0.0571  0.1306 -0.2524
  394W        W37888  10.188  31.947   8.082 -0.0981  0.1799 -0.1391
  395W        W37889  13.135   1.027  21.149 -0.4734  0.2321 -0.0695
  396W        W37890  15.548  32.119  11.063  0.1218 -0.2659  0.1307
  397W        W37891  20.004  35.134   0.831  0.0783 -0.0369  0.3441
  398W        W37892  14.315  21.480  24.003 -0.1697 -0.3458 -0.0783
  399W        W37893  11.873   3.620   3.013  0.1142  0.3409  0.1282
  400W        W37894   1.594  27.667   4.821  0.1630 -0.0707 -0.0468
  401W        W37895  27.037   4.087  15.021 -0.1852 -0.2097  0.3800
  402W        W37896  33.661  14.822   9.847  0.0988 -0.0173 -0.0197
  403W        W37897  19.776  23.633  26.237 -0.1122 -0.0173  0.3055
  404W        W37898  15.474  13.512  23.053  0.2034  0.0536 -0.0832
  405W        W37899   5.321  31.021   3.852 -0.0493  0.3775  0.1041
  406W        W37900  26.743  22.292  21.273 -0.1814  0.0487  0.1008
  407W        W37901  27.223   3.016  17.541  0.0736  0.0116 -0.0422
  408W        W37902  10.157   6.835   6.931  0.0524 -0.0541  0.3348
  409W        W37903   9.049  30.176   5.070 -0.0339 -0.1558  0.1222
  410W        W37904  31.404  10.466   7.093  0.1522 -0.1114 -0.1746
  411W        W37905   4.639  11.316  21.090 -0.3061  0.0196  0.0846
  412W        W37906  24.226  29.570  21.675  0.0806  0.2229  0.0379
  413W        W37907   7.539  26.069  12.252 -0.1456  0.0398  0.1413
  414W        W37908  18.009   9.708   4.284 -0.2142  0.0480 -0.0488
  415W        W37909   6.549  30.050  21.206  0.3117 -0.0269 -0.1522
  416W        W37910   9.307  33.144   7.841 -0.0254 -0.1713  0.0154
  417W        W37911  17.208   8.292   3.111  0.0256  0.1389 -0.4970
  418W        W37912   1.212  32.527   7.024 -0.0312  0.1352  0.0120
  419W        W37913  33.869   4.255   6.395 -0.2019 -0.1330  0.1154
  420W        W37914  14.918   5.477   2.815 -0.2423 -0.2432  0.3468
  421W        W37915  17.239  15.818  18.738  0.1729  0.0165 -0.0098
  422W        W37916  31.087  21.755  15.932 -0.0710 -0.1203 -0.1819
  423W        W37917  28.968  33.732  24.060  0.2113  0.2100 -0.3392
  424W        W37918  29.683   7.444   1.176  0.2498  0.0450 -0.0101
  425W        W37919  12.427   4.787  22.823 -0.1429  0.1246  0.1568
  426W        W37920  25.410   1.595  14.662 -0.0973 -0.0371 -0.0367
  427W        W37921  15.414   7.365  10.099 -0.1442  0.3805  0.0086
  428W        W37922  10.664  15.800   7.542 -0.0681 -0.1342  0.0384
  429W        W37923   8.726  15.884  25.005  0.0427 -0.0049 -0.1701
  430W        W37924  11.309  12.622  10.170  0.0858  0.1733  0.2149
  431W        W37925  30.543  29.058  23.724  0.0792 -0.2634  0.0625
  432W        W37926  30.529  27.517  11.853  0.0378 -0.1073  0.0049
  433W        W37927  28.988  33.439  18.550 -0.1274  0.1129  0.1256
  434W        W37928   5.898  13.641   5.990 -0.4090 -0.0339  0.1337
  435W        W37929  21.066  16.113   2.162  0.2367  0.3434  0.2136
  436W        W37930  25.492   6.736  14.887  0.0304  0.0007  0.1845
  437W        W37931  17.918  28.345   5.185 -0.2707  0.1709 -0.2066
  438W        W37932  16.132   7.194   5.172 -0.1441 -0.2592 -0.0174
  439W        W37933   3.182   8.529  18.849  0.1919  0.0501 -0.2918
  440W        W37934   8.680  22.970  23.615 -0.0234  0.0065 -0.1554
  441W        W37935  14.036  20.410   2.885  0.1854  0.0786 -0.0643
  442W        W37936  20.118   3.981   6.113 -0.1927 -0.0313  0.2225
  443W        W37937  27.606  19.593   6.656  0.1571  0.3015 -0.1690
  444W        W37938  24.084   5.397  15.722  0.0284 -0.0263  0.0181
  445W        W37939  26.803  32.461   3.679 -0.1532 -0.1687 -0.1049
  446W        W37940  13.611   2.948   3.413 -0.1239 -0.3424 -0.1593
  447W        W37941   7.659   0.017  19.650  0.1360  0.1545  0.1035
  448W        W37942  34.497   7.044  15.931 -0.1359 -0.0327  0.1758
  449W        W37943  30.076  32.126  13.671 -0.0606  0.1358 -0.0166
  450W        W37944  27.556  18.913  12.707  0.0285 -0.0610 -0.0987
  451W        W37945  13.576  13.980   3.529  0.2432  0.2173  0.3936
  452W        W37946  15.189  24.461   7.779  0.2490  0.3254  0.2469
  453W        W37947   9.796   9.020   7.584 -0.1002  0.1282 -0.2452
  454W        W37948  25.033  14.790  25.077  0.0873  0.0378 -0.3872
  455W        W37949  20.593  11.729  20.807  0.0233 -0.1970 -0.1375
  456W        W37950   0.867  33.094   2.408  0.0423  0.2291  0.0312
  457W        W37951  32.289   7.612  19.242 -0.0561 -0.0926  0.0194
  458W        W37952  32.992  25.887  15.867  0.1144 -0.0864  0.2262
  459W        W37953  30.536   7.724  10.930 -0.1139 -0.1887  0.0104
  460W        W37954   2.097  29.659   7.798  0.0373  0.1769 -0.2129
  461W        W37955  18.090  23.508  12.454 -0.2098 -0.0378 -0.0632
  462W        W37956  26.382   6.970  13.200 -0.0888 -0.2436 -0.1011
  463W        W37957  34.347   0.113  14.613  0.4241  0.0579 -0.0153
  464W        W37958  16.296   8.098   5.545  0.1002  0.3408  0.2602
  465W        W37959  28.308  11.260  13.283  0.1617  0.1186  0.1024
  466W        W37960  25.376  10.701  13.465 -0.2222  0.1694 -0.0919
  467W        W37961   5.371   0.513  19.484 -0.1422  0.1065 -0.0773
  468W        W37962  16.964  29.517   0.711  0.1446  0.1316 -0.0450
  469W        W37963   9.538  17.203  11.763  0.0048 -0.0973 -0.1132
  470W        W37964  26.937  17.611  10.023 -0.1029  0.1998 -0.0030
  471W        W37965  28.151  20.283  12.821 -0.0791  0.1710  0.3056
  472W        W37966  11.243   0.029   9.026 -0.0727  0.0691  0.2720
  473W        W37967  27.447   3.964  15.353 -0.0791  0.3834  0.5533
  474W        W37968  12.944  13.314   4.042 -0.2293 -0.1257 -0.3514
  475W        W37969  30.440  34.536   6.796 -0.0091 -0.2129 -0.1008
  476W        W37970  27.919   7.702  13.662 -0.3298  0.1093 -0.1899
  477W        W37971  34.880  28.663  16.644  0.0919  0.2726  0.1787
  478W        W37972  32.932  32.291  20.387  0.0768  0.0110 -0.2627
  479W        W37973  34.989  30.562   0.185 -0.1413 -0.1626  0.1247
  480W        W37974  18.850  35.045   6.172 -0.2036  0.2453 -0.2306
  481W        W37975  15.202  16.514  19.568 -0.0855  0.3431 -0.0569
  482W        W37976  30.962   7.563   9.682 -0.5365  0.0472 -0.0617
  483W        W37977  23.877  30.316  25.073  0.0992 -0.2664 -0.0591
  484W        W37978  12.876  27.684  25.048 -0.0272  0.1574  0.0687
  485W        W37979  28.825  18.915  19.591 -0.2028 -0.0449  0.2610
  486W        W37980  16.633  24.752   6.163 -0.0408 -0.0050  0.1030
  487W        W37981  16.734   5.918  18.097 -0.4960 -0.1919  0.1266
  488W        W37982  10.924  32.817   5.494  0.3494  0.0153 -0.0711
  489W        W37983   8.352  24.373   3.393 -0.0689  0.1188 -0.1191
  490W        W37984  14.423  21.551   3.647 -0.0263  0.1300  0.0880
  491W        W37985  33.665  19.471   0.032 -0.0483  0.3530 -0.0496
  492W        W37986  14.596  13.535  11.552 -0.1431 -0.1397 -0.2666
  493W        W37987  15.900   0.510   0.327 -0.2945 -0.1923  0.2479
  494W        W37988  24.500  10.555  23.390  0.1197  0.1804 -0.1734
  495W        W37989  11.386  11.048  21.115 -0.1207  0.0852 -0.1771
  496W        W37990  34.191  11.124   1.354  0.2367  0.1587  0.2514
  497W        W37991  18.458  28.494  24.573 -0.2737  0.1321 -0.2702
  498W        W37992  18.288  27.959   5.523  0.1594  0.2424  0.1064
  499W        W37993  18.425   7.229  11.011 -0.1253 -0.1968  0.1403
  500W        W37994  28.192  32.381  14.557  0.0624  0.1342  0.0091
  501W        W37995  19.602  17.861   4.611  0.0957  0.1470 -0.0983
  502W        W37996  25.457  13.114  17.864 -0.1004 -0.1177 -0.0000
  503W        W37997  10.704   3.048  21.888 -0.0204  0.1149  0.0875
  504W        W37998  28.889  24.043  21.217  0.1289 -0.0321 -0.2698
  505W        W37999   3.746   5.613  25.553 -0.0020  0.0763 -0.0486
  506W        W38000  10.769  10.139  20.499  0.1258 -0.3809  0.1669
  507W        W38001   8.344  29.831   5.430 -0.0427  0.3203 -0.2440
  508W        W38002  29.042  22.389   9.307 -0.0870  0.0710  0.1428
  509W        W38003   3.964  13.158  16.331 -0.0953 -0.0515  0.0662
  510W        W38004  18.715   7.233   4.242  0.1857 -0.0161 -0.1212
  511W        W38005  13.284  34.237   6.826 -0.0285  0.1404  0.2102
  512W        W38006   4.126   6.145  22.431 -0.1949  0.1545  0.0682
  513W        W38007  34.814  10.041   0.124  0.0485 -0.2456  0.0619
  514W        W38008  26.365  31.083  14.664  0.4636  0.0743  0.3753
  515W        W38009  16.076  20.819  26.092 -0.1148  0.0832  0.0693
  516W        W38010   6.707  28.873   6.405 -0.0543 -0.0916 -0.0662
  517W        W38011   5.042  26.559  12.738 -0.1011 -0.1125 -0.0522
  518W        W38012  11.476  11.584  12.182 -0.1693  0.1935  0.0578
  519W        W38013  14.024  10.935  20.730  0.2819  0.1945  0.0476
  520W        W38014  19.101  34.731   1.059  0.3584 -0.0256 -0.1515
  521W        W38015  11.333   1.214  26.242 -0.0798 -0.0062  0.0437
  522W        W38016   0.949  11.750  12.211 -0.1942  0.1479  0.5298
  523W        W38017  33.678  27.421  20.955  0.3058 -0.0720 -0.2431
  524W        W38018   9.932  25.412   9.283 -0.1064 -0.1867 -0.0576
  525W        W38019   4.539  23.963   3.305  0.0032 -0.1976  0.1819
  526W        W38020  18.425   1.081  25.193 -0.1668  0.1741  0.2849
  527W        W38021  15.652  19.680   5.523  0.0412  0.2020  0.4311
  528W        W38022  16.604  28.320  26.107 -0.0318  0.3360 -0.0730
  529W        W38023  17.924   3.718   6.945 -0.2194  0.0229  0.3369
  530W        W38024   1.780  28.625   4.598  0.0871 -0.2631 -0.0368
  531W        W38025   3.523  12.142  15.403 -0.3975 -0.3028  0.1671
  532W        W38026   2.238   2.034  19.344  0.1231 -0.0780  0.0494
  533W        W38027  25.334  30.075  16.555 -0.1007 -0.2667 -0.0743
  534W        W38028   9.360  30.866   2.452 -0.0423 -0.2953  0.0832
  535W        W38029   8.246   1.500  22.069  0.1493 -0.0528 -0.2265
  536W        W38030  17.507  15.371  18.408 -0.2241 -0.0897 -0.0022
  537W        W38031  16.098  14.039   2.116  0.0572  0.0777 -0.1856
  538W        W38032   0.485  21.435  23.596 -0.0442  0.2256  0.0647
  539W        W38033  15.168   0.365  22.835  0.0870  0.0093 -0.0382
  540W        W38034  34.177   0.646   3.959 -0.1235 -0.1541  0.4130
  541W        W38035  32.501   3.293   4.678 -0.1878 -0.1431  0.0857
  542W        W38036  24.587  32.496  25.509 -0.1760  0.1736 -0.2490
  543W        W38037  32.210  26.740  21.522  0.1171  0.1160  0.1534
  544W        W38038  27.727  27.448  22.979  0.1455  0.4142 -0.0204
  545W        W38039  10.984   9.901  24.966 -0.2102  0.0250 -0.0027
  546W        W38040  26.954  10.218  20.192  0.2015 -0.1056  0.0280
  547W        W38041  24.957  16.937   0.042  0.0285  0.2338 -0.0658
  548W        W38042  33.679  21.076  23.261  0.0398 -0.0259 -0.0139
  549W        W38043  17.697  33.197   2.607 -0.1197 -0.1929 -0.2911
  550W        W38044  14.266  35.300  10.097 -0.2765 -0.0905 -0.1966
  551W        W38045  16.869  13.069  10.162 -0.1329  0.1354 -0.0274
  552W        W38046  11.959   0.875  25.294  0.1096  0.1108 -0.0856
  553W        W38047  10.575  14.023  22.538 -0.0853  0.0262 -0.0435
  554W        W38048  19.089  28.789   3.764  0.1637 -0.3275  0.2330
  555W        W38049  26.630   0.149  17.652 -0.0777  0.0380  0.1379
  556W        W38050   7.625  27.647   8.813 -0.1438 -0.2873  0.1109
  557W        W38051   9.626  14.678  22.949  0.0602  0.0213 -0.1481
  558W        W38052  25.725  11.740  11.688 -0.0014 -0.1372 -0.1494
  559W        W38053   7.591  28.403  13.114 -0.0187 -0.0488 -0.1308
  560W        W38054  35.006  15.387  25.047 -0.0571 -0.3646  0.1835
  561W        W38055  25.753  13.979  14.450  0.3136  0.2508 -0.1020
  562W        W38056  32.778  14.741  18.552  0.0303  0.0351  0.0675
  563W        W38057  21.882  15.101   3.365 -0.2656  0.0899 -0.1227
  564W        W38058  33.727  28.514  22.834  0.1613 -0.1710  0.1291
  565W        W38059  26.662   7.066  14.382  0.2484 -0.1332 -0.0095
  566W        W38060  11.355  24.056  13.544  0.3968 -0.0669  0.1804
  567W        W38061  28.735   1.594  10.991 -0.1356 -0.1058 -0.1129
  568W        W38062  26.384  19.230  21.162  0.0401  0.0747 -0.2477
  569W        W38063  30.297   0.307  25.290 -0.1404  0.0516 -0.1489
  570W        W38064  33.172  22.233   0.178 -0.1119  0.0245  0.5127
  571W        W38065  15.689  15.428   0.079  0.1049  0.3363  0.1209
  572W        W38066  18.083  23.058   2.197 -0.3438 -0.3759 -0.0533
  573W        W38067  11.873  16.751   8.456  0.3127 -0.0087 -0.1037
  574W        W38068  28.660   8.441  25.170 -0.2412 -0.1754  0.1660
  575W        W38069   2.525  18.230   1.823 -0.4383 -0.2531 -0.0854
  576W        W38070   6.283   9.959  22.455 -0.0957  0.0413 -0.0618
  577W        W38071  10.866  19.351  24.240 -0.1556 -0.0011  0.5824
  578W        W38072  13.345   8.210  24.699 -0.2339  0.0921  0.3697
  579W        W38073  35.351   6.292  25.497  0.1085  0.0198  0.0387
  580W        W38074   4.491   2.085  11.002 -0.3544 -0.1339 -0.0251
  581W        W38075   0.186  13.897  11.036  0.0969 -0.0283  0.1069
  582W        W38076  24.617  20.968  14.632 -0.1381  0.1229 -0.1033
  583W        W38077  34.462  11.834  22.872  0.1911 -0.0115  0.1529
  584W        W38078   1.503  18.450  22.667 -0.2030 -0.2132  0.1819
  585W        W38079  13.982  24.318  22.019  0.1654  0.1177  0.0393
  586W        W38080   3.274   6.499   0.434  0.1646 -0.2740  0.2806
  587W        W38081  19.136  14.387  11.279 -0.1844 -0.0300  0.1316
  588W        W38082  21.438  18.814  19.594 -0.3232 -0.1381 -0.0554
  589W        W38083  30.395  29.785   1.073 -0.1014 -0.2494 -0.0956
  590W        W38084  21.632   9.689   6.775  0.4042 -0.0619  0.0347
  591W        W38085  21.981   2.139  24.804 -0.1329 -0.0393  0.3930
  592W        W38086  21.592   7.041   6.179 -0.1727 -0.2146  0.1469
  593W        W38087  15.268  33.128   1.350  0.0352 -0.0202 -0.1106
  594W        W38088  15.875  18.208  21.579 -0.0862  0.1368 -0.0744
  595W        W38089  28.602  12.278  15.785 -0.2385  0.0938 -0.1848
  596W        W38090  25.029   8.904  15.134 -0.0999 -0.3798 -0.0592
  597W        W38091  16.512   9.916  20.593 -0.2702 -0.1936 -0.0415
  598W        W38092  31.210  20.580  14.134  0.0188 -0.0897  0.0143
  599W        W38093  11.322  35.372   5.205  0.5075 -0.1348 -0.0158
  600W        W38094  23.778  13.844  17.723  0.1083 -0.0910  0.0899
  601W        W38095  23.963  12.386   0.250 -0.0980  0.1977  0.4000
  602W        W38096   5.860  27.072   6.635  0.0109 -0.1961 -0.1495
  603W        W38097  27.263   1.790  12.892  0.3312  0.0863  0.2365
  604W        W38098  20.933   4.275   1.614 -0.1105 -0.0136 -0.0108
  605W        W38099  23.334  10.634  15.712 -0.0941  0.0308  0.2886
  606W        W38100   5.949   1.262  11.958  0.1031  0.2477  0.0384
  607W        W38101  12.884  22.627  24.104 -0.0027  0.0515  0.0342
  608W        W38102  15.111  19.071   4.052  0.0476  0.1596 -0.0170
  609W        W38103  29.193   0.164  18.448 -0.0128 -0.0238  0.0607
  610W        W38104  11.302  12.067  19.865  0.1094  0.1127  0.3053
  611W        W38105  15.703  18.575  19.669 -0.2745  0.0741 -0.2211
  612W        W38106  28.429  10.587  23.681 -0.1049  0.2163 -0.3063
  613W        W38107   1.007  31.345  17.185  0.2488  0.1652  0.3959
  614W        W38108  23.570  22.998  26.125 -0.1185 -0.2951 -0.0681
  615W        W38109  31.876  32.955  15.621  0.2432 -0.0748 -0.3151
  616W        W38110  22.036  10.164   1.619 -0.4350  0.1343 -0.2649
  617W        W38111  30.822  14.721   9.951 -0.2061 -0.5206 -0.3422
  618W        W38112  20.440  23.459   1.832  0.2784  0.2034  0.1892
  619W        W38113  20.146  22.618   9.050  0.0358  0.0967  0.0705
  620W        W38114  26.400   8.053  10.815 -0.0497  0.0191  0.2984
  621W        W38115  22.270  28.652  21.417  0.2441  0.0541 -0.0826
  622W        W38116  13.576  21.044   3.064  0.0921  0.0966  0.0795
  623W        W38117  10.418  27.655  10.516 -0.2020  0.0936 -0.1815
  624W        W38118   0.370  21.124  10.518  0.2119  0.5973  0.0116
  625W        W38119  23.180   0.050   7.061  0.2092 -0.0599  0.1400
  626W        W38120  10.470  35.004  25.575 -0.2354  0.0038  0.1118
  627W        W38121   6.904  22.297  23.466 -0.0202  0.2153  0.0988
  628W        W38122  34.899  26.371  23.691 -0.1478  0.3727  0.0317
  629W        W38123  26.216   8.550  11.182  0.3317 -0.4598  0.3636
  630W        W38124  30.798  12.764  19.759 -0.0703  0.1431  0.3096
  631W        W38125  30.809  25.235  17.235 -0.0784 -0.2256  0.0330
  632W        W38126  20.487  34.659  21.513  0.2092  0.0350 -0.2516
  633W        W38127  25.987   7.730  16.996  0.3066 -0.1516 -0.2586
  634W        W38128   5.934  12.821  25.901 -0.2387 -0.1863 -0.1538
  635W        W38129  11.725   8.196  21.375  0.0294  0.3576 -0.2096
  636W        W38130  29.414  23.491  18.919 -0.1256 -0.0479  0.1726
  637W        W38131   6.612   9.360   9.191  0.0302 -0.2661  0.1436
  638W        W38132  20.307  12.745  25.378 -0.0338 -0.1768 -0.1320
  639W        W38133   6.700   8.486  21.421 -0.0970  0.0266 -0.0634
  640W        W38134  17.310  31.046   4.213 -0.1392 -0.0280 -0.1975
  641W        W38135  26.269  20.567  14.617 -0.3482  0.3312 -0.0449
  642W        W38136  14.972   6.032  10.951  0.1896  0.1276 -0.0399
  643W        W38137   8.040  19.628  23.272  0.0317 -0.0786 -0.2899
  644W        W38138   9.027  24.332  23.296  0.0828  0.0271 -0.3173
  645W        W38139   3.775  13.750  18.817 -0.2710  0.1871  0.2694
  646W        W38140   0.861   7.415   0.022  0.1104  0.0113 -0.1074
  647W        W38141   0.031  13.119  21.670  0.0600  0.0756  0.4393
  648W        W38142  11.583  19.165   3.639  0.0928  0.2292 -0.1347
  649W        W38143   1.295  33.568   9.291  0.1254 -0.0928 -0.2092
  650W        W38144  15.033   7.380  18.033  0.1039  0.1206  0.1726
  651W        W38145  27.865  25.982  19.239  0.2347  0.1781 -0.3020
  652W        W38146  22.019   2.892  19.652 -0.1122  0.1748 -0.0715
  653W        W38147   2.012  33.667   7.983 -0.2527  0.2207  0.1493
  654W        W38148  16.617   2.528  19.599 -0.2498 -0.0065 -0.0461
  655W        W38149   8.358  17.604   4.172 -0.2229 -0.1218  0.0432
  656W        W38150   6.683  24.113  11.651  0.0881  0.1892 -0.1259
  657W        W38151  20.795  12.550   3.967 -0.3087 -0.1059  0.1311
  658W        W38152  23.131   8.070  22.505 -0.0711  0.0153 -0.3197
  659W        W38153   0.935  29.027   4.970 -0.2141 -0.1963  0.2248
  660W        W38154  16.729  28.856   1.843 -0.0274  0.0467 -0.0604
  661W        W38155  12.049  30.595  23.088 -0.0327  0.1648 -0.3858
  662W        W38156  20.178  13.799   7.277  0.1734  0.0603 -0.1302
  663W        W38157  32.653  26.847  11.991  0.2281  0.0893  0.2713
  664W        W38158  26.597  17.823  14.547  0.1290 -0.0033  0.0319
  665W        W38159   9.040  34.016  24.248  0.1385 -0.0693 -0.0003
  666W        W38160  31.050  28.265   4.051  0.0771  0.0491 -0.1280
  667W        W38161   7.818  23.506  11.903 -0.1048 -0.5050 -0.1447
  668W        W38162  34.371   3.867  16.716 -0.2680 -0.3877 -0.1006
  669W        W38163  13.278   1.388   7.075  0.0566  0.0751 -0.2363
  670W        W38164   4.919   5.102  24.796 -0.1488  0.1545 -0.0035
  671W        W38165  26.971  13.492  14.110  0.0786 -0.2541 -0.0874
  672W        W38166  29.524  34.256   5.724 -0.1976 -0.1719  0.3746
  673W        W38167  31.343   8.886  25.721 -0.0676 -0.3214  0.0653
  674W        W38168  14.071  19.795  12.260  0.2434 -0.0166 -0.3271
  675W        W38169   2.102  12.614  13.661  0.1117  0.1624 -0.0608
  676W        W38170  16.210  34.429   0.640 -0.2314  0.2516 -0.0679
  677W        W38171   8.153  31.126   5.868  0.4844  0.0521  0.2019
  678W        W38172  16.429  27.771   7.550  0.0987  0.0268  0.1458
  679W        W38173  19.810  21.439  22.864  0.0240 -0.0547 -0.2230
  680W        W38174  12.736  32.383   5.896  0.0912  0.0276  0.1456
  681W        W38175  30.712  34.400  22.661  0.0811  0.3313  0.0241
  682W        W38176   2.734  28.913   0.913  0.1831  0.1640  0.0239
  683W        W38177  19.980  16.374  20.080 -0.3236  0.0687  0.2291
  684W        W38178   3.026  31.281   1.448  0.1019 -0.2443  0.0947
  685W        W38179  23.744  27.307   0.011  0.1208 -0.0307 -0.0692
  686W        W38180  32.051  27.654  21.490 -0.2440 -0.1785 -0.0513
  687W        W38181   2.489  29.798   0.421  0.0267 -0.3680  0.2170
  688W        W38182  25.495  33.176  12.964 -0.3156 -0.0122 -0.1256
  689W        W38183  16.912  33.875   0.872 -0.2460 -0.3365 -0.0601
  690W        W38184   0.747  30.299   1.910  0.2298  0.0466  0.0599
  691W        W38185  23.326  24.021   0.170 -0.1339  0.1449  0.0620
  692W        W38186   7.031   9.037   3.764  0.1966 -0.0456 -0.1869
  693W        W38187  19.598  19.437  20.867  0.2301  0.0446  0.3796
  694W        W38188   7.123  17.681   9.969  0.3889 -0.2440 -0.2255
  695W        W38189  34.201  13.304   0.358 -0.1558  0.1796 -0.1548
  696W        W38190   3.630  20.032   1.034 -0.0446 -0.0920  0.0662
  697W        W38191  21.239   7.501  17.125  0.1758  0.1899 -0.0660
  698W        W38192  27.551  11.767   8.109  0.1455 -0.2383  0.0276
  699W        W38193  20.304  22.163   3.939 -0.3157  0.0210 -0.2233
  700W        W38194  31.623   5.417  16.879 -0.0145  0.2615 -0.3062
  701W        W38195  31.988  26.596   2.514 -0.2490 -0.1475  0.2764
  702W        W38196  14.379   7.867  20.778  0.2001  0.2410  0.0274
  703W        W38197  28.817  14.234   8.117  0.0735  0.1938 -0.0485
  704W        W38198   0.953   5.201  18.413 -0.1495  0.4529  0.0363
  705W        W38199  19.184  23.439  24.464  0.0294 -0.2566  0.2239
  706W        W38200  20.737   3.510  16.497 -0.0995  0.2211 -0.0813
  707W        W38201  16.859   4.786  25.299  0.2156  0.0234 -0.1812
  708W        W38202   0.741  20.850   0.036 -0.1004  0.3299 -0.1865
  709W        W38203  34.994   3.574  22.404  0.0631  0.2414 -0.0197
  710W        W38204  34.957  23.223  17.543  0.1369  0.0105 -0.0529
  711W        W38205  16.897  20.431  22.529 -0.1613 -0.2384  0.1165
  712W        W38206  23.417  21.602  22.375 -0.0398 -0.1592  0.1117
  713W        W38207  20.149  34.555  17.962  0.0939 -0.0050  0.1535
  714W        W38208   7.391   6.342  20.584 -0.0879 -0.0114  0.4615
  715W        W38209   1.172   0.825  17.921 -0.2239 -0.2163 -0.0864
  716W        W38210  31.236  12.496  23.260  0.2562  0.1642 -0.0507
  717W        W38211   3.275  26.080  24.674 -0.3363 -0.0242  0.1055
  718W        W38212  20.667  16.730  19.442 -0.3859 -0.0926 -0.1534
  719W        W38213  30.174  15.555   7.689 -0.2329 -0.0392 -0.2626
  720W        W38214  12.510   8.368  24.309 -0.0376 -0.0288 -0.2978
  721W        W38215  16.347  10.678   1.496  0.1427  0.2903 -0.0271
  722W        W38216   0.032  16.720   0.200  0.0228  0.3266  0.0032
  723W        W38217   3.871  28.462  23.782 -0.2092 -0.2292 -0.0156
  724W        W38218  11.348  34.272  24.165 -0.2695  0.2112  0.2552
  725W        W38219  30.250   6.797  25.898 -0.0685  0.1712  0.2115
  726W        W38220  21.905   0.558   2.320 -0.1549 -0.0011  0.1553
  727W        W38221  13.922  11.289  24.183  0.1076 -0.1267  0.3570
  728W        W38222  23.985  34.315  20.180  0.0356 -0.0088 -0.1443
  729W        W38223   4.154  30.694   8.620 -0.0596  0.1350  0.0794
  730W        W38224  33.751  31.220  20.890  0.2592 -0.2722 -0.0194
  731W        W38225   9.626  10.459  21.254  0.1688 -0.2089  0.1977
  732W        W38226  30.707  34.248  20.617 -0.0275 -0.3877 -0.1220
  733W        W38227  16.554  18.334   1.843 -0.0201 -0.5132  0.2979
  734W        W38228  31.091  19.697   5.886 -0.0497 -0.1147 -0.0876
  735W        W38229   7.123   5.558  11.745  0.0826  0.1292  0.3986
  736W        W38230  23.874  10.469  17.407  0.0582  0.2405  0.1676
  737W        W38231  19.733  31.801  21.328 -0.1118 -0.3788  0.0384
  738W        W38232  19.876   5.337   0.889  0.4264  0.1229  0.1561
  739W        W38233  25.850  10.219  24.193 -0.0100 -0.0365 -0.0691
  740W        W38234   4.271  23.653  25.535 -0.4777 -0.3658  0.2204
  741W        W38235  11.946  30.615  25.052  0.0755 -0.2263  0.1332
  742W        W38236  15.773   5.392   1.638 -0.2335 -0.0437 -0.3521
  743W        W38237  11.417  30.157  13.061 -0.1192  0.1567 -0.0167
  744W        W38238  34.980   5.555   4.391 -0.0845 -0.0101  0.0661
  745W        W38239  33.540   2.130   1.621 -0.2004 -0.2005 -0.1727
  746W        W38240  29.734  15.393   8.965  0.0674 -0.0079 -0.3435
  747W        W38241   3.560   9.389  25.336 -0.3386  0.1998 -0.0421
  748W        W38242   8.788   8.967  18.161  0.1122  0.2768  0.0072
  749W        W38243  17.345  29.375  25.674 -0.1899 -0.1257  0.0276
  750W        W38244  28.940  24.560  21.796 -0.0345 -0.2543 -0.1668
  751W        W38245  24.693  17.809   8.408  0.1364 -0.0664  0.0260
  752W        W38246  10.771   5.352  13.235 -0.3152  0.0818  0.0653
  753W        W38247  29.441  35.161  24.444 -0.2441  0.1636  0.1672
  754W        W38248   1.425   3.614  17.704 -0.0807 -0.0053  0.0079
  755W        W38249  21.744   0.070   0.520 -0.1341  0.1186 -0.1211
  756W        W38250   3.225   0.504  25.669  0.0585 -0.0696  0.0539
  757W        W38251  18.839  23.420   6.602  0.3712  0.1180  0.0113
  758W        W38252   7.957  21.928   1.628  0.0715  0.0044 -0.1380
  759W        W38253  30.167   5.577  20.730 -0.0026  0.0338 -0.0334
  760W        W38254  16.098   6.821  13.116  0.3826  0.2015 -0.3596
  761W        W38255  18.589  14.555   4.118 -0.1508  0.0380  0.0980
  762W        W38256   9.454  26.113  25.308 -0.0445  0.1725 -0.0663
  763W        W38257  17.764  13.890  18.226  0.1126 -0.0853 -0.0208
  764W        W38258   1.755   4.129   7.590  0.2445  0.0551 -0.2297
  765W        W38259  31.422   1.456   1.557 -0.0853 -0.0397 -0.2385
  766W        W38260  25.285   1.113   2.347  0.0315  0.0939  0.1366
  767W        W38261  29.494  15.605  25.490  0.2981 -0.2181 -0.2465
  768W        W38262  12.778   1.507   4.608 -0.1667 -0.2298 -0.0889
  769W        W38263   9.781   0.728  12.298  0.1408  0.3613 -0.2222
  770W        W38264   8.694  11.926  10.673  0.1055  0.0902 -0.1669
  771W        W38265   0.332   4.786  20.590 -0.1218 -0.0728 -0.2594
  772W        W38266  19.666  10.978   7.584  0.2261  0.2840 -0.0491
  773W        W38267  17.215  28.511   0.440  0.1217 -0.2958 -0.0099
  774W        W38268  20.198  24.895   4.748  0.1713  0.0891 -0.1889
  775W        W38269  30.503   0.530  24.834  0.0397  0.1136  0.2237
  776W        W38270   7.865   5.831  24.846  0.0383 -0.3277 -0.1016
  777W        W38271  29.815   9.770  14.856 -0.0303  0.0313 -0.0514
  778W        W38272   2.579   2.127  20.610  0.1281 -0.1261  0.0192
  779W        W38273  23.562  14.212  24.095 -0.2440 -0.2822  0.0344
  780W        W38274   7.860  26.904  15.876  0.1168  0.2202  0.1487
  781W        W38275  25.883   2.189  24.867 -0.0576 -0.0789 -0.0405
  782W        W38276  18.363  10.506   4.060 -0.0951  0.0373  0.0178
  783W        W38277   9.221  24.368  21.996  0.1448  0.0437  0.0567
  784W        W38278  28.648   0.500  20.495  0.0012 -0.2342 -0.0563
  785W        W38279  14.042  18.908   8.825 -0.2520 -0.2128 -0.2005
  786W        W38280  18.953  17.330   4.083  0.3034 -0.4056  0.1320
  787W        W38281  25.625   9.700   0.680  0.2469 -0.1092 -0.0592
  788W        W38282  26.932  13.809  20.329  0.0830  0.0491 -0.1797
  789W        W38283  13.103   6.220   3.490 -0.2316  0.1095 -0.2188
  790W        W38284   6.560  15.403   3.693 -0.1046  0.0228 -0.0052
  791W        W38285   5.503  21.763  22.409  0.1438  0.0418  0.0219
  792W        W38286  15.105  14.613  12.180  0.2221 -0.4605  0.3215
  793W        W38287  28.125  31.121  11.054  0.1122  0.0442  0.0539
  794W        W38288  33.593  12.631  20.312  0.1928  0.0772  0.1036
  795W        W38289  13.376  29.588  23.797 -0.3822 -0.0997 -0.0637
  796W        W38290  20.717  18.444   4.403  0.2519 -0.0986 -0.1079
  797W        W38291   4.467   5.423  19.988 -0.0539 -0.2544 -0.0378
  798W        W38292   1.253  29.900  18.940  0.2091  0.0468  0.2072
  799W        W38293  32.576  33.037  18.519 -0.1724  0.3388 -0.0434
  800W        W38294   7.737  12.966  22.005 -0.0159  0.4163  0.0378
  801W        W38295  13.572  31.983   3.317  0.0923  0.2469  0.1716
  802W        W38296  32.883  28.092  24.517  0.2552  0.0278  0.0749
  803W        W38297   8.165  30.580  22.190 -0.2408  0.1053 -0.1677
  804W        W38298   0.214  29.819  21.775  0.4075  0.2878 -0.0399
  805W        W38299  20.216  18.660   2.628 -0.1946  0.1072 -0.0813
  806W        W38300   4.389   7.352  22.216 -0.0278 -0.2773  0.0913
  807W        W38301  25.608  28.656   9.618 -0.0284  0.3118  0.2229
  808W        W38302  29.752   8.294  20.500 -0.0299  0.0853  0.3838
  809W        W38303   7.584  21.730  22.815 -0.1509 -0.3505 -0.2723
  810W        W38304  34.379  14.006  16.858  0.0298  0.1292 -0.1887
  811W        W38305  10.318   1.611   4.225  0.0783 -0.1010 -0.1359
  812W        W38306  19.939   9.380   7.635  0.1068 -0.1307  0.0336
  813W        W38307  10.142   8.466  13.491  0.1552  0.1991  0.4043
  814W        W38308   1.903  33.940   7.568  0.0175 -0.0132 -0.0112
  815W        W38309  14.292  26.368  14.025 -0.0236  0.0024  0.0954
  816W        W38310  11.758  13.633  19.730 -0.4048  0.0117  0.0797
  817W        W38311  13.976  10.022  24.939  0.0987 -0.3616  0.1946
  818W        W38312  10.045  18.089  22.635  0.0971 -0.0158  0.2774
  819W        W38313  14.195  19.577  22.667  0.0845 -0.2154  0.0426
  820W        W38314  13.401  33.838  20.625  0.0055 -0.1447  0.3004
  821W        W38315  11.591  29.816  13.459  0.0253  0.1600  0.2112
  822W        W38316  26.396  25.275  26.046 -0.0747  0.4848  0.1874
  823W        W38317   6.714  33.570   0.553  0.0682  0.0982 -0.0965
  824W        W38318  10.429   1.273   1.363  0.3532  0.1038 -0.0267
  825W        W38319  34.363  14.867  16.173  0.0726  0.3978 -0.2623
  826W        W38320  31.331  10.510  13.398  0.4414  0.2193  0.3880
  827W        W38321  29.746   1.914   2.463  0.1642 -0.2526  0.3551
  828W        W38322  11.180   2.687   0.607  0.0967  0.3205 -0.0388
  829W        W38323  34.331   2.720  23.066 -0.3804 -0.1285  0.1603
  830W        W38324  23.690   5.084   3.227  0.1178 -0.2287 -0.0665
  831W        W38325  14.904  30.747   9.748  0.0497  0.0217 -0.2430
  832W        W38326  18.319   2.261  25.852  0.1473 -0.1911 -0.0724
  833W        W38327  29.484  29.418   4.063 -0.1952 -0.0868 -0.1885
  834W        W38328  17.590   2.213  10.062 -0.0773 -0.0374 -0.2402
  835W        W38329  21.647  29.052   4.225  0.1223 -0.4614 -0.1626
  836W        W38330   5.909   7.995   0.435 -0.0068  0.1607 -0.1592
  837W        W38331  14.046  31.455  12.990 -0.0351  0.2060 -0.1788
  838W        W38332  35.338  28.408  15.908  0.2524 -0.2890  0.1249
  839W        W38333  11.685  22.853  14.162  0.2339 -0.0445  0.0399
  840W        W38334  35.275  15.639  12.970 -0.1976 -0.2247  0.1187
  841W        W38335  13.245  32.635  24.792  0.1034  0.0484  0.0609
  842W        W38336  31.993  26.777  25.038 -0.4127  0.2508 -0.1822
  843W        W38337  15.642   6.688  18.754  0.1952  0.2314  0.1724
  844W        W38338  13.716  16.638  20.319  0.1351  0.0135  0.0925
  845W        W38339  19.996  33.427  25.856  0.1490 -0.0578  0.1794
  846W        W38340   0.843   6.425  15.039  0.3091 -0.0248  0.2624
  847W        W38341   8.666  24.259   4.392 -0.1350 -0.0852  0.0373
  848W        W38342  13.296  30.661   6.176  0.1154  0.0042 -0.1534
  849W        W38343   9.115  23.859  10.574  0.1706  0.0700 -0.5964
  850W        W38344  32.417  14.525   8.443  0.0212 -0.0147 -0.1748
  851W        W38345  21.265  32.564   3.465 -0.2988  0.0240  0.3027
  852W        W38346  30.536   3.905   1.449 -0.3144  0.0042  0.1191
  853W        W38347  30.699   1.710  19.508 -0.2104 -0.0160  0.1069
  854W        W38348  12.600  11.829   0.288  0.0482 -0.0768 -0.0624
  855W        W38349  11.993  20.817  14.992 -0.3488 -0.0923  0.1405
  856W        W38350  15.535  21.132   7.397 -0.2133 -0.0789  0.2960
  857W        W38351  31.128   8.518  16.308  0.2262  0.2776 -0.0376
  858W        W38352   4.110   9.386  24.352 -0.0470  0.1427  0.1923
  859W        W38353  20.602  24.750  22.007  0.0408  0.2173 -0.2523
  860W        W38354  19.858  20.195   7.073  0.0360 -0.1605  0.2731
  861W        W38355   0.559  20.727   1.301  0.1386  0.1147 -0.2167
  862W        W38356  29.304  33.284  13.987 -0.1036  0.0855  0.4377
  863W        W38357   2.428  27.744  23.615  0.1523 -0.1105  0.1999
  864W        W38358   7.505  17.593  12.187 -0.1316 -0.3084  0.0558
  865W        W38359   5.292  23.928   9.299  0.4320 -0.0171  0.1401
  866W        W38360  17.798  21.855   7.515 -0.1502  0.2419 -0.0063
  867W        W38361  17.134   9.615  23.421  0.0802 -0.1055 -0.1212
  868W        W38362  11.428   6.208   4.232 -0.0955 -0.3570  0.1151
  869W        W38363  16.968  15.726  23.485 -0.3769 -0.2763  0.1810
  870W        W38364  32.831  35.020   6.733  0.1959  0.2754  0.1358
  871W        W38365  29.606  32.913   0.849 -0.2704  0.3930 -0.3276
  872W        W38366  20.161  12.584  21.232  0.2260  0.2052  0.1037
  873W        W38367  15.418  11.446   2.587  0.0700  0.0723  0.1730
  874W        W38368  26.549  19.931  17.060 -0.0046 -0.0518  0.0339
  875W        W38369   7.091  26.197  14.297 -0.3438  0.3457  0.1571
  876W        W38370   2.189   4.078  21.688 -0.0540 -0.0689 -0.2359
  877W        W38371  34.294  14.598  11.774  0.0584  0.0191  0.1550
  878W        W38372   4.319  29.025   0.401 -0.5810  0.0613  0.1472
  879W        W38373  22.317  24.885   2.426 -0.3446  0.2264  0.1763
  880W        W38374  22.557  23.483   2.363  0.2113  0.1805  0.1639
  881W        W38375   8.652   6.733   8.376  0.0064 -0.1728 -0.0067
  882W        W38376   9.023   6.281   2.936 -0.0068 -0.0846 -0.0431
  883W        W38377  30.450  31.893  13.956 -0.3430  0.1095  0.1608
  884W        W38378   2.073  28.087   7.868 -0.0813 -0.3787 -0.0990
  885W        W38379  23.697   8.571  15.592 -0.0165  0.0811 -0.1664
  886W        W38380   4.919  17.059   3.321  0.0431 -0.0180 -0.3210
  887W        W38381   7.738  18.057   1.769 -0.1626 -0.4972 -0.0344
  888W        W38382   4.596  12.246  16.902  0.2315  0.0588  0.0331
  889W        W38383  31.313   9.201  23.135  0.0840 -0.0633 -0.2200
  890W        W38384  27.532  26.433   3.091  0.2086 -0.0570 -0.1749
  891W        W38385  27.465  14.096  12.923  0.1430 -0.0221  0.2922
  892W        W38386  29.923  15.737  20.829 -0.2483  0.0314  0.2566
  893W        W38387  26.248  21.937  12.360  0.0490  0.0757 -0.0219
  894W        W38388   8.389  11.443  20.880  0.1847  0.1634  0.1903
  895W        W38389  24.834  28.664  19.718  0.2719 -0.2964 -0.0784
  896W        W38390  33.100  29.902  17.361  0.0206 -0.1349 -0.1698
  897W        W38391   6.207   0.478   8.314 -0.1060  0.1305  0.0517
  898W        W38392  25.648  28.445  17.679 -0.2361 -0.2760 -0.2822
  899W        W38393  27.669  16.480  22.178 -0.3455 -0.1176 -0.1583
  900W        W38394  14.876   2.567   7.279  0.1181  0.1649 -0.1056
  901W        W38395   4.087  29.711   8.476 -0.1155  0.0431  0.1277
  902W        W38396   5.678   9.190  16.675 -0.0424  0.3993  0.1358
  903W        W38397  32.998  15.837   0.660  0.2173  0.1202 -0.1106
  904W        W38398   1.907  34.156   2.193  0.0126 -0.2437 -0.4222
  905W        W38399  32.520  10.476  14.953 -0.0140 -0.0894 -0.3404
  906W        W38400   0.127  23.524   1.321  0.1310 -0.2187 -0.0014
  907W        W38401  28.119  21.116  23.549  0.2476  0.2973 -0.0610
  908W        W38402   8.963  29.947  22.520 -0.1180  0.0913 -0.4202
  909W        W38403  29.452   7.498  19.145  0.4712 -0.0222 -0.2746
  910W        W38404  15.190  29.891  11.483  0.0068 -0.2488  0.2574
  911W        W38405   8.995  16.310  25.908  0.0235 -0.5341  0.1238
  912W        W38406  11.905  10.755   7.436  0.1376 -0.2393  0.1403
  913W        W38407  27.759   7.899  18.460  0.0925 -0.0328  0.2034
  914W        W38408  28.051  10.838  17.942 -0.0235 -0.2958  0.0722
  915W        W38409   8.043  21.974  10.771  0.4020  0.1428 -0.0834
  916W        W38410  11.030  20.849   7.325 -0.2868  0.2338  0.1180
  917W        W38411   1.234  11.378  26.139  0.2630  0.3940  0.2643
  918W        W38412   4.800  34.826  20.962  0.1029 -0.6406  0.3093
  919W        W38413  15.741  33.291  25.020 -0.0186  0.0289 -0.0956
  920W        W38414   7.344  12.213  10.557  0.0593 -0.3676 -0.1137
  921W        W38415  12.355  33.405  24.740 -0.2194 -0.1162  0.2263
  922W        W38416  11.693   4.593  24.433  0.1087 -0.0601  0.1237
  923W        W38417  33.743  27.646  26.230 -0.1145  0.3464  0.1495
  924W        W38418  23.031  24.215  24.494 -0.0108  0.2662  0.3674
  925W        W38419  10.314  32.418  23.966 -0.1251  0.1094 -0.0625
  926W        W38420  11.882   4.054   1.338  0.0185  0.0663  0.1812
  927W        W38421   5.605  26.353  24.972  0.1457  0.1707  0.0570
  928W        W38422   9.687  27.001   0.071  0.0254 -0.1521 -0.0257
  929W        W38423  22.879  34.623  13.041  0.0787  0.0456 -0.0474
  930W        W38424  31.154   4.493   2.300 -0.1354 -0.0258  0.3047
  931W        W38425  25.294  16.339   7.487 -0.1101 -0.1562  0.0373
  932W        W38426  35.242  13.545  15.152 -0.0827  0.1489  0.1458
  933W        W38427  23.405   2.310  19.837  0.2248 -0.2775  0.0508
  934W        W38428  18.663  12.142   7.589  0.2918 -0.1365 -0.1287
  935W        W38429  14.414   6.458   9.946 -0.1485 -0.0112  0.0394
  936W        W38430  29.972  22.233  14.955 -0.0245 -0.2337  0.2483
  937W        W38431   2.441   3.460  15.377  0.0549 -0.5429 -0.0280
  938W        W38432  28.298  29.232   1.690  0.0115 -0.2267  0.0504
  939W        W38433  29.246  33.742  12.699 -0.3603 -0.1236  0.2126
  940W        W38434  31.380  21.591   5.118 -0.0063  0.1086 -0.4412
  941W        W38435  34.936  12.349  15.240  0.3370  0.0541  0.0306
  942W        W38436  29.202  11.990   0.160  0.0222  0.0398 -0.0241
  943W        W38437  20.900  10.302   0.122  0.1556  0.0824 -0.1016
  944W        W38438  23.817  21.556  16.776 -0.0809 -0.2372 -0.6327
  945W        W38439  34.126  19.066  25.791  0.1268 -0.1296 -0.1738
  946W        W38440  13.539  16.121   6.238  0.3380  0.0360 -0.3142
  947W        W38441  33.391  14.476  12.162 -0.2644  0.0387 -0.0518
  948W        W38442  34.470  34.133   6.206 -0.0392 -0.0627 -0.0559
  949W        W38443   7.553  12.034   1.435  0.0893 -0.0304  0.4441
  950W        W38444  29.410  33.315  22.785 -0.0126 -0.0605 -0.0679
  951W        W38445  34.494  22.328  20.480  0.0318 -0.1661  0.0237
  952W        W38446   4.240   1.931   8.024  0.1642 -0.2683  0.2743
  953W        W38447  26.241   1.657  17.703 -0.3066 -0.0443  0.3050
  954W        W38448  15.838  26.905   4.902  0.0074 -0.0982 -0.0085
  955W        W38449   6.843  14.210  21.171 -0.1203 -0.0507  0.1786
  956W        W38450   7.401  23.017  23.265  0.0558 -0.1529 -0.1084
  957W        W38451  24.319   0.332  25.305  0.3324  0.1420  0.4233
  958W        W38452   0.847  17.850  16.955 -0.0321 -0.0170  0.0110
  959W        W38453   1.630  13.777   2.065 -0.4153  0.2328  0.1063
  960W        W38454  20.227  35.193  16.469 -0.1466 -0.0307  0.2455
  961W        W38455  29.533  15.305  16.677  0.0543 -0.0559  0.0357
  962W        W38456  34.668  18.062  12.066  0.0036  0.2326 -0.2773
  963W        W38457   8.822   5.682   2.159 -0.0946  0.1495  0.2578
  964W        W38458  29.217  34.659   0.632 -0.0406 -0.0620  0.0486
  965W        W38459  25.095  18.495  15.683  0.0864  0.0254 -0.0321
  966W        W38460  16.671  22.936  15.065  0.0224  0.1218 -0.0090
  967W        W38461  17.295  22.569  23.097  0.0510 -0.0321 -0.0076
  968W        W38462  28.132  22.610   8.038 -0.1932 -0.2658  0.2076
  969W        W38463  18.467   3.007   0.068 -0.1000  0.1684  0.1235
  970W        W38464  28.757   3.152  10.642 -0.1071 -0.0988  0.0449
  971W        W38465  11.597  16.569   5.485 -0.2166  0.0631  0.1921
  972W        W38466  26.097   7.245   3.794  0.0055 -0.0701 -0.4145
  973W        W38467  20.179  13.000   5.032 -0.1561  0.0561 -0.0863
  974W        W38468  10.397  28.997  13.532  0.0343 -0.3027  0.0961
  975W        W38469   9.910  17.596   6.804  0.0255 -0.0628 -0.0077
  976W        W38470  28.044  32.679  10.999  0.3268 -0.5247  0.0705
  977W        W38471  25.758   7.895  26.138  0.2799 -0.2484 -0.4074
  978W        W38472  12.891  28.039  14.426 -0.3510  0.1730  0.0217
  979W        W38473  16.027  20.828  11.043  0.1642 -0.1475  0.1738
  980W        W38474  27.046  16.774  25.943  0.0647  0.1039 -0.1932
  981W        W38475  32.866  16.550   5.502 -0.3596 -0.2191  0.0137
  982W        W38476  19.508  26.913   5.214  0.2636 -0.0011  0.1282
  983W        W38477  20.052  31.668   6.309 -0.0057 -0.3255  0.4110
  984W        W38478  24.401  34.107  15.431 -0.1650 -0.1029  0.3240
  985W        W38479  26.591   1.243   2.239 -0.0479  0.2108 -0.0204
  986W        W38480   5.051  30.616   1.725 -0.0187 -0.3169  0.0308
  987W        W38481  29.061  33.061   2.277  0.2924 -0.1083 -0.1945
  988W        W38482   3.363   7.627   0.087 -0.0462 -0.2892  0.1065
  989W        W38483  11.265  28.335  10.155  0.0330  0.0445  0.0921
  990W        W38484  29.949  35.067  17.199  0.0905  0.1377  0.2028
  991W        W38485   8.662  11.789  24.709 -0.1793 -0.0213 -0.0900
  992W        W38486  23.459  15.295   2.547  0.1610 -0.1867  0.1528
  993W        W38487  15.763  31.965  20.447 -0.2862  0.0587 -0.0015
  994W        W38488  10.048  10.829   8.941  0.4934  0.1347  0.1097
  995W        W38489  24.680  17.602  17.857 -0.0558  0.0846  0.0188
  996W        W38490   3.182  16.685  22.838 -0.2676 -0.1803  0.0306
  997W        W38491  25.108  28.616  22.909  0.1350  0.2031 -0.1538
  998W        W38492  15.785   3.137  20.245  0.3568 -0.0262  0.0280
  999W        W38493  30.320  28.823   0.692 -0.0806 -0.0064  0.2556
 1000W        W38494  11.069  12.067  19.025 -0.2833 -0.0646  0.1794
 1001W        W38495   9.571  33.867   2.848 -0.2661  0.3274  0.3934
 1002W        W38496  10.100  23.801  17.256  0.1683  0.2593 -0.1384
 1003W        W38497  10.088  21.748   4.479  0.2699 -0.0315  0.1284
 1004W        W38498  29.339  30.701   4.773 -0.2575 -0.2177 -0.4906
 1005W        W38499   0.225  34.689  22.906 -0.0922 -0.2249 -0.1235
 1006W        W38500   1.481   8.401   1.204 -0.0018 -0.2250  0.1660
 1007W        W38501  30.267   1.471   4.936 -0.0078 -0.2889 -0.3309
 1008W        W38502  17.317  32.566   0.829  0.0367  0.0281 -0.2100
 1009W        W38503  27.448  32.755  13.217  0.0996 -0.3059  0.1440
 1010W        W38504  26.828   1.503  25.543  0.0653  0.1360 -0.0439
 1011W        W38505  24.235  32.529  10.474  0.0587  0.0685  0.2133
 1012W        W38506   8.195  15.720  20.089 -0.0865  0.2050 -0.1435
 1013W        W38507  30.769  31.239  25.970  0.1570 -0.1777 -0.0248
 1014W        W38508   9.827  18.859   0.538  0.1857 -0.1052  0.0847
 1015W        W38509  29.044   4.210  18.935 -0.3115  0.1728 -0.0825
 1016W        W38510   4.743   0.926  20.490  0.0427  0.4587 -0.2798
 1017W        W38511   1.539  24.406  21.685  0.1851 -0.0987 -0.1247
 1018W        W38512   8.579  14.544   5.451 -0.3475  0.1984  0.2315
 1019W        W38513  25.819  10.456  17.002  0.3061 -0.1137 -0.3124
 1020W        W38514  24.507  14.682   7.881 -0.2639  0.2284  0.0018
 1021W        W38515   4.077   0.795   2.212 -0.1368 -0.3203 -0.2292
 1022W        W38516  10.611  29.048   6.723 -0.3537 -0.3481  0.1920
 1023W        W38517  25.313  21.492  13.516  0.0914 -0.1531 -0.1310
 1024W        W38518  20.845  28.076   5.742  0.0308  0.0298 -0.0424
 1025W        W38519  10.960   8.722  21.540 -0.2076 -0.3256 -0.2752
 1026W        W38520  21.182   8.358   8.584 -0.1275  0.0582  0.4867
 1027W        W38521  16.242  23.519   1.309  0.0002 -0.0105 -0.0838
 1028W        W38522  33.971  20.684  12.682  0.3701 -0.1965 -0.1999
 1029W        W38523  17.048  18.928   7.033  0.2840 -0.3534 -0.1194
 1030W        W38524  32.970  12.826  11.327  0.2336  0.0006  0.1493
 1031W        W38525  26.767  17.891  23.573 -0.2606  0.2180  0.2139
 1032W        W38526  17.194  32.234   2.334 -0.0861 -0.0588  0.1345
 1033W        W38527   7.989  16.871  22.397  0.3274 -0.1345  0.2251
 1034W        W38528  28.117  26.679  22.822 -0.0669  0.0652  0.0775
 1035W        W38529   9.262  26.798   8.263  0.1235  0.4915 -0.2685
 1036W        W38530   9.452   5.444   8.301  0.3362 -0.1861 -0.3343
 1037W        W38531  34.289   5.039   3.480  0.0720  0.1834  0.0360
 1038W        W38532   8.565  22.216  10.660 -0.1837 -0.2103  0.2031
 1039W        W38533  11.401  29.733   6.226  0.3400 -0.1718 -0.1259
 1040W        W38534  25.459  32.976  20.973  0.0746  0.0631  0.2197
 1041W        W38535  19.623   0.408  18.502 -0.0253 -0.0877  0.0749
 1042W        W38536  15.215  24.097  12.725  0.1443 -0.0118 -0.2030
 1043W        W38537  25.887   5.280  14.068 -0.1431 -0.1585  0.0041
 1044W        W38538  30.708  26.016  12.852 -0.0735 -0.1161  0.2056
 1045W        W38539  16.947  26.205  10.645 -0.0603  0.0975  0.0525
 1046W        W38540  33.619  27.742  17.433 -0.1808  0.4130 -0.0145
 1047W        W38541  28.895  28.240  26.132  0.1048  0.1220 -0.1344
 1048W        W38542   7.850  12.256   8.829  0.0820  0.0154 -0.3597
 1049W        W38543   1.061  19.672  13.655  0.4736 -0.2905 -0.0175
 1050W        W38544  21.385  14.989  25.951 -0.0419 -0.0262 -0.0834
 1051W        W38545  13.369  17.572   9.250 -0.2216 -0.0535  0.0692
 1052W        W38546  26.577   4.964   1.233  0.2393 -0.2577  0.0645
 1053W        W38547  26.815  27.521  10.254  0.1620  0.3219  0.2183
 1054W        W38548  11.652  10.509  12.182  0.1241 -0.0282  0.2859
 1055W        W38549  18.229  24.941  10.971 -0.1033 -0.1322 -0.0504
 1056W        W38550   0.467  17.002  18.151  0.0376 -0.2413  0.0051
 1057W        W38551  23.866  24.471  16.120 -0.2890  0.0792 -0.0293
 1058W        W38552  15.489  24.543  13.998 -0.1024 -0.1130  0.4568
 1059W        W38553  20.761  19.420  23.995 -0.2149 -0.0088  0.0418
 1060W        W38554   8.806   6.947  13.278  0.2151  0.0189  0.0617
 1061W        W38555   1.955  18.644  14.981  0.3316 -0.2095  0.1142
 1062W        W38556   5.771   9.063   1.917  0.1261  0.2951 -0.0057
 1063W        W38557  31.773  24.064  21.082  0.0550 -0.0864  0.0071
 1064W        W38558   2.044  35.327  17.148  0.0788  0.0026  0.2423
 1065W        W38559  35.328  30.971  17.862 -0.1162 -0.2759 -0.1324
 1066W        W38560  25.047  15.132   7.893  0.0358 -0.0746  0.0951
 1067W        W38561  11.333  15.391  13.132 -0.0550 -0.1919 -0.0603
 1068W        W38562  15.221  11.251  24.420 -0.1168 -0.0594  0.1795
 1069W        W38563  12.078  20.539   2.407  0.2458  0.0838 -0.0563
 1070W        W38564   5.493   7.965   0.114 -0.0834 -0.2265  0.2911
 1071W        W38565  21.015  29.167  26.169 -0.2589 -0.2101  0.4904
 1072W        W38566  32.217  34.050  23.502 -0.2013 -0.2344 -0.2451
 1073W        W38567  15.158   9.162   6.563  0.4792  0.1319 -0.0667
 1074W        W38568  24.985  19.993  18.719 -0.4317  0.2856 -0.0855
 1075W        W38569   5.338  19.827   3.612 -0.1541  0.0383  0.0384
 1076W        W38570  17.655  19.272  24.263 -0.1189  0.0921 -0.0107
 1077W        W38571   4.846   8.275   2.919  0.2322 -0.1881 -0.0681
 1078W        W38572   7.984   5.880   1.624  0.2161  0.1565  0.0340
 1079W        W38573   2.791  11.508   3.724  0.2317  0.2250  0.0832
 1080W        W38574   5.129  11.738   7.201 -0.2044  0.2887 -0.0884
 1081W        W38575  30.834   3.671   4.981  0.0311 -0.2308 -0.2276
 1082W        W38576   1.007  16.098  12.735  0.1850  0.0027 -0.0642
 1083W        W38577  26.875  32.386  10.348 -0.1040  0.4164  0.2769
 1084W        W38578   5.182   8.515   9.289 -0.0687  0.2488  0.0616
 1085W        W38579  33.166   2.367  26.177 -0.1026  0.0865  0.0073
 1086W        W38580  22.302  28.832  15.206 -0.0287 -0.2781 -0.0796
 1087W        W38581  20.139   0.906  18.035 -0.1446 -0.0113  0.0598
 1088W        W38582  34.050  32.098  16.399  0.2275  0.1299 -0.1053
 1089W        W38583   2.705  30.411   9.730  0.6655  0.0314  0.1691
 1090W        W38584   3.391  30.826  19.521 -0.0545 -0.0283  0.2329
 1091W        W38585  12.052  33.346  12.809  0.2678  0.0103 -0.0694
 1092W        W38586  14.827  19.886  23.408 -0.0747 -0.0591 -0.0003
 1093W        W38587  27.045  14.666  18.757 -0.0123  0.0385 -0.2586
 1094W        W38588   1.730   7.848   6.262 -0.1247  0.0093 -0.0019
 1095W        W38589  31.795  23.111   5.808  0.1016  0.2345 -0.1554
 1096W        W38590   6.303  28.309  15.957 -0.0135  0.0355  0.0738
 1097W        W38591  14.055  34.751   8.767  0.1640  0.4029 -0.1479
 1098W        W38592   0.375  22.419  19.380 -0.1373  0.2049  0.2150
 1099W        W38593  34.330  11.094   9.715  0.3092 -0.1282  0.0599
 1100W        W38594  10.679  18.229   4.961 -0.0154  0.0336  0.1544
 1101W        W38595  17.029  33.103   4.940  0.2907  0.2561 -0.1721
 1102W        W38596  17.209  13.330  24.814  0.0888 -0.1175  0.4450
 1103W        W38597  15.594   3.193   8.245  0.1973  0.0896 -0.1743
 1104W        W38598  27.964  12.128   9.698 -0.0557 -0.3254 -0.2287
 1105W        W38599  27.674  21.712  14.617  0.0600  0.1329 -0.0369
 1106W        W38600  18.114   4.485   8.898  0.2425  0.0553  0.1350
 1107W        W38601   7.811  20.804   3.340 -0.4239  0.0494  0.0928
 1108W        W38602  22.099  16.095   3.564 -0.1676  0.1412  0.0451
 1109W        W38603  10.702  24.971  11.910 -0.0486 -0.2590 -0.0264
 1110W        W38604  10.443   8.519  23.896  0.0287  0.2905  0.1511
 1111W        W38605   2.084  18.263  19.625 -0.2170 -0.1624 -0.1508
 1112W        W38606   0.028  27.388  23.962 -0.0598  0.1490  0.4957
 1113W        W38607   0.586  20.949   9.788 -0.0770 -0.2640 -0.0407
 1114W        W38608   7.790  22.347  25.256  0.0261  0.5235  0.0203
 1115W        W38609  30.358  26.641   0.007 -0.0472  0.3453 -0.1350
 1116W        W38610  24.786   6.008  12.613 -0.1801 -0.0395  0.1279
 1117W        W38611   5.555  13.880   2.438  0.0259 -0.0577 -0.1440
 1118W        W38612  21.535   4.385   4.271  0.0896 -0.0180 -0.0131
 1119W        W38613  13.634  29.614  11.657  0.0952 -0.0108 -0.1009
 1120W        W38614  21.600  22.411   1.741  0.2223 -0.0640  0.3939
 1121W        W38615   4.522  20.738   2.230  0.2468  0.3831 -0.0488
 1122W        W38616  25.647  34.628  26.094  0.0149  0.1765 -0.1964
 1123W        W38617  21.499   6.420  23.952 -0.1171  0.0925  0.1706
 1124W        W38618  20.852  24.625  23.774 -0.2128 -0.3317  0.1178
 1125W        W38619   0.163  11.553  17.294  0.0790  0.2892  0.1492
 1126W        W38620  29.150   4.006  12.876  0.4793  0.0971 -0.0900
 1127W        W38621   6.631  29.199  23.386 -0.1192  0.1994  0.0786
 1128W        W38622  17.538   8.025   0.331  0.4418 -0.1723  0.2297
 1129W        W38623  11.081  22.195  23.937  0.1253  0.2110 -0.0434
 1130W        W38624   2.359  27.301   5.138  0.1293 -0.0157  0.1832
 1131W        W38625  10.220  29.395  23.805  0.3951  0.0005  0.1708
 1132W        W38626  31.566  15.930  13.816 -0.0886  0.0403  0.2545
 1133W        W38627   5.698  23.870   1.995 -0.1713 -0.1643 -0.2409
 1134W        W38628  22.515  10.697   4.394 -0.0418  0.1191  0.3596
 1135W        W38629  27.923  30.052   2.222  0.0598 -0.0564 -0.1463
 1136W        W38630  16.264  21.799  14.381 -0.0357  0.1338  0.0221
 1137W        W38631  34.252   6.815  22.985  0.0287 -0.1579 -0.1456
 1138W        W38632  24.462  19.943  12.021 -0.3385 -0.0613  0.1894
 1139W        W38633   8.692   8.026  10.829 -0.0859  0.2569  0.0025
 1140W        W38634  27.120   4.800  16.826 -0.0106 -0.1381 -0.1888
 1141W        W38635  11.836  21.932   8.062 -0.3781  0.0855 -0.0015
 1142W        W38636  30.076  12.440  21.757 -0.0590 -0.0661 -0.1506
 1143W        W38637  29.150  18.997  10.463 -0.0056  0.4211  0.1012
 1144W        W38638   5.476   8.873  24.525  0.2916 -0.2775 -0.0895
 1145W        W38639  26.993  26.168  11.204 -0.1483 -0.2843  0.0409
 1146W        W38640   5.648   6.571   5.970 -0.1110 -0.2049 -0.2497
 1147W        W38641  24.148   7.091   0.585  0.0774 -0.3804 -0.0121
 1148W        W38642  16.601  31.101  25.135  0.2462 -0.2236 -0.1118
 1149W        W38643  34.649  29.344   7.875 -0.2394  0.0574 -0.3392
 1150W        W38644   3.693  17.460  22.063 -0.1654 -0.1674  0.0473
 1151W        W38645   7.805  16.659   0.297  0.3900 -0.1944  0.0598
 1152W        W38646  28.532  18.121  14.040  0.3034  0.1365  0.0904
 1153W        W38647   4.670  32.096  23.413 -0.1574  0.0998  0.2806
 1154W        W38648  14.685  24.201  25.193 -0.2251  0.0990 -0.0022
 1155W        W38649  29.276   1.816  16.262 -0.1300  0.1438  0.1034
 1156W        W38650  17.647   4.869  11.682  0.1099 -0.2423 -0.0745
 1157W        W38651  20.624  28.455   1.247  0.1668  0.1114 -0.1968
 1158W        W38652  33.816  23.148  15.859  0.0434 -0.0344 -0.2555
 1159W        W38653  34.357  23.764  18.617 -0.1291 -0.1314 -0.1411
 1160W        W38654  11.227   2.415  11.347  0.0126 -0.0655 -0.2421
 1161W        W38655   4.309  13.084   1.047 -0.0559  0.2128  0.0705
 1162W        W38656  27.990  32.604  21.557 -0.3606  0.0182 -0.2087
 1163W        W38657  33.932  19.180  14.094  0.2033 -0.1020 -0.2687
 1164W        W38658  30.383  24.074  10.410  0.0994 -0.0276  0.1728
 1165W        W38659   7.534  15.226  18.862  0.0532 -0.1815  0.0063
 1166W        W38660  22.307   0.303  23.694  0.0620 -0.4908  0.2961
 1167W        W38661   3.852  32.730  12.020 -0.2470  0.1987  0.2400
 1168W        W38662  32.525   2.406  20.963  0.0098  0.0418 -0.0602
 1169W        W38663  15.857  26.478   4.584  0.1182 -0.0889 -0.0241
 1170W        W38664   9.459  18.469   0.339  0.3015 -0.0954 -0.0963
 1171W        W38665   5.286  13.387  17.873 -0.1558  0.0262  0.0222
 1172W        W38666   7.528  15.616  25.571 -0.3567  0.0994 -0.0164
 1173W        W38667   0.036   2.637  18.911  0.1228 -0.2465 -0.0220
 1174W        W38668  32.549  22.296  18.963 -0.0518  0.0386  0.0555
 1175W        W38669  18.108  33.490   8.187  0.2685 -0.0685 -0.1197
 1176W        W38670  29.657  21.910  10.260 -0.1312  0.2432  0.1057
 1177W        W38671  30.025  28.956  14.989  0.1047 -0.0686  0.0834
 1178W        W38672   5.114  17.453  18.390 -0.1412  0.0598 -0.2015
 1179W        W38673  29.286   4.093  19.765 -0.1730 -0.0345  0.1236
 1180W        W38674   0.468  11.867  15.006  0.0642  0.2162 -0.3724
 1181W        W38675  14.262   2.558  13.093 -0.2139  0.1204  0.1277
 1182W        W38676  32.764  23.543   8.506 -0.3563 -0.0169 -0.1736
 1183W        W38677  21.650   0.648  17.362 -0.1199 -0.0095 -0.0255
 1184W        W38678  24.615  30.001  13.330  0.3870 -0.1002  0.2074
 1185W        W38679   6.071   0.438   4.752  0.0705 -0.0385 -0.6109
 1186W        W38680  28.018  35.082  25.419 -0.0223 -0.2167 -0.2757
 1187W        W38681  14.062   6.502   1.142  0.0351 -0.0769  0.1838
 1188W        W38682   0.901  12.183  21.048  0.2378  0.2638 -0.1862
 1189W        W38683  28.968  10.310  24.970  0.0785 -0.0997 -0.2262
 1190W        W38684  15.133  13.201  21.030 -0.0639 -0.2420  0.1997
 1191W        W38685   6.753   0.205  20.029 -0.0255  0.0103  0.0653
 1192W        W38686  26.227   4.331  24.919 -0.3609 -0.0933 -0.1428
 1193W        W38687   4.009  19.680  25.918 -0.4550 -0.1205 -0.0610
 1194W        W38688  19.498  30.304  19.730  0.1374  0.2242  0.2408
 1195W        W38689   6.425  25.727   2.540  0.3462  0.1372 -0.1713
 1196W        W38690  26.408  19.482   9.603  0.0967 -0.2300 -0.0700
 1197W        W38691  12.390  33.273  15.690  0.1631 -0.0121 -0.1762
 1198W        W38692  32.909   8.690  13.363  0.1393 -0.3371  0.2472
 1199W        W38693  11.169  11.386   5.674  0.0070  0.2252 -0.0848
 1200W        W38694  22.856   5.483   6.706 -0.2573 -0.2231 -0.1506
 1201W        W38695  27.040  21.196  13.395  0.0819  0.2703  0.3509
 1202W        W38696  32.727  23.492   0.341 -0.0518 -0.2456  0.0474
 1203W        W38697   4.684  18.533  24.963 -0.0278  0.0754  0.0909
 1204W        W38698  14.961  30.863   7.667 -0.1842  0.1579  0.0719
 1205W        W38699  14.560   3.710  12.181 -0.3391 -0.4522 -0.2268
 1206W        W38700   6.478  13.597  25.819  0.0903  0.0003 -0.1801
 1207W        W38701   5.312  31.629  24.115 -0.0438  0.2652 -0.2832
 1208W        W38702  22.250  34.771   4.930 -0.0133  0.1034  0.0581
 1209W        W38703  29.604  33.805  24.851  0.1967  0.1493 -0.0830
 1210W        W38704  22.346  24.292  18.422  0.2027 -0.1625  0.0243
 1211W        W38705  25.374  33.237  14.888  0.0279  0.0409  0.3773
 1212W        W38706   7.251  23.618   2.353  0.1766 -0.0641 -0.0028
 1213W        W38707  18.817  10.306  22.524  0.1813  0.0918 -0.0987
 1214W        W38708   9.137  26.603  24.123  0.0995 -0.1186  0.0686
 1215W        W38709  17.052  30.998   0.778 -0.1878  0.1532  0.0950
 1216W        W38710  18.895   1.213   5.567  0.2055 -0.0299 -0.1637
 1217W        W38711   8.092  27.020  14.134 -0.0141 -0.1395 -0.0081
 1218W        W38712  26.694  16.101  20.812 -0.2319 -0.1057 -0.0662
 1219W        W38713  10.963  19.838   9.389 -0.1814  0.0343 -0.3230
 1220W        W38714  29.460  13.751   4.947  0.0328  0.2177 -0.1768
 1221W        W38715  19.775  19.643  23.066 -0.1862 -0.0664  0.0669
 1222W        W38716  12.947  34.594  24.967 -0.1668 -0.0187  0.2700
 1223W        W38717  20.595   4.420   2.024 -0.3189  0.2142 -0.0000
 1224W        W38718  30.114   8.891  14.876  0.2347 -0.0537  0.1113
 1225W        W38719  24.097   4.996  14.458 -0.0870 -0.1291 -0.0751
 1226W        W38720  19.932   9.291   4.965 -0.1210  0.0282 -0.1374
 1227W        W38721   5.406  27.066   6.813  0.0388 -0.0477 -0.2315
 1228W        W38722  28.234  29.385  12.145 -0.0869 -0.1815  0.1036
 1229W        W38723  29.305  12.925  13.150 -0.0554 -0.2259  0.1868
 1230W        W38724  22.428  14.417  22.947 -0.3422 -0.5008 -0.1316
 1231W        W38725   4.785   0.699   1.624 -0.0451 -0.1920  0.0350
 1232W        W38726  16.054   8.361  11.409  0.0153 -0.0620  0.2060
 1233W        W38727  24.846  25.163  24.339 -0.0221 -0.1014 -0.1916
 1234W        W38728   8.603  13.360   9.170 -0.0371 -0.0592 -0.2695
 1235W        W38729  27.760  22.251   7.368 -0.1329 -0.0447 -0.1383
 1236W        W38730  12.590   7.966  24.820  0.0691 -0.1130  0.0006
 1237W        W38731  23.897  26.723  15.200 -0.0291 -0.3498  0.0496
 1238W        W38732  19.641   5.250  25.686 -0.1365  0.0366 -0.2602
 1239W        W38733  17.603   4.526  17.957  0.3312 -0.0444  0.0387
 1240W        W38734  32.902  26.712  13.943 -0.0547 -0.2307  0.1438
 1241W        W38735  24.530  29.095  10.987 -0.2143 -0.0415  0.1028
 1242W        W38736   1.820  23.049  19.371  0.4393  0.0166 -0.1788
 1243W        W38737   9.716  14.973   8.963  0.0359  0.2680 -0.1441
 1244W        W38738  23.087  15.624  17.595  0.2547  0.0896 -0.0662
 1245W        W38739  30.618  19.615  24.768 -0.0871  0.3901 -0.1297
 1246W        W38740  30.764  29.709  23.363  0.1289 -0.0406 -0.0703
 1247W        W38741   1.781  34.005   5.771  0.2204 -0.2580  0.0475
 1248W        W38742   0.430  16.930  10.297  0.1626 -0.1250  0.0142
 1249W        W38743   3.705  25.843  21.439  0.1800  0.1286 -0.0666
 1250W        W38744  29.677  29.367  13.480 -0.1621 -0.2172 -0.0763
 1251W        W38745   0.575  21.458  22.492  0.1129  0.0509  0.1516
 1252W        W38746  10.914   0.353   2.560  0.2486 -0.2020  0.1188
 1253W        W38747  29.861   8.589  24.601  0.5300 -0.3964 -0.1205
 1254W        W38748  22.513  33.729  12.692 -0.0167  0.2472 -0.1761
 1255W        W38749  27.919  25.063  16.308  0.2082 -0.0867 -0.0394
 1256W        W38750  12.169   9.019   8.816  0.0428 -0.0971  0.1793
 1257W        W38751   5.357   1.169   4.931 -0.2906 -0.2077  0.1933
 1258W        W38752  13.610  23.671   3.758  0.1258  0.1869 -0.3458
 1259W        W38753   0.122  12.022  17.701  0.3805  0.0075 -0.2849
 1260W        W38754  33.042  13.073   8.215 -0.1006  0.0186 -0.0584
 1261W        W38755   5.497  23.570   4.487  0.0236 -0.0773 -0.2327
 1262W        W38756  28.382  25.840   8.014  0.0889  0.1895  0.1373
 1263W        W38757   9.897  25.059   7.055 -0.0283  0.0189 -0.1117
 1264W        W38758   1.499  24.733  21.179  0.0080  0.2653  0.1570
 1265W        W38759  26.330  32.634  23.398  0.1662 -0.0742  0.1245
 1266W        W38760  24.313  19.355  22.771  0.3085 -0.0724  0.0960
 1267W        W38761  20.207  28.681  21.531 -0.0144 -0.3000  0.0714
 1268W        W38762  12.642  16.369  13.331 -0.1522  0.2824 -0.1525
 1269W        W38763  31.269   5.481  25.286 -0.2385 -0.2863 -0.1182
 1270W        W38764   9.542  10.883   9.774 -0.1155 -0.2301 -0.0649
 1271W        W38765  25.851  17.649  21.011 -0.2662  0.0679 -0.0431
 1272W        W38766  23.098  31.535  18.000 -0.0392 -0.0333  0.0632
 1273W        W38767  14.680  17.257  13.359  0.1096 -0.1510 -0.1264
 1274W        W38768  13.996   9.814  10.416 -0.0100 -0.1520 -0.0603
 1275W        W38769  23.190  15.253  13.022  0.4597 -0.1201  0.0973
 1276W        W38770  12.162  24.878   1.249  0.0496  0.1504 -0.1675
 1277W        W38771   3.639   9.722  25.009  0.3331 -0.0658  0.2546
 1278W        W38772   7.223  10.048   9.374 -0.3093 -0.2566  0.1737
 1279W        W38773   9.806  25.396  15.215 -0.0718  0.0746 -0.1129
 1280W        W38774   1.510  22.807  18.474 -0.0078  0.2223  0.0155
 1281W        W38775  25.408  19.065  11.583 -0.0942 -0.1964  0.0123
 1282W        W38776  23.140   3.313  17.059 -0.0691  0.2501 -0.0024
 1283W        W38777   7.370  18.028  11.054 -0.0828 -0.0069 -0.2725
 1284W        W38778   0.458  14.997   9.487  0.2467  0.1615  0.0364
 1285W        W38779  11.179   2.702  22.289  0.1222  0.0124 -0.3709
 1286W        W38780  35.032   0.050  25.266 -0.1046 -0.1829  0.0856
 1287W        W38781  31.155   8.306  14.854  0.1160  0.1009  0.0392
 1288W        W38782  10.272   8.503  25.738  0.3620  0.2580  0.1475
 1289W        W38783  11.142  11.479   6.199  0.0393 -0.1755  0.0051
 1290W        W38784   3.892  13.629  18.342  0.0776  0.2842  0.1779
 1291W        W38785   0.955   7.841  15.197  0.2002 -0.0547 -0.1069
 1292W        W38786  29.774  26.035  25.716 -0.0588  0.1209  0.1742
 1293W        W38787  17.100  21.710  20.804  0.1148  0.0571 -0.1077
 1294W        W38788  19.304   5.616  10.995  0.1524 -0.3360  0.0685
 1295W        W38789   7.184  28.295   8.867 -0.0370 -0.0498  0.3306
 1296W        W38790  26.686  18.042  20.374  0.0236 -0.3997  0.0148
 1297W        W38791  32.124  16.266  22.734  0.1769 -0.3072 -0.0753
 1298W        W38792  10.303  21.775  13.062  0.0508  0.0426  0.1382
 1299W        W38793  13.677   0.966  21.309  0.0224  0.2446  0.2630
 1300W        W38794  10.754  22.365   0.612 -0.2708 -0.1534 -0.2419
 1301W        W38795  20.684  29.757   4.140  0.1107 -0.1900 -0.2984
 1302W        W38796  26.736  13.846  25.492  0.0422  0.1004 -0.1255
 1303W        W38797  11.929   3.778   5.772  0.0990  0.3949 -0.0526
 1304W        W38798  27.795   5.514  15.201  0.0702 -0.3882  0.0353
 1305W        W38799  23.031  33.702  23.851  0.0429  0.1186  0.0475
 1306W        W38800   6.514  34.652   2.159  0.0769 -0.1720  0.1904
 1307W        W38801  19.667   2.921   0.497  0.1487  0.2507 -0.0309
 1308W        W38802  14.848  12.620  11.144 -0.1424 -0.0819 -0.1222
 1309W        W38803  28.960  17.995   8.919  0.1178  0.2868 -0.0766
 1310W        W38804  12.803   1.005  11.023 -0.1154  0.0359  0.1830
 1311W        W38805  23.101  14.506   0.115 -0.1289 -0.2366  0.0667
 1312W        W38806  22.339  25.711   0.947 -0.0308 -0.1276 -0.2080
 1313W        W38807  21.733  31.830  17.856  0.0537  0.0296 -0.1400
 1314W        W38808  34.357   4.643  14.919 -0.0054 -0.1729 -0.1059
 1315W        W38809  15.699  11.753  19.004 -0.1379 -0.0973  0.0770
 1316W        W38810  32.682  17.237  17.307 -0.3333  0.2312 -0.0521
 1317W        W38811  14.437   2.658  19.467 -0.0504  0.0515  0.2342
 1318W        W38812   8.457  25.600   5.371  0.0819 -0.0096  0.0914
 1319W        W38813   0.174   2.691   6.096 -0.0640 -0.1036 -0.1298
 1320W        W38814  21.735  23.421  26.025  0.0678  0.1975  0.0232
 1321W        W38815  17.414  12.122   1.097 -0.2617  0.3524  0.0920
 1322W        W38816   2.961  20.798  17.529  0.1404  0.3504  0.3464
 1323W        W38817   1.379  12.859  26.089 -0.2083 -0.0772  0.0947
 1324W        W38818  28.883   9.401  23.301  0.0223 -0.0256 -0.2440
 1325W        W38819   7.946  29.791   0.822 -0.0830 -0.1450 -0.2200
 1326W        W38820  26.263  21.197  21.932  0.4071 -0.1216 -0.0435
 1327W        W38821  30.572  33.940  19.429  0.1239 -0.0403  0.0746
 1328W        W38822   8.962  24.771  12.149 -0.3461 -0.1259  0.1235
 1329W        W38823   3.489  12.404  19.669  0.0194  0.0706  0.1133
 1330W        W38824  22.902  27.823  14.483  0.1877  0.0216 -0.0066
 1331W        W38825  22.424  11.534  17.329  0.0365  0.0294 -0.1032
 1332W        W38826  32.944  16.497  15.669 -0.1787  0.1264 -0.1144
 1333W        W38827  29.311  29.895  10.852 -0.0520 -0.3545  0.2200
 1334W        W38828  33.649  12.893  23.077  0.2792  0.1282  0.0903
 1335W        W38829  11.858   7.131   9.351  0.0486 -0.0133  0.1610
 1336W        W38830   1.837  13.071  15.045  0.0661  0.0449 -0.1962
 1337W        W38831  10.454  26.981   4.193  0.0959  0.2313 -0.3116
 1338W        W38832  11.702   3.899   6.278  0.1955 -0.2311 -0.5175
 1339W        W38833  13.254   8.295  22.235  0.1101  0.1636 -0.1237
 1340W        W38834  30.018  26.658  12.585 -0.2432  0.1725 -0.0853
 1341W        W38835  34.652  12.435  11.218 -0.2887  0.2293  0.1897
 1342W        W38836   7.608  13.702   7.984  0.2024  0.2191  0.1497
 1343W        W38837  14.590  20.917  14.449 -0.0328  0.2173  0.0531
 1344W        W38838  18.330  17.517  18.855 -0.2703  0.0887  0.1704
 1345W        W38839  14.332   8.375   8.014 -0.3364 -0.1981  0.1694
 1346W        W38840  32.626  23.741  22.155 -0.0781  0.1566  0.0984
 1347W        W38841  34.842  32.742  14.472 -0.2703  0.2904  0.2110
 1348W        W38842  19.678  11.648  22.179 -0.0929 -0.0325  0.1897
 1349W        W38843  31.663  23.073  16.420  0.0314 -0.2692  0.0680
 1350W        W38844  30.232   3.802   3.387  0.0243 -0.0306  0.0238
 1351W        W38845  12.057   6.835   4.402  0.1347 -0.1617  0.1116
 1352W        W38846  18.030  24.224  10.733  0.3236  0.0747 -0.0964
 1353W        W38847  23.117  30.244   2.994 -0.1590  0.3781  0.0110
 1354W        W38848  11.141  22.470   0.931 -0.3909 -0.2204  0.0161
 1355W        W38849  30.481   8.927  22.903 -0.3667 -0.2266 -0.0707
 1356W        W38850   1.987  24.149   5.379  0.0648 -0.1203 -0.0651
 1357W        W38851  22.100   1.986  21.717  0.0352 -0.2533  0.2732
 1358W        W38852  27.961   1.988  24.812 -0.2052  0.1812  0.2303
 1359W        W38853  26.986  14.144  10.210  0.3223 -0.0394  0.1992
 1360W        W38854  19.105  23.102  19.208 -0.0905  0.1502  0.0429
 1361W        W38855  15.387  14.280  13.218 -0.1568  0.2310  0.1682
 1362W        W38856  28.590  33.900   5.605 -0.0175 -0.2323  0.0925
 1363W        W38857  11.574  15.313   0.002  0.0016  0.1880 -0.2493
 1364W        W38858  31.949   0.073   1.646  0.3223 -0.3500  0.1863
 1365W        W38859   6.759   9.604  20.268 -0.0772  0.2018  0.0711
 1366W        W38860  24.654  34.712   5.514  0.1420 -0.1034 -0.0586
 1367W        W38861  19.157  11.646   0.715  0.3038  0.0925  0.0026
 1368W        W38862  25.901   5.331  16.306 -0.2233  0.1168 -0.1103
 1369W        W38863   2.089   0.668   4.836 -0.0825 -0.1332 -0.1967
 1370W        W38864   7.788  12.461   1.657 -0.2284  0.0951 -0.0139
 1371W        W38865  28.217  29.991  10.135 -0.1954 -0.0258 -0.0550
 1372W        W38866   4.431   5.528   7.389 -0.0553 -0.0534 -0.1609
 1373W        W38867  27.997  17.834   9.528  0.2677 -0.1942 -0.0803
 1374W        W38868  31.507  15.296   6.082 -0.0062  0.0044 -0.0021
 1375W        W38869  31.007   0.375   0.399 -0.1908  0.1572 -0.2706
 1376W        W38870  18.350  23.896  24.575 -0.1416 -0.1091 -0.0338
 1377W        W38871  15.877  33.299   0.044  0.1589 -0.1157 -0.1355
 1378W        W38872   1.216  23.775  15.348 -0.0243 -0.0364  0.0505
 1379W        W38873  14.618  21.590   6.010 -0.0099  0.1461 -0.0328
 1380W        W38874  22.506  23.616  17.813  0.1670  0.1614 -0.2947
 1381W        W38875  10.357   1.723  21.897 -0.0814 -0.2214 -0.0875
 1382W        W38876  29.283  28.929  25.465  0.2299  0.1767  0.0082
 1383W        W38877  30.999  26.624  24.962 -0.1283 -0.2228 -0.1830
 1384W        W38878   5.968  17.998   8.234  0.0137  0.0041  0.0507
 1385W        W38879  16.726  31.317   4.868 -0.0381  0.3895 -0.1806
 1386W        W38880  33.786  11.190  15.399  0.0148 -0.2976 -0.0316
 1387W        W38881  26.284  11.352  22.554 -0.0378  0.2445 -0.1078
 1388W        W38882  25.176  13.632   0.765 -0.1021  0.0339 -0.1867
 1389W        W38883  26.114  28.857  15.758 -0.0610  0.0742 -0.0735
 1390W        W38884   5.882  26.855  12.084 -0.0051 -0.3251  0.3840
 1391W        W38885  22.965  26.119  18.173  0.1899  0.0657 -0.2027
 1392W        W38886  19.240  31.078  25.099 -0.3301  0.1707  0.1331
 1393W        W38887  29.824   5.855   1.500 -0.0748 -0.2560 -0.1821
 1394W        W38888  25.775   6.545  23.517  0.0174  0.0532  0.2545
 1395W        W38889  28.146  20.392   5.840 -0.0654 -0.0890 -0.0072
 1396W        W38890   4.521  32.853   2.226  0.2082  0.3527  0.0564
 1397W        W38891   9.300  16.615   6.177 -0.0893  0.3144 -0.1452
 1398W        W38892  18.280  12.566   0.837 -0.0050  0.0415 -0.2097
 1399W        W38893  23.195   2.207  22.761  0.0461  0.1368  0.1228
 1400W        W38894  33.995  31.388  26.111  0.1008 -0.2655 -0.1189
 1401W        W38895  34.820  10.497   1.442 -0.1752 -0.2498  0.1015
 1402W        W38896   1.308   2.623  14.911  0.0100 -0.2180 -0.2343
 1403W        W38897   0.695   3.764   2.403 -0.1023  0.4093 -0.0613
 1404W        W38898  18.395  24.967   2.592  0.1301 -0.2110  0.4136
 1405W        W38899  33.505  32.132   0.174 -0.0333 -0.0159 -0.1154
 1406W        W38900  33.628   1.919  21.632 -0.2264  0.0632  0.4015
 1407W        W38901   0.784  12.303  24.265  0.2877 -0.2427 -0.1103
 1408W        W38902   5.914  24.220  10.969  0.0563 -0.1008  0.2737
 1409W        W38903  30.071  22.938  23.837  0.1978  0.0816  0.2646
 1410W        W38904  26.183  19.972  26.058 -0.1539  0.1979 -0.1294
 1411W        W38905  27.061  29.940   0.189  0.0459 -0.0848 -0.2114
 1412W        W38906  30.296  33.116   3.812 -0.1821  0.4758  0.2715
 1413W        W38907  31.910  24.035   9.840  0.1314  0.0383 -0.0740
 1414W        W38908  13.660  12.762  10.691  0.0694  0.2876 -0.0523
 1415W        W38909  31.018  13.159  14.800  0.2741 -0.3671  0.2984
 1416W        W38910  33.375   1.539  19.039  0.1283 -0.0505  0.0831
 1417W        W38911   2.103  23.605  25.031 -0.2135 -0.1813 -0.2580
 1418W        W38912  24.848   2.413  19.637 -0.0142 -0.0190  0.2810
 1419W        W38913  18.538   9.793   5.852 -0.0926 -0.1722 -0.1686
 1420W        W38914  27.702  16.912   9.490 -0.0059 -0.1774 -0.0660
 1421W        W38915  27.013   8.939  15.825 -0.2641  0.0650 -0.3701
 1422W        W38916  27.152   0.373   2.459  0.0086 -0.1022  0.0098
 1423W        W38917  31.412  13.864  13.205 -0.0954  0.0919 -0.3136
 1424W        W38918   8.849  15.132   6.776  0.0143 -0.0160  0.1633
 1425W        W38919  30.034  30.256   2.527 -0.1089 -0.1339  0.2815
 1426W        W38920  21.324  33.181   5.203  0.1110 -0.0180  0.0826
 1427W        W38921  34.134  30.231  20.300  0.0778 -0.3727 -0.0630
 1428W        W38922  16.336  34.510  22.626  0.1854  0.3084  0.1341
 1429W        W38923  22.331  17.013  15.862  0.0753 -0.1671  0.0827
 1430W        W38924  20.623  12.799   5.984  0.0781 -0.1274  0.1399
 1431W        W38925  22.369  11.030   2.594 -0.1785  0.0341 -0.0634
 1432W        W38926  13.801  20.308   2.411  0.0441  0.0930  0.2143
 1433W        W38927   2.085   7.589  14.903  0.1738  0.1181  0.0002
 1434W        W38928  30.280   9.479  23.465  0.2820  0.0760  0.1350
 1435W        W38929   1.732   3.191   0.574 -0.0662  0.0047  0.1648
 1436W        W38930   9.200  20.253  23.716  0.1764 -0.2594  0.3056
 1437W        W38931  19.915  18.009  19.112  0.3604  0.1192 -0.0811
 1438W        W38932   7.987  19.800   4.433 -0.0692 -0.2448  0.1457
 1439W        W38933   9.494  10.613   1.306  0.2577 -0.1374 -0.0186
 1440W        W38934  11.500  10.681   5.790  0.0141  0.0243  0.1397
 1441W        W38935  11.933  16.164  11.620 -0.0039 -0.3428 -0.0619
 1442W        W38936  10.132   9.625  12.882 -0.1315 -0.0513  0.1601
 1443W        W38937   1.905  23.817  24.382  0.0114 -0.0218 -0.0246
 1444W        W38938  17.959  15.671   0.180  0.0864  0.0742 -0.4991
 1445W        W38939  17.712  22.422   8.136 -0.0740 -0.2135 -0.1905
 1446W        W38940  25.101   3.328   7.111 -0.3446  0.1258  0.0355
 1447W        W38941   2.848  31.048   0.525 -0.3735 -0.5077  0.0314
 1448W        W38942   4.251  30.561   4.643 -0.1989  0.0395 -0.2548
 1449W        W38943  27.178  25.124  22.311  0.0130 -0.0069  0.2445
 1450W        W38944  14.680  28.626  25.742 -0.1038  0.2102  0.0619
 1451W        W38945   9.122   0.051  11.397 -0.1861 -0.2770  0.5739
 1452W        W38946   5.802   8.230   6.343  0.0308  0.1766  0.3293
 1453W        W38947   4.934  23.983  24.282 -0.2064  0.0719  0.0881
 1454W        W38948  34.837   3.197  20.247  0.1674  0.0925  0.1783
 1455W        W38949  11.900  22.698  23.861 -0.1182  0.2908  0.0268
 1456W        W38950  11.926  35.091  21.340 -0.1723  0.3258  0.2472
 1457W        W38951  10.198   1.101   4.298  0.0634 -0.2127  0.0055
 1458W        W38952  25.262   6.948  16.479 -0.0515 -0.1910 -0.1501
 1459W        W38953  25.682  16.957   7.009  0.2998 -0.1169  0.0390
 1460W        W38954   4.855  34.915  18.365 -0.1151 -0.1736 -0.2047
 1461W        W38955  20.656   6.348   2.664  0.4870  0.2838  0.0856
 1462W        W38956   7.831  29.678  24.057 -0.0994  0.0279  0.3416
 1463W        W38957   9.021  10.606  25.354  0.0778  0.0243  0.2704
 1464W        W38958  12.909  34.596   2.893  0.1661  0.2368  0.1801
 1465W        W38959  31.104  19.501   8.874 -0.0728  0.1829  0.0607
 1466W        W38960  16.620  34.906  19.037 -0.1908  0.0696  0.2034
 1467W        W38961   5.834  18.781   1.491 -0.0177  0.1036 -0.0194
 1468W        W38962  28.023   3.294  20.096 -0.1770 -0.1763 -0.0336
 1469W        W38963  18.893  28.554  18.837  0.0813 -0.0458 -0.2057
 1470W        W38964   5.613  33.928   8.057  0.0555  0.4082 -0.0321
 1471W        W38965  12.806  27.562  16.928 -0.0549  0.0062  0.1127
 1472W        W38966  11.782   7.910   7.332 -0.1054  0.0801 -0.2563
 1473W        W38967  33.441  16.327  19.975  0.0270 -0.0612 -0.0297
 1474W        W38968  17.375  10.609  23.253  0.0464  0.0687 -0.1235
 1475W        W38969   0.753   9.553  12.519  0.0940 -0.0080 -0.6221
 1476W        W38970   6.483  31.774  14.020 -0.0508 -0.0723  0.1403
 1477W        W38971   7.967  32.052   0.069  0.0277  0.0878 -0.2717
 1478W        W38972  30.095  16.103   5.132  0.1543  0.2542  0.0425
 1479W        W38973  23.107   9.497  15.145  0.2867 -0.2855 -0.0916
 1480W        W38974  30.936   0.083  13.726 -0.0153  0.3251  0.0981
 1481W        W38975   4.730   3.809   7.596 -0.0121  0.2655 -0.0727
 1482W        W38976   9.269  34.718   4.726  0.2068  0.3472  0.0466
 1483W        W38977  20.463   4.278  24.861  0.4220 -0.1531 -0.0022
 1484W        W38978  14.808  13.950  14.317  0.3805 -0.0635 -0.1214
 1485W        W38979  20.886  18.516  25.868  0.1697 -0.0422  0.0001
 1486W        W38980   6.521  18.639   7.679  0.1229  0.1530 -0.2597
 1487W        W38981  33.735  28.608   1.855 -0.0716 -0.0646 -0.1561
 1488W        W38982  16.210   1.541  17.900  0.0027 -0.3344  0.1115
 1489W        W38983   1.140  24.341  21.326 -0.1071  0.0666  0.1813
 1490W        W38984  18.391   1.703  19.798  0.3449  0.1799 -0.4431
 1491W        W38985  12.780  30.640   7.486  0.0613  0.0410  0.1391
 1492W        W38986  16.507   1.087  17.914 -0.0841 -0.1687  0.0376
 1493W        W38987  29.208  15.964   4.972 -0.0247 -0.2166 -0.2001
 1494W        W38988  26.254  32.452  16.479  0.0029 -0.1715 -0.2205
 1495W        W38989  27.021  19.858  16.240 -0.0806 -0.0712 -0.0840
 1496W        W38990  31.109   1.526  13.593 -0.0766 -0.1426 -0.2316
 1497W        W38991  26.377  22.538  17.494  0.0667 -0.0383  0.1278
 1498W        W38992  12.324  15.594  11.300  0.1758 -0.0912 -0.0410
 1499W        W38993   5.686  32.799   0.172 -0.0202  0.0652 -0.1287
 1500W        W38994   3.883  24.432   4.872  0.1265  0.0853 -0.3457
 1501W        W38995  12.485  35.183   2.059  0.1752 -0.2758 -0.1802
 1502W        W38996  18.079   6.948  10.113 -0.2175  0.1131 -0.0662
 1503W        W38997  15.248  10.759   9.184 -0.2555 -0.3745  0.0274
 1504W        W38998  25.789  10.979  25.986  0.0296 -0.0605 -0.0516
 1505W        W38999   8.320   8.193   2.898  0.4374  0.2161 -0.0104
 1506W        W39000   8.885  32.405  14.462 -0.4071 -0.0207 -0.2136
 1507W        W39001  23.799   9.158  26.175 -0.0316 -0.2066 -0.2406
 1508W        W39002  35.160  10.388  15.012  0.1996 -0.0457  0.0957
 1509W        W39003   3.533  25.773   2.924  0.0487 -0.3608 -0.0451
 1510W        W39004  13.717  11.852  23.008 -0.0098  0.1624  0.1342
 1511W        W39005  31.703  13.968   0.738 -0.2356  0.2613  0.0089
 1512W        W39006  30.002  25.936  11.186 -0.1410  0.0476  0.0176
 1513W        W39007  18.916  32.091  17.210  0.0557 -0.1138 -0.5085
 1514W        W39008   4.873  14.867   0.465  0.2607  0.0467  0.1277
 1515W        W39009   4.377   9.753  25.312 -0.0832 -0.1272 -0.0345
 1516W        W39010  26.832   8.133  17.150 -0.0983 -0.2708  0.1040
 1517W        W39011  34.502  28.960   2.515  0.0593 -0.2177 -0.2746
 1518W        W39012  30.050  18.629  24.218 -0.2021 -0.0612 -0.2531
 1519W        W39013  16.732   2.414   4.581  0.1463  0.2790  0.0193
 1520W        W39014   5.486   8.199  22.795  0.0687  0.3147  0.1848
 1521W        W39015  30.332   4.771  19.280  0.1293 -0.4520  0.0670
 1522W        W39016  29.937  17.265  15.444 -0.1258  0.0967 -0.2423
 1523W        W39017  15.939   5.803   4.867  0.0713  0.1558 -0.3400
 1524W        W39018  23.969  12.384  20.084 -0.3444 -0.1485 -0.0011
 1525W        W39019  31.143  28.514  24.214 -0.2576 -0.2377 -0.2060
 1526W        W39020  17.934  25.916  10.989 -0.0344  0.2905  0.0895
 1527W        W39021  34.314   8.893   3.404 -0.3424  0.3472 -0.0065
 1528W        W39022  12.731   4.061  19.168 -0.1342  0.1193 -0.0308
 1529W        W39023  23.836  33.121  14.903  0.1298 -0.0177 -0.0661
 1530W        W39024  24.678   7.859  12.651 -0.0605  0.1948  0.3525
 1531W        W39025   9.513  13.862  24.012  0.0194 -0.2255 -0.1420
 1532W        W39026  10.209   5.008   5.466  0.3083 -0.2951  0.3354
 1533W        W39027  10.315  23.331  25.422 -0.0420 -0.2057  0.0197
 1534W        W39028  16.291   5.665  18.128  0.0197  0.3375  0.1275
 1535W        W39029  34.462  31.193  22.365 -0.1209  0.2241 -0.1071
 1536W        W39030  23.419   1.261  24.704  0.1544  0.2523  0.0376
 1537W        W39031  14.864   0.330  24.499 -0.1671 -0.2891  0.0683
 1538W        W39032  20.163  14.574   1.157  0.0182  0.3873 -0.0194
 1539W        W39033  20.392   2.670  14.489  0.0737  0.0107 -0.1963
 1540W        W39034   9.142   0.679  21.480  0.1456  0.0874  0.1675
 1541W        W39035   6.060  10.482  18.509  0.1568 -0.1480  0.2131
 1542W        W39036  15.425  28.774  12.422 -0.0409  0.0094  0.1958
 1543W        W39037  14.668  32.689  21.356 -0.0945  0.0053  0.0540
 1544W        W39038  27.108  33.930   1.051 -0.0122  0.1563 -0.1381
 1545W        W39039  24.989  13.392  16.183  0.0214 -0.0311  0.0749
 1546W        W39040   0.117  23.509  23.048  0.5167 -0.0481  0.1720
 1547W        W39041  25.099  17.442  15.469 -0.2659 -0.0241  0.5639
 1548W        W39042  14.773  25.033  14.869 -0.0508  0.2517 -0.1359
 1549W        W39043   6.621  24.524  24.815 -0.2546  0.1696  0.1095
 1550W        W39044  26.697   3.029  15.484 -0.1921  0.1407 -0.2412
 1551W        W39045  28.941   5.605  19.901 -0.2197  0.1481 -0.0601
 1552W        W39046   3.641  34.675   2.550  0.1407  0.0145 -0.0690
 1553W        W39047   2.050   8.084  13.097  0.1268 -0.0473  0.0469
 1554W        W39048  31.685  17.724  20.259  0.2164 -0.1408 -0.0340
 1555W        W39049  25.429  35.124  15.561  0.2507 -0.0819 -0.0026
 1556W        W39050   7.777  10.690   2.055 -0.1369 -0.3407  0.0458
 1557W        W39051  23.633  22.326   0.274 -0.4420  0.0546 -0.0473
 1558W        W39052  20.836  25.450   5.426  0.4452  0.3386  0.2558
 1559W        W39053  31.401  32.100  24.969 -0.0372  0.1466 -0.3683
 1560W        W39054  24.506   2.918  24.072  0.0107 -0.1677  0.0277
 1561W        W39055   4.228  29.831   0.855 -0.2485  0.1204 -0.2719
 1562W        W39056   7.702   3.947  25.881  0.0058  0.4131  0.1317
 1563W        W39057  16.394   5.968  13.126  0.0043  0.1325 -0.3054
 1564W        W39058   2.847   1.226  21.389  0.2118  0.0752  0.0019
 1565W        W39059  14.484   1.060  19.314 -0.0250 -0.0910 -0.0853
 1566W        W39060   6.453   1.735  23.328 -0.0341  0.3578  0.0642
 1567W        W39061  18.612  11.319   2.388 -0.0251  0.1103  0.0078
 1568W        W39062   2.967  12.392  19.454 -0.0993  0.2832 -0.2065
 1569W        W39063   2.230  26.524  26.233 -0.1402 -0.1390  0.2667
 1570W        W39064  10.228   7.138  26.139  0.0423  0.0642  0.2746
 1571W        W39065   3.123  31.970  24.022  0.2797 -0.1463  0.0530
 1572W        W39066  34.885   7.765  15.884  0.2083 -0.0506 -0.0071
 1573W        W39067   9.789  33.491  21.877  0.0361  0.0348 -0.0325
 1574W        W39068  14.413  33.817   5.896 -0.2168 -0.0104  0.3245
 1575W        W39069  20.588  25.354   6.071  0.0941  0.1476 -0.1928
 1576W        W39070  10.025   5.384  24.567 -0.0271  0.4336 -0.1760
 1577W        W39071  33.898   0.505  13.711 -0.0541 -0.0147  0.0757
 1578W        W39072   5.663   4.282  25.777  0.1408 -0.0323  0.2152
 1579W        W39073   4.583  35.374  11.306 -0.1204  0.0192 -0.1857
 1580W        W39074  25.744   4.164  21.944  0.1247  0.0366  0.0170
 1581W        W39075  24.581   5.333  15.490  0.3189 -0.0557  0.3209
 1582W        W39076   9.998  10.714  21.056 -0.3988 -0.0876  0.2149
 1583W        W39077  11.215  25.678   3.696 -0.0889  0.3107  0.1290
 1584W        W39078  11.370  30.334  14.164  0.1251 -0.1757 -0.3544
 1585W        W39079   4.588   8.475  20.683 -0.1847  0.1431  0.2402
 1586W        W39080   9.550  29.910  25.470  0.0083 -0.0185  0.1724
 1587W        W39081   0.340  21.563   2.475  0.0066 -0.3718 -0.0941
 1588W        W39082  26.535  34.116   2.756  0.1734 -0.1779  0.1844
 1589W        W39083  30.828  27.848  14.812 -0.0769 -0.0370  0.0407
 1590W        W39084  18.747  17.728   0.291 -0.0721  0.0576  0.0784
 1591W        W39085  15.823  33.816   9.632  0.3065 -0.0234  0.3250
 1592W        W39086  13.589  25.197   1.759 -0.0429  0.1152  0.2102
 1593W        W39087  29.451  24.522  20.204  0.0365  0.0275 -0.3853
 1594W        W39088  31.367  25.975  20.056 -0.0206  0.2547  0.3390
 1595W        W39089  33.679   0.623  19.235  0.3028 -0.1460  0.0448
 1596W        W39090   7.425  18.422   2.078 -0.3079 -0.1562  0.1414
 1597W        W39091  16.384   2.416   0.389  0.1439  0.0010 -0.1201
 1598W        W39092  20.719  15.073  23.034  0.0333  0.0713 -0.1104
 1599W        W39093  11.069  17.573   3.920  0.2519  0.0675 -0.3215
 1600W        W39094  32.859  28.318  21.291  0.0832 -0.0965 -0.3699
 1601W        W39095  32.417  19.031  19.860 -0.1697  0.0344  0.1108
 1602W        W39096   5.846   5.045   4.340  0.3316  0.0067  0.1585
 1603W        W39097  17.061  34.243   6.695  0.1016  0.0581  0.3381
 1604W        W39098   6.888  23.717   8.164 -0.0815 -0.2466 -0.2099
 1605W        W39099   6.555   7.216   7.686  0.0032  0.0659 -0.0511
 1606W        W39100   1.186  24.639  25.159  0.0097 -0.0079  0.2436
 1607W        W39101  17.221  33.846  19.120  0.1600 -0.0066  0.0548
 1608W        W39102  15.092  14.143   1.512 -0.0720 -0.0333 -0.1027
 1609W        W39103   2.548   7.544   1.600  0.0707  0.1036  0.0457
 1610W        W39104  16.811  19.140   4.001 -0.1881 -0.1663 -0.1528
 1611W        W39105  12.513   5.358  24.979  0.1314  0.3231  0.0669
 1612W        W39106  32.568  30.457  25.635 -0.1236  0.1775 -0.4120
 1613W        W39107  13.972  15.301  10.494 -0.2148 -0.1319 -0.3420
 1614W        W39108  25.174  35.169  14.581  0.0422 -0.0727 -0.0383
 1615W        W39109  10.801   3.527  19.621 -0.1771 -0.5150  0.1496
 1616W        W39110  34.768  26.614  14.712 -0.1763 -0.0866 -0.1080
 1617W        W39111   0.065  12.295  12.435 -0.1142 -0.1393 -0.0357
 1618W        W39112  31.378  19.013   8.051  0.0461  0.2731  0.7624
 1619W        W39113   5.407  29.891  14.800  0.1807  0.1297 -0.2630
 1620W        W39114  11.023  19.795   1.417 -0.2425 -0.0386  0.2275
 1621W        W39115  35.136  22.334  25.151 -0.0563 -0.3099 -0.0573
 1622W        W39116  21.179  20.813  18.492  0.2207 -0.1250  0.3722
 1623W        W39117   3.464  20.100   4.548  0.0574 -0.1164 -0.1831
 1624W        W39118  19.178  18.416  18.816 -0.2447 -0.2097  0.3212
 1625W        W39119  15.737  27.701   9.983  0.2507 -0.0330 -0.3399
 1626W        W39120  13.864  27.661  11.791 -0.0135  0.0248 -0.0744
 1627W        W39121  12.169   6.266   1.832 -0.0281 -0.0235  0.0403
 1628W        W39122  21.845  19.179  25.795 -0.2704  0.2572 -0.0733
 1629W        W39123  35.381   6.938   4.165  0.0718  0.0113 -0.2232
 1630W        W39124  10.231  22.816   4.432  0.1744  0.1413 -0.0631
 1631W        W39125  13.885  28.120   9.096  0.1647 -0.0296  0.0979
 1632W        W39126  12.477  34.042  10.797 -0.0476  0.0140  0.0179
 1633W        W39127  30.086  14.505  17.364 -0.0123 -0.3401  0.0667
 1634W        W39128  15.666  33.151  11.291  0.2864  0.1515 -0.1965
 1635W        W39129  22.109  35.052   2.572 -0.2825 -0.0208 -0.1043
 1636W        W39130   9.872   0.202  14.806  0.0497 -0.2519  0.0707
 1637W        W39131   1.459  19.120  20.177 -0.0408  0.1431 -0.0118
 1638W        W39132   8.007  32.968  22.008 -0.1770 -0.0421  0.2738
 1639W        W39133   1.722  18.526  17.023 -0.3858 -0.2127 -0.5264
 1640W        W39134   9.438  21.938  14.982 -0.1459 -0.0775 -0.0118
 1641W        W39135  15.247  31.869   6.426 -0.2691  0.1053  0.2106
 1642W        W39136  33.262  29.461  25.989  0.1487  0.1912  0.0776
 1643W        W39137  15.781  21.194  10.686  0.0937  0.0485  0.2767
 1644W        W39138  14.429  29.669  13.509  0.0436 -0.0442  0.0443
 1645W        W39139   5.460  27.383   4.266 -0.3729 -0.0347  0.0471
 1646W        W39140  28.498  24.714   0.115 -0.1954  0.1661 -0.2140
 1647W        W39141  18.779  22.367  18.593  0.0000  0.0361  0.1417
 1648W        W39142  16.293  19.859   3.531 -0.1678 -0.1047 -0.0781
 1649W        W39143   3.483  23.457  19.828 -0.1252  0.2012  0.3583
 1650W        W39144  27.870   8.675  21.441  0.0808  0.0744 -0.0160
 1651W        W39145  30.724  13.796   5.678 -0.1039 -0.1954 -0.0642
 1652W        W39146   5.679  28.772   0.148  0.2998  0.1208  0.2364
 1653W        W39147  23.299   9.370   3.432 -0.1177  0.0171 -0.1974
 1654W        W39148   0.536  27.386  23.931  0.2584  0.0688 -0.1950
 1655W        W39149  24.034  25.919  23.498 -0.1158  0.0111  0.3547
 1656W        W39150  13.379  12.550  22.519 -0.1399  0.0356 -0.1926
 1657W        W39151  25.878  10.483  18.513  0.1596 -0.2178  0.1962
 1658W        W39152  22.323  33.947  17.432 -0.0515  0.0494 -0.0211
 1659W        W39153   0.473   8.606  21.254  0.1675 -0.2436  0.0029
 1660W        W39154  15.198   0.705  21.114  0.0815 -0.4471 -0.0331
 1661W        W39155   3.935  25.789   6.352 -0.1903 -0.1844 -0.4630
 1662W        W39156  30.259   5.587  24.034  0.0498 -0.2313  0.3515
 1663W        W39157  27.330  20.774   7.395 -0.0799 -0.0671 -0.0446
 1664W        W39158   3.783  22.602  23.429 -0.3333 -0.2827 -0.2782
 1665W        W39159   7.867  28.280   7.324  0.0635  0.1016  0.1755
 1666W        W39160  28.835  34.212   4.062 -0.0095  0.0622 -0.0951
 1667W        W39161  14.572  16.480   1.180 -0.0170 -0.1090  0.0157
 1668W        W39162   2.779   1.423  16.157  0.2888  0.0096  0.3605
 1669W        W39163  27.215  21.830  18.523 -0.3772  0.0282  0.3212
 1670W        W39164   6.491  20.449   2.954  0.2294 -0.1104 -0.2784
 1671W        W39165  33.583   8.934  25.219 -0.0326 -0.0950  0.1882
 1672W        W39166  10.882  13.368   5.168  0.1289  0.1567 -0.3549
 1673W        W39167  16.031  13.175  23.492  0.0921  0.1249 -0.0058
 1674W        W39168   3.827   0.779  22.693 -0.3060 -0.0966  0.1152
 1675W        W39169  12.724  21.708   1.609 -0.0162  0.1137  0.1296
 1676W        W39170  29.010  23.358  17.798 -0.4367  0.0714 -0.0423
 1677W        W39171  28.907  13.066  13.479 -0.0813 -0.4056 -0.2039
 1678W        W39172  11.853  26.227   6.045  0.1289 -0.0417 -0.1782
 1679W        W39173  11.376  27.331   6.893 -0.4813 -0.2454 -0.1984
 1680W        W39174  18.312  23.267   6.513  0.2468  0.2977  0.1888
 1681W        W39175  30.574   8.093  15.718 -0.0237 -0.1783 -0.1418
 1682W        W39176  11.361   1.445  24.118 -0.0370  0.1649 -0.3907
 1683W        W39177  16.653  10.456   5.644  0.1531 -0.2051 -0.0613
 1684W        W39178  18.756  24.473  23.806 -0.0452  0.1248  0.0236
 1685W        W39179  29.297  14.817  16.261 -0.2338  0.3269 -0.2205
 1686W        W39180  34.627  27.203  23.756 -0.0964  0.2349 -0.1140
 1687W        W39181  16.521  23.972   5.915  0.0496 -0.1998  0.1626
 1688W        W39182  20.364  17.063  18.802  0.2236 -0.1435 -0.0594
 1689W        W39183  21.512   4.261  25.449 -0.0656  0.0078 -0.3337
 1690W        W39184  21.443  28.418  23.035  0.1310 -0.2284  0.2880
 1691W        W39185  25.908  32.144  22.654  0.0532 -0.2682 -0.1262
 1692W        W39186  25.976  26.289   1.287  0.1215 -0.0219  0.0055
 1693W        W39187  30.315  31.178   2.398  0.2021 -0.3781  0.0506
 1694W        W39188  25.441  17.321  23.815 -0.0087  0.0221  0.3193
 1695W        W39189   5.513   4.915   4.743  0.2075  0.0341  0.5288
 1696W        W39190  18.278  26.045   1.964 -0.2720  0.3866  0.5365
 1697W        W39191  23.801   8.361  23.747  0.2119  0.0686 -0.3103
 1698W        W39192  26.937  11.779  17.668 -0.1060  0.0188 -0.2169
 1699W        W39193   4.464  27.026   9.732 -0.1301 -0.1537  0.1648
 1700W        W39194  13.487  20.054  14.098  0.3113 -0.0567 -0.1042
 1701W        W39195  15.383  18.099  10.758  0.2480  0.0387 -0.0349
 1702W        W39196   7.436  16.955  21.025 -0.2188 -0.3599  0.0161
 1703W        W39197   4.653  10.144  21.202 -0.0337 -0.0080 -0.2559
 1704W        W39198  16.836  32.200   3.838  0.3826  0.0399 -0.2893
 1705W        W39199  29.228   0.270   6.287 -0.1194 -0.1403 -0.1890
 1706W        W39200  24.806  35.203  18.790 -0.0707 -0.1494  0.0485
 1707W        W39201  32.194  10.035  14.884  0.0277  0.2535 -0.1203
 1708W        W39202   0.284  12.645  10.196 -0.0177  0.2232 -0.0692
 1709W        W39203  27.908  24.122  20.812 -0.2149  0.0510 -0.1585
 1710W        W39204  33.612   6.829  18.666  0.1135 -0.0858 -0.0169
 1711W        W39205  11.751  16.482  11.208 -0.2330  0.2675 -0.1458
 1712W        W39206   6.333  14.629   0.680  0.1653 -0.2360  0.3472
 1713W        W39207   7.167  27.631  24.480  0.1726  0.2982 -0.3525
 1714W        W39208  31.262  14.114   7.638  0.1701  0.2884  0.1813
 1715W        W39209   0.966  11.506  24.658  0.1559 -0.0287  0.1026
 1716W        W39210  14.247   3.382  18.429  0.3143  0.3033 -0.0453
 1717W        W39211   2.272  17.762  11.022  0.2340  0.0795  0.1068
 1718W        W39212   5.303  12.196   5.861 -0.0746 -0.1744 -0.0502
 1719W        W39213  16.684  13.643   2.181 -0.4267  0.1701  0.0669
 1720W        W39214  25.291  22.996  17.139 -0.0726  0.2782 -0.1391
 1721W        W39215  13.892  16.413  22.411  0.0335  0.1747 -0.0930
 1722W        W39216  17.298  29.785   7.219  0.1997 -0.1527  0.0913
 1723W        W39217   3.064  33.576  19.179  0.0791 -0.2458 -0.2825
 1724W        W39218  18.655  14.628  18.212 -0.0419 -0.0690  0.1673
 1725W        W39219  19.946  12.555   5.145  0.2220  0.1672 -0.0486
 1726W        W39220  10.693  16.510   2.844 -0.1834  0.1033  0.0934
 1727W        W39221  22.734  33.749  19.119  0.1480  0.0579  0.2606
 1728W        W39222  16.090  21.520   6.032 -0.1017 -0.3999  0.0410
 1729W        W39223  21.625  18.253  15.775  0.1085  0.2500  0.2043
 1730W        W39224  25.724  14.699   0.256 -0.1319  0.1284 -0.4889
 1731W        W39225  23.009  13.505  16.057  0.2184 -0.0351  0.1280
 1732W        W39226  17.571  28.639   5.332 -0.0483 -0.2604 -0.3858
 1733W        W39227   1.602  16.346  16.005  0.1669  0.1460  0.1842
 1734W        W39228  17.299   0.503  19.066  0.1470  0.0943 -0.1815
 1735W        W39229  14.770  11.962   7.166 -0.0019  0.0737  0.1633
 1736W        W39230   5.895   1.460   1.214 -0.1389 -0.0118  0.0822
 1737W        W39231  29.605   3.751  25.857  0.0560 -0.0678  0.2247
 1738W        W39232  11.557  34.916  26.051 -0.1202 -0.0062 -0.0155
 1739W        W39233  31.740  25.590  15.045  0.2428 -0.0355  0.0150
 1740W        W39234  26.609   4.181  16.699  0.3512  0.0813  0.2261
 1741W        W39235   4.231  27.723  10.175 -0.1356 -0.3485  0.0899
 1742W        W39236  32.751  16.837  24.030 -0.0996 -0.1393 -0.0407
 1743W        W39237  18.566   3.710   9.973  0.2637 -0.1243  0.1182
 1744W        W39238  22.947   3.397   0.404 -0.1398  0.0418 -0.0207
 1745W        W39239   2.360  18.029  14.374 -0.1501  0.0766  0.1433
 1746W        W39240  12.062  18.377  22.739 -0.0756  0.1705 -0.2017
 1747W        W39241  30.055  22.604   8.529  0.0661  0.1138  0.2478
 1748W        W39242  22.175  33.924   4.634 -0.2398 -0.0344 -0.2059
 1749W        W39243  15.711  35.329  21.604  0.1307 -0.0165 -0.0996
 1750W        W39244   8.154   8.778   0.144 -0.1765  0.2008 -0.1249
 1751W        W39245   5.496  34.650  23.236 -0.3118 -0.1115  0.0006
 1752W        W39246  32.030   9.031  23.157 -0.0537  0.0199  0.0102
 1753W        W39247  33.457   6.335  17.079 -0.1632 -0.2817 -0.1767
 1754W        W39248  21.575  27.445   2.428  0.3792  0.0479 -0.1418
 1755W        W39249   6.364   2.749   3.895  0.1052  0.1798  0.0869
 1756W        W39250  28.524  13.791  22.139  0.0003 -0.2496 -0.0250
 1757W        W39251   0.186  34.378   3.615 -0.1654 -0.0550 -0.0536
 1758W        W39252  18.896   9.699  12.310 -0.1126  0.2664 -0.1387
 1759W        W39253  15.701  12.248  21.107 -0.2603  0.1310  0.0819
 1760W        W39254   0.626   4.005   7.328 -0.0151  0.2505 -0.0075
 1761W        W39255   4.514   2.174   5.006  0.1809  0.2719 -0.0152
 1762W        W39256  12.966  18.497   0.021  0.0841  0.0186 -0.1047
 1763W        W39257  32.537   4.271  19.907  0.1998  0.2529 -0.1350
 1764W        W39258   5.067   5.635  18.446 -0.1948  0.3073 -0.2135
 1765W        W39259   4.894   2.124   0.252 -0.1753  0.0283 -0.0004
 1766W        W39260  16.813  22.781  13.767 -0.0385 -0.0038 -0.3374
 1767W        W39261  27.785   9.414  17.946 -0.2394 -0.0759 -0.1846
 1768W        W39262  12.612  30.455   5.654  0.0460 -0.0401 -0.0747
 1769W        W39263  11.591  13.566  11.645  0.0109 -0.0524  0.0170
 1770W        W39264  13.209  13.845  19.959 -0.1616  0.3104 -0.2385
 1771W        W39265   4.730  34.384   0.821  0.2979 -0.1104  0.0113
 1772W        W39266  34.103  13.756  17.303 -0.2636  0.1859  0.1397
 1773W        W39267  19.101   4.451  23.467 -0.1846  0.1257 -0.0776
 1774W        W39268   4.077  27.343   9.842  0.2616  0.0642 -0.0874
 1775W        W39269  32.329  24.469   7.652 -0.2521 -0.1456  0.0666
 1776W        W39270  14.989  10.733   6.125 -0.1181  0.0976  0.1501
 1777W        W39271   3.698  19.328  24.887 -0.0253 -0.1955  0.0525
 1778W        W39272  24.435   9.403  19.385 -0.0433 -0.0950 -0.3424
 1779W        W39273   2.962  26.750   6.178 -0.2319  0.1301  0.0601
 1780W        W39274   3.526  15.591  14.727  0.1645  0.3841 -0.1626
 1781W        W39275   4.688  35.159   5.442  0.0925  0.0140  0.1680
 1782W        W39276  17.642  19.989  10.763 -0.0706 -0.0681  0.1704
 1783W        W39277  31.776   0.399  18.863 -0.0571  0.0067  0.0671
 1784W        W39278  23.231  21.202   2.685  0.0493 -0.0764  0.0733
 1785W        W39279  19.165   8.100   6.701 -0.1822 -0.2392  0.0369
 1786W        W39280  14.173  34.457  12.911 -0.1267  0.2553  0.2236
 1787W        W39281   2.782   0.162   8.367 -0.0977 -0.1773 -0.0461
 1788W        W39282  20.055   8.333  18.896  0.0740 -0.2361  0.0638
 1789W        W39283  20.133  10.558  16.739 -0.0397  0.1310 -0.1914
 1790W        W39284  33.875   1.129  15.880  0.0496 -0.2290 -0.0970
 1791W        W39285  19.156  22.173  19.867  0.0575  0.0136 -0.0936
 1792W        W39286  28.708   6.331   0.083 -0.0297 -0.2969 -0.0866
 1793W        W39287  16.803   3.058   6.571  0.0492 -0.2359 -0.0268
 1794W        W39288   0.182  23.905  20.118  0.1145  0.0983  0.1071
 1795W        W39289  25.849  25.858  13.143 -0.2377 -0.0018  0.1929
 1796W        W39290   1.543  26.049  16.114  0.1663 -0.0692 -0.1036
 1797W        W39291   2.383  23.144  20.367 -0.2406 -0.1282 -0.0578
 1798W        W39292   3.515  20.364  16.759 -0.0427  0.0228 -0.0625
 1799W        W39293  29.541  29.758  19.153 -0.2020 -0.1039 -0.2327
 1800W        W39294  24.896  35.316  20.038  0.0083 -0.0947  0.0400
 1801W        W39295   4.043   4.732   2.653  0.0641 -0.1123 -0.0758
 1802W        W39296   6.589  15.840  20.792  0.0779 -0.1067  0.3089
 1803W        W39297   6.968  15.242   5.875  0.0655 -0.0496  0.1792
 1804W        W39298  24.435  35.086  18.448 -0.0479  0.2191 -0.0105
 1805W        W39299  12.569  26.056  10.549  0.0409 -0.1962  0.0289
 1806W        W39300  28.898  30.148  25.131 -0.1349  0.0401  0.0585
 1807W        W39301  29.668  34.626  18.624  0.2660 -0.0602  0.3956
 1808W        W39302   1.444  11.388  12.143  0.2479  0.0666  0.1098
 1809W        W39303  27.138  29.774  15.303  0.0758  0.1246 -0.0967
 1810W        W39304   1.471   6.782   5.763 -0.4192  0.2599 -0.0561
 1811W        W39305  33.254  13.126  10.421 -0.1952 -0.3553 -0.2644
 1812W        W39306  10.094  13.966   3.646  0.0008 -0.0612  0.0498
 1813W        W39307  25.931  26.965  11.750 -0.3409 -0.0508  0.1776
 1814W        W39308  30.413   9.377  10.736 -0.1185 -0.1823  0.1005
 1815W        W39309  29.620  29.353  18.878 -0.1108 -0.0862 -0.1925
 1816W        W39310  13.412   4.476  26.136  0.0708 -0.0930  0.1938
 1817W        W39311  25.561   4.469  24.998  0.1555 -0.3318 -0.1309
 1818W        W39312  30.322   4.804  24.431  0.3438 -0.0749  0.1132
 1819W        W39313  22.449  31.318   3.183  0.1700 -0.0142  0.1830
 1820W        W39314  19.141  26.109   4.902  0.0022 -0.0054 -0.1273
 1821W        W39315  18.861  23.956  21.201 -0.0029  0.1749 -0.1536
 1822W        W39316  23.997  20.661  12.674 -0.0648 -0.0819 -0.1424
 1823W        W39317  28.916  12.974  18.670 -0.3534  0.1532  0.2056
 1824W        W39318   9.440  20.990  24.311  0.1274  0.3182  0.2443
 1825W        W39319  29.642  32.093  20.032  0.0546 -0.1820  0.0010
 1826W        W39320  34.502   3.176  23.199 -0.1368  0.3765  0.0312
 1827W        W39321  21.752  31.936  14.450 -0.0226  0.0131 -0.0105
 1828W        W39322  25.682  16.902   8.116  0.2478 -0.0383  0.3537
 1829W        W39323   9.127  34.524   2.502  0.1829  0.0599  0.3487
 1830W        W39324   5.259  32.959  19.861 -0.1381 -0.1612 -0.0639
 1831W        W39325  21.329  27.368  14.319  0.4537 -0.2040 -0.2969
 1832W        W39326   9.823  10.479  19.226  0.0036 -0.0798 -0.1454
 1833W        W39327  30.657   3.774   3.089 -0.1261  0.0936  0.1885
 1834W        W39328   0.269   0.688   1.376  0.2149 -0.1616  0.2251
 1835W        W39329  11.414   7.466  20.050 -0.1062  0.0438  0.1161
 1836W        W39330   3.938  19.746  20.947 -0.0271 -0.1649 -0.0895
 1837W        W39331   3.299  15.285   2.705  0.1379  0.1526  0.3303
 1838W        W39332  13.785  10.888   0.723 -0.0373  0.3003 -0.1948
 1839W        W39333  31.199  21.408  18.049 -0.1625  0.0005  0.2809
 1840W        W39334   8.980  34.388  13.037  0.0401 -0.0129 -0.2145
 1841W        W39335  13.416  30.376   2.006  0.0532 -0.2111  0.0642
 1842W        W39336  35.307  33.490  20.356 -0.1864  0.2971  0.0965
 1843W        W39337  22.236  30.293  15.767 -0.1118 -0.0549  0.1216
 1844W        W39338  22.170  28.518   3.815  0.1032 -0.0611 -0.1395
 1845W        W39339  14.491  28.591  21.374 -0.0708  0.0334  0.0773
 1846W        W39340  23.294   2.975   2.822  0.3896  0.2241  0.1026
 1847W        W39341  21.868  22.242   4.762 -0.2433  0.1765 -0.2503
 1848W        W39342  25.835   6.816  17.388  0.0908  0.2046  0.1437
 1849W        W39343  21.656  19.505   2.792 -0.1422 -0.2446 -0.1164
 1850W        W39344  14.342  24.423  16.384  0.1196 -0.1323 -0.1627
 1851W        W39345  33.905  24.148  15.404  0.0881 -0.0995  0.2647
 1852W        W39346  26.689  22.275  17.130  0.1861 -0.0088 -0.0413
 1853W        W39347   1.645  34.055   3.124  0.0689 -0.0618  0.0360
 1854W        W39348   9.302  29.651  13.007 -0.1040  0.2367 -0.0111
 1855W        W39349  12.904   8.875  19.400 -0.4103  0.0074 -0.2163
 1856W        W39350  31.421  34.909  16.420  0.2259  0.1666  0.0659
 1857W        W39351  10.717  19.641  22.898  0.2429  0.1509  0.0013
 1858W        W39352  23.262  29.753  25.168 -0.3366 -0.0337  0.0046
 1859W        W39353  20.250  13.170  23.734  0.2842  0.1643 -0.1482
 1860W        W39354  35.313  11.176  19.694 -0.3151 -0.1228 -0.1157
 1861W        W39355  29.114  20.839  15.860 -0.0330 -0.0398  0.2520
 1862W        W39356  29.840   3.048  20.433  0.1527  0.5025 -0.0312
 1863W        W39357   3.386  22.793   0.216 -0.1246 -0.0846 -0.0923
 1864W        W39358   2.963  27.229  22.778  0.1816  0.2098 -0.2522
 1865W        W39359  11.168   5.558   4.330  0.0260  0.1398 -0.0168
 1866W        W39360  25.112  31.976  15.341  0.1723 -0.2499 -0.1492
 1867W        W39361  24.383  30.022  24.472  0.0368 -0.0261 -0.1859
 1868W        W39362  12.494  24.076   9.598  0.1571 -0.2170 -0.0079
 1869W        W39363  26.338  22.604  24.569 -0.0484 -0.2723 -0.1383
 1870W        W39364  26.205  32.416   2.850  0.0077  0.3162  0.0192
 1871W        W39365  24.261  18.575  17.131 -0.1035 -0.4450 -0.1374
 1872W        W39366  15.367  11.662   9.267  0.2219 -0.0534  0.2499
 1873W        W39367  23.428  19.803  15.318  0.0626 -0.0240  0.3035
 1874W        W39368  11.908   5.550  24.147  0.0356 -0.1011  0.0234
 1875W        W39369   6.545  26.441   0.618 -0.1862 -0.4448  0.1728
 1876W        W39370  32.135  20.837  16.654  0.0382  0.0528 -0.1881
 1877W        W39371  28.539  21.908  24.891 -0.0474  0.2994 -0.2323
 1878W        W39372  32.945  17.694  22.593  0.1368 -0.3203 -0.1668
 1879W        W39373  13.141  19.674   3.164 -0.1813  0.1418 -0.4455
 1880W        W39374   1.213  16.745  24.217  0.2054  0.0670 -0.0356
 1881W        W39375  14.386  22.501   2.621 -0.4117  0.1701 -0.0725
 1882W        W39376   9.888  29.255  12.243 -0.1205  0.1001  0.0573
 1883W        W39377  19.647  14.565  21.113  0.0273  0.1527  0.1083
 1884W        W39378  14.948  15.868  25.322  0.1228  0.1808  0.0143
 1885W        W39379  20.134  13.966  23.472  0.2330  0.0514  0.0492
 1886W        W39380  20.616   1.700   7.032 -0.0072 -0.0506  0.0653
 1887W        W39381   9.941  26.263  14.293 -0.1275  0.0434 -0.0009
 1888W        W39382  14.665   6.210   6.330  0.0566 -0.0515 -0.2919
 1889W        W39383  31.398  26.926  19.863 -0.1363 -0.2956  0.2040
 1890W        W39384  17.499  12.641  13.174 -0.1112  0.1518  0.1433
 1891W        W39385  27.317   6.867  20.213  0.1028 -0.0892  0.0925
 1892W        W39386  21.369   8.896  16.513  0.4086  0.1677 -0.1484
 1893W        W39387  10.987   7.808  10.683  0.2783  0.0253  0.3053
 1894W        W39388  27.337  32.777  18.828  0.1350 -0.0777  0.3573
 1895W        W39389  28.364  34.977  19.029  0.1741  0.2239 -0.0947
 1896W        W39390   9.657  33.800  16.434 -0.1538  0.2533 -0.1018
 1897W        W39391  12.410  13.792   7.720 -0.1457  0.0128  0.0945
 1898W        W39392  32.924  31.595  13.686  0.4314 -0.1218  0.2001
 1899W        W39393  22.288   7.517  22.322 -0.2539 -0.3212  0.0815
 1900W        W39394   0.186  26.856  22.957 -0.0621 -0.1251 -0.1950
 1901W        W39395  10.924   0.997  11.270 -0.1569  0.1400 -0.4074
 1902W        W39396   3.551  32.080  26.130  0.2210 -0.2181 -0.0036
 1903W        W39397  10.902  32.831   7.925 -0.1709  0.2017  0.0298
 1904W        W39398  14.603  24.009  15.582  0.1386 -0.3687 -0.1778
 1905W        W39399  13.895   7.890  21.806 -0.0394  0.2119  0.0059
 1906W        W39400  14.513  34.817   2.034  0.1517  0.2174  0.0844
 1907W        W39401  19.042  30.942   0.862 -0.1141  0.1188  0.0432
 1908W        W39402  23.416  11.852   0.405 -0.1307 -0.0859  0.1358
 1909W        W39403  29.553  23.621  24.045 -0.0267  0.0595 -0.2022
 1910W        W39404  24.680  26.582   3.328  0.1192  0.0574  0.0309
 1911W        W39405   0.056  27.702   5.841  0.2188  0.3258 -0.2042
 1912W        W39406  31.437  19.462  25.180 -0.1739  0.0396  0.1250
 1913W        W39407  11.775  30.708   0.566 -0.2543 -0.1390 -0.1770
 1914W        W39408   6.194   8.427  24.947 -0.2693  0.0959 -0.1464
 1915W        W39409  13.095  28.605   9.907 -0.1285  0.3828  0.1733
 1916W        W39410  28.370  16.765   5.168  0.1358  0.0792  0.0655
 1917W        W39411  27.861  17.113   5.019 -0.2490 -0.1595  0.0818
 1918W        W39412   7.611   0.365   4.326  0.1009 -0.2219  0.3387
 1919W        W39413  10.563  24.675   9.794  0.0798  0.1209 -0.0290
 1920W        W39414  27.481   8.555  11.907  0.0149  0.1055  0.0839
 1921W        W39415   6.807  20.599  25.262  0.1571  0.0775 -0.2094
 1922W        W39416  18.948  35.232  18.166 -0.0611  0.0735  0.0616
 1923W        W39417  23.779   7.262   4.444 -0.1301  0.0296  0.1140
 1924W        W39418  11.611  11.188   5.477  0.1001  0.1807  0.0268
 1925W        W39419   2.502   5.341  25.847  0.5058  0.0795  0.2764
 1926W        W39420  34.098  12.345  17.254  0.0177 -0.1404 -0.0812
 1927W        W39421  22.021  25.845  18.368  0.3277  0.4235 -0.2184
 1928W        W39422  19.348   2.236   9.491 -0.1087 -0.0432 -0.1410
 1929W        W39423  20.653  28.380   0.694 -0.0988 -0.3229 -0.0452
 1930W        W39424   4.664   7.560  26.069  0.1287  0.1593  0.2093
 1931W        W39425  15.307  12.427   5.742 -0.0047 -0.0412  0.1336
 1932W        W39426  11.447  16.582  13.763 -0.0692 -0.0668 -0.0567
 1933W        W39427   2.421  21.692   0.233  0.2357 -0.0229  0.3176
 1934W        W39428   7.793   8.213  24.199 -0.0992  0.1128  0.0554
 1935W        W39429  21.316  22.431   7.003  0.0748 -0.0530  0.0409
 1936W        W39430  29.287  29.629  17.305 -0.4064  0.1220 -0.3252
 1937W        W39431   9.930   6.460   6.581  0.0338  0.0736 -0.1682
 1938W        W39432  11.328   2.739  23.244  0.1619  0.0305 -0.3218
 1939W        W39433   5.668  31.871   9.628  0.0089  0.3315 -0.0504
 1940W        W39434   9.196   8.262   2.424 -0.2377 -0.1599 -0.0289
 1941W        W39435   0.218  12.139  19.362  0.1279  0.1420 -0.2611
 1942W        W39436   4.452   5.100   3.264  0.1724  0.0952  0.2453
 1943W        W39437  22.708  24.967  15.857 -0.1737  0.0118  0.2492
 1944W        W39438  30.742  33.503  21.541 -0.0876 -0.1260 -0.0193
 1945W        W39439  13.793  20.804  16.624 -0.0548 -0.0479 -0.3844
 1946W        W39440   2.848  28.945   2.196 -0.0768 -0.0014 -0.3322
 1947W        W39441  30.201  14.460   8.201  0.2294 -0.1708  0.0933
 1948W        W39442   1.276  24.823  20.311 -0.0948  0.3908 -0.0883
 1949W        W39443  23.011   1.890  21.452 -0.0699  0.2309  0.1233
 1950W        W39444  17.341   4.289  17.106  0.3158  0.2248  0.1035
 1951W        W39445  10.923   0.150  11.368 -0.0492 -0.2101 -0.1218
 1952W        W39446  14.108  31.691   0.713  0.3406 -0.1195  0.0790
 1953W        W39447   5.584  13.897   1.861 -0.1336 -0.0790 -0.1232
 1954W        W39448   5.169   2.350   4.320  0.1333 -0.1933 -0.0112
 1955W        W39449  22.388  18.043  18.574  0.2152  0.3264 -0.2497
 1956W        W39450   9.073   6.053  12.399  0.2089  0.2834  0.2222
 1957W        W39451  23.702  28.998  19.238  0.0360  0.0089  0.0104
 1958W        W39452   8.705  34.055   5.900  0.1206 -0.0366  0.1274
 1959W        W39453  21.982  29.872  21.425 -0.2567  0.1913  0.0406
 1960W        W39454  31.151  27.586   1.419  0.4141  0.2285 -0.3782
 1961W        W39455  22.312  20.189  18.524  0.3181  0.0104 -0.1468
 1962W        W39456  34.798  24.375  22.722  0.0361 -0.0333 -0.1002
 1963W        W39457  20.047  10.405   4.081 -0.0287 -0.5834  0.1280
 1964W        W39458  16.343  28.816  10.652 -0.1285  0.2958  0.2637
 1965W        W39459   5.460  18.771  23.537  0.0518 -0.0294  0.5359
 1966W        W39460   1.255   6.322  22.956  0.0000 -0.1781 -0.0226
 1967W        W39461  20.027  31.426  18.017  0.0124 -0.2077  0.1184
 1968W        W39462  34.254  13.077  24.269  0.2532 -0.0508 -0.0544
 1969W        W39463  25.757  19.432  18.576 -0.1498 -0.0841 -0.0216
 1970W        W39464   2.045  15.941  21.888 -0.1866  0.0674 -0.1226
 1971W        W39465   0.537  35.321   8.198  0.0120 -0.0241  0.1232
 1972W        W39466   8.381  34.183   0.346 -0.1076  0.0955  0.2750
 1973W        W39467  32.605  18.064  17.117  0.0022 -0.2701 -0.3368
 1974W        W39468  25.447  33.310  23.451 -0.0716  0.0757 -0.0031
 1975W        W39469  35.251   2.226  20.643 -0.1912  0.0098  0.1700
 1976W        W39470  31.443  34.343  16.421 -0.0847 -0.0027  0.2791
 1977W        W39471  23.415  22.549  19.418  0.1486 -0.6186 -0.0540
 1978W        W39472  10.883  18.902  20.919 -0.0632 -0.0563  0.0302
 1979W        W39473  22.934  25.664  18.335  0.0471  0.0779 -0.1186
 1980W        W39474  26.457  33.733  24.273 -0.0882  0.1479  0.0405
 1981W        W39475   4.233   2.564  24.419  0.2841  0.1303  0.3009
 1982W        W39476   8.550  31.099  25.574 -0.1887  0.2062 -0.0565
 1983W        W39477  12.981  10.645  10.482 -0.0555  0.0631 -0.2234
 1984W        W39478   9.792  26.260   5.161  0.0821 -0.1527 -0.2312
 1985W        W39479   8.645  30.938   4.679 -0.2056  0.0535 -0.2808
 1986W        W39480  15.713  25.223   1.494  0.0388 -0.2449 -0.2196
 1987W        W39481  27.836   1.347   5.229  0.1798  0.3668  0.0964
 1988W        W39482   1.141   8.503   2.169  0.1906  0.0355 -0.0563
 1989W        W39483   6.980   4.683  20.185  0.0097  0.0631  0.0309
 1990W        W39484   8.038  27.584   9.461  0.2473  0.2657 -0.0490
 1991W        W39485   0.213   9.568  19.554  0.0452 -0.0741  0.5297
 1992W        W39486  15.731   3.939   8.025  0.2041  0.1994  0.0566
 1993W        W39487  14.771  28.191  24.543  0.0678  0.1890 -0.2896
 1994W        W39488   3.721   4.313  21.240  0.1998 -0.1553 -0.3697
 1995W        W39489  15.400   6.833  23.357  0.1470 -0.3259  0.1283
 1996W        W39490   5.241  26.378  14.683  0.1718 -0.2295 -0.2484
 1997W        W39491  12.424  25.969  25.925 -0.1226 -0.0560 -0.2490
 1998W        W39492  16.034  12.588   0.307  0.3010 -0.0157 -0.1006
 1999W        W39493   2.342  14.719  16.279  0.0986 -0.0327 -0.0492
 2000W        W39494  34.784  26.165   0.872  0.0577  0.4769  0.0492
 2001W        W39495  21.794  31.238   6.225  0.0259  0.0567  0.1916
 2002W        W39496  18.190   5.018   5.408 -0.1628 -0.0628  0.2247
 2003W        W39497   8.741  20.342  23.950  0.3718 -0.0771  0.1046
 2004W        W39498   1.787  34.517   0.951  0.0081 -0.1502  0.0013
 2005W        W39499  20.669  33.060   5.779  0.3893  0.3163  0.1873
 2006W        W39500  19.755   1.665  19.223  0.2512  0.0003 -0.1715
 2007W        W39501   4.280   1.960   9.568 -0.1712  0.3232  0.0427
 2008W        W39502  18.054  20.480   4.284  0.1202  0.1304 -0.1277
 2009W        W39503  11.979  24.677  23.926  0.2203  0.0696 -0.4073
 2010W        W39504  22.296  29.146   2.421 -0.0731 -0.0503 -0.1304
 2011W        W39505  28.396   3.037  10.308 -0.0513 -0.1677 -0.3975
 2012W        W39506  13.504   0.141   1.262 -0.0935  0.1974  0.0513
 2013W        W39507   1.031  23.096   3.932  0.1151  0.0053 -0.1319
 2014W        W39508  21.790  24.948   2.377 -0.2392  0.3257 -0.1332
 2015W        W39509   7.047   8.054  21.504  0.0572 -0.1359 -0.0347
 2016W        W39510  25.133  22.662  16.296  0.0580  0.0665 -0.2973
 2017W        W39511  12.987  29.103  13.660  0.0142 -0.0038  0.0353
 2018W        W39512  35.360  32.486   2.731 -0.2920 -0.0526 -0.1754
 2019W        W39513  24.115  21.035  17.005  0.0075  0.1222  0.0903
 2020W        W39514  25.852  16.900  15.093 -0.2398  0.0280 -0.0282
 2021W        W39515  10.103   6.675   3.833  0.1272 -0.3118 -0.0737
 2022W        W39516  27.253  32.598  20.388 -0.1204 -0.0888  0.2971
 2023W        W39517  12.660   3.223  23.688 -0.0420  0.0540 -0.0657
 2024W        W39518  16.305  30.344  23.659 -0.0970  0.2405  0.1678
 2025W        W39519  34.850  26.996  22.314  0.1749  0.4044  0.0721
 2026W        W39520   2.695  10.689  23.148 -0.3622 -0.0306 -0.0256
 2027W        W39521   5.971  13.940   0.101  0.0509  0.1587  0.0667
 2028W        W39522  24.674  22.306  13.654 -0.0305 -0.2788  0.0747
 2029W        W39523   3.111  22.525   5.568 -0.1785 -0.1227 -0.1042
 2030W        W39524  23.775  22.291  22.726  0.0122 -0.0427  0.1147
 2031W        W39525  20.325   0.807   7.140 -0.1119 -0.4982  0.0544
 2032W        W39526  28.154  30.125  25.264  0.0823 -0.2268  0.1319
 2033W        W39527  33.987   7.019   0.382  0.2463  0.0344  0.0630
 2034W        W39528  30.695  33.617   1.620 -0.2681  0.2097  0.0765
 2035W        W39529   6.616  14.506   1.695  0.2581  0.0581 -0.2357
 2036W        W39530  35.017  12.212  18.990  0.5698  0.1102  0.0509
 2037W        W39531  19.779  12.206  24.996 -0.1249  0.3396 -0.1409
 2038W        W39532  31.841  10.068  21.672  0.3293  0.0350  0.1650
 2039W        W39533  16.426   5.185   6.556  0.0286 -0.4202  0.1157
 2040W        W39534  31.959  21.002  14.577 -0.1254 -0.0496 -0.2400
 2041W        W39535  25.388  15.188  18.859 -0.3192 -0.3934  0.3879
 2042W        W39536  28.210  17.749   8.458 -0.0646  0.0715 -0.1207
 2043W        W39537  17.745   6.715   0.336 -0.2090  0.1581  0.0661
 2044W        W39538  24.759  13.295  15.747  0.0932 -0.0036 -0.1147
 2045W        W39539  28.680  11.914  26.228  0.0615 -0.2923  0.1452
 2046W        W39540   0.932  17.976  20.800 -0.0294  0.1163 -0.0922
 2047W        W39541  14.512  29.799   1.523  0.1345 -0.0885  0.0171
 2048W        W39542  18.207   6.134  22.173 -0.1156 -0.0947  0.1809
 2049W        W39543   3.859  28.919  21.617  0.0702  0.0982 -0.0804
 2050W        W39544  20.116  11.692   2.987 -0.2235 -0.1682 -0.0130
 2051W        W39545  31.362  15.980  25.751 -0.2895  0.1670 -0.0654
 2052W        W39546  27.817   0.873   5.102  0.0208  0.0305  0.0375
 2053W        W39547   9.791   1.869   5.995 -0.1023  0.0012  0.1008
 2054W        W39548  33.683   1.782  19.345  0.5168  0.0052  0.1146
 2055W        W39549   1.109  21.985  19.471  0.0114  0.0609  0.0515
 2056W        W39550  30.619  33.637   0.394 -0.1159  0.1015  0.1245
 2057W        W39551  25.134  17.821  20.246  0.1228 -0.1500 -0.1934
 2058W        W39552  25.409  30.827  10.973  0.1736 -0.2330 -0.1581
 2059W        W39553  26.531  10.348   1.944  0.2233 -0.0597 -0.2811
 2060W        W39554  10.059  21.685   0.838 -0.3035 -0.3578 -0.0604
 2061W        W39555  23.813  28.973  19.715 -0.0550  0.1429 -0.2314
 2062W        W39556   6.082  35.208  14.259 -0.0968  0.2525 -0.2232
 2063W        W39557   9.097  31.007  13.570  0.0910 -0.0727 -0.1584
 2064W        W39558   2.159  13.206  17.292 -0.2276 -0.0595 -0.0877
 2065W        W39559  14.694  26.763   2.079  0.1289 -0.0289 -0.0223
 2066W        W39560   4.409   0.748  11.454 -0.1927  0.2217  0.1720
 2067W        W39561  27.401   1.036   1.169  0.0530  0.2676  0.1029
 2068W        W39562  21.182   2.429   5.631 -0.1543  0.1358  0.1785
 2069W        W39563  25.041  26.026  24.727 -0.1833  0.1557  0.2524
 2070W        W39564  20.649  25.610   1.531 -0.2193  0.1439 -0.2457
 2071W        W39565  17.144  35.002  21.461 -0.0748  0.0079  0.0445
 2072W        W39566  24.468  18.806   1.083 -0.1732  0.3405 -0.1012
 2073W        W39567  31.304  13.040   6.953  0.2470  0.1801  0.1069
 2074W        W39568  32.895  33.524   2.542  0.1028  0.0736 -0.1204
 2075W        W39569  25.778   2.333  21.941  0.2076  0.0510 -0.0146
 2076W        W39570  17.328  25.215   8.795  0.0189  0.2061  0.0770
 2077W        W39571   3.700  21.760  16.691 -0.1725  0.0717  0.4797
 2078W        W39572  28.389   1.430   3.587  0.1519 -0.2370 -0.0108
 2079W        W39573   7.992  31.300   4.222  0.0924  0.1351 -0.2268
 2080W        W39574  17.716  30.123   4.172 -0.0593  0.0098  0.0863
 2081W        W39575  25.047  35.328   0.384  0.1806 -0.2413 -0.1888
 2082W        W39576  19.025  34.423   5.212  0.0233 -0.1155  0.0833
 2083W        W39577  35.071  21.890   8.988 -0.1382  0.1148  0.1091
 2084W        W39578  27.076  14.103  18.880  0.0548  0.0902  0.1439
 2085W        W39579  33.877  18.637  21.104 -0.0052 -0.2298  0.1195
 2086W        W39580  10.786   3.142  20.890 -0.3224 -0.1352  0.1985
 2087W        W39581  27.980  34.111  18.880  0.0884  0.0445  0.2170
 2088W        W39582   2.670  22.950  25.313 -0.2514  0.1484  0.0015
 2089W        W39583  23.052  15.680  26.007  0.0398 -0.1210  0.0262
 2090W        W39584  18.419  10.070   2.998  0.2135 -0.1691 -0.1891
 2091W        W39585   2.331  22.267  13.265 -0.1520 -0.3815  0.1946
 2092W        W39586   0.690   7.074  20.252 -0.0997 -0.3175 -0.0954
 2093W        W39587  16.861  24.282  20.802  0.0161 -0.0243  0.2862
 2094W        W39588   8.552   2.415  12.469 -0.0521  0.0358 -0.0290
 2095W        W39589   7.605  33.133  23.042  0.0326 -0.4555  0.0822
 2096W        W39590  25.883  12.590  18.411 -0.1784 -0.1212 -0.1279
 2097W        W39591  27.845  29.719  14.121 -0.1315  0.0082 -0.1205
 2098W        W39592   0.087  28.028  16.754 -0.0981 -0.0388 -0.1497
 2099W        W39593   5.251  34.689  25.347 -0.0766 -0.2434 -0.0105
 2100W        W39594  13.543  28.321   1.221  0.1736  0.1754  0.3294
 2101W        W39595  24.228  28.974  11.442 -0.2542 -0.3054  0.2562
 2102W        W39596  10.319  13.847   3.166 -0.0006  0.4089  0.2293
 2103W        W39597   9.075  18.314  13.725 -0.0453 -0.0658  0.3012
 2104W        W39598  26.599   9.560  19.264  0.0065 -0.0371 -0.2072
 2105W        W39599  28.838  13.339   7.623  0.1109 -0.5013 -0.2615
 2106W        W39600  20.359  35.198  21.525 -0.2437  0.1643  0.0250
 2107W        W39601  29.650  33.803  14.756  0.3577  0.0738 -0.1857
 2108W        W39602  20.812  16.083   1.161  0.3178 -0.3569 -0.2554
 2109W        W39603  29.509  24.681  18.722 -0.0373  0.0430  0.1333
 2110W        W39604   1.384  28.866  25.054  0.2444 -0.1131  0.0509
 2111W        W39605  24.126   0.578   4.932 -0.4515  0.1272  0.1138
 2112W        W39606  18.818  31.949  19.806 -0.3834 -0.3016 -0.2567
 2113W        W39607  22.849  19.827  14.500  0.1947 -0.0390  0.0662
 2114W        W39608   5.726  19.725  19.968 -0.0699 -0.0266  0.1977
 2115W        W39609  24.541  11.037  19.387 -0.0513 -0.1815 -0.0798
 2116W        W39610  27.414  23.149   0.758  0.1851 -0.1824 -0.0101
 2117W        W39611  24.612  31.570  18.494 -0.0713  0.2330 -0.0386
 2118W        W39612   1.606  23.052  15.578 -0.0215  0.3786 -0.1468
 2119W        W39613  15.625  27.558  23.018  0.0990  0.2207  0.0991
 2120W        W39614  21.870  29.054  14.970  0.1169  0.0747 -0.0417
 2121W        W39615   5.532  11.334  22.424 -0.1607  0.0278 -0.1591
 2122W        W39616   1.046   6.581  25.300  0.0200  0.3704 -0.0257
 2123W        W39617   7.054   8.780   4.359 -0.0261 -0.1174 -0.0222
 2124W        W39618  28.292  29.360   9.479  0.2250  0.1435 -0.3243
 2125W        W39619  27.898  10.809  22.090 -0.0672 -0.0845  0.0433
 2126W        W39620  10.110  29.185   1.845 -0.3795  0.0855  0.0504
 2127W        W39621  31.549  24.088  13.040 -0.0670  0.0758 -0.0156
 2128W        W39622  26.042  12.265  12.869 -0.1256 -0.2554  0.1676
 2129W        W39623  11.019   3.486   9.446  0.2979  0.2301  0.1187
 2130W        W39624  26.275  12.695  14.016  0.1481 -0.1133 -0.1251
 2131W        W39625  32.343  20.899  20.816  0.3736 -0.0504  0.3392
 2132W        W39626   6.066   9.310   6.302  0.0316  0.0971  0.1239
 2133W        W39627  20.368   7.517  24.430 -0.1009 -0.1033  0.3027
 2134W        W39628  11.354   4.609   6.643 -0.1995 -0.1187  0.0574
 2135W        W39629  23.724  27.818   4.091 -0.2467  0.0749 -0.0083
 2136W        W39630   2.678  17.474   1.625 -0.0746  0.3021  0.2708
 2137W        W39631  26.499  15.254  10.294 -0.0099 -0.1349  0.1324
 2138W        W39632  20.802  23.707  16.617  0.0253  0.1214 -0.1402
 2139W        W39633  33.897  21.196  14.549  0.4274 -0.1375  0.1694
 2140W        W39634   2.677   6.008  21.405  0.3889 -0.0881 -0.1280
 2141W        W39635   0.235  25.857   1.905 -0.3636 -0.3037 -0.0010
 2142W        W39636  22.243  32.333  24.833 -0.3443  0.3067  0.1907
 2143W        W39637  33.721  12.216  10.422  0.0130  0.0475 -0.1260
 2144W        W39638  20.106  11.026   7.109 -0.0364 -0.5199 -0.0947
 2145W        W39639  32.428  26.242   1.076 -0.1307  0.1822  0.2684
 2146W        W39640  24.876  35.081  26.163  0.3687 -0.2558 -0.0099
 2147W        W39641   5.547  10.593  25.545  0.1068 -0.0908  0.0235
 2148W        W39642  21.816   9.267  24.257  0.2352 -0.0146  0.2119
 2149W        W39643  28.402   0.984  12.921 -0.0214  0.2271 -0.2956
 2150W        W39644  23.158  26.779  25.139  0.2392 -0.0600  0.2986
 2151W        W39645  19.418  32.209  21.069  0.1640  0.0188  0.1403
 2152W        W39646  23.221   6.021  14.372  0.2240  0.1584  0.3125
 2153W        W39647  17.839  29.549  20.233 -0.1472 -0.0228 -0.1172
 2154W        W39648  15.412  18.314   7.827 -0.0220  0.0770 -0.2907
 2155W        W39649  26.550  26.000  24.936  0.0205  0.1923 -0.0328
 2156W        W39650  20.319   3.137  14.689  0.0199  0.2001 -0.2684
 2157W        W39651   0.295   1.336   5.937  0.3284  0.3173  0.4738
 2158W        W39652  23.262   5.159  20.340 -0.3527 -0.0317 -0.3494
 2159W        W39653  16.360   9.033  21.486 -0.1536 -0.1626 -0.1307
 2160W        W39654  31.223  17.002  13.572  0.0082 -0.0911  0.0533
 2161W        W39655   5.172  26.708   2.753  0.4731 -0.2443 -0.0033
 2162W        W39656  19.280  28.846  19.807 -0.3724 -0.0263  0.2955
 2163W        W39657   1.181   3.721   5.796  0.0979 -0.1065 -0.0938
 2164W        W39658  13.946  27.057   0.885  0.2496 -0.1274 -0.1806
 2165W        W39659  15.524  14.080   1.745  0.1593 -0.1790  0.0474
 2166W        W39660   3.763   3.496   1.120 -0.2840 -0.0727 -0.0476
 2167W        W39661   5.964  17.177   6.634 -0.1302  0.1780 -0.2306
 2168W        W39662  28.203  17.783   5.870  0.1064 -0.1428  0.4209
 2169W        W39663  23.515  35.103   7.029  0.2647  0.2289  0.0675
 2170W        W39664   1.000  21.010  24.384  0.2310 -0.2110  0.2979
 2171W        W39665   5.037  13.516  24.388 -0.0722 -0.0726 -0.1854
 2172W        W39666  22.168  23.729  13.913 -0.0028 -0.1889  0.1510
 2173W        W39667  34.230  11.184   0.375 -0.2229  0.1815  0.3178
 2174W        W39668  13.415  20.826  24.319 -0.0209  0.0191  0.3417
 2175W        W39669  13.448  23.596  10.975 -0.1431  0.2527  0.1594
 2176W        W39670  19.624  12.980   5.015  0.0852 -0.0490  0.0429
 2177W        W39671  25.068  11.797  15.665  0.3134 -0.0106 -0.0075
 2178W        W39672  20.079  17.509   2.553 -0.0882 -0.2640 -0.0170
 2179W        W39673  31.275  32.968  16.366 -0.0869 -0.1794 -0.3468
 2180W        W39674   8.381  22.042  21.262  0.0547  0.1089 -0.0442
 2181W        W39675  19.723   2.781   1.887  0.0351 -0.1216 -0.1525
 2182W        W39676  20.386  29.678  18.275  0.1661 -0.1077  0.0838
 2183W        W39677  33.496   2.777  21.346  0.1108 -0.0103  0.2970
 2184W        W39678   3.467   5.734  21.053 -0.3379 -0.2498 -0.0537
 2185W        W39679  26.735  18.831  17.027 -0.2209  0.0488  0.0094
 2186W        W39680  27.419   8.004  25.571  0.1860 -0.0315 -0.1355
 2187W        W39681  32.389  23.355  13.977 -0.2734  0.1093 -0.1213
 2188W        W39682   6.083  24.156   2.966 -0.2486 -0.3170  0.4039
 2189W        W39683   9.915  12.939  18.716  0.3996  0.0090 -0.0609
 2190W        W39684  14.265  29.294  23.510  0.0678 -0.2092 -0.2051
 2191W        W39685  20.960  31.195  22.111 -0.0285  0.1829 -0.0606
 2192W        W39686   8.251  35.293   3.183  0.0922  0.0500 -0.2437
 2193W        W39687  27.723  12.606  15.861  0.1243 -0.5375 -0.1070
 2194W        W39688  11.906  17.710  11.313 -0.0302  0.4337  0.2510
 2195W        W39689  26.589  11.492  21.085  0.1970 -0.1957 -0.1475
 2196W        W39690   9.433  30.648   4.710 -0.0828  0.2993  0.0702
 2197W        W39691  27.446   1.869  25.728 -0.0858  0.0266 -0.4042
 2198W        W39692  29.011  16.700   4.838 -0.0757  0.0763 -0.0404
 2199W        W39693  29.795  28.008  23.249  0.2790 -0.2823 -0.1491
 2200W        W39694   4.929  24.684   6.820  0.0009 -0.1053  0.1720
 2201W        W39695  35.035  28.428   4.262  0.1215 -0.0298 -0.0725
 2202W        W39696   7.824  16.653  23.354  0.0719 -0.0494 -0.0781
 2203W        W39697  25.254  10.992  16.283  0.1505 -0.0156 -0.0033
 2204W        W39698   9.718  25.990  12.222 -0.1575 -0.1483  0.2011
 2205W        W39699  28.937   2.452   2.885  0.1507 -0.0997  0.1287
 2206W        W39700   0.372  22.966   2.039 -0.0127  0.0125  0.2839
 2207W        W39701  15.285  10.777  13.853  0.1263  0.3060 -0.2445
 2208W        W39702  21.624  10.854   4.094 -0.0602  0.0310 -0.0361
 2209W        W39703   3.348   7.931   4.915 -0.3688 -0.0020  0.0575
 2210W        W39704  30.415  25.658  13.557 -0.4208 -0.1463 -0.2631
 2211W        W39705  10.661  29.135  16.640 -0.1855  0.1296 -0.0469
 2212W        W39706   0.336   0.703  23.198 -0.0978  0.3429 -0.0910
 2213W        W39707  11.900   3.181  11.042  0.2474  0.2631  0.1735
 2214W        W39708  32.049   0.649   1.755  0.3345 -0.2826  0.0635
 2215W        W39709  26.907  12.550  11.692  0.1969  0.1942 -0.0210
 2216W        W39710  21.967  11.111  20.192  0.0293  0.2227  0.0101
 2217W        W39711  20.994  24.112   0.751  0.1457  0.0165  0.3017
 2218W        W39712  14.853  19.395  11.894  0.0104 -0.1071  0.3612
 2219W        W39713  30.459  32.470  12.452  0.2177 -0.2747 -0.0639
 2220W        W39714  26.712  11.360  12.537 -0.0963 -0.2355 -0.0235
 2221W        W39715   6.345   9.191  20.564 -0.0935 -0.3349  0.2010
 2222W        W39716  32.118   5.936  13.341 -0.0526  0.3067  0.0361
 2223W        W39717   5.386  28.091   5.941  0.0849  0.0510  0.0157
 2224W        W39718  10.764   6.128  10.306  0.0709 -0.2794  0.1539
 2225W        W39719  10.884  10.433   9.757  0.0415 -0.0520  0.0471
 2226W        W39720   2.078  15.146  22.979 -0.2678 -0.0824 -0.4387
 2227W        W39721  13.074  10.712  23.029 -0.1097 -0.0333 -0.1716
 2228W        W39722  14.960  30.603  21.759  0.1366  0.4992 -0.0546
 2229W        W39723  24.437  19.013  17.421 -0.2307 -0.0226 -0.3272
 2230W        W39724  31.691   7.002  21.933  0.0846 -0.1824 -0.0937
 2231W        W39725  19.403  22.658  21.279  0.0828 -0.0120  0.2977
 2232W        W39726  12.142  34.677  22.304 -0.0301  0.1943  0.3554
 2233W        W39727  27.250   1.155  15.196 -0.0322 -0.1741 -0.1972
 2234W        W39728  16.790   2.743   1.739  0.1740 -0.3763 -0.2436
 2235W        W39729  11.537  28.830   4.050 -0.1862 -0.2066  0.0041
 2236W        W39730  18.429  10.797  10.971  0.1795  0.0167  0.3133
 2237W        W39731  35.078  21.438  21.386 -0.1024  0.2284  0.1313
 2238W        W39732   4.906  32.442  12.053  0.0866 -0.0015 -0.1256
 2239W        W39733  15.095  28.413   4.080  0.1533 -0.1546 -0.0017
 2240W        W39734  20.044  12.831   9.052  0.0867  0.3930 -0.0310
 2241W        W39735  19.413  10.439  21.432  0.4599  0.0259  0.3009
 2242W        W39736  17.747  26.558   8.539 -0.0027 -0.0692  0.1879
 2243W        W39737   3.417  33.796  10.587  0.2120 -0.1455 -0.0649
 2244W        W39738  31.449  29.308  17.069  0.2841  0.1663  0.1930
 2245W        W39739  30.696   8.482   7.809  0.3210 -0.1291 -0.0157
 2246W        W39740  29.316  34.721   4.830  0.0373  0.2074  0.2523
 2247W        W39741  30.022   9.094  19.922  0.4494 -0.1107 -0.0290
 2248W        W39742  25.327  10.631   0.344  0.1875  0.0686 -0.0274
 2249W        W39743  18.125  17.236  24.383 -0.1133 -0.2330 -0.1712
 2250W        W39744  16.855  21.842  20.343 -0.0416 -0.2065 -0.0668
 2251W        W39745  35.228  29.910  18.027  0.0099 -0.0183  0.0873
 2252W        W39746  32.692  32.037  15.378 -0.0432 -0.1531 -0.0283
 2253W        W39747  31.982  10.426  18.268 -0.0285 -0.1274  0.2111
 2254W        W39748   1.882   6.876   4.153  0.1388 -0.0051 -0.1939
 2255W        W39749  16.289  29.451   4.782  0.1040  0.1859 -0.1457
 2256W        W39750   2.575  25.358   3.268 -0.2698  0.0808 -0.1848
 2257W        W39751   3.954  26.276   7.377 -0.1163 -0.0143 -0.0987
 2258W        W39752  16.839  16.584  25.264  0.3501  0.2821 -0.1044
 2259W        W39753  29.625  21.299  12.133  0.1738  0.0514 -0.4936
 2260W        W39754  27.003  22.340  21.972 -0.0822 -0.1512  0.2330
 2261W        W39755  12.712  29.115   4.881 -0.2513 -0.0444  0.0655
 2262W        W39756  19.446   4.584   3.396  0.0300  0.2045 -0.1008
 2263W        W39757  17.695  21.380   7.809  0.1062 -0.0657 -0.0509
 2264W        W39758  26.184  12.732  17.144 -0.0412 -0.2421  0.0691
 2265W        W39759  15.699  26.208   1.639 -0.1146 -0.0728 -0.0387
 2266W        W39760  31.651  34.940  25.424  0.3186  0.1312 -0.0453
 2267W        W39761   1.417  30.774  24.892  0.2855 -0.0893  0.1180
 2268W        W39762   6.862  10.669  19.584  0.1806  0.0492 -0.1769
 2269W        W39763  33.060  15.007  19.371  0.0521  0.1075 -0.0953
 2270W        W39764  33.688   4.984  12.790  0.2330 -0.0366 -0.0780
 2271W        W39765   0.197  12.198   2.966 -0.2760  0.0748  0.0354
 2272W        W39766  19.328   9.808  25.938 -0.1612 -0.1438  0.1290
 2273W        W39767   8.728   7.850  11.941 -0.1455 -0.1219 -0.1002
 2274W        W39768  34.702  22.360  11.570  0.3115  0.1633  0.0894
 2275W        W39769   9.423  22.759   0.314 -0.0265  0.0081  0.0868
 2276W        W39770  34.533  29.983   2.306 -0.1198  0.0824 -0.2195
 2277W        W39771   9.616  26.914   8.690  0.1095  0.1078  0.1793
 2278W        W39772   8.792   6.285  20.795 -0.0361 -0.0027  0.2013
 2279W        W39773  12.467  11.072  23.041 -0.3355  0.0165 -0.0065
 2280W        W39774  23.311   0.136   4.788 -0.2394 -0.1149  0.0308
 2281W        W39775  22.376  24.646  22.327  0.4035 -0.2108  0.5547
 2282W        W39776  25.922   4.580  15.797 -0.1194 -0.2281  0.0777
 2283W        W39777   8.940   0.425   4.685  0.1086 -0.1077 -0.0845
 2284W        W39778   4.428   0.504  20.370  0.1952  0.0250  0.1105
 2285W        W39779  27.920  19.794  23.148 -0.2125 -0.0264  0.3816
 2286W        W39780  33.785  29.888   3.867  0.2208  0.4051  0.3021
 2287W        W39781   6.797   3.393  20.890 -0.1510 -0.1562 -0.0343
 2288W        W39782  17.870  12.019  21.439  0.0141 -0.1154  0.1559
 2289W        W39783  32.662   5.503  13.754 -0.0090  0.1902 -0.1590
 2290W        W39784  32.514  29.975  25.527  0.0661  0.1447 -0.2631
 2291W        W39785   0.239  30.663  18.179 -0.1847  0.3425 -0.1568
 2292W        W39786  23.610  28.543  25.172 -0.0983  0.0264 -0.0826
 2293W        W39787  12.758  33.132   6.197  0.0927 -0.0965  0.1642
 2294W        W39788  20.909  10.034  24.985 -0.0844  0.1857  0.3168
 2295W        W39789  25.417  25.762   1.731 -0.1199  0.0222  0.0855
 2296W        W39790   6.427   8.129  11.436 -0.1241  0.1475 -0.2715
 2297W        W39791  23.326   4.117   6.067 -0.0340 -0.0933  0.2262
 2298W        W39792   5.666  15.955   8.880 -0.1856 -0.0217 -0.2842
 2299W        W39793   4.411  31.419  13.622 -0.0986 -0.0554  0.1251
 2300W        W39794  13.037  21.680   4.807  0.1794 -0.0389 -0.3445
 2301W        W39795   7.387   7.233  22.914  0.3087 -0.2839  0.1392
 2302W        W39796  10.339   9.916  22.149 -0.1317  0.2468 -0.1270
 2303W        W39797  19.585  34.129  14.775  0.1344 -0.0127 -0.2247
 2304W        W39798   6.667  14.895   5.287 -0.1768 -0.1486  0.1478
 2305W        W39799   1.528  11.082   3.680  0.0925  0.0151 -0.0149
 2306W        W39800  30.134  13.235  16.142 -0.1367 -0.1703 -0.0026
 2307W        W39801  12.279  33.287   5.262 -0.1741  0.3869  0.3235
 2308W        W39802   8.783  14.591  23.521 -0.2011 -0.3578  0.3378
 2309W        W39803  13.475  32.394  10.624  0.2618  0.2808 -0.0781
 2310W        W39804   1.205  34.038  16.432  0.0281 -0.1209  0.0980
 2311W        W39805  15.729  13.503   7.984 -0.0473 -0.3904  0.1387
 2312W        W39806  20.527   2.298   0.596 -0.1957  0.1768  0.2699
 2313W        W39807   2.674   5.160   3.339 -0.0698 -0.1268 -0.0949
 2314W        W39808   4.206  15.274   5.658  0.4237 -0.2479  0.0304
 2315W        W39809   1.595  13.098   1.060 -0.0985  0.3269 -0.3002
 2316W        W39810  25.560  15.325  23.931 -0.3938  0.1843  0.1468
 2317W        W39811  33.658  22.505  10.888  0.1099 -0.2080 -0.2753
 2318W        W39812  11.736  32.770  13.783 -0.0858  0.2040  0.0604
 2319W        W39813  18.567  24.971  23.943  0.0766 -0.1743 -0.2064
 2320W        W39814   3.556  19.111   4.275  0.1726  0.3112 -0.2474
 2321W        W39815  22.951  31.300  21.877 -0.1829  0.3521  0.1421
 2322W        W39816  10.319  27.810  24.616 -0.0148  0.0575  0.0278
 2323W        W39817   6.036  16.415  25.316  0.3315  0.1501 -0.0213
 2324W        W39818  26.906   0.460   2.914 -0.0648  0.1514 -0.0718
 2325W        W39819  21.300  35.240   0.491 -0.2442  0.1255  0.2037
 2326W        W39820  31.486  13.658   9.079  0.0740  0.1189  0.1031
 2327W        W39821  18.459  24.625  22.104  0.1941  0.2628  0.0283
 2328W        W39822  35.301  22.735   1.082  0.0153  0.0081 -0.1022
 2329W        W39823  13.040  21.316   9.385  0.3148 -0.2075  0.0250
 2330W        W39824  10.142  11.655  20.492 -0.0949 -0.1133 -0.0214
 2331W        W39825  10.915  12.449  21.555  0.3176 -0.1168 -0.0414
 2332W        W39826  21.755  28.724  14.318  0.1955  0.1035 -0.0449
 2333W        W39827  18.675  12.103  22.097  0.1725 -0.0009 -0.0019
 2334W        W39828  30.230  31.347   5.026  0.1560  0.0649 -0.1886
 2335W        W39829   7.943  14.897   4.835 -0.0787  0.1747  0.0348
 2336W        W39830   3.326   8.480   0.834 -0.0389  0.1926  0.0978
 2337W        W39831  11.096  33.844  25.312  0.1476  0.3288  0.4325
 2338W        W39832  33.086  11.354  12.139 -0.0771 -0.1293 -0.0485
 2339W        W39833  31.502   9.493   7.913  0.2122 -0.2412  0.1107
 2340W        W39834  17.128  23.959  10.130  0.4027 -0.1560 -0.2227
 2341W        W39835  10.309  23.100   5.900 -0.1690  0.0335  0.0529
 2342W        W39836   2.095  11.617  14.427 -0.0790  0.1051 -0.3586
 2343W        W39837  22.808  21.104  15.619  0.0012  0.1054  0.0668
 2344W        W39838   6.607  22.996   1.154 -0.1260 -0.0681 -0.0760
 2345W        W39839   5.076  24.264   8.335 -0.2050 -0.1610  0.1599
 2346W        W39840   7.127  25.331   0.293 -0.1514 -0.0453  0.0665
 2347W        W39841  15.853   8.303   3.464  0.1807 -0.1282 -0.0867
 2348W        W39842   9.577  12.427  20.392  0.2720 -0.0098  0.0563
 2349W        W39843  16.767  26.247   8.148 -0.3475  0.2191  0.1178
 2350W        W39844   2.066   3.765   3.539  0.0227 -0.0615 -0.1143
 2351W        W39845   0.391   7.504  14.196  0.0008  0.1617  0.1782
 2352W        W39846   4.914  30.345   7.730 -0.0005  0.2195  0.0018
 2353W        W39847  33.593  31.029  18.888  0.1512 -0.2006 -0.1315
 2354W        W39848  29.109  17.121  26.118 -0.1457 -0.0273  0.0901
 2355W        W39849  14.241  12.859   6.505 -0.1708 -0.0301 -0.1136
 2356W        W39850   9.153   3.130  20.213  0.2407 -0.0492 -0.0427
 2357W        W39851  25.147   9.841   2.185  0.2047  0.0524  0.0439
 2358W        W39852   2.910  18.337  19.375  0.0461 -0.2967 -0.1296
 2359W        W39853   8.756  26.788  16.801 -0.1342 -0.0725  0.1355
 2360W        W39854  27.109   6.399   2.958  0.2807  0.1303  0.0446
 2361W        W39855   6.195  17.782  24.875  0.1833 -0.2261 -0.0845
 2362W        W39856   9.295  15.377   9.027 -0.3001 -0.0074 -0.0156
 2363W        W39857  24.483   3.063  17.654  0.0169  0.0190 -0.1801
 2364W        W39858  34.794  24.293  20.696  0.0594  0.2945  0.1235
 2365W        W39859   7.147   7.645   1.828  0.1062  0.1760  0.0131
 2366W        W39860  13.849  27.165   2.273 -0.2761  0.0275 -0.2863
 2367W        W39861   2.178  16.609  14.522  0.0505 -0.0174 -0.0083
 2368W        W39862  34.758  12.728  13.587  0.1607  0.1011  0.0005
 2369W        W39863  20.139  26.594  17.457  0.0522  0.2257 -0.0305
 2370W        W39864  34.486   7.095  16.394  0.2401 -0.0957 -0.0442
 2371W        W39865  23.774   0.739  16.136  0.0399 -0.1605 -0.0159
 2372W        W39866  11.485   9.539  13.312 -0.1749 -0.2041 -0.1180
 2373W        W39867   7.325   4.115   6.370 -0.3929 -0.0994  0.1613
 2374W        W39868  13.382  10.658   4.574  0.1922  0.0009 -0.0367
 2375W        W39869  20.654  28.255  20.597 -0.0902  0.0289 -0.3413
 2376W        W39870   9.619  32.080  13.069  0.0669  0.2051  0.0170
 2377W        W39871   9.675  22.410  10.408  0.0371 -0.2436 -0.0388
 2378W        W39872  25.463   2.699  15.723 -0.2336 -0.0015 -0.0992
 2379W        W39873  12.951  22.008   4.468 -0.1574  0.3228  0.1055
 2380W        W39874   2.922   3.094   6.463  0.0600 -0.1131 -0.2750
 2381W        W39875  22.793  33.415   2.683  0.1031 -0.3403  0.0890
 2382W        W39876  31.119  11.534  21.984  0.1156  0.0125 -0.0217
 2383W        W39877   2.981   0.503  17.295 -0.1752 -0.0578 -0.1382
 2384W        W39878   8.425  21.172   5.919 -0.0487 -0.1024  0.2817
 2385W        W39879  17.919  25.624   0.595 -0.0716  0.1462  0.1339
 2386W        W39880   1.516  11.558   2.799  0.1623 -0.1757  0.0887
 2387W        W39881  31.770  21.478  14.465  0.1834 -0.2815  0.0353
 2388W        W39882   5.948  20.248   8.295  0.0052  0.2906 -0.3178
 2389W        W39883   1.986  32.248   2.663 -0.0108 -0.2886 -0.2478
 2390W        W39884   1.013  27.629  22.519  0.0050  0.0174 -0.0344
 2391W        W39885   2.319  11.380  26.031  0.1146  0.0194 -0.1089
 2392W        W39886  20.599  29.056  19.071  0.1044  0.3166 -0.0485
 2393W        W39887  10.689   7.277   5.933  0.1264  0.3303 -0.2118
 2394W        W39888  22.106  12.479   3.356  0.0150 -0.1172 -0.1032
 2395W        W39889  31.213   6.712   9.847 -0.0869 -0.3212  0.3546
 2396W        W39890  29.220   6.355  18.047 -0.2349 -0.1331  0.3082
 2397W        W39891  26.049  13.071  18.443 -0.1704  0.2046  0.1000
 2398W        W39892  26.447   8.695   1.678 -0.2002  0.0435 -0.0358
 2399W        W39893  34.895   6.793   4.332 -0.1237  0.0553  0.0430
 2400W        W39894   5.247  25.074  10.278 -0.0244  0.2002  0.2050
 2401W        W39895   0.378  21.522   9.172  0.3078 -0.2406  0.2289
 2402W        W39896  32.126  11.447  23.404  0.1706 -0.0289  0.1467
 2403W        W39897  17.632  21.364  14.254  0.1646 -0.1600 -0.1327
 2404W        W39898  23.105  17.586  17.821 -0.1180 -0.1971 -0.0532
 2405W        W39899  32.864   5.831  19.813  0.1131 -0.1282  0.0184
 2406W        W39900   7.872  16.477  18.953  0.0543  0.0013 -0.2861
 2407W        W39901  27.786   8.740  16.273 -0.3731 -0.1364 -0.3273
 2408W        W39902  33.457  31.183  16.799  0.0505  0.4076 -0.1796
 2409W        W39903   7.958  24.418  10.533  0.1828 -0.0672 -0.2697
 2410W        W39904  28.625  34.321   3.428 -0.1089  0.0824 -0.5571
 2411W        W39905  10.405   7.909  12.330 -0.0363 -0.0022 -0.1386
 2412W        W39906  21.390  26.569   3.444 -0.1824 -0.0510  0.0779
 2413W        W39907  34.797  14.535  20.356  0.2583 -0.2954 -0.0403
 2414W        W39908  13.805   1.234   5.302 -0.2345  0.4048 -0.2137
 2415W        W39909  10.648   8.468  24.892  0.1124  0.0418 -0.0060
 2416W        W39910  17.956  16.363   4.657 -0.0310 -0.1702  0.3060
 2417W        W39911  11.601  25.386  16.706  0.1543  0.1103 -0.1277
 2418W        W39912  12.571   2.727  23.510  0.0605 -0.0494  0.1706
 2419W        W39913  16.933   2.837  19.354  0.0423  0.1197 -0.4495
 2420W        W39914  22.278  23.061  19.486  0.1862 -0.0576  0.0206
 2421W        W39915  13.576  22.871  14.500 -0.0152 -0.1622  0.0697
 2422W        W39916  16.261   6.356   8.467 -0.1188  0.1032  0.1069
 2423W        W39917  21.181  21.541   6.143  0.0028 -0.0568  0.2369
 2424W        W39918  13.139   9.091  25.135 -0.1121  0.0133 -0.0173
 2425W        W39919  17.697  10.613  22.489 -0.0626  0.3156  0.0990
 2426W        W39920  13.591   0.436   7.994 -0.0089  0.1944 -0.2372
 2427W        W39921  24.738   8.407  13.432 -0.2827 -0.0568 -0.0554
 2428W        W39922   7.262  26.821   7.113 -0.3366 -0.0031 -0.0668
 2429W        W39923  22.716  11.912  19.284 -0.1218 -0.1163 -0.1612
 2430W        W39924  25.442   2.607   0.607  0.1283  0.4605  0.1890
 2431W        W39925  13.876  29.014   6.413 -0.1665 -0.2341 -0.0906
 2432W        W39926   8.102   1.671   2.851 -0.1645 -0.1974 -0.0373
 2433W        W39927   5.814  27.160  24.290  0.0597  0.0046 -0.0245
 2434W        W39928  30.706  34.595   4.891  0.0075 -0.2913 -0.1687
 2435W        W39929   7.678  24.216   8.155 -0.1497 -0.2426 -0.1037
 2436W        W39930  21.788  23.534  21.065 -0.0716  0.0155 -0.0415
 2437W        W39931   0.874   7.680   2.763 -0.2225  0.3382 -0.0031
 2438W        W39932  12.165  14.682   5.229  0.3928 -0.1262  0.0228
 2439W        W39933  10.311  13.543   7.937 -0.0171 -0.2444  0.2662
 2440W        W39934  17.721   0.321  24.035  0.4974 -0.2505  0.0238
 2441W        W39935  11.001  34.645   1.817 -0.1488 -0.2826  0.3023
 2442W        W39936  22.591  23.510  15.717  0.2063  0.0696 -0.1045
 2443W        W39937  32.947  21.551  19.706  0.2616 -0.0095  0.0114
 2444W        W39938  17.858  27.664   5.162  0.2051  0.0015  0.2013
 2445W        W39939   8.254  22.961  24.238  0.0904 -0.2349 -0.2301
 2446W        W39940  10.013   3.421   4.800  0.0102 -0.0268  0.1769
 2447W        W39941  19.501  30.462  23.606  0.0945  0.0300 -0.1704
 2448W        W39942   4.101  33.342  25.903  0.3863 -0.1988  0.2353
 2449W        W39943  15.143  31.599  22.530  0.0191 -0.1534 -0.0589
 2450W        W39944  12.657  21.134  21.900  0.0961 -0.1688  0.1410
 2451W        W39945   3.636  17.085  24.695  0.0090 -0.1566 -0.1091
 2452W        W39946  16.245   3.018  10.403  0.2612  0.1815  0.3675
 2453W        W39947  29.699  17.338  20.992 -0.1640  0.1371 -0.0223
 2454W        W39948   3.542  19.754  22.313 -0.3110 -0.0609  0.0942
 2455W        W39949   9.422  20.985  12.023 -0.0055 -0.1161  0.2220
 2456W        W39950   4.977  14.420  23.675  0.3189  0.2705  0.2065
 2457W        W39951  17.710  14.981   9.751  0.1909  0.2223 -0.0660
 2458W        W39952   3.881   8.506  18.890 -0.0306  0.2317 -0.2239
 2459W        W39953  14.756  27.287   7.745  0.0375  0.1066 -0.0605
 2460W        W39954  18.967  15.037   3.016 -0.0662 -0.2132 -0.1285
 2461W        W39955  30.398  23.381  21.800 -0.2354  0.1845 -0.0862
 2462W        W39956  15.274   8.775  12.136  0.2917  0.1444  0.0674
 2463W        W39957  20.027   3.533  21.077  0.3302  0.0979  0.0593
 2464W        W39958  29.312  20.615  12.304  0.2467  0.1240  0.1071
 2465W        W39959  20.378  23.769   3.205  0.0821  0.0822  0.1528
 2466W        W39960  30.823  21.177  16.074 -0.1663  0.3329  0.2186
 2467W        W39961   0.756   0.078  19.234  0.0731 -0.0627 -0.2357
 2468W        W39962  26.287  14.589   7.676 -0.2372  0.0905 -0.0071
 2469W        W39963   1.234  29.402  26.223  0.0257  0.2734 -0.1086
 2470W        W39964   1.101  24.619  18.264  0.4309 -0.2348 -0.2212
 2471W        W39965  29.419  29.165   4.518 -0.0346 -0.0234  0.0629
 2472W        W39966  12.408  26.839  10.115  0.0360  0.2814 -0.1530
 2473W        W39967  11.555  17.251  20.297 -0.0778 -0.0516 -0.1777
 2474W        W39968  25.387  31.764  13.950  0.1211 -0.2310  0.2822
 2475W        W39969  24.744  27.205  11.487 -0.1718  0.2084  0.3719
 2476W        W39970  12.998   7.821  25.516  0.0387 -0.2057  0.0566
 2477W        W39971  23.941   4.812   2.273 -0.1490 -0.0109 -0.1231
 2478W        W39972  19.079   0.393   9.672 -0.0884 -0.0716  0.0328
 2479W        W39973   1.413  10.762  16.446 -0.0463 -0.2053 -0.1691
 2480W        W39974   2.808   2.523   8.780 -0.3876  0.0260  0.0485
 2481W        W39975  33.449  20.779  16.661  0.1772 -0.0425 -0.0830
 2482W        W39976   3.072  10.865  14.907 -0.3624 -0.1635 -0.2021
 2483W        W39977   1.147  24.035  16.259  0.0268 -0.0914 -0.0305
 2484W        W39978   4.261  15.620  15.335 -0.2026  0.1028  0.3330
 2485W        W39979  22.223  25.012  20.359  0.3716 -0.0916 -0.2586
 2486W        W39980   5.130  32.031  26.105 -0.4296 -0.1328  0.0864
 2487W        W39981   7.774  20.359   3.188 -0.3232  0.3071 -0.2553
 2488W        W39982  23.873   3.101   6.824 -0.0206  0.0203  0.1507
 2489W        W39983  11.975  14.028   3.766 -0.0465 -0.0405  0.0305
 2490W        W39984  26.779   3.732  20.441 -0.0391 -0.1281 -0.1013
 2491W        W39985  30.010  10.346  12.341  0.2863 -0.0602  0.0375
 2492W        W39986  19.660   5.937  19.463  0.1183  0.2246 -0.2454
 2493W        W39987  10.472  33.480  13.217  0.0562  0.1109  0.1948
 2494W        W39988  25.496  13.917  22.022 -0.0076  0.0419  0.0955
 2495W        W39989  21.241   4.147   7.194 -0.0045  0.0017  0.0176
 2496W        W39990  22.524   5.656  21.125  0.2507 -0.3503  0.3769
 2497W        W39991   3.763  15.227   0.338  0.2176 -0.0448 -0.0911
 2498W        W39992  15.355  20.627   8.688 -0.1290 -0.0234  0.0179
 2499W        W39993  30.005  19.415  19.701  0.0585 -0.1700  0.1200
 2500W        W39994  31.459   5.783   4.499 -0.0575  0.4658  0.0381
 2501W        W39995  27.509  11.553  21.359 -0.0529  0.1147  0.3141
 2502W        W39996  11.692  10.878  10.763 -0.1001  0.1312 -0.0393
 2503W        W39997  17.205  19.768   9.618 -0.1247 -0.1720  0.1625
 2504W        W39998  14.665  10.635  22.380  0.0053 -0.1221 -0.1926
 2505W        W39999  23.616   2.891  21.102  0.0544  0.0449 -0.2293
 2506W        W40000  13.313  14.736   6.616 -0.3127 -0.1765  0.1567
 2507W        W40001  20.694  24.103  25.182  0.1521  0.2954 -0.1311
 2508W        W40002  32.184  31.608  13.233  0.0412 -0.3633  0.0608
 2509W        W40003  27.783   1.348   2.054 -0.0400  0.4131  0.1527
 2510W        W40004  11.166  14.858   7.245 -0.1798  0.1706  0.0692
 2511W        W40005  12.667  23.962   6.654 -0.0471  0.1624 -0.1072
 2512W        W40006  23.990  10.638  15.436  0.0610  0.0288  0.0265
 2513W        W40007  14.726  22.091  16.225 -0.1064  0.1605 -0.0572
 2514W        W40008  22.856  17.868  14.033  0.0301 -0.0555  0.0407
 2515W        W40009  11.582  15.213  22.699 -0.0725  0.0524  0.2252
 2516W        W40010  18.352  10.488  21.770 -0.1059  0.0332  0.0989
 2517W        W40011   4.300  32.853  25.791  0.0375  0.0370 -0.0016
 2518W        W40012  27.903  12.454  20.201 -0.1990  0.0197 -0.1664
 2519W        W40013  35.340  15.784  20.144  0.0941 -0.3360  0.1577
 2520W        W40014   0.018  19.007  20.695 -0.0327  0.3278 -0.0699
 2521W        W40015  34.597  17.235  17.948 -0.0625  0.0634  0.0459
 2522W        W40016   6.956  11.924   1.254 -0.0038 -0.0055  0.0436
 2523W        W40017  22.198   0.560  16.552 -0.3537  0.1948 -0.2242
 2524W        W40018  29.933   8.279  19.502  0.0239 -0.2062  0.6778
 2525W        W40019   0.029   0.396   1.045  0.2460  0.0335 -0.1227
 2526W        W40020  16.974  27.433   7.466  0.1077 -0.3369 -0.0208
 2527W        W40021  34.023   3.750  15.567 -0.0477 -0.0983 -0.0485
 2528W        W40022  17.511  32.938   1.694  0.2224 -0.2331 -0.1247
 2529W        W40023  32.845  33.257  23.154 -0.1060 -0.0620 -0.0902
 2530W        W40024   6.354  20.186  22.039 -0.0916  0.0443 -0.0546
 2531W        W40025   3.335  21.794   2.063 -0.0221  0.0039  0.1309
 2532W        W40026   7.695  27.960   4.371  0.1057 -0.2337 -0.1980
 2533W        W40027  12.364  32.903  16.003  0.1064  0.1235 -0.0833
 2534W        W40028   7.845   9.882   7.579 -0.0026  0.2638  0.1589
 2535W        W40029  28.536   3.881  17.421  0.0236 -0.3181 -0.1600
 2536W        W40030   9.572  29.896  23.319  0.2697 -0.3770  0.1814
 2537W        W40031  11.955   3.114   1.769 -0.1000 -0.3480  0.1965
 2538W        W40032  17.264  29.756   5.597  0.0345  0.0291  0.0524
 2539W        W40033  18.540   9.257   3.347  0.0192  0.1871 -0.0932
 2540W        W40034  22.150  29.676  17.258 -0.5305  0.0590 -0.2391
 2541W        W40035  26.633  14.954  23.686  0.3222  0.1932  0.0576
 2542W        W40036   6.721  20.173   0.504  0.3610  0.0411 -0.4386
 2543W        W40037   4.397  32.351   6.040  0.1356  0.4047 -0.0972
 2544W        W40038  13.183  13.292   7.435 -0.0662  0.0487 -0.0930
 2545W        W40039   1.962   8.070  16.546 -0.2318 -0.1100  0.2162
 2546W        W40040  19.387  24.549  23.294 -0.0766  0.0766 -0.2192
 2547W        W40041  10.077   3.064  14.025 -0.2345  0.1013 -0.1721
 2548W        W40042   2.103   2.124   8.165 -0.0436 -0.0197  0.0488
 2549W        W40043  17.675   5.081   9.916 -0.0981 -0.1155 -0.3054
 2550W        W40044  14.430   9.960  23.851 -0.0905  0.0837  0.0433
 2551W        W40045   6.966  19.980   4.106  0.2689  0.0516  0.1580
 2552W        W40046  10.397  25.305  17.311 -0.0029 -0.3197  0.0884
 2553W        W40047   3.464   6.837  25.105 -0.2244 -0.3563 -0.0326
 2554W        W40048  15.592  23.309   0.578 -0.0198  0.4354  0.2533
 2555W        W40049  15.353  19.317   2.460  0.1045 -0.0980 -0.4209
 2556W        W40050   6.252  17.287  20.307 -0.0283 -0.1567  0.2889
 2557W        W40051  13.037  25.659   8.227  0.0182 -0.3207 -0.2697
 2558W        W40052  16.235  18.812  25.422 -0.1062  0.0872 -0.2299
 2559W        W40053  15.526  12.416   1.732  0.0079 -0.1282 -0.0500
 2560W        W40054  18.905  32.527   2.232  0.3504 -0.1390  0.0934
 2561W        W40055  29.642  13.315  24.819 -0.0915  0.2675  0.1229
 2562W        W40056   9.154  16.398   3.941 -0.1429 -0.0945 -0.2347
 2563W        W40057   8.486  24.775   0.918  0.0568 -0.2449  0.3436
 2564W        W40058  11.840  23.760  26.005 -0.1014  0.0182 -0.2745
 2565W        W40059  13.963  32.846   4.756  0.2127 -0.3031  0.1927
 2566W        W40060  22.025  12.973  21.020 -0.0026  0.2600  0.1425
 2567W        W40061  23.832  19.020  22.513 -0.2045  0.0285 -0.1705
 2568W        W40062  23.167  21.060  17.698 -0.1349 -0.0401  0.0135
 2569W        W40063  12.817   3.600   6.072 -0.1142 -0.0830 -0.0538
 2570W        W40064   7.102  29.480  10.758  0.0198  0.2668  0.0858
 2571W        W40065  24.258  27.262  11.573  0.2396  0.0457 -0.1559
 2572W        W40066  25.021  11.967  23.415 -0.1882  0.0341 -0.3282
 2573W        W40067   1.506  21.452  16.602  0.1600  0.1149  0.0469
 2574W        W40068   3.717  35.146   5.047  0.0261 -0.1465 -0.2143
 2575W        W40069  24.719   0.908  20.713 -0.0916  0.0328  0.0837
 2576W        W40070  24.119  18.241  26.048  0.3620  0.1149  0.1322
 2577W        W40071  29.734   5.333  19.333  0.0854 -0.0574 -0.4484
 2578W        W40072   0.844   1.015   8.046 -0.0252 -0.0788  0.3829
 2579W        W40073  13.407  29.183  25.449 -0.3278  0.0733 -0.0738
 2580W        W40074  10.661  17.001  11.543  0.0576  0.0946 -0.0168
 2581W        W40075  26.808  24.341  21.810  0.1198  0.1964  0.1363
 2582W        W40076  34.799  25.133  13.019  0.0321 -0.0419 -0.1584
 2583W        W40077   4.603  16.422  23.801 -0.0344 -0.5007 -0.1225
 2584W        W40078  22.757  10.106  14.230  0.4101 -0.0350 -0.0563
 2585W        W40079  32.064  25.500  16.005  0.0321 -0.0905  0.0101
 2586W        W40080  26.171  31.433   1.475  0.2560 -0.0803 -0.0942
 2587W        W40081  19.333  34.701   7.679 -0.0393  0.1222  0.1438
 2588W        W40082   3.848  19.008   0.366 -0.1580  0.1806  0.2876
 2589W        W40083  28.323  33.807  20.088  0.1139 -0.0145  0.1809
 2590W        W40084  34.355  19.036  16.231 -0.0045  0.0368 -0.0587
 2591W        W40085  30.848   7.045   1.490 -0.0358  0.1976  0.0023
 2592W        W40086   4.288  17.611   3.190 -0.0711 -0.0344 -0.0832
 2593W        W40087  24.890   7.946  19.838  0.1252  0.1402  0.1952
 2594W        W40088  33.169  13.487  15.531 -0.2170 -0.3620  0.0805
 2595W        W40089  25.907  12.681  25.677 -0.0758 -0.4076 -0.3195
 2596W        W40090  16.184  29.892   2.604  0.0160 -0.1503 -0.1923
 2597W        W40091  15.459  21.909   8.543 -0.0839  0.0366 -0.0479
 2598W        W40092   7.195  12.751   6.556  0.1862  0.1260 -0.2711
 2599W        W40093  24.827   6.610  10.863 -0.1999 -0.1758 -0.2821
 2600W        W40094  16.111  33.984   2.177  0.1481  0.0391 -0.0888
 2601W        W40095  16.376  20.660  12.278 -0.1533  0.0113  0.1169
 2602W        W40096   3.728  16.035  17.758 -0.2617  0.0443 -0.1378
 2603W        W40097  32.990  31.739  25.049  0.0227 -0.1237  0.3458
 2604W        W40098   1.521  33.010   8.006 -0.0364 -0.1183 -0.0390
 2605W        W40099  18.466  24.200   6.287 -0.1385  0.2423  0.0868
 2606W        W40100   8.078  17.690   4.881  0.0903  0.1025 -0.1680
 2607W        W40101  10.725  24.771  13.819  0.1128  0.0640 -0.3152
 2608W        W40102   6.666  24.343  22.903 -0.0587 -0.5353  0.2490
 2609W        W40103   2.403   4.837  23.792  0.1168 -0.2554  0.3016
 2610W        W40104  32.311   4.016  17.342  0.0326 -0.3467 -0.1117
 2611W        W40105  17.583   0.838   5.101  0.3172 -0.2386  0.0801
 2612W        W40106  28.829  24.483  17.959  0.0641 -0.3094  0.1236
 2613W        W40107  17.624  24.410  25.322  0.0087 -0.2036 -0.1449
 2614W        W40108  30.842  14.797   7.121 -0.3438  0.1793  0.1596
 2615W        W40109  31.267  15.572  10.788  0.1199 -0.0382 -0.2326
 2616W        W40110   9.963  10.420   6.733 -0.1375  0.0585  0.1167
 2617W        W40111  25.661  29.895  14.300  0.0381 -0.0641  0.1298
 2618W        W40112   8.544   2.322   5.057 -0.0348 -0.0882 -0.1881
 2619W        W40113  33.438  17.455  15.496 -0.0776  0.2352 -0.2725
 2620W        W40114  17.381  29.354   9.199 -0.1574 -0.0978  0.0573
 2621W        W40115   9.216  34.377  21.267  0.0304  0.2892 -0.1780
 2622W        W40116  21.277  12.622  19.697  0.1761 -0.0756 -0.0897
 2623W        W40117  25.567  28.185  22.868 -0.0993  0.3528 -0.0141
 2624W        W40118   0.615  20.522  12.845 -0.0890 -0.3019 -0.1670
 2625W        W40119   2.288  16.892  16.302  0.2129 -0.2149  0.2761
 2626W        W40120  13.814  25.286  24.135 -0.1455  0.0206 -0.2344
 2627W        W40121  19.051  32.298   5.471  0.0960  0.2689  0.2120
 2628W        W40122  27.383  31.646   0.858 -0.1502  0.1644 -0.2596
 2629W        W40123  27.914   1.597  22.134  0.0255  0.0545  0.2225
 2630W        W40124  17.169   3.359   1.874 -0.2826  0.0225 -0.2197
 2631W        W40125  11.007  29.373   3.351  0.0850  0.0891  0.0445
 2632W        W40126  27.216   7.681  10.987  0.0194 -0.3954  0.1059
 2633W        W40127  30.265  14.572  12.177 -0.0687  0.1748 -0.1227
 2634W        W40128  20.422   2.273  19.444 -0.1002  0.1237 -0.2124
 2635W        W40129  33.791  25.808  18.201 -0.3896  0.1629 -0.2509
 2636W        W40130  27.314  26.198  14.213  0.1480  0.0725  0.0035
 2637W        W40131  25.785   9.367  18.536  0.2293  0.2700  0.0019
 2638W        W40132  18.152  28.153  23.855 -0.2826 -0.1468  0.2074
 2639W        W40133  31.524  25.817   2.131  0.0003  0.0756 -0.0119
 2640W        W40134  27.440  27.570  13.145  0.0407 -0.1290  0.1448
 2641W        W40135  12.561  34.658   5.798 -0.1156  0.1843  0.0919
 2642W        W40136  10.686   8.364  12.162  0.1604 -0.0646 -0.0635
 2643W        W40137  18.911  16.734  20.658  0.1498  0.0142 -0.3735
 2644W        W40138  20.341  22.931   8.607 -0.0752  0.2377  0.1327
 2645W        W40139   9.609  25.508  23.744  0.1461 -0.2071  0.0524
 2646W        W40140  18.896  29.013  24.221  0.3045 -0.1509 -0.3071
 2647W        W40141   3.439  29.655   0.882  0.0129 -0.1308 -0.1711
 2648W        W40142  29.754  20.433  16.533 -0.1627 -0.4159  0.0318
 2649W        W40143   7.230  15.396  11.659 -0.3684  0.0297  0.3862
 2650W        W40144  27.748  22.773   7.150  0.0318  0.0026  0.2489
 2651W        W40145  34.464  15.940  19.282 -0.0749  0.4380  0.1407
 2652W        W40146   0.458   7.225   3.624 -0.1809 -0.1420 -0.2378
 2653W        W40147  34.193  12.550  12.598  0.0425  0.0850 -0.1975
 2654W        W40148  34.281  32.524  23.830 -0.4753  0.0928 -0.2898
 2655W        W40149  16.169  34.955  23.437  0.0670  0.0800  0.1023
 2656W        W40150   3.871  22.185   4.046  0.0200  0.0127 -0.0056
 2657W        W40151  22.345  32.910  17.226 -0.0246  0.1631  0.0213
 2658W        W40152  15.382   7.147  21.635  0.0708  0.2534  0.1056
 2659W        W40153  22.576  29.703   4.274  0.1586 -0.3281  0.2575
 2660W        W40154   5.132  16.713   2.383 -0.0124 -0.1700  0.2579
 2661W        W40155  12.545  34.975   8.413  0.0240  0.1136  0.2635
 2662W        W40156   7.718  11.164   3.051  0.1022 -0.0659  0.2172
 2663W        W40157   1.245   1.630   4.701  0.1665 -0.0384 -0.4239
 2664W        W40158   4.749  27.176   3.100  0.0537  0.0001 -0.3651
 2665W        W40159   2.530  31.097   2.718 -0.2774 -0.2037 -0.1757
 2666W        W40160  28.237  30.223  11.276 -0.1958 -0.2398  0.0465
 2667W        W40161  11.102  14.830   6.239 -0.2231  0.1535  0.1211
 2668W        W40162  10.628  31.370  13.750 -0.4225  0.0002 -0.0570
 2669W        W40163  17.519   8.908   0.169  0.1047 -0.4692 -0.1614
 2670W        W40164  26.792  22.786  11.233  0.0587  0.3146  0.4436
 2671W        W40165  15.548  21.017  14.555  0.0363 -0.2151  0.3556
 2672W        W40166  17.490  25.186  11.869  0.2339  0.0427 -0.2978
 2673W        W40167   9.297   5.452  23.524  0.1169  0.2418 -0.3156
 2674W        W40168   1.560  35.088   2.311  0.2426  0.2147 -0.1321
 2675W        W40169   4.863  32.744  19.668  0.0680 -0.0855  0.0203
 2676W        W40170  25.751  30.755  16.294 -0.0348 -0.1712 -0.2565
 2677W        W40171  34.777   2.346  19.301 -0.0542 -0.0862 -0.0297
 2678W        W40172  23.216  14.862   0.794  0.2043  0.1020 -0.0819
 2679W        W40173  23.572  12.610  20.361 -0.2364  0.1738  0.0211
 2680W        W40174   5.608  24.372  24.925 -0.0860 -0.0550 -0.0246
 2681W        W40175  16.866  23.639  22.293 -0.1314 -0.3012  0.3897
 2682W        W40176  25.917   6.760  13.097  0.0793  0.0890 -0.0628
 2683W        W40177  34.400   5.820  17.937  0.2253 -0.1461 -0.0683
 2684W        W40178  15.413  32.867  12.756  0.1261  0.1774 -0.0636
 2685W        W40179  26.816   7.127  19.033 -0.0847  0.2677 -0.3479
 2686W        W40180  15.284   2.776  23.129  0.0249 -0.2471  0.0239
 2687W        W40181  34.814  32.726   8.699 -0.1964  0.1135 -0.0338
 2688W        W40182  17.420  24.585   2.583  0.1352 -0.2300  0.0358
 2689W        W40183   9.255   2.775  23.817 -0.1348  0.0665 -0.2768
 2690W        W40184  32.510  23.335  10.246  0.2789 -0.3116  0.0792
 2691W        W40185   0.451  28.291  20.813  0.0543  0.1204  0.0818
 2692W        W40186   8.821   6.577  21.319  0.2498  0.1124  0.1957
 2693W        W40187  17.051  16.733  10.407 -0.0648  0.1738 -0.1362
 2694W        W40188   8.005  18.588  24.169 -0.1638 -0.0303 -0.1131
 2695W        W40189  11.150  29.794  12.218  0.0190  0.2785 -0.0715
 2696W        W40190  26.156  17.698  22.316  0.1816 -0.1921  0.1702
 2697W        W40191  25.458  28.027  20.085  0.0705 -0.0181 -0.2547
 2698W        W40192   0.280   8.675  18.683 -0.0997 -0.2700 -0.1601
 2699W        W40193  12.312  27.419  25.847  0.1152  0.0298  0.0584
 2700W        W40194   6.181  17.697   4.073  0.4193 -0.3973 -0.0183
 2701W        W40195  20.284   1.932  15.193 -0.0361  0.1444  0.3024
 2702W        W40196  25.130  19.380   9.608  0.1878  0.0388 -0.0714
 2703W        W40197  21.545  26.377  15.755  0.3782 -0.2422  0.1035
 2704W        W40198   2.395  22.085   0.936 -0.2494  0.0534  0.0562
 2705W        W40199   1.873   4.165  18.301  0.4190  0.0912  0.3620
 2706W        W40200   7.580  15.595   3.911 -0.2514 -0.3132  0.0927
 2707W        W40201  15.506  21.460   0.806  0.0916  0.2221  0.2922
 2708W        W40202  34.743  34.025   1.388 -0.0486  0.1174  0.0589
 2709W        W40203   9.712   2.759   6.473  0.0760  0.0216  0.0352
 2710W        W40204  12.100   8.511  20.250 -0.0147  0.0970 -0.3078
 2711W        W40205   0.071  30.876   7.216  0.0244 -0.1237  0.0783
 2712W        W40206  29.021  15.213  23.120  0.3517 -0.4849 -0.1409
 2713W        W40207  19.144  11.853  16.773  0.1195  0.0928  0.1785
 2714W        W40208  18.506  15.624   5.865  0.0213 -0.0506 -0.1701
 2715W        W40209  23.247  31.353   3.099  0.1642 -0.3563 -0.0826
 2716W        W40210   7.372   4.524   9.877  0.1636  0.3639 -0.1684
 2717W        W40211  27.289   8.689   2.093 -0.0029  0.0078  0.0872
 2718W        W40212   9.111   4.771   9.476  0.1852 -0.0524  0.3429
 2719W        W40213   6.890  31.658  24.345  0.0550 -0.0622 -0.0706
 2720W        W40214  28.188   2.990  21.168  0.0716  0.2597 -0.1069
 2721W        W40215  27.452   5.856   0.071  0.1285 -0.2473  0.0283
 2722W        W40216  34.315   0.893  16.141 -0.0500 -0.2863 -0.1999
 2723W        W40217  14.747  22.265   0.009  0.1774  0.0989  0.0573
 2724W        W40218  27.659   1.771  21.056 -0.1393  0.0372  0.0158
 2725W        W40219   9.704  23.336  16.881 -0.1916  0.2935 -0.0841
 2726W        W40220   9.311  25.807   4.325  0.2437  0.1729  0.1529
 2727W        W40221  33.628  28.641  24.129 -0.1911 -0.0144  0.0194
 2728W        W40222  26.876  25.111  23.427 -0.0593 -0.0086 -0.1981
 2729W        W40223  34.070   9.825  21.082  0.0798 -0.0773 -0.2174
 2730W        W40224  25.606  11.766  14.837  0.0148  0.1643 -0.0046
 2731W        W40225   1.995   2.719  23.621  0.1768 -0.0592 -0.1206
 2732W        W40226  16.542  23.263   5.473 -0.1041  0.0293  0.1350
 2733W        W40227  28.090  32.213  10.847 -0.0372 -0.0887 -0.3452
 2734W        W40228  31.890  32.998  24.161 -0.0441 -0.2699 -0.0283
 2735W        W40229   8.130   9.494  12.859  0.0498  0.1827 -0.0853
 2736W        W40230   0.181  25.584  15.071  0.1075 -0.0533  0.1258
 2737W        W40231  10.390  14.398  10.954  0.2600 -0.0291  0.0927
 2738W        W40232  26.893   1.802  18.401 -0.1589  0.0831 -0.3137
 2739W        W40233  17.596   2.910  26.019  0.2293  0.1495  0.0630
 2740W        W40234  31.182  21.612  11.178 -0.1451  0.1889  0.2108
 2741W        W40235  12.225   0.367  11.249  0.1597 -0.1831 -0.3002
 2742W        W40236   4.039  27.300   3.552  0.0433 -0.0811 -0.0055
 2743W        W40237  27.443  29.112  11.793  0.1475 -0.0908 -0.0414
 2744W        W40238  13.015  32.245   3.050  0.0110  0.2312 -0.0646
 2745W        W40239  29.206  14.592  24.599 -0.0734  0.1920 -0.0262
 2746W        W40240  32.283   2.955  22.078 -0.2533  0.1988  0.0633
 2747W        W40241   7.204  14.696  21.992  0.1491  0.2121  0.1940
 2748W        W40242   2.903  25.106  20.059 -0.0026 -0.2553  0.0660
 2749W        W40243   6.913   0.803  11.465  0.1249  0.0298  0.1189
 2750W        W40244  16.215  35.176  18.478 -0.1162 -0.0518 -0.0551
 2751W        W40245  18.062  25.790  20.706  0.2035  0.0882 -0.1600
 2752W        W40246  11.317   1.668   1.201 -0.0812 -0.0374 -0.0513
 2753W        W40247   3.704   3.552   7.258 -0.0836  0.1277 -0.0746
 2754W        W40248  34.742  14.079   7.613 -0.0714 -0.0187 -0.1194
 2755W        W40249  14.401  29.209  13.975 -0.0318 -0.0988 -0.1179
 2756W        W40250  11.979   0.477  24.304  0.0035 -0.0995  0.2373
 2757W        W40251   0.568  29.047   4.185 -0.0943  0.0078  0.0586
 2758W        W40252  16.846  19.131  10.044  0.3244  0.0808  0.0778
 2759W        W40253  26.488   6.504   0.305  0.2901 -0.1206 -0.2382
 2760W        W40254  24.704  23.845  24.718 -0.0322  0.1101  0.4083
 2761W        W40255  14.367  18.695  11.683 -0.2118 -0.1242 -0.2295
 2762W        W40256  22.941  21.137   0.128  0.0499  0.2510 -0.1726
 2763W        W40257   8.866  19.878  14.324 -0.2085  0.0865  0.1637
 2764W        W40258   1.192   4.649   5.523 -0.1703  0.0461 -0.1197
 2765W        W40259  21.318  31.729  23.510 -0.1401 -0.1769 -0.1782
 2766W        W40260  29.265  34.875   1.093  0.0480  0.1114 -0.1356
 2767W        W40261  23.373  20.697   1.880 -0.2307  0.1133 -0.1112
 2768W        W40262  17.579  29.587  23.790 -0.0477  0.2583 -0.1337
 2769W        W40263  20.562   3.131   2.136  0.0916 -0.0504 -0.0457
 2770W        W40264  31.227   2.115  14.186  0.0328  0.1245 -0.0529
 2771W        W40265   7.230  27.623   2.080 -0.0964  0.1308  0.1979
 2772W        W40266   8.276   1.958   5.819  0.0272  0.0872 -0.0490
 2773W        W40267  28.977  25.147  15.113  0.1096  0.1452  0.1865
 2774W        W40268  17.412   2.722  19.356  0.2358  0.1540 -0.2250
 2775W        W40269  11.558  31.889   4.058  0.0970 -0.2098  0.2059
 2776W        W40270  33.796  14.343  18.440  0.1237  0.0038 -0.0835
 2777W        W40271  10.250   9.245  10.530  0.3842  0.2134  0.1026
 2778W        W40272  14.925   3.501   2.841  0.1133  0.0631  0.1143
 2779W        W40273  19.521  25.293  24.013 -0.2806 -0.0518  0.1530
 2780W        W40274  21.729  33.506  20.882  0.1140  0.1185  0.0071
 2781W        W40275  31.586  24.208  25.173 -0.1346  0.2929  0.1860
 2782W        W40276   1.541  27.779   5.492  0.1889 -0.1470  0.0469
 2783W        W40277  19.161  32.691  15.707  0.0867  0.3014 -0.0453
 2784W        W40278  14.747  29.316  12.638 -0.1188 -0.0247  0.0954
 2785W        W40279  14.387  32.706  22.693 -0.2127 -0.0409 -0.2357
 2786W        W40280   2.156  22.362  17.132 -0.4529 -0.0862  0.2551
 2787W        W40281  28.117   1.291  22.523 -0.0679 -0.0483  0.3937
 2788W        W40282  16.286   4.906  24.534  0.0910 -0.0728  0.1622
 2789W        W40283   6.687  15.650  17.840  0.0697  0.0869 -0.0165
 2790W        W40284   8.721  28.121  15.002  0.1459 -0.0095  0.1047
 2791W        W40285   6.180  13.441   5.612 -0.0657 -0.0563  0.1848
 2792W        W40286   1.446   6.262   6.448 -0.2054  0.3003 -0.0645
 2793W        W40287  29.431   0.739   1.163 -0.3269 -0.0052 -0.0271
 2794W        W40288   4.979  30.506   3.887 -0.4162  0.0032 -0.1600
 2795W        W40289  19.412  15.439   4.925 -0.0296  0.2612  0.1240
 2796W        W40290  26.892   9.643  14.056  0.0795 -0.1046 -0.1210
 2797W        W40291  18.233   0.670   8.154  0.0241 -0.1183 -0.0884
 2798W        W40292  27.845  25.011  23.095  0.1198  0.2388 -0.1690
 2799W        W40293  24.052  23.288  23.783  0.2442  0.0825  0.0413
 2800W        W40294  15.441   1.880   3.407 -0.2605  0.0213  0.0009
 2801W        W40295  33.333  14.714  16.988 -0.2763  0.0677  0.0122
 2802W        W40296  10.562  20.950   5.499  0.1853  0.0977  0.0814
 2803W        W40297  16.472   7.580   6.075 -0.4263  0.5203  0.4537
 2804W        W40298  19.626  24.694  22.078  0.3643 -0.1353 -0.2100
 2805W        W40299   1.365  13.991   0.812  0.1367  0.0850  0.1661
 2806W        W40300   4.279   8.737  16.589  0.0812  0.0698 -0.1494
 2807W        W40301   2.546  13.465   1.324 -0.2026 -0.1197  0.2858
 2808W        W40302  31.774  12.662  19.697 -0.2166 -0.2469  0.0068
 2809W        W40303  10.253   5.934  14.413  0.1165 -0.0257  0.1005
 2810W        W40304  10.730  22.669   7.343 -0.3139  0.2180  0.0567
 2811W        W40305  26.720  35.349  20.461 -0.1605  0.0091  0.1756
 2812W        W40306  25.492  10.384  23.363  0.0017 -0.2701  0.1465
 2813W        W40307  35.243  11.995  23.929 -0.1107 -0.3980 -0.0784
 2814W        W40308   2.822  17.654   3.004 -0.0592  0.0864 -0.0617
 2815W        W40309  31.982  10.719   7.156 -0.2600 -0.3071 -0.0492
 2816W        W40310   0.280  21.782  10.260 -0.0269  0.1886 -0.0333
 2817W        W40311  29.741  35.359  22.706 -0.0260  0.2506 -0.1453
 2818W        W40312  26.370   3.680  15.508 -0.2464  0.0574  0.0974
 2819W        W40313  15.068  30.932   8.237  0.1503  0.2589  0.1217
 2820W        W40314  33.224  29.836  21.817  0.1386 -0.2119 -0.2155
 2821W        W40315  31.372   3.876  25.657 -0.1685 -0.1014  0.0570
 2822W        W40316  31.882  24.934  13.378 -0.1116 -0.0497  0.1698
 2823W        W40317  32.210  22.303  12.274  0.1443  0.0897  0.0377
 2824W        W40318   3.859  18.214  15.769 -0.0820  0.2051  0.1480
 2825W        W40319  18.129   4.985  16.489 -0.4231  0.1473  0.4950
 2826W        W40320  11.637  20.664  25.824  0.0770 -0.0519 -0.0460
 2827W        W40321  23.846  23.166  23.229 -0.0827 -0.1552  0.1824
 2828W        W40322  11.792  34.600   5.365  0.0012  0.1644  0.2067
 2829W        W40323   2.928   0.164   6.582  0.2411  0.0196 -0.2036
 2830W        W40324  18.276  21.414   0.417  0.0407  0.4092  0.2341
 2831W        W40325   9.178   9.096   2.476  0.0460 -0.1408  0.2756
 2832W        W40326  23.399   3.325   1.604  0.2306  0.1400 -0.2029
 2833W        W40327  33.506   5.788  18.045  0.0371  0.0303 -0.0112
 2834W        W40328  24.642  14.330  16.918  0.1726 -0.3955 -0.0361
 2835W        W40329  34.352  34.078  20.478 -0.0217 -0.2002 -0.1818
 2836W        W40330  14.350  19.404   6.574 -0.0745 -0.0082 -0.0414
 2837W        W40331   5.071   8.052   1.615  0.2219 -0.5632  0.0727
 2838W        W40332   3.419  35.161   6.877  0.1533  0.3851 -0.3671
 2839W        W40333  33.472   0.873  18.285  0.2677 -0.0233  0.0762
 2840W        W40334   4.634  29.484   3.385 -0.1831 -0.2195 -0.2084
 2841W        W40335  31.483  18.788  17.331  0.1431  0.1321 -0.3845
 2842W        W40336  20.078  18.504  17.559 -0.0385 -0.1531 -0.0405
 2843W        W40337   6.760  12.342  21.156 -0.0981  0.0691  0.3228
 2844W        W40338  20.880  31.320   7.188  0.0288 -0.2860  0.0024
 2845W        W40339  18.049  31.993  25.164 -0.0454 -0.3771  0.1932
 2846W        W40340  15.526  20.228   2.889  0.0694 -0.1645 -0.0442
 2847W        W40341   3.977   9.811   2.009  0.3142  0.1631  0.2220
 2848W        W40342  30.843  20.178  17.788 -0.0863 -0.1435 -0.0855
 2849W        W40343   3.314  19.109  20.415  0.1717  0.0164  0.3067
 2850W        W40344   1.125  10.277  21.915  0.0920 -0.2267 -0.1849
 2851W        W40345  33.729   5.951  19.474 -0.0592  0.2456 -0.0987
 2852W        W40346   5.520  35.016   7.013  0.1749 -0.0989  0.0887
 2853W        W40347   7.774  29.001   9.723  0.1462 -0.3005 -0.0557
 2854W        W40348  14.394  25.338  22.058  0.0014  0.0813  0.0613
 2855W        W40349  10.334  34.082  13.416 -0.1512  0.4705 -0.0700
 2856W        W40350   5.229  26.934   4.250 -0.1295 -0.0930 -0.3047
 2857W        W40351  17.840  18.547   4.591 -0.1626  0.3005 -0.4500
 2858W        W40352   6.462  23.082  11.733  0.0279  0.1660 -0.0253
 2859W        W40353  33.340  13.960  25.529 -0.1402  0.0383  0.1585
 2860W        W40354  12.073   0.074  10.695  0.2342  0.1510  0.0394
 2861W        W40355  18.196   1.701   6.706  0.2573 -0.1983 -0.1199
 2862W        W40356   4.551  24.753   6.561  0.2096 -0.3283  0.2101
 2863W        W40357  10.414  28.123  11.288 -0.0994 -0.2119  0.0728
 2864W        W40358   3.794   0.819   4.839  0.3127  0.0330  0.3802
 2865W        W40359  14.977  16.797  10.402 -0.1659 -0.1247  0.0831
 2866W        W40360  31.168  33.123  18.206  0.3989  0.0962  0.0262
 2867W        W40361  26.712  10.188  12.648 -0.0928 -0.0454  0.1943
 2868W        W40362  31.375  14.109  18.123  0.1337 -0.1026  0.1912
 2869W        W40363  15.572  22.731  13.448 -0.1674 -0.3890  0.0790
 2870W        W40364   0.076  26.501  16.554 -0.0500 -0.1444  0.0280
 2871W        W40365  11.958  20.265  11.360  0.0576 -0.1288 -0.0935
 2872W        W40366  17.209   7.875  13.008  0.3326 -0.0677 -0.0311
 2873W        W40367  34.717  31.398   3.156  0.0158 -0.0234 -0.0915
 2874W        W40368  24.815  15.306  17.305 -0.1616  0.0178  0.0331
 2875W        W40369  18.871  17.319   7.832  0.0959  0.1024  0.0263
 2876W        W40370   6.414   2.883   8.402  0.1735 -0.0866 -0.0408
 2877W        W40371   4.335   3.437   2.235 -0.3015 -0.0355  0.0572
 2878W        W40372  25.577  27.691  21.165 -0.0599  0.2139  0.2809
 2879W        W40373   7.702  10.725   3.317  0.0154  0.0138  0.1278
 2880W        W40374  32.489  31.298  13.560  0.1114 -0.0532 -0.1961
 2881W        W40375  29.270  25.359  21.026 -0.0746 -0.3269 -0.2050
 2882W        W40376  21.717  12.563   1.980  0.1949 -0.1224 -0.1915
 2883W        W40377  35.030  12.345  10.826 -0.1323 -0.0429  0.0280
 2884W        W40378   6.565  32.934  23.834  0.1871 -0.1942 -0.0136
 2885W        W40379  18.766  22.830   7.753  0.0404 -0.2169  0.0839
 2886W        W40380   9.987  18.250  25.582 -0.1268  0.2688 -0.1001
 2887W        W40381  24.532   9.092  22.937 -0.1352 -0.2763  0.6395
 2888W        W40382  26.456  21.027  13.607 -0.1524  0.1280  0.0744
 2889W        W40383  18.815  24.598   1.294  0.1652 -0.2707 -0.1052
 2890W        W40384  29.831   0.351  11.444 -0.0357 -0.0651  0.0365
 2891W        W40385  34.951  14.320  22.415 -0.0397 -0.1217 -0.0700
 2892W        W40386  17.291  18.973  21.522 -0.0284  0.1893 -0.0098
 2893W        W40387  19.542   1.077   8.702  0.1784  0.2308  0.0208
 2894W        W40388  16.385  25.402   8.670 -0.0039 -0.2707 -0.3203
 2895W        W40389  19.541  22.108   2.954 -0.4418 -0.1376 -0.1601
 2896W        W40390  30.392  30.082  25.091  0.1974  0.1010  0.3239
 2897W        W40391  32.541  22.670  24.443  0.1589 -0.1666  0.0130
 2898W        W40392  10.060  13.257   8.966 -0.1353  0.0174 -0.2416
 2899W        W40393   0.168   8.298  24.340 -0.1352 -0.0118 -0.1049
 2900W        W40394  22.411  34.643  21.687 -0.0248 -0.1948 -0.1769
 2901W        W40395   4.532   7.056   4.113 -0.0399  0.1010 -0.3012
 2902W        W40396  20.672  11.444  24.769  0.0911  0.0055  0.2265
 2903W        W40397   0.717  24.224   1.504  0.1275  0.1179 -0.2336
 2904W        W40398  10.529  33.009  16.895  0.3066 -0.3606  0.1150
 2905W        W40399  12.316  21.941   5.584  0.0997 -0.0631 -0.1630
 2906W        W40400  12.604  13.303   6.696 -0.2156 -0.2802  0.4087
 2907W        W40401  34.834  23.110  25.221 -0.2795 -0.4586 -0.2913
 2908W        W40402  27.530  27.740  21.275 -0.0281  0.0666  0.2400
 2909W        W40403  34.948   9.878  12.580 -0.2346  0.2484 -0.1917
 2910W        W40404  32.227  31.406  18.769 -0.0245 -0.0599  0.1483
 2911W        W40405  33.674  20.472  17.536  0.0568 -0.3336  0.1971
 2912W        W40406  30.681   8.803  12.954  0.1423 -0.1563 -0.0303
 2913W        W40407  11.920  12.142   7.533  0.2309 -0.2015  0.2135
 2914W        W40408  15.330  15.632   9.313 -0.0636 -0.3034 -0.0045
 2915W        W40409   4.342  15.055  23.806  0.2621  0.2118 -0.2373
 2916W        W40410  15.166  27.750   9.580 -0.1743  0.0003  0.2046
 2917W        W40411   2.014   3.037  17.346 -0.1377 -0.3518  0.0829
 2918W        W40412  15.477  10.958   3.851 -0.3703  0.1350 -0.1559
 2919W        W40413  26.877   1.502  14.260  0.1928 -0.4883  0.0992
 2920W        W40414  29.202  23.609   8.968 -0.0131 -0.0046 -0.4188
 2921W        W40415  29.424   9.218   9.811 -0.0181  0.1329 -0.0509
 2922W        W40416   8.155   8.662   3.171  0.0496  0.0795  0.1548
 2923W        W40417  28.694  19.402   8.018  0.1690 -0.0446 -0.0715
 2924W        W40418  11.269   3.776   4.547  0.1124 -0.0708  0.1039
 2925W        W40419  12.721   2.921  24.110 -0.2903  0.0197  0.0932
 2926W        W40420  10.406   9.754   0.688  0.0600  0.0129  0.1643
 2927W        W40421   0.384  31.289   7.897  0.1744  0.0319 -0.1470
 2928W        W40422  33.443  11.433  11.714 -0.1405 -0.4266 -0.1800
 2929W        W40423  18.249  22.776   6.503 -0.2212  0.2436  0.2599
 2930W        W40424   9.489  21.830  10.595 -0.1100  0.3213 -0.0434
 2931W        W40425  16.861  34.445  20.456  0.0143  0.0739  0.0699
 2932W        W40426  14.023  15.654   7.010  0.2108 -0.0784  0.1881
 2933W        W40427  21.012   2.459   0.518  0.2264  0.3056 -0.2783
 2934W        W40428  15.795  25.062  13.316 -0.1981 -0.0130 -0.0207
 2935W        W40429  15.273   1.701  18.856  0.2495  0.0967  0.3489
 2936W        W40430   5.850  18.367   5.366 -0.1258  0.1826 -0.0772
 2937W        W40431  21.484   8.314  21.855 -0.0284 -0.2119  0.0178
 2938W        W40432  24.224   3.520  22.893  0.0188 -0.2419  0.0141
 2939W        W40433  27.631  11.114  18.015  0.1809 -0.1269  0.0685
 2940W        W40434   3.468   8.350  15.512  0.1074  0.1462 -0.0342
 2941W        W40435  24.188  10.110  19.902  0.2828 -0.2172 -0.1115
 2942W        W40436  32.815   6.529   2.509 -0.0550  0.1635 -0.2782
 2943W        W40437  20.126  15.908  25.914 -0.0190  0.1648 -0.0969
 2944W        W40438   6.760  13.919   3.097 -0.0086  0.1208 -0.1079
 2945W        W40439   9.836  33.709  15.958 -0.0013 -0.0794  0.0337
 2946W        W40440   9.802  10.065  25.906  0.1509  0.0509 -0.3257
 2947W        W40441  34.746   2.164  16.188  0.0048 -0.2578 -0.2429
 2948W        W40442  21.233  21.753   2.435  0.1530 -0.0416 -0.2169
 2949W        W40443  15.206  28.752   1.358 -0.0877  0.0288 -0.1008
 2950W        W40444   9.529  17.588  21.912  0.1310 -0.2776 -0.0343
 2951W        W40445  19.905  28.072   2.386  0.2759 -0.1539  0.0578
 2952W        W40446  31.378  19.011  22.338  0.0464  0.0520 -0.1734
 2953W        W40447   5.731   8.955  26.150  0.2397  0.1367  0.1439
 2954W        W40448  20.268  18.479  19.894  0.0449  0.1749 -0.2079
 2955W        W40449  11.719   5.398  23.322  0.1129  0.2468  0.0863
 2956W        W40450  17.563  35.265  17.858 -0.1228 -0.1577  0.2580
 2957W        W40451  22.883  14.230  19.306 -0.1254  0.0842  0.2129
 2958W        W40452   5.575  10.282   3.954 -0.0075  0.0416  0.1999
 2959W        W40453   7.291  18.175   5.925 -0.2710  0.4696  0.0634
 2960W        W40454  21.586  24.217  18.699 -0.0096  0.0114 -0.3915
 2961W        W40455   8.591  13.925   8.087 -0.2148  0.4822  0.1847
 2962W        W40456  17.820   3.987   4.522  0.0228 -0.0362 -0.1719
 2963W        W40457  11.591   9.414  21.264  0.0933  0.1539 -0.2423
 2964W        W40458   4.503  18.665  24.175  0.0656 -0.0640  0.1663
 2965W        W40459  19.601  25.839  22.737 -0.3547 -0.0863  0.3358
 2966W        W40460  30.004   6.736  14.688  0.0244 -0.0023  0.1323
 2967W        W40461  29.889  26.374  12.052 -0.0203  0.0383  0.0945
 2968W        W40462   8.189  26.180   5.155  0.0479  0.1665  0.3858
 2969W        W40463  17.396  21.179  13.367  0.2869  0.0722  0.1299
 2970W        W40464  20.996  10.212  17.737 -0.0181 -0.2950 -0.1539
 2971W        W40465   2.994  13.912   3.912  0.2554  0.0053 -0.3040
 2972W        W40466  31.585  27.542  20.390  0.0100 -0.3960 -0.1220
 2973W        W40467  31.235   7.907  15.161  0.1258 -0.2540 -0.1910
 2974W        W40468   3.934  32.741  23.118  0.1007  0.0361  0.1395
 2975W        W40469  24.961   5.724  18.669  0.1359  0.2735 -0.0335
 2976W        W40470  29.388  27.632  18.946  0.1639 -0.2888  0.2410
 2977W        W40471  22.821  23.350  20.634 -0.0071 -0.1020 -0.0912
 2978W        W40472  29.726  32.456   4.488 -0.0903  0.2666 -0.0159
 2979W        W40473   8.459  27.515  16.404 -0.4442 -0.0653  0.0306
 2980W        W40474  22.499   5.843   1.076 -0.0440 -0.0298 -0.0747
 2981W        W40475  15.393  24.617   6.419 -0.3655 -0.1521  0.3630
 2982W        W40476  12.652   5.758  23.445 -0.0183 -0.0545 -0.0593
 2983W        W40477  33.412  33.803   0.963 -0.3360  0.4120 -0.0398
 2984W        W40478  26.737  30.607  10.966 -0.2314  0.1158  0.1374
 2985W        W40479   4.381   8.072   8.747  0.0901  0.0006  0.0002
 2986W        W40480   3.819  10.876   6.906 -0.1193  0.2191 -0.0502
 2987W        W40481  30.279  35.210  11.877 -0.2413  0.0854  0.5092
 2988W        W40482  32.802   2.322  14.133 -0.0774  0.0006  0.0607
 2989W        W40483  30.272  14.678  22.907  0.0063 -0.1589  0.2983
 2990W        W40484  27.603  30.469  12.687 -0.2425 -0.1550 -0.1637
 2991W        W40485  20.652  15.179   1.590  0.0134 -0.0023 -0.1614
 2992W        W40486  21.259  31.101  17.380 -0.1038 -0.0035 -0.1608
 2993W        W40487  28.442  20.873  10.546  0.0099  0.1171  0.0881
 2994W        W40488  10.512  15.231   4.013  0.0897  0.2733  0.2519
 2995W        W40489  31.105  22.588  17.327 -0.2354  0.3733  0.0177
 2996W        W40490  30.948  25.163   8.296 -0.2049  0.1468 -0.0363
 2997W        W40491  18.000  26.091   0.606 -0.0986 -0.1758 -0.0241
 2998W        W40492  29.485  25.465  12.989 -0.2892 -0.1162  0.1855
 2999W        W40493   2.968   7.167  18.683 -0.3583  0.4185 -0.2346
 3000W        W40494  24.417  24.359  18.314  0.0685  0.2113  0.0297
 3001W        W40495  33.214  26.610   1.949 -0.0858 -0.2211  0.1141
 3002W        W40496   5.774  15.442   8.969  0.0455  0.0628 -0.0882
 3003W        W40497   1.700  18.472  24.750  0.1141  0.3908  0.2897
 3004W        W40498  14.590   9.897   3.608 -0.1204 -0.0008  0.1926
 3005W        W40499  12.363  17.870   5.202 -0.0509  0.1439  0.2647
 3006W        W40500  18.587   2.050   6.888 -0.0559  0.0882 -0.1753
 3007W        W40501  28.192  12.406  19.389 -0.0162 -0.4899 -0.0505
 3008W        W40502  32.283   7.313  10.918  0.0414 -0.2906  0.2602
 3009W        W40503  25.037  15.601  16.952 -0.0836 -0.0399  0.4692
 3010W        W40504  30.820   8.920  24.698 -0.0106  0.2501 -0.2215
 3011W        W40505  31.941  27.598  19.534 -0.0280  0.2117 -0.0834
 3012W        W40506  25.918   9.303  24.860  0.0721 -0.2110 -0.2924
 3013W        W40507  20.161  30.576  21.553 -0.2273 -0.0942  0.1590
 3014W        W40508  21.806  35.053  22.351  0.0031 -0.2242 -0.0808
 3015W        W40509  15.679  19.066  23.773  0.0566  0.0379  0.3495
 3016W        W40510   1.670   7.295   1.814 -0.3447  0.1506  0.1245
 3017W        W40511  31.288   3.442  25.426 -0.0241 -0.0904  0.0429
 3018W        W40512  16.375  32.979  21.697  0.2850 -0.0751  0.1067
 3019W        W40513  12.014  10.593   9.018 -0.1125  0.2624  0.1677
 3020W        W40514  27.393  23.166   6.869  0.3985  0.0262 -0.2724
 3021W        W40515  21.361  20.034   3.931  0.3968 -0.0966 -0.0910
 3022W        W40516  18.902  20.060  22.564  0.1665  0.0271  0.0622
 3023W        W40517   8.457  21.434   1.213  0.0038  0.0223 -0.1641
 3024W        W40518  34.317  20.078  18.035 -0.1258 -0.0565  0.1538
 3025W        W40519   3.462  28.560  19.466  0.1535 -0.0960 -0.0427
 3026W        W40520  35.104  23.211  25.608 -0.1187  0.2728  0.0011
 3027W        W40521  27.836  33.374  17.155 -0.1778 -0.2078  0.0823
 3028W        W40522  22.711   3.924  18.978 -0.1037 -0.2900 -0.2325
 3029W        W40523  25.719   7.101  21.910  0.0570 -0.0883  0.3542
 3030W        W40524  12.303   5.280  19.998  0.1781 -0.0110  0.0690
 3031W        W40525  10.261   7.419   2.645 -0.4161  0.1728  0.0067
 3032W        W40526  24.159   3.141  23.240  0.1727  0.0944 -0.1586
 3033W        W40527  28.718   1.032   2.547  0.2758  0.0709  0.1165
 3034W        W40528  29.987  24.484  20.655  0.1236 -0.2357  0.0933
 3035W        W40529   6.013  29.760   3.000 -0.4553 -0.1604 -0.2764
 3036W        W40530   7.511  12.504   0.521  0.0105 -0.0152  0.1051
 3037W        W40531  19.914  22.752  22.192  0.1137  0.0408 -0.0404
 3038W        W40532   3.352   6.368  25.269  0.0692 -0.1093 -0.2486
 3039W        W40533   8.075  14.463  21.810  0.2368 -0.2964 -0.2130
 3040W        W40534  15.518  23.752   0.325 -0.0577  0.2093  0.0834
 3041W        W40535   5.142  14.633   2.246  0.1576  0.2056 -0.0524
 3042W        W40536  24.032  30.656  20.448 -0.1382  0.0876  0.2867
 3043W        W40537  31.537  35.050  19.255 -0.2141  0.1378  0.0192
 3044W        W40538  21.998  15.645  18.292  0.3183 -0.3379 -0.1567
 3045W        W40539  14.069  22.805  24.708  0.0813 -0.2800  0.4398
 3046W        W40540  16.071   9.542   2.007 -0.1195  0.0107  0.1302
 3047W        W40541  26.099  17.455  11.767 -0.1159 -0.0480 -0.0258
 3048W        W40542  12.854  25.098  22.605  0.0304  0.1668  0.1347
 3049W        W40543  10.954  10.603   4.490 -0.1636  0.2414  0.1319
 3050W        W40544  11.042   8.003  12.982  0.1042 -0.1008  0.0005
 3051W        W40545  31.384  10.083  17.631 -0.1021  0.0691  0.0196
 3052W        W40546  34.363   5.401  21.590 -0.1091 -0.0610 -0.1092
 3053W        W40547  20.020   4.675   8.905  0.3965  0.1784  0.1704
 3054W        W40548   0.368  17.398  19.263 -0.2159 -0.1246 -0.0218
 3055W        W40549  14.473  25.748   3.060 -0.0323 -0.3780 -0.1280
 3056W        W40550  33.167  26.119  20.153 -0.0453  0.1562  0.0749
 3057W        W40551  16.580  10.007   6.786  0.2029  0.2117  0.1926
 3058W        W40552  33.697  18.808  17.647 -0.3041  0.1992  0.1712
 3059W        W40553  16.111   8.305   1.019 -0.0020  0.2837 -0.1645
 3060W        W40554  17.246  16.354  12.491 -0.0159 -0.1409  0.2077
 3061W        W40555  11.748  30.954  22.337 -0.0160  0.1668  0.1617
 3062W        W40556  29.433  15.470   8.509  0.0245 -0.0487 -0.0712
 3063W        W40557  19.740  27.521  18.685 -0.2690 -0.1852  0.0223
 3064W        W40558  34.618  19.021   6.983 -0.1399 -0.0191 -0.2329
 3065W        W40559  11.473  26.790   5.800 -0.1248  0.2938  0.3895
 3066W        W40560  10.842   2.470   8.186 -0.1134 -0.4234 -0.1993
 3067W        W40561   2.817   8.728   0.049  0.0084  0.0035 -0.2665
 3068W        W40562  26.413   0.668  20.143  0.1235 -0.0109  0.2009
 3069W        W40563   9.887   9.639  26.188 -0.1465 -0.0769 -0.0159
 3070W        W40564  25.186  34.280  19.920 -0.3228 -0.2083 -0.2741
 3071W        W40565  12.716  20.076   4.714  0.0899  0.1029 -0.2059
 3072W        W40566  30.467  21.560  12.773  0.0949 -0.0680 -0.1729
 3073W        W40567   3.478  30.597   4.438 -0.0169  0.0102  0.0751
 3074W        W40568  33.518  23.027  12.567 -0.2109 -0.1983  0.1170
 3075W        W40569   3.330   8.309  23.960 -0.1024 -0.1727  0.0375
 3076W        W40570  24.747  23.207   2.393 -0.0783  0.1758  0.1846
 3077W        W40571  23.322  11.656  16.679  0.1937 -0.0230  0.0668
 3078W        W40572  24.878  28.743  20.731 -0.2220  0.1993 -0.1270
 3079W        W40573  24.601  30.101  25.751  0.1080 -0.1163 -0.2079
 3080W        W40574  28.962  18.075   8.033 -0.1402 -0.0275 -0.0833
 3081W        W40575   5.842   9.764  19.039  0.1383  0.2105 -0.2478
 3082W        W40576   4.293  20.604   0.603 -0.2752  0.1697 -0.2519
 3083W        W40577  30.114   4.189  24.767  0.1694 -0.1902 -0.4382
 3084W        W40578  30.228  14.737  12.941 -0.0486  0.0852 -0.3132
 3085W        W40579  30.592   3.537   3.894 -0.2321 -0.0365  0.0267
 3086W        W40580  19.769  16.821   0.920  0.0091 -0.1255 -0.0578
 3087W        W40581   4.727   5.294  21.274  0.2109 -0.1309 -0.0976
 3088W        W40582   0.041  31.738   8.005 -0.1329 -0.1613  0.1247
 3089W        W40583  16.533  18.890   1.533 -0.1337 -0.0849 -0.1571
 3090W        W40584  15.470   3.869  12.385  0.2820 -0.2602 -0.2405
 3091W        W40585  28.663  15.444  12.553  0.0222 -0.1135  0.2375
 3092W        W40586  30.059   7.044  18.085  0.2440  0.0028 -0.1822
 3093W        W40587  24.798  21.461  13.499  0.2997 -0.0789  0.0405
 3094W        W40588  23.004  27.002  16.900 -0.0595  0.1081  0.1992
 3095W        W40589  34.870  17.720  15.253  0.0917 -0.0815 -0.0918
 3096W        W40590  14.092  22.411  11.857 -0.0194  0.0759  0.2632
 3097W        W40591   7.930  33.698  20.666  0.2646  0.1645 -0.0786
 3098W        W40592   6.599   5.777   7.657 -0.1042 -0.2242  0.1248
 3099W        W40593  34.759  12.521   0.727 -0.0798 -0.1924  0.4127
 3100W        W40594  34.900  24.612  13.040 -0.1406 -0.1110  0.0258
 3101W        W40595   7.392  24.875  22.068 -0.0800  0.0571  0.0663
 3102W        W40596  16.652   2.250   7.544  0.0506 -0.1590  0.1611
 3103W        W40597  19.069   5.906  10.180  0.1422  0.1829  0.0833
 3104W        W40598  29.796  23.992  19.444 -0.0604  0.0376 -0.3666
 3105W        W40599  28.115   9.390  24.121  0.0924 -0.1866  0.3055
 3106W        W40600  13.150  25.640   2.576 -0.0726 -0.1754  0.0894
 3107W        W40601  34.881  14.439  24.168 -0.0052  0.3575  0.1925
 3108W        W40602  19.954  20.959   1.240 -0.2373  0.2098  0.0834
 3109W        W40603  11.255  18.638  11.503  0.0428 -0.5720 -0.0721
 3110W        W40604  24.915   7.422  19.013 -0.1414 -0.0318  0.1629
 3111W        W40605  15.189  24.113  25.380  0.1451 -0.0181 -0.1239
 3112W        W40606  33.108   8.870  14.170 -0.1377 -0.0386 -0.3540
 3113W        W40607  26.173  22.708  20.147  0.1115  0.3429 -0.2872
 3114W        W40608  33.261  32.654  18.095 -0.3096  0.1213  0.0164
 3115W        W40609  25.216  23.893   9.657  0.2214  0.2051  0.3310
 3116W        W40610  23.730  24.199  13.740  0.4528  0.1091 -0.4149
 3117W        W40611  12.203  24.161  22.621 -0.2508  0.1609 -0.1339
 3118W        W40612  29.252  14.173   7.275 -0.1224  0.1773 -0.1267
 3119W        W40613  10.901  18.994   4.656  0.0716 -0.0544 -0.2373
 3120W        W40614  18.578   7.454   8.035 -0.0075  0.2402  0.1353
 3121W        W40615  14.970  26.211  10.229 -0.1675 -0.0765  0.4558
 3122W        W40616  34.557  15.703  20.958  0.0600 -0.0694 -0.0049
 3123W        W40617  34.069   0.152   8.558  0.1485 -0.0868 -0.0195
 3124W        W40618  29.294  11.481  22.238 -0.0422 -0.0341  0.0083
 3125W        W40619  13.319  14.862   4.279 -0.1846  0.0199 -0.4671
 3126W        W40620   8.022   7.882   2.603 -0.2057  0.0482  0.0377
 3127W        W40621   1.254   7.711  24.765 -0.3706 -0.0586  0.2446
 3128W        W40622  28.533   3.582  22.680  0.0136 -0.3006  0.1093
 3129W        W40623  29.151   0.610  17.387 -0.0035 -0.3176 -0.0103
 3130W        W40624  15.613  16.956   7.700  0.2047 -0.0884 -0.1020
 3131W        W40625   1.702   4.624  24.219 -0.0267  0.3067  0.0086
 3132W        W40626  28.960  22.739  21.721  0.0612 -0.0925 -0.1674
 3133W        W40627  30.178  29.469  22.008  0.3490 -0.1931  0.0529
 3134W        W40628   7.013  34.243   4.728  0.0743  0.2016  0.1306
 3135W        W40629   9.565  13.256   5.119 -0.0523  0.1044 -0.0599
 3136W        W40630  19.461  16.575   5.843 -0.4687 -0.1637 -0.0022
 3137W        W40631  10.333  19.983   3.732  0.1953 -0.3064 -0.1520
 3138W        W40632  16.686  34.541   8.688  0.1235 -0.0459  0.0366
 3139W        W40633  31.587   1.161  16.285  0.0971 -0.0941 -0.0777
 3140W        W40634  26.640   7.634  19.861  0.1161 -0.0418  0.1309
 3141W        W40635   4.678  29.083  20.854  0.1079 -0.1567  0.2288
 3142W        W40636  29.003  17.451  23.011 -0.2833 -0.0430 -0.0505
 3143W        W40637  17.368  10.140   1.349 -0.0482  0.0811 -0.3776
 3144W        W40638  17.017   7.299  17.827  0.1045 -0.0096 -0.0583
 3145W        W40639  22.990  22.039  12.485  0.0429  0.3892  0.3048
 3146W        W40640   8.989  25.429   5.982 -0.3350  0.2392  0.0606
 3147W        W40641  26.522  31.113  11.618 -0.0239  0.3425  0.0337
 3148W        W40642  28.994  16.885  24.253 -0.2999 -0.0787 -0.1766
 3149W        W40643  22.267  10.410  23.625 -0.0814  0.1353 -0.0750
 3150W        W40644  14.859   9.568  25.633 -0.0087 -0.0356 -0.2937
 3151W        W40645  25.100  35.181  13.475  0.1363 -0.1045 -0.0607
 3152W        W40646  32.329  26.680  14.638 -0.3311 -0.1334  0.0606
 3153W        W40647  26.570  33.840  18.228  0.1785 -0.1683  0.2139
 3154W        W40648  26.231  21.569  23.752 -0.0594  0.0554  0.1090
 3155W        W40649  23.664  28.903  12.404  0.1474  0.2602 -0.0278
 3156W        W40650   7.986  10.311   8.988  0.2564 -0.0367  0.0222
 3157W        W40651  10.737   5.872   8.560 -0.0726  0.1828  0.0602
 3158W        W40652   9.024  12.322  22.358  0.2264 -0.5056  0.0849
 3159W        W40653   6.717   1.409   7.214 -0.0553 -0.2355 -0.4613
 3160W        W40654   9.855  33.576   1.463  0.1789  0.0210  0.4884
 3161W        W40655  20.301   6.071  18.656 -0.1884  0.0778  0.0572
 3162W        W40656  28.460   4.190  20.396  0.0820 -0.1087 -0.0329
 3163W        W40657  33.719  19.857  22.515 -0.2303  0.0254 -0.1469
 3164W        W40658  13.881  32.201  23.032 -0.0596  0.1292  0.2702
 3165W        W40659  11.428  19.693   4.628 -0.0078 -0.3296  0.0909
 3166W        W40660  27.877  26.793  10.469 -0.2132  0.1298  0.2106
 3167W        W40661  15.928  25.315  10.712 -0.0125 -0.1500  0.0657
 3168W        W40662  28.308  13.431   0.042 -0.2306 -0.1093  0.3749
 3169W        W40663  21.850   3.883  14.894 -0.0147  0.1947  0.0669
 3170W        W40664  21.480  28.200  22.232  0.1430 -0.1069  0.1085
 3171W        W40665  13.297  32.637  11.121 -0.4208 -0.0999  0.0345
 3172W        W40666  19.872  34.831  16.370  0.0264  0.0241 -0.1259
 3173W        W40667  29.261  12.394  12.747 -0.1473 -0.0691  0.1284
 3174W        W40668  28.315  22.857  14.318 -0.0968  0.2237  0.0752
 3175W        W40669  18.779  34.461  16.793 -0.1516  0.0321  0.0648
 3176W        W40670  12.533   1.214  11.583 -0.3214  0.1285  0.0888
 3177W        W40671   7.095  32.446   6.457  0.2169 -0.1908 -0.2198
 3178W        W40672  32.961  20.061   5.475 -0.0056  0.0110 -0.0591
 3179W        W40673   2.831  29.751  11.154 -0.1786  0.0031 -0.3940
 3180W        W40674  17.498   1.551   0.438  0.0609 -0.2250  0.0826
 3181W        W40675   9.185  16.252   0.842  0.1849 -0.0126 -0.1109
 3182W        W40676  34.003  15.058   7.537 -0.0294  0.2857  0.0647
 3183W        W40677  27.074  27.598  19.428  0.1771  0.1146 -0.1354
 3184W        W40678  28.695  18.835  21.883 -0.1093 -0.1685 -0.1220
 3185W        W40679  24.500  14.815  25.745 -0.1649  0.0957 -0.1897
 3186W        W40680  11.063  33.256  21.554  0.1510 -0.1719  0.1715
 3187W        W40681  29.481  25.307  11.932 -0.2392 -0.2398  0.4832
 3188W        W40682  33.348  29.616   3.179 -0.0376  0.1450 -0.4210
 3189W        W40683   9.481  20.101   2.731 -0.2176 -0.0353 -0.0332
 3190W        W40684   8.154  19.314  24.955 -0.0854  0.0874  0.0213
 3191W        W40685  30.661  23.246   9.803  0.2106  0.2047 -0.2002
 3192W        W40686   3.549  32.756   9.230 -0.0487 -0.5695 -0.1207
 3193W        W40687  24.238  23.100  17.601 -0.2091  0.1976  0.0371
 3194W        W40688   7.036  26.678  15.456 -0.1217 -0.0934 -0.1416
 3195W        W40689  30.251   2.059   2.589 -0.3195  0.1019 -0.1503
 3196W        W40690   5.923  22.261   6.623 -0.2799  0.2864  0.4325
 3197W        W40691  28.758  26.865   0.808 -0.1366  0.3233  0.1402
 3198W        W40692  25.392   5.083  21.681 -0.2202 -0.0563  0.2654
 3199W        W40693   5.228  31.656  10.016 -0.1937 -0.1943 -0.0886
 3200W        W40694   3.744   4.223  19.423 -0.2945  0.1772 -0.1111
 3201W        W40695  14.485  17.520  23.058  0.2183  0.1443  0.1904
 3202W        W40696  33.023   8.290   1.227 -0.1015 -0.0682 -0.0994
 3203W        W40697  13.762  10.271  21.291 -0.0357  0.2134 -0.1387
 3204W        W40698   3.761  21.663  23.033  0.0026  0.0530  0.0494
 3205W        W40699  13.412  23.013   9.475 -0.1285  0.1600  0.5762
 3206W        W40700   3.064   0.576  10.576 -0.1878  0.1349  0.1775
 3207W        W40701  15.738  18.323   0.795 -0.1782  0.0903 -0.0862
 3208W        W40702   8.684  32.439   9.696 -0.4746 -0.1048  0.1008
 3209W        W40703  10.113  22.910   6.843  0.0734 -0.2095 -0.0111
 3210W        W40704  23.896  31.868   1.121  0.0698 -0.2081 -0.1711
 3211W        W40705  27.890   9.587  19.545 -0.1392 -0.0648 -0.0656
 3212W        W40706  23.424  17.131   0.341  0.0683  0.1813 -0.1469
 3213W        W40707  10.224  15.166   7.031  0.0779 -0.3496  0.2377
 3214W        W40708   8.949  26.942   3.669  0.0750 -0.0876 -0.0274
 3215W        W40709   4.394  13.810  21.918  0.0390  0.0444  0.0806
 3216W        W40710   0.120  34.517   1.536 -0.1690 -0.2414 -0.0819
 3217W        W40711  23.167   9.579  22.927  0.0980 -0.2432 -0.0343
 3218W        W40712   5.910   7.017  22.943 -0.0328 -0.3369  0.1814
 3219W        W40713   7.097  19.773   9.105  0.0604  0.1542  0.0602
 3220W        W40714  35.360   4.152  13.675 -0.1564  0.0475  0.1015
 3221W        W40715  21.001  25.042  25.899  0.2303  0.0162  0.0322
 3222W        W40716  17.045   3.214  19.864 -0.1737  0.1420 -0.1390
 3223W        W40717   8.762  35.354   1.812  0.1035  0.1523 -0.2155
 3224W        W40718  26.593   4.942  21.089 -0.2898 -0.1288 -0.1815
 3225W        W40719  19.290  14.250   6.429 -0.0958 -0.2230 -0.0711
 3226W        W40720  13.605  19.823  13.302  0.0171 -0.1930 -0.1336
 3227W        W40721  33.937  18.716  20.256 -0.2823  0.2270  0.1948
 3228W        W40722  11.423   0.364  23.433  0.2536  0.1235 -0.2411
 3229W        W40723  24.327   5.902  19.924  0.1011  0.0046  0.0118
 3230W        W40724   0.484   5.584   4.547 -0.0436 -0.1089  0.3059
 3231W        W40725  23.560  21.670  23.907  0.3279 -0.0488  0.2213
 3232W        W40726   2.593  22.899  23.854  0.3754  0.2785 -0.0427
 3233W        W40727   6.624   4.799  21.512  0.1462 -0.0279 -0.0904
 3234W        W40728  12.443   0.302   2.177 -0.1157 -0.1771 -0.1813
 3235W        W40729  22.308  22.216   0.625 -0.3276  0.0151  0.0053
 3236W        W40730  32.893  29.843   2.963  0.1383 -0.2288 -0.0842
 3237W        W40731   7.742   6.673   5.112  0.2766  0.0197 -0.0547
 3238W        W40732  30.734  12.585  11.662 -0.1895 -0.3420 -0.0488
 3239W        W40733   1.734  15.443  12.223 -0.4633  0.0562  0.1658
 3240W        W40734  19.777   9.280  23.654  0.1181  0.0715  0.1207
 3241W        W40735  17.913  18.008  23.252  0.2633 -0.0976  0.2803
 3242W        W40736  29.304   1.608   2.785  0.2066 -0.0167 -0.0180
 3243W        W40737  27.492  11.992  11.322  0.2568  0.1580  0.2461
 3244W        W40738   9.987  16.642   0.369  0.0278  0.0372 -0.1845
 3245W        W40739  11.277  24.202  16.171  0.2499  0.1266  0.0830
 3246W        W40740  21.023   3.627  21.399 -0.0799  0.0665 -0.2714
 3247W        W40741  24.939  22.423   0.156  0.1540 -0.1421  0.2505
 3248W        W40742   9.454  20.335  14.788  0.0089 -0.0751  0.3445
 3249W        W40743  32.157  10.741   8.678  0.3295  0.1879 -0.0531
 3250W        W40744  22.351  28.001   1.173  0.1688 -0.4128 -0.3961
 3251W        W40745   4.825  22.693   6.182  0.2954  0.2822 -0.0999
 3252W        W40746   5.269  32.523  26.172 -0.0301 -0.0371 -0.0359
 3253W        W40747  14.245  12.086   1.219  0.2069 -0.1376 -0.2375
 3254W        W40748  13.315   6.426  22.496 -0.0276 -0.0145  0.0373
 3255W        W40749  22.213  23.604   4.058  0.3602  0.0623  0.1456
 3256W        W40750  24.681  24.101  22.566  0.0453 -0.4091 -0.0007
 3257W        W40751  25.015  24.303  10.280  0.1681  0.0568  0.4594
 3258W        W40752  26.383   2.023  24.267 -0.2766 -0.1247 -0.2188
 3259W        W40753   2.729   8.557  19.599  0.0634 -0.3900 -0.3960
 3260W        W40754  20.478  19.833   2.307 -0.0372  0.0615  0.2446
 3261W        W40755   2.782  15.596  22.602 -0.1031 -0.0352  0.0379
 3262W        W40756  10.705  11.857   2.111  0.1692 -0.2490 -0.0084
 3263W        W40757   1.566   7.619   2.343  0.0392 -0.0068  0.1733
 3264W        W40758   0.358   6.434  15.548  0.1545 -0.2360 -0.2031
 3265W        W40759  10.867  24.515  25.155 -0.0518 -0.0254 -0.0363
 3266W        W40760  19.673  25.584  18.962 -0.0036 -0.1013 -0.0547
 3267W        W40761  32.750  16.875   7.080  0.0597  0.0434 -0.1230
 3268W        W40762   7.135  18.774   3.005  0.2036 -0.0478 -0.0970
 3269W        W40763  23.512  30.742  20.293 -0.1505 -0.0226  0.5212
 3270W        W40764  18.759  27.127   5.755 -0.0259  0.0359 -0.2341
 3271W        W40765  13.854   2.803  17.765  0.0994 -0.2947 -0.0312
 3272W        W40766  28.511  33.407  10.792 -0.1564 -0.2958 -0.2790
 3273W        W40767  14.627   3.789   6.016  0.0901 -0.1784 -0.1288
 3274W        W40768  27.054   6.759  16.908  0.0165  0.2590  0.2769
 3275W        W40769  17.590  20.772  13.663 -0.0141  0.1781  0.1043
 3276W        W40770  24.704  31.717  16.580  0.0508  0.2072  0.0068
 3277W        W40771   3.587  30.429   9.628 -0.0016 -0.1215  0.2639
 3278W        W40772  26.906  32.708  20.112  0.1068 -0.0605  0.2451
 3279W        W40773   2.422  32.258  17.765  0.1302 -0.0252  0.0340
 3280W        W40774   0.603  26.509   2.503 -0.0946  0.1161 -0.0427
 3281W        W40775  20.365   0.885   5.014  0.0827  0.2248 -0.0490
 3282W        W40776  20.712  29.134  14.426 -0.0599 -0.2296  0.1516
 3283W        W40777  17.437   8.157   2.359  0.1673 -0.2503  0.2095
 3284W        W40778  11.001  14.149   8.809  0.1820  0.0574  0.2087
 3285W        W40779  27.104  11.324   7.150  0.4464 -0.1325 -0.0272
 3286W        W40780  31.493   6.284  12.930  0.2883  0.2901  0.0493
 3287W        W40781   4.759  29.981  11.735  0.0303 -0.0390 -0.3620
 3288W        W40782  15.079  20.407   6.142  0.2836  0.0281  0.2517
 3289W        W40783   2.241   3.002  25.523 -0.0672 -0.0938  0.0326
 3290W        W40784  27.970  18.203   5.930  0.2187 -0.0040  0.2568
 3291W        W40785  16.426   6.865   4.378  0.3100 -0.3558  0.0259
 3292W        W40786   9.183  19.708   3.970 -0.3204 -0.2482  0.3253
 3293W        W40787  24.664  28.809  14.875 -0.1492 -0.2429 -0.1246
 3294W        W40788   6.476  31.280   8.100  0.0429  0.2376 -0.0792
 3295W        W40789  16.307  30.796   5.613  0.2924  0.0692  0.0900
 3296W        W40790   0.716  20.623  16.308  0.0651 -0.1525 -0.1410
 3297W        W40791  35.128  32.919  24.801 -0.3012  0.0266 -0.0096
 3298W        W40792   2.857   6.278  18.181 -0.1034 -0.0063  0.2132
 3299W        W40793  28.142   4.798  17.959  0.0222  0.3357 -0.1712
 3300W        W40794   7.307   6.545  24.583  0.3276 -0.2175 -0.1247
 3301W        W40795   5.242  33.597  24.240  0.3439  0.0884 -0.0826
 3302W        W40796   9.059  34.212  15.939 -0.0534 -0.2858 -0.2079
 3303W        W40797   1.346  30.865   4.263 -0.1279 -0.1339 -0.1550
 3304W        W40798  29.621  30.630   2.624 -0.0292 -0.0335  0.3148
 3305W        W40799   8.499  19.914  12.282 -0.2932 -0.0218 -0.0642
 3306W        W40800  27.427   1.021  19.167 -0.2426 -0.1633  0.0672
 3307W        W40801   7.087  21.360   5.993 -0.0566  0.2960 -0.0059
 3308W        W40802  33.789  24.453  22.202  0.0187 -0.0414 -0.0717
 3309W        W40803   1.983  27.618   6.843  0.2799  0.2826 -0.2213
 3310W        W40804  27.415  16.240   5.400 -0.1597 -0.1418  0.0947
 3311W        W40805  35.296  13.071  11.420  0.3210  0.0282  0.1021
 3312W        W40806  23.649   8.869  18.099  0.1394 -0.2302  0.0853
 3313W        W40807  29.708   0.856   1.566 -0.0122 -0.1599  0.1183
 3314W        W40808  17.575   7.890   1.993  0.1331 -0.3343  0.0724
 3315W        W40809   5.179  26.645  20.347 -0.2032  0.0445 -0.0693
 3316W        W40810  10.491   8.849  19.183  0.0476  0.1659  0.1305
 3317W        W40811  22.599   9.114  18.804  0.0109 -0.0896  0.0874
 3318W        W40812  12.882   6.799   1.473 -0.0986  0.1182 -0.0846
 3319W        W40813   3.332  20.980  24.611 -0.1492 -0.1720 -0.0993
 3320W        W40814  27.354  22.696  20.429 -0.6830  0.1836  0.3691
 3321W        W40815  16.851  18.355  10.202  0.0372 -0.0222  0.3556
 3322W        W40816  18.350   3.346  10.516  0.3090  0.3081 -0.0271
 3323W        W40817   0.126  18.355  23.845  0.0930 -0.2076  0.2991
 3324W        W40818   7.629   1.915   2.404 -0.1358 -0.1438  0.1097
 3325W        W40819  24.503  20.463  16.729 -0.1856 -0.0388  0.0888
 3326W        W40820  23.813   5.148  22.066  0.0422  0.2252  0.1516
 3327W        W40821   2.976  30.870  19.768  0.0428  0.1281 -0.0419
 3328W        W40822   9.476   8.264   6.842  0.0886  0.1015 -0.0347
 3329W        W40823  24.315  30.406   1.230 -0.1631  0.3709  0.1825
 3330W        W40824  10.383   4.209   3.701 -0.0259  0.0655  0.1520
 3331W        W40825  12.766   9.215   1.341  0.3195  0.2079 -0.3370
 3332W        W40826  10.993  21.377  12.078  0.0089  0.1486  0.3482
 3333W        W40827  23.531  26.367  23.172  0.1327  0.4259 -0.1663
 3334W        W40828  10.081   0.037  14.381 -0.0929  0.0495 -0.1038
 3335W        W40829  12.588  19.680   0.105  0.1556  0.1747  0.0199
 3336W        W40830   3.967  33.471  22.245 -0.2488  0.1148 -0.2431
 3337W        W40831   5.003  18.036  23.116  0.1383 -0.4452  0.1481
 3338W        W40832  12.685   4.650   9.924 -0.1044 -0.2173 -0.1474
 3339W        W40833  18.256  24.211  20.484 -0.1915  0.0178 -0.1249
 3340W        W40834   6.854  10.758   4.055 -0.2927 -0.1382 -0.0904
 3341W        W40835  26.183  10.850  24.993  0.0900  0.4299 -0.0259
 3342W        W40836   1.864  11.728  14.824  0.0406 -0.1443 -0.4206
 3343W        W40837   9.984  35.059  11.663 -0.0220  0.0393  0.0055
 3344W        W40838  25.353  30.194   5.395  0.0135 -0.0255 -0.0621
 3345W        W40839   2.519  14.684  18.851  0.1139 -0.0797 -0.0694
 3346W        W40840   4.162   7.781  18.240 -0.1662  0.0381  0.0912
 3347W        W40841  26.355   8.933  14.213 -0.0094  0.1388  0.2010
 3348W        W40842   5.227   5.892  24.608 -0.1675  0.0402  0.1169
 3349W        W40843  12.924   2.522   4.961  0.0768 -0.0821  0.0144
 3350W        W40844  31.661  13.164  18.982 -0.2336 -0.1516 -0.0015
 3351W        W40845  30.426   4.367  21.339  0.1919 -0.1773  0.4278
 3352W        W40846  33.576  30.117   2.786  0.0697  0.1438 -0.0929
 3353W        W40847  11.503   6.972  22.133 -0.2915  0.1922 -0.0484
 3354W        W40848   6.449  15.511  19.813 -0.1991 -0.3618 -0.0898
 3355W        W40849  13.218   9.647  12.193  0.0793  0.3316 -0.1833
 3356W        W40850  29.321   7.966  14.348 -0.0282  0.0554  0.0856
 3357W        W40851   0.777   7.216   0.492 -0.1342  0.2997  0.0879
 3358W        W40852   4.971  16.838   5.522 -0.0098 -0.2056  0.0786
 3359W        W40853  17.846  34.568   4.068  0.2432 -0.2663 -0.1850
 3360W        W40854  10.337   7.259   5.575 -0.0885  0.2252  0.1195
 3361W        W40855  26.761   1.744  18.880  0.1193  0.1483 -0.0683
 3362W        W40856  33.365  18.201  14.703 -0.0608  0.0170  0.1517
 3363W        W40857  25.775  29.113  24.789 -0.1749 -0.0224  0.0138
 3364W        W40858  11.594   0.650   6.958 -0.2723 -0.2029 -0.0970
 3365W        W40859  26.798  10.765  11.186 -0.1485  0.2123 -0.2734
 3366W        W40860  19.757  16.941  24.680 -0.0273  0.4609 -0.1172
 3367W        W40861  29.077  25.098  10.362  0.2513  0.0844 -0.0196
 3368W        W40862   2.553   8.935  23.446 -0.3363 -0.1878  0.0390
 3369W        W40863   9.310  12.921  22.497  0.0399  0.0501  0.0675
 3370W        W40864  10.404  23.330   5.045  0.4243  0.2530  0.1504
 3371W        W40865  26.581  12.062  17.826  0.2438 -0.0203 -0.2329
 3372W        W40866  13.697  29.249  23.574  0.3251  0.0830 -0.0618
 3373W        W40867  11.364  17.276  26.153 -0.3182  0.2463 -0.0736
 3374W        W40868  18.146  27.825  23.213 -0.1056  0.3100  0.1451
 3375W        W40869  26.429  16.954  10.489 -0.2907 -0.2962 -0.0472
 3376W        W40870  29.781  11.489  25.905 -0.1687  0.1220 -0.1342
 3377W        W40871   4.701  33.499  10.877  0.0165 -0.1124  0.2050
 3378W        W40872  22.436   9.386  20.046 -0.0626 -0.1477  0.2754
 3379W        W40873  30.688   6.810   3.934 -0.2396 -0.0298 -0.1650
 3380W        W40874  14.598  17.197   8.149  0.0784 -0.1278  0.0681
 3381W        W40875   4.643  33.442   3.822  0.0994 -0.0758 -0.2340
 3382W        W40876  20.207  17.633   3.968  0.0615 -0.1880  0.1106
 3383W        W40877  25.735  31.701   5.693 -0.0585  0.1367 -0.0527
 3384W        W40878   2.206  28.683   7.212  0.0270  0.1608 -0.1019
 3385W        W40879   1.428  17.358   9.962 -0.1552 -0.0499  0.2181
 3386W        W40880  30.163   0.663  16.570 -0.1122  0.1593 -0.2153
 3387W        W40881   4.705  20.425  23.822  0.2380  0.3755 -0.0657
 3388W        W40882  14.166  16.046  21.117 -0.0039 -0.1567 -0.1685
 3389W        W40883  20.909   4.355   9.620 -0.1025  0.0810  0.0736
 3390W        W40884  28.092  11.908  21.797 -0.2343  0.0393  0.3100
 3391W        W40885   0.666   5.892  24.542 -0.3207  0.0197 -0.1653
 3392W        W40886  10.748  23.967   9.094  0.1579  0.0707  0.1248
 3393W        W40887  18.729  22.269   5.190 -0.0354  0.0794 -0.2151
 3394W        W40888  24.519   2.278  26.205 -0.2550  0.0847 -0.2889
 3395W        W40889  16.238  18.591  22.104 -0.1344  0.2442 -0.0146
 3396W        W40890  28.262  18.758  13.484  0.1893  0.1286 -0.0852
 3397W        W40891  14.238  31.148  22.294  0.0295 -0.0751  0.0550
 3398W        W40892  28.266   2.779  12.930 -0.0582  0.3284 -0.2340
 3399W        W40893   6.865  35.075  20.794 -0.1493  0.3504  0.2838
 3400W        W40894  20.054  23.623  19.190 -0.0371  0.0558 -0.1454
 3401W        W40895  31.369  17.791  23.429  0.1671  0.0185 -0.0843
 3402W        W40896  11.640  15.286   5.527 -0.0469  0.1642  0.0168
 3403W        W40897   4.383  28.907   6.642 -0.0830 -0.0785  0.0514
 3404W        W40898  32.153  32.265   0.022  0.0051  0.2057  0.5125
 3405W        W40899  19.265  32.569   4.791 -0.3069 -0.1057  0.4567
 3406W        W40900  35.229  25.325  19.077 -0.0353  0.2630  0.1310
 3407W        W40901  15.693  10.158   4.411  0.1103 -0.1842  0.1721
 3408W        W40902  23.630  28.324   1.422  0.0197 -0.0332 -0.1367
 3409W        W40903  22.940  33.764  24.414 -0.1971  0.2526  0.0123
 3410W        W40904  25.088  29.104  21.159 -0.2701 -0.0610  0.1102
 3411W        W40905   7.465  30.407  21.390 -0.1724 -0.1020 -0.2279
 3412W        W40906   3.019  14.613  19.035 -0.3920  0.1492  0.2508
 3413W        W40907  34.351  31.071   4.009 -0.1065  0.0276 -0.4188
 3414W        W40908  23.605  15.496   1.687  0.0360 -0.0260 -0.1246
 3415W        W40909  17.806   6.791  26.066  0.0852 -0.0198 -0.1379
 3416W        W40910   8.498  20.955   5.407  0.0836  0.1478 -0.0970
 3417W        W40911  17.436   1.225   6.509 -0.0181 -0.0370 -0.2953
 3418W        W40912  31.609  13.855   7.353  0.3095 -0.0062 -0.4382
 3419W        W40913  25.506  33.934  13.790 -0.1238  0.1389  0.0520
 3420W        W40914  14.775  25.587   6.776 -0.0726 -0.3818  0.0550
 3421W        W40915  17.701  22.175   8.545 -0.1163  0.0874 -0.5180
 3422W        W40916   1.549   2.683  26.100  0.5394 -0.0300  0.0764
 3423W        W40917  29.769  11.848  20.483 -0.3751  0.1448 -0.0155
 3424W        W40918  26.894  27.345  17.367 -0.2688  0.1407 -0.2923
 3425W        W40919  27.134  23.251  15.506 -0.1696 -0.0926  0.1877
 3426W        W40920  30.680   6.770  11.229  0.0212  0.2878 -0.2299
 3427W        W40921  25.374  30.252  12.068  0.3065 -0.0167 -0.2779
 3428W        W40922  22.718   7.043   0.164 -0.3331 -0.0733 -0.1529
 3429W        W40923   9.168   1.347  22.595  0.0004 -0.0308  0.3205
 3430W        W40924  23.270   3.534  17.605 -0.3175  0.2536  0.2125
 3431W        W40925  11.529  31.262   7.404 -0.0008  0.0837 -0.1634
 3432W        W40926  20.584   9.997  18.744  0.1801 -0.1195 -0.0174
 3433W        W40927  12.086  12.282   4.815 -0.0644 -0.0174 -0.0672
 3434W        W40928  15.353   8.401  13.356 -0.1395  0.1938  0.0997
 3435W        W40929  20.579  21.956   5.799 -0.0569 -0.1779 -0.0810
 3436W        W40930  23.492  34.806  13.182  0.0682  0.3097  0.1390
 3437W        W40931   5.817   3.681   0.266 -0.2151  0.0333  0.1929
 3438W        W40932   3.377  14.370  25.844 -0.0170  0.0907  0.0943
 3439W        W40933  19.700  25.837  20.832 -0.3928  0.1145 -0.0865
 3440W        W40934  15.935   4.874  18.365 -0.1120  0.2311 -0.0193
 3441W        W40935  20.149  29.108   6.956  0.0944  0.1182  0.2952
 3442W        W40936  24.318  27.246  24.669  0.0852  0.1016 -0.0093
 3443W        W40937  20.845  22.113   4.859  0.2202 -0.0797 -0.1494
 3444W        W40938  32.216  16.014  10.539 -0.1688 -0.1042 -0.0294
 3445W        W40939   7.284  24.111  23.119 -0.1000  0.0929  0.0801
 3446W        W40940   4.823  32.762  10.167  0.0738 -0.0428 -0.1210
 3447W        W40941   3.522  30.602   3.181  0.1440 -0.0529  0.0670
 3448W        W40942  14.126   0.737  25.065  0.0866  0.4485 -0.1618
 3449W        W40943   6.262   1.427   9.915 -0.2196 -0.2140 -0.0112
 3450W        W40944  34.251  20.719   9.171 -0.3982  0.1726  0.1197
 3451W        W40945  30.994   9.556  16.712 -0.1862  0.1877  0.2523
 3452W        W40946   8.703  34.091  10.214 -0.1708 -0.0221  0.1097
 3453W        W40947   5.251  15.059   5.176  0.2724  0.1818 -0.3820
 3454W        W40948  29.979  15.591   0.334 -0.0094 -0.1375  0.2657
 3455W        W40949  10.172  23.178  11.846  0.1177  0.1263 -0.2625
 3456W        W40950  11.196   0.293  19.967 -0.2134 -0.3919  0.2316
 3457W        W40951   6.711  18.020   4.425 -0.1010 -0.1513  0.0866
 3458W        W40952   3.711  34.083   9.013  0.1381  0.1328 -0.0466
 3459W        W40953   2.516   0.298  25.939  0.1197  0.3043 -0.5088
 3460W        W40954   4.998   6.077   3.789 -0.0226  0.1308  0.0604
 3461W        W40955  18.779  28.144   7.433  0.0762 -0.2911 -0.1616
 3462W        W40956   6.939  10.331  22.845 -0.3358 -0.0842 -0.0844
 3463W        W40957  27.122  21.797  24.082 -0.2082 -0.0171  0.0709
 3464W        W40958  20.195  25.550   4.136 -0.0136  0.0583 -0.2472
 3465W        W40959  13.757  23.428   1.328 -0.0088 -0.0086 -0.1759
 3466W        W40960  31.826  14.357  14.508  0.2798 -0.2633 -0.0076
 3467W        W40961  34.096  18.004  13.701 -0.2223  0.3659 -0.0249
 3468W        W40962   4.529  29.814   8.292  0.0110  0.0523  0.0634
 3469W        W40963  23.573  19.044  12.760  0.1487  0.3260  0.1129
 3470W        W40964  28.960  31.273  12.880 -0.0253 -0.0850  0.1604
 3471W        W40965  15.553  17.707  21.747  0.3520 -0.1487 -0.0550
 3472W        W40966   7.830  18.972  21.163  0.1119  0.0705 -0.0722
 3473W        W40967  25.399  17.943  10.623 -0.0862  0.0181  0.1248
 3474W        W40968  35.175  17.684  18.367 -0.0262  0.0259 -0.0170
 3475W        W40969  14.496   9.969   8.102  0.2103 -0.3183 -0.0856
 3476W        W40970  34.943  30.465   1.280 -0.1086  0.1218  0.1064
 3477W        W40971  26.270  22.400  25.022  0.2230  0.0866  0.3349
 3478W        W40972  13.820  11.001   9.144 -0.0765 -0.1354 -0.1688
 3479W        W40973  24.177   5.862   6.219 -0.4126 -0.1346 -0.2179
 3480W        W40974  31.418  12.980   8.913 -0.4749  0.1332  0.0280
 3481W        W40975   4.324  27.639  19.009 -0.0009  0.0591  0.1029
 3482W        W40976   7.926  18.229   6.783 -0.1103  0.0216  0.0668
 3483W        W40977   7.563  21.494  25.293 -0.0397 -0.2346  0.3016
 3484W        W40978  34.933  11.678  21.855 -0.0838  0.1367 -0.1561
 3485W        W40979  24.035   1.382  22.329 -0.1936  0.3487 -0.0864
 3486W        W40980  27.284  27.566   8.626 -0.2458  0.1991 -0.1273
 3487W        W40981  21.162   8.713  20.538  0.2446 -0.0463  0.2608
 3488W        W40982  31.581   8.954   2.185  0.1952  0.2093 -0.0665
 3489W        W40983  18.552  31.445   7.263 -0.0691  0.0261  0.2595
 3490W        W40984  19.625  24.276  23.667  0.2038  0.3402 -0.0186
 3491W        W40985  22.079   4.118   4.503  0.0998 -0.2082  0.1280
 3492W        W40986  13.334  16.942  21.220  0.0899  0.1288 -0.0967
 3493W        W40987  30.975  13.609   6.083 -0.2514  0.0176  0.3168
 3494W        W40988  27.011   8.300   1.773  0.0870 -0.1909  0.2340
 3495W        W40989  33.366  28.005  11.163  0.1696 -0.2294  0.0483
 3496W        W40990  24.881  27.338  19.538 -0.0775  0.1795 -0.2598
 3497W        W40991  29.465  28.433  18.085 -0.0741 -0.1445 -0.0969
 3498W        W40992  19.527  35.200  21.201  0.0763 -0.2080  0.2730
 3499W        W40993  32.773  30.534  22.075 -0.0315  0.0612 -0.2612
 3500W        W40994  28.972  32.393  16.034  0.0930  0.1357  0.1414
 3501W        W40995   9.811  23.324  15.864  0.1524  0.0779  0.1799
 3502W        W40996  19.084   3.982   1.349  0.0898 -0.0893 -0.2183
 3503W        W40997  27.972  13.827  23.386  0.2051 -0.0367 -0.3476
 3504W        W40998  25.038   2.467  23.471  0.1924  0.4444  0.2073
 3505W        W40999  12.574  18.208  21.466 -0.2183 -0.0263  0.2770
 3506W        W41000  18.511  18.015   5.726  0.1890  0.1833 -0.0249
 3507W        W41001   8.513  24.236   2.479  0.0877  0.0851  0.1457
 3508W        W41002  22.767  25.001  16.896 -0.2891 -0.0691  0.5925
 3509W        W41003  26.031   2.512   5.304  0.2304 -0.0465 -0.1856
 3510W        W41004   9.798   8.641  13.799  0.1005  0.0670 -0.0054
 3511W        W41005  21.544  33.337  22.838  0.1095 -0.2005  0.3206
 3512W        W41006  10.486  18.402   3.385 -0.1435 -0.2368 -0.2220
 3513W        W41007   1.402  35.329   0.974 -0.3280  0.1291  0.2027
 3514W        W41008   4.191   8.312  19.331 -0.0135 -0.0802 -0.0975
 3515W        W41009  33.667  25.470  25.290 -0.1114 -0.5160 -0.0764
 3516W        W41010  29.098  27.436   8.884  0.0016 -0.2375  0.1977
 3517W        W41011  25.265   4.392  16.250 -0.0185  0.3027 -0.1985
 3518W        W41012  23.928   1.992  21.400  0.1097  0.1314 -0.4429
 3519W        W41013  17.948   8.171   2.247  0.0868  0.0497  0.1955
 3520W        W41014  17.027  21.186   6.320 -0.1441 -0.1295  0.2530
 3521W        W41015  21.650  16.061  23.790 -0.0873  0.0030  0.0019
 3522W        W41016   7.375  11.649   8.347  0.3145  0.1398 -0.3315
 3523W        W41017  23.808   1.037  25.431 -0.3011  0.2096  0.0487
 3524W        W41018  31.877  14.874  25.112 -0.0138 -0.1872 -0.0017
 3525W        W41019  14.817   7.151   1.230 -0.0909 -0.1935 -0.0511
 3526W        W41020   8.163   6.380   1.554  0.0517  0.3254 -0.2793
 3527W        W41021  21.364  28.431  14.597  0.4357  0.1001  0.2912
 3528W        W41022  24.062  18.430  24.667 -0.0244  0.0187  0.2575
 3529W        W41023  31.246  10.590  12.865  0.2123  0.1530 -0.2054
 3530W        W41024  28.412  24.057  19.354 -0.0444 -0.2526 -0.2031
 3531W        W41025  33.421  32.430   1.563 -0.0229 -0.1503  0.3252
 3532W        W41026  23.026  16.807  13.863  0.0606 -0.2287  0.0780
 3533W        W41027  15.819  33.424   1.972 -0.3262 -0.2761 -0.2145
 3534W        W41028  11.763  31.741  24.614  0.0898  0.0293  0.1628
 3535W        W41029   2.596   4.267   0.275 -0.0406  0.2950 -0.2332
 3536W        W41030   8.852  20.593  22.842 -0.2097  0.0682 -0.1972
 3537W        W41031   8.643  28.100  25.479  0.0242  0.0177 -0.1146
 3538W        W41032   0.806  16.994  22.425  0.0418  0.3456  0.3142
 3539W        W41033  22.573  13.792  21.775  0.1100 -0.2656  0.0722
 3540W        W41034  19.265  31.988   8.119  0.1987  0.1352 -0.2948
 3541W        W41035  16.818   9.773   4.513  0.2378 -0.2698  0.0435
 3542W        W41036  12.975  14.016   4.741  0.0980  0.1643 -0.0448
 3543W        W41037  17.987  14.935  11.075  0.1693 -0.0383 -0.4082
 3544W        W41038  17.124  13.308  24.188 -0.0646  0.1747 -0.1668
 3545W        W41039   2.234  25.398   0.095 -0.0672  0.1587  0.1764
 3546W        W41040  18.295   1.865  22.697  0.0776  0.3156  0.0211
 3547W        W41041   3.707  33.769   6.775  0.0663  0.0647 -0.1489
 3548W        W41042  25.841  15.383  15.958  0.0001 -0.1690  0.2881
 3549W        W41043  24.021  25.551  20.832  0.2136  0.1759  0.1149
 3550W        W41044  23.021  29.962  24.200  0.0242  0.2307 -0.0098
 3551W        W41045  15.303  10.453   7.565  0.0060 -0.3699 -0.1140
 3552W        W41046  26.626   3.291  19.416  0.1227 -0.0113  0.1405
 3553W        W41047  28.430  34.793   1.635  0.0297  0.0622 -0.2658
 3554W        W41048  14.223  18.314  13.838 -0.0899  0.1411 -0.1656
 3555W        W41049   8.903  10.744   1.027  0.1679 -0.3412  0.0279
 3556W        W41050  20.899  25.392   2.467 -0.2169  0.0887  0.1643
 3557W        W41051  11.063   5.470  10.330  0.0194 -0.1602  0.0359
 3558W        W41052  35.330  34.859  18.756 -0.1065  0.1328 -0.0923
 3559W        W41053   9.672   8.122   3.305  0.0303  0.0641 -0.1275
 3560W        W41054  24.615  23.951   0.040  0.0172  0.1167 -0.0826
 3561W        W41055  19.645   4.421  20.147  0.0760 -0.1443  0.1971
 3562W        W41056  24.858   1.463  25.450 -0.2643 -0.0717 -0.0704
 3563W        W41057  11.367  17.029  12.171 -0.2553  0.2330 -0.1272
 3564W        W41058   3.749  14.071  23.015 -0.0215 -0.1401  0.1005
 3565W        W41059   2.297  32.722  10.271  0.2764  0.1783 -0.1691
 3566W        W41060  12.043  13.172   6.182 -0.1625 -0.0212  0.0514
 3567W        W41061  32.556  21.883  19.707  0.2321  0.0735  0.0867
 3568W        W41062   9.327  17.212   9.137 -0.1276  0.0216 -0.2644
 3569W        W41063   1.041  32.877  26.101  0.0977 -0.0319  0.1608
 3570W        W41064  31.405   7.495  23.454  0.1306  0.1926  0.0430
 3571W        W41065  26.525   8.425  16.432  0.4108 -0.1068 -0.2687
 3572W        W41066   8.797  18.674   2.769 -0.1098 -0.2661  0.2163
 3573W        W41067  16.634  14.071  24.075  0.0345 -0.0943 -0.0214
 3574W        W41068  12.812   7.220   5.162  0.0702 -0.0830  0.2474
 3575W        W41069  18.138   1.369   1.592  0.4276  0.1117 -0.0471
 3576W        W41070   1.273  34.508  23.671 -0.0668 -0.0699  0.1470
 3577W        W41071  17.864   9.683  12.519  0.0366  0.0136 -0.2537
 3578W        W41072  14.325  23.218  26.144 -0.1794 -0.0781 -0.1987
 3579W        W41073  10.260   4.698   8.407 -0.1432  0.1864  0.3243
 3580W        W41074  33.508  30.102  24.229  0.2718 -0.2082  0.2452
 3581W        W41075  22.680  26.557  17.433 -0.2766 -0.0461 -0.2660
 3582W        W41076  15.866  28.473  11.433 -0.0886 -0.0189 -0.0794
 3583W        W41077  20.518   5.344  24.077  0.0004  0.0466  0.1541
 3584W        W41078  19.485  29.190   9.456  0.1836 -0.1371 -0.0387
 3585W        W41079  15.218  16.457   1.766  0.0282  0.1787 -0.0761
 3586W        W41080  33.477   4.370  12.038  0.3042 -0.0059  0.1684
 3587W        W41081  22.758   3.435  19.058 -0.0279 -0.1333  0.0033
 3588W        W41082  18.130  14.478   9.253  0.1081  0.2616  0.2368
 3589W        W41083   6.954  10.805   2.191  0.1039  0.3103 -0.1543
 3590W        W41084  13.848  34.598   9.239 -0.0680 -0.0186  0.2516
 3591W        W41085   7.611  16.761  25.503  0.0245 -0.0784 -0.1301
 3592W        W41086  20.652   6.993  25.972 -0.2486 -0.1105 -0.0742
 3593W        W41087  32.162  19.190   5.405 -0.0500  0.0506  0.2602
 3594W        W41088  23.265  18.478   1.440  0.1163 -0.2235  0.1299
 3595W        W41089  25.185  33.159  25.874  0.0682 -0.1369 -0.1639
 3596W        W41090   3.573  25.098   1.387  0.0028 -0.0027 -0.0494
 3597W        W41091  18.563  24.897  23.025 -0.1115  0.0315  0.1524
 3598W        W41092  21.993  11.705  17.026  0.2132 -0.0927  0.1576
 3599W        W41093  24.318  24.200  21.159  0.0873  0.0930  0.1023
 3600W        W41094  31.676  23.390  21.280 -0.2302  0.0473 -0.2401
 3601W        W41095  14.545  11.215  22.140  0.3890 -0.0294  0.1791
 3602W        W41096  24.329  14.698  19.554  0.2688  0.2396  0.2661
 3603W        W41097  22.676  16.498   2.252 -0.1510 -0.2027  0.1194
 3604W        W41098  33.635  31.944   4.192 -0.0098 -0.0463 -0.0871
 3605W        W41099   4.401  28.279   4.751 -0.0737  0.0338 -0.0077
 3606W        W41100   6.550   1.008  12.596  0.1635  0.4253  0.1307
 3607W        W41101  32.831  15.890  20.645  0.1778  0.2206  0.1487
 3608W        W41102   9.748   8.745  13.352  0.1895  0.1582 -0.4383
 3609W        W41103  31.267   7.988  19.685 -0.1936  0.0549  0.0870
 3610W        W41104   2.409  25.464  18.222 -0.1529  0.2272 -0.1205
 3611W        W41105  13.517   3.877  25.261  0.1862  0.1222  0.1715
 3612W        W41106   1.725  31.808   0.714 -0.0672  0.0728 -0.1033
 3613W        W41107  16.868  21.935  11.271  0.0577 -0.0576  0.1614
 3614W        W41108  26.471   1.712   2.539 -0.3010 -0.0599  0.3996
 3615W        W41109  35.019   7.750  21.073  0.1094  0.0703 -0.0178
 3616W        W41110   0.366  15.883  15.297 -0.0300  0.1477  0.3046
 3617W        W41111   5.963  35.004  10.290  0.1247  0.0485  0.2444
 3618W        W41112   9.092  10.003   6.925  0.0076 -0.0230 -0.1109
 3619W        W41113   0.761   0.209  20.184  0.0518  0.3544 -0.0320
 3620W        W41114   5.051   2.811  20.681 -0.0940 -0.1356 -0.2359
 3621W        W41115   1.260   2.847  16.856 -0.0629 -0.0919  0.0772
 3622W        W41116  14.935   9.389  21.235  0.4674  0.0066 -0.0951
 3623W        W41117   2.042   7.523  20.437 -0.0414  0.0683  0.2098
 3624W        W41118  29.867   3.040  23.888  0.2588 -0.1001  0.0334
 3625W        W41119   6.261  25.809   7.438 -0.0189 -0.0226 -0.0080
 3626W        W41120  29.828  33.809  22.051 -0.2247  0.0169 -0.2888
 3627W        W41121  18.435  14.471   6.291  0.1110  0.2770 -0.2196
 3628W        W41122   9.131  22.890   1.892  0.0928  0.0848  0.5004
 3629W        W41123   2.763  14.649  16.481  0.0631 -0.2175  0.0889
 3630W        W41124  18.164  20.018   8.319 -0.3692 -0.1740  0.0210
 3631W        W41125  23.444  13.749  15.019  0.0292 -0.0368  0.0005
 3632W        W41126  17.653  32.415   1.611  0.2219 -0.2667 -0.1106
 3633W        W41127  14.174   0.548  24.537  0.0519  0.0614 -0.5251
 3634W        W41128   5.923  16.400   5.210 -0.0788 -0.1893  0.1888
 3635W        W41129   6.208  30.239  13.114  0.1013  0.1318 -0.3632
 3636W        W41130  24.171  22.078  13.863 -0.3137  0.4235  0.1120
 3637W        W41131  28.135  11.462  20.214  0.2143  0.1524  0.2290
 3638W        W41132  33.189  34.490  12.799  0.1718 -0.0082  0.2969
 3639W        W41133  26.836  23.094  12.467  0.0264 -0.2277 -0.2316
 3640W        W41134  12.553  23.636  12.675  0.2719  0.0979  0.2726
 3641W        W41135  25.467  29.631  22.627 -0.0467  0.0316 -0.1968
 3642W        W41136  14.021  29.644  13.813  0.0080 -0.0875 -0.3159
 3643W        W41137   8.076  32.535  12.585 -0.0592  0.3457  0.1388
 3644W        W41138   7.439  28.128   6.681 -0.6889 -0.2204  0.0419
 3645W        W41139  12.574  19.548  13.210  0.3118 -0.0978  0.2660
 3646W        W41140  16.860  29.521   7.355 -0.2601 -0.1347 -0.2146
 3647W        W41141  17.543  21.801   8.916  0.0038  0.1930 -0.0601
 3648W        W41142  29.915   0.574   6.371 -0.0052  0.1027 -0.0245
 3649W        W41143   2.111  24.104  19.465 -0.1688 -0.2775 -0.0272
 3650W        W41144  18.229  31.629  17.017  0.2227 -0.1185 -0.1208
 3651W        W41145  29.910  27.537  20.450 -0.2223  0.1983  0.0489
 3652W        W41146   3.001   5.345  21.313 -0.2077 -0.0514 -0.1384
 3653W        W41147  21.603  34.949   0.005  0.0264  0.0622 -0.0319
 3654W        W41148  15.468  10.470   4.850 -0.2154 -0.2736  0.2572
 3655W        W41149  10.083   7.305  14.091 -0.1466 -0.0640  0.0313
 3656W        W41150  31.192   5.335  12.207  0.0745  0.2603 -0.0828
 3657W        W41151  21.133  32.369   4.374  0.0714  0.0377 -0.3606
 3658W        W41152  27.144  17.026  14.886  0.2620 -0.3489  0.3667
 3659W        W41153  21.537  26.755  25.778 -0.0159  0.1681  0.2938
 3660W        W41154  23.014  26.166   1.134 -0.2617 -0.0311 -0.1549
 3661W        W41155  12.598  26.272  13.756  0.1230  0.0496 -0.3585
 3662W        W41156  11.883  27.198  12.218  0.1696 -0.1091  0.0517
 3663W        W41157  28.897  33.330   4.406 -0.1214 -0.0116 -0.1154
 3664W        W41158   0.045  14.427  22.693  0.0024  0.0692  0.2488
 3665W        W41159  19.821  28.366  18.430  0.1200  0.2468 -0.0586
 3666W        W41160  17.437  15.662   6.470 -0.1592 -0.1772 -0.5942
 3667W        W41161  17.767   2.911  19.089 -0.1845 -0.0935  0.2545
 3668W        W41162  15.278  10.960   6.887  0.1101 -0.1117 -0.2007
 3669W        W41163  15.008  22.214   8.041  0.3502  0.1244 -0.1455
 3670W        W41164  25.853   6.531  20.956 -0.1236 -0.1475  0.2506
 3671W        W41165   2.336  26.225   5.764  0.1451 -0.3010  0.2680
 3672W        W41166   4.362   6.226  22.870  0.1938  0.2294  0.0051
 3673W        W41167  20.919  18.268   4.805  0.0167  0.1886 -0.0538
 3674W        W41168   8.295   6.843   8.756 -0.0028  0.1687  0.3188
 3675W        W41169  13.024  17.351  23.025 -0.0296 -0.2207 -0.2196
 3676W        W41170  32.955  21.057  13.580  0.1160 -0.1202  0.3802
 3677W        W41171  18.367   2.007  20.623 -0.1372 -0.0811  0.0081
 3678W        W41172   4.160  29.597  25.723  0.0461  0.2301  0.0599
 3679W        W41173   8.706  27.941   1.327  0.2545 -0.0208 -0.1484
 3680W        W41174  17.150   9.743  11.662 -0.1358 -0.1331  0.0301
 3681W        W41175  27.806   1.002  20.467 -0.0774 -0.2615  0.3226
 3682W        W41176   0.874  29.681  24.671 -0.3522  0.3696  0.2446
 3683W        W41177   2.072  24.099  24.859 -0.2703  0.2906 -0.1620
 3684W        W41178  26.783  17.478  16.184 -0.1968  0.1811  0.1426
 3685W        W41179  10.653  32.960  25.527 -0.2689  0.3129 -0.1543
 3686W        W41180  33.564   0.883  19.649 -0.2054 -0.1754  0.2368
 3687W        W41181  12.017  10.937   1.126 -0.0625  0.1663  0.2074
 3688W        W41182  34.156   8.934  15.760 -0.2732 -0.1979  0.1713
 3689W        W41183  24.220   3.894  25.267 -0.1465 -0.4034 -0.0544
 3690W        W41184  14.282  18.446  26.060  0.1329  0.0554 -0.0542
 3691W        W41185   8.682  28.736   9.338 -0.0245  0.1554  0.2613
 3692W        W41186  32.493  16.369  23.160  0.1603  0.1412 -0.2436
 3693W        W41187   8.150  29.457  11.787 -0.0658 -0.2096 -0.0022
 3694W        W41188   3.169   4.820   4.623 -0.1126  0.0564  0.2107
 3695W        W41189  33.629  11.107   1.381 -0.0645  0.0866 -0.1957
 3696W        W41190  24.504  16.390  15.982  0.0630 -0.2282  0.0571
 3697W        W41191  31.116   5.373  18.553 -0.0434 -0.2291 -0.0998
 3698W        W41192  21.316  21.110  18.126  0.0637  0.2810  0.0112
 3699W        W41193  34.364   2.843   5.852  0.3503  0.4495 -0.0346
 3700W        W41194  23.130  33.899  23.344 -0.0995 -0.1972  0.1651
 3701W        W41195   5.449  25.345   2.513 -0.1164  0.5190 -0.0237
 3702W        W41196  34.946  20.717  15.712  0.0534 -0.3932  0.4041
 3703W        W41197   2.700  10.486  19.760  0.0649 -0.2650  0.2197
 3704W        W41198  31.811   2.618  25.215 -0.3020 -0.0574  0.2356
 3705W        W41199  33.336   0.545  17.948  0.1298 -0.0128  0.0413
 3706W        W41200  22.639   1.971  17.011 -0.0286  0.1610  0.3552
 3707W        W41201   6.325  27.849   5.269  0.2599  0.1298 -0.0010
 3708W        W41202   4.017  11.325  18.524  0.0764 -0.1930  0.2201
 3709W        W41203  28.575  12.607   8.857 -0.3061  0.1144 -0.4670
 3710W        W41204  27.391   7.281  19.927 -0.1038  0.0691  0.0523
 3711W        W41205  15.579  27.632   1.588  0.0593 -0.0103 -0.0808
 3712W        W41206   8.922   7.025   3.143  0.1348 -0.1856  0.2422
 3713W        W41207  17.205  24.872   4.728  0.0396 -0.0238 -0.3598
 3714W        W41208  31.174  15.268  15.652  0.0251 -0.1080  0.1058
 3715W        W41209  30.298  34.652  15.612  0.2404  0.2739  0.0527
 3716W        W41210   1.713  32.297   4.125 -0.2077  0.0731  0.1623
 3717W        W41211   5.265  24.290   1.909 -0.2939  0.2050  0.1219
 3718W        W41212  23.302   1.811   1.953 -0.2713  0.0968 -0.2725
 3719W        W41213  11.849  33.559   4.620  0.0741 -0.1389 -0.0923
 3720W        W41214  14.612  32.796   5.162 -0.0079  0.0881 -0.1644
 3721W        W41215  21.218   4.084   9.379  0.0129  0.0586 -0.1001
 3722W        W41216   6.029  12.639   7.497 -0.1687  0.0534 -0.1481
 3723W        W41217  21.744  13.691  18.782 -0.2612  0.0205  0.2225
 3724W        W41218   6.891  21.356   8.110 -0.1118  0.3829 -0.2663
 3725W        W41219   6.462  29.444   2.895 -0.1528  0.0836 -0.1883
 3726W        W41220   7.802   6.689  21.872 -0.1454  0.0878  0.1454
 3727W        W41221  34.170   3.429   0.326 -0.0966  0.0601 -0.1523
 3728W        W41222   7.948  15.532  21.939  0.3512 -0.1225  0.1093
 3729W        W41223   4.526  12.986  18.139 -0.1013  0.0365  0.0673
 3730W        W41224  18.089  25.248  20.502  0.0665 -0.0691 -0.0611
 3731W        W41225   3.928   3.298  25.819 -0.3724  0.1373 -0.0042
 3732W        W41226   2.991   8.158   4.577  0.2449  0.1385 -0.4714
 3733W        W41227   0.580   8.458  14.645  0.1306  0.2346 -0.1564
 3734W        W41228  10.281  22.903   1.372  0.2024  0.1878 -0.1718
 3735W        W41229  31.045  24.070  11.048 -0.1504  0.0978  0.3134
 3736W        W41230   3.498  11.905   5.958  0.1150  0.1426 -0.1194
 3737W        W41231   6.493  17.200   6.432  0.1690 -0.0069  0.1456
 3738W        W41232  30.529  29.082  17.887  0.1647  0.0333 -0.2297
 3739W        W41233   3.083  20.594  23.719  0.2925  0.0615 -0.4464
 3740W        W41234   7.074   4.930   6.143 -0.1456  0.0843  0.0058
 3741W        W41235  21.749  10.223  24.212 -0.1099  0.1292 -0.2334
 3742W        W41236   6.388  32.151  14.563  0.1764 -0.1053 -0.2007
 3743W        W41237  19.582  13.935   0.931 -0.2248 -0.0415 -0.1968
 3744W        W41238  15.792  21.565   8.866  0.1719  0.3246  0.0560
 3745W        W41239  13.703   3.928  22.939  0.0559 -0.1047 -0.1138
 3746W        W41240  20.940  28.909   6.330  0.0843  0.0873 -0.1674
 3747W        W41241  11.454  29.048   1.437  0.3660 -0.1094  0.0353
 3748W        W41242  26.187  12.848  23.729  0.2047  0.4195  0.1367
 3749W        W41243   1.202   4.202   7.606 -0.2629 -0.0006 -0.3701
 3750W        W41244  32.169  19.668  23.359  0.0715 -0.4005 -0.1511
 3751W        W41245  29.384  24.083  19.977  0.1894 -0.0804  0.1450
 3752W        W41246   1.409  19.521  20.889 -0.0859 -0.1412 -0.3593
 3753W        W41247  16.988  14.881  20.885  0.0140  0.2288 -0.0589
 3754W        W41248  15.871  32.619  19.743 -0.0691 -0.1870 -0.1844
 3755W        W41249  17.227  26.509   2.364 -0.0002  0.0328 -0.1759
 3756W        W41250   3.930  17.491   2.201  0.0637 -0.0679 -0.1240
 3757W        W41251  10.958  30.126  23.928 -0.1239  0.0624 -0.3061
 3758W        W41252  29.113  19.522  25.409  0.0220 -0.1340  0.0043
 3759W        W41253  14.170  22.304   0.913  0.0124 -0.0033 -0.0059
 3760W        W41254  26.978  15.027  22.751  0.0779 -0.1180 -0.1747
 3761W        W41255  15.062  11.975  20.765  0.0427 -0.0045 -0.3045
 3762W        W41256   1.038  16.772  14.477  0.1534 -0.0563  0.0828
 3763W        W41257   6.758  32.150  21.132  0.0693 -0.0795 -0.0199
 3764W        W41258  34.110  31.960  21.671  0.0270  0.1718  0.0843
 3765W        W41259  16.503  27.290   0.266 -0.4781 -0.1298 -0.1535
 3766W        W41260  34.882  32.339  16.538  0.0176 -0.1582  0.2562
 3767W        W41261  34.847   1.278  20.042 -0.2046  0.1466  0.0630
 3768W        W41262  18.046   4.976  25.323  0.1160 -0.1085  0.4228
 3769W        W41263   2.421  28.584  21.851 -0.1653  0.0078 -0.0269
 3770W        W41264  13.337  30.377   7.493  0.2215  0.0194  0.0852
 3771W        W41265  26.001   6.011  22.909  0.0728 -0.5906 -0.2869
 3772W        W41266  34.591   2.290   3.354  0.0410 -0.1770 -0.0683
 3773W        W41267  28.336  13.258  16.708 -0.0310  0.1719  0.1243
 3774W        W41268   8.552  29.803   3.420  0.2750 -0.5060  0.0439
 3775W        W41269  26.308  25.522  13.909  0.1096  0.2318  0.0539
 3776W        W41270  18.903  29.952  17.840  0.1466 -0.1041  0.3443
 3777W        W41271   9.660  23.440   9.779  0.1932  0.1392 -0.1242
 3778W        W41272   6.392  27.991  23.442  0.1837  0.1471  0.2155
 3779W        W41273  14.273   4.439   0.090 -0.3350 -0.0371 -0.0594
 3780W        W41274   7.168   1.309   0.678 -0.0312 -0.0846 -0.0444
 3781W        W41275  22.034  16.072  18.556 -0.2070 -0.2695  0.1059
 3782W        W41276   0.182  27.148   3.794  0.0890 -0.2396 -0.0037
 3783W        W41277   8.004  23.170  21.173 -0.0794 -0.1757  0.0164
 3784W        W41278  26.538  17.031   7.629 -0.1572 -0.0435 -0.4451
 3785W        W41279  29.550   3.586  14.837 -0.1283 -0.2001  0.1504
 3786W        W41280  31.390  17.637  18.879 -0.2368  0.1054  0.0600
 3787W        W41281  35.383  31.029   3.812 -0.2323  0.1873  0.2465
 3788W        W41282  27.966  29.254   0.682 -0.2917 -0.2983  0.0510
 3789W        W41283  32.386   0.587  18.067  0.3333  0.2171 -0.1815
 3790W        W41284  20.640  30.295   6.798  0.1429  0.0768  0.1247
 3791W        W41285  27.221  22.881   0.419 -0.0343  0.0790 -0.2953
 3792W        W41286  34.865   7.258   0.413  0.0959 -0.0046 -0.2258
 3793W        W41287   6.934   8.095   4.493  0.0757  0.1113 -0.1916
 3794W        W41288   2.527  27.543  24.563 -0.1656 -0.2826 -0.0916
 3795W        W41289   4.661  13.689   1.472 -0.1777 -0.0784 -0.4475
 3796W        W41290   2.117  24.045  18.138  0.1340  0.0294 -0.1971
 3797W        W41291   0.064  14.400  20.736 -0.0804 -0.1603  0.0848
 3798W        W41292  34.607  18.353   9.512 -0.0512 -0.3223 -0.1249
 3799W        W41293   3.655   8.539   4.054  0.1427  0.1544 -0.0069
 3800W        W41294  17.054  15.546   4.491  0.1584  0.2498  0.1803
 3801W        W41295  33.373  21.044  10.405 -0.1617 -0.1298 -0.0318
 3802W        W41296  26.513  16.478  18.865 -0.0715  0.2762  0.0252
 3803W        W41297  27.063   5.166   1.552 -0.1803 -0.3695  0.3168
 3804W        W41298  11.947   2.359  19.912  0.1011  0.1729  0.0202
 3805W        W41299  33.942   9.567  15.003  0.1705  0.0970  0.1273
 3806W        W41300  13.521  32.137   9.310 -0.1746 -0.1093  0.2754
 3807W        W41301  24.263  20.054  15.417 -0.3866 -0.1557  0.0344
 3808W        W41302  29.870  17.660  11.508 -0.3258  0.2835  0.2946
 3809W        W41303  33.330  29.648  13.113 -0.2802  0.0052  0.3087
 3810W        W41304  23.269  11.043  18.190 -0.0575 -0.0024  0.0349
 3811W        W41305   9.347   0.173   4.742  0.2326  0.0844 -0.3059
 3812W        W41306  18.605  26.733   0.731  0.2121 -0.0825 -0.0023
 3813W        W41307  12.743  20.053  16.044  0.1749 -0.1181 -0.1076
 3814W        W41308  11.451   7.432  23.697  0.1585 -0.1235 -0.3025
 3815W        W41309  29.097  30.573   1.070  0.0853 -0.0038 -0.0002
 3816W        W41310  26.850  31.897  23.495 -0.1296  0.3811  0.1033
 3817W        W41311  11.096  15.277  25.274 -0.1079  0.0861  0.0050
 3818W        W41312  19.134  30.951  16.799  0.1643 -0.0075 -0.2757
 3819W        W41313  10.711   5.566   1.211 -0.1222  0.3539 -0.3177
 3820W        W41314  26.656  23.991  25.051 -0.0870  0.2624  0.0703
 3821W        W41315  17.946   6.068  18.629 -0.0798  0.0848 -0.3497
 3822W        W41316  12.117   3.796  26.105 -0.0367  0.1353 -0.1080
 3823W        W41317  16.620  31.384  23.989  0.2253 -0.1803 -0.1360
 3824W        W41318  28.445  19.261  17.973  0.1139  0.2250  0.2360
 3825W        W41319   2.558   8.801  25.869 -0.1332 -0.1782 -0.1938
 3826W        W41320  29.241  34.371  23.705 -0.1547 -0.1256 -0.3893
 3827W        W41321  20.644  27.749   0.510  0.3562 -0.0934 -0.0286
 3828W        W41322  29.846  21.989   6.030  0.1902 -0.0888  0.0472
 3829W        W41323   4.452  29.479   9.057  0.0233 -0.0568  0.0744
 3830W        W41324  20.163   5.885   8.741  0.2332 -0.3173 -0.0252
 3831W        W41325  27.882   0.081   4.121 -0.3228 -0.0052  0.2730
 3832W        W41326  14.633  33.399   5.151 -0.0229  0.1533  0.0952
 3833W        W41327  11.946  13.991  12.986  0.1776 -0.0816 -0.5121
 3834W        W41328  26.685  30.346  18.661 -0.5224  0.1307  0.0630
 3835W        W41329   8.739  32.716  12.167 -0.3177 -0.4214 -0.1009
 3836W        W41330  22.339  16.820   3.067  0.2072  0.1060  0.0962
 3837W        W41331  24.041  21.699  13.476  0.1282 -0.5495  0.0769
 3838W        W41332  34.746   1.253  18.613  0.1265 -0.0991 -0.0997
 3839W        W41333  10.294   9.728   0.195  0.1348  0.2176 -0.0670
 3840W        W41334   8.211  21.942  24.762  0.0460  0.0349  0.1750
 3841W        W41335  27.137  31.676  15.921 -0.1576 -0.0986  0.0120
 3842W        W41336  34.415  15.004  18.700 -0.0499  0.0052 -0.1739
 3843W        W41337  31.904  34.042  12.459  0.4318 -0.1793 -0.2802
 3844W        W41338   1.388  23.121  18.875 -0.0744  0.2328 -0.2319
 3845W        W41339  26.400  29.325  17.027 -0.2635 -0.0597 -0.0524
 3846W        W41340  11.450  24.816  23.704 -0.0371  0.1378  0.1387
 3847W        W41341   6.503   3.406   3.411 -0.0772  0.0757 -0.2850
 3848W        W41342   4.565  34.816   7.156  0.0817  0.3452 -0.0309
 3849W        W41343  24.486   2.363  14.739 -0.0158  0.1931  0.1618
 3850W        W41344  27.094  35.198  22.540  0.6602 -0.2601 -0.1689
 3851W        W41345  34.570   4.816  19.984 -0.0759  0.4094 -0.1718
 3852W        W41346   1.314   0.207   5.355  0.2517 -0.0041  0.1098
 3853W        W41347  25.019  31.618  25.216 -0.1864  0.1063 -0.0562
 3854W        W41348  17.343  26.570  22.358  0.1142  0.1188 -0.0569
 3855W        W41349  31.022  18.304  22.786  0.0792 -0.2506 -0.2133
 3856W        W41350  32.436  21.614  21.551  0.0932  0.0319  0.0286
 3857W        W41351  35.058  27.754  24.345  0.0622 -0.0414  0.2372
 3858W        W41352  17.491   6.213   0.350 -0.4350 -0.0221  0.2229
 3859W        W41353  27.553  12.441  21.035 -0.0379 -0.0489 -0.2600
 3860W        W41354  18.590   2.495  17.664  0.0795  0.0516  0.0874
 3861W        W41355  17.313  11.635   2.520 -0.0414 -0.3919  0.1283
 3862W        W41356  30.089  26.351  25.959 -0.1519 -0.0850 -0.0320
 3863W        W41357  12.340  18.332   2.981 -0.3476  0.3673 -0.4971
 3864W        W41358   4.730   3.184   8.640 -0.0261  0.1296  0.2478
 3865W        W41359  20.745  29.980  21.915  0.0288 -0.1625 -0.1837
 3866W        W41360   1.948  21.164   0.373 -0.2262  0.0672  0.1547
 3867W        W41361   6.510  20.242   3.510 -0.1880  0.0335 -0.0208
 3868W        W41362   7.973   7.553  23.579  0.1096 -0.2614 -0.1619
 3869W        W41363  18.438  17.228   7.160 -0.1535 -0.2279  0.1819
 3870W        W41364  11.335  19.939   2.557  0.4151  0.1257  0.0101
 3871W        W41365   7.379  26.195  22.324 -0.3781  0.2455 -0.0754
 3872W        W41366  12.438  26.356  13.197  0.1460  0.0469 -0.2572
 3873W        W41367  24.050  29.785  17.934 -0.0995  0.0364 -0.2481
 3874W        W41368  16.061  10.748   1.136  0.0728  0.0590  0.3185
 3875W        W41369  20.886  16.411  17.666  0.2229  0.1560  0.1284
 3876W        W41370   2.927  10.054   2.669  0.0277  0.0513 -0.0160
 3877W        W41371  30.307  14.497   7.005 -0.1109 -0.0367  0.0614
 3878W        W41372   5.599  34.490   4.694  0.2737  0.1863  0.2394
 3879W        W41373   9.230  30.373  21.408  0.0690  0.0053 -0.1725
 3880W        W41374   9.554  10.422  11.762  0.1111  0.2753  0.1358
 3881W        W41375  18.681  32.816   6.825 -0.1080  0.2575  0.0399
 3882W        W41376   3.374   9.698  21.659  0.3032 -0.0892 -0.1246
 3883W        W41377  25.665  22.968  18.451 -0.0145 -0.1560  0.3141
 3884W        W41378  31.126  14.960  24.764  0.1646  0.0944  0.1315
 3885W        W41379   7.482  33.395  21.721 -0.1301  0.0437 -0.2497
 3886W        W41380  34.636  29.096   6.576  0.3022  0.1870 -0.3735
 3887W        W41381  30.621  23.248  13.026 -0.4176 -0.2374 -0.3519
 3888W        W41382  31.557   1.814  13.622 -0.2357  0.0148 -0.6365
 3889W        W41383   1.491  14.349   1.142  0.0077  0.1620  0.1889
 3890W        W41384   8.172  17.632  18.173  0.1815 -0.2432  0.0224
 3891W        W41385   0.560  31.316  24.968  0.2688 -0.0905 -0.0942
 3892W        W41386   4.359  32.077  22.557  0.1983 -0.0058 -0.1879
 3893W        W41387  19.662  24.240   8.047  0.1669  0.0874 -0.2348
 3894W        W41388   7.519  29.790  22.169 -0.0576 -0.3045 -0.0232
 3895W        W41389  24.541  12.813  10.586 -0.0153  0.0538 -0.0731
 3896W        W41390  11.020  33.680   2.405 -0.2578  0.1161  0.0156
 3897W        W41391  20.131  28.987  16.861 -0.2397  0.2784 -0.3568
 3898W        W41392   4.935  16.664   0.403  0.0212  0.0147 -0.1806
 3899W        W41393  28.561  27.478  19.171  0.2272  0.2984  0.2901
 3900W        W41394   8.023   3.086   2.617  0.0534 -0.1492 -0.4931
 3901W        W41395  14.418   0.989  22.187 -0.0003 -0.0396  0.4214
 3902W        W41396   6.855  24.590   9.133  0.1129  0.0364  0.1691
 3903W        W41397  14.545  18.984  15.539  0.1337 -0.0174  0.0914
 3904W        W41398  10.769  10.368  23.593  0.0393  0.2411 -0.2607
 3905W        W41399  29.444  14.012  18.805  0.1647  0.2423 -0.0433
 3906W        W41400  32.269   7.606  20.828  0.2517 -0.2167 -0.1142
 3907W        W41401  33.664  13.167   7.543 -0.0543  0.0408 -0.2042
 3908W        W41402   4.508  27.416  23.804  0.2376  0.1074  0.0813
 3909W        W41403  17.485  10.464   0.124  0.0071 -0.2019  0.0927
 3910W        W41404  12.540  27.144   2.676  0.1379 -0.2203 -0.2345
 3911W        W41405  35.260  31.708   4.968  0.2024 -0.1411 -0.2794
 3912W        W41406  16.626  15.656   2.124  0.0487  0.0891 -0.0528
 3913W        W41407  10.100  30.481  14.576  0.0143  0.0637  0.0849
 3914W        W41408   5.423  29.391   5.540 -0.0608  0.0614 -0.0581
 3915W        W41409  13.435  10.335  23.049 -0.1224  0.0323  0.0782
 3916W        W41410   9.352  21.001  21.895 -0.4289 -0.0504 -0.0079
 3917W        W41411  32.754  22.685  25.868 -0.0593 -0.0194 -0.1179
 3918W        W41412  27.091  26.246  24.148 -0.0978 -0.0621 -0.2451
 3919W        W41413   3.530  33.180  11.992 -0.3078  0.0660 -0.1884
 3920W        W41414  14.411  16.252  10.082  0.1426  0.2891  0.0742
 3921W        W41415  26.873  26.567  25.982 -0.2162  0.1953 -0.2164
 3922W        W41416  20.954  18.837   7.032  0.2127  0.1287 -0.0035
 3923W        W41417  22.055   6.279  25.050 -0.2111 -0.2706  0.1131
 3924W        W41418  26.886   9.621   9.295  0.1503 -0.0552  0.3999
 3925W        W41419  25.883  10.808  17.393 -0.2703  0.0030 -0.1191
 3926W        W41420  14.253  20.321  23.013 -0.0030 -0.2365  0.2999
 3927W        W41421  15.873  12.334   4.759 -0.0310  0.2973  0.0583
 3928W        W41422  15.148  22.354  22.261  0.1231  0.1650 -0.0945
 3929W        W41423  30.047   9.351   0.528  0.2113 -0.1855 -0.2594
 3930W        W41424  25.446  25.468   2.090 -0.0060 -0.3558 -0.1957
 3931W        W41425  16.234  20.243  24.499 -0.1071  0.1528  0.0156
 3932W        W41426  29.477  15.185  13.463 -0.0706 -0.0360 -0.1149
 3933W        W41427   9.202  15.517  10.060  0.1105 -0.1749  0.1475
 3934W        W41428   9.361  10.059   8.244 -0.1363 -0.3416 -0.0304
 3935W        W41429  33.528  20.577  24.556 -0.1219  0.2211  0.0151
 3936W        W41430   7.078  11.387  10.119 -0.0887 -0.0384 -0.0659
 3937W        W41431  34.198   5.388  13.822  0.2371 -0.1049  0.3174
 3938W        W41432  28.116  17.904  18.871 -0.1322 -0.2821  0.1027
 3939W        W41433  29.593  14.713  17.183 -0.3255  0.2235 -0.0027
 3940W        W41434  13.552  31.019   2.793  0.0838 -0.1158  0.1179
 3941W        W41435  22.569  24.994  24.934  0.1048  0.1283 -0.1273
 3942W        W41436  29.428  30.994   0.195 -0.2629 -0.0299 -0.2211
 3943W        W41437  22.645  10.910  19.007  0.0353  0.2262  0.0058
 3944W        W41438  25.727  32.073  23.875  0.1940  0.4118  0.0370
 3945W        W41439  29.571  16.042  21.991 -0.0792 -0.1180  0.3749
 3946W        W41440  11.458  27.842   1.993  0.3178 -0.2230  0.2703
 3947W        W41441  14.891  26.789  21.424 -0.0897  0.1010  0.2874
 3948W        W41442  33.642   6.389  12.495 -0.0091  0.0143 -0.1761
 3949W        W41443  31.025  28.015  24.742  0.1137 -0.0203  0.0006
 3950W        W41444  14.993   1.559   1.669 -0.1700 -0.1593 -0.0679
 3951W        W41445   6.132   1.912  11.348  0.0503  0.0745  0.0638
 3952W        W41446  24.058  21.078  12.995 -0.2664 -0.2243  0.1810
 3953W        W41447   1.279  19.388  10.389 -0.2435  0.0401  0.2422
 3954W        W41448  22.485  28.191   5.585  0.3295 -0.2893  0.2963
 3955W        W41449   1.719  34.116  16.461  0.2601  0.0355 -0.3415
 3956W        W41450  20.865  33.338  21.765 -0.0989 -0.0529 -0.2187
 3957W        W41451  23.218   3.248  18.384 -0.0992  0.2363  0.0141
 3958W        W41452  32.245   9.225  15.000 -0.1221 -0.1236 -0.2754
 3959W        W41453  30.686  20.034  23.498  0.0053  0.0830  0.3179
 3960W        W41454  13.732  14.879  19.323 -0.1840 -0.1412 -0.0127
 3961W        W41455  25.120  25.067  10.823 -0.0745  0.1605  0.2993
 3962W        W41456  16.932  33.790   9.729 -0.0082 -0.0703 -0.1813
 3963W        W41457  11.334  28.530  15.112 -0.0863  0.1215  0.1150
 3964W        W41458  26.264  28.401   1.790  0.2091 -0.0308 -0.2055
 3965W        W41459  27.556  30.922  16.217  0.0788 -0.2586  0.0982
 3966W        W41460  10.646  29.219  14.894 -0.2537  0.3618  0.2063
 3967W        W41461  28.082  25.127  21.710 -0.2114  0.2530 -0.1022
 3968W        W41462  30.734   9.848  24.350  0.0340 -0.1151 -0.2680
 3969W        W41463  10.375   5.889   0.439  0.0314  0.0779 -0.0890
 3970W        W41464  29.671   2.974   5.353  0.1810 -0.1618  0.0871
 3971W        W41465   8.291  21.645  13.222  0.2329 -0.1187  0.0509
 3972W        W41466  24.803  20.555  13.165  0.1186 -0.0198 -0.0950
 3973W        W41467  21.305   1.411   0.213  0.3196 -0.1819 -0.0390
 3974W        W41468  12.773  15.186   3.500  0.1080 -0.0020  0.0845
 3975W        W41469   5.228   9.955   0.932 -0.0031  0.0620 -0.1286
 3976W        W41470  33.420  26.060  18.728  0.0132  0.0498 -0.0305
 3977W        W41471  14.030  19.451  13.999  0.1888 -0.1033  0.0159
 3978W        W41472  12.395  27.725  17.655 -0.0696  0.0663  0.1521
 3979W        W41473  24.890  12.684  24.586 -0.0207  0.0426  0.1638
 3980W        W41474  33.697  14.148   8.361 -0.0895 -0.0358 -0.0401
 3981W        W41475  30.768  10.296  18.032  0.0894  0.1589 -0.5270
 3982W        W41476  28.913  19.288  24.565  0.2307 -0.0151 -0.0096
 3983W        W41477  33.048  15.779  12.394  0.6385 -0.0106  0.1186
 3984W        W41478  30.708  27.134  20.225 -0.0124 -0.2173 -0.0299
 3985W        W41479  33.784  33.998   1.772  0.0716  0.2491 -0.2729
 3986W        W41480   6.211   7.325  24.550  0.1771  0.3011 -0.0928
 3987W        W41481   3.286   0.190  24.834  0.2702 -0.1391  0.0987
 3988W        W41482   1.168   4.507   0.736  0.1460 -0.0885 -0.0923
 3989W        W41483  27.225  25.669  21.515  0.2451 -0.0230  0.3037
 3990W        W41484   3.922  16.738  25.984 -0.0675 -0.0454 -0.1725
 3991W        W41485   4.191  24.155  25.613  0.1468 -0.0879 -0.2570
 3992W        W41486  27.852  31.476  20.132  0.1956 -0.6234 -0.2494
 3993W        W41487  19.240  26.837  18.741 -0.1843  0.0983  0.0741
 3994W        W41488  18.006  17.415   3.611 -0.2936  0.0693  0.0784
 3995W        W41489  15.271  28.378   5.029  0.1507  0.0622  0.0875
 3996W        W41490  26.268  23.136  16.190  0.1734  0.0284  0.0597
 3997W        W41491  23.782  22.676  19.018 -0.1404 -0.1432  0.2887
 3998W        W41492  18.535  21.421   9.890  0.0387  0.1832 -0.2622
 3999W        W41493  24.463  32.315   3.317 -0.7324  0.3230 -0.0180
 4000W        W41494   3.775  13.241   0.522  0.1634  0.2918  0.2463
 4001W        W41495  11.382  25.817   4.633  0.0988  0.0411 -0.2646
 4002W        W41496  11.062   1.171   4.440  0.0116 -0.4097 -0.0631
 4003W        W41497   2.889  34.643   6.277  0.2632  0.1179 -0.0787
 4004W        W41498  21.128  20.373  19.435 -0.2538 -0.1620  0.2983
 4005W        W41499  20.998  28.646  16.735 -0.2348 -0.0301  0.0521
 4006W        W41500  28.914  22.946  14.006 -0.0150  0.0735  0.0134
 4007W        W41501  29.369  23.598   6.837 -0.0847  0.0906 -0.0988
 4008W        W41502  25.901  21.384  16.096  0.4052  0.1948 -0.2163
 4009W        W41503   7.013  20.414   0.850  0.0859 -0.2190  0.2139
 4010W        W41504  26.723  18.873  23.582 -0.1136  0.2694 -0.1807
 4011W        W41505  21.881  30.025  21.919 -0.1925 -0.2907 -0.1655
 4012W        W41506  15.396  32.430  21.108  0.3162  0.0718 -0.1568
 4013W        W41507   2.297  19.472  11.697 -0.2208  0.1745 -0.1066
 4014W        W41508  22.163  31.753   4.388  0.0252  0.1780 -0.2151
 4015W        W41509  24.003  14.085  14.613 -0.0661  0.1018 -0.3425
 4016W        W41510   4.437  23.816   4.240 -0.0376  0.0850 -0.0091
 4017W        W41511  11.397  17.443   6.697 -0.0860  0.1094  0.2246
 4018W        W41512   9.549  19.348  20.570 -0.0013 -0.2104  0.0173
 4019W        W41513  26.117  15.775  19.390  0.1279  0.0559  0.3690
 4020W        W41514   1.155   3.306  26.199  0.0216 -0.3262 -0.0991
 4021W        W41515  31.143  11.751  25.903  0.1251 -0.2417 -0.3007
 4022W        W41516   5.892  11.178  16.854 -0.0671 -0.0831 -0.1422
 4023W        W41517   4.725   6.366   3.462 -0.1234 -0.1753 -0.0914
 4024W        W41518  28.021  14.769   4.199  0.0207 -0.2011  0.0502
 4025W        W41519   1.268  13.533  24.035  0.3426  0.2019 -0.0234
 4026W        W41520  17.270  15.141   9.516  0.0540 -0.2678  0.3614
 4027W        W41521  26.983  11.277  18.309 -0.1789  0.1984  0.1483
 4028W        W41522  29.682   7.591  20.900 -0.1286 -0.0251 -0.0823
 4029W        W41523   9.757  27.009   9.989  0.3494 -0.1387  0.0757
 4030W        W41524  32.519  18.227  16.422  0.0995  0.1487  0.0326
 4031W        W41525   8.222  25.862   2.725  0.0675 -0.1124  0.3672
 4032W        W41526  11.573  12.291  23.155  0.0678 -0.0641  0.0371
 4033W        W41527  26.362   9.853  21.418  0.1071  0.2075  0.2636
 4034W        W41528  14.744   2.268   0.624 -0.1607 -0.3199 -0.2476
 4035W        W41529  25.773  26.380  20.460  0.1016  0.0684 -0.2566
 4036W        W41530  20.489  34.169  17.810 -0.0397  0.2490  0.1164
 4037W        W41531  23.817  16.640  21.825  0.3560 -0.1822 -0.0841
 4038W        W41532   6.237   8.357   8.084 -0.0417  0.0995  0.1067
 4039W        W41533  10.403   8.169   7.471  0.0200 -0.0398  0.0570
 4040W        W41534  30.502   3.765  12.542  0.1133 -0.3196 -0.1042
 4041W        W41535   1.202   4.059   3.741  0.0626 -0.2027  0.2743
 4042W        W41536  14.599   5.480  19.935  0.0938  0.0868 -0.0885
 4043W        W41537  20.180  11.900  20.576  0.0321  0.0330  0.2952
 4044W        W41538  16.236   0.893  24.215 -0.3714 -0.0869 -0.0126
 4045W        W41539   1.119   9.544  16.984 -0.1036 -0.0406 -0.1223
 4046W        W41540  16.631  13.332   0.750 -0.4349  0.1521 -0.0407
 4047W        W41541  26.482   0.721  23.179  0.0294 -0.3011  0.1073
 4048W        W41542  34.725  24.348  23.664 -0.0828 -0.2343 -0.0729
 4049W        W41543  18.509  13.621   9.156  0.2097 -0.3310  0.1872
 4050W        W41544  11.274   5.086  10.848 -0.2215 -0.1326 -0.0152
 4051W        W41545  31.088   7.784  23.701  0.0720 -0.2439  0.2928
 4052W        W41546  25.152  16.905  16.970  0.4661  0.3613  0.3055
 4053W        W41547  16.178  15.185   4.955  0.0464  0.1338 -0.2763
 4054W        W41548   5.726  15.327  24.776 -0.1708 -0.1219 -0.1790
 4055W        W41549   6.686   5.714   7.169 -0.0039 -0.3784  0.1709
 4056W        W41550  33.643  31.162  19.424  0.1616  0.0175  0.2981
 4057W        W41551  29.426   2.628   1.444  0.4329 -0.1199  0.0330
 4058W        W41552   9.046  18.451   7.783 -0.0279  0.3007 -0.0652
 4059W        W41553  22.883  28.421  15.792  0.3599 -0.1764  0.0482
 4060W        W41554  24.375  29.878  18.732 -0.0533  0.2484 -0.1806
 4061W        W41555  22.864  11.881   2.453 -0.1092  0.0562  0.1527
 4062W        W41556  34.697  34.645   1.313  0.2786 -0.1748 -0.2995
 4063W        W41557  23.075  21.662  23.760  0.4205  0.0080 -0.0495
 4064W        W41558   1.781  28.615  20.598  0.1920  0.5245 -0.0868
 4065W        W41559   4.435  29.329   8.065 -0.1799 -0.2037  0.0830
 4066W        W41560  27.850   1.039  14.382 -0.2517  0.2063  0.1525
 4067W        W41561   0.376  33.869  16.730  0.0149  0.1569  0.1754
 4068W        W41562  19.247   4.423  22.527  0.0425 -0.0593  0.0593
 4069W        W41563   6.187   7.982   7.333 -0.5782  0.1717  0.0537
 4070W        W41564  22.012  25.384  18.642 -0.0282 -0.0252  0.3660
 4071W        W41565  23.273  31.737  22.561  0.2535  0.3081 -0.3409
 4072W        W41566  11.046  20.779  15.019  0.0469  0.1139 -0.0850
 4073W        W41567  29.788  29.058  17.306 -0.0159  0.1503  0.0228
 4074W        W41568   5.768  18.262   6.072 -0.1498 -0.2060  0.1372
 4075W        W41569   4.552  33.965   3.660  0.1538 -0.1044 -0.1670
 4076W        W41570  14.369  11.348  22.689  0.0016  0.0642  0.1612
 4077W        W41571  21.353  11.874  20.249  0.3100  0.1841 -0.0687
 4078W        W41572  35.220   5.859  22.955 -0.1495  0.0244  0.1758
 4079W        W41573   4.509  33.360   0.806  0.1794 -0.0135  0.1089
 4080W        W41574   9.762  23.311  12.182  0.0027  0.0974  0.1135
 4081W        W41575  17.535  15.415   3.994  0.1777 -0.3954 -0.3081
 4082W        W41576   2.050  21.811  14.291 -0.2192  0.2177 -0.3059
 4083W        W41577  16.067   8.732   3.342 -0.0822  0.0938  0.0405
 4084W        W41578   8.419   6.358   2.999  0.2655 -0.0473 -0.2144
 4085W        W41579  29.523  12.510   6.995 -0.2618  0.2978 -0.0305
 4086W        W41580  12.220  33.031  13.710 -0.1074  0.3099 -0.0311
 4087W        W41581  18.505  33.045   4.720 -0.2519  0.0001 -0.2223
 4088W        W41582  17.608  32.976   3.044 -0.0236  0.0051 -0.1633
 4089W        W41583  31.050  25.256  18.336  0.0068 -0.0545  0.2552
 4090W        W41584  19.584  24.192   4.876 -0.0495  0.0187 -0.0657
 4091W        W41585  16.839   4.306   8.851 -0.0342  0.1434  0.4010
 4092W        W41586  16.573  19.825  22.818  0.0091 -0.0751  0.1311
 4093W        W41587  13.799  28.854   8.538  0.0973 -0.2613 -0.0498
 4094W        W41588  17.950  16.226   8.593 -0.2601 -0.0546 -0.0271
 4095W        W41589  32.386  22.116  12.774 -0.2099  0.0758 -0.0062
 4096W        W41590  19.577  16.136   8.118 -0.2249 -0.0453  0.0258
 4097W        W41591  31.642  21.138  20.490  0.1024 -0.3159 -0.1504
 4098W        W41592  22.754  21.540  18.288  0.1190  0.1626  0.0258
 4099W        W41593   2.192  17.162  20.679  0.1030 -0.2558 -0.1495
 4100W        W41594  19.226   9.342  22.739 -0.0807 -0.0259 -0.0228
 4101W        W41595   2.755  30.005   7.378  0.1548 -0.3515 -0.2213
 4102W        W41596  22.898  17.956   0.489  0.0369 -0.0869  0.1560
 4103W        W41597  35.100   0.273   6.446  0.0647  0.0580  0.2466
 4104W        W41598   7.706  33.130   6.723 -0.1465  0.3182  0.3142
 4105W        W41599  31.683  18.622  22.335  0.0350  0.0232  0.1797
 4106W        W41600  21.214  29.676   4.704 -0.1933 -0.1559 -0.0361
 4107W        W41601  10.293   4.051  11.077  0.0112 -0.1302 -0.2053
 4108W        W41602  10.712  19.371   8.725  0.0002 -0.2658  0.3079
 4109W        W41603  26.858  32.630  26.166  0.0436  0.1408  0.1952
 4110W        W41604  24.340  20.002  16.996 -0.1723 -0.2386  0.1174
 4111W        W41605  17.111  16.452  25.679 -0.0755 -0.4234  0.1315
 4112W        W41606   4.587  12.714   8.280 -0.0171  0.0503  0.1341
 4113W        W41607   4.585  23.938  19.446  0.1503  0.1429 -0.1621
 4114W        W41608  27.606  24.191  15.939  0.2056 -0.1050  0.2188
 4115W        W41609  22.745  28.555   1.849  0.0766 -0.2051  0.0311
 4116W        W41610  11.579   9.509   2.682  0.2068  0.4126 -0.0992
 4117W        W41611  31.548  33.915   3.730  0.0972  0.0533  0.1935
 4118W        W41612  15.100  21.680  15.465 -0.0075 -0.2707 -0.0125
 4119W        W41613  34.518   1.967   2.031  0.2169  0.0077 -0.0134
 4120W        W41614   6.031  19.990  22.964 -0.1355 -0.0596  0.3720
 4121W        W41615  30.163  20.936  10.742  0.3483  0.1373  0.1402
 4122W        W41616  17.516  19.243  25.504 -0.1051 -0.0778  0.1721
 4123W        W41617  21.519  31.936   2.611 -0.0827 -0.0360 -0.0287
 4124W        W41618  13.677  27.251  23.665 -0.1695  0.1526  0.1381
 4125W        W41619  17.019   0.753   7.710 -0.0609 -0.3044  0.1472
 4126W        W41620  20.249  18.990   7.704  0.4752 -0.3889 -0.0476
 4127W        W41621  23.889   6.829  15.470 -0.0574 -0.2916 -0.2666
 4128W        W41622  27.131  34.523  11.336 -0.2730 -0.0738 -0.0376
 4129W        W41623  23.385  30.208  24.950 -0.1901 -0.2056 -0.0609
 4130W        W41624  18.212  30.327  25.601 -0.0108 -0.1780  0.2794
 4131W        W41625  18.895  19.816  23.562 -0.0621 -0.2383  0.1627
 4132W        W41626  34.272  20.888  23.881 -0.0116  0.2105  0.1142
 4133W        W41627  12.521   0.876  22.382 -0.2439 -0.2169  0.0397
 4134W        W41628  10.828  25.652   2.795 -0.4277  0.1222 -0.0397
 4135W        W41629  17.038   2.806  10.422  0.0160  0.1194  0.1138
 4136W        W41630  12.286  14.478   7.347  0.0576  0.1841 -0.2359
 4137W        W41631  26.520   9.076  23.685 -0.0383 -0.3343 -0.1247
 4138W        W41632  27.446  23.764  14.778  0.1916  0.2062  0.4607
 4139W        W41633  17.342  30.710   3.227  0.0862 -0.0954  0.0311
 4140W        W41634   1.243   5.850  14.256 -0.0803 -0.0378 -0.2158
 4141W        W41635  22.391  32.513  19.884  0.0735  0.1152  0.1474
 4142W        W41636   6.024   4.586   8.155 -0.2242 -0.2757  0.0084
 4143W        W41637  12.975  33.060  20.697  0.1566  0.4389 -0.1637
 4144W        W41638  24.358   8.753  17.458  0.1291  0.3965 -0.3353
 4145W        W41639  22.850  18.567  24.397  0.0804 -0.0865  0.1955
 4146W        W41640   9.336  19.649  10.801  0.3694 -0.0950  0.4151
 4147W        W41641  29.746  10.144   0.008 -0.0478 -0.0455 -0.0533
 4148W        W41642  18.800  19.796   3.941  0.4574 -0.1833  0.0091
 4149W        W41643  14.922  27.383  23.525  0.3602 -0.1606  0.1064
 4150W        W41644   3.668  17.594  24.854 -0.0183 -0.0504 -0.1921
 4151W        W41645  29.143  19.508  18.951 -0.1341 -0.0864 -0.4600
 4152W        W41646   9.838  12.197  10.462 -0.1902 -0.2683 -0.0262
 4153W        W41647   9.622  18.030  11.212  0.1644  0.0704  0.1388
 4154W        W41648  11.078   3.344  23.898  0.0990 -0.1164  0.0688
 4155W        W41649   5.337  22.655   5.578 -0.0289 -0.2678 -0.0422
 4156W        W41650  18.433  18.911  18.999 -0.0693  0.2200 -0.2878
 4157W        W41651  21.718   9.393  23.759 -0.0541  0.3215 -0.1013
 4158W        W41652  28.747  34.373  20.496  0.2299  0.1518 -0.0352
 4159W        W41653  21.482  30.001   4.346  0.0313 -0.5238  0.0774
 4160W        W41654   8.140  10.446  23.212  0.0309 -0.1285  0.1193
 4161W        W41655   7.018   3.766  10.987  0.0677 -0.1368 -0.1639
 4162W        W41656  10.831   6.378   8.491 -0.0886 -0.0848  0.1167
 4163W        W41657  16.358  22.261   6.921  0.1126 -0.7131 -0.0923
 4164W        W41658  26.599  31.522  26.175 -0.4178 -0.1612  0.2909
 4165W        W41659  10.665   4.938   3.189  0.0341  0.0585 -0.2799
 4166W        W41660  18.500  23.944  10.705  0.1494  0.2735 -0.1435
 4167W        W41661   7.266  14.352   6.004  0.1673  0.2799 -0.1016
 4168W        W41662  19.935  29.878   3.473 -0.0806  0.0142  0.2208
 4169W        W41663  21.117  31.307  14.747 -0.0323  0.0870 -0.3192
 4170W        W41664  17.957   3.039   3.477 -0.1088  0.1257  0.0523
 4171W        W41665   7.093   2.183   0.948 -0.1979  0.1617  0.0225
 4172W        W41666  11.582  24.798  12.190  0.1066  0.0386 -0.1975
 4173W        W41667  11.903   1.698   0.464  0.2433 -0.0652 -0.1587
 4174W        W41668   6.417   5.971  21.238 -0.1722  0.1542  0.0985
 4175W        W41669   8.977  31.240  25.305 -0.0468  0.2701  0.2801
 4176W        W41670   7.556   3.082   1.659 -0.0315  0.2775 -0.0373
 4177W        W41671  17.996  24.875  22.254  0.3169  0.1555  0.1565
 4178W        W41672  14.749  34.362  11.275 -0.1465  0.2239 -0.3166
 4179W        W41673  27.550  18.421  12.614  0.0686 -0.2128 -0.1566
 4180W        W41674  12.674   5.849  21.321 -0.0847  0.0367 -0.1036
 4181W        W41675  12.952  19.636  24.256  0.0288 -0.2866  0.0548
 4182W        W41676   3.790   3.838  19.024 -0.1433 -0.1848  0.0912
 4183W        W41677  19.890  24.833  18.460 -0.3265 -0.0767  0.0541
 4184W        W41678  13.304  32.782  22.879 -0.2613  0.0956  0.4759
 4185W        W41679  11.353  34.460   1.392  0.2216 -0.0700  0.3062
 4186W        W41680  22.545  20.345  23.737 -0.0293  0.1070 -0.0580
 4187W        W41681   6.710  34.749  20.348 -0.2489  0.0212 -0.2897
 4188W        W41682  20.736   6.764  23.781  0.2084  0.0861  0.1806
 4189W        W41683   5.558  34.912   8.023 -0.0468 -0.1014  0.0339
 4190W        W41684   7.586  28.457  24.551 -0.2231 -0.0486 -0.0247
 4191W        W41685  32.593  28.594   0.681  0.1437 -0.0631  0.1347
 4192W        W41686   5.227  22.126  25.442  0.0671 -0.1367 -0.1877
 4193W        W41687  18.605   0.556   9.922 -0.1779 -0.2764  0.1799
 4194W        W41688  32.779  16.193  12.902  0.1246 -0.1514 -0.0123
 4195W        W41689   7.819  23.828   9.654  0.4203 -0.0035  0.1429
 4196W        W41690  11.776  16.776  23.895  0.2366 -0.1375  0.0001
 4197W        W41691   9.329   2.473  24.235  0.0867  0.0526  0.0243
 4198W        W41692  19.053  29.939  16.403  0.2724  0.2242  0.1212
 4199W        W41693   9.169  24.656  11.201  0.0524 -0.2813  0.0818
 4200W        W41694   2.566   8.341  15.043 -0.1591  0.0467  0.1317
 4201W        W41695  29.718   7.205  19.508  0.0118 -0.2573  0.0725
 4202W        W41696  23.471  11.250  23.018 -0.0160  0.0909  0.1096
 4203W        W41697  11.320   9.249   4.543 -0.0064 -0.1732  0.2039
 4204W        W41698  24.744  16.674  10.131 -0.1899 -0.0472  0.0391
 4205W        W41699  24.377  27.977  15.521  0.0027 -0.0484  0.0894
 4206W        W41700  28.688  10.431   7.118  0.1720 -0.3141 -0.0121
 4207W        W41701   3.079  14.087   0.620 -0.0645  0.0968 -0.0826
 4208W        W41702  14.628  15.274  11.042  0.2257 -0.2350 -0.1328
 4209W        W41703  25.413  27.877  10.833  0.3428 -0.2171  0.0931
 4210W        W41704  20.463  12.482  22.349  0.0808  0.2246 -0.0137
 4211W        W41705   2.138  24.987  17.379  0.2258 -0.1280  0.1250
 4212W        W41706  30.006  24.742  25.109  0.0628  0.0371 -0.1654
 4213W        W41707  32.637  26.297  10.018 -0.1743 -0.4672  0.2126
 4214W        W41708  15.149  29.746   1.357  0.0609 -0.1857 -0.3157
 4215W        W41709  12.351  21.166   7.707 -0.0319 -0.2780 -0.1066
 4216W        W41710  34.542   3.014  14.670  0.0970  0.4479 -0.1122
 4217W        W41711  19.499  17.030  22.360 -0.1790  0.0023 -0.2376
 4218W        W41712   7.778   9.913  10.759  0.1741  0.3880  0.1885
 4219W        W41713  25.235   0.712  25.429 -0.0477 -0.1054 -0.0240
 4220W        W41714   7.250  32.114   4.956  0.0598 -0.0161 -0.0298
 4221W        W41715  34.485  14.754  20.649  0.0909 -0.0427 -0.1933
 4222W        W41716  10.070  15.931  10.105 -0.3260  0.1932  0.0481
 4223W        W41717  18.910  20.849   4.168  0.0597 -0.3292 -0.0538
 4224W        W41718  19.056  12.780   5.654  0.2200 -0.0878  0.2739
 4225W        W41719  30.532  25.942  16.766 -0.0868  0.0142 -0.0906
 4226W        W41720  19.958  21.893   5.207  0.2865  0.0779  0.1247
 4227W        W41721  35.228  15.817  25.114  0.1615 -0.2894  0.0066
 4228W        W41722   3.130  22.910  21.515  0.2057 -0.1244  0.0764
 4229W        W41723   1.689  16.656  18.549  0.2321  0.1459  0.0466
 4230W        W41724  25.315   8.632  19.860  0.0420  0.0344 -0.1215
 4231W        W41725   7.610  23.917   0.660 -0.0723 -0.1495  0.0091
 4232W        W41726  20.016  10.982  24.888  0.2535  0.1098  0.0440
 4233W        W41727  31.121  16.232  17.645 -0.0014  0.0427 -0.0409
 4234W        W41728  24.860  13.495  24.288 -0.1100 -0.0171  0.0978
 4235W        W41729   3.059  26.090  20.823  0.1738  0.2640 -0.1105
 4236W        W41730  21.247  10.139  16.751 -0.1951 -0.3175  0.1643
 4237W        W41731   2.618  20.905   1.848  0.2685 -0.0054  0.1085
 4238W        W41732  32.462  16.048  13.911  0.2709 -0.3637 -0.1224
 4239W        W41733  16.442  17.556   5.188  0.0951 -0.1157 -0.2344
 4240W        W41734  22.364   4.882   7.412 -0.2522 -0.0916  0.0932
 4241W        W41735  13.820   7.468   2.654  0.0121  0.1804 -0.0148
 4242W        W41736  31.509   8.968  19.088  0.1402  0.1033  0.4126
 4243W        W41737   8.704  33.058  13.209  0.0803  0.1378  0.3346
 4244W        W41738   6.563  31.311  12.566  0.2219 -0.0607  0.4461
 4245W        W41739  18.677  35.240   2.908  0.0468  0.1830 -0.0630
 4246W        W41740  33.061  14.190  10.214  0.0559 -0.1990 -0.2730
 4247W        W41741  27.406  32.501   0.547 -0.1539  0.1247 -0.1358
 4248W        W41742  20.697  26.791  22.632  0.0701 -0.0670  0.1368
 4249W        W41743  26.312  27.724  17.396  0.0667  0.4291 -0.0593
 4250W        W41744  26.850   5.117  19.212  0.3065 -0.0684  0.1470
 4251W        W41745  34.619  14.022  23.733  0.2306 -0.1093 -0.1534
 4252W        W41746   7.172  15.167   6.335 -0.0233 -0.1612  0.1215
 4253W        W41747   4.107   1.166   4.022  0.2194 -0.0008 -0.1674
 4254W        W41748  26.256  19.470  22.970 -0.1868 -0.1800  0.0552
 4255W        W41749   4.947   0.328  24.347  0.0799 -0.1210  0.1185
 4256W        W41750  12.760  15.161  12.676 -0.1811 -0.3352 -0.2367
 4257W        W41751   2.829   1.606  25.551 -0.3250  0.0424  0.2431
 4258W        W41752  19.726  16.161  26.109  0.1753 -0.1416  0.0382
 4259W        W41753   4.092   9.894   7.716  0.3434 -0.2406  0.3401
 4260W        W41754  34.085  16.408  24.108 -0.0375  0.0731 -0.1594
 4261W        W41755   9.659  21.400   4.550  0.2752  0.0163 -0.0116
 4262W        W41756  20.572  20.248  17.342 -0.1216  0.0799  0.1298
 4263W        W41757  12.607   3.565  13.160 -0.1476  0.0135 -0.2433
 4264W        W41758  21.692  28.253  19.467  0.0491  0.0326  0.0064
 4265W        W41759   3.797   2.814   7.765 -0.2669 -0.0867 -0.2588
 4266W        W41760   0.494   4.581  19.154 -0.1928  0.1365 -0.1199
 4267W        W41761  22.505  33.406   4.833 -0.0627  0.3502  0.0397
 4268W        W41762  32.092   4.254  24.550  0.0211 -0.2845  0.3831
 4269W        W41763  22.101  17.324  20.351 -0.4543  0.0120 -0.2349
 4270W        W41764  33.355   2.880  16.329  0.1590 -0.1083 -0.0256
 4271W        W41765   5.988  29.437  12.200 -0.0204 -0.1310 -0.0701
 4272W        W41766   2.593   5.420  16.292 -0.2041 -0.0330  0.1536
 4273W        W41767  20.973  34.091  16.451 -0.4163 -0.2195 -0.0710
 4274W        W41768  11.422  14.399  24.303 -0.0353 -0.1121 -0.0991
 4275W        W41769  24.803  33.324   5.210  0.1239  0.0974  0.2172
 4276W        W41770  35.265  33.422   7.084  0.2077  0.0242  0.0777
 4277W        W41771  15.636  27.965  24.754 -0.1361 -0.0178 -0.1427
 4278W        W41772   2.014  33.041  26.001 -0.0007  0.0640 -0.1663
 4279W        W41773  16.001  11.822   3.349  0.1812 -0.0668 -0.1846
 4280W        W41774  26.307  29.094  18.079  0.0285  0.0869 -0.0615
 4281W        W41775  35.135   9.317  19.145 -0.1774 -0.2696 -0.3832
 4282W        W41776   8.125  34.539   5.488  0.1677 -0.1129 -0.0307
 4283W        W41777  26.783   3.893  19.498 -0.1162 -0.3819 -0.0918
 4284W        W41778  31.372   1.027   6.982  0.0355 -0.2689 -0.0399
 4285W        W41779  10.341  23.793  22.335  0.2310 -0.3249 -0.0020
 4286W        W41780  34.094  14.685  14.710  0.0007  0.0335 -0.1077
 4287W        W41781  33.554   5.225  23.827  0.3131 -0.0814 -0.0803
 4288W        W41782  28.474   8.173  15.165  0.1662  0.2199 -0.2554
 4289W        W41783  12.046  11.481  23.628 -0.0730  0.0216 -0.2431
 4290W        W41784  18.115   7.989  12.299 -0.1700 -0.2360 -0.3449
 4291W        W41785   0.669  29.466   4.673  0.0208 -0.1380 -0.3045
 4292W        W41786   3.520   5.132   8.953 -0.2201  0.1675 -0.0651
 4293W        W41787   1.890  33.023   2.335 -0.0068  0.3829  0.3411
 4294W        W41788  30.599  12.191   7.662  0.1307 -0.1533  0.1011
 4295W        W41789  26.174   3.393  25.054 -0.0981  0.4958  0.2810
 4296W        W41790  15.498  33.601   6.937 -0.0981  0.3196 -0.2405
 4297W        W41791  17.435   5.622  11.055 -0.0826  0.3976 -0.0677
 4298W        W41792  20.002  22.809  19.649 -0.0147  0.3820  0.1727
 4299W        W41793  25.806  19.724  16.764 -0.4293 -0.0552  0.1366
 4300W        W41794  17.934  13.275   4.648 -0.1403  0.1652 -0.0477
 4301W        W41795   4.930   9.284  20.129 -0.0800 -0.1605  0.0274
 4302W        W41796  29.319   2.191   2.595  0.3876 -0.1955 -0.1022
 4303W        W41797  26.213  34.955   2.266  0.1234  0.3600 -0.1910
 4304W        W41798  11.133   9.799   2.106 -0.1402 -0.1206 -0.1521
 4305W        W41799  20.129   9.907  26.064  0.1929  0.2064 -0.2183
 4306W        W41800  15.929  27.058  24.747  0.3220 -0.3316 -0.1878
 4307W        W41801  29.792  16.607  22.206  0.1109  0.1425  0.0417
 4308W        W41802  29.588  19.292  25.391  0.2737 -0.0136  0.2299
 4309W        W41803  22.696  26.660  24.429  0.3430  0.0163  0.0167
 4310W        W41804  19.160  16.786   3.285 -0.3847 -0.0515  0.1612
 4311W        W41805   4.039  30.975  11.144 -0.0337  0.3484 -0.2521
 4312W        W41806  13.732  29.314  10.707 -0.1366  0.3906  0.0986
 4313W        W41807  20.633   2.898  23.984 -0.1614 -0.1668 -0.0316
 4314W        W41808   4.513   2.904  24.832 -0.0087 -0.0793 -0.1714
 4315W        W41809   3.140   5.868   6.986 -0.2401  0.0352  0.0393
 4316W        W41810  19.974  32.722   4.027  0.0978 -0.4884  0.0348
 4317W        W41811  26.310  16.138  14.324  0.0410  0.1200  0.0168
 4318W        W41812  12.437   9.255  10.895  0.3605  0.5063  0.1118
 4319W        W41813  19.917   0.359   9.172  0.1944 -0.0317  0.0242
 4320W        W41814  17.118   0.401   5.274  0.2068 -0.0951 -0.0073
 4321W        W41815  23.556  33.240  26.039 -0.3971  0.3079 -0.3535
 4322W        W41816   8.210  28.949   8.424  0.0342 -0.0582 -0.0011
 4323W        W41817  27.565  31.320  19.680  0.1606 -0.2015  0.2127
 4324W        W41818  15.420   6.353   8.123 -0.1241  0.2221 -0.0253
 4325W        W41819   9.166  12.061   1.325 -0.0632  0.1340 -0.0984
 4326W        W41820   4.680  11.194  20.200 -0.1661 -0.2052 -0.1014
 4327W        W41821  28.129  17.084  25.978  0.1505  0.1274 -0.1208
 4328W        W41822  20.349  22.124   4.800  0.1177 -0.1210  0.3067
 4329W        W41823  19.117  14.414  24.355 -0.1810  0.0490 -0.0920
 4330W        W41824  12.706  12.681  14.066 -0.2733  0.0347 -0.1599
 4331W        W41825  17.646   4.796   8.768 -0.1263  0.3751  0.0726
 4332W        W41826  12.551  28.913  14.367 -0.1746  0.0822 -0.3699
 4333W        W41827  17.099  23.780   0.279 -0.1847  0.1498  0.1295
 4334W        W41828  25.215   4.308   0.785 -0.0028  0.1896  0.3046
 4335W        W41829  26.425   8.755  14.901  0.0714  0.4155  0.1311
 4336W        W41830  18.812   3.675  25.526  0.0130  0.0593  0.3499
 4337W        W41831   3.677  26.366   4.486 -0.0976  0.1513 -0.1408
 4338W        W41832  27.666  10.243  18.491 -0.1170 -0.0028 -0.2553
 4339W        W41833   1.416  30.044   0.736 -0.0358 -0.5448 -0.1189
 4340W        W41834  24.752   6.419   3.794  0.1987 -0.1695  0.0670
 4341W        W41835  29.804  19.542   4.254  0.0676  0.1524 -0.2287
 4342W        W41836  24.273  17.378  15.968  0.1114  0.1896  0.2814
 4343W        W41837  25.562  30.760  26.151 -0.3738  0.1266 -0.4231
 4344W        W41838  24.192   0.025  20.969 -0.0919  0.2471  0.2020
 4345W        W41839  29.356  27.379  17.614  0.2502  0.0696  0.0858
 4346W        W41840  11.607  29.606  10.560  0.1463 -0.2055  0.4544
 4347W        W41841   4.391  30.540  11.043  0.0563  0.2018 -0.1643
 4348W        W41842  31.232  25.611   1.274 -0.1272 -0.0005  0.3107
 4349W        W41843  30.283   3.823  23.598  0.1963 -0.0564  0.0343
 4350W        W41844  11.880  27.595  22.689  0.2099 -0.1462 -0.1260
 4351W        W41845  32.074   9.946   0.718  0.2128 -0.1331  0.3739
 4352W        W41846  12.786  21.178   7.518  0.0828  0.1387 -0.1010
 4353W        W41847  17.609  23.548  21.666  0.2163 -0.0830 -0.4405
 4354W        W41848  17.775  27.761   4.315 -0.2468 -0.1113  0.0278
 4355W        W41849  14.815  26.976   5.388  0.1593 -0.0436 -0.0628
 4356W        W41850   0.778  19.247  16.228 -0.0398  0.1472 -0.2649
 4357W        W41851   1.586  23.188  17.285 -0.0905  0.1162 -0.0725
 4358W        W41852  14.836  23.108  11.757  0.0356  0.2067  0.1850
 4359W        W41853   2.430  10.259  15.213  0.2207 -0.0765 -0.1221
 4360W        W41854  33.013   8.678  15.905  0.0872  0.2780  0.0420
 4361W        W41855  21.698  30.750  20.968 -0.2649  0.1841  0.2392
 4362W        W41856   9.623  13.302  19.005 -0.2247 -0.1384 -0.1306
 4363W        W41857  33.781  13.335  20.413  0.2710  0.2057  0.1277
 4364W        W41858  13.940  24.571  15.408  0.0318  0.0547  0.0432
 4365W        W41859  20.929   4.624  18.413 -0.0274  0.0373  0.3886
 4366W        W41860  30.693  13.626   7.375 -0.1687 -0.1058  0.4222
 4367W        W41861  23.721   4.766  26.007 -0.1208 -0.1794 -0.0257
 4368W        W41862  10.764   0.105   7.655  0.0833  0.0242  0.2161
 4369W        W41863   8.663  15.649  10.215  0.1014 -0.0832 -0.1057
 4370W        W41864   3.177   6.394  16.296  0.0180 -0.3461  0.1386
 4371W        W41865  32.413  22.867  15.942  0.2385  0.1921  0.0090
 4372W        W41866  20.642  12.592  18.556 -0.0756 -0.3871  0.0440
 4373W        W41867   8.094  33.668  24.099 -0.0593 -0.1217  0.1673
 4374W        W41868   3.119   7.858  21.930 -0.1698 -0.1747 -0.0253
 4375W        W41869  13.023  13.036  19.682  0.1090 -0.1894  0.0635
 4376W        W41870  14.537  21.445  13.073 -0.2276  0.2759 -0.1498
 4377W        W41871  22.821  25.135  23.743 -0.3288  0.0503 -0.3990
 4378W        W41872   7.724   3.640   3.393 -0.0984 -0.1854  0.1064
 4379W        W41873   3.007  25.696  20.409  0.1349  0.1825 -0.1639
 4380W        W41874   4.122   6.993  20.891 -0.0217 -0.1350  0.0687
 4381W        W41875  30.893  22.669   8.093 -0.0749  0.0130 -0.2852
 4382W        W41876  26.318   1.787  13.232  0.2681  0.2079 -0.1384
 4383W        W41877  14.867  19.260   6.983 -0.0270 -0.3677 -0.0645
 4384W        W41878  25.528  22.905  24.764  0.4282  0.1030 -0.0804
 4385W        W41879  12.850  33.412   0.538  0.1250 -0.1197  0.2081
 4386W        W41880   6.319  12.939  22.199  0.4054  0.0849  0.1374
 4387W        W41881  21.764   8.545   5.999 -0.0712 -0.0191 -0.3242
 4388W        W41882   8.746  16.780   9.340 -0.2281  0.0486 -0.1407
 4389W        W41883  19.834  15.157   6.406  0.2829  0.0554 -0.2942
 4390W        W41884   5.374  12.860  17.964 -0.0503 -0.0343 -0.1058
 4391W        W41885  31.996   9.545  26.065  0.0726  0.0477 -0.3180
 4392W        W41886   4.877   9.159  22.142  0.2332  0.0582 -0.0477
 4393W        W41887  10.317  31.588   1.916  0.0991 -0.0005  0.0494
 4394W        W41888  12.204  10.205   9.888 -0.0679  0.0763  0.1137
 4395W        W41889   6.531  18.822   4.835 -0.0154  0.0416  0.1919
 4396W        W41890  13.945  14.459  22.709  0.1755  0.1513 -0.0646
 4397W        W41891   7.596   3.711  22.148  0.0764 -0.0201 -0.4141
 4398W        W41892   6.379   5.993   5.520 -0.0275  0.0563  0.1275
 4399W        W41893  11.792   1.602   1.506  0.1018  0.1526 -0.0339
 4400W        W41894  28.814   2.221  25.756 -0.0820  0.0350  0.3429
 4401W        W41895  20.674  13.564   5.604  0.0508  0.1429 -0.0310
 4402W        W41896  13.607  12.525   0.271  0.1407 -0.0286  0.0709
 4403W        W41897  10.271  15.524   4.993  0.1214 -0.0157 -0.4111
 4404W        W41898  26.146   9.366  12.569 -0.2043 -0.2095  0.1188
 4405W        W41899  11.661  30.112  12.062  0.1516  0.2293  0.0958
 4406W        W41900   6.158   9.261  10.936 -0.4182  0.0459 -0.0955
 4407W        W41901  29.291  22.063   8.405 -0.0389  0.2864  0.1797
 4408W        W41902   4.216   4.137   3.894  0.0666 -0.3069 -0.2468
 4409W        W41903  21.394   7.885   2.374  0.2091 -0.1667 -0.0982
 4410W        W41904  19.159  11.159   8.290  0.1065 -0.3289  0.0516
 4411W        W41905  32.980  10.156  18.757 -0.1864 -0.2120 -0.3095
 4412W        W41906   8.422   1.018  25.154  0.1016  0.1395 -0.0367
 4413W        W41907  21.646   9.650   5.889  0.2219  0.1949 -0.2174
 4414W        W41908  10.020   8.771  24.932  0.2144 -0.0796  0.3748
 4415W        W41909  22.766  29.334  18.020  0.0688 -0.3138  0.3378
 4416W        W41910  27.665   2.735  13.428  0.1416 -0.4308  0.0988
 4417W        W41911  24.731  20.569  26.113  0.1656  0.0786 -0.0546
 4418W        W41912  19.502  14.991  23.780  0.4005  0.3239  0.3047
 4419W        W41913   2.769   8.414  16.576  0.1801 -0.2320 -0.0080
 4420W        W41914  35.331  15.554  19.011  0.0428 -0.0053 -0.1767
 4421W        W41915  16.384  16.850  11.647 -0.1395 -0.1624  0.0081
 4422W        W41916  34.015  11.903   1.430  0.1059  0.2046  0.0242
 4423W        W41917  25.001  19.083   0.028  0.1729 -0.1814  0.2595
 4424W        W41918  26.786  12.947   7.708  0.0290  0.0503 -0.0041
 4425W        W41919  12.846  18.610  22.741 -0.4223  0.1914  0.2565
 4426W        W41920  27.701  11.692  16.314  0.1294  0.3072  0.0429
 4427W        W41921  32.070   5.265  14.797  0.1634  0.3731  0.4236
 4428W        W41922  27.983  27.926  26.209 -0.0656  0.1740  0.0070
 4429W        W41923  24.890  23.097   9.884 -0.0007  0.0264 -0.1773
 4430W        W41924  17.045  24.590   8.864  0.1205  0.0021 -0.1535
 4431W        W41925  29.771  14.649   8.002 -0.1297 -0.1385 -0.2217
 4432W        W41926  32.320  14.404  14.511 -0.3914  0.5097 -0.4742
 4433W        W41927   8.055  28.052   9.709 -0.2900  0.2035 -0.0492
 4434W        W41928  29.880   7.704  19.358  0.2060  0.1559 -0.1664
 4435W        W41929   1.672  16.895  22.458 -0.0399  0.2427  0.0336
 4436W        W41930  16.957  14.094  21.843  0.1571 -0.3277 -0.0984
 4437W        W41931  20.436  20.417  25.109  0.0640 -0.0379 -0.1272
 4438W        W41932  26.928  28.361  14.188 -0.5032 -0.1503 -0.0979
 4439W        W41933  12.025  32.149   3.114  0.0069 -0.0643 -0.0070
 4440W        W41934  32.550   3.498  19.463 -0.4273 -0.2249  0.0813
 4441W        W41935   0.643  28.722  24.169 -0.1415 -0.3219  0.1220
 4442W        W41936  18.030  25.310  24.400 -0.0116 -0.0975  0.2970
 4443W        W41937  28.650   7.703   0.502  0.0082 -0.1628 -0.2985
 4444W        W41938   3.740  29.187   7.719  0.0376  0.3544 -0.0586
 4445W        W41939   7.701   3.833  12.645  0.1071 -0.1230 -0.0674
 4446W        W41940  24.804   1.087  12.431 -0.1467  0.0121  0.0493
 4447W        W41941  19.566  22.476   6.728  0.3656 -0.2583 -0.1522
 4448W        W41942  15.873  10.605   9.951 -0.0847 -0.1807 -0.4137
 4449W        W41943  29.816   8.645  16.430  0.0540 -0.3584  0.1944
 4450W        W41944  16.357  16.371   0.382 -0.5855 -0.4766  0.1867
 4451W        W41945   2.693  29.240   0.048  0.0266  0.2142 -0.0436
 4452W        W41946   9.539   1.848  21.933  0.0166  0.5366  0.2527
 4453W        W41947  11.726   3.489  20.009  0.1273  0.0322  0.0399
 4454W        W41948  15.230  10.914   1.565  0.2835 -0.0236 -0.0264
 4455W        W41949  28.246   2.384   5.944  0.0346  0.0935 -0.0794
 4456W        W41950  20.268  20.568   9.179  0.1239  0.3661  0.0427
 4457W        W41951  28.800  33.521  15.283 -0.3292  0.0462  0.1826
 4458W        W41952   9.019   7.933   5.827  0.2005  0.2177 -0.0408
 4459W        W41953  16.640  13.420   4.974  0.0505 -0.0203 -0.1655
 4460W        W41954  25.782  19.519   0.517  0.2481  0.0121  0.1184
 4461W        W41955   2.602  24.271   3.717 -0.1818  0.1919 -0.2460
 4462W        W41956   1.987   7.888   0.517 -0.0247 -0.0021 -0.0362
 4463W        W41957   8.141   4.354   5.808 -0.1628 -0.1870  0.1163
 4464W        W41958  29.891  17.865  13.838  0.2667 -0.1186 -0.2015
 4465W        W41959   4.212  23.353   2.437 -0.1982 -0.0626  0.1690
 4466W        W41960   1.974  26.042   3.063  0.0436  0.1485  0.1452
 4467W        W41961   1.287  28.701   4.552  0.2321  0.0801 -0.1498
 4468W        W41962   4.930  17.040   6.907 -0.1693  0.2169  0.0020
 4469W        W41963  14.046  15.991  11.634 -0.2936 -0.0461  0.1289
 4470W        W41964  10.793  27.632  17.033 -0.4504 -0.1758 -0.1095
 4471W        W41965  23.433   8.469   0.643  0.1279  0.2708 -0.0281
 4472W        W41966  25.005  25.202  10.106 -0.1219 -0.0317  0.0826
 4473W        W41967   9.198  15.364  25.431  0.2170  0.0238 -0.0245
 4474W        W41968  34.106  13.884   0.927  0.2074 -0.0076  0.5345
 4475W        W41969  13.233   9.419  12.600  0.3631  0.4553 -0.1884
 4476W        W41970  29.590  13.824  10.938 -0.1024 -0.1746  0.2845
 4477W        W41971  15.028  28.809   7.687 -0.2179  0.2117 -0.3043
 4478W        W41972  17.960   8.443   5.701  0.0039  0.0877 -0.1101
 4479W        W41973  32.935  29.243  13.839  0.0869 -0.0087  0.1311
 4480W        W41974  18.548  35.311  22.038  0.1353 -0.0798 -0.1511
 4481W        W41975  11.178   1.613  20.109  0.1730 -0.0901 -0.2637
 4482W        W41976  16.091  21.294   6.481  0.1209 -0.0435  0.0048
 4483W        W41977  12.557   0.089   4.042 -0.0685  0.1167 -0.0935
 4484W        W41978   3.843  11.912   4.453 -0.1420  0.0581  0.2258
 4485W        W41979  22.678  25.690  22.769  0.1182 -0.1213 -0.0708
 4486W        W41980  11.928  20.143  10.720 -0.0612 -0.1683 -0.0474
 4487W        W41981   7.819   2.165   6.681 -0.4293 -0.2015  0.1710
 4488W        W41982  17.866   1.537   2.013  0.1040 -0.3707 -0.1919
 4489W        W41983  19.634  21.526  20.662  0.0852  0.3949 -0.2243
 4490W        W41984  25.971  19.897  15.033 -0.0435  0.1857 -0.0573
 4491W        W41985  22.415  10.846  26.008 -0.1878 -0.1036 -0.0405
 4492W        W41986  31.145   7.402  10.908 -0.0777  0.1687 -0.0558
 4493W        W41987  16.348  31.812  19.145  0.0783  0.1129 -0.1121
 4494W        W41988  15.008  24.123  24.441 -0.1270  0.1915  0.0433
 4495W        W41989   9.549  34.690  10.402 -0.0392  0.2010  0.1791
 4496W        W41990  11.229   6.819  22.938 -0.3057  0.0827 -0.0672
 4497W        W41991   4.265  32.819  23.524  0.3768 -0.0619 -0.2454
 4498W        W41992  14.775  29.006   7.304  0.1895 -0.2121 -0.2260
 4499W        W41993   8.823  21.086  10.685  0.2300 -0.4108 -0.1138
 4500W        W41994  12.618   4.326  22.090  0.1609 -0.1536  0.0595
 4501W        W41995   6.866  13.542  25.480 -0.0589 -0.1560 -0.1267
 4502W        W41996  31.170   6.798   1.779  0.0556  0.3191 -0.1454
 4503W        W41997  32.567  18.391  15.113  0.0985  0.1996 -0.0433
 4504W        W41998  28.558   2.918   4.816 -0.0293  0.1702  0.4940
 4505W        W41999  18.471  31.528  16.597 -0.1761 -0.2929 -0.1710
 4506W        W42000  29.475   4.104  23.568  0.2436 -0.0412  0.4602
 4507W        W42001  19.397  30.158   7.090  0.1481  0.2202  0.4444
 4508W        W42002  28.856  25.371  16.291 -0.1123 -0.1663 -0.0378
 4509W        W42003  24.128  19.657  12.835 -0.2220  0.1334  0.0981
 4510W        W42004   1.164  17.194  24.969 -0.2256 -0.0502 -0.3614
 4511W        W42005  23.581  27.877   2.318 -0.2531  0.0599  0.1187
 4512W        W42006  15.479  20.699  14.864  0.0349 -0.3955  0.0239
 4513W        W42007  35.262   2.444  15.497 -0.0048 -0.2025  0.0329
 4514W        W42008  17.943  33.585   5.296 -0.0785  0.2385  0.1878
 4515W        W42009  14.263  16.197   4.155  0.2866  0.0653 -0.1676
 4516W        W42010  29.399  15.696  23.326 -0.0613 -0.0585 -0.1857
 4517W        W42011   4.721  15.493  18.870  0.0439 -0.3221  0.1010
 4518W        W42012  25.762  20.397  11.741  0.2304 -0.0344 -0.2280
 4519W        W42013  25.323  17.837  23.657 -0.3982 -0.2203  0.0796
 4520W        W42014  29.402  12.670  12.139  0.2234 -0.1189  0.3059
 4521W        W42015   6.958  13.554  17.647  0.0449  0.2118  0.0881
 4522W        W42016  33.737  10.213  22.856  0.0302  0.1862 -0.0618
 4523W        W42017   0.007  31.378   7.074  0.0448  0.2527  0.1167
 4524W        W42018  13.465   6.477   4.291 -0.0351  0.2266 -0.3364
 4525W        W42019  27.489   2.000  17.853 -0.1338  0.1389  0.1506
 4526W        W42020   9.406  32.851  24.733  0.0372 -0.2374  0.4143
 4527W        W42021   5.836   8.743  25.156  0.0161  0.1894  0.1858
 4528W        W42022  11.969   6.995   4.910 -0.0066  0.0079 -0.1465
 4529W        W42023   9.718  16.996   9.399 -0.3017  0.1171 -0.1859
 4530W        W42024  11.662   1.849  20.266 -0.0344  0.1156 -0.0284
 4531W        W42025  24.607  31.540  22.043  0.0611  0.2803  0.2477
 4532W        W42026  31.459  21.315  23.183  0.1189  0.1010  0.1024
 4533W        W42027   2.948   9.389  18.113  0.0138 -0.0214 -0.0324
 4534W        W42028   2.420  35.186   7.102 -0.2939 -0.2681 -0.1107
 4535W        W42029  10.806   3.063  10.223  0.1559  0.1491  0.2656
 4536W        W42030  12.038  24.857   0.810  0.1610 -0.4424  0.0355
 4537W        W42031   2.774  15.124   1.161  0.1995  0.1162  0.0336
 4538W        W42032   5.750  11.969   5.931 -0.1931  0.2062  0.2346
 4539W        W42033   2.116  25.161   2.383  0.2893  0.0079 -0.0038
 4540W        W42034  24.268  19.448  25.738  0.0561 -0.0958 -0.3196
 4541W        W42035  30.981  11.857  25.040 -0.2012  0.1858  0.2361
 4542W        W42036  15.175  34.232  10.440 -0.1423 -0.1491 -0.0291
 4543W        W42037  17.228  10.596  22.712 -0.1247  0.1751 -0.2138
 4544W        W42038  15.330  29.399  22.080 -0.1249  0.1791  0.1951
 4545W        W42039  29.160  21.347  15.957 -0.1181 -0.3594  0.1031
 4546W        W42040  29.177  11.560  17.794  0.2814 -0.1879  0.1831
 4547W        W42041   6.748  10.928  19.029 -0.0568  0.1242  0.1903
 4548W        W42042  33.025  25.230  24.734  0.1051  0.0909  0.2676
 4549W        W42043  11.159  29.356  22.813 -0.0447 -0.3177 -0.1188
 4550W        W42044   5.231  14.508  25.626 -0.0787 -0.0491 -0.5414
 4551W        W42045  16.271  19.374   6.613  0.0886 -0.0409  0.0469
 4552W        W42046  25.618  22.640   9.738  0.0371  0.0374  0.1375
 4553W        W42047  30.449  10.643   9.330  0.1724  0.0024  0.1084
 4554W        W42048  20.700  14.472   2.493  0.2170 -0.4895 -0.1309
 4555W        W42049   9.704  12.998   7.584 -0.1421  0.0444  0.0706
 4556W        W42050  25.617   7.480  21.523 -0.0244  0.2468 -0.2756
 4557W        W42051   7.295  18.194   9.849  0.5913  0.1271  0.2694
 4558W        W42052   0.440   7.147   2.677 -0.0637  0.3670 -0.0216
 4559W        W42053  18.947  21.425   3.959  0.2751  0.0064 -0.1942
 4560W        W42054  23.438  28.271  23.247  0.1136 -0.0506  0.1959
 4561W        W42055  11.073  33.063  22.306 -0.0226  0.0721 -0.1231
 4562W        W42056   1.395  33.104  17.064  0.1575  0.1568  0.2116
 4563W        W42057  34.554   9.704  11.498  0.0069  0.1629 -0.0183
 4564W        W42058  31.864  19.760  25.431  0.0674 -0.0405  0.1655
 4565W        W42059  16.590  30.087   1.586  0.1098  0.1985  0.1770
 4566W        W42060  16.247   3.467   8.659 -0.2478 -0.3008  0.0075
 4567W        W42061  20.732   8.057  22.145 -0.0074 -0.0942  0.0758
 4568W        W42062  29.845  15.707  23.485 -0.1279  0.2857 -0.0699
 4569W        W42063   1.012  28.425  26.156 -0.3928 -0.1172  0.0646
 4570W        W42064  30.059  34.126  14.101  0.2415 -0.0182 -0.0469
 4571W        W42065  30.740  13.678  23.056  0.1064  0.1209  0.0475
 4572W        W42066  21.025  27.147   0.997  0.1104  0.2800  0.2336
 4573W        W42067  27.320   2.836  21.662 -0.0175  0.1466  0.1425
 4574W        W42068  22.161  10.888   4.882 -0.2119 -0.2372  0.1263
 4575W        W42069  14.201   8.299  24.477  0.1781  0.1276  0.0569
 4576W        W42070  22.505  33.818   5.960 -0.0039 -0.4259  0.0842
 4577W        W42071   2.095   6.686  16.958  0.1662  0.2056  0.1675
 4578W        W42072  10.816  32.859  10.897  0.4931 -0.2243  0.0422
 4579W        W42073   6.126  19.071   5.690 -0.1423  0.2541 -0.1226
 4580W        W42074  33.377  24.841  16.206  0.0492  0.0432  0.0075
 4581W        W42075  30.286  21.525  11.694 -0.0260 -0.1097  0.2415
 4582W        W42076  21.147  20.330  23.902 -0.1952 -0.3206  0.3332
 4583W        W42077   4.608  18.877  22.489 -0.1091 -0.1651  0.2846
 4584W        W42078  14.562  26.669  12.868  0.0307 -0.0416 -0.0044
 4585W        W42079   1.492  20.295   0.184  0.2050 -0.1212 -0.2455
 4586W        W42080  27.471  19.447  16.345  0.0143  0.1068 -0.0996
 4587W        W42081  14.483  32.806  25.076  0.0782 -0.0539  0.0375
 4588W        W42082  13.319   4.694   6.534  0.2728  0.2872  0.1086
 4589W        W42083  10.076  14.853  11.120 -0.0785  0.1019  0.0216
 4590W        W42084  18.147   2.410   9.915  0.1390 -0.1484  0.0089
 4591W        W42085   8.971   4.634  14.475  0.0737  0.2118 -0.2246
 4592W        W42086  10.446  29.649   5.893  0.0239 -0.2131  0.1982
 4593W        W42087  31.462  14.611  22.334  0.0736 -0.0079  0.0117
 4594W        W42088  26.415  23.879  23.197 -0.1872 -0.2191  0.1428
 4595W        W42089  29.050  18.067  20.677  0.0577  0.0796  0.1216
 4596W        W42090  33.743  24.320  14.831  0.1439 -0.1022  0.2636
 4597W        W42091  11.848  11.814  19.662 -0.2397 -0.1414 -0.1489
 4598W        W42092  23.365  12.834  22.160 -0.0464  0.0737  0.2550
 4599W        W42093   4.590  13.354   3.893 -0.0177 -0.0006  0.0471
 4600W        W42094  29.031  20.010  22.250  0.2701 -0.0612 -0.0301
 4601W        W42095  31.844  16.606   5.698  0.1023 -0.0458  0.2698
 4602W        W42096   5.463  23.644  22.340  0.2391 -0.0406  0.0658
 4603W        W42097  31.921  23.977  13.971  0.1421  0.1292 -0.2229
 4604W        W42098  18.562   0.583  25.246  0.1891  0.3582 -0.0123
 4605W        W42099  23.081  30.702  26.154 -0.0531  0.1703  0.2495
 4606W        W42100  11.545   4.615  19.665 -0.2350  0.2326  0.1391
 4607W        W42101  29.383  23.331  18.295 -0.3011 -0.1098  0.0446
 4608W        W42102   1.179   4.807  22.784 -0.1021 -0.1527 -0.0862
 4609W        W42103  29.442   9.011  10.787  0.0276  0.1177  0.0069
 4610W        W42104   2.969  15.420   1.596  0.0697 -0.0653  0.0564
 4611W        W42105  24.111  15.936  19.041  0.0624 -0.0039  0.1798
 4612W        W42106   2.443   6.224   5.979  0.0103  0.2582 -0.1056
 4613W        W42107  20.448   8.093  25.613 -0.4032  0.1278 -0.1746
 4614W        W42108   6.305  21.474   3.384  0.0419  0.4160  0.1809
 4615W        W42109  30.466  15.795   0.374 -0.1534  0.3766  0.0591
 4616W        W42110  11.492  12.701   5.477  0.2941  0.0644  0.1616
 4617W        W42111   3.168   3.215  21.427  0.2396  0.2494  0.1175
 4618W        W42112  26.468  35.287  24.423 -0.2173 -0.4015 -0.0480
 4619W        W42113   2.066  34.508   4.411 -0.0727  0.0738  0.2062
 4620W        W42114  16.625  33.942   7.539 -0.0462  0.0030  0.2204
 4621W        W42115  31.055  28.409  22.562 -0.1075  0.0598 -0.0082
 4622W        W42116  10.824  28.096  16.903  0.2415 -0.1607  0.1833
 4623W        W42117  32.197  27.721   0.376  0.2002 -0.2149  0.0642
 4624W        W42118  29.099  21.069  12.674  0.1175  0.1067 -0.3739
 4625W        W42119  31.634   7.610  18.987 -0.4202  0.2464  0.1855
 4626W        W42120  31.117  19.837  22.236  0.1789  0.1521 -0.0445
 4627W        W42121  28.122  22.825  10.528  0.2534  0.3825  0.0747
 4628W        W42122  22.347   6.206  14.545 -0.0672 -0.1378  0.1140
 4629W        W42123  21.615  34.533   6.674  0.0345 -0.1850 -0.0271
 4630W        W42124  18.435  33.706  23.283  0.0317 -0.2222 -0.3064
 4631W        W42125   4.555  31.507  21.469  0.0515 -0.2041 -0.0913
 4632W        W42126   8.249  13.581  22.849 -0.0863 -0.2747 -0.0259
 4633W        W42127  12.144  21.037   0.190  0.1555 -0.0191 -0.1484
 4634W        W42128  31.172  31.876  22.486 -0.1277 -0.2248  0.0639
 4635W        W42129  15.947   8.125  21.201 -0.2307  0.1177  0.0276
 4636W        W42130  17.850  21.581  19.960  0.0313  0.1422 -0.1349
 4637W        W42131  17.620   1.391   5.033 -0.4105 -0.0890  0.1031
 4638W        W42132  22.617  26.485   2.951  0.2528 -0.0607 -0.0038
 4639W        W42133  34.919  18.710  18.587  0.1118 -0.1460 -0.0371
 4640W        W42134  33.641  20.485  18.391 -0.0809 -0.2329 -0.0394
 4641W        W42135  23.957  14.321  18.669  0.1437 -0.1696  0.2211
 4642W        W42136  11.200  24.511   8.399 -0.1864 -0.2456  0.0997
 4643W        W42137   3.557   5.219  18.699 -0.0437 -0.0545 -0.4363
 4644W        W42138  18.998   5.915  22.276 -0.0768  0.0998 -0.0019
 4645W        W42139  13.323  15.125  10.966 -0.0018  0.1992 -0.0877
 4646W        W42140   8.589  30.955  13.702 -0.0263 -0.0539 -0.2053
 4647W        W42141  16.849   1.208   3.934  0.0872  0.2378 -0.1557
 4648W        W42142  11.494  32.652   4.768  0.0028  0.1650  0.1600
 4649W        W42143  20.169   3.475  16.382  0.3199  0.0907 -0.2062
 4650W        W42144  11.796   1.444   6.179 -0.3140 -0.2297 -0.1932
 4651W        W42145   9.210  14.083   3.258 -0.2226 -0.2280  0.0724
 4652W        W42146  10.988  26.723  16.310 -0.0221  0.1707  0.1158
 4653W        W42147   2.420  12.244   2.175 -0.0971  0.0668 -0.0369
 4654W        W42148  27.035   1.566  26.005 -0.1252  0.1909 -0.1154
 4655W        W42149  27.295  10.047  10.749  0.0652  0.0728  0.1704
 4656W        W42150  17.531  34.250   1.569 -0.1171  0.2118 -0.3034
 4657W        W42151  23.051  13.611  23.490  0.0102 -0.0613  0.0446
 4658W        W42152  26.939  18.295  17.459  0.1772 -0.0267  0.5739
 4659W        W42153  25.797  32.025  26.033 -0.0706  0.3671 -0.0897
 4660W        W42154   4.334  30.042  13.283  0.3537  0.1097 -0.0803
 4661W        W42155   9.099   1.111   0.834  0.0008 -0.1932  0.0621
 4662W        W42156  22.477  27.504  24.954  0.0624  0.1765  0.1220
 4663W        W42157  20.485  20.202   6.467 -0.1786 -0.1513  0.1192
 4664W        W42158  13.151  21.328  12.029 -0.1003  0.0973  0.1386
 4665W        W42159  35.222  25.318  15.301 -0.1680 -0.2482  0.0655
 4666W        W42160  27.097  12.750  21.587 -0.0698 -0.2149 -0.0569
 4667W        W42161  26.532   1.218  13.450 -0.1950  0.0793  0.0068
 4668W        W42162  35.361   7.500  24.445  0.2025  0.3434 -0.1235
 4669W        W42163  25.270   9.236  14.858 -0.2993 -0.1117  0.1278
 4670W        W42164  15.456  32.837   4.894 -0.0385 -0.0447  0.1050
 4671W        W42165  22.813  19.908  22.401  0.0474  0.1323 -0.0951
 4672W        W42166  15.366   9.503  20.925  0.3693 -0.0022 -0.1874
 4673W        W42167  30.803   0.284  18.434  0.0035 -0.0102 -0.1872
 4674W        W42168  18.780   3.316  16.455 -0.1146  0.2173  0.0672
 4675W        W42169   8.890  21.626  26.018 -0.2956  0.0157 -0.2492
 4676W        W42170  23.499   3.404   6.757 -0.0031 -0.1177 -0.0291
 4677W        W42171  20.490  14.995  15.654 -0.0857  0.1797  0.0099
 4678W        W42172   5.367  25.856  22.164  0.1343  0.2563 -0.2007
 4679W        W42173  33.712  32.985  23.091  0.1083  0.1128  0.2303
 4680W        W42174  28.788  18.647   9.685  0.0297 -0.4029  0.1850
 4681W        W42175  15.235  28.873  20.862 -0.1407 -0.0815  0.0669
 4682W        W42176  10.459  13.291  24.037  0.1046  0.0813  0.0237
 4683W        W42177   2.898  20.362  16.571  0.0184 -0.0695 -0.0792
 4684W        W42178   9.324  16.744  20.838  0.0607  0.0032 -0.0847
 4685W        W42179   2.788  13.681   0.919 -0.0857 -0.1456  0.0481
 4686W        W42180  32.606   6.917  23.059  0.0502  0.1741 -0.0846
 4687W        W42181   8.142   2.848   8.964  0.2262 -0.2127  0.1810
 4688W        W42182  25.558  28.255  19.081 -0.0070  0.1322  0.1566
 4689W        W42183  35.121   6.874  19.406 -0.0018  0.0230  0.6147
 4690W        W42184  32.372   4.504   5.743 -0.1197 -0.1195 -0.1257
 4691W        W42185  11.242  17.894  14.168 -0.2169 -0.0217 -0.1958
 4692W        W42186   8.345  28.642  10.582 -0.2243  0.3670  0.3785
 4693W        W42187  21.740  23.871  14.916 -0.1767 -0.2909  0.2647
 4694W        W42188   6.841  19.091  20.732 -0.1884  0.1347 -0.1594
 4695W        W42189  25.642  14.807  16.186  0.2178 -0.4280 -0.0117
 4696W        W42190   2.842  15.070  19.177 -0.0484  0.1844  0.1565
 4697W        W42191  18.778  22.915  21.955 -0.1810 -0.0842 -0.2860
 4698W        W42192   4.250  12.027  24.042  0.0068 -0.0835 -0.2066
 4699W        W42193  30.393   4.253  25.925  0.1170  0.1573 -0.3210
 4700W        W42194  17.869   0.096  17.506 -0.0409  0.1881 -0.2254
 4701W        W42195  34.037  18.932  12.999  0.0590  0.0386 -0.1850
 4702W        W42196   8.402  35.247   0.196 -0.0130  0.1778  0.0892
 4703W        W42197   6.812  20.388   7.027 -0.1832 -0.1249  0.0502
 4704W        W42198  12.721   4.360   3.138  0.0407  0.1847  0.3284
 4705W        W42199  21.449  15.201  25.506 -0.1259  0.1107 -0.3002
 4706W        W42200  16.628  25.000   8.915  0.0072 -0.1436  0.1166
 4707W        W42201  12.091   1.257  19.439  0.0440 -0.0614 -0.0889
 4708W        W42202  11.653  31.863  12.372  0.0517 -0.0116 -0.3946
 4709W        W42203  14.305   0.625  11.399 -0.3155  0.0418  0.0780
 4710W        W42204  33.835  11.163  24.384 -0.1300  0.1902  0.0138
 4711W        W42205  33.098  30.944   2.505 -0.0006  0.0489 -0.1920
 4712W        W42206  14.416  12.266   3.408  0.2864  0.0144  0.0175
 4713W        W42207   2.808  29.457  10.254  0.3574  0.1879 -0.0543
 4714W        W42208  17.609  20.801  24.065 -0.0628  0.2794  0.1213
 4715W        W42209   1.036  11.814  16.615  0.0246  0.0991 -0.1431
 4716W        W42210  25.446  29.133  18.170 -0.0135 -0.1005 -0.3796
 4717W        W42211  23.356   7.580   0.070  0.0845  0.0113 -0.1311
 4718W        W42212  33.423  33.239  21.786 -0.0790  0.1932  0.3686
 4719W        W42213  31.733   4.933  22.911  0.0169  0.2289 -0.3332
 4720W        W42214  15.298  33.436  25.288  0.0207  0.1649 -0.1964
 4721W        W42215   8.991  11.241  22.887 -0.1640  0.1187  0.2969
 4722W        W42216  33.494  24.409  12.328 -0.2182 -0.1726 -0.2648
 4723W        W42217  23.853  32.847  15.316  0.3585 -0.2367 -0.2489
 4724W        W42218  17.500   3.717  18.145 -0.2438 -0.0786  0.1663
 4725W        W42219  31.558  28.579   2.606 -0.0982  0.1544  0.0016
 4726W        W42220   4.479  10.423  17.192 -0.0550  0.1286  0.1894
 4727W        W42221   9.499  20.202  10.143  0.1580 -0.1569  0.3780
 4728W        W42222   0.300  20.778  16.073 -0.3608  0.0364  0.1760
 4729W        W42223   7.691   9.001   8.830  0.0857 -0.2960 -0.1876
 4730W        W42224  19.929  16.893  23.024 -0.2334 -0.3019 -0.0071
 4731W        W42225  15.102  16.705  20.836 -0.1491 -0.3685  0.4799
 4732W        W42226  33.166  25.288  10.432  0.2380  0.0912 -0.2449
 4733W        W42227  28.856  19.426   6.833  0.1344 -0.0117 -0.0366
 4734W        W42228  23.459  17.761  19.294  0.2989  0.2019  0.1331
 4735W        W42229  25.605  18.777  10.278  0.1341 -0.2780 -0.2873
 4736W        W42230   6.698  20.929   0.013  0.2303  0.0883  0.0023
 4737W        W42231   3.581  35.269   8.547  0.3680 -0.3460 -0.1265
 4738W        W42232   9.988   9.680  25.587 -0.0664  0.0279  0.0518
 4739W        W42233  27.267  25.928  20.750  0.0386  0.2091  0.0750
 4740W        W42234   4.428   1.028   1.007 -0.1137 -0.1633 -0.0125
 4741W        W42235   9.963   0.088   3.498 -0.0461  0.0372  0.0008
 4742W        W42236  24.111   1.604   1.236 -0.2141  0.1834  0.1063
 4743W        W42237  18.633  21.077   3.794 -0.0139  0.4144  0.0508
 4744W        W42238   8.293  28.156   8.793  0.0476 -0.0939  0.1371
 4745W        W42239  17.106  20.357  12.951  0.1788  0.0484  0.0196
 4746W        W42240  18.610  16.565   6.426  0.0379 -0.1441 -0.2196
 4747W        W42241  16.261  20.284  23.497 -0.0732  0.1515 -0.2494
 4748W        W42242   1.675  18.022  24.666  0.2278 -0.2028 -0.1305
 4749W        W42243  29.455   3.784  10.770  0.1582  0.1214 -0.2177
 4750W        W42244   0.780   8.677   3.070  0.1549  0.2085 -0.1498
 4751W        W42245   3.678  24.914  19.146  0.2395 -0.0709 -0.0508
 4752W        W42246   5.398   4.835  10.717  0.0060  0.1294 -0.1660
 4753W        W42247  34.777  21.635  23.201  0.0857  0.1309  0.1838
 4754W        W42248   3.453   9.658   6.304  0.2561 -0.1211  0.0689
 4755W        W42249  20.186  12.135  16.608  0.3704 -0.1658  0.1048
 4756W        W42250  20.823  19.942   1.403  0.0423  0.2024  0.1111
 4757W        W42251  10.749  29.905  10.357  0.1880 -0.0806 -0.0708
 4758W        W42252   4.747  24.820   4.814 -0.0640  0.0436  0.0530
 4759W        W42253  24.763   9.386  15.103  0.3901  0.0173 -0.2193
 4760W        W42254  20.355  25.979  24.184 -0.0746  0.0485 -0.0185
 4761W        W42255  34.755  15.741  14.428  0.0959 -0.3948  0.2291
 4762W        W42256  26.524  11.094  18.043 -0.0144  0.1263 -0.3482
 4763W        W42257  16.611   3.292  25.791  0.3964 -0.0979  0.4177
 4764W        W42258   9.887  18.530   2.649 -0.3003  0.1478  0.1700
 4765W        W42259   2.195   7.020   0.141 -0.2943  0.1592  0.0754
 4766W        W42260   9.451  14.226  10.957  0.3106  0.1006  0.0876
 4767W        W42261  19.515  13.806  18.971 -0.0201 -0.1145  0.0131
 4768W        W42262   2.641  23.506   5.729 -0.0221 -0.3800  0.2392
 4769W        W42263  28.215  33.409  24.613 -0.1921  0.2019  0.1280
 4770W        W42264  18.047  24.555  24.940 -0.1070  0.0217  0.1149
 4771W        W42265  27.759  28.372  19.403  0.0832 -0.3689 -0.3089
 4772W        W42266  31.379   6.687  11.399  0.0187  0.1598 -0.1667
 4773W        W42267  34.650  34.369  24.369 -0.0466  0.3466 -0.0392
 4774W        W42268  23.646  26.971   4.774 -0.4100 -0.1090  0.2931
 4775W        W42269  26.408  21.308   0.048  0.0646  0.0090  0.1661
 4776W        W42270  19.232  17.957   1.626  0.1191 -0.3540 -0.1473
 4777W        W42271  26.539   7.076  12.539 -0.2223  0.2728 -0.3813
 4778W        W42272   7.275  29.192  13.568  0.1174  0.1029 -0.1343
 4779W        W42273  34.205   0.095  17.180  0.0649 -0.0997  0.1389
 4780W        W42274  28.271  21.325   7.622 -0.0295 -0.1434 -0.0118
 4781W        W42275  12.155  13.774  11.545  0.6006 -0.0927  0.1751
 4782W        W42276  17.387  16.434  19.555 -0.1653 -0.0616  0.1179
 4783W        W42277  28.933   4.298  24.772  0.1329 -0.0338 -0.2144
 4784W        W42278  11.959  28.422  26.065 -0.1685  0.3386  0.0569
 4785W        W42279  19.328  12.679   2.369 -0.0767  0.3745 -0.0728
 4786W        W42280   9.344  15.675   7.556 -0.1466 -0.0315 -0.2307
 4787W        W42281   9.884   4.397  14.113  0.2641  0.1569  0.1400
 4788W        W42282  24.013  19.698  15.189  0.1515  0.1155 -0.0727
 4789W        W42283  27.218  24.623  22.080  0.2912 -0.0496  0.1492
 4790W        W42284  26.956  11.348   9.678  0.0190 -0.2941 -0.0999
 4791W        W42285   8.995  30.619  15.785  0.1875 -0.1896  0.2833
 4792W        W42286  22.672   1.984  16.448  0.1790 -0.1361 -0.0072
 4793W        W42287  13.643   1.051  19.677  0.1423  0.0025 -0.1476
 4794W        W42288  26.225   2.045   4.705 -0.1215 -0.0367 -0.0232
 4795W        W42289  21.508  15.121  20.490  0.0677 -0.1608  0.0656
 4796W        W42290  28.535  27.881   2.306 -0.0667  0.5111  0.3063
 4797W        W42291  19.047  23.426  21.916 -0.1119 -0.2149 -0.3042
 4798W        W42292  22.599  31.423  25.910  0.3392  0.0875 -0.1612
 4799W        W42293   0.847  16.707  16.106  0.2150 -0.0453 -0.1030
 4800W        W42294  20.568   8.941   5.564 -0.2197 -0.3078 -0.2530
 4801W        W42295  24.014   6.655   1.339  0.1170  0.1989 -0.0222
 4802W        W42296   7.711  30.289   7.128 -0.2852 -0.1602 -0.1837
 4803W        W42297  12.508  33.260   4.297 -0.1440  0.1909 -0.1180
 4804W        W42298  25.602  16.719  25.661  0.0935  0.1905 -0.1574
 4805W        W42299   5.256  12.166   8.036 -0.0905  0.2705 -0.1264
 4806W        W42300  17.814   8.462   1.878 -0.1777 -0.1074 -0.2673
 4807W        W42301   2.780  16.498   1.269  0.4655 -0.1746  0.2756
 4808W        W42302  23.754  11.510   2.777  0.0629  0.1559 -0.1998
 4809W        W42303   5.864   5.633   3.213 -0.1093  0.0102 -0.2366
 4810W        W42304  26.881  33.170   2.817  0.0421 -0.0409  0.4778
 4811W        W42305   6.250  26.512  15.556 -0.5543  0.2128  0.1003
 4812W        W42306  27.684  24.518  15.136 -0.0638  0.2451  0.0420
 4813W        W42307  33.177   5.014   1.313 -0.1284  0.0340 -0.1163
 4814W        W42308  19.698  11.482  18.838 -0.0394 -0.3156  0.0760
 4815W        W42309  16.866   5.924   3.168 -0.0488 -0.2042 -0.2777
 4816W        W42310   2.591  13.494   3.709  0.0527 -0.0546 -0.0130
 4817W        W42311   0.031  26.941  18.492 -0.3690  0.0286  0.1487
 4818W        W42312  20.624  31.105   1.923 -0.1032  0.0120  0.0089
 4819W        W42313   0.451  18.408  17.907 -0.0614  0.2505 -0.0337
 4820W        W42314  21.788  13.337  16.716  0.1965  0.2298 -0.1011
 4821W        W42315   0.230  11.260   1.914  0.1994 -0.1153 -0.0880
 4822W        W42316  20.023  31.099  22.514  0.0702 -0.2809  0.1992
 4823W        W42317   0.570  16.442   1.292  0.1788  0.1628 -0.2787
 4824W        W42318  24.346   8.694  18.642  0.0932 -0.0436 -0.6108
 4825W        W42319  14.923  30.909  25.761  0.2935  0.1559  0.3059
 4826W        W42320  19.846  34.158   7.355  0.1930 -0.0292  0.0259
 4827W        W42321  25.306  25.838  11.717  0.0833  0.4034 -0.1283
 4828W        W42322   0.497  33.374  20.461 -0.2474  0.1873  0.1765
 4829W        W42323  22.991  11.284  21.271 -0.1197  0.0440  0.0088
 4830W        W42324  24.711  29.135   1.004  0.0793  0.2010  0.2364
 4831W        W42325  29.737  34.338  16.352 -0.1635  0.2130  0.4396
 4832W        W42326  18.077   5.790   5.578  0.1066 -0.2033  0.1465
 4833W        W42327   0.578  11.278  11.459 -0.2603  0.0469  0.0498
 4834W        W42328  33.761  15.062  16.916  0.0296  0.1765 -0.0617
 4835W        W42329  18.328  34.323  20.567 -0.0181  0.1098  0.2845
 4836W        W42330  10.907  31.027  21.995  0.0700  0.2017  0.0955
 4837W        W42331   5.372  22.211   5.850  0.2243 -0.1256 -0.1378
 4838W        W42332  13.176  31.672  24.441 -0.0071 -0.1891  0.0020
 4839W        W42333  26.016   4.325   4.142 -0.0589  0.0213  0.2917
 4840W        W42334  10.828  19.767   9.878 -0.4065 -0.3278 -0.2945
 4841W        W42335  17.313  21.265   9.701  0.0301  0.0693 -0.2939
 4842W        W42336   9.553  27.292  16.411  0.1439 -0.1739  0.0049
 4843W        W42337  23.361   4.892  24.033  0.0863  0.2799  0.4084
 4844W        W42338   1.428   3.474   8.213  0.2010 -0.2002  0.1650
 4845W        W42339  25.426   2.632  14.495  0.2656 -0.0834  0.0809
 4846W        W42340  10.737  22.373  16.514 -0.0017  0.4584 -0.0049
 4847W        W42341   8.386   8.734  22.481  0.3269  0.0401  0.0086
 4848W        W42342  14.707  23.134  21.834  0.0785  0.2658  0.2252
 4849W        W42343  10.661  23.065   2.636 -0.1885 -0.1021 -0.0280
 4850W        W42344   6.224  35.265   3.567  0.0030 -0.3673  0.2396
 4851W        W42345  31.831  21.308   7.573 -0.6655  0.1402 -0.0095
 4852W        W42346  30.665  16.582   6.444  0.0412  0.1031  0.2533
 4853W        W42347  15.096  28.773   6.958  0.2458 -0.2106  0.2489
 4854W        W42348  24.502   3.295  19.562 -0.0732 -0.2009 -0.1269
 4855W        W42349  22.814  32.536   1.339  0.1587  0.1144  0.0878
 4856W        W42350  20.333  29.855  15.888  0.2217  0.2296  0.2529
 4857W        W42351   9.849  15.802  23.912 -0.6976  0.0084 -0.0627
 4858W        W42352  29.856  31.742  19.783 -0.4053 -0.0256 -0.0449
 4859W        W42353   4.980   9.795  24.689  0.1185 -0.2856  0.0327
 4860W        W42354  20.464   5.641   9.824 -0.2730  0.2819  0.0398
 4861W        W42355  27.089  17.748   6.112 -0.1689 -0.0587 -0.1077
 4862W        W42356   3.431  16.260   0.403  0.2671  0.1283 -0.0374
 4863W        W42357   3.929  13.222   6.259 -0.2743 -0.0018 -0.1814
 4864W        W42358  34.355  20.023   6.542 -0.2951 -0.0917  0.3669
 4865W        W42359  28.414  16.025  17.567  0.1113 -0.4575 -0.2311
 4866W        W42360  35.122  18.901  25.488  0.1924 -0.0216  0.0152
 4867W        W42361  29.704  29.361  25.717  0.0240 -0.1473  0.2043
 4868W        W42362  19.885   5.569  19.199 -0.0162  0.0634 -0.1541
 4869W        W42363  25.779  34.837   1.945  0.0888 -0.0405 -0.1749
 4870W        W42364  33.555  33.052  18.768 -0.1327 -0.3131 -0.2758
 4871W        W42365  12.910  23.481  25.633  0.2267  0.2541 -0.2891
 4872W        W42366  28.765   6.190  18.993 -0.0639 -0.0218 -0.0635
 4873W        W42367  12.695  12.272   0.543  0.0733  0.0407  0.1765
 4874W        W42368  12.695  31.575  15.083 -0.0045 -0.3771  0.3053
 4875W        W42369  24.223  26.835  16.948 -0.0987  0.1571 -0.2080
 4876W        W42370  13.376  13.252  19.976 -0.2066 -0.3375 -0.0683
 4877W        W42371  21.505  25.035   5.931  0.2110  0.1183 -0.4331
 4878W        W42372   2.053  31.237  19.412  0.0045  0.0906  0.0202
 4879W        W42373  13.058  14.464   4.868 -0.1924 -0.4715 -0.3739
 4880W        W42374  32.136  22.145  11.770 -0.0714  0.0738  0.3459
 4881W        W42375  13.620  30.116   3.671  0.1068 -0.5329  0.1214
 4882W        W42376  26.780  26.359  15.589  0.1333  0.1427 -0.0377
 4883W        W42377  18.172   4.243  21.200 -0.2200  0.0037 -0.0395
 4884W        W42378  20.107  10.510   6.809 -0.0966  0.1539  0.3218
 4885W        W42379   2.877   5.566  23.390  0.2924  0.1649  0.0790
 4886W        W42380  19.988  28.443  25.679  0.1146  0.2190  0.0279
 4887W        W42381  19.914   5.571  22.119  0.1437 -0.1991  0.4151
 4888W        W42382  22.977   0.311   0.866  0.1141 -0.2027  0.1070
 4889W        W42383   1.216  32.089   0.745  0.0970 -0.1321 -0.1297
 4890W        W42384  26.047   9.386  11.678  0.0715  0.0332 -0.0767
 4891W        W42385  31.279  24.797  20.225 -0.1058 -0.2030  0.0186
 4892W        W42386   2.509  20.970   2.863  0.1296  0.0004  0.2503
 4893W        W42387  23.515  28.621  19.989  0.0472  0.0448  0.2328
 4894W        W42388  16.959  11.026  12.789 -0.1074  0.1227 -0.0424
 4895W        W42389  33.321  17.433  10.378 -0.2871  0.1953 -0.0824
 4896W        W42390  29.836  10.085  16.865  0.2244  0.0695  0.1965
 4897W        W42391  22.090  25.653  20.308 -0.0013 -0.2516  0.0619
 4898W        W42392  23.319  30.115  21.039 -0.1176  0.2817 -0.0439
 4899W        W42393  22.087  32.864  23.358  0.0288  0.0716 -0.1865
 4900W        W42394  11.639  12.738  19.375 -0.0728  0.3106  0.1274
 4901W        W42395  25.570   5.511   4.512 -0.2895 -0.2780  0.0191
 4902W        W42396  15.719   4.033   2.956  0.2587 -0.2297  0.1333
 4903W        W42397  11.474  13.822  25.842  0.0289  0.1140 -0.0336
 4904W        W42398   7.972  22.999   5.683 -0.0517  0.0372 -0.4120
 4905W        W42399  12.333   7.008  10.946 -0.2044 -0.0321  0.1414
 4906W        W42400   1.301  18.549   1.407 -0.2863 -0.3777  0.0703
 4907W        W42401   8.743  30.302  24.927 -0.2181  0.0714  0.1953
 4908W        W42402  24.115  30.501  24.299  0.1422 -0.1186  0.1555
 4909W        W42403   9.599  12.565  10.866 -0.0639 -0.0458 -0.0714
 4910W        W42404  14.877  20.835   6.295  0.1091 -0.2109  0.1438
 4911W        W42405  20.056  10.418  17.594  0.0929  0.1738 -0.0904
 4912W        W42406  13.733   1.178   7.108  0.0555 -0.0372 -0.1536
 4913W        W42407  12.939  10.804  20.371 -0.1354 -0.0704  0.0801
 4914W        W42408  18.264  26.540   1.991 -0.1424  0.3711 -0.0064
 4915W        W42409  26.753   8.484  18.181 -0.0991  0.2495  0.2954
 4916W        W42410   5.818  32.463   9.453 -0.2022  0.0968  0.1209
 4917W        W42411  21.291  19.731   6.396  0.4161 -0.2836 -0.0311
 4918W        W42412  23.329  14.633  25.296  0.3811 -0.0098  0.0930
 4919W        W42413  31.776  30.000  21.487 -0.0322  0.0090  0.0268
 4920W        W42414  33.807  28.186  23.256 -0.4893 -0.0142  0.3401
 4921W        W42415  13.084   0.918   7.393 -0.0974 -0.1069  0.2114
 4922W        W42416  23.783   5.186  24.045 -0.1768 -0.0663  0.1590
 4923W        W42417  10.971  25.735   2.009 -0.1514  0.1631  0.0067
 4924W        W42418  25.894  21.719  10.242 -0.1818 -0.1164  0.0288
 4925W        W42419  21.877  22.508  20.172 -0.0541  0.2668  0.0097
 4926W        W42420  14.464  29.500  24.641  0.0285  0.0188  0.0388
 4927W        W42421  32.527  32.880   4.191 -0.1090 -0.3815  0.1703
 4928W        W42422   2.188   9.347  14.056  0.1837  0.1775  0.2788
 4929W        W42423   0.521  29.392  16.691  0.0738  0.1281 -0.0576
 4930W        W42424  21.053   6.221  18.358  0.1803 -0.2772  0.1421
 4931W        W42425   7.263   2.223   2.592  0.0074 -0.0817  0.3291
 4932W        W42426  21.981  21.870  15.140  0.2011  0.4158  0.1079
 4933W        W42427   4.932  18.780   0.357 -0.1685 -0.2986 -0.1817
 4934W        W42428   3.651  17.839  22.929 -0.4059 -0.1302 -0.1228
 4935W        W42429  26.881  17.366  12.352 -0.1538  0.1332 -0.0451
 4936W        W42430   8.823  12.063  21.483  0.1648  0.0526  0.1181
 4937W        W42431  23.800  16.852  23.417  0.0676 -0.1790 -0.0657
 4938W        W42432  24.254  14.581  23.572  0.1076  0.0226  0.1275
 4939W        W42433   8.574  18.935  22.789  0.3044 -0.0444 -0.1760
 4940W        W42434   4.394  31.171   1.371 -0.1039  0.0191 -0.1657
 4941W        W42435   7.320  12.399   6.923  0.2736 -0.1211  0.1294
 4942W        W42436  28.628  21.742   9.550  0.0545  0.0245  0.2814
 4943W        W42437  15.303   9.616   5.605  0.0406  0.0127  0.0859
 4944W        W42438  12.072   1.601  22.145 -0.2930  0.1439 -0.2847
 4945W        W42439   0.020  21.939  14.063  0.1658  0.2680  0.1998
 4946W        W42440   6.046  14.046   4.331  0.1111 -0.3145 -0.0803
 4947W        W42441  21.686  21.410   6.253  0.2089 -0.0128 -0.3681
 4948W        W42442  29.173  12.489   8.638 -0.2252 -0.2011  0.0380
 4949W        W42443  13.873   5.557  19.287 -0.1433 -0.0203 -0.1149
 4950W        W42444   7.941   8.216  11.873  0.0837 -0.2035 -0.0477
 4951W        W42445   7.173  20.873  22.789 -0.0210 -0.1917  0.0706
 4952W        W42446  31.616   3.270   4.980  0.1179 -0.0557  0.3229
 4953W        W42447  19.362  28.877  24.365  0.1971  0.0031  0.3927
 4954W        W42448  17.360  16.859  21.871 -0.1437  0.2391 -0.1139
 4955W        W42449  14.381   5.320   2.784  0.0771  0.0358  0.3805
 4956W        W42450   5.764   9.661  10.924  0.0823  0.0164 -0.1733
 4957W        W42451  13.992   1.169  18.488 -0.2482 -0.1306 -0.0261
 4958W        W42452  29.735  34.810   5.712 -0.1237 -0.2353  0.2512
 4959W        W42453  21.849  25.881   6.305 -0.1530 -0.4034  0.0125
 4960W        W42454  15.940   3.544   8.302  0.0197 -0.1413 -0.2353
 4961W        W42455  25.924  13.873  21.756 -0.0178  0.2274  0.0962
 4962W        W42456  12.344  21.941  21.818 -0.2212 -0.0815  0.0868
 4963W        W42457  15.293  32.542   8.781 -0.2041 -0.0576  0.2958
 4964W        W42458  15.153  29.362   9.368  0.1600 -0.0319  0.2155
 4965W        W42459  22.550  31.973  21.204  0.2595 -0.1186 -0.3672
 4966W        W42460  14.193  34.300  11.034  0.0164  0.0681 -0.3197
 4967W        W42461  19.684  27.802   7.741  0.1204  0.1372 -0.2097
 4968W        W42462  23.245  15.610   0.224 -0.2214 -0.1768  0.1035
 4969W        W42463   4.565  12.607  25.891  0.2249  0.0994 -0.2992
 4970W        W42464  10.354  35.159  21.426  0.2616  0.0027  0.2274
 4971W        W42465  16.400  27.129   1.166 -0.0730  0.1072 -0.3194
 4972W        W42466  17.370  18.765  25.616  0.0567 -0.0048  0.0441
 4973W        W42467  22.635  29.825   1.333 -0.1110 -0.1084  0.0901
 4974W        W42468  34.099   6.652   0.059 -0.3012  0.1474  0.0554
 4975W        W42469   1.466   1.262  23.879 -0.0149 -0.1291 -0.0310
 4976W        W42470  29.058  22.702  12.709 -0.0362  0.2443 -0.3233
 4977W        W42471  31.115  18.945  19.060 -0.1753 -0.1370  0.0392
 4978W        W42472  13.574  11.785  11.673  0.1758 -0.2079 -0.0119
 4979W        W42473  17.090  32.463   8.404 -0.0922  0.0894 -0.3057
 4980W        W42474  21.476  25.432   4.641 -0.2513  0.2121 -0.0798
 4981W        W42475   0.988   4.265  15.588 -0.1733 -0.1104 -0.0995
 4982W        W42476  15.496   0.387   2.408  0.1870 -0.1162 -0.2269
 4983W        W42477  10.196  17.645   7.257 -0.0594  0.1839  0.0314
 4984W        W42478  16.529  13.412  10.291 -0.1692 -0.1318 -0.2472
 4985W        W42479   1.107   5.844  18.104 -0.2648  0.0468  0.0883
 4986W        W42480  10.982  34.332  21.340  0.3166  0.4777 -0.0255
 4987W        W42481   8.192  17.098  11.925 -0.1309  0.0257 -0.0428
 4988W        W42482  18.651  21.142   2.206 -0.0875  0.1555 -0.0039
 4989W        W42483   3.304  13.113  17.783  0.0158 -0.2504 -0.0691
 4990W        W42484  18.774  30.088  18.423 -0.0966  0.1064 -0.0422
 4991W        W42485  30.409   5.756   2.541  0.5567 -0.2347 -0.4185
 4992W        W42486  23.349   0.198  26.034  0.1105  0.1154 -0.2411
 4993W        W42487  16.726  26.627  25.682  0.2725 -0.0885  0.1911
 4994W        W42488   9.005   0.793  22.343  0.0824  0.1306 -0.1054
 4995W        W42489  33.952  12.563   9.165 -0.1791  0.1917  0.0073
 4996W        W42490  27.333  33.528   3.182  0.0291  0.2691 -0.2917
 4997W        W42491  27.582  10.576  14.682  0.0667 -0.1077  0.0142
 4998W        W42492  13.826  27.518   8.550  0.4241  0.0180 -0.1153
 4999W        W42493  10.247   5.195   2.675  0.0509  0.2365  0.0254
 5000W        W42494  11.740  34.034  25.649 -0.3553  0.0768  0.0179
 5001W        W42495  13.869  14.794  14.483  0.4945 -0.0747 -0.2047
 5002W        W42496  22.126   9.929  25.868  0.0099 -0.0024  0.0739
 5003W        W42497  13.028  16.797   5.674 -0.2042 -0.2767  0.2336
 5004W        W42498  32.932  28.601  17.080 -0.1112  0.1773 -0.1214
 5005W        W42499  22.155  23.022  24.333 -0.3006 -0.2896 -0.2088
 5006W        W42500  33.848   7.552  24.214 -0.2253 -0.3948  0.1568
 5007W        W42501  26.516  18.242  18.886 -0.0383 -0.3321 -0.2368
 5008W        W42502  31.320  28.481  13.691  0.1455  0.0732 -0.1968
 5009W        W42503  14.984  11.172  24.938 -0.2366  0.3529  0.3225
 5010W        W42504  29.246   6.849   0.703 -0.1683  0.0381 -0.0154
 5011W        W42505   8.979   5.049   6.764  0.0410 -0.0713 -0.0789
 5012W        W42506  11.403  18.648  10.189  0.1319 -0.1168 -0.0058
 5013W        W42507  26.714  18.718  17.576  0.0760 -0.1016 -0.0085
 5014W        W42508  27.408  13.923   6.342 -0.0272 -0.1723  0.1921
 5015W        W42509  12.684  17.227  11.638 -0.3906 -0.1313 -0.0120
 5016W        W42510  18.994  15.185   7.686 -0.3129 -0.1907 -0.1039
 5017W        W42511   1.022  10.891  25.719 -0.0551  0.2171 -0.0850
 5018W        W42512  30.393  13.594  23.382 -0.3146 -0.5358 -0.2317
 5019W        W42513  22.607  10.772   1.275  0.0383  0.1297 -0.1872
 5020W        W42514  18.925  33.916  18.327 -0.0937  0.0255 -0.1299
 5021W        W42515  27.954  34.615  18.931  0.1666  0.0926  0.1667
 5022W        W42516  33.423  21.699  15.448  0.1243 -0.2072  0.0099
 5023W        W42517  31.893   8.924  18.417 -0.3612  0.1152  0.0865
 5024W        W42518  17.246   1.703   0.840  0.0757 -0.1374  0.0588
 5025W        W42519  31.449   4.657  24.146  0.1408  0.3753 -0.0521
 5026W        W42520   5.222   6.714   6.492 -0.0024 -0.0296  0.0606
 5027W        W42521  25.479   4.674  21.235 -0.0181  0.0068 -0.2491
 5028W        W42522  17.297  17.598  19.597  0.3648 -0.0054  0.2611
 5029W        W42523  17.079  25.364   2.882 -0.0612 -0.1779  0.0135
 5030W        W42524   1.649  32.924   0.422  0.3901 -0.0863 -0.2720
 5031W        W42525  20.762   3.080  16.829 -0.0795  0.2346  0.1584
 5032W        W42526  31.304  19.725  15.473 -0.1731 -0.1841 -0.0707
 5033W        W42527   6.780  23.456  10.412 -0.0167 -0.1997  0.0057
 5034W        W42528  30.783   1.155  14.600  0.2092 -0.0552 -0.3630
 5035W        W42529   2.781  17.785  22.852 -0.0294  0.0642 -0.1230
 5036W        W42530  33.108  12.518  18.012  0.2447  0.3275 -0.1468
 5037W        W42531  15.742   1.294   5.739 -0.0595  0.2184  0.1070
 5038W        W42532  20.451   6.082  10.043 -0.2995 -0.0755  0.4425
 5039W        W42533  17.851  21.176  21.799  0.1650 -0.0700 -0.1498
 5040W        W42534   3.171   2.925   7.637 -0.0908 -0.0143 -0.2187
 5041W        W42535  28.754   2.638   0.385 -0.6264  0.3628  0.1002
 5042W        W42536  14.614   0.413  20.871 -0.0251  0.1007 -0.3495
 5043W        W42537   2.679  32.872   9.931 -0.0657  0.1130 -0.0289
 5044W        W42538  19.358   8.894   8.269  0.4925  0.1238  0.1925
 5045W        W42539  15.190  14.935   4.884  0.1203  0.2730  0.3282
 5046W        W42540  32.885  27.982  23.903 -0.0121  0.0602 -0.1161
 5047W        W42541  18.615   5.577   3.887  0.2037 -0.1173 -0.0926
 5048W        W42542  24.262   3.974  20.731 -0.0376 -0.2355  0.3455
 5049W        W42543  31.405  27.674   2.341 -0.0512 -0.0409  0.1512
 5050W        W42544  21.300   9.735   1.417  0.1522  0.1828 -0.1870
 5051W        W42545   2.770  23.864   4.522 -0.0747 -0.2113  0.0600
 5052W        W42546   2.178  10.348  15.709 -0.0372  0.3021 -0.2096
 5053W        W42547   3.642  14.687  24.784  0.3683  0.0374 -0.3955
 5054W        W42548  15.405  33.301   7.882  0.1557 -0.0359 -0.1566
 5055W        W42549  27.399  13.679  17.654  0.0611  0.0542 -0.1888
 5056W        W42550  19.563  33.800  19.022  0.2430 -0.0981 -0.1017
 5057W        W42551  16.764  26.343  13.253 -0.2511 -0.3044 -0.0843
 5058W        W42552  13.634  18.458  23.884  0.1992 -0.1214  0.2093
 5059W        W42553  13.196  13.500  23.420  0.0625  0.3061 -0.3823
 5060W        W42554   9.201  30.475  10.437 -0.1483  0.0729 -0.3651
 5061W        W42555  12.476  14.518  11.771 -0.0100  0.0305 -0.0185
 5062W        W42556   9.804   3.810  25.001 -0.0225 -0.0837 -0.0637
 5063W        W42557  16.121  16.708  19.926 -0.3364 -0.0876 -0.3481
 5064W        W42558   1.611  34.353  21.263  0.1438  0.0863  0.1018
 5065W        W42559  15.473  26.559   4.107 -0.2500 -0.0437 -0.2497
 5066W        W42560  17.833   4.678   2.516 -0.0634  0.1195 -0.1006
 5067W        W42561  10.401  31.170  17.356 -0.2454 -0.1103 -0.3780
 5068W        W42562   8.089   8.469  20.521 -0.1217  0.1008 -0.0481
 5069W        W42563  14.439   2.670   7.982  0.1500 -0.0915  0.0158
 5070W        W42564  15.138  34.414  23.011  0.0266  0.0969  0.2378
 5071W        W42565   3.122  10.864  16.264 -0.0914 -0.1987  0.0252
 5072W        W42566  14.323  25.832   7.357 -0.2105 -0.1761  0.3740
 5073W        W42567   7.234  12.707   3.977  0.0812 -0.0506  0.2372
 5074W        W42568  31.389  17.120  24.076  0.1255 -0.3074 -0.1054
 5075W        W42569  34.183  19.991  18.679  0.2552 -0.0324 -0.1505
 5076W        W42570  11.091  33.506  13.020 -0.2697 -0.0983  0.1543
 5077W        W42571   6.451  11.046  20.691  0.2064  0.0841  0.0151
 5078W        W42572   9.628  14.318  23.890  0.0786 -0.2430 -0.0461
 5079W        W42573  30.025   9.888  17.857  0.1212  0.1121  0.0235
 5080W        W42574  12.681  33.864  11.711 -0.0851  0.0658 -0.1072
 5081W        W42575   6.091  27.087   3.630 -0.1405 -0.0737  0.1321
 5082W        W42576  18.335   7.363   0.575 -0.1745 -0.0291  0.0618
 5083W        W42577  26.811  18.263  22.811 -0.0553  0.0196  0.2518
 5084W        W42578  16.473  21.524  24.194  0.0896 -0.0522  0.0166
 5085W        W42579  27.145  29.219  15.596 -0.4071  0.0230  0.2887
 5086W        W42580  33.405   4.467   5.627  0.1265 -0.0204  0.1075
 5087W        W42581  24.771  34.456   5.068  0.0399  0.0905  0.0671
 5088W        W42582  28.196  21.887  14.628  0.1940 -0.4778  0.1405
 5089W        W42583  18.161  17.833   0.402 -0.2131 -0.2276  0.1248
 5090W        W42584   2.338  11.557   4.070  0.2844  0.1132 -0.2472
 5091W        W42585   4.400  13.924  16.619 -0.4548  0.0784  0.3014
 5092W        W42586  15.422  23.449   8.661  0.2019 -0.0199  0.0746
 5093W        W42587  33.773   0.607   4.779  0.1706 -0.2506 -0.2206
 5094W        W42588  11.661  27.433  13.315 -0.0433 -0.0004 -0.0436
 5095W        W42589   3.861   3.446   3.965  0.0202  0.1610  0.0216
 5096W        W42590  21.289  13.280  21.548 -0.1606 -0.0662 -0.0385
 5097W        W42591  10.471   9.235   0.554  0.3313  0.1172 -0.0276
 5098W        W42592  30.156   3.363  13.053  0.1665  0.2083  0.0624
 5099W        W42593  33.853  34.026   7.033  0.2807 -0.0899  0.1105
 5100W        W42594  19.106  21.917   1.134  0.1342 -0.0733  0.2097
 5101W        W42595  27.860  23.454  12.161  0.0933  0.2751  0.0183
 5102W        W42596  28.260  22.193  12.645  0.3038  0.1302  0.1323
 5103W        W42597  25.243  11.391  21.054 -0.2265  0.0364 -0.2193
 5104W        W42598   7.211  14.897   5.436 -0.5254 -0.0593 -0.3196
 5105W        W42599  24.449  20.635  24.228  0.1626  0.0576  0.2464
 5106W        W42600   3.935  30.860   9.722  0.2255 -0.2277 -0.2120
 5107W        W42601   3.584  32.534  22.042  0.0338 -0.3512 -0.1423
 5108W        W42602  30.719  31.303  18.551  0.1873  0.1998  0.1422
 5109W        W42603   0.995  16.522  12.040 -0.0919  0.0509 -0.1287
 5110W        W42604   1.428  34.454   2.273 -0.1722  0.0091 -0.0489
 5111W        W42605  19.456  10.722  24.708 -0.3752 -0.1573  0.2452
 5112W        W42606  23.431   0.784  19.272 -0.1347 -0.0038 -0.3933
 5113W        W42607  33.461   1.347  18.346 -0.2016 -0.1061  0.0980
 5114W        W42608   0.612   5.425  16.517 -0.1966  0.0079  0.1363
 5115W        W42609   8.032  15.286   3.930  0.2141  0.1721  0.1343
 5116W        W42610  15.101  29.830  15.172 -0.3206  0.3948  0.1355
 5117W        W42611  15.628  12.270  11.266  0.0371 -0.1632 -0.0082
 5118W        W42612   1.883  30.356   5.214 -0.1424 -0.2666  0.0523
 5119W        W42613  29.387  21.513  15.163  0.4879  0.0536  0.0650
 5120W        W42614   3.552  15.875  15.636 -0.1667 -0.1705  0.4108
 5121W        W42615  22.458  21.572  22.591  0.1626 -0.0212 -0.0097
 5122W        W42616  21.900  20.382  18.678 -0.0592 -0.1318  0.0167
 5123W        W42617   8.646  28.159  10.042 -0.0415 -0.3542 -0.1353
 5124W        W42618  28.628   7.129  12.723 -0.0860 -0.0148  0.2091
 5125W        W42619   3.613  18.385  16.739 -0.1205  0.0750 -0.1601
 5126W        W42620  22.642  30.459   5.074  0.0337 -0.2109 -0.1266
 5127W        W42621  15.408  29.421  11.338  0.1855 -0.1357  0.1720
 5128W        W42622  17.270  14.581   2.702  0.1059  0.1021  0.0093
 5129W        W42623   3.080  23.301   1.580  0.2445  0.0256 -0.1346
 5130W        W42624  25.191   9.685  20.008  0.0086 -0.0163  0.1697
 5131W        W42625  24.318  32.350  19.771 -0.0232  0.1105  0.0641
 5132W        W42626  24.961  20.203  24.790 -0.1611 -0.2066  0.0519
 5133W        W42627  32.870  33.952   1.823 -0.1348 -0.1553 -0.1727
 5134W        W42628   3.365   0.499   4.077 -0.0116 -0.0714 -0.0998
 5135W        W42629  11.969   5.750   4.727 -0.0438 -0.0930  0.2514
 5136W        W42630  27.067  30.455  15.372  0.0071 -0.0077  0.0915
 5137W        W42631  25.907  20.237   8.343  0.1631 -0.1272 -0.0001
 5138W        W42632  27.091  25.705  24.234 -0.1140  0.3735  0.0938
 5139W        W42633  26.718  33.831  11.815  0.2511 -0.1474  0.0815
 5140W        W42634  20.589   1.430  19.183 -0.5600  0.1703 -0.1736
 5141W        W42635   3.338  19.782  23.135  0.0513 -0.1947 -0.0471
 5142W        W42636   6.710   8.542   3.729  0.0724  0.2770  0.0785
 5143W        W42637   7.772  12.181   0.768  0.1931 -0.1724 -0.3634
 5144W        W42638  25.515  19.602  11.393 -0.1554  0.0235  0.1112
 5145W        W42639  15.208   8.021   1.029 -0.2078 -0.0915 -0.0456
 5146W        W42640  25.575   4.163  15.662  0.1011 -0.4128 -0.0383
 5147W        W42641   6.843  31.969  22.254 -0.0992  0.2892  0.0195
 5148W        W42642  10.289   7.876  22.618 -0.3059 -0.1005 -0.2518
 5149W        W42643  31.728  11.858  20.742 -0.0810 -0.0901 -0.3896
 5150W        W42644  21.968  17.266  17.916 -0.3322 -0.1659  0.1671
 5151W        W42645  13.992  25.726   8.761  0.1043 -0.2946 -0.4715
 5152W        W42646  34.883  14.289  19.809 -0.0385 -0.0795 -0.2123
 5153W        W42647  29.357  17.598   7.086  0.0545  0.0737 -0.2494
 5154W        W42648  18.878  24.936  24.355  0.0566  0.1242 -0.1955
 5155W        W42649   0.637  30.651   8.381 -0.1822  0.0443  0.0646
 5156W        W42650  20.937  24.846  20.073  0.1939 -0.0477 -0.5089
 5157W        W42651  19.959  27.541   4.859 -0.2553  0.1360 -0.0194
 5158W        W42652   9.150  16.848   4.195  0.1377 -0.0718  0.3025
 5159W        W42653  21.667  21.877   2.587  0.1952 -0.1084 -0.1829
 5160W        W42654  25.597   5.361  16.699 -0.4227  0.0258  0.0897
 5161W        W42655  34.496  25.683  13.060  0.2639 -0.0487  0.0693
 5162W        W42656  14.488   8.162  19.767  0.0904 -0.1227 -0.3831
 5163W        W42657   5.092   8.119   5.109 -0.2590 -0.1920 -0.1580
 5164W        W42658  19.824  16.489  19.133  0.2912  0.2646 -0.0138
 5165W        W42659  33.747  25.167  17.530 -0.0925  0.1835  0.0747
 5166W        W42660  24.413  13.349  15.344  0.1162  0.0439 -0.1838
 5167W        W42661  29.470  23.340  22.996 -0.4318  0.0536  0.2077
 5168W        W42662   3.316  21.242  16.963  0.0271  0.1890  0.0011
 5169W        W42663  10.143  24.319  22.361  0.1153  0.1550 -0.5912
 5170W        W42664  27.968  21.065  10.785 -0.1763  0.0855 -0.1824
 5171W        W42665  14.994  15.590   3.867  0.0401 -0.1905 -0.1530
 5172W        W42666   1.874  13.386  19.655  0.0471  0.1086 -0.0580
 5173W        W42667   1.170   6.491   3.612 -0.3862  0.0398 -0.0866
 5174W        W42668  11.666   5.472   8.829 -0.4597  0.1605  0.0077
 5175W        W42669  11.512   9.304  26.233 -0.1020 -0.2126  0.0697
 5176W        W42670  22.945   6.406   5.669 -0.0118 -0.4005  0.1402
 5177W        W42671  16.174   4.694  10.175  0.1506  0.0005 -0.3387
 5178W        W42672  18.052   5.843   0.591 -0.1903 -0.1224  0.1983
 5179W        W42673  29.019   2.333   1.240 -0.4591 -0.0958  0.1650
 5180W        W42674  25.977  21.341  13.408  0.0547 -0.4421 -0.3191
 5181W        W42675  19.683   3.915  20.048 -0.0517 -0.1323  0.0534
 5182W        W42676  17.746  30.641  19.510 -0.0087  0.0295  0.3835
 5183W        W42677  12.693  30.710  24.900 -0.1633 -0.1663  0.3681
 5184W        W42678  25.052  34.849   5.018  0.1164 -0.0485 -0.0907
 5185W        W42679  12.969   8.210  21.858  0.1717 -0.1043  0.2201
 5186W        W42680   3.149  20.063  25.518  0.0014 -0.0856 -0.1108
 5187W        W42681  27.478  23.067  21.965 -0.0720 -0.1120  0.0274
 5188W        W42682  21.441   0.179   6.297 -0.1125 -0.2823 -0.0202
 5189W        W42683  10.656  27.054   8.902 -0.2036 -0.2805  0.1502
 5190W        W42684  30.833  27.231  23.611 -0.2813 -0.0312 -0.1903
 5191W        W42685  16.117   6.881   2.035  0.2063 -0.0686  0.1353
 5192W        W42686  20.297   9.827   7.528 -0.1179  0.2655  0.1062
 5193W        W42687  18.484  19.996  12.115 -0.1662 -0.2417  0.3680
 5194W        W42688  11.749  19.536  12.985  0.0756 -0.0630  0.1224
 5195W        W42689  19.739  33.805   1.370 -0.1319 -0.0245 -0.0424
 5196W        W42690   0.124  21.505  25.698  0.0252 -0.2217 -0.0600
 5197W        W42691   3.340   1.071  18.776  0.0635 -0.1024 -0.2044
 5198W        W42692   5.088  13.400  23.319 -0.1478  0.1830 -0.0974
 5199W        W42693  28.878  25.344  13.527  0.2895  0.2747 -0.3042
 5200W        W42694  17.409  13.195   2.304  0.0396 -0.2532  0.0641
 5201W        W42695  18.881  20.912   4.640  0.2071 -0.0584 -0.0816
 5202W        W42696   0.853   0.713   6.262  0.3535 -0.2309  0.0856
 5203W        W42697   5.202  28.226  20.781  0.0363  0.2844  0.1409
 5204W        W42698   3.860  33.105  23.998  0.0081  0.1314 -0.1783
 5205W        W42699   7.605  21.617   9.135  0.2998  0.1156 -0.1532
 5206W        W42700  17.396  27.617  22.504 -0.0437 -0.0967  0.1992
 5207W        W42701  19.115  34.232   7.026 -0.2111  0.1524  0.1200
 5208W        W42702  26.690   4.482  18.057 -0.3044 -0.0714  0.0378
 5209W        W42703  17.985  16.046   9.624  0.0299 -0.1301  0.0571
 5210W        W42704   7.612  33.619   8.987 -0.0931 -0.0973 -0.2186
 5211W        W42705   2.331  30.283   5.552 -0.1250 -0.0391 -0.3127
 5212W        W42706   4.958  33.948   8.381  0.0951 -0.1878 -0.0074
 5213W        W42707  14.950   0.775   1.828 -0.0539  0.1195  0.1905
 5214W        W42708  16.580  15.430   3.511 -0.1529 -0.1815  0.1706
 5215W        W42709  28.457  34.536   4.727 -0.1106  0.2895  0.3114
 5216W        W42710  30.317   4.010   3.858  0.2515  0.3190  0.0558
 5217W        W42711  24.251  14.688  11.708 -0.0592 -0.3705 -0.4361
 5218W        W42712  26.022  30.648   2.661  0.0432  0.0798  0.1442
 5219W        W42713  31.540   6.743  17.067  0.0399  0.0351  0.1150
 5220W        W42714  23.840   2.970  14.127  0.2239 -0.3218  0.3904
 5221W        W42715  28.383  19.514  17.522  0.1294  0.3739 -0.2652
 5222W        W42716  29.796  28.211   9.803  0.1049 -0.0754  0.0476
 5223W        W42717  20.198  15.121   7.258  0.2282 -0.1484  0.3507
 5224W        W42718   7.479  33.493   3.192 -0.2000 -0.0316 -0.0093
 5225W        W42719   9.734  26.248  12.750 -0.1476  0.4832 -0.3641
 5226W        W42720  11.627   7.810   4.647  0.2020 -0.1165 -0.3081
 5227W        W42721  31.141   6.382  17.843  0.1868  0.1988  0.1227
 5228W        W42722  24.413  27.372   0.725  0.2848  0.1261  0.0021
 5229W        W42723   0.132   4.581   6.232  0.0077  0.2696 -0.3112
 5230W        W42724  27.873  14.830  22.103  0.1536  0.0366  0.1550
 5231W        W42725   0.357  24.129   3.892  0.1405  0.2853  0.3598
 5232W        W42726  24.532  16.417  14.623  0.3186  0.0924 -0.3590
 5233W        W42727   0.160  25.556   3.037  0.1754 -0.0063 -0.0569
 5234W        W42728  33.279   3.398   5.973  0.0182  0.2298  0.1055
 5235W        W42729  20.069  18.792  24.488 -0.1403  0.0542 -0.0220
 5236W        W42730  20.661  18.266  25.529  0.2210  0.2550  0.1330
 5237W        W42731  26.358   3.491  25.991 -0.0419  0.1851  0.1333
 5238W        W42732  22.922  33.325   1.623  0.1469  0.0343 -0.0630
 5239W        W42733  18.315  23.472   8.119 -0.3692  0.0895  0.5260
 5240W        W42734   4.144  10.528   1.104  0.1163 -0.1129 -0.0212
 5241W        W42735  13.876   7.022   0.677 -0.1226 -0.0208 -0.0522
 5242W        W42736  14.666  10.844  12.409  0.2209 -0.2732  0.0138
 5243W        W42737  17.392  18.758   7.448 -0.0651  0.0733  0.1539
 5244W        W42738  26.177  27.775  15.659  0.1711  0.1085 -0.0977
 5245W        W42739  15.793  27.673  11.006  0.0770  0.0743  0.3962
 5246W        W42740  12.954   2.195  10.722  0.2700 -0.2302  0.0597
 5247W        W42741  13.495  26.270  11.468  0.1041  0.0418  0.1178
 5248W        W42742  24.853  32.355  14.479  0.1606 -0.0897 -0.4329
 5249W        W42743  34.577  25.210  17.938  0.0795 -0.1945 -0.0168
 5250W        W42744  11.025  33.102  24.519 -0.0405  0.0752 -0.0287
 5251W        W42745  20.485   0.866  21.637 -0.0973  0.1876 -0.0438
 5252W        W42746  11.047   8.744   6.826  0.2615 -0.2213  0.2774
 5253W        W42747  14.844  21.918  14.441 -0.2195 -0.4479  0.1339
 5254W        W42748   8.725   9.633  21.238  0.2047  0.1974 -0.0273
 5255W        W42749  15.191  13.599  26.105 -0.0321  0.0576  0.0988
 5256W        W42750  27.297   4.427  18.991 -0.2521  0.1228  0.0885
 5257W        W42751   0.633   1.521  19.006  0.0791 -0.0064 -0.1223
 5258W        W42752  20.685   4.723   6.811 -0.1769 -0.1008  0.0744
 5259W        W42753  31.893  25.013   1.060  0.2852 -0.0878 -0.1373
 5260W        W42754  32.364  12.137  24.000 -0.0933 -0.2278  0.3626
 5261W        W42755  23.499   5.981   6.422  0.0772  0.0299  0.4083
 5262W        W42756  25.904   4.427  18.899 -0.0546 -0.2276  0.0453
 5263W        W42757   2.922  10.985  25.307  0.5107  0.2435  0.1364
 5264W        W42758  27.006  32.981  25.252 -0.1193 -0.1811 -0.0949
 5265W        W42759  23.593  29.164  20.210 -0.3266  0.5015  0.1280
 5266W        W42760  11.404  20.955  13.063 -0.2378  0.0454  0.1341
 5267W        W42761   5.909  10.445  22.590  0.0860  0.2302  0.2793
 5268W        W42762   8.493  13.956  20.539  0.2912 -0.2180  0.0980
 5269W        W42763  11.229  28.175  16.393  0.0782  0.1655 -0.1401
 5270W        W42764   9.958  22.823  10.236 -0.3155 -0.0266 -0.0894
 5271W        W42765  31.935  22.422  26.216 -0.1057  0.3552  0.2169
 5272W        W42766  30.895  25.792  11.449 -0.0280  0.2170 -0.0336
 5273W        W42767  24.868  32.437  21.157  0.1461 -0.3093 -0.0088
 5274W        W42768   0.418  29.080   1.389 -0.2618 -0.0689  0.1697
 5275W        W42769   1.682   3.105  16.921  0.2508  0.2666  0.1263
 5276W        W42770   6.289   7.677   1.772  0.1695  0.0964 -0.1802
 5277W        W42771  26.378  33.506  19.114 -0.1053  0.2852 -0.2492
 5278W        W42772   0.936  24.036  14.930  0.1529  0.1755  0.0219
 5279W        W42773  15.842   9.225  10.043  0.0304 -0.0209  0.1729
 5280W        W42774  14.209  12.339   8.907 -0.0142 -0.1906 -0.1835
 5281W        W42775  13.695  35.081  10.017 -0.0555 -0.0416 -0.1349
 5282W        W42776  32.430  15.150  16.620 -0.1461 -0.0290  0.0745
 5283W        W42777  34.155  10.268  13.857 -0.2338  0.1777 -0.0726
 5284W        W42778   4.684  33.991  19.272 -0.1345 -0.2298  0.2695
 5285W        W42779  12.060  16.678  26.068 -0.0741  0.1305  0.2359
 5286W        W42780  13.399  25.866   6.598  0.1274 -0.2968  0.1817
 5287W        W42781  15.150  10.809   0.726  0.1740  0.1265 -0.0013
 5288W        W42782  22.325  16.210   1.188  0.0873 -0.3521  0.2579
 5289W        W42783  21.181   2.442  25.509  0.2207 -0.1998 -0.2467
 5290W        W42784   0.437  20.322  22.567  0.0040  0.3393 -0.0321
 5291W        W42785  22.763  33.573  25.248  0.0633  0.0010  0.0115
 5292W        W42786  24.887  13.199  22.719 -0.0668  0.2027 -0.3085
 5293W        W42787  28.746  18.329  22.652  0.0723 -0.3725  0.2170
 5294W        W42788  13.773   0.357  24.777 -0.2657 -0.1769 -0.0524
 5295W        W42789  21.396   0.207   2.168  0.1812  0.2537 -0.3530
 5296W        W42790  14.478  33.802   6.522  0.0713 -0.3899 -0.0372
 5297W        W42791  15.471  28.799  23.639 -0.2742 -0.1689  0.1250
 5298W        W42792  13.805  22.997  12.905 -0.1282  0.1651 -0.0106
 5299W        W42793  24.287  35.055   6.190  0.0006  0.0613 -0.0887
 5300W        W42794   7.455  21.533   6.312 -0.0965 -0.5182 -0.1214
 5301W        W42795   7.008   3.061  21.881 -0.0396  0.2802  0.1448
 5302W        W42796  32.441   9.630  10.001 -0.0832 -0.1395 -0.6372
 5303W        W42797  21.909   9.624  21.981  0.2087  0.1467 -0.2599
 5304W        W42798  19.663  24.825   1.871  0.3984 -0.0023 -0.1816
 5305W        W42799  32.426  19.010  17.237 -0.0050  0.2355 -0.1933
 5306W        W42800   2.952  27.122  18.518 -0.0238  0.0422  0.1417
 5307W        W42801  21.205   5.151  23.394 -0.2183  0.0218  0.4433
 5308W        W42802  11.280  32.689  12.570  0.1908  0.0621  0.4921
 5309W        W42803  22.244   8.420   0.639 -0.0676  0.1227 -0.1288
 5310W        W42804  29.293  32.083  13.119 -0.0329  0.3514  0.0515
 5311W        W42805  16.320  33.695  17.870 -0.0654  0.0008 -0.2740
 5312W        W42806  12.386   2.399  20.126  0.3010 -0.2029  0.1611
 5313W        W42807   1.628  24.413  20.313  0.0131 -0.3028  0.0900
 5314W        W42808   3.534   7.279   7.126 -0.0180 -0.1282  0.2803
 5315W        W42809  12.252  22.185  14.546  0.1060  0.0930  0.1155
 5316W        W42810  10.399  29.766   7.069 -0.2875  0.0962  0.2571
 5317W        W42811   9.077   7.528  11.836  0.1491  0.1699  0.1924
 5318W        W42812  26.634   2.827  16.016  0.0718 -0.0952  0.0434
 5319W        W42813  16.002   7.571   3.407  0.2410 -0.0526  0.1876
 5320W        W42814  15.645  27.165   3.524 -0.0109  0.1005 -0.3181
 5321W        W42815   2.645  30.750   0.964 -0.3630 -0.0149  0.1190
 5322W        W42816   8.109  12.132  22.142 -0.1048  0.3066 -0.2769
 5323W        W42817   4.703   5.663   8.343  0.2149  0.0551  0.2290
 5324W        W42818  20.323  31.463  22.614  0.2298 -0.2219 -0.1142
 5325W        W42819  20.578  11.233  19.479  0.1779  0.0991 -0.0400
 5326W        W42820  15.034  29.986   3.531 -0.2147  0.3807  0.1489
 5327W        W42821   8.069  16.511   6.866  0.0106 -0.0451  0.0226
 5328W        W42822  35.036  31.423  15.914  0.0567 -0.0272  0.0387
 5329W        W42823  26.125  30.205  11.602  0.0822  0.0714  0.2550
 5330W        W42824  17.328   8.907  20.145  0.1611 -0.0519 -0.1875
 5331W        W42825  13.011  15.079  22.383  0.2712 -0.1697 -0.0987
 5332W        W42826  31.127   6.982  16.170 -0.1482 -0.1708 -0.3265
 5333W        W42827   3.892  20.870  24.451 -0.1833 -0.1481  0.0237
 5334W        W42828  10.845   2.310   5.884  0.1041 -0.0353  0.1455
 5335W        W42829  14.539  34.896  10.431  0.1623 -0.0215  0.3136
 5336W        W42830  12.957   3.396   6.772 -0.0461 -0.1371 -0.0338
 5337W        W42831  17.438   3.384  22.614 -0.0079  0.2842 -0.2943
 5338W        W42832  14.703  26.237  13.623  0.0628  0.2015 -0.3190
 5339W        W42833  15.565  21.131  11.764 -0.1708 -0.2745 -0.0795
 5340W        W42834  11.080  23.047   0.182  0.0057  0.1326 -0.1260
 5341W        W42835   7.255  32.406   5.545 -0.0165 -0.0188 -0.0307
 5342W        W42836  33.929   5.971  17.005 -0.1464 -0.0785  0.0618
 5343W        W42837  10.210  16.970   5.431 -0.1964 -0.3361 -0.0397
 5344W        W42838  34.414  10.314  23.684  0.1702  0.3240 -0.0830
 5345W        W42839  25.104   1.178   4.817  0.3543  0.0653 -0.0467
 5346W        W42840  27.724   7.774  13.250  0.0551 -0.0833 -0.0422
 5347W        W42841  14.265  21.696  12.691  0.0561  0.0114  0.2868
 5348W        W42842  28.951  28.703   1.963 -0.0100  0.0811  0.2841
 5349W        W42843  13.229  19.316   7.201 -0.2571 -0.1936 -0.0629
 5350W        W42844   3.993   8.915  24.502 -0.0690  0.3481  0.0682
 5351W        W42845   6.856  17.318  24.634 -0.1545 -0.2092  0.0738
 5352W        W42846   4.526  17.939  23.504  0.1393  0.0620  0.3470
 5353W        W42847  34.633  31.383   4.294 -0.1182 -0.1739  0.1450
 5354W        W42848  14.288   2.748   6.714  0.1431  0.1961  0.1995
 5355W        W42849  16.168  35.220  21.944  0.0187 -0.1904 -0.1556
 5356W        W42850   3.613   2.953   2.578 -0.2261 -0.0062 -0.1127
 5357W        W42851   7.892   6.680  11.087  0.0924 -0.2785  0.1720
 5358W        W42852   6.904  10.081  18.612  0.2017  0.1015  0.2921
 5359W        W42853   4.871   3.351   5.763  0.2041  0.4421  0.0885
 5360W        W42854  12.102  19.921  12.569 -0.2508  0.0658  0.0936
 5361W        W42855  25.821   1.392   2.420  0.1244  0.0345  0.0381
 5362W        W42856  33.451  17.149   5.757 -0.1082  0.1983  0.0577
 5363W        W42857   0.084   1.606  25.284 -0.0704 -0.0893 -0.2106
 5364W        W42858  25.645  14.775  11.725 -0.0983  0.1566  0.0379
 5365W        W42859  20.915  18.607   3.567 -0.2526 -0.0320 -0.1779
 5366W        W42860  26.400  29.328   3.073  0.3350 -0.0309  0.0594
 5367W        W42861  27.160  22.135  24.571 -0.3329  0.2423  0.4044
 5368W        W42862  20.079  28.256  19.272 -0.1429 -0.0183  0.0720
 5369W        W42863  35.070  10.439   0.325  0.3393 -0.1831 -0.0851
 5370W        W42864  22.308  19.420  20.886  0.0899  0.0177  0.0130
 5371W        W42865   1.910  27.199  20.003 -0.2228  0.0729  0.0044
 5372W        W42866   7.713   0.086  14.026  0.1383  0.0941 -0.4518
 5373W        W42867  20.326   8.812   6.074  0.1455 -0.1264 -0.0566
 5374W        W42868  27.899  14.251  23.086  0.0350 -0.1509 -0.0745
 5375W        W42869   3.921  31.847   2.722  0.0589 -0.1107  0.1368
 5376W        W42870  33.840  28.516  18.417 -0.1379  0.3474  0.1187
 5377W        W42871  11.535  22.295   5.960  0.1160 -0.0454  0.1882
 5378W        W42872  34.602   8.567  24.444  0.1381 -0.2235 -0.4047
 5379W        W42873  12.319  12.697  22.337  0.0976 -0.0026  0.1358
 5380W        W42874  10.597   3.984   6.955 -0.1199  0.1555 -0.1479
 5381W        W42875  18.162  13.173  25.818 -0.0127  0.2815  0.2644
 5382W        W42876  21.361  10.770   0.635 -0.0512  0.0487 -0.3794
 5383W        W42877  14.935  20.474  10.897  0.0787  0.2248 -0.0378
 5384W        W42878  13.727  17.330  22.639  0.2501 -0.1524 -0.1833
 5385W        W42879  17.226   8.577   7.927 -0.0664 -0.0535 -0.1261
 5386W        W42880  11.171  28.603   2.390  0.0845 -0.4309 -0.2435
 5387W        W42881  32.989   2.104  16.431  0.2605  0.1570  0.1951
 5388W        W42882  18.768   2.559  22.767 -0.0274 -0.0942 -0.0677
 5389W        W42883   3.325  12.250  21.850  0.0111  0.0158 -0.3069
 5390W        W42884  19.042  33.061  22.846 -0.0170  0.0988  0.1615
 5391W        W42885  31.449  20.712  23.948 -0.0179 -0.1947  0.1662
 5392W        W42886  21.086  32.850  22.874  0.0231  0.1468  0.1435
 5393W        W42887  34.808   9.184  25.893 -0.0006  0.4660  0.0483
 5394W        W42888   8.157   6.204  13.130  0.0894 -0.2971 -0.1914
 5395W        W42889  31.888   1.387  21.242 -0.1591 -0.1697 -0.1404
 5396W        W42890  19.921   8.736  10.263  0.2122 -0.2233 -0.1309
 5397W        W42891  15.053  33.696   0.129  0.0600 -0.1239 -0.0641
 5398W        W42892  32.053  19.071  16.833 -0.0122  0.3349 -0.0060
 5399W        W42893  26.806   7.854  23.392  0.1600  0.1071  0.3781
 5400W        W42894  13.683   8.826   0.480  0.0661  0.3647 -0.3191
 5401W        W42895  18.751  18.165  25.824 -0.1554 -0.4118  0.0388
 5402W        W42896  26.937  11.741  22.265 -0.0742  0.0510  0.0233
 5403W        W42897  28.456  26.749  15.274 -0.0387 -0.1178 -0.5203
 5404W        W42898  13.975  10.233   4.314 -0.1221 -0.0670 -0.0014
 5405W        W42899  21.996  24.598   2.937  0.0671 -0.2245 -0.0526
 5406W        W42900  17.356   4.738  24.446  0.2935  0.0242  0.0512
 5407W        W42901  30.451  29.845   5.665  0.0572 -0.1182 -0.0597
 5408W        W42902   0.710  32.936  20.603  0.1587  0.2256 -0.2112
 5409W        W42903  13.732  15.877   1.345 -0.1507  0.1647 -0.1745
 5410W        W42904   8.253  19.432   4.963 -0.1936 -0.2015  0.3227
 5411W        W42905  23.472   9.628  21.196 -0.0565 -0.1189 -0.1009
 5412W        W42906  30.012  12.215  12.253 -0.1168 -0.0256 -0.1589
 5413W        W42907  17.908   7.457   6.607  0.0056 -0.0752  0.3803
 5414W        W42908  11.199  34.026  12.870 -0.1788  0.1887  0.1230
 5415W        W42909  16.520  32.330   6.153 -0.0485  0.0511 -0.1198
 5416W        W42910  24.439  21.666  10.353 -0.1806  0.1355 -0.1317
 5417W        W42911  30.505  14.813  21.450 -0.2205 -0.2616  0.1669
 5418W        W42912  23.424  33.259  19.638  0.1087 -0.0846  0.0609
 5419W        W42913   6.869  33.516  13.443  0.1793 -0.4396  0.1063
 5420W        W42914   9.060   2.865   7.777 -0.1540  0.1949 -0.1526
 5421W        W42915   8.065   4.052  13.760  0.1605  0.1418  0.0277
 5422W        W42916  24.144   2.244   0.809  0.0233 -0.4856 -0.0371
 5423W        W42917  15.967   4.303   6.751  0.0153 -0.2042 -0.2471
 5424W        W42918   7.665  17.940  24.742 -0.1604  0.1919 -0.1674
 5425W        W42919  17.499  16.350  25.348 -0.1137  0.0947 -0.2473
 5426W        W42920   8.575  19.521  25.089 -0.1323  0.0477  0.0447
 5427W        W42921   2.088  28.880  10.461  0.0650  0.1348 -0.1464
 5428W        W42922  20.822  18.822  25.421 -0.1082  0.0960 -0.3009
 5429W        W42923   5.733   2.374  23.676  0.0180 -0.0551  0.0210
 5430W        W42924  11.335  22.795  15.929 -0.1690  0.1758  0.2082
 5431W        W42925  31.224  17.162  17.790 -0.0351 -0.0394  0.3813
 5432W        W42926  13.104  34.854   6.122  0.2689  0.1780 -0.0354
 5433W        W42927  13.759   8.624  22.521  0.1523 -0.0096  0.1420
 5434W        W42928   0.289  14.802  17.171  0.1050 -0.0348  0.0603
 5435W        W42929  24.454   7.922   2.132  0.2511  0.2150 -0.1139
 5436W        W42930  18.274  14.566   2.653  0.0315  0.3687 -0.2716
 5437W        W42931  12.219  15.562   5.688  0.1096 -0.2350  0.0683
 5438W        W42932  23.599   2.521   6.114 -0.2042  0.1903  0.0070
 5439W        W42933   6.743  15.631   9.559  0.0100  0.0539  0.1123
 5440W        W42934  32.290  32.534  25.371  0.2446  0.0698 -0.5508
 5441W        W42935   7.082  14.171   8.714  0.0185  0.0958 -0.0866
 5442W        W42936  13.694  31.621  24.222 -0.1667  0.1373 -0.0139
 5443W        W42937   3.892  11.396  16.322 -0.3060 -0.0494  0.2396
 5444W        W42938  11.525  13.876  19.396 -0.1669 -0.0907  0.0270
 5445W        W42939  32.365   7.145  12.884  0.0938  0.0748 -0.0409
 5446W        W42940  11.445  10.385   6.636 -0.1099  0.0636 -0.4626
 5447W        W42941  16.714  15.229   9.383  0.2850  0.1123  0.0405
 5448W        W42942  21.389   3.474   2.751 -0.4104  0.3016 -0.0031
 5449W        W42943   5.863  11.954   5.078 -0.2826  0.0676  0.1373
 5450W        W42944  19.335  25.672   6.725 -0.0708  0.2870  0.0300
 5451W        W42945  26.892   6.688  21.838  0.4194  0.2660  0.0020
 5452W        W42946   1.837  10.946  23.160 -0.0380 -0.0214 -0.3077
 5453W        W42947  18.644  21.146   0.639 -0.0231 -0.0920 -0.0016
 5454W        W42948  18.069  15.172  10.110 -0.2942 -0.0523 -0.1634
 5455W        W42949  17.229   1.315   8.996 -0.2561 -0.2809  0.1189
 5456W        W42950  29.504   2.852   4.377 -0.1580  0.0512  0.3167
 5457W        W42951   8.218   6.264  22.478  0.0722 -0.0470  0.0092
 5458W        W42952   8.802  13.137   0.139  0.1125  0.4226  0.1287
 5459W        W42953  34.526  21.748  21.256  0.2430 -0.0918  0.2435
 5460W        W42954   5.363  14.520   6.811  0.0314 -0.0153  0.1865
 5461W        W42955  13.998  24.798   2.617 -0.0868 -0.0346  0.1621
 5462W        W42956  19.305   8.149  10.612  0.0475  0.0990  0.0238
 5463W        W42957   3.137   7.748  23.549  0.1494 -0.2669 -0.0234
 5464W        W42958  10.798   9.213  14.481 -0.0305 -0.2467  0.0113
 5465W        W42959  34.912   2.313   0.134 -0.4869 -0.3809  0.0622
 5466W        W42960  15.001  26.128  24.199  0.0522  0.0532  0.2438
 5467W        W42961   7.537  26.277   3.782  0.2834  0.2044  0.1535
 5468W        W42962   0.687   4.667   2.679  0.0942  0.1823  0.0262
 5469W        W42963  11.930  11.380   1.516  0.0383  0.2393 -0.3279
 5470W        W42964  30.642  21.184   6.863  0.1436 -0.0553  0.0455
 5471W        W42965  31.591  30.871  19.517  0.2287  0.0152  0.0050
 5472W        W42966  13.206   2.211  19.783  0.1124  0.0626  0.1256
 5473W        W42967  10.797  16.249  25.781 -0.1753 -0.1967 -0.1834
 5474W        W42968  18.395   9.424   9.079  0.0779 -0.1934  0.4600
 5475W        W42969  30.132   5.614  15.731 -0.3909 -0.1475 -0.0922
 5476W        W42970   7.174  19.966   7.163  0.3015  0.3907 -0.0102
 5477W        W42971   1.107   9.974  16.133  0.0455  0.2527  0.0243
 5478W        W42972  35.079  16.266   1.087 -0.3200 -0.0662 -0.0093
 5479W        W42973  28.552  30.347  21.942 -0.4378 -0.0439  0.0207
 5480W        W42974   9.096  13.530  19.248 -0.0687 -0.2512  0.2088
 5481W        W42975  27.229  34.981  11.329  0.0285  0.1579  0.0072
 5482W        W42976  32.390   7.530  15.253 -0.3752  0.2166 -0.1420
 5483W        W42977   6.281   9.746   0.336 -0.1966 -0.1361 -0.2418
 5484W        W42978  29.689  27.958  21.948 -0.1222  0.0998 -0.2203
 5485W        W42979  17.616  11.299   0.978 -0.0944  0.0771 -0.1544
 5486W        W42980   0.944  14.128  25.028  0.2669 -0.1866  0.0622
 5487W        W42981  23.141  29.292  13.784 -0.3104  0.0209 -0.2010
 5488W        W42982  11.269  12.869   7.134 -0.0666 -0.1101 -0.0309
 5489W        W42983  24.168  17.566  23.011  0.0574 -0.3233  0.0818
 5490W        W42984  25.377  26.537   9.438  0.3870 -0.0326  0.0270
 5491W        W42985  17.022  23.533  24.490  0.0056  0.0227  0.2377
 5492W        W42986  10.079  18.344   8.339 -0.1640  0.2508 -0.0437
 5493W        W42987   8.241   2.751   6.826 -0.1308  0.0043 -0.0943
 5494W        W42988  33.117   2.177  12.853  0.0830  0.0413  0.1015
 5495W        W42989   6.235  19.720   1.071 -0.1948  0.3141 -0.0698
 5496W        W42990  10.866  30.307  10.645 -0.0866  0.1797  0.0241
 5497W        W42991  35.047  28.898   4.062  0.3272 -0.0296  0.2461
 5498W        W42992   9.034  10.292  23.819  0.1799 -0.2337 -0.1892
 5499W        W42993  23.169  19.734  14.110  0.3443 -0.0312 -0.0949
 5500W        W42994  24.107  26.862   2.623  0.0417 -0.2923 -0.1189
 5501W        W42995   9.308  31.246   7.638  0.0434  0.1062 -0.3424
 5502W        W42996  11.499  18.342  12.506  0.1479 -0.4222 -0.3723
 5503W        W42997  21.883   1.462  16.523  0.0605 -0.1361 -0.1209
 5504W        W42998  14.193   0.084  25.214  0.4405 -0.4116 -0.0572
 5505W        W42999   0.002  11.611  25.401  0.1496  0.2075 -0.2817
 5506W        W43000  24.209  26.207  18.624  0.1395 -0.1536 -0.2600
 5507W        W43001  28.922  11.997   8.625 -0.0022 -0.0383 -0.1252
 5508W        W43002  19.372  19.563  11.313  0.1075 -0.0744 -0.0828
 5509W        W43003   2.796   2.901  19.400  0.0185  0.0655  0.0679
 5510W        W43004  32.725  29.655   0.692 -0.0569  0.3332 -0.0241
 5511W        W43005  20.315  35.005  15.988 -0.0575  0.1301 -0.2056
 5512W        W43006  24.722   2.436   1.561  0.0060 -0.0504 -0.1377
 5513W        W43007  20.468  28.557  20.986 -0.0915  0.4337  0.3344
 5514W        W43008  28.099  28.191  16.714  0.2550  0.0533 -0.0557
 5515W        W43009  26.249   7.656  21.211  0.2440 -0.0256  0.1109
 5516W        W43010  16.141  34.871   7.763 -0.2275 -0.1638 -0.2887
 5517W        W43011   6.612   7.856   6.304 -0.0047  0.2658 -0.2325
 5518W        W43012  31.163  26.158  22.651 -0.1189 -0.0093  0.2162
 5519W        W43013  32.472  30.050   2.021  0.2119  0.1425 -0.4720
 5520W        W43014  11.086   8.849  19.195 -0.2240  0.1771  0.0086
 5521W        W43015   0.440  11.488  21.107  0.1506 -0.0685 -0.0395
 5522W        W43016   0.837  15.415  11.333 -0.2334 -0.2366  0.3547
 5523W        W43017  11.864   1.499  10.436 -0.0481  0.2100 -0.2200
 5524W        W43018  12.639  12.656   8.777 -0.2754 -0.0807  0.2321
 5525W        W43019  25.099  29.191   3.823 -0.1938  0.1997 -0.2289
 5526W        W43020   7.141   0.011  19.859  0.1333  0.1782  0.0768
 5527W        W43021  12.864  33.934  21.327 -0.2913 -0.0664 -0.1019
 5528W        W43022   0.708  16.428  21.082 -0.1337 -0.0114  0.3029
 5529W        W43023  23.376   9.012  23.298  0.1358  0.0694  0.0232
 5530W        W43024  28.592  28.902  23.855 -0.1082 -0.1004  0.0666
 5531W        W43025  27.710   2.484  24.622 -0.2395 -0.1352 -0.3134
 5532W        W43026  24.089   6.061   2.174 -0.0525  0.0018  0.1986
 5533W        W43027  32.529  33.080  16.461  0.3470  0.3284  0.2853
 5534W        W43028   4.832  28.658   6.641 -0.2855 -0.1324 -0.0988
 5535W        W43029  30.362  17.320  14.168  0.0704 -0.1895  0.2068
 5536W        W43030  24.552  26.225  15.648  0.0828 -0.0214  0.0403
 5537W        W43031   6.412  11.471  22.313 -0.4176 -0.0893  0.0508
 5538W        W43032   7.282  23.624  10.485  0.0151  0.0401  0.0847
 5539W        W43033  27.606  11.834  18.816 -0.1330  0.1386 -0.5475
 5540W        W43034  26.973   6.094   0.130  0.0503  0.5135 -0.0528
 5541W        W43035  29.859  16.833  20.073 -0.1869  0.0186  0.0422
 5542W        W43036   7.569  29.509  14.538 -0.0604  0.1501  0.2605
 5543W        W43037  16.621  27.734   0.067 -0.1270 -0.1223  0.2614
 5544W        W43038   5.497  20.024   7.140 -0.1526  0.0338  0.0738
 5545W        W43039  34.398  21.246   7.390  0.0075  0.3516 -0.2873
 5546W        W43040  10.422   8.718  25.277  0.3336 -0.1318  0.0473
 5547W        W43041  23.515  11.139  13.734 -0.1652  0.4222  0.3544
 5548W        W43042  27.158  25.184  13.988 -0.0861  0.0375  0.2700
 5549W        W43043  22.593  22.134   1.037 -0.2484  0.0880 -0.2025
 5550W        W43044   8.880  23.044  15.283  0.1331 -0.2469 -0.0541
 5551W        W43045   1.141   0.295   3.205  0.2325 -0.0487  0.1764
 5552W        W43046   0.814   7.553   3.498 -0.1339 -0.2623  0.2638
 5553W        W43047  21.524  22.073  21.363 -0.0375  0.0159  0.1003
 5554W        W43048  12.812  27.385   5.345  0.0887  0.1121 -0.2439
 5555W        W43049   1.644  11.694  17.363  0.0047 -0.0788  0.0170
 5556W        W43050  29.943   5.419  14.466 -0.2870 -0.0396 -0.1188
 5557W        W43051   2.491  29.343   1.073 -0.0917 -0.0681  0.1727
 5558W        W43052  26.047  10.108  12.997 -0.2003  0.1759  0.1642
 5559W        W43053  23.153  23.808  22.666  0.1116  0.1308  0.2784
 5560W        W43054  23.855  18.393   1.284  0.0623 -0.0730 -0.0567
 5561W        W43055  15.576  13.387  23.603  0.1677 -0.0274 -0.2153
 5562W        W43056  20.974   0.467   3.175 -0.0673 -0.3199  0.1210
 5563W        W43057  24.572  25.079  17.987 -0.0823  0.0403 -0.0282
 5564W        W43058   5.861  21.494  23.670  0.1125 -0.3330 -0.0567
 5565W        W43059  12.927  18.065  12.456  0.0992  0.4155 -0.1515
 5566W        W43060   3.374  28.843  22.534  0.3064 -0.1596 -0.0059
 5567W        W43061   6.193   9.983  23.866  0.3723 -0.0822  0.0101
 5568W        W43062  10.789  34.551   6.038  0.2172  0.1958  0.2146
 5569W        W43063  13.739  31.976  22.233  0.0521  0.0884 -0.2523
 5570W        W43064  14.318  34.150   4.628  0.1100 -0.1285  0.0353
 5571W        W43065  18.687  19.836  26.205 -0.3827  0.0235  0.3431
 5572W        W43066  12.749   7.250  19.110  0.0864 -0.0865 -0.4401
 5573W        W43067   7.020  12.763  22.607 -0.0067  0.2795 -0.0259
 5574W        W43068  20.162  10.366  22.607 -0.2581 -0.3238 -0.0511
 5575W        W43069  14.506  30.749  21.519  0.1172  0.1612  0.2108
 5576W        W43070   2.393   1.962  16.822 -0.0983 -0.1233  0.2291
 5577W        W43071  26.435  29.526  11.876 -0.1338 -0.0615 -0.2336
 5578W        W43072  30.421  25.769  23.602  0.0413 -0.0377  0.1044
 5579W        W43073  32.661  22.841   7.941  0.1704 -0.1475 -0.0615
 5580W        W43074  32.798  22.042  26.069  0.2764 -0.1325 -0.0770
 5581W        W43075  15.274  34.998  11.442 -0.1178 -0.3242  0.1151
 5582W        W43076  17.909  21.163   1.475 -0.3960  0.1933  0.1157
 5583W        W43077  24.892  29.680  24.461  0.0867  0.0052  0.0053
 5584W        W43078  15.764  20.400  21.809  0.3565  0.1243  0.0153
 5585W        W43079  34.215   6.098  22.217 -0.2322 -0.2482  0.1110
 5586W        W43080  16.080   2.758   9.960 -0.0234 -0.2345 -0.0412
 5587W        W43081  25.473  30.760   5.954 -0.1872 -0.2978  0.2451
 5588W        W43082   8.412   6.146  21.130 -0.0454  0.0605 -0.0009
 5589W        W43083  34.558  28.053  17.363  0.2392  0.0536 -0.0706
 5590W        W43084  20.308  26.852  17.917  0.1849  0.1467  0.0122
 5591W        W43085  33.944  30.353  22.218 -0.0243 -0.2408 -0.2580
 5592W        W43086  19.437  32.702   0.719  0.1240  0.0357 -0.1087
 5593W        W43087  25.327  10.145  25.975 -0.1901  0.2281 -0.4671
 5594W        W43088   9.126  34.695   5.262 -0.2460 -0.1596  0.0168
 5595W        W43089  16.112   8.525  25.001 -0.0258  0.0500  0.0779
 5596W        W43090   5.190   7.922  24.452 -0.0826  0.1471  0.0285
 5597W        W43091   7.294  19.782  21.187 -0.0507  0.0029  0.1261
 5598W        W43092   5.701  12.930   2.922 -0.1462  0.3022 -0.2736
 5599W        W43093  29.920  27.761  17.620 -0.0918 -0.1641 -0.1901
 5600W        W43094   0.212  13.590  13.454  0.3485 -0.0146 -0.3953
 5601W        W43095  15.418  15.361  12.997  0.0391  0.0299 -0.1183
 5602W        W43096  24.068  26.686  14.711  0.0154  0.3385 -0.0831
 5603W        W43097  12.601   1.395   7.481  0.0842 -0.3373  0.2222
 5604W        W43098  14.523  34.179   3.591 -0.3108 -0.0086 -0.4026
 5605W        W43099  30.886  29.351  13.234 -0.1859 -0.1039 -0.1836
 5606W        W43100  24.692  17.214  17.201 -0.1613  0.4428  0.3040
 5607W        W43101   4.369  33.451   8.909  0.0708  0.1444  0.0340
 5608W        W43102  28.293   9.050   0.618 -0.0480 -0.0697 -0.1243
 5609W        W43103  22.675  22.971  19.816 -0.4454  0.0179 -0.1767
 5610W        W43104  18.614  15.273   2.318 -0.3067  0.0494  0.2109
 5611W        W43105  25.875  23.766  12.106  0.0502 -0.1966  0.1652
 5612W        W43106  20.497   7.082  20.564 -0.0269  0.0917 -0.1519
 5613W        W43107   7.923  12.364  19.346 -0.2452  0.0035 -0.0467
 5614W        W43108  12.271  28.689  13.240 -0.3166  0.1394  0.1222
 5615W        W43109  11.086  26.737   0.428  0.0036  0.2372 -0.2796
 5616W        W43110   9.376  34.780  24.619 -0.1401 -0.1422  0.1355
 5617W        W43111  29.415  15.883  14.608  0.1652  0.3165  0.2485
 5618W        W43112  22.254  14.441  18.775  0.3108 -0.0525 -0.4166
 5619W        W43113  33.689   0.453   3.244  0.1563 -0.0048 -0.0978
 5620W        W43114   3.863  10.906   0.578  0.1989 -0.3435 -0.3081
 5621W        W43115  34.475  17.473  19.937  0.2662  0.1500  0.3535
 5622W        W43116   1.416  12.160  14.611  0.0293 -0.0108 -0.0197
 5623W        W43117  30.402  10.216  22.577  0.0365 -0.2757  0.0745
 5624W        W43118  23.885  25.922  18.871 -0.1521  0.1062 -0.1104
 5625W        W43119  10.532  31.491  22.831  0.3884  0.0831 -0.3530
 5626W        W43120  28.683  25.810  21.824  0.0912  0.2053 -0.0479
 5627W        W43121   8.523  15.482   0.894 -0.1720 -0.2987 -0.3430
 5628W        W43122  21.425  29.281  17.865  0.3695  0.0512  0.0973
 5629W        W43123   4.650  21.632   3.590 -0.0038 -0.2443 -0.1590
 5630W        W43124   1.952  18.249  22.569 -0.0878 -0.1895  0.0092
 5631W        W43125  12.915  14.102   3.488  0.0903 -0.2106  0.0606
 5632W        W43126  10.459  13.911   6.580  0.0944 -0.2181  0.3408
 5633W        W43127  14.312  12.599  24.504 -0.2547  0.2167  0.2425
 5634W        W43128  12.710  20.684   4.503 -0.0065 -0.1105  0.3518
 5635W        W43129  31.114   8.929  19.385  0.2378 -0.1833  0.2349
 5636W        W43130  28.541  25.743   9.846  0.0102  0.0170  0.3580
 5637W        W43131  30.786   9.919  12.475  0.2186 -0.4214 -0.1746
 5638W        W43132  30.633   5.547  18.825  0.0514  0.1026 -0.1174
 5639W        W43133   5.048  17.229  17.469 -0.0254  0.0463 -0.1046
 5640W        W43134  20.780  12.471  24.081  0.0471 -0.0784  0.0061
 5641W        W43135   8.802   2.536  21.105 -0.1083 -0.1180 -0.0827
 5642W        W43136  19.104   0.803  22.587 -0.0716  0.1719 -0.1938
 5643W        W43137   2.694  31.774   4.502  0.0580  0.0261 -0.2719
 5644W        W43138  27.028   6.495  15.977 -0.0114 -0.1218 -0.0349
 5645W        W43139  17.726  24.532  24.095 -0.0789 -0.2983  0.1660
 5646W        W43140  13.998  17.733  25.889  0.3249 -0.1919  0.0194
 5647W        W43141  35.171  12.705  24.997 -0.2488  0.0485  0.0918
 5648W        W43142   7.569   4.945  25.829 -0.0110 -0.1571  0.1156
 5649W        W43143  19.545   3.537   7.398 -0.1477 -0.3562  0.2271
 5650W        W43144  31.332   5.406  21.492 -0.1378  0.1558 -0.1136
 5651W        W43145  25.788  16.984  23.176  0.1366  0.3611 -0.3293
 5652W        W43146   8.891  18.707  14.935  0.0518 -0.3651 -0.0728
 5653W        W43147  12.598  13.594  11.450  0.4468  0.0555  0.1735
 5654W        W43148  33.833  31.485   1.123  0.0392  0.0863 -0.0213
 5655W        W43149  22.800  19.184   1.443 -0.1347 -0.0028 -0.0713
 5656W        W43150  26.619   2.254  12.377  0.0276  0.1977  0.3464
 5657W        W43151   5.547  28.686  10.207  0.0671  0.0070 -0.0087
 5658W        W43152  15.190  13.260   8.643 -0.0886 -0.0235 -0.0188
 5659W        W43153  11.628   5.349  13.032  0.0328 -0.1155 -0.0603
 5660W        W43154   3.565   4.483  24.638 -0.2560 -0.1747  0.0653
 5661W        W43155  10.596   3.832  23.191  0.2046 -0.1690  0.1157
 5662W        W43156  10.519  34.612  23.510 -0.1614  0.0217  0.1609
 5663W        W43157  34.198  19.306  15.678  0.0870  0.1910  0.0212
 5664W        W43158   4.461  10.853   2.944  0.0702  0.2158 -0.0429
 5665W        W43159   0.363  11.116   0.008  0.0519  0.1037 -0.1372
 5666W        W43160  24.196   5.554  18.156  0.0938 -0.3122 -0.0522
 5667W        W43161  14.616  16.489   3.313  0.2761 -0.3144  0.0638
 5668W        W43162  34.786  21.097   0.475  0.2798 -0.0337  0.1721
 5669W        W43163  13.468  17.716   6.556 -0.4009 -0.0983 -0.1163
 5670W        W43164  20.385  20.782   1.754 -0.2634  0.0505 -0.0432
 5671W        W43165  34.786  12.205  13.228  0.0320 -0.0302 -0.3891
 5672W        W43166  18.069   8.874   4.237 -0.2410  0.3619 -0.0217
 5673W        W43167  21.208  18.301  23.141 -0.0800  0.2949  0.2705
 5674W        W43168  27.921  26.228  20.452  0.1502  0.2739  0.2780
 5675W        W43169   9.267  33.359  23.283 -0.1851  0.1876 -0.3074
 5676W        W43170  28.526  28.627   3.571 -0.1127  0.2056  0.0639
 5677W        W43171  27.807  27.489   2.108 -0.1003  0.0353  0.2241
 5678W        W43172  33.835  12.717  12.249  0.0477 -0.0475  0.3241
 5679W        W43173  26.008   2.518  20.126  0.3254 -0.0182  0.0227
 5680W        W43174   2.851  28.648   7.597  0.1753  0.2700 -0.2155
 5681W        W43175   5.200  10.627  19.442 -0.1505 -0.1167 -0.2801
 5682W        W43176  18.746  11.116  19.877  0.3512 -0.0569 -0.1427
 5683W        W43177   5.698  34.580  10.478  0.0088 -0.1015  0.1184
 5684W        W43178  26.378  16.027  13.058 -0.1651  0.0034  0.0368
 5685W        W43179  32.354   0.737  19.821 -0.0941 -0.0424 -0.1203
 5686W        W43180  13.658  19.316   9.006  0.1757 -0.0800 -0.0081
 5687W        W43181  23.985   2.194   5.890 -0.2291 -0.1861 -0.1917
 5688W        W43182  13.071   8.977  14.851  0.2431  0.3170 -0.1523
 5689W        W43183  30.942  19.462   7.467 -0.2053  0.3719 -0.2223
 5690W        W43184   5.966  10.141   0.245  0.1497 -0.4490 -0.2090
 5691W        W43185  25.433   6.693  11.048  0.0167 -0.0887 -0.0682
 5692W        W43186  20.743  23.653   9.325 -0.0409  0.0256  0.1990
 5693W        W43187  15.521  16.110  25.452 -0.0680 -0.0674 -0.1552
 5694W        W43188  12.297  22.578  12.737  0.1216 -0.3399 -0.3291
 5695W        W43189  14.241  31.655  10.636  0.1708 -0.1657 -0.2781
 5696W        W43190  27.729  16.116   5.066 -0.2797 -0.0132 -0.0529
 5697W        W43191  29.118   9.017  19.000  0.3048  0.1401  0.2632
 5698W        W43192  13.989  28.224  14.770  0.1159  0.2217  0.0199
 5699W        W43193  34.371  34.697  14.502 -0.2429  0.1199  0.0141
 5700W        W43194  15.453  13.982  11.176 -0.1527  0.1532 -0.2201
 5701W        W43195  12.734   5.797  12.670 -0.3420 -0.0403 -0.4111
 5702W        W43196   1.367  32.314   9.225 -0.1408  0.2511  0.1047
 5703W        W43197  25.404   6.434   1.695 -0.0903 -0.1174 -0.0970
 5704W        W43198  15.732  18.841  11.203 -0.1310  0.0986  0.0346
 5705W        W43199  25.239  33.000   5.178 -0.3646 -0.3016 -0.1153
 5706W        W43200  14.150  16.304   0.790  0.0995 -0.0948 -0.0519
 5707W        W43201  33.555   5.133  15.988 -0.0108 -0.0362 -0.2044
 5708W        W43202  11.199   0.926  10.115  0.2819  0.1223  0.0184
 5709W        W43203  12.053  19.155  13.059 -0.0931 -0.0942 -0.1615
 5710W        W43204  11.955   6.643   9.349  0.0994 -0.1656  0.0148
 5711W        W43205  10.740  28.528   5.177 -0.0642  0.2468  0.1998
 5712W        W43206   1.753  19.429  19.897 -0.2259 -0.0854 -0.1934
 5713W        W43207   9.377  20.219  12.468  0.0134 -0.0780  0.1238
 5714W        W43208  19.611  21.929   6.686 -0.2169  0.0678 -0.2496
 5715W        W43209  29.806   1.663   6.320 -0.1516 -0.0441 -0.1399
 5716W        W43210  23.630  32.053  23.516 -0.1353 -0.0537 -0.1496
 5717W        W43211   2.469   8.295   3.834 -0.0140  0.1811  0.0755
 5718W        W43212  15.867  15.377   2.500 -0.0339 -0.0237  0.1010
 5719W        W43213  26.956   5.634  14.706 -0.0288 -0.0310 -0.4084
 5720W        W43214  28.237  10.742  13.455  0.1163  0.1937  0.1249
 5721W        W43215  17.515  31.434  22.009  0.0964 -0.1252 -0.2776
 5722W        W43216  34.330  30.353   2.583  0.4061 -0.0947  0.1748
 5723W        W43217  27.958  24.395   7.731  0.0311  0.1116 -0.2302
 5724W        W43218  34.329  34.093  19.982  0.0950  0.0363  0.0459
 5725W        W43219  14.855  11.709  12.880  0.2483 -0.1110  0.1657
 5726W        W43220  27.142  27.317  16.111  0.1263 -0.4171 -0.0944
 5727W        W43221  27.924  26.812  22.312  0.1616  0.2095 -0.0025
 5728W        W43222  28.896  12.821  12.886 -0.0070  0.0638  0.0671
 5729W        W43223  31.400  28.994  13.811 -0.1449 -0.1742  0.4756
 5730W        W43224  31.076  33.556  16.259 -0.0880 -0.0360  0.1770
 5731W        W43225  26.543  30.605  24.462 -0.2441  0.1443  0.3651
 5732W        W43226   8.492  30.864  22.995  0.0543  0.0731 -0.1112
 5733W        W43227  14.253  13.164   9.387  0.3310  0.1251  0.1575
 5734W        W43228  34.615  33.562  19.798 -0.2888  0.1076  0.2266
 5735W        W43229  20.949  24.483  20.429 -0.1188 -0.0282 -0.1692
 5736W        W43230  25.537  26.296   0.828  0.0360  0.1054 -0.1417
 5737W        W43231  24.100  24.539  12.157  0.1037 -0.4664 -0.1178
 5738W        W43232  31.165   2.024  19.656 -0.0127 -0.0921 -0.2522
 5739W        W43233  14.239  18.381  14.330 -0.1827  0.0733 -0.1228
 5740W        W43234  11.600  34.557  13.900  0.1617  0.1056  0.0839
 5741W        W43235   6.501   1.067  24.771  0.1537  0.1712  0.3240
 5742W        W43236  31.389  26.796  24.562 -0.1470  0.0318  0.3778
 5743W        W43237  21.597  14.797  23.179 -0.1744  0.1941  0.1367
 5744W        W43238  22.420  19.253  25.043  0.0826  0.0920  0.0243
 5745W        W43239   0.343  21.792  15.199  0.0067  0.4989 -0.2729
 5746W        W43240   2.545   6.542  25.532  0.2365 -0.3067  0.4082
 5747W        W43241   9.040   2.263  23.885  0.3238  0.0158  0.2930
 5748W        W43242  11.852  22.360  25.069  0.2633 -0.0239  0.3945
 5749W        W43243  30.066  13.502  24.605  0.1859  0.0179 -0.1618
 5750W        W43244   2.993   1.959  25.979  0.2477  0.2670  0.1716
 5751W        W43245   6.288   5.140  21.272 -0.0232  0.4457 -0.0460
 5752W        W43246  14.899  18.754   4.991  0.0037 -0.0782 -0.0323
 5753W        W43247  35.280  22.950  12.928 -0.3108  0.0501  0.3088
 5754W        W43248  27.027  21.141  14.435 -0.0737 -0.1041 -0.1499
 5755W        W43249  31.437  23.392  13.584  0.1530 -0.0629  0.4117
 5756W        W43250  13.488  32.353   4.288  0.2945  0.1358  0.0869
 5757W        W43251   8.495  34.469   4.595 -0.0007  0.3216  0.3786
 5758W        W43252   0.306  20.549  22.096 -0.1465  0.0891  0.0534
 5759W        W43253  23.386  29.941  16.518  0.0685 -0.2626 -0.2267
 5760W        W43254  22.651  17.674  18.780  0.1729 -0.1620 -0.0602
 5761W        W43255  13.237  31.869  12.657  0.1917 -0.2115 -0.3562
 5762W        W43256  17.654  20.050  19.814  0.0048  0.0370  0.1710
 5763W        W43257   9.556  31.954   3.603  0.0917 -0.0157 -0.0114
 5764W        W43258  15.840  26.750  13.194 -0.0426  0.1856  0.0433
 5765W        W43259  11.984   7.076  19.269  0.0088  0.0675 -0.0016
 5766W        W43260  33.308  30.025   3.669  0.2447 -0.4129 -0.3513
 5767W        W43261  34.111  32.946  18.267  0.0565  0.0836  0.2592
 5768W        W43262  23.611  28.331  17.723 -0.1859  0.1186 -0.0623
 5769W        W43263  18.410  35.363   0.143  0.2851 -0.1036  0.0216
 5770W        W43264  17.813  12.171   3.401 -0.0947  0.2371 -0.2406
 5771W        W43265  31.525   4.470  15.693 -0.1797 -0.3507  0.1007
 5772W        W43266  17.674  32.487  25.253  0.0339 -0.0624 -0.0448
 5773W        W43267  16.159  16.663  19.368 -0.3588  0.1442  0.0237
 5774W        W43268  18.013  34.294  15.702 -0.1495 -0.0658  0.0386
 5775W        W43269  18.360   5.605  23.289  0.0052 -0.1276 -0.2681
 5776W        W43270   9.690   5.314   4.611 -0.0638  0.0859  0.2314
 5777W        W43271  28.681  10.224  25.909 -0.3936  0.0524 -0.0455
 5778W        W43272  18.491   3.705  16.313 -0.1080  0.1141 -0.2426
 5779W        W43273  22.429  23.469  17.244 -0.0370 -0.0145 -0.0316
 5780W        W43274  17.553   5.228  25.267  0.0203 -0.1266 -0.4829
 5781W        W43275  28.898  27.858  10.656  0.0447  0.0808 -0.0126
 5782W        W43276  28.285  14.645  18.963  0.0429  0.0929 -0.1606
 5783W        W43277  33.315  17.735  14.867 -0.0451 -0.1140  0.0665
 5784W        W43278  26.513  27.376   1.496 -0.2054 -0.0138  0.1293
 5785W        W43279  13.517  30.441   2.904 -0.1192  0.1295  0.1748
 5786W        W43280  12.831   3.725   9.162 -0.1931  0.2590 -0.1931
 5787W        W43281  28.373  32.874  13.038  0.1303  0.0889 -0.2475
 5788W        W43282  22.549  32.224  18.093  0.0403 -0.1062 -0.0753
 5789W        W43283   9.145  33.764  22.913  0.0313 -0.2337  0.1047
 5790W        W43284   9.404   8.838   0.177 -0.2070 -0.1726  0.0801
 5791W        W43285  16.732  14.003  12.577  0.3597  0.1084  0.1073
 5792W        W43286  32.189  33.074  16.001 -0.0125  0.2868 -0.0151
 5793W        W43287  29.834  34.036  24.420  0.2001 -0.2060  0.4988
 5794W        W43288  14.622  28.354   4.284  0.0884  0.1199  0.3045
 5795W        W43289   7.731  16.157  19.421 -0.2558  0.0716 -0.4832
 5796W        W43290  17.218  28.546   3.449  0.0961  0.4154 -0.1134
 5797W        W43291   6.319   7.488  26.193  0.1779 -0.2644  0.0864
 5798W        W43292  28.398   1.811  24.819 -0.1640  0.0978 -0.0454
 5799W        W43293  18.286  11.427   5.042 -0.2781 -0.0836  0.2911
 5800W        W43294   9.057  26.787   4.177  0.0633 -0.0333  0.0895
 5801W        W43295  20.850  19.551  21.448 -0.2610 -0.3115  0.1412
 5802W        W43296  16.490  11.108  13.666  0.0156 -0.0016  0.4523
 5803W        W43297  19.477  32.996  25.268  0.1230  0.0744 -0.1032
 5804W        W43298  18.120  21.271   4.468  0.0751 -0.0372 -0.0545
 5805W        W43299  22.779  33.527  12.027  0.1575  0.0063 -0.0237
 5806W        W43300   1.736  28.690  25.430 -0.0774  0.0498  0.2469
 5807W        W43301  25.672  34.980  16.901  0.0035 -0.1525  0.1191
 5808W        W43302  26.421  12.533  24.381 -0.3410  0.2738 -0.1975
 5809W        W43303  15.871  13.934  21.939  0.0035  0.0132  0.0621
 5810W        W43304   7.840  24.867   4.354  0.0285 -0.4700 -0.2888
 5811W        W43305  30.471  25.211  10.935  0.0218 -0.1285 -0.3925
 5812W        W43306  13.205  25.615   6.060  0.3733 -0.1781 -0.1304
 5813W        W43307  29.409  14.388  22.869 -0.1861 -0.0618 -0.1277
 5814W        W43308  16.408  22.127  11.470 -0.1339  0.2148 -0.2382
 5815W        W43309  11.685  18.795   6.911 -0.1167  0.2085 -0.1734
 5816W        W43310  17.953  18.353  11.184 -0.2204  0.1007  0.2126
 5817W        W43311  22.803  12.157   1.580  0.0839  0.0616  0.0183
 5818W        W43312  29.638  24.197   9.019 -0.0477  0.0863 -0.1125
 5819W        W43313  20.024  20.146   7.519 -0.2199 -0.0429 -0.1361
 5820W        W43314  35.242  21.397  16.496  0.2475 -0.3183 -0.1611
 5821W        W43315  21.715  27.555  16.367  0.0446  0.2005 -0.1626
 5822W        W43316   0.899  19.143  19.718  0.0676  0.2492 -0.2279
 5823W        W43317   2.845  16.457  24.455  0.4578  0.0459 -0.1436
 5824W        W43318  31.088   5.873  19.383 -0.0191 -0.1157  0.1571
 5825W        W43319  31.496   1.617  18.202  0.2065 -0.0314  0.0597
 5826W        W43320   7.960  24.628  24.423 -0.3505 -0.0214 -0.0327
 5827W        W43321  27.185  11.746  18.497 -0.0578  0.1311 -0.1149
 5828W        W43322  13.072  26.749   4.787  0.1318  0.1066  0.0570
 5829W        W43323  22.271   5.622   4.821  0.1192  0.2100  0.3312
 5830W        W43324  34.336   8.602  19.788 -0.0356  0.2069  0.0038
 5831W        W43325   1.482  15.414   0.210  0.1321 -0.1536  0.0376
 5832W        W43326  17.227   6.270   5.847  0.1503  0.1042 -0.1827
 5833W        W43327  28.991   6.698   9.366  0.4457 -0.0021  0.2587
 5834W        W43328  18.468  12.864   1.639 -0.0980  0.2627 -0.0769
 5835W        W43329  24.759  28.785  21.778  0.0419  0.1283 -0.1815
 5836W        W43330  28.755  22.949   6.923  0.0190  0.3593 -0.1818
 5837W        W43331  21.665  10.749  23.257 -0.0170 -0.2920 -0.0021
 5838W        W43332   0.045  34.506   8.353 -0.1978 -0.0295 -0.2718
 5839W        W43333  19.248   3.968  22.750  0.2779 -0.1677 -0.2023
 5840W        W43334  16.519  26.898   5.288  0.0878 -0.1822  0.1411
 5841W        W43335  19.674   9.736  23.107 -0.0030 -0.0740  0.2054
 5842W        W43336   6.139   3.750  23.257 -0.0902 -0.0889 -0.2027
 5843W        W43337   0.135  35.204  19.054 -0.0404 -0.1874  0.0372
 5844W        W43338   8.385   6.685   6.762  0.0570  0.2501 -0.0856
 5845W        W43339  32.759  15.604  13.031  0.1030 -0.2390 -0.0119
 5846W        W43340  23.285  32.438  18.574 -0.0783  0.1915  0.2673
 5847W        W43341  14.423  21.911   9.815 -0.0080  0.4351 -0.1666
 5848W        W43342  34.219  33.959  26.250  0.2468  0.1038 -0.1542
 5849W        W43343  10.179  24.301   6.811  0.0056  0.0102 -0.2362
 5850W        W43344  19.637  10.118  11.293  0.1569  0.3418  0.0088
 5851W        W43345  22.774   2.290  26.147  0.1028  0.3486 -0.0074
 5852W        W43346  22.473  21.305  24.652  0.0428 -0.0460  0.3309
 5853W        W43347  22.156  23.568  25.198 -0.1441  0.0745  0.0694
 5854W        W43348   6.466  31.662  26.075  0.1703  0.1833 -0.2424
 5855W        W43349  34.628  18.082  17.727  0.1860  0.0872 -0.2639
 5856W        W43350  30.251  30.746   1.045  0.1217  0.1927  0.3389
 5857W        W43351   3.133   7.923   3.159  0.2485  0.2994 -0.2715
 5858W        W43352  21.529  18.885  21.250  0.2487  0.1077  0.2376
 5859W        W43353  11.370  29.468   5.274  0.1067  0.1758 -0.0213
 5860W        W43354  17.497  31.209  23.049  0.0048 -0.0541  0.0785
 5861W        W43355  33.491  20.416  12.779  0.1291  0.1352 -0.4054
 5862W        W43356   1.306   5.674  13.528 -0.1236 -0.2096  0.3401
 5863W        W43357  20.184  11.223  19.072  0.3310  0.2090  0.1494
 5864W        W43358   5.019  31.719  23.199 -0.1815  0.0338 -0.0054
 5865W        W43359   7.535  10.430  11.563  0.1234 -0.3492  0.1405
 5866W        W43360  10.520  17.175  10.397  0.5838 -0.0513 -0.2536
 5867W        W43361  26.578  15.751  23.816  0.2259  0.0485  0.1682
 5868W        W43362   2.360   2.112  21.143 -0.0871 -0.2636 -0.0669
 5869W        W43363   9.805  25.410  11.388 -0.3428 -0.0096  0.2056
 5870W        W43364   6.891   8.126  19.131 -0.2563 -0.0030  0.2241
 5871W        W43365   2.469  22.688   1.910 -0.1124 -0.2281 -0.1449
 5872W        W43366  21.805   9.515  16.510 -0.0703  0.2107  0.2039
 5873W        W43367   3.155  20.741  20.024 -0.1388  0.2718  0.2650
 5874W        W43368  18.708  24.472  21.144  0.0457 -0.1062  0.1778
 5875W        W43369  13.155  27.247  12.859 -0.0584 -0.1746  0.0148
 5876W        W43370  31.177  20.221  11.063 -0.1553 -0.0691 -0.2252
 5877W        W43371   4.240   8.060  25.061  0.1659 -0.0238  0.3773
 5878W        W43372   6.210  20.359   0.386 -0.2128  0.0266 -0.1665
 5879W        W43373   6.117   5.620   7.076  0.6677 -0.1240  0.1915
 5880W        W43374  28.636  18.561  15.052 -0.1895 -0.1139  0.0723
 5881W        W43375  29.912  19.178  24.194 -0.1317 -0.2027 -0.3083
 5882W        W43376  30.588  19.585  25.316  0.2205 -0.3507 -0.1586
 5883W        W43377   0.004  12.259  24.813 -0.2252  0.3979 -0.0207
 5884W        W43378  34.596  29.375  17.486 -0.2440 -0.4012 -0.1018
 5885W        W43379  19.031  18.125  22.766 -0.0690 -0.2307 -0.3054
 5886W        W43380  34.989   3.114  16.692  0.3148  0.2135  0.2197
 5887W        W43381  32.864  13.588  24.730  0.0577  0.2234 -0.0180
 5888W        W43382   5.132  29.826  23.012  0.1763 -0.1164 -0.0412
 5889W        W43383   3.436  13.395  21.962  0.0926  0.0745 -0.0012
 5890W        W43384  29.783  32.260  25.772  0.2228  0.3196  0.2403
 5891W        W43385   3.265   9.859   1.119 -0.1830 -0.3228 -0.1646
 5892W        W43386  27.700   8.536  14.126  0.1515 -0.4055  0.2800
 5893W        W43387   2.756  18.165   0.422  0.0333  0.0392  0.1243
 5894W        W43388  27.604   5.479  18.032  0.0264  0.0176 -0.0063
 5895W        W43389  12.945  29.743   2.707 -0.0476  0.0523 -0.0690
 5896W        W43390  11.949  28.538   1.681  0.2384  0.1823 -0.1320
 5897W        W43391  26.684   0.684   5.313 -0.0223 -0.1833  0.2902
 5898W        W43392  33.839  25.120  15.281 -0.0650 -0.1892 -0.0068
 5899W        W43393  35.110  26.209  18.009 -0.3090  0.4066 -0.1565
 5900W        W43394  33.325   6.747  19.691 -0.0380 -0.1653  0.3010
 5901W        W43395  23.797  26.369  13.961  0.1154  0.0271 -0.1505
 5902W        W43396   2.599  32.077  18.215 -0.3082  0.0133  0.0388
 5903W        W43397  14.661  12.945  20.893  0.1273  0.1995  0.0465
 5904W        W43398  21.660  17.254   3.879  0.0828  0.0007 -0.1289
 5905W        W43399  17.702   5.432  19.892  0.0601 -0.1176 -0.0425
 5906W        W43400  27.561  14.527   7.119  0.1244  0.1360  0.2775
 5907W        W43401  13.311   9.016  21.912 -0.1195  0.0694  0.0210
 5908W        W43402   2.654   3.644  25.314 -0.3150 -0.0702  0.0287
 5909W        W43403  20.291  17.223   6.575 -0.1567 -0.2153 -0.0207
 5910W        W43404   2.576   3.878  20.166  0.0633 -0.2309 -0.1957
 5911W        W43405   0.134  18.278  15.189  0.1386  0.2641 -0.2698
 5912W        W43406  15.898  33.900   8.715  0.0968 -0.0272  0.1763
 5913W        W43407   5.626  24.839  23.903  0.0566 -0.0169 -0.0896
 5914W        W43408  32.526   6.844   2.212  0.0166  0.1072 -0.2009
 5915W        W43409   4.101  14.307  20.503 -0.3651 -0.0792  0.1818
 5916W        W43410   4.316  11.510  23.865 -0.5428  0.2688  0.3859
 5917W        W43411   9.803  33.655   0.976  0.2546  0.0086 -0.1134
 5918W        W43412  11.681  10.091  18.958  0.3066  0.0517  0.0680
 5919W        W43413  25.989   2.985   5.528 -0.3996  0.1487 -0.2281
 5920W        W43414   9.721  12.327  11.838  0.3137 -0.1146  0.3079
 5921W        W43415  17.056  14.385  24.293 -0.1102  0.0797 -0.1062
 5922W        W43416  25.487  15.356  24.855 -0.2139 -0.1139  0.3652
 5923W        W43417  21.281  17.728  17.282  0.1284 -0.1278  0.2708
 5924W        W43418   9.831  33.040   0.395 -0.2712 -0.1863 -0.0197
 5925W        W43419  29.747  17.317  24.797  0.1165 -0.0175 -0.3807
 5926W        W43420  23.247  29.051   1.210 -0.2286 -0.1826 -0.1789
 5927W        W43421   7.296   5.566  19.949  0.2449  0.4635  0.1293
 5928W        W43422  29.271  30.719  25.706 -0.2690  0.0186 -0.2284
 5929W        W43423  26.692  14.899  24.434 -0.0063  0.1070  0.0569
 5930W        W43424  29.299  20.525   6.417  0.2071 -0.1851 -0.0844
 5931W        W43425  17.393  16.896  10.721  0.0286  0.2104  0.0440
 5932W        W43426  16.310  31.759  24.077  0.0850 -0.1812  0.0516
 5933W        W43427  34.123  21.968  19.540 -0.2642  0.1103  0.0980
 5934W        W43428  12.253  11.637   0.552  0.0380 -0.0934  0.2197
 5935W        W43429  14.884   3.650  23.376  0.0724 -0.1768 -0.2120
 5936W        W43430  18.698   5.004   4.663 -0.1068  0.1932  0.0968
 5937W        W43431  16.292  30.261   4.305 -0.1756 -0.2654  0.1699
 5938W        W43432  12.075  32.944   0.087  0.3692 -0.1353 -0.0916
 5939W        W43433  15.358  34.046   0.389  0.0616  0.2291  0.1214
 5940W        W43434  30.007   7.338  11.673  0.3025  0.0565 -0.3881
 5941W        W43435   1.656  31.283   2.538  0.1950  0.0018  0.2745
 5942W        W43436   7.793  31.927  15.419  0.2016  0.0305 -0.0984
 5943W        W43437   6.746  16.061   4.271  0.0701 -0.3203 -0.1955
 5944W        W43438   3.356  11.298  13.926  0.0504 -0.1484  0.4157
 5945W        W43439   5.527  15.634   5.387  0.1214  0.1596  0.1078
 5946W        W43440  14.086  29.005  15.910 -0.1239 -0.0303 -0.0587
 5947W        W43441  30.326  34.652  13.043  0.1186  0.0467  0.2093
 5948W        W43442  25.306  12.311  10.806  0.3406  0.1347  0.0747
 5949W        W43443  22.206   9.067  15.298  0.3842 -0.1370  0.0460
 5950W        W43444  29.803   6.863   1.491 -0.2865 -0.2490  0.0593
 5951W        W43445  30.103  15.772  10.380  0.0301 -0.0815  0.0478
 5952W        W43446  30.777  15.566  21.664 -0.0472  0.0991 -0.2281
 5953W        W43447  21.996  18.407  18.410  0.0957 -0.1580  0.0305
 5954W        W43448   8.481  21.239  12.612  0.0820 -0.2450 -0.2122
 5955W        W43449   3.956   9.621   3.756  0.0541 -0.2918 -0.0572
 5956W        W43450  21.981  11.575   1.577 -0.1221  0.1928  0.1749
 5957W        W43451  25.864  20.645   8.627  0.1817  0.1129  0.3462
 5958W        W43452  34.471   6.196  14.135  0.4933 -0.0788 -0.4794
 5959W        W43453   6.029  29.086  11.364  0.0303 -0.1397 -0.3028
 5960W        W43454  16.895  25.906  22.944  0.0819 -0.2152  0.0907
 5961W        W43455   3.256  34.116   9.569 -0.0688  0.1438  0.1749
 5962W        W43456  22.019  30.788  12.922 -0.1608 -0.5656  0.0938
 5963W        W43457  17.009  15.492  24.291 -0.2485 -0.0806  0.0110
 5964W        W43458  10.404  20.935  22.806  0.3470  0.1194 -0.2083
 5965W        W43459  23.223  12.592  18.921  0.0540 -0.0848  0.1220
 5966W        W43460  17.845  27.299   4.712  0.0023 -0.4777 -0.2411
 5967W        W43461   9.879  29.514  11.411  0.1174 -0.1456 -0.1730
 5968W        W43462  21.116  19.955  21.624 -0.0985 -0.0398 -0.1614
 5969W        W43463  17.928  17.833   6.896  0.2783  0.0568  0.1284
 5970W        W43464  22.940  14.563   1.419  0.1187 -0.1838  0.1404
 5971W        W43465  21.871  30.374  21.419  0.1079 -0.2739  0.1073
 5972W        W43466  34.384  15.380  20.400  0.0669  0.0408  0.0374
 5973W        W43467  16.234  29.709   9.892  0.2965  0.1620 -0.2972
 5974W        W43468  17.089  18.650  20.785  0.2757  0.4041 -0.0464
 5975W        W43469  23.344  24.110   0.692  0.0274 -0.1858 -0.3092
 5976W        W43470  11.453  24.073  24.094  0.4279 -0.0122  0.0552
 5977W        W43471   8.794   0.331   7.014  0.1985 -0.1599  0.1830
 5978W        W43472  24.119  28.618  18.245  0.4619  0.1425 -0.0626
 5979W        W43473  25.504   2.906  17.681 -0.1652 -0.0281  0.3982
 5980W        W43474  23.285  11.958  23.902 -0.2406  0.1441 -0.1586
 5981W        W43475  22.997   4.159  23.576  0.0088 -0.2574  0.1037
 5982W        W43476  10.550  32.234  14.808  0.1160  0.1517 -0.0166
 5983W        W43477  34.507  11.319  26.075  0.1148 -0.0632  0.0463
 5984W        W43478  24.907  27.629  18.814 -0.1096 -0.1383 -0.1184
 5985W        W43479  19.706  29.119   7.243  0.0075 -0.2905 -0.1561
 5986W        W43480  27.945   4.917   4.483  0.0970  0.1340  0.2898
 5987W        W43481   4.045  34.833  11.903 -0.0759 -0.0423 -0.1944
 5988W        W43482   2.306  20.605   1.095  0.0945 -0.0880  0.2195
 5989W        W43483  16.374  11.101   2.215 -0.2861  0.0048 -0.2258
 5990W        W43484  11.458  18.495   1.508 -0.2722  0.0904 -0.3032
 5991W        W43485  28.312   9.322  16.088 -0.0498 -0.4177 -0.3268
 5992W        W43486  32.883   1.525  24.994  0.1185  0.0259  0.0538
 5993W        W43487  27.890  34.912  19.277  0.1138 -0.0457 -0.0743
 5994W        W43488  34.517  35.095  14.889 -0.0266  0.0641  0.0194
 5995W        W43489  15.525  26.131  21.901  0.1125 -0.0394  0.1399
 5996W        W43490  35.040  13.002  15.111 -0.0643 -0.0015 -0.1299
 5997W        W43491  29.286  22.250  10.204  0.1032 -0.0565  0.0748
 5998W        W43492   6.988  24.598  22.191  0.4779 -0.1005  0.0410
 5999W        W43493  23.916  21.763  19.966  0.5533  0.0283 -0.3114
 6000W        W43494   6.041  32.539  13.757 -0.0767 -0.2210 -0.0067
 6001W        W43495  19.821   4.581  15.857  0.0309  0.2163  0.1195
 6002W        W43496  28.538   4.201  10.411  0.1697 -0.0741  0.1162
 6003W        W43497  10.696  16.125  11.627 -0.1480  0.0488  0.1776
 6004W        W43498  15.602   2.932   6.496 -0.2303  0.0682 -0.0812
 6005W        W43499  26.511   7.349  26.131  0.1361  0.3595  0.1723
 6006W        W43500  24.695   2.716  21.098 -0.0484 -0.3695 -0.1260
 6007W        W43501  15.714   6.313   3.222  0.1994  0.0350 -0.0675
 6008W        W43502   9.892   9.230  25.874  0.0936  0.0879  0.0930
 6009W        W43503   6.689  26.240  15.328  0.4239  0.0436 -0.1512
 6010W        W43504  11.055  20.256   3.554  0.0184 -0.1860 -0.0743
 6011W        W43505  34.881  13.439  19.716 -0.0944 -0.2312  0.1423
 6012W        W43506  32.472   4.197  21.766 -0.1582  0.2524  0.0664
 6013W        W43507  34.707  23.875  23.314  0.0032 -0.0941 -0.2135
 6014W        W43508  31.646  10.877  11.379 -0.1717 -0.0490  0.2175
 6015W        W43509   7.496   9.800  25.309 -0.1549  0.0811  0.0815
 6016W        W43510  31.425  28.649   3.905  0.2474 -0.1355 -0.1085
 6017W        W43511  10.014   6.590   0.730 -0.2902 -0.0721  0.0427
 6018W        W43512  32.018  30.685  24.115  0.2655 -0.2697 -0.2643
 6019W        W43513   4.249  20.801   0.088  0.1995  0.2073  0.2510
 6020W        W43514  32.224   6.306  18.934  0.2524 -0.0621 -0.0809
 6021W        W43515   9.521  32.680  15.042  0.4129 -0.0837 -0.1657
 6022W        W43516   0.670  17.710  10.064 -0.1095  0.0132 -0.1819
 6023W        W43517   0.437  13.461  13.013  0.1409  0.1015 -0.2426
 6024W        W43518  17.038  14.003   1.938  0.0411  0.1713  0.0586
 6025W        W43519  31.797  12.878  25.236  0.0778 -0.0320  0.0241
 6026W        W43520  32.224  23.135  10.614 -0.0636  0.1288  0.1695
 6027W        W43521  14.868  24.606   4.829 -0.0946 -0.1967  0.2393
 6028W        W43522  11.223  32.324  24.552 -0.1534 -0.0700 -0.1497
 6029W        W43523  19.209  31.312   8.760  0.0654  0.1054  0.1576
 6030W        W43524   2.017  33.975  19.052 -0.2923 -0.0809  0.3388
 6031W        W43525  12.177  11.233  22.583  0.1462  0.1016  0.0279
 6032W        W43526  18.875  25.241  19.883  0.0607  0.0732  0.2576
 6033W        W43527  20.560  25.789  23.106 -0.2552 -0.0447  0.1358
 6034W        W43528  25.688  11.864  20.483 -0.0584  0.1042  0.0283
 6035W        W43529  17.517  14.071  23.889 -0.0545 -0.3100 -0.0198
 6036W        W43530  14.458  17.014   9.349 -0.2927  0.0332 -0.2538
 6037W        W43531   5.894  12.903   0.900 -0.1134  0.1223 -0.1046
 6038W        W43532  16.617   6.691   7.190  0.2465 -0.1815 -0.1153
 6039W        W43533   6.422  23.953   7.099  0.0043 -0.1320 -0.2972
 6040W        W43534  18.016  28.511  18.958  0.0263 -0.2776  0.0111
 6041W        W43535  18.654  10.827   0.528  0.1607 -0.1629 -0.0693
 6042W        W43536  25.723  16.059  11.569  0.0564 -0.0720 -0.0429
 6043W        W43537  31.316  16.501  23.056  0.0375 -0.2463  0.0390
 6044W        W43538  15.598  33.292  21.896 -0.1930  0.0063  0.2221
 6045W        W43539  34.649   6.839  24.005  0.1299  0.1489  0.0805
 6046W        W43540  20.971   2.697  23.486 -0.2111  0.2595  0.0938
 6047W        W43541  11.115   8.738   7.372  0.1002  0.1107  0.0194
 6048W        W43542  18.437   9.652   5.385  0.1817  0.0081  0.1815
 6049W        W43543  24.856   2.126  12.779 -0.1135  0.1197 -0.1076
 6050W        W43544   6.266   9.123  19.272  0.0923  0.1007 -0.0046
 6051W        W43545  15.158  27.244  22.571 -0.2398 -0.1919 -0.2542
 6052W        W43546  17.078  18.078  18.910  0.0232 -0.3928  0.0178
 6053W        W43547  18.214   4.974   2.679  0.0994  0.0804 -0.1647
 6054W        W43548  30.937  13.620  20.359 -0.2904 -0.3007 -0.0289
 6055W        W43549   9.248  29.140  12.900 -0.4671 -0.1586 -0.1412
 6056W        W43550  21.495  35.184  14.938 -0.0417 -0.2219  0.0923
 6057W        W43551  19.724  17.696  21.570 -0.3253  0.0001 -0.2666
 6058W        W43552  31.876  24.192  21.541  0.2120  0.4778 -0.1148
 6059W        W43553   7.348  17.270  24.641  0.0042 -0.0808 -0.0521
 6060W        W43554  25.301  14.637  14.683  0.1441  0.2666 -0.1736
 6061W        W43555  26.652  29.839   4.710 -0.0726 -0.0800  0.3312
 6062W        W43556  15.603  34.596  25.750 -0.1104  0.0635 -0.5593
 6063W        W43557  21.435  15.053   2.364  0.1544 -0.2286 -0.1607
 6064W        W43558   5.097   6.420   2.027 -0.2518 -0.1939 -0.4702
 6065W        W43559  26.915  11.547  17.138 -0.0451 -0.1176  0.0258
 6066W        W43560  28.879  27.235   8.101  0.1043  0.2447 -0.2693
 6067W        W43561  29.221   9.367  19.783  0.4656 -0.0379 -0.0318
 6068W        W43562   6.942  14.604  24.867  0.1014  0.3957 -0.3514
 6069W        W43563  22.780   0.179  13.525 -0.3019 -0.2818  0.1102
 6070W        W43564   1.119   5.271  25.306 -0.0918 -0.1637  0.1623
 6071W        W43565  32.394  29.487  26.084  0.0195  0.1790  0.0685
 6072W        W43566  10.021   4.422   4.413 -0.4372 -0.2020  0.1306
 6073W        W43567  34.913   9.578  18.709 -0.1327  0.1742  0.0947
 6074W        W43568   8.148  30.815  23.335  0.1051  0.0292 -0.0287
 6075W        W43569  30.980  17.378  11.235  0.1870 -0.1072 -0.1576
 6076W        W43570   6.993  30.461  12.301 -0.3954 -0.0560 -0.0248
 6077W        W43571   9.439  24.987   2.874 -0.0014 -0.0522  0.1867
 6078W        W43572  18.273   4.863   8.591  0.3079  0.1760  0.1247
 6079W        W43573  16.594  21.132   3.341  0.3501 -0.1788  0.0569
 6080W        W43574  11.942   8.474   7.158  0.1047 -0.0995  0.0656
 6081W        W43575  23.929   9.575   1.350 -0.1200 -0.2708  0.2156
 6082W        W43576  23.660  14.531   0.892 -0.1711 -0.3147 -0.1360
 6083W        W43577  16.433  19.778  20.892 -0.4275  0.1767 -0.0236
 6084W        W43578  23.789  33.836  25.405 -0.3795 -0.1399 -0.0116
 6085W        W43579  14.845   8.824   6.764  0.0978  0.2488 -0.2270
 6086W        W43580  10.342  12.930  20.005  0.1291  0.0294 -0.1837
 6087W        W43581   7.745  32.290   8.625  0.0145  0.0804 -0.1077
 6088W        W43582  20.660  21.489   7.232 -0.0637 -0.2470  0.0704
 6089W        W43583  24.507  14.671  14.082 -0.3292  0.1964 -0.1593
 6090W        W43584  17.843   9.783  22.432  0.1537 -0.0900  0.0211
 6091W        W43585  35.200  33.396   2.992 -0.1000 -0.0095  0.1053
 6092W        W43586   2.410   5.372  24.853  0.1614  0.0348 -0.1600
 6093W        W43587  34.666   8.556   1.374  0.1014  0.1427  0.0845
 6094W        W43588  21.719  25.567  14.945  0.3561 -0.2637  0.2047
 6095W        W43589   8.525  14.515  23.964 -0.2096  0.1358  0.2341
 6096W        W43590  11.364  22.718   7.663 -0.0405  0.0775  0.0157
 6097W        W43591  33.924   7.398  14.021  0.0440 -0.1382 -0.0602
 6098W        W43592   6.300  30.634   3.559  0.2618 -0.2130  0.1772
 6099W        W43593  22.384   2.498  20.932  0.1689 -0.1950 -0.0469
 6100W        W43594  29.255  30.774  22.901  0.0322  0.2168 -0.3911
 6101W        W43595  11.399  17.189  21.530  0.1024  0.0176  0.0229
 6102W        W43596  15.602  21.179  24.177  0.1163  0.1769 -0.0084
 6103W        W43597   6.146  16.168  18.107  0.0295 -0.0899 -0.1975
 6104W        W43598  30.758   9.264   9.556  0.3222  0.1006  0.1355
 6105W        W43599   4.657  32.606  24.935  0.2036 -0.0059 -0.0912
 6106W        W43600  20.128  31.126   0.780 -0.1346  0.0288 -0.2230
 6107W        W43601   3.070  15.859  23.377 -0.0136  0.1594  0.2352
 6108W        W43602   3.761  32.523   0.001 -0.0267  0.2849 -0.2162
 6109W        W43603   0.915  19.026   9.092  0.1359 -0.5280 -0.0192
 6110W        W43604  10.917   1.013   4.899  0.0884  0.1865  0.2002
 6111W        W43605  25.020  17.882  13.883 -0.1109  0.0835  0.0865
 6112W        W43606   5.802   9.592  21.263  0.1772 -0.0149 -0.1465
 6113W        W43607  24.862  25.375  20.729 -0.2320 -0.1277  0.0783
 6114W        W43608  30.163   5.577  13.972 -0.0396  0.1087  0.2281
 6115W        W43609   2.984  16.659  17.913  0.0905  0.1787 -0.2004
 6116W        W43610  11.872  25.004  15.420  0.0686 -0.2449  0.2013
 6117W        W43611  30.124   2.623   0.622  0.4309 -0.0399 -0.1365
 6118W        W43612  23.617  31.431  14.329 -0.2720 -0.0150  0.0383
 6119W        W43613   2.680   3.009  17.984  0.0031  0.1247 -0.1514
 6120W        W43614  16.212  14.715  23.581  0.0678  0.0205 -0.0308
 6121W        W43615  23.739  23.652  15.616 -0.1213 -0.0286  0.1780
 6122W        W43616  19.618   1.543   6.277  0.4023  0.1198  0.1574
 6123W        W43617   4.883  22.783   5.198  0.1127  0.3988 -0.1495
 6124W        W43618  18.445  34.502  25.042 -0.3159  0.0160  0.0690
 6125W        W43619  24.402  19.602   0.755 -0.0778  0.4516  0.1538
 6126W        W43620   2.044  16.743  16.672 -0.4705 -0.3116  0.0319
 6127W        W43621  11.479  25.474  16.236 -0.1689 -0.0109  0.3892
 6128W        W43622   6.106   6.612  21.166 -0.0866  0.0495  0.0437
 6129W        W43623  17.623  29.731  25.827  0.1135  0.1106 -0.1336
 6130W        W43624  23.981  29.821   4.453 -0.0125  0.1447  0.1778
 6131W        W43625  26.219  17.552  21.415  0.1742 -0.0943  0.0302
 6132W        W43626  24.671  32.049   0.520  0.2945 -0.3073 -0.0933
 6133W        W43627  16.205  27.342  11.786 -0.2012 -0.2399 -0.1691
 6134W        W43628  33.823   2.596  22.840  0.0806 -0.0949  0.0198
 6135W        W43629   6.393   2.044  10.858  0.2685 -0.0590  0.0128
 6136W        W43630  23.103   3.040  17.650  0.0838  0.1688  0.0254
 6137W        W43631  21.958  17.305  17.374  0.0726 -0.0333 -0.0356
 6138W        W43632  28.059  34.289  26.010  0.0515 -0.1979 -0.0085
 6139W        W43633   3.419  17.996  18.714 -0.1090  0.1292  0.1270
 6140W        W43634  26.551  24.295  26.084  0.1837 -0.2400  0.4250
 6141W        W43635  17.275  18.949   6.570  0.0702 -0.3038 -0.1352
 6142W        W43636  13.999  11.681  13.539  0.0189 -0.1635 -0.2750
 6143W        W43637  29.075   2.796  24.232  0.1064  0.0881  0.0107
 6144W        W43638  34.250  24.961   1.256  0.0321  0.1951  0.1335
 6145W        W43639   7.717  28.282  21.746 -0.2210  0.3403  0.2235
 6146W        W43640  15.663  24.918  15.896 -0.2434  0.2510  0.0784
 6147W        W43641  26.234  16.575  19.576 -0.2563  0.0891 -0.1271
 6148W        W43642  10.930  33.818   0.466  0.1073  0.0121 -0.0437
 6149W        W43643  14.353  17.376   2.080  0.0962  0.2310 -0.2275
 6150W        W43644  28.076  17.800   8.918  0.0386 -0.1813 -0.1325
 6151W        W43645  30.871   7.273  14.296  0.2060 -0.1476  0.1802
 6152W        W43646  24.274   1.936   2.616  0.2706 -0.1113  0.1546
 6153W        W43647  23.656  25.867  15.633  0.0247  0.0120 -0.0043
 6154W        W43648  32.858  26.634  11.067  0.0956 -0.0331 -0.0328
 6155W        W43649   4.473  20.331   0.140 -0.0386 -0.0570  0.0066
 6156W        W43650  23.089  12.838  20.077 -0.0098 -0.0556  0.3701
 6157W        W43651  26.650   5.288  15.594  0.4751 -0.1511 -0.3528
 6158W        W43652  11.293  31.813   4.549 -0.1007  0.1667 -0.0679
 6159W        W43653  16.107  10.600  10.839  0.0060  0.3324 -0.2666
 6160W        W43654  10.636   2.072  25.282  0.0242 -0.0287 -0.1857
 6161W        W43655  11.018   6.813  25.283  0.4167  0.1987  0.1415
 6162W        W43656   6.825  30.824  14.111 -0.2562  0.1186  0.4576
 6163W        W43657   8.570  14.090   5.815 -0.1388 -0.1736 -0.1298
 6164W        W43658  20.912  10.090  22.619 -0.0237  0.2364  0.1757
 6165W        W43659  35.233  20.922   8.638  0.1781 -0.1574 -0.2116
 6166W        W43660  29.486  32.130  18.403  0.0477  0.1242  0.0670
 6167W        W43661  26.234  16.012  15.189 -0.0641 -0.0385  0.0909
 6168W        W43662  17.452   7.304  22.302 -0.2762  0.1603  0.1829
 6169W        W43663  21.758   7.069  16.966  0.0488  0.1340  0.0851
 6170W        W43664   5.765   6.826   3.533  0.3236  0.1029 -0.0597
 6171W        W43665   5.905  33.567  12.541  0.1071 -0.0325 -0.1387
 6172W        W43666  25.074  30.976  15.985  0.0011  0.2535  0.3279
 6173W        W43667   2.540  18.935   1.586 -0.0347  0.0476  0.3594
 6174W        W43668  27.550  18.939  16.410  0.2702 -0.0597  0.0406
 6175W        W43669  27.177  33.958  16.821 -0.0695  0.0172  0.0744
 6176W        W43670  34.052  26.834  23.272  0.0254 -0.1916  0.0922
 6177W        W43671   4.863  11.331  20.632 -0.0167 -0.1984 -0.0691
 6178W        W43672   1.895  20.895  23.192  0.1977  0.1457  0.1092
 6179W        W43673  29.891  32.234  18.972  0.0194 -0.1271 -0.0454
 6180W        W43674  27.000   5.732  15.614 -0.0306 -0.0532  0.1250
 6181W        W43675  10.894  10.709  11.665  0.1560 -0.0899 -0.2764
 6182W        W43676  15.354  27.388   9.230  0.1962  0.3610 -0.0553
 6183W        W43677  30.334  12.556  14.185 -0.0475  0.0317  0.1633
 6184W        W43678   1.760   8.229  22.420 -0.0783 -0.0534  0.0304
 6185W        W43679   1.745  12.071  13.039  0.2531 -0.2114  0.0939
 6186W        W43680  24.105  29.442  11.115  0.1694 -0.0224 -0.2476
 6187W        W43681  34.933  20.602  24.992 -0.2039 -0.0086  0.0927
 6188W        W43682  34.960   1.553  25.647  0.0434  0.1552 -0.0753
 6189W        W43683  10.346  24.543   2.101 -0.4548 -0.5671 -0.0219
 6190W        W43684   7.416  25.236  10.568 -0.2054 -0.0742 -0.4109
 6191W        W43685   5.007  22.893   6.773  0.0649  0.1808  0.1242
 6192W        W43686  31.729   1.665   5.530 -0.0833 -0.0374 -0.1707
 6193W        W43687  22.560  19.166   0.701 -0.2472  0.0266  0.1155
 6194W        W43688  30.364   2.939   1.176 -0.1183 -0.1390 -0.2245
 6195W        W43689  16.020  27.958   9.234 -0.0017  0.1067  0.0720
 6196W        W43690   9.174  28.780  10.608  0.0047  0.2256 -0.1945
 6197W        W43691  20.765   8.596   8.452  0.0158  0.0041  0.1135
 6198W        W43692   8.019  34.146  14.177  0.1387 -0.1419  0.3123
 6199W        W43693   9.526  10.880  18.145 -0.0292 -0.0773  0.4348
 6200W        W43694  19.616  10.510   4.306  0.0775  0.0209 -0.1804
 6201W        W43695   4.997   3.810  10.330 -0.2485 -0.1009  0.1352
 6202W        W43696  34.345  33.958  18.428  0.6707  0.2054 -0.0332
 6203W        W43697  11.713   1.466   5.166  0.0319  0.3334 -0.0193
 6204W        W43698  16.027  16.458  11.848  0.0667  0.0700 -0.2246
 6205W        W43699  33.748  12.139  25.792  0.0533 -0.3871  0.1534
 6206W        W43700   0.816  20.496  15.313  0.2197  0.0625  0.2969
 6207W        W43701  21.941  25.389   3.273  0.0051 -0.3285  0.0190
 6208W        W43702  16.117  26.050   5.809  0.1227 -0.1096  0.0291
 6209W        W43703  27.244  30.994  21.595  0.0107 -0.2811  0.1699
 6210W        W43704   4.651  16.537  17.878  0.2553 -0.1594  0.0021
 6211W        W43705  13.698  30.497  24.205 -0.1811 -0.0250 -0.0099
 6212W        W43706  15.636  25.248   8.130  0.2059 -0.0318 -0.0543
 6213W        W43707  22.847  26.739  13.919 -0.2275  0.0516  0.0326
 6214W        W43708  11.719   5.661  20.740  0.0995 -0.2921 -0.1415
 6215W        W43709  34.598  13.750  20.630 -0.0226  0.2398  0.2758
 6216W        W43710   6.134   3.552   6.646  0.1380 -0.0105 -0.1235
 6217W        W43711  13.000  34.672  20.507  0.1304 -0.0384 -0.0771
 6218W        W43712  24.722  27.630   9.724  0.0731  0.2026 -0.0719
 6219W        W43713  15.269  33.052   5.327 -0.0347  0.0251 -0.2441
 6220W        W43714  12.527   0.536  25.037  0.0077 -0.0173 -0.0738
 6221W        W43715   3.047  28.220   5.548  0.3046  0.0083  0.3507
 6222W        W43716  16.652  15.950  11.337  0.1427  0.0571 -0.4983
 6223W        W43717  21.781   0.134  20.053 -0.0786 -0.0134 -0.1521
 6224W        W43718   8.538  21.541   8.211  0.0420 -0.0437  0.0834
 6225W        W43719  23.431  11.983   0.848 -0.1035  0.0383 -0.3169
 6226W        W43720  25.327  32.415  21.753 -0.1997  0.0564 -0.0385
 6227W        W43721  29.772  23.856  12.282  0.3732  0.1526  0.4710
 6228W        W43722  26.704  23.151  25.167 -0.1151  0.4436 -0.1153
 6229W        W43723  12.953  34.069   7.189 -0.0964 -0.1997  0.0757
 6230W        W43724  24.817   7.909   3.908  0.2176 -0.0283  0.0175
 6231W        W43725  12.239  26.863   2.408 -0.0521 -0.0203 -0.2255
 6232W        W43726   5.839  12.705   9.099 -0.1745 -0.4371 -0.0222
 6233W        W43727  16.259  21.267   6.915  0.0163 -0.0167 -0.0755
 6234W        W43728  27.144  12.443  19.376  0.0427 -0.0302 -0.1257
 6235W        W43729   1.867  22.446   2.694  0.0474 -0.2842 -0.1502
 6236W        W43730   0.173  21.575  20.476 -0.1710 -0.2824 -0.3997
 6237W        W43731  29.049  31.583   5.644  0.3275  0.1376  0.2187
 6238W        W43732   5.102   1.041   3.645 -0.2393  0.2577 -0.3739
 6239W        W43733  21.253   2.680  17.911 -0.0082  0.0284 -0.0698
 6240W        W43734   2.086   1.621  16.947 -0.2156  0.0781  0.1801
 6241W        W43735  34.857  15.219  18.788  0.1472  0.0046  0.0493
 6242W        W43736  27.403  31.970  13.414  0.2131  0.2699  0.1308
 6243W        W43737  20.563  19.927  18.520  0.3253 -0.0553  0.3156
 6244W        W43738  25.452  16.170  23.053 -0.1970 -0.2658 -0.0178
 6245W        W43739   1.971  31.465  20.433 -0.1575 -0.0800  0.0697
 6246W        W43740  29.186  21.853  16.084  0.1506  0.0378 -0.0959
 6247W        W43741   6.105   9.580  19.567  0.0401 -0.1966  0.0380
 6248W        W43742   8.666  24.394  14.140 -0.1494  0.1278 -0.1999
 6249W        W43743  27.004  17.366  23.859  0.0548 -0.0414  0.0860
 6250W        W43744  13.894  22.839   0.721 -0.0855  0.0406 -0.2576
 6251W        W43745  30.220  25.197  13.319 -0.0648 -0.0648 -0.0914
 6252W        W43746  33.596  27.781   3.336  0.2507 -0.0113  0.1157
 6253W        W43747  10.189  26.771   3.515 -0.0056  0.2268 -0.0767
 6254W        W43748   5.960   9.837  21.717  0.0500  0.0044 -0.2942
 6255W        W43749  20.576  19.977  18.045 -0.1127 -0.1885  0.1948
 6256W        W43750  14.025  28.334   1.407  0.0391  0.5604  0.0968
 6257W        W43751  10.686   6.328   4.706 -0.1426 -0.1013  0.1188
 6258W        W43752  20.591  22.745  17.544  0.4421 -0.0975  0.0385
 6259W        W43753  11.299   2.561   6.105 -0.1713  0.0100  0.0541
 6260W        W43754  14.591   7.760   0.477 -0.1048  0.2198 -0.1704
 6261W        W43755  14.407   5.473   0.064  0.0529  0.0392  0.2126
 6262W        W43756  11.252  12.283  21.104 -0.1347 -0.0003 -0.0565
 6263W        W43757   8.394  22.218  12.415  0.2114 -0.1486 -0.0490
 6264W        W43758  19.013   1.178   0.476  0.2231 -0.0924  0.0128
 6265W        W43759  34.606  10.884  25.837 -0.1521 -0.2830 -0.3232
 6266W        W43760  10.050   7.299  25.038 -0.1466 -0.1448 -0.1726
 6267W        W43761  14.019   5.987   9.964 -0.0119 -0.0893  0.2287
 6268W        W43762   0.600   1.026   1.532  0.2982  0.2645 -0.0837
 6269W        W43763  21.314  22.496  23.187  0.0600 -0.0795 -0.2055
 6270W        W43764  34.023  17.123   6.556  0.2041 -0.2171 -0.2303
 6271W        W43765   3.178  26.532   9.433  0.0565 -0.0880  0.1226
 6272W        W43766  14.000  33.272  23.403 -0.2474  0.2240  0.3779
 6273W        W43767  33.493  32.616   5.233  0.2389  0.1180  0.3608
 6274W        W43768   4.899  16.473   0.867  0.0213  0.0044 -0.2330
 6275W        W43769  22.724   5.414   4.715 -0.0929  0.0613 -0.2275
 6276W        W43770  19.341  23.126   7.204  0.0789 -0.2856 -0.0412
 6277W        W43771  17.445  20.635  25.710 -0.1312  0.4174 -0.0807
 6278W        W43772  13.924  21.163  21.937 -0.3146  0.0014  0.1850
 6279W        W43773  13.556  23.220   0.534 -0.0025 -0.2153 -0.0152
 6280W        W43774  24.833   3.004  16.789 -0.1611 -0.0245 -0.0400
 6281W        W43775   4.314   2.556  19.963 -0.1652  0.0313  0.0151
 6282W        W43776  15.045  22.654  26.137  0.1371  0.3000 -0.0322
 6283W        W43777  30.993  12.389  20.168  0.0917  0.0353  0.0176
 6284W        W43778  28.575  27.413  11.286 -0.0661  0.0611  0.2200
 6285W        W43779  29.901   2.899   4.800  0.2608  0.1576 -0.3455
 6286W        W43780  23.273   3.689   4.404 -0.1230 -0.0858 -0.1919
 6287W        W43781  33.359  24.304  18.790 -0.1613  0.0384  0.2069
 6288W        W43782  17.999  19.890   6.287  0.0256  0.0521  0.1880
 6289W        W43783  14.607   8.786  25.114  0.0295 -0.0018  0.3346
 6290W        W43784  35.233   8.349  18.752  0.0942 -0.1211 -0.2384
 6291W        W43785  32.350  18.944  14.022 -0.0979  0.1390 -0.1975
 6292W        W43786  22.678   8.678   4.026 -0.2334  0.1466 -0.2559
 6293W        W43787  30.851   4.888  14.230 -0.0569 -0.1847  0.2031
 6294W        W43788  15.620  15.390   0.577 -0.0753 -0.0032 -0.3363
 6295W        W43789  30.760  18.680  18.822  0.0030 -0.1743  0.1148
 6296W        W43790  32.300  26.429  17.471 -0.3297  0.0511  0.1365
 6297W        W43791  26.879  32.704   4.982 -0.2570  0.1217  0.1805
 6298W        W43792  33.163  15.605  19.991  0.2135  0.4634  0.2920
 6299W        W43793  15.025  15.946   0.508 -0.1061 -0.3700 -0.0580
 6300W        W43794  31.350   8.839  14.943  0.0289 -0.1339  0.0202
 6301W        W43795  19.592  17.763   6.591  0.2017  0.2775 -0.0993
 6302W        W43796  10.870   8.156   9.314 -0.0370 -0.2779  0.0880
 6303W        W43797  26.062   2.931   0.445 -0.0419  0.1034  0.0124
 6304W        W43798  16.724  16.581   8.484 -0.1038 -0.0873 -0.3090
 6305W        W43799   2.910  21.204   0.915 -0.0404 -0.0855 -0.3781
 6306W        W43800   7.925   1.011  13.044  0.2622  0.2400 -0.2177
 6307W        W43801   1.167  13.421  16.931  0.1109 -0.0053  0.2786
 6308W        W43802  27.224  34.708   0.764  0.1487  0.1212 -0.2986
 6309W        W43803  30.794  10.538  24.080  0.1728  0.0238  0.1205
 6310W        W43804  28.236  15.179   6.263  0.5075  0.0531  0.0684
 6311W        W43805   4.920  28.332  24.724  0.0435 -0.0752  0.2453
 6312W        W43806  29.588  34.806  12.904  0.3076 -0.0121 -0.0589
 6313W        W43807   8.209  34.830  10.357  0.1704 -0.0101 -0.0440
 6314W        W43808   6.711  28.753  13.222  0.1831 -0.0241 -0.0936
 6315W        W43809  28.024   0.198  17.322 -0.2633 -0.0451 -0.0191
 6316W        W43810  34.534  13.500  13.367 -0.0108  0.0196 -0.2418
 6317W        W43811  10.009  34.568   3.669  0.1621  0.1089 -0.1021
 6318W        W43812  32.331   0.005  22.521  0.0177  0.1389 -0.2840
 6319W        W43813   2.359  11.891   2.518 -0.4270  0.1094 -0.0736
 6320W        W43814  29.491  10.939  24.142  0.0482 -0.2624 -0.2230
 6321W        W43815  10.898  34.332  15.440 -0.0779  0.0459 -0.2016
 6322W        W43816  18.073  28.345   4.724  0.1670  0.1736  0.1637
 6323W        W43817   6.899  17.783   6.813 -0.1995 -0.2616 -0.0278
 6324W        W43818   3.755   1.205   3.638  0.3276  0.3050 -0.1625
 6325W        W43819  33.208  20.484  24.893  0.2506  0.2962 -0.0420
 6326W        W43820  12.393  23.988   2.068 -0.0328 -0.0556 -0.0447
 6327W        W43821  21.465  10.546   6.304 -0.1260 -0.1674 -0.1769
 6328W        W43822   8.150  10.229   9.506  0.0246 -0.1895 -0.0529
 6329W        W43823  16.976  32.141   9.759  0.0981  0.0058  0.1510
 6330W        W43824  34.008   4.338   2.705  0.2077  0.1301  0.4105
 6331W        W43825  28.106  15.503  18.200 -0.3507 -0.0711  0.0948
 6332W        W43826  32.367  24.370  13.148 -0.1213 -0.3201  0.2357
 6333W        W43827  11.093  26.169  16.698 -0.1825 -0.1430  0.2566
 6334W        W43828  25.834  25.122   0.482  0.0246 -0.0782  0.0133
 6335W        W43829  20.548  29.206  18.294  0.2205 -0.0050  0.2491
 6336W        W43830  15.203  28.027  11.943  0.2629  0.0348  0.0941
 6337W        W43831  15.763  33.498   8.279  0.0143  0.1413  0.1844
 6338W        W43832  14.679   8.921   5.433 -0.2717 -0.2784 -0.2082
 6339W        W43833  19.975  27.218   6.556  0.0531  0.0147 -0.2624
 6340W        W43834   5.098  17.826   4.274 -0.2129  0.2394  0.1026
 6341W        W43835   4.645  12.329   7.368  0.1654 -0.0410 -0.0006
 6342W        W43836  32.612  28.215  14.809 -0.1986 -0.1229  0.2159
 6343W        W43837  24.145  16.963   8.707 -0.0424 -0.2268  0.0533
 6344W        W43838  10.837  21.031   0.043  0.0916 -0.0983 -0.2563
 6345W        W43839  34.846   5.004  18.559  0.0402 -0.1477 -0.1896
 6346W        W43840  27.715  13.070  13.808 -0.0829 -0.3139 -0.1893
 6347W        W43841  30.315  21.215  16.383 -0.0011 -0.2404 -0.2705
 6348W        W43842  19.917  34.036  21.164 -0.6230 -0.1430 -0.2001
 6349W        W43843  27.113  26.642  11.035  0.1499 -0.1395  0.5989
 6350W        W43844  28.663  20.404  10.196 -0.0589  0.2019  0.0251
 6351W        W43845   8.132  34.422  26.037 -0.0800  0.3002  0.1847
 6352W        W43846   2.887  16.607  21.473  0.0805 -0.4380 -0.4681
 6353W        W43847   0.747   5.041   3.674 -0.0636 -0.2761 -0.0878
 6354W        W43848  24.642   4.839  17.505  0.2073  0.0994  0.0751
 6355W        W43849   0.592   6.281  18.988 -0.0961  0.0489  0.3108
 6356W        W43850   5.906  28.975   2.992  0.0278  0.4991  0.0016
 6357W        W43851   6.233  16.306  17.573 -0.2408  0.3117 -0.0146
 6358W        W43852  26.522  29.854  18.650 -0.0540 -0.0865  0.0426
 6359W        W43853  34.308   5.151   2.948 -0.2920  0.1878  0.1071
 6360W        W43854   5.182  18.665   4.840 -0.2382 -0.2432 -0.0881
 6361W        W43855  25.752   6.210   2.060 -0.1134  0.0842  0.3689
 6362W        W43856   6.880  29.890   5.441 -0.1737 -0.0143 -0.0853
 6363W        W43857  11.161  13.402   6.448 -0.1505  0.1666  0.0483
 6364W        W43858  23.864  25.991  22.261 -0.2123  0.2418 -0.1074
 6365W        W43859  28.024  11.395  10.670 -0.1713  0.0222  0.2377
 6366W        W43860  17.727  10.780  12.572 -0.0764 -0.2034 -0.1471
 6367W        W43861  12.101  24.312  14.084 -0.2967  0.0795  0.0111
 6368W        W43862  18.800  32.994   2.402  0.0839 -0.1394  0.1429
 6369W        W43863  28.441   3.553  10.463 -0.1509  0.3000  0.1335
 6370W        W43864  34.874   8.384  13.284 -0.0200 -0.1898  0.0911
 6371W        W43865  10.983  12.251  22.019  0.2546  0.5069 -0.0914
 6372W        W43866   4.904   5.122   6.075 -0.2997 -0.0016 -0.0915
 6373W        W43867  12.564   7.202   2.726 -0.1062 -0.1336 -0.2905
 6374W        W43868  25.491  14.163  17.938 -0.2244 -0.1206 -0.0179
 6375W        W43869  12.719  23.851  14.488 -0.2051 -0.2272 -0.0290
 6376W        W43870  35.336   0.975  17.000 -0.1564 -0.1363  0.0155
 6377W        W43871  32.014   3.225  23.134 -0.1312  0.1786 -0.2462
 6378W        W43872  14.378   0.404   7.069 -0.5439 -0.1696  0.1192
 6379W        W43873   3.342  15.360   4.405  0.3717  0.1180 -0.0624
 6380W        W43874   8.522  12.980  23.663 -0.0870  0.0762 -0.0289
 6381W        W43875  13.671  13.385  24.853 -0.0735 -0.2028  0.0250
 6382W        W43876  34.214   5.779  15.185  0.0834  0.1185  0.3574
 6383W        W43877  22.758  17.986  26.250  0.1171  0.0404 -0.2969
 6384W        W43878  17.535   2.587   6.166  0.2501 -0.2427 -0.1548
 6385W        W43879  31.766  30.086  23.564  0.2172 -0.1098 -0.0103
 6386W        W43880  17.341  15.805  25.130  0.1446 -0.1081 -0.3225
 6387W        W43881  10.556   8.621   4.267 -0.0449  0.1452  0.1144
 6388W        W43882   8.786   5.352  23.688  0.0285  0.2336 -0.0330
 6389W        W43883  22.702  21.267  23.508  0.3831  0.0785  0.3993
 6390W        W43884  26.501  16.221  12.629 -0.1954 -0.0794 -0.0268
 6391W        W43885  29.224  23.076  14.362 -0.1980 -0.1290  0.1290
 6392W        W43886  16.936  14.190   0.297  0.0720 -0.0276  0.2972
 6393W        W43887  23.492  30.576  22.311  0.0129 -0.1867  0.2590
 6394W        W43888   0.149  14.204  12.513 -0.4713 -0.1325 -0.0723
 6395W        W43889   7.899  20.697  21.753  0.3735  0.1752 -0.0677
 6396W        W43890  18.193  17.692  22.546  0.0094 -0.2223 -0.2690
 6397W        W43891   9.646  23.513   7.209  0.2285 -0.1861 -0.0857
 6398W        W43892   5.319   2.049   6.697  0.0825  0.1149 -0.1892
 6399W        W43893  25.580  26.454  19.594 -0.3927 -0.0413 -0.1924
 6400W        W43894  18.813   2.191   4.039  0.0860 -0.0272 -0.1847
 6401W        W43895   7.881  35.299   6.359  0.1864  0.1567 -0.1100
 6402W        W43896  25.905  21.017  20.352  0.0483 -0.2015 -0.1337
 6403W        W43897   0.480  30.667  21.963  0.2824  0.4211  0.1703
 6404W        W43898   3.756  19.266   4.668 -0.2549  0.0492  0.2227
 6405W        W43899  31.218   2.291  13.225  0.0801  0.0810  0.3691
 6406W        W43900  25.026  26.339  17.207  0.1432 -0.0541 -0.1507
 6407W        W43901  25.208   6.387  15.601 -0.1402 -0.0578  0.0942
 6408W        W43902   6.657  27.915   1.915  0.2638 -0.1374 -0.0840
 6409W        W43903  32.547  11.988  25.231  0.0346 -0.0064  0.1928
 6410W        W43904  20.330  34.940   1.306  0.0986  0.1590  0.0449
 6411W        W43905  30.895  29.527  19.541 -0.0918 -0.0393 -0.0600
 6412W        W43906   8.883   0.350   1.461  0.3350 -0.0578 -0.0010
 6413W        W43907  29.114   1.265   4.873 -0.3205  0.1413  0.3371
 6414W        W43908   4.386  10.247  23.321  0.1479  0.0071  0.0085
 6415W        W43909  27.332  12.174  15.487  0.0814  0.1323 -0.0770
 6416W        W43910  11.489  27.667  12.724  0.0302  0.2765  0.1030
 6417W        W43911  20.195  18.181  21.272  0.1560 -0.1254 -0.0272
 6418W        W43912  15.878  16.127   9.882  0.0098  0.3924 -0.0927
 6419W        W43913  10.869  17.784  12.528 -0.1622 -0.0783 -0.4209
 6420W        W43914   2.942  33.892   5.024 -0.1563 -0.0560  0.2930
 6421W        W43915  20.092  35.163   8.364  0.1416 -0.1535 -0.1587
 6422W        W43916  28.181  31.465  19.693  0.0591  0.1875 -0.0801
 6423W        W43917   1.310  14.282   2.988  0.0673  0.1372 -0.0961
 6424W        W43918  17.741  16.764  25.086 -0.0627  0.0954 -0.1436
 6425W        W43919  31.785  10.216  23.824  0.1978 -0.3774 -0.0013
 6426W        W43920  12.025   9.681   2.435 -0.0312 -0.0293  0.1295
 6427W        W43921   3.855   5.105  18.329 -0.0943 -0.0289  0.1809
 6428W        W43922  28.847   7.614  18.523  0.0665 -0.0409  0.1108
 6429W        W43923   7.153  10.995   6.339 -0.1161  0.0133 -0.2349
 6430W        W43924   8.168  25.707   4.992  0.3337 -0.1499  0.1519
 6431W        W43925  26.611  14.531  11.942 -0.2180 -0.2496  0.0071
 6432W        W43926  22.537  30.149  20.351  0.3250 -0.1188 -0.0312
 6433W        W43927   7.277  21.360  24.831  0.3071 -0.0796  0.1319
 6434W        W43928  20.534  14.112   5.658 -0.1624 -0.2709  0.0789
 6435W        W43929  28.111  16.924  17.190 -0.1884  0.0480 -0.0215
 6436W        W43930  24.159   3.107  13.767  0.0874  0.1017  0.0438
 6437W        W43931  34.294  34.565   7.217  0.0635  0.3015 -0.2369
 6438W        W43932  17.990  13.400  25.313 -0.0559 -0.0956  0.0621
 6439W        W43933  19.985   4.342   4.695 -0.2267 -0.2516 -0.2421
 6440W        W43934  34.166  29.889   7.539 -0.0114  0.0757  0.1619
 6441W        W43935  11.608  17.984  22.079  0.0329 -0.0515  0.0141
 6442W        W43936  16.205  15.964  22.882  0.0787  0.0979 -0.2086
 6443W        W43937  17.793  29.711  25.034 -0.2420  0.0877 -0.0064
 6444W        W43938  14.812  31.165   2.846 -0.1235 -0.1011  0.0468
 6445W        W43939   1.496  27.606   1.955 -0.2203 -0.2042  0.0176
 6446W        W43940  32.923  12.297  15.793  0.1773 -0.1892 -0.2493
 6447W        W43941  10.846  31.548  15.921 -0.0254  0.0816 -0.1460
 6448W        W43942   6.350  10.640   6.049  0.1802 -0.2600 -0.1987
 6449W        W43943  30.117  24.916  21.478  0.2746 -0.2371  0.3754
 6450W        W43944  32.414  19.142  23.999  0.0243  0.1915  0.1365
 6451W        W43945   9.134   3.041   3.586  0.1558  0.0726 -0.0761
 6452W        W43946  16.237  13.253  18.778  0.1295 -0.1440  0.1564
 6453W        W43947  26.734   8.994  11.341  0.0523  0.3744 -0.1479
 6454W        W43948   2.207  21.541   0.814  0.0939  0.2471  0.0876
 6455W        W43949   4.958   5.358  19.465  0.0866  0.3932 -0.0938
 6456W        W43950  25.476   4.298  17.178  0.2462  0.2768  0.0229
 6457W        W43951  20.648   6.114  20.526 -0.3678  0.0485  0.2700
 6458W        W43952   5.210  17.710   1.070  0.1833 -0.2886 -0.0927
 6459W        W43953  12.366  13.004   9.935  0.0481  0.2703 -0.0560
 6460W        W43954   5.716  23.652  19.697  0.3260  0.2098  0.2265
 6461W        W43955   9.285  28.125  14.099  0.0463  0.0554  0.1394
 6462W        W43956  32.106  32.159   3.862  0.0160 -0.0929  0.0343
 6463W        W43957  16.556   3.938   0.290  0.3692  0.1773  0.1357
 6464W        W43958  34.420   2.949   2.001  0.1140 -0.0084  0.2077
 6465W        W43959   2.784  23.787  26.180 -0.0546 -0.0055 -0.4668
 6466W        W43960   3.671  35.197   9.051  0.1457 -0.0283  0.1473
 6467W        W43961  24.930  33.697  15.587  0.0054 -0.3422 -0.2195
 6468W        W43962  19.928  20.277   6.535  0.0560 -0.4201  0.1183
 6469W        W43963  23.868  28.191  10.098  0.2034  0.0457 -0.2769
 6470W        W43964  29.971  28.736   3.737 -0.5307  0.1648  0.1295
 6471W        W43965   3.902  13.169  19.610  0.2125  0.0943  0.2736
 6472W        W43966  28.784  10.903  18.685  0.1968 -0.0520  0.1274
 6473W        W43967  22.565  12.265  14.735 -0.0435  0.3258 -0.0528
 6474W        W43968   2.984   9.989   3.543 -0.0573  0.0265  0.1059
 6475W        W43969  21.129  21.324   4.983 -0.0351 -0.1139  0.1134
 6476W        W43970   1.616  19.705  24.856  0.1610  0.0829  0.0611
 6477W        W43971  10.500  16.092  26.141 -0.0683  0.1046  0.0992
 6478W        W43972   2.508  28.359   7.962  0.0513  0.2155  0.0667
 6479W        W43973  34.966  14.276  24.989  0.1003  0.1397  0.1412
 6480W        W43974  22.731  15.418  23.337 -0.1347  0.0224 -0.3064
 6481W        W43975  11.895  20.574   8.443 -0.3429 -0.0037  0.2558
 6482W        W43976   5.279   4.545   1.657  0.1947  0.1509  0.2503
 6483W        W43977  15.566  20.786   9.133  0.0996  0.2378 -0.3467
 6484W        W43978   7.032   5.760   7.813  0.4151  0.2395  0.1909
 6485W        W43979  14.434  25.601   5.102 -0.1368 -0.0006 -0.0216
 6486W        W43980  15.059  28.751  15.178  0.1182 -0.1139 -0.2736
 6487W        W43981  31.798  14.501   7.953 -0.0438  0.0141  0.0658
 6488W        W43982   1.229  23.008  23.199  0.2623 -0.3432  0.0765
 6489W        W43983  23.942  27.298   3.718 -0.1008  0.3541 -0.2032
 6490W        W43984  30.479  20.423  20.845  0.1774 -0.0086 -0.1254
 6491W        W43985   0.285  13.998  21.519 -0.3334  0.0480  0.0909
 6492W        W43986  17.884  31.486   3.284  0.3430  0.1296 -0.0792
 6493W        W43987  32.321  30.129  12.515  0.0354  0.1381 -0.0732
 6494W        W43988  13.903  25.922  15.656 -0.2128  0.5060  0.1015
 6495W        W43989   6.524  30.439  24.847 -0.1649 -0.1519  0.0928
 6496W        W43990  29.533  29.742  13.907  0.1757  0.1697 -0.3481
 6497W        W43991  13.152  30.611  23.073  0.1311  0.0852  0.0630
 6498W        W43992  31.255   3.541  13.788  0.1625 -0.0999  0.0063
 6499W        W43993  33.341   9.946  21.921 -0.0076  0.2507 -0.2724
 6500W        W43994  14.557  29.385  20.897 -0.1082  0.0224 -0.0186
 6501W        W43995  12.094  20.080  15.427 -0.1544 -0.0598 -0.1636
 6502W        W43996  30.123  19.034  15.700  0.0537 -0.1885  0.4141
 6503W        W43997   1.572  30.930   7.731 -0.1373 -0.0307 -0.0516
 6504W        W43998  21.760   5.852  16.718 -0.0158 -0.0450 -0.0105
 6505W        W43999   7.127  16.589   7.079  0.1435  0.0555 -0.0727
 6506W        W44000  30.383  16.304  24.695 -0.1028 -0.0836  0.1126
 6507W        W44001   6.327  28.485  12.299 -0.2472 -0.3765 -0.1404
 6508W        W44002  23.269   5.817  24.569  0.2938 -0.0211  0.0512
 6509W        W44003  21.784  28.718   7.198 -0.1285 -0.0823 -0.1598
 6510W        W44004  27.323  29.253  23.463  0.2409 -0.1853 -0.0045
 6511W        W44005   1.997   9.402   6.154  0.2147  0.1353 -0.1251
 6512W        W44006   8.462  26.674   9.231 -0.0141 -0.2571  0.0030
 6513W        W44007  15.447  11.018  25.710 -0.1987  0.0659 -0.3309
 6514W        W44008  18.977   5.941  18.190 -0.1156  0.0612  0.2164
 6515W        W44009  32.523  28.339   2.799  0.0513 -0.2929  0.0871
 6516W        W44010  27.036  14.443  21.427  0.0509  0.4018  0.1369
 6517W        W44011  23.799   7.595  16.868 -0.0048  0.2049  0.1191
 6518W        W44012  16.871  22.541  14.742 -0.0294  0.3068  0.2492
 6519W        W44013  23.830  34.153  11.919 -0.0250 -0.1934 -0.2360
 6520W        W44014  20.682  10.264   2.012  0.5561 -0.1145 -0.1435
 6521W        W44015   3.663  35.170   8.059 -0.3828 -0.0368 -0.3935
 6522W        W44016  12.790  35.055  10.901 -0.2681 -0.1269 -0.3336
 6523W        W44017   6.070  13.345  20.498 -0.2687  0.1453  0.0945
 6524W        W44018  19.693   7.647  25.710  0.1720  0.1496 -0.5149
 6525W        W44019  16.161  30.137   9.583  0.0584  0.0013 -0.2877
 6526W        W44020  26.465  33.277  18.613 -0.2382  0.0766  0.2902
 6527W        W44021  33.644   0.950   3.311 -0.0617 -0.0769  0.0240
 6528W        W44022  20.431  24.941   9.509 -0.2108  0.1270 -0.0054
 6529W        W44023  11.629   6.368  15.176  0.1735 -0.2734  0.1927
 6530W        W44024  34.823  17.917  15.730  0.1844 -0.0089  0.2768
 6531W        W44025  16.633  20.221   3.697  0.3666 -0.0103  0.0725
 6532W        W44026   4.730  24.404   6.049 -0.0135 -0.1015  0.0242
 6533W        W44027  31.854  11.372  13.305 -0.0261 -0.2985 -0.2462
 6534W        W44028  32.629   9.379  11.697 -0.1227  0.3161  0.0203
 6535W        W44029  35.257   4.219  15.976  0.2960  0.1269  0.1494
 6536W        W44030  11.280   6.438  25.802 -0.0677 -0.1264  0.0810
 6537W        W44031   2.665   2.292  18.429  0.0877  0.1730  0.0609
 6538W        W44032  16.291  31.780   5.542  0.1415  0.1432 -0.0269
 6539W        W44033   1.411  30.473  26.098 -0.2926  0.0090 -0.4422
 6540W        W44034   5.352  25.509   3.952 -0.2297 -0.0349 -0.1032
 6541W        W44035  28.096   5.860  11.801  0.0254 -0.1269 -0.2145
 6542W        W44036  32.133  29.538  17.698  0.1381 -0.1918 -0.0979
 6543W        W44037   7.963   7.385   1.142  0.0698 -0.1049  0.0726
 6544W        W44038  15.288   8.503   0.046  0.1044  0.0987 -0.2690
 6545W        W44039  28.427  15.549  17.380  0.0112 -0.2290  0.0344
 6546W        W44040  13.959  11.844  19.987 -0.3499 -0.5937 -0.1237
 6547W        W44041  34.976  27.433   1.509  0.1997  0.2024  0.1945
 6548W        W44042  17.755   1.453  19.845 -0.0566 -0.1535 -0.0172
 6549W        W44043  19.731  32.635   5.513  0.0487 -0.2890  0.0729
 6550W        W44044  15.022  17.842   1.553 -0.0822  0.0574 -0.0717
 6551W        W44045  29.200  24.472  18.328  0.1982 -0.0135  0.2889
 6552W        W44046  32.485  17.905  19.144 -0.1133  0.0457 -0.0212
 6553W        W44047  10.026  28.026  16.273  0.0391  0.1893 -0.2001
 6554W        W44048   8.223  33.241  21.048 -0.1079 -0.1681 -0.0397
 6555W        W44049   2.637  13.669  21.198  0.1368  0.1972  0.0965
 6556W        W44050  26.611  29.407  24.341 -0.0285 -0.2470 -0.4324
 6557W        W44051  11.548  15.972  20.917 -0.0606  0.0572  0.1691
 6558W        W44052  23.843   0.591  25.205  0.0250  0.1932  0.1504
 6559W        W44053  25.640  30.445   2.332 -0.0639  0.0582  0.0852
 6560W        W44054  21.827  10.599  24.574  0.0811 -0.1362  0.2059
 6561W        W44055  10.142   5.672  25.912 -0.1385 -0.0735 -0.0700
 6562W        W44056  28.473  30.406   4.992  0.2018 -0.1016 -0.0417
 6563W        W44057   9.610  28.152  14.797 -0.1680 -0.2304  0.1904
 6564W        W44058  24.709  19.686  21.379  0.2944 -0.1216  0.1569
 6565W        W44059   2.168   1.097  21.568 -0.5941 -0.2100 -0.0409
 6566W        W44060  26.791  24.765  17.765 -0.0535  0.0174  0.3325
 6567W        W44061  17.857  13.915   7.728  0.3106 -0.0144 -0.0975
 6568W        W44062   7.323  20.390   6.179 -0.2013 -0.2113 -0.1846
 6569W        W44063  32.983   8.612  16.463 -0.0078  0.0048 -0.0500
 6570W        W44064  27.485  31.033  18.159 -0.5247  0.1317 -0.2231
 6571W        W44065  23.265  12.845  16.922 -0.0088  0.2606 -0.0401
 6572W        W44066   9.739  21.353   0.790 -0.2019  0.0008 -0.0175
 6573W        W44067  24.339  34.178  24.709 -0.2185 -0.3284 -0.0266
 6574W        W44068  28.075  29.524  17.454 -0.0550  0.0003 -0.2150
 6575W        W44069  14.403  18.537   4.256 -0.0081  0.0639  0.4174
 6576W        W44070  25.280   9.369  15.356 -0.3152  0.1129 -0.0332
 6577W        W44071   4.791  35.004  19.369 -0.0883 -0.1701  0.0378
 6578W        W44072   2.512  16.349  24.863 -0.2389  0.0642  0.3225
 6579W        W44073   2.752  12.092  15.871 -0.0822  0.2137 -0.1137
 6580W        W44074  23.724  21.787  22.848 -0.0765  0.0358  0.1474
 6581W        W44075  26.275  24.535  12.667 -0.0892  0.1350 -0.1514
 6582W        W44076  23.589  31.251  15.685 -0.1799  0.1660 -0.5275
 6583W        W44077  18.275  23.009  19.873 -0.1374  0.1239 -0.0146
 6584W        W44078  14.381  18.536  10.973 -0.0494 -0.1060 -0.1099
 6585W        W44079  17.813   0.540  22.085  0.2000  0.0579 -0.1361
 6586W        W44080   4.030   3.017  21.803  0.2585  0.2493  0.0659
 6587W        W44081  21.659  28.666  22.050  0.0190 -0.1118 -0.0600
 6588W        W44082  13.657  20.331  14.454 -0.3317 -0.2400 -0.1416
 6589W        W44083   8.714  16.366  23.406  0.1923 -0.2607  0.0099
 6590W        W44084  15.958  32.519   7.932 -0.0774  0.2529 -0.3368
 6591W        W44085  13.733  24.850  25.634  0.0563  0.0764 -0.1972
 6592W        W44086   9.487  35.038   7.253 -0.0849  0.0193 -0.4421
 6593W        W44087   6.320   4.279  11.362 -0.1997  0.0381  0.1347
 6594W        W44088  19.557  33.019   4.918  0.3680  0.1363  0.3142
 6595W        W44089   7.773  16.894   4.620  0.0053 -0.3101  0.0512
 6596W        W44090   6.229  18.234   4.931  0.0182  0.0407  0.0720
 6597W        W44091  12.018  34.545   6.883 -0.3014  0.1757  0.2649
 6598W        W44092   7.891  33.922   5.225  0.0759  0.2880  0.0370
 6599W        W44093  33.714   0.752  15.537 -0.1197  0.3089  0.0221
 6600W        W44094  18.936  35.209  15.111 -0.0263  0.1183  0.0785
 6601W        W44095   4.622  17.841  16.882  0.0337  0.2578  0.0943
 6602W        W44096  21.572   4.827   0.513  0.0480  0.1873 -0.1117
 6603W        W44097  28.795  22.935  13.077  0.0022 -0.0436 -0.1452
 6604W        W44098  19.989  15.982  18.664 -0.3420  0.0014 -0.0223
 6605W        W44099   6.428   6.770   5.011  0.2622 -0.3318  0.1109
 6606W        W44100   9.849  18.041   1.562  0.0454  0.0275 -0.1575
 6607W        W44101  17.760  10.050   5.899 -0.1098 -0.0812 -0.0508
 6608W        W44102  29.603   8.633  23.742  0.0648  0.0053  0.1010
 6609W        W44103  19.241   5.567  10.490 -0.2095  0.2360 -0.2108
 6610W        W44104   0.742   6.940  23.182  0.0819 -0.2274 -0.2485
 6611W        W44105   5.721  19.288  19.316  0.2165 -0.0657  0.0579
 6612W        W44106  14.810  18.042   8.380  0.2896  0.3677  0.2592
 6613W        W44107   8.284  27.268  12.831  0.1051 -0.0845 -0.0305
 6614W        W44108   8.902  29.915   5.459  0.0361  0.1097  0.2731
 6615W        W44109  34.457  34.557  16.550 -0.3288 -0.1225  0.1372
 6616W        W44110  16.624  26.661   2.071  0.0049 -0.1118  0.3063
 6617W        W44111  26.382  32.764  15.643 -0.2023 -0.0243 -0.0362
 6618W        W44112  22.150   0.441  22.763 -0.0143 -0.3025  0.3372
 6619W        W44113   5.900   6.122  26.187 -0.0720  0.0129  0.0075
 6620W        W44114  13.505   3.612  11.552 -0.3863  0.0469 -0.0495
 6621W        W44115  20.830   0.541   1.920 -0.1118  0.0450  0.1528
 6622W        W44116   3.906  28.209  21.367  0.3124  0.1293 -0.0624
 6623W        W44117   8.782  15.528  12.637  0.2231  0.0375 -0.0517
 6624W        W44118  24.509  17.813  23.860  0.0247 -0.0521  0.1863
 6625W        W44119   5.287  10.624   7.912 -0.0686 -0.0561 -0.1141
 6626W        W44120  20.260  31.729  16.914 -0.0929 -0.0831 -0.1446
 6627W        W44121  27.539  13.344  19.457  0.1118  0.0077  0.0096
 6628W        W44122   8.883  17.389  25.655  0.0408 -0.0285  0.3128
 6629W        W44123  18.130   5.393   6.399 -0.0167 -0.1423 -0.2411
 6630W        W44124   5.965   6.281   0.743  0.0452 -0.0936 -0.0455
 6631W        W44125  12.907   8.318   3.208 -0.1470 -0.0244 -0.2597
 6632W        W44126   7.600   6.176   0.113  0.1512 -0.0299  0.3650
 6633W        W44127   9.412   9.664   0.226 -0.1335 -0.1836 -0.3795
 6634W        W44128  13.240   7.387  23.149  0.0705 -0.1737 -0.0079
 6635W        W44129  26.826  28.294   2.050  0.1412 -0.0193 -0.1682
 6636W        W44130  10.379  11.396  12.175  0.1245 -0.0054 -0.1602
 6637W        W44131  13.328   9.890  13.117  0.1042 -0.1804  0.0453
 6638W        W44132  16.484   3.062   5.091  0.1658 -0.3837  0.1766
 6639W        W44133  20.836  19.363   6.272 -0.3673  0.0296  0.1159
 6640W        W44134   8.814   2.119   0.325  0.1404 -0.1548  0.1333
 6641W        W44135  22.673   8.147  25.632 -0.0013  0.0322 -0.1669
 6642W        W44136  24.414   5.410  13.099  0.0399  0.0146 -0.0462
 6643W        W44137   4.012  25.432   8.615  0.2318 -0.0244 -0.0286
 6644W        W44138   5.894  35.333   9.865  0.0641 -0.2951  0.2858
 6645W        W44139   3.958   9.265  15.370 -0.1734 -0.3122 -0.3412
 6646W        W44140  32.454  13.807  21.541 -0.2911  0.0774  0.0027
 6647W        W44141  14.030  22.319  15.728  0.1538 -0.0066  0.0785
 6648W        W44142  18.492  11.932   3.320 -0.0912 -0.0906 -0.1217
 6649W        W44143  16.081   6.534   4.516 -0.0959  0.0429 -0.2702
 6650W        W44144  33.638  26.926  14.579 -0.0121 -0.0522  0.0709
 6651W        W44145  14.685  25.207  14.033  0.0039  0.1188 -0.1725
 6652W        W44146   8.455  13.769   4.850 -0.2138  0.1551 -0.2097
 6653W        W44147  28.605  10.208   1.070  0.3342  0.0225 -0.3353
 6654W        W44148  18.269   7.615  25.108  0.1236  0.0589 -0.0215
 6655W        W44149  12.528  23.243  15.479 -0.0025  0.1698 -0.0566
 6656W        W44150  23.412   5.966  23.707  0.1198 -0.1082 -0.6144
 6657W        W44151  24.083   3.179   2.163  0.0768 -0.1635 -0.0180
 6658W        W44152  21.631  30.705  26.119  0.0599 -0.4048  0.0571
 6659W        W44153  11.213   4.414  25.762  0.1662 -0.2365 -0.0232
 6660W        W44154  34.588  19.795   6.928 -0.1589  0.0658 -0.0605
 6661W        W44155   9.382  16.976   5.276 -0.1273 -0.1613  0.1357
 6662W        W44156  34.959  20.189  17.750 -0.4588  0.0637  0.1762
 6663W        W44157  12.345  22.307  26.013 -0.0388 -0.0377  0.2254
 6664W        W44158   1.105  15.042  21.193  0.0211  0.1639  0.1035
 6665W        W44159   1.849   9.005  19.834  0.1142  0.1893  0.1652
 6666W        W44160   7.028   8.864  23.747 -0.1334  0.3217 -0.0828
 6667W        W44161  24.813  18.338  12.738 -0.2372 -0.1492 -0.0073
 6668W        W44162  14.642   8.005  23.910 -0.3696 -0.0177 -0.1512
 6669W        W44163  18.279   8.183  12.702 -0.4606  0.0296 -0.0609
 6670W        W44164  10.927  19.849   8.829  0.2443  0.2024  0.0195
 6671W        W44165  27.500  14.599  25.890  0.1155  0.1739  0.0132
 6672W        W44166   8.802   7.644  20.925 -0.1524 -0.2823  0.1418
 6673W        W44167   7.319  26.886   1.092  0.0148  0.0397 -0.1604
 6674W        W44168   0.616  26.224  20.670  0.2445  0.0827  0.3941
 6675W        W44169  28.018  33.700  20.495  0.0478  0.1508 -0.2177
 6676W        W44170  12.070  23.478   1.344 -0.0756  0.0360 -0.0282
 6677W        W44171  34.313  12.594  11.569 -0.1377 -0.1855  0.0034
 6678W        W44172  10.578   6.829  14.997 -0.0963  0.0381  0.0950
 6679W        W44173  12.943  31.275  23.573  0.1272 -0.1701  0.1514
 6680W        W44174   9.159   8.152   4.539  0.1992  0.2009  0.0395
 6681W        W44175   7.602   0.400   0.385  0.0951 -0.0536  0.3790
 6682W        W44176   1.184  22.178  20.026  0.2533 -0.2053  0.1389
 6683W        W44177  27.034  12.124  13.844  0.1782  0.4321  0.1692
 6684W        W44178  31.822  33.842   2.395  0.0891  0.0166 -0.3594
 6685W        W44179  12.969  29.082   0.443 -0.1866  0.1595  0.0241
 6686W        W44180  32.061  11.209  24.832  0.2538 -0.1947 -0.3824
 6687W        W44181   9.375  17.910   1.603  0.1815  0.1126  0.1455
 6688W        W44182   3.365   8.631  23.046  0.0048 -0.0786  0.1451
 6689W        W44183  13.593  31.390   9.773  0.1809  0.0426  0.1466
 6690W        W44184  23.825  13.748  24.057 -0.0651  0.0345  0.1622
 6691W        W44185  12.830  34.374   1.558 -0.0148 -0.1110 -0.3350
 6692W        W44186  30.728  30.769  13.267  0.1135  0.1336 -0.4388
 6693W        W44187  21.110   9.669  17.004 -0.4727  0.2948  0.1470
 6694W        W44188  20.583   6.295  15.948 -0.1026  0.1505  0.1223
 6695W        W44189   5.747  29.510   5.914 -0.1491 -0.2995 -0.0510
 6696W        W44190   8.097  33.841  22.970  0.1558  0.0233 -0.0229
 6697W        W44191  13.420  11.770  25.392  0.0664  0.1300 -0.1086
 6698W        W44192   4.086   4.772   4.497  0.1879  0.0693  0.2382
 6699W        W44193  15.024  19.705  25.846 -0.0484 -0.2096 -0.1288
 6700W        W44194  33.781  18.178  18.423 -0.1888 -0.0677 -0.2043
 6701W        W44195   3.036  20.700   3.688 -0.1323 -0.1084 -0.2090
 6702W        W44196  12.404  15.013  21.672  0.1138  0.1380  0.1093
 6703W        W44197  24.021  20.984  24.903  0.1597  0.0928 -0.2247
 6704W        W44198  21.666  15.940   1.480 -0.0277  0.2811  0.1955
 6705W        W44199  11.105  32.383   7.135  0.0196 -0.0431 -0.1203
 6706W        W44200  35.345   1.498   0.083 -0.1284  0.0749 -0.0937
 6707W        W44201  10.411  10.738  23.443  0.0327  0.2974 -0.1799
 6708W        W44202  31.056  15.974  23.178 -0.1742  0.0697  0.4831
 6709W        W44203  22.156  27.701  23.702  0.2320  0.1366  0.1787
 6710W        W44204   2.730   1.146   5.515 -0.0083  0.2523  0.4670
 6711W        W44205   3.230   3.782  17.768  0.0461  0.1028 -0.2874
 6712W        W44206  30.520  35.302  15.205 -0.0841 -0.2134  0.1370
 6713W        W44207   7.089   6.411   4.386  0.2775 -0.3385  0.0394
 6714W        W44208  33.662  27.134  24.905 -0.1148  0.4547  0.1937
 6715W        W44209  20.645   6.839   0.512  0.2485 -0.4120 -0.1198
 6716W        W44210   2.305   5.878  22.879  0.3958  0.0869  0.2371
 6717W        W44211   5.600  10.166   5.888 -0.1544  0.0614  0.2254
 6718W        W44212  14.715  17.661  25.213  0.1180  0.1407 -0.0627
 6719W        W44213   0.578  19.995  12.902  0.2652  0.0287  0.0143
 6720W        W44214   7.345  33.710  24.827 -0.1412  0.2687 -0.2734
 6721W        W44215  19.410  13.635  23.911 -0.1293 -0.1335 -0.1334
 6722W        W44216   1.441  14.091   2.525 -0.1519 -0.1744 -0.2418
 6723W        W44217   6.231  15.837   3.592 -0.0965  0.0351  0.2823
 6724W        W44218   6.851  21.676   9.358 -0.0349 -0.5060 -0.1368
 6725W        W44219  31.327  16.206  25.294  0.2181  0.1832  0.5574
 6726W        W44220  27.633   7.747  18.911  0.1516 -0.0893  0.0198
 6727W        W44221  27.290  12.985  11.044  0.0317  0.2425  0.0610
 6728W        W44222   7.262  18.823  19.031 -0.0751 -0.1729  0.0447
 6729W        W44223   5.497   8.570  20.131 -0.0807  0.1255 -0.2232
 6730W        W44224  16.576  25.846  11.318 -0.2932  0.0468  0.2357
 6731W        W44225  17.934  20.211  21.756 -0.0814  0.0085  0.0880
 6732W        W44226  29.677  23.098   5.445 -0.1474  0.0522 -0.0235
 6733W        W44227  27.447  18.726  25.524 -0.4284 -0.1846 -0.2586
 6734W        W44228  26.280  15.268  11.380  0.1238  0.3182  0.4261
 6735W        W44229  30.425   3.813  25.029  0.0178 -0.0016 -0.1243
 6736W        W44230  17.926  18.688  25.598  0.2371  0.0668  0.1630
 6737W        W44231  11.697  26.455   9.528 -0.4935  0.0244 -0.3616
 6738W        W44232   6.194   0.981   5.890  0.0631 -0.1900  0.0027
 6739W        W44233   3.060  30.069  26.059 -0.2136  0.0348  0.2649
 6740W        W44234  13.535  16.801  24.102 -0.2749  0.3401  0.1125
 6741W        W44235  20.265  27.051  22.817 -0.1899  0.0900 -0.2171
 6742W        W44236   7.045  24.938   8.780  0.0613  0.0750  0.2524
 6743W        W44237  25.922   4.641   2.004  0.0822 -0.4879  0.2468
 6744W        W44238  25.468   7.718   3.052  0.4424 -0.0354 -0.1108
 6745W        W44239   2.816   0.307  21.361  0.0363  0.0156  0.0923
 6746W        W44240  21.134  12.812   2.481 -0.3497  0.0053  0.0082
 6747W        W44241  12.709   4.839  20.894  0.0866 -0.1118 -0.0957
 6748W        W44242   1.278  29.756   8.410  0.0507  0.0718  0.3226
 6749W        W44243  18.628   5.248  17.853  0.1275 -0.2448 -0.0828
 6750W        W44244  23.654  12.397   1.243 -0.2804  0.1095 -0.0335
 6751W        W44245   9.363   0.658  10.211 -0.0141  0.0459  0.1244
 6752W        W44246  10.428  18.506  20.810 -0.1030 -0.0332  0.1401
 6753W        W44247   2.098  32.552   4.177  0.1977 -0.0198  0.0951
 6754W        W44248   8.668  26.899   5.631 -0.0938 -0.0259 -0.0530
 6755W        W44249  12.272  10.048   8.207  0.0748  0.0074 -0.1981
 6756W        W44250   1.356   7.761   2.734  0.0509 -0.1951  0.2431
 6757W        W44251   4.330   5.665   3.206  0.0069 -0.2333  0.1219
 6758W        W44252   0.833  30.767  20.982  0.0649  0.3468  0.0468
 6759W        W44253  16.392  33.218  19.229 -0.1716 -0.2822  0.0983
 6760W        W44254   9.146  10.777  10.053  0.2221  0.2268 -0.3719
 6761W        W44255  14.094  30.333  25.427 -0.0230  0.2295  0.2437
 6762W        W44256  14.147  25.607   4.192  0.0080 -0.1453  0.1315
 6763W        W44257  10.488   1.925   4.707  0.2008 -0.2130  0.0871
 6764W        W44258  27.504  31.113  24.136  0.3019  0.1052 -0.1155
 6765W        W44259   8.137   3.994  24.001 -0.0875  0.0712 -0.0525
 6766W        W44260  14.441   1.142  23.511 -0.1108  0.6194 -0.0195
 6767W        W44261  33.069  14.037  12.081 -0.1303 -0.0872  0.2940
 6768W        W44262  26.929  15.085   8.737  0.0676  0.1481 -0.1272
 6769W        W44263  23.213   0.705   0.305 -0.0732 -0.0372  0.4768
 6770W        W44264   9.057   9.626  19.075 -0.1032 -0.2378  0.0991
 6771W        W44265   9.728  12.129   3.597  0.2413 -0.2345 -0.0607
 6772W        W44266  16.609  16.421  10.648  0.0214 -0.1752 -0.0667
 6773W        W44267   1.400  14.597   2.577 -0.1496  0.0531  0.1281
 6774W        W44268   2.300  25.923  18.545  0.0111 -0.1269  0.0857
 6775W        W44269  19.574  11.546   1.508 -0.0479  0.0270  0.0448
 6776W        W44270  26.855   0.613  23.527 -0.1389 -0.1857 -0.2833
 6777W        W44271  11.905  18.217  12.125 -0.1918 -0.1822 -0.1596
 6778W        W44272  27.743   7.697  14.273 -0.3001 -0.1154 -0.3259
 6779W        W44273   3.258   6.757   6.342 -0.0961  0.0756 -0.2346
 6780W        W44274  26.164  10.885   0.564 -0.1181  0.2092 -0.1021
 6781W        W44275  16.916   1.279  17.153 -0.1454 -0.0037 -0.3859
 6782W        W44276  29.704  31.133  18.450 -0.2359 -0.1150  0.2536
 6783W        W44277  28.302   0.970  19.463 -0.3132 -0.2755  0.2278
 6784W        W44278  18.174  13.863   5.427 -0.0695  0.1840  0.1361
 6785W        W44279  26.583  15.908   5.819 -0.1703  0.2544  0.0789
 6786W        W44280  24.624  19.373   0.273 -0.1862  0.1235  0.1414
 6787W        W44281   1.101  14.167  21.809  0.4501  0.0780 -0.1312
 6788W        W44282  32.083  33.280  12.669  0.0480  0.0033 -0.1373
 6789W        W44283  26.240  20.145   7.979  0.1971 -0.0345 -0.0174
 6790W        W44284  15.344   4.218  21.388  0.2887  0.0855  0.0758
 6791W        W44285  19.705  12.930   1.884  0.0465 -0.2637  0.1897
 6792W        W44286  14.816  23.639  21.574  0.1647 -0.2509 -0.2026
 6793W        W44287  24.858   9.095   1.463 -0.1248  0.0349 -0.0899
 6794W        W44288  23.422   2.623   4.621  0.2470  0.0358 -0.3127
 6795W        W44289  16.911  30.688  22.547 -0.1997 -0.0496  0.0392
 6796W        W44290  32.955  24.443  23.579 -0.2547 -0.1360 -0.0470
 6797W        W44291  27.125   8.176   1.247  0.0477 -0.2094 -0.2589
 6798W        W44292  18.356   8.931  23.351  0.1029  0.2028 -0.0192
 6799W        W44293  34.698  10.932   1.622  0.3127 -0.1200  0.0755
 6800W        W44294  26.854  22.854   0.776 -0.1055  0.1362  0.0860
 6801W        W44295  17.438  21.630   8.285  0.2275 -0.0187  0.1879
 6802W        W44296  33.025  13.086  21.258 -0.2093  0.0579  0.0818
 6803W        W44297  11.235   5.341   8.214  0.1218  0.1439 -0.0086
 6804W        W44298  32.077  33.631  21.967 -0.0500 -0.1408  0.0837
 6805W        W44299   9.057  11.271   5.737 -0.2783 -0.0921 -0.0891
 6806W        W44300   7.901  32.778  23.865 -0.0040  0.1608 -0.2353
 6807W        W44301  12.476  17.278  19.583  0.2377  0.0023 -0.1233
 6808W        W44302  11.644  29.623  11.107  0.0036 -0.0887 -0.2844
 6809W        W44303  14.823  26.000   0.597  0.0447 -0.0088 -0.1923
 6810W        W44304   4.484  29.913   3.168  0.3798 -0.1042  0.1999
 6811W        W44305   4.612   0.444   3.392 -0.0706  0.1333  0.0653
 6812W        W44306  31.301  34.620  13.352 -0.1057  0.1680  0.0418
 6813W        W44307  14.499  21.472  25.212 -0.1676 -0.1706  0.1630
 6814W        W44308   5.557  17.266   6.939 -0.0914  0.0834  0.0484
 6815W        W44309  19.186  13.634   6.935  0.2063  0.0053  0.2927
 6816W        W44310  21.812  32.265   0.982  0.1906 -0.1462 -0.0860
 6817W        W44311  23.368  33.520   1.415 -0.0436 -0.0487 -0.0936
 6818W        W44312  31.662   9.344   9.380 -0.0834  0.4717  0.1476
 6819W        W44313  13.904  34.037  23.983 -0.3823 -0.3054 -0.0297
 6820W        W44314  27.349  27.811  24.122 -0.1500 -0.0160  0.1470
 6821W        W44315  16.191   2.235  24.055  0.3157 -0.1276  0.0294
 6822W        W44316  24.892  34.836  19.209 -0.0814 -0.1648 -0.1491
 6823W        W44317   6.116  22.634   6.803 -0.0117  0.1526  0.2241
 6824W        W44318  24.365  27.468   3.882 -0.0384  0.3365 -0.0325
 6825W        W44319   7.476  25.226  25.856 -0.0370  0.4109 -0.0873
 6826W        W44320   6.548   2.819  23.053 -0.0903 -0.0408  0.3094
 6827W        W44321   0.144   1.604  19.182 -0.2250 -0.1589  0.2181
 6828W        W44322  34.371  15.432  21.793 -0.1196 -0.0340  0.0553
 6829W        W44323   4.227  12.468  21.639  0.2895  0.0389  0.1167
 6830W        W44324  28.078   1.220  11.313  0.1407  0.0875  0.0788
 6831W        W44325  18.772  32.528  19.026  0.1905 -0.1175 -0.0229
 6832W        W44326   7.593   0.794   5.711 -0.1827  0.0431 -0.0825
 6833W        W44327   4.046   7.013  19.390  0.1374  0.0009  0.0708
 6834W        W44328  11.829  12.853  24.219 -0.0594  0.2746 -0.3098
 6835W        W44329   8.937  26.724   7.876 -0.1624  0.0202  0.0632
 6836W        W44330  10.249  24.017   7.248 -0.1942  0.0459 -0.1723
 6837W        W44331  10.147   8.219  21.643 -0.2449 -0.5441  0.0020
 6838W        W44332   6.223  30.326   1.002 -0.5378 -0.1320 -0.2170
 6839W        W44333   0.635  14.049  19.948  0.0245  0.0665 -0.1495
 6840W        W44334  10.044   8.024   8.824 -0.0330  0.2415  0.0780
 6841W        W44335   5.324  28.525   7.964  0.0944  0.1246 -0.1865
 6842W        W44336   4.822   7.389  19.585  0.1974 -0.1532 -0.4029
 6843W        W44337   4.432   9.345  25.614 -0.0556  0.2206 -0.0392
 6844W        W44338  31.380  23.616   8.221  0.2946  0.1407  0.2520
 6845W        W44339   5.211  18.846  25.715  0.1985  0.1514  0.0459
 6846W        W44340  21.189  17.396   0.427  0.1623  0.0674  0.0032
 6847W        W44341  26.901   4.512  11.690  0.2129 -0.1455  0.1741
 6848W        W44342  12.621  23.625   4.468  0.0559  0.1872 -0.0086
 6849W        W44343  17.098   7.823  12.111  0.2535 -0.1211 -0.0035
 6850W        W44344   1.939   2.297  22.062 -0.0656  0.2252 -0.0750
 6851W        W44345  18.819  15.589   1.995  0.0158  0.1365 -0.1012
 6852W        W44346  10.066  23.805   8.212  0.0739 -0.0351 -0.3138
 6853W        W44347   8.650  25.901  22.277 -0.0391  0.1557  0.1283
 6854W        W44348   4.242   4.641   4.044 -0.1613  0.0928  0.5524
 6855W        W44349   0.697  22.595  23.996  0.2323 -0.1588  0.0201
 6856W        W44350   9.854  24.463   4.165 -0.0701 -0.0437  0.0291
 6857W        W44351   2.019   2.560  17.350 -0.1001  0.0457 -0.0830
 6858W        W44352  19.300  22.752   2.241  0.0309  0.4104  0.1557
 6859W        W44353  29.318  30.558  19.253 -0.0710  0.0613  0.1816
 6860W        W44354  28.384  15.513  16.853 -0.1824  0.1955  0.2946
 6861W        W44355  24.034  34.579  19.117  0.1425 -0.2305  0.3791
 6862W        W44356  31.533  13.232  17.133 -0.0144  0.0761  0.2163
 6863W        W44357  11.727   2.193  23.444 -0.2037 -0.1431  0.0390
 6864W        W44358  22.625  27.515  15.127  0.0186 -0.5022  0.4107
 6865W        W44359  20.525  28.762  16.212 -0.0571 -0.1924  0.0858
 6866W        W44360   9.120  30.719   9.956 -0.0905  0.1751 -0.1352
 6867W        W44361  20.837  34.025  15.417  0.3870 -0.0698 -0.1207
 6868W        W44362  19.625  27.403   1.424  0.2109  0.0035  0.0197
 6869W        W44363  25.273  23.050  10.654  0.2232  0.2971  0.1964
 6870W        W44364  12.428  26.530   3.471 -0.2560  0.1286 -0.2996
 6871W        W44365   3.520  15.888  17.256 -0.0061  0.1517 -0.0309
 6872W        W44366  30.679  33.945  26.131  0.2825  0.0617  0.0001
 6873W        W44367   0.586  25.989  25.482  0.2919 -0.0856  0.4241
 6874W        W44368  34.562   6.774   3.847  0.0491  0.1420  0.1799
 6875W        W44369   0.158  33.493   5.289  0.2904 -0.0856 -0.0654
 6876W        W44370  16.459   3.578  11.532  0.0344  0.1653  0.3008
 6877W        W44371   1.027  12.793  20.319  0.3300 -0.0356 -0.2740
 6878W        W44372  12.092  32.920   5.590  0.0244  0.2292  0.0130
 6879W        W44373  35.328   6.688  11.961  0.0234  0.1910 -0.0678
 6880W        W44374   7.257  27.687  11.685  0.0160  0.1767  0.1381
 6881W        W44375  32.297  28.820  14.257  0.1611 -0.2004  0.2111
 6882W        W44376  12.960  13.910   6.095  0.2833 -0.0720  0.0221
 6883W        W44377  31.014   6.144  17.408 -0.1667 -0.0006  0.1437
 6884W        W44378  29.778   6.263   1.140  0.4936 -0.0302  0.0912
 6885W        W44379  14.730  20.265  13.653  0.0705  0.1642  0.1778
 6886W        W44380  11.115  21.327   7.787 -0.0528  0.1616 -0.1345
 6887W        W44381  31.283  27.024  18.860  0.3831  0.1991 -0.2577
 6888W        W44382  33.512  34.247  20.895 -0.3983  0.2083 -0.2698
 6889W        W44383  17.498   9.790  12.046 -0.3533  0.1939 -0.0975
 6890W        W44384  29.016  32.941  24.971 -0.0080 -0.4430  0.1602
 6891W        W44385  29.008  30.398   1.627 -0.1361  0.3644 -0.1559
 6892W        W44386  34.476  12.837  18.188  0.2253  0.0610  0.0379
 6893W        W44387  34.559  30.125   6.440  0.1522 -0.2545  0.1459
 6894W        W44388  24.611  13.770  20.800  0.0116  0.0342  0.1221
 6895W        W44389  31.313  22.362   8.030  0.1133 -0.2136  0.1538
 6896W        W44390   0.489  33.883  25.734 -0.1002  0.0518 -0.1166
 6897W        W44391   3.951  11.315  19.049 -0.4042  0.2704 -0.1744
 6898W        W44392  24.293  13.654  15.823  0.0510 -0.0155  0.0139
 6899W        W44393  15.537  33.537   7.462  0.1882  0.0209  0.2775
 6900W        W44394   8.717  11.918  11.723 -0.3724  0.2901  0.1720
 6901W        W44395  22.524  27.623   3.487 -0.0021  0.0111 -0.2434
 6902W        W44396  28.712  32.943   1.420  0.0170  0.0607 -0.1789
 6903W        W44397  14.378  18.678  22.905 -0.0114 -0.1632  0.0402
 6904W        W44398  34.535  11.359  16.927  0.1250  0.1346  0.0491
 6905W        W44399  22.716  19.141   1.936  0.1093 -0.1863 -0.1104
 6906W        W44400  11.614  25.746   4.135 -0.1056  0.1317 -0.1806
 6907W        W44401   6.925  18.657  24.307 -0.1330  0.0923 -0.2237
 6908W        W44402  24.019  30.300  22.862  0.3745  0.0421  0.0287
 6909W        W44403  11.171  15.392  25.766 -0.0295 -0.3523 -0.1003
 6910W        W44404  24.842  25.514  25.049  0.1721 -0.1855  0.2860
 6911W        W44405  32.718   7.861   1.175 -0.1432  0.0016 -0.1404
 6912W        W44406  12.250  21.354  25.121 -0.0043 -0.1164  0.1977
 6913W        W44407  14.966  16.173  19.247 -0.1433  0.4453 -0.2253
 6914W        W44408  23.110  16.311   1.011 -0.1199  0.0197 -0.0676
 6915W        W44409  24.786  34.671  17.138 -0.1653  0.1673 -0.0453
 6916W        W44410   6.472  21.903   0.836  0.0771  0.0622  0.0989
 6917W        W44411   9.651   5.430  23.098  0.0512  0.1743  0.2001
 6918W        W44412  20.980  35.218   7.215 -0.4574 -0.2937  0.1295
 6919W        W44413   8.491  13.825  12.176 -0.0359  0.0183 -0.0835
 6920W        W44414  27.329  12.168  24.588  0.0395  0.1418  0.1471
 6921W        W44415   8.557   6.869  19.123 -0.1025  0.0616  0.0921
 6922W        W44416  26.290   4.412  21.649 -0.3858 -0.1245  0.1452
 6923W        W44417  10.163  13.210  22.619 -0.0415 -0.0467  0.2131
 6924W        W44418  19.002  11.102   2.612 -0.5406 -0.3204  0.1516
 6925W        W44419   8.816  25.614  16.251 -0.0989  0.3167  0.1668
 6926W        W44420   1.197  31.011   5.511 -0.0789 -0.1891  0.1585
 6927W        W44421   7.395   9.146  22.367 -0.1133 -0.0911 -0.2184
 6928W        W44422  26.798  13.112  14.503 -0.1396 -0.0904 -0.0477
 6929W        W44423  13.377  15.888  14.588 -0.1835  0.2280  0.4183
 6930W        W44424  12.592  18.908  11.879 -0.0896  0.2230  0.0855
 6931W        W44425  13.142  10.817  13.331  0.1821  0.1908  0.1930
 6932W        W44426  14.596   0.117  19.841  0.0164  0.0180  0.0308
 6933W        W44427   1.760  30.486  21.200 -0.1682  0.2392 -0.0576
 6934W        W44428   3.188  13.218   2.997  0.2444 -0.0197  0.1661
 6935W        W44429   0.137   8.939  21.064 -0.0155 -0.1502 -0.2660
 6936W        W44430   0.621  18.375  20.033 -0.1966 -0.1591  0.0349
 6937W        W44431  15.218  25.316  25.771  0.2196  0.0665  0.0303
 6938W        W44432  20.305  26.011  17.926  0.1518 -0.1702 -0.4066
 6939W        W44433  34.416  25.875  24.338  0.1038  0.1513  0.2362
 6940W        W44434  28.628   8.873  25.392 -0.1628 -0.1094  0.1898
 6941W        W44435  31.885  17.361  19.306  0.0173 -0.2317  0.2964
 6942W        W44436  28.959  19.098   8.914  0.2026  0.1855  0.1286
 6943W        W44437  19.487  20.166   4.765  0.0512 -0.4103  0.4603
 6944W        W44438   7.667  22.743   8.557 -0.2922 -0.1143 -0.1089
 6945W        W44439   6.636   0.649  22.021  0.1021 -0.1851 -0.2730
 6946W        W44440  34.277  19.945  11.833  0.2409 -0.2513  0.2532
 6947W        W44441  16.361  16.042   6.287  0.0136  0.2206 -0.3953
 6948W        W44442   6.943  13.988  25.084 -0.1135 -0.2098 -0.4062
 6949W        W44443   2.171   1.118   7.511 -0.1836 -0.1285  0.1535
 6950W        W44444   5.851  20.631  22.007  0.0880 -0.2533 -0.0945
 6951W        W44445  13.837  14.540   8.578  0.4834  0.0222 -0.1418
 6952W        W44446  27.267  24.358  22.915 -0.2237  0.0021  0.0643
 6953W        W44447  22.877  33.678  14.987 -0.1794  0.1683  0.3404
 6954W        W44448  19.499  27.017  20.596 -0.1531 -0.3529 -0.0714
 6955W        W44449  21.399   9.018  23.588  0.1977 -0.3305  0.0143
 6956W        W44450   6.368   8.583   2.412  0.2900 -0.0276 -0.0393
 6957W        W44451  27.362  21.015   6.749 -0.0585 -0.1365 -0.0502
 6958W        W44452  20.335  15.598  21.860 -0.1807  0.0104  0.2662
 6959W        W44453   5.997  20.382  21.277 -0.0334 -0.0537 -0.3458
 6960W        W44454  25.452   3.792  12.511  0.2266 -0.1261 -0.1646
 6961W        W44455   7.267  28.084   4.177 -0.0248 -0.0483  0.3910
 6962W        W44456  29.972   8.673  20.177  0.0763 -0.0945  0.3275
 6963W        W44457  14.216  20.282   1.138 -0.0092  0.0930 -0.0775
 6964W        W44458  24.555  16.986  14.217  0.1241  0.0129 -0.1129
 6965W        W44459  18.113  28.859  25.502  0.0534 -0.1347  0.0284
 6966W        W44460   6.819   5.033   1.807 -0.0111 -0.0072  0.0418
 6967W        W44461  31.622  28.952  15.843  0.1608 -0.0362  0.0985
 6968W        W44462  12.903  31.237  25.749 -0.0536  0.2566  0.0470
 6969W        W44463  34.705   2.164  22.218 -0.0976 -0.1735  0.1895
 6970W        W44464  35.365   0.088  23.780  0.0646 -0.1574  0.1850
 6971W        W44465  23.764   3.831  22.083 -0.3337  0.1969 -0.2177
 6972W        W44466  27.465  30.826  22.086 -0.1793  0.0497 -0.0354
 6973W        W44467   4.250   7.630  16.087  0.3583  0.0240  0.2004
 6974W        W44468  11.136  34.624   5.659 -0.2087  0.1254 -0.1368
 6975W        W44469  16.694   9.346  12.530 -0.2350 -0.3224  0.3589
 6976W        W44470  20.006  11.020  23.498 -0.0287  0.0865 -0.1625
 6977W        W44471  30.788  10.601  13.074 -0.0174 -0.0803 -0.0407
 6978W        W44472  16.292   1.389   2.792 -0.0929  0.4068 -0.1429
 6979W        W44473  19.671  14.486   3.714 -0.1933 -0.3496  0.1085
 6980W        W44474  13.998   2.476  24.488 -0.2581 -0.2927  0.2626
 6981W        W44475  33.700  34.465   1.755 -0.0492 -0.4123 -0.1248
 6982W        W44476  11.258  14.596  11.088  0.1472  0.2067  0.2617
 6983W        W44477  31.451  20.851   7.826  0.0283 -0.0416  0.0239
 6984W        W44478  24.660  35.361   3.005  0.0763  0.2085 -0.1650
 6985W        W44479  22.311  33.821  15.837 -0.0545  0.0770 -0.0739
 6986W        W44480  34.991   6.215  23.298 -0.1016 -0.4334 -0.2830
 6987W        W44481  17.509   0.062   3.920  0.0269  0.2730 -0.2617
 6988W        W44482  11.171   4.873   3.464  0.1360  0.1213  0.0144
 6989W        W44483  29.656  32.449  22.974 -0.2132 -0.2685 -0.2112
 6990W        W44484  11.700  14.595   3.770 -0.0026  0.0529 -0.0221
 6991W        W44485   2.634  11.442   1.178  0.3303  0.0557  0.0770
 6992W        W44486  10.044  15.275  20.921  0.3655 -0.2144 -0.1939
 6993W        W44487   5.845   3.852   5.211 -0.0327  0.1745 -0.3203
 6994W        W44488   4.874  26.956  21.444  0.1850 -0.0755 -0.1664
 6995W        W44489   6.825  17.607   5.374  0.3752  0.1657 -0.0197
 6996W        W44490  35.370  17.547  12.390  0.0762  0.0347 -0.0404
 6997W        W44491  19.787   9.198  17.842  0.1762  0.3147 -0.1531
 6998W        W44492   9.196  21.734   3.188  0.1128 -0.0918  0.0361
 6999W        W44493  29.968  28.918   2.742 -0.1632 -0.2709 -0.1649
 7000W        W44494  21.626  30.437  23.954 -0.0750 -0.6006 -0.1300
 7001W        W44495  22.102  10.962   1.999  0.0746 -0.1091  0.1040
 7002W        W44496   6.862  24.967  12.325  0.2355 -0.0805 -0.0110
 7003W        W44497  21.525  29.655  23.584 -0.1117 -0.0644 -0.0274
 7004W        W44498  11.651   1.275  23.297  0.2102 -0.0363  0.0771
 7005W        W44499  10.220  26.778   9.873 -0.0434  0.3107  0.0547
 7006W        W44500  28.453  25.935  22.552  0.0192  0.1895 -0.3561
 7007W        W44501  34.445  15.775  15.318  0.0872 -0.0054  0.0239
 7008W        W44502  23.072  14.343  15.860  0.0655  0.0153  0.1991
 7009W        W44503  20.676   2.718  25.383  0.0170  0.1440 -0.0099
 7010W        W44504  16.789  18.483  11.962 -0.2137  0.3040 -0.3089
 7011W        W44505  26.394  30.973   2.938  0.2188 -0.0411  0.1272
 7012W        W44506  16.032  26.810   4.293 -0.1148 -0.2673  0.0771
 7013W        W44507  26.095  32.361  24.116  0.2654  0.2257 -0.0127
 7014W        W44508  25.354   2.325  18.368  0.1003  0.0238  0.0721
 7015W        W44509   8.018   2.427  19.737  0.0261 -0.2020 -0.0593
 7016W        W44510  29.396  29.565  21.384 -0.0529  0.4411  0.1953
 7017W        W44511  12.268  33.079  11.243 -0.1136  0.0354  0.3730
 7018W        W44512   1.514   3.806  14.355  0.0671 -0.2154 -0.1789
 7019W        W44513  28.485  16.977   9.028  0.3029 -0.5240 -0.0480
 7020W        W44514   9.240   7.089  10.195 -0.0895  0.0875  0.0958
 7021W        W44515  33.640  25.784   2.844  0.0330  0.1005  0.1179
 7022W        W44516  32.841  28.524   4.313  0.0886 -0.0973 -0.0400
 7023W        W44517   8.515   2.796  22.292  0.0588  0.2924  0.1617
 7024W        W44518  25.330   6.096   2.437  0.1209 -0.0421 -0.1263
 7025W        W44519  10.548  33.878   2.336 -0.0816 -0.2399 -0.0157
 7026W        W44520  18.713   3.079   4.422  0.2587  0.2592 -0.1723
 7027W        W44521  15.451  19.288   1.848  0.2039 -0.0995  0.1572
 7028W        W44522   8.445  18.812  11.574 -0.0898 -0.2793  0.3215
 7029W        W44523  25.472   3.269  21.794  0.1759  0.0418 -0.2715
 7030W        W44524  13.399   5.579   1.368 -0.2614 -0.0429 -0.1106
 7031W        W44525  29.892  15.561   5.441  0.0493  0.0155  0.2922
 7032W        W44526  28.309  27.688  16.846 -0.2260 -0.0657 -0.2154
 7033W        W44527  15.364  12.444  13.020 -0.1913  0.2928  0.1279
 7034W        W44528  32.673   7.474  21.114 -0.0406  0.4695 -0.2844
 7035W        W44529   9.085   7.689   1.696  0.0210  0.2769 -0.1604
 7036W        W44530  28.878  14.002  19.398  0.0680  0.0427 -0.0844
 7037W        W44531  27.639  33.122   3.382 -0.1326  0.3594 -0.2139
 7038W        W44532  14.614  11.314   8.730  0.0672 -0.0990  0.1305
 7039W        W44533  29.869  27.487   0.041 -0.1580  0.0734  0.0086
 7040W        W44534  28.381  27.308   8.343  0.0215  0.3106  0.1111
 7041W        W44535  33.173  31.556   5.803  0.3921  0.1555 -0.2411
 7042W        W44536   1.953  17.464  23.260 -0.0238 -0.0971  0.1026
 7043W        W44537   8.507  21.321  22.693 -0.0909  0.1923  0.1356
 7044W        W44538  27.789  11.012   9.919 -0.0721 -0.2124 -0.1182
 7045W        W44539  14.657  21.069  24.153 -0.0872  0.1492  0.0032
 7046W        W44540  15.010  13.570  23.685 -0.0460  0.0430 -0.0844
 7047W        W44541   7.991  32.731   1.872 -0.0214  0.0452 -0.2769
 7048W        W44542  10.586  32.483  25.593  0.0861 -0.2229  0.0003
 7049W        W44543  28.571  11.486  18.366 -0.3568  0.1726 -0.1604
 7050W        W44544   6.045  10.054  20.765  0.0282  0.2416  0.0038
 7051W        W44545  18.737  18.201  22.294 -0.3232 -0.0154 -0.0505
 7052W        W44546  12.547  15.911  20.775 -0.1082 -0.0070  0.0820
 7053W        W44547  25.908  17.191  10.795 -0.0559  0.1460  0.0654
 7054W        W44548   2.952  18.801  20.559  0.3570 -0.0857  0.0404
 7055W        W44549   4.951  14.075   5.136 -0.0548 -0.1482  0.0508
 7056W        W44550  32.152   7.826  11.586  0.1178 -0.0659  0.2655
 7057W        W44551  14.873  18.199  21.728  0.1954 -0.0134  0.1034
 7058W        W44552  10.767  30.997  11.816  0.0916  0.1015 -0.3368
 7059W        W44553  20.301  12.138   0.195 -0.4665 -0.2921 -0.0587
 7060W        W44554  21.653  22.843   4.526  0.0675 -0.1387  0.1299
 7061W        W44555  11.479  12.607  26.032 -0.1759 -0.3306 -0.1205
 7062W        W44556  22.590  23.931   4.238  0.2575 -0.1695 -0.0595
 7063W        W44557  11.033   6.037   1.251 -0.0913 -0.0573 -0.0092
 7064W        W44558  33.457   3.280  24.934  0.4524 -0.2007 -0.0188
 7065W        W44559  29.034  20.744  16.758 -0.2061 -0.0722  0.1563
 7066W        W44560  20.972  23.750   1.093  0.0406 -0.0623 -0.3337
 7067W        W44561  26.877   7.056  20.879 -0.0493 -0.5806  0.2094
 7068W        W44562  22.804   2.573  17.741  0.4561 -0.0782  0.3360
 7069W        W44563   4.810  25.790  10.697  0.2470 -0.1280 -0.0840
 7070W        W44564  26.654  14.426  22.215 -0.0373 -0.1227  0.1351
 7071W        W44565   3.834   6.967  19.904 -0.2937 -0.3017  0.1481
 7072W        W44566  31.800  13.098   9.274 -0.0755  0.2296  0.2483
 7073W        W44567  23.511  28.171  15.893 -0.3172  0.0302 -0.1113
 7074W        W44568  25.597  10.974   8.862 -0.1475  0.2256  0.3048
 7075W        W44569   0.706  14.338  13.890  0.1903 -0.2855  0.1818
 7076W        W44570  11.919  27.448  26.219 -0.1368 -0.0837 -0.0138
 7077W        W44571   2.478   8.897  19.863  0.1738  0.0217 -0.2378
 7078W        W44572  31.636  17.501   9.683 -0.0356  0.0907 -0.0517
 7079W        W44573   4.964  13.231   4.131  0.1178 -0.1431 -0.3113
 7080W        W44574  24.473   6.508  21.511  0.1154  0.1168  0.0119
 7081W        W44575  12.166   2.907   8.120 -0.3047 -0.2366 -0.0374
 7082W        W44576   9.825  22.093  16.590 -0.0014 -0.1587 -0.0856
 7083W        W44577   8.020  31.479  13.581  0.1501 -0.0298  0.0523
 7084W        W44578  30.916  12.379  17.649 -0.3880  0.1559  0.0794
 7085W        W44579  18.843  21.863   2.606 -0.0251  0.1545  0.1111
 7086W        W44580   9.671   0.856   1.753  0.4661  0.3347  0.3309
 7087W        W44581   6.856  24.597   7.742 -0.0578 -0.2409  0.2662
 7088W        W44582  12.852   7.457  26.124  0.2534  0.3223  0.0944
 7089W        W44583   7.671  18.399   2.478  0.2837 -0.1578  0.0515
 7090W        W44584  34.462  16.032  17.860  0.0889  0.0140 -0.2405
 7091W        W44585  34.066  22.030  14.267  0.1443  0.4076  0.1059
 7092W        W44586   3.337  23.343  23.177  0.1584 -0.0646  0.2054
 7093W        W44587   2.056  16.163  23.549  0.0705  0.1125  0.1223
 7094W        W44588  26.866   1.866  22.270 -0.1668  0.1890  0.4442
 7095W        W44589  15.978  12.981   9.668 -0.1555  0.0138  0.1387
 7096W        W44590   8.739  33.010   8.199  0.3325  0.1410  0.3087
 7097W        W44591  22.095  14.032  22.743  0.0075  0.1422 -0.0850
 7098W        W44592  15.152  32.499   3.339  0.1277 -0.0581  0.2560
 7099W        W44593  31.387  10.489  11.079  0.1895  0.0036 -0.0793
 7100W        W44594   5.564  18.168   7.389 -0.2052 -0.0464 -0.0096
 7101W        W44595   6.080  33.622   4.345 -0.0643  0.1276  0.0329
 7102W        W44596  34.033   0.015  17.676 -0.2646 -0.0791 -0.1686
 7103W        W44597  10.377  27.152  10.673 -0.1442  0.0734  0.1489
 7104W        W44598  11.398  12.702  11.070  0.0570  0.4665 -0.0198
 7105W        W44599   8.784  22.314  15.930  0.2036  0.1640  0.0542
 7106W        W44600  21.185  22.825   6.740  0.2435 -0.1966 -0.2146
 7107W        W44601  23.788  32.692  11.639  0.0268 -0.3839 -0.2716
 7108W        W44602  20.642  19.530  20.946  0.0779  0.0507  0.2224
 7109W        W44603  10.751  10.026  19.826 -0.2046 -0.1271 -0.1510
 7110W        W44604  20.456  21.760  18.648 -0.0176 -0.0890 -0.0258
 7111W        W44605   9.761  32.113  15.118 -0.0236 -0.1069  0.0424
 7112W        W44606  15.664   6.182  24.210 -0.0157  0.0027  0.0533
 7113W        W44607  27.403  20.528  15.426  0.0367 -0.1504  0.3876
 7114W        W44608  26.351  27.207  15.704 -0.4178 -0.1497  0.2215
 7115W        W44609  32.865  22.506  10.218 -0.0420  0.3080 -0.0822
 7116W        W44610  18.391  29.055  10.003 -0.2166  0.0614  0.0665
 7117W        W44611  17.607  18.318  13.061  0.6892 -0.0568  0.1878
 7118W        W44612  19.040  11.319   5.704 -0.0592  0.1230  0.0985
 7119W        W44613   1.138  30.367  20.712 -0.1559  0.1206  0.0884
 7120W        W44614  30.886   1.281   0.547 -0.1201 -0.0556  0.0406
 7121W        W44615  16.764  16.343   5.906 -0.3197  0.1481 -0.0870
 7122W        W44616  29.894  17.859  20.105  0.0804 -0.0234  0.1549
 7123W        W44617   0.314   5.025  17.444  0.1728 -0.0977 -0.2175
 7124W        W44618  34.882  18.853  21.422  0.2449  0.0969 -0.0987
 7125W        W44619  10.471   0.134   9.423  0.1750 -0.0892 -0.3366
 7126W        W44620  27.592  31.816   4.703 -0.1737  0.0000  0.0453
 7127W        W44621  14.551  29.474  25.238  0.1421  0.1619 -0.1354
 7128W        W44622   5.881   7.020  18.344 -0.3890 -0.2277  0.2405
 7129W        W44623   2.261   3.776  21.265 -0.0666 -0.0496 -0.1715
 7130W        W44624  17.747  23.053  25.476  0.0459  0.3082  0.0330
 7131W        W44625   5.385  31.811   6.991 -0.0383  0.6127  0.1768
 7132W        W44626  28.408  19.948   5.406  0.0627  0.3321  0.2073
 7133W        W44627   8.946  23.020  12.383 -0.0380 -0.2909  0.0660
 7134W        W44628  14.777  27.995  16.269 -0.0422  0.0084 -0.0892
 7135W        W44629  25.836   4.096   5.867 -0.3042 -0.1710  0.0428
 7136W        W44630  11.004  19.644  23.786  0.3393  0.2149 -0.0419
 7137W        W44631  11.789  18.512   9.854  0.0494 -0.0525 -0.1477
 7138W        W44632   2.325  25.361  25.503 -0.2799 -0.0983 -0.1149
 7139W        W44633  16.670  20.326   7.913 -0.1837  0.0687  0.3461
 7140W        W44634  33.628  15.190  25.884  0.2309 -0.2818 -0.0407
 7141W        W44635  15.482  10.887   8.238  0.0082 -0.2126 -0.0021
 7142W        W44636  16.050  24.676  24.305 -0.0178 -0.3173 -0.0990
 7143W        W44637  20.665  27.988  22.659  0.0229 -0.2006  0.0547
 7144W        W44638  30.328  15.626  22.144  0.3355  0.1921 -0.0491
 7145W        W44639  13.260  26.829   2.175 -0.0176  0.1356  0.0052
 7146W        W44640  10.849  27.661  25.953  0.0329  0.0268  0.1023
 7147W        W44641  30.749  34.924   5.400  0.1217 -0.0049 -0.0449
 7148W        W44642  11.707   8.572   4.879 -0.1939  0.3140 -0.0458
 7149W        W44643  16.301  32.676   1.371 -0.0761  0.1437 -0.2311
 7150W        W44644  15.374   7.826   6.267 -0.2072 -0.5479  0.0213
 7151W        W44645  31.713  11.297  24.088 -0.2878  0.2936 -0.0392
 7152W        W44646  32.837  20.683   7.130  0.1656 -0.1907  0.0745
 7153W        W44647  25.192  24.134  22.637  0.1538 -0.0401 -0.0050
 7154W        W44648  20.046  32.621  19.819  0.0261  0.0880 -0.0355
 7155W        W44649   0.985   1.514   7.270 -0.0340 -0.2105 -0.0355
 7156W        W44650  20.693  12.280  16.511 -0.3273  0.3428 -0.1342
 7157W        W44651   9.898  34.543  10.749 -0.2015  0.1783 -0.3577
 7158W        W44652  26.553   1.032  25.351  0.1366 -0.0890 -0.0382
 7159W        W44653  25.483  14.810  17.168 -0.0769  0.0076 -0.0914
 7160W        W44654  32.584  33.603  23.468 -0.2626 -0.0242  0.4026
 7161W        W44655   3.975  22.070  19.219 -0.0035  0.2461  0.1227
 7162W        W44656  12.438   5.401  18.481 -0.2283 -0.1390 -0.0526
 7163W        W44657   0.158  28.794  17.659 -0.0565 -0.1228  0.1114
 7164W        W44658  26.145   1.010  11.735  0.1928  0.0273 -0.2643
 7165W        W44659  31.805   8.498   1.905  0.2983 -0.1349 -0.0731
 7166W        W44660  10.008  26.904   5.139 -0.1046  0.0330 -0.2346
 7167W        W44661  23.439  15.528  24.837  0.1837  0.0389  0.1384
 7168W        W44662   7.557  20.677  22.506  0.0159  0.2771 -0.0726
 7169W        W44663  30.023   4.613  21.140  0.1692 -0.3333  0.2823
 7170W        W44664  30.708   1.342  25.631 -0.0003 -0.3368 -0.2258
 7171W        W44665  14.786  26.556  24.706 -0.2950  0.1914 -0.0518
 7172W        W44666  27.874  31.667  23.371 -0.3046  0.2065  0.0152
 7173W        W44667  29.423  26.226  21.752  0.0906 -0.3409 -0.2608
 7174W        W44668  11.800  11.210  23.938  0.2769 -0.2218  0.1274
 7175W        W44669  15.311  33.695  23.788 -0.1138 -0.3151  0.0369
 7176W        W44670   9.522  12.767   5.316 -0.0179  0.2797 -0.2400
 7177W        W44671   9.004   5.213   5.210 -0.0187  0.1987 -0.3090
 7178W        W44672  33.005   8.777  17.415  0.0592 -0.1255 -0.3064
 7179W        W44673  29.331  32.252  17.942  0.0374  0.1420 -0.2141
 7180W        W44674  22.344   0.360  24.172 -0.1016 -0.0261 -0.1440
 7181W        W44675   4.796   5.437  17.440  0.1311 -0.0820 -0.0944
 7182W        W44676   5.794  28.318   8.726  0.2343  0.1829  0.0113
 7183W        W44677   7.483   2.315   2.007  0.0525 -0.1746 -0.2886
 7184W        W44678  34.859   7.123  23.159 -0.3223  0.0604 -0.4553
 7185W        W44679  17.483  15.283   2.079 -0.4357  0.0744  0.1082
 7186W        W44680   6.225   3.818   1.827 -0.0023 -0.0865 -0.0463
 7187W        W44681  11.595   6.137   2.936 -0.2141  0.1307  0.0884
 7188W        W44682   6.661   6.464  17.993 -0.0288  0.1407  0.2318
 7189W        W44683  23.227  33.143  24.473  0.4879  0.4073 -0.0410
 7190W        W44684   1.895   6.369  24.106  0.0297  0.0660 -0.0845
 7191W        W44685  35.125  29.154   5.033  0.0989 -0.0364  0.2245
 7192W        W44686  17.091  23.046  13.324 -0.1786 -0.4042  0.0413
 7193W        W44687   6.940   8.502   3.261 -0.0824 -0.1256 -0.1188
 7194W        W44688  11.990  12.508  20.334 -0.0898 -0.4107 -0.1924
 7195W        W44689  32.970  13.533  12.284 -0.2255  0.2699 -0.0368
 7196W        W44690  21.929   1.005  24.190  0.0324 -0.3009 -0.1575
 7197W        W44691   0.152   2.143   5.460  0.1432  0.2871 -0.1900
 7198W        W44692  22.142  29.346  15.339 -0.0843  0.0337  0.0341
 7199W        W44693  33.187  19.805  26.225  0.0429  0.2017 -0.2348
 7200W        W44694   2.927   6.975   6.624  0.0440  0.3456  0.2127
 7201W        W44695  20.511  32.881  18.023 -0.0131  0.0413 -0.0936
 7202W        W44696  26.154  11.369   8.085 -0.1181  0.1332  0.1288
 7203W        W44697   5.155  22.570   1.647 -0.0199 -0.4185  0.1202
 7204W        W44698  15.255  33.353   6.538 -0.1160 -0.1040 -0.0146
 7205W        W44699  26.002  25.304  22.092  0.1004 -0.0220 -0.0910
 7206W        W44700  31.399  15.887  17.901  0.1540 -0.2832 -0.2006
 7207W        W44701   8.822  27.413  23.861 -0.0346 -0.0790 -0.2796
 7208W        W44702  32.307  13.796  16.157 -0.1036  0.2289  0.0341
 7209W        W44703   6.026   6.052  19.271 -0.1131 -0.5076 -0.1612
 7210W        W44704  14.907   9.691   1.377  0.0397 -0.3767  0.1343
 7211W        W44705  27.866  21.988   6.524  0.0159 -0.1075  0.0598
 7212W        W44706  33.925  10.103  10.560  0.3149 -0.1249 -0.3415
 7213W        W44707   1.976   2.504  22.830 -0.2025  0.2508  0.1746
 7214W        W44708  15.141  11.479  13.254 -0.2108  0.0413  0.3865
 7215W        W44709  16.056  14.440  10.419 -0.0711  0.1027 -0.2385
 7216W        W44710   3.381  33.256   8.996  0.4020  0.2604 -0.0756
 7217W        W44711  24.846  15.877   8.771  0.1649  0.0859 -0.1503
 7218W        W44712  25.813  19.583  15.464 -0.1372  0.0001 -0.1510
 7219W        W44713   9.194   5.674  19.552  0.0979 -0.1559  0.0116
 7220W        W44714  25.901  10.234   1.935  0.2471 -0.0914 -0.4506
 7221W        W44715  14.555  16.932  21.131  0.0728 -0.0119  0.1118
 7222W        W44716  12.640   7.624   7.355 -0.3253 -0.0636  0.1141
 7223W        W44717   9.025  35.326  25.979  0.3072  0.0697  0.1180
 7224W        W44718   1.750  22.361   0.106 -0.1868 -0.0661  0.1411
 7225W        W44719  10.990   1.465   2.744  0.1187 -0.2923  0.0142
 7226W        W44720  20.130  32.196  23.430 -0.1258 -0.0648 -0.0496
 7227W        W44721   0.850  12.449  11.524 -0.0016  0.0287  0.1585
 7228W        W44722   2.951  27.684  19.292  0.2586 -0.0507 -0.1170
 7229W        W44723  15.757   3.519   5.741  0.4610  0.1831  0.0911
 7230W        W44724  11.703  20.855   1.992 -0.2729 -0.2868 -0.0900
 7231W        W44725  13.396  13.728   6.824  0.0223 -0.0071  0.0067
 7232W        W44726  30.680  29.294  24.131  0.2693  0.1893 -0.0199
 7233W        W44727  34.907  15.797  24.132 -0.2340 -0.2783  0.1875
 7234W        W44728  15.999  20.042   9.129 -0.0093  0.0857  0.0881
 7235W        W44729  18.195  26.300  22.501  0.2868  0.1148 -0.0857
 7236W        W44730  28.862   4.974  18.961 -0.6019 -0.2404 -0.1651
 7237W        W44731  31.393  14.683  17.556  0.1004 -0.2726 -0.0443
 7238W        W44732  34.229  14.633   7.735 -0.0658  0.1936  0.0241
 7239W        W44733  32.346   4.509  19.489 -0.1551 -0.2193 -0.1488
 7240W        W44734  28.498  27.845  25.349 -0.1856  0.3272 -0.1305
 7241W        W44735  32.699   6.718  14.116 -0.1498  0.5164  0.1739
 7242W        W44736  19.243  23.029  24.713  0.0361  0.0714 -0.0471
 7243W        W44737   1.868   1.545  15.158 -0.1516  0.0629 -0.1061
 7244W        W44738   7.774  31.558  16.373  0.1389  0.2785 -0.2254
 7245W        W44739  31.516   7.212  18.642  0.1648 -0.3277  0.0930
 7246W        W44740  21.390   6.492   8.922 -0.2389 -0.2292  0.1035
 7247W        W44741  31.065  10.893  11.192 -0.0137 -0.0423 -0.1218
 7248W        W44742  15.511  13.800  13.300 -0.0348 -0.2170  0.3588
 7249W        W44743  28.529   1.630  16.742 -0.1008  0.1501  0.0629
 7250W        W44744   7.041  34.689   7.466 -0.5281  0.1404  0.1121
 7251W        W44745  13.197   2.718   6.200  0.1513 -0.0186  0.0044
 7252W        W44746   1.972   1.656  17.670  0.4505  0.1207 -0.2884
 7253W        W44747  24.566  14.306  16.257  0.1242  0.1700 -0.0228
 7254W        W44748   9.757  21.883   4.851 -0.1493 -0.0634  0.2185
 7255W        W44749   8.086  28.761  14.420 -0.2420  0.0257 -0.2827
 7256W        W44750   7.415   5.197  21.897  0.0391  0.0329 -0.1099
 7257W        W44751  19.279  13.733   4.023  0.2319  0.2069  0.1886
 7258W        W44752  30.618  12.342  15.416 -0.1718 -0.1171 -0.3284
 7259W        W44753  18.786  19.309  19.537 -0.0877 -0.1437  0.0222
 7260W        W44754  19.110  16.597   9.160  0.1411  0.0666  0.0109
 7261W        W44755  26.201   1.202  21.376  0.1860 -0.0153  0.3112
 7262W        W44756  19.117  26.896   4.985  0.2467 -0.2395 -0.3084
 7263W        W44757  34.559  22.734  16.349  0.1604  0.1248  0.1258
 7264W        W44758  18.819   9.292   7.008 -0.1316  0.0718 -0.2359
 7265W        W44759  34.683   9.119   2.739  0.2284 -0.1958  0.2158
 7266W        W44760  21.249  32.934  17.308  0.0235 -0.0364 -0.1538
 7267W        W44761  18.946  10.263  25.932  0.0892  0.1853 -0.3929
 7268W        W44762  17.924  26.912  10.913  0.2551 -0.2533 -0.0559
 7269W        W44763  29.788  22.561  20.266 -0.1109  0.0735 -0.1060
 7270W        W44764  14.907  25.964   9.120  0.0245 -0.0187  0.0420
 7271W        W44765  22.942  28.150  16.600  0.2684 -0.4611  0.3421
 7272W        W44766  15.700  11.029  14.108  0.1953  0.0700  0.3120
 7273W        W44767  24.442  30.036  19.641  0.2135 -0.2663  0.0421
 7274W        W44768  14.011  28.122   0.380 -0.4203  0.2591 -0.3290
 7275W        W44769   5.630   4.013  21.617  0.1580  0.0846 -0.0508
 7276W        W44770   9.458  10.166   1.105  0.1051  0.0808 -0.1986
 7277W        W44771   0.745  17.466  22.284  0.3108 -0.2314  0.1811
 7278W        W44772   5.273  12.694   2.880  0.1548  0.2726  0.0523
 7279W        W44773  20.400   0.211  17.991  0.0263  0.2812  0.1009
 7280W        W44774   8.036  18.813  21.552  0.3222  0.1021 -0.1833
 7281W        W44775  20.470  27.467  23.521  0.2661  0.2856 -0.4185
 7282W        W44776  23.372  27.449   0.626 -0.1990 -0.1312 -0.0164
 7283W        W44777  16.762   1.428   9.230 -0.4086 -0.2427  0.1155
 7284W        W44778  19.050   9.725  20.833 -0.2259  0.1155  0.1944
 7285W        W44779  27.020  28.281  16.539 -0.1664  0.0501 -0.0078
 7286W        W44780  20.847  10.136  10.093 -0.0378  0.0843  0.2170
 7287W        W44781  27.487   1.364  20.676 -0.1281  0.1690  0.1989
 7288W        W44782   1.199  13.524  14.268 -0.1253 -0.1536 -0.0094
 7289W        W44783  29.285  28.831  16.957 -0.1285 -0.0048 -0.1994
 7290W        W44784  24.821  23.544  25.936 -0.4254 -0.3239 -0.1420
 7291W        W44785  29.695  22.731  11.811  0.1600 -0.3888  0.1495
 7292W        W44786  26.097  10.980  18.501  0.1372  0.0370  0.1529
 7293W        W44787  19.978  30.246   2.510  0.0253 -0.3339  0.0690
 7294W        W44788  18.260  14.168  25.666 -0.1157  0.1481 -0.0666
 7295W        W44789  29.030  27.768  23.618  0.1789 -0.2267 -0.1980
 7296W        W44790  18.123  17.033   5.708  0.0001  0.2009 -0.0255
 7297W        W44791  15.567  26.573   9.467 -0.2904 -0.1966  0.0207
 7298W        W44792  28.232  28.971  24.351 -0.0912 -0.3673  0.0974
 7299W        W44793  25.697   2.841  16.155 -0.0097 -0.2217 -0.0691
 7300W        W44794  23.418  34.459  24.913 -0.0353  0.0224  0.3178
 7301W        W44795  23.491  23.550   0.101  0.2549 -0.1663 -0.0076
 7302W        W44796   8.235  29.572   5.003  0.0650 -0.1759  0.0812
 7303W        W44797  22.093  33.302   3.276  0.1826  0.3029 -0.1884
 7304W        W44798  26.563   4.529  20.764  0.0539  0.1154  0.2355
 7305W        W44799  13.599  26.105  13.542  0.0434  0.2659 -0.0476
 7306W        W44800  12.017  16.041  20.725 -0.0945 -0.1692  0.0924
 7307W        W44801  11.482   1.451   7.867 -0.1224 -0.2037 -0.0598
 7308W        W44802   8.581  31.431  23.147  0.0462  0.1597  0.2748
 7309W        W44803  10.744  12.636   6.547 -0.0243  0.0118 -0.3627
 7310W        W44804  34.269   7.940  21.746 -0.1105 -0.2379  0.0909
 7311W        W44805   4.444  16.094   1.443 -0.1181  0.3104 -0.1113
 7312W        W44806  18.898  20.438   5.340 -0.2632 -0.1245 -0.1799
 7313W        W44807  22.742  33.361   5.864 -0.0487 -0.0845 -0.3030
 7314W        W44808  24.982   4.013  15.298 -0.0645 -0.1654 -0.1253
 7315W        W44809  30.600  16.363  21.012  0.0322  0.1071 -0.0928
 7316W        W44810  19.282  22.359  25.444 -0.3017  0.0365  0.0377
 7317W        W44811  21.122   2.687  21.683  0.0416 -0.1517 -0.1910
 7318W        W44812  21.820  23.979  18.374  0.2651  0.1178  0.1826
 7319W        W44813   7.644  19.683  25.611  0.3509  0.0741  0.0687
 7320W        W44814  29.731   6.886  15.676 -0.0105  0.0774 -0.0568
 7321W        W44815  15.507   2.424  22.033  0.2122 -0.2596  0.0395
 7322W        W44816  12.071  24.530  13.090  0.0291 -0.2396  0.0146
 7323W        W44817   9.301   0.616  23.276 -0.0230 -0.1430  0.0097
 7324W        W44818  22.552   5.097  22.661 -0.1364  0.2152 -0.1730
 7325W        W44819  19.635  19.964   3.694  0.2322  0.3870 -0.2613
 7326W        W44820   3.245  26.559   3.308  0.0072 -0.4993 -0.0480
 7327W        W44821   8.762   6.068  13.696 -0.0590 -0.1685  0.3665
 7328W        W44822  20.426   3.398  24.950  0.0319 -0.2091 -0.1683
 7329W        W44823  25.768   3.516  17.524  0.2555 -0.0173 -0.3452
 7330W        W44824  10.575  17.541   8.631 -0.0863 -0.2218 -0.0948
 7331W        W44825   2.498   1.143   8.938 -0.1727 -0.2729 -0.2565
 7332W        W44826   4.958  24.722   3.773 -0.1918 -0.0373 -0.0407
 7333W        W44827  20.268  16.025  24.892  0.0346 -0.1619  0.2321
 7334W        W44828  30.447  29.965  14.808  0.0909  0.4443 -0.0472
 7335W        W44829   2.487   2.949  20.163 -0.1509  0.0826  0.0586
 7336W        W44830  23.604  16.300  19.830 -0.1253 -0.2470 -0.0571
 7337W        W44831   8.824   5.669  12.138 -0.0896  0.1710  0.3747
 7338W        W44832   8.182  11.815  24.907  0.2015 -0.1368 -0.2072
 7339W        W44833  30.634  32.400   0.024 -0.2724 -0.1610  0.2999
 7340W        W44834  13.707  29.929  14.878 -0.1148  0.0315 -0.4768
 7341W        W44835   1.044   5.891   1.932 -0.2484  0.4918 -0.1878
 7342W        W44836  15.075  11.306   5.409 -0.0375  0.2237  0.3477
 7343W        W44837  24.365   2.397   4.675 -0.1487  0.2927 -0.0845
 7344W        W44838  21.781   5.458   6.950  0.0543  0.1212 -0.0493
 7345W        W44839  25.350  12.113   1.609 -0.0640  0.1957 -0.3065
 7346W        W44840  27.999  18.470  21.536  0.0812  0.0231 -0.0541
 7347W        W44841  14.692   8.278  24.370  0.0764  0.0478  0.1185
 7348W        W44842   7.465  20.923  13.597  0.3134 -0.1998  0.1810
 7349W        W44843  23.755   5.272   4.944  0.0686  0.0313 -0.1820
 7350W        W44844  11.031   1.483  11.177  0.0745 -0.1106  0.1068
 7351W        W44845   2.895  21.924   2.599  0.0912 -0.0652 -0.1304
 7352W        W44846   2.769  25.696  21.711  0.0706  0.5669  0.0511
 7353W        W44847  19.124  24.520  11.253  0.2321 -0.0570 -0.0581
 7354W        W44848   1.586  30.198  25.142 -0.1145  0.0554 -0.1233
 7355W        W44849  26.222  27.069  14.405  0.2917  0.4642  0.1447
 7356W        W44850   1.375   0.618  19.665 -0.1700 -0.0952  0.2710
 7357W        W44851  28.743  17.190  18.956 -0.0162  0.0190  0.1439
 7358W        W44852  26.886  20.467   8.797 -0.0180  0.1004 -0.0955
 7359W        W44853  21.256  19.298   2.060 -0.1063 -0.1045  0.1284
 7360W        W44854  27.729  20.948  21.718  0.0869 -0.1075  0.2034
 7361W        W44855  30.240   9.199  17.153 -0.1041  0.3902 -0.0457
 7362W        W44856  24.271  24.352   1.945  0.0950  0.1718 -0.3062
 7363W        W44857   4.791   4.586   5.172  0.1664 -0.0042 -0.0766
 7364W        W44858   8.673  27.090   5.054 -0.0632  0.3987 -0.2269
 7365W        W44859  31.553  15.315  24.436  0.1749  0.1887 -0.0259
 7366W        W44860  29.709  12.357  14.594 -0.0435  0.1112 -0.1945
 7367W        W44861  29.362  12.260  15.706  0.2631  0.2118  0.0303
 7368W        W44862   5.459  19.592  25.978 -0.3113  0.0483 -0.4134
 7369W        W44863  12.990  23.972   8.378  0.2206 -0.0344 -0.1148
 7370W        W44864   2.820  18.224  12.197 -0.0983 -0.0438  0.1828
 7371W        W44865  32.980  18.482   5.579 -0.1693  0.0906 -0.0984
 7372W        W44866  16.538  23.123  12.158  0.0112  0.1269  0.1344
 7373W        W44867  13.586   0.546  11.815 -0.1522  0.0681 -0.0478
 7374W        W44868  29.450  18.762   7.657 -0.0392  0.2694 -0.1633
 7375W        W44869  14.570  32.583  24.590 -0.0051 -0.0054 -0.3765
 7376W        W44870  30.959  33.575  21.086 -0.0385 -0.1246  0.0593
 7377W        W44871  33.083  20.824  21.764  0.1623 -0.3108 -0.0139
 7378W        W44872  26.153   3.159   3.633 -0.0789  0.0257  0.0833
 7379W        W44873   5.025  27.429   1.379 -0.0941 -0.2213 -0.1840
 7380W        W44874   6.529  29.270  21.970  0.2477  0.0177  0.0976
 7381W        W44875  10.418  19.837  13.473 -0.0120 -0.0684  0.0855
 7382W        W44876  27.963  27.573  11.643  0.1018 -0.1331  0.1403
 7383W        W44877  16.115  26.870  14.782  0.0580 -0.2210 -0.3691
 7384W        W44878  24.006  18.132  19.422 -0.0601 -0.1517  0.0875
 7385W        W44879  11.707   7.559  12.838  0.0344  0.1639  0.0683
 7386W        W44880  31.677  16.968  25.442 -0.0845 -0.1198 -0.0277
 7387W        W44881  16.613  30.423   5.122  0.2362 -0.0836  0.1060
 7388W        W44882  26.931  29.288   2.853 -0.1060  0.1545  0.1659
 7389W        W44883   1.426  30.230   5.443 -0.0941  0.2641 -0.0388
 7390W        W44884  27.350  16.667  18.197 -0.1895  0.1341  0.0696
 7391W        W44885   9.213  33.992  13.933  0.0841 -0.2168  0.2935
 7392W        W44886  12.216  22.818   7.220 -0.1608 -0.1197  0.0361
 7393W        W44887  25.318   7.028  20.350  0.1383  0.1995 -0.2314
 7394W        W44888   9.454  31.981  10.355  0.2101 -0.1681 -0.1294
 7395W        W44889   0.741   8.715  18.859  0.0409  0.0068  0.1154
 7396W        W44890   0.949  14.307  24.484  0.1555  0.1766 -0.3611
 7397W        W44891  23.219  34.966  13.581 -0.0097 -0.2580 -0.0811
 7398W        W44892  28.063  24.975  15.831  0.0135 -0.1640  0.0374
 7399W        W44893  26.955  34.472  18.947 -0.1571 -0.0248  0.1536
 7400W        W44894  17.173  19.080   8.351  0.1115 -0.1109  0.1620
 7401W        W44895   8.414  20.724   6.951 -0.1116 -0.1489  0.0335
 7402W        W44896   2.585  26.191   0.074 -0.1020 -0.1166  0.0845
 7403W        W44897   8.586  18.126  10.121 -0.0423  0.0344  0.0988
 7404W        W44898  18.559  25.168  12.701 -0.1681  0.1564 -0.0292
 7405W        W44899  13.651  30.599   1.565 -0.4108 -0.4095 -0.1341
 7406W        W44900   9.674  31.370  13.058  0.0572  0.1226 -0.0952
 7407W        W44901   1.623   6.537  19.001 -0.2519  0.1105  0.0615
 7408W        W44902  10.860  22.971  23.668  0.0740 -0.1313  0.0207
 7409W        W44903  12.563  20.869  14.574 -0.0272 -0.1079 -0.3099
 7410W        W44904  29.042   0.313  17.044 -0.1384  0.0967 -0.1339
 7411W        W44905   9.072  31.215   5.370  0.0704  0.1140 -0.1255
 7412W        W44906   4.031  28.140   9.982  0.1472 -0.1396 -0.1165
 7413W        W44907  23.132  26.540  18.329 -0.1586 -0.2392 -0.0593
 7414W        W44908  22.917  14.195  14.017 -0.1612 -0.3062 -0.1115
 7415W        W44909   7.127  30.854  10.384 -0.1549 -0.0949 -0.0104
 7416W        W44910   4.857  27.188  14.391  0.2473  0.0454 -0.1213
 7417W        W44911  22.319   2.228  16.204  0.0910 -0.2981  0.2015
 7418W        W44912  35.357  18.743   9.756  0.1652  0.0908 -0.0076
 7419W        W44913  18.400  13.884   1.183  0.1036  0.0894  0.0435
 7420W        W44914  24.985  19.425  25.262  0.1500  0.0638  0.1067
 7421W        W44915   7.617  24.064   0.215 -0.2483  0.5177 -0.0009
 7422W        W44916  28.673  15.282  24.876  0.0468  0.4598  0.2286
 7423W        W44917  27.946  26.614  20.870  0.2203 -0.0570 -0.3056
 7424W        W44918   7.947  23.560   5.196 -0.0462  0.2848  0.1471
 7425W        W44919  34.527   9.434  17.747  0.3579 -0.0843 -0.0503
 7426W        W44920   6.531  10.190   6.066 -0.1338  0.2310 -0.0579
 7427W        W44921  32.501  31.153  13.059  0.1129  0.1959  0.1713
 7428W        W44922   0.723   5.516  19.541  0.0843 -0.2973 -0.1314
 7429W        W44923  10.103   5.346  19.294 -0.1389  0.2801  0.2909
 7430W        W44924  23.461  21.078  21.736  0.2194 -0.2145 -0.2168
 7431W        W44925  35.146  32.524  20.615 -0.0205  0.1189 -0.2962
 7432W        W44926  28.454  30.993  14.668  0.1878 -0.0777  0.1286
 7433W        W44927  31.911  23.219  25.995 -0.1663 -0.2310  0.0746
 7434W        W44928  34.371  26.191  13.873 -0.1038 -0.0150 -0.0111
 7435W        W44929   7.149  28.361   9.422  0.1505  0.2308  0.0300
 7436W        W44930  15.561  17.335  22.533 -0.0096 -0.1372  0.3891
 7437W        W44931  33.644   9.200  16.532 -0.1497  0.0731 -0.3306
 7438W        W44932  14.807  23.141  24.065 -0.0291  0.1496 -0.1966
 7439W        W44933   5.854  11.541   8.131  0.0764 -0.1637  0.1098
 7440W        W44934  17.041   6.540   6.853 -0.2803  0.3884  0.3647
 7441W        W44935  16.462  27.462  10.320  0.1307 -0.1057 -0.0579
 7442W        W44936   0.604  11.669  13.577 -0.2638  0.0808 -0.0664
 7443W        W44937  30.843  11.188  20.229  0.1174 -0.4089  0.5458
 7444W        W44938  29.111  19.756  18.290 -0.1282 -0.0100  0.0513
 7445W        W44939   9.369  14.238   8.230  0.3888 -0.1436 -0.2462
 7446W        W44940  26.404  15.084  15.726  0.0405 -0.0945  0.1206
 7447W        W44941  27.185   4.833   5.183  0.0060  0.4904  0.2251
 7448W        W44942  22.054  16.652  23.225 -0.3464  0.2702 -0.0322
 7449W        W44943   9.912  11.367  11.521  0.5050  0.2215  0.1607
 7450W        W44944  16.818  21.289  11.917 -0.5261  0.0929  0.2717
 7451W        W44945  28.756  25.062  11.682 -0.0490  0.1928  0.1278
 7452W        W44946  13.207   8.513  24.323  0.0519  0.1707  0.1293
 7453W        W44947  31.256  19.958  20.045  0.0328  0.0372  0.1061
 7454W        W44948  28.655  33.601  16.242  0.0123  0.3093 -0.0425
 7455W        W44949  34.959   5.364  17.753  0.1234  0.2837  0.2259
 7456W        W44950   8.417   5.420   2.291  0.0183 -0.1876 -0.1318
 7457W        W44951  21.751  32.630  12.257  0.1152  0.3345 -0.0674
 7458W        W44952  16.376  25.577   5.943  0.0642  0.1103 -0.0966
 7459W        W44953  28.265  23.300  14.796  0.2973  0.0984 -0.0238
 7460W        W44954  21.029  33.551  24.735 -0.2396  0.1324 -0.0718
 7461W        W44955   8.972  24.151   1.348 -0.1420 -0.1658 -0.0998
 7462W        W44956  34.383   5.502   1.460 -0.3723 -0.1318  0.1750
 7463W        W44957  19.856  34.985  22.890  0.3625 -0.0136 -0.0377
 7464W        W44958   7.021   8.623   7.714 -0.0152  0.2816  0.3544
 7465W        W44959  14.014  18.815  23.825  0.1967 -0.1393 -0.1780
 7466W        W44960  11.861  32.840   6.433 -0.1559 -0.1808 -0.2414
 7467W        W44961   5.391  28.976  10.766 -0.0356 -0.2206  0.0526
 7468W        W44962  21.600  12.595   5.603 -0.0607  0.0872 -0.1218
 7469W        W44963   9.448  10.048   1.638  0.0266  0.0717  0.2215
 7470W        W44964  34.163  35.073  21.606  0.1415  0.0564 -0.2875
 7471W        W44965  26.331  16.803   9.319  0.1321 -0.1485 -0.1418
 7472W        W44966   6.416  20.317   7.374 -0.1495  0.0414  0.0746
 7473W        W44967  16.109   0.635  22.322  0.0928 -0.0329 -0.1254
 7474W        W44968   2.025   5.284   3.989 -0.1090  0.0249  0.1575
 7475W        W44969   8.204   6.127  12.642  0.0637 -0.0209  0.2778
 7476W        W44970  16.652  34.985   2.923  0.0230  0.1717 -0.1775
 7477W        W44971   4.616  31.965  20.604  0.1105 -0.0076 -0.0027
 7478W        W44972  19.853  29.237   7.858  0.1710 -0.0333 -0.0558
 7479W        W44973  27.323   9.344  23.456  0.0615  0.2217  0.2836
 7480W        W44974  22.976  23.476   3.547  0.0717 -0.1733  0.0505
 7481W        W44975  28.822  24.613   8.704  0.0655 -0.3880 -0.2735
 7482W        W44976  29.563   5.491   3.873 -0.2819  0.0067  0.0779
 7483W        W44977  28.931  24.654  13.279  0.1376 -0.1212 -0.1819
 7484W        W44978  12.194  14.540  18.943 -0.1831 -0.0238  0.0061
 7485W        W44979  11.695  19.161   1.256 -0.1617  0.3628 -0.1568
 7486W        W44980  18.013  29.898  21.184  0.0529  0.1521 -0.0331
 7487W        W44981  29.337   7.040   1.196 -0.2657  0.4299 -0.1178
 7488W        W44982  30.556   1.121  24.962 -0.2117 -0.1152 -0.1169
 7489W        W44983  26.028   6.373  12.531  0.0631 -0.1729  0.0308
 7490W        W44984  34.176  27.481  22.652  0.4650  0.0211  0.0429
 7491W        W44985  19.683   8.480   9.796  0.2556 -0.1653  0.1345
 7492W        W44986   3.954  12.210   1.376  0.0240 -0.1281 -0.0474
 7493W        W44987   9.993  23.053  23.971  0.1123 -0.0854 -0.2005
 7494W        W44988  33.133  16.116  14.802 -0.2801 -0.3240 -0.2044
 7495W        W44989  11.160  21.315  15.835 -0.3616 -0.2220 -0.0318
 7496W        W44990  34.392  32.093   5.102 -0.1812 -0.2118  0.0877
 7497W        W44991  28.004  21.372  14.855 -0.1307  0.3930  0.1068
 7498W        W44992  27.641  32.841  11.414  0.0856  0.1983  0.1046
 7499W        W44993  18.160   1.148  19.934 -0.1667 -0.0524 -0.4033
 7500W        W44994  33.127   4.449   5.225 -0.3266  0.1137 -0.0489
 7501W        W44995  15.128  31.234  14.539 -0.2506  0.0307 -0.0156
 7502W        W44996  25.906  31.023   1.749 -0.1208  0.2712  0.2210
 7503W        W44997   7.660  27.574   5.719 -0.0784  0.3221 -0.1439
 7504W        W44998   1.835   9.076  17.600  0.0719 -0.0979 -0.2191
 7505W        W44999  19.283   0.407   1.945  0.2037  0.1824  0.0366
 7506W        W45000   3.718  31.618  20.995  0.0075 -0.3408 -0.0736
 7507W        W45001   3.708  33.801  25.997 -0.0038 -0.1143  0.2434
 7508W        W45002  21.113   4.344  25.036 -0.1790  0.2801 -0.2739
 7509W        W45003  10.664  11.941  11.452  0.0244 -0.0046  0.3273
 7510W        W45004  28.332   3.956  10.831 -0.2797  0.1106  0.2257
 7511W        W45005   4.191   1.504   3.605 -0.0298 -0.0619  0.1200
 7512W        W45006   3.102  18.843   0.343  0.1318  0.2143 -0.0593
 7513W        W45007  31.743  26.827  25.519  0.2750  0.0972  0.1001
 7514W        W45008   3.164  27.590  21.488 -0.1255  0.0512  0.5159
 7515W        W45009   9.092   6.743   8.037 -0.0475  0.1050 -0.1814
 7516W        W45010  20.311   5.001  17.616 -0.4777  0.3219  0.2095
 7517W        W45011   6.468  11.160  17.973  0.0822  0.2536  0.0940
 7518W        W45012   6.043   7.792   6.355  0.0445 -0.0255 -0.0014
 7519W        W45013  32.145  13.449  20.226  0.0337  0.2339  0.0664
 7520W        W45014  29.674  24.849  24.597 -0.1049  0.0855  0.1720
 7521W        W45015  13.649  34.503  23.213 -0.1144  0.0302  0.1350
 7522W        W45016  23.890  19.795  23.934 -0.0541  0.0896 -0.1800
 7523W        W45017   3.700  27.824   8.278 -0.2352 -0.0129  0.0562
 7524W        W45018   3.452  18.080  14.816 -0.0124 -0.0491  0.0916
 7525W        W45019  18.116  18.096   5.352 -0.0945  0.1031 -0.2125
 7526W        W45020  22.897  32.216  21.352  0.0600 -0.2405  0.1221
 7527W        W45021  13.523  14.554  20.457  0.0168  0.0089  0.1401
 7528W        W45022   7.688  33.695  25.323 -0.0723  0.0175  0.2004
 7529W        W45023  13.856  19.408  13.083  0.0826 -0.0090 -0.2342
 7530W        W45024  22.960  15.205  25.829 -0.0567  0.1508 -0.2929
 7531W        W45025  13.174  21.328  14.200  0.0781 -0.0657  0.1336
 7532W        W45026   1.136  17.634   0.142 -0.5285  0.0135  0.1405
 7533W        W45027  12.492  23.184  25.952 -0.1026  0.2362  0.0761
 7534W        W45028  31.224  10.881  21.568  0.2866  0.0016 -0.0331
 7535W        W45029  23.962   5.477   4.486  0.0452  0.1253  0.2788
 7536W        W45030   6.969  34.613  10.742  0.1278 -0.0287  0.5633
 7537W        W45031  18.387  34.411   4.148  0.3049  0.3275 -0.0135
 7538W        W45032   7.374   6.033  22.177 -0.3948 -0.3860 -0.1767
 7539W        W45033   6.535  33.278  11.816  0.1701 -0.1147  0.0433
 7540W        W45034   0.213   1.690   6.690  0.0883 -0.0139 -0.1819
 7541W        W45035  14.941   3.643  11.310 -0.0053 -0.1616  0.0246
 7542W        W45036  21.443   0.874  15.304  0.2577 -0.2624  0.1127
 7543W        W45037  27.033  16.961  25.023  0.0098  0.2805 -0.2494
 7544W        W45038   0.800   4.931  20.709  0.1202 -0.0089 -0.0895
 7545W        W45039  19.505   4.356  25.678 -0.1039 -0.0893 -0.0275
 7546W        W45040  10.533  24.556  14.742  0.0228 -0.0678  0.3270
 7547W        W45041  18.447  13.430   5.384  0.4485 -0.2698 -0.2204
 7548W        W45042   2.063  12.160  14.889 -0.0123 -0.1205 -0.0054
 7549W        W45043   8.607  32.628   6.676  0.0916  0.0791  0.0554
 7550W        W45044   5.376  28.699  20.676  0.1159  0.1797  0.1309
 7551W        W45045  25.723  23.366  22.690 -0.0820  0.1250  0.1336
 7552W        W45046  31.422  25.959  16.157 -0.0807  0.0162 -0.1678
 7553W        W45047  31.082   7.734   0.815  0.3580 -0.3617  0.5524
 7554W        W45048  32.562  35.318   1.474  0.0940  0.2270 -0.2294
 7555W        W45049  25.245  27.541   3.332 -0.0187  0.0593  0.1848
 7556W        W45050  34.263  19.392   0.685  0.2300 -0.0903  0.0636
 7557W        W45051  17.754  34.670  24.419 -0.2599  0.0612 -0.0309
 7558W        W45052  21.299  12.514  19.178 -0.3554 -0.1643  0.1047
 7559W        W45053  29.508  12.930   0.336 -0.0724  0.1643 -0.2800
 7560W        W45054   1.987   0.704  17.112 -0.2227  0.0840 -0.0766
 7561W        W45055  34.749   7.716  25.174  0.1887 -0.0661 -0.0475
 7562W        W45056  24.571   4.964  15.145  0.0284  0.0883  0.3055
 7563W        W45057   7.710  21.286   4.574  0.0529 -0.0348 -0.0873
 7564W        W45058  31.597  33.900  14.765  0.0894 -0.3007 -0.0722
 7565W        W45059  29.491  15.986  19.389 -0.0603  0.0240 -0.4084
 7566W        W45060   9.084  28.295   1.848  0.3717 -0.1255 -0.2107
 7567W        W45061  15.690   9.223   6.412  0.0340 -0.2699  0.0345
 7568W        W45062   4.952  31.356   6.926  0.0810  0.1293  0.1422
 7569W        W45063   7.334  34.403  11.609  0.0715  0.1369  0.0173
 7570W        W45064  26.455  17.134  15.222 -0.0752 -0.3216  0.0653
 7571W        W45065   6.438  16.441   1.617  0.0541 -0.1117  0.1636
 7572W        W45066   1.591  33.791   0.955 -0.1495  0.4356 -0.1681
 7573W        W45067  20.225  27.490  18.511  0.3646  0.4219 -0.1268
 7574W        W45068   3.255  18.639   2.206  0.1188 -0.1333 -0.1303
 7575W        W45069  30.007  27.553   0.602  0.0682 -0.3083  0.3463
 7576W        W45070   4.196  31.532   2.298 -0.0633  0.0174 -0.0776
 7577W        W45071   2.639  29.957   9.959  0.1456  0.1482 -0.0580
 7578W        W45072  25.665  20.275  23.649 -0.1760  0.1445  0.4168
 7579W        W45073  29.161  17.587   4.180 -0.1744  0.0305 -0.3473
 7580W        W45074  25.337   1.846  24.176 -0.2585 -0.2764 -0.0542
 7581W        W45075   2.413   9.660  19.379  0.2237  0.1370  0.0361
 7582W        W45076  27.083   1.488  12.002 -0.2995 -0.2137 -0.2564
 7583W        W45077  33.410  11.277   7.920 -0.3261 -0.0037 -0.2034
 7584W        W45078  19.166  15.164  25.254  0.1411 -0.0453  0.1192
 7585W        W45079   0.986  28.548  21.762 -0.1002  0.0557 -0.0211
 7586W        W45080  17.132  27.594   6.394 -0.0908 -0.0780 -0.0472
 7587W        W45081   5.844  15.410   9.781 -0.0319  0.1987  0.0045
 7588W        W45082  30.608  13.593  25.521  0.1157  0.0086  0.3263
 7589W        W45083  15.694  31.091  21.433 -0.2543 -0.2996  0.0028
 7590W        W45084   4.721  16.947   1.628  0.1288  0.4150 -0.1023
 7591W        W45085   8.870  34.035   5.352  0.0933 -0.3160 -0.2449
 7592W        W45086  20.403  34.733  14.856 -0.0757 -0.1579  0.3377
 7593W        W45087   9.659   7.171   9.552  0.1073  0.1213 -0.3341
 7594W        W45088  33.894   9.415  23.318  0.2044 -0.2504 -0.1033
 7595W        W45089   1.995  14.591  22.888  0.0292 -0.0850 -0.2800
 7596W        W45090  26.354  22.474  12.231  0.1633  0.0897  0.1369
 7597W        W45091  23.247  23.015  20.432  0.2194 -0.0825 -0.1125
 7598W        W45092  23.556  29.035   4.164 -0.0335 -0.0334  0.0937
 7599W        W45093  12.857  24.336   0.413 -0.0020 -0.4727 -0.0053
 7600W        W45094   9.184   9.043   5.948  0.1372 -0.1478  0.1622
 7601W        W45095  21.532  17.503  17.612 -0.0396  0.1574  0.0942
 7602W        W45096   5.702   5.648   0.028 -0.0734 -0.4137 -0.1010
 7603W        W45097   5.367  18.221   0.875 -0.0509 -0.1712 -0.0164
 7604W        W45098  30.390  32.677  18.303 -0.1551  0.2336 -0.3214
 7605W        W45099  17.343  34.314  25.828 -0.1035 -0.0570 -0.4257
 7606W        W45100  17.447  30.125   0.849 -0.1131  0.2687 -0.1718
 7607W        W45101  29.985   6.263   3.549 -0.1260  0.3014 -0.2161
 7608W        W45102   9.445   5.371  12.490  0.0618  0.1055 -0.1615
 7609W        W45103   7.021   2.625   9.688 -0.1868  0.0487 -0.0350
 7610W        W45104   2.933  12.536   0.449 -0.1262  0.4211  0.0610
 7611W        W45105  22.719  29.239  15.018  0.0917 -0.0494  0.1000
 7612W        W45106   5.014  27.378  26.134  0.2322 -0.1835  0.1104
 7613W        W45107  24.873  32.951  21.625  0.4240  0.2939 -0.0974
 7614W        W45108  27.129  15.091  25.270 -0.0953 -0.2123 -0.1014
 7615W        W45109  28.592  27.393   2.564 -0.1657 -0.0711 -0.3119
 7616W        W45110  17.035  17.281   9.391 -0.1778  0.1660 -0.2056
 7617W        W45111  24.682   5.296   2.596  0.1828 -0.0010 -0.0377
 7618W        W45112  10.699  10.022   0.020  0.0238  0.0036 -0.1607
 7619W        W45113  12.553  14.857  19.274 -0.1380  0.3248 -0.1699
 7620W        W45114  22.529  33.555  16.932  0.3220  0.0508 -0.2074
 7621W        W45115   3.059  12.325  20.018  0.1103 -0.0708  0.0093
 7622W        W45116   3.567  31.406  19.228  0.0306  0.0075  0.0160
 7623W        W45117  14.250  11.114  11.799 -0.1461  0.1953 -0.1073
 7624W        W45118  14.971  11.523  11.500 -0.3783  0.1868 -0.2897
 7625W        W45119  20.952   8.893  18.892 -0.2510  0.3279  0.4745
 7626W        W45120   3.101  31.217  19.379  0.0607 -0.0331 -0.2350
 7627W        W45121  11.470  23.292  14.317  0.0321 -0.0283  0.3287
 7628W        W45122  15.629  18.729   6.797  0.0258 -0.2747  0.0291
 7629W        W45123   0.035  26.758  20.801 -0.0953 -0.0401  0.1883
 7630W        W45124  15.915  31.701  20.835 -0.2554 -0.0505  0.1530
 7631W        W45125  30.725  34.858  26.224 -0.0871  0.3979  0.4749
 7632W        W45126  16.493  28.756   7.716 -0.1801  0.1214 -0.1955
 7633W        W45127   9.917  10.869  14.235 -0.4308 -0.0991 -0.1657
 7634W        W45128  29.741  35.125   5.218 -0.1649  0.4367  0.1676
 7635W        W45129   1.367   3.416  22.855 -0.2648  0.1453 -0.0152
 7636W        W45130   9.744   5.377  21.546 -0.1525 -0.0485  0.0120
 7637W        W45131  19.889  27.464   0.306 -0.2729 -0.3388 -0.1851
 7638W        W45132  25.071  18.880  25.098 -0.2122 -0.2685  0.0328
 7639W        W45133  21.033  27.270  18.900  0.0397 -0.1158 -0.2215
 7640W        W45134   9.379  32.943  22.993  0.0764 -0.0170 -0.0460
 7641W        W45135  12.769  28.673   3.293 -0.0202 -0.4374 -0.0250
 7642W        W45136   0.597  15.209  19.389 -0.1006  0.5058  0.1550
 7643W        W45137  19.584  27.033   8.622 -0.2391 -0.3584 -0.0232
 7644W        W45138  13.041  22.035   2.016 -0.2276  0.1783 -0.0175
 7645W        W45139  21.943  27.086  21.609 -0.0115  0.1143  0.0710
 7646W        W45140  14.181  13.559   8.534  0.0542  0.0948  0.0834
 7647W        W45141   5.634  15.092  20.144 -0.0770  0.0670  0.0957
 7648W        W45142  12.094  27.587   1.081 -0.2127 -0.1048  0.1463
 7649W        W45143  19.156  15.613  10.018  0.4179 -0.1344  0.0817
 7650W        W45144  17.457   4.098   3.765  0.2653 -0.0037 -0.0283
 7651W        W45145   9.639  10.567   4.956  0.0500 -0.0980  0.1240
 7652W        W45146  11.023   1.648  13.196  0.1758 -0.0354 -0.3480
 7653W        W45147   2.171  29.181  19.576  0.3081 -0.1046  0.1314
 7654W        W45148  27.129  23.747  14.340  0.2727  0.1184 -0.0472
 7655W        W45149  25.208  32.712  21.308  0.2436  0.2667  0.0675
 7656W        W45150   9.443  20.379  24.991  0.3413 -0.1570 -0.0616
 7657W        W45151  32.865  17.505  14.744  0.1573  0.1169  0.0486
 7658W        W45152   9.370  34.008  25.863 -0.0300 -0.2045 -0.4101
 7659W        W45153  15.682  16.802  22.640 -0.2339 -0.1407  0.0317
 7660W        W45154   0.607   1.782  23.913  0.2084 -0.0457 -0.0923
 7661W        W45155  30.221  12.374   6.655  0.1129  0.0577  0.0246
 7662W        W45156  15.607  10.822  24.083  0.0131  0.1817  0.1953
 7663W        W45157   0.436   3.787  20.624 -0.4235 -0.0947 -0.2587
 7664W        W45158  22.057   7.671   4.139 -0.3488 -0.0347  0.3065
 7665W        W45159  15.477   9.418  13.813 -0.0297 -0.0747  0.1228
 7666W        W45160  19.520   5.491  17.420  0.0271 -0.1619 -0.0754
 7667W        W45161   6.663  29.050  14.354  0.3116  0.1310  0.2184
 7668W        W45162  34.671  27.320  15.269 -0.1082 -0.0463 -0.0390
 7669W        W45163   7.449  21.487  23.876 -0.1155  0.1330 -0.1226
 7670W        W45164   4.330  30.702  25.007  0.0916 -0.0708  0.0332
 7671W        W45165  34.534  23.777   9.374 -0.1421  0.3631 -0.1803
 7672W        W45166  16.383   5.972   7.852 -0.0520  0.4107 -0.2283
 7673W        W45167  34.850  12.484  25.893  0.1187 -0.0243  0.1367
 7674W        W45168  15.280  12.649   7.638 -0.0677  0.1672 -0.2244
 7675W        W45169   8.170  34.504   8.997  0.0104 -0.3438  0.0489
 7676W        W45170   4.846  28.119  14.653  0.2427  0.2190  0.3117
 7677W        W45171   7.182  10.818  10.670  0.0885  0.1274 -0.0732
 7678W        W45172  30.054  27.644  21.779  0.0017  0.3640 -0.3631
 7679W        W45173  28.496  18.083  14.988 -0.1604  0.0969 -0.2699
 7680W        W45174  20.403   7.552  10.712  0.0211  0.3246  0.1728
 7681W        W45175   7.096  27.327   9.836  0.0493  0.2639  0.2583
 7682W        W45176  21.866  28.270  14.615  0.0203  0.2156  0.1848
 7683W        W45177  15.137   0.924   2.996 -0.0781  0.3755  0.1653
 7684W        W45178  18.925  18.619   1.077 -0.0267 -0.0588  0.4491
 7685W        W45179   7.961   4.439  11.215 -0.2659 -0.2237 -0.2679
 7686W        W45180  32.208  35.208  20.071  0.3431  0.1856  0.0935
 7687W        W45181  10.622   3.893  19.404 -0.3746 -0.0779 -0.2570
 7688W        W45182   3.560   3.859   8.270 -0.0221 -0.4816  0.0645
 7689W        W45183  13.252   0.280  19.740  0.1479  0.0165 -0.0749
 7690W        W45184  27.300  11.290   9.208 -0.0560  0.0905  0.0023
 7691W        W45185  35.303  32.534   1.810 -0.1542  0.3739  0.4302
 7692W        W45186  34.181   8.374  11.837 -0.0249 -0.0380 -0.1970
 7693W        W45187   7.629  11.420  11.863  0.2368 -0.3909  0.0398
 7694W        W45188   6.907  26.968  11.694 -0.1384  0.4951 -0.0564
 7695W        W45189  27.593  28.489  23.750  0.2756 -0.1338  0.0074
 7696W        W45190  15.838  12.223  19.563 -0.0272 -0.0667 -0.2633
 7697W        W45191  29.959  26.365  13.298  0.0591  0.2389 -0.1701
 7698W        W45192   3.108   2.562   6.579  0.2190 -0.0243 -0.2895
 7699W        W45193  10.061  30.030   4.380 -0.0791 -0.2428 -0.0634
 7700W        W45194  20.342  33.646   5.092 -0.0317 -0.0323 -0.0653
 7701W        W45195   6.473   2.213  13.272  0.2640  0.0940  0.2259
 7702W        W45196  16.047  19.409  25.757 -0.0831  0.1758  0.1650
 7703W        W45197  25.341  27.220  19.779  0.1648 -0.0330  0.2236
 7704W        W45198  32.968  12.822   1.152  0.2424  0.1179  0.0927
 7705W        W45199  23.550  17.479  22.091 -0.1652  0.0146  0.0722
 7706W        W45200  10.557   7.774  12.875 -0.0022  0.0886  0.1138
 7707W        W45201   5.424   0.303  24.264  0.0762 -0.0714 -0.1085
 7708W        W45202  31.606   4.576  20.217  0.1951  0.1629  0.0259
 7709W        W45203   1.734  29.340  21.770  0.2638  0.1716  0.2723
 7710W        W45204  32.335   1.344  17.528  0.0351 -0.0508  0.0906
 7711W        W45205  32.361   2.814  20.570  0.3849 -0.1707 -0.1516
 7712W        W45206  27.197  17.098   5.171  0.1849 -0.3761 -0.0136
 7713W        W45207  16.658  13.719   0.336 -0.1321  0.0755  0.1787
 7714W        W45208  25.584  14.170  11.245 -0.0344  0.2106  0.1420
 7715W        W45209   9.082  33.592   2.068  0.2863 -0.0583  0.2732
 7716W        W45210  26.815  29.441  15.036 -0.1984  0.1435 -0.0468
 7717W        W45211  18.074  26.659   0.653 -0.3199 -0.0028  0.1247
 7718W        W45212  14.294  21.580   6.913 -0.0771 -0.4339 -0.1488
 7719W        W45213  28.381  12.328  23.653 -0.2990  0.0438 -0.0308
 7720W        W45214  15.533  28.922   5.276  0.1850  0.0934 -0.0393
 7721W        W45215   9.096   7.034   2.639  0.0292  0.0476  0.2107
 7722W        W45216  14.525  16.548  22.417 -0.1202  0.1018  0.1642
 7723W        W45217   3.416  15.243  21.644 -0.1748  0.2152 -0.1106
 7724W        W45218   2.812  12.674   1.753  0.0432 -0.0668  0.6139
 7725W        W45219  30.225   4.170  25.303  0.0505 -0.3168 -0.1748
 7726W        W45220  15.376  11.897  12.910  0.0724 -0.1719 -0.1747
 7727W        W45221   0.273  12.700  14.684  0.1377 -0.1907  0.2411
 7728W        W45222  17.315  16.688   2.256  0.1678  0.4301 -0.0106
 7729W        W45223   9.254  30.165  14.288  0.0467  0.2071 -0.0708
 7730W        W45224  21.491  29.845  25.111  0.0352  0.0129 -0.1500
 7731W        W45225  17.612  30.160  10.890 -0.0822  0.1305 -0.0346
 7732W        W45226  18.592  32.954   2.891 -0.2817 -0.0850  0.1700
 7733W        W45227  16.936   1.701   8.764  0.3146 -0.0749 -0.0482
 7734W        W45228  30.892  27.351  10.111  0.0470 -0.4100 -0.2028
 7735W        W45229  13.377   7.315   4.452  0.0943 -0.0731 -0.0207
 7736W        W45230  28.824  28.065  13.437  0.1057 -0.1740  0.1564
 7737W        W45231   3.610  26.501   3.628 -0.1431  0.1319  0.0914
 7738W        W45232  27.748  32.840  25.875 -0.0849 -0.0234  0.0950
 7739W        W45233  14.220   2.131   8.618 -0.2251  0.0326  0.0124
 7740W        W45234   3.573  31.386   8.927 -0.0429 -0.4725  0.2757
 7741W        W45235  24.198  34.300  11.486  0.3141 -0.0107 -0.0562
 7742W        W45236  32.930  34.032  22.694  0.2244  0.3242  0.0603
 7743W        W45237   7.764  31.055  23.544  0.0197  0.1189 -0.3059
 7744W        W45238   0.160  27.131   6.876 -0.0833 -0.1164  0.1187
 7745W        W45239  18.334  11.161  26.042 -0.0808 -0.1654  0.3568
 7746W        W45240  12.133  23.090  25.336  0.3359  0.0623 -0.1325
 7747W        W45241  19.957  33.262   4.342  0.1513  0.2546 -0.1910
 7748W        W45242  30.751  15.505  19.489  0.1438 -0.2542  0.2605
 7749W        W45243   5.689  25.340   5.616 -0.2645  0.0611  0.1510
 7750W        W45244   8.717  27.882  21.906  0.0966  0.0320 -0.3313
 7751W        W45245  27.917  19.438   4.834  0.0929 -0.0861 -0.0621
 7752W        W45246  22.601  18.494  19.507 -0.2284  0.0766 -0.3255
 7753W        W45247   0.316  10.903  21.902  0.0972  0.1626  0.0460
 7754W        W45248  11.147  13.367  10.858  0.5542  0.0934  0.2062
 7755W        W45249  29.926  12.257   9.896  0.1243 -0.0378  0.0613
 7756W        W45250  17.380  11.535   7.634  0.0109  0.3207  0.2365
 7757W        W45251   0.466  26.469  22.855 -0.1757  0.3794  0.3757
 7758W        W45252  20.458   2.505  23.501 -0.1922 -0.1749  0.2439
 7759W        W45253   0.294  32.368  23.261  0.1037  0.1965 -0.0476
 7760W        W45254   4.188   1.456   5.072 -0.2981  0.1267  0.2241
 7761W        W45255   9.127  24.433  24.680  0.0326  0.0129 -0.0814
 7762W        W45256  30.636  20.443  25.480 -0.4386  0.0562 -0.2220
 7763W        W45257   9.021   2.933  25.643  0.2845 -0.5302 -0.2811
 7764W        W45258  31.741  14.513  15.811 -0.0636 -0.1871 -0.3623
 7765W        W45259  34.886   4.963  24.930 -0.2768  0.2667 -0.3102
 7766W        W45260  13.306  27.698  13.863 -0.0068  0.0849 -0.4801
 7767W        W45261  11.605  12.828   8.547 -0.0250 -0.0429  0.0620
 7768W        W45262  34.730  23.429   0.489  0.4873 -0.0040  0.0629
 7769W        W45263   2.162  25.943  24.804 -0.2203  0.1124  0.2990
 7770W        W45264  14.062  32.264  22.554  0.0657 -0.1441 -0.0468
 7771W        W45265  32.007  19.726  17.527 -0.2564  0.2667  0.1457
 7772W        W45266   6.035  15.890  21.291  0.3019 -0.2994 -0.1248
 7773W        W45267   5.288   3.189  23.890  0.3061  0.1461 -0.2732
 7774W        W45268  15.272  29.473   4.894 -0.2461  0.2920  0.1657
 7775W        W45269  14.635   8.461   2.895 -0.1078 -0.0162  0.3082
 7776W        W45270   7.260  14.675  25.773  0.2354 -0.1269  0.1133
 7777W        W45271   8.827   8.828  12.141  0.0811 -0.0037 -0.2590
 7778W        W45272  20.827  22.510   2.654 -0.1571 -0.0210  0.0762
 7779W        W45273  24.461  32.880  19.405 -0.1846 -0.0299 -0.0255
 7780W        W45274  10.205  32.686   9.209 -0.2797 -0.0664 -0.1426
 7781W        W45275   3.248  23.622  23.599 -0.0245 -0.1041 -0.0210
 7782W        W45276  27.571  24.588  24.130  0.0610  0.1472 -0.0996
 7783W        W45277   4.598   3.006   5.410 -0.2445 -0.0027 -0.1190
 7784W        W45278  18.013  31.986  19.027  0.3987  0.1520 -0.3403
 7785W        W45279  29.164  21.092  12.177 -0.3042 -0.3989  0.1002
 7786W        W45280  15.826  26.438  14.793 -0.0152 -0.1950 -0.2792
 7787W        W45281  25.002  14.201   0.672 -0.1641 -0.0500  0.0728
 7788W        W45282   5.969   5.358   7.775 -0.0312 -0.0574 -0.0102
 7789W        W45283  28.157  35.148  11.880 -0.0749 -0.0420  0.0720
 7790W        W45284  20.861  31.393  19.479  0.1486 -0.0087  0.1582
 7791W        W45285  13.740  19.594  24.170  0.1387  0.3989  0.0983
 7792W        W45286   7.601  15.147  12.449 -0.1030  0.1655  0.0377
 7793W        W45287   3.272  19.649  13.911 -0.1016  0.1376 -0.1423
 7794W        W45288  29.338  34.354  19.313 -0.1858 -0.0407 -0.0269
 7795W        W45289  11.040   1.428  12.771  0.1283 -0.0810 -0.1683
 7796W        W45290  12.505  11.863  25.362  0.0915  0.1857 -0.1046
 7797W        W45291  18.219   7.640  22.718  0.0610  0.1910 -0.0028
 7798W        W45292   1.151  13.372  14.744  0.3919  0.2003 -0.1474
 7799W        W45293  28.196  20.049  11.085 -0.0892 -0.2497  0.3289
 7800W        W45294  34.353  17.056   5.765  0.1402  0.0405  0.0712
 7801W        W45295  28.466  23.910  13.186  0.2158  0.0587  0.0702
 7802W        W45296  19.104  13.608  19.237 -0.1627 -0.4814  0.4968
 7803W        W45297  14.314   3.279  24.812  0.0972 -0.1749  0.0152
 7804W        W45298   8.257  27.008  25.244 -0.2967  0.0362 -0.1245
 7805W        W45299   0.168  31.767   2.716  0.1878  0.2452  0.1516
 7806W        W45300  28.439  13.582   9.131  0.0169  0.1913 -0.1306
 7807W        W45301   3.438  31.113  23.082 -0.1296 -0.0751  0.1722
 7808W        W45302  14.064  18.054  23.854  0.0034  0.0825 -0.1287
 7809W        W45303   2.137  34.238   0.626  0.0228  0.2831 -0.2145
 7810W        W45304  24.748  23.556  13.154 -0.0575 -0.1245 -0.0760
 7811W        W45305  33.424  28.416   2.380  0.0966  0.2876  0.0224
 7812W        W45306  12.716  14.716  22.127  0.1317  0.2285  0.1825
 7813W        W45307  31.085  33.061  12.135 -0.3575  0.0718  0.1674
 7814W        W45308  27.254  34.456   6.348 -0.0606  0.0641 -0.1293
 7815W        W45309   5.415   9.057  25.200 -0.0889 -0.0125 -0.0277
 7816W        W45310  16.300  12.433  19.622  0.0635  0.0763  0.3594
 7817W        W45311  14.933  32.351   1.519  0.0840 -0.0393 -0.0904
 7818W        W45312   1.850  16.687   0.401  0.1964  0.2075 -0.2426
 7819W        W45313  11.547  21.459  15.345  0.0830  0.2642  0.0423
 7820W        W45314  25.756   6.449   0.477 -0.1588  0.1183  0.3912
 7821W        W45315  29.800  19.091   8.653 -0.0251  0.3018 -0.3476
 7822W        W45316   9.489  28.851  13.483  0.1973  0.3396  0.0592
 7823W        W45317   5.326  28.663   8.766  0.0147 -0.2621  0.3807
 7824W        W45318  13.236  18.403   9.281 -0.1034  0.3605  0.2281
 7825W        W45319  14.799  31.825  12.377 -0.0142  0.1743  0.2450
 7826W        W45320  32.714  35.233  24.198  0.2872  0.1705 -0.0407
 7827W        W45321  15.587  18.328  11.301 -0.0888  0.0073 -0.3902
 7828W        W45322  15.516  28.117  21.356  0.2074 -0.1286  0.0546
 7829W        W45323  26.622  32.032  18.929 -0.1574  0.0467 -0.0254
 7830W        W45324  14.659  17.070   5.822 -0.0141  0.3422 -0.1846
 7831W        W45325  19.660  16.182   2.152  0.0290 -0.2038  0.0752
 7832W        W45326  21.131  10.558   5.590 -0.2768 -0.2414  0.0488
 7833W        W45327   7.407  19.355   5.853 -0.0704 -0.2653  0.1632
 7834W        W45328   7.321  16.471   3.685  0.1370  0.1996  0.2209
 7835W        W45329  27.103  26.420   2.166  0.4881  0.1196  0.3343
 7836W        W45330  27.608  22.552  15.716 -0.1287  0.0870 -0.1550
 7837W        W45331  12.835  10.315  20.427 -0.0044  0.0614  0.1158
 7838W        W45332   6.854   6.418  10.807 -0.0430  0.1346  0.0675
 7839W        W45333  10.617  18.136   2.582  0.1745 -0.1129  0.1459
 7840W        W45334   6.980   7.947  10.114  0.0008  0.1119  0.3186
 7841W        W45335  15.252   4.840  10.072 -0.1396  0.1998 -0.1410
 7842W        W45336   1.285  29.307   3.796  0.0903 -0.2337 -0.0328
 7843W        W45337  26.801   2.304  15.688 -0.0871  0.0111 -0.3010
 7844W        W45338   1.821   6.145  25.229 -0.1332 -0.2603 -0.0249
 7845W        W45339  23.474  18.344  22.814  0.0610 -0.0576  0.0742
 7846W        W45340   8.205  32.717   1.339  0.1565  0.1213  0.2411
 7847W        W45341  18.869  17.144  10.175 -0.0112  0.1377  0.1955
 7848W        W45342  13.628  23.362  13.208  0.0790  0.1858 -0.2825
 7849W        W45343  29.614  11.113  19.979 -0.1148 -0.1276 -0.3583
 7850W        W45344  26.239   4.943  11.318 -0.0887 -0.0720 -0.1763
 7851W        W45345  11.247  10.442  21.448 -0.0271  0.0181  0.4562
 7852W        W45346  29.744   7.795  24.082  0.5334  0.1232 -0.0444
 7853W        W45347   7.553  32.499  25.657  0.0853 -0.0814 -0.1824
 7854W        W45348   1.054  12.192   2.326 -0.2619  0.0103  0.4667
 7855W        W45349  32.944  26.305  12.931  0.3269  0.5722 -0.1086
 7856W        W45350  22.385  30.504  17.617 -0.2781  0.3120  0.0050
 7857W        W45351  34.534   0.884   7.949 -0.4516  0.0890  0.0850
 7858W        W45352   0.378  17.375   0.793 -0.0400 -0.1842 -0.1227
 7859W        W45353  18.242  14.588  26.052 -0.0782  0.1070  0.0016
 7860W        W45354  27.786  20.252  10.251 -0.0349 -0.0250  0.3402
 7861W        W45355  13.557  32.882   4.434  0.0941 -0.1138  0.1960
 7862W        W45356  25.683   9.315  15.653 -0.0176  0.0008  0.0542
 7863W        W45357  32.131  22.203  16.541  0.0341  0.2269  0.0847
 7864W        W45358  10.399  32.300   3.944  0.2356 -0.0577  0.1978
 7865W        W45359   5.957  13.941   1.581  0.2251  0.1348  0.0136
 7866W        W45360  17.381   3.284  18.704  0.2206 -0.1569 -0.1828
 7867W        W45361  31.936  34.895   5.861  0.0389 -0.0458  0.1752
 7868W        W45362   9.124   8.914  23.281 -0.0633  0.2433 -0.0511
 7869W        W45363  10.127  28.720   2.449  0.1461 -0.2503 -0.2268
 7870W        W45364  14.230  15.303   8.730 -0.0661  0.3650  0.0324
 7871W        W45365  16.278  10.614  10.273  0.0277  0.1994  0.1950
 7872W        W45366  19.155  18.082  20.599 -0.1329 -0.0080 -0.0778
 7873W        W45367  34.985  21.183  20.911  0.2497  0.0566 -0.4550
 7874W        W45368  17.178  23.073  23.377 -0.1466  0.1087  0.4082
 7875W        W45369   6.819  16.562  25.407 -0.0354  0.0284 -0.0031
 7876W        W45370  19.288   7.426   4.248 -0.0862 -0.2622 -0.1082
 7877W        W45371   1.035  31.442  21.744 -0.1373 -0.0887 -0.1541
 7878W        W45372  17.478  34.064   8.567 -0.1895 -0.2200  0.0306
 7879W        W45373  27.025  31.756  17.673 -0.2159  0.2283  0.1342
 7880W        W45374  31.317  31.250   5.773  0.0642  0.2323 -0.3133
 7881W        W45375  25.350   8.745  24.400 -0.0900 -0.2116 -0.0118
 7882W        W45376  26.866  20.471  12.947 -0.0384 -0.0645 -0.3924
 7883W        W45377  10.365  21.568   1.226  0.3506 -0.3200 -0.2396
 7884W        W45378   4.421   8.129  23.009  0.1583 -0.0072  0.1013
 7885W        W45379  27.173  25.392  13.467  0.3551 -0.1623 -0.4143
 7886W        W45380  28.467   1.378  24.396 -0.0809  0.1583  0.1578
 7887W        W45381  24.724  34.244  21.746 -0.0706  0.1710 -0.1742
 7888W        W45382   0.662   0.579  20.481  0.1533  0.2923  0.0106
 7889W        W45383   0.953   2.173  24.101  0.1379  0.0086  0.0663
 7890W        W45384   9.433  19.338  12.125 -0.0292 -0.1528 -0.2043
 7891W        W45385   5.662   1.152  12.957  0.0901  0.1722  0.1575
 7892W        W45386   9.716   7.904  11.937 -0.0724  0.1297 -0.3563
 7893W        W45387  23.861   7.644   1.608 -0.3084 -0.3125  0.2751
 7894W        W45388   6.886   4.935   5.528 -0.1463  0.4346 -0.1393
 7895W        W45389  25.142  15.143   8.361 -0.4684 -0.0570 -0.2115
 7896W        W45390   5.987  15.488  18.961  0.1444 -0.2705 -0.2093
 7897W        W45391  22.824  15.917  18.786  0.1651  0.3045  0.0456
 7898W        W45392  24.503  20.353  11.420 -0.3738 -0.0150 -0.1552
 7899W        W45393   5.987  31.240   1.588 -0.0477  0.0534 -0.1401
 7900W        W45394   6.862   0.197   1.761  0.0811  0.2574 -0.2801
 7901W        W45395   7.219  10.660  18.093  0.0855 -0.1966  0.1534
 7902W        W45396  21.875  22.160   2.930  0.2637 -0.1472  0.1908
 7903W        W45397  20.645  33.327  25.685  0.1461 -0.2237 -0.0731
 7904W        W45398  16.850  31.820   2.407  0.2673  0.0076 -0.1467
 7905W        W45399   5.864  32.396   1.225 -0.0999  0.2557  0.1902
 7906W        W45400  31.948   9.491  10.262  0.2670 -0.0037  0.1806
 7907W        W45401  18.727  21.078  24.375 -0.0109 -0.2462  0.2097
 7908W        W45402   1.753  13.732  22.154  0.1167  0.2026  0.0033
 7909W        W45403  14.489   3.548  25.263  0.1059  0.2583  0.2028
 7910W        W45404  17.406  23.403   0.012 -0.3341  0.1957  0.1418
 7911W        W45405   6.412  23.592   2.615  0.0880  0.0334  0.0531
 7912W        W45406   0.738  20.403  21.710  0.1059 -0.0956  0.0501
 7913W        W45407  25.431  30.795  22.099 -0.0633 -0.2081 -0.2714
 7914W        W45408   3.990   3.804  19.561 -0.2111  0.2780  0.3455
 7915W        W45409  19.834  25.507  21.215 -0.0495 -0.2025 -0.0884
 7916W        W45410  10.558  27.935   7.860  0.1326  0.0654 -0.0243
 7917W        W45411  10.242  29.398  14.421  0.1577 -0.1909 -0.0419
 7918W        W45412  27.246  21.934  12.905  0.1117 -0.0863 -0.1822
 7919W        W45413  28.497  21.262  23.242 -0.1393 -0.2638 -0.0366
 7920W        W45414   9.864  17.658   5.018  0.0601 -0.1317  0.1060
 7921W        W45415  31.241  35.069  13.615 -0.1058  0.1093  0.1036
 7922W        W45416  16.291  21.135  13.708 -0.2871 -0.1263  0.1574
 7923W        W45417  34.032  15.540  12.625 -0.3662 -0.2976  0.3063
 7924W        W45418  20.744  12.617  25.820  0.4102  0.3784 -0.3000
 7925W        W45419   5.104   5.836  20.118  0.2162 -0.1281  0.1733
 7926W        W45420  29.278  30.611  15.705  0.2334  0.1237  0.2104
 7927W        W45421  15.009   0.353   2.115  0.4100  0.0542 -0.1271
 7928W        W45422   2.292   0.000  25.151 -0.2492 -0.1650  0.0950
 7929W        W45423   6.703  25.912   9.649 -0.0399  0.1223  0.1237
 7930W        W45424  26.089  14.712  22.124 -0.0131 -0.2636  0.3075
 7931W        W45425  17.907  23.198  20.843  0.0069  0.0879  0.4125
 7932W        W45426  19.395   7.423  18.652  0.3508 -0.0556  0.0485
 7933W        W45427  20.475   3.645  21.275 -0.1796 -0.3300  0.1333
 7934W        W45428  14.998  23.943  23.496 -0.0750  0.1084  0.0116
 7935W        W45429  10.905   7.993  18.988 -0.2276  0.0578 -0.1360
 7936W        W45430   8.933  11.383   9.149 -0.2155  0.2273 -0.4260
 7937W        W45431  18.495  20.245   2.025 -0.0393 -0.0148 -0.1280
 7938W        W45432  23.874   7.726  13.772  0.0646 -0.2254  0.1165
 7939W        W45433  16.831   0.844  17.500 -0.3034 -0.1100 -0.0281
 7940W        W45434   4.337  12.873  23.995  0.0885  0.0695 -0.1647
 7941W        W45435  16.333  31.495   0.712  0.0357 -0.0727 -0.1996
 7942W        W45436  19.000  12.229   7.158  0.3071  0.0405 -0.0671
 7943W        W45437   7.946   0.222  20.819 -0.3478 -0.0068  0.1879
 7944W        W45438  28.221  15.010  14.775  0.1639 -0.0518 -0.2766
 7945W        W45439  18.102  19.795  24.699  0.0361 -0.2492 -0.0627
 7946W        W45440  34.107  15.629   8.764  0.2347 -0.1331  0.1878
 7947W        W45441  22.117   2.098  20.988 -0.1802 -0.3009 -0.2214
 7948W        W45442  18.182   1.994   1.237 -0.0760  0.0644  0.2254
 7949W        W45443  23.946  17.185  12.224 -0.0886 -0.0503  0.2959
 7950W        W45444   3.637  13.922  25.066  0.0558 -0.2295  0.2254
 7951W        W45445   5.155  24.254  24.848 -0.0381 -0.0534  0.1291
 7952W        W45446  18.408  26.658   3.216  0.2651  0.1046 -0.2210
 7953W        W45447  20.388  30.171  20.635  0.0884  0.0259  0.2108
 7954W        W45448  34.239  13.497  20.406 -0.2341 -0.0474 -0.0334
 7955W        W45449   0.984   0.108   6.851 -0.0209 -0.1561  0.4804
 7956W        W45450  18.946   9.513   9.928 -0.0792 -0.1242  0.0140
 7957W        W45451  24.793  16.842  15.980  0.2424  0.0468  0.0972
 7958W        W45452  30.117   9.175  18.112  0.1948  0.0156 -0.3256
 7959W        W45453  34.537  13.982  13.496 -0.0792  0.2088 -0.2066
 7960W        W45454   7.206  28.477   2.609 -0.0114  0.1880 -0.3158
 7961W        W45455  19.914   1.186   3.142  0.0034 -0.1483  0.0763
 7962W        W45456   0.992   2.647  25.517  0.0577  0.0706 -0.3969
 7963W        W45457   1.433   8.363   5.356 -0.1024 -0.2210 -0.0478
 7964W        W45458  22.262   5.587   5.369  0.1876 -0.1964 -0.1789
 7965W        W45459   4.398  31.722  24.266  0.0741 -0.0123  0.1208
 7966W        W45460  23.608  14.269   1.890  0.1848  0.0936  0.0481
 7967W        W45461  29.923  27.386  18.650  0.0970 -0.1318  0.2287
 7968W        W45462  20.458  18.586  24.809 -0.1286 -0.0766  0.0571
 7969W        W45463   3.788  23.357  22.911 -0.3508  0.0456  0.0613
 7970W        W45464  28.274  28.535  25.045  0.3285  0.2227 -0.0752
 7971W        W45465   4.625  19.686  20.179 -0.1554  0.3419 -0.1492
 7972W        W45466  15.353   4.791  19.214  0.0886 -0.1987  0.0017
 7973W        W45467  20.037  33.270  22.572  0.0251 -0.2108  0.0695
 7974W        W45468   8.729  29.094   6.706  0.0289  0.0363  0.0279
 7975W        W45469  24.465  11.088   0.237  0.2484  0.0336  0.1410
 7976W        W45470   2.876  18.506  17.881  0.3055  0.0388 -0.1998
 7977W        W45471  13.072   3.174   7.511  0.0194 -0.1437  0.1305
 7978W        W45472  18.637  33.868   9.462  0.0944 -0.2212  0.4558
 7979W        W45473   2.003  24.281   3.557  0.1652  0.0548 -0.2263
 7980W        W45474   5.940   3.547  22.758  0.1890  0.2271  0.2291
 7981W        W45475  29.401  35.061  18.572 -0.1303 -0.1290 -0.0795
 7982W        W45476  17.521  10.302   3.461 -0.0707 -0.0479  0.1096
 7983W        W45477  13.204  26.148   0.947  0.0476  0.0262 -0.4854
 7984W        W45478   5.982   4.015   3.530 -0.0932  0.1726 -0.2593
 7985W        W45479   1.167  16.640  22.549 -0.1279 -0.2491 -0.0156
 7986W        W45480  10.509   7.054  25.020  0.2096  0.1956  0.1466
 7987W        W45481  10.398  21.317  24.950 -0.0346 -0.1118 -0.4126
 7988W        W45482  25.996  20.868  10.089 -0.1990  0.0630 -0.0271
 7989W        W45483  13.324  12.442  13.902 -0.0965  0.1120  0.0453
 7990W        W45484   1.824   5.368   2.185 -0.0429 -0.2663 -0.1173
 7991W        W45485  26.187   2.191  19.014 -0.1368 -0.0095 -0.1923
 7992W        W45486  11.054  21.605  13.221 -0.0149 -0.0004  0.0588
 7993W        W45487  32.659   6.176  16.436 -0.1374  0.0573 -0.0315
 7994W        W45488  18.343  14.033  23.420 -0.0436  0.0055  0.0617
 7995W        W45489   0.682  18.664  11.066  0.1308  0.0271  0.0221
 7996W        W45490  21.578   9.885   4.098 -0.1250  0.5209 -0.0286
 7997W        W45491  31.217   7.956  24.212  0.3312 -0.0648  0.0851
 7998W        W45492  12.501  15.817   5.998 -0.3346 -0.1377  0.3969
 7999W        W45493   4.726   7.113  23.964  0.0898  0.0910 -0.1163
 8000W        W45494   7.412   7.482  20.905  0.2032  0.2652 -0.0265
 8001W        W45495  34.103  12.673  18.457  0.0087  0.0007  0.1900
 8002W        W45496   8.119   6.275   6.348  0.1995 -0.1101  0.0253
 8003W        W45497  33.693  32.740  18.397  0.1493  0.2042 -0.0878
 8004W        W45498  24.859   4.491  21.692 -0.0845  0.2582  0.2378
 8005W        W45499  32.765   9.040  13.012 -0.1953  0.0922 -0.1372
 8006W        W45500  22.114  11.980   5.015 -0.1503  0.2479 -0.0718
 8007W        W45501  26.340  17.970  12.691 -0.0665 -0.2897 -0.2039
 8008W        W45502  12.835   7.643  10.388 -0.2583 -0.2598  0.1740
 8009W        W45503  25.795  19.695  12.532  0.0150 -0.4797  0.0230
 8010W        W45504   7.933  19.946  26.033  0.2471 -0.1214 -0.0423
 8011W        W45505  19.185   7.535  19.328 -0.1623 -0.1289 -0.1957
 8012W        W45506  14.201   0.710   2.476  0.2175 -0.3960 -0.1798
 8013W        W45507   0.238  33.158  21.553 -0.3841  0.3180  0.1850
 8014W        W45508  30.292   9.875  12.291 -0.1098 -0.0110 -0.2484
 8015W        W45509  26.084  13.828   6.903 -0.1318  0.0577  0.2370
 8016W        W45510  18.770   2.562  25.039 -0.1712  0.1112 -0.2553
 8017W        W45511  11.628  21.471  23.805 -0.0465 -0.1477  0.1922
 8018W        W45512   3.208  13.445  22.422 -0.3323  0.1947  0.0850
 8019W        W45513  26.926   4.165  20.960  0.0330 -0.0884 -0.0300
 8020W        W45514  12.414  21.457  10.562  0.1841  0.0966  0.1229
 8021W        W45515  29.604  19.621  10.874 -0.2319 -0.0653  0.3640
 8022W        W45516   8.795  27.574  13.581 -0.1473 -0.1304  0.2750
 8023W        W45517  24.579  28.942  15.902 -0.0135 -0.0531 -0.1685
 8024W        W45518  19.505   1.311  20.669 -0.1323  0.0974  0.0576
 8025W        W45519   4.863  18.452   5.160 -0.1159 -0.1190  0.2246
 8026W        W45520  15.159   6.890  22.118 -0.1585  0.1377  0.0023
 8027W        W45521  28.515   5.248   2.539 -0.1434  0.0593 -0.0290
 8028W        W45522  19.583  27.339  17.509  0.2586 -0.3427 -0.1315
 8029W        W45523  24.300   1.736  14.047  0.0577 -0.0340  0.2119
 8030W        W45524  13.390   6.823   9.168 -0.0805 -0.0535 -0.1897
 8031W        W45525  33.363  30.984   2.063 -0.0150 -0.0766  0.0043
 8032W        W45526   8.217   4.429  23.620  0.1945  0.0644  0.1011
 8033W        W45527   9.143   4.977  11.019 -0.1589 -0.1418  0.4402
 8034W        W45528   4.783  12.103  20.091  0.1497 -0.0827 -0.1443
 8035W        W45529   0.799  20.002  25.184 -0.0515 -0.0583 -0.1992
 8036W        W45530  31.482   3.463   5.528  0.0111 -0.1558 -0.1014
 8037W        W45531   7.990   0.393  19.767  0.1050  0.0577  0.1191
 8038W        W45532  17.762  28.283   7.070  0.1201 -0.1123 -0.0530
 8039W        W45533  13.382  18.443   4.059 -0.2718 -0.1039 -0.0082
 8040W        W45534  14.573  21.763   3.179 -0.0019 -0.2325  0.0840
 8041W        W45535   8.377   1.370  14.130  0.1367  0.1031 -0.0467
 8042W        W45536  28.754  13.137  12.113 -0.1085  0.1524 -0.3791
 8043W        W45537  15.312  20.637  21.781 -0.0794  0.0560  0.0663
 8044W        W45538  17.321  15.584  10.945 -0.0112 -0.0144  0.2072
 8045W        W45539   4.172  16.519   1.661 -0.1974  0.0129 -0.3383
 8046W        W45540  16.909   8.428   1.644 -0.1136 -0.1016 -0.1107
 8047W        W45541   7.648   8.649   3.205  0.2036  0.0426  0.2984
 8048W        W45542   8.901  23.001  10.168 -0.2055 -0.2047 -0.1287
 8049W        W45543   4.468   0.337   1.486 -0.1651 -0.0908  0.0505
 8050W        W45544  33.812  18.778  25.079 -0.1213  0.1848  0.0806
 8051W        W45545   5.081   8.951   8.912 -0.2388 -0.1564  0.3766
 8052W        W45546  19.058   1.741   3.165 -0.1723 -0.2057 -0.0478
 8053W        W45547  32.464  31.775   3.138 -0.0399  0.0858 -0.0424
 8054W        W45548  31.412  22.535  11.405 -0.3922 -0.1082  0.1394
 8055W        W45549  19.332  16.555   0.928  0.0970  0.1966  0.1746
 8056W        W45550  32.695   9.129  14.904  0.3251 -0.0006 -0.0523
 8057W        W45551   6.046  17.904  23.746 -0.2540  0.0477  0.1949
 8058W        W45552   4.325   5.788   1.567 -0.1243 -0.1003 -0.5571
 8059W        W45553   4.045  30.434   5.877  0.1300  0.3667 -0.0664
 8060W        W45554  16.363  23.871  14.401  0.1976 -0.1491 -0.1658
 8061W        W45555  23.158  11.034  13.447 -0.0092 -0.2972  0.1572
 8062W        W45556   0.778   6.491  19.428  0.1785 -0.2021  0.0295
 8063W        W45557  19.271  17.905  26.084  0.1201  0.0227 -0.0900
 8064W        W45558   0.109  31.655   6.328  0.2164 -0.1059  0.0270
 8065W        W45559  13.738  24.091   4.021 -0.0780 -0.0842 -0.1967
 8066W        W45560  13.077  30.402   0.191  0.1665  0.2726 -0.1743
 8067W        W45561  19.861  26.283   0.151  0.0087 -0.1056  0.0882
 8068W        W45562  16.431  28.292   0.969 -0.1534 -0.1161  0.3330
 8069W        W45563   9.938  11.798  19.580  0.2946 -0.3749  0.0501
 8070W        W45564  18.223  24.618  11.484 -0.0001 -0.1638 -0.1796
 8071W        W45565  30.481  19.182  23.991 -0.2215  0.2542 -0.2867
 8072W        W45566  16.729   4.300   5.355  0.3184 -0.2028 -0.0066
 8073W        W45567   0.798  14.533  20.268  0.0710 -0.1708 -0.3688
 8074W        W45568  18.243   2.586   3.234 -0.1252  0.2294 -0.0326
 8075W        W45569   2.243   3.493   0.215  0.3034  0.2281 -0.1206
 8076W        W45570  28.284  12.177   6.802 -0.2260 -0.1720 -0.1186
 8077W        W45571  23.905  10.645  23.574  0.2755 -0.0900 -0.1339
 8078W        W45572  25.521  14.073  15.932 -0.3842 -0.0926  0.0849
 8079W        W45573  29.871  14.686  18.121  0.2727  0.1044 -0.1353
 8080W        W45574  27.237   7.635  11.887  0.0951 -0.2030 -0.0863
 8081W        W45575   3.623  28.664   8.369 -0.0817 -0.1817 -0.0699
 8082W        W45576   1.815  28.588  18.679 -0.1537 -0.1005 -0.2888
 8083W        W45577  31.034  23.523  20.789 -0.0291  0.0701 -0.1063
 8084W        W45578  14.901  20.527   7.634 -0.0297 -0.3157 -0.0518
 8085W        W45579   6.827  19.853  20.470  0.1164 -0.0820  0.1315
 8086W        W45580  10.053  24.714   5.401 -0.1042  0.0608 -0.0687
 8087W        W45581  25.009   3.117  21.542  0.3155  0.1178  0.2495
 8088W        W45582  12.729  25.595  17.737 -0.3751 -0.0261 -0.0709
 8089W        W45583  11.697  21.619   7.705  0.1675  0.0931 -0.0389
 8090W        W45584  27.326  31.425   2.689 -0.2006  0.0888 -0.1946
 8091W        W45585  10.326   2.590  13.982 -0.1904  0.1911 -0.2694
 8092W        W45586   1.348  30.927  22.974  0.1881  0.1039  0.2620
 8093W        W45587  11.512   7.162   6.233  0.0912 -0.2005  0.2389
 8094W        W45588  10.189  12.615  19.102 -0.3477 -0.1200 -0.2748
 8095W        W45589   2.724  10.806  24.358  0.0637  0.3248 -0.1866
 8096W        W45590   7.754  13.260   2.889 -0.0475 -0.0139  0.2731
 8097W        W45591   9.352  30.318  25.753  0.0279 -0.0773 -0.4335
 8098W        W45592  15.127  25.047  21.210  0.1589  0.0667  0.2514
 8099W        W45593  13.874  24.779  17.127 -0.0737 -0.0835  0.3490
 8100W        W45594   6.027  23.961   6.774 -0.2336  0.0216  0.1224
 8101W        W45595  25.537   1.342   3.168  0.3438  0.1507 -0.0155
 8102W        W45596  17.448   6.494  10.646 -0.2172  0.1316 -0.0011
 8103W        W45597  29.948   1.846  11.991 -0.1397  0.1222 -0.0871
 8104W        W45598  34.390  18.780  15.388  0.1510 -0.2075 -0.2256
 8105W        W45599  13.064  33.971   5.476  0.0400 -0.1038  0.3166
 8106W        W45600  16.474  24.728  25.260 -0.1706 -0.1165 -0.1756
 8107W        W45601  15.559  20.308  15.182 -0.1166  0.1970 -0.1532
 8108W        W45602  27.546   1.875   1.067 -0.0635 -0.0409  0.0046
 8109W        W45603  30.804   1.574  13.103 -0.0429  0.1140 -0.1262
 8110W        W45604  19.294   5.568   6.728 -0.0772 -0.2948 -0.3681
 8111W        W45605  18.213  16.617   8.802 -0.2125  0.0055 -0.0321
 8112W        W45606  20.808  15.865  24.883  0.2727 -0.0515  0.2262
 8113W        W45607  19.920   4.763  23.234  0.3426  0.1462  0.0791
 8114W        W45608  10.388  27.235  13.333  0.0790  0.0906 -0.0241
 8115W        W45609  12.501  19.560  21.773 -0.0157 -0.1190  0.1056
 8116W        W45610   7.639  28.653   7.589  0.2591 -0.2410 -0.2742
 8117W        W45611  27.379  16.751   8.569 -0.0889 -0.0921  0.1053
 8118W        W45612  25.602  23.685  21.011  0.0702  0.0063  0.2165
 8119W        W45613  22.546  22.511  15.816  0.0461  0.1872  0.1915
 8120W        W45614   4.704  28.153  25.123  0.1216 -0.0660 -0.3279
 8121W        W45615   2.120  20.461  16.791  0.0939  0.1708  0.6255
 8122W        W45616  34.651  23.761  19.596 -0.2438  0.0078  0.5092
 8123W        W45617  25.327  12.968  16.297 -0.1092  0.0683 -0.2159
 8124W        W45618   0.371   2.575  23.917  0.1594 -0.1502 -0.3033
 8125W        W45619  18.367  15.264  11.647 -0.1268  0.2007  0.0168
 8126W        W45620  25.208  15.863  20.515 -0.0322  0.0637 -0.1069
 8127W        W45621  17.981  27.298   3.272 -0.2240  0.4189  0.2341
 8128W        W45622  12.236  21.720  12.875  0.3102 -0.0994  0.0324
 8129W        W45623  11.219  25.938   7.201 -0.0400  0.0211  0.0181
 8130W        W45624  33.172  31.773  21.631 -0.3845  0.0546  0.0818
 8131W        W45625  12.511  23.830  17.340  0.2100  0.1421 -0.1483
 8132W        W45626   1.711   8.003   1.501  0.4084  0.2402 -0.0604
 8133W        W45627  23.847  32.140  17.488 -0.1525  0.1386 -0.2296
 8134W        W45628  33.051  19.394  24.728 -0.1753  0.1136  0.0287
 8135W        W45629   7.823  17.226   1.702 -0.2047 -0.0491 -0.0706
 8136W        W45630  26.169  14.645   0.788 -0.1868  0.1596  0.0877
 8137W        W45631  22.616   0.012   3.944  0.1028 -0.1422  0.0683
 8138W        W45632  15.993  13.927  24.348 -0.0700 -0.0206 -0.2853
 8139W        W45633  30.409   4.763   1.148 -0.2535 -0.5481  0.2157
 8140W        W45634   3.382  13.090  19.650  0.1783  0.1703  0.2122
 8141W        W45635  20.301  18.233  19.401  0.1737 -0.0254  0.1568
 8142W        W45636  17.017  25.070  12.197  0.0940 -0.0385 -0.0107
 8143W        W45637  27.187   0.395  11.008  0.2632 -0.1735 -0.0203
 8144W        W45638  28.043  14.158  12.927  0.2377  0.1829  0.1275
 8145W        W45639   1.319   2.447   3.895  0.1358  0.0644  0.0408
 8146W        W45640  33.587  33.746  22.061  0.3011  0.2421  0.0578
 8147W        W45641  14.157  21.087  14.778 -0.2147 -0.2598  0.1816
 8148W        W45642   1.701  22.833  24.986 -0.2294 -0.0741 -0.1221
 8149W        W45643  14.972  21.790  11.563 -0.2124 -0.0103 -0.4511
 8150W        W45644   9.873   9.622   9.682  0.0518  0.1275  0.2811
 8151W        W45645  15.495   9.249   5.928 -0.2319 -0.0304 -0.0394
 8152W        W45646  16.317  11.764  21.502  0.0270 -0.1380  0.1597
 8153W        W45647  12.554  23.541   1.496  0.0621  0.0102  0.0151
 8154W        W45648   1.702  15.413  23.288  0.0616 -0.2116 -0.1530
 8155W        W45649   5.491  27.324  21.700  0.3705 -0.1600  0.0831
 8156W        W45650  26.924  21.772  20.006  0.3599 -0.1240 -0.1054
 8157W        W45651  28.633  33.170  19.409  0.2114  0.1091 -0.2212
 8158W        W45652  14.926  10.792  20.551  0.1886  0.0516 -0.3552
 8159W        W45653  13.781   1.631  12.771  0.0142  0.0220 -0.5958
 8160W        W45654   8.124  13.998  25.420 -0.0836  0.0800 -0.1998
 8161W        W45655  14.274  28.147  23.629  0.0467 -0.0628 -0.0201
 8162W        W45656  27.380  25.761   2.194  0.0567 -0.2229 -0.0291
 8163W        W45657   5.472  23.627   3.178  0.0741 -0.1260 -0.1661
 8164W        W45658  28.882  21.997   7.728  0.2335 -0.0312 -0.0840
 8165W        W45659  20.526   8.439  10.441  0.1275  0.0405 -0.1552
 8166W        W45660   9.696  30.751  21.387  0.3126 -0.0313  0.0496
 8167W        W45661  12.595  29.991  13.232  0.0223 -0.2433  0.0909
 8168W        W45662  16.273  13.758   3.877 -0.2717  0.0040 -0.1387
 8169W        W45663  30.404  10.993   7.308 -0.0175 -0.1368 -0.1540
 8170W        W45664  12.762   5.841  20.507 -0.0248  0.0717 -0.2013
 8171W        W45665   3.988   1.670  18.594 -0.1841  0.0632  0.0452
 8172W        W45666  24.543  10.546  19.056 -0.1718 -0.1970 -0.1032
 8173W        W45667  35.227  17.347  18.010  0.0541  0.0282  0.0559
 8174W        W45668  32.954   4.932  13.132  0.0360  0.0640  0.0853
 8175W        W45669  34.563  27.037  16.547 -0.0981  0.1691  0.1923
 8176W        W45670   1.097  34.760  17.883  0.3489 -0.3863 -0.0103
 8177W        W45671   0.072  32.733  19.584  0.2472 -0.0832  0.2740
 8178W        W45672  28.110  16.585   6.535 -0.0758  0.2780  0.0088
 8179W        W45673  33.493  15.718  11.985 -0.2873  0.0484 -0.0707
 8180W        W45674   2.724   5.877   0.859 -0.1997 -0.1170 -0.5394
 8181W        W45675   8.088  25.322  15.855 -0.0215  0.1164 -0.0723
 8182W        W45676  33.084  22.672  11.790  0.3096  0.4857  0.0734
 8183W        W45677  34.241  15.159   9.129 -0.2035  0.2184 -0.1762
 8184W        W45678   3.048  12.199   3.071  0.2211 -0.0712  0.0071
 8185W        W45679  35.061  30.156  26.198  0.2178 -0.0625  0.2263
 8186W        W45680  32.471  29.450  18.296  0.2938 -0.0555  0.3096
 8187W        W45681  31.742  15.272  21.257 -0.0093  0.2377  0.1425
 8188W        W45682  17.216  19.187  24.447  0.2796 -0.2744 -0.4212
 8189W        W45683  27.698   7.156  14.334  0.2437 -0.0752  0.1302
 8190W        W45684  12.136  33.832  10.202 -0.0443  0.0252 -0.2073
 8191W        W45685  14.636   1.062   1.015  0.1794 -0.3409 -0.0658
 8192W        W45686   8.662  33.256  12.109 -0.3066  0.0368  0.3690
 8193W        W45687   8.784  11.355   3.871 -0.1852  0.2688 -0.0409
 8194W        W45688  11.717  19.980   0.793 -0.0891 -0.1738  0.5170
 8195W        W45689   6.092   2.996   2.408  0.3191  0.0182 -0.0976
 8196W        W45690  15.560  23.284   1.162 -0.0913 -0.0537  0.2075
 8197W        W45691  10.847  32.224   9.470  0.0729  0.1449 -0.2383
 8198W        W45692   0.904  20.245  24.746  0.3613 -0.1661 -0.0564
 8199W        W45693  26.727  21.857  12.736  0.2333  0.3811  0.2573
 8200W        W45694  32.307   6.684  11.362  0.3242 -0.1633  0.2001
 8201W        W45695  10.773   3.246  24.338 -0.1131 -0.0050  0.0330
 8202W        W45696  24.925   8.769  12.652 -0.0409 -0.0931  0.0957
 8203W        W45697  14.729  14.064  13.750 -0.1082 -0.0723 -0.2544
 8204W        W45698  12.148   3.764  21.317 -0.3938 -0.1713 -0.3658
 8205W        W45699  13.862  23.023  12.062  0.0124  0.1996  0.3265
 8206W        W45700  24.180  17.197  21.279  0.3485 -0.1321 -0.1464
 8207W        W45701  14.349   2.937   8.642 -0.0035 -0.4095 -0.2614
 8208W        W45702  12.756   3.186   9.840  0.0184 -0.2028  0.2367
 8209W        W45703  32.725   3.378  23.597 -0.0116  0.1165 -0.1705
 8210W        W45704  29.741  22.267  10.604  0.1160 -0.1163  0.1907
 8211W        W45705  15.832  31.563  23.165 -0.3302  0.3256  0.0315
 8212W        W45706  12.836  22.386   7.718  0.0502  0.1299 -0.2200
 8213W        W45707  13.520   4.231   3.042 -0.1049  0.0803 -0.3131
 8214W        W45708  26.366  20.224   9.298 -0.3661 -0.2866 -0.3315
 8215W        W45709  32.420  19.234   6.662  0.3608 -0.4526 -0.0958
 8216W        W45710  18.961  22.787   6.047  0.2107 -0.2406  0.3004
 8217W        W45711  20.017  34.142   7.875  0.1418 -0.1341  0.0491
 8218W        W45712  21.779  28.583  17.918 -0.1287 -0.1775  0.0437
 8219W        W45713   9.928  17.437   0.838  0.0038 -0.3287  0.1441
 8220W        W45714   0.272  21.262  16.917 -0.4883 -0.2150  0.2635
 8221W        W45715  17.774  23.812  10.897  0.1846  0.1729 -0.1277
 8222W        W45716  18.920  15.996   7.039  0.1950  0.1634  0.0059
 8223W        W45717   9.880  32.435  16.805 -0.0305  0.0444 -0.0215
 8224W        W45718  21.067  10.837  26.164  0.0821  0.0955  0.0066
 8225W        W45719   8.288  27.301   7.037 -0.1062 -0.1508  0.3311
 8226W        W45720  21.278  26.613  26.251 -0.0341  0.0498 -0.1037
 8227W        W45721   9.811  23.174  10.592 -0.0731  0.1137  0.0181
 8228W        W45722  33.930   1.018  16.964 -0.2056 -0.0136  0.0124
 8229W        W45723   5.888   8.619   4.634  0.3248  0.1696  0.1544
 8230W        W45724  15.202  33.461  24.228  0.0828  0.1339  0.2445
 8231W        W45725  30.678  32.061  14.409 -0.4545  0.2885 -0.1132
 8232W        W45726  18.146  29.597  25.742  0.2386  0.1362  0.0117
 8233W        W45727  25.705  12.641  10.787 -0.1535  0.1762  0.0190
 8234W        W45728  17.906  32.040   7.003 -0.0416 -0.2589 -0.0873
 8235W        W45729  10.518  26.078   4.964 -0.1261 -0.1083  0.1261
 8236W        W45730  20.167   6.128   1.061  0.2424  0.1182 -0.0173
 8237W        W45731  32.752  30.172   5.903  0.0732 -0.0061 -0.1433
 8238W        W45732  21.578  29.888  22.517  0.3042 -0.1887 -0.1763
 8239W        W45733   8.980  21.323  21.823  0.1267  0.1379  0.2166
 8240W        W45734   9.360  29.130  15.195 -0.2494 -0.6862  0.0550
 8241W        W45735   7.652  17.158  22.171  0.1748 -0.0595 -0.3476
 8242W        W45736   2.317   1.001   3.173 -0.0812  0.0093 -0.1031
 8243W        W45737   2.970  10.835  22.743  0.0414 -0.1166 -0.1782
 8244W        W45738   2.490  32.600   1.774  0.0727 -0.0383  0.4070
 8245W        W45739   6.713  30.273   6.590  0.3567  0.0519  0.1980
 8246W        W45740  31.509  34.778  14.598  0.2238  0.1644  0.3804
 8247W        W45741  23.749  15.878  20.117 -0.0983 -0.2681  0.0825
 8248W        W45742  23.021  23.272  20.023  0.1774 -0.6382 -0.1657
 8249W        W45743   8.389   6.667  21.094 -0.0743 -0.1336  0.1739
 8250W        W45744   7.872   6.521  13.502 -0.4815 -0.2035 -0.2443
 8251W        W45745   3.705  21.275  21.341 -0.1285  0.0372  0.1988
 8252W        W45746   3.310  13.238  14.545  0.0891  0.0132  0.0571
 8253W        W45747  17.873  11.115  22.342  0.0516 -0.2488  0.0388
 8254W        W45748   8.609  32.206  14.880  0.0995  0.2807  0.0299
 8255W        W45749   4.878  10.880   3.265  0.1723 -0.1779 -0.3374
 8256W        W45750  34.201   9.093  17.820 -0.3945 -0.0467 -0.1966
 8257W        W45751  11.827  32.295   4.882 -0.0054  0.1036  0.1498
 8258W        W45752  13.646  22.548  14.005  0.3172 -0.0139 -0.1140
 8259W        W45753  26.284  26.318  23.334  0.1096  0.1805 -0.1003
 8260W        W45754  11.480  23.119   7.361  0.1036  0.1254 -0.4514
 8261W        W45755  28.755   7.005   1.854  0.1133  0.2738  0.2082
 8262W        W45756  10.311  33.717  23.394  0.1034  0.2367  0.2032
 8263W        W45757   5.945   9.420   0.122 -0.3051 -0.1514  0.0713
 8264W        W45758  11.294  18.538  21.695 -0.0979  0.2892  0.1585
 8265W        W45759  24.305   1.335  17.147  0.1069  0.1032 -0.0738
 8266W        W45760   5.364   2.509  23.387 -0.0422  0.1007  0.2047
 8267W        W45761  27.151  28.917  19.300  0.0284 -0.1401  0.2187
 8268W        W45762  18.328  20.836   6.277  0.0189 -0.0231  0.2804
 8269W        W45763  19.592  18.647  17.443  0.2133 -0.0869  0.2108
 8270W        W45764   1.554  14.225  12.739  0.0502 -0.0523 -0.1032
 8271W        W45765  20.913  14.355  15.102 -0.3765 -0.2590 -0.0428
 8272W        W45766  34.270  29.795   1.281 -0.1443 -0.0467 -0.1411
 8273W        W45767  32.871   3.827  25.544 -0.0135 -0.0248  0.2396
 8274W        W45768  27.048   1.163  14.584  0.4402  0.0256  0.2394
 8275W        W45769  24.132  16.134  16.734 -0.1207 -0.2615 -0.1959
 8276W        W45770  11.708   0.432   5.224 -0.0394  0.2637 -0.1381
 8277W        W45771  25.716  23.472  21.501  0.1451  0.0980 -0.0561
 8278W        W45772  34.850  10.680  14.752  0.1711 -0.2533  0.0951
 8279W        W45773  32.762  25.644  24.598 -0.0002 -0.0135  0.2611
 8280W        W45774  19.880  18.801  18.573 -0.1340  0.1980 -0.1697
 8281W        W45775   5.891  34.908  10.812  0.0350 -0.3515  0.0983
 8282W        W45776  14.793  22.438  13.368 -0.0659 -0.2224  0.2789
 8283W        W45777  30.633  13.151  23.304  0.1729  0.0350  0.1987
 8284W        W45778  17.608   3.934   0.921 -0.1730 -0.1007 -0.0238
 8285W        W45779  21.755  17.521  21.924  0.0354  0.1366 -0.0232
 8286W        W45780   9.700  28.075  15.356  0.2131 -0.1178  0.0986
 8287W        W45781  20.357  21.963  23.967  0.2082  0.0041 -0.0642
 8288W        W45782  24.627  15.837  17.334  0.1584 -0.0075  0.0179
 8289W        W45783  17.660   3.345  16.627 -0.0574 -0.2297  0.4416
 8290W        W45784  24.713  20.426  21.833 -0.1579 -0.1253  0.1683
 8291W        W45785  34.113  23.786  12.064 -0.0138 -0.0794  0.3569
 8292W        W45786   2.347   6.998  19.336 -0.2975 -0.1306  0.5003
 8293W        W45787  10.725  10.825  25.511 -0.1507 -0.1367 -0.0481
 8294W        W45788  22.810  24.441  22.058 -0.1364  0.1659  0.2238
 8295W        W45789  30.414  34.069  15.513 -0.0182 -0.1084 -0.0019
 8296W        W45790   2.124   0.657  23.921 -0.1590  0.1526  0.0148
 8297W        W45791  15.778  14.039  20.977  0.1328 -0.0135 -0.1829
 8298W        W45792  12.255  34.510   5.420 -0.1759  0.0439  0.1449
 8299W        W45793  20.117  32.399   7.158 -0.0611  0.2057  0.0021
 8300W        W45794   9.663  12.576  13.955 -0.0872  0.0708 -0.3237
 8301W        W45795  10.119  22.761  14.642 -0.1460 -0.1651  0.0653
 8302W        W45796  20.410  21.897   1.129  0.0759 -0.0072  0.1780
 8303W        W45797  11.945  13.018   4.989 -0.0425  0.1363 -0.1446
 8304W        W45798  18.937   7.377  18.923  0.0152 -0.1429  0.1597
 8305W        W45799  11.750  17.399  22.416 -0.3712 -0.2832  0.1447
 8306W        W45800  31.791  23.398  18.620  0.1102  0.0188 -0.3699
 8307W        W45801   4.854  16.483   6.930 -0.0945 -0.0717 -0.1425
 8308W        W45802  27.883  14.399  20.957 -0.1148  0.0340  0.0729
 8309W        W45803  29.541   0.040  16.942  0.0066  0.0224 -0.2521
 8310W        W45804  18.030  34.600   0.081 -0.0705  0.0390  0.0892
 8311W        W45805  27.941  19.746  21.285 -0.1624  0.0613  0.2473
 8312W        W45806  17.154   6.380   4.447 -0.0886  0.2450  0.1477
 8313W        W45807  21.100  22.330  23.619 -0.1847 -0.0639  0.4160
 8314W        W45808   8.681  18.334   6.791 -0.0870 -0.0931  0.0428
 8315W        W45809  27.712   9.778  16.173  0.1980  0.0011  0.3014
 8316W        W45810  22.896  22.082  14.956 -0.1028  0.3079 -0.1528
 8317W        W45811  10.451  22.431   3.308  0.0911 -0.1743 -0.2464
 8318W        W45812  10.653  24.083  25.115  0.0853  0.0944  0.1003
 8319W        W45813  23.953   4.973  13.856 -0.1433 -0.1197 -0.0567
 8320W        W45814  19.211  28.953  23.865 -0.1387  0.1960 -0.1063
 8321W        W45815  32.676  34.683  21.291  0.0427 -0.1734 -0.1155
 8322W        W45816  16.382   2.747   9.578 -0.1472  0.1576 -0.2774
 8323W        W45817  22.121   7.179  15.419  0.1429  0.1808 -0.4921
 8324W        W45818  21.086  13.935   5.685  0.2593 -0.1325  0.1345
 8325W        W45819  24.942   2.701  19.195 -0.1709 -0.0946 -0.2210
 8326W        W45820  26.532  10.792   1.292  0.0725 -0.1369  0.1746
 8327W        W45821   0.435  19.768  15.286 -0.0971  0.0235 -0.2020
 8328W        W45822   4.821  22.991  23.847  0.0007  0.2870 -0.0852
 8329W        W45823  22.077  32.702  20.701 -0.1246 -0.0387 -0.2410
 8330W        W45824  32.389  32.712   5.902 -0.2509  0.2791  0.1266
 8331W        W45825   3.633  20.821  16.749 -0.2836 -0.1517  0.0751
 8332W        W45826  26.521  21.129   7.251 -0.0323 -0.0610  0.3379
 8333W        W45827  13.086   0.993  24.257  0.1103 -0.4782 -0.0633
 8334W        W45828  35.181  10.835  25.873  0.0688 -0.2171 -0.1211
 8335W        W45829   5.330   7.941   2.543 -0.0624  0.1532 -0.2879
 8336W        W45830  31.887  26.652  18.819  0.4089 -0.0515  0.1860
 8337W        W45831  34.927   8.122   1.421  0.0350  0.3814  0.0905
 8338W        W45832  10.184   2.127  14.767  0.3340  0.0503 -0.0636
 8339W        W45833   9.963  16.651  11.601 -0.0229 -0.1545  0.4049
 8340W        W45834  25.407  23.452   9.416 -0.1875 -0.1207 -0.0183
 8341W        W45835  14.323  22.449  25.928  0.1005  0.2823  0.4998
 8342W        W45836  28.748  11.203  17.868  0.4022 -0.0350  0.1758
 8343W        W45837  17.643   4.012  21.026 -0.2053  0.1444 -0.1217
 8344W        W45838   4.597  30.679   5.016 -0.2063 -0.2494  0.1146
 8345W        W45839   0.997  23.493  16.392 -0.0492  0.1174 -0.0788
 8346W        W45840   8.152   7.264  21.205  0.1488  0.1263  0.0216
 8347W        W45841  24.045   2.217  19.838  0.3176 -0.2096 -0.2149
 8348W        W45842  31.364  26.776  16.671  0.2396  0.0555 -0.1491
 8349W        W45843  22.146   8.585  23.299 -0.0318  0.1445 -0.1229
 8350W        W45844  14.136  28.788  12.070  0.1281 -0.1876 -0.1614
 8351W        W45845  12.431   8.807   4.045 -0.0297 -0.0363  0.0010
 8352W        W45846  22.715  30.389  12.431 -0.0808  0.0657 -0.1606
 8353W        W45847  25.656  10.500  26.207 -0.1719 -0.1002 -0.0013
 8354W        W45848  18.361  33.733  15.674 -0.2466  0.0800  0.1559
 8355W        W45849  26.789  27.864   2.376 -0.4618 -0.3251 -0.0643
 8356W        W45850   6.938  31.024  25.332 -0.0912  0.2068  0.1011
 8357W        W45851  11.735  26.750  23.367  0.0734 -0.0396  0.3529
 8358W        W45852  33.615   7.498  22.803 -0.1197  0.0058  0.1666
 8359W        W45853   8.030  32.349   8.159  0.0188 -0.2316  0.2145
 8360W        W45854  14.877  13.296  14.027  0.2089 -0.2045 -0.1198
 8361W        W45855   5.543  31.449  12.597  0.1500 -0.1922 -0.3408
 8362W        W45856  23.890  10.484   0.932  0.0159 -0.1878  0.1112
 8363W        W45857   5.253   1.386  19.011  0.2461 -0.0404 -0.1237
 8364W        W45858   1.538   5.669  20.004 -0.1231  0.0040  0.3877
 8365W        W45859  33.123  17.246  11.856 -0.0775 -0.0236 -0.0023
 8366W        W45860   8.267  24.275   4.753 -0.0752  0.1308  0.2905
 8367W        W45861  29.143   3.704  24.590  0.2144  0.1474 -0.2337
 8368W        W45862  22.354  26.682   3.622 -0.0212 -0.0031  0.1120
 8369W        W45863  33.036   2.763  11.477  0.3051 -0.1052  0.2102
 8370W        W45864  23.449   1.560  12.762 -0.0543  0.0053  0.0895
 8371W        W45865   3.993  31.923   7.800 -0.0156 -0.2307  0.0081
 8372W        W45866  18.253  10.930  20.774 -0.2421  0.2508 -0.1205
 8373W        W45867  14.591   4.784  19.592  0.1154  0.2209  0.0663
 8374W        W45868  35.108  27.297  18.306 -0.2971 -0.2600 -0.1642
 8375W        W45869   1.940  33.659  19.990  0.1966  0.0038 -0.2066
 8376W        W45870   7.250  26.237  15.275  0.1284  0.1750 -0.0059
 8377W        W45871  10.455  28.503   8.020 -0.0433  0.1535 -0.0397
 8378W        W45872  15.717  33.098  19.861 -0.0757  0.4406  0.0527
 8379W        W45873  14.376  26.747  10.112  0.2036 -0.0729  0.0403
 8380W        W45874  23.360  24.610  24.936  0.4975 -0.1700  0.1312
 8381W        W45875  22.833  20.384   1.225  0.1219  0.1644 -0.0087
 8382W        W45876   3.058  14.385  16.157 -0.3809  0.0710  0.1284
 8383W        W45877  15.831  23.085  24.402 -0.1632 -0.0663 -0.1231
 8384W        W45878  30.456  22.366   8.089  0.2264  0.0767  0.0700
 8385W        W45879  11.155   3.976  22.358 -0.2115 -0.1253  0.4042
 8386W        W45880  26.964  26.650  16.759 -0.0635 -0.0933  0.2363
 8387W        W45881  14.046  27.327  23.289  0.1117  0.0976 -0.1050
 8388W        W45882   9.288   2.718   0.961  0.0165  0.2318 -0.0972
 8389W        W45883  32.961  30.277  21.683  0.3163 -0.1460 -0.0926
 8390W        W45884   0.949   3.910   4.344  0.0757 -0.2242 -0.0605
 8391W        W45885   5.986  32.408  25.371 -0.0469 -0.1950  0.0761
 8392W        W45886  12.826  10.643  11.638 -0.0135  0.0942 -0.0655
 8393W        W45887  13.249   7.005   0.637 -0.0022 -0.1174 -0.2109
 8394W        W45888   8.876  19.386   6.818  0.1755 -0.0590  0.1891
 8395W        W45889   9.792  33.723   5.252 -0.0520 -0.2644 -0.0200
 8396W        W45890  19.193  14.355   2.553  0.2249 -0.1060 -0.1145
 8397W        W45891  31.317  18.490  18.901  0.0197  0.0430 -0.3458
 8398W        W45892  25.052   5.012  20.603  0.1132 -0.3584 -0.1987
 8399W        W45893   3.373  15.271  16.875 -0.0008 -0.1151  0.4646
 8400W        W45894  17.787  14.552  19.824  0.1795 -0.0805 -0.0821
 8401W        W45895  26.919   2.702  12.425 -0.0761 -0.1188 -0.1056
 8402W        W45896  28.681  30.438  15.446 -0.0974 -0.3114  0.0349
 8403W        W45897   7.843  30.407   8.314 -0.2753  0.0646  0.0574
 8404W        W45898  30.918  29.967  14.738  0.1670 -0.0453 -0.1262
 8405W        W45899  21.274  10.546  19.161  0.0370  0.0323  0.3360
 8406W        W45900   0.351  19.165  14.702 -0.2585 -0.1071 -0.2079
 8407W        W45901  30.931  16.170   8.749  0.1925  0.1691  0.0011
 8408W        W45902  14.860   7.974   2.783  0.0720  0.0316  0.2550
 8409W        W45903   4.157  30.822  22.181 -0.0468 -0.0907  0.0548
 8410W        W45904   0.764  24.455   2.279  0.1980 -0.1810  0.0333
 8411W        W45905  27.789  20.012  20.389 -0.1789  0.2544 -0.0780
 8412W        W45906  29.439   4.579  11.284  0.0517 -0.0200 -0.2424
 8413W        W45907  19.172  19.090   2.848 -0.2274  0.1556 -0.0177
 8414W        W45908  16.629  27.544  21.804  0.0199 -0.0066 -0.0481
 8415W        W45909  21.440   5.502  24.196 -0.1861  0.0283  0.0695
 8416W        W45910  23.936  27.243  14.879  0.1499  0.2253  0.1638
 8417W        W45911  26.844  26.522   1.039  0.0281  0.0844 -0.0659
 8418W        W45912  17.960  16.225  18.273 -0.3014  0.2186  0.1663
 8419W        W45913   6.871   5.598   4.329  0.4363  0.2943 -0.1840
 8420W        W45914  31.701  29.152  23.749  0.0544  0.0703 -0.1598
 8421W        W45915  28.700  18.381  10.097 -0.0782  0.1640  0.0434
 8422W        W45916   0.897  24.396  24.795 -0.2819 -0.0114 -0.1643
 8423W        W45917  19.017  31.593   7.894  0.0443 -0.0187 -0.0409
 8424W        W45918  16.291  35.136   4.567  0.0188 -0.2908  0.1650
 8425W        W45919   3.970   2.754  23.125 -0.2485 -0.3320 -0.1266
 8426W        W45920  12.409  24.833   8.070  0.1235 -0.0088 -0.2236
 8427W        W45921  23.033  17.314  22.557  0.1942  0.2039  0.0001
 8428W        W45922   7.582  22.752  21.599  0.1616 -0.1305 -0.1516
 8429W        W45923   7.540   5.065   2.559  0.1925 -0.0190  0.1052
 8430W        W45924  33.042   3.800   1.346  0.0544  0.3235  0.0111
 8431W        W45925  29.201  34.480  12.085  0.1664 -0.1852  0.4200
 8432W        W45926  27.190   9.776  10.247  0.1086 -0.1708 -0.1275
 8433W        W45927   1.447   0.802   1.991  0.3204 -0.1646  0.2743
 8434W        W45928  29.865  34.049  15.150 -0.0477 -0.0672  0.0148
 8435W        W45929  18.909  13.596  21.105  0.1152  0.2355  0.1046
 8436W        W45930   4.352  27.316  11.211  0.0334  0.1468  0.0422
 8437W        W45931  16.575  30.594   3.097 -0.0528  0.1436  0.1465
 8438W        W45932   9.446  34.368  11.596  0.0356  0.0220  0.0589
 8439W        W45933  14.789  21.738   0.614 -0.1359 -0.2537  0.1196
 8440W        W45934  13.409  18.046   1.826 -0.3353 -0.0382 -0.2824
 8441W        W45935  29.155  18.827  16.520 -0.0357 -0.0712  0.0781
 8442W        W45936  32.736  14.965   7.292  0.5353  0.1667 -0.2908
 8443W        W45937  19.137  10.413   2.406 -0.0447  0.0279 -0.1149
 8444W        W45938  13.917   0.919  25.614 -0.0519 -0.0902  0.0762
 8445W        W45939   7.322  22.671   0.499  0.1530 -0.1236  0.0795
 8446W        W45940  12.078  19.890  11.991  0.0759 -0.4704  0.1327
 8447W        W45941  26.570  34.521   1.420  0.0883  0.2248 -0.2605
 8448W        W45942  17.049  29.040  11.385 -0.1735 -0.2491 -0.2436
 8449W        W45943  33.579  23.984  10.250 -0.0401 -0.2234 -0.1169
 8450W        W45944  28.082  28.370   1.074 -0.0819 -0.4382 -0.1161
 8451W        W45945  20.842  10.707  19.824  0.3099  0.0748  0.0796
 8452W        W45946  32.497  12.992  11.479 -0.0405  0.0370  0.2150
 8453W        W45947  21.434   1.957   4.399 -0.0039 -0.4876 -0.2156
 8454W        W45948  34.414  33.264   6.460 -0.2022 -0.2083  0.3686
 8455W        W45949  24.185  20.185  17.467  0.2482  0.0303 -0.0003
 8456W        W45950  22.341  30.660  20.178  0.0082  0.3691  0.1695
 8457W        W45951  18.382   0.999   3.309  0.2356 -0.0092 -0.0681
 8458W        W45952   4.522  33.154  26.151  0.1124 -0.0647 -0.1674
 8459W        W45953  27.271  32.286  17.623  0.0299  0.1657 -0.0723
 8460W        W45954  18.430  27.645   8.750 -0.2624  0.1540 -0.0796
 8461W        W45955  24.286   9.892   2.653  0.1403 -0.0141 -0.0236
 8462W        W45956   1.263  13.020  17.711 -0.0521 -0.0724 -0.0627
 8463W        W45957  21.044   1.296  19.541 -0.4132  0.1896 -0.1177
 8464W        W45958  32.653   3.215   5.228 -0.1695 -0.0144  0.2523
 8465W        W45959  29.788  26.121   1.110  0.3200 -0.0342  0.2166
 8466W        W45960  11.013  28.799   6.068 -0.0095 -0.0368 -0.1093
 8467W        W45961  23.196  35.295  24.747  0.0290  0.1796  0.0575
 8468W        W45962  11.583   8.465  23.917  0.1338  0.1058  0.0711
 8469W        W45963   0.708   2.804   1.569 -0.2664  0.3712 -0.1238
 8470W        W45964  16.416  20.748   7.175  0.0263 -0.3393  0.0956
 8471W        W45965  12.544  35.091  23.433 -0.1706  0.1299 -0.3987
 8472W        W45966  23.850   1.085   3.767 -0.0565  0.1401 -0.0327
 8473W        W45967  31.658  28.283   1.776  0.0315 -0.1271 -0.2039
 8474W        W45968   6.278  27.598   3.851 -0.0524  0.3660 -0.1751
 8475W        W45969  28.248  13.600  13.082 -0.2902  0.0186 -0.3315
 8476W        W45970   1.724  27.046  18.936  0.0747 -0.1552  0.0903
 8477W        W45971  22.647   3.818   0.502 -0.3314  0.1604 -0.2521
 8478W        W45972  33.255  14.519  14.435 -0.2840  0.1957  0.2485
 8479W        W45973  24.659  22.580   1.677  0.0487  0.1193 -0.1474
 8480W        W45974  13.896  10.712   3.719 -0.1025 -0.1048  0.2158
 8481W        W45975   7.727   0.723   3.909 -0.1465  0.3228  0.2410
 8482W        W45976   1.240  17.287  18.760  0.5020 -0.1825  0.4020
 8483W        W45977  16.036  21.751  21.689  0.3245  0.4100 -0.1253
 8484W        W45978  27.451  21.693  24.452  0.0027  0.0927  0.0922
 8485W        W45979  21.610  13.125  17.632  0.4088  0.1506  0.1208
 8486W        W45980  29.209   6.724  10.133  0.0489 -0.0441 -0.0469
 8487W        W45981  31.204   1.104  11.832 -0.0390 -0.3488  0.0908
 8488W        W45982  24.725  30.842  18.679  0.0553  0.1287  0.2125
 8489W        W45983  25.223  26.468  24.500  0.0786 -0.0547 -0.1697
 8490W        W45984  31.636  28.732  12.395 -0.1066  0.1062  0.2805
 8491W        W45985   4.550  24.557   7.619  0.1824 -0.3175 -0.1146
 8492W        W45986   8.333  34.216   9.487  0.1948 -0.1056 -0.0712
 8493W        W45987  23.352   3.667  23.687  0.0349 -0.0608 -0.2969
 8494W        W45988  34.015  14.566  22.068 -0.1507 -0.1232  0.0127
 8495W        W45989  22.250   3.677  18.838 -0.1579  0.2269 -0.2204
 8496W        W45990  21.577  32.249  25.023  0.1420  0.0223  0.0424
 8497W        W45991  30.207   8.763  12.099  0.2593  0.0704  0.4129
 8498W        W45992   2.047   7.009   3.716 -0.2184  0.2805 -0.0123
 8499W        W45993  22.101  12.229  17.905 -0.0839  0.2337 -0.1583
 8500W        W45994   1.898  14.254   1.544 -0.1458 -0.2722 -0.1948
 8501W        W45995   9.484   0.162   7.710  0.3123  0.0558 -0.1840
 8502W        W45996   4.469  28.470   2.059 -0.1237  0.0022  0.0295
 8503W        W45997  15.589  28.542   3.898  0.0494 -0.1887 -0.0462
 8504W        W45998  33.069  20.244   9.159 -0.1995 -0.1514  0.2453
 8505W        W45999  25.954  23.478  16.414 -0.1600  0.0351  0.3202
 8506W        W46000  29.485  15.603  14.178 -0.1845  0.1210 -0.1214
 8507W        W46001   7.976  24.252   0.524 -0.0114  0.0556 -0.0036
 8508W        W46002  17.251  34.878   7.013 -0.0783  0.1055  0.2255
 8509W        W46003  27.370   4.836  25.486  0.1466  0.1045 -0.0152
 8510W        W46004   3.490  24.541  24.440 -0.0824  0.2585 -0.0546
 8511W        W46005   9.359  13.508  21.598 -0.0682  0.2314 -0.0355
 8512W        W46006  22.242  12.518  19.145 -0.0459 -0.5041 -0.0695
 8513W        W46007   9.562   7.166  22.731  0.2017  0.0348 -0.1892
 8514W        W46008   5.949  16.297   1.760  0.2199  0.0216  0.2628
 8515W        W46009   4.358  11.066  24.771  0.3729  0.1990 -0.2012
 8516W        W46010  28.038  22.834  20.754  0.2186  0.1452  0.0477
 8517W        W46011  30.941  19.330  18.814 -0.2633 -0.1633 -0.0581
 8518W        W46012   4.042  29.738   3.011  0.0694 -0.2336  0.2476
 8519W        W46013  34.904   8.818  24.804  0.1880 -0.0707 -0.3048
 8520W        W46014  21.338  11.650  24.036 -0.2988  0.1695 -0.1364
 8521W        W46015  34.518  12.032  21.886 -0.3819 -0.0727 -0.0936
 8522W        W46016   4.063  34.398  24.166  0.1895 -0.1354 -0.1063
 8523W        W46017   5.418   9.342   0.386 -0.0955 -0.0792 -0.1647
 8524W        W46018   2.417  12.862  13.348 -0.0415 -0.1409 -0.2392
 8525W        W46019  13.933   8.486   6.430 -0.2875  0.0435  0.0290
 8526W        W46020  14.092  12.841   9.024  0.2018  0.0582 -0.2783
 8527W        W46021  32.928   9.722   1.176  0.1984 -0.0090 -0.0043
 8528W        W46022  27.837  23.999  23.327 -0.2196  0.0829  0.1314
 8529W        W46023  27.551  34.733  13.402 -0.2364  0.0274 -0.1501
 8530W        W46024  21.964  29.442  13.394 -0.0498  0.0658  0.1928
 8531W        W46025  11.124  17.657  13.052  0.0228 -0.4004  0.0589
 8532W        W46026   9.741  32.324  15.932 -0.3925 -0.0640  0.0512
 8533W        W46027  22.220   6.785  14.653 -0.3275 -0.0411  0.0018
 8534W        W46028  33.788   3.796  13.268  0.1001 -0.2525 -0.0248
 8535W        W46029   3.783  30.727   2.031 -0.2355 -0.0567  0.0110
 8536W        W46030  34.850  30.273  21.290  0.3945 -0.1904  0.2483
 8537W        W46031  19.456   9.572   7.585  0.1166 -0.1519 -0.0048
 8538W        W46032  22.154  25.575   3.733 -0.0095 -0.2483 -0.0619
 8539W        W46033   7.960   0.043  24.021 -0.0878 -0.0500  0.1548
 8540W        W46034  29.106  31.598  22.407  0.1771 -0.1371 -0.3312
 8541W        W46035  16.652  29.756   9.569  0.3980 -0.0570  0.4667
 8542W        W46036  30.382  19.338  18.724  0.0210  0.0990  0.1102
 8543W        W46037  17.911   3.971   8.862  0.0474 -0.1368  0.0483
 8544W        W46038  32.859  15.109  15.099  0.3139 -0.0880  0.2025
 8545W        W46039  16.252  19.859  10.136 -0.2364  0.2702 -0.1381
 8546W        W46040   3.047   4.879   3.606  0.0246 -0.0690 -0.3685
 8547W        W46041  13.989  19.477  11.831  0.0660  0.3241 -0.0521
 8548W        W46042   6.401  13.758   4.073 -0.1703 -0.0176  0.2793
 8549W        W46043  25.210  19.038  15.846 -0.0378  0.1690  0.1510
 8550W        W46044  11.039  20.941  10.590  0.1880  0.0523 -0.0692
 8551W        W46045  17.878   8.535   9.715 -0.0240 -0.3693  0.2432
 8552W        W46046   5.537  12.440   5.167 -0.3359 -0.3289 -0.3282
 8553W        W46047  19.836   8.192  19.329  0.0730 -0.0515 -0.0479
 8554W        W46048  30.616  29.220  21.050 -0.1150  0.0222 -0.1311
 8555W        W46049  29.562   2.907  26.166 -0.0685 -0.1543  0.0709
 8556W        W46050  27.267   0.083   1.591 -0.0204 -0.0636  0.4286
 8557W        W46051  23.366  32.078  24.851  0.0362 -0.1831 -0.1674
 8558W        W46052  29.471  15.593  19.728 -0.1631  0.1267 -0.1683
 8559W        W46053  17.518  31.933  18.570  0.0970 -0.1949  0.2274
 8560W        W46054  11.315  35.364  14.656 -0.2517  0.2138  0.0671
 8561W        W46055  33.603   1.483   3.130  0.0512  0.0360  0.1790
 8562W        W46056  15.588  30.596   6.861  0.2391  0.2178 -0.0775
 8563W        W46057   9.009  31.821  21.917  0.0295  0.0824  0.1213
 8564W        W46058  23.560  13.872  16.891 -0.2128  0.1527 -0.3409
 8565W        W46059  30.216  34.475  13.496 -0.0546  0.1396  0.1813
 8566W        W46060  19.880  17.792  22.769 -0.0653  0.0419  0.5229
 8567W        W46061   6.101  26.649   2.603 -0.2292 -0.0143 -0.0257
 8568W        W46062  15.764  34.960  25.426 -0.1556 -0.2299  0.0011
 8569W        W46063  18.746  18.169  25.290  0.0108  0.1360  0.0480
 8570W        W46064  10.591  19.545  14.738 -0.1576  0.1115  0.0433
 8571W        W46065   8.524   3.052  24.235 -0.1231  0.0530  0.1214
 8572W        W46066   5.202   9.907  19.038  0.2485 -0.0943  0.1661
 8573W        W46067  32.771  26.869  25.103  0.1684 -0.0113  0.2418
 8574W        W46068   8.246   5.477   1.387  0.1145  0.1053 -0.4148
 8575W        W46069  35.175  31.618  25.245 -0.2934  0.0080  0.0651
 8576W        W46070   5.589  30.312  25.874  0.0246 -0.0102  0.1472
 8577W        W46071  33.202  24.732  10.464 -0.0938  0.1719 -0.1552
 8578W        W46072   1.355  22.108  15.745 -0.3337 -0.1231  0.0397
 8579W        W46073  31.802  17.053  21.311  0.2861  0.1458  0.1496
 8580W        W46074   1.026   1.701  16.981 -0.2809  0.1183  0.0187
 8581W        W46075   7.316  22.328   2.079 -0.5219  0.0982  0.0915
 8582W        W46076  34.372  32.916  14.460  0.0477  0.1420  0.1823
 8583W        W46077   3.504  24.035   2.665  0.0998 -0.0099  0.0361
 8584W        W46078  26.294  31.634  15.384 -0.0558  0.1191 -0.1276
 8585W        W46079   3.571  12.572  15.700 -0.3160  0.2028  0.0282
 8586W        W46080  15.813  15.958  10.931 -0.3508 -0.1573  0.0350
 8587W        W46081   4.263  14.689   1.225  0.4555  0.1113  0.1787
 8588W        W46082  35.003  10.697  24.901 -0.2352 -0.3766 -0.1439
 8589W        W46083  21.336   8.131  23.738  0.0614  0.2814 -0.3618
 8590W        W46084   0.626   0.256   8.586 -0.2273 -0.0906 -0.1049
 8591W        W46085  32.129   4.028  14.067 -0.1810  0.1433 -0.0133
 8592W        W46086  26.246   3.796  24.278 -0.1217  0.0268  0.1013
 8593W        W46087   2.676   0.893  22.417 -0.2312  0.0127  0.0966
 8594W        W46088  24.223  13.878  25.075  0.0529  0.2357  0.2827
 8595W        W46089  21.132  20.486  20.999 -0.2758  0.6011  0.0040
 8596W        W46090   3.429   5.827   4.880  0.0381  0.3663  0.0223
 8597W        W46091   1.082  19.081   2.641  0.1134 -0.0135  0.1721
 8598W        W46092  15.031   0.615   4.861  0.3333  0.0936  0.1238
 8599W        W46093   9.345   3.779   1.945 -0.0582 -0.0539 -0.2059
 8600W        W46094  27.844  31.847   2.162  0.0739  0.0167  0.1756
 8601W        W46095  26.638  11.909  23.335 -0.1285  0.5127 -0.2425
 8602W        W46096  30.356  27.435   9.236  0.0373 -0.0371 -0.2100
 8603W        W46097  17.853  23.851   5.815  0.0629  0.2523 -0.2729
 8604W        W46098   8.123  24.709   3.720 -0.0107  0.0555 -0.1786
 8605W        W46099  23.028  23.561   0.492  0.0846  0.0809 -0.3991
 8606W        W46100  30.411  22.236  25.267  0.3088  0.1762 -0.0794
 8607W        W46101  19.878  29.028   4.202 -0.2896  0.1234  0.0344
 8608W        W46102  29.623  13.473  15.547  0.1880 -0.0715  0.1374
 8609W        W46103  17.793  33.353  24.166  0.0984  0.1386 -0.1105
 8610W        W46104  32.116  19.393   6.262 -0.0960 -0.0911 -0.0351
 8611W        W46105  26.722  22.047   9.165  0.0205 -0.0928  0.4958
 8612W        W46106  31.017  30.966  11.588  0.0997  0.1169  0.0555
 8613W        W46107  23.677  27.425   3.364 -0.0413  0.1105  0.0256
 8614W        W46108  13.358  31.841  14.859  0.0239 -0.0828  0.0781
 8615W        W46109  21.150  35.127   2.506 -0.0885 -0.0574 -0.2929
 8616W        W46110  16.779  19.429  10.937 -0.1600 -0.2146 -0.0049
 8617W        W46111  17.271  10.249  11.627 -0.3329 -0.1686  0.1637
 8618W        W46112  25.499  29.063  13.117 -0.1410  0.2478 -0.0232
 8619W        W46113  33.301  15.518  14.174 -0.0107  0.6562 -0.0777
 8620W        W46114  33.870  30.058  19.088  0.0447  0.1531  0.0424
 8621W        W46115  27.320   7.995  19.770 -0.0751  0.3916  0.1859
 8622W        W46116   8.373  29.899  12.162 -0.1406  0.1908  0.6290
 8623W        W46117   8.249  22.724  25.837  0.2072  0.0391  0.0162
 8624W        W46118  35.084   2.045   8.523 -0.1693 -0.0929  0.0008
 8625W        W46119  25.471  25.643  23.820 -0.1626 -0.2378 -0.0358
 8626W        W46120   4.534  29.331   6.227 -0.0850  0.0168 -0.0559
 8627W        W46121   6.070  23.082  22.056  0.0295 -0.3995  0.1717
 8628W        W46122  20.185   2.170  20.387 -0.0405 -0.1324  0.1381
 8629W        W46123  27.275   3.498   3.576 -0.3696 -0.2872  0.2714
 8630W        W46124  32.511   5.192  25.353  0.1133  0.0536  0.0371
 8631W        W46125  16.571  22.041   9.281 -0.3957  0.0894 -0.0273
 8632W        W46126  10.705  27.356   2.035  0.0055  0.1461  0.0453
 8633W        W46127  13.344  21.419  23.348  0.0396  0.2715 -0.0123
 8634W        W46128  15.084  21.259   9.709  0.1994 -0.1834 -0.1072
 8635W        W46129   1.330  34.620  18.875 -0.1625 -0.0275 -0.2480
 8636W        W46130  10.197  26.062  23.300 -0.0936  0.2029 -0.2979
 8637W        W46131  20.501  14.627  21.053 -0.0455  0.1006 -0.0502
 8638W        W46132  23.907  34.044   4.438  0.2817  0.0927 -0.1340
 8639W        W46133  32.890  22.964  14.528  0.1743 -0.0688  0.1939
 8640W        W46134   2.416  26.357  23.891 -0.0566  0.0650  0.0011
 8641W        W46135  25.350   6.942  17.529  0.0332  0.2784  0.1805
 8642W        W46136   3.186  24.806   1.460  0.2398  0.1013 -0.1816
 8643W        W46137  20.495   1.398   5.117 -0.2706  0.1392  0.0539
 8644W        W46138  17.543   2.286  22.990  0.0198 -0.0126 -0.1834
 8645W        W46139  13.379  16.451   9.129 -0.0010  0.0936 -0.1753
 8646W        W46140  27.528   8.524  18.044 -0.1240  0.0134 -0.2086
 8647W        W46141  17.904  16.671  23.651  0.0585 -0.0318 -0.0175
 8648W        W46142  31.704  14.356   7.424 -0.2017  0.0913 -0.0020
 8649W        W46143   7.591   6.822  24.886 -0.0040  0.1154 -0.0165
 8650W        W46144  27.181  32.784  25.791 -0.3595 -0.0113 -0.1017
 8651W        W46145  11.620  24.247   1.504  0.1631 -0.3502 -0.3667
 8652W        W46146   2.810  33.727  17.748  0.3158 -0.0739 -0.3152
 8653W        W46147  31.663  30.724  23.066 -0.1208  0.2151 -0.3386
 8654W        W46148  27.397  18.125  15.849 -0.1200  0.1802 -0.3477
 8655W        W46149  28.263  26.111  11.678 -0.5293 -0.0655  0.0745
 8656W        W46150  12.773  27.318  16.040 -0.3197 -0.0088  0.2011
 8657W        W46151  24.179   1.952  14.482 -0.2946 -0.0004 -0.3088
 8658W        W46152  20.939  13.319  19.045 -0.2560  0.2391  0.1185
 8659W        W46153  13.687   8.529   9.384  0.1815 -0.0872  0.1986
 8660W        W46154   7.957  10.664  22.074 -0.0013  0.0309 -0.3635
 8661W        W46155  24.541  33.756  19.889 -0.3140 -0.2390  0.0213
 8662W        W46156  35.358  30.323   5.743 -0.1644  0.1528  0.0523
 8663W        W46157  25.139  22.779  13.083 -0.0180  0.0110  0.1981
 8664W        W46158  13.393  14.143  18.472 -0.0485  0.1764 -0.0472
 8665W        W46159  16.951  13.650  23.864  0.2071  0.0205 -0.2014
 8666W        W46160   2.542  33.116   7.702 -0.0648  0.3969 -0.1643
 8667W        W46161  19.193  31.325   2.076 -0.1986  0.2272  0.0594
 8668W        W46162  18.916  27.265  24.067  0.3560  0.0341 -0.0062
 8669W        W46163  24.490  18.150  11.018 -0.0152 -0.0648  0.1758
 8670W        W46164  29.368   1.790  13.814 -0.1797  0.1970  0.0496
 8671W        W46165  14.635  19.323   5.650  0.0953  0.0542 -0.1891
 8672W        W46166   6.080  11.441  20.786 -0.1234 -0.3052  0.2202
 8673W        W46167  16.405   2.988  22.170  0.1400  0.1814 -0.1124
 8674W        W46168  31.900  14.262   6.920  0.1659  0.1103  0.4225
 8675W        W46169  28.447  31.936   0.119  0.0253 -0.3956 -0.1058
 8676W        W46170  31.938  15.526   6.042 -0.0763  0.0929 -0.3006
 8677W        W46171  15.176   1.140   0.883  0.0813  0.1426 -0.3437
 8678W        W46172  35.048   1.901  18.203 -0.2226  0.0758  0.4436
 8679W        W46173  31.068  20.507  19.077  0.3215  0.0728 -0.0215
 8680W        W46174  13.133   1.543   9.984 -0.0576  0.1109 -0.0726
 8681W        W46175   9.748  10.350   3.078 -0.1906 -0.0121  0.1299
 8682W        W46176   8.396  23.178   5.895  0.4225  0.2449 -0.0132
 8683W        W46177  15.753  27.527  22.047  0.1572 -0.3347  0.3133
 8684W        W46178  26.074  35.173   4.376  0.0595  0.1140  0.2373
 8685W        W46179  15.812  16.889  11.725  0.1277  0.3145 -0.0424
 8686W        W46180   7.551  14.605   6.375 -0.0782  0.3513  0.1571
 8687W        W46181  10.996   0.623  10.567 -0.2291 -0.0214 -0.0454
 8688W        W46182  16.355  20.799  24.572 -0.0350 -0.0076  0.1994
 8689W        W46183   9.963  13.908  21.230 -0.2030  0.1741  0.3006
 8690W        W46184  15.961  12.558   6.296 -0.0280  0.2614 -0.0228
 8691W        W46185  19.905  25.111   8.489 -0.1288  0.1097  0.1736
 8692W        W46186   1.964   5.301  15.216  0.2559  0.3382  0.3293
 8693W        W46187  28.226   1.542   5.450  0.2219 -0.0270 -0.0168
 8694W        W46188   0.839   6.377  13.872  0.0011 -0.1301  0.0879
 8695W        W46189  19.861  31.710  16.637  0.1792  0.0881  0.0242
 8696W        W46190   5.478  21.592  24.712  0.3846  0.1531  0.0266
 8697W        W46191   4.943   3.440  19.768  0.2916  0.2012  0.1770
 8698W        W46192  17.346   3.706  23.471  0.1533  0.0078 -0.1522
 8699W        W46193  16.325  34.278  10.280 -0.1509 -0.1799  0.0223
 8700W        W46194   6.790   1.704  10.964  0.0487  0.6633  0.0675
 8701W        W46195   6.561   3.747  11.887 -0.4530 -0.2331  0.0296
 8702W        W46196  11.096  33.102  10.510  0.2220 -0.1546 -0.3294
 8703W        W46197  12.051   9.709   0.684  0.3322  0.1851  0.1462
 8704W        W46198  19.328   7.990  22.774 -0.1665  0.2581  0.1599
 8705W        W46199  29.575  31.597  18.499 -0.0866  0.0498  0.1030
 8706W        W46200  18.189  29.095  20.679  0.0235  0.2948  0.0434
 8707W        W46201  34.855  29.991  23.419  0.3190  0.0255  0.3408
 8708W        W46202  11.270  18.816  14.533 -0.1685  0.0529  0.1756
 8709W        W46203   2.079  24.585  20.390 -0.2648 -0.1572 -0.0382
 8710W        W46204  13.236   4.568   8.256 -0.1599  0.1957  0.0001
 8711W        W46205  31.544  18.760  15.139  0.3097 -0.1167 -0.1475
 8712W        W46206  27.731  11.113  17.406 -0.0365 -0.2055  0.1028
 8713W        W46207  33.422  30.586  25.417  0.0706 -0.3444  0.1711
 8714W        W46208  23.706  11.981  22.243  0.1969  0.0551 -0.1712
 8715W        W46209  19.371  15.458  17.593 -0.0627 -0.0694 -0.0463
 8716W        W46210   8.345  29.008  23.998  0.1312 -0.0145  0.1825
 8717W        W46211  17.150  21.711   0.766 -0.1153 -0.3101  0.0037
 8718W        W46212  18.210  24.901  25.780 -0.2442  0.4728  0.1260
 8719W        W46213  19.863   2.792   7.368 -0.3324 -0.1735 -0.2891
 8720W        W46214   0.922  18.471  17.009 -0.1583 -0.0015 -0.1027
 8721W        W46215  15.880  10.211  18.843 -0.0131  0.0484  0.0642
 8722W        W46216   8.059   4.955  20.372  0.3710 -0.1191  0.3731
 8723W        W46217  31.159  34.771   3.913  0.1140  0.2024  0.3021
 8724W        W46218   5.872  25.257  23.713  0.4178 -0.0929  0.1933
 8725W        W46219  10.856  28.610  11.941 -0.3146 -0.0148 -0.1850
 8726W        W46220   6.713   1.323  21.762 -0.0333  0.0949  0.0472
 8727W        W46221  33.641  13.836   9.664 -0.1534  0.3024 -0.1052
 8728W        W46222   7.031  26.247   7.943  0.3289  0.2283  0.2875
 8729W        W46223  21.994   9.103   7.860  0.0087 -0.0840  0.1421
 8730W        W46224   1.773   4.160   0.247  0.1857 -0.3640 -0.0747
 8731W        W46225  29.730  32.510   5.929 -0.0857  0.0272  0.0736
 8732W        W46226  10.758   3.196   7.514  0.0554 -0.0133  0.1532
 8733W        W46227  17.121  33.426  19.949 -0.0115  0.1016 -0.0318
 8734W        W46228  32.444  18.110  25.653  0.2030 -0.0932  0.1627
 8735W        W46229  34.395  17.453  22.124 -0.1370  0.1382  0.1535
 8736W        W46230  32.145  14.035   8.015 -0.2005  0.1903 -0.0350
 8737W        W46231   7.692  20.823   4.730 -0.2611  0.1502  0.0839
 8738W        W46232  25.458  24.093  12.708  0.0250 -0.0271 -0.1685
 8739W        W46233  30.196   7.488  15.265 -0.0105  0.1472 -0.0277
 8740W        W46234   6.796  12.378   6.928 -0.4078  0.1691 -0.1004
 8741W        W46235  21.069   7.557   2.577  0.1409  0.1143  0.1927
 8742W        W46236  19.817  10.280   2.074  0.0139  0.0323  0.2199
 8743W        W46237  22.593  34.353   7.528 -0.1035  0.0764  0.2491
 8744W        W46238  32.664  11.460   7.079  0.2448 -0.3030 -0.3727
 8745W        W46239   0.549  33.262  23.851 -0.5890  0.1164 -0.0586
 8746W        W46240  27.265  32.026  12.625 -0.2244  0.0282  0.2185
 8747W        W46241  16.991   2.538  23.617  0.1196 -0.1402 -0.3653
 8748W        W46242  23.596  28.968  21.129  0.0167  0.2132 -0.0755
 8749W        W46243  25.807  16.426  15.203 -0.1004 -0.1696  0.1683
 8750W        W46244  26.377  35.275   3.351  0.0864 -0.0572  0.1676
 8751W        W46245   4.819  13.425  18.610  0.2411 -0.0804 -0.1754
 8752W        W46246   4.190  12.470   2.277  0.1043  0.1424 -0.1048
 8753W        W46247  35.309   7.419  15.093  0.1351  0.0720 -0.3929
 8754W        W46248  24.889  24.849   9.655  0.1056 -0.0747 -0.2050
 8755W        W46249   8.174  29.666  24.477  0.1976  0.0527  0.0733
 8756W        W46250  22.442   8.259   2.605 -0.1363  0.0224 -0.2147
 8757W        W46251  22.953  34.310  17.398  0.3449 -0.0003 -0.0681
 8758W        W46252   1.652  29.949  24.705  0.0646 -0.3536 -0.4064
 8759W        W46253  18.870  11.982  21.008  0.0110  0.0019  0.0508
 8760W        W46254  24.770  18.159  14.878 -0.0681  0.0005  0.3597
 8761W        W46255  19.257  17.600  21.435 -0.1890 -0.0303  0.1935
 8762W        W46256  10.638  16.700  24.569 -0.0046  0.0459  0.1416
 8763W        W46257  28.119  30.794  26.028  0.0672 -0.1847  0.1718
 8764W        W46258  24.798  30.180   0.381 -0.0146 -0.1311 -0.2760
 8765W        W46259  15.704  33.843  22.621 -0.1032  0.0967 -0.1302
 8766W        W46260  26.022  32.382  13.955  0.1784  0.1057  0.1023
 8767W        W46261  27.866   4.700  23.211  0.0921 -0.3464  0.0745
 8768W        W46262  24.921  15.115  20.960  0.0265  0.2013  0.0543
 8769W        W46263  20.234  24.210   6.623  0.0722 -0.2014  0.2472
 8770W        W46264  29.255  17.172  17.262 -0.2320  0.0239  0.1441
 8771W        W46265  33.550  33.112  17.530  0.0354  0.1701  0.0779
 8772W        W46266  24.547  13.761  17.049 -0.2836 -0.1708 -0.0752
 8773W        W46267  11.451   6.126   8.567 -0.0606  0.2683 -0.1545
 8774W        W46268   6.047   4.905   7.592  0.3004  0.0136  0.0226
 8775W        W46269   5.690  34.488  25.490 -0.0777 -0.0394  0.2167
 8776W        W46270  27.936  22.591  21.731 -0.0461 -0.0059 -0.1676
 8777W        W46271  17.773  27.717  20.726 -0.0084  0.0374 -0.0444
 8778W        W46272  16.710  25.169  23.701  0.1191 -0.2654 -0.1577
 8779W        W46273   8.004  34.682  22.063 -0.0305  0.0549  0.0723
 8780W        W46274  33.857   9.675  19.374 -0.1004  0.3562 -0.2003
 8781W        W46275  25.027  33.501  24.930 -0.1310  0.2298  0.2574
 8782W        W46276  25.443   0.368  17.197 -0.1171 -0.2204 -0.1061
 8783W        W46277  27.021  10.997   7.924 -0.2049  0.0293 -0.1934
 8784W        W46278  12.588  20.669   2.345 -0.1337  0.1174  0.1156
 8785W        W46279  15.074  24.627  24.459 -0.1063  0.2378  0.1831
 8786W        W46280  29.875   8.666   8.266 -0.0111  0.2216  0.4421
 8787W        W46281  17.065  13.256  21.490 -0.0097  0.0857  0.1081
 8788W        W46282  34.780  24.905  21.933 -0.2311  0.0084  0.1637
 8789W        W46283  32.719  23.190  25.778  0.1082 -0.0398  0.0953
 8790W        W46284   5.067  33.279  11.263 -0.0775 -0.0381  0.0381
 8791W        W46285   6.530  23.918  11.218 -0.0787 -0.3554  0.0289
 8792W        W46286  25.721  11.335  18.585 -0.1188  0.1409  0.2550
 8793W        W46287   0.000  19.169  10.199 -0.0235 -0.1818  0.1305
 8794W        W46288   0.360  31.727   2.117 -0.2255  0.1623  0.3752
 8795W        W46289  34.029  21.598  11.284  0.1585  0.0458 -0.1286
 8796W        W46290   1.570  34.473   7.818 -0.0499 -0.0977 -0.0820
 8797W        W46291  22.374  10.447  19.693  0.1092  0.1827 -0.0702
 8798W        W46292  13.852  23.506   7.547 -0.2950 -0.0572  0.0270
 8799W        W46293  28.784  12.423  13.167  0.1964  0.0336 -0.0399
 8800W        W46294   0.911  18.803  12.065  0.0621 -0.3046 -0.0808
 8801W        W46295  21.026  15.075  25.223  0.1509 -0.0328  0.2137
 8802W        W46296  26.358  32.556  21.966 -0.0783  0.3829  0.1752
 8803W        W46297   3.272  12.348  25.612 -0.0535  0.0567 -0.1612
 8804W        W46298  20.973  22.684  21.652  0.0317  0.0815  0.0190
 8805W        W46299   2.005   4.340   3.600 -0.2246 -0.2378  0.3787
 8806W        W46300   0.521  29.251   6.487 -0.0934 -0.3392 -0.1616
 8807W        W46301  29.306  24.249  21.536  0.2891 -0.0591  0.0678
 8808W        W46302  17.891   4.633  21.150  0.0946  0.0497 -0.0044
 8809W        W46303   2.698   9.441  23.264  0.2890  0.0938 -0.2059
 8810W        W46304  30.226  17.796  14.331  0.7425 -0.0114  0.3157
 8811W        W46305   1.723  14.693  14.494  0.3424 -0.0045 -0.1333
 8812W        W46306  23.014  15.227  23.688 -0.1614  0.4593 -0.0217
 8813W        W46307  27.730   9.254  16.058  0.0020  0.2617 -0.0194
 8814W        W46308   5.677  35.207  26.019  0.2823  0.0591 -0.2119
 8815W        W46309  23.860   0.608  20.206  0.1027 -0.0634 -0.2876
 8816W        W46310  20.165  34.504  16.069 -0.4968  0.3869  0.1044
 8817W        W46311  15.217  14.594  19.703  0.0717 -0.0827  0.0244
 8818W        W46312  16.259  15.480  12.161 -0.0169  0.0220  0.0762
 8819W        W46313   0.575   9.166  20.638  0.0848  0.0030  0.0747
 8820W        W46314  15.327   1.344  25.439 -0.0643 -0.1636  0.0033
 8821W        W46315  21.081  29.909   1.838  0.1563  0.1390  0.1066
 8822W        W46316  23.419  30.950  16.737 -0.0100  0.0641 -0.2857
 8823W        W46317  30.606   1.218  24.445 -0.0349 -0.1956  0.2290
 8824W        W46318  32.474  24.587   1.443 -0.1274  0.1395 -0.0042
 8825W        W46319  22.316   8.929  19.533  0.1609  0.0166 -0.0052
 8826W        W46320  25.899   7.776  20.064  0.1185 -0.2575  0.1154
 8827W        W46321  33.829   7.552  11.850 -0.3153 -0.0173 -0.0455
 8828W        W46322  33.634  25.144  12.735 -0.0959  0.1510  0.3147
 8829W        W46323  12.812  13.237  11.193  0.0222 -0.1902  0.3366
 8830W        W46324   9.270  22.804  25.209  0.0217  0.0126 -0.3517
 8831W        W46325  21.702  31.954   6.792 -0.4642 -0.0353  0.0898
 8832W        W46326  23.131  13.751  22.399  0.1359 -0.1139  0.1649
 8833W        W46327   2.511   4.417  16.500 -0.1767 -0.0120 -0.0874
 8834W        W46328  33.387  25.453  12.358 -0.0503 -0.0295  0.1982
 8835W        W46329  33.610  15.061  25.255  0.0056  0.0284 -0.3403
 8836W        W46330  19.327   7.265  22.524 -0.0559 -0.0015 -0.0531
 8837W        W46331  32.193  26.359  19.088 -0.1413  0.1099  0.1577
 8838W        W46332  28.014  19.846   5.125  0.0265 -0.3636 -0.0595
 8839W        W46333  16.913  19.880   7.759  0.0341  0.0858 -0.0777
 8840W        W46334   8.643  32.296  13.049 -0.1565  0.2004 -0.0375
 8841W        W46335   6.561  14.125  11.982  0.2105 -0.1289  0.3154
 8842W        W46336  25.165  34.369  16.296 -0.1860  0.0851  0.0375
 8843W        W46337   9.011  21.534   4.642  0.1171 -0.0686  0.2699
 8844W        W46338   6.850   9.762   9.738  0.1474 -0.1838 -0.1608
 8845W        W46339  13.617   7.245  22.587  0.1269 -0.0392  0.2690
 8846W        W46340   9.538  21.501   8.570  0.0197 -0.1005  0.1061
 8847W        W46341  24.418   5.492   5.340  0.4716  0.2597  0.0584
 8848W        W46342  14.812  34.344   9.843  0.2789 -0.0537  0.0596
 8849W        W46343  25.558  31.249  17.925 -0.4170 -0.1908  0.1175
 8850W        W46344  30.625   7.411  19.685 -0.2298 -0.0239 -0.0863
 8851W        W46345  11.132  23.199   0.972  0.1018 -0.2683  0.0739
 8852W        W46346  27.288  14.647  20.036  0.1087  0.1141 -0.1043
 8853W        W46347  27.235  24.749  18.085  0.2658  0.3995  0.1223
 8854W        W46348   1.021  35.147   3.055 -0.1980 -0.0123  0.0003
 8855W        W46349   0.217  23.279  15.220  0.0559  0.0783 -0.1864
 8856W        W46350  20.272  14.811   9.258  0.1438  0.0329 -0.3513
 8857W        W46351  19.689  31.599   1.530  0.1647 -0.0360 -0.1447
 8858W        W46352   2.968  22.563  20.485 -0.3466 -0.0532 -0.3821
 8859W        W46353   2.024  25.468  16.626  0.0641  0.0207  0.1648
 8860W        W46354  35.125  31.410   3.447  0.0266 -0.0261  0.0383
 8861W        W46355  17.915   5.904  23.180 -0.1443 -0.3128 -0.0954
 8862W        W46356  24.977  33.741  17.507 -0.0365 -0.3356 -0.0283
 8863W        W46357  15.903  24.204  14.053  0.2464  0.4816 -0.1056
 8864W        W46358   4.715  10.905  21.375  0.3258 -0.0159 -0.2111
 8865W        W46359  13.094  29.575  21.810  0.1695  0.2006  0.1837
 8866W        W46360   7.014  27.443  10.648 -0.2512 -0.0199 -0.0396
 8867W        W46361   1.085  18.147  13.067  0.1617 -0.0366  0.2085
 8868W        W46362  32.983  15.749  11.214  0.2529 -0.2857  0.1608
 8869W        W46363  33.330  14.657   7.804  0.1066  0.1778  0.2546
 8870W        W46364   6.318  16.026  20.426 -0.0205 -0.1865  0.0776
 8871W        W46365  34.471  26.737  20.097 -0.1359  0.1147  0.4172
 8872W        W46366  20.859  10.795  24.378 -0.1993  0.1491 -0.4690
 8873W        W46367   9.928  25.964   1.826 -0.0465  0.0458 -0.0584
 8874W        W46368  24.545  33.044  12.568 -0.0273  0.0324  0.0453
 8875W        W46369  34.702  12.924  17.489  0.2163 -0.0617 -0.2054
 8876W        W46370   7.583  10.421  25.379  0.2529 -0.0236  0.0265
 8877W        W46371   4.552   2.390  17.890  0.4418 -0.2290  0.2902
 8878W        W46372  32.389  34.357   0.530 -0.2316  0.0313 -0.3253
 8879W        W46373   1.735   3.914  19.565  0.4129  0.0966  0.2160
 8880W        W46374  26.909  19.417  21.533  0.1020  0.0067  0.1458
 8881W        W46375  21.049  32.741   5.921 -0.0263 -0.2117  0.1055
 8882W        W46376  17.458  13.735  10.621  0.2494 -0.1643  0.2925
 8883W        W46377  24.997   6.455   3.037  0.2441 -0.0312 -0.0079
 8884W        W46378  22.632  25.717  15.121  0.2339  0.1364 -0.1752
 8885W        W46379  26.860  33.858  15.092 -0.3291 -0.3124 -0.1489
 8886W        W46380  31.765  22.962  21.553  0.1045 -0.2984  0.2348
 8887W        W46381   1.816   5.694   4.471  0.2391  0.1379  0.0661
 8888W        W46382   8.630  26.493   4.903 -0.1698  0.0330  0.0534
 8889W        W46383   3.175  17.217  17.938 -0.0832 -0.1155 -0.0475
 8890W        W46384  21.790   5.062  18.512  0.0478 -0.1354  0.1792
 8891W        W46385   1.249  25.203  14.902 -0.0738  0.2757  0.2453
 8892W        W46386  18.155  26.858  25.515 -0.0005  0.3324  0.0345
 8893W        W46387  27.499  19.886   7.038  0.1710  0.2696 -0.2025
 8894W        W46388  13.584  23.829  12.265 -0.3720  0.0771 -0.3364
 8895W        W46389  12.687  16.389  11.473  0.1554  0.0291  0.1022
 8896W        W46390   4.747  29.318  21.716 -0.2348  0.1027  0.0727
 8897W        W46391  15.267  33.173  23.614 -0.2458 -0.0339 -0.1263
 8898W        W46392  15.427  27.232  13.306 -0.1042 -0.0588  0.0096
 8899W        W46393  24.687  24.577  21.832 -0.0623 -0.1766  0.3168
 8900W        W46394   2.615  32.267  19.631 -0.2610 -0.0446 -0.0081
 8901W        W46395   8.764   3.087  10.856 -0.0336 -0.0658  0.2378
 8902W        W46396  15.163   2.199   5.709 -0.2336  0.1247 -0.4773
 8903W        W46397   1.581  16.106  18.420 -0.0386 -0.2851 -0.3886
 8904W        W46398  28.353  27.323  15.386  0.2123 -0.1604  0.0017
 8905W        W46399  30.528   5.063   0.060  0.0245 -0.0489 -0.0389
 8906W        W46400   8.063  17.042   5.036 -0.1442 -0.0696  0.2924
 8907W        W46401  11.303  20.127   7.639  0.0971 -0.0585 -0.0190
 8908W        W46402   6.220   7.916   1.299  0.2354  0.0671 -0.1251
 8909W        W46403  34.286  24.077  23.678 -0.1312 -0.1200 -0.1827
 8910W        W46404   1.593  27.609   8.407 -0.1142 -0.0077 -0.1733
 8911W        W46405  19.161  34.934  21.403 -0.0368  0.0064 -0.1700
 8912W        W46406  23.583  25.045   2.029  0.3603 -0.2848  0.1746
 8913W        W46407   9.659  19.620   6.444  0.0701  0.2161 -0.5300
 8914W        W46408   6.741  25.475   6.152 -0.2171 -0.0231 -0.0115
 8915W        W46409   1.121  33.529   3.544 -0.1442 -0.0034  0.2311
 8916W        W46410  31.590  15.408   5.412  0.2436  0.2239  0.1140
 8917W        W46411  28.541  29.815  11.085 -0.3845  0.0584  0.5185
 8918W        W46412   3.638  34.147  10.906  0.3382  0.0070  0.1498
 8919W        W46413   8.384  34.475   5.979 -0.3811  0.1968 -0.1083
 8920W        W46414  24.836  32.752  22.122  0.2094  0.0338  0.3865
 8921W        W46415  24.861   2.111  18.094  0.0086  0.2296 -0.3494
 8922W        W46416  15.459   1.770  19.814  0.0491 -0.1820  0.2268
 8923W        W46417  20.607   7.632  19.383 -0.1430 -0.0430 -0.1010
 8924W        W46418  18.574   8.718  26.193 -0.0594 -0.3838 -0.1903
 8925W        W46419   7.441  17.831  25.198  0.1794  0.2027 -0.0541
 8926W        W46420  25.499  12.477  15.534  0.0683 -0.1541 -0.0701
 8927W        W46421   8.040   4.908   8.483 -0.0718 -0.3348  0.1606
 8928W        W46422  23.365  31.011   2.059 -0.1301  0.0026 -0.0297
 8929W        W46423  19.822  24.221  24.575  0.1177  0.2119 -0.0499
 8930W        W46424  14.370  12.196   7.660  0.0604 -0.1928  0.2458
 8931W        W46425  34.767   6.127   5.091  0.2394 -0.0152 -0.0018
 8932W        W46426  22.212   8.088  17.938 -0.2670 -0.2376  0.1787
 8933W        W46427   6.646  13.438   9.550 -0.0296 -0.2870 -0.1730
 8934W        W46428  32.514  23.640  17.482 -0.0580 -0.0416  0.0010
 8935W        W46429   7.047   1.863   6.700 -0.0064 -0.2988 -0.1458
 8936W        W46430  33.032   6.624  14.503 -0.2488 -0.0802  0.0820
 8937W        W46431  28.764   8.634  14.265  0.1893 -0.2049  0.0221
 8938W        W46432   7.717  23.379  12.864 -0.1520  0.2017  0.1117
 8939W        W46433  16.431  19.293   6.008 -0.0734  0.0202  0.0024
 8940W        W46434  31.788  25.348  23.829 -0.0648  0.1275 -0.4360
 8941W        W46435   7.168  23.567   9.082 -0.2033  0.1426 -0.1674
 8942W        W46436   2.058  23.935  25.741  0.0495 -0.0669  0.1919
 8943W        W46437  28.559  20.203   7.242  0.0161  0.0776  0.1209
 8944W        W46438  19.725  22.439  23.910  0.1974  0.3408  0.3454
 8945W        W46439  14.476  17.041  23.229 -0.3985 -0.0376 -0.0136
 8946W        W46440  11.202  34.327  23.565 -0.0323 -0.0703 -0.2887
 8947W        W46441  18.412  23.173  11.674 -0.0096 -0.2079 -0.4766
 8948W        W46442  31.029  27.938   2.587  0.2101  0.1302 -0.4089
 8949W        W46443   3.130  12.974  21.608  0.0196 -0.1485  0.0187
 8950W        W46444   4.500  26.652   4.727 -0.2165 -0.3402  0.0000
 8951W        W46445  34.950  21.255  12.797 -0.1338 -0.1004  0.0385
 8952W        W46446  31.553  19.145  16.974 -0.4070  0.2887  0.1457
 8953W        W46447  27.837  35.320  23.711 -0.2680  0.2943 -0.1254
 8954W        W46448   1.275  33.556  24.685  0.0674  0.0563 -0.0128
 8955W        W46449   5.788  22.823   7.809 -0.0629  0.0172  0.0033
 8956W        W46450  21.573  14.745  16.181 -0.0816 -0.0465  0.0642
 8957W        W46451  15.482  28.485  20.966  0.4707 -0.0580  0.0557
 8958W        W46452   7.188  14.963  21.571 -0.2822  0.2669 -0.1984
 8959W        W46453  11.942  27.006   0.846  0.0538  0.0948 -0.1966
 8960W        W46454  11.984  26.505   2.764 -0.1482 -0.1729 -0.1972
 8961W        W46455   4.170  11.993  21.823  0.2119  0.2338  0.0664
 8962W        W46456  12.157  29.276   9.374  0.1803  0.1370 -0.0652
 8963W        W46457  12.974  12.136  12.103  0.1721  0.0228 -0.1988
 8964W        W46458  20.081   2.011   4.733  0.2099 -0.0180  0.1524
 8965W        W46459  10.222  16.106   3.420 -0.1509 -0.0977 -0.0567
 8966W        W46460  34.137  17.288   8.246  0.0129 -0.0606  0.0449
 8967W        W46461  19.498  34.613   7.233 -0.2595 -0.0469  0.1245
 8968W        W46462  10.841   8.482  23.119  0.0665 -0.1646 -0.0991
 8969W        W46463   1.427  17.935  10.533 -0.1028  0.1754 -0.3666
 8970W        W46464  11.323  28.286   2.877  0.0508 -0.0981 -0.0059
 8971W        W46465  12.845  21.327  15.838  0.0356 -0.0158 -0.1109
 8972W        W46466   3.516   0.720   0.498 -0.2319 -0.1030  0.0244
 8973W        W46467  10.726  20.746  14.403  0.1586 -0.0260  0.1883
 8974W        W46468  15.099  27.507   8.130  0.2940 -0.1386 -0.2323
 8975W        W46469  30.998  35.256  20.713 -0.0478 -0.1830  0.0109
 8976W        W46470  25.425  12.198  23.604  0.0788  0.2045  0.0380
 8977W        W46471  32.911  32.841  13.091 -0.1737 -0.1597 -0.0684
 8978W        W46472   0.839   7.031  18.451 -0.1484  0.2316 -0.0610
 8979W        W46473  30.597  10.781  13.943  0.1130 -0.0156  0.0019
 8980W        W46474  32.534   9.808  11.385  0.0446 -0.1136  0.0290
 8981W        W46475   2.055  22.747  25.902  0.1020  0.2933 -0.1645
 8982W        W46476   3.789   7.938   3.439  0.2004 -0.1510  0.1290
 8983W        W46477   7.055   5.857  10.026 -0.4303  0.1425 -0.0228
 8984W        W46478   0.363   7.076   1.323  0.0303  0.0945  0.1251
 8985W        W46479  12.330  21.106   4.456 -0.1081 -0.0539  0.0133
 8986W        W46480  33.881  22.956  23.035 -0.1092  0.1729  0.0608
 8987W        W46481   2.298  18.569  18.668 -0.3359 -0.1045 -0.1105
 8988W        W46482  30.103  31.089  22.662 -0.2658 -0.2316  0.0291
 8989W        W46483  11.811   6.540   9.831  0.1844 -0.0787 -0.0761
 8990W        W46484   3.719  13.271   2.878  0.2931  0.0820  0.0016
 8991W        W46485  14.288  28.733  13.913 -0.0164  0.0803 -0.2646
 8992W        W46486   4.906  23.564  24.583 -0.3230  0.2487  0.0546
 8993W        W46487  23.761  10.038  25.776 -0.3462  0.3517 -0.2152
 8994W        W46488  24.687  34.000   1.504  0.0422 -0.1991 -0.2447
 8995W        W46489  19.969  19.541  23.569  0.0332 -0.0513 -0.1850
 8996W        W46490   7.138   6.486   8.804 -0.0984 -0.0862  0.1740
 8997W        W46491  23.978  33.220  24.493 -0.1247 -0.3287 -0.0142
 8998W        W46492   5.292  13.926   7.880  0.2127  0.0013  0.0372
 8999W        W46493  16.342  34.610   3.634  0.1886  0.4510  0.0502
 9000W        W46494   9.528   9.395  19.946 -0.1283  0.1155 -0.0140
 9001W        W46495  12.215   0.507  21.101  0.2403 -0.1916 -0.2421
 9002W        W46496  30.409  14.254  19.581  0.0149  0.2222  0.2001
 9003W        W46497   3.518   0.643  26.124  0.0086 -0.0235  0.3410
 9004W        W46498   6.998   3.744  12.247 -0.0019  0.2362 -0.1613
 9005W        W46499  33.600  16.618   8.829  0.2133 -0.1962 -0.0386
 9006W        W46500  29.341  31.421  16.360 -0.2598 -0.0069 -0.1263
 9007W        W46501   6.133   6.440   6.373  0.0247 -0.0509 -0.1038
 9008W        W46502  28.953   7.481  11.722  0.1794  0.0268 -0.0676
 9009W        W46503  28.421  25.341  22.058  0.0961  0.0156  0.0792
 9010W        W46504  16.356  28.966   5.837 -0.2572 -0.1472  0.2527
 9011W        W46505  24.808  31.847  22.421 -0.1424  0.2350 -0.2956
 9012W        W46506   9.811  33.520  25.870 -0.0214  0.0100 -0.0456
 9013W        W46507  34.471   5.051   6.359  0.1089  0.2646 -0.1570
 9014W        W46508   5.557   8.388   3.397 -0.0221  0.0579  0.3291
 9015W        W46509  26.296  10.428  21.104  0.1199 -0.1291  0.2566
 9016W        W46510  11.490  30.586   9.382 -0.1205  0.0600  0.0622
 9017W        W46511  30.378   9.802   8.477  0.1671  0.1508  0.1339
 9018W        W46512  35.346   9.930  11.852  0.0821 -0.1655  0.1953
 9019W        W46513  34.286   0.562   0.765  0.2143  0.0844  0.1404
 9020W        W46514  21.915  28.988  20.694 -0.1926  0.0021 -0.0948
 9021W        W46515  24.844  14.655  15.064 -0.3386  0.1484 -0.1765
 9022W        W46516   7.801  15.425   8.158 -0.0479 -0.0079 -0.0813
 9023W        W46517   2.729  16.865   0.876 -0.1837  0.1723  0.1175
 9024W        W46518   2.674  11.918  23.786 -0.0230  0.2834 -0.2457
 9025W        W46519  13.725  34.910   4.490 -0.0409 -0.0823 -0.0334
 9026W        W46520  13.806  32.841   5.235  0.0515  0.1532 -0.0159
 9027W        W46521   0.615   8.548   4.001 -0.1293  0.2809 -0.2062
 9028W        W46522   9.742   8.560   7.254 -0.1849  0.3403  0.2942
 9029W        W46523  19.590  17.169  21.515 -0.2640 -0.1412  0.0207
 9030W        W46524   2.280  19.211  13.034 -0.3557  0.0608  0.1206
 9031W        W46525   6.191   1.470   5.859  0.4132 -0.2254  0.2122
 9032W        W46526  22.951  24.572  21.585  0.0620  0.0299 -0.0593
 9033W        W46527  11.284   0.651  26.073 -0.2341  0.1064  0.0719
 9034W        W46528   2.040  19.446  13.934  0.1712 -0.2130 -0.1508
 9035W        W46529  27.611  31.953  21.176  0.0754  0.0718 -0.0906
 9036W        W46530  19.432  22.326   8.158 -0.1643  0.3349  0.2212
 9037W        W46531  12.258  18.529  11.644 -0.1454  0.1757  0.1712
 9038W        W46532   2.296   5.419   7.215 -0.0682  0.2002  0.3225
 9039W        W46533  13.935  25.007   8.840 -0.0763 -0.1034 -0.5256
 9040W        W46534  18.906  14.229   3.819 -0.1376  0.0350 -0.1460
 9041W        W46535   9.855   2.097   0.362 -0.1331  0.3395  0.1340
 9042W        W46536  18.450   7.575  10.703 -0.0388  0.0299 -0.1285
 9043W        W46537  17.759  30.302   3.198 -0.1390  0.0206  0.0530
 9044W        W46538   8.045  31.046  25.630  0.0492 -0.0473  0.0116
 9045W        W46539  33.022  26.170   0.594  0.1412 -0.3708  0.1514
 9046W        W46540  32.657  13.525   8.502  0.1995  0.0632 -0.0782
 9047W        W46541  29.595  22.721  20.818 -0.1897  0.0907 -0.0790
 9048W        W46542   4.736  27.160  12.203 -0.2920  0.2985 -0.0772
 9049W        W46543   8.586  12.157  21.950  0.0797  0.0028  0.0846
 9050W        W46544   6.935   7.289   8.086 -0.2117  0.0646 -0.0589
 9051W        W46545  32.374  32.805  24.203 -0.2614  0.0776 -0.1103
 9052W        W46546  31.967   5.299   3.682 -0.0807  0.1888 -0.1099
 9053W        W46547  15.984  28.379  22.215 -0.0270 -0.4263 -0.2854
 9054W        W46548  16.359   3.174  20.654  0.0480  0.1074 -0.2770
 9055W        W46549  14.372  18.927   6.918 -0.0252 -0.0175  0.0326
 9056W        W46550  11.419  15.257  12.312  0.1226 -0.3325 -0.3365
 9057W        W46551   2.598   9.882  23.483  0.1429  0.4038  0.1864
 9058W        W46552  31.849   5.757  22.268  0.1082 -0.0923  0.0870
 9059W        W46553   9.080  24.606   7.490  0.1753 -0.4177  0.0602
 9060W        W46554   4.642  24.920   2.448  0.0551 -0.2514  0.2049
 9061W        W46555  32.660  20.577  15.883  0.2817 -0.1094  0.0348
 9062W        W46556  20.744   5.379  19.835 -0.1421 -0.1602  0.3203
 9063W        W46557  32.603  21.371  20.038 -0.2054 -0.1436 -0.3179
 9064W        W46558  22.426  22.276   4.682 -0.0301  0.3761  0.2236
 9065W        W46559  23.098  15.955  23.911  0.3197 -0.0449  0.2909
 9066W        W46560  35.131   1.996  24.239 -0.2127 -0.0032 -0.1700
 9067W        W46561  16.495  20.192   1.215  0.3167 -0.1069  0.0852
 9068W        W46562  12.886  23.869  10.500  0.2644 -0.0959  0.2705
 9069W        W46563  14.494  21.457   9.994  0.1223  0.3702 -0.0696
 9070W        W46564  20.307  30.517  16.094  0.0066 -0.0982  0.0354
 9071W        W46565  18.846  17.274   0.511 -0.3359  0.0850 -0.1093
 9072W        W46566  25.744  25.410  16.775  0.3018  0.1928 -0.0700
 9073W        W46567  30.851  30.515  14.562  0.0573 -0.1027  0.1459
 9074W        W46568   8.462  27.528  10.057 -0.0958 -0.1242 -0.0055
 9075W        W46569  30.968  34.600  16.261 -0.2789  0.0020 -0.2295
 9076W        W46570  26.060   7.414   1.572  0.0214  0.0839 -0.0320
 9077W        W46571   6.780  34.687   1.213  0.0231 -0.0577  0.2269
 9078W        W46572   2.377   9.318  22.819 -0.1205 -0.2019  0.2356
 9079W        W46573  30.814   5.314   4.379  0.0268  0.0804  0.0302
 9080W        W46574  33.571  32.472  12.595 -0.1087 -0.0665  0.0240
 9081W        W46575  17.794  11.941   7.588 -0.1340  0.0475 -0.4325
 9082W        W46576   4.714  14.273   6.405 -0.0154  0.0478 -0.1173
 9083W        W46577   8.441  21.352   7.674 -0.2836  0.1446  0.0667
 9084W        W46578   2.607  15.677  18.521 -0.1639 -0.0166 -0.0986
 9085W        W46579   5.363  25.927   2.611 -0.0327 -0.0030  0.0861
 9086W        W46580  12.758  21.363  23.949  0.0457  0.1958 -0.0672
 9087W        W46581  23.621  12.440  16.082 -0.0735  0.0932 -0.0994
 9088W        W46582  32.513   3.643  22.785 -0.2702  0.0723  0.2297
 9089W        W46583  28.860  32.376  12.187  0.1058  0.0016 -0.1631
 9090W        W46584  26.154  29.134  17.427  0.0655 -0.1223  0.0273
 9091W        W46585   7.470   9.955   3.742 -0.1288 -0.1052  0.0150
 9092W        W46586  15.175  31.016  21.293 -0.0319 -0.0344  0.1813
 9093W        W46587  28.376  29.275  20.514  0.0083 -0.3897  0.1053
 9094W        W46588  17.295  18.928   0.289  0.0560  0.0770  0.1494
 9095W        W46589  26.545  30.457  16.843  0.0229 -0.0667  0.3494
 9096W        W46590   6.441   3.381  24.804  0.0779 -0.2301 -0.1535
 9097W        W46591  28.803  25.666  22.298  0.4047  0.0337  0.3161
 9098W        W46592   9.323  27.386   5.825  0.1748 -0.3714  0.3453
 9099W        W46593  18.867  23.589  10.808 -0.0371 -0.1375 -0.4586
 9100W        W46594   2.456  24.606   0.875 -0.0938  0.1250  0.1818
 9101W        W46595  23.505  21.962  20.914  0.1890 -0.0161  0.0353
 9102W        W46596   3.219  11.352  14.863 -0.0881 -0.1043  0.1675
 9103W        W46597  22.196  19.400   0.455 -0.1956 -0.0450  0.1946
 9104W        W46598  31.597  27.881  23.557  0.1450  0.0849  0.1446
 9105W        W46599   9.967  18.286  11.446 -0.0725 -0.0076 -0.0863
 9106W        W46600  12.171  14.697  20.608  0.1886 -0.2699  0.3066
 9107W        W46601  33.169  16.135  26.014 -0.1432 -0.1123  0.1581
 9108W        W46602  28.708  12.888   7.939  0.0432 -0.2061  0.0619
 9109W        W46603  24.392  13.909  12.052  0.0853 -0.0120 -0.0867
 9110W        W46604  25.849  14.914  15.741  0.0263 -0.0337 -0.2248
 9111W        W46605   3.472  10.672  19.036 -0.2137  0.0935 -0.3257
 9112W        W46606  26.972   7.376  20.505 -0.1410  0.2222  0.1169
 9113W        W46607  16.670   6.276   3.710  0.2522  0.0547  0.1285
 9114W        W46608  10.606  24.234   3.537  0.1193 -0.4390 -0.0848
 9115W        W46609  30.903  26.226  13.293  0.0905 -0.0931  0.0011
 9116W        W46610   9.805  29.863   3.339 -0.0576 -0.2956 -0.1478
 9117W        W46611  21.101  21.071   4.035 -0.1498  0.2664  0.2460
 9118W        W46612   3.833   2.975  24.551 -0.1810 -0.1276 -0.2213
 9119W        W46613  16.363   4.307  18.000 -0.0123  0.1585  0.1059
 9120W        W46614   3.289  17.322  15.258  0.1210 -0.1005 -0.0265
 9121W        W46615  34.744  11.012  21.873 -0.2493 -0.1142 -0.0109
 9122W        W46616  21.520   9.485  15.523 -0.0512 -0.2206  0.1054
 9123W        W46617  15.837  26.182  23.812 -0.3960  0.0701 -0.1353
 9124W        W46618   0.057   3.915   6.288 -0.2065 -0.1122 -0.1281
 9125W        W46619  26.147   2.391  12.640 -0.2106  0.0887 -0.0372
 9126W        W46620   2.543  20.601  25.963 -0.0475  0.0467  0.2620
 9127W        W46621   1.411   7.388  19.035  0.0447 -0.3172  0.0258
 9128W        W46622  26.317  33.466  18.056 -0.0392  0.0594 -0.2317
 9129W        W46623   6.786   0.162  25.606  0.3398 -0.4700 -0.0005
 9130W        W46624  27.310  19.020   8.737 -0.1587 -0.0961  0.1325
 9131W        W46625  12.890  32.151  13.624 -0.1764  0.2407  0.3394
 9132W        W46626  11.718   3.100  24.397  0.1188  0.1028  0.0586
 9133W        W46627  21.264   0.090  15.719  0.0409 -0.0354 -0.0581
 9134W        W46628  32.372  14.586  18.771  0.0007 -0.2551  0.1585
 9135W        W46629  19.407  23.068   4.145 -0.1421  0.2662  0.0215
 9136W        W46630  33.363  21.965   8.559 -0.2991 -0.2186 -0.1906
 9137W        W46631  12.294   0.073  24.410 -0.0861  0.1020  0.1087
 9138W        W46632   7.897  30.188  12.220 -0.0520 -0.0075  0.1349
 9139W        W46633  26.563  16.657   5.103 -0.1840  0.0796  0.1119
 9140W        W46634  16.277  34.599   9.850 -0.1833 -0.2199  0.1542
 9141W        W46635  28.656  25.503  10.493  0.1038 -0.1710  0.0322
 9142W        W46636  22.042  26.678  26.023  0.2078 -0.4862 -0.0987
 9143W        W46637  27.662  13.047   7.863  0.0420 -0.2633  0.1380
 9144W        W46638  26.449  16.169  19.413 -0.1377 -0.3207  0.1148
 9145W        W46639  23.498  21.785  13.288 -0.0519 -0.0206  0.1736
 9146W        W46640  10.270  11.785   1.816  0.1062  0.1268  0.0287
 9147W        W46641   0.394   5.782   5.032  0.2060  0.2306  0.1021
 9148W        W46642   6.645  15.780   3.273  0.3014  0.4099  0.2614
 9149W        W46643  30.043  16.746  11.955 -0.2805  0.2261 -0.0217
 9150W        W46644  34.863  16.116  24.576  0.1473 -0.2806  0.1906
 9151W        W46645  28.448  16.527   6.207 -0.1657  0.1282  0.0784
 9152W        W46646   5.640  24.502  11.775  0.0557  0.1083 -0.0804
 9153W        W46647  10.623  30.421   0.457 -0.1137  0.0971 -0.2704
 9154W        W46648  29.969  32.574  23.921 -0.0549 -0.1246 -0.3275
 9155W        W46649  21.627  34.180  13.583  0.0776 -0.0450  0.0964
 9156W        W46650  19.808   5.773  24.373 -0.0122  0.1919  0.2398
 9157W        W46651   9.185   1.009   9.537 -0.1679  0.2358  0.1844
 9158W        W46652   7.822  23.683  22.732  0.0284  0.3256  0.3346
 9159W        W46653  27.183  28.691  25.312  0.0629  0.1775 -0.0979
 9160W        W46654  29.281   8.948  22.327  0.3424  0.2684 -0.0311
 9161W        W46655  15.666  18.927  23.329  0.2481  0.2085  0.3507
 9162W        W46656  26.073   0.690  20.563 -0.1123 -0.0795 -0.0431
 9163W        W46657   9.540   3.206   8.142 -0.0849  0.1886  0.1872
 9164W        W46658  12.161  11.868  11.978 -0.0141 -0.2793 -0.3067
 9165W        W46659  34.451   8.302  21.454 -0.1014  0.2110 -0.1138
 9166W        W46660   2.114  21.504  15.859 -0.2032  0.1048 -0.3473
 9167W        W46661  18.074   2.041   2.129  0.2182  0.0642  0.0235
 9168W        W46662   4.985  24.319  23.776 -0.1577  0.0658  0.2438
 9169W        W46663  35.006   2.783  19.245 -0.0176 -0.1751 -0.0128
 9170W        W46664  26.292  35.154  20.389 -0.0031  0.3474 -0.2006
 9171W        W46665  11.473  14.333  11.451  0.4313 -0.0408  0.0685
 9172W        W46666  21.178  30.915  16.140 -0.2963 -0.0590  0.0408
 9173W        W46667  22.667  14.026   1.608  0.1309  0.0243 -0.0366
 9174W        W46668  21.933  28.967  18.654 -0.3315  0.0756  0.0433
 9175W        W46669  29.486   3.112  23.539  0.1251  0.0592  0.2164
 9176W        W46670  22.442  20.055  22.069  0.5115 -0.3205  0.0252
 9177W        W46671  16.197   9.588  23.220 -0.1372 -0.7130 -0.3801
 9178W        W46672  24.892  10.482  13.630  0.4005 -0.1211  0.0195
 9179W        W46673  11.054   5.491   6.609 -0.0823 -0.0778 -0.1283
 9180W        W46674  22.399  30.631  23.269 -0.1144  0.0016  0.1799
 9181W        W46675  29.476  25.404   0.844  0.2700  0.2063 -0.0566
 9182W        W46676  29.829   8.596   9.701 -0.0196 -0.1609  0.3627
 9183W        W46677  29.776  32.001   5.388 -0.3288  0.1306  0.1480
 9184W        W46678  11.985   8.049  12.819 -0.0332  0.2527 -0.0005
 9185W        W46679  20.969  24.357   0.195 -0.1320 -0.0614  0.1249
 9186W        W46680  20.154  20.225  24.219  0.0861 -0.0016  0.2988
 9187W        W46681  26.483  33.426  24.894 -0.0603 -0.0557  0.0190
 9188W        W46682  13.642   0.657  10.117  0.0883 -0.2297  0.2988
 9189W        W46683   6.494  31.549  23.714  0.2826  0.2565  0.0688
 9190W        W46684  26.360  14.687  20.481  0.1973 -0.1832 -0.1942
 9191W        W46685  15.936  18.959   6.422 -0.2352 -0.3396 -0.0475
 9192W        W46686   5.185  25.305  25.197 -0.3459 -0.2409 -0.0892
 9193W        W46687  30.294   0.159   2.220  0.0708 -0.0339  0.1152
 9194W        W46688  32.621  30.929  16.105 -0.0318  0.2407 -0.0903
 9195W        W46689  25.598  25.492  12.097  0.2742 -0.0594 -0.0989
 9196W        W46690  32.107  12.270  25.169  0.0641 -0.1333 -0.1153
 9197W        W46691  29.751  27.317  19.864 -0.2481  0.0130  0.3277
 9198W        W46692   0.241  23.337  12.720  0.0217 -0.0093 -0.0114
 9199W        W46693  15.799  28.663  24.935  0.0167 -0.0336 -0.1216
 9200W        W46694  15.332   8.867   3.916 -0.0315 -0.2488 -0.0069
 9201W        W46695  23.666  27.010  17.592  0.0515 -0.0019 -0.1988
 9202W        W46696  22.920   9.004   1.138  0.2445  0.5094  0.1241
 9203W        W46697  33.858  35.117  24.782 -0.2291  0.2571 -0.1893
 9204W        W46698  30.913  24.783  19.829 -0.0484 -0.2556  0.1598
 9205W        W46699  25.100  31.648  22.111  0.0252  0.2443  0.2322
 9206W        W46700   3.347  27.826   5.679 -0.0805 -0.0565  0.0831
 9207W        W46701   1.081  34.747   5.704  0.0101 -0.0103 -0.0411
 9208W        W46702   4.907  16.631  18.922  0.0229 -0.4935  0.2791
 9209W        W46703   5.619  33.685  13.025  0.3502 -0.0642  0.1632
 9210W        W46704  16.918  22.626  25.286  0.3620  0.1857 -0.6471
 9211W        W46705  19.395  34.267   0.463 -0.2149 -0.0772  0.1892
 9212W        W46706  15.290  15.254  22.504  0.1095 -0.0062 -0.5064
 9213W        W46707  16.293   8.502   5.091  0.1969 -0.1934 -0.1442
 9214W        W46708   1.247   0.704   8.915 -0.2550 -0.2270 -0.2473
 9215W        W46709  30.754   7.578  24.128 -0.2243 -0.0769 -0.0749
 9216W        W46710  32.487  21.961  10.370  0.0899 -0.3281  0.0883
 9217W        W46711  33.433   1.689  20.961  0.2358 -0.2737 -0.1112
 9218W        W46712  10.208  15.151   9.089  0.1185 -0.1419  0.2890
 9219W        W46713  19.008  25.845   8.995 -0.1054  0.1160  0.1543
 9220W        W46714  30.473   3.981  16.582  0.0326  0.2197 -0.1536
 9221W        W46715   3.993  13.935   3.807 -0.0402  0.1810 -0.0588
 9222W        W46716  25.226   9.385  14.320 -0.1484  0.2435  0.0916
 9223W        W46717  29.148  10.584  13.387 -0.1297  0.4050 -0.1327
 9224W        W46718  35.381  27.851  22.256 -0.0495 -0.0509  0.1936
 9225W        W46719  34.642   8.621  11.044  0.0432  0.0919  0.1515
 9226W        W46720  12.534  17.112  20.060 -0.0612 -0.3191 -0.0388
 9227W        W46721  31.952   7.698   2.342  0.3485  0.0891 -0.0934
 9228W        W46722  12.944   8.832   2.960 -0.0926  0.1749 -0.0813
 9229W        W46723  23.824  32.130  16.473  0.1411 -0.1041  0.0910
 9230W        W46724   1.246  22.139   3.419  0.1197  0.2125  0.2874
 9231W        W46725  23.348   6.504  23.414 -0.0096  0.0440 -0.1458
 9232W        W46726  31.385  32.612  12.401 -0.0494 -0.3006 -0.1026
 9233W        W46727   6.314  22.787  24.263 -0.2433  0.1507 -0.3063
 9234W        W46728  15.070  13.951   8.120 -0.0669  0.0015  0.0284
 9235W        W46729  30.881  31.404   3.610 -0.2077 -0.4635  0.2946
 9236W        W46730  34.295  23.182  26.011 -0.3832  0.2638  0.0224
 9237W        W46731   0.488  32.446   3.865  0.2735 -0.2929  0.2118
 9238W        W46732  32.506   1.698   6.759 -0.0261 -0.0456 -0.0370
 9239W        W46733  32.953  12.502  16.810  0.0882 -0.1304  0.0102
 9240W        W46734  30.949  12.631  21.649  0.0966  0.1375 -0.2372
 9241W        W46735  31.034   4.761  15.761  0.0681 -0.0842 -0.2258
 9242W        W46736  35.254  16.574  23.248  0.1766 -0.0328  0.0292
 9243W        W46737  10.161  15.366  11.083 -0.2412  0.0199 -0.1294
 9244W        W46738  13.827  14.870  20.758 -0.1781 -0.1578  0.0077
 9245W        W46739  11.398  14.316  20.512  0.1953  0.2130  0.3321
 9246W        W46740  26.959  32.219  22.545 -0.1003  0.0938  0.1806
 9247W        W46741  19.536  33.516   2.059 -0.1163 -0.1742  0.0688
 9248W        W46742  22.368  32.214   0.898  0.1923  0.1289 -0.0476
 9249W        W46743  17.347  32.184  19.553 -0.1312  0.1095  0.1365
 9250W        W46744  13.965  29.468  25.539 -0.2182 -0.0925 -0.0149
 9251W        W46745  28.106  19.252   6.158 -0.1561  0.1513  0.1187
 9252W        W46746  29.021   7.304  19.425  0.1372 -0.1466  0.3216
 9253W        W46747  34.528  30.779  19.651  0.1412  0.2932 -0.3304
 9254W        W46748   8.832   4.843  21.540  0.2079  0.0655  0.0224
 9255W        W46749  23.704   3.623   3.508  0.1546  0.2214 -0.1597
 9256W        W46750   3.343  20.517   4.794  0.2583 -0.2792 -0.3012
 9257W        W46751  14.383  33.326   6.533  0.1615 -0.1561 -0.3915
 9258W        W46752  34.169   4.303  16.842 -0.1723  0.0275 -0.0327
 9259W        W46753   7.403   1.507   5.040  0.0184 -0.0507 -0.0904
 9260W        W46754  21.884  33.691  14.966  0.3127 -0.2773  0.0518
 9261W        W46755  12.969  32.329  21.021  0.2639  0.0343  0.0003
 9262W        W46756  34.172  33.757   4.099  0.2876 -0.1121 -0.3844
 9263W        W46757  24.563  15.130  11.595 -0.0742  0.2803 -0.0016
 9264W        W46758   4.684  11.422  24.734  0.0021  0.3345  0.1029
 9265W        W46759  29.849  35.067  21.264  0.2183 -0.4199 -0.1291
 9266W        W46760   4.913  19.434   2.339 -0.4084 -0.0327 -0.2764
 9267W        W46761  17.726   3.888   3.085 -0.0006  0.1871 -0.0076
 9268W        W46762  26.255  31.104  11.171  0.2315 -0.0949 -0.2198
 9269W        W46763  29.026  13.359  17.545 -0.2521 -0.0558 -0.2368
 9270W        W46764   9.452  23.218   6.269 -0.1802  0.0850 -0.2161
 9271W        W46765   7.494   7.696  23.647  0.0150 -0.4332  0.1582
 9272W        W46766  24.337  11.473  14.136 -0.0238 -0.0470 -0.0993
 9273W        W46767  13.454  18.479   2.146  0.0832  0.1657 -0.1390
 9274W        W46768  21.908  16.058  25.363 -0.1804 -0.2445 -0.0205
 9275W        W46769   7.920  25.745   6.810 -0.1654 -0.3205  0.0649
 9276W        W46770   7.780  19.677  22.504  0.2536 -0.3587  0.0814
 9277W        W46771  12.160  30.111  15.734  0.3102  0.2555  0.1215
 9278W        W46772  21.564  24.175   3.722 -0.1690 -0.3374 -0.0970
 9279W        W46773  17.255  19.258   8.832  0.1783 -0.4177 -0.2664
 9280W        W46774   3.571   8.997  18.523  0.0797 -0.2823  0.0777
 9281W        W46775  35.289   2.568  25.444 -0.2500 -0.4281 -0.3009
 9282W        W46776  13.919  30.690   8.504 -0.0533  0.1140  0.1405
 9283W        W46777  34.200  18.261  17.680  0.3372 -0.2103 -0.5074
 9284W        W46778  10.685  28.782   5.654  0.0068  0.2688  0.1299
 9285W        W46779  21.601  24.394   4.687 -0.1615 -0.2855  0.0332
 9286W        W46780   5.752  28.589   6.285  0.0740 -0.0902 -0.1431
 9287W        W46781   8.347  28.178  25.051 -0.0385 -0.0863 -0.1065
 9288W        W46782   0.099  26.570  18.041  0.2919 -0.3629 -0.2671
 9289W        W46783  13.514  19.023  25.385  0.1528  0.2312  0.1418
 9290W        W46784  33.023   4.775   0.801  0.0546 -0.0798 -0.0416
 9291W        W46785  33.515  15.786   0.301  0.1513  0.1702  0.1191
 9292W        W46786  32.866  26.329  22.003  0.1325  0.1376 -0.0013
 9293W        W46787   5.432  29.150  14.166 -0.1671 -0.1277  0.1752
 9294W        W46788  24.286  11.384  18.216 -0.0860 -0.0638  0.0789
 9295W        W46789   6.403   5.562  22.777  0.1268 -0.2743  0.0857
 9296W        W46790   5.726  32.732  10.386  0.0069  0.2765 -0.1563
 9297W        W46791  14.603  34.394  26.126 -0.3495  0.0261 -0.3059
 9298W        W46792  24.539  27.244  19.912  0.1154  0.2350  0.2143
 9299W        W46793  13.492   1.766   7.399 -0.0464 -0.0376 -0.2237
 9300W        W46794  34.288  10.242   1.905  0.0338 -0.0092  0.2650
 9301W        W46795  24.153  18.174  23.691  0.3921 -0.0647 -0.0231
 9302W        W46796   8.393  11.890  12.815 -0.1992  0.2333  0.3401
 9303W        W46797  24.745  27.133   0.324  0.4614  0.0662 -0.2887
 9304W        W46798   1.831  20.559  17.159 -0.2700 -0.1946  0.0123
 9305W        W46799  31.533   4.251   1.175 -0.0559 -0.2302 -0.0375
 9306W        W46800  26.237   0.579  11.423  0.2102 -0.1840  0.0446
 9307W        W46801  26.572  16.940  22.500 -0.0956 -0.1215 -0.1308
 9308W        W46802  20.280   3.499   0.014 -0.1693 -0.1563  0.1711
 9309W        W46803   6.942   5.434   6.827  0.2745 -0.0471 -0.0548
 9310W        W46804  23.102  32.628   2.253 -0.1858  0.3100 -0.1127
 9311W        W46805  18.583   9.211  10.046  0.0453  0.0426 -0.1626
 9312ION    NA+46806  27.415  20.313  13.917  0.0195  0.0784 -0.0610
 9313ION    NA+46807  17.083  33.211  11.039 -0.3288  0.1012 -0.0260
 9314ION    NA+46808   8.767  14.451   8.113 -0.1594  0.0804  0.0613
 9315ION    NA+46809  13.066  25.395   9.440 -0.0805 -0.0862  0.1459
 9316ION    NA+46810  18.365   2.257   7.883  0.1349 -0.2561 -0.0412
 9317ION    NA+46811   5.277  14.825   8.356  0.2742  0.1500 -0.2210
 9318ION    NA+46812  31.477  27.909  10.126 -0.1008  0.0779 -0.2534
 9319ION    NA+46813  14.193  18.833  20.823 -0.1816 -0.1918  0.0895
 9320ION    NA+46814   0.420   1.742  16.420 -0.0860  0.0129  0.1706
 9321ION    NA+46815  17.895  23.002  12.723  0.2595  0.3346 -0.0076
 9322ION    NA+46816   6.984  31.497   8.758 -0.3883 -0.1037 -0.0231
 9323ION    NA+46817   2.983   7.152   1.631  0.0869  0.4382  0.1822
 9324ION    NA+46818  24.288  11.012  14.224 -0.1337 -0.0826 -0.0587
 9325ION    NA+46819   4.772  13.078  16.741  0.3162  0.0084 -0.2722
 9326ION    NA+46820  14.328  21.065  23.769 -0.0678  0.0385 -0.2637
 9327ION    NA+46821  28.158   6.367  12.010  0.1393  0.2568  0.0795
 9328ION    NA+46822  33.924  17.395   5.674  0.0992  0.0001  0.2027
 9329ION    NA+46823  26.414  24.510  18.690 -0.2448 -0.1010  0.0109
 9330ION    NA+46824  34.720  21.839   0.949  0.0900  0.1781 -0.0944
 9331ION    NA+46825   1.078  26.758  21.104  0.2231 -0.0754 -0.2013
 9332ION    NA+46826   3.037  17.983  16.197 -0.1040 -0.0136  0.0372
 9333ION    NA+46827   3.753  16.948   2.905 -0.3058  0.3520  0.0398
 9334ION    NA+46828  17.593  25.149  14.351  0.0033 -0.2193  0.1468
 9335ION    NA+46829  26.727   2.976  16.574  0.1968 -0.0030  0.2855
 9336ION    NA+46830  31.183   6.842  13.118 -0.0199 -0.0683 -0.3295
 9337ION    NA+46831  26.570  25.693  20.060 -0.0329  0.0404 -0.0393
 9338ION    NA+46832  12.748  23.437  23.385  0.1446  0.2581  0.0100
 9339ION    NA+46833  23.392  27.980   3.757 -0.0668 -0.0506 -0.0473
 9340ION    NA+46834  12.371  26.053   5.889  0.3884  0.3352  0.3918
 9341ION    NA+46835  15.093  13.776  19.549 -0.2677 -0.3144  0.2670
 9342ION    NA+46836  34.182   8.758  17.381  0.1607 -0.2700 -0.1208
 9343ION    NA+46837   1.564   8.558  24.649 -0.0777  0.0270 -0.0950
 9344ION    NA+46838   3.543  35.070  18.225  0.1448  0.1533 -0.0336
 9345ION    NA+46839  13.581   5.411   0.445 -0.0025  0.0144 -0.2974
 9346ION    NA+46840  29.580  11.382  12.284 -0.1367 -0.2573 -0.0489
 9347ION    NA+46841  34.841  17.342   0.816 -0.2573 -0.0184 -0.2502
 9348ION    NA+46842   5.203  34.048  22.600  0.3056  0.1378  0.0423
 9349ION    NA+46843  16.613   6.981  17.241  0.2072  0.0487  0.1332
 9350ION    NA+46844  13.557  14.246  12.720  0.0953 -0.3914 -0.0948
 9351ION    NA+46845   0.537   7.320  22.384  0.0141 -0.1396 -0.1688
 9352ION    NA+46846  10.604  29.666  14.659  0.4905  0.1695 -0.2794
 9353ION    NA+46847   5.141  29.174  20.856  0.2295 -0.2037  0.2365
 9354ION    NA+46848  15.022   8.491   3.610 -0.1744 -0.2261 -0.0137
 9355ION    NA+46849  32.209  20.499   4.512 -0.0187  0.1819  0.0319
 9356ION    NA+46850   3.605  31.009  20.315 -0.0525 -0.0793 -0.0564
 9357ION    NA+46851  15.377   3.504  12.059  0.1429  0.1152  0.1468
 9358ION    NA+46852  22.542   5.190   5.578 -0.4169  0.1828  0.2187
 9359ION    NA+46853  28.262  22.776  16.678  0.0252  0.4054 -0.0727
 9360ION    NA+46854   1.787  11.393  26.139 -0.1469 -0.1675  0.2219
 9361ION    NA+46855   9.127  31.952   4.868 -0.1166  0.0924  0.0022
 9362ION    NA+46856   7.153  14.778   3.122  0.0854  0.0046  0.1510
 9363ION    NA+46857   7.019  21.387  12.132 -0.1568  0.0543  0.0550
 9364ION    NA+46858  10.971  32.778   2.817 -0.1903  0.1054  0.0319
 9365ION    NA+46859  25.084  30.068  26.153  0.0984 -0.1750  0.0139
 9366ION    NA+46860  31.794  28.895  20.546 -0.1097  0.1368  0.1195
 9367ION    NA+46861   9.350  25.031   5.409  0.0397  0.1776  0.1779
 9368ION    NA+46862  27.147   3.960   5.793 -0.0643  0.1749  0.3069
 9369ION    NA+46863  12.628   6.368   1.548  0.3626  0.3495  0.1823
 9370ION    NA+46864   0.258  12.837  13.917 -0.1908  0.1268  0.4374
 9371ION    NA+46865  10.337  27.417  21.537 -0.1705 -0.2901 -0.0791
 9372ION    NA+46866  10.026   4.925  25.403 -0.1019 -0.1243  0.1789
 9373ION    NA+46867  23.004  19.799   1.496 -0.2183  0.1917  0.1328
 9374ION    NA+46868  22.078  16.323   2.974 -0.3205 -0.0942  0.0458
 9375ION    NA+46869   9.375  23.254   6.909  0.4000  0.1769 -0.4049
 9376ION    NA+46870  28.239  16.285   5.181  0.0545  0.0534 -0.1663
 9377ION    NA+46871  27.655  32.280  22.502  0.1923  0.1453 -0.4818
 9378ION    NA+46872  25.838  14.101  25.288  0.1638  0.1794 -0.4852
 9379ION    NA+46873  25.762   3.277  17.049  0.2169 -0.2407  0.0840
 9380ION    NA+46874  33.916  11.821  16.863  0.2306  0.0666 -0.2974
 9381ION    NA+46875  19.726  10.034  21.655 -0.1746 -0.1008  0.1580
 9382ION    NA+46876  32.698  35.293   7.439 -0.2005 -0.0266 -0.1699
 9383ION    NA+46877  29.288   4.851  18.301 -0.0885 -0.2339 -0.3032
 9384ION    NA+46878  15.334   7.079  13.648 -0.1897  0.0347  0.0817
 9385ION    NA+46879  11.063  25.767  11.570 -0.1641 -0.1045 -0.1755
 9386ION    NA+46880  20.862  33.063  24.035 -0.0579 -0.1165 -0.4087
 9387ION    NA+46881  24.977  32.998  19.379 -0.2751 -0.1003 -0.2585
 9388ION    NA+46882   4.418   0.669  26.022 -0.1839  0.1070 -0.0577
 9389ION    NA+46883  29.752  35.384  25.358 -0.0907  0.4502 -0.0342
 9390ION    NA+46884   0.764  10.995   0.400 -0.0223 -0.0039 -0.2097
 9391ION    NA+46885  22.998  13.349  19.928 -0.1507 -0.0248  0.1148
 9392ION    NA+46886  28.011  13.850  15.636  0.0779 -0.0427  0.3840
 9393ION    NA+46887   6.016  13.192  24.471 -0.1308  0.1805 -0.2189
 9394ION    NA+46888  18.490  17.822  25.633  0.0470  0.1359  0.0285
 9395ION    NA+46889  26.508  18.111  15.000  0.0452 -0.1564  0.0691
 9396ION    NA+46890   7.809  19.970  14.972  0.1048  0.1573 -0.1620
 9397ION    NA+46891   1.760  19.634   3.190  0.2026 -0.2386  0.0392
 9398ION    NA+46892   3.831   2.635   0.183  0.1782  0.2474  0.0891
 9399ION    NA+46893   1.510  27.817  19.117  0.0752  0.0904  0.1834
 9400ION    NA+46894  13.113   8.672   3.529 -0.0063 -0.1546 -0.0166
 9401ION    NA+46895  35.354  33.286   8.895  0.0301 -0.0775  0.1995
 9402ION    NA+46896  11.962   4.202  22.575  0.2117 -0.2637 -0.3367
 9403ION    NA+46897  22.043  22.952  16.279 -0.1360  0.1008  0.0421
 9404ION    NA+46898   0.581  14.453   2.825  0.2348  0.0226  0.3546
 9405ION    NA+46899  25.090  24.395   9.711 -0.2993  0.0860 -0.0706
 9406ION    NA+46900   1.670   2.760  24.438 -0.2178 -0.0131 -0.3316
 9407ION    NA+46901  26.714  24.092   6.842  0.5565 -0.1900 -0.0727
 9408ION    NA+46902   4.052  12.630   7.335  0.1398 -0.0259  0.3001
 9409ION    NA+46903  20.528  17.716  25.568  0.2181  0.1586 -0.0174
 9410ION    NA+46904  24.780  30.132  14.985 -0.4578 -0.0758  0.1418
 9411ION    NA+46905  25.769   5.777  13.259 -0.0995  0.3541  0.1771
 9412ION    NA+46906  12.078  11.611  25.336  0.2715  0.0102 -0.1542
 9413ION    NA+46907  17.594   7.529  10.316 -0.1330  0.1528  0.1428
 9414ION    NA+46908   6.959  23.440   5.961 -0.1699 -0.4682 -0.1457
 9415ION    NA+46909  27.014  12.543  14.328  0.0219 -0.0980 -0.2856
 9416ION    NA+46910  18.858  31.863   7.408 -0.2927 -0.1437  0.1188
 9417ION    NA+46911  22.227  29.674  25.476  0.2359  0.0585 -0.2008
 9418ION    NA+46912  17.711  31.651   8.896 -0.0680 -0.4023 -0.1509
 9419ION    NA+46913  11.119  23.100  25.922 -0.1844  0.2599  0.0408
 9420ION    NA+46914   3.817  11.327  25.980  0.3670  0.1245  0.0372
 9421ION    NA+46915   2.573   3.120  24.216  0.0978 -0.0112  0.0292
 9422ION    NA+46916  14.571  22.499  14.968 -0.0625  0.0417 -0.0016
 9423ION    NA+46917  21.350  16.060  14.889 -0.2486  0.0603 -0.0834
 9424ION    NA+46918  23.820  29.466  13.290 -0.1969  0.2172 -0.2804
 9425ION    NA+46919  33.444  33.623  13.107 -0.0021 -0.1312  0.0100
 9426ION    NA+46920  30.716  35.117  19.708 -0.0176  0.4011 -0.2349
 9427ION    NA+46921   3.334  32.722   7.155  0.1030  0.1398 -0.0087
 9428ION    NA+46922  30.939  30.749  20.276 -0.2013  0.0791 -0.0505
 9429ION    NA+46923  12.616  31.237  13.669  0.0912 -0.0077 -0.1088
 9430ION    NA+46924  23.501  22.553  17.148 -0.0934  0.0966  0.0358
 9431ION    NA+46925  19.609  11.242  21.196 -0.1468 -0.2046 -0.3233
 9432ION    NA+46926   1.309  19.779  15.994  0.2553  0.1035 -0.1243
 9433ION    NA+46927  27.253   7.075  15.144 -0.1051  0.2753  0.0066
 9434ION    NA+46928  11.914  20.286   1.280 -0.1548 -0.0707  0.0393
 9435ION    NA+46929  19.859  23.577   7.493  0.3522 -0.0209 -0.1979
 9436ION    NA+46930  33.983   0.197   5.061  0.0633 -0.1629  0.1987
 9437ION    NA+46931  23.884  23.336  21.080 -0.1103  0.0733  0.4457
 9438ION    NA+46932  22.021  33.644  17.647 -0.1610  0.1664 -0.0953
 9439ION    NA+46933   1.696  28.494   1.334  0.3391  0.0789  0.0937
 9440ION    NA+46934   0.964  30.352   7.815  0.0296 -0.2367  0.2128
 9441ION    NA+46935  14.281   1.239  18.912  0.4390 -0.1868  0.1047
 9442ION    NA+46936  12.111  12.942   8.162 -0.0370 -0.0099  0.3703
 9443ION    NA+46937  20.676  34.097   6.072 -0.0947  0.0280  0.0747
 9444ION    NA+46938  20.023   0.315  22.328  0.0090 -0.2598 -0.0429
 9445ION    NA+46939  28.457   6.255   9.947  0.0766 -0.0913  0.0610
 9446ION    NA+46940  26.307  17.833  20.139 -0.1586 -0.2934  0.1528
 9447ION    NA+46941  15.751  28.408   0.104 -0.1975  0.3985 -0.0466
 9448ION    NA+46942   4.773   8.933  20.470  0.3283 -0.1705 -0.6236
 9449ION    NA+46943   8.940  21.946   0.572  0.0514  0.0203 -0.1573
 9450ION    NA+46944  16.686  22.488   1.441 -0.1865 -0.1553 -0.2088
 9451ION    NA+46945   5.583  15.626   8.279  0.2566 -0.1135  0.2073
 9452ION    NA+46946  16.388  22.888   9.424  0.0589 -0.2274 -0.0799
 9453ION    NA+46947  33.941  24.928  10.289 -0.1728  0.2616 -0.0730
 9454ION    NA+46948   7.831  19.912  12.668  0.3178 -0.1866  0.0171
 9455ION    NA+46949  14.058  18.384   0.450 -0.2248 -0.1905  0.0145
 9456ION    NA+46950  28.308  25.043  22.958 -0.0546 -0.2182 -0.4591
 9457ION    NA+46951   5.464  34.541   6.763  0.2364 -0.1138  0.1080
 9458ION    NA+46952  28.333   2.290  24.663 -0.0445 -0.1475  0.0767
 9459ION    NA+46953  13.400  17.844   4.608 -0.0105  0.1263 -0.0112
 9460ION    NA+46954  33.510   9.365  10.709 -0.0529  0.1520 -0.2911
 9461ION    NA+46955  20.834  13.123   5.600  0.1949  0.1267 -0.1112
 9462ION    NA+46956   4.293  31.041   5.406  0.0109 -0.3035 -0.0388
 9463ION    NA+46957   5.325  19.124  26.104 -0.0181  0.3738 -0.0377
 9464ION    NA+46958  19.442  13.149   2.302 -0.2391 -0.0770 -0.1596
 9465ION    NA+46959  11.197  13.482  18.008 -0.2220 -0.1606  0.2726
 9466ION    NA+46960   5.244   4.254  24.041  0.2196  0.0559  0.1454
 9467ION    NA+46961  27.797  19.740  16.559  0.1313 -0.3723  0.0823
 9468ION    NA+46962  17.574  22.763   2.939  0.1507 -0.0700 -0.0298
 9469ION    NA+46963  31.478  13.091   0.417  0.0222  0.0192  0.0705
 9470ION    NA+46964   8.612  14.011   3.905  0.2539 -0.0206  0.0258
 9471ION    NA+46965  19.899  26.116   1.091 -0.0386  0.1509  0.1409
 9472ION    NA+46966   1.820  22.029  23.656 -0.1486 -0.0261 -0.0805
 9473ION    NA+46967  20.752   5.827  10.369  0.0867  0.1039 -0.0072
 9474ION    NA+46968  14.682  31.929  14.330  0.1336 -0.1126 -0.0653
 9475ION    NA+46969   4.481  30.919  13.815  0.0913 -0.0269  0.0572
 9476ION    NA+46970  30.040  11.714  17.856  0.0297  0.1013  0.3386
 9477ION    NA+46971  13.339  24.327  11.530 -0.0611  0.0522 -0.0320
 9478ION    NA+46972  12.311  31.990   4.011  0.0918  0.0710  0.1643
 9479ION    NA+46973  34.807  20.548  22.659  0.1748 -0.0077 -0.1446
 9480ION    NA+46974  10.402  29.676   9.143 -0.0413  0.1855 -0.0365
 9481ION    NA+46975  23.096  29.670  19.813 -0.5334  0.1441  0.1237
 9482ION    NA+46976   1.539   6.833  13.324  0.1152  0.2393 -0.4369
 9483ION    NA+46977  10.629  18.451   6.656 -0.1713  0.0130 -0.1717
 9484ION    NA+46978  24.532  25.509  24.135 -0.2470 -0.2351 -0.0472
 9485ION    NA+46979  29.065  24.227  10.129 -0.0303 -0.0053  0.1844
 9486ION    NA+46980  17.442  19.918  21.988 -0.0301  0.0207  0.0043
 9487ION    NA+46981  34.669  14.889   7.962 -0.1974 -0.0653  0.2306
 9488ION    NA+46982  15.138  10.925   9.780  0.0060 -0.1849 -0.1189
 9489ION    NA+46983   1.285   3.240   8.619  0.0827  0.2405 -0.1370
 9490ION    NA+46984  17.673  18.078  22.153 -0.0484 -0.0104 -0.0894
 9491ION    NA+46985  28.941  28.147  16.004  0.2223 -0.1070 -0.0085
 9492ION    NA+46986   2.161  34.470  18.185  0.1906 -0.0346  0.1029
 9493ION    NA+46987  24.902  34.679   6.869  0.4099  0.1534 -0.2069
 9494ION    NA+46988  29.309  18.859   4.730  0.0077  0.1300  0.2127
 9495ION    NA+46989  21.676   1.237   4.158 -0.1708  0.1995  0.2472
 9496ION    NA+46990  31.877  22.602   5.982  0.1482 -0.0765 -0.1062
 9497ION    NA+46991  28.846  16.620  22.817 -0.0030  0.0550  0.1186
 9498ION    NA+46992  26.660  31.112  10.732 -0.1517 -0.2462  0.0281
 9499ION    NA+46993   0.840  33.627  25.463 -0.1562  0.3168  0.1620
 9500ION    NA+46994  10.263  34.978   0.254  0.0167 -0.0193 -0.0952
 9501ION    NA+46995  27.582  31.897  21.701 -0.0404 -0.0066 -0.2238
 9502ION    NA+46996  33.437  13.776   1.288  0.0794 -0.0307  0.0204
 9503ION    NA+46997  20.626  30.333   7.729  0.2031 -0.2053 -0.2173
 9504ION    NA+46998  35.279  18.531  18.963  0.3358 -0.0177  0.3598
 9505ION    NA+46999  35.097  13.440  14.699  0.0907  0.1122  0.0927
 9506ION    NA+47000   7.990  26.330  17.033 -0.1858  0.0460 -0.1697
 9507ION    NA+47001   1.362  26.964  18.622  0.1964  0.1185 -0.1701
 9508ION    NA+47002  14.051  20.404  10.534 -0.1462  0.2965 -0.0907
 9509ION    NA+47003  20.501  15.394   6.833 -0.4074  0.0204  0.1663
 9510ION    NA+47004  35.144  29.899   8.698  0.0399 -0.3122 -0.0127
 9511ION    NA+47005  14.580  25.856  21.928  0.0264  0.0050  0.0717
 9512ION    NA+47006  23.957  32.967  17.219  0.0115  0.1269  0.2207
 9513ION    NA+47007  11.174   0.075  11.890 -0.0361 -0.5302 -0.1537
 9514ION    NA+47008  27.318  21.029  15.392  0.1997 -0.1540 -0.0329
 9515ION    NA+47009  17.988  29.000   3.560  0.2859  0.3198 -0.2863
 9516ION    NA+47010  14.361  20.253   5.849 -0.1636  0.0710 -0.1000
 9517ION    NA+47011  11.869  11.296  14.074  0.1513  0.5382  0.0493
 9518ION    NA+47012  11.352   6.224  11.807 -0.0621 -0.1690  0.2090
 9519ION    NA+47013  32.286  20.575  25.022 -0.3252  0.0239  0.2112
 9520ION    NA+47014  31.118  34.128  17.348  0.0112  0.0582  0.0054
 9521ION    NA+47015  12.209  30.686  21.504 -0.2330 -0.0191  0.0365
 9522ION    NA+47016   4.092   4.454   9.961  0.0219  0.0734 -0.0778
 9523ION    NA+47017   7.599  32.072   6.354  0.0679 -0.0547 -0.2423
 9524ION    NA+47018  15.756  13.741  14.582 -0.0732 -0.1255  0.0504
 9525ION    NA+47019  27.363  20.483  10.622  0.0078 -0.0934  0.2118
 9526ION    NA+47020  33.509  16.690  17.430  0.4283  0.0989 -0.1380
 9527ION    NA+47021  19.016  13.787  10.001 -0.1259  0.0705 -0.0568
 9528ION    NA+47022   7.131  28.773  24.058  0.2375  0.1124  0.1495
 9529ION    NA+47023  20.793   1.898  23.340 -0.1490  0.0427  0.0874
 9530ION    NA+47024  16.938  34.373  17.863  0.3180  0.1609  0.0258
 9531ION    NA+47025  18.596   0.605   7.389  0.2100  0.0523 -0.3667
 9532ION    NA+47026  23.048   4.619  20.472  0.4028  0.0495 -0.3823
 9533ION    NA+47027  35.249  33.217   4.954 -0.2522 -0.1589 -0.2464
 9534ION    NA+47028  16.744   0.550   4.437  0.3080  0.3001 -0.2622
 9535ION    NA+47029  30.611  29.435  10.863  0.0687 -0.0146  0.0803
 9536ION    NA+47030   2.821  16.985  18.866  0.1590 -0.0098  0.2470
 9537ION    NA+47031  10.729  28.446   8.460  0.2350 -0.0983 -0.1818
 9538ION    NA+47032  31.333   0.049   0.552 -0.1400  0.1120 -0.0727
 9539ION    NA+47033  20.502  12.691   8.776 -0.1442 -0.1485 -0.0445
 9540ION    NA+47034  25.646  30.465   0.284  0.0822 -0.0934 -0.4015
 9541ION    NA+47035   0.569  30.590  15.886  0.3342 -0.1428  0.0701
 9542ION    NA+47036  21.640  14.533  24.603 -0.1469 -0.1435 -0.1977
 9543ION    NA+47037  30.154   0.974  17.337 -0.1107  0.1556  0.1892
 9544ION    NA+47038   9.508  11.211   7.484 -0.1746  0.1827 -0.2310
 9545ION    NA+47039  22.760   3.086   6.785  0.1156 -0.1310  0.1663
 9546ION    NA+47040   3.793  31.143  21.303 -0.2110  0.0849 -0.0667
 9547ION    NA+47041  32.506  10.710   6.425  0.0507 -0.1167 -0.1442
 9548ION    NA+47042  33.826  14.582   7.447  0.0431 -0.1190 -0.1361
 9549ION    NA+47043  10.830  32.053  13.602 -0.2144 -0.2162 -0.0532
 9550ION    NA+47044  24.434   9.609  23.021  0.0261  0.3780  0.3351
 9551ION    NA+47045  10.865  20.280  21.531  0.2111  0.3136  0.0436
 9552ION    NA+47046  13.500  16.369   0.084  0.1137 -0.1165  0.0170
 9553ION    NA+47047   3.518   5.798  21.902 -0.2138 -0.0667 -0.1840
 9554ION    NA+47048   3.581  34.345   5.333 -0.0924 -0.1207 -0.4072
 9555ION    NA+47049  29.759  11.744   9.112  0.1786 -0.1084  0.3654
 9556ION    NA+47050  20.952  10.745  18.179 -0.1862 -0.1204  0.2042
 9557ION    NA+47051   6.244  10.986   3.542 -0.0112 -0.3663 -0.0682
 9558ION    NA+47052  31.751  32.482  19.316 -0.0685  0.1276 -0.0092
 9559ION    NA+47053  24.757   3.614  18.671 -0.1637  0.6906  0.0230
 9560ION    NA+47054   9.812  15.998   2.538 -0.1697 -0.3670 -0.0970
 9561ION    NA+47055   0.573  32.422  17.957  0.2094  0.1387  0.0409
 9562ION    NA+47056   5.751  26.898  21.783 -0.0025 -0.1641  0.1703
 9563ION    NA+47057  17.789  31.161   4.957  0.0067  0.0344  0.2238
 9564ION    NA+47058  13.006  15.467  11.137  0.1758 -0.0698  0.0100
 9565ION    NA+47059  31.418  11.139  23.253  0.2878  0.1058 -0.1100
 9566ION    NA+47060   6.365   7.109  13.062 -0.1278  0.1707 -0.1347
 9567ION    NA+47061   5.834  11.400  23.241 -0.0370 -0.1997 -0.3374
 9568ION    NA+47062  30.802  18.478  20.823  0.1308 -0.1162  0.2207
 9569ION    NA+47063   3.187  33.497  12.427  0.0241 -0.4422  0.4327
 9570ION    NA+47064  26.230  26.504  12.535 -0.3455  0.0549  0.0879
 9571ION    NA+47065  23.604  14.546  20.333 -0.3163 -0.2796 -0.2917
 9572ION    NA+47066   2.940   5.126  16.524  0.0707  0.0381 -0.2615
 9573ION    NA+47067  20.273  35.218  20.071 -0.3587 -0.2261  0.1506
 9574ION    NA+47068  30.857   3.347  12.511  0.1948  0.1543 -0.0414
 9575ION    NA+47069  14.786  23.339   4.805  0.2176  0.0185 -0.1540
 9576ION    NA+47070   9.877  15.174  10.680 -0.0557  0.1229 -0.0175
 9577ION    NA+47071  23.551  14.370  20.953 -0.1217  0.1004 -0.5565
 9578ION    NA+47072  13.176  32.200   1.180  0.1852 -0.1184 -0.3169
 9579ION    NA+47073   8.006   5.962  11.787 -0.5479 -0.0592  0.6212
 9580ION    NA+47074  30.112  18.297  11.050 -0.1945  0.1324  0.1998
 9581ION    NA+47075   0.340   3.699  14.313  0.2462 -0.1412  0.0528
 9582ION    NA+47076   6.196  32.646   2.606  0.0246  0.4242 -0.0906
 9583ION    NA+47077  22.538  25.878   0.365  0.1140 -0.1621  0.1163
 9584ION    NA+47078  29.746  15.855   8.662  0.1634 -0.2199  0.1119
 9585ION    NA+47079   8.732  27.993  22.886 -0.4358  0.1282  0.0505
 9586ION    NA+47080  11.544  26.720  17.872 -0.0844  0.1198  0.0762
 9587ION    NA+47081  20.872  24.119  19.319 -0.0299  0.0366 -0.2446
 9588ION    NA+47082  11.045  20.267  15.181 -0.0644 -0.3591 -0.2866
 9589ION    NA+47083  15.513  25.705  23.702 -0.1139 -0.1076  0.1763
 9590ION    NA+47084  30.734  21.457  21.403 -0.1253  0.3872  0.1970
 9591ION    NA+47085  14.903  32.483   3.780 -0.0733  0.0069  0.0886
 9592ION    NA+47086  12.407  19.962  24.758 -0.1240 -0.0228 -0.2083
 9593ION    NA+47087   6.468   4.746  19.334 -0.1406 -0.0320  0.1422
 9594ION    NA+47088   6.792  28.665  21.656  0.0837 -0.1930  0.1906
 9595ION    NA+47089  22.390  20.254  24.354 -0.1642  0.2335 -0.1209
 9596ION    NA+47090   0.173   7.924  17.920 -0.1776 -0.2953 -0.0235
 9597ION    NA+47091  22.611  34.975  16.778  0.0640  0.0568 -0.0723
 9598ION    NA+47092   8.730   2.540   8.016 -0.2725  0.2150 -0.0106
 9599ION    NA+47093   3.199  19.001   3.979 -0.2439 -0.2216 -0.0102
 9600ION    NA+47094  35.314   8.861  22.035 -0.3198 -0.2142  0.0668
 9601ION    NA+47095  10.973  15.194  18.457  0.0167 -0.2856  0.1526
 9602ION    NA+47096   6.934  30.026   3.521  0.1224 -0.1576  0.1208
 9603ION    NA+47097   3.282  21.209  14.039  0.1390  0.0702  0.1402
 9604ION    NA+47098  12.023  18.600  20.332  0.1528 -0.0697 -0.2124
 9605ION    NA+47099  18.797   2.047   3.440 -0.0894 -0.0489  0.1588
 9606ION    NA+47100  31.498   0.796  23.504  0.2865  0.1361 -0.0509
 9607ION    NA+47101  17.918  35.274   0.253 -0.2775  0.2012  0.2441
 9608ION    NA+47102  10.556  27.574   3.251 -0.1500 -0.1608 -0.0550
 9609ION    NA+47103  20.059  12.648  16.809 -0.3024  0.1065 -0.0030
 9610ION    NA+47104  32.444  11.052  17.209  0.0650 -0.1769  0.0852
 9611ION    NA+47105  16.814  33.515  19.178 -0.3685  0.0027  0.1741
 9612ION    NA+47106  27.671  20.279  12.585 -0.0648  0.2105  0.2556
 9613ION    NA+47107   3.167  24.492  16.871 -0.0101  0.2078 -0.4523
 9614ION    NA+47108  33.517  30.126  21.375  0.0991  0.0365 -0.1680
 9615ION    NA+47109   7.963  11.486  12.762  0.2985  0.2752 -0.0813
 9616ION    NA+47110   1.370  30.691  16.548 -0.0443  0.1486 -0.2121
 9617ION    NA+47111  17.058  29.776   3.738 -0.5592 -0.0709  0.0217
 9618ION    NA+47112   9.114  24.817  17.561  0.3733  0.1165 -0.0328
 9619ION    NA+47113   9.304  29.424  15.590  0.1768 -0.0826 -0.0133
 9620ION    NA+47114  11.052  17.792  24.666  0.1504 -0.0500  0.1632
 9621ION    NA+47115  33.429  15.977  25.595 -0.1630 -0.2495  0.1200
 9622ION    NA+47116  12.699  28.179   2.330 -0.0273 -0.1627  0.0834
 9623ION    NA+47117  26.967   8.320  20.739  0.1712  0.1138  0.0038
 9624ION    NA+47118   2.596   5.351  15.539 -0.0452 -0.0871  0.0536
 9625ION    NA+47119  12.708  17.247  14.127  0.0333 -0.0543  0.1366
 9626ION    NA+47120   8.403  22.017  23.208  0.2049  0.1938  0.2129
 9627ION    NA+47121  23.086  17.312  19.181 -0.1156 -0.3929 -0.2488
 9628ION    NA+47122  28.251   5.972  22.388  0.0178 -0.0898  0.1585
 9629ION    NA+47123   7.294  17.900  22.049  0.1031 -0.0178  0.0776
 9630ION    NA+47124  23.938   4.060   7.412 -0.0190 -0.0666 -0.0103
 9631ION    NA+47125  33.939  16.814  21.739  0.2270  0.1052 -0.1595
 9632ION    NA+47126  22.645  30.325  16.945  0.0477 -0.1231 -0.3449
 9633ION    NA+47127  31.426   4.381  23.652 -0.0148 -0.0504  0.0912
 9634ION    NA+47128  29.227  18.807  24.590 -0.3287  0.2031  0.2225
 9635ION    NA+47129  18.964  16.807  17.411 -0.2370 -0.0985 -0.1657
 9636ION    NA+47130  14.436  25.615  11.005  0.0238 -0.0048 -0.0299
 9637ION    NA+47131  32.951  24.455  24.857  0.0421 -0.2396 -0.0480
 9638ION    NA+47132   7.632  28.680   0.524 -0.1039 -0.0584 -0.0268
 9639ION    NA+47133  16.188  27.665  25.432 -0.2617 -0.0876 -0.1605
 9640ION    NA+47134  21.634  31.932  16.965 -0.0271  0.4220  0.2840
 9641ION    NA+47135   4.309   3.678  16.944 -0.1821  0.0701  0.2892
 9642ION    NA+47136  26.637  12.642   6.530 -0.0718  0.0315  0.0661
 9643ION    NA+47137  10.161  21.496   1.706  0.1261 -0.1680 -0.4186
 9644ION    NA+47138  18.438  33.259   0.727  0.3196  0.1740 -0.0958
 9645ION    NA+47139   6.647  29.434   2.421  0.0132 -0.1170  0.1355
 9646ION    NA+47140  18.500  30.701   4.224  0.1391  0.0474  0.0383
 9647ION    NA+47141  23.523   7.518  17.928  0.0280  0.2905  0.1263
 9648ION    NA+47142  24.700  24.703   3.365 -0.2111  0.2341 -0.0106
 9649ION    NA+47143  26.847  13.422   8.320  0.2475 -0.1951 -0.0134
 9650ION    NA+47144   6.697  32.623  12.683  0.0754 -0.1055  0.0976
 9651ION    NA+47145  15.206  25.321   6.610 -0.2077  0.1736  0.2433
 9652ION    NA+47146  14.141   7.545  20.496 -0.1701 -0.0000 -0.0745
 9653ION    NA+47147  22.124   1.520  15.605  0.0914  0.1485 -0.0706
 9654ION    NA+47148  13.081   6.892  12.170  0.0758 -0.0644  0.1945
 9655ION    NA+47149   9.500  27.330  13.562 -0.0780  0.2826 -0.0307
 9656ION    NA+47150  28.835   1.263   3.760  0.0500 -0.1079 -0.1986
 9657ION    NA+47151  10.985  17.440   4.915 -0.1079 -0.4175  0.1398
 9658ION    NA+47152  30.575   4.769  13.091 -0.2397  0.0570  0.0967
 9659ION    NA+47153  34.445  25.430  14.382  0.0083 -0.1086 -0.2594
 9660ION    NA+47154  31.304   3.838   4.867 -0.2674  0.1029 -0.0295
 9661ION    NA+47155  14.167  23.734  11.203 -0.1921  0.0855 -0.1031
 9662ION    NA+47156  21.233  17.405   2.280 -0.0494 -0.3093 -0.1342
 9663ION    NA+47157  21.677  22.151  18.906  0.3115  0.0175  0.1973
 9664ION    NA+47158   1.706  33.832  20.425  0.0742  0.3956 -0.0817
 9665ION    NA+47159   7.807   6.458   6.754  0.2316  0.1747  0.0442
 9666ION    NA+47160  19.349  19.742   5.651  0.0358  0.1563  0.3140
 9667ION    NA+47161  30.154  21.270  20.480  0.0902  0.0583  0.0606
 9668ION    NA+47162   9.413   6.540   6.434 -0.1059  0.1233 -0.0344
 9669ION    NA+47163  29.748  31.839  19.226 -0.3097 -0.0632 -0.1771
 9670ION    NA+47164   2.748  22.716  14.912 -0.2653 -0.0349  0.1927
 9671ION    NA+47165   7.831  20.804  15.090  0.0247 -0.0733  0.0018
 9672ION    NA+47166  11.810  19.006   3.254 -0.0627 -0.2182  0.1313
 9673ION    NA+47167  29.949   8.071  24.456  0.0734 -0.1878  0.2645
 9674ION    NA+47168   3.616  10.408   5.772 -0.0041  0.0152  0.0931
 9675ION    NA+47169  34.778  34.989   9.097 -0.0351  0.0728 -0.3526
 9676ION    NA+47170  28.040  28.777   4.383 -0.1038  0.0786  0.1414
 9677ION    NA+47171  20.411   4.542   3.827 -0.2845 -0.1655 -0.0687
 9678ION    NA+47172   0.478  31.494  25.902  0.0245  0.3812  0.0628
 9679ION    NA+47173  14.612   9.327  20.828 -0.1220 -0.1916 -0.0932
 9680ION    NA+47174  22.163  13.725  25.013  0.1138 -0.1790 -0.0746
 9681ION    NA+47175   1.907  32.743   6.309  0.0776  0.1723 -0.3102
 9682ION    NA+47176  24.949  32.482   0.716 -0.1505  0.3670 -0.2357
 9683ION    NA+47177  19.098   1.088   9.048 -0.0012  0.0990  0.2449
 9684ION    NA+47178   4.649   9.076   5.594 -0.1864 -0.2420  0.3905
 9685ION    NA+47179  17.294  11.788  18.513 -0.0828  0.0624  0.0084
 9686ION    NA+47180  14.994  17.176  23.766  0.0094 -0.3961  0.1495
 9687ION    NA+47181  15.642  16.181   3.901  0.0114  0.1510 -0.0921
 9688ION    NA+47182  16.689  29.716   2.392  0.1153  0.2405 -0.2033
 9689ION    NA+47183  24.931  30.363  23.725  0.0138  0.1068 -0.1388
 9690ION    NA+47184  11.110  18.367  14.343 -0.2541 -0.2743 -0.0376
 9691ION    NA+47185   6.408   2.087   4.512 -0.1870  0.1241  0.2881
 9692ION    NA+47186  15.576  31.191  12.068 -0.2387 -0.2031  0.3079
 9693ION    NA+47187   8.891   8.006  10.336 -0.1073 -0.0859 -0.0034
 9694ION    NA+47188  17.501  29.205   0.202 -0.0004 -0.1244 -0.2299
 9695ION    NA+47189   9.808  19.847  10.796 -0.0762  0.0398  0.0042
 9696ION    NA+47190  26.369  26.077   9.522 -0.1479 -0.0931 -0.4019
 9697ION    NA+47191  20.565  24.520  20.067  0.2386  0.0933  0.1785
 9698ION    NA+47192  30.037  34.192   5.915  0.0594  0.1311 -0.4686
 9699ION    NA+47193  19.163  18.521   6.887 -0.1699 -0.0602  0.0367
 9700ION    NA+47194  24.559  15.074  11.092 -0.4914  0.0906 -0.0355
 9701ION    NA+47195  20.128  16.372   9.242 -0.2264 -0.3063 -0.1813
 9702ION    NA+47196  13.701  10.044  10.083  0.0647  0.1308 -0.0529
 9703ION    NA+47197  31.236  24.589  15.967  0.0103 -0.1607  0.1642
 9704ION    NA+47198  11.196  32.047  21.158  0.4355 -0.3242  0.1995
 9705ION    NA+47199  11.872   6.903  24.809  0.0510  0.3691  0.0343
 9706ION    NA+47200  14.130  18.237  15.234 -0.1138  0.0670  0.3121
 9707ION    NA+47201  17.824  31.946  19.519  0.0318  0.1309 -0.1721
 9708ION    NA+47202  14.980   5.932  19.122 -0.3479 -0.0944  0.1943
 9709ION    NA+47203  19.322  12.893   9.900  0.2324 -0.1983 -0.4598
 9710ION    NA+47204  20.302  10.694  10.460  0.3128  0.1496 -0.1780
 9711ION    NA+47205  29.758  23.492  19.273  0.4124  0.1059 -0.1307
 9712ION    NA+47206  26.681   7.645  19.272  0.0286  0.1916 -0.0114
 9713ION    NA+47207  11.144  12.577  19.015  0.2008  0.0424 -0.0621
 9714ION    NA+47208  15.746  34.829  24.909  0.1897 -0.2314 -0.1586
 9715ION    NA+47209  27.980   9.952  21.309  0.0443  0.0152 -0.0975
 9716ION    NA+47210   4.713   9.283  21.384 -0.1165 -0.0746  0.1019
 9717ION    NA+47211  26.603  19.026   6.124 -0.0716  0.3114  0.1227
 9718ION    NA+47212  18.267  34.380   9.660 -0.1788  0.0430 -0.1318
 9719ION    NA+47213  26.724   5.469   2.322 -0.0938 -0.3014  0.1182
 9720ION    NA+47214  25.783   0.607  23.403 -0.1598 -0.0195 -0.2240
 9721ION    NA+47215  12.037   1.729  23.627  0.0755  0.1825 -0.0926
 9722ION    NA+47216   4.919  18.708   4.029  0.0527 -0.0939 -0.0360
 9723ION    NA+47217  29.867  21.668   7.702 -0.1143 -0.0329  0.0583
 9724ION    NA+47218  25.285  12.958  14.806  0.2928  0.0506  0.2929
 9725ION    NA+47219   3.105  11.918  19.576  0.1418 -0.2029  0.0013
 9726ION    NA+47220  18.108  35.080   5.682  0.1904 -0.2210 -0.2106
 9727ION    NA+47221   9.299  11.621   1.033  0.4430  0.4081 -0.2038
 9728ION    NA+47222  24.797  28.124   1.604  0.1723  0.1996  0.4242
 9729ION    NA+47223  15.886  26.900  21.300 -0.2512 -0.1961 -0.2375
 9730ION    NA+47224  13.512  27.539  25.262 -0.0474  0.0192 -0.1816
 9731ION    NA+47225  24.918   6.496  19.991  0.0983  0.0959 -0.1034
 9732ION    NA+47226  30.025  12.566   5.127 -0.0318  0.2291 -0.2197
 9733ION    NA+47227  27.537   2.826  16.156 -0.4705  0.1813 -0.1292
 9734ION    NA+47228   2.648  26.991   9.603  0.1502  0.1632  0.1690
 9735ION    NA+47229  12.612   1.780   2.398 -0.0893  0.0283  0.1835
 9736ION    NA+47230  12.969  24.153  14.108 -0.1272 -0.3980 -0.3821
 9737ION    NA+47231  17.259  24.592  20.855  0.1879 -0.5493  0.4004
 9738ION    NA+47232   1.207  10.600  12.087 -0.0319 -0.0794  0.1574
 9739ION    NA+47233  30.281  30.462  18.253 -0.0779 -0.3996 -0.0766
 9740ION    NA+47234  34.815   9.713   9.929  0.2838  0.0516  0.2418
 9741ION    NA+47235  21.500  34.315  15.708  0.0748 -0.0961 -0.2725
 9742ION    NA+47236   5.425  12.354   3.356  0.1183 -0.1434 -0.2943
 9743ION    NA+47237   7.451  24.198  15.141 -0.0057  0.2676  0.0154
 9744ION    NA+47238  25.972  31.706  11.155 -0.1924  0.3507  0.1383
 9745ION    NA+47239  19.231   0.053  20.048  0.0118  0.4827  0.0678
 9746ION    NA+47240  20.921  12.258   6.629  0.0091  0.1690  0.2818
 9747ION    NA+47241  17.073  13.133  13.704  0.3111 -0.0211 -0.0585
 9748ION    NA+47242   4.037  24.945   4.192 -0.2273  0.2573  0.1911
 9749ION    NA+47243  35.259   3.881  13.062  0.1282 -0.1725  0.1995
 9750ION    NA+47244   9.491  15.370  13.658 -0.3761 -0.1545  0.1142
 9751ION    NA+47245  30.049  18.777  18.623  0.0354  0.0968 -0.0897
 9752ION    NA+47246  29.420  14.296  12.536  0.2326 -0.0821 -0.0722
 9753ION    NA+47247  19.354  31.656   4.964  0.2925 -0.1281 -0.1567
 9754ION    NA+47248   5.867  13.776   5.282  0.0858 -0.2782 -0.2467
 9755ION    NA+47249  33.572  17.097   0.820 -0.0019  0.2205  0.3472
 9756ION    NA+47250  33.144  22.765   8.062  0.1815 -0.0817  0.1642
 9757ION    NA+47251   5.329  14.739  24.005  0.0222  0.0345 -0.0500
 9758ION    NA+47252  29.685   9.878   7.679  0.0463  0.3226 -0.2583
 9759ION    NA+47253  30.717  16.972   9.570  0.1702 -0.0125  0.0012
 9760ION    NA+47254  27.601  32.403  21.037  0.1207 -0.2224  0.1911
 9761ION    NA+47255  19.625   8.091  25.882 -0.0175  0.1602  0.0539
 9762ION    NA+47256  24.595   2.818  12.468 -0.1806  0.1108  0.1160
 9763ION    NA+47257  17.528  16.027  10.063 -0.0218  0.2888  0.2508
 9764ION    NA+47258   6.237  34.300   1.823  0.0799 -0.0389 -0.2061
 9765ION    NA+47259  32.937  22.247   8.602 -0.0015 -0.0175  0.4363
 9766ION    NA+47260  26.888  23.325  22.058 -0.3461  0.1871  0.1838
 9767ION    NA+47261  26.550  29.601  25.715 -0.0469 -0.2297 -0.0949
 9768ION    NA+47262  15.126  28.666   3.634  0.0406 -0.1467  0.1204
 9769ION    NA+47263   1.916  33.040   3.476  0.0098  0.0163 -0.2479
 9770ION    NA+47264   5.967   9.913  18.538 -0.3540 -0.0324 -0.0075
 9771ION    NA+47265   0.114  18.500  19.894  0.0894  0.0921 -0.0526
 9772ION    NA+47266   5.754  33.093   4.318  0.1200 -0.0820  0.2688
 9773ION    NA+47267  23.781   6.666   1.789 -0.0863  0.1399 -0.0075
 9774ION    NA+47268  10.103  35.049   4.008 -0.1991  0.1200 -0.0740
 9775ION    NA+47269  27.947  25.831  15.489  0.2403 -0.3273  0.0258
 9776ION    NA+47270  17.831  21.850   1.597  0.0024  0.0260  0.2260
 9777ION    NA+47271  13.886  22.126   7.642  0.1786  0.0282  0.1273
 9778ION    NA+47272  16.495   0.051   6.252 -0.3479  0.0263  0.2310
 9779ION    NA+47273   0.315   0.316   7.979 -0.2050  0.1509  0.0990
 9780ION    NA+47274  26.423  32.511  13.030 -0.1538  0.3593 -0.0253
 9781ION    NA+47275  26.965   5.760  11.072  0.1858 -0.2644 -0.0935
 9782ION    NA+47276  25.345   5.813  19.009 -0.1768 -0.3198 -0.0328
 9783ION    NA+47277  34.754  16.520  14.955  0.0849 -0.0965 -0.0289
 9784ION    NA+47278  11.177  11.735  24.461  0.0700  0.4543 -0.1043
 9785ION    NA+47279   6.926  34.639   2.969  0.2133  0.1274  0.1909
 9786ION    NA+47280  34.407   3.851  21.525 -0.0044  0.2567  0.0791
 9787ION    NA+47281  33.174  34.626  25.027 -0.1147  0.2513  0.3583
 9788ION    NA+47282   6.859  35.372  24.100 -0.1997  0.1930 -0.1086
 9789ION    NA+47283   6.134  14.672   9.586 -0.0148 -0.0981  0.0502
 9790ION    NA+47284  15.041  25.097   9.450 -0.0771  0.1579 -0.6893
 9791ION    NA+47285   5.820  30.172  19.924  0.2922 -0.0386 -0.3028
 9792ION    NA+47286  26.634  24.481  16.835  0.3037  0.3082 -0.0695
 9793ION    NA+47287  15.227  13.147  23.912 -0.0818  0.0676  0.0291
 9794ION    NA+47288  21.902   4.611   2.282 -0.0309  0.1115  0.2185
 9795ION    NA+47289  20.552  19.707   6.495 -0.0880  0.1054 -0.1115
 9796ION    NA+47290  27.427  20.962   9.783  0.2652 -0.2691 -0.0333
 9797ION    NA+47291  23.133  15.744   2.421 -0.1288 -0.0541  0.0331
 9798ION    NA+47292  12.521  31.106  20.798  0.0022  0.0181 -0.3010
 9799ION    NA+47293  31.582  10.992  13.629 -0.2449 -0.1710  0.2582
 9800ION    NA+47294  11.999  31.743  21.820  0.2786 -0.1847  0.0828
 9801ION    NA+47295  16.156  29.943  23.365  0.3797  0.1964 -0.1032
 9802ION    NA+47296  13.073  28.171  17.506  0.0160 -0.0409  0.1267
 9803ION    NA+47297   3.103   5.473  18.006  0.1174  0.0442  0.0919
 9804ION    NA+47298  32.200  30.443   6.198 -0.2872 -0.0548  0.0302
 9805ION    NA+47299   9.775  16.743  21.698 -0.0745  0.1788 -0.0979
 9806ION    NA+47300  30.174  25.146   9.315  0.1451 -0.1599  0.4931
 9807ION    NA+47301  10.634   3.799   9.513  0.4445  0.1185  0.0408
 9808ION    NA+47302  20.943   2.245  14.083 -0.0496  0.2085  0.0466
 9809ION    NA+47303  14.362  35.113   5.740 -0.2931 -0.0076 -0.2373
 9810ION    NA+47304  21.884  32.350   7.532  0.3123 -0.2783 -0.1721
 9811ION    NA+47305  17.572   2.828   1.996  0.4798 -0.1699 -0.1150
 9812ION    NA+47306   5.880  18.216   8.670  0.0423  0.2222 -0.1731
 9813ION    NA+47307  34.301  25.146   0.217  0.0726 -0.2490  0.1734
 9814ION    NA+47308   7.874   3.070   1.261 -0.2218  0.0089  0.2367
 9815ION    NA+47309  18.624  29.161   7.216 -0.1222  0.2095  0.1174
 9816ION    NA+47310   4.639  29.722  12.210  0.1562  0.0566 -0.2592
 9817ION    NA+47311  33.290   4.502  16.742  0.3005 -0.0759  0.2387
 9818ION    NA+47312  26.150  13.631   6.172 -0.1025 -0.0535 -0.1974
 9819ION    NA+47313  18.943  34.746  14.823  0.1108 -0.1088 -0.0807
 9820ION    NA+47314  24.896  14.712   1.261 -0.2160 -0.0126 -0.0299
 9821ION    NA+47315   6.694  20.266  22.376  0.0676  0.2231 -0.0185
 9822ION    NA+47316   9.331   5.494  21.266 -0.1565 -0.1114 -0.0078
 9823ION    NA+47317  27.110  24.768  19.401 -0.2239  0.1203 -0.0662
 9824ION    NA+47318  33.366  32.031  16.794  0.0501  0.0890  0.2236
 9825ION    NA+47319  25.771  30.254   9.703  0.2313  0.0098  0.0453
 9826ION    NA+47320  34.134   0.115   2.105 -0.1401 -0.1873 -0.3257
 9827ION    NA+47321   9.496  33.844   2.384  0.1030  0.0116 -0.2410
 9828ION    NA+47322  31.019  21.631  22.973 -0.0154  0.3213  0.2071
 9829ION    NA+47323   5.047   2.294   3.814 -0.1622 -0.1148  0.2443
 9830ION    NA+47324  33.294   7.321  20.928  0.2963  0.0256  0.3183
 9831ION    NA+47325  18.765   9.323   4.522  0.4778 -0.3435  0.2476
 9832ION    NA+47326  27.701   0.804  18.703  0.0309 -0.3094  0.2874
 9833ION    NA+47327   0.493  23.820  12.808 -0.0544  0.1032  0.0116
 9834ION    NA+47328   8.283   3.523  19.143  0.0628 -0.0803  0.3382
 9835ION    NA+47329  22.429  19.948  23.403  0.0376  0.2751 -0.0486
 9836ION    NA+47330  22.175  23.929   4.531 -0.3024 -0.0293  0.0387
 9837ION    NA+47331   9.891   2.602  22.945  0.2037 -0.0992 -0.0269
 9838ION    NA+47332  30.502  12.090   5.733 -0.3096  0.1368  0.0836
 9839ION    NA+47333   8.793  26.745  22.813 -0.2331 -0.0027 -0.0026
 9840ION    NA+47334  34.189  26.225  16.074  0.0339 -0.2655  0.0491
 9841ION    NA+47335  17.700  14.178   7.223 -0.0851  0.1626 -0.2553
 9842ION    NA+47336  16.914  22.167  13.025 -0.0509 -0.0355 -0.1354
 9843ION    NA+47337   0.101  35.240   6.674  0.0313  0.3447 -0.0171
 9844ION    NA+47338   6.858  18.412  20.229 -0.1569  0.1078 -0.2787
 9845ION    NA+47339  13.651  31.433   6.667  0.2138 -0.1386  0.0311
 9846ION    NA+47340  33.074   5.403  12.311 -0.0281 -0.0975 -0.1871
 9847ION    NA+47341  34.212  19.176  23.464 -0.0108  0.2004 -0.1626
 9848ION    NA+47342   7.699   2.373  12.269  0.0481 -0.2029 -0.1196
 9849ION    NA+47343  18.221  31.783   4.001 -0.2774  0.0015  0.0599
 9850ION    NA+47344  23.150  30.252  16.176  0.0182 -0.1265 -0.2680
 9851ION    NA+47345  13.364  20.511   7.216  0.0621  0.2096 -0.0391
 9852ION    NA+47346  20.378   3.997  15.012  0.0564 -0.0630  0.1808
 9853ION    NA+47347  31.962  25.984   8.613  0.2446 -0.2325  0.0006
 9854ION    NA+47348  14.093   8.722  21.243 -0.0670  0.3816 -0.2794
 9855ION    NA+47349   8.040  26.686  25.606  0.0380  0.1858  0.1813
 9856ION    NA+47350  31.516  17.267  21.703 -0.0341 -0.2756 -0.1922
 9857ION    NA+47351  33.372  30.286  19.037 -0.1159 -0.2491  0.1972
 9858ION    NA+47352  28.374  21.517  25.823  0.1407  0.0719  0.1126
 9859ION    NA+47353   6.819   3.205   2.059 -0.1088 -0.0108 -0.1597
 9860ION    NA+47354   6.540   8.987  22.207  0.0601 -0.2742  0.3076
 9861ION    NA+47355   9.761  33.639   7.214 -0.0022 -0.1146 -0.0826
 9862ION    NA+47356  13.301  27.908   5.582 -0.0522 -0.0028 -0.1811
 9863ION    NA+47357  21.331  11.305   7.491 -0.2231  0.1802 -0.2909
 9864ION    NA+47358  32.667  28.077   4.472 -0.0685  0.1282  0.0984
 9865ION    NA+47359  23.960  12.720  11.808 -0.0684  0.2825  0.1462
 9866ION    NA+47360  18.769   1.286  19.990 -0.2830  0.1470  0.2261
 9867ION    NA+47361  16.464  17.286  18.825 -0.0635  0.0700 -0.0485
 9868ION    NA+47362   8.594   3.009   2.000  0.2652  0.1751  0.0680
 9869ION    NA+47363  28.564   7.018   2.795  0.1699 -0.0727 -0.0906
 9870ION    NA+47364   0.089  34.309   9.388  0.1671 -0.1728  0.0477
 9871ION    NA+47365  11.956  20.630   7.421 -0.0678 -0.2341  0.0449
 9872ION    NA+47366  29.768  27.169  23.603  0.3049 -0.2435  0.0750
 9873ION    NA+47367   4.411   2.076   2.242  0.4366  0.2265 -0.1113
 9874ION    NA+47368  28.744  11.132  15.546 -0.0198  0.3647 -0.1982
 9875ION    NA+47369  32.542  15.523  15.691  0.2180 -0.0577 -0.0945
 9876ION    NA+47370   6.477  24.028  24.014 -0.0080  0.0568 -0.0799
 9877ION    NA+47371   3.920  20.957   2.791 -0.2250  0.5841 -0.0332
 9878ION    NA+47372  10.950   7.516  23.607 -0.0647  0.0860  0.1621
 9879ION    NA+47373  24.698  23.026  17.854  0.0443 -0.5068 -0.2577
 9880ION    NA+47374   0.640  31.200  17.817 -0.2106  0.0530  0.0254
 9881ION    NA+47375  17.454  29.549   2.951  0.2868  0.1671 -0.0559
 9882ION    NA+47376  24.543  32.612   2.509  0.0435  0.0086 -0.3270
 9883ION    NA+47377   9.254   4.836  18.695  0.3499  0.2002 -0.0702
 9884ION    NA+47378  13.450  30.597   1.070  0.0097 -0.1329 -0.0796
 9885ION    NA+47379  13.074  16.197  14.368  0.0269 -0.5975  0.1077
 9886ION    NA+47380   8.014  32.783  14.979 -0.0905  0.1913  0.0102
 9887ION    NA+47381  23.924  26.677   4.404 -0.2512 -0.1812 -0.0673
 9888ION    NA+47382  33.638  29.817   7.346  0.1715  0.0694  0.1084
 9889ION    NA+47383  29.787  34.892   6.537  0.0673 -0.4902  0.0467
 9890ION    NA+47384  24.053  18.145  10.491  0.0690  0.1686  0.0954
 9891ION    NA+47385   9.931  29.559   6.336  0.1856 -0.2304  0.2425
 9892ION    NA+47386  16.131  17.836  20.967 -0.0674  0.2226 -0.1848
 9893ION    NA+47387  18.732   3.718   7.806 -0.2255 -0.3170  0.0936
 9894ION    NA+47388  33.480   3.218  17.246  0.0450  0.0396 -0.0990
 9895ION    NA+47389   3.843  15.620  24.478  0.1261  0.0377 -0.2377
 9896ION    NA+47390  19.075  21.054  23.981 -0.0985  0.1721  0.4008
 9897ION    NA+47391  21.219  30.851  13.947  0.0515 -0.1627  0.1241
 9898ION    NA+47392  31.772   2.334   5.590  0.1226  0.2337  0.3968
 9899ION    NA+47393  14.707  10.776  14.630 -0.2657 -0.2902 -0.0255
 9900ION    NA+47394  12.046  16.426   2.561 -0.2576 -0.1221 -0.6678
 9901ION    NA+47395  27.121   0.438  16.414 -0.0912  0.1357  0.0533
 9902ION    NA+47396  34.770  33.033  21.254  0.0898 -0.1179 -0.2602
 9903ION    NA+47397  19.769  29.995   3.949  0.0989  0.0572  0.1037
 9904ION    NA+47398   6.664  18.325  22.698 -0.0985 -0.0535 -0.0664
 9905ION    NA+47399  12.360  10.552  14.369 -0.0468 -0.0610 -0.0450
 9906ION    NA+47400  34.263  24.258  16.887 -0.2453 -0.1690 -0.0261
 9907ION    NA+47401  13.213  24.191  17.933  0.2216 -0.0199 -0.1686
 9908ION    NA+47402  23.572  31.736  10.951  0.0823  0.5978  0.2779
 9909ION    NA+47403   6.513  12.675  17.352 -0.0042  0.0178 -0.3083
 9910ION    NA+47404  27.897   6.699   3.299 -0.1678 -0.0824 -0.0329
 9911ION    NA+47405   5.715  16.732   1.131 -0.1805  0.0654  0.1475
 9912ION    NA+47406  14.681  20.912  16.389 -0.3328  0.2590  0.0263
 9913ION    NA+47407  25.742  26.541  20.929 -0.0972 -0.0891 -0.0239
 9914ION    NA+47408  10.844  29.453   5.513  0.0600 -0.2027 -0.1814
 9915ION    NA+47409  32.600   1.051  20.163 -0.2961  0.0233  0.1666
 9916ION    NA+47410  28.976  12.306  12.175 -0.0890  0.2911 -0.3411
 9917ION    NA+47411   4.687  17.209   4.852  0.1869 -0.0453  0.1449
 9918ION    NA+47412  21.001   0.228   7.537 -0.0343 -0.0106  0.0538
 9919ION    NA+47413  13.000   7.532  18.800 -0.2397 -0.0308 -0.0483
 9920ION    NA+47414   2.666  13.747  14.104 -0.1885  0.0686  0.3733
 9921ION    NA+47415  19.134   4.688   3.822 -0.0258 -0.0603  0.1620
 9922ION    NA+47416  25.337   4.916  11.134  0.1373  0.0192  0.0776
 9923ION    NA+47417  29.676  28.773  17.712  0.2296  0.0437 -0.2605
 9924ION    NA+47418  24.604  27.581  16.829  0.2786  0.1599  0.0580
 9925ION    NA+47419  14.490   7.219   4.191  0.1511 -0.1836 -0.0723
 9926ION    NA+47420   9.657  22.404   5.538  0.1541 -0.1396  0.2416
 9927ION    NA+47421  18.910   0.799   1.796  0.0194 -0.0260 -0.0253
 9928ION    NA+47422  18.788   6.535  12.617  0.1374 -0.0051 -0.1722
 9929ION    NA+47423  30.135  12.633   9.534 -0.1240 -0.1475 -0.2963
 9930ION    NA+47424  13.959  29.874  10.986  0.0576 -0.0750  0.0751
 9931ION    NA+47425   1.617  28.045   7.666  0.0870  0.1416  0.1679
 9932ION    NA+47426  32.342   5.465   5.791 -0.0716 -0.3408 -0.0045
 9933ION    NA+47427  10.566  23.281   3.643 -0.0943  0.2477  0.0600
 9934ION    NA+47428   2.559   8.326  21.374  0.1478  0.0249  0.3012
 9935ION    NA+47429   2.908  24.725   6.392  0.0756 -0.2303 -0.1779
 9936ION    NA+47430  13.559   2.504  12.652 -0.0184 -0.3247  0.0349
 9937ION    NA+47431   4.737   9.813   8.948  0.1511 -0.2053  0.0949
 9938ION    NA+47432   4.126   0.776   6.803 -0.0272 -0.3568 -0.2185
 9939ION    NA+47433  27.001  18.555  11.574  0.2578 -0.4940 -0.2211
 9940ION    NA+47434   3.848  23.852   5.039  0.0209  0.1087  0.0790
 9941ION    NA+47435  17.431  16.879   7.921  0.1731 -0.0534 -0.3969
 9942ION    NA+47436  20.132  21.943   6.865 -0.1896 -0.1037 -0.3359
 9943ION    NA+47437   4.187  21.372   6.057  0.1469 -0.2828  0.0232
 9944ION    NA+47438  20.323  31.147  17.700 -0.1953 -0.1843 -0.1833
 9945ION    NA+47439  19.260   6.419  17.972 -0.1676 -0.0094  0.2682
 9946ION    NA+47440  14.389   0.130  11.406 -0.2665 -0.1116 -0.2979
 9947ION    NA+47441  28.696  20.242  14.625 -0.0110 -0.0132 -0.4018
 9948ION    NA+47442  29.413   5.198  13.121 -0.0387 -0.1114 -0.3297
 9949ION    NA+47443  13.892   4.457  20.331 -0.1624  0.3053  0.0125
 9950ION    NA+47444  21.092  16.196  25.316  0.4750  0.3595 -0.0915
 9951ION    NA+47445  34.510   2.682  13.112 -0.2050  0.0117 -0.1387
 9952ION    NA+47446  34.380  21.229  13.577  0.0723  0.0281 -0.4775
 9953ION    NA+47447  33.808   2.980   4.524  0.0322  0.0625 -0.0901
 9954ION    NA+47448  14.354  26.423  11.815  0.3933  0.2069 -0.1351
 9955ION    NA+47449  29.794  26.492  17.819  0.0435 -0.0442  0.0724
 9956ION    NA+47450  31.743  22.616  12.143 -0.2153 -0.1339  0.1968
 9957ION    NA+47451  17.862  32.226   2.688  0.1671 -0.1161 -0.0330
 9958ION    NA+47452  10.705   1.987   4.287  0.0598 -0.0477  0.0288
 9959ION    NA+47453  26.813   8.077  16.593 -0.3744  0.3658 -0.0973
 9960ION    NA+47454  33.080  16.278   1.045  0.0533 -0.0358  0.0690
 9961ION    NA+47455  17.225  34.542  20.108 -0.1049 -0.1649 -0.1113
 9962ION    NA+47456   6.511  20.028   3.928  0.1899 -0.0097 -0.0698
 9963ION    NA+47457   5.667   9.131  20.740  0.0756  0.3559  0.0653
 9964ION    NA+47458  13.962  12.657  21.440  0.0297  0.1953 -0.3191
 9965ION    NA+47459   6.458  30.945  25.199  0.1944 -0.0391 -0.1847
 9966ION    NA+47460  18.075  13.440  18.919 -0.1281 -0.0251  0.0533
 9967ION    NA+47461   1.474  14.946   0.361 -0.0761  0.0002 -0.0194
 9968ION    NA+47462  24.901   6.582   4.651 -0.0391  0.2450  0.0666
 9969ION    NA+47463  30.335  26.706   2.961  0.0115  0.0439 -0.0782
 9970ION    NA+47464  24.134   6.570  25.518 -0.2008 -0.0101 -0.0808
 9971ION    NA+47465  27.369  34.537  21.402  0.1684 -0.0249  0.0037
 9972ION    NA+47466  27.685  17.630  16.129 -0.0403  0.0658 -0.0486
 9973ION    NA+47467   1.331  32.664  25.474 -0.0519 -0.2173 -0.0694
 9974ION    NA+47468  17.057  18.742   4.254 -0.4443  0.1099 -0.0148
 9975ION    NA+47469   3.672  16.369   4.652 -0.2334 -0.0944  0.0444
 9976ION    NA+47470  17.635  31.119   1.939 -0.2193  0.1722  0.0399
 9977ION    NA+47471  29.538  20.301   4.799  0.0974  0.0768  0.2947
 9978ION    NA+47472  21.588  33.707   7.029  0.1682  0.0486 -0.2662
 9979ION    NA+47473  20.461   9.180   2.442 -0.0192 -0.0283  0.0623
 9980ION    NA+47474  16.986   3.521   6.435  0.2716  0.0173  0.5559
 9981ION    NA+47475   7.547  11.739   4.427  0.0814 -0.1314 -0.0548
 9982ION    NA+47476   3.461  26.896   4.559  0.0644 -0.3122 -0.0016
 9983ION    NA+47477   1.550  18.740   2.818 -0.0418 -0.1473  0.0667
 9984ION    CL-47478  21.284  12.929   5.483 -0.2309 -0.0174  0.0216
 9985ION    CL-47479   7.081   8.525   0.079  0.1897  0.0348 -0.0048
 9986ION    CL-47480  24.025  20.889  16.034  0.2886 -0.0604  0.2537
 9987ION    CL-47481   7.360  31.845   3.493  0.0307 -0.0154 -0.2921
 9988ION    CL-47482  35.378  10.688  14.185  0.0304 -0.1162 -0.2547
 9989ION    CL-47483  18.111  22.709  20.841 -0.1723  0.1288  0.1996
 9990ION    CL-47484  31.157   1.930  25.022  0.1539  0.2173  0.0233
 9991ION    CL-47485  31.047  32.062   2.011  0.4127 -0.3883 -0.1455
 9992ION    CL-47486   0.733  16.820  18.579  0.1610  0.0110  0.3919
 9993ION    CL-47487   1.152   6.269  21.142  0.1179 -0.2860  0.3383
 9994ION    CL-47488  20.679   0.060  15.677  0.2039  0.0300 -0.3966
 9995ION    CL-47489   2.224  15.691  14.511  0.3802  0.2149 -0.1366
 9996ION    CL-47490  33.150  13.788  11.118 -0.1012 -0.0718  0.0302
 9997ION    CL-47491   6.657   0.746  26.232  0.0716  0.0900  0.0864
 9998ION    CL-47492   3.924  27.187   4.574  0.1141  0.1222  0.2074
 9999ION    CL-47493   3.497  29.263   4.032  0.2607 -0.0336 -0.0881
10000ION    CL-47494  30.740  16.465  17.960  0.1115 -0.1638 -0.0582
10001ION    CL-47495  12.374  24.090   2.694 -0.3696 -0.0766  0.0121
10002ION    CL-47496  10.591  16.510  11.320 -0.1461 -0.0904  0.0848
10003ION    CL-47497  19.550   8.458   6.852  0.4183  0.1765  0.0562
10004ION    CL-47498  34.558   5.317  18.832  0.2244  0.2616  0.2080
10005ION    CL-47499  22.514  18.636  22.280  0.0512  0.1570  0.1811
10006ION    CL-47500  10.901   5.336   4.862  0.4074  0.0279  0.0419
10007ION    CL-47501  11.260  14.092   6.887 -0.2656 -0.0397  0.2328
10008ION    CL-47502  25.374  22.996  15.418  0.1602  0.0197  0.3077
10009ION    CL-47503  16.166  16.166   0.871 -0.0883 -0.2408  0.5378
10010ION    CL-47504   7.833   9.255  19.368 -0.0511  0.0665 -0.1009
10011ION    CL-47505  18.576   9.548   2.140 -0.1037  0.0537 -0.1478
10012ION    CL-47506  23.372  21.053  19.792  0.0173 -0.1330  0.0588
10013ION    CL-47507   6.034  23.632   7.665  0.2995 -0.0172 -0.0349
10014ION    CL-47508  12.565  25.690   0.232 -0.0382 -0.0489  0.1005
10015ION    CL-47509   6.196  25.041  24.633 -0.0156  0.3873  0.4800
10016ION    CL-47510  12.927  26.256  23.854  0.1512  0.1013 -0.1823
10017ION    CL-47511  33.035  22.369  11.421  0.0490  0.4996 -0.1089
10018ION    CL-47512   0.396  31.338   7.390 -0.0319  0.0796  0.0872
10019ION    CL-47513  23.625   2.678  22.149 -0.0143  0.1758  0.4642
10020ION    CL-47514  17.215  15.757   9.776 -0.2665 -0.0159 -0.0016
10021ION    CL-47515   3.624  31.077  20.830 -0.0408 -0.3618 -0.0230
10022ION    CL-47516  34.597  16.277  15.288  0.2305 -0.0349 -0.0976
10023ION    CL-47517  24.632  24.413  15.688  0.0391  0.1439 -0.1999
10024ION    CL-47518  26.501  22.615  13.840 -0.2800 -0.0998 -0.0835
10025ION    CL-47519   2.976   7.554   1.348  0.0268  0.0568  0.0268
10026ION    CL-47520  26.158   4.637   1.338 -0.2102 -0.1992  0.0045
10027ION    CL-47521  18.379  26.133   5.413  0.2282 -0.2033  0.1102
10028ION    CL-47522  17.672  20.251   0.472 -0.0473  0.2118  0.2302
10029ION    CL-47523  31.831   9.732  15.347  0.3197  0.2468 -0.0858
10030ION    CL-47524  19.319  13.021   8.415 -0.0123 -0.0646 -0.1503
10031ION    CL-47525   9.353  11.888  25.875  0.0225  0.0417  0.0702
10032ION    CL-47526  25.143   8.056  13.629  0.3873  0.0987  0.1702
10033ION    CL-47527  24.490  23.715  12.380  0.1293 -0.2150  0.1134
10034ION    CL-47528  23.809  29.549  23.349  0.1915 -0.0832 -0.1883
10035ION    CL-47529  13.863  20.106   1.417  0.0368 -0.0422 -0.2275
10036ION    CL-47530  24.675  19.567  11.132 -0.0555 -0.2444 -0.1451
10037ION    CL-47531  25.275  17.472   7.816 -0.3452 -0.1676  0.0312
10038ION    CL-47532  34.925  29.398   0.774  0.1593  0.1235  0.2226
10039ION    CL-47533  33.954  30.190  20.763  0.1082  0.3768 -0.1403
10040ION    CL-47534  19.477  33.857  19.935 -0.0761 -0.1071  0.2049
10041ION    CL-47535  28.807  21.597   6.208  0.1930  0.0306 -0.2834
10042ION    CL-47536  24.336  10.903  12.286  0.3677 -0.0776  0.1310
10043ION    CL-47537   7.972   9.184   7.300 -0.1978 -0.3048  0.0619
10044ION    CL-47538  12.197  15.952  23.037 -0.2481 -0.1577  0.0900
10045ION    CL-47539  35.381  13.720  23.437 -0.4732  0.0356  0.2691
10046ION    CL-47540  27.258   2.045  13.325 -0.1379  0.0627  0.3401
10047ION    CL-47541   6.334   9.910  23.401  0.0397  0.1233 -0.0871
10048ION    CL-47542  16.084  27.765   1.638 -0.1237  0.1139  0.0518
10049ION    CL-47543  12.802  21.013   5.520 -0.1813 -0.3353 -0.1676
10050ION    CL-47544  33.671  17.223  17.488 -0.0436 -0.6460 -0.0552
10051ION    CL-47545   7.973  24.772  25.296  0.2163  0.0650  0.1400
10052ION    CL-47546  15.024   0.243  10.712  0.2487  0.1775 -0.1260
10053ION    CL-47547  10.307   3.432  22.535  0.0954 -0.0778 -0.0827
10054ION    CL-47548  33.300  34.745   6.576  0.2264 -0.1236 -0.0783
10055ION    CL-47549  27.318  33.722   0.581 -0.1649 -0.0366  0.1881
10056ION    CL-47550  31.773  25.822  18.359 -0.4657  0.0696 -0.5200
10057ION    CL-47551  26.966  14.982  15.003 -0.1020 -0.2619  0.2950
10058ION    CL-47552   0.639  31.387   6.329 -0.1263  0.0540  0.0819
10059ION    CL-47553  23.864   9.007  22.392  0.0393  0.0718  0.0008
10060ION    CL-47554  13.811  10.343  10.576 -0.0675 -0.0673  0.1382
10061ION    CL-47555  20.041  13.631  20.344 -0.1375  0.4071  0.0940
10062ION    CL-47556  29.316  29.003  17.444 -0.5182  0.0134 -0.3346
10063ION    CL-47557  32.273  15.793   5.248  0.2538 -0.2440 -0.1250
10064ION    CL-47558   9.474   7.615  24.707  0.0273  0.1622  0.1704
10065ION    CL-47559  15.296  14.569   0.927 -0.2581 -0.3778 -0.1971
10066ION    CL-47560  32.266  26.205   0.536 -0.0094 -0.1280 -0.2601
10067ION    CL-47561  26.950  23.945  15.425  0.0096 -0.1332  0.1550
10068ION    CL-47562   4.027  26.054   6.962 -0.0660  0.1202 -0.0815
10069ION    CL-47563  10.547  19.937  15.030  0.2578  0.2996 -0.0602
10070ION    CL-47564  11.018   5.773  12.447  0.1936 -0.4017 -0.3876
10071ION    CL-47565  32.597   9.345  13.906  0.0868 -0.0537  0.4801
10072ION    CL-47566  13.349   2.346  21.803  0.0264  0.3033 -0.1210
10073ION    CL-47567  15.182  15.089  20.982  0.0677 -0.1795 -0.4454
10074ION    CL-47568  14.204   2.104   1.547 -0.1462 -0.1296 -0.0112
10075ION    CL-47569  17.277  31.584   8.582 -0.2021 -0.0883 -0.0444
10076ION    CL-47570  34.378   0.731   0.135 -0.0138  0.3323  0.2421
10077ION    CL-47571  18.779  33.508   0.468  0.1103 -0.0149  0.0067
10078ION    CL-47572   6.674  22.628  21.122 -0.3868 -0.0978 -0.3491
10079ION    CL-47573  11.824  22.195  13.626  0.4150  0.2954  0.1509
10080ION    CL-47574   6.490  23.828   4.078  0.0117  0.2838 -0.1293
10081ION    CL-47575  23.665  22.607  18.016  0.0486  0.2212  0.1021
10082ION    CL-47576   8.892  30.818  16.272  0.0140 -0.3290  0.0140
10083ION    CL-47577  12.880  16.525   1.894 -0.1246  0.0562  0.0222
10084ION    CL-47578  23.049  20.058   1.993  0.0259 -0.0059 -0.2475
10085ION    CL-47579  23.015  20.978  21.535 -0.3747 -0.2309 -0.0929
10086ION    CL-47580   7.739   7.831   3.085 -0.1035  0.0964 -0.2302
10087ION    CL-47581  18.118  29.178   7.366 -0.0615  0.0195  0.0904
10088ION    CL-47582  29.969  18.689  11.783 -0.1526 -0.0553  0.2379
10089ION    CL-47583   0.992  29.243   1.499 -0.0450 -0.0303  0.3001
10090ION    CL-47584  14.667  30.767  23.734 -0.0340  0.1826 -0.1537
10091ION    CL-47585  22.646  13.321  23.530 -0.1906 -0.2615 -0.1202
10092ION    CL-47586  19.111   2.421   3.670  0.1250  0.1229  0.0357
10093ION    CL-47587   2.288  10.076   0.015 -0.3256 -0.0955 -0.1693
10094ION    CL-47588  28.948  17.311  25.379 -0.0620  0.0956 -0.0997
10095ION    CL-47589  14.468  34.213  24.760 -0.0135 -0.2500 -0.4479
10096ION    CL-47590  29.060  16.166   7.944  0.3538  0.1909 -0.3272
10097ION    CL-47591  27.992  15.508   6.516 -0.0627 -0.2524 -0.2867
10098ION    CL-47592  31.684  18.195  20.610  0.1787  0.2328  0.1242
10099ION    CL-47593   0.142  18.782  11.542 -0.1008 -0.0231 -0.1092
10100ION    CL-47594  26.528   7.784  18.758  0.0145  0.3653 -0.0931
10101ION    CL-47595  18.043  22.492   5.911 -0.2837 -0.0392 -0.1439
10102ION    CL-47596   9.857   5.941  13.124 -0.0338 -0.2731 -0.0295
10103ION    CL-47597  18.338  30.418   4.668  0.3196 -0.2318  0.2393
10104ION    CL-47598   8.074  17.719  24.022  0.0690  0.4649 -0.2339
10105ION    CL-47599  26.076  25.273  23.206 -0.0397 -0.0604  0.0132
10106ION    CL-47600   9.480  19.120  24.763  0.3283  0.1950  0.4416
10107ION    CL-47601  27.633  31.687  15.778 -0.1237  0.1227 -0.2340
10108ION    CL-47602  33.891  24.752   0.149 -0.4078 -0.2843  0.0758
10109ION    CL-47603   0.739   1.381   5.677 -0.0094 -0.0968  0.0724
10110ION    CL-47604  22.243  17.910  19.036  0.0286 -0.0864 -0.0643
10111ION    CL-47605  17.895   8.705  18.740  0.0979  0.2380 -0.0217
10112ION    CL-47606   6.701   2.415   4.162 -0.1264  0.3363 -0.5075
10113ION    CL-47607  23.974  27.682  11.281  0.2210  0.1157 -0.1926
10114ION    CL-47608  21.023  16.204  16.176  0.1200  0.1558  0.2843
10115ION    CL-47609  11.445   8.328  25.389  0.1359  0.0942  0.3344
10116ION    CL-47610  26.367  16.205  17.402 -0.1853 -0.1394  0.0222
10117ION    CL-47611   0.747   6.263  22.101 -0.2455 -0.1852 -0.3427
10118ION    CL-47612  34.009  13.219  23.352  0.1715 -0.3460  0.1703
10119ION    CL-47613  22.010  30.701  25.235  0.0098 -0.1104 -0.1150
10120ION    CL-47614  21.271  21.463  25.039  0.0719  0.0065 -0.0506
10121ION    CL-47615  26.824   8.451  24.550 -0.0657 -0.3065  0.0765
10122ION    CL-47616   5.962  31.088   4.978  0.2305  0.1413  0.2292
10123ION    CL-47617  13.055  14.369  19.624 -0.0095 -0.0906 -0.2324
10124ION    CL-47618  19.630   0.808   2.737 -0.1964 -0.0996 -0.1708
10125ION    CL-47619   1.424  28.974   2.655 -0.1457 -0.1846 -0.2359
10126ION    CL-47620  20.138  31.968  17.700  0.0969  0.1047  0.1034
10127ION    CL-47621   1.531   0.266   7.173 -0.0499 -0.1040  0.2424
10128ION    CL-47622  14.612  26.813  10.549 -0.1369 -0.1361  0.0571
10129ION    CL-47623  22.724   7.123   2.424 -0.2154  0.1101  0.0789
10130ION    CL-47624  32.664  33.610  15.232 -0.0093 -0.1136 -0.1019
10131ION    CL-47625  29.401   9.992  24.578 -0.0847  0.0121  0.2229
10132ION    CL-47626  35.006  33.887  21.991  0.0782  0.1496  0.2329
10133ION    CL-47627  20.488  32.085   3.829  0.1387 -0.0599 -0.0972
10134ION    CL-47628   3.869  32.288   9.963 -0.5121 -0.4424 -0.2152
10135ION    CL-47629  12.228  16.907   2.235 -0.0977  0.0213 -0.1628
10136ION    CL-47630  32.338  14.230  25.095 -0.0502 -0.0375 -0.1099
10137ION    CL-47631  35.147   6.412  16.928  0.1246  0.1604 -0.0115
10138ION    CL-47632  20.809   3.416   1.185 -0.2468  0.1631 -0.0975
10139ION    CL-47633  33.328   7.330  18.650 -0.1354  0.1547  0.1799
10140ION    CL-47634  23.212   5.815  22.748 -0.2158  0.0908 -0.3126
10141ION    CL-47635  30.354  30.830  13.707  0.3487 -0.1244 -0.1345
10142ION    CL-47636   9.412  22.215   5.912 -0.5264  0.2073 -0.1378
10143ION    CL-47637   2.807   8.216  21.775  0.4755 -0.3682 -0.1390
10144ION    CL-47638  17.187  18.219  22.054  0.1058 -0.0751  0.0981
10145ION    CL-47639  31.618   0.664   5.967 -0.0949 -0.1702 -0.1835
10146ION    CL-47640  13.404   2.908   7.179  0.0597 -0.0400  0.1524
10147ION    CL-47641  34.692  17.775  18.168  0.0481 -0.0308 -0.1512
10148ION    CL-47642   0.497  14.910  18.596  0.0330  0.0666 -0.2840
10149ION    CL-47643  23.699  31.203   5.148 -0.0385 -0.1293  0.0223
10150ION    CL-47644  32.521  21.926   8.395 -0.1787  0.2541  0.1494
10151ION    CL-47645  29.205  11.616  23.631  0.0804  0.3364  0.2438
10152ION    CL-47646  32.547  10.473   8.859 -0.2213 -0.0385 -0.1125
10153ION    CL-47647  13.358  16.486   0.512  0.2347 -0.0401 -0.0375
10154ION    CL-47648  20.135  27.439  23.109  0.3925 -0.0901  0.1426
10155ION    CL-47649  30.699   1.233  17.716  0.0724  0.1521  0.0510
10156ION    CL-47650  32.191  31.477  23.121 -0.0882 -0.0201 -0.0091
10157ION    CL-47651  26.708  19.895   9.512 -0.1537  0.2604  0.0205
10158ION    CL-47652  17.587  27.009  24.244 -0.2752  0.1998  0.3238
10159ION    CL-47653  30.357   9.734   7.238 -0.4016 -0.1065 -0.2234
10160ION    CL-47654  28.881  15.073  24.475 -0.0065  0.2180  0.0011
10161ION    CL-47655   8.145  33.561  25.709 -0.2008 -0.3152 -0.1366
10162ION    CL-47656  27.042  25.277   1.296 -0.0076  0.0942 -0.0214
10163ION    CL-47657  25.104  18.823  11.223 -0.0747  0.0647 -0.0606
10164ION    CL-47658   2.946   6.953  16.274 -0.1151 -0.1808 -0.1201
10165ION    CL-47659  14.350  22.831   2.273 -0.0278 -0.1017  0.0479
10166ION    CL-47660  31.121   7.051  13.542  0.1377  0.1700  0.0750
10167ION    CL-47661  24.240  14.565   9.939  0.1901 -0.1890 -0.3198
10168ION    CL-47662  12.853   0.728   9.097  0.1878 -0.1894  0.0257
10169ION    CL-47663  23.124  32.961  14.341 -0.2618  0.0445  0.1430
10170ION    CL-47664  30.439  12.311  24.842  0.0054  0.2309 -0.0264
10171ION    CL-47665  16.096  11.426  13.006  0.1543  0.2603  0.0992
10172ION    CL-47666  10.015  22.591   0.971 -0.0095 -0.0886 -0.0236
10173ION    CL-47667  10.562   7.702   2.373 -0.0200 -0.1037 -0.1894
10174ION    CL-47668   0.579  15.495  14.139  0.0725 -0.0372  0.1639
10175ION    CL-47669  10.615  19.215  21.285 -0.1117 -0.1367  0.0946
10176ION    CL-47670  15.258  27.174   0.710 -0.1006  0.2476  0.1828
10177ION    CL-47671  11.412  21.444  13.516 -0.0605  0.0521  0.2280
10178ION    CL-47672  26.863  32.432   0.432 -0.0578  0.1612 -0.0706
10179ION    CL-47673  13.539  14.546  12.313  0.0141 -0.1893  0.0919
10180ION    CL-47674  12.658  29.929  10.291 -0.0315  0.2126 -0.0815
10181ION    CL-47675  14.940  23.994  22.328 -0.0697  0.0600  0.1211
10182ION    CL-47676   5.564   1.732   1.452 -0.1708 -0.0539  0.1470
10183ION    CL-47677  17.811   6.114   8.116 -0.0761  0.1907 -0.2503
10184ION    CL-47678  31.874   2.841   5.490 -0.2046  0.1531  0.0693
10185ION    CL-47679   7.679  25.034   3.436  0.2476  0.0170 -0.0741
10186ION    CL-47680   1.740   8.363   4.117 -0.0549  0.0041 -0.0981
10187ION    CL-47681  28.638   4.524  19.018  0.2209  0.3123 -0.1291
10188ION    CL-47682  22.098  28.199  20.704  0.3960 -0.0375 -0.0569
10189ION    CL-47683  20.272  10.360   8.864  0.1011 -0.0463  0.0206
10190ION    CL-47684  13.635  27.452   7.536 -0.0418  0.0551  0.2547
10191ION    CL-47685  17.661   9.137  18.838 -0.1290 -0.0909 -0.1026
10192ION    CL-47686  19.237  20.480   2.941  0.4497  0.0510  0.0691
10193ION    CL-47687   0.276  31.252  17.487  0.1249 -0.0176  0.1320
10194ION    CL-47688  23.144   7.787  16.466  0.1403  0.1808  0.0954
10195ION    CL-47689  20.061  24.520  23.331 -0.1895  0.2725  0.0340
10196ION    CL-47690  12.829  28.420   5.638 -0.1435  0.0283 -0.0437
10197ION    CL-47691   8.038  20.942   6.086  0.0459 -0.0887  0.2109
10198ION    CL-47692  33.178  30.325  20.553  0.0640 -0.0103  0.1511
10199ION    CL-47693   6.897  16.586   5.730  0.0315 -0.5492  0.0773
10200ION    CL-47694  18.883   8.797  12.436  0.0612 -0.0883 -0.0320
10201ION    CL-47695   7.924  29.671  13.945  0.1175 -0.1579  0.1015
10202ION    CL-47696  28.213  24.598  11.359  0.1062  0.2351  0.1227
10203ION    CL-47697   5.331  30.618  24.453 -0.0225 -0.2262  0.0732
10204ION    CL-47698  11.339  12.917  24.196  0.1958 -0.4431 -0.0447
10205ION    CL-47699  33.124   0.846  16.996  0.2024  0.0658 -0.0457
10206ION    CL-47700  10.912  30.665  14.428  0.5054 -0.0566  0.1930
10207ION    CL-47701  21.769   6.949  23.300 -0.1053 -0.0613 -0.0479
10208ION    CL-47702  28.678  19.684  14.974  0.1198  0.0859  0.0043
10209ION    CL-47703   6.729  27.953  15.255  0.2102  0.0044  0.0644
10210ION    CL-47704   8.918  24.086  16.223 -0.2169  0.0637 -0.2863
10211ION    CL-47705  20.135  10.760  17.195  0.3759 -0.0000  0.1503
10212ION    CL-47706  25.921  11.486  19.886  0.2993  0.2268  0.0375
10213ION    CL-47707  18.145  22.139   5.149 -0.2340 -0.2289 -0.1091
10214ION    CL-47708   3.991  35.034   1.914 -0.2286 -0.4576  0.2331
10215ION    CL-47709  18.650  25.580  24.368 -0.0174 -0.0018 -0.2102
10216ION    CL-47710  19.628  21.319   1.565  0.0482 -0.0417 -0.1218
10217ION    CL-47711   5.121  29.061   1.424  0.1577  0.0356  0.0043
10218ION    CL-47712  16.144  33.224   4.755  0.0798 -0.0582  0.1164
10219ION    CL-47713  14.727  22.803  11.352  0.3453 -0.0353  0.2024
10220ION    CL-47714  12.018   0.691  21.636 -0.2992 -0.1261  0.3855
10221ION    CL-47715  34.733  33.919   0.174  0.0938 -0.1872 -0.0122
10222ION    CL-47716  14.336  21.974   7.758 -0.1337  0.1355  0.1492
10223ION    CL-47717   0.216   4.069  14.621  0.0229  0.1571 -0.1830
10224ION    CL-47718  31.731   7.910  10.315  0.1583  0.5574 -0.2826
10225ION    CL-47719  33.547   6.203  21.707  0.2119  0.0960 -0.2141
10226ION    CL-47720  32.944  15.769  25.715  0.0010  0.1565 -0.0049
10227ION    CL-47721  30.126  34.111  11.461  0.1725 -0.0427  0.1214
10228ION    CL-47722  12.738   6.613   7.358 -0.2588  0.1059 -0.0746
10229ION    CL-47723  33.359   3.558  14.685 -0.4630  0.0878  0.1275
10230ION    CL-47724   7.647  32.455  14.646 -0.0677  0.4461 -0.0644
10231ION    CL-47725  23.240   7.516  18.393 -0.0715 -0.0740 -0.2443
10232ION    CL-47726   1.295  31.497   5.561 -0.0573  0.1747  0.1014
10233ION    CL-47727   1.354  10.005  17.047 -0.1254 -0.0932  0.0567
10234ION    CL-47728  17.640  13.607  18.660 -0.2080 -0.0675  0.2906
10235ION    CL-47729  31.970  12.371  10.727  0.3304  0.1083  0.1921
10236ION    CL-47730  12.293  31.215   5.629 -0.2204  0.4482  0.1432
10237ION    CL-47731  14.351   7.631  23.732  0.2867  0.2517  0.1725
10238ION    CL-47732   1.123  23.600  18.468 -0.2317 -0.3831  0.3154
10239ION    CL-47733  29.702  20.309  10.204  0.1900 -0.1993 -0.3973
10240ION    CL-47734  33.443  10.111   8.490 -0.4752 -0.0236  0.1493
10241ION    CL-47735  17.670   2.155  20.989  0.0113 -0.2621  0.1515
10242ION    CL-47736   5.885  15.612   6.298 -0.0903 -0.2515  0.1055
10243ION    CL-47737  28.336  35.173   0.159 -0.0777  0.0958 -0.0402
10244ION    CL-47738   6.904   5.928  22.535  0.4286  0.0397 -0.1537
10245ION    CL-47739  31.310  11.384   7.284 -0.0483 -0.1609  0.1298
10246ION    CL-47740  23.611  25.000  26.222  0.1106  0.1760  0.2180
10247ION    CL-47741  34.287  10.961  20.668  0.1858  0.3113 -0.0829
10248ION    CL-47742  18.688   8.366   2.964  0.0272  0.1404 -0.0755
10249ION    CL-47743  31.686   8.149  15.019  0.0587 -0.1891 -0.3116
10250ION    CL-47744  15.169  25.393   9.813  0.4226  0.1902 -0.0285
10251ION    CL-47745  26.626   0.553   4.362 -0.0238  0.1767  0.2706
10252ION    CL-47746   2.397  18.580  19.351  0.3283  0.1349 -0.0040
10253ION    CL-47747  31.471   7.422  24.986  0.2158  0.0058  0.0712
10254ION    CL-47748  11.983  27.663  12.481 -0.0446  0.2178  0.1062
10255ION    CL-47749  17.855  25.319  22.469  0.1335 -0.0383 -0.1430
10256ION    CL-47750  21.586  35.166  15.420 -0.0948 -0.2948  0.1008
10257ION    CL-47751  21.954  17.185  14.774  0.3538  0.0894 -0.0961
10258ION    CL-47752  15.910  24.491  12.462 -0.0936 -0.1513 -0.0348
10259ION    CL-47753  32.093  10.339  12.150 -0.0454 -0.0616  0.2217
10260ION    CL-47754  14.895   5.053   1.892  0.3488  0.1399 -0.2076
10261ION    CL-47755  22.821  27.453  25.894  0.3836 -0.2713 -0.0772
10262ION    CL-47756  27.157   1.547  14.852 -0.2204 -0.0125 -0.2187
10263ION    CL-47757   1.574  33.481   7.652 -0.3164  0.1584  0.0406
10264ION    CL-47758  11.600  26.997  26.125  0.1114 -0.0346 -0.2056
10265ION    CL-47759  34.101  11.954  21.179  0.2337  0.3415 -0.1447
10266ION    CL-47760  17.172  29.925   4.895 -0.0735 -0.1224  0.2915
10267ION    CL-47761   1.208  15.560  14.652 -0.0939  0.4467 -0.0483
10268ION    CL-47762   3.878  33.071  21.936  0.0664  0.2331 -0.2508
10269ION    CL-47763   3.016  12.229  22.924  0.0689  0.0749  0.0191
10270ION    CL-47764   5.788  23.999   3.352  0.1102  0.0284  0.3380
10271ION    CL-47765  28.328  34.502  16.332  0.1314 -0.0443  0.0075
10272ION    CL-47766  29.489  33.570  17.576 -0.0614 -0.0381  0.0116
10273ION    CL-47767  24.914  20.731  10.636  0.0458  0.1780  0.0315
10274ION    CL-47768   7.068  34.450  14.111  0.1782 -0.0186  0.2165
10275ION    CL-47769  23.842  12.287   0.818 -0.0219  0.0228 -0.0136
10276ION    CL-47770  11.577  10.153  21.786 -0.0309 -0.0806  0.0479
10277ION    CL-47771  16.096   7.304  23.585  0.0407  0.1301  0.0062
10278ION    CL-47772  27.973  25.213  18.646 -0.6138  0.2105 -0.1395
10279ION    CL-47773   1.363   2.463   7.454  0.3937  0.2598  0.0424
10280ION    CL-47774  18.196   2.010  20.159  0.2913 -0.2813  0.0482
10281ION    CL-47775  27.108  15.218  16.422  0.0446  0.1821  0.1168
10282ION    CL-47776   7.333  23.867  14.400  0.0136 -0.2774  0.2523
10283ION    CL-47777  29.411  33.799  14.295  0.1488 -0.2471  0.1895
10284ION    CL-47778  18.687  22.178  24.240 -0.0701 -0.4083 -0.1432
10285ION    CL-47779   5.131  27.776  10.574  0.0437  0.4709  0.1174
10286ION    CL-47780  29.013   3.658   2.338 -0.2117  0.2081 -0.0390
10287ION    CL-47781   0.867  23.264  13.978  0.0301 -0.4131 -0.2993
10288ION    CL-47782   2.038  20.320   2.345 -0.3060  0.3295  0.1120
10289ION    CL-47783   9.027   0.082   9.556  0.0465 -0.1672 -0.0034
10290ION    CL-47784  15.608  20.157   8.844 -0.0536 -0.0759  0.2702
10291ION    CL-47785  34.058  20.906  19.387 -0.1610 -0.2330  0.0067
10292ION    CL-47786  14.982  26.656  15.546  0.0712  0.0793 -0.2906
10293ION    CL-47787   0.532  19.801  22.994  0.0055  0.0687 -0.2190
10294ION    CL-47788  27.707  11.126  23.719 -0.3086  0.3695 -0.2722
10295ION    CL-47789  25.187  28.294  17.710  0.0250 -0.2638 -0.1533
10296ION    CL-47790  28.437   3.868   5.130 -0.0883  0.3401 -0.1635
10297ION    CL-47791  26.959  23.111   8.866  0.0379 -0.0239  0.3960
10298ION    CL-47792  12.069  27.687   2.071 -0.3037 -0.0149  0.3050
10299ION    CL-47793   4.033  23.516   4.721  0.1350  0.0131  0.0725
10300ION    CL-47794   6.051   8.121   3.363  0.0030  0.5029 -0.2689
10301ION    CL-47795  22.264  27.754  13.053  0.2315  0.0137  0.0647
10302ION    CL-47796  17.955   7.450  24.499 -0.1007 -0.2929 -0.1684
10303ION    CL-47797  25.343   9.738  16.336 -0.2443  0.0156  0.1696
10304ION    CL-47798   4.304  13.736   1.884 -0.1414  0.2914  0.1467
10305ION    CL-47799  23.279   0.675  26.009  0.0545 -0.0925 -0.2451
10306ION    CL-47800  20.734  19.579   5.040 -0.2399  0.1269 -0.2049
10307ION    CL-47801  35.086   9.759  23.946 -0.0483 -0.1452 -0.2436
10308ION    CL-47802  31.280  14.257  12.224  0.0043 -0.1155  0.1595
10309ION    CL-47803  18.895   6.415  19.999  0.2174 -0.4417  0.2253
10310ION    CL-47804  21.113  34.063   6.264  0.1306  0.2133  0.2470
10311ION    CL-47805  31.799   2.938  20.654  0.0554  0.1990  0.2243
10312ION    CL-47806  26.948  20.325  10.805  0.0203 -0.0894  0.1774
10313ION    CL-47807  29.965  22.346  21.660 -0.0241  0.4004  0.0195
10314ION    CL-47808  34.351  31.283  21.085 -0.3831 -0.1002 -0.0405
10315ION    CL-47809  25.886   0.719  13.063  0.0357 -0.0680  0.5659
10316ION    CL-47810   4.929  25.879  22.321 -0.0939 -0.1480 -0.3297
10317ION    CL-47811  25.386  30.314  23.423  0.1853 -0.0023 -0.3816
10318ION    CL-47812  21.180   3.944  23.740 -0.2834  0.0987 -0.0312
10319ION    CL-47813  28.256  16.934  10.898  0.0932  0.2845 -0.4669
10320ION    CL-47814  25.989   4.337  22.313 -0.0963 -0.2031  0.2403
10321ION    CL-47815  20.493   6.798  24.948  0.2047  0.1568 -0.0771
10322ION    CL-47816  27.874  34.728  11.742 -0.1019  0.0383 -0.0406
10323ION    CL-47817  15.542   4.504  23.081 -0.0044  0.0623  0.0079
10324ION    CL-47818  30.351  22.037  19.464  0.0619  0.0155  0.0940
10325ION    CL-47819   4.388  28.130  21.328  0.0054  0.1391  0.1185
10326ION    CL-47820  21.103  33.565  24.034  0.0849 -0.3594  0.1933
10327ION    CL-47821  27.867  26.998  19.397 -0.0603  0.1551  0.0663
10328ION    CL-47822   7.294  20.671  25.475  0.4914  0.2399  0.2703
10329ION    CL-47823  12.540  10.468   3.378 -0.0909  0.2615  0.2551
10330ION    CL-47824  29.751  32.891  18.860 -0.2371 -0.1781 -0.0614
10331ION    CL-47825  10.318   0.165  25.724  0.1237 -0.0054  0.3169
10332ION    CL-47826  18.452  18.928   7.463  0.0878  0.0543  0.1346
10333ION    CL-47827   5.297   2.741   4.036 -0.0398 -0.2160  0.0022
10334ION    CL-47828   4.930  20.040  19.162  0.1105 -0.0514  0.0712
10335ION    CL-47829  34.252  14.106   7.580 -0.0890 -0.2129 -0.1529
10336ION    CL-47830  25.136   4.086  12.785 -0.1230 -0.1254  0.2549
10337ION    CL-47831   7.797  26.428  16.516  0.1956 -0.0692 -0.0688
10338ION    CL-47832  25.402   1.904  22.389  0.4777 -0.2263 -0.2313
10339ION    CL-47833  13.296  24.116   7.554 -0.0539 -0.5521  0.2809
10340ION    CL-47834   0.541  19.220  25.646  0.0249  0.3474 -0.3847
10341ION    CL-47835  14.901  13.001  13.188  0.0626  0.0118  0.2519
10342ION    CL-47836  21.098  10.606  20.339 -0.2213 -0.1096 -0.1278
10343ION    CL-47837   0.288   3.997  23.508 -0.1252 -0.2291 -0.2807
10344ION    CL-47838  31.289  33.362   4.610  0.0028  0.2848  0.1694
10345ION    CL-47839  20.229   8.921   2.042  0.2461  0.3873  0.2513
10346ION    CL-47840  19.918   2.224  25.569 -0.2213  0.0647  0.2255
10347ION    CL-47841  34.322  11.051  15.447 -0.1522 -0.0659 -0.2496
10348ION    CL-47842  15.436  31.134  11.193  0.2972 -0.3608 -0.1807
10349ION    CL-47843  33.630  26.308  24.973  0.1359  0.0792  0.2841
10350ION    CL-47844  16.286  27.211  25.648  0.1607 -0.1884  0.2178
10351ION    CL-47845  14.241  24.180  24.892  0.0357  0.1022 -0.3420
10352ION    CL-47846  19.595  26.381   0.546  0.0516  0.0735  0.1154
10353ION    CL-47847  19.448  14.789   6.027  0.0454  0.4441  0.0955
10354ION    CL-47848   0.815  34.716  20.075 -0.3947  0.0177 -0.1998
10355ION    CL-47849  11.512  29.984   8.604  0.0996 -0.1418  0.2791
10356ION    CL-47850  35.148  18.064  21.186 -0.1998 -0.1458  0.2194
10357ION    CL-47851  12.329  22.519  22.639  0.2651 -0.1424 -0.1313
10358ION    CL-47852  21.490  31.844  16.425  0.2327  0.1315  0.1588
10359ION    CL-47853  20.640  10.050  25.963 -0.1759  0.0518 -0.0301
10360ION    CL-47854  28.411   7.351  18.413 -0.2649 -0.1862  0.1295
10361ION    CL-47855   8.332  24.118  23.818  0.1367 -0.1847  0.2062
10362ION    CL-47856  35.340  21.820  11.490 -0.0546 -0.0730 -0.0543
10363ION    CL-47857   0.343  24.160   2.402  0.0136  0.1087 -0.2721
10364ION    CL-47858  25.542  12.144  10.365  0.1908  0.0336  0.2351
10365ION    CL-47859  20.316  24.802  21.096 -0.3438 -0.1797 -0.1903
10366ION    CL-47860   3.588   6.730   5.926  0.0832 -0.2265  0.1227
10367ION    CL-47861  26.262  32.176  17.675  0.0216 -0.2861 -0.2095
10368ION    CL-47862  31.175  31.161  20.186 -0.2831 -0.0148  0.1880
10369ION    CL-47863   4.383  28.460  24.845  0.1383 -0.0740 -0.0531
10370ION    CL-47864  13.241  20.929  10.765 -0.1126 -0.1478  0.4342
10371ION    CL-47865  17.672   6.314  23.405  0.0111  0.0441  0.5124
10372ION    CL-47866  26.061  27.329  15.299  0.0321  0.0719  0.0525
10373ION    CL-47867  33.157  16.229   0.354  0.0106  0.0867  0.2656
10374ION    CL-47868  30.226   7.781  11.393 -0.0214  0.1394 -0.2701
10375ION    CL-47869   0.924  12.098  22.026  0.2176 -0.2961 -0.1991
10376ION    CL-47870  28.181  27.417  23.221  0.1094  0.0962 -0.0016
10377ION    CL-47871   1.709  10.181   2.505 -0.2177  0.4115 -0.1642
10378ION    CL-47872   4.535   6.732  25.923  0.0328  0.0430 -0.0020
10379ION    CL-47873  11.870  14.922  10.460 -0.0247  0.0763 -0.0078
10380ION    CL-47874   2.952  31.905  25.100 -0.1882  0.2352 -0.1341
10381ION    CL-47875  12.460  28.579  24.464 -0.1236 -0.2074  0.2503
10382ION    CL-47876  26.570   7.787  10.449  0.1987 -0.1598 -0.0574
10383ION    CL-47877  12.762  13.049  22.242  0.0670 -0.1023  0.0799
10384ION    CL-47878  16.245  20.205  23.976  0.0881  0.3822 -0.2385
10385ION    CL-47879   9.194  24.983  25.004  0.1935  0.1909  0.2716
10386ION    CL-47880  14.856  32.505   1.943 -0.0385 -0.1611 -0.0917
10387ION    CL-47881  22.420   1.638   2.390 -0.1259  0.0195  0.1515
10388ION    CL-47882   2.422  33.078  23.084  0.0590  0.5127  0.2348
10389ION    CL-47883   4.664  34.806  24.774 -0.2987  0.1236 -0.0824
10390ION    CL-47884   7.678   7.186  25.361 -0.3425  0.1697 -0.4858
10391ION    CL-47885   8.220  19.053   0.373  0.0463  0.0854 -0.0559
10392ION    CL-47886   5.990  11.274  22.751  0.0507  0.1450 -0.0770
10393ION    CL-47887   7.815   8.875   8.347  0.0044  0.0054 -0.2882
10394ION    CL-47888  26.463  14.031  20.097 -0.0314 -0.0723 -0.1857
10395ION    CL-47889  34.067   6.405  15.709 -0.0916 -0.2196 -0.0265
10396ION    CL-47890  15.428  34.574  10.082  0.2824 -0.1348  0.1744
10397ION    CL-47891  19.330   5.888  20.696 -0.2343 -0.0972 -0.0761
10398ION    CL-47892  18.571  31.141   7.698  0.1687 -0.0270  0.0610
10399ION    CL-47893  28.358   9.120  10.889 -0.0957 -0.0757 -0.1920
10400ION    CL-47894  34.511   6.596  16.356 -0.1126  0.3109 -0.0797
10401ION    CL-47895  26.401  23.501  18.355  0.0541  0.1008 -0.0758
10402ION    CL-47896  20.096  34.913   4.364 -0.2220  0.0353 -0.2011
10403ION    CL-47897   2.111  21.915  24.043 -0.0798 -0.3810  0.1692
10404ION    CL-47898  22.451  26.327  14.140  0.2836  0.0980 -0.0065
10405ION    CL-47899  23.786   5.893   1.181  0.1636  0.0005 -0.1575
10406ION    CL-47900  28.274  11.864  11.935  0.3072  0.0927 -0.3769
10407ION    CL-47901  20.035   5.682   7.849  0.4940  0.2801  0.1918
10408ION    CL-47902  18.123  10.912   6.243 -0.2581  0.3364 -0.1248
10409ION    CL-47903  25.240   5.559  19.493  0.3645 -0.1594  0.0602
10410ION    CL-47904   1.124  34.678   9.322  0.0367 -0.0984  0.2054
10411ION    CL-47905  23.919   4.009   3.768 -0.0461 -0.1047 -0.0617
10412ION    CL-47906  26.509   5.440   1.027  0.2196  0.1992 -0.0005
10413ION    CL-47907   2.278  14.702  23.835  0.1092 -0.2320 -0.2462
10414ION    CL-47908   2.665  19.764  24.075 -0.3282  0.2628 -0.1937
10415ION    CL-47909  12.288  31.098  11.576 -0.1157 -0.3570  0.0117
10416ION    CL-47910   5.987  35.280   5.441  0.2290  0.1211  0.0500
10417ION    CL-47911  16.079  26.079   3.216  0.0412  0.0357 -0.2248
10418ION    CL-47912  13.674   4.582  21.185  0.2811 -0.1970  0.0434
10419ION    CL-47913  31.967  30.354  21.056  0.1185 -0.1300  0.1312
10420ION    CL-47914  26.847  13.940  18.113  0.2128  0.2904 -0.2846
10421ION    CL-47915  13.259   4.573   0.403 -0.0442 -0.0412 -0.0208
10422ION    CL-47916   3.291   8.000   0.544 -0.0353  0.1331  0.1590
10423ION    CL-47917  29.794  11.331   8.695 -0.2361  0.1685 -0.0833
10424ION    CL-47918   8.775   2.713   5.281  0.3506 -0.0890 -0.2516
10425ION    CL-47919  23.656  13.415  14.403  0.3023 -0.1753  0.0170
10426ION    CL-47920   1.475  18.070  15.699 -0.1853 -0.0365  0.2358
10427ION    CL-47921  26.279   2.709  23.720 -0.1276 -0.0825  0.0871
10428ION    CL-47922   5.534  11.774   6.944  0.1861 -0.3714  0.2158
10429ION    CL-47923   6.969  20.095  24.218  0.4975 -0.1520  0.0593
10430ION    CL-47924   1.170   5.024  24.700  0.2524 -0.1332 -0.3865
10431ION    CL-47925  30.864  32.942  26.235 -0.0300 -0.0803  0.3953
10432ION    CL-47926   4.461  31.520   3.307 -0.1864  0.0187 -0.0759
10433ION    CL-47927  21.896  12.012  24.754 -0.1529  0.0280 -0.2228
10434ION    CL-47928   8.375  13.269  12.566  0.1305 -0.1890 -0.0267
10435ION    CL-47929   5.519  17.657   2.769 -0.1220  0.1563  0.1931
10436ION    CL-47930  29.476  13.555  11.754 -0.3328 -0.2854  0.1209
10437ION    CL-47931  30.602  22.031   7.501  0.0921  0.1399 -0.1194
10438ION    CL-47932  33.451   3.668   1.071 -0.2743  0.0261 -0.2604
10439ION    CL-47933   8.905  20.038   2.539 -0.1476  0.2072 -0.2991
10440ION    CL-47934  23.896  18.661  12.731 -0.2319  0.1511 -0.1237
10441ION    CL-47935  13.589  18.344   4.526  0.0311 -0.3367 -0.1600
10442ION    CL-47936   3.845  24.609   3.165  0.2850 -0.0423 -0.3412
10443ION    CL-47937  32.775  21.880  24.593  0.0680  0.1111 -0.1837
10444ION    CL-47938  22.316  19.919  23.945  0.0754 -0.2241  0.1463
10445ION    CL-47939  11.938  31.096  25.058 -0.0707 -0.0546  0.0244
10446ION    CL-47940  32.163   1.026  18.379  0.0608 -0.3585 -0.3519
10447ION    CL-47941  10.202   7.181   3.645 -0.0526  0.7323 -0.3861
10448ION    CL-47942  24.848  34.899   3.276  0.1567  0.1561  0.2232
10449ION    CL-47943   2.797  10.088   1.079 -0.1364 -0.3044  0.0732
10450ION    CL-47944   7.851  31.071  15.175 -0.0097 -0.2949 -0.1421
10451ION    CL-47945   1.221   8.507  25.039  0.0108 -0.2585  0.2029
10452ION    CL-47946   8.581   3.284   9.879 -0.4245 -0.5844 -0.1727
10453ION    CL-47947   6.687   6.405   8.591 -0.0492 -0.0887  0.3738
10454ION    CL-47948  30.073  20.573   9.117  0.2578 -0.1986 -0.2087
10455ION    CL-47949  31.543   8.329  11.016  0.1010  0.1668 -0.0209
10456ION    CL-47950  11.529   3.986   3.205  0.1339  0.2926  0.2635
10457ION    CL-47951   0.725   6.726   5.186  0.0145  0.0036 -0.2215
10458ION    CL-47952  18.230   3.664  19.045  0.1969 -0.1467  0.2666
10459ION    CL-47953  18.409   9.342   4.896  0.2462  0.0874  0.3627
10460ION    CL-47954  14.404  31.675   9.287 -0.1318  0.0398 -0.1622
10461DPPC   NC347955  31.822  28.463  11.161 -0.0328  0.0830  0.0275
10461DPPC   PO447956  31.958  28.205  10.909 -0.2255  0.1388 -0.1775
10461DPPC   GL147957  32.339  28.316  10.738  0.0749 -0.0279 -0.0117
10461DPPC   GL247958  32.325  28.523  10.492 -0.0766 -0.0349  0.0851
10461DPPC   C1A47959  32.752  28.221  10.343 -0.0581 -0.1269  0.1730
10461DPPC   C2A47960  32.830  28.461  10.004 -0.0466 -0.1783  0.2649
10461DPPC   C3A47961  33.063  28.649   9.671  0.4514  0.1144 -0.0702
10461DPPC   C4A47962  33.076  28.676   9.259 -0.2530  0.2110  0.2048
10461DPPC   C1B47963  32.294  28.439  10.102 -0.0569  0.2043  0.3575
10461DPPC   C2B47964  32.349  28.621   9.761 -0.0259 -0.0130 -0.0950
10461DPPC   C3B47965  32.573  28.777   9.574  0.0291 -0.4137 -0.3170
10461DPPC   C4B47966  32.568  28.999   9.188  0.1565  0.3125  0.1963
10462DPPC   NC347967   1.995   4.502  14.643 -0.2003 -0.2109  0.1836
10462DPPC   PO447968   2.226   4.274  14.237  0.0348 -0.1985  0.3110
10462DPPC   GL147969   2.515   4.128  13.917 -0.0029  0.0083 -0.2174
10462DPPC   GL247970   2.609   4.386  13.763 -0.3869 -0.1670  0.2308
10462DPPC   C1A47971   2.552   3.940  13.574 -0.0887 -0.1303  0.1463
10462DPPC   C2A47972   2.790   3.836  13.217  0.3784 -0.1429  0.0424
10462DPPC   C3A47973   3.144   3.752  13.027  0.0323  0.1315 -0.1707
10462DPPC   C4A47974   3.240   3.335  12.972  0.0175  0.0962 -0.3917
10462DPPC   C1B47975   2.971   4.234  13.665  0.2227  0.1602 -0.1142
10462DPPC   C2B47976   3.252   4.185  13.465 -0.0286 -0.1943 -0.0757
10462DPPC   C3B47977   3.513   4.213  13.146 -0.0646 -0.1415  0.1041
10462DPPC   C4B47978   3.629   4.082  12.862  0.1349 -0.2995 -0.1991
10463DPPC   NC347979  24.877  12.194   8.882 -0.0345  0.1846  0.2243
10463DPPC   PO447980  24.897  11.990   9.335 -0.4372  0.0312  0.1699
10463DPPC   GL147981  24.555  11.870   9.052  0.2226  0.2662  0.1807
10463DPPC   GL247982  24.554  11.587   9.186 -0.0161 -0.1864  0.0212
10463DPPC   C1A47983  24.152  11.853   8.893  0.3871  0.1535  0.0042
10463DPPC   C2A47984  23.783  11.644   8.831 -0.0088  0.2450  0.2151
10463DPPC   C3A47985  23.442  11.339   8.591  0.0837  0.2707  0.2469
10463DPPC   C4A47986  23.246  11.076   8.356 -0.0703 -0.0712 -0.0948
10463DPPC   C1B47987  24.250  11.373   8.957  0.1389  0.0570 -0.1670
10463DPPC   C2B47988  23.896  11.131   8.780 -0.0008 -0.0126  0.2380
10463DPPC   C3B47989  23.494  11.105   9.015  0.1672 -0.1609 -0.0120
10463DPPC   C4B47990  23.065  11.180   9.214  0.2690 -0.0375 -0.3135
10464DPPC   NC347991  15.088  14.803  18.767  0.0828  0.3694  0.1422
10464DPPC   PO447992  15.513  14.763  18.483  0.1190  0.0154  0.2809
10464DPPC   GL147993  15.314  14.523  18.156 -0.0901 -0.2301 -0.0475
10464DPPC   GL247994  14.980  14.735  18.173 -0.2249 -0.4484  0.0928
10464DPPC   C1A47995  15.199  14.370  17.768  0.2108 -0.3661 -0.1034
10464DPPC   C2A47996  15.023  14.161  17.402  0.2230 -0.3529  0.0060
10464DPPC   C3A47997  14.779  14.294  16.970 -0.0086  0.1263 -0.0766
10464DPPC   C4A47998  14.725  14.431  16.594 -0.0427  0.4103 -0.1155
10464DPPC   C1B47999  14.961  14.784  17.752 -0.1379  0.0119 -0.2611
10464DPPC   C2B48000  14.963  14.683  17.365 -0.0911  0.1075  0.0297
10464DPPC   C3B48001  14.954  14.803  16.930  0.2625 -0.0459 -0.1514
10464DPPC   C4B48002  15.013  15.106  16.615  0.0777 -0.1084  0.3031
10465DPPC   NC348003   1.144   4.987  13.042  0.0525 -0.1109  0.2985
10465DPPC   PO448004   0.803   4.669  12.968  0.1809  0.0679 -0.1386
10465DPPC   GL148005   1.093   4.481  12.823 -0.2302 -0.2146 -0.0604
10465DPPC   GL248006   1.161   4.762  12.598 -0.0119 -0.0220 -0.1066
10465DPPC   C1A48007   1.377   4.323  12.528  0.0445 -0.2249 -0.0355
10465DPPC   C2A48008   1.688   4.202  12.294 -0.0003 -0.4507  0.1516
10465DPPC   C3A48009   2.039   4.086  12.037 -0.0167 -0.2518 -0.1850
10465DPPC   C4A48010   2.388   4.104  11.748 -0.0241  0.1137 -0.1699
10465DPPC   C1B48011   1.433   4.837  12.270 -0.3035 -0.1386  0.2086
10465DPPC   C2B48012   1.703   4.598  11.973  0.0393  0.0907 -0.0570
10465DPPC   C3B48013   1.901   4.309  11.643 -0.0075  0.0691  0.2610
10465DPPC   C4B48014   2.122   4.086  11.292 -0.2704  0.0190 -0.0935
10466DPPC   NC348015  30.024   5.917   9.246  0.0334  0.3323 -0.1136
10466DPPC   PO448016  30.418   5.823   9.268 -0.0801  0.0296  0.0131
10466DPPC   GL148017  30.316   5.604   8.910  0.1442 -0.1349 -0.2557
10466DPPC   GL248018  29.988   5.611   8.852  0.0020  0.0989  0.0005
10466DPPC   C1A48019  30.470   5.727   8.579 -0.0008  0.1829  0.1331
10466DPPC   C2A48020  30.458   5.731   8.156 -0.1865  0.6044 -0.0477
10466DPPC   C3A48021  30.772   5.655   7.900  0.2457 -0.1877 -0.0108
10466DPPC   C4A48022  31.146   5.860   8.064 -0.0580 -0.0784  0.2654
10466DPPC   C1B48023  30.231   5.327   8.573 -0.0625 -0.0095 -0.1395
10466DPPC   C2B48024  30.414   5.204   8.288  0.1653  0.2314  0.1964
10466DPPC   C3B48025  30.567   5.170   7.916  0.0182  0.0693 -0.0848
10466DPPC   C4B48026  30.346   4.929   7.515 -0.0804  0.3048 -0.2737
10467DPPC   NC348027  26.078  20.482   5.906 -0.0851 -0.1108 -0.4149
10467DPPC   PO448028  26.161  20.499   5.485  0.0886  0.0324 -0.0418
10467DPPC   GL148029  25.915  20.594   5.249  0.0472 -0.0835 -0.0636
10467DPPC   GL248030  25.837  20.354   4.941  0.1317 -0.0809 -0.1672
10467DPPC   C1A48031  25.534  20.749   5.214  0.0373  0.1473  0.0804
10467DPPC   C2A48032  25.141  20.920   5.370 -0.2475 -0.0358 -0.0644
10467DPPC   C3A48033  24.786  21.206   5.389  0.2944 -0.4947  0.2187
10467DPPC   C4A48034  24.469  21.468   5.521  0.2003  0.0699  0.1371
10467DPPC   C1B48035  25.472  20.427   4.785  0.1194 -0.1215  0.1770
10467DPPC   C2B48036  25.116  20.516   4.520 -0.0944 -0.0381 -0.1903
10467DPPC   C3B48037  24.996  20.564   4.120  0.0591  0.0678  0.0967
10467DPPC   C4B48038  24.646  20.437   3.824 -0.1723  0.1266  0.0403
10468DPPC   NC348039   3.850  29.812  19.323 -0.1244 -0.0398 -0.0143
10468DPPC   PO448040   4.295  30.180  19.422  0.1202 -0.0472  0.0945
10468DPPC   GL148041   4.471  30.523  19.226  0.1867  0.0150 -0.0820
10468DPPC   GL248042   4.470  30.553  18.816  0.1425  0.1200  0.0432
10468DPPC   C1A48043   4.790  30.812  19.263 -0.1046 -0.2266  0.0054
10468DPPC   C2A48044   4.950  31.023  18.917  0.0227  0.1023 -0.0537
10468DPPC   C3A48045   5.291  31.098  18.569 -0.0338  0.1790 -0.0116
10468DPPC   C4A48046   5.599  31.209  18.361  0.2327 -0.1577  0.1439
10468DPPC   C1B48047   4.681  30.107  18.658  0.0883 -0.3324 -0.3215
10468DPPC   C2B48048   5.087  30.005  18.693  0.1646 -0.0805  0.1548
10468DPPC   C3B48049   5.381  29.719  18.554 -0.0035  0.0271  0.4643
10468DPPC   C4B48050   5.401  29.348  18.301 -0.0919  0.1576  0.0253
10469DPPC   NC348051  18.698  30.753  16.555 -0.0706  0.2346 -0.1497
10469DPPC   PO448052  18.658  30.305  16.660  0.0756 -0.4747  0.0403
10469DPPC   GL148053  18.233  30.109  16.739 -0.1837  0.2763 -0.0650
10469DPPC   GL248054  18.310  29.841  17.001  0.0795 -0.2555  0.0423
10469DPPC   C1A48055  18.041  29.784  16.569 -0.3388  0.2240 -0.1181
10469DPPC   C2A48056  17.704  29.604  16.363  0.1388 -0.0456 -0.0598
10469DPPC   C3A48057  17.520  29.312  15.977 -0.0783  0.0314 -0.1497
10469DPPC   C4A48058  17.186  29.059  16.023 -0.0451 -0.0377 -0.1147
10469DPPC   C1B48059  17.781  29.979  16.978 -0.0629  0.0018 -0.2621
10469DPPC   C2B48060  17.378  29.964  17.141  0.3754 -0.2127 -0.0839
10469DPPC   C3B48061  16.960  29.861  16.943  0.2352 -0.1583  0.2094
10469DPPC   C4B48062  16.607  29.599  16.922 -0.0125 -0.1499 -0.0313
10470DPPC   NC348063  23.531   4.667  13.793  0.0558 -0.1022  0.0273
10470DPPC   PO448064  23.613   4.854  13.442 -0.0625 -0.0467  0.3821
10470DPPC   GL148065  23.257   4.589  13.205  0.2190  0.2493  0.1972
10470DPPC   GL248066  23.189   4.844  13.121 -0.2962 -0.0789  0.0394
10470DPPC   C1A48067  22.977   4.254  12.921  0.1028  0.2879 -0.1178
10470DPPC   C2A48068  22.660   4.391  12.645  0.2155 -0.0435  0.0007
10470DPPC   C3A48069  22.148   4.384  12.500 -0.0010 -0.3417  0.2358
10470DPPC   C4A48070  21.790   4.578  12.828  0.0346  0.2910 -0.2015
10470DPPC   C1B48071  22.909   4.977  12.869 -0.1252  0.1190  0.2213
10470DPPC   C2B48072  22.442   4.941  12.774 -0.2410  0.1753  0.1384
10470DPPC   C3B48073  22.141   4.934  12.455 -0.1781  0.1298 -0.1824
10470DPPC   C4B48074  21.659   5.145  12.495 -0.1031 -0.1256  0.1132
10471DPPC   NC348075  22.235   3.508  14.800  0.0794 -0.0199 -0.2093
10471DPPC   PO448076  22.000   3.633  14.342  0.0399 -0.0154  0.0323
10471DPPC   GL148077  21.660   3.958  14.313  0.2867 -0.2009  0.3587
10471DPPC   GL248078  21.406   3.912  14.628 -0.3206 -0.3020  0.0330
10471DPPC   C1A48079  21.624   4.385  14.293 -0.2103 -0.0606 -0.2095
10471DPPC   C2A48080  21.372   4.757  14.312  0.2084 -0.2987 -0.0134
10471DPPC   C3A48081  20.994   4.861  14.016 -0.0155 -0.0367  0.0841
10471DPPC   C4A48082  20.834   5.047  13.733 -0.0335  0.2296 -0.0125
10471DPPC   C1B48083  21.144   4.112  14.176  0.1769 -0.0221  0.1326
10471DPPC   C2B48084  21.173   4.406  13.924 -0.2779  0.1896 -0.0868
10471DPPC   C3B48085  21.357   4.692  13.712 -0.1504 -0.0236 -0.0561
10471DPPC   C4B48086  21.428   4.660  13.223 -0.0860 -0.1856 -0.0265
10472DPPC   NC348087   4.886   2.646  17.601  0.2401  0.1000  0.2545
10472DPPC   PO448088   5.227   2.576  17.894 -0.0515 -0.0623 -0.0217
10472DPPC   GL148089   5.386   2.433  17.593  0.2554  0.0627 -0.1479
10472DPPC   GL248090   5.608   2.350  17.679 -0.3424  0.0785  0.2523
10472DPPC   C1A48091   5.446   2.560  17.212  0.0868  0.1797 -0.0033
10472DPPC   C2A48092   5.315   2.813  16.835  0.1809  0.0856 -0.1934
10472DPPC   C3A48093   5.501   2.885  16.434  0.0498  0.0867 -0.2002
10472DPPC   C4A48094   5.804   3.077  16.162 -0.1917  0.0547 -0.3328
10472DPPC   C1B48095   5.854   2.332  17.436  0.0181  0.4385  0.2233
10472DPPC   C2B48096   6.209   2.386  17.021  0.1117 -0.2400  0.0702
10472DPPC   C3B48097   6.542   2.384  16.754  0.0893  0.2042 -0.0113
10472DPPC   C4B48098   6.892   2.404  16.581 -0.0216  0.2748 -0.0211
10473DPPC   NC348099  27.615  12.570   5.482 -0.0196 -0.4724  0.0018
10473DPPC   PO448100  27.318  12.895   5.544 -0.0510 -0.0038  0.2261
10473DPPC   GL148101  27.055  12.687   5.257 -0.1793  0.2759  0.0366
10473DPPC   GL248102  27.141  12.407   5.219 -0.2260 -0.1170  0.0424
10473DPPC   C1A48103  26.822  12.794   4.945 -0.2817  0.1284 -0.0408
10473DPPC   C2A48104  26.512  12.761   4.615  0.0859  0.0297  0.4045
10473DPPC   C3A48105  26.298  12.687   4.257 -0.5513 -0.3029 -0.0347
10473DPPC   C4A48106  26.114  12.364   3.984  0.3978  0.1198  0.0459
10473DPPC   C1B48107  26.978  12.322   4.820  0.4771 -0.0221 -0.0077
10473DPPC   C2B48108  26.760  12.332   4.666 -0.0720  0.0311 -0.0669
10473DPPC   C3B48109  26.596  12.117   4.389  0.0759  0.1602 -0.1110
10473DPPC   C4B48110  26.292  11.890   4.375 -0.1112 -0.2118 -0.0286
10474DPPC   NC348111  10.237  32.334  20.846  0.0440  0.1993  0.0820
10474DPPC   PO448112  10.175  31.894  20.771  0.1322 -0.0773 -0.3281
10474DPPC   GL148113  10.062  31.698  20.556  0.1790 -0.1572  0.1805
10474DPPC   GL248114  10.100  31.361  20.598 -0.0632 -0.1108 -0.0983
10474DPPC   C1A48115  10.045  31.646  20.114 -0.1439  0.0586 -0.0734
10474DPPC   C2A48116  10.050  31.596  19.736 -0.0276 -0.1258  0.1223
10474DPPC   C3A48117   9.823  31.615  19.353  0.1181  0.3329  0.0013
10474DPPC   C4A48118   9.390  31.726  19.074 -0.1200  0.4240 -0.1139
10474DPPC   C1B48119   9.805  31.216  20.170  0.1042 -0.1791 -0.0122
10474DPPC   C2B48120   9.820  31.104  19.727  0.2957 -0.0880 -0.1528
10474DPPC   C3B48121   9.775  31.113  19.252  0.0857  0.0562  0.0792
10474DPPC   C4B48122   9.695  31.366  18.898  0.1371 -0.0071  0.1248
10475DPPC   NC348123  25.301  32.160  10.541  0.0624 -0.3476  0.2193
10475DPPC   PO448124  24.978  31.970  10.278  0.1944 -0.0191  0.3794
10475DPPC   GL148125  25.102  32.299   9.991  0.3646  0.1232 -0.1514
10475DPPC   GL248126  24.841  32.523   9.912 -0.2353 -0.2664  0.1528
10475DPPC   C1A48127  25.252  32.285   9.510 -0.0196 -0.1652  0.0515
10475DPPC   C2A48128  25.261  32.338   9.159  0.2179 -0.0459  0.0113
10475DPPC   C3A48129  25.378  32.333   8.766  0.0265 -0.0896  0.0435
10475DPPC   C4A48130  25.373  32.041   8.426  0.0053  0.1567 -0.0408
10475DPPC   C1B48131  25.058  32.700   9.637 -0.0565  0.0402 -0.1109
10475DPPC   C2B48132  25.056  32.778   9.152 -0.1267  0.3349  0.2215
10475DPPC   C3B48133  25.094  32.908   8.777  0.1455  0.0620 -0.0020
10475DPPC   C4B48134  25.291  32.736   8.402 -0.0832 -0.2572  0.1244
10476DPPC   NC348135  24.725   7.036  12.365 -0.2195 -0.0798  0.0489
10476DPPC   PO448136  24.648   6.761  12.068 -0.0028 -0.0030 -0.4312
10476DPPC   GL148137  24.197   6.599  11.981  0.0992  0.1285  0.1395
10476DPPC   GL248138  23.995   6.256  12.048  0.3092 -0.1707  0.0201
10476DPPC   C1A48139  23.760   6.751  11.793  0.0765  0.0252  0.1946
10476DPPC   C2A48140  23.420   6.902  11.601 -0.1908 -0.1831 -0.0387
10476DPPC   C3A48141  23.160   6.775  11.311 -0.1602 -0.1428 -0.7003
10476DPPC   C4A48142  22.852   6.925  11.048  0.3615  0.2837  0.4427
10476DPPC   C1B48143  23.695   6.221  11.777 -0.2349  0.0188  0.2404
10476DPPC   C2B48144  23.259   6.221  11.586  0.0868 -0.1314  0.0990
10476DPPC   C3B48145  22.873   5.944  11.662  0.0254 -0.2277  0.2578
10476DPPC   C4B48146  22.490   6.108  11.512 -0.1613 -0.1903 -0.2754
10477DPPC   NC348147  12.838  10.648  19.408  0.0189  0.0755  0.0795
10477DPPC   PO448148  13.177  10.905  19.116  0.0037  0.0329  0.1061
10477DPPC   GL148149  13.138  11.073  18.692  0.0787  0.0168  0.1059
10477DPPC   GL248150  13.435  11.263  18.589 -0.1621 -0.2308 -0.0153
10477DPPC   C1A48151  13.058  10.964  18.312 -0.0605  0.0862 -0.0265
10477DPPC   C2A48152  12.974  11.050  17.829 -0.1209 -0.0478 -0.1824
10477DPPC   C3A48153  12.952  11.199  17.491  0.1545 -0.1130 -0.0513
10477DPPC   C4A48154  12.675  11.422  17.193 -0.1170 -0.0109 -0.2862
10477DPPC   C1B48155  13.522  11.265  18.210 -0.1065  0.2344  0.2627
10477DPPC   C2B48156  13.463  11.376  17.775  0.4551 -0.2080  0.2263
10477DPPC   C3B48157  13.491  11.409  17.375 -0.1120  0.0427 -0.1581
10477DPPC   C4B48158  13.358  11.197  17.035 -0.0201  0.0570 -0.1518
10478DPPC   NC348159  16.919  16.655  18.235  0.0762  0.2231 -0.2991
10478DPPC   PO448160  16.673  16.172  18.097 -0.1509 -0.1743  0.4021
10478DPPC   GL148161  16.658  16.263  17.679  0.2990 -0.1247  0.2301
10478DPPC   GL248162  16.798  16.564  17.764  0.0195  0.0109  0.1779
10478DPPC   C1A48163  16.575  16.225  17.321  0.0948 -0.1249 -0.1600
10478DPPC   C2A48164  16.323  16.262  16.890  0.2816  0.0236  0.0858
10478DPPC   C3A48165  16.098  16.288  16.507  0.0693 -0.1898  0.1994
10478DPPC   C4A48166  16.223  16.313  16.029  0.2311 -0.1397 -0.0850
10478DPPC   C1B48167  16.504  16.691  17.459  0.2195  0.0397 -0.0718
10478DPPC   C2B48168  16.345  16.725  17.143  0.1088 -0.1317 -0.3245
10478DPPC   C3B48169  16.027  16.781  16.806  0.2444  0.0380  0.2140
10478DPPC   C4B48170  16.027  16.818  16.392 -0.0879 -0.2050 -0.0133
10479DPPC   NC348171  31.847   5.131  10.616 -0.1388 -0.0507 -0.2116
10479DPPC   PO448172  31.479   5.408  10.451 -0.2314 -0.1553 -0.0668
10479DPPC   GL148173  31.294   5.189  10.081  0.0499 -0.3084  0.0467
10479DPPC   GL248174  31.266   4.831  10.020 -0.3710 -0.3740  0.2444
10479DPPC   C1A48175  31.284   5.114   9.648 -0.0199 -0.0609  0.1131
10479DPPC   C2A48176  31.423   4.867   9.370  0.1505 -0.1891 -0.1224
10479DPPC   C3A48177  31.630   4.740   8.907 -0.1803  0.1945 -0.0443
10479DPPC   C4A48178  31.804   4.827   8.529  0.1837  0.4242  0.2443
10479DPPC   C1B48179  31.379   4.478   9.682  0.2137  0.0326  0.1271
10479DPPC   C2B48180  31.598   4.324   9.277  0.3154  0.1646 -0.2581
10479DPPC   C3B48181  31.740   3.913   9.186 -0.0509 -0.2138  0.0668
10479DPPC   C4B48182  31.619   3.608   8.827 -0.3305  0.5213 -0.2702
10480DPPC   NC348183  15.049   5.273  18.532  0.0184  0.3343 -0.3677
10480DPPC   PO448184  14.647   5.420  18.291 -0.1226  0.0395  0.1128
10480DPPC   GL148185  14.450   5.707  17.932 -0.0391  0.5807 -0.0034
10480DPPC   GL248186  14.289   6.041  18.030 -0.0839  0.0931  0.0297
10480DPPC   C1A48187  14.195   5.759  17.541 -0.0052 -0.2340 -0.1670
10480DPPC   C2A48188  14.166   5.954  17.151  0.0500  0.0078  0.4393
10480DPPC   C3A48189  14.374   6.020  16.712 -0.2418 -0.1568  0.2629
10480DPPC   C4A48190  14.281   6.274  16.404 -0.1496  0.0429 -0.0118
10480DPPC   C1B48191  14.421   6.179  17.630  0.0210  0.0996 -0.0099
10480DPPC   C2B48192  14.546   6.289  17.215 -0.3100  0.0015  0.2953
10480DPPC   C3B48193  14.340   6.503  16.832 -0.0011 -0.1887  0.2867
10480DPPC   C4B48194  14.405   6.745  16.411 -0.3728  0.0316  0.1233
10481DPPC   NC348195  35.052  18.037   6.260  0.0257 -0.2611  0.0366
10481DPPC   PO448196  34.971  17.761   6.026  0.1729 -0.0484 -0.3102
10481DPPC   GL148197  35.306  17.679   5.811  0.1451  0.1608 -0.1817
10481DPPC   GL248198   0.092  17.713   5.955 -0.1590  0.0104 -0.2031
10481DPPC   C1A48199   0.061  17.447   5.519 -0.0248 -0.1389 -0.0877
10481DPPC   C2A48200   0.187  17.622   5.119  0.1584 -0.3174  0.2696
10481DPPC   C3A48201   0.342  17.658   4.768  0.0413  0.0920 -0.1009
10481DPPC   C4A48202   0.170  17.807   4.322  0.0799 -0.1675 -0.2481
10481DPPC   C1B48203   0.467  17.697   5.687  0.1079 -0.1924  0.1610
10481DPPC   C2B48204   0.688  17.752   5.285  0.1186 -0.0012  0.1317
10481DPPC   C3B48205   0.683  17.993   4.991  0.0653  0.5189 -0.1137
10481DPPC   C4B48206   0.734  18.015   4.572 -0.1295 -0.1165  0.0431
10482DPPC   NC348207  26.292   8.164   9.310  0.0463 -0.2135 -0.1694
10482DPPC   PO448208  25.958   8.135   9.327  0.2519 -0.0423  0.1331
10482DPPC   GL148209  25.864   7.952   8.928 -0.0699 -0.2269  0.0340
10482DPPC   GL248210  25.937   7.545   8.819  0.1856 -0.1952 -0.0511
10482DPPC   C1A48211  25.561   7.773   8.714  0.0684  0.1846 -0.2172
10482DPPC   C2A48212  25.259   7.696   8.516 -0.1096  0.1746  0.0814
10482DPPC   C3A48213  24.986   7.664   8.262 -0.0360  0.1307 -0.0680
10482DPPC   C4A48214  24.736   7.567   7.900  0.0754 -0.2479 -0.0344
10482DPPC   C1B48215  25.742   7.347   8.441  0.0862 -0.1857  0.2688
10482DPPC   C2B48216  25.438   7.301   8.159  0.1120 -0.0973  0.0344
10482DPPC   C3B48217  25.124   7.132   7.921 -0.2173 -0.0962 -0.0147
10482DPPC   C4B48218  25.296   6.829   7.611  0.3589  0.3133 -0.0492
10483DPPC   NC348219  17.376   7.606  17.450 -0.2628  0.0254 -0.3084
10483DPPC   PO448220  17.005   7.369  17.359 -0.1719 -0.3991  0.2759
10483DPPC   GL148221  17.039   7.356  16.946  0.0891  0.0972 -0.3972
10483DPPC   GL248222  16.828   7.171  16.627  0.0947  0.1595 -0.1819
10483DPPC   C1A48223  17.211   7.534  16.709 -0.0600 -0.1709  0.0094
10483DPPC   C2A48224  17.142   7.741  16.320  0.0945 -0.1496  0.0905
10483DPPC   C3A48225  17.199   7.795  15.931  0.2410  0.1317 -0.0607
10483DPPC   C4A48226  17.321   7.631  15.576 -0.2800  0.1959 -0.0632
10483DPPC   C1B48227  16.809   7.403  16.369 -0.3821  0.0895  0.1801
10483DPPC   C2B48228  16.736   7.698  15.953  0.1757  0.0437 -0.0936
10483DPPC   C3B48229  16.838   7.689  15.527  0.0721  0.0565 -0.0858
10483DPPC   C4B48230  16.843   7.792  15.132  0.2647  0.2036  0.0611
10484DPPC   NC348231  33.280  28.137  11.615  0.1345 -0.0486 -0.0095
10484DPPC   PO448232  33.028  28.520  11.434  0.4240  0.0549  0.1256
10484DPPC   GL148233  32.978  28.392  10.959 -0.3269 -0.0219  0.0476
10484DPPC   GL248234  32.759  28.066  10.847  0.2763 -0.1554  0.0773
10484DPPC   C1A48235  33.212  28.398  10.520  0.2959  0.1638 -0.3950
10484DPPC   C2A48236  33.408  28.433  10.117  0.1350 -0.0419 -0.0460
10484DPPC   C3A48237  33.549  28.672   9.870 -0.0272  0.1321  0.3592
10484DPPC   C4A48238  33.847  29.112  10.034 -0.2811 -0.1735  0.2343
10484DPPC   C1B48239  33.136  27.948  10.618  0.1479  0.0111 -0.1803
10484DPPC   C2B48240  33.462  27.916  10.292  0.1489  0.0498 -0.2490
10484DPPC   C3B48241  33.633  28.030   9.988  0.4190  0.0148  0.4424
10484DPPC   C4B48242  33.918  28.423  10.009 -0.1086  0.2655  0.1059
10485DPPC   NC348243   2.142   2.793  15.137 -0.1741  0.1593 -0.2712
10485DPPC   PO448244   2.501   3.134  15.014 -0.2466  0.0124  0.1275
10485DPPC   GL148245   2.792   3.004  14.754 -0.1043 -0.1017 -0.0448
10485DPPC   GL248246   2.827   2.715  14.818 -0.0327 -0.0063  0.1214
10485DPPC   C1A48247   3.124   3.084  14.525 -0.1887  0.3453 -0.3368
10485DPPC   C2A48248   3.447   2.984  14.199 -0.0223  0.1686  0.0117
10485DPPC   C3A48249   3.612   3.098  13.768  0.3415  0.2563 -0.0122
10485DPPC   C4A48250   3.558   3.159  13.355 -0.0485 -0.0611  0.4402
10485DPPC   C1B48251   3.150   2.588  14.457  0.2602  0.2752 -0.2697
10485DPPC   C2B48252   3.368   2.377  14.167  0.1745 -0.3752  0.0787
10485DPPC   C3B48253   3.765   2.474  14.040  0.0510 -0.3461  0.1624
10485DPPC   C4B48254   4.250   2.536  14.205  0.4273  0.1110 -0.2575
10486DPPC   NC348255  11.668   8.172  19.397 -0.0069  0.0777 -0.1874
10486DPPC   PO448256  11.358   8.310  19.059  0.1191  0.1684  0.1452
10486DPPC   GL148257  11.494   8.032  18.662 -0.0223  0.1591 -0.0565
10486DPPC   GL248258  11.152   7.923  18.535 -0.0226  0.1112 -0.0605
10486DPPC   C1A48259  11.567   7.856  18.245 -0.1380 -0.5166 -0.0487
10486DPPC   C2A48260  11.755   7.520  17.947  0.0941 -0.1688 -0.3496
10486DPPC   C3A48261  11.598   7.420  17.566 -0.1440  0.2058 -0.0534
10486DPPC   C4A48262  11.337   7.511  17.291 -0.0788 -0.0361  0.1092
10486DPPC   C1B48263  11.116   8.050  18.137  0.2589 -0.0144  0.1417
10486DPPC   C2B48264  11.036   8.301  17.788  0.0058 -0.5151  0.1299
10486DPPC   C3B48265  10.829   8.465  17.383  0.1451  0.2468  0.0107
10486DPPC   C4B48266  10.977   8.346  16.992  0.2512  0.3520  0.0140
10487DPPC   NC348267  32.882  12.348   6.086  0.4001 -0.0447 -0.0517
10487DPPC   PO448268  32.897  11.841   6.299  0.0470 -0.2094 -0.1107
10487DPPC   GL148269  33.279  11.993   6.011  0.1029 -0.0742  0.2147
10487DPPC   GL248270  33.429  12.224   6.129  0.1214 -0.0782 -0.1434
10487DPPC   C1A48271  33.456  11.804   5.678 -0.0164 -0.0550  0.0109
10487DPPC   C2A48272  33.677  11.799   5.386  0.1593 -0.2367  0.0805
10487DPPC   C3A48273  33.961  11.588   5.266  0.2349 -0.0771 -0.1267
10487DPPC   C4A48274  34.213  11.686   4.972  0.2584  0.1181 -0.0613
10487DPPC   C1B48275  33.830  12.132   5.815 -0.2516  0.0543 -0.3324
10487DPPC   C2B48276  34.118  12.034   5.583  0.0314 -0.0989 -0.1098
10487DPPC   C3B48277  34.418  11.824   5.462 -0.1738  0.2114 -0.2004
10487DPPC   C4B48278  34.592  11.547   5.276 -0.0010  0.2221  0.3218
10488DPPC   NC348279  33.762   9.695   9.751 -0.2644  0.2785  0.0149
10488DPPC   PO448280  34.329   9.667   9.752 -0.2157  0.0357  0.0951
10488DPPC   GL148281  34.603   9.608   9.460  0.1664 -0.2494  0.0138
10488DPPC   GL248282  34.693   9.839   9.193  0.4474 -0.2424  0.1147
10488DPPC   C1A48283  34.855   9.395   9.128  0.0705 -0.3791  0.3290
10488DPPC   C2A48284  35.171   9.242   8.877 -0.1356 -0.0234 -0.1216
10488DPPC   C3A48285  35.357   8.805   8.704  0.0527  0.0125  0.0005
10488DPPC   C4A48286   0.439   8.596   8.710 -0.2004 -0.2620 -0.0341
10488DPPC   C1B48287  35.036  10.075   9.151  0.2556  0.2725 -0.2141
10488DPPC   C2B48288   0.125  10.205   9.123  0.0611 -0.1514 -0.2098
10488DPPC   C3B48289   0.447  10.162   8.958 -0.1424 -0.1004 -0.1037
10488DPPC   C4B48290   0.804  10.028   8.785  0.1534  0.2121  0.0307
10489DPPC   NC348291  15.413  31.847  19.688  0.2192 -0.0940  0.0042
10489DPPC   PO448292  15.019  31.535  19.810 -0.3216 -0.0600 -0.1070
10489DPPC   GL148293  14.887  31.540  19.330  0.0231 -0.1817 -0.1592
10489DPPC   GL248294  14.993  31.832  19.380 -0.2225  0.2450  0.0812
10489DPPC   C1A48295  14.893  31.601  18.925  0.2106  0.0767 -0.0815
10489DPPC   C2A48296  14.699  31.535  18.608 -0.1581 -0.1395 -0.0895
10489DPPC   C3A48297  14.432  31.313  18.375 -0.1020 -0.0036 -0.0224
10489DPPC   C4A48298  14.489  31.034  18.087 -0.0064 -0.1814  0.0750
10489DPPC   C1B48299  14.969  32.100  18.977 -0.0046  0.0388  0.0343
10489DPPC   C2B48300  14.889  32.327  18.648  0.2371 -0.0694 -0.0709
10489DPPC   C3B48301  14.505  32.297  18.471  0.1363 -0.0599 -0.0944
10489DPPC   C4B48302  14.137  32.482  18.098 -0.0043 -0.1180  0.1133
10490DPPC   NC348303   8.311  14.002  17.970  0.0870 -0.0252  0.3466
10490DPPC   PO448304   8.025  13.699  17.821  0.0631  0.0764 -0.0623
10490DPPC   GL148305   8.318  13.732  17.542 -0.1404 -0.1964  0.2826
10490DPPC   GL248306   8.278  13.479  17.369  0.0479  0.0036  0.0383
10490DPPC   C1A48307   8.532  13.862  17.246  0.1814  0.2719 -0.1582
10490DPPC   C2A48308   8.671  13.640  16.894 -0.1526  0.0208  0.2993
10490DPPC   C3A48309   8.879  13.639  16.581 -0.1779 -0.0611  0.0109
10490DPPC   C4A48310   8.971  13.607  16.150  0.0788  0.1265  0.0166
10490DPPC   C1B48311   8.452  13.256  17.089  0.0429 -0.0439  0.0481
10490DPPC   C2B48312   8.718  13.190  16.727  0.4669 -0.0501 -0.3426
10490DPPC   C3B48313   8.878  13.122  16.319  0.4559  0.0302  0.1000
10490DPPC   C4B48314   9.353  13.154  16.259  0.2267  0.2593 -0.0888
10491DPPC   NC348315  17.172  18.710  19.150  0.3282  0.0800  0.1563
10491DPPC   PO448316  16.775  18.924  19.127  0.2649  0.0458 -0.1534
10491DPPC   GL148317  16.653  19.372  19.094 -0.2864  0.1588  0.1331
10491DPPC   GL248318  16.960  19.618  19.206  0.3290 -0.0100  0.2015
10491DPPC   C1A48319  16.311  19.547  18.825 -0.1023  0.3225  0.1573
10491DPPC   C2A48320  16.019  19.760  18.491 -0.0982 -0.1839  0.0594
10491DPPC   C3A48321  15.858  19.817  18.115  0.1022  0.2021  0.1291
10491DPPC   C4A48322  15.676  19.851  17.777  0.1196  0.0117 -0.1553
10491DPPC   C1B48323  16.873  19.580  18.718  0.1788  0.1064  0.0457
10491DPPC   C2B48324  16.630  19.757  18.410 -0.0552  0.1695  0.1292
10491DPPC   C3B48325  16.361  19.843  17.972  0.0671  0.1086  0.1464
10491DPPC   C4B48326  16.115  20.182  17.891  0.2142  0.1728  0.0895
10492DPPC   NC348327  23.236  14.795  13.232  0.0406  0.2056  0.1262
10492DPPC   PO448328  22.971  14.566  13.106 -0.2652 -0.0049  0.2603
10492DPPC   GL148329  22.552  14.405  12.952  0.1305 -0.2381 -0.0008
10492DPPC   GL248330  22.648  14.286  12.697  0.1099  0.0029 -0.0888
10492DPPC   C1A48331  22.154  14.468  12.770  0.0565 -0.1634 -0.3489
10492DPPC   C2A48332  21.805  14.452  12.507  0.1727 -0.0525 -0.0581
10492DPPC   C3A48333  21.587  14.508  12.063 -0.0224  0.0177 -0.0205
10492DPPC   C4A48334  21.409  14.731  11.759 -0.1104 -0.4508 -0.2004
10492DPPC   C1B48335  22.277  14.254  12.375  0.1237 -0.1624  0.3328
10492DPPC   C2B48336  21.862  14.075  12.138 -0.3672  0.0735 -0.1346
10492DPPC   C3B48337  21.547  13.843  12.031  0.0554 -0.1751  0.1169
10492DPPC   C4B48338  21.273  13.748  11.708 -0.2386  0.1053 -0.0370
10493DPPC   NC348339  20.210  13.204  16.000 -0.0907  0.1961  0.4163
10493DPPC   PO448340  20.521  13.444  15.760  0.3408  0.0585 -0.1309
10493DPPC   GL148341  20.231  13.693  15.574 -0.0890  0.0562  0.4462
10493DPPC   GL248342  20.185  14.111  15.614 -0.1385  0.0441  0.1084
10493DPPC   C1A48343  20.106  13.772  15.187 -0.2850 -0.0173  0.0086
10493DPPC   C2A48344  19.822  13.865  14.890 -0.1402 -0.2873  0.1227
10493DPPC   C3A48345  19.359  13.934  14.713 -0.1654  0.0375 -0.2118
10493DPPC   C4A48346  18.877  13.997  14.675  0.0921 -0.0557 -0.1821
10493DPPC   C1B48347  19.809  14.173  15.375  0.1461 -0.2760 -0.0030
10493DPPC   C2B48348  19.482  14.198  15.159  0.0659 -0.1481  0.1133
10493DPPC   C3B48349  19.119  14.154  15.123 -0.2000  0.3376  0.0245
10493DPPC   C4B48350  18.710  14.253  15.145  0.2246 -0.1009  0.1118
10494DPPC   NC348351  34.632  17.857   6.711  0.1587 -0.1764 -0.2485
10494DPPC   PO448352  35.101  17.731   6.668  0.2600 -0.0742 -0.2421
10494DPPC   GL148353   0.151  17.649   6.525 -0.1506  0.1603 -0.2681
10494DPPC   GL248354   0.185  17.933   6.418 -0.0596 -0.1833  0.2474
10494DPPC   C1A48355   0.401  17.467   6.200  0.0017  0.1251 -0.1127
10494DPPC   C2A48356   0.797  17.503   5.979  0.1520  0.2909  0.0747
10494DPPC   C3A48357   0.965  17.495   5.672 -0.0304  0.1412 -0.3592
10494DPPC   C4A48358   1.381  17.695   5.669  0.3197  0.2638 -0.1344
10494DPPC   C1B48359   0.518  17.922   6.224  0.2017 -0.0595  0.0261
10494DPPC   C2B48360   0.779  18.006   5.949  0.0660  0.0682 -0.1620
10494DPPC   C3B48361   1.059  18.085   5.550  0.0621  0.1827  0.3494
10494DPPC   C4B48362   1.368  18.095   5.286 -0.0752  0.2336  0.0567
10495DPPC   NC348363   9.838  29.782  21.164  0.1643  0.0537 -0.3269
10495DPPC   PO448364   9.928  30.230  21.174 -0.4304  0.2126  0.0879
10495DPPC   GL148365   9.940  30.655  20.938 -0.0811  0.3128 -0.2457
10495DPPC   GL248366  10.089  30.434  20.735 -0.2432  0.3474  0.2051
10495DPPC   C1A48367   9.788  30.921  20.631  0.2454 -0.0673  0.1543
10495DPPC   C2A48368   9.490  30.937  20.492  0.0458 -0.1580 -0.0098
10495DPPC   C3A48369   9.381  30.946  20.035  0.0181  0.0792  0.1808
10495DPPC   C4A48370   9.367  30.907  19.564  0.3264  0.1113 -0.0022
10495DPPC   C1B48371  10.123  30.264  20.310 -0.2558  0.1546 -0.1181
10495DPPC   C2B48372  10.158  30.259  19.868 -0.1183 -0.0783  0.1642
10495DPPC   C3B48373  10.126  30.201  19.410  0.0322 -0.2372 -0.0323
10495DPPC   C4B48374  10.074  29.850  19.115  0.3637 -0.0606  0.4025
10496DPPC   NC348375  29.657  12.973   4.310 -0.1127 -0.1349 -0.1600
10496DPPC   PO448376  30.076  13.221   4.264  0.0221 -0.1018  0.2448
10496DPPC   GL148377  30.038  13.225   3.919 -0.1210  0.1888 -0.1926
10496DPPC   GL248378  30.258  13.436   3.833  0.0363 -0.0987  0.0045
10496DPPC   C1A48379  30.122  12.992   3.599 -0.0520  0.0064 -0.0451
10496DPPC   C2A48380  30.167  12.984   3.157  0.0635  0.0577  0.0933
10496DPPC   C3A48381  29.977  13.095   2.795  0.1302 -0.1089  0.1051
10496DPPC   C4A48382  30.159  13.387   2.617 -0.2531 -0.3339 -0.2092
10496DPPC   C1B48383  30.238  13.472   3.326 -0.1912  0.1907  0.0674
10496DPPC   C2B48384  30.504  13.324   2.951  0.1064  0.1682  0.0858
10496DPPC   C3B48385  30.642  13.237   2.483  0.3246 -0.1365 -0.1132
10496DPPC   C4B48386  30.916  13.285   2.108 -0.2035 -0.1219 -0.1841
10497DPPC   NC348387   3.461  34.348  18.318  0.0715 -0.2638 -0.0830
10497DPPC   PO448388   3.792  34.625  18.189 -0.2138 -0.1650 -0.0147
10497DPPC   GL148389   4.129  34.694  17.970 -0.1928  0.1924  0.1981
10497DPPC   GL248390   4.502  34.790  18.035 -0.0545 -0.0641  0.2452
10497DPPC   C1A48391   4.395  34.548  17.573 -0.2131  0.0924  0.1879
10497DPPC   C2A48392   4.753  34.548  17.223 -0.1216  0.0364 -0.1175
10497DPPC   C3A48393   5.072  34.538  16.924 -0.1146  0.2859  0.0193
10497DPPC   C4A48394   5.470  34.366  16.685  0.1318 -0.1191 -0.0539
10497DPPC   C1B48395   4.791  34.747  17.696 -0.2563 -0.1844  0.0514
10497DPPC   C2B48396   5.151  34.760  17.435 -0.0436  0.1426  0.0310
10497DPPC   C3B48397   5.520  34.663  17.150 -0.1251 -0.1281 -0.0616
10497DPPC   C4B48398   5.880  34.922  16.877 -0.1545  0.1816 -0.2124
10498DPPC   NC348399   3.431   6.313  15.463  0.0625 -0.2199  0.3782
10498DPPC   PO448400   3.554   6.270  15.903  0.0243 -0.0157 -0.0069
10498DPPC   GL148401   3.971   6.447  15.720 -0.0351 -0.1352  0.2068
10498DPPC   GL248402   4.074   6.121  15.592  0.0275  0.0613  0.0129
10498DPPC   C1A48403   4.109   6.761  15.549 -0.0928  0.1475 -0.0157
10498DPPC   C2A48404   4.249   7.093  15.483  0.2748 -0.0028  0.1253
10498DPPC   C3A48405   4.198   7.483  15.584  0.1892  0.2613 -0.0288
10498DPPC   C4A48406   3.985   7.853  15.762  0.0020 -0.4674 -0.0917
10498DPPC   C1B48407   4.405   5.957  15.356  0.2271 -0.2695 -0.2954
10498DPPC   C2B48408   4.710   5.990  15.163 -0.0675 -0.0173  0.0914
10498DPPC   C3B48409   4.738   5.617  14.974  0.1352 -0.1012 -0.0449
10498DPPC   C4B48410   4.867   5.300  14.884  0.1876 -0.3374  0.1862
10499DPPC   NC348411  32.130  13.021   5.468  0.0764  0.3562  0.1047
10499DPPC   PO448412  32.481  13.018   5.781 -0.0395  0.1890 -0.0794
10499DPPC   GL148413  32.544  12.606   5.624  0.0030 -0.2450 -0.1235
10499DPPC   GL248414  32.881  12.684   5.556  0.1844  0.0732 -0.0204
10499DPPC   C1A48415  32.527  12.417   5.221 -0.2385 -0.0414  0.2015
10499DPPC   C2A48416  32.749  12.274   4.823  0.3664 -0.0910 -0.1225
10499DPPC   C3A48417  32.964  12.242   4.469 -0.0946 -0.2429 -0.1681
10499DPPC   C4A48418  33.112  12.416   4.103  0.0244  0.1421 -0.1823
10499DPPC   C1B48419  33.077  12.510   5.217 -0.0097 -0.0763  0.1759
10499DPPC   C2B48420  33.220  12.493   4.853  0.0095 -0.1002  0.0963
10499DPPC   C3B48421  33.415  12.453   4.501 -0.1012  0.1468 -0.0284
10499DPPC   C4B48422  33.477  12.031   4.400 -0.1546 -0.0879 -0.2875
10500DPPC   NC348423  24.380  19.832  10.203 -0.1938  0.1356  0.2059
10500DPPC   PO448424  24.342  19.964   9.743  0.2641  0.1456 -0.2183
10500DPPC   GL148425  23.925  19.893   9.684  0.2446 -0.2033  0.0239
10500DPPC   GL248426  23.784  19.716   9.927  0.0037  0.2194 -0.1853
10500DPPC   C1A48427  23.530  20.110   9.530 -0.1554 -0.1946  0.2708
10500DPPC   C2A48428  23.235  20.214   9.268 -0.0543 -0.2471  0.1827
10500DPPC   C3A48429  22.846  20.409   9.280  0.3705 -0.2485 -0.0914
10500DPPC   C4A48430  22.537  20.816   9.111 -0.2690  0.2106 -0.3589
10500DPPC   C1B48431  23.350  19.807   9.898 -0.1888  0.1098 -0.0128
10500DPPC   C2B48432  23.026  19.890   9.578 -0.3679 -0.0104  0.0890
10500DPPC   C3B48433  22.682  19.922   9.475  0.0404  0.0989  0.2762
10500DPPC   C4B48434  22.599  19.909   9.167 -0.0424  0.1632 -0.1358
10501DPPC   NC348435  25.383  15.202   7.488  0.0182 -0.3003 -0.0486
10501DPPC   PO448436  25.010  15.179   7.400  0.0832  0.2456 -0.1145
10501DPPC   GL148437  24.776  15.016   7.105 -0.1740 -0.3436  0.4042
10501DPPC   GL248438  24.712  15.252   6.805  0.1052 -0.0617 -0.0324
10501DPPC   C1A48439  24.430  14.809   6.983 -0.1833 -0.1481  0.0275
10501DPPC   C2A48440  24.058  14.703   6.805 -0.1977  0.0587 -0.0467
10501DPPC   C3A48441  23.683  14.774   6.515  0.5408  0.0373  0.1786
10501DPPC   C4A48442  23.263  14.624   6.582 -0.0921  0.2084 -0.1191
10501DPPC   C1B48443  24.424  15.113   6.557  0.2520 -0.0713 -0.0527
10501DPPC   C2B48444  24.041  15.189   6.519  0.1337 -0.3301 -0.1837
10501DPPC   C3B48445  23.673  15.313   6.237  0.1210 -0.0616  0.0385
10501DPPC   C4B48446  23.382  15.291   5.925  0.2323  0.2984 -0.0972
10502DPPC   NC348447   1.476  13.141  12.101 -0.1012  0.1543  0.0658
10502DPPC   PO448448   1.651  13.078  11.630  0.0196 -0.0184 -0.1138
10502DPPC   GL148449   1.847  12.861  11.279 -0.0231  0.1326 -0.0355
10502DPPC   GL248450   1.684  12.807  10.991  0.0984 -0.0014 -0.3530
10502DPPC   C1A48451   2.121  12.577  11.166 -0.1404  0.2766  0.1595
10502DPPC   C2A48452   2.527  12.510  10.988 -0.3220 -0.0732  0.1630
10502DPPC   C3A48453   2.948  12.432  10.860  0.0988  0.0472  0.0446
10502DPPC   C4A48454   3.357  12.623  10.770  0.0015 -0.3005  0.1245
10502DPPC   C1B48455   2.005  12.776  10.741 -0.1468  0.1342 -0.1134
10502DPPC   C2B48456   2.302  12.644  10.543  0.1651  0.1079  0.0366
10502DPPC   C3B48457   2.679  12.572  10.382  0.3423  0.0657  0.0738
10502DPPC   C4B48458   3.165  12.634  10.345  0.1470  0.0355  0.0871
10503DPPC   NC348459   9.434   1.854  20.070 -0.0769  0.0815  0.2620
10503DPPC   PO448460   9.318   2.026  19.667  0.0671 -0.3974  0.1409
10503DPPC   GL148461   9.447   1.932  19.345  0.0150  0.1407 -0.0049
10503DPPC   GL248462   9.188   1.752  19.200  0.0489  0.1214  0.1904
10503DPPC   C1A48463   9.671   1.676  19.099 -0.0795  0.5157 -0.1834
10503DPPC   C2A48464   9.980   1.605  18.781 -0.0871 -0.0468  0.0778
10503DPPC   C3A48465  10.271   1.651  18.461  0.2883 -0.1627  0.1052
10503DPPC   C4A48466  10.645   1.578  18.330 -0.3502  0.3866  0.3242
10503DPPC   C1B48467   9.161   1.635  18.669  0.2206  0.0211 -0.0420
10503DPPC   C2B48468   9.325   1.528  18.287  0.1076 -0.3121  0.2981
10503DPPC   C3B48469   9.242   1.232  18.019 -0.6285 -0.2263  0.0858
10503DPPC   C4B48470   9.058   0.830  17.975 -0.6373  0.1365  0.1377
10504DPPC   NC348471   5.744  24.873  20.228  0.0021 -0.0972  0.4600
10504DPPC   PO448472   5.759  25.219  20.602 -0.1091 -0.1898  0.0204
10504DPPC   GL148473   6.065  25.394  20.271  0.1333 -0.0292 -0.2772
10504DPPC   GL248474   6.297  25.119  20.128  0.0298  0.3842  0.0865
10504DPPC   C1A48475   6.207  25.595  19.860 -0.3740  0.1809 -0.1209
10504DPPC   C2A48476   6.192  25.695  19.360  0.0188 -0.3656  0.0227
10504DPPC   C3A48477   6.340  25.535  18.987 -0.1579 -0.0600 -0.1483
10504DPPC   C4A48478   6.370  25.344  18.574 -0.0062  0.1110 -0.1811
10504DPPC   C1B48479   6.576  25.271  19.830  0.0163  0.2450  0.0526
10504DPPC   C2B48480   6.689  25.548  19.420 -0.1664  0.0463 -0.1222
10504DPPC   C3B48481   6.831  25.603  18.954 -0.0137  0.0288 -0.0405
10504DPPC   C4B48482   6.841  25.492  18.533 -0.2504  0.2056 -0.1567
10505DPPC   NC348483   8.560   5.061  19.380 -0.1574 -0.0398  0.0559
10505DPPC   PO448484   8.785   4.906  19.045  0.0854  0.0156 -0.0665
10505DPPC   GL148485   8.826   4.565  18.877 -0.0452  0.0972 -0.1052
10505DPPC   GL248486   8.870   4.559  18.437 -0.2947  0.1343 -0.3424
10505DPPC   C1A48487   9.010   4.112  18.670  0.1031  0.2199 -0.1601
10505DPPC   C2A48488   8.949   3.983  18.260  0.1598  0.0254 -0.0793
10505DPPC   C3A48489   8.970   3.895  17.887 -0.0420  0.0941 -0.1149
10505DPPC   C4A48490   8.939   3.647  17.477 -0.1612  0.1489  0.0556
10505DPPC   C1B48491   8.807   4.471  18.093 -0.1287  0.0387  0.2104
10505DPPC   C2B48492   8.699   4.270  17.767 -0.0988  0.2472  0.0517
10505DPPC   C3B48493   8.589   4.171  17.351  0.1155  0.0371 -0.1544
10505DPPC   C4B48494   8.173   4.203  17.159  0.2123 -0.3157  0.1653
10506DPPC   NC348495   9.217  18.266  19.871 -0.1494  0.2083  0.0506
10506DPPC   PO448496   8.761  18.299  19.850 -0.3097 -0.0575 -0.0390
10506DPPC   GL148497   8.603  18.488  19.413  0.0664 -0.0936 -0.0288
10506DPPC   GL248498   8.664  18.849  19.317 -0.0071  0.1613  0.0040
10506DPPC   C1A48499   8.737  18.532  18.902  0.2192 -0.2634 -0.2552
10506DPPC   C2A48500   8.653  18.699  18.443  0.0236  0.1463 -0.0611
10506DPPC   C3A48501   8.803  18.951  18.081  0.1193  0.0087 -0.0040
10506DPPC   C4A48502   8.976  19.290  17.941 -0.0482 -0.2310  0.2300
10506DPPC   C1B48503   8.897  18.983  18.864 -0.0437 -0.2160  0.0391
10506DPPC   C2B48504   8.975  19.044  18.492  0.3697 -0.2690 -0.2843
10506DPPC   C3B48505   9.315  19.213  18.242  0.1406 -0.3717 -0.0157
10506DPPC   C4B48506   9.605  19.271  18.057  0.1329 -0.2966 -0.3443
10507DPPC   NC348507  28.775   2.419  10.690  0.0103  0.1364  0.1151
10507DPPC   PO448508  28.409   2.596  10.629  0.3993  0.1003 -0.1604
10507DPPC   GL148509  28.505   2.518  10.265 -0.0655 -0.2367 -0.2312
10507DPPC   GL248510  28.616   2.163  10.066 -0.2275  0.1579 -0.0491
10507DPPC   C1A48511  28.717   2.645   9.883 -0.1093  0.0838 -0.1667
10507DPPC   C2A48512  28.658   2.673   9.447  0.0020  0.1870  0.1653
10507DPPC   C3A48513  28.636   2.854   9.081  0.0583 -0.0959  0.0088
10507DPPC   C4A48514  28.414   2.854   8.714 -0.0099  0.3743 -0.0211
10507DPPC   C1B48515  28.583   2.227   9.634 -0.3153  0.0724 -0.3499
10507DPPC   C2B48516  28.518   2.263   9.133 -0.1402 -0.0537 -0.0163
10507DPPC   C3B48517  28.582   2.401   8.699  0.1353  0.0040  0.1131
10507DPPC   C4B48518  28.281   2.567   8.366 -0.2202  0.3756  0.1088
10508DPPC   NC348519  34.236  32.941  13.594  0.2426  0.0897  0.1600
10508DPPC   PO448520  34.057  33.023  13.214 -0.0868  0.1920 -0.3198
10508DPPC   GL148521  34.472  33.185  13.199  0.2148 -0.0372  0.2123
10508DPPC   GL248522  34.598  33.396  13.393 -0.1455  0.0927  0.0417
10508DPPC   C1A48523  34.769  32.976  13.070  0.1868 -0.3107  0.1881
10508DPPC   C2A48524  35.178  32.887  12.927 -0.3280 -0.3191 -0.0704
10508DPPC   C3A48525  35.336  32.856  12.488  0.2021 -0.0084 -0.1913
10508DPPC   C4A48526   0.221  32.914  12.191 -0.0016  0.0042  0.0058
10508DPPC   C1B48527  35.044  33.327  13.220 -0.2659  0.1726 -0.0177
10508DPPC   C2B48528   0.014  33.341  13.074 -0.0482  0.0959 -0.0484
10508DPPC   C3B48529   0.335  33.211  12.924  0.1820 -0.1422 -0.1763
10508DPPC   C4B48530   0.776  33.279  12.955  0.0167  0.0079  0.1567
10509POPC   NC348531   6.269  22.742  20.668 -0.1609 -0.2756  0.0869
10509POPC   PO448532   6.022  23.074  20.473 -0.1554 -0.1272  0.0109
10509POPC   GL148533   6.288  22.994  20.128 -0.0569 -0.2317  0.4177
10509POPC   GL248534   6.221  22.805  19.977  0.2209 -0.1126 -0.1544
10509POPC   C1A48535   6.574  23.357  19.965 -0.0212 -0.0828 -0.0768
10509POPC   D2A48536   6.878  23.642  19.730  0.0789 -0.2812 -0.0364
10509POPC   C3A48537   7.054  23.528  19.313 -0.1767  0.1173 -0.0077
10509POPC   C4A48538   7.095  23.701  18.927 -0.2153  0.1918 -0.1830
10509POPC   C1B48539   6.575  22.900  19.725  0.0848  0.0024 -0.0152
10509POPC   C2B48540   6.799  23.100  19.471  0.2652 -0.4021  0.5225
10509POPC   C3B48541   7.087  23.099  19.033 -0.3017 -0.2041  0.5421
10509POPC   C4B48542   7.176  22.777  18.675 -0.0603 -0.1592 -0.3563
10510POPC   NC348543  32.286  30.468  11.711  0.1529 -0.1680  0.2257
10510POPC   PO448544  32.570  30.212  11.699  0.1710 -0.3010 -0.0559
10510POPC   GL148545  33.051  30.320  11.577 -0.0370  0.0215 -0.1200
10510POPC   GL248546  33.269  30.334  11.822  0.0231  0.0037  0.1795
10510POPC   C1A48547  33.210  30.691  11.407 -0.1567  0.2449  0.1061
10510POPC   D2A48548  33.289  30.825  11.007 -0.1539 -0.3716 -0.0808
10510POPC   C3A48549  33.709  30.698  11.047 -0.1355 -0.0997  0.0965
10510POPC   C4A48550  34.110  30.799  10.852  0.1905  0.0809  0.1082
10510POPC   C1B48551  33.577  30.358  11.529 -0.0407  0.0153 -0.0327
10510POPC   C2B48552  33.985  30.323  11.324 -0.2483  0.1496 -0.2166
10510POPC   C3B48553  34.355  30.415  11.179 -0.0999  0.0277  0.0823
10510POPC   C4B48554  34.702  30.457  10.922  0.1361  0.1424  0.2353
10511POPC   NC348555  17.326  29.869  19.421  0.0769  0.1500 -0.1592
10511POPC   PO448556  17.447  29.880  18.957 -0.1219  0.0139 -0.0579
10511POPC   GL148557  17.313  29.851  18.547  0.0338  0.2860 -0.2202
10511POPC   GL248558  17.571  29.938  18.419 -0.2983  0.4510 -0.1198
10511POPC   C1A48559  17.067  29.760  18.155  0.0259 -0.0761  0.0679
10511POPC   D2A48560  16.772  29.703  17.935  0.0971  0.2044  0.0428
10511POPC   C3A48561  16.472  29.459  17.706  0.1590  0.1377 -0.0520
10511POPC   C4A48562  16.085  29.646  17.595 -0.0892  0.1080  0.0092
10511POPC   C1B48563  17.489  29.496  18.234 -0.0463  0.1826  0.2152
10511POPC   C2B48564  17.255  29.297  17.990 -0.0301  0.2587 -0.2600
10511POPC   C3B48565  16.923  29.144  17.695 -0.0492  0.0643 -0.0465
10511POPC   C4B48566  16.819  29.239  17.231  0.1188 -0.3965 -0.0248
10512POPC   NC348567  22.938  21.816  13.242  0.3069  0.1639  0.2658
10512POPC   PO448568  23.008  22.116  12.979 -0.2541  0.0638 -0.2010
10512POPC   GL148569  22.607  22.074  12.833 -0.0051 -0.1712 -0.2558
10512POPC   GL248570  22.311  22.349  12.758 -0.1537  0.1109 -0.0250
10512POPC   C1A48571  22.447  21.908  12.437 -0.1056 -0.2321  0.0981
10512POPC   D2A48572  22.019  21.874  12.227 -0.0890 -0.0777 -0.1643
10512POPC   C3A48573  21.771  21.504  12.058 -0.2643 -0.3442 -0.2851
10512POPC   C4A48574  21.301  21.325  11.888  0.1243  0.2221 -0.0514
10512POPC   C1B48575  21.990  22.276  12.596 -0.0432  0.2333 -0.5025
10512POPC   C2B48576  21.624  22.111  12.467 -0.0690 -0.0634  0.0747
10512POPC   C3B48577  21.586  22.029  12.043 -0.0278  0.0601 -0.2542
10512POPC   C4B48578  21.623  22.286  11.715 -0.1045  0.0571  0.1040
10513POPC   NC348579   6.077  32.619  19.993 -0.0999 -0.0721  0.2705
10513POPC   PO448580   6.478  32.801  19.757  0.1147  0.0278  0.0984
10513POPC   GL148581   6.822  32.728  19.485 -0.1352 -0.2926 -0.1812
10513POPC   GL248582   7.007  32.963  19.220 -0.0977  0.1465 -0.0068
10513POPC   C1A48583   7.084  32.527  19.105 -0.0986  0.1373  0.2609
10513POPC   D2A48584   7.342  32.434  18.709 -0.1599 -0.1082  0.2719
10513POPC   C3A48585   7.769  32.194  18.652  0.1996 -0.0789  0.1995
10513POPC   C4A48586   8.121  31.921  18.544  0.1615 -0.2235  0.1915
10513POPC   C1B48587   7.241  32.969  18.762 -0.0746  0.0176 -0.1544
10513POPC   C2B48588   7.502  32.928  18.492 -0.0212 -0.0187  0.2590
10513POPC   C3B48589   7.928  32.721  18.376 -0.2379 -0.1869 -0.0820
10513POPC   C4B48590   8.326  32.860  18.361 -0.0823 -0.0600 -0.0300
10514POPC   NC348591  21.856  31.797  12.527  0.1836 -0.3986 -0.0230
10514POPC   PO448592  21.777  32.113  12.163  0.1265  0.2613  0.0778
10514POPC   GL148593  21.346  32.144  11.988  0.0143 -0.2839  0.0289
10514POPC   GL248594  21.322  32.368  12.102 -0.1121  0.1479 -0.2131
10514POPC   C1A48595  20.872  32.077  11.673  0.0141 -0.0197 -0.2709
10514POPC   D2A48596  20.552  31.984  11.841  0.1459 -0.1073 -0.1469
10514POPC   C3A48597  20.203  31.783  11.599  0.2232 -0.1692  0.0638
10514POPC   C4A48598  20.103  31.553  11.239 -0.1725  0.0724  0.0597
10514POPC   C1B48599  21.182  32.530  11.688  0.0256  0.1053  0.1633
10514POPC   C2B48600  21.010  32.537  11.318  0.2043  0.1734 -0.0156
10514POPC   C3B48601  20.805  32.782  10.972 -0.2985 -0.1408  0.4425
10514POPC   C4B48602  20.872  32.922  10.546 -0.0612  0.0696 -0.1986
10515POPC   NC348603  32.562  13.979   5.927 -0.3650  0.3323 -0.1909
10515POPC   PO448604  32.243  14.122   5.572 -0.1224 -0.0523 -0.0314
10515POPC   GL148605  32.465  14.028   5.103  0.2585  0.0568 -0.0124
10515POPC   GL248606  32.284  14.107   4.816 -0.1111 -0.1518 -0.3263
10515POPC   C1A48607  32.869  13.969   4.882  0.0150 -0.0822  0.0022
10515POPC   D2A48608  33.096  14.055   4.524 -0.2688  0.1231 -0.2244
10515POPC   C3A48609  33.261  14.194   4.128 -0.0403  0.1384  0.0418
10515POPC   C4A48610  33.192  14.245   3.719  0.0535  0.0677  0.0845
10515POPC   C1B48611  32.597  14.067   4.485 -0.1476 -0.2266  0.1594
10515POPC   C2B48612  32.787  14.158   4.128  0.2010  0.1420 -0.0980
10515POPC   C3B48613  32.748  14.544   3.857  0.1252 -0.0360 -0.1376
10515POPC   C4B48614  32.915  14.618   3.503  0.0411  0.0012 -0.1416
10516POPC   NC348615  32.648   2.910  11.879  0.1818 -0.1854  0.2680
10516POPC   PO448616  32.805   3.361  11.974 -0.0817  0.1510  0.1210
10516POPC   GL148617  32.794   3.393  11.542 -0.0750 -0.1309 -0.1701
10516POPC   GL248618  32.606   3.421  11.321 -0.0097  0.0224  0.2277
10516POPC   C1A48619  32.935   3.278  11.023 -0.0155  0.0648 -0.1325
10516POPC   D2A48620  33.077   3.054  10.597  0.0043 -0.2433 -0.1107
10516POPC   C3A48621  32.891   2.847  10.295 -0.3800  0.0034  0.0137
10516POPC   C4A48622  32.784   2.732   9.942  0.3819  0.0659 -0.1375
10516POPC   C1B48623  32.577   3.628  10.964 -0.1017  0.0759  0.3040
10516POPC   C2B48624  32.927   3.566  10.634  0.0687 -0.2603  0.0414
10516POPC   C3B48625  33.086   3.416  10.187  0.0670 -0.1148 -0.1107
10516POPC   C4B48626  32.887   3.217   9.856  0.2568 -0.1268 -0.2934
10517POPC   NC348627  34.232  31.910  13.742 -0.0907  0.1717  0.1421
10517POPC   PO448628  34.075  31.591  13.559  0.2342  0.2231  0.1485
10517POPC   GL148629  34.356  31.620  13.140 -0.2308  0.2621 -0.0455
10517POPC   GL248630  34.719  31.477  13.163  0.0703 -0.5544 -0.0602
10517POPC   C1A48631  34.524  31.812  12.747 -0.1329 -0.1068 -0.1453
10517POPC   D2A48632  34.760  31.857  12.452 -0.1086  0.0956  0.2966
10517POPC   C3A48633  35.122  32.017  12.235  0.3201  0.1609 -0.0430
10517POPC   C4A48634  35.319  32.132  11.850 -0.1739 -0.0144 -0.1821
10517POPC   C1B48635  34.725  31.392  12.747  0.2319 -0.0042  0.1002
10517POPC   C2B48636  35.028  31.428  12.387 -0.2782 -0.0017  0.0354
10517POPC   C3B48637  35.367  31.282  12.256 -0.1226  0.0441 -0.1818
10517POPC   C4B48638   0.176  31.045  11.946  0.1724  0.2998 -0.0960
10518POPC   NC348639  21.525  30.032  13.333 -0.1655  0.3446  0.2707
10518POPC   PO448640  21.529  30.491  13.082 -0.4719 -0.0500 -0.0379
10518POPC   GL148641  21.233  30.504  12.743  0.0797  0.1989 -0.1994
10518POPC   GL248642  20.919  30.377  12.734 -0.3125  0.0446  0.0266
10518POPC   C1A48643  21.279  30.470  12.306  0.1522 -0.2378 -0.0374
10518POPC   D2A48644  21.447  30.657  11.907 -0.0162  0.0097  0.0312
10518POPC   C3A48645  21.768  30.886  11.759  0.1525 -0.1654 -0.2934
10518POPC   C4A48646  22.180  30.875  11.622  0.3598  0.1186  0.3342
10518POPC   C1B48647  20.772  30.363  12.392 -0.2498  0.1724  0.0496
10518POPC   C2B48648  20.472  30.346  12.065 -0.1272 -0.1051 -0.3675
10518POPC   C3B48649  20.159  30.113  11.927 -0.1117  0.2755 -0.1032
10518POPC   C4B48650  19.862  29.942  11.668  0.0219 -0.2389 -0.0087
10519POPC   NC348651   7.449  16.091  17.368 -0.0318  0.0253  0.0018
10519POPC   PO448652   7.580  15.614  17.386  0.2337 -0.1639  0.0318
10519POPC   GL148653   7.562  15.302  16.971 -0.0458  0.0005 -0.3230
10519POPC   GL248654   7.438  15.021  16.929  0.1000 -0.1133  0.0299
10519POPC   C1A48655   7.921  15.255  16.609  0.1179 -0.2372 -0.0377
10519POPC   D2A48656   8.121  15.410  16.316 -0.0628 -0.4806 -0.0895
10519POPC   C3A48657   8.130  15.319  15.929 -0.1905 -0.0815  0.1000
10519POPC   C4A48658   8.149  15.231  15.495  0.0441  0.1746 -0.2667
10519POPC   C1B48659   7.672  14.804  16.527 -0.1291  0.0765 -0.0900
10519POPC   C2B48660   7.961  14.896  16.172  0.0569  0.0013  0.0614
10519POPC   C3B48661   8.178  14.784  15.820 -0.0870 -0.2080  0.0371
10519POPC   C4B48662   8.310  14.786  15.400 -0.1230  0.0734  0.1431
10520POPC   NC348663   4.600  22.816  18.830 -0.2734  0.0037  0.1933
10520POPC   PO448664   5.018  23.034  18.869 -0.1196 -0.1666  0.2222
10520POPC   GL148665   5.444  23.160  18.964 -0.0928  0.1557 -0.0282
10520POPC   GL248666   5.682  22.889  19.016  0.1065 -0.0535 -0.0362
10520POPC   C1A48667   5.742  23.343  18.793  0.0103  0.1379  0.0664
10520POPC   D2A48668   6.045  23.541  18.597 -0.1377  0.1298 -0.4320
10520POPC   C3A48669   5.960  23.822  18.308  0.1008  0.2229 -0.1137
10520POPC   C4A48670   5.629  23.935  18.089 -0.0781 -0.2385  0.1340
10520POPC   C1B48671   5.726  22.615  18.654  0.1560  0.1255  0.1015
10520POPC   C2B48672   5.858  22.595  18.235 -0.0336 -0.0362  0.0723
10520POPC   C3B48673   5.673  22.611  17.847 -0.1506  0.1357 -0.4184
10520POPC   C4B48674   5.376  22.683  17.501 -0.0569  0.2825 -0.0561
10521POPC   NC348675  21.490  11.908  15.448  0.0501  0.0780  0.2625
10521POPC   PO448676  21.464  11.632  15.263 -0.0600  0.0765 -0.0851
10521POPC   GL148677  21.086  11.605  15.123  0.2016 -0.0210 -0.1381
10521POPC   GL248678  20.839  11.342  15.119  0.1520  0.1344  0.1544
10521POPC   C1A48679  20.677  11.844  14.968  0.1500 -0.1703  0.0994
10521POPC   D2A48680  20.237  11.876  14.913  0.0185  0.1210 -0.1890
10521POPC   C3A48681  19.998  11.768  14.650  0.2691  0.0255 -0.2336
10521POPC   C4A48682  19.664  11.654  14.302  0.2839  0.0385 -0.0609
10521POPC   C1B48683  20.641  11.705  15.392  0.1560 -0.1483  0.1930
10521POPC   C2B48684  20.157  11.690  15.401 -0.1547  0.0687 -0.1931
10521POPC   C3B48685  19.789  11.673  15.316 -0.1288 -0.1560  0.0004
10521POPC   C4B48686  19.612  11.767  15.012  0.0834  0.1592  0.1131
10522POPC   NC348687   7.903   7.031  18.374  0.0898 -0.2191 -0.1758
10522POPC   PO448688   7.728   7.396  18.127  0.0030 -0.1297 -0.1230
10522POPC   GL148689   7.561   7.373  17.695 -0.2445  0.1865  0.1775
10522POPC   GL248690   7.676   7.111  17.723 -0.2058 -0.0879 -0.0547
10522POPC   C1A48691   7.602   7.508  17.211  0.2086  0.2377  0.1070
10522POPC   D2A48692   7.534   7.428  16.805  0.0518 -0.0359 -0.0228
10522POPC   C3A48693   7.903   7.348  16.534  0.0438 -0.1831 -0.0364
10522POPC   C4A48694   7.768   7.347  16.057  0.1252 -0.2631  0.1501
10522POPC   C1B48695   7.923   7.065  17.350 -0.1238 -0.4225 -0.2099
10522POPC   C2B48696   8.000   6.945  16.999  0.2732  0.2015 -0.0754
10522POPC   C3B48697   8.291   6.953  16.707  0.0020  0.1222  0.1088
10522POPC   C4B48698   8.550   6.701  16.436  0.0278  0.0297 -0.3877
10523POPC   NC348699  32.087   6.976   9.973  0.4539 -0.1495  0.2641
10523POPC   PO448700  32.049   7.307   9.738  0.0076  0.0105  0.2506
10523POPC   GL148701  32.470   7.152   9.755 -0.0841 -0.0944  0.1131
10523POPC   GL248702  32.727   7.378   9.742 -0.2633 -0.5427 -0.4564
10523POPC   C1A48703  32.713   7.154   9.299  0.0195 -0.0226  0.1007
10523POPC   D2A48704  32.981   7.064   9.041  0.0414  0.0280  0.0861
10523POPC   C3A48705  33.275   6.915   8.663 -0.1257  0.1451 -0.1936
10523POPC   C4A48706  33.685   6.943   8.515  0.0718  0.2441 -0.0335
10523POPC   C1B48707  33.138   7.325   9.603  0.2788 -0.2337 -0.0190
10523POPC   C2B48708  33.317   7.192   9.364 -0.2233  0.3482  0.0372
10523POPC   C3B48709  33.612   6.877   9.171  0.0240 -0.0061  0.0418
10523POPC   C4B48710  33.710   6.526   8.923  0.1108  0.1439 -0.1113
10524POPC   NC348711  24.215  32.260  10.957  0.0901 -0.3332  0.0658
10524POPC   PO448712  23.778  32.184  10.799 -0.1759 -0.5673 -0.1100
10524POPC   GL148713  23.792  32.212  10.484  0.1625  0.4220  0.0428
10524POPC   GL248714  23.627  32.378  10.354  0.4535 -0.1902  0.0690
10524POPC   C1A48715  24.090  32.239  10.091 -0.2046  0.0950 -0.0721
10524POPC   D2A48716  24.178  32.480   9.765 -0.1188 -0.0849  0.1695
10524POPC   C3A48717  24.205  32.484   9.271 -0.2312  0.2195 -0.0331
10524POPC   C4A48718  24.227  32.396   8.823  0.0259  0.2379  0.0082
10524POPC   C1B48719  23.624  32.367   9.960 -0.0610 -0.1579 -0.0066
10524POPC   C2B48720  23.519  32.544   9.733  0.3576  0.1597 -0.0782
10524POPC   C3B48721  23.202  32.765   9.469 -0.1683  0.1827  0.1842
10524POPC   C4B48722  23.315  33.017   9.146  0.1340 -0.0926 -0.1395
10525POPC   NC348723  25.077  11.246  10.713  0.1073 -0.1095 -0.0244
10525POPC   PO448724  24.975  11.607  10.546  0.1325 -0.0595 -0.2387
10525POPC   GL148725  24.610  11.270  10.457  0.4111  0.0251 -0.2268
10525POPC   GL248726  24.298  11.204  10.703 -0.0373 -0.0854  0.2039
10525POPC   C1A48727  24.195  11.314  10.134 -0.2197 -0.3728 -0.0726
10525POPC   D2A48728  23.898  11.499   9.863  0.2360  0.1795 -0.0199
10525POPC   C3A48729  23.554  11.335   9.741  0.0136  0.4638  0.1042
10525POPC   C4A48730  23.445  10.828   9.678 -0.1804  0.0798  0.3335
10525POPC   C1B48731  23.904  11.004  10.727  0.1016  0.1589  0.1863
10525POPC   C2B48732  23.746  10.649  10.575 -0.1364 -0.1106  0.2278
10525POPC   C3B48733  23.976  10.352  10.441 -0.1064  0.5115 -0.1593
10525POPC   C4B48734  24.281  10.308  10.163 -0.1260  0.0956  0.0906
10526POPC   NC348735  27.296  27.926   9.807 -0.0961  0.0909 -0.1165
10526POPC   PO448736  27.376  28.020   9.361 -0.2413 -0.1877  0.0998
10526POPC   GL148737  27.211  28.074   9.005  0.1271  0.2061 -0.0378
10526POPC   GL248738  27.446  28.028   8.781 -0.2604  0.0739  0.4592
10526POPC   C1A48739  26.947  28.177   8.668 -0.2996 -0.0039 -0.0314
10526POPC   D2A48740  26.860  28.244   8.260 -0.0375 -0.5298 -0.0889
10526POPC   C3A48741  26.566  28.490   8.039 -0.1162  0.0491  0.0050
10526POPC   C4A48742  26.343  28.733   7.908  0.2187  0.0599  0.1855
10526POPC   C1B48743  27.351  28.064   8.368  0.2056 -0.0716  0.4816
10526POPC   C2B48744  27.441  28.280   7.966 -0.4146  0.1310  0.1043
10526POPC   C3B48745  27.095  28.387   7.869 -0.0567  0.1974 -0.0205
10526POPC   C4B48746  26.841  28.751   7.720  0.0013  0.2555 -0.0128
10527POPC   NC348747  17.915  31.443  16.714  0.0011 -0.0151 -0.0791
10527POPC   PO448748  17.861  31.543  16.345 -0.0055  0.0988 -0.0432
10527POPC   GL148749  17.953  31.515  15.929 -0.0111  0.0199 -0.0010
10527POPC   GL248750  17.851  31.884  15.869 -0.1216  0.1516  0.1170
10527POPC   C1A48751  17.693  31.439  15.605  0.0184 -0.1172 -0.3235
10527POPC   D2A48752  17.283  31.274  15.441  0.1687 -0.1617  0.2452
10527POPC   C3A48753  16.843  31.114  15.474  0.0099 -0.0455  0.0417
10527POPC   C4A48754  16.679  30.688  15.708  0.4586 -0.0935 -0.2301
10527POPC   C1B48755  17.474  31.887  15.644  0.2519 -0.2030 -0.0015
10527POPC   C2B48756  17.193  31.743  15.393 -0.0686 -0.0409 -0.1113
10527POPC   C3B48757  16.906  31.588  15.314  0.1572  0.6021  0.0960
10527POPC   C4B48758  16.489  31.601  15.273  0.1741  0.2257 -0.3018
10528POPC   NC348759   2.396   2.086  15.485  0.2073 -0.2474 -0.0181
10528POPC   PO448760   2.258   2.270  15.167  0.1590  0.1909  0.3541
10528POPC   GL148761   2.430   2.304  14.886 -0.0755  0.0818  0.0269
10528POPC   GL248762   2.384   2.577  14.705 -0.0296 -0.0489 -0.0755
10528POPC   C1A48763   2.755   2.299  14.558 -0.1039  0.0153 -0.1458
10528POPC   D2A48764   3.003   2.015  14.379 -0.0727  0.2840  0.1724
10528POPC   C3A48765   2.855   1.858  14.023  0.3052 -0.2444 -0.1689
10528POPC   C4A48766   3.015   1.620  13.727  0.3669  0.2962 -0.0414
10528POPC   C1B48767   2.578   2.690  14.284  0.0896 -0.2844 -0.2074
10528POPC   C2B48768   2.819   2.529  14.072  0.0027 -0.0038  0.2212
10528POPC   C3B48769   3.033   2.266  13.763  0.1369 -0.0641  0.2051
10528POPC   C4B48770   2.927   1.899  13.393 -0.3783 -0.0373  0.1484
10529POPC   NC348771  31.415  25.827   8.394 -0.2505  0.1913  0.0338
10529POPC   PO448772  31.788  25.812   8.203  0.0375 -0.2755  0.0781
10529POPC   GL148773  32.116  26.122   7.952  0.1657  0.2460 -0.1198
10529POPC   GL248774  32.190  25.860   7.802 -0.1570  0.2285  0.2840
10529POPC   C1A48775  32.256  26.439   7.807 -0.0895  0.1452 -0.1649
10529POPC   D2A48776  32.521  26.757   7.594 -0.2911  0.3082 -0.0048
10529POPC   C3A48777  32.403  27.160   7.608 -0.0145  0.0861  0.1039
10529POPC   C4A48778  32.270  27.371   7.184  0.1170 -0.1648 -0.2097
10529POPC   C1B48779  32.426  26.106   7.508 -0.1189 -0.0412  0.2369
10529POPC   C2B48780  32.665  26.410   7.337  0.0119  0.2778  0.0973
10529POPC   C3B48781  32.853  26.750   7.215 -0.0185 -0.2059  0.1633
10529POPC   C4B48782  32.762  27.161   7.179 -0.3433 -0.1481 -0.0487
10530POPC   NC348783   4.442  21.114  17.525  0.1142 -0.0562  0.0585
10530POPC   PO448784   4.768  20.868  17.658  0.3564 -0.1690 -0.0491
10530POPC   GL148785   5.057  21.036  17.423  0.1258  0.2217 -0.0511
10530POPC   GL248786   5.294  20.840  17.371  0.2350 -0.0743 -0.1891
10530POPC   C1A48787   5.323  21.321  17.257 -0.1101  0.3495 -0.0464
10530POPC   D2A48788   5.605  21.395  16.987 -0.1127  0.0334 -0.1767
10530POPC   C3A48789   6.053  21.457  16.888  0.0131  0.1064  0.0374
10530POPC   C4A48790   6.274  20.981  16.940  0.1872 -0.3600 -0.0529
10530POPC   C1B48791   5.694  20.946  17.325 -0.0516  0.1020  0.2956
10530POPC   C2B48792   5.893  21.278  17.390 -0.2492  0.0571 -0.1257
10530POPC   C3B48793   6.362  21.288  17.276 -0.0955  0.0208 -0.0774
10530POPC   C4B48794   6.745  21.117  17.286  0.0100  0.1085  0.0569
10531POPC   NC348795  17.717  27.262  20.366  0.2200 -0.2403 -0.0820
10531POPC   PO448796  17.604  26.816  20.300  0.0664  0.0256  0.1756
10531POPC   GL148797  17.328  26.875  19.988  0.0963 -0.1673  0.0828
10531POPC   GL248798  17.334  27.232  20.056  0.0012  0.1570 -0.0257
10531POPC   C1A48799  17.137  26.847  19.583 -0.1178  0.1200 -0.2568
10531POPC   D2A48800  17.239  26.956  19.156  0.2856  0.1454  0.1182
10531POPC   C3A48801  17.329  26.748  18.891 -0.0110  0.2836  0.2208
10531POPC   C4A48802  17.286  26.480  18.626 -0.1635 -0.1674 -0.0661
10531POPC   C1B48803  17.162  27.340  19.682 -0.1968 -0.1787  0.1565
10531POPC   C2B48804  17.056  27.393  19.299 -0.2411  0.0050  0.2981
10531POPC   C3B48805  16.813  27.725  18.988  0.0468 -0.0299 -0.0650
10531POPC   C4B48806  16.630  28.109  18.775 -0.1405 -0.1415  0.0581
10532POPC   NC348807   8.147  18.041  18.865  0.1814 -0.2397 -0.1701
10532POPC   PO448808   7.908  17.936  18.550  0.1084 -0.0578 -0.0976
10532POPC   GL148809   7.785  18.148  18.288 -0.0400 -0.1269 -0.2573
10532POPC   GL248810   7.561  18.347  18.464  0.4686 -0.0815  0.0718
10532POPC   C1A48811   7.657  18.501  18.019 -0.2889 -0.1034 -0.0094
10532POPC   D2A48812   7.729  18.781  17.621  0.1667  0.1538 -0.0601
10532POPC   C3A48813   7.961  19.137  17.496 -0.2511 -0.0973  0.2424
10532POPC   C4A48814   8.179  19.333  17.416 -0.0905  0.0512  0.1003
10532POPC   C1B48815   7.507  18.741  18.572 -0.0909  0.0605 -0.0011
10532POPC   C2B48816   7.620  19.151  18.553 -0.3008  0.1053 -0.2512
10532POPC   C3B48817   7.909  19.398  18.659 -0.2748 -0.2942 -0.0289
10532POPC   C4B48818   8.166  19.408  18.970  0.0914 -0.3129  0.1588
10533POPC   NC348819  32.928  24.765   8.847  0.1422  0.1553 -0.3095
10533POPC   PO448820  33.296  25.107   9.060  0.2065  0.0927 -0.0449
10533POPC   GL148821  33.606  25.418   9.155 -0.1769  0.1965  0.0904
10533POPC   GL248822  33.814  25.488   9.339 -0.0337  0.0330  0.0422
10533POPC   C1A48823  33.890  25.582   8.795 -0.1875  0.0926 -0.0999
10533POPC   D2A48824  34.095  25.435   8.488 -0.0381  0.0410 -0.0136
10533POPC   C3A48825  34.341  25.070   8.691  0.0718  0.1604  0.0516
10533POPC   C4A48826  34.408  24.710   8.987  0.1482  0.0273 -0.1594
10533POPC   C1B48827  34.047  25.824   9.293  0.0905 -0.1000 -0.0226
10533POPC   C2B48828  34.363  26.049   9.101  0.3137  0.2925  0.1263
10533POPC   C3B48829  34.597  26.253   8.861 -0.1682 -0.0264 -0.4794
10533POPC   C4B48830  34.988  26.351   8.944 -0.1208  0.0088 -0.1230
10534POPC   NC348831   6.517  17.293  17.667 -0.0958  0.2671 -0.1051
10534POPC   PO448832   6.894  17.283  17.921 -0.1851  0.0128 -0.1247
10534POPC   GL148833   6.926  17.479  17.413 -0.0508  0.0032  0.3456
10534POPC   GL248834   6.808  17.755  17.437  0.0063 -0.0602 -0.0041
10534POPC   C1A48835   7.124  17.689  17.028 -0.4141 -0.0025  0.5985
10534POPC   D2A48836   7.392  17.905  16.652 -0.0661  0.4921  0.0987
10534POPC   C3A48837   7.937  17.947  16.533 -0.0885  0.2085  0.0152
10534POPC   C4A48838   8.257  18.243  16.360  0.0408  0.0513  0.1119
10534POPC   C1B48839   6.628  18.004  17.179 -0.0480  0.1620  0.3290
10534POPC   C2B48840   6.493  18.223  16.843  0.1940  0.2976  0.1566
10534POPC   C3B48841   6.596  18.443  16.472 -0.3287 -0.0205 -0.0265
10534POPC   C4B48842   6.507  18.897  16.323 -0.0619 -0.1182 -0.3331
10535POPC   NC348843   7.398  30.217  20.706 -0.3616  0.2878  0.1552
10535POPC   PO448844   7.636  29.910  20.670 -0.1587  0.1616 -0.2652
10535POPC   GL148845   7.654  29.523  20.451 -0.2112 -0.2101  0.0141
10535POPC   GL248846   8.001  29.443  20.450  0.1204 -0.1183  0.1598
10535POPC   C1A48847   7.622  29.433  19.960 -0.0851  0.3331 -0.0459
10535POPC   D2A48848   7.817  29.037  19.843 -0.4328  0.1386 -0.2614
10535POPC   C3A48849   8.042  28.958  19.554  0.2134  0.5690 -0.0629
10535POPC   C4A48850   8.323  29.028  19.293  0.1045  0.2207 -0.3623
10535POPC   C1B48851   8.334  29.284  20.308  0.1193 -0.3678 -0.0031
10535POPC   C2B48852   8.434  29.142  19.960  0.1244 -0.2562 -0.1873
10535POPC   C3B48853   8.602  29.134  19.681  0.3522 -0.0560 -0.0368
10535POPC   C4B48854   8.871  29.118  19.285  0.1069  0.3300  0.2026
10536POPC   NC348855  21.980  27.234  13.721  0.1377  0.1853 -0.1650
10536POPC   PO448856  21.667  27.055  14.075  0.3938  0.0231 -0.0916
10536POPC   GL148857  21.532  26.946  13.759 -0.0134  0.0112  0.2407
10536POPC   GL248858  21.318  27.142  13.650 -0.1449 -0.2087 -0.0498
10536POPC   C1A48859  21.277  26.702  13.377 -0.1586 -0.1671 -0.0533
10536POPC   D2A48860  21.030  26.333  13.153 -0.3176  0.0978 -0.1894
10536POPC   C3A48861  20.640  26.222  13.113  0.0146 -0.1733 -0.3281
10536POPC   C4A48862  20.313  25.983  13.263  0.1084 -0.0075 -0.1572
10536POPC   C1B48863  20.930  27.057  13.484  0.0362 -0.1693  0.0380
10536POPC   C2B48864  20.569  26.819  13.236  0.2300  0.0009  0.0036
10536POPC   C3B48865  20.208  26.889  12.928  0.0027 -0.0741  0.0305
10536POPC   C4B48866  19.870  26.790  12.702  0.5060 -0.3944  0.3129
10537POPC   NC348867   5.753   5.114  17.904 -0.1927  0.3979  0.2161
10537POPC   PO448868   5.668   5.476  17.731  0.1085 -0.1561  0.1360
10537POPC   GL148869   5.675   5.314  17.330  0.1148  0.1060  0.2525
10537POPC   GL248870   5.815   5.617  17.277 -0.0360  0.1119 -0.1343
10537POPC   C1A48871   5.847   5.289  16.920 -0.0741  0.0565 -0.0725
10537POPC   D2A48872   6.127   5.241  16.705 -0.0808 -0.1241 -0.0228
10537POPC   C3A48873   6.381   5.256  16.355  0.0038  0.0976 -0.0783
10537POPC   C4A48874   6.418   5.201  15.977  0.1656  0.0858 -0.0167
10537POPC   C1B48875   6.155   5.725  17.115 -0.1420  0.0921  0.3263
10537POPC   C2B48876   6.588   5.890  17.081 -0.1485 -0.2560 -0.0236
10537POPC   C3B48877   7.002   5.819  17.282  0.1391 -0.2266 -0.1199
10537POPC   C4B48878   7.431   5.750  17.269 -0.0334 -0.3543 -0.0751
10538POPC   NC348879   0.942  24.623  14.939 -0.0069  0.1230  0.0663
10538POPC   PO448880   1.311  24.397  14.801  0.2718 -0.1874 -0.0359
10538POPC   GL148881   1.300  24.688  14.580 -0.0981  0.0276  0.0669
10538POPC   GL248882   1.432  24.617  14.309  0.0471 -0.1612 -0.0837
10538POPC   C1A48883   1.375  25.111  14.426 -0.2152 -0.0611 -0.1050
10538POPC   D2A48884   1.314  25.508  14.147  0.0678 -0.5048 -0.1874
10538POPC   C3A48885   1.546  25.664  13.964 -0.1876  0.0965  0.3623
10538POPC   C4A48886   1.894  25.860  13.620  0.1591  0.3616 -0.1901
10538POPC   C1B48887   1.573  24.915  14.007  0.0282  0.0980  0.0753
10538POPC   C2B48888   1.763  25.253  14.079  0.1737  0.1862 -0.0986
10538POPC   C3B48889   2.111  25.500  13.866  0.0598 -0.2205 -0.4140
10538POPC   C4B48890   2.536  25.468  13.921 -0.1638  0.1866  0.4873
10539POPC   NC348891   7.128  21.768  21.474  0.0302 -0.5458 -0.0802
10539POPC   PO448892   7.276  21.880  21.119 -0.0780  0.2772  0.0644
10539POPC   GL148893   7.506  21.872  20.625 -0.0533 -0.1176 -0.1399
10539POPC   GL248894   7.548  22.220  20.698  0.3384  0.1688 -0.3821
10539POPC   C1A48895   7.888  22.046  20.436 -0.3180 -0.1082 -0.0889
10539POPC   D2A48896   8.292  22.018  20.246 -0.0363 -0.0923 -0.0484
10539POPC   C3A48897   8.578  22.370  20.140  0.0655  0.1188 -0.1656
10539POPC   C4A48898   8.833  22.738  20.136 -0.0828  0.0543  0.1495
10539POPC   C1B48899   7.253  22.554  20.636 -0.1744 -0.0686  0.1539
10539POPC   C2B48900   7.157  22.586  20.245 -0.2030 -0.0225 -0.1504
10539POPC   C3B48901   7.497  22.756  19.917 -0.2963 -0.0839 -0.1605
10539POPC   C4B48902   7.755  22.914  19.750 -0.0102  0.0032  0.2778
10540DOPC   NC348903   6.272   8.347  17.703  0.4429  0.1275  0.0666
10540DOPC   PO448904   6.485   8.764  17.632  0.1353  0.3445 -0.1166
10540DOPC   GL148905   6.524   8.673  17.200  0.2299  0.0031  0.3157
10540DOPC   GL248906   6.224   8.898  16.953  0.0961 -0.0041  0.0556
10540DOPC   C1A48907   6.837   8.806  16.882  0.0900 -0.1055 -0.0398
10540DOPC   D2A48908   7.066   8.704  16.410  0.0103 -0.0442  0.2690
10540DOPC   C3A48909   6.778   8.665  16.096 -0.1669 -0.0141  0.1564
10540DOPC   C4A48910   6.672   8.306  15.952  0.2235 -0.0542 -0.0621
10540DOPC   C1B48911   6.082   8.855  16.583 -0.1422  0.1324  0.1180
10540DOPC   D2B48912   6.331   8.580  16.244 -0.0286  0.0420  0.2675
10540DOPC   C3B48913   6.213   8.172  16.033 -0.0288 -0.0294  0.1293
10540DOPC   C4B48914   5.866   7.876  16.033  0.2407 -0.0784  0.2339
10541DOPC   NC348915  21.724  16.811  15.048  0.1744 -0.1148  0.3002
10541DOPC   PO448916  21.385  17.054  15.108  0.0427  0.0276 -0.1942
10541DOPC   GL148917  21.076  17.343  14.901 -0.1900 -0.0141 -0.1731
10541DOPC   GL248918  20.783  17.219  14.955 -0.0582  0.1522 -0.0104
10541DOPC   C1A48919  21.099  17.139  14.518 -0.4828 -0.2244 -0.1578
10541DOPC   D2A48920  21.043  17.328  14.092 -0.3395 -0.1086 -0.1845
10541DOPC   C3A48921  20.740  17.241  13.786  0.1801 -0.0998 -0.0353
10541DOPC   C4A48922  20.422  17.199  13.529  0.2937 -0.2133  0.1033
10541DOPC   C1B48923  20.451  17.305  14.595 -0.3063 -0.0435 -0.1362
10541DOPC   D2B48924  20.111  17.419  14.354 -0.1349  0.3365  0.2171
10541DOPC   C3B48925  20.141  17.801  14.328 -0.0810 -0.0779 -0.0473
10541DOPC   C4B48926  20.070  18.286  14.204 -0.0505 -0.3980 -0.3385
10542DOPC   NC348927  22.847   7.400  14.133 -0.0401  0.1521  0.0707
10542DOPC   PO448928  22.737   7.158  14.509  0.0838  0.2364  0.1884
10542DOPC   GL148929  22.433   7.136  14.270 -0.0232  0.1107 -0.0254
10542DOPC   GL248930  22.470   7.096  14.012  0.1054  0.2184  0.0908
10542DOPC   C1A48931  21.952   7.120  14.289 -0.0934 -0.3530 -0.2272
10542DOPC   D2A48932  21.613   7.036  14.030 -0.1276 -0.1013 -0.3137
10542DOPC   C3A48933  21.409   7.258  13.643  0.1304 -0.0162 -0.0118
10542DOPC   C4A48934  21.278   7.236  13.325 -0.0806  0.0246 -0.0112
10542DOPC   C1B48935  22.430   7.079  13.605  0.0457 -0.1382  0.1536
10542DOPC   D2B48936  22.114   6.886  13.343 -0.2385  0.3240  0.0819
10542DOPC   C3B48937  22.046   6.736  13.019  0.1096 -0.2251  0.0200
10542DOPC   C4B48938  21.973   6.298  12.723 -0.1616  0.0067  0.3780
10543DOPC   NC348939  33.985  26.117  11.120 -0.3332  0.2082  0.2272
10543DOPC   PO448940  34.114  26.224  10.628  0.0216  0.1503  0.0020
10543DOPC   GL148941  34.049  26.432  10.240  0.1661 -0.1391  0.0367
10543DOPC   GL248942  33.946  26.301   9.934 -0.1705  0.1916  0.0384
10543DOPC   C1A48943  34.190  26.705   9.976  0.0949  0.0218 -0.2524
10543DOPC   D2A48944  34.277  27.077   9.914 -0.0500 -0.4022  0.0441
10543DOPC   C3A48945  34.526  27.155   9.568  0.0835 -0.0294  0.2713
10543DOPC   C4A48946  34.562  27.254   9.120  0.2049 -0.0982  0.1621
10543DOPC   C1B48947  33.888  26.775   9.639  0.1536 -0.0854 -0.4045
10543DOPC   D2B48948  34.063  26.919   9.425 -0.2793 -0.0527 -0.0891
10543DOPC   C3B48949  34.051  27.221   9.241  0.0996 -0.2592 -0.1880
10543DOPC   C4B48950  33.888  27.603   9.361  0.0867  0.1352 -0.0155
10544DOPC   NC348951  34.813  20.781   7.413  0.0364 -0.0350 -0.1494
10544DOPC   PO448952  34.938  21.166   7.202  0.0462 -0.1289 -0.2786
10544DOPC   GL148953  35.029  20.988   6.877  0.0352 -0.4033 -0.0170
10544DOPC   GL248954   0.057  20.997   6.928 -0.2112 -0.1092 -0.0197
10544DOPC   C1A48955  34.999  20.812   6.552  0.0588  0.2901 -0.0797
10544DOPC   D2A48956  35.123  20.460   6.397  0.0871  0.0137  0.1731
10544DOPC   C3A48957   0.015  20.467   6.013 -0.0630  0.1226  0.2954
10544DOPC   C4A48958   0.429  20.434   5.705  0.1956 -0.1451  0.1911
10544DOPC   C1B48959   0.180  21.244   6.496 -0.0474  0.4491 -0.1905
10544DOPC   D2B48960   0.381  21.363   6.161  0.0111 -0.0165  0.0619
10544DOPC   C3B48961   0.384  21.099   5.750  0.0114  0.0671 -0.0623
10544DOPC   C4B48962   0.085  20.728   5.615 -0.1596 -0.3054 -0.1438
10545DOPC   NC348963  23.988  29.522  10.235 -0.1051 -0.0386  0.0736
10545DOPC   PO448964  24.033  29.093  10.085  0.1459  0.0961  0.2289
10545DOPC   GL148965  23.859  29.233   9.758  0.4900  0.1097  0.1183
10545DOPC   GL248966  23.510  29.184   9.783  0.2230 -0.2948  0.3035
10545DOPC   C1A48967  23.733  29.485   9.361  0.0353  0.3189  0.1004
10545DOPC   D2A48968  23.571  29.524   8.958 -0.1483  0.0152  0.2787
10545DOPC   C3A48969  23.711  29.365   8.614 -0.1557 -0.0111 -0.3309
10545DOPC   C4A48970  24.090  29.561   8.458  0.0418  0.3897  0.0652
10545DOPC   C1B48971  23.332  29.235   9.443  0.1300  0.0836 -0.5048
10545DOPC   D2B48972  23.258  29.157   9.025 -0.0898 -0.2649 -0.0178
10545DOPC   C3B48973  23.141  29.461   8.747  0.4769 -0.2026  0.1382
10545DOPC   C4B48974  23.319  29.584   8.418  0.1087  0.0559  0.0537
10546DOPC   NC348975  13.067  20.458  21.606 -0.2624  0.1144  0.2124
10546DOPC   PO448976  13.284  20.821  21.474  0.1497  0.4006  0.2678
10546DOPC   GL148977  13.344  20.747  21.053  0.1174 -0.1249  0.3276
10546DOPC   GL248978  13.290  21.081  20.986 -0.0746 -0.0722 -0.1508
10546DOPC   C1A48979  13.231  20.746  20.655 -0.0491 -0.0549 -0.0500
10546DOPC   D2A48980  12.977  20.766  20.372  0.1705 -0.0839  0.1336
10546DOPC   C3A48981  12.824  21.131  20.194 -0.1639 -0.1923 -0.1394
10546DOPC   C4A48982  12.703  21.351  19.858 -0.1734  0.3898 -0.2180
10546DOPC   C1B48983  13.148  21.299  20.552  0.1066 -0.0232  0.1143
10546DOPC   D2B48984  13.046  21.637  20.307 -0.0471  0.0712  0.0498
10546DOPC   C3B48985  12.842  22.078  20.403 -0.1394  0.1246  0.2752
10546DOPC   C4B48986  12.482  22.097  20.156  0.0875  0.0985 -0.0832
10547DOPC   NC348987  31.589  14.600   5.189  0.1191  0.0529  0.2684
10547DOPC   PO448988  31.867  14.960   5.270 -0.2222 -0.0580  0.0674
10547DOPC   GL148989  31.721  14.956   4.778  0.0882 -0.2427 -0.0995
10547DOPC   GL248990  31.470  15.085   4.845  0.0097 -0.1211 -0.1229
10547DOPC   C1A48991  32.095  15.084   4.493 -0.2164  0.0950  0.1629
10547DOPC   D2A48992  32.031  15.421   4.212 -0.3597  0.0810  0.0875
10547DOPC   C3A48993  32.226  15.801   4.242  0.2893 -0.1047 -0.1099
10547DOPC   C4A48994  32.580  16.073   4.318  0.2043  0.1842  0.0307
10547DOPC   C1B48995  31.214  15.359   4.550 -0.1068  0.1546  0.0151
10547DOPC   D2B48996  31.008  15.484   4.282  0.0561 -0.3557 -0.1004
10547DOPC   C3B48997  30.697  15.745   4.092  0.1865 -0.2541 -0.3935
10547DOPC   C4B48998  30.684  16.030   3.712 -0.0595 -0.1069  0.1014
10548DOPC   NC348999  33.029  28.083  12.303 -0.0947  0.2340  0.1014
10548DOPC   PO449000  33.477  28.158  12.080  0.0081  0.2738 -0.2306
10548DOPC   GL149001  33.758  28.078  11.753 -0.1415 -0.0853 -0.0620
10548DOPC   GL249002  33.733  28.222  11.457 -0.1586  0.0054 -0.3831
10548DOPC   C1A49003  34.222  28.238  11.605 -0.0490  0.2930  0.1797
10548DOPC   D2A49004  34.740  28.409  11.474  0.2327 -0.1866 -0.1424
10548DOPC   C3A49005  34.850  28.763  11.266 -0.1321 -0.1685 -0.1314
10548DOPC   C4A49006  35.204  29.134  11.162 -0.0323  0.1111 -0.3476
10548DOPC   C1B49007  33.856  28.208  11.093 -0.1136 -0.3264 -0.1606
10548DOPC   D2B49008  33.641  28.253  10.677 -0.0673  0.1328 -0.0379
10548DOPC   C3B49009  34.007  28.481  10.492  0.2676 -0.1677  0.1903
10548DOPC   C4B49010  34.159  28.849  10.546 -0.0750 -0.0861  0.1214
10549DOPC   NC349011  29.441  29.486   9.659 -0.4672 -0.1470 -0.0394
10549DOPC   PO449012  29.916  29.588   9.698 -0.0261 -0.0917 -0.1360
10549DOPC   GL149013  29.987  29.887   9.387 -0.0012 -0.1717  0.0038
10549DOPC   GL249014  29.874  30.044   9.405  0.2134 -0.1269  0.1680
10549DOPC   C1A49015  30.246  30.130   9.087  0.0173 -0.0133 -0.4659
10549DOPC   D2A49016  30.290  30.375   8.741 -0.1951 -0.2951  0.0413
10549DOPC   C3A49017  29.991  30.452   8.526 -0.1208  0.0076  0.2921
10549DOPC   C4A49018  29.673  30.714   8.278 -0.0673  0.0366  0.0683
10549DOPC   C1B49019  29.810  30.362   9.041 -0.2708 -0.1490  0.4127
10549DOPC   D2B49020  29.496  30.535   8.692  0.1397 -0.1726 -0.0498
10549DOPC   C3B49021  29.128  30.493   8.467  0.1865 -0.3560 -0.0899
10549DOPC   C4B49022  28.867  30.775   8.334  0.2975  0.0871 -0.0437
10550DOPC   NC349023  18.272  22.439  20.065 -0.0552  0.2806 -0.0212
10550DOPC   PO449024  17.859  22.439  19.932 -0.2420  0.0092  0.4189
10550DOPC   GL149025  17.733  22.349  19.512  0.1940  0.1323  0.2107
10550DOPC   GL249026  17.604  22.148  19.440 -0.1073  0.3089 -0.1803
10550DOPC   C1A49027  17.814  22.272  19.034  0.2799 -0.1310  0.2721
10550DOPC   D2A49028  17.561  22.100  18.769 -0.1690  0.1673 -0.0727
10550DOPC   C3A49029  17.493  21.897  18.440  0.0211 -0.2585  0.2150
10550DOPC   C4A49030  17.254  21.752  18.113  0.0126 -0.1263 -0.1656
10550DOPC   C1B49031  17.341  22.125  19.204  0.0417  0.2121 -0.2977
10550DOPC   D2B49032  17.021  22.049  18.884 -0.0259 -0.1934  0.0227
10550DOPC   C3B49033  16.613  22.208  19.054  0.3966 -0.3455 -0.2338
10550DOPC   C4B49034  16.660  22.551  19.225 -0.1385  0.2083 -0.2296
10551DOPC   NC349035  33.667  11.712   7.070  0.0655  0.2740  0.1461
10551DOPC   PO449036  33.992  11.410   7.279  0.1282  0.1411  0.0634
10551DOPC   GL149037  33.839  11.017   7.096 -0.0362 -0.1314 -0.2425
10551DOPC   GL249038  33.880  10.683   7.201  0.3349  0.4414  0.0208
10551DOPC   C1A49039  33.981  10.751   6.757 -0.1941  0.1917  0.3387
10551DOPC   D2A49040  34.222  10.777   6.392 -0.0953 -0.0588 -0.1223
10551DOPC   C3A49041  34.411  10.420   6.241  0.1254  0.3835  0.1593
10551DOPC   C4A49042  34.887  10.226   6.083 -0.0045  0.1331  0.1893
10551DOPC   C1B49043  34.185  10.461   7.083  0.2290 -0.1721 -0.2959
10551DOPC   D2B49044  34.356  10.396   6.738 -0.2315  0.0694 -0.1403
10551DOPC   C3B49045  34.831  10.266   6.714  0.0730 -0.0703 -0.1120
10551DOPC   C4B49046  35.285  10.475   6.730 -0.1843 -0.1313  0.0997
10552DOPC   NC349047   3.328  26.850  18.748  0.2257 -0.3498  0.2038
10552DOPC   PO449048   3.705  27.089  18.819  0.0964  0.2524 -0.0882
10552DOPC   GL149049   4.072  27.058  18.494  0.2453 -0.0276 -0.3363
10552DOPC   GL249050   3.916  26.995  18.304  0.0423 -0.2112 -0.2401
10552DOPC   C1A49051   4.330  27.207  18.238  0.0226 -0.3844 -0.0160
10552DOPC   D2A49052   4.619  27.264  17.961  0.2624 -0.0352 -0.1614
10552DOPC   C3A49053   4.961  27.028  17.675 -0.3845 -0.0933  0.0119
10552DOPC   C4A49054   5.142  27.147  17.317 -0.2340  0.1775  0.3118
10552DOPC   C1B49055   4.068  26.617  18.186 -0.0253  0.1042 -0.3432
10552DOPC   D2B49056   4.114  26.415  17.874 -0.0474 -0.1269 -0.4791
10552DOPC   C3B49057   4.414  26.240  17.844  0.0672  0.3944  0.2439
10552DOPC   C4B49058   4.663  26.056  17.768  0.0626  0.3748 -0.1692
10553DOPC   NC349059   1.079   7.848  12.093  0.1792  0.1967 -0.2454
10553DOPC   PO449060   0.994   7.615  11.818  0.0264  0.5383 -0.0584
10553DOPC   GL149061   1.029   7.531  11.434 -0.0325  0.2061  0.2562
10553DOPC   GL249062   0.959   7.169  11.218 -0.1916  0.2068 -0.3491
10553DOPC   C1A49063   1.405   7.549  11.150 -0.0106  0.0949  0.0337
10553DOPC   D2A49064   1.727   7.468  10.841  0.4337  0.0102  0.2499
10553DOPC   C3A49065   2.112   7.270  10.571 -0.0052 -0.0708  0.0452
10553DOPC   C4A49066   2.583   7.364  10.498  0.1313 -0.1618 -0.2425
10553DOPC   C1B49067   1.326   7.071  10.891  0.0888  0.1194 -0.0905
10553DOPC   D2B49068   1.644   7.091  10.563 -0.6659 -0.1575 -0.1404
10553DOPC   C3B49069   2.043   6.882  10.301  0.2794  0.4219 -0.3288
10553DOPC   C4B49070   2.386   7.037  10.113 -0.2605 -0.0181  0.0075
10554DOPC   NC349071  20.882  27.281  15.632  0.3248  0.3275 -0.0232
10554DOPC   PO449072  21.089  26.824  15.779 -0.0982  0.0292 -0.0408
10554DOPC   GL149073  20.719  26.688  15.830 -0.1634  0.0461  0.2280
10554DOPC   GL249074  20.734  26.424  15.673 -0.0183 -0.1047 -0.1168
10554DOPC   C1A49075  20.330  26.707  15.596 -0.2513 -0.0318 -0.1576
10554DOPC   D2A49076  20.022  26.502  15.373 -0.2415  0.0581 -0.0100
10554DOPC   C3A49077  20.041  26.167  15.054  0.0124 -0.2375  0.1285
10554DOPC   C4A49078  19.712  25.936  14.870 -0.2583  0.2464 -0.1296
10554DOPC   C1B49079  20.438  26.250  15.348  0.4693 -0.2200 -0.1271
10554DOPC   D2B49080  20.521  25.964  15.010 -0.3365  0.2394 -0.1057
10554DOPC   C3B49081  20.316  25.855  14.681 -0.0980 -0.0282  0.0489
10554DOPC   C4B49082  20.082  25.592  14.641  0.1105  0.0165 -0.1387
10555DOPC   NC349083  33.983  31.242  13.227 -0.1912  0.1947  0.0388
10555DOPC   PO449084  33.987  30.771  13.169 -0.3981 -0.0696  0.0851
10555DOPC   GL149085  34.401  30.807  13.179  0.0765 -0.1717  0.2220
10555DOPC   GL249086  34.454  31.062  13.009 -0.0073  0.3628  0.3961
10555DOPC   C1A49087  34.753  30.630  13.392 -0.1208  0.0495 -0.1352
10555DOPC   D2A49088  35.053  30.286  13.381  0.1649  0.1739  0.3091
10555DOPC   C3A49089   0.014  30.368  13.222 -0.3520 -0.2839 -0.1509
10555DOPC   C4A49090   0.346  30.450  13.146  0.0732  0.1174 -0.1744
10555DOPC   C1B49091  34.853  30.908  13.035 -0.1196  0.1265 -0.0438
10555DOPC   D2B49092  35.263  30.815  13.170  0.2271  0.1257  0.0040
10555DOPC   C3B49093   0.219  30.951  13.036  0.0801 -0.1113 -0.1075
10555DOPC   C4B49094   0.668  30.840  12.870  0.0848 -0.2795 -0.2371
10556DOPC   NC349095  25.021  34.998  11.107 -0.4096 -0.1112 -0.2415
10556DOPC   PO449096  24.752   0.014  11.156  0.1745 -0.2809  0.1193
10556DOPC   GL149097  24.840   0.382  10.928 -0.3499  0.0596 -0.1518
10556DOPC   GL249098  25.186   0.436  10.692  0.0563 -0.2574 -0.1890
10556DOPC   C1A49099  24.539   0.410  10.601  0.2344  0.0471 -0.1744
10556DOPC   D2A49100  24.447   0.488  10.164 -0.0297 -0.0788  0.1081
10556DOPC   C3A49101  24.171   0.728  10.036  0.0835 -0.0205  0.1217
10556DOPC   C4A49102  24.075   1.135  10.302  0.2580  0.2240 -0.3242
10556DOPC   C1B49103  24.963   0.641  10.433 -0.1123  0.0166 -0.1171
10556DOPC   D2B49104  24.922   0.605   9.986  0.0337  0.0162  0.0825
10556DOPC   C3B49105  24.761   0.863   9.747 -0.0895 -0.0992 -0.0293
10556DOPC   C4B49106  24.459   0.998   9.504  0.3593 -0.0878  0.3731
10557DOPC   NC349107  13.197  26.763  21.987  0.2942  0.0329 -0.0213
10557DOPC   PO449108  13.691  26.909  21.990  0.2615  0.1227  0.1917
10557DOPC   GL149109  13.717  26.874  21.624  0.0445  0.1883 -0.3808
10557DOPC   GL249110  14.043  27.033  21.608  0.0732 -0.1991 -0.2106
10557DOPC   C1A49111  13.528  26.884  21.256  0.2155 -0.1351  0.0432
10557DOPC   D2A49112  13.611  26.835  20.808  0.0958  0.1080  0.3775
10557DOPC   C3A49113  13.433  27.189  20.434  0.1229 -0.0950 -0.1906
10557DOPC   C4A49114  13.439  27.425  20.079  0.0865  0.2141  0.3400
10557DOPC   C1B49115  14.096  26.854  21.125 -0.0331 -0.2492 -0.1015
10557DOPC   D2B49116  14.127  26.816  20.653 -0.2125 -0.1732  0.0517
10557DOPC   C3B49117  13.930  26.867  20.229 -0.1062  0.1448  0.0221
10557DOPC   C4B49118  13.755  27.060  19.815  0.0937 -0.1066 -0.2870
10558DOPC   NC349119   2.596  28.409  18.156 -0.1650 -0.3165  0.0743
10558DOPC   PO449120   2.968  28.527  17.963  0.0271 -0.0509 -0.1476
10558DOPC   GL149121   3.261  28.498  17.740  0.2528  0.0510 -0.3188
10558DOPC   GL249122   3.242  28.213  17.580  0.1200 -0.0539 -0.1389
10558DOPC   C1A49123   3.696  28.510  17.438 -0.1728  0.2314 -0.1493
10558DOPC   D2A49124   3.951  28.590  17.166  0.0102  0.2250 -0.1996
10558DOPC   C3A49125   4.203  28.892  17.251 -0.0116 -0.1799 -0.0145
10558DOPC   C4A49126   4.550  29.191  17.053  0.2475 -0.1168  0.1778
10558DOPC   C1B49127   3.356  28.296  17.154 -0.1617 -0.1280  0.2607
10558DOPC   D2B49128   3.623  28.298  16.759 -0.0306  0.0742  0.1590
10558DOPC   C3B49129   3.475  28.045  16.402  0.1729  0.0347  0.0679
10558DOPC   C4B49130   3.427  27.708  16.012 -0.0416 -0.1828 -0.1603
10559DOPC   NC349131  16.971  29.131  20.127  0.0054 -0.0793 -0.1386
10559DOPC   PO449132  16.662  29.008  20.463  0.2030 -0.0695 -0.1320
10559DOPC   GL149133  16.533  28.850  20.089  0.3268  0.1115  0.0049
10559DOPC   GL249134  16.361  28.557  20.051  0.0437 -0.1831 -0.1315
10559DOPC   C1A49135  16.420  28.770  19.647  0.0686  0.1152  0.2051
10559DOPC   D2A49136  16.125  28.958  19.296 -0.1038 -0.3240 -0.0745
10559DOPC   C3A49137  15.784  28.697  18.986  0.1813  0.0622  0.6617
10559DOPC   C4A49138  15.608  28.317  18.875 -0.0598  0.0060  0.1249
10559DOPC   C1B49139  16.037  28.567  19.818 -0.0021 -0.2591  0.0197
10559DOPC   D2B49140  15.940  28.505  19.463 -0.0576 -0.0411  0.0122
10559DOPC   C3B49141  15.595  28.141  19.348  0.1299 -0.1476  0.3069
10559DOPC   C4B49142  15.329  27.805  19.243 -0.1080  0.2233 -0.0326
10560DOPC   NC349143  16.583  34.385  17.525  0.0242  0.1861 -0.1585
10560DOPC   PO449144  16.551  34.597  17.133 -0.3616  0.1890 -0.2132
10560DOPC   GL149145  16.327  34.473  16.855  0.4041  0.0738  0.2345
10560DOPC   GL249146  16.360  34.371  16.532  0.2102 -0.1953  0.2069
10560DOPC   C1A49147  15.829  34.481  16.774 -0.2072 -0.2759  0.1253
10560DOPC   D2A49148  15.491  34.356  16.669  0.1027  0.2793 -0.0747
10560DOPC   C3A49149  15.154  34.341  16.384 -0.1410  0.0514 -0.0813
10560DOPC   C4A49150  14.839  34.240  16.081  0.4687 -0.0883  0.1030
10560DOPC   C1B49151  15.954  34.434  16.299  0.1574 -0.4740  0.0888
10560DOPC   D2B49152  15.561  34.550  16.085 -0.0902  0.3099  0.0382
10560DOPC   C3B49153  15.316  34.360  15.854  0.0551 -0.2737 -0.0996
10560DOPC   C4B49154  15.095  34.442  15.395 -0.2675 -0.0481 -0.1241
10561DOPC   NC349155  12.066   4.043  18.476 -0.0695  0.1041 -0.0598
10561DOPC   PO449156  12.352   3.730  18.259 -0.2857 -0.2052 -0.1481
10561DOPC   GL149157  12.278   4.105  18.019 -0.1751  0.2584 -0.0116
10561DOPC   GL249158  11.900   4.026  18.020  0.2096  0.0694  0.2165
10561DOPC   C1A49159  12.133   4.452  17.753  0.0779  0.2351 -0.0182
10561DOPC   D2A49160  12.116   4.747  17.339  0.1195  0.0671 -0.0698
10561DOPC   C3A49161  11.956   4.663  16.902 -0.4143 -0.0263  0.1554
10561DOPC   C4A49162  12.043   4.664  16.506 -0.1703 -0.2010  0.0206
10561DOPC   C1B49163  11.749   4.078  17.547 -0.2059 -0.1183 -0.0177
10561DOPC   D2B49164  11.908   4.272  17.266 -0.1792  0.0905  0.0262
10561DOPC   C3B49165  11.882   4.139  16.898 -0.0127  0.1369 -0.0271
10561DOPC   C4B49166  11.451   3.891  16.927  0.4151  0.2848 -0.0764
10562DOPC   NC349167  13.550   2.111  17.495 -0.2028  0.1303  0.1938
10562DOPC   PO449168  13.957   1.841  17.519 -0.1067 -0.1940 -0.0463
10562DOPC   GL149169  13.746   1.806  17.032  0.1535 -0.3222 -0.5204
10562DOPC   GL249170  13.461   1.831  16.957 -0.0952  0.1584  0.0494
10562DOPC   C1A49171  13.747   1.955  16.600 -0.3655  0.2360  0.0305
10562DOPC   D2A49172  13.589   1.971  16.221 -0.5590 -0.4214  0.0943
10562DOPC   C3A49173  13.368   1.666  16.068  0.2306  0.4344 -0.2057
10562DOPC   C4A49174  13.237   1.343  16.115  0.3151 -0.1566  0.0243
10562DOPC   C1B49175  13.338   1.622  16.599 -0.0170 -0.1979  0.0865
10562DOPC   D2B49176  12.946   1.579  16.482  0.2227  0.2318 -0.0340
10562DOPC   C3B49177  12.708   1.440  16.197  0.0835  0.1946 -0.1061
10562DOPC   C4B49178  12.340   1.501  15.934  0.2464  0.4260  0.0978
10563DOPC   NC349179  33.581  19.416   6.043 -0.0024 -0.1377 -0.0262
10563DOPC   PO449180  33.850  19.608   5.868 -0.2628  0.0543 -0.1874
10563DOPC   GL149181  34.239  19.536   5.736  0.1901 -0.3151 -0.0106
10563DOPC   GL249182  34.207  19.528   5.482 -0.1985  0.1164 -0.0702
10563DOPC   C1A49183  34.564  19.869   5.455 -0.1033 -0.0117 -0.0148
10563DOPC   D2A49184  34.948  19.839   5.076 -0.2979 -0.0584  0.0857
10563DOPC   C3A49185  34.865  20.186   4.706  0.2833  0.1760 -0.1899
10563DOPC   C4A49186  35.091  20.450   4.473  0.1832  0.0403  0.0452
10563DOPC   C1B49187  34.466  19.441   5.185 -0.0754  0.1372 -0.0250
10563DOPC   D2B49188  34.603  19.373   4.759  0.0385  0.4476  0.0528
10563DOPC   C3B49189  34.811  19.413   4.444 -0.0391  0.2162  0.1964
10563DOPC   C4B49190  35.187  19.445   4.143 -0.3223 -0.0621  0.1533
10564DOPC   NC349191  33.282   2.158  11.970  0.1061 -0.0643  0.2246
10564DOPC   PO449192  33.104   2.569  11.979  0.0158 -0.0733 -0.0655
10564DOPC   GL149193  33.394   2.529  11.723 -0.3055 -0.1644  0.0023
10564DOPC   GL249194  33.593   2.657  11.709 -0.1903  0.0034 -0.2557
10564DOPC   C1A49195  33.416   2.487  11.304  0.0239 -0.0003 -0.2828
10564DOPC   D2A49196  33.633   2.292  10.954 -0.3626  0.0954 -0.0479
10564DOPC   C3A49197  33.396   2.104  10.620  0.0477  0.1521 -0.3168
10564DOPC   C4A49198  33.494   1.659  10.444  0.2063  0.0689  0.1592
10564DOPC   C1B49199  33.795   2.764  11.274 -0.2660  0.1890 -0.4006
10564DOPC   D2B49200  34.145   2.715  11.075 -0.1798  0.0479 -0.1561
10564DOPC   C3B49201  34.192   2.576  10.671  0.0396  0.0191  0.0111
10564DOPC   C4B49202  34.313   2.805  10.238 -0.0663 -0.3070 -0.0781
10565DOPC   NC349203   7.972   5.798  18.925 -0.0208 -0.0163 -0.0692
10565DOPC   PO449204   7.713   5.910  18.523  0.1081 -0.4938  0.0565
10565DOPC   GL149205   7.958   5.972  18.108 -0.0845 -0.0300 -0.2043
10565DOPC   GL249206   7.951   5.654  18.179 -0.0542 -0.2686  0.0297
10565DOPC   C1A49207   8.084   6.198  17.857 -0.5252 -0.0486 -0.3636
10565DOPC   D2A49208   8.300   6.505  17.764 -0.1844 -0.0360 -0.1432
10565DOPC   C3A49209   8.313   6.551  17.327 -0.0985  0.1236 -0.0367
10565DOPC   C4A49210   8.429   6.531  16.892 -0.1241  0.1837 -0.0049
10565DOPC   C1B49211   7.709   5.552  17.726  0.1685 -0.2078  0.0090
10565DOPC   D2B49212   7.749   5.321  17.426  0.2258  0.0045 -0.0857
10565DOPC   C3B49213   8.052   5.020  17.359  0.1447 -0.0898  0.1508
10565DOPC   C4B49214   8.004   4.689  17.015  0.1814  0.2689 -0.0110
10566DOPC   NC349215   3.683  31.294  18.750 -0.2291  0.0478  0.1749
10566DOPC   PO449216   4.057  31.278  18.733  0.0634 -0.3059 -0.2552
10566DOPC   GL149217   4.288  31.401  18.445  0.2645 -0.0147  0.0737
10566DOPC   GL249218   4.150  31.674  18.289 -0.2352  0.0734  0.1969
10566DOPC   C1A49219   4.636  31.319  18.119  0.2141 -0.0325 -0.0256
10566DOPC   D2A49220   4.979  31.367  17.706  0.1990 -0.1047  0.0112
10566DOPC   C3A49221   5.144  31.366  17.181  0.0810  0.0319 -0.0443
10566DOPC   C4A49222   4.926  31.392  16.834  0.0941  0.0180  0.3749
10566DOPC   C1B49223   4.298  31.646  17.887 -0.0420  0.1818 -0.0445
10566DOPC   D2B49224   4.514  31.509  17.596 -0.0471  0.0613  0.2797
10566DOPC   C3B49225   4.802  31.680  17.282 -0.2179 -0.0070  0.0239
10566DOPC   C4B49226   5.119  31.897  17.025 -0.1100 -0.1003  0.3000
10567DOPC   NC349227  30.066  33.512  11.339 -0.0285  0.0065 -0.0202
10567DOPC   PO449228  30.485  33.225  11.321 -0.0694  0.1222  0.4256
10567DOPC   GL149229  30.704  33.359  10.990 -0.1179  0.1186  0.3284
10567DOPC   GL249230  30.518  33.425  10.691  0.0762  0.1393  0.1239
10567DOPC   C1A49231  31.040  33.350  10.672  0.0878  0.1178  0.2838
10567DOPC   D2A49232  31.176  33.237  10.261 -0.0765  0.1958 -0.3176
10567DOPC   C3A49233  31.291  33.230   9.826  0.2557 -0.1962  0.3311
10567DOPC   C4A49234  31.215  33.283   9.434 -0.0263  0.2464 -0.0940
10567DOPC   C1B49235  30.688  33.152  10.325  0.2554 -0.0000 -0.1238
10567DOPC   D2B49236  30.812  32.839  10.143  0.1067  0.1509  0.0117
10567DOPC   C3B49237  31.058  32.785   9.797  0.2995 -0.2519 -0.1624
10567DOPC   C4B49238  31.135  32.735   9.313  0.2856 -0.1957 -0.0349
10568DOPC   NC349239  12.357  17.724  19.857 -0.0964 -0.1567  0.4662
10568DOPC   PO449240  12.750  17.754  19.603  0.0150  0.2067  0.0760
10568DOPC   GL149241  12.795  18.145  19.442  0.2164 -0.0755  0.3224
10568DOPC   GL249242  13.028  18.207  19.544  0.1325 -0.0740  0.1074
10568DOPC   C1A49243  12.573  18.523  19.483  0.0536 -0.1033  0.1049
10568DOPC   D2A49244  12.354  18.876  19.228 -0.1033  0.2118  0.0283
10568DOPC   C3A49245  12.505  19.040  18.869 -0.2888 -0.1037  0.1309
10568DOPC   C4A49246  12.674  19.320  18.651  0.0821 -0.2663  0.0350
10568DOPC   C1B49247  13.180  18.421  19.209 -0.1446  0.1344 -0.1748
10568DOPC   D2B49248  13.218  18.586  18.837 -0.0585 -0.0360  0.2898
10568DOPC   C3B49249  12.907  18.905  18.600  0.3317  0.1056 -0.1370
10568DOPC   C4B49250  12.632  18.979  18.181  0.2017  0.2221 -0.0807
10569DOPC   NC349251  14.175  16.667  19.415  0.3218  0.0670  0.0627
10569DOPC   PO449252  13.704  16.673  19.211 -0.1696  0.0115 -0.1600
10569DOPC   GL149253  13.732  16.670  18.724  0.2569 -0.1927  0.2152
10569DOPC   GL249254  13.390  16.719  18.491 -0.0563  0.0086 -0.3413
10569DOPC   C1A49255  13.942  16.677  18.307  0.0153 -0.1739  0.0324
10569DOPC   D2A49256  14.192  16.946  18.100 -0.1308 -0.0626  0.1207
10569DOPC   C3A49257  14.059  17.086  17.730 -0.0602 -0.0085  0.0014
10569DOPC   C4A49258  13.980  16.892  17.231 -0.0006 -0.0866 -0.0137
10569DOPC   C1B49259  13.480  16.787  18.172 -0.1491 -0.0791 -0.1528
10569DOPC   D2B49260  13.609  16.838  17.855 -0.1791  0.2221  0.0660
10569DOPC   C3B49261  13.624  17.139  17.410  0.0261  0.2430 -0.2816
10569DOPC   C4B49262  13.294  17.457  17.405 -0.2945  0.1693 -0.1437
10570DOPC   NC349263   7.630  26.281  21.550 -0.3879  0.0647 -0.0064
10570DOPC   PO449264   8.058  26.121  21.482  0.3095  0.0393 -0.1224
10570DOPC   GL149265   8.262  26.080  21.068  0.1515  0.1569 -0.0115
10570DOPC   GL249266   8.047  25.877  20.920 -0.2594 -0.2604 -0.2523
10570DOPC   C1A49267   8.102  26.290  20.709 -0.4304  0.0325  0.1332
10570DOPC   D2A49268   8.115  26.322  20.273  0.1447 -0.3928  0.1576
10570DOPC   C3A49269   8.045  26.646  19.997  0.0927 -0.0390 -0.0140
10570DOPC   C4A49270   7.819  26.715  19.603  0.1650 -0.0350 -0.1983
10570DOPC   C1B49271   8.065  25.769  20.489  0.2093  0.1227  0.0105
10570DOPC   D2B49272   8.157  25.360  20.129  0.0460 -0.0496  0.1180
10570DOPC   C3B49273   7.977  25.171  19.752 -0.2868 -0.1578  0.0547
10570DOPC   C4B49274   7.970  25.194  19.302 -0.0299  0.1602 -0.0314
10571DOPC   NC349275  10.057  33.191  20.659 -0.3948  0.1845  0.2118
10571DOPC   PO449276  10.222  33.612  20.723 -0.0024 -0.0771 -0.2632
10571DOPC   GL149277  10.314  33.483  20.356 -0.0071 -0.2499  0.0791
10571DOPC   GL249278  10.596  33.276  20.232  0.3788  0.1065 -0.1630
10571DOPC   C1A49279  10.288  33.633  19.930  0.0519 -0.0777  0.1375
10571DOPC   D2A49280  10.279  33.518  19.499  0.2655 -0.3602 -0.0990
10571DOPC   C3A49281  10.339  33.443  19.050  0.0980  0.0776 -0.2412
10571DOPC   C4A49282  10.445  33.006  18.828  0.3395  0.2125  0.1175
10571DOPC   C1B49283  10.635  33.171  19.829  0.1211  0.0225 -0.2072
10571DOPC   D2B49284  10.553  33.055  19.433  0.1647 -0.0493 -0.1392
10571DOPC   C3B49285  10.108  32.938  19.283  0.0450  0.1977 -0.0293
10571DOPC   C4B49286   9.932  32.998  18.862 -0.3911  0.1210  0.0880
10572DOPC   NC349287  10.338   8.119  18.971 -0.4302 -0.4044 -0.3585
10572DOPC   PO449288  10.305   8.452  18.862  0.1490 -0.0562 -0.1391
10572DOPC   GL149289  10.650   8.791  18.613 -0.0440  0.3498 -0.1985
10572DOPC   GL249290  10.634   9.115  18.771  0.3891  0.1076  0.2688
10572DOPC   C1A49291  10.946   8.893  18.391  0.0373  0.1725 -0.2196
10572DOPC   D2A49292  11.194   8.615  18.126  0.1913  0.1277  0.3636
10572DOPC   C3A49293  11.076   8.782  17.632  0.0834  0.1946  0.2031
10572DOPC   C4A49294  11.065   8.861  17.217 -0.1149  0.0266  0.1222
10572DOPC   C1B49295  10.441   9.446  18.579 -0.2605 -0.2861  0.2059
10572DOPC   D2B49296  10.459   9.696  18.287  0.1798  0.1305  0.2465
10572DOPC   C3B49297  10.447   9.790  17.871  0.1931  0.0113 -0.1698
10572DOPC   C4B49298  10.304   9.930  17.399 -0.1666  0.1752 -0.0603
10573DOPC   NC349299  25.073   6.926  11.788 -0.1306  0.1632 -0.1376
10573DOPC   PO449300  25.064   7.269  12.058 -0.2260  0.0611  0.3727
10573DOPC   GL149301  24.649   7.299  11.767 -0.1456  0.2621  0.1311
10573DOPC   GL249302  24.611   6.917  11.576  0.1737  0.1733 -0.0293
10573DOPC   C1A49303  24.224   7.348  11.522 -0.2282  0.3792  0.0664
10573DOPC   D2A49304  23.892   7.087  11.404  0.1197 -0.3281  0.2398
10573DOPC   C3A49305  23.488   7.262  11.258  0.0963  0.2447  0.0340
10573DOPC   C4A49306  23.176   7.328  11.113  0.1508 -0.1241 -0.3126
10573DOPC   C1B49307  24.456   7.122  11.137  0.0654 -0.0328  0.0680
10573DOPC   D2B49308  24.519   7.002  10.744  0.1604 -0.4049  0.0148
10573DOPC   C3B49309  24.210   7.002  10.537  0.1419  0.2971  0.1857
10573DOPC   C4B49310  23.795   6.743  10.463 -0.2719 -0.0550  0.1809
10574DOPC   NC349311   8.262   1.754  19.506  0.1543 -0.2524 -0.2205
10574DOPC   PO449312   7.896   2.021  19.365 -0.0890  0.3668  0.0239
10574DOPC   GL149313   8.079   2.040  18.865 -0.3410  0.0606 -0.4596
10574DOPC   GL249314   8.150   2.334  18.776 -0.1012 -0.1789  0.0031
10574DOPC   C1A49315   8.178   1.877  18.419  0.0609 -0.1434 -0.1116
10574DOPC   D2A49316   8.390   2.101  18.102  0.3188 -0.1206 -0.3927
10574DOPC   C3A49317   8.772   2.250  18.121 -0.2624  0.1803  0.0707
10574DOPC   C4A49318   8.985   2.395  17.804  0.1314 -0.1041 -0.0990
10574DOPC   C1B49319   8.523   2.291  18.529  0.1891  0.0721  0.0015
10574DOPC   D2B49320   8.750   2.050  18.570 -0.2651 -0.3211  0.2962
10574DOPC   C3B49321   9.191   2.051  18.391 -0.1810  0.0271  0.2502
10574DOPC   C4B49322   9.377   1.972  18.008 -0.1140  0.0762  0.0561
10575DOPC   NC349323  11.506  23.694  22.716  0.0062 -0.0942 -0.0078
10575DOPC   PO449324  11.812  23.774  22.391  0.0505  0.0700  0.0199
10575DOPC   GL149325  11.718  23.734  21.986  0.0485  0.1195  0.0792
10575DOPC   GL249326  11.674  24.074  21.782 -0.1468 -0.1683  0.0882
10575DOPC   C1A49327  11.782  23.600  21.469 -0.1237 -0.3950  0.0120
10575DOPC   D2A49328  11.804  23.422  20.994  0.0999  0.0220 -0.2824
10575DOPC   C3A49329  11.883  23.067  20.832 -0.1402 -0.1643 -0.0076
10575DOPC   C4A49330  12.145  22.832  20.520  0.1570  0.0048  0.1438
10575DOPC   C1B49331  11.571  24.020  21.450 -0.4070  0.0097 -0.0889
10575DOPC   D2B49332  11.755  23.937  21.062 -0.0705  0.1020  0.1375
10575DOPC   C3B49333  11.719  23.987  20.625  0.0236  0.2462 -0.2188
10575DOPC   C4B49334  11.630  24.003  20.254  0.3176 -0.0949  0.1179
10576DOPC   NC349335   7.710  34.654  20.992  0.3633  0.6252 -0.1010
10576DOPC   PO449336   7.967  34.320  20.703 -0.1927  0.0301 -0.1228
10576DOPC   GL149337   8.184  34.086  20.444  0.4890  0.1975 -0.0300
10576DOPC   GL249338   8.157  33.776  20.269  0.1050  0.1118 -0.0205
10576DOPC   C1A49339   8.556  34.087  20.063 -0.0129  0.1805 -0.3601
10576DOPC   D2A49340   8.880  34.262  19.910  0.1653  0.1018  0.0547
10576DOPC   C3A49341   8.745  34.625  19.930  0.3595 -0.1128  0.0305
10576DOPC   C4A49342   8.616  35.000  19.670  0.2130  0.0074 -0.0353
10576DOPC   C1B49343   8.437  33.673  19.867 -0.0482  0.1676  0.0283
10576DOPC   D2B49344   8.826  33.702  19.679  0.0118 -0.1327  0.1491
10576DOPC   C3B49345   8.914  33.472  19.370 -0.2514  0.0383 -0.2475
10576DOPC   C4B49346   9.296  33.292  19.217  0.2643 -0.0797 -0.4382
10577DOPC   NC349347  16.048  21.636  20.778  0.2591 -0.0678 -0.2547
10577DOPC   PO449348  15.735  21.665  21.143 -0.3401  0.3929  0.2762
10577DOPC   GL149349  15.580  21.826  20.849  0.1443  0.3090 -0.0110
10577DOPC   GL249350  15.602  22.166  20.915 -0.2924  0.0625  0.0184
10577DOPC   C1A49351  15.471  21.737  20.394  0.0655 -0.4181 -0.2401
10577DOPC   D2A49352  15.296  21.599  19.982  0.0298 -0.1800 -0.0038
10577DOPC   C3A49353  15.147  21.918  19.763 -0.1411  0.0014  0.0509
10577DOPC   C4A49354  15.166  22.262  19.428 -0.0325 -0.2586  0.3757
10577DOPC   C1B49355  15.633  22.236  20.474 -0.2606 -0.2478  0.0270
10577DOPC   D2B49356  15.577  22.054  20.027  0.5389 -0.1770  0.1080
10577DOPC   C3B49357  15.450  22.346  19.824  0.1880 -0.0204  0.2997
10577DOPC   C4B49358  15.494  22.650  19.456  0.3073  0.4005  0.1815
10578DOPC   NC349359  22.503  11.713  13.510  0.1995  0.1672  0.0300
10578DOPC   PO449360  22.582  12.194  13.415  0.0014 -0.1118 -0.0220
10578DOPC   GL149361  22.446  12.108  13.059 -0.0589 -0.0807 -0.1200
10578DOPC   GL249362  22.400  12.252  12.736 -0.1243 -0.0830  0.0194
10578DOPC   C1A49363  22.265  11.806  12.695  0.1170  0.0962 -0.2105
10578DOPC   D2A49364  21.949  12.005  12.405  0.0667 -0.1494 -0.3251
10578DOPC   C3A49365  22.014  12.379  12.300  0.0541  0.1298  0.0520
10578DOPC   C4A49366  22.392  12.571  12.417  0.3044 -0.1161  0.1711
10578DOPC   C1B49367  21.973  12.141  12.891 -0.2498 -0.1918  0.0310
10578DOPC   D2B49368  21.515  12.119  12.881 -0.0253  0.2394  0.0659
10578DOPC   C3B49369  21.402  12.055  12.559  0.0256  0.2069  0.1194
10578DOPC   C4B49370  21.186  12.150  12.277  0.1560  0.1164 -0.1719
10579DOPC   NC349371  18.856  27.130  18.700  0.2205 -0.0420  0.2965
10579DOPC   PO449372  19.253  27.290  18.428  0.2661 -0.0976  0.2897
10579DOPC   GL149373  18.878  27.447  18.272  0.0546 -0.0011  0.0154
10579DOPC   GL249374  18.722  27.732  18.220 -0.0774 -0.0485  0.2459
10579DOPC   C1A49375  18.552  27.335  17.902  0.2508 -0.1695 -0.0239
10579DOPC   D2A49376  18.358  27.072  17.571 -0.3044  0.0130  0.0323
10579DOPC   C3A49377  18.065  26.726  17.488 -0.3394 -0.3161 -0.3272
10579DOPC   C4A49378  17.889  26.402  17.251 -0.0885  0.1780  0.0870
10579DOPC   C1B49379  18.434  27.904  18.009  0.0890  0.1657  0.0393
10579DOPC   D2B49380  18.087  28.084  17.642 -0.4323 -0.1657 -0.0984
10579DOPC   C3B49381  17.886  27.840  17.349 -0.3223  0.0589 -0.2140
10579DOPC   C4B49382  17.633  27.863  17.112  0.2359 -0.0710 -0.1993
10580DOPC   NC349383   4.940  24.729  19.672  0.0069 -0.0537 -0.1604
10580DOPC   PO449384   5.206  24.504  19.897 -0.1939 -0.0613  0.2128
10580DOPC   GL149385   5.640  24.677  19.756  0.5892  0.1194  0.3655
10580DOPC   GL249386   5.521  24.838  19.465  0.1916  0.1269 -0.1348
10580DOPC   C1A49387   5.899  24.525  19.549  0.1702  0.1075 -0.0170
10580DOPC   D2A49388   5.956  24.564  19.183 -0.0791  0.2674  0.0957
10580DOPC   C3A49389   5.939  24.721  18.793 -0.3134 -0.1044  0.3309
10580DOPC   C4A49390   5.788  24.755  18.423  0.1182 -0.0411  0.0716
10580DOPC   C1B49391   5.557  24.964  19.162  0.2624 -0.3023  0.0600
10580DOPC   D2B49392   5.454  25.069  18.765  0.1304 -0.3199  0.2729
10580DOPC   C3B49393   5.697  25.231  18.530  0.0274  0.2624 -0.1599
10580DOPC   C4B49394   5.982  25.351  18.285  0.1593  0.1199  0.2131
10581DOPC   NC349395  16.304  11.088  19.138 -0.1865 -0.0911  0.0248
10581DOPC   PO449396  16.491  10.901  18.772  0.2134  0.1897  0.2856
10581DOPC   GL149397  16.445  10.987  18.298  0.0644 -0.2450 -0.0818
10581DOPC   GL249398  16.635  11.082  18.005 -0.2212 -0.0997 -0.0006
10581DOPC   C1A49399  15.972  11.024  18.105 -0.1825 -0.0434 -0.4481
10581DOPC   D2A49400  15.609  11.137  18.124  0.0057 -0.1073  0.0451
10581DOPC   C3A49401  15.500  11.472  17.840  0.2262 -0.3363 -0.2485
10581DOPC   C4A49402  15.417  11.702  17.569 -0.0740  0.1746  0.1727
10581DOPC   C1B49403  16.789  10.986  17.684 -0.0273  0.3460 -0.4374
10581DOPC   D2B49404  16.829  11.117  17.259  0.0261  0.4012 -0.0750
10581DOPC   C3B49405  16.529  10.935  16.964 -0.2540 -0.1318  0.1363
10581DOPC   C4B49406  16.392  10.592  16.739  0.1131  0.1331 -0.0298
10582DOPC   NC349407  10.349  31.526  21.085 -0.0420 -0.0813 -0.0159
10582DOPC   PO449408  10.507  31.193  21.265  0.0351  0.1442  0.0578
10582DOPC   GL149409  10.471  31.051  20.867 -0.1413  0.1576  0.2670
10582DOPC   GL249410  10.449  30.716  20.904 -0.0609  0.2313  0.2508
10582DOPC   C1A49411  10.774  30.847  20.503  0.1707  0.0191  0.2936
10582DOPC   D2A49412  10.688  30.787  20.088  0.2425 -0.0590 -0.5281
10582DOPC   C3A49413  10.737  30.713  19.763 -0.3021 -0.0893  0.1978
10582DOPC   C4A49414  10.604  30.381  19.585 -0.0955  0.1725 -0.3033
10582DOPC   C1B49415  10.284  30.787  20.470 -0.0600 -0.0454 -0.2542
10582DOPC   D2B49416  10.061  30.780  20.031  0.1013 -0.2411  0.2338
10582DOPC   C3B49417  10.251  30.743  19.627  0.0491  0.2640  0.0645
10582DOPC   C4B49418  10.302  30.568  19.170  0.2401  0.0115  0.1680
10583DOPC   NC349419  17.863  31.962  17.201  0.1695  0.1890  0.1263
10583DOPC   PO449420  17.675  31.915  16.781  0.1822 -0.0320 -0.1032
10583DOPC   GL149421  17.405  31.813  16.539  0.0646  0.0011  0.1000
10583DOPC   GL249422  17.160  31.659  16.753 -0.0383  0.3868 -0.0465
10583DOPC   C1A49423  17.042  31.874  16.336  0.0124 -0.0272  0.2597
10583DOPC   D2A49424  16.965  31.991  15.892 -0.3893  0.1140 -0.0178
10583DOPC   C3A49425  16.508  31.964  15.678  0.1498  0.2650  0.0763
10583DOPC   C4A49426  16.393  32.051  15.314  0.3730 -0.2774  0.0577
10583DOPC   C1B49427  16.786  31.481  16.516 -0.3448 -0.0843  0.3382
10583DOPC   D2B49428  16.470  31.535  16.419 -0.1183  0.0644  0.3843
10583DOPC   C3B49429  16.517  31.875  16.184  0.0733  0.0757  0.0115
10583DOPC   C4B49430  16.216  32.152  15.996  0.1064 -0.0667  0.1005
10584DOPC   NC349431  15.393  33.904  19.351 -0.1012 -0.0894  0.1904
10584DOPC   PO449432  15.732  33.782  19.155 -0.5314  0.1238  0.1970
10584DOPC   GL149433  15.657  33.458  18.824 -0.3411 -0.0388 -0.2078
10584DOPC   GL249434  15.645  33.681  18.407 -0.1547  0.1570  0.1174
10584DOPC   C1A49435  15.542  33.088  18.854 -0.3382  0.0292 -0.0565
10584DOPC   D2A49436  15.654  32.571  18.872  0.1412 -0.2046 -0.0138
10584DOPC   C3A49437  15.454  32.206  18.983  0.0625 -0.1746  0.1564
10584DOPC   C4A49438  15.320  31.819  19.094 -0.0945 -0.3385  0.1332
10584DOPC   C1B49439  15.216  33.791  18.404 -0.1770 -0.2616 -0.1190
10584DOPC   D2B49440  15.019  34.184  18.454  0.2761 -0.0208  0.1984
10584DOPC   C3B49441  14.681  34.300  18.557 -0.0726  0.0256 -0.2027
10584DOPC   C4B49442  14.222  34.226  18.315 -0.1076 -0.0414 -0.0559
10585DOPC   NC349443  35.205  27.811  14.375 -0.0749 -0.0064 -0.2442
10585DOPC   PO449444   0.041  27.640  14.761  0.0471  0.0875 -0.0612
10585DOPC   GL149445   0.329  27.817  14.548  0.0167  0.3297 -0.1156
10585DOPC   GL249446   0.306  27.977  14.299 -0.0986 -0.2256  0.0140
10585DOPC   C1A49447   0.822  27.792  14.434 -0.3005 -0.2049 -0.0161
10585DOPC   D2A49448   1.107  27.990  14.299 -0.0583  0.1283  0.1330
10585DOPC   C3A49449   1.112  28.126  13.950  0.1740 -0.1132 -0.2251
10585DOPC   C4A49450   1.086  28.273  13.634  0.0975 -0.1602  0.2216
10585DOPC   C1B49451   0.701  28.264  14.250  0.2744  0.0322  0.1573
10585DOPC   D2B49452   0.681  28.552  13.917  0.0227  0.3476 -0.1465
10585DOPC   C3B49453   0.688  28.679  13.464 -0.2994 -0.1452  0.0561
10585DOPC   C4B49454   0.604  28.996  13.121 -0.1721  0.2056 -0.0332
10586DOPC   NC349455   8.750   5.957  18.595 -0.0313  0.1406  0.0137
10586DOPC   PO449456   8.942   6.336  18.427  0.3777  0.2732  0.3927
10586DOPC   GL149457   8.834   6.617  18.030  0.1606 -0.3678  0.0519
10586DOPC   GL249458   9.074   6.859  17.962  0.1090 -0.3179  0.3375
10586DOPC   C1A49459   8.806   6.537  17.533  0.0465 -0.0109  0.0245
10586DOPC   D2A49460   8.868   6.499  17.121 -0.1658  0.0007  0.0559
10586DOPC   C3A49461   8.837   6.373  16.697 -0.3097  0.0008 -0.0769
10586DOPC   C4A49462   9.086   6.076  16.553 -0.0552  0.1227 -0.1088
10586DOPC   C1B49463   9.088   7.043  17.683  0.1903 -0.0030  0.2048
10586DOPC   D2B49464   9.188   6.802  17.324  0.0863  0.2613 -0.0225
10586DOPC   C3B49465   9.623   6.652  17.246  0.0538  0.2027  0.2490
10586DOPC   C4B49466   9.869   6.340  16.904 -0.3014  0.1505  0.2016
10587DOPC   NC349467   1.455  27.838  17.096 -0.0721 -0.0467 -0.3256
10587DOPC   PO449468   1.362  27.409  16.910 -0.2045 -0.0303  0.0321
10587DOPC   GL149469   1.584  27.813  16.613  0.0960 -0.0891  0.0752
10587DOPC   GL249470   1.404  27.747  16.270  0.0239  0.0039 -0.0687
10587DOPC   C1A49471   1.906  28.165  16.592  0.2621  0.2584  0.0203
10587DOPC   D2A49472   2.370  28.112  16.504  0.3697 -0.2969 -0.1852
10587DOPC   C3A49473   2.597  28.058  16.149 -0.1167 -0.3763  0.1318
10587DOPC   C4A49474   2.764  28.200  15.752  0.1726 -0.0943  0.0566
10587DOPC   C1B49475   1.815  27.947  16.173  0.0428 -0.0003  0.1405
10587DOPC   D2B49476   2.121  28.060  16.026  0.1586  0.0975 -0.3640
10587DOPC   C3B49477   2.236  28.232  15.463  0.1633  0.4161 -0.4018
10587DOPC   C4B49478   2.498  28.352  15.290  0.0575 -0.0696  0.3539
10588DOPC   NC349479  33.033   4.717  11.230 -0.0222 -0.0714 -0.1005
10588DOPC   PO449480  33.453   4.697  11.376  0.1394 -0.1736  0.1682
10588DOPC   GL149481  33.796   4.555  11.204 -0.1193 -0.2968  0.1504
10588DOPC   GL249482  34.099   4.299  11.387  0.0011 -0.1391  0.1413
10588DOPC   C1A49483  33.854   4.242  10.923 -0.0182  0.3236 -0.0317
10588DOPC   D2A49484  33.838   3.823  10.774 -0.2317 -0.3662 -0.0463
10588DOPC   C3A49485  33.869   3.725  10.337  0.0112 -0.1504 -0.0010
10588DOPC   C4A49486  33.649   3.458  10.010 -0.1288 -0.1304 -0.1842
10588DOPC   C1B49487  34.352   4.197  11.028  0.0831  0.0396  0.0924
10588DOPC   D2B49488  34.297   4.034  10.607  0.0446 -0.0090 -0.4141
10588DOPC   C3B49489  34.370   3.933  10.184 -0.1420 -0.2019  0.3567
10588DOPC   C4B49490  34.651   4.027   9.870 -0.3342 -0.2775 -0.0650
10589DOPC   NC349491  13.695  31.867  20.884  0.3822 -0.1285  0.0992
10589DOPC   PO449492  13.228  31.875  20.921  0.0837  0.0757 -0.3615
10589DOPC   GL149493  13.149  31.913  20.565  0.0514  0.0223 -0.3648
10589DOPC   GL249494  13.156  32.136  20.377  0.0664 -0.0473 -0.2302
10589DOPC   C1A49495  13.229  31.562  20.160  0.4017  0.0151  0.0214
10589DOPC   D2A49496  13.523  31.186  20.036 -0.1705  0.4168 -0.1989
10589DOPC   C3A49497  13.550  30.987  19.585 -0.1155  0.1379  0.4007
10589DOPC   C4A49498  13.410  30.690  19.238  0.1292 -0.1429  0.3098
10589DOPC   C1B49499  13.344  32.007  19.956 -0.1424 -0.1675  0.1559
10589DOPC   D2B49500  13.427  32.027  19.520 -0.0288  0.2205 -0.0579
10589DOPC   C3B49501  13.776  31.987  19.368  0.2848  0.3372 -0.1765
10589DOPC   C4B49502  14.072  31.771  19.094  0.2450 -0.0866  0.1872
10590DOPC   NC349503   1.114  17.895   9.423  0.1056  0.1975  0.0104
10590DOPC   PO449504   1.127  17.473   9.399 -0.1472 -0.1533  0.2025
10590DOPC   GL149505   1.502  17.620   9.191  0.1151  0.0349  0.1140
10590DOPC   GL249506   1.430  17.592   8.774  0.1317 -0.0507 -0.0350
10590DOPC   C1A49507   1.853  17.431   9.139  0.0685 -0.2396  0.1680
10590DOPC   D2A49508   2.230  17.389   9.281 -0.0918  0.3058  0.0938
10590DOPC   C3A49509   2.609  17.264   9.063  0.0135  0.3207 -0.1934
10590DOPC   C4A49510   2.971  17.155   9.105  0.0357  0.0180  0.1843
10590DOPC   C1B49511   1.833  17.703   8.735  0.0504  0.0418  0.3546
10590DOPC   D2B49512   2.248  17.470   8.736  0.0062 -0.0103 -0.2047
10590DOPC   C3B49513   2.505  17.203   8.523 -0.2642 -0.0982  0.0730
10590DOPC   C4B49514   2.772  17.033   8.300 -0.0685 -0.2609 -0.2357
10591DOPC   NC349515  21.602   5.347  15.882 -0.0632  0.0990  0.0210
10591DOPC   PO449516  21.543   5.532  15.448  0.0963 -0.1959  0.0789
10591DOPC   GL149517  21.420   5.651  14.993  0.1173  0.1296 -0.3233
10591DOPC   GL249518  21.659   5.783  14.793 -0.1093  0.3043  0.1344
10591DOPC   C1A49519  21.214   5.980  14.756 -0.0184 -0.5244  0.0518
10591DOPC   D2A49520  21.155   6.242  14.442 -0.7250 -0.1038  0.0714
10591DOPC   C3A49521  20.965   6.310  14.076 -0.1789 -0.0157 -0.1419
10591DOPC   C4A49522  20.712   6.551  13.686 -0.1673  0.2139  0.0395
10591DOPC   C1B49523  21.444   5.803  14.354  0.1841 -0.1723 -0.3658
10591DOPC   D2B49524  21.216   5.839  14.204 -0.1743 -0.0816 -0.1569
10591DOPC   C3B49525  21.273   5.920  13.848  0.0493 -0.4251  0.1932
10591DOPC   C4B49526  21.533   5.785  13.558  0.1310  0.2608  0.0537
10592DOPC   NC349527  18.722  14.061  17.600 -0.0541  0.0321  0.0392
10592DOPC   PO449528  18.250  14.066  17.469 -0.1116 -0.0663 -0.2403
10592DOPC   GL149529  18.121  14.349  17.047  0.0665  0.0756 -0.2072
10592DOPC   GL249530  18.344  14.521  17.038  0.1737 -0.1379 -0.1623
10592DOPC   C1A49531  17.749  14.296  16.797 -0.1617  0.3784  0.1448
10592DOPC   D2A49532  17.521  14.508  16.548  0.1103  0.0807 -0.4113
10592DOPC   C3A49533  17.049  14.427  16.306 -0.3354 -0.0770  0.2308
10592DOPC   C4A49534  16.786  14.585  15.903 -0.1974  0.0553 -0.0772
10592DOPC   C1B49535  17.909  14.759  16.738  0.4714  0.0665 -0.2880
10592DOPC   D2B49536  17.771  14.914  16.344  0.0031  0.0432 -0.1063
10592DOPC   C3B49537  17.970  14.937  15.938  0.1395  0.0430 -0.2252
10592DOPC   C4B49538  17.923  15.106  15.583  0.1587  0.0534  0.0936
10593DOPC   NC349539  31.100  30.069  11.276  0.1470  0.4910 -0.0367
10593DOPC   PO449540  30.987  29.816  10.965 -0.2296  0.3393  0.2288
10593DOPC   GL149541  31.018  30.189  10.664 -0.2240 -0.6459  0.1608
10593DOPC   GL249542  31.005  29.901  10.430 -0.1539  0.0496 -0.0919
10593DOPC   C1A49543  31.141  30.391  10.248 -0.0190  0.0988 -0.0383
10593DOPC   D2A49544  31.231  30.684  10.081  0.1248 -0.1543 -0.0290
10593DOPC   C3A49545  31.498  30.711   9.619 -0.3263 -0.2877  0.3799
10593DOPC   C4A49546  31.647  31.101   9.265 -0.2679 -0.1125 -0.0021
10593DOPC   C1B49547  31.405  29.973  10.189 -0.1690 -0.1011  0.2054
10593DOPC   D2B49548  31.459  30.279   9.864  0.0862 -0.1856 -0.2553
10593DOPC   C3B49549  31.723  30.253   9.529 -0.0726 -0.0879  0.1623
10593DOPC   C4B49550  31.883  30.493   9.177 -0.1076  0.0810  0.0848
10594DOPC   NC349551   7.112  20.284  20.171 -0.2781  0.2147 -0.2784
10594DOPC   PO449552   7.287  19.850  20.209 -0.2877 -0.5258 -0.2587
10594DOPC   GL149553   7.660  20.125  20.001  0.0597 -0.1292 -0.0165
10594DOPC   GL249554   7.950  20.176  20.087 -0.2535 -0.0354 -0.0527
10594DOPC   C1A49555   7.955  20.498  19.747  0.1958  0.0148  0.0738
10594DOPC   D2A49556   8.254  20.797  19.522  0.2423 -0.1908 -0.2196
10594DOPC   C3A49557   8.287  20.849  19.113  0.2785  0.1041 -0.3421
10594DOPC   C4A49558   8.571  20.908  18.765  0.1200 -0.3318  0.3795
10594DOPC   C1B49559   8.296  20.162  19.854  0.2175 -0.1735  0.2056
10594DOPC   D2B49560   8.560  20.333  19.602 -0.0889 -0.0925 -0.1438
10594DOPC   C3B49561   8.776  20.663  19.458 -0.0118  0.0580  0.1883
10594DOPC   C4B49562   8.675  21.020  19.328 -0.0368 -0.2919 -0.1084
10595DOPC   NC349563  20.364  25.753  16.885 -0.2828  0.1357  0.1433
10595DOPC   PO449564  20.062  25.552  17.116  0.1801  0.1462  0.0896
10595DOPC   GL149565  19.585  25.669  17.113  0.0445 -0.3302 -0.0243
10595DOPC   GL249566  19.600  25.916  17.213 -0.1320 -0.0228 -0.0243
10595DOPC   C1A49567  19.067  25.680  17.027  0.0588  0.0287  0.1141
10595DOPC   D2A49568  18.705  25.610  16.686 -0.1225  0.1440  0.0438
10595DOPC   C3A49569  18.772  25.798  16.289 -0.1970  0.1602 -0.2280
10595DOPC   C4A49570  18.821  25.807  15.889 -0.0352  0.3440 -0.0827
10595DOPC   C1B49571  19.179  26.208  17.298  0.0466 -0.0536 -0.0198
10595DOPC   D2B49572  18.790  26.387  17.312 -0.0294 -0.0624  0.1330
10595DOPC   C3B49573  18.409  26.323  17.148  0.0898  0.2371  0.1157
10595DOPC   C4B49574  18.153  26.199  16.901  0.5846 -0.0391  0.0689
10596DOPC   NC349575  11.310  19.580  21.129 -0.1527 -0.2288 -0.0197
10596DOPC   PO449576  11.313  19.967  21.459  0.2746 -0.1387 -0.0517
10596DOPC   GL149577  11.375  20.208  21.202  0.0632 -0.1709 -0.2114
10596DOPC   GL249578  11.709  20.447  21.170  0.1113  0.3057 -0.1217
10596DOPC   C1A49579  11.178  20.402  20.909  0.4640 -0.3086  0.1042
10596DOPC   D2A49580  11.253  20.648  20.557  0.1163 -0.0132  0.0293
10596DOPC   C3A49581  10.918  20.896  20.284 -0.1865 -0.2022  0.0240
10596DOPC   C4A49582  10.595  20.798  20.189  0.0154 -0.0167  0.3350
10596DOPC   C1B49583  11.716  20.448  20.833  0.1395 -0.0319  0.1789
10596DOPC   D2B49584  11.614  20.345  20.320 -0.1858 -0.0143 -0.1151
10596DOPC   C3B49585  11.920  20.222  20.127 -0.3505 -0.2731  0.3346
10596DOPC   C4B49586  12.272  20.016  19.827  0.1515 -0.0202 -0.1583
10597DOPC   NC349587  18.039  32.393  16.580  0.1782  0.1374  0.2458
10597DOPC   PO449588  17.843  32.418  16.928 -0.1546 -0.0661  0.3286
10597DOPC   GL149589  17.383  32.458  16.773  0.0315  0.1554 -0.1839
10597DOPC   GL249590  17.572  32.549  16.499 -0.2987  0.3494  0.0148
10597DOPC   C1A49591  17.078  32.269  16.661  0.0483 -0.0657  0.0665
10597DOPC   D2A49592  16.717  31.970  16.730  0.0513  0.3352 -0.1261
10597DOPC   C3A49593  16.312  31.933  16.652 -0.0395  0.2265  0.3746
10597DOPC   C4A49594  15.974  31.715  16.371 -0.0352  0.0955  0.0138
10597DOPC   C1B49595  17.346  32.841  16.164  0.1025 -0.0210  0.6625
10597DOPC   D2B49596  17.018  33.096  16.028 -0.0269 -0.3899  0.1958
10597DOPC   C3B49597  16.653  33.055  16.052 -0.0885 -0.1438  0.0413
10597DOPC   C4B49598  16.343  33.011  15.788  0.0911 -0.0719 -0.0344
10598DOPC   NC349599  25.215   9.771  11.797 -0.0847 -0.1606  0.0203
10598DOPC   PO449600  24.897  10.163  11.770 -0.1738  0.2243  0.0950
10598DOPC   GL149601  24.444  10.090  11.710 -0.1737 -0.0910 -0.0460
10598DOPC   GL249602  24.147  10.072  11.890 -0.1397  0.1193  0.2504
10598DOPC   C1A49603  24.058  10.172  11.438  0.0878 -0.0451  0.4520
10598DOPC   D2A49604  23.840   9.948  11.198 -0.1522  0.1108 -0.3836
10598DOPC   C3A49605  23.392   9.639  11.058  0.1098  0.0279 -0.3686
10598DOPC   C4A49606  22.941   9.544  11.059  0.4185  0.1336  0.0328
10598DOPC   C1B49607  23.724   9.832  11.840 -0.1081 -0.0594  0.0234
10598DOPC   D2B49608  23.365   9.682  11.756  0.0818  0.0969 -0.3029
10598DOPC   C3B49609  23.214   9.376  11.466 -0.1718  0.1707  0.1809
10598DOPC   C4B49610  23.395   9.096  11.134 -0.3709  0.1295  0.1037
10599DOPC   NC349611  17.314  19.825  19.495 -0.2173  0.1816 -0.1229
10599DOPC   PO449612  16.906  19.859  19.725  0.2777  0.1493 -0.1045
10599DOPC   GL149613  16.770  20.129  19.368 -0.0889 -0.1145 -0.0921
10599DOPC   GL249614  16.946  20.363  19.139  0.3971 -0.0251 -0.0641
10599DOPC   C1A49615  16.626  19.944  18.994  0.3522  0.0246 -0.2730
10599DOPC   D2A49616  16.344  20.082  18.687  0.0363  0.2385 -0.3652
10599DOPC   C3A49617  16.127  20.270  18.382  0.0648 -0.1679  0.1815
10599DOPC   C4A49618  16.158  20.607  18.113 -0.1280  0.4978 -0.0595
10599DOPC   C1B49619  16.787  20.676  18.884 -0.1489  0.0621 -0.1174
10599DOPC   D2B49620  16.547  20.722  18.466  0.1182  0.2714  0.1188
10599DOPC   C3B49621  16.392  20.997  18.180 -0.0400  0.4314 -0.0231
10599DOPC   C4B49622  16.548  21.381  17.904 -0.0439  0.0098 -0.0600
10600DOPC   NC349623  20.567  10.380  16.582 -0.0669  0.1279  0.2747
10600DOPC   PO449624  20.741  10.494  16.187 -0.2561  0.0871 -0.1513
10600DOPC   GL149625  20.639  10.507  15.783  0.0009 -0.0234 -0.0746
10600DOPC   GL249626  20.453  10.300  15.743 -0.4113 -0.3198  0.0775
10600DOPC   C1A49627  20.153  10.574  15.504  0.0799 -0.0535 -0.5001
10600DOPC   D2A49628  19.893  10.767  15.232 -0.0056 -0.4673  0.1617
10600DOPC   C3A49629  19.753  10.489  14.858 -0.1335 -0.0352  0.2076
10600DOPC   C4A49630  19.696  10.365  14.516  0.0804  0.0040 -0.2380
10600DOPC   C1B49631  20.424  10.210  15.318 -0.0986  0.1098 -0.0963
10600DOPC   D2B49632  20.183  10.376  15.012 -0.0310 -0.3136  0.0807
10600DOPC   C3B49633  20.177  10.396  14.562  0.1763  0.0261 -0.0529
10600DOPC   C4B49634  20.096  10.208  14.158  0.2760 -0.2300  0.0339
10601DOPC   NC349635  29.610  27.375   8.572 -0.0960 -0.0615  0.0997
10601DOPC   PO449636  29.249  27.093   8.494 -0.2273  0.0726 -0.1044
10601DOPC   GL149637  29.353  27.294   8.058  0.2692  0.0816 -0.0546
10601DOPC   GL249638  29.696  27.333   8.058  0.0472 -0.1501 -0.0385
10601DOPC   C1A49639  29.224  27.613   7.754  0.2745 -0.0137  0.1427
10601DOPC   D2A49640  29.301  27.877   7.527 -0.0145 -0.1326  0.0861
10601DOPC   C3A49641  29.122  27.972   7.190 -0.0611  0.0189 -0.0016
10601DOPC   C4A49642  29.027  28.321   6.924  0.0943  0.0756  0.0668
10601DOPC   C1B49643  29.723  27.608   7.650  0.0315  0.0371 -0.0249
10601DOPC   D2B49644  29.919  27.874   7.358 -0.2025  0.1640  0.1161
10601DOPC   C3B49645  29.627  28.000   7.111 -0.0774 -0.1660 -0.0443
10601DOPC   C4B49646  29.429  28.005   6.780 -0.1595  0.2388 -0.1081
10602DOPC   NC349647   4.377  26.891  19.944 -0.0484 -0.0996  0.0826
10602DOPC   PO449648   4.577  26.606  20.090 -0.1376 -0.3741  0.0961
10602DOPC   GL149649   4.769  26.525  19.737 -0.4171 -0.1129  0.2609
10602DOPC   GL249650   4.995  26.749  19.672  0.1202 -0.3006 -0.0564
10602DOPC   C1A49651   4.836  26.380  19.368 -0.0814  0.2022  0.1183
10602DOPC   D2A49652   4.743  26.054  19.101  0.0303  0.2829  0.1890
10602DOPC   C3A49653   4.918  25.835  18.795 -0.0701  0.2851  0.0999
10602DOPC   C4A49654   4.707  25.732  18.394  0.1622 -0.1461 -0.2662
10602DOPC   C1B49655   5.325  26.748  19.455 -0.2036  0.2771 -0.0339
10602DOPC   D2B49656   5.600  26.452  19.166  0.4128 -0.0372  0.0237
10602DOPC   C3B49657   5.986  26.531  19.041 -0.0793  0.2827 -0.3892
10602DOPC   C4B49658   6.176  26.231  18.714  0.0149  0.1144  0.0231
10603DOPC   NC349659  31.278   4.587  11.113  0.0736 -0.2529 -0.1662
10603DOPC   PO449660  31.477   4.197  10.940 -0.1763 -0.0337 -0.0201
10603DOPC   GL149661  31.403   3.964  10.624 -0.1795  0.0581 -0.2493
10603DOPC   GL249662  31.079   4.011  10.397  0.2129  0.0153 -0.4127
10603DOPC   C1A49663  31.626   3.867  10.226 -0.1032 -0.0716  0.1265
10603DOPC   D2A49664  32.123   3.861  10.096  0.0281  0.3907 -0.1414
10603DOPC   C3A49665  32.264   3.854   9.603  0.0601  0.2114  0.0968
10603DOPC   C4A49666  32.433   3.893   9.211 -0.0456 -0.1449 -0.1376
10603DOPC   C1B49667  31.236   4.035   9.907 -0.0457  0.3727 -0.0778
10603DOPC   D2B49668  31.607   4.028   9.688  0.0971 -0.0273  0.0024
10603DOPC   C3B49669  31.829   3.662   9.692 -0.1273 -0.0628  0.0510
10603DOPC   C4B49670  31.928   3.271   9.856  0.0664  0.2280  0.0750
10604DOPC   NC349671  12.211  27.872  21.859  0.0246  0.3848  0.3111
10604DOPC   PO449672  12.561  27.687  21.949  0.1635 -0.0861  0.0914
10604DOPC   GL149673  12.786  27.544  21.556  0.0471  0.0099  0.1291
10604DOPC   GL249674  12.663  27.304  21.435 -0.2238  0.1864  0.2412
10604DOPC   C1A49675  13.048  27.644  21.130 -0.1156  0.2106 -0.2256
10604DOPC   D2A49676  13.223  27.674  20.762 -0.0512 -0.0009 -0.0156
10604DOPC   C3A49677  13.145  27.769  20.348  0.2068 -0.1917 -0.0781
10604DOPC   C4A49678  13.177  27.792  19.881  0.1432 -0.1858 -0.2895
10604DOPC   C1B49679  12.711  27.269  20.962  0.1549 -0.1580  0.1038
10604DOPC   D2B49680  12.497  27.207  20.609  0.1184 -0.0647  0.0254
10604DOPC   C3B49681  12.771  26.966  20.169  0.2755  0.0252  0.3018
10604DOPC   C4B49682  13.224  27.008  19.960  0.0745  0.2985 -0.0711
10605DOPC   NC349683   7.492  12.405  18.123 -0.1389 -0.1494  0.1699
10605DOPC   PO449684   7.312  12.643  17.779 -0.2229  0.3358  0.0210
10605DOPC   GL149685   7.579  12.808  17.430  0.2864 -0.3297  0.3125
10605DOPC   GL249686   7.869  12.782  17.378 -0.0774  0.1423 -0.1743
10605DOPC   C1A49687   7.479  12.727  16.964  0.0881 -0.2593 -0.1233
10605DOPC   D2A49688   7.673  12.460  16.668 -0.2939  0.2681 -0.0813
10605DOPC   C3A49689   7.977  12.387  16.393 -0.2147  0.0981  0.5307
10605DOPC   C4A49690   8.213  12.568  16.066  0.2080  0.0676 -0.4764
10605DOPC   C1B49691   7.897  12.393  17.117  0.3183  0.1775  0.0927
10605DOPC   D2B49692   8.312  12.134  16.951  0.3156  0.0970 -0.1494
10605DOPC   C3B49693   8.332  12.034  16.526 -0.2947  0.3805  0.0586
10605DOPC   C4B49694   8.484  12.155  16.131 -0.2715  0.1787  0.0327
10606DOPC   NC349695  34.495   9.417  10.534 -0.1373  0.0547 -0.1001
10606DOPC   PO449696  34.235   9.331  10.143  0.3432 -0.3257  0.2669
10606DOPC   GL149697  34.522   9.218   9.743 -0.2578 -0.0390 -0.2481
10606DOPC   GL249698  34.755   9.252   9.932  0.5154  0.1909 -0.0714
10606DOPC   C1A49699  34.745   8.912   9.404 -0.1563  0.4138 -0.2772
10606DOPC   D2A49700  34.969   8.570   9.287  0.0622 -0.1868 -0.1555
10606DOPC   C3A49701  34.990   8.430   8.976  0.0828  0.2630  0.0703
10606DOPC   C4A49702  35.263   8.243   8.661  0.0017  0.1039  0.2641
10606DOPC   C1B49703  34.957   8.766   9.805  0.2661  0.3061 -0.0565
10606DOPC   D2B49704  34.869   8.367   9.743 -0.2763  0.2111  0.1238
10606DOPC   C3B49705  35.030   8.110   9.383  0.2539 -0.0995  0.1325
10606DOPC   C4B49706  35.175   7.815   8.957 -0.3370  0.0694  0.1736
10607DOPC   NC349707   2.746  18.321  12.710 -0.0905 -0.2017  0.0427
10607DOPC   PO449708   3.178  18.422  12.817  0.0210  0.0161  0.1565
10607DOPC   GL149709   3.516  18.229  12.791  0.1030  0.0246 -0.3192
10607DOPC   GL249710   3.580  18.062  13.095  0.0208 -0.2019  0.3024
10607DOPC   C1A49711   3.835  18.224  12.596  0.2638 -0.0208 -0.0466
10607DOPC   D2A49712   4.082  18.154  12.340 -0.0744 -0.2685  0.1798
10607DOPC   C3A49713   4.442  18.102  12.409 -0.1431  0.2634  0.0928
10607DOPC   C4A49714   4.770  18.344  12.545  0.0941  0.1968  0.1992
10607DOPC   C1B49715   4.070  17.984  13.115 -0.2187  0.0208  0.1515
10607DOPC   D2B49716   4.328  17.800  13.331 -0.1174 -0.0516 -0.0504
10607DOPC   C3B49717   4.865  17.881  13.322  0.0196 -0.0733  0.0406
10607DOPC   C4B49718   5.148  17.987  13.464  0.0088 -0.1117 -0.0064
10608DOPC   NC349719  19.769  15.760  17.243 -0.0445  0.2993 -0.2037
10608DOPC   PO449720  19.371  15.663  17.086 -0.2071  0.1053 -0.1431
10608DOPC   GL149721  19.486  15.865  16.747  0.0979 -0.0059 -0.0401
10608DOPC   GL249722  19.451  16.225  16.646  0.2018  0.1252  0.4268
10608DOPC   C1A49723  19.370  15.823  16.330  0.0992  0.1207 -0.2110
10608DOPC   D2A49724  19.396  16.151  16.045  0.1233 -0.2153  0.0110
10608DOPC   C3A49725  19.009  16.346  15.848 -0.2006  0.0683  0.0724
10608DOPC   C4A49726  18.770  16.381  15.557 -0.2820 -0.2734 -0.1645
10608DOPC   C1B49727  19.053  16.338  16.413 -0.0704 -0.0321 -0.2958
10608DOPC   D2B49728  18.822  16.711  16.381  0.0213 -0.0099 -0.2551
10608DOPC   C3B49729  18.654  16.907  15.919  0.1057 -0.0093  0.1138
10608DOPC   C4B49730  18.432  16.879  15.672  0.0882 -0.1002 -0.0236
10609DOPC   NC349731  12.218  17.077  19.205  0.1878 -0.0976  0.3314
10609DOPC   PO449732  11.806  17.093  19.398  0.2748  0.2935  0.0248
10609DOPC   GL149733  11.767  17.359  18.995 -0.2885  0.0389 -0.2249
10609DOPC   GL249734  11.695  17.253  18.579  0.2569 -0.1548 -0.0199
10609DOPC   C1A49735  11.946  17.694  18.831  0.1363  0.1856 -0.0537
10609DOPC   D2A49736  12.106  18.167  18.845 -0.1283  0.2793  0.1559
10609DOPC   C3A49737  12.390  18.442  19.021  0.0844  0.0664 -0.2130
10609DOPC   C4A49738  12.728  18.653  19.025 -0.1436  0.1147 -0.1918
10609DOPC   C1B49739  11.790  17.517  18.322  0.0983  0.0406 -0.2122
10609DOPC   D2B49740  11.852  17.824  18.028 -0.1374  0.1298 -0.1147
10609DOPC   C3B49741  11.621  18.229  18.022 -0.0550  0.1221  0.2506
10609DOPC   C4B49742  11.448  18.518  17.825 -0.0475 -0.1289  0.1008
10610DOPC   NC349743   6.910  19.152  19.498  0.2097 -0.2057 -0.2358
10610DOPC   PO449744   7.206  18.812  19.558  0.5441 -0.3045 -0.0872
10610DOPC   GL149745   7.618  18.984  19.342 -0.0700 -0.1559 -0.2291
10610DOPC   GL249746   7.456  19.286  19.108 -0.2391 -0.1525  0.0460
10610DOPC   C1A49747   7.963  18.955  18.921  0.0545  0.0034 -0.2219
10610DOPC   D2A49748   8.414  18.984  18.798  0.2722 -0.1819 -0.0861
10610DOPC   C3A49749   8.484  19.309  18.569 -0.3830  0.1310  0.1239
10610DOPC   C4A49750   8.364  19.623  18.519 -0.2013 -0.1110  0.1189
10610DOPC   C1B49751   7.403  19.640  18.826  0.0969 -0.0814 -0.0439
10610DOPC   D2B49752   7.400  19.967  18.428  0.1789  0.1980  0.0694
10610DOPC   C3B49753   7.678  20.307  18.410 -0.1222 -0.0399  0.1147
10610DOPC   C4B49754   8.048  20.417  18.162  0.1759 -0.1452  0.2825
10611DOPC   NC349755  27.371  18.269   4.446 -0.1237 -0.0691  0.1077
10611DOPC   PO449756  27.670  18.316   4.181  0.0116  0.1872 -0.0469
10611DOPC   GL149757  27.359  18.284   3.899  0.0517  0.1157 -0.1265
10611DOPC   GL249758  27.260  17.882   4.003 -0.0130 -0.3409  0.0268
10611DOPC   C1A49759  27.132  18.122   3.528 -0.0863  0.2503 -0.0004
10611DOPC   D2A49760  26.954  18.012   3.144  0.0908  0.0187 -0.0636
10611DOPC   C3A49761  26.956  18.228   2.732 -0.0195  0.0590 -0.0721
10611DOPC   C4A49762  27.069  18.329   2.310  0.1147 -0.0625  0.2503
10611DOPC   C1B49763  27.013  17.678   3.687 -0.1958  0.1631  0.0483
10611DOPC   D2B49764  26.810  17.500   3.441  0.4946 -0.0051  0.3654
10611DOPC   C3B49765  26.778  17.473   2.880  0.2042  0.2858 -0.3909
10611DOPC   C4B49766  26.553  17.265   2.609 -0.1949  0.0673 -0.3351
10612DOPC   NC349767  22.410  19.736  14.172  0.0318 -0.0499 -0.0973
10612DOPC   PO449768  22.544  19.481  13.782 -0.0117 -0.1820  0.1173
10612DOPC   GL149769  22.221  19.618  13.712  0.1890 -0.0200 -0.0238
10612DOPC   GL249770  21.942  19.433  13.700 -0.0575 -0.0323  0.0744
10612DOPC   C1A49771  22.201  19.865  13.249  0.3840 -0.1540  0.2379
10612DOPC   D2A49772  22.092  19.898  12.868 -0.1902 -0.1813  0.1012
10612DOPC   C3A49773  21.738  19.926  12.792  0.1005 -0.1941  0.1975
10612DOPC   C4A49774  21.416  19.796  12.508  0.1524  0.3877  0.2398
10612DOPC   C1B49775  21.644  19.294  13.458  0.2297  0.0536 -0.3240
10612DOPC   D2B49776  21.328  19.462  13.326  0.0347  0.1137  0.0281
10612DOPC   C3B49777  21.057  19.222  13.131  0.0496 -0.1199 -0.1413
10612DOPC   C4B49778  20.939  18.883  12.922 -0.0755 -0.1945 -0.1294
10613DOPC   NC349779  23.214   9.991  14.453  0.0043 -0.2890  0.0722
10613DOPC   PO449780  23.227  10.153  13.968 -0.0906  0.1316 -0.0949
10613DOPC   GL149781  22.921   9.988  13.712  0.0862  0.0104 -0.1055
10613DOPC   GL249782  22.774  10.285  13.760  0.3824 -0.2121  0.0096
10613DOPC   C1A49783  22.611   9.766  13.687 -0.0912  0.0328 -0.1314
10613DOPC   D2A49784  22.465   9.538  13.369 -0.1008 -0.0576  0.2160
10613DOPC   C3A49785  21.948   9.528  13.187  0.4459  0.1459 -0.0481
10613DOPC   C4A49786  21.504   9.469  13.265  0.0196  0.1946  0.0582
10613DOPC   C1B49787  22.297  10.182  13.676  0.0860 -0.0687  0.1360
10613DOPC   D2B49788  22.122   9.808  13.614  0.0325 -0.1490 -0.1338
10613DOPC   C3B49789  21.747   9.840  13.543 -0.3171 -0.4131  0.0239
10613DOPC   C4B49790  21.403   9.709  13.711  0.1837 -0.1596 -0.0525
10614DOPC   NC349791  18.438   4.978  17.017  0.0725 -0.1767 -0.1629
10614DOPC   PO449792  18.269   5.437  16.849  0.2077  0.0970  0.1256
10614DOPC   GL149793  18.010   5.698  16.565  0.3034 -0.2262  0.0695
10614DOPC   GL249794  17.746   5.886  16.839  0.1715 -0.1307  0.1518
10614DOPC   C1A49795  17.933   5.823  16.198  0.3569 -0.1685  0.1731
10614DOPC   D2A49796  17.814   6.017  15.873 -0.0116 -0.0242  0.0681
10614DOPC   C3A49797  18.034   6.027  15.570  0.3205  0.1340  0.4234
10614DOPC   C4A49798  18.313   5.883  15.385 -0.0193 -0.3202 -0.0848
10614DOPC   C1B49799  17.518   5.753  16.464 -0.2339  0.1213  0.1287
10614DOPC   D2B49800  17.120   5.738  16.319  0.0804  0.0650 -0.0447
10614DOPC   C3B49801  16.873   5.959  15.984  0.3123  0.1052  0.1517
10614DOPC   C4B49802  16.612   6.258  15.663 -0.1013  0.1230  0.1901
10615DOPC   NC349803  22.630   1.879  12.966  0.0115 -0.0340  0.0578
10615DOPC   PO449804  22.588   1.556  12.581  0.1093  0.0292  0.2773
10615DOPC   GL149805  22.531   1.924  12.373  0.5656 -0.0347  0.0926
10615DOPC   GL249806  22.774   2.049  12.226  0.0492 -0.0967 -0.1187
10615DOPC   C1A49807  22.270   2.051  12.052  0.0956  0.0879  0.1455
10615DOPC   D2A49808  21.952   1.944  11.691  0.1489 -0.2830 -0.0951
10615DOPC   C3A49809  21.924   2.279  11.371  0.2150 -0.0228  0.1070
10615DOPC   C4A49810  21.727   2.260  10.915 -0.4062  0.1771  0.1625
10615DOPC   C1B49811  22.743   2.258  11.776  0.1814  0.0580 -0.3428
10615DOPC   D2B49812  22.439   2.171  11.559 -0.2948 -0.1357 -0.2903
10615DOPC   C3B49813  22.412   1.786  11.583 -0.1090  0.0491  0.1687
10615DOPC   C4B49814  22.662   1.736  11.874  0.1252 -0.4228 -0.0309
10616DOPC   NC349815  28.741  26.676   7.786 -0.4239  0.1229 -0.0793
10616DOPC   PO449816  28.445  26.287   7.903 -0.1689  0.0471  0.0717
10616DOPC   GL149817  28.378  26.553   7.445 -0.3527  0.1914 -0.1251
10616DOPC   GL249818  28.096  26.690   7.331  0.1862 -0.1418  0.1652
10616DOPC   C1A49819  28.496  26.786   7.059  0.0750 -0.4782  0.1613
10616DOPC   D2A49820  28.313  27.003   6.780 -0.0151 -0.0628 -0.0037
10616DOPC   C3A49821  28.540  27.404   6.719  0.0871 -0.1863  0.0043
10616DOPC   C4A49822  28.512  27.658   6.333  0.1555  0.2106  0.0818
10616DOPC   C1B49823  27.848  26.721   6.975 -0.0630 -0.1715 -0.0096
10616DOPC   D2B49824  27.806  27.031   6.638 -0.1642  0.2638 -0.0983
10616DOPC   C3B49825  27.732  27.171   6.225 -0.0182 -0.1930 -0.0857
10616DOPC   C4B49826  27.891  27.524   5.899 -0.1529 -0.1714 -0.0376
10617DOPC   NC349827  16.766  15.347  18.220 -0.0030 -0.1485 -0.3374
10617DOPC   PO449828  16.968  15.720  18.220 -0.1244  0.0825  0.1925
10617DOPC   GL149829  16.904  15.688  17.794  0.0679  0.0062  0.0250
10617DOPC   GL249830  16.612  15.698  17.881  0.1808 -0.0420  0.1269
10617DOPC   C1A49831  16.657  15.744  17.381 -0.0886  0.0347  0.2405
10617DOPC   D2A49832  16.404  15.814  17.034  0.0519 -0.0655  0.1314
10617DOPC   C3A49833  16.133  15.800  16.686  0.0848  0.2774 -0.1406
10617DOPC   C4A49834  15.885  15.484  16.392  0.1561 -0.0248 -0.1338
10617DOPC   C1B49835  16.290  15.533  17.684 -0.1918  0.5203 -0.3550
10617DOPC   D2B49836  16.133  15.568  17.317 -0.0411  0.0161 -0.2935
10617DOPC   C3B49837  15.802  15.581  17.191 -0.0784 -0.4984  0.0528
10617DOPC   C4B49838  15.660  15.763  16.781 -0.2230 -0.1973  0.0374
10618DOPC   NC349839  24.567  18.071   9.657  0.0279 -0.2225  0.2437
10618DOPC   PO449840  24.527  18.287   9.204 -0.1282 -0.1445  0.0401
10618DOPC   GL149841  24.189  18.273   9.427 -0.0766  0.2925  0.1318
10618DOPC   GL249842  24.039  18.201   9.063 -0.0141 -0.1253  0.1529
10618DOPC   C1A49843  23.720  18.323   9.465  0.2503  0.0487  0.0787
10618DOPC   D2A49844  23.377  18.044   9.549  0.0472 -0.1147 -0.1672
10618DOPC   C3A49845  22.936  18.094   9.518  0.3591 -0.0541  0.0431
10618DOPC   C4A49846  22.593  18.062   9.204 -0.1568  0.0838 -0.1460
10618DOPC   C1B49847  23.672  18.177   8.912 -0.1187  0.2390  0.1520
10618DOPC   D2B49848  23.386  18.387   8.683  0.0364 -0.2331 -0.0474
10618DOPC   C3B49849  22.959  18.638   8.654 -0.0931  0.0811  0.1447
10618DOPC   C4B49850  22.484  18.763   8.602  0.0763 -0.2876 -0.1351
10619DOPC   NC349851  21.550  34.443  13.126  0.1406  0.0534  0.3012
10619DOPC   PO449852  21.302  34.579  12.790 -0.2233  0.3441 -0.1920
10619DOPC   GL149853  21.141  34.656  12.426  0.3671 -0.0332 -0.3326
10619DOPC   GL249854  20.858  34.386  12.326 -0.1871 -0.1796  0.2476
10619DOPC   C1A49855  20.987  34.787  12.075  0.2200  0.2561  0.0659
10619DOPC   D2A49856  20.754  34.765  11.862 -0.0554 -0.1544 -0.0499
10619DOPC   C3A49857  20.692  34.834  11.439 -0.1854 -0.0765 -0.2350
10619DOPC   C4A49858  20.484  35.023  11.112  0.1519  0.3003 -0.1966
10619DOPC   C1B49859  20.576  34.280  11.961 -0.2071  0.0138  0.0721
10619DOPC   D2B49860  20.310  34.330  11.530  0.1025 -0.0939  0.2422
10619DOPC   C3B49861  20.400  34.497  11.076  0.1464 -0.1865 -0.0058
10619DOPC   C4B49862  20.672  34.740  10.743 -0.1219  0.0895 -0.1792
10620DOPC   NC349863  34.893   7.651  11.378  0.1282  0.5069  0.0223
10620DOPC   PO449864  35.226   7.353  11.234  0.0745  0.1134  0.0667
10620DOPC   GL149865   0.021   7.238  10.783 -0.2205 -0.1709 -0.3242
10620DOPC   GL249866  35.200   7.297  10.667 -0.0537 -0.0658 -0.3680
10620DOPC   C1A49867   0.268   7.204  10.343 -0.2622  0.0469  0.2364
10620DOPC   D2A49868   0.336   7.141   9.992  0.1924  0.0366  0.1187
10620DOPC   C3A49869   0.597   6.933   9.823 -0.1206 -0.0390 -0.1878
10620DOPC   C4A49870   0.561   6.817   9.305  0.1511  0.0993  0.0705
10620DOPC   C1B49871  35.280   7.387  10.121 -0.1314  0.0699  0.2312
10620DOPC   D2B49872  35.190   7.163   9.788 -0.0675 -0.3945  0.0063
10620DOPC   C3B49873  34.894   7.257   9.579  0.2956  0.1096  0.0594
10620DOPC   C4B49874  34.498   7.177   9.332 -0.2149 -0.2390 -0.3433
10621DOPC   NC349875   1.331  15.586  10.320 -0.1528 -0.2616  0.1684
10621DOPC   PO449876   1.660  15.614  10.694  0.2051 -0.0628  0.1729
10621DOPC   GL149877   2.049  15.773  10.724 -0.1757  0.1781  0.1137
10621DOPC   GL249878   2.275  15.704  10.986 -0.0361  0.1096 -0.1638
10621DOPC   C1A49879   2.369  15.982  10.489  0.2577 -0.1870  0.0005
10621DOPC   D2A49880   2.729  15.913  10.274  0.1003 -0.0367 -0.0289
10621DOPC   C3A49881   3.120  16.212  10.193 -0.0170 -0.0191  0.1119
10621DOPC   C4A49882   3.056  16.512  10.234  0.2553 -0.0232  0.0631
10621DOPC   C1B49883   2.650  15.661  10.831  0.1032 -0.0563 -0.1272
10621DOPC   D2B49884   3.025  15.652  10.626 -0.1113 -0.1394  0.2143
10621DOPC   C3B49885   3.257  15.607  10.338 -0.2224  0.0570  0.0353
10621DOPC   C4B49886   3.558  15.858  10.087  0.0115 -0.0158  0.2366
10622DOPC   NC349887  16.172  31.598  19.732 -0.0405 -0.0638 -0.0403
10622DOPC   PO449888  15.750  31.510  19.713  0.0409  0.0657  0.1886
10622DOPC   GL149889  15.430  31.436  19.396 -0.1895 -0.1827  0.0056
10622DOPC   GL249890  15.343  31.186  19.470  0.1289  0.0503  0.1626
10622DOPC   C1A49891  15.351  31.318  18.958 -0.0875 -0.0232 -0.3544
10622DOPC   D2A49892  15.078  31.154  18.724 -0.0725 -0.1477 -0.2263
10622DOPC   C3A49893  14.925  31.100  18.423 -0.0595  0.2173 -0.1661
10622DOPC   C4A49894  14.913  31.389  18.114  0.1298  0.0943  0.1682
10622DOPC   C1B49895  15.163  30.849  19.147  0.2349 -0.0133  0.1552
10622DOPC   D2B49896  14.948  30.624  18.818  0.2127  0.0067 -0.1108
10622DOPC   C3B49897  15.019  30.585  18.419 -0.0071 -0.2879  0.2914
10622DOPC   C4B49898  14.882  30.766  18.065  0.1910 -0.1131 -0.1043
10623DOPC   NC349899   1.659  16.698  10.612  0.1691 -0.0328  0.1057
10623DOPC   PO449900   1.956  16.914  10.520 -0.1188 -0.4737  0.1532
10623DOPC   GL149901   2.143  16.814  10.200 -0.0594 -0.1328  0.0080
10623DOPC   GL249902   1.798  16.525  10.145  0.1403 -0.1244 -0.0367
10623DOPC   C1A49903   2.261  16.580   9.840  0.0891  0.2261 -0.2020
10623DOPC   D2A49904   2.140  16.324   9.502 -0.0914 -0.3120 -0.1159
10623DOPC   C3A49905   2.349  16.305   9.201  0.1150  0.1534 -0.2010
10623DOPC   C4A49906   2.255  16.095   8.826 -0.0583  0.2670  0.1872
10623DOPC   C1B49907   2.095  16.130  10.031  0.0540  0.3964 -0.3697
10623DOPC   D2B49908   2.288  15.644   9.832 -0.0166 -0.0414  0.2587
10623DOPC   C3B49909   2.592  15.612   9.554 -0.2284  0.2075 -0.2160
10623DOPC   C4B49910   3.068  15.426   9.461  0.0021  0.1900 -0.1525
10624DOPC   NC349911  33.765   4.698  11.814 -0.0837 -0.2898 -0.0194
10624DOPC   PO449912  34.168   4.718  11.647 -0.1564  0.1574  0.2103
10624DOPC   GL149913  34.552   4.478  11.587 -0.3809 -0.1973  0.0739
10624DOPC   GL249914  34.667   4.253  11.737  0.0461 -0.2442  0.0640
10624DOPC   C1A49915  34.783   4.149  11.269  0.2066 -0.0557  0.4294
10624DOPC   D2A49916  34.815   3.908  10.967 -0.2342  0.1426  0.0895
10624DOPC   C3A49917  34.883   3.839  10.507  0.5509 -0.3258  0.2172
10624DOPC   C4A49918  34.685   3.546  10.213  0.2326  0.0392 -0.1082
10624DOPC   C1B49919  34.407   3.919  11.543  0.2415 -0.3871  0.3492
10624DOPC   D2B49920  34.335   3.403  11.510  0.0325  0.2333  0.2239
10624DOPC   C3B49921  34.531   3.163  11.139  0.0965 -0.0135  0.2915
10624DOPC   C4B49922  34.540   2.979  10.692  0.1193  0.2832  0.1422
10625DOPC   NC349923  25.254  11.005   9.860 -0.1262  0.1142 -0.0380
10625DOPC   PO449924  25.350  11.151   9.465  0.1285 -0.2810 -0.2934
10625DOPC   GL149925  24.874  11.212   9.604 -0.0777 -0.2699  0.1678
10625DOPC   GL249926  24.811  11.569   9.636 -0.3068 -0.1243 -0.2503
10625DOPC   C1A49927  24.614  11.083   9.951  0.0252  0.4457 -0.0128
10625DOPC   D2A49928  24.205  10.805  10.275 -0.0704  0.2065 -0.1543
10625DOPC   C3A49929  23.793  11.050  10.283 -0.1869  0.1299 -0.4233
10625DOPC   C4A49930  23.440  11.005  10.137  0.1106 -0.0696 -0.5107
10625DOPC   C1B49931  24.369  11.336   9.609  0.2439 -0.0237 -0.1535
10625DOPC   D2B49932  24.026  11.192   9.511 -0.0702 -0.1759  0.0618
10625DOPC   C3B49933  23.817  10.867   9.281 -0.1165 -0.2277 -0.1658
10625DOPC   C4B49934  23.545  10.614   9.120 -0.0957  0.4860 -0.2252
10626DOPC   NC349935  10.577  24.503  22.006  0.2807 -0.1842  0.1597
10626DOPC   PO449936  10.750  24.126  22.205  0.1405 -0.3283 -0.0629
10626DOPC   GL149937  10.802  24.092  21.766  0.2314 -0.0251  0.0603
10626DOPC   GL249938  10.698  23.889  21.526  0.1238 -0.2742 -0.1572
10626DOPC   C1A49939  11.071  24.232  21.377  0.0789  0.0754  0.2477
10626DOPC   D2A49940  11.257  24.070  20.963 -0.1124  0.0592  0.0899
10626DOPC   C3A49941  11.280  24.283  20.604 -0.0843  0.1553 -0.0937
10626DOPC   C4A49942  11.201  24.316  20.189  0.0666  0.0102  0.1647
10626DOPC   C1B49943  10.827  23.937  21.077 -0.0177  0.3788  0.0329
10626DOPC   D2B49944  10.927  23.941  20.595  0.1332  0.0615  0.0092
10626DOPC   C3B49945  10.729  24.171  20.303  0.0115 -0.2590 -0.0028
10626DOPC   C4B49946  10.593  24.490  20.095 -0.0624  0.0182 -0.0169
10627DOPC   NC349947  23.390  13.723  12.169 -0.1466 -0.0173  0.0740
10627DOPC   PO449948  23.379  14.105  12.327  0.3648  0.1083  0.0990
10627DOPC   GL149949  22.937  14.348  12.226  0.0457 -0.3079 -0.1989
10627DOPC   GL249950  22.739  14.044  12.234  0.2887  0.0844  0.0969
10627DOPC   C1A49951  22.574  14.443  12.020  0.1198 -0.1213 -0.2390
10627DOPC   D2A49952  22.087  14.489  11.940  0.3580 -0.2852  0.0342
10627DOPC   C3A49953  21.864  14.540  11.545 -0.0687  0.1191 -0.0616
10627DOPC   C4A49954  21.480  14.730  11.273 -0.0493  0.0609 -0.0794
10627DOPC   C1B49955  22.365  13.957  11.982 -0.0674 -0.3135 -0.3361
10627DOPC   D2B49956  22.099  13.845  11.618  0.0385 -0.1017 -0.0802
10627DOPC   C3B49957  21.675  14.117  11.639  0.1406  0.0621 -0.0804
10627DOPC   C4B49958  21.174  14.229  11.850  0.0657 -0.2321 -0.0062
10628DOPC   NC349959  10.759  23.079  22.492 -0.1250  0.0138  0.2880
10628DOPC   PO449960  11.040  22.774  22.238  0.0405 -0.1798 -0.1065
10628DOPC   GL149961  10.920  22.823  21.825 -0.0523 -0.0183 -0.0485
10628DOPC   GL249962  11.152  22.617  21.698  0.0226 -0.0655 -0.0359
10628DOPC   C1A49963  10.816  23.028  21.446  0.0711  0.0206  0.3224
10628DOPC   D2A49964  10.713  23.091  21.035  0.3175  0.2715  0.0463
10628DOPC   C3A49965  10.467  22.834  20.711  0.1817 -0.3349  0.1260
10628DOPC   C4A49966  10.098  22.634  20.479  0.0018  0.0619  0.1019
10628DOPC   C1B49967  11.577  22.535  21.593  0.1605  0.2984 -0.1582
10628DOPC   D2B49968  11.774  22.784  21.235  0.2118  0.0498  0.1084
10628DOPC   C3B49969  11.530  22.738  20.804 -0.1546  0.0009 -0.1082
10628DOPC   C4B49970  11.423  22.990  20.393  0.0699 -0.1193  0.0391
10629DOPC   NC349971   0.868   2.521  14.610 -0.0198  0.1595 -0.0399
10629DOPC   PO449972   1.337   2.494  14.338 -0.0177  0.0140 -0.0491
10629DOPC   GL149973   1.558   2.117  14.315 -0.0672  0.1044 -0.0819
10629DOPC   GL249974   1.803   1.986  14.451  0.4972  0.3329 -0.0608
10629DOPC   C1A49975   1.860   2.055  13.976  0.2558  0.1490  0.0716
10629DOPC   D2A49976   1.808   1.799  13.600 -0.0025 -0.0682 -0.0329
10629DOPC   C3A49977   2.137   1.655  13.317 -0.0567  0.0561 -0.1678
10629DOPC   C4A49978   2.531   1.810  13.214  0.0045 -0.0819  0.3402
10629DOPC   C1B49979   2.010   1.624  14.189  0.2289 -0.0417 -0.2785
10629DOPC   D2B49980   2.152   1.470  13.823  0.0989 -0.3917 -0.0240
10629DOPC   C3B49981   2.519   1.579  13.661 -0.0316  0.1409 -0.0098
10629DOPC   C4B49982   2.798   1.416  13.339 -0.1368 -0.0406 -0.2627
10630DOPC   NC349983  30.400  34.282  10.960  0.2394  0.2652 -0.3653
10630DOPC   PO449984  30.596  34.682  10.976  0.0205 -0.2274  0.1834
10630DOPC   GL149985  30.917  34.506  10.801 -0.1942  0.1424 -0.1325
10630DOPC   GL249986  31.044  34.774  10.631  0.1346  0.2876 -0.1757
10630DOPC   C1A49987  31.022  34.302  10.392 -0.0168  0.0475  0.1003
10630DOPC   D2A49988  31.228  34.271   9.979  0.0613  0.0148 -0.3789
10630DOPC   C3A49989  31.119  34.320   9.631 -0.1889 -0.0620  0.0457
10630DOPC   C4A49990  31.257  34.271   9.168 -0.1299  0.0598 -0.3973
10630DOPC   C1B49991  31.283  34.738  10.252  0.1795  0.0301 -0.1178
10630DOPC   D2B49992  31.425  34.785   9.844 -0.1222 -0.0010 -0.0850
10630DOPC   C3B49993  31.618  34.433   9.607 -0.2295 -0.2257  0.0296
10630DOPC   C4B49994  31.681  34.517   9.243 -0.0392  0.0404 -0.1207
10631DOPC   NC349995  25.580  13.502   8.119  0.1709  0.0523  0.2594
10631DOPC   PO449996  25.121  13.424   8.311 -0.2583 -0.0870  0.3109
10631DOPC   GL149997  24.690  13.369   8.293 -0.1666 -0.1526  0.0949
10631DOPC   GL249998  24.378  13.512   8.556  0.2376  0.1886 -0.1910
10631DOPC   C1A49999  24.316  13.373   8.127 -0.1852  0.1315  0.0564
10631DOPC   D2A50000  23.911  13.403   8.026 -0.2223  0.1487 -0.2938
10631DOPC   C3A50001  23.522  13.098   7.900  0.4231  0.0948  0.0117
10631DOPC   C4A50002  23.462  12.667   8.043  0.1256  0.1920 -0.0445
10631DOPC   C1B50003  23.971  13.536   8.549  0.2518 -0.0062  0.0124
10631DOPC   D2B50004  23.555  13.521   8.405  0.0564 -0.2912 -0.0594
10631DOPC   C3B50005  23.304  13.551   8.031 -0.3218 -0.1703 -0.0966
10631DOPC   C4B50006  23.135  13.347   7.601 -0.4134  0.1522  0.1508
10632DOPC   NC350007  17.326  31.185  18.811 -0.1138 -0.0552  0.0300
10632DOPC   PO450008  17.245  30.784  18.577 -0.0279  0.3037 -0.0341
10632DOPC   GL150009  17.177  30.607  18.194 -0.1550 -0.0395 -0.1546
10632DOPC   GL250010  17.395  30.334  18.026 -0.0218  0.1681  0.2597
10632DOPC   C1A50011  17.036  30.789  17.848  0.0033  0.0271 -0.0097
10632DOPC   D2A50012  17.009  30.825  17.401  0.0385  0.2427  0.1543
10632DOPC   C3A50013  16.583  30.731  17.347 -0.0510  0.1791 -0.0551
10632DOPC   C4A50014  16.349  30.348  17.369  0.0841  0.2943  0.0735
10632DOPC   C1B50015  17.362  30.441  17.507  0.4028  0.0115 -0.1414
10632DOPC   D2B50016  17.428  30.468  17.071 -0.1393 -0.0099  0.1873
10632DOPC   C3B50017  17.141  30.337  16.831 -0.3031 -0.2964 -0.0315
10632DOPC   C4B50018  16.969  30.297  16.395 -0.0087  0.0537 -0.0436
10633DOPC   NC350019  14.396  24.090  22.187  0.3285 -0.2891  0.1710
10633DOPC   PO450020  14.005  23.843  22.180  0.0574 -0.2336  0.0551
10633DOPC   GL150021  14.176  23.898  21.715 -0.2797 -0.2344 -0.1054
10633DOPC   GL250022  14.263  23.501  21.623 -0.1871  0.0260 -0.3259
10633DOPC   C1A50023  14.154  23.979  21.361  0.3363  0.1424 -0.0877
10633DOPC   D2A50024  14.195  23.890  20.950 -0.3465 -0.0467  0.1523
10633DOPC   C3A50025  13.894  23.850  20.611  0.0613 -0.2225  0.3858
10633DOPC   C4A50026  13.866  24.036  20.190  0.1510  0.4045 -0.1832
10633DOPC   C1B50027  14.471  23.526  21.242  0.0129  0.0996 -0.1179
10633DOPC   D2B50028  14.538  23.606  20.803 -0.3076 -0.1256  0.1345
10633DOPC   C3B50029  14.333  23.578  20.439  0.1065  0.3118  0.1711
10633DOPC   C4B50030  13.995  23.523  20.129  0.2901 -0.1815 -0.0678
10634DOPC   NC350031   1.528  19.274   8.513  0.1687  0.0118  0.4136
10634DOPC   PO450032   1.199  19.516   8.295 -0.2590 -0.0637 -0.1666
10634DOPC   GL150033   1.469  19.750   8.172  0.3104 -0.1223  0.3083
10634DOPC   GL250034   1.660  19.564   8.027  0.0341 -0.2178  0.0693
10634DOPC   C1A50035   1.796  20.087   8.109  0.1053 -0.2797 -0.0250
10634DOPC   D2A50036   2.004  20.086   7.712 -0.3944 -0.0494  0.0696
10634DOPC   C3A50037   2.143  19.849   7.432 -0.0142  0.3532 -0.3041
10634DOPC   C4A50038   2.411  19.677   7.133  0.1749  0.2023  0.4820
10634DOPC   C1B50039   1.703  19.729   7.733 -0.0641  0.3328 -0.0164
10634DOPC   D2B50040   1.663  19.646   7.278 -0.2346  0.1336  0.1556
10634DOPC   C3B50041   1.908  19.706   6.923  0.2024 -0.1548  0.0099
10634DOPC   C4B50042   2.089  19.892   6.777  0.2072 -0.0318  0.1932
10635DOPC   NC350043   3.788  22.913  17.374 -0.0890 -0.0045  0.3284
10635DOPC   PO450044   4.127  22.786  17.146  0.0708  0.1425 -0.2511
10635DOPC   GL150045   4.556  22.614  17.255 -0.1927 -0.0758 -0.0298
10635DOPC   GL250046   4.714  22.940  17.241  0.2110  0.0128  0.0851
10635DOPC   C1A50047   4.860  22.534  16.914 -0.1777 -0.3274  0.0519
10635DOPC   D2A50048   5.167  22.672  17.064 -0.2839  0.0434 -0.0392
10635DOPC   C3A50049   5.540  22.816  17.020  0.0838 -0.2207  0.0084
10635DOPC   C4A50050   5.718  23.115  16.843  0.4544  0.0733  0.0472
10635DOPC   C1B50051   5.085  23.115  17.370  0.1742  0.1171 -0.0962
10635DOPC   D2B50052   5.255  23.097  17.792 -0.2843 -0.2913 -0.1672
10635DOPC   C3B50053   5.333  23.402  18.081  0.2852  0.0219  0.0327
10635DOPC   C4B50054   5.473  23.579  18.421  0.1487  0.1083 -0.0118
10636DOPC   NC350055  27.029   2.185  10.764 -0.5477 -0.0395 -0.2143
10636DOPC   PO450056  26.636   2.259  10.526  0.1712  0.0693  0.0142
10636DOPC   GL150057  26.598   2.169  10.129 -0.1049  0.2963 -0.1385
10636DOPC   GL250058  26.795   2.242   9.961  0.1139  0.1953 -0.0802
10636DOPC   C1A50059  26.382   1.907   9.837 -0.0632 -0.0164 -0.0309
10636DOPC   D2A50060  26.238   1.944   9.393  0.1781  0.0457 -0.1613
10636DOPC   C3A50061  26.277   1.662   9.150  0.3806 -0.0579  0.4191
10636DOPC   C4A50062  26.228   1.282   8.925 -0.0869 -0.2504 -0.0820
10636DOPC   C1B50063  26.700   2.146   9.451 -0.3908 -0.0001  0.3286
10636DOPC   D2B50064  26.490   2.182   9.044 -0.3084 -0.0485  0.3248
10636DOPC   C3B50065  26.572   1.977   8.799 -0.1149  0.1062 -0.1038
10636DOPC   C4B50066  26.367   1.618   8.618 -0.1030 -0.3105  0.0707
10637DOPC   NC350067  21.275   6.780  15.620 -0.0410 -0.1476  0.1309
10637DOPC   PO450068  21.215   6.388  15.678 -0.0336  0.1847 -0.3207
10637DOPC   GL150069  20.879   6.498  15.451 -0.0904 -0.1113  0.1585
10637DOPC   GL250070  20.688   6.789  15.378 -0.1223  0.0805 -0.3051
10637DOPC   C1A50071  20.463   6.377  15.297 -0.2272 -0.1409  0.0926
10637DOPC   D2A50072  20.288   6.343  14.908  0.3027  0.3275 -0.0286
10637DOPC   C3A50073  19.913   6.598  14.656  0.1069 -0.4203  0.0146
10637DOPC   C4A50074  19.806   6.378  14.229  0.1665  0.0330  0.1528
10637DOPC   C1B50075  20.322   6.881  15.111 -0.3105 -0.0604 -0.4001
10637DOPC   D2B50076  19.890   7.132  15.058 -0.1464  0.1062 -0.0390
10637DOPC   C3B50077  19.952   7.062  14.670  0.2098  0.3213 -0.2844
10637DOPC   C4B50078  20.317   7.293  14.594  0.0768  0.0498  0.1335
10638DOPC   NC350079  16.910  12.162  19.140  0.0043 -0.0857 -0.3122
10638DOPC   PO450080  17.093  12.219  18.708  0.2390 -0.0147  0.1176
10638DOPC   GL150081  16.751  12.376  18.517  0.0630 -0.0489  0.2117
10638DOPC   GL250082  16.668  12.392  18.281  0.0838 -0.0721 -0.1050
10638DOPC   C1A50083  16.233  12.286  18.506  0.1670  0.0638  0.4586
10638DOPC   D2A50084  15.745  12.059  18.587 -0.0237 -0.0631 -0.1588
10638DOPC   C3A50085  15.352  12.139  18.375 -0.0861 -0.0710  0.1824
10638DOPC   C4A50086  15.095  12.366  18.050 -0.0283  0.0703 -0.2593
10638DOPC   C1B50087  16.473  12.385  17.808  0.5561 -0.1017  0.2156
10638DOPC   D2B50088  16.318  12.466  17.417 -0.2138  0.1213 -0.2899
10638DOPC   C3B50089  16.092  12.236  17.171 -0.3910 -0.0868 -0.0818
10638DOPC   C4B50090  16.260  11.911  16.940 -0.2032  0.1922 -0.2097
10639DOPC   NC350091  24.367  25.484  10.253 -0.0321  0.4473 -0.1635
10639DOPC   PO450092  24.620  25.460   9.924  0.1598  0.2036  0.1343
10639DOPC   GL150093  24.486  25.367   9.511 -0.2313  0.2154 -0.2082
10639DOPC   GL250094  24.377  25.680   9.342 -0.0162 -0.0261  0.2080
10639DOPC   C1A50095  24.181  25.172   9.279 -0.2305 -0.0306 -0.4181
10639DOPC   D2A50096  23.801  25.214   9.005  0.0815 -0.0437 -0.1855
10639DOPC   C3A50097  23.480  25.008   9.108  0.1960  0.0986 -0.0766
10639DOPC   C4A50098  23.104  25.089   9.161 -0.0538  0.2916  0.0256
10639DOPC   C1B50099  23.993  25.626   9.183  0.0265 -0.2988 -0.0241
10639DOPC   D2B50100  23.640  25.653   8.859  0.0914  0.4248  0.1790
10639DOPC   C3B50101  23.372  25.903   8.742 -0.3829  0.1183 -0.2440
10639DOPC   C4B50102  23.213  26.015   8.343 -0.0199  0.0135  0.1264
10640DOPC   NC350103   7.857   2.511  19.185 -0.1226  0.0811  0.1526
10640DOPC   PO450104   7.802   2.875  19.331  0.1105  0.0990 -0.1336
10640DOPC   GL150105   8.084   3.091  18.899 -0.0150  0.1072 -0.0265
10640DOPC   GL250106   7.954   3.320  18.694  0.0562  0.1331 -0.2395
10640DOPC   C1A50107   8.376   2.793  18.657 -0.0769 -0.0086 -0.0930
10640DOPC   D2A50108   8.603   2.761  18.297 -0.2056 -0.0258 -0.0927
10640DOPC   C3A50109   8.880   2.814  18.064  0.2394 -0.1109 -0.0974
10640DOPC   C4A50110   9.264   2.948  17.967 -0.5645  0.1753  0.3662
10640DOPC   C1B50111   7.711   3.202  18.342  0.1585 -0.2458  0.1028
10640DOPC   D2B50112   7.792   3.134  17.913  0.1658 -0.0081  0.0297
10640DOPC   C3B50113   7.915   2.869  17.648 -0.0321 -0.0473 -0.0785
10640DOPC   C4B50114   8.293   2.873  17.378 -0.0598 -0.0230  0.2716
10641PAPC   NC350115  19.487   5.319  16.910 -0.0702 -0.1190 -0.2450
10641PAPC   PO450116  19.438   5.456  16.491 -0.1622  0.1123 -0.0073
10641PAPC   GL150117  19.373   5.500  16.126  0.4940  0.0259  0.1946
10641PAPC   GL250118  19.186   5.169  16.000 -0.1197  0.0197 -0.0184
10641PAPC   D1A50119  19.137   5.600  15.695 -0.0973 -0.1378  0.1376
10641PAPC   D2A50120  18.909   5.796  15.995  0.0887 -0.1965  0.0978
10641PAPC   D3A50121  18.578   5.991  15.771  0.1086  0.0827 -0.3242
10641PAPC   D4A50122  18.884   6.006  15.457 -0.2397 -0.1549  0.0442
10641PAPC   C5A50123  18.768   6.204  15.093  0.1055  0.3582  0.2046
10641PAPC   C1B50124  19.144   5.048  15.547  0.1726 -0.0242  0.1117
10641PAPC   C2B50125  19.351   5.131  15.189 -0.2174  0.1054  0.0167
10641PAPC   C3B50126  19.156   5.282  14.753 -0.1279  0.0267  0.0025
10641PAPC   C4B50127  19.044   5.722  14.596  0.6356  0.1237 -0.0313
10642PAPC   NC350128   2.168  16.058  12.443  0.4382 -0.0541  0.0996
10642PAPC   PO450129   2.157  15.774  11.955  0.1373 -0.0494 -0.1335
10642PAPC   GL150130   2.365  15.540  12.264  0.1526  0.2584 -0.1353
10642PAPC   GL250131   2.530  15.424  12.094  0.0992  0.1708  0.0427
10642PAPC   D1A50132   2.753  15.343  12.556  0.0611  0.0464 -0.0196
10642PAPC   D2A50133   3.031  14.883  12.443 -0.0645 -0.0239 -0.0854
10642PAPC   D3A50134   3.424  15.031  12.532  0.2953 -0.0114 -0.1381
10642PAPC   D4A50135   3.562  14.726  12.621 -0.2163 -0.1077  0.3721
10642PAPC   C5A50136   3.666  14.323  12.617  0.2265 -0.0713 -0.2120
10642PAPC   C1B50137   2.917  15.204  12.035  0.2813 -0.0215 -0.1824
10642PAPC   C2B50138   3.323  15.137  12.045  0.0805  0.1351  0.3280
10642PAPC   C3B50139   3.685  15.061  12.105 -0.4343 -0.4821 -0.0844
10642PAPC   C4B50140   3.876  15.286  12.470  0.3496  0.0448 -0.1965
10643PAPC   NC350141   0.213   9.637  11.386 -0.0313 -0.0412 -0.1656
10643PAPC   PO450142   0.350   9.397  11.025  0.0177  0.4241 -0.1345
10643PAPC   GL150143   0.622   9.479  10.707 -0.0691 -0.2065 -0.1702
10643PAPC   GL250144   0.803   9.216  10.449  0.0581 -0.0773  0.0521
10643PAPC   D1A50145   0.766   9.737  10.372  0.3773  0.0297 -0.1223
10643PAPC   D2A50146   0.698  10.171  10.304 -0.0777  0.1412 -0.1727
10643PAPC   D3A50147   0.929  10.481  10.135  0.2732 -0.1075 -0.0073
10643PAPC   D4A50148   0.797  10.180   9.845 -0.2358  0.2399 -0.1202
10643PAPC   C5A50149   0.926  10.117   9.475  0.0059 -0.1972 -0.0243
10643PAPC   C1B50150   1.111   9.440  10.183 -0.3073 -0.3494 -0.0339
10643PAPC   C2B50151   1.546   9.422  10.156 -0.1744  0.3134 -0.1102
10643PAPC   C3B50152   1.806   9.598   9.905  0.3847 -0.1470 -0.1607
10643PAPC   C4B50153   1.849   9.635   9.465 -0.0359  0.0712 -0.1482
10644PAPC   NC350154  20.026  24.340  18.324  0.3440 -0.0267  0.3421
10644PAPC   PO450155  19.834  24.161  17.867 -0.1129  0.3140 -0.3777
10644PAPC   GL150156  19.610  24.305  17.454  0.3044  0.2401  0.0092
10644PAPC   GL250157  19.770  24.179  17.260 -0.1580 -0.1123 -0.1662
10644PAPC   D1A50158  19.646  24.722  17.304 -0.0635  0.0251 -0.3197
10644PAPC   D2A50159  19.207  24.870  17.176  0.1086  0.1885  0.2465
10644PAPC   D3A50160  19.046  25.181  16.902  0.0180  0.0289 -0.3953
10644PAPC   D4A50161  18.787  25.111  16.616  0.0868  0.0968 -0.0186
10644PAPC   C5A50162  18.677  24.901  16.177  0.4078 -0.1650 -0.0506
10644PAPC   C1B50163  19.388  24.376  17.016 -0.0950 -0.0172 -0.3212
10644PAPC   C2B50164  19.016  24.508  16.825 -0.0742 -0.1750  0.3163
10644PAPC   C3B50165  18.517  24.620  16.644 -0.4338  0.0566 -0.2505
10644PAPC   C4B50166  18.172  24.926  16.706  0.2511 -0.2279  0.0772
10645PAPC   NC350167   2.687   6.606  15.544  0.1939 -0.0920 -0.1978
10645PAPC   PO450168   3.075   6.604  15.335 -0.0431 -0.2935  0.0567
10645PAPC   GL150169   3.405   6.732  15.005 -0.3591 -0.2697  0.3351
10645PAPC   GL250170   3.534   6.315  14.918 -0.0109 -0.0720  0.0234
10645PAPC   D1A50171   3.800   6.851  15.156  0.0249  0.1397 -0.1338
10645PAPC   D2A50172   3.953   6.391  15.182 -0.3328 -0.0680 -0.0612
10645PAPC   D3A50173   4.350   6.441  15.342  0.1348  0.3982  0.0944
10645PAPC   D4A50174   4.744   6.419  15.037 -0.0381  0.0885  0.0570
10645PAPC   C5A50175   5.073   6.591  15.127 -0.0128 -0.2333  0.2104
10645PAPC   C1B50176   3.854   6.613  14.750  0.1825  0.0575 -0.1455
10645PAPC   C2B50177   4.308   6.688  14.929  0.0415  0.3195  0.3291
10645PAPC   C3B50178   4.573   6.880  15.214  0.2368 -0.2999  0.3305
10645PAPC   C4B50179   4.985   7.069  15.217 -0.1953  0.1044  0.2128
10646PAPC   NC350180  32.455   6.811  10.882  0.0779 -0.0416 -0.1010
10646PAPC   PO450181  32.490   6.786  10.474 -0.0655  0.2803 -0.0988
10646PAPC   GL150182  32.585   6.527  10.122 -0.0266 -0.0770 -0.2521
10646PAPC   GL250183  32.465   6.617   9.836 -0.0831  0.0414  0.3347
10646PAPC   D1A50184  32.601   6.082  10.174 -0.0287  0.0387  0.0204
10646PAPC   D2A50185  32.777   5.671  10.223  0.0182  0.1134  0.1828
10646PAPC   D3A50186  33.080   5.519  10.219  0.2913 -0.2871 -0.0617
10646PAPC   D4A50187  32.998   5.421   9.866  0.0678 -0.0462 -0.1246
10646PAPC   C5A50188  33.239   5.215   9.662 -0.1706 -0.0993 -0.0232
10646PAPC   C1B50189  32.451   6.729   9.469  0.1197 -0.0391  0.0531
10646PAPC   C2B50190  32.669   6.612   9.070 -0.0213 -0.0916 -0.2089
10646PAPC   C3B50191  32.767   6.570   8.680 -0.0445  0.3645  0.1351
10646PAPC   C4B50192  32.913   6.319   8.378 -0.1158  0.0972 -0.0655
10647PAPC   NC350193   6.130   4.900  18.484  0.2427 -0.0900 -0.0871
10647PAPC   PO450194   6.145   5.024  18.137  0.0622 -0.0675 -0.3535
10647PAPC   GL150195   6.192   4.774  17.742 -0.0360  0.2760 -0.0720
10647PAPC   GL250196   5.883   4.748  17.569 -0.0076  0.2982  0.2044
10647PAPC   D1A50197   6.363   4.403  17.628 -0.0436  0.0398  0.0906
10647PAPC   D2A50198   6.047   4.182  17.600 -0.2453 -0.1883 -0.1148
10647PAPC   D3A50199   5.917   3.916  17.274 -0.0593  0.2304 -0.2455
10647PAPC   D4A50200   6.281   4.002  17.180  0.1445  0.1268  0.1004
10647PAPC   C5A50201   6.556   3.952  17.451 -0.2209 -0.1997  0.1477
10647PAPC   C1B50202   6.133   4.928  17.238  0.1256  0.2662  0.0904
10647PAPC   C2B50203   6.326   4.805  16.945  0.0277  0.3354  0.0585
10647PAPC   C3B50204   6.548   4.786  16.668 -0.0731 -0.0569  0.0132
10647PAPC   C4B50205   6.646   4.536  16.342 -0.0258 -0.0361  0.0760
10648PAPC   NC350206  31.614   1.926  11.995  0.0308 -0.1267  0.1334
10648PAPC   PO450207  31.453   2.074  11.569 -0.0350  0.0497 -0.3154
10648PAPC   GL150208  31.576   1.802  11.219  0.0760 -0.0370 -0.0497
10648PAPC   GL250209  31.400   1.488  11.033  0.1307  0.0361 -0.0094
10648PAPC   D1A50210  31.877   1.423  11.145 -0.1993 -0.1423 -0.1545
10648PAPC   D2A50211  32.196   1.537  10.809 -0.0615  0.1727 -0.1665
10648PAPC   D3A50212  32.228   1.761  11.177  0.0083 -0.4219 -0.1331
10648PAPC   D4A50213  32.437   1.364  11.276  0.2181  0.1440 -0.2331
10648PAPC   C5A50214  32.641   1.065  11.215  0.0334 -0.2180 -0.1878
10648PAPC   C1B50215  31.352   1.872  10.768 -0.7234  0.1328  0.1846
10648PAPC   C2B50216  31.359   1.820  10.429  0.1060 -0.0750  0.0960
10648PAPC   C3B50217  31.331   1.602   9.967 -0.2009 -0.1499  0.0240
10648PAPC   C4B50218  31.138   1.580   9.544 -0.4363 -0.1395 -0.1304
10649DAPC   NC350219  23.651   6.554  13.674  0.1088  0.0422  0.3580
10649DAPC   PO450220  23.602   6.872  13.360 -0.0618 -0.0674 -0.0153
10649DAPC   GL150221  23.285   6.792  13.075 -0.1123  0.1626 -0.4127
10649DAPC   GL250222  23.461   6.608  12.836 -0.2581  0.1181  0.0009
10649DAPC   D1A50223  22.890   6.686  12.948 -0.1394 -0.1513 -0.0665
10649DAPC   D2A50224  23.051   6.560  12.563 -0.2152 -0.0949 -0.1079
10649DAPC   D3A50225  23.168   6.894  12.468 -0.1310  0.0165  0.0687
10649DAPC   D4A50226  22.814   6.984  12.499  0.0575  0.3250  0.1944
10649DAPC   C5A50227  22.549   6.750  12.218 -0.0044 -0.3520  0.0525
10649DAPC   D1B50228  23.471   6.138  12.788 -0.0457 -0.5584  0.1394
10649DAPC   D2B50229  23.539   5.794  12.781 -0.1452 -0.3770 -0.0170
10649DAPC   D3B50230  23.138   5.727  12.627  0.0942 -0.1975  0.1847
10649DAPC   D4B50231  23.027   6.031  12.567 -0.1787 -0.0870 -0.1698
10649DAPC   C5B50232  22.732   6.299  12.323 -0.3098  0.0783  0.0234
10650DAPC   NC350233  25.941   9.022  10.968  0.1174 -0.3409 -0.1186
10650DAPC   PO450234  25.546   8.931  10.802  0.1076 -0.0045  0.0748
10650DAPC   GL150235  25.206   9.225  10.669  0.2940  0.1739  0.1126
10650DAPC   GL250236  25.014   9.424  10.896 -0.4040  0.3835  0.0143
10650DAPC   D1A50237  24.747   9.288  10.506 -0.4131 -0.0069  0.1842
10650DAPC   D2A50238  24.322   9.288  10.369  0.0354  0.0770 -0.0342
10650DAPC   D3A50239  24.097   9.494  10.367  0.2086  0.2811  0.0205
10650DAPC   D4A50240  24.214   9.806  10.149 -0.3158 -0.4947 -0.0426
10650DAPC   C5A50241  23.920  10.097   9.945  0.2019 -0.0412 -0.2081
10650DAPC   D1B50242  24.783   9.766  10.884  0.2147  0.0515  0.1043
10650DAPC   D2B50243  24.468   9.702  10.689 -0.3261 -0.0103  0.1048
10650DAPC   D3B50244  24.421   9.873  11.209 -0.0962  0.4837 -0.1163
10650DAPC   D4B50245  24.113   9.715  11.578  0.3462 -0.2151  0.2906
10650DAPC   C5B50246  23.732   9.525  11.430 -0.1775 -0.1821  0.0880
10651DAPC   NC350247  17.243  22.308  21.151 -0.1628  0.0700  0.1538
10651DAPC   PO450248  16.834  22.504  21.145  0.0861  0.0185  0.0274
10651DAPC   GL150249  16.410  22.313  21.076  0.1518 -0.2003 -0.2334
10651DAPC   GL250250  16.265  22.008  21.055  0.0168 -0.1416 -0.0801
10651DAPC   D1A50251  16.037  22.495  21.041 -0.1084 -0.1397 -0.2716
10651DAPC   D2A50252  15.598  22.669  21.145 -0.0132  0.1429 -0.3979
10651DAPC   D3A50253  15.765  22.761  20.715 -0.2248 -0.3980 -0.1817
10651DAPC   D4A50254  15.366  22.669  20.488  0.0607  0.2316  0.0406
10651DAPC   C5A50255  15.287  22.728  20.060 -0.3409 -0.1874  0.1058
10651DAPC   D1B50256  16.388  22.059  20.661  0.0411  0.0689  0.1687
10651DAPC   D2B50257  16.049  21.967  20.411 -0.2135 -0.0746 -0.0203
10651DAPC   D3B50258  16.346  21.827  20.054 -0.0792  0.1545 -0.1082
10651DAPC   D4B50259  16.456  22.228  20.208  0.0968 -0.1760  0.0727
10651DAPC   C5B50260  16.509  22.546  19.772 -0.1164  0.0591  0.5063
10652DAPC   NC350261   8.574  34.227  21.260  0.0910  0.2246 -0.1626
10652DAPC   PO450262   8.878  34.073  20.987  0.0991 -0.0436 -0.2414
10652DAPC   GL150263   9.057  34.214  20.577  0.3968 -0.0726  0.0625
10652DAPC   GL250264   9.065  34.588  20.433  0.2068  0.1418  0.1930
10652DAPC   D1A50265   9.359  34.148  20.211 -0.1308 -0.0618  0.1021
10652DAPC   D2A50266   9.449  33.639  20.422 -0.0506 -0.2843  0.0925
10652DAPC   D3A50267   9.867  33.531  20.399  0.0228 -0.0965 -0.2175
10652DAPC   D4A50268   9.975  33.158  20.129 -0.0761  0.2912  0.1430
10652DAPC   C5A50269  10.081  33.104  19.743  0.2172  0.0388 -0.0419
10652DAPC   D1B50270   9.368  34.861  20.289 -0.3935  0.0271  0.1945
10652DAPC   D2B50271   9.507  34.772  19.821 -0.0122  0.0017  0.1632
10652DAPC   D3B50272   9.323  34.511  19.859 -0.1481  0.0189 -0.2289
10652DAPC   D4B50273   9.565  34.246  19.618  0.0471  0.1247 -0.0938
10652DAPC   C5B50274   9.441  33.794  19.535 -0.1166 -0.1348 -0.0936
10653DAPC   NC350275  17.257  19.968  20.384  0.0306 -0.2651  0.1609
10653DAPC   PO450276  17.195  20.200  20.033 -0.1179  0.2679 -0.0507
10653DAPC   GL150277  17.000  20.580  19.814 -0.0980 -0.2734 -0.1598
10653DAPC   GL250278  16.700  20.485  19.767 -0.2177  0.6559  0.0577
10653DAPC   D1A50279  16.781  21.036  19.724 -0.0774  0.2709 -0.2413
10653DAPC   D2A50280  16.777  21.273  19.325 -0.0669 -0.0424  0.1082
10653DAPC   D3A50281  17.113  21.274  19.472 -0.1717 -0.1691  0.1494
10653DAPC   D4A50282  17.483  21.204  19.284  0.1836  0.0889  0.1653
10653DAPC   C5A50283  17.553  21.074  18.824  0.0477 -0.2153  0.0585
10653DAPC   D1B50284  16.287  20.750  19.803 -0.0121  0.1817  0.0615
10653DAPC   D2B50285  16.049  21.132  19.919  0.3509 -0.0521 -0.1591
10653DAPC   D3B50286  16.411  21.301  19.833  0.0655  0.0335  0.3049
10653DAPC   D4B50287  16.465  21.602  19.557  0.0867 -0.0603 -0.3604
10653DAPC   C5B50288  16.432  22.026  19.490 -0.2182 -0.0397  0.1338
10654DAPC   NC350289  35.029  30.040  16.017 -0.2772  0.0312  0.0179
10654DAPC   PO450290  35.375  29.963  15.731  0.0378  0.3765  0.0793
10654DAPC   GL150291   0.249  30.254  15.585  0.1090  0.3020 -0.2076
10654DAPC   GL250292   0.215  30.211  15.162 -0.1099 -0.0458  0.1152
10654DAPC   D1A50293   0.654  30.456  15.449 -0.2262 -0.1397 -0.1533
10654DAPC   D2A50294   0.846  30.662  15.082 -0.2355  0.0641 -0.2093
10654DAPC   D3A50295   0.558  30.710  14.785 -0.0228 -0.1572 -0.1017
10654DAPC   D4A50296   0.684  30.522  14.486 -0.2966 -0.0412  0.0775
10654DAPC   C5A50297   1.047  30.324  14.573 -0.1320 -0.0412  0.0731
10654DAPC   D1B50298   0.176  30.612  15.129 -0.5025  0.1387 -0.3281
10654DAPC   D2B50299   0.113  30.494  14.676 -0.2368  0.0393  0.0455
10654DAPC   D3B50300  35.258  30.846  14.591  0.1280 -0.0606 -0.0899
10654DAPC   D4B50301   0.171  31.091  14.730 -0.0592  0.0606 -0.0146
10654DAPC   C5B50302   0.473  31.286  14.380 -0.0710  0.0756 -0.0041
10655DAPC   NC350303  14.364  22.468  22.326 -0.1231 -0.0851  0.1695
10655DAPC   PO450304  14.266  22.766  21.919 -0.1126 -0.0187 -0.2974
10655DAPC   GL150305  14.059  22.416  21.584  0.0400  0.1340 -0.0081
10655DAPC   GL250306  13.841  22.590  21.385  0.0634  0.0637 -0.0364
10655DAPC   D1A50307  13.723  22.146  21.444 -0.3595 -0.0732 -0.0215
10655DAPC   D2A50308  13.699  21.837  21.111 -0.2607  0.1997  0.0853
10655DAPC   D3A50309  13.447  21.601  21.308  0.2291  0.0658  0.0106
10655DAPC   D4A50310  13.562  21.486  20.820  0.2981 -0.1728 -0.2040
10655DAPC   C5A50311  13.527  21.617  20.401  0.0733  0.2758 -0.0279
10655DAPC   D1B50312  13.388  22.550  21.101 -0.0482 -0.0546  0.1047
10655DAPC   D2B50313  13.753  22.375  20.860 -0.3330  0.1414  0.0524
10655DAPC   D3B50314  13.386  22.357  20.642  0.2261 -0.1659  0.1092
10655DAPC   D4B50315  13.343  22.124  20.275  0.0885  0.1130 -0.1702
10655DAPC   C5B50316  13.487  22.216  19.934 -0.1700 -0.0006  0.3795
10656POPE   NH350317  29.900  21.815   4.275 -0.1071  0.0029  0.2306
10656POPE   PO450318  30.271  21.904   4.243  0.0344  0.3029  0.0814
10656POPE   GL150319  30.133  22.268   4.092 -0.0818  0.0843  0.2350
10656POPE   GL250320  29.962  22.067   3.842  0.2784  0.0575  0.0254
10656POPE   C1A50321  30.376  22.474   3.795 -0.2393 -0.2240 -0.0980
10656POPE   D2A50322  30.563  22.593   3.513  0.0253 -0.0254 -0.0396
10656POPE   C3A50323  30.304  22.736   3.230 -0.1203  0.2072  0.1346
10656POPE   C4A50324  30.168  22.708   2.846  0.1640  0.0731  0.2271
10656POPE   C1B50325  29.964  22.266   3.371 -0.0317  0.1549  0.3961
10656POPE   C2B50326  29.983  22.280   2.979  0.2711  0.0914  0.1711
10656POPE   C3B50327  29.861  22.398   2.533 -0.2214  0.0063  0.0057
10656POPE   C4B50328  30.041  22.459   2.035  0.0942  0.1814 -0.2961
10657POPE   NH350329   8.547  30.867  21.005 -0.4673 -0.1686  0.3743
10657POPE   PO450330   8.296  31.132  20.751  0.1345 -0.0190  0.2013
10657POPE   GL150331   8.151  31.341  20.435 -0.0066 -0.5279 -0.0326
10657POPE   GL250332   8.109  31.091  20.162 -0.1625  0.0744  0.2589
10657POPE   C1A50333   8.005  31.525  20.089  0.0022 -0.1120  0.0513
10657POPE   D2A50334   7.733  31.434  19.693 -0.1582 -0.2186  0.0554
10657POPE   C3A50335   7.831  31.821  19.443  0.3665  0.0448  0.0273
10657POPE   C4A50336   7.959  32.212  19.192 -0.1377  0.2022  0.0261
10657POPE   C1B50337   8.013  31.031  19.777  0.4047  0.0006  0.1205
10657POPE   C2B50338   8.007  30.951  19.385 -0.0499 -0.1269  0.0656
10657POPE   C3B50339   8.311  31.012  19.013  0.1857  0.4648 -0.2940
10657POPE   C4B50340   8.640  31.389  18.934  0.0481  0.1741  0.1164
10658POPE   NH350341   0.153  11.789   9.291 -0.0455 -0.1573 -0.0440
10658POPE   PO450342  35.351  11.478   9.391 -0.0126 -0.1852  0.0001
10658POPE   GL150343   0.307  11.228   9.435  0.3759  0.1073  0.1859
10658POPE   GL250344   0.559  11.335   9.521  0.1094 -0.2042  0.1362
10658POPE   C1A50345   0.543  11.044   9.121  0.1926 -0.2428  0.0779
10658POPE   D2A50346   0.935  10.982   8.959 -0.0489  0.2838 -0.1639
10658POPE   C3A50347   1.257  10.800   8.899 -0.0338  0.1577  0.2153
10658POPE   C4A50348   1.576  10.888   8.682 -0.2015  0.0793  0.0022
10658POPE   C1B50349   0.967  11.220   9.388  0.0464  0.2642 -0.0482
10658POPE   C2B50350   1.375  11.201   9.204  0.1749 -0.3123  0.1319
10658POPE   C3B50351   1.621  10.974   9.175 -0.1792  0.0743  0.1019
10658POPE   C4B50352   1.993  10.770   9.008 -0.1365  0.1567 -0.2275
10659POPE   NH350353  17.675  17.969  18.520  0.1396 -0.0041  0.0358
10659POPE   PO450354  17.888  18.350  18.477  0.0820 -0.1011  0.1363
10659POPE   GL150355  17.773  18.692  18.318  0.4100 -0.1369 -0.0443
10659POPE   GL250356  17.683  18.774  17.923 -0.2779 -0.1426  0.3367
10659POPE   C1A50357  17.705  19.116  18.339  0.0157 -0.2073 -0.2237
10659POPE   D2A50358  17.493  19.471  18.098  0.0676 -0.2742 -0.0524
10659POPE   C3A50359  17.281  19.631  17.758  0.2789 -0.0844 -0.1346
10659POPE   C4A50360  17.072  19.675  17.440  0.2710  0.0488  0.0032
10659POPE   C1B50361  17.440  19.099  17.703 -0.2845  0.3753  0.3604
10659POPE   C2B50362  17.088  19.173  17.527  0.0718 -0.0353 -0.1898
10659POPE   C3B50363  16.874  19.308  17.225 -0.1626 -0.1426  0.0830
10659POPE   C4B50364  16.531  19.442  16.942 -0.1029  0.1030 -0.3331
10660POPE   NH350365  23.645  14.332  12.000 -0.4665  0.0024 -0.1593
10660POPE   PO450366  23.857  14.711  11.979 -0.2819 -0.1310 -0.3377
10660POPE   GL150367  23.479  14.866  11.777  0.0473  0.0020 -0.1170
10660POPE   GL250368  23.252  14.629  11.918 -0.1769 -0.0138 -0.2236
10660POPE   C1A50369  23.183  14.960  11.561  0.0715  0.1215 -0.0445
10660POPE   D2A50370  22.942  14.844  11.363 -0.1243 -0.2209  0.1109
10660POPE   C3A50371  22.626  14.991  11.185  0.0690 -0.0831 -0.3284
10660POPE   C4A50372  22.428  15.195  11.011  0.3868 -0.2262  0.1594
10660POPE   C1B50373  22.915  14.497  11.694 -0.1171  0.0025 -0.0240
10660POPE   C2B50374  22.567  14.512  11.418  0.1449 -0.2386 -0.1825
10660POPE   C3B50375  22.247  14.327  11.321  0.3932 -0.2182  0.1121
10660POPE   C4B50376  22.031  13.995  11.068  0.0936  0.1824  0.1773
10661POPE   NH350377   3.583  12.760  14.460  0.2898 -0.0602 -0.2575
10661POPE   PO450378   3.383  12.398  14.286 -0.1964 -0.1329 -0.0452
10661POPE   GL150379   3.565  12.590  13.918  0.1397 -0.2253 -0.4191
10661POPE   GL250380   3.313  12.472  13.761 -0.0100  0.0938 -0.0102
10661POPE   C1A50381   3.740  12.821  13.625  0.0131 -0.1316 -0.1153
10661POPE   D2A50382   4.082  13.082  13.450 -0.3697 -0.1214  0.0262
10661POPE   C3A50383   4.315  13.039  13.106  0.1290  0.0090 -0.0547
10661POPE   C4A50384   4.679  12.910  12.915 -0.2102 -0.0443  0.0903
10661POPE   C1B50385   3.530  12.322  13.340 -0.2491 -0.0093  0.0084
10661POPE   C2B50386   3.722  12.320  12.881  0.2278 -0.1415  0.0212
10661POPE   C3B50387   4.086  12.281  12.529 -0.1164 -0.0618 -0.1057
10661POPE   C4B50388   4.192  11.975  12.247  0.1420  0.2379 -0.1646
10662POPE   NH350389   2.040   7.679  13.403 -0.0759  0.0298 -0.1240
10662POPE   PO450390   2.232   8.054  13.637 -0.5251 -0.0426  0.2092
10662POPE   GL150391   2.498   7.848  13.217  0.1770 -0.1615  0.0731
10662POPE   GL250392   2.369   7.729  12.917 -0.0114  0.0027  0.3545
10662POPE   C1A50393   2.919   7.662  13.098  0.1327 -0.0544 -0.3419
10662POPE   D2A50394   3.264   7.780  13.046 -0.0160 -0.0106  0.1578
10662POPE   C3A50395   3.498   7.830  12.695  0.0938  0.1552  0.0324
10662POPE   C4A50396   3.793   7.583  12.423  0.3035  0.1091 -0.3747
10662POPE   C1B50397   2.745   7.704  12.585  0.2983  0.3948  0.0796
10662POPE   C2B50398   3.039   7.733  12.324 -0.1860  0.1637  0.1439
10662POPE   C3B50399   3.377   7.636  12.092 -0.2488 -0.1019  0.1514
10662POPE   C4B50400   3.779   7.843  11.851 -0.1506  0.0358 -0.0798
10663POPE   NH350401  12.846  23.118  21.907  0.2075  0.0520  0.2017
10663POPE   PO450402  12.382  23.261  21.924 -0.0262  0.1890 -0.0841
10663POPE   GL150403  12.513  23.102  21.540  0.1111 -0.2512 -0.1068
10663POPE   GL250404  12.650  23.392  21.467  0.0621  0.0932 -0.1407
10663POPE   C1A50405  12.332  23.032  21.097  0.2337  0.1528  0.1785
10663POPE   D2A50406  12.552  22.810  20.796  0.1243 -0.2662 -0.1789
10663POPE   C3A50407  12.479  22.414  20.574  0.2080  0.0081 -0.0056
10663POPE   C4A50408  12.085  22.356  20.314 -0.2465 -0.0190 -0.2461
10663POPE   C1B50409  12.741  23.381  21.093 -0.1188 -0.3250 -0.2006
10663POPE   C2B50410  12.498  23.282  20.699 -0.1009 -0.0365  0.2266
10663POPE   C3B50411  12.546  23.042  20.363 -0.1723  0.0091 -0.0316
10663POPE   C4B50412  12.585  22.673  20.138  0.2169  0.0492 -0.1817
10664POPE   NH350413  26.237   8.255  10.359 -0.0176 -0.1891  0.1758
10664POPE   PO450414  25.786   8.067  10.212 -0.0702 -0.0346 -0.2693
10664POPE   GL150415  25.421   8.025   9.963  0.0984  0.0068 -0.0906
10664POPE   GL250416  25.202   8.275  10.203  0.0574  0.0285  0.1642
10664POPE   C1A50417  25.183   8.008   9.608  0.0408 -0.3159 -0.2652
10664POPE   D2A50418  24.807   7.869   9.382  0.2073 -0.0490 -0.0059
10664POPE   C3A50419  24.470   7.700   9.112 -0.1689 -0.0385  0.4115
10664POPE   C4A50420  24.235   7.676   8.717 -0.1563  0.1126 -0.2523
10664POPE   C1B50421  24.843   8.270  10.174 -0.1566  0.0347  0.2579
10664POPE   C2B50422  24.491   8.192  10.191 -0.2023 -0.0507 -0.2262
10664POPE   C3B50423  24.102   8.136  10.085  0.0181 -0.0168 -0.2099
10664POPE   C4B50424  23.722   8.065   9.857 -0.1797 -0.0753  0.1040
10665POPE   NH350425   8.790  29.002  21.036 -0.0743 -0.1792  0.2556
10665POPE   PO450426   9.016  29.381  21.106  0.1075  0.3459  0.0912
10665POPE   GL150427   8.887  29.518  20.744 -0.1725 -0.2971 -0.0316
10665POPE   GL250428   8.718  29.302  20.643 -0.2765 -0.2776  0.2520
10665POPE   C1A50429   9.099  29.781  20.442 -0.0056 -0.1235  0.0788
10665POPE   D2A50430   9.122  29.939  20.088  0.1284  0.3272  0.0158
10665POPE   C3A50431   9.327  30.341  19.920 -0.1290 -0.0561 -0.0242
10665POPE   C4A50432   9.695  30.514  19.892  0.0379 -0.1156 -0.0071
10665POPE   C1B50433   8.895  29.071  20.211  0.4387  0.3324  0.0769
10665POPE   C2B50434   9.058  28.903  19.747 -0.0406 -0.0620  0.1774
10665POPE   C3B50435   9.362  28.704  19.460  0.0381  0.1413  0.2895
10665POPE   C4B50436   9.824  28.481  19.483  0.1407 -0.1849  0.1125
10666POPE   NH350437  15.377  25.747  21.341  0.2095 -0.0517 -0.3047
10666POPE   PO450438  15.060  25.969  21.675 -0.0320 -0.3071 -0.1040
10666POPE   GL150439  14.879  25.796  21.245 -0.1011  0.0260 -0.0723
10666POPE   GL250440  14.613  25.864  21.300  0.2873 -0.1455 -0.1248
10666POPE   C1A50441  14.803  25.582  20.854  0.0626  0.1096 -0.2626
10666POPE   D2A50442  14.816  25.164  20.717 -0.1702 -0.1339  0.0986
10666POPE   C3A50443  14.689  25.205  20.292 -0.2225  0.0050  0.2083
10666POPE   C4A50444  14.348  25.171  19.996  0.0695  0.0380  0.1424
10666POPE   C1B50445  14.377  25.960  20.877  0.1337 -0.1272  0.1087
10666POPE   C2B50446  14.138  26.035  20.436  0.2963  0.4657  0.1302
10666POPE   C3B50447  14.055  26.293  20.021 -0.0219  0.1259  0.1416
10666POPE   C4B50448  14.159  26.668  19.773 -0.1578  0.0769 -0.0646
10667POPE   NH350449   2.889  11.609  13.861  0.5000 -0.0966  0.0757
10667POPE   PO450450   2.532  11.573  13.501  0.1231 -0.3582  0.1346
10667POPE   GL150451   2.698  11.590  13.153 -0.2410  0.1364 -0.0771
10667POPE   GL250452   2.998  11.536  12.984 -0.0317  0.2685  0.2349
10667POPE   C1A50453   2.625  11.848  12.797 -0.0821  0.1321 -0.1384
10667POPE   D2A50454   2.894  12.194  12.637  0.0566 -0.0668  0.0339
10667POPE   C3A50455   2.727  12.488  12.434  0.3613 -0.0304  0.0833
10667POPE   C4A50456   2.773  12.860  12.427  0.1006  0.3387 -0.1797
10667POPE   C1B50457   3.034  11.636  12.594  0.2032 -0.0650  0.0087
10667POPE   C2B50458   3.380  11.631  12.264  0.3770  0.1260  0.2805
10667POPE   C3B50459   3.644  11.642  11.906 -0.0028 -0.1122  0.2813
10667POPE   C4B50460   4.035  11.850  11.805  0.0952  0.0330 -0.1089
10668POPE   NH350461  24.283  16.005   8.883  0.2311 -0.0024 -0.3124
10668POPE   PO450462  24.377  15.736   8.490  0.1677  0.3453 -0.2709
10668POPE   GL150463  24.198  16.035   8.316  0.1707 -0.0744  0.0643
10668POPE   GL250464  24.078  16.253   8.463  0.1759  0.0760  0.0215
10668POPE   C1A50465  23.842  15.860   8.228 -0.0841  0.1471  0.0122
10668POPE   D2A50466  23.430  15.908   8.094 -0.1989 -0.1838 -0.1490
10668POPE   C3A50467  23.006  15.908   8.019  0.1756  0.2142  0.1017
10668POPE   C4A50468  22.574  16.130   8.043 -0.1225  0.0526 -0.2137
10668POPE   C1B50469  23.674  16.186   8.509  0.1266  0.0501 -0.0682
10668POPE   C2B50470  23.249  16.408   8.380  0.1501 -0.4544 -0.0634
10668POPE   C3B50471  22.796  16.292   8.468  0.2516  0.1364 -0.2120
10668POPE   C4B50472  22.403  16.123   8.598  0.1701 -0.0552  0.2102
10669POPE   NH350473  18.039  15.986  17.650  0.0021 -0.0632  0.1203
10669POPE   PO450474  17.594  16.064  17.788 -0.1634  0.3342 -0.4252
10669POPE   GL150475  17.506  15.941  17.407  0.1841  0.0787 -0.0675
10669POPE   GL250476  17.153  16.018  17.455 -0.1138 -0.1273 -0.1450
10669POPE   C1A50477  17.441  16.095  17.035 -0.1043 -0.0831  0.3654
10669POPE   D2A50478  17.339  16.277  16.714  0.1062 -0.1782  0.2017
10669POPE   C3A50479  16.996  16.341  16.425  0.1872 -0.2423 -0.0851
10669POPE   C4A50480  16.707  16.360  15.943 -0.0222 -0.0818 -0.1147
10669POPE   C1B50481  16.966  15.989  17.059  0.1757  0.2154  0.1105
10669POPE   C2B50482  16.766  16.090  16.807 -0.0292 -0.1008  0.3402
10669POPE   C3B50483  16.528  16.058  16.467  0.2400  0.1934  0.3803
10669POPE   C4B50484  16.720  15.928  16.204  0.2908  0.0836 -0.3446
10670POPE   NH350485  33.084  24.287   8.257  0.5398 -0.0771  0.0133
10670POPE   PO450486  33.010  24.717   8.398  0.1906 -0.1089  0.2141
10670POPE   GL150487  33.470  24.846   8.340 -0.0037  0.0384 -0.0404
10670POPE   GL250488  33.783  24.680   8.348 -0.0221 -0.0188 -0.1270
10670POPE   C1A50489  33.668  25.244   8.256  0.1698 -0.2233 -0.1235
10670POPE   D2A50490  33.933  25.446   8.025 -0.3609 -0.2205 -0.2476
10670POPE   C3A50491  34.238  25.707   8.039 -0.0413  0.0293  0.2457
10670POPE   C4A50492  34.638  25.772   8.250 -0.2324  0.0375  0.0162
10670POPE   C1B50493  34.088  24.951   8.274  0.1480 -0.1126 -0.0018
10670POPE   C2B50494  34.362  25.195   8.147 -0.0433 -0.2737  0.0496
10670POPE   C3B50495  34.582  25.400   7.897 -0.2257  0.1318  0.1670
10670POPE   C4B50496  34.810  25.469   7.471 -0.0901  0.2287 -0.3105
10671POPE   NH350497   4.186  33.786  17.895  0.2045 -0.0327  0.1241
10671POPE   PO450498   4.380  33.600  18.194 -0.1122 -0.0710 -0.3395
10671POPE   GL150499   4.658  33.643  17.846 -0.0107  0.3890 -0.4822
10671POPE   GL250500   4.950  33.623  17.899 -0.4527 -0.4099  0.0246
10671POPE   C1A50501   4.548  33.623  17.381  0.3854  0.2883 -0.0816
10671POPE   D2A50502   4.635  33.536  16.937  0.3475 -0.1478 -0.2088
10671POPE   C3A50503   4.895  33.804  16.787 -0.0232 -0.1663 -0.1172
10671POPE   C4A50504   5.123  34.050  16.598  0.1231  0.1510 -0.1464
10671POPE   C1B50505   5.049  33.580  17.482 -0.1249  0.1457 -0.1523
10671POPE   C2B50506   5.175  33.555  17.129  0.0235 -0.2767 -0.1030
10671POPE   C3B50507   5.415  33.643  16.732  0.2354  0.1368  0.3128
10671POPE   C4B50508   5.566  33.537  16.336  0.1139 -0.4893  0.0826
10672POPE   NH350509  15.476  13.887  18.974 -0.0440  0.0475 -0.0223
10672POPE   PO450510  14.988  13.903  19.079  0.0869  0.0514  0.0493
10672POPE   GL150511  14.922  14.014  18.662  0.0184  0.3264  0.0306
10672POPE   GL250512  14.926  14.282  18.494 -0.2323 -0.0376 -0.3069
10672POPE   C1A50513  14.811  13.740  18.313  0.2123 -0.0134  0.3409
10672POPE   D2A50514  14.724  13.380  17.950  0.1679  0.0800 -0.1243
10672POPE   C3A50515  14.760  12.972  18.019  0.0374  0.1437  0.0368
10672POPE   C4A50516  14.673  12.542  17.908 -0.0096  0.1237  0.0237
10672POPE   C1B50517  14.776  14.214  18.140 -0.2866  0.2047 -0.0899
10672POPE   C2B50518  14.643  14.300  17.745  0.0016  0.0135  0.0727
10672POPE   C3B50519  14.278  14.217  17.559 -0.1293 -0.1594 -0.0322
10672POPE   C4B50520  14.224  14.243  17.153 -0.1199  0.3466 -0.1270
10673POPE   NH350521   3.858  11.044  13.862 -0.1828 -0.2489 -0.1119
10673POPE   PO450522   3.744  10.770  14.145  0.1708  0.3473 -0.1129
10673POPE   GL150523   3.989  10.425  14.112  0.1141 -0.0374  0.0503
10673POPE   GL250524   3.896  10.139  13.913 -0.0936  0.0936 -0.0532
10673POPE   C1A50525   4.437  10.266  14.020 -0.0613 -0.1976 -0.3645
10673POPE   D2A50526   4.715  10.255  13.659 -0.0825 -0.2923 -0.0681
10673POPE   C3A50527   5.109   9.986  13.672  0.0392  0.1687 -0.0145
10673POPE   C4A50528   5.452   9.686  13.798  0.1431  0.3295  0.0094
10673POPE   C1B50529   4.198   9.919  13.742 -0.0481  0.2089 -0.0278
10673POPE   C2B50530   4.534   9.771  13.434 -0.1186  0.0215  0.1611
10673POPE   C3B50531   4.798   9.950  13.241  0.1597 -0.1192  0.4750
10673POPE   C4B50532   5.059  10.342  13.272 -0.3791 -0.1013 -0.1942
10674POPE   NH350533   3.645  33.654  17.839 -0.0054 -0.0132  0.0614
10674POPE   PO450534   3.341  33.364  17.671  0.3981 -0.2524 -0.1593
10674POPE   GL150535   3.665  33.599  17.343  0.5051  0.0849 -0.1748
10674POPE   GL250536   4.026  33.655  17.363 -0.1201  0.0529 -0.0104
10674POPE   C1A50537   3.864  33.662  16.845  0.1893 -0.4395 -0.2653
10674POPE   D2A50538   4.233  33.869  16.596  0.3027 -0.1754 -0.0920
10674POPE   C3A50539   4.640  33.583  16.444 -0.2077  0.2284  0.2044
10674POPE   C4A50540   5.077  33.599  16.336  0.0371  0.2921  0.3504
10674POPE   C1B50541   4.182  33.341  17.056  0.1414  0.1030  0.1318
10674POPE   C2B50542   4.267  33.292  16.628  0.1810  0.0261 -0.0996
10674POPE   C3B50543   4.684  33.103  16.451  0.1424 -0.3831  0.1200
10674POPE   C4B50544   4.904  32.699  16.607  0.3139 -0.1563 -0.0204
10675POPE   NH350545  31.407  31.326  11.214 -0.4980  0.4807  0.0231
10675POPE   PO450546  31.264  31.074  10.924  0.0908  0.2633  0.0733
10675POPE   GL150547  31.576  31.257  10.735 -0.1338 -0.2369 -0.1332
10675POPE   GL250548  31.731  30.966  10.864 -0.2483 -0.0567  0.0726
10675POPE   C1A50549  31.680  31.558  10.473  0.2663  0.1727 -0.3659
10675POPE   D2A50550  31.855  31.557  10.072  0.0096 -0.1329  0.0644
10675POPE   C3A50551  32.158  31.872   9.909 -0.1371 -0.0137 -0.2813
10675POPE   C4A50552  32.523  32.033   9.601  0.0708  0.3022  0.1308
10675POPE   C1B50553  31.858  31.067  10.373  0.2875 -0.4591 -0.0176
10675POPE   C2B50554  32.135  31.140  10.028  0.1044 -0.0437  0.0149
10675POPE   C3B50555  32.376  31.006   9.676 -0.0435  0.0170  0.1126
10675POPE   C4B50556  32.687  30.657   9.465 -0.2099 -0.0502  0.0219
10676POPE   NH350557  21.302  23.779  16.471  0.0861 -0.1152  0.1603
10676POPE   PO450558  21.378  24.213  16.556  0.1124 -0.1080 -0.0365
10676POPE   GL150559  20.935  24.308  16.343 -0.2422 -0.1153 -0.2282
10676POPE   GL250560  20.892  24.642  16.294  0.0414 -0.0494 -0.1214
10676POPE   C1A50561  20.627  24.233  15.962  0.2311  0.1463  0.0190
10676POPE   D2A50562  20.544  24.401  15.597  0.1581  0.2783 -0.0674
10676POPE   C3A50563  20.553  24.747  15.329  0.1479  0.0624 -0.1677
10676POPE   C4A50564  20.715  25.121  15.267  0.2176 -0.3472 -0.3104
10676POPE   C1B50565  20.417  24.610  16.253  0.1126 -0.0048  0.0715
10676POPE   C2B50566  20.176  24.634  15.965  0.1404 -0.1407 -0.0602
10676POPE   C3B50567  20.088  24.617  15.580  0.4566 -0.1461  0.3643
10676POPE   C4B50568  20.041  24.569  15.110  0.2052 -0.1372  0.1075
10677POPE   NH350569  31.415  30.761  11.253  0.0893 -0.0803  0.0648
10677POPE   PO450570  31.493  30.431  11.407 -0.2200  0.0841  0.1539
10677POPE   GL150571  31.670  30.424  11.046  0.0545  0.0851  0.0930
10677POPE   GL250572  31.437  30.162  10.926  0.2107  0.3840 -0.0569
10677POPE   C1A50573  32.053  30.501  10.755  0.4664  0.0332 -0.2739
10677POPE   D2A50574  32.141  30.595  10.458  0.1795 -0.0815  0.0250
10677POPE   C3A50575  32.493  30.737  10.219 -0.0270 -0.1115 -0.2749
10677POPE   C4A50576  32.746  30.829  10.076 -0.1694 -0.0084  0.2140
10677POPE   C1B50577  31.691  30.100  10.664  0.1889 -0.0845 -0.1766
10677POPE   C2B50578  32.053  30.023  10.439  0.1392  0.3935 -0.0022
10677POPE   C3B50579  32.221  30.162  10.180 -0.1196  0.2287 -0.0904
10677POPE   C4B50580  32.435  30.349   9.867 -0.0380 -0.0342  0.2626
10678POPE   NH350581   2.052  33.295  17.117 -0.1527 -0.4918  0.5634
10678POPE   PO450582   2.088  33.660  16.850  0.0416  0.3968 -0.1948
10678POPE   GL150583   2.256  33.871  16.541  0.3305  0.1830  0.0978
10678POPE   GL250584   2.613  33.920  16.735  0.1023  0.1247 -0.2393
10678POPE   C1A50585   2.595  33.993  16.180 -0.0836  0.0109 -0.0510
10678POPE   D2A50586   2.988  33.974  15.960 -0.1543 -0.1758  0.0209
10678POPE   C3A50587   3.316  33.859  15.628 -0.3058  0.2008 -0.1772
10678POPE   C4A50588   3.650  33.687  15.287  0.1066  0.0912 -0.2738
10678POPE   C1B50589   3.019  33.841  16.532  0.1175  0.0219 -0.0497
10678POPE   C2B50590   3.363  33.746  16.184  0.1890  0.2585  0.3078
10678POPE   C3B50591   3.729  33.707  15.864 -0.1668  0.0518 -0.0513
10678POPE   C4B50592   4.001  33.500  15.649 -0.3074  0.0113 -0.1204
10679POPE   NH350593  31.751  26.190   9.552  0.0407  0.0723  0.1417
10679POPE   PO450594  31.864  26.625   9.606 -0.4055  0.0120 -0.1019
10679POPE   GL150595  31.860  26.843   9.177 -0.0910 -0.0738 -0.0345
10679POPE   GL250596  31.748  26.772   8.814 -0.4169 -0.0945 -0.1373
10679POPE   C1A50597  32.216  27.207   9.123  0.2002  0.0424  0.1356
10679POPE   D2A50598  32.579  27.352   9.032 -0.1607 -0.4268 -0.3642
10679POPE   C3A50599  32.628  27.594   8.680  0.0072  0.2074 -0.0916
10679POPE   C4A50600  32.439  27.973   8.426  0.1272 -0.3143  0.0403
10679POPE   C1B50601  32.016  26.957   8.472 -0.5614  0.3506  0.1968
10679POPE   C2B50602  32.103  27.201   8.112 -0.0524 -0.1558 -0.1609
10679POPE   C3B50603  32.180  27.578   7.933 -0.2418 -0.1962 -0.1200
10679POPE   C4B50604  32.127  27.960   7.618 -0.1491  0.0287  0.1136
10680POPE   NH350605   4.853  20.549  17.193 -0.5287  0.0970  0.1461
10680POPE   PO450606   4.624  20.897  17.103 -0.2418 -0.0165 -0.0333
10680POPE   GL150607   4.996  21.060  16.878 -0.0389  0.0017 -0.2784
10680POPE   GL250608   5.020  21.122  16.499  0.2015  0.4566  0.2362
10680POPE   C1A50609   5.383  20.975  16.887 -0.5587 -0.2757 -0.1829
10680POPE   D2A50610   5.853  21.032  16.719 -0.2873  0.1281 -0.1883
10680POPE   C3A50611   6.125  20.979  16.418  0.1379 -0.2367  0.0028
10680POPE   C4A50612   6.515  20.672  16.290  0.2820 -0.1002 -0.0139
10680POPE   C1B50613   5.485  21.263  16.381  0.0507 -0.0034  0.2083
10680POPE   C2B50614   5.888  21.412  16.315  0.0435 -0.0113 -0.2275
10680POPE   C3B50615   6.153  21.723  16.248 -0.0600  0.1113  0.2081
10680POPE   C4B50616   6.374  21.917  15.838  0.2680  0.1002  0.0970
10681POPE   NH350617  17.401  13.430  18.188  0.1035 -0.2284 -0.0028
10681POPE   PO450618  17.545  13.345  17.770 -0.0407  0.2815  0.1452
10681POPE   GL150619  17.276  13.550  17.513 -0.1777  0.2404  0.2012
10681POPE   GL250620  16.990  13.722  17.529 -0.0845 -0.0075  0.1269
10681POPE   C1A50621  17.056  13.369  17.136  0.0546  0.1416 -0.0452
10681POPE   D2A50622  16.786  13.458  16.773  0.0214  0.0293 -0.3417
10681POPE   C3A50623  16.530  13.509  16.391  0.1602 -0.1142 -0.2508
10681POPE   C4A50624  16.238  13.379  16.081  0.4004 -0.0621 -0.0803
10681POPE   C1B50625  16.634  13.709  17.254  0.0075  0.1287 -0.1238
10681POPE   C2B50626  16.285  13.690  16.824  0.0460  0.1562  0.1054
10681POPE   C3B50627  15.979  13.687  16.442 -0.0636  0.1590 -0.0480
10681POPE   C4B50628  15.771  13.367  16.255 -0.2607  0.0940 -0.1001
10682POPE   NH350629  34.749  25.029  12.085 -0.3016 -0.0560 -0.3550
10682POPE   PO450630  34.979  24.801  12.222 -0.1350 -0.1309  0.0122
10682POPE   GL150631  35.287  25.161  12.024  0.1461  0.1747 -0.1129
10682POPE   GL250632   0.234  24.901  12.134  0.0412  0.0023 -0.0638
10682POPE   C1A50633   0.250  25.297  11.783  0.0827 -0.0683  0.2584
10682POPE   D2A50634   0.539  25.566  11.660 -0.2797 -0.1870 -0.2513
10682POPE   C3A50635   0.489  25.940  11.445 -0.0827 -0.0174 -0.1609
10682POPE   C4A50636   0.450  26.353  11.309  0.1085  0.2914 -0.0161
10682POPE   C1B50637   0.607  25.125  12.068  0.0741  0.0524 -0.1635
10682POPE   C2B50638   1.066  25.114  12.040 -0.0562 -0.3250  0.0663
10682POPE   C3B50639   1.398  25.104  12.152  0.1676  0.0724 -0.0929
10682POPE   C4B50640   1.748  25.355  12.124  0.1975  0.1051 -0.0655
10683POPE   NH350641   9.975   5.210  18.805 -0.2779 -0.4935  0.1834
10683POPE   PO450642   9.748   4.838  18.691 -0.0471  0.0905 -0.2445
10683POPE   GL150643   9.634   4.897  18.329  0.1021  0.0068 -0.0890
10683POPE   GL250644   9.812   4.540  18.224 -0.1733 -0.1016  0.2570
10683POPE   C1A50645   9.596   4.865  17.873  0.0574  0.2900  0.0249
10683POPE   D2A50646   9.499   4.819  17.412  0.0980  0.2484 -0.1059
10683POPE   C3A50647   9.439   4.424  17.190  0.3313 -0.1479 -0.3263
10683POPE   C4A50648   9.196   4.315  16.777  0.1521 -0.2608 -0.3536
10683POPE   C1B50649   9.851   4.429  17.815 -0.2238  0.0126 -0.0776
10683POPE   C2B50650   9.915   4.436  17.470 -0.0001 -0.0996  0.3019
10683POPE   C3B50651  10.050   4.204  17.054  0.0226 -0.1887  0.0573
10683POPE   C4B50652  10.175   3.969  16.693  0.0056 -0.1077  0.4697
10684POPE   NH350653  35.273  26.828  14.758 -0.1464  0.0510  0.1469
10684POPE   PO450654   0.200  26.784  14.436 -0.0148 -0.2168 -0.2438
10684POPE   GL150655   0.419  26.925  14.062 -0.2470  0.1752  0.0136
10684POPE   GL250656   0.432  26.649  13.969 -0.0719  0.3392  0.1617
10684POPE   C1A50657   0.694  27.043  13.832  0.0238  0.1768 -0.1682
10684POPE   D2A50658   1.095  27.077  13.707 -0.2138 -0.1726 -0.2156
10684POPE   C3A50659   1.072  27.296  13.444 -0.3845  0.5122  0.2543
10684POPE   C4A50660   1.360  27.548  13.223 -0.1421  0.0106  0.0635
10684POPE   C1B50661   0.682  26.563  13.674  0.3710 -0.0002  0.0902
10684POPE   C2B50662   1.052  26.549  13.387  0.0889  0.1276  0.2792
10684POPE   C3B50663   1.293  26.311  13.029 -0.4656 -0.0953 -0.0704
10684POPE   C4B50664   1.235  26.259  12.547 -0.0112  0.2671  0.0664
10685POPE   NH350665   1.097   3.361  13.698 -0.1514  0.0167 -0.0101
10685POPE   PO450666   0.996   2.938  13.674 -0.2873  0.1643 -0.1622
10685POPE   GL150667   1.212   3.057  13.264 -0.2153  0.1761  0.0376
10685POPE   GL250668   1.124   3.409  13.160 -0.1042  0.3481  0.0456
10685POPE   C1A50669   1.346   2.883  12.844 -0.0366 -0.1241 -0.2750
10685POPE   D2A50670   1.699   2.791  12.580 -0.1573 -0.0927  0.2124
10685POPE   C3A50671   2.004   2.493  12.388 -0.1683 -0.1219  0.2973
10685POPE   C4A50672   2.472   2.232  12.442  0.1064  0.2415  0.2072
10685POPE   C1B50673   1.287   3.395  12.760 -0.0963 -0.2342  0.1445
10685POPE   C2B50674   1.558   3.287  12.475  0.2163 -0.1678  0.0084
10685POPE   C3B50675   1.904   3.170  12.306  0.5700 -0.1672  0.1454
10685POPE   C4B50676   2.263   2.923  12.147 -0.0013  0.1841 -0.0193
10686DOPE   NH350677  15.335  15.694  19.121  0.1454  0.3029  0.1182
10686DOPE   PO450678  15.052  15.345  19.000 -0.2323 -0.2086 -0.1225
10686DOPE   GL150679  14.847  15.395  18.640 -0.2997  0.0780  0.1947
10686DOPE   GL250680  15.156  15.190  18.410  0.0046  0.0343 -0.1764
10686DOPE   C1A50681  14.750  15.600  18.219 -0.1846  0.0000  0.0039
10686DOPE   D2A50682  14.402  15.686  17.841  0.0915  0.2215 -0.1093
10686DOPE   C3A50683  14.333  15.703  17.477 -0.0975 -0.0355  0.2370
10686DOPE   C4A50684  14.286  15.914  17.150 -0.3730 -0.0992 -0.1468
10686DOPE   C1B50685  14.938  15.167  18.015  0.1125 -0.4167 -0.1882
10686DOPE   D2B50686  14.766  15.315  17.679 -0.0243 -0.1084 -0.1081
10686DOPE   C3B50687  14.744  15.198  17.297  0.0999 -0.0599  0.0470
10686DOPE   C4B50688  14.686  15.259  16.901  0.1649  0.0819 -0.0544
10687DOPE   NH350689  34.132  27.311  13.453  0.0887 -0.1294  0.0088
10687DOPE   PO450690  34.260  27.729  13.470  0.0216  0.2662  0.4682
10687DOPE   GL150691  34.550  27.911  13.106  0.1246 -0.1732 -0.1450
10687DOPE   GL250692  34.494  28.304  13.016 -0.4371 -0.2198  0.0913
10687DOPE   C1A50693  34.721  27.739  12.725  0.2910 -0.2212 -0.2869
10687DOPE   D2A50694  34.718  27.631  12.252  0.1700 -0.3427  0.2393
10687DOPE   C3A50695  35.021  27.654  12.018 -0.0674  0.0618 -0.1275
10687DOPE   C4A50696  35.376  27.780  11.837 -0.1269  0.1755 -0.0873
10687DOPE   C1B50697  34.647  28.207  12.645 -0.0019  0.4043 -0.0376
10687DOPE   D2B50698  34.990  28.061  12.410 -0.1962  0.0179 -0.4831
10687DOPE   C3B50699   0.013  27.999  12.304  0.0958  0.1523  0.0564
10687DOPE   C4B50700   0.335  28.172  12.022 -0.0147 -0.0941  0.0937
10688DOPE   NH350701  23.381   9.194  13.667  0.0140 -0.0411  0.2579
10688DOPE   PO450702  23.556   9.355  13.289  0.2874 -0.1406  0.1462
10688DOPE   GL150703  23.158   9.550  13.167  0.0035 -0.0956  0.0189
10688DOPE   GL250704  23.046   9.443  13.364 -0.2313  0.0374 -0.1625
10688DOPE   C1A50705  22.765   9.474  12.954  0.2761  0.2132 -0.2569
10688DOPE   D2A50706  22.348   9.328  12.920  0.1774  0.1811 -0.0760
10688DOPE   C3A50707  22.170   9.647  12.716 -0.2668  0.2117 -0.1491
10688DOPE   C4A50708  22.011   9.957  12.493  0.1400  0.0437 -0.0801
10688DOPE   C1B50709  22.796   9.119  13.401  0.0099  0.3222 -0.0171
10688DOPE   D2B50710  22.500   8.913  13.242  0.1422 -0.0268 -0.5435
10688DOPE   C3B50711  22.414   8.704  12.903  0.0830  0.0190 -0.3064
10688DOPE   C4B50712  22.057   8.546  12.732 -0.1755  0.1057  0.2595
10689DOPE   NH350713   2.345  17.540  12.116 -0.4057 -0.1296  0.1196
10689DOPE   PO450714   2.762  17.678  12.303  0.3585 -0.3839 -0.3841
10689DOPE   GL150715   3.232  17.528  12.252 -0.1566  0.1253  0.0453
10689DOPE   GL250716   3.224  17.197  12.219 -0.0538 -0.3739  0.0135
10689DOPE   C1A50717   3.640  17.421  12.215  0.1024 -0.3450  0.1037
10689DOPE   D2A50718   4.085  17.177  12.222 -0.2340  0.0052  0.1336
10689DOPE   C3A50719   4.238  16.767  12.215 -0.0897  0.0517 -0.0266
10689DOPE   C4A50720   4.306  16.306  12.286  0.1303 -0.0179 -0.0923
10689DOPE   C1B50721   3.482  17.107  12.584  0.2108 -0.2202 -0.0167
10689DOPE   D2B50722   3.793  17.110  12.798  0.0705 -0.3147  0.3617
10689DOPE   C3B50723   4.160  17.030  12.702 -0.0363 -0.2351 -0.1133
10689DOPE   C4B50724   4.608  17.051  12.836  0.1449  0.0724 -0.2132
10690DOPE   NH350725  22.780  14.982  12.924  0.0120  0.3956  0.1487
10690DOPE   PO450726  23.054  14.882  12.687 -0.0049  0.2570  0.0727
10690DOPE   GL150727  23.019  15.268  12.561  0.0052  0.2456  0.0879
10690DOPE   GL250728  22.830  15.452  12.683 -0.1097  0.1304 -0.5057
10690DOPE   C1A50729  22.885  15.638  12.261 -0.2948 -0.1745  0.0360
10690DOPE   D2A50730  23.006  15.404  11.871 -0.0889 -0.2683  0.2426
10690DOPE   C3A50731  23.144  15.709  11.558  0.0127  0.0995 -0.2102
10690DOPE   C4A50732  23.176  16.201  11.460  0.0453 -0.0170  0.1847
10690DOPE   C1B50733  22.494  15.682  12.538 -0.1846 -0.0406 -0.0374
10690DOPE   D2B50734  22.112  15.606  12.416  0.0836 -0.0786 -0.2043
10690DOPE   C3B50735  21.819  15.453  12.260  0.3212  0.2363  0.3653
10690DOPE   C4B50736  21.440  15.570  12.191 -0.1128  0.0844 -0.3790
10691DOPE   NH350737  10.545  34.161  20.686 -0.3018 -0.0406  0.0515
10691DOPE   PO450738  10.459  34.609  20.624  0.0637 -0.0370 -0.0135
10691DOPE   GL150739  10.257  34.396  20.266 -0.0421  0.0211 -0.0038
10691DOPE   GL250740  10.497  34.539  19.937  0.1928 -0.3861 -0.0359
10691DOPE   C1A50741  10.077  34.039  20.140 -0.0277 -0.0231  0.1728
10691DOPE   D2A50742   9.696  33.900  19.969  0.2006  0.1120 -0.3066
10691DOPE   C3A50743   9.834  33.586  19.828  0.0959 -0.2018  0.0256
10691DOPE   C4A50744   9.832  33.464  19.355 -0.0061  0.1105  0.1481
10691DOPE   C1B50745  10.388  34.429  19.561  0.1498  0.2023 -0.0979
10691DOPE   D2B50746  10.030  34.387  19.299 -0.0952 -0.1017  0.1626
10691DOPE   C3B50747   9.687  34.052  19.154  0.1808  0.2810 -0.0244
10691DOPE   C4B50748   9.403  33.787  18.995 -0.2014  0.1640 -0.1844
10692DOPE   NH350749  23.888  11.149  12.381 -0.0493 -0.3026  0.0446
10692DOPE   PO450750  23.892  11.592  12.204 -0.0633  0.0603  0.0424
10692DOPE   GL150751  23.493  11.339  12.023 -0.0129  0.4025 -0.1971
10692DOPE   GL250752  23.618  11.272  11.702  0.3306  0.0989  0.0920
10692DOPE   C1A50753  23.473  10.909  12.003  0.1318 -0.0854  0.1025
10692DOPE   D2A50754  23.163  10.633  11.958 -0.0790 -0.0403 -0.1433
10692DOPE   C3A50755  23.270  10.187  11.892  0.1401  0.3449  0.0113
10692DOPE   C4A50756  23.312  10.043  11.447  0.0144  0.2699 -0.3947
10692DOPE   C1B50757  23.351  11.026  11.548 -0.4030 -0.1494 -0.1333
10692DOPE   D2B50758  22.992  10.703  11.539 -0.1227 -0.4561 -0.0027
10692DOPE   C3B50759  22.963  10.342  11.245  0.0171 -0.2272  0.0782
10692DOPE   C4B50760  22.967  10.059  11.021 -0.1030 -0.1479  0.3519
10693DOPE   NH350761  19.352  10.987  16.593  0.0390  0.0708 -0.1246
10693DOPE   PO450762  19.271  11.349  16.798  0.1233  0.0071 -0.1517
10693DOPE   GL150763  18.924  11.386  16.508  0.0089 -0.2062 -0.1759
10693DOPE   GL250764  18.957  11.454  16.194 -0.1178 -0.2189 -0.0267
10693DOPE   C1A50765  18.456  11.286  16.412 -0.0758  0.2656  0.1230
10693DOPE   D2A50766  18.225  11.151  16.124 -0.1829 -0.1573  0.3806
10693DOPE   C3A50767  18.018  10.762  16.071 -0.1596  0.4641 -0.0919
10693DOPE   C4A50768  17.871  10.582  16.349 -0.0967 -0.2183  0.0360
10693DOPE   C1B50769  18.723  11.119  16.013  0.1722 -0.0686 -0.0164
10693DOPE   D2B50770  18.501  10.920  15.713  0.4474 -0.1030 -0.1892
10693DOPE   C3B50771  18.317  10.565  15.754 -0.2078  0.0818  0.2951
10693DOPE   C4B50772  18.290  10.145  15.470  0.2318 -0.0220  0.1341
10694DOPE   NH350773   2.447  15.778  14.064  0.1097  0.0016 -0.1937
10694DOPE   PO450774   2.855  15.787  13.889 -0.0098  0.0190  0.0992
10694DOPE   GL150775   3.221  15.695  13.657  0.0590 -0.1390  0.2445
10694DOPE   GL250776   3.559  15.700  13.807  0.1270  0.3176  0.1568
10694DOPE   C1A50777   3.421  15.420  13.316 -0.0707 -0.5850  0.1000
10694DOPE   D2A50778   3.455  15.215  13.048  0.1379  0.1389 -0.1438
10694DOPE   C3A50779   3.729  15.155  12.911 -0.1237 -0.0368  0.0361
10694DOPE   C4A50780   4.056  14.978  12.755  0.1238 -0.0957  0.0420
10694DOPE   C1B50781   3.950  15.523  13.841 -0.1069 -0.1610 -0.0259
10694DOPE   D2B50782   4.358  15.482  13.791 -0.2669 -0.1471 -0.1111
10694DOPE   C3B50783   4.546  15.512  13.433 -0.3115 -0.2246 -0.0712
10694DOPE   C4B50784   4.551  15.724  13.158  0.0525 -0.0469  0.0867
10695DOPE   NH350785  31.774  28.758  10.782 -0.2923  0.2641 -0.5235
10695DOPE   PO450786  31.516  29.069  10.494  0.2174  0.0762  0.0913
10695DOPE   GL150787  31.761  29.340  10.389 -0.0212  0.0377  0.0765
10695DOPE   GL250788  31.898  29.606  10.640 -0.0398  0.1625 -0.0996
10695DOPE   C1A50789  31.850  29.637  10.115  0.3736 -0.0146 -0.0454
10695DOPE   D2A50790  31.790  29.885   9.865  0.0164  0.3665 -0.0134
10695DOPE   C3A50791  32.166  29.985   9.719  0.0903  0.1363  0.0471
10695DOPE   C4A50792  32.298  30.325   9.406  0.0605  0.0613  0.1770
10695DOPE   C1B50793  32.300  29.560  10.376 -0.0207 -0.0313  0.2040
10695DOPE   D2B50794  32.397  29.633  10.068 -0.1401 -0.0914  0.1691
10695DOPE   C3B50795  32.644  29.749   9.945 -0.2449 -0.0284  0.1172
10695DOPE   C4B50796  32.787  29.996   9.693 -0.1775 -0.2407 -0.2594
10696DOPE   NH350797  16.383  34.982  17.398 -0.0555  0.2090  0.2826
10696DOPE   PO450798  16.446  35.330  17.147  0.1459 -0.1684 -0.0759
10696DOPE   GL150799  16.281  35.025  16.910 -0.1249 -0.0221  0.1226
10696DOPE   GL250800  15.929  34.964  17.046 -0.2100 -0.1407  0.1591
10696DOPE   C1A50801  16.072  34.858  16.594  0.1023  0.2035 -0.3620
10696DOPE   D2A50802  15.708  34.874  16.398 -0.0794 -0.2467 -0.0118
10696DOPE   C3A50803  15.302  34.839  16.524  0.0297  0.1542 -0.2267
10696DOPE   C4A50804  14.874  34.775  16.350  0.2559 -0.3598 -0.1637
10696DOPE   C1B50805  15.583  34.812  17.018  0.0943  0.3678 -0.1326
10696DOPE   D2B50806  15.158  34.570  17.000 -0.1152  0.1588 -0.0601
10696DOPE   C3B50807  15.076  34.148  16.844  0.0126  0.1013 -0.0484
10696DOPE   C4B50808  14.855  33.917  16.449  0.1542  0.1152 -0.0976
10697DOPE   NH350809   5.286  33.029  19.282 -0.1740 -0.0765  0.0012
10697DOPE   PO450810   5.573  33.361  19.409 -0.1631  0.0280  0.0083
10697DOPE   GL150811   5.820  33.209  19.066 -0.0644  0.1805  0.0948
10697DOPE   GL250812   5.637  32.916  18.908 -0.2706  0.0089  0.2859
10697DOPE   C1A50813   6.150  33.204  18.800  0.0122  0.1670 -0.0050
10697DOPE   D2A50814   6.395  33.058  18.588 -0.2283  0.1594 -0.0464
10697DOPE   C3A50815   6.354  32.803  18.207 -0.2299  0.1274 -0.3039
10697DOPE   C4A50816   6.193  32.865  17.797  0.0275 -0.0260 -0.4362
10697DOPE   C1B50817   5.428  32.943  18.474 -0.0963  0.0595  0.2404
10697DOPE   D2B50818   5.393  33.254  18.048 -0.0195  0.1664 -0.1798
10697DOPE   C3B50819   5.600  33.130  17.685 -0.2473 -0.0089  0.0075
10697DOPE   C4B50820   6.047  33.106  17.357 -0.0618  0.1852  0.0018
10698DOPE   NH350821  24.524  28.401   9.401 -0.0664  0.2038 -0.0050
10698DOPE   PO450822  24.753  28.088   9.370  0.0471 -0.0232  0.2433
10698DOPE   GL150823  24.666  28.039   8.958 -0.0349 -0.0556 -0.0472
10698DOPE   GL250824  24.574  28.399   8.916  0.2002  0.2823 -0.2703
10698DOPE   C1A50825  24.447  27.958   8.688 -0.0740 -0.0440  0.1212
10698DOPE   D2A50826  24.309  27.980   8.296 -0.2529  0.1626 -0.1286
10698DOPE   C3A50827  23.951  28.105   8.065  0.3208  0.3982  0.0072
10698DOPE   C4A50828  23.458  28.204   7.924 -0.3604 -0.2208  0.0217
10698DOPE   C1B50829  24.748  28.328   8.489 -0.1072  0.1789  0.3757
10698DOPE   D2B50830  24.738  28.439   8.162  0.0578 -0.0378  0.1741
10698DOPE   C3B50831  24.283  28.496   8.164  0.1720  0.0281 -0.0245
10698DOPE   C4B50832  23.790  28.616   8.000 -0.0073  0.0668  0.0490
10699DOPE   NH350833  21.349   4.217  15.043  0.7525 -0.0712 -0.2436
10699DOPE   PO450834  20.875   4.211  15.088  0.1219  0.0303 -0.1454
10699DOPE   GL150835  20.562   4.488  14.999  0.1093  0.2875 -0.0860
10699DOPE   GL250836  20.543   4.377  14.642  0.2373  0.0491 -0.1287
10699DOPE   C1A50837  20.322   4.892  14.919 -0.0573  0.1199  0.0492
10699DOPE   D2A50838  19.982   5.102  15.029 -0.1650  0.0407 -0.2758
10699DOPE   C3A50839  19.753   4.941  15.316  0.1522 -0.2925 -0.0348
10699DOPE   C4A50840  19.626   5.042  15.710 -0.0935  0.1882  0.2845
10699DOPE   C1B50841  20.810   4.490  14.227  0.0807  0.0989 -0.0590
10699DOPE   D2B50842  20.682   4.480  13.887 -0.0395  0.1736 -0.1744
10699DOPE   C3B50843  20.923   4.604  13.498  0.1331 -0.0757  0.0138
10699DOPE   C4B50844  20.951   4.693  13.076  0.2071 -0.0304 -0.3428
10700DOPE   NH350845  24.022  29.836  10.799 -0.1874  0.2793  0.1834
10700DOPE   PO450846  24.228  29.994  10.413 -0.2623  0.3409  0.1487
10700DOPE   GL150847  24.156  29.991   9.915  0.2995  0.2736 -0.0432
10700DOPE   GL250848  24.026  29.724   9.737  0.0978 -0.0154 -0.1931
10700DOPE   C1A50849  24.196  30.179   9.519 -0.1016  0.0298  0.1824
10700DOPE   D2A50850  24.144  30.339   9.119  0.2693  0.0943 -0.0474
10700DOPE   C3A50851  23.819  30.455   8.738 -0.0003  0.1802 -0.0820
10700DOPE   C4A50852  23.615  30.506   8.250  0.0541 -0.2199 -0.0218
10700DOPE   C1B50853  24.124  29.768   9.322  0.2324 -0.0603 -0.1229
10700DOPE   D2B50854  24.296  29.850   8.841 -0.1321 -0.1251 -0.3639
10700DOPE   C3B50855  24.109  30.172   8.527 -0.4313  0.1575 -0.3027
10700DOPE   C4B50856  23.967  30.192   8.072 -0.2234 -0.2070 -0.0279
10701DOPE   NH350857  17.620  30.464  18.467  0.0975  0.0298  0.0591
10701DOPE   PO450858  17.876  30.294  18.233  0.0409  0.0072 -0.2266
10701DOPE   GL150859  17.768  29.956  17.962  0.3206  0.2520 -0.0555
10701DOPE   GL250860  17.929  29.707  18.150 -0.3679 -0.0722  0.0166
10701DOPE   C1A50861  17.372  29.885  17.771 -0.0824  0.2737  0.1863
10701DOPE   D2A50862  17.254  29.569  17.560  0.0281  0.4712 -0.2544
10701DOPE   C3A50863  16.813  29.687  17.411 -0.1215 -0.0357  0.2386
10701DOPE   C4A50864  16.500  29.883  17.315 -0.0110 -0.2051 -0.3555
10701DOPE   C1B50865  17.786  29.355  17.787 -0.1960  0.0205  0.1463
10701DOPE   D2B50866  17.423  29.098  17.596 -0.0094 -0.0149  0.0825
10701DOPE   C3B50867  17.288  28.708  17.792  0.1118  0.0743  0.0725
10701DOPE   C4B50868  17.031  28.320  17.670  0.1780 -0.1436 -0.1657
10702DOPE   NH350869   0.115   0.067  14.217  0.0441 -0.2002  0.4406
10702DOPE   PO450870   0.538   0.089  14.261 -0.1450 -0.3107 -0.1413
10702DOPE   GL150871   0.606  35.047  14.208  0.2609 -0.2903 -0.3575
10702DOPE   GL250872   0.617  34.973  14.454 -0.0132  0.2244  0.1394
10702DOPE   C1A50873   0.835  34.985  13.836 -0.0635  0.3885 -0.0715
10702DOPE   D2A50874   0.995  34.682  13.549  0.3431 -0.0957 -0.1814
10702DOPE   C3A50875   1.293  34.772  13.232  0.1236  0.0954  0.0718
10702DOPE   C4A50876   1.525  35.009  12.943 -0.0762 -0.1884 -0.0932
10702DOPE   C1B50877   0.701  34.568  14.337  0.0662  0.3324  0.0083
10702DOPE   D2B50878   0.734  34.128  14.106 -0.2693  0.0834 -0.2341
10702DOPE   C3B50879   0.995  34.074  13.828 -0.1232  0.0888 -0.1600
10702DOPE   C4B50880   1.179  34.209  13.342  0.3298 -0.0621  0.0646
10703DOPE   NH350881   0.694  28.689  15.825  0.2322  0.3088  0.1916
10703DOPE   PO450882   0.594  29.071  15.778 -0.0173 -0.0422  0.1408
10703DOPE   GL150883   0.690  29.299  15.427 -0.1922 -0.0342 -0.0458
10703DOPE   GL250884   0.439  29.289  15.226 -0.0580 -0.0871 -0.5869
10703DOPE   C1A50885   1.006  29.202  15.149  0.2308  0.4642  0.3177
10703DOPE   D2A50886   1.252  29.081  14.881 -0.0686 -0.0951 -0.2153
10703DOPE   C3A50887   1.485  29.305  14.625  0.3348  0.0829  0.5300
10703DOPE   C4A50888   1.534  29.513  14.205 -0.1004 -0.0703  0.1638
10703DOPE   C1B50889   0.254  29.391  14.876  0.3836 -0.1446 -0.1033
10703DOPE   D2B50890   0.103  29.492  14.556  0.1943  0.0656  0.2338
10703DOPE   C3B50891   0.069  29.722  14.197 -0.0825 -0.0053  0.4212
10703DOPE   C4B50892   0.105  29.540  13.690  0.0593  0.1057 -0.0552
10704DOPE   NH350893   7.418  16.889  17.683 -0.1301 -0.0979 -0.0702
10704DOPE   PO450894   7.529  16.560  17.371  0.0522  0.0885 -0.1302
10704DOPE   GL150895   7.382  16.885  17.161 -0.3056 -0.1733  0.1786
10704DOPE   GL250896   7.079  16.737  17.063  0.2501 -0.0684  0.0931
10704DOPE   C1A50897   7.471  17.235  16.910 -0.1958  0.0222  0.2499
10704DOPE   D2A50898   7.709  17.453  16.656 -0.0448 -0.0809  0.1117
10704DOPE   C3A50899   7.793  17.620  16.138  0.0324  0.3265 -0.0431
10704DOPE   C4A50900   7.647  17.920  15.982 -0.0032 -0.0120  0.0084
10704DOPE   C1B50901   7.184  16.793  16.722  0.1116  0.0695  0.3969
10704DOPE   D2B50902   7.515  16.958  16.523  0.0774  0.3294  0.2200
10704DOPE   C3B50903   7.740  17.115  16.251 -0.0759 -0.1749 -0.1866
10704DOPE   C4B50904   7.935  17.133  15.955 -0.0633  0.0553 -0.0220
10705DOPE   NH350905  32.362  21.800   4.895 -0.5062 -0.2714  0.1130
10705DOPE   PO450906  31.974  22.014   4.631 -0.0680  0.2159  0.0160
10705DOPE   GL150907  31.847  22.495   4.635 -0.5513 -0.0990  0.0188
10705DOPE   GL250908  32.078  22.601   4.812  0.0113 -0.2811 -0.2908
10705DOPE   C1A50909  32.067  22.778   4.342 -0.4223  0.0890  0.1306
10705DOPE   D2A50910  32.062  22.965   4.124 -0.3823 -0.1355  0.0997
10705DOPE   C3A50911  32.271  23.084   3.713  0.1299 -0.0081  0.1082
10705DOPE   C4A50912  32.143  23.400   3.383  0.3027  0.1063 -0.0319
10705DOPE   C1B50913  32.427  22.898   4.757  0.1418  0.2802  0.0247
10705DOPE   D2B50914  32.520  23.049   4.383 -0.2073  0.0021 -0.1405
10705DOPE   C3B50915  32.691  23.395   4.297  0.4514  0.2081  0.0641
10705DOPE   C4B50916  32.938  23.586   4.005  0.2346 -0.1353  0.0908
10706DOPE   NH350917  32.111  10.804   6.147 -0.0400 -0.1986  0.2357
10706DOPE   PO450918  32.289  11.171   6.362 -0.3434 -0.2345 -0.4967
10706DOPE   GL150919  32.625  11.263   6.014  0.4781  0.1178  0.0117
10706DOPE   GL250920  32.650  10.822   5.953  0.4614 -0.5423 -0.0819
10706DOPE   C1A50921  32.999  11.115   5.646 -0.1820 -0.1110  0.1151
10706DOPE   D2A50922  33.280  10.964   5.345 -0.0079  0.0663  0.2443
10706DOPE   C3A50923  33.435  10.850   4.892  0.2645 -0.0920 -0.0022
10706DOPE   C4A50924  33.233  10.638   4.595  0.2010  0.0619  0.3859
10706DOPE   C1B50925  32.952  10.626   5.637  0.3121 -0.0536 -0.1977
10706DOPE   D2B50926  33.085  10.567   5.137  0.3836 -0.1110  0.5041
10706DOPE   C3B50927  33.516  10.425   5.205  0.0180  0.0828  0.0230
10706DOPE   C4B50928  33.736  10.100   5.171  0.0065 -0.1154 -0.3738
10707DOPE   NH350929  15.405   0.301  17.865  0.0256  0.2743 -0.0930
10707DOPE   PO450930  15.036   0.458  18.084 -0.1651 -0.1434 -0.0238
10707DOPE   GL150931  14.856   0.170  17.810  0.0280  0.3834  0.1010
10707DOPE   GL250932  15.118   0.280  17.458 -0.0369 -0.0058  0.2962
10707DOPE   C1A50933  14.471  35.373  17.529 -0.0511  0.1160 -0.0170
10707DOPE   D2A50934  14.216  35.107  17.214 -0.1660 -0.0009  0.2497
10707DOPE   C3A50935  14.242  34.763  16.976 -0.1130 -0.0619 -0.1045
10707DOPE   C4A50936  13.905  34.569  16.782  0.1451 -0.1222 -0.0863
10707DOPE   C1B50937  14.729   0.242  17.171 -0.0510 -0.3980  0.4644
10707DOPE   D2B50938  14.507   0.061  16.991 -0.0068  0.0487  0.0021
10707DOPE   C3B50939  14.330  35.171  16.721  0.0278  0.0843 -0.2333
10707DOPE   C4B50940  14.256  34.809  16.402 -0.3360 -0.3124 -0.1227
10708DOPE   NH350941  24.780  20.935   9.952 -0.0356  0.2213  0.2233
10708DOPE   PO450942  24.535  20.625   9.776  0.3848 -0.1410 -0.0807
10708DOPE   GL150943  24.149  20.633   9.631  0.2034 -0.1887  0.1651
10708DOPE   GL250944  23.937  20.340   9.586  0.1254  0.4951  0.0888
10708DOPE   C1A50945  23.664  20.746   9.584 -0.4545  0.1528 -0.0827
10708DOPE   D2A50946  23.281  20.690   9.283 -0.0775  0.0159  0.0916
10708DOPE   C3A50947  22.997  20.900   9.417 -0.0964  0.1049 -0.1253
10708DOPE   C4A50948  22.543  20.789   9.595  0.0923 -0.0121 -0.2807
10708DOPE   C1B50949  23.988  20.522   9.136  0.1428 -0.0880  0.2705
10708DOPE   D2B50950  23.572  20.604   8.898 -0.0352  0.1572 -0.1142
10708DOPE   C3B50951  23.169  20.359   8.819 -0.3823  0.1205 -0.0078
10708DOPE   C4B50952  22.849  20.085   8.737  0.0275 -0.0070 -0.4352
10709DOPE   NH350953  25.614  10.454   8.978 -0.0796 -0.0127  0.0890
10709DOPE   PO450954  25.501  10.720   9.272  0.0394 -0.0803  0.0841
10709DOPE   GL150955  25.133  10.808   9.038  0.0049 -0.2601 -0.0157
10709DOPE   GL250956  25.218  10.685   8.738 -0.2322  0.0331  0.0846
10709DOPE   C1A50957  24.704  10.651   8.878  0.0351 -0.1754  0.0433
10709DOPE   D2A50958  24.245  10.470   8.682  0.1995  0.1938  0.0192
10709DOPE   C3A50959  23.958  10.636   8.731 -0.1871 -0.1346  0.0746
10709DOPE   C4A50960  23.521  10.631   8.597  0.0896 -0.1854  0.1003
10709DOPE   C1B50961  24.944  10.619   8.451 -0.3497  0.0384 -0.4674
10709DOPE   D2B50962  24.617  10.433   8.283  0.1464 -0.1280 -0.3985
10709DOPE   C3B50963  24.371  10.230   8.063 -0.1121 -0.0785  0.0714
10709DOPE   C4B50964  23.994  10.020   7.942 -0.0160  0.2601  0.1320
10710DOPE   NH350965  27.630  31.171  10.124  0.0157 -0.1743 -0.0513
10710DOPE   PO450966  27.897  31.465  10.237  0.0862 -0.2580  0.0218
10710DOPE   GL150967  27.907  31.373   9.806  0.0129 -0.1358  0.1535
10710DOPE   GL250968  27.615  31.180   9.635 -0.1216 -0.0295 -0.0641
10710DOPE   C1A50969  28.200  31.223   9.547 -0.0550  0.0936  0.0786
10710DOPE   D2A50970  28.197  31.113   9.062 -0.4296 -0.1105  0.1475
10710DOPE   C3A50971  28.262  30.715   8.918 -0.1034  0.2022 -0.2783
10710DOPE   C4A50972  28.076  30.318   8.731  0.2310  0.2592  0.1224
10710DOPE   C1B50973  27.725  31.244   9.217  0.1042  0.0057  0.1744
10710DOPE   D2B50974  27.734  31.252   8.801 -0.3126 -0.1059 -0.1667
10710DOPE   C3B50975  28.186  31.137   8.542  0.2046 -0.3372 -0.0101
10710DOPE   C4B50976  28.457  31.087   8.214  0.0930  0.0709  0.1015
10711DOPE   NH350977  24.593  16.271   8.591  0.1389  0.4251 -0.0646
10711DOPE   PO450978  24.369  16.492   8.905  0.1540 -0.0977  0.0912
10711DOPE   GL150979  23.942  16.634   8.998  0.0275 -0.3495 -0.0045
10711DOPE   GL250980  23.856  16.572   8.843 -0.2326  0.0313  0.2088
10711DOPE   C1A50981  23.676  16.685   9.311 -0.1086  0.1441  0.2309
10711DOPE   D2A50982  23.314  16.686   9.299  0.1319  0.2098 -0.1803
10711DOPE   C3A50983  22.941  16.593   9.523 -0.0318 -0.1951 -0.2026
10711DOPE   C4A50984  22.450  16.608   9.523 -0.3757 -0.1793 -0.0907
10711DOPE   C1B50985  23.472  16.735   8.809  0.2787 -0.0266  0.0754
10711DOPE   D2B50986  22.980  16.682   8.737  0.1113  0.2037  0.1666
10711DOPE   C3B50987  22.630  16.596   9.063  0.0154  0.0849 -0.0149
10711DOPE   C4B50988  22.162  16.759   9.087 -0.1292  0.0283  0.2792
10712DOPE   NH350989  26.779  22.038   5.847 -0.0207 -0.0386  0.0820
10712DOPE   PO450990  26.682  22.499   5.817 -0.0881  0.4253  0.0482
10712DOPE   GL150991  26.480  22.909   5.807 -0.0976  0.2478  0.2553
10712DOPE   GL250992  26.718  23.171   5.768  0.1381 -0.0122  0.1167
10712DOPE   C1A50993  26.196  23.157   5.611  0.3463 -0.1822  0.0876
10712DOPE   D2A50994  25.942  23.240   5.245  0.1989 -0.0013 -0.2947
10712DOPE   C3A50995  25.571  23.076   4.893 -0.1884 -0.2000  0.0772
10712DOPE   C4A50996  25.239  23.329   4.650  0.1960  0.0200  0.2016
10712DOPE   C1B50997  26.537  23.375   5.371  0.4112 -0.1499 -0.0478
10712DOPE   D2B50998  26.264  23.587   5.088  0.0686 -0.2185 -0.2465
10712DOPE   C3B50999  26.307  23.651   4.732  0.2844 -0.2016 -0.1646
10712DOPE   C4B51000  26.234  23.629   4.347  0.3558  0.1277 -0.1041
10713DOPE   NH351001  22.200  19.232  14.110  0.1301  0.2994 -0.1118
10713DOPE   PO451002  22.321  19.042  13.843 -0.0566 -0.2250  0.0120
10713DOPE   GL151003  22.134  18.962  13.478  0.0048  0.0509 -0.2307
10713DOPE   GL251004  22.047  18.670  13.464 -0.1480 -0.1050  0.0458
10713DOPE   C1A51005  22.277  18.999  12.981 -0.0350  0.0537  0.2293
10713DOPE   D2A51006  22.136  19.032  12.572 -0.6181 -0.2081 -0.4489
10713DOPE   C3A51007  21.775  19.220  12.403 -0.0500 -0.3091 -0.0466
10713DOPE   C4A51008  21.471  19.249  12.114 -0.0676 -0.3384  0.1658
10713DOPE   C1B51009  21.754  18.820  13.192 -0.2336  0.0082 -0.1301
10713DOPE   D2B51010  21.407  18.814  12.932 -0.1893  0.0332  0.0286
10713DOPE   C3B51011  21.103  18.618  12.509 -0.2687  0.2570 -0.3177
10713DOPE   C4B51012  20.989  18.153  12.475  0.2068 -0.0520  0.1892
10714DOPE   NH351013   8.631   2.005  19.082 -0.0647  0.0599 -0.0142
10714DOPE   PO451014   8.732   1.624  19.252  0.2040 -0.0236  0.0599
10714DOPE   GL151015   8.818   1.326  18.993 -0.1861  0.1568  0.0375
10714DOPE   GL251016   8.640   0.982  19.146  0.3711  0.2564 -0.1280
10714DOPE   C1A51017   8.983   1.200  18.581  0.1548 -0.3333 -0.1630
10714DOPE   D2A51018   8.885   0.800  18.407  0.2198 -0.0174 -0.1453
10714DOPE   C3A51019   8.614   0.452  18.252  0.0011  0.1483  0.1970
10714DOPE   C4A51020   8.180   0.358  18.100  0.0330  0.3958 -0.4205
10714DOPE   C1B51021   8.673   0.677  18.833  0.0621 -0.0145 -0.2767
10714DOPE   D2B51022   8.886   0.294  18.668  0.1957  0.0086  0.0524
10714DOPE   C3B51023   9.089   0.370  18.225 -0.0644  0.0277  0.0052
10714DOPE   C4B51024   9.515   0.206  18.123  0.2176  0.2570 -0.1415
10715DOPE   NH351025  27.874  29.041   9.838 -0.4791  0.5685  0.1171
10715DOPE   PO451026  27.970  29.556   9.948 -0.2641 -0.0379  0.0621
10715DOPE   GL151027  28.115  29.827   9.616  0.0143  0.1217  0.0769
10715DOPE   GL251028  27.709  29.861   9.594  0.0765 -0.2138  0.1906
10715DOPE   C1A51029  28.052  29.829   9.162 -0.4526 -0.2259 -0.1777
10715DOPE   D2A51030  28.257  29.814   8.714 -0.2543  0.0515  0.1584
10715DOPE   C3A51031  28.297  30.031   8.440  0.0195 -0.0346  0.1739
10715DOPE   C4A51032  28.623  30.314   8.258 -0.2562 -0.3847  0.0381
10715DOPE   C1B51033  27.519  29.790   9.238  0.0232 -0.3054 -0.2205
10715DOPE   D2B51034  27.737  29.939   8.809 -0.2048 -0.1464 -0.2668
10715DOPE   C3B51035  27.452  30.200   8.611  0.3276  0.3648  0.0137
10715DOPE   C4B51036  27.548  30.458   8.231 -0.1171 -0.0483  0.2381
10716PAPE   NH351037  30.915  14.112   4.945  0.2619 -0.0724  0.0044
10716PAPE   PO451038  31.346  14.231   4.867  0.0537  0.0241  0.1681
10716PAPE   GL151039  31.475  14.312   4.420  0.2016 -0.0490 -0.1079
10716PAPE   GL251040  31.615  14.159   4.274 -0.5175 -0.0683 -0.2388
10716PAPE   D1A51041  31.709  14.623   4.124 -0.0734 -0.1486 -0.1220
10716PAPE   D2A51042  32.047  14.937   4.001 -0.2820 -0.2879 -0.2241
10716PAPE   D3A51043  32.396  14.851   3.856  0.0442  0.4958 -0.2494
10716PAPE   D4A51044  32.494  14.828   3.419 -0.0055 -0.2127 -0.0990
10716PAPE   C5A51045  32.276  14.581   3.181 -0.0680  0.2493  0.2150
10716PAPE   C1B51046  31.751  14.230   3.811  0.0296  0.0542 -0.3468
10716PAPE   C2B51047  31.951  14.705   3.564 -0.0755  0.2100 -0.1068
10716PAPE   C3B51048  32.068  15.060   3.398  0.3170 -0.3948 -0.1986
10716PAPE   C4B51049  32.496  15.356   3.331  0.0197 -0.3937  0.0415
10717PAPE   NH351050  12.753  31.889  21.097  0.0948  0.1514 -0.3358
10717PAPE   PO451051  12.697  32.107  20.651 -0.0643 -0.3992  0.3039
10717PAPE   GL151052  12.742  31.743  20.312  0.0927 -0.0231  0.1322
10717PAPE   GL251053  12.887  31.853  19.942 -0.0067  0.2325  0.2485
10717PAPE   D1A51054  12.395  31.698  20.023  0.0435  0.0741  0.2834
10717PAPE   D2A51055  12.370  31.395  19.833  0.0867  0.0976 -0.0292
10717PAPE   D3A51056  12.794  31.421  19.776 -0.2325  0.1264  0.1723
10717PAPE   D4A51057  12.620  31.646  19.446 -0.4253  0.1138  0.2608
10717PAPE   C5A51058  12.234  31.801  19.568 -0.0555  0.1408 -0.2341
10717PAPE   C1B51059  12.949  31.987  19.474  0.1604  0.1668  0.2380
10717PAPE   C2B51060  13.015  31.782  19.128  0.1169 -0.1000 -0.0734
10717PAPE   C3B51061  13.253  31.660  18.811 -0.0230  0.1581 -0.4996
10717PAPE   C4B51062  13.700  31.648  18.878  0.3120 -0.1820  0.0272
10718PAPE   NH351063   0.043  24.658  14.839  0.0362 -0.0667  0.1183
10718PAPE   PO451064   0.333  24.295  14.683 -0.5622 -0.3554 -0.3699
10718PAPE   GL151065   0.576  24.590  14.648 -0.2081  0.0971  0.0900
10718PAPE   GL251066   0.482  24.779  14.521 -0.0140  0.2102  0.0158
10718PAPE   D1A51067   0.868  25.034  14.600 -0.0356 -0.0765 -0.3978
10718PAPE   D2A51068   0.941  25.480  14.503 -0.2618  0.0546  0.1484
10718PAPE   D3A51069   0.855  25.559  14.060  0.1268 -0.0074  0.0379
10718PAPE   D4A51070   0.544  25.210  14.155  0.0410  0.0343  0.2179
10718PAPE   C5A51071   0.158  24.991  14.139  0.0264 -0.1551 -0.0492
10718PAPE   C1B51072   0.882  24.738  14.198 -0.0434 -0.1641  0.1880
10718PAPE   C2B51073   1.019  25.045  13.889  0.0868 -0.0288 -0.0480
10718PAPE   C3B51074   1.299  25.353  13.681 -0.2698 -0.0915 -0.0665
10718PAPE   C4B51075   1.653  25.422  13.474 -0.1679  0.2378 -0.0481
10719PAPE   NH351076  23.230  23.249  12.739  0.0477 -0.3074  0.2798
10719PAPE   PO451077  23.136  23.599  12.909  0.2394  0.1136  0.0451
10719PAPE   GL151078  22.786  23.509  12.749  0.1866 -0.0241  0.2234
10719PAPE   GL251079  22.647  23.549  12.545  0.1105  0.1316 -0.1652
10719PAPE   D1A51080  22.351  23.491  13.015 -0.2259  0.2557  0.0164
10719PAPE   D2A51081  22.315  23.062  13.274  0.1155  0.1922 -0.0061
10719PAPE   D3A51082  21.842  23.146  13.129 -0.1364  0.2714 -0.3846
10719PAPE   D4A51083  21.444  23.274  13.104  0.0985  0.0999  0.0612
10719PAPE   C5A51084  21.442  23.718  12.946 -0.3571  0.0572 -0.2132
10719PAPE   C1B51085  22.211  23.395  12.442 -0.1369  0.4217 -0.3506
10719PAPE   C2B51086  21.895  23.420  12.080  0.0691  0.3589  0.0978
10719PAPE   C3B51087  21.773  23.629  11.633  0.2670  0.0063 -0.3022
10719PAPE   C4B51088  21.675  23.632  11.252 -0.2536  0.2759 -0.2444
10720PAPE   NH351089  27.022  26.373   8.281  0.0013  0.0596  0.1269
10720PAPE   PO451090  27.511  26.445   8.075 -0.1819 -0.3386  0.3153
10720PAPE   GL151091  27.565  26.831   7.838  0.1321  0.2131 -0.0648
10720PAPE   GL251092  27.642  26.613   7.602  0.0180 -0.0130 -0.2149
10720PAPE   D1A51093  27.597  27.295   7.757  0.1393  0.1164 -0.1529
10720PAPE   D2A51094  27.630  27.563   7.418 -0.1632  0.1253  0.0597
10720PAPE   D3A51095  27.524  27.722   7.104 -0.1254  0.3252 -0.2115
10720PAPE   D4A51096  27.726  28.118   7.153 -0.0931  0.0972  0.2312
10720PAPE   C5A51097  27.970  28.351   6.797 -0.0973  0.0326  0.0954
10720PAPE   C1B51098  27.469  26.909   7.309  0.1790  0.3784 -0.0727
10720PAPE   C2B51099  27.421  27.231   6.973 -0.0530  0.0221 -0.3035
10720PAPE   C3B51100  27.323  27.430   6.632  0.2529  0.1104 -0.3424
10720PAPE   C4B51101  27.224  27.642   6.254  0.0571  0.0098  0.0559
10721PAPE   NH351102  12.698  33.849  20.261  0.1751 -0.0722 -0.0928
10721PAPE   PO451103  12.896  33.505  20.513  0.0370 -0.0427 -0.1316
10721PAPE   GL151104  13.172  33.591  20.103  0.1618 -0.2635  0.1318
10721PAPE   GL251105  12.989  33.485  19.853 -0.0579 -0.2220  0.5296
10721PAPE   D1A51106  13.534  33.469  19.934 -0.1796 -0.0330 -0.0917
10721PAPE   D2A51107  13.515  33.731  19.585 -0.1420  0.3046 -0.2149
10721PAPE   D3A51108  13.569  34.142  19.561 -0.3479  0.0314 -0.0112
10721PAPE   D4A51109  13.661  34.171  19.144 -0.0152  0.0092 -0.0640
10721PAPE   C5A51110  14.055  33.915  19.199 -0.1639 -0.0358 -0.1410
10721PAPE   C1B51111  13.152  33.389  19.552 -0.1557  0.1638 -0.0651
10721PAPE   C2B51112  13.135  33.338  19.220  0.1412  0.0830  0.0817
10721PAPE   C3B51113  13.079  33.361  18.848 -0.2747 -0.0278  0.1102
10721PAPE   C4B51114  13.090  33.410  18.414 -0.0692  0.0376  0.2147
10722PAPE   NH351115   5.569  30.855  20.147 -0.1005  0.0322 -0.4234
10722PAPE   PO451116   5.895  30.544  20.274 -0.0670  0.0724  0.0572
10722PAPE   GL151117   6.264  30.355  20.132 -0.0965  0.0034  0.2524
10722PAPE   GL251118   6.552  30.551  20.157  0.2002 -0.0349  0.0527
10722PAPE   D1A51119   6.189  30.178  19.601 -0.0678 -0.1199 -0.2228
10722PAPE   D2A51120   5.902  29.806  19.576  0.1312 -0.1199 -0.1307
10722PAPE   D3A51121   6.079  29.927  19.165 -0.0344 -0.1958  0.1078
10722PAPE   D4A51122   6.251  29.548  18.965 -0.0132  0.1475 -0.1662
10722PAPE   C5A51123   6.389  29.544  18.506  0.1124  0.0673  0.0318
10722PAPE   C1B51124   6.791  30.575  19.803 -0.0685  0.1731 -0.0398
10722PAPE   C2B51125   7.116  30.504  19.551  0.0889 -0.1095  0.0066
10722PAPE   C3B51126   7.361  30.505  19.254 -0.4386  0.0012 -0.1881
10722PAPE   C4B51127   7.437  30.183  19.187 -0.0273  0.2090  0.0532
10723PAPE   NH351128  26.608  26.690   8.917  0.2329 -0.0824 -0.1712
10723PAPE   PO451129  26.974  26.614   8.703  0.0440 -0.3106  0.0560
10723PAPE   GL151130  26.684  27.007   8.531 -0.4518  0.3157  0.0218
10723PAPE   GL251131  26.746  27.174   8.262  0.1294 -0.1098 -0.2737
10723PAPE   D1A51132  26.767  27.461   8.742  0.0954  0.0855  0.3212
10723PAPE   D2A51133  26.791  27.731   8.395 -0.2540 -0.3979 -0.1086
10723PAPE   D3A51134  26.434  28.043   8.427 -0.0744  0.0259  0.0014
10723PAPE   D4A51135  26.529  28.432   8.618  0.3106 -0.1228 -0.0109
10723PAPE   C5A51136  26.281  28.722   8.459 -0.2700 -0.1127  0.0123
10723PAPE   C1B51137  26.721  27.455   7.811 -0.0759 -0.1074  0.2537
10723PAPE   C2B51138  26.680  27.637   7.458  0.0249 -0.2280 -0.0921
10723PAPE   C3B51139  26.736  27.908   7.069  0.0304  0.0753 -0.1257
10723PAPE   C4B51140  26.486  27.964   6.802  0.0476 -0.2567 -0.0683
10724DGPE   NH351141  20.779  22.993  16.522 -0.1867  0.1405  0.0129
10724DGPE   PO451142  21.044  23.288  16.423  0.1118  0.1568  0.2153
10724DGPE   GL151143  20.746  23.403  16.179  0.2286 -0.0989  0.0583
10724DGPE   GL251144  20.799  23.725  16.140  0.1918  0.1245  0.0743
10724DGPE   C1A51145  20.367  23.328  15.886  0.0961  0.2387 -0.1714
10724DGPE   C2A51146  19.960  23.119  15.789  0.1876 -0.1646 -0.0297
10724DGPE   D3A51147  19.543  23.123  15.862  0.2138  0.0401  0.1655
10724DGPE   C4A51148  19.403  22.876  16.237 -0.3750 -0.2118 -0.0351
10724DGPE   C5A51149  19.708  22.844  16.554  0.1385 -0.2075 -0.2492
10724DGPE   C1B51150  20.589  23.756  15.787  0.2023  0.3307 -0.0467
10724DGPE   C2B51151  20.212  23.638  15.542  0.1225 -0.0970 -0.3506
10724DGPE   D3B51152  19.837  23.669  15.551  0.1345 -0.1767 -0.1375
10724DGPE   C4B51153  19.580  23.377  15.234 -0.0654 -0.1090 -0.0805
10724DGPE   C5B51154  19.382  23.395  14.758 -0.0269  0.0215  0.1289
10725DGPE   NH351155  32.839  31.087  12.512  0.6282 -0.1662 -0.1545
10725DGPE   PO451156  32.750  31.126  12.025  0.1670  0.0189  0.1230
10725DGPE   GL151157  32.953  31.068  11.663 -0.1386 -0.1376  0.0237
10725DGPE   GL251158  32.655  30.924  11.427  0.2029 -0.0565 -0.1649
10725DGPE   C1A51159  33.025  31.348  11.353 -0.1555  0.3858 -0.0522
10725DGPE   C2A51160  33.347  31.624  11.152 -0.2257 -0.2684  0.0154
10725DGPE   D3A51161  33.697  31.727  10.956 -0.0901  0.0006 -0.1872
10725DGPE   C4A51162  33.672  31.902  10.580  0.0926 -0.0489 -0.1123
10725DGPE   C5A51163  33.473  31.878  10.229  0.1519  0.0899  0.1441
10725DGPE   C1B51164  32.829  30.982  11.090  0.2739  0.1179  0.0779
10725DGPE   C2B51165  33.098  31.253  10.807 -0.0994 -0.0197  0.4376
10725DGPE   D3B51166  33.464  31.419  10.592  0.0310 -0.2054 -0.0426
10725DGPE   C4B51167  33.586  31.393  10.148 -0.1109  0.1527  0.1538
10725DGPE   C5B51168  33.438  31.636   9.787  0.0718  0.0268 -0.1327
10726DGPE   NH351169  30.831   5.548  10.326  0.1381  0.0732  0.1528
10726DGPE   PO451170  30.851   4.994  10.281  0.0439 -0.0402  0.1144
10726DGPE   GL151171  30.740   4.773   9.903  0.1415 -0.1034  0.2747
10726DGPE   GL251172  30.841   4.914   9.743  0.1646 -0.0393 -0.0834
10726DGPE   C1A51173  30.787   4.410   9.703  0.0689 -0.0567 -0.1371
10726DGPE   C2A51174  31.066   4.261   9.400 -0.0336  0.3223  0.1056
10726DGPE   D3A51175  31.242   3.965   9.265  0.0829 -0.0677  0.3271
10726DGPE   C4A51176  31.120   3.659   8.977  0.0148  0.0360  0.1186
10726DGPE   C5A51177  31.200   3.370   8.745 -0.0109  0.1611 -0.2664
10726DGPE   C1B51178  30.943   4.781   9.386 -0.1860  0.2171  0.1229
10726DGPE   C2B51179  31.191   4.606   8.986 -0.0196 -0.4090  0.2000
10726DGPE   D3B51180  31.277   4.569   8.591 -0.1648  0.2353  0.2541
10726DGPE   C4B51181  31.209   4.160   8.262  0.0109 -0.1429  0.0160
10726DGPE   C5B51182  31.208   3.755   8.457  0.0821 -0.1820 -0.3073
10727DGPE   NH351183  22.815  32.144  11.513  0.1096  0.3944 -0.2488
10727DGPE   PO451184  22.519  31.853  11.608 -0.2436 -0.2729  0.0528
10727DGPE   GL151185  22.136  32.042  11.538 -0.0007 -0.2336 -0.1294
10727DGPE   GL251186  21.990  31.820  11.599 -0.0794 -0.0247  0.1406
10727DGPE   C1A51187  21.981  32.143  11.154 -0.0811 -0.1526 -0.5517
10727DGPE   C2A51188  21.880  32.383  10.834  0.2533 -0.0375  0.3126
10727DGPE   D3A51189  21.598  32.504  10.668  0.1560 -0.3329 -0.0882
10727DGPE   C4A51190  21.666  32.535  10.175 -0.1439  0.1433 -0.1397
10727DGPE   C5A51191  21.726  32.995  10.056 -0.1256 -0.0463  0.1177
10727DGPE   C1B51192  21.664  31.730  11.275  0.0492 -0.0108 -0.0757
10727DGPE   C2B51193  21.382  31.715  11.072 -0.2275  0.0011 -0.2369
10727DGPE   D3B51194  21.229  31.703  10.793 -0.1891  0.0734 -0.0235
10727DGPE   C4B51195  20.869  31.808  10.923  0.0011  0.1333 -0.0091
10727DGPE   C5B51196  20.586  31.913  11.267  0.0757 -0.0445  0.3976
10728DGPE   NH351197   3.641  23.140  16.568 -0.0441 -0.0037  0.1036
10728DGPE   PO451198   3.702  23.310  16.985  0.0080 -0.1242  0.2206
10728DGPE   GL151199   4.031  23.295  17.076 -0.0704  0.0873 -0.1184
10728DGPE   GL251200   4.121  23.212  16.701  0.1305 -0.3196 -0.0268
10728DGPE   C1A51201   4.461  23.375  17.062  0.0872  0.1500 -0.0878
10728DGPE   C2A51202   4.883  23.377  17.067  0.3488  0.0495  0.1482
10728DGPE   D3A51203   5.220  23.371  16.993 -0.1841 -0.0211  0.1860
10728DGPE   C4A51204   5.571  23.269  17.311 -0.2266 -0.3824 -0.0420
10728DGPE   C5A51205   5.726  23.035  17.632 -0.1202 -0.2207  0.2999
10728DGPE   C1B51206   4.488  23.333  16.547 -0.1342  0.0295 -0.1973
10728DGPE   C2B51207   4.917  23.460  16.350 -0.0698 -0.0392 -0.1222
10728DGPE   D3B51208   5.094  23.325  15.858 -0.0666 -0.1247  0.0341
10728DGPE   C4B51209   5.501  23.232  15.967 -0.0386 -0.1504 -0.0956
10728DGPE   C5B51210   5.814  23.378  15.755  0.0058  0.1194 -0.2673
10729DGPE   NH351211   3.935  18.091  15.244  0.1813  0.0567 -0.0880
10729DGPE   PO451212   3.642  17.694  15.139 -0.1950  0.0949 -0.1432
10729DGPE   GL151213   4.009  17.674  14.979  0.0342 -0.3298  0.2153
10729DGPE   GL251214   4.279  17.636  15.199  0.1692  0.0158  0.1747
10729DGPE   C1A51215   4.422  17.538  14.727 -0.0594 -0.3601 -0.1196
10729DGPE   C2A51216   4.759  17.304  14.536 -0.0987 -0.3780  0.1013
10729DGPE   D3A51217   5.129  17.094  14.492 -0.1846  0.2000  0.1703
10729DGPE   C4A51218   5.389  17.145  14.159  0.2687  0.1000  0.2399
10729DGPE   C5A51219   5.749  17.410  14.227 -0.0927 -0.2412  0.0878
10729DGPE   C1B51220   4.664  17.731  15.415  0.1532 -0.0358 -0.2593
10729DGPE   C2B51221   4.990  17.845  15.206 -0.1578 -0.0793 -0.3533
10729DGPE   D3B51222   5.316  18.085  15.019 -0.1002  0.1717 -0.1708
10729DGPE   C4B51223   5.554  18.055  14.990  0.0007 -0.2037 -0.0919
10729DGPE   C5B51224   5.960  18.260  14.937 -0.4071  0.1088  0.1410
10730DGPE   NH351225  34.848   3.669  12.354 -0.0669 -0.2876  0.0541
10730DGPE   PO451226  35.079   3.211  12.394  0.1021 -0.0992  0.0547
10730DGPE   GL151227  35.043   3.040  12.027 -0.1169 -0.0457  0.0713
10730DGPE   GL251228  34.747   3.190  11.950 -0.4637 -0.2028 -0.1002
10730DGPE   C1A51229  35.244   2.828  11.684 -0.0084  0.0984 -0.3017
10730DGPE   C2A51230   0.014   3.083  11.413  0.2099  0.2003  0.0531
10730DGPE   D3A51231   0.312   3.000  11.044  0.2909  0.2622  0.0829
10730DGPE   C4A51232   0.110   2.631  10.860  0.0713 -0.2600  0.2747
10730DGPE   C5A51233   0.064   2.414  10.412  0.1194 -0.0244  0.0495
10730DGPE   C1B51234  34.790   3.089  11.560  0.1093 -0.1460  0.1371
10730DGPE   C2B51235  34.969   2.866  11.229 -0.0503  0.0549 -0.0165
10730DGPE   D3B51236  34.953   2.847  10.864 -0.0047  0.2032  0.4267
10730DGPE   C4B51237  35.211   2.933  10.476 -0.0299  0.0756  0.1132
10730DGPE   C5B51238   0.201   3.109  10.461  0.1478  0.1721  0.0533
10731DGPE   NH351239  13.837  29.709  20.824  0.1006  0.1359  0.3632
10731DGPE   PO451240  13.521  29.780  21.031  0.1730  0.0834  0.1197
10731DGPE   GL151241  13.135  29.720  20.777  0.2014  0.1031 -0.1662
10731DGPE   GL251242  12.826  29.631  20.999 -0.0128 -0.3611  0.3457
10731DGPE   C1A51243  12.841  29.607  20.496 -0.0132  0.0810 -0.5924
10731DGPE   C2A51244  12.833  29.450  20.059  0.0472  0.2980  0.0427
10731DGPE   D3A51245  12.738  29.602  19.594  0.1304  0.1483  0.0067
10731DGPE   C4A51246  12.947  29.898  19.484 -0.0421  0.0563  0.1472
10731DGPE   C5A51247  13.468  30.023  19.660  0.0503  0.2806  0.1377
10731DGPE   C1B51248  12.772  29.261  20.832 -0.3670  0.2805  0.2957
10731DGPE   C2B51249  12.872  29.040  20.432 -0.0612 -0.0188 -0.0475
10731DGPE   D3B51250  12.571  28.798  20.385 -0.3499  0.0752  0.1055
10731DGPE   C4B51251  12.649  28.586  19.955  0.3736  0.3010 -0.0739
10731DGPE   C5B51252  12.502  28.751  19.596  0.3194  0.1790  0.1141
10732DGPE   NH351253  12.297  23.733  22.108  0.0462 -0.0483 -0.1869
10732DGPE   PO451254  12.532  24.129  22.141 -0.4269  0.1200  0.3204
10732DGPE   GL151255  12.593  24.032  21.752  0.2045  0.1744 -0.0994
10732DGPE   GL251256  12.278  23.690  21.620 -0.0624 -0.2971 -0.0964
10732DGPE   C1A51257  12.716  23.880  21.332  0.2495  0.1779  0.1139
10732DGPE   C2A51258  12.616  23.823  20.822  0.2272 -0.1984  0.3208
10732DGPE   D3A51259  12.610  23.792  20.417 -0.0806 -0.0403 -0.0179
10732DGPE   C4A51260  12.868  23.505  20.198 -0.0381 -0.2338  0.0126
10732DGPE   C5A51261  12.771  23.423  19.856 -0.1010 -0.1765 -0.1231
10732DGPE   C1B51262  12.299  23.661  21.203  0.0021 -0.1370 -0.1084
10732DGPE   C2B51263  12.113  23.690  20.757 -0.0974  0.0280  0.1300
10732DGPE   D3B51264  11.793  23.534  20.462  0.0168 -0.2216 -0.0916
10732DGPE   C4B51265  11.908  23.113  20.155 -0.3919 -0.0533  0.1007
10732DGPE   C5B51266  12.108  22.763  19.950  0.0966 -0.0296 -0.2546
10733DGPE   NH351267  19.497  13.227  17.154  0.0514 -0.0231  0.0658
10733DGPE   PO451268  19.929  13.079  17.061 -0.0442  0.0115 -0.0551
10733DGPE   GL151269  19.607  12.928  16.655  0.0678 -0.0201 -0.0405
10733DGPE   GL251270  19.357  12.740  16.655  0.0154 -0.0419  0.1521
10733DGPE   C1A51271  19.747  12.703  16.243  0.1979  0.0769  0.0544
10733DGPE   C2A51272  19.767  12.852  15.789  0.0692  0.0804  0.0111
10733DGPE   D3A51273  19.842  13.043  15.441 -0.3159 -0.1763  0.0660
10733DGPE   C4A51274  19.588  12.945  15.034  0.2324 -0.0974  0.1408
10733DGPE   C5A51275  19.267  12.698  14.934  0.1338  0.3108 -0.1212
10733DGPE   C1B51276  19.296  13.107  16.357  0.3393 -0.2679 -0.1169
10733DGPE   C2B51277  19.297  13.456  16.376 -0.0735 -0.0350 -0.0344
10733DGPE   D3B51278  18.962  13.768  16.218  0.3601  0.2636  0.1590
10733DGPE   C4B51279  18.709  13.542  15.786  0.0852  0.1587  0.1567
10733DGPE   C5B51280  18.498  13.465  15.413  0.0851 -0.2259  0.1569
10734DGPE   NH351281  15.431  18.712  20.057 -0.3154  0.3012  0.0271
10734DGPE   PO451282  15.128  18.408  20.061  0.5011 -0.1152  0.1393
10734DGPE   GL151283  14.867  18.545  19.860 -0.1344 -0.2145  0.2271
10734DGPE   GL251284  14.687  18.666  20.117 -0.0788 -0.0651  0.2370
10734DGPE   C1A51285  14.634  18.508  19.478 -0.3961  0.6408  0.0588
10734DGPE   C2A51286  14.573  18.446  19.202  0.0679 -0.0562 -0.0850
10734DGPE   D3A51287  14.514  18.367  18.769  0.0489  0.0657 -0.3342
10734DGPE   C4A51288  14.858  18.361  18.533  0.1959 -0.0386 -0.2798
10734DGPE   C5A51289  14.860  18.492  18.156 -0.0726 -0.0181  0.3149
10734DGPE   C1B51290  14.426  18.826  19.802 -0.0043  0.4369  0.0158
10734DGPE   C2B51291  14.248  19.072  19.484 -0.1684  0.0912 -0.1728
10734DGPE   D3B51292  14.053  19.317  19.121  0.2031 -0.2469 -0.1869
10734DGPE   C4B51293  13.743  19.484  18.887  0.3328 -0.1153 -0.1361
10734DGPE   C5B51294  13.482  19.713  18.915 -0.1037 -0.3262  0.2665
10735DGPE   NH351295  21.987  26.058  14.813 -0.0557  0.4159 -0.0240
10735DGPE   PO451296  21.771  26.413  14.753 -0.1523 -0.3577 -0.3444
10735DGPE   GL151297  21.485  26.433  14.492 -0.0912 -0.0369  0.1952
10735DGPE   GL251298  21.525  26.545  14.238  0.0961  0.0795 -0.1618
10735DGPE   C1A51299  21.085  26.384  14.365  0.2475 -0.0357  0.0198
10735DGPE   C2A51300  20.642  26.264  14.236  0.0190 -0.3399  0.1499
10735DGPE   D3A51301  20.311  26.029  14.188  0.0940  0.8182 -0.2641
10735DGPE   C4A51302  20.335  25.568  14.222  0.2646  0.1017  0.0429
10735DGPE   C5A51303  20.333  25.106  14.399 -0.1011 -0.0604  0.1620
10735DGPE   C1B51304  21.503  26.470  13.779  0.0266  0.0457 -0.0299
10735DGPE   C2B51305  21.169  26.206  13.629  0.0443  0.3054  0.0299
10735DGPE   D3B51306  20.741  25.958  13.513 -0.2060 -0.3693  0.0037
10735DGPE   C4B51307  20.542  25.668  13.712  0.1013  0.0109 -0.1892
10735DGPE   C5B51308  20.709  25.293  13.993 -0.2792  0.0070 -0.1490
10736DAPE   NH351309  19.901  23.657  17.895 -0.0703  0.1156  0.0544
10736DAPE   PO451310  19.847  23.469  17.533  0.0375  0.0388  0.1316
10736DAPE   GL151311  19.829  23.199  17.268 -0.1705 -0.0632  0.3219
10736DAPE   GL251312  19.923  23.360  16.950  0.1734 -0.1347 -0.0864
10736DAPE   D1A51313  19.912  22.782  17.009  0.3087 -0.1156 -0.0875
10736DAPE   D2A51314  20.222  22.851  16.665  0.0974 -0.0539 -0.0541
10736DAPE   D3A51315  19.994  23.218  16.390 -0.0076 -0.0703 -0.0170
10736DAPE   D4A51316  19.817  23.651  16.590  0.1416  0.0754 -0.0693
10736DAPE   C5A51317  19.580  23.906  16.333 -0.1486  0.0016  0.3678
10736DAPE   D1B51318  19.586  23.186  16.827 -0.2020 -0.0830  0.2591
10736DAPE   D2B51319  19.438  23.360  16.545 -0.3279 -0.2573  0.0403
10736DAPE   D3B51320  19.374  23.487  16.156 -0.1879 -0.1339  0.1312
10736DAPE   D4B51321  19.033  23.383  15.900  0.3769  0.1260 -0.2077
10736DAPE   C5B51322  19.038  23.066  15.726  0.2555 -0.0862  0.1361
10737DAPE   NH351323  34.683   0.276  13.314 -0.1384 -0.0729  0.0574
10737DAPE   PO451324  34.530   0.037  13.585 -0.2488  0.3245 -0.2345
10737DAPE   GL151325  34.925  35.244  13.561 -0.1564 -0.0648 -0.0753
10737DAPE   GL251326  35.180  35.050  13.547  0.4857  0.3586  0.0458
10737DAPE   D1A51327  34.891  35.181  13.165  0.0480 -0.1621 -0.1497
10737DAPE   D2A51328  35.290  35.186  13.032 -0.3335  0.4236  0.0514
10737DAPE   D3A51329  35.323   0.200  12.876 -0.0511  0.1456  0.0725
10737DAPE   D4A51330  35.143   0.416  13.224 -0.1121 -0.1986  0.2855
10737DAPE   C5A51331  35.292   0.606  13.515  0.1026  0.0233 -0.1736
10737DAPE   D1B51332   0.118  35.011  13.901 -0.1054 -0.0380 -0.4236
10737DAPE   D2B51333   0.360  35.055  13.554 -0.0591  0.0986 -0.0589
10737DAPE   D3B51334   0.525   0.052  13.761  0.0179 -0.2892 -0.0110
10737DAPE   D4B51335   0.838   0.409  13.620 -0.0247 -0.1850 -0.0114
10737DAPE   C5B51336   0.913   0.463  13.268 -0.0789 -0.0947 -0.1216
10738DAPE   NH351337   7.954   9.221  18.094  0.0736 -0.0056  0.1258
10738DAPE   PO451338   7.582   9.393  17.949  0.2240  0.1416  0.2705
10738DAPE   GL151339   7.756   9.327  17.532  0.1146 -0.2882  0.0989
10738DAPE   GL251340   7.517   9.398  17.444 -0.0275  0.2644  0.1199
10738DAPE   D1A51341   8.103   9.001  17.578  0.1448 -0.1067 -0.0637
10738DAPE   D2A51342   8.275   8.861  17.158  0.0933 -0.3622  0.0831
10738DAPE   D3A51343   8.705   9.013  17.437  0.1583  0.2304  0.0999
10738DAPE   D4A51344   9.020   8.666  17.577 -0.1469 -0.0551  0.1205
10738DAPE   C5A51345   9.090   8.339  17.689 -0.6672 -0.0333 -0.0923
10738DAPE   D1B51346   7.171   9.628  17.372  0.1873  0.0296 -0.1694
10738DAPE   D2B51347   7.466   9.672  16.981  0.0879 -0.0091  0.0450
10738DAPE   D3B51348   7.300   9.927  16.684 -0.1210  0.3677  0.0611
10738DAPE   D4B51349   7.120  10.142  17.000 -0.3362  0.3586 -0.1872
10738DAPE   C5B51350   7.440  10.079  17.329  0.0614 -0.3061  0.0448
10739DAPE   NH351351  17.299  22.812  21.255 -0.3125  0.1799 -0.0515
10739DAPE   PO451352  16.898  22.984  21.223 -0.1077 -0.0125  0.2211
10739DAPE   GL151353  16.974  22.828  20.783 -0.1387  0.0511 -0.0966
10739DAPE   GL251354  17.118  22.590  20.670 -0.0141 -0.0463  0.0344
10739DAPE   D1A51355  17.098  23.057  20.423 -0.2716 -0.1912 -0.0357
10739DAPE   D2A51356  16.725  23.068  20.434 -0.1676  0.1304 -0.3408
10739DAPE   D3A51357  16.779  23.539  20.526  0.4408 -0.2365 -0.2999
10739DAPE   D4A51358  17.060  23.866  20.338  0.0288 -0.1553 -0.2164
10739DAPE   C5A51359  17.191  23.853  19.928  0.2461 -0.1905 -0.0817
10739DAPE   D1B51360  16.916  22.531  20.229 -0.0158 -0.0935 -0.0994
10739DAPE   D2B51361  17.131  22.154  20.056 -0.1005  0.0515  0.2576
10739DAPE   D3B51362  16.873  21.818  19.824  0.0605  0.0420 -0.1086
10739DAPE   D4B51363  16.937  22.170  19.522 -0.1085 -0.1432  0.0617
10739DAPE   C5B51364  17.255  22.504  19.690  0.2219 -0.4206  0.0085
10740DAPE   NH351365  22.274   7.988  14.698 -0.2767 -0.1339  0.2832
10740DAPE   PO451366  22.027   8.216  15.123  0.0171  0.1397  0.0749
10740DAPE   GL151367  21.792   8.266  15.369  0.0640 -0.5366  0.2414
10740DAPE   GL251368  21.559   8.435  15.423  0.0440 -0.0600  0.2466
10740DAPE   D1A51369  21.420   7.941  15.572  0.0727  0.1103  0.1360
10740DAPE   D2A51370  21.040   8.183  15.649 -0.2665  0.1450 -0.0660
10740DAPE   D3A51371  20.630   7.935  15.541 -0.1151 -0.0586 -0.4017
10740DAPE   D4A51372  20.653   8.041  15.073 -0.0919  0.1022 -0.2130
10740DAPE   C5A51373  20.334   8.148  14.836  0.2416  0.2823  0.0820
10740DAPE   D1B51374  21.516   8.465  15.000  0.0110 -0.4009 -0.1764
10740DAPE   D2B51375  21.552   8.905  14.971 -0.1925 -0.0007  0.4366
10740DAPE   D3B51376  21.149   8.971  14.946  0.0245 -0.1623  0.1333
10740DAPE   D4B51377  21.240   8.638  14.522 -0.0680 -0.1651 -0.1024
10740DAPE   C5B51378  20.944   8.597  14.310 -0.0303 -0.0571  0.2793
10741DAPE   NH351379   7.049   2.216  19.568  0.0368  0.0016 -0.1215
10741DAPE   PO451380   6.900   2.168  19.136 -0.0291  0.1586 -0.0160
10741DAPE   GL151381   6.999   1.867  18.726 -0.0562  0.1257  0.1204
10741DAPE   GL251382   7.284   1.759  18.589  0.1033  0.1832 -0.2349
10741DAPE   D1A51383   6.716   1.947  18.334  0.0422  0.2951 -0.0808
10741DAPE   D2A51384   6.823   1.527  18.371 -0.1244 -0.1516  0.1316
10741DAPE   D3A51385   7.010   1.179  18.138  0.2352  0.2725 -0.0938
10741DAPE   D4A51386   7.251   1.539  18.125  0.2049 -0.2720  0.0173
10741DAPE   C5A51387   7.629   1.615  17.847 -0.3512 -0.1877  0.1181
10741DAPE   D1B51388   7.668   1.723  18.364 -0.0305 -0.0930 -0.0208
10741DAPE   D2B51389   7.994   1.396  18.626 -0.1080 -0.2256  0.0951
10741DAPE   D3B51390   7.995   1.318  18.225  0.0039 -0.0210  0.4640
10741DAPE   D4B51391   8.077   1.682  17.890 -0.1757  0.1745  0.1385
10741DAPE   C5B51392   8.420   1.997  17.595 -0.0920  0.0396  0.2031
10742DAPE   NH351393   4.241   2.813  17.975  0.1114  0.1763  0.3133
10742DAPE   PO451394   4.156   3.079  17.696 -0.0472  0.1199 -0.2153
10742DAPE   GL151395   4.373   3.106  17.349  0.1170  0.0126  0.1561
10742DAPE   GL251396   4.479   3.290  17.132  0.1365  0.0598 -0.1209
10742DAPE   D1A51397   4.505   2.826  17.016 -0.0481 -0.0749 -0.0942
10742DAPE   D2A51398   4.927   2.715  17.112 -0.0406  0.1337 -0.1731
10742DAPE   D3A51399   5.176   2.973  17.484 -0.2517 -0.2234 -0.1174
10742DAPE   D4A51400   5.509   3.049  17.275 -0.0721  0.0988  0.0503
10742DAPE   C5A51401   5.897   2.808  17.258 -0.0489 -0.1411  0.0927
10742DAPE   D1B51402   4.765   3.195  16.870  0.1677  0.0106  0.2274
10742DAPE   D2B51403   4.508   3.152  16.507  0.3297  0.3668  0.0926
10742DAPE   D3B51404   4.249   3.279  16.183  0.0977 -0.3640  0.0617
10742DAPE   D4B51405   4.367   3.283  15.875 -0.1531  0.2156 -0.1134
10742DAPE   C5B51406   4.495   3.363  15.453 -0.1707  0.0102 -0.0461
10743DAPE   NH351407  24.760  21.118  10.944 -0.0226 -0.2870  0.1390
10743DAPE   PO451408  24.573  20.814  11.301  0.0044  0.0436 -0.0319
10743DAPE   GL151409  24.258  21.045  11.071  0.0606  0.2152  0.0348
10743DAPE   GL251410  24.084  20.833  10.995 -0.1187  0.0675  0.1152
10743DAPE   D1A51411  23.935  21.264  10.921  0.1093  0.0610  0.2495
10743DAPE   D2A51412  23.789  21.098  10.589  0.1216 -0.3206  0.1313
10743DAPE   D3A51413  23.329  21.153  10.499 -0.0498  0.1915  0.1669
10743DAPE   D4A51414  23.068  20.783  10.396 -0.0588  0.4018  0.0664
10743DAPE   C5A51415  23.111  20.359  10.479  0.1075 -0.0388  0.0792
10743DAPE   D1B51416  23.754  20.684  10.946 -0.2013  0.0292 -0.0826
10743DAPE   D2B51417  23.501  20.690  10.532 -0.0908  0.0291  0.1427
10743DAPE   D3B51418  23.603  20.284  10.743  0.0912  0.0414 -0.0196
10743DAPE   D4B51419  23.281  20.400  10.957  0.0310  0.2138  0.1623
10743DAPE   C5B51420  23.127  20.692  10.881 -0.0253  0.1231 -0.0262
10744DAPE   NH351421  13.270  21.789  22.159  0.2392  0.1302 -0.1824
10744DAPE   PO451422  12.918  22.076  21.926  0.1922  0.0572  0.1945
10744DAPE   GL151423  12.781  22.316  21.625  0.1803  0.0313 -0.0897
10744DAPE   GL251424  12.678  22.013  21.441  0.1314  0.1590  0.2421
10744DAPE   D1A51425  12.639  22.647  21.337 -0.0125 -0.2482 -0.3428
10744DAPE   D2A51426  12.199  22.680  21.372  0.1934  0.0014 -0.0695
10744DAPE   D3A51427  12.274  22.287  21.364  0.0079 -0.0050  0.1801
10744DAPE   D4A51428  12.340  22.395  21.022 -0.2093 -0.0063  0.0785
10744DAPE   C5A51429  11.943  22.515  20.849  0.1196  0.0368 -0.0504
10744DAPE   D1B51430  12.704  21.914  21.048 -0.1566  0.0230 -0.0369
10744DAPE   D2B51431  13.091  21.902  20.865 -0.2086  0.0153  0.1983
10744DAPE   D3B51432  13.186  22.093  21.254 -0.3854 -0.5440 -0.1257
10744DAPE   D4B51433  12.914  22.348  21.013  0.1935  0.0922 -0.2405
10744DAPE   C5B51434  12.996  22.569  20.581 -0.1656 -0.0732  0.0815
10745DAPE   NH351435  15.398  30.461  20.073  0.1038  0.0920 -0.1746
10745DAPE   PO451436  15.823  30.485  20.114 -0.0388 -0.1592 -0.3158
10745DAPE   GL151437  15.796  30.382  19.675 -0.0883 -0.2519 -0.0917
10745DAPE   GL251438  16.047  30.592  19.536 -0.0328 -0.1376  0.0369
10745DAPE   D1A51439  15.897  29.985  19.444  0.1063  0.1566 -0.0474
10745DAPE   D2A51440  16.272  30.178  19.237 -0.0766  0.0217 -0.3134
10745DAPE   D3A51441  16.197  29.816  18.955 -0.1252  0.0946 -0.4275
10745DAPE   D4A51442  15.899  29.850  18.637  0.2120 -0.3907 -0.1703
10745DAPE   C5A51443  15.489  29.994  18.454  0.2272 -0.0444  0.1011
10745DAPE   D1B51444  15.872  30.506  19.161  0.1594  0.1743  0.1112
10745DAPE   D2B51445  15.824  30.183  18.988 -0.2822  0.1059 -0.0224
10745DAPE   D3B51446  16.192  30.412  18.801  0.1099 -0.1358  0.0886
10745DAPE   D4B51447  16.400  30.716  18.969 -0.0337  0.1278 -0.0333
10745DAPE   C5B51448  16.210  30.995  19.101 -0.0954 -0.0993  0.1008
10746DAPE   NH351449  18.523  13.064  16.994 -0.1918 -0.2205  0.1062
10746DAPE   PO451450  18.997  13.133  17.091  0.0389  0.0308 -0.0999
10746DAPE   GL151451  18.943  13.257  16.721 -0.1428  0.1920 -0.1636
10746DAPE   GL251452  18.909  12.925  16.624 -0.1517  0.0107 -0.0395
10746DAPE   D1A51453  18.741  13.541  16.585  0.0016 -0.0086 -0.0474
10746DAPE   D2A51454  18.818  13.304  16.240 -0.4796  0.1457  0.2105
10746DAPE   D3A51455  18.689  12.978  16.197  0.0850 -0.3939 -0.4712
10746DAPE   D4A51456  18.668  13.069  15.732  0.0478  0.4590  0.0953
10746DAPE   C5A51457  18.370  12.821  15.564  0.0133 -0.3266 -0.2108
10746DAPE   D1B51458  19.006  12.569  16.266 -0.0513  0.0298 -0.2325
10746DAPE   D2B51459  19.161  12.834  15.921  0.0205 -0.0566  0.0271
10746DAPE   D3B51460  18.939  12.599  15.738  0.1448 -0.0212 -0.0518
10746DAPE   D4B51461  18.553  12.553  16.024  0.0963 -0.0713  0.1686
10746DAPE   C5B51462  18.483  12.283  16.464 -0.1256 -0.0282  0.2610
10747DAPE   NH351463  14.938  27.251  21.621  0.3299 -0.1434  0.3354
10747DAPE   PO451464  14.591  27.232  21.742  0.1650 -0.1217 -0.1174
10747DAPE   GL151465  14.416  27.261  21.286 -0.1791  0.1888 -0.0626
10747DAPE   GL251466  14.720  27.200  21.186  0.0347  0.2499 -0.0259
10747DAPE   D1A51467  14.437  27.625  21.023  0.0387  0.1201  0.2028
10747DAPE   D2A51468  14.154  27.259  20.826 -0.4075  0.0473  0.1082
10747DAPE   D3A51469  13.849  27.279  21.240 -0.0138  0.0766 -0.0823
10747DAPE   D4A51470  13.552  27.364  20.947  0.1394  0.1992 -0.4185
10747DAPE   C5A51471  13.206  27.206  21.060 -0.1615  0.1955 -0.2753
10747DAPE   D1B51472  14.555  26.927  20.853  0.1635 -0.0107  0.1408
10747DAPE   D2B51473  14.920  26.846  20.927  0.0745 -0.1654 -0.1060
10747DAPE   D3B51474  15.023  26.724  20.445 -0.1219 -0.1823 -0.0470
10747DAPE   D4B51475  14.832  26.384  20.243  0.1329 -0.1061 -0.0045
10747DAPE   C5B51476  14.544  26.209  20.084 -0.0921  0.0476  0.3624
10748DAPE   NH351477   8.552  22.908  21.406 -0.1101  0.2307  0.1700
10748DAPE   PO451478   8.328  23.147  21.613 -0.2187  0.1752 -0.2296
10748DAPE   GL151479   8.511  23.423  21.186 -0.1394  0.2992  0.0952
10748DAPE   GL251480   8.334  23.487  20.912 -0.0506  0.1216  0.1623
10748DAPE   D1A51481   8.825  23.707  21.245  0.0714  0.0107 -0.2686
10748DAPE   D2A51482   8.707  23.822  20.810 -0.0810 -0.0249  0.4590
10748DAPE   D3A51483   8.673  24.159  21.117  0.0051 -0.0125  0.1489
10748DAPE   D4A51484   8.497  24.322  20.807  0.3392  0.1271 -0.2452
10748DAPE   C5A51485   8.684  24.395  20.419  0.1251  0.0904 -0.1229
10748DAPE   D1B51486   8.493  23.430  20.575 -0.0093  0.2367 -0.1320
10748DAPE   D2B51487   8.659  23.165  20.302 -0.3342 -0.1316  0.2199
10748DAPE   D3B51488   8.921  23.453  20.192  0.2940 -0.3231 -0.0555
10748DAPE   D4B51489   8.853  23.829  20.369 -0.3118  0.1021 -0.0730
10748DAPE   C5B51490   8.991  24.100  20.093 -0.1595 -0.2174  0.0976
10749DAPE   NH351491   9.512  26.762  21.631 -0.2349 -0.3226  0.2042
10749DAPE   PO451492   9.260  26.738  21.323 -0.0210  0.3284 -0.1163
10749DAPE   GL151493   9.787  26.536  21.223 -0.0354  0.0452 -0.0009
10749DAPE   GL251494   9.817  26.290  21.492  0.0704 -0.0389 -0.1478
10749DAPE   D1A51495  10.309  26.497  21.259 -0.0423 -0.2681 -0.0785
10749DAPE   D2A51496  10.508  26.224  21.007  0.0615  0.2615  0.1764
10749DAPE   D3A51497  10.834  26.445  21.273  0.2623  0.3481 -0.0634
10749DAPE   D4A51498  10.620  26.165  21.464 -0.0049 -0.1189 -0.0237
10749DAPE   C5A51499  10.768  26.068  21.779 -0.2062  0.1290  0.3860
10749DAPE   D1B51500  10.195  26.119  21.661  0.2616 -0.0588  0.1996
10749DAPE   D2B51501  10.262  25.755  21.394 -0.2688  0.0583  0.2676
10749DAPE   D3B51502  10.069  26.017  21.103  0.0612 -0.1528  0.3313
10749DAPE   D4B51503  10.344  25.808  20.812  0.2554  0.0131 -0.0532
10749DAPE   C5B51504  10.265  25.822  20.315 -0.1898 -0.0398  0.3356
10750DAPE   NH351505   5.460  29.194  20.119 -0.0218 -0.0935  0.0329
10750DAPE   PO451506   5.752  29.619  20.195 -0.2688  0.3273 -0.1316
10750DAPE   GL151507   5.908  29.398  19.839 -0.0592 -0.3497 -0.0981
10750DAPE   GL251508   5.774  29.109  19.735  0.0796 -0.1483 -0.0470
10750DAPE   D1A51509   6.076  29.325  19.410 -0.2184 -0.0307  0.2107
10750DAPE   D2A51510   5.703  29.438  19.230  0.1647 -0.1745  0.0428
10750DAPE   D3A51511   5.854  29.296  18.879 -0.2757 -0.0781 -0.0266
10750DAPE   D4A51512   5.823  29.499  18.642 -0.0729  0.2400  0.1055
10750DAPE   C5A51513   5.834  29.184  18.287 -0.1089  0.4248  0.4042
10750DAPE   D1B51514   5.983  28.768  19.768  0.0505  0.2479 -0.2430
10750DAPE   D2B51515   5.581  28.688  19.554  0.1867  0.0264  0.2349
10750DAPE   D3B51516   5.938  28.446  19.398 -0.2608 -0.2714 -0.0356
10750DAPE   D4B51517   5.739  28.429  18.953 -0.0889 -0.0982 -0.1132
10750DAPE   C5B51518   5.778  28.831  18.671  0.2433  0.2889  0.1233
10751DAPE   NH351519   3.280  25.137  18.092  0.0766  0.2243  0.0319
10751DAPE   PO451520   2.892  25.308  18.203  0.1856 -0.1041  0.0444
10751DAPE   GL151521   3.113  25.635  18.141 -0.0355 -0.1563  0.1753
10751DAPE   GL251522   3.151  25.983  18.409 -0.0600 -0.1196 -0.1347
10751DAPE   D1A51523   3.326  25.948  17.900  0.1597 -0.1810 -0.1768
10751DAPE   D2A51524   3.652  26.236  17.984  0.1746 -0.1617  0.2699
10751DAPE   D3A51525   3.884  26.241  18.423 -0.0263  0.0438  0.0022
10751DAPE   D4A51526   4.102  25.930  18.199 -0.1183 -0.1085 -0.0827
10751DAPE   C5A51527   4.199  25.614  18.534  0.1922  0.1012  0.2032
10751DAPE   D1B51528   3.657  25.779  18.278 -0.1749 -0.2374 -0.2458
10751DAPE   D2B51529   3.851  25.418  18.149 -0.1517  0.0522 -0.3888
10751DAPE   D3B51530   4.327  25.352  18.154  0.2843  0.1295  0.1328
10751DAPE   D4B51531   4.573  25.602  17.922 -0.0203  0.1723  0.1401
10751DAPE   C5B51532   4.993  25.744  17.996 -0.1382  0.0509  0.1264
10752DAPE   NH351533   3.561   1.062  16.906  0.2093  0.2658 -0.0872
10752DAPE   PO451534   3.789   0.843  17.236 -0.0751  0.2748 -0.1322
10752DAPE   GL151535   4.148   0.679  17.220 -0.1949 -0.0014  0.4185
10752DAPE   GL251536   4.420   0.715  17.327  0.1201  0.1126  0.0241
10752DAPE   D1A51537   4.340   0.236  17.301 -0.0067 -0.2345  0.2026
10752DAPE   D2A51538   4.396   0.418  16.891 -0.1917 -0.0706 -0.1202
10752DAPE   D3A51539   4.855   0.300  16.803 -0.0916 -0.2051 -0.0806
10752DAPE   D4A51540   4.776   0.262  17.167 -0.0968  0.0531  0.1037
10752DAPE   C5A51541   5.000   0.217  17.582 -0.2606  0.2747 -0.1933
10752DAPE   D1B51542   4.604   0.486  17.664  0.2013 -0.3385  0.1899
10752DAPE   D2B51543   4.591   0.439  18.125  0.0989 -0.1427  0.0501
10752DAPE   D3B51544   4.547   0.003  18.272 -0.1686 -0.0207 -0.0598
10752DAPE   D4B51545   4.666  35.342  17.859  0.1473  0.0175  0.3417
10752DAPE   C5B51546   5.082  35.159  17.757 -0.3477  0.1485  0.0961
10753DAPE   NH351547  23.368  21.740  13.829  0.0569 -0.1124  0.0178
10753DAPE   PO451548  22.943  21.802  13.870 -0.0943  0.1783 -0.2239
10753DAPE   GL151549  22.578  21.555  13.743  0.1452 -0.0229 -0.1838
10753DAPE   GL251550  22.511  21.730  13.468  0.0162 -0.1478  0.0621
10753DAPE   D1A51551  22.214  21.556  14.036  0.3284  0.0351  0.3543
10753DAPE   D2A51552  21.971  21.160  14.200 -0.1276  0.2226  0.0368
10753DAPE   D3A51553  21.740  21.533  13.903 -0.2172 -0.0162  0.1044
10753DAPE   D4A51554  21.334  21.364  14.019 -0.2015  0.0744  0.0471
10753DAPE   C5A51555  20.938  21.595  13.858 -0.3293  0.2513  0.2006
10753DAPE   D1B51556  22.111  21.803  13.676 -0.0339  0.1356  0.1082
10753DAPE   D2B51557  21.810  21.846  13.392  0.4430 -0.1357  0.3143
10753DAPE   D3B51558  22.040  21.421  13.238 -0.0742  0.0518 -0.3035
10753DAPE   D4B51559  22.131  21.262  13.627  0.0279  0.0055 -0.3136
10753DAPE   C5B51560  22.145  20.798  13.692  0.0887 -0.1324  0.0582
10754DAPE   NH351561  20.260  22.440  17.086 -0.0842 -0.2156 -0.1690
10754DAPE   PO451562  20.036  22.660  17.454 -0.1093  0.2800 -0.2946
10754DAPE   GL151563  19.909  22.257  17.337  0.0479  0.1902 -0.0201
10754DAPE   GL251564  19.968  21.882  17.426 -0.0172  0.1131  0.2434
10754DAPE   D1A51565  19.667  21.970  16.933  0.0197  0.0573 -0.0548
10754DAPE   D2A51566  20.061  22.064  16.826  0.3178  0.2043  0.3101
10754DAPE   D3A51567  19.786  22.402  16.724 -0.2405 -0.3104 -0.0456
10754DAPE   D4A51568  19.552  22.301  16.382 -0.0999 -0.4858  0.0972
10754DAPE   C5A51569  19.211  22.277  16.093 -0.2406  0.1107  0.0666
10754DAPE   D1B51570  19.993  21.551  17.220 -0.1103 -0.2785 -0.2022
10754DAPE   D2B51571  19.866  21.540  16.732 -0.0980 -0.2015 -0.1284
10754DAPE   D3B51572  19.542  21.792  16.463  0.1978 -0.0753  0.0573
10754DAPE   D4B51573  19.914  21.466  16.246 -0.0946 -0.0695  0.2088
10754DAPE   C5B51574  19.958  21.493  15.823  0.1765 -0.3454 -0.1979
10755DAPE   NH351575  15.408  12.035  19.345  0.3279 -0.0018  0.2814
10755DAPE   PO451576  15.600  12.258  19.097 -0.2367  0.1147  0.0566
10755DAPE   GL151577  15.418  12.679  18.942 -0.3281 -0.0664 -0.0487
10755DAPE   GL251578  15.410  12.611  18.621  0.0666  0.0235  0.0159
10755DAPE   D1A51579  15.384  13.077  18.802 -0.0210  0.2995  0.1654
10755DAPE   D2A51580  14.942  12.841  18.968 -0.3407  0.0966  0.0013
10755DAPE   D3A51581  14.621  12.515  18.924  0.0499 -0.0867  0.3821
10755DAPE   D4A51582  14.338  12.808  18.966  0.1796  0.0944 -0.0912
10755DAPE   C5A51583  14.106  13.025  18.677  0.0522  0.0653 -0.1497
10755DAPE   D1B51584  15.844  12.551  18.728 -0.1028  0.1128  0.0075
10755DAPE   D2B51585  15.824  12.923  18.568  0.1710 -0.0530 -0.0180
10755DAPE   D3B51586  15.657  12.788  18.184 -0.1468 -0.0595  0.3224
10755DAPE   D4B51587  15.850  12.388  18.185 -0.0094 -0.0952 -0.2042
10755DAPE   C5B51588  15.657  11.978  18.014  0.1332 -0.3875 -0.1606
10756DAPE   NH351589   4.858  27.557  20.415 -0.0102  0.0252 -0.0141
10756DAPE   PO451590   5.235  27.868  20.451 -0.0369 -0.1748 -0.1302
10756DAPE   GL151591   5.310  27.805  20.137 -0.0170 -0.0948 -0.2231
10756DAPE   GL251592   5.224  27.453  20.010  0.1698 -0.1297  0.0058
10756DAPE   D1A51593   5.592  27.689  19.741 -0.0138  0.0538  0.1248
10756DAPE   D2A51594   5.879  27.347  19.920 -0.1348 -0.1009 -0.0978
10756DAPE   D3A51595   6.238  27.204  19.758  0.1909  0.1291  0.1671
10756DAPE   D4A51596   6.360  27.508  20.081  0.5670  0.0435 -0.2743
10756DAPE   C5A51597   5.934  27.796  20.133 -0.1896 -0.1128 -0.2694
10756DAPE   D1B51598   5.142  27.210  19.635  0.0716  0.1013 -0.0962
10756DAPE   D2B51599   5.288  27.242  19.216  0.2314 -0.4414  0.3277
10756DAPE   D3B51600   5.631  27.160  19.489  0.0488 -0.2075 -0.3446
10756DAPE   D4B51601   5.819  27.432  19.279  0.0958 -0.0111 -0.0931
10756DAPE   C5B51602   6.207  27.385  18.973 -0.2227 -0.0237  0.3011
10757DAPE   NH351603   8.866  24.587  21.671  0.0064 -0.1016 -0.3399
10757DAPE   PO451604   8.637  24.932  21.809  0.3405 -0.1486 -0.1685
10757DAPE   GL151605   8.535  25.079  21.416  0.0722  0.2352  0.0753
10757DAPE   GL251606   8.549  25.266  21.318 -0.0265  0.0252  0.0743
10757DAPE   D1A51607   8.305  24.864  21.052 -0.1631  0.0782 -0.3612
10757DAPE   D2A51608   8.062  25.243  21.081 -0.2476 -0.3899  0.0593
10757DAPE   D3A51609   8.089  25.323  20.744 -0.1116 -0.0086 -0.3202
10757DAPE   D4A51610   7.879  25.047  20.520 -0.0245  0.4240  0.3354
10757DAPE   C5A51611   7.997  24.873  20.116  0.1491 -0.3073 -0.0072
10757DAPE   D1B51612   8.836  25.162  21.000  0.0457  0.1216 -0.4696
10757DAPE   D2B51613   8.985  24.899  21.291  0.0935 -0.1160 -0.0650
10757DAPE   D3B51614   8.791  24.655  21.013 -0.2389  0.0518  0.2741
10757DAPE   D4B51615   8.789  24.824  20.642 -0.0988  0.2267  0.0087
10757DAPE   C5B51616   9.060  25.218  20.589 -0.0309  0.0156  0.0125
10758DPSM   NC351617   1.614   7.285  12.509  0.0082  0.1919 -0.0304
10758DPSM   PO451618   1.531   7.746  12.338  0.3060  0.2583  0.0480
10758DPSM   AM151619   1.599   7.950  11.970  0.0810  0.0693 -0.0352
10758DPSM   AM251620   1.796   8.204  12.112 -0.1449 -0.1262  0.1868
10758DPSM   T1A51621   2.018   7.967  11.665 -0.3645 -0.2139 -0.2052
10758DPSM   C2A51622   2.440   8.004  11.408  0.4728 -0.0312 -0.0072
10758DPSM   C3A51623   2.732   7.915  11.095 -0.0186 -0.4798 -0.1740
10758DPSM   C1B51624   2.178   8.391  12.072 -0.2643 -0.0579  0.0202
10758DPSM   C2B51625   2.552   8.305  11.794  0.0268  0.0650 -0.0438
10758DPSM   C3B51626   2.805   8.338  11.497  0.0108 -0.0807  0.1848
10758DPSM   C4B51627   3.053   8.431  11.147  0.0527  0.2141  0.0586
10759DPSM   NC351628   6.959  21.826  20.750 -0.0130  0.1470  0.3351
10759DPSM   PO451629   6.979  21.470  20.580  0.0347  0.0138  0.2128
10759DPSM   AM151630   7.049  21.363  20.148 -0.0702  0.4153  0.0446
10759DPSM   AM251631   7.088  21.091  20.130 -0.1822 -0.0503  0.0871
10759DPSM   T1A51632   7.168  21.621  19.799 -0.0961 -0.1512  0.0901
10759DPSM   C2A51633   7.368  21.800  19.491 -0.3227  0.2664  0.0125
10759DPSM   C3A51634   7.623  22.118  19.210 -0.0699 -0.3889  0.0066
10759DPSM   C1B51635   7.393  21.094  19.873  0.1356  0.3551 -0.0853
10759DPSM   C2B51636   7.659  21.321  19.664 -0.1657 -0.1898  0.2412
10759DPSM   C3B51637   7.849  21.662  19.440  0.4099  0.0081  0.2060
10759DPSM   C4B51638   8.263  21.967  19.393  0.0538  0.1090  0.1770
10760DPSM   NC351639   0.435  16.826   9.119  0.0252  0.0722  0.0148
10760DPSM   PO451640   0.846  16.944   8.965  0.0053  0.1829  0.1228
10760DPSM   AM151641   1.087  16.752   8.667  0.0435  0.1103 -0.2651
10760DPSM   AM251642   1.121  16.914   8.424  0.3663  0.0924 -0.1423
10760DPSM   T1A51643   1.445  16.553   8.640  0.0734  0.0967 -0.1460
10760DPSM   C2A51644   1.961  16.459   8.543 -0.0463  0.1769  0.0355
10760DPSM   C3A51645   2.111  16.357   8.169 -0.1325 -0.1455  0.3878
10760DPSM   C1B51646   1.462  16.876   8.163  0.0330 -0.0959  0.0275
10760DPSM   C2B51647   1.809  16.711   8.042  0.0077 -0.0408 -0.0690
10760DPSM   C3B51648   2.132  16.854   7.854  0.1528 -0.2975  0.2604
10760DPSM   C4B51649   2.527  16.893   7.840  0.0032  0.1059  0.1445
10761DPSM   NC351650  33.395  15.791   5.645  0.2079 -0.2605  0.0454
10761DPSM   PO451651  33.593  16.143   5.723 -0.0953 -0.2221  0.3128
10761DPSM   AM151652  33.676  16.203   5.365  0.0295  0.0077  0.2016
10761DPSM   AM251653  33.920  16.338   5.310  0.0057 -0.1622  0.0242
10761DPSM   T1A51654  33.626  16.258   4.928 -0.0140  0.0634  0.0386
10761DPSM   C2A51655  33.780  16.396   4.598 -0.0098  0.3487  0.0592
10761DPSM   C3A51656  33.928  16.330   4.288 -0.1295  0.0657  0.0452
10761DPSM   C1B51657  34.134  16.246   4.905  0.1511 -0.1171 -0.0448
10761DPSM   C2B51658  34.409  16.198   4.577 -0.1053  0.0097 -0.2860
10761DPSM   C3B51659  34.518  16.134   4.200 -0.0022 -0.0353 -0.1479
10761DPSM   C4B51660  34.605  16.061   3.717  0.0337  0.0419  0.2829
10762DPSM   NC351661   8.375   8.568  18.480  0.0331  0.2023 -0.0616
10762DPSM   PO451662   8.048   8.299  18.139 -0.1814 -0.0201 -0.1434
10762DPSM   AM151663   8.174   8.013  17.847 -0.2216  0.3203 -0.0916
10762DPSM   AM251664   7.951   7.753  17.802 -0.0270 -0.1383  0.2736
10762DPSM   T1A51665   8.144   8.102  17.426 -0.1127  0.0674  0.1155
10762DPSM   C2A51666   8.104   8.400  17.051 -0.1324  0.0989  0.1054
10762DPSM   C3A51667   8.148   8.436  16.685  0.2387  0.0139  0.3423
10762DPSM   C1B51668   8.010   7.662  17.369 -0.1438  0.1413 -0.1331
10762DPSM   C2B51669   8.053   7.441  17.010  0.2285 -0.0387 -0.2222
10762DPSM   C3B51670   8.410   7.466  16.748 -0.0322  0.0552  0.3937
10762DPSM   C4B51671   8.892   7.600  16.755  0.0174  0.2894 -0.0280
10763DPSM   NC351672   4.050  10.752  14.985 -0.2047  0.1224 -0.0707
10763DPSM   PO451673   4.217  11.068  14.681 -0.1276  0.0198  0.3414
10763DPSM   AM151674   4.657  11.171  14.557  0.1474  0.1550 -0.3155
10763DPSM   AM251675   4.634  11.405  14.272  0.0903 -0.0089  0.0286
10763DPSM   T1A51676   5.069  11.138  14.404 -0.4114 -0.0099  0.2632
10763DPSM   C2A51677   5.329  11.147  14.074 -0.1816  0.3558 -0.1955
10763DPSM   C3A51678   5.565  11.235  13.703  0.2446 -0.0899 -0.1883
10763DPSM   C1B51679   4.763  11.090  14.018 -0.3086 -0.1387  0.1069
10763DPSM   C2B51680   5.030  11.009  13.630 -0.4395 -0.2334 -0.1561
10763DPSM   C3B51681   5.325  10.806  13.424 -0.2662 -0.0223  0.0452
10763DPSM   C4B51682   5.748  10.946  13.176 -0.2634 -0.2053  0.1639
10764DPSM   NC351683  16.295  13.686  18.566 -0.0895  0.2146  0.0104
10764DPSM   PO451684  16.682  13.611  18.768 -0.0473  0.0749 -0.0196
10764DPSM   AM151685  16.599  13.298  18.405 -0.2942  0.0921 -0.1478
10764DPSM   AM251686  16.522  13.041  18.357  0.0971  0.0958 -0.0074
10764DPSM   T1A51687  16.160  13.270  18.164  0.1830 -0.3212 -0.2083
10764DPSM   C2A51688  15.809  13.127  17.895  0.0712  0.2814 -0.1704
10764DPSM   C3A51689  15.533  12.922  17.573 -0.1028 -0.0159  0.3138
10764DPSM   C1B51690  16.269  12.730  18.190  0.1388  0.1657 -0.2470
10764DPSM   C2B51691  16.035  12.690  17.812 -0.2723 -0.1402  0.2022
10764DPSM   C3B51692  15.841  12.590  17.396 -0.2018 -0.0890 -0.0117
10764DPSM   C4B51693  15.576  12.337  17.116  0.0807  0.0570 -0.0205
10765DPSM   NC351694  12.465  25.357  22.358 -0.3358  0.1169 -0.0327
10765DPSM   PO451695  12.426  25.044  22.096  0.2112 -0.2144  0.2591
10765DPSM   AM151696  12.489  25.314  21.714 -0.2252  0.0121  0.0874
10765DPSM   AM251697  12.470  25.588  21.884 -0.2237 -0.3758  0.1988
10765DPSM   T1A51698  12.642  25.285  21.387  0.0723  0.0260 -0.1710
10765DPSM   C2A51699  12.635  25.215  20.924 -0.1113  0.1385 -0.1635
10765DPSM   C3A51700  12.574  25.278  20.532 -0.3229 -0.0558  0.0401
10765DPSM   C1B51701  12.791  25.731  21.513 -0.0892 -0.1461 -0.0071
10765DPSM   C2B51702  12.789  25.661  21.058 -0.2697  0.2873 -0.1627
10765DPSM   C3B51703  12.906  25.736  20.624 -0.2944  0.2144 -0.1661
10765DPSM   C4B51704  12.993  25.838  20.232 -0.0996 -0.4778  0.0789
10766DPSM   NC351705   6.758  10.997  17.419  0.0552  0.1515  0.1938
10766DPSM   PO451706   7.150  10.834  17.537 -0.1229 -0.2436  0.0394
10766DPSM   AM151707   7.156  10.655  17.108 -0.2277  0.1023 -0.1433
10766DPSM   AM251708   6.854  10.814  16.917  0.2072  0.0099 -0.0626
10766DPSM   T1A51709   7.421  10.545  16.831  0.0189 -0.2591  0.0031
10766DPSM   C2A51710   7.656  10.451  16.560  0.1941 -0.0371 -0.2037
10766DPSM   C3A51711   7.730  10.529  16.227  0.1673 -0.1685  0.0755
10766DPSM   C1B51712   7.224  10.942  16.687 -0.2515 -0.1233  0.3228
10766DPSM   C2B51713   7.552  10.996  16.447  0.0856 -0.0275  0.0966
10766DPSM   C3B51714   7.784  11.010  16.078  0.0796 -0.0176 -0.2815
10766DPSM   C4B51715   7.874  11.004  15.653  0.2705 -0.0589 -0.1025
10767DPSM   NC351716  22.439  11.940  14.368  0.1190 -0.2050  0.4160
10767DPSM   PO451717  22.629  12.069  13.962 -0.1216  0.3088 -0.1853
10767DPSM   AM151718  22.205  12.004  13.928  0.2049  0.1875 -0.1300
10767DPSM   AM251719  22.116  12.020  13.594  0.0870 -0.0298 -0.1192
10767DPSM   T1A51720  21.776  11.848  13.943  0.1583  0.1188  0.0310
10767DPSM   C2A51721  21.489  11.579  13.855  0.2911 -0.1600 -0.0909
10767DPSM   C3A51722  21.150  11.344  13.773  0.0248 -0.1395 -0.2672
10767DPSM   C1B51723  21.633  11.932  13.372  0.0410 -0.2802  0.2066
10767DPSM   C2B51724  21.264  11.749  13.412 -0.0417 -0.0368 -0.2020
10767DPSM   C3B51725  20.985  11.474  13.327 -0.0041 -0.0183 -0.0926
10767DPSM   C4B51726  20.690  11.122  13.238 -0.1882 -0.0334 -0.2134
10768DPSM   NC351727  30.119   0.355  11.065  0.0486 -0.0479  0.0435
10768DPSM   PO451728  30.194   0.037  10.726  0.0034  0.2940  0.1266
10768DPSM   AM151729  30.492   0.202  10.459 -0.0592  0.2657 -0.0416
10768DPSM   AM251730  30.884   0.376  10.573 -0.0706 -0.1424 -0.1268
10768DPSM   T1A51731  30.671   0.292  10.096  0.0941  0.1105  0.2382
10768DPSM   C2A51732  30.922   0.299   9.638 -0.0342  0.3031 -0.1233
10768DPSM   C3A51733  31.013   0.479   9.181  0.1838  0.0869  0.0620
10768DPSM   C1B51734  31.192   0.354  10.160 -0.0323 -0.1804  0.0215
10768DPSM   C2B51735  31.397   0.223   9.809  0.3383 -0.0510  0.2226
10768DPSM   C3B51736  31.565  35.172   9.605  0.2112 -0.2190  0.1385
10768DPSM   C4B51737  31.284  34.821   9.333 -0.0406 -0.0064  0.0676
10769DPSM   NC351738  19.680   6.847  16.607  0.0824 -0.1571  0.2603
10769DPSM   PO451739  20.076   6.620  16.714  0.2943  0.1700  0.3087
10769DPSM   AM151740  20.069   6.695  16.313  0.1119 -0.0451  0.0171
10769DPSM   AM251741  20.183   6.953  16.226  0.0028  0.0560  0.0784
10769DPSM   T1A51742  19.719   6.662  16.066  0.1383  0.1012  0.2463
10769DPSM   C2A51743  19.359   6.623  15.820 -0.0107 -0.1899 -0.3608
10769DPSM   C3A51744  19.110   6.278  15.820 -0.5027  0.1205 -0.0038
10769DPSM   C1B51745  19.861   7.221  16.037 -0.1452  0.2562  0.1647
10769DPSM   C2B51746  19.522   7.136  15.834 -0.4372  0.1575 -0.0304
10769DPSM   C3B51747  19.247   7.067  15.585 -0.1390 -0.0559 -0.0513
10769DPSM   C4B51748  19.167   7.006  15.168  0.3022  0.3101 -0.0477
10770DPSM   NC351749  18.067  23.854  20.227 -0.3209 -0.2203 -0.1525
10770DPSM   PO451750  17.692  23.724  20.323  0.1497 -0.2863 -0.4218
10770DPSM   AM151751  17.746  23.562  19.914  0.0557 -0.1528 -0.1001
10770DPSM   AM251752  17.840  23.203  19.970 -0.0660  0.2803 -0.0584
10770DPSM   T1A51753  17.435  23.383  19.591 -0.2804 -0.0096 -0.1511
10770DPSM   C2A51754  17.055  23.244  19.391  0.3014 -0.1809 -0.0155
10770DPSM   C3A51755  16.725  23.141  19.173  0.3220 -0.0894  0.1367
10770DPSM   C1B51756  17.386  22.989  19.864 -0.0875  0.4399  0.0714
10770DPSM   C2B51757  16.990  22.925  19.859 -0.0370  0.2087 -0.0030
10770DPSM   C3B51758  16.605  23.030  19.928 -0.1386 -0.1510  0.2201
10770DPSM   C4B51759  16.265  22.990  19.629  0.0909  0.1825 -0.1908
10771DPSM   NC351760  20.636  16.535  16.351  0.0067 -0.2196 -0.0008
10771DPSM   PO451761  20.277  16.431  16.099 -0.0293 -0.2695  0.0033
10771DPSM   AM151762  20.175  16.275  15.697 -0.1624 -0.1906 -0.1487
10771DPSM   AM251763  20.215  15.962  15.818 -0.1567 -0.4114  0.0648
10771DPSM   T1A51764  19.929  16.109  15.324 -0.2304  0.0427 -0.1099
10771DPSM   C2A51765  19.565  16.182  15.048 -0.0428 -0.1339 -0.0293
10771DPSM   C3A51766  19.411  16.187  14.702 -0.1312 -0.0644 -0.0474
10771DPSM   C1B51767  19.797  15.962  15.781 -0.2229 -0.2030 -0.3938
10771DPSM   C2B51768  19.355  16.074  15.531 -0.0056 -0.0726 -0.2561
10771DPSM   C3B51769  19.021  16.084  15.281 -0.1059 -0.1443 -0.0214
10771DPSM   C4B51770  18.763  15.921  15.027 -0.1596 -0.1190 -0.2820
10772POSM   NC351771  22.597  20.609  14.403  0.2505 -0.0079 -0.0436
10772POSM   PO451772  22.524  20.193  14.416  0.0616 -0.1520  0.0396
10772POSM   AM151773  22.104  20.262  14.304 -0.0979  0.2407 -0.0426
10772POSM   AM251774  22.137  20.568  14.205  0.1322  0.5495  0.2896
10772POSM   T1A51775  21.668  20.171  14.132  0.1517  0.0572 -0.2469
10772POSM   C2A51776  21.314  20.293  13.762  0.1974  0.0870 -0.0714
10772POSM   C3A51777  21.222  20.545  13.362 -0.0885  0.2939  0.1027
10772POSM   C1B51778  21.855  20.487  13.870 -0.3773  0.0884  0.2869
10772POSM   D2B51779  21.666  20.630  13.603 -0.1644 -0.1804  0.0714
10772POSM   C3B51780  21.675  20.999  13.576 -0.0408 -0.0067 -0.0315
10772POSM   C4B51781  21.540  21.402  13.466 -0.2077 -0.2690 -0.0909
10773POSM   NC351782  30.958  14.918   5.641  0.1598 -0.2377  0.0684
10773POSM   PO451783  30.695  14.913   5.242  0.0410 -0.0646 -0.1481
10773POSM   AM151784  30.910  14.960   4.808 -0.2956 -0.0205  0.3507
10773POSM   AM251785  31.096  14.738   4.774  0.1122 -0.0025 -0.2339
10773POSM   T1A51786  30.885  14.979   4.331 -0.0532 -0.3737  0.1740
10773POSM   C2A51787  31.027  15.084   4.020  0.0738 -0.0165 -0.0017
10773POSM   C3A51788  30.995  15.397   3.803 -0.0706 -0.0254 -0.0959
10773POSM   C1B51789  31.299  14.755   4.462 -0.0295 -0.1328  0.4522
10773POSM   D2B51790  31.526  15.060   4.186 -0.1044  0.3046  0.1666
10773POSM   C3B51791  31.558  14.959   3.750  0.0488 -0.0633  0.3545
10773POSM   C4B51792  31.247  15.055   3.436  0.1382  0.0636 -0.2731
10774POSM   NC351793   9.235   5.741  18.977 -0.1263 -0.2070  0.1022
10774POSM   PO451794   8.888   5.498  19.089 -0.1381  0.1402  0.2956
10774POSM   AM151795   8.793   5.390  18.641  0.2866 -0.0198 -0.1644
10774POSM   AM251796   8.546   5.510  18.490 -0.0582  0.2945  0.0162
10774POSM   T1A51797   8.952   5.050  18.403  0.0028  0.2710 -0.0614
10774POSM   C2A51798   9.036   4.924  17.959  0.2405  0.0714  0.0262
10774POSM   C3A51799   9.017   4.672  17.587 -0.0181  0.0515 -0.2601
10774POSM   C1B51800   8.542   5.331  18.165 -0.2934  0.0952 -0.0194
10774POSM   D2B51801   8.724   5.269  17.799  0.0710 -0.0985 -0.0570
10774POSM   C3B51802   8.531   5.114  17.486  0.6207  0.0641  0.0936
10774POSM   C4B51803   8.474   5.020  17.098 -0.2575  0.0025 -0.3033
10775POSM   NC351804  18.071  18.495  17.995  0.1823 -0.1366  0.0377
10775POSM   PO451805  17.635  18.285  18.000  0.1770 -0.2275 -0.2015
10775POSM   AM151806  17.750  18.380  17.568  0.1218 -0.0873 -0.2832
10775POSM   AM251807  17.901  18.114  17.640  0.0386 -0.1039  0.2282
10775POSM   T1A51808  17.510  18.547  17.257 -0.0997  0.2192 -0.3743
10775POSM   C2A51809  17.195  18.822  17.094 -0.2729  0.0363  0.2168
10775POSM   C3A51810  16.823  18.990  16.891 -0.3855  0.3664 -0.1642
10775POSM   C1B51811  17.763  18.069  17.178 -0.1030  0.3673  0.0683
10775POSM   D2B51812  17.471  18.057  16.811  0.0828  0.0057  0.0515
10775POSM   C3B51813  17.432  18.484  16.641  0.0677 -0.3799 -0.0458
10775POSM   C4B51814  17.347  18.916  16.611  0.0006 -0.0746 -0.2192
10776POSM   NC351815   4.267  27.355  19.804 -0.2352  0.0740 -0.0124
10776POSM   PO451816   4.703  27.491  19.915  0.0848 -0.4172 -0.2380
10776POSM   AM151817   4.674  27.206  19.576 -0.0386  0.2386  0.1803
10776POSM   AM251818   4.492  27.306  19.338 -0.2432 -0.0990  0.2434
10776POSM   T1A51819   4.923  26.956  19.262 -0.0767  0.1807 -0.1787
10776POSM   C2A51820   5.240  26.807  18.980  0.0043 -0.2035 -0.0651
10776POSM   C3A51821   5.458  26.750  18.701 -0.0710 -0.3267  0.2026
10776POSM   C1B51822   4.767  27.454  19.081 -0.2878 -0.2539 -0.0898
10776POSM   D2B51823   5.089  27.481  18.824 -0.0014  0.2514  0.2296
10776POSM   C3B51824   5.291  27.161  18.560 -0.0793 -0.0698  0.2090
10776POSM   C4B51825   5.743  27.019  18.262 -0.4442  0.1768  0.0420
10777POSM   NC351826  21.779  23.411  15.690  0.2471  0.2454 -0.1133
10777POSM   PO451827  21.738  23.625  16.077  0.1467  0.0750 -0.3982
10777POSM   AM151828  21.569  23.921  15.810 -0.0909  0.0987 -0.1882
10777POSM   AM251829  21.341  24.050  16.015 -0.2388  0.1792  0.1145
10777POSM   T1A51830  21.450  23.696  15.484 -0.0029 -0.6188 -0.3660
10777POSM   C2A51831  21.261  23.603  15.204  0.0532  0.0250  0.1303
10777POSM   C3A51832  20.875  23.510  14.989 -0.2382  0.1637 -0.2086
10777POSM   C1B51833  21.076  24.032  15.747  0.0834 -0.1275  0.2509
10777POSM   D2B51834  20.939  23.826  15.454  0.1934 -0.0812  0.0933
10777POSM   C3B51835  20.525  23.800  15.205 -0.0991 -0.0322 -0.1272
10777POSM   C4B51836  20.284  23.551  14.999  0.0554  0.2427 -0.0822
10778POSM   NC351837   5.680  33.173  19.975 -0.1972  0.1409  0.4079
10778POSM   PO451838   5.629  32.837  19.620  0.1757 -0.1711 -0.0092
10778POSM   AM151839   5.811  32.636  19.327 -0.3891  0.1080 -0.2622
10778POSM   AM251840   6.079  32.512  19.452 -0.0260 -0.4585  0.0200
10778POSM   T1A51841   5.985  32.604  18.941 -0.0978 -0.2492  0.0103
10778POSM   C2A51842   5.983  32.769  18.510 -0.0177 -0.3861  0.0861
10778POSM   C3A51843   5.779  32.893  18.119  0.0186  0.3483 -0.3021
10778POSM   C1B51844   6.469  32.297  19.277  0.1698 -0.2791 -0.0026
10778POSM   D2B51845   6.768  32.208  18.926  0.2119  0.0172 -0.2823
10778POSM   C3B51846   6.615  32.062  18.606 -0.1520 -0.1857  0.0087
10778POSM   C4B51847   7.031  32.275  18.278 -0.3647 -0.0004 -0.0267
10779POSM   NC351848  11.527  27.491  22.248 -0.0773 -0.1497  0.0092
10779POSM   PO451849  11.759  27.578  21.858 -0.0459 -0.0924  0.2265
10779POSM   AM151850  12.165  27.424  21.605  0.0438  0.0129  0.1367
10779POSM   AM251851  12.294  27.306  21.771  0.2724  0.0975 -0.1176
10779POSM   T1A51852  12.260  27.332  21.159 -0.3142 -0.1553 -0.1654
10779POSM   C2A51853  12.152  27.012  20.920 -0.1084 -0.1127  0.0615
10779POSM   C3A51854  11.857  26.730  20.762 -0.1453 -0.4090  0.1038
10779POSM   C1B51855  12.220  26.863  21.569  0.1246 -0.0456  0.0768
10779POSM   D2B51856  12.453  26.499  21.564  0.0566  0.3820  0.4458
10779POSM   C3B51857  12.715  26.185  21.288  0.0879  0.1907 -0.1024
10779POSM   C4B51858  12.716  26.134  20.869  0.0584  0.1712  0.1000
10780POSM   NC351859  17.782  29.080  19.136 -0.1076  0.0260 -0.0760
10780POSM   PO451860  17.661  28.630  19.280  0.4004 -0.0431  0.2470
10780POSM   AM151861  17.150  28.786  19.257 -0.0650 -0.0673  0.3305
10780POSM   AM251862  17.266  28.959  18.986  0.1417  0.0540 -0.1396
10780POSM   T1A51863  16.695  28.739  19.201  0.3575  0.0310 -0.1238
10780POSM   C2A51864  16.304  28.572  18.949  0.1730  0.1111  0.0045
10780POSM   C3A51865  16.132  28.320  18.621  0.0895  0.2588  0.0024
10780POSM   C1B51866  16.854  28.918  18.709  0.1573 -0.0568  0.0469
10780POSM   D2B51867  16.516  28.751  18.404  0.0015  0.3765  0.1298
10780POSM   C3B51868  16.528  28.341  18.337  0.3173 -0.1950  0.4473
10780POSM   C4B51869  16.408  27.977  18.313  0.0522 -0.0896 -0.2247
10781POSM   NC351870  17.676  33.255  17.446  0.1800  0.1471 -0.2896
10781POSM   PO451871  17.274  33.161  17.610  0.0105  0.2445 -0.1099
10781POSM   AM151872  16.899  33.052  17.517  0.0115  0.1215 -0.0111
10781POSM   AM251873  16.580  33.320  17.533 -0.0029  0.4029  0.0544
10781POSM   T1A51874  16.403  32.842  17.464  0.0715  0.1685  0.3715
10781POSM   C2A51875  15.975  32.808  17.240  0.4828  0.1081 -0.0346
10781POSM   C3A51876  15.549  32.750  17.048  0.2537  0.1808 -0.0411
10781POSM   C1B51877  16.501  33.168  17.134 -0.0993 -0.1914  0.0412
10781POSM   D2B51878  16.464  32.897  16.949 -0.0116  0.1645  0.1333
10781POSM   C3B51879  16.035  32.741  16.711  0.0099 -0.2302 -0.4748
10781POSM   C4B51880  15.697  32.832  16.415 -0.0893  0.2476 -0.1437
10782POSM   NC351881  21.868  28.812  12.681  0.1168  0.2410  0.3773
10782POSM   PO451882  21.673  28.476  12.425  0.2526  0.0078  0.2266
10782POSM   AM151883  21.616  28.547  12.053  0.0745 -0.0014 -0.0012
10782POSM   AM251884  21.865  28.448  11.767  0.4107 -0.0656 -0.2840
10782POSM   T1A51885  21.346  28.414  11.720 -0.1490  0.0126 -0.0786
10782POSM   C2A51886  21.249  28.076  11.566  0.3637  0.0932 -0.3653
10782POSM   C3A51887  21.252  27.854  11.203  0.3218 -0.3473 -0.0416
10782POSM   C1B51888  21.681  28.177  11.424  0.0731 -0.0094 -0.0022
10782POSM   D2B51889  21.466  28.285  11.116 -0.1675  0.0421 -0.3176
10782POSM   C3B51890  21.207  28.625  10.886 -0.3749  0.2005  0.0260
10782POSM   C4B51891  21.154  28.622  10.421 -0.0346  0.1097 -0.1693
10783PNSM   NC351892  12.667   0.114  20.357 -0.1305 -0.2348 -0.6926
10783PNSM   PO451893  12.961  35.316  19.985  0.1029 -0.0555 -0.2023
10783PNSM   AM151894  12.810  35.284  19.500 -0.4837  0.2134  0.1229
10783PNSM   AM251895  12.933  34.941  19.288 -0.0064 -0.3583  0.2461
10783PNSM   T1A51896  12.590   0.075  19.106  0.1722 -0.0657 -0.0912
10783PNSM   C2A51897  12.649   0.022  18.609  0.2344 -0.1638  0.2348
10783PNSM   C3A51898  12.636  35.181  18.320 -0.0543  0.0894  0.4184
10783PNSM   C1B51899  12.716  34.967  18.878  0.1493  0.1553 -0.1994
10783PNSM   C2B51900  12.569  34.684  18.519 -0.1204 -0.0372  0.1429
10783PNSM   C3B51901  12.458  34.282  18.300 -0.2191  0.2425 -0.0808
10783PNSM   D4B51902  12.347  33.842  18.353  0.3247  0.0167  0.1742
10783PNSM   C5B51903  12.210  33.542  18.083  0.0034  0.1864  0.1334
10783PNSM   C6B51904  11.888  33.345  17.939 -0.0941 -0.0487  0.2658
10784PNSM   NC351905  15.102   1.114  17.268  0.1316 -0.1051  0.1993
10784PNSM   PO451906  15.362   1.335  16.999 -0.3533 -0.4033 -0.1024
10784PNSM   AM151907  15.377   1.049  16.695  0.0880 -0.3035 -0.0613
10784PNSM   AM251908  15.610   0.930  16.668 -0.0270 -0.0933  0.4232
10784PNSM   T1A51909  15.130   0.834  16.350  0.0314  0.1044 -0.3218
10784PNSM   C2A51910  14.914   0.892  15.959  0.1334  0.0023 -0.0348
10784PNSM   C3A51911  14.803   0.906  15.463 -0.0851  0.1884 -0.3786
10784PNSM   C1B51912  15.635   0.981  16.269  0.1920  0.3006  0.0122
10784PNSM   C2B51913  15.377   0.875  15.916  0.0510  0.0292 -0.0432
10784PNSM   C3B51914  15.195   0.643  15.571  0.1770 -0.1473  0.3093
10784PNSM   D4B51915  14.776   0.443  15.589 -0.0301 -0.1823 -0.0168
10784PNSM   C5B51916  14.456   0.666  15.873  0.0070  0.0416 -0.2048
10784PNSM   C6B51917  14.117   0.869  15.960  0.2031  0.3261  0.0532
10785PNSM   NC351918  26.962  33.858  10.786  0.0567 -0.0005 -0.0056
10785PNSM   PO451919  26.956  34.105  10.488  0.1488 -0.0471 -0.3170
10785PNSM   AM151920  27.092  34.148  10.122  0.2183 -0.0332 -0.1060
10785PNSM   AM251921  27.451  34.140  10.242 -0.3160  0.2030  0.0942
10785PNSM   T1A51922  26.962  34.213   9.724 -0.1006 -0.3141  0.2107
10785PNSM   C2A51923  26.667  34.100   9.365 -0.0331 -0.0745  0.0500
10785PNSM   C3A51924  26.468  33.975   9.003  0.1131 -0.0547  0.0197
10785PNSM   C1B51925  27.430  34.469   9.924  0.0969  0.0636 -0.4713
10785PNSM   C2B51926  27.356  34.549   9.534  0.0599 -0.1384 -0.1924
10785PNSM   C3B51927  27.376  34.716   9.086 -0.0449  0.0885  0.4751
10785PNSM   D4B51928  27.490  35.018   8.740 -0.0678  0.0870  0.0337
10785PNSM   C5B51929  27.186  35.184   8.536 -0.0170 -0.0323 -0.0872
10785PNSM   C6B51930  27.064   0.268   8.577  0.2299  0.0945 -0.2165
10786PNSM   NC351931  16.133   0.355  17.290 -0.2185  0.2921  0.1414
10786PNSM   PO451932  15.964  35.330  17.395  0.0193 -0.0348 -0.1201
10786PNSM   AM151933  15.764   0.109  17.042  0.3295 -0.0512 -0.2044
10786PNSM   AM251934  16.030   0.111  16.829  0.0081 -0.4286 -0.0817
10786PNSM   T1A51935  15.429   0.347  16.836 -0.1716 -0.1844  0.0258
10786PNSM   C2A51936  15.085   0.506  16.719 -0.4239 -0.2154  0.2685
10786PNSM   C3A51937  14.621   0.498  16.720  0.2867  0.0496  0.2005
10786PNSM   C1B51938  15.635  35.276  16.624 -0.0227 -0.1419 -0.2802
10786PNSM   C2B51939  15.433  35.282  16.278  0.1102 -0.1927  0.1635
10786PNSM   C3B51940  14.966  35.224  16.140 -0.2236  0.1503  0.1843
10786PNSM   D4B51941  14.531  34.941  15.959  0.0567 -0.0775 -0.1757
10786PNSM   C5B51942  14.430  34.478  15.876  0.0066 -0.1281  0.2778
10786PNSM   C6B51943  14.308  34.077  15.626  0.2124 -0.3276 -0.1914
10787PNSM   NC351944  26.895  21.871   6.630  0.1551 -0.1437  0.1122
10787PNSM   PO451945  26.683  21.768   6.300 -0.2920 -0.1755  0.2379
10787PNSM   AM151946  26.351  21.673   6.068  0.1715  0.1303 -0.4219
10787PNSM   AM251947  26.405  21.717   5.841 -0.2746  0.0640 -0.0261
10787PNSM   T1A51948  25.908  21.449   6.022 -0.0332 -0.0345  0.2237
10787PNSM   C2A51949  25.554  21.442   6.179 -0.1723 -0.1356 -0.1854
10787PNSM   C3A51950  25.152  21.663   6.140  0.0904 -0.1679 -0.0883
10787PNSM   C1B51951  25.982  21.949   5.990 -0.3164 -0.1398  0.2791
10787PNSM   C2B51952  25.518  21.987   5.929  0.0007  0.1379  0.1606
10787PNSM   C3B51953  25.117  22.124   5.779  0.0528  0.0075 -0.0753
10787PNSM   D4B51954  25.031  22.319   5.492  0.0560 -0.1595 -0.1153
10787PNSM   C5B51955  24.683  22.419   5.577  0.2605 -0.0517 -0.0927
10787PNSM   C6B51956  24.314  22.619   5.432  0.0560 -0.0692  0.2342
10788PNSM   NC351957  25.846   8.409   9.845  0.0118  0.0832  0.0007
10788PNSM   PO451958  25.419   8.551   9.825 -0.0342 -0.4450 -0.0265
10788PNSM   AM151959  25.135   8.508   9.480  0.0749 -0.0931  0.1622
10788PNSM   AM251960  25.156   8.733   9.263 -0.0585 -0.1473 -0.3033
10788PNSM   T1A51961  24.765   8.304   9.698 -0.1225 -0.1405  0.1013
10788PNSM   C2A51962  24.278   8.314   9.677 -0.0819 -0.1954  0.1331
10788PNSM   C3A51963  23.955   8.075   9.406 -0.3731 -0.0729  0.0615
10788PNSM   C1B51964  24.793   8.587   9.186  0.0565 -0.2443  0.3479
10788PNSM   C2B51965  24.488   8.297   9.218  0.1750  0.0267 -0.0886
10788PNSM   C3B51966  24.169   8.145   8.902 -0.1689  0.3345  0.0439
10788PNSM   D4B51967  24.019   8.099   8.471 -0.1652  0.0755  0.0461
10788PNSM   C5B51968  23.996   8.583   8.213 -0.1215  0.2024  0.1804
10788PNSM   C6B51969  24.367   8.724   7.926  0.0120  0.0541 -0.1304
10789DPGS    C151970   2.702   2.777  15.765 -0.1312  0.1158 -0.0484
10789DPGS    C251971   2.983   2.712  15.683 -0.0702  0.1515  0.1307
10789DPGS    C351972   2.926   2.802  15.963 -0.2599  0.1473  0.0936
10789DPGS   AM151973   2.928   3.148  15.502 -0.1988 -0.2758  0.1769
10789DPGS   AM251974   2.873   2.963  15.285 -0.1505 -0.2688  0.2992
10789DPGS   D1A51975   3.086   3.390  15.504  0.0970  0.1013  0.2588
10789DPGS   C2A51976   3.514   3.529  15.385  0.4489 -0.2426 -0.2248
10789DPGS   C3A51977   3.707   3.779  15.102  0.0479 -0.1630 -0.2395
10789DPGS   C4A51978   4.045   3.713  14.857 -0.0536  0.2582  0.2196
10789DPGS   C1B51979   3.173   2.773  15.175  0.0469  0.0553  0.2035
10789DPGS   C2B51980   3.475   2.702  14.840  0.0441  0.1052 -0.2147
10789DPGS   C3B51981   3.784   2.766  14.488 -0.0561 -0.1562 -0.1730
10789DPGS   C4B51982   3.997   2.938  14.096 -0.1600 -0.0928  0.2422
10790DPGS    C151983  14.502   2.752  16.597 -0.1260 -0.0878 -0.0425
10790DPGS    C251984  14.604   2.574  16.816  0.1390 -0.0100 -0.1006
10790DPGS    C351985  14.347   2.725  16.852  0.1389 -0.0620  0.1232
10790DPGS   AM151986  14.075   2.922  16.383 -0.0113 -0.1421 -0.2076
10790DPGS   AM251987  14.278   2.971  16.191  0.4413  0.1715 -0.1560
10790DPGS   D1A51988  13.796   2.923  16.285 -0.1593 -0.0632  0.0694
10790DPGS   C2A51989  13.429   2.829  15.999 -0.1177  0.0904  0.1342
10790DPGS   C3A51990  12.918   2.850  15.886 -0.0817  0.0816 -0.1617
10790DPGS   C4A51991  12.754   2.648  15.435 -0.3224  0.1465  0.1532
10790DPGS   C1B51992  14.260   2.892  15.847  0.0373  0.1171 -0.2822
10790DPGS   C2B51993  14.146   3.066  15.495 -0.0589 -0.3135  0.2196
10790DPGS   C3B51994  13.819   3.131  15.244 -0.0841  0.1694  0.3499
10790DPGS   C4B51995  13.529   3.480  15.266  0.2903 -0.0623  0.4115
10791DPGS    C151996  16.572   0.663  16.158  0.1342  0.1439  0.1625
10791DPGS    C251997  16.650   0.549  16.424 -0.0061  0.0589  0.1677
10791DPGS    C351998  16.728   0.407  16.171  0.0219  0.0756  0.1666
10791DPGS   AM151999  16.185   0.404  15.987  0.2657 -0.4659 -0.4972
10791DPGS   AM252000  16.221   0.268  16.243  0.3491 -0.0295 -0.0207
10791DPGS   D1A52001  16.053   0.267  15.760 -0.6189  0.2553 -0.0315
10791DPGS   C2A52002  15.705  35.368  15.500  0.0602 -0.0769  0.1008
10791DPGS   C3A52003  15.422  34.964  15.368  0.0475 -0.1682  0.0399
10791DPGS   C4A52004  15.331  34.668  15.044  0.0911 -0.0865  0.2157
10791DPGS   C1B52005  16.042  35.348  16.273  0.1333 -0.2455 -0.2694
10791DPGS   C2B52006  15.867  35.187  15.913  0.2762  0.1728 -0.1404
10791DPGS   C3B52007  15.432  35.081  15.838 -0.0056 -0.0901  0.1844
10791DPGS   C4B52008  15.125  34.815  15.883  0.0771 -0.0304  0.2010
10792DPGS    C152009  20.911   1.014  13.634  0.0381 -0.2750  0.2241
10792DPGS    C252010  20.843   1.303  13.676  0.1949 -0.1957 -0.0536
10792DPGS    C352011  20.647   1.090  13.754 -0.0405 -0.0031 -0.1105
10792DPGS   AM152012  20.697   0.953  13.200  0.4488  0.0668  0.4042
10792DPGS   AM252013  20.649   1.231  13.207  0.1075 -0.1785 -0.1217
10792DPGS   D1A52014  20.651   0.802  12.947 -0.1524  0.1960 -0.2655
10792DPGS   C2A52015  20.540   0.726  12.594 -0.1066 -0.1270  0.0100
10792DPGS   C3A52016  20.529   0.746  12.166  0.1382 -0.1560  0.1650
10792DPGS   C4A52017  20.387   0.734  11.782 -0.0088  0.0506 -0.1341
10792DPGS   C1B52018  20.569   1.509  12.982  0.2401  0.2543 -0.2613
10792DPGS   C2B52019  20.405   1.615  12.612 -0.1113  0.2586  0.1382
10792DPGS   C3B52020  20.131   1.783  12.316  0.0638 -0.1407  0.1697
10792DPGS   C4B52021  19.939   2.153  11.993 -0.0028 -0.1220 -0.1434
10793DPGS    C152022  21.818  17.084  14.256 -0.0676  0.0087 -0.2208
10793DPGS    C252023  21.961  16.902  14.065  0.1355 -0.0705  0.0044
10793DPGS    C352024  22.068  17.177  14.118 -0.1211  0.0849 -0.2664
10793DPGS   AM152025  21.610  17.254  13.801  0.0105  0.1127  0.3426
10793DPGS   AM252026  21.667  17.057  13.618  0.1150 -0.2358 -0.2822
10793DPGS   D1A52027  21.390  17.407  13.789  0.1416 -0.0887 -0.0194
10793DPGS   C2A52028  21.158  17.402  13.561  0.0673 -0.0672  0.2013
10793DPGS   C3A52029  20.857  17.378  13.304  0.0304 -0.0325 -0.2191
10793DPGS   C4A52030  20.574  17.185  12.986  0.2397 -0.0528 -0.3799
10793DPGS   C1B52031  21.539  17.039  13.277 -0.2327  0.0759  0.1638
10793DPGS   C2B52032  21.179  17.180  13.016  0.3766 -0.0495  0.0882
10793DPGS   C3B52033  20.959  17.200  12.600 -0.2858 -0.1124  0.0235
10793DPGS   C4B52034  20.482  17.074  12.507 -0.2700  0.1403 -0.1977
10794DPGS    C152035  30.868  30.767  10.976 -0.1718 -0.2280 -0.3321
10794DPGS    C252036  30.799  30.492  11.072  0.1474 -0.0658  0.3995
10794DPGS    C352037  31.083  30.559  11.001  0.0670  0.0733  0.2036
10794DPGS   AM152038  31.001  30.856  10.532 -0.0647 -0.1507 -0.0351
10794DPGS   AM252039  30.825  30.684  10.463  0.2061 -0.2341 -0.2952
10794DPGS   D1A52040  31.138  31.090  10.432 -0.2182 -0.4866 -0.1274
10794DPGS   C2A52041  31.365  31.195  10.228 -0.0810  0.1773 -0.1866
10794DPGS   C3A52042  31.678  31.138   9.816  0.0403  0.1895 -0.1257
10794DPGS   C4A52043  31.894  31.479   9.541 -0.0924  0.2507 -0.1735
10794DPGS   C1B52044  30.653  30.700  10.153 -0.0449 -0.1218  0.2565
10794DPGS   C2B52045  30.502  30.730   9.744 -0.2676 -0.0620  0.0697
10794DPGS   C3B52046  30.588  30.946   9.427  0.0003  0.0259 -0.1732
10794DPGS   C4B52047  30.767  31.322   9.201  0.1682 -0.0234 -0.0637
10795DPGS    C152048  24.652   3.925  11.709  0.0981 -0.0544 -0.3040
10795DPGS    C252049  24.433   4.120  11.648  0.1488  0.1707  0.2082
10795DPGS    C352050  24.365   3.851  11.760  0.1063  0.0456 -0.1109
10795DPGS   AM152051  24.568   3.648  11.264  0.1451 -0.0934  0.4305
10795DPGS   AM252052  24.552   3.924  11.225  0.1677 -0.1482 -0.1543
10795DPGS   D1A52053  24.530   3.413  11.114 -0.1119  0.0414  0.1906
10795DPGS   C2A52054  24.223   3.395  10.869  0.3513 -0.0424  0.2086
10795DPGS   C3A52055  23.979   3.481  10.555  0.0491 -0.0396  0.0608
10795DPGS   C4A52056  23.692   3.358  10.338 -0.4620 -0.0867 -0.4967
10795DPGS   C1B52057  24.333   4.109  10.989  0.3443  0.0251  0.2726
10795DPGS   C2B52058  24.052   4.254  10.623  0.3744  0.2148 -0.0364
10795DPGS   C3B52059  23.883   4.543  10.436 -0.1043  0.0088  0.1390
10795DPGS   C4B52060  23.704   4.607  10.046  0.2160  0.1119 -0.3391
10796DPGS    C152061  13.463   3.808  17.388  0.1240 -0.0610  0.2153
10796DPGS    C252062  13.304   3.582  17.506 -0.1365 -0.1559 -0.3028
10796DPGS    C352063  13.222   3.866  17.557 -0.0288 -0.1855  0.0431
10796DPGS   AM152064  13.363   4.097  17.047 -0.1185  0.1382 -0.0496
10796DPGS   AM252065  13.549   4.299  17.031 -0.0293 -0.0162 -0.1585
10796DPGS   D1A52066  13.251   3.989  16.813  0.1494  0.1180  0.0776
10796DPGS   C2A52067  13.009   3.846  16.522  0.3374  0.1226  0.1947
10796DPGS   C3A52068  12.604   3.833  16.269 -0.1106  0.1919 -0.3390
10796DPGS   C4A52069  12.466   4.029  15.943  0.0778  0.0236  0.1013
10796DPGS   C1B52070  13.594   4.580  16.800 -0.3420  0.2520  0.0322
10796DPGS   C2B52071  13.425   4.929  16.657  0.0157  0.0405  0.3340
10796DPGS   C3B52072  13.179   5.298  16.509 -0.2469 -0.3841  0.0169
10796DPGS   C4B52073  12.960   5.702  16.335 -0.0008 -0.1314 -0.1907
10797DPGS    C152074  22.734  31.384  11.854 -0.1710 -0.0173  0.2215
10797DPGS    C252075  22.826  31.300  11.581 -0.1401  0.0136  0.2225
10797DPGS    C352076  22.699  31.100  11.764 -0.2434  0.0139  0.1511
10797DPGS   AM152077  22.317  31.446  11.507  0.2362  0.0548  0.1152
10797DPGS   AM252078  22.174  31.373  11.695  0.1569  0.1223 -0.0672
10797DPGS   D1A52079  22.233  31.511  11.231  0.1930 -0.0567  0.4174
10797DPGS   C2A52080  21.912  31.707  10.876  0.0162 -0.0461 -0.1568
10797DPGS   C3A52081  21.647  31.970  10.634 -0.0873 -0.0908 -0.1524
10797DPGS   C4A52082  21.331  32.003  10.380 -0.2024  0.1091  0.2115
10797DPGS   C1B52083  21.810  31.399  11.741 -0.1586  0.0949 -0.0455
10797DPGS   C2B52084  21.457  31.267  11.431 -0.0860  0.0547  0.2724
10797DPGS   C3B52085  21.163  31.234  11.078 -0.1998 -0.0452  0.0576
10797DPGS   C4B52086  21.123  31.123  10.576 -0.1421  0.2406 -0.0748
10798DPGS    C152087   2.601  14.976  13.699 -0.0001  0.1280  0.2116
10798DPGS    C252088   2.565  14.693  13.791 -0.4968  0.1370  0.0563
10798DPGS    C352089   2.521  14.764  13.503 -0.0308  0.3107  0.0250
10798DPGS   AM152090   3.056  14.972  13.452  0.1185 -0.2288  0.0334
10798DPGS   AM252091   2.945  15.206  13.419  0.1354 -0.2156  0.1371
10798DPGS   D1A52092   3.307  14.854  13.421 -0.0041 -0.2276 -0.0625
10798DPGS   C2A52093   3.532  14.678  13.135  0.0411 -0.1709  0.2949
10798DPGS   C3A52094   3.729  14.216  13.110  0.0766  0.2829  0.0801
10798DPGS   C4A52095   3.787  13.845  12.828 -0.1287 -0.1962 -0.1085
10798DPGS   C1B52096   2.948  15.379  13.093  0.3313 -0.2810 -0.2955
10798DPGS   C2B52097   3.177  15.505  12.762 -0.2955 -0.1274 -0.1283
10798DPGS   C3B52098   3.605  15.682  12.847  0.3902  0.0795 -0.0079
10798DPGS   C4B52099   4.039  15.583  12.891 -0.2478  0.1120 -0.2781
10799DPGS    C152100  21.691  33.355  12.475 -0.2409  0.0304 -0.1032
10799DPGS    C252101  21.673  33.345  12.774 -0.0263  0.2612 -0.0814
10799DPGS    C352102  21.436  33.267  12.607 -0.0962 -0.0194  0.1452
10799DPGS   AM152103  21.592  33.096  12.105  0.2398 -0.1411 -0.0468
10799DPGS   AM252104  21.621  33.314  11.932 -0.0089 -0.0808  0.2060
10799DPGS   D1A52105  21.445  32.925  11.927 -0.1406  0.1086  0.3773
10799DPGS   C2A52106  20.971  32.970  11.806  0.0072  0.0564  0.1076
10799DPGS   C3A52107  20.651  32.941  11.545  0.0113 -0.0230 -0.1775
10799DPGS   C4A52108  20.358  32.837  11.153 -0.1174  0.0328 -0.1493
10799DPGS   C1B52109  21.504  33.395  11.580  0.0867 -0.1419  0.2066
10799DPGS   C2B52110  21.250  33.289  11.159 -0.0088 -0.1589  0.0031
10799DPGS   C3B52111  21.142  33.323  10.837 -0.0681  0.1607 -0.1856
10799DPGS   C4B52112  20.888  33.422  10.527 -0.0270  0.0025 -0.0129
10800DPGS    C152113  27.636  32.883  10.187 -0.1868  0.2590  0.0912
10800DPGS    C252114  27.814  33.034  10.375 -0.3108  0.0748  0.3611
10800DPGS    C352115  27.564  33.162  10.270 -0.0254  0.3330 -0.0167
10800DPGS   AM152116  27.779  33.110   9.747 -0.0926  0.1895 -0.0692
10800DPGS   AM252117  27.991  32.950   9.752 -0.3440  0.1111 -0.1022
10800DPGS   D1A52118  27.782  33.199   9.454  0.1478 -0.0547 -0.3099
10800DPGS   C2A52119  27.864  33.283   9.051  0.0842  0.2526 -0.3324
10800DPGS   C3A52120  27.677  33.338   8.680  0.1194 -0.2467 -0.1569
10800DPGS   C4A52121  27.861  33.415   8.385  0.2423 -0.0915 -0.0090
10800DPGS   C1B52122  28.197  32.909   9.455 -0.0760  0.3009  0.0764
10800DPGS   C2B52123  28.337  32.945   9.064 -0.0289  0.1503  0.2160
10800DPGS   C3B52124  28.222  33.064   8.618  0.0470  0.0988 -0.3255
10800DPGS   C4B52125  28.206  32.914   8.281  0.3470  0.0274 -0.0413
10801DPGS    C152126   3.107  20.460  12.681 -0.0292  0.6647 -0.0976
10801DPGS    C252127   2.814  20.500  12.730 -0.0804  0.2500 -0.0403
10801DPGS    C352128   2.906  20.298  12.528  0.1715 -0.0822  0.3975
10801DPGS   AM152129   3.465  20.215  12.513 -0.1187 -0.3926 -0.1956
10801DPGS   AM252130   3.569  20.475  12.458 -0.0686  0.0095  0.2166
10801DPGS   D1A52131   3.630  19.971  12.468 -0.1418  0.0014  0.0459
10801DPGS   C2A52132   4.071  20.047  12.480  0.3743 -0.1548  0.2145
10801DPGS   C3A52133   4.535  20.067  12.463  0.0664 -0.0918 -0.0648
10801DPGS   C4A52134   4.987  20.164  12.484 -0.1619  0.2364 -0.1007
10801DPGS   C1B52135   3.928  20.550  12.494  0.1887  0.1078  0.0569
10801DPGS   C2B52136   4.363  20.535  12.462 -0.1562  0.2444  0.0700
10801DPGS   C3B52137   4.747  20.582  12.275  0.1137  0.2339 -0.0196
10801DPGS   C4B52138   4.982  20.851  12.159  0.0121  0.0916 -0.2448
10802DPGS    C152139  27.185   9.581   7.368  0.1351  0.2228  0.0862
10802DPGS    C252140  27.232   9.708   7.101  0.1372  0.0460  0.0018
10802DPGS    C352141  26.977   9.761   7.250  0.0362 -0.0371 -0.1402
10802DPGS   AM152142  27.013   9.266   7.024 -0.1570  0.2368  0.0240
10802DPGS   AM252143  27.168   9.300   6.788  0.0992 -0.0382 -0.1128
10802DPGS   D1A52144  26.823   9.065   7.039  0.1178  0.1266  0.1783
10802DPGS   C2A52145  26.703   8.750   6.702 -0.3027  0.0798 -0.1233
10802DPGS   C3A52146  26.369   8.610   6.508  0.0174 -0.0814  0.2612
10802DPGS   C4A52147  25.938   8.596   6.264  0.1274  0.0652 -0.0441
10802DPGS   C1B52148  27.092   9.091   6.494 -0.0599  0.2723  0.0256
10802DPGS   C2B52149  26.864   8.821   6.209 -0.1290 -0.1981 -0.0175
10802DPGS   C3B52150  26.483   8.730   5.959  0.3840 -0.0278  0.4294
10802DPGS   C4B52151  26.164   8.618   5.632 -0.0549 -0.1273 -0.0300
10803DPGS    C152152  27.991   6.726   8.840 -0.0166 -0.0780  0.1000
10803DPGS    C252153  28.143   6.709   9.098 -0.1612 -0.0714  0.1858
10803DPGS    C352154  28.139   6.474   8.911  0.2729  0.0621  0.0024
10803DPGS   AM152155  27.824   6.433   8.444  0.0475 -0.0795 -0.1682
10803DPGS   AM252156  27.612   6.584   8.473 -0.2693  0.0303 -0.1157
10803DPGS   D1A52157  27.815   6.229   8.242 -0.2740 -0.1675 -0.1404
10803DPGS   C2A52158  27.746   6.081   7.896  0.1505 -0.1353 -0.0913
10803DPGS   C3A52159  27.498   5.980   7.545  0.1868  0.1363 -0.0272
10803DPGS   C4A52160  27.397   5.693   7.350 -0.0961 -0.1580 -0.0206
10803DPGS   C1B52161  27.347   6.619   8.199 -0.1247 -0.1395  0.2751
10803DPGS   C2B52162  27.236   6.507   7.760 -0.0402 -0.5166  0.1294
10803DPGS   C3B52163  27.138   6.319   7.296 -0.0865  0.2521 -0.4844
10803DPGS   C4B52164  26.993   5.929   7.165  0.0486 -0.0023 -0.2733
10804DPGS    C152165   3.993   1.787  17.326 -0.0788 -0.0857 -0.1776
10804DPGS    C252166   3.974   1.659  17.596 -0.1905  0.1353 -0.0789
10804DPGS    C352167   4.203   1.593  17.415 -0.2162 -0.1574 -0.0078
10804DPGS   AM152168   4.315   1.980  17.008 -0.6805  0.3130  0.2642
10804DPGS   AM252169   4.288   1.738  16.849  0.0852 -0.1386  0.1306
10804DPGS   D1A52170   4.464   2.197  16.990 -0.2707 -0.4421 -0.1595
10804DPGS   C2A52171   4.529   2.528  16.626 -0.0744 -0.0176  0.1629
10804DPGS   C3A52172   4.852   2.724  16.642 -0.1395 -0.3750 -0.0447
10804DPGS   C4A52173   5.052   3.069  16.458 -0.1792  0.1767  0.1654
10804DPGS   C1B52174   4.414   1.550  16.557  0.1735 -0.0007  0.3570
10804DPGS   C2B52175   4.487   1.667  16.069 -0.2546 -0.0630  0.1062
10804DPGS   C3B52176   4.607   1.688  15.615 -0.1314  0.1758  0.3399
10804DPGS   C4B52177   4.630   1.903  15.258  0.3419 -0.0642  0.0347
10805DPGS    C152178  29.871  18.406   3.811 -0.2333 -0.1230  0.1634
10805DPGS    C252179  29.820  18.697   3.860 -0.3177 -0.1272  0.0996
10805DPGS    C352180  30.044  18.558   4.003 -0.2206 -0.0091  0.0619
10805DPGS   AM152181  30.024  18.655   3.425 -0.1618  0.0364 -0.1871
10805DPGS   AM252182  30.018  18.392   3.333 -0.0854  0.2005 -0.3106
10805DPGS   D1A52183  30.171  18.847   3.274 -0.0068  0.1751 -0.1050
10805DPGS   C2A52184  30.140  18.965   2.876 -0.0792 -0.1080  0.1522
10805DPGS   C3A52185  30.252  18.905   2.400 -0.0152  0.0406 -0.4910
10805DPGS   C4A52186  30.431  19.090   2.079 -0.0626 -0.3774  0.0307
10805DPGS   C1B52187  30.010  18.271   2.993  0.0705  0.3976 -0.0683
10805DPGS   C2B52188  30.064  18.336   2.686  0.4085  0.0788 -0.1331
10805DPGS   C3B52189  30.022  18.432   2.252 -0.1157  0.1693  0.0288
10805DPGS   C4B52190  30.188  18.626   1.880 -0.1190 -0.2234 -0.4371
10806DPGS    C152191  25.134  23.608   8.715 -0.0227  0.0036 -0.0289
10806DPGS    C252192  25.125  23.714   8.995  0.0762  0.2265 -0.1087
10806DPGS    C352193  25.295  23.851   8.789  0.0265  0.0461 -0.2699
10806DPGS   AM152194  24.745  23.959   8.770  0.3847 -0.0981  0.2989
10806DPGS   AM252195  24.755  23.855   8.550  0.0967 -0.2788  0.0355
10806DPGS   D1A52196  24.634  24.238   8.847 -0.0428  0.2050  0.0257
10806DPGS   C2A52197  24.223  24.293   8.717  0.1947 -0.1706  0.0613
10806DPGS   C3A52198  23.834  24.251   8.527 -0.0070 -0.1461  0.0209
10806DPGS   C4A52199  23.507  24.410   8.405  0.4260 -0.0184 -0.0244
10806DPGS   C1B52200  24.502  23.884   8.305 -0.0958  0.0409 -0.0059
10806DPGS   C2B52201  24.122  24.094   8.121  0.1273  0.2268 -0.1380
10806DPGS   C3B52202  23.815  24.287   8.022 -0.1325  0.0664  0.1841
10806DPGS   C4B52203  23.460  24.473   7.878 -0.3285  0.1320  0.1532
10807DPGS    C152204  27.804   8.311   7.435 -0.0836  0.0040  0.1679
10807DPGS    C252205  27.755   8.134   7.673  0.1011 -0.1747  0.0748
10807DPGS    C352206  27.806   8.013   7.403  0.0494  0.0247 -0.0259
10807DPGS   AM152207  27.561   8.377   7.028 -0.0115 -0.1493 -0.1668
10807DPGS   AM252208  27.374   8.232   7.131 -0.1476 -0.1853 -0.2104
10807DPGS   D1A52209  27.638   8.450   6.765 -0.0112  0.1782  0.2263
10807DPGS   C2A52210  27.821   8.398   6.299 -0.3300  0.4088 -0.2404
10807DPGS   C3A52211  27.804   8.132   5.986 -0.2098  0.0113  0.0105
10807DPGS   C4A52212  27.701   7.979   5.642 -0.1801 -0.0778 -0.0998
10807DPGS   C1B52213  27.124   8.051   6.933 -0.4675  0.1885 -0.2856
10807DPGS   C2B52214  26.896   7.873   6.676  0.2796 -0.1302  0.0100
10807DPGS   C3B52215  26.613   7.753   6.380  0.2000 -0.2937 -0.0650
10807DPGS   C4B52216  26.148   7.663   6.429  0.1534 -0.0928  0.1957
10808DPGS    C152217  30.412  10.824   5.755 -0.0039 -0.0378 -0.1793
10808DPGS    C252218  30.329  10.982   5.997  0.3671 -0.1248  0.0090
10808DPGS    C352219  30.164  10.749   5.906  0.0889  0.0629  0.0262
10808DPGS   AM152220  30.528  10.366   5.652  0.0413  0.2871 -0.0715
10808DPGS   AM252221  30.576  10.474   5.393  0.1762  0.0839 -0.1237
10808DPGS   D1A52222  30.412  10.100   5.674 -0.0017  0.1073 -0.1203
10808DPGS   C2A52223  30.587   9.891   5.371  0.0306  0.0047  0.2440
10808DPGS   C3A52224  30.636   9.701   5.036  0.0082  0.2215  0.2200
10808DPGS   C4A52225  30.742   9.505   4.724 -0.2268 -0.0011 -0.0365
10808DPGS   C1B52226  30.721  10.324   5.106  0.4028 -0.1352  0.0631
10808DPGS   C2B52227  30.730  10.117   4.812 -0.2990 -0.1031  0.0528
10808DPGS   C3B52228  30.803   9.938   4.516 -0.0310  0.5301 -0.0569
10808DPGS   C4B52229  31.060   9.551   4.277  0.3119  0.2177 -0.3550
10809DPGS    C152230   0.911  15.819   9.108  0.0973 -0.0163 -0.1678
10809DPGS    C252231   0.716  15.699   8.915 -0.2332  0.0124  0.1416
10809DPGS    C352232   0.702  15.627   9.206  0.2279  0.0080  0.1661
10809DPGS   AM152233   1.161  15.414   8.951 -0.1403 -0.0821  0.1475
10809DPGS   AM252234   1.126  15.469   8.680  0.1168 -0.1057  0.3301
10809DPGS   D1A52235   1.402  15.256   9.039  0.0166  0.0365 -0.0023
10809DPGS   C2A52236   1.733  15.116   8.817  0.0104 -0.3035 -0.1359
10809DPGS   C3A52237   2.067  15.065   8.779 -0.2723  0.1139 -0.0688
10809DPGS   C4A52238   2.469  15.131   8.672 -0.1050  0.0346 -0.1113
10809DPGS   C1B52239   1.340  15.510   8.394 -0.0942 -0.1664  0.2111
10809DPGS   C2B52240   1.716  15.331   8.323  0.1047 -0.0471 -0.2897
10809DPGS   C3B52241   2.142  15.161   8.280  0.2165  0.0208  0.2868
10809DPGS   C4B52242   2.437  15.146   8.091 -0.2474  0.1002  0.0353
10810DPGS    C152243  23.179  13.652  12.622 -0.0572  0.1098 -0.1676
10810DPGS    C252244  23.041  13.916  12.656 -0.0806  0.0791 -0.0239
10810DPGS    C352245  23.001  13.699  12.859  0.1526  0.0587  0.0013
10810DPGS   AM152246  22.877  13.337  12.421 -0.1506 -0.0626  0.1802
10810DPGS   AM252247  22.908  13.527  12.229 -0.0381  0.0955  0.2376
10810DPGS   D1A52248  22.662  13.148  12.398 -0.0632  0.1593  0.0902
10810DPGS   C2A52249  22.427  13.139  12.125  0.2204  0.0193 -0.2782
10810DPGS   C3A52250  22.152  13.044  11.835  0.0612 -0.1373  0.1319
10810DPGS   C4A52251  21.845  12.878  11.512 -0.2950  0.1864  0.2396
10810DPGS   C1B52252  22.710  13.537  11.904  0.0359  0.0097 -0.2122
10810DPGS   C2B52253  22.423  13.413  11.696 -0.3284  0.1423 -0.0423
10810DPGS   C3B52254  22.099  13.355  11.457  0.0030  0.0476 -0.2531
10810DPGS   C4B52255  21.797  13.631  11.300 -0.1866  0.2833  0.1260
10811DPGS    C152256   2.971  21.864  13.154 -0.1220  0.1233  0.0726
10811DPGS    C252257   2.694  21.952  13.078 -0.0061  0.2064 -0.2637
10811DPGS    C352258   2.912  21.947  12.872  0.1998 -0.0369 -0.0448
10811DPGS   AM152259   3.442  21.807  13.010 -0.3080 -0.0311  0.0276
10811DPGS   AM252260   3.436  22.048  13.117  0.0211 -0.1743  0.2333
10811DPGS   D1A52261   3.707  21.786  12.879  0.4089  0.1249  0.1848
10811DPGS   C2A52262   4.012  22.011  12.980  0.0535  0.0466 -0.2429
10811DPGS   C3A52263   4.392  22.080  12.842 -0.1920 -0.1199  0.2720
10811DPGS   C4A52264   4.915  21.979  12.876 -0.2923  0.0934 -0.3669
10811DPGS   C1B52265   3.526  22.379  13.006 -0.0468  0.3600  0.0384
10811DPGS   C2B52266   3.910  22.546  12.967  0.0399  0.0366  0.0710
10811DPGS   C3B52267   4.363  22.610  12.856  0.1928 -0.2277  0.2723
10811DPGS   C4B52268   4.487  22.787  12.463  0.3888  0.1742  0.3164
10812DPGS    C152269  26.995  12.454   5.715 -0.2056 -0.2262  0.1375
10812DPGS    C252270  27.081  12.253   5.921  0.3710 -0.2467 -0.1137
10812DPGS    C352271  27.278  12.354   5.719 -0.0202  0.2668 -0.2484
10812DPGS   AM152272  26.877  12.043   5.459 -0.1040  0.2119  0.0447
10812DPGS   AM252273  26.685  12.082   5.653  0.0699  0.3052 -0.3089
10812DPGS   D1A52274  26.813  11.945   5.186  0.1728  0.0979  0.2767
10812DPGS   C2A52275  26.633  11.835   4.820 -0.0535 -0.0358  0.0425
10812DPGS   C3A52276  26.544  11.559   4.599 -0.1788 -0.0543  0.1696
10812DPGS   C4A52277  26.350  11.339   4.270  0.1040 -0.0489 -0.2135
10812DPGS   C1B52278  26.331  12.100   5.557 -0.1180  0.1338 -0.2157
10812DPGS   C2B52279  25.999  11.947   5.163 -0.2196  0.1085  0.3072
10812DPGS   C3B52280  25.969  11.723   4.725 -0.0832  0.0210 -0.0389
10812DPGS   C4B52281  25.779  11.826   4.361  0.1981 -0.0829  0.0530
10813DPGS    C152282  25.908  15.902   5.563 -0.0180  0.0389  0.1425
10813DPGS    C252283  25.912  16.202   5.584 -0.2904  0.0634 -0.1086
10813DPGS    C352284  26.149  16.055   5.473 -0.1411  0.1813  0.0520
10813DPGS   AM152285  25.650  16.041   5.182 -0.0895  0.2601  0.0771
10813DPGS   AM252286  25.473  15.946   5.357 -0.1102  0.0743  0.1832
10813DPGS   D1A52287  25.548  16.134   4.898 -0.0097  0.0336 -0.0291
10813DPGS   C2A52288  25.428  16.058   4.520 -0.0423 -0.0133 -0.0514
10813DPGS   C3A52289  25.245  16.048   4.188 -0.1595 -0.0831  0.1517
10813DPGS   C4A52290  25.061  16.043   3.777  0.1999  0.1264 -0.3278
10813DPGS   C1B52291  25.146  15.907   5.185 -0.0835  0.3262 -0.0982
10813DPGS   C2B52292  24.828  15.848   4.917 -0.1882 -0.1187  0.2166
10813DPGS   C3B52293  24.488  15.832   4.542 -0.0369  0.0273 -0.0173
10813DPGS   C4B52294  24.357  15.806   4.243 -0.3166  0.0751  0.4445
10814DPGS    C152295  25.117  26.109   9.207 -0.1234 -0.0079 -0.0378
10814DPGS    C252296  24.968  25.848   9.203 -0.1090 -0.0141 -0.2130
10814DPGS    C352297  25.159  25.916   8.981  0.2188 -0.0457  0.0546
10814DPGS   AM152298  24.702  26.268   8.955  0.0466  0.2858 -0.2659
10814DPGS   AM252299  24.633  26.199   9.214  0.1286 -0.0363 -0.3025
10814DPGS   D1A52300  24.592  26.458   8.805 -0.1352 -0.0056 -0.1722
10814DPGS   C2A52301  24.286  26.586   8.632  0.0191  0.2216 -0.3346
10814DPGS   C3A52302  23.876  26.696   8.399  0.4320  0.1887  0.2975
10814DPGS   C4A52303  23.443  26.689   8.331 -0.2609  0.0233  0.0156
10814DPGS   C1B52304  24.286  26.196   9.300  0.1832  0.0294  0.1874
10814DPGS   C2B52305  23.769  26.068   9.172  0.0577  0.2489 -0.0043
10814DPGS   C3B52306  23.290  26.198   9.141 -0.4411 -0.1514 -0.3321
10814DPGS   C4B52307  22.916  26.405   9.143 -0.2162  0.0539  0.3189
10815DPGS    C152308  21.414  35.073  12.827  0.0104  0.0711 -0.1965
10815DPGS    C252309  21.683  35.178  12.910  0.0382 -0.0762 -0.0998
10815DPGS    C352310  21.574  34.927  13.034 -0.3300  0.2107  0.1715
10815DPGS   AM152311  21.778  34.948  12.487 -0.1580  0.1279 -0.1448
10815DPGS   AM252312  21.675  34.734  12.416 -0.1437  0.0137 -0.1997
10815DPGS   D1A52313  21.862  35.117  12.287  0.0716 -0.2526  0.1633
10815DPGS   C2A52314  21.731  35.166  11.902  0.1340 -0.0366 -0.0058
10815DPGS   C3A52315  21.605  35.249  11.507  0.4926 -0.1910  0.1226
10815DPGS   C4A52316  21.443  35.314  11.119 -0.1183  0.2941  0.0590
10815DPGS   C1B52317  21.503  34.703  12.091 -0.0558  0.1646  0.3202
10815DPGS   C2B52318  21.366  34.869  11.762 -0.1655  0.1793  0.3554
10815DPGS   C3B52319  21.184  34.979  11.327 -0.3834 -0.2635 -0.0412
10815DPGS   C4B52320  21.172  34.767  11.018 -0.1279  0.1608  0.0289
10816DPGS    C152321  12.095   1.791  18.640  0.2132  0.1447 -0.1206
10816DPGS    C252322  12.278   1.915  18.437  0.1122  0.4214 -0.0447
10816DPGS    C352323  12.382   1.845  18.709  0.1857  0.2788 -0.1090
10816DPGS   AM152324  12.262   1.367  18.425 -0.2602 -0.0243  0.1919
10816DPGS   AM252325  12.266   1.347  18.671  0.2126 -0.0500  0.0155
10816DPGS   D1A52326  12.142   1.325  18.161 -0.2070 -0.0201 -0.2914
10816DPGS   C2A52327  11.966   1.229  17.879 -0.0498  0.0521 -0.3315
10816DPGS   C3A52328  11.813   0.984  17.620 -0.2414 -0.2067 -0.0768
10816DPGS   C4A52329  11.502   0.884  17.502  0.0021 -0.0438  0.0416
10816DPGS   C1B52330  11.975   1.157  18.813 -0.0068  0.0061  0.0683
10816DPGS   C2B52331  11.676   1.146  19.103 -0.1256 -0.2636 -0.2371
10816DPGS   C3B52332  11.345   1.060  19.319  0.2037  0.0571 -0.3957
10816DPGS   C4B52333  11.026   0.653  19.451  0.4128  0.0689  0.2047
10817DPGS    C152334  27.311  11.518   5.838  0.0260  0.0631 -0.1261
10817DPGS    C252335  27.498  11.752   5.857  0.0164  0.0665 -0.0788
10817DPGS    C352336  27.203  11.798   5.833  0.0004  0.0576  0.0916
10817DPGS   AM152337  26.932  11.339   5.644 -0.0967  0.0828  0.0205
10817DPGS   AM252338  26.799  11.572   5.663 -0.2774  0.1090 -0.2833
10817DPGS   D1A52339  27.046  11.100   5.532  0.0397 -0.2320  0.0858
10817DPGS   C2A52340  26.915  10.846   5.199 -0.2918 -0.2158  0.4149
10817DPGS   C3A52341  26.934  10.645   4.862  0.2730 -0.0710 -0.1340
10817DPGS   C4A52342  26.892  10.210   4.663  0.0122 -0.0934 -0.0984
10817DPGS   C1B52343  26.522  11.646   5.460  0.1351 -0.1808  0.1881
10817DPGS   C2B52344  26.351  11.553   5.100 -0.0259 -0.1427 -0.4032
10817DPGS   C3B52345  26.189  11.265   4.760  0.1330 -0.0455  0.0404
10817DPGS   C4B52346  25.865  11.235   4.502 -0.0469 -0.1073  0.0491
10818DPGS    C152347  17.114   3.738  16.557  0.1728  0.1738  0.1830
10818DPGS    C252348  17.203   3.452  16.541 -0.2533  0.0431  0.0751
10818DPGS    C352349  17.351   3.664  16.388 -0.0207 -0.1383  0.0448
10818DPGS   AM152350  16.914   3.974  16.144 -0.1157 -0.1573  0.1312
10818DPGS   AM252351  16.710   3.962  16.329  0.1601  0.1184 -0.0809
10818DPGS   D1A52352  16.848   4.089  15.889 -0.1810  0.2329 -0.4237
10818DPGS   C2A52353  16.689   4.235  15.477 -0.1286  0.2935  0.2991
10818DPGS   C3A52354  16.814   4.417  15.057 -0.2208 -0.0808 -0.0477
10818DPGS   C4A52355  16.592   4.274  14.600  0.2119  0.2840  0.1430
10818DPGS   C1B52356  16.374   4.124  16.259  0.2881 -0.0677  0.1803
10818DPGS   C2B52357  16.307   4.250  15.892 -0.3940  0.0329 -0.0215
10818DPGS   C3B52358  16.179   4.410  15.560 -0.2677 -0.1321 -0.1131
10818DPGS   C4B52359  16.309   4.372  15.155  0.0634 -0.0183  0.0620
10819DPGS    C152360  21.378  31.655  12.754 -0.1400  0.2261  0.2318
10819DPGS    C252361  21.165  31.866  12.778 -0.0011  0.3847  0.0761
10819DPGS    C352362  21.356  31.870  12.546  0.0563  0.1356  0.1172
10819DPGS   AM152363  20.991  31.421  12.662 -0.2131  0.1917  0.1091
10819DPGS   AM252364  21.172  31.273  12.529 -0.0856  0.0756  0.1347
10819DPGS   D1A52365  20.696  31.462  12.640 -0.0515 -0.0966 -0.0396
10819DPGS   C2A52366  20.492  31.426  12.318 -0.1840 -0.4001  0.0506
10819DPGS   C3A52367  20.165  31.326  12.064 -0.2244 -0.2698 -0.3526
10819DPGS   C4A52368  19.929  31.042  11.741 -0.0255 -0.0929  0.1110
10819DPGS   C1B52369  21.127  30.959  12.348  0.0719  0.1668  0.1443
10819DPGS   C2B52370  20.939  30.663  11.978 -0.1442 -0.2954  0.2468
10819DPGS   C3B52371  20.678  30.677  11.685 -0.3315  0.1502  0.1482
10819DPGS   C4B52372  20.969  30.496  11.421 -0.1265  0.1947  0.1012
10820DPGS    C152373  21.699   1.310  13.132  0.0274 -0.0081  0.2354
10820DPGS    C252374  21.618   1.087  12.948 -0.0842  0.0899  0.1655
10820DPGS    C352375  21.563   1.372  12.872  0.1718  0.1486  0.1968
10820DPGS   AM152376  21.220   1.417  13.321 -0.1035  0.0632  0.1323
10820DPGS   AM252377  21.148   1.190  13.218  0.0488 -0.3480  0.1963
10820DPGS   D1A52378  21.011   1.608  13.336  0.1721 -0.1498  0.1859
10820DPGS   C2A52379  20.844   1.935  13.018 -0.3392  0.2182 -0.0473
10820DPGS   C3A52380  20.650   2.091  12.664 -0.1429  0.3569 -0.0059
10820DPGS   C4A52381  20.391   2.196  12.340  0.2777  0.0278 -0.3070
10820DPGS   C1B52382  21.046   1.099  12.873  0.0781  0.0401  0.0567
10820DPGS   C2B52383  20.762   1.213  12.547 -0.1948 -0.1438 -0.0209
10820DPGS   C3B52384  20.623   1.206  12.282 -0.0164  0.3647 -0.2484
10820DPGS   C4B52385  20.413   1.252  11.818  0.1875  0.0045  0.0347
10821DPGS    C152386  33.675  19.465   5.412  0.0791 -0.2517 -0.0680
10821DPGS    C252387  33.589  19.336   5.156  0.2872 -0.2834 -0.1226
10821DPGS    C352388  33.806  19.211   5.321  0.1336 -0.2782  0.0836
10821DPGS   AM152389  33.890  19.755   5.126 -0.2212 -0.1240 -0.0452
10821DPGS   AM252390  33.710  19.806   4.929  0.3510  0.2295 -0.4382
10821DPGS   D1A52391  34.159  19.865   5.094  0.1748  0.2539 -0.0610
10821DPGS   C2A52392  34.434  19.912   4.908 -0.1517  0.1708 -0.1687
10821DPGS   C3A52393  34.541  19.905   4.441  0.1239  0.1370  0.1402
10821DPGS   C4A52394  34.892  19.851   4.237 -0.0795 -0.3998  0.2376
10821DPGS   C1B52395  33.828  19.927   4.605 -0.2357  0.0023  0.1208
10821DPGS   C2B52396  34.121  20.066   4.231  0.2142 -0.0303  0.2359
10821DPGS   C3B52397  34.396  20.085   3.879  0.2434  0.1067  0.2674
10821DPGS   C4B52398  34.567  19.957   3.416 -0.0711 -0.1595  0.0954
10822DPGS    C152399  21.165  13.844  15.203  0.1541  0.0338  0.0607
10822DPGS    C252400  21.267  13.606  15.051  0.0702  0.2634 -0.3615
10822DPGS    C352401  21.441  13.848  15.088  0.1102  0.1880 -0.0399
10822DPGS   AM152402  20.996  14.018  14.771 -0.0682 -0.3124 -0.0696
10822DPGS   AM252403  20.839  13.803  14.811 -0.2081  0.1731 -0.1675
10822DPGS   D1A52404  20.841  14.213  14.637  0.1511 -0.3704 -0.1190
10822DPGS   C2A52405  20.470  14.279  14.548  0.1150  0.3184 -0.1221
10822DPGS   C3A52406  20.176  14.305  14.207  0.1518  0.2431 -0.0297
10822DPGS   C4A52407  19.852  14.402  13.959 -0.0627 -0.2143 -0.0895
10822DPGS   C1B52408  20.482  13.827  14.772 -0.2162  0.1323 -0.0075
10822DPGS   C2B52409  20.047  13.819  14.451 -0.3286 -0.1914 -0.1999
10822DPGS   C3B52410  19.744  14.040  14.257 -0.0847 -0.2278 -0.3188
10822DPGS   C4B52411  19.366  14.153  14.150 -0.1429  0.0595 -0.0809
10823DPGS    C152412  28.677   5.314   9.698  0.0089 -0.0041  0.1915
10823DPGS    C252413  28.595   5.559   9.547 -0.1558 -0.1101  0.1073
10823DPGS    C352414  28.782   5.583   9.780  0.1807  0.0435 -0.1731
10823DPGS   AM152415  28.959   5.399   9.270 -0.1917  0.0643 -0.1812
10823DPGS   AM252416  29.135   5.246   9.402  0.3239  0.2858 -0.1961
10823DPGS   D1A52417  28.964   5.443   8.981  0.0885  0.2711  0.0010
10823DPGS   C2A52418  29.145   5.198   8.701 -0.1762  0.1150  0.2867
10823DPGS   C3A52419  29.190   5.018   8.326  0.1705 -0.1256  0.0922
10823DPGS   C4A52420  29.257   5.017   8.003 -0.3093  0.3000  0.3298
10823DPGS   C1B52421  29.381   5.018   9.237 -0.1059  0.1016  0.1818
10823DPGS   C2B52422  29.532   4.825   8.918 -0.0154  0.1534 -0.1554
10823DPGS   C3B52423  29.545   4.573   8.558  0.0925 -0.0970  0.0866
10823DPGS   C4B52424  29.507   4.557   8.111 -0.1167  0.0842  0.0333
10824DPGS    C152425  19.785  29.512  15.169  0.0776 -0.0545  0.0833
10824DPGS    C252426  19.722  29.359  15.418  0.0645  0.1985  0.2375
10824DPGS    C352427  19.574  29.299  15.164  0.0258 -0.0092  0.3079
10824DPGS   AM152428  19.666  29.547  14.677 -0.1717 -0.1228 -0.0506
10824DPGS   AM252429  19.440  29.668  14.738 -0.0090  0.0128  0.0267
10824DPGS   D1A52430  19.740  29.469  14.407 -0.1036  0.2135 -0.0360
10824DPGS   C2A52431  19.490  29.425  14.148 -0.0935 -0.0745  0.1485
10824DPGS   C3A52432  19.131  29.286  13.894 -0.0780  0.1192  0.2201
10824DPGS   C4A52433  19.071  29.107  13.600 -0.0223 -0.2249 -0.2344
10824DPGS   C1B52434  19.170  29.684  14.488 -0.0215 -0.0006 -0.0046
10824DPGS   C2B52435  18.855  29.550  14.253 -0.0406  0.2128 -0.1207
10824DPGS   C3B52436  18.597  29.257  13.957 -0.1811 -0.3857  0.0487
10824DPGS   C4B52437  18.490  28.832  13.770 -0.0021  0.0364 -0.2205
10825DPGS    C152438  18.891  24.988  19.150  0.1264  0.2280 -0.2037
10825DPGS    C252439  19.101  25.021  19.360  0.1369  0.2739 -0.2220
10825DPGS    C352440  18.999  24.747  19.292  0.2312  0.2463 -0.2527
10825DPGS   AM152441  18.427  24.880  19.274 -0.3063 -0.0807 -0.0457
10825DPGS   AM252442  18.448  25.110  19.410  0.0271 -0.1236  0.0076
10825DPGS   D1A52443  18.205  24.742  19.196  0.0285 -0.2105  0.2069
10825DPGS   C2A52444  17.939  24.617  18.898  0.3917 -0.1358 -0.1386
10825DPGS   C3A52445  17.598  24.586  18.676 -0.2555  0.2237 -0.1351
10825DPGS   C4A52446  17.396  24.273  18.506 -0.3265  0.1588 -0.0187
10825DPGS   C1B52447  18.209  25.396  19.402 -0.2345 -0.1398 -0.1201
10825DPGS   C2B52448  18.023  25.376  19.038 -0.1492  0.1745  0.2149
10825DPGS   C3B52449  17.810  25.526  18.799 -0.1773 -0.1037  0.0808
10825DPGS   C4B52450  17.403  25.692  18.845  0.0059 -0.2191 -0.4576
10826DPGS    C152451  18.182  13.348  17.361 -0.0887  0.0116  0.0480
10826DPGS    C252452  18.275  13.240  17.626  0.1340  0.2569  0.0722
10826DPGS    C352453  17.991  13.200  17.538  0.1309 -0.0658  0.2240
10826DPGS   AM152454  17.973  13.120  16.958 -0.0818 -0.0546  0.2272
10826DPGS   AM252455  17.963  13.356  16.829  0.0184  0.1319 -0.0241
10826DPGS   D1A52456  17.797  12.928  16.828  0.0102  0.0716  0.0197
10826DPGS   C2A52457  17.542  12.913  16.454 -0.1878  0.1968 -0.2170
10826DPGS   C3A52458  17.300  12.983  16.130 -0.0852 -0.0101  0.1180
10826DPGS   C4A52459  17.010  13.200  15.990 -0.1708 -0.2320  0.2385
10826DPGS   C1B52460  17.817  13.381  16.498  0.0310 -0.0719 -0.1372
10826DPGS   C2B52461  17.541  13.457  16.038  0.3327  0.0211  0.1167
10826DPGS   C3B52462  17.214  13.605  15.802 -0.3095  0.0186  0.3882
10826DPGS   C4B52463  17.173  13.816  15.354  0.1302  0.0669  0.2575
10827DPGS    C152464  29.543  32.711  10.251  0.0249 -0.0978 -0.0142
10827DPGS    C252465  29.377  32.954  10.309  0.1407 -0.0123 -0.0367
10827DPGS    C352466  29.292  32.685  10.413  0.0001  0.0337 -0.0311
10827DPGS   AM152467  29.331  32.714   9.837  0.1339  0.1460  0.0276
10827DPGS   AM252468  29.428  32.958   9.820 -0.1350  0.2463  0.0292
10827DPGS   D1A52469  29.227  32.554   9.619  0.3466 -0.3020  0.3699
10827DPGS   C2A52470  29.327  32.580   9.111 -0.0692  0.2115  0.3098
10827DPGS   C3A52471  29.466  32.476   8.746 -0.2548 -0.0494  0.2252
10827DPGS   C4A52472  29.554  32.551   8.380  0.2197 -0.0825  0.1667
10827DPGS   C1B52473  29.609  33.152   9.548 -0.3751  0.2292 -0.2405
10827DPGS   C2B52474  29.577  33.161   9.181  0.0267 -0.1551 -0.2577
10827DPGS   C3B52475  29.540  33.385   8.891  0.0505  0.2327 -0.0280
10827DPGS   C4B52476  29.625  33.605   8.527  0.0400  0.1276  0.2566
10828DPGS    C152477  34.564   1.159  13.147  0.1526 -0.0534 -0.0254
10828DPGS    C252478  34.272   1.161  13.077  0.1313  0.0143  0.0670
10828DPGS    C352479  34.438   1.407  13.035  0.1499  0.0108  0.1195
10828DPGS   AM152480  35.018   1.421  12.994 -0.3090 -0.1622  0.0511
10828DPGS   AM252481  35.065   1.298  13.224 -0.0217 -0.4601 -0.1527
10828DPGS   D1A52482  35.196   1.445  12.730  0.0778 -0.1612  0.0573
10828DPGS   C2A52483   0.080   1.438  12.406  0.1766  0.1372 -0.3467
10828DPGS   C3A52484   0.356   1.273  12.140  0.0831 -0.1003 -0.2853
10828DPGS   C4A52485   0.506   1.259  11.695 -0.1185  0.0601  0.0435
10828DPGS   C1B52486  35.257   0.994  13.277 -0.1026  0.2678  0.1156
10828DPGS   C2B52487   0.057   0.697  13.002  0.0037  0.1809  0.1583
10828DPGS   C3B52488   0.379   0.525  12.687 -0.1294 -0.0241  0.0561
10828DPGS   C4B52489   0.626   0.427  12.300 -0.0003 -0.2264  0.0874
10829DPGS    C152490  16.217  18.502  19.570  0.2973 -0.0873  0.0701
10829DPGS    C252491  16.220  18.802  19.577 -0.0173 -0.0815  0.0146
10829DPGS    C352492  16.434  18.654  19.429  0.1246  0.1152  0.0209
10829DPGS   AM152493  15.877  18.678  19.231 -0.2147  0.0394  0.1652
10829DPGS   AM252494  16.067  18.552  19.099 -0.0832 -0.0691 -0.4297
10829DPGS   D1A52495  15.672  18.861  19.161  0.1231 -0.0313 -0.2949
10829DPGS   C2A52496  15.513  19.182  18.974  0.1065 -0.2137  0.2765
10829DPGS   C3A52497  15.281  19.171  18.625 -0.1387 -0.1154 -0.0448
10829DPGS   C4A52498  14.863  19.389  18.436  0.2349 -0.0137  0.0765
10829DPGS   C1B52499  15.995  18.460  18.760 -0.1395  0.1002  0.0449
10829DPGS   C2B52500  15.791  18.628  18.281 -0.1051  0.1658 -0.1631
10829DPGS   C3B52501  15.598  18.920  17.956  0.0255  0.2294  0.1753
10829DPGS   C4B52502  15.509  19.324  17.664 -0.0087 -0.2070 -0.0798
10830DPGS    C152503  18.569  32.976  15.091 -0.0650  0.0399  0.0593
10830DPGS    C252504  18.623  33.269  15.052 -0.1187  0.0472  0.0407
10830DPGS    C352505  18.531  33.101  14.821  0.0447 -0.0136  0.0186
10830DPGS   AM152506  18.297  32.596  14.982 -0.1681  0.0331  0.0381
10830DPGS   AM252507  18.420  32.603  14.737  0.0430  0.0717 -0.1574
10830DPGS   D1A52508  18.066  32.458  15.103 -0.0634  0.1009  0.2334
10830DPGS   C2A52509  17.708  32.417  14.956 -0.1401 -0.0085  0.5238
10830DPGS   C3A52510  17.357  32.360  14.787  0.1721  0.0237  0.1748
10830DPGS   C4A52511  17.173  32.342  14.408  0.0247 -0.1368  0.1636
10830DPGS   C1B52512  18.348  32.877  14.475  0.3338 -0.1644 -0.0731
10830DPGS   C2B52513  18.103  32.796  14.177  0.1867  0.0580 -0.0626
10830DPGS   C3B52514  17.881  32.471  13.985 -0.4799 -0.1543  0.1214
10830DPGS   C4B52515  17.479  32.451  13.995 -0.1214  0.0303  0.0776
10831DPGS    C152516  27.138  33.638  10.309 -0.1236  0.0454  0.1680
10831DPGS    C252517  27.174  33.443  10.534  0.2213  0.0084  0.0830
10831DPGS    C352518  27.082  33.347  10.265 -0.1822  0.0511  0.2037
10831DPGS   AM152519  26.943  33.684   9.843 -0.0654  0.1557  0.0371
10831DPGS   AM252520  26.732  33.815   9.979 -0.0952  0.1663  0.0284
10831DPGS   D1A52521  26.951  33.721   9.562 -0.0163  0.0950  0.2443
10831DPGS   C2A52522  26.898  33.659   9.101  0.1316 -0.0258  0.1385
10831DPGS   C3A52523  26.850  33.745   8.674  0.1097  0.1051 -0.2106
10831DPGS   C4A52524  26.630  34.019   8.485 -0.0438 -0.3437  0.0165
10831DPGS   C1B52525  26.430  33.920   9.801  0.3356  0.1423  0.1260
10831DPGS   C2B52526  26.109  34.022   9.450 -0.1160 -0.1942 -0.1825
10831DPGS   C3B52527  25.942  34.254   9.079 -0.1395  0.1455  0.2047
10831DPGS   C4B52528  25.797  34.566   9.094 -0.1056 -0.0846  0.2113
10832DPGS    C152529  11.729  28.098  21.716  0.0711 -0.3437 -0.1750
10832DPGS    C252530  11.478  28.241  21.634  0.0483 -0.0797  0.3341
10832DPGS    C352531  11.464  27.960  21.739  0.0277 -0.2506 -0.1149
10832DPGS   AM152532  11.857  27.911  21.303 -0.1814  0.0939  0.1326
10832DPGS   AM252533  11.895  28.169  21.249 -0.0186 -0.0240  0.3406
10832DPGS   D1A52534  11.874  27.667  21.168  0.0728 -0.2060  0.0729
10832DPGS   C2A52535  12.023  27.550  20.770 -0.0709  0.1040 -0.1986
10832DPGS   C3A52536  12.157  27.527  20.351  0.1205  0.2331 -0.1730
10832DPGS   C4A52537  12.261  27.518  19.944 -0.1238 -0.1018 -0.3019
10832DPGS   C1B52538  12.166  28.322  21.059 -0.3605 -0.1472 -0.0430
10832DPGS   C2B52539  12.445  28.288  20.743 -0.2376  0.1217  0.1870
10832DPGS   C3B52540  12.579  28.278  20.375  0.0393 -0.1729 -0.2821
10832DPGS   C4B52541  12.761  28.078  20.084  0.1616 -0.1418 -0.1170
10833DPGS    C152542  27.419  25.629   7.470  0.0539 -0.0768 -0.0488
10833DPGS    C252543  27.343  25.779   7.719  0.0576  0.0954 -0.1510
10833DPGS    C352544  27.190  25.533   7.639  0.1562 -0.0516  0.1053
10833DPGS   AM152545  27.108  25.664   7.088  0.0310 -0.2588 -0.0075
10833DPGS   AM252546  27.276  25.858   7.002  0.1796 -0.0805  0.3859
10833DPGS   D1A52547  26.837  25.728   6.982 -0.1651 -0.1409 -0.0519
10833DPGS   C2A52548  26.670  26.006   6.715 -0.0644  0.0241 -0.0550
10833DPGS   C3A52549  26.472  26.198   6.462  0.1005 -0.1642 -0.3929
10833DPGS   C4A52550  26.545  26.344   6.067  0.0563  0.3692 -0.1331
10833DPGS   C1B52551  27.170  26.099   6.734 -0.1651  0.2411  0.0037
10833DPGS   C2B52552  27.005  26.327   6.417  0.0653 -0.2756  0.2800
10833DPGS   C3B52553  26.976  26.656   6.153 -0.1526 -0.2133  0.0307
10833DPGS   C4B52554  27.085  26.889   5.756  0.0904  0.1226  0.2174
10834DPGS    C152555  23.179  17.638  12.228 -0.1603 -0.1208  0.1108
10834DPGS    C252556  23.240  17.828  12.004  0.3051 -0.1735  0.1886
10834DPGS    C352557  23.046  17.603  11.962 -0.1066  0.2038  0.0391
10834DPGS   AM152558  22.799  17.966  12.309  0.1769 -0.0772  0.0670
10834DPGS   AM252559  22.675  17.725  12.323 -0.1322 -0.0202 -0.2294
10834DPGS   D1A52560  22.754  18.231  12.402  0.1396  0.2378  0.1798
10834DPGS   C2A52561  22.629  18.571  12.633 -0.2173 -0.1674  0.3040
10834DPGS   C3A52562  22.757  18.803  12.926  0.0784 -0.1917 -0.0967
10834DPGS   C4A52563  22.575  18.681  13.275  0.0485  0.3190 -0.1220
10834DPGS   C1B52564  22.333  17.741  12.316  0.0443  0.0265  0.1230
10834DPGS   C2B52565  22.024  17.819  11.939 -0.0162  0.1739 -0.1596
10834DPGS   C3B52566  22.100  18.215  11.576  0.0515  0.0818 -0.0449
10834DPGS   C4B52567  22.149  18.653  11.349 -0.2162 -0.1123  0.0363
10835DPGS    C152568  26.190   6.439   9.760 -0.1208  0.1466  0.0557
10835DPGS    C252569  26.319   6.312  10.000  0.1408 -0.2133 -0.2685
10835DPGS    C352570  26.031   6.255   9.936  0.1154 -0.2415 -0.1299
10835DPGS   AM152571  25.774   6.679   9.642  0.0687  0.4365  0.0947
10835DPGS   AM252572  25.859   6.810   9.861  0.1462  0.0049  0.2860
10835DPGS   D1A52573  25.680   6.702   9.364  0.0784 -0.0326  0.1089
10835DPGS   C2A52574  25.528   6.614   9.042 -0.0714 -0.0894 -0.0355
10835DPGS   C3A52575  25.189   6.592   8.747  0.0324 -0.0929  0.2512
10835DPGS   C4A52576  24.882   6.743   8.546 -0.0117  0.2608 -0.2435
10835DPGS   C1B52577  25.651   6.983  10.120  0.0129  0.1432 -0.0606
10835DPGS   C2B52578  25.300   7.243  10.259  0.1002 -0.2199  0.1343
10835DPGS   C3B52579  24.856   7.242  10.046 -0.3068 -0.2674  0.0910
10835DPGS   C4B52580  24.400   7.173   9.811 -0.2492 -0.1590 -0.0292
10836DPGS    C152581  19.553  34.796  13.919 -0.0593 -0.0285 -0.2627
10836DPGS    C252582  19.768  34.941  13.769  0.0288  0.1142  0.0004
10836DPGS    C352583  19.841  34.730  13.970 -0.0766  0.1432  0.0689
10836DPGS   AM152584  19.658  34.527  13.470  0.1148  0.2149 -0.1903
10836DPGS   AM252585  19.525  34.384  13.643 -0.2040  0.0047 -0.0850
10836DPGS   D1A52586  19.596  34.607  13.208  0.0163  0.0592  0.2526
10836DPGS   C2A52587  19.363  34.815  12.918  0.0594 -0.1704  0.1912
10836DPGS   C3A52588  19.151  34.853  12.540 -0.0556  0.1680  0.2135
10836DPGS   C4A52589  18.816  35.036  12.243 -0.1380  0.0450 -0.0056
10836DPGS   C1B52590  19.177  34.265  13.575  0.0169  0.1500 -0.3049
10836DPGS   C2B52591  18.890  34.226  13.320 -0.0575  0.0425 -0.2658
10836DPGS   C3B52592  18.630  34.298  12.947 -0.3597  0.0847 -0.0095
10836DPGS   C4B52593  18.348  34.573  12.887 -0.2414  0.1863 -0.2777
10837DPGS    C152594   2.148  16.963  11.037 -0.2762  0.0910  0.1985
10837DPGS    C252595   1.943  16.745  11.025 -0.1603 -0.0147  0.1196
10837DPGS    C352596   2.225  16.681  11.105 -0.0795  0.0721 -0.0930
10837DPGS   AM152597   2.555  16.993  10.744  0.0334 -0.2130 -0.0443
10837DPGS   AM252598   2.428  16.789  10.637 -0.3166 -0.0273  0.2007
10837DPGS   D1A52599   2.761  17.182  10.721 -0.1977 -0.2199  0.1080
10837DPGS   C2A52600   3.152  17.074  10.560 -0.1515 -0.2499 -0.2429
10837DPGS   C3A52601   3.484  17.029  10.425 -0.3427 -0.1041 -0.1898
10837DPGS   C4A52602   3.847  16.997  10.193  0.1675  0.0067 -0.0573
10837DPGS   C1B52603   2.546  16.481  10.465  0.0071 -0.0726 -0.2181
10837DPGS   C2B52604   2.566  16.322  10.142  0.0054  0.0988  0.0428
10837DPGS   C3B52605   2.708  16.001   9.824  0.1702 -0.0222 -0.2609
10837DPGS   C4B52606   3.084  15.769   9.884  0.4507 -0.2318 -0.0026
10838DPGS    C152607   4.204  31.637  19.110 -0.0830 -0.0654 -0.2552
10838DPGS    C252608   4.048  31.470  19.305 -0.0473  0.0031 -0.1675
10838DPGS    C352609   4.333  31.400  19.243 -0.0628 -0.0264 -0.2052
10838DPGS   AM152610   4.638  31.864  18.999 -0.1101 -0.0887 -0.0855
10838DPGS   AM252611   4.543  31.683  18.789 -0.1076  0.0448  0.1020
10838DPGS   D1A52612   4.859  32.037  18.888 -0.2107 -0.2761  0.3142
10838DPGS   C2A52613   5.160  32.024  18.608  0.2780 -0.1776  0.3124
10838DPGS   C3A52614   5.424  31.925  18.319  0.0757  0.3808  0.2544
10838DPGS   C4A52615   5.770  31.847  17.975 -0.0055 -0.2836 -0.2553
10838DPGS   C1B52616   4.750  31.439  18.608 -0.2223 -0.2564 -0.0429
10838DPGS   C2B52617   5.070  31.512  18.317 -0.1851  0.0446  0.2683
10838DPGS   C3B52618   5.338  31.494  17.989  0.0862 -0.3013 -0.1225
10838DPGS   C4B52619   5.460  31.523  17.581  0.0148  0.2018 -0.4161
10839DPGS    C152620  17.066   2.159  15.986  0.0394  0.0310  0.3594
10839DPGS    C252621  16.983   2.445  16.024 -0.1732  0.0286 -0.0568
10839DPGS    C352622  16.781   2.225  16.056  0.0208 -0.0893  0.3983
10839DPGS   AM152623  16.930   2.106  15.526  0.2843  0.1029  0.4093
10839DPGS   AM252624  16.950   2.368  15.528  0.2234 -0.2559  0.0892
10839DPGS   D1A52625  16.841   1.960  15.292  0.5001  0.1579  0.2646
10839DPGS   C2A52626  16.670   1.916  14.895  0.2726 -0.4070 -0.1648
10839DPGS   C3A52627  16.412   1.918  14.523  0.0478 -0.0325 -0.1070
10839DPGS   C4A52628  16.140   2.065  14.311  0.0300 -0.0664  0.3564
10839DPGS   C1B52629  16.738   2.621  15.421  0.0465  0.0084  0.1144
10839DPGS   C2B52630  16.525   2.759  15.062 -0.2143 -0.1153 -0.0661
10839DPGS   C3B52631  16.427   2.808  14.635  0.1016  0.0273  0.0388
10839DPGS   C4B52632  16.585   3.091  14.344  0.1706  0.0593 -0.0528
10840DPGS    C152633  28.293   7.649   7.768 -0.1624  0.0521 -0.0314
10840DPGS    C252634  28.219   7.882   7.595 -0.2381  0.0391 -0.0167
10840DPGS    C352635  28.005   7.701   7.702 -0.1791 -0.0386 -0.0305
10840DPGS   AM152636  28.308   7.318   7.385 -0.3048  0.2246  0.0530
10840DPGS   AM252637  28.500   7.454   7.249  0.2074 -0.1127 -0.0303
10840DPGS   D1A52638  28.214   7.062   7.265 -0.2735 -0.2153  0.2512
10840DPGS   C2A52639  28.200   6.672   7.042  0.2283  0.0412  0.1853
10840DPGS   C3A52640  28.096   6.448   6.800 -0.1958 -0.0362  0.1583
10840DPGS   C4A52641  27.831   6.095   6.536 -0.2950 -0.1583  0.0292
10840DPGS   C1B52642  28.603   7.317   6.940 -0.2136  0.0609  0.2051
10840DPGS   C2B52643  28.362   7.015   6.722 -0.0657  0.2055 -0.1259
10840DPGS   C3B52644  28.233   6.808   6.416 -0.1347 -0.1951  0.3100
10840DPGS   C4B52645  28.472   6.731   6.127 -0.0827  0.3281 -0.0832
10841DPGS    C152646  22.125  33.221  12.257  0.0659  0.1188 -0.0086
10841DPGS    C252647  22.323  33.446  12.272  0.1707  0.0497 -0.3267
10841DPGS    C352648  22.076  33.474  12.105  0.1213 -0.0238 -0.2662
10841DPGS   AM152649  22.005  32.972  11.821  0.0525 -0.0321  0.1896
10841DPGS   AM252650  22.178  32.763  11.897 -0.0315 -0.0617  0.0478
10841DPGS   D1A52651  21.815  32.999  11.603 -0.2206  0.1800 -0.1748
10841DPGS   C2A52652  21.424  32.888  11.342  0.1930  0.2230  0.2216
10841DPGS   C3A52653  21.325  32.864  10.948  0.0976 -0.2109 -0.1965
10841DPGS   C4A52654  21.475  32.970  10.470 -0.2763 -0.1788  0.1030
10841DPGS   C1B52655  22.281  32.542  11.633 -0.1724 -0.0655 -0.0663
10841DPGS   C2B52656  22.055  32.638  11.330  0.5039 -0.0491 -0.0788
10841DPGS   C3B52657  21.832  32.815  10.987  0.0377  0.0624  0.0688
10841DPGS   C4B52658  21.926  32.844  10.536 -0.1963 -0.3845 -0.1929
10842DPGS    C152659  27.999   5.230   9.743 -0.0369  0.3447 -0.0088
10842DPGS    C252660  28.190   5.105   9.548 -0.1765  0.2422 -0.0805
10842DPGS    C352661  28.000   4.932   9.704 -0.1193  0.3314  0.0891
10842DPGS   AM152662  27.880   5.232   9.211  0.0443 -0.3326 -0.0305
10842DPGS   AM252663  27.654   5.323   9.305 -0.1756  0.1060 -0.0393
10842DPGS   D1A52664  27.960   5.146   8.952  0.2350 -0.1559 -0.2408
10842DPGS   C2A52665  28.159   4.861   8.606 -0.0049  0.4180  0.1514
10842DPGS   C3A52666  28.274   4.596   8.203 -0.1979  0.0519 -0.6555
10842DPGS   C4A52667  28.053   4.200   8.073 -0.0322  0.1444 -0.1380
10842DPGS   C1B52668  27.394   5.314   9.048  0.2122 -0.1149  0.4289
10842DPGS   C2B52669  27.173   5.095   8.783 -0.1722  0.1446  0.1442
10842DPGS   C3B52670  27.102   4.903   8.388 -0.1872 -0.3417 -0.1480
10842DPGS   C4B52671  27.165   4.932   8.061  0.1711 -0.2804  0.2332
10843DPGS    C152672  18.993  34.008  14.366  0.1580  0.0940  0.0224
10843DPGS    C252673  19.088  34.062  14.645 -0.2397  0.2541  0.1306
10843DPGS    C352674  18.813  33.952  14.599 -0.0251 -0.1691 -0.1801
10843DPGS   AM152675  18.564  34.178  14.146  0.1644 -0.0583  0.0019
10843DPGS   AM252676  18.738  34.342  14.068  0.2191  0.4156  0.1281
10843DPGS   D1A52677  18.300  34.105  14.030  0.1096 -0.2026  0.1395
10843DPGS   C2A52678  18.038  34.140  13.594 -0.1127 -0.1907 -0.2023
10843DPGS   C3A52679  17.794  33.903  13.245 -0.1264  0.1255  0.0303
10843DPGS   C4A52680  17.766  33.978  12.886 -0.1584 -0.1136 -0.1985
10843DPGS   C1B52681  18.694  34.482  13.727 -0.1273 -0.2013  0.0519
10843DPGS   C2B52682  18.432  34.411  13.403 -0.1577  0.0348 -0.3980
10843DPGS   C3B52683  18.070  34.302  13.160  0.0383 -0.1255  0.0077
10843DPGS   C4B52684  17.656  34.352  13.156  0.1386 -0.1973  0.0369
10844DPGS    C152685   3.116  30.939  18.111  0.0035 -0.0337  0.0173
10844DPGS    C252686   3.176  30.647  18.149  0.1437 -0.0508 -0.3165
10844DPGS    C352687   2.902  30.734  18.064  0.0705 -0.0749 -0.1096
10844DPGS   AM152688   3.330  30.759  17.702  0.0520  0.0682 -0.2383
10844DPGS   AM252689   3.106  30.908  17.626  0.0122  0.1604  0.1140
10844DPGS   D1A52690   3.496  30.616  17.486 -0.3139 -0.1913  0.1138
10844DPGS   C2A52691   3.601  30.673  17.084  0.1957 -0.2400 -0.1352
10844DPGS   C3A52692   3.995  30.774  16.966  0.1593 -0.0936  0.3900
10844DPGS   C4A52693   4.220  30.939  16.765 -0.0565 -0.0295 -0.0851
10844DPGS   C1B52694   2.954  31.038  17.312  0.0996  0.0543  0.0067
10844DPGS   C2B52695   3.171  30.993  16.900  0.1683  0.1947  0.0712
10844DPGS   C3B52696   3.489  30.916  16.501  0.0751  0.0276  0.0776
10844DPGS   C4B52697   3.586  30.845  16.055  0.0138  0.1523 -0.0346
10845DPGS    C152698  26.051   7.611   9.271 -0.0019 -0.0405  0.0446
10845DPGS    C252699  26.330   7.638   9.378  0.1277  0.2080 -0.3453
10845DPGS    C352700  26.256   7.401   9.208 -0.0288 -0.0927  0.1317
10845DPGS   AM152701  25.706   7.264   9.285 -0.3975 -0.1650 -0.2556
10845DPGS   AM252702  25.683   7.271   9.542  0.0000 -0.3158  0.1992
10845DPGS   D1A52703  25.546   7.203   9.066 -0.1128  0.1882  0.0398
10845DPGS   C2A52704  25.346   7.231   8.661 -0.1864 -0.0319 -0.4082
10845DPGS   C3A52705  24.991   7.165   8.401 -0.1980  0.0126  0.0172
10845DPGS   C4A52706  24.693   7.073   8.085 -0.0857 -0.3128 -0.1545
10845DPGS   C1B52707  25.534   7.556   9.710  0.0876  0.0829  0.1506
10845DPGS   C2B52708  25.137   7.522   9.729  0.0921 -0.1604 -0.0447
10845DPGS   C3B52709  24.787   7.301   9.535  0.1781  0.2757  0.1399
10845DPGS   C4B52710  24.422   7.221   9.307 -0.0471  0.0393 -0.1614
10846DPGS    C152711  14.625  30.109  20.285  0.1098 -0.0085 -0.0755
10846DPGS    C252712  14.341  30.141  20.376  0.1656 -0.0907  0.1286
10846DPGS    C352713  14.415  30.202  20.092 -0.0403  0.0109  0.0964
10846DPGS   AM152714  14.567  29.662  20.051 -0.1293  0.0847  0.2306
10846DPGS   AM252715  14.806  29.759  19.951 -0.1116 -0.1890 -0.2011
10846DPGS   D1A52716  14.318  29.538  19.960  0.2922  0.0117  0.0391
10846DPGS   C2A52717  14.030  29.265  19.701  0.0621  0.1831  0.0020
10846DPGS   C3A52718  13.743  29.099  19.428  0.2512  0.1167  0.0390
10846DPGS   C4A52719  13.496  28.865  19.132 -0.3710  0.2294  0.1461
10846DPGS   C1B52720  14.947  29.678  19.621  0.0991  0.2373 -0.0802
10846DPGS   C2B52721  14.925  29.760  19.240 -0.3555 -0.2435 -0.0721
10846DPGS   C3B52722  14.649  29.738  18.860  0.4499 -0.2620  0.3007
10846DPGS   C4B52723  14.267  29.934  18.727  0.0327 -0.1483  0.0358
10847DPGS    C152724  20.377  34.653  13.252  0.2571 -0.0257 -0.0052
10847DPGS    C252725  20.384  34.528  13.524 -0.0893  0.1637  0.0942
10847DPGS    C352726  20.130  34.649  13.422  0.0405  0.1008 -0.3122
10847DPGS   AM152727  20.088  34.643  12.861  0.1510 -0.1065  0.1098
10847DPGS   AM252728  19.942  34.833  12.984  0.0101  0.1679  0.1167
10847DPGS   D1A52729  20.023  34.634  12.576 -0.2123  0.1651  0.0370
10847DPGS   C2A52730  19.869  34.754  12.179 -0.1798  0.1828  0.0476
10847DPGS   C3A52731  19.674  34.859  11.832  0.1606  0.1599 -0.3801
10847DPGS   C4A52732  19.595  35.011  11.390  0.1670 -0.1260  0.0215
10847DPGS   C1B52733  19.792  35.159  12.908  0.0544 -0.0171 -0.3464
10847DPGS   C2B52734  19.647  35.016  12.555 -0.0946  0.2984  0.2663
10847DPGS   C3B52735  19.378  35.145  12.224  0.1232 -0.1838  0.0023
10847DPGS   C4B52736  19.135  35.275  11.927 -0.2672 -0.1858 -0.0798
10848DPGS    C152737  22.598  29.579  11.729 -0.1055  0.1060 -0.0876
10848DPGS    C252738  22.880  29.562  11.630 -0.1335  0.2054 -0.1856
10848DPGS    C352739  22.655  29.595  11.435 -0.2314 -0.0793 -0.1230
10848DPGS   AM152740  22.204  29.876  11.671 -0.1356  0.0099  0.1535
10848DPGS   AM252741  22.083  29.664  11.702  0.0108 -0.1717 -0.2037
10848DPGS   D1A52742  22.185  30.151  11.621  0.3846  0.2822 -0.1097
10848DPGS   C2A52743  21.833  30.448  11.539 -0.0377 -0.3625 -0.1073
10848DPGS   C3A52744  21.468  30.535  11.431 -0.2556  0.1079  0.3495
10848DPGS   C4A52745  21.456  30.848  11.191  0.5079 -0.0261 -0.0258
10848DPGS   C1B52746  21.698  29.644  11.630 -0.1301  0.1566  0.1483
10848DPGS   C2B52747  21.338  29.651  11.535 -0.0140 -0.2558  0.0732
10848DPGS   C3B52748  21.016  29.935  11.280  0.2199 -0.1143 -0.1540
10848DPGS   C4B52749  20.717  30.086  11.151 -0.1442  0.2155  0.2073
10849DPGS    C152750   1.262  22.883  10.699  0.0408 -0.1229 -0.1319
10849DPGS    C252751   0.991  23.009  10.730  0.0187 -0.1922 -0.0392
10849DPGS    C352752   1.072  22.890  10.467  0.0778  0.1022 -0.1563
10849DPGS   AM152753   1.334  23.378  10.618 -0.1465 -0.1678 -0.2007
10849DPGS   AM252754   1.251  23.397  10.876 -0.0201 -0.2458 -0.0809
10849DPGS   D1A52755   1.583  23.535  10.559  0.0708 -0.1498  0.0316
10849DPGS   C2A52756   1.875  23.778  10.486 -0.5873 -0.1480  0.1306
10849DPGS   C3A52757   2.186  24.120  10.581 -0.3543  0.0851  0.0560
10849DPGS   C4A52758   2.477  24.549  10.561  0.2594  0.0890 -0.0239
10849DPGS   C1B52759   1.379  23.618  11.116 -0.1261  0.0917  0.0628
10849DPGS   C2B52760   1.678  23.863  11.063 -0.1436 -0.0453  0.0463
10849DPGS   C3B52761   1.969  24.223  11.064 -0.3368 -0.0337  0.0358
10849DPGS   C4B52762   1.990  24.668  11.118 -0.1013  0.2986  0.0826
10850DPGS    C152763  12.753   2.664  17.976 -0.1890  0.0950  0.1368
10850DPGS    C252764  12.984   2.827  17.877 -0.1704  0.1831  0.3233
10850DPGS    C352765  12.727   2.962  17.955 -0.4416  0.0467 -0.3023
10850DPGS   AM152766  12.352   2.598  17.720 -0.0914  0.2942  0.2201
10850DPGS   AM252767  12.544   2.463  17.608 -0.2610 -0.1982 -0.0705
10850DPGS   D1A52768  12.095   2.666  17.744  0.1874  0.2768 -0.2047
10850DPGS   C2A52769  11.726   2.740  17.510  0.1485  0.0366 -0.0383
10850DPGS   C3A52770  11.327   2.886  17.371  0.0494 -0.0085 -0.0989
10850DPGS   C4A52771  11.086   3.076  17.088 -0.4399 -0.1676 -0.1091
10850DPGS   C1B52772  12.495   2.335  17.294 -0.0287 -0.3390 -0.4224
10850DPGS   C2B52773  12.263   2.236  17.030  0.2091  0.0206 -0.1166
10850DPGS   C3B52774  11.968   2.178  16.642 -0.1658 -0.0483  0.1114
10850DPGS   C4B52775  11.910   2.504  16.378 -0.1117  0.0399  0.3292
10851DPGS    C152776   9.747   7.522  18.746 -0.2253 -0.2605  0.1029
10851DPGS    C252777   9.659   7.330  18.533  0.0407  0.0456 -0.2931
10851DPGS    C352778   9.889   7.260  18.712 -0.1510 -0.1910 -0.1339
10851DPGS   AM152779  10.045   7.748  18.429 -0.4332  0.1230  0.0931
10851DPGS   AM252780   9.832   7.820  18.301  0.1465 -0.1903 -0.1609
10851DPGS   D1A52781  10.324   7.815  18.379  0.1167  0.1886 -0.0037
10851DPGS   C2A52782  10.691   7.699  18.142 -0.0592 -0.1854 -0.0056
10851DPGS   C3A52783  10.830   7.792  17.720  0.0874 -0.3849 -0.1956
10851DPGS   C4A52784  11.079   7.894  17.405  0.1840 -0.0029  0.1211
10851DPGS   C1B52785   9.836   7.829  17.933  0.0474  0.0447  0.1929
10851DPGS   C2B52786   9.894   7.894  17.508 -0.1179  0.1548  0.2051
10851DPGS   C3B52787   9.976   7.897  17.141  0.2216  0.3012 -0.0463
10851DPGS   C4B52788   9.846   7.947  16.893  0.2181  0.0867 -0.0566
10852DPGS    C152789  27.529  28.390   9.634 -0.1464 -0.0315 -0.1622
10852DPGS    C252790  27.505  28.644   9.793  0.1805 -0.0961 -0.0048
10852DPGS    C352791  27.694  28.630   9.560  0.1202 -0.1777 -0.0492
10852DPGS   AM152792  27.153  28.591   9.356  0.2814  0.0628  0.0682
10852DPGS   AM252793  27.315  28.528   9.180  0.3234  0.2559  0.1741
10852DPGS   D1A52794  26.941  28.694   9.508 -0.0732  0.0305 -0.0510
10852DPGS   C2A52795  26.756  29.059   9.323 -0.0126 -0.2652 -0.1368
10852DPGS   C3A52796  26.747  29.240   9.014 -0.1273  0.1064  0.1019
10852DPGS   C4A52797  26.841  29.397   8.646 -0.4218 -0.1079 -0.2706
10852DPGS   C1B52798  27.349  28.554   8.794 -0.4547  0.0326 -0.3867
10852DPGS   C2B52799  27.404  28.568   8.412  0.0837 -0.3244  0.1434
10852DPGS   C3B52800  27.363  28.772   8.031  0.0849 -0.2251 -0.0150
10852DPGS   C4B52801  27.303  29.143   7.879 -0.0805  0.1803 -0.1539
10853DPGS    C152802  25.458  19.741   6.306 -0.3244 -0.0687 -0.4026
10853DPGS    C252803  25.290  19.494   6.277 -0.3041 -0.1164 -0.1286
10853DPGS    C352804  25.388  19.578   6.548 -0.0051 -0.0085 -0.2672
10853DPGS   AM152805  25.106  20.065   6.434 -0.0978  0.1392 -0.1857
10853DPGS   AM252806  25.299  20.117   6.603 -0.1274 -0.2293  0.0544
10853DPGS   D1A52807  24.865  20.131   6.301  0.0925  0.2863 -0.1332
10853DPGS   C2A52808  24.431  20.229   6.166 -0.3335  0.2255  0.0141
10853DPGS   C3A52809  24.043  20.213   6.167  0.2252 -0.2565 -0.2371
10853DPGS   C4A52810  23.688  20.315   5.963 -0.0626  0.1794  0.2201
10853DPGS   C1B52811  25.379  20.463   6.713 -0.0980  0.0874 -0.1702
10853DPGS   C2B52812  25.261  20.793   6.721 -0.1767 -0.0037 -0.1160
10853DPGS   C3B52813  24.973  21.063   7.000  0.0970  0.3514  0.2195
10853DPGS   C4B52814  24.704  21.309   7.310 -0.0674  0.0162 -0.2284
10854DPGS    C152815  31.116  26.209   8.187  0.0159  0.1552 -0.1340
10854DPGS    C252816  30.816  26.197   8.170  0.0259  0.0004 -0.2053
10854DPGS    C352817  30.949  26.423   8.316 -0.1269  0.0542 -0.1490
10854DPGS   AM152818  30.998  26.394   7.741 -0.3313  0.2647 -0.0091
10854DPGS   AM252819  31.257  26.324   7.677 -0.1378  0.2330 -0.1309
10854DPGS   D1A52820  30.919  26.583   7.527 -0.0685 -0.2095 -0.0569
10854DPGS   C2A52821  30.833  26.870   7.242  0.1598 -0.1034  0.0244
10854DPGS   C3A52822  31.044  27.180   6.911  0.4676 -0.1467  0.2407
10854DPGS   C4A52823  31.121  27.555   6.840 -0.1090 -0.0895  0.1967
10854DPGS   C1B52824  31.464  26.450   7.434  0.0013  0.0874  0.1612
10854DPGS   C2B52825  31.583  26.765   7.244 -0.1955 -0.1685 -0.2410
10854DPGS   C3B52826  31.577  27.029   6.933  0.1512  0.1015  0.2074
10854DPGS   C4B52827  31.781  27.400   7.021  0.0722 -0.2032 -0.3544
10855DPGS    C152828   3.757   3.241  16.667 -0.0316  0.0185 -0.0348
10855DPGS    C252829   4.048   3.168  16.684 -0.0791 -0.1651  0.0023
10855DPGS    C352830   3.967   3.454  16.643  0.0993 -0.0665  0.3225
10855DPGS   AM152831   3.719   3.147  16.225  0.0373  0.1598 -0.0745
10855DPGS   AM252832   3.812   2.921  16.293  0.0691  0.0775  0.3491
10855DPGS   D1A52833   3.791   3.248  15.962 -0.2468 -0.2567  0.2025
10855DPGS   C2A52834   3.938   3.347  15.620  0.1307  0.4662  0.0632
10855DPGS   C3A52835   4.048   3.311  15.201  0.1188 -0.0745 -0.3932
10855DPGS   C4A52836   4.441   3.301  14.899  0.2790  0.1286  0.1044
10855DPGS   C1B52837   4.146   2.805  16.375 -0.0100  0.2049  0.1335
10855DPGS   C2B52838   4.500   2.817  16.125 -0.0397 -0.0549  0.1913
10855DPGS   C3B52839   4.882   2.748  16.037 -0.2655 -0.0864  0.2396
10855DPGS   C4B52840   5.025   2.718  15.671  0.0282  0.0917  0.0293
10856DPGS    C152841   2.705  18.368  11.663  0.2106 -0.1075  0.0011
10856DPGS    C252842   2.520  18.603  11.684  0.1012 -0.1902 -0.0338
10856DPGS    C352843   2.748  18.574  11.877  0.1131 -0.0573 -0.0274
10856DPGS   AM152844   3.180  18.318  11.619 -0.1368  0.2481  0.1751
10856DPGS   AM252845   3.162  18.162  11.846 -0.3447 -0.0047  0.3276
10856DPGS   D1A52846   3.328  18.283  11.381 -0.2287 -0.2353  0.1627
10856DPGS   C2A52847   3.690  18.260  11.042 -0.1385 -0.2732 -0.3176
10856DPGS   C3A52848   4.053  18.041  10.851  0.0471  0.0996  0.0694
10856DPGS   C4A52849   4.109  17.720  10.814 -0.1714  0.0804  0.2569
10856DPGS   C1B52850   3.274  17.815  11.884  0.0016 -0.0470  0.0647
10856DPGS   C2B52851   3.601  17.492  11.667 -0.0412  0.0686  0.3461
10856DPGS   C3B52852   3.986  17.438  11.747  0.1198  0.1210 -0.1039
10856DPGS   C4B52853   4.428  17.350  11.846 -0.2015  0.0546 -0.0738
10857DPGS    C152854  12.802  28.887  21.550  0.0052 -0.3567 -0.1980
10857DPGS    C252855  12.786  28.938  21.845 -0.2858  0.0232 -0.2738
10857DPGS    C352856  12.690  28.677  21.732 -0.1983 -0.1130 -0.0378
10857DPGS   AM152857  12.698  28.539  21.177 -0.0936 -0.3858 -0.0183
10857DPGS   AM252858  12.563  28.748  21.082  0.1292  0.0026 -0.0140
10857DPGS   D1A52859  12.857  28.307  21.095 -0.1986 -0.4106  0.0710
10857DPGS   C2A52860  13.046  28.130  20.819 -0.1130  0.2382  0.2911
10857DPGS   C3A52861  13.351  28.175  20.661 -0.3636 -0.1010  0.2411
10857DPGS   C4A52862  13.508  27.961  20.163 -0.0740 -0.3289  0.0542
10857DPGS   C1B52863  12.331  28.775  20.797 -0.1657 -0.4021  0.1479
10857DPGS   C2B52864  11.877  29.003  20.540 -0.1350  0.0411  0.0462
10857DPGS   C3B52865  11.764  29.052  20.201 -0.1394  0.1107  0.2642
10857DPGS   C4B52866  11.944  29.075  19.752  0.1292  0.0287 -0.2503
10858DPGS    C152867  34.611  11.862   7.577  0.0158 -0.0938  0.2385
10858DPGS    C252868  34.624  12.160   7.539 -0.1711 -0.1116  0.0251
10858DPGS    C352869  34.857  11.988   7.458 -0.0786 -0.0282  0.1124
10858DPGS   AM152870  34.479  11.597   7.195  0.2183  0.0076  0.1297
10858DPGS   AM252871  34.613  11.418   7.347 -0.0065  0.0714 -0.1983
10858DPGS   D1A52872  34.322  11.531   6.964 -0.1136  0.0052  0.0309
10858DPGS   C2A52873  34.515  11.371   6.486  0.1288 -0.0646  0.1210
10858DPGS   C3A52874  34.830  11.319   6.178  0.0515 -0.2064  0.2448
10858DPGS   C4A52875  35.174  11.311   6.036  0.1300 -0.0711  0.3545
10858DPGS   C1B52876  34.884  11.195   7.237  0.1527  0.0761  0.3125
10858DPGS   C2B52877  35.136  10.954   7.007 -0.1797  0.1501  0.0518
10858DPGS   C3B52878  35.311  10.971   6.591 -0.0476  0.2266  0.0002
10858DPGS   C4B52879   0.325  10.803   6.337  0.0169 -0.2808 -0.2338
10859DPGS    C152880  34.655  33.893  14.396  0.0294 -0.0960  0.0744
10859DPGS    C252881  34.818  33.641  14.409  0.0200 -0.1110 -0.0955
10859DPGS    C352882  34.955  33.908  14.392  0.0276 -0.1166 -0.1372
10859DPGS   AM152883  34.697  34.045  13.905 -0.0181  0.0393 -0.1493
10859DPGS   AM252884  34.730  33.818  13.803 -0.1950  0.0174 -0.1726
10859DPGS   D1A52885  34.797  34.294  13.819  0.3111 -0.0697 -0.0812
10859DPGS   C2A52886  34.987  34.329  13.422 -0.0657  0.0113 -0.1668
10859DPGS   C3A52887  35.375  34.209  13.191 -0.0978 -0.0514  0.1967
10859DPGS   C4A52888   0.374  34.214  12.915  0.0751 -0.3254 -0.1835
10859DPGS   C1B52889  34.939  33.835  13.502  0.0456  0.0014 -0.2163
10859DPGS   C2B52890  34.948  33.862  13.122  0.0074  0.1094 -0.0743
10859DPGS   C3B52891  35.296  33.875  12.843 -0.1222  0.1213 -0.2014
10859DPGS   C4B52892   0.401  33.723  12.783 -0.0555 -0.1994 -0.4600
10860DPGS    C152893  34.776  25.436  12.611 -0.0369 -0.1421  0.0860
10860DPGS    C252894  35.060  25.467  12.705 -0.0984  0.1168  0.1909
10860DPGS    C352895  34.998  25.295  12.467  0.1633  0.1725  0.0817
10860DPGS   AM152896  35.022  25.882  12.425 -0.1396 -0.1246  0.2357
10860DPGS   AM252897  34.789  25.876  12.310  0.1135 -0.1358 -0.1390
10860DPGS   D1A52898  35.287  26.001  12.385  0.0192  0.2164 -0.2352
10860DPGS   C2A52899   0.234  26.035  12.515 -0.3307  0.1059 -0.1841
10860DPGS   C3A52900   0.458  26.250  12.336  0.0929 -0.2135 -0.1693
10860DPGS   C4A52901   0.888  26.288  12.182 -0.2187 -0.0167  0.0204
10860DPGS   C1B52902  34.753  25.968  11.949  0.3697  0.0916 -0.1563
10860DPGS   C2B52903  34.941  26.040  11.545  0.6105  0.0321 -0.0626
10860DPGS   C3B52904  34.893  25.845  11.150 -0.1674  0.0854 -0.0438
10860DPGS   C4B52905  35.131  25.921  10.759 -0.0703 -0.1223 -0.0847
10861DPGS    C152906  20.843  16.556  15.839  0.3201 -0.3524  0.2756
10861DPGS    C252907  20.702  16.305  15.754 -0.0108 -0.0785  0.0026
10861DPGS    C352908  20.987  16.351  15.672 -0.0358 -0.2404 -0.1806
10861DPGS   AM152909  20.608  16.741  15.476 -0.3778  0.0119  0.1043
10861DPGS   AM252910  20.438  16.795  15.679 -0.0031 -0.2675  0.0773
10861DPGS   D1A52911  20.579  16.798  15.194 -0.1130  0.0585  0.2846
10861DPGS   C2A52912  20.349  16.814  14.835 -0.1123  0.0220  0.1390
10861DPGS   C3A52913  20.019  16.931  14.445 -0.3865  0.1462 -0.1346
10861DPGS   C4A52914  19.606  17.148  14.315 -0.0419 -0.2466 -0.0714
10861DPGS   C1B52915  20.192  17.021  15.588  0.1598 -0.2464 -0.2646
10861DPGS   C2B52916  19.721  17.103  15.461 -0.3178 -0.0491  0.0255
10861DPGS   C3B52917  19.321  17.131  15.247  0.1336  0.1246 -0.0237
10861DPGS   C4B52918  18.954  16.935  14.951  0.0154  0.1321  0.3649
10862DBGS    C152919  28.194   8.099   7.137  0.0572  0.0219  0.1756
10862DBGS    C252920  28.299   8.346   7.271  0.0903  0.1368 -0.0610
10862DBGS    C352921  28.115   8.369   7.035  0.0772 -0.0645 -0.0720
10862DBGS   AM152922  27.737   7.980   6.914  0.1561 -0.1610  0.0006
10862DBGS   AM252923  27.916   7.989   6.680  0.0856  0.1333  0.0091
10862DBGS   T1A52924  27.553   7.776   6.943 -0.1533  0.0359 -0.1487
10862DBGS   C2A52925  27.407   7.552   6.581  0.1286 -0.0319  0.1052
10862DBGS   C3A52926  27.371   7.263   6.189  0.4219  0.0155  0.1382
10862DBGS   C4A52927  27.418   7.276   5.814  0.2072 -0.0547 -0.1950
10862DBGS   C5A52928  27.288   7.437   5.433 -0.0785  0.3292  0.0719
10862DBGS   C1B52929  27.821   7.737   6.443 -0.0279  0.1830 -0.0417
10862DBGS   C2B52930  27.697   7.639   6.146  0.0792  0.1995  0.1554
10862DBGS   C3B52931  27.911   7.539   5.856  0.3794 -0.3073  0.1778
10862DBGS   C4B52932  28.250   7.466   5.434 -0.1806 -0.1143 -0.1101
10862DBGS   C5B52933  28.589   7.581   5.207 -0.3907 -0.1310  0.0435
10863DBGS    C152934  25.299  19.517   7.168 -0.0003  0.1810 -0.0252
10863DBGS    C252935  25.369  19.748   6.990 -0.0673  0.1155 -0.1377
10863DBGS    C352936  25.250  19.798   7.261 -0.0484  0.2133 -0.1471
10863DBGS   AM152937  24.817  19.509   7.052  0.0366  0.0778 -0.2075
10863DBGS   AM252938  24.940  19.515   6.808 -0.2066  0.1398 -0.3244
10863DBGS   T1A52939  24.540  19.523   7.147  0.2465 -0.0519 -0.0033
10863DBGS   C2A52940  24.121  19.780   7.113  0.2567 -0.1611 -0.2467
10863DBGS   C3A52941  23.831  19.996   7.003  0.0382  0.0349  0.3012
10863DBGS   C4A52942  23.367  20.139   6.982 -0.2153  0.1894  0.2552
10863DBGS   C5A52943  22.990  20.058   6.763  0.0286 -0.1849  0.2753
10863DBGS   C1B52944  24.828  19.598   6.467 -0.1836 -0.2396  0.1032
10863DBGS   C2B52945  24.497  19.722   6.163  0.0425 -0.1727 -0.1709
10863DBGS   C3B52946  24.189  19.820   5.886 -0.0424 -0.2703  0.0828
10863DBGS   C4B52947  23.803  19.826   5.925  0.1422  0.0098  0.1623
10863DBGS   C5B52948  23.382  19.949   6.015  0.1700  0.2364  0.1378
10864DBGS    C152949   2.189   9.511  13.038  0.2132 -0.0248 -0.0511
10864DBGS    C252950   2.335   9.249  13.049  0.1120 -0.0768  0.0734
10864DBGS    C352951   2.112   9.287  12.853  0.2808 -0.0025 -0.1061
10864DBGS   AM152952   2.611   9.561  12.826 -0.0931 -0.3746  0.2621
10864DBGS   AM252953   2.519   9.765  12.712 -0.0903 -0.1008  0.2265
10864DBGS   T1A52954   2.831   9.405  12.681 -0.0983  0.0333 -0.0626
10864DBGS   C2A52955   3.162   9.355  12.353 -0.2398  0.0247 -0.1414
10864DBGS   C3A52956   3.514   9.226  12.197  0.0633 -0.4024 -0.0790
10864DBGS   C4A52957   3.931   8.992  12.039  0.1278  0.1007  0.1153
10864DBGS   C5A52958   4.037   8.719  11.659 -0.2122 -0.1175  0.0494
10864DBGS   C1B52959   2.531   9.814  12.378 -0.1353  0.0105  0.1260
10864DBGS   C2B52960   2.776   9.673  12.168  0.0886  0.3888 -0.0417
10864DBGS   C3B52961   3.118   9.646  11.940 -0.1447  0.3387 -0.0470
10864DBGS   C4B52962   3.330   9.433  11.679 -0.0046 -0.0156  0.1068
10864DBGS   C5B52963   3.735   9.313  11.710  0.0747 -0.0894 -0.1695
10865DBGS    C152964  29.920  23.817   5.392  0.1151  0.0917  0.1969
10865DBGS    C252965  29.759  23.914   5.625 -0.1877 -0.1345  0.0853
10865DBGS    C352966  29.740  23.628   5.539  0.0097 -0.0791 -0.1466
10865DBGS   AM152967  29.546  23.959   5.136  0.2002  0.0259  0.1596
10865DBGS   AM252968  29.484  24.145   5.297  0.1090  0.0433 -0.0778
10865DBGS   T1A52969  29.712  23.993   4.915  0.4334 -0.0286  0.1753
10865DBGS   C2A52970  29.660  24.104   4.495  0.1274 -0.0723  0.0898
10865DBGS   C3A52971  29.555  24.527   4.396 -0.2005 -0.0731  0.1079
10865DBGS   C4A52972  29.426  24.891   4.127 -0.1916  0.1874  0.0234
10865DBGS   C5A52973  29.295  25.115   3.918 -0.0229 -0.0539 -0.0632
10865DBGS   C1B52974  29.523  24.505   5.289  0.0850 -0.0280  0.0049
10865DBGS   C2B52975  29.466  24.728   4.974  0.0953  0.1902  0.2151
10865DBGS   C3B52976  29.529  24.965   4.659 -0.1721  0.0616  0.0894
10865DBGS   C4B52977  29.469  25.368   4.736 -0.1628 -0.1760  0.2272
10865DBGS   C5B52978  29.366  25.726   4.486  0.0271  0.1539 -0.0388
10866DBGS    C152979  33.635  22.801   7.486 -0.0749  0.0028 -0.0434
10866DBGS    C252980  33.491  22.717   7.735 -0.0488  0.0415 -0.0151
10866DBGS    C352981  33.758  22.598   7.669 -0.0981 -0.0374 -0.0731
10866DBGS   AM152982  34.106  22.946   7.383 -0.2998  0.0078  0.1971
10866DBGS   AM252983  34.083  22.699   7.267  0.0425 -0.0615 -0.0406
10866DBGS   T1A52984  34.232  23.201   7.452  0.1794 -0.0018  0.2860
10866DBGS   C2A52985  34.354  23.593   7.393  0.2565  0.1070  0.0623
10866DBGS   C3A52986  34.684  23.810   7.152  0.1354 -0.0952 -0.4361
10866DBGS   C4A52987  34.879  24.060   6.864 -0.0628 -0.1466 -0.3433
10866DBGS   C5A52988  34.979  24.491   6.758 -0.1823  0.0881  0.0308
10866DBGS   C1B52989  34.303  22.564   6.992  0.0672  0.0279 -0.2084
10866DBGS   C2B52990  34.735  22.512   6.850 -0.0951  0.1846  0.1021
10866DBGS   C3B52991  34.884  22.736   6.505  0.0051 -0.0956  0.2658
10866DBGS   C4B52992  35.231  22.794   6.254 -0.3346  0.2945  0.0464
10866DBGS   C5B52993   0.210  23.100   6.143 -0.1042 -0.1130 -0.0742
10867DBGS    C152994  14.297   8.739  18.572 -0.2622 -0.0601  0.0200
10867DBGS    C252995  14.243   9.024  18.648 -0.0573 -0.0442  0.1099
10867DBGS    C352996  14.278   8.949  18.359 -0.2424 -0.0019  0.0755
10867DBGS   AM152997  13.981   8.462  18.315 -0.0397  0.0708 -0.3002
10867DBGS   AM252998  14.198   8.476  18.143  0.0460  0.1825 -0.2842
10867DBGS   T1A52999  13.762   8.364  18.158 -0.0156 -0.3161 -0.2101
10867DBGS   C2A53000  13.602   8.440  17.738  0.0697 -0.0378 -0.4401
10867DBGS   C3A53001  13.328   8.513  17.451  0.1064  0.0163 -0.0505
10867DBGS   C4A53002  13.084   8.797  17.183 -0.3155 -0.2400  0.0374
10867DBGS   C5A53003  12.714   8.942  16.952 -0.1530 -0.3545  0.1223
10867DBGS   C1B53004  14.163   8.427  17.776 -0.1778  0.0357  0.0002
10867DBGS   C2B53005  14.042   8.371  17.402  0.0027  0.1693 -0.0402
10867DBGS   C3B53006  13.996   8.631  17.011  0.0206  0.3222  0.0435
10867DBGS   C4B53007  13.878   8.533  16.645 -0.1727  0.0540  0.0617
10867DBGS   C5B53008  13.649   8.233  16.327  0.2162 -0.0477 -0.5814
10868DBGS    C153009  24.405   4.592  11.938 -0.0866 -0.1882 -0.0503
10868DBGS    C253010  24.545   4.672  11.685 -0.0164 -0.1337  0.0058
10868DBGS    C353011  24.343   4.856  11.810 -0.0971 -0.1879 -0.0449
10868DBGS   AM153012  23.911   4.520  11.972  0.1085 -0.2456 -0.0778
10868DBGS   AM253013  24.009   4.351  11.812  0.2722 -0.0571  0.0743
10868DBGS   T1A53014  23.677   4.595  12.129 -0.0827 -0.2001  0.2258
10868DBGS   C2A53015  23.208   4.710  12.097 -0.4128 -0.0055  0.0200
10868DBGS   C3A53016  22.833   4.796  11.865  0.2020  0.1286 -0.2395
10868DBGS   C4A53017  22.766   4.990  11.495  0.0786 -0.2136  0.0282
10868DBGS   C5A53018  22.985   5.287  11.170  0.1251  0.1259  0.0232
10868DBGS   C1B53019  23.888   4.171  11.505 -0.4241 -0.0762  0.1009
10868DBGS   C2B53020  23.513   3.973  11.206 -0.0036  0.1064 -0.0762
10868DBGS   C3B53021  23.224   4.343  11.150  0.0221 -0.4310  0.1620
10868DBGS   C4B53022  23.029   4.565  10.804  0.0783  0.0511  0.2189
10868DBGS   C5B53023  23.023   4.992  10.596  0.1246  0.2084 -0.0709
10869DBGS    C153024  12.126  14.293  18.170  0.3234  0.1564 -0.1861
10869DBGS    C253025  12.060  14.074  17.976  0.0676  0.0052  0.0661
10869DBGS    C353026  12.321  14.071  18.123  0.0777 -0.1142  0.0463
10869DBGS   AM153027  12.319  14.523  17.779 -0.1353 -0.0376  0.2362
10869DBGS   AM253028  12.038  14.586  17.777  0.0845 -0.1665  0.2410
10869DBGS   T1A53029  12.416  14.471  17.509 -0.0660 -0.0325 -0.1973
10869DBGS   C2A53030  12.673  14.566  17.144  0.1744  0.0701  0.1900
10869DBGS   C3A53031  12.809  14.484  16.824 -0.1964 -0.0662  0.0821
10869DBGS   C4A53032  12.962  14.434  16.483 -0.0279 -0.1824  0.1286
10869DBGS   C5A53033  12.784  14.344  16.095 -0.2373 -0.0968  0.1733
10869DBGS   C1B53034  11.869  14.785  17.513  0.1039 -0.0920 -0.1528
10869DBGS   C2B53035  11.916  15.050  17.126 -0.3969  0.2493  0.0482
10869DBGS   C3B53036  12.100  15.210  16.693 -0.0195  0.2171 -0.3783
10869DBGS   C4B53037  12.149  15.231  16.348 -0.1418 -0.0160 -0.1546
10869DBGS   C5B53038  12.190  14.932  16.160 -0.0056 -0.0568 -0.0678
10870DBGS    C153039   8.520  27.107  20.929  0.0600 -0.0021 -0.3205
10870DBGS    C253040   8.323  27.262  20.764 -0.2508 -0.0339  0.0133
10870DBGS    C353041   8.517  27.407  20.941  0.0038 -0.0040 -0.2853
10870DBGS   AM153042   8.876  27.135  20.611 -0.1171  0.1545  0.1316
10870DBGS   AM253043   8.990  26.940  20.758 -0.0855 -0.0926 -0.2056
10870DBGS   T1A53044   8.805  27.149  20.347 -0.0534 -0.4295 -0.0536
10870DBGS   C2A53045   8.980  26.892  20.115  0.1107  0.0446  0.0084
10870DBGS   C3A53046   9.189  26.530  20.005 -0.1711 -0.2123 -0.0515
10870DBGS   C4A53047   9.517  26.179  19.939 -0.0377  0.0438  0.0370
10870DBGS   C5A53048   9.974  26.089  19.898 -0.0849  0.1900  0.0906
10870DBGS   C1B53049   9.227  26.714  20.563  0.0419  0.0976  0.1792
10870DBGS   C2B53050   9.581  26.541  20.445 -0.0704 -0.1310 -0.0054
10870DBGS   C3B53051   9.876  26.463  20.222  0.1425 -0.2305  0.3121
10870DBGS   C4B53052  10.338  26.596  19.967  0.2426  0.1830  0.2768
10870DBGS   C5B53053  10.530  26.992  19.816  0.1180  0.0724 -0.0781
10871DBGS    C153054  19.322  35.244  14.080  0.1954  0.0337  0.2873
10871DBGS    C253055  19.377   0.147  14.018  0.2063  0.0009  0.1435
10871DBGS    C353056  19.589  35.326  13.971 -0.0006 -0.1117 -0.3191
10871DBGS   AM153057  19.096  35.266  13.668  0.3189 -0.1430  0.1347
10871DBGS   AM253058  19.112  34.994  13.656 -0.1617 -0.0642  0.2949
10871DBGS   T1A53059  18.859  35.364  13.537 -0.1572  0.0656  0.0764
10871DBGS   C2A53060  18.714  35.296  13.156  0.2153  0.3929 -0.2728
10871DBGS   C3A53061  18.591   0.052  12.792 -0.0991  0.3067  0.2358
10871DBGS   C4A53062  18.461  35.367  12.368 -0.0909  0.1792 -0.1305
10871DBGS   C5A53063  18.639   0.090  11.898  0.2210  0.0888  0.1702
10871DBGS   C1B53064  19.045  34.754  13.388  0.0041  0.1691 -0.1710
10871DBGS   C2B53065  18.888  34.695  13.078  0.1423  0.0162  0.0050
10871DBGS   C3B53066  18.732  35.001  12.774 -0.1695  0.0648 -0.1191
10871DBGS   C4B53067  18.251  35.015  12.685  0.1669  0.0019 -0.1845
10871DBGS   C5B53068  17.871  35.158  12.389  0.1780 -0.3136  0.1616
10872DBGS    C153069   2.390   5.855  13.933  0.0095 -0.1306  0.2097
10872DBGS    C253070   2.207   5.711  13.744 -0.0207 -0.0455  0.1736
10872DBGS    C353071   2.157   5.999  13.810  0.2590  0.0562 -0.0497
10872DBGS   AM153072   2.662   5.947  13.531  0.1409 -0.2708  0.0156
10872DBGS   AM253073   2.746   6.149  13.676  0.0547  0.0293  0.0779
10872DBGS   T1A53074   2.844   5.786  13.406  0.1005  0.1106 -0.2868
10872DBGS   C2A53075   2.980   5.572  13.107 -0.1893  0.1619 -0.1856
10872DBGS   C3A53076   3.236   5.299  12.828 -0.2860  0.0210 -0.0057
10872DBGS   C4A53077   3.491   4.998  12.723  0.1677  0.3753 -0.0738
10872DBGS   C5A53078   3.857   4.997  12.692 -0.0666  0.1571  0.1578
10872DBGS   C1B53079   3.067   6.314  13.686  0.0124  0.0289  0.2658
10872DBGS   C2B53080   3.423   6.268  13.574 -0.0337  0.0820  0.1798
10872DBGS   C3B53081   3.865   6.259  13.356 -0.1658 -0.1089  0.0200
10872DBGS   C4B53082   4.181   6.330  13.043  0.0017 -0.1670  0.0286
10872DBGS   C5B53083   4.546   5.966  13.121  0.1978  0.1081 -0.0082
10873DBGS    C153084   3.121   7.069  14.382  0.0409 -0.0876 -0.0179
10873DBGS    C253085   2.874   6.904  14.341  0.0070 -0.0941  0.2051
10873DBGS    C353086   2.851   7.197  14.398  0.0615 -0.0422 -0.0319
10873DBGS   AM153087   3.387   7.451  14.396  0.1832  0.2210  0.2883
10873DBGS   AM253088   3.414   7.352  14.649  0.0575  0.1216 -0.4223
10873DBGS   T1A53089   3.549   7.551  14.172  0.3226  0.3154  0.0576
10873DBGS   C2A53090   3.929   7.709  13.967  0.0412 -0.0431  0.3303
10873DBGS   C3A53091   4.367   7.808  13.948 -0.1535 -0.1130  0.3885
10873DBGS   C4A53092   4.696   7.962  13.642  0.0211 -0.1190  0.1407
10873DBGS   C5A53093   4.947   8.003  13.259 -0.2647  0.0804 -0.0030
10873DBGS   C1B53094   3.690   7.136  14.736 -0.0191 -0.1823  0.2094
10873DBGS   C2B53095   4.122   6.996  14.521  0.2735  0.2138  0.2954
10873DBGS   C3B53096   4.415   6.907  14.233 -0.1315  0.0826  0.0989
10873DBGS   C4B53097   4.596   6.453  14.079  0.0052  0.2251  0.0936
10873DBGS   C5B53098   4.909   6.178  14.194 -0.0601 -0.2832  0.1866
10874DBGS    C153099  28.984  10.594   5.850 -0.0751 -0.2566  0.0877
10874DBGS    C253100  28.701  10.683   5.893  0.0563  0.2862 -0.1364
10874DBGS    C353101  28.809  10.659   5.615  0.2018 -0.0166 -0.0548
10874DBGS   AM153102  29.183  10.224   5.630  0.3745 -0.1530 -0.0304
10874DBGS   AM253103  29.421  10.341   5.606  0.2389 -0.0728 -0.3479
10874DBGS   T1A53104  29.146   9.971   5.485  0.3948 -0.1253  0.0880
10874DBGS   C2A53105  29.109   9.728   5.099 -0.0215 -0.1057 -0.2127
10874DBGS   C3A53106  29.259   9.539   4.689  0.0376  0.1534 -0.1760
10874DBGS   C4A53107  29.105   9.530   4.303 -0.1626 -0.1460 -0.3812
10874DBGS   C5A53108  29.041   9.288   3.921  0.0918 -0.1215  0.0224
10874DBGS   C1B53109  29.631  10.153   5.385 -0.1625 -0.0663  0.3182
10874DBGS   C2B53110  29.736   9.822   5.054 -0.0639 -0.0824  0.1329
10874DBGS   C3B53111  29.773   9.580   4.668 -0.0568 -0.1565 -0.2997
10874DBGS   C4B53112  29.623   9.487   4.262  0.1102  0.0532 -0.4218
10874DBGS   C5B53113  29.504   9.107   4.105 -0.0823  0.0839 -0.0470
10875DBGS    C153114  27.739  21.842   5.026 -0.1369  0.1131  0.1867
10875DBGS    C253115  28.035  21.811   5.067 -0.1071  0.1236 -0.0205
10875DBGS    C353116  27.853  21.834   5.304  0.0553  0.0903  0.1081
10875DBGS   AM153117  27.368  22.076   5.119  0.1118 -0.1246 -0.4068
10875DBGS   AM253118  27.552  22.288   5.144 -0.5543  0.0961 -0.0384
10875DBGS   T1A53119  27.144  22.186   4.951 -0.2349  0.1106  0.0108
10875DBGS   C2A53120  26.793  22.410   4.855  0.1382  0.0096 -0.2902
10875DBGS   C3A53121  26.588  22.598   4.537 -0.2580  0.0333  0.3825
10875DBGS   C4A53122  26.412  22.838   4.325 -0.1039  0.1579 -0.0079
10875DBGS   C5A53123  26.275  23.151   4.180 -0.1787  0.0132  0.1257
10875DBGS   C1B53124  27.554  22.592   4.925  0.0243  0.0579 -0.2813
10875DBGS   C2B53125  27.493  22.695   4.537  0.1792  0.2639  0.0917
10875DBGS   C3B53126  27.416  23.027   4.158 -0.0232 -0.1811 -0.0657
10875DBGS   C4B53127  27.290  23.245   3.856  0.1371  0.1494 -0.0851
10875DBGS   C5B53128  27.008  23.219   3.507 -0.1032  0.0004 -0.0479
10876DBGS    C153129  18.272  34.337  14.577 -0.0496 -0.1811 -0.0431
10876DBGS    C253130  18.547  34.457  14.587 -0.0543 -0.1676 -0.0728
10876DBGS    C353131  18.367  34.474  14.827 -0.0765 -0.0642 -0.0963
10876DBGS   AM153132  18.102  34.760  14.375  0.1341 -0.1164  0.0915
10876DBGS   AM253133  18.254  34.657  14.189  0.1627 -0.0884 -0.1832
10876DBGS   T1A53134  17.860  34.913  14.333  0.0895  0.0630 -0.0488
10876DBGS   C2A53135  17.662  34.816  14.023 -0.2046  0.0565 -0.0343
10876DBGS   C3A53136  17.331  34.816  13.772  0.2224  0.1159 -0.1652
10876DBGS   C4A53137  17.110  34.545  13.479 -0.0427  0.0545 -0.0613
10876DBGS   C5A53138  16.829  34.498  13.113 -0.0525 -0.1727  0.0670
10876DBGS   C1B53139  18.183  34.607  13.830  0.0623  0.3079 -0.1444
10876DBGS   C2B53140  17.849  34.635  13.567  0.0280 -0.1183 -0.0379
10876DBGS   C3B53141  17.506  34.756  13.313 -0.0816  0.0881  0.1039
10876DBGS   C4B53142  17.142  34.971  13.055 -0.1233 -0.0441  0.3089
10876DBGS   C5B53143  16.851  35.256  13.059  0.4186 -0.0530 -0.1850
10877DBGS    C153144  25.888  23.783   6.974 -0.3002 -0.0051 -0.0954
10877DBGS    C253145  25.937  23.559   7.166 -0.4428  0.1288  0.0988
10877DBGS    C353146  26.032  23.536   6.883 -0.1424 -0.0272  0.2090
10877DBGS   AM153147  25.818  23.830   6.447  0.2713 -0.2508 -0.0148
10877DBGS   AM253148  25.580  23.807   6.544  0.1000  0.0738  0.0882
10877DBGS   T1A53149  25.897  23.990   6.220 -0.1020  0.1954  0.2648
10877DBGS   C2A53150  25.785  24.141   5.787 -0.0659 -0.3292 -0.0519
10877DBGS   C3A53151  25.734  24.466   5.480  0.0486  0.1567  0.2794
10877DBGS   C4A53152  25.524  24.726   5.342  0.0993 -0.0605  0.3452
10877DBGS   C5A53153  25.654  25.124   5.369  0.2655  0.3783  0.1924
10877DBGS   C1B53154  25.228  23.879   6.419 -0.0181 -0.0623  0.1063
10877DBGS   C2B53155  24.829  23.687   6.296 -0.3402  0.0918  0.1615
10877DBGS   C3B53156  24.468  23.723   6.105 -0.2107 -0.1679 -0.2301
10877DBGS   C4B53157  24.067  23.665   6.040 -0.1443 -0.2521  0.1525
10877DBGS   C5B53158  23.858  23.230   6.030  0.0569  0.1915  0.1086
10878DBGS    C153159  30.272  21.234   3.852  0.0521 -0.0731 -0.2855
10878DBGS    C253160  30.405  21.500   3.885 -0.1742  0.0445 -0.3145
10878DBGS    C353161  30.107  21.485   3.851 -0.2246 -0.2454  0.2126
10878DBGS   AM153162  30.271  21.224   3.357 -0.1625  0.0683 -0.2178
10878DBGS   AM253163  30.514  21.166   3.457  0.2320  0.0017 -0.1662
10878DBGS   T1A53164  30.272  21.317   3.087  0.0998 -0.0427 -0.0431
10878DBGS   C2A53165  30.517  21.278   2.817 -0.3987  0.2105  0.1263
10878DBGS   C3A53166  30.457  21.399   2.365 -0.1774 -0.0717  0.0569
10878DBGS   C4A53167  30.285  21.716   2.147  0.0875 -0.0918 -0.2001
10878DBGS   C5A53168  30.254  22.003   1.863 -0.5688 -0.1132  0.2170
10878DBGS   C1B53169  30.801  21.083   3.254 -0.0785 -0.1873 -0.2149
10878DBGS   C2B53170  30.981  21.201   2.865  0.1980  0.2080  0.1311
10878DBGS   C3B53171  30.968  21.143   2.431  0.0525 -0.0991  0.1679
10878DBGS   C4B53172  30.724  21.008   2.198 -0.1236 -0.0301  0.0836
10878DBGS   C5B53173  30.806  20.842   1.870  0.1181 -0.0641 -0.0165
10879DBGS    C153174  24.749   4.393  11.330 -0.3190 -0.1341 -0.1110
10879DBGS    C253175  24.870   4.580  11.130 -0.3425 -0.0179 -0.0172
10879DBGS    C353176  24.865   4.285  11.076 -0.0459 -0.0207 -0.0362
10879DBGS   AM153177  24.374   4.601  11.135  0.2831 -0.0259  0.0414
10879DBGS   AM253178  24.236   4.496  11.333  0.1197  0.2635 -0.2317
10879DBGS   T1A53179  24.242   4.697  10.920 -0.0141 -0.0041  0.1100
10879DBGS   C2A53180  23.931   4.824  10.820 -0.0559 -0.2106 -0.0497
10879DBGS   C3A53181  23.506   4.822  10.706  0.0330  0.2335 -0.1996
10879DBGS   C4A53182  23.350   4.639  10.332  0.0802  0.2590 -0.0376
10879DBGS   C5A53183  23.195   4.527   9.990 -0.3293  0.0979 -0.2690
10879DBGS   C1B53184  23.940   4.727  11.407 -0.1108  0.0528  0.1780
10879DBGS   C2B53185  23.565   4.710  11.226 -0.1443  0.5384 -0.1670
10879DBGS   C3B53186  23.177   4.819  11.168 -0.1515 -0.1863 -0.0077
10879DBGS   C4B53187  22.710   4.926  10.973  0.2909  0.0026  0.1684
10879DBGS   C5B53188  22.510   4.684  10.708  0.1650 -0.1395  0.1797
10880DBGS    C153189  31.343  25.821   7.887 -0.0239 -0.0385 -0.1917
10880DBGS    C253190  31.205  25.643   7.688 -0.1225 -0.0769 -0.0897
10880DBGS    C353191  31.067  25.889   7.790 -0.1147 -0.1142  0.0108
10880DBGS   AM153192  31.521  25.977   7.407 -0.2515  0.1332  0.0538
10880DBGS   AM253193  31.680  26.051   7.601  0.3349 -0.2613  0.3018
10880DBGS   T1A53194  31.602  26.091   7.154 -0.4321  0.1904 -0.4438
10880DBGS   C2A53195  31.817  26.505   6.923 -0.0247  0.1657 -0.1005
10880DBGS   C3A53196  31.951  26.658   6.513 -0.1821 -0.1849 -0.1778
10880DBGS   C4A53197  32.432  26.663   6.377  0.1849  0.1382  0.0037
10880DBGS   C5A53198  32.761  26.719   6.200 -0.0094 -0.2532  0.2080
10880DBGS   C1B53199  31.932  26.273   7.487  0.1849  0.2739 -0.0391
10880DBGS   C2B53200  32.097  26.638   7.382 -0.1759  0.0766 -0.0058
10880DBGS   C3B53201  32.222  26.901   7.042 -0.2466 -0.3846 -0.1822
10880DBGS   C4B53202  31.976  27.156   6.642 -0.2313 -0.4969  0.2969
10880DBGS   C5B53203  32.021  27.618   6.667  0.1558  0.3554  0.0911
10881DBGS    C153204  26.279  15.880   5.025  0.0489 -0.0067 -0.0625
10881DBGS    C253205  26.176  15.664   4.844 -0.2221  0.1898 -0.1463
10881DBGS    C353206  26.025  15.736   5.093  0.0577  0.0394  0.0698
10881DBGS   AM153207  26.042  16.172   4.728 -0.0084  0.0290  0.2361
10881DBGS   AM253208  26.218  16.348   4.827  0.0347 -0.1149 -0.1100
10881DBGS   T1A53209  25.860  16.263   4.509  0.0156  0.0224 -0.0134
10881DBGS   C2A53210  25.591  16.399   4.207 -0.2496 -0.1055  0.3815
10881DBGS   C3A53211  25.507  16.386   3.864 -0.0453  0.2875 -0.1099
10881DBGS   C4A53212  25.400  16.104   3.484  0.1622 -0.2549 -0.1925
10881DBGS   C5A53213  25.043  16.126   3.177  0.1982  0.0879  0.1646
10881DBGS   C1B53214  26.070  16.695   4.748 -0.0222  0.1211  0.0020
10881DBGS   C2B53215  25.834  16.873   4.320 -0.0503 -0.0211  0.3097
10881DBGS   C3B53216  25.438  16.907   3.938 -0.0728 -0.0191 -0.0036
10881DBGS   C4B53217  25.210  17.040   3.524 -0.3949 -0.0916 -0.5039
10881DBGS   C5B53218  25.259  17.178   3.084  0.0129 -0.0856  0.3875
10882DBGS    C153219  27.980  21.126   4.305 -0.2023  0.2179  0.1843
10882DBGS    C253220  28.225  21.239   4.434  0.0622 -0.1124 -0.0199
10882DBGS    C353221  28.088  21.391   4.215  0.2575 -0.0618 -0.1085
10882DBGS   AM153222  27.546  21.244   4.097  0.0703  0.2253  0.1054
10882DBGS   AM253223  27.660  21.052   3.932  0.1521 -0.0454 -0.1106
10882DBGS   T1A53224  27.362  21.415   3.940  0.5137  0.0917 -0.0982
10882DBGS   C2A53225  27.143  21.544   3.544  0.6010  0.1325 -0.1916
10882DBGS   C3A53226  26.925  21.709   3.241 -0.2447  0.0331  0.2990
10882DBGS   C4A53227  26.799  22.126   3.064  0.0256  0.0993 -0.0175
10882DBGS   C5A53228  26.834  22.599   2.924 -0.1678  0.2403  0.2985
10882DBGS   C1B53229  27.547  21.078   3.575 -0.2208 -0.1946 -0.1057
10882DBGS   C2B53230  27.389  21.282   3.215 -0.3025  0.1277 -0.0042
10882DBGS   C3B53231  27.174  21.459   2.896 -0.0288 -0.1818  0.0343
10882DBGS   C4B53232  27.123  21.872   2.752 -0.1400  0.0816  0.0087
10882DBGS   C5B53233  26.890  22.171   2.540 -0.0553 -0.0617 -0.1370
10883DBGS    C153234  11.248   5.183  18.681 -0.0276  0.2814 -0.0319
10883DBGS    C253235  11.302   5.188  18.976  0.0804 -0.1482 -0.0418
10883DBGS    C353236  11.020   5.174  18.876  0.0388  0.0923  0.0378
10883DBGS   AM153237  10.966   5.435  18.373 -0.1166  0.2150  0.0765
10883DBGS   AM253238  11.166   5.654  18.361  0.0282 -0.1067 -0.0189
10883DBGS   T1A53239  10.922   5.321  18.120 -0.2414 -0.0480  0.1584
10883DBGS   C2A53240  10.761   5.360  17.735 -0.2423  0.0265 -0.4067
10883DBGS   C3A53241  10.551   5.358  17.346  0.0151  0.2608 -0.0213
10883DBGS   C4A53242  10.155   5.345  17.114  0.1270  0.3230  0.0724
10883DBGS   C5A53243  10.058   5.463  16.790 -0.0892  0.3485 -0.0947
10883DBGS   C1B53244  11.221   5.912  18.108  0.0918  0.1128  0.1332
10883DBGS   C2B53245  11.049   6.096  17.705  0.0271  0.0743 -0.2814
10883DBGS   C3B53246  11.208   6.531  17.755 -0.1103 -0.1414 -0.1920
10883DBGS   C4B53247  10.914   6.789  17.580 -0.2505  0.0295  0.0701
10883DBGS   C5B53248  10.523   7.029  17.403 -0.2186 -0.1647  0.0488
10884DBGS    C153249  19.511  31.013  14.382 -0.2399 -0.0738  0.0844
10884DBGS    C253250  19.804  31.054  14.433 -0.2037  0.1914 -0.3126
10884DBGS    C353251  19.635  30.912  14.636  0.2129 -0.0289 -0.1134
10884DBGS   AM153252  19.114  30.725  14.487  0.0784 -0.1521  0.0042
10884DBGS   AM253253  18.988  30.959  14.483  0.0006  0.0169 -0.0389
10884DBGS   T1A53254  18.932  30.534  14.368 -0.1744 -0.1822  0.1817
10884DBGS   C2A53255  18.587  30.461  14.164 -0.2227 -0.2834 -0.2250
10884DBGS   C3A53256  18.299  30.254  14.006 -0.1196 -0.3306 -0.2178
10884DBGS   C4A53257  18.032  29.893  13.993  0.0640  0.2641  0.1611
10884DBGS   C5A53258  18.068  29.509  13.821  0.0540 -0.0161  0.0006
10884DBGS   C1B53259  18.713  30.998  14.236 -0.2967  0.1864  0.0740
10884DBGS   C2B53260  18.315  30.952  14.095 -0.0944 -0.1375  0.0544
10884DBGS   C3B53261  17.992  30.812  13.850  0.1523 -0.3326  0.1885
10884DBGS   C4B53262  17.907  30.548  13.627  0.1373  0.0842 -0.0727
10884DBGS   C5B53263  17.980  30.177  13.608  0.0140  0.0255  0.1492
10885DBGS    C153264  32.117  24.509   7.201 -0.1019  0.0940 -0.1114
10885DBGS    C253265  31.977  24.315   7.019 -0.0992  0.0080 -0.0220
10885DBGS    C353266  32.194  24.492   6.911  0.0467 -0.1897 -0.0569
10885DBGS   AM153267  32.453  24.885   7.269 -0.1565  0.1830 -0.0283
10885DBGS   AM253268  32.203  25.000   7.295 -0.2173  0.0603 -0.2739
10885DBGS   T1A53269  32.608  25.081   7.158 -0.0128 -0.0586  0.2851
10885DBGS   C2A53270  32.783  25.416   6.942  0.1106  0.1294  0.0704
10885DBGS   C3A53271  32.979  25.783   6.723 -0.0368 -0.0852  0.1154
10885DBGS   C4A53272  33.329  26.013   6.705  0.2046 -0.1090 -0.0461
10885DBGS   C5A53273  33.742  26.084   6.542  0.1257 -0.1741 -0.4835
10885DBGS   C1B53274  32.033  25.302   7.189  0.1593 -0.0785 -0.2283
10885DBGS   C2B53275  32.273  25.505   6.923  0.1207 -0.1782 -0.3552
10885DBGS   C3B53276  32.408  25.819   6.674  0.0107 -0.1951 -0.3007
10885DBGS   C4B53277  32.535  25.965   6.439 -0.3101  0.0958 -0.0470
10885DBGS   C5B53278  32.667  26.204   6.072 -0.1397  0.0954  0.2068
10886DBGS    C153279  22.806  35.002  12.253 -0.0439  0.0397  0.1040
10886DBGS    C253280  23.098  34.933  12.242 -0.0611 -0.0316  0.0908
10886DBGS    C353281  22.949  34.993  11.989 -0.1143 -0.2317  0.0732
10886DBGS   AM153282  22.399  35.134  12.064 -0.0512  0.3056  0.1824
10886DBGS   AM253283  22.286  34.951  12.196 -0.0604  0.0180  0.0322
10886DBGS   T1A53284  22.226  35.313  11.926 -0.0136  0.0495  0.1707
10886DBGS   C2A53285  22.138  35.351  11.500 -0.0368 -0.0718 -0.2315
10886DBGS   C3A53286  21.923  35.338  11.028 -0.0011 -0.4560  0.1450
10886DBGS   C4A53287  21.842   0.176  10.614 -0.0531  0.0521 -0.1029
10886DBGS   C5A53288  21.938   0.146  10.155  0.0141  0.0477  0.0070
10886DBGS   C1B53289  22.062  34.696  12.026 -0.0152 -0.0418  0.1148
10886DBGS   C2B53290  21.858  34.740  11.619  0.2033 -0.1474  0.1047
10886DBGS   C3B53291  21.665  34.839  11.222  0.0240 -0.0833  0.2340
10886DBGS   C4B53292  21.558  34.781  10.741 -0.1419 -0.0047 -0.0044
10886DBGS   C5B53293  21.719  34.567  10.371 -0.2100 -0.0345 -0.1906
10887DBGS    C153294   7.549  16.159  17.850 -0.0429  0.0555 -0.1878
10887DBGS    C253295   7.739  16.326  18.010 -0.1434  0.0500 -0.0623
10887DBGS    C353296   7.485  16.447  17.907 -0.2506 -0.0434  0.0908
10887DBGS   AM153297   7.905  16.326  17.517 -0.0938  0.1659  0.2373
10887DBGS   AM253298   8.117  16.344  17.670 -0.0452 -0.0986  0.0402
10887DBGS   T1A53299   7.939  16.230  17.253  0.0611  0.0482 -0.0290
10887DBGS   C2A53300   8.076  16.174  16.836  0.0432  0.3900  0.1481
10887DBGS   C3A53301   8.243  16.305  16.454 -0.1705 -0.1862  0.1787
10887DBGS   C4A53302   8.259  16.349  16.002 -0.1155  0.4195 -0.3252
10887DBGS   C5A53303   8.251  16.324  15.603  0.0726 -0.0878 -0.4968
10887DBGS   C1B53304   8.446  16.427  17.574 -0.2571 -0.1266  0.2529
10887DBGS   C2B53305   8.753  16.300  17.418  0.2611  0.0722  0.0356
10887DBGS   C3B53306   9.152  16.274  17.160  0.4424 -0.1648  0.4380
10887DBGS   C4B53307   9.404  16.545  16.869  0.0613 -0.0756 -0.1180
10887DBGS   C5B53308   9.405  16.684  16.473  0.1012 -0.1624 -0.2101
10888DBGS    C153309  29.410  33.510  10.453 -0.2801  0.0327  0.1718
10888DBGS    C253310  29.674  33.648  10.415 -0.2104 -0.2158 -0.2774
10888DBGS    C353311  29.421  33.808  10.421 -0.0860 -0.0179 -0.2676
10888DBGS   AM153312  29.423  33.451   9.984  0.0382  0.4296  0.1649
10888DBGS   AM253313  29.664  33.353  10.001 -0.1503  0.1723  0.2533
10888DBGS   T1A53314  29.225  33.443   9.782 -0.0497 -0.0456  0.1790
10888DBGS   C2A53315  29.214  33.496   9.398 -0.1758 -0.0177 -0.0999
10888DBGS   C3A53316  28.945  33.572   9.046 -0.2228 -0.1932 -0.0408
10888DBGS   C4A53317  29.059  33.598   8.551 -0.1194  0.0720 -0.3140
10888DBGS   C5A53318  29.279  33.660   8.119 -0.0268  0.2281 -0.0489
10888DBGS   C1B53319  29.944  33.365   9.795 -0.1221 -0.4143  0.0754
10888DBGS   C2B53320  30.030  33.263   9.384  0.0800  0.0077 -0.3167
10888DBGS   C3B53321  30.191  33.406   8.968 -0.1284  0.1866  0.0537
10888DBGS   C4B53322  30.103  33.457   8.607  0.0587 -0.2564  0.0194
10888DBGS   C5B53323  30.122  33.458   8.222  0.2170 -0.0379  0.3320
10889PNGS    C153324   1.972  20.381  10.006  0.0882  0.0513 -0.1007
10889PNGS    C253325   1.754  20.443  10.203  0.1459 -0.0731  0.0028
10889PNGS    C353326   1.959  20.652  10.135  0.2098 -0.0760  0.1834
10889PNGS   AM153327   2.168  20.544   9.595  0.0039  0.1471 -0.2768
10889PNGS   AM253328   2.369  20.611   9.747 -0.0230  0.0052 -0.2037
10889PNGS   T1A53329   2.238  20.613   9.331 -0.1693 -0.0673  0.0218
10889PNGS   C2A53330   2.547  20.616   9.120  0.3467  0.1490 -0.0245
10889PNGS   C3A53331   2.867  20.689   8.804 -0.0055  0.0240 -0.0345
10889PNGS   C4A53332   3.030  20.598   8.416 -0.0473 -0.1425 -0.3343
10889PNGS   C1B53333   2.691  20.704   9.598  0.1665  0.1632  0.0684
10889PNGS   C2B53334   3.085  20.639   9.332 -0.2028  0.0216  0.1850
10889PNGS   C3B53335   3.379  20.739   8.978 -0.1923  0.1132  0.0391
10889PNGS   D4B53336   3.720  20.937   9.083  0.1173 -0.3739  0.2299
10889PNGS   C5B53337   3.796  21.150   8.741  0.3187  0.1992 -0.3048
10889PNGS   C6B53338   4.088  21.242   8.397 -0.3462  0.2293 -0.0694
10890PNGS    C153339  21.939   0.796  12.673 -0.1850  0.1010 -0.0783
10890PNGS    C253340  22.206   0.928  12.637 -0.1382 -0.0121 -0.1453
10890PNGS    C353341  22.191   0.646  12.737 -0.2434  0.0843  0.1151
10890PNGS   AM153342  22.087   0.794  12.187 -0.1423 -0.1259 -0.1446
10890PNGS   AM253343  22.067   0.525  12.239  0.4069  0.1729 -0.0004
10890PNGS   T1A53344  22.094   0.900  11.928 -0.0114 -0.0644 -0.1344
10890PNGS   C2A53345  21.856   0.962  11.549  0.1319 -0.3830  0.1484
10890PNGS   C3A53346  21.740   0.840  11.161 -0.1862 -0.0103  0.0225
10890PNGS   C4A53347  21.615   0.493  10.915  0.0642 -0.3925  0.0379
10890PNGS   C1B53348  21.857   0.277  12.061  0.2536  0.0695  0.2464
10890PNGS   C2B53349  21.685   0.353  11.695  0.0271  0.0970  0.0126
10890PNGS   C3B53350  21.412   0.411  11.407  0.1219  0.0554  0.0269
10890PNGS   D4B53351  21.075   0.522  11.071 -0.5036  0.0569  0.3063
10890PNGS   C5B53352  21.256   0.876  10.835 -0.2186 -0.0694 -0.1070
10890PNGS   C6B53353  21.259   1.315  10.697 -0.3185 -0.3089 -0.2346
10891PNGS    C153354   2.038  22.510  11.457 -0.0268 -0.1423  0.0326
10891PNGS    C253355   2.205  22.270  11.389  0.1344  0.0120 -0.1212
10891PNGS    C353356   2.135  22.469  11.176 -0.1983 -0.0214 -0.0449
10891PNGS   AM153357   2.059  23.020  11.335 -0.0162  0.2183 -0.0548
10891PNGS   AM253358   1.861  22.936  11.496 -0.1026 -0.0946 -0.0492
10891PNGS   T1A53359   2.231  23.257  11.416  0.0156 -0.2352  0.0925
10891PNGS   C2A53360   2.414  23.598  11.392 -0.1302  0.1684 -0.0664
10891PNGS   C3A53361   2.723  23.737  11.302 -0.0176  0.2544  0.2376
10891PNGS   C4A53362   3.110  23.662  11.476 -0.0670  0.0015  0.2755
10891PNGS   C1B53363   1.749  23.122  11.792 -0.0298  0.1094  0.0270
10891PNGS   C2B53364   1.796  23.474  11.658 -0.2953 -0.1056  0.1886
10891PNGS   C3B53365   2.025  23.868  11.505 -0.1486 -0.2449 -0.1416
10891PNGS   D4B53366   2.418  24.153  11.411  0.3503  0.3676  0.1666
10891PNGS   C5B53367   2.912  24.185  11.341  0.1183  0.3067  0.1699
10891PNGS   C6B53368   3.390  24.442  11.359  0.3520  0.0935 -0.0192
10892PNGS    C153369  28.733   6.287   8.856  0.1370  0.0230 -0.0824
10892PNGS    C253370  28.706   6.520   9.043  0.0594 -0.0562  0.0061
10892PNGS    C353371  28.522   6.285   9.069  0.1205 -0.1166 -0.0994
10892PNGS   AM153372  28.327   6.192   8.541  0.1344 -0.0436 -0.1694
10892PNGS   AM253373  28.408   6.432   8.478  0.1981  0.1679  0.0466
10892PNGS   T1A53374  28.307   5.957   8.404 -0.1363 -0.1551  0.4119
10892PNGS   C2A53375  28.194   5.803   8.076  0.3300 -0.2277 -0.2408
10892PNGS   C3A53376  28.294   5.494   7.664  0.0697  0.1448 -0.2228
10892PNGS   C4A53377  28.445   5.306   7.421 -0.2137  0.0158 -0.1413
10892PNGS   C1B53378  28.339   6.569   8.159  0.1096 -0.3534  0.1802
10892PNGS   C2B53379  28.167   6.340   7.913 -0.3442 -0.2921 -0.4544
10892PNGS   C3B53380  28.086   6.010   7.605 -0.0713 -0.0280  0.2719
10892PNGS   D4B53381  27.960   5.818   7.368  0.2372 -0.0663 -0.3512
10892PNGS   C5B53382  28.218   5.672   7.173 -0.1190 -0.1253  0.0987
10892PNGS   C6B53383  28.038   5.785   6.871  0.0800  0.3256  0.1682
10893PNGS    C153384  13.449   4.316  18.313  0.0660  0.0919  0.2443
10893PNGS    C253385  13.284   4.450  18.525 -0.1746 -0.1336  0.2011
10893PNGS    C353386  13.250   4.157  18.471 -0.0428 -0.0985 -0.0804
10893PNGS   AM153387  13.077   4.380  17.970  0.0049 -0.1592  0.0258
10893PNGS   AM253388  13.098   4.616  18.074 -0.2073 -0.0310  0.0742
10893PNGS   T1A53389  12.959   4.201  17.794  0.0857 -0.2671 -0.0333
10893PNGS   C2A53390  12.896   4.124  17.301 -0.0820 -0.1882  0.1098
10893PNGS   C3A53391  12.744   4.341  16.900 -0.0129 -0.4930 -0.2043
10893PNGS   C4A53392  12.744   4.316  16.418  0.0515  0.2233 -0.1051
10893PNGS   C1B53393  13.173   4.949  17.920 -0.1335  0.0737  0.3850
10893PNGS   C2B53394  13.439   5.199  17.672  0.0826 -0.1084 -0.0101
10893PNGS   C3B53395  13.328   5.525  17.403 -0.0220  0.1262  0.0527
10893PNGS   D4B53396  13.151   5.675  16.958  0.0299  0.0196 -0.0801
10893PNGS   C5B53397  12.686   5.658  16.722 -0.1033 -0.0169 -0.1565
10893PNGS   C6B53398  12.307   5.842  16.640 -0.1836 -0.1544 -0.0243
10894PNGS    C153399  21.694   0.337  12.686  0.0279 -0.0571 -0.4219
10894PNGS    C253400  21.589   0.109  12.521 -0.2331 -0.3456  0.1286
10894PNGS    C353401  21.410   0.246  12.720  0.0085  0.1521  0.0121
10894PNGS   AM153402  21.544   0.639  12.324  0.3953 -0.1673 -0.0688
10894PNGS   AM253403  21.427   0.794  12.533  0.2117 -0.1919 -0.1289
10894PNGS   T1A53404  21.560   0.740  12.052 -0.1102  0.0690  0.0852
10894PNGS   C2A53405  21.396   0.815  11.761  0.0107  0.0495  0.0988
10894PNGS   C3A53406  21.243   0.918  11.340  0.0118  0.4099 -0.1791
10894PNGS   C4A53407  21.192   1.301  11.310 -0.2659  0.0445  0.0478
10894PNGS   C1B53408  21.313   1.139  12.480 -0.1070 -0.2244 -0.0022
10894PNGS   C2B53409  21.135   1.347  12.154  0.0563 -0.1000 -0.1383
10894PNGS   C3B53410  20.943   1.470  11.817  0.5071  0.2053  0.1511
10894PNGS   D4B53411  20.984   1.696  11.529  0.2011 -0.1987 -0.1123
10894PNGS   C5B53412  20.987   2.099  11.588  0.0280 -0.1711 -0.1565
10894PNGS   C6B53413  21.047   2.444  11.701  0.3047  0.0375  0.0223
10895PNGS    C153414   3.396  10.859  13.724  0.0664 -0.2449 -0.0722
10895PNGS    C253415   3.114  10.830  13.824  0.0684  0.0917  0.0392
10895PNGS    C353416   3.171  10.816  13.529 -0.0560 -0.0332  0.0205
10895PNGS   AM153417   3.697  10.973  13.377 -0.3708 -0.0660 -0.2777
10895PNGS   AM253418   3.523  11.180  13.379  0.0695 -0.0287  0.0701
10895PNGS   T1A53419   3.963  10.977  13.324  0.1522  0.2129 -0.1588
10895PNGS   C2A53420   4.248  10.942  12.992  0.0746  0.0872 -0.2650
10895PNGS   C3A53421   4.492  10.849  12.604 -0.0018  0.0161  0.1460
10895PNGS   C4A53422   4.631  11.180  12.385  0.1271 -0.1530  0.2643
10895PNGS   C1B53423   3.491  11.459  13.136  0.2528 -0.1329 -0.0984
10895PNGS   C2B53424   3.630  11.443  12.616 -0.3653  0.4695 -0.0300
10895PNGS   C3B53425   3.989  11.464  12.242  0.2067  0.0038  0.0002
10895PNGS   D4B53426   4.359  11.458  12.029  0.2475  0.0137  0.2438
10895PNGS   C5B53427   4.088  11.395  11.670  0.2218  0.3250  0.2246
10895PNGS   C6B53428   3.988  11.609  11.258  0.0923  0.2255 -0.2239
10896PNGS    C153429  24.480  21.197   9.615 -0.2701  0.0995  0.0146
10896PNGS    C253430  24.540  21.432   9.438 -0.0685  0.0991  0.0820
10896PNGS    C353431  24.742  21.341   9.641 -0.1806 -0.0797  0.1145
10896PNGS   AM153432  24.260  21.533   9.890  0.2590 -0.2574  0.0178
10896PNGS   AM253433  24.233  21.687   9.696 -0.0146 -0.0831  0.1396
10896PNGS   T1A53434  24.086  21.420  10.110  0.0509  0.0988  0.2024
10896PNGS   C2A53435  23.625  21.346  10.104  0.0766 -0.0117 -0.0745
10896PNGS   C3A53436  23.173  21.322  10.037  0.0328  0.3727 -0.3929
10896PNGS   C4A53437  22.869  20.928   9.920 -0.5460 -0.1088  0.0709
10896PNGS   C1B53438  23.935  21.846   9.569 -0.0248  0.1819 -0.1559
10896PNGS   C2B53439  23.899  22.106   9.253  0.0130  0.3149 -0.1667
10896PNGS   C3B53440  23.767  22.161   8.904  0.1506  0.2963  0.0101
10896PNGS   D4B53441  23.463  22.018   8.660  0.3652 -0.0606  0.2285
10896PNGS   C5B53442  22.981  21.775   8.580 -0.1660 -0.2070  0.1965
10896PNGS   C6B53443  22.501  21.663   8.521  0.2161 -0.0309  0.2153
10897PNGS    C153444  31.661  13.247   4.856 -0.1081 -0.0713 -0.0092
10897PNGS    C253445  31.467  13.019   4.838 -0.2611  0.0554  0.0263
10897PNGS    C353446  31.478  13.225   4.620  0.0042 -0.0842 -0.0957
10897PNGS   AM153447  32.001  13.323   4.474  0.3075  0.1138  0.1340
10897PNGS   AM253448  31.980  13.545   4.615  0.1753  0.0536  0.2004
10897PNGS   T1A53449  32.136  13.289   4.218 -0.0199 -0.2490  0.1716
10897PNGS   C2A53450  32.266  13.339   3.879 -0.1767 -0.0030  0.2612
10897PNGS   C3A53451  32.536  13.182   3.576 -0.1141  0.0626 -0.0669
10897PNGS   C4A53452  32.846  12.941   3.368 -0.0852 -0.0856  0.0327
10897PNGS   C1B53453  32.088  13.836   4.410 -0.0329 -0.0583 -0.0189
10897PNGS   C2B53454  32.143  13.863   4.019  0.1562  0.0557  0.1145
10897PNGS   C3B53455  32.072  13.691   3.596  0.1099  0.2480  0.1403
10897PNGS   D4B53456  32.163  13.439   3.356 -0.0717 -0.0368 -0.2543
10897PNGS   C5B53457  32.295  13.484   2.943  0.0103 -0.0476 -0.1211
10897PNGS   C6B53458  32.178  13.230   2.621 -0.0743 -0.1186 -0.0349
10898PNGS    C153459   1.700   6.666  12.884 -0.0081 -0.1205  0.0251
10898PNGS    C253460   1.966   6.783  12.958 -0.1189  0.0703  0.1268
10898PNGS    C353461   1.743   6.962  12.870 -0.1545 -0.1069 -0.1500
10898PNGS   AM153462   1.773   6.583  12.430 -0.2629 -0.1007 -0.0496
10898PNGS   AM253463   2.012   6.485  12.512  0.0306  0.0665 -0.0889
10898PNGS   T1A53464   1.751   6.548  12.162 -0.0018  0.0102  0.2771
10898PNGS   C2A53465   2.033   6.459  11.858 -0.4553  0.0634 -0.0753
10898PNGS   C3A53466   2.416   6.404  11.583  0.3027  0.1320  0.0191
10898PNGS   C4A53467   2.654   6.090  11.382 -0.0232  0.1877  0.0080
10898PNGS   C1B53468   2.336   6.481  12.387  0.1509 -0.1940  0.1642
10898PNGS   C2B53469   2.589   6.422  12.053  0.0827  0.0029  0.3781
10898PNGS   C3B53470   2.890   6.407  11.743  0.0660 -0.2059  0.2822
10898PNGS   D4B53471   3.184   6.028  11.551  0.1638 -0.0430 -0.0557
10898PNGS   C5B53472   3.590   5.874  11.495  0.0428 -0.1125 -0.2660
10898PNGS   C6B53473   3.812   5.701  11.885  0.1022  0.1181  0.2885
10899PNGS    C153474   3.031  18.693  12.333 -0.2282 -0.1262  0.1114
10899PNGS    C253475   2.879  18.940  12.411 -0.1426 -0.0295 -0.0250
10899PNGS    C353476   3.178  18.949  12.389 -0.1486 -0.1139 -0.1459
10899PNGS   AM153477   3.418  18.468  12.194  0.0525  0.0682 -0.0509
10899PNGS   AM253478   3.302  18.266  12.341  0.2226 -0.5736 -0.2257
10899PNGS   T1A53479   3.703  18.488  12.174 -0.4513 -0.1403 -0.3590
10899PNGS   C2A53480   4.156  18.404  11.926  0.1398  0.0322 -0.1429
10899PNGS   C3A53481   4.423  18.290  11.844 -0.4431  0.0734 -0.1426
10899PNGS   C4A53482   4.734  18.302  11.594  0.0517 -0.0889 -0.3709
10899PNGS   C1B53483   3.499  17.963  12.332  0.2625  0.0921  0.0552
10899PNGS   C2B53484   3.748  17.858  12.093 -0.0600  0.5384  0.1591
10899PNGS   C3B53485   4.202  17.803  12.007  0.0505 -0.0471  0.1611
10899PNGS   D4B53486   4.536  17.828  11.933  0.1264 -0.2998  0.0869
10899PNGS   C5B53487   4.906  18.072  12.118  0.0927  0.0291 -0.3987
10899PNGS   C6B53488   5.208  18.246  12.368 -0.0800 -0.3728  0.1670
10900PNGS    C153489  20.788  30.510  13.398 -0.2396  0.0801 -0.0281
10900PNGS    C253490  20.941  30.633  13.171 -0.0869 -0.0621 -0.0037
10900PNGS    C353491  20.867  30.799  13.410 -0.2860  0.0989 -0.1752
10900PNGS   AM153492  20.396  30.600  13.156 -0.0854 -0.1623 -0.1090
10900PNGS   AM253493  20.512  30.453  12.982  0.1609  0.3525  0.0742
10900PNGS   T1A53494  20.127  30.687  13.116 -0.0628 -0.1259  0.2777
10900PNGS   C2A53495  19.884  30.532  12.771 -0.1383  0.0315  0.0733
10900PNGS   C3A53496  19.656  30.519  12.457  0.1221 -0.1379 -0.0650
10900PNGS   C4A53497  19.281  30.327  12.219  0.3318 -0.1018  0.0762
10900PNGS   C1B53498  20.385  30.348  12.660 -0.1521 -0.1464  0.0360
10900PNGS   C2B53499  20.112  30.353  12.370  0.1148  0.2344 -0.3456
10900PNGS   C3B53500  19.730  30.216  12.087 -0.0708 -0.1924  0.0364
10900PNGS   D4B53501  19.491  30.287  11.710 -0.1021 -0.0074  0.1643
10900PNGS   C5B53502  19.540  30.766  11.466  0.0516  0.0566  0.5178
10900PNGS   C6B53503  19.799  31.086  11.219 -0.1002  0.0950 -0.0677
10901PNGS    C153504  34.021  35.139  13.164  0.0389 -0.1863  0.0592
10901PNGS    C253505  34.258  35.064  13.332  0.0542  0.0116  0.1277
10901PNGS    C353506  33.988  35.092  13.459  0.0302 -0.0221  0.0848
10901PNGS   AM153507  34.045  34.637  13.100 -0.0662  0.1601 -0.2148
10901PNGS   AM253508  33.918  34.674  12.881  0.0181 -0.2809 -0.0708
10901PNGS   T1A53509  34.322  34.500  13.046  0.1339  0.0710  0.0754
10901PNGS   C2A53510  34.685  34.431  13.039 -0.0341 -0.1616  0.0307
10901PNGS   C3A53511  35.054  34.294  12.795  0.1161 -0.0320  0.0636
10901PNGS   C4A53512   0.027  34.220  12.509 -0.0387  0.2017 -0.0591
10901PNGS   C1B53513  34.080  34.704  12.582  0.0210  0.3508 -0.1226
10901PNGS   C2B53514  34.301  34.530  12.146 -0.1714  0.0158 -0.0078
10901PNGS   C3B53515  34.661  34.495  11.909 -0.0135 -0.1124 -0.0408
10901PNGS   D4B53516  35.010  34.439  11.583  0.0319 -0.1317  0.1295
10901PNGS   C5B53517   0.065  34.237  11.685 -0.0369  0.0100  0.2182
10901PNGS   C6B53518   0.500  34.229  11.813  0.0090 -0.0088  0.4019
10902PNGS    C153519  23.839   0.203  11.829 -0.2377  0.1504 -0.0380
10902PNGS    C253520  23.708   0.473  11.847 -0.1963  0.1502  0.2779
10902PNGS    C353521  23.540   0.226  11.820 -0.2361  0.2033  0.0317
10902PNGS   AM153522  23.886   0.408  11.366  0.2117  0.1585 -0.0800
10902PNGS   AM253523  23.944   0.673  11.447  0.1378  0.0518 -0.0905
10902PNGS   T1A53524  23.916   0.384  11.079 -0.0346 -0.0405 -0.2714
10902PNGS   C2A53525  23.883   0.155  10.754  0.1077  0.0493  0.1726
10902PNGS   C3A53526  23.762   0.126  10.385  0.1666 -0.0439  0.1814
10902PNGS   C4A53527  23.980   0.282  10.036 -0.1255  0.2429  0.0023
10902PNGS   C1B53528  24.073   0.887  11.177  0.0325  0.3187 -0.0540
10902PNGS   C2B53529  24.140   0.793  10.701  0.0730 -0.0504 -0.3209
10902PNGS   C3B53530  23.931   0.613  10.429  0.0462 -0.0403 -0.2113
10902PNGS   D4B53531  23.630   0.656  10.075  0.2787 -0.2333 -0.2113
10902PNGS   C5B53532  23.479   0.315   9.955 -0.0460 -0.1298  0.3628
10902PNGS   C6B53533  23.274  35.267   9.904  0.2578 -0.1676 -0.0565
10903PNGS    C153534  17.117   0.149  16.023 -0.1367 -0.1891  0.3274
10903PNGS    C253535  17.345   0.238  16.197  0.1783  0.0489 -0.1961
10903PNGS    C353536  17.340  35.344  16.088  0.2053  0.0352 -0.1613
10903PNGS   AM153537  16.855  35.068  15.974  0.0540 -0.2170  0.1593
10903PNGS   AM253538  16.697  35.263  16.070  0.1891 -0.0960 -0.0069
10903PNGS   T1A53539  16.780  34.837  15.813 -0.3007  0.3195  0.0159
10903PNGS   C2A53540  16.625  34.436  15.741 -0.0863 -0.0900 -0.2728
10903PNGS   C3A53541  16.275  34.035  15.661  0.1234 -0.0410  0.0929
10903PNGS   C4A53542  15.802  34.141  15.789 -0.0636  0.1985 -0.2978
10903PNGS   C1B53543  16.378  35.299  15.930  0.0859  0.3431  0.0464
10903PNGS   C2B53544  16.158  35.185  15.535  0.2659 -0.0602  0.3248
10903PNGS   C3B53545  15.939  34.916  15.218 -0.2582  0.0268 -0.0672
10903PNGS   D4B53546  15.681  35.079  14.913  0.0294 -0.0049  0.0491
10903PNGS   C5B53547  15.324  35.335  15.085  0.0638 -0.1444 -0.0981
10903PNGS   C6B53548  14.998   0.185  15.043 -0.2068  0.0712 -0.1692
10904PNGS    C153549   0.311  23.033   9.370  0.0173  0.2372 -0.1213
10904PNGS    C253550   0.195  23.243   9.550  0.0049 -0.0446  0.2044
10904PNGS    C353551   0.125  22.954   9.592  0.0660 -0.1218 -0.2048
10904PNGS   AM153552   0.667  23.152   9.702 -0.1103  0.0078  0.2934
10904PNGS   AM253553   0.739  22.914   9.553 -0.1908 -0.1014 -0.5107
10904PNGS   T1A53554   0.740  23.417   9.568 -0.2965 -0.3805 -0.2078
10904PNGS   C2A53555   1.008  23.666   9.568  0.0720 -0.1322  0.0417
10904PNGS   C3A53556   1.304  23.853   9.422 -0.0490 -0.0021  0.1125
10904PNGS   C4A53557   1.612  24.151   9.100  0.0873 -0.2243 -0.1480
10904PNGS   C1B53558   1.046  22.869   9.335  0.3605  0.2580 -0.1330
10904PNGS   C2B53559   1.224  22.865   9.007  0.0380 -0.2115 -0.1332
10904PNGS   C3B53560   1.562  23.051   8.726  0.0552 -0.1943 -0.0622
10904PNGS   D4B53561   1.869  23.359   8.501  0.0165 -0.0753  0.0339
10904PNGS   C5B53562   1.800  23.429   8.084 -0.0610 -0.0222 -0.0568
10904PNGS   C6B53563   1.553  23.410   7.815  0.0136 -0.0344 -0.1531
10905PNGS    C153564  35.304  28.715  15.084 -0.0757 -0.0897  0.1962
10905PNGS    C253565  35.277  28.894  14.845  0.1793 -0.2100  0.0758
10905PNGS    C353566  35.380  29.005  15.104  0.0333 -0.1106  0.0912
10905PNGS   AM153567   0.323  28.673  14.794 -0.0928 -0.1249  0.2330
10905PNGS   AM253568   0.469  28.844  14.931 -0.0521  0.1318 -0.1244
10905PNGS   T1A53569   0.416  28.423  14.681  0.0872 -0.1295  0.1324
10905PNGS   C2A53570   0.728  28.089  14.830 -0.0140  0.2019 -0.0856
10905PNGS   C3A53571   0.999  27.713  14.862 -0.2815 -0.0635 -0.0922
10905PNGS   C4A53572   1.303  27.654  14.563  0.0086 -0.0432  0.0340
10905PNGS   C1B53573   0.659  29.123  14.809  0.0569 -0.0764  0.1060
10905PNGS   C2B53574   0.587  29.438  14.500  0.0629  0.3732 -0.0270
10905PNGS   C3B53575   0.423  29.838  14.716 -0.3980 -0.1032  0.2539
10905PNGS   D4B53576   0.612  30.204  14.865  0.0051 -0.1637  0.3584
10905PNGS   C5B53577   1.022  30.187  15.090 -0.3721 -0.1268 -0.3236
10905PNGS   C6B53578   1.044  30.045  15.529  0.0605 -0.3569 -0.0190
10906PNGS    C153579  24.470  21.150  10.378 -0.0830  0.0640 -0.1142
10906PNGS    C253580  24.382  20.981  10.611  0.3392  0.1052  0.0798
10906PNGS    C353581  24.266  21.255  10.572  0.2187  0.0717  0.2034
10906PNGS   AM153582  24.091  20.897  10.179 -0.0702  0.2352 -0.1530
10906PNGS   AM253583  24.217  20.998   9.984 -0.0124  0.1414  0.0745
10906PNGS   T1A53584  23.817  20.783  10.165 -0.3319 -0.0269 -0.0623
10906PNGS   C2A53585  23.350  20.843  10.013  0.0013 -0.0655 -0.0301
10906PNGS   C3A53586  23.357  21.156   9.638 -0.1268  0.0849 -0.0281
10906PNGS   C4A53587  23.096  21.360   9.333  0.0021  0.0169  0.2152
10906PNGS   C1B53588  23.988  21.112   9.719 -0.3242 -0.0417  0.1374
10906PNGS   C2B53589  23.803  21.412   9.515 -0.3254 -0.0815  0.0880
10906PNGS   C3B53590  23.455  21.692   9.379 -0.0561  0.0786 -0.1629
10906PNGS   D4B53591  23.439  22.186   9.490  0.1893  0.3811  0.0762
10906PNGS   C5B53592  23.000  22.508   9.706 -0.0190 -0.3011  0.0114
10906PNGS   C6B53593  22.705  22.758   9.506  0.2456  0.1193 -0.0008
10907PNGS    C153594  27.018   6.739   9.247  0.2054 -0.1590  0.0424
10907PNGS    C253595  27.009   6.867   8.975 -0.1273 -0.2723 -0.0025
10907PNGS    C353596  27.223   6.668   9.040  0.2369  0.1070 -0.0203
10907PNGS   AM153597  26.697   6.414   9.002  0.1620 -0.2178  0.0999
10907PNGS   AM253598  26.934   6.271   8.914 -0.1091 -0.1114 -0.1489
10907PNGS   T1A53599  26.493   6.350   8.797 -0.0528  0.1368 -0.0520
10907PNGS   C2A53600  26.442   6.109   8.453  0.1526  0.1772 -0.1622
10907PNGS   C3A53601  26.205   6.005   8.108 -0.1964  0.0296  0.1636
10907PNGS   C4A53602  25.963   6.032   7.668 -0.0729  0.1916 -0.0023
10907PNGS   C1B53603  26.921   6.005   8.661 -0.0019  0.3840 -0.1621
10907PNGS   C2B53604  26.956   5.774   8.338  0.1331  0.0839  0.0425
10907PNGS   C3B53605  26.516   5.571   8.180 -0.1725  0.1977  0.0927
10907PNGS   D4B53606  26.247   5.319   7.954 -0.0813 -0.3146  0.0662
10907PNGS   C5B53607  26.003   5.020   8.050 -0.0565 -0.2215 -0.1562
10907PNGS   C6B53608  25.600   5.033   8.265 -0.0942 -0.0388  0.2036
10908PNGS    C153609  20.188   0.275  13.696 -0.0556 -0.0553 -0.0473
10908PNGS    C253610  19.991   0.119  13.860  0.1157 -0.2710 -0.0438
10908PNGS    C353611  20.232  35.367  13.744  0.3199  0.0128  0.0399
10908PNGS   AM153612  19.827   0.206  13.391 -0.2977 -0.0794 -0.5335
10908PNGS   AM253613  19.603   0.200  13.519  0.0736 -0.3283 -0.0962
10908PNGS   T1A53614  19.914   0.243  13.114 -0.0394  0.1858 -0.2358
10908PNGS   C2A53615  19.711   0.152  12.679  0.1253 -0.0271  0.1661
10908PNGS   C3A53616  19.469   0.223  12.274  0.1365  0.2703 -0.0944
10908PNGS   C4A53617  19.450   0.370  11.957  0.2200 -0.2297 -0.1688
10908PNGS   C1B53618  19.269   0.343  13.493 -0.0286 -0.2181  0.2352
10908PNGS   C2B53619  19.050   0.481  13.210  0.1394  0.3588  0.2244
10908PNGS   C3B53620  18.809   0.576  12.775  0.1021 -0.2039  0.0557
10908PNGS   D4B53621  18.474   0.488  12.389  0.1593  0.0885  0.0944
10908PNGS   C5B53622  18.587   0.636  11.987 -0.2346  0.3374  0.3245
10908PNGS   C6B53623  18.595   1.012  11.793 -0.2054  0.1488  0.2264
10909PNGS    C153624  19.920  29.107  14.880 -0.1197  0.2154 -0.1215
10909PNGS    C253625  20.124  29.209  14.686  0.2222  0.0019  0.1217
10909PNGS    C353626  20.030  28.925  14.669  0.0996  0.0415  0.1396
10909PNGS   AM153627  19.501  29.082  14.569 -0.0126 -0.2517 -0.1474
10909PNGS   AM253628  19.568  28.819  14.547 -0.2584  0.0256 -0.1424
10909PNGS   T1A53629  19.209  29.180  14.599  0.4748 -0.0023  0.1134
10909PNGS   C2A53630  18.883  29.089  14.327 -0.1565  0.3126  0.0595
10909PNGS   C3A53631  18.674  28.835  14.311 -0.3678 -0.0832  0.2826
10909PNGS   C4A53632  18.505  28.455  14.343  0.2332 -0.0113  0.4265
10909PNGS   C1B53633  19.335  28.543  14.580  0.1118 -0.1354 -0.0853
10909PNGS   C2B53634  19.020  28.324  14.403 -0.0501  0.1705 -0.2123
10909PNGS   C3B53635  18.764  28.004  14.360  0.4068 -0.1175  0.0828
10909PNGS   D4B53636  18.639  27.616  14.139 -0.1598  0.1026  0.1204
10909PNGS   C5B53637  18.768  27.432  13.876 -0.1453  0.0781  0.1260
10909PNGS   C6B53638  18.929  27.011  13.707 -0.1223  0.0405 -0.1437
10910PNGS    C153639  21.159  29.090  13.126  0.1300  0.1279  0.2483
10910PNGS    C253640  21.027  29.320  13.267 -0.0752  0.2652 -0.1586
10910PNGS    C353641  21.157  29.363  13.000 -0.0028 -0.0664 -0.1793
10910PNGS   AM153642  20.832  28.959  12.750  0.3813 -0.0362 -0.1190
10910PNGS   AM253643  21.041  28.994  12.617  0.0368  0.0099  0.0887
10910PNGS   T1A53644  20.545  28.912  12.754 -0.0459  0.0344 -0.0313
10910PNGS   C2A53645  20.154  28.738  12.587  0.2400 -0.0587  0.2267
10910PNGS   C3A53646  19.779  28.677  12.566  0.2122 -0.1246 -0.0904
10910PNGS   C4A53647  19.320  28.673  12.696  0.0751  0.1842 -0.0780
10910PNGS   C1B53648  21.030  29.131  12.255 -0.1000  0.1399  0.0437
10910PNGS   C2B53649  20.778  29.179  11.903  0.0252  0.1209  0.0700
10910PNGS   C3B53650  20.517  29.191  11.573 -0.0395  0.2353 -0.0822
10910PNGS   D4B53651  20.315  29.339  11.184 -0.0998 -0.1969  0.0827
10910PNGS   C5B53652  19.913  29.380  11.268 -0.2699  0.1776  0.2484
10910PNGS   C6B53653  19.670  29.810  11.192  0.0922 -0.1276 -0.0317
10911PNGS    C153654  28.078  10.296   6.226  0.1769 -0.0804 -0.0315
10911PNGS    C253655  28.359  10.386   6.281  0.1036  0.1331 -0.0030
10911PNGS    C353656  28.237  10.434   6.012  0.0162  0.2453  0.0560
10911PNGS   AM153657  27.721  10.217   5.903  0.1216  0.0374  0.0924
10911PNGS   AM253658  27.931  10.030   5.825 -0.0627  0.0038 -0.1481
10911PNGS   T1A53659  27.484  10.267   5.730  0.0893  0.2544 -0.3488
10911PNGS   C2A53660  27.401  10.036   5.403  0.0476  0.1642 -0.3017
10911PNGS   C3A53661  27.318  10.017   5.042 -0.0794 -0.2792  0.1303
10911PNGS   C4A53662  27.237   9.843   4.725  0.2120 -0.2801  0.0466
10911PNGS   C1B53663  27.853   9.796   5.568  0.0774  0.2588  0.2164
10911PNGS   C2B53664  27.782   9.698   5.208  0.1741 -0.1975 -0.1343
10911PNGS   C3B53665  27.764   9.578   4.784  0.0323 -0.0636  0.1112
10911PNGS   D4B53666  27.906   9.237   4.487  0.0013  0.2144  0.2296
10911PNGS   C5B53667  27.745   8.974   4.739 -0.3887 -0.1893  0.0582
10911PNGS   C6B53668  27.433   8.711   4.722 -0.2647 -0.1190  0.0349
10912PNGS    C153669  25.774  13.625   6.572 -0.1402 -0.1295 -0.1057
10912PNGS    C253670  25.624  13.397   6.698 -0.0045  0.0144  0.3244
10912PNGS    C353671  25.923  13.414   6.725  0.0076  0.1376  0.1238
10912PNGS   AM153672  25.693  13.304   6.204 -0.0521 -0.1450  0.1533
10912PNGS   AM253673  25.465  13.468   6.203  0.5185  0.2285  0.3670
10912PNGS   T1A53674  25.667  13.047   6.064  0.1132  0.2523  0.0117
10912PNGS   C2A53675  25.363  12.859   5.913  0.1615 -0.1534 -0.1242
10912PNGS   C3A53676  24.972  12.856   5.734 -0.3935 -0.1400  0.0986
10912PNGS   C4A53677  24.670  12.986   5.523  0.0516 -0.0207  0.3672
10912PNGS   C1B53678  25.200  13.367   5.977 -0.1226 -0.2708 -0.0581
10912PNGS   C2B53679  24.794  13.404   5.779  0.1611 -0.1925 -0.2518
10912PNGS   C3B53680  24.440  13.453   5.583  0.0125  0.0752  0.1946
10912PNGS   D4B53681  24.040  13.476   5.370 -0.1751  0.0276  0.1466
10912PNGS   C5B53682  23.822  13.813   5.372 -0.5586  0.1401  0.0208
10912PNGS   C6B53683  23.420  13.849   5.257  0.2637  0.2872  0.0859
10913PNGS    C153684  29.026  12.099   4.634  0.0618 -0.1847 -0.0152
10913PNGS    C253685  29.107  12.210   4.901 -0.0117  0.0009 -0.0691
10913PNGS    C353686  29.110  12.386   4.659  0.0639 -0.1697 -0.1934
10913PNGS   AM153687  29.159  12.084   4.190  0.0491  0.0635  0.0810
10913PNGS   AM253688  29.331  11.864   4.244 -0.2871 -0.1600 -0.0806
10913PNGS   T1A53689  29.031  12.144   3.950  0.0076 -0.0783  0.1217
10913PNGS   C2A53690  28.881  12.080   3.475 -0.0990  0.1056 -0.0064
10913PNGS   C3A53691  28.490  12.074   3.364  0.1262 -0.0486  0.1355
10913PNGS   C4A53692  28.105  11.913   3.189 -0.0184 -0.1430 -0.1349
10913PNGS   C1B53693  29.455  11.549   4.076  0.1468 -0.1361 -0.0891
10913PNGS   C2B53694  29.172  11.172   3.885  0.0261 -0.0426 -0.0303
10913PNGS   C3B53695  29.036  10.953   3.530  0.3527  0.1409 -0.1019
10913PNGS   D4B53696  28.875  10.604   3.388 -0.0446  0.1126 -0.0695
10913PNGS   C5B53697  28.423  10.420   3.325 -0.3128 -0.0313 -0.2115
10913PNGS   C6B53698  28.194  10.086   3.063 -0.5879 -0.1347  0.3834
10914PNGS    C153699   9.716  12.692  18.239  0.0554  0.0828 -0.1126
10914PNGS    C253700   9.453  12.595  18.344  0.1978  0.0232  0.1937
10914PNGS    C353701   9.593  12.442  18.127  0.0058  0.0275  0.0653
10914PNGS   AM153702   9.721  12.879  17.769 -0.0945  0.1134  0.1510
10914PNGS   AM253703   9.484  12.972  17.869 -0.0262 -0.0645  0.0974
10914PNGS   T1A53704   9.774  12.770  17.542  0.1059  0.3002  0.0896
10914PNGS   C2A53705   9.923  12.814  17.155 -0.0337 -0.4503 -0.1155
10914PNGS   C3A53706  10.145  12.754  16.785 -0.0425  0.0156  0.1515
10914PNGS   C4A53707  10.303  12.744  16.405  0.2521 -0.1762 -0.1905
10914PNGS   C1B53708   9.223  13.206  17.733 -0.2922 -0.2677  0.1013
10914PNGS   C2B53709   9.285  12.994  17.273  0.0168 -0.1379 -0.0548
10914PNGS   C3B53710   9.564  12.803  16.772 -0.0271 -0.0076  0.0914
10914PNGS   D4B53711   9.776  12.817  16.337  0.0288  0.3317 -0.3001
10914PNGS   C5B53712   9.535  12.705  16.121  0.3070 -0.1343  0.1184
10914PNGS   C6B53713   9.393  12.301  15.990 -0.0659 -0.2626  0.2728
10915PNGS    C153714  25.485  31.346  10.165  0.0372 -0.1606  0.2514
10915PNGS    C253715  25.223  31.474  10.233  0.0600  0.0677 -0.0756
10915PNGS    C353716  25.240  31.279  10.006  0.2166  0.2262 -0.2018
10915PNGS   AM153717  25.780  31.168   9.811  0.2522 -0.0684  0.1721
10915PNGS   AM253718  25.904  31.404   9.811  0.0030  0.0506 -0.0313
10915PNGS   T1A53719  25.787  31.091   9.505  0.1592  0.1084  0.2432
10915PNGS   C2A53720  25.787  31.198   9.058  0.1184  0.2432  0.0660
10915PNGS   C3A53721  25.492  31.084   8.770  0.1710  0.0336  0.0836
10915PNGS   C4A53722  25.197  31.195   8.486 -0.1083  0.1643 -0.1414
10915PNGS   C1B53723  26.057  31.511   9.514  0.0192  0.0173  0.0932
10915PNGS   C2B53724  26.144  31.496   9.173 -0.7010 -0.2263 -0.0266
10915PNGS   C3B53725  26.057  31.592   8.769  0.2534 -0.0684 -0.0701
10915PNGS   D4B53726  26.223  31.683   8.365 -0.1163 -0.0112  0.0277
10915PNGS   C5B53727  26.124  31.965   8.074 -0.0001  0.0873  0.0162
10915PNGS   C6B53728  26.022  31.926   7.609 -0.1761 -0.1394 -0.1173
10916DPG1   GM153729  25.495  31.951  10.057 -0.1632  0.1150  0.0234
10916DPG1   GM253730  25.517  31.798  10.399 -0.2847  0.2976  0.1138
10916DPG1   GM353731  25.750  31.771  10.164 -0.1497  0.0710 -0.0812
10916DPG1   GM453732  25.866  31.543  10.395 -0.0190  0.0307 -0.1245
10916DPG1   GM553733  26.130  31.725  10.162 -0.0447  0.1751 -0.0413
10916DPG1   GM653734  26.099  31.442  10.316  0.0567  0.0948  0.0148
10916DPG1   GM753735  26.030  31.155  10.228  0.1777 -0.3117  0.0431
10916DPG1   GM853736  26.423  31.358   9.953 -0.1027 -0.1260 -0.2230
10916DPG1   GM953737  26.295  31.077  10.044 -0.2496  0.0996  0.3514
10916DPG1  GM1053738  26.249  30.784  10.255 -0.1115 -0.1125  0.0900
10916DPG1  GM1153739  26.599  30.968  10.269 -0.0757 -0.1597 -0.1529
10916DPG1  GM1253740  26.479  30.688  10.156 -0.2035 -0.1064 -0.1318
10916DPG1  GM1353741  26.224  31.191  10.552  0.2859 -0.1949  0.1784
10916DPG1  GM1453742  26.163  31.443  10.788  0.0635  0.0126 -0.0977
10916DPG1  GM1553743  26.428  31.513  10.545  0.0893 -0.0738 -0.0948
10916DPG1  GM1653744  26.474  31.565  10.870 -0.0110 -0.0536  0.3274
10916DPG1  GM1753745  26.633  31.435  10.397 -0.2096  0.2494  0.1256
10916DPG1   AM153746  25.133  31.819   9.751 -0.0565  0.0302  0.1086
10916DPG1   AM253747  25.436  31.608   9.690  0.0937  0.0966  0.1026
10916DPG1   T1A53748  25.112  31.804   9.295 -0.2131  0.0100 -0.3349
10916DPG1   C2A53749  25.099  31.894   8.849  0.2960 -0.3120  0.0793
10916DPG1   C3A53750  24.843  31.869   8.374 -0.1071  0.2452  0.1017
10916DPG1   C1B53751  25.516  31.527   9.339  0.2765 -0.0690  0.3305
10916DPG1   C2B53752  25.518  31.571   8.948  0.2438 -0.1065  0.1023
10916DPG1   C3B53753  25.549  31.583   8.504  0.1251 -0.0593  0.0685
10916DPG1   C4B53754  25.247  31.575   8.239  0.0460  0.0455  0.1584
10917DPG1   GM153755   2.834   9.864  13.149 -0.1155  0.1135  0.1889
10917DPG1   GM253756   2.587   9.640  13.321  0.1885 -0.1740  0.2546
10917DPG1   GM353757   2.507   9.900  13.173 -0.1635  0.0043 -0.2651
10917DPG1   GM453758   2.209   9.884  13.359 -0.0879  0.2692 -0.0351
10917DPG1   GM553759   2.188   9.982  12.976  0.1476  0.1293 -0.0844
10917DPG1   GM653760   2.001   9.976  13.223 -0.1983 -0.2389 -0.2175
10917DPG1   GM753761   1.873  10.252  13.352 -0.1404  0.1416 -0.0437
10917DPG1   GM853762   1.911  10.249  12.833  0.2000 -0.1029 -0.0192
10917DPG1   GM953763   1.829  10.431  13.078 -0.3236  0.0945 -0.2833
10917DPG1  GM1053764   1.598  10.587  13.311 -0.2229 -0.1393 -0.0246
10917DPG1  GM1153765   1.409  10.329  13.080 -0.0800 -0.2214 -0.0504
10917DPG1  GM1253766   1.455  10.596  13.085 -0.0437  0.0176 -0.1325
10917DPG1  GM1353767   1.645   9.917  13.362 -0.1318  0.0321 -0.0364
10917DPG1  GM1453768   1.730   9.578  13.344 -0.0823  0.0375  0.0895
10917DPG1  GM1553769   1.700   9.752  13.023  0.2410  0.0002  0.0377
10917DPG1  GM1653770   1.656   9.443  13.052  0.0858  0.0295  0.1464
10917DPG1  GM1753771   1.515   9.890  12.843 -0.1053 -0.0064 -0.0793
10917DPG1   AM153772   3.128   9.642  13.431  0.0380  0.3440  0.1744
10917DPG1   AM253773   3.279   9.967  13.299  0.1141 -0.0316 -0.0027
10917DPG1   T1A53774   3.562   9.529  13.247  0.1264  0.0647 -0.0481
10917DPG1   C2A53775   3.817   9.186  13.250  0.2671 -0.1246  0.1224
10917DPG1   C3A53776   4.060   9.056  12.956  0.2860 -0.2286  0.2763
10917DPG1   C1B53777   3.544  10.029  13.080  0.1010  0.2287 -0.0747
10917DPG1   C2B53778   3.921  10.086  12.879 -0.1992 -0.2849  0.0549
10917DPG1   C3B53779   4.268  10.034  12.519 -0.0270 -0.1024  0.0065
10917DPG1   C4B53780   4.617  10.008  12.300  0.1529  0.2392  0.0030
10918DPG1   GM153781  27.253   8.828   7.178  0.4390  0.2180 -0.0907
10918DPG1   GM253782  27.187   9.009   7.500  0.2626 -0.0037 -0.0010
10918DPG1   GM353783  27.441   9.064   7.311  0.0900  0.3468  0.1832
10918DPG1   GM453784  27.529   9.279   7.571 -0.0393 -0.0767 -0.3041
10918DPG1   GM553785  27.583   9.267   7.179 -0.1339 -0.1631 -0.3150
10918DPG1   GM653786  27.706   9.408   7.422  0.2047 -0.3607 -0.2647
10918DPG1   GM753787  27.990   9.360   7.536 -0.2470  0.2035  0.0989
10918DPG1   GM853788  27.914   9.316   7.022 -0.0290  0.3196  0.0559
10918DPG1   GM953789  28.149   9.266   7.262 -0.2228  0.0455  0.1531
10918DPG1  GM1053790  28.370   9.353   7.538 -0.0602  0.1423 -0.0059
10918DPG1  GM1153791  28.465   9.505   7.186 -0.1588  0.0663 -0.0658
10918DPG1  GM1253792  28.596   9.321   7.398  0.0420  0.0890  0.1699
10918DPG1  GM1353793  27.856   9.692   7.637  0.2215  0.0413 -0.0383
10918DPG1  GM1453794  27.549   9.851   7.583  0.1423 -0.0471  0.1485
10918DPG1  GM1553795  27.763   9.812   7.288 -0.0573 -0.0504  0.0034
10918DPG1  GM1653796  27.620  10.108   7.368 -0.2306  0.0113 -0.2698
10918DPG1  GM1753797  27.963   9.803   7.150 -0.0073 -0.0017  0.1732
10918DPG1   AM153798  26.858   8.650   7.419  0.1982  0.0422  0.1842
10918DPG1   AM253799  26.882   8.407   7.160  0.1387  0.2667  0.0740
10918DPG1   T1A53800  26.438   8.729   7.226  0.0848 -0.0179 -0.4457
10918DPG1   C2A53801  26.210   8.659   6.988  0.0525  0.5794  0.1110
10918DPG1   C3A53802  25.762   8.603   6.773  0.1215  0.1344 -0.0733
10918DPG1   C1B53803  26.650   8.313   6.916 -0.1604  0.1973  0.1283
10918DPG1   C2B53804  26.372   8.129   6.578  0.4132  0.1753  0.1371
10918DPG1   C3B53805  25.928   8.116   6.543  0.2366  0.1305  0.3649
10918DPG1   C4B53806  25.502   8.399   6.371  0.0850  0.1320  0.0145
10919DPG1   GM153807  20.740  33.232  13.214  0.1718 -0.1744 -0.1151
10919DPG1   GM253808  20.427  33.071  13.344  0.1282 -0.0765 -0.0976
10919DPG1   GM353809  20.670  33.123  13.518 -0.1166  0.0041 -0.1159
10919DPG1   GM453810  20.434  32.946  13.695 -0.0341  0.0324  0.0546
10919DPG1   GM553811  20.608  33.266  13.850  0.0904 -0.0333  0.0519
10919DPG1   GM653812  20.511  32.981  13.946  0.0014  0.0020  0.0480
10919DPG1   GM753813  20.702  32.743  14.050  0.0953  0.1898 -0.0703
10919DPG1   GM853814  20.745  33.211  14.274  0.0089  0.1204  0.0904
10919DPG1   GM953815  20.864  32.914  14.287  0.1121  0.0141  0.2027
10919DPG1  GM1053816  20.839  32.559  14.363 -0.1123  0.0337  0.2207
10919DPG1  GM1153817  20.699  32.836  14.609 -0.1880  0.1839  0.0105
10919DPG1  GM1253818  20.868  32.569  14.629 -0.3088 -0.4179  0.2642
10919DPG1  GM1353819  20.354  32.701  14.125  0.0701  0.0091  0.1821
10919DPG1  GM1453820  20.087  32.815  13.930  0.1473  0.0123  0.0772
10919DPG1  GM1553821  20.197  33.040  14.198  0.0894  0.0407  0.0767
10919DPG1  GM1653822  19.927  32.994  14.109  0.2555  0.2334 -0.1859
10919DPG1  GM1753823  20.286  33.091  14.437  0.0597 -0.1125  0.2306
10919DPG1   AM153824  20.496  33.155  12.840  0.1689 -0.4083 -0.3052
10919DPG1   AM253825  20.270  32.857  12.905  0.1209 -0.2613  0.1610
10919DPG1   T1A53826  20.307  33.085  12.409  0.0888 -0.1637  0.0681
10919DPG1   C2A53827  20.041  32.976  12.111 -0.1630 -0.1586  0.0315
10919DPG1   C3A53828  19.556  32.928  12.007 -0.1442  0.0338 -0.0299
10919DPG1   C1B53829  19.934  32.786  12.766  0.4644 -0.0225  0.2318
10919DPG1   C2B53830  19.758  32.808  12.427  0.0432 -0.1709  0.3607
10919DPG1   C3B53831  19.563  32.444  12.155  0.0211  0.0618 -0.1884
10919DPG1   C4B53832  19.375  32.525  11.728  0.3546  0.0752  0.3988
10920DPG1   GM153833  20.275  33.996  13.278 -0.0733  0.1771  0.1080
10920DPG1   GM253834  19.956  33.800  13.300 -0.1370  0.2524 -0.1300
10920DPG1   GM353835  20.072  34.003  13.538  0.0374 -0.4474  0.2194
10920DPG1   GM453836  19.800  33.931  13.727  0.0647  0.1583 -0.2268
10920DPG1   GM553837  20.024  34.256  13.769  0.0907  0.1038  0.0610
10920DPG1   GM653838  19.864  34.061  13.949  0.0036 -0.2097  0.0111
10920DPG1   GM753839  20.026  33.872  14.151 -0.0758 -0.1431  0.1905
10920DPG1   GM853840  20.204  34.358  14.085 -0.0623 -0.1297  0.3263
10920DPG1   GM953841  20.208  34.128  14.306  0.0643 -0.1722 -0.2000
10920DPG1  GM1053842  20.072  33.904  14.559  0.2722  0.0096  0.0748
10920DPG1  GM1153843  20.158  34.285  14.621  0.1555  0.0474  0.0108
10920DPG1  GM1253844  20.189  34.025  14.768  0.0071  0.0563  0.1980
10920DPG1  GM1353845  19.656  33.917  14.220  0.3046  0.1317  0.1148
10920DPG1  GM1453846  19.406  34.007  13.992  0.0766 -0.0754  0.2802
10920DPG1  GM1553847  19.609  34.283  14.124  0.0202  0.0789  0.0467
10920DPG1  GM1653848  19.288  34.295  14.073 -0.2530 -0.2798  0.0124
10920DPG1  GM1753849  19.737  34.412  14.357  0.2403  0.0541  0.2331
10920DPG1   AM153850  20.395  33.609  13.020  0.1029 -0.4243 -0.1737
10920DPG1   AM253851  20.115  33.405  13.036 -0.2062 -0.0212  0.0951
10920DPG1   T1A53852  20.246  33.573  12.544  0.1595 -0.2876  0.3222
10920DPG1   C2A53853  20.085  33.488  12.148  0.1324  0.2822 -0.1944
10920DPG1   C3A53854  19.847  33.383  11.821 -0.0139 -0.1882  0.2798
10920DPG1   C1B53855  19.847  33.305  12.785 -0.0093  0.0997  0.0665
10920DPG1   C2B53856  19.679  33.293  12.353  0.0962 -0.1115  0.1451
10920DPG1   C3B53857  19.358  33.377  12.081 -0.0324  0.0449 -0.0860
10920DPG1   C4B53858  19.126  33.631  11.940  0.0685 -0.2481 -0.0334
10921DPG1   GM153859  20.479   0.527  13.324  0.2402  0.0136 -0.3063
10921DPG1   GM253860  20.617   0.583  13.669  0.1571  0.0555 -0.2798
10921DPG1   GM353861  20.790   0.484  13.424  0.1403 -0.1083 -0.0421
10921DPG1   GM453862  21.043   0.515  13.681 -0.1076 -0.3476 -0.1035
10921DPG1   GM553863  21.084   0.625  13.303  0.3214  0.0893  0.0658
10921DPG1   GM653864  21.264   0.539  13.537 -0.1752 -0.2814 -0.1970
10921DPG1   GM753865  21.482   0.307  13.485 -0.1824  0.2787  0.2608
10921DPG1   GM853866  21.378   0.593  13.062  0.0594 -0.1693 -0.1076
10921DPG1   GM953867  21.525   0.351  13.169 -0.1353  0.1624  0.1958
10921DPG1  GM1053868  21.790   0.166  13.337  0.0263  0.2645  0.0549
10921DPG1  GM1153869  21.888   0.484  13.124 -0.1471  0.1531 -0.1942
10921DPG1  GM1253870  21.943   0.193  13.119 -0.1429 -0.3758 -0.1547
10921DPG1  GM1353871  21.540   0.583  13.774 -0.0971  0.0701 -0.0823
10921DPG1  GM1453872  21.323   0.818  13.915 -0.0081  0.0662  0.0624
10921DPG1  GM1553873  21.434   0.888  13.572 -0.1152  0.1478  0.0439
10921DPG1  GM1653874  21.379   1.120  13.782 -0.1651 -0.2758  0.0830
10921DPG1  GM1753875  21.663   0.880  13.404 -0.3144 -0.3660  0.2416
10921DPG1   AM153876  20.039   0.675  13.470  0.0687 -0.2151  0.0124
10921DPG1   AM253877  20.222   1.004  13.492 -0.0210  0.0607  0.2114
10921DPG1   T1A53878  19.609   0.595  13.203 -0.0984 -0.0732  0.1467
10921DPG1   C2A53879  19.472   0.555  12.874  0.0497 -0.2650 -0.0255
10921DPG1   C3A53880  19.295   0.634  12.547  0.6056  0.2216  0.4442
10921DPG1   C1B53881  20.122   1.278  13.267  0.1136  0.0655 -0.2728
10921DPG1   C2B53882  19.993   1.514  12.934  0.1193  0.4655 -0.0886
10921DPG1   C3B53883  19.699   1.597  12.580  0.0574  0.0544  0.1514
10921DPG1   C4B53884  19.609   1.814  12.175  0.1451 -0.1095 -0.1248
10922DPG1   GM153885  27.657   4.066  10.185 -0.0973 -0.2003 -0.1569
10922DPG1   GM253886  27.435   4.262   9.955  0.0496 -0.0206 -0.1470
10922DPG1   GM353887  27.389   4.228  10.288  0.0923  0.0105  0.0082
10922DPG1   GM453888  27.138   4.433  10.161  0.1066  0.1467  0.0723
10922DPG1   GM553889  27.375   4.586  10.439 -0.0278  0.0237  0.2556
10922DPG1   GM653890  27.086   4.631  10.329  0.0678 -0.0784  0.3285
10922DPG1   GM753891  26.835   4.599  10.504  0.1780 -0.0070 -0.1425
10922DPG1   GM853892  27.234   4.818  10.758  0.3516 -0.0635 -0.3654
10922DPG1   GM953893  26.918   4.768  10.806  0.0904 -0.2125  0.0893
10922DPG1  GM1053894  26.566   4.839  10.749  0.0866 -0.2195  0.1037
10922DPG1  GM1153895  26.820   5.140  10.777  0.1370 -0.2819  0.3238
10922DPG1  GM1253896  26.577   5.064  10.894  0.1871 -0.0888 -0.1057
10922DPG1  GM1353897  26.768   4.744  10.215  0.0579 -0.0279  0.0244
10922DPG1  GM1453898  26.898   4.753   9.890  0.0243 -0.1396  0.0077
10922DPG1  GM1553899  27.021   5.012  10.119  0.2082 -0.1896 -0.0334
10922DPG1  GM1653900  26.867   5.082   9.861  0.1875  0.3449 -0.1165
10922DPG1  GM1753901  27.067   5.143  10.381 -0.1177  0.0295  0.2644
10922DPG1   AM153902  27.956   4.002   9.853  0.0337  0.0217 -0.1551
10922DPG1   AM253903  27.707   3.735   9.797 -0.1692  0.0814 -0.0558
10922DPG1   T1A53904  27.950   3.899   9.354 -0.0092  0.0970 -0.1392
10922DPG1   C2A53905  27.814   3.688   9.037  0.0119 -0.0080 -0.1667
10922DPG1   C3A53906  27.749   3.624   8.572  0.0082 -0.3409  0.0403
10922DPG1   C1B53907  27.656   3.534   9.512 -0.1757  0.2033  0.3106
10922DPG1   C2B53908  27.430   3.386   9.054  0.3497  0.2325 -0.1133
10922DPG1   C3B53909  27.392   3.277   8.718  0.0904  0.5152 -0.1507
10922DPG1   C4B53910  27.439   3.402   8.243  0.0608 -0.0356  0.1332
10923DPG1   GM153911  29.625   0.030  10.532  0.0331 -0.0947  0.0467
10923DPG1   GM253912  29.710  35.314  10.883 -0.1732  0.1354  0.1651
10923DPG1   GM353913  29.456  35.217  10.734  0.0041 -0.0973  0.0199
10923DPG1   GM453914  29.409  35.064  11.033 -0.1125  0.0901  0.1555
10923DPG1   GM553915  29.388  34.822  10.720 -0.0263  0.1741  0.0843
10923DPG1   GM653916  29.292  34.827  11.012 -0.0708  0.0569  0.2915
10923DPG1   GM753917  28.982  34.837  11.077 -0.2537  0.0591 -0.2062
10923DPG1   GM853918  29.109  34.498  10.703 -0.0218 -0.1415  0.0520
10923DPG1   GM953919  28.877  34.610  10.883  0.2105  0.1194  0.1160
10923DPG1  GM1053920  28.714  34.688  11.199  0.1012  0.0370  0.0804
10923DPG1  GM1153921  28.891  34.335  11.217  0.3193  0.1401 -0.0215
10923DPG1  GM1253922  28.596  34.450  11.170 -0.2471  0.1911  0.2030
10923DPG1  GM1353923  29.221  34.711  11.323 -0.1894  0.2740 -0.4064
10923DPG1  GM1453924  29.565  34.735  11.382 -0.2449  0.2123 -0.0437
10923DPG1  GM1553925  29.463  34.488  11.131 -0.0430  0.0314  0.0505
10923DPG1  GM1653926  29.703  34.424  11.419 -0.1356  0.2246  0.0050
10923DPG1  GM1753927  29.332  34.243  11.084 -0.0478 -0.3449 -0.0037
10923DPG1   AM153928  29.853   0.432  10.586  0.2581  0.0675 -0.1853
10923DPG1   AM253929  29.913   0.352  10.242  0.0277  0.2042  0.0752
10923DPG1   T1A53930  30.266   0.651  10.588 -0.0652 -0.0857  0.3568
10923DPG1   C2A53931  30.482   0.740  10.262  0.1922 -0.2295 -0.2096
10923DPG1   C3A53932  30.766   0.706   9.916 -0.2615 -0.0144  0.0942
10923DPG1   C1B53933  30.136   0.518   9.998 -0.0419 -0.3741  0.2987
10923DPG1   C2B53934  30.361   0.444   9.675  0.2009 -0.0107  0.1777
10923DPG1   C3B53935  30.528   0.637   9.356  0.1317 -0.0604 -0.1109
10923DPG1   C4B53936  30.443   1.041   9.088  0.1355 -0.2198 -0.2861
10924DPG1   GM153937  30.176   9.416   6.566  0.1580 -0.0496  0.3096
10924DPG1   GM253938  29.982   9.709   6.434  0.0614 -0.0733  0.3978
10924DPG1   GM353939  30.155   9.720   6.693  0.2165 -0.0122  0.2300
10924DPG1   GM453940  30.012  10.023   6.730  0.0663 -0.0087 -0.1594
10924DPG1   GM553941  30.394   9.946   6.800 -0.0248 -0.1485  0.1929
10924DPG1   GM653942  30.186  10.175   6.860 -0.0121  0.0597 -0.1337
10924DPG1   GM753943  30.127  10.249   7.156  0.1689 -0.3330  0.1838
10924DPG1   GM853944  30.623  10.141   7.036  0.1155 -0.3909  0.0140
10924DPG1   GM953945  30.440  10.223   7.306  0.5179 -0.2516  0.1769
10924DPG1  GM1053946  30.293  10.433   7.565  0.0720 -0.3661  0.0220
10924DPG1  GM1153947  30.668  10.491   7.455  0.0573 -0.0839  0.1171
10924DPG1  GM1253948  30.527  10.386   7.688 -0.0159 -0.0856  0.3014
10924DPG1  GM1353949  29.989  10.462   6.910  0.3102  0.0962  0.1796
10924DPG1  GM1453950  29.993  10.506   6.563  0.2434  0.0648  0.1749
10924DPG1  GM1553951  30.317  10.539   6.732  0.3087 -0.1112  0.0863
10924DPG1  GM1653952  30.225  10.706   6.429  0.1974 -0.1779 -0.0918
10924DPG1  GM1753953  30.457  10.620   6.948  0.0000 -0.1617 -0.0931
10924DPG1   AM153954  29.932   9.165   6.262  0.1952  0.0718 -0.1997
10924DPG1   AM253955  30.175   9.310   6.052 -0.0596 -0.1607  0.0174
10924DPG1   T1A53956  29.848   8.855   5.929 -0.1748  0.0880  0.0011
10924DPG1   C2A53957  29.895   8.614   5.534  0.1230  0.0290  0.3073
10924DPG1   C3A53958  30.038   8.281   5.358  0.0072 -0.0467 -0.2351
10924DPG1   C1B53959  30.156   9.247   5.712  0.2399  0.2241  0.1577
10924DPG1   C2B53960  30.225   8.999   5.441  0.0033  0.0586 -0.1576
10924DPG1   C3B53961  30.290   8.789   5.158 -0.1510 -0.1317 -0.2008
10924DPG1   C4B53962  30.193   8.786   4.836 -0.0512  0.0070 -0.0215
10925DPG1   GM153963  29.035   9.771   6.073 -0.2540  0.3738 -0.2155
10925DPG1   GM253964  28.955   9.878   6.424 -0.0434  0.0145 -0.0551
10925DPG1   GM353965  29.196  10.002   6.245  0.1378  0.0099 -0.0833
10925DPG1   GM453966  29.181  10.235   6.514 -0.2417 -0.3024 -0.3080
10925DPG1   GM553967  29.270  10.307   6.134  0.3818  0.0585 -0.1024
10925DPG1   GM653968  29.236  10.469   6.402 -0.0016 -0.2560 -0.0994
10925DPG1   GM753969  29.467  10.612   6.555 -0.2640 -0.1618  0.1838
10925DPG1   GM853970  29.453  10.614   6.034 -0.0654 -0.0168  0.1784
10925DPG1   GM953971  29.665  10.693   6.266  0.0867 -0.0315 -0.1217
10925DPG1  GM1053972  29.780  10.911   6.534 -0.0092 -0.0738 -0.0460
10925DPG1  GM1153973  29.684  11.088   6.195 -0.4125  0.1700  0.1914
10925DPG1  GM1253974  29.884  11.093   6.368 -0.0098 -0.1261 -0.1042
10925DPG1  GM1353975  29.123  10.664   6.669  0.0455 -0.1053  0.0410
10925DPG1  GM1453976  28.808  10.554   6.562  0.1112 -0.0625 -0.2004
10925DPG1  GM1553977  28.990  10.770   6.327  0.2292  0.0884  0.0283
10925DPG1  GM1653978  28.645  10.805   6.402  0.1255 -0.2867  0.1760
10925DPG1  GM1753979  29.172  10.953   6.260 -0.1470 -0.0749  0.1656
10925DPG1   AM153980  28.641   9.475   6.034 -0.2967  0.2411 -0.0657
10925DPG1   AM253981  28.679   9.685   5.725 -0.1815  0.4003  0.0129
10925DPG1   T1A53982  28.558   9.163   5.643  0.1347  0.0701 -0.0297
10925DPG1   C2A53983  28.521   8.793   5.353  0.0338  0.1157  0.1428
10925DPG1   C3A53984  28.364   8.507   4.985 -0.1471 -0.2502 -0.0339
10925DPG1   C1B53985  28.692   9.700   5.369  0.0436 -0.2524 -0.0227
10925DPG1   C2B53986  28.701   9.446   4.994  0.1970 -0.0366 -0.0589
10925DPG1   C3B53987  28.785   9.212   4.702  0.2215 -0.3086  0.0020
10925DPG1   C4B53988  29.076   9.045   4.553  0.1652 -0.0546  0.3011
10926DPG1   GM153989  18.887  31.007  15.745  0.0325  0.1293  0.0843
10926DPG1   GM253990  19.149  30.745  15.807 -0.2747 -0.2178 -0.0636
10926DPG1   GM353991  19.211  31.056  15.704  0.0768 -0.1005  0.1522
10926DPG1   GM453992  19.485  30.843  15.662 -0.0012  0.0373 -0.0268
10926DPG1   GM553993  19.470  31.224  15.558 -0.0301 -0.0087 -0.1909
10926DPG1   GM653994  19.659  30.969  15.507  0.1852 -0.3423 -0.1330
10926DPG1   GM753995  19.731  30.852  15.217  0.2329 -0.1950  0.2297
10926DPG1   GM853996  19.655  31.367  15.203 -0.1273 -0.2583 -0.2531
10926DPG1   GM953997  19.776  31.125  15.016  0.0767 -0.0396 -0.0552
10926DPG1  GM1053998  20.059  30.896  15.007  0.0953 -0.0239  0.1223
10926DPG1  GM1153999  20.109  31.266  14.881  0.0065 -0.0902 -0.1098
10926DPG1  GM1254000  20.166  31.004  14.787 -0.0213 -0.1527  0.0013
10926DPG1  GM1354001  19.914  30.719  15.529  0.0641  0.2480 -0.0225
10926DPG1  GM1454002  19.946  30.793  15.869  0.2482  0.1224 -0.0112
10926DPG1  GM1554003  20.025  31.067  15.638 -0.1030  0.2790  0.0497
10926DPG1  GM1654004  20.194  30.975  15.908  0.0876 -0.0462  0.1903
10926DPG1  GM1754005  20.115  31.154  15.400 -0.2119 -0.2638 -0.0236
10926DPG1   AM154006  18.580  30.650  15.802 -0.2559 -0.1383  0.2327
10926DPG1   AM254007  18.794  30.595  15.518  0.1386 -0.3318  0.2230
10926DPG1   T1A54008  18.243  30.460  15.571  0.0949 -0.0698 -0.1773
10926DPG1   C2A54009  17.981  30.216  15.379  0.0021  0.1566  0.0720
10926DPG1   C3A54010  17.592  30.138  15.248 -0.0169  0.2026  0.0163
10926DPG1   C1B54011  18.712  30.348  15.261 -0.2490  0.0641  0.1490
10926DPG1   C2B54012  18.361  30.174  15.051 -0.2335  0.2020 -0.0100
10926DPG1   C3B54013  18.046  30.069  14.810  0.1692  0.1681 -0.1917
10926DPG1   C4B54014  17.972  29.840  14.494  0.2507  0.0050 -0.1749
10927DPG1   GM154015  23.250  31.411  11.337  0.1058 -0.0607 -0.1008
10927DPG1   GM254016  23.034  31.164  11.156  0.0487 -0.2431  0.2131
10927DPG1   GM354017  23.353  31.119  11.224  0.1873 -0.1085  0.0941
10927DPG1   GM454018  23.278  30.860  10.980 -0.2545 -0.0392  0.1388
10927DPG1   GM554019  23.596  30.877  11.215 -0.1588 -0.2066  0.0212
10927DPG1   GM654020  23.502  30.720  10.964 -0.1330  0.1458  0.2094
10927DPG1   GM754021  23.625  30.728  10.700  0.0977  0.0933 -0.1287
10927DPG1   GM854022  23.961  30.748  11.097  0.3388  0.2560 -0.3390
10927DPG1   GM954023  23.948  30.759  10.783 -0.1648  0.0397  0.0166
10927DPG1  GM1054024  23.960  30.574  10.470  0.0331  0.1287 -0.0290
10927DPG1  GM1154025  24.206  30.408  10.731 -0.0686 -0.0548 -0.0493
10927DPG1  GM1254026  24.226  30.549  10.484 -0.0044 -0.2082  0.1433
10927DPG1  GM1354027  23.398  30.454  10.749 -0.0550  0.2096  0.0465
10927DPG1  GM1454028  23.210  30.376  11.034  0.1215 -0.0958  0.0802
10927DPG1  GM1554029  23.571  30.415  11.086  0.0882  0.3532 -0.0098
10927DPG1  GM1654030  23.406  30.247  11.274 -0.2176  0.2684  0.1011
10927DPG1  GM1754031  23.807  30.296  10.979 -0.0150  0.3550 -0.1279
10927DPG1   AM154032  22.902  31.681  11.254  0.1526 -0.1769  0.2060
10927DPG1   AM254033  23.060  31.733  10.957 -0.0279 -0.0778 -0.1846
10927DPG1   T1A54034  22.596  31.467  10.942 -0.3294 -0.3778 -0.1433
10927DPG1   C2A54035  22.255  31.368  10.690 -0.0095  0.0757  0.3482
10927DPG1   C3A54036  22.057  31.428  10.256 -0.3741 -0.2648  0.0536
10927DPG1   C1B54037  22.882  31.860  10.662 -0.1789 -0.1499  0.0669
10927DPG1   C2B54038  22.693  31.915  10.273  0.3184  0.0557  0.3373
10927DPG1   C3B54039  22.755  31.927   9.859 -0.2989  0.0612 -0.0747
10927DPG1   C4B54040  22.712  32.187   9.598 -0.1434  0.1178 -0.1480
10928DPG1   GM154041  25.093   2.496  11.031  0.2186 -0.1413  0.0320
10928DPG1   GM254042  25.345   2.518  11.308  0.0507  0.0631  0.1699
10928DPG1   GM354043  25.215   2.755  11.195  0.0515 -0.2463  0.3252
10928DPG1   GM454044  25.303   2.928  11.489  0.1112  0.2186  0.0064
10928DPG1   GM554045  24.976   3.020  11.287  0.1288  0.2865  0.0092
10928DPG1   GM654046  25.174   3.159  11.490 -0.2424  0.0274 -0.2777
10928DPG1   GM754047  25.401   3.403  11.471 -0.0073  0.1123 -0.0141
10928DPG1   GM854048  25.011   3.505  11.141  0.2054  0.5338 -0.1387
10928DPG1   GM954049  25.253   3.635  11.261 -0.1769 -0.0294  0.1999
10928DPG1  GM1054050  25.400   3.791  11.555 -0.1396  0.1257  0.0998
10928DPG1  GM1154051  25.060   3.939  11.419 -0.0894  0.1661  0.0171
10928DPG1  GM1254052  25.313   4.032  11.475  0.0544  0.0930 -0.2167
10928DPG1  GM1354053  25.266   3.280  11.799  0.0326 -0.0954  0.0609
10928DPG1  GM1454054  25.073   3.022  11.935 -0.1436  0.0409  0.0708
10928DPG1  GM1554055  24.891   3.269  11.733  0.0386  0.1075 -0.0122
10928DPG1  GM1654056  24.780   3.169  12.026  0.0856 -0.0045  0.3360
10928DPG1  GM1754057  24.889   3.505  11.614  0.3873 -0.0295  0.4004
10928DPG1   AM154058  25.235   2.072  10.895 -0.1437 -0.0752  0.2734
10928DPG1   AM254059  25.283   2.281  10.601 -0.1156 -0.0288  0.2810
10928DPG1   T1A54060  25.086   1.705  10.667  0.2816  0.1942 -0.1593
10928DPG1   C2A54061  24.760   1.435  10.736  0.1708  0.0422  0.1956
10928DPG1   C3A54062  24.300   1.296  10.743  0.0153 -0.2587  0.1351
10928DPG1   C1B54063  25.094   2.246  10.307 -0.1579 -0.2092 -0.1302
10928DPG1   C2B54064  24.956   2.191   9.963  0.0825  0.1288 -0.0902
10928DPG1   C3B54065  24.715   1.759   9.793 -0.2300  0.0477  0.0953
10928DPG1   C4B54066  24.510   1.374   9.841  0.0413  0.0991  0.2442
10929DPG1   GM154067   2.767   8.977  14.176 -0.0407  0.0433  0.0303
10929DPG1   GM254068   3.040   9.187  14.028 -0.0107  0.0491  0.0934
10929DPG1   GM354069   2.732   9.294  14.091 -0.2474 -0.0711 -0.3216
10929DPG1   GM454070   2.812   9.564  13.884 -0.1863 -0.3087 -0.0572
10929DPG1   GM554071   2.607   9.541  14.222  0.2236 -0.3909  0.1891
10929DPG1   GM654072   2.630   9.733  13.975  0.1674  0.0403  0.0157
10929DPG1   GM754073   2.373   9.773  13.799 -0.0523 -0.0200  0.0018
10929DPG1   GM854074   2.296   9.782  14.314 -0.1033  0.0041 -0.0060
10929DPG1   GM954075   2.129   9.806  14.056 -0.2120  0.0781  0.0707
10929DPG1  GM1054076   1.992   9.938  13.746 -0.2564 -0.1264  0.0019
10929DPG1  GM1154077   1.993  10.202  14.040 -0.1339 -0.1930  0.0615
10929DPG1  GM1254078   1.796  10.096  13.838 -0.1668  0.0378 -0.0866
10929DPG1  GM1354079   2.667   9.970  13.728 -0.2780 -0.2195  0.0627
10929DPG1  GM1454080   2.988  10.019  13.857 -0.1488 -0.1583 -0.2781
10929DPG1  GM1554081   2.711  10.116  14.077  0.0674 -0.0716 -0.0411
10929DPG1  GM1654082   2.937  10.332  14.019  0.0370 -0.0327  0.1897
10929DPG1  GM1754083   2.495  10.236  14.126  0.2084  0.0763 -0.1648
10929DPG1   AM154084   2.992   8.519  14.255 -0.2348 -0.3434  0.1032
10929DPG1   AM254085   3.203   8.737  14.487 -0.1338  0.0708  0.0790
10929DPG1   T1A54086   3.365   8.261  14.392 -0.2192 -0.1889 -0.0024
10929DPG1   C2A54087   3.738   8.123  14.254  0.1315  0.2421  0.3160
10929DPG1   C3A54088   4.034   8.101  14.257  0.2699  0.1673  0.0597
10929DPG1   C1B54089   3.569   8.692  14.483  0.2715  0.0179  0.1726
10929DPG1   C2B54090   3.955   8.508  14.521  0.0232 -0.1768 -0.1916
10929DPG1   C3B54091   4.330   8.406  14.445  0.1027 -0.0368 -0.2211
10929DPG1   C4B54092   4.662   8.334  14.051 -0.2931  0.1491 -0.2425
10930DPG1   GM154093  20.915  32.288  12.963 -0.0645 -0.2373  0.1469
10930DPG1   GM254094  21.141  32.087  13.184  0.1029  0.0509  0.2406
10930DPG1   GM354095  20.846  32.173  13.264 -0.2092  0.1075  0.2477
10930DPG1   GM454096  20.954  32.000  13.546 -0.4282  0.0435  0.1633
10930DPG1   GM554097  20.595  31.965  13.383 -0.2257 -0.1541 -0.2478
10930DPG1   GM654098  20.737  31.902  13.663 -0.3395 -0.2030  0.1239
10930DPG1   GM754099  20.659  32.109  13.900  0.1037 -0.0516  0.2078
10930DPG1   GM854100  20.289  31.799  13.703  0.0792 -0.0144  0.1949
10930DPG1   GM954101  20.341  32.038  13.948 -0.0583  0.0075 -0.0794
10930DPG1  GM1054102  20.479  32.191  14.248 -0.0142  0.0045 -0.0981
10930DPG1  GM1154103  20.433  31.799  14.255  0.0479 -0.0113 -0.4463
10930DPG1  GM1254104  20.310  32.036  14.387 -0.0627 -0.1748 -0.3539
10930DPG1  GM1354105  20.871  31.783  13.958 -0.2328  0.0913 -0.1869
10930DPG1  GM1454106  21.080  31.555  13.794 -0.1377 -0.0161  0.0803
10930DPG1  GM1554107  20.720  31.487  13.772 -0.1246 -0.0369 -0.0731
10930DPG1  GM1654108  20.918  31.258  13.730  0.3108 -0.1766  0.1631
10930DPG1  GM1754109  20.501  31.412  13.948 -0.2811 -0.2052 -0.1420
10930DPG1   AM154110  20.980  32.259  12.517 -0.1198 -0.2543  0.2749
10930DPG1   AM254111  20.706  32.066  12.552 -0.4428 -0.0801 -0.0383
10930DPG1   T1A54112  20.868  32.479  12.109  0.0987 -0.1730  0.2118
10930DPG1   C2A54113  20.596  32.477  11.703 -0.2220  0.0722 -0.2483
10930DPG1   C3A54114  20.345  32.375  11.266 -0.1314  0.0566  0.3978
10930DPG1   C1B54115  20.474  31.912  12.318 -0.0179 -0.1842  0.0700
10930DPG1   C2B54116  20.129  31.785  12.102  0.0460 -0.0866  0.1697
10930DPG1   C3B54117  19.809  31.822  12.000  0.2202  0.0576  0.2488
10930DPG1   C4B54118  19.498  32.078  11.694  0.1015  0.2153  0.2567
10931DPG1   GM154119  21.393  33.805  12.686 -0.0617 -0.0270  0.0484
10931DPG1   GM254120  21.169  34.100  12.633  0.0263  0.0065 -0.1417
10931DPG1   GM354121  21.255  33.991  12.920 -0.0029  0.2017 -0.0973
10931DPG1   GM454122  21.074  34.257  13.054  0.2690 -0.2990  0.1208
10931DPG1   GM554123  21.295  34.028  13.291  0.3627  0.0048  0.3303
10931DPG1   GM654124  21.045  34.230  13.316  0.1100 -0.0198  0.1342
10931DPG1   GM754125  20.747  34.189  13.431  0.0697  0.0788 -0.0365
10931DPG1   GM854126  21.105  33.955  13.729  0.3350  0.1384 -0.3060
10931DPG1   GM954127  20.803  33.937  13.656  0.0188 -0.1653  0.1794
10931DPG1  GM1054128  20.473  34.087  13.689  0.0966  0.0492 -0.0109
10931DPG1  GM1154129  20.669  34.003  14.021 -0.3314  0.1946  0.2827
10931DPG1  GM1254130  20.448  33.905  13.884  0.1603  0.1975  0.1369
10931DPG1  GM1354131  20.855  34.539  13.411 -0.0499 -0.2166  0.0944
10931DPG1  GM1454132  21.112  34.720  13.257 -0.3205  0.2703  0.2045
10931DPG1  GM1554133  21.212  34.510  13.540  0.0308  0.0852 -0.0533
10931DPG1  GM1654134  21.346  34.770  13.475 -0.1215 -0.1879 -0.4370
10931DPG1  GM1754135  21.157  34.436  13.782 -0.0516  0.1023 -0.0010
10931DPG1   AM154136  21.499  33.766  12.222  0.1772 -0.2215  0.2256
10931DPG1   AM254137  21.153  33.785  12.270  0.1424 -0.0775  0.1326
10931DPG1   T1A54138  21.377  33.873  11.793 -0.1629  0.0946  0.1596
10931DPG1   C2A54139  21.112  33.849  11.398 -0.3259 -0.0933 -0.1512
10931DPG1   C3A54140  21.000  33.738  11.004  0.0723 -0.1801  0.0253
10931DPG1   C1B54141  20.884  33.843  12.036 -0.1502  0.0530 -0.1786
10931DPG1   C2B54142  20.682  33.858  11.644  0.4433  0.1129 -0.0038
10931DPG1   C3B54143  20.515  33.858  11.359 -0.1061  0.1920  0.3196
10931DPG1   C4B54144  20.516  33.798  10.859 -0.0311 -0.1432 -0.0032
10932DPG1   GM154145  19.878   1.502  14.191  0.0421  0.1038  0.0102
10932DPG1   GM254146  20.157   1.587  14.426 -0.0017  0.3176 -0.0137
10932DPG1   GM354147  20.122   1.303  14.290  0.1719  0.0790 -0.3518
10932DPG1   GM454148  20.407   1.219  14.459 -0.0642  0.0731  0.1859
10932DPG1   GM554149  20.305   1.130  14.086  0.1799  0.0571  0.1218
10932DPG1   GM654150  20.454   0.994  14.325  0.1777  0.3071 -0.1304
10932DPG1   GM754151  20.391   0.724  14.463 -0.2422  0.5291  0.0877
10932DPG1   GM854152  20.276   0.753  13.955  0.0108 -0.2147 -0.0180
10932DPG1   GM954153  20.247   0.581  14.209  0.1330  0.0313  0.2652
10932DPG1  GM1054154  20.301   0.313  14.449 -0.0604 -0.1274  0.1333
10932DPG1  GM1154155  20.478   0.294  14.097 -0.2190  0.0457  0.0430
10932DPG1  GM1254156  20.298   0.132  14.252  0.1501 -0.0618  0.0689
10932DPG1  GM1354157  20.716   0.880  14.552 -0.0121 -0.0192 -0.0737
10932DPG1  GM1454158  20.881   1.171  14.450  0.1982 -0.0796  0.0904
10932DPG1  GM1554159  20.813   0.926  14.186 -0.0711  0.1614 -0.0676
10932DPG1  GM1654160  21.077   1.119  14.193 -0.4372 -0.0742  0.0858
10932DPG1  GM1754161  20.806   0.659  14.113 -0.3869  0.0791 -0.1966
10932DPG1   AM154162  19.828   1.873  13.923 -0.2032 -0.0260 -0.0060
10932DPG1   AM254163  20.092   2.063  14.102  0.0083  0.2323  0.0478
10932DPG1   T1A54164  19.730   2.301  13.683  0.1420 -0.3667 -0.0583
10932DPG1   C2A54165  19.505   2.616  13.434  0.0388 -0.1735  0.0056
10932DPG1   C3A54166  19.382   2.774  13.151 -0.1700  0.0952 -0.2757
10932DPG1   C1B54167  19.983   2.422  14.127  0.0453  0.3285  0.1748
10932DPG1   C2B54168  19.920   2.765  13.797  0.0939  0.1378 -0.1010
10932DPG1   C3B54169  19.830   3.005  13.532 -0.2591 -0.2953 -0.1593
10932DPG1   C4B54170  19.901   3.137  13.204  0.1824 -0.1287  0.0023
10933DPG1   GM154171  27.186   8.104   8.096  0.0718  0.0223  0.1442
10933DPG1   GM254172  27.405   8.018   8.388 -0.0307  0.1392  0.2561
10933DPG1   GM354173  27.516   8.090   8.088  0.0806  0.1266  0.2945
10933DPG1   GM454174  27.812   8.036   8.275 -0.3009  0.1396  0.1962
10933DPG1   GM554175  27.746   8.398   8.130  0.0356  0.0863 -0.0967
10933DPG1   GM654176  27.999   8.214   8.216 -0.1447 -0.0579  0.0882
10933DPG1   GM754177  28.197   8.115   8.027 -0.0815 -0.0901  0.0014
10933DPG1   GM854178  27.987   8.578   7.913 -0.0070 -0.0496  0.0285
10933DPG1   GM954179  28.209   8.368   7.787 -0.0106 -0.0632  0.0322
10933DPG1  GM1054180  28.541   8.219   7.797  0.0533  0.0490 -0.3332
10933DPG1  GM1154181  28.524   8.597   7.913  0.0150  0.0472 -0.3334
10933DPG1  GM1254182  28.601   8.442   7.661 -0.1883  0.0607 -0.4237
10933DPG1  GM1354183  28.299   8.108   8.354  0.0468 -0.1062 -0.0862
10933DPG1  GM1454184  28.110   8.136   8.647  0.3117 -0.1664  0.0916
10933DPG1  GM1554185  28.183   8.451   8.473  0.1575 -0.1301  0.0923
10933DPG1  GM1654186  28.294   8.407   8.790 -0.2249  0.0270 -0.3119
10933DPG1  GM1754187  28.284   8.639   8.364  0.1381 -0.2649 -0.0293
10933DPG1   AM154188  26.785   8.386   8.075  0.1911  0.2576 -0.2809
10933DPG1   AM254189  26.720   8.012   8.061  0.3628 -0.2842 -0.1004
10933DPG1   T1A54190  26.512   8.417   7.673  0.2021 -0.0520 -0.1281
10933DPG1   C2A54191  26.334   8.202   7.377 -0.1231  0.1226  0.0706
10933DPG1   C3A54192  26.134   8.071   7.061  0.1992  0.1888  0.0729
10933DPG1   C1B54193  26.542   7.809   7.801 -0.2335 -0.1703  0.2546
10933DPG1   C2B54194  26.325   7.709   7.575 -0.0030  0.2285 -0.2313
10933DPG1   C3B54195  26.201   7.478   7.329  0.2136  0.0285 -0.1347
10933DPG1   C4B54196  26.280   7.184   7.046  0.0177  0.1837 -0.2337
10934DPG3   GM154197  19.182  30.217  15.968 -0.2842  0.0946 -0.0709
10934DPG3   GM254198  19.139  30.070  15.626  0.1141 -0.0533 -0.0603
10934DPG3   GM354199  19.279  30.342  15.679  0.0157  0.0504  0.0090
10934DPG3   GM454200  19.322  30.290  15.336 -0.0788  0.0701 -0.2107
10934DPG3   GM554201  19.617  30.351  15.593 -0.2625  0.1647 -0.0203
10934DPG3   GM654202  19.551  30.420  15.299  0.0147  0.1279  0.5000
10934DPG3  GM1354203  19.641  30.435  14.946  0.0182  0.0068  0.0286
10934DPG3  GM1454204  19.556  30.097  14.983 -0.1010  0.0491  0.1498
10934DPG3  GM1554205  19.846  30.212  15.177 -0.1089  0.0352  0.1697
10934DPG3  GM1654206  19.828  29.969  14.971  0.2395 -0.2664 -0.0070
10934DPG3  GM1754207  20.071  30.391  15.207  0.0957  0.1142  0.1582
10934DPG3   AM154208  18.982  29.775  15.964 -0.2135  0.0319 -0.0013
10934DPG3   AM254209  18.696  30.065  15.959  0.2512 -0.1501  0.1052
10934DPG3   T1A54210  18.561  29.582  15.961  0.0843 -0.2817 -0.1826
10934DPG3   C2A54211  18.174  29.593  15.890 -0.0231  0.1498  0.0387
10934DPG3   C3A54212  17.983  29.479  15.644 -0.1213 -0.0221  0.0300
10934DPG3   C1B54213  18.451  30.016  15.688 -0.1735 -0.0724 -0.1014
10934DPG3   C2B54214  18.306  29.805  15.457 -0.0979  0.1580  0.1972
10934DPG3   C3B54215  17.965  29.694  15.206  0.0167 -0.0818 -0.2967
10934DPG3   C4B54216  17.573  29.706  14.852 -0.0435 -0.1899  0.2920
10935DPG3   GM154217  32.182  30.210  11.338  0.2560 -0.1959  0.0714
10935DPG3   GM254218  32.035  29.967  11.583  0.2257 -0.0095  0.2396
10935DPG3   GM354219  31.870  30.105  11.359  0.1765  0.0501  0.1431
10935DPG3   GM454220  31.597  29.941  11.519  0.0570 -0.0234  0.0837
10935DPG3   GM554221  31.720  29.799  11.170 -0.1764 -0.1733  0.0613
10935DPG3   GM654222  31.463  29.775  11.360 -0.1287 -0.0293  0.2449
10935DPG3  GM1354223  31.194  29.640  11.587 -0.1099 -0.0213  0.1730
10935DPG3  GM1454224  31.480  29.473  11.700  0.0203  0.1539  0.1044
10935DPG3  GM1554225  31.372  29.394  11.358 -0.1357 -0.0687  0.2039
10935DPG3  GM1654226  31.396  29.160  11.604  0.2742 -0.0437 -0.1373
10935DPG3  GM1754227  31.214  29.380  11.157  0.1428  0.1372 -0.1512
10935DPG3   AM154228  32.544  29.882  11.225 -0.2834 -0.2621 -0.1214
10935DPG3   AM254229  32.716  30.185  11.223  0.3135 -0.5036 -0.2023
10935DPG3   T1A54230  32.880  29.859  10.883  0.3390  0.1983  0.3140
10935DPG3   C2A54231  33.177  29.998  10.560 -0.1738 -0.2514  0.2530
10935DPG3   C3A54232  33.374  30.194  10.291 -0.1721  0.2786  0.2366
10935DPG3   C1B54233  33.049  30.312  11.075  0.1819  0.3136 -0.0114
10935DPG3   C2B54234  33.427  30.375  10.767 -0.0507  0.1645  0.2313
10935DPG3   C3B54235  33.797  30.275  10.611 -0.0304  0.1857 -0.1713
10935DPG3   C4B54236  33.787  30.491  10.269  0.5058 -0.1658 -0.0833
10936DPG3   GM154237  28.748  34.875  10.508 -0.0000  0.0678 -0.1611
10936DPG3   GM254238  28.441  34.703  10.378 -0.0407 -0.0261  0.0561
10936DPG3   GM354239  28.517  34.748  10.708  0.3185 -0.2959 -0.0174
10936DPG3   GM454240  28.221  34.564  10.694 -0.0899  0.0440 -0.0361
10936DPG3   GM554241  28.232  34.809  11.004  0.2097  0.1348 -0.1176
10936DPG3   GM654242  28.077  34.556  10.916  0.2169  0.0682  0.1661
10936DPG3  GM1354243  27.766  34.362  10.893  0.0760  0.1119  0.1050
10936DPG3  GM1454244  27.724  34.611  10.650  0.6068  0.1415  0.0386
10936DPG3  GM1554245  27.717  34.724  10.999 -0.1547  0.0994  0.0456
10936DPG3  GM1654246  27.473  34.793  10.772 -0.1791 -0.0278  0.0929
10936DPG3  GM1754247  27.665  34.709  11.241 -0.1589 -0.2320 -0.2945
10936DPG3   AM154248  28.723  35.152  10.120 -0.1050  0.0430  0.1256
10936DPG3   AM254249  28.381  35.035  10.015 -0.4974  0.1659 -0.0208
10936DPG3   T1A54250  28.626  35.329   9.689 -0.0279 -0.1804 -0.4904
10936DPG3   C2A54251  28.742   0.140   9.267 -0.1404 -0.5156 -0.0621
10936DPG3   C3A54252  28.831   0.451   8.930 -0.0433  0.2843  0.1169
10936DPG3   C1B54253  28.233  35.001   9.686 -0.2502 -0.0159  0.0456
10936DPG3   C2B54254  28.354  35.117   9.305 -0.1919 -0.2623  0.0055
10936DPG3   C3B54255  28.295  35.220   8.853  0.1847 -0.2156  0.1565
10936DPG3   C4B54256  28.405  35.240   8.407  0.0286  0.1921  0.2537
10937DPG3   GM154257  26.143  11.103   7.038  0.0204  0.1974 -0.0772
10937DPG3   GM254258  26.497  11.042   6.931 -0.0526 -0.0242 -0.1945
10937DPG3   GM354259  26.394  11.043   7.245 -0.2103 -0.2555  0.0787
10937DPG3   GM454260  26.731  11.002   7.224  0.0173 -0.1389 -0.2643
10937DPG3   GM554261  26.524  10.742   7.438  0.3200 -0.0630  0.1272
10937DPG3   GM654262  26.799  10.882   7.450 -0.2750  0.1063 -0.0419
10937DPG3  GM1354263  27.167  10.862   7.437  0.0244  0.0628 -0.1938
10937DPG3  GM1454264  27.104  10.638   7.175  0.0119 -0.0344 -0.1080
10937DPG3  GM1554265  27.013  10.522   7.511 -0.2200  0.1949 -0.0904
10937DPG3  GM1654266  27.139  10.330   7.304 -0.2093 -0.0997 -0.2674
10937DPG3  GM1754267  26.994  10.513   7.764  0.3834 -0.0337  0.0012
10937DPG3   AM154268  25.955  11.082   6.583 -0.2936 -0.0699  0.0303
10937DPG3   AM254269  26.259  11.121   6.370 -0.0351  0.0167  0.0632
10937DPG3   T1A54270  25.596  10.959   6.294 -0.0507  0.0889 -0.0495
10937DPG3   C2A54271  25.329  10.977   5.975  0.1376  0.3469  0.2350
10937DPG3   C3A54272  24.937  11.041   5.660  0.5460 -0.1257 -0.0751
10937DPG3   C1B54273  26.294  10.912   6.049 -0.3461  0.1743 -0.5756
10937DPG3   C2B54274  26.135  10.612   5.776  0.0027 -0.0800  0.0319
10937DPG3   C3B54275  25.846  10.375   5.388  0.1383 -0.0972 -0.0278
10937DPG3   C4B54276  25.683  10.403   4.934  0.1896 -0.1831  0.5647
10938DPG3   GM154277  21.295  32.833  12.489 -0.2970 -0.1490  0.0561
10938DPG3   GM254278  21.168  32.642  12.786  0.3297  0.2616  0.6047
10938DPG3   GM354279  21.387  32.529  12.579 -0.0042  0.0013  0.2740
10938DPG3   GM454280  21.387  32.317  12.852  0.0637  0.0598  0.1238
10938DPG3   GM554281  21.730  32.490  12.756 -0.0607  0.2250 -0.0261
10938DPG3   GM654282  21.629  32.211  12.867  0.0070 -0.0929 -0.0290
10938DPG3  GM1354283  21.642  31.928  13.074 -0.0503 -0.0977  0.0723
10938DPG3  GM1454284  21.588  32.143  13.345 -0.0218  0.0575 -0.0442
10938DPG3  GM1554285  21.904  32.190  13.164 -0.1050  0.0494 -0.1916
10938DPG3  GM1654286  21.856  32.164  13.460 -0.1725 -0.2213 -0.0154
10938DPG3  GM1754287  22.139  32.144  13.022  0.0756 -0.0912 -0.0606
10938DPG3   AM154288  20.905  32.969  12.329 -0.2187  0.4079  0.0033
10938DPG3   AM254289  21.129  33.276  12.217  0.1551 -0.0907  0.2686
10938DPG3   T1A54290  20.544  32.853  12.047 -0.1101 -0.0505 -0.2200
10938DPG3   C2A54291  20.217  32.781  11.712 -0.1550 -0.1304  0.1200
10938DPG3   C3A54292  19.843  32.680  11.579  0.2088 -0.0094  0.5361
10938DPG3   C1B54293  21.125  33.427  11.877 -0.0785 -0.0519 -0.3194
10938DPG3   C2B54294  20.886  33.390  11.470 -0.2982  0.1450 -0.0392
10938DPG3   C3B54295  20.724  33.313  11.059 -0.0788  0.4215  0.1261
10938DPG3   C4B54296  20.483  33.235  10.884 -0.2719 -0.1532 -0.1804
10939DPG3   GM154297   1.337   6.845  12.331 -0.3800 -0.0540 -0.1599
10939DPG3   GM254298   1.282   6.616  12.623 -0.1860  0.2037  0.0797
10939DPG3   GM354299   1.248   6.951  12.630  0.0014  0.0502 -0.0814
10939DPG3   GM454300   1.203   6.906  12.967  0.1732 -0.0994  0.0194
10939DPG3   GM554301   1.186   7.235  12.748  0.0890 -0.0748  0.0622
10939DPG3   GM654302   1.181   7.154  13.057  0.1503 -0.0273 -0.1828
10939DPG3  GM1354303   1.055   7.172  13.382 -0.0961 -0.0091 -0.0522
10939DPG3  GM1454304   0.749   7.054  13.260 -0.0344 -0.0411 -0.1757
10939DPG3  GM1554305   0.862   7.376  13.125 -0.0194 -0.0232 -0.1210
10939DPG3  GM1654306   0.574   7.339  13.232 -0.2378 -0.0078 -0.0170
10939DPG3  GM1754307   0.943   7.644  13.164 -0.0501 -0.2566  0.0749
10939DPG3   AM154308   1.045   6.735  11.935  0.1277 -0.0991  0.2291
10939DPG3   AM254309   1.394   6.656  11.869 -0.2033  0.0825 -0.0505
10939DPG3   T1A54310   0.912   6.748  11.495 -0.2755  0.1133 -0.2212
10939DPG3   C2A54311   1.286   6.612  11.151 -0.1458 -0.3444 -0.0752
10939DPG3   C3A54312   1.578   6.554  10.868 -0.0391  0.0216  0.0707
10939DPG3   C1B54313   1.647   6.631  11.602 -0.0771 -0.6153  0.1994
10939DPG3   C2B54314   2.040   6.503  11.277  0.2545  0.2327  0.1067
10939DPG3   C3B54315   1.977   6.278  10.994  0.0271 -0.0765  0.0740
10939DPG3   C4B54316   2.007   6.485  10.530  0.0965  0.4148  0.0663
10940DPG3   GM154317  21.593   3.388  14.355 -0.0111  0.1531  0.2589
10940DPG3   GM254318  21.812   3.171  14.568  0.1335  0.1685  0.1274
10940DPG3   GM354319  21.587   3.371  14.684 -0.1193  0.1254  0.2556
10940DPG3   GM454320  21.735   3.288  14.988 -0.1059 -0.1318  0.0614
10940DPG3   GM554321  21.371   3.163  14.896 -0.1629  0.2042 -0.1753
10940DPG3   GM654322  21.542   3.211  15.152 -0.0454 -0.3596  0.0279
10940DPG3  GM1354323  21.724   3.106  15.445 -0.1639  0.1676  0.3029
10940DPG3  GM1454324  21.907   2.929  15.205  0.0192  0.1082  0.4852
10940DPG3  GM1554325  21.555   2.830  15.243 -0.0488  0.2109  0.1462
10940DPG3  GM1654326  21.843   2.602  15.253 -0.0690  0.0263 -0.2177
10940DPG3  GM1754327  21.346   2.766  15.397  0.1753  0.3547  0.2746
10940DPG3   AM154328  21.778   3.299  13.981  0.1369 -0.0610  0.4539
10940DPG3   AM254329  21.468   3.141  13.863 -0.0046  0.4427  0.0556
10940DPG3   T1A54330  21.994   3.646  13.768  0.0721  0.0595  0.0596
10940DPG3   C2A54331  22.017   4.022  13.872 -0.0664 -0.3401 -0.1736
10940DPG3   C3A54332  21.738   4.372  13.813 -0.4952 -0.1696  0.1013
10940DPG3   C1B54333  21.236   3.332  13.685 -0.0477  0.1975  0.0072
10940DPG3   C2B54334  20.854   3.332  13.540  0.0666  0.2140  0.0761
10940DPG3   C3B54335  20.622   3.663  13.401 -0.1117  0.2666 -0.1664
10940DPG3   C4B54336  20.437   3.731  12.887 -0.1974  0.2201  0.2517
10941DPG3   GM154337  24.561   1.827  11.352  0.0757  0.0950 -0.0596
10941DPG3   GM254338  24.497   2.160  11.514 -0.1818  0.1600 -0.2911
10941DPG3   GM354339  24.616   1.938  11.658 -0.5478 -0.0150  0.0993
10941DPG3   GM454340  24.656   2.212  11.893 -0.0258 -0.1188 -0.0229
10941DPG3   GM554341  24.946   1.944  11.884 -0.0507 -0.1528  0.1597
10941DPG3   GM654342  24.799   2.148  12.106  0.1019 -0.0117 -0.0760
10941DPG3  GM1354343  24.749   2.350  12.393 -0.1473  0.1915 -0.0133
10941DPG3  GM1454344  24.947   2.568  12.204 -0.0017  0.0492 -0.0255
10941DPG3  GM1554345  25.104   2.250  12.298 -0.2107 -0.0476 -0.0008
10941DPG3  GM1654346  25.256   2.489  12.208 -0.1629 -0.1015 -0.0120
10941DPG3  GM1754347  25.164   2.043  12.411  0.2512  0.0120  0.2155
10941DPG3   AM154348  24.775   2.000  10.995 -0.0241 -0.3666  0.0378
10941DPG3   AM254349  24.524   2.242  10.960 -0.2910 -0.1632  0.1383
10941DPG3   T1A54350  24.736   1.998  10.540 -0.1312 -0.1377 -0.0076
10941DPG3   C2A54351  24.515   2.078  10.094 -0.0012  0.3641  0.1265
10941DPG3   C3A54352  24.171   2.039   9.881 -0.1355  0.0644  0.0696
10941DPG3   C1B54353  24.290   2.240  10.700  0.0800 -0.1361  0.1314
10941DPG3   C2B54354  24.109   2.480  10.368 -0.1100 -0.1739 -0.1383
10941DPG3   C3B54355  23.918   2.581   9.984  0.2455 -0.1415 -0.0266
10941DPG3   C4B54356  23.698   2.744   9.679  0.0336 -0.1046  0.0104
10942DPG3   GM154357  23.918   4.366  12.515  0.1128  0.0119 -0.1429
10942DPG3   GM254358  24.217   4.484  12.707  0.0557 -0.1901  0.0731
10942DPG3   GM354359  24.175   4.537  12.398  0.2060 -0.0421 -0.0170
10942DPG3   GM454360  24.459   4.705  12.466 -0.2940 -0.0521  0.0323
10942DPG3   GM554361  24.165   4.921  12.311 -0.3589 -0.0401  0.1719
10942DPG3   GM654362  24.474   4.925  12.318 -0.2096 -0.1048 -0.0381
10942DPG3  GM1354363  24.766   5.080  12.377 -0.0679 -0.0972 -0.2195
10942DPG3  GM1454364  24.591   5.234  12.638  0.2447  0.0116 -0.0709
10942DPG3  GM1554365  24.494   5.336  12.299  0.0861  0.1404  0.0122
10942DPG3  GM1654366  24.507   5.554  12.611 -0.2176 -0.0407 -0.0071
10942DPG3  GM1754367  24.497   5.407  12.029 -0.1963  0.1384  0.1048
10942DPG3   AM154368  23.531   4.444  12.739  0.2571 -0.2966  0.1890
10942DPG3   AM254369  23.447   4.205  12.464 -0.0955 -0.0565 -0.2782
10942DPG3   T1A54370  23.126   4.630  12.619  0.2443 -0.2056 -0.2206
10942DPG3   C2A54371  22.800   4.804  12.439 -0.1856  0.1018  0.0907
10942DPG3   C3A54372  22.601   5.090  12.295 -0.0756  0.0247  0.1783
10942DPG3   C1B54373  23.113   4.198  12.302 -0.0582 -0.0672 -0.2114
10942DPG3   C2B54374  22.688   4.386  12.118  0.1299 -0.2012  0.3453
10942DPG3   C3B54375  22.384   4.662  12.038 -0.1208 -0.0147  0.1422
10942DPG3   C4B54376  22.392   5.062  11.822 -0.1049  0.3061 -0.2577
10943DPG3   GM154377  22.075  31.414  12.182  0.0952  0.0194  0.0590
10943DPG3   GM254378  22.143  31.770  12.086  0.0263  0.0596  0.1589
10943DPG3   GM354379  22.369  31.560  12.151  0.0869  0.0099 -0.0638
10943DPG3   GM454380  22.581  31.825  12.082  0.1545 -0.0447  0.2033
10943DPG3   GM554381  22.714  31.537  12.318  0.3195 -0.1134  0.0276
10943DPG3   GM654382  22.817  31.823  12.202  0.2743 -0.0258 -0.0311
10943DPG3  GM1354383  23.047  32.039  12.009 -0.0910  0.1149  0.0608
10943DPG3  GM1454384  23.005  31.780  11.777 -0.1113  0.1469  0.0293
10943DPG3  GM1554385  23.160  31.685  12.096  0.0147  0.1242 -0.0385
10943DPG3  GM1654386  23.218  31.498  11.812 -0.4287 -0.2805 -0.2863
10943DPG3  GM1754387  23.325  31.742  12.284 -0.0563 -0.0315  0.0172
10943DPG3   AM154388  21.603  31.332  12.254  0.2111 -0.2839 -0.0485
10943DPG3   AM254389  21.451  31.633  12.140  0.2187 -0.1187  0.1034
10943DPG3   T1A54390  21.311  31.161  11.929  0.2737  0.1130  0.0969
10943DPG3   C2A54391  21.092  30.964  11.579 -0.2651 -0.1431  0.4018
10943DPG3   C3A54392  20.819  30.963  11.261  0.1810  0.2317 -0.2293
10943DPG3   C1B54393  21.394  31.687  11.757  0.0209 -0.2004 -0.1556
10943DPG3   C2B54394  20.992  31.606  11.452  0.0361  0.2024 -0.1950
10943DPG3   C3B54395  20.657  31.440  11.173  0.0629 -0.0597  0.2543
10943DPG3   C4B54396  20.470  31.595  10.822  0.0843  0.3653  0.0074
10944DPG3   GM154397  20.732  35.004  13.278  0.1125  0.0579  0.0714
10944DPG3   GM254398  20.919  35.007  13.604  0.3213 -0.0904 -0.0463
10944DPG3   GM354399  20.600  35.030  13.580 -0.0410  0.1590 -0.0039
10944DPG3   GM454400  20.647  35.052  13.938  0.0360  0.0537  0.2658
10944DPG3   GM554401  20.300  34.890  13.838 -0.1587  0.4700  0.2563
10944DPG3   GM654402  20.434  35.022  14.093 -0.0222  0.1280  0.2003
10944DPG3  GM1354403  20.505  35.058  14.436 -0.3023 -0.0352  0.0442
10944DPG3  GM1454404  20.711  34.784  14.365 -0.0985  0.1304 -0.0096
10944DPG3  GM1554405  20.350  34.720  14.353 -0.0521 -0.1281 -0.0506
10944DPG3  GM1654406  20.578  34.486  14.452  0.0231 -0.1073 -0.2369
10944DPG3  GM1754407  20.093  34.736  14.448 -0.1440 -0.1794 -0.0662
10944DPG3   AM154408  20.911  34.949  12.867  0.0641 -0.0194  0.0757
10944DPG3   AM254409  20.773  34.645  12.913 -0.5289 -0.0397  0.1615
10944DPG3   T1A54410  20.673  35.046  12.467  0.1088 -0.1724  0.0547
10944DPG3   C2A54411  20.673  35.178  12.080  0.1305  0.1481  0.2387
10944DPG3   C3A54412  20.460  35.176  11.727 -0.1133  0.2244 -0.1238
10944DPG3   C1B54413  20.513  34.526  12.645  0.1630 -0.2210  0.0533
10944DPG3   C2B54414  20.375  34.753  12.175 -0.0282  0.0357  0.0367
10944DPG3   C3B54415  20.198  34.778  11.791  0.1252 -0.0146  0.1371
10944DPG3   C4B54416  20.128  34.872  11.407  0.0347  0.0085  0.0369
10945DPG3   GM154417   9.650  16.509  18.515 -0.0425  0.1717  0.0823
10945DPG3   GM254418   9.392  16.728  18.677  0.1700  0.2595  0.3051
10945DPG3   GM354419   9.341  16.420  18.591  0.0155 -0.0651  0.0453
10945DPG3   GM454420   9.023  16.515  18.663  0.0381  0.1816 -0.0753
10945DPG3   GM554421   9.230  16.316  18.935 -0.2330 -0.0673 -0.0488
10945DPG3   GM654422   8.942  16.477  18.912 -0.0627 -0.1690 -0.1590
10945DPG3  GM1354423   8.712  16.754  19.001 -0.2289 -0.3846  0.0242
10945DPG3  GM1454424   8.958  16.958  18.859 -0.3230 -0.1693  0.1669
10945DPG3  GM1554425   9.060  16.769  19.157 -0.2644 -0.2571  0.0916
10945DPG3  GM1654426   9.051  17.090  19.141 -0.1100 -0.1499 -0.0606
10945DPG3  GM1754427   9.057  16.657  19.372  0.2353  0.0380 -0.2101
10945DPG3   AM154428   9.941  16.825  18.313  0.0760  0.1233 -0.1351
10945DPG3   AM254429   9.609  16.970  18.298 -0.0885  0.0533 -0.1281
10945DPG3   T1A54430   9.894  17.000  17.873 -0.3276 -0.3682 -0.1089
10945DPG3   C2A54431   9.870  17.253  17.520 -0.2775 -0.1086 -0.0319
10945DPG3   C3A54432  10.025  17.485  17.176 -0.0463  0.0508 -0.0806
10945DPG3   C1B54433   9.451  17.142  18.007 -0.1264  0.0291  0.2109
10945DPG3   C2B54434   9.392  17.192  17.601 -0.0709  0.1175  0.0454
10945DPG3   C3B54435   9.557  17.394  17.110  0.2432 -0.1222  0.3033
10945DPG3   C4B54436   9.552  17.413  16.629 -0.0872  0.1561 -0.2169
10946DPG3   GM154437  23.761  35.043  11.790 -0.1885 -0.0142 -0.2380
10946DPG3   GM254438  23.469  35.144  12.002  0.0042 -0.0061  0.0261
10946DPG3   GM354439  23.738  35.046  12.119  0.4239 -0.1319 -0.1879
10946DPG3   GM454440  23.566  35.057  12.432  0.0317 -0.1850  0.1560
10946DPG3   GM554441  23.907  35.234  12.335 -0.1494  0.0962  0.0233
10946DPG3   GM654442  23.769  35.129  12.586  0.0590 -0.1595  0.1084
10946DPG3  GM1354443  23.661  35.175  12.927  0.1537 -0.0538  0.0524
10946DPG3  GM1454444  23.507   0.084  12.816  0.0563 -0.1142  0.0250
10946DPG3  GM1554445  23.874   0.079  12.802  0.0591  0.0134  0.0455
10946DPG3  GM1654446  23.662   0.327  12.917  0.1810  0.3147 -0.2899
10946DPG3  GM1754447  24.127   0.103  12.868  0.2779 -0.4005  0.2563
10946DPG3   AM154448  23.655  35.273  11.378  0.3591  0.0812 -0.2179
10946DPG3   AM254449  23.604  34.922  11.324  0.0653 -0.0653 -0.1285
10946DPG3   T1A54450  23.386  35.293  11.000  0.0592 -0.3178  0.0209
10946DPG3   C2A54451  23.327   0.026  10.566  0.5405 -0.2009  0.2187
10946DPG3   C3A54452  22.930  35.374  10.246 -0.1096 -0.1349  0.0591
10946DPG3   C1B54453  23.476  34.768  11.036  0.1227  0.0314  0.0059
10946DPG3   C2B54454  23.270  34.926  10.738  0.0285  0.2145 -0.0493
10946DPG3   C3B54455  23.096  34.908  10.363 -0.1928 -0.1176  0.0663
10946DPG3   C4B54456  23.145  34.806   9.968  0.1797  0.3602 -0.1288
10947DPG3   GM154457  17.229   1.780  15.727 -0.0453 -0.2476  0.0421
10947DPG3   GM254458  17.336   1.441  15.848  0.2796 -0.0689  0.2639
10947DPG3   GM354459  17.217   1.659  16.034  0.1882 -0.3427  0.0148
10947DPG3   GM454460  17.205   1.382  16.225 -0.0396  0.1833 -0.1940
10947DPG3   GM554461  16.962   1.695  16.215  0.0551  0.2743  0.2274
10947DPG3   GM654462  17.073   1.472  16.437  0.1056 -0.0195 -0.0162
10947DPG3  GM1354463  17.061   1.191  16.675  0.0531  0.1111  0.1253
10947DPG3  GM1454464  16.911   1.027  16.404  0.1726 -0.0746  0.1707
10947DPG3  GM1554465  16.730   1.318  16.535  0.0425 -0.0711 -0.0158
10947DPG3  GM1654466  16.571   1.107  16.454 -0.3581 -0.0016 -0.1487
10947DPG3  GM1754467  16.662   1.505  16.754  0.0498 -0.0960  0.1186
10947DPG3   AM154468  17.285   1.802  15.261  0.0348  0.2397  0.1383
10947DPG3   AM254469  17.057   1.519  15.256  0.1131 -0.7138  0.0653
10947DPG3   T1A54470  17.131   1.798  14.791 -0.2111 -0.1958 -0.3081
10947DPG3   C2A54471  16.993   1.811  14.406  0.0299  0.0622 -0.1876
10947DPG3   C3A54472  16.658   1.939  14.119 -0.0993 -0.1610  0.5286
10947DPG3   C1B54473  16.809   1.439  14.997  0.3501 -0.1246  0.0863
10947DPG3   C2B54474  16.642   1.480  14.608 -0.0796 -0.0899 -0.5053
10947DPG3   C3B54475  16.369   1.432  14.257 -0.1837  0.1030  0.2047
10947DPG3   C4B54476  15.966   1.405  14.065 -0.2012 -0.0179 -0.1995
10948DPG3   GM154477  23.069  29.958  10.975  0.0498  0.3356 -0.1003
10948DPG3   GM254478  22.705  30.010  11.048 -0.0149 -0.2730  0.0425
10948DPG3   GM354479  22.952  30.035  11.273 -0.2335  0.0331 -0.1306
10948DPG3   GM454480  22.654  30.092  11.454  0.3337 -0.1974 -0.0755
10948DPG3   GM554481  23.031  30.044  11.567  0.3438  0.3317  0.1292
10948DPG3   GM654482  22.743  30.060  11.702 -0.0828 -0.2605  0.0694
10948DPG3  GM1354483  22.529  30.141  11.972  0.0501  0.1658  0.0453
10948DPG3  GM1454484  22.561  30.463  11.837  0.4247  0.0408 -0.1753
10948DPG3  GM1554485  22.869  30.314  11.970  0.2058 -0.1351  0.1432
10948DPG3  GM1654486  22.754  30.645  12.033  0.2363  0.1064  0.0053
10948DPG3  GM1754487  23.046  30.178  12.150  0.0510  0.1242 -0.0838
10948DPG3   AM154488  23.026  30.135  10.557  0.1884  0.0170  0.1956
10948DPG3   AM254489  22.849  30.393  10.715 -0.1594  0.1520  0.1623
10948DPG3   T1A54490  22.723  30.215  10.205  0.4132  0.3057  0.0447
10948DPG3   C2A54491  22.343  30.258   9.939  0.1713 -0.1483  0.3312
10948DPG3   C3A54492  22.301  30.464   9.578 -0.1853 -0.1021  0.1983
10948DPG3   C1B54493  22.491  30.498  10.676  0.0215  0.2169 -0.0979
10948DPG3   C2B54494  22.146  30.391  10.369  0.3646 -0.0027  0.0878
10948DPG3   C3B54495  21.688  30.363  10.212  0.0134 -0.0089  0.0298
10948DPG3   C4B54496  21.319  30.296   9.816  0.0375 -0.0859  0.3537
10949DPG3   GM154497  22.331  33.984  12.181  0.1960 -0.0997 -0.0452
10949DPG3   GM254498  22.355  34.357  12.153  0.1024 -0.1020 -0.1524
10949DPG3   GM354499  22.203  34.216  12.378  0.2307 -0.2684  0.1775
10949DPG3   GM454500  22.100  34.515  12.521 -0.1235 -0.0880  0.1862
10949DPG3   GM554501  22.295  34.209  12.678 -0.1283  0.0654  0.4962
10949DPG3   GM654502  22.122  34.438  12.773  0.2255 -0.0819  0.1597
10949DPG3  GM1354503  21.972  34.742  12.907  0.0420 -0.1356 -0.0317
10949DPG3  GM1454504  22.220  34.901  12.720 -0.1293  0.1824  0.0071
10949DPG3  GM1554505  22.339  34.691  12.996  0.0982  0.2593 -0.0300
10949DPG3  GM1654506  22.496  34.942  12.888 -0.0298 -0.0189 -0.2212
10949DPG3  GM1754507  22.308  34.635  13.260 -0.1059 -0.0431 -0.1434
10949DPG3   AM154508  22.302  33.808  11.768 -0.3547  0.0562  0.3015
10949DPG3   AM254509  22.633  33.757  11.596  0.5429  0.0732 -0.1983
10949DPG3   T1A54510  22.298  33.920  11.310 -0.0560 -0.0560 -0.1144
10949DPG3   C2A54511  22.169  34.077  10.927  0.2217 -0.1115 -0.3309
10949DPG3   C3A54512  21.954  34.124  10.556  0.2515 -0.1464 -0.0878
10949DPG3   C1B54513  22.682  33.670  11.274 -0.0277  0.3925  0.3314
10949DPG3   C2B54514  22.433  33.630  10.882  0.1160  0.0831  0.1710
10949DPG3   C3B54515  22.205  33.632  10.614  0.3554  0.0472  0.1069
10949DPG3   C4B54516  22.038  33.746  10.085  0.2487  0.0269  0.0445
10950DPG3   GM154517  28.616  33.900  10.280 -0.0322  0.0682  0.0413
10950DPG3   GM254518  28.305  33.758  10.126  0.0045 -0.1272  0.1452
10950DPG3   GM354519  28.397  33.716  10.445 -0.0990  0.1916  0.0906
10950DPG3   GM454520  28.079  33.559  10.457  0.2267 -0.3049  0.1302
10950DPG3   GM554521  28.254  33.824  10.694  0.1089  0.1054 -0.2349
10950DPG3   GM654522  27.995  33.626  10.699 -0.1989 -0.2887 -0.0173
10950DPG3  GM1354523  27.696  33.468  10.776 -0.1917  0.0294 -0.1339
10950DPG3  GM1454524  27.586  33.717  10.556  0.0440  0.1282 -0.1409
10950DPG3  GM1554525  27.700  33.833  10.885  0.1238  0.0269 -0.1332
10950DPG3  GM1654526  27.467  33.964  10.744 -0.1072  0.0452 -0.1277
10950DPG3  GM1754527  27.703  33.797  11.136 -0.0842 -0.0764 -0.1537
10950DPG3   AM154528  29.036  33.764  10.110 -0.0330 -0.1269  0.1164
10950DPG3   AM254529  28.755  33.661   9.878  0.1094 -0.1132  0.0939
10950DPG3   T1A54530  29.173  33.928   9.676  0.3694  0.0162  0.2274
10950DPG3   C2A54531  29.330  34.001   9.308  0.2292 -0.0665 -0.2473
10950DPG3   C3A54532  29.275  33.897   8.870 -0.2929 -0.1196 -0.0558
10950DPG3   C1B54533  28.718  33.733   9.497 -0.2217  0.2228 -0.3654
10950DPG3   C2B54534  28.745  34.040   9.124  0.1229 -0.2485  0.0998
10950DPG3   C3B54535  28.891  34.299   8.796 -0.2154 -0.1857  0.2123
10950DPG3   C4B54536  29.319  34.387   8.891  0.3031  0.1320 -0.0546
10951DPG3   GM154537  34.225  15.539   6.155  0.0259  0.0610 -0.1687
10951DPG3   GM254538  33.977  15.311   6.319  0.0115  0.1341 -0.0892
10951DPG3   GM354539  34.200  15.476   6.478  0.2169 -0.0470 -0.1744
10951DPG3   GM454540  34.022  15.311   6.721 -0.0591 -0.0004  0.2931
10951DPG3   GM554541  34.146  15.683   6.666  0.0879 -0.0785  0.0905
10951DPG3   GM654542  34.071  15.494   6.906 -0.0160 -0.0797  0.3604
10951DPG3  GM1354543  33.859  15.389   7.184  0.2644  0.0378  0.0126
10951DPG3  GM1454544  33.588  15.463   6.975  0.1324 -0.0504  0.1514
10951DPG3  GM1554545  33.791  15.750   7.081  0.0892  0.0167  0.0523
10951DPG3  GM1654546  33.481  15.773   7.060  0.0995  0.1973 -0.0670
10951DPG3  GM1754547  33.964  15.858   7.265 -0.1505  0.0458 -0.0098
10951DPG3   AM154548  34.291  15.437   5.708 -0.1244 -0.0650  0.0472
10951DPG3   AM254549  34.493  15.710   5.682 -0.1249 -0.1332 -0.2845
10951DPG3   T1A54550  34.555  15.346   5.315  0.1211  0.2597  0.0722
10951DPG3   C2A54551  34.943  15.221   5.032  0.0616  0.3755 -0.0132
10951DPG3   C3A54552  35.232  15.327   4.787  0.4975  0.3350 -0.1192
10951DPG3   C1B54553  34.741  15.792   5.408 -0.1542 -0.1402 -0.1006
10951DPG3   C2B54554  35.097  15.814   5.047 -0.1178 -0.0794  0.0648
10951DPG3   C3B54555   0.138  15.766   4.944 -0.1221  0.1272  0.0067
10951DPG3   C4B54556   0.503  15.701   5.204  0.1210  0.1341  0.1359
10952PXSU    S154557  20.035   1.082  14.856 -0.0052  0.2415  0.1198
10952PXSU    C154558  19.898   0.712  14.580 -0.2088 -0.0409 -0.1210
10952PXSU    C254559  19.973   0.999  14.622 -0.2488 -0.0597  0.0837
10952PXSU    C354560  19.924   0.896  14.345 -0.1119  0.1000 -0.0009
10952PXSU   AM154561  19.619   1.093  14.121 -0.5880 -0.1423  0.2230
10952PXSU   AM254562  19.845   1.082  13.856  0.0667 -0.3472  0.0237
10952PXSU   T1A54563  19.378   1.297  13.780 -0.1377 -0.1436 -0.0023
10952PXSU   C2A54564  19.180   1.477  13.430 -0.1547 -0.2836  0.0308
10952PXSU   C3A54565  19.079   1.703  13.051 -0.1236  0.3681 -0.1361
10952PXSU   C1B54566  19.727   1.056  13.454 -0.2161 -0.0491 -0.1370
10952PXSU   C2B54567  19.749   1.009  12.955 -0.0121  0.1167 -0.0090
10952PXSU   C3B54568  19.614   1.015  12.490  0.3027 -0.0704 -0.6869
10952PXSU   C4B54569  19.460   0.842  12.079 -0.1617 -0.0543  0.2852
10952PXSU   C5B54570  19.085   0.864  11.804 -0.0797  0.1867  0.1722
10952PXSU   C6B54571  18.882   1.030  11.414 -0.0734  0.1040 -0.3173
10953PXSU    S154572  18.581  13.610  17.532 -0.2839 -0.1905 -0.1621
10953PXSU    C154573  18.772  13.582  17.076  0.1195 -0.1934  0.1140
10953PXSU    C254574  18.555  13.667  17.265  0.0274 -0.0339 -0.0616
10953PXSU    C354575  18.484  13.534  17.006  0.1290  0.2011 -0.2110
10953PXSU   AM154576  18.231  13.842  16.902  0.0778 -0.0218  0.2573
10953PXSU   AM254577  17.976  13.816  17.071 -0.0130 -0.0241  0.0328
10953PXSU   T1A54578  18.374  13.845  16.520  0.0222 -0.0738 -0.1538
10953PXSU   C2A54579  18.476  13.939  16.110 -0.2801  0.1067  0.0150
10953PXSU   C3A54580  18.278  14.263  15.889  0.0085  0.1529  0.3014
10953PXSU   C1B54581  17.776  13.803  16.657 -0.0467  0.0443 -0.2472
10953PXSU   C2B54582  17.885  13.809  16.189 -0.0758  0.2476 -0.0163
10953PXSU   C3B54583  17.716  13.930  15.856  0.0180 -0.3255 -0.1606
10953PXSU   C4B54584  17.840  14.353  15.558  0.1245  0.0909  0.1794
10953PXSU   C5B54585  17.833  14.500  15.048  0.0962 -0.1970 -0.0554
10953PXSU   C6B54586  17.946  14.769  14.880  0.3295  0.1895  0.0736
10954PXSU    S154587  30.439  20.471   4.178 -0.2638  0.1028 -0.1017
10954PXSU    C154588  30.590  19.964   4.242 -0.2090  0.1397 -0.1179
10954PXSU    C254589  30.431  20.216   4.211 -0.2012  0.1051 -0.4574
10954PXSU    C354590  30.415  20.002   4.002  0.0516 -0.0324 -0.3381
10954PXSU   AM154591  30.355  20.297   3.686 -0.0863 -0.0386  0.1567
10954PXSU   AM254592  30.023  20.253   3.569  0.1150  0.0167 -0.1019
10954PXSU   T1A54593  30.733  20.366   3.435  0.3416  0.0839 -0.1026
10954PXSU   C2A54594  30.738  20.294   3.100  0.0343  0.0499 -0.2373
10954PXSU   C3A54595  30.828  20.271   2.642  0.3052  0.0668  0.1308
10954PXSU   C1B54596  30.159  20.317   3.197 -0.2229  0.1198 -0.2547
10954PXSU   C2B54597  30.230  20.220   2.908  0.2675  0.1101 -0.2711
10954PXSU   C3B54598  30.315  20.234   2.599  0.0758  0.0385  0.0057
10954PXSU   C4B54599  30.419  20.171   2.334  0.1377 -0.0142  0.5141
10954PXSU   C5B54600  30.447  19.881   1.964  0.0984  0.2873 -0.2985
10954PXSU   C6B54601  30.174  19.820   1.510 -0.1000 -0.3034 -0.4526
10955PXSU    S154602  18.894  28.671  18.213 -0.3374  0.0206 -0.2727
10955PXSU    C154603  18.465  28.940  18.139 -0.0316 -0.1360 -0.2077
10955PXSU    C254604  18.738  28.822  18.099  0.0133 -0.0858 -0.0547
10955PXSU    C354605  18.637  29.034  17.912  0.0937 -0.0788 -0.0899
10955PXSU   AM154606  18.510  28.897  17.523  0.0652 -0.0405 -0.0382
10955PXSU   AM254607  18.717  28.688  17.296 -0.2246 -0.1135 -0.3205
10955PXSU   T1A54608  18.302  28.960  17.179 -0.0128 -0.0039  0.2086
10955PXSU   C2A54609  17.927  28.990  17.050 -0.0163 -0.3557  0.2864
10955PXSU   C3A54610  17.465  28.992  17.130  0.1624  0.1410 -0.1246
10955PXSU   C1B54611  18.378  28.400  17.379  0.1051  0.4285 -0.0215
10955PXSU   C2B54612  18.078  28.375  17.119  0.0026 -0.3019  0.1022
10955PXSU   C3B54613  17.868  28.191  16.854  0.1215 -0.1860  0.1259
10955PXSU   C4B54614  17.815  27.884  16.498 -0.0813 -0.1201  0.0483
10955PXSU   C5B54615  17.920  27.577  16.361 -0.0065 -0.3144  0.0460
10955PXSU   C6B54616  18.086  27.157  16.207  0.0057  0.1735  0.1048
10956PXSU    S154617  25.612  31.952  10.858  0.1292  0.0539 -0.0240
10956PXSU    C154618  26.108  31.917  10.679 -0.0018  0.1033 -0.0241
10956PXSU    C254619  25.844  32.025  10.770  0.1220  0.3542  0.0403
10956PXSU    C354620  25.970  32.129  10.519  0.1725  0.2545  0.0240
10956PXSU   AM154621  25.712  32.381  10.295  0.0204 -0.1781 -0.0699
10956PXSU   AM254622  25.937  32.539  10.153 -0.5163  0.0807 -0.2031
10956PXSU   T1A54623  25.580  32.513   9.862 -0.0670  0.2074  0.2559
10956PXSU   C2A54624  25.643  32.624   9.438  0.1338 -0.0045  0.1181
10956PXSU   C3A54625  25.600  32.709   9.007 -0.0762 -0.0829  0.0684
10956PXSU   C1B54626  26.080  32.849   9.804  0.2014 -0.1645  0.4033
10956PXSU   C2B54627  26.036  32.962   9.339 -0.0151  0.2518 -0.0549
10956PXSU   C3B54628  25.997  33.033   8.940  0.1326 -0.0623 -0.1151
10956PXSU   C4B54629  25.851  32.886   8.565 -0.2113 -0.0100 -0.1116
10956PXSU   C5B54630  25.761  32.432   8.283  0.0586  0.1415  0.0850
10956PXSU   C6B54631  25.778  32.271   7.927  0.1669  0.3304 -0.0252
10957PXSU    S154632  21.368  31.146  13.543 -0.1070  0.0148  0.1059
10957PXSU    C154633  21.278  30.983  13.046 -0.2037  0.1428  0.0418
10957PXSU    C254634  21.254  31.074  13.331 -0.0792 -0.0284  0.1077
10957PXSU    C354635  21.116  31.227  13.113  0.1947  0.3684  0.2068
10957PXSU   AM154636  20.840  31.490  13.300  0.1455 -0.2503 -0.0108
10957PXSU   AM254637  20.859  31.686  13.076  0.1323 -0.2001  0.1835
10957PXSU   T1A54638  20.452  31.473  13.315  0.1840 -0.1755  0.1177
10957PXSU   C2A54639  20.003  31.411  13.046  0.1060 -0.2677  0.0102
10957PXSU   C3A54640  19.552  31.260  12.802 -0.1415  0.3045  0.2212
10957PXSU   C1B54641  20.434  31.779  12.930  0.1993  0.1529 -0.0083
10957PXSU   C2B54642  20.078  31.709  12.662 -0.0121  0.2402 -0.1452
10957PXSU   C3B54643  19.736  31.601  12.468 -0.3128 -0.0986 -0.1936
10957PXSU   C4B54644  19.553  31.354  12.125  0.0668 -0.4966  0.0766
10957PXSU   C5B54645  19.380  31.127  11.889  0.0966  0.1441  0.0419
10957PXSU   C6B54646  18.888  31.177  11.752  0.0613 -0.0721 -0.1210
10958PXSU    S154647  13.823  15.330  19.020  0.0265  0.0486 -0.0227
10958PXSU    C154648  13.926  14.842  18.818 -0.2229  0.0758  0.0291
10958PXSU    C254649  13.863  15.125  18.896 -0.0295  0.1587 -0.1105
10958PXSU    C354650  14.094  15.067  18.714  0.0908 -0.1111  0.1226
10958PXSU   AM154651  14.053  15.271  18.349  0.3143  0.0913 -0.3392
10958PXSU   AM254652  14.389  15.395  18.381 -0.2051  0.0733 -0.1774
10958PXSU   T1A54653  14.159  15.240  17.971 -0.3377  0.1115 -0.0073
10958PXSU   C2A54654  14.283  15.245  17.638  0.0811  0.0228  0.0712
10958PXSU   C3A54655  14.283  15.210  17.223 -0.0565 -0.3864 -0.0314
10958PXSU   C1B54656  14.103  15.765  18.229  0.0273 -0.2036 -0.1410
10958PXSU   C2B54657  14.002  15.976  17.827  0.1281  0.2198 -0.0850
10958PXSU   C3B54658  13.884  16.017  17.429 -0.0267 -0.1635 -0.2042
10958PXSU   C4B54659  13.697  16.037  17.021  0.2879 -0.1159 -0.1652
10958PXSU   C5B54660  13.555  16.056  16.559  0.0662  0.0355  0.3292
10958PXSU   C6B54661  13.291  16.151  16.316  0.1908 -0.0335 -0.0591
10959PXSU    S154662  34.083  12.909   7.527  0.0737  0.0541 -0.1471
10959PXSU    C154663  34.223  13.356   7.329 -0.0018  0.1127  0.2358
10959PXSU    C254664  34.248  13.092   7.471 -0.0113 -0.1035 -0.1583
10959PXSU    C354665  34.486  13.211   7.332  0.0090  0.1288  0.0727
10959PXSU   AM154666  34.695  13.020   7.033  0.3535  0.0161  0.0118
10959PXSU   AM254667  34.553  12.748   6.967 -0.2705 -0.0739  0.1178
10959PXSU   T1A54668  34.760  13.097   6.613  0.3048  0.1368 -0.1522
10959PXSU   C2A54669  35.106  12.934   6.341  0.0831  0.2760 -0.1213
10959PXSU   C3A54670   0.060  12.867   6.044  0.0498 -0.0189 -0.2456
10959PXSU   C1B54671  34.868  12.569   6.660  0.1428 -0.0903 -0.0785
10959PXSU   C2B54672  35.085  12.413   6.391  0.2458 -0.0280  0.1892
10959PXSU   C3B54673  35.383  12.298   6.212 -0.0404 -0.3627  0.0644
10959PXSU   C4B54674   0.322  12.193   6.003  0.0291  0.0053  0.4414
10959PXSU   C5B54675   0.705  11.934   6.098 -0.0194 -0.1274 -0.1319
10959PXSU   C6B54676   1.073  11.636   6.299 -0.0813  0.0261  0.0713
10960PXSU    S154677  25.487  33.953  10.806  0.0351  0.0612  0.0353
10960PXSU    C154678  25.927  33.928  11.146  0.0886 -0.1011 -0.0753
10960PXSU    C254679  25.706  33.921  10.942  0.1258 -0.0623 -0.1172
10960PXSU    C354680  25.921  33.711  10.939 -0.1859 -0.3934  0.2341
10960PXSU   AM154681  26.079  33.852  10.573 -0.1485  0.2177 -0.6088
10960PXSU   AM254682  25.738  33.722  10.445 -0.1579  0.0848 -0.1598
10960PXSU   T1A54683  26.037  34.036  10.138 -0.0147 -0.1083 -0.1696
10960PXSU   C2A54684  25.966  34.389   9.911  0.0387 -0.0847 -0.1300
10960PXSU   C3A54685  25.824  34.418   9.542  0.1457 -0.2282 -0.1848
10960PXSU   C1B54686  25.547  33.704  10.113  0.3360 -0.2792 -0.1812
10960PXSU   C2B54687  25.661  33.866   9.806 -0.1810  0.1304 -0.2069
10960PXSU   C3B54688  25.621  34.022   9.362  0.0156  0.2609 -0.1000
10960PXSU   C4B54689  25.412  34.177   8.987 -0.3388  0.2147  0.1761
10960PXSU   C5B54690  25.096  34.317   8.772  0.1524 -0.3445  0.3612
10960PXSU   C6B54691  24.752  34.199   8.511  0.2753  0.2449 -0.0278
10961PXSU    S154692  28.530  34.201  10.697 -0.3285  0.2885  0.1382
10961PXSU    C154693  29.026  34.001  10.842  0.0057 -0.0495 -0.0142
10961PXSU    C254694  28.783  34.133  10.725 -0.1612 -0.2007  0.1584
10961PXSU    C354695  29.004  34.039  10.545 -0.1459  0.1043  0.0161
10961PXSU   AM154696  29.045  34.257  10.197  0.1797 -0.1410  0.3134
10961PXSU   AM254697  28.798  34.396  10.282 -0.2134  0.0751  0.0242
10961PXSU   T1A54698  29.319  34.370   9.921  0.0766 -0.2606 -0.0214
10961PXSU   C2A54699  29.551  34.315   9.572  0.0198  0.1821  0.0322
10961PXSU   C3A54700  29.736  34.254   9.151 -0.0896  0.4015 -0.0529
10961PXSU   C1B54701  28.772  34.684   9.984 -0.1471  0.2397 -0.0958
10961PXSU   C2B54702  28.795  34.896   9.570 -0.1768 -0.1320 -0.1024
10961PXSU   C3B54703  28.799  34.999   9.179 -0.1858  0.2930  0.1668
10961PXSU   C4B54704  29.037  34.801   8.788  0.1906  0.0626  0.1097
10961PXSU   C5B54705  29.096  34.554   8.446  0.1941  0.0762  0.4256
10961PXSU   C6B54706  28.923  34.541   8.095 -0.0875 -0.2316 -0.1312
10962PXSU    S154707  17.130   1.072  15.537  0.0694 -0.0246  0.3122
10962PXSU    C154708  16.799   1.000  15.883 -0.1899 -0.1785  0.2069
10962PXSU    C254709  16.965   1.181  15.711 -0.3735 -0.2253 -0.0226
10962PXSU    C354710  16.775   1.297  15.913 -0.2061 -0.1695  0.1046
10962PXSU   AM154711  16.783   1.645  15.650  0.1602 -0.1211  0.2402
10962PXSU   AM254712  16.691   1.763  15.786  0.0876 -0.2634 -0.0188
10962PXSU   T1A54713  16.460   1.674  15.343  0.1533 -0.0820 -0.1603
10962PXSU   C2A54714  16.212   1.742  14.972  0.2137  0.1762 -0.1029
10962PXSU   C3A54715  15.946   1.751  14.624  0.0719 -0.2607 -0.2639
10962PXSU   C1B54716  16.275   1.773  15.792  0.1168 -0.0410  0.2808
10962PXSU   C2B54717  16.059   1.945  15.439 -0.1562 -0.0529 -0.0349
10962PXSU   C3B54718  15.748   1.960  15.007  0.0380  0.1073 -0.0042
10962PXSU   C4B54719  15.463   1.842  14.605  0.1441 -0.1838 -0.1256
10962PXSU   C5B54720  15.012   1.728  14.504  0.1027  0.0655  0.0752
10962PXSU   C6B54721  14.761   1.660  14.273  0.0376  0.0262 -0.0073
10963PXSU    S154722  12.668  16.355  19.696 -0.1513 -0.0123 -0.1154
10963PXSU    C154723  12.937  16.112  19.292  0.0494  0.2179 -0.2793
10963PXSU    C254724  12.772  16.298  19.460  0.0923  0.0452 -0.0441
10963PXSU    C354725  12.930  16.405  19.229 -0.0841  0.2619 -0.0652
10963PXSU   AM154726  12.749  16.720  18.984 -0.0458 -0.3635  0.2085
10963PXSU   AM254727  12.764  16.988  19.206  0.1057 -0.0037  0.1911
10963PXSU   T1A54728  12.979  16.910  18.617 -0.0156 -0.1129  0.0600
10963PXSU   C2A54729  13.198  17.190  18.373  0.0875 -0.0947 -0.1373
10963PXSU   C3A54730  13.316  17.209  17.964  0.2753  0.2196  0.1189
10963PXSU   C1B54731  13.127  17.158  19.036  0.2355  0.2584 -0.0958
10963PXSU   C2B54732  13.373  17.576  18.806  0.1771  0.0139 -0.2191
10963PXSU   C3B54733  13.309  17.680  18.501  0.1092 -0.1655 -0.0551
10963PXSU   C4B54734  13.184  18.066  18.302 -0.2407 -0.1108 -0.0154
10963PXSU   C5B54735  13.427  18.433  18.317 -0.1017 -0.0865 -0.1439
10963PXSU   C6B54736  13.408  18.824  18.451  0.0857 -0.1812 -0.3567
10964PXSU    S154737  19.779   0.241  14.339  0.1301 -0.2651  0.2455
10964PXSU    C154738  19.778   0.556  13.901  0.1683  0.0778  0.1424
10964PXSU    C254739  19.753   0.436  14.175 -0.0240 -0.1804  0.0137
10964PXSU    C354740  19.544   0.627  14.075 -0.0649 -0.2500 -0.0333
10964PXSU   AM154741  19.134   0.651  14.071 -0.2110  0.0141 -0.2058
10964PXSU   AM254742  19.088   0.948  14.131  0.2902 -0.0705 -0.0445
10964PXSU   T1A54743  18.942   0.439  13.771  0.2266 -0.2166  0.2227
10964PXSU   C2A54744  18.611   0.428  13.344 -0.0719 -0.1979 -0.1087
10964PXSU   C3A54745  18.333   0.518  12.933  0.2338  0.2067  0.2603
10964PXSU   C1B54746  18.846   0.925  13.743  0.1243  0.0944 -0.2440
10964PXSU   C2B54747  18.599   0.939  13.391 -0.0885  0.2025  0.0954
10964PXSU   C3B54748  18.449   0.987  13.018  0.0972 -0.0506  0.0392
10964PXSU   C4B54749  18.268   1.383  12.835 -0.3238 -0.0313  0.0524
10964PXSU   C5B54750  18.226   1.611  12.379 -0.6813 -0.2124 -0.0267
10964PXSU   C6B54751  18.564   1.914  12.169 -0.3182 -0.0357 -0.0617
10965PXSU    S154752   2.268   6.679  14.174 -0.1778 -0.2977 -0.0931
10965PXSU    C154753   2.412   7.170  14.085  0.0089 -0.0697  0.2299
10965PXSU    C254754   2.418   6.873  14.127 -0.0533 -0.0883  0.1080
10965PXSU    C354755   2.525   6.991  13.873 -0.2096 -0.0224  0.0717
10965PXSU   AM154756   2.741   6.694  13.686 -0.2416 -0.2095 -0.2778
10965PXSU   AM254757   2.703   6.876  13.340 -0.2280  0.2808  0.1151
10965PXSU   T1A54758   3.195   6.758  13.449 -0.2976 -0.3222  0.0120
10965PXSU   C2A54759   3.522   6.626  13.202 -0.2050  0.1761 -0.1080
10965PXSU   C3A54760   3.794   6.692  12.976 -0.0989  0.3684  0.0290
10965PXSU   C1B54761   2.844   6.877  12.987  0.1158  0.0079  0.0603
10965PXSU   C2B54762   3.251   6.924  12.823  0.2336 -0.2022  0.0892
10965PXSU   C3B54763   3.466   6.639  12.566 -0.0278 -0.0084 -0.0013
10965PXSU   C4B54764   3.690   6.557  12.203 -0.3477  0.3414  0.1779
10965PXSU   C5B54765   4.084   6.653  11.980  0.3501 -0.0395 -0.0531
10965PXSU   C6B54766   4.389   6.995  11.819  0.1911 -0.0062  0.1034
10966PNSU    S154767  20.957  33.538  12.665  0.0395 -0.0165  0.1210
10966PNSU    C154768  20.846  33.721  13.159 -0.0247  0.0972  0.1398
10966PNSU    C254769  20.831  33.643  12.870  0.0968 -0.0417  0.1700
10966PNSU    C354770  20.768  33.924  12.953 -0.3500 -0.1052  0.0596
10966PNSU   AM154771  20.703  33.972  12.534 -0.0792 -0.0268  0.0259
10966PNSU   AM254772  20.591  34.100  12.887  0.0596  0.1323  0.0646
10966PNSU   T1A54773  20.425  33.872  12.212 -0.0014  0.0144  0.3322
10966PNSU   C2A54774  20.259  33.923  11.872 -0.2170 -0.2352  0.3857
10966PNSU   C3A54775  20.009  33.865  11.579  0.0180  0.0575  0.0946
10966PNSU   C1B54776  20.203  34.086  12.710  0.0649 -0.3728 -0.0338
10966PNSU   C2B54777  20.127  34.255  12.286  0.1824 -0.0282 -0.0656
10966PNSU   C3B54778  20.005  34.349  11.972 -0.2636 -0.0975 -0.1620
10966PNSU   D4B54779  19.838  34.395  11.604  0.1295  0.2451  0.2162
10966PNSU   C5B54780  19.365  34.584  11.542  0.2228  0.1587 -0.0331
10966PNSU   C6B54781  19.100  34.878  11.606 -0.1179 -0.1412  0.1975
10967PNSU    S154782  28.368   9.934   6.034 -0.1116  0.0272  0.0358
10967PNSU    C154783  28.771  10.263   6.160 -0.0828 -0.0645 -0.1144
10967PNSU    C254784  28.604  10.019   6.111 -0.0418 -0.1112 -0.0227
10967PNSU    C354785  28.707  10.178   5.879  0.0210 -0.2421 -0.0850
10967PNSU   AM154786  28.384  10.255   5.613 -0.1395 -0.4897  0.0376
10967PNSU   AM254787  28.671  10.181   5.703 -0.2032  0.0158  0.0669
10967PNSU   T1A54788  28.272   9.987   5.357  0.1518 -0.1524 -0.2297
10967PNSU   C2A54789  28.203   9.796   4.934  0.0703 -0.0792 -0.4570
10967PNSU   C3A54790  28.281   9.547   4.622 -0.2226  0.2511  0.0354
10967PNSU   C1B54791  28.742  10.211   5.270 -0.1763 -0.1514  0.0516
10967PNSU   C2B54792  28.717  10.009   4.934 -0.1137 -0.0486 -0.3079
10967PNSU   C3B54793  28.775   9.871   4.497  0.0377  0.1418 -0.4472
10967PNSU   D4B54794  28.808   9.875   4.058  0.1041 -0.0668  0.2769
10967PNSU   C5B54795  28.545   9.714   3.725  0.0388  0.1123  0.0431
10967PNSU   C6B54796  28.314   9.612   3.297  0.1963  0.0146 -0.2327
10968PNSU    S154797  25.638  29.755   9.793  0.0754  0.2365  0.0303
10968PNSU    C154798  25.266  30.167   9.823  0.1605  0.2538  0.0375
10968PNSU    C254799  25.436  29.922   9.791 -0.0794  0.0556  0.2632
10968PNSU    C354800  25.173  29.942   9.649  0.0630  0.2998  0.0296
10968PNSU   AM154801  25.317  29.634   9.392  0.2797  0.3562  0.0837
10968PNSU   AM254802  25.062  29.703   9.521  0.0085 -0.1184  0.2851
10968PNSU   T1A54803  25.563  29.617   9.004  0.0371  0.1104  0.0584
10968PNSU   C2A54804  25.414  29.765   8.519  0.2065  0.1808 -0.2590
10968PNSU   C3A54805  25.198  29.745   8.118  0.1459 -0.2628  0.2928
10968PNSU   C1B54806  25.117  30.076   9.205  0.0483 -0.0570  0.1305
10968PNSU   C2B54807  25.233  30.152   8.864 -0.2723 -0.2506  0.0947
10968PNSU   C3B54808  25.277  30.242   8.358 -0.1948  0.0733  0.1630
10968PNSU   D4B54809  24.975  30.175   8.078 -0.0621  0.1411  0.0349
10968PNSU   C5B54810  24.957  30.029   7.656 -0.4943 -0.3238  0.3020
10968PNSU   C6B54811  24.733  30.233   7.298 -0.1607  0.0831  0.0284
10969PNSU    S154812  23.596  29.784  11.131 -0.2153  0.0709 -0.0783
10969PNSU    C154813  23.481  29.321  10.971 -0.3398  0.1363  0.3322
10969PNSU    C254814  23.565  29.608  10.939 -0.0005  0.0006 -0.0505
10969PNSU    C354815  23.373  29.485  10.744 -0.0081 -0.0831  0.0095
10969PNSU   AM154816  22.962  29.583  10.686 -0.0324 -0.1330  0.0982
10969PNSU   AM254817  23.200  29.542  10.633  0.0849  0.1001  0.0255
10969PNSU   T1A54818  22.640  29.861  10.548  0.2221 -0.0966  0.0093
10969PNSU   C2A54819  22.324  29.931  10.380  0.1099 -0.2052  0.2915
10969PNSU   C3A54820  21.961  29.911  10.049  0.3447 -0.0060  0.1516
10969PNSU   C1B54821  23.066  29.782  10.185 -0.0795  0.0350  0.1435
10969PNSU   C2B54822  22.797  29.849   9.945  0.2584  0.0129 -0.0116
10969PNSU   C3B54823  22.668  30.045   9.596  0.0323 -0.0316  0.1118
10969PNSU   D4B54824  22.561  30.239   9.230  0.1987 -0.2712  0.1730
10969PNSU   C5B54825  22.327  30.784   9.225 -0.2766  0.3617  0.1468
10969PNSU   C6B54826  22.436  31.148   9.466  0.2894 -0.1334  0.0653
10970PNSU    S154827  29.687  10.144   6.349  0.1400  0.2745  0.0359
10970PNSU    C154828  29.873  10.261   5.841  0.0461 -0.2174 -0.1517
10970PNSU    C254829  29.817  10.216   6.133  0.0140  0.0532 -0.1152
10970PNSU    C354830  29.670  10.056   5.925 -0.0673 -0.0398  0.0135
10970PNSU   AM154831  29.641   9.650   6.051  0.2387 -0.1449 -0.2475
10970PNSU   AM254832  29.481   9.898   5.853 -0.0846  0.2578 -0.0851
10970PNSU   T1A54833  29.602   9.278   5.874  0.1438 -0.0865 -0.1488
10970PNSU   C2A54834  29.721   9.113   5.441 -0.2135 -0.0672 -0.1692
10970PNSU   C3A54835  29.781   8.848   5.082 -0.3208  0.0414 -0.0333
10970PNSU   C1B54836  29.499   9.610   5.485 -0.3367  0.1132  0.2363
10970PNSU   C2B54837  29.547   9.376   5.072 -0.1187 -0.1940  0.0682
10970PNSU   C3B54838  29.515   9.111   4.743 -0.1300 -0.0451 -0.1449
10970PNSU   D4B54839  29.871   8.878   4.430 -0.2210  0.2379  0.0260
10970PNSU   C5B54840  30.068   8.869   4.094  0.0732 -0.4506  0.1650
10970PNSU   C6B54841  30.292   8.761   3.852  0.0632 -0.1106  0.1301
10971PNSU    S154842  23.267  25.246  13.000 -0.0552 -0.1533 -0.2025
10971PNSU    C154843  23.374  25.372  12.485 -0.1165  0.1232 -0.1418
10971PNSU    C254844  23.274  25.245  12.738 -0.0112 -0.0812 -0.2017
10971PNSU    C354845  23.111  25.456  12.602 -0.0566  0.0480  0.0501
10971PNSU   AM154846  22.764  25.358  12.829 -0.0832  0.1043  0.0333
10971PNSU   AM254847  22.867  25.501  12.499  0.2099  0.3455  0.1173
10971PNSU   T1A54848  22.390  24.969  12.868 -0.0109 -0.1314 -0.2939
10971PNSU   C2A54849  21.949  24.801  12.777  0.1058  0.2519 -0.0233
10971PNSU   C3A54850  21.671  24.868  12.504 -0.1087 -0.2135  0.1303
10971PNSU   C1B54851  22.472  25.396  12.428 -0.4430  0.1094 -0.0942
10971PNSU   C2B54852  22.123  25.150  12.358 -0.1335 -0.1840  0.2135
10971PNSU   C3B54853  21.726  25.248  12.169 -0.2904 -0.0011 -0.4898
10971PNSU   D4B54854  21.288  25.229  12.067  0.2314  0.0058  0.0046
10971PNSU   C5B54855  21.177  25.341  11.619 -0.1215  0.0572 -0.0025
10971PNSU   C6B54856  20.780  25.642  11.399  0.2020  0.2325 -0.2043
10972PNSU    S154857  28.106  10.890   6.212  0.2869  0.1161  0.0607
10972PNSU    C154858  28.326  11.281   5.963  0.0621  0.1694 -0.2083
10972PNSU    C254859  28.309  11.028   6.122  0.1377  0.1869 -0.1725
10972PNSU    C354860  28.343  11.016   5.824  0.0821  0.1547 -0.1776
10972PNSU   AM154861  27.990  10.832   5.673  0.1504 -0.1053 -0.0223
10972PNSU   AM254862  28.269  10.807   5.656 -0.0355 -0.0456  0.0291
10972PNSU   T1A54863  27.940  10.421   5.409 -0.0328 -0.1987 -0.0446
10972PNSU   C2A54864  27.875  10.169   5.173 -0.5689  0.1129 -0.0943
10972PNSU   C3A54865  27.736  10.031   4.732 -0.0184 -0.1111  0.1225
10972PNSU   C1B54866  28.403  10.581   5.254 -0.2356  0.1301  0.0385
10972PNSU   C2B54867  28.333  10.348   4.882 -0.4823  0.0811  0.2078
10972PNSU   C3B54868  28.317  10.132   4.500 -0.1604 -0.0330 -0.1184
10972PNSU   D4B54869  28.271   9.954   4.129  0.0609 -0.4518 -0.1669
10972PNSU   C5B54870  27.903   9.670   4.131 -0.2551 -0.1825 -0.0836
10972PNSU   C6B54871  27.448   9.806   4.302  0.1386 -0.4387  0.0794
10973PNSU    S154872   2.887   2.538  16.407  0.0728 -0.0679  0.0540
10973PNSU    C154873   3.322   2.862  16.535  0.0303  0.0110  0.1042
10973PNSU    C254874   3.082   2.710  16.440  0.1581 -0.1658  0.0626
10973PNSU    C354875   3.325   2.731  16.265  0.0627  0.2718 -0.0240
10973PNSU   AM154876   3.236   2.423  15.984 -0.1058  0.1395  0.1727
10973PNSU   AM254877   3.490   2.590  16.112 -0.2945  0.2626  0.1575
10973PNSU   T1A54878   3.306   2.439  15.489  0.0497 -0.2548  0.0048
10973PNSU   C2A54879   3.515   2.359  15.194  0.1795 -0.0293  0.1249
10973PNSU   C3A54880   3.853   2.395  14.940 -0.0471 -0.4878 -0.0116
10973PNSU   C1B54881   3.723   2.378  15.726 -0.0013  0.1399  0.0349
10973PNSU   C2B54882   3.979   2.350  15.492  0.3251 -0.0010 -0.0653
10973PNSU   C3B54883   4.225   2.217  15.248 -0.0321 -0.0063 -0.0149
10973PNSU   D4B54884   4.414   2.341  14.961 -0.1780 -0.3725 -0.1637
10973PNSU   C5B54885   4.348   2.224  14.612  0.1553 -0.3811 -0.1834
10973PNSU   C6B54886   3.922   2.131  14.535 -0.0204  0.0321 -0.0239
10974PNSU    S154887  27.201   7.334   9.004  0.2285  0.0937  0.0230
10974PNSU    C154888  27.190   7.864   8.898  0.2479 -0.0340 -0.0339
10974PNSU    C254889  27.118   7.578   8.952  0.0265  0.0581  0.1700
10974PNSU    C354890  27.050   7.702   8.688 -0.2874  0.0517  0.2458
10974PNSU   AM154891  27.218   7.532   8.335  0.1020  0.2670  0.3238
10974PNSU   AM254892  26.963   7.672   8.402 -0.0191 -0.3350 -0.3146
10974PNSU   T1A54893  27.117   7.192   8.152 -0.1087 -0.0073 -0.1439
10974PNSU   C2A54894  26.919   6.923   7.854 -0.0667 -0.2028  0.2005
10974PNSU   C3A54895  26.770   6.614   7.536 -0.2931 -0.0029 -0.1526
10974PNSU   C1B54896  26.644   7.451   8.178  0.0029 -0.1330 -0.1216
10974PNSU   C2B54897  26.456   7.230   7.785 -0.0555  0.1021 -0.2686
10974PNSU   C3B54898  26.356   6.953   7.497  0.0454 -0.3005  0.1212
10974PNSU   D4B54899  26.180   6.684   7.139  0.2989 -0.1494 -0.0267
10974PNSU   C5B54900  26.010   6.225   7.168  0.2247  0.2134  0.2320
10974PNSU   C6B54901  25.648   5.906   7.058  0.1737  0.2461 -0.1578
10975PNSU    S154902  28.845  11.140   5.894 -0.0832 -0.0620 -0.0328
10975PNSU    C154903  28.733  11.483   5.489  0.0587  0.0880 -0.0618
10975PNSU    C254904  28.748  11.249   5.676  0.1836  0.0795 -0.0824
10975PNSU    C354905  28.567  11.238   5.437  0.0318  0.0865  0.0317
10975PNSU   AM154906  28.849  11.001   5.223  0.0280  0.2866 -0.1955
10975PNSU   AM254907  28.562  11.054   5.226 -0.0151 -0.1309 -0.1043
10975PNSU   T1A54908  28.849  10.662   4.972 -0.1299 -0.0822  0.1453
10975PNSU   C2A54909  28.843  10.364   4.597  0.1108 -0.1986 -0.4324
10975PNSU   C3A54910  28.788  10.296   4.268 -0.1746 -0.3176  0.0102
10975PNSU   C1B54911  28.428  10.911   4.799 -0.0326 -0.1605 -0.0455
10975PNSU   C2B54912  28.388  10.650   4.493  0.3899  0.0756 -0.1582
10975PNSU   C3B54913  28.164  10.488   4.146  0.1420 -0.0524  0.0149
10975PNSU   D4B54914  28.125  10.560   3.725 -0.3403  0.0082  0.1790
10975PNSU   C5B54915  28.154  10.891   3.416 -0.1481 -0.3062  0.0576
10975PNSU   C6B54916  28.289  10.832   3.014  0.3018 -0.0828  0.0213
10976PNSU    S154917  28.641  20.317   4.213 -0.3450  0.0307 -0.2074
10976PNSU    C154918  29.013  20.330   3.832 -0.1402 -0.1722  0.0071
10976PNSU    C254919  28.765  20.384   3.992 -0.1179  0.1227 -0.0537
10976PNSU    C354920  28.784  20.480   3.708 -0.1249 -0.3259 -0.2104
10976PNSU   AM154921  28.395  20.499   3.536 -0.4123 -0.0473  0.4506
10976PNSU   AM254922  28.660  20.623   3.464 -0.0333 -0.4020  0.0088
10976PNSU   T1A54923  28.239  20.702   3.104 -0.0680 -0.1250 -0.0348
10976PNSU   C2A54924  28.198  20.786   2.737  0.2539 -0.0771 -0.2051
10976PNSU   C3A54925  28.126  20.787   2.266  0.0540  0.0451  0.3292
10976PNSU   C1B54926  28.727  20.638   3.052 -0.1068 -0.0669 -0.0403
10976PNSU   C2B54927  28.711  20.588   2.619  0.0565  0.1865  0.3435
10976PNSU   C3B54928  28.828  20.713   2.245  0.3841 -0.0812 -0.0905
10976PNSU   D4B54929  28.757  20.841   1.862 -0.0612 -0.1145 -0.1186
10976PNSU   C5B54930  28.389  20.967   1.740 -0.1990  0.0189  0.1053
10976PNSU   C6B54931  28.075  20.819   1.785 -0.2196 -0.5920  0.1836
10977PNSU    S154932  20.460  33.580  13.497  0.1107  0.1144 -0.0726
10977PNSU    C154933  20.131  33.457  13.891  0.0967 -0.0115 -0.0510
10977PNSU    C254934  20.235  33.519  13.616  0.1692 -0.0059 -0.0224
10977PNSU    C354935  20.084  33.265  13.665  0.0679  0.0410 -0.0896
10977PNSU   AM154936  19.744  33.383  13.437  0.0282 -0.1290 -0.1199
10977PNSU   AM254937  19.856  33.130  13.580  0.0191 -0.0736 -0.2133
10977PNSU   T1A54938  19.422  33.484  13.144  0.0643 -0.1762 -0.0264
10977PNSU   C2A54939  19.351  33.535  12.716  0.2657  0.0842 -0.2552
10977PNSU   C3A54940  19.163  33.682  12.450 -0.1246 -0.2560  0.1253
10977PNSU   C1B54941  19.750  32.953  13.184 -0.2488 -0.2133  0.1156
10977PNSU   C2B54942  19.428  33.033  12.900 -0.1229  0.0849  0.0697
10977PNSU   C3B54943  19.194  33.099  12.453 -0.1826 -0.0425  0.0355
10977PNSU   D4B54944  19.088  32.826  12.119  0.5208  0.2812  0.1564
10977PNSU   C5B54945  18.955  32.388  12.264  0.3757  0.1410  0.1829
10977PNSU   C6B54946  18.591  32.369  12.127 -0.1841  0.1570  0.2384
10978PNSU    S154947  26.773  11.343   6.630 -0.1117  0.0184  0.0734
10978PNSU    C154948  27.014  10.910   6.777 -0.0947 -0.0457 -0.0955
10978PNSU    C254949  26.844  11.092   6.609 -0.0020  0.0609 -0.0737
10978PNSU    C354950  26.849  10.797   6.553 -0.2839  0.0411 -0.0013
10978PNSU   AM154951  26.442  10.691   6.487 -0.1770 -0.4036  0.0353
10978PNSU   AM254952  26.767  10.639   6.378  0.2268 -0.4089  0.1337
10978PNSU   T1A54953  25.955  10.580   6.248 -0.0494 -0.2764  0.3557
10978PNSU   C2A54954  25.593  10.498   5.857  0.3798 -0.3177 -0.0292
10978PNSU   C3A54955  25.454  10.161   5.645 -0.0120 -0.3639  0.0499
10978PNSU   C1B54956  26.551  10.481   6.079  0.0284  0.0330 -0.0914
10978PNSU   C2B54957  26.403  10.145   5.764 -0.1147  0.0978 -0.1006
10978PNSU   C3B54958  26.356  10.079   5.391 -0.3019  0.1352  0.2125
10978PNSU   D4B54959  26.030  10.079   5.054 -0.3960 -0.0565  0.2251
10978PNSU   C5B54960  25.963   9.632   4.880 -0.1364  0.0205 -0.2900
10978PNSU   C6B54961  26.011   9.204   4.940  0.1152  0.2807 -0.0876
10979PNSU    S154962   3.086   7.867  14.263  0.1040  0.2224  0.1303
10979PNSU    C154963   2.614   8.148  14.286 -0.1596 -0.1902  0.0874
10979PNSU    C254964   2.879   8.021  14.223 -0.0651 -0.0071  0.1119
10979PNSU    C354965   2.641   7.967  14.049  0.0591  0.0566 -0.0788
10979PNSU   AM154966   2.748   7.573  13.928 -0.2194 -0.0654  0.0661
10979PNSU   AM254967   2.689   7.833  13.784  0.3895 -0.3284 -0.1170
10979PNSU   T1A54968   3.199   7.720  13.831  0.1292  0.1330  0.0016
10979PNSU   C2A54969   3.511   7.687  13.483 -0.2262  0.0155  0.0348
10979PNSU   C3A54970   3.767   7.677  13.154  0.0163  0.1293 -0.2053
10979PNSU   C1B54971   2.938   8.004  13.488  0.0319 -0.2614  0.4068
10979PNSU   C2B54972   3.256   8.276  13.258 -0.0295  0.0278  0.2976
10979PNSU   C3B54973   3.642   8.201  13.009 -0.0665 -0.0388 -0.1391
10979PNSU   D4B54974   4.018   7.894  12.773 -0.0499  0.0195 -0.0345
10979PNSU   C5B54975   4.393   8.130  12.684 -0.0354  0.2445 -0.0258
10979PNSU   C6B54976   4.773   8.340  12.650  0.2350 -0.1168 -0.3535
10980PNSU    S154977  27.612  12.065   5.348 -0.0933  0.1101 -0.0803
10980PNSU    C154978  28.120  12.181   5.510  0.2004 -0.2143  0.0919
10980PNSU    C254979  27.872  12.087   5.369 -0.1270  0.0348  0.4921
10980PNSU    C354980  28.142  11.998   5.273 -0.3515  0.0301 -0.1576
10980PNSU   AM154981  28.096  11.622   5.078 -0.0782 -0.1105  0.0444
10980PNSU   AM254982  28.355  11.689   5.165  0.2467  0.2012  0.0572
10980PNSU   T1A54983  28.017  11.392   4.747  0.0597 -0.0327 -0.0895
10980PNSU   C2A54984  28.095  11.066   4.465 -0.1144  0.2364 -0.0017
10980PNSU   C3A54985  28.176  10.972   4.079  0.1396  0.0542 -0.0718
10980PNSU   C1B54986  28.557  11.352   4.796  0.1956  0.0870  0.0897
10980PNSU   C2B54987  28.513  11.263   4.329 -0.2362  0.1916  0.2495
10980PNSU   C3B54988  28.630  11.327   3.946 -0.0568  0.1894 -0.1675
10980PNSU   D4B54989  28.515  11.048   3.649 -0.1818 -0.1273 -0.0780
10980PNSU   C5B54990  28.646  11.111   3.220 -0.0606 -0.0007  0.1044
10980PNSU   C6B54991  28.920  10.965   2.831 -0.2643  0.0651 -0.0497
10981PNSU    S154992  20.461  28.670  14.495 -0.2865 -0.0454 -0.0499
10981PNSU    C154993  20.596  28.487  14.990 -0.0321  0.0988 -0.0968
10981PNSU    C254994  20.566  28.540  14.696  0.0129  0.1180 -0.0978
10981PNSU    C354995  20.356  28.383  14.843  0.0757 -0.0401 -0.1760
10981PNSU   AM154996  20.046  28.397  14.551 -0.1416 -0.3221  0.0394
10981PNSU   AM254997  20.114  28.262  14.860  0.4766 -0.1854  0.2352
10981PNSU   T1A54998  19.701  28.159  14.429  0.3005 -0.0664 -0.2045
10981PNSU   C2A54999  19.411  27.869  14.305  0.2494  0.1306  0.2955
10981PNSU   C3A55000  19.062  27.650  14.364  0.0480 -0.0891 -0.1336
10981PNSU   C1B55001  20.059  27.871  14.616  0.1227  0.3263  0.1308
10981PNSU   C2B55002  19.799  27.620  14.504  0.0125  0.1622 -0.0937
10981PNSU   C3B55003  19.506  27.381  14.328  0.5365 -0.2015  0.1605
10981PNSU   D4B55004  19.555  27.016  14.498  0.1435  0.1782 -0.2862
10981PNSU   C5B55005  19.981  26.906  14.504  0.0505  0.0140  0.2123
10981PNSU   C6B55006  20.300  26.906  14.605 -0.0305  0.1241 -0.0204
10982PNSU    S155007  19.535  32.186  14.372 -0.0508 -0.0815  0.1119
10982PNSU    C155008  19.962  32.429  14.304 -0.2739  0.0544  0.0136
10982PNSU    C255009  19.761  32.215  14.242 -0.2064  0.0346 -0.1369
10982PNSU    C355010  19.908  32.352  14.019 -0.0270  0.0236 -0.0264
10982PNSU   AM155011  19.866  32.060  13.712  0.4509  0.1123 -0.1787
10982PNSU   AM255012  19.883  32.381  13.786 -0.1944 -0.0002  0.1398
10982PNSU   T1A55013  19.564  32.158  13.387 -0.1171 -0.1411 -0.0160
10982PNSU   C2A55014  19.263  32.156  13.149 -0.1168  0.0468  0.2299
10982PNSU   C3A55015  19.076  32.228  12.806 -0.0422  0.1522  0.0418
10982PNSU   C1B55016  19.588  32.633  13.645  0.2349  0.2360 -0.1719
10982PNSU   C2B55017  19.302  32.662  13.361 -0.0936  0.3969  0.0152
10982PNSU   C3B55018  19.041  32.686  12.976 -0.2157  0.0483 -0.0631
10982PNSU   D4B55019  18.666  32.546  12.829 -0.2126  0.4035 -0.1854
10982PNSU   C5B55020  18.622  32.176  12.579 -0.0494  0.0347  0.0372
10982PNSU   C6B55021  18.773  31.940  12.253 -0.0274 -0.0780 -0.1083
10983PNSU    S155022  26.562   8.368   8.920  0.0278 -0.4145  0.1944
10983PNSU    C155023  26.441   8.252   8.450 -0.1425  0.1877  0.1092
10983PNSU    C255024  26.381   8.311   8.738 -0.0815  0.0442  0.1521
10983PNSU    C355025  26.167   8.202   8.560 -0.0903  0.0332  0.1701
10983PNSU   AM155026  25.914   8.482   8.362 -0.2397 -0.0871  0.1889
10983PNSU   AM255027  25.883   8.372   8.653 -0.1945  0.0474 -0.0757
10983PNSU   T1A55028  25.637   8.390   8.044 -0.2466  0.1897 -0.2932
10983PNSU   C2A55029  25.371   8.282   7.698  0.2654 -0.0745 -0.2125
10983PNSU   C3A55030  25.082   8.134   7.465 -0.1576  0.1992 -0.3943
10983PNSU   C1B55031  25.455   8.280   8.571  0.1500  0.2006  0.1211
10983PNSU   C2B55032  25.068   8.231   8.302  0.1706  0.1599 -0.1315
10983PNSU   C3B55033  24.816   8.088   8.063  0.3103  0.2845  0.0426
10983PNSU   D4B55034  24.603   8.173   7.619 -0.1120 -0.0190 -0.0148
10983PNSU   C5B55035  24.677   7.838   7.352 -0.4221  0.0007  0.0152
10983PNSU   C6B55036  24.753   7.809   7.023  0.4523 -0.0623  0.1833
10984PNSU    S155037  34.987  13.561   7.663 -0.2773 -0.0016  0.0317
10984PNSU    C155038  34.835  13.031   7.641  0.1306 -0.0997  0.1640
10984PNSU    C255039  34.951  13.306   7.613  0.1078 -0.0883  0.1792
10984PNSU    C355040  35.130  13.073   7.671  0.1246 -0.0739  0.1865
10984PNSU   AM155041   0.036  13.249   7.414 -0.1003 -0.1585 -0.1297
10984PNSU   AM255042  35.351  13.052   7.627  0.2240 -0.0194 -0.2045
10984PNSU   T1A55043   0.208  13.063   7.107  0.3134 -0.0805  0.0130
10984PNSU   C2A55044   0.486  13.080   6.820  0.2700 -0.1462 -0.2105
10984PNSU   C3A55045   0.760  12.867   6.642 -0.0380  0.0416  0.0746
10984PNSU   C1B55046   0.144  12.725   7.416 -0.2694  0.2786 -0.1580
10984PNSU   C2B55047   0.504  12.622   7.176  0.4296  0.0199 -0.2440
10984PNSU   C3B55048   0.956  12.511   6.996  0.1914 -0.0426  0.2030
10984PNSU   D4B55049   1.296  12.648   6.636  0.1081  0.0366  0.4291
10984PNSU   C5B55050   1.034  12.867   6.261  0.1397 -0.2690  0.0788
10984PNSU   C6B55051   0.778  13.075   5.973 -0.1531  0.0248  0.0941
10985PNSU    S155052  21.941  33.801  12.499  0.1059  0.0154 -0.1973
10985PNSU    C155053  21.661  34.250  12.679 -0.0488 -0.1800  0.0815
10985PNSU    C255054  21.805  34.018  12.554 -0.1753 -0.2036 -0.0207
10985PNSU    C355055  21.691  34.234  12.381  0.2598  0.1238  0.0929
10985PNSU   AM155056  21.862  34.023  12.053 -0.2138 -0.2595  0.0863
10985PNSU   AM255057  21.781  34.329  12.136  0.2840  0.0485  0.3301
10985PNSU   T1A55058  22.111  34.248  11.718 -0.0106 -0.2296  0.0805
10985PNSU   C2A55059  21.989  34.304  11.300 -0.0432  0.1450 -0.0374
10985PNSU   C3A55060  21.758  34.389  10.955 -0.1120  0.0876  0.0685
10985PNSU   C1B55061  21.628  34.335  11.737 -0.3255 -0.0583 -0.2284
10985PNSU   C2B55062  21.445  34.257  11.349  0.1025  0.0424  0.0190
10985PNSU   C3B55063  21.287  34.240  10.915  0.0171 -0.1748 -0.0788
10985PNSU   D4B55064  21.026  33.908  10.522  0.1498  0.0424 -0.2124
10985PNSU   C5B55065  20.657  33.870  10.365 -0.0573 -0.2499  0.0652
10985PNSU   C6B55066  20.412  34.133  10.035  0.0013 -0.1907  0.1024
10986PNSU    S155067  21.215  28.817  13.658 -0.1086 -0.0060  0.0462
10986PNSU    C155068  20.936  28.429  13.792 -0.1085  0.3255 -0.0790
10986PNSU    C255069  21.172  28.558  13.660  0.1216 -0.0465 -0.0378
10986PNSU    C355070  20.995  28.373  13.504 -0.0190  0.0638 -0.0110
10986PNSU   AM155071  20.772  28.636  13.253 -0.0756  0.0435  0.0181
10986PNSU   AM255072  20.869  28.380  13.313  0.0421  0.2102 -0.2222
10986PNSU   T1A55073  20.438  28.736  13.216 -0.0378 -0.2278  0.2233
10986PNSU   C2A55074  20.132  28.936  13.145 -0.1255 -0.0625  0.0930
10986PNSU   C3A55075  19.950  29.195  13.212  0.1623 -0.2372 -0.1796
10986PNSU   C1B55076  20.408  28.253  13.143  0.0428  0.1207 -0.0972
10986PNSU   C2B55077  20.068  28.404  12.993  0.1202  0.0891  0.1580
10986PNSU   C3B55078  19.731  28.659  13.055  0.1601  0.1204 -0.0062
10986PNSU   D4B55079  19.591  29.021  12.913 -0.1512 -0.0112  0.0060
10986PNSU   C5B55080  19.374  29.128  12.586 -0.1457 -0.1392  0.2215
10986PNSU   C6B55081  19.328  29.400  12.276 -0.0066 -0.2073  0.3834
10987PNSU    S155082  25.354   4.291  11.040 -0.0382  0.0417 -0.4509
10987PNSU    C155083  25.665   3.847  11.117  0.0224  0.0973 -0.0035
10987PNSU    C255084  25.461   4.051  11.037 -0.0805  0.0108  0.0385
10987PNSU    C355085  25.605   3.893  10.827 -0.1279  0.0031  0.0120
10987PNSU   AM155086  25.366   3.632  10.590  0.1312 -0.0629 -0.1791
10987PNSU   AM255087  25.554   3.795  10.642 -0.1502 -0.2347 -0.2657
10987PNSU   T1A55088  25.004   3.463  10.396 -0.0869 -0.0841 -0.0639
10987PNSU   C2A55089  24.784   3.285  10.161  0.1779 -0.1451 -0.1017
10987PNSU   C3A55090  24.841   3.083   9.798  0.0065 -0.0495 -0.1685
10987PNSU   C1B55091  25.467   3.930  10.196  0.0905  0.0704 -0.3840
10987PNSU   C2B55092  25.512   3.791   9.871  0.0665 -0.0137 -0.0016
10987PNSU   C3B55093  25.457   3.770   9.409 -0.0974  0.1102 -0.1217
10987PNSU   D4B55094  25.383   4.005   9.016  0.1308 -0.0967 -0.0247
10987PNSU   C5B55095  25.545   4.237   8.670  0.2178  0.0159 -0.1249
10987PNSU   C6B55096  25.410   4.591   8.645 -0.2737 -0.2061 -0.0854
10988PNSU    S155097   2.305  24.235  16.009  0.0424  0.0251  0.3058
10988PNSU    C155098   2.517  24.678  16.162  0.1211  0.1830 -0.0507
10988PNSU    C255099   2.462  24.443  15.983 -0.0830  0.0983  0.1215
10988PNSU    C355100   2.619  24.677  15.879  0.2126 -0.1577 -0.0186
10988PNSU   AM155101   2.863  24.512  15.572  0.2401 -0.2630  0.0593
10988PNSU   AM255102   2.734  24.714  15.709  0.2416 -0.1012 -0.0557
10988PNSU   T1A55103   3.160  24.625  15.345 -0.0800 -0.1533  0.1556
10988PNSU   C2A55104   3.412  25.020  15.295  0.0818 -0.1738  0.1570
10988PNSU   C3A55105   3.577  25.324  15.194  0.0432 -0.0784  0.4778
10988PNSU   C1B55106   2.996  25.073  15.576 -0.0292  0.1776  0.2085
10988PNSU   C2B55107   2.969  25.369  15.325  0.1788  0.0695 -0.0435
10988PNSU   C3B55108   3.184  25.607  15.120 -0.1871  0.0049 -0.2158
10988PNSU   D4B55109   3.578  25.784  14.944 -0.0459 -0.0125  0.1361
10988PNSU   C5B55110   3.529  26.126  14.668  0.2728 -0.0135  0.0245
10988PNSU   C6B55111   3.034  26.360  14.585  0.5658 -0.0917 -0.0495
10989PNSU    S155112  20.778  31.050  14.219 -0.0085 -0.1237  0.1712
10989PNSU    C155113  20.778  30.562  13.958 -0.1548 -0.0912  0.1550
10989PNSU    C255114  20.749  30.841  14.063 -0.1325 -0.0829  0.1399
10989PNSU    C355115  20.560  30.739  13.853 -0.2375 -0.1315  0.2569
10989PNSU   AM155116  20.485  31.067  13.591 -0.0099 -0.1809  0.1287
10989PNSU   AM255117  20.411  30.778  13.697  0.2054  0.0734 -0.0861
10989PNSU   T1A55118  20.038  31.047  13.395 -0.0251 -0.3086  0.3303
10989PNSU   C2A55119  19.717  30.927  13.089 -0.1136 -0.2625 -0.1494
10989PNSU   C3A55120  19.464  30.805  12.850  0.0181  0.3215  0.3408
10989PNSU   C1B55121  20.049  30.615  13.617 -0.2165 -0.3001 -0.0156
10989PNSU   C2B55122  19.729  30.510  13.338  0.2350  0.1431 -0.0777
10989PNSU   C3B55123  19.556  30.356  13.096 -0.2563  0.0108 -0.2713
10989PNSU   D4B55124  19.252  30.311  12.800  0.0383  0.0030  0.1568
10989PNSU   C5B55125  18.952  30.617  12.645  0.1212 -0.0020 -0.2020
10989PNSU   C6B55126  18.596  30.961  12.909 -0.1078  0.1140 -0.0986
10990PNSU    S155127  20.744  32.721  13.113 -0.1626  0.0750 -0.0782
10990PNSU    C155128  20.833  32.552  13.631  0.0680  0.2343 -0.1543
10990PNSU    C255129  20.737  32.619  13.354 -0.1426 -0.1868 -0.1874
10990PNSU    C355130  20.546  32.507  13.556 -0.0030  0.1698  0.1502
10990PNSU   AM155131  20.184  32.651  13.383  0.1514  0.0416 -0.2842
10990PNSU   AM255132  20.299  32.356  13.541 -0.0372 -0.2636 -0.0046
10990PNSU   T1A55133  19.911  32.464  13.142  0.0608 -0.1610 -0.2259
10990PNSU   C2A55134  19.508  32.503  12.937  0.4189 -0.2633  0.2560
10990PNSU   C3A55135  19.283  32.587  12.555 -0.2146  0.0744  0.3618
10990PNSU   C1B55136  20.157  31.997  13.259  0.2579 -0.1331  0.0204
10990PNSU   C2B55137  19.778  31.873  13.027 -0.1233  0.0173 -0.1206
10990PNSU   C3B55138  19.392  31.797  12.880  0.0113 -0.2346 -0.0018
10990PNSU   D4B55139  19.239  31.541  12.479 -0.0787 -0.0158 -0.1425
10990PNSU   C5B55140  19.006  31.483  12.182 -0.1113  0.4189 -0.0285
10990PNSU   C6B55141  18.627  31.649  11.862 -0.3570  0.0611 -0.2120
10991CHOL   ROH55142  19.748  12.759  10.823 -0.1698  0.1642  0.0538
10991CHOL    R155143  19.888  12.913  11.016 -0.1932  0.1618  0.0730
10991CHOL    R255144  19.797  12.944  11.275 -0.2077  0.1314  0.0732
10991CHOL    R355145  20.044  12.853  11.339 -0.2018  0.1491  0.0741
10991CHOL    R455146  19.916  12.906  11.597 -0.2342  0.0578  0.0742
10991CHOL    R555147  20.108  12.983  11.530 -0.2398  0.1033  0.1165
10991CHOL    C155148  20.217  12.797  11.845 -0.2440  0.0312  0.0754
10991CHOL    C255149  20.285  12.836  12.272 -0.4395  0.1053 -0.0476
10992CHOL   ROH55150  33.752   4.193   7.468  0.2121 -0.1112  0.2069
10992CHOL    R155151  33.662   4.139   7.731 -0.1366 -0.0187  0.1085
10992CHOL    R255152  33.811   4.199   7.955 -0.2433 -0.3333  0.2674
10992CHOL    R355153  33.586   4.332   8.029 -0.0876  0.0427  0.0814
10992CHOL    R455154  33.736   4.294   8.279 -0.3334 -0.1696  0.1992
10992CHOL    R555155  33.528   4.237   8.241 -0.4009  0.1609  0.0519
10992CHOL    C155156  33.480   4.473   8.537 -0.2397  0.2787 -0.0152
10992CHOL    C255157  33.390   4.693   8.846 -0.4825  0.3454 -0.0786
10993CHOL   ROH55158  20.782  20.538  16.047  0.0330 -0.0809 -0.0487
10993CHOL    R155159  20.515  20.601  16.112  0.0095 -0.0744 -0.1499
10993CHOL    R255160  20.425  20.862  16.134  0.0285 -0.0715 -0.1007
10993CHOL    R355161  20.238  20.778  15.954  0.1027  0.0114 -0.2165
10993CHOL    R455162  20.107  20.994  16.103 -0.1167 -0.3597  0.1360
10993CHOL    R555163  20.031  20.791  16.073  0.0963 -0.3967 -0.1751
10993CHOL    C155164  19.747  20.992  15.917 -0.1314 -0.4501  0.1652
10993CHOL    C255165  19.453  21.141  16.100  0.0590 -0.0025  0.1305
10994CHOL   ROH55166  33.496  23.248   5.508 -0.1160 -0.2039  0.0899
10994CHOL    R155167  33.641  23.254   5.265 -0.1083 -0.0816  0.0973
10994CHOL    R255168  33.775  23.479   5.176 -0.2639  0.0209  0.1212
10994CHOL    R355169  33.987  23.309   5.165 -0.1410  0.1728  0.1179
10994CHOL    R455170  34.062  23.534   4.992 -0.2052  0.3391  0.3036
10994CHOL    R555171  34.061  23.323   4.937 -0.0332  0.3731  0.1639
10994CHOL    C155172  34.428  23.407   4.873 -0.0562  0.6670  0.4070
10994CHOL    C255173  34.452  23.462   4.433  0.2226 -0.0259 -0.3959
10995CHOL   ROH55174  11.610  10.141  17.177  0.0056  0.0394  0.1864
10995CHOL    R155175  11.537  10.388  17.061 -0.1191  0.0340  0.2527
10995CHOL    R255176  11.565  10.629  17.194  0.1361  0.0513  0.1689
10995CHOL    R355177  11.706  10.698  16.972 -0.1870 -0.0174 -0.0609
10995CHOL    R455178  11.608  10.953  17.082  0.1913  0.0397  0.1556
10995CHOL    R555179  11.581  10.880  16.878 -0.2126  0.0957  0.1850
10995CHOL    C155180  11.765  11.207  16.807 -0.0799 -0.0317 -0.0671
10995CHOL    C255181  11.810  11.622  16.913 -0.1123  0.1490 -0.0444
10996CHOL   ROH55182  11.513   2.109  14.874 -0.0255 -0.0158  0.0746
10996CHOL    R155183  11.572   2.147  15.148  0.2804  0.1415 -0.0115
10996CHOL    R255184  11.583   1.939  15.328 -0.1217  0.3087  0.2119
10996CHOL    R355185  11.830   2.039  15.380  0.1838 -0.2640 -0.0895
10996CHOL    R455186  11.763   1.881  15.618 -0.1794  0.4091  0.2682
10996CHOL    R555187  11.826   2.090  15.614  0.4022  0.2378 -0.1879
10996CHOL    C155188  12.099   1.942  15.836  0.0736 -0.0700  0.0178
10996CHOL    C255189  12.028   1.835  16.257 -0.0373 -0.0538 -0.1897
10997CHOL   ROH55190  34.762  24.415   3.544 -0.1172  0.0799 -0.0910
10997CHOL    R155191  34.509  24.441   3.668 -0.1026  0.0460 -0.0557
10997CHOL    R255192  34.362  24.223   3.753 -0.0453  0.0283 -0.0031
10997CHOL    R355193  34.363  24.355   3.990 -0.0364  0.0613 -0.0214
10997CHOL    R455194  34.131  24.177   4.005  0.0141 -0.0004  0.0468
10997CHOL    R555195  34.131  24.392   4.039 -0.0381  0.0050  0.0171
10997CHOL    C155196  33.997  24.274   4.375  0.0583  0.0138  0.0586
10997CHOL    C255197  33.911  24.296   4.721  0.1791 -0.2344  0.1631
10998CHOL   ROH55198   1.737  12.339  11.235 -0.0511 -0.1236  0.0594
10998CHOL    R155199   1.843  12.153  11.050 -0.0533 -0.1534  0.0881
10998CHOL    R255200   1.930  12.226  10.798 -0.0555 -0.1935  0.0761
10998CHOL    R355201   2.160  12.104  10.877 -0.0549 -0.1820  0.0930
10998CHOL    R455202   2.208  12.181  10.598  0.0571  0.0504  0.1745
10998CHOL    R555203   2.231  11.982  10.684  0.0780 -0.0098  0.0314
10998CHOL    C155204   2.586  12.039  10.556  0.1233  0.2031  0.2480
10998CHOL    C255205   2.909  12.137  10.487  0.2093  0.3399  0.3458
10999CHOL   ROH55206  18.719   3.963  15.647  0.0428 -0.1917 -0.2028
10999CHOL    R155207  18.674   4.148  15.437 -0.0866 -0.2183 -0.1992
10999CHOL    R255208  18.850   4.353  15.380 -0.3189  0.0151 -0.0822
10999CHOL    R355209  18.845   4.246  15.131 -0.0556  0.0413 -0.1003
10999CHOL    R455210  18.926   4.524  15.090 -0.2899  0.1241 -0.0104
10999CHOL    R555211  18.761   4.422  14.992 -0.1307 -0.0194 -0.1317
10999CHOL    C155212  18.966   4.523  14.686 -0.0256  0.2123  0.0142
10999CHOL    C255213  19.030   4.773  14.578 -0.3299 -0.0702 -0.1121
11000CHOL   ROH55214  13.849  33.038  19.608  0.2314 -0.0262 -0.1165
11000CHOL    R155215  13.715  33.249  19.475  0.0587 -0.1122 -0.0792
11000CHOL    R255216  13.842  33.418  19.298 -0.0679  0.0535 -0.0130
11000CHOL    R355217  13.642  33.340  19.131  0.0281 -0.0834 -0.0650
11000CHOL    R455218  13.805  33.524  18.971 -0.1879  0.2148  0.0523
11000CHOL    R555219  13.590  33.537  19.005 -0.2061 -0.0648  0.0570
11000CHOL    C155220  13.596  33.513  18.624 -0.1674  0.1804  0.0413
11000CHOL    C255221  13.752  33.494  18.343 -0.1068  0.1698 -0.0516
11001CHOL   ROH55222  18.819  10.508  12.612  0.1760 -0.3699 -0.0174
11001CHOL    R155223  19.012  10.546  12.815  0.2111 -0.3178 -0.0602
11001CHOL    R255224  18.943  10.584  13.080  0.2513 -0.1002 -0.0802
11001CHOL    R355225  19.111  10.375  13.121  0.1567 -0.1514  0.0517
11001CHOL    R455226  19.035  10.462  13.390  0.3119  0.1490  0.0007
11001CHOL    R555227  19.238  10.437  13.314  0.2682 -0.0316 -0.0590
11001CHOL    C155228  19.247  10.195  13.609  0.2582  0.2461  0.1717
11001CHOL    C255229  19.061  10.054  13.845 -0.0381 -0.0631 -0.1760
11002CHOL   ROH55230  25.487   4.339   7.809 -0.0892  0.1002  0.1908
11002CHOL    R155231  25.482   4.591   7.680 -0.2190  0.1090  0.2116
11002CHOL    R255232  25.474   4.829   7.820  0.0183  0.1037  0.2393
11002CHOL    R355233  25.694   4.887   7.670 -0.1744  0.0683 -0.0613
11002CHOL    R455234  25.564   5.146   7.715  0.0984  0.1295  0.3860
11002CHOL    R555235  25.621   5.061   7.523 -0.2762  0.2610  0.2141
11002CHOL    C155236  25.823   5.385   7.514 -0.0356  0.1115  0.1894
11002CHOL    C255237  25.968   5.682   7.339  0.1477 -0.0132 -0.4843
11003CHOL   ROH55238  20.603  11.094  15.476 -0.0942 -0.1553  0.2506
11003CHOL    R155239  20.387  11.242  15.367 -0.2630 -0.2892  0.4021
11003CHOL    R255240  20.387  11.336  15.107 -0.1658  0.3649  0.6306
11003CHOL    R355241  20.150  11.202  15.094  0.0944 -0.0571  0.0532
11003CHOL    R455242  20.151  11.376  14.858 -0.0015  0.5774  0.5079
11003CHOL    R555243  19.995  11.364  15.010 -0.1322 -0.1229  0.3360
11003CHOL    C155244  19.792  11.274  14.700  0.3378  0.3048 -0.1058
11003CHOL    C255245  19.513  11.376  14.667 -0.0264  0.4309  0.1995
11004CHOL   ROH55246  22.921  27.775  10.688  0.1858  0.1511 -0.1032
11004CHOL    R155247  22.803  27.867  10.448  0.0427  0.1125 -0.0481
11004CHOL    R255248  22.861  27.757  10.201  0.0198  0.1801 -0.0837
11004CHOL    R355249  22.591  27.729  10.186  0.0308  0.0197  0.0106
11004CHOL    R455250  22.694  27.583   9.954  0.0301  0.1795 -0.0906
11004CHOL    R555251  22.542  27.740   9.952 -0.0681  0.0877  0.0338
11004CHOL    C155252  22.343  27.455   9.795  0.0464  0.0290 -0.0061
11004CHOL    C255253  22.106  27.065   9.721 -0.2627  0.3391 -0.1865
11005CHOL   ROH55254  32.354  20.079   4.066 -0.0888  0.1580  0.0217
11005CHOL    R155255  32.519  20.026   3.843 -0.2728 -0.2640 -0.0194
11005CHOL    R255256  32.425  19.903   3.614 -0.7085  0.1878 -0.0937
11005CHOL    R355257  32.528  20.123   3.492  0.0300 -0.0721  0.0404
11005CHOL    R455258  32.475  19.934   3.274 -0.5241  0.2005 -0.0654
11005CHOL    R555259  32.665  20.034   3.316 -0.2060 -0.4223  0.0314
11005CHOL    C155260  32.602  20.159   2.961  0.2759 -0.0362  0.0771
11005CHOL    C255261  32.433  19.862   2.737 -0.0529  0.1918 -0.0467
11006CHOL   ROH55262   8.038  12.384  13.306 -0.0590 -0.2337  0.1569
11006CHOL    R155263   7.940  12.479  13.554  0.0483 -0.2746  0.2149
11006CHOL    R255264   7.690  12.592  13.582  0.2467  0.1703  0.2420
11006CHOL    R355265   7.662  12.403  13.776 -0.1606  0.0430  0.0648
11006CHOL    R455266   7.588  12.655  13.907  0.3875  0.0868  0.3031
11006CHOL    R555267   7.737  12.512  13.976  0.0803 -0.3057  0.1684
11006CHOL    C155268   7.502  12.515  14.277  0.0872 -0.0814  0.1722
11006CHOL    C255269   7.271  12.807  14.284  0.2164  0.0960  0.2113
11007CHOL   ROH55270  21.102  20.596   9.050 -0.0490  0.1654  0.0598
11007CHOL    R155271  21.364  20.563   9.151 -0.0460  0.0912  0.0289
11007CHOL    R255272  21.422  20.580   9.420 -0.0245 -0.0185  0.0323
11007CHOL    R355273  21.532  20.335   9.379 -0.0619 -0.0184 -0.0687
11007CHOL    R455274  21.616  20.409   9.650  0.0679 -0.0818 -0.0923
11007CHOL    R555275  21.746  20.347   9.487 -0.0122 -0.0580 -0.1642
11007CHOL    C155276  21.832  20.080   9.745  0.0862 -0.1188 -0.2597
11007CHOL    C255277  21.852  19.815  10.112  0.1320  0.2683  0.3012
11008CHOL   ROH55278  29.813  17.269   0.730  0.1813 -0.1423  0.0018
11008CHOL    R155279  29.741  17.450   0.936  0.0227 -0.1909 -0.0101
11008CHOL    R255280  29.782  17.396   1.203  0.0459 -0.1487 -0.0053
11008CHOL    R355281  29.913  17.634   1.199 -0.1419 -0.0438 -0.0040
11008CHOL    R455282  29.843  17.593   1.480  0.1902 -0.2689  0.0491
11008CHOL    R555283  29.798  17.768   1.359 -0.0755 -0.2293  0.2019
11008CHOL    C155284  30.002  17.931   1.638  0.0974 -0.2405  0.0820
11008CHOL    C255285  29.799  18.222   1.760 -0.1730 -0.0424  0.1208
11009CHOL   ROH55286  32.010   6.939   9.375  0.0743 -0.0033  0.0418
11009CHOL    R155287  32.124   7.030   9.132  0.0134  0.1814  0.0823
11009CHOL    R255288  32.115   6.883   8.899  0.2449  0.2119  0.0559
11009CHOL    R355289  32.005   7.110   8.798 -0.0141  0.0952  0.0708
11009CHOL    R455290  32.075   6.950   8.562  0.3181  0.2520  0.0546
11009CHOL    R555291  32.134   7.156   8.601  0.0225  0.3248  0.1446
11009CHOL    C155292  31.948   7.202   8.271  0.1172  0.1658  0.0679
11009CHOL    C255293  32.114   6.958   8.071 -0.0406 -0.4399 -0.3281
11010CHOL   ROH55294  30.452  11.938   4.225  0.0047  0.0710 -0.0511
11010CHOL    R155295  30.565  11.821   3.994  0.0944  0.1239 -0.0341
11010CHOL    R255296  30.430  11.636   3.840  0.2534 -0.0402  0.0212
11010CHOL    R355297  30.490  11.809   3.639  0.0718 -0.0302 -0.0245
11010CHOL    R455298  30.509  11.543   3.516  0.2968 -0.0404  0.0317
11010CHOL    R555299  30.662  11.699   3.514  0.1564  0.0980 -0.0217
11010CHOL    C155300  30.610  11.652   3.139  0.1513 -0.0311 -0.0051
11010CHOL    C255301  30.500  11.587   2.755  0.2917  0.0263 -0.0233
11011CHOL   ROH55302  22.411  27.972   8.262  0.1966  0.2007 -0.1237
11011CHOL    R155303  22.688  28.003   8.309  0.2045  0.0834 -0.0912
11011CHOL    R255304  22.846  27.797   8.404  0.1199 -0.0038 -0.1395
11011CHOL    R355305  22.996  27.854   8.184  0.1598  0.0063 -0.1099
11011CHOL    R455306  23.184  27.730   8.372  0.1385  0.0504 -0.0586
11011CHOL    R555307  23.208  27.922   8.272  0.1286  0.0481 -0.0662
11011CHOL    C155308  23.520  27.744   8.146  0.1871  0.0915  0.0165
11011CHOL    C255309  23.521  27.399   7.863  0.2193 -0.0204 -0.0872
11012CHOL   ROH55310   0.635  15.430   7.369  0.1174  0.0375  0.1765
11012CHOL    R155311   0.845  15.480   7.186  0.0396  0.0056  0.0779
11012CHOL    R255312   1.112  15.446   7.252  0.0661 -0.0249 -0.0434
11012CHOL    R355313   1.112  15.288   7.030 -0.0560 -0.0323 -0.0389
11012CHOL    R455314   1.395  15.312   7.105 -0.0354 -0.2282 -0.0565
11012CHOL    R555315   1.308  15.356   6.910 -0.0155 -0.1735 -0.0523
11012CHOL    C155316   1.560  15.087   6.812 -0.2090 -0.3535 -0.0599
11012CHOL    C255317   1.807  15.004   6.619  0.3436 -0.1974 -0.2520
11013CHOL   ROH55318  22.481  25.730  13.202 -0.0711  0.0064 -0.1483
11013CHOL    R155319  22.317  25.657  12.983 -0.1375 -0.0975 -0.0644
11013CHOL    R255320  22.220  25.400  12.949 -0.1752 -0.1071  0.1034
11013CHOL    R355321  21.980  25.527  12.938 -0.1639 -0.0869  0.0983
11013CHOL    R455322  21.954  25.302  12.751 -0.2138 -0.1406  0.1715
11013CHOL    R555323  21.916  25.512  12.708 -0.1984 -0.1507  0.1127
11013CHOL    C155324  21.573  25.365  12.626 -0.2253 -0.1403  0.2066
11013CHOL    C255325  21.220  25.194  12.592 -0.0794  0.1322 -0.0879
11014CHOL   ROH55326   1.051  27.232  15.405  0.0617 -0.2130 -0.0952
11014CHOL    R155327   1.165  27.477  15.321  0.1811 -0.2037  0.0898
11014CHOL    R255328   1.432  27.537  15.359  0.2414 -0.4180  0.0194
11014CHOL    R355329   1.428  27.580  15.091  0.1360 -0.1515  0.0622
11014CHOL    R455330   1.661  27.730  15.186  0.3342 -0.4717  0.0815
11014CHOL    R555331   1.497  27.808  15.066  0.3442 -0.1936  0.2470
11014CHOL    C155332   1.790  27.883  14.834  0.2893 -0.2526  0.1583
11014CHOL    C255333   1.941  28.107  14.636  0.1555 -0.1017  0.0749
11015CHOL   ROH55334   1.939  23.325  12.690  0.2397 -0.0765  0.3914
11015CHOL    R155335   2.137  23.510  12.608  0.1524 -0.0216  0.3045
11015CHOL    R255336   2.102  23.680  12.394  0.0746 -0.1448  0.2195
11015CHOL    R355337   2.165  23.871  12.577 -0.0207 -0.0227  0.1259
11015CHOL    R455338   2.321  23.942  12.339 -0.0357 -0.0767  0.0990
11015CHOL    R555339   2.398  23.914  12.541 -0.0361  0.0605  0.1195
11015CHOL    C155340   2.507  24.274  12.478 -0.1894  0.0775 -0.0592
11015CHOL    C255341   2.831  24.355  12.285  0.0559 -0.1009 -0.1907
11016CHOL   ROH55342  18.367  31.643  14.819  0.1342 -0.2571 -0.0175
11016CHOL    R155343  18.092  31.635  14.756  0.0605 -0.1608  0.2835
11016CHOL    R255344  17.999  31.597  14.499 -0.2317  0.4404  0.2892
11016CHOL    R355345  17.860  31.393  14.613 -0.0505  0.1287 -0.0338
11016CHOL    R455346  17.697  31.475  14.384 -0.1839  0.4349  0.1694
11016CHOL    R555347  17.630  31.458  14.591 -0.1038  0.0088  0.1635
11016CHOL    C155348  17.390  31.213  14.425  0.0145  0.1388 -0.2037
11016CHOL    C255349  16.978  31.273  14.495  0.2889  0.0020 -0.2145
11017CHOL   ROH55350  17.735  27.459  12.430  0.1154 -0.0296 -0.1392
11017CHOL    R155351  17.966  27.574  12.546  0.0610  0.0200 -0.0796
11017CHOL    R255352  17.956  27.733  12.772 -0.0346  0.0450 -0.1004
11017CHOL    R355353  18.140  27.556  12.866 -0.0372  0.0833 -0.0227
11017CHOL    R455354  18.228  27.816  12.968 -0.0050  0.1312 -0.1780
11017CHOL    R555355  18.348  27.674  12.853 -0.0299  0.0595 -0.1120
11017CHOL    C155356  18.559  27.698  13.170  0.0099  0.2180 -0.1504
11017CHOL    C255357  18.630  27.456  13.417  0.1445 -0.1551  0.1017
11018CHOL   ROH55358   2.485   8.353  13.233 -0.0657 -0.1396 -0.0559
11018CHOL    R155359   2.746   8.318  13.131 -0.0414  0.0402 -0.0577
11018CHOL    R255360   2.810   8.115  12.954  0.1449 -0.0504  0.1125
11018CHOL    R355361   2.904   8.320  12.803 -0.0871 -0.0852 -0.0811
11018CHOL    R455362   3.050   8.085  12.707  0.0270 -0.0475 -0.0027
11018CHOL    R555363   3.137   8.272  12.775 -0.0673  0.0624 -0.1800
11018CHOL    C155364   3.277   8.260  12.421 -0.2594 -0.0788 -0.2520
11018CHOL    C255365   3.561   8.059  12.275 -0.3576 -0.0487 -0.1895
11019CHOL   ROH55366  22.923   6.764   7.721 -0.0535 -0.1157  0.1675
11019CHOL    R155367  23.179   6.667   7.651 -0.0544 -0.0569  0.0806
11019CHOL    R255368  23.402   6.829   7.640 -0.1250  0.0279 -0.1551
11019CHOL    R355369  23.506   6.643   7.809  0.0482  0.1790 -0.0945
11019CHOL    R455370  23.739   6.782   7.699 -0.0656  0.1148 -0.4193
11019CHOL    R555371  23.704   6.567   7.699 -0.0420  0.1111 -0.2104
11019CHOL    C155372  24.033   6.581   7.892  0.1319  0.3072 -0.5162
11019CHOL    C255373  24.359   6.331   7.982  0.1061  0.2308 -0.1826
11020CHOL   ROH55374   9.238  26.692  17.599  0.0866  0.2314 -0.1824
11020CHOL    R155375   9.098  26.698  17.845  0.0781  0.1503 -0.1854
11020CHOL    R255376   9.220  26.764  18.084  0.0463  0.1689 -0.1768
11020CHOL    R355377   9.019  26.947  18.099 -0.0240  0.0913 -0.1580
11020CHOL    R455378   9.102  26.903  18.378  0.1678  0.2808 -0.1802
11020CHOL    R555379   8.899  26.887  18.298  0.1234  0.1478 -0.0492
11020CHOL    C155380   8.845  27.156  18.563  0.1725  0.2721 -0.1646
11020CHOL    C255381   8.691  27.025  18.770  0.0722 -0.1009  0.1689
11021CHOL   ROH55382  22.313   6.456   9.353 -0.0802  0.3577  0.1687
11021CHOL    R155383  22.324   6.470   9.635 -0.0996  0.2715  0.1740
11021CHOL    R255384  22.465   6.287   9.787 -0.2090  0.1549  0.1362
11021CHOL    R355385  22.584   6.510   9.888 -0.1022  0.0653  0.2103
11021CHOL    R455386  22.647   6.299  10.081 -0.0921 -0.0567  0.0731
11021CHOL    R555387  22.555   6.491  10.125 -0.0164 -0.0521  0.2114
11021CHOL    C155388  22.865   6.515  10.346  0.0756 -0.2641  0.1058
11021CHOL    C255389  22.959   6.559  10.688  0.0251 -0.0881 -0.3028
11022CHOL   ROH55390  24.442  12.230   8.633 -0.0729 -0.0465 -0.0193
11022CHOL    R155391  24.187  12.212   8.511 -0.0986 -0.0743  0.0381
11022CHOL    R255392  24.087  11.975   8.411 -0.0528 -0.0654 -0.0306
11022CHOL    R355393  23.876  12.033   8.573 -0.0287 -0.1927  0.0466
11022CHOL    R455394  23.769  11.844   8.376 -0.1192  0.1457 -0.2351
11022CHOL    R555395  23.688  12.040   8.425 -0.0202  0.1183  0.0478
11022CHOL    C155396  23.386  11.822   8.508 -0.1349  0.1493 -0.2812
11022CHOL    C255397  23.095  11.630   8.312 -0.1356 -0.1223  0.0614
11023CHOL   ROH55398   0.838  20.279   2.676 -0.1278  0.0720 -0.1989
11023CHOL    R155399   0.591  20.380   2.769 -0.1486 -0.0425 -0.1288
11023CHOL    R255400   0.373  20.217   2.818 -0.0350 -0.1547  0.0132
11023CHOL    R355401   0.381  20.335   3.063 -0.0008 -0.0724 -0.0275
11023CHOL    R455402   0.115  20.212   3.048  0.0028 -0.0866  0.0570
11023CHOL    R555403   0.159  20.420   3.095  0.0020 -0.0702 -0.0201
11023CHOL    C155404  35.358  20.320   3.412  0.0563  0.0304  0.0443
11023CHOL    C255405  35.166  20.546   3.403  0.1082  0.1223 -0.3787
11024CHOL   ROH55406  34.543  10.756   5.386  0.2661 -0.2050 -0.0369
11024CHOL    R155407  34.766  10.918   5.323  0.1434 -0.0195  0.0025
11024CHOL    R255408  34.885  10.918   5.074  0.2834 -0.0371  0.0692
11024CHOL    R355409  34.841  11.186   5.088  0.0131 -0.0709 -0.0980
11024CHOL    R455410  35.114  11.160   4.983  0.1617  0.1398  0.2321
11024CHOL    R555411  35.052  11.277   5.157 -0.1518  0.1586  0.1096
11024CHOL    C155412  35.206  11.553   4.944 -0.1619  0.2112  0.1699
11024CHOL    C255413   0.206  11.399   4.830  0.1306 -0.1308 -0.1472
11025CHOL   ROH55414   2.295  32.814  12.334 -0.2161 -0.0924 -0.0882
11025CHOL    R155415   2.170  32.924  12.563 -0.1319 -0.3593  0.0891
11025CHOL    R255416   2.026  33.160  12.555  0.1567 -0.1619  0.4895
11025CHOL    R355417   1.830  33.006  12.664 -0.0563 -0.1303  0.1605
11025CHOL    R455418   1.756  33.282  12.733  0.1964 -0.1545  0.5444
11025CHOL    R555419   1.778  33.115  12.871 -0.0427 -0.3925  0.3030
11025CHOL    C155420   1.415  33.208  12.939  0.0195 -0.1203  0.2676
11025CHOL    C255421   1.258  33.516  12.825 -0.0147  0.1284 -0.0479
11026CHOL   ROH55422   5.577  16.355  10.902  0.0577 -0.1774  0.0595
11026CHOL    R155423   5.365  16.499  11.022  0.0438 -0.1135 -0.0421
11026CHOL    R255424   5.159  16.375  11.157  0.0884 -0.0341  0.0963
11026CHOL    R355425   5.232  16.543  11.357  0.0778  0.1621 -0.0633
11026CHOL    R455426   4.986  16.415  11.454  0.1881  0.0950  0.1376
11026CHOL    R555427   5.024  16.630  11.441  0.0624  0.1089 -0.0440
11026CHOL    C155428   4.954  16.598  11.814  0.2362  0.3543  0.0115
11026CHOL    C255429   4.746  16.575  12.085 -0.1514 -0.0912  0.1317
11027CHOL   ROH55430  18.961  12.634  12.343 -0.0962 -0.0355  0.1111
11027CHOL    R155431  19.240  12.588  12.354 -0.1160 -0.1137  0.3153
11027CHOL    R255432  19.425  12.790  12.317 -0.0315 -0.2569 -0.0626
11027CHOL    R355433  19.519  12.703  12.557 -0.1513  0.2372  0.1694
11027CHOL    R455434  19.731  12.878  12.453  0.0240 -0.1964 -0.2250
11027CHOL    R555435  19.754  12.672  12.521 -0.1707 -0.0601  0.2796
11027CHOL    C155436  19.997  12.849  12.757 -0.0559  0.3023 -0.1017
11027CHOL    C255437  20.161  13.017  13.048  0.0878 -0.2054  0.2905
11028CHOL   ROH55438   8.713  13.817  13.697 -0.1190  0.0284 -0.1227
11028CHOL    R155439   8.596  13.935  13.925  0.1368  0.0729 -0.0124
11028CHOL    R255440   8.350  13.856  14.024 -0.0069  0.4665 -0.0497
11028CHOL    R355441   8.489  13.824  14.255 -0.0377  0.0089 -0.0891
11028CHOL    R455442   8.208  13.788  14.332 -0.0945  0.3502 -0.1151
11028CHOL    R555443   8.351  13.926  14.422  0.1226  0.0423  0.0269
11028CHOL    C155444   8.256  13.718  14.728 -0.1741 -0.1470 -0.1902
11028CHOL    C255445   7.921  13.808  14.877 -0.0971 -0.1323  0.2475
11029CHOL   ROH55446  26.367  29.001   5.287 -0.0365  0.1349  0.1040
11029CHOL    R155447  26.493  29.001   5.540 -0.0895  0.0668  0.1305
11029CHOL    R255448  26.352  28.977   5.776 -0.1284 -0.1171  0.0898
11029CHOL    R355449  26.523  28.770   5.820 -0.0419 -0.0601  0.0211
11029CHOL    R455450  26.419  28.837   6.085  0.0755 -0.0677  0.0689
11029CHOL    R555451  26.629  28.823   6.028  0.0504 -0.0082 -0.0386
11029CHOL    C155452  26.619  28.562   6.306  0.2760  0.0147 -0.0079
11029CHOL    C255453  26.835  28.373   6.606  0.0209  0.1421 -0.0287
11030CHOL   ROH55454   2.969  33.268  16.649 -0.0881 -0.0688 -0.1229
11030CHOL    R155455   3.105  33.150  16.431 -0.0683  0.0484 -0.1745
11030CHOL    R255456   3.255  33.297  16.251  0.0939  0.1234  0.0199
11030CHOL    R355457   3.450  33.121  16.318 -0.0388 -0.0539 -0.0580
11030CHOL    R455458   3.530  33.224  16.056  0.0900  0.0771  0.0320
11030CHOL    R555459   3.508  33.014  16.111 -0.0623  0.0526 -0.1198
11030CHOL    C155460   3.874  33.016  16.005 -0.0369 -0.1159 -0.0342
11030CHOL    C255461   3.937  32.981  15.619 -0.2215  0.5610  0.0996
11031CHOL   ROH55462  14.636  33.023  17.489  0.0313 -0.1303 -0.0006
11031CHOL    R155463  14.475  33.118  17.702  0.1032  0.0378 -0.0198
11031CHOL    R255464  14.389  33.380  17.718  0.0497  0.0363 -0.2357
11031CHOL    R355465  14.144  33.264  17.738  0.0854 -0.0043 -0.0163
11031CHOL    R455466  14.090  33.552  17.744  0.0261 -0.0122 -0.1869
11031CHOL    R555467  14.024  33.404  17.890  0.1404  0.0748 -0.0469
11031CHOL    C155468  13.687  33.544  17.778  0.0456 -0.0775  0.0470
11031CHOL    C255469  13.505  33.795  17.446 -0.1083  0.2129  0.0590
11032CHOL   ROH55470  27.984  27.009   7.666 -0.1063  0.0077  0.0417
11032CHOL    R155471  27.990  27.201   7.458  0.1287 -0.0299  0.0132
11032CHOL    R255472  28.121  27.157   7.219  0.0962 -0.2162  0.0309
11032CHOL    R355473  27.879  27.219   7.112  0.1750  0.0460  0.0019
11032CHOL    R455474  28.072  27.378   6.958  0.3458  0.0032  0.1667
11032CHOL    R555475  27.895  27.453   7.062  0.3733  0.0702  0.1668
11032CHOL    C155476  27.816  27.566   6.706  0.5655  0.3768  0.2188
11032CHOL    C255477  28.079  27.446   6.424  0.0213 -0.4026 -0.1185
11033CHOL   ROH55478   9.797  22.893  18.255 -0.0675 -0.2106  0.0997
11033CHOL    R155479   9.600  22.865  18.457  0.0170 -0.1076  0.1974
11033CHOL    R255480   9.642  22.717  18.686  0.1325  0.0552  0.2825
11033CHOL    R355481   9.569  22.948  18.810  0.1427  0.1273  0.1544
11033CHOL    R455482   9.614  22.757  19.028 -0.0082  0.2062  0.2529
11033CHOL    R555483   9.434  22.876  18.994  0.0410  0.2426  0.1245
11033CHOL    C155484   9.528  22.998  19.343 -0.0804  0.3616  0.1162
11033CHOL    C255485   9.489  23.198  19.702 -0.0491 -0.0080 -0.2289
11034CHOL   ROH55486   5.022  27.627  19.530  0.0009 -0.0354  0.0876
11034CHOL    R155487   5.182  27.811  19.387 -0.1064  0.0921  0.1310
11034CHOL    R255488   5.392  27.731  19.226  0.0364  0.2626  0.2324
11034CHOL    R355489   5.261  27.877  19.038 -0.0169  0.1153  0.1555
11034CHOL    R455490   5.529  27.835  18.927 -0.0409  0.0498  0.1221
11034CHOL    R555491   5.427  28.026  18.952 -0.0462  0.0626  0.0050
11034CHOL    C155492   5.486  28.032  18.575 -0.1359 -0.2127 -0.0148
11034CHOL    C255493   5.411  28.042  18.236 -0.0836  0.1142 -0.0108
11035CHOL   ROH55494  24.677   3.511   7.811  0.1713 -0.0700  0.0116
11035CHOL    R155495  24.748   3.295   7.978  0.1427 -0.0608  0.0361
11035CHOL    R255496  24.971   3.299   8.141  0.1120 -0.0499  0.0780
11035CHOL    R355497  24.791   3.239   8.336  0.0759 -0.0422  0.0470
11035CHOL    R455498  25.051   3.230   8.470  0.0629 -0.1731  0.0646
11035CHOL    R555499  24.900   3.073   8.469  0.0069 -0.1195  0.0077
11035CHOL    C155500  24.928   3.134   8.844 -0.0002 -0.2376  0.0273
11035CHOL    C255501  24.920   2.940   9.241 -0.2218  0.1116 -0.0914
11036CHOL   ROH55502   4.531  30.779  14.708  0.0667  0.2006  0.0281
11036CHOL    R155503   4.383  30.806  14.947 -0.0518  0.1492 -0.0392
11036CHOL    R255504   4.469  30.961  15.159 -0.0853 -0.0129  0.0951
11036CHOL    R355505   4.225  31.079  15.131 -0.0069  0.1339  0.0220
11036CHOL    R455506   4.306  31.140  15.406 -0.1109 -0.0257  0.0875
11036CHOL    R555507   4.119  31.047  15.343 -0.1312  0.1040 -0.0448
11036CHOL    C155508   3.982  31.354  15.523 -0.0522  0.1042  0.0146
11036CHOL    C255509   3.968  31.596  15.782 -0.1545 -0.0891 -0.0997
11037CHOL   ROH55510  12.366  22.134  18.320  0.1314  0.1651 -0.0502
11037CHOL    R155511  12.589  21.976  18.395  0.0440  0.0427 -0.0471
11037CHOL    R255512  12.769  22.055  18.589  0.1461 -0.0067 -0.1201
11037CHOL    R355513  12.708  21.815  18.699  0.0096  0.0744 -0.0170
11037CHOL    R455514  12.961  21.892  18.825  0.1380 -0.0919 -0.1724
11037CHOL    R555515  12.919  21.705  18.722 -0.0670 -0.0893 -0.0954
11037CHOL    C155516  13.016  21.571  19.066  0.0054 -0.0652 -0.1062
11037CHOL    C255517  13.326  21.471  19.384  0.0333 -0.1541 -0.1107
11038CHOL   ROH55518  27.175  25.512   2.568 -0.0785  0.0554  0.0249
11038CHOL    R155519  27.311  25.356   2.762 -0.1118 -0.0237 -0.0149
11038CHOL    R255520  27.337  25.437   3.025  0.0267 -0.0312 -0.0252
11038CHOL    R355521  27.226  25.194   3.077 -0.1106  0.0406  0.0185
11038CHOL    R455522  27.400  25.247   3.307  0.0957 -0.1213 -0.1012
11038CHOL    R555523  27.402  25.069   3.181 -0.1247 -0.1030 -0.1301
11038CHOL    C155524  27.332  24.908   3.519  0.0072 -0.1059 -0.1044
11038CHOL    C255525  27.538  24.914   3.770 -0.1597 -0.3140 -0.1432
11039CHOL   ROH55526  26.054  29.082   6.390  0.2051  0.3004 -0.1064
11039CHOL    R155527  26.226  28.900   6.521  0.0216  0.1711 -0.0413
11039CHOL    R255528  26.500  28.937   6.532  0.0666 -0.1262 -0.0955
11039CHOL    R355529  26.460  28.912   6.800  0.0717  0.0490 -0.0782
11039CHOL    R455530  26.751  28.920   6.769  0.0765 -0.2693 -0.1160
11039CHOL    R555531  26.636  28.767   6.874 -0.0704 -0.0975 -0.0265
11039CHOL    C155532  26.859  28.887   7.159  0.0867 -0.1876 -0.1116
11039CHOL    C255533  27.128  29.078   7.416  0.2571  0.2334  0.0730
11040CHOL   ROH55534  28.575  31.953   6.292 -0.0785 -0.0876 -0.1105
11040CHOL    R155535  28.644  31.945   6.566  0.0460  0.1646 -0.1327
11040CHOL    R255536  28.591  32.153   6.739 -0.3278  0.1254 -0.1990
11040CHOL    R355537  28.466  31.960   6.884  0.1323 -0.0842 -0.0700
11040CHOL    R455538  28.547  32.160   7.082 -0.5131  0.3540 -0.2255
11040CHOL    R555539  28.592  31.947   7.087  0.0778  0.4702  0.0102
11040CHOL    C155540  28.404  31.982   7.417 -0.1890  0.2910 -0.1198
11040CHOL    C255541  28.345  31.941   7.729  0.0768 -0.3293 -0.2274
11041CHOL   ROH55542   4.602  10.720  14.365 -0.0353  0.0553 -0.0960
11041CHOL    R155543   4.798  10.571  14.226  0.0372 -0.0086  0.0721
11041CHOL    R255544   4.843  10.602  13.955  0.0123 -0.3016  0.0319
11041CHOL    R355545   5.100  10.644  14.036 -0.0062 -0.0740 -0.0225
11041CHOL    R455546   5.124  10.523  13.770  0.0467 -0.2033  0.0417
11041CHOL    R555547   5.219  10.453  13.954  0.1195 -0.0343  0.0679
11041CHOL    C155548   5.528  10.515  13.738  0.0493  0.0676 -0.0038
11041CHOL    C255549   5.843  10.765  13.873  0.0588 -0.0261  0.0144
11042CHOL   ROH55550  30.184  23.972   5.013  0.1464 -0.0742  0.0511
11042CHOL    R155551  30.306  24.063   4.774  0.0046 -0.0986 -0.0317
11042CHOL    R255552  30.166  24.190   4.574 -0.0630  0.1359  0.1626
11042CHOL    R355553  30.356  24.382   4.607  0.1710 -0.0761  0.0596
11042CHOL    R455554  30.254  24.424   4.335 -0.1848  0.2625  0.2403
11042CHOL    R555555  30.463  24.397   4.393 -0.1240  0.0086 -0.0838
11042CHOL    C155556  30.484  24.740   4.226 -0.0363  0.1371  0.1891
11042CHOL    C255557  30.408  24.981   3.883  0.1295  0.2151 -0.1061
11043CHOL   ROH55558   9.627  34.636  19.203  0.2623  0.0967  0.2108
11043CHOL    R155559   9.681  34.620  18.926 -0.0854 -0.0809  0.1511
11043CHOL    R255560   9.937  34.606  18.825 -0.1908  0.3028 -0.1784
11043CHOL    R355561   9.841  34.384  18.700  0.0550 -0.0102  0.1749
11043CHOL    R455562  10.109  34.422  18.588 -0.1780  0.4230 -0.2644
11043CHOL    R555563   9.924  34.401  18.476 -0.3150 -0.0511  0.0307
11043CHOL    C155564  10.119  34.106  18.334  0.0600  0.1991  0.0179
11043CHOL    C255565  10.521  34.099  18.352 -0.0332  0.0626  0.3076
11044CHOL   ROH55566  32.091  30.041  10.953  0.1027 -0.0823 -0.0115
11044CHOL    R155567  32.354  30.100  10.868  0.0435  0.2178  0.0090
11044CHOL    R255568  32.483  29.955  10.672  0.3423  0.1570  0.2476
11044CHOL    R355569  32.516  30.200  10.557  0.0017  0.0611 -0.0638
11044CHOL    R455570  32.690  30.021  10.403  0.3601  0.1278  0.2534
11044CHOL    R555571  32.748  30.208  10.500  0.0175  0.3550  0.0338
11044CHOL    C155572  32.841  30.290  10.139  0.0497  0.0200 -0.0356
11044CHOL    C255573  33.159  30.550  10.034 -0.0919 -0.2186 -0.0387
11045CHOL   ROH55574  11.163  13.523  17.467 -0.1116 -0.4986 -0.0233
11045CHOL    R155575  11.310  13.398  17.260  0.0188 -0.1990 -0.1133
11045CHOL    R255576  11.233  13.410  16.995  0.0439 -0.0334 -0.1130
11045CHOL    R355577  11.485  13.505  16.959 -0.0280  0.2056 -0.0008
11045CHOL    R455578  11.378  13.474  16.688  0.2983 -0.4001 -0.0721
11045CHOL    R555579  11.564  13.390  16.764  0.3206 -0.0470  0.2811
11045CHOL    C155580  11.699  13.600  16.475  0.3792 -0.3892  0.0570
11045CHOL    C255581  12.005  13.371  16.327 -0.0199  0.1708 -0.1778
11046CHOL   ROH55582   0.473   1.017   9.747  0.1026 -0.1080 -0.0172
11046CHOL    R155583   0.402   1.125   9.999  0.1057 -0.0865 -0.0256
11046CHOL    R255584   0.163   1.066  10.124  0.0300  0.0625 -0.0985
11046CHOL    R355585   0.326   0.995  10.330 -0.0751 -0.0703 -0.0605
11046CHOL    R455586   0.068   1.057  10.456 -0.0993 -0.0149 -0.1375
11046CHOL    R555587   0.262   1.142  10.509 -0.0868 -0.1070 -0.0347
11046CHOL    C155588   0.165   0.985  10.843 -0.2734 -0.1846 -0.1245
11046CHOL    C255589  35.254   1.111  10.992  0.2225  0.0221 -0.1139
11047CHOL   ROH55590  34.508  26.309   9.993 -0.0810 -0.0415  0.1421
11047CHOL    R155591  34.700  26.516  10.022 -0.0484 -0.0616  0.0729
11047CHOL    R255592  34.716  26.729   9.847 -0.0405 -0.1028  0.0231
11047CHOL    R355593  34.694  26.876  10.074  0.0074 -0.0492 -0.0071
11047CHOL    R455594  34.860  27.039   9.896  0.0813 -0.1501 -0.0319
11047CHOL    R555595  34.909  26.979  10.100  0.0473 -0.1295 -0.0177
11047CHOL    C155596  34.924  27.358  10.138  0.1960 -0.1274 -0.0922
11047CHOL    C255597  35.020  27.707  10.145 -0.2787 -0.2586  0.1576
11048CHOL   ROH55598  27.643   1.140  10.022 -0.0617 -0.2972  0.0461
11048CHOL    R155599  27.715   1.030   9.771 -0.2226 -0.2864 -0.0051
11048CHOL    R255600  27.529   0.920   9.598 -0.3772  0.0154 -0.0329
11048CHOL    R355601  27.638   1.096   9.421 -0.1729 -0.0487  0.0279
11048CHOL    R455602  27.531   0.880   9.255 -0.1436 -0.0211 -0.0286
11048CHOL    R555603  27.734   0.957   9.251 -0.1072 -0.1078  0.1122
11048CHOL    C155604  27.634   1.022   8.889  0.1840 -0.1025  0.0309
11048CHOL    C255605  27.466   1.024   8.484  0.2438  0.0546 -0.1472
11049CHOL   ROH55606   8.402  33.843  16.612 -0.0408  0.0346  0.0760
11049CHOL    R155607   8.279  33.734  16.842 -0.0545 -0.0893  0.0095
11049CHOL    R255608   8.301  33.849  17.092 -0.0068 -0.2660  0.0874
11049CHOL    R355609   8.030  33.840  17.084 -0.0097 -0.1882  0.0998
11049CHOL    R455610   8.095  33.908  17.362  0.0170  0.0008  0.0492
11049CHOL    R555611   7.968  33.744  17.295 -0.0347 -0.0130  0.1743
11049CHOL    C155612   7.719  33.934  17.513  0.0279  0.2278  0.0385
11049CHOL    C255613   7.669  33.701  17.698  0.0698  0.2010  0.0199
11050CHOL   ROH55614  28.203  28.592   8.892 -0.2090  0.0269 -0.2272
11050CHOL    R155615  28.223  28.789   8.690 -0.0706  0.0116 -0.2293
11050CHOL    R255616  28.416  28.782   8.493 -0.0500 -0.1039 -0.2052
11050CHOL    R355617  28.202  28.799   8.327 -0.0196  0.0162 -0.2323
11050CHOL    R455618  28.384  29.010   8.236 -0.0349  0.1312  0.0000
11050CHOL    R555619  28.174  29.035   8.290 -0.0498  0.0467 -0.0190
11050CHOL    C155620  28.164  29.160   7.930  0.0024  0.3805  0.0940
11050CHOL    C255621  28.046  29.428   7.593  0.1429 -0.2916  0.0415
11051CHOL   ROH55622  19.474  24.879  11.199  0.2028 -0.1050 -0.0799
11051CHOL    R155623  19.627  24.986  11.412  0.2836 -0.2790 -0.0497
11051CHOL    R255624  19.896  24.931  11.444  0.3584 -0.0953 -0.3529
11051CHOL    R355625  19.919  25.202  11.445  0.1248 -0.0728  0.0204
11051CHOL    R455626  20.144  25.107  11.608  0.4026 -0.1310 -0.3806
11051CHOL    R555627  19.993  25.254  11.666  0.3403 -0.3408  0.0169
11051CHOL    C155628  20.309  25.465  11.704  0.2091 -0.1299 -0.0465
11051CHOL    C255629  20.524  25.724  11.886 -0.2893  0.1187  0.0396
11052CHOL   ROH55630   2.517  21.180   8.921  0.0289 -0.1826  0.0035
11052CHOL    R155631   2.742  21.333   8.847 -0.0309 -0.0782  0.0382
11052CHOL    R255632   2.837  21.342   8.588  0.0113 -0.0427  0.0561
11052CHOL    R355633   2.811  21.611   8.621 -0.1216 -0.0533  0.0404
11052CHOL    R455634   2.984  21.582   8.386  0.0122  0.0174  0.1278
11052CHOL    R555635   3.026  21.699   8.565 -0.1295  0.0380  0.1495
11052CHOL    C155636   3.045  21.973   8.301 -0.1121  0.0424  0.1548
11052CHOL    C255637   3.196  22.343   8.177 -0.0402 -0.1203  0.2938
11053CHOL   ROH55638   5.940  33.440  14.894 -0.1173 -0.1055  0.0599
11053CHOL    R155639   5.712  33.445  15.061 -0.1225 -0.0629  0.0519
11053CHOL    R255640   5.633  33.226  15.210 -0.2460 -0.0921 -0.0549
11053CHOL    R355641   5.644  33.404  15.416 -0.1594 -0.1946  0.0297
11053CHOL    R455642   5.548  33.154  15.537 -0.4023 -0.1724 -0.1126
11053CHOL    R555643   5.453  33.350  15.550 -0.2440 -0.0992 -0.0515
11053CHOL    C155644   5.508  33.279  15.921 -0.4120 -0.3155 -0.0668
11053CHOL    C255645   5.229  33.093  16.305 -0.2460  0.2355  0.0519
11054CHOL   ROH55646  15.417  11.767  15.294 -0.2448  0.2677 -0.0711
11054CHOL    R155647  15.577  11.780  15.527 -0.1375  0.0825 -0.1333
11054CHOL    R255648  15.621  12.016  15.664  0.0700  0.0059 -0.0664
11054CHOL    R355649  15.529  11.873  15.876  0.0684 -0.0121 -0.0793
11054CHOL    R455650  15.714  12.068  15.993  0.0737 -0.0275 -0.0624
11054CHOL    R555651  15.719  11.851  16.021  0.0691 -0.0299 -0.0830
11054CHOL    C155652  15.682  11.964  16.383  0.0747 -0.0636 -0.0721
11054CHOL    C255653  15.634  11.977  16.716 -0.0970 -0.0095 -0.0408
11055CHOL   ROH55654   4.025  30.313  14.826 -0.0656  0.2218 -0.0025
11055CHOL    R155655   4.160  30.458  15.028  0.0178  0.1081  0.0245
11055CHOL    R255656   4.027  30.581  15.237  0.0812  0.2044  0.0095
11055CHOL    R355657   4.199  30.436  15.389 -0.0562  0.0622  0.0297
11055CHOL    R455658   4.092  30.639  15.571  0.3296  0.3534 -0.0635
11055CHOL    R555659   4.303  30.597  15.532  0.2512  0.0170 -0.1379
11055CHOL    C155660   4.292  30.536  15.909  0.3451  0.3071 -0.0873
11055CHOL    C255661   4.188  30.657  16.188  0.0143 -0.2884 -0.0800
11056CHOL   ROH55662  33.364   9.502   8.204 -0.0619 -0.1286  0.1322
11056CHOL    R155663  33.533   9.311   8.082 -0.0439 -0.0668  0.0609
11056CHOL    R255664  33.502   9.231   7.819 -0.0849 -0.0283  0.0558
11056CHOL    R355665  33.763   9.304   7.800 -0.1056  0.0362  0.0071
11056CHOL    R455666  33.729   9.094   7.598 -0.1320  0.1371 -0.0967
11056CHOL    R555667  33.879   9.099   7.756 -0.0782  0.0816 -0.1432
11056CHOL    C155668  34.107   9.083   7.450 -0.1790  0.2941 -0.2311
11056CHOL    C255669  34.190   9.013   7.117 -0.0260 -0.1440 -0.0653
11057CHOL   ROH55670  35.292   3.878  11.660  0.1245  0.2185 -0.0404
11057CHOL    R155671   0.099   3.674  11.621  0.1155  0.1697  0.1626
11057CHOL    R255672   0.180   3.593  11.370 -0.0284 -0.2165  0.2374
11057CHOL    R355673   0.428   3.647  11.468  0.0265 -0.0434  0.0073
11057CHOL    R455674   0.460   3.396  11.319  0.0519 -0.0478  0.0219
11057CHOL    R555675   0.517   3.432  11.526  0.2148  0.0229 -0.0348
11057CHOL    C155676   0.856   3.333  11.381  0.1502  0.2128 -0.3197
11057CHOL    C255677   1.060   3.152  11.604  0.3178  0.0677  0.0770
11058CHOL   ROH55678  26.314  18.323   0.729  0.1148 -0.2431  0.1247
11058CHOL    R155679  26.470  18.364   0.961  0.1211 -0.2869  0.1284
11058CHOL    R255680  26.409  18.557   1.149  0.3744 -0.0255 -0.0521
11058CHOL    R355681  26.418  18.346   1.321 -0.0003  0.1042  0.1323
11058CHOL    R455682  26.473  18.581   1.488  0.2691  0.1678 -0.0455
11058CHOL    R555683  26.596  18.401   1.473  0.0170 -0.0237  0.1576
11058CHOL    C155684  26.519  18.398   1.846 -0.1435  0.4022  0.1316
11058CHOL    C255685  26.778  18.699   1.901  0.1606 -0.2600  0.1800
11059CHOL   ROH55686   6.056  30.954  19.891 -0.0753 -0.1911  0.2070
11059CHOL    R155687   6.179  30.738  19.755 -0.0746 -0.0912  0.0469
11059CHOL    R255688   6.160  30.704  19.482  0.0142  0.1692  0.0075
11059CHOL    R355689   6.432  30.697  19.497  0.0077  0.0968  0.0965
11059CHOL    R455690   6.369  30.597  19.228  0.0728  0.2003  0.0425
11059CHOL    R555691   6.492  30.498  19.378 -0.0022  0.1202  0.0521
11059CHOL    C155692   6.746  30.529  19.094  0.1008  0.1503  0.1467
11059CHOL    C255693   6.993  30.361  18.989 -0.0288  0.1773 -0.5658
11060CHOL   ROH55694   1.442  31.709  10.503  0.0659  0.0952  0.1016
11060CHOL    R155695   1.248  31.894  10.594 -0.0051  0.0347  0.0724
11060CHOL    R255696   0.984  31.883  10.513  0.0064 -0.0603  0.0493
11060CHOL    R355697   0.936  31.879  10.781 -0.0175 -0.0592  0.0453
11060CHOL    R455698   0.680  31.957  10.661 -0.0134 -0.0818  0.0197
11060CHOL    R555699   0.788  32.064  10.818 -0.0359 -0.0698  0.0280
11060CHOL    C155700   0.459  31.997  10.999 -0.0473 -0.0931 -0.0010
11060CHOL    C255701   0.436  31.981  11.343 -0.1352  0.0003 -0.0339
11061CHOL   ROH55702  33.518  27.229   5.592  0.1080  0.1515  0.1659
11061CHOL    R155703  33.561  27.079   5.828  0.1343  0.0126  0.0734
11061CHOL    R255704  33.390  27.091   6.045  0.1816 -0.0816  0.1148
11061CHOL    R355705  33.384  26.821   6.013  0.1328 -0.0638 -0.0335
11061CHOL    R455706  33.227  26.871   6.255  0.2304 -0.1755  0.0550
11061CHOL    R555707  33.396  26.734   6.236  0.2056 -0.1888 -0.0847
11061CHOL    C155708  33.126  26.489   6.348  0.2129 -0.2132 -0.1190
11061CHOL    C255709  32.876  26.276   6.536  0.0420 -0.0256  0.1142
11062CHOL   ROH55710   6.645  18.976  18.396 -0.1040  0.0022 -0.0035
11062CHOL    R155711   6.782  19.015  18.151  0.1117 -0.0473  0.1076
11062CHOL    R255712   6.679  19.171  17.947  0.1550 -0.3255 -0.1267
11062CHOL    R355713   6.918  19.298  17.967 -0.0042 -0.0455  0.0226
11062CHOL    R455714   6.815  19.374  17.703  0.2509 -0.4944 -0.2153
11062CHOL    R555715   7.010  19.287  17.746  0.2931 -0.2352  0.1520
11062CHOL    C155716   7.118  19.613  17.580  0.1572 -0.3300 -0.1264
11062CHOL    C255717   7.118  19.912  17.368  0.1056 -0.0581  0.0325
11063CHOL   ROH55718  23.112  14.494   3.840  0.1424 -0.1718 -0.1975
11063CHOL    R155719  23.170  14.689   4.037 -0.0544 -0.1125 -0.1977
11063CHOL    R255720  23.117  14.649   4.305  0.0327 -0.1875 -0.1915
11063CHOL    R355721  23.380  14.711   4.333 -0.0333  0.1191 -0.2291
11063CHOL    R455722  23.278  14.692   4.608  0.0669 -0.1850 -0.2102
11063CHOL    R555723  23.386  14.861   4.520 -0.1644  0.0068 -0.1337
11063CHOL    C155724  23.619  14.776   4.810  0.0251  0.1043 -0.2562
11063CHOL    C255725  23.946  14.776   5.138  0.0963 -0.3875  0.1031
11064CHOL   ROH55726   2.447  10.967  12.413 -0.0418  0.1194  0.1189
11064CHOL    R155727   2.630  10.790  12.288 -0.1927  0.0086  0.0521
11064CHOL    R255728   2.660  10.775  12.014 -0.1818  0.1111  0.0458
11064CHOL    R355729   2.921  10.820  12.072 -0.1454 -0.1560  0.0933
11064CHOL    R455730   2.908  10.828  11.779 -0.0912 -0.0898  0.0959
11064CHOL    R555731   3.041  10.704  11.900 -0.2310 -0.2415  0.0933
11064CHOL    C155732   3.298  10.900  11.697 -0.0042 -0.4576  0.1695
11064CHOL    C255733   3.547  10.724  11.459 -0.0770  0.1108  0.0373
11065CHOL   ROH55734  26.052  19.641   1.043 -0.1564  0.0049  0.0640
11065CHOL    R155735  26.231  19.585   1.255 -0.0219  0.0694 -0.0325
11065CHOL    R255736  26.321  19.780   1.429 -0.0933  0.0796 -0.0076
11065CHOL    R355737  26.227  19.608   1.618  0.1182 -0.0546 -0.0223
11065CHOL    R455738  26.446  19.752   1.750 -0.0404  0.1862 -0.0185
11065CHOL    R555739  26.423  19.536   1.735  0.2115  0.1596 -0.0432
11065CHOL    C155740  26.431  19.575   2.114  0.1887  0.1225 -0.0387
11065CHOL    C255741  26.694  19.758   2.256  0.0875  0.0048 -0.2765
11066CHOL   ROH55742  21.591  18.125  10.916 -0.0314 -0.0186  0.0493
11066CHOL    R155743  21.546  18.331  11.104 -0.1148  0.0547 -0.0503
11066CHOL    R255744  21.740  18.517  11.170 -0.0430 -0.0999  0.1831
11066CHOL    R355745  21.546  18.695  11.102  0.2021  0.0558 -0.1210
11066CHOL    R455746  21.725  18.844  11.281 -0.0980 -0.1667  0.3740
11066CHOL    R555747  21.509  18.822  11.303 -0.1629 -0.0607 -0.1116
11066CHOL    C155748  21.534  19.202  11.282  0.0996 -0.0592  0.1995
11066CHOL    C255749  21.573  19.387  11.664 -0.0187  0.3502 -0.2247
11067CHOL   ROH55750  24.274  18.341   6.039 -0.0556  0.0610  0.1158
11067CHOL    R155751  24.079  18.468   5.877 -0.0893  0.0105  0.1171
11067CHOL    R255752  23.983  18.354   5.645  0.0302  0.0417  0.0523
11067CHOL    R355753  23.741  18.394   5.764 -0.0213 -0.1395  0.0099
11067CHOL    R455754  23.685  18.402   5.476  0.0492 -0.0263 -0.0014
11067CHOL    R555755  23.632  18.554   5.623 -0.0658 -0.1255  0.0603
11067CHOL    C155756  23.285  18.468   5.489  0.0118 -0.2364 -0.0722
11067CHOL    C255757  23.107  18.105   5.494 -0.2118 -0.3598 -0.3350
11068CHOL   ROH55758   2.188  12.893  11.640  0.1308  0.1127  0.2528
11068CHOL    R155759   2.396  12.845  11.454  0.0490  0.1622  0.1469
11068CHOL    R255760   2.627  12.996  11.447  0.0763  0.1234  0.1279
11068CHOL    R355761   2.748  12.754  11.470  0.0380  0.0891 -0.0337
11068CHOL    R455762   2.959  12.933  11.373  0.0716  0.1215  0.1101
11068CHOL    R555763   2.898  12.744  11.283  0.0508  0.1958 -0.0269
11068CHOL    C155764   3.266  12.669  11.352  0.0329  0.0882 -0.0519
11068CHOL    C255765   3.409  12.289  11.098 -0.1004 -0.2945 -0.2034
11069CHOL   ROH55766   0.840   9.226   6.137  0.1176  0.1807 -0.0239
11069CHOL    R155767   0.565   9.189   6.191  0.1278  0.0506 -0.0595
11069CHOL    R255768   0.454   9.236   6.439  0.0845 -0.0642 -0.0561
11069CHOL    R355769   0.286   9.397   6.298  0.0312 -0.0950 -0.0274
11069CHOL    R455770   0.130   9.315   6.532  0.0509 -0.2054 -0.0536
11069CHOL    R555771   0.070   9.295   6.324  0.0680 -0.1805 -0.0603
11069CHOL    C155772  35.170   9.511   6.454 -0.0186 -0.3163 -0.0254
11069CHOL    C255773  34.842   9.806   6.368  0.1865  0.0498 -0.0019
11070CHOL   ROH55774  21.233  18.617  14.714  0.0961  0.1453 -0.0134
11070CHOL    R155775  21.012  18.607  14.538  0.1144  0.2037 -0.0395
11070CHOL    R255776  20.778  18.475  14.601  0.1773  0.0206 -0.1835
11070CHOL    R355777  20.665  18.715  14.543  0.0577  0.0212  0.0435
11070CHOL    R455778  20.496  18.519  14.406  0.0757  0.0561 -0.0305
11070CHOL    R555779  20.591  18.693  14.316 -0.0307  0.1614  0.0573
11070CHOL    C155780  20.226  18.770  14.237 -0.0957  0.0777  0.2715
11070CHOL    C255781  20.067  19.055  13.968  0.0860 -0.2992  0.0574
11071CHOL   ROH55782   7.329  20.881  15.127 -0.0409 -0.0199 -0.1310
11071CHOL    R155783   7.085  20.997  15.214  0.1091  0.1448  0.0747
11071CHOL    R255784   6.853  20.851  15.242 -0.0731  0.3875 -0.1526
11071CHOL    R355785   6.857  20.954  15.493  0.0742 -0.0298  0.0198
11071CHOL    R455786   6.579  20.870  15.452 -0.0603  0.4807 -0.1442
11071CHOL    R555787   6.647  21.068  15.515  0.2518  0.2737  0.1869
11071CHOL    C155788   6.423  20.978  15.810  0.0854  0.1440  0.0226
11071CHOL    C255789   6.048  20.867  15.860 -0.2251 -0.0923  0.1533
11072CHOL   ROH55790  14.628   4.182  16.971 -0.1334 -0.0953  0.0446
11072CHOL    R155791  14.632   4.381  16.770 -0.0349 -0.0904  0.0523
11072CHOL    R255792  14.807   4.372  16.555 -0.0394 -0.1684  0.0536
11072CHOL    R355793  14.578   4.394  16.410 -0.0271 -0.0494  0.0521
11072CHOL    R455794  14.792   4.474  16.226  0.0409 -0.3580 -0.0099
11072CHOL    R555795  14.613   4.589  16.274  0.1462 -0.1626 -0.0704
11072CHOL    C155796  14.569   4.555  15.897  0.0992 -0.3567 -0.0485
11072CHOL    C255797  14.674   4.435  15.519 -0.0899 -0.0366 -0.1838
11073CHOL   ROH55798   9.942  12.863  14.371 -0.0596  0.2469  0.0483
11073CHOL    R155799   9.826  12.855  14.629  0.0433  0.2156  0.0945
11073CHOL    R255800   9.733  12.621  14.743 -0.3226  0.2693 -0.0827
11073CHOL    R355801   9.897  12.694  14.947 -0.0962 -0.2130 -0.0878
11073CHOL    R455802   9.647  12.612  15.078 -0.3129  0.4459 -0.0748
11073CHOL    R555803   9.752  12.801  15.105  0.2119  0.1605 -0.0532
11073CHOL    C155804   9.752  12.674  15.464 -0.0949  0.0959 -0.0749
11073CHOL    C255805   9.323  12.602  15.562  0.4512 -0.4951  0.3429
11074CHOL   ROH55806  30.960  34.730   7.456  0.0313 -0.0756  0.0808
11074CHOL    R155807  30.910  34.573   7.687 -0.0128 -0.0042  0.1196
11074CHOL    R255808  31.097  34.540   7.887  0.0067 -0.0705  0.0909
11074CHOL    R355809  30.894  34.628   8.046  0.0855  0.0713  0.1122
11074CHOL    R455810  31.078  34.491   8.229  0.0364 -0.0103  0.1010
11074CHOL    R555811  30.864  34.453   8.207  0.0103  0.1125  0.1428
11074CHOL    C155812  30.877  34.546   8.577  0.1280  0.1577  0.1272
11074CHOL    C255813  30.913  34.547   9.001  0.0447  0.2214 -0.2052
11075CHOL   ROH55814  11.423   9.994  15.212 -0.2288  0.0721  0.0082
11075CHOL    R155815  11.333  10.169  15.415 -0.1491  0.0799  0.0368
11075CHOL    R255816  11.225  10.077  15.653 -0.0620  0.0890  0.0796
11075CHOL    R355817  11.417  10.235  15.763 -0.0177  0.0889  0.0036
11075CHOL    R455818  11.247  10.155  15.989  0.2672 -0.1863  0.1252
11075CHOL    R555819  11.302  10.359  15.933  0.1054 -0.1109  0.2369
11075CHOL    C155820  11.440  10.349  16.288  0.5006 -0.3464  0.0804
11075CHOL    C255821  11.369  10.542  16.551 -0.2291  0.1280  0.0041
11076CHOL   ROH55822   1.097  18.200   7.678  0.0920  0.0760  0.3128
11076CHOL    R155823   1.289  18.125   7.484 -0.0126  0.0170  0.2315
11076CHOL    R255824   1.558  18.181   7.511  0.0022  0.0293  0.0673
11076CHOL    R355825   1.585  17.913   7.472 -0.0161  0.0170  0.1371
11076CHOL    R455826   1.856  18.020   7.444 -0.0390  0.0168 -0.0878
11076CHOL    R555827   1.750  17.895   7.300 -0.1351 -0.0340  0.0272
11076CHOL    C155828   2.055  17.675   7.368 -0.0801 -0.0014 -0.1125
11076CHOL    C255829   2.275  17.489   7.107 -0.2401 -0.0605 -0.0388
11077CHOL   ROH55830  12.117  22.556  18.507  0.3455  0.2494 -0.1833
11077CHOL    R155831  12.304  22.446  18.689  0.0322  0.1629  0.0904
11077CHOL    R255832  12.236  22.377  18.948 -0.4411 -0.0476 -0.0842
11077CHOL    R355833  12.339  22.135  18.876 -0.2432  0.0317 -0.0713
11077CHOL    R455834  12.406  22.163  19.160 -0.1880  0.1408 -0.0940
11077CHOL    R555835  12.545  22.120  18.997 -0.1940  0.2382 -0.1257
11077CHOL    C155836  12.601  21.812  19.216  0.1450  0.3255 -0.0881
11077CHOL    C255837  12.526  21.437  19.350  0.0678 -0.1923 -0.2782
11078CHOL   ROH55838  30.967   6.502   8.938 -0.1893  0.1512 -0.0006
11078CHOL    R155839  31.073   6.597   8.693 -0.1581  0.1415  0.0088
11078CHOL    R255840  31.269   6.463   8.553 -0.1137  0.1542  0.0570
11078CHOL    R355841  31.091   6.481   8.349 -0.0802  0.1091  0.0238
11078CHOL    R455842  31.349   6.433   8.218 -0.0023  0.4317  0.0572
11078CHOL    R555843  31.210   6.595   8.176 -0.1451  0.3266  0.1221
11078CHOL    C155844  31.228   6.432   7.831  0.0944  0.5510  0.0264
11078CHOL    C255845  31.321   6.652   7.624  0.0819 -0.0176 -0.1757
11079CHOL   ROH55846  30.077   8.194   6.847  0.0051 -0.1410 -0.0547
11079CHOL    R155847  30.157   7.952   6.723 -0.0492 -0.1479 -0.0770
11079CHOL    R255848  29.976   7.756   6.649 -0.1028 -0.0633 -0.1761
11079CHOL    R355849  30.095   7.784   6.406 -0.0113 -0.0595 -0.1309
11079CHOL    R455850  29.960   7.524   6.394  0.0240 -0.0735 -0.1751
11079CHOL    R555851  30.170   7.563   6.351  0.0349 -0.0519 -0.0946
11079CHOL    C155852  30.062   7.415   6.017  0.1832 -0.0760 -0.1319
11079CHOL    C255853  29.681   7.174   6.092 -0.2147 -0.0802 -0.3116
11080CHOL   ROH55854  32.326  12.575   1.878  0.1333  0.1046  0.0836
11080CHOL    R155855  32.242  12.411   2.093  0.1682 -0.1409 -0.0877
11080CHOL    R255856  32.060  12.496   2.283  0.4288 -0.2454  0.2122
11080CHOL    R355857  31.927  12.270   2.211  0.1343 -0.0044 -0.0148
11080CHOL    R455858  31.888  12.291   2.501  0.1272 -0.2210  0.0000
11080CHOL    R555859  31.966  12.119   2.393 -0.0895 -0.2261 -0.1501
11080CHOL    C155860  31.662  11.959   2.561 -0.3240  0.0195 -0.3366
11080CHOL    C255861  31.565  11.553   2.507  0.3331 -0.0856 -0.2569
11081CHOL   ROH55862  15.516  11.198  15.109  0.0023  0.2192  0.0391
11081CHOL    R155863  15.594  11.348  15.336  0.0025  0.1243  0.1023
11081CHOL    R255864  15.434  11.371  15.560 -0.0213  0.0733  0.0931
11081CHOL    R355865  15.656  11.281  15.688 -0.0528 -0.0144  0.0852
11081CHOL    R455866  15.498  11.413  15.897 -0.1287 -0.2156  0.1511
11081CHOL    R555867  15.707  11.453  15.847 -0.1193 -0.1500  0.2522
11081CHOL    C155868  15.744  11.353  16.214 -0.2206 -0.4665  0.1775
11081CHOL    C255869  15.720  11.140  16.430 -0.1952 -0.1218 -0.1367
11082CHOL   ROH55870  26.204   0.347   6.825  0.0932  0.0738  0.0821
11082CHOL    R155871  26.162   0.281   7.097  0.1394  0.2099  0.1227
11082CHOL    R255872  26.169   0.020   7.189 -0.1336  0.2300  0.2003
11082CHOL    R355873  26.353   0.120   7.362  0.0701  0.0615  0.0834
11082CHOL    R455874  26.200  35.311   7.520 -0.1045  0.3056  0.2195
11082CHOL    R555875  26.236   0.134   7.571  0.1795  0.2801  0.1314
11082CHOL    C155876  26.390  35.349   7.875  0.1030  0.1911  0.1210
11082CHOL    C255877  26.310  35.074   8.127 -0.1440 -0.0162 -0.3408
11083CHOL   ROH55878   8.422   8.510  17.492  0.2179 -0.0517 -0.1435
11083CHOL    R155879   8.621   8.500  17.291  0.1922  0.0946 -0.1768
11083CHOL    R255880   8.566   8.428  17.030  0.2121 -0.0101 -0.1518
11083CHOL    R355881   8.685   8.666  16.973 -0.0196  0.0912 -0.2222
11083CHOL    R455882   8.641   8.540  16.712  0.2701 -0.1162 -0.1759
11083CHOL    R555883   8.830   8.617  16.789  0.1425  0.1414 -0.1101
11083CHOL    C155884   8.797   8.828  16.473  0.0860 -0.0827 -0.2557
11083CHOL    C255885   9.146   8.706  16.359 -0.0188  0.0501  0.2647
11084CHOL   ROH55886   4.638  14.711   9.147 -0.0069 -0.0901  0.2492
11084CHOL    R155887   4.509  14.867   9.346  0.1775  0.0419  0.2667
11084CHOL    R255888   4.297  14.772   9.494 -0.0384  0.3306  0.1469
11084CHOL    R355889   4.453  14.844   9.705  0.0065 -0.0188  0.2369
11084CHOL    R455890   4.183  14.824   9.817 -0.0854  0.4514  0.1110
11084CHOL    R555891   4.317  14.995   9.831  0.2294  0.2012  0.2179
11084CHOL    C155892   4.264  14.923  10.202 -0.0709  0.1937  0.1745
11084CHOL    C255893   3.894  14.809  10.174 -0.3465  0.2796 -0.1074
11085CHOL   ROH55894   5.858   3.043  13.777  0.2924  0.1915  0.2100
11085CHOL    R155895   5.613   3.148  13.875  0.2038  0.1385  0.0474
11085CHOL    R255896   5.499   3.061  14.111  0.0779  0.1318 -0.0153
11085CHOL    R355897   5.502   3.326  14.172 -0.0277  0.1386 -0.0385
11085CHOL    R455898   5.268   3.220  14.313  0.2056 -0.0086  0.2432
11085CHOL    R555899   5.271   3.389  14.175 -0.0677 -0.0153  0.2262
11085CHOL    C155900   5.136   3.561  14.488  0.1808 -0.0839  0.3721
11085CHOL    C255901   4.853   3.695  14.697  0.0707 -0.1424 -0.4709
11086CHOL   ROH55902  22.971  13.953   5.581 -0.0626  0.3280 -0.1268
11086CHOL    R155903  23.133  14.157   5.469  0.0916  0.2259 -0.0902
11086CHOL    R255904  23.255  14.351   5.623  0.0509  0.2414 -0.0782
11086CHOL    R355905  23.480  14.264   5.496  0.1117  0.1113  0.1176
11086CHOL    R455906  23.577  14.450   5.701  0.0160  0.2965 -0.0028
11086CHOL    R555907  23.622  14.457   5.488  0.1265  0.0967  0.0126
11086CHOL    C155908  23.975  14.426   5.628  0.0524  0.2065  0.2249
11086CHOL    C255909  24.283  14.473   5.575 -0.4131  0.3875 -0.0714
11087CHOL   ROH55910  24.057  30.686   9.916 -0.0107  0.0630  0.0844
11087CHOL    R155911  24.045  30.706   9.634 -0.1053  0.0212  0.0850
11087CHOL    R255912  23.833  30.609   9.486 -0.1678  0.0239  0.1727
11087CHOL    R355913  23.827  30.862   9.388 -0.1708  0.0096  0.1359
11087CHOL    R455914  23.803  30.691   9.152  0.2068 -0.0299  0.1239
11087CHOL    R555915  23.949  30.850   9.183  0.0916  0.0450  0.2876
11087CHOL    C155916  23.780  30.976   8.865  0.4222 -0.0747  0.0610
11087CHOL    C255917  23.634  30.952   8.485 -0.0936 -0.2761 -0.2373
11088CHOL   ROH55918  22.863  28.667  10.208 -0.0245  0.1382 -0.1770
11088CHOL    R155919  22.604  28.750  10.132 -0.0856  0.1497  0.0424
11088CHOL    R255920  22.479  28.657   9.903 -0.2185  0.2764  0.0652
11088CHOL    R355921  22.281  28.590  10.077 -0.0998  0.1398  0.1500
11088CHOL    R455922  22.159  28.565   9.811 -0.2304  0.1755  0.2028
11088CHOL    R555923  22.083  28.682   9.979 -0.1902  0.0919  0.2825
11088CHOL    C155924  21.787  28.449   9.920 -0.1250 -0.0117  0.3626
11088CHOL    C255925  21.461  28.407  10.045 -0.0266 -0.0018 -0.0566
11089CHOL   ROH55926   0.525  29.813  15.443 -0.0546  0.0716 -0.0187
11089CHOL    R155927   0.695  29.847  15.219  0.0450  0.0771  0.0581
11089CHOL    R255928   0.905  29.676  15.164 -0.0455 -0.0283  0.0441
11089CHOL    R355929   0.783  29.657  14.922  0.0267  0.1731 -0.0093
11089CHOL    R455930   1.064  29.588  14.870 -0.0354 -0.1698  0.0910
11089CHOL    R555931   0.946  29.740  14.767  0.1957  0.0010  0.0727
11089CHOL    C155932   1.042  29.520  14.471  0.0382 -0.0628  0.0682
11089CHOL    C255933   1.074  29.160  14.400  0.1032 -0.1418  0.0501
11090CHOL   ROH55934  26.221  20.895   4.950  0.1230 -0.0735 -0.0145
11090CHOL    R155935  25.962  20.862   4.842  0.0776 -0.0822  0.0953
11090CHOL    R255936  25.828  21.065   4.711  0.0040 -0.0786  0.1754
11090CHOL    R355937  25.808  20.881   4.512 -0.0681 -0.0594  0.1643
11090CHOL    R455938  25.588  21.068   4.462  0.0507  0.0719  0.1321
11090CHOL    R555939  25.573  20.851   4.481 -0.0795  0.0803  0.1202
11090CHOL    C155940  25.431  20.897   4.130  0.0101  0.1778  0.0964
11090CHOL    C255941  25.209  20.820   3.800  0.0773 -0.6214 -0.2085
11091CHOL   ROH55942  21.110   1.570  12.759  0.2128 -0.1077 -0.0545
11091CHOL    R155943  20.928   1.717  12.601 -0.0235 -0.2735  0.0607
11091CHOL    R255944  20.991   1.809  12.348 -0.1241  0.1297  0.1833
11091CHOL    R355945  20.765   1.676  12.278  0.1435 -0.2206 -0.0322
11091CHOL    R455946  20.817   1.857  12.053 -0.3403  0.4358  0.3572
11091CHOL    R555947  20.631   1.840  12.166 -0.2695 -0.2444  0.4021
11091CHOL    C155948  20.504   1.760  11.815 -0.2147  0.2852  0.2560
11091CHOL    C255949  20.448   1.984  11.451 -0.0172  0.1710  0.2849
11092CHOL   ROH55950  26.812   0.932   6.946 -0.1724  0.5864  0.0626
11092CHOL    R155951  26.922   1.000   7.198 -0.3412  0.1443  0.2599
11092CHOL    R255952  26.839   0.881   7.433 -0.2156 -0.5658 -0.0424
11092CHOL    R355953  27.105   0.828   7.462 -0.1373 -0.2226 -0.1150
11092CHOL    R455954  26.995   0.806   7.733 -0.0643 -0.5239 -0.1099
11092CHOL    R555955  27.163   0.930   7.670 -0.2415 -0.2600 -0.0684
11092CHOL    C155956  27.334   0.713   7.934  0.0967 -0.1774 -0.2174
11092CHOL    C255957  27.046   0.809   8.219  0.0580  0.1775 -0.4034
11093CHOL   ROH55958  28.740  32.026   9.788  0.1010  0.0010 -0.1048
11093CHOL    R155959  28.962  32.023   9.612  0.1554 -0.2136 -0.0339
11093CHOL    R255960  28.975  31.859   9.391  0.0263 -0.1599 -0.0819
11093CHOL    R355961  29.022  32.092   9.260  0.3536 -0.1748  0.0071
11093CHOL    R455962  29.022  31.888   9.050 -0.2932 -0.0538 -0.1186
11093CHOL    R555963  29.179  32.034   9.089  0.0486 -0.3929 -0.2027
11093CHOL    C155964  29.094  32.124   8.728 -0.1719 -0.0062 -0.0565
11093CHOL    C255965  29.308  32.006   8.401  0.1167  0.0775 -0.2887
11094CHOL   ROH55966  13.186   2.568  14.656 -0.0621 -0.0210 -0.0969
11094CHOL    R155967  13.232   2.400  14.879  0.0465 -0.1114 -0.1867
11094CHOL    R255968  13.127   2.452  15.129  0.3288 -0.1060 -0.0663
11094CHOL    R355969  13.029   2.199  15.105  0.1344 -0.0346 -0.0395
11094CHOL    R455970  13.043   2.246  15.394  0.2356 -0.0400 -0.0444
11094CHOL    R555971  13.131   2.079  15.286  0.0856 -0.1076 -0.0611
11094CHOL    C155972  12.903   1.890  15.527 -0.0011  0.0654 -0.0067
11094CHOL    C255973  13.020   1.596  15.733 -0.1294  0.3259  0.2485
11095CHOL   ROH55974  18.451   5.770  16.166  0.0662 -0.0403 -0.2140
11095CHOL    R155975  18.344   5.598  15.968  0.0187 -0.1765 -0.0717
11095CHOL    R255976  18.185   5.381  16.029 -0.1598 -0.0011  0.1007
11095CHOL    R355977  18.013   5.498  15.854 -0.0099 -0.0615 -0.0876
11095CHOL    R455978  17.979   5.210  15.810 -0.0652 -0.0762  0.0708
11095CHOL    R555979  18.024   5.360  15.658  0.0780 -0.1862  0.0067
11095CHOL    C155980  17.698   5.221  15.518  0.1305 -0.1767 -0.1236
11095CHOL    C255981  17.463   5.223  15.211  0.0067  0.1187  0.0355
11096CHOL   ROH55982  11.185   3.656  18.703  0.0996  0.1849  0.1613
11096CHOL    R155983  11.179   3.584  18.429  0.1118  0.2112  0.1543
11096CHOL    R255984  10.969   3.445  18.317  0.2103  0.0444  0.1760
11096CHOL    R355985  10.966   3.653  18.142  0.0007  0.0627  0.2006
11096CHOL    R455986  10.951   3.414  17.973  0.0436  0.0726  0.1823
11096CHOL    R555987  11.096   3.577  17.956 -0.0557  0.1556  0.1226
11096CHOL    C155988  10.938   3.592  17.609 -0.2501  0.1062  0.2081
11096CHOL    C255989  11.183   3.570  17.244 -0.1863  0.2185  0.3924
11097CHOL   ROH55990  17.768   8.851  17.514  0.0950  0.0838  0.0463
11097CHOL    R155991  17.807   8.939  17.247  0.2226 -0.0856  0.0080
11097CHOL    R255992  17.828   8.763  17.035 -0.0438 -0.2088  0.0817
11097CHOL    R355993  17.626   8.914  16.932  0.1793  0.0519  0.0217
11097CHOL    R455994  17.759   8.797  16.698 -0.0618 -0.3355  0.0721
11097CHOL    R555995  17.719   9.009  16.733  0.2937 -0.2411 -0.0677
11097CHOL    C155996  17.529   8.958  16.405  0.1368 -0.1644  0.0110
11097CHOL    C255997  17.731   8.920  16.168 -0.1451 -0.1668 -0.0263
11098CHOL   ROH55998  26.030  13.130   2.095 -0.2157  0.1856  0.2123
11098CHOL    R155999  26.244  13.136   2.279 -0.1623  0.1301  0.1522
11098CHOL    R256000  26.462  13.304   2.248 -0.1250  0.0674  0.0874
11098CHOL    R356001  26.396  13.383   2.500 -0.0304  0.0930  0.1046
11098CHOL    R456002  26.656  13.509   2.448  0.0250 -0.0364  0.0489
11098CHOL    R556003  26.604  13.383   2.619 -0.0019 -0.0169  0.0579
11098CHOL    C156004  26.707  13.702   2.801  0.2014 -0.0730  0.0426
11098CHOL    C256005  27.006  13.465   2.968  0.3058  0.2499  0.3221
11099CHOL   ROH56006  35.148   6.811  10.464  0.1351 -0.1207  0.0399
11099CHOL    R156007  35.271   6.867  10.216  0.0896 -0.0544  0.0323
11099CHOL    R256008   0.085   6.708  10.109 -0.0137 -0.0924 -0.1026
11099CHOL    R356009  35.305   6.701   9.894 -0.0781  0.0895 -0.0602
11099CHOL    R456010   0.179   6.615   9.790 -0.1537 -0.0182 -0.1663
11099CHOL    R556011   0.055   6.776   9.711 -0.0839  0.0855 -0.0672
11099CHOL    C156012   0.079   6.554   9.402 -0.2950  0.1959 -0.1633
11099CHOL    C256013  35.180   6.313   9.162 -0.4788  0.1232 -0.2300
11100CHOL   ROH56014  13.587   7.728  16.360  0.0690 -0.0372  0.0354
11100CHOL    R156015  13.770   7.515  16.395 -0.0210 -0.1320 -0.0717
11100CHOL    R256016  13.740   7.325  16.593  0.0438 -0.0635  0.0008
11100CHOL    R356017  13.757   7.151  16.385 -0.2355 -0.1290  0.0295
11100CHOL    R456018  13.853   6.999  16.617  0.4758  0.0740 -0.1129
11100CHOL    R556019  13.958   7.027  16.428  0.0138  0.1194 -0.3725
11100CHOL    C156020  13.935   6.646  16.435  0.4648  0.0925 -0.1521
11100CHOL    C256021  13.837   6.405  16.288 -0.0035 -0.0840  0.0660
11101CHOL   ROH56022  15.232   3.306  13.405 -0.0879  0.2121  0.0611
11101CHOL    R156023  15.186   3.402  13.668 -0.0180  0.3688  0.0168
11101CHOL    R256024  15.294   3.281  13.891 -0.2882  0.2579  0.0889
11101CHOL    R356025  15.388   3.531  13.941  0.1065  0.1227  0.0426
11101CHOL    R456026  15.397   3.394  14.201 -0.2273  0.1912  0.0935
11101CHOL    R556027  15.300   3.585  14.158  0.1045  0.3405 -0.0112
11101CHOL    C156028  15.545   3.695  14.429  0.1786  0.0255  0.0524
11101CHOL    C256029  15.875   3.709  14.576 -0.3375 -0.1891 -0.0928
11102CHOL   ROH56030  13.722  14.045  15.137 -0.3235  0.2911 -0.2391
11102CHOL    R156031  13.623  13.930  15.376 -0.2613 -0.0129 -0.3587
11102CHOL    R256032  13.648  14.053  15.622  0.2060 -0.5299 -0.1370
11102CHOL    R356033  13.379  14.017  15.631  0.1512 -0.0975  0.0734
11102CHOL    R456034  13.460  14.040  15.911  0.4447 -0.4602  0.0226
11102CHOL    R556035  13.343  13.879  15.823  0.0995 -0.1996 -0.0093
11102CHOL    C156036  13.097  13.999  16.088  0.5323 -0.0138  0.3126
11102CHOL    C256037  12.866  13.931  16.480  0.0873  0.0396 -0.1060
11103CHOL   ROH56038   5.238  16.903  16.172 -0.0391  0.0852 -0.0124
11103CHOL    R156039   5.496  16.973  16.078 -0.0247  0.1635  0.0854
11103CHOL    R256040   5.717  16.813  16.117 -0.0224  0.1535  0.0276
11103CHOL    R356041   5.740  16.835  15.847  0.0324  0.3285  0.0456
11103CHOL    R456042   6.012  16.776  15.940 -0.0493 -0.0931  0.0320
11103CHOL    R556043   5.951  16.943  15.814  0.1776  0.0834  0.1510
11103CHOL    C156044   6.205  16.775  15.584 -0.0134 -0.0722  0.0518
11103CHOL    C256045   6.118  16.863  15.311  0.0938 -0.1291  0.0261
11104CHOL   ROH56046   8.744   6.160  17.835 -0.0732  0.3792  0.1378
11104CHOL    R156047   8.617   5.998  17.641  0.1070  0.2081  0.1614
11104CHOL    R256048   8.408   6.089  17.485  0.0439 -0.0297  0.1071
11104CHOL    R356049   8.567   6.008  17.280  0.1493  0.0653  0.1504
11104CHOL    R456050   8.322   6.106  17.151  0.1972  0.0920  0.0731
11104CHOL    R556051   8.415   5.911  17.123  0.2306  0.1105  0.0412
11104CHOL    C156052   8.422   6.039  16.764  0.3851  0.2520  0.0937
11104CHOL    C256053   8.235   6.127  16.599  0.3227 -0.4546 -0.2068
11105CHOL   ROH56054   4.113  14.442  14.378  0.2337 -0.0683  0.0177
11105CHOL    R156055   4.324  14.340  14.220  0.2072  0.0474 -0.0937
11105CHOL    R256056   4.335  14.376  13.946  0.0615  0.0830 -0.0971
11105CHOL    R356057   4.581  14.477  14.001  0.0400  0.1924 -0.2008
11105CHOL    R456058   4.554  14.503  13.711 -0.0365  0.0530 -0.2047
11105CHOL    R556059   4.718  14.406  13.818  0.0211  0.1575 -0.2001
11105CHOL    C156060   4.913  14.671  13.626 -0.1136  0.1381 -0.3646
11105CHOL    C256061   5.066  14.938  13.663  0.2002  0.1957 -0.1032
11106CHOL   ROH56062  14.658   1.229  16.946 -0.0680  0.0267  0.3593
11106CHOL    R156063  14.394   1.166  16.865 -0.0406  0.0785  0.2291
11106CHOL    R256064  14.324   1.135  16.600  0.0522  0.2358  0.1858
11106CHOL    R356065  14.230   0.894  16.687  0.0169  0.1860  0.0113
11106CHOL    R456066  14.096   0.938  16.429  0.3665  0.1799 -0.1747
11106CHOL    R556067  14.000   0.892  16.620  0.1106  0.1116 -0.3181
11106CHOL    C156068  13.877   0.598  16.411  0.5165  0.1006 -0.5483
11106CHOL    C256069  13.671   0.305  16.375 -0.3844 -0.0641 -0.1187
11107CHOL   ROH56070  13.141  23.116  20.082 -0.0319  0.0375  0.2031
11107CHOL    R156071  13.007  22.867  20.072  0.0429 -0.0055  0.2556
11107CHOL    R256072  12.978  22.724  19.837 -0.0666  0.0200  0.2528
11107CHOL    R356073  13.092  22.524  19.983  0.0970  0.0362  0.1470
11107CHOL    R456074  12.936  22.386  19.777  0.0167  0.0154  0.2222
11107CHOL    R556075  12.924  22.354  19.992  0.1645 -0.0256  0.2239
11107CHOL    C156076  13.019  22.002  19.878  0.2188  0.0275  0.1049
11107CHOL    C256077  12.956  21.734  19.588 -0.1407  0.1411  0.3424
11108CHOL   ROH56078  26.070  13.050   5.581 -0.1289 -0.0379  0.1331
11108CHOL    R156079  25.831  13.028   5.432 -0.1373 -0.1758  0.1664
11108CHOL    R256080  25.812  13.111   5.169 -0.2987  0.0808  0.2562
11108CHOL    R356081  25.722  12.857   5.130  0.0065  0.0082  0.0091
11108CHOL    R456082  25.608  13.011   4.908 -0.2197  0.0979  0.1874
11108CHOL    R556083  25.499  12.884   5.048 -0.0420 -0.1826  0.0759
11108CHOL    C156084  25.406  12.715   4.719  0.1133  0.0398 -0.0845
11108CHOL    C256085  25.153  12.913   4.394 -0.0309  0.0715  0.2752
11109CHOL   ROH56086  16.713  30.532  12.240 -0.0376 -0.2125  0.1811
11109CHOL    R156087  16.848  30.621  12.472 -0.0584  0.0040  0.1110
11109CHOL    R256088  17.024  30.461  12.612 -0.0881  0.1261  0.2884
11109CHOL    R356089  17.194  30.670  12.574 -0.0669  0.0765  0.1047
11109CHOL    R456090  17.340  30.487  12.751  0.0109  0.1068  0.0705
11109CHOL    R556091  17.301  30.699  12.786  0.0805  0.1268  0.0237
11109CHOL    C156092  17.683  30.699  12.796  0.0879  0.0485 -0.2288
11109CHOL    C256093  18.077  30.879  12.828 -0.2612  0.0874  0.1681
11110CHOL   ROH56094  17.418  33.046  16.603 -0.1955  0.1672  0.0770
11110CHOL    R156095  17.174  32.919  16.668 -0.2392  0.2209  0.0174
11110CHOL    R256096  16.943  32.957  16.522 -0.0935 -0.0495 -0.2889
11110CHOL    R356097  16.946  32.686  16.506 -0.0226 -0.0765  0.1361
11110CHOL    R456098  16.665  32.760  16.465  0.0301 -0.1770 -0.4593
11110CHOL    R556099  16.742  32.618  16.612 -0.1957  0.0595 -0.1041
11110CHOL    C156100  16.506  32.390  16.418  0.1687 -0.2763 -0.1596
11110CHOL    C256101  16.138  32.340  16.463 -0.3631  0.4094 -0.0112
11111CHOL   ROH56102  17.548  32.456  11.554  0.0961  0.0064 -0.0763
11111CHOL    R156103  17.766  32.289  11.621  0.0109 -0.0847 -0.0262
11111CHOL    R256104  17.934  32.343  11.833  0.1023 -0.0492 -0.1079
11111CHOL    R356105  17.868  32.090  11.909 -0.0336  0.0411  0.0773
11111CHOL    R456106  18.143  32.126  12.004  0.0835 -0.1316 -0.1893
11111CHOL    R556107  18.069  31.964  11.878 -0.1614 -0.1366 -0.0433
11111CHOL    C156108  18.202  31.763  12.174 -0.0549 -0.0950 -0.0629
11111CHOL    C256109  18.262  31.854  12.498 -0.0098 -0.3144 -0.2382
11112CHOL   ROH56110  16.338  26.520  15.622 -0.0686 -0.0954 -0.1122
11112CHOL    R156111  16.535  26.685  15.741 -0.3756  0.2394 -0.0588
11112CHOL    R256112  16.805  26.634  15.717 -0.3034  0.1708  0.7629
11112CHOL    R356113  16.812  26.891  15.627 -0.0909 -0.0683  0.0685
11112CHOL    R456114  17.085  26.837  15.721 -0.2460  0.0954  0.6320
11112CHOL    R556115  16.957  27.004  15.781 -0.2895  0.3067 -0.0135
11112CHOL    C156116  17.254  27.196  15.639 -0.0128 -0.1736 -0.0962
11112CHOL    C256117  17.585  27.247  15.582 -0.0557  0.1467 -0.0122
11113CHOL   ROH56118  22.749   9.905  13.237 -0.0656  0.0197  0.0338
11113CHOL    R156119  22.670  10.000  12.982  0.0835  0.0901  0.0139
11113CHOL    R256120  22.810   9.939  12.751 -0.0347 -0.2169  0.0223
11113CHOL    R356121  22.567   9.853  12.665 -0.1962  0.1849  0.0593
11113CHOL    R456122  22.701   9.951  12.424  0.1524 -0.5279 -0.0530
11113CHOL    R556123  22.504  10.010  12.496  0.2443  0.0469 -0.2437
11113CHOL    C156124  22.409   9.876  12.152  0.1099 -0.3316 -0.0620
11113CHOL    C256125  22.330   9.887  11.711 -0.0787  0.0777 -0.1179
11114CHOL   ROH56126  24.308   9.416   4.265 -0.4945  0.1267  0.0299
11114CHOL    R156127  24.382   9.468   4.533 -0.3235  0.2867 -0.0475
11114CHOL    R256128  24.632   9.409   4.633 -0.3750  0.0142 -0.0773
11114CHOL    R356129  24.631   9.672   4.704  0.0400  0.0915 -0.3371
11114CHOL    R456130  24.843   9.551   4.868 -0.4158 -0.1726  0.0740
11114CHOL    R556131  24.674   9.669   4.940 -0.2895  0.2316 -0.2720
11114CHOL    C156132  24.964   9.880   5.071 -0.0503 -0.2089 -0.0820
11114CHOL    C256133  25.245  10.223   5.113 -0.1661  0.1103 -0.0450
11115CHOL   ROH56134  16.819  27.108  19.971  0.1973  0.0277 -0.2112
11115CHOL    R156135  16.630  27.094  19.761 -0.0372 -0.0574  0.0011
11115CHOL    R256136  16.704  27.080  19.495 -0.3293  0.3660 -0.1108
11115CHOL    R356137  16.545  26.859  19.496  0.0473  0.0893 -0.1566
11115CHOL    R456138  16.502  26.981  19.233 -0.4862  0.3143  0.0284
11115CHOL    R556139  16.348  26.927  19.378 -0.2193 -0.1122  0.1623
11115CHOL    C156140  16.235  26.716  19.081 -0.2240  0.0247  0.0673
11115CHOL    C256141  15.937  26.618  18.793  0.0805 -0.1563  0.0365
11116CHOL   ROH56142   4.425  29.012  14.701 -0.0653 -0.2515  0.2369
11116CHOL    R156143   4.218  29.168  14.814 -0.0123 -0.1440  0.1852
11116CHOL    R256144   3.967  29.066  14.870 -0.0378 -0.0471  0.2441
11116CHOL    R356145   4.019  29.164  15.118  0.0052  0.0420  0.2004
11116CHOL    R456146   3.729  29.119  15.115  0.0283 -0.1341  0.3279
11116CHOL    R556147   3.831  29.304  15.167 -0.0610 -0.0589  0.2429
11116CHOL    C156148   3.638  29.242  15.490  0.1072 -0.1014  0.3356
11116CHOL    C256149   3.657  29.070  15.806 -0.2317  0.3930  0.0308
11117CHOL   ROH56150  11.572  20.098  17.102  0.1310  0.1371  0.1636
11117CHOL    R156151  11.468  19.923  17.299  0.1545  0.0467  0.0967
11117CHOL    R256152  11.310  19.705  17.237  0.1066  0.1028  0.0196
11117CHOL    R356153  11.496  19.570  17.382  0.1230 -0.0023 -0.0996
11117CHOL    R456154  11.276  19.379  17.346 -0.0422  0.1476  0.1076
11117CHOL    R556155  11.368  19.438  17.535  0.1472  0.1188  0.0257
11117CHOL    C156156  11.431  19.062  17.545 -0.1134  0.0747  0.0469
11117CHOL    C256157  11.064  18.941  17.506 -0.0156 -0.0284  0.1183
11118CHOL   ROH56158  33.772  35.015   9.031  0.1140 -0.4431  0.1612
11118CHOL    R156159  33.637  35.093   9.267  0.0546 -0.4532  0.1306
11118CHOL    R256160  33.416  35.259   9.264  0.2877 -0.1408  0.1110
11118CHOL    R356161  33.301  35.056   9.404 -0.0972 -0.1009 -0.1399
11118CHOL    R456162  33.144  35.294   9.475  0.2640  0.0885  0.0432
11118CHOL    R556163  33.241  35.156   9.613 -0.0126 -0.2144 -0.0603
11118CHOL    C156164  32.878  35.124   9.729 -0.1132  0.2596 -0.2320
11118CHOL    C256165  32.526  34.954  10.016  0.3627 -0.1441 -0.2052
11119CHOL   ROH56166   5.709  11.553  15.295  0.0506  0.1042  0.0642
11119CHOL    R156167   5.897  11.502  15.089 -0.0891 -0.1027 -0.0127
11119CHOL    R256168   5.826  11.386  14.849 -0.3371  0.0784 -0.0263
11119CHOL    R356169   5.945  11.606  14.744 -0.0474 -0.0608  0.0050
11119CHOL    R456170   6.021  11.387  14.564 -0.1965 -0.1695  0.0663
11119CHOL    R556171   6.156  11.526  14.663 -0.0916 -0.3020  0.1165
11119CHOL    C156172   6.246  11.595  14.299  0.1573 -0.4446  0.1498
11119CHOL    C256173   6.437  11.580  14.067  0.0708  0.0132 -0.0236
11120CHOL   ROH56174  35.357  24.856  11.363 -0.1073  0.3265 -0.0548
11120CHOL    R156175   0.190  24.985  11.237  0.0411  0.1328  0.0009
11120CHOL    R256176   0.207  25.260  11.214  0.2039  0.1097 -0.1543
11120CHOL    R356177   0.448  25.223  11.333  0.1116  0.0509  0.0159
11120CHOL    R456178   0.477  25.473  11.184  0.3421 -0.0610 -0.1352
11120CHOL    R556179   0.607  25.299  11.171  0.2526 -0.1455  0.0586
11120CHOL    C156180   0.860  25.563  11.278  0.3360 -0.2157  0.0354
11120CHOL    C256181   1.237  25.733  11.245 -0.3422 -0.3562  0.2101
11121CHOL   ROH56182  26.297   1.823   6.856  0.2383  0.0290 -0.0486
11121CHOL    R156183  26.368   1.710   7.106  0.0082 -0.0440 -0.0150
11121CHOL    R256184  26.539   1.837   7.282  0.1027 -0.2459  0.0359
11121CHOL    R356185  26.333   1.802   7.457 -0.0038  0.0231 -0.0330
11121CHOL    R456186  26.554   1.904   7.621  0.0954 -0.3085  0.0490
11121CHOL    R556187  26.438   1.722   7.657 -0.1753 -0.1523 -0.0096
11121CHOL    C156188  26.369   1.910   7.982 -0.0095 -0.0924 -0.0082
11121CHOL    C256189  26.200   1.977   8.330  0.1560 -0.0536  0.2980
11122CHOL   ROH56190  27.020   1.160   8.575  0.1284  0.0478  0.1062
11122CHOL    R156191  26.775   1.188   8.436  0.1434 -0.0421  0.0609
11122CHOL    R256192  26.606   0.975   8.388  0.1301 -0.0672  0.2143
11122CHOL    R356193  26.423   1.136   8.508  0.1331  0.0447  0.0710
11122CHOL    R456194  26.274   0.893   8.439  0.0479  0.1212 -0.0100
11122CHOL    R556195  26.220   1.097   8.386  0.1968  0.1456 -0.0668
11122CHOL    C156196  25.909   0.996   8.581  0.0025  0.3358 -0.2752
11122CHOL    C256197  25.582   1.051   8.407 -0.2176 -0.1641  0.0003
11123CHOL   ROH56198  27.179  23.498   5.682  0.1003  0.2557  0.1401
11123CHOL    R156199  26.975  23.567   5.498  0.0744  0.0546  0.0926
11123CHOL    R256200  26.942  23.824   5.402 -0.1389  0.0166  0.0618
11123CHOL    R356201  26.958  23.701   5.160  0.0214  0.0077  0.0766
11123CHOL    R456202  26.832  23.959   5.104 -0.0465 -0.0420  0.0011
11123CHOL    R556203  26.756  23.763   5.048  0.0515 -0.0727 -0.0234
11123CHOL    C156204  26.783  23.923   4.703  0.1565 -0.0841 -0.0203
11123CHOL    C256205  26.654  23.878   4.266 -0.1656  0.0922  0.3654
11124CHOL   ROH56206  12.143  16.387  14.378  0.0330  0.1929  0.1185
11124CHOL    R156207  12.254  16.450  14.631  0.1214  0.2329  0.0696
11124CHOL    R256208  12.320  16.257  14.817 -0.0129  0.2749  0.1596
11124CHOL    R356209  12.563  16.378  14.810  0.0879  0.0701  0.0629
11124CHOL    R456210  12.541  16.272  15.082  0.0162  0.2676  0.1362
11124CHOL    R556211  12.587  16.478  15.026  0.1831  0.1949 -0.0035
11124CHOL    C156212  12.899  16.395  15.229  0.1277  0.0708  0.0318
11124CHOL    C256213  13.153  16.322  15.535 -0.1567 -0.0144  0.2224
11125CHOL   ROH56214  19.870  16.554  16.517 -0.0228  0.0590  0.2217
11125CHOL    R156215  19.667  16.550  16.319  0.1038  0.0126  0.0917
11125CHOL    R256216  19.431  16.691  16.346 -0.0170 -0.1738  0.0171
11125CHOL    R356217  19.502  16.793  16.104  0.0609  0.0037  0.1146
11125CHOL    R456218  19.217  16.730  16.077  0.0904 -0.0591 -0.0515
11125CHOL    R556219  19.378  16.664  15.945  0.1667  0.0721 -0.0248
11125CHOL    C156220  19.160  16.850  15.694  0.2259  0.1749  0.0003
11125CHOL    C256221  18.922  16.844  15.460 -0.0090 -0.2281  0.1320
11126CHOL   ROH56222  28.135  25.882   6.482  0.1248  0.2203  0.0236
11126CHOL    R156223  27.943  26.048   6.355  0.0408  0.1341  0.0361
11126CHOL    R256224  28.014  26.259   6.191 -0.0650  0.1830  0.0538
11126CHOL    R356225  27.853  26.133   6.013 -0.0007  0.1152  0.0422
11126CHOL    R456226  27.876  26.407   5.912 -0.2073  0.1598  0.1116
11126CHOL    R556227  27.691  26.299   5.952 -0.1265  0.0183  0.1082
11126CHOL    C156228  27.643  26.375   5.581 -0.2301  0.0828  0.1344
11126CHOL    C256229  27.265  26.535   5.398 -0.0057  0.2178 -0.0278
11127CHOL   ROH56230  35.287  31.217   9.438  0.2362 -0.1575  0.1978
11127CHOL    R156231  35.063  31.068   9.526  0.1942 -0.1255  0.1463
11127CHOL    R256232  35.086  30.853   9.698  0.1152 -0.0744  0.2201
11127CHOL    R356233  34.904  30.993   9.845  0.0551 -0.0261  0.1010
11127CHOL    R456234  34.883  30.717   9.943 -0.1892 -0.0509 -0.0171
11127CHOL    R556235  34.720  30.842   9.870 -0.0538  0.0666 -0.1256
11127CHOL    C156236  34.594  30.769  10.223 -0.4246  0.0082 -0.2671
11127CHOL    C256237  34.436  30.598  10.577  0.0041 -0.1437  0.0250
11128CHOL   ROH56238  14.907  20.912  16.982 -0.2669  0.0171  0.2347
11128CHOL    R156239  15.003  20.781  17.215 -0.1871  0.0931  0.2445
11128CHOL    R256240  15.270  20.719  17.251 -0.2089 -0.1078  0.0672
11128CHOL    R356241  15.237  20.857  17.483  0.0977  0.0774  0.0028
11128CHOL    R456242  15.400  20.624  17.557 -0.1515 -0.0832  0.0507
11128CHOL    R556243  15.213  20.687  17.650 -0.0201  0.2096  0.1211
11128CHOL    C156244  15.445  20.698  17.953  0.1698  0.1053 -0.0193
11128CHOL    C256245  15.666  20.402  18.058  0.1304 -0.0256  0.2310
11129CHOL   ROH56246   4.007  23.501   7.486 -0.1832  0.3505 -0.3103
11129CHOL    R156247   3.746  23.409   7.545 -0.0552  0.1310 -0.0760
11129CHOL    R256248   3.615  23.222   7.389 -0.0758  0.0961 -0.0151
11129CHOL    R356249   3.589  23.091   7.626  0.2659 -0.0198 -0.0395
11129CHOL    R456250   3.385  22.973   7.452 -0.0875  0.1696  0.2390
11129CHOL    R556251   3.353  23.058   7.650  0.2880  0.0780  0.3431
11129CHOL    C156252   3.226  22.704   7.711  0.2263  0.1035  0.3641
11129CHOL    C256253   2.954  22.805   7.821  0.0795  0.0133  0.0998
11130CHOL   ROH56254   0.441   3.594   8.612  0.1041 -0.0510 -0.0718
11130CHOL    R156255   0.437   3.677   8.883 -0.0234 -0.2041 -0.0260
11130CHOL    R256256   0.521   3.928   8.962  0.0780 -0.3012  0.1737
11130CHOL    R356257   0.274   3.940   9.076  0.0093 -0.2156  0.0173
11130CHOL    R456258   0.410   4.182   9.169  0.0099 -0.2255  0.0453
11130CHOL    R556259   0.313   4.031   9.294 -0.1040 -0.1738  0.0206
11130CHOL    C156260   0.113   4.340   9.396 -0.0942 -0.1012 -0.1764
11130CHOL    C256261  35.125   4.543   9.478  0.1380 -0.2073 -0.1189
11131CHOL   ROH56262  23.868  18.804   7.252  0.0084 -0.0176  0.0937
11131CHOL    R156263  23.671  19.007   7.233  0.0145  0.0006  0.2265
11131CHOL    R256264  23.489  19.018   7.026  0.0807  0.1990  0.1782
11131CHOL    R356265  23.308  19.024   7.229  0.0153  0.0030  0.1265
11131CHOL    R456266  23.146  19.033   6.985  0.0921  0.2033  0.0812
11131CHOL    R556267  23.137  19.172   7.152  0.0265  0.0557  0.2024
11131CHOL    C156268  22.776  19.046   7.151  0.0377  0.0218 -0.0238
11131CHOL    C256269  22.591  19.124   6.868 -0.1166  0.0764  0.0743
11132CHOL   ROH56270  34.689  23.205   2.330  0.0492 -0.0495 -0.0245
11132CHOL    R156271  34.555  23.245   2.576  0.0969  0.0097 -0.0083
11132CHOL    R256272  34.323  23.112   2.643 -0.0513  0.2420 -0.0539
11132CHOL    R356273  34.465  23.042   2.865 -0.1239  0.0048 -0.0803
11132CHOL    R456274  34.186  22.982   2.933 -0.1942  0.2987 -0.0957
11132CHOL    R556275  34.324  23.105   3.048 -0.0488  0.1040 -0.0560
11132CHOL    C156276  34.239  22.841   3.309 -0.3455  0.1092 -0.1448
11132CHOL    C256277  33.941  22.719   3.411 -0.1330  0.0971  0.0573
11133CHOL   ROH56278  19.347  16.614  11.351  0.0404  0.1597  0.1299
11133CHOL    R156279  19.553  16.592  11.543  0.0807 -0.0452  0.0637
11133CHOL    R256280  19.750  16.399  11.528  0.1299  0.0285 -0.2333
11133CHOL    R356281  19.916  16.614  11.546  0.0759  0.0511  0.0287
11133CHOL    R456282  20.078  16.387  11.637  0.2274 -0.0790 -0.5330
11133CHOL    R556283  20.044  16.574  11.744  0.2569 -0.2857 -0.1496
11133CHOL    C156284  20.425  16.581  11.717  0.2336 -0.1204 -0.4617
11133CHOL    C256285  20.772  16.571  11.658 -0.1240 -0.1549  0.0279
11134CHOL   ROH56286  14.271  31.661  16.063 -0.1530  0.0398  0.0899
11134CHOL    R156287  14.470  31.824  16.180 -0.1162  0.0355  0.0328
11134CHOL    R256288  14.462  31.901  16.446 -0.0615  0.0704  0.0233
11134CHOL    R356289  14.712  31.793  16.451 -0.0706  0.0477 -0.0060
11134CHOL    R456290  14.733  32.038  16.611 -0.0713 -0.0397  0.1318
11134CHOL    R556291  14.858  31.982  16.441 -0.0549  0.0427  0.1150
11134CHOL    C156292  15.125  32.016  16.712 -0.0854 -0.1253  0.1671
11134CHOL    C256293  15.322  32.281  16.990 -0.0656  0.0424  0.0625
11135CHOL   ROH56294  22.454  14.800   5.180  0.0510 -0.1768  0.0301
11135CHOL    R156295  22.735  14.840   5.183  0.0422 -0.1033 -0.0551
11135CHOL    R256296  22.877  14.913   4.958 -0.0542  0.0007 -0.0839
11135CHOL    R356297  22.964  15.115   5.118 -0.0542 -0.0231 -0.0542
11135CHOL    R456298  23.190  15.057   4.941 -0.1501  0.1924 -0.2452
11135CHOL    R556299  23.194  15.063   5.159  0.0059  0.0930 -0.2460
11135CHOL    C156300  23.455  15.330   5.081 -0.2059  0.2816 -0.3115
11135CHOL    C256301  23.810  15.293   5.063  0.3539  0.1062  0.1870
11136CHOL   ROH56302  30.439  24.029   1.302 -0.0839 -0.0525 -0.0629
11136CHOL    R156303  30.430  24.052   1.584 -0.1486 -0.0328 -0.0669
11136CHOL    R256304  30.454  23.834   1.752 -0.0923 -0.0089 -0.0456
11136CHOL    R356305  30.654  23.981   1.863 -0.1737  0.0813 -0.0167
11136CHOL    R456306  30.587  23.781   2.066  0.1028 -0.1537 -0.1515
11136CHOL    R556307  30.595  23.997   2.094 -0.0818 -0.1673  0.0265
11136CHOL    C156308  30.853  23.888   2.353  0.1399 -0.1534 -0.1860
11136CHOL    C256309  31.017  23.925   2.681  0.1807  0.0732  0.1198
11137CHOL   ROH56310  21.997  12.363   5.943  0.0717  0.0892 -0.1690
11137CHOL    R156311  22.187  12.549   6.038 -0.0240  0.2013 -0.1958
11137CHOL    R256312  22.401  12.477   6.197 -0.1557  0.3816  0.0670
11137CHOL    R356313  22.546  12.601   6.004  0.0025  0.1915  0.0629
11137CHOL    R456314  22.725  12.589   6.236 -0.1310  0.2750  0.1701
11137CHOL    R556315  22.672  12.767   6.122  0.0048  0.2198  0.0196
11137CHOL    C156316  23.051  12.770   6.077  0.0317  0.0347  0.2262
11137CHOL    C256317  23.382  12.859   5.959 -0.1320 -0.0255 -0.4135
11138CHOL   ROH56318   8.975  27.235  17.634  0.1882  0.0927 -0.0819
11138CHOL    R156319   9.032  27.358  17.883  0.1315 -0.0114 -0.0175
11138CHOL    R256320   8.870  27.551  17.995  0.1521  0.0019 -0.0154
11138CHOL    R356321   8.871  27.383  18.209  0.0144 -0.0704 -0.0700
11138CHOL    R456322   8.762  27.635  18.312 -0.0792 -0.1095 -0.0629
11138CHOL    R556323   8.931  27.523  18.394 -0.1258 -0.1247  0.0196
11138CHOL    C156324   8.701  27.526  18.698 -0.3431 -0.2420 -0.1421
11138CHOL    C256325   8.537  27.765  18.854  0.2287  0.2195 -0.1617
11139CHOL   ROH56326  24.463   6.695   6.068  0.0593 -0.0423 -0.0651
11139CHOL    R156327  24.465   6.796   6.332  0.0084  0.1010 -0.1192
11139CHOL    R256328  24.636   6.700   6.526 -0.0855  0.1500 -0.0134
11139CHOL    R356329  24.705   6.963   6.549 -0.0056  0.1403 -0.1327
11139CHOL    R456330  24.796   6.840   6.799 -0.3166  0.2803  0.0568
11139CHOL    R556331  24.667   7.014   6.780 -0.2296  0.3209 -0.2063
11139CHOL    C156332  24.954   7.167   6.980 -0.3759  0.3471 -0.0142
11139CHOL    C256333  25.159   7.111   7.292  0.5444 -0.1260  0.1819
11140CHOL   ROH56334  12.365  20.654  21.156 -0.0083  0.2790  0.1690
11140CHOL    R156335  12.166  20.638  20.956 -0.0482  0.3370  0.2048
11140CHOL    R256336  12.115  20.844  20.779  0.2221  0.2174 -0.0129
11140CHOL    R356337  12.154  20.650  20.592 -0.0614 -0.0408  0.1893
11140CHOL    R456338  12.049  20.879  20.442  0.2643 -0.0372 -0.0494
11140CHOL    R556339  11.970  20.676  20.441 -0.0328  0.0702  0.1688
11140CHOL    C156340  12.046  20.718  20.070  0.0226 -0.4276  0.1192
11140CHOL    C256341  11.878  21.018  19.889 -0.0618 -0.0192  0.2694
11141CHOL   ROH56342  16.587  27.697  14.883  0.2404 -0.0538 -0.2368
11141CHOL    R156343  16.625  27.847  15.120  0.1863 -0.2838 -0.0812
11141CHOL    R256344  16.857  27.832  15.270  0.3146 -0.1277 -0.2639
11141CHOL    R356345  16.857  28.102  15.237 -0.1035 -0.0835  0.0631
11141CHOL    R456346  17.008  28.057  15.485  0.5238 -0.2060 -0.3274
11141CHOL    R556347  16.836  28.188  15.460  0.2916 -0.3864  0.2255
11141CHOL    C156348  17.095  28.441  15.580  0.2529 -0.2098 -0.0577
11141CHOL    C256349  17.150  28.614  15.864  0.1244  0.1778  0.0137
11142CHOL   ROH56350  10.529   2.420  18.719 -0.1160 -0.2841 -0.0624
11142CHOL    R156351  10.541   2.317  18.456 -0.1256 -0.1802 -0.1036
11142CHOL    R256352  10.482   2.054  18.396  0.0106 -0.1918 -0.1849
11142CHOL    R356353  10.308   2.166  18.220 -0.1002 -0.2274 -0.0983
11142CHOL    R456354  10.436   1.948  18.070  0.0556 -0.0398 -0.2407
11142CHOL    R556355  10.422   2.158  18.010 -0.1181 -0.0141 -0.1175
11142CHOL    C156356  10.246   1.992  17.715 -0.0224  0.0153 -0.1920
11142CHOL    C256357  10.126   2.078  17.420 -0.1989 -0.1411 -0.1653
11143CHOL   ROH56358   7.396  16.297  16.951 -0.0454  0.3497  0.0296
11143CHOL    R156359   7.522  16.256  16.701  0.3709  0.2453  0.2525
11143CHOL    R256360   7.416  16.350  16.463  0.3353 -0.5442 -0.0611
11143CHOL    R356361   7.662  16.465  16.437  0.0202  0.1743  0.0063
11143CHOL    R456362   7.552  16.461  16.165  0.2789 -0.5783 -0.0996
11143CHOL    R556363   7.745  16.381  16.229  0.4771  0.1041  0.2098
11143CHOL    C156364   7.861  16.633  15.967 -0.0498  0.0764 -0.0587
11143CHOL    C256365   8.176  16.765  15.727  0.0391 -0.1019 -0.1272
11144CHOL   ROH56366   4.268  17.067   7.668  0.1395  0.0214  0.0049
11144CHOL    R156367   3.999  17.015   7.740  0.1912 -0.1057  0.1076
11144CHOL    R256368   3.916  16.999   8.003  0.2456  0.1391  0.1411
11144CHOL    R356369   3.736  17.187   7.925  0.0847 -0.0934 -0.0547
11144CHOL    R456370   3.644  17.101   8.189  0.2922  0.2684  0.1387
11144CHOL    R556371   3.526  17.105   8.006  0.1809 -0.0952  0.1975
11144CHOL    C156372   3.316  17.337   8.224  0.1683  0.1251 -0.0463
11144CHOL    C256373   3.186  17.726   8.487 -0.1530 -0.1516 -0.1900
11145CHOL   ROH56374   4.739  14.143  15.154 -0.1853  0.1939 -0.1784
11145CHOL    R156375   4.948  14.043  14.991  0.0039  0.3359 -0.0240
11145CHOL    R256376   4.905  13.947  14.736  0.1661 -0.2240  0.1536
11145CHOL    R356377   5.097  14.129  14.670 -0.2222  0.0670 -0.2028
11145CHOL    R456378   5.128  13.913  14.474  0.3314 -0.3373  0.3077
11145CHOL    R556379   5.284  13.995  14.602  0.1085  0.3238  0.1758
11145CHOL    C156380   5.437  14.063  14.259  0.0632 -0.1298  0.0625
11145CHOL    C256381   5.614  14.251  13.992 -0.0326 -0.0619 -0.2611
11146CHOL   ROH56382  29.425  27.384   4.162  0.0106  0.2030 -0.0106
11146CHOL    R156383  29.425  27.233   4.401 -0.1135  0.0435 -0.1104
11146CHOL    R256384  29.485  27.342   4.647  0.2711 -0.2309 -0.0761
11146CHOL    R356385  29.244  27.237   4.717  0.1133  0.1841  0.0173
11146CHOL    R456386  29.429  27.149   4.928  0.1476 -0.5182 -0.2967
11146CHOL    R556387  29.298  27.022   4.808 -0.2527 -0.0681 -0.3491
11146CHOL    C156388  29.170  26.938   5.157 -0.0721 -0.2966 -0.3374
11146CHOL    C256389  29.037  26.835   5.447  0.0496 -0.1335  0.0532
11147CHOL   ROH56390  12.772  15.058  14.475 -0.0244  0.0466 -0.1092
11147CHOL    R156391  12.880  15.168  14.712 -0.0158 -0.0321 -0.0766
11147CHOL    R256392  12.728  15.312  14.892  0.0244  0.0396 -0.1007
11147CHOL    R356393  12.826  15.131  15.070 -0.1174 -0.0286 -0.0914
11147CHOL    R456394  12.724  15.350  15.235  0.0345  0.0518 -0.1018
11147CHOL    R556395  12.924  15.264  15.242 -0.0278 -0.0957 -0.0896
11147CHOL    C156396  12.814  15.203  15.602 -0.0924 -0.0053 -0.0937
11147CHOL    C256397  13.081  15.389  15.905 -0.1005 -0.1951  0.3695
11148CHOL   ROH56398   3.560  22.142  13.572  0.0031 -0.1135  0.2087
11148CHOL    R156399   3.776  22.200  13.399 -0.0641 -0.0109  0.1589
11148CHOL    R256400   3.931  22.427  13.425 -0.0443 -0.0338  0.2424
11148CHOL    R356401   4.135  22.247  13.430 -0.0492 -0.0459  0.0449
11148CHOL    R456402   4.265  22.505  13.379 -0.0666 -0.0286  0.0875
11148CHOL    R556403   4.286  22.323  13.261 -0.1424  0.0235 -0.0070
11148CHOL    C156404   4.650  22.382  13.357 -0.0841 -0.0369 -0.1881
11148CHOL    C256405   5.031  22.600  13.359 -0.1255  0.1962  0.0447
11149CHOL   ROH56406  26.273  31.711   6.399  0.2544 -0.0808 -0.0229
11149CHOL    R156407  26.360  31.791   6.656  0.0381 -0.0690  0.0483
11149CHOL    R256408  26.199  31.776   6.880 -0.1308 -0.1179 -0.0753
11149CHOL    R356409  26.406  31.633   6.981 -0.1725 -0.0709  0.0776
11149CHOL    R456410  26.256  31.722   7.216 -0.1209  0.2615 -0.0142
11149CHOL    R556411  26.469  31.751   7.180 -0.1141  0.1438 -0.0672
11149CHOL    C156412  26.484  31.556   7.507 -0.1543  0.5262  0.1650
11149CHOL    C256413  26.477  31.463   7.899  0.1811 -0.1062 -0.3133
11150CHOL   ROH56414  14.194  13.351  15.354  0.0338 -0.0476 -0.2000
11150CHOL    R156415  14.308  13.340  15.613  0.0464 -0.1233 -0.2086
11150CHOL    R256416  14.165  13.403  15.841  0.0933 -0.0694 -0.1942
11150CHOL    R356417  14.246  13.157  15.921 -0.0236 -0.1160 -0.2181
11150CHOL    R456418  14.136  13.281  16.163 -0.0344 -0.1165 -0.2232
11150CHOL    R556419  14.334  13.192  16.141 -0.0643 -0.1904 -0.1902
11150CHOL    C156420  14.195  12.979  16.426 -0.2185 -0.1881 -0.2628
11150CHOL    C256421  14.046  13.140  16.685  0.0009 -0.1643  0.0363
11151CHOL   ROH56422  31.355  12.530   3.952  0.1252  0.1373 -0.0370
11151CHOL    R156423  31.306  12.349   3.741  0.0658  0.1300 -0.0169
11151CHOL    R256424  31.248  12.432   3.484  0.1204  0.1204 -0.0324
11151CHOL    R356425  31.457  12.271   3.419  0.0581  0.0243  0.0049
11151CHOL    R456426  31.269  12.243   3.195  0.1101  0.1549 -0.0558
11151CHOL    R556427  31.355  12.081   3.314 -0.0072  0.0923 -0.0552
11151CHOL    C156428  31.477  11.982   2.966  0.0455  0.0848 -0.0345
11151CHOL    C256429  31.203  11.813   2.863  0.3894 -0.1875 -0.1803
11152CHOL   ROH56430  33.885  27.945  12.234 -0.0083 -0.0869  0.0598
11152CHOL    R156431  34.109  28.058  12.103 -0.0252 -0.1701 -0.0429
11152CHOL    R256432  34.289  28.224  12.232 -0.1366  0.1002 -0.2312
11152CHOL    R356433  34.471  28.045  12.140 -0.0292  0.0495  0.0753
11152CHOL    R456434  34.588  28.307  12.080  0.0008  0.0158 -0.0091
11152CHOL    R556435  34.556  28.144  11.939  0.1526 -0.0921  0.0810
11152CHOL    C156436  34.933  28.187  11.905  0.1819 -0.0803  0.4080
11152CHOL    C256437  35.244  28.323  11.914  0.2414  0.1608  0.1650
11153CHOL   ROH56438  23.605  26.568   6.833 -0.0816 -0.1030  0.1450
11153CHOL    R156439  23.498  26.440   7.062 -0.2537 -0.0628  0.0875
11153CHOL    R256440  23.622  26.448   7.309 -0.2351 -0.3477  0.0890
11153CHOL    R356441  23.380  26.540   7.391 -0.1072 -0.0521  0.1371
11153CHOL    R456442  23.525  26.481   7.639 -0.1945 -0.4026  0.1064
11153CHOL    R556443  23.327  26.407   7.583 -0.2993 -0.0914  0.0586
11153CHOL    C156444  23.241  26.587   7.908 -0.0512 -0.1568  0.1617
11153CHOL    C256445  23.007  26.419   8.114  0.1567 -0.1931 -0.1605
11154CHOL   ROH56446  24.163  25.179   4.578 -0.0656 -0.1569  0.1249
11154CHOL    R156447  24.241  24.936   4.701 -0.1041 -0.1482  0.1663
11154CHOL    R256448  24.502  24.883   4.773 -0.0836 -0.2428  0.0269
11154CHOL    R356449  24.391  24.836   5.017  0.0409 -0.1013  0.1123
11154CHOL    R456450  24.658  24.715   5.032  0.0576 -0.0633  0.0597
11154CHOL    R556451  24.469  24.617   5.075  0.0908 -0.0553  0.2145
11154CHOL    C156452  24.645  24.573   5.411  0.2567  0.1740  0.1588
11154CHOL    C256453  25.044  24.549   5.337  0.2291  0.1703 -0.3134
11155CHOL   ROH56454   3.942   6.682   9.874 -0.0217 -0.0776 -0.1911
11155CHOL    R156455   3.823   6.643  10.127  0.0492  0.0480 -0.1385
11155CHOL    R256456   3.719   6.852  10.276  0.0914  0.1215 -0.2127
11155CHOL    R356457   3.495   6.698  10.276  0.0908  0.1217 -0.0732
11155CHOL    R456458   3.422   6.936  10.431  0.0750  0.2875 -0.3309
11155CHOL    R556459   3.402   6.728  10.495  0.0678  0.3533 -0.1133
11155CHOL    C156460   3.038   6.839  10.522  0.0650  0.3845 -0.2691
11155CHOL    C256461   2.925   6.505  10.658  0.1361  0.1072 -0.3120
11156CHOL   ROH56462  18.438  19.397  13.498  0.0951  0.0789 -0.0660
11156CHOL    R156463  18.663  19.439  13.664 -0.0542  0.1900  0.1101
11156CHOL    R256464  18.684  19.330  13.916 -0.0604 -0.0650 -0.0002
11156CHOL    R356465  18.918  19.231  13.820  0.1279  0.3475  0.0258
11156CHOL    R456466  18.943  19.210  14.112 -0.2033 -0.3515  0.0182
11156CHOL    R556467  19.083  19.308  13.976 -0.1116  0.0938  0.4156
11156CHOL    C156468  19.314  19.049  14.135 -0.1099 -0.1310  0.0532
11156CHOL    C256469  19.500  19.076  14.452 -0.0844  0.3095 -0.1932
11157CHOL   ROH56470   2.185  23.283   5.558  0.2116 -0.0213 -0.1165
11157CHOL    R156471   1.945  23.164   5.649  0.2213  0.0111 -0.0497
11157CHOL    R256472   1.892  22.895   5.619  0.1319  0.0377 -0.1294
11157CHOL    R356473   1.853  22.906   5.888  0.2612 -0.0560 -0.1060
11157CHOL    R456474   1.757  22.640   5.809 -0.1996  0.1385 -0.2256
11157CHOL    R556475   1.646  22.790   5.922  0.0858  0.2535 -0.0909
11157CHOL    C156476   1.642  22.501   6.172 -0.2712  0.1096 -0.2597
11157CHOL    C256477   1.533  22.179   6.354 -0.2517 -0.1244  0.0061
11158CHOL   ROH56478  10.126   6.811  15.324 -0.1324  0.2822 -0.1399
11158CHOL    R156479  10.172   6.955  15.563 -0.3238  0.3783 -0.1599
11158CHOL    R256480   9.969   7.078  15.704 -0.5713 -0.3131  0.1052
11158CHOL    R356481  10.068   6.932  15.911  0.1509 -0.0526 -0.0415
11158CHOL    R456482  10.004   7.193  16.028 -0.4751 -0.2474  0.0717
11158CHOL    R556483  10.196   7.089  16.039 -0.1389  0.3186 -0.1974
11158CHOL    C156484  10.118   7.122  16.411  0.2588  0.0354 -0.0857
11158CHOL    C256485  10.021   7.497  16.564  0.1882  0.1953 -0.2881
11159CHOL   ROH56486  30.730   5.938   5.164 -0.1650  0.1667 -0.2093
11159CHOL    R156487  30.690   6.047   5.423 -0.1451  0.1903 -0.2159
11159CHOL    R256488  30.561   6.288   5.464 -0.3418  0.0861 -0.2132
11159CHOL    R356489  30.405   6.139   5.630 -0.1341 -0.0171 -0.1084
11159CHOL    R456490  30.363   6.416   5.717 -0.2186 -0.0493 -0.0466
11159CHOL    R556491  30.423   6.248   5.842 -0.0301 -0.0305 -0.1101
11159CHOL    C156492  30.100   6.350   6.019  0.0482 -0.2249  0.1489
11159CHOL    C256493  30.160   6.726   6.114  0.2692 -0.2493  0.1599
11160CHOL   ROH56494  17.101  32.574  17.259 -0.0334  0.0832  0.0969
11160CHOL    R156495  16.829  32.588  17.182 -0.0713 -0.0610  0.2018
11160CHOL    R256496  16.712  32.405  17.012  0.0105 -0.0113  0.0934
11160CHOL    R356497  16.533  32.378  17.215  0.0979 -0.3123  0.1331
11160CHOL    R456498  16.380  32.317  16.972 -0.0294  0.1358  0.0933
11160CHOL    R556499  16.328  32.463  17.124  0.0765 -0.1076  0.3687
11160CHOL    C156500  16.019  32.240  17.139  0.0297 -0.0601  0.1301
11160CHOL    C256501  15.796  32.227  16.856  0.4169  0.2248  0.0271
11161CHOL   ROH56502  20.788  28.924   8.277  0.1252  0.1794 -0.1962
11161CHOL    R156503  21.054  28.828   8.269  0.1102  0.1280 -0.0865
11161CHOL    R256504  21.213  28.811   8.494  0.0050  0.0717 -0.0166
11161CHOL    R356505  21.240  28.552   8.416 -0.0101  0.0752 -0.0324
11161CHOL    R456506  21.512  28.639   8.481 -0.0336 -0.0126  0.1885
11161CHOL    R556507  21.446  28.548   8.294  0.0824  0.0330  0.1245
11161CHOL    C156508  21.712  28.295   8.400 -0.0707 -0.0586  0.2932
11161CHOL    C256509  21.993  28.349   8.361  0.2363 -0.0650  0.4131
11162CHOL   ROH56510  32.076  22.286   4.250 -0.0811 -0.1027 -0.1439
11162CHOL    R156511  32.125  22.396   3.994  0.0801  0.1154 -0.0205
11162CHOL    R256512  32.312  22.595   3.952  0.2177  0.0462  0.2405
11162CHOL    R356513  32.409  22.421   3.767  0.1793  0.1639  0.1093
11162CHOL    R456514  32.487  22.685   3.668  0.1644  0.2224  0.2633
11162CHOL    R556515  32.377  22.533   3.558  0.1427  0.2962  0.1870
11162CHOL    C156516  32.679  22.574   3.329  0.0972  0.4354  0.1533
11162CHOL    C256517  33.031  22.783   3.149  0.1148 -0.2584 -0.1574
11163CHOL   ROH56518  16.290  18.022  14.776  0.2188 -0.2152  0.0524
11163CHOL    R156519  16.336  17.900  15.027 -0.1627 -0.1461  0.1598
11163CHOL    R256520  16.544  17.974  15.193  0.0063 -0.5675  0.1455
11163CHOL    R356521  16.345  18.005  15.375  0.0402  0.1089  0.0788
11163CHOL    R456522  16.587  17.964  15.535 -0.1507 -0.8076  0.1592
11163CHOL    R556523  16.401  17.852  15.551 -0.5733 -0.1453  0.0640
11163CHOL    C156524  16.425  17.988  15.906 -0.2102 -0.3126  0.1047
11163CHOL    C256525  16.745  18.132  15.994 -0.3140 -0.0755 -0.1245
11164CHOL   ROH56526   5.161  16.567  10.610  0.0885 -0.0558  0.0951
11164CHOL    R156527   5.018  16.669  10.831  0.1015 -0.0639  0.1073
11164CHOL    R256528   4.754  16.748  10.814  0.1246  0.0140  0.1057
11164CHOL    R356529   4.723  16.575  11.022  0.0616 -0.0226  0.0658
11164CHOL    R456530   4.498  16.762  11.047  0.0647 -0.0154  0.0420
11164CHOL    R556531   4.643  16.712  11.202  0.0218 -0.0515  0.0705
11164CHOL    C156532   4.320  16.608  11.377 -0.0294 -0.0667 -0.0326
11164CHOL    C256533   3.995  16.616  11.275  0.4170  0.0271  0.0846
11165CHOL   ROH56534  32.474   5.167   6.451 -0.0600  0.0706  0.0285
11165CHOL    R156535  32.231   5.229   6.582 -0.0416  0.0558  0.0688
11165CHOL    R256536  32.120   5.064   6.774 -0.0979 -0.0453 -0.0491
11165CHOL    R356537  32.124   5.291   6.925 -0.0263 -0.1526  0.1118
11165CHOL    R456538  31.923   5.120   7.053  0.0093 -0.2250  0.0635
11165CHOL    R556539  31.894   5.325   6.986  0.0008 -0.1764  0.2210
11165CHOL    C156540  31.811   5.364   7.356  0.1390 -0.4303  0.2798
11165CHOL    C256541  31.633   5.205   7.656 -0.1761  0.1829 -0.0584
11166CHOL   ROH56542   2.817  12.815  12.973 -0.0800  0.0947 -0.0856
11166CHOL    R156543   2.968  13.046  12.910 -0.0573  0.0533 -0.1853
11166CHOL    R256544   3.244  13.045  12.899 -0.0479  0.0718  0.0261
11166CHOL    R356545   3.202  13.147  12.651  0.1301 -0.1629 -0.1016
11166CHOL    R456546   3.455  13.266  12.739 -0.0726  0.1365  0.0821
11166CHOL    R556547   3.279  13.373  12.665 -0.0913 -0.0799 -0.1945
11166CHOL    C156548   3.539  13.490  12.411  0.0800 -0.0461 -0.0048
11166CHOL    C256549   3.862  13.579  12.406 -0.2218 -0.1201  0.1872
11167CHOL   ROH56550  22.191  11.842   7.061  0.0351 -0.1226  0.1040
11167CHOL    R156551  22.450  11.774   7.152  0.1867  0.0857 -0.1656
11167CHOL    R256552  22.680  11.878   7.039 -0.0222  0.5367 -0.1838
11167CHOL    R356553  22.735  11.950   7.295  0.0575  0.2599 -0.1218
11167CHOL    R456554  22.997  11.923   7.167  0.0145  0.5268 -0.2713
11167CHOL    R556555  22.932  11.825   7.351  0.1389  0.2807 -0.3554
11167CHOL    C156556  23.234  12.016   7.483  0.1113  0.2612 -0.2639
11167CHOL    C256557  23.387  12.365   7.583  0.0754 -0.3946  0.1452
11168CHOL   ROH56558  24.800   2.507  10.636  0.0055  0.0249 -0.0547
11168CHOL    R156559  24.627   2.512  10.413 -0.0967  0.0667  0.0253
11168CHOL    R256560  24.521   2.746  10.312  0.1200  0.1170 -0.0833
11168CHOL    R356561  24.630   2.657  10.079 -0.0927 -0.1655 -0.0772
11168CHOL    R456562  24.390   2.804   9.997  0.0578  0.0973 -0.0609
11168CHOL    R556563  24.441   2.599   9.943 -0.2285 -0.0053  0.0400
11168CHOL    C156564  24.415   2.755   9.596 -0.1781 -0.1793 -0.0423
11168CHOL    C256565  24.108   2.796   9.411  0.1259  0.2018 -0.0077
11169CHOL   ROH56566   7.911  23.041  20.700  0.0238 -0.0264  0.0268
11169CHOL    R156567   8.074  23.078  20.472 -0.0280 -0.0317 -0.0111
11169CHOL    R256568   8.203  22.869  20.345 -0.1074 -0.0422 -0.0722
11169CHOL    R356569   8.074  22.965  20.126 -0.1439  0.0152 -0.0263
11169CHOL    R456570   8.279  22.785  20.019 -0.2446 -0.0563 -0.1017
11169CHOL    R556571   8.248  22.993  19.963 -0.1863 -0.0412 -0.0820
11169CHOL    C156572   8.203  22.826  19.623 -0.3589 -0.0101 -0.0756
11169CHOL    C256573   8.401  22.989  19.337 -0.0538  0.6309 -0.1266
11170CHOL   ROH56574  18.512  14.367  16.585  0.1268 -0.0810 -0.3260
11170CHOL    R156575  18.310  14.370  16.386 -0.0078 -0.0134 -0.1894
11170CHOL    R256576  18.061  14.258  16.425  0.0692 -0.1584 -0.1123
11170CHOL    R356577  17.974  14.505  16.353 -0.0930 -0.1389  0.1429
11170CHOL    R456578  17.791  14.318  16.218  0.0679 -0.1228 -0.1003
11170CHOL    R556579  17.906  14.479  16.124 -0.0269  0.0642  0.0994
11170CHOL    C156580  17.552  14.585  16.029 -0.0849 -0.0840  0.1460
11170CHOL    C256581  17.226  14.821  16.175 -0.0478 -0.1023  0.2623
11171CHOL   ROH56582  13.026   3.663  17.104 -0.0883  0.0411  0.2824
11171CHOL    R156583  12.764   3.649  16.997 -0.0629 -0.0434  0.2308
11171CHOL    R256584  12.579   3.851  17.030 -0.1133 -0.0736  0.1376
11171CHOL    R356585  12.565   3.839  16.759 -0.0531 -0.1495  0.1378
11171CHOL    R456586  12.361   4.035  16.836 -0.2509 -0.3223  0.0549
11171CHOL    R556587  12.331   3.858  16.711 -0.0635 -0.3793  0.0902
11171CHOL    C156588  12.220   4.130  16.467 -0.2744 -0.5385  0.0068
11171CHOL    C256589  12.077   4.186  16.146  0.0076  0.3441  0.1963
11172CHOL   ROH56590   1.498  19.104   7.898  0.0071  0.0782 -0.0049
11172CHOL    R156591   1.627  19.198   7.664  0.0539  0.1442  0.0473
11172CHOL    R256592   1.896  19.256   7.656  0.0590  0.1278  0.1128
11172CHOL    R356593   1.895  19.084   7.446  0.0836  0.1958  0.0568
11172CHOL    R456594   2.127  19.257   7.399  0.1280  0.1696  0.1745
11172CHOL    R556595   1.964  19.217   7.259  0.1575  0.2436  0.1177
11172CHOL    C156596   2.260  19.096   7.052  0.1913  0.2570  0.1577
11172CHOL    C256597   2.700  19.031   7.111  0.2549 -0.1597  0.5949
11173CHOL   ROH56598  11.811  21.141  17.963 -0.1359 -0.0303 -0.0623
11173CHOL    R156599  11.826  20.912  18.129 -0.1502  0.0322  0.0254
11173CHOL    R256600  11.648  20.866  18.335 -0.2482  0.0440 -0.0573
11173CHOL    R356601  11.612  20.629  18.208 -0.0983 -0.0130  0.0049
11173CHOL    R456602  11.525  20.580  18.483 -0.1698  0.0347 -0.0092
11173CHOL    R556603  11.672  20.464  18.371 -0.0794  0.0652  0.0772
11173CHOL    C156604  11.420  20.190  18.451  0.0169 -0.0239  0.0776
11173CHOL    C256605  11.018  20.121  18.587  0.1584 -0.1358 -0.0193
11174CHOL   ROH56606  23.741   3.103  11.516  0.1495  0.3099  0.1088
11174CHOL    R156607  23.571   3.292  11.392  0.0265  0.1662  0.0583
11174CHOL    R256608  23.654   3.451  11.182 -0.0432  0.2416  0.0889
11174CHOL    R356609  23.436   3.346  11.058  0.0857  0.0566  0.0160
11174CHOL    R456610  23.529   3.558  10.877 -0.0801  0.1943  0.0872
11174CHOL    R556611  23.328   3.535  10.958 -0.0772 -0.0230  0.0384
11174CHOL    C156612  23.252   3.521  10.584  0.0194 -0.0069  0.0180
11174CHOL    C256613  23.356   3.703  10.256  0.2948 -0.1167  0.3250
11175CHOL   ROH56614   7.624  27.188  20.454  0.1203 -0.0254 -0.0302
11175CHOL    R156615   7.740  27.291  20.217  0.0861  0.0048 -0.0340
11175CHOL    R256616   7.776  27.138  19.990  0.1200  0.0142 -0.0342
11175CHOL    R356617   7.637  27.338  19.871  0.0636 -0.0227 -0.0309
11175CHOL    R456618   7.744  27.180  19.649 -0.0267 -0.0811 -0.0326
11175CHOL    R556619   7.767  27.395  19.678 -0.0200 -0.0721 -0.1022
11175CHOL    C156620   7.594  27.393  19.338 -0.1651 -0.1716 -0.0286
11175CHOL    C256621   7.721  27.225  18.997  0.2321 -0.0409  0.0368
11176CHOL   ROH56622  13.252  25.596  21.548  0.2245  0.0075  0.0740
11176CHOL    R156623  13.247  25.494  21.284  0.2240  0.0025  0.0763
11176CHOL    R256624  13.330  25.239  21.221 -0.0615 -0.1031  0.1269
11176CHOL    R356625  13.083  25.221  21.108 -0.0321  0.1958  0.0100
11176CHOL    R456626  13.261  25.081  20.921 -0.1291 -0.1530  0.1682
11176CHOL    R556627  13.124  25.244  20.873  0.1253  0.0244  0.0174
11176CHOL    C156628  12.990  24.973  20.641 -0.1410  0.0987  0.0824
11176CHOL    C256629  12.807  24.885  20.352 -0.0666  0.1418 -0.2421
11177CHOL   ROH56630   8.472   5.859  18.071  0.0818  0.0416 -0.1591
11177CHOL    R156631   8.368   5.677  17.881  0.0063  0.0208 -0.0978
11177CHOL    R256632   8.194   5.755  17.681  0.0415  0.0264 -0.1250
11177CHOL    R356633   8.379   5.639  17.519 -0.0071 -0.1078 -0.0850
11177CHOL    R456634   8.134   5.647  17.358  0.0453  0.1192 -0.1574
11177CHOL    R556635   8.256   5.471  17.399 -0.1135  0.0099 -0.1431
11177CHOL    C156636   8.273   5.475  17.018  0.0016  0.0470 -0.1383
11177CHOL    C256637   8.333   5.524  16.624 -0.0348 -0.2501 -0.1074
11178CHOL   ROH56638   1.436  14.754   9.695 -0.1585  0.0356  0.1606
11178CHOL    R156639   1.629  14.846   9.510 -0.2296  0.1782  0.1563
11178CHOL    R256640   1.896  14.874   9.575 -0.2304  0.2730  0.1197
11178CHOL    R356641   1.932  14.715   9.357 -0.1985  0.3576  0.0626
11178CHOL    R456642   2.185  14.861   9.386 -0.1590  0.2565  0.2301
11178CHOL    R556643   2.062  14.849   9.207 -0.0909  0.3800  0.1745
11178CHOL    C156644   2.388  14.703   9.073 -0.0876  0.3262  0.2406
11178CHOL    C256645   2.635  14.520   8.922 -0.2106  0.0534 -0.0063
11179CHOL   ROH56646  16.295  20.178  19.560  0.1140 -0.0154  0.2277
11179CHOL    R156647  16.276  20.385  19.368  0.0113 -0.0441  0.2064
11179CHOL    R256648  16.407  20.375  19.125  0.1489  0.0694  0.2737
11179CHOL    R356649  16.157  20.418  19.025  0.1570 -0.1800  0.1428
11179CHOL    R456650  16.333  20.580  18.856  0.0542  0.2203  0.4135
11179CHOL    R556651  16.157  20.649  18.963 -0.1167 -0.1209  0.3580
11179CHOL    C156652  16.056  20.739  18.606  0.0067  0.0736  0.3718
11179CHOL    C256653  15.785  20.657  18.492 -0.0302  0.1893 -0.1978
11180CHOL   ROH56654   0.351   5.344   8.107 -0.2825 -0.0221  0.3385
11180CHOL    R156655   0.426   5.341   8.380 -0.0158 -0.2111  0.2660
11180CHOL    R256656   0.686   5.299   8.462  0.1388  0.1301 -0.0334
11180CHOL    R356657   0.647   5.533   8.596 -0.1310 -0.0836  0.2707
11180CHOL    R456658   0.890   5.420   8.714  0.2920  0.2819 -0.2288
11180CHOL    R556659   0.711   5.485   8.821  0.3222 -0.1912  0.1222
11180CHOL    C156660   0.972   5.709   8.985  0.1280  0.1695 -0.0572
11180CHOL    C256661   0.889   5.678   9.244 -0.0856 -0.1039  0.2913
11181CHOL   ROH56662  17.852  34.350  14.254  0.1949  0.0264 -0.0486
11181CHOL    R156663  17.773  34.284  13.991  0.1614  0.1495 -0.0694
11181CHOL    R256664  17.649  34.045  13.928  0.3404  0.0903 -0.1992
11181CHOL    R356665  17.460  34.208  13.820  0.1667  0.0106 -0.0177
11181CHOL    R456666  17.485  33.986  13.630  0.2605  0.1495 -0.1672
11181CHOL    R556667  17.501  34.198  13.584  0.0748  0.1911 -0.0418
11181CHOL    C156668  17.211  34.104  13.355  0.0513  0.1089  0.0219
11181CHOL    C256669  16.922  33.980  13.055 -0.1645  0.0972  0.1262
11182CHOL   ROH56670  21.019  35.347  12.562 -0.2683 -0.3508  0.0086
11182CHOL    R156671  20.952   0.180  12.396 -0.4333 -0.3321  0.0991
11182CHOL    R256672  21.127   0.285  12.210 -0.4050  0.0666  0.3463
11182CHOL    R356673  20.921   0.240  12.038 -0.1698 -0.1236  0.1101
11182CHOL    R456674  21.092   0.435  11.900 -0.0666 -0.1485  0.2011
11182CHOL    R556675  20.879   0.454  11.939 -0.1259 -0.2033 -0.0847
11182CHOL    C156676  20.879   0.480  11.558  0.3514 -0.4522 -0.1049
11182CHOL    C256677  20.639   0.587  11.268 -0.0494  0.0202  0.2872
11183CHOL   ROH56678   2.218  10.220  12.495 -0.2162  0.0337 -0.4159
11183CHOL    R156679   2.427  10.325  12.335 -0.0649  0.0572 -0.2052
11183CHOL    R256680   2.684  10.359  12.430 -0.1336 -0.0296  0.0183
11183CHOL    R356681   2.749  10.210  12.212  0.0131  0.0433  0.0122
11183CHOL    R456682   2.985  10.378  12.261 -0.1011  0.1766  0.0977
11183CHOL    R556683   2.875  10.359  12.074 -0.0410  0.1392  0.0674
11183CHOL    C156684   3.222  10.249  11.959  0.0554  0.3654  0.1381
11183CHOL    C256685   3.197  10.364  11.574  0.0988 -0.0816  0.1866
11184CHOL   ROH56686   3.666  18.601  11.606 -0.0184  0.0284  0.0019
11184CHOL    R156687   3.857  18.529  11.410 -0.0209  0.1854 -0.0591
11184CHOL    R256688   4.084  18.679  11.362  0.0625  0.1372  0.1728
11184CHOL    R356689   4.210  18.442  11.405 -0.0629  0.0166 -0.1092
11184CHOL    R456690   4.354  18.563  11.180  0.1676  0.3317  0.2041
11184CHOL    R556691   4.267  18.364  11.186  0.0868  0.3527 -0.1936
11184CHOL    C156692   4.631  18.273  11.115  0.1111  0.3317 -0.0425
11184CHOL    C256693   4.648  17.893  10.841 -0.1200  0.1044 -0.3888
11185CHOL   ROH56694   7.948  10.827  13.764 -0.1300 -0.0482 -0.0179
11185CHOL    R156695   7.707  10.968  13.814 -0.0636  0.0694 -0.0271
11185CHOL    R256696   7.472  10.840  13.883 -0.1495  0.1775 -0.1202
11185CHOL    R356697   7.479  11.011  14.094 -0.1024  0.1065 -0.0641
11185CHOL    R456698   7.259  10.827  14.155 -0.0732  0.0700 -0.0654
11185CHOL    R556699   7.249  11.045  14.151 -0.0896  0.0710  0.0113
11185CHOL    C156700   7.142  10.979  14.511  0.0153 -0.0591  0.0194
11185CHOL    C256701   6.886  10.935  14.585 -0.0525 -0.0017  0.1869
11186CHOL   ROH56702  13.287  29.057  17.601 -0.3668 -0.1027  0.1806
11186CHOL    R156703  13.476  29.154  17.788 -0.2369 -0.0082  0.0029
11186CHOL    R256704  13.424  29.370  17.953 -0.1997 -0.0492  0.0707
11186CHOL    R356705  13.493  29.195  18.150  0.0938 -0.0267 -0.0094
11186CHOL    R456706  13.586  29.456  18.246 -0.2042  0.0608  0.0416
11186CHOL    R556707  13.705  29.274  18.228  0.0220  0.2174 -0.0595
11186CHOL    C156708  13.744  29.342  18.601  0.0687  0.1454 -0.0516
11186CHOL    C256709  13.610  29.350  18.897 -0.2064 -0.3321 -0.1104
11187CHOL   ROH56710  32.628  30.012   7.481  0.1396  0.1401 -0.0015
11187CHOL    R156711  32.518  29.904   7.719  0.0534  0.1345 -0.0436
11187CHOL    R256712  32.246  29.880   7.759  0.0383  0.0960 -0.1594
11187CHOL    R356713  32.309  29.620   7.809  0.0562  0.1077 -0.1220
11187CHOL    R456714  32.027  29.643   7.885  0.1064  0.1434  0.0500
11187CHOL    R556715  32.189  29.567   8.009  0.1816  0.1728 -0.0297
11187CHOL    C156716  31.959  29.262   8.004  0.1641  0.1817  0.2072
11187CHOL    C256717  31.943  28.884   8.199 -0.0552 -0.0719  0.1105
11188CHOL   ROH56718   2.837  19.037   5.151  0.0724 -0.0779  0.0228
11188CHOL    R156719   2.658  18.903   5.324  0.0267 -0.0887 -0.0328
11188CHOL    R256720   2.741  18.772   5.553 -0.0336 -0.1028 -0.0194
11188CHOL    R356721   2.556  18.932   5.672 -0.0651 -0.1104 -0.0577
11188CHOL    R456722   2.586  18.703   5.854  0.0049 -0.0452  0.0140
11188CHOL    R556723   2.399  18.778   5.769 -0.0200 -0.1190  0.0025
11188CHOL    C156724   2.322  18.812   6.141 -0.0023 -0.0189 -0.0027
11188CHOL    C256725   2.324  18.506   6.309 -0.3132  0.0556  0.1407
11189CHOL   ROH56726  34.848  10.515   3.437 -0.0162  0.4581 -0.2229
11189CHOL    R156727  34.843  10.507   3.720  0.0183  0.3008 -0.2258
11189CHOL    R256728  34.809  10.734   3.874  0.0676  0.2207 -0.0944
11189CHOL    R356729  34.606  10.590   3.983  0.0619  0.1864 -0.1502
11189CHOL    R456730  34.638  10.821   4.161  0.0690  0.1156 -0.0616
11189CHOL    R556731  34.638  10.611   4.219  0.0603  0.0938 -0.1424
11189CHOL    C156732  34.346  10.738   4.430  0.0644  0.0222 -0.0948
11189CHOL    C256733  34.378  10.866   4.915  0.3169 -0.0071  0.1519
11190CHOL   ROH56734  20.858  15.097  14.801  0.0854 -0.0682  0.1233
11190CHOL    R156735  20.604  15.115  14.678  0.1083 -0.0499  0.0784
11190CHOL    R256736  20.509  15.348  14.565  0.0974 -0.0120  0.1638
11190CHOL    R356737  20.475  15.191  14.346  0.1660  0.0814  0.0857
11190CHOL    R456738  20.311  15.428  14.293  0.1333  0.0747  0.1630
11190CHOL    R556739  20.245  15.220  14.286  0.1728  0.0661  0.0562
11190CHOL    C156740  20.164  15.327  13.929  0.2192  0.2130  0.0891
11190CHOL    C256741  20.068  15.628  13.665 -0.0773 -0.1807 -0.0469
11191CHOL   ROH56742  21.292   0.737   9.217 -0.0172 -0.0140 -0.0978
11191CHOL    R156743  21.345   0.752   9.495 -0.0639  0.0438 -0.0921
11191CHOL    R256744  21.539   0.600   9.619 -0.1270  0.0234 -0.0171
11191CHOL    R356745  21.627   0.841   9.707 -0.0783  0.0229 -0.0636
11191CHOL    R456746  21.750   0.647   9.889 -0.1705  0.0382  0.0143
11191CHOL    R556747  21.630   0.820   9.945 -0.1345  0.0865 -0.0573
11191CHOL    C156748  21.955   0.901  10.128 -0.1509  0.0464 -0.0110
11191CHOL    C256749  22.198   1.046  10.274  0.1848 -0.0323 -0.0884
11192CHOL   ROH56750   5.986  31.621  15.574 -0.0938 -0.0654  0.0221
11192CHOL    R156751   5.744  31.704  15.696 -0.1050 -0.1200  0.0365
11192CHOL    R256752   5.653  31.595  15.934  0.0312 -0.0043  0.1418
11192CHOL    R356753   5.646  31.856  16.012 -0.0980  0.0488 -0.0420
11192CHOL    R456754   5.496  31.711  16.219  0.0942  0.0980  0.1356
11192CHOL    R556755   5.426  31.883  16.105 -0.0725 -0.0275  0.0439
11192CHOL    C156756   5.397  32.023  16.459  0.0096  0.2074 -0.0406
11192CHOL    C256757   5.073  32.020  16.553  0.5009  0.2017 -0.1061
11193CHOL   ROH56758  26.098  25.651   3.276 -0.0313  0.0451  0.0001
11193CHOL    R156759  26.274  25.509   3.445 -0.1436 -0.1680 -0.0592
11193CHOL    R256760  26.515  25.613   3.530 -0.0035 -0.4418 -0.1111
11193CHOL    R356761  26.417  25.554   3.777 -0.0065 -0.3563 -0.0918
11193CHOL    R456762  26.708  25.549   3.810 -0.0092 -0.1186 -0.0313
11193CHOL    R556763  26.568  25.391   3.864  0.0988 -0.1877  0.0437
11193CHOL    C156764  26.728  25.457   4.204 -0.0153  0.1504  0.0334
11193CHOL    C256765  27.064  25.478   4.259  0.0684  0.4721 -0.0760
11194CHOL   ROH56766  24.942  14.174   6.556  0.0599  0.0132  0.5716
11194CHOL    R156767  24.709  14.052   6.452  0.1940 -0.0693  0.3655
11194CHOL    R256768  24.532  13.910   6.609 -0.0047  0.0431  0.2490
11194CHOL    R356769  24.350  14.081   6.502  0.1270 -0.0372 -0.1103
11194CHOL    R456770  24.202  13.831   6.543 -0.0383  0.1305  0.3147
11194CHOL    R556771  24.218  13.944   6.357  0.0771 -0.2204  0.1098
11194CHOL    C156772  23.839  13.946   6.405  0.0655  0.1059  0.0156
11194CHOL    C256773  23.650  13.696   6.346  0.2352  0.1295 -0.1212
11195CHOL   ROH56774  25.297  18.937   5.556 -0.0228  0.0446  0.0489
11195CHOL    R156775  25.033  18.877   5.474  0.0244 -0.0900 -0.0043
11195CHOL    R256776  24.813  19.015   5.566 -0.0825 -0.3195  0.0889
11195CHOL    R356777  24.764  19.050   5.301 -0.0973 -0.1627  0.1120
11195CHOL    R456778  24.516  19.134   5.434  0.0511  0.1459  0.1970
11195CHOL    R556779  24.535  18.987   5.274 -0.1961  0.1711  0.1446
11195CHOL    C156780  24.298  19.236   5.108  0.1143  0.5639  0.2817
11195CHOL    C256781  23.847  19.245   5.187 -0.1321  0.0319  0.2324
11196CHOL   ROH56782  20.552  15.518   8.678  0.0865  0.4001 -0.1193
11196CHOL    R156783  20.817  15.617   8.693  0.1551  0.2037 -0.0297
11196CHOL    R256784  20.992  15.542   8.893  0.0513  0.0276 -0.0044
11196CHOL    R356785  21.152  15.476   8.684  0.0561 -0.0385  0.0200
11196CHOL    R456786  21.337  15.545   8.900  0.0507 -0.0271  0.0219
11196CHOL    R556787  21.336  15.628   8.699  0.0795 -0.0648  0.0052
11196CHOL    C156788  21.689  15.483   8.708  0.0557 -0.1211  0.0602
11196CHOL    C256789  22.012  15.341   8.553 -0.3394  0.1524  0.2263
11197CHOL   ROH56790  25.087   8.035   4.706 -0.1002 -0.2913  0.1606
11197CHOL    R156791  25.186   8.073   4.969  0.0231 -0.2474  0.1083
11197CHOL    R256792  25.453   8.044   5.033  0.0661 -0.1612 -0.0277
11197CHOL    R356793  25.423   8.295   5.133  0.0393 -0.1652 -0.0254
11197CHOL    R456794  25.574   8.151   5.339  0.0805 -0.1427 -0.0399
11197CHOL    R556795  25.389   8.262   5.368  0.0671 -0.1695 -0.0220
11197CHOL    C156796  25.616   8.449   5.610  0.0639 -0.1355 -0.0449
11197CHOL    C256797  25.671   8.356   5.909  0.0720  0.0819 -0.3145
11198CHOL   ROH56798  23.322  17.880  10.012  0.0173 -0.0063 -0.0301
11198CHOL    R156799  23.064  17.848  10.124  0.0538 -0.1438  0.0150
11198CHOL    R256800  22.901  18.062  10.188  0.0312 -0.2244  0.2324
11198CHOL    R356801  22.722  17.932  10.030  0.0125 -0.1306  0.1761
11198CHOL    R456802  22.559  18.106  10.200  0.0355 -0.2016  0.2700
11198CHOL    R556803  22.535  17.891  10.174  0.0158 -0.1863  0.1642
11198CHOL    C156804  22.191  18.010  10.059  0.0205 -0.1002  0.2390
11198CHOL    C256805  21.782  17.907   9.949 -0.0822  0.1937 -0.0461
11199CHOL   ROH56806   9.988   9.459  18.326  0.2995  0.0099  0.0292
11199CHOL    R156807  10.161   9.355  18.127  0.2129  0.0044 -0.0431
11199CHOL    R256808  10.083   9.157  17.951  0.0853  0.1117 -0.1064
11199CHOL    R356809  10.165   9.336  17.764  0.1382  0.1450 -0.0520
11199CHOL    R456810  10.098   9.094  17.612 -0.1394  0.2796 -0.1488
11199CHOL    R556811  10.286   9.204  17.605 -0.0508  0.1282 -0.1846
11199CHOL    C156812  10.183   9.226  17.238 -0.2203  0.4085 -0.1222
11199CHOL    C256813  10.175   9.335  16.842 -0.0590  0.1905 -0.1996
11200CHOL   ROH56814  15.040  20.995  19.977 -0.2111  0.0828  0.1258
11200CHOL    R156815  14.892  21.205  19.857 -0.0779  0.0959 -0.0172
11200CHOL    R256816  15.011  21.405  19.708  0.0550 -0.0504 -0.1058
11200CHOL    R356817  14.832  21.327  19.519  0.0474 -0.0574 -0.0961
11200CHOL    R456818  14.888  21.608  19.457 -0.0897 -0.0038  0.0019
11200CHOL    R556819  14.691  21.518  19.488 -0.0450 -0.1043  0.0118
11200CHOL    C156820  14.648  21.653  19.133 -0.1811  0.0170  0.0740
11200CHOL    C256821  14.343  21.820  19.065 -0.5257 -0.0862 -0.0055
11201CHOL   ROH56822  25.156  34.040   7.133 -0.2721  0.0729 -0.2395
11201CHOL    R156823  25.051  34.075   7.393  0.0675  0.0420 -0.0957
11201CHOL    R256824  24.869  33.900   7.505 -0.1285  0.2695 -0.0548
11201CHOL    R356825  25.052  33.890   7.706  0.0722 -0.2285 -0.2540
11201CHOL    R456826  24.831  33.719   7.797 -0.2985  0.3593 -0.0207
11201CHOL    R556827  24.920  33.886   7.906  0.2752  0.1244 -0.1086
11201CHOL    C156828  24.980  33.605   8.156 -0.2089 -0.0556 -0.1878
11201CHOL    C256829  24.980  33.630   8.552  0.0714 -0.1781 -0.3719
11202CHOL   ROH56830  30.636   8.998   6.804  0.0438 -0.1174 -0.0651
11202CHOL    R156831  30.803   8.868   6.615  0.0414  0.0622 -0.1906
11202CHOL    R256832  30.736   8.626   6.500  0.2040  0.0039 -0.1579
11202CHOL    R356833  30.775   8.762   6.268 -0.0958  0.0574 -0.1793
11202CHOL    R456834  30.814   8.480   6.197  0.2775  0.1061 -0.1889
11202CHOL    R556835  30.953   8.644   6.159  0.0282  0.3080 -0.2558
11202CHOL    C156836  30.895   8.523   5.802  0.0398  0.2159 -0.2271
11202CHOL    C256837  31.149   8.611   5.686  0.1023  0.0339  0.0041
11203CHOL   ROH56838   6.644  30.639  18.244  0.2054 -0.2214  0.0259
11203CHOL    R156839   6.458  30.452  18.142  0.1011 -0.1413  0.0696
11203CHOL    R256840   6.534  30.210  18.032 -0.0304 -0.1858  0.0778
11203CHOL    R356841   6.361  30.108  18.215 -0.0515 -0.0898  0.1120
11203CHOL    R456842   6.360  29.914  17.996 -0.0760 -0.1728  0.1835
11203CHOL    R556843   6.186  30.011  18.083 -0.0636 -0.1120  0.1427
11203CHOL    C156844   6.096  29.646  18.146 -0.1222 -0.0751  0.2768
11203CHOL    C256845   6.102  29.351  17.930 -0.0938 -0.0516 -0.2612
11204CHOL   ROH56846  16.254  22.991  16.966 -0.0874 -0.1897  0.0003
11204CHOL    R156847  16.351  22.959  17.230 -0.0177 -0.0629 -0.0090
11204CHOL    R256848  16.620  22.957  17.290 -0.0030  0.0339 -0.0698
11204CHOL    R356849  16.549  23.153  17.465 -0.0166  0.0807 -0.1283
11204CHOL    R456850  16.826  23.086  17.537 -0.0782 -0.0160  0.0191
11204CHOL    R556851  16.654  23.090  17.671 -0.1448  0.0648 -0.0681
11204CHOL    C156852  16.879  23.345  17.844 -0.1350 -0.0007  0.0159
11204CHOL    C256853  17.197  23.491  17.976  0.1655 -0.0531 -0.3141
11205CHOL   ROH56854  21.341  35.107  12.266  0.3116 -0.1646  0.0081
11205CHOL    R156855  21.180  35.256  12.087  0.3271 -0.0938  0.0537
11205CHOL    R256856  21.276  35.353  11.847  0.3014 -0.1358  0.0266
11205CHOL    R356857  21.061  35.221  11.745  0.2142 -0.0410  0.0876
11205CHOL    R456858  21.112   0.052  11.554  0.3174 -0.1235  0.0213
11205CHOL    R556859  20.923   0.008  11.653  0.3029  0.0131  0.0546
11205CHOL    C156860  20.815  35.362  11.289  0.2446 -0.0272  0.0751
11205CHOL    C256861  20.810  35.292  10.866  0.0951 -0.0365 -0.3549
11206CHOL   ROH56862  16.930  31.207  11.694 -0.1313 -0.0767  0.1158
11206CHOL    R156863  16.983  31.395  11.899 -0.0990 -0.1095  0.1377
11206CHOL    R256864  17.167  31.348  12.099 -0.0151 -0.1121  0.0607
11206CHOL    R356865  17.271  31.585  12.015 -0.0994 -0.0698  0.0744
11206CHOL    R456866  17.419  31.521  12.260 -0.0061 -0.0826  0.0147
11206CHOL    R556867  17.313  31.707  12.217 -0.0647 -0.0996  0.0852
11206CHOL    C156868  17.664  31.844  12.274 -0.0798 -0.0257  0.0005
11206CHOL    C256869  17.711  31.776  12.655 -0.1571  0.1368  0.0044
11207CHOL   ROH56870   1.566  15.174   3.651 -0.1929  0.0463 -0.1477
11207CHOL    R156871   1.443  15.123   3.900  0.0005  0.1059 -0.0394
11207CHOL    R256872   1.455  15.302   4.111  0.0924  0.1932 -0.1208
11207CHOL    R356873   1.184  15.279   4.104  0.0931  0.1016  0.0832
11207CHOL    R456874   1.243  15.376   4.374  0.2528  0.3259 -0.0279
11207CHOL    R556875   1.125  15.200   4.322  0.2703  0.2470  0.1863
11207CHOL    C156876   0.866  15.398   4.520  0.3469  0.3170  0.2178
11207CHOL    C256877   0.588  15.733   4.595  0.1603 -0.2229 -0.1817
11208CHOL   ROH56878  22.238  29.355  11.379 -0.0633 -0.0408  0.0706
11208CHOL    R156879  22.023  29.293  11.206 -0.0301  0.0046  0.0131
11208CHOL    R256880  21.771  29.229  11.299 -0.0584  0.0227 -0.0536
11208CHOL    R356881  21.694  29.430  11.133  0.0023  0.0509 -0.0481
11208CHOL    R456882  21.445  29.294  11.205 -0.0303  0.0660 -0.1244
11208CHOL    R556883  21.516  29.335  11.004  0.0237  0.0832 -0.1029
11208CHOL    C156884  21.183  29.519  10.994  0.0436  0.1173 -0.1602
11208CHOL    C256885  20.851  29.456  11.032 -0.4139 -0.0645 -0.1234
11209CHOL   ROH56886  21.257  23.461  16.007  0.0359 -0.1089  0.0581
11209CHOL    R156887  21.088  23.504  15.784 -0.1158  0.0385  0.2003
11209CHOL    R256888  21.063  23.321  15.579  0.0535  0.3497 -0.1019
11209CHOL    R356889  20.798  23.340  15.637  0.0472 -0.1129  0.0449
11209CHOL    R456890  20.807  23.220  15.369  0.1080  0.2201 -0.1063
11209CHOL    R556891  20.696  23.397  15.428 -0.1328 -0.0120  0.1590
11209CHOL    C156892  20.410  23.179  15.302  0.1336 -0.2899  0.0288
11209CHOL    C256893  20.090  23.050  15.295  0.1450  0.2253 -0.0973
11210CHOL   ROH56894  32.811  15.373   4.916  0.0249 -0.0253 -0.0251
11210CHOL    R156895  32.781  15.371   4.635  0.0946  0.0244 -0.0333
11210CHOL    R256896  32.657  15.165   4.500  0.2669 -0.0289 -0.1168
11210CHOL    R356897  32.505  15.366   4.398  0.1553 -0.1055 -0.1009
11210CHOL    R456898  32.567  15.196   4.167  0.4070  0.0510 -0.1472
11210CHOL    R556899  32.601  15.411   4.183  0.2251  0.0710 -0.0322
11210CHOL    C156900  32.372  15.403   3.878  0.3828  0.0259 -0.1498
11210CHOL    C256901  32.276  15.633   3.730 -0.0330 -0.2010 -0.2331
11211CHOL   ROH56902  30.643   3.769   6.696 -0.0579 -0.0126 -0.0526
11211CHOL    R156903  30.677   3.946   6.915 -0.0986  0.0356 -0.0854
11211CHOL    R256904  30.465   4.036   7.068 -0.1166 -0.0026 -0.0885
11211CHOL    R356905  30.614   3.939   7.273 -0.0747  0.0788 -0.0802
11211CHOL    R456906  30.397   4.087   7.403 -0.1020  0.0505 -0.0934
11211CHOL    R556907  30.610   4.114   7.437 -0.1059  0.1127 -0.1166
11211CHOL    C156908  30.497   4.026   7.791 -0.0544  0.1580 -0.0886
11211CHOL    C256909  30.373   4.204   8.132  0.0157  0.0012  0.0663
11212CHOL   ROH56910  11.023  33.689  17.202 -0.0195 -0.1606  0.0402
11212CHOL    R156911  11.183  33.821  17.395  0.0807 -0.1186 -0.0713
11212CHOL    R256912  11.110  33.840  17.661  0.1695  0.0276 -0.0577
11212CHOL    R356913  11.356  33.730  17.702  0.1498 -0.0268 -0.0826
11212CHOL    R456914  11.260  33.802  17.970  0.2008  0.0164 -0.0740
11212CHOL    R556915  11.450  33.861  17.880  0.2032 -0.0340 -0.1043
11212CHOL    C156916  11.578  33.677  18.189  0.2003 -0.0408 -0.1074
11212CHOL    C256917  11.830  33.710  18.380 -0.2839  0.0972  0.0738
11213CHOL   ROH56918  11.336   9.922  18.634 -0.1006 -0.1585 -0.0237
11213CHOL    R156919  11.165   9.836  18.426 -0.0216 -0.0492 -0.1341
11213CHOL    R256920  11.040  10.012  18.254  0.0049  0.0436 -0.0588
11213CHOL    R356921  11.158   9.860  18.063  0.0894  0.1877 -0.1219
11213CHOL    R456922  10.940   9.998  17.924 -0.0044  0.1032 -0.0584
11213CHOL    R556923  10.976   9.783  17.927  0.1296  0.1242 -0.1398
11213CHOL    C156924  10.993   9.847  17.551  0.0693  0.2729 -0.1174
11213CHOL    C256925  10.687   9.549  17.389  0.2270  0.1936  0.0757
11214CHOL   ROH56926  30.629   0.754  10.855 -0.0158 -0.0161  0.0260
11214CHOL    R156927  30.783   0.886  10.658  0.0751  0.0679  0.1523
11214CHOL    R256928  31.050   0.829  10.615  0.0320 -0.0874  0.0868
11214CHOL    R356929  30.967   0.791  10.359 -0.0064  0.2294  0.0502
11214CHOL    R456930  31.260   0.805  10.341  0.0111 -0.0768  0.0699
11214CHOL    R556931  31.117   0.924  10.228  0.1431  0.1818  0.1713
11214CHOL    C156932  31.304   0.755   9.941 -0.0376  0.2268  0.0255
11214CHOL    C256933  31.331   0.663   9.532 -0.2806  0.0342  0.1213
11215CHOL   ROH56934  15.898  24.393  17.260  0.0890  0.1452  0.1036
11215CHOL    R156935  16.003  24.323  17.514  0.0776  0.0681  0.0875
11215CHOL    R256936  16.268  24.362  17.581  0.0842  0.0129  0.0986
11215CHOL    R356937  16.162  24.497  17.792  0.1023 -0.0223  0.1296
11215CHOL    R456938  16.409  24.380  17.896  0.1041 -0.0462  0.0927
11215CHOL    R556939  16.209  24.359  17.981  0.1108 -0.0559  0.1019
11215CHOL    C156940  16.391  24.516  18.277  0.1330 -0.1135  0.1185
11215CHOL    C256941  16.413  24.457  18.697  0.1144  0.1093 -0.1605
11216CHOL   ROH56942   3.790   5.824  15.905  0.3432  0.1634 -0.0700
11216CHOL    R156943   3.906   5.603  15.772  0.3309  0.0138  0.1645
11216CHOL    R256944   4.013   5.621  15.517  0.0068 -0.3426 -0.0039
11216CHOL    R356945   4.233   5.516  15.638  0.2283  0.0142 -0.0891
11216CHOL    R456946   4.284   5.487  15.351  0.0762 -0.0773 -0.1069
11216CHOL    R556947   4.292   5.329  15.500  0.3847  0.0146 -0.0225
11216CHOL    C156948   4.649   5.310  15.366  0.3245  0.4121 -0.2467
11216CHOL    C256949   4.958   5.141  15.455 -0.0854 -0.0879  0.3408
11217CHOL   ROH56950  22.314  19.419  13.179  0.2529  0.1367 -0.4577
11217CHOL    R156951  22.039  19.355  13.157  0.2930 -0.1541 -0.1428
11217CHOL    R256952  21.858  19.519  13.029 -0.0668 -0.2466  0.2363
11217CHOL    R356953  21.802  19.294  12.888 -0.0002 -0.1914  0.1205
11217CHOL    R456954  21.566  19.464  12.852  0.0446 -0.1488  0.0204
11217CHOL    R556955  21.568  19.258  12.923 -0.0294 -0.1740 -0.0494
11217CHOL    C156956  21.344  19.220  12.616  0.1716 -0.0395 -0.2140
11217CHOL    C256957  20.996  19.461  12.426 -0.0225  0.1253  0.3381
11218CHOL   ROH56958  32.062   8.719   9.050  0.0250  0.1481 -0.1797
11218CHOL    R156959  32.047   8.438   9.016 -0.0225  0.1332 -0.0398
11218CHOL    R256960  32.005   8.321   8.769 -0.0537  0.0181  0.0203
11218CHOL    R356961  32.232   8.184   8.832 -0.0732  0.0121  0.0773
11218CHOL    R456962  32.111   8.031   8.613  0.0641  0.1065 -0.0644
11218CHOL    R556963  32.171   7.953   8.808 -0.0343  0.0170 -0.0695
11218CHOL    C156964  32.386   7.734   8.581  0.1150  0.1524 -0.0603
11218CHOL    C256965  32.356   7.483   8.329 -0.1461  0.1781 -0.0348
11219CHOL   ROH56966  19.823   9.650  12.719  0.1370  0.0440  0.1380
11219CHOL    R156967  20.027   9.757  12.884  0.0881 -0.0498  0.2596
11219CHOL    R256968  19.994   9.989  13.030  0.1595  0.0474  0.1208
11219CHOL    R356969  20.069   9.831  13.238 -0.1491  0.0817  0.2616
11219CHOL    R456970  20.074  10.104  13.346  0.1238  0.1455  0.0944
11219CHOL    R556971  20.237   9.959  13.352 -0.0549 -0.0520  0.2744
11219CHOL    C156972  20.192  10.022  13.725 -0.1864  0.2348  0.2113
11219CHOL    C256973  20.587   9.953  13.895  0.0787 -0.0243  0.1457
11220CHOL   ROH56974  27.654  27.926   4.453 -0.2775  0.0035  0.1397
11220CHOL    R156975  27.586  27.750   4.664 -0.1635 -0.0519  0.1307
11220CHOL    R256976  27.718  27.511   4.707 -0.1170 -0.0470  0.0186
11220CHOL    R356977  27.752  27.612   4.957 -0.0168 -0.0990  0.0258
11220CHOL    R456978  27.730  27.322   4.996 -0.1020 -0.0969 -0.0145
11220CHOL    R556979  27.612  27.476   5.096 -0.0244 -0.0744  0.0414
11220CHOL    C156980  27.770  27.307   5.399  0.0002 -0.1747 -0.0272
11220CHOL    C256981  27.438  27.354   5.789 -0.0229  0.0725 -0.1969
11221CHOL   ROH56982  34.645  10.353   8.523  0.0850  0.0500 -0.0720
11221CHOL    R156983  34.771  10.243   8.295 -0.0217 -0.0807 -0.0693
11221CHOL    R256984  35.037  10.169   8.294  0.0195  0.0673 -0.1979
11221CHOL    R356985  34.937   9.931   8.209  0.0888 -0.0653  0.0852
11221CHOL    R456986  35.217   9.930   8.121  0.0065  0.0459 -0.1824
11221CHOL    R556987  35.042   9.896   7.996 -0.0927 -0.1656  0.0120
11221CHOL    C156988  35.228   9.568   7.940  0.0631 -0.0912  0.0924
11221CHOL    C256989   0.152   9.646   7.760  0.1131 -0.1763 -0.2807
11222CHOL   ROH56990  12.858  26.357  18.385 -0.1244  0.0516 -0.0836
11222CHOL    R156991  13.033  26.324  18.605 -0.1344 -0.1122 -0.0994
11222CHOL    R256992  13.093  26.530  18.779  0.1064 -0.1549 -0.1285
11222CHOL    R356993  13.011  26.351  18.967 -0.0664 -0.0467 -0.0999
11222CHOL    R456994  13.192  26.532  19.110  0.1069 -0.1965 -0.1286
11222CHOL    R556995  13.205  26.315  19.103 -0.1020 -0.2111 -0.0931
11222CHOL    C156996  13.173  26.366  19.480 -0.0553 -0.1192 -0.1016
11222CHOL    C256997  13.172  26.168  19.875 -0.2488  0.1948  0.0878
11223CHOL   ROH56998   2.097  28.628  12.108 -0.1104  0.1941  0.0593
11223CHOL    R156999   1.831  28.567  12.185 -0.0746 -0.0193  0.0178
11223CHOL    R257000   1.772  28.414  12.407  0.0093  0.1444  0.1539
11223CHOL    R357001   1.619  28.628  12.474 -0.2548  0.0482 -0.1273
11223CHOL    R457002   1.498  28.402  12.617  0.0143  0.0771  0.1569
11223CHOL    R557003   1.396  28.541  12.483 -0.1513 -0.2148 -0.0280
11223CHOL    C157004   1.194  28.597  12.803 -0.2308 -0.0524 -0.1057
11223CHOL    C257005   1.066  28.834  13.077  0.4401 -0.1589 -0.0148
11224CHOL   ROH57006  18.543  27.042  18.319 -0.0589 -0.1493  0.3409
11224CHOL    R157007  18.284  26.938  18.270 -0.0647 -0.0166  0.0870
11224CHOL    R257008  18.113  27.048  18.083  0.2335 -0.0220 -0.1917
11224CHOL    R357009  18.107  26.794  17.986  0.1921 -0.0780 -0.0445
11224CHOL    R457010  17.851  26.911  17.905  0.2247 -0.0700 -0.1431
11224CHOL    R557011  17.879  26.725  18.015  0.1728 -0.0130 -0.0299
11224CHOL    C157012  17.692  26.592  17.710  0.1812 -0.1506  0.0236
11224CHOL    C257013  17.340  26.531  17.761 -0.0766 -0.0037 -0.0271
11225CHOL   ROH57014   6.613  21.597  11.692 -0.1774  0.1776 -0.1768
11225CHOL    R157015   6.356  21.567  11.809 -0.1567  0.2232 -0.1184
11225CHOL    R257016   6.132  21.695  11.710 -0.2031  0.0692 -0.2199
11225CHOL    R357017   6.031  21.443  11.703 -0.1353  0.0332  0.0367
11225CHOL    R457018   5.798  21.619  11.667 -0.2108 -0.0633  0.0648
11225CHOL    R557019   5.820  21.461  11.816 -0.0633  0.0538  0.1669
11225CHOL    C157020   5.508  21.337  11.635 -0.1516 -0.1745  0.4714
11225CHOL    C257021   5.180  21.479  11.692  0.0161 -0.0258 -0.0193
11226CHOL   ROH57022   0.870   4.250  12.372  0.1862 -0.1297  0.0768
11226CHOL    R157023   0.996   4.169  12.132  0.0436 -0.0757 -0.0168
11226CHOL    R257024   1.227   4.287  12.037  0.0754 -0.1610 -0.0434
11226CHOL    R357025   1.319   4.031  12.036 -0.0740 -0.2157 -0.2181
11226CHOL    R457026   1.460   4.162  11.814  0.2139 -0.0641  0.0458
11226CHOL    R557027   1.343   3.978  11.804  0.1133  0.0113 -0.2540
11226CHOL    C157028   1.682   3.850  11.684  0.1544 -0.0591 -0.0660
11226CHOL    C257029   1.701   3.798  11.236  0.1675 -0.0595 -0.2461
11227CHOL   ROH57030  16.448  22.496  16.982 -0.1122  0.1841  0.2701
11227CHOL    R157031  16.696  22.415  17.093 -0.0803  0.1709  0.1894
11227CHOL    R257032  16.899  22.594  17.150 -0.0619  0.1637  0.1472
11227CHOL    R357033  16.884  22.481  17.397  0.0099  0.1391  0.1407
11227CHOL    R457034  17.042  22.725  17.436  0.0538  0.1152  0.1112
11227CHOL    R557035  17.099  22.523  17.494  0.0492  0.1024  0.0702
11227CHOL    C157036  17.112  22.696  17.834  0.1889  0.0644  0.0839
11227CHOL    C257037  17.234  22.956  17.939  0.3516  0.2040 -0.5487
11228CHOL   ROH57038   4.186  26.066  18.813  0.0751 -0.0110 -0.0751
11228CHOL    R157039   4.428  26.058  18.668  0.1409  0.0116  0.0336
11228CHOL    R257040   4.451  26.157  18.411  0.2551  0.0431  0.0564
11228CHOL    R357041   4.655  26.301  18.519  0.2048  0.0333  0.1659
11228CHOL    R457042   4.762  26.199  18.266  0.2190  0.3181  0.0561
11228CHOL    R557043   4.852  26.177  18.463  0.2534  0.1732  0.0242
11228CHOL    C157044   5.134  26.359  18.282  0.1507  0.4690  0.1588
11228CHOL    C257045   5.444  26.353  18.126  0.2050 -0.0008 -0.0786
11229CHOL   ROH57046  34.684  26.922  12.735 -0.0097 -0.0587 -0.0558
11229CHOL    R157047  34.766  27.179  12.651  0.0320 -0.0706 -0.0540
11229CHOL    R257048  34.995  27.301  12.747  0.0245 -0.0852 -0.0137
11229CHOL    R357049  35.056  27.322  12.483  0.0805 -0.1080 -0.0025
11229CHOL    R457050  35.285  27.441  12.622 -0.1518  0.3162  0.0204
11229CHOL    R557051  35.166  27.534  12.465 -0.2460  0.0589 -0.0607
11229CHOL    C157052   0.126  27.543  12.302 -0.2028  0.5289  0.0507
11229CHOL    C257053   0.501  27.719  12.184  0.0550 -0.0558  0.0430
11230CHOL   ROH57054  31.860  14.434   4.786 -0.1562 -0.2084  0.1066
11230CHOL    R157055  31.929  14.498   4.520 -0.0666 -0.0212  0.1740
11230CHOL    R257056  32.191  14.513   4.434 -0.0405 -0.1001  0.2403
11230CHOL    R357057  32.107  14.335   4.247 -0.1061  0.1073  0.0705
11230CHOL    R457058  32.360  14.441   4.141  0.0534 -0.0548  0.2825
11230CHOL    R557059  32.168  14.436   4.038  0.1030  0.1969  0.1723
11230CHOL    C157060  32.379  14.232   3.794  0.0453  0.1664  0.1478
11230CHOL    C257061  32.136  14.175   3.483  0.1723 -0.0788 -0.1529
11231CHOL   ROH57062  13.234  32.223  16.736 -0.1894  0.0600  0.0778
11231CHOL    R157063  13.351  32.385  16.936 -0.0704  0.0965 -0.0210
11231CHOL    R257064  13.235  32.620  17.024 -0.1211  0.0097  0.1461
11231CHOL    R357065  13.260  32.502  17.269  0.2175 -0.0199  0.1010
11231CHOL    R457066  13.228  32.788  17.326 -0.3602 -0.0984  0.2018
11231CHOL    R557067  13.388  32.658  17.397 -0.0575  0.2121  0.0999
11231CHOL    C157068  13.246  32.776  17.731 -0.1814 -0.1886  0.1919
11231CHOL    C257069  13.125  32.970  17.883 -0.2046  0.1801  0.0120
11232CHOL   ROH57070  33.215  33.454  11.801  0.1718  0.1930  0.0114
11232CHOL    R157071  33.270  33.429  11.524  0.0927  0.1232  0.0014
11232CHOL    R257072  33.204  33.625  11.342  0.1345  0.1240 -0.0154
11232CHOL    R357073  33.467  33.610  11.277  0.1132 -0.0030 -0.0749
11232CHOL    R457074  33.340  33.733  11.043  0.1427  0.1778  0.0075
11232CHOL    R557075  33.468  33.556  11.044  0.0366  0.1022 -0.0985
11232CHOL    C157076  33.668  33.781  10.809  0.1269  0.0886 -0.0353
11232CHOL    C257077  33.626  33.733  10.396  0.1963 -0.0213 -0.5136
11233CHOL   ROH57078   1.698   5.507  11.659 -0.1827  0.0560 -0.0205
11233CHOL    R157079   1.664   5.448  11.384 -0.4689 -0.0002  0.0263
11233CHOL    R257080   1.871   5.360  11.224 -0.5180  0.4388 -0.2851
11233CHOL    R357081   1.699   5.156  11.170 -0.1781  0.0809 -0.0386
11233CHOL    R457082   1.924   5.116  10.985 -0.2479  0.4149 -0.2025
11233CHOL    R557083   1.712   5.129  10.932 -0.3217 -0.0142 -0.0369
11233CHOL    C157084   1.794   4.782  10.796  0.2284  0.0651  0.0769
11233CHOL    C257085   2.018   4.551  10.502 -0.1221  0.0324  0.2685
11234CHOL   ROH57086  21.266  13.565  13.638 -0.0923 -0.2616  0.0719
11234CHOL    R157087  21.179  13.410  13.418 -0.1871 -0.3242  0.1523
11234CHOL    R257088  20.931  13.290  13.409 -0.3809  0.0682  0.0892
11234CHOL    R357089  20.909  13.425  13.174  0.0060 -0.1066 -0.0506
11234CHOL    R457090  20.709  13.211  13.156 -0.1816  0.0730 -0.0880
11234CHOL    R557091  20.866  13.254  13.012  0.0189 -0.2012  0.0457
11234CHOL    C157092  20.559  13.292  12.788  0.2978 -0.0885 -0.3226
11234CHOL    C257093  20.208  13.318  12.588 -0.1580 -0.1254 -0.1563
11235CHOL   ROH57094  22.511  31.081  11.255 -0.0736  0.1859  0.0233
11235CHOL    R157095  22.267  31.010  11.130 -0.0395  0.1007  0.0034
11235CHOL    R257096  22.253  30.827  10.925  0.0327  0.0461  0.0462
11235CHOL    R357097  22.070  30.707  11.087  0.0348  0.0458  0.0484
11235CHOL    R457098  22.016  30.598  10.820  0.1699 -0.1143  0.0859
11235CHOL    R557099  21.872  30.694  10.953  0.0835 -0.1118 -0.0089
11235CHOL    C157100  21.706  30.353  10.911  0.2514 -0.2086  0.1110
11235CHOL    C257101  21.425  30.509  10.836 -0.0175 -0.0288  0.1138
11236CHOL   ROH57102   6.897  11.784  16.740  0.1712 -0.2064 -0.3729
11236CHOL    R157103   7.115  11.880  16.588  0.1094 -0.0059 -0.3372
11236CHOL    R257104   7.103  11.910  16.314  0.1146  0.0168 -0.3342
11236CHOL    R357105   7.182  12.164  16.370 -0.1023  0.0765 -0.2962
11236CHOL    R457106   7.326  12.094  16.124  0.3441  0.0511 -0.0355
11236CHOL    R557107   7.414  12.169  16.309  0.0010  0.1639  0.0870
11236CHOL    C157108   7.529  12.440  16.067  0.2740  0.1275  0.1744
11236CHOL    C257109   7.831  12.245  15.944 -0.0672  0.0218 -0.3046
11237CHOL   ROH57110  20.936  25.070   9.603  0.0220 -0.0983  0.1972
11237CHOL    R157111  21.019  25.187   9.847  0.0557  0.0639  0.1096
11237CHOL    R257112  21.285  25.223   9.911  0.0630  0.1877  0.0121
11237CHOL    R357113  21.207  25.481   9.949 -0.0114  0.1832 -0.1070
11237CHOL    R457114  21.492  25.478  10.020 -0.0786  0.2357  0.1709
11237CHOL    R557115  21.328  25.552  10.144 -0.2104  0.2337 -0.0005
11237CHOL    C157116  21.540  25.868  10.119 -0.2309  0.2593  0.1515
11237CHOL    C257117  21.801  26.094  10.334  0.0469  0.1590 -0.0790
11238CHOL   ROH57118   4.774  26.751  14.739  0.0451  0.0512  0.0079
11238CHOL    R157119   4.744  26.549  14.935 -0.0101  0.0021 -0.0510
11238CHOL    R257120   4.671  26.290  14.871  0.0013  0.0186 -0.1361
11238CHOL    R357121   4.897  26.227  15.008 -0.0352 -0.0193 -0.0932
11238CHOL    R457122   4.696  26.039  15.107 -0.1577  0.2029  0.0786
11238CHOL    R557123   4.820  26.171  15.228 -0.0624  0.2209 -0.0412
11238CHOL    C157124   4.922  25.834  15.374 -0.2847  0.2749  0.2435
11238CHOL    C257125   4.675  25.755  15.484 -0.1353  0.0533  0.1896
11239CHOL   ROH57126  26.811  16.538   4.543 -0.0976  0.1765  0.0018
11239CHOL    R157127  26.578  16.411   4.443 -0.0078  0.0240 -0.0166
11239CHOL    R257128  26.347  16.551   4.384 -0.2079 -0.1715  0.2834
11239CHOL    R357129  26.375  16.431   4.142 -0.2016  0.1534  0.1220
11239CHOL    R457130  26.105  16.545   4.138 -0.3611 -0.2161  0.4344
11239CHOL    R557131  26.160  16.338   4.096 -0.1019 -0.0919  0.1543
11239CHOL    C157132  25.990  16.429   3.767 -0.4446  0.0628  0.3707
11239CHOL    C257133  25.760  16.749   3.594 -0.0910 -0.1578 -0.0607
11240CHOL   ROH57134   7.506   6.467  16.331 -0.0374 -0.0182 -0.3548
11240CHOL    R157135   7.626   6.232  16.229  0.0484 -0.0399 -0.2050
11240CHOL    R257136   7.819   6.091  16.368 -0.0657 -0.0095 -0.0143
11240CHOL    R357137   7.649   5.882  16.328 -0.0325 -0.0188 -0.1104
11240CHOL    R457138   7.894   5.760  16.435 -0.0807 -0.0076  0.0132
11240CHOL    R557139   7.791   5.705  16.251  0.0186 -0.0073 -0.0429
11240CHOL    C157140   7.779   5.372  16.437 -0.0583 -0.0150 -0.0611
11240CHOL    C257141   7.636   5.013  16.405 -0.3328  0.0444  0.0699
11241CHOL   ROH57142  29.226  25.746   2.552  0.1764  0.0254 -0.0698
11241CHOL    R157143  29.372  25.654   2.777  0.2312  0.0845 -0.0806
11241CHOL    R257144  29.297  25.431   2.922  0.1324  0.2575  0.1383
11241CHOL    R357145  29.551  25.351   2.870  0.0393  0.0109  0.0529
11241CHOL    R457146  29.456  25.166   3.076  0.0248  0.2825  0.2933
11241CHOL    R557147  29.638  25.286   3.084  0.1232  0.1509  0.0622
11241CHOL    C157148  29.788  24.937   3.118 -0.1250  0.0655  0.3034
11241CHOL    C257149  29.868  24.584   3.260  0.0926  0.0892 -0.0342
11242CHOL   ROH57150  16.109  35.281  11.538 -0.1071 -0.0439  0.1920
11242CHOL    R157151  16.341  35.201  11.678 -0.0608 -0.0801  0.0947
11242CHOL    R257152  16.559  35.368  11.711 -0.0581 -0.0810  0.0860
11242CHOL    R357153  16.522  35.311  11.974  0.0234 -0.1723  0.0780
11242CHOL    R457154  16.796   0.027  11.958 -0.1095  0.1961  0.0868
11242CHOL    R557155  16.732  35.224  12.047  0.1434  0.0961  0.0586
11242CHOL    C157156  16.899  35.385  12.349 -0.0623  0.2715  0.0793
11242CHOL    C257157  17.265  35.126  12.591  0.0703 -0.1241 -0.2328
11243CHOL   ROH57158  16.172  19.801  14.930 -0.1554 -0.0867 -0.2611
11243CHOL    R157159  16.254  19.691  15.177  0.0383  0.0671 -0.2563
11243CHOL    R257160  16.087  19.539  15.336  0.1236  0.2673  0.0289
11243CHOL    R357161  16.289  19.358  15.320  0.0243  0.1613 -0.0324
11243CHOL    R457162  16.172  19.315  15.585  0.0250  0.1616 -0.0322
11243CHOL    R557163  16.382  19.353  15.541  0.0418  0.0582 -0.0418
11243CHOL    C157164  16.411  19.015  15.716 -0.1252 -0.0002 -0.1255
11243CHOL    C257165  16.662  18.687  15.843 -0.1690 -0.0036 -0.3299
11244CHOL   ROH57166  27.131   5.200   5.568  0.0240  0.0461 -0.1463
11244CHOL    R157167  27.054   5.278   5.829  0.0235 -0.0254 -0.1250
11244CHOL    R257168  27.030   5.543   5.903  0.1238 -0.0454 -0.0230
11244CHOL    R357169  26.780   5.466   5.978  0.0821  0.0289 -0.0849
11244CHOL    R457170  26.814   5.734   6.094  0.1160  0.0399 -0.1169
11244CHOL    R557171  26.756   5.552   6.200  0.0387  0.0704 -0.1052
11244CHOL    C157172  26.453   5.772   6.275  0.0723  0.1593 -0.2295
11244CHOL    C257173  26.444   6.219   6.305  0.2597 -0.1484 -0.1539
11245CHOL   ROH57174   3.013  21.994   5.507 -0.0262  0.2056 -0.0190
11245CHOL    R157175   2.869  22.023   5.750  0.0583  0.2331  0.0278
11245CHOL    R257176   2.603  22.096   5.757  0.0407  0.1640  0.1098
11245CHOL    R357177   2.578  21.870   5.905  0.1588  0.1972  0.1809
11245CHOL    R457178   2.338  22.027   5.968  0.0238  0.0429  0.0488
11245CHOL    R557179   2.480  21.944   6.111  0.0381  0.1974  0.1234
11245CHOL    C157180   2.161  21.773   6.230  0.1249  0.0042  0.0803
11245CHOL    C257181   1.792  21.760   6.458  0.2191  0.1897  0.3128
11246CHOL   ROH57182  29.074   1.710  10.081 -0.0633  0.1722 -0.1335
11246CHOL    R157183  29.240   1.773   9.861  0.0151  0.0096 -0.1210
11246CHOL    R257184  29.312   1.586   9.671 -0.1734 -0.0552 -0.1287
11246CHOL    R357185  29.211   1.771   9.498  0.0310  0.0637 -0.1227
11246CHOL    R457186  29.416   1.628   9.344 -0.1278 -0.1628 -0.1280
11246CHOL    R557187  29.402   1.844   9.372  0.1139 -0.1451 -0.1213
11246CHOL    C157188  29.383   1.825   8.992  0.0909 -0.1139 -0.1219
11246CHOL    C257189  29.706   1.644   8.652 -0.2088 -0.1539  0.2129
11247CHOL   ROH57190  27.991   7.646   7.163  0.1079 -0.0900 -0.1659
11247CHOL    R157191  28.003   7.415   7.000  0.1961 -0.0912 -0.1578
11247CHOL    R257192  27.788   7.325   6.853  0.1757 -0.2814 -0.0132
11247CHOL    R357193  27.964   7.339   6.647  0.0326 -0.1481 -0.1277
11247CHOL    R457194  27.732   7.196   6.537  0.1125 -0.4240  0.0558
11247CHOL    R557195  27.939   7.129   6.534  0.1835 -0.2052 -0.0563
11247CHOL    C157196  27.865   7.134   6.160 -0.0589 -0.3817 -0.0114
11247CHOL    C257197  27.663   6.859   6.000 -0.1929 -0.0309  0.4657
11248CHOL   ROH57198  28.482   8.946   6.347 -0.2073  0.0571  0.0003
11248CHOL    R157199  28.487   8.717   6.182 -0.2384  0.0110  0.0632
11248CHOL    R257200  28.257   8.594   6.089 -0.2521  0.1637 -0.1044
11248CHOL    R357201  28.374   8.630   5.846 -0.0142  0.0121 -0.0136
11248CHOL    R457202  28.166   8.428   5.800 -0.2899  0.3266 -0.1873
11248CHOL    R557203  28.378   8.410   5.750 -0.2737  0.0122 -0.0299
11248CHOL    C157204  28.224   8.364   5.404 -0.0885  0.2792 -0.1503
11248CHOL    C257205  27.955   8.214   5.281  0.0047 -0.3181 -0.0328
11249CHOL   ROH57206  12.615  29.718  17.584  0.0370 -0.0018 -0.0121
11249CHOL    R157207  12.488  29.783  17.828  0.0655  0.1032 -0.0252
11249CHOL    R257208  12.530  29.641  18.060 -0.0483  0.0908 -0.0123
11249CHOL    R357209  12.593  29.885  18.161  0.1138  0.0555 -0.0257
11249CHOL    R457210  12.594  29.706  18.394 -0.2683  0.1162  0.0252
11249CHOL    R557211  12.481  29.892  18.373 -0.0628  0.2258 -0.1230
11249CHOL    C157212  12.689  29.975  18.683 -0.2442  0.0984  0.0340
11249CHOL    C257213  12.849  29.856  19.016 -0.0588 -0.3215  0.0519
11250CHOL   ROH57214  20.457  12.732   9.802 -0.0612 -0.0078 -0.0271
11250CHOL    R157215  20.651  12.714  10.008 -0.0742 -0.0534 -0.0181
11250CHOL    R257216  20.919  12.674   9.956 -0.0826 -0.1336 -0.0054
11250CHOL    R357217  20.949  12.898  10.108 -0.0255 -0.1341 -0.0160
11250CHOL    R457218  21.188  12.738  10.164  0.0154 -0.1139 -0.1379
11250CHOL    R557219  21.049  12.820  10.311  0.0826 -0.1283 -0.0675
11250CHOL    C157220  21.372  12.985  10.427  0.1260 -0.1028 -0.2252
11250CHOL    C257221  21.723  13.034  10.597 -0.1441 -0.2206  0.3179
11251CHOL   ROH57222  33.505  31.860   8.656 -0.2238 -0.2652  0.0307
11251CHOL    R157223  33.413  31.811   8.919 -0.0538 -0.1728  0.1079
11251CHOL    R257224  33.553  31.892   9.143 -0.0480  0.1541 -0.0116
11251CHOL    R357225  33.317  32.011   9.207 -0.1564 -0.0640 -0.0011
11251CHOL    R457226  33.465  31.997   9.460 -0.1152  0.1104 -0.0154
11251CHOL    R557227  33.263  31.923   9.423 -0.0481 -0.0889  0.0160
11251CHOL    C157228  33.192  32.170   9.705 -0.2547 -0.1198 -0.0082
11251CHOL    C257229  33.131  32.292  10.073 -0.0027 -0.1579 -0.1341
11252CHOL   ROH57230  15.301   0.892  13.097  0.2241  0.0973  0.2618
11252CHOL    R157231  15.482   0.683  13.159  0.1036 -0.0926 -0.0145
11252CHOL    R257232  15.585   0.646  13.412  0.4271 -0.2182 -0.1619
11252CHOL    R357233  15.488   0.395  13.380  0.1256 -0.1179 -0.0479
11252CHOL    R457234  15.642   0.384  13.629  0.1773 -0.2084 -0.0835
11252CHOL    R557235  15.665   0.252  13.457 -0.0190 -0.2968 -0.0429
11252CHOL    C157236  15.583  35.380  13.726 -0.2509 -0.1085  0.0695
11252CHOL    C257237  15.520   0.050  14.087  0.0618  0.3460  0.2158
11253CHOL   ROH57238   1.194  19.589   2.893 -0.1034  0.1602  0.0555
11253CHOL    R157239   1.015  19.493   3.090 -0.0676  0.0568  0.0380
11253CHOL    R257240   1.044  19.551   3.358 -0.0381 -0.0562  0.0597
11253CHOL    R357241   0.788  19.639   3.334 -0.0503 -0.0715  0.1310
11253CHOL    R457242   0.804  19.531   3.606 -0.0088 -0.2014  0.0768
11253CHOL    R557243   0.658  19.477   3.454 -0.0198 -0.1434  0.0672
11253CHOL    C157244   0.423  19.602   3.728 -0.0031 -0.3006  0.1537
11253CHOL    C257245   0.052  19.514   3.683  0.1370 -0.0687 -0.0405
11254CHOL   ROH57246   3.706  21.216  11.109  0.2726 -0.0609  0.1432
11254CHOL    R157247   3.982  21.212  11.045  0.2239  0.0813 -0.0793
11254CHOL    R257248   4.073  21.173  10.787  0.0341  0.2617 -0.1740
11254CHOL    R357249   4.207  21.405  10.834 -0.0164  0.2869 -0.1516
11254CHOL    R457250   4.357  21.275  10.617 -0.0192  0.3622 -0.2034
11254CHOL    R557251   4.438  21.347  10.807 -0.0053  0.3471 -0.2011
11254CHOL    C157252   4.647  21.552  10.562 -0.0977  0.4437 -0.1994
11254CHOL    C257253   4.772  21.352  10.290  0.0315 -0.0894  0.0507
11255CHOL   ROH57254   3.371  19.810   5.549 -0.0204  0.0100  0.0614
11255CHOL    R157255   3.149  19.708   5.691 -0.1103  0.1083 -0.0072
11255CHOL    R257256   3.176  19.548   5.915 -0.2481 -0.1075 -0.1425
11255CHOL    R357257   3.015  19.736   6.028 -0.0550 -0.0425  0.0278
11255CHOL    R457258   2.973  19.494   6.189 -0.1455 -0.0872 -0.0620
11255CHOL    R557259   2.819  19.614   6.092 -0.1100  0.0690  0.0730
11255CHOL    C157260   2.703  19.638   6.455  0.0954 -0.0143  0.1449
11255CHOL    C257261   2.579  19.510   6.665 -0.0131 -0.1265 -0.2092
11256CHOL   ROH57262   4.272  10.940  14.133  0.0014 -0.1615 -0.0184
11256CHOL    R157263   4.402  10.771  13.946  0.1599 -0.1299  0.0626
11256CHOL    R257264   4.347  10.778  13.676  0.1217 -0.3388  0.0652
11256CHOL    R357265   4.616  10.813  13.655  0.0847 -0.0672  0.0156
11256CHOL    R457266   4.517  10.831  13.380  0.0089 -0.1314  0.0359
11256CHOL    R557267   4.675  10.699  13.453  0.1566  0.0154 -0.0115
11256CHOL    C157268   4.869  10.894  13.188 -0.0916  0.2443 -0.0279
11256CHOL    C257269   4.917  10.746  12.943  0.2604  0.1483 -0.3482
11257CHOL   ROH57270  21.229  21.925   8.687  0.0505  0.0575 -0.0133
11257CHOL    R157271  21.473  21.888   8.826 -0.0229  0.1297  0.1365
11257CHOL    R257272  21.703  21.796   8.703 -0.0095 -0.1295  0.3485
11257CHOL    R357273  21.811  22.022   8.807  0.0432 -0.0395  0.1036
11257CHOL    R457274  22.035  21.833   8.791  0.0202 -0.0761  0.2159
11257CHOL    R557275  21.970  21.943   8.968  0.0832  0.0973  0.1321
11257CHOL    C157276  22.330  22.066   8.942  0.0870  0.0396 -0.0911
11257CHOL    C257277  22.637  21.976   8.818  0.1109  0.0807  0.0103
11258CHOL   ROH57278  15.586  19.595  19.766  0.3551  0.0117  0.0226
11258CHOL    R157279  15.639  19.693  19.506  0.1662  0.2108  0.0576
11258CHOL    R257280  15.506  19.600  19.282  0.2347  0.1445  0.0447
11258CHOL    R357281  15.452  19.864  19.244 -0.1220  0.0957  0.1859
11258CHOL    R457282  15.335  19.730  19.011  0.3081  0.0853 -0.0309
11258CHOL    R557283  15.476  19.896  19.008  0.0665  0.3019  0.2308
11258CHOL    C157284  15.185  20.054  18.818  0.0162  0.0047  0.0579
11258CHOL    C257285  14.954  19.866  18.553 -0.0838 -0.0416 -0.1950
11259CHOL   ROH57286   6.558  12.679  15.979  0.0920  0.1044  0.1642
11259CHOL    R157287   6.637  12.604  15.717  0.0637  0.1468  0.1434
11259CHOL    R257288   6.587  12.761  15.496  0.0205  0.1726  0.1717
11259CHOL    R357289   6.855  12.736  15.458  0.0177  0.2008  0.1319
11259CHOL    R457290   6.742  12.732  15.188 -0.0305  0.0975  0.1530
11259CHOL    R557291   6.876  12.584  15.275  0.0074  0.1450  0.1767
11259CHOL    C157292   7.083  12.692  14.974 -0.0629  0.0805  0.1050
11259CHOL    C257293   7.512  12.791  14.784  0.0149  0.0973 -0.0023
11260CHOL   ROH57294  34.349   4.438   7.933 -0.0704 -0.1304 -0.0319
11260CHOL    R157295  34.173   4.417   8.153 -0.0134 -0.1246  0.0146
11260CHOL    R257296  34.251   4.473   8.412  0.0325 -0.0442 -0.0160
11260CHOL    R357297  34.037   4.640   8.406 -0.0116 -0.1007 -0.0059
11260CHOL    R457298  34.111   4.625   8.689  0.0919  0.0314 -0.0277
11260CHOL    R557299  33.914   4.587   8.604  0.0721 -0.0518  0.0582
11260CHOL    C157300  33.828   4.870   8.844  0.0848  0.0222 -0.0251
11260CHOL    C257301  33.652   5.114   9.057  0.0735  0.2344 -0.0875
11261CHOL   ROH57302  32.080  34.157   9.300  0.1490 -0.1366  0.2366
11261CHOL    R157303  31.904  33.985   9.440 -0.0025 -0.1373  0.0484
11261CHOL    R257304  31.707  33.838   9.314  0.1464 -0.1549 -0.1664
11261CHOL    R357305  31.826  33.630   9.442  0.0136 -0.1408 -0.0182
11261CHOL    R457306  31.605  33.509   9.292  0.0566 -0.1328 -0.0864
11261CHOL    R557307  31.644  33.487   9.505 -0.0637 -0.0591 -0.0571
11261CHOL    C157308  31.657  33.121   9.399 -0.1201 -0.1062  0.0990
11261CHOL    C257309  31.606  32.752   9.382  0.0538 -0.2211  0.0899
11262CHOL   ROH57310  34.227  30.660  12.748 -0.0506 -0.1166 -0.3346
11262CHOL    R157311  34.411  30.743  12.550  0.0591  0.0593 -0.1597
11262CHOL    R257312  34.624  30.910  12.606  0.0521 -0.0229  0.1150
11262CHOL    R357313  34.769  30.711  12.492  0.0838  0.0730 -0.0149
11262CHOL    R457314  34.942  30.947  12.475 -0.0961  0.1955 -0.1908
11262CHOL    R557315  34.884  30.817  12.310 -0.1629  0.1472 -0.1308
11262CHOL    C157316  35.263  30.781  12.292 -0.1522  0.4131 -0.4909
11262CHOL    C257317   0.106  30.501  12.159  0.1309 -0.0408 -0.2155
11263CHOL   ROH57318   5.834  14.482  11.726 -0.0420 -0.2197 -0.1199
11263CHOL    R157319   5.568  14.393  11.766 -0.0577 -0.1017  0.0392
11263CHOL    R257320   5.472  14.319  12.015 -0.0131  0.1719  0.1380
11263CHOL    R357321   5.279  14.502  11.959  0.0249  0.1737  0.0093
11263CHOL    R457322   5.176  14.355  12.190 -0.1209  0.1848 -0.0445
11263CHOL    R557323   5.073  14.388  12.001 -0.0041  0.1779 -0.1116
11263CHOL    C157324   4.823  14.549  12.240 -0.1480  0.1937 -0.2717
11263CHOL    C257325   4.504  14.659  12.091  0.1881  0.1020 -0.2877
11264CHOL   ROH57326  30.903   0.291   7.501  0.2034 -0.0551  0.0640
11264CHOL    R157327  30.806   0.352   7.760  0.1076 -0.0390  0.0250
11264CHOL    R257328  30.715   0.157   7.934  0.0807 -0.0330  0.0189
11264CHOL    R357329  30.897   0.268   8.103  0.0076  0.0166  0.0653
11264CHOL    R457330  30.701   0.141   8.279  0.0429 -0.1087  0.0137
11264CHOL    R557331  30.767   0.349   8.287 -0.0532 -0.0801  0.0645
11264CHOL    C157332  30.863   0.236   8.638 -0.0475 -0.1064  0.0544
11264CHOL    C257333  30.873   0.071   8.867  0.1233 -0.0923  0.0177
11265CHOL   ROH57334  33.733  23.177   6.362 -0.2514 -0.0447  0.0584
11265CHOL    R157335  33.966  23.336   6.379 -0.1492 -0.1879  0.0097
11265CHOL    R257336  34.204  23.264   6.259 -0.2505 -0.2785 -0.1364
11265CHOL    R357337  34.185  23.511   6.146 -0.1608 -0.2206 -0.0256
11265CHOL    R457338  34.464  23.431   6.103 -0.1530 -0.2432  0.0617
11265CHOL    R557339  34.395  23.615   6.197 -0.1659 -0.2771  0.1207
11265CHOL    C157340  34.597  23.760   5.907 -0.0123 -0.1683  0.2812
11265CHOL    C257341  34.889  23.562   5.786 -0.0048  0.1437  0.0782
11266CHOL   ROH57342  33.433  17.276   1.321  0.0828 -0.0077 -0.0601
11266CHOL    R157343  33.382  17.304   1.598  0.2331 -0.0328 -0.0299
11266CHOL    R257344  33.533  17.468   1.761  0.1553  0.1586 -0.1492
11266CHOL    R357345  33.291  17.574   1.825  0.0736 -0.1093 -0.0022
11266CHOL    R457346  33.439  17.570   2.078  0.3517  0.3466 -0.1500
11266CHOL    R557347  33.242  17.484   2.041  0.4257  0.0380  0.1427
11266CHOL    C157348  33.157  17.729   2.322  0.3903  0.2049 -0.0124
11266CHOL    C257349  32.990  17.734   2.637 -0.1556 -0.1217 -0.0676
11267CHOL   ROH57350  26.593   4.799   7.342 -0.1141 -0.0161 -0.1544
11267CHOL    R157351  26.645   5.070   7.279 -0.0223 -0.0174 -0.0893
11267CHOL    R257352  26.492   5.212   7.097  0.1402  0.0246 -0.1994
11267CHOL    R357353  26.467   5.387   7.304  0.0033  0.0053 -0.2008
11267CHOL    R457354  26.454   5.554   7.064  0.3510  0.0495 -0.1855
11267CHOL    R557355  26.588   5.581   7.234  0.1781 -0.0454 -0.0363
11267CHOL    C157356  26.408   5.917   7.238  0.3452  0.0461 -0.1787
11267CHOL    C257357  26.619   6.106   7.428 -0.1538  0.3084 -0.0011
11268CHOL   ROH57358  16.523  31.477  18.285  0.5182 -0.0839 -0.3091
11268CHOL    R157359  16.384  31.301  18.113  0.3101 -0.0944 -0.1316
11268CHOL    R257360  16.115  31.245  18.143  0.2768  0.1419  0.0125
11268CHOL    R357361  16.102  31.322  17.883  0.2376 -0.0316 -0.0382
11268CHOL    R457362  15.860  31.163  17.925  0.2429 -0.0042  0.1066
11268CHOL    R557363  16.010  31.133  17.769  0.2193 -0.1087  0.1028
11268CHOL    C157364  15.700  31.187  17.553  0.1861 -0.2526  0.1136
11268CHOL    C257365  15.452  31.409  17.401  0.1938  0.1669 -0.2894
11269CHOL   ROH57366  28.783   6.947   7.434  0.1735  0.0505 -0.0563
11269CHOL    R157367  28.695   6.768   7.233  0.1530  0.0467 -0.0441
11269CHOL    R257368  28.698   6.832   6.964  0.1177  0.0446 -0.0456
11269CHOL    R357369  28.841   6.602   6.944  0.1215  0.0485 -0.0609
11269CHOL    R457370  28.675   6.609   6.702 -0.1516 -0.1252  0.1199
11269CHOL    R557371  28.688   6.446   6.846  0.0294 -0.0320  0.2095
11269CHOL    C157372  28.796   6.263   6.529 -0.3053 -0.2202  0.2020
11269CHOL    C257373  28.865   6.048   6.275  0.1847 -0.1692  0.4543
11270CHOL   ROH57374  33.804  25.589   4.513  0.0128  0.0900 -0.0174
11270CHOL    R157375  33.764  25.548   4.791  0.0507 -0.0099 -0.0259
11270CHOL    R257376  33.675  25.749   4.959  0.0590 -0.0738  0.0564
11270CHOL    R357377  33.485  25.565   5.023  0.0795 -0.1089  0.0155
11270CHOL    R457378  33.512  25.731   5.263  0.0797 -0.1745  0.0613
11270CHOL    R557379  33.527  25.514   5.253  0.0980 -0.1707 -0.0019
11270CHOL    C157380  33.240  25.549   5.501  0.1105 -0.2663  0.0256
11270CHOL    C257381  33.201  25.744   5.757  0.2778 -0.2671  0.0112
11271CHOL   ROH57382  22.208   9.573   8.078  0.0472  0.1060 -0.2236
11271CHOL    R157383  22.375   9.578   8.307 -0.0196  0.0498 -0.1737
11271CHOL    R257384  22.608   9.432   8.324  0.0403  0.1415 -0.1910
11271CHOL    R357385  22.718   9.673   8.382 -0.0817  0.1575 -0.0238
11271CHOL    R457386  22.919   9.478   8.469 -0.0919  0.1923  0.0786
11271CHOL    R557387  22.833   9.638   8.589 -0.2401  0.1277  0.0598
11271CHOL    C157388  23.202   9.732   8.608 -0.2833  0.2368  0.3925
11271CHOL    C257389  23.648   9.829   8.434 -0.3188 -0.2632  0.3646
11272CHOL   ROH57390  33.548   7.722  10.170 -0.0926 -0.0565  0.0048
11272CHOL    R157391  33.656   7.477  10.078  0.0969  0.0314 -0.0077
11272CHOL    R257392  33.572   7.357   9.844  0.0079 -0.1482  0.1173
11272CHOL    R357393  33.837   7.363   9.784 -0.0527  0.1291 -0.1397
11272CHOL    R457394  33.730   7.141   9.625  0.0893 -0.2439  0.2687
11272CHOL    R557395  33.899   7.132   9.763  0.2369  0.1768  0.1268
11272CHOL    C157396  34.071   7.021   9.441  0.0795 -0.0393  0.1155
11272CHOL    C257397  34.326   6.718   9.597  0.0259  0.0289 -0.0365
11273CHOL   ROH57398   0.660  15.516   3.271  0.1295  0.0645 -0.0470
11273CHOL    R157399   0.411  15.427   3.372  0.1390  0.0532 -0.0332
11273CHOL    R257400   0.180  15.431   3.222  0.1045  0.1635  0.0209
11273CHOL    R357401   0.170  15.168   3.291  0.0802  0.1307 -0.1061
11273CHOL    R457402  35.303  15.217   3.149  0.0446  0.2453 -0.0029
11273CHOL    R557403  35.325  15.130   3.348  0.0919  0.1429 -0.0530
11273CHOL    C157404  35.141  14.846   3.172 -0.0135  0.2621 -0.1361
11273CHOL    C257405  34.876  14.738   3.022 -0.0820 -0.1202  0.0838
11274CHOL   ROH57406  18.860  11.038  16.954 -0.2580  0.2467  0.0451
11274CHOL    R157407  18.664  10.984  16.757 -0.0645  0.1985 -0.1381
11274CHOL    R257408  18.727  10.899  16.502  0.1804 -0.0583  0.0051
11274CHOL    R357409  18.556  10.697  16.562 -0.0108  0.0957 -0.0161
11274CHOL    R457410  18.601  10.674  16.273  0.0647  0.0061  0.0050
11274CHOL    R557411  18.408  10.687  16.373  0.0425  0.1863 -0.0620
11274CHOL    C157412  18.367  10.352  16.195 -0.1823  0.1885 -0.0151
11274CHOL    C257413  18.102  10.211  16.138 -0.0773 -0.0747 -0.1404
11275CHOL   ROH57414  22.921   5.011  13.828 -0.2685  0.0008  0.3404
11275CHOL    R157415  22.718   4.977  13.634 -0.1287 -0.0186  0.1974
11275CHOL    R257416  22.768   4.873  13.383  0.0579 -0.0108  0.2311
11275CHOL    R357417  22.571   4.699  13.451  0.0282 -0.0324  0.0903
11275CHOL    R457418  22.633   4.635  13.172 -0.0072  0.2066  0.0267
11275CHOL    R557419  22.436   4.682  13.253  0.0088  0.1731  0.0846
11275CHOL    C157420  22.369   4.334  13.112 -0.0728  0.3129 -0.2245
11275CHOL    C257421  22.377   4.077  12.883 -0.1306 -0.0737  0.2709
11276CHOL   ROH57422  34.682  27.539   6.297  0.1381  0.0695  0.2600
11276CHOL    R157423  34.447  27.395   6.360  0.0935  0.0381  0.0237
11276CHOL    R257424  34.422  27.123   6.313  0.2124  0.0155  0.0884
11276CHOL    R357425  34.357  27.116   6.577 -0.1078  0.0951  0.0134
11276CHOL    R457426  34.300  26.846   6.479  0.1534  0.0238  0.0588
11276CHOL    R557427  34.162  26.977   6.586 -0.0481 -0.0010 -0.1653
11276CHOL    C157428  34.168  26.678   6.823 -0.1831  0.1039 -0.0290
11276CHOL    C257429  34.025  26.363   6.871 -0.0358  0.0395  0.1977
11277CHOL   ROH57430  15.890   5.815  16.405 -0.0221  0.0119 -0.1469
11277CHOL    R157431  15.792   5.785  16.141 -0.0732 -0.1248 -0.1131
11277CHOL    R257432  15.526   5.732  16.087 -0.1149  0.0053 -0.0405
11277CHOL    R357433  15.548   5.952  15.929  0.0095 -0.1269 -0.2105
11277CHOL    R457434  15.338   5.791  15.803 -0.1087 -0.0890 -0.0641
11277CHOL    R557435  15.517   5.870  15.706 -0.0687 -0.2767 -0.1449
11277CHOL    C157436  15.249   6.033  15.490  0.0115 -0.2681 -0.2376
11277CHOL    C257437  14.827   6.269  15.420 -0.1616  0.0604 -0.0343
11278CHOL   ROH57438   2.355  15.029  10.710  0.2113  0.3714  0.1564
11278CHOL    R157439   2.585  15.071  10.550  0.2237  0.3433  0.1670
11278CHOL    R257440   2.815  15.188  10.649  0.3331  0.0580  0.2532
11278CHOL    R357441   2.932  14.963  10.553  0.1370  0.0564  0.0113
11278CHOL    R457442   3.095  15.182  10.447  0.1398  0.0424 -0.0168
11278CHOL    R557443   3.002  15.021  10.332 -0.0452  0.1511 -0.0231
11278CHOL    C157444   3.368  14.966  10.239 -0.1570  0.0318 -0.4011
11278CHOL    C257445   3.472  14.818   9.952 -0.3421  0.0822 -0.1233
11279CHOL   ROH57446   3.750  21.038  12.452 -0.1161 -0.3742 -0.3131
11279CHOL    R157447   4.008  21.154  12.445 -0.1071 -0.3794 -0.0890
11279CHOL    R257448   4.239  21.003  12.426 -0.1153 -0.3669 -0.2596
11279CHOL    R357449   4.288  21.163  12.212 -0.0554 -0.0564 -0.0174
11279CHOL    R457450   4.551  21.118  12.333 -0.0267 -0.6052 -0.2619
11279CHOL    R557451   4.461  21.311  12.287  0.1853 -0.4036  0.1303
11279CHOL    C157452   4.779  21.336  12.078  0.0810 -0.4526 -0.0364
11279CHOL    C257453   5.133  21.376  12.163  0.0514  0.2239  0.1564
11280CHOL   ROH57454  21.974   4.507   9.094 -0.0999 -0.0597  0.1493
11280CHOL    R157455  22.221   4.639   9.133 -0.1541  0.0455  0.1388
11280CHOL    R257456  22.267   4.808   9.346 -0.1801 -0.0229  0.1981
11280CHOL    R357457  22.480   4.645   9.388 -0.0874  0.0644  0.0707
11280CHOL    R457458  22.578   4.913   9.455 -0.2377  0.0721  0.2716
11280CHOL    R557459  22.669   4.773   9.315 -0.1608  0.2277  0.1629
11280CHOL    C157460  22.959   4.821   9.558 -0.1840  0.2095  0.1947
11280CHOL    C257461  22.994   4.936   9.880 -0.0515  0.2002  0.5569
11281CHOL   ROH57462   0.278  15.420   6.578 -0.3015 -0.0139 -0.2101
11281CHOL    R157463   0.418  15.239   6.413 -0.2256  0.0726 -0.2408
11281CHOL    R257464   0.490  15.299   6.153  0.0194  0.2632 -0.1301
11281CHOL    R357465   0.738  15.232   6.240 -0.0784  0.1005  0.0278
11281CHOL    R457466   0.718  15.113   5.972  0.0724  0.2522 -0.0522
11281CHOL    R557467   0.772  15.010   6.157 -0.1186  0.1283 -0.0640
11281CHOL    C157468   1.085  14.942   5.949  0.0115  0.0931  0.1414
11281CHOL    C257469   1.171  14.898   5.603  0.2648  0.1443  0.5530
11282CHOL   ROH57470  24.130  19.333   6.888 -0.0556 -0.3066  0.0191
11282CHOL    R157471  23.849  19.296   6.896 -0.0809 -0.1314 -0.0336
11282CHOL    R257472  23.672  19.507   6.913  0.0433 -0.0146 -0.1668
11282CHOL    R357473  23.564  19.393   6.691  0.0284 -0.0431 -0.1448
11282CHOL    R457474  23.401  19.632   6.739 -0.0603 -0.1167 -0.0792
11282CHOL    R557475  23.328  19.427   6.716  0.0202 -0.1459 -0.0743
11282CHOL    C157476  23.142  19.598   6.430 -0.1349 -0.2026 -0.0074
11282CHOL    C257477  22.942  19.744   6.392  0.0785 -0.2754 -0.1570
11283CHOL   ROH57478  21.595  12.062   7.947 -0.0759  0.0860  0.0069
11283CHOL    R157479  21.809  12.244   7.982  0.0238 -0.0357  0.0324
11283CHOL    R257480  21.996  12.217   8.184  0.0542 -0.2098 -0.0188
11283CHOL    R357481  22.173  12.228   7.978  0.0155 -0.2176 -0.0529
11283CHOL    R457482  22.339  12.221   8.220  0.0597 -0.1211 -0.0800
11283CHOL    R557483  22.349  12.369   8.060 -0.0029 -0.1567 -0.1173
11283CHOL    C157484  22.706  12.234   8.047  0.0266 -0.0766 -0.1478
11283CHOL    C257485  23.041  12.284   7.957  0.0408 -0.0835 -0.0751
11284CHOL   ROH57486   9.386   4.358  15.487 -0.0517  0.1380 -0.0981
11284CHOL    R157487   9.222   4.505  15.665 -0.0356  0.0821 -0.0370
11284CHOL    R257488   9.185   4.431  15.929  0.0112  0.0154 -0.0495
11284CHOL    R357489   9.268   4.685  15.978 -0.0014  0.0098 -0.0000
11284CHOL    R457490   9.113   4.609  16.216 -0.0115 -0.0397 -0.0210
11284CHOL    R557491   9.083   4.786  16.092 -0.0121 -0.0183  0.0084
11284CHOL    C157492   9.148   4.952  16.430 -0.0366 -0.0770  0.0419
11284CHOL    C257493   8.877   4.743  16.679  0.0670 -0.1388  0.1248
11285CHOL   ROH57494  22.272  12.981  12.775  0.0811 -0.0264  0.2648
11285CHOL    R157495  22.142  13.063  12.538  0.0999  0.0619  0.2851
11285CHOL    R257496  22.049  12.884  12.349  0.1863  0.1349  0.1738
11285CHOL    R357497  21.814  13.016  12.386  0.1408  0.0475  0.2012
11285CHOL    R457498  21.755  12.814  12.181  0.2640  0.2028  0.0081
11285CHOL    R557499  21.718  13.029  12.167  0.2172  0.2083  0.1753
11285CHOL    C157500  21.363  12.898  12.118  0.2664  0.1604 -0.0628
11285CHOL    C257501  21.260  12.906  11.832 -0.3188 -0.2490 -0.1506
11286CHOL   ROH57502  31.668  20.666   3.614 -0.1447  0.0060  0.0634
11286CHOL    R157503  31.654  20.720   3.336 -0.0925  0.0412  0.0676
11286CHOL    R257504  31.860  20.840   3.197  0.0059 -0.1062  0.0863
11286CHOL    R357505  31.837  20.621   3.038 -0.1570 -0.0747  0.0659
11286CHOL    R457506  31.956  20.826   2.865  0.0673 -0.1682  0.1066
11286CHOL    R557507  31.777  20.709   2.823 -0.0301 -0.0036  0.0586
11286CHOL    C157508  31.991  20.612   2.523 -0.0499 -0.1753  0.0992
11286CHOL    C257509  32.211  20.749   2.272 -0.1786  0.4658  0.1684
11287CHOL   ROH57510  20.996   9.115  14.408 -0.0510 -0.3792 -0.1570
11287CHOL    R157511  20.820   9.179  14.196 -0.1526 -0.1307  0.0014
11287CHOL    R257512  20.847   9.073  13.943 -0.2001  0.2580 -0.1709
11287CHOL    R357513  20.588   9.000  13.981 -0.1574  0.0974 -0.1852
11287CHOL    R457514  20.586   9.154  13.731 -0.2882  0.3561 -0.0257
11287CHOL    R557515  20.461   9.189  13.907 -0.2640  0.1162  0.0409
11287CHOL    C157516  20.190   9.133  13.644 -0.2994  0.2625  0.0455
11287CHOL    C257517  19.977   8.868  13.523  0.1324 -0.3194  0.0147
11288CHOL   ROH57518  20.661  16.497   9.031  0.0792  0.0535  0.0772
11288CHOL    R157519  20.939  16.464   8.989  0.0309 -0.2100 -0.0438
11288CHOL    R257520  21.128  16.627   9.108  0.2241 -0.2237 -0.3312
11288CHOL    R357521  21.231  16.391   9.194  0.0900 -0.2092 -0.1260
11288CHOL    R457522  21.437  16.589   9.258  0.1627 -0.2506 -0.2106
11288CHOL    R557523  21.465  16.406   9.144  0.1135 -0.3506 -0.0690
11288CHOL    C157524  21.714  16.345   9.426  0.0005 -0.2527  0.0528
11288CHOL    C257525  21.904  16.637   9.553 -0.1410 -0.0964 -0.0636
11289CHOL   ROH57526   0.341   1.941   9.449 -0.1531  0.3593  0.1196
11289CHOL    R157527   0.160   2.041   9.642 -0.3102  0.1206  0.0994
11289CHOL    R257528  35.328   1.896   9.732 -0.0493 -0.2298  0.1835
11289CHOL    R357529   0.051   1.947   9.976 -0.1049  0.0602  0.1499
11289CHOL    R457530  35.152   1.899  10.030 -0.0950  0.0258  0.1549
11289CHOL    R557531  35.268   2.073  10.091 -0.1617  0.1267 -0.0080
11289CHOL    C157532  35.151   1.948  10.432 -0.1742  0.4468  0.1064
11289CHOL    C257533  35.034   1.832  10.874 -0.2310 -0.2123 -0.4444
11290CHOL   ROH57534   2.685  10.742   7.099 -0.1431  0.1757 -0.0683
11290CHOL    R157535   2.497  10.873   7.265 -0.1405 -0.0554  0.1181
11290CHOL    R257536   2.278  11.008   7.165 -0.0661  0.2038  0.3012
11290CHOL    R357537   2.140  10.845   7.334 -0.1684 -0.0532 -0.0253
11290CHOL    R457538   2.001  11.103   7.349  0.0917  0.0583  0.6174
11290CHOL    R557539   2.079  10.987   7.517  0.0369 -0.4103  0.3283
11290CHOL    C157540   1.711  11.005   7.615  0.0875 -0.2677  0.4949
11290CHOL    C257541   1.631  11.237   7.999 -0.2272  0.1210  0.0895
11291CHOL   ROH57542   4.099  23.584  16.330 -0.0698  0.1965 -0.0988
11291CHOL    R157543   4.289  23.584  16.120 -0.0696  0.2071 -0.0986
11291CHOL    R257544   4.390  23.818  16.012  0.0350  0.2118  0.0078
11291CHOL    R357545   4.630  23.703  16.071 -0.0165  0.0773 -0.0446
11291CHOL    R457546   4.689  23.891  15.855  0.1022  0.2903  0.1705
11291CHOL    R557547   4.738  23.679  15.859  0.0370  0.2695 -0.0401
11291CHOL    C157548   5.088  23.826  15.818  0.0932  0.2096  0.2166
11291CHOL    C257549   5.293  24.014  15.680 -0.1546  0.2107 -0.2961
11292CHOL   ROH57550   8.243  22.736  17.415 -0.0001  0.1780 -0.0150
11292CHOL    R157551   7.974  22.733  17.503 -0.0397 -0.0744 -0.1415
11292CHOL    R257552   7.861  22.513  17.627  0.1976 -0.0769  0.0735
11292CHOL    R357553   7.801  22.693  17.821 -0.1394  0.0837 -0.1758
11292CHOL    R457554   7.559  22.530  17.793  0.2196 -0.5293  0.1675
11292CHOL    R557555   7.571  22.748  17.782 -0.2890 -0.5083 -0.1696
11292CHOL    C157556   7.326  22.710  18.072 -0.0840 -0.6409 -0.0123
11292CHOL    C257557   7.000  22.844  18.240  0.1600  0.1088  0.1068
11293CHOL   ROH57558  16.904  20.019  14.933  0.0171  0.4076 -0.1067
11293CHOL    R157559  17.089  19.884  15.099 -0.0509  0.2876 -0.1273
11293CHOL    R257560  17.332  19.994  15.170 -0.0204  0.1777 -0.0627
11293CHOL    R357561  17.245  19.942  15.423 -0.0687  0.1276 -0.0895
11293CHOL    R457562  17.537  19.962  15.447 -0.0521 -0.1095 -0.0706
11293CHOL    R557563  17.412  19.797  15.514 -0.1833 -0.0452 -0.1518
11293CHOL    C157564  17.575  19.895  15.845 -0.1163 -0.3238 -0.1003
11293CHOL    C257565  17.855  20.054  16.120  0.2040 -0.1022  0.0364
11294CHOL   ROH57566  25.340   4.510  10.230 -0.2740  0.1285  0.1794
11294CHOL    R157567  25.292   4.416   9.968 -0.1381  0.0826  0.1705
11294CHOL    R257568  25.196   4.163   9.916 -0.1040  0.0709  0.1647
11294CHOL    R357569  25.005   4.298   9.777 -0.0385  0.0419  0.0449
11294CHOL    R457570  25.011   4.032   9.654  0.0120  0.0125  0.1115
11294CHOL    R557571  25.031   4.223   9.551  0.0628 -0.0127  0.0747
11294CHOL    C157572  24.725   4.083   9.372  0.1414 -0.0489 -0.0319
11294CHOL    C257573  24.783   3.961   9.002  0.2203 -0.1367 -0.0361
11295CHOL   ROH57574  22.570   1.149   8.361 -0.0389 -0.0165  0.2757
11295CHOL    R157575  22.715   1.216   8.595 -0.1490  0.0205  0.3334
11295CHOL    R257576  22.632   1.142   8.848 -0.0972 -0.2222  0.2804
11295CHOL    R357577  22.882   1.036   8.863  0.0268  0.0616  0.2522
11295CHOL    R457578  22.817   1.116   9.138 -0.2148 -0.4161  0.3387
11295CHOL    R557579  22.994   1.173   9.025 -0.2243 -0.0314  0.5105
11295CHOL    C157580  23.160   1.001   9.322 -0.1665 -0.2625  0.3462
11295CHOL    C257581  23.373   0.809   9.642  0.2789  0.1002  0.0820
11296CHOL   ROH57582  34.036  29.827  12.010  0.0267 -0.0648 -0.0100
11296CHOL    R157583  34.276  29.934  11.904  0.0172 -0.0574 -0.0230
11296CHOL    R257584  34.316  29.968  11.633 -0.0245  0.0045 -0.0205
11296CHOL    R357585  34.371  30.224  11.705  0.0075 -0.0164  0.0312
11296CHOL    R457586  34.567  30.162  11.495 -0.0275  0.0145 -0.0127
11296CHOL    R557587  34.610  30.239  11.695  0.0076 -0.0351 -0.0002
11296CHOL    C157588  34.764  30.516  11.484  0.0004  0.0009  0.0406
11296CHOL    C257589  35.043  30.663  11.225 -0.0477  0.2533 -0.1930
11297CHOL   ROH57590  25.393  10.409   7.090  0.1481 -0.0333 -0.2383
11297CHOL    R157591  25.249  10.322   6.862  0.0444 -0.0114 -0.1816
11297CHOL    R257592  24.976  10.283   6.865  0.0512 -0.0586 -0.0474
11297CHOL    R357593  24.982  10.453   6.652 -0.0871 -0.0135 -0.0161
11297CHOL    R457594  24.751  10.280   6.603  0.0076 -0.1369 -0.0090
11297CHOL    R557595  24.917  10.317   6.466 -0.0406 -0.0133 -0.0309
11297CHOL    C157596  24.625  10.436   6.251 -0.1476 -0.1402  0.0428
11297CHOL    C257597  24.599  10.248   5.899 -0.0295  0.1418 -0.3112
11298CHOL   ROH57598   0.216   1.157  12.966  0.0533  0.1911  0.0521
11298CHOL    R157599   0.306   1.097  12.704  0.0884  0.1950  0.0629
11298CHOL    R257600   0.520   1.226  12.587  0.1890  0.1058  0.1424
11298CHOL    R357601   0.613   0.973  12.553  0.0625  0.0626  0.1188
11298CHOL    R457602   0.763   1.135  12.360  0.0185 -0.0280  0.0127
11298CHOL    R557603   0.648   0.955  12.316 -0.0816  0.0165  0.1018
11298CHOL    C157604   0.992   0.844  12.195 -0.1995 -0.1465 -0.0850
11298CHOL    C257605   1.452   0.797  12.269 -0.0203  0.0344 -0.2329
11299CHOL   ROH57606  17.294  30.313  11.390  0.0994  0.0890 -0.0983
11299CHOL    R157607  17.472  30.286  11.609  0.0307  0.0643 -0.0453
11299CHOL    R257608  17.738  30.359  11.595  0.0571 -0.0179  0.0185
11299CHOL    R357609  17.676  30.508  11.813  0.0415  0.0296 -0.0183
11299CHOL    R457610  17.969  30.512  11.801  0.0389  0.0916 -0.0422
11299CHOL    R557611  17.847  30.455  11.972  0.0652  0.1125 -0.0167
11299CHOL    C157612  18.045  30.742  12.126  0.0129  0.2000 -0.1122
11299CHOL    C257613  18.167  30.985  12.353 -0.1185  0.1760 -0.2159
11300CHOL   ROH57614  28.367   5.606   4.730  0.2521 -0.0134 -0.1342
11300CHOL    R157615  28.426   5.800   4.927  0.0765 -0.0072 -0.0863
11300CHOL    R257616  28.357   5.769   5.192  0.1125 -0.1405 -0.0902
11300CHOL    R357617  28.621   5.815   5.234  0.0723  0.0958 -0.0889
11300CHOL    R457618  28.495   5.865   5.494  0.0444 -0.1437 -0.0582
11300CHOL    R557619  28.626   6.001   5.385 -0.0940  0.0319 -0.0055
11300CHOL    C157620  28.824   5.964   5.709 -0.0329  0.0764 -0.0384
11300CHOL    C257621  29.156   6.047   5.834  0.3115  0.1064 -0.3329
11301CHOL   ROH57622   9.244   0.583  16.733 -0.1023  0.1175 -0.0281
11301CHOL    R157623   9.315   0.856  16.760 -0.0581  0.1032 -0.0015
11301CHOL    R257624   9.133   1.050  16.835 -0.0380  0.1324 -0.0302
11301CHOL    R357625   9.318   1.103  17.027 -0.0678  0.0909  0.0102
11301CHOL    R457626   9.176   1.357  16.988 -0.2216  0.0381  0.2142
11301CHOL    R557627   9.392   1.326  16.978 -0.2024  0.1755  0.1863
11301CHOL    C157628   9.375   1.585  17.257 -0.3565 -0.0557  0.3947
11301CHOL    C257629   9.346   1.602  17.618  0.0208 -0.1295  0.0348
11302CHOL   ROH57630  21.395  12.097  14.277 -0.0616  0.2100 -0.0356
11302CHOL    R157631  21.267  11.930  14.088 -0.0257  0.1862 -0.0385
11302CHOL    R257632  20.997  11.871  14.100 -0.0173  0.1438 -0.0506
11302CHOL    R357633  20.999  11.963  13.844 -0.0189  0.1389 -0.0525
11302CHOL    R457634  20.741  11.826  13.873  0.0286  0.0435 -0.0825
11302CHOL    R557635  20.891  11.790  13.718  0.0612  0.0961 -0.0628
11302CHOL    C157636  20.593  11.886  13.500  0.0531 -0.0195 -0.1027
11302CHOL    C257637  20.461  12.165  13.164  0.1885 -0.0550  0.0596
11303CHOL   ROH57638   1.211   8.113  11.655 -0.1265  0.2020 -0.0892
11303CHOL    R157639   1.357   8.249  11.454 -0.1067  0.1715 -0.0957
11303CHOL    R257640   1.612   8.346  11.495 -0.1210  0.2003 -0.0767
11303CHOL    R357641   1.669   8.199  11.273 -0.0748  0.1584 -0.0373
11303CHOL    R457642   1.916   8.347  11.329 -0.0629  0.1153  0.0278
11303CHOL    R557643   1.806   8.343  11.140  0.0011  0.1122 -0.0095
11303CHOL    C157644   2.145   8.211  11.024  0.0143  0.0263  0.1257
11303CHOL    C257645   2.334   8.114  10.685 -0.2453 -0.1359  0.1600
11304CHOL   ROH57646  33.651   6.653   6.516 -0.0746 -0.1446  0.0604
11304CHOL    R157647  33.413   6.773   6.611 -0.0324 -0.0344  0.0288
11304CHOL    R257648  33.359   6.803   6.880 -0.1443 -0.1936  0.0248
11304CHOL    R357649  33.324   7.064   6.811  0.0889 -0.1148  0.2002
11304CHOL    R457650  33.149   7.024   7.043 -0.2430 -0.2203 -0.0659
11304CHOL    R557651  33.091   7.105   6.848  0.0591 -0.0227 -0.0762
11304CHOL    C157652  32.995   7.398   7.073 -0.0818 -0.1619  0.0457
11304CHOL    C257653  33.069   7.342   7.483  0.3025  0.0410 -0.2957
11305CHOL   ROH57654  33.989   7.803   5.468  0.0121  0.1804 -0.0543
11305CHOL    R157655  33.966   7.935   5.718  0.0217  0.1619 -0.0435
11305CHOL    R257656  33.916   8.206   5.738 -0.0543  0.1469 -0.0207
11305CHOL    R357657  33.709   8.123   5.894  0.0012  0.0774  0.0155
11305CHOL    R457658  33.793   8.378   6.011 -0.0362  0.0827  0.0282
11305CHOL    R557659  33.772   8.188   6.116  0.0340  0.0654  0.0090
11305CHOL    C157660  33.527   8.401   6.317  0.0269 -0.0199  0.0906
11305CHOL    C257661  33.676   8.685   6.414 -0.1459  0.0739 -0.2148
11306CHOL   ROH57662  25.814   7.959   8.332  0.2533 -0.0022  0.0400
11306CHOL    R157663  25.597   7.820   8.216  0.2329  0.0031  0.0724
11306CHOL    R257664  25.401   7.946   8.068  0.1929  0.0135  0.1350
11306CHOL    R357665  25.468   7.762   7.880  0.1566  0.0410  0.0945
11306CHOL    R457666  25.189   7.829   7.821  0.1968  0.1765  0.0534
11306CHOL    R557667  25.271   7.629   7.853  0.1064  0.1317  0.0119
11306CHOL    C157668  25.129   7.588   7.501  0.1652  0.2970 -0.0321
11306CHOL    C257669  25.238   7.681   7.246  0.1555  0.1589  0.0401
11307CHOL   ROH57670  32.649  26.787   4.240 -0.0199 -0.1359 -0.0156
11307CHOL    R157671  32.518  26.672   4.464  0.0317 -0.1129  0.0260
11307CHOL    R257672  32.641  26.489   4.630  0.0905 -0.0482  0.0530
11307CHOL    R357673  32.568  26.665   4.824  0.0755 -0.0198  0.0223
11307CHOL    R457674  32.681  26.436   4.969  0.2075  0.0658  0.0573
11307CHOL    R557675  32.486  26.526   5.002  0.1797 -0.0021  0.0860
11307CHOL    C157676  32.637  26.570   5.349  0.2617  0.1581  0.0310
11307CHOL    C257677  32.593  26.318   5.569 -0.0588 -0.2471 -0.0110
11308CHOL   ROH57678  20.848  24.646   9.399  0.0778 -0.1084  0.0052
11308CHOL    R157679  21.122  24.683   9.459  0.0448  0.0586  0.0555
11308CHOL    R257680  21.284  24.855   9.316 -0.0297  0.1447  0.0749
11308CHOL    R357681  21.336  24.960   9.561 -0.1386  0.1929  0.0778
11308CHOL    R457682  21.534  25.084   9.384 -0.1280  0.2388  0.1211
11308CHOL    R557683  21.575  24.976   9.570 -0.1463  0.2756  0.1469
11308CHOL    C157684  21.728  25.315   9.655 -0.2877  0.3391  0.1509
11308CHOL    C257685  21.969  25.498   9.838 -0.1304 -0.5558 -0.1034
11309CHOL   ROH57686  16.222  11.687  14.651 -0.1387  0.0980  0.0777
11309CHOL    R157687  16.419  11.800  14.820 -0.0740  0.0991  0.0021
11309CHOL    R257688  16.358  11.919  15.061  0.0151  0.1213  0.0154
11309CHOL    R357689  16.542  11.743  15.158  0.0375  0.1166 -0.0354
11309CHOL    R457690  16.451  11.893  15.393 -0.1530 -0.1251  0.0443
11309CHOL    R557691  16.657  11.866  15.328 -0.1066  0.0193  0.1330
11309CHOL    C157692  16.678  11.713  15.677 -0.2296 -0.2729  0.0137
11309CHOL    C257693  16.604  11.874  15.990  0.1425 -0.2170  0.2690
11310CHOL   ROH57694  16.624  25.195  20.281  0.0751 -0.1450 -0.0430
11310CHOL    R157695  16.606  25.103  20.015 -0.1265 -0.0992 -0.0462
11310CHOL    R257696  16.578  24.835  19.952 -0.1522 -0.0898 -0.0717
11310CHOL    R357697  16.362  24.923  19.813 -0.2701 -0.0848  0.1132
11310CHOL    R457698  16.368  24.634  19.765  0.0198 -0.0072 -0.3574
11310CHOL    R557699  16.361  24.791  19.613 -0.1696  0.2350 -0.1047
11310CHOL    C157700  16.043  24.600  19.526  0.0096  0.0454 -0.3505
11310CHOL    C257701  15.864  24.385  19.308 -0.2184 -0.0710 -0.0644
11311CHOL   ROH57702   9.580   3.904  15.325 -0.1251 -0.0372 -0.0835
11311CHOL    R157703   9.654   3.800  15.577  0.2193  0.0926 -0.1278
11311CHOL    R257704   9.834   3.926  15.744  0.0172  0.4763 -0.1927
11311CHOL    R357705   9.632   3.907  15.925  0.1332  0.0059 -0.1062
11311CHOL    R457706   9.876   3.927  16.087  0.1655  0.4883 -0.2104
11311CHOL    R557707   9.723   3.772  16.101  0.4982  0.1570 -0.1749
11311CHOL    C157708   9.710   3.910  16.456  0.3606  0.0537 -0.1393
11311CHOL    C257709   9.599   4.036  16.762 -0.0418  0.2852  0.5456
11312CHOL   ROH57710   1.329  17.372   8.232 -0.0246 -0.3513  0.2318
11312CHOL    R157711   1.604  17.357   8.297 -0.0165 -0.1209  0.2567
11312CHOL    R257712   1.786  17.220   8.141  0.0650 -0.1953  0.4154
11312CHOL    R357713   1.918  17.458   8.143 -0.0709 -0.1154  0.1490
11312CHOL    R457714   2.129  17.256   8.111  0.0337 -0.0233  0.2548
11312CHOL    R557715   2.120  17.412   8.263  0.0012  0.1114  0.1158
11312CHOL    C157716   2.452  17.500   8.096 -0.1120  0.1520 -0.0891
11312CHOL    C257717   2.785  17.536   8.221  0.0782  0.1098 -0.0390
11313CHOL   ROH57718   4.534  28.155  15.033  0.1396 -0.2006 -0.0702
11313CHOL    R157719   4.513  28.097  15.310  0.1329 -0.2605 -0.0827
11313CHOL    R257720   4.351  28.243  15.480  0.3835 -0.0815  0.0082
11313CHOL    R357721   4.250  27.998  15.541  0.0495  0.0408 -0.0455
11313CHOL    R457722   4.192  28.163  15.776  0.4909  0.0072  0.0901
11313CHOL    R557723   4.296  27.971  15.774  0.1927 -0.1554 -0.0953
11313CHOL    C157724   4.004  27.886  16.006  0.2399  0.1729  0.0873
11313CHOL    C257725   3.854  28.246  16.235 -0.0438 -0.0676 -0.3088
11314CHOL   ROH57726  18.753   5.001  16.129  0.1618 -0.0945 -0.0558
11314CHOL    R157727  18.603   5.182  15.972 -0.0530 -0.2874 -0.0762
11314CHOL    R257728  18.721   5.369  15.806 -0.2651  0.0641  0.1604
11314CHOL    R357729  18.563   5.254  15.617  0.1418 -0.1320 -0.0666
11314CHOL    R457730  18.641   5.513  15.503 -0.3296  0.1380  0.2127
11314CHOL    R557731  18.438   5.437  15.526 -0.1865 -0.3304 -0.0181
11314CHOL    C157732  18.446   5.489  15.148  0.0143 -0.0030  0.0298
11314CHOL    C257733  18.610   5.460  14.849 -0.0275 -0.0115  0.1625
11315CHOL   ROH57734   4.708   1.795  17.320  0.2720 -0.0634 -0.0293
11315CHOL    R157735   4.834   1.710  17.082  0.0526 -0.0057 -0.1677
11315CHOL    R257736   4.778   1.823  16.836  0.1468  0.3583 -0.0254
11315CHOL    R357737   5.048   1.860  16.828  0.2075 -0.0678 -0.0740
11315CHOL    R457738   4.963   1.868  16.547  0.1394  0.2611 -0.0454
11315CHOL    R557739   5.118   1.741  16.633 -0.0384 -0.0483 -0.1760
11315CHOL    C157740   5.323   1.929  16.372  0.1920 -0.1954 -0.1029
11315CHOL    C257741   5.521   1.961  16.059 -0.2072 -0.3765  0.2995
11316CHOL   ROH57742  33.825  30.220   8.283  0.0912  0.1728  0.1535
11316CHOL    R157743  33.658  30.004   8.359  0.0168  0.1518 -0.0679
11316CHOL    R257744  33.713  29.843   8.576  0.0137 -0.1539 -0.2900
11316CHOL    R357745  33.461  29.912   8.650  0.0705 -0.1300 -0.1193
11316CHOL    R457746  33.486  29.630   8.727 -0.0698 -0.2697 -0.5749
11316CHOL    R557747  33.330  29.717   8.603 -0.0507  0.0175 -0.4000
11316CHOL    C157748  33.118  29.572   8.885 -0.0658 -0.3145 -0.5807
11316CHOL    C257749  33.124  29.257   9.082  0.2353 -0.0503 -0.0923
11317CHOL   ROH57750  23.665  31.918  10.093 -0.0682  0.3190 -0.0162
11317CHOL    R157751  23.695  31.910   9.812 -0.0410  0.2087 -0.0105
11317CHOL    R257752  23.648  31.682   9.663  0.0747  0.1226  0.0859
11317CHOL    R357753  23.481  31.846   9.524  0.0122 -0.0137 -0.0016
11317CHOL    R457754  23.507  31.607   9.357  0.2541 -0.0172  0.0368
11317CHOL    R557755  23.542  31.813   9.295  0.1307  0.0021  0.0269
11317CHOL    C157756  23.268  31.716   9.048  0.3002 -0.2267 -0.0743
11317CHOL    C257757  23.173  32.010   8.867 -0.2211 -0.0817  0.2193
11318CHOL   ROH57758  30.380  17.999   0.368  0.1122  0.0624 -0.1006
11318CHOL    R157759  30.460  18.122   0.610  0.1209  0.0629 -0.1039
11318CHOL    R257760  30.654  18.318   0.620  0.0027  0.1800 -0.1325
11318CHOL    R357761  30.459  18.458   0.749 -0.0392  0.0354 -0.0354
11318CHOL    R457762  30.685  18.454   0.937  0.1221  0.3460 -0.2143
11318CHOL    R557763  30.480  18.392   0.978  0.2167  0.1514 -0.0216
11318CHOL    C157764  30.520  18.665   1.241  0.1526  0.3058 -0.1708
11318CHOL    C257765  30.599  18.787   1.658  0.2625 -0.0450  0.1097
11319CHOL   ROH57766   8.132  15.845  17.501 -0.2385 -0.0258 -0.4010
11319CHOL    R157767   8.361  15.970  17.393 -0.2091  0.0732 -0.2243
11319CHOL    R257768   8.562  15.829  17.265 -0.0968  0.1714 -0.1554
11319CHOL    R357769   8.513  16.006  17.064 -0.0261  0.2268 -0.1242
11319CHOL    R457770   8.752  15.858  16.978 -0.0393  0.1982 -0.1150
11319CHOL    R557771   8.731  16.075  16.992  0.0012  0.1999 -0.0694
11319CHOL    C157772   8.817  16.041  16.622  0.0605  0.2658 -0.0625
11319CHOL    C257773   9.132  16.235  16.468 -0.2739  0.1150 -0.1174
11320CHOL   ROH57774  22.604  23.684  11.554  0.0728  0.2624  0.2321
11320CHOL    R157775  22.362  23.830  11.578  0.0134  0.1724  0.1893
11320CHOL    R257776  22.310  24.057  11.431 -0.1123  0.0631  0.0628
11320CHOL    R357777  22.085  23.921  11.360 -0.0651 -0.0776  0.1842
11320CHOL    R457778  22.041  24.193  11.260 -0.1041 -0.2148 -0.1750
11320CHOL    R557779  21.908  24.079  11.390 -0.1081 -0.0792 -0.0599
11320CHOL    C157780  21.674  24.144  11.095 -0.0554 -0.5089 -0.1992
11320CHOL    C257781  21.715  24.167  10.680  0.0729 -0.3708  0.0166
11321CHOL   ROH57782  22.344  17.316   4.525  0.1660 -0.1567 -0.0803
11321CHOL    R157783  22.556  17.415   4.685  0.0601 -0.0637  0.0037
11321CHOL    R257784  22.593  17.338   4.947 -0.0133 -0.0419  0.0208
11321CHOL    R357785  22.843  17.275   4.860  0.0485  0.0611  0.1230
11321CHOL    R457786  22.864  17.275   5.152 -0.0389  0.1968  0.1301
11321CHOL    R557787  22.989  17.387   5.013 -0.0607  0.2087  0.1208
11321CHOL    C157788  23.256  17.179   5.189  0.0042  0.4332  0.2897
11321CHOL    C257789  23.584  17.253   5.408  0.0637 -0.0901 -0.0964
11322CHOL   ROH57790   2.642   1.445  11.227 -0.1792 -0.0839 -0.0689
11322CHOL    R157791   2.523   1.662  11.364 -0.0540  0.0239 -0.1299
11322CHOL    R257792   2.524   1.920  11.264 -0.0575 -0.0364 -0.2861
11322CHOL    R357793   2.255   1.900  11.299 -0.0415  0.0413 -0.1179
11322CHOL    R457794   2.306   2.188  11.270 -0.0087  0.0071 -0.4177
11322CHOL    R557795   2.199   2.091  11.434  0.0655  0.1785 -0.2652
11322CHOL    C157796   1.927   2.326  11.308  0.0347  0.1052 -0.3363
11322CHOL    C257797   1.875   2.758  11.327 -0.0324 -0.2254  0.0821
11323CHOL   ROH57798  20.451  17.296  15.325 -0.1851  0.2532  0.0824
11323CHOL    R157799  20.298  17.225  15.097 -0.2266 -0.0061  0.1891
11323CHOL    R257800  20.046  17.114  15.117 -0.3338  0.2565  0.3621
11323CHOL    R357801  19.977  17.320  14.954 -0.1245  0.0402 -0.0088
11323CHOL    R457802  19.732  17.162  14.981 -0.2888  0.3418  0.2880
11323CHOL    R557803  19.827  17.223  14.794 -0.2312 -0.0914  0.1710
11323CHOL    C157804  19.484  17.384  14.749 -0.0656  0.1881 -0.1033
11323CHOL    C257805  19.164  17.501  14.949  0.1974  0.1565  0.0561
11324CHOL   ROH57806   3.883   5.314  12.218  0.0618  0.1811 -0.0335
11324CHOL    R157807   4.129   5.417  12.125  0.0875  0.4176  0.2857
11324CHOL    R257808   4.315   5.534  12.292  0.1245 -0.1626  0.6645
11324CHOL    R357809   4.483   5.351  12.182  0.0714  0.1338  0.0702
11324CHOL    R457810   4.653   5.510  12.360  0.1818 -0.2812  0.3449
11324CHOL    R557811   4.688   5.470  12.148  0.0257  0.2542  0.2107
11324CHOL    C157812   5.007   5.324  12.296  0.1652 -0.0720 -0.3992
11324CHOL    C257813   5.184   5.020  12.524 -0.0348  0.0240 -0.1895
11325CHOL   ROH57814  30.666   6.598   8.604 -0.0368 -0.1885 -0.0042
11325CHOL    R157815  30.602   6.443   8.376 -0.0538 -0.0207 -0.1150
11325CHOL    R257816  30.670   6.521   8.120  0.1048  0.0725 -0.0472
11325CHOL    R357817  30.786   6.276   8.110 -0.0624 -0.0042 -0.1311
11325CHOL    R457818  30.802   6.376   7.835  0.1696  0.1548 -0.0586
11325CHOL    R557819  30.718   6.186   7.899 -0.0019  0.1742 -0.2265
11325CHOL    C157820  30.989   6.062   7.661  0.0508  0.1305 -0.1438
11325CHOL    C257821  31.012   5.818   7.261  0.0357  0.1617  0.1591
11326CHOL   ROH57822  24.310   7.041   5.717 -0.0291  0.0542  0.0150
11326CHOL    R157823  24.427   7.250   5.869 -0.0055  0.0975 -0.0617
11326CHOL    R257824  24.569   7.202   6.101 -0.2187  0.1868  0.0875
11326CHOL    R357825  24.763   7.344   5.974 -0.0218 -0.0478  0.1227
11326CHOL    R457826  24.867   7.301   6.244 -0.3738  0.3191  0.3233
11326CHOL    R557827  24.848   7.492   6.142 -0.1978  0.1765  0.0167
11326CHOL    C157828  25.223   7.492   6.208 -0.2789  0.1759  0.4937
11326CHOL    C257829  25.493   7.598   6.459 -0.0354  0.1808  0.1401
11327CHOL   ROH57830  23.042   8.748   6.284 -0.0145 -0.0521  0.0529
11327CHOL    R157831  23.211   8.909   6.444 -0.0219  0.0623 -0.0539
11327CHOL    R257832  23.294   8.833   6.696  0.0235  0.2105 -0.0238
11327CHOL    R357833  23.542   8.878   6.593  0.0028  0.1988 -0.0793
11327CHOL    R457834  23.562   8.962   6.873  0.1484 -0.0639 -0.0094
11327CHOL    R557835  23.614   9.081   6.698  0.1297  0.0733  0.0778
11327CHOL    C157836  23.949   9.079   6.880  0.2012 -0.2346 -0.0533
11327CHOL    C257837  24.237   9.128   7.068  0.1986  0.0938  0.0667
11328CHOL   ROH57838  26.571  29.690   9.591  0.3366 -0.1145  0.0765
11328CHOL    R157839  26.589  29.743   9.314  0.1997 -0.1257  0.0652
11328CHOL    R257840  26.637  29.996   9.214 -0.0717 -0.0889  0.0241
11328CHOL    R357841  26.841  29.871   9.085  0.0082  0.0923 -0.0260
11328CHOL    R457842  26.706  30.027   8.877 -0.2966 -0.1732 -0.0306
11328CHOL    R557843  26.750  29.814   8.871 -0.0431 -0.1245  0.0526
11328CHOL    C157844  26.937  29.928   8.559 -0.3529 -0.0527 -0.1094
11328CHOL    C257845  27.091  30.114   8.278  0.0234 -0.1041 -0.1341
11329CHOL   ROH57846   7.455   7.512  14.223  0.0117  0.0638  0.1038
11329CHOL    R157847   7.319   7.497  14.470 -0.0335  0.0700  0.0793
11329CHOL    R257848   7.274   7.718  14.629 -0.0367  0.0689  0.0794
11329CHOL    R357849   7.015   7.635  14.614 -0.0434  0.0985  0.0314
11329CHOL    R457850   7.034   7.773  14.872 -0.0619  0.0528  0.0582
11329CHOL    R557851   6.960   7.571  14.838 -0.0789  0.0659  0.0136
11329CHOL    C157852   6.652   7.729  15.000 -0.0830  0.0712  0.0008
11329CHOL    C257853   6.673   7.952  15.278  0.0061 -0.1670 -0.2401
11330CHOL   ROH57854  29.494  22.275   3.988 -0.0432 -0.0141  0.0601
11330CHOL    R157855  29.503  22.255   3.705  0.1478  0.0786  0.0594
11330CHOL    R257856  29.303  22.353   3.543  0.1120 -0.1403 -0.0283
11330CHOL    R357857  29.508  22.486   3.424  0.0064  0.1660  0.1284
11330CHOL    R457858  29.304  22.462   3.215  0.1616 -0.0549 -0.0001
11330CHOL    R557859  29.513  22.401   3.201  0.2552  0.2275  0.1086
11330CHOL    C157860  29.498  22.650   2.912  0.0922  0.2823  0.1634
11330CHOL    C257861  29.540  22.906   2.520  0.0939  0.1064  0.0574
11331CHOL   ROH57862  25.630  30.175   9.219  0.0746 -0.1113 -0.0826
11331CHOL    R157863  25.764  30.226   8.975 -0.0219  0.0137 -0.1097
11331CHOL    R257864  25.779  30.038   8.772  0.0684  0.0464 -0.1331
11331CHOL    R357865  25.674  30.239   8.622 -0.1178 -0.0156 -0.0865
11331CHOL    R457866  25.788  30.053   8.427 -0.1442  0.0242 -0.1401
11331CHOL    R557867  25.829  30.266   8.441 -0.2378  0.0452 -0.1812
11331CHOL    C157868  25.694  30.249   8.085 -0.4422 -0.0467 -0.1003
11331CHOL    C257869  26.037  30.321   7.829  0.1607 -0.0672  0.1534
11332CHOL   ROH57870   7.963  20.020  15.908 -0.2386  0.2382  0.1209
11332CHOL    R157871   7.744  19.924  16.060 -0.1991  0.1230  0.1059
11332CHOL    R257872   7.579  19.722  15.971 -0.1478  0.1034  0.0498
11332CHOL    R357873   7.644  19.608  16.209 -0.0943  0.0429  0.0057
11332CHOL    R457874   7.367  19.525  16.160 -0.0487 -0.0820 -0.0317
11332CHOL    R557875   7.444  19.623  16.339 -0.1041 -0.1137  0.0078
11332CHOL    C157876   7.305  19.303  16.493  0.0594 -0.2470 -0.1207
11332CHOL    C257877   7.459  19.027  16.600  0.3057  0.2045 -0.0597
11333CHOL   ROH57878  24.117   5.357  11.758  0.0386 -0.1317 -0.0417
11333CHOL    R157879  23.963   5.255  11.543  0.0538 -0.0782 -0.0781
11333CHOL    R257880  23.689   5.278  11.532  0.0396 -0.2140 -0.0149
11333CHOL    R357881  23.740   5.391  11.289 -0.0612 -0.0367  0.0452
11333CHOL    R457882  23.489   5.243  11.252 -0.0481 -0.0539  0.0268
11333CHOL    R557883  23.670   5.225  11.131 -0.0853  0.0609 -0.0466
11333CHOL    C157884  23.421   5.328  10.861 -0.1932  0.2057  0.1074
11333CHOL    C257885  23.118   5.587  10.711  0.0885 -0.3232  0.1185
11334CHOL   ROH57886  24.078  31.861   6.672 -0.0610 -0.1809 -0.0696
11334CHOL    R157887  23.975  31.749   6.911 -0.1335 -0.1402 -0.0819
11334CHOL    R257888  24.062  31.826   7.161 -0.0038 -0.3021 -0.0760
11334CHOL    R357889  23.797  31.870   7.205  0.0486 -0.0355 -0.0139
11334CHOL    R457890  23.920  31.892   7.470  0.1240 -0.2275 -0.0327
11334CHOL    R557891  23.753  31.763   7.415 -0.0214 -0.0395 -0.0309
11334CHOL    C157892  23.589  31.970   7.690  0.2480  0.0662  0.0507
11334CHOL    C257893  23.907  31.979   8.004  0.0174  0.0241  0.1351
11335CHOL   ROH57894  20.483  24.183  16.897 -0.0185 -0.0869 -0.0055
11335CHOL    R157895  20.448  24.020  16.669  0.1003  0.0000 -0.0860
11335CHOL    R257896  20.208  24.003  16.533  0.0957 -0.1519 -0.0593
11335CHOL    R357897  20.362  24.070  16.319  0.0035  0.1035 -0.0477
11335CHOL    R457898  20.090  24.046  16.211  0.0111 -0.1091 -0.0223
11335CHOL    R557899  20.268  23.945  16.137  0.1019  0.1005 -0.0965
11335CHOL    C157900  20.164  24.134  15.823 -0.1246  0.1551  0.0096
11335CHOL    C257901  20.086  24.126  15.411 -0.0097  0.2749 -0.0504
11336CHOL   ROH57902  21.240  10.648   9.837  0.0480  0.1020  0.1137
11336CHOL    R157903  21.428  10.830   9.943  0.1167  0.0333  0.1107
11336CHOL    R257904  21.499  10.833  10.210  0.1257  0.0044  0.1093
11336CHOL    R357905  21.751  10.810  10.110  0.1147 -0.0855  0.1013
11336CHOL    R457906  21.787  10.921  10.379  0.1488  0.0896  0.0248
11336CHOL    R557907  21.865  11.003  10.193  0.1404 -0.0408 -0.0372
11336CHOL    C157908  22.191  10.951  10.384  0.1525  0.0550 -0.0323
11336CHOL    C257909  22.363  11.168  10.347 -0.1450 -0.0288 -0.1554
11337CHOL   ROH57910   3.898  16.146   9.915  0.0298 -0.0149 -0.1218
11337CHOL    R157911   3.700  16.275   9.759 -0.0444 -0.0784 -0.0808
11337CHOL    R257912   3.450  16.166   9.715 -0.0285 -0.1456 -0.0055
11337CHOL    R357913   3.364  16.405   9.813 -0.0633 -0.1591 -0.0031
11337CHOL    R457914   3.123  16.279   9.704 -0.0498 -0.2045  0.0214
11337CHOL    R557915   3.198  16.478   9.656 -0.0903 -0.1925  0.0105
11337CHOL    C157916   2.853  16.568   9.789 -0.0950 -0.2516  0.0391
11337CHOL    C257917   2.691  16.391   9.498  0.1421 -0.1176 -0.0007
11338CHOL   ROH57918  33.123   2.597   7.919  0.1554 -0.0745  0.0963
11338CHOL    R157919  33.008   2.544   8.173 -0.0084 -0.0968  0.0180
11338CHOL    R257920  33.115   2.644   8.407 -0.1035 -0.1989  0.1043
11338CHOL    R357921  32.863   2.740   8.443 -0.0869 -0.1123 -0.0128
11338CHOL    R457922  33.000   2.796   8.696 -0.1694 -0.1132  0.0331
11338CHOL    R557923  32.811   2.690   8.671 -0.1942 -0.0571 -0.0242
11338CHOL    C157924  32.697   2.975   8.897 -0.1927  0.0178 -0.1181
11338CHOL    C257925  32.511   2.984   9.074  0.2568  0.1785 -0.1620
11339CHOL   ROH57926  15.054   3.522  16.531  0.1592 -0.0052  0.1129
11339CHOL    R157927  15.054   3.453  16.257 -0.0832 -0.0093  0.1137
11339CHOL    R257928  14.882   3.570  16.074  0.0114  0.2627  0.1959
11339CHOL    R357929  15.112   3.625  15.941  0.0375 -0.1050  0.0837
11339CHOL    R457930  14.909   3.598  15.731 -0.0802  0.0838  0.1731
11339CHOL    R557931  15.099   3.491  15.742 -0.2194 -0.1704  0.1431
11339CHOL    C157932  15.141   3.665  15.406 -0.1093 -0.3656  0.0548
11339CHOL    C257933  15.069   3.936  15.213  0.0628  0.1910  0.1568
11340CHOL   ROH57934  34.482  35.379  13.015 -0.0773 -0.0408  0.0974
11340CHOL    R157935  34.619  35.349  12.769 -0.1945 -0.2815  0.0605
11340CHOL    R257936  34.888   0.018  12.741 -0.3060  0.1456 -0.2264
11340CHOL    R357937  34.896  35.150  12.643  0.0758 -0.0417  0.2666
11340CHOL    R457938  35.124  35.285  12.518 -0.4414  0.2316 -0.4160
11340CHOL    R557939  34.966  35.176  12.415 -0.3944 -0.3330  0.0812
11340CHOL    C157940  35.269  34.978  12.296 -0.1616  0.1045 -0.0637
11340CHOL    C257941   0.322  34.933  12.220 -0.1639  0.0667 -0.1881
11341CHOL   ROH57942  34.474   2.973   8.572 -0.0038 -0.0530 -0.0105
11341CHOL    R157943  34.448   3.214   8.718  0.0172 -0.0438 -0.0216
11341CHOL    R257944  34.204   3.337   8.760  0.0205 -0.0523  0.0232
11341CHOL    R357945  34.278   3.322   9.022  0.0792 -0.0307  0.0082
11341CHOL    R457946  34.015   3.451   9.026  0.1141  0.0398  0.0507
11341CHOL    R557947  34.198   3.526   9.118  0.1560  0.0057 -0.0049
11341CHOL    C157948  33.974   3.503   9.426  0.2238  0.1135  0.0524
11341CHOL    C257949  33.690   3.477   9.503  0.1299  0.2580  0.1894
11342CHOL   ROH57950  17.192  31.472  17.446 -0.0481  0.0386  0.0163
11342CHOL    R157951  16.953  31.372  17.331  0.0202 -0.0843 -0.0189
11342CHOL    R257952  16.797  31.521  17.160 -0.0398 -0.1597 -0.0290
11342CHOL    R357953  16.829  31.307  16.996  0.0958 -0.1330 -0.0379
11342CHOL    R457954  16.547  31.384  16.964  0.0534 -0.2935 -0.0549
11342CHOL    R557955  16.623  31.186  17.015  0.1638 -0.2527 -0.0593
11342CHOL    C157956  16.432  31.103  16.695  0.2349 -0.3462 -0.0777
11342CHOL    C257957  16.025  31.310  16.700 -0.1114  0.0819  0.0666
11343CHOL   ROH57958  34.748   7.723   6.416  0.0509  0.2449 -0.2765
11343CHOL    R157959  34.611   7.750   6.662 -0.1072 -0.0377 -0.3310
11343CHOL    R257960  34.611   7.985   6.808  0.0432 -0.2873  0.0840
11343CHOL    R357961  34.341   7.956   6.793  0.0197  0.0320 -0.1781
11343CHOL    R457962  34.382   8.174   6.986  0.1019 -0.2131  0.0811
11343CHOL    R557963  34.265   7.992   7.018 -0.1308 -0.1152 -0.2054
11343CHOL    C157964  33.996   8.256   7.076  0.1143  0.1301 -0.1666
11343CHOL    C257965  34.087   8.613   7.312 -0.1066 -0.1813 -0.2503
11344CHOL   ROH57966   9.755   8.867  14.742  0.1488 -0.1913 -0.0251
11344CHOL    R157967   9.558   8.699  14.856  0.1451 -0.1651  0.0075
11344CHOL    R257968   9.609   8.536  15.072  0.0973 -0.0020  0.1435
11344CHOL    R357969   9.395   8.665  15.180  0.0170  0.0162 -0.0369
11344CHOL    R457970   9.396   8.402  15.310 -0.0237  0.0728  0.0772
11344CHOL    R557971   9.228   8.494  15.204  0.0252  0.0051 -0.0604
11344CHOL    C157972   9.071   8.445  15.548 -0.1697  0.1332 -0.1306
11344CHOL    C257973   8.672   8.367  15.630 -0.0783  0.1300  0.1048
11345CHOL   ROH57974   2.716  24.825   7.530 -0.0710 -0.1420  0.0637
11345CHOL    R157975   2.525  24.616   7.548 -0.0232 -0.1886  0.0329
11345CHOL    R257976   2.597  24.351   7.580  0.0336 -0.1586  0.1652
11345CHOL    R357977   2.431  24.366   7.794 -0.0869 -0.1284  0.0700
11345CHOL    R457978   2.508  24.083   7.779  0.1519 -0.0784  0.3274
11345CHOL    R557979   2.305  24.162   7.785  0.0837 -0.2386  0.1628
11345CHOL    C157980   2.299  23.940   8.096  0.1076 -0.0035  0.3324
11345CHOL    C257981   2.230  23.675   8.323 -0.1254  0.2174 -0.2003
11346CHOL   ROH57982  32.815  35.202   7.987  0.1429 -0.1841  0.1263
11346CHOL    R157983  32.823  35.130   8.261  0.0607 -0.0195  0.1729
11346CHOL    R257984  32.697  35.278   8.457  0.0107  0.1060  0.0493
11346CHOL    R357985  32.582  35.040   8.518 -0.0182  0.1478  0.1578
11346CHOL    R457986  32.568  35.194   8.767  0.0599  0.2350  0.1051
11346CHOL    R557987  32.652  34.995   8.742  0.0195  0.2129  0.1580
11346CHOL    C157988  32.384  34.921   9.003  0.0614  0.3494  0.2394
11346CHOL    C257989  32.079  34.853   9.266  0.0546 -0.0370 -0.1268
11347CHOL   ROH57990  22.412  13.939  13.063  0.0231 -0.0435  0.1054
11347CHOL    R157991  22.179  14.020  12.923  0.1343 -0.1451 -0.1423
11347CHOL    R257992  22.077  13.879  12.709  0.1312 -0.4775  0.0766
11347CHOL    R357993  21.849  13.882  12.857  0.0689 -0.0503 -0.0206
11347CHOL    R457994  21.759  13.922  12.580  0.2171 -0.4822 -0.1397
11347CHOL    R557995  21.713  14.048  12.752  0.2312 -0.1369 -0.3815
11347CHOL    C157996  21.360  13.950  12.644  0.2084 -0.0839 -0.3569
11347CHOL    C257997  21.378  14.141  12.376  0.1112  0.0228  0.1058
11348CHOL   ROH57998  35.318  26.705  13.447  0.1092 -0.1107 -0.0909
11348CHOL    R157999   0.139  26.857  13.326  0.0503 -0.1089 -0.1902
11348CHOL    R258000   0.377  26.913  13.455  0.0092  0.1058 -0.2089
11348CHOL    R358001   0.486  26.803  13.231  0.0867 -0.0205 -0.1102
11348CHOL    R458002   0.690  26.990  13.330 -0.0372  0.2035 -0.2655
11348CHOL    R558003   0.605  26.984  13.129 -0.0292 -0.0290 -0.2653
11348CHOL    C158004   0.974  26.933  13.047  0.0085  0.1417 -0.2058
11348CHOL    C258005   1.333  26.799  13.016 -0.0481  0.1313  0.1322
11349CHOL   ROH58006  22.859   7.338  13.665  0.0685  0.0619 -0.1397
11349CHOL    R158007  22.724   7.540  13.520  0.0696  0.1310 -0.0448
11349CHOL    R258008  22.654   7.511  13.255  0.0842  0.2625 -0.0621
11349CHOL    R358009  22.406   7.574  13.346  0.0771  0.2102 -0.0441
11349CHOL    R458010  22.372   7.539  13.057  0.0906  0.3276 -0.0625
11349CHOL    R558011  22.313   7.712  13.175  0.0759  0.2767  0.0085
11349CHOL    C158012  21.975   7.613  13.028  0.0878  0.3164 -0.0459
11349CHOL    C258013  21.961   7.610  12.627 -0.1256  0.0812  0.2232
11350CHOL   ROH58014  16.523  16.997  17.978  0.0269 -0.1186 -0.0595
11350CHOL    R158015  16.310  16.925  17.806  0.0769 -0.2256 -0.0771
11350CHOL    R258016  16.111  17.103  17.734 -0.0188 -0.3326 -0.0743
11350CHOL    R358017  16.185  17.034  17.482  0.0340 -0.2722 -0.0767
11350CHOL    R458018  15.943  17.195  17.447  0.0912 -0.1841 -0.0923
11350CHOL    R558019  15.978  16.995  17.368  0.0527 -0.1711 -0.1490
11350CHOL    C158020  15.913  17.183  17.042  0.2044 -0.0410 -0.1048
11350CHOL    C258021  15.842  17.203  16.636 -0.1101 -0.0180 -0.1087
11351CHOL   ROH58022   4.451  21.470   7.191 -0.1986 -0.1418 -0.0349
11351CHOL    R158023   4.249  21.307   7.305 -0.0390 -0.2119  0.1499
11351CHOL    R258024   4.239  21.251   7.575  0.0731  0.0051  0.2012
11351CHOL    R358025   3.986  21.348   7.553 -0.0115 -0.2184  0.1797
11351CHOL    R458026   4.024  21.304   7.841  0.0984  0.0692  0.2089
11351CHOL    R558027   3.862  21.227   7.718  0.1288 -0.1719  0.3202
11351CHOL    C158028   3.661  21.426   7.974  0.0340 -0.1037  0.1934
11351CHOL    C258029   3.592  21.473   8.302 -0.1599  0.1788 -0.0112
11352CHOL   ROH58030   6.803   0.608  18.276  0.0977  0.1193  0.0954
11352CHOL    R158031   6.945   0.587  18.032  0.0058 -0.0226  0.0536
11352CHOL    R258032   6.945   0.788  17.842 -0.0170 -0.1081 -0.0369
11352CHOL    R358033   7.215   0.768  17.867 -0.0124 -0.1575 -0.1255
11352CHOL    R458034   7.166   0.766  17.577 -0.0983 -0.0230 -0.1122
11352CHOL    R558035   7.279   0.618  17.691 -0.0857 -0.0895 -0.2104
11352CHOL    C158036   7.548   0.735  17.446 -0.1413 -0.0199 -0.2385
11352CHOL    C258037   7.843   0.590  17.194 -0.0682  0.0041 -0.1459
11353CHOL   ROH58038   6.690  22.786  20.342  0.2119 -0.0741 -0.0374
11353CHOL    R158039   6.799  22.993  20.182  0.1459 -0.0942 -0.1095
11353CHOL    R258040   7.071  23.043  20.169  0.1241  0.0412 -0.0628
11353CHOL    R358041   7.030  23.016  19.902  0.2071 -0.1106 -0.0606
11353CHOL    R458042   7.277  23.173  19.924 -0.1103  0.4023 -0.0713
11353CHOL    R558043   7.099  23.227  19.810 -0.2105  0.0113 -0.1057
11353CHOL    C158044   7.359  23.224  19.531 -0.1689  0.4702 -0.0744
11353CHOL    C258045   7.694  23.391  19.337  0.0564  0.0043 -0.2343
11354CHOL   ROH58046  27.756  14.624   3.755  0.1709  0.1118 -0.0551
11354CHOL    R158047  27.698  14.419   3.568 -0.2279  0.1898 -0.0217
11354CHOL    R258048  27.490  14.436   3.388 -0.0052  0.7067 -0.2389
11354CHOL    R358049  27.686  14.386   3.206  0.0440  0.0705 -0.0208
11354CHOL    R458050  27.446  14.258   3.095 -0.2281  0.7399 -0.2265
11354CHOL    R558051  27.640  14.164   3.130 -0.5342  0.1743  0.0048
11354CHOL    C158052  27.605  14.107   2.754 -0.3112  0.1618 -0.0145
11354CHOL    C258053  27.540  14.073   2.481  0.0245  0.2898  0.0892
11355CHOL   ROH58054  15.707  21.023  16.353 -0.1066  0.0099  0.2820
11355CHOL    R158055  15.827  20.942  16.597 -0.2250 -0.0160  0.3325
11355CHOL    R258056  15.765  20.703  16.721  0.0198 -0.2266  0.0589
11355CHOL    R358057  16.034  20.665  16.710  0.0956  0.2045  0.2929
11355CHOL    R458058  15.948  20.521  16.951  0.0085 -0.4910 -0.1400
11355CHOL    R558059  16.105  20.672  16.939 -0.1987 -0.2211  0.4034
11355CHOL    C158060  16.307  20.378  17.074  0.0729 -0.2406 -0.0359
11355CHOL    C258061  16.358  20.437  17.468  0.1718 -0.1723 -0.1749
11356CHOL   ROH58062  20.540  25.182  16.262 -0.0540  0.2727  0.0111
11356CHOL    R158063  20.293  25.092  16.159  0.0271  0.1522 -0.0805
11356CHOL    R258064  20.076  25.035  16.320  0.0531 -0.1360 -0.1437
11356CHOL    R358065  19.948  25.210  16.156 -0.0661 -0.1162 -0.0301
11356CHOL    R458066  19.733  25.060  16.286  0.0275 -0.1215  0.1183
11356CHOL    R558067  19.761  25.087  16.072 -0.1343 -0.1013  0.0994
11356CHOL    C158068  19.413  25.239  16.112 -0.0992 -0.0945  0.3771
11356CHOL    C258069  18.945  25.284  16.070 -0.0303 -0.2677  0.0299
11357CHOL   ROH58070  26.410   3.014   6.927 -0.0491 -0.2788  0.0699
11357CHOL    R158071  26.446   3.166   7.162  0.0942 -0.0992 -0.0668
11357CHOL    R258072  26.333   3.095   7.404 -0.1509  0.3378 -0.0476
11357CHOL    R358073  26.589   3.113   7.492 -0.1607 -0.0131  0.0595
11357CHOL    R458074  26.427   3.113   7.736 -0.2602  0.1382 -0.0054
11357CHOL    R558075  26.577   3.260   7.681 -0.0467 -0.0409  0.0892
11357CHOL    C158076  26.722   3.139   8.013 -0.3333 -0.3074  0.1197
11357CHOL    C258077  26.782   2.760   8.217 -0.1011  0.1436 -0.3536
11358CHOL   ROH58078  26.078  14.813   4.377  0.2055  0.1096  0.0221
11358CHOL    R158079  25.939  14.732   4.145  0.0675  0.1258  0.0989
11358CHOL    R258080  25.896  14.900   3.930  0.1570  0.0650  0.0338
11358CHOL    R358081  26.013  14.699   3.790 -0.0613 -0.1046  0.0920
11358CHOL    R458082  25.790  14.788   3.621  0.0671  0.1298  0.0410
11358CHOL    R558083  25.829  14.584   3.687 -0.1862  0.0935  0.0887
11358CHOL    C158084  25.837  14.533   3.309 -0.1907  0.0081  0.0998
11358CHOL    C258085  25.956  14.288   2.944  0.1374 -0.0542  0.2178
11359CHOL   ROH58086   6.634  21.696  12.195  0.0512  0.1464  0.1363
11359CHOL    R158087   6.385  21.608  12.296  0.0843  0.2550  0.3151
11359CHOL    R258088   6.190  21.782  12.383 -0.0361  0.3673 -0.1650
11359CHOL    R358089   6.035  21.645  12.206  0.0783 -0.1783  0.1454
11359CHOL    R458090   5.844  21.781  12.384 -0.0383  0.4484 -0.4371
11359CHOL    R558091   5.850  21.567  12.337 -0.0437  0.2853  0.2578
11359CHOL    C158092   5.497  21.651  12.218  0.0677 -0.0170 -0.3042
11359CHOL    C258093   5.352  21.947  12.397 -0.1030 -0.2356  0.2504
11360CHOL   ROH58094  25.103   8.937   9.761 -0.2036 -0.3421 -0.0854
11360CHOL    R158095  24.879   8.946   9.588 -0.2434 -0.5036 -0.0434
11360CHOL    R258096  24.658   8.785   9.623 -0.3780 -0.2381  0.3595
11360CHOL    R358097  24.524   9.022   9.620 -0.1686 -0.1216 -0.0969
11360CHOL    R458098  24.314   8.819   9.632 -0.3458  0.0854  0.4487
11360CHOL    R558099  24.331   8.980   9.486 -0.2684 -0.2456  0.0847
11360CHOL    C158100  23.988   9.061   9.634 -0.1306  0.3833  0.0721
11360CHOL    C258101  23.583   8.992   9.704 -0.1391  0.3619  0.1672
11361CHOL   ROH58102  15.842  17.497  18.582  0.0340 -0.0727  0.0054
11361CHOL    R158103  15.725  17.700  18.423  0.1118 -0.0147  0.0216
11361CHOL    R258104  15.869  17.847  18.239  0.1474 -0.1232 -0.0366
11361CHOL    R358105  15.675  17.762  18.068  0.0413 -0.0186  0.0305
11361CHOL    R458106  15.769  18.016  17.954  0.2653 -0.1541 -0.0967
11361CHOL    R558107  15.563  17.963  18.001  0.2204  0.0601 -0.0412
11361CHOL    C158108  15.530  18.035  17.628  0.2342 -0.0740 -0.0690
11361CHOL    C258109  15.758  18.193  17.308  0.3089 -0.0120 -0.1148
11362CHOL   ROH58110  21.004  10.216  11.964 -0.2677  0.0727  0.0765
11362CHOL    R158111  21.238  10.150  12.108 -0.2121  0.1167  0.0060
11362CHOL    R258112  21.252  10.163  12.384 -0.1779 -0.0220  0.0108
11362CHOL    R358113  21.333   9.905  12.360 -0.0475  0.0315 -0.1371
11362CHOL    R458114  21.464  10.002  12.604 -0.1608 -0.0644 -0.0365
11362CHOL    R558115  21.561   9.907  12.434 -0.0679  0.0937 -0.0731
11362CHOL    C158116  21.663   9.666  12.710 -0.0284 -0.0389 -0.2029
11362CHOL    C258117  21.757   9.348  12.735  0.0774  0.2908 -0.0061
11363CHOL   ROH58118  32.842  19.195   4.294 -0.0178  0.0796 -0.0323
11363CHOL    R158119  32.975  19.129   4.053  0.0969  0.0820  0.0297
11363CHOL    R258120  32.861  19.172   3.805  0.1298 -0.1069 -0.0187
11363CHOL    R358121  33.092  19.308   3.759  0.0375  0.0514 -0.0125
11363CHOL    R458122  33.015  19.202   3.496  0.1801 -0.1007  0.0068
11363CHOL    R558123  33.207  19.177   3.595  0.1762  0.0805  0.0618
11363CHOL    C158124  33.320  19.349   3.273  0.1223  0.0516  0.0276
11363CHOL    C258125  33.407  19.408   2.926 -0.0943 -0.3888  0.2436
11364CHOL   ROH58126   7.040   3.557  14.405  0.1543 -0.0121  0.1839
11364CHOL    R158127   6.902   3.674  14.624  0.0957 -0.0743  0.1805
11364CHOL    R258128   6.699   3.858  14.590  0.2148  0.0592  0.1822
11364CHOL    R358129   6.559   3.684  14.745  0.0325  0.0367 -0.0068
11364CHOL    R458130   6.401   3.931  14.749  0.2825  0.1931  0.2486
11364CHOL    R558131   6.471   3.819  14.922  0.1635 -0.0622  0.1333
11364CHOL    C158132   6.095   3.810  14.986  0.1508  0.2500  0.1099
11364CHOL    C258133   6.177   4.097  15.234  0.4332  0.0417  0.0992
11365CHOL   ROH58134  24.362  28.413   5.780  0.1957  0.0788  0.0672
11365CHOL    R158135  24.278  28.304   6.027  0.3483  0.0122  0.0909
11365CHOL    R258136  24.454  28.246   6.232  0.4349  0.2807  0.0964
11365CHOL    R358137  24.287  28.404   6.377  0.2315  0.0903  0.0713
11365CHOL    R458138  24.444  28.259   6.577  0.1308  0.0256  0.0990
11365CHOL    R558139  24.227  28.269   6.566  0.1366 -0.0763 -0.0781
11365CHOL    C158140  24.282  28.414   6.914 -0.2371 -0.3015  0.0769
11365CHOL    C258141  24.160  28.437   7.297  0.0259 -0.2106  0.2580
11366CHOL   ROH58142  11.171   7.105  15.702  0.1348 -0.0169 -0.0904
11366CHOL    R158143  11.120   6.990  15.956  0.1902 -0.1600 -0.1439
11366CHOL    R258144  11.322   6.930  16.134  0.2010  0.0803 -0.0767
11366CHOL    R358145  11.174   7.084  16.303 -0.0923 -0.1782 -0.0933
11366CHOL    R458146  11.263   6.858  16.467  0.3060 -0.0200 -0.0795
11366CHOL    R558147  11.058   6.926  16.441  0.1796 -0.3892 -0.0984
11366CHOL    C158148  11.090   6.959  16.819  0.0920 -0.3211 -0.0969
11366CHOL    C258149  10.856   7.096  17.051 -0.2991  0.1077  0.2910
11367CHOL   ROH58150   8.657   5.797  14.701  0.2134 -0.1409  0.0159
11367CHOL    R158151   8.473   5.782  14.915  0.2081 -0.1531  0.0107
11367CHOL    R258152   8.547   5.820  15.178  0.1932 -0.1215  0.0108
11367CHOL    R358153   8.350   6.006  15.174  0.1649 -0.1521 -0.0110
11367CHOL    R458154   8.362   5.917  15.453  0.1768 -0.1183 -0.0014
11367CHOL    R558155   8.185   5.921  15.326  0.1772 -0.1596 -0.0024
11367CHOL    C158156   8.068   6.149  15.609  0.1404 -0.1451 -0.0292
11367CHOL    C258157   8.113   5.977  15.977 -0.1168 -0.3419  0.0826
11368CHOL   ROH58158  24.444  26.675   9.341  0.3192 -0.1815 -0.1867
11368CHOL    R158159  24.164  26.681   9.301  0.3071 -0.0601 -0.0866
11368CHOL    R258160  24.048  26.768   9.066  0.2604 -0.0111 -0.0457
11368CHOL    R358161  23.925  26.525   9.075  0.1585  0.0422 -0.0012
11368CHOL    R458162  23.768  26.682   8.882  0.2605  0.0521 -0.0756
11368CHOL    R558163  23.692  26.577   9.057  0.1835  0.1333 -0.0609
11368CHOL    C158164  23.490  26.405   8.783  0.1650  0.1393 -0.0510
11368CHOL    C258165  23.144  26.428   8.691 -0.1938 -0.0104  0.1561
11369CHOL   ROH58166   5.781  34.449  14.732 -0.1541 -0.2319 -0.1832
11369CHOL    R158167   5.633  34.403  14.969 -0.1652 -0.2041 -0.1847
11369CHOL    R258168   5.552  34.608  15.136  0.1490 -0.2136 -0.0176
11369CHOL    R358169   5.306  34.497  15.100 -0.0123  0.1457 -0.0459
11369CHOL    R458170   5.306  34.588  15.378  0.2150 -0.1503  0.0547
11369CHOL    R558171   5.259  34.387  15.308 -0.0751 -0.0168 -0.1443
11369CHOL    C158172   4.932  34.473  15.485  0.1019  0.2230  0.0701
11369CHOL    C258173   4.908  34.370  15.850 -0.0499  0.1232  0.0811
11370CHOL   ROH58174   8.899  10.812  14.359  0.1827  0.0283  0.0865
11370CHOL    R158175   8.890  10.880  14.633  0.0413  0.0254  0.0829
11370CHOL    R258176   8.695  11.045  14.739 -0.1010 -0.0956  0.0117
11370CHOL    R358177   8.656  10.836  14.909 -0.0307 -0.1190 -0.0005
11370CHOL    R458178   8.555  11.070  15.054  0.1523 -0.1180  0.1277
11370CHOL    R558179   8.702  10.926  15.126  0.1664 -0.1771 -0.0174
11370CHOL    C158180   8.436  10.888  15.397  0.3661 -0.1527  0.1837
11370CHOL    C258181   8.480  10.816  15.852  0.2551 -0.1835 -0.1961
11371CHOL   ROH58182  10.952   6.367  18.472 -0.0465 -0.0346  0.0232
11371CHOL    R158183  10.869   6.307  18.208 -0.1188 -0.0350  0.0462
11371CHOL    R258184  10.603   6.287  18.137 -0.1405  0.0997  0.0896
11371CHOL    R358185  10.673   6.471  17.949 -0.0672  0.0284  0.0464
11371CHOL    R458186  10.453   6.321  17.827 -0.1677  0.1251  0.1055
11371CHOL    R558187  10.650   6.355  17.741 -0.1601  0.0025  0.0706
11371CHOL    C158188  10.431   6.513  17.471 -0.1144  0.0729  0.0741
11371CHOL    C258189  10.224   6.168  17.398 -0.1609  0.0179  0.1350
11372CHOL   ROH58190  23.626  25.935   4.773 -0.1101 -0.1733 -0.0354
11372CHOL    R158191  23.564  25.987   5.045 -0.0439 -0.2619 -0.0033
11372CHOL    R258192  23.656  25.828   5.251  0.2434 -0.1668 -0.0554
11372CHOL    R358193  23.751  26.063   5.348  0.0103 -0.0585 -0.0870
11372CHOL    R458194  23.805  25.869   5.560  0.0820  0.0500 -0.0046
11372CHOL    R558195  23.698  26.057   5.581 -0.0824 -0.0303 -0.1068
11372CHOL    C158196  23.982  26.113   5.831 -0.2312  0.2780 -0.0047
11372CHOL    C258197  24.179  26.150   6.108 -0.0849 -0.0402 -0.1439
11373CHOL   ROH58198  24.902  35.287  10.697 -0.1717  0.1192 -0.0027
11373CHOL    R158199  24.752  35.375  10.474 -0.1444  0.0515 -0.0475
11373CHOL    R258200  24.867   0.121  10.260 -0.1253  0.0193 -0.0554
11373CHOL    R358201  24.747  35.309  10.116 -0.0756 -0.0264 -0.0346
11373CHOL    R458202  24.727   0.162   9.946  0.1549 -0.1227 -0.2005
11373CHOL    R558203  24.563   0.033  10.008  0.0546 -0.0247 -0.2579
11373CHOL    C158204  24.533   0.001   9.629  0.3641 -0.2481 -0.2653
11373CHOL    C258205  24.566   0.045   9.207  0.1188 -0.1279  0.0131
11374CHOL   ROH58206  13.535  10.782  18.414  0.0235  0.0618 -0.1739
11374CHOL    R158207  13.548  10.703  18.143  0.0018  0.0578 -0.1738
11374CHOL    R258208  13.425  10.845  17.940 -0.0250  0.0484 -0.1650
11374CHOL    R358209  13.675  10.843  17.832 -0.0348  0.0596 -0.1879
11374CHOL    R458210  13.499  10.927  17.613 -0.0575  0.0525 -0.1713
11374CHOL    R558211  13.641  10.763  17.609 -0.0508  0.0591 -0.1850
11374CHOL    C158212  13.775  10.973  17.320 -0.0854  0.0656 -0.1962
11374CHOL    C258213  13.732  10.911  16.984  0.0177 -0.1345  0.1969
11375CHOL   ROH58214   7.935  23.732  17.000 -0.2000 -0.0088 -0.1820
11375CHOL    R158215   7.737  23.750  17.202 -0.0502  0.0244 -0.0359
11375CHOL    R258216   7.502  23.890  17.168 -0.0063  0.1585  0.1779
11375CHOL    R358217   7.388  23.654  17.239 -0.0734  0.1906  0.1743
11375CHOL    R458218   7.199  23.858  17.331 -0.0483  0.2335  0.1133
11375CHOL    R558219   7.286  23.698  17.451 -0.1113  0.2283  0.1450
11375CHOL    C158220   6.915  23.617  17.492 -0.1358  0.3071  0.0728
11375CHOL    C258221   6.923  23.798  17.850  0.1406 -0.1259 -0.1703
11376CHOL   ROH58222  19.549  33.310   9.261 -0.0397  0.0562 -0.0003
11376CHOL    R158223  19.758  33.223   9.431  0.0395  0.1514 -0.0481
11376CHOL    R258224  19.839  33.366   9.653 -0.0403  0.1402 -0.0117
11376CHOL    R358225  19.793  33.131   9.781  0.1389  0.0679 -0.0795
11376CHOL    R458226  19.998  33.265   9.943 -0.0675  0.2434  0.0393
11376CHOL    R558227  20.008  33.064   9.861  0.1730  0.2693  0.0031
11376CHOL    C158228  20.047  32.985  10.232  0.0852  0.2347  0.0053
11376CHOL    C258229  20.097  33.236  10.456 -0.0793 -0.0134 -0.2436
11377CHOL   ROH58230  33.084  32.729  11.770 -0.0222 -0.1775 -0.0125
11377CHOL    R158231  33.227  32.935  11.639 -0.1541 -0.0675  0.0131
11377CHOL    R258232  33.496  32.913  11.579 -0.1262  0.1360  0.0605
11377CHOL    R358233  33.412  32.971  11.327 -0.1257  0.0718  0.0459
11377CHOL    R458234  33.699  33.032  11.326 -0.1213  0.0412  0.0202
11377CHOL    R558235  33.537  33.166  11.266 -0.1080  0.0404 -0.0145
11377CHOL    C158236  33.738  33.155  10.941 -0.1178 -0.0742 -0.0168
11377CHOL    C258237  33.965  33.288  10.714  0.0899  0.0463  0.2257
11378CHOL   ROH58238  33.703   3.199  11.595  0.0641 -0.2041  0.0554
11378CHOL    R158239  33.766   3.312  11.343  0.0694 -0.1471  0.0824
11378CHOL    R258240  34.000   3.255  11.208 -0.0044 -0.2488 -0.0035
11378CHOL    R358241  33.830   3.189  11.006 -0.1039 -0.0596  0.0163
11378CHOL    R458242  34.096   3.192  10.882 -0.1762  0.1649 -0.1373
11378CHOL    R558243  33.920   3.301  10.815 -0.2495  0.1947  0.0946
11378CHOL    C158244  33.993   3.094  10.503 -0.3702  0.5834 -0.1968
11378CHOL    C258245  34.277   3.270  10.362  0.2642 -0.4230  0.3514
11379CHOL   ROH58246  17.657   7.686  16.933 -0.2264 -0.1402 -0.1406
11379CHOL    R158247  17.634   7.839  16.695 -0.2319 -0.1736 -0.1616
11379CHOL    R258248  17.852   7.903  16.539 -0.1979  0.0384 -0.0288
11379CHOL    R358249  17.704   7.789  16.342  0.0389 -0.1209 -0.1165
11379CHOL    R458250  17.783   8.050  16.234 -0.3235  0.0397  0.0002
11379CHOL    R558251  17.580   7.971  16.247 -0.2096 -0.2756 -0.0923
11379CHOL    C158252  17.603   8.028  15.871 -0.1750 -0.1093 -0.0653
11379CHOL    C258253  17.693   8.022  15.439 -0.2577  0.0429  0.2393
11380CHOL   ROH58254   4.939  21.576  16.699  0.0907 -0.1784  0.1547
11380CHOL    R158255   5.215  21.558  16.642  0.1009 -0.1205  0.1865
11380CHOL    R258256   5.347  21.744  16.486  0.0362 -0.2060  0.0287
11380CHOL    R358257   5.511  21.761  16.702  0.0180  0.0498  0.0243
11380CHOL    R458258   5.670  21.868  16.480 -0.0157 -0.0732 -0.0593
11380CHOL    R558259   5.729  21.708  16.616  0.0454  0.0683  0.0816
11380CHOL    C158260   6.012  21.955  16.679 -0.0630  0.2443 -0.1148
11380CHOL    C258261   6.365  21.825  16.881 -0.1012  0.2104  0.1243
11381CHOL   ROH58262  17.051   8.692  14.012  0.2404  0.1470 -0.0600
11381CHOL    R158263  17.084   8.831  14.257  0.0633 -0.0324  0.0670
11381CHOL    R258264  16.943   8.765  14.485  0.0447 -0.3313 -0.0283
11381CHOL    R358265  17.191   8.749  14.595  0.0249 -0.2357  0.0307
11381CHOL    R458266  17.009   8.778  14.824 -0.0256 -0.1438 -0.0209
11381CHOL    R558267  17.184   8.902  14.780 -0.0355 -0.1401 -0.0501
11381CHOL    C158268  17.281   8.770  15.124 -0.0841  0.0549  0.0388
11381CHOL    C258269  17.322   8.889  15.478 -0.0300  0.1313  0.0927
11382CHOL   ROH58270  13.084  12.215  14.958 -0.1121  0.2328 -0.1074
11382CHOL    R158271  13.160  12.291  15.220 -0.0515  0.1451 -0.0996
11382CHOL    R258272  12.984  12.406  15.398  0.0015  0.1265 -0.0350
11382CHOL    R358273  13.063  12.202  15.559 -0.0064  0.0665 -0.1073
11382CHOL    R458274  13.009  12.424  15.743  0.0069  0.0048 -0.0291
11382CHOL    R558275  13.193  12.308  15.731  0.0008  0.0003 -0.0719
11382CHOL    C158276  13.098  12.243  16.094  0.0026 -0.1224 -0.0932
11382CHOL    C258277  13.075  11.963  16.415  0.0456 -0.3815 -0.1805
11383CHOL   ROH58278  34.522  21.090   6.545 -0.0668  0.0084 -0.0354
11383CHOL    R158279  34.658  21.111   6.297 -0.0217  0.0402 -0.0080
11383CHOL    R258280  34.533  21.194   6.066  0.0179  0.0584 -0.0225
11383CHOL    R358281  34.736  21.376   6.060  0.0112  0.0682  0.0337
11383CHOL    R458282  34.664  21.335   5.778  0.0210  0.1427  0.0200
11383CHOL    R558283  34.863  21.317   5.865  0.0187  0.1266  0.0209
11383CHOL    C158284  34.929  21.588   5.605  0.0164  0.2011  0.0976
11383CHOL    C258285  35.229  21.561   5.425 -0.1065 -0.0764  0.3545
11384CHOL   ROH58286  29.721  23.224   4.599 -0.0319  0.2842  0.0569
11384CHOL    R158287  29.599  23.308   4.358  0.0311  0.1205 -0.0328
11384CHOL    R258288  29.545  23.573   4.303 -0.0495  0.0731 -0.1824
11384CHOL    R358289  29.688  23.522   4.077  0.0598  0.0190 -0.1021
11384CHOL    R458290  29.598  23.800   4.048 -0.1751 -0.0784 -0.3451
11384CHOL    R558291  29.569  23.638   3.904  0.0061 -0.2186 -0.2281
11384CHOL    C158292  29.763  23.884   3.687 -0.1456 -0.2180 -0.3645
11384CHOL    C258293  29.458  24.100   3.579  0.2602 -0.0738 -0.0759
11385CHOL   ROH58294  33.609  21.494   1.650  0.2430  0.1713  0.0396
11385CHOL    R158295  33.433  21.360   1.826  0.0191  0.2705 -0.1070
11385CHOL    R258296  33.521  21.223   2.050 -0.2128 -0.0415 -0.2032
11385CHOL    R358297  33.341  21.382   2.178 -0.0157  0.1055 -0.1048
11385CHOL    R458298  33.399  21.167   2.368 -0.3788 -0.1600 -0.2864
11385CHOL    R558299  33.202  21.229   2.299 -0.2731  0.1932 -0.2834
11385CHOL    C158300  33.160  21.284   2.674 -0.2906 -0.0917 -0.2426
11385CHOL    C258301  32.797  21.363   2.828 -0.2006  0.1453 -0.0522
11386CHOL   ROH58302  29.114  27.072   7.595 -0.0478 -0.0190 -0.0416
11386CHOL    R158303  29.132  27.271   7.395 -0.0521 -0.1036 -0.1270
11386CHOL    R258304  29.374  27.364   7.300 -0.0523 -0.0123 -0.0392
11386CHOL    R358305  29.268  27.297   7.059  0.1171 -0.1877 -0.0655
11386CHOL    R458306  29.483  27.486   6.995 -0.2079  0.2089 -0.0080
11386CHOL    R558307  29.275  27.500   6.932 -0.2235 -0.1625 -0.0490
11386CHOL    C158308  29.448  27.493   6.591 -0.1391  0.1731 -0.0144
11386CHOL    C258309  29.407  27.209   6.279  0.0780  0.0035 -0.2903
11387CHOL   ROH58310  10.449  12.263  17.626 -0.1507  0.0063  0.0167
11387CHOL    R158311  10.442  12.170  17.359 -0.0116 -0.0311  0.0257
11387CHOL    R258312  10.281  12.285  17.166 -0.0319 -0.1611 -0.0343
11387CHOL    R358313  10.516  12.306  17.030 -0.0064 -0.0226  0.0300
11387CHOL    R458314  10.309  12.297  16.821  0.0710 -0.4002 -0.0351
11387CHOL    R558315  10.485  12.168  16.836  0.2020 -0.2073  0.1259
11387CHOL    C158316  10.546  12.323  16.493  0.1549 -0.4094  0.0246
11387CHOL    C258317  10.381  12.333  16.123 -0.0445 -0.0634 -0.2402
11388CHOL   ROH58318   3.688  22.006  14.055 -0.0105 -0.0545  0.0432
11388CHOL    R158319   3.909  22.013  13.878 -0.0590  0.0008 -0.0156
11388CHOL    R258320   4.089  22.222  13.874  0.0092 -0.0562  0.0874
11388CHOL    R358321   4.272  22.024  13.910 -0.0456 -0.1442 -0.1117
11388CHOL    R458322   4.427  22.249  13.803  0.0815  0.0505  0.4633
11388CHOL    R558323   4.421  22.046  13.724  0.1372  0.1974  0.0702
11388CHOL    C158324   4.794  22.078  13.796  0.0724  0.0300  0.4955
11388CHOL    C258325   5.078  22.210  13.681 -0.1168 -0.0402 -0.0537
11389CHOL   ROH58326  15.441  15.108  17.954  0.1147 -0.2535  0.0592
11389CHOL    R158327  15.447  15.174  17.679  0.0714 -0.2898  0.0494
11389CHOL    R258328  15.281  15.055  17.493 -0.1155 -0.1535  0.1254
11389CHOL    R358329  15.215  15.312  17.435  0.1064 -0.0962  0.1251
11389CHOL    R458330  15.221  15.175  17.175  0.2926 -0.0244  0.0940
11389CHOL    R558331  15.329  15.357  17.229  0.3494 -0.1080  0.2571
11389CHOL    C158332  15.124  15.487  16.935  0.7384  0.1048  0.0764
11389CHOL    C258333  15.132  15.629  16.628 -0.1272 -0.1462 -0.4288
11390CHOL   ROH58334  24.341  30.655   6.349 -0.1158 -0.0601 -0.0760
11390CHOL    R158335  24.308  30.644   6.630 -0.1060 -0.1486 -0.0780
11390CHOL    R258336  24.194  30.849   6.775  0.0030 -0.1447  0.0059
11390CHOL    R358337  24.029  30.651   6.864 -0.0898 -0.0974 -0.0611
11390CHOL    R458338  24.082  30.816   7.101  0.1724 -0.3349  0.0456
11390CHOL    R558339  24.111  30.601   7.084  0.0032 -0.3412 -0.1513
11390CHOL    C158340  23.863  30.612   7.374  0.1843 -0.4017  0.0059
11390CHOL    C258341  23.631  30.622   7.730 -0.1999 -0.1931 -0.3839
11391CHOL   ROH58342  29.821  10.883   4.912  0.0302 -0.2204  0.0797
11391CHOL    R158343  29.820  10.809   4.639  0.1299 -0.0937  0.0441
11391CHOL    R258344  29.959  10.590   4.544  0.0089 -0.1643  0.0248
11391CHOL    R358345  29.716  10.520   4.444  0.0089  0.0797 -0.1492
11391CHOL    R458346  29.910  10.410   4.253  0.0294 -0.0457 -0.0522
11391CHOL    R558347  29.742  10.540   4.206  0.1772  0.1174 -0.1270
11391CHOL    C158348  29.654  10.239   3.990  0.0408  0.2523 -0.2605
11391CHOL    C258349  29.525  10.193   3.646 -0.0223  0.0418  0.0305
11392CHOL   ROH58350   1.422  11.946  10.911 -0.3140 -0.0936 -0.0600
11392CHOL    R158351   1.551  11.809  10.701 -0.2527  0.1203 -0.1629
11392CHOL    R258352   1.654  11.939  10.479 -0.0336  0.3664  0.0791
11392CHOL    R358353   1.882  11.809  10.549 -0.1522  0.1428  0.0556
11392CHOL    R458354   1.948  11.945  10.298 -0.0532  0.0534  0.0340
11392CHOL    R558355   1.974  11.733  10.341 -0.2596  0.0315  0.0493
11392CHOL    C158356   2.334  11.827  10.258 -0.1761 -0.3388 -0.0141
11392CHOL    C258357   2.631  12.025  10.096 -0.1594 -0.0882  0.2168
11393CHOL   ROH58358   8.687   4.687  15.012  0.1379  0.0970  0.2452
11393CHOL    R158359   8.546   4.842  15.203  0.0915  0.0601  0.2409
11393CHOL    R258360   8.290   4.778  15.287  0.0527  0.0708  0.1306
11393CHOL    R358361   8.404   4.789  15.534 -0.0344 -0.0182  0.1746
11393CHOL    R458362   8.128   4.881  15.574 -0.0322  0.0224  0.1003
11393CHOL    R558363   8.310   4.986  15.633 -0.0335 -0.0279  0.1948
11393CHOL    C158364   8.140   4.951  15.973 -0.1630 -0.0894  0.1241
11393CHOL    C258365   7.855   5.118  15.965 -0.1895 -0.0978 -0.0169
11394CHOL   ROH58366  17.072  26.863  14.007 -0.0481 -0.1750  0.0780
11394CHOL    R158367  17.342  26.866  14.090 -0.0357 -0.1698  0.0360
11394CHOL    R258368  17.485  27.100  14.122 -0.0290 -0.1699 -0.0098
11394CHOL    R358369  17.531  26.999  14.370  0.0103 -0.1445 -0.0065
11394CHOL    R458370  17.701  27.237  14.354  0.1352 -0.2378 -0.1211
11394CHOL    R558371  17.765  27.036  14.407  0.0460 -0.2636 -0.1041
11394CHOL    C158372  17.871  27.223  14.722  0.2677 -0.2542 -0.1825
11394CHOL    C258373  18.089  27.256  14.875 -0.0632  0.1897  0.1863
11395CHOL   ROH58374  17.945  12.290  17.395  0.0086  0.2111  0.1138
11395CHOL    R158375  17.850  12.371  17.141 -0.0387  0.1333  0.1068
11395CHOL    R258376  17.767  12.191  16.949  0.1020  0.0663  0.1089
11395CHOL    R358377  17.540  12.340  16.953 -0.0083 -0.0986  0.0927
11395CHOL    R458378  17.585  12.281  16.669  0.1242  0.0377  0.0845
11395CHOL    R558379  17.556  12.478  16.758 -0.0462 -0.0151  0.1482
11395CHOL    C158380  17.266  12.474  16.510  0.0345 -0.1339  0.0554
11395CHOL    C258381  17.129  12.255  16.332  0.1130 -0.3251 -0.0596
11396CHOL   ROH58382  19.108  29.374  15.044 -0.0779  0.0562 -0.1230
11396CHOL    R158383  18.836  29.333  14.975 -0.1045 -0.1322  0.0887
11396CHOL    R258384  18.736  29.390  14.724 -0.4396  0.2407  0.2998
11396CHOL    R358385  18.652  29.132  14.734 -0.1177  0.1140 -0.1084
11396CHOL    R458386  18.455  29.267  14.564 -0.4740  0.2180  0.3775
11396CHOL    R558387  18.413  29.148  14.741 -0.1318 -0.1835  0.1952
11396CHOL    C158388  18.213  28.954  14.480 -0.1921  0.0858  0.0394
11396CHOL    C258389  18.174  28.810  14.157  0.1855  0.2334  0.1394
11397CHOL   ROH58390  26.044   6.999   9.038  0.1042  0.2357 -0.0959
11397CHOL    R158391  25.925   7.014   8.782 -0.1986  0.2591  0.0438
11397CHOL    R258392  25.904   6.795   8.615  0.0599  0.3798 -0.1503
11397CHOL    R358393  25.640   6.863   8.613 -0.0828 -0.1376  0.1979
11397CHOL    R458394  25.675   6.691   8.377  0.1045  0.4805 -0.2383
11397CHOL    R558395  25.588   6.891   8.381 -0.2966  0.3088  0.2954
11397CHOL    C158396  25.294   6.694   8.238 -0.0031  0.0535  0.0374
11397CHOL    C258397  24.864   6.595   8.075 -0.1229 -0.0981 -0.3280
11398CHOL   ROH58398  29.572  33.930   9.972  0.2698 -0.0073  0.1013
11398CHOL    R158399  29.745  33.816   9.779  0.0843 -0.1453  0.0139
11398CHOL    R258400  29.652  33.685   9.554 -0.1352  0.1594 -0.0780
11398CHOL    R358401  29.812  33.863   9.424  0.1411  0.0033  0.0438
11398CHOL    R458402  29.725  33.675   9.217  0.1493  0.0683 -0.0155
11398CHOL    R558403  29.930  33.730   9.264  0.1593 -0.1160  0.1570
11398CHOL    C158404  29.916  33.835   8.897  0.5741 -0.1309  0.1352
11398CHOL    C258405  30.048  34.213   8.676 -0.2242  0.1195 -0.2770
11399CHOL   ROH58406  16.948  18.599  16.646  0.0376  0.0610 -0.2550
11399CHOL    R158407  16.899  18.356  16.510  0.0378 -0.0246 -0.1028
11399CHOL    R258408  17.090  18.232  16.353 -0.0246 -0.0219 -0.1813
11399CHOL    R358409  17.037  18.019  16.513  0.1773  0.0324 -0.0392
11399CHOL    R458410  17.146  17.902  16.267 -0.1770 -0.0536 -0.1587
11399CHOL    R558411  16.956  17.850  16.363 -0.0507 -0.0065  0.1228
11399CHOL    C158412  17.128  17.509  16.367 -0.0763 -0.0215 -0.0119
11399CHOL    C258413  17.233  17.204  16.240 -0.2110 -0.0780 -0.2990
11400CHOL   ROH58414  12.605   4.565  18.076  0.1901  0.0829  0.0318
11400CHOL    R158415  12.612   4.572  17.793  0.2186  0.2178  0.0355
11400CHOL    R258416  12.725   4.781  17.652  0.4344  0.1787  0.1492
11400CHOL    R358417  12.868   4.582  17.535  0.2490  0.0961  0.0608
11400CHOL    R458418  12.909   4.815  17.362  0.4467  0.1291  0.1509
11400CHOL    R558419  12.839   4.619  17.300  0.2661  0.2158  0.0767
11400CHOL    C158420  13.151   4.648  17.083  0.2800  0.0228  0.0690
11400CHOL    C258421  12.989   4.693  16.692 -0.3200 -0.0509 -0.0223
11401CHOL   ROH58422   1.411  27.064   8.575  0.0369  0.0398 -0.0857
11401CHOL    R158423   1.332  26.849   8.742  0.0145 -0.0717 -0.2395
11401CHOL    R258424   1.229  26.887   8.995  0.3203 -0.2539 -0.0830
11401CHOL    R358425   1.024  26.736   8.899  0.0749  0.0439 -0.0365
11401CHOL    R458426   1.043  26.665   9.183  0.3042 -0.2827 -0.1328
11401CHOL    R558427   1.046  26.527   9.014 -0.0032 -0.1030 -0.2877
11401CHOL    C158428   0.742  26.393   9.202  0.0646 -0.0200 -0.1185
11401CHOL    C258429   0.714  26.182   9.574  0.0913  0.0378 -0.1718
11402CHOL   ROH58430   7.202   6.599  13.859  0.0231 -0.1825 -0.0901
11402CHOL    R158431   6.972   6.453  13.938 -0.0580  0.0064  0.0248
11402CHOL    R258432   6.987   6.199  14.045 -0.2149 -0.0133 -0.0025
11402CHOL    R358433   6.843   6.310  14.247 -0.0112  0.0939  0.0852
11402CHOL    R458434   6.815   6.021  14.287 -0.2489  0.1119  0.0662
11402CHOL    R558435   6.653   6.166  14.272 -0.1287  0.2595  0.1666
11402CHOL    C158436   6.581   6.022  14.618 -0.0775  0.2855  0.1886
11402CHOL    C258437   6.149   5.978  14.696  0.0044  0.0519 -0.2358
11403CHOL   ROH58438   2.613  23.195  12.588 -0.0102  0.0980  0.2209
11403CHOL    R158439   2.809  23.370  12.693  0.0164  0.0628  0.2307
11403CHOL    R258440   3.046  23.279  12.803  0.0285  0.0233  0.1736
11403CHOL    R358441   3.158  23.449  12.622  0.0101  0.0580  0.1949
11403CHOL    R458442   3.381  23.364  12.793  0.0163  0.0740  0.1935
11403CHOL    R558443   3.322  23.569  12.748 -0.0121  0.0696  0.2119
11403CHOL    C158444   3.681  23.573  12.617 -0.0081  0.1360  0.2247
11403CHOL    C258445   4.029  23.526  12.614 -0.0869 -0.0680 -0.0550
11404CHOL   ROH58446   0.231  12.738   2.799  0.0731  0.1521 -0.0837
11404CHOL    R158447   0.161  12.744   3.073  0.0853  0.2892 -0.0833
11404CHOL    R258448  35.318  12.868   3.165 -0.0229  0.1484 -0.1622
11404CHOL    R358449  35.269  12.626   3.278  0.2054  0.1852  0.0213
11404CHOL    R458450  35.105  12.814   3.432 -0.1781  0.1175 -0.2911
11404CHOL    R558451  35.250  12.672   3.512 -0.0530  0.3814 -0.0349
11404CHOL    C158452  34.935  12.555   3.694 -0.0543  0.1340 -0.1939
11404CHOL    C258453  34.741  12.353   4.031 -0.2034  0.0229  0.2682
11405CHOL   ROH58454  29.201   4.379   5.500 -0.0302  0.0152  0.2522
11405CHOL    R158455  29.232   4.604   5.668 -0.1743  0.0494  0.2338
11405CHOL    R258456  29.205   4.863   5.577 -0.2764  0.0257  0.1988
11405CHOL    R358457  29.025   4.882   5.780 -0.3306 -0.0355  0.1571
11405CHOL    R458458  29.124   5.156   5.743 -0.4225  0.0004  0.1733
11405CHOL    R558459  29.121   5.043   5.929 -0.4238  0.0037  0.1755
11405CHOL    C158460  28.908   5.343   6.030 -0.5579 -0.0717  0.1192
11405CHOL    C258461  29.135   5.616   6.149 -0.1467  0.2091  0.1507
11406CHOL   ROH58462   7.677  26.013  20.579  0.1743  0.1336  0.0044
11406CHOL    R158463   7.636  25.994  20.300  0.0040  0.1827  0.0256
11406CHOL    R258464   7.635  26.216  20.135  0.3076  0.1750  0.0122
11406CHOL    R358465   7.825  26.076  20.000  0.0002 -0.1665 -0.0745
11406CHOL    R458466   7.737  26.284  19.812  0.4078  0.1091  0.0296
11406CHOL    R558467   7.744  26.069  19.774 -0.0481  0.1053 -0.0681
11406CHOL    C158468   7.974  26.192  19.496  0.1775 -0.2503 -0.0419
11406CHOL    C258469   7.973  26.418  19.198  0.0634 -0.1480 -0.3753
11407CHOL   ROH58470  22.536   6.636  14.342  0.1126  0.0693 -0.0202
11407CHOL    R158471  22.362   6.581  14.126 -0.0734  0.0184  0.1415
11407CHOL    R258472  22.088   6.566  14.156 -0.0721  0.3310  0.3218
11407CHOL    R358473  22.089   6.751  13.956 -0.0001  0.1204  0.1253
11407CHOL    R458474  21.832   6.612  13.928 -0.0336  0.1574  0.2429
11407CHOL    R558475  21.983   6.640  13.772 -0.0080 -0.0468  0.2294
11407CHOL    C158476  21.685   6.812  13.607  0.0565 -0.1415  0.0124
11407CHOL    C258477  21.536   6.606  13.260 -0.1570 -0.1535 -0.0635
11408CHOL   ROH58478  25.233  10.728   7.987  0.2065 -0.0394  0.0892
11408CHOL    R158479  25.076  10.631   7.772  0.1982  0.1663  0.0014
11408CHOL    R258480  24.898  10.421   7.800  0.2313  0.1115 -0.2019
11408CHOL    R358481  24.722  10.600   7.696  0.1944  0.1972  0.0038
11408CHOL    R458482  24.591  10.339   7.666  0.1635  0.2226 -0.1152
11408CHOL    R558483  24.626  10.485   7.508  0.0998  0.3309 -0.0321
11408CHOL    C158484  24.245  10.458   7.490  0.0890  0.3675  0.1282
11408CHOL    C258485  24.113  10.543   7.147 -0.0226  0.0702  0.0943
11409CHOL   ROH58486   4.914  17.786  16.141  0.0920 -0.2211  0.0239
11409CHOL    R158487   5.154  17.920  16.073  0.0301 -0.1211  0.0021
11409CHOL    R258488   5.403  17.828  16.149  0.0729  0.0149  0.0308
11409CHOL    R358489   5.454  17.845  15.882  0.0726 -0.0193  0.0289
11409CHOL    R458490   5.719  17.830  16.008  0.0715 -0.0313  0.0277
11409CHOL    R558491   5.650  17.982  15.868  0.0855 -0.0406  0.0116
11409CHOL    C158492   5.951  17.846  15.676  0.0704 -0.0903  0.0237
11409CHOL    C258493   6.198  18.079  15.824  0.0474  0.0720 -0.1924
11410CHOL   ROH58494  11.608   5.185  18.297  0.0915 -0.1086 -0.1127
11410CHOL    R158495  11.495   5.396  18.146  0.0858 -0.0584 -0.0385
11410CHOL    R258496  11.565   5.445  17.884  0.0457  0.0033 -0.0375
11410CHOL    R358497  11.297   5.427  17.842  0.0368  0.0399  0.0035
11410CHOL    R458498  11.403   5.543  17.595  0.0128  0.0402 -0.0067
11410CHOL    R558499  11.243   5.625  17.718  0.0423  0.0538  0.0231
11410CHOL    C158500  11.056   5.583  17.388 -0.0148  0.0961  0.0500
11410CHOL    C258501  10.858   5.632  17.120  0.0492  0.0425 -0.1425
11411CHOL   ROH58502  32.615  24.693   6.769  0.0462  0.1390  0.1539
11411CHOL    R158503  32.869  24.814   6.734  0.0732  0.0282 -0.0379
11411CHOL    R258504  32.994  24.827   6.488 -0.1927  0.1405 -0.1694
11411CHOL    R358505  33.004  25.093   6.543  0.0111  0.0954  0.0165
11411CHOL    R458506  33.167  25.060   6.301 -0.2048  0.1728 -0.1405
11411CHOL    R558507  33.228  25.156   6.487  0.0038  0.0017 -0.1194
11411CHOL    C158508  33.277  25.446   6.244 -0.0215  0.1496  0.0508
11411CHOL    C258509  33.502  25.768   6.184  0.0717 -0.3276  0.0498
11412DPPC   NC358510   0.744  12.929   2.834  0.0061  0.0971 -0.1385
11412DPPC   PO458511   0.417  13.112   2.464 -0.0921 -0.2568  0.0802
11412DPPC   GL158512   0.103  13.197   2.808 -0.0484 -0.1800 -0.0702
11412DPPC   GL258513  35.175  13.161   2.704  0.1713  0.0141 -0.0974
11412DPPC   C1A58514  35.375  13.343   3.185  0.1025 -0.0116  0.0027
11412DPPC   C2A58515  35.069  13.452   3.413 -0.0146  0.0669  0.3780
11412DPPC   C3A58516  35.177  13.704   3.584 -0.1573  0.1787  0.2565
11412DPPC   C4A58517  35.041  14.075   3.728  0.1172 -0.1409  0.2280
11412DPPC   C1B58518  34.818  13.264   3.076 -0.0448  0.4910 -0.1262
11412DPPC   C2B58519  34.529  13.455   3.323  0.1212 -0.1322 -0.1397
11412DPPC   C3B58520  34.211  13.545   3.446  0.0703 -0.0843  0.0916
11412DPPC   C4B58521  33.867  13.482   3.367  0.0714  0.2560  0.0374
11413DPPC   NC358522  22.470   5.653   7.113 -0.1515  0.1624 -0.0023
11413DPPC   PO458523  22.682   5.823   7.492 -0.0804  0.2994  0.1565
11413DPPC   GL158524  22.909   5.875   7.887  0.1413 -0.1185  0.1455
11413DPPC   GL258525  23.100   5.601   8.065 -0.0787 -0.1381 -0.1725
11413DPPC   C1A58526  23.196   6.077   8.218 -0.0895 -0.2238  0.0780
11413DPPC   C2A58527  23.329   6.504   8.253  0.0544 -0.0354  0.0560
11413DPPC   C3A58528  23.794   6.572   8.420  0.0496 -0.1938 -0.0998
11413DPPC   C4A58529  24.090   6.328   8.503  0.0250  0.0514  0.1590
11413DPPC   C1B58530  23.259   5.713   8.543 -0.3626  0.0788  0.0869
11413DPPC   C2B58531  23.434   5.730   8.946  0.1874  0.0126 -0.0551
11413DPPC   C3B58532  23.701   6.098   9.245 -0.1257  0.2748 -0.3579
11413DPPC   C4B58533  24.005   6.201   9.418  0.3083  0.0817  0.3611
11414DPPC   NC358534  24.263  29.273   5.210 -0.0555  0.0625 -0.2032
11414DPPC   PO458535  24.446  29.663   5.184 -0.0263 -0.0379 -0.0815
11414DPPC   GL158536  24.441  29.635   5.577 -0.1224  0.1216  0.1676
11414DPPC   GL258537  24.733  29.551   5.744 -0.0381 -0.3309 -0.1468
11414DPPC   C1A58538  24.326  29.621   6.014 -0.0454  0.3057 -0.5307
11414DPPC   C2A58539  24.182  29.642   6.422 -0.0287 -0.3706  0.0182
11414DPPC   C3A58540  24.163  29.660   6.840 -0.2943 -0.1568 -0.0949
11414DPPC   C4A58541  24.355  29.430   7.071  0.1618  0.1047 -0.3799
11414DPPC   C1B58542  25.044  29.207   5.910 -0.0845 -0.1407 -0.1338
11414DPPC   C2B58543  24.955  29.047   6.285 -0.1645 -0.2347  0.2748
11414DPPC   C3B58544  25.141  28.849   6.623  0.0873 -0.0983  0.0248
11414DPPC   C4B58545  25.121  28.510   6.891 -0.2849 -0.1521  0.0957
11415DPPC   NC358546  20.257   3.251   9.885 -0.0096 -0.0263  0.2657
11415DPPC   PO458547  20.675   3.454   9.640 -0.0364 -0.0366  0.1072
11415DPPC   GL158548  20.799   3.365  10.076 -0.0223  0.1856  0.1933
11415DPPC   GL258549  20.635   3.507  10.237 -0.0518 -0.0837 -0.0356
11415DPPC   C1A58550  21.074   3.148  10.440 -0.2200 -0.0648  0.1844
11415DPPC   C2A58551  21.390   2.954  10.627 -0.2232 -0.0017 -0.0312
11415DPPC   C3A58552  21.690   2.770  10.854 -0.1208  0.0788 -0.0078
11415DPPC   C4A58553  21.975   2.789  11.105  0.0203 -0.1831 -0.0617
11415DPPC   C1B58554  20.665   3.406  10.569  0.0705 -0.5559 -0.0942
11415DPPC   C2B58555  20.922   3.428  10.854  0.1078 -0.0739  0.0381
11415DPPC   C3B58556  21.249   3.187  11.114 -0.2352 -0.0478  0.2061
11415DPPC   C4B58557  21.555   3.039  11.341  0.1640 -0.1225  0.1638
11416DPPC   NC358558  19.620  17.550   9.778  0.2768 -0.3063 -0.0620
11416DPPC   PO458559  19.750  17.218   9.634  0.0797 -0.0457 -0.0696
11416DPPC   GL158560  20.065  17.097   9.914  0.0077 -0.0530  0.1318
11416DPPC   GL258561  19.950  16.949  10.209 -0.0825  0.0218  0.0271
11416DPPC   C1A58562  20.344  17.434  10.043  0.0200  0.0028 -0.0490
11416DPPC   C2A58563  20.734  17.429  10.088 -0.1151  0.2343 -0.0610
11416DPPC   C3A58564  21.085  17.356  10.407 -0.0122 -0.1886 -0.2791
11416DPPC   C4A58565  21.238  17.346  10.736  0.0806  0.1624 -0.2648
11416DPPC   C1B58566  20.333  16.914  10.307  0.0909 -0.2794 -0.1167
11416DPPC   C2B58567  20.635  17.067  10.436 -0.0292 -0.2396  0.2563
11416DPPC   C3B58568  21.006  16.899  10.593 -0.1806 -0.2974  0.0459
11416DPPC   C4B58569  21.413  16.782  10.784 -0.0604  0.4040  0.0183
11417DPPC   NC358570  31.440  32.418   6.674  0.3563  0.3443 -0.1159
11417DPPC   PO458571  31.520  32.043   6.864  0.1646  0.1943 -0.2706
11417DPPC   GL158572  31.381  32.153   7.211  0.0565 -0.3332 -0.3176
11417DPPC   GL258573  31.217  31.829   7.263 -0.2738  0.0713 -0.1518
11417DPPC   C1A58574  31.177  32.334   7.544 -0.0025  0.0639  0.1536
11417DPPC   C2A58575  31.144  32.182   7.928 -0.1228  0.0326  0.1182
11417DPPC   C3A58576  31.046  32.004   8.300 -0.1042  0.1928 -0.3596
11417DPPC   C4A58577  31.014  32.358   8.635 -0.0085  0.6063  0.3062
11417DPPC   C1B58578  31.477  31.874   7.646 -0.2291 -0.3261  0.0540
11417DPPC   C2B58579  31.556  31.869   8.083 -0.3852  0.2473  0.1202
11417DPPC   C3B58580  31.588  32.052   8.498  0.4756  0.1021  0.0025
11417DPPC   C4B58581  31.471  32.290   8.856 -0.0239  0.0455 -0.1259
11418DPPC   NC358582  17.192  32.342  11.200  0.0645  0.0536  0.0620
11418DPPC   PO458583  17.070  32.004  11.040  0.2794  0.1792  0.1336
11418DPPC   GL158584  17.192  31.922  11.438  0.0195 -0.0789  0.1036
11418DPPC   GL258585  17.352  31.530  11.576 -0.1037 -0.1770  0.0157
11418DPPC   C1A58586  17.391  32.004  11.783  0.1536  0.3630 -0.0240
11418DPPC   C2A58587  17.430  32.297  12.019 -0.3263 -0.1495  0.0425
11418DPPC   C3A58588  17.643  32.469  12.327 -0.1077  0.2122  0.0699
11418DPPC   C4A58589  17.919  32.271  12.553  0.1578 -0.4397 -0.0012
11418DPPC   C1B58590  17.693  31.632  11.784 -0.1028 -0.1108 -0.0171
11418DPPC   C2B58591  18.238  31.547  11.638 -0.0565 -0.0040  0.0586
11418DPPC   C3B58592  18.564  31.414  11.428 -0.0329 -0.1424  0.0826
11418DPPC   C4B58593  18.783  31.047  11.276 -0.0722  0.1057  0.0871
11419DPPC   NC358594   7.364  27.693  16.671  0.0862  0.0329  0.1890
11419DPPC   PO458595   6.918  27.512  16.622  0.0403 -0.2562  0.1463
11419DPPC   GL158596   7.104  27.361  17.075  0.1216  0.0886  0.2393
11419DPPC   GL258597   6.765  27.321  17.047 -0.0562 -0.1701 -0.3189
11419DPPC   C1A58598   7.206  27.566  17.517  0.0681 -0.1518 -0.5221
11419DPPC   C2A58599   6.979  27.620  17.895  0.1816 -0.1579  0.1646
11419DPPC   C3A58600   6.792  27.750  18.226  0.1254 -0.2515  0.0033
11419DPPC   C4A58601   6.482  27.925  18.470 -0.0735  0.0092 -0.1471
11419DPPC   C1B58602   6.675  27.277  17.433 -0.0905  0.0276 -0.1092
11419DPPC   C2B58603   6.464  27.219  17.749 -0.0839 -0.0112  0.2776
11419DPPC   C3B58604   6.493  27.402  18.068 -0.0160  0.4770  0.0902
11419DPPC   C4B58605   6.638  27.439  18.513  0.0243  0.1006  0.1247
11420DPPC   NC358606  24.222   3.293   7.088  0.1728 -0.1850  0.0270
11420DPPC   PO458607  24.355   3.033   7.352 -0.0862 -0.0729  0.1671
11420DPPC   GL158608  24.291   3.116   7.763 -0.1858  0.3964 -0.1881
11420DPPC   GL258609  24.359   2.959   7.893  0.1091 -0.0799 -0.0313
11420DPPC   C1A58610  24.266   3.497   8.091  0.2188  0.2566 -0.0113
11420DPPC   C2A58611  24.333   3.447   8.584 -0.0123  0.0157  0.0710
11420DPPC   C3A58612  24.505   3.478   8.886 -0.1504 -0.1681  0.3125
11420DPPC   C4A58613  24.475   3.685   9.243 -0.2534 -0.4079  0.3315
11420DPPC   C1B58614  24.383   2.874   8.345  0.1192  0.0593  0.1675
11420DPPC   C2B58615  24.421   3.001   8.856 -0.1456  0.1027 -0.2470
11420DPPC   C3B58616  24.448   3.181   9.247 -0.0903 -0.2592  0.0036
11420DPPC   C4B58617  24.403   3.290   9.661 -0.0286  0.2950  0.0200
11421DPPC   NC358618  34.906   7.536   5.801  0.0202  0.0035 -0.2465
11421DPPC   PO458619   0.039   7.257   5.877 -0.1391 -0.1282 -0.1560
11421DPPC   GL158620  35.152   7.475   6.237  0.0262 -0.0684 -0.4092
11421DPPC   GL258621  35.253   7.700   6.204  0.0128 -0.0819  0.3150
11421DPPC   C1A58622  35.161   7.582   6.657 -0.0313 -0.0621  0.2085
11421DPPC   C2A58623  35.149   7.860   6.926  0.0473 -0.0432 -0.1273
11421DPPC   C3A58624  35.275   8.014   7.277 -0.1506  0.0839  0.0724
11421DPPC   C4A58625  35.216   7.927   7.707 -0.2581 -0.0202 -0.2448
11421DPPC   C1B58626  35.188   8.060   6.413  0.1894 -0.1658  0.2264
11421DPPC   C2B58627  35.028   8.414   6.351 -0.1791  0.1731  0.0091
11421DPPC   C3B58628  34.690   8.677   6.148  0.0364 -0.2068 -0.3276
11421DPPC   C4B58629  34.434   9.036   6.022  0.2142  0.2252  0.0822
11422DPPC   NC358630  18.818  15.158  11.334 -0.0018 -0.1352 -0.1840
11422DPPC   PO458631  19.006  15.268  10.962  0.1133 -0.1128 -0.1174
11422DPPC   GL158632  19.299  15.028  11.214  0.1593 -0.1939 -0.1167
11422DPPC   GL258633  19.405  14.738  11.025 -0.2476  0.0155 -0.1074
11422DPPC   C1A58634  19.657  15.049  11.582  0.1060 -0.4350  0.2388
11422DPPC   C2A58635  19.866  15.079  11.936 -0.1892  0.2632 -0.0389
11422DPPC   C3A58636  20.204  15.243  12.075  0.2084  0.0120  0.1731
11422DPPC   C4A58637  20.550  15.535  12.220 -0.0609 -0.3737  0.1202
11422DPPC   C1B58638  19.629  14.573  11.254 -0.1617 -0.0018 -0.0954
11422DPPC   C2B58639  19.939  14.288  11.316 -0.0944  0.3786 -0.1686
11422DPPC   C3B58640  20.145  13.960  11.674  0.0615  0.0084  0.1697
11422DPPC   C4B58641  20.471  13.805  11.961  0.0968  0.0454  0.1823
11423DPPC   NC358642  31.831  33.249   6.654  0.3030  0.1391 -0.2231
11423DPPC   PO458643  32.021  33.163   6.972 -0.0043 -0.0069  0.0788
11423DPPC   GL158644  31.850  33.170   7.333  0.4164  0.3295  0.2850
11423DPPC   GL258645  31.908  33.499   7.392 -0.0444  0.1369 -0.0524
11423DPPC   C1A58646  31.703  33.175   7.781  0.1245  0.2766  0.1296
11423DPPC   C2A58647  31.502  33.180   8.172 -0.1309  0.0907 -0.1136
11423DPPC   C3A58648  31.232  33.378   8.377 -0.0709  0.3516  0.0671
11423DPPC   C4A58649  31.016  33.551   8.516 -0.3098 -0.1570  0.0527
11423DPPC   C1B58650  31.708  33.711   7.744  0.1534  0.0647  0.3693
11423DPPC   C2B58651  31.586  33.722   8.125  0.2815 -0.3149  0.0791
11423DPPC   C3B58652  31.579  33.719   8.524 -0.1708  0.0147 -0.0608
11423DPPC   C4B58653  31.397  33.714   8.877  0.0345  0.1167 -0.2236
11424DPPC   NC358654   8.527  21.016  15.623 -0.0165  0.0199  0.0397
11424DPPC   PO458655   8.311  21.294  15.936 -0.0417  0.0410 -0.6203
11424DPPC   GL158656   8.008  21.530  16.092  0.1530  0.0839  0.0489
11424DPPC   GL258657   7.935  21.838  16.092 -0.1477 -0.1790  0.1756
11424DPPC   C1A58658   7.718  21.408  16.301 -0.0618  0.1576  0.1611
11424DPPC   C2A58659   7.506  21.242  16.612  0.1207 -0.1623  0.0221
11424DPPC   C3A58660   7.177  21.073  16.940  0.1406  0.1846 -0.1668
11424DPPC   C4A58661   7.020  20.730  17.204  0.0119  0.0355 -0.0996
11424DPPC   C1B58662   7.532  21.830  16.159  0.0757 -0.3032 -0.2940
11424DPPC   C2B58663   7.322  21.744  16.485 -0.1372  0.1529  0.3178
11424DPPC   C3B58664   6.999  21.727  16.748  0.1216 -0.1180 -0.2244
11424DPPC   C4B58665   6.746  21.504  16.912 -0.0716  0.1330  0.2883
11425DPPC   NC358666  15.605   6.345  13.050 -0.0885  0.3372  0.0687
11425DPPC   PO458667  15.374   6.148  13.423 -0.4399  0.0460 -0.0179
11425DPPC   GL158668  15.214   6.255  13.864  0.1358 -0.3018  0.0267
11425DPPC   GL258669  15.181   6.602  13.977  0.0087 -0.0082 -0.0781
11425DPPC   C1A58670  15.561   6.148  14.131 -0.3006 -0.0133  0.2108
11425DPPC   C2A58671  15.567   6.034  14.562  0.0324  0.2263  0.4124
11425DPPC   C3A58672  15.466   5.829  15.010 -0.0399 -0.1239  0.0845
11425DPPC   C4A58673  15.546   5.523  15.401  0.0190  0.1811  0.0883
11425DPPC   C1B58674  15.356   6.622  14.387  0.1925  0.1616 -0.1562
11425DPPC   C2B58675  15.466   6.441  14.802 -0.2212 -0.0370 -0.0380
11425DPPC   C3B58676  15.423   6.433  15.249  0.0356 -0.3474 -0.2582
11425DPPC   C4B58677  15.652   6.403  15.710 -0.1525  0.1154 -0.1064
11426DPPC   NC358678  12.409  24.687  18.093  0.1176 -0.2260 -0.3185
11426DPPC   PO458679  12.167  25.064  17.901  0.0061 -0.0967  0.0956
11426DPPC   GL158680  12.181  25.155  18.374  0.1624 -0.2058 -0.0135
11426DPPC   GL258681  12.443  25.388  18.477  0.0382 -0.0952 -0.4134
11426DPPC   C1A58682  12.042  25.295  18.823 -0.3330  0.0302  0.0270
11426DPPC   C2A58683  11.722  25.449  19.045  0.0643  0.0743  0.2681
11426DPPC   C3A58684  11.684  25.322  19.553  0.0710 -0.0628  0.0662
11426DPPC   C4A58685  11.720  25.528  19.834 -0.0289 -0.0288  0.0897
11426DPPC   C1B58686  12.621  25.456  18.957  0.0112 -0.1291  0.2185
11426DPPC   C2B58687  12.582  25.506  19.323 -0.0618 -0.0525  0.0594
11426DPPC   C3B58688  12.277  25.485  19.629 -0.0563 -0.2735  0.0262
11426DPPC   C4B58689  12.174  25.376  20.036  0.0125 -0.1243  0.1371
11427DPPC   NC358690   1.555  33.874   9.593  0.0168 -0.0918 -0.1006
11427DPPC   PO458691   1.509  34.267   9.946  0.2084 -0.0630 -0.1334
11427DPPC   GL158692   1.130  34.270  10.166  0.0940 -0.1807 -0.0661
11427DPPC   GL258693   0.792  34.268  10.044  0.0074 -0.0517 -0.3381
11427DPPC   C1A58694   0.998  33.912  10.295 -0.1973  0.1212 -0.0416
11427DPPC   C2A58695   0.732  33.786  10.632  0.2243 -0.2770  0.0276
11427DPPC   C3A58696   0.526  33.958  10.948  0.0022 -0.0162 -0.0549
11427DPPC   C4A58697   0.363  33.924  11.320 -0.2141 -0.3129  0.1604
11427DPPC   C1B58698   0.547  34.262  10.530  0.2184 -0.2053 -0.1942
11427DPPC   C2B58699   0.254  34.404  10.845 -0.1176 -0.3765 -0.2216
11427DPPC   C3B58700  35.282  34.156  11.197  0.0271  0.1653  0.0593
11427DPPC   C4B58701  35.241  33.865  11.468  0.2694 -0.0212 -0.3676
11428DPPC   NC358702  27.124  18.119   0.041  0.0279  0.3239 -0.0608
11428DPPC   PO458703  26.985  18.600   0.107 -0.0893 -0.2113  0.2583
11428DPPC   GL158704  27.179  18.811   0.375 -0.1104 -0.3912 -0.2269
11428DPPC   GL258705  27.293  19.260   0.380  0.1200  0.0383  0.0001
11428DPPC   C1A58706  27.399  18.843   0.740  0.1019 -0.0471 -0.3285
11428DPPC   C2A58707  27.451  18.676   1.131  0.1793  0.3820  0.5345
11428DPPC   C3A58708  27.591  18.542   1.361 -0.1513 -0.1149  0.0382
11428DPPC   C4A58709  27.719  18.322   1.735 -0.4121  0.1579  0.0807
11428DPPC   C1B58710  27.568  19.404   0.682 -0.0001  0.1803 -0.0040
11428DPPC   C2B58711  27.692  19.430   1.075 -0.1928  0.1810  0.1061
11428DPPC   C3B58712  27.790  19.194   1.385  0.1987  0.2267 -0.0213
11428DPPC   C4B58713  27.744  18.909   1.681 -0.1590  0.1329 -0.2193
11429DPPC   NC358714  24.500  13.250   2.394 -0.0090  0.3241  0.0202
11429DPPC   PO458715  24.788  12.913   2.531  0.0729  0.0130 -0.1482
11429DPPC   GL158716  25.042  12.853   2.866 -0.1695  0.1493  0.2184
11429DPPC   GL258717  25.388  12.685   2.747 -0.1468  0.0035  0.2520
11429DPPC   C1A58718  25.433  13.111   3.101  0.1599  0.1188 -0.1501
11429DPPC   C2A58719  25.711  13.049   3.300 -0.0627  0.5173  0.1054
11429DPPC   C3A58720  26.101  12.969   3.516  0.0886  0.1645 -0.1695
11429DPPC   C4A58721  26.313  12.906   3.811  0.0863  0.0843 -0.1984
11429DPPC   C1B58722  25.529  12.602   3.089  0.0671  0.1259 -0.0773
11429DPPC   C2B58723  25.642  12.638   3.588 -0.3635 -0.2085  0.1236
11429DPPC   C3B58724  25.792  12.854   3.982 -0.1704 -0.0407 -0.0419
11429DPPC   C4B58725  25.949  13.292   3.910 -0.2632  0.0014 -0.0420
11430DPPC   NC358726  15.653  26.830  15.189 -0.1717  0.1644  0.0648
11430DPPC   PO458727  15.947  26.782  15.368 -0.0998 -0.2821  0.3295
11430DPPC   GL158728  16.171  27.042  15.705 -0.3880  0.0666  0.0492
11430DPPC   GL258729  16.115  27.261  16.034 -0.2891  0.3598 -0.2055
11430DPPC   C1A58730  16.538  27.265  15.828  0.0218  0.0933 -0.1949
11430DPPC   C2A58731  16.847  27.567  15.714  0.0775  0.1661 -0.4765
11430DPPC   C3A58732  17.085  27.798  15.982 -0.2113  0.0847  0.0223
11430DPPC   C4A58733  17.255  28.164  16.078  0.0546 -0.0029 -0.0695
11430DPPC   C1B58734  16.334  27.520  16.261 -0.2834  0.0235 -0.0844
11430DPPC   C2B58735  16.471  27.843  16.435  0.1613 -0.1723 -0.0353
11430DPPC   C3B58736  16.832  27.703  16.611 -0.0129  0.1443  0.2073
11430DPPC   C4B58737  17.181  27.688  16.918 -0.0724 -0.1610  0.1213
11431DPPC   NC358738   9.786  33.172  16.029  0.2559 -0.0504  0.0232
11431DPPC   PO458739   9.311  33.133  16.180 -0.1581  0.1204  0.2488
11431DPPC   GL158740   9.242  33.352  16.569 -0.0590  0.2049 -0.2900
11431DPPC   GL258741   8.891  33.369  16.516  0.0132 -0.0075 -0.1635
11431DPPC   C1A58742   9.253  33.409  17.037  0.1171 -0.1609  0.0947
11431DPPC   C2A58743   9.232  33.527  17.438  0.0111  0.1813  0.1206
11431DPPC   C3A58744   9.206  33.583  17.822  0.2426  0.0280 -0.2596
11431DPPC   C4A58745   9.300  33.684  18.270  0.0003 -0.0083  0.1662
11431DPPC   C1B58746   8.759  33.532  16.873 -0.0472 -0.0333 -0.0169
11431DPPC   C2B58747   8.773  33.610  17.280 -0.0751  0.2497 -0.3524
11431DPPC   C3B58748   8.516  33.649  17.528  0.2721  0.0387  0.2259
11431DPPC   C4B58749   8.699  33.717  18.000 -0.1117 -0.0996 -0.3376
11432DPPC   NC358750  32.080  20.568   0.120 -0.2226 -0.1513 -0.0229
11432DPPC   PO458751  32.438  20.509   0.302 -0.2138  0.1559  0.0538
11432DPPC   GL158752  32.189  20.678   0.602 -0.0883  0.2486  0.4206
11432DPPC   GL258753  32.070  20.444   0.661 -0.1351  0.0501  0.0875
11432DPPC   C1A58754  32.261  21.009   0.937  0.0853  0.1423 -0.1239
11432DPPC   C2A58755  32.075  20.967   1.287  0.0284 -0.1093 -0.0577
11432DPPC   C3A58756  31.816  20.989   1.573  0.0487 -0.1554  0.2143
11432DPPC   C4A58757  31.705  21.306   1.870  0.2286  0.1248  0.0833
11432DPPC   C1B58758  31.874  20.579   0.964 -0.0424  0.2664  0.2337
11432DPPC   C2B58759  31.645  20.591   1.305  0.1741  0.1183 -0.0517
11432DPPC   C3B58760  31.390  20.687   1.732  0.0840  0.1611 -0.2914
11432DPPC   C4B58761  31.234  20.951   2.055  0.2795 -0.1240  0.1450
11433DPPC   NC358762   9.681   0.280  15.966 -0.1328  0.0845 -0.0867
11433DPPC   PO458763   9.323   0.197  16.265  0.1647  0.0138  0.0166
11433DPPC   GL158764   9.670   0.369  16.472  0.0455  0.1535 -0.1886
11433DPPC   GL258765   9.709   0.292  16.798  0.1010 -0.0491 -0.2979
11433DPPC   C1A58766   9.901   0.709  16.670 -0.1294 -0.0920  0.0354
11433DPPC   C2A58767   9.977   1.015  16.977  0.2209 -0.1897 -0.0371
11433DPPC   C3A58768   9.922   1.244  17.303  0.4216 -0.0287 -0.0269
11433DPPC   C4A58769  10.039   1.462  17.608  0.2392 -0.1730 -0.1910
11433DPPC   C1B58770   9.599   0.626  17.159 -0.0715 -0.0395 -0.4635
11433DPPC   C2B58771   9.653   0.547  17.602  0.0414  0.0590 -0.1683
11433DPPC   C3B58772   9.909   0.514  18.029  0.1227 -0.0590  0.2055
11433DPPC   C4B58773   9.794   0.469  18.552  0.1858 -0.0033 -0.2269
11434DPPC   NC358774  22.703  26.317   4.951  0.1449 -0.1200  0.1010
11434DPPC   PO458775  22.742  26.698   5.204 -0.1114  0.4534  0.2540
11434DPPC   GL158776  22.953  26.345   5.455  0.0918 -0.1770 -0.0698
11434DPPC   GL258777  23.051  26.118   5.262  0.0712  0.0681 -0.3828
11434DPPC   C1A58778  23.251  26.194   5.806 -0.0002  0.0183 -0.0748
11434DPPC   C2A58779  23.573  25.922   6.025  0.2894 -0.0634  0.3909
11434DPPC   C3A58780  23.549  25.590   6.218  0.1652 -0.0363  0.1138
11434DPPC   C4A58781  23.280  25.467   6.553 -0.0519 -0.0245  0.1706
11434DPPC   C1B58782  23.182  25.773   5.455  0.3253 -0.1842  0.2990
11434DPPC   C2B58783  23.406  25.582   5.640  0.0515  0.2226  0.1618
11434DPPC   C3B58784  23.554  25.275   5.831  0.2039 -0.1419 -0.1140
11434DPPC   C4B58785  23.950  25.098   5.877  0.1822 -0.5108 -0.3330
11435DPPC   NC358786  19.979  26.449   9.050  0.0698 -0.0339  0.1123
11435DPPC   PO458787  20.297  26.247   8.776  0.0370 -0.1669  0.2098
11435DPPC   GL158788  20.583  26.233   9.158 -0.2751  0.1012  0.1867
11435DPPC   GL258789  20.350  26.283   9.356  0.3045 -0.2270  0.2042
11435DPPC   C1A58790  20.854  26.548   9.350  0.2646  0.0217 -0.0989
11435DPPC   C2A58791  21.082  26.715   9.711  0.0824  0.0321  0.1425
11435DPPC   C3A58792  21.435  26.764  10.033  0.1717 -0.1340 -0.4883
11435DPPC   C4A58793  21.847  26.834  10.143 -0.2321 -0.0206  0.2157
11435DPPC   C1B58794  20.516  26.552   9.690 -0.0513 -0.1164 -0.1112
11435DPPC   C2B58795  20.702  26.659  10.035 -0.0707  0.3409 -0.3111
11435DPPC   C3B58796  20.938  27.037  10.095 -0.0016 -0.0719  0.2589
11435DPPC   C4B58797  21.270  27.148   9.818 -0.1700  0.1344  0.0209
11436DPPC   NC358798  16.263   8.317  13.822  0.3106 -0.1778  0.1510
11436DPPC   PO458799  16.535   7.903  13.645 -0.0720  0.4569 -0.1150
11436DPPC   GL158800  16.539   7.883  14.047  0.1164 -0.1594  0.0592
11436DPPC   GL258801  16.255   7.879  14.309 -0.0039  0.1362  0.1533
11436DPPC   C1A58802  16.482   7.461  14.320  0.0034  0.2549 -0.2594
11436DPPC   C2A58803  16.575   7.298  14.630 -0.1673  0.0345 -0.1938
11436DPPC   C3A58804  16.743   7.243  14.982 -0.0145  0.0195 -0.0094
11436DPPC   C4A58805  16.531   7.260  15.386  0.2877 -0.0184  0.0489
11436DPPC   C1B58806  16.028   7.796  14.726  0.0311  0.2278  0.3051
11436DPPC   C2B58807  15.859   7.988  15.093  0.0771 -0.0157  0.0901
11436DPPC   C3B58808  16.046   8.331  15.333 -0.0805  0.0184 -0.2763
11436DPPC   C4B58809  16.353   8.673  15.307  0.0909  0.1162 -0.2926
11437DPPC   NC358810   2.652  23.594   4.117  0.3084  0.2040  0.3208
11437DPPC   PO458811   2.320  23.578   4.408 -0.1975  0.0043 -0.0244
11437DPPC   GL158812   1.939  23.499   4.729 -0.0179  0.0340 -0.0797
11437DPPC   GL258813   1.942  23.159   4.812 -0.1990 -0.0276 -0.2875
11437DPPC   C1A58814   1.627  23.419   5.087 -0.1020 -0.0906 -0.0867
11437DPPC   C2A58815   1.491  23.170   5.454  0.0109  0.2312 -0.2590
11437DPPC   C3A58816   1.165  22.994   5.733  0.0802 -0.0304 -0.0913
11437DPPC   C4A58817   1.129  22.632   6.034 -0.0207 -0.2975 -0.0303
11437DPPC   C1B58818   1.780  22.887   5.130 -0.2623  0.0396  0.0252
11437DPPC   C2B58819   1.385  22.683   5.424 -0.1387 -0.0981  0.0971
11437DPPC   C3B58820   1.013  22.569   5.522 -0.0059 -0.1778 -0.0926
11437DPPC   C4B58821   0.657  22.484   5.871  0.1622  0.2624  0.5243
11438DPPC   NC358822   1.164  35.371   9.794 -0.0754  0.1073  0.0415
11438DPPC   PO458823   0.911  35.015   9.652  0.1912 -0.0547 -0.0306
11438DPPC   GL158824   0.637  35.191   9.985 -0.0870 -0.0605 -0.1688
11438DPPC   GL258825   0.711   0.130  10.157  0.2700  0.1236  0.1292
11438DPPC   C1A58826   0.406  35.103  10.323  0.2028 -0.2867  0.3841
11438DPPC   C2A58827   0.219  35.255  10.739  0.1203 -0.0387 -0.1281
11438DPPC   C3A58828  35.346  35.256  11.006  0.1557  0.0088  0.3907
11438DPPC   C4A58829  35.061  35.110  11.246 -0.0250 -0.0432  0.1786
11438DPPC   C1B58830   0.706  35.356  10.577  0.0703 -0.2306 -0.3393
11438DPPC   C2B58831   0.664   0.081  10.915 -0.0265  0.2673 -0.0507
11438DPPC   C3B58832   0.348   0.104  11.229 -0.0236 -0.1086 -0.1911
11438DPPC   C4B58833   0.161  35.200  11.450 -0.4216 -0.1924 -0.2297
11439DPPC   NC358834  14.537   6.891  13.404  0.0203  0.0256 -0.1583
11439DPPC   PO458835  14.824   7.117  13.727  0.1350  0.3572  0.0192
11439DPPC   GL158836  14.781   6.803  14.164 -0.1842  0.0833 -0.1312
11439DPPC   GL258837  14.415   6.769  14.347  0.2436  0.0629  0.2169
11439DPPC   C1A58838  14.952   6.912  14.551  0.0574 -0.0924 -0.1228
11439DPPC   C2A58839  15.181   6.861  14.852 -0.0170 -0.1794 -0.2333
11439DPPC   C3A58840  15.372   7.084  15.246  0.1760  0.0344 -0.0823
11439DPPC   C4A58841  15.361   7.356  15.627 -0.0935  0.3809 -0.0587
11439DPPC   C1B58842  14.456   6.601  14.764 -0.2195  0.2467  0.3587
11439DPPC   C2B58843  14.882   6.480  14.980  0.1385  0.0429  0.3958
11439DPPC   C3B58844  15.091   6.119  15.008  0.1082  0.1300 -0.1714
11439DPPC   C4B58845  15.045   5.683  15.201 -0.1731 -0.2671 -0.1870
11440DPPC   NC358846  11.104  30.398  17.321 -0.0066 -0.0623  0.0538
11440DPPC   PO458847  11.448  30.009  17.364  0.2925  0.0356  0.2212
11440DPPC   GL158848  11.626  29.859  17.693  0.5246  0.0289 -0.3795
11440DPPC   GL258849  11.943  29.918  17.737  0.1242 -0.0906 -0.2063
11440DPPC   C1A58850  11.571  29.566  17.959 -0.0912 -0.2125  0.2759
11440DPPC   C2A58851  11.514  29.607  18.476  0.2256 -0.1865 -0.1445
11440DPPC   C3A58852  11.732  29.848  18.875 -0.2831  0.1663 -0.1276
11440DPPC   C4A58853  11.701  29.957  19.378 -0.0050 -0.2121  0.0153
11440DPPC   C1B58854  12.044  29.756  18.090  0.0656  0.0120 -0.0880
11440DPPC   C2B58855  12.030  29.749  18.504 -0.0713  0.0807 -0.0988
11440DPPC   C3B58856  12.264  29.669  18.833  0.0378 -0.1300  0.1004
11440DPPC   C4B58857  12.518  29.502  19.137  0.0513  0.1736  0.4794
11441DPPC   NC358858   3.909  10.276   8.016  0.0258  0.0772 -0.1689
11441DPPC   PO458859   3.670  10.333   7.772  0.0450  0.2481  0.0629
11441DPPC   GL158860   3.374  10.326   8.108  0.1904  0.2831 -0.3678
11441DPPC   GL258861   3.040  10.134   8.043  0.0667  0.3448  0.0847
11441DPPC   C1A58862   3.049  10.539   8.398 -0.0711 -0.0911  0.1176
11441DPPC   C2A58863   2.687  10.572   8.534 -0.2856  0.1860 -0.0396
11441DPPC   C3A58864   2.438  10.418   8.852  0.1700 -0.2564  0.1023
11441DPPC   C4A58865   2.050  10.298   9.172 -0.0385  0.2816  0.1494
11441DPPC   C1B58866   2.641  10.191   8.180 -0.3018  0.2962  0.2981
11441DPPC   C2B58867   2.381  10.236   8.379 -0.2239  0.0420 -0.2724
11441DPPC   C3B58868   2.017  10.092   8.612  0.1371 -0.0535  0.0813
11441DPPC   C4B58869   1.601  10.239   8.400  0.1238  0.2848  0.2383
11442DPPC   NC358870  30.489   6.044   3.474  0.2008  0.2487  0.0947
11442DPPC   PO458871  30.735   6.018   3.889  0.1438  0.1764  0.2287
11442DPPC   GL158872  30.663   6.262   4.312 -0.0256 -0.0010 -0.1572
11442DPPC   GL258873  30.837   6.535   4.369  0.2741  0.1537  0.2188
11442DPPC   C1A58874  30.389   6.563   4.510 -0.0238 -0.1561 -0.0500
11442DPPC   C2A58875  30.103   6.696   4.753  0.0772 -0.0873  0.0951
11442DPPC   C3A58876  29.914   6.857   5.033 -0.1392  0.0790 -0.0633
11442DPPC   C4A58877  30.009   7.355   5.215 -0.3247 -0.0774  0.0808
11442DPPC   C1B58878  30.633   7.004   4.410  0.1540 -0.1768 -0.0969
11442DPPC   C2B58879  30.534   7.189   4.852 -0.2023 -0.3458 -0.3720
11442DPPC   C3B58880  30.609   7.308   5.257 -0.1219 -0.2261  0.2024
11442DPPC   C4B58881  30.332   7.437   5.571  0.0642 -0.0531  0.1032
11443POPC   NC358882  26.219  35.159   5.982  0.2580  0.1290 -0.0706
11443POPC   PO458883  26.160  34.859   6.367 -0.5484 -0.1927 -0.2023
11443POPC   GL158884  26.076  34.606   6.856  0.2275 -0.0527  0.0544
11443POPC   GL258885  25.788  34.858   6.968  0.0451  0.0776  0.1982
11443POPC   C1A58886  26.073  34.435   7.265 -0.0255  0.0834  0.2059
11443POPC   D2A58887  26.468  34.439   7.599  0.0170 -0.4099  0.0968
11443POPC   C3A58888  26.326  34.543   8.053 -0.3854 -0.0603 -0.0125
11443POPC   C4A58889  26.242  34.307   8.455  0.1184  0.0261  0.2361
11443POPC   C1B58890  25.782  34.782   7.424 -0.2764  0.1802 -0.2044
11443POPC   C2B58891  25.808  34.546   7.763 -0.1266 -0.2759  0.2376
11443POPC   C3B58892  25.946  34.199   8.013  0.0306 -0.0124 -0.0116
11443POPC   C4B58893  25.895  33.915   8.321  0.0575  0.0027  0.0982
11444POPC   NC358894  17.124   9.453  13.671  0.0179  0.1070  0.1168
11444POPC   PO458895  17.230   9.082  13.717  0.0903  0.0078  0.3732
11444POPC   GL158896  17.568   9.208  13.884  0.1887 -0.2469  0.0727
11444POPC   GL258897  17.474   9.039  14.146 -0.1447  0.2414 -0.3645
11444POPC   C1A58898  17.976   9.036  14.204 -0.2410 -0.2123 -0.1764
11444POPC   D2A58899  18.267   9.022  14.451  0.0635  0.0301  0.0918
11444POPC   C3A58900  18.170   8.907  14.838  0.1811 -0.0429  0.1062
11444POPC   C4A58901  18.265   8.699  15.242 -0.2303  0.1626  0.0547
11444POPC   C1B58902  17.617   9.023  14.560  0.4448  0.6466 -0.1367
11444POPC   C2B58903  17.678   8.956  14.840  0.0301 -0.2315 -0.1007
11444POPC   C3B58904  17.759   8.914  15.226  0.2069  0.0044  0.1185
11444POPC   C4B58905  17.963   8.999  15.611 -0.0629 -0.1505 -0.2376
11445POPC   NC358906  29.435  23.563   0.604 -0.0258  0.0401  0.0375
11445POPC   PO458907  29.790  23.677   0.772  0.1686 -0.2289  0.1291
11445POPC   GL158908  29.949  23.407   1.095 -0.0382 -0.1083  0.0612
11445POPC   GL258909  30.249  23.148   0.973  0.1131 -0.0891 -0.0078
11445POPC   C1A58910  30.011  23.171   1.391 -0.2277  0.0758 -0.0417
11445POPC   D2A58911  30.097  22.854   1.737  0.1403 -0.1515 -0.3632
11445POPC   C3A58912  30.020  23.033   2.128 -0.1109  0.0508 -0.0080
11445POPC   C4A58913  29.985  23.084   2.540 -0.1310 -0.2634  0.0851
11445POPC   C1B58914  30.419  22.877   1.233 -0.0391  0.2693 -0.1799
11445POPC   C2B58915  30.521  23.061   1.615 -0.1385 -0.0939 -0.3179
11445POPC   C3B58916  30.563  22.997   2.077  0.0143  0.1239 -0.1723
11445POPC   C4B58917  30.409  22.803   2.375  0.0384 -0.1276 -0.0840
11446POPC   NC358918  31.794  15.045   0.513  0.0318 -0.0189  0.1551
11446POPC   PO458919  31.549  14.749   0.779  0.1288  0.1169 -0.1025
11446POPC   GL158920  31.338  14.653   1.119 -0.3937 -0.0451 -0.1531
11446POPC   GL258921  31.610  14.680   1.436  0.2846  0.1235 -0.2075
11446POPC   C1A58922  31.103  14.876   1.541  0.0764 -0.0153  0.1641
11446POPC   D2A58923  31.042  15.242   1.675  0.0985 -0.3571 -0.0406
11446POPC   C3A58924  31.137  15.412   2.021 -0.1787 -0.1971 -0.0782
11446POPC   C4A58925  31.254  15.557   2.372 -0.0704  0.0763  0.2654
11446POPC   C1B58926  31.531  14.804   1.797  0.1662  0.3134  0.4965
11446POPC   C2B58927  31.312  14.915   2.020 -0.0031 -0.1506  0.0382
11446POPC   C3B58928  30.917  14.871   2.073  0.1356 -0.2176  0.2021
11446POPC   C4B58929  30.689  14.629   2.303 -0.0534  0.0333 -0.1534
11447POPC   NC358930   3.172  28.717  12.765  0.3628  0.0450  0.1587
11447POPC   PO458931   2.953  28.786  12.375  0.0053  0.0714 -0.0096
11447POPC   GL158932   2.699  28.521  12.752 -0.2090  0.3245  0.1550
11447POPC   GL258933   2.818  28.268  12.982 -0.2144 -0.2818 -0.1832
11447POPC   C1A58934   2.392  28.441  13.109  0.1966  0.0444  0.2725
11447POPC   D2A58935   2.170  28.352  13.509  0.0545  0.0408  0.1199
11447POPC   C3A58936   1.992  27.955  13.669 -0.1245  0.0954  0.0075
11447POPC   C4A58937   1.988  27.511  13.855 -0.1184  0.1456  0.0607
11447POPC   C1B58938   2.453  28.012  12.903 -0.1973  0.0719 -0.0027
11447POPC   C2B58939   2.123  27.989  13.166  0.0932  0.0883 -0.1691
11447POPC   C3B58940   1.687  27.932  13.229  0.2364  0.0164  0.0740
11447POPC   C4B58941   1.228  28.135  13.195 -0.2015 -0.2737 -0.2830
11448POPC   NC358942   5.235  26.896  14.609  0.1602  0.2397  0.0638
11448POPC   PO458943   5.491  26.765  14.984  0.1246 -0.0902 -0.1459
11448POPC   GL158944   5.207  26.584  15.166 -0.2108  0.3114  0.0344
11448POPC   GL258945   5.482  26.478  15.340  0.1527  0.2338 -0.1384
11448POPC   C1A58946   4.835  26.601  15.444 -0.2348  0.0210  0.0051
11448POPC   D2A58947   4.441  26.618  15.341  0.5724 -0.0832  0.2693
11448POPC   C3A58948   4.300  26.272  15.270  0.0720 -0.2294 -0.1779
11448POPC   C4A58949   4.042  26.041  15.024  0.0068 -0.1045  0.2501
11448POPC   C1B58950   5.341  26.113  15.286  0.1500 -0.1531  0.0339
11448POPC   C2B58951   5.378  25.692  15.360  0.0345  0.3172 -0.0207
11448POPC   C3B58952   5.231  25.373  15.203 -0.3157  0.2837  0.0126
11448POPC   C4B58953   4.873  25.126  15.288  0.2257  0.0891  0.1847
11449POPC   NC358954   3.760   3.672   9.720 -0.2491  0.1622 -0.0766
11449POPC   PO458955   3.580   3.376   9.596 -0.1544 -0.2707  0.0714
11449POPC   GL158956   3.389   3.421  10.047 -0.1584  0.1479  0.3286
11449POPC   GL258957   3.520   3.697  10.159 -0.0611  0.0032 -0.3163
11449POPC   C1A58958   3.030   3.454  10.334  0.0279  0.0762  0.0549
11449POPC   D2A58959   2.742   3.617  10.553 -0.0102 -0.0239  0.0328
11449POPC   C3A58960   2.422   3.491  10.438 -0.2482 -0.2674 -0.2659
11449POPC   C4A58961   2.121   3.272  10.289  0.1142  0.5024 -0.0278
11449POPC   C1B58962   3.251   3.950  10.405  0.0443 -0.1434  0.2640
11449POPC   C2B58963   2.938   4.158  10.693  0.2279  0.1759 -0.1758
11449POPC   C3B58964   2.534   4.246  10.764 -0.0637  0.0041  0.1284
11449POPC   C4B58965   2.221   4.556  11.000  0.0042  0.2590  0.3340
11450POPC   NC358966   9.889  21.964  17.126 -0.2352  0.1047 -0.0775
11450POPC   PO458967   9.519  21.972  16.976  0.1562  0.3250  0.1330
11450POPC   GL158968   9.377  21.794  17.431  0.1173  0.0079 -0.2827
11450POPC   GL258969   9.624  21.796  17.749 -0.0252 -0.0561 -0.1450
11450POPC   C1A58970   9.172  21.521  17.682 -0.4283  0.0047  0.3968
11450POPC   D2A58971   9.103  21.185  17.978  0.4896 -0.0870 -0.1597
11450POPC   C3A58972   8.855  20.886  18.058  0.1851 -0.1857 -0.1474
11450POPC   C4A58973   8.537  20.711  18.250 -0.0929 -0.0736  0.2236
11450POPC   C1B58974   9.452  21.580  18.104 -0.2330  0.0370 -0.4180
11450POPC   C2B58975   9.252  21.313  18.412 -0.0554 -0.1945  0.0622
11450POPC   C3B58976   9.039  20.895  18.511  0.0867  0.0822  0.2412
11450POPC   C4B58977   8.951  20.509  18.698  0.0561  0.0539 -0.0443
11451POPC   NC358978  23.695  15.124   2.039 -0.3251 -0.0044  0.1251
11451POPC   PO458979  23.956  14.673   2.060 -0.1938 -0.1391  0.3072
11451POPC   GL158980  24.132  15.048   2.311  0.0328  0.2400  0.1430
11451POPC   GL258981  24.488  15.135   2.209 -0.1184  0.0616  0.1636
11451POPC   C1A58982  24.384  15.377   2.643  0.0293 -0.0420 -0.2781
11451POPC   D2A58983  24.624  15.595   3.003 -0.1654  0.0528 -0.1655
11451POPC   C3A58984  24.451  15.558   3.495  0.0813  0.1946 -0.0228
11451POPC   C4A58985  24.183  15.817   3.659  0.0789  0.1706 -0.0543
11451POPC   C1B58986  24.720  15.042   2.518 -0.3674  0.0775  0.2196
11451POPC   C2B58987  24.860  15.196   2.880  0.0228 -0.0325 -0.0101
11451POPC   C3B58988  25.058  15.372   3.242 -0.1661 -0.0089 -0.4758
11451POPC   C4B58989  24.926  15.709   3.470 -0.1848  0.0177  0.0214
11452POPC   NC358990  13.430  21.978  17.020 -0.0483  0.0415 -0.2934
11452POPC   PO458991  13.282  22.276  17.433  0.3077 -0.2801 -0.1741
11452POPC   GL158992  13.184  21.960  17.607  0.0424  0.0218  0.0611
11452POPC   GL258993  13.481  22.010  17.853 -0.2144 -0.1480 -0.1729
11452POPC   C1A58994  12.911  21.644  17.773  0.1256 -0.0176 -0.3287
11452POPC   D2A58995  12.599  21.595  18.104 -0.0368  0.0505 -0.1892
11452POPC   C3A58996  12.621  21.373  18.449  0.1236 -0.0316 -0.0032
11452POPC   C4A58997  12.694  21.269  18.833 -0.3115  0.1113  0.1897
11452POPC   C1B58998  13.718  22.017  18.185 -0.2461  0.2669  0.1690
11452POPC   C2B58999  13.848  21.882  18.469  0.1280 -0.0269  0.3712
11452POPC   C3B59000  13.916  21.722  18.883 -0.0033 -0.0513  0.2080
11452POPC   C4B59001  13.798  21.507  19.244 -0.0673 -0.0684 -0.1674
11453POPC   NC359002  19.959  30.849   8.735 -0.1432  0.1133  0.1014
11453POPC   PO459003  20.042  30.376   8.670  0.0399 -0.0321  0.0261
11453POPC   GL159004  20.357  30.547   8.806  0.2079  0.0967  0.0174
11453POPC   GL259005  20.456  30.858   8.906  0.0299  0.2378  0.1219
11453POPC   C1A59006  20.804  30.524   9.122  0.1427  0.0356  0.1480
11453POPC   D2A59007  21.002  30.367   9.447 -0.2055  0.0001  0.1028
11453POPC   C3A59008  21.169  29.994   9.387  0.0138  0.1778  0.1327
11453POPC   C4A59009  21.006  29.695   9.640  0.0986 -0.1069  0.0540
11453POPC   C1B59010  20.933  30.953   8.931 -0.6251 -0.0635 -0.1604
11453POPC   C2B59011  21.185  30.845   9.320  0.3883 -0.1666 -0.4064
11453POPC   C3B59012  21.407  30.900   9.725 -0.0818 -0.0870 -0.1002
11453POPC   C4B59013  21.375  30.949  10.225  0.0289  0.1672  0.1881
11454POPC   NC359014   0.006  20.125   1.517  0.0046 -0.1046 -0.0569
11454POPC   PO459015   0.042  20.513   1.332  0.0901 -0.2003  0.0972
11454POPC   GL159016  35.171  20.560   1.750 -0.1676  0.2014 -0.3394
11454POPC   GL259017  34.975  20.521   1.617  0.2078  0.1106  0.3592
11454POPC   C1A59018  35.249  20.904   2.004  0.1077  0.4299 -0.0385
11454POPC   D2A59019  35.143  20.953   2.396 -0.2963  0.0952 -0.1323
11454POPC   C3A59020  34.844  21.170   2.620  0.1347  0.0789  0.1540
11454POPC   C4A59021  34.545  21.495   2.800 -0.1680 -0.0228 -0.2229
11454POPC   C1B59022  34.902  20.262   2.040  0.1465 -0.1938 -0.1905
11454POPC   C2B59023  34.717  20.361   2.390 -0.0275  0.2055 -0.1293
11454POPC   C3B59024  34.574  20.779   2.534  0.2507 -0.0527 -0.0482
11454POPC   C4B59025  34.307  21.024   2.829 -0.1449 -0.0302  0.0066
11455POPC   NC359026  14.002  33.328  14.072 -0.0134 -0.0064  0.1073
11455POPC   PO459027  14.086  32.890  14.114 -0.0146  0.1775  0.4117
11455POPC   GL159028  14.505  33.008  14.266  0.1654 -0.2411 -0.0326
11455POPC   GL259029  14.645  32.865  14.580  0.1378  0.2373 -0.2096
11455POPC   C1A59030  14.851  33.344  14.278 -0.3097  0.0597  0.1256
11455POPC   D2A59031  15.019  33.816  14.173 -0.0863 -0.0447 -0.0116
11455POPC   C3A59032  14.763  33.968  14.454 -0.1368  0.2518  0.0418
11455POPC   C4A59033  14.403  34.104  14.577 -0.0058  0.3031  0.2730
11455POPC   C1B59034  15.030  33.035  14.628 -0.3594  0.2533  0.2168
11455POPC   C2B59035  15.220  33.356  14.664 -0.1193  0.1513 -0.0070
11455POPC   C3B59036  15.245  33.766  14.631  0.0518  0.0196 -0.1898
11455POPC   C4B59037  15.411  34.152  14.859 -0.0484  0.2045 -0.3238
11456POPC   NC359038  13.709  21.859  17.438 -0.0578  0.1033  0.3525
11456POPC   PO459039  14.105  21.982  17.503 -0.0959  0.2277  0.0213
11456POPC   GL159040  14.287  21.661  17.636  0.0136  0.0826 -0.0919
11456POPC   GL259041  14.445  21.693  17.681  0.3208 -0.0106 -0.3470
11456POPC   C1A59042  14.223  21.280  17.857  0.0220  0.1639  0.0347
11456POPC   D2A59043  14.417  21.136  18.233 -0.1364 -0.2316 -0.1418
11456POPC   C3A59044  14.257  20.922  18.552 -0.0613 -0.1189 -0.0674
11456POPC   C4A59045  14.294  20.800  18.881 -0.1978  0.1147 -0.3865
11456POPC   C1B59046  14.733  21.468  17.940 -0.0122  0.1049 -0.2012
11456POPC   C2B59047  14.819  21.401  18.270 -0.2899 -0.0811 -0.0041
11456POPC   C3B59048  14.904  21.342  18.775  0.0327 -0.2356  0.1915
11456POPC   C4B59049  14.781  20.989  19.129 -0.3087 -0.4393  0.1095
11457POPC   NC359050   8.238   1.307  15.370  0.0406  0.0576 -0.1210
11457POPC   PO459051   7.945   1.053  15.131  0.3199  0.1454 -0.0330
11457POPC   GL159052   7.861   1.054  15.520 -0.0308  0.5456 -0.1272
11457POPC   GL259053   7.789   0.768  15.658 -0.1321  0.1320  0.2879
11457POPC   C1A59054   7.661   1.252  15.849  0.3802  0.1065  0.2888
11457POPC   D2A59055   7.512   1.477  16.198  0.0941  0.0253 -0.0422
11457POPC   C3A59056   7.232   1.267  16.553  0.3371  0.1634  0.0735
11457POPC   C4A59057   6.879   1.174  16.849  0.1800  0.0461  0.1028
11457POPC   C1B59058   7.424   0.529  15.880 -0.2509  0.1552  0.0595
11457POPC   C2B59059   7.096   0.458  16.042 -0.0122 -0.1192  0.0877
11457POPC   C3B59060   6.718   0.561  16.155  0.2051 -0.0587  0.0433
11457POPC   C4B59061   6.513   0.888  16.517 -0.0866 -0.0570  0.0609
11458POPC   NC359062  10.632  13.379  13.910  0.1007 -0.0620  0.0842
11458POPC   PO459063  10.280  13.493  14.063  0.2522  0.2615  0.2914
11458POPC   GL159064  10.269  13.757  14.396 -0.0130  0.2573 -0.0449
11458POPC   GL259065  10.459  14.050  14.374 -0.0582 -0.1303  0.2935
11458POPC   C1A59066   9.922  13.757  14.728  0.2283  0.2874 -0.1636
11458POPC   D2A59067   9.629  13.869  14.979 -0.4000  0.0305 -0.1279
11458POPC   C3A59068   9.528  13.519  15.251 -0.0369 -0.0803  0.4358
11458POPC   C4A59069   9.009  13.389  15.414 -0.3960 -0.1613 -0.1416
11458POPC   C1B59070  10.396  14.102  14.806 -0.2972 -0.1603 -0.0180
11458POPC   C2B59071  10.427  14.184  15.300 -0.1498  0.2036 -0.2055
11458POPC   C3B59072  10.593  13.941  15.661 -0.0696  0.2588  0.0105
11458POPC   C4B59073  10.523  14.086  16.039  0.1174 -0.3487 -0.3453
11459POPC   NC359074  33.523   3.334   7.381  0.1244  0.1224  0.0092
11459POPC   PO459075  33.213   3.409   7.033  0.3575  0.0404 -0.2525
11459POPC   GL159076  33.027   3.641   7.390  0.0938  0.0288  0.1372
11459POPC   GL259077  33.296   3.814   7.477 -0.3181 -0.2604  0.0578
11459POPC   C1A59078  32.788   3.798   7.654 -0.0725 -0.5382  0.2400
11459POPC   D2A59079  32.501   4.013   7.816  0.1478 -0.1573  0.0389
11459POPC   C3A59080  32.437   4.022   8.273 -0.0442 -0.1502  0.1871
11459POPC   C4A59081  32.427   4.119   8.680 -0.4035 -0.0731  0.1669
11459POPC   C1B59082  33.187   3.958   7.976  0.1966  0.3766 -0.3034
11459POPC   C2B59083  32.948   4.173   8.287 -0.1670  0.2214 -0.2265
11459POPC   C3B59084  32.620   4.527   8.363 -0.0595 -0.1570 -0.1733
11459POPC   C4B59085  32.176   4.453   8.466 -0.3065  0.1538 -0.0240
11460POPC   NC359086   6.562   7.979  12.821 -0.1381 -0.0550 -0.1929
11460POPC   PO459087   6.578   7.578  12.883 -0.1515 -0.0737  0.2022
11460POPC   GL159088   6.527   7.632  13.291 -0.3128 -0.3394 -0.1502
11460POPC   GL259089   6.260   7.458  13.430  0.2762 -0.0315  0.1057
11460POPC   C1A59090   6.278   7.973  13.420  0.3459 -0.0608  0.4145
11460POPC   D2A59091   6.014   8.217  13.673 -0.1606  0.0817 -0.0540
11460POPC   C3A59092   5.708   8.323  13.952  0.2297 -0.2391 -0.0429
11460POPC   C4A59093   5.372   8.144  14.307 -0.0999  0.3034 -0.0655
11460POPC   C1B59094   5.836   7.753  13.422  0.0847 -0.1296  0.0310
11460POPC   C2B59095   5.562   8.004  13.660  0.1027 -0.0074 -0.1497
11460POPC   C3B59096   5.141   8.168  13.674  0.3329  0.1252  0.2728
11460POPC   C4B59097   4.848   8.465  13.644  0.2553 -0.1835 -0.0198
11461POPC   NC359098  22.375   4.755   8.188 -0.0797  0.3327  0.1335
11461POPC   PO459099  22.513   5.101   7.947  0.3600  0.0202  0.0891
11461POPC   GL159100  22.803   5.055   8.224  0.1858 -0.0416 -0.2346
11461POPC   GL259101  23.113   5.093   8.056 -0.1243  0.1130 -0.0704
11461POPC   C1A59102  22.942   4.793   8.643 -0.0012  0.3553  0.0657
11461POPC   D2A59103  23.071   4.843   8.989 -0.0285  0.0443  0.0650
11461POPC   C3A59104  23.347   4.983   9.230  0.1051  0.0336 -0.1821
11461POPC   C4A59105  23.592   5.357   9.370 -0.2294  0.1095 -0.1007
11461POPC   C1B59106  23.272   5.137   8.416  0.0868  0.0680  0.2021
11461POPC   C2B59107  23.487   4.872   8.684 -0.0888  0.0549 -0.1363
11461POPC   C3B59108  23.737   4.781   8.915  0.1865 -0.0843 -0.2487
11461POPC   C4B59109  23.814   4.850   9.357 -0.1260 -0.3297  0.0943
11462POPC   NC359110  18.671  33.037   8.969  0.1196 -0.0527  0.2122
11462POPC   PO459111  19.127  33.181   9.028  0.2670 -0.2259  0.2970
11462POPC   GL159112  19.318  32.897   9.271  0.0829 -0.1576  0.2902
11462POPC   GL259113  19.623  32.680   9.172  0.0157  0.3142 -0.0739
11462POPC   C1A59114  19.423  32.841   9.738  0.0531 -0.0574  0.1091
11462POPC   D2A59115  19.585  32.716  10.089  0.3035 -0.0122  0.0732
11462POPC   C3A59116  19.847  32.620  10.466  0.1904 -0.1134  0.0187
11462POPC   C4A59117  20.267  32.695  10.639 -0.0504  0.0785  0.0589
11462POPC   C1B59118  19.987  32.803   9.408  0.5341 -0.1218 -0.2597
11462POPC   C2B59119  20.236  33.129   9.450 -0.2496  0.0597  0.1536
11462POPC   C3B59120  20.434  33.354   9.743  0.2146  0.1060 -0.0950
11462POPC   C4B59121  20.731  33.470  10.030 -0.0103  0.0851 -0.0449
11463POPC   NC359122  29.532  27.650   2.588  0.2205  0.1966  0.3241
11463POPC   PO459123  29.495  27.379   2.933  0.1713  0.0999  0.0213
11463POPC   GL159124  29.472  27.150   3.293 -0.1783  0.0332 -0.1641
11463POPC   GL259125  29.310  27.296   3.616 -0.0202 -0.2321 -0.1014
11463POPC   C1A59126  29.489  26.848   3.644  0.0228 -0.2244 -0.1285
11463POPC   D2A59127  29.615  26.823   4.110  0.1068  0.0613  0.0395
11463POPC   C3A59128  29.556  26.554   4.439  0.0313  0.2195 -0.0787
11463POPC   C4A59129  29.394  26.175   4.799  0.2117 -0.0344 -0.1120
11463POPC   C1B59130  29.127  27.059   3.984  0.0751  0.1036 -0.0570
11463POPC   C2B59131  29.115  26.830   4.338  0.1871  0.1585  0.4757
11463POPC   C3B59132  29.076  26.600   4.780 -0.3822  0.0354 -0.0316
11463POPC   C4B59133  28.844  26.586   5.122 -0.0831  0.1310 -0.0216
11464DOPC   NC359134   2.407  27.483  10.543  0.3739 -0.0476 -0.0249
11464DOPC   PO459135   2.180  27.840  10.363  0.1724  0.0272 -0.0267
11464DOPC   GL159136   1.804  27.614  10.521  0.1966 -0.1136 -0.2953
11464DOPC   GL259137   1.896  27.391  10.690  0.0060  0.1594  0.0163
11464DOPC   C1A59138   1.567  27.130  10.351  0.0378 -0.1436  0.2302
11464DOPC   D2A59139   1.207  26.820  10.484 -0.0667  0.2251 -0.4170
11464DOPC   C3A59140   0.992  26.876  10.829 -0.0533  0.0870  0.0336
11464DOPC   C4A59141   0.662  26.949  10.958  0.0080  0.1180  0.0826
11464DOPC   C1B59142   1.802  27.053  10.848  0.1554  0.2207 -0.1352
11464DOPC   D2B59143   1.560  26.845  11.074 -0.0987 -0.1119  0.1487
11464DOPC   C3B59144   1.206  26.802  11.290 -0.1267  0.0573 -0.1046
11464DOPC   C4B59145   0.760  26.770  11.376 -0.1393 -0.1688  0.1965
11465DOPC   NC359146  20.126  34.867   8.870  0.0359 -0.1924  0.1684
11465DOPC   PO459147  20.490  35.098   8.691 -0.2141 -0.2670  0.2061
11465DOPC   GL159148  20.778  35.180   9.039  0.2232  0.7421 -0.1358
11465DOPC   GL259149  21.125  35.244   9.097 -0.3602 -0.0105 -0.0773
11465DOPC   C1A59150  20.640   0.007   9.427  0.1376  0.1484 -0.0636
11465DOPC   D2A59151  20.528   0.342   9.747 -0.0866 -0.2493  0.0517
11465DOPC   C3A59152  20.293   0.149  10.079  0.0919  0.0949  0.0112
11465DOPC   C4A59153  20.213   0.231  10.524 -0.2403  0.0978 -0.1937
11465DOPC   C1B59154  21.138  35.239   9.493  0.0282  0.1053 -0.1824
11465DOPC   D2B59155  21.219  35.082   9.984 -0.0916 -0.1133  0.0915
11465DOPC   C3B59156  21.248  34.561  10.014 -0.1684 -0.0991  0.3112
11465DOPC   C4B59157  21.271  34.170   9.767 -0.0836  0.0865 -0.0475
11466DOPC   NC359158  34.468   2.694   8.151 -0.0510  0.2082  0.2946
11466DOPC   PO459159  34.521   2.319   8.417  0.1456  0.1385  0.1924
11466DOPC   GL159160  34.543   2.486   8.854 -0.0168 -0.3025  0.3231
11466DOPC   GL259161  34.906   2.375   8.817 -0.0447 -0.1433  0.0232
11466DOPC   C1A59162  34.413   2.626   9.309 -0.0306  0.1890 -0.1589
11466DOPC   D2A59163  34.270   2.689   9.749  0.1642 -0.2477  0.2411
11466DOPC   C3A59164  34.671   2.535   9.959 -0.2727  0.0616  0.2631
11466DOPC   C4A59165  35.042   2.536  10.127  0.0554 -0.1166  0.0611
11466DOPC   C1B59166  34.880   2.498   9.206 -0.1853  0.0703  0.0071
11466DOPC   D2B59167  34.835   2.676   9.530  0.0079 -0.1329 -0.0225
11466DOPC   C3B59168  35.104   2.920   9.827 -0.0361 -0.1577  0.0149
11466DOPC   C4B59169  35.081   3.263  10.059  0.1314 -0.0949  0.2752
11467DOPC   NC359170   0.907   6.246   6.500  0.0457 -0.1828 -0.0291
11467DOPC   PO459171   0.885   6.420   6.918  0.0948  0.1470 -0.2684
11467DOPC   GL159172   1.045   6.734   7.232  0.0655 -0.3306 -0.1615
11467DOPC   GL259173   1.175   6.519   7.534 -0.0583 -0.0737  0.0650
11467DOPC   C1A59174   0.819   6.962   7.565  0.0067  0.0449 -0.1841
11467DOPC   D2A59175   0.772   7.178   8.025 -0.0040 -0.2676  0.1003
11467DOPC   C3A59176   0.468   7.331   8.084 -0.2808 -0.1382 -0.0012
11467DOPC   C4A59177   0.245   7.603   8.130 -0.2754 -0.1791 -0.1087
11467DOPC   C1B59178   1.159   6.725   7.919  0.0520 -0.2857  0.1472
11467DOPC   D2B59179   0.912   6.781   8.260  0.1377 -0.1203  0.0859
11467DOPC   C3B59180   0.952   7.109   8.564  0.0412  0.2059 -0.0215
11467DOPC   C4B59181   0.985   7.093   9.057 -0.0831  0.1202  0.1348
11468DOPC   NC359182  24.894   2.881   6.708 -0.1422  0.0189 -0.2458
11468DOPC   PO459183  24.658   3.155   6.924 -0.2269  0.1237 -0.0232
11468DOPC   GL159184  24.891   2.905   7.297 -0.1555 -0.1374  0.3697
11468DOPC   GL259185  24.803   2.966   7.664  0.0753  0.2064  0.3983
11468DOPC   C1A59186  25.298   2.764   7.500 -0.2653  0.1042 -0.0294
11468DOPC   D2A59187  25.707   3.059   7.511 -0.2111  0.2375  0.1519
11468DOPC   C3A59188  25.853   3.109   7.931  0.0155 -0.1809  0.1221
11468DOPC   C4A59189  25.991   3.384   8.198  0.1282 -0.1003 -0.3370
11468DOPC   C1B59190  24.931   2.807   8.014 -0.2030  0.0957  0.2103
11468DOPC   D2B59191  25.213   2.671   8.324 -0.2038 -0.1519 -0.0833
11468DOPC   C3B59192  25.615   2.518   8.546  0.1011 -0.0473 -0.2478
11468DOPC   C4B59193  26.075   2.378   8.566 -0.1829  0.3421 -0.1163
11469DOPC   NC359194  20.445  14.115   8.468  0.2894  0.0311  0.0214
11469DOPC   PO459195  20.463  14.498   8.327  0.2644  0.1505  0.2808
11469DOPC   GL159196  20.901  14.347   8.319 -0.1805 -0.0869  0.1492
11469DOPC   GL259197  21.026  14.677   8.397  0.0198 -0.2315  0.1820
11469DOPC   C1A59198  21.351  14.171   8.348 -0.0452 -0.1133 -0.2073
11469DOPC   D2A59199  21.629  13.878   8.236  0.3354  0.0168  0.4670
11469DOPC   C3A59200  22.037  14.047   8.196  0.1978 -0.0981 -0.0682
11469DOPC   C4A59201  22.445  13.983   7.921  0.0818 -0.1628 -0.5360
11469DOPC   C1B59202  21.510  14.664   8.362 -0.1134 -0.2268 -0.4112
11469DOPC   D2B59203  21.823  14.377   8.445 -0.0399  0.2535  0.1340
11469DOPC   C3B59204  22.215  14.401   8.629 -0.1601 -0.1968 -0.1457
11469DOPC   C4B59205  22.379  14.088   8.882  0.0223 -0.0109  0.3746
11470DOPC   NC359206   8.369  20.120  15.597 -0.4408  0.2041 -0.2876
11470DOPC   PO459207   8.269  19.892  15.190  0.0703  0.1186 -0.3300
11470DOPC   GL159208   7.995  19.583  15.229  0.0766 -0.1813  0.1722
11470DOPC   GL259209   8.170  19.329  15.349  0.2470 -0.0923  0.2313
11470DOPC   C1A59210   7.657  19.543  15.514  0.0691 -0.0097 -0.1994
11470DOPC   D2A59211   7.641  19.267  15.836  0.2028 -0.4082 -0.2948
11470DOPC   C3A59212   7.712  19.146  16.207 -0.0057  0.2878 -0.0631
11470DOPC   C4A59213   7.901  18.748  16.436 -0.0758 -0.1245 -0.3190
11470DOPC   C1B59214   7.945  19.077  15.473  0.0544  0.3753  0.0666
11470DOPC   D2B59215   7.821  18.842  15.797  0.0245  0.1235 -0.0367
11470DOPC   C3B59216   7.585  18.467  15.694 -0.2558  0.1693 -0.0035
11470DOPC   C4B59217   7.160  18.355  15.815  0.1825  0.0436 -0.3198
11471DOPC   NC359218  29.426   0.749   6.482 -0.1562  0.0155 -0.0667
11471DOPC   PO459219  29.752   0.721   6.785 -0.0734  0.0943  0.1065
11471DOPC   GL159220  29.504   0.679   7.066 -0.2435 -0.0514  0.4059
11471DOPC   GL259221  29.320   1.003   7.066 -0.1562  0.0499 -0.4888
11471DOPC   C1A59222  29.175   0.403   7.280 -0.2363 -0.3730 -0.2433
11471DOPC   D2A59223  28.847   0.346   7.529 -0.0828 -0.0370  0.1272
11471DOPC   C3A59224  28.454   0.459   7.424 -0.1006  0.0796  0.4281
11471DOPC   C4A59225  28.307   0.850   7.409 -0.0396  0.0941 -0.0345
11471DOPC   C1B59226  29.050   1.261   7.292  0.2560 -0.1568  0.0032
11471DOPC   D2B59227  29.268   1.534   7.602  0.2312  0.3687 -0.1936
11471DOPC   C3B59228  28.900   1.356   7.873 -0.0855  0.0287 -0.1806
11471DOPC   C4B59229  28.843   1.223   8.228 -0.0292 -0.0832  0.1251
11472DOPC   NC359230   1.937  29.377   9.914 -0.0254 -0.0648 -0.1958
11472DOPC   PO459231   1.677  29.183   9.592 -0.0834 -0.0410  0.1318
11472DOPC   GL159232   1.571  29.021   9.963  0.1237 -0.1727  0.2727
11472DOPC   GL259233   1.709  29.130  10.259 -0.2122 -0.0184 -0.1880
11472DOPC   C1A59234   1.327  28.810  10.143  0.2529  0.1604 -0.1872
11472DOPC   D2A59235   0.937  28.566  10.357 -0.1235 -0.1176  0.0076
11472DOPC   C3A59236   0.716  28.677  10.564  0.1488  0.1760 -0.3070
11472DOPC   C4A59237   0.446  28.780  10.840 -0.0477  0.0321 -0.1199
11472DOPC   C1B59238   1.219  29.286  10.333 -0.0801 -0.2873  0.2027
11472DOPC   D2B59239   0.843  29.183  10.543  0.0983 -0.0415 -0.0089
11472DOPC   C3B59240   0.551  29.328  10.538 -0.0902  0.0048  0.0049
11472DOPC   C4B59241   0.212  29.462  10.554  0.3200  0.3708  0.2753
11473DOPC   NC359242   4.070  20.886   5.754 -0.2842 -0.0552 -0.0280
11473DOPC   PO459243   4.451  20.932   5.942 -0.3121  0.0012  0.0350
11473DOPC   GL159244   4.241  20.550   6.086 -0.0821 -0.0428  0.1010
11473DOPC   GL259245   4.124  20.743   6.361 -0.1446 -0.0809  0.0696
11473DOPC   C1A59246   3.813  20.297   6.255 -0.0554  0.0264 -0.0232
11473DOPC   D2A59247   3.675  20.198   6.651 -0.0412  0.2837 -0.2194
11473DOPC   C3A59248   3.444  20.124   7.060  0.0373  0.0140  0.0695
11473DOPC   C4A59249   3.067  20.065   7.306 -0.1434 -0.0847 -0.1579
11473DOPC   C1B59250   3.836  20.671   6.653 -0.1997 -0.0072  0.0304
11473DOPC   D2B59251   3.576  20.776   6.890  0.3032 -0.0148 -0.0631
11473DOPC   C3B59252   3.367  20.716   7.201  0.0689 -0.2245 -0.1026
11473DOPC   C4B59253   3.238  20.495   7.510 -0.0069  0.0801 -0.0863
11474DOPC   NC359254  15.502  10.111  14.340 -0.1197  0.4097  0.1492
11474DOPC   PO459255  15.433   9.712  14.245  0.0318  0.1388 -0.0860
11474DOPC   GL159256  15.656   9.630  14.652 -0.1115 -0.1968 -0.1903
11474DOPC   GL259257  15.838   9.952  14.758 -0.1827  0.2333 -0.1796
11474DOPC   C1A59258  15.568   9.352  15.013  0.2260 -0.3904 -0.3288
11474DOPC   D2A59259  15.760   9.158  15.419 -0.1568 -0.1004 -0.0856
11474DOPC   C3A59260  15.764   8.745  15.534  0.1435 -0.1951  0.3307
11474DOPC   C4A59261  15.704   8.500  15.791 -0.0233 -0.0681 -0.0112
11474DOPC   C1B59262  15.871   9.734  15.252  0.2667  0.0121  0.0715
11474DOPC   D2B59263  15.909   9.679  15.662  0.2178  0.1107  0.0667
11474DOPC   C3B59264  16.281   9.584  15.738 -0.0335  0.1943 -0.1275
11474DOPC   C4B59265  16.698   9.508  15.986 -0.0608 -0.0139  0.2258
11475DOPC   NC359266   8.281  22.744  16.508 -0.0067 -0.1143 -0.3590
11475DOPC   PO459267   8.393  22.446  16.193  0.1079 -0.1438 -0.2212
11475DOPC   GL159268   7.970  22.324  16.439 -0.4360 -0.1812 -0.2590
11475DOPC   GL259269   7.709  22.330  16.184 -0.0861  0.1091  0.1765
11475DOPC   C1A59270   7.722  22.296  16.795 -0.2930  0.1876  0.2246
11475DOPC   D2A59271   7.275  22.107  16.951  0.0572 -0.0930  0.0851
11475DOPC   C3A59272   7.035  22.048  17.327 -0.1637 -0.1838  0.0794
11475DOPC   C4A59273   6.744  22.194  17.508 -0.1121 -0.0755 -0.4425
11475DOPC   C1B59274   7.362  22.238  16.463  0.1611  0.2735  0.1864
11475DOPC   D2B59275   6.939  22.207  16.543  0.0506 -0.2757 -0.0122
11475DOPC   C3B59276   6.735  22.121  16.922  0.1022  0.0132 -0.1975
11475DOPC   C4B59277   6.381  22.290  16.929 -0.1404 -0.1815 -0.2212
11476DOPC   NC359278  17.762  23.764  13.646 -0.3569  0.0547 -0.3012
11476DOPC   PO459279  17.852  23.422  13.954  0.0671 -0.0615  0.0296
11476DOPC   GL159280  17.945  23.562  14.309  0.1174 -0.0249  0.0895
11476DOPC   GL259281  17.896  23.485  14.589  0.0705  0.0677 -0.2651
11476DOPC   C1A59282  18.307  23.713  14.373 -0.0417  0.0292 -0.0871
11476DOPC   D2A59283  18.528  23.935  14.383  0.1308 -0.0040 -0.2200
11476DOPC   C3A59284  18.828  23.903  14.481 -0.2591 -0.1987  0.0945
11476DOPC   C4A59285  19.126  23.947  14.665 -0.2836  0.2107  0.0308
11476DOPC   C1B59286  18.235  23.141  14.685  0.0495  0.1376  0.0844
11476DOPC   D2B59287  18.559  23.057  14.967  0.4682 -0.2333 -0.2527
11476DOPC   C3B59288  18.697  22.951  15.341  0.0888 -0.0888 -0.2638
11476DOPC   C4B59289  18.572  22.763  15.754  0.1096  0.1414 -0.1197
11477DOPC   NC359290  19.238  23.966  10.721 -0.3991 -0.2785 -0.0941
11477DOPC   PO459291  19.440  24.168  11.093  0.0024 -0.1553 -0.0819
11477DOPC   GL159292  19.860  24.226  11.076 -0.3717  0.1544  0.0604
11477DOPC   GL259293  20.077  24.102  11.216  0.1718 -0.2288 -0.4090
11477DOPC   C1A59294  20.037  24.569  10.949  0.0744  0.0082  0.0501
11477DOPC   D2A59295  19.913  24.895  10.759  0.2537 -0.1719  0.0665
11477DOPC   C3A59296  19.833  25.259  11.000  0.3433  0.1295 -0.0290
11477DOPC   C4A59297  19.578  25.619  11.007  0.0764 -0.2644  0.2550
11477DOPC   C1B59298  20.423  24.175  11.433 -0.0003  0.0046  0.2537
11477DOPC   D2B59299  20.763  24.369  11.523 -0.0637 -0.1291  0.1202
11477DOPC   C3B59300  20.731  24.786  11.324 -0.1175 -0.1363 -0.1374
11477DOPC   C4B59301  20.658  25.138  11.453  0.0247 -0.0608 -0.0040
11478DOPC   NC359302  17.513   0.782  10.204  0.1290 -0.1335 -0.1168
11478DOPC   PO459303  17.474   1.196  10.363  0.1339  0.2198  0.0929
11478DOPC   GL159304  17.378   0.856  10.668  0.1588 -0.0708 -0.2283
11478DOPC   GL259305  17.642   0.740  10.726  0.0002  0.1362 -0.2049
11478DOPC   C1A59306  17.280   0.412  10.925 -0.0121  0.0423 -0.0453
11478DOPC   D2A59307  17.366   0.161  11.189  0.6226 -0.1033  0.1364
11478DOPC   C3A59308  17.169   0.268  11.654 -0.0752 -0.0673  0.2025
11478DOPC   C4A59309  17.127   0.429  12.159 -0.2263 -0.3245 -0.0084
11478DOPC   C1B59310  17.731   0.625  11.241 -0.1265 -0.0356 -0.1884
11478DOPC   D2B59311  18.110   0.663  11.443  0.1097 -0.3954  0.0706
11478DOPC   C3B59312  18.127   0.487  11.808 -0.1065  0.1434  0.4508
11478DOPC   C4B59313  18.205   0.240  12.057  0.3870 -0.2307  0.1670
11479DOPC   NC359314   8.963  20.319  15.606  0.0541 -0.1083  0.1914
11479DOPC   PO459315   8.888  20.629  15.932 -0.2440  0.4521  0.0527
11479DOPC   GL159316   8.574  20.528  16.017  0.2332 -0.3892  0.1134
11479DOPC   GL259317   8.278  20.749  15.976 -0.1227 -0.1198 -0.1632
11479DOPC   C1A59318   8.368  20.446  16.439  0.0893  0.0682 -0.1051
11479DOPC   D2A59319   8.249  20.274  16.693 -0.3578 -0.0814 -0.2701
11479DOPC   C3A59320   8.031  20.000  16.881 -0.0885  0.0242  0.0498
11479DOPC   C4A59321   7.895  19.822  17.366 -0.1155 -0.0143 -0.2318
11479DOPC   C1B59322   7.987  20.494  16.117  0.1298 -0.1692  0.0240
11479DOPC   D2B59323   7.807  20.277  16.454 -0.2342 -0.3238  0.4066
11479DOPC   C3B59324   7.486  20.153  16.423 -0.1113 -0.4481  0.0572
11479DOPC   C4B59325   7.228  19.947  16.692 -0.1317 -0.1182 -0.2795
11480DOPC   NC359326  12.509  31.382  16.581 -0.4611  0.3025 -0.1255
11480DOPC   PO459327  12.508  30.892  16.639 -0.2112 -0.1933  0.0005
11480DOPC   GL159328  12.507  31.021  17.026 -0.3620  0.2971 -0.1720
11480DOPC   GL259329  12.695  30.751  17.148 -0.0011  0.3323  0.1470
11480DOPC   C1A59330  12.631  31.147  17.455  0.0854  0.0615 -0.0266
11480DOPC   D2A59331  12.577  31.245  17.903 -0.0783  0.1821 -0.0353
11480DOPC   C3A59332  12.984  31.224  18.224 -0.0202 -0.2698 -0.0521
11480DOPC   C4A59333  13.066  31.220  18.692  0.2487  0.0051 -0.1176
11480DOPC   C1B59334  13.022  30.793  17.506  0.0087 -0.5282  0.0282
11480DOPC   D2B59335  13.031  30.776  17.953  0.0203  0.1168  0.0293
11480DOPC   C3B59336  13.272  30.414  18.100 -0.0434 -0.4188 -0.3259
11480DOPC   C4B59337  13.675  30.412  18.329 -0.0660  0.0289  0.2539
11481DOPC   NC359338  16.438  17.048  14.174 -0.1146  0.3301 -0.3276
11481DOPC   PO459339  16.811  17.015  14.139 -0.1557 -0.1763  0.0689
11481DOPC   GL159340  17.050  16.770  14.445 -0.1580  0.1651  0.0334
11481DOPC   GL259341  17.212  16.523  14.455  0.0987  0.3559  0.0134
11481DOPC   C1A59342  17.246  16.834  14.844 -0.0834 -0.0246 -0.1045
11481DOPC   D2A59343  17.401  16.795  15.181 -0.0713  0.2293  0.1009
11481DOPC   C3A59344  17.452  17.124  15.362 -0.2209 -0.0568 -0.0048
11481DOPC   C4A59345  17.286  17.396  15.672 -0.0361 -0.1384 -0.2724
11481DOPC   C1B59346  17.606  16.477  14.693 -0.0947 -0.0649 -0.2786
11481DOPC   D2B59347  17.853  16.298  14.915 -0.0130 -0.1142 -0.1008
11481DOPC   C3B59348  17.825  16.219  15.407 -0.0405  0.2446  0.2671
11481DOPC   C4B59349  17.742  16.195  15.838  0.0585 -0.0977 -0.0206
11482DOPC   NC359350   4.417  12.109   8.297 -0.0428 -0.0200  0.0445
11482DOPC   PO459351   4.665  11.864   8.600 -0.1960  0.0527 -0.1353
11482DOPC   GL159352   4.170  11.903   8.723 -0.1107 -0.0259  0.0654
11482DOPC   GL259353   3.971  12.085   8.563 -0.2719  0.2534  0.1162
11482DOPC   C1A59354   3.773  11.895   8.936  0.0643 -0.1727  0.0924
11482DOPC   D2A59355   3.460  12.113   9.159 -0.1720 -0.2253  0.0073
11482DOPC   C3A59356   3.093  12.405   9.221 -0.1232  0.1345  0.1246
11482DOPC   C4A59357   2.801  12.567   9.429 -0.0119  0.0500 -0.2020
11482DOPC   C1B59358   3.605  11.854   8.431  0.1302  0.0562  0.0579
11482DOPC   D2B59359   3.304  11.496   8.276  0.2213 -0.0539  0.0149
11482DOPC   C3B59360   2.875  11.501   8.499 -0.1022  0.2204  0.1758
11482DOPC   C4B59361   2.524  11.578   8.851 -0.1607 -0.3196  0.0163
11483DOPC   NC359362  16.885  25.426  14.041 -0.2477  0.2262 -0.1134
11483DOPC   PO459363  16.892  25.836  14.166  0.0619 -0.0377 -0.1042
11483DOPC   GL159364  17.323  25.899  14.251 -0.4512 -0.2013  0.0076
11483DOPC   GL259365  17.590  25.682  14.484 -0.1119  0.2271  0.0843
11483DOPC   C1A59366  17.677  26.171  14.381  0.0876  0.0160  0.0641
11483DOPC   D2A59367  17.934  26.520  14.310 -0.0575 -0.1604  0.2939
11483DOPC   C3A59368  17.905  26.903  13.958 -0.0155 -0.0142  0.3890
11483DOPC   C4A59369  17.936  26.886  13.600  0.0125 -0.4651 -0.0977
11483DOPC   C1B59370  17.908  25.771  14.744  0.2235  0.0243 -0.0893
11483DOPC   D2B59371  18.107  26.189  14.733 -0.3280  0.4216  0.1615
11483DOPC   C3B59372  18.275  26.307  15.054  0.2083  0.2660  0.0929
11483DOPC   C4B59373  18.632  26.521  15.242 -0.0171  0.2912 -0.1911
11484DOPC   NC359374   3.523  15.779   5.113 -0.1592  0.1297  0.0115
11484DOPC   PO459375   3.294  15.395   5.004 -0.0217 -0.1400  0.0861
11484DOPC   GL159376   3.001  15.176   5.262 -0.0911  0.2548 -0.0206
11484DOPC   GL259377   2.830  15.472   5.229  0.0974  0.1553 -0.1014
11484DOPC   C1A59378   2.637  15.073   5.448 -0.2968 -0.0681 -0.1182
11484DOPC   D2A59379   2.355  15.079   5.785  0.1845  0.0525  0.1108
11484DOPC   C3A59380   2.113  15.219   5.650  0.0779 -0.0080  0.2191
11484DOPC   C4A59381   1.909  15.679   5.630  0.0058 -0.0604  0.1028
11484DOPC   C1B59382   2.506  15.654   5.503 -0.1432  0.0088  0.0856
11484DOPC   D2B59383   2.393  15.633   5.933  0.1162 -0.0909  0.2465
11484DOPC   C3B59384   2.061  15.670   6.159  0.1361  0.0204 -0.1663
11484DOPC   C4B59385   1.931  15.483   6.507  0.0822 -0.0092 -0.2552
11485DOPC   NC359386   0.850  20.946   1.800  0.1197  0.2750 -0.1977
11485DOPC   PO459387   0.850  20.646   2.273 -0.6315 -0.1233  0.4075
11485DOPC   GL159388   0.480  20.798   2.275  0.0385 -0.3433 -0.0114
11485DOPC   GL259389   0.275  21.110   2.221  0.0206  0.0996 -0.0560
11485DOPC   C1A59390   0.143  20.673   2.613  0.1073 -0.1776 -0.0525
11485DOPC   D2A59391  35.284  20.842   2.891 -0.3263 -0.0409  0.1905
11485DOPC   C3A59392  34.801  20.762   2.991  0.0239 -0.1744 -0.0892
11485DOPC   C4A59393  34.487  20.663   3.257  0.1545 -0.1066  0.2275
11485DOPC   C1B59394   0.419  21.137   2.671  0.1328  0.1517 -0.4916
11485DOPC   D2B59395   0.463  20.818   3.016  0.1317  0.1660  0.1171
11485DOPC   C3B59396   0.205  20.858   3.335 -0.2598 -0.0212  0.0167
11485DOPC   C4B59397  35.302  21.129   3.501 -0.1689 -0.1160  0.1847
11486DOPC   NC359398   9.658  18.352  13.826 -0.1399 -0.1553 -0.0576
11486DOPC   PO459399   9.780  18.170  14.248  0.2299  0.0718  0.2681
11486DOPC   GL159400   9.496  17.978  14.515 -0.0102 -0.1695 -0.0042
11486DOPC   GL259401   9.533  18.099  14.776  0.1274 -0.0123 -0.2366
11486DOPC   C1A59402   9.120  17.834  14.458 -0.3184  0.2096  0.2090
11486DOPC   D2A59403   8.625  17.865  14.560 -0.5433  0.1824 -0.2981
11486DOPC   C3A59404   8.374  18.158  14.697 -0.1277 -0.1629 -0.0269
11486DOPC   C4A59405   8.442  18.483  14.938  0.0124 -0.1477 -0.0581
11486DOPC   C1B59406   9.822  18.178  15.144 -0.0472  0.0579 -0.0909
11486DOPC   D2B59407   9.751  17.935  15.392 -0.2271 -0.1296 -0.0732
11486DOPC   C3B59408   9.507  17.622  15.598 -0.1711 -0.1747 -0.4274
11486DOPC   C4B59409   9.349  17.268  15.820  0.0761 -0.0140  0.2179
11487DOPC   NC359410  15.102   1.094  12.069  0.0980  0.1656 -0.0838
11487DOPC   PO459411  15.048   1.459  12.263  0.2525  0.1781 -0.1002
11487DOPC   GL159412  15.142   1.663  12.699 -0.0632  0.2007 -0.0782
11487DOPC   GL259413  15.038   2.003  12.725 -0.2066  0.0218 -0.3792
11487DOPC   C1A59414  15.539   1.703  12.923  0.0789 -0.0733 -0.1021
11487DOPC   D2A59415  15.891   1.651  13.158 -0.0416  0.0721 -0.2200
11487DOPC   C3A59416  16.159   1.367  13.062  0.0114  0.1808  0.3060
11487DOPC   C4A59417  16.551   1.441  13.282  0.0146  0.2847  0.2633
11487DOPC   C1B59418  15.157   2.023  13.090  0.1437 -0.2588  0.1545
11487DOPC   D2B59419  15.369   1.887  13.489  0.0206 -0.0919  0.3179
11487DOPC   C3B59420  15.501   1.516  13.651 -0.0684 -0.2285  0.2070
11487DOPC   C4B59421  15.569   1.061  13.798  0.0266 -0.3272  0.1107
11488DOPC   NC359422  19.539   1.723   9.616 -0.1895  0.2094  0.1653
11488DOPC   PO459423  19.549   1.234   9.422  0.0893  0.1354  0.1301
11488DOPC   GL159424  19.917   1.202   9.631 -0.2952  0.1584 -0.1137
11488DOPC   GL259425  19.945   1.467   9.864 -0.0873  0.4635  0.2652
11488DOPC   C1A59426  20.293   0.939   9.698 -0.1295 -0.0337 -0.3045
11488DOPC   D2A59427  20.365   0.686  10.055 -0.0723  0.0625  0.1164
11488DOPC   C3A59428  20.658   0.450  10.219 -0.0864  0.0336 -0.3217
11488DOPC   C4A59429  20.701   0.317  10.675 -0.0226 -0.1706  0.0833
11488DOPC   C1B59430  20.139   1.256  10.148  0.1186  0.2866  0.0065
11488DOPC   D2B59431  20.181   0.924  10.422  0.0142 -0.1742 -0.2064
11488DOPC   C3B59432  20.294   0.596  10.818  0.1435 -0.1418  0.0879
11488DOPC   C4B59433  20.402   0.219  11.037 -0.1513  0.3216  0.1294
11489DOPC   NC359434  34.118  28.451   6.423  0.0722 -0.1585 -0.1351
11489DOPC   PO459435  34.163  28.852   6.642  0.2649 -0.0949  0.0707
11489DOPC   GL159436  33.983  28.621   6.890  0.4339 -0.2221  0.0008
11489DOPC   GL259437  34.141  28.595   7.146 -0.0682 -0.2500 -0.1816
11489DOPC   C1A59438  33.725  28.238   6.903  0.1536  0.1522  0.1424
11489DOPC   D2A59439  33.635  27.880   7.205  0.2227  0.1713 -0.0946
11489DOPC   C3A59440  33.751  27.674   7.636 -0.0309  0.2276  0.1960
11489DOPC   C4A59441  33.709  27.559   7.986  0.0572  0.2317  0.1083
11489DOPC   C1B59442  33.837  28.319   7.380 -0.0164 -0.1142  0.0198
11489DOPC   D2B59443  33.466  28.081   7.636 -0.1785 -0.0226  0.1828
11489DOPC   C3B59444  33.339  27.899   8.112 -0.1147 -0.2655  0.2764
11489DOPC   C4B59445  33.498  27.627   8.510  0.1304 -0.1298 -0.1854
11490DOPC   NC359446  24.273  23.913   3.429 -0.1707 -0.2339  0.2586
11490DOPC   PO459447  23.983  23.618   3.688  0.1865 -0.1367 -0.1736
11490DOPC   GL159448  24.294  23.461   3.581 -0.0299  0.0748  0.2196
11490DOPC   GL259449  24.319  23.126   3.669  0.0558  0.1440  0.1714
11490DOPC   C1A59450  24.751  23.338   3.745  0.2338 -0.1785 -0.0377
11490DOPC   D2A59451  25.094  23.249   4.008  0.2953  0.4027 -0.2519
11490DOPC   C3A59452  25.414  23.292   4.119  0.1767  0.1684  0.3020
11490DOPC   C4A59453  25.620  23.487   4.385  0.0363  0.2750  0.1020
11490DOPC   C1B59454  24.578  22.940   4.001  0.1994  0.0242  0.3348
11490DOPC   D2B59455  24.959  22.769   4.071 -0.1360 -0.0483  0.0862
11490DOPC   C3B59456  25.282  22.889   4.383  0.0624  0.1078 -0.0623
11490DOPC   C4B59457  25.799  22.994   4.383 -0.0554  0.2027  0.2743
11491DOPC   NC359458   1.079  28.968   9.012  0.1949  0.3673  0.2681
11491DOPC   PO459459   1.025  29.246   9.243 -0.1703 -0.2336 -0.2445
11491DOPC   GL159460   0.730  28.966   9.395 -0.1535 -0.0820 -0.1161
11491DOPC   GL259461   0.816  28.615   9.269  0.1037  0.0419 -0.0987
11491DOPC   C1A59462   0.435  28.849   9.611 -0.1275  0.3528 -0.0273
11491DOPC   D2A59463   0.310  28.623   9.792 -0.2505  0.0582  0.2458
11491DOPC   C3A59464  35.313  28.752  10.010 -0.0224  0.0446  0.3259
11491DOPC   C4A59465  35.023  28.721  10.341  0.2985  0.0607 -0.0376
11491DOPC   C1B59466   0.665  28.216   9.505 -0.2911 -0.1883  0.0593
11491DOPC   D2B59467   0.339  28.095   9.748 -0.0968 -0.0870  0.0044
11491DOPC   C3B59468   0.159  27.771   9.834  0.2268  0.2798  0.2871
11491DOPC   C4B59469  35.369  27.352   9.822  0.0338  0.3351  0.0901
11492DOPC   NC359470   7.211  17.553  12.563  0.3765 -0.0071 -0.1927
11492DOPC   PO459471   7.109  17.134  12.483  0.1833 -0.0655  0.1912
11492DOPC   GL159472   6.740  17.472  12.604 -0.0563 -0.0500 -0.0782
11492DOPC   GL259473   6.664  17.758  12.593  0.0159  0.1357  0.0619
11492DOPC   C1A59474   6.510  17.474  12.997 -0.1308  0.1289  0.2747
11492DOPC   D2A59475   6.111  17.445  13.151 -0.0482 -0.0998 -0.0424
11492DOPC   C3A59476   5.813  17.216  13.270  0.2604  0.1335 -0.0861
11492DOPC   C4A59477   5.375  16.903  13.330 -0.0336 -0.5345 -0.0315
11492DOPC   C1B59478   6.222  17.753  12.720  0.2263 -0.1755  0.0821
11492DOPC   D2B59479   5.804  17.687  12.916  0.2730 -0.0497 -0.1073
11492DOPC   C3B59480   5.725  17.750  13.287  0.0516 -0.3016 -0.0872
11492DOPC   C4B59481   5.535  17.822  13.715 -0.1295 -0.2030  0.0398
11493DOPC   NC359482  33.097  23.137   0.443 -0.2443  0.3239  0.0183
11493DOPC   PO459483  32.967  23.423   0.838 -0.3915  0.1791  0.1869
11493DOPC   GL159484  32.871  23.788   1.276  0.3244  0.1774 -0.0097
11493DOPC   GL259485  32.605  23.874   1.220 -0.0965  0.0795 -0.0583
11493DOPC   C1A59486  32.823  23.811   1.738 -0.0137 -0.0349 -0.1178
11493DOPC   D2A59487  32.561  23.894   2.108  0.0456  0.0031 -0.0378
11493DOPC   C3A59488  32.529  23.442   2.279  0.1180 -0.1289  0.1711
11493DOPC   C4A59489  32.354  23.102   2.312  0.2305 -0.3100 -0.1511
11493DOPC   C1B59490  32.246  23.683   1.323 -0.3012  0.2438  0.0989
11493DOPC   D2B59491  32.022  23.322   1.381 -0.0527 -0.1347 -0.2141
11493DOPC   C3B59492  31.743  22.938   1.291 -0.1274 -0.0072 -0.1332
11493DOPC   C4B59493  31.406  22.689   1.213  0.5264  0.2283 -0.2561
11494DOPC   NC359494  14.359  31.641  15.055  0.4376  0.0624 -0.0476
11494DOPC   PO459495  14.524  31.872  14.799  0.1969  0.3903 -0.1568
11494DOPC   GL159496  14.658  32.058  15.208  0.1269  0.1301 -0.1404
11494DOPC   GL259497  14.416  32.038  15.415  0.0032 -0.0967  0.4906
11494DOPC   C1A59498  14.933  32.256  15.488  0.0122  0.1267 -0.0309
11494DOPC   D2A59499  15.037  32.437  15.844 -0.0403  0.0920  0.3021
11494DOPC   C3A59500  14.906  32.639  16.141  0.3587  0.1316 -0.2354
11494DOPC   C4A59501  14.761  32.899  16.491  0.0695 -0.1353 -0.2318
11494DOPC   C1B59502  14.570  32.294  15.873 -0.0203  0.0090  0.2447
11494DOPC   D2B59503  14.452  32.346  16.300  0.2407  0.1477  0.1376
11494DOPC   C3B59504  14.535  32.499  16.697  0.1332 -0.0175 -0.1447
11494DOPC   C4B59505  14.879  32.497  16.781 -0.3447 -0.1065  0.1302
11495DOPC   NC359506  27.322  35.221   5.952  0.1204 -0.0022  0.0410
11495DOPC   PO459507  27.080  34.857   6.107  0.2166 -0.0107  0.0087
11495DOPC   GL159508  27.288  34.907   6.576 -0.0740  0.0124  0.3119
11495DOPC   GL259509  27.046  34.975   6.781 -0.1714  0.0959 -0.1625
11495DOPC   C1A59510  27.426  34.810   6.985 -0.0711 -0.1284 -0.1468
11495DOPC   D2A59511  27.469  34.541   7.254  0.0384 -0.0145 -0.5215
11495DOPC   C3A59512  27.599  34.280   7.524  0.0020 -0.0741 -0.1150
11495DOPC   C4A59513  28.006  34.162   7.670  0.0156  0.2559 -0.1053
11495DOPC   C1B59514  26.743  34.878   6.718 -0.2389 -0.0220 -0.1062
11495DOPC   D2B59515  26.527  34.713   6.987 -0.1770 -0.0651  0.0457
11495DOPC   C3B59516  26.263  34.887   7.248  0.1794 -0.0718 -0.5886
11495DOPC   C4B59517  26.205  34.868   7.721  0.2307  0.0954  0.0369
11496DOPC   NC359518  18.991  21.972  11.928  0.2576 -0.3231  0.0092
11496DOPC   PO459519  18.882  21.609  11.689 -0.4278 -0.2891 -0.1380
11496DOPC   GL159520  19.298  21.610  11.928 -0.0843 -0.1361 -0.0924
11496DOPC   GL259521  19.536  21.690  11.752  0.3165 -0.1969  0.0685
11496DOPC   C1A59522  19.596  21.863  12.253  0.4221  0.2465 -0.3022
11496DOPC   D2A59523  19.940  22.070  12.388  0.0043 -0.1369  0.0380
11496DOPC   C3A59524  20.192  22.008  12.669 -0.0861  0.1922 -0.1902
11496DOPC   C4A59525  20.617  22.060  12.465  0.1898 -0.2926  0.1153
11496DOPC   C1B59526  19.933  21.796  11.868 -0.2746 -0.0938 -0.0519
11496DOPC   D2B59527  20.187  21.649  12.070  0.1546  0.1293 -0.0859
11496DOPC   C3B59528  20.569  21.716  12.003  0.5474  0.0683 -0.2427
11496DOPC   C4B59529  20.984  21.785  12.006  0.2151  0.1738  0.0182
11497DOPC   NC359530   5.397  31.046  14.025  0.2300 -0.0669  0.0977
11497DOPC   PO459531   5.404  30.635  14.299 -0.0654 -0.1938  0.2359
11497DOPC   GL159532   5.206  30.604  14.727  0.2605  0.0914 -0.2038
11497DOPC   GL259533   5.386  30.419  14.968 -0.5382 -0.1545  0.1814
11497DOPC   C1A59534   5.022  30.967  14.982  0.0274  0.2028  0.2654
11497DOPC   D2A59535   5.072  31.242  15.288 -0.1538 -0.1663  0.2152
11497DOPC   C3A59536   4.754  31.259  15.498 -0.0918  0.1354  0.1590
11497DOPC   C4A59537   4.532  31.462  15.748 -0.2716 -0.0375 -0.0481
11497DOPC   C1B59538   5.275  30.759  15.358 -0.2374 -0.0118  0.3512
11497DOPC   D2B59539   5.188  31.004  15.703 -0.0754  0.2351  0.0148
11497DOPC   C3B59540   5.230  30.788  16.088  0.0160 -0.0250 -0.0556
11497DOPC   C4B59541   5.176  30.636  16.454 -0.0278 -0.0812  0.0596
11498DOPC   NC359542   8.796  31.332  16.476  0.1009  0.1260  0.0815
11498DOPC   PO459543   9.135  31.588  16.672 -0.4725  0.1996 -0.0060
11498DOPC   GL159544   9.059  31.360  16.957 -0.0809 -0.2931  0.0610
11498DOPC   GL259545   9.347  31.303  17.077  0.0268 -0.1656 -0.0977
11498DOPC   C1A59546   9.003  31.343  17.477 -0.0090  0.0104  0.0875
11498DOPC   D2A59547   8.973  31.514  17.782 -0.0375 -0.1726  0.0824
11498DOPC   C3A59548   8.714  31.652  18.033 -0.2035  0.3600 -0.0853
11498DOPC   C4A59549   8.388  31.871  18.097  0.0999  0.0671  0.1125
11498DOPC   C1B59550   9.256  31.733  17.292 -0.0910  0.0887  0.1746
11498DOPC   D2B59551   9.234  32.061  17.501 -0.0556  0.1541  0.0960
11498DOPC   C3B59552   9.155  31.976  17.883  0.1354 -0.1707 -0.0230
11498DOPC   C4B59553   9.065  32.011  18.350 -0.1998 -0.1847 -0.4597
11499DOPC   NC359554  28.696  33.459   5.774 -0.2949 -0.3074  0.0647
11499DOPC   PO459555  28.273  33.478   5.517  0.1926  0.3447 -0.1207
11499DOPC   GL159556  28.268  33.649   5.998  0.1239 -0.2808 -0.0957
11499DOPC   GL259557  28.439  33.407   6.181 -0.1312 -0.1709  0.2669
11499DOPC   C1A59558  28.040  33.850   6.403 -0.1147 -0.3077  0.0423
11499DOPC   D2A59559  28.087  34.015   6.811  0.0194  0.1926 -0.0611
11499DOPC   C3A59560  28.142  33.806   7.192 -0.3519 -0.3284 -0.0940
11499DOPC   C4A59561  28.221  33.600   7.631 -0.0898  0.1480  0.1417
11499DOPC   C1B59562  28.390  33.546   6.571  0.0382  0.3741 -0.2254
11499DOPC   D2B59563  28.438  33.478   7.007  0.0434  0.1572  0.1858
11499DOPC   C3B59564  28.232  33.050   6.993  0.2971 -0.0139  0.1523
11499DOPC   C4B59565  28.317  32.683   7.064  0.0972  0.0531  0.1202
11500DOPC   NC359566  15.770  25.305  16.233  0.2823  0.0536 -0.3652
11500DOPC   PO459567  16.250  25.388  16.303  0.0204 -0.1842 -0.0553
11500DOPC   GL159568  16.414  25.860  16.363  0.0003  0.1725 -0.2147
11500DOPC   GL259569  16.349  26.035  16.065  0.5673  0.0001  0.0572
11500DOPC   C1A59570  16.884  26.082  16.524 -0.1281 -0.0778 -0.1169
11500DOPC   D2A59571  17.188  26.188  16.702 -0.0364  0.1511 -0.0229
11500DOPC   C3A59572  17.375  26.504  16.667  0.1759  0.1556  0.2373
11500DOPC   C4A59573  17.468  26.893  16.789 -0.0557  0.2320 -0.0520
11500DOPC   C1B59574  16.606  26.342  16.161  0.2414 -0.0851  0.1510
11500DOPC   D2B59575  16.999  26.522  16.187 -0.1890  0.0606 -0.3283
11500DOPC   C3B59576  17.398  26.455  16.050  0.0934 -0.1239 -0.0531
11500DOPC   C4B59577  17.766  26.299  15.931 -0.0190  0.2094  0.1103
11501DOPC   NC359578  14.314  22.188  17.085 -0.0404 -0.0560 -0.2073
11501DOPC   PO459579  14.639  21.921  16.890 -0.1630  0.1341  0.3701
11501DOPC   GL159580  14.930  21.836  17.049 -0.1812  0.0972  0.1964
11501DOPC   GL259581  14.832  21.516  17.063 -0.0576  0.3102 -0.2086
11501DOPC   C1A59582  15.320  21.675  17.198 -0.0020 -0.1447  0.0156
11501DOPC   D2A59583  15.544  21.822  17.549  0.2579 -0.0800  0.1156
11501DOPC   C3A59584  15.563  22.213  17.579  0.0396 -0.1644 -0.1345
11501DOPC   C4A59585  15.397  22.430  17.910  0.1263 -0.1861 -0.0964
11501DOPC   C1B59586  14.894  21.527  17.447 -0.0500 -0.3553  0.1812
11501DOPC   D2B59587  15.228  21.352  17.625 -0.2227 -0.0828 -0.2481
11501DOPC   C3B59588  15.387  21.266  18.039 -0.1402 -0.0419  0.1024
11501DOPC   C4B59589  15.427  20.961  18.353  0.0852  0.1207 -0.0468
11502DOPC   NC359590  15.648  34.013  11.409 -0.0069 -0.0673 -0.0216
11502DOPC   PO459591  15.463  34.274  11.675  0.0880  0.1488  0.2286
11502DOPC   GL159592  15.808  34.323  11.890  0.1718  0.2876  0.2754
11502DOPC   GL259593  15.952  34.023  11.935  0.0792 -0.3117  0.1221
11502DOPC   C1A59594  16.107  34.429  12.176  0.3909  0.0430  0.0810
11502DOPC   D2A59595  16.314  34.605  12.494  0.0388  0.2075  0.2836
11502DOPC   C3A59596  16.451  34.463  12.838  0.0160  0.0007 -0.2344
11502DOPC   C4A59597  16.333  34.140  13.059 -0.0114 -0.0199  0.0250
11502DOPC   C1B59598  15.883  34.032  12.343  0.1586  0.2662  0.0692
11502DOPC   D2B59599  16.169  33.854  12.657 -0.0582  0.2431 -0.0053
11502DOPC   C3B59600  16.632  33.696  12.686 -0.2846  0.1104  0.1409
11502DOPC   C4B59601  17.056  33.641  12.543 -0.1993  0.1563 -0.4426
11503DOPC   NC359602  31.567  32.086   6.340  0.2199 -0.0005  0.0426
11503DOPC   PO459603  31.165  32.028   6.409 -0.0247 -0.0490  0.2521
11503DOPC   GL159604  31.032  32.136   6.845 -0.1797  0.1175  0.1742
11503DOPC   GL259605  30.793  31.959   7.057 -0.1377  0.2597 -0.0282
11503DOPC   C1A59606  30.865  32.409   7.142 -0.0419  0.3757  0.0989
11503DOPC   D2A59607  30.809  32.653   7.425  0.1473 -0.3079  0.1564
11503DOPC   C3A59608  30.811  32.567   7.810 -0.0087 -0.1791  0.1960
11503DOPC   C4A59609  30.738  32.442   8.233  0.0715 -0.1382  0.0759
11503DOPC   C1B59610  30.804  32.042   7.516  0.1058  0.0543 -0.6226
11503DOPC   D2B59611  30.687  32.055   7.979 -0.3582 -0.0186 -0.3874
11503DOPC   C3B59612  30.263  31.967   8.132  0.0271 -0.3448  0.0458
11503DOPC   C4B59613  30.144  31.688   8.449 -0.2995 -0.2715 -0.0613
11504DOPC   NC359614   1.033  26.531   6.901  0.0079 -0.0767 -0.0903
11504DOPC   PO459615   1.139  26.805   7.182 -0.0772 -0.3479  0.1621
11504DOPC   GL159616   1.075  26.870   7.685  0.1526 -0.0496  0.2329
11504DOPC   GL259617   0.761  26.949   7.844  0.1561  0.3093  0.1277
11504DOPC   C1A59618   0.992  26.443   7.905 -0.1257  0.0373 -0.2255
11504DOPC   D2A59619   0.726  26.192   8.183 -0.4445  0.1581  0.2794
11504DOPC   C3A59620   0.701  25.814   8.209  0.0040 -0.1082 -0.0298
11504DOPC   C4A59621   0.419  25.595   8.429 -0.1885  0.4146 -0.1144
11504DOPC   C1B59622   0.571  26.637   8.104 -0.0734 -0.0881  0.0337
11504DOPC   D2B59623   0.323  26.404   8.398  0.0698 -0.0761 -0.3412
11504DOPC   C3B59624   0.149  26.552   8.777  0.1389  0.0071  0.1243
11504DOPC   C4B59625   0.372  26.707   9.166  0.2724  0.3263 -0.3236
11505DOPC   NC359626  22.109  31.355   6.682  0.2615 -0.1877  0.0944
11505DOPC   PO459627  21.812  31.063   6.896  0.1465 -0.1612 -0.3307
11505DOPC   GL159628  21.855  30.992   7.290  0.3148 -0.2894 -0.3063
11505DOPC   GL259629  21.808  30.651   7.368 -0.0662 -0.1695  0.1654
11505DOPC   C1A59630  22.174  31.013   7.547  0.0430 -0.0110 -0.0819
11505DOPC   D2A59631  22.420  30.800   7.772  0.0200 -0.1489 -0.0741
11505DOPC   C3A59632  22.711  30.783   8.151  0.0514  0.0389 -0.0500
11505DOPC   C4A59633  22.772  30.769   8.526 -0.1407  0.2628 -0.0831
11505DOPC   C1B59634  22.062  30.498   7.724  0.0247  0.0150  0.1938
11505DOPC   D2B59635  22.107  30.540   8.132  0.2869  0.0892  0.1621
11505DOPC   C3B59636  22.344  30.464   8.343 -0.1422  0.4034  0.4053
11505DOPC   C4B59637  22.392  30.486   8.712  0.1455 -0.2821  0.2597
11506DOPC   NC359638  20.868  17.361   4.588 -0.2283 -0.0098  0.2642
11506DOPC   PO459639  21.335  17.453   4.663  0.2008 -0.0680 -0.0864
11506DOPC   GL159640  21.720  17.487   4.704 -0.0224 -0.0810 -0.0715
11506DOPC   GL259641  21.980  17.739   4.505  0.1236 -0.2049  0.2705
11506DOPC   C1A59642  22.031  17.160   4.847 -0.0247  0.0138  0.3305
11506DOPC   D2A59643  22.255  16.858   5.020  0.2367  0.3526  0.1401
11506DOPC   C3A59644  22.528  16.912   5.280  0.1224  0.0095  0.2515
11506DOPC   C4A59645  22.911  16.805   5.511  0.3069  0.0892  0.0751
11506DOPC   C1B59646  22.278  17.784   4.853  0.1016  0.0658 -0.0883
11506DOPC   D2B59647  22.655  17.887   5.045  0.1110 -0.3865  0.3809
11506DOPC   C3B59648  22.592  18.109   5.392  0.0848 -0.1212 -0.3597
11506DOPC   C4B59649  22.737  18.548   5.615  0.1363 -0.0056 -0.1171
11507DOPC   NC359650  13.637   6.966  13.771  0.0471  0.2539  0.2104
11507DOPC   PO459651  14.057   6.987  13.713  0.0067 -0.0034  0.0455
11507DOPC   GL159652  13.940   6.897  14.160  0.0746 -0.1119  0.0887
11507DOPC   GL259653  13.886   6.600  14.370 -0.1954 -0.2883 -0.1986
11507DOPC   C1A59654  14.023   6.999  14.599  0.1735  0.1866  0.1335
11507DOPC   D2A59655  14.013   7.152  14.908  0.1522  0.4122  0.2134
11507DOPC   C3A59656  14.198   6.839  15.124 -0.0657 -0.0002 -0.0353
11507DOPC   C4A59657  14.373   6.650  15.417  0.0852 -0.0051  0.3664
11507DOPC   C1B59658  13.978   6.550  14.806 -0.3603  0.0970  0.0713
11507DOPC   D2B59659  14.005   6.267  15.227  0.0451 -0.1102  0.3974
11507DOPC   C3B59660  13.901   5.887  15.369  0.1022  0.1964 -0.0147
11507DOPC   C4B59661  13.864   5.524  15.431  0.2737 -0.2486 -0.2706
11508DOPC   NC359662   2.418  19.337   3.092  0.0261  0.1905 -0.3506
11508DOPC   PO459663   1.953  19.187   3.219 -0.1377 -0.1469  0.1303
11508DOPC   GL159664   1.906  19.055   3.630  0.2276  0.1143  0.2722
11508DOPC   GL259665   2.215  18.994   3.730  0.0674  0.1875  0.0055
11508DOPC   C1A59666   1.569  18.891   3.898  0.0221  0.2366  0.0094
11508DOPC   D2A59667   1.264  18.812   4.242  0.0241 -0.0048 -0.1323
11508DOPC   C3A59668   1.059  18.585   4.432 -0.0956  0.1548 -0.2027
11508DOPC   C4A59669   1.052  18.308   4.754  0.1505  0.1377 -0.3348
11508DOPC   C1B59670   1.997  18.815   4.139 -0.0249  0.0163 -0.1019
11508DOPC   D2B59671   1.768  18.507   4.271  0.0375  0.2508  0.2896
11508DOPC   C3B59672   1.360  18.345   4.136 -0.4226 -0.1984  0.1581
11508DOPC   C4B59673   1.046  18.143   4.193  0.0263 -0.0048 -0.2135
11509DOPC   NC359674  26.185  21.179   0.476  0.0081 -0.1330  0.2491
11509DOPC   PO459675  26.232  20.723   0.406  0.2854  0.1137 -0.2568
11509DOPC   GL159676  26.584  20.808   0.537  0.3588 -0.1822  0.0127
11509DOPC   GL259677  26.679  21.236   0.537  0.3269 -0.1542 -0.0648
11509DOPC   C1A59678  26.979  20.569   0.599 -0.0899 -0.2243 -0.1302
11509DOPC   D2A59679  27.321  20.453   0.446  0.0808  0.2334  0.2432
11509DOPC   C3A59680  27.459  20.095   0.541  0.1991  0.0943  0.0754
11509DOPC   C4A59681  27.892  20.041   0.681 -0.2237 -0.1413  0.1245
11509DOPC   C1B59682  26.906  21.055   0.810 -0.3073  0.1835  0.5861
11509DOPC   D2B59683  26.959  20.937   1.177 -0.0855  0.1000 -0.1542
11509DOPC   C3B59684  27.333  21.056   1.376  0.0046  0.1751 -0.1862
11509DOPC   C4B59685  27.701  21.104   1.738  0.0429  0.1566  0.2340
11510DOPC   NC359686  28.646   3.561   5.533 -0.0994 -0.0656 -0.0699
11510DOPC   PO459687  29.009   3.749   5.657  0.0254 -0.0384  0.1353
11510DOPC   GL159688  28.984   4.142   5.940 -0.1293  0.3546  0.2661
11510DOPC   GL259689  29.275   4.065   6.141  0.1553  0.1744 -0.2900
11510DOPC   C1A59690  28.985   4.481   6.160 -0.0795  0.0409 -0.1038
11510DOPC   D2A59691  28.747   4.831   6.242 -0.1725 -0.1697  0.2089
11510DOPC   C3A59692  28.739   4.999   6.679 -0.0595  0.0717 -0.0276
11510DOPC   C4A59693  28.819   5.119   7.032  0.0698  0.0245  0.0735
11510DOPC   C1B59694  29.435   4.440   6.443  0.2535  0.0479  0.0395
11510DOPC   D2B59695  29.643   4.766   6.617 -0.2636  0.0261  0.3787
11510DOPC   C3B59696  29.603   5.241   6.726  0.1255  0.0736 -0.0303
11510DOPC   C4B59697  29.596   5.565   6.639 -0.3870  0.3337  0.2425
11511DOPC   NC359698  11.559  34.119  14.648  0.2232  0.1337 -0.1789
11511DOPC   PO459699  11.733  34.477  14.800 -0.0171 -0.2901 -0.1665
11511DOPC   GL159700  11.978  34.885  14.951 -0.0830 -0.0613  0.1379
11511DOPC   GL259701  12.192  34.867  15.141 -0.0099  0.1923  0.0554
11511DOPC   C1A59702  11.905  35.292  15.232 -0.0685  0.0309 -0.0207
11511DOPC   D2A59703  12.175   0.254  15.074  0.1422  0.1420 -0.0940
11511DOPC   C3A59704  12.539   0.368  15.307 -0.2287 -0.0697  0.3005
11511DOPC   C4A59705  12.901   0.513  15.326  0.0913 -0.1150  0.1576
11511DOPC   C1B59706  12.452  35.229  15.464 -0.2731 -0.1322 -0.1822
11511DOPC   D2B59707  12.623   0.234  15.794 -0.1955  0.2244 -0.2813
11511DOPC   C3B59708  12.462   0.639  15.797  0.0562  0.1048  0.1229
11511DOPC   C4B59709  12.203   0.925  15.833 -0.1252 -0.3419  0.1558
11512DOPC   NC359710   4.453  12.705   7.646  0.2949  0.1322 -0.2763
11512DOPC   PO459711   4.207  12.376   7.961  0.0624 -0.4557  0.0686
11512DOPC   GL159712   3.840  12.343   8.118  0.0036 -0.3643 -0.2578
11512DOPC   GL259713   3.778  12.517   7.791  0.2295 -0.0290  0.4976
11512DOPC   C1A59714   3.470  12.350   8.347  0.1237  0.4850  0.1733
11512DOPC   D2A59715   3.280  12.223   8.669 -0.0423 -0.2156 -0.0510
11512DOPC   C3A59716   3.204  11.793   8.781  0.1634  0.1365  0.1180
11512DOPC   C4A59717   3.332  11.341   8.821 -0.1318 -0.0569 -0.1819
11512DOPC   C1B59718   3.401  12.425   7.842 -0.1899 -0.1717  0.2879
11512DOPC   D2B59719   3.040  12.435   7.965 -0.2213  0.0393 -0.3494
11512DOPC   C3B59720   2.920  12.564   8.426  0.0886  0.0806 -0.1019
11512DOPC   C4B59721   2.921  12.573   8.777  0.3748 -0.1045  0.1528
11513DOPC   NC359722   4.619  10.533   7.774  0.1765 -0.1614 -0.1078
11513DOPC   PO459723   4.258  10.632   8.224 -0.4865 -0.0748 -0.2748
11513DOPC   GL159724   3.880  10.866   8.449 -0.2872 -0.1817 -0.1962
11513DOPC   GL259725   3.669  11.199   8.352 -0.3923 -0.2298  0.0885
11513DOPC   C1A59726   3.565  10.881   8.793  0.0792  0.1867  0.3637
11513DOPC   D2A59727   3.297  10.939   9.028  0.0051  0.1391  0.0465
11513DOPC   C3A59728   3.363  11.064   9.537 -0.1113 -0.0091  0.3017
11513DOPC   C4A59729   3.365  11.133   9.982 -0.2656  0.1143  0.0184
11513DOPC   C1B59730   3.863  11.352   8.752 -0.3250  0.2191  0.2099
11513DOPC   D2B59731   3.776  11.169   9.201  0.0503  0.0524  0.2140
11513DOPC   C3B59732   3.779  11.408   9.554  0.2280  0.0710 -0.1628
11513DOPC   C4B59733   3.392  11.548   9.775 -0.0112  0.2691 -0.2956
11514DOPC   NC359734  17.206  22.994  15.159  0.1375  0.2578  0.0136
11514DOPC   PO459735  17.504  23.330  15.015  0.1630 -0.0220  0.1187
11514DOPC   GL159736  17.594  23.262  15.464 -0.1084  0.1895 -0.1409
11514DOPC   GL259737  17.246  23.359  15.538 -0.4196 -0.0638 -0.1567
11514DOPC   C1A59738  17.900  23.291  15.784 -0.0165  0.2002 -0.1577
11514DOPC   D2A59739  18.249  23.096  15.910 -0.1857  0.1210 -0.5571
11514DOPC   C3A59740  18.608  23.191  16.107 -0.2519 -0.1259 -0.0125
11514DOPC   C4A59741  18.989  23.244  16.419 -0.0380  0.0196 -0.3221
11514DOPC   C1B59742  17.369  23.593  15.869  0.0737  0.0853  0.0013
11514DOPC   D2B59743  17.746  23.684  16.201 -0.2593  0.2172  0.2438
11514DOPC   C3B59744  17.929  24.103  16.136  0.2732 -0.0964  0.0022
11514DOPC   C4B59745  18.062  24.434  15.926 -0.1636 -0.1085 -0.0136
11515DOPC   NC359746  24.405   2.573   7.585  0.0299  0.0701  0.1031
11515DOPC   PO459747  24.384   2.218   7.262 -0.2138  0.2454  0.0790
11515DOPC   GL159748  24.562   2.143   7.706  0.0964 -0.1056  0.2404
11515DOPC   GL259749  24.292   2.124   7.862 -0.0358 -0.2144  0.1104
11515DOPC   C1A59750  24.758   2.010   8.041  0.1551  0.4827  0.2035
11515DOPC   D2A59751  24.725   1.987   8.526 -0.2042  0.0996  0.1749
11515DOPC   C3A59752  24.933   1.765   8.783  0.2114 -0.1294 -0.2077
11515DOPC   C4A59753  24.921   1.469   8.917  0.0215  0.0511 -0.1435
11515DOPC   C1B59754  24.301   2.141   8.306 -0.2600 -0.0855 -0.1166
11515DOPC   D2B59755  24.191   2.095   8.744  0.1176 -0.2254  0.0581
11515DOPC   C3B59756  24.461   1.897   8.976 -0.2035  0.0258  0.0266
11515DOPC   C4B59757  24.718   1.978   9.182 -0.0968 -0.2898  0.1685
11516DOPC   NC359758  27.393  34.342   5.875  0.1296  0.1288  0.0168
11516DOPC   PO459759  27.562  34.012   5.828  0.3581 -0.0275 -0.2239
11516DOPC   GL159760  27.467  33.924   6.226 -0.0941  0.2026  0.1001
11516DOPC   GL259761  27.116  33.928   6.163 -0.2036  0.2973 -0.2065
11516DOPC   C1A59762  27.613  33.885   6.700 -0.2003 -0.0454  0.1947
11516DOPC   D2A59763  27.682  34.014   7.135 -0.1517 -0.2117  0.1009
11516DOPC   C3A59764  27.712  33.790   7.467  0.2496  0.1074  0.3223
11516DOPC   C4A59765  27.749  33.721   7.893 -0.0009 -0.1051 -0.0770
11516DOPC   C1B59766  27.151  34.051   6.612 -0.0070  0.0836  0.0473
11516DOPC   D2B59767  27.195  33.970   7.057  0.0212  0.1438 -0.0734
11516DOPC   C3B59768  27.230  33.920   7.428 -0.2942  0.4032 -0.0686
11516DOPC   C4B59769  27.341  33.986   7.867 -0.2020  0.0691  0.0218
11517DOPC   NC359770   1.543  34.186  10.502  0.1446 -0.1912  0.0288
11517DOPC   PO459771   1.823  33.874  10.580 -0.0653 -0.1372 -0.0380
11517DOPC   GL159772   1.689  33.869  10.934 -0.1286 -0.1870  0.1020
11517DOPC   GL259773   1.751  33.693  11.104 -0.0503 -0.1703 -0.3541
11517DOPC   C1A59774   1.436  34.246  11.176 -0.3152 -0.0841 -0.2580
11517DOPC   D2A59775   1.195  34.546  11.380 -0.0975  0.2754  0.3700
11517DOPC   C3A59776   1.229  34.929  11.554 -0.2590  0.0066 -0.1544
11517DOPC   C4A59777   1.038  35.286  11.710 -0.2432  0.0332  0.0886
11517DOPC   C1B59778   1.610  33.906  11.514  0.0542  0.2951  0.1058
11517DOPC   D2B59779   1.371  34.171  11.779  0.0367 -0.1208 -0.2569
11517DOPC   C3B59780   1.006  34.224  12.171  0.3989 -0.2234  0.1396
11517DOPC   C4B59781   0.615  34.425  12.223 -0.1481 -0.4263  0.1489
11518DOPC   NC359782   5.666  11.390  10.121 -0.0244 -0.1192 -0.1308
11518DOPC   PO459783   5.769  11.739  10.072 -0.1044 -0.2882 -0.3493
11518DOPC   GL159784   5.390  11.798  10.158  0.1939  0.1873 -0.1293
11518DOPC   GL259785   5.345  11.642  10.488 -0.4241 -0.1248  0.2207
11518DOPC   C1A59786   4.987  11.856  10.242  0.2050  0.3066 -0.1357
11518DOPC   D2A59787   4.885  11.471  10.505  0.3682  0.0756 -0.3735
11518DOPC   C3A59788   4.859  11.455  10.848 -0.2065 -0.0328 -0.0288
11518DOPC   C4A59789   4.656  11.398  11.208  0.2188  0.3569 -0.2060
11518DOPC   C1B59790   5.351  11.279  10.791  0.1264  0.2033 -0.2003
11518DOPC   D2B59791   5.379  10.891  10.920  0.1856  0.0034  0.3188
11518DOPC   C3B59792   5.222  10.530  11.062  0.1198 -0.1367 -0.1846
11518DOPC   C4B59793   4.709  10.380  11.232 -0.0037 -0.0505  0.1995
11519DOPC   NC359794  16.155  29.480  12.593 -0.1703 -0.0164 -0.1239
11519DOPC   PO459795  16.271  29.913  12.646  0.0666  0.1337 -0.0510
11519DOPC   GL159796  16.479  30.266  12.696 -0.2133  0.0460  0.0995
11519DOPC   GL259797  16.745  30.096  12.555 -0.1298 -0.4221 -0.3813
11519DOPC   C1A59798  16.779  30.260  13.048  0.1345  0.0468  0.2585
11519DOPC   D2A59799  16.976  30.574  13.162 -0.1068  0.2948  0.1716
11519DOPC   C3A59800  16.922  30.903  13.387  0.0380  0.5464  0.0647
11519DOPC   C4A59801  16.735  31.340  13.499 -0.1102  0.1098 -0.0467
11519DOPC   C1B59802  17.186  30.008  12.840  0.0759 -0.0475  0.2095
11519DOPC   D2B59803  17.297  30.226  13.146 -0.0526  0.1837  0.0578
11519DOPC   C3B59804  17.515  30.511  13.248 -0.2184 -0.1347  0.0835
11519DOPC   C4B59805  17.844  30.936  13.291  0.1006 -0.1889 -0.0380
11520DOPC   NC359806   5.179   9.179   9.894 -0.1445 -0.3078  0.2387
11520DOPC   PO459807   5.297   9.058  10.335 -0.0317  0.2923 -0.1434
11520DOPC   GL159808   5.178   8.788  10.594  0.0834  0.1204 -0.1967
11520DOPC   GL259809   5.388   8.884  10.904 -0.1039  0.2470 -0.3040
11520DOPC   C1A59810   4.837   8.667  10.775 -0.0536 -0.1018 -0.2072
11520DOPC   D2A59811   4.590   8.805  11.085  0.0662  0.1935  0.1776
11520DOPC   C3A59812   4.523   8.982  11.446  0.1509  0.0535 -0.2833
11520DOPC   C4A59813   4.225   9.211  11.721 -0.1396 -0.0156 -0.1163
11520DOPC   C1B59814   5.200   8.990  11.253 -0.1908 -0.2362  0.2251
11520DOPC   D2B59815   5.337   9.171  11.540  0.2555  0.0220 -0.4832
11520DOPC   C3B59816   5.034   9.207  11.910 -0.2138 -0.1364 -0.1004
11520DOPC   C4B59817   4.677   9.307  12.035  0.0061 -0.0343 -0.0479
11521DOPC   NC359818   6.871  14.393  11.683 -0.0774 -0.1931  0.1561
11521DOPC   PO459819   6.839  14.605  12.148 -0.0196 -0.0672  0.4666
11521DOPC   GL159820   6.403  14.500  12.277 -0.5167 -0.2999  0.1338
11521DOPC   GL259821   6.361  14.275  12.442  0.0467  0.1841 -0.1819
11521DOPC   C1A59822   6.023  14.696  12.161 -0.0444  0.1312  0.0695
11521DOPC   D2A59823   5.600  14.794  12.249  0.3828  0.0735 -0.1358
11521DOPC   C3A59824   5.249  14.775  12.482  0.2038  0.2593 -0.2235
11521DOPC   C4A59825   5.036  14.826  12.740  0.0032  0.3374  0.0666
11521DOPC   C1B59826   6.102  14.391  12.792  0.0908  0.2423  0.0820
11521DOPC   D2B59827   5.726  14.400  13.071  0.1779 -0.0743 -0.2228
11521DOPC   C3B59828   5.268  14.449  13.101 -0.0304 -0.1281  0.0967
11521DOPC   C4B59829   4.974  14.625  13.173 -0.2547 -0.1220  0.1732
11522DOPC   NC359830  30.236   3.471   6.108 -0.2288 -0.1923 -0.3620
11522DOPC   PO459831  30.636   3.589   6.021 -0.0593  0.0771 -0.0819
11522DOPC   GL159832  30.353   3.934   6.286  0.3459 -0.0060 -0.0683
11522DOPC   GL259833  30.147   3.753   6.504  0.1236 -0.0019  0.0212
11522DOPC   C1A59834  30.292   4.280   6.610 -0.1754 -0.2878  0.0860
11522DOPC   D2A59835  30.382   4.531   6.993  0.2174  0.0380 -0.0867
11522DOPC   C3A59836  30.624   4.570   7.313 -0.2136  0.3557 -0.0163
11522DOPC   C4A59837  30.713   4.431   7.767  0.2376  0.0015  0.0969
11522DOPC   C1B59838  30.230   3.548   7.019 -0.0631  0.1636 -0.0409
11522DOPC   D2B59839  29.917   3.658   7.348  0.0216 -0.3660 -0.0506
11522DOPC   C3B59840  29.936   4.038   7.579 -0.0509  0.2072  0.0550
11522DOPC   C4B59841  29.658   4.138   7.908 -0.0217  0.2640 -0.1420
11523DOPC   NC359842  25.543  16.733   0.714  0.0802  0.0123  0.0519
11523DOPC   PO459843  25.543  16.326   0.643 -0.2592 -0.1639 -0.2520
11523DOPC   GL159844  25.717  16.168   1.024  0.3112 -0.0075 -0.1643
11523DOPC   GL259845  26.074  16.091   1.004 -0.2158  0.2521  0.1045
11523DOPC   C1A59846  25.734  16.172   1.455 -0.1305 -0.1272  0.2643
11523DOPC   D2A59847  25.965  16.341   1.736  0.2784 -0.1025  0.1065
11523DOPC   C3A59848  26.022  16.296   2.131 -0.2675 -0.3421 -0.0310
11523DOPC   C4A59849  26.340  16.493   2.358  0.0046 -0.0662  0.1704
11523DOPC   C1B59850  26.237  16.077   1.382 -0.2029 -0.0677 -0.2179
11523DOPC   D2B59851  26.421  16.189   1.793 -0.0825 -0.2001 -0.1521
11523DOPC   C3B59852  26.860  16.071   1.996  0.0113 -0.1033  0.1655
11523DOPC   C4B59853  27.192  15.861   1.982  0.2377 -0.1961 -0.0432
11524DOPC   NC359854  18.674  23.652  13.169  0.2195  0.0241 -0.0623
11524DOPC   PO459855  18.898  23.828  12.859  0.0553 -0.2856 -0.1029
11524DOPC   GL159856  19.191  23.942  13.089 -0.0545 -0.1580  0.2972
11524DOPC   GL259857  19.442  23.778  13.067  0.0404 -0.1716 -0.2827
11524DOPC   C1A59858  19.467  24.278  13.128  0.2177  0.2593  0.1643
11524DOPC   D2A59859  19.799  24.481  13.297  0.2147  0.0843  0.1823
11524DOPC   C3A59860  19.982  24.539  13.699 -0.0122  0.1999 -0.1803
11524DOPC   C4A59861  20.122  24.619  14.095  0.0123  0.2011  0.1705
11524DOPC   C1B59862  19.803  23.901  13.279  0.3705  0.6438 -0.0627
11524DOPC   D2B59863  20.181  24.103  13.324 -0.1734  0.0647 -0.3636
11524DOPC   C3B59864  20.332  24.218  13.745  0.0808 -0.4184  0.1007
11524DOPC   C4B59865  20.574  24.341  14.071 -0.0665  0.0974 -0.2087
11525DOPC   NC359866  16.249   5.919  12.606 -0.1199 -0.0009 -0.0778
11525DOPC   PO459867  15.921   5.952  12.970  0.1259 -0.2279 -0.0315
11525DOPC   GL159868  16.016   6.270  13.313  0.2131  0.2808 -0.0981
11525DOPC   GL259869  15.798   6.313  13.573  0.2912 -0.1857 -0.2364
11525DOPC   C1A59870  16.485   6.389  13.379 -0.1542  0.1518 -0.0007
11525DOPC   D2A59871  16.837   6.503  13.649 -0.1410  0.0904 -0.2172
11525DOPC   C3A59872  16.929   6.129  13.863 -0.0449  0.0557 -0.1066
11525DOPC   C4A59873  16.706   5.865  14.241  0.0712  0.0073 -0.2905
11525DOPC   C1B59874  15.957   6.146  13.818  0.0788  0.0257 -0.1293
11525DOPC   D2B59875  15.998   6.029  14.309 -0.2188  0.0161  0.2898
11525DOPC   C3B59876  16.235   5.722  14.561 -0.1265 -0.1575 -0.1635
11525DOPC   C4B59877  16.545   5.517  14.562  0.0027 -0.0655 -0.0203
11526DOPC   NC359878  26.865  30.480   5.795  0.0406 -0.2667 -0.1195
11526DOPC   PO459879  26.525  30.619   5.739  0.3989  0.0762  0.1274
11526DOPC   GL159880  26.525  30.916   6.101 -0.2013 -0.0004 -0.0686
11526DOPC   GL259881  26.342  30.865   6.256 -0.4435 -0.2461  0.1299
11526DOPC   C1A59882  26.775  30.856   6.473 -0.1064  0.1148  0.0636
11526DOPC   D2A59883  26.818  30.982   6.825  0.2328 -0.0866 -0.0059
11526DOPC   C3A59884  26.639  30.686   7.145 -0.0801 -0.1019  0.2750
11526DOPC   C4A59885  26.834  30.530   7.444 -0.0301 -0.3063 -0.4912
11526DOPC   C1B59886  26.322  30.766   6.641 -0.0439  0.0269 -0.0348
11526DOPC   D2B59887  26.192  30.617   6.965 -0.2312 -0.1044 -0.0561
11526DOPC   C3B59888  26.235  30.778   7.476 -0.2335 -0.0561 -0.0391
11526DOPC   C4B59889  26.478  30.631   7.853 -0.1671  0.0350 -0.1517
11527DOPC   NC359890  27.570  26.181   2.136  0.0551  0.0222  0.0975
11527DOPC   PO459891  27.547  26.322   2.510 -0.0121  0.0278 -0.1548
11527DOPC   GL159892  27.405  25.975   2.760 -0.0088  0.1188  0.0219
11527DOPC   GL259893  27.574  25.783   2.664 -0.3692 -0.0363  0.0825
11527DOPC   C1A59894  27.312  25.994   3.132  0.1912 -0.2697  0.2153
11527DOPC   D2A59895  27.339  25.909   3.484  0.2691 -0.0021  0.2767
11527DOPC   C3A59896  27.124  25.627   3.522 -0.0090 -0.1323  0.0651
11527DOPC   C4A59897  26.836  25.265   3.382 -0.3370  0.0587 -0.0929
11527DOPC   C1B59898  27.791  25.445   2.753 -0.2443 -0.2296  0.1641
11527DOPC   D2B59899  27.850  25.286   3.078 -0.0899  0.1454  0.2150
11527DOPC   C3B59900  28.219  25.321   3.427 -0.2829 -0.1225 -0.2104
11527DOPC   C4B59901  28.432  25.644   3.422  0.2038 -0.0753 -0.2069
11528DOPC   NC359902   3.634  26.430   9.672 -0.0253 -0.1047  0.4748
11528DOPC   PO459903   3.348  26.100   9.451  0.2225 -0.0247  0.2873
11528DOPC   GL159904   2.927  25.839   9.660  0.1479  0.2819  0.0121
11528DOPC   GL259905   2.731  25.988   9.517 -0.0240  0.1050  0.2576
11528DOPC   C1A59906   2.444  25.659   9.787 -0.1050  0.3956  0.2371
11528DOPC   D2A59907   2.126  25.395   9.734 -0.0798 -0.0205 -0.1332
11528DOPC   C3A59908   1.978  25.258  10.122 -0.2311 -0.1411  0.0098
11528DOPC   C4A59909   2.140  25.238  10.462  0.0240 -0.0947  0.2205
11528DOPC   C1B59910   2.452  25.850   9.187  0.1971 -0.4570 -0.2447
11528DOPC   D2B59911   2.096  25.628   9.126  0.1765  0.1395 -0.0367
11528DOPC   C3B59912   1.799  25.377   9.315  0.0524 -0.1603 -0.0880
11528DOPC   C4B59913   1.637  25.142   9.731  0.1489 -0.0106 -0.0722
11529DOPC   NC359914  29.259  12.220   0.650 -0.0292 -0.2596  0.0705
11529DOPC   PO459915  28.827  12.380   0.718  0.3718  0.2577 -0.0442
11529DOPC   GL159916  28.802  12.333   1.168  0.0569 -0.1350  0.1730
11529DOPC   GL259917  28.806  12.021   1.374 -0.1252 -0.2911 -0.4686
11529DOPC   C1A59918  28.799  12.492   1.588  0.3010  0.1338  0.1068
11529DOPC   D2A59919  28.847  12.522   2.047  0.0424 -0.1389 -0.2396
11529DOPC   C3A59920  29.300  12.504   2.295  0.1016  0.1085 -0.2995
11529DOPC   C4A59921  29.630  12.267   2.233  0.3431 -0.0127  0.0433
11529DOPC   C1B59922  28.670  12.054   1.773 -0.0236  0.1126  0.1542
11529DOPC   D2B59923  28.662  11.981   2.160  0.0242 -0.1119  0.0111
11529DOPC   C3B59924  28.599  12.283   2.444  0.3980  0.0523  0.2379
11529DOPC   C4B59925  28.724  12.654   2.627 -0.0791 -0.0676 -0.0157
11530DOPC   NC359926   2.524  10.098   5.601 -0.0332 -0.0028 -0.3737
11530DOPC   PO459927   2.041   9.910   5.766  0.1128  0.0721 -0.2697
11530DOPC   GL159928   1.717  10.217   5.948  0.2624  0.3860  0.1075
11530DOPC   GL259929   1.994  10.424   5.948 -0.1309 -0.2106  0.3220
11530DOPC   C1A59930   1.551  10.513   6.114  0.0337  0.0280 -0.1033
11530DOPC   D2A59931   1.597  10.962   6.011 -0.0558  0.2541 -0.1207
11530DOPC   C3A59932   1.342  11.000   6.256  0.3331 -0.0664 -0.3199
11530DOPC   C4A59933   1.012  10.711   6.344  0.1249 -0.0470 -0.0989
11530DOPC   C1B59934   1.828  10.750   5.661 -0.1988 -0.0511  0.0369
11530DOPC   D2B59935   1.542  11.017   5.439 -0.0219 -0.0962  0.1283
11530DOPC   C3B59936   1.113  11.100   5.339  0.4356 -0.0695  0.2663
11530DOPC   C4B59937   0.779  10.951   5.468 -0.0266 -0.2001  0.1078
11531DOPC   NC359938   5.330  25.700  11.888 -0.2890 -0.1312 -0.1237
11531DOPC   PO459939   5.245  25.364  11.585  0.1031  0.2628 -0.1988
11531DOPC   GL159940   4.964  25.026  11.335  0.3650 -0.3116  0.2026
11531DOPC   GL259941   4.733  24.902  11.549 -0.1296  0.1736 -0.3456
11531DOPC   C1A59942   4.563  24.754  11.118  0.2242  0.2354  0.1827
11531DOPC   D2A59943   4.286  24.364  10.931 -0.0035 -0.2037 -0.1916
11531DOPC   C3A59944   4.196  24.050  10.760  0.0680 -0.0163  0.3113
11531DOPC   C4A59945   3.840  23.794  10.741 -0.1121 -0.2592  0.2691
11531DOPC   C1B59946   4.424  24.547  11.593 -0.1635  0.0371 -0.1981
11531DOPC   D2B59947   3.988  24.407  11.731 -0.0068  0.1057 -0.1031
11531DOPC   C3B59948   3.901  24.424  12.234 -0.3919 -0.1043  0.0354
11531DOPC   C4B59949   4.278  24.315  12.475  0.3094  0.0554  0.0011
11532PAPC   NC359950   6.759  21.207   9.152  0.0869 -0.0353 -0.1500
11532PAPC   PO459951   6.386  21.041   8.996  0.1112 -0.0213  0.1261
11532PAPC   GL159952   6.067  21.365   8.764 -0.0622 -0.2559 -0.2053
11532PAPC   GL259953   5.842  21.347   8.507  0.0289  0.1457  0.2572
11532PAPC   D1A59954   5.929  21.826   8.816  0.1369  0.0059 -0.2275
11532PAPC   D2A59955   5.981  21.695   9.233 -0.0621  0.0021  0.3101
11532PAPC   D3A59956   6.286  21.628   9.403  0.0104 -0.1079 -0.1243
11532PAPC   D4A59957   5.944  21.533   9.681 -0.1995  0.3438 -0.5323
11532PAPC   C5A59958   5.862  21.257   9.929 -0.0228 -0.3790 -0.1515
11532PAPC   C1B59959   5.673  21.007   8.844  0.1677 -0.0011 -0.0454
11532PAPC   C2B59960   5.405  20.879   9.173 -0.2263  0.0215 -0.0648
11532PAPC   C3B59961   5.078  20.998   9.506 -0.2541 -0.2180 -0.1851
11532PAPC   C4B59962   4.967  21.298   9.827  0.1397  0.1489 -0.2699
11533PAPC   NC359963  15.764  22.646  16.931  0.1368 -0.0620 -0.1375
11533PAPC   PO459964  15.620  22.326  16.652 -0.0139  0.1357  0.1656
11533PAPC   GL159965  16.020  22.201  16.774 -0.0954 -0.0350 -0.0788
11533PAPC   GL259966  15.870  22.127  17.090 -0.4621  0.0375  0.0352
11533PAPC   D1A59967  16.324  22.020  17.086  0.2589  0.0158  0.1017
11533PAPC   D2A59968  16.671  22.022  17.443  0.0906  0.1637  0.4306
11533PAPC   D3A59969  17.091  22.044  17.384  0.0647 -0.1547  0.0358
11533PAPC   D4A59970  17.150  21.741  17.149 -0.0167 -0.1990 -0.1120
11533PAPC   C5A59971  16.984  21.454  16.929 -0.1732 -0.1818 -0.1699
11533PAPC   C1B59972  16.039  22.055  17.511 -0.0401  0.1505  0.0143
11533PAPC   C2B59973  16.334  21.917  17.805 -0.3386  0.1227  0.0854
11533PAPC   C3B59974  16.625  21.807  18.110 -0.0286  0.0919 -0.1426
11533PAPC   C4B59975  16.664  21.925  18.550  0.0080 -0.0350 -0.0396
11534PAPC   NC359976  34.402   9.313   3.133 -0.1539  0.0854  0.1451
11534PAPC   PO459977  34.716   9.236   3.411 -0.0959  0.1418  0.1277
11534PAPC   GL159978  34.631   9.632   3.757 -0.3313  0.2005 -0.3614
11534PAPC   GL259979  34.469   9.703   3.475 -0.3381  0.1716  0.1049
11534PAPC   D1A59980  34.769   9.793   4.085  0.0149  0.1577  0.1005
11534PAPC   D2A59981  35.022  10.076   3.806  0.4363 -0.0243  0.2062
11534PAPC   D3A59982  34.994  10.275   4.174  0.1582 -0.2627  0.0701
11534PAPC   D4A59983  35.311  10.504   3.883 -0.2360  0.0057  0.1367
11534PAPC   C5A59984   0.280  10.225   3.806 -0.1470  0.1391 -0.1077
11534PAPC   C1B59985  34.064   9.732   3.772 -0.2780 -0.0496 -0.0992
11534PAPC   C2B59986  33.857  10.026   4.118  0.1391  0.0329 -0.0717
11534PAPC   C3B59987  33.574  10.216   4.433 -0.0713 -0.0691 -0.3122
11534PAPC   C4B59988  33.339  10.208   4.799 -0.0895 -0.0157 -0.2505
11535PAPC   NC359989  26.320  17.612   0.271  0.0632 -0.1220 -0.0731
11535PAPC   PO459990  26.838  17.746   0.159  0.4385  0.0829  0.1344
11535PAPC   GL159991  26.979  17.558   0.464 -0.3267  0.1671 -0.3209
11535PAPC   GL259992  27.218  17.783   0.591  0.1612  0.2421  0.1946
11535PAPC   D1A59993  26.861  17.435   0.780 -0.0911 -0.0602  0.2773
11535PAPC   D2A59994  26.439  17.430   0.888 -0.0080  0.0422  0.1536
11535PAPC   D3A59995  26.053  17.383   1.209 -0.3618 -0.2016 -0.0882
11535PAPC   D4A59996  26.220  17.193   1.492  0.3112  0.1543  0.2784
11535PAPC   C5A59997  25.979  17.298   1.894  0.3790  0.0375 -0.2920
11535PAPC   C1B59998  27.292  17.672   0.946 -0.0552 -0.0647  0.2742
11535PAPC   C2B59999  27.150  17.563   1.235  0.1177 -0.0622 -0.3114
11535PAPC   C3B60000  27.008  17.274   1.612  0.2874 -0.4725 -0.0955
11535PAPC   C4B60001  26.631  17.152   1.759 -0.2152  0.3619  0.2334
11536PAPC   NC360002  15.351  32.130  11.765 -0.0026 -0.0398  0.1965
11536PAPC   PO460003  15.804  32.145  11.963  0.1260 -0.0393 -0.0975
11536PAPC   GL160004  15.804  32.046  12.343  0.0534  0.0853  0.1516
11536PAPC   GL260005  16.225  32.070  12.332  0.2929  0.0559 -0.2222
11536PAPC   D1A60006  15.832  32.155  12.748  0.1600  0.1490 -0.1363
11536PAPC   D2A60007  15.917  32.596  12.840 -0.1571  0.0815  0.1708
11536PAPC   D3A60008  16.263  32.338  12.823  0.3089 -0.0095  0.3653
11536PAPC   D4A60009  16.431  32.409  13.198 -0.0155  0.0928 -0.1359
11536PAPC   C5A60010  16.854  32.453  13.263  0.1047  0.2871 -0.0723
11536PAPC   C1B60011  16.599  32.047  12.386  0.1302 -0.3465  0.2802
11536PAPC   C2B60012  16.907  32.250  12.780  0.0956  0.1508 -0.4582
11536PAPC   C3B60013  17.176  32.037  13.139 -0.0208  0.2490 -0.1432
11536PAPC   C4B60014  17.578  31.921  13.115 -0.2309 -0.4786 -0.1516
11537PAPC   NC360015   3.342  13.813   4.547 -0.3255 -0.1607 -0.2394
11537PAPC   PO460016   3.014  13.674   4.795  0.2215  0.3515 -0.0594
11537PAPC   GL160017   2.630  13.904   4.916  0.5173 -0.0424  0.2119
11537PAPC   GL260018   2.635  14.267   5.026 -0.2892 -0.0547  0.0427
11537PAPC   D1A60019   2.254  13.939   4.672 -0.1219  0.0208  0.0807
11537PAPC   D2A60020   1.942  14.174   4.808 -0.3920 -0.3403 -0.0985
11537PAPC   D3A60021   1.762  13.918   5.096 -0.2942 -0.1636 -0.0847
11537PAPC   D4A60022   1.294  13.976   5.091  0.0503  0.3043  0.2224
11537PAPC   C5A60023   0.955  14.001   5.435  0.0985 -0.0703  0.0527
11537PAPC   C1B60024   2.307  14.212   5.315  0.0270  0.1530  0.0796
11537PAPC   C2B60025   1.927  14.211   5.544 -0.2020  0.1627 -0.4713
11537PAPC   C3B60026   1.786  14.200   5.971  0.2860  0.2324  0.1130
11537PAPC   C4B60027   1.462  14.078   6.310 -0.0646  0.0007  0.0647
11538DAPC   NC360028   7.631  22.530  15.212  0.3335 -0.0896 -0.1615
11538DAPC   PO460029   7.522  22.994  15.308  0.3294  0.0282 -0.2181
11538DAPC   GL160030   7.213  23.167  14.951 -0.1304  0.2586  0.0406
11538DAPC   GL260031   7.013  23.334  14.766 -0.1170  0.0265  0.1286
11538DAPC   D1A60032   7.116  23.022  14.440  0.1095  0.2216 -0.1169
11538DAPC   D2A60033   6.738  22.863  14.780 -0.2611 -0.1825  0.1151
11538DAPC   D3A60034   6.891  22.710  15.107 -0.1546 -0.0341  0.0104
11538DAPC   D4A60035   6.648  22.348  15.314  0.0694  0.0818  0.2006
11538DAPC   C5A60036   6.750  22.104  15.581 -0.2368  0.0621 -0.2859
11538DAPC   D1B60037   6.937  23.681  14.516  0.1957  0.1551  0.3435
11538DAPC   D2B60038   6.595  23.634  14.149  0.0258 -0.0957 -0.0880
11538DAPC   D3B60039   6.255  23.339  13.948 -0.1997 -0.0481  0.0566
11538DAPC   D4B60040   5.922  23.206  13.754 -0.2141 -0.3759  0.2544
11538DAPC   C5B60041   5.762  23.047  13.419  0.1243  0.0181 -0.0738
11539DAPC   NC360042  20.128  18.610   8.009  0.3487  0.3774  0.0572
11539DAPC   PO460043  20.334  18.239   8.205  0.1253 -0.1904  0.2917
11539DAPC   GL160044  20.560  18.529   8.388  0.1036 -0.0765 -0.2777
11539DAPC   GL260045  20.671  18.660   8.160  0.1510 -0.0005 -0.4029
11539DAPC   D1A60046  20.974  18.727   8.592  0.0325  0.1951 -0.0779
11539DAPC   D2A60047  21.173  18.441   8.371 -0.0737  0.1367 -0.0816
11539DAPC   D3A60048  21.509  18.339   8.195 -0.5263  0.0751  0.0717
11539DAPC   D4A60049  21.738  18.411   8.713  0.2080  0.1308 -0.0908
11539DAPC   C5A60050  22.141  18.472   8.743  0.3067  0.1370  0.2818
11539DAPC   D1B60051  20.846  18.330   8.007 -0.0088  0.3359  0.0136
11539DAPC   D2B60052  21.136  18.551   7.910 -0.0933 -0.2168 -0.0619
11539DAPC   D3B60053  21.515  18.751   7.868  0.3277 -0.1894 -0.1738
11539DAPC   D4B60054  21.884  18.588   8.090 -0.2766 -0.1441 -0.0725
11539DAPC   C5B60055  22.167  18.650   7.773 -0.3359  0.3901  0.1974
11540DAPC   NC360056  29.267   0.081   5.815  0.0446 -0.0062 -0.0848
11540DAPC   PO460057  28.990  35.068   5.940  0.1602  0.5161  0.1994
11540DAPC   GL160058  28.740  34.733   6.063 -0.1613  0.1273  0.1829
11540DAPC   GL260059  28.631  34.451   5.979 -0.0084  0.1894  0.2192
11540DAPC   D1A60060  28.687  34.516   6.444 -0.0337  0.0244  0.0580
11540DAPC   D2A60061  28.644  34.580   6.837  0.1172  0.0522 -0.1573
11540DAPC   D3A60062  28.916  34.910   6.782 -0.3126  0.2268 -0.0357
11540DAPC   D4A60063  28.873  34.996   7.079  0.1308 -0.0130  0.0364
11540DAPC   C5A60064  28.621  34.660   7.313  0.1175  0.3214 -0.1649
11540DAPC   D1B60065  28.343  34.224   6.230 -0.1348 -0.0061  0.0107
11540DAPC   D2B60066  28.138  34.471   6.651 -0.0291  0.0551 -0.1471
11540DAPC   D3B60067  27.659  34.393   6.797 -0.1981 -0.0514  0.3637
11540DAPC   D4B60068  27.968  34.421   7.193 -0.2641  0.3210  0.1050
11540DAPC   C5B60069  27.951  34.646   7.667  0.1381 -0.1089 -0.2577
11541DAPC   NC360070  31.144  26.104   1.086 -0.4790  0.0115  0.1391
11541DAPC   PO460071  30.832  25.999   1.339  0.2393  0.1475 -0.0226
11541DAPC   GL160072  30.922  25.655   1.701  0.0472 -0.1930  0.0918
11541DAPC   GL260073  30.749  25.419   1.863 -0.1716 -0.3691 -0.0342
11541DAPC   D1A60074  31.131  25.535   2.156 -0.0492  0.0096  0.0734
11541DAPC   D2A60075  31.041  25.124   2.428  0.3065 -0.2754  0.1651
11541DAPC   D3A60076  31.409  24.965   2.560 -0.0777 -0.0544  0.0969
11541DAPC   D4A60077  31.323  24.591   2.648 -0.0555  0.2484  0.0857
11541DAPC   C5A60078  31.308  24.183   2.365 -0.1845  0.0602  0.0737
11541DAPC   D1B60079  30.631  25.094   1.585 -0.3693  0.2860 -0.1620
11541DAPC   D2B60080  30.813  24.686   1.771 -0.4178 -0.2742  0.2802
11541DAPC   D3B60081  31.197  24.749   1.644  0.0974  0.0667  0.1876
11541DAPC   D4B60082  31.124  25.087   1.870 -0.3289 -0.1056 -0.0278
11541DAPC   C5B60083  30.706  24.963   2.132 -0.0110 -0.1541 -0.3507
11542DAPC   NC360084  18.747   1.013   9.797  0.2879 -0.2854  0.0003
11542DAPC   PO460085  18.322   0.869   9.595 -0.0139  0.0491 -0.1121
11542DAPC   GL160086  18.337   0.967  10.055 -0.1446 -0.3583 -0.0920
11542DAPC   GL260087  18.470   1.233  10.173 -0.0199 -0.1663  0.5218
11542DAPC   D1A60088  18.509   0.818  10.435 -0.1252 -0.1455  0.0099
11542DAPC   D2A60089  18.817   0.823  10.266  0.3248  0.0158 -0.0572
11542DAPC   D3A60090  18.951   0.666  10.674  0.1067  0.2316 -0.0504
11542DAPC   D4A60091  18.555   0.907  10.907  0.2589 -0.0119 -0.0217
11542DAPC   C5A60092  18.671   1.317  10.969  0.0036  0.1347 -0.0890
11542DAPC   D1B60093  18.288   1.286  10.600  0.1457  0.1072 -0.0146
11542DAPC   D2B60094  18.013   0.971  10.429 -0.0376  0.0495  0.0563
11542DAPC   D3B60095  17.713   1.241  10.782 -0.1707 -0.0713  0.1179
11542DAPC   D4B60096  17.951   1.003  11.044 -0.2703 -0.2556 -0.2264
11542DAPC   C5B60097  18.095   0.572  10.799  0.0671  0.0917  0.0803
11543POPE   NH360098   6.333  13.722  11.778  0.1068 -0.2064  0.0294
11543POPE   PO460099   6.731  13.620  11.995 -0.2710  0.1847 -0.1534
11543POPE   GL160100   6.454  13.474  12.277 -0.4438 -0.2490  0.2193
11543POPE   GL260101   6.133  13.486  12.233 -0.0428 -0.0073  0.0411
11543POPE   C1A60102   6.265  13.274  12.631  0.0336  0.1902 -0.0457
11543POPE   D2A60103   5.985  12.887  12.611 -0.1336  0.0212  0.0467
11543POPE   C3A60104   5.842  12.643  12.886 -0.3343 -0.0547 -0.0422
11543POPE   C4A60105   5.814  12.489  13.220  0.3007  0.3068 -0.1074
11543POPE   C1B60106   5.723  13.402  12.451  0.1073 -0.3094 -0.0945
11543POPE   C2B60107   5.304  13.395  12.584 -0.2373  0.0184 -0.1378
11543POPE   C3B60108   5.245  12.976  12.838 -0.2005 -0.1505  0.0659
11543POPE   C4B60109   5.419  12.842  13.196  0.0048 -0.1250  0.1459
11544POPE   NH360110  12.819  33.410  15.461 -0.4049 -0.0525  0.4011
11544POPE   PO460111  12.508  33.690  15.494  0.0979 -0.3806 -0.0960
11544POPE   GL160112  12.693  33.784  15.868 -0.3536  0.1603 -0.0063
11544POPE   GL260113  12.931  33.918  15.938 -0.2591 -0.2055  0.0237
11544POPE   C1A60114  12.459  33.887  16.355 -0.1544  0.1768  0.3031
11544POPE   D2A60115  12.624  34.012  16.721  0.1877  0.2384  0.0161
11544POPE   C3A60116  12.988  34.130  16.898 -0.1470  0.0744 -0.3193
11544POPE   C4A60117  13.249  34.041  17.106  0.3031 -0.0530  0.2675
11544POPE   C1B60118  13.060  33.968  16.317  0.1082 -0.0398 -0.0615
11544POPE   C2B60119  13.370  34.092  16.522  0.3270 -0.0877 -0.0848
11544POPE   C3B60120  13.777  34.104  16.642 -0.1336  0.1931 -0.2298
11544POPE   C4B60121  14.199  34.209  16.820 -0.2009  0.0345 -0.0801
11545POPE   NH360122  22.950  21.741   4.231 -0.0353  0.1925 -0.2093
11545POPE   PO460123  22.985  21.691   3.711 -0.1733 -0.0385  0.1910
11545POPE   GL160124  23.353  21.683   3.974 -0.0107  0.1278  0.1239
11545POPE   GL260125  23.570  21.493   3.823  0.2678 -0.0560  0.0716
11545POPE   C1A60126  23.738  21.492   4.225 -0.0254 -0.1614 -0.2311
11545POPE   D2A60127  23.754  21.214   4.570  0.2191  0.2849 -0.1421
11545POPE   C3A60128  24.017  21.297   5.023  0.3928 -0.0366  0.1086
11545POPE   C4A60129  24.427  21.475   5.054 -0.3880 -0.0942  0.0052
11545POPE   C1B60130  23.981  21.336   3.731  0.2925 -0.0463 -0.0038
11545POPE   C2B60131  24.240  21.317   4.039 -0.1946  0.1074 -0.3930
11545POPE   C3B60132  24.643  21.363   4.024  0.0937  0.2315 -0.3201
11545POPE   C4B60133  24.990  21.562   4.129  0.4509 -0.1870  0.0301
11546POPE   NH360134  19.615  12.288  10.635  0.2774  0.1801 -0.0419
11546POPE   PO460135  19.303  12.397  10.891  0.0108 -0.2209  0.0202
11546POPE   GL160136  19.602  12.428  11.171 -0.0143 -0.0824 -0.0660
11546POPE   GL260137  19.731  12.094  11.140 -0.2302  0.1772 -0.0246
11546POPE   C1A60138  19.753  12.335  11.637  0.1184 -0.0986  0.4421
11546POPE   D2A60139  20.089  12.291  11.819 -0.2526  0.0401  0.1197
11546POPE   C3A60140  20.169  12.360  12.215 -0.2545  0.0773  0.0871
11546POPE   C4A60141  20.288  12.446  12.583  0.4286  0.0537 -0.0456
11546POPE   C1B60142  20.063  12.325  11.234 -0.0092  0.2411  0.2740
11546POPE   C2B60143  20.487  12.359  11.551  0.1098 -0.1466  0.0077
11546POPE   C3B60144  20.594  12.498  11.975 -0.0508  0.1122 -0.2314
11546POPE   C4B60145  20.998  12.645  12.355 -0.0073 -0.3542 -0.0301
11547POPE   NH360146  32.766  16.347   0.634 -0.0938 -0.1725  0.1223
11547POPE   PO460147  32.573  16.108   0.929  0.0339  0.1213  0.1497
11547POPE   GL160148  32.392  15.897   1.231 -0.0508 -0.3149  0.0064
11547POPE   GL260149  32.642  15.619   1.248  0.1195  0.1866 -0.0180
11547POPE   C1A60150  32.283  15.812   1.557  0.0051 -0.0629  0.0488
11547POPE   D2A60151  32.025  15.825   1.905  0.4415  0.2113  0.1006
11547POPE   C3A60152  32.168  15.889   2.250  0.1220  0.1422  0.1298
11547POPE   C4A60153  32.194  16.226   2.644  0.2176  0.0379  0.4500
11547POPE   C1B60154  32.717  15.680   1.722 -0.0947  0.0151  0.1632
11547POPE   C2B60155  32.701  15.794   2.129  0.1831 -0.1072  0.2436
11547POPE   C3B60156  32.528  15.814   2.592  0.1473 -0.0203 -0.0023
11547POPE   C4B60157  32.317  15.561   2.942  0.0576 -0.3024 -0.0958
11548POPE   NH360158   3.758  13.312   6.770  0.1166 -0.0729 -0.1116
11548POPE   PO460159   3.966  12.962   6.943 -0.2316 -0.4354 -0.1230
11548POPE   GL160160   3.582  12.724   7.096 -0.3663  0.0513  0.2410
11548POPE   GL260161   3.499  12.711   7.370  0.1045  0.0935  0.0650
11548POPE   C1A60162   3.195  12.928   7.060  0.0238 -0.1944  0.2374
11548POPE   D2A60163   2.735  13.088   7.193 -0.0889  0.0542  0.2958
11548POPE   C3A60164   2.460  13.102   7.431 -0.0634 -0.0083  0.0241
11548POPE   C4A60165   2.272  13.232   7.770  0.1111  0.1162  0.1688
11548POPE   C1B60166   3.127  12.684   7.434 -0.2990 -0.1061 -0.1135
11548POPE   C2B60167   2.782  12.849   7.688  0.1223  0.1511  0.2240
11548POPE   C3B60168   2.568  12.841   8.061 -0.0008 -0.1393  0.1161
11548POPE   C4B60169   2.434  12.535   8.274  0.0304 -0.5609 -0.4935
11549POPE   NH360170  17.950   8.022  13.188 -0.1363  0.2979 -0.4088
11549POPE   PO460171  18.147   7.558  13.035  0.0986  0.0966  0.2175
11549POPE   GL160172  18.337   7.248  13.335 -0.1800  0.1227  0.2004
11549POPE   GL260173  18.246   6.906  13.282  0.0823  0.3687  0.2470
11549POPE   C1A60174  18.486   7.230  13.751 -0.1803  0.1384  0.1117
11549POPE   D2A60175  18.657   7.274  14.222  0.0765 -0.0585  0.2322
11549POPE   C3A60176  18.584   7.405  14.551 -0.0586  0.1396  0.2042
11549POPE   C4A60177  18.550   7.166  14.943  0.1565  0.0328  0.0130
11549POPE   C1B60178  18.374   6.781  13.654 -0.0108 -0.0846 -0.0744
11549POPE   C2B60179  18.519   6.619  13.931  0.0082  0.1571  0.1428
11549POPE   C3B60180  18.733   6.757  14.337  0.2919 -0.2992 -0.2358
11549POPE   C4B60181  18.865   6.957  14.638 -0.2438  0.2222 -0.1555
11550POPE   NH360182  33.006  10.730   1.607  0.0500 -0.1667  0.3122
11550POPE   PO460183  33.147  11.127   1.491 -0.2106 -0.5202  0.0526
11550POPE   GL160184  32.858  11.181   1.840 -0.1411 -0.1924 -0.0049
11550POPE   GL260185  33.034  11.059   2.040  0.0492 -0.0404  0.2203
11550POPE   C1A60186  32.567  11.307   2.158  0.0479  0.1416 -0.0803
11550POPE   D2A60187  32.183  11.275   2.138 -0.1163  0.0332 -0.0958
11550POPE   C3A60188  31.752  11.264   2.199 -0.2256  0.3103  0.2066
11550POPE   C4A60189  31.273  11.083   2.080  0.1100 -0.0738 -0.2231
11550POPE   C1B60190  32.914  11.053   2.495  0.4163  0.1963  0.2027
11550POPE   C2B60191  32.621  11.143   2.747  0.0763 -0.3115 -0.0279
11550POPE   C3B60192  32.367  11.422   2.619  0.0440  0.3741 -0.2767
11550POPE   C4B60193  32.044  11.630   2.482 -0.2400  0.0264  0.0970
11551POPE   NH360194  10.256   7.094  14.541  0.3352 -0.1186 -0.2458
11551POPE   PO460195  10.203   7.473  14.663 -0.2750 -0.0947  0.0527
11551POPE   GL160196  10.345   7.827  14.940  0.0725  0.0774  0.0608
11551POPE   GL260197  10.537   7.644  15.139  0.1240  0.2423  0.0576
11551POPE   C1A60198  10.211   7.980  15.425  0.0712 -0.0548 -0.0768
11551POPE   D2A60199  10.124   8.168  15.782 -0.4307  0.3308 -0.1676
11551POPE   C3A60200  10.191   8.044  16.138 -0.1405 -0.2971 -0.3958
11551POPE   C4A60201  10.245   8.000  16.553  0.1162  0.0225  0.2227
11551POPE   C1B60202  10.632   7.826  15.488  0.0519 -0.1433  0.3380
11551POPE   C2B60203  10.596   8.014  15.875 -0.1567 -0.2466  0.2797
11551POPE   C3B60204  10.673   8.023  16.306  0.3328  0.4420  0.1071
11551POPE   C4B60205  10.622   8.360  16.614 -0.1900  0.0134 -0.0504
11552POPE   NH360206  20.385  28.061   8.300 -0.2575  0.2530  0.2036
11552POPE   PO460207  19.984  28.283   8.370  0.0340 -0.1917  0.1798
11552POPE   GL160208  20.259  28.174   8.741 -0.2697 -0.1035 -0.1447
11552POPE   GL260209  20.287  27.885   8.853  0.2697  0.0116 -0.0196
11552POPE   C1A60210  20.516  28.268   9.110  0.0532 -0.0981 -0.0922
11552POPE   D2A60211  20.839  28.440   9.474  0.0318  0.0199  0.0701
11552POPE   C3A60212  21.265  28.223   9.618 -0.0113  0.0238 -0.0832
11552POPE   C4A60213  21.558  27.964   9.803 -0.0423 -0.0874 -0.1880
11552POPE   C1B60214  20.693  27.757   9.105 -0.1117 -0.2291  0.0523
11552POPE   C2B60215  21.102  27.911   9.236  0.0271 -0.2322  0.0226
11552POPE   C3B60216  21.541  28.010   9.261  0.1671 -0.2846  0.0994
11552POPE   C4B60217  21.822  28.221   9.458 -0.2145  0.0873  0.0083
11553POPE   NH360218  19.685   5.222  11.710  0.2360 -0.1904 -0.0377
11553POPE   PO460219  19.300   5.368  11.952 -0.2098 -0.0353  0.0822
11553POPE   GL160220  19.500   5.148  12.219  0.3740  0.2027  0.0705
11553POPE   GL260221  19.446   5.386  12.447  0.4300 -0.0428 -0.1710
11553POPE   C1A60222  19.868   5.115  12.430  0.1983  0.1008 -0.1434
11553POPE   D2A60223  19.925   5.038  12.855  0.2430 -0.1042  0.0142
11553POPE   C3A60224  20.007   4.630  13.071 -0.3632  0.0859  0.1378
11553POPE   C4A60225  20.131   4.206  12.992 -0.1752  0.0279 -0.0560
11553POPE   C1B60226  19.609   5.458  12.782  0.2136  0.0322  0.1412
11553POPE   C2B60227  19.931   5.409  13.181 -0.1718 -0.2424  0.0897
11553POPE   C3B60228  19.841   5.376  13.654 -0.1808  0.0278  0.2906
11553POPE   C4B60229  20.033   5.085  13.967 -0.0382 -0.1749  0.2875
11554POPE   NH360230  14.735  23.366  16.859 -0.2860  0.1506 -0.0992
11554POPE   PO460231  14.829  23.106  17.176 -0.1969 -0.1643 -0.0890
11554POPE   GL160232  15.072  23.098  17.535 -0.0862 -0.0277 -0.0740
11554POPE   GL260233  14.992  23.373  17.726 -0.1282  0.1046 -0.1336
11554POPE   C1A60234  15.378  22.912  17.841  0.0495  0.0679 -0.2352
11554POPE   D2A60235  15.754  22.808  18.134 -0.4053 -0.4831  0.5165
11554POPE   C3A60236  15.958  23.006  18.466  0.2475  0.0742 -0.0274
11554POPE   C4A60237  16.005  23.173  18.958  0.0787  0.2335 -0.0692
11554POPE   C1B60238  15.186  23.249  18.076  0.1789  0.1097 -0.0079
11554POPE   C2B60239  15.408  23.237  18.423 -0.4681 -0.1985  0.0671
11554POPE   C3B60240  15.625  23.335  18.675  0.1714  0.1475  0.1692
11554POPE   C4B60241  15.575  23.456  19.120  0.0543  0.0643  0.1507
11555POPE   NH360242  20.497   9.713  10.233 -0.0885 -0.1476  0.0605
11555POPE   PO460243  20.417  10.169  10.289 -0.0581 -0.2265 -0.0749
11555POPE   GL160244  20.599  10.184  10.564  0.5504 -0.2178  0.0394
11555POPE   GL260245  20.505   9.897  10.705  0.0232 -0.0057 -0.0595
11555POPE   C1A60246  21.025  10.185  10.570 -0.1731 -0.0801 -0.1239
11555POPE   D2A60247  21.321  10.188  10.928  0.0406  0.2586 -0.0721
11555POPE   C3A60248  21.653  10.346  11.160  0.0433  0.2760 -0.1048
11555POPE   C4A60249  21.980  10.704  11.247 -0.0725 -0.1645  0.3102
11555POPE   C1B60250  20.855  10.059  11.021  0.2513  0.1459  0.1071
11555POPE   C2B60251  21.203  10.054  11.421 -0.2930 -0.2993  0.3352
11555POPE   C3B60252  21.472  10.239  11.560 -0.3589  0.0672  0.0571
11555POPE   C4B60253  21.564  10.532  11.743  0.0262 -0.2539  0.0776
11556POPE   NH360254   2.769  27.611   9.614 -0.2016 -0.2288 -0.1842
11556POPE   PO460255   2.384  27.391   9.670  0.2015  0.3488 -0.1076
11556POPE   GL160256   2.097  27.135   9.657  0.0977  0.1375 -0.0183
11556POPE   GL260257   2.045  26.985   9.868  0.1291  0.1147 -0.2052
11556POPE   C1A60258   1.653  27.133   9.515 -0.2903  0.0276 -0.2134
11556POPE   D2A60259   1.170  26.986   9.494 -0.1081 -0.0807 -0.2128
11556POPE   C3A60260   0.745  27.190   9.694 -0.1597  0.2023 -0.1296
11556POPE   C4A60261   0.470  27.425   9.957  0.0954  0.0291  0.4851
11556POPE   C1B60262   1.723  26.863   9.943  0.1523 -0.0886 -0.1263
11556POPE   C2B60263   1.478  26.530  10.141 -0.0401 -0.0523 -0.0576
11556POPE   C3B60264   1.135  26.375  10.299  0.3841 -0.2633 -0.4364
11556POPE   C4B60265   0.901  26.208  10.545 -0.1397  0.0902 -0.2740
11557POPE   NH360266  18.884  16.421  11.433 -0.0216  0.1108 -0.3908
11557POPE   PO460267  18.892  15.945  11.546  0.2772  0.1004  0.1249
11557POPE   GL160268  19.071  15.883  11.983 -0.3085 -0.0988  0.1563
11557POPE   GL260269  19.190  16.100  12.105 -0.3303  0.0110  0.0305
11557POPE   C1A60270  19.179  15.650  12.296 -0.1179  0.3598  0.1888
11557POPE   D2A60271  19.508  15.480  12.577 -0.0722 -0.1791  0.0169
11557POPE   C3A60272  19.587  15.125  12.321  0.0761 -0.1458 -0.2501
11557POPE   C4A60273  19.488  14.835  12.017  0.1974 -0.3631 -0.1172
11557POPE   C1B60274  19.464  16.040  12.339  0.1709 -0.0832  0.0927
11557POPE   C2B60275  19.775  16.059  12.593  0.1294 -0.0612 -0.1901
11557POPE   C3B60276  20.265  16.082  12.603  0.0082 -0.1800  0.0614
11557POPE   C4B60277  20.750  16.094  12.593  0.1555 -0.0451 -0.0881
11558POPE   NH360278  31.034   6.417   3.927  0.4642 -0.3465 -0.2671
11558POPE   PO460279  31.260   6.584   3.557  0.0906  0.0924  0.0047
11558POPE   GL160280  31.182   6.903   3.998 -0.5733  0.0743  0.0075
11558POPE   GL260281  31.276   6.785   4.323  0.3259  0.0251  0.2733
11558POPE   C1A60282  31.242   7.248   4.304 -0.1188  0.1261  0.1089
11558POPE   D2A60283  31.224   7.386   4.740 -0.1090  0.1493  0.0779
11558POPE   C3A60284  31.371   7.175   5.046  0.2391  0.0744  0.0725
11558POPE   C4A60285  31.481   6.852   5.409 -0.1428  0.0799  0.4253
11558POPE   C1B60286  31.033   6.937   4.657  0.0749 -0.0115  0.0553
11558POPE   C2B60287  30.983   6.950   5.135  0.1025  0.0541  0.2520
11558POPE   C3B60288  30.750   6.758   5.482 -0.1792  0.1073  0.2107
11558POPE   C4B60289  30.464   6.995   5.769 -0.0531 -0.1682 -0.1051
11559POPE   NH360290  30.154   1.993   6.443 -0.1381 -0.0496  0.0138
11559POPE   PO460291  29.883   2.167   6.279  0.1509  0.0419  0.1986
11559POPE   GL160292  29.705   2.302   6.697 -0.0309  0.3101  0.0059
11559POPE   GL260293  29.727   2.646   6.751 -0.1645  0.1213  0.1101
11559POPE   C1A60294  29.738   2.268   7.172  0.0648 -0.2142  0.2929
11559POPE   D2A60295  29.660   2.405   7.583  0.0957 -0.1119  0.0576
11559POPE   C3A60296  29.850   2.378   8.059 -0.1469 -0.1258  0.0757
11559POPE   C4A60297  29.724   2.174   8.480  0.0173 -0.3710 -0.0995
11559POPE   C1B60298  29.666   2.753   7.148 -0.1604  0.2035 -0.0324
11559POPE   C2B60299  29.489   2.969   7.538 -0.3284  0.1797  0.2403
11559POPE   C3B60300  29.669   2.857   7.966 -0.1432 -0.0156 -0.1435
11559POPE   C4B60301  29.758   2.881   8.314  0.0424 -0.2025 -0.0990
11560POPE   NH360302  15.606  25.592  16.930  0.0095  0.2318 -0.1060
11560POPE   PO460303  15.926  25.600  16.584  0.3137 -0.1222  0.0799
11560POPE   GL160304  16.131  25.861  16.950  0.2100  0.2382  0.0235
11560POPE   GL260305  16.014  26.137  16.878 -0.1299 -0.2177 -0.1954
11560POPE   C1A60306  16.361  26.031  17.307  0.2221 -0.0782  0.0092
11560POPE   D2A60307  16.657  25.835  17.598  0.0195 -0.0370 -0.0252
11560POPE   C3A60308  16.838  26.086  18.018  0.1196 -0.0220 -0.4304
11560POPE   C4A60309  17.116  26.361  18.175 -0.0169  0.1545  0.0585
11560POPE   C1B60310  16.607  26.234  16.949  0.1879  0.1949  0.0017
11560POPE   C2B60311  16.831  26.330  17.280 -0.0191  0.1483 -0.3195
11560POPE   C3B60312  17.106  26.104  17.628 -0.2901 -0.0119  0.0562
11560POPE   C4B60313  17.259  25.767  17.849 -0.0663  0.2721  0.3307
11561POPE   NH360314  10.165   1.407  15.327  0.0440 -0.0901 -0.0940
11561POPE   PO460315  10.501   1.197  15.332  0.0746 -0.1098 -0.0933
11561POPE   GL160316  10.718   1.522  15.552  0.1317 -0.0659 -0.0957
11561POPE   GL260317  10.887   1.709  15.460 -0.2156  0.0679 -0.0498
11561POPE   C1A60318  10.770   1.640  15.949  0.0477  0.1154  0.2163
11561POPE   D2A60319  10.983   1.937  16.251  0.3271 -0.1695 -0.1147
11561POPE   C3A60320  10.985   2.340  16.348  0.1516 -0.0204  0.0908
11561POPE   C4A60321  11.002   2.780  16.298  0.0369  0.1284 -0.2078
11561POPE   C1B60322  11.286   1.713  15.620  0.0710 -0.0042 -0.0078
11561POPE   C2B60323  11.505   1.773  16.022  0.2165  0.1039 -0.4680
11561POPE   C3B60324  11.485   1.934  16.453 -0.0459  0.0901 -0.0002
11561POPE   C4B60325  11.412   2.425  16.495  0.3888 -0.0650 -0.0888
11562POPE   NH360326  30.705  23.933  25.948  0.0599  0.0844 -0.2425
11562POPE   PO460327  30.970  23.757  26.202 -0.1550  0.0025  0.2459
11562POPE   GL160328  30.871  23.547   0.311  0.0552 -0.1328 -0.2735
11562POPE   GL260329  30.863  23.705   0.609  0.4111  0.0945 -0.0308
11562POPE   C1A60330  30.985  23.198   0.576  0.0107  0.0409 -0.3735
11562POPE   D2A60331  30.924  23.082   1.006  0.0263  0.0132 -0.0862
11562POPE   C3A60332  30.772  23.364   1.129  0.3328  0.4959 -0.1356
11562POPE   C4A60333  30.455  23.541   1.378  0.0784 -0.2460 -0.1521
11562POPE   C1B60334  30.895  23.831   1.158  0.1377 -0.1747  0.1066
11562POPE   C2B60335  30.899  23.720   1.533  0.0149 -0.1550 -0.0464
11562POPE   C3B60336  30.833  23.441   1.802 -0.1720 -0.1029  0.1701
11562POPE   C4B60337  31.024  23.102   1.938 -0.0841 -0.0825  0.1662
11563POPE   NH360338  26.802  29.914   5.339 -0.2498  0.2817 -0.1770
11563POPE   PO460339  26.565  30.065   5.688 -0.0067 -0.2269  0.1244
11563POPE   GL160340  26.901  29.896   5.997  0.0874  0.0318  0.1016
11563POPE   GL260341  27.172  30.073   6.073 -0.0352  0.1033  0.0282
11563POPE   C1A60342  26.895  29.738   6.445  0.1625  0.2767 -0.0173
11563POPE   D2A60343  27.176  29.759   6.731 -0.2640  0.3192 -0.2297
11563POPE   C3A60344  27.268  30.102   7.055  0.0819 -0.1042  0.1122
11563POPE   C4A60345  27.537  30.277   7.243 -0.0576  0.0638 -0.4008
11563POPE   C1B60346  27.156  30.226   6.517  0.1062  0.0608 -0.1044
11563POPE   C2B60347  27.134  30.570   6.762 -0.2345  0.1687  0.3144
11563POPE   C3B60348  27.254  30.688   7.247  0.0472 -0.1522 -0.1037
11563POPE   C4B60349  27.131  31.052   7.395 -0.0642  0.1126  0.0267
11564POPE   NH360350  28.514  32.172   5.841 -0.3008  0.1875  0.0093
11564POPE   PO460351  28.314  32.540   5.970  0.0651  0.1686 -0.0376
11564POPE   GL160352  28.101  32.239   6.242  0.2311 -0.0499  0.2444
11564POPE   GL260353  27.884  32.029   6.159 -0.2015 -0.0096 -0.0796
11564POPE   C1A60354  28.071  32.234   6.719  0.1944  0.0192 -0.4385
11564POPE   D2A60355  28.056  32.303   7.181  0.1002  0.3065 -0.2753
11564POPE   C3A60356  28.448  32.493   7.472 -0.0548  0.1266  0.0908
11564POPE   C4A60357  28.800  32.311   7.555 -0.0913  0.1020  0.2537
11564POPE   C1B60358  27.776  31.815   6.565 -0.1706 -0.4107 -0.2709
11564POPE   C2B60359  27.580  31.643   6.914 -0.2342 -0.2137 -0.1584
11564POPE   C3B60360  27.398  31.552   7.278 -0.0284 -0.1022  0.0925
11564POPE   C4B60361  27.411  31.409   7.791 -0.4962 -0.2138  0.0102
11565POPE   NH360362  24.056  29.993   5.530 -0.1234 -0.2249 -0.1620
11565POPE   PO460363  23.733  29.874   5.736  0.4104 -0.1590  0.1771
11565POPE   GL160364  23.901  30.098   6.163 -0.0945 -0.2569 -0.1597
11565POPE   GL260365  24.289  30.136   6.151 -0.1333  0.0467 -0.0647
11565POPE   C1A60366  24.003  30.193   6.625  0.1958  0.1550 -0.0971
11565POPE   D2A60367  23.876  30.107   7.067  0.0052 -0.0345 -0.0031
11565POPE   C3A60368  23.919  29.694   7.243 -0.0064  0.1622 -0.0177
11565POPE   C4A60369  23.954  29.352   7.409 -0.2451  0.1878 -0.0849
11565POPE   C1B60370  24.488  30.014   6.546  0.0402 -0.0281 -0.1966
11565POPE   C2B60371  24.683  29.851   6.889 -0.2312  0.0531  0.2078
11565POPE   C3B60372  24.965  29.771   7.201  0.2116  0.1826 -0.1313
11565POPE   C4B60373  25.133  29.553   7.613 -0.0177 -0.0827  0.1480
11566POPE   NH360374  21.696  16.441   4.850 -0.2431  0.2877  0.1014
11566POPE   PO460375  21.524  16.244   5.269 -0.1527 -0.0698 -0.1179
11566POPE   GL160376  21.944  16.431   5.377  0.2594  0.0463 -0.0626
11566POPE   GL260377  21.956  16.796   5.420  0.1586  0.0009 -0.1451
11566POPE   C1A60378  22.317  16.322   5.509 -0.1118  0.0872 -0.0530
11566POPE   D2A60379  22.670  16.413   5.739 -0.0039 -0.2290 -0.0242
11566POPE   C3A60380  22.757  15.999   5.718 -0.0990 -0.2281  0.1766
11566POPE   C4A60381  23.085  15.727   5.914  0.1160 -0.0263  0.1768
11566POPE   C1B60382  22.311  16.892   5.713  0.0140 -0.2405 -0.1512
11566POPE   C2B60383  22.539  17.318   5.614 -0.3531  0.0297  0.0158
11566POPE   C3B60384  22.762  17.649   5.512  0.1325  0.2182  0.0784
11566POPE   C4B60385  23.169  17.644   5.388  0.1025 -0.1926  0.3053
11567POPE   NH360386  15.738  29.057  13.484 -0.1986  0.0459 -0.0968
11567POPE   PO460387  15.411  28.852  13.776 -0.1211 -0.0377 -0.2031
11567POPE   GL160388  15.753  29.012  13.982  0.1567 -0.0501  0.1579
11567POPE   GL260389  15.958  29.281  13.917  0.2391 -0.2517  0.0331
11567POPE   C1A60390  16.183  28.843  14.141 -0.2120 -0.1277 -0.1437
11567POPE   D2A60391  16.538  28.659  14.050 -0.1220 -0.0425  0.2665
11567POPE   C3A60392  16.870  28.638  14.216 -0.2023  0.2394  0.3621
11567POPE   C4A60393  17.261  28.535  14.413 -0.0318  0.2634 -0.1488
11567POPE   C1B60394  16.344  29.254  13.845  0.1790  0.1230  0.0079
11567POPE   C2B60395  16.605  29.126  14.148  0.1038  0.0629 -0.1780
11567POPE   C3B60396  16.854  29.459  14.268  0.0038 -0.3229 -0.1680
11567POPE   C4B60397  17.217  29.575  14.455  0.4366  0.0049 -0.0423
11568POPE   NH360398  20.859  22.158   8.336 -0.0409  0.0560  0.1014
11568POPE   PO460399  20.723  22.681   8.474 -0.0533  0.3672  0.0164
11568POPE   GL160400  21.174  22.516   8.537 -0.0744  0.0282 -0.0255
11568POPE   GL260401  21.491  22.673   8.389  0.0289 -0.1733  0.2620
11568POPE   C1A60402  21.566  22.443   8.850  0.1115  0.0765  0.0756
11568POPE   D2A60403  21.997  22.443   9.095 -0.1922 -0.1000  0.0236
11568POPE   C3A60404  22.431  22.407   9.289  0.1664  0.0625 -0.0418
11568POPE   C4A60405  22.834  22.228   9.292 -0.0844  0.0431  0.1660
11568POPE   C1B60406  21.784  22.811   8.605  0.2055  0.2134  0.2167
11568POPE   C2B60407  22.059  22.915   8.956  0.0328 -0.0974 -0.0898
11568POPE   C3B60408  22.373  22.923   9.154  0.3146 -0.0409  0.0125
11568POPE   C4B60409  22.602  23.061   8.942  0.1676 -0.1215  0.0495
11569POPE   NH360410   1.949  29.207  10.845 -0.0899 -0.1198 -0.1483
11569POPE   PO460411   2.088  29.421  10.454  0.3059  0.0849  0.1186
11569POPE   GL160412   1.621  29.671  10.518 -0.6643 -0.2971  0.0223
11569POPE   GL260413   1.558  29.469  10.723 -0.3319 -0.1511  0.0206
11569POPE   C1A60414   1.300  29.794  10.400  0.3703  0.4476  0.3305
11569POPE   D2A60415   1.086  30.077  10.143  0.0442  0.0223 -0.1859
11569POPE   C3A60416   0.958  30.504  10.283 -0.1337 -0.0884  0.0791
11569POPE   C4A60417   0.613  30.638  10.461  0.2336 -0.2669 -0.1548
11569POPE   C1B60418   1.062  29.576  10.826 -0.0861  0.1685 -0.1666
11569POPE   C2B60419   0.666  29.610  10.903 -0.1830  0.0905  0.1267
11569POPE   C3B60420   0.337  29.556  11.162  0.3444  0.1755  0.2687
11569POPE   C4B60421  35.359  29.578  11.378  0.1639  0.0981 -0.1294
11570POPE   NH360422  20.452  16.027   7.201  0.0147 -0.1887  0.0529
11570POPE   PO460423  20.223  15.652   7.124  0.1384 -0.0722 -0.0874
11570POPE   GL160424  20.672  15.529   7.284 -0.2730  0.0071 -0.2876
11570POPE   GL260425  20.727  15.471   7.633  0.0765  0.1086 -0.1684
11570POPE   C1A60426  21.092  15.411   7.227 -0.0106 -0.3873 -0.2254
11570POPE   D2A60427  21.580  15.317   7.250 -0.0145  0.0305 -0.1132
11570POPE   C3A60428  21.753  15.584   6.825 -0.1245 -0.2070 -0.0175
11570POPE   C4A60429  21.919  15.831   6.549 -0.2602 -0.3639 -0.0203
11570POPE   C1B60430  21.216  15.457   7.691 -0.2020  0.1020  0.1215
11570POPE   C2B60431  21.646  15.505   7.792 -0.2171 -0.5039 -0.2134
11570POPE   C3B60432  22.042  15.501   8.022 -0.0648  0.0758 -0.0901
11570POPE   C4B60433  22.299  15.676   8.340  0.1725  0.0622 -0.0648
11571POPE   NH360434  17.292  23.905  15.011  0.4064  0.2876 -0.0965
11571POPE   PO460435  17.616  23.877  14.612 -0.2494  0.1283 -0.0818
11571POPE   GL160436  17.883  24.096  14.606 -0.1162 -0.0680 -0.0047
11571POPE   GL260437  17.936  24.360  14.472  0.0742  0.1951  0.3060
11571POPE   C1A60438  18.301  24.132  14.803  0.4280 -0.0944  0.0172
11571POPE   D2A60439  18.709  24.129  14.987  0.2780 -0.0469 -0.1487
11571POPE   C3A60440  18.798  24.030  15.391 -0.2337  0.0401 -0.3000
11571POPE   C4A60441  18.851  23.966  15.737 -0.1183  0.1819 -0.0442
11571POPE   C1B60442  18.138  24.647  14.900  0.1576  0.2294  0.2528
11571POPE   C2B60443  18.425  24.430  15.204  0.2737  0.1227  0.1310
11571POPE   C3B60444  18.771  24.561  15.369 -0.1954  0.0676 -0.0755
11571POPE   C4B60445  19.149  24.316  15.615  0.3457  0.3144 -0.2308
11572POPE   NH360446   7.396  26.933  17.111  0.0978 -0.1178  0.0471
11572POPE   PO460447   7.020  26.796  17.029 -0.0463  0.2360  0.3027
11572POPE   GL160448   6.691  26.561  17.173  0.0157  0.0260 -0.0738
11572POPE   GL260449   6.668  26.682  17.432 -0.2310 -0.1990  0.2815
11572POPE   C1A60450   6.521  26.250  17.527 -0.3518 -0.1035 -0.4142
11572POPE   D2A60451   6.244  26.177  17.821 -0.0084 -0.0383  0.1644
11572POPE   C3A60452   6.226  26.269  18.213  0.1564  0.1130  0.0453
11572POPE   C4A60453   6.341  26.623  18.365 -0.2567  0.3084  0.0131
11572POPE   C1B60454   6.355  26.698  17.840  0.2720 -0.0470  0.6235
11572POPE   C2B60455   6.216  27.028  18.126  0.0971 -0.1529 -0.2894
11572POPE   C3B60456   6.098  27.339  18.420  0.0921  0.1559  0.0009
11572POPE   C4B60457   5.747  27.410  18.711  0.2604 -0.0915  0.2228
11573POPE   NH360458  25.625   8.581   3.338  0.0505  0.2327 -0.1518
11573POPE   PO460459  25.858   8.864   3.359  0.1505 -0.1926 -0.0611
11573POPE   GL160460  25.992   9.179   3.516 -0.0659  0.1122 -0.0810
11573POPE   GL260461  26.300   9.211   3.439  0.0811  0.0551 -0.2367
11573POPE   C1A60462  26.115   9.288   3.953  0.0882 -0.1452 -0.1374
11573POPE   D2A60463  26.280   9.604   4.190 -0.0192 -0.0424 -0.3594
11573POPE   C3A60464  26.295   9.686   4.517  0.1646 -0.2335 -0.3525
11573POPE   C4A60465  26.431   9.361   4.847 -0.1872  0.2438 -0.1635
11573POPE   C1B60466  26.502   9.491   3.713  0.0164  0.2992 -0.0680
11573POPE   C2B60467  26.662   9.857   3.913 -0.0728  0.1953  0.0563
11573POPE   C3B60468  26.510  10.172   4.243 -0.0511  0.0294 -0.2278
11573POPE   C4B60469  26.314  10.335   4.570 -0.1764  0.0029 -0.0348
11574POPE   NH360470   8.940   1.853  15.317  0.0576 -0.1659 -0.2588
11574POPE   PO460471   8.963   2.226  15.390  0.2826  0.0715 -0.1095
11574POPE   GL160472   8.990   2.267  15.792 -0.1839  0.1069 -0.3860
11574POPE   GL260473   8.766   2.570  15.818 -0.2071 -0.0603 -0.1252
11574POPE   C1A60474   8.954   2.444  16.210 -0.1199  0.0771 -0.0411
11574POPE   D2A60475   9.014   2.750  16.497  0.0626  0.3208  0.2741
11574POPE   C3A60476   9.262   2.947  16.547  0.0400  0.0086  0.1152
11574POPE   C4A60477   9.688   2.915  16.612 -0.2617 -0.0459 -0.0306
11574POPE   C1B60478   8.618   2.759  16.206 -0.1275 -0.3042 -0.2722
11574POPE   C2B60479   8.595   2.612  16.672  0.1027  0.1893 -0.2609
11574POPE   C3B60480   8.361   2.528  17.048 -0.0406 -0.1159 -0.0399
11574POPE   C4B60481   8.107   2.416  17.470 -0.0090  0.3198  0.0267
11575POPE   NH360482  17.610  12.270  13.478  0.2898  0.2550 -0.4392
11575POPE   PO460483  17.763  11.847  13.464  0.0653  0.2147  0.1295
11575POPE   GL160484  17.738  11.650  13.835  0.1000  0.0099 -0.0354
11575POPE   GL260485  17.423  11.603  14.058 -0.1356  0.0445 -0.1446
11575POPE   C1A60486  17.895  11.539  14.216 -0.0270  0.4017 -0.1925
11575POPE   D2A60487  18.174  11.531  14.561  0.0696  0.0529  0.0033
11575POPE   C3A60488  18.349  11.214  14.881 -0.0339  0.0924 -0.1534
11575POPE   C4A60489  18.337  11.271  15.307  0.1104 -0.1689 -0.0528
11575POPE   C1B60490  17.548  11.856  14.413  0.1304  0.2652  0.2647
11575POPE   C2B60491  17.777  11.841  14.740 -0.2214  0.2007  0.0343
11575POPE   C3B60492  18.071  12.117  14.929 -0.0301  0.0451 -0.2094
11575POPE   C4B60493  18.393  12.313  15.197 -0.0937  0.2042 -0.4532
11576POPE   NH360494   8.853  16.017  13.833  0.1323 -0.1446 -0.1137
11576POPE   PO460495   8.788  16.452  13.730 -0.0621  0.1648  0.0602
11576POPE   GL160496   8.532  16.377  14.132  0.2348 -0.1381  0.1167
11576POPE   GL260497   8.601  16.365  14.503  0.3803  0.0235 -0.2831
11576POPE   C1A60498   8.107  16.305  14.321 -0.3017 -0.1423 -0.2878
11576POPE   D2A60499   8.020  16.177  14.720  0.1945 -0.1609 -0.5040
11576POPE   C3A60500   7.998  16.389  15.092  0.1022 -0.5179  0.0940
11576POPE   C4A60501   7.833  16.731  15.260 -0.2881 -0.0931  0.0191
11576POPE   C1B60502   8.492  16.421  14.932 -0.0255  0.1333 -0.0973
11576POPE   C2B60503   8.648  16.457  15.349 -0.0810 -0.0301  0.3603
11576POPE   C3B60504   8.752  16.561  15.800 -0.1956  0.0188 -0.0746
11576POPE   C4B60505   8.734  16.317  16.184 -0.2434  0.0201  0.0253
11577POPE   NH360506  19.825  20.522  10.370 -0.1298  0.0883  0.0435
11577POPE   PO460507  20.014  20.635  10.683  0.1294  0.1483 -0.0234
11577POPE   GL160508  20.418  20.520  10.686 -0.1463  0.0100 -0.0896
11577POPE   GL260509  20.640  20.534  10.324 -0.1133 -0.3439 -0.5658
11577POPE   C1A60510  20.809  20.410  10.779  0.0728 -0.0498 -0.0227
11577POPE   D2A60511  21.094  20.373  11.097 -0.0759  0.1174  0.0246
11577POPE   C3A60512  21.063  20.506  11.477 -0.0978  0.0664  0.0862
11577POPE   C4A60513  20.910  20.681  11.879 -0.2180 -0.0294  0.1344
11577POPE   C1B60514  21.022  20.611  10.413  0.0801  0.3287  0.0394
11577POPE   C2B60515  21.305  20.624  10.767  0.1781  0.1793 -0.2284
11577POPE   C3B60516  21.471  20.794  11.135 -0.1265 -0.0079 -0.0083
11577POPE   C4B60517  21.514  21.014  11.488 -0.0740  0.0528 -0.1959
11578POPE   NH360518  31.864  31.927   7.189 -0.1956  0.1905 -0.0577
11578POPE   PO460519  32.125  31.479   7.009 -0.3352  0.2149  0.1850
11578POPE   GL160520  31.967  31.165   7.293 -0.2426  0.0417 -0.3446
11578POPE   GL260521  31.947  31.403   7.442 -0.3484  0.1221  0.0711
11578POPE   C1A60522  32.089  30.916   7.642 -0.0337 -0.0975 -0.0298
11578POPE   D2A60523  31.951  30.937   8.036 -0.1098  0.3114  0.0113
11578POPE   C3A60524  31.922  30.574   8.307  0.0777 -0.0647 -0.0746
11578POPE   C4A60525  31.553  30.323   8.355 -0.1758  0.0874 -0.2271
11578POPE   C1B60526  32.125  31.389   7.811 -0.0891 -0.1689 -0.0045
11578POPE   C2B60527  31.840  31.417   8.054 -0.1031  0.0814 -0.1562
11578POPE   C3B60528  31.871  31.162   8.458  0.2222 -0.2312  0.1165
11578POPE   C4B60529  31.866  31.309   8.885  0.0805  0.4752  0.0668
11579POPE   NH360530  18.332  21.174  13.369 -0.3043  0.0170 -0.2920
11579POPE   PO460531  18.118  20.897  13.529 -0.1385 -0.1322 -0.0249
11579POPE   GL160532  18.497  20.847  13.724 -0.0981 -0.1049 -0.3843
11579POPE   GL260533  18.464  20.470  13.520  0.1490 -0.1898 -0.3128
11579POPE   C1A60534  18.794  20.803  14.082 -0.2864  0.0814 -0.0191
11579POPE   D2A60535  19.137  20.694  14.366  0.0848  0.0256  0.0917
11579POPE   C3A60536  19.570  20.526  14.246 -0.1111  0.0650 -0.1054
11579POPE   C4A60537  19.907  20.582  13.889  0.1320  0.0360 -0.1537
11579POPE   C1B60538  18.804  20.332  13.675 -0.1717 -0.0434 -0.2142
11579POPE   C2B60539  19.097  20.275  14.010 -0.3903 -0.0860 -0.0332
11579POPE   C3B60540  19.253  20.122  14.318  0.1218  0.3211 -0.0393
11579POPE   C4B60541  19.556  20.030  14.610  0.0850 -0.0149  0.0894
11580POPE   NH360542   2.378  26.319   6.923  0.0178  0.2629 -0.0106
11580POPE   PO460543   2.214  26.419   7.350 -0.0407 -0.0047 -0.3556
11580POPE   GL160544   1.869  26.173   7.609  0.0958  0.1218 -0.2486
11580POPE   GL260545   1.840  26.340   7.913 -0.2011  0.1601 -0.0284
11580POPE   C1A60546   1.463  25.999   7.614 -0.1865  0.3127 -0.1289
11580POPE   D2A60547   1.188  25.858   7.824 -0.0856 -0.1308  0.2846
11580POPE   C3A60548   0.989  25.583   7.928  0.1876 -0.2084 -0.0168
11580POPE   C4A60549   1.115  25.175   8.011  0.3871 -0.0114 -0.2356
11580POPE   C1B60550   1.452  26.195   8.107 -0.0160  0.2186  0.2358
11580POPE   C2B60551   1.213  25.929   8.319  0.1050 -0.0913 -0.1146
11580POPE   C3B60552   1.083  25.446   8.419 -0.1364  0.1605 -0.0924
11580POPE   C4B60553   0.706  25.271   8.278  0.0258  0.4274  0.2294
11581POPE   NH360554  17.544  22.633  14.345  0.2404 -0.0696 -0.0294
11581POPE   PO460555  17.353  22.633  14.808  0.0136 -0.1668 -0.0826
11581POPE   GL160556  17.609  22.727  15.221  0.1301  0.1592  0.1978
11581POPE   GL260557  17.884  22.804  15.140  0.0429 -0.2055  0.0421
11581POPE   C1A60558  17.740  22.601  15.653 -0.1429  0.1463  0.0617
11581POPE   D2A60559  18.066  22.582  15.932  0.0431 -0.1093  0.0725
11581POPE   C3A60560  18.067  22.369  16.362 -0.0960 -0.0282  0.1148
11581POPE   C4A60561  18.341  22.091  16.507  0.3474  0.4559 -0.0344
11581POPE   C1B60562  18.041  23.013  15.407 -0.2993  0.2138  0.0531
11581POPE   C2B60563  18.285  23.318  15.406  0.3501  0.0940  0.2802
11581POPE   C3B60564  18.544  23.544  15.716  0.3043  0.2357  0.0074
11581POPE   C4B60565  18.696  23.746  16.106 -0.2965 -0.0978  0.1267
11582POPE   NH360566   7.448  23.891  15.880  0.3101  0.1253 -0.1152
11582POPE   PO460567   7.295  24.100  15.613  0.0072  0.1989 -0.0145
11582POPE   GL160568   7.003  24.017  15.436 -0.0960 -0.0778 -0.2272
11582POPE   GL260569   6.972  23.724  15.213  0.2162  0.3516 -0.1237
11582POPE   C1A60570   6.545  23.817  15.464  0.0038  0.2629 -0.0426
11582POPE   D2A60571   6.220  23.559  15.516 -0.0664 -0.1760  0.0661
11582POPE   C3A60572   5.862  23.652  15.283  0.1777  0.0238 -0.2221
11582POPE   C4A60573   5.428  23.580  15.464 -0.1756  0.0441  0.3025
11582POPE   C1B60574   6.778  23.960  14.844 -0.0208  0.0974  0.3326
11582POPE   C2B60575   6.385  23.911  14.600  0.1890  0.0236 -0.3753
11582POPE   C3B60576   6.143  23.614  14.373 -0.0779 -0.0606 -0.4927
11582POPE   C4B60577   5.946  23.201  14.341  0.0464  0.2027 -0.1754
11583POPE   NH360578   0.053   6.167   6.983 -0.0335  0.1485 -0.0835
11583POPE   PO460579   0.192   5.747   7.036 -0.1300  0.0546  0.2949
11583POPE   GL160580   0.189   5.954   7.487  0.0055 -0.0606  0.1403
11583POPE   GL260581  35.381   6.150   7.481  0.2004  0.4306 -0.0071
11583POPE   C1A60582   0.409   5.973   7.916  0.0328  0.2008 -0.2377
11583POPE   D2A60583   0.283   5.821   8.360 -0.3894 -0.0292  0.0637
11583POPE   C3A60584   0.571   6.057   8.634 -0.1944  0.0528  0.0779
11583POPE   C4A60585   0.870   6.276   8.436 -0.0411 -0.1590 -0.1727
11583POPE   C1B60586   0.087   6.445   7.747  0.0013  0.0570 -0.5500
11583POPE   C2B60587  35.316   6.639   8.083  0.0186 -0.1439 -0.1206
11583POPE   C3B60588  35.029   6.810   8.392 -0.1651 -0.0992 -0.0724
11583POPE   C4B60589  34.775   6.776   8.816  0.2198 -0.0134  0.1677
11584POPE   NH360590  21.575  10.336   7.875  0.2783  0.0536 -0.1572
11584POPE   PO460591  21.459   9.927   7.643  0.2134  0.2442  0.2801
11584POPE   GL160592  21.816   9.909   8.044  0.1406  0.2434 -0.4827
11584POPE   GL260593  21.777   9.888   8.459  0.1806  0.3339 -0.2304
11584POPE   C1A60594  22.290  10.004   7.924 -0.4332  0.1719  0.1743
11584POPE   D2A60595  22.642  10.003   8.054 -0.1639 -0.1773 -0.0003
11584POPE   C3A60596  22.979  10.059   8.305 -0.3842  0.1018  0.1284
11584POPE   C4A60597  23.234  10.231   8.556 -0.2489 -0.1202 -0.0628
11584POPE   C1B60598  22.201  10.009   8.517  0.0437  0.0566 -0.0668
11584POPE   C2B60599  22.604  10.224   8.560  0.1274 -0.0062  0.1118
11584POPE   C3B60600  22.851  10.526   8.642 -0.2094  0.4609 -0.1114
11584POPE   C4B60601  23.077  10.786   8.806 -0.4351  0.0153 -0.0991
11585POPE   NH360602  27.191  25.813   1.456  0.1740 -0.4208 -0.0720
11585POPE   PO460603  27.590  25.797   1.753 -0.3380  0.1246  0.2937
11585POPE   GL160604  27.864  25.789   2.160  0.1110  0.0310 -0.0930
11585POPE   GL260605  27.769  25.489   2.279 -0.0805  0.0225  0.0412
11585POPE   C1A60606  28.070  25.788   2.531 -0.1070 -0.2365  0.0878
11585POPE   D2A60607  28.215  25.724   2.969  0.1965 -0.3500  0.2853
11585POPE   C3A60608  28.567  26.084   3.161  0.1600  0.0443  0.0073
11585POPE   C4A60609  28.658  26.405   3.419 -0.1119  0.1195 -0.0041
11585POPE   C1B60610  27.591  25.075   2.428  0.0803  0.0753 -0.1149
11585POPE   C2B60611  27.619  24.920   2.811  0.0974 -0.2789  0.1417
11585POPE   C3B60612  27.844  24.724   3.154 -0.0510  0.1188 -0.1479
11585POPE   C4B60613  28.177  24.431   3.524  0.0101 -0.2984  0.0626
11586POPE   NH360614  22.215   7.494   6.879  0.1057  0.0413  0.2789
11586POPE   PO460615  22.583   7.391   6.679 -0.1776  0.0862  0.0201
11586POPE   GL160616  22.890   7.765   6.802  0.2528  0.2025 -0.0313
11586POPE   GL260617  23.044   7.981   6.983  0.1809  0.0069 -0.4225
11586POPE   C1A60618  23.362   7.918   6.635  0.2338  0.0246 -0.2303
11586POPE   D2A60619  23.823   8.103   6.674 -0.3662  0.2976 -0.0240
11586POPE   C3A60620  24.082   8.231   6.972 -0.1073  0.1670  0.0350
11586POPE   C4A60621  24.256   8.041   7.300 -0.2272 -0.0731  0.0642
11586POPE   C1B60622  23.337   7.604   7.073 -0.0555 -0.1058  0.0178
11586POPE   C2B60623  23.499   7.428   6.819  0.2300  0.1462 -0.2130
11586POPE   C3B60624  23.803   7.617   6.638  0.3924 -0.0604  0.1025
11586POPE   C4B60625  24.222   7.806   6.645  0.2436 -0.0486 -0.1023
11587POPE   NH360626  13.289  31.673  16.460 -0.0068  0.2114  0.0452
11587POPE   PO460627  12.900  31.711  16.649 -0.3117 -0.0422 -0.1126
11587POPE   GL160628  13.098  31.861  17.016  0.0692  0.3452 -0.0541
11587POPE   GL260629  13.333  31.618  17.023 -0.1327 -0.1099  0.1610
11587POPE   C1A60630  13.250  31.991  17.365 -0.2114 -0.0928 -0.2443
11587POPE   D2A60631  13.371  31.919  17.702  0.1400 -0.0862  0.0840
11587POPE   C3A60632  13.306  32.298  17.848 -0.0578 -0.0572  0.0640
11587POPE   C4A60633  13.459  32.606  18.139  0.0588  0.0359 -0.0852
11587POPE   C1B60634  13.627  31.577  17.369 -0.4081  0.4643  0.0117
11587POPE   C2B60635  13.881  31.768  17.649  0.2248  0.0960 -0.0533
11587POPE   C3B60636  13.767  32.090  18.002 -0.1517 -0.0036 -0.1117
11587POPE   C4B60637  13.647  31.871  18.485 -0.2083 -0.2933 -0.0320
11588POPE   NH360638  16.145   7.656  13.829  0.0543  0.0132 -0.3460
11588POPE   PO460639  15.912   8.052  13.996  0.0363 -0.1696 -0.0279
11588POPE   GL160640  15.754   7.802  14.286 -0.1691  0.1316  0.0360
11588POPE   GL260641  15.714   7.595  14.152 -0.3080  0.0226  0.0576
11588POPE   C1A60642  15.519   7.842  14.760 -0.0153  0.0101  0.0028
11588POPE   D2A60643  15.376   7.749  15.202 -0.3793  0.1040  0.3341
11588POPE   C3A60644  15.699   7.731  15.482 -0.0495 -0.3551 -0.1202
11588POPE   C4A60645  15.920   8.029  15.742 -0.0174  0.0690 -0.0219
11588POPE   C1B60646  15.910   7.375  14.555  0.0858  0.1876 -0.0532
11588POPE   C2B60647  15.730   7.472  14.987 -0.0134 -0.3200 -0.1241
11588POPE   C3B60648  15.792   7.297  15.330 -0.0294  0.2297 -0.1703
11588POPE   C4B60649  16.064   7.233  15.665  0.1270 -0.0134  0.0771
11589POPE   NH360650  19.524  15.769  10.333 -0.1959 -0.0735 -0.0349
11589POPE   PO460651  19.541  15.270  10.360  0.2383 -0.3689  0.0522
11589POPE   GL160652  19.960  15.554  10.555 -0.2277  0.1455 -0.3299
11589POPE   GL260653  20.082  15.646  10.262 -0.1526  0.0013 -0.1532
11589POPE   C1A60654  20.244  15.347  10.916 -0.3188  0.1001  0.0763
11589POPE   D2A60655  20.580  15.360  11.219 -0.1336  0.0700 -0.0315
11589POPE   C3A60656  20.729  14.997  11.420 -0.1545  0.0144  0.0809
11589POPE   C4A60657  20.883  14.634  11.736  0.0965  0.0928 -0.0175
11589POPE   C1B60658  20.424  15.521  10.450  0.0892 -0.0858  0.0625
11589POPE   C2B60659  20.776  15.401  10.754  0.1989  0.2280 -0.0618
11589POPE   C3B60660  21.059  15.165  11.072  0.0300 -0.0566 -0.0351
11589POPE   C4B60661  21.434  15.411  11.131  0.3113 -0.3312 -0.2381
11590POPE   NH360662   3.413  35.284  12.104  0.1821 -0.0608  0.0769
11590POPE   PO460663   3.439   0.312  11.851 -0.3335  0.1841 -0.3237
11590POPE   GL160664   3.047   0.318  12.079 -0.0788 -0.1289 -0.3190
11590POPE   GL260665   2.897   0.134  11.935  0.0164 -0.0750  0.4102
11590POPE   C1A60666   2.880   0.517  12.403 -0.1613  0.2280 -0.0765
11590POPE   D2A60667   2.546   0.865  12.421 -0.2526  0.0785 -0.0452
11590POPE   C3A60668   2.271   1.022  12.776  0.3383  0.1529  0.1439
11590POPE   C4A60669   2.402   1.326  13.082 -0.2405 -0.1650 -0.0117
11590POPE   C1B60670   2.690   0.591  11.823  0.1059 -0.3276  0.1272
11590POPE   C2B60671   2.552   0.960  11.871  0.1457 -0.0380  0.1672
11590POPE   C3B60672   2.274   1.139  12.061 -0.3140 -0.4050 -0.0637
11590POPE   C4B60673   2.181   1.440  12.378  0.0271 -0.1105 -0.1754
11591POPE   NH360674  17.289  14.702  13.206  0.3502 -0.2831 -0.0223
11591POPE   PO460675  17.166  14.323  13.366  0.0667 -0.0153 -0.1665
11591POPE   GL160676  17.515  14.105  13.474  0.0314  0.2438  0.1165
11591POPE   GL260677  17.670  13.928  13.293 -0.0646 -0.1678  0.0145
11591POPE   C1A60678  17.568  13.952  13.868 -0.1639  0.2319  0.2330
11591POPE   D2A60679  17.889  13.767  14.049  0.0062 -0.2437 -0.1669
11591POPE   C3A60680  18.121  13.894  14.260 -0.0738  0.0569  0.2523
11591POPE   C4A60681  18.398  14.196  14.246  0.0635 -0.0336 -0.2636
11591POPE   C1B60682  18.022  14.040  13.495  0.2026 -0.1569  0.0900
11591POPE   C2B60683  18.080  14.203  13.881 -0.1020  0.0820  0.2401
11591POPE   C3B60684  18.473  14.436  13.820 -0.1010  0.4179  0.1727
11591POPE   C4B60685  18.869  14.337  14.065  0.2548 -0.0585  0.0688
11592POPE   NH360686  18.926  29.999   9.554  0.1789  0.4575  0.0262
11592POPE   PO460687  18.723  30.234   9.843  0.1051  0.0438 -0.0457
11592POPE   GL160688  18.976  30.180  10.086  0.2408  0.0477 -0.0711
11592POPE   GL260689  18.785  30.433  10.335  0.1254  0.2155 -0.0101
11592POPE   C1A60690  19.239  30.145  10.391 -0.1044  0.0062  0.2442
11592POPE   D2A60691  19.352  30.084  10.687  0.0902 -0.0375  0.1232
11592POPE   C3A60692  19.761  29.905  10.735  0.1712 -0.0843  0.1484
11592POPE   C4A60693  19.996  29.615  10.864  0.3850 -0.0096 -0.1134
11592POPE   C1B60694  18.905  30.350  10.762  0.1002  0.0185  0.1929
11592POPE   C2B60695  19.085  30.183  11.106 -0.3713 -0.1323  0.1947
11592POPE   C3B60696  19.165  29.975  11.498 -0.0121 -0.2543 -0.1303
11592POPE   C4B60697  19.097  30.068  11.798 -0.2246  0.1163 -0.0786
11593POPE   NH360698  34.482  12.048   2.035 -0.0431 -0.0258 -0.0957
11593POPE   PO460699  34.388  11.720   2.322 -0.0094  0.1388  0.0849
11593POPE   GL160700  34.324  11.671   2.722  0.3230 -0.2506  0.1532
11593POPE   GL260701  34.219  11.388   2.871  0.1485  0.0642 -0.1424
11593POPE   C1A60702  34.393  11.962   3.060 -0.3661  0.0755 -0.0594
11593POPE   D2A60703  34.261  12.433   3.199  0.0590 -0.0669 -0.2612
11593POPE   C3A60704  34.050  12.380   3.556 -0.2204  0.1679  0.0800
11593POPE   C4A60705  33.735  12.303   3.915 -0.0031 -0.1365  0.0591
11593POPE   C1B60706  34.085  11.623   3.207  0.1183  0.2285  0.0278
11593POPE   C2B60707  34.015  11.860   3.602 -0.3428  0.2204 -0.1692
11593POPE   C3B60708  33.824  11.845   4.061 -0.0610  0.1443  0.0705
11593POPE   C4B60709  33.952  12.136   4.441 -0.0901 -0.3431 -0.2907
11594POPE   NH360710  26.712  11.388   1.695  0.0103  0.3258  0.0765
11594POPE   PO460711  26.377  11.079   1.659 -0.0323  0.0711 -0.1322
11594POPE   GL160712  26.605  10.898   1.822 -0.0188 -0.1413  0.1571
11594POPE   GL260713  26.650  11.017   2.112 -0.3995 -0.0046  0.1061
11594POPE   C1A60714  26.911  10.638   2.096 -0.0534 -0.0639  0.0914
11594POPE   D2A60715  27.216  10.494   2.413 -0.0229 -0.1255  0.1362
11594POPE   C3A60716  27.271  10.729   2.894 -0.1340 -0.0290  0.1478
11594POPE   C4A60717  27.197  10.979   3.268 -0.1791  0.0630  0.0954
11594POPE   C1B60718  26.766  11.175   2.593  0.1195 -0.3750  0.1234
11594POPE   C2B60719  27.022  11.488   2.827 -0.1909 -0.0980 -0.0451
11594POPE   C3B60720  27.254  11.491   3.195 -0.1979  0.1465  0.3151
11594POPE   C4B60721  27.366  11.871   3.450 -0.2314  0.0633 -0.0948
11595POPE   NH360722  19.077  23.483  12.295  0.0124 -0.0769  0.0668
11595POPE   PO460723  19.329  23.276  11.976 -0.1819 -0.0597 -0.2887
11595POPE   GL160724  19.682  23.313  12.214  0.0816 -0.0042  0.2823
11595POPE   GL260725  19.499  23.369  12.524 -0.0116 -0.0337 -0.0116
11595POPE   C1A60726  20.052  23.126  12.324  0.1769 -0.0734 -0.4395
11595POPE   D2A60727  20.462  23.051  12.402 -0.1182 -0.2808 -0.0544
11595POPE   C3A60728  20.880  23.172  12.402 -0.0553 -0.2301 -0.0411
11595POPE   C4A60729  21.149  23.545  12.485  0.0960  0.2209  0.1196
11595POPE   C1B60730  19.761  23.554  12.724  0.1076 -0.2624 -0.1628
11595POPE   C2B60731  19.766  23.400  13.189 -0.2327  0.1536  0.1527
11595POPE   C3B60732  19.952  23.105  13.466 -0.1511  0.1629  0.0056
11595POPE   C4B60733  20.296  23.072  13.710  0.3693  0.1395 -0.3026
11596POPE   NH360734   9.897   1.866  15.481 -0.2626 -0.1265 -0.0237
11596POPE   PO460735   9.427   1.888  15.540  0.2351  0.0742  0.0417
11596POPE   GL160736   9.595   1.909  15.900 -0.2272 -0.3286  0.0227
11596POPE   GL260737   9.399   1.640  16.038 -0.1037  0.0316  0.4625
11596POPE   C1A60738   9.743   1.917  16.302  0.0730 -0.2082 -0.0162
11596POPE   D2A60739   9.853   1.909  16.697  0.0735  0.1605  0.1857
11596POPE   C3A60740  10.087   2.308  16.969  0.0630 -0.1230 -0.2615
11596POPE   C4A60741  10.027   2.734  16.870  0.1166  0.3552  0.0888
11596POPE   C1B60742   9.193   1.956  16.271 -0.1655  0.0459  0.0921
11596POPE   C2B60743   9.068   2.204  16.608  0.1352 -0.3061 -0.0163
11596POPE   C3B60744   9.095   2.306  16.942  0.2082  0.3419  0.0906
11596POPE   C4B60745   9.197   2.607  17.347 -0.2655  0.0329  0.0653
11597POPE   NH360746   4.204   3.010  10.655  0.3394  0.2312  0.2127
11597POPE   PO460747   4.354   2.989  10.985  0.2694 -0.3289 -0.0920
11597POPE   GL160748   4.235   3.280  11.236 -0.2537 -0.1038 -0.0399
11597POPE   GL260749   4.411   3.463  11.282  0.3798  0.1127  0.0201
11597POPE   C1A60750   3.967   3.510  11.565 -0.2684 -0.2946 -0.2415
11597POPE   D2A60751   3.701   3.563  11.866  0.0894 -0.2957 -0.0999
11597POPE   C3A60752   3.569   3.304  12.244 -0.1834  0.3950 -0.4293
11597POPE   C4A60753   3.281   3.145  12.537 -0.1638  0.0987  0.2876
11597POPE   C1B60754   4.351   3.802  11.509  0.4750 -0.3912  0.1324
11597POPE   C2B60755   3.956   3.995  11.620  0.1723 -0.0018 -0.4966
11597POPE   C3B60756   3.451   4.051  11.828 -0.0147 -0.0195  0.2185
11597POPE   C4B60757   3.253   3.764  12.236 -0.0352 -0.2819  0.0438
11598POPE   NH360758  11.723  20.416  16.754  0.2047 -0.0077 -0.0676
11598POPE   PO460759  11.374  20.002  16.594 -0.2754 -0.0548  0.2937
11598POPE   GL160760  11.312  19.649  16.764 -0.3119  0.0187 -0.0696
11598POPE   GL260761  11.657  19.387  16.792  0.3325  0.2574  0.0430
11598POPE   C1A60762  11.065  19.306  16.764 -0.3300 -0.2476 -0.2469
11598POPE   D2A60763  10.899  19.029  17.028 -0.0879 -0.0960  0.1119
11598POPE   C3A60764  11.094  18.627  16.963 -0.1811  0.1539  0.2212
11598POPE   C4A60765  11.273  18.313  16.731  0.1634  0.1075  0.1490
11598POPE   C1B60766  11.817  19.287  17.146  0.0548 -0.1307  0.1156
11598POPE   C2B60767  11.879  18.867  17.317  0.0845  0.0882 -0.2788
11598POPE   C3B60768  11.975  18.508  17.589 -0.3160  0.2296  0.1479
11598POPE   C4B60769  12.092  18.239  17.943 -0.4137  0.0376 -0.1272
11599POPE   NH360770  18.155  22.964  13.715 -0.0809  0.1957 -0.0513
11599POPE   PO460771  18.426  23.281  13.484 -0.1944 -0.2380  0.2179
11599POPE   GL160772  18.724  23.309  13.551  0.0004  0.0001 -0.3680
11599POPE   GL260773  18.775  23.627  13.635 -0.0573  0.1988 -0.4356
11599POPE   C1A60774  19.028  23.212  13.851 -0.0899 -0.1455  0.0993
11599POPE   D2A60775  19.213  23.238  14.181  0.0496  0.1008  0.0141
11599POPE   C3A60776  19.619  23.363  14.273 -0.4912  0.0052  0.0110
11599POPE   C4A60777  19.999  23.248  14.260 -0.0680  0.1944  0.0829
11599POPE   C1B60778  19.058  23.706  14.007  0.0902  0.1387 -0.2942
11599POPE   C2B60779  19.242  23.739  14.272  0.1419 -0.1531  0.3402
11599POPE   C3B60780  19.580  23.855  14.398  0.1864 -0.2098 -0.0624
11599POPE   C4B60781  19.969  23.688  14.440  0.1391 -0.2563  0.4664
11600POPE   NH360782   5.337   0.222  13.789  0.2394 -0.0773  0.2303
11600POPE   PO460783   5.735   0.367  13.799  0.1004 -0.3152 -0.1601
11600POPE   GL160784   5.399   0.637  14.078  0.0854  0.2209  0.2027
11600POPE   GL260785   5.217   0.419  14.235 -0.0804 -0.1220  0.0759
11600POPE   C1A60786   5.172   0.866  14.412  0.0260 -0.4686  0.0522
11600POPE   D2A60787   4.838   0.969  14.675  0.3826 -0.1926  0.0276
11600POPE   C3A60788   4.906   1.064  15.171 -0.0731 -0.2616 -0.0627
11600POPE   C4A60789   4.858   1.456  15.300  0.2928 -0.1326  0.0470
11600POPE   C1B60790   4.933   0.424  14.589 -0.0230  0.0270  0.0320
11600POPE   C2B60791   4.695   0.530  14.827  0.3231  0.0087 -0.1422
11600POPE   C3B60792   4.443   0.903  14.958 -0.0846  0.0887 -0.0369
11600POPE   C4B60793   4.065   0.959  15.112  0.0073 -0.1563  0.2739
11601POPE   NH360794  32.423  31.764   7.325  0.2233 -0.3896 -0.0027
11601POPE   PO460795  32.234  32.195   7.311  0.0660  0.3246 -0.1066
11601POPE   GL160796  32.417  32.280   7.724 -0.1376  0.2037  0.2813
11601POPE   GL260797  32.430  32.461   7.889 -0.3451 -0.1365  0.1034
11601POPE   C1A60798  32.141  32.318   8.203 -0.1095 -0.0910  0.0068
11601POPE   D2A60799  32.006  32.455   8.432 -0.0146 -0.0219  0.0784
11601POPE   C3A60800  32.008  32.320   8.773  0.1511 -0.0595 -0.0617
11601POPE   C4A60801  31.840  32.341   9.197 -0.0511  0.2915  0.0684
11601POPE   C1B60802  32.162  32.797   7.719  0.1368  0.0617 -0.0999
11601POPE   C2B60803  31.913  32.818   8.079 -0.1530 -0.1604 -0.2303
11601POPE   C3B60804  31.686  32.860   8.540  0.0113 -0.0109 -0.0451
11601POPE   C4B60805  31.793  32.838   8.961 -0.1304  0.3777  0.1646
11602POPE   NH360806  30.801  17.661   0.018  0.0728  0.0337  0.0225
11602POPE   PO460807  30.972  17.447   0.343  0.0539  0.1132 -0.2285
11602POPE   GL160808  30.881  17.675   0.609  0.1740 -0.1872 -0.0576
11602POPE   GL260809  30.523  17.624   0.723 -0.1827  0.0906 -0.2585
11602POPE   C1A60810  30.784  17.933   0.998 -0.1794  0.0199  0.0089
11602POPE   D2A60811  30.839  17.947   1.324  0.2304 -0.1166 -0.0950
11602POPE   C3A60812  30.792  17.914   1.682  0.1515 -0.0768  0.1385
11602POPE   C4A60813  30.786  17.864   2.077 -0.2566  0.1863 -0.0512
11602POPE   C1B60814  30.330  17.333   0.977  0.3159 -0.3667 -0.0726
11602POPE   C2B60815  30.239  17.233   1.343 -0.0170  0.0435 -0.2029
11602POPE   C3B60816  30.025  17.243   1.760  0.1198 -0.0359 -0.4309
11602POPE   C4B60817  30.062  17.218   2.146 -0.0743  0.0906 -0.2389
11603POPE   NH360818  29.606  24.907   1.078  0.3447  0.0725  0.0550
11603POPE   PO460819  29.794  24.550   0.950  0.1177 -0.2230 -0.0364
11603POPE   GL160820  29.923  24.209   1.265 -0.0349 -0.1230 -0.2437
11603POPE   GL260821  29.885  23.865   1.215  0.2741 -0.1624 -0.6083
11603POPE   C1A60822  29.975  24.201   1.780 -0.1866 -0.0022 -0.1482
11603POPE   D2A60823  30.129  24.192   2.269 -0.0222 -0.1479 -0.1403
11603POPE   C3A60824  30.286  23.864   2.470 -0.0799  0.1407  0.0025
11603POPE   C4A60825  30.561  23.702   2.695 -0.2483 -0.0701  0.3480
11603POPE   C1B60826  30.014  23.759   1.560  0.1672  0.1352 -0.0280
11603POPE   C2B60827  30.222  23.403   1.870  0.0637 -0.0915  0.0700
11603POPE   C3B60828  30.375  23.378   2.337 -0.0027  0.1170  0.1232
11603POPE   C4B60829  30.438  23.153   2.723  0.1300  0.1385  0.3300
11604POPE   NH360830   9.398  34.250  16.284 -0.0671  0.1056  0.1403
11604POPE   PO460831   9.750  34.422  16.592 -0.0487 -0.0963 -0.1571
11604POPE   GL160832   9.572  34.090  16.907  0.0458  0.0694 -0.0526
11604POPE   GL260833   9.526  34.320  17.093 -0.0512 -0.0327 -0.0159
11604POPE   C1A60834   9.568  33.922  17.391 -0.0295  0.2789  0.1883
11604POPE   D2A60835   9.590  33.883  17.778 -0.0197 -0.1632  0.2565
11604POPE   C3A60836   9.621  34.106  18.100 -0.0458 -0.1735 -0.0862
11604POPE   C4A60837   9.407  34.278  18.389 -0.1094 -0.1093 -0.0684
11604POPE   C1B60838   9.507  34.374  17.421  0.0019  0.3212  0.5287
11604POPE   C2B60839   9.432  34.519  17.805  0.0264 -0.1891  0.3977
11604POPE   C3B60840   9.536  34.737  18.150 -0.1230  0.0925 -0.1934
11604POPE   C4B60841   9.477  34.957  18.569 -0.1362  0.1470 -0.2684
11605POPE   NH360842  15.424   6.623  13.435  0.0593  0.0942 -0.0606
11605POPE   PO460843  15.741   6.878  13.476 -0.2023 -0.1085 -0.3089
11605POPE   GL160844  15.702   6.751  13.918  0.0415 -0.0267  0.0567
11605POPE   GL260845  15.848   7.124  13.943 -0.4651  0.1914 -0.0109
11605POPE   C1A60846  15.881   6.528  14.200  0.0286 -0.0102 -0.0513
11605POPE   D2A60847  15.966   6.411  14.622 -0.3350 -0.3237  0.0088
11605POPE   C3A60848  15.950   6.131  14.920 -0.0444  0.0115  0.1152
11605POPE   C4A60849  15.777   5.994  15.309 -0.0237 -0.2173 -0.0112
11605POPE   C1B60850  16.188   6.977  14.156  0.1540  0.0232 -0.0516
11605POPE   C2B60851  16.272   6.922  14.539  0.1152 -0.2214  0.1778
11605POPE   C3B60852  16.369   6.647  14.901  0.0840  0.2436 -0.2750
11605POPE   C4B60853  16.657   6.345  15.187 -0.0789  0.0603 -0.1853
11606POPE   NH360854   9.225  13.377  13.632  0.0443 -0.0058  0.0847
11606POPE   PO460855   9.153  13.379  13.240 -0.1693  0.1711  0.1142
11606POPE   GL160856   8.749  13.153  13.298  0.3133  0.0202 -0.0515
11606POPE   GL260857   8.828  12.857  13.518  0.0175 -0.3631  0.0316
11606POPE   C1A60858   8.354  13.294  13.545 -0.0573  0.0759  0.0100
11606POPE   D2A60859   8.113  13.434  13.858 -0.2089  0.1705  0.0691
11606POPE   C3A60860   7.879  13.410  14.215  0.1913 -0.2033 -0.0692
11606POPE   C4A60861   7.676  13.647  14.512 -0.0017 -0.0506  0.1800
11606POPE   C1B60862   8.650  12.754  14.095  0.1044  0.1078 -0.0126
11606POPE   C2B60863   8.403  12.806  14.473  0.1480  0.2033  0.0489
11606POPE   C3B60864   8.426  12.719  14.893 -0.1901 -0.0922 -0.1466
11606POPE   C4B60865   7.946  12.560  15.050 -0.1732  0.0935 -0.2871
11607POPE   NH360866  22.382   9.174   5.718 -0.1453 -0.1352 -0.2039
11607POPE   PO460867  22.581   9.503   5.750  0.2145 -0.0163  0.0025
11607POPE   GL160868  22.670   9.817   5.997  0.1241  0.0446  0.0150
11607POPE   GL260869  22.562   9.767   6.317  0.1282  0.1921 -0.1779
11607POPE   C1A60870  22.832  10.165   6.296 -0.0922 -0.2544  0.3816
11607POPE   D2A60871  22.914  10.361   6.584  0.0178 -0.4641  0.0699
11607POPE   C3A60872  23.249  10.472   6.716  0.0370 -0.2828 -0.1854
11607POPE   C4A60873  23.608  10.470   7.074 -0.0702  0.1802  0.1806
11607POPE   C1B60874  23.055   9.770   6.507 -0.0150  0.2019 -0.2587
11607POPE   C2B60875  23.309   9.932   6.797 -0.2364 -0.1756 -0.1445
11607POPE   C3B60876  23.401  10.004   7.303  0.1175 -0.0220  0.1378
11607POPE   C4B60877  23.583  10.234   7.578 -0.0179 -0.0753  0.1394
11608POPE   NH360878  21.740   0.489   7.935  0.0308 -0.0209  0.0305
11608POPE   PO460879  21.380   0.623   8.400  0.4242 -0.2200 -0.1080
11608POPE   GL160880  21.551   0.596   8.842 -0.0473 -0.0915  0.1611
11608POPE   GL260881  21.741   0.814   8.968 -0.0991 -0.0190 -0.1192
11608POPE   C1A60882  21.644   0.324   9.216 -0.0641  0.1380 -0.0092
11608POPE   D2A60883  21.815   0.203   9.656  0.1106  0.0337  0.0626
11608POPE   C3A60884  21.727  35.231   9.877  0.2410  0.1772 -0.1009
11608POPE   C4A60885  21.938  34.964  10.050 -0.3240 -0.0580  0.2663
11608POPE   C1B60886  21.886   0.826   9.300 -0.0498  0.4208 -0.0821
11608POPE   C2B60887  22.159   1.018   9.686 -0.1701  0.3304  0.3135
11608POPE   C3B60888  22.376   1.310   9.907 -0.3138  0.0432  0.0851
11608POPE   C4B60889  22.243   1.579  10.180 -0.1196  0.0705 -0.4394
11609POPE   NH360890  14.466  32.509  14.209 -0.1905  0.0801  0.1360
11609POPE   PO460891  14.707  32.271  13.915 -0.3362 -0.1407  0.0949
11609POPE   GL160892  14.957  32.326  14.163  0.0694  0.0183  0.1672
11609POPE   GL260893  15.204  32.358  14.036 -0.0629  0.1421  0.1310
11609POPE   C1A60894  15.103  32.587  14.495 -0.1815 -0.0479 -0.1251
11609POPE   D2A60895  15.447  32.658  14.778  0.1247  0.1369 -0.2215
11609POPE   C3A60896  15.447  32.987  15.080 -0.0004  0.6458  0.2051
11609POPE   C4A60897  15.318  33.247  15.486 -0.1391 -0.0808  0.4411
11609POPE   C1B60898  15.549  32.445  14.251  0.0175  0.2672 -0.0454
11609POPE   C2B60899  15.893  32.426  14.435  0.1029 -0.1219 -0.1429
11609POPE   C3B60900  16.249  32.575  14.685  0.0407 -0.2645  0.1900
11609POPE   C4B60901  16.503  32.455  15.059  0.3773 -0.1281  0.2644
11610POPE   NH360902  11.482   2.978  14.067  0.0951  0.1344 -0.1550
11610POPE   PO460903  11.436   3.473  14.047 -0.0345 -0.1302 -0.2410
11610POPE   GL160904  11.348   3.446  14.579 -0.0162 -0.1575 -0.1253
11610POPE   GL260905  11.528   3.185  14.526  0.1104 -0.2142 -0.0927
11610POPE   C1A60906  11.466   3.480  15.027 -0.1191  0.2227 -0.2426
11610POPE   D2A60907  11.647   3.209  15.360 -0.1865  0.0465 -0.1804
11610POPE   C3A60908  11.669   2.823  15.521 -0.2602  0.0885  0.2080
11610POPE   C4A60909  11.859   2.574  15.854  0.0076  0.1849  0.0971
11610POPE   C1B60910  11.692   3.061  14.878  0.1918  0.0979  0.1299
11610POPE   C2B60911  12.080   3.007  15.271 -0.0091  0.2072  0.2185
11610POPE   C3B60912  12.128   2.967  15.647  0.0696  0.0591 -0.2286
11610POPE   C4B60913  12.500   3.166  16.028  0.0161  0.2024 -0.1392
11611POPE   NH360914   6.760  13.444  11.485  0.1895  0.1457  0.0069
11611POPE   PO460915   6.295  13.315  11.403  0.0841 -0.1498 -0.2063
11611POPE   GL160916   5.926  13.532  11.542 -0.0047 -0.0379  0.1273
11611POPE   GL260917   5.828  13.444  11.827  0.1971 -0.2047 -0.0235
11611POPE   C1A60918   5.493  13.435  11.386 -0.2330  0.0833  0.0367
11611POPE   D2A60919   5.194  13.351  11.527 -0.0743 -0.2228 -0.0783
11611POPE   C3A60920   4.991  13.665  11.583 -0.1321 -0.0728  0.0019
11611POPE   C4A60921   4.726  13.522  11.809 -0.3598 -0.1211  0.2884
11611POPE   C1B60922   5.507  13.407  11.965  0.4155  0.1674 -0.0651
11611POPE   C2B60923   5.111  13.294  12.038 -0.2482 -0.1594  0.2075
11611POPE   C3B60924   4.732  13.109  12.076 -0.0323  0.0630  0.0284
11611POPE   C4B60925   4.674  12.812  12.422 -0.1295  0.1850 -0.1030
11612POPE   NH360926   5.826  27.971  15.470  0.3759 -0.1113  0.2669
11612POPE   PO460927   6.118  27.874  15.716 -0.2181  0.5668  0.0142
11612POPE   GL160928   5.864  27.818  16.054 -0.0124 -0.1958  0.2508
11612POPE   GL260929   5.912  27.719  16.397 -0.1533  0.0206  0.3819
11612POPE   C1A60930   5.471  27.686  16.236 -0.1145 -0.1696 -0.0518
11612POPE   D2A60931   5.050  27.700  16.349  0.0286  0.1208 -0.0443
11612POPE   C3A60932   5.027  27.611  16.727  0.0394 -0.4355 -0.1851
11612POPE   C4A60933   5.241  27.367  16.903 -0.0067 -0.1411 -0.1261
11612POPE   C1B60934   5.716  27.492  16.746  0.1578  0.0364 -0.0955
11612POPE   C2B60935   5.638  27.312  17.198 -0.0776  0.4395 -0.0089
11612POPE   C3B60936   5.498  27.295  17.600  0.1484 -0.3793  0.0258
11612POPE   C4B60937   5.215  27.436  17.945  0.2176  0.3134  0.2230
11613POPE   NH360938  11.103  21.530  17.619  0.1116 -0.1041 -0.2135
11613POPE   PO460939  11.533  21.432  17.655  0.0093 -0.4021 -0.1086
11613POPE   GL160940  11.330  21.235  18.043 -0.1057 -0.0611 -0.0829
11613POPE   GL260941  11.250  21.071  17.945  0.0766  0.0508  0.1436
11613POPE   C1A60942  11.343  21.266  18.530 -0.0588 -0.0430  0.0159
11613POPE   D2A60943  11.190  21.146  18.861  0.0753  0.0372  0.1943
11613POPE   C3A60944  11.279  20.760  19.166  0.0170 -0.3013 -0.0124
11613POPE   C4A60945  11.384  20.367  19.389 -0.1573 -0.3419  0.0796
11613POPE   C1B60946  11.184  20.854  18.304  0.0953  0.0827 -0.2004
11613POPE   C2B60947  11.105  20.670  18.703 -0.2753  0.1848  0.1972
11613POPE   C3B60948  11.348  20.298  18.923  0.1616  0.2726 -0.0420
11613POPE   C4B60949  11.451  19.902  19.170  0.1676 -0.2508  0.1976
11614POPE   NH360950   9.412   5.665  14.508 -0.0690 -0.1461  0.1503
11614POPE   PO460951   9.739   5.867  14.457  0.0317 -0.2538 -0.0134
11614POPE   GL160952   9.450   5.989  14.916 -0.2263 -0.0246 -0.1536
11614POPE   GL260953   9.567   6.192  14.967 -0.0087 -0.1907 -0.0936
11614POPE   C1A60954   9.040   6.036  14.917 -0.0077  0.0388 -0.0787
11614POPE   D2A60955   8.735   6.340  15.070 -0.0906  0.2199  0.1671
11614POPE   C3A60956   8.489   6.454  15.493 -0.0161  0.1428  0.2907
11614POPE   C4A60957   8.488   6.663  15.935 -0.3828 -0.0179 -0.0465
11614POPE   C1B60958   9.478   6.059  15.453  0.4406  0.0832  0.2042
11614POPE   C2B60959   9.239   5.865  15.826  0.2318  0.1310 -0.3525
11614POPE   C3B60960   9.431   5.983  16.188  0.1285 -0.0480 -0.1783
11614POPE   C4B60961   9.575   6.312  16.469 -0.2833  0.2017  0.0206
11615DOPE   NH360962  11.786  21.937  17.687 -0.1954  0.1740  0.2538
11615DOPE   PO460963  11.409  21.833  18.027  0.2826 -0.0131 -0.1003
11615DOPE   GL160964  11.756  21.597  18.153  0.0844  0.0570 -0.2099
11615DOPE   GL260965  12.024  21.746  18.159  0.1965 -0.0208  0.0362
11615DOPE   C1A60966  11.846  21.324  18.522  0.1634 -0.0681 -0.0270
11615DOPE   D2A60967  11.640  21.027  18.778 -0.0234  0.5329  0.0499
11615DOPE   C3A60968  11.723  20.717  18.955  0.2517 -0.0461  0.0853
11615DOPE   C4A60969  11.935  20.531  19.215  0.0947 -0.1227 -0.1992
11615DOPE   C1B60970  12.115  21.778  18.614  0.1663 -0.1049  0.1075
11615DOPE   D2B60971  12.282  21.599  18.875  0.2794  0.2498  0.1841
11615DOPE   C3B60972  12.182  21.281  18.919  0.0269 -0.0031  0.0742
11615DOPE   C4B60973  12.330  20.927  19.097  0.1664  0.3518  0.2287
11616DOPE   NH360974   8.636  16.924  13.606  0.2637  0.1540 -0.0440
11616DOPE   PO460975   8.928  17.277  13.451  0.0046 -0.1348  0.0906
11616DOPE   GL160976   8.921  17.398  13.920 -0.0812  0.1289 -0.1520
11616DOPE   GL260977   8.636  17.322  14.081  0.0089  0.2502  0.2754
11616DOPE   C1A60978   9.034  17.344  14.362 -0.0921  0.1213  0.4536
11616DOPE   D2A60979   8.866  17.476  14.747 -0.0393  0.1561 -0.1196
11616DOPE   C3A60980   8.927  17.312  15.115  0.0201  0.0701  0.1196
11616DOPE   C4A60981   9.011  17.438  15.480  0.2476  0.0559 -0.3524
11616DOPE   C1B60982   8.464  17.292  14.563 -0.1021  0.0438  0.0410
11616DOPE   D2B60983   8.354  17.541  14.857  0.2227 -0.2893  0.0163
11616DOPE   C3B60984   8.424  17.387  15.266 -0.1761 -0.0838  0.2134
11616DOPE   C4B60985   8.611  17.031  15.351 -0.1510 -0.0409 -0.2484
11617DOPE   NH360986  29.444   1.954   6.432 -0.3983 -0.0983  0.0702
11617DOPE   PO460987  29.185   1.703   6.555  0.2986  0.4303  0.4000
11617DOPE   GL160988  29.364   1.924   6.939  0.0110  0.0034  0.0849
11617DOPE   GL260989  29.115   1.793   7.204  0.0450 -0.2738 -0.0461
11617DOPE   C1A60990  29.564   1.819   7.257 -0.3322 -0.3636  0.1772
11617DOPE   D2A60991  29.738   1.596   7.524  0.0812 -0.0896 -0.0070
11617DOPE   C3A60992  29.574   1.157   7.512 -0.6489  0.0053 -0.0376
11617DOPE   C4A60993  29.289   0.787   7.558 -0.1153  0.0064  0.5114
11617DOPE   C1B60994  29.286   2.114   7.448 -0.0506 -0.1806 -0.1833
11617DOPE   D2B60995  29.483   2.043   7.855  0.0559  0.1352 -0.0007
11617DOPE   C3B60996  29.286   2.332   8.209 -0.2065 -0.0267 -0.0990
11617DOPE   C4B60997  28.870   2.460   8.276 -0.3650 -0.2886  0.0648
11618DOPE   NH360998   7.522   7.535  13.637  0.0317 -0.0047  0.0339
11618DOPE   PO460999   7.806   7.288  13.880  0.0932  0.0155  0.1495
11618DOPE   GL161000   7.394   7.114  13.908  0.0730  0.1437  0.1348
11618DOPE   GL261001   7.096   7.338  13.778 -0.0722 -0.0445  0.3467
11618DOPE   C1A61002   6.918   6.946  14.087  0.1021  0.1839  0.1255
11618DOPE   D2A61003   6.493   6.704  14.211 -0.3403 -0.1878  0.0409
11618DOPE   C3A61004   6.423   6.562  14.581  0.0374  0.2128  0.0354
11618DOPE   C4A61005   6.326   6.518  15.028 -0.0590 -0.2476  0.2062
11618DOPE   C1B61006   6.876   7.440  14.204 -0.3315  0.0601 -0.1261
11618DOPE   D2B61007   6.746   7.186  14.526  0.2741 -0.2292 -0.1497
11618DOPE   C3B61008   6.522   7.241  14.852  0.4709  0.0642  0.1337
11618DOPE   C4B61009   6.377   7.359  15.230  0.2691 -0.0754 -0.1567
11619DOPE   NH361010  32.880  33.446   7.588 -0.3050  0.0889  0.0001
11619DOPE   PO461011  33.353  33.516   7.796  0.1652  0.0989  0.2071
11619DOPE   GL161012  33.167  33.358   8.074 -0.2246  0.0482  0.1511
11619DOPE   GL261013  33.103  33.030   7.933 -0.0842  0.1418 -0.2545
11619DOPE   C1A61014  32.927  33.342   8.387 -0.4188 -0.0180  0.1087
11619DOPE   D2A61015  32.683  33.297   8.722  0.0670 -0.3093  0.0126
11619DOPE   C3A61016  32.564  33.194   9.162  0.1144 -0.1944 -0.0305
11619DOPE   C4A61017  32.518  33.056   9.504  0.1304 -0.0482 -0.2010
11619DOPE   C1B61018  33.131  32.927   8.317 -0.0173 -0.0642 -0.0561
11619DOPE   D2B61019  32.939  32.909   8.649 -0.0869  0.2757  0.0440
11619DOPE   C3B61020  32.556  32.733   8.919 -0.0750  0.0116 -0.2549
11619DOPE   C4B61021  32.192  32.730   9.202 -0.0604 -0.1561 -0.1813
11620DOPE   NH361022  15.227  13.020  14.835 -0.0733  0.0872  0.1895
11620DOPE   PO461023  15.479  13.285  14.545 -0.2321 -0.0352 -0.0121
11620DOPE   GL161024  15.418  13.458  14.950  0.2564  0.0165 -0.0241
11620DOPE   GL261025  15.535  13.782  15.087 -0.0962  0.1792  0.1552
11620DOPE   C1A61026  15.460  13.359  15.341  0.0853  0.0159  0.1036
11620DOPE   D2A61027  15.737  13.099  15.534 -0.0783  0.1877  0.2473
11620DOPE   C3A61028  16.054  12.984  15.860  0.1278  0.0495  0.2407
11620DOPE   C4A61029  16.344  12.646  15.810 -0.0245  0.3379  0.5083
11620DOPE   C1B61030  15.722  13.885  15.406 -0.2037 -0.1403 -0.2626
11620DOPE   D2B61031  15.738  14.170  15.774 -0.0446  0.0478 -0.1253
11620DOPE   C3B61032  15.740  13.828  15.958  0.1189 -0.1334 -0.1597
11620DOPE   C4B61033  15.545  13.478  15.829 -0.3897  0.2474 -0.0098
11621DOPE   NH361034  33.210   1.625   7.762 -0.0650 -0.2293 -0.1531
11621DOPE   PO461035  33.198   2.106   7.754 -0.1195 -0.1974 -0.0073
11621DOPE   GL161036  33.059   1.954   8.150 -0.1134  0.1584 -0.2571
11621DOPE   GL261037  33.279   1.720   8.264 -0.2440  0.1268  0.3673
11621DOPE   C1A61038  32.806   2.124   8.375  0.0859  0.0437 -0.2569
11621DOPE   D2A61039  32.596   2.232   8.683 -0.1071  0.0419 -0.1761
11621DOPE   C3A61040  32.536   2.480   9.104 -0.0439 -0.2678  0.0436
11621DOPE   C4A61041  32.462   2.547   9.512  0.1250 -0.0509 -0.1542
11621DOPE   C1B61042  33.153   1.704   8.649 -0.0657  0.0413 -0.0224
11621DOPE   D2B61043  33.007   1.712   9.014  0.4242 -0.0607 -0.5314
11621DOPE   C3B61044  32.741   1.992   9.182 -0.2088 -0.2341  0.4229
11621DOPE   C4B61045  32.466   2.027   9.480  0.1469  0.3574 -0.1358
11622DOPE   NH361046  20.482  28.729   7.589 -0.0272  0.0830  0.2527
11622DOPE   PO461047  20.475  28.528   8.014  0.0346 -0.0702  0.0967
11622DOPE   GL161048  20.800  28.337   8.226 -0.2286  0.1756  0.0055
11622DOPE   GL261049  20.660  28.492   8.597  0.1616  0.0029 -0.1680
11622DOPE   C1A61050  21.210  28.027   8.369 -0.2343  0.0422  0.4643
11622DOPE   D2A61051  21.470  28.045   8.777 -0.1839  0.1013  0.1925
11622DOPE   C3A61052  21.770  28.348   8.907  0.3990  0.2325 -0.2148
11622DOPE   C4A61053  22.010  28.617   9.259  0.0286  0.1699  0.0448
11622DOPE   C1B61054  20.848  28.776   8.853 -0.0176 -0.0799  0.0931
11622DOPE   D2B61055  21.259  29.007   8.995 -0.2985 -0.1946  0.1734
11622DOPE   C3B61056  21.642  28.891   8.954  0.0198 -0.1464 -0.2761
11622DOPE   C4B61057  22.030  28.728   8.770 -0.0049 -0.1682  0.1008
11623DOPE   NH361058   7.189  35.354  14.977  0.0382  0.3951 -0.1424
11623DOPE   PO461059   7.168   0.352  14.851  0.3223  0.0797 -0.0426
11623DOPE   GL161060   6.949   0.300  15.281 -0.3038 -0.0490  0.0451
11623DOPE   GL261061   7.156   0.170  15.451  0.2790 -0.2034  0.1261
11623DOPE   C1A61062   6.556   0.308  15.462  0.1172  0.0422 -0.1767
11623DOPE   D2A61063   6.272   0.400  15.782  0.1406  0.2957 -0.1761
11623DOPE   C3A61064   6.098   0.688  16.077  0.0316  0.3691  0.0906
11623DOPE   C4A61065   5.749   0.999  16.229 -0.2693 -0.1211 -0.0378
11623DOPE   C1B61066   6.857   0.032  15.763  0.0888  0.1576  0.0133
11623DOPE   D2B61067   6.515   0.102  16.099 -0.0467 -0.0589 -0.2048
11623DOPE   C3B61068   6.161   0.133  16.172  0.0575 -0.0482  0.2081
11623DOPE   C4B61069   6.154   0.563  16.593 -0.0047 -0.2666 -0.0835
11624DOPE   NH361070   7.759  17.592  13.293 -0.2836  0.1963 -0.1371
11624DOPE   PO461071   7.459  17.817  13.010 -0.1217  0.2918  0.4810
11624DOPE   GL161072   7.222  17.630  13.205  0.2827 -0.0944  0.1085
11624DOPE   GL261073   6.917  17.681  13.080 -0.2302 -0.3896  0.0585
11624DOPE   C1A61074   6.980  17.360  13.472 -0.0682  0.1028  0.1929
11624DOPE   D2A61075   6.949  17.578  13.818  0.2089  0.0978 -0.0237
11624DOPE   C3A61076   6.599  17.423  14.062 -0.0247  0.2037  0.1493
11624DOPE   C4A61077   6.224  17.532  14.087  0.0037  0.2068 -0.3725
11624DOPE   C1B61078   6.668  17.742  13.377 -0.4621  0.0348 -0.2094
11624DOPE   D2B61079   6.339  17.516  13.622 -0.1628 -0.0821  0.1356
11624DOPE   C3B61080   5.918  17.485  13.674  0.3046 -0.1073 -0.2431
11624DOPE   C4B61081   5.576  17.199  13.725 -0.0030  0.2507  0.2454
11625DOPE   NH361082   3.308  17.560   4.174  0.2704  0.3148  0.0518
11625DOPE   PO461083   3.414  18.032   4.250  0.1943  0.1922 -0.1154
11625DOPE   GL161084   3.305  17.814   4.647 -0.3857 -0.0663 -0.0187
11625DOPE   GL261085   3.041  17.656   4.712  0.4113 -0.0194  0.0003
11625DOPE   C1A61086   3.395  17.593   5.091 -0.1118 -0.3068  0.0441
11625DOPE   D2A61087   3.251  17.791   5.534 -0.0421 -0.2895  0.0639
11625DOPE   C3A61088   2.976  17.982   5.826 -0.2114 -0.2541  0.1782
11625DOPE   C4A61089   2.717  18.296   6.037  0.2449 -0.1702 -0.1167
11625DOPE   C1B61090   2.859  17.619   5.162  0.0312  0.3880 -0.3141
11625DOPE   D2B61091   2.832  18.020   5.329 -0.1970  0.1239 -0.2388
11625DOPE   C3B61092   2.613  18.245   5.566 -0.3072 -0.5832  0.1796
11625DOPE   C4B61093   2.240  18.300   5.867  0.2534  0.1866 -0.1703
11626DOPE   NH361094   3.841  30.630  13.491  0.1906  0.2317  0.1585
11626DOPE   PO461095   4.126  30.909  13.417 -0.1784 -0.0099 -0.2062
11626DOPE   GL161096   3.839  31.104  13.634  0.0647 -0.2246  0.2914
11626DOPE   GL261097   4.004  31.055  13.856 -0.1005  0.2490  0.0358
11626DOPE   C1A61098   3.362  31.136  13.834 -0.0415 -0.2028 -0.1359
11626DOPE   D2A61099   3.287  31.203  14.286 -0.1005  0.0205 -0.0083
11626DOPE   C3A61100   2.910  31.142  14.556 -0.0568  0.2750 -0.0864
11626DOPE   C4A61101   2.712  31.214  14.874 -0.2206  0.0904 -0.0762
11626DOPE   C1B61102   3.774  31.142  14.187  0.0363 -0.3728  0.3642
11626DOPE   D2B61103   3.767  31.335  14.517  0.0172 -0.3063 -0.1202
11626DOPE   C3B61104   3.405  31.205  14.782  0.2324 -0.0817 -0.1519
11626DOPE   C4B61105   3.133  31.336  15.118  0.0985  0.2471 -0.4663
11627DOPE   NH361106   6.565  34.991  14.461 -0.0948  0.0897  0.1347
11627DOPE   PO461107   6.701  35.340  14.669  0.0197 -0.1510  0.1294
11627DOPE   GL161108   6.357   0.043  14.922  0.1364  0.2737  0.0613
11627DOPE   GL261109   6.298  35.100  14.999 -0.3314  0.0647 -0.0946
11627DOPE   C1A61110   6.053   0.125  15.251 -0.2888 -0.0058  0.0185
11627DOPE   D2A61111   5.917   0.201  15.595 -0.0403  0.2851 -0.0208
11627DOPE   C3A61112   5.677   0.557  15.689  0.0807 -0.1770 -0.1110
11627DOPE   C4A61113   5.349   0.668  15.983  0.1032 -0.1629 -0.1137
11627DOPE   C1B61114   6.094  34.865  15.282  0.1050 -0.3308 -0.2539
11627DOPE   D2B61115   6.200  34.594  15.653 -0.0117  0.0125  0.0906
11627DOPE   C3B61116   5.935  34.613  15.960 -0.0502 -0.0547 -0.0344
11627DOPE   C4B61117   5.826  34.736  16.355 -0.0228 -0.3947 -0.2526
11628DOPE   NH361118  13.027  17.918  15.177  0.1208  0.3136 -0.1025
11628DOPE   PO461119  12.999  18.262  15.424 -0.2789 -0.2250  0.1908
11628DOPE   GL161120  12.688  18.073  15.532 -0.0953 -0.0672  0.1582
11628DOPE   GL261121  12.353  18.182  15.547 -0.0530 -0.1810  0.0536
11628DOPE   C1A61122  12.524  18.032  15.959  0.0963  0.3972  0.1898
11628DOPE   D2A61123  12.156  17.970  16.049 -0.1172  0.2499  0.0147
11628DOPE   C3A61124  12.003  17.888  16.467 -0.2564 -0.0173  0.3261
11628DOPE   C4A61125  11.592  17.963  16.643 -0.1082 -0.0321 -0.1073
11628DOPE   C1B61126  11.935  17.905  15.579 -0.0599  0.1407  0.2456
11628DOPE   D2B61127  11.743  17.576  15.810 -0.0809 -0.0471 -0.1064
11628DOPE   C3B61128  11.882  17.089  15.817 -0.1317 -0.2452  0.0474
11628DOPE   C4B61129  12.104  16.724  15.747 -0.3122 -0.0133 -0.0022
11629DOPE   NH361130   7.022   7.728  13.471 -0.3153  0.0944 -0.0929
11629DOPE   PO461131   7.264   8.083  13.382  0.0804 -0.1302 -0.1319
11629DOPE   GL161132   7.000   8.365  13.653  0.0292  0.2511 -0.0736
11629DOPE   GL261133   6.867   8.133  13.811 -0.0092 -0.0046 -0.2492
11629DOPE   C1A61134   6.804   8.711  13.609  0.0700 -0.0468 -0.1603
11629DOPE   D2A61135   6.446   8.836  13.902 -0.1861 -0.0231  0.0393
11629DOPE   C3A61136   6.294   8.949  14.273  0.0041  0.1936 -0.0503
11629DOPE   C4A61137   6.037   9.240  14.400 -0.5998  0.2075 -0.2062
11629DOPE   C1B61138   6.513   8.269  13.994 -0.3103 -0.1881  0.1080
11629DOPE   D2B61139   6.136   8.504  14.109 -0.3284  0.1995  0.1451
11629DOPE   C3B61140   5.928   8.759  13.893  0.1012  0.0194  0.0819
11629DOPE   C4B61141   5.701   9.023  13.500  0.2837  0.1496 -0.1828
11630DOPE   NH361142  10.809  31.223  17.036 -0.1191  0.2194  0.0617
11630DOPE   PO461143  10.779  30.756  17.181  0.2939  0.1950 -0.2875
11630DOPE   GL161144  10.807  30.777  17.684  0.1171  0.3705 -0.1477
11630DOPE   GL261145  11.042  30.688  17.752 -0.0593  0.0045  0.2632
11630DOPE   C1A61146  10.588  31.024  17.982  0.0424  0.1042  0.2012
11630DOPE   D2A61147  10.174  31.033  18.242  0.0714 -0.2124 -0.2634
11630DOPE   C3A61148  10.160  31.172  18.743  0.0358  0.0191  0.0709
11630DOPE   C4A61149  10.233  31.530  19.097  0.0926  0.1438  0.2236
11630DOPE   C1B61150  11.027  30.722  18.172 -0.3384  0.2143 -0.0444
11630DOPE   D2B61151  10.757  30.497  18.523 -0.2324 -0.3304  0.2981
11630DOPE   C3B61152  10.839  30.401  18.962 -0.1784  0.0934 -0.2120
11630DOPE   C4B61153  11.017  30.525  19.350  0.0295  0.1962  0.3512
11631DOPE   NH361154  23.411  30.819   6.153 -0.4397 -0.3052 -0.1794
11631DOPE   PO461155  23.903  30.642   5.987 -0.0755 -0.1693  0.1972
11631DOPE   GL161156  23.830  30.563   6.376 -0.0329  0.4326 -0.0358
11631DOPE   GL261157  23.637  30.872   6.607  0.2629  0.0186  0.1646
11631DOPE   C1A61158  23.560  30.385   6.704 -0.2271 -0.0911 -0.3050
11631DOPE   D2A61159  23.464  30.471   7.114 -0.3395 -0.1442  0.0037
11631DOPE   C3A61160  23.299  30.274   7.443  0.1873 -0.1209 -0.2159
11631DOPE   C4A61161  22.979  30.031   7.610  0.0455 -0.1467 -0.2930
11631DOPE   C1B61162  23.599  30.929   6.946 -0.1641  0.3086  0.3372
11631DOPE   D2B61163  23.416  31.040   7.329  0.1957  0.0559  0.0233
11631DOPE   C3B61164  23.583  31.232   7.695 -0.0495  0.2525 -0.0564
11631DOPE   C4B61165  24.030  31.511   7.784 -0.3298  0.3074  0.1622
11632DOPE   NH361166   2.059  32.424  11.399 -0.4181 -0.0637 -0.1062
11632DOPE   PO461167   1.966  32.882  11.351  0.1670  0.1544 -0.0949
11632DOPE   GL161168   1.637  32.966  11.622 -0.0983 -0.1295 -0.3608
11632DOPE   GL261169   1.684  32.674  11.703  0.3263 -0.0810 -0.1847
11632DOPE   C1A61170   1.259  33.091  11.880  0.2422 -0.1009  0.1070
11632DOPE   D2A61171   0.784  33.164  12.021 -0.3363  0.0914 -0.1796
11632DOPE   C3A61172   0.473  33.308  11.766  0.0429 -0.1003 -0.0882
11632DOPE   C4A61173   0.189  33.492  11.482  0.0568  0.1569 -0.1888
11632DOPE   C1B61174   1.258  32.592  11.840  0.1480 -0.0467  0.1810
11632DOPE   D2B61175   0.878  32.629  11.976 -0.1988  0.1431  0.1135
11632DOPE   C3B61176   0.724  32.321  12.120  0.0506 -0.1013 -0.0658
11632DOPE   C4B61177   0.527  31.948  11.890  0.1206  0.0930 -0.1503
11633DOPE   NH361178   3.956  33.264  12.202 -0.0454  0.0198  0.1422
11633DOPE   PO461179   3.855  33.394  12.562 -0.5486 -0.1093  0.1426
11633DOPE   GL161180   3.594  33.324  12.899 -0.0495  0.2850 -0.3087
11633DOPE   GL261181   3.732  33.532  13.138  0.0580 -0.3020  0.1155
11633DOPE   C1A61182   3.494  33.038  13.187 -0.1939 -0.0526  0.0269
11633DOPE   D2A61183   3.232  33.199  13.440  0.2686 -0.0693 -0.0836
11633DOPE   C3A61184   2.954  33.209  13.863 -0.3868  0.0150 -0.1757
11633DOPE   C4A61185   2.694  32.974  14.129  0.2656  0.0630  0.0587
11633DOPE   C1B61186   3.577  33.640  13.558  0.0013 -0.0631  0.1528
11633DOPE   D2B61187   3.423  33.518  13.953  0.2698 -0.1578 -0.5189
11633DOPE   C3B61188   3.447  33.682  14.279  0.1578 -0.0541 -0.0760
11633DOPE   C4B61189   3.611  33.633  14.598 -0.1050 -0.4969  0.0078
11634DOPE   NH361190  21.731  29.482   6.697  0.1401 -0.1735 -0.1078
11634DOPE   PO461191  21.528  29.199   7.024 -0.1545 -0.0408  0.0490
11634DOPE   GL161192  21.877  29.253   7.180 -0.0775  0.1324  0.0660
11634DOPE   GL261193  21.925  29.579   7.171 -0.1556 -0.0687  0.2922
11634DOPE   C1A61194  22.330  29.171   7.206  0.4362  0.1734 -0.2056
11634DOPE   D2A61195  22.805  29.185   7.260  0.0114 -0.2296 -0.0194
11634DOPE   C3A61196  22.979  29.233   7.715  0.4292 -0.1695  0.4703
11634DOPE   C4A61197  23.004  29.339   8.067  0.1411  0.2835 -0.1874
11634DOPE   C1B61198  22.278  29.548   7.475 -0.0138 -0.1021 -0.0180
11634DOPE   D2B61199  22.549  29.600   7.773  0.0714  0.0332 -0.0299
11634DOPE   C3B61200  22.485  29.591   8.225  0.0967  0.0469  0.4132
11634DOPE   C4B61201  22.887  29.745   8.413  0.2166  0.2101  0.1761
11635DOPE   NH361202   9.181   1.508  15.618 -0.1556  0.1419  0.2088
11635DOPE   PO461203   8.744   1.321  15.609 -0.2050  0.1351 -0.2067
11635DOPE   GL161204   8.452   1.358  15.885  0.2362  0.0915 -0.1854
11635DOPE   GL261205   8.198   1.145  15.930  0.0661 -0.1782 -0.0509
11635DOPE   C1A61206   8.322   1.424  16.320  0.0683 -0.0167  0.4765
11635DOPE   D2A61207   8.273   1.486  16.790 -0.0291 -0.3482  0.0411
11635DOPE   C3A61208   8.213   1.697  17.026 -0.1474 -0.0522  0.2808
11635DOPE   C4A61209   8.120   1.582  17.378 -0.3297  0.0811  0.0004
11635DOPE   C1B61210   7.895   1.213  16.329  0.0365 -0.0535  0.0978
11635DOPE   D2B61211   7.681   1.307  16.689 -0.0430 -0.0978  0.1867
11635DOPE   C3B61212   7.537   1.729  16.650 -0.1542 -0.2486 -0.2194
11635DOPE   C4B61213   7.390   2.128  16.567  0.0052 -0.2091  0.0970
11636DOPE   NH361214   4.484  11.432   8.747  0.0861 -0.1113 -0.0262
11636DOPE   PO461215   4.650  11.061   9.036 -0.0672 -0.1857  0.2640
11636DOPE   GL161216   4.403  11.334   9.309  0.1127 -0.1444 -0.2183
11636DOPE   GL261217   4.143  11.548   9.104 -0.2090  0.1449 -0.0805
11636DOPE   C1A61218   4.427  11.591   9.660 -0.2552 -0.1608  0.2707
11636DOPE   D2A61219   4.426  11.926   9.880  0.2077  0.1195  0.1125
11636DOPE   C3A61220   4.294  11.962  10.267 -0.0712 -0.4874  0.0507
11636DOPE   C4A61221   4.040  11.852  10.462  0.0028  0.2906  0.1503
11636DOPE   C1B61222   3.950  11.806   9.393  0.0772 -0.3552 -0.2099
11636DOPE   D2B61223   3.515  11.997   9.651  0.2825 -0.0371 -0.0158
11636DOPE   C3B61224   3.335  12.343   9.631 -0.2015 -0.1111  0.0566
11636DOPE   C4B61225   3.078  12.396   9.878 -0.2381 -0.1526 -0.1510
11637DOPE   NH361226  21.354  10.122   8.740 -0.4194  0.3536 -0.0319
11637DOPE   PO461227  21.606   9.737   8.917 -0.0100  0.2084 -0.1300
11637DOPE   GL161228  22.026   9.735   8.933  0.0341 -0.4279  0.0592
11637DOPE   GL261229  21.977   9.431   8.834  0.1703  0.0946 -0.1207
11637DOPE   C1A61230  22.486   9.850   8.913  0.2605  0.0578 -0.2990
11637DOPE   D2A61231  22.857  10.126   8.989 -0.1595 -0.3281 -0.2177
11637DOPE   C3A61232  23.219  10.133   9.341  0.2266 -0.0470  0.1261
11637DOPE   C4A61233  23.520   9.938   9.459  0.0282 -0.1109  0.0807
11637DOPE   C1B61234  22.385   9.389   8.768  0.1228  0.4466 -0.1591
11637DOPE   D2B61235  22.750   9.368   8.960 -0.0323 -0.1034 -0.0441
11637DOPE   C3B61236  23.066   9.662   9.143 -0.1840  0.1857 -0.2607
11637DOPE   C4B61237  23.474  10.042   8.961  0.1672  0.0821 -0.1038
11638DOPE   NH361238  31.742  14.307   1.090  0.0470  0.0177 -0.0920
11638DOPE   PO461239  32.085  14.607   1.054  0.3052  0.1211  0.1108
11638DOPE   GL161240  32.100  14.394   1.482  0.0493 -0.1867  0.1085
11638DOPE   GL261241  32.051  14.127   1.566 -0.0503 -0.1796 -0.1636
11638DOPE   C1A61242  32.145  14.368   1.972  0.0363 -0.1865  0.0728
11638DOPE   D2A61243  32.122  14.124   2.412  0.1503 -0.0052  0.3466
11638DOPE   C3A61244  31.844  13.715   2.477 -0.2274 -0.1086  0.0903
11638DOPE   C4A61245  31.810  13.420   2.876 -0.0618 -0.0622 -0.0705
11638DOPE   C1B61246  31.638  14.346   1.815 -0.0167 -0.0423 -0.0838
11638DOPE   D2B61247  31.566  14.490   2.217 -0.1169 -0.0887 -0.2018
11638DOPE   C3B61248  31.768  14.484   2.445 -0.1386  0.2374  0.0611
11638DOPE   C4B61249  31.919  14.428   2.829 -0.1069 -0.3358  0.2294
11639DOPE   NH361250   1.864  32.548  10.516  0.3692 -0.0060  0.4580
11639DOPE   PO461251   1.897  32.147  10.553  0.0607 -0.2756  0.4260
11639DOPE   GL161252   1.719  31.921  10.897 -0.0690 -0.2196  0.0622
11639DOPE   GL261253   1.653  31.585  10.948 -0.1449 -0.0937  0.0480
11639DOPE   C1A61254   1.702  31.875  11.362  0.0150 -0.2008  0.1217
11639DOPE   D2A61255   1.829  32.145  11.725  0.0772 -0.2017 -0.1237
11639DOPE   C3A61256   1.568  32.298  12.090 -0.2381  0.1544 -0.1160
11639DOPE   C4A61257   1.162  32.312  12.308 -0.1556 -0.1560  0.1988
11639DOPE   C1B61258   1.266  31.737  11.090 -0.1020 -0.0515  0.5220
11639DOPE   D2B61259   0.948  31.766  11.289 -0.1526  0.2247  0.3582
11639DOPE   C3B61260   0.710  31.628  11.583  0.2977 -0.0710 -0.1352
11639DOPE   C4B61261   0.490  31.480  12.052  0.1422  0.1140 -0.2712
11640DOPE   NH361262  30.832  27.628   3.997 -0.1494 -0.1573 -0.2157
11640DOPE   PO461263  31.106  27.297   3.785 -0.0631  0.1112  0.0416
11640DOPE   GL161264  31.162  27.158   4.188  0.0019  0.0091  0.3784
11640DOPE   GL261265  31.397  26.996   4.236  0.3066 -0.3160 -0.0100
11640DOPE   C1A61266  30.868  26.874   4.301  0.1735 -0.0754  0.2794
11640DOPE   D2A61267  30.997  26.598   4.633  0.1438 -0.0172  0.1381
11640DOPE   C3A61268  30.910  26.148   4.955 -0.0574 -0.0455  0.1758
11640DOPE   C4A61269  31.095  25.670   4.909 -0.0506  0.2159 -0.1558
11640DOPE   C1B61270  31.439  26.730   4.519 -0.0563  0.0428 -0.4090
11640DOPE   D2B61271  31.387  26.405   4.856  0.1176  0.2083  0.0681
11640DOPE   C3B61272  31.197  26.521   5.196  0.3314  0.3120 -0.2494
11640DOPE   C4B61273  31.121  26.498   5.557 -0.3064  0.3304  0.1617
11641DOPE   NH361274   4.240  27.133  12.638 -0.1970  0.0802  0.0149
11641DOPE   PO461275   4.174  26.761  12.512 -0.1609 -0.1832  0.0777
11641DOPE   GL161276   4.100  26.361  12.742  0.2184 -0.2026 -0.2807
11641DOPE   GL261277   4.135  26.138  12.761  0.0920  0.1620 -0.0294
11641DOPE   C1A61278   4.068  26.308  13.225  0.0336 -0.2112 -0.1016
11641DOPE   D2A61279   3.818  26.327  13.617 -0.0319  0.0798  0.0698
11641DOPE   C3A61280   3.649  26.029  13.407 -0.1577 -0.0090  0.0365
11641DOPE   C4A61281   3.418  25.767  13.628 -0.2051 -0.1142 -0.0195
11641DOPE   C1B61282   3.940  25.835  13.043  0.0258 -0.0767 -0.0123
11641DOPE   D2B61283   3.802  25.555  13.329 -0.1333  0.1178  0.0369
11641DOPE   C3B61284   4.062  25.309  13.645  0.0035  0.1639  0.0054
11641DOPE   C4B61285   4.301  25.336  14.016  0.2026  0.1037  0.0954
11642DOPE   NH361286  24.616   3.450   7.319  0.1460 -0.1642 -0.4341
11642DOPE   PO461287  24.484   3.851   7.481  0.0436 -0.1801  0.0100
11642DOPE   GL161288  24.809   4.009   7.574  0.2327  0.0788 -0.1780
11642DOPE   GL261289  25.009   3.742   7.484  0.2333 -0.0932  0.1848
11642DOPE   C1A61290  25.025   4.274   7.901  0.1236 -0.0684 -0.0760
11642DOPE   D2A61291  25.114   4.553   8.206 -0.3258  0.1344 -0.1127
11642DOPE   C3A61292  25.098   4.992   8.194 -0.0121 -0.0639  0.0770
11642DOPE   C4A61293  25.224   5.300   7.957  0.4278  0.0352  0.0642
11642DOPE   C1B61294  25.110   3.728   7.973  0.0114  0.1423 -0.0973
11642DOPE   D2B61295  25.279   4.039   8.274 -0.0089  0.0576 -0.0900
11642DOPE   C3B61296  24.986   4.270   8.605 -0.0245  0.1099  0.0316
11642DOPE   C4B61297  25.088   4.362   9.057  0.0155 -0.0797  0.0017
11643DOPE   NH361298  14.866  32.344  13.263  0.0453  0.2592  0.3444
11643DOPE   PO461299  14.949  32.655  12.864 -0.0125 -0.1616  0.1512
11643DOPE   GL161300  15.208  32.775  13.213  0.1648  0.2058 -0.3258
11643DOPE   GL261301  15.161  32.568  13.598 -0.3547  0.1353  0.0610
11643DOPE   C1A61302  15.566  32.730  13.206 -0.2563  0.2652  0.0529
11643DOPE   D2A61303  15.963  33.006  13.181  0.0161 -0.0179 -0.1080
11643DOPE   C3A61304  16.227  33.137  13.550 -0.0822 -0.0277 -0.2522
11643DOPE   C4A61305  16.476  32.954  13.840 -0.2134 -0.0226 -0.2150
11643DOPE   C1B61306  15.561  32.571  13.693 -0.3058  0.0963 -0.1129
11643DOPE   D2B61307  15.909  32.382  13.930  0.0431  0.1849 -0.0169
11643DOPE   C3B61308  16.326  32.602  14.197  0.1094  0.0996  0.2929
11643DOPE   C4B61309  16.522  32.930  14.351 -0.2724  0.1310  0.1871
11644DOPE   NH361310  17.694  12.549  12.738 -0.0390 -0.0382 -0.4337
11644DOPE   PO461311  17.777  12.170  12.918 -0.0709 -0.1386 -0.0214
11644DOPE   GL161312  18.050  12.181  13.247 -0.2962 -0.1762 -0.5481
11644DOPE   GL261313  18.286  11.954  13.185 -0.1379  0.3472  0.1300
11644DOPE   C1A61314  18.414  12.207  13.631 -0.1413  0.0181 -0.0249
11644DOPE   D2A61315  18.481  12.184  13.945  0.3644  0.1016 -0.1006
11644DOPE   C3A61316  18.855  12.167  14.220 -0.2528 -0.1103  0.4355
11644DOPE   C4A61317  19.049  12.222  14.595 -0.2308  0.0832 -0.0408
11644DOPE   C1B61318  18.703  11.895  13.322 -0.1846  0.3234 -0.0033
11644DOPE   D2B61319  18.779  11.840  13.682 -0.1768 -0.0070 -0.2972
11644DOPE   C3B61320  18.971  11.740  13.971  0.4875 -0.0780 -0.0438
11644DOPE   C4B61321  19.239  11.513  14.175  0.3248  0.0761 -0.0945
11645DOPE   NH361322   7.463  14.616  12.867  0.0851  0.0702  0.0716
11645DOPE   PO461323   7.727  14.589  13.132 -0.0589 -0.0078 -0.0648
11645DOPE   GL161324   7.678  14.479  13.518 -0.1477 -0.1633 -0.0632
11645DOPE   GL261325   7.648  14.152  13.429 -0.0786  0.0632  0.3695
11645DOPE   C1A61326   7.752  14.453  13.870  0.0072  0.0510 -0.0339
11645DOPE   D2A61327   7.756  14.653  14.123  0.0302 -0.0469  0.0452
11645DOPE   C3A61328   7.546  14.630  14.448 -0.0384 -0.2414 -0.4160
11645DOPE   C4A61329   7.219  14.767  14.664  0.1090  0.0241  0.0375
11645DOPE   C1B61330   7.434  14.120  13.843  0.2043 -0.2510  0.0356
11645DOPE   D2B61331   7.253  14.361  14.143  0.2152 -0.2667  0.1629
11645DOPE   C3B61332   7.003  14.248  14.465 -0.2283  0.0649  0.0405
11645DOPE   C4B61333   6.853  14.321  14.829 -0.1215  0.0688 -0.3079
11646DOPE   NH361334  29.387   7.585   2.948 -0.2418  0.0745 -0.1813
11646DOPE   PO461335  28.950   7.399   3.108  0.0290  0.2388 -0.1578
11646DOPE   GL161336  29.094   7.851   3.285 -0.0059  0.3950  0.0574
11646DOPE   GL261337  29.215   8.057   3.119 -0.1714  0.3408  0.1067
11646DOPE   C1A61338  29.191   8.222   3.540  0.0495 -0.0599 -0.0754
11646DOPE   D2A61339  29.299   8.515   3.796 -0.2189  0.0109 -0.1669
11646DOPE   C3A61340  29.240   8.960   3.629 -0.1750  0.0264  0.0809
11646DOPE   C4A61341  29.401   9.335   3.628 -0.2332 -0.0180  0.0283
11646DOPE   C1B61342  29.195   8.412   2.786 -0.1052 -0.0351  0.0000
11646DOPE   D2B61343  29.338   8.761   2.770  0.1786  0.2006  0.0095
11646DOPE   C3B61344  29.798   8.827   2.820 -0.0835  0.0030 -0.2724
11646DOPE   C4B61345  30.176   8.978   2.938  0.0510 -0.1227 -0.2797
11647DOPE   NH361346  12.456   5.764  14.271 -0.0847  0.0504  0.1502
11647DOPE   PO461347  12.094   6.172  14.340  0.2809 -0.2756  0.2587
11647DOPE   GL161348  12.344   6.068  14.677  0.1700 -0.2129 -0.0402
11647DOPE   GL261349  12.542   6.336  14.791 -0.0504 -0.0767  0.1730
11647DOPE   C1A61350  12.381   5.718  14.877 -0.2390 -0.1573 -0.1248
11647DOPE   D2A61351  12.261   5.442  15.189 -0.1686 -0.1480  0.1023
11647DOPE   C3A61352  12.495   5.430  15.446 -0.0088 -0.2398  0.1652
11647DOPE   C4A61353  12.848   5.352  15.637 -0.2600 -0.2947 -0.0728
11647DOPE   C1B61354  12.676   6.066  15.084  0.1754  0.1194 -0.3328
11647DOPE   D2B61355  12.696   5.892  15.419  0.1066  0.3301 -0.0569
11647DOPE   C3B61356  12.874   5.839  15.787 -0.1347 -0.3219  0.0814
11647DOPE   C4B61357  13.143   6.137  16.005 -0.1124 -0.0785 -0.1864
11648DOPE   NH361358   1.709  20.456   3.257  0.1686 -0.0809 -0.0150
11648DOPE   PO461359   1.746  20.862   3.479 -0.1071  0.0965  0.0143
11648DOPE   GL161360   1.407  21.081   3.650 -0.0622 -0.3932  0.3122
11648DOPE   GL261361   1.240  21.239   3.451 -0.2558  0.0268  0.1440
11648DOPE   C1A61362   0.983  21.108   3.907  0.1234  0.1480 -0.0900
11648DOPE   D2A61363   0.742  21.035   4.238  0.1959 -0.0383 -0.0927
11648DOPE   C3A61364   0.401  21.164   4.389 -0.2060  0.1183 -0.0694
11648DOPE   C4A61365   0.068  21.121   4.709  0.0529 -0.0251 -0.1423
11648DOPE   C1B61366   0.854  21.049   3.315 -0.0271 -0.0856 -0.1175
11648DOPE   D2B61367   0.570  21.360   3.109 -0.1586  0.0178 -0.0869
11648DOPE   C3B61368   0.134  21.284   3.083  0.1990 -0.1612  0.1021
11648DOPE   C4B61369  35.337  21.317   2.733  0.0402  0.1451 -0.1363
11649DOPE   NH361370   4.287   0.142  12.699  0.1704 -0.1286  0.0639
11649DOPE   PO461371   4.288   0.594  12.653  0.1644 -0.0299 -0.0129
11649DOPE   GL161372   3.980   0.873  12.622  0.1136  0.0731  0.0427
11649DOPE   GL261373   3.913   0.999  12.307  0.0239 -0.0153 -0.0733
11649DOPE   C1A61374   3.801   1.036  12.876  0.0230 -0.3449  0.3260
11649DOPE   D2A61375   3.435   1.077  13.123 -0.0871  0.0762 -0.0807
11649DOPE   C3A61376   2.911   1.062  12.992 -0.0441  0.2246  0.3052
11649DOPE   C4A61377   2.534   0.836  13.204  0.1108  0.0395 -0.4348
11649DOPE   C1B61378   3.497   1.153  12.098 -0.0725 -0.1548 -0.0160
11649DOPE   D2B61379   3.038   1.036  12.087  0.2275 -0.0182  0.1711
11649DOPE   C3B61380   2.791   1.237  12.252 -0.3137  0.0566 -0.2994
11649DOPE   C4B61381   2.676   1.330  12.680 -0.4116 -0.0020  0.0835
11650DOPE   NH361382  14.846  24.637  17.177  0.0656  0.0134 -0.0063
11650DOPE   PO461383  15.163  24.824  17.007  0.2322 -0.1607  0.1565
11650DOPE   GL161384  15.325  24.853  17.385 -0.3092 -0.1224 -0.3868
11650DOPE   GL261385  15.317  25.194  17.426 -0.1957  0.0801  0.1550
11650DOPE   C1A61386  15.409  24.764  17.862 -0.5348  0.0507  0.1308
11650DOPE   D2A61387  15.579  24.722  18.242 -0.2987 -0.0710 -0.2438
11650DOPE   C3A61388  15.877  24.719  18.493 -0.0582 -0.1500 -0.1468
11650DOPE   C4A61389  16.314  24.922  18.561 -0.1092 -0.0487  0.1406
11650DOPE   C1B61390  15.472  25.239  17.742  0.1089  0.3360  0.1582
11650DOPE   D2B61391  15.713  25.366  18.020 -0.2940 -0.1588  0.0004
11650DOPE   C3B61392  15.661  25.193  18.362 -0.0936  0.0298  0.2202
11650DOPE   C4B61393  15.804  25.127  18.790 -0.0283 -0.2005 -0.1543
11651DOPE   NH361394  34.492  22.151   1.883 -0.0672 -0.2871  0.2792
11651DOPE   PO461395  34.144  22.309   1.716 -0.2368 -0.2352  0.0775
11651DOPE   GL161396  33.815  22.000   1.774  0.1618 -0.2162  0.1745
11651DOPE   GL261397  33.484  22.167   1.680 -0.3206 -0.1402 -0.2496
11651DOPE   C1A61398  33.655  21.751   2.080 -0.1730  0.0880 -0.0133
11651DOPE   D2A61399  33.380  21.820   2.365 -0.2120 -0.0212 -0.0447
11651DOPE   C3A61400  32.947  21.689   2.332  0.0248 -0.1839  0.0151
11651DOPE   C4A61401  32.617  21.370   2.328 -0.3001 -0.0389 -0.2707
11651DOPE   C1B61402  33.254  22.192   2.102  0.0552 -0.1910  0.0113
11651DOPE   D2B61403  32.990  22.170   2.407 -0.0142  0.0482 -0.0140
11651DOPE   C3B61404  32.550  22.240   2.381 -0.3547 -0.2631 -0.2745
11651DOPE   C4B61405  32.302  22.545   2.357  0.0992 -0.0517 -0.2051
11652DOPE   NH361406  19.632  14.292  10.230  0.3292  0.0972  0.0399
11652DOPE   PO461407  20.002  14.557  10.060  0.0268  0.2107 -0.0658
11652DOPE   GL161408  20.201  14.396  10.427  0.3091 -0.1120  0.0301
11652DOPE   GL261409  20.121  14.119  10.422 -0.1020 -0.0777 -0.0110
11652DOPE   C1A61410  20.578  14.312  10.556  0.3448  0.2595 -0.2485
11652DOPE   D2A61411  20.815  14.242  10.924  0.1049 -0.0458  0.1851
11652DOPE   C3A61412  21.230  14.393  10.917 -0.2377 -0.1965  0.0369
11652DOPE   C4A61413  21.675  14.314  10.760 -0.0926 -0.0934 -0.0874
11652DOPE   C1B61414  20.453  13.836  10.563  0.1305  0.0867  0.1154
11652DOPE   D2B61415  20.567  13.531  10.688 -0.0062  0.3140  0.0058
11652DOPE   C3B61416  20.954  13.553  10.832 -0.2563 -0.0222 -0.4816
11652DOPE   C4B61417  21.061  13.696  11.168  0.2490 -0.1734  0.0072
11653DOPE   NH361418   7.289  20.829  11.374  0.1668  0.1300 -0.1718
11653DOPE   PO461419   7.134  20.957  11.837  0.0911  0.0309 -0.3360
11653DOPE   GL161420   6.733  20.843  11.961 -0.0655 -0.0394  0.2228
11653DOPE   GL261421   6.552  21.061  11.929 -0.0653  0.3919 -0.2775
11653DOPE   C1A61422   6.387  20.641  11.831 -0.0677  0.0948  0.3013
11653DOPE   D2A61423   5.966  20.465  12.027  0.1091  0.2189  0.2452
11653DOPE   C3A61424   5.699  20.665  12.057 -0.1028 -0.2365  0.1503
11653DOPE   C4A61425   5.364  20.878  11.848 -0.1459  0.2685  0.1996
11653DOPE   C1B61426   6.169  21.130  12.094  0.5098  0.3243 -0.2301
11653DOPE   D2B61427   5.740  21.136  12.144  0.0598 -0.2602  0.0383
11653DOPE   C3B61428   5.416  20.931  12.411 -0.0765  0.0050  0.2302
11653DOPE   C4B61429   5.031  21.152  12.573  0.1837  0.0309 -0.0689
11654DOPE   NH361430  17.945  22.107  13.773 -0.4208  0.2604 -0.0791
11654DOPE   PO461431  17.871  21.732  13.986 -0.0308  0.0095  0.3554
11654DOPE   GL161432  18.117  21.644  14.365  0.0394 -0.0611 -0.0413
11654DOPE   GL261433  17.994  21.424  14.602 -0.2239  0.1005 -0.2027
11654DOPE   C1A61434  18.512  21.736  14.659  0.2073 -0.2331  0.0179
11654DOPE   D2A61435  18.881  21.521  14.940  0.3121 -0.1590  0.0215
11654DOPE   C3A61436  18.830  21.194  15.107  0.3653 -0.1180 -0.0028
11654DOPE   C4A61437  19.036  21.036  15.418 -0.0185  0.0117  0.1882
11654DOPE   C1B61438  18.293  21.466  15.014  0.0655 -0.1571  0.1798
11654DOPE   D2B61439  18.505  21.458  15.284  0.0045  0.1133  0.3236
11654DOPE   C3B61440  18.970  21.546  15.443 -0.0063  0.0090  0.0056
11654DOPE   C4B61441  19.304  21.581  15.221 -0.0603  0.2220  0.1053
11655DOPE   NH361442  13.777  35.212  12.520  0.0538 -0.1453  0.0579
11655DOPE   PO461443  14.095   0.233  12.472  0.0414  0.3638 -0.1293
11655DOPE   GL161444  14.365   0.320  12.831 -0.1128 -0.2033  0.1498
11655DOPE   GL261445  14.659   0.549  12.672 -0.0509 -0.0379 -0.3022
11655DOPE   C1A61446  14.680   0.169  13.112  0.0643 -0.4672 -0.1889
11655DOPE   D2A61447  15.017   0.026  13.414 -0.1177 -0.0461  0.1335
11655DOPE   C3A61448  15.136   0.183  13.767 -0.0836  0.3904  0.2151
11655DOPE   C4A61449  15.205   0.393  14.180 -0.0869  0.4028 -0.0079
11655DOPE   C1B61450  14.834   0.634  13.136  0.0251 -0.0930  0.2394
11655DOPE   D2B61451  15.014   0.544  13.441 -0.1759 -0.0398  0.4000
11655DOPE   C3B61452  15.197   0.665  13.758  0.0879 -0.0851  0.0019
11655DOPE   C4B61453  15.189   0.902  14.106 -0.0594  0.0396 -0.1475
11656DOPE   NH361454   0.130  25.925   4.572 -0.1115  0.1534  0.0044
11656DOPE   PO461455   0.268  25.777   4.168  0.1416  0.0865 -0.2252
11656DOPE   GL161456  35.284  25.539   4.345 -0.2693  0.3098 -0.0428
11656DOPE   GL261457   0.025  25.264   4.571  0.3536 -0.3046  0.0913
11656DOPE   C1A61458  35.045  25.473   4.798  0.0254 -0.1702 -0.2678
11656DOPE   D2A61459  34.748  25.568   4.999 -0.0667 -0.2111 -0.1260
11656DOPE   C3A61460  34.472  25.231   5.258  0.2288  0.0531  0.4551
11656DOPE   C4A61461  34.160  24.910   5.243 -0.2706 -0.4487  0.4559
11656DOPE   C1B61462   0.183  25.083   4.884  0.1067 -0.0873  0.1423
11656DOPE   D2B61463   0.291  25.015   5.207  0.0409 -0.1247  0.0158
11656DOPE   C3B61464   0.269  24.815   5.612  0.2982  0.0096 -0.1071
11656DOPE   C4B61465   0.143  24.496   6.023 -0.0933 -0.0422 -0.1830
11657DOPE   NH361466   4.088  31.203  13.039  0.1843 -0.0708 -0.2232
11657DOPE   PO461467   3.632  30.991  13.136 -0.0782  0.2187 -0.2902
11657DOPE   GL161468   3.302  30.804  13.379 -0.1197  0.5110 -0.1840
11657DOPE   GL261469   3.035  30.523  13.325 -0.1093 -0.2232  0.0524
11657DOPE   C1A61470   2.879  30.934  13.458  0.0354 -0.1500 -0.2129
11657DOPE   D2A61471   2.532  30.840  13.763 -0.3123  0.0894  0.1338
11657DOPE   C3A61472   2.442  31.021  14.115  0.0489  0.0086 -0.2278
11657DOPE   C4A61473   2.372  31.224  14.475 -0.0466  0.3619 -0.0018
11657DOPE   C1B61474   2.590  30.514  13.366  0.1875 -0.2525  0.1695
11657DOPE   D2B61475   2.122  30.566  13.623 -0.0044 -0.0058 -0.0811
11657DOPE   C3B61476   1.985  30.815  13.920 -0.0242 -0.0433 -0.3130
11657DOPE   C4B61477   1.670  31.007  14.187 -0.0580 -0.2799 -0.2100
11658DOPE   NH361478  19.920  26.030   9.400  0.3150 -0.2046 -0.1548
11658DOPE   PO461479  20.287  25.800   9.126 -0.2248  0.1133 -0.2320
11658DOPE   GL161480  20.484  25.786   9.472 -0.0770  0.0111 -0.0831
11658DOPE   GL261481  20.412  25.416   9.639 -0.2289 -0.2411  0.2284
11658DOPE   C1A61482  20.903  25.903   9.593  0.1666 -0.1183  0.1997
11658DOPE   D2A61483  21.008  26.234   9.851 -0.0972  0.1847  0.0914
11658DOPE   C3A61484  21.249  26.315  10.295 -0.0506  0.2215  0.0006
11658DOPE   C4A61485  21.577  26.536  10.446 -0.1458  0.0940  0.2119
11658DOPE   C1B61486  20.717  25.607   9.890 -0.2367  0.1938  0.0883
11658DOPE   D2B61487  20.892  25.857  10.184 -0.1338  0.1488 -0.3060
11658DOPE   C3B61488  21.155  25.847  10.520  0.0918 -0.2238 -0.0712
11658DOPE   C4B61489  21.546  25.697  10.603 -0.0668 -0.3799 -0.2789
11659DOPE   NH361490  14.409  28.417  16.699 -0.2969  0.0835 -0.2628
11659DOPE   PO461491  14.223  28.730  16.798  0.0942 -0.3200 -0.0958
11659DOPE   GL161492  14.133  29.071  17.001 -0.1778 -0.0008 -0.2264
11659DOPE   GL261493  14.021  29.400  17.000  0.0410  0.1707 -0.0527
11659DOPE   C1A61494  14.180  29.258  17.454  0.0668  0.1965  0.0269
11659DOPE   D2A61495  14.507  29.309  17.847  0.1634 -0.4099 -0.2447
11659DOPE   C3A61496  14.580  29.455  18.189 -0.1177 -0.0365 -0.2343
11659DOPE   C4A61497  14.409  29.870  18.284 -0.1542  0.3183  0.0722
11659DOPE   C1B61498  14.239  29.683  17.212  0.4188  0.0906 -0.1049
11659DOPE   D2B61499  14.376  29.751  17.631  0.2231  0.0991 -0.0039
11659DOPE   C3B61500  14.727  29.823  17.878  0.0328 -0.0261  0.2928
11659DOPE   C4B61501  15.162  29.891  18.042 -0.3255 -0.0034 -0.0853
11660DOPE   NH361502  19.660   4.275  10.812 -0.3901  0.2578  0.3704
11660DOPE   PO461503  19.378   4.015  10.816 -0.1022  0.4251  0.3451
11660DOPE   GL161504  19.560   3.648  10.867  0.0582  0.3181 -0.1005
11660DOPE   GL261505  19.603   3.365  10.649 -0.1572 -0.0461 -0.2186
11660DOPE   C1A61506  19.983   3.538  11.004  0.1185 -0.1402  0.2526
11660DOPE   D2A61507  20.380   3.171  10.894 -0.1877 -0.1393  0.3106
11660DOPE   C3A61508  20.550   2.986  11.241  0.0107  0.1287 -0.2235
11660DOPE   C4A61509  20.932   2.942  11.426 -0.1729 -0.2160 -0.0022
11660DOPE   C1B61510  19.683   3.071  10.948 -0.1704 -0.0138  0.1836
11660DOPE   D2B61511  20.011   3.048  11.218  0.0634  0.2423 -0.3835
11660DOPE   C3B61512  19.951   2.848  11.622 -0.4576  0.0318  0.0583
11660DOPE   C4B61513  20.073   2.589  11.953  0.0281  0.3502  0.0165
11661DOPE   NH361514  20.853  10.714   9.525 -0.3673 -0.5262 -0.0853
11661DOPE   PO461515  20.615  11.080   9.575  0.3741  0.0597 -0.0138
11661DOPE   GL161516  21.136  11.155   9.597 -0.5623  0.0983  0.0249
11661DOPE   GL261517  21.317  10.963   9.361  0.0632  0.1407 -0.1387
11661DOPE   C1A61518  21.317  11.483   9.628 -0.1741 -0.1026 -0.1411
11661DOPE   D2A61519  21.493  11.899   9.631  0.0131 -0.0941  0.1610
11661DOPE   C3A61520  21.850  11.893   9.842  0.0372 -0.2527  0.1383
11661DOPE   C4A61521  22.263  11.903  10.014 -0.1115  0.1777  0.1595
11661DOPE   C1B61522  21.639  11.034   9.535 -0.0285 -0.0273  0.1195
11661DOPE   D2B61523  21.940  11.135   9.743 -0.1572 -0.0510 -0.0204
11661DOPE   C3B61524  22.230  10.979   9.834  0.2049  0.0501  0.1447
11661DOPE   C4B61525  22.602  10.778   9.804  0.2116  0.0330 -0.0162
11662DOPE   NH361526  35.144  28.854   6.731  0.3491 -0.2429  0.2188
11662DOPE   PO461527  35.079  28.310   6.808 -0.0905  0.1629 -0.2489
11662DOPE   GL161528  34.823  27.946   6.949 -0.2456 -0.0927  0.5950
11662DOPE   GL261529  34.919  27.813   7.168 -0.4588  0.0462 -0.0757
11662DOPE   C1A61530  34.661  27.532   6.780 -0.2675  0.2143  0.1883
11662DOPE   D2A61531  34.842  27.152   6.593 -0.0253  0.0249 -0.4202
11662DOPE   C3A61532  34.721  26.696   6.597 -0.0437 -0.4929 -0.0012
11662DOPE   C4A61533  34.524  26.345   6.723 -0.0737  0.0327 -0.4623
11662DOPE   C1B61534  34.800  27.523   7.467  0.0227  0.0094  0.0047
11662DOPE   D2B61535  34.835  27.341   7.815 -0.1552 -0.0274  0.0787
11662DOPE   C3B61536  34.467  27.280   8.088  0.3659 -0.0979 -0.0728
11662DOPE   C4B61537  34.071  27.152   7.945  0.2527 -0.3902 -0.0818
11663DOPE   NH361538   4.647  28.567  14.702  0.0914  0.1856  0.0857
11663DOPE   PO461539   4.396  28.564  14.347  0.1354 -0.1762  0.0569
11663DOPE   GL161540   4.018  28.586  14.555 -0.1130  0.0280 -0.3279
11663DOPE   GL261541   3.755  28.452  14.420 -0.0316 -0.3886  0.1580
11663DOPE   C1A61542   3.746  28.617  14.932  0.1387  0.1188  0.4505
11663DOPE   D2A61543   3.769  28.691  15.385  0.0912  0.0439 -0.2771
11663DOPE   C3A61544   3.879  28.578  15.825  0.0026  0.1347 -0.2343
11663DOPE   C4A61545   4.204  28.615  16.089  0.1417 -0.0604  0.2839
11663DOPE   C1B61546   3.716  28.086  14.629 -0.3493  0.1464  0.0477
11663DOPE   D2B61547   3.357  27.978  14.838 -0.0635 -0.3060  0.2152
11663DOPE   C3B61548   3.354  28.263  15.067 -0.1962  0.2575  0.4139
11663DOPE   C4B61549   3.295  28.421  15.393 -0.1987 -0.1101  0.1484
11664DOPE   NH361550  23.189  12.318   3.760  0.0548  0.2074 -0.2088
11664DOPE   PO461551  23.484  12.565   3.650 -0.0299 -0.6283 -0.0047
11664DOPE   GL161552  23.512  12.648   4.014 -0.2035 -0.0074 -0.1684
11664DOPE   GL261553  23.388  12.346   4.314  0.0817 -0.1410 -0.0276
11664DOPE   C1A61554  23.836  12.734   4.319  0.1420  0.0754 -0.0315
11664DOPE   D2A61555  23.977  12.699   4.715  0.2090 -0.1719 -0.1549
11664DOPE   C3A61556  24.200  12.592   4.969  0.1281  0.0595 -0.1054
11664DOPE   C4A61557  24.388  12.606   5.358 -0.2213  0.0280 -0.1029
11664DOPE   C1B61558  23.440  12.676   4.611  0.0198  0.0873 -0.1773
11664DOPE   D2B61559  23.559  12.811   5.032  0.2248 -0.0078 -0.0678
11664DOPE   C3B61560  23.918  13.033   5.131  0.0757 -0.3116  0.0083
11664DOPE   C4B61561  24.320  13.048   5.121 -0.3949  0.1693 -0.0255
11665DOPE   NH361562   1.705   8.754   6.422  0.0363 -0.3074 -0.1833
11665DOPE   PO461563   1.702   9.113   6.554 -0.1093 -0.4368 -0.1118
11665DOPE   GL161564   1.283   9.049   6.372 -0.1857  0.0549  0.1188
11665DOPE   GL261565   1.148   8.802   6.210  0.0088  0.0200  0.1898
11665DOPE   C1A61566   0.942   9.069   6.609 -0.1183  0.1002  0.0853
11665DOPE   D2A61567   0.875   8.904   6.985  0.1291 -0.1183  0.1805
11665DOPE   C3A61568   0.551   9.053   7.300 -0.0934 -0.1119  0.1130
11665DOPE   C4A61569   0.276   9.379   7.310 -0.0221 -0.2296  0.2318
11665DOPE   C1B61570   0.759   8.736   6.338  0.1314 -0.1718 -0.2056
11665DOPE   D2B61571   0.439   8.876   6.760 -0.3325 -0.2044  0.3216
11665DOPE   C3B61572   0.142   8.926   6.980 -0.0753  0.0479 -0.2314
11665DOPE   C4B61573   0.011   8.798   7.340  0.1241 -0.3861  0.2121
11666DOPE   NH361574   7.510   8.320  13.790  0.3378 -0.0293  0.0526
11666DOPE   PO461575   7.300   7.896  13.872 -0.0306  0.2986  0.1145
11666DOPE   GL161576   7.145   8.006  14.217 -0.1718 -0.1103  0.1294
11666DOPE   GL261577   7.155   8.284  14.199 -0.0365 -0.3503  0.1720
11666DOPE   C1A61578   6.703   7.866  14.263 -0.1765 -0.0386 -0.2464
11666DOPE   D2A61579   6.514   7.653  14.554 -0.1816 -0.0390  0.0457
11666DOPE   C3A61580   6.125   7.677  14.700  0.0101  0.2225  0.1718
11666DOPE   C4A61581   5.832   7.492  15.014  0.0836  0.0276  0.0147
11666DOPE   C1B61582   6.806   8.238  14.615  0.1019  0.2953 -0.0144
11666DOPE   D2B61583   6.361   8.135  14.670  0.0930  0.4172 -0.2705
11666DOPE   C3B61584   6.141   8.445  14.615 -0.0798 -0.1206 -0.3611
11666DOPE   C4B61585   6.007   8.854  14.759  0.0397  0.2188 -0.0972
11667DOPE   NH361586  22.885   2.236   7.854 -0.1782  0.0177  0.1062
11667DOPE   PO461587  22.553   1.997   8.125 -0.2178 -0.1236  0.0930
11667DOPE   GL161588  22.506   1.672   8.475  0.0133  0.0127  0.0968
11667DOPE   GL261589  22.325   1.574   8.663 -0.2112 -0.3310 -0.3693
11667DOPE   C1A61590  22.825   1.621   8.799  0.1830  0.1011  0.1564
11667DOPE   D2A61591  22.982   1.736   9.161 -0.3826  0.1736 -0.0864
11667DOPE   C3A61592  22.812   1.499   9.472  0.1510  0.1647  0.3440
11667DOPE   C4A61593  22.845   1.123   9.705 -0.0700  0.0720 -0.0180
11667DOPE   C1B61594  22.424   1.570   9.121  0.0636 -0.0070 -0.0473
11667DOPE   D2B61595  22.132   1.487   9.471 -0.2725  0.0851 -0.3880
11667DOPE   C3B61596  22.055   1.762   9.762 -0.1340 -0.0956  0.2478
11667DOPE   C4B61597  22.251   2.144  10.015 -0.1628 -0.2049 -0.5021
11668DOPE   NH361598   1.069  13.860   2.841  0.0991 -0.1354  0.0781
11668DOPE   PO461599   1.003  13.353   2.945 -0.2259  0.1686 -0.0101
11668DOPE   GL161600   0.587  13.330   3.073  0.1632 -0.0383  0.2909
11668DOPE   GL261601   0.427  13.655   2.984 -0.0408 -0.1033  0.0669
11668DOPE   C1A61602   0.332  13.086   3.384 -0.2552 -0.0041 -0.0270
11668DOPE   D2A61603   0.040  13.179   3.681  0.0705  0.1578  0.0762
11668DOPE   C3A61604  34.930  13.130   3.743  0.0817  0.0309  0.0048
11668DOPE   C4A61605  34.698  12.893   4.057  0.3115  0.0528 -0.1724
11668DOPE   C1B61606   0.310  13.673   3.448  0.1563 -0.1087 -0.0671
11668DOPE   D2B61607   0.240  14.133   3.702 -0.0074  0.1776  0.0914
11668DOPE   C3B61608   0.045  14.203   4.074  0.0585 -0.1021 -0.3070
11668DOPE   C4B61609  35.088  14.292   4.444 -0.1997 -0.0996 -0.0304
11669DOPE   NH361610  15.284   2.744  12.544 -0.1407  0.1179  0.1324
11669DOPE   PO461611  15.344   3.116  12.388 -0.3560 -0.2928 -0.1175
11669DOPE   GL161612  15.609   3.022  12.842  0.3850  0.2175  0.0564
11669DOPE   GL261613  15.673   3.311  13.070 -0.2856  0.3579  0.4053
11669DOPE   C1A61614  15.803   2.707  12.929  0.0958  0.2085 -0.3509
11669DOPE   D2A61615  15.817   2.522  13.340  0.0059  0.0562 -0.0378
11669DOPE   C3A61616  16.086   2.671  13.681 -0.2459  0.1267 -0.1999
11669DOPE   C4A61617  16.248   2.972  13.889 -0.0667 -0.0090 -0.3486
11669DOPE   C1B61618  16.029   3.236  12.774 -0.0788 -0.4175  0.3480
11669DOPE   D2B61619  16.426   3.227  12.855 -0.0385 -0.0730 -0.0605
11669DOPE   C3B61620  16.667   3.146  13.202  0.0870  0.0786 -0.2614
11669DOPE   C4B61621  16.888   3.277  13.559 -0.2081  0.2478  0.0768
11670DOPE   NH361622   8.660  21.020  16.127  0.0372  0.0122  0.1867
11670DOPE   PO461623   8.688  21.466  16.174  0.1358  0.4265  0.0064
11670DOPE   GL161624   8.590  21.273  16.585 -0.0615  0.0698  0.2146
11670DOPE   GL261625   8.616  21.530  16.701 -0.0417 -0.2558 -0.0695
11670DOPE   C1A61626   8.389  20.981  16.830 -0.0127 -0.1485 -0.0110
11670DOPE   D2A61627   8.162  20.774  17.157  0.3112  0.0935  0.2295
11670DOPE   C3A61628   7.870  20.728  17.499 -0.0380 -0.0958  0.0000
11670DOPE   C4A61629   7.483  20.775  17.778  0.1829 -0.1855  0.0941
11670DOPE   C1B61630   8.491  21.386  17.112  0.2993 -0.1446  0.0506
11670DOPE   D2B61631   8.277  21.361  17.460  0.1073  0.0387  0.0507
11670DOPE   C3B61632   8.126  21.116  17.617 -0.0005 -0.0826  0.1625
11670DOPE   C4B61633   8.121  20.854  17.918  0.4039 -0.4900 -0.3570
11671DOPE   NH361634  13.708  30.821  16.152  0.0937 -0.2415 -0.2701
11671DOPE   PO461635  13.623  31.323  16.195  0.1156 -0.2228  0.0217
11671DOPE   GL161636  13.841  31.656  16.369 -0.0616  0.0749  0.2298
11671DOPE   GL261637  13.823  31.928  16.151 -0.0436 -0.2521 -0.2508
11671DOPE   C1A61638  14.127  31.621  16.680 -0.1181  0.0616  0.0800
11671DOPE   D2A61639  14.562  31.666  17.031 -0.0335 -0.1254 -0.2855
11671DOPE   C3A61640  14.676  32.173  17.086  0.0976  0.2358  0.2233
11671DOPE   C4A61641  14.688  32.554  17.253 -0.0586  0.0217  0.0823
11671DOPE   C1B61642  14.021  32.078  16.495 -0.0653 -0.1241 -0.2020
11671DOPE   D2B61643  14.188  32.076  16.898 -0.1192  0.1216  0.0762
11671DOPE   C3B61644  14.215  32.388  17.205 -0.3634 -0.1131  0.3067
11671DOPE   C4B61645  14.393  32.537  17.618  0.0899 -0.0311 -0.0869
11672DOPE   NH361646   1.196  23.593   3.808  0.2387 -0.0615 -0.1052
11672DOPE   PO461647   1.236  23.984   4.157 -0.1086 -0.1555  0.0506
11672DOPE   GL161648   1.051  24.080   4.409 -0.0314  0.1431 -0.2701
11672DOPE   GL261649   0.677  24.110   4.414  0.0379 -0.0494 -0.2116
11672DOPE   C1A61650   1.011  24.177   4.797  0.0178  0.1616  0.0938
11672DOPE   D2A61651   0.790  24.182   5.196  0.0087  0.1360 -0.0715
11672DOPE   C3A61652   0.548  23.820   5.351  0.3531 -0.0679 -0.1896
11672DOPE   C4A61653   0.208  23.556   5.396 -0.1057  0.0841  0.1476
11672DOPE   C1B61654   0.488  24.064   4.796  0.1299 -0.0623  0.0262
11672DOPE   D2B61655   0.163  24.042   5.154 -0.2749  0.0100 -0.0046
11672DOPE   C3B61656   0.169  23.999   5.639 -0.2092 -0.1787  0.1801
11672DOPE   C4B61657   0.269  23.981   6.069  0.2341 -0.1885 -0.1292
11673DOPE   NH361658  31.347  17.108   0.300  0.1125 -0.2852  0.1241
11673DOPE   PO461659  31.644  16.795   0.494 -0.0659 -0.5668  0.2613
11673DOPE   GL161660  31.441  16.908   0.891 -0.1950  0.1698 -0.0558
11673DOPE   GL261661  31.173  16.831   0.797  0.2331  0.2972 -0.0571
11673DOPE   C1A61662  31.435  17.101   1.272 -0.0240  0.0324  0.0867
11673DOPE   D2A61663  31.433  17.161   1.671  0.0865 -0.1919 -0.0152
11673DOPE   C3A61664  31.797  17.140   1.961 -0.3139  0.1642 -0.0130
11673DOPE   C4A61665  31.888  17.218   2.371 -0.0159 -0.0823 -0.0918
11673DOPE   C1B61666  30.943  16.766   1.102  0.0365  0.1041 -0.1163
11673DOPE   D2B61667  31.088  16.747   1.632 -0.2087  0.0020  0.4029
11673DOPE   C3B61668  30.725  16.646   1.896  0.2874 -0.1334 -0.1099
11673DOPE   C4B61669  30.362  16.428   1.815  0.0992 -0.1901  0.0174
11674DOPE   NH361670  29.365  17.603  26.097 -0.1326  0.1675  0.3211
11674DOPE   PO461671  28.978  17.653  26.177 -0.0460 -0.3131 -0.0501
11674DOPE   GL161672  29.032  17.633   0.311 -0.0374  0.1432 -0.1302
11674DOPE   GL261673  29.095  17.286   0.359 -0.0437 -0.3908 -0.0230
11674DOPE   C1A61674  28.960  17.569   0.729  0.2537  0.1234 -0.1529
11674DOPE   D2A61675  29.019  17.846   1.040 -0.0120  0.0373  0.0584
11674DOPE   C3A61676  28.998  18.304   1.084 -0.2677  0.1497  0.2133
11674DOPE   C4A61677  28.882  18.721   1.288  0.1728  0.2597 -0.2131
11674DOPE   C1B61678  29.333  17.283   0.690  0.0053  0.3769 -0.2883
11674DOPE   D2B61679  29.250  17.323   1.069  0.2216  0.0549 -0.0284
11674DOPE   C3B61680  29.351  17.593   1.460 -0.1933  0.1928 -0.2636
11674DOPE   C4B61681  29.444  17.849   1.711 -0.3118  0.2452 -0.1023
11675DOPE   NH361682   1.155  30.569   9.501  0.0570 -0.4239 -0.2001
11675DOPE   PO461683   0.971  30.529   9.187  0.0792 -0.1445  0.2390
11675DOPE   GL161684   0.651  30.583   9.436  0.1331  0.0247 -0.1321
11675DOPE   GL261685   0.527  30.850   9.356  0.4254  0.3101 -0.0570
11675DOPE   C1A61686   0.299  30.395   9.650  0.0762  0.2934 -0.1219
11675DOPE   D2A61687  35.242  30.392   9.888 -0.0074 -0.0838  0.0528
11675DOPE   C3A61688  34.980  30.000   9.971  0.0701 -0.1158  0.0961
11675DOPE   C4A61689  34.657  29.942  10.212  0.0686 -0.1186 -0.1010
11675DOPE   C1B61690   0.227  30.873   9.640 -0.1395 -0.0682  0.1088
11675DOPE   D2B61691  35.306  31.168  10.019 -0.0873  0.3136  0.0585
11675DOPE   C3B61692  35.116  30.908  10.334 -0.1042  0.0498 -0.0979
11675DOPE   C4B61693  34.762  30.984  10.686  0.0403 -0.2328 -0.0783
11676DOPE   NH361694  33.605   5.428   6.181  0.0483  0.3597 -0.1666
11676DOPE   PO461695  33.309   5.249   5.945 -0.1179  0.0616  0.0360
11676DOPE   GL161696  33.140   5.523   6.339  0.2598  0.0498 -0.1345
11676DOPE   GL261697  33.313   5.742   6.423  0.0887 -0.0613 -0.1809
11676DOPE   C1A61698  32.973   5.433   6.747  0.1777 -0.2049  0.0489
11676DOPE   D2A61699  32.575   5.582   6.772  0.0080  0.0752 -0.2874
11676DOPE   C3A61700  32.409   5.885   7.017  0.0041  0.0450 -0.0919
11676DOPE   C4A61701  32.538   6.142   7.400 -0.3709  0.2351 -0.0672
11676DOPE   C1B61702  33.035   6.017   6.714  0.0475 -0.0020  0.4626
11676DOPE   D2B61703  32.748   6.241   6.926 -0.1964 -0.0268 -0.0563
11676DOPE   C3B61704  32.596   6.606   7.199  0.0683  0.1268  0.2191
11676DOPE   C4B61705  32.770   6.698   7.503  0.2417  0.1438  0.3181
11677DOPE   NH361706  14.790  20.466  15.877 -0.0803 -0.2228 -0.2240
11677DOPE   PO461707  14.989  20.852  16.005  0.0792 -0.0188  0.2107
11677DOPE   GL161708  15.246  20.654  16.222  0.4698 -0.0305  0.3448
11677DOPE   GL261709  15.227  20.799  16.472  0.1846 -0.2614  0.0708
11677DOPE   C1A61710  15.534  20.439  16.261 -0.0119 -0.1810 -0.1782
11677DOPE   D2A61711  15.738  20.242  16.559  0.3134 -0.1679 -0.1670
11677DOPE   C3A61712  16.003  20.017  16.867  0.1671 -0.0729 -0.4565
11677DOPE   C4A61713  16.138  19.972  17.297  0.0745  0.1529  0.3265
11677DOPE   C1B61714  15.301  20.479  16.804  0.3025  0.0283  0.0151
11677DOPE   D2B61715  15.410  20.237  17.049 -0.1559  0.2037  0.0238
11677DOPE   C3B61716  15.780  20.335  17.360 -0.0307 -0.1655  0.2695
11677DOPE   C4B61717  15.946  20.628  17.672  0.0549 -0.1586  0.0651
11678DOPE   NH361718  20.412  14.605   8.827  0.0712  0.2366  0.0333
11678DOPE   PO461719  20.269  14.179   8.993 -0.1415  0.0747  0.2119
11678DOPE   GL161720  20.585  14.416   9.304 -0.1063 -0.0915  0.0381
11678DOPE   GL261721  20.776  14.676   9.175 -0.4038  0.0392  0.0719
11678DOPE   C1A61722  21.049  14.301   9.406  0.0913 -0.1619 -0.2262
11678DOPE   D2A61723  21.399  14.119   9.452 -0.2161  0.3035  0.3974
11678DOPE   C3A61724  21.615  13.905   9.086 -0.3236  0.2849 -0.2331
11678DOPE   C4A61725  21.883  13.897   8.653 -0.0711  0.1721  0.0687
11678DOPE   C1B61726  21.314  14.711   9.280 -0.2010  0.1344 -0.1427
11678DOPE   D2B61727  21.643  14.804   9.499  0.2510 -0.0308  0.0375
11678DOPE   C3B61728  21.938  14.575   9.567  0.2070 -0.1770 -0.0180
11678DOPE   C4B61729  22.235  14.300   9.371 -0.1002  0.0966 -0.5105
11679DOPE   NH361730  19.848  28.400   9.036  0.1373  0.0455 -0.1819
11679DOPE   PO461731  19.875  28.612   8.764  0.3098  0.2477  0.3509
11679DOPE   GL161732  20.303  28.733   8.937  0.1475 -0.0908 -0.3098
11679DOPE   GL261733  20.413  29.078   8.801  0.0517 -0.3580 -0.3116
11679DOPE   C1A61734  20.561  28.836   9.236 -0.0726  0.0402 -0.0620
11679DOPE   D2A61735  20.889  28.949   9.337 -0.1526  0.1278 -0.0396
11679DOPE   C3A61736  21.076  28.814   9.713  0.2691  0.3712 -0.0064
11679DOPE   C4A61737  20.977  28.428   9.923  0.0811  0.0029  0.1382
11679DOPE   C1B61738  20.828  29.234   8.680 -0.1258 -0.2166 -0.2685
11679DOPE   D2B61739  21.184  29.297   8.515  0.2674 -0.2355  0.0733
11679DOPE   C3B61740  21.521  29.403   8.811  0.1969  0.0523 -0.1123
11679DOPE   C4B61741  21.719  29.425   9.195 -0.1155 -0.3000 -0.0596
11680DOPE   NH361742  14.406  13.071  14.971  0.2452  0.0397 -0.2981
11680DOPE   PO461743  13.948  13.159  14.764  0.1457 -0.4416 -0.1743
11680DOPE   GL161744  13.694  13.180  15.086  0.2277  0.1827 -0.0630
11680DOPE   GL261745  13.711  13.425  15.209  0.3141  0.2603  0.0350
11680DOPE   C1A61746  13.828  13.056  15.529 -0.2040  0.1031 -0.1297
11680DOPE   D2A61747  13.719  13.021  15.878  0.0391  0.0497  0.3646
11680DOPE   C3A61748  13.813  12.766  16.227 -0.2504 -0.0230 -0.3905
11680DOPE   C4A61749  14.010  12.539  16.568 -0.0307 -0.0937 -0.0788
11680DOPE   C1B61750  13.714  13.533  15.695 -0.1916  0.0732 -0.1050
11680DOPE   D2B61751  13.773  13.601  16.127  0.1267 -0.0793  0.2908
11680DOPE   C3B61752  13.619  13.187  16.367  0.1094 -0.1424 -0.2330
11680DOPE   C4B61753  13.249  13.066  16.630  0.0251  0.0097  0.2599
11681DOPE   NH361754  19.703  13.221   9.781 -0.1425  0.1269 -0.2114
11681DOPE   PO461755  19.889  12.774   9.821  0.1388  0.0499 -0.1271
11681DOPE   GL161756  20.126  13.071  10.014  0.0222 -0.2379  0.1340
11681DOPE   GL261757  19.941  13.064  10.388 -0.1297  0.3047 -0.1837
11681DOPE   C1A61758  20.536  13.245  10.039 -0.1249 -0.1964 -0.2247
11681DOPE   D2A61759  20.793  13.361  10.272 -0.2220  0.0356  0.0532
11681DOPE   C3A61760  21.148  13.385  10.420  0.1388  0.2514  0.0907
11681DOPE   C4A61761  21.454  13.401  10.742  0.2643 -0.1989 -0.0403
11681DOPE   C1B61762  20.156  13.252  10.658  0.1654  0.1899 -0.1065
11681DOPE   D2B61763  20.275  13.215  11.032  0.1265 -0.1665 -0.1368
11681DOPE   C3B61764  20.589  13.386  11.234 -0.1143  0.0566  0.1767
11681DOPE   C4B61765  20.828  13.458  11.640 -0.2934 -0.0640 -0.1434
11682DOPE   NH361766  14.042  12.597  14.509 -0.3656 -0.2323 -0.3692
11682DOPE   PO461767  13.937  12.244  14.777 -0.1760 -0.2079  0.1496
11682DOPE   GL161768  13.627  12.266  15.131 -0.0033 -0.0768  0.1659
11682DOPE   GL261769  13.511  12.599  15.059  0.1356  0.1726 -0.2594
11682DOPE   C1A61770  13.552  12.065  15.497  0.3092  0.0521 -0.1427
11682DOPE   D2A61771  13.504  11.915  15.759 -0.1173 -0.1736  0.3909
11682DOPE   C3A61772  13.157  11.797  15.867 -0.1010  0.1591  0.1839
11682DOPE   C4A61773  12.741  11.905  15.860 -0.0873  0.0331 -0.1622
11682DOPE   C1B61774  13.592  12.618  15.485  0.2411 -0.1259 -0.0534
11682DOPE   D2B61775  13.645  12.502  15.831 -0.3478 -0.0827 -0.0113
11682DOPE   C3B61776  13.600  12.256  16.104  0.2686 -0.0523  0.0939
11682DOPE   C4B61777  13.676  12.082  16.491 -0.0613  0.2416  0.1337
11683DOPE   NH361778  18.596  10.048  12.478  0.1071  0.0179 -0.0177
11683DOPE   PO461779  18.877  10.295  12.165  0.1167  0.2518  0.2670
11683DOPE   GL161780  19.185  10.071  12.435  0.2946 -0.1505  0.0426
11683DOPE   GL261781  19.582  10.064  12.343 -0.2855  0.0643  0.2190
11683DOPE   C1A61782  19.408  10.043  12.796  0.1509 -0.2106 -0.1974
11683DOPE   D2A61783  19.606  10.048  13.290 -0.2589  0.1322 -0.0104
11683DOPE   C3A61784  19.725  10.007  13.685 -0.1407  0.1481  0.0875
11683DOPE   C4A61785  19.568  10.235  13.982  0.2514 -0.2198  0.3459
11683DOPE   C1B61786  19.818  10.166  12.566 -0.3694 -0.3066 -0.1848
11683DOPE   D2B61787  20.059  10.448  12.569 -0.2234 -0.0615  0.3260
11683DOPE   C3B61788  20.068  10.680  12.861 -0.0955 -0.2450  0.0749
11683DOPE   C4B61789  20.278  10.594  13.251 -0.0211  0.1273  0.4162
11684DOPE   NH361790  28.872  31.323   6.010 -0.2892  0.2045  0.0295
11684DOPE   PO461791  29.256  30.976   5.836 -0.0114 -0.1210 -0.1475
11684DOPE   GL161792  29.542  30.834   6.187  0.3164  0.1038 -0.0922
11684DOPE   GL261793  29.323  30.603   6.207 -0.1688  0.1892 -0.1941
11684DOPE   C1A61794  29.724  30.828   6.519  0.1747  0.0259  0.1321
11684DOPE   D2A61795  30.022  30.612   6.789 -0.1379  0.1454  0.1799
11684DOPE   C3A61796  30.084  30.392   7.051  0.0092  0.2375 -0.1016
11684DOPE   C4A61797  29.927  30.195   7.245 -0.5800  0.3686 -0.1163
11684DOPE   C1B61798  29.238  30.132   6.114 -0.2183 -0.1585  0.0224
11684DOPE   D2B61799  29.362  29.820   6.357  0.1442 -0.0583  0.2381
11684DOPE   C3B61800  29.224  29.780   6.729  0.0960  0.1395  0.1645
11684DOPE   C4B61801  29.153  29.803   7.193 -0.0582  0.1497 -0.2196
11685DOPE   NH361802  11.026  33.454  16.205  0.0757  0.0763  0.3962
11685DOPE   PO461803  11.205  33.132  16.450  0.3080  0.0825  0.1708
11685DOPE   GL161804  11.312  33.201  16.942 -0.1562  0.3363 -0.2043
11685DOPE   GL261805  11.010  33.038  17.127  0.2809  0.0539  0.0562
11685DOPE   C1A61806  11.349  33.286  17.349 -0.1949 -0.2821  0.0836
11685DOPE   D2A61807  10.933  33.360  17.548  0.0484  0.0285 -0.0225
11685DOPE   C3A61808  10.821  33.276  17.952 -0.0489 -0.0082  0.0763
11685DOPE   C4A61809  11.179  33.262  18.255 -0.1022 -0.1300  0.0345
11685DOPE   C1B61810  10.816  32.858  17.628 -0.1111 -0.0675 -0.0613
11685DOPE   D2B61811  10.684  32.828  18.053 -0.0532 -0.0372  0.0731
11685DOPE   C3B61812  10.534  32.474  18.214  0.0424  0.0281  0.0118
11685DOPE   C4B61813  10.471  32.136  18.486  0.3704  0.2594 -0.0478
11686DOPE   NH361814   3.147  34.709  11.579  0.2363  0.1268  0.2696
11686DOPE   PO461815   3.130  34.922  11.957 -0.2248 -0.0373 -0.0077
11686DOPE   GL161816   2.734  34.931  12.055  0.1344 -0.2205  0.0646
11686DOPE   GL261817   2.742  34.740  12.450 -0.1884 -0.0992  0.0345
11686DOPE   C1A61818   2.426  35.119  12.382  0.0125  0.2005 -0.0696
11686DOPE   D2A61819   2.321  35.330  12.754  0.1739 -0.0180  0.0245
11686DOPE   C3A61820   2.006   0.003  12.908  0.3816 -0.0730  0.0026
11686DOPE   C4A61821   2.085  35.350  13.293 -0.0553 -0.2678 -0.0118
11686DOPE   C1B61822   2.580  34.859  12.883 -0.0869 -0.3131 -0.4269
11686DOPE   D2B61823   2.417  34.969  13.169 -0.2413 -0.1012  0.1379
11686DOPE   C3B61824   2.234  34.788  13.496  0.1041  0.0805  0.1892
11686DOPE   C4B61825   2.385  34.508  13.792  0.0080  0.1949  0.0055
11687PAPE   NH361826  25.378  15.877   0.821  0.3160 -0.2024  0.1826
11687PAPE   PO461827  25.747  15.587   0.752  0.4391  0.1914  0.3439
11687PAPE   GL161828  25.869  15.274   1.006  0.0928  0.2276  0.0374
11687PAPE   GL261829  26.163  15.131   0.945  0.0531 -0.0402 -0.2644
11687PAPE   D1A61830  25.804  14.892   1.244 -0.1124  0.1530  0.4105
11687PAPE   D2A61831  25.858  15.234   1.527 -0.2051 -0.0734  0.1180
11687PAPE   D3A61832  26.072  15.062   1.859  0.2418  0.0742  0.1089
11687PAPE   D4A61833  26.335  14.860   2.114  0.1161  0.1339  0.0743
11687PAPE   C5A61834  26.332  14.547   1.951 -0.0635  0.1920  0.0531
11687PAPE   C1B61835  26.341  15.334   1.326  0.0916  0.0497 -0.1149
11687PAPE   C2B61836  26.506  15.273   1.716  0.1329  0.1709 -0.2008
11687PAPE   C3B61837  26.843  15.100   2.026 -0.1549  0.1404  0.1720
11687PAPE   C4B61838  27.121  14.886   2.322 -0.1145 -0.0083  0.1834
11688PAPE   NH361839  25.322  27.846   4.278 -0.1926 -0.2762  0.5043
11688PAPE   PO461840  25.226  27.405   4.344  0.0955 -0.2074 -0.1936
11688PAPE   GL161841  25.592  27.369   4.205  0.0408  0.0026 -0.0280
11688PAPE   GL261842  25.823  27.535   4.300 -0.0038 -0.0802 -0.1467
11688PAPE   D1A61843  25.903  26.929   4.149 -0.0060  0.0078 -0.3266
11688PAPE   D2A61844  25.790  26.569   4.310  0.2576 -0.0028 -0.2149
11688PAPE   D3A61845  25.953  26.183   4.422 -0.0507  0.0424  0.2608
11688PAPE   D4A61846  26.105  26.289   4.053 -0.0152 -0.0094 -0.0191
11688PAPE   C5A61847  25.913  26.302   3.789 -0.0368 -0.1270  0.0446
11688PAPE   C1B61848  26.134  27.368   4.483  0.0716 -0.1123 -0.1827
11688PAPE   C2B61849  26.321  26.941   4.488  0.3534 -0.1372 -0.1149
11688PAPE   C3B61850  26.379  26.465   4.464  0.2707  0.2334 -0.2370
11688PAPE   C4B61851  26.568  26.081   4.489 -0.1556  0.1317 -0.0961
11689PAPE   NH361852  26.256  31.338   6.052  0.0057 -0.0166  0.0661
11689PAPE   PO461853  25.897  31.278   5.947 -0.1732  0.2473 -0.0296
11689PAPE   GL161854  25.777  31.648   6.199  0.2585 -0.1902  0.3886
11689PAPE   GL261855  25.576  31.611   6.369  0.1091 -0.1111 -0.3965
11689PAPE   D1A61856  25.715  32.091   6.108 -0.0976 -0.3381  0.2471
11689PAPE   D2A61857  25.869  31.975   6.543 -0.0622  0.0932  0.0300
11689PAPE   D3A61858  25.799  32.155   6.857 -0.1112 -0.1770  0.2165
11689PAPE   D4A61859  25.966  32.614   6.763 -0.0792  0.2490  0.0477
11689PAPE   C5A61860  26.249  32.648   6.330 -0.2853 -0.0310 -0.2428
11689PAPE   C1B61861  25.762  31.491   6.765 -0.2669  0.4279 -0.2804
11689PAPE   C2B61862  25.800  31.825   7.191 -0.1176  0.2776 -0.0866
11689PAPE   C3B61863  25.550  31.986   7.548 -0.0394 -0.4194  0.0314
11689PAPE   C4B61864  25.618  31.841   8.033  0.2297  0.0724 -0.0078
11690PAPE   NH361865  34.717  24.769   2.116  0.4614 -0.1915 -0.0904
11690PAPE   PO461866  34.302  24.491   2.040 -0.0888  0.1282  0.0654
11690PAPE   GL161867  33.975  24.355   2.189  0.0347  0.1779 -0.0291
11690PAPE   GL261868  33.949  24.121   2.429 -0.1247  0.4520  0.1383
11690PAPE   D1A61869  33.686  24.605   2.434 -0.2893 -0.3407  0.0236
11690PAPE   D2A61870  33.462  24.750   2.823  0.0469 -0.0801 -0.0402
11690PAPE   D3A61871  33.615  24.699   3.301 -0.1427 -0.1057 -0.0899
11690PAPE   D4A61872  33.427  24.785   3.563 -0.3515 -0.0080 -0.1125
11690PAPE   C5A61873  32.996  25.102   3.539 -0.1369  0.2389  0.3559
11690PAPE   C1B61874  33.607  23.801   2.376 -0.1375 -0.2849  0.3958
11690PAPE   C2B61875  33.345  23.706   2.736 -0.2277  0.4556  0.2666
11690PAPE   C3B61876  33.092  23.729   3.145  0.0170  0.2201  0.0913
11690PAPE   C4B61877  32.860  23.855   3.587  0.0838  0.3436  0.1320
11691PAPE   NH361878  16.579  33.063  11.168 -0.1816  0.1711  0.0985
11691PAPE   PO461879  16.755  33.378  11.384 -0.1541 -0.1017  0.1597
11691PAPE   GL161880  16.755  33.359  11.872 -0.2217  0.0425 -0.1282
11691PAPE   GL261881  16.911  33.636  11.907  0.2318 -0.1123 -0.0175
11691PAPE   D1A61882  16.518  33.486  12.275 -0.0099 -0.0438 -0.0250
11691PAPE   D2A61883  15.978  33.570  12.234  0.0797  0.1285 -0.1512
11691PAPE   D3A61884  15.831  33.418  12.660 -0.1707 -0.0420 -0.1555
11691PAPE   D4A61885  16.208  33.390  12.664  0.0714 -0.0696  0.3342
11691PAPE   C5A61886  16.484  33.224  13.008 -0.2625  0.0334 -0.0113
11691PAPE   C1B61887  17.092  33.856  12.117  0.0574 -0.2804 -0.0553
11691PAPE   C2B61888  17.476  33.797  12.409  0.5540 -0.0371  0.0692
11691PAPE   C3B61889  17.837  33.582  12.576 -0.3072 -0.0730 -0.0203
11691PAPE   C4B61890  17.945  33.328  12.718 -0.1762  0.2560  0.1278
11692PAPE   NH361891  16.737   2.845  10.997  0.2080 -0.3910 -0.0138
11692PAPE   PO461892  17.165   2.660  10.944 -0.0088  0.2942 -0.3208
11692PAPE   GL161893  17.494   2.516  11.322 -0.2590 -0.0615 -0.2830
11692PAPE   GL261894  17.651   2.155  11.272  0.0023 -0.1715 -0.0962
11692PAPE   D1A61895  17.697   2.437  11.701 -0.4044  0.1780 -0.2858
11692PAPE   D2A61896  18.043   2.451  11.430 -0.0505 -0.1417  0.1914
11692PAPE   D3A61897  18.183   2.239  11.777  0.0957 -0.0844 -0.1416
11692PAPE   D4A61898  18.457   2.001  11.699  0.2224  0.0733  0.1126
11692PAPE   C5A61899  18.825   1.864  11.750  0.0126  0.1560  0.2656
11692PAPE   C1B61900  18.061   1.898  11.357 -0.2035  0.1816 -0.2228
11692PAPE   C2B61901  18.092   1.571  11.541  0.0410 -0.0697  0.1614
11692PAPE   C3B61902  18.400   1.452  11.900 -0.3494  0.0591  0.4033
11692PAPE   C4B61903  18.830   1.410  12.080 -0.1008  0.0544 -0.0906
11693PAPE   NH361904  12.091  11.065  14.504  0.2881 -0.1271  0.2819
11693PAPE   PO461905  12.518  11.033  14.422 -0.1792  0.2779 -0.1684
11693PAPE   GL161906  12.544  11.123  14.809 -0.0024  0.2077 -0.1586
11693PAPE   GL261907  12.306  10.833  14.886  0.2608  0.0072  0.0567
11693PAPE   D1A61908  12.486  11.195  15.317  0.0705 -0.0699 -0.0934
11693PAPE   D2A61909  12.470  11.540  15.607  0.3585  0.1354  0.2255
11693PAPE   D3A61910  12.427  11.456  16.022  0.1076  0.1998 -0.0503
11693PAPE   D4A61911  12.522  11.725  16.394  0.2980  0.1201  0.2740
11693PAPE   C5A61912  12.734  11.714  16.771  0.0238  0.1929  0.0364
11693PAPE   C1B61913  12.316  10.573  15.213  0.1055 -0.3183 -0.4889
11693PAPE   C2B61914  12.208  10.688  15.615  0.0539 -0.4271  0.2263
11693PAPE   C3B61915  12.168  10.806  16.042 -0.0541  0.1806  0.3272
11693PAPE   C4B61916  12.475  11.008  16.261 -0.3952  0.0566  0.0975
11694PAPE   NH361917   2.078  12.556   4.174 -0.2279 -0.1340 -0.1778
11694PAPE   PO461918   2.260  12.892   4.359  0.2269 -0.0798 -0.2321
11694PAPE   GL161919   1.919  13.284   4.541  0.0729 -0.2935 -0.2715
11694PAPE   GL261920   1.886  13.491   4.826 -0.0944 -0.2180 -0.1395
11694PAPE   D1A61921   1.524  13.242   4.294 -0.1626  0.0176 -0.0175
11694PAPE   D2A61922   1.618  12.833   3.991 -0.0581  0.1631  0.0446
11694PAPE   D3A61923   1.733  12.806   4.420  0.2580 -0.1596 -0.1694
11694PAPE   D4A61924   2.029  12.843   4.809 -0.2325 -0.2393  0.0233
11694PAPE   C5A61925   2.101  12.540   5.069  0.2596 -0.1260 -0.0472
11694PAPE   C1B61926   1.566  13.438   5.136  0.0753 -0.0743 -0.2646
11694PAPE   C2B61927   1.141  13.168   5.192 -0.1260  0.0516 -0.0402
11694PAPE   C3B61928   0.729  13.054   5.290  0.1281 -0.1948  0.0959
11694PAPE   C4B61929   0.374  12.827   5.423 -0.0515  0.1190 -0.2644
11695PAPE   NH361930  30.074   4.583   5.212  0.4083  0.1880  0.2271
11695PAPE   PO461931  29.701   4.267   5.246  0.2902  0.0136 -0.3179
11695PAPE   GL161932  29.715   4.480   5.543 -0.1078  0.0471  0.0118
11695PAPE   GL261933  29.710   4.384   5.942 -0.1790  0.0962 -0.0793
11695PAPE   D1A61934  29.661   4.984   5.446  0.1397  0.2492  0.1848
11695PAPE   D2A61935  29.380   5.187   5.293  0.0242  0.0307 -0.0703
11695PAPE   D3A61936  29.662   5.385   5.095  0.1120  0.0183 -0.1279
11695PAPE   D4A61937  29.532   5.741   4.949  0.0152  0.1372 -0.2315
11695PAPE   C5A61938  29.685   6.004   5.322 -0.2510 -0.0759  0.0450
11695PAPE   C1B61939  29.492   4.768   6.078  0.2858  0.0327  0.0195
11695PAPE   C2B61940  29.288   5.002   6.395  0.0782 -0.1352  0.0241
11695PAPE   C3B61941  29.067   5.389   6.622  0.1641 -0.3294 -0.1448
11695PAPE   C4B61942  28.737   5.628   6.473  0.0164  0.1264 -0.3806
11696PAPE   NH361943  23.745  26.323   3.842  0.0249 -0.1431  0.0208
11696PAPE   PO461944  24.113  25.994   3.875 -0.0497 -0.3068 -0.2738
11696PAPE   GL161945  24.363  25.895   4.210 -0.1740 -0.2292 -0.0702
11696PAPE   GL261946  24.093  25.665   4.397 -0.0484 -0.0220  0.1913
11696PAPE   D1A61947  24.625  26.052   4.485  0.2092 -0.0722 -0.0981
11696PAPE   D2A61948  24.900  26.294   4.199  0.0328 -0.1969  0.0678
11696PAPE   D3A61949  24.840  26.660   4.398 -0.1362 -0.2687  0.0441
11696PAPE   D4A61950  24.418  26.595   4.611  0.1875  0.2147  0.0070
11696PAPE   C5A61951  24.524  26.328   4.889  0.0215 -0.1835 -0.0588
11696PAPE   C1B61952  24.378  25.717   4.771 -0.0208  0.2802 -0.1304
11696PAPE   C2B61953  24.652  25.752   5.002 -0.0519  0.1687 -0.0727
11696PAPE   C3B61954  24.770  25.863   5.426 -0.1689  0.1630  0.0994
11696PAPE   C4B61955  25.112  25.863   5.821  0.3028  0.3083  0.2038
11697PAPE   NH361956   4.208   5.273   9.657  0.0525 -0.3700 -0.3369
11697PAPE   PO461957   4.327   4.949   9.956 -0.2373 -0.0810  0.1178
11697PAPE   GL161958   4.146   4.906  10.373  0.4062 -0.0275  0.2762
11697PAPE   GL261959   3.903   4.832  10.403 -0.0571  0.0099  0.0662
11697PAPE   D1A61960   4.149   5.166  10.704  0.0234  0.0486  0.3806
11697PAPE   D2A61961   4.034   5.309  11.155 -0.0544  0.0931  0.2432
11697PAPE   D3A61962   3.727   4.889  11.260 -0.2844 -0.3030 -0.3407
11697PAPE   D4A61963   3.354   5.081  11.456 -0.2397  0.2666 -0.0425
11697PAPE   C5A61964   3.215   5.522  11.540 -0.2691  0.1482 -0.2712
11697PAPE   C1B61965   3.776   4.690  10.787  0.2143  0.2947  0.2583
11697PAPE   C2B61966   3.852   4.387  11.063 -0.0796 -0.0358  0.2386
11697PAPE   C3B61967   3.628   4.365  11.515 -0.5130 -0.0999  0.4296
11697PAPE   C4B61968   3.391   4.518  11.830  0.0781  0.0081 -0.3382
11698PAPE   NH361969   5.673  13.870  10.592  0.2414  0.3677  0.2450
11698PAPE   PO461970   5.812  13.415  10.510 -0.0208  0.3673  0.0443
11698PAPE   GL161971   5.458  13.382  10.355  0.0407  0.1346  0.2177
11698PAPE   GL261972   5.232  13.696  10.398  0.0495 -0.2719 -0.2181
11698PAPE   D1A61973   5.080  13.106  10.208 -0.3028  0.1395 -0.2791
11698PAPE   D2A61974   5.084  12.670  10.330 -0.3407  0.0032 -0.0928
11698PAPE   D3A61975   4.799  12.431  10.355  0.1229 -0.1308  0.1471
11698PAPE   D4A61976   4.637  12.206  10.620  0.1683  0.0771  0.2055
11698PAPE   C5A61977   4.598  11.820  10.607  0.0898 -0.1703  0.3041
11698PAPE   C1B61978   4.893  13.517  10.558 -0.0909 -0.3037  0.3879
11698PAPE   C2B61979   4.506  13.581  10.607 -0.1086 -0.1241 -0.3051
11698PAPE   C3B61980   4.216  13.318  10.885 -0.0229 -0.2643 -0.0538
11698PAPE   C4B61981   3.884  13.239  10.718  0.1659  0.2941  0.1693
11699PAPE   NH361982  33.302   7.692   3.861 -0.0827 -0.0169 -0.3397
11699PAPE   PO461983  33.449   7.699   4.398 -0.0609 -0.1225  0.0807
11699PAPE   GL161984  33.649   7.774   4.733  0.0391 -0.0072 -0.0061
11699PAPE   GL261985  33.617   7.675   5.126  0.1926 -0.2000  0.0819
11699PAPE   D1A61986  33.957   8.177   4.855  0.0637  0.4231 -0.2131
11699PAPE   D2A61987  33.784   8.638   4.744 -0.1482  0.1569 -0.0443
11699PAPE   D3A61988  33.720   8.899   5.030  0.0354 -0.3038  0.1509
11699PAPE   D4A61989  33.474   9.127   4.734  0.2264 -0.0513  0.1168
11699PAPE   C5A61990  33.156   9.365   4.749  0.0936  0.2485  0.1710
11699PAPE   C1B61991  33.616   8.137   5.365 -0.0222  0.3570 -0.0224
11699PAPE   C2B61992  33.570   8.607   5.454 -0.2758 -0.1214  0.0064
11699PAPE   C3B61993  33.201   8.815   5.632  0.1451  0.1047  0.2933
11699PAPE   C4B61994  32.770   8.985   5.464 -0.0883  0.1953 -0.2928
11700PAPE   NH361995  18.404  33.126   9.436 -0.0030  0.0021 -0.1476
11700PAPE   PO461996  18.618  33.354   9.703  0.0203 -0.0476  0.3523
11700PAPE   GL161997  18.757  33.610   9.973  0.3524  0.0744 -0.2970
11700PAPE   GL261998  18.668  33.577  10.280 -0.2300  0.1412  0.2537
11700PAPE   D1A61999  19.177  33.772  10.051 -0.2451  0.1093 -0.0450
11700PAPE   D2A62000  19.199  33.585  10.467  0.3913 -0.1726  0.2382
11700PAPE   D3A62001  19.581  33.619  10.635  0.0582  0.1635  0.1562
11700PAPE   D4A62002  19.462  33.667  10.961 -0.0542 -0.2154 -0.2006
11700PAPE   C5A62003  19.677  33.527  11.349 -0.2015  0.2931  0.0392
11700PAPE   C1B62004  18.758  33.604  10.631  0.1925  0.0194 -0.1333
11700PAPE   C2B62005  18.985  33.595  11.062 -0.1344  0.2432 -0.0415
11700PAPE   C3B62006  19.196  33.346  11.333  0.0546 -0.4286  0.1825
11700PAPE   C4B62007  19.326  32.992  11.555 -0.1444  0.3373  0.1823
11701PAPE   NH362008   9.254  20.818  16.289 -0.1380 -0.0260 -0.0732
11701PAPE   PO462009   9.095  21.099  16.406 -0.1568  0.2120 -0.0042
11701PAPE   GL162010   9.280  21.171  16.764 -0.1947 -0.2669  0.0996
11701PAPE   GL262011   9.576  21.034  16.935 -0.1951 -0.1412 -0.2665
11701PAPE   D1A62012   9.155  21.293  17.186  0.0357 -0.0024  0.2390
11701PAPE   D2A62013   9.457  21.145  17.457 -0.1114 -0.0916  0.1569
11701PAPE   D3A62014   9.120  20.861  17.618 -0.2955  0.2649 -0.1997
11701PAPE   D4A62015   8.783  21.228  17.584 -0.0601 -0.2862  0.3302
11701PAPE   C5A62016   8.555  21.187  17.867  0.2664  0.0812  0.0596
11701PAPE   C1B62017   9.410  20.717  17.218  0.1348  0.0404 -0.2684
11701PAPE   C2B62018   9.407  20.464  17.541  0.1726  0.0064  0.2534
11701PAPE   C3B62019   9.378  20.115  17.845  0.2115 -0.1908  0.1812
11701PAPE   C4B62020   9.321  19.683  17.976 -0.0406 -0.0763  0.1278
11702PAPE   NH362021   4.797   0.807  12.947  0.4145  0.0348  0.0750
11702PAPE   PO462022   4.679   0.398  12.839  0.2817  0.0937 -0.0596
11702PAPE   GL162023   4.322   0.462  13.086 -0.3560  0.1969  0.0864
11702PAPE   GL262024   4.270   0.316  13.325  0.0442  0.1722  0.1612
11702PAPE   D1A62025   3.899   0.599  13.080  0.0193 -0.0866  0.0413
11702PAPE   D2A62026   3.807   0.354  12.796  0.1566 -0.1066 -0.4558
11702PAPE   D3A62027   3.758   0.099  13.222  0.0097  0.0745 -0.1577
11702PAPE   D4A62028   3.542  35.363  13.577 -0.0749 -0.2475  0.0771
11702PAPE   C5A62029   3.616  35.143  13.946 -0.3390  0.1341 -0.3385
11702PAPE   C1B62030   3.967   0.629  13.552 -0.2596 -0.1976  0.0336
11702PAPE   C2B62031   3.599   0.700  13.910  0.0681 -0.1944  0.0438
11702PAPE   C3B62032   3.554   0.843  14.371 -0.1191 -0.2413 -0.1386
11702PAPE   C4B62033   3.685   0.974  14.757  0.1359 -0.1597  0.0551
11703PAPE   NH362034  28.715   6.616   3.595  0.0274  0.1260  0.1758
11703PAPE   PO462035  29.029   6.355   3.420 -0.0565 -0.0048  0.4626
11703PAPE   GL162036  29.268   6.416   3.696  0.0269  0.0836 -0.0845
11703PAPE   GL262037  29.001   6.338   3.959 -0.0626 -0.0229  0.1515
11703PAPE   D1A62038  29.718   6.499   3.851 -0.1044 -0.2466 -0.2363
11703PAPE   D2A62039  29.611   6.684   3.473 -0.0455 -0.0788 -0.1207
11703PAPE   D3A62040  29.807   7.080   3.563 -0.0684  0.2560  0.1033
11703PAPE   D4A62041  29.447   7.053   3.755 -0.1147  0.0460  0.1176
11703PAPE   C5A62042  29.236   7.264   4.088 -0.2847 -0.3065 -0.1789
11703PAPE   C1B62043  28.730   6.505   4.306 -0.1404  0.1314  0.0613
11703PAPE   C2B62044  28.967   6.682   4.668  0.0897  0.1673  0.2964
11703PAPE   C3B62045  29.245   6.561   5.044  0.0086 -0.4662  0.0462
11703PAPE   C4B62046  29.504   6.780   5.362 -0.1775  0.1910  0.0640
11704PAPE   NH362047  22.543   8.729   6.352  0.0428 -0.0086  0.0002
11704PAPE   PO462048  22.129   8.645   6.623  0.2087 -0.2566  0.1066
11704PAPE   GL162049  22.426   8.722   6.862  0.2134 -0.0797 -0.0720
11704PAPE   GL262050  22.351   8.739   7.077  0.1231  0.2173  0.1567
11704PAPE   D1A62051  22.820   8.999   6.719  0.2523  0.0467 -0.0826
11704PAPE   D2A62052  22.951   8.504   6.858  0.1124  0.2583  0.4454
11704PAPE   D3A62053  23.116   8.375   7.312 -0.2726 -0.1613 -0.3278
11704PAPE   D4A62054  23.432   8.631   7.340 -0.0307 -0.4407  0.0779
11704PAPE   C5A62055  23.890   8.691   7.226 -0.3766  0.2367  0.0829
11704PAPE   C1B62056  22.847   8.806   7.194 -0.0478  0.1237  0.3383
11704PAPE   C2B62057  23.210   9.087   7.181  0.1664 -0.0159  0.3937
11704PAPE   C3B62058  23.679   9.128   7.307  0.0350  0.1562 -0.0998
11704PAPE   C4B62059  23.952   9.490   7.345  0.3352  0.0026  0.0964
11705PAPE   NH362060  22.166   7.130   8.175 -0.1086 -0.0750  0.0890
11705PAPE   PO462061  22.010   7.504   8.282 -0.2115  0.1612 -0.1513
11705PAPE   GL162062  22.334   7.712   8.130 -0.0411 -0.2632  0.2680
11705PAPE   GL262063  22.549   7.530   7.932 -0.0462 -0.1820  0.0695
11705PAPE   D1A62064  22.745   7.906   8.195  0.3255 -0.3914 -0.2656
11705PAPE   D2A62065  22.568   8.123   7.849 -0.0357  0.2374 -0.2220
11705PAPE   D3A62066  22.988   8.088   7.818  0.2427 -0.2530  0.1287
11705PAPE   D4A62067  23.224   8.000   8.216  0.1003  0.0594 -0.2275
11705PAPE   C5A62068  23.579   8.307   8.265 -0.0584  0.0916  0.0758
11705PAPE   C1B62069  23.063   7.557   7.920  0.2665 -0.2491 -0.2163
11705PAPE   C2B62070  23.548   7.670   8.046 -0.2461 -0.0061 -0.1289
11705PAPE   C3B62071  23.932   7.946   7.970 -0.0511 -0.1740 -0.0736
11705PAPE   C4B62072  24.121   8.242   7.850 -0.1074  0.0706 -0.1966
11706PAPE   NH362073  21.518  26.294   6.567 -0.1249  0.4552  0.0248
11706PAPE   PO462074  21.479  26.415   6.979 -0.0409 -0.1932  0.1991
11706PAPE   GL162075  21.872  26.468   7.132 -0.1503 -0.2481  0.3437
11706PAPE   GL262076  21.921  26.202   7.409 -0.3180 -0.3545  0.2565
11706PAPE   D1A62077  22.310  26.441   7.147  0.1909 -0.0127  0.0025
11706PAPE   D2A62078  22.593  26.133   6.890  0.1016 -0.1784  0.2259
11706PAPE   D3A62079  22.884  26.402   6.668  0.2047  0.1809 -0.0384
11706PAPE   D4A62080  23.150  26.125   6.770  0.0360  0.0710  0.3581
11706PAPE   C5A62081  23.471  25.962   6.769 -0.0411 -0.0096  0.1410
11706PAPE   C1B62082  21.935  25.874   7.485  0.0782  0.0122 -0.1394
11706PAPE   C2B62083  22.269  25.631   7.663  0.0173 -0.2843 -0.1361
11706PAPE   C3B62084  22.631  25.320   7.650 -0.0158 -0.1581  0.1840
11706PAPE   C4B62085  22.990  25.315   7.798  0.1772 -0.2020  0.0423
11707PAPE   NH362086  32.643   4.013   5.911  0.0254  0.0661 -0.3193
11707PAPE   PO462087  32.518   3.794   6.342  0.0983  0.0612  0.0678
11707PAPE   GL162088  32.299   3.977   6.716 -0.0982  0.0183 -0.0896
11707PAPE   GL262089  32.145   4.297   6.710  0.1605 -0.0232  0.1670
11707PAPE   D1A62090  32.296   4.037   7.195  0.1777 -0.0864  0.4500
11707PAPE   D2A62091  32.289   3.701   7.439  0.0122 -0.1274  0.2231
11707PAPE   D3A62092  31.986   3.616   7.214 -0.3990 -0.1325  0.2053
11707PAPE   D4A62093  31.833   3.520   7.571  0.0185 -0.4448 -0.0403
11707PAPE   C5A62094  31.529   3.505   7.653  0.2212  0.0895  0.0766
11707PAPE   C1B62095  31.963   4.404   7.161 -0.2358  0.1150  0.1637
11707PAPE   C2B62096  31.768   4.729   7.397 -0.4205 -0.2265 -0.1816
11707PAPE   C3B62097  31.765   4.707   7.769 -0.2154 -0.1030  0.1230
11707PAPE   C4B62098  31.778   4.593   8.098  0.0836  0.1356  0.0851
11708DGPE   NH362099   5.013  20.700   6.809  0.1197  0.2404  0.1682
11708DGPE   PO462100   4.843  21.064   6.680 -0.1396  0.0814 -0.1480
11708DGPE   GL162101   4.566  21.012   6.922  0.1147 -0.0080  0.0519
11708DGPE   GL262102   4.538  20.866   7.087  0.2742 -0.2512 -0.1369
11708DGPE   C1A62103   4.060  20.962   6.996  0.2824 -0.1302 -0.1143
11708DGPE   C2A62104   3.828  20.892   7.349 -0.2270  0.0343  0.0676
11708DGPE   D3A62105   3.583  20.776   7.706 -0.0259 -0.1094 -0.0516
11708DGPE   C4A62106   3.275  21.113   7.731 -0.3604  0.4319  0.1917
11708DGPE   C5A62107   3.133  21.447   7.928  0.2061 -0.0987 -0.0045
11708DGPE   C1B62108   4.326  20.782   7.416 -0.1674 -0.2344 -0.0063
11708DGPE   C2B62109   4.054  20.804   7.791  0.0828  0.3677 -0.1950
11708DGPE   D3B62110   3.899  20.865   8.088 -0.1411 -0.0329  0.0560
11708DGPE   C4B62111   3.438  20.923   8.167 -0.1291  0.2012  0.0166
11708DGPE   C5B62112   3.006  21.079   8.249 -0.0945  0.2842  0.1922
11709DGPE   NH362113   3.238  31.271  12.820 -0.2049  0.3386 -0.2233
11709DGPE   PO462114   2.905  31.447  12.603 -0.0380  0.0643  0.2033
11709DGPE   GL162115   2.728  31.319  13.017 -0.1580  0.1614 -0.2107
11709DGPE   GL262116   2.836  31.043  12.992  0.0771  0.0792  0.2879
11709DGPE   C1A62117   2.540  31.341  13.322 -0.0255 -0.0722  0.1326
11709DGPE   C2A62118   2.329  31.394  13.691  0.0251 -0.0473 -0.0178
11709DGPE   D3A62119   2.396  31.696  14.081 -0.1874  0.0713 -0.4489
11709DGPE   C4A62120   2.419  31.747  14.482 -0.1989  0.2855  0.0866
11709DGPE   C5A62121   2.298  31.658  14.909  0.0425 -0.2473  0.0777
11709DGPE   C1B62122   2.395  30.964  13.073  0.0056 -0.0167 -0.1000
11709DGPE   C2B62123   2.155  30.968  13.377  0.0651  0.4034 -0.0260
11709DGPE   D3B62124   1.900  31.213  13.610 -0.1319  0.1822  0.1152
11709DGPE   C4B62125   2.028  31.286  14.032 -0.0570 -0.0713 -0.3194
11709DGPE   C5B62126   1.927  31.468  14.384 -0.1369 -0.3392  0.0138
11710DGPE   NH362127  19.648  18.399   9.960 -0.0972  0.1570 -0.0919
11710DGPE   PO462128  19.904  18.667   9.715  0.3468 -0.2231 -0.0041
11710DGPE   GL162129  20.252  18.430   9.564 -0.0259 -0.0695  0.0248
11710DGPE   GL262130  20.300  18.363   9.824 -0.0731  0.0331  0.0501
11710DGPE   C1A62131  20.744  18.377   9.629  0.1304  0.2352  0.0771
11710DGPE   C2A62132  21.077  18.445   9.912 -0.1076 -0.0433 -0.1421
11710DGPE   D3A62133  21.451  18.334  10.058 -0.0325  0.0167 -0.0075
11710DGPE   C4A62134  21.829  18.331   9.719  0.0220 -0.0398  0.1831
11710DGPE   C5A62135  21.963  18.028   9.487 -0.2083 -0.2758  0.0624
11710DGPE   C1B62136  20.600  18.341  10.200 -0.0297  0.0203 -0.3964
11710DGPE   C2B62137  20.987  18.350  10.478 -0.1153 -0.2635 -0.2101
11710DGPE   D3B62138  21.456  18.534  10.501  0.0857 -0.1717 -0.1900
11710DGPE   C4B62139  21.685  18.350  10.525  0.2519 -0.0739 -0.1368
11710DGPE   C5B62140  22.226  18.261  10.607  0.1638 -0.1967 -0.0873
11711DGPE   NH362141  12.410  23.419  18.044  0.0172 -0.2508 -0.0098
11711DGPE   PO462142  12.414  23.807  17.832  0.3403  0.2466  0.0074
11711DGPE   GL162143  12.528  23.874  18.280 -0.3360 -0.0691  0.1530
11711DGPE   GL262144  12.729  23.976  18.343 -0.0341  0.0389 -0.2353
11711DGPE   C1A62145  12.344  23.882  18.720 -0.0143 -0.1978  0.2355
11711DGPE   C2A62146  12.446  23.852  19.154 -0.0034  0.0133  0.2834
11711DGPE   D3A62147  12.471  23.693  19.516 -0.3149  0.2143  0.1275
11711DGPE   C4A62148  12.687  23.887  19.864 -0.0394  0.1063 -0.2036
11711DGPE   C5A62149  13.059  24.022  20.127 -0.2544 -0.0471  0.1129
11711DGPE   C1B62150  12.845  23.936  18.778 -0.3215 -0.2897 -0.0824
11711DGPE   C2B62151  12.949  23.838  19.270  0.2760 -0.2546  0.2492
11711DGPE   D3B62152  13.117  23.771  19.661  0.0917 -0.2767  0.3688
11711DGPE   C4B62153  13.363  23.523  19.927  0.0473 -0.2205  0.2956
11711DGPE   C5B62154  13.655  23.177  20.062  0.0726 -0.2165 -0.1783
11712DGPE   NH362155  21.093   9.815   9.747  0.4685  0.0292 -0.0240
11712DGPE   PO462156  21.027  10.232   9.601 -0.0252 -0.1204  0.0231
11712DGPE   GL162157  21.400  10.169   9.882  0.2870  0.1217 -0.1547
11712DGPE   GL262158  21.539   9.839   9.890 -0.2628  0.1747 -0.1006
11712DGPE   C1A62159  21.563  10.359  10.169 -0.3992 -0.0908  0.0045
11712DGPE   C2A62160  21.901  10.390  10.361 -0.0629 -0.3168 -0.0026
11712DGPE   D3A62161  22.192  10.504  10.695  0.2112 -0.0180 -0.1121
11712DGPE   C4A62162  22.585  10.629  10.508 -0.0680  0.1229 -0.0030
11712DGPE   C5A62163  22.868  10.770  10.243 -0.2214  0.0914 -0.1186
11712DGPE   C1B62164  21.916  10.042   9.977 -0.2358  0.0649  0.0495
11712DGPE   C2B62165  22.345   9.869  10.041  0.1130 -0.1103  0.2365
11712DGPE   D3B62166  22.800   9.836  10.104 -0.0928 -0.2433  0.0601
11712DGPE   C4B62167  22.979  10.180  10.259 -0.1072 -0.0715 -0.1986
11712DGPE   C5B62168  23.382  10.374  10.364  0.1532  0.0436 -0.1921
11713DGPE   NH362169   7.537  21.209  12.683  0.1165  0.1686  0.1336
11713DGPE   PO462170   7.532  21.221  13.114 -0.5367 -0.1419  0.1563
11713DGPE   GL162171   7.187  21.261  13.347 -0.3045  0.2550  0.0488
11713DGPE   GL262172   7.002  21.005  13.340  0.0706 -0.1215  0.1151
11713DGPE   C1A62173   6.856  21.447  13.513  0.2744  0.0394 -0.2566
11713DGPE   C2A62174   6.482  21.460  13.705  0.1681 -0.2482 -0.1630
11713DGPE   D3A62175   6.249  21.495  14.206 -0.0645  0.3238  0.0625
11713DGPE   C4A62176   5.960  21.757  14.390 -0.0681 -0.3487  0.2814
11713DGPE   C5A62177   5.543  21.911  14.234 -0.0827  0.0971 -0.1161
11713DGPE   C1B62178   6.532  20.985  13.421 -0.0648 -0.2971  0.0990
11713DGPE   C2B62179   6.177  20.763  13.496  0.0538  0.0260 -0.1768
11713DGPE   D3B62180   5.714  20.644  13.328  0.1292  0.2293 -0.2551
11713DGPE   C4B62181   5.412  21.024  13.456  0.2888 -0.0455  0.0421
11713DGPE   C5B62182   5.030  21.125  13.661 -0.1466 -0.1112 -0.0582
11714DGPE   NH362183  34.143   6.018   6.222  0.1594 -0.2658 -0.1995
11714DGPE   PO462184  33.738   5.892   6.088  0.0235 -0.2610  0.0782
11714DGPE   GL162185  33.635   6.147   6.550 -0.1192 -0.2901 -0.0617
11714DGPE   GL262186  33.929   6.204   6.672 -0.0283  0.0926  0.1949
11714DGPE   C1A62187  33.453   6.311   6.882 -0.0190  0.0084 -0.1211
11714DGPE   C2A62188  33.135   6.353   7.148 -0.2326 -0.1719 -0.1459
11714DGPE   D3A62189  33.016   6.222   7.526  0.1055  0.4581  0.0529
11714DGPE   C4A62190  32.746   6.303   7.825  0.0229 -0.5097 -0.1597
11714DGPE   C5A62191  32.411   6.677   7.867 -0.0964  0.3272 -0.0236
11714DGPE   C1B62192  33.908   6.528   6.892  0.2374  0.4143 -0.1622
11714DGPE   C2B62193  33.627   6.563   7.242 -0.2683 -0.1814 -0.0855
11714DGPE   D3B62194  33.265   6.747   7.434  0.2295 -0.0341 -0.1282
11714DGPE   C4B62195  33.190   6.592   7.875  0.1842  0.0278  0.0317
11714DGPE   C5B62196  32.993   6.786   8.193  0.0476  0.0956 -0.0559
11715DGPE   NH362197  21.061   9.185   9.524 -0.1270 -0.0086 -0.2926
11715DGPE   PO462198  21.331   8.930   9.257 -0.1835  0.0708  0.1028
11715DGPE   GL162199  21.764   8.974   9.470  0.0921 -0.4343  0.0755
11715DGPE   GL262200  21.864   9.052   9.223 -0.2863 -0.0080  0.3651
11715DGPE   C1A62201  22.163   9.055   9.664  0.0109 -0.1411 -0.0905
11715DGPE   C2A62202  22.335   9.336   9.892 -0.0298 -0.1274  0.1900
11715DGPE   D3A62203  22.682   9.361  10.042 -0.0150 -0.0566  0.2208
11715DGPE   C4A62204  22.900   9.381  10.466  0.1427  0.0078 -0.1974
11715DGPE   C5A62205  23.162   9.315  10.692 -0.0765  0.0944  0.1100
11715DGPE   C1B62206  22.250   9.080   9.180 -0.2680  0.1997  0.2131
11715DGPE   C2B62207  22.582   9.074   9.458  0.1096  0.1980 -0.1822
11715DGPE   D3B62208  23.047   9.212   9.673  0.0626 -0.1916  0.1270
11715DGPE   C4B62209  23.357   9.384   9.390 -0.0978  0.2344 -0.3710
11715DGPE   C5B62210  23.560   9.567   9.109  0.0787  0.1982 -0.2653
11716DGPE   NH362211  33.403  11.560   1.356  0.1671 -0.4871 -0.1520
11716DGPE   PO462212  33.245  11.881   1.247  0.0973  0.0421  0.0125
11716DGPE   GL162213  33.021  12.075   1.592  0.1045  0.3319  0.1000
11716DGPE   GL262214  33.163  12.386   1.783 -0.1172 -0.1424  0.0567
11716DGPE   C1A62215  32.513  12.217   1.594 -0.4176 -0.0035 -0.0201
11716DGPE   C2A62216  32.044  12.053   1.725  0.0760  0.0700 -0.2194
11716DGPE   D3A62217  31.834  11.744   1.985 -0.2962  0.2395  0.3351
11716DGPE   C4A62218  31.450  12.061   2.113  0.0858  0.1515  0.1591
11716DGPE   C5A62219  31.202  12.141   2.481  0.2517  0.1135 -0.0408
11716DGPE   C1B62220  32.858  12.340   2.066  0.1472 -0.3338  0.0847
11716DGPE   C2B62221  32.642  12.562   2.344 -0.1726 -0.1908 -0.1059
11716DGPE   D3B62222  32.354  12.804   2.515 -0.2997  0.0018 -0.3988
11716DGPE   C4B62223  32.024  12.706   2.743  0.2522  0.2140  0.2389
11716DGPE   C5B62224  32.082  12.517   3.042  0.0636 -0.1781 -0.1180
11717DGPE   NH362225  19.682  12.347  10.066 -0.1360  0.1118  0.4104
11717DGPE   PO462226  19.606  12.669  10.262  0.0078 -0.2264  0.0595
11717DGPE   GL162227  19.978  12.572  10.416  0.1508 -0.1745 -0.1759
11717DGPE   GL262228  20.191  12.577  10.287 -0.0795 -0.1173  0.3497
11717DGPE   C1A62229  20.226  12.668  10.785  0.2115 -0.0372 -0.0439
11717DGPE   C2A62230  20.526  12.779  11.204 -0.2153  0.4327 -0.1935
11717DGPE   D3A62231  20.654  12.878  11.592  0.0146  0.0451 -0.0886
11717DGPE   C4A62232  20.719  12.994  11.999  0.3674 -0.0177  0.1082
11717DGPE   C5A62233  20.635  13.330  12.229  0.3815  0.1199 -0.0801
11717DGPE   C1B62234  20.570  12.450  10.471  0.2210 -0.2769  0.2666
11717DGPE   C2B62235  20.955  12.524  10.747  0.1872 -0.0017  0.2494
11717DGPE   D3B62236  21.308  12.645  10.779  0.0115  0.0343 -0.1862
11717DGPE   C4B62237  21.517  12.909  11.027 -0.0092  0.1216 -0.0402
11717DGPE   C5B62238  21.881  13.119  11.088  0.2362  0.0950 -0.0456
11718DGPE   NH362239   6.755  13.930  12.395  0.3138  0.0628 -0.2821
11718DGPE   PO462240   7.188  13.904  12.564 -0.2520 -0.0843  0.4058
11718DGPE   GL162241   6.914  14.108  12.971 -0.0943 -0.0129  0.1464
11718DGPE   GL262242   6.682  14.244  12.830 -0.1005 -0.0235 -0.0639
11718DGPE   C1A62243   6.848  14.030  13.363 -0.1756 -0.0110 -0.0520
11718DGPE   C2A62244   6.528  14.005  13.648 -0.1978  0.3067  0.1362
11718DGPE   D3A62245   6.244  14.187  13.900 -0.3463  0.1694 -0.3579
11718DGPE   C4A62246   6.069  14.394  14.280  0.0093  0.3464 -0.0641
11718DGPE   C5A62247   5.795  14.191  14.631 -0.1895  0.0974 -0.2013
11718DGPE   C1B62248   6.430  14.116  13.070 -0.2269 -0.3304 -0.0601
11718DGPE   C2B62249   6.126  14.189  13.286 -0.3338  0.0991 -0.0597
11718DGPE   D3B62250   5.862  13.998  13.595 -0.4268 -0.0001 -0.1375
11718DGPE   C4B62251   5.564  14.249  13.508 -0.2453  0.0137 -0.2391
11718DGPE   C5B62252   5.470  14.589  13.574 -0.0026 -0.0675  0.2236
11719DGPE   NH362253  27.744  24.363   1.564  0.0356 -0.0635  0.0448
11719DGPE   PO462254  27.805  23.909   1.404 -0.0069 -0.2833 -0.2699
11719DGPE   GL162255  28.060  24.051   1.750 -0.0112  0.1321  0.2436
11719DGPE   GL262256  28.150  24.324   1.864  0.0102 -0.2352  0.2750
11719DGPE   C1A62257  28.038  23.959   2.156 -0.3318 -0.1044 -0.2876
11719DGPE   C2A62258  28.189  23.735   2.459 -0.2127 -0.1164  0.0596
11719DGPE   D3A62259  28.577  23.539   2.513 -0.2128  0.2205 -0.0365
11719DGPE   C4A62260  28.761  23.126   2.643 -0.3318  0.3905  0.0663
11719DGPE   C5A62261  29.170  22.996   2.801 -0.0193 -0.0734  0.1737
11719DGPE   C1B62262  28.216  24.369   2.324 -0.2262  0.0235 -0.0131
11719DGPE   C2B62263  28.051  24.149   2.617  0.0674 -0.1117 -0.4898
11719DGPE   D3B62264  27.779  23.856   2.798  0.0526  0.3394  0.2513
11719DGPE   C4B62265  28.042  23.458   2.842  0.1276  0.3569  0.0378
11719DGPE   C5B62266  28.443  23.349   2.988  0.2892 -0.4155  0.0687
11720DGPE   NH362267  16.621  21.346  14.575  0.0235 -0.0828  0.0020
11720DGPE   PO462268  16.887  20.948  14.495  0.0002  0.2380  0.1655
11720DGPE   GL162269  16.922  20.687  14.766 -0.3345  0.2645  0.4331
11720DGPE   GL262270  16.724  20.583  15.126 -0.2222  0.2411 -0.1658
11720DGPE   C1A62271  17.212  20.460  15.087  0.1566 -0.1349  0.0917
11720DGPE   C2A62272  17.573  20.414  15.233 -0.1128  0.2081 -0.2642
11720DGPE   D3A62273  17.727  20.402  15.671 -0.3713 -0.0566  0.1199
11720DGPE   C4A62274  17.691  20.535  16.102 -0.2202 -0.3047  0.3094
11720DGPE   C5A62275  17.444  20.749  16.443  0.1294 -0.3058 -0.0211
11720DGPE   C1B62276  16.896  20.607  15.458  0.1456  0.0831  0.0659
11720DGPE   C2B62277  17.255  20.437  15.686 -0.0360 -0.2691  0.1936
11720DGPE   D3B62278  17.247  20.247  16.092 -0.1424 -0.1752 -0.1576
11720DGPE   C4B62279  17.460  20.267  16.580 -0.1031 -0.1664 -0.0628
11720DGPE   C5B62280  17.345  20.415  16.938 -0.1519  0.0840  0.2524
11721DGPE   NH362281  17.747  32.998  10.356 -0.0154  0.2506 -0.2530
11721DGPE   PO462282  17.791  33.463  10.225 -0.1361 -0.4837  0.0524
11721DGPE   GL162283  17.861  33.366  10.686  0.2820  0.0289  0.4694
11721DGPE   GL262284  17.578  33.497  10.973  0.0485 -0.3332  0.1784
11721DGPE   C1A62285  18.141  33.512  11.024 -0.0521  0.4550  0.0347
11721DGPE   C2A62286  18.466  33.602  11.237  0.1135  0.0186  0.2306
11721DGPE   D3A62287  18.832  33.712  11.559 -0.2293 -0.0061  0.0612
11721DGPE   C4A62288  18.691  34.026  11.863  0.1826 -0.3578 -0.1149
11721DGPE   C5A62289  18.705  34.574  11.877  0.2291  0.1913  0.2168
11721DGPE   C1B62290  17.545  33.707  11.262 -0.2594 -0.1393  0.0346
11721DGPE   C2B62291  17.517  34.260  11.414 -0.1971 -0.0973  0.1741
11721DGPE   D3B62292  17.856  34.443  11.718  0.1263 -0.5743  0.0173
11721DGPE   C4B62293  17.823  34.583  12.176  0.1577  0.0081  0.1756
11721DGPE   C5B62294  17.529  34.800  12.296 -0.1479  0.0451 -0.2941
11722DGPE   NH362295   9.459  30.863  16.769 -0.0680 -0.1004  0.0253
11722DGPE   PO462296   9.885  30.772  16.787  0.0405 -0.1811  0.0992
11722DGPE   GL162297   9.706  30.875  17.310 -0.2661  0.0242 -0.4074
11722DGPE   GL262298   9.377  30.867  17.353 -0.0998  0.2036  0.2064
11722DGPE   C1A62299   9.735  30.919  17.724  0.1745  0.1084  0.0411
11722DGPE   C2A62300   9.679  30.953  18.080 -0.0254  0.4767 -0.0341
11722DGPE   D3A62301   9.708  31.030  18.555  0.0608  0.1830 -0.1725
11722DGPE   C4A62302   9.308  31.210  18.651 -0.4153  0.0654  0.1575
11722DGPE   C5A62303   9.068  31.626  18.734  0.0191 -0.1145 -0.2730
11722DGPE   C1B62304   9.223  30.941  17.710 -0.1022  0.1530  0.2070
11722DGPE   C2B62305   9.091  31.105  18.116  0.2082 -0.0261 -0.1096
11722DGPE   D3B62306   8.863  31.316  18.398  0.1674  0.2079 -0.1524
11722DGPE   C4B62307   8.564  31.631  18.514  0.2152  0.0974 -0.0526
11722DGPE   C5B62308   8.204  31.484  18.789 -0.3115 -0.0571  0.0867
11723DGPE   NH362309  21.506   9.250   8.831 -0.0102 -0.0400  0.0959
11723DGPE   PO462310  21.579   8.899   8.480 -0.2351 -0.2017 -0.2987
11723DGPE   GL162311  21.937   8.916   8.462  0.0525 -0.0648 -0.0551
11723DGPE   GL262312  22.144   9.101   8.323  0.2953  0.1252  0.1504
11723DGPE   C1A62313  22.160   8.772   8.806 -0.2587  0.1195  0.0146
11723DGPE   C2A62314  22.565   8.801   8.931 -0.1677 -0.0201  0.1057
11723DGPE   D3A62315  22.980   8.974   9.121  0.0851 -0.2162 -0.2171
11723DGPE   C4A62316  23.366   8.752   8.980 -0.1439  0.2314 -0.0774
11723DGPE   C5A62317  23.606   8.334   8.954 -0.3654  0.5179  0.0255
11723DGPE   C1B62318  22.506   8.997   8.495  0.4888  0.1177 -0.0518
11723DGPE   C2B62319  22.941   8.978   8.623  0.2095  0.2730 -0.0632
11723DGPE   D3B62320  23.308   9.266   8.885  0.4125 -0.2123  0.1015
11723DGPE   C4B62321  23.588   9.369   8.608 -0.2936 -0.1223 -0.0988
11723DGPE   C5B62322  23.702   9.069   8.309 -0.1505  0.0916  0.2126
11724DGPE   NH362323  19.123   3.501  11.005  0.0627 -0.0601 -0.4338
11724DGPE   PO462324  18.645   3.486  10.995 -0.0955  0.2832  0.2413
11724DGPE   GL162325  18.632   3.329  11.380 -0.2363 -0.0846 -0.5532
11724DGPE   GL262326  18.716   3.547  11.492  0.2004  0.4696 -0.1239
11724DGPE   C1A62327  18.777   3.141  11.724  0.0774  0.2247  0.1245
11724DGPE   C2A62328  19.016   2.973  11.909 -0.1725 -0.2202 -0.2480
11724DGPE   D3A62329  19.160   2.655  12.165 -0.2620 -0.1589  0.0336
11724DGPE   C4A62330  19.137   2.638  12.645 -0.2459 -0.1951  0.2273
11724DGPE   C5A62331  19.048   2.430  12.928 -0.4721 -0.0171 -0.1413
11724DGPE   C1B62332  19.144   3.518  11.716  0.0243 -0.0621  0.0058
11724DGPE   C2B62333  19.176   3.433  12.097 -0.0988  0.1032  0.3371
11724DGPE   D3B62334  19.138   3.140  12.376 -0.2760  0.0473  0.2227
11724DGPE   C4B62335  19.027   3.085  12.820  0.2812 -0.6288 -0.0711
11724DGPE   C5B62336  18.695   2.965  12.889  0.3263 -0.1013 -0.0875
11725DGPE   NH362337   8.221  14.759  13.110 -0.1807  0.1855 -0.0249
11725DGPE   PO462338   8.381  15.082  13.059 -0.1596 -0.2325 -0.0996
11725DGPE   GL162339   8.127  15.045  13.522 -0.2333  0.2113 -0.0772
11725DGPE   GL262340   8.120  14.713  13.683  0.0272  0.1438 -0.2549
11725DGPE   C1A62341   7.847  15.109  13.876 -0.0311 -0.1229 -0.0438
11725DGPE   C2A62342   7.621  15.141  14.341  0.0640 -0.0966 -0.4274
11725DGPE   D3A62343   7.369  15.290  14.787 -0.1844  0.0753  0.0440
11725DGPE   C4A62344   7.225  15.581  14.988 -0.1761 -0.0056 -0.1475
11725DGPE   C5A62345   6.797  15.768  14.826  0.3292 -0.1427 -0.0459
11725DGPE   C1B62346   8.211  14.893  14.072 -0.0435  0.2354 -0.0965
11725DGPE   C2B62347   8.111  14.846  14.455  0.2026 -0.0415 -0.1297
11725DGPE   D3B62348   7.783  14.842  14.770 -0.2518  0.0908 -0.1398
11725DGPE   C4B62349   7.916  14.661  15.142 -0.2844  0.4268  0.1132
11725DGPE   C5B62350   8.014  14.206  15.307  0.0425 -0.2647 -0.0009
11726DGPE   NH362351   9.953  25.171  17.652  0.0338  0.1469  0.3136
11726DGPE   PO462352   9.547  25.151  17.551 -0.2868  0.0443 -0.2500
11726DGPE   GL162353   9.489  24.940  17.933 -0.0372 -0.0138  0.1621
11726DGPE   GL262354   9.747  25.000  18.096  0.0875  0.0555 -0.3623
11726DGPE   C1A62355   9.419  24.760  18.320  0.0300 -0.2269 -0.4378
11726DGPE   C2A62356   9.512  24.791  18.679 -0.0714  0.2098 -0.1584
11726DGPE   D3A62357   9.448  25.013  19.083  0.3533 -0.2458 -0.1777
11726DGPE   C4A62358   9.804  25.109  19.340 -0.3682  0.0554  0.0625
11726DGPE   C5A62359   9.996  25.526  19.332 -0.1106  0.2163  0.1142
11726DGPE   C1B62360   9.908  25.083  18.490 -0.0427  0.1343  0.0852
11726DGPE   C2B62361  10.012  25.090  18.900  0.1874 -0.2804  0.1174
11726DGPE   D3B62362  10.226  24.915  19.211  0.0056  0.0232 -0.1265
11726DGPE   C4B62363  10.106  24.712  19.495 -0.0566 -0.1152  0.1484
11726DGPE   C5B62364  10.250  24.805  19.889 -0.1577 -0.2675 -0.1783
11727DGPE   NH362365   2.118   5.321   8.023 -0.0421 -0.1397  0.0051
11727DGPE   PO462366   2.470   5.650   8.091 -0.0574 -0.0669 -0.1742
11727DGPE   GL162367   2.061   5.753   8.212 -0.3441  0.2834  0.2447
11727DGPE   GL262368   2.050   6.040   8.087  0.0989  0.0400 -0.2255
11727DGPE   C1A62369   1.718   5.794   8.536 -0.2023  0.1848  0.0993
11727DGPE   C2A62370   1.484   5.790   8.897  0.0496 -0.1128 -0.2765
11727DGPE   D3A62371   1.412   5.834   9.321  0.0820  0.3803 -0.0566
11727DGPE   C4A62372   1.162   6.166   9.503  0.0644 -0.1764  0.1004
11727DGPE   C5A62373   0.960   6.606   9.483 -0.1406 -0.0244 -0.0718
11727DGPE   C1B62374   1.789   6.249   8.389 -0.0638 -0.1204  0.1453
11727DGPE   C2B62375   1.360   6.198   8.611 -0.2353 -0.1736  0.4813
11727DGPE   D3B62376   1.128   6.188   8.930  0.2087  0.2909 -0.0915
11727DGPE   C4B62377   0.762   6.277   9.099 -0.3220 -0.0228 -0.0628
11727DGPE   C5B62378   0.489   6.326   9.452  0.0896  0.0647  0.1293
11728DGPE   NH362379   9.701  29.466  17.066  0.1681 -0.1672 -0.0297
11728DGPE   PO462380   9.638  29.876  17.083 -0.2827 -0.1113  0.0720
11728DGPE   GL162381   9.371  29.852  17.482  0.0822 -0.1262 -0.1294
11728DGPE   GL262382   9.285  29.623  17.350  0.0327  0.1132  0.5729
11728DGPE   C1A62383   9.206  29.837  17.884  0.2580 -0.0971  0.2241
11728DGPE   C2A62384   9.076  29.750  18.251 -0.0184  0.0258 -0.0781
11728DGPE   D3A62385   8.856  29.766  18.656  0.3029  0.0816  0.0163
11728DGPE   C4A62386   8.506  29.922  18.757  0.0457  0.0513  0.1205
11728DGPE   C5A62387   8.093  29.740  18.821  0.0575  0.1563  0.2802
11728DGPE   C1B62388   9.109  29.403  17.582  0.0845 -0.1859  0.0657
11728DGPE   C2B62389   8.985  29.308  18.029 -0.0623  0.1286  0.2676
11728DGPE   D3B62390   8.950  29.296  18.508  0.0149  0.1567  0.0884
11728DGPE   C4B62391   9.248  29.073  18.730  0.3302  0.0947 -0.0256
11728DGPE   C5B62392   9.578  28.941  18.650  0.0883  0.1878  0.0718
11729DGPE   NH362393  13.841  10.939  14.503  0.0153  0.1241 -0.0475
11729DGPE   PO462394  13.809  11.360  14.425  0.1173 -0.3822 -0.4011
11729DGPE   GL162395  13.660  11.168  14.908 -0.1131 -0.1103 -0.0411
11729DGPE   GL262396  13.714  10.829  14.999  0.4935 -0.3304  0.2842
11729DGPE   C1A62397  13.515  11.157  15.283  0.2535  0.2729  0.0377
11729DGPE   C2A62398  13.461  10.890  15.692  0.0791 -0.0163 -0.1245
11729DGPE   D3A62399  13.492  10.671  16.125  0.0754  0.2325  0.2454
11729DGPE   C4A62400  13.821  10.422  16.373 -0.0956 -0.0142  0.0814
11729DGPE   C5A62401  14.162  10.166  16.457  0.0323  0.1125 -0.0021
11729DGPE   C1B62402  13.630  10.679  15.271  0.0755 -0.3452  0.1848
11729DGPE   C2B62403  13.727  10.440  15.714 -0.0003 -0.0839 -0.0063
11729DGPE   D3B62404  14.054  10.551  15.953 -0.2053  0.0111  0.2568
11729DGPE   C4B62405  14.457  10.332  16.018 -0.1723 -0.3015 -0.3871
11729DGPE   C5B62406  14.647  10.077  16.397 -0.0292 -0.1104  0.0869
11730DGPE   NH362407  13.804  31.581  15.750 -0.1150 -0.0405 -0.0143
11730DGPE   PO462408  13.922  31.100  15.783 -0.0298  0.1167  0.0614
11730DGPE   GL162409  14.189  31.222  16.190  0.2398 -0.1489  0.3497
11730DGPE   GL262410  13.973  31.156  16.499 -0.0924  0.1630  0.0546
11730DGPE   C1A62411  14.485  31.318  16.333 -0.2494  0.1920 -0.2722
11730DGPE   C2A62412  14.745  31.321  16.652  0.1264 -0.2056  0.0196
11730DGPE   D3A62413  15.029  31.515  16.857  0.0454 -0.0219 -0.2783
11730DGPE   C4A62414  15.020  31.827  17.233  0.1573 -0.0958  0.1424
11730DGPE   C5A62415  14.884  32.177  17.511 -0.1048  0.0941  0.2565
11730DGPE   C1B62416  14.256  31.190  16.815 -0.1173  0.1635 -0.1268
11730DGPE   C2B62417  14.510  31.153  17.209  0.1607 -0.1186 -0.1834
11730DGPE   D3B62418  14.802  31.305  17.298 -0.2631 -0.2257 -0.2023
11730DGPE   C4B62419  15.039  31.258  17.591 -0.1227 -0.0871 -0.2882
11730DGPE   C5B62420  15.408  31.385  17.950  0.2433  0.2680 -0.2935
11731DGPE   NH362421  14.190  29.498  15.584  0.1702  0.1563  0.0734
11731DGPE   PO462422  14.109  29.969  15.711 -0.2253  0.1354 -0.1018
11731DGPE   GL162423  14.315  30.362  15.914 -0.0456  0.0544 -0.0294
11731DGPE   GL262424  14.647  30.412  15.829 -0.1552  0.1315  0.1479
11731DGPE   C1A62425  14.609  30.303  16.266  0.2885 -0.1509  0.2622
11731DGPE   C2A62426  14.977  30.354  16.409 -0.0492 -0.0742 -0.1628
11731DGPE   D3A62427  15.238  30.256  16.682 -0.0134  0.0174 -0.1289
11731DGPE   C4A62428  15.448  30.587  16.648 -0.0639 -0.0884  0.1447
11731DGPE   C5A62429  15.777  30.689  16.517 -0.0412  0.0615  0.2882
11731DGPE   C1B62430  14.992  30.149  16.005 -0.0212 -0.0820  0.0566
11731DGPE   C2B62431  15.451  30.085  15.880  0.3788 -0.0971 -0.0449
11731DGPE   D3B62432  15.811  30.297  15.846  0.3128 -0.4264  0.1390
11731DGPE   C4B62433  16.019  30.564  16.085  0.0091 -0.2257 -0.0999
11731DGPE   C5B62434  15.578  30.904  16.069  0.0224  0.1171 -0.0296
11732DGPE   NH362435  35.337  28.496   7.565  0.0193 -0.2084  0.0634
11732DGPE   PO462436  35.079  28.683   7.216 -0.0815 -0.1338  0.3494
11732DGPE   GL162437  34.840  28.314   7.307 -0.0166 -0.0941 -0.0708
11732DGPE   GL262438  34.622  28.521   7.512  0.0228 -0.0527  0.0059
11732DGPE   C1A62439  34.809  27.996   7.586  0.1887 -0.1720  0.0129
11732DGPE   C2A62440  34.502  27.736   7.836 -0.2303  0.3553 -0.3667
11732DGPE   D3A62441  34.185  27.724   7.902 -0.1381 -0.2066  0.0589
11732DGPE   C4A62442  34.123  27.536   8.309 -0.1742  0.1272 -0.3030
11732DGPE   C5A62443  33.860  27.306   8.430  0.0954 -0.1840 -0.1001
11732DGPE   C1B62444  34.240  28.256   7.613 -0.1089  0.0253  0.0476
11732DGPE   C2B62445  33.913  28.107   7.904 -0.0958  0.1582  0.1460
11732DGPE   D3B62446  33.767  28.117   8.348 -0.1101 -0.0676  0.0897
11732DGPE   C4B62447  33.472  28.119   8.702  0.2050 -0.0843  0.1273
11732DGPE   C5B62448  33.616  28.376   9.055  0.0978 -0.0461 -0.1503
11733DGPE   NH362449   2.545  25.587   6.705 -0.0930  0.0772 -0.1009
11733DGPE   PO462450   2.320  25.808   6.982  0.2383  0.1962  0.0439
11733DGPE   GL162451   2.188  25.392   7.050 -0.0716 -0.2128  0.0135
11733DGPE   GL262452   2.374  25.257   7.284 -0.0370 -0.0815 -0.0067
11733DGPE   C1A62453   1.836  25.094   7.188  0.1363  0.0746 -0.1492
11733DGPE   C2A62454   1.646  24.927   7.448 -0.0715 -0.0039 -0.1560
11733DGPE   D3A62455   1.478  24.571   7.471  0.1804 -0.0653 -0.0916
11733DGPE   C4A62456   1.377  24.206   7.575 -0.2897 -0.3185  0.0728
11733DGPE   C5A62457   1.108  23.913   7.347 -0.2408  0.2661  0.0214
11733DGPE   C1B62458   2.166  24.999   7.517  0.1364  0.3420 -0.1488
11733DGPE   C2B62459   2.069  24.713   7.602  0.4517 -0.0889  0.3086
11733DGPE   D3B62460   1.809  24.431   7.808 -0.1948 -0.1392  0.0315
11733DGPE   C4B62461   1.828  24.011   7.857 -0.1058  0.1503  0.0241
11733DGPE   C5B62462   1.997  23.710   7.735 -0.2319 -0.0586  0.1190
11734DGPE   NH362463   5.252  21.229   7.365  0.0413  0.0611  0.1250
11734DGPE   PO462464   5.017  21.013   7.194  0.1487  0.1296  0.1142
11734DGPE   GL162465   4.797  20.999   7.543 -0.1233  0.1672 -0.0184
11734DGPE   GL262466   4.718  21.361   7.573  0.3070 -0.3147  0.1177
11734DGPE   C1A62467   4.526  20.958   7.888  0.2154 -0.2924  0.1790
11734DGPE   C2A62468   4.340  20.713   8.293 -0.0709 -0.1286  0.0645
11734DGPE   D3A62469   4.034  20.755   8.582 -0.1347  0.1141  0.0033
11734DGPE   C4A62470   3.840  20.469   8.902 -0.1349  0.1519 -0.0973
11734DGPE   C5A62471   3.670  20.130   9.094 -0.3544  0.0376  0.0429
11734DGPE   C1B62472   4.492  21.451   7.946  0.2877  0.1979 -0.0580
11734DGPE   C2B62473   4.394  21.582   8.434  0.0256  0.1050 -0.2172
11734DGPE   D3B62474   4.494  22.099   8.766  0.5516  0.1927 -0.4221
11734DGPE   C4B62475   4.153  22.201   9.166 -0.0625  0.0424  0.0749
11734DGPE   C5B62476   3.898  21.907   9.441  0.1274  0.0549 -0.2942
11735DGPE   NH362477  17.879  29.977  10.115 -0.3494  0.2001 -0.0885
11735DGPE   PO462478  17.996  29.938  10.570  0.1737 -0.0609  0.1383
11735DGPE   GL162479  18.107  30.276  10.817  0.0805  0.1157  0.2655
11735DGPE   GL262480  18.398  30.465  10.767  0.0464  0.1025 -0.3694
11735DGPE   C1A62481  18.179  30.247  11.358 -0.0471  0.4928  0.3733
11735DGPE   C2A62482  18.402  30.696  11.492 -0.1654  0.0162 -0.1926
11735DGPE   D3A62483  18.241  31.011  11.740 -0.2936  0.2255  0.2088
11735DGPE   C4A62484  18.417  31.199  11.975  0.0672  0.0174 -0.1887
11735DGPE   C5A62485  18.547  31.323  12.319  0.2073  0.1159  0.0318
11735DGPE   C1B62486  18.515  30.122  10.993  0.2410  0.0295  0.1655
11735DGPE   C2B62487  18.669  29.985  11.332 -0.0786  0.2333 -0.2135
11735DGPE   D3B62488  18.518  30.275  11.737  0.2076 -0.0222  0.1031
11735DGPE   C4B62489  18.494  30.596  11.943 -0.2053  0.3013 -0.0478
11735DGPE   C5B62490  18.608  30.773  12.362 -0.1545 -0.1484 -0.1861
11736DGPE   NH362491  34.702   3.464   7.735  0.1851 -0.0215 -0.2553
11736DGPE   PO462492  34.269   3.542   7.720 -0.2055  0.2379 -0.0935
11736DGPE   GL162493  34.160   3.904   7.880 -0.0321 -0.0512  0.0147
11736DGPE   GL262494  34.477   3.934   7.920  0.1041  0.2617  0.0199
11736DGPE   C1A62495  34.040   3.920   8.314 -0.1557  0.0211  0.1669
11736DGPE   C2A62496  33.896   4.102   8.668 -0.0503  0.1332 -0.0650
11736DGPE   D3A62497  33.764   4.343   8.956  0.1074  0.3112  0.3991
11736DGPE   C4A62498  33.381   4.215   9.015 -0.0037  0.1764  0.3310
11736DGPE   C5A62499  32.924   4.456   8.744 -0.1211  0.0376  0.1479
11736DGPE   C1B62500  34.547   4.097   8.330  0.3275  0.0601  0.1278
11736DGPE   C2B62501  34.703   4.436   8.406  0.0091 -0.5535  0.1659
11736DGPE   D3B62502  34.766   4.513   8.702  0.0201 -0.1697  0.0993
11736DGPE   C4B62503  34.663   4.854   8.843  0.0391  0.1351 -0.0688
11736DGPE   C5B62504  34.845   4.984   9.162  0.0263  0.0569 -0.2456
11737DAPE   NH362505  29.202  22.077  25.847 -0.0471 -0.1169 -0.0930
11737DAPE   PO462506  28.806  22.366  25.898  0.0714 -0.0468 -0.2269
11737DAPE   GL162507  28.944  22.032   0.028 -0.0726  0.4255  0.0343
11737DAPE   GL262508  28.902  22.227   0.204  0.0654  0.0390 -0.0594
11737DAPE   D1A62509  28.767  21.657   0.194  0.0387 -0.0791  0.3663
11737DAPE   D2A62510  28.925  21.885   0.555 -0.3230 -0.0352 -0.1562
11737DAPE   D3A62511  28.833  21.850   0.998 -0.0964 -0.2473 -0.2312
11737DAPE   D4A62512  28.501  21.827   1.149  0.0005  0.1156 -0.0943
11737DAPE   C5A62513  28.181  21.595   1.042  0.0853 -0.0927  0.0662
11737DAPE   D1B62514  29.391  22.292   0.030  0.1999  0.1440  0.1122
11737DAPE   D2B62515  29.229  22.608   0.280 -0.3118 -0.1489  0.2009
11737DAPE   D3B62516  29.393  22.271   0.484 -0.0623  0.0174 -0.2318
11737DAPE   D4B62517  29.305  22.071   0.863  0.5102 -0.0207  0.2005
11737DAPE   C5B62518  29.328  21.687   1.024  0.0176 -0.2353 -0.2162
11738DAPE   NH362519  10.308  32.705  16.530  0.1350  0.1572  0.3544
11738DAPE   PO462520  10.724  32.524  16.405 -0.1713 -0.2614  0.2022
11738DAPE   GL162521  10.643  32.475  16.830  0.1374 -0.0035  0.2749
11738DAPE   GL262522  10.777  32.588  17.118 -0.0052 -0.0814 -0.1368
11738DAPE   D1A62523  10.262  32.526  17.184  0.1181  0.3128  0.2404
11738DAPE   D2A62524  10.002  32.419  17.466  0.0526 -0.3155 -0.3490
11738DAPE   D3A62525  10.286  32.642  17.776  0.0533  0.3076  0.1436
11738DAPE   D4A62526  10.041  32.371  18.086  0.1965 -0.0955 -0.2168
11738DAPE   C5A62527   9.722  32.513  18.381 -0.3431  0.0464 -0.2420
11738DAPE   D1B62528  10.688  32.384  17.462  0.1020 -0.0019 -0.1430
11738DAPE   D2B62529  10.400  32.005  17.649 -0.0261 -0.0464  0.1626
11738DAPE   D3B62530  10.297  31.858  18.106 -0.0691  0.2405  0.2339
11738DAPE   D4B62531  10.755  32.019  18.046 -0.0707  0.1422 -0.0249
11738DAPE   C5B62532  10.932  31.842  18.283  0.1159  0.0490  0.2623
11739DAPE   NH362533  27.078  35.347   6.410 -0.0839  0.0947 -0.1350
11739DAPE   PO462534  27.305   0.221   6.294 -0.0004 -0.2129  0.1031
11739DAPE   GL162535  27.175   0.458   6.523 -0.0000 -0.2098 -0.0885
11739DAPE   GL262536  27.467   0.721   6.513  0.3263  0.1788  0.1723
11739DAPE   D1A62537  27.152   0.554   6.961 -0.1254  0.0696  0.0758
11739DAPE   D2A62538  27.423   0.411   7.260  0.2903 -0.2431 -0.2263
11739DAPE   D3A62539  27.362   0.299   7.675  0.1627  0.1323 -0.0241
11739DAPE   D4A62540  27.716   0.450   7.922  0.0095  0.0767 -0.1116
11739DAPE   C5A62541  27.609   0.556   8.326  0.0600 -0.0174 -0.1155
11739DAPE   D1B62542  27.758   0.688   6.800 -0.1409  0.0487 -0.2369
11739DAPE   D2B62543  27.457   0.901   7.107  0.2514  0.0908 -0.0328
11739DAPE   D3B62544  27.639   0.791   7.448 -0.1405 -0.0353 -0.2109
11739DAPE   D4B62545  27.879   0.910   7.744  0.0581 -0.0529 -0.0343
11739DAPE   C5B62546  27.872   0.926   8.130 -0.1011 -0.1694  0.0126
11740DAPE   NH362547  24.221  27.857   4.247 -0.1357  0.4385  0.3971
11740DAPE   PO462548  24.494  27.476   4.424  0.0870  0.0465 -0.0639
11740DAPE   GL162549  24.637  27.162   4.681  0.0129 -0.1530  0.2124
11740DAPE   GL262550  24.959  27.121   4.689 -0.2748 -0.1776  0.0139
11740DAPE   D1A62551  24.559  27.179   5.229 -0.1717  0.1840 -0.1644
11740DAPE   D2A62552  24.624  27.539   5.505  0.1426  0.1759  0.4271
11740DAPE   D3A62553  24.947  27.801   5.231 -0.0810  0.1160 -0.0239
11740DAPE   D4A62554  25.057  27.380   5.241 -0.0688  0.1548 -0.1717
11740DAPE   C5A62555  25.025  27.050   5.521 -0.1116  0.2196 -0.0861
11740DAPE   D1B62556  24.884  26.788   4.989 -0.0489  0.2996 -0.0463
11740DAPE   D2B62557  25.248  26.717   5.259  0.0822 -0.4581 -0.0889
11740DAPE   D3B62558  25.261  26.404   5.551  0.2263  0.1826  0.0293
11740DAPE   D4B62559  25.722  26.423   5.474 -0.1578  0.0314  0.0207
11740DAPE   C5B62560  25.951  26.117   5.375 -0.1780  0.0184  0.0156
11741DAPE   NH362561  14.589   9.479  14.364  0.2706 -0.1348  0.1342
11741DAPE   PO462562  15.026   9.425  14.417  0.2686  0.2157 -0.0575
11741DAPE   GL162563  15.104   8.984  14.500 -0.3142  0.1139  0.1595
11741DAPE   GL262564  15.204   8.972  14.862  0.2271 -0.1066  0.4445
11741DAPE   D1A62565  15.292   8.568  14.600  0.1616  0.1183 -0.1901
11741DAPE   D2A62566  15.276   8.358  14.922 -0.2987  0.0708  0.1295
11741DAPE   D3A62567  15.542   8.340  15.273 -0.0699  0.0277  0.3935
11741DAPE   D4A62568  15.249   8.640  15.318  0.1034 -0.0293 -0.0829
11741DAPE   C5A62569  14.853   8.629  15.047  0.0365  0.0262  0.0758
11741DAPE   D1B62570  15.571   8.757  14.996  0.0316  0.1536  0.3756
11741DAPE   D2B62571  15.744   8.793  14.571 -0.1209  0.0486  0.0416
11741DAPE   D3B62572  15.882   9.195  14.581  0.0789 -0.1692  0.3445
11741DAPE   D4B62573  16.247   8.884  14.516 -0.0988 -0.4190  0.1695
11741DAPE   C5B62574  16.505   8.875  14.851  0.1545 -0.0562 -0.1671
11742DAPE   NH362575  29.680  19.290  25.884  0.0266  0.0723 -0.0222
11742DAPE   PO462576  29.360  18.924  25.729 -0.2039  0.0683 -0.0263
11742DAPE   GL162577  29.406  19.013  26.215 -0.3631 -0.0734 -0.0302
11742DAPE   GL262578  29.275  19.191   0.249  0.3816  0.0614 -0.1663
11742DAPE   D1A62579  29.700  18.856   0.346  0.0134 -0.0694  0.1167
11742DAPE   D2A62580  29.604  18.534   0.194  0.3203  0.0905  0.2087
11742DAPE   D3A62581  29.548  18.526   0.655 -0.1116 -0.1258 -0.1749
11742DAPE   D4A62582  29.568  18.471   1.056  0.2276 -0.0938 -0.3219
11742DAPE   C5A62583  29.299  18.778   0.968 -0.1353  0.5526 -0.3807
11742DAPE   D1B62584  28.883  19.257   0.108  0.1752  0.0442 -0.1858
11742DAPE   D2B62585  29.001  18.780   0.317 -0.3718  0.0355  0.0638
11742DAPE   D3B62586  28.799  18.882   0.666 -0.1932 -0.1479  0.2040
11742DAPE   D4B62587  29.010  19.192   0.706 -0.0296  0.1785 -0.0029
11742DAPE   C5B62588  29.164  19.288   1.079 -0.1630 -0.2407  0.2728
11743DAPE   NH362589  20.310  18.712   6.337 -0.2132  0.2382  0.2837
11743DAPE   PO462590  20.469  18.583   6.762  0.1929  0.1439  0.1393
11743DAPE   GL162591  20.895  18.355   6.803 -0.2991  0.2742  0.2377
11743DAPE   GL262592  20.782  18.003   6.777  0.1350 -0.4113  0.4541
11743DAPE   D1A62593  21.258  18.230   6.802 -0.1500  0.0179 -0.1283
11743DAPE   D2A62594  21.364  18.700   6.825  0.0960  0.1721 -0.0112
11743DAPE   D3A62595  21.706  18.352   6.943  0.0332 -0.2421 -0.0438
11743DAPE   D4A62596  21.811  18.300   6.578 -0.0359 -0.2001  0.1648
11743DAPE   C5A62597  21.556  18.232   6.302 -0.1388 -0.2962 -0.0736
11743DAPE   D1B62598  20.920  17.931   7.190 -0.1347 -0.1358  0.1723
11743DAPE   D2B62599  21.292  17.814   7.194  0.1033 -0.0997  0.0561
11743DAPE   D3B62600  21.396  17.531   7.613  0.3204  0.0469  0.2314
11743DAPE   D4B62601  21.547  17.938   7.809  0.0956 -0.1863  0.0921
11743DAPE   C5B62602  21.917  18.022   7.895 -0.2967 -0.0987  0.0031
11744DAPE   NH362603  30.661  33.548   6.399  0.3100 -0.2390 -0.0753
11744DAPE   PO462604  30.943  33.229   6.195  0.0247  0.0529 -0.1990
11744DAPE   GL162605  31.039  33.140   6.576  0.1095  0.0131 -0.1482
11744DAPE   GL262606  30.942  33.279   6.934 -0.2432 -0.1375 -0.2049
11744DAPE   D1A62607  31.056  32.787   6.942 -0.0867 -0.0836  0.1373
11744DAPE   D2A62608  31.132  33.010   7.309 -0.0239  0.0569  0.3311
11744DAPE   D3A62609  31.536  32.733   7.502 -0.1334  0.0337  0.1673
11744DAPE   D4A62610  31.253  32.835   7.750  0.0174  0.0124 -0.1725
11744DAPE   C5A62611  31.013  32.982   8.056 -0.1181  0.3003  0.0764
11744DAPE   D1B62612  30.937  33.647   7.099 -0.0114 -0.0208 -0.0569
11744DAPE   D2B62613  30.644  33.385   7.364 -0.0433 -0.0289  0.1019
11744DAPE   D3B62614  30.746  33.053   7.633  0.3759  0.1265 -0.4466
11744DAPE   D4B62615  30.339  32.815   7.492 -0.2497 -0.1587 -0.1490
11744DAPE   C5B62616  30.305  32.456   7.793 -0.2164  0.1881 -0.0516
11745DAPE   NH362617  24.123  14.149   2.067  0.0029 -0.1377 -0.1337
11745DAPE   PO462618  23.792  14.228   2.351  0.2473 -0.1998 -0.0715
11745DAPE   GL162619  23.776  14.522   2.607 -0.0892  0.0357  0.0259
11745DAPE   GL262620  23.649  14.837   2.415 -0.0261 -0.0974 -0.1086
11745DAPE   D1A62621  23.871  14.578   3.033 -0.1482  0.1636 -0.0114
11745DAPE   D2A62622  24.115  14.275   3.343 -0.3205  0.2690  0.2429
11745DAPE   D3A62623  24.031  14.670   3.531  0.1089  0.0645 -0.0007
11745DAPE   D4A62624  24.260  14.844   3.897  0.0987 -0.0597  0.2466
11745DAPE   C5A62625  24.640  15.007   4.079  0.2767  0.3061  0.0170
11745DAPE   D1B62626  23.518  14.865   2.833 -0.2061 -0.0498  0.0187
11745DAPE   D2B62627  23.885  15.043   2.778 -0.0434 -0.2854 -0.2169
11745DAPE   D3B62628  24.091  15.330   3.217 -0.1195 -0.1049  0.3868
11745DAPE   D4B62629  24.034  15.171   3.596 -0.1994 -0.3013 -0.0256
11745DAPE   C5B62630  24.235  15.368   3.949  0.0696  0.2554  0.0692
11746DAPE   NH362631  24.721  21.106   1.628 -0.0284  0.0092  0.3358
11746DAPE   PO462632  24.436  21.374   1.805 -0.2251 -0.0408  0.1516
11746DAPE   GL162633  24.772  21.428   2.060  0.0937 -0.1733 -0.0317
11746DAPE   GL262634  24.896  21.635   1.861  0.0472 -0.1382 -0.2545
11746DAPE   D1A62635  24.954  21.640   2.399  0.0034 -0.1530 -0.1184
11746DAPE   D2A62636  24.878  21.641   2.845 -0.1523 -0.1372  0.0214
11746DAPE   D3A62637  25.213  21.336   2.695 -0.2813 -0.2056 -0.1014
11746DAPE   D4A62638  25.396  21.056   2.933  0.2127 -0.1423  0.1485
11746DAPE   C5A62639  25.766  21.236   3.191 -0.1350 -0.0597 -0.1559
11746DAPE   D1B62640  25.227  21.618   1.587  0.0678 -0.1433 -0.0730
11746DAPE   D2B62641  25.555  21.339   1.788 -0.1651  0.3061  0.1376
11746DAPE   D3B62642  25.579  21.748   1.972 -0.1575 -0.0214  0.2397
11746DAPE   D4B62643  25.441  21.722   2.382  0.1270  0.0962 -0.1256
11746DAPE   C5B62644  25.679  21.663   2.787  0.1777  0.2442 -0.0083
11747DAPE   NH362645  31.957  13.522   0.613  0.0878  0.0511  0.2866
11747DAPE   PO462646  31.584  13.451   0.765  0.0312  0.1267  0.3935
11747DAPE   GL162647  31.354  13.340   1.095 -0.0875  0.1206  0.4009
11747DAPE   GL262648  31.572  13.061   1.157 -0.0255 -0.0970  0.0129
11747DAPE   D1A62649  31.007  13.260   1.411  0.0438  0.1572 -0.0200
11747DAPE   D2A62650  31.027  13.674   1.315  0.0426 -0.1378 -0.1891
11747DAPE   D3A62651  30.598  13.534   1.487  0.0780  0.0935 -0.2072
11747DAPE   D4A62652  30.358  13.270   1.542 -0.0238 -0.0431 -0.0800
11747DAPE   C5A62653  30.324  13.031   1.937 -0.0976 -0.0565 -0.1450
11747DAPE   D1B62654  31.972  13.067   1.243  0.0921 -0.2085 -0.2425
11747DAPE   D2B62655  31.830  12.888   1.622 -0.3738  0.1924  0.1411
11747DAPE   D3B62656  31.514  13.182   1.633  0.5960 -0.0200 -0.3156
11747DAPE   D4B62657  31.283  13.017   1.982 -0.1382 -0.5215 -0.3060
11747DAPE   C5B62658  31.123  12.553   2.127  0.0050 -0.0236  0.0993
11748DAPE   NH362659   4.552  17.427   5.807  0.2573 -0.0821 -0.0788
11748DAPE   PO462660   4.511  17.813   5.444 -0.0589  0.1308  0.2003
11748DAPE   GL162661   4.110  17.663   5.324 -0.2285 -0.1592 -0.2046
11748DAPE   GL262662   4.070  17.359   5.387 -0.1695  0.1361  0.3138
11748DAPE   D1A62663   3.705  17.987   5.287 -0.0805  0.0872 -0.5210
11748DAPE   D2A62664   3.661  18.422   5.150  0.0829 -0.1640 -0.1803
11748DAPE   D3A62665   3.296  18.170   5.155 -0.1590 -0.1837  0.1771
11748DAPE   D4A62666   2.981  18.160   4.843 -0.0834 -0.1732  0.2367
11748DAPE   C5A62667   2.650  17.938   4.872 -0.2272 -0.3405  0.3491
11748DAPE   D1B62668   3.610  17.243   5.386 -0.1146 -0.0287  0.0549
11748DAPE   D2B62669   3.792  17.266   5.802  0.0291  0.1986 -0.0615
11748DAPE   D3B62670   3.718  17.663   5.678 -0.1871 -0.0745  0.0092
11748DAPE   D4B62671   3.472  17.562   6.030 -0.1347  0.2137  0.0721
11748DAPE   C5B62672   3.147  17.714   6.203  0.1038 -0.1759  0.0542
11749DAPE   NH362673  20.090  23.135   9.996 -0.2226 -0.2263 -0.2325
11749DAPE   PO462674  19.781  23.012  10.335 -0.0115 -0.0600  0.0701
11749DAPE   GL162675  19.916  22.996  10.752  0.1070 -0.0897  0.1743
11749DAPE   GL262676  20.045  23.265  10.867  0.0307  0.1078  0.0826
11749DAPE   D1A62677  20.047  22.816  11.089 -0.2421  0.1546 -0.1587
11749DAPE   D2A62678  20.019  22.991  11.447 -0.4800 -0.0826  0.1415
11749DAPE   D3A62679  20.365  23.194  11.341 -0.1093  0.1551  0.0096
11749DAPE   D4A62680  20.589  22.898  11.529  0.0287  0.2188  0.0137
11749DAPE   C5A62681  21.009  22.648  11.630 -0.2976  0.0518  0.2705
11749DAPE   D1B62682  20.286  23.643  10.860  0.3494 -0.2152  0.0457
11749DAPE   D2B62683  20.645  23.541  11.004 -0.0138 -0.0041  0.2737
11749DAPE   D3B62684  20.853  23.877  11.326  0.0489  0.0235  0.0431
11749DAPE   D4B62685  20.911  23.942  11.755  0.0963  0.0996  0.1796
11749DAPE   C5B62686  20.805  24.413  11.987  0.2538  0.0501 -0.4746
11750DAPE   NH362687   1.739  13.086   3.349  0.1545 -0.0678  0.1997
11750DAPE   PO462688   1.664  13.262   3.675 -0.0596  0.1246 -0.1928
11750DAPE   GL162689   1.282  13.178   3.772  0.0167 -0.0812 -0.1636
11750DAPE   GL262690   1.079  13.501   3.719  0.1342 -0.1075  0.0331
11750DAPE   D1A62691   0.998  13.207   4.089  0.1469 -0.1759 -0.1189
11750DAPE   D2A62692   1.162  13.025   4.540 -0.0543  0.0063  0.0637
11750DAPE   D3A62693   0.833  13.128   4.767  0.0502  0.2309  0.1579
11750DAPE   D4A62694   0.764  13.378   4.485 -0.2650 -0.0998  0.1946
11750DAPE   C5A62695   0.384  13.278   4.435  0.0237  0.0260  0.0990
11750DAPE   D1B62696   0.670  13.461   3.731  0.0552  0.1022 -0.1482
11750DAPE   D2B62697   0.525  13.218   3.922  0.1515 -0.4311  0.0852
11750DAPE   D3B62698   0.248  13.711   4.008  0.0248 -0.2493 -0.0147
11750DAPE   D4B62699  35.265  13.548   4.108  0.5300  0.0569 -0.3990
11750DAPE   C5B62700  35.111  13.149   4.266 -0.0933 -0.1509 -0.0090
11751DAPE   NH362701   4.798   4.756  10.215 -0.0636  0.2849 -0.0568
11751DAPE   PO462702   4.566   4.489   9.965 -0.1110  0.2269 -0.3308
11751DAPE   GL162703   4.437   4.462  10.373  0.2455 -0.4394  0.1528
11751DAPE   GL262704   4.560   4.709  10.656  0.2333 -0.1819 -0.0162
11751DAPE   D1A62705   4.203   4.358  10.673  0.3007  0.2622 -0.1141
11751DAPE   D2A62706   4.202   4.772  11.001  0.1197 -0.0607 -0.2155
11751DAPE   D3A62707   4.602   5.081  11.038  0.1463 -0.1335 -0.0081
11751DAPE   D4A62708   4.910   4.853  11.056  0.3368  0.1615  0.1577
11751DAPE   C5A62709   5.118   4.985  11.381 -0.4500  0.1571  0.2889
11751DAPE   D1B62710   4.651   4.373  10.957 -0.0904 -0.2822  0.0928
11751DAPE   D2B62711   4.726   3.916  11.084 -0.0225 -0.0787 -0.0044
11751DAPE   D3B62712   4.763   4.145  11.453 -0.1414  0.0993 -0.1027
11751DAPE   D4B62713   4.929   4.454  11.400 -0.0659 -0.0026  0.1288
11751DAPE   C5B62714   4.575   4.761  11.435  0.2953  0.2063 -0.0553
11752DAPE   NH362715  19.240  17.588  11.055  0.0607  0.1515  0.3871
11752DAPE   PO462716  19.030  17.906  10.913  0.1269  0.1605  0.1202
11752DAPE   GL162717  19.325  18.160  10.863  0.1300  0.0796  0.2581
11752DAPE   GL262718  19.360  18.311  10.683  0.1079  0.1645  0.0047
11752DAPE   D1A62719  19.738  18.040  10.834  0.0306  0.3505 -0.1284
11752DAPE   D2A62720  19.984  17.698  10.579  0.4079 -0.0969 -0.1442
11752DAPE   D3A62721  20.210  17.717  10.881 -0.2147 -0.3375  0.2344
11752DAPE   D4A62722  20.306  17.845  11.339  0.0095 -0.1315  0.1446
11752DAPE   C5A62723  20.259  18.235  11.560  0.1034 -0.0744 -0.0553
11752DAPE   D1B62724  19.544  18.598  10.413  0.0746 -0.0752 -0.1375
11752DAPE   D2B62725  19.850  18.533  10.671 -0.1301 -0.0366 -0.1709
11752DAPE   D3B62726  19.985  18.890  10.892 -0.0784 -0.1014 -0.0824
11752DAPE   D4B62727  20.180  19.038  11.302 -0.0623  0.1671 -0.0607
11752DAPE   C5B62728  20.564  19.227  11.323 -0.1692 -0.0250 -0.0635
11753DAPE   NH362729  29.952  32.083   5.851 -0.0157  0.4802 -0.0819
11753DAPE   PO462730  29.859  31.644   6.133 -0.0262 -0.3415 -0.0872
11753DAPE   GL162731  29.654  31.573   6.527  0.0457  0.3429  0.0260
11753DAPE   GL262732  29.784  31.340   6.584 -0.0715 -0.0595  0.0476
11753DAPE   D1A62733  29.152  31.720   6.512 -0.1407 -0.0097 -0.0218
11753DAPE   D2A62734  29.036  31.920   6.876  0.1732 -0.1935  0.0582
11753DAPE   D3A62735  29.088  31.841   7.282 -0.0163 -0.1768 -0.3084
11753DAPE   D4A62736  28.811  31.765   7.669  0.0452  0.0390 -0.0856
11753DAPE   C5A62737  28.718  31.418   7.887 -0.0157 -0.0500  0.0712
11753DAPE   D1B62738  29.819  31.477   7.012 -0.0574 -0.0666  0.1660
11753DAPE   D2B62739  29.920  31.952   6.867  0.1754  0.3699 -0.2034
11753DAPE   D3B62740  29.503  32.029   6.738  0.1599  0.0785  0.2378
11753DAPE   D4B62741  29.460  32.088   7.115  0.0808 -0.1016  0.1468
11753DAPE   C5B62742  29.687  31.802   7.439 -0.0242  0.5077 -0.1175
11754DAPE   NH362743  35.327   8.871   4.019  0.2383  0.0648  0.3034
11754DAPE   PO462744   0.391   9.006   4.169  0.0127 -0.2108 -0.0789
11754DAPE   GL162745   0.347   9.325   4.346 -0.0703 -0.0216 -0.2032
11754DAPE   GL262746  35.320   9.322   4.379 -0.1990 -0.2492 -0.2100
11754DAPE   D1A62747   0.531   9.623   4.438  0.1350  0.2278  0.2326
11754DAPE   D2A62748   0.358   9.961   4.790  0.0309  0.0662 -0.0433
11754DAPE   D3A62749   0.059  10.140   4.887  0.1895  0.0069 -0.0574
11754DAPE   D4A62750  35.124  10.350   4.761  0.0463  0.3064  0.1723
11754DAPE   C5A62751  34.959  10.696   4.623  0.2744 -0.0618  0.2181
11754DAPE   D1B62752  35.307   9.635   4.797 -0.0074 -0.0117 -0.0478
11754DAPE   D2B62753  35.057   9.936   4.502 -0.1736  0.0687 -0.1966
11754DAPE   D3B62754  34.642   9.999   4.579  0.0940 -0.0599  0.0575
11754DAPE   D4B62755  34.622  10.285   4.942 -0.0945  0.2827 -0.0553
11754DAPE   C5B62756  34.595  10.203   5.428  0.2575  0.1256  0.2614
11755DAPE   NH362757  20.395  18.860   7.164 -0.0763  0.0729 -0.3877
11755DAPE   PO462758  20.200  19.268   7.296 -0.1926  0.0369 -0.2388
11755DAPE   GL162759  20.733  19.266   7.439 -0.1070 -0.0126 -0.1045
11755DAPE   GL262760  20.901  19.472   7.203  0.1311  0.0145 -0.0480
11755DAPE   D1A62761  21.073  19.425   7.720  0.0109  0.0179 -0.1028
11755DAPE   D2A62762  20.585  19.392   7.886 -0.0978 -0.1247 -0.2394
11755DAPE   D3A62763  20.863  18.997   7.921 -0.1580 -0.1109  0.3344
11755DAPE   D4A62764  21.209  19.052   8.058  0.3120 -0.1080 -0.0859
11755DAPE   C5A62765  21.360  19.463   8.105 -0.1469 -0.1920 -0.4418
11755DAPE   D1B62766  21.297  19.247   7.205 -0.1659  0.0280  0.0297
11755DAPE   D2B62767  21.533  19.191   7.652 -0.0791  0.1515 -0.0500
11755DAPE   D3B62768  22.028  19.207   7.625 -0.1281  0.3086  0.1103
11755DAPE   D4B62769  22.096  19.691   7.567 -0.1600 -0.0155 -0.1342
11755DAPE   C5B62770  22.217  20.127   7.293  0.2551  0.0879 -0.1244
11756DAPE   NH362771  29.933   5.403   4.688  0.0299  0.1702  0.2078
11756DAPE   PO462772  30.065   5.134   5.006  0.2977 -0.2627 -0.3568
11756DAPE   GL162773  29.698   4.929   4.953 -0.0125 -0.0170 -0.2670
11756DAPE   GL262774  29.495   4.993   4.728  0.0881  0.5611 -0.1091
11756DAPE   D1A62775  29.446   4.646   5.130 -0.2497 -0.0966  0.3617
11756DAPE   D2A62776  29.051   4.852   5.114  0.2306 -0.0507 -0.1307
11756DAPE   D3A62777  28.795   4.614   5.400  0.1785 -0.4377  0.0992
11756DAPE   D4A62778  28.664   4.524   5.839  0.0618 -0.3758 -0.0321
11756DAPE   C5A62779  28.262   4.636   5.760  0.3229 -0.0523 -0.3581
11756DAPE   D1B62780  29.361   5.395   4.551 -0.1293 -0.0131 -0.0355
11756DAPE   D2B62781  29.424   5.853   4.513  0.2858 -0.1302  0.1752
11756DAPE   D3B62782  29.850   6.085   4.518  0.1886 -0.0325 -0.1125
11756DAPE   D4B62783  29.993   5.816   4.879  0.3015 -0.1938 -0.0448
11756DAPE   C5B62784  30.237   5.830   5.262 -0.0630  0.2434  0.0713
11757DAPE   NH362785  24.120  21.004   1.702  0.4725 -0.3985  0.1448
11757DAPE   PO462786  23.887  20.675   1.930  0.3129  0.0473 -0.1837
11757DAPE   GL162787  24.153  20.818   2.280  0.0864 -0.0655  0.1121
11757DAPE   GL262788  24.266  21.121   2.300 -0.1891 -0.0474  0.0684
11757DAPE   D1A62789  24.325  20.877   2.710 -0.0389  0.0235  0.1116
11757DAPE   D2A62790  24.481  20.552   3.031 -0.2956 -0.0627  0.3221
11757DAPE   D3A62791  24.686  20.666   3.321  0.0818  0.0397 -0.1464
11757DAPE   D4A62792  25.012  20.687   3.037  0.0600 -0.1893 -0.3670
11757DAPE   C5A62793  25.298  20.473   2.813  0.0044 -0.0429  0.1278
11757DAPE   D1B62794  24.577  21.373   2.531  0.1580 -0.0731 -0.4343
11757DAPE   D2B62795  24.766  21.124   2.819  0.0832 -0.0554  0.1294
11757DAPE   D3B62796  24.492  21.141   3.265  0.1740  0.2290 -0.1290
11757DAPE   D4B62797  24.947  21.198   3.270  0.2986 -0.0301 -0.0174
11757DAPE   C5B62798  25.289  21.551   3.269 -0.0144  0.3328 -0.2110
11758DAPE   NH362799  28.041  15.606   0.027 -0.0334  0.0649  0.4143
11758DAPE   PO462800  28.252  15.218  26.142  0.1429 -0.3105 -0.0851
11758DAPE   GL162801  28.335  14.990   0.273 -0.0784 -0.0530  0.1822
11758DAPE   GL262802  28.121  14.907   0.437 -0.0079 -0.0357  0.2883
11758DAPE   D1A62803  28.572  14.975   0.680 -0.0593 -0.0772 -0.0909
11758DAPE   D2A62804  28.711  15.397   0.706 -0.1919  0.2863  0.2952
11758DAPE   D3A62805  29.041  15.497   0.785 -0.1111 -0.4345 -0.2915
11758DAPE   D4A62806  29.405  15.351   0.967 -0.1426  0.2357  0.2873
11758DAPE   C5A62807  29.491  15.417   1.407  0.1508 -0.1315  0.1778
11758DAPE   D1B62808  28.093  14.677   0.807 -0.5104  0.0844 -0.0210
11758DAPE   D2B62809  28.424  14.646   1.057  0.2656 -0.0900 -0.0649
11758DAPE   D3B62810  28.420  14.796   1.571 -0.0574  0.1790  0.1413
11758DAPE   D4B62811  28.672  15.075   1.744  0.3304  0.0484 -0.1122
11758DAPE   C5B62812  28.534  15.444   1.682  0.0762  0.0787  0.0652
11759DAPE   NH362813  28.869  30.667   5.734 -0.0716 -0.0830 -0.3093
11759DAPE   PO462814  28.852  30.797   6.156  0.2277 -0.4451  0.0748
11759DAPE   GL162815  29.032  31.097   6.465 -0.0893  0.0868  0.2125
11759DAPE   GL262816  29.338  31.192   6.625  0.0969 -0.2160  0.1235
11759DAPE   D1A62817  29.006  31.070   6.970 -0.0410 -0.2004  0.1281
11759DAPE   D2A62818  29.214  30.917   7.321  0.0488  0.0231  0.0230
11759DAPE   D3A62819  29.063  31.260   7.561  0.1001 -0.2732 -0.0473
11759DAPE   D4A62820  29.333  31.383   7.350 -0.0242 -0.5318  0.0754
11759DAPE   C5A62821  29.356  31.573   6.971  0.1656  0.1304 -0.4242
11759DAPE   D1B62822  29.499  31.101   6.992  0.0222 -0.2950 -0.0139
11759DAPE   D2B62823  29.609  30.654   7.098  0.0315  0.1221  0.0784
11759DAPE   D3B62824  29.862  30.615   7.494  0.1953 -0.0228 -0.0696
11759DAPE   D4B62825  29.479  30.668   7.724 -0.1089 -0.2761  0.2304
11759DAPE   C5B62826  29.297  30.956   8.036 -0.1594  0.1793  0.2026
11760DAPE   NH362827  25.851  22.116   0.237 -0.4307  0.0716  0.0439
11760DAPE   PO462828  25.644  22.307   0.538 -0.2452  0.0720 -0.0328
11760DAPE   GL162829  25.963  22.490   0.713  0.0262  0.1368  0.3976
11760DAPE   GL262830  26.174  22.193   0.618  0.0901  0.1516  0.0316
11760DAPE   D1A62831  26.148  22.571   1.032  0.0097 -0.2416 -0.3505
11760DAPE   D2A62832  26.522  22.443   0.961  0.2217 -0.1512  0.1975
11760DAPE   D3A62833  26.623  22.662   1.303 -0.0261 -0.0502 -0.1132
11760DAPE   D4A62834  26.222  22.831   1.451 -0.0475  0.3141 -0.0764
11760DAPE   C5A62835  26.162  23.236   1.513  0.0791 -0.0415 -0.0653
11760DAPE   D1B62836  26.075  22.074   0.998 -0.1290  0.0240  0.1416
11760DAPE   D2B62837  26.208  22.293   1.413 -0.1317 -0.0499 -0.0759
11760DAPE   D3B62838  26.167  22.421   1.736  0.3036  0.0813  0.1702
11760DAPE   D4B62839  26.426  22.040   1.765 -0.0196  0.1011 -0.0616
11760DAPE   C5B62840  26.618  22.244   2.109 -0.0412 -0.0779 -0.0333
11761DAPE   NH362841  23.117   8.724   4.796  0.0862  0.1123 -0.0752
11761DAPE   PO462842  23.060   9.225   4.753 -0.0473 -0.1610  0.0178
11761DAPE   GL162843  23.073   9.404   5.092 -0.2217 -0.2215  0.2231
11761DAPE   GL262844  23.450   9.448   5.198  0.1213  0.3329  0.0109
11761DAPE   D1A62845  23.178   9.704   5.488  0.0288 -0.4036 -0.1702
11761DAPE   D2A62846  23.432   9.319   5.660  0.1740  0.1474 -0.0002
11761DAPE   D3A62847  23.567   9.793   5.787 -0.1756  0.2619  0.1134
11761DAPE   D4A62848  23.844   9.660   6.020  0.1024 -0.1506 -0.1349
11761DAPE   C5A62849  24.085   9.951   6.038 -0.1017  0.0369 -0.1696
11761DAPE   D1B62850  23.899   9.316   5.091 -0.0942  0.1269 -0.2478
11761DAPE   D2B62851  24.292   9.328   5.045  0.1978  0.3007  0.1231
11761DAPE   D3B62852  24.247   9.039   4.738  0.0478 -0.0475 -0.3138
11761DAPE   D4B62853  24.646   8.880   4.827  0.0191  0.2083  0.1762
11761DAPE   C5B62854  24.810   9.123   5.160 -0.2420 -0.0177  0.4395
11762DAPE   NH362855   5.351   6.837  10.826  0.0667  0.0114  0.2118
11762DAPE   PO462856   5.678   6.585  10.558  0.3438  0.0524  0.1568
11762DAPE   GL162857   5.552   6.409  10.981 -0.1620  0.0572  0.2156
11762DAPE   GL262858   5.775   6.109  11.144 -0.2022  0.1939  0.3500
11762DAPE   D1A62859   5.116   6.523  11.179 -0.1292 -0.3541  0.0761
11762DAPE   D2A62860   4.606   6.432  11.110  0.0154  0.2322  0.1930
11762DAPE   D3A62861   4.709   6.544  10.722  0.1532 -0.3500 -0.0878
11762DAPE   D4A62862   4.287   6.806  10.897 -0.0476 -0.1237  0.3533
11762DAPE   C5A62863   3.930   6.924  10.791 -0.2413 -0.0613 -0.0384
11762DAPE   D1B62864   5.293   6.130  11.288 -0.0181  0.1112  0.0206
11762DAPE   D2B62865   4.983   6.073  10.921 -0.0910 -0.2007 -0.2463
11762DAPE   D3B62866   4.652   5.971  11.171  0.1432  0.0825  0.0747
11762DAPE   D4B62867   4.812   6.258  11.473 -0.1933  0.0064  0.2834
11762DAPE   C5B62868   4.633   6.536  11.796 -0.1334  0.0183 -0.2032
11763DAPE   NH362869   1.613   5.146   7.190  0.1823  0.1405  0.1027
11763DAPE   PO462870   1.885   5.134   7.465  0.1400  0.1274 -0.0931
11763DAPE   GL162871   1.696   5.173   7.832 -0.3257  0.2236 -0.0269
11763DAPE   GL262872   1.488   5.457   7.643 -0.0567  0.0167  0.1164
11763DAPE   D1A62873   1.730   5.362   8.306  0.3652 -0.0898  0.0120
11763DAPE   D2A62874   1.628   4.975   8.560 -0.3997 -0.2395 -0.1561
11763DAPE   D3A62875   1.366   5.345   8.707  0.0040 -0.0228 -0.2208
11763DAPE   D4A62876   1.233   5.315   9.146  0.0366  0.3480 -0.1982
11763DAPE   C5A62877   0.897   5.172   9.408 -0.1455 -0.1530 -0.1647
11763DAPE   D1B62878   1.129   5.712   7.617 -0.1347 -0.2359 -0.2723
11763DAPE   D2B62879   1.383   6.130   7.732  0.0074  0.0161  0.3867
11763DAPE   D3B62880   1.442   6.303   8.022 -0.1872  0.1410 -0.0878
11763DAPE   D4B62881   1.255   5.943   8.178 -0.4643 -0.0192 -0.1374
11763DAPE   C5B62882   1.137   5.779   8.495 -0.0219 -0.0401  0.1747
11764DAPE   NH362883  31.081  21.633  25.828 -0.0502  0.2061  0.4008
11764DAPE   PO462884  30.738  21.868  25.523 -0.3192  0.0686  0.0441
11764DAPE   GL162885  30.615  21.774  25.826 -0.1132 -0.0414 -0.0433
11764DAPE   GL262886  30.433  21.941  26.085 -0.4304  0.3964 -0.1117
11764DAPE   D1A62887  30.536  21.435  26.159  0.0367 -0.1477  0.1739
11764DAPE   D2A62888  30.143  21.183  26.117  0.0355  0.0976 -0.0327
11764DAPE   D3A62889  30.116  20.927   0.285  0.0717 -0.3035 -0.1108
11764DAPE   D4A62890  29.622  20.944   0.339 -0.1905  0.0786 -0.1284
11764DAPE   C5A62891  29.341  20.942   0.722 -0.1385  0.0241 -0.1524
11764DAPE   D1B62892  30.024  22.097  26.248 -0.1019 -0.0558 -0.0359
11764DAPE   D2B62893  29.808  21.948   0.331  0.5884 -0.0692 -0.1226
11764DAPE   D3B62894  30.087  22.141   0.598 -0.2759  0.0742 -0.3536
11764DAPE   D4B62895  29.758  22.254   0.852  0.1409  0.0339  0.2887
11764DAPE   C5B62896  29.642  21.969   1.219 -0.3715  0.1091 -0.0134
11765DAPE   NH362897  20.011   7.639  11.020  0.1892 -0.1454  0.3522
11765DAPE   PO462898  20.137   7.237  10.968 -0.1090  0.0363  0.1207
11765DAPE   GL162899  20.343   7.264  11.329 -0.1424  0.1301  0.2044
11765DAPE   GL262900  20.469   7.549  11.221 -0.1295  0.4089 -0.3105
11765DAPE   D1A62901  20.449   7.427  11.774 -0.1512 -0.1283 -0.0727
11765DAPE   D2A62902  20.861   7.206  11.655 -0.0834 -0.0130 -0.1993
11765DAPE   D3A62903  20.830   7.182  12.087 -0.5273  0.0376  0.0168
11765DAPE   D4A62904  21.063   7.228  12.333 -0.1153 -0.1541  0.4570
11765DAPE   C5A62905  21.245   7.084  12.595  0.2844 -0.2314  0.1280
11765DAPE   D1B62906  20.231   7.738  11.448 -0.0735 -0.0822 -0.3353
11765DAPE   D2B62907  20.261   7.881  11.912 -0.0083  0.0714  0.1119
11765DAPE   D3B62908  20.216   8.335  11.790  0.2139  0.0842 -0.1085
11765DAPE   D4B62909  20.566   8.262  11.962 -0.3047  0.3844 -0.0697
11765DAPE   C5B62910  20.701   8.100  12.391  0.3143  0.0758  0.2240
11766DAPE   NH362911   5.914  15.932   9.804  0.2575  0.2872 -0.1306
11766DAPE   PO462912   5.993  16.195   9.560 -0.1610  0.1328 -0.1262
11766DAPE   GL162913   5.605  16.266   9.546 -0.0837 -0.1727  0.1550
11766DAPE   GL262914   5.549  16.408   9.820  0.3598  0.1267 -0.1324
11766DAPE   D1A62915   5.393  16.375   9.097  0.1174 -0.0074  0.2391
11766DAPE   D2A62916   4.969  16.363   9.226 -0.3650  0.1939  0.2025
11766DAPE   D3A62917   4.957  16.041   9.441 -0.1769 -0.2107 -0.0371
11766DAPE   D4A62918   5.256  15.852   9.798 -0.1645 -0.0512  0.3163
11766DAPE   C5A62919   5.298  15.340   9.746 -0.1883  0.0065 -0.2652
11766DAPE   D1B62920   5.055  16.451   9.780  0.0861  0.3987 -0.2686
11766DAPE   D2B62921   5.123  16.646  10.122 -0.1983  0.0373 -0.0062
11766DAPE   D3B62922   4.710  16.442  10.250 -0.0292 -0.0552  0.1117
11766DAPE   D4B62923   4.681  16.324  10.590 -0.1221 -0.1458  0.0536
11766DAPE   C5B62924   4.314  16.208  10.923 -0.0929 -0.2397 -0.0087
11767DAPE   NH362925  10.867  11.222  14.293 -0.1003  0.2744  0.0706
11767DAPE   PO462926  10.560  11.610  14.248  0.0688  0.1922  0.0319
11767DAPE   GL162927  10.175  11.461  14.445  0.2447 -0.1067  0.0932
11767DAPE   GL262928   9.895  11.512  14.313  0.1400  0.3809 -0.1214
11767DAPE   D1A62929   9.930  11.561  14.822  0.2301 -0.0060  0.1016
11767DAPE   D2A62930   9.895  11.819  15.223  0.0119  0.1366 -0.0961
11767DAPE   D3A62931   9.876  11.960  15.528 -0.3190  0.1476 -0.0319
11767DAPE   D4A62932   9.541  12.158  15.288  0.3445 -0.0207 -0.1825
11767DAPE   C5A62933   9.140  12.254  15.244  0.1282 -0.1236  0.3400
11767DAPE   D1B62934   9.422  11.553  14.374  0.0120 -0.1089  0.1642
11767DAPE   D2B62935   9.455  11.823  14.750 -0.0599  0.1261 -0.1134
11767DAPE   D3B62936   9.162  11.482  14.788 -0.1665  0.1010  0.0576
11767DAPE   D4B62937   9.124  11.780  15.102 -0.1983  0.1446  0.0464
11767DAPE   C5B62938   8.820  11.991  14.815  0.2477 -0.1803 -0.6550
11768DAPE   NH362939  21.313  21.087   5.415 -0.2106 -0.0016 -0.0402
11768DAPE   PO462940  21.411  20.685   5.338  0.0980  0.1159  0.1397
11768DAPE   GL162941  21.805  20.447   5.303  0.0708  0.1028  0.2515
11768DAPE   GL262942  22.095  20.565   5.201 -0.2190 -0.0852  0.2460
11768DAPE   D1A62943  22.115  20.092   5.219 -0.0843 -0.0665  0.1836
11768DAPE   D2A62944  22.100  19.876   4.837  0.0415 -0.2050  0.1237
11768DAPE   D3A62945  22.442  20.150   4.657  0.2847  0.0426 -0.2042
11768DAPE   D4A62946  22.831  19.903   4.789 -0.0603  0.2107  0.1223
11768DAPE   C5A62947  23.100  19.844   5.141 -0.1378  0.0986 -0.0874
11768DAPE   D1B62948  22.281  20.600   4.882  0.0607 -0.2932  0.0283
11768DAPE   D2B62949  22.666  20.369   5.048 -0.1251  0.0928  0.0776
11768DAPE   D3B62950  22.631  19.941   5.235  0.1819  0.4005 -0.0175
11768DAPE   D4B62951  22.509  19.805   5.629 -0.1537 -0.0320 -0.0844
11768DAPE   C5B62952  22.824  19.606   5.936  0.1976  0.5042  0.1707
11769DAPE   NH362953  17.212  26.953  12.715  0.0037 -0.1820 -0.3254
11769DAPE   PO462954  16.830  27.188  12.805 -0.0813  0.0901  0.1732
11769DAPE   GL162955  16.942  27.419  13.112  0.1037 -0.0853 -0.2217
11769DAPE   GL262956  17.248  27.345  13.277 -0.2103  0.4286  0.0585
11769DAPE   D1A62957  16.985  27.737  13.413  0.4043 -0.0953 -0.0524
11769DAPE   D2A62958  17.323  27.941  13.527  0.1018 -0.2067 -0.1096
11769DAPE   D3A62959  17.219  28.000  13.893  0.0715 -0.1156  0.0226
11769DAPE   D4A62960  17.520  28.227  14.186 -0.2599  0.0373  0.2253
11769DAPE   C5A62961  17.698  28.709  14.030  0.0016 -0.0641  0.0918
11769DAPE   D1B62962  16.977  27.296  13.676  0.3943  0.1860 -0.1423
11769DAPE   D2B62963  17.313  27.552  13.820 -0.0025  0.0065 -0.1005
11769DAPE   D3B62964  17.683  27.331  13.647  0.0766 -0.1476 -0.2956
11769DAPE   D4B62965  17.433  27.045  13.650 -0.1362  0.1321 -0.3395
11769DAPE   C5B62966  17.551  26.855  13.296 -0.2640  0.2072 -0.0173
11770DAPE   NH362967  19.695  19.064   9.498  0.3438 -0.0387  0.0247
11770DAPE   PO462968  19.575  19.467   9.657  0.0241 -0.1290  0.0439
11770DAPE   GL162969  19.906  19.477  10.073  0.0491 -0.0166  0.0533
11770DAPE   GL262970  20.038  19.213  10.091 -0.0499  0.0696 -0.0283
11770DAPE   D1A62971  20.171  19.638  10.385 -0.3351 -0.0716  0.1877
11770DAPE   D2A62972  20.460  19.262  10.423  0.2021  0.4158  0.3029
11770DAPE   D3A62973  20.819  19.270  10.758 -0.0901 -0.0702 -0.0356
11770DAPE   D4A62974  21.009  19.079  11.160 -0.0370 -0.1438  0.0356
11770DAPE   C5A62975  21.035  19.004  11.614  0.3014  0.0657 -0.2102
11770DAPE   D1B62976  19.948  19.023  10.371 -0.0426 -0.1190 -0.1962
11770DAPE   D2B62977  20.024  18.643  10.214 -0.1012 -0.2464  0.1430
11770DAPE   D3B62978  20.430  18.693  10.518  0.1751  0.2791  0.0232
11770DAPE   D4B62979  20.472  18.933  10.854 -0.0501 -0.2303 -0.0595
11770DAPE   C5B62980  20.297  19.366  10.865 -0.2432  0.0537  0.0596
11771DAPE   NH362981  31.199  22.627  25.812 -0.2563 -0.0497  0.2164
11771DAPE   PO462982  31.154  22.205  25.771  0.0026 -0.1280 -0.0647
11771DAPE   GL162983  31.004  22.048  26.141  0.0852 -0.1466  0.0830
11771DAPE   GL262984  30.949  22.344  26.208 -0.2572 -0.0503 -0.3438
11771DAPE   D1A62985  30.739  21.896   0.282 -0.4195  0.0649 -0.0554
11771DAPE   D2A62986  30.282  21.719   0.248 -0.0905  0.1724  0.0330
11771DAPE   D3A62987  30.385  21.733   0.655  0.2730 -0.0699  0.0312
11771DAPE   D4A62988  30.265  21.479   1.146 -0.1295  0.1621 -0.1168
11771DAPE   C5A62989  30.003  21.715   1.380 -0.1197 -0.1813  0.2881
11771DAPE   D1B62990  31.111  22.242   0.367 -0.0962 -0.0968 -0.1399
11771DAPE   D2B62991  31.316  21.894   0.276  0.0141  0.3311  0.1248
11771DAPE   D3B62992  31.025  21.552   0.057 -0.1711 -0.1282  0.0372
11771DAPE   D4B62993  31.163  21.492   0.581 -0.0272 -0.0620 -0.0960
11771DAPE   C5B62994  31.516  21.669   0.789 -0.1201  0.2602  0.3196
11772DAPE   NH362995  19.409  33.426   8.642  0.0201  0.2879 -0.0541
11772DAPE   PO462996  19.258  33.716   8.953  0.0644  0.2276 -0.2225
11772DAPE   GL162997  19.688  33.666   9.007 -0.0992  0.1245 -0.0744
11772DAPE   GL262998  19.841  33.588   8.719 -0.0960  0.2014  0.0432
11772DAPE   D1A62999  19.986  33.664   9.234  0.4117 -0.1549  0.1085
11772DAPE   D2A63000  20.245  33.375   9.009  0.2692 -0.0649  0.0158
11772DAPE   D3A63001  20.594  33.145   8.765 -0.1667  0.0311 -0.0789
11772DAPE   D4A63002  20.655  32.953   9.217 -0.1610  0.2353  0.0348
11772DAPE   C5A63003  21.070  32.766   9.312  0.0193 -0.2006 -0.0872
11772DAPE   D1B63004  20.289  33.510   8.552 -0.1870 -0.1406 -0.0186
11772DAPE   D2B63005  20.432  33.434   8.205 -0.1328  0.1829  0.0112
11772DAPE   D3B63006  20.774  33.125   8.211 -0.1917  0.0843  0.1513
11772DAPE   D4B63007  21.010  33.294   8.528 -0.1579 -0.1783  0.0421
11772DAPE   C5B63008  21.062  32.919   8.801 -0.3726  0.0066 -0.0702
11773DAPE   NH363009   4.100  19.051   5.247  0.0851 -0.0084 -0.1899
11773DAPE   PO463010   4.031  19.439   5.062  0.0069  0.1894  0.2726
11773DAPE   GL163011   3.889  19.579   5.510  0.0460  0.0859 -0.2249
11773DAPE   GL263012   4.168  19.417   5.577  0.0029  0.0590  0.0360
11773DAPE   D1A63013   3.686  19.463   5.812  0.2058  0.3317 -0.1469
11773DAPE   D2A63014   3.674  19.430   6.166  0.2194  0.0459  0.1551
11773DAPE   D3A63015   4.139  19.399   6.082  0.2764 -0.1469  0.0724
11773DAPE   D4A63016   3.999  19.889   6.144 -0.1396 -0.0955  0.0045
11773DAPE   C5A63017   4.299  20.077   6.478 -0.2209 -0.2309 -0.0182
11773DAPE   D1B63018   4.352  19.039   5.843  0.2010  0.0422 -0.0901
11773DAPE   D2B63019   3.883  18.994   5.870  0.0776 -0.0333  0.1873
11773DAPE   D3B63020   3.699  18.735   5.519  0.4100  0.4926 -0.0152
11773DAPE   D4B63021   4.027  18.500   5.479  0.0211 -0.0145  0.0534
11773DAPE   C5B63022   4.329  18.439   5.859  0.1024 -0.2009  0.1554
11774DAPE   NH363023  30.782  31.112   6.781 -0.2471  0.2253 -0.0015
11774DAPE   PO463024  30.651  31.456   6.590  0.0574 -0.2199 -0.0515
11774DAPE   GL163025  30.472  31.460   7.012  0.0944  0.0512 -0.2491
11774DAPE   GL263026  30.515  31.173   7.175  0.0518  0.0401 -0.0804
11774DAPE   D1A63027  30.335  31.820   7.159 -0.0319  0.2166  0.0514
11774DAPE   D2A63028  30.224  31.906   7.614  0.0285 -0.1018  0.6152
11774DAPE   D3A63029  29.877  32.114   7.781 -0.2363  0.1334 -0.0121
11774DAPE   D4A63030  29.845  32.481   7.950  0.1595  0.0820 -0.0269
11774DAPE   C5A63031  29.604  32.866   7.657 -0.0381  0.0913  0.2040
11774DAPE   D1B63032  30.054  31.043   7.032  0.1029  0.4421 -0.0925
11774DAPE   D2B63033  30.089  31.398   7.417 -0.0959 -0.4777 -0.2437
11774DAPE   D3B63034  29.687  31.092   7.421  0.2597 -0.0306 -0.0753
11774DAPE   D4B63035  29.654  31.312   7.704 -0.0846 -0.1722 -0.2772
11774DAPE   C5B63036  30.013  31.618   7.908  0.0085 -0.2871  0.0250
11775DAPE   NH363037  12.226  34.530  14.743 -0.0753 -0.1927  0.3481
11775DAPE   PO463038  12.438  34.105  14.547 -0.1683 -0.3994 -0.0275
11775DAPE   GL163039  12.711  34.539  14.636  0.0467 -0.2747  0.0736
11775DAPE   GL263040  13.111  34.528  14.648 -0.1580 -0.0625  0.0779
11775DAPE   D1A63041  12.819  34.903  14.866 -0.1222  0.2011 -0.1035
11775DAPE   D2A63042  12.473  35.227  14.951  0.2302  0.2838  0.3475
11775DAPE   D3A63043  12.872  35.260  15.168  0.0309  0.0719  0.0081
11775DAPE   D4A63044  12.834   0.117  14.826 -0.1782  0.0653  0.0743
11775DAPE   C5A63045  12.646   0.521  14.881 -0.3166 -0.0705 -0.0736
11775DAPE   D1B63046  13.263  34.705  14.350 -0.1530  0.1360  0.0683
11775DAPE   D2B63047  12.957  34.857  14.301 -0.0970 -0.0421  0.1440
11775DAPE   D3B63048  12.832  35.208  14.420 -0.0110 -0.2254 -0.0586
11775DAPE   D4B63049  13.210  35.150  14.672 -0.0793 -0.1637 -0.1000
11775DAPE   C5B63050  13.439   0.008  14.891 -0.1786 -0.1577  0.2587
11776DAPE   NH363051  20.547  15.864   5.235  0.1349 -0.2935  0.1648
11776DAPE   PO463052  20.904  15.841   4.867 -0.1805  0.0521 -0.0971
11776DAPE   GL163053  21.145  15.535   4.998 -0.0751 -0.0630 -0.2523
11776DAPE   GL263054  21.420  15.674   5.196  0.1040  0.2656 -0.0899
11776DAPE   D1A63055  21.322  15.195   5.063 -0.0780 -0.0230  0.0704
11776DAPE   D2A63056  21.656  15.223   5.329 -0.0619 -0.0281 -0.4811
11776DAPE   D3A63057  21.929  14.940   5.548 -0.2318 -0.1421  0.0751
11776DAPE   D4A63058  22.151  14.593   5.493  0.0455  0.1560 -0.5069
11776DAPE   C5A63059  22.125  14.306   5.295  0.4699 -0.0753 -0.2396
11776DAPE   D1B63060  21.858  15.913   5.172  0.0988 -0.4124  0.2871
11776DAPE   D2B63061  22.235  15.894   5.258  0.0383 -0.0015 -0.0511
11776DAPE   D3B63062  22.247  15.802   5.629 -0.1439 -0.0063  0.0653
11776DAPE   D4B63063  21.864  15.623   5.655 -0.1680 -0.0535  0.0063
11776DAPE   C5B63064  21.679  15.717   6.026  0.4352  0.3019  0.1324
11777DAPE   NH363065  11.193  18.790  15.059  0.4263  0.0509  0.1433
11777DAPE   PO463066  10.877  18.540  14.724 -0.0639 -0.1358 -0.1224
11777DAPE   GL163067  10.886  18.397  15.126  0.0445  0.0992  0.3930
11777DAPE   GL263068  11.239  18.244  15.302  0.0916  0.2066 -0.2214
11777DAPE   D1A63069  10.825  18.121  15.500  0.2611  0.2104  0.0653
11777DAPE   D2A63070  10.605  17.938  15.873  0.0392  0.1096  0.0246
11777DAPE   D3A63071  10.455  17.982  16.218  0.0217 -0.1699  0.0268
11777DAPE   D4A63072  10.606  17.773  16.486  0.3095  0.2813 -0.0811
11777DAPE   C5A63073  10.727  17.375  16.451  0.2504 -0.0474  0.2556
11777DAPE   D1B63074  11.467  17.934  15.149 -0.1956 -0.0057  0.1333
11777DAPE   D2B63075  11.510  17.592  15.338  0.2731  0.0937 -0.0781
11777DAPE   D3B63076  11.410  17.235  15.573  0.1266 -0.1599 -0.0103
11777DAPE   D4B63077  11.325  17.393  15.915 -0.0201  0.0109 -0.0742
11777DAPE   C5B63078  11.130  17.288  16.215 -0.1374 -0.1980 -0.2931
11778DAPE   NH363079  25.133   3.516   5.773  0.1815 -0.1467  0.0568
11778DAPE   PO463080  25.031   3.916   5.963 -0.2568 -0.0477  0.2003
11778DAPE   GL163081  25.013   4.313   6.266  0.0809  0.0142 -0.0163
11778DAPE   GL263082  24.895   4.331   6.551  0.0156  0.0846  0.4366
11778DAPE   D1A63083  25.187   4.792   6.425 -0.2029  0.3895  0.1990
11778DAPE   D2A63084  25.199   4.699   6.858  0.1323 -0.0688  0.0952
11778DAPE   D3A63085  24.847   4.954   6.742  0.2052  0.5743  0.2411
11778DAPE   D4A63086  25.037   5.218   6.965 -0.0843 -0.1262 -0.0718
11778DAPE   C5A63087  25.154   5.647   6.784 -0.1826  0.3543  0.3595
11778DAPE   D1B63088  25.010   4.109   6.869 -0.0415  0.0441 -0.1797
11778DAPE   D2B63089  24.670   4.121   7.101  0.0385  0.0920 -0.0251
11778DAPE   D3B63090  24.716   4.592   7.029 -0.0845 -0.1066 -0.0913
11778DAPE   D4B63091  24.677   4.834   7.439 -0.1593 -0.3039 -0.1109
11778DAPE   C5B63092  24.924   4.773   7.766 -0.0423 -0.1103 -0.0012
11779DAPE   NH363093   2.360  23.311   5.004  0.2251  0.0594 -0.1434
11779DAPE   PO463094   2.649  23.133   5.262 -0.3582  0.0414 -0.0116
11779DAPE   GL163095   2.402  22.843   5.500 -0.0839  0.1998 -0.2318
11779DAPE   GL263096   2.445  22.976   5.826  0.1204 -0.1009  0.0533
11779DAPE   D1A63097   2.276  22.481   5.650  0.2658 -0.1471  0.0538
11779DAPE   D2A63098   2.252  22.587   6.039 -0.0531  0.1472 -0.3608
11779DAPE   D3A63099   2.529  22.426   6.297  0.1568 -0.1231  0.3840
11779DAPE   D4A63100   2.071  22.231   6.373 -0.2299 -0.1666 -0.0118
11779DAPE   C5A63101   1.854  22.183   6.753 -0.2375  0.1402  0.0571
11779DAPE   D1B63102   2.715  22.947   6.143 -0.1509 -0.2009  0.0541
11779DAPE   D2B63103   2.741  22.629   5.908 -0.0913  0.1191  0.4163
11779DAPE   D3B63104   2.986  22.540   6.303  0.1833 -0.0674  0.0859
11779DAPE   D4B63105   2.870  22.699   6.675  0.2066 -0.4353 -0.3049
11779DAPE   C5B63106   2.992  22.336   6.789 -0.1198 -0.3667 -0.1553
11780DAPE   NH363107  22.576  14.927   2.250 -0.0034 -0.1272 -0.2362
11780DAPE   PO463108  22.826  15.288   2.438 -0.1755  0.1709 -0.1702
11780DAPE   GL163109  22.879  15.469   2.817 -0.0875  0.0623  0.1525
11780DAPE   GL263110  23.163  15.605   2.910  0.2609  0.2590 -0.0836
11780DAPE   D1A63111  22.671  15.788   3.124 -0.1685 -0.1508  0.0417
11780DAPE   D2A63112  22.946  16.010   3.204  0.1221 -0.1415 -0.4110
11780DAPE   D3A63113  23.143  15.671   3.421 -0.2595 -0.0948 -0.2585
11780DAPE   D4A63114  23.332  15.991   3.665 -0.2564 -0.1017 -0.0227
11780DAPE   C5A63115  23.790  16.095   3.623 -0.1398  0.0824  0.0145
11780DAPE   D1B63116  23.255  15.199   3.165 -0.1318  0.0201 -0.0191
11780DAPE   D2B63117  23.594  15.025   3.303 -0.0340  0.1536  0.0507
11780DAPE   D3B63118  23.534  14.826   3.707 -0.1253 -0.0956  0.2491
11780DAPE   D4B63119  23.672  14.961   4.049 -0.0970  0.0269  0.0089
11780DAPE   C5B63120  23.916  14.736   4.268 -0.1074  0.3656 -0.2275
11781DAPE   NH363121  20.884  31.261   8.094 -0.1260 -0.1197  0.0023
11781DAPE   PO463122  21.249  31.381   7.983  0.0637 -0.0081 -0.1350
11781DAPE   GL163123  21.567  31.329   8.374  0.1956 -0.0035 -0.4188
11781DAPE   GL263124  21.609  31.705   8.378  0.2126 -0.0300 -0.1775
11781DAPE   D1A63125  21.791  31.119   8.687  0.1821  0.2489 -0.1279
11781DAPE   D2A63126  22.007  31.227   9.024  0.1285 -0.0173  0.3369
11781DAPE   D3A63127  22.288  31.569   9.083 -0.1471  0.0270  0.2054
11781DAPE   D4A63128  22.334  31.835   9.525 -0.5660  0.1984 -0.0973
11781DAPE   C5A63129  22.292  31.744   9.896 -0.2441 -0.2172  0.2060
11781DAPE   D1B63130  21.953  31.936   8.290 -0.1082 -0.0998 -0.3435
11781DAPE   D2B63131  22.060  31.809   8.636 -0.0337 -0.1029  0.0921
11781DAPE   D3B63132  22.120  31.491   8.598 -0.0677 -0.1316 -0.1596
11781DAPE   D4B63133  22.551  31.540   8.498 -0.2019 -0.0214  0.1579
11781DAPE   C5B63134  22.798  31.455   8.857 -0.1742 -0.1946  0.1957
11782DAPE   NH363135   6.091   3.415  12.269  0.5282  0.3520 -0.1088
11782DAPE   PO463136   6.303   3.769  12.341  0.1701 -0.0295 -0.0796
11782DAPE   GL163137   5.823   3.687  12.562  0.0218  0.1912  0.1195
11782DAPE   GL263138   5.475   3.753  12.431  0.1019 -0.2058 -0.1353
11782DAPE   D1A63139   5.773   3.549  12.921 -0.0400 -0.4279  0.0266
11782DAPE   D2A63140   5.474   3.280  12.921  0.2850  0.0653  0.0131
11782DAPE   D3A63141   5.740   3.200  13.293 -0.0144  0.1277 -0.0364
11782DAPE   D4A63142   5.896   3.473  13.505 -0.2966 -0.1319  0.1574
11782DAPE   C5A63143   5.926   3.491  14.015 -0.0580 -0.0067  0.1444
11782DAPE   D1B63144   5.120   3.650  12.124  0.0550 -0.1802  0.1466
11782DAPE   D2B63145   5.169   3.792  11.757 -0.2708 -0.0803 -0.0089
11782DAPE   D3B63146   4.821   3.657  11.624 -0.3665  0.2123  0.3851
11782DAPE   D4B63147   4.681   3.850  11.941  0.0834  0.0045  0.0355
11782DAPE   C5B63148   4.528   3.665  12.343 -0.1099  0.1484 -0.6121
11783DAPE   NH363149   7.644  18.406  11.212 -0.2001  0.1595 -0.1999
11783DAPE   PO463150   7.497  18.784  11.483  0.5010 -0.4015  0.1008
11783DAPE   GL163151   6.865  18.859  11.495  0.3250  0.0757 -0.3614
11783DAPE   GL263152   6.653  18.593  11.411  0.1241  0.0918  0.0580
11783DAPE   D1A63153   6.452  19.049  11.342  0.1369 -0.2338 -0.0719
11783DAPE   D2A63154   6.030  19.016  11.330  0.1767  0.1247  0.0812
11783DAPE   D3A63155   5.941  19.216  10.887 -0.0724 -0.4064  0.0303
11783DAPE   D4A63156   5.855  19.057  10.547  0.0544 -0.1982  0.1209
11783DAPE   C5A63157   5.500  18.939  10.553 -0.0105 -0.0421  0.0541
11783DAPE   D1B63158   6.631  18.425  11.762 -0.0060 -0.1202  0.4812
11783DAPE   D2B63159   6.316  18.121  11.657  0.0583  0.0688 -0.2943
11783DAPE   D3B63160   5.868  18.137  11.853  0.0548 -0.0592  0.1744
11783DAPE   D4B63161   5.540  18.397  11.614  0.1186 -0.2089  0.0983
11783DAPE   C5B63162   5.182  18.307  11.776  0.1111  0.2606 -0.0246
11784DAPE   NH363163   4.927  18.746   7.047 -0.2253  0.3517  0.0378
11784DAPE   PO463164   5.072  19.064   7.219  0.0802  0.0459 -0.4520
11784DAPE   GL163165   4.798  19.269   7.006  0.2830  0.1801 -0.1688
11784DAPE   GL263166   4.545  19.293   7.214 -0.0890 -0.0950  0.2754
11784DAPE   D1A63167   4.446  19.435   6.775 -0.4843 -0.3696  0.0923
11784DAPE   D2A63168   4.062  19.274   6.946 -0.0907  0.0727  0.0625
11784DAPE   D3A63169   3.837  19.250   7.301 -0.0694  0.0862 -0.1516
11784DAPE   D4A63170   4.108  19.395   7.503 -0.1362  0.0144  0.4275
11784DAPE   C5A63171   4.120  19.291   7.918  0.1057 -0.3335 -0.1949
11784DAPE   D1B63172   4.409  18.910   6.998  0.0376  0.0028 -0.4411
11784DAPE   D2B63173   4.367  18.987   6.644  0.1351 -0.0055 -0.0404
11784DAPE   D3B63174   3.968  19.154   6.478  0.2195  0.0576 -0.0768
11784DAPE   D4B63175   3.901  19.589   6.575 -0.0935  0.1903  0.0300
11784DAPE   C5B63176   3.483  19.678   6.837  0.2038 -0.1791 -0.2358
11785DAPE   NH363177  28.770  22.860  25.899 -0.2440 -0.1279 -0.3141
11785DAPE   PO463178  28.690  23.005   0.074  0.1365 -0.2082  0.1594
11785DAPE   GL163179  28.682  22.673   0.360 -0.0347  0.0585  0.0501
11785DAPE   GL263180  28.358  22.580   0.480  0.0298 -0.1859 -0.0076
11785DAPE   D1A63181  28.859  22.385   0.661  0.1882  0.3605 -0.0145
11785DAPE   D2A63182  28.836  22.755   0.906  0.0354 -0.0573 -0.2008
11785DAPE   D3A63183  28.855  22.377   1.164 -0.1162 -0.0179 -0.1386
11785DAPE   D4A63184  28.535  22.258   1.431 -0.2121  0.1156 -0.3003
11785DAPE   C5A63185  28.493  22.007   1.813  0.1021  0.1069  0.1829
11785DAPE   D1B63186  28.387  22.593   0.966  0.0716 -0.1497 -0.1339
11785DAPE   D2B63187  28.063  22.117   1.081  0.0698 -0.1435 -0.3100
11785DAPE   D3B63188  27.939  22.452   0.776 -0.1617  0.4436 -0.0961
11785DAPE   D4B63189  28.011  22.621   1.230 -0.2589 -0.0391 -0.2526
11785DAPE   C5B63190  28.086  22.345   1.535  0.0723  0.2080 -0.2899
11786DAPE   NH363191  23.228  20.707   2.693  0.0940  0.0438 -0.0037
11786DAPE   PO463192  23.308  20.486   2.322  0.0326 -0.0889  0.0276
11786DAPE   GL163193  23.672  20.516   2.581  0.1574  0.5658  0.1138
11786DAPE   GL263194  23.545  20.450   2.970  0.0809  0.2450  0.2236
11786DAPE   D1A63195  24.022  20.416   2.869 -0.0303 -0.1229 -0.2112
11786DAPE   D2A63196  23.854  20.169   3.239 -0.3378 -0.1958 -0.1021
11786DAPE   D3A63197  23.716  19.729   3.177  0.1926 -0.0203  0.1773
11786DAPE   D4A63198  24.104  19.513   3.316 -0.0616 -0.2059 -0.1899
11786DAPE   C5A63199  24.336  19.557   3.750  0.2978  0.3792  0.0313
11786DAPE   D1B63200  23.348  20.076   2.956 -0.2554 -0.1686  0.2267
11786DAPE   D2B63201  23.240  19.688   2.771  0.0530 -0.2654  0.1396
11786DAPE   D3B63202  23.196  19.572   3.190  0.1958 -0.0923  0.0658
11786DAPE   D4B63203  23.100  19.271   3.367 -0.0220  0.0622 -0.1372
11786DAPE   C5B63204  22.763  19.254   3.598  0.1347  0.0651 -0.1027
11787DAPE   NH363205  21.890  22.298   6.357  0.0382  0.0667  0.2148
11787DAPE   PO463206  21.791  22.300   5.877 -0.1394 -0.1696  0.1571
11787DAPE   GL163207  22.269  22.265   5.898 -0.2705  0.0605 -0.3124
11787DAPE   GL263208  22.354  22.423   6.147 -0.2526  0.3251 -0.1000
11787DAPE   D1A63209  22.512  22.464   5.603 -0.1604 -0.0964  0.2208
11787DAPE   D2A63210  22.853  22.821   5.808 -0.1790  0.1031  0.1820
11787DAPE   D3A63211  22.713  22.948   6.186 -0.2000 -0.0853  0.1023
11787DAPE   D4A63212  22.562  23.316   5.938  0.3533  0.2724 -0.0799
11787DAPE   C5A63213  22.959  23.370   5.882  0.1002  0.1479 -0.2453
11787DAPE   D1B63214  22.691  22.118   6.109  0.2337 -0.2195  0.0383
11787DAPE   D2B63215  22.812  22.379   6.349 -0.1404 -0.0764  0.1874
11787DAPE   D3B63216  23.042  22.368   5.902 -0.0470 -0.1391  0.2679
11787DAPE   D4B63217  23.314  22.118   6.164 -0.0498 -0.0551  0.2855
11787DAPE   C5B63218  23.379  21.924   6.591  0.1578  0.1562 -0.0686
11788PAPS   CNO63219  23.029  11.424   4.176 -0.0639  0.0091 -0.0324
11788PAPS   PO463220  22.857  11.191   4.506  0.0305  0.2490  0.1141
11788PAPS   GL163221  23.165  10.947   4.816  0.1384 -0.0525  0.4425
11788PAPS   GL263222  23.454  11.039   4.778 -0.2122 -0.1449 -0.1558
11788PAPS   D1A63223  23.299  10.698   5.155 -0.2605 -0.2129 -0.2338
11788PAPS   D2A63224  23.594  10.389   5.199 -0.1747 -0.3902 -0.0051
11788PAPS   D3A63225  23.232  10.281   5.545  0.1181 -0.0555 -0.0465
11788PAPS   D4A63226  23.619  10.400   5.719  0.0417  0.0668  0.1555
11788PAPS   C5A63227  23.931  10.140   5.591  0.2920 -0.0029 -0.0627
11788PAPS   C1B63228  23.803  10.980   5.115 -0.1307  0.2842 -0.2121
11788PAPS   C2B63229  24.040  11.023   5.474 -0.0208  0.1351  0.0661
11788PAPS   C3B63230  24.062  10.862   5.798 -0.0746 -0.0215  0.3843
11788PAPS   C4B63231  24.137  10.472   6.031 -0.1699  0.1907 -0.0568
11789PAPS   CNO63232  25.853   9.789   2.127 -0.1171 -0.0410  0.4427
11789PAPS   PO463233  25.620   9.688   2.385 -0.2777 -0.1734  0.0731
11789PAPS   GL163234  25.689   9.715   2.832  0.0816 -0.3276  0.1590
11789PAPS   GL263235  25.956   9.719   2.792  0.0140 -0.1692  0.1126
11789PAPS   D1A63236  25.560   9.876   3.174  0.1398  0.2312 -0.0938
11789PAPS   D2A63237  25.213   9.662   3.417 -0.1937 -0.1429  0.0719
11789PAPS   D3A63238  25.482   9.428   3.548 -0.0425  0.2166  0.5149
11789PAPS   D4A63239  25.605   9.899   3.670 -0.1330 -0.0353 -0.2089
11789PAPS   C5A63240  25.378  10.108   3.632 -0.0909 -0.0927  0.3167
11789PAPS   C1B63241  26.052   9.841   3.184  0.1203 -0.0401  0.2442
11789PAPS   C2B63242  26.049   9.690   3.708 -0.3655 -0.1093 -0.1202
11789PAPS   C3B63243  25.949  10.018   3.976 -0.1850  0.1337  0.0675
11789PAPS   C4B63244  26.096  10.375   4.094 -0.2435  0.0220 -0.3388
11790PAPS   CNO63245  17.988   5.609  12.769 -0.2585  0.3888 -0.0843
11790PAPS   PO463246  17.630   5.855  12.600 -0.2724 -0.1865 -0.1694
11790PAPS   GL163247  17.746   5.888  13.079  0.0865  0.0116  0.2838
11790PAPS   GL263248  17.843   6.210  13.337  0.0928 -0.0189 -0.1117
11790PAPS   D1A63249  17.783   5.631  13.504 -0.1135 -0.0092 -0.1734
11790PAPS   D2A63250  17.763   5.217  13.462 -0.0197 -0.1828 -0.0028
11790PAPS   D3A63251  18.103   5.283  13.784 -0.2645 -0.1005  0.1711
11790PAPS   D4A63252  18.312   5.074  14.102  0.3789 -0.0786 -0.0772
11790PAPS   C5A63253  18.320   5.187  14.487 -0.3197  0.1128  0.0511
11790PAPS   C1B63254  17.827   6.072  13.740  0.2734  0.1446  0.2348
11790PAPS   C2B63255  18.020   5.840  14.010  0.1554 -0.0568  0.2942
11790PAPS   C3B63256  17.931   5.400  14.271 -0.2475 -0.1880 -0.2286
11790PAPS   C4B63257  17.628   5.314  14.510  0.1065  0.0219  0.3545
11791PAPS   CNO63258  15.381   1.146  11.633  0.2585  0.4220  0.0186
11791PAPS   PO463259  15.389   0.739  11.793 -0.1737 -0.0930  0.1625
11791PAPS   GL163260  15.786   0.644  11.999  0.0684  0.1485 -0.2064
11791PAPS   GL263261  15.861   0.539  12.340 -0.5684  0.0033  0.1115
11791PAPS   D1A63262  16.103   0.976  11.926 -0.4612 -0.1037 -0.1002
11791PAPS   D2A63263  16.530   1.209  12.053  0.0872 -0.6060  0.0902
11791PAPS   D3A63264  16.226   1.407  12.216  0.1146  0.2428  0.2919
11791PAPS   D4A63265  16.503   1.573  12.419 -0.0974 -0.3495  0.1034
11791PAPS   C5A63266  16.516   1.659  12.844 -0.0058  0.0961 -0.2792
11791PAPS   C1B63267  16.164   0.564  12.562 -0.0359 -0.0434 -0.2296
11791PAPS   C2B63268  16.391   0.568  12.874 -0.0721 -0.3197  0.0626
11791PAPS   C3B63269  16.782   0.616  13.029 -0.1591 -0.0934 -0.4231
11791PAPS   C4B63270  17.232   0.662  13.126  0.1245 -0.2322 -0.3154
11792PAPS   CNO63271  21.089  31.066   7.601 -0.3715 -0.0229 -0.2163
11792PAPS   PO463272  20.818  30.759   7.889  0.0104 -0.0902  0.1039
11792PAPS   GL163273  21.240  30.720   8.015 -0.0372 -0.2074 -0.1433
11792PAPS   GL263274  21.346  30.955   8.188 -0.0516  0.1072  0.2668
11792PAPS   D1A63275  21.586  30.612   7.810 -0.1742 -0.2390 -0.2614
11792PAPS   D2A63276  21.645  30.191   7.716 -0.2083  0.1488  0.0566
11792PAPS   D3A63277  21.931  30.000   7.970 -0.1024  0.2355 -0.2805
11792PAPS   D4A63278  22.121  29.867   8.286  0.2589  0.0889  0.0333
11792PAPS   C5A63279  22.412  29.938   8.610 -0.1538 -0.2867 -0.2389
11792PAPS   C1B63280  21.665  30.719   8.352 -0.0262 -0.1747  0.1473
11792PAPS   C2B63281  21.899  30.647   8.591  0.4629 -0.0243  0.0844
11792PAPS   C3B63282  21.925  30.767   8.935 -0.1210  0.1840 -0.1054
11792PAPS   C4B63283  21.727  30.833   9.349 -0.2179 -0.2642 -0.0359
11793PAPS   CNO63284   0.871  28.393   8.312 -0.1681 -0.0463  0.2742
11793PAPS   PO463285   1.255  28.044   8.426 -0.0957  0.2896  0.2076
11793PAPS   GL163286   0.870  27.878   8.571  0.0593 -0.4139 -0.1779
11793PAPS   GL263287   0.585  28.050   8.700 -0.2198 -0.0463  0.1667
11793PAPS   D1A63288   0.574  27.521   8.360 -0.1419  0.0705  0.1088
11793PAPS   D2A63289   0.341  27.549   8.618 -0.1477  0.1684  0.1227
11793PAPS   D3A63290   0.142  27.797   8.765  0.3008  0.1548  0.1878
11793PAPS   D4A63291  35.314  27.580   8.982  0.2048 -0.0209  0.3399
11793PAPS   C5A63292  34.908  27.664   9.065  0.0766 -0.0367  0.0634
11793PAPS   C1B63293   0.367  28.092   9.108 -0.0934 -0.1154 -0.0864
11793PAPS   C2B63294   0.124  27.914   9.355 -0.0816  0.2865 -0.2283
11793PAPS   C3B63295  35.147  27.681   9.502  0.2990  0.0982 -0.2002
11793PAPS   C4B63296  34.895  27.506   9.591  0.1242 -0.0966  0.2755
11794DAPS   CNO63297   1.664  10.600   2.784 -0.1685  0.1385 -0.0692
11794DAPS   PO463298   1.289  10.810   2.753  0.1819  0.0876 -0.0782
11794DAPS   GL163299   0.888  10.840   3.120  0.0978 -0.2830  0.0096
11794DAPS   GL263300   0.939  10.989   3.467  0.0412 -0.0229  0.3410
11794DAPS   D1A63301   0.662  11.258   3.150 -0.0107 -0.0967 -0.1709
11794DAPS   D2A63302   0.636  11.731   3.236 -0.0542 -0.2230  0.3263
11794DAPS   D3A63303   0.399  11.792   3.652  0.1317 -0.0794 -0.1688
11794DAPS   D4A63304   0.040  11.821   3.905 -0.0633 -0.0061 -0.0701
11794DAPS   C5A63305  35.095  11.601   4.026 -0.4291 -0.1039  0.2150
11794DAPS   D1B63306   0.593  11.010   3.584 -0.0569  0.3142 -0.0894
11794DAPS   D2B63307   0.625  10.855   4.017  0.6304  0.0885 -0.0613
11794DAPS   D3B63308   0.464  10.994   4.293  0.1072  0.0893 -0.2827
11794DAPS   D4B63309   0.540  11.391   4.411  0.1848  0.1445  0.1097
11794DAPS   C5B63310   0.756  11.562   4.776  0.0689 -0.0268  0.2845
11795DAPS   CNO63311  34.697  27.157   3.659  0.0189 -0.1601  0.2621
11795DAPS   PO463312  34.744  27.098   4.157 -0.0518  0.0503  0.2791
11795DAPS   GL163313  34.576  26.947   4.491 -0.1506 -0.1930 -0.2494
11795DAPS   GL263314  34.267  26.903   4.369 -0.2188  0.0420  0.0874
11795DAPS   D1A63315  34.392  26.767   4.848 -0.0313 -0.0096 -0.0706
11795DAPS   D2A63316  33.873  26.660   4.803  0.2733 -0.2183 -0.2922
11795DAPS   D3A63317  33.449  26.527   4.805  0.2706  0.2077  0.1396
11795DAPS   D4A63318  33.557  26.252   5.044  0.0327  0.0095 -0.0564
11795DAPS   C5A63319  33.925  26.019   5.338 -0.3195  0.1260  0.3283
11795DAPS   D1B63320  34.247  26.465   4.452  0.3534 -0.0040 -0.0185
11795DAPS   D2B63321  33.845  26.512   4.331 -0.1649  0.2049 -0.0054
11795DAPS   D3B63322  33.577  26.477   4.035  0.1953 -0.1046 -0.1218
11795DAPS   D4B63323  33.509  26.015   3.806 -0.0880  0.2426 -0.2874
11795DAPS   C5B63324  33.591  25.662   4.013 -0.1128 -0.3252 -0.0284
11796DAPS   CNO63325  31.268  13.022  26.037  0.2752 -0.1996  0.2808
11796DAPS   PO463326  31.421  12.736   0.060  0.1681  0.2333 -0.1450
11796DAPS   GL163327  31.448  12.560   0.546 -0.0142  0.3713 -0.0592
11796DAPS   GL263328  31.497  12.719   0.773 -0.1672  0.2424  0.2497
11796DAPS   D1A63329  31.436  12.223   0.868  0.0318 -0.0715 -0.0405
11796DAPS   D2A63330  31.271  12.152   1.334  0.0864 -0.1755  0.1453
11796DAPS   D3A63331  31.534  11.974   1.638  0.3906 -0.2465  0.2844
11796DAPS   D4A63332  31.595  12.387   1.716 -0.2249  0.2474  0.2658
11796DAPS   C5A63333  31.628  12.632   2.066 -0.3714 -0.4032  0.4590
11796DAPS   D1B63334  31.654  12.602   1.210 -0.1533 -0.2219 -0.2267
11796DAPS   D2B63335  31.786  12.165   1.232 -0.0633 -0.8352  0.2947
11796DAPS   D3B63336  32.067  12.449   1.479  0.0725  0.1218  0.1343
11796DAPS   D4B63337  32.387  12.666   1.370  0.0744 -0.0582  0.1613
11796DAPS   C5B63338  32.752  12.639   1.666 -0.1206  0.3644  0.0878
11797DAPS   CNO63339   3.607   2.797   9.015  0.0891 -0.2087  0.0958
11797DAPS   PO463340   3.266   2.455   9.009  0.0977 -0.1125 -0.0194
11797DAPS   GL163341   3.002   2.683   9.321 -0.0863  0.1305 -0.3802
11797DAPS   GL263342   2.618   2.722   9.395 -0.0853  0.3159  0.4199
11797DAPS   D1A63343   3.071   2.628   9.747 -0.0958  0.2982  0.1842
11797DAPS   D2A63344   3.279   3.021   9.755 -0.0981  0.2301  0.0262
11797DAPS   D3A63345   2.865   3.095  10.040 -0.2315 -0.1921 -0.0455
11797DAPS   D4A63346   2.516   2.873   9.918 -0.3627  0.3275 -0.0540
11797DAPS   C5A63347   2.030   2.871   9.768  0.1250 -0.0718 -0.2174
11797DAPS   D1B63348   2.788   3.151   9.562  0.0514  0.0547  0.0827
11797DAPS   D2B63349   2.811   3.469   9.185 -0.1917 -0.2280 -0.2088
11797DAPS   D3B63350   2.617   3.684   9.515  0.2587  0.0286 -0.4540
11797DAPS   D4B63351   2.473   3.444   9.895  0.3473 -0.0379 -0.3109
11797DAPS   C5B63352   2.106   3.753  10.079  0.0108  0.2403  0.0315
11798PRPS   CNO63353  12.849  34.228  14.259  0.2367 -0.0237  0.2856
11798PRPS   PO463354  13.011  33.915  14.148  0.2559 -0.1340  0.0409
11798PRPS   GL163355  13.393  34.027  14.297  0.1352  0.3702  0.2023
11798PRPS   GL263356  13.538  33.980  14.658  0.0566  0.1669  0.1213
11798PRPS   D1A63357  13.653  34.383  14.086 -0.2977  0.0945 -0.0939
11798PRPS   D2A63358  13.988  34.214  14.301  0.1076 -0.0886  0.2512
11798PRPS   D3A63359  13.942  34.650  14.402  0.3480 -0.1941  0.1314
11798PRPS   D4A63360  14.169  35.093  14.323 -0.0275  0.1684  0.0711
11798PRPS   D5A63361  14.604  34.987  14.550  0.2738  0.0737 -0.3734
11798PRPS   D6A63362  14.500  35.372  14.751 -0.0397 -0.0974  0.0884
11798PRPS   C1B63363  13.963  34.305  14.789  0.4098 -0.0029 -0.3278
11798PRPS   C2B63364  14.270  34.560  14.793 -0.0573 -0.0754 -0.2227
11798PRPS   C3B63365  14.387  34.907  15.008  0.0227  0.1422 -0.3547
11798PRPS   C4B63366  14.776  35.093  15.019  0.0980  0.1920  0.0957
11799PRPS   CNO63367   5.811  21.755   7.565  0.0994 -0.1093 -0.3953
11799PRPS   PO463368   5.520  21.519   7.675 -0.1608  0.1403  0.2648
11799PRPS   GL163369   5.109  21.686   7.622 -0.0803  0.1919 -0.0231
11799PRPS   GL263370   4.945  21.902   7.856  0.2784  0.2117 -0.0341
11799PRPS   D1A63371   4.686  21.883   7.392  0.4683  0.1607 -0.0217
11799PRPS   D2A63372   4.299  21.792   7.593  0.0518  0.0824 -0.1524
11799PRPS   D3A63373   4.115  21.863   7.259 -0.1815  0.0642 -0.3783
11799PRPS   D4A63374   3.743  21.798   7.573  0.2161  0.5283 -0.0392
11799PRPS   D5A63375   3.465  21.561   7.517  0.0112 -0.1068 -0.1181
11799PRPS   D6A63376   3.091  21.808   7.579  0.3310 -0.1372  0.0426
11799PRPS   C1B63377   4.976  21.625   8.135  0.2017 -0.0320 -0.0691
11799PRPS   C2B63378   4.858  21.738   8.506 -0.4697 -0.0165  0.2453
11799PRPS   C3B63379   4.788  21.658   8.863  0.4606 -0.0641 -0.3148
11799PRPS   C4B63380   4.629  21.829   9.234 -0.0818  0.2239  0.0454
11800PRPS   CNO63381   1.419  16.250   3.113  0.0296 -0.1581 -0.3373
11800PRPS   PO463382   1.735  15.927   2.952 -0.2554  0.2360 -0.1343
11800PRPS   GL163383   1.490  15.681   3.239 -0.1656  0.0071 -0.1575
11800PRPS   GL263384   1.540  15.702   3.570  0.1239 -0.0449 -0.3173
11800PRPS   D1A63385   1.059  15.854   3.338 -0.1672 -0.1000 -0.0491
11800PRPS   D2A63386   0.791  16.096   3.067  0.1546  0.0314 -0.0255
11800PRPS   D3A63387   0.492  15.841   2.931  0.0680 -0.2046  0.2655
11800PRPS   D4A63388   0.255  15.896   3.258 -0.1396 -0.0539  0.0751
11800PRPS   D5A63389  35.325  16.022   3.587  0.0628 -0.0877 -0.1560
11800PRPS   D6A63390  35.145  15.598   3.539  0.0033  0.1385  0.0121
11800PRPS   C1B63391   1.147  15.860   3.817  0.1688  0.1005 -0.0344
11800PRPS   C2B63392   0.942  15.730   4.181 -0.0641 -0.1178  0.5697
11800PRPS   C3B63393   0.485  15.501   4.129 -0.0094 -0.1498 -0.0472
11800PRPS   C4B63394   0.071  15.558   3.934  0.1115 -0.1174 -0.0650
11801PRPS   CNO63395  26.779  16.777   0.136 -0.0775 -0.2399 -0.1480
11801PRPS   PO463396  27.226  16.668   0.155  0.1102  0.1716 -0.2332
11801PRPS   GL163397  27.517  16.976   0.392  0.0006 -0.0849 -0.3457
11801PRPS   GL263398  27.424  17.366   0.393 -0.0565  0.1765  0.3683
11801PRPS   D1A63399  27.700  16.914   0.688  0.0123 -0.0885 -0.1329
11801PRPS   D2A63400  27.918  16.566   0.680  0.0845 -0.1202 -0.1272
11801PRPS   D3A63401  28.045  16.777   1.059  0.3329  0.1703 -0.0404
11801PRPS   D4A63402  28.424  16.918   1.065 -0.0349 -0.2554  0.0367
11801PRPS   D5A63403  28.135  17.257   1.178 -0.2017  0.1727  0.3100
11801PRPS   D6A63404  28.441  17.158   1.511 -0.1067 -0.3198 -0.2167
11801PRPS   C1B63405  27.680  17.377   0.852  0.2880 -0.2137  0.1675
11801PRPS   C2B63406  27.704  17.548   1.305  0.1611 -0.1266 -0.3985
11801PRPS   C3B63407  27.608  17.398   1.715  0.1317 -0.1018  0.1385
11801PRPS   C4B63408  27.475  17.365   2.058  0.1473 -0.1387  0.0274
11802PRPS   CNO63409   7.998  28.186  16.203 -0.1255  0.0085 -0.1507
11802PRPS   PO463410   8.094  28.320  16.675  0.0284  0.2903 -0.1131
11802PRPS   GL163411   7.987  28.464  17.082 -0.0283 -0.0742 -0.1765
11802PRPS   GL263412   7.661  28.367  17.221 -0.2443 -0.0575  0.1245
11802PRPS   D1A63413   7.844  28.784  17.395 -0.0522 -0.0757 -0.2606
11802PRPS   D2A63414   7.680  28.610  17.740  0.1051 -0.0240  0.1418
11802PRPS   D3A63415   7.776  28.198  17.666  0.2066  0.1567  0.2021
11802PRPS   D4A63416   8.187  28.218  17.639 -0.1235 -0.2502  0.0813
11802PRPS   D5A63417   8.077  28.431  18.006  0.4388  0.2824 -0.1489
11802PRPS   D6A63418   8.020  27.948  18.024  0.1969 -0.3142 -0.0681
11802PRPS   C1B63419   7.435  28.761  17.150 -0.2022  0.0114 -0.1218
11802PRPS   C2B63420   7.195  29.017  17.412  0.1086 -0.1717  0.0315
11802PRPS   C3B63421   6.919  29.208  17.596  0.0911  0.0320  0.0669
11802PRPS   C4B63422   6.853  29.434  17.951 -0.2178  0.0576  0.3325
11803PRPS   CNO63423  32.113   8.820   2.197  0.1058 -0.4343  0.2480
11803PRPS   PO463424  32.410   9.187   2.154  0.1798  0.1256  0.2218
11803PRPS   GL163425  32.074   9.410   2.378  0.0925  0.0121 -0.0433
11803PRPS   GL263426  32.260   9.615   2.495  0.2196  0.1573 -0.0071
11803PRPS   D1A63427  31.767   9.646   2.236  0.1291  0.6001  0.0301
11803PRPS   D2A63428  31.912   9.967   2.402 -0.1900  0.3472 -0.0102
11803PRPS   D3A63429  31.561  10.224   2.539  0.2312  0.0810  0.2418
11803PRPS   D4A63430  31.431  10.648   2.407  0.0331  0.0963 -0.0373
11803PRPS   D5A63431  31.140  10.900   2.593  0.0049 -0.0845  0.1508
11803PRPS   D6A63432  30.997  11.294   2.442 -0.2664 -0.0907  0.1035
11803PRPS   C1B63433  32.063   9.892   2.923  0.1259  0.1787  0.2076
11803PRPS   C2B63434  31.849  10.176   3.262  0.0874  0.2454 -0.1633
11803PRPS   C3B63435  31.590  10.431   3.354  0.2742 -0.4034  0.0314
11803PRPS   C4B63436  31.509  10.494   3.783  0.0188  0.4790 -0.1177
11804PRPS   CNO63437  10.228  16.892  13.557 -0.2684 -0.0949 -0.0456
11804PRPS   PO463438  10.167  16.637  13.746  0.0587  0.1310 -0.4651
11804PRPS   GL163439  10.031  16.823  14.062 -0.0744 -0.1736  0.0337
11804PRPS   GL263440   9.740  17.023  14.084 -0.1433 -0.1692  0.1217
11804PRPS   D1A63441  10.048  16.674  14.387 -0.1157  0.1065  0.1570
11804PRPS   D2A63442   9.604  16.530  14.347  0.1992 -0.1486 -0.0190
11804PRPS   D3A63443   9.683  16.452  14.798 -0.2029  0.2951  0.1372
11804PRPS   D4A63444   9.910  16.163  14.761 -0.0546 -0.0178 -0.1225
11804PRPS   D5A63445   9.965  16.096  14.304  0.0597 -0.2294 -0.0300
11804PRPS   D6A63446  10.342  16.365  14.136  0.0927  0.2638  0.0696
11804PRPS   C1B63447   9.693  16.974  14.588 -0.2400  0.1095 -0.0946
11804PRPS   C2B63448   9.654  16.966  14.928 -0.1407  0.2147 -0.1200
11804PRPS   C3B63449   9.531  16.681  15.281  0.1268  0.1350  0.3967
11804PRPS   C4B63450   9.653  16.412  15.677  0.1871  0.1629  0.2167
11805PRPS   CNO63451  29.029  29.401   4.331  0.0482 -0.1203 -0.0073
11805PRPS   PO463452  29.097  29.491   4.765  0.1746  0.0083 -0.1461
11805PRPS   GL163453  28.889  29.387   5.125  0.0309  0.0635  0.1802
11805PRPS   GL263454  29.117  29.411   5.377  0.1118 -0.0377  0.0131
11805PRPS   D1A63455  28.566  29.534   5.335 -0.1263  0.1724  0.2370
11805PRPS   D2A63456  28.377  29.289   5.680  0.0873 -0.2588  0.4187
11805PRPS   D3A63457  28.498  29.174   6.120  0.0769  0.1361 -0.0627
11805PRPS   D4A63458  28.497  29.006   6.526 -0.2432  0.0815 -0.0657
11805PRPS   D5A63459  28.152  28.780   6.836  0.0626  0.0739  0.1782
11805PRPS   D6A63460  28.225  28.580   6.406 -0.1971  0.3060  0.1657
11805PRPS   C1B63461  28.915  29.228   5.692  0.1370 -0.2411 -0.1015
11805PRPS   C2B63462  28.975  28.963   5.956  0.1066 -0.0567 -0.0782
11805PRPS   C3B63463  29.057  28.928   6.394 -0.0000  0.0239  0.1239
11805PRPS   C4B63464  29.148  28.834   6.816  0.0978 -0.0494  0.0946
11806PRPS   CNO63465  31.413  17.757   0.296  0.0394  0.1581  0.1888
11806PRPS   PO463466  31.261  17.940  26.139 -0.3394 -0.0841  0.3237
11806PRPS   GL163467  31.044  18.173   0.174 -0.2466 -0.0917 -0.0563
11806PRPS   GL263468  30.913  18.080   0.289 -0.1566  0.0733  0.0048
11806PRPS   D1A63469  31.074  18.547   0.535 -0.0588 -0.1757  0.0817
11806PRPS   D2A63470  31.429  18.578   0.761  0.2205  0.1236 -0.0137
11806PRPS   D3A63471  31.035  18.765   1.010 -0.1232  0.2982 -0.0276
11806PRPS   D4A63472  31.096  19.020   0.669 -0.2648  0.1039 -0.1763
11806PRPS   D5A63473  31.453  18.906   0.381  0.2083  0.0901 -0.0581
11806PRPS   D6A63474  31.651  18.997   0.837 -0.0203 -0.1462  0.1811
11806PRPS   C1B63475  31.129  18.098   0.672  0.1895 -0.3669  0.1591
11806PRPS   C2B63476  31.123  18.291   1.102  0.3065 -0.0064  0.2050
11806PRPS   C3B63477  30.918  18.416   1.408  0.1013 -0.0756  0.0419
11806PRPS   C4B63478  30.802  18.367   1.841  0.3962 -0.0617  0.0415
11807PRPS   CNO63479   9.698  24.163  17.428  0.0978 -0.0102  0.0092
11807PRPS   PO463480   9.742  24.667  17.580 -0.1177 -0.0781  0.0151
11807PRPS   GL163481   9.786  24.498  17.978  0.1635  0.1274  0.0223
11807PRPS   GL263482   9.725  24.188  17.990 -0.0981  0.1857 -0.2815
11807PRPS   D1A63483   9.913  24.580  18.377  0.0957 -0.2355 -0.1764
11807PRPS   D2A63484  10.328  24.705  18.504 -0.2136  0.2105 -0.2483
11807PRPS   D3A63485  10.477  24.905  18.766 -0.1382  0.2029 -0.0313
11807PRPS   D4A63486  10.400  25.356  18.541  0.1217 -0.0750  0.0505
11807PRPS   D5A63487  10.709  25.232  18.392  0.1797  0.3099 -0.1063
11807PRPS   D6A63488  11.154  25.266  18.479 -0.0979  0.3688 -0.0433
11807PRPS   C1B63489   9.563  24.287  18.412 -0.0701 -0.1824 -0.2200
11807PRPS   C2B63490   9.231  24.423  18.717 -0.2913 -0.0279 -0.0038
11807PRPS   C3B63491   8.994  24.366  19.100  0.0181 -0.0523 -0.4774
11807PRPS   C4B63492   8.650  24.445  19.230  0.0668  0.0605  0.0178
11808PRPS   CNO63493  15.986  31.603  12.142  0.5799  0.0251 -0.0980
11808PRPS   PO463494  16.049  31.413  11.771  0.1986  0.2207  0.0847
11808PRPS   GL163495  16.464  31.489  11.930 -0.0658 -0.0345  0.3997
11808PRPS   GL263496  16.604  31.702  11.843  0.2328 -0.0266  0.0181
11808PRPS   D1A63497  16.506  31.520  12.314 -0.0479 -0.0169 -0.0942
11808PRPS   D2A63498  16.852  31.577  12.448  0.1246  0.1376  0.1167
11808PRPS   D3A63499  17.053  31.163  12.618  0.3311 -0.1670 -0.1665
11808PRPS   D4A63500  16.805  31.025  12.923 -0.2138  0.0367 -0.1217
11808PRPS   D5A63501  16.505  31.058  12.583 -0.2536  0.0179 -0.1033
11808PRPS   D6A63502  16.705  31.071  12.235 -0.1714 -0.1738 -0.0417
11808PRPS   C1B63503  16.974  31.969  11.993  0.3348 -0.2238  0.1468
11808PRPS   C2B63504  17.132  32.138  12.365  0.0945 -0.0683  0.3173
11808PRPS   C3B63505  17.446  32.234  12.729 -0.2039 -0.1456  0.1825
11808PRPS   C4B63506  17.808  32.346  13.009  0.0439 -0.1185 -0.1434
11809PRPS   CNO63507  10.302  23.759  18.013 -0.1385 -0.2306  0.3820
11809PRPS   PO463508  10.506  23.393  18.224 -0.1016 -0.1998 -0.0487
11809PRPS   GL163509  10.216  23.560  18.482  0.4162  0.1591  0.4263
11809PRPS   GL263510  10.257  23.849  18.736 -0.1920  0.1408  0.1444
11809PRPS   D1A63511   9.828  23.328  18.606 -0.0865  0.0329  0.1097
11809PRPS   D2A63512   9.723  23.409  19.062  0.1289  0.0451  0.0013
11809PRPS   D3A63513   9.650  23.596  19.466 -0.1327 -0.1607 -0.1400
11809PRPS   D4A63514   9.616  24.028  19.519 -0.1999  0.0145 -0.2846
11809PRPS   D5A63515   9.948  24.203  19.433  0.1131 -0.0469  0.2197
11809PRPS   D6A63516   9.952  23.826  19.135  0.1997  0.1189  0.2161
11809PRPS   C1B63517  10.423  23.829  19.204 -0.1141  0.1926 -0.2486
11809PRPS   C2B63518  10.355  23.699  19.601 -0.1341  0.2926  0.2876
11809PRPS   C3B63519  10.413  23.423  19.869  0.0090  0.0520 -0.1174
11809PRPS   C4B63520  10.606  23.034  19.825  0.0240 -0.2784 -0.0874
11810PRPS   CNO63521  30.437   9.616   0.700  0.1064 -0.0500  0.2062
11810PRPS   PO463522  30.548  10.025   0.815 -0.1213  0.0139  0.2652
11810PRPS   GL163523  30.592   9.975   1.283  0.1096 -0.0101 -0.0920
11810PRPS   GL263524  30.672   9.903   1.620 -0.0536 -0.2434 -0.3244
11810PRPS   D1A63525  30.272  10.221   1.583  0.0541 -0.1065 -0.1420
11810PRPS   D2A63526  30.112  10.288   1.213 -0.1349 -0.2175 -0.2624
11810PRPS   D3A63527  30.397  10.655   1.348 -0.0750  0.1328 -0.2256
11810PRPS   D4A63528  30.038  10.665   1.558  0.5375 -0.0536  0.2588
11810PRPS   D5A63529  29.914  11.046   1.454  0.0351 -0.0429  0.0643
11810PRPS   D6A63530  29.933  10.745   1.029  0.1555 -0.0448 -0.1222
11810PRPS   C1B63531  30.609  10.040   2.011 -0.1150 -0.2354  0.1861
11810PRPS   C2B63532  30.381  10.015   2.335 -0.1620  0.0443  0.1277
11810PRPS   C3B63533  30.099  10.167   2.495 -0.0575  0.0857  0.3624
11810PRPS   C4B63534  29.836  10.350   2.819 -0.0250  0.3549  0.0422
11811PRPS   CNO63535  14.049   2.303  12.248 -0.0861 -0.2593 -0.1896
11811PRPS   PO463536  14.286   2.395  12.612  0.0914 -0.2266 -0.1707
11811PRPS   GL163537  14.547   2.094  12.859  0.1487  0.1164 -0.0024
11811PRPS   GL263538  14.714   2.234  13.079  0.1182  0.0498  0.2144
11811PRPS   D1A63539  14.742   1.710  13.081  0.1220  0.0760  0.2999
11811PRPS   D2A63540  15.026   1.579  13.435  0.0836  0.1543 -0.1154
11811PRPS   D3A63541  15.265   1.374  13.228 -0.1367  0.0335  0.0823
11811PRPS   D4A63542  15.146   1.085  13.504 -0.0290 -0.0918  0.0758
11811PRPS   D5A63543  14.839   1.189  13.144 -0.3310 -0.0577  0.0760
11811PRPS   D6A63544  14.655   1.011  12.855 -0.2434 -0.0207  0.0876
11811PRPS   C1B63545  14.838   2.040  13.483 -0.1448 -0.0298  0.0980
11811PRPS   C2B63546  15.004   1.892  13.835 -0.2367 -0.1375 -0.1797
11811PRPS   C3B63547  15.326   1.862  14.061  0.2712 -0.2107  0.0572
11811PRPS   C4B63548  15.658   1.893  14.150 -0.2284 -0.1933  0.0373
11812PRPS   CNO63549   0.458  26.479   5.255  0.0529 -0.0619  0.0882
11812PRPS   PO463550   0.094  26.281   5.055 -0.0631 -0.2908 -0.2414
11812PRPS   GL163551  35.103  26.432   5.148 -0.1241  0.1758  0.0192
11812PRPS   GL263552  35.033  26.355   5.399 -0.1679  0.3454  0.0239
11812PRPS   D1A63553  34.643  26.186   5.095 -0.4568  0.1160  0.1229
11812PRPS   D2A63554  34.410  26.206   5.357 -0.2542 -0.1587  0.1393
11812PRPS   D3A63555  34.082  26.468   5.268 -0.0922 -0.1154  0.0207
11812PRPS   D4A63556  34.166  26.278   4.902 -0.1064  0.0452  0.1048
11812PRPS   D5A63557  33.866  26.098   4.703 -0.2954  0.0216  0.0170
11812PRPS   D6A63558  33.574  26.061   4.374  0.1503 -0.1964  0.3793
11812PRPS   C1B63559  34.742  26.340   5.679 -0.1163  0.0209  0.1597
11812PRPS   C2B63560  34.469  26.024   5.883 -0.0079 -0.1690  0.2970
11812PRPS   C3B63561  34.527  26.041   6.351  0.0161  0.0401  0.0173
11812PRPS   C4B63562  34.215  25.925   6.644 -0.2610 -0.1470  0.2244
11813PRPS   CNO63563  15.514  29.707  12.390  0.3201 -0.0209  0.0305
11813PRPS   PO463564  15.761  29.775  12.740  0.3251 -0.1955  0.4759
11813PRPS   GL163565  15.999  30.048  13.031  0.2258 -0.4317  0.0987
11813PRPS   GL263566  16.162  29.844  13.144  0.0961  0.0737 -0.1304
11813PRPS   D1A63567  16.055  30.527  13.235  0.0808  0.0039  0.1831
11813PRPS   D2A63568  16.453  30.629  13.051 -0.1790 -0.2453 -0.3767
11813PRPS   D3A63569  16.384  31.034  13.211 -0.1302 -0.1246 -0.2117
11813PRPS   D4A63570  16.003  31.261  12.987  0.2591  0.0417 -0.3655
11813PRPS   D5A63571  15.894  31.001  13.268  0.1556  0.2612 -0.0889
11813PRPS   D6A63572  15.747  31.298  13.404  0.3024 -0.1132  0.0281
11813PRPS   C1B63573  16.434  30.160  13.376  0.1014 -0.0011  0.0043
11813PRPS   C2B63574  16.743  30.420  13.535  0.3555 -0.2336 -0.2951
11813PRPS   C3B63575  17.169  30.563  13.627 -0.2088 -0.1603  0.1057
11813PRPS   C4B63576  17.459  30.668  13.770  0.1844  0.0605  0.1210
11814PRPS   CNO63577  35.355  10.787   2.591 -0.0315 -0.0113 -0.0223
11814PRPS   PO463578   0.069  10.524   2.955 -0.0075 -0.2144  0.2382
11814PRPS   GL163579   0.010  11.026   3.051 -0.1891  0.2571  0.0123
11814PRPS   GL263580  35.042  11.042   3.124 -0.1179  0.3605 -0.0859
11814PRPS   D1A63581   0.120  11.298   3.510 -0.0345 -0.0393  0.3915
11814PRPS   D2A63582   0.351  11.374   3.894 -0.3238 -0.3170  0.0150
11814PRPS   D3A63583   0.083  11.352   4.198 -0.1907  0.0841 -0.0196
11814PRPS   D4A63584  35.099  11.007   4.201 -0.2425  0.1008 -0.2371
11814PRPS   D5A63585  35.165  11.070   3.793  0.0857 -0.4660 -0.1405
11814PRPS   D6A63586   0.149  10.933   3.865  0.0606  0.0373 -0.1013
11814PRPS   C1B63587  34.730  11.022   3.409 -0.1974  0.1196  0.1733
11814PRPS   C2B63588  34.689  11.325   3.722  0.3511  0.0284  0.0241
11814PRPS   C3B63589  34.710  11.311   4.154 -0.1118 -0.4199 -0.1154
11814PRPS   C4B63590  34.883  11.191   4.586  0.1304 -0.1965 -0.1612
11815PRPS   CNO63591  11.362  13.410  13.226  0.4554  0.0251  0.1557
11815PRPS   PO463592  11.476  13.703  13.571  0.1088 -0.1945  0.3914
11815PRPS   GL163593  11.746  13.582  13.838  0.0884  0.1452 -0.0870
11815PRPS   GL263594  11.691  13.344  14.046 -0.0284 -0.0534  0.0684
11815PRPS   D1A63595  12.152  13.724  14.058 -0.1530 -0.3375  0.1719
11815PRPS   D2A63596  12.155  13.450  14.321 -0.1789 -0.1591 -0.2618
11815PRPS   D3A63597  11.701  13.629  14.505 -0.1118  0.1657 -0.2794
11815PRPS   D4A63598  11.522  13.283  14.557 -0.1242  0.1879  0.1756
11815PRPS   D5A63599  11.177  13.356  14.313  0.0113 -0.3483  0.1467
11815PRPS   D6A63600  11.216  12.950  14.229  0.0210  0.0168 -0.0248
11815PRPS   C1B63601  11.766  13.061  14.212  0.1915  0.0678  0.0428
11815PRPS   C2B63602  11.747  12.743  14.542  0.1307  0.2828  0.0704
11815PRPS   C3B63603  11.659  12.574  14.857  0.1993  0.0518 -0.2850
11815PRPS   C4B63604  11.612  12.589  15.336  0.4506 -0.1598 -0.0764
11816PRPS   CNO63605  33.394  16.585   0.714 -0.0364 -0.2096  0.0413
11816PRPS   PO463606  33.026  16.784   0.808  0.2133 -0.1084 -0.0881
11816PRPS   GL163607  32.578  16.751   0.918  0.0292 -0.1010  0.2550
11816PRPS   GL263608  32.619  16.575   1.167 -0.0098  0.0662  0.0360
11816PRPS   D1A63609  32.284  17.041   1.185  0.0909 -0.0671  0.0090
11816PRPS   D2A63610  31.864  17.123   1.047  0.3370  0.1203 -0.1097
11816PRPS   D3A63611  31.985  17.234   1.498  0.0807 -0.1010 -0.0580
11816PRPS   D4A63612  32.395  17.236   1.581 -0.1790 -0.2029 -0.0070
11816PRPS   D5A63613  32.297  17.190   2.036  0.1046 -0.0081 -0.0104
11816PRPS   D6A63614  32.400  17.417   2.375  0.1499 -0.0932 -0.2032
11816PRPS   C1B63615  32.376  16.673   1.510  0.0842 -0.1705  0.1910
11816PRPS   C2B63616  32.157  16.792   1.871  0.2656  0.0190 -0.2196
11816PRPS   C3B63617  32.034  16.763   2.208 -0.0509 -0.1637 -0.0518
11816PRPS   C4B63618  31.959  16.684   2.575 -0.0463 -0.1727  0.1946
11817PRPS   CNO63619  19.898  25.574   9.683  0.1818 -0.1578 -0.1951
11817PRPS   PO463620  19.691  25.872   9.891  0.1802  0.0463  0.2307
11817PRPS   GL163621  19.805  25.524  10.228 -0.0655 -0.0166 -0.1717
11817PRPS   GL263622  20.032  25.274  10.383  0.2025  0.1731 -0.1761
11817PRPS   D1A63623  19.584  25.379  10.586 -0.2027  0.2850  0.1611
11817PRPS   D2A63624  19.155  25.645  10.749  0.0965 -0.1061  0.0614
11817PRPS   D3A63625  19.127  25.967  11.036 -0.0108 -0.2401 -0.3527
11817PRPS   D4A63626  19.385  25.917  11.335 -0.3303  0.1487 -0.2862
11817PRPS   D5A63627  19.197  25.527  11.443  0.0947 -0.0995 -0.1271
11817PRPS   D6A63628  19.138  25.303  11.110  0.1668 -0.0295  0.0527
11817PRPS   C1B63629  20.307  25.289  10.718  0.2288 -0.0563  0.0926
11817PRPS   C2B63630  20.644  25.336  10.966  0.0948 -0.1862  0.1396
11817PRPS   C3B63631  21.020  25.226  11.142  0.2996 -0.1531 -0.2808
11817PRPS   C4B63632  21.420  25.342  11.112  0.0096 -0.0656  0.2566
11818PRPS   CNO63633  13.456  33.842  13.821 -0.1152  0.0408  0.3804
11818PRPS   PO463634  13.537  33.512  14.097  0.2136  0.3764 -0.0872
11818PRPS   GL163635  13.920  33.715  14.398  0.1477 -0.0816  0.4042
11818PRPS   GL263636  13.779  33.537  14.712  0.1347  0.2031 -0.0200
11818PRPS   D1A63637  14.373  33.618  14.289  0.1257 -0.2863 -0.0522
11818PRPS   D2A63638  14.382  33.987  14.056  0.0712  0.0273 -0.0238
11818PRPS   D3A63639  14.379  34.491  14.280 -0.0411 -0.1946 -0.2712
11818PRPS   D4A63640  14.693  34.733  14.061 -0.3223 -0.2421 -0.0157
11818PRPS   D5A63641  14.378  34.873  13.939 -0.0243 -0.3814 -0.0011
11818PRPS   D6A63642  14.075  34.547  13.876  0.1634  0.3016 -0.2978
11818PRPS   C1B63643  14.105  33.817  14.883  0.0785 -0.2325  0.1821
11818PRPS   C2B63644  14.391  34.099  15.145 -0.0493  0.0754 -0.0144
11818PRPS   C3B63645  14.520  34.451  15.355  0.1386 -0.2352  0.2476
11818PRPS   C4B63646  14.684  34.848  15.506  0.1330 -0.0078 -0.1456
11819PRPS   CNO63647  22.920  13.052   2.625  0.1501  0.0660 -0.1847
11819PRPS   PO463648  23.285  13.094   2.833  0.1495  0.0673 -0.1718
11819PRPS   GL163649  23.337  13.343   3.209  0.0860 -0.2711 -0.1050
11819PRPS   GL263650  23.571  13.377   3.355 -0.0613  0.0750 -0.0596
11819PRPS   D1A63651  23.135  13.490   3.567 -0.1201 -0.2797 -0.0145
11819PRPS   D2A63652  23.514  13.752   3.654 -0.0724 -0.3809 -0.2165
11819PRPS   D3A63653  23.375  13.695   4.073 -0.0621 -0.0493  0.0647
11819PRPS   D4A63654  23.807  14.009   4.176 -0.0658  0.1159 -0.1930
11819PRPS   D5A63655  23.736  14.340   4.476  0.2167 -0.1418  0.1877
11819PRPS   D6A63656  24.066  14.636   4.724  0.0263 -0.0835  0.1959
11819PRPS   C1B63657  23.913  13.734   3.415  0.3252  0.0081  0.0253
11819PRPS   C2B63658  24.054  13.980   3.721 -0.0043 -0.0535 -0.0439
11819PRPS   C3B63659  24.206  14.358   4.067  0.0134 -0.0889  0.0657
11819PRPS   C4B63660  24.703  14.472   4.185  0.1982 -0.0180  0.0573
11820PRPS   CNO63661   5.067  19.823   6.625  0.2073  0.2248 -0.1157
11820PRPS   PO463662   5.204  20.139   6.734  0.2078 -0.1547 -0.1237
11820PRPS   GL163663   5.033  20.212   7.097  0.1665  0.2306  0.0736
11820PRPS   GL263664   4.858  20.521   7.228  0.0806 -0.4636 -0.0311
11820PRPS   D1A63665   5.008  20.038   7.471 -0.1124  0.0860  0.2199
11820PRPS   D2A63666   4.673  19.907   7.660 -0.0513 -0.1254 -0.1653
11820PRPS   D3A63667   4.762  19.846   8.078 -0.0954  0.1743  0.3228
11820PRPS   D4A63668   4.991  19.493   7.961  0.0720 -0.2095 -0.1902
11820PRPS   D5A63669   4.576  19.393   7.736  0.3338 -0.3510 -0.0666
11820PRPS   D6A63670   4.510  19.379   8.167  0.1403 -0.0077 -0.1759
11820PRPS   C1B63671   4.548  20.318   7.373  0.3153  0.0900 -0.3566
11820PRPS   C2B63672   4.214  20.127   7.595  0.2112  0.0109  0.2858
11820PRPS   C3B63673   3.915  19.825   7.802 -0.3882  0.1023 -0.2357
11820PRPS   C4B63674   3.584  19.830   8.150  0.0766 -0.1754  0.0067
11821PRPS   CNO63675  24.602  20.008   0.895 -0.1611  0.1693 -0.3797
11821PRPS   PO463676  24.884  19.829   1.122  0.0403  0.1154  0.2982
11821PRPS   GL163677  24.901  19.730   1.528  0.0683 -0.6000  0.1295
11821PRPS   GL263678  24.970  19.503   1.685 -0.1008  0.2894 -0.1426
11821PRPS   D1A63679  25.195  19.925   1.862  0.0889 -0.1207 -0.1309
11821PRPS   D2A63680  24.865  20.347   1.757 -0.1351 -0.0082 -0.0298
11821PRPS   D3A63681  24.620  20.270   2.153 -0.0466  0.3402 -0.4036
11821PRPS   D4A63682  24.711  19.954   1.978  0.2628  0.0486 -0.1310
11821PRPS   D5A63683  24.814  19.634   2.286 -0.0017 -0.0484  0.0416
11821PRPS   D6A63684  25.246  19.614   2.222 -0.2415 -0.0714  0.0454
11821PRPS   C1B63685  24.972  19.229   2.028  0.0371  0.1927 -0.1246
11821PRPS   C2B63686  24.997  19.134   2.354  0.0251  0.1540  0.2551
11821PRPS   C3B63687  24.997  18.853   2.617 -0.0024  0.1753  0.0079
11821PRPS   C4B63688  25.098  18.932   2.941 -0.1746 -0.0885 -0.1736
11822PRPS   CNO63689  25.410  28.396   3.738 -0.0248 -0.0222 -0.0846
11822PRPS   PO463690  25.743  28.196   4.048 -0.1239  0.1069  0.1684
11822PRPS   GL163691  26.072  27.995   4.252  0.0297 -0.2551  0.0472
11822PRPS   GL263692  26.169  28.038   4.532  0.2068 -0.4156  0.1868
11822PRPS   D1A63693  26.374  27.769   4.173  0.2884  0.1538 -0.0392
11822PRPS   D2A63694  26.641  27.949   3.910 -0.2028  0.0882  0.0594
11822PRPS   D3A63695  26.994  27.835   3.871 -0.2156  0.0680 -0.1403
11822PRPS   D4A63696  26.939  27.388   3.891 -0.1178  0.1460  0.1844
11822PRPS   D5A63697  27.308  27.418   3.708  0.0347 -0.0021  0.1473
11822PRPS   D6A63698  27.436  27.732   4.075 -0.1545 -0.0509  0.1822
11822PRPS   C1B63699  26.372  27.770   4.689  0.1755  0.0317  0.0598
11822PRPS   C2B63700  26.679  27.533   4.787 -0.0180 -0.1258  0.0533
11822PRPS   C3B63701  26.786  27.213   4.995  0.5283 -0.2168 -0.0875
11822PRPS   C4B63702  26.889  26.918   5.213 -0.2022  0.0885  0.1593
11823PRPS   CNO63703   2.968   0.676  10.036  0.3018  0.4294 -0.3106
11823PRPS   PO463704   2.899   0.978  10.300  0.1221  0.0732 -0.0120
11823PRPS   GL163705   2.690   1.356  10.501  0.0625  0.0464 -0.0008
11823PRPS   GL263706   2.541   1.174  10.726  0.0094 -0.1318 -0.1495
11823PRPS   D1A63707   2.155   1.492  10.475 -0.4597 -0.1878 -0.2242
11823PRPS   D2A63708   2.031   1.399  10.069  0.1942  0.1326 -0.0092
11823PRPS   D3A63709   1.612   1.480  10.113  0.0445  0.2092  0.0268
11823PRPS   D4A63710   1.754   1.831  10.402 -0.2477  0.2089 -0.2176
11823PRPS   D5A63711   1.658   1.500  10.622  0.1342 -0.2404 -0.3170
11823PRPS   D6A63712   1.739   1.164  10.429  0.1946 -0.2965  0.3426
11823PRPS   C1B63713   2.189   1.339  11.004  0.3172  0.0108  0.1238
11823PRPS   C2B63714   1.923   1.546  11.190 -0.1226  0.0744 -0.2593
11823PRPS   C3B63715   1.766   1.826  11.402 -0.1765 -0.0429 -0.1309
11823PRPS   C4B63716   1.636   2.092  11.670  0.2267  0.1781  0.1840
11824PRPS   CNO63717   3.133  21.465   4.809  0.0241  0.0308  0.0941
11824PRPS   PO463718   3.182  21.929   4.792 -0.0948  0.1544  0.2081
11824PRPS   GL163719   2.828  21.872   5.036 -0.2695  0.1387 -0.2048
11824PRPS   GL263720   2.647  22.048   5.232  0.3049  0.2326 -0.1383
11824PRPS   D1A63721   2.712  21.452   5.145  0.2402  0.1493 -0.1362
11824PRPS   D2A63722   2.492  21.564   5.538  0.1963 -0.1404 -0.2266
11824PRPS   D3A63723   2.176  21.377   5.360  0.0345 -0.0120 -0.0686
11824PRPS   D4A63724   2.139  21.106   4.953  0.0205  0.0304 -0.1617
11824PRPS   D5A63725   1.745  21.164   5.155 -0.2725  0.4768 -0.1866
11824PRPS   D6A63726   1.617  21.167   5.567 -0.1476  0.0087  0.0749
11824PRPS   C1B63727   2.226  21.957   5.482 -0.0637 -0.4765 -0.1569
11824PRPS   C2B63728   2.065  21.695   5.719  0.1674 -0.1395  0.0724
11824PRPS   C3B63729   1.802  21.448   5.916  0.0887 -0.2415  0.2729
11824PRPS   C4B63730   1.519  21.184   6.147  0.2250 -0.1270 -0.0570
11825PRPS   CNO63731  21.285  24.430   7.035 -0.1236 -0.1168  0.3091
11825PRPS   PO463732  21.222  23.989   6.942 -0.1908 -0.4226  0.2416
11825PRPS   GL163733  21.610  23.809   7.115 -0.4983 -0.0347  0.0004
11825PRPS   GL263734  21.518  23.704   7.474 -0.0548 -0.1692 -0.1148
11825PRPS   D1A63735  22.011  23.641   7.301 -0.1156  0.1354  0.1022
11825PRPS   D2A63736  21.714  23.310   7.131  0.0605 -0.0172  0.1207
11825PRPS   D3A63737  21.961  23.476   6.842  0.2284 -0.1426 -0.1015
11825PRPS   D4A63738  22.395  23.449   7.101  0.1161 -0.0623 -0.2558
11825PRPS   D5A63739  22.670  23.816   7.085  0.1727  0.1958  0.2456
11825PRPS   D6A63740  22.388  23.944   7.393  0.1816  0.0233 -0.0035
11825PRPS   C1B63741  21.796  23.974   7.631 -0.0904  0.0837  0.1339
11825PRPS   C2B63742  22.071  24.071   7.774  0.1120 -0.3643 -0.1005
11825PRPS   C3B63743  22.529  24.170   7.799  0.0791 -0.0465 -0.2560
11825PRPS   C4B63744  22.819  24.319   7.887 -0.0763 -0.0721  0.0320
11826PRPS   CNO63745  26.764   0.666   5.840  0.0432 -0.1297  0.0150
11826PRPS   PO463746  26.810   0.330   6.187 -0.1738 -0.1115 -0.2795
11826PRPS   GL163747  26.684   0.397   6.656  0.1233 -0.2760  0.0586
11826PRPS   GL263748  26.622   0.048   6.769  0.0322 -0.4429 -0.1235
11826PRPS   D1A63749  26.629   0.474   7.112  0.0555  0.1205 -0.2101
11826PRPS   D2A63750  26.954   0.357   7.400  0.1126 -0.0029  0.3803
11826PRPS   D3A63751  26.803   0.101   7.686 -0.1363 -0.0284  0.2398
11826PRPS   D4A63752  26.640   0.399   7.778  0.1677 -0.1477  0.2110
11826PRPS   D5A63753  26.718   0.411   8.114 -0.0409 -0.3594 -0.3111
11826PRPS   D6A63754  26.776  35.352   8.190 -0.0550 -0.1155  0.0561
11826PRPS   C1B63755  26.640  35.203   7.073 -0.1887 -0.1733 -0.1399
11826PRPS   C2B63756  26.722  35.100   7.407 -0.1303 -0.0057 -0.0634
11826PRPS   C3B63757  26.698  35.009   7.797  0.2347  0.1635  0.2141
11826PRPS   C4B63758  27.001  34.951   8.000 -0.0126  0.1245  0.2066
11827PRPS   CNO63759   2.618  25.230   6.309 -0.0411 -0.1129 -0.1255
11827PRPS   PO463760   2.419  25.506   6.189  0.1166 -0.1980  0.1150
11827PRPS   GL163761   2.130  25.288   6.484  0.2558  0.2716  0.0252
11827PRPS   GL263762   2.253  24.933   6.681  0.3198 -0.0886 -0.1152
11827PRPS   D1A63763   1.779  25.411   6.743 -0.1498  0.0834  0.3338
11827PRPS   D2A63764   1.384  25.592   6.917  0.4127 -0.0761 -0.2836
11827PRPS   D3A63765   1.371  25.142   7.040  0.1191  0.0600  0.0818
11827PRPS   D4A63766   0.987  25.078   7.099  0.2278  0.1075  0.1517
11827PRPS   D5A63767   0.999  25.329   6.706 -0.1563 -0.1019  0.1745
11827PRPS   D6A63768   1.334  25.189   6.582  0.2242 -0.2459 -0.3503
11827PRPS   C1B63769   1.849  24.791   6.765  0.0137  0.0984 -0.0792
11827PRPS   C2B63770   1.712  24.376   6.862  0.0116  0.3631  0.1314
11827PRPS   C3B63771   1.469  24.078   7.009 -0.2035 -0.1040 -0.1925
11827PRPS   C4B63772   1.267  23.665   7.003 -0.0599 -0.2503  0.0467
11828PRPS   CNO63773  31.261   5.321   4.612 -0.0645 -0.0823  0.3259
11828PRPS   PO463774  30.891   5.679   4.731  0.2929 -0.0805 -0.2595
11828PRPS   GL163775  30.987   6.075   4.731 -0.5319 -0.0805  0.2676
11828PRPS   GL263776  30.892   6.384   4.901  0.0092  0.0261 -0.0958
11828PRPS   D1A63777  31.279   6.354   4.564  0.1875 -0.2811 -0.0567
11828PRPS   D2A63778  31.423   6.717   4.838 -0.1166 -0.4072  0.4567
11828PRPS   D3A63779  31.827   6.727   5.041  0.0890 -0.1419  0.0663
11828PRPS   D4A63780  32.090   6.441   4.802  0.0139 -0.2455 -0.0358
11828PRPS   D5A63781  31.958   6.274   5.157 -0.2870 -0.1683  0.0449
11828PRPS   D6A63782  31.693   6.108   4.872  0.3279 -0.0324  0.1167
11828PRPS   C1B63783  30.636   6.691   4.940  0.2821 -0.0614  0.1100
11828PRPS   C2B63784  30.344   6.894   5.210 -0.1151  0.0342  0.1709
11828PRPS   C3B63785  30.042   6.989   5.487  0.0828 -0.0566 -0.0321
11828PRPS   C4B63786  29.801   7.238   5.623  0.2324  0.5528  0.1163
11829PRPS   CNO63787  23.571   7.392   5.301  0.1183 -0.2147  0.0140
11829PRPS   PO463788  23.489   7.777   5.557 -0.0956 -0.1182 -0.0829
11829PRPS   GL163789  23.783   7.884   5.800  0.0303 -0.1944 -0.1214
11829PRPS   GL263790  24.023   8.085   5.729 -0.1962  0.0011  0.1090
11829PRPS   D1A63791  23.842   7.959   6.229  0.0416 -0.0404 -0.1031
11829PRPS   D2A63792  23.979   7.468   6.248 -0.1956  0.0536 -0.3399
11829PRPS   D3A63793  23.537   7.188   6.234  0.0968 -0.2607 -0.2412
11829PRPS   D4A63794  23.518   7.600   6.062 -0.0784 -0.0696  0.3071
11829PRPS   D5A63795  23.086   7.721   6.314  0.1935  0.4012 -0.0474
11829PRPS   D6A63796  23.090   7.370   6.519 -0.0101  0.0040 -0.0134
11829PRPS   C1B63797  24.383   8.183   6.101  0.2285 -0.0685 -0.0812
11829PRPS   C2B63798  24.354   8.287   6.520  0.0744 -0.1191  0.1909
11829PRPS   C3B63799  24.611   8.261   6.833 -0.2628 -0.0990 -0.0714
11829PRPS   C4B63800  24.697   8.344   7.205  0.2534  0.0174  0.0968
11830PRPS   CNO63801   6.123  16.732  10.456  0.0659  0.3865  0.2674
11830PRPS   PO463802   6.031  16.612  10.844  0.0941  0.2013 -0.0452
11830PRPS   GL163803   6.035  17.030  10.998  0.2529 -0.1110 -0.1730
11830PRPS   GL263804   6.127  16.806  11.351 -0.0126 -0.0999  0.0726
11830PRPS   D1A63805   5.795  17.240  10.856  0.0964 -0.1446 -0.0935
11830PRPS   D2A63806   5.802  17.132  10.423 -0.3462 -0.0390  0.1252
11830PRPS   D3A63807   5.326  17.133  10.223  0.1331 -0.0088 -0.0366
11830PRPS   D4A63808   4.924  16.996  10.434  0.0542 -0.1330 -0.0833
11830PRPS   D5A63809   4.917  17.068   9.929  0.4017  0.2340  0.2794
11830PRPS   D6A63810   4.544  16.800   9.949  0.0789  0.3938 -0.0820
11830PRPS   C1B63811   5.758  16.645  11.631  0.0497 -0.2210  0.2746
11830PRPS   C2B63812   5.419  16.703  11.812  0.0096  0.1182  0.0717
11830PRPS   C3B63813   5.194  17.065  11.689  0.0292 -0.1230 -0.0798
11830PRPS   C4B63814   4.897  17.210  11.423  0.3104 -0.1536 -0.1049
11831PRPS   CNO63815  23.513  17.654   1.918 -0.0379 -0.2242 -0.2047
11831PRPS   PO463816  23.273  17.902   2.142 -0.1823 -0.2051  0.2545
11831PRPS   GL163817  23.507  18.087   2.460  0.2476  0.1639 -0.0823
11831PRPS   GL263818  23.320  18.206   2.726 -0.0068 -0.0417 -0.2999
11831PRPS   D1A63819  23.820  18.327   2.733 -0.0036 -0.3244  0.0946
11831PRPS   D2A63820  24.009  17.896   2.690 -0.0672  0.1933  0.3369
11831PRPS   D3A63821  24.010  17.400   2.606 -0.0786  0.1793  0.1261
11831PRPS   D4A63822  23.697  17.295   2.897 -0.1849 -0.1483  0.0547
11831PRPS   D5A63823  23.547  17.282   2.484  0.2330  0.0843  0.1470
11831PRPS   D6A63824  23.731  17.682   2.337 -0.2228  0.3782 -0.1725
11831PRPS   C1B63825  23.420  18.366   3.133 -0.0319  0.1532 -0.0802
11831PRPS   C2B63826  23.717  18.477   3.278  0.3816  0.1501 -0.0260
11831PRPS   C3B63827  24.036  18.752   3.273 -0.0515  0.1724  0.0528
11831PRPS   C4B63828  24.341  18.487   3.526 -0.0198 -0.2495 -0.1389
11832PRPS   CNO63829  33.300  24.012   1.498 -0.0376  0.1379 -0.1272
11832PRPS   PO463830  33.339  24.548   1.394  0.4808 -0.0138  0.1339
11832PRPS   GL163831  32.884  24.342   1.496 -0.2286 -0.0627 -0.0506
11832PRPS   GL263832  32.946  24.261   1.846 -0.0443 -0.2753  0.0977
11832PRPS   D1A63833  32.461  24.094   1.662  0.1722 -0.2973 -0.0554
11832PRPS   D2A63834  32.091  24.027   1.958 -0.1145 -0.2811 -0.3809
11832PRPS   D3A63835  31.889  24.212   2.304  0.2803 -0.0510 -0.0449
11832PRPS   D4A63836  31.685  24.654   2.316  0.1206  0.0846 -0.0148
11832PRPS   D5A63837  31.578  24.887   1.912 -0.1279 -0.3785  0.0857
11832PRPS   D6A63838  31.511  25.194   2.130 -0.0073  0.2911 -0.0207
11832PRPS   C1B63839  32.888  24.415   2.182 -0.2701  0.0025 -0.0424
11832PRPS   C2B63840  32.723  24.237   2.485 -0.0418  0.0149  0.0608
11832PRPS   C3B63841  32.389  23.844   2.593  0.1326  0.2220 -0.1618
11832PRPS   C4B63842  31.988  23.854   2.629 -0.2698  0.0978 -0.0428
11833PRPS   CNO63843   3.200  11.025   6.227 -0.2399 -0.0155 -0.0097
11833PRPS   PO463844   2.991  10.736   6.259 -0.1197 -0.2993  0.0007
11833PRPS   GL163845   2.793  10.898   6.603  0.0617 -0.0730  0.1293
11833PRPS   GL263846   2.774  11.180   6.493 -0.0495 -0.1529  0.0341
11833PRPS   D1A63847   2.378  11.012   6.638  0.1213 -0.0404  0.0247
11833PRPS   D2A63848   2.104  10.741   6.786 -0.0100  0.0329  0.0161
11833PRPS   D3A63849   2.166  10.398   7.020 -0.0314  0.0128 -0.0643
11833PRPS   D4A63850   2.592  10.204   6.929 -0.0142 -0.1753  0.1467
11833PRPS   D5A63851   2.372  10.154   6.612 -0.3161  0.1962 -0.1037
11833PRPS   D6A63852   2.448  10.575   6.432  0.1469  0.0984  0.0067
11833PRPS   C1B63853   2.446  11.477   6.496 -0.1467 -0.1300 -0.0804
11833PRPS   C2B63854   2.031  11.555   6.578 -0.2475 -0.0773 -0.1637
11833PRPS   C3B63855   1.694  11.800   6.650 -0.2056 -0.2635 -0.1244
11833PRPS   C4B63856   1.497  12.140   6.473 -0.0669 -0.4106  0.0498
11834PRPS   CNO63857  17.300  21.404  13.844  0.1495 -0.1521  0.0684
11834PRPS   PO463858  17.000  21.496  14.191  0.2642  0.0330  0.0658
11834PRPS   GL163859  17.278  21.385  14.621  0.1008 -0.3855 -0.1333
11834PRPS   GL263860  17.474  21.140  14.764  0.0517  0.0006  0.0384
11834PRPS   D1A63861  17.320  21.480  15.052 -0.0245 -0.0398  0.0665
11834PRPS   D2A63862  17.099  21.680  15.267  0.3161  0.0717  0.1807
11834PRPS   D3A63863  17.273  21.668  15.665 -0.3808  0.4029 -0.0522
11834PRPS   D4A63864  17.553  21.398  15.517 -0.2210 -0.2560 -0.1336
11834PRPS   D5A63865  17.758  21.583  15.948  0.0701 -0.2631  0.0553
11834PRPS   D6A63866  17.488  21.773  16.104  0.1069 -0.0663 -0.0453
11834PRPS   C1B63867  17.805  21.267  15.105  0.1137  0.0832  0.0269
11834PRPS   C2B63868  18.134  21.120  15.451 -0.1419 -0.0344  0.0196
11834PRPS   C3B63869  18.171  20.756  15.755 -0.1607  0.0837  0.0940
11834PRPS   C4B63870  18.202  20.429  16.035  0.1041 -0.3942 -0.0360
11835PRPS   CNO63871  12.408  27.806  17.048  0.0378 -0.1761  0.1186
11835PRPS   PO463872  12.818  27.765  17.379 -0.0589 -0.1711 -0.1025
11835PRPS   GL163873  12.844  27.919  17.836  0.3236  0.2327  0.0307
11835PRPS   GL263874  12.752  27.719  18.063 -0.2383  0.1548  0.0334
11835PRPS   D1A63875  13.303  27.882  18.122 -0.2858  0.1475  0.1570
11835PRPS   D2A63876  13.141  28.315  18.081  0.0717  0.0114 -0.0748
11835PRPS   D3A63877  13.257  28.565  17.816  0.3353  0.0974  0.4371
11835PRPS   D4A63878  13.148  28.849  18.154  0.0479  0.1900 -0.0966
11835PRPS   D5A63879  13.321  28.664  18.572 -0.0367 -0.2589 -0.0467
11835PRPS   D6A63880  13.272  29.125  18.658 -0.0445 -0.0403  0.1373
11835PRPS   C1B63881  12.967  27.775  18.473  0.3799 -0.0701 -0.1878
11835PRPS   C2B63882  12.949  27.854  18.890 -0.3149 -0.1556  0.2045
11835PRPS   C3B63883  12.984  27.619  19.220  0.0921  0.1222 -0.0009
11835PRPS   C4B63884  13.082  27.338  19.588  0.0424 -0.0875 -0.0494
11836PRPS   CNO63885   3.594   1.057  10.811 -0.1389  0.0095 -0.0748
11836PRPS   PO463886   3.596   1.580  10.819  0.1156  0.3172  0.2294
11836PRPS   GL163887   3.293   1.852  10.641 -0.0925  0.3182 -0.1834
11836PRPS   GL263888   3.204   2.134  10.857 -0.2396  0.1753 -0.0474
11836PRPS   D1A63889   3.329   2.195  10.362  0.0172  0.2277  0.3544
11836PRPS   D2A63890   3.429   2.267   9.811  0.1531 -0.2757 -0.0180
11836PRPS   D3A63891   3.077   2.158   9.917 -0.0428 -0.0485 -0.1937
11836PRPS   D4A63892   2.698   2.300   9.972 -0.1821  0.2363  0.2381
11836PRPS   D5A63893   2.431   1.954   9.720  0.1088 -0.2079 -0.0953
11836PRPS   D6A63894   2.440   1.788  10.212 -0.2835  0.0755  0.2425
11836PRPS   C1B63895   2.909   2.265  11.102 -0.0611 -0.1744 -0.0202
11836PRPS   C2B63896   2.691   2.405  11.444 -0.1897 -0.2723 -0.1346
11836PRPS   C3B63897   2.278   2.564  11.604 -0.0051 -0.2645 -0.0113
11836PRPS   C4B63898   1.939   2.732  11.849  0.2642  0.0997  0.0091
11837PRPS   CNO63899  15.579  17.555  14.164  0.2675  0.2575 -0.0981
11837PRPS   PO463900  15.293  17.620  14.451 -0.0850  0.1423  0.0013
11837PRPS   GL163901  15.084  17.393  14.849  0.1857  0.3347 -0.0125
11837PRPS   GL263902  15.132  17.083  14.924 -0.2890  0.0835 -0.1310
11837PRPS   D1A63903  14.893  17.578  15.168  0.0104  0.1990 -0.1397
11837PRPS   D2A63904  14.839  17.346  15.414  0.0962  0.1460  0.0377
11837PRPS   D3A63905  15.096  17.449  15.775  0.2125  0.2861 -0.0163
11837PRPS   D4A63906  15.085  17.814  15.979  0.0158  0.1155 -0.1830
11837PRPS   D5A63907  15.318  17.889  16.242 -0.4836  0.0031 -0.4335
11837PRPS   D6A63908  15.131  18.040  16.588 -0.1087  0.1265  0.0963
11837PRPS   C1B63909  15.261  16.791  15.199 -0.0050  0.0613  0.0439
11837PRPS   C2B63910  15.358  16.586  15.567  0.3286 -0.0021  0.2891
11837PRPS   C3B63911  15.211  16.397  15.971  0.2412 -0.4181 -0.0825
11837PRPS   C4B63912  15.126  16.318  16.461  0.1703  0.3126  0.3532
11838PRPS   CNO63913   7.568  20.455  11.518  0.2355 -0.0914  0.1226
11838PRPS   PO463914   7.390  20.080  11.511  0.1079 -0.1589  0.0065
11838PRPS   GL163915   6.987  19.962  11.356  0.3701  0.0815 -0.2884
11838PRPS   GL263916   6.906  20.273  11.262 -0.0364 -0.0225 -0.0670
11838PRPS   D1A63917   6.861  19.851  10.902 -0.2424 -0.2833 -0.0372
11838PRPS   D2A63918   6.825  20.067  10.450 -0.1644 -0.1964  0.2187
11838PRPS   D3A63919   6.462  19.985  10.683 -0.0749  0.0190  0.2279
11838PRPS   D4A63920   6.185  19.843  10.386 -0.0033 -0.1695 -0.0272
11838PRPS   D5A63921   5.932  19.648  10.636 -0.3928 -0.1239 -0.0973
11838PRPS   D6A63922   5.800  19.446  10.241 -0.3272  0.2582 -0.2279
11838PRPS   C1B63923   6.513  20.118  11.128  0.1555  0.0332  0.0202
11838PRPS   C2B63924   6.132  20.010  11.182  0.0597  0.2668  0.1216
11838PRPS   C3B63925   5.745  19.785  11.110  0.2268 -0.1434 -0.0177
11838PRPS   C4B63926   5.351  19.812  10.991 -0.0239  0.0593 -0.0492
11839PRPS   CNO63927  22.876  33.585   6.508  0.1086 -0.1418 -0.1863
11839PRPS   PO463928  23.042  33.760   6.897 -0.3849 -0.3308  0.4991
11839PRPS   GL163929  23.047  33.391   7.201 -0.1872  0.0208  0.0751
11839PRPS   GL263930  23.409  33.232   7.239  0.1321 -0.0144 -0.2067
11839PRPS   D1A63931  23.051  33.423   7.687  0.2959 -0.0126 -0.1336
11839PRPS   D2A63932  22.613  33.418   7.927  0.1895 -0.0975 -0.0074
11839PRPS   D3A63933  22.309  33.510   8.160 -0.0589 -0.1583 -0.1801
11839PRPS   D4A63934  22.362  33.330   8.569  0.0901  0.3599  0.0095
11839PRPS   D5A63935  22.256  33.572   8.831  0.0562  0.0608  0.1686
11839PRPS   D6A63936  21.997  33.274   9.042  0.0269 -0.2212 -0.0771
11839PRPS   C1B63937  23.546  33.244   7.659  0.1178 -0.0107  0.3028
11839PRPS   C2B63938  23.624  33.221   7.984 -0.1667  0.1244  0.0487
11839PRPS   C3B63939  23.780  32.879   8.247 -0.0783  0.1817  0.1020
11839PRPS   C4B63940  24.075  32.706   8.460 -0.0721  0.1845  0.1017
11840DPSM   NC363941  25.521  26.160   2.608 -0.3925 -0.3238 -0.0655
11840DPSM   PO463942  25.917  25.960   2.793 -0.1612 -0.0961 -0.1028
11840DPSM   AM163943  25.835  25.499   2.918 -0.1702  0.0855 -0.1025
11840DPSM   AM263944  26.118  25.398   2.797 -0.1766 -0.0109 -0.4066
11840DPSM   T1A63945  25.887  25.153   3.299 -0.1979  0.2273  0.0547
11840DPSM   C2A63946  25.852  24.940   3.643 -0.1162 -0.2172 -0.2689
11840DPSM   C3A63947  25.800  24.508   3.845  0.1641 -0.1611  0.3509
11840DPSM   C1B63948  26.402  25.162   3.123  0.0307 -0.1659  0.0219
11840DPSM   C2B63949  26.332  25.005   3.585 -0.2859  0.0426  0.0946
11840DPSM   C3B63950  26.234  24.745   3.975  0.1794  0.1945  0.2444
11840DPSM   C4B63951  25.986  24.532   4.302  0.2101 -0.2103 -0.2564
11841DPSM   NC363952  34.012   2.263   8.311  0.0975 -0.0328  0.1667
11841DPSM   PO463953  33.938   2.627   7.938  0.2445  0.2276 -0.3047
11841DPSM   AM163954  33.574   2.575   8.134 -0.2748  0.1306 -0.0129
11841DPSM   AM263955  33.480   2.265   8.167  0.2177  0.1446  0.2008
11841DPSM   T1A63956  33.591   2.577   8.563  0.2960 -0.0284  0.0431
11841DPSM   C2A63957  33.479   2.574   8.920  0.0202 -0.0207  0.1819
11841DPSM   C3A63958  33.477   2.619   9.395 -0.0229  0.2689 -0.2948
11841DPSM   C1B63959  33.261   2.136   8.566  0.1794 -0.0175 -0.1953
11841DPSM   C2B63960  33.049   2.288   8.896  0.5404 -0.1646  0.1890
11841DPSM   C3B63961  32.979   2.610   9.166  0.1847  0.3668 -0.1773
11841DPSM   C4B63962  32.802   2.927   9.435 -0.0194  0.1176  0.0851
11842DPSM   NC363963   9.674  16.760  13.663 -0.1585  0.0458 -0.0252
11842DPSM   PO463964   9.326  17.070  13.630 -0.0505  0.0703  0.0443
11842DPSM   AM163965   9.287  16.892  14.013 -0.0245  0.0063  0.1350
11842DPSM   AM263966   8.920  16.871  14.053 -0.2031 -0.2998 -0.0131
11842DPSM   T1A63967   9.230  16.904  14.425 -0.0108  0.4486 -0.3287
11842DPSM   C2A63968   9.188  17.055  14.840 -0.1509  0.0112 -0.0698
11842DPSM   C3A63969   9.362  17.149  15.291 -0.0408 -0.3664 -0.0352
11842DPSM   C1B63970   8.762  16.787  14.464 -0.0306  0.0161 -0.2185
11842DPSM   C2B63971   8.682  16.919  14.852 -0.1495  0.0675 -0.1534
11842DPSM   C3B63972   8.269  16.961  15.045 -0.0242  0.4745 -0.1967
11842DPSM   C4B63973   7.944  17.237  14.837 -0.2134  0.2741  0.2544
11843DPSM   NC363974  20.266  27.082   8.509  0.0125  0.2596  0.0389
11843DPSM   PO463975  20.345  27.239   8.105 -0.0489 -0.2973 -0.0983
11843DPSM   AM163976  20.737  27.003   8.238  0.0669 -0.2777  0.1009
11843DPSM   AM263977  20.807  26.811   7.961  0.0340 -0.2404  0.1570
11843DPSM   T1A63978  20.981  26.932   8.472  0.2532 -0.2030 -0.0803
11843DPSM   C2A63979  21.367  26.937   8.606 -0.3695  0.1638  0.0264
11843DPSM   C3A63980  21.670  27.101   8.821  0.1190 -0.1935  0.0720
11843DPSM   C1B63981  21.218  26.961   8.061 -0.0509  0.3863 -0.2867
11843DPSM   C2B63982  21.669  26.897   8.062  0.2087 -0.0888  0.1672
11843DPSM   C3B63983  21.958  27.080   8.375 -0.0746 -0.0728  0.0125
11843DPSM   C4B63984  22.089  27.305   8.736 -0.0818 -0.4373 -0.0471
11844DPSM   NC363985   0.600  29.086   8.920 -0.4009  0.0597 -0.0091
11844DPSM   PO463986   0.584  28.646   8.775  0.5496 -0.1154 -0.2146
11844DPSM   AM163987   0.351  28.661   9.181  0.1890  0.1040  0.0821
11844DPSM   AM263988   0.161  28.997   9.256  0.1599  0.2708 -0.1593
11844DPSM   T1A63989   0.042  28.455   9.419  0.0151  0.0076 -0.2221
11844DPSM   C2A63990  35.175  28.179   9.660  0.0937  0.1070 -0.0211
11844DPSM   C3A63991  34.817  28.018   9.843 -0.1040 -0.1442  0.2738
11844DPSM   C1B63992   0.028  29.059   9.649  0.0398 -0.1102  0.0210
11844DPSM   C2B63993  35.334  29.277  10.010 -0.0570  0.3826  0.0306
11844DPSM   C3B63994  35.079  29.255  10.426  0.0559  0.3329  0.1205
11844DPSM   C4B63995  35.030  29.468  10.828  0.0691  0.1748 -0.1109
11845DPSM   NC363996  13.317  14.159  14.062 -0.0299 -0.1628 -0.2169
11845DPSM   PO463997  13.908  14.341  14.166  0.1441 -0.0954  0.0190
11845DPSM   AM163998  13.559  14.375  14.454 -0.1487  0.1028 -0.1135
11845DPSM   AM263999  13.615  14.094  14.633  0.0782 -0.1153  0.1193
11845DPSM   T1A64000  13.616  14.614  14.881 -0.1192 -0.0854  0.1952
11845DPSM   C2A64001  13.709  14.913  15.114 -0.0269  0.1521 -0.3220
11845DPSM   C3A64002  13.910  15.328  15.147 -0.0874  0.0740  0.0156
11845DPSM   C1B64003  13.279  14.241  14.890  0.0435  0.2436 -0.2766
11845DPSM   C2B64004  13.382  14.386  15.278 -0.3513  0.3134  0.0600
11845DPSM   C3B64005  13.458  14.523  15.743 -0.2422 -0.2250  0.0391
11845DPSM   C4B64006  13.261  14.491  16.035 -0.1001  0.1448 -0.0456
11846POSM   NC364007  20.456  11.625   8.510 -0.1360 -0.1447  0.1914
11846POSM   PO464008  20.902  11.814   8.647 -0.1646  0.0659  0.0059
11846POSM   AM164009  21.204  11.708   8.918  0.3895 -0.0932 -0.1687
11846POSM   AM264010  21.103  11.561   9.179  0.1491 -0.0979 -0.0004
11846POSM   T1A64011  21.567  11.438   9.155  0.1536 -0.3159 -0.1418
11846POSM   C2A64012  21.855  11.513   9.423 -0.2035 -0.1865 -0.0993
11846POSM   C3A64013  22.221  11.520   9.529  0.1068 -0.1296  0.0858
11846POSM   C1B64014  21.020  11.948   9.491 -0.1042  0.1759 -0.3273
11846POSM   D2B64015  21.125  12.228   9.794  0.1791  0.1648  0.0220
11846POSM   C3B64016  21.661  12.381   9.900  0.1161  0.0900 -0.2032
11846POSM   C4B64017  22.176  12.335   9.668 -0.1581 -0.0758  0.1370
11847POSM   NC364018   7.091  23.107  12.258  0.1472  0.1637  0.2075
11847POSM   PO464019   7.258  22.769  12.233  0.4671  0.2926  0.2073
11847POSM   AM164020   6.825  22.643  12.432 -0.4542 -0.1358 -0.2953
11847POSM   AM264021   6.521  22.565  12.213 -0.0523 -0.3884 -0.2479
11847POSM   T1A64022   6.495  22.283  12.625  0.0263  0.0240  0.0025
11847POSM   C2A64023   6.080  22.232  12.489  0.2256 -0.0730  0.3045
11847POSM   C3A64024   5.676  22.287  12.545 -0.0956 -0.3014  0.1029
11847POSM   C1B64025   6.139  22.860  11.986  0.0724 -0.2513  0.1009
11847POSM   D2B64026   5.914  22.604  11.682  0.2976  0.1693  0.1486
11847POSM   C3B64027   5.500  22.554  11.788 -0.2047  0.1182 -0.3040
11847POSM   C4B64028   5.272  22.356  12.018  0.2263  0.0830 -0.3269
11848POSM   NC364029   0.781   1.528   8.872  0.0741 -0.1156 -0.1544
11848POSM   PO464030   1.168   1.785   8.705  0.1228 -0.2201 -0.1878
11848POSM   AM164031   1.147   2.072   9.030 -0.1015 -0.3373 -0.0796
11848POSM   AM264032   1.069   2.405   9.054 -0.1060  0.1304 -0.1825
11848POSM   T1A64033   1.150   2.035   9.549  0.2302 -0.1426 -0.2957
11848POSM   C2A64034   1.106   2.240   9.924  0.4510 -0.0096 -0.2504
11848POSM   C3A64035   0.977   2.532  10.288 -0.1139  0.1943  0.1724
11848POSM   C1B64036   1.016   2.495   9.476  0.1253 -0.2089  0.2035
11848POSM   D2B64037   1.029   2.670   9.796  0.0318 -0.2632  0.0542
11848POSM   C3B64038   0.734   2.861   9.963  0.0274  0.0279  0.0229
11848POSM   C4B64039   0.499   2.736  10.337 -0.1864 -0.2587 -0.0705
11849POSM   NC364040  18.332  11.533  11.920 -0.0968 -0.3482 -0.0173
11849POSM   PO464041  17.977  11.546  12.135 -0.0431  0.0685 -0.1027
11849POSM   AM164042  18.446  11.414  12.409 -0.3144  0.3289 -0.3170
11849POSM   AM264043  18.748  11.579  12.303 -0.1718  0.0355 -0.2529
11849POSM   T1A64044  18.675  11.178  12.606 -0.2336 -0.1978  0.3076
11849POSM   C2A64045  18.990  11.066  12.890  0.1441  0.0088 -0.0413
11849POSM   C3A64046  19.306  10.952  13.170  0.1565 -0.0974 -0.4604
11849POSM   C1B64047  19.050  11.535  12.577 -0.0750 -0.0565 -0.2219
11849POSM   D2B64048  19.336  11.451  12.754  0.0157  0.2375  0.0022
11849POSM   C3B64049  19.746  11.804  12.876 -0.1180 -0.1052  0.0144
11849POSM   C4B64050  20.142  11.891  12.925 -0.3540 -0.1166 -0.0055
11850POSM   NC364051  18.129  20.625  12.580 -0.0453 -0.1716 -0.0057
11850POSM   PO464052  18.612  20.490  12.586  0.0694 -0.3030  0.1948
11850POSM   AM164053  18.932  20.518  12.758  0.2876 -0.0939 -0.5488
11850POSM   AM264054  19.175  20.286  12.565  0.3753 -0.1556  0.2848
11850POSM   T1A64055  18.875  20.451  13.165  0.1456 -0.1663 -0.5337
11850POSM   C2A64056  19.206  20.332  13.435  0.0351 -0.0127 -0.2194
11850POSM   C3A64057  19.527  20.230  13.791  0.0481  0.1332 -0.1097
11850POSM   C1B64058  19.564  20.177  12.666  0.2041 -0.0108 -0.1782
11850POSM   D2B64059  19.954  20.234  12.827 -0.0145  0.0949  0.0198
11850POSM   C3B64060  20.181  19.995  12.987  0.2725 -0.1190  0.1219
11850POSM   C4B64061  20.184  19.634  13.324  0.3579 -0.5672 -0.1610
11851PNSM   NC364062   9.667  21.583  16.648 -0.0393  0.0130  0.0256
11851PNSM   PO464063   9.868  21.470  17.044  0.2571  0.0988 -0.7216
11851PNSM   AM164064   9.930  21.198  17.280 -0.2493 -0.1756 -0.5547
11851PNSM   AM264065  10.276  21.176  17.355  0.1124 -0.2033 -0.0022
11851PNSM   T1A64066   9.998  20.875  17.627  0.2940  0.2384  0.0825
11851PNSM   C2A64067  10.007  20.868  18.085 -0.1616 -0.1065  0.1228
11851PNSM   C3A64068   9.897  20.574  18.396 -0.0223  0.1948 -0.0217
11851PNSM   C1B64069  10.240  21.248  17.834 -0.0096 -0.2480  0.0788
11851PNSM   C2B64070  10.380  21.212  18.221  0.1307  0.1149  0.3133
11851PNSM   C3B64071  10.306  20.880  18.494 -0.1722 -0.1335 -0.0183
11851PNSM   D4B64072  10.083  20.727  18.844  0.1457 -0.0675 -0.1786
11851PNSM   C5B64073  10.074  20.243  18.845 -0.3092  0.1599 -0.0543
11851PNSM   C6B64074   9.862  19.836  19.003  0.0233 -0.2633 -0.0860
11852PNSM   NC364075   3.717  20.113   5.290  0.1168  0.2639  0.0001
11852PNSM   PO464076   3.434  20.078   5.090 -0.0013 -0.0993  0.0222
11852PNSM   AM164077   3.259  20.288   5.421 -0.0472 -0.1676  0.1905
11852PNSM   AM264078   3.514  20.500   5.568 -0.0534 -0.1593  0.0203
11852PNSM   T1A64079   3.026  20.195   5.794  0.1694  0.0683  0.2853
11852PNSM   C2A64080   2.687  20.086   6.157  0.2271 -0.1447  0.0137
11852PNSM   C3A64081   2.383  20.047   6.402  0.0708  0.1639  0.2192
11852PNSM   C1B64082   3.375  20.527   6.017 -0.1971 -0.0675  0.2402
11852PNSM   C2B64083   3.044  20.464   6.253  0.1877  0.2936 -0.2978
11852PNSM   C3B64084   2.725  20.407   6.541  0.1641 -0.0571 -0.2133
11852PNSM   D4B64085   2.447  20.552   6.894 -0.0873 -0.0173 -0.1053
11852PNSM   C5B64086   2.514  20.940   7.049 -0.1654  0.1416 -0.1900
11852PNSM   C6B64087   2.683  21.273   6.856 -0.0129 -0.1497  0.0151
11853POPI    C164088  22.275   9.253   6.213  0.0043 -0.0945 -0.0365
11853POPI    C264089  22.026   8.940   6.224 -0.0940 -0.0162 -0.0201
11853POPI    C364090  21.933   9.261   6.006 -0.0759  0.0727  0.1023
11853POPI   PO464091  22.460   9.186   6.282  0.1137 -0.0842  0.2152
11853POPI   GL164092  22.878   9.335   6.310  0.2636  0.2201 -0.0654
11853POPI   GL264093  23.053   9.351   6.002  0.1004 -0.1385  0.0341
11853POPI   C1A64094  23.234   9.357   6.647  0.3879 -0.3871 -0.2657
11853POPI   D2A64095  23.540   9.527   6.942  0.0339  0.0069  0.3466
11853POPI   C3A64096  23.784   9.962   6.869 -0.0207 -0.1586  0.0370
11853POPI   C4A64097  23.928  10.031   7.274 -0.2478  0.3612  0.0146
11853POPI   C1B64098  23.402   9.518   6.216  0.2224 -0.0906  0.1443
11853POPI   C2B64099  23.615   9.632   6.494  0.0145 -0.0398  0.0168
11853POPI   C3B64100  23.972   9.782   6.473  0.1105  0.2160 -0.2329
11853POPI   C4B64101  24.200   9.760   6.807  0.1678  0.0641 -0.2852
11854POPI    C164102  21.565  13.032   5.060  0.1063 -0.0840  0.1632
11854POPI    C264103  21.485  13.400   4.927  0.3205 -0.0387  0.1583
11854POPI    C364104  21.187  13.162   5.047  0.1697  0.0911  0.0447
11854POPI   PO464105  21.847  12.953   5.302  0.1823 -0.2948 -0.0124
11854POPI   GL164106  22.247  12.758   5.493 -0.0756  0.3189 -0.2014
11854POPI   GL264107  22.146  12.888   5.717  0.1568 -0.2014  0.0702
11854POPI   C1A64108  22.632  12.995   5.649  0.5588 -0.2533 -0.1464
11854POPI   D2A64109  23.008  13.162   5.741  0.2151  0.0257  0.0550
11854POPI   C3A64110  23.228  13.411   5.521 -0.1651  0.1523  0.0692
11854POPI   C4A64111  23.528  13.337   5.130 -0.0121  0.0420  0.4189
11854POPI   C1B64112  22.304  13.129   6.017  0.1326  0.0676  0.2217
11854POPI   C2B64113  22.366  13.394   6.364  0.2164  0.2930 -0.1096
11854POPI   C3B64114  22.414  13.476   6.822 -0.4505 -0.1780  0.0626
11854POPI   C4B64115  22.641  13.311   7.180 -0.0775 -0.1797 -0.2006
11855POPI    C164116   8.320   3.218  14.619 -0.1346 -0.2404  0.1315
11855POPI    C264117   8.022   3.274  14.358 -0.1488  0.0991  0.2172
11855POPI    C364118   8.311   3.008  14.279 -0.1146  0.2505 -0.1770
11855POPI   PO464119   8.213   3.257  14.825 -0.1694 -0.3593  0.1877
11855POPI   GL164120   8.023   3.556  15.030  0.2266  0.1531  0.2922
11855POPI   GL264121   7.703   3.542  15.147 -0.2091 -0.1075 -0.1813
11855POPI   C1A64122   8.041   3.690  15.476  0.1522  0.0655  0.0275
11855POPI   D2A64123   7.862   3.816  15.826 -0.1587 -0.2967  0.3274
11855POPI   C3A64124   7.833   3.725  16.282  0.0668 -0.1232 -0.0612
11855POPI   C4A64125   8.048   3.815  16.627 -0.1055 -0.0074  0.0660
11855POPI   C1B64126   7.568   3.510  15.521 -0.3364  0.0574  0.0907
11855POPI   C2B64127   7.366   3.614  15.908 -0.2026 -0.4041 -0.0435
11855POPI   C3B64128   7.022   3.803  16.125 -0.2170  0.1975 -0.2636
11855POPI   C4B64129   6.863   3.975  16.507  0.0493 -0.2198 -0.1448
11856POPI    C164130  35.233  34.797   8.993  0.1291  0.2397 -0.2973
11856POPI    C264131   0.212  34.636   9.034  0.0437  0.1441  0.1125
11856POPI    C364132   0.161  35.030   9.082  0.0486  0.1204  0.3203
11856POPI   PO464133  34.978  34.492   9.139  0.2555 -0.2067 -0.1591
11856POPI   GL164134  34.628  34.179   9.117  0.1143  0.1265 -0.0717
11856POPI   GL264135  34.555  34.359   8.866  0.2184 -0.2995 -0.1589
11856POPI   C1A64136  34.345  34.311   9.456  0.0266  0.0816 -0.0545
11856POPI   D2A64137  34.180  34.079   9.772  0.2355 -0.1277 -0.3425
11856POPI   C3A64138  34.067  34.216  10.274  0.0059 -0.1863  0.2326
11856POPI   C4A64139  34.167  34.465  10.654  0.1872 -0.0559  0.0489
11856POPI   C1B64140  34.160  34.094   8.987 -0.2132  0.2085  0.1080
11856POPI   C2B64141  34.116  33.837   9.274 -0.1742  0.2180 -0.1217
11856POPI   C3B64142  33.844  33.608   9.575 -0.0725  0.2926  0.0105
11856POPI   C4B64143  33.484  33.512   9.802 -0.0671 -0.3746  0.6551
11857POPI    C164144  12.674  32.772  15.553  0.0003  0.2181 -0.4024
11857POPI    C264145  12.917  32.586  15.295 -0.1211  0.0668 -0.4086
11857POPI    C364146  12.630  32.381  15.483 -0.1038  0.1998 -0.2362
11857POPI   PO464147  12.876  32.970  15.666 -0.1530  0.0410  0.0732
11857POPI   GL164148  13.236  32.946  15.718 -0.2453  0.0813 -0.2029
11857POPI   GL264149  13.316  32.718  16.011 -0.2251  0.1193 -0.0681
11857POPI   C1A64150  13.653  33.111  15.586 -0.2693 -0.2764 -0.1701
11857POPI   D2A64151  14.032  33.182  15.853 -0.1945  0.1902 -0.4364
11857POPI   C3A64152  14.083  33.316  16.230  0.1182  0.1973  0.0880
11857POPI   C4A64153  14.331  33.292  16.612  0.2225  0.1194  0.2065
11857POPI   C1B64154  13.652  32.898  16.122  0.0942  0.0687  0.0217
11857POPI   C2B64155  13.820  33.039  16.549 -0.1323 -0.2026  0.0503
11857POPI   C3B64156  13.939  33.289  16.917 -0.1412  0.0855  0.1198
11857POPI   C4B64157  13.931  33.504  17.330  0.1832 -0.0765  0.1750
11858POPI    C164158  16.090  24.826  16.124  0.3791 -0.1155 -0.1045
11858POPI    C264159  15.803  24.752  16.393  0.3377  0.2609 -0.0432
11858POPI    C364160  15.872  24.491  16.098 -0.0490  0.1540 -0.0418
11858POPI   PO464161  16.280  24.891  16.262  0.0946 -0.0289 -0.1518
11858POPI   GL164162  16.796  24.736  16.249 -0.1047  0.0655 -0.1185
11858POPI   GL264163  16.779  24.345  16.348 -0.1100 -0.1594 -0.1260
11858POPI   C1A64164  16.809  25.165  16.557  0.1445 -0.0921  0.0568
11858POPI   D2A64165  16.890  25.529  16.520  0.0425 -0.0027  0.2943
11858POPI   C3A64166  17.278  25.669  16.643 -0.4883 -0.0470  0.1790
11858POPI   C4A64167  17.696  25.600  16.664  0.0367  0.1498 -0.2079
11858POPI   C1B64168  17.055  24.222  16.724  0.3200 -0.1354 -0.1152
11858POPI   C2B64169  17.504  24.314  16.665  0.0782 -0.0457  0.1237
11858POPI   C3B64170  17.790  24.562  16.916 -0.3246  0.1027 -0.2202
11858POPI   C4B64171  17.794  25.006  17.010 -0.4354 -0.2136 -0.2694
11859POPI    C164172  25.337  24.925   1.981 -0.2058  0.2100 -0.0780
11859POPI    C264173  25.694  24.962   1.804 -0.0368  0.0693  0.2270
11859POPI    C364174  25.376  25.154   1.656  0.1557  0.1629 -0.0709
11859POPI   PO464175  25.419  24.981   2.224 -0.0429 -0.2926 -0.0628
11859POPI   GL164176  25.720  24.806   2.375  0.0043  0.0074  0.1296
11859POPI   GL264177  25.628  24.452   2.444 -0.0085  0.1302 -0.2440
11859POPI   C1A64178  26.168  24.827   2.583  0.0051 -0.2218 -0.1080
11859POPI   D2A64179  26.337  24.544   2.816  0.1197  0.4280 -0.1573
11859POPI   C3A64180  26.676  24.476   2.989  0.3730 -0.1306 -0.0785
11859POPI   C4A64181  26.759  24.279   3.298  0.1682 -0.0505 -0.1212
11859POPI   C1B64182  25.879  24.379   2.712  0.1723 -0.0493  0.2194
11859POPI   C2B64183  25.999  24.166   2.998  0.0928  0.0472  0.3629
11859POPI   C3B64184  26.350  24.033   3.167 -0.3214  0.0728  0.0532
11859POPI   C4B64185  26.417  24.008   3.581 -0.0170 -0.0544 -0.2903
11860POPI    C164186  15.121  25.923  16.850 -0.0799 -0.1160  0.3315
11860POPI    C264187  14.761  26.093  16.809 -0.0272 -0.0262  0.2356
11860POPI    C364188  15.023  26.104  16.507 -0.0243 -0.2820  0.2275
11860POPI   PO464189  15.186  25.923  17.063 -0.0355 -0.1395 -0.2748
11860POPI   GL164190  15.461  26.129  17.222 -0.2466 -0.1558 -0.1199
11860POPI   GL264191  15.682  25.995  17.190  0.2333 -0.1799  0.2636
11860POPI   C1A64192  15.563  26.290  17.584 -0.2530 -0.4669  0.2649
11860POPI   D2A64193  15.843  26.350  17.936  0.0790  0.4583  0.0177
11860POPI   C3A64194  16.107  26.544  18.086  0.3945 -0.4239 -0.1387
11860POPI   C4A64195  16.405  26.883  18.152  0.2155  0.1209 -0.0774
11860POPI   C1B64196  15.963  26.309  17.318 -0.0644 -0.1409 -0.2388
11860POPI   C2B64197  16.269  26.458  17.541  0.3011 -0.2736 -0.2726
11860POPI   C3B64198  16.679  26.512  17.710  0.2100  0.3323 -0.0194
11860POPI   C4B64199  16.880  26.817  17.915  0.1279  0.0455  0.0446
11861POPI    C164200   8.143  18.456  13.510  0.0634  0.2338  0.1595
11861POPI    C264201   8.175  18.727  13.218 -0.1516  0.0117 -0.0731
11861POPI    C364202   7.818  18.571  13.307 -0.1033  0.1536  0.3793
11861POPI   PO464203   8.271  18.658  13.821  0.1292  0.1535  0.0853
11861POPI   GL164204   8.053  18.689  14.235 -0.0436 -0.2290 -0.1472
11861POPI   GL264205   8.115  18.588  14.565  0.0848 -0.2475 -0.0727
11861POPI   C1A64206   7.673  18.459  14.288  0.1735  0.0804 -0.1644
11861POPI   D2A64207   7.466  18.254  14.515 -0.0705  0.2268  0.0459
11861POPI   C3A64208   7.354  18.156  14.970  0.0899  0.1291  0.1124
11861POPI   C4A64209   7.203  18.060  15.395  0.0528  0.3044 -0.1160
11861POPI   C1B64210   7.866  18.376  14.793 -0.2817  0.3318 -0.0862
11861POPI   C2B64211   8.073  18.045  15.110  0.0965 -0.0169 -0.0869
11861POPI   C3B64212   7.984  17.601  15.267  0.1891  0.3175 -0.2527
11861POPI   C4B64213   8.062  17.151  15.456  0.0848  0.0605 -0.0880
11862POPI    C164214   2.990  26.730  10.089 -0.0286 -0.0015  0.0170
11862POPI    C264215   3.356  26.569  10.107  0.0538  0.1810 -0.0168
11862POPI    C364216   3.273  26.848   9.832 -0.1266  0.1005 -0.0447
11862POPI   PO464217   2.885  26.457  10.282 -0.2220  0.0525  0.2565
11862POPI   GL164218   2.464  26.616  10.410  0.0041  0.3141  0.1434
11862POPI   GL264219   2.446  26.688  10.054  0.1545 -0.0663 -0.0059
11862POPI   C1A64220   2.448  26.439  10.858 -0.1203  0.1390 -0.0004
11862POPI   D2A64221   2.311  26.162  11.214 -0.2130  0.0086 -0.2726
11862POPI   C3A64222   2.175  25.874  11.313 -0.0004 -0.1906 -0.4676
11862POPI   C4A64223   1.819  25.875  11.577 -0.1925  0.0263 -0.1351
11862POPI   C1B64224   2.105  26.445  10.047  0.2356  0.1667  0.1932
11862POPI   C2B64225   1.806  26.231  10.285  0.0715  0.2174 -0.0363
11862POPI   C3B64226   1.443  26.006  10.374  0.2788  0.2090 -0.0653
11862POPI   C4B64227   1.106  25.752  10.377 -0.0109  0.1820 -0.0738
11863POPI    C164228  21.769   4.408   8.214 -0.0334 -0.0079 -0.0292
11863POPI    C264229  21.854   4.017   8.226 -0.2476 -0.0553 -0.0301
11863POPI    C364230  21.544   4.148   8.010 -0.0463  0.1395 -0.2033
11863POPI   PO464231  21.809   4.527   8.481 -0.0807 -0.1299 -0.0653
11863POPI   GL164232  22.208   4.492   8.609 -0.2666  0.2120 -0.4561
11863POPI   GL264233  22.314   4.160   8.788  0.1439 -0.3531  0.1803
11863POPI   C1A64234  22.633   4.505   8.860  0.1421 -0.4621  0.1068
11863POPI   D2A64235  22.955   4.386   9.191 -0.0898 -0.1747  0.0395
11863POPI   C3A64236  22.876   4.315   9.579 -0.0912 -0.2184 -0.0003
11863POPI   C4A64237  22.671   4.552   9.801  0.0392 -0.3492  0.1194
11863POPI   C1B64238  22.503   4.119   9.223  0.1901  0.2162  0.2114
11863POPI   C2B64239  22.392   4.192   9.657  0.3477  0.1159 -0.0693
11863POPI   C3B64240  22.568   4.069  10.032 -0.1693 -0.1042  0.0401
11863POPI   C4B64241  23.006   4.136  10.129 -0.1085  0.0202  0.0227
11864POPI    C164242   8.140  26.726  17.322 -0.0364  0.0818 -0.1561
11864POPI    C264243   8.276  26.898  16.988  0.3279  0.0804 -0.0113
11864POPI    C364244   8.429  26.550  17.109  0.1099  0.0197  0.0920
11864POPI   PO464245   7.850  26.714  17.353  0.2686  0.1075 -0.1276
11864POPI   GL164246   7.706  26.987  17.636  0.1005  0.2767 -0.0056
11864POPI   GL264247   7.538  27.214  17.492  0.4165 -0.0175 -0.0181
11864POPI   C1A64248   7.771  27.337  18.082  0.3369  0.0309 -0.0532
11864POPI   D2A64249   7.687  27.472  18.490  0.0380 -0.1572 -0.0812
11864POPI   C3A64250   7.722  27.913  18.525  0.2495 -0.1221  0.1832
11864POPI   C4A64251   7.618  28.228  18.179  0.3677 -0.2529  0.0787
11864POPI   C1B64252   7.367  27.227  17.882  0.0736  0.0532  0.2615
11864POPI   C2B64253   7.292  27.199  18.262 -0.0932 -0.2087  0.2348
11864POPI   C3B64254   7.223  27.182  18.741 -0.0192 -0.0314  0.2952
11864POPI   C4B64255   7.138  27.377  19.107 -0.0753  0.1924 -0.3414
11865POPI    C164256   2.537  30.506  11.196  0.0436 -0.1017  0.1890
11865POPI    C264257   2.625  30.369  11.561  0.0573 -0.1257  0.1767
11865POPI    C364258   2.903  30.364  11.274  0.1557  0.2229  0.2625
11865POPI   PO464259   2.260  30.657  11.275 -0.1735  0.0869  0.0354
11865POPI   GL164260   1.850  30.670  11.168  0.2628 -0.1894  0.0033
11865POPI   GL264261   1.758  30.627  10.878 -0.0346 -0.1790  0.1769
11865POPI   C1A64262   1.593  30.501  11.441 -0.2730  0.0905 -0.0718
11865POPI   D2A64263   1.213  30.527  11.462  0.0643  0.2552 -0.3103
11865POPI   C3A64264   0.948  30.317  11.743 -0.0943  0.0828  0.1665
11865POPI   C4A64265   0.611  30.084  11.802 -0.2106 -0.0912 -0.0478
11865POPI   C1B64266   1.360  30.546  10.949 -0.0197  0.3241  0.0987
11865POPI   C2B64267   0.941  30.520  11.018 -0.0323  0.2037 -0.0153
11865POPI   C3B64268   0.651  30.616  11.367 -0.1508 -0.0543  0.2016
11865POPI   C4B64269   0.335  30.574  11.620 -0.1141 -0.1341  0.1539
11866POPI    C164270   0.462  27.879   7.830  0.2907 -0.1956 -0.0777
11866POPI    C264271   0.719  28.185   7.826  0.1489 -0.0752  0.0200
11866POPI    C364272   0.798  27.861   8.046  0.1196  0.0475  0.2127
11866POPI   PO464273   0.296  27.946   7.624  0.0546 -0.0024  0.2774
11866POPI   GL164274  35.212  27.761   7.602 -0.0141  0.0629  0.1617
11866POPI   GL264275  35.300  27.523   7.744  0.1085 -0.1903  0.4455
11866POPI   C1A64276  35.006  27.840   8.006  0.2627 -0.0897 -0.0782
11866POPI   D2A64277  34.685  27.661   8.338 -0.0108  0.0116 -0.0995
11866POPI   C3A64278  34.447  27.480   8.682 -0.3353  0.1849 -0.1417
11866POPI   C4A64279  34.059  27.445   8.850  0.1412 -0.0534 -0.0089
11866POPI   C1B64280  35.286  27.147   7.759 -0.0528  0.2551 -0.2605
11866POPI   C2B64281  34.966  26.802   7.991 -0.0480 -0.2254 -0.0519
11866POPI   C3B64282  34.597  26.795   8.007 -0.1298 -0.1281  0.1322
11866POPI   C4B64283  34.187  26.639   7.935 -0.1095 -0.1928  0.2831
11867POPI    C164284  19.172   4.681  10.959  0.4000  0.1067  0.0632
11867POPI    C264285  19.260   4.673  10.569 -0.0051 -0.0964 -0.0258
11867POPI    C364286  18.887   4.756  10.689  0.1356  0.0425  0.3211
11867POPI   PO464287  19.236   4.448  11.055 -0.1090 -0.0241  0.2881
11867POPI   GL164288  19.411   4.093  11.305 -0.0626 -0.1904 -0.0042
11867POPI   GL264289  19.322   3.799  11.313  0.3723 -0.0874 -0.0741
11867POPI   C1A64290  19.803   3.982  11.539 -0.1312 -0.2446  0.0956
11867POPI   D2A64291  20.247   3.871  11.692 -0.0371 -0.1171  0.0380
11867POPI   C3A64292  20.323   3.663  12.017 -0.0392  0.2801 -0.1616
11867POPI   C4A64293  20.494   3.344  12.134 -0.1549 -0.0047 -0.0985
11867POPI   C1B64294  19.639   3.480  11.372  0.0581  0.0784  0.1195
11867POPI   C2B64295  20.077   3.416  11.513  0.1340 -0.4383 -0.3100
11867POPI   C3B64296  20.321   3.139  11.679 -0.0104  0.0735  0.0866
11867POPI   C4B64297  20.514   2.755  11.640 -0.1838 -0.0972 -0.0637
11868POPI    C164298  34.187  16.686   0.988 -0.1458 -0.0055 -0.0996
11868POPI    C264299  34.264  16.329   1.153 -0.1164  0.0522  0.0126
11868POPI    C364300  34.565  16.573   1.053 -0.1376  0.0527 -0.0489
11868POPI   PO464301  33.851  16.600   0.990 -0.0365 -0.1333 -0.1702
11868POPI   GL164302  33.585  16.757   1.207  0.3569 -0.2848 -0.4731
11868POPI   GL264303  33.291  16.692   1.227 -0.2149  0.1029  0.3489
11868POPI   C1A64304  33.751  16.962   1.583  0.1992 -0.0762  0.0115
11868POPI   D2A64305  33.632  17.079   2.044  0.0283 -0.0721  0.4594
11868POPI   C3A64306  33.849  17.264   2.169  0.0563 -0.1092 -0.0201
11868POPI   C4A64307  34.054  17.424   2.476  0.2898 -0.0577  0.1606
11868POPI   C1B64308  33.291  16.824   1.704 -0.1310  0.2823 -0.1735
11868POPI   C2B64309  33.192  17.009   2.017 -0.2237 -0.0833  0.0721
11868POPI   C3B64310  33.104  16.929   2.416  0.1291 -0.0458 -0.0555
11868POPI   C4B64311  33.162  16.902   2.883 -0.0010 -0.0024  0.0268
11869POPI    C164312  12.207  22.228  17.770 -0.0259  0.0054 -0.1504
11869POPI    C264313  12.138  22.083  17.404 -0.2152 -0.0346 -0.0995
11869POPI    C364314  12.065  22.468  17.484 -0.0803 -0.0020 -0.1298
11869POPI   PO464315  12.373  22.032  17.822  0.3498  0.0125 -0.2826
11869POPI   GL164316  12.753  22.089  17.840 -0.1011 -0.0160  0.0508
11869POPI   GL264317  12.847  22.331  18.165  0.0420 -0.0827  0.1119
11869POPI   C1A64318  13.039  21.909  18.211 -0.1062 -0.0572 -0.2280
11869POPI   D2A64319  13.380  21.687  18.485 -0.2062  0.1949  0.0130
11869POPI   C3A64320  13.474  21.907  18.799  0.0901  0.0284 -0.1952
11869POPI   C4A64321  13.357  21.921  19.222 -0.0522 -0.0888  0.1418
11869POPI   C1B64322  12.742  22.541  18.535 -0.0791  0.2056  0.2904
11869POPI   C2B64323  12.749  22.571  18.898  0.0497 -0.1658  0.0046
11869POPI   C3B64324  12.712  22.652  19.316 -0.2588 -0.0827  0.0640
11869POPI   C4B64325  12.574  22.953  19.687  0.1457  0.0063  0.2277
11870POPI    C164326   5.669  26.811  13.810 -0.0519 -0.0333 -0.0679
11870POPI    C264327   5.907  26.902  14.118 -0.0220 -0.1965 -0.0425
11870POPI    C364328   5.945  26.549  13.934  0.0058 -0.0721 -0.2762
11870POPI   PO464329   5.397  26.781  13.922 -0.2806 -0.5714  0.3612
11870POPI   GL164330   5.056  26.586  13.690 -0.0997  0.3474 -0.2015
11870POPI   GL264331   4.886  26.935  13.845 -0.2596 -0.0168  0.2119
11870POPI   C1A64332   4.759  26.262  13.873  0.1247  0.1195  0.3100
11870POPI   D2A64333   4.540  26.001  14.067 -0.1233 -0.0300 -0.1890
11870POPI   C3A64334   4.158  25.773  14.220 -0.0402  0.1722  0.2050
11870POPI   C4A64335   3.752  25.753  14.470  0.0680 -0.5472 -0.0453
11870POPI   C1B64336   4.535  26.800  14.089  0.0038  0.1143 -0.1471
11870POPI   C2B64337   4.491  26.394  14.336  0.0584  0.0018  0.0023
11870POPI   C3B64338   4.329  26.100  14.612  0.1144  0.1734  0.0336
11870POPI   C4B64339   4.589  25.667  14.553  0.1404 -0.0939 -0.1337
11871POPI    C164340  19.056   7.873  12.081 -0.0487  0.3096 -0.0495
11871POPI    C264341  19.220   8.182  11.886 -0.1306  0.3286 -0.0882
11871POPI    C364342  18.825   8.121  11.869 -0.1219  0.2563 -0.0320
11871POPI   PO464343  19.111   7.780  12.314  0.1700 -0.1141  0.2892
11871POPI   GL164344  19.093   7.855  12.701 -0.4606  0.0065 -0.4496
11871POPI   GL264345  19.331   8.128  12.711 -0.0044 -0.1883  0.1175
11871POPI   C1A64346  19.384   7.588  12.846 -0.0474 -0.1089 -0.0021
11871POPI   D2A64347  19.787   7.422  13.133  0.4975  0.1108  0.2985
11871POPI   C3A64348  20.140   7.661  13.198  0.0849 -0.2101 -0.2097
11871POPI   C4A64349  20.453   8.035  13.449 -0.0531 -0.0630 -0.1595
11871POPI   C1B64350  19.671   7.965  13.045  0.1682 -0.0614  0.0613
11871POPI   C2B64351  19.730   7.872  13.374  0.0943  0.0561  0.0137
11871POPI   C3B64352  19.936   7.704  13.753  0.1580  0.0489 -0.0848
11871POPI   C4B64353  19.887   7.744  14.212  0.0501  0.0752 -0.1054
11872POPI    C164354  11.071  22.169  17.796  0.1279 -0.0891  0.2425
11872POPI    C264355  11.307  22.012  17.515 -0.1551  0.1075 -0.1097
11872POPI    C364356  11.451  22.289  17.765  0.1868 -0.2986  0.1505
11872POPI   PO464357  10.887  21.895  17.878 -0.1588  0.0437 -0.0752
11872POPI   GL164358  11.030  21.651  18.245  0.3021 -0.0994  0.1630
11872POPI   GL264359  10.770  21.462  18.062  0.0345 -0.1442  0.2463
11872POPI   C1A64360  10.953  21.573  18.762 -0.1001 -0.1830  0.2356
11872POPI   D2A64361  10.619  21.560  19.121 -0.0853 -0.0754  0.1102
11872POPI   C3A64362  10.186  21.474  19.308  0.0410  0.0062 -0.1465
11872POPI   C4A64363   9.923  21.371  19.688 -0.1694 -0.2999 -0.0920
11872POPI   C1B64364  10.824  21.166  18.488  0.0238  0.0733 -0.0669
11872POPI   C2B64365  10.692  21.028  19.018  0.0817 -0.3474 -0.1029
11872POPI   C3B64366  10.787  20.740  19.323  0.0426  0.0377 -0.1668
11872POPI   C4B64367  11.029  20.719  19.756  0.0971  0.1460 -0.0277
11873POPI    C164368   3.072  28.292  12.333  0.1331  0.0709 -0.0670
11873POPI    C264369   2.923  27.985  12.541 -0.0690  0.0593 -0.2267
11873POPI    C364370   3.224  28.201  12.691  0.0069 -0.1538 -0.0696
11873POPI   PO464371   2.849  28.343  12.189  0.0560  0.0759  0.3353
11873POPI   GL164372   2.503  28.404  12.333 -0.1085  0.0002  0.0502
11873POPI   GL264373   2.321  28.125  12.262  0.0152  0.0698  0.4154
11873POPI   C1A64374   2.162  28.524  12.648 -0.0121  0.0076  0.0028
11873POPI   D2A64375   1.888  28.329  12.945 -0.0834  0.2437  0.3538
11873POPI   C3A64376   1.603  28.427  13.186 -0.2971  0.0493  0.1595
11873POPI   C4A64377   1.393  28.660  13.444 -0.2524  0.1038  0.0330
11873POPI   C1B64378   2.047  28.054  12.545 -0.0262  0.3738  0.0738
11873POPI   C2B64379   1.732  27.904  12.717 -0.0975 -0.0955  0.0778
11873POPI   C3B64380   1.430  27.658  12.757  0.1180  0.0016  0.1118
11873POPI   C4B64381   1.317  27.251  12.837  0.0787 -0.1248  0.0806
11874POPI    C164382   4.695  17.552   7.081  0.1488  0.0408 -0.1173
11874POPI    C264383   5.032  17.558   6.866  0.2658 -0.0144  0.0634
11874POPI    C364384   4.991  17.802   7.180  0.2329 -0.1754  0.1848
11874POPI   PO464385   4.609  17.223   7.214 -0.3983 -0.1223  0.2429
11874POPI   GL164386   4.252  17.223   7.140 -0.0116  0.0072  0.0659
11874POPI   GL264387   4.160  16.880   7.147 -0.0417 -0.0174  0.2565
11874POPI   C1A64388   3.858  17.230   7.310  0.1645 -0.0746  0.0601
11874POPI   D2A64389   3.477  17.188   7.469  0.0529  0.2434 -0.2353
11874POPI   C3A64390   3.069  17.280   7.324  0.0850  0.0936 -0.0848
11874POPI   C4A64391   2.779  17.617   7.256 -0.2104 -0.2718  0.2612
11874POPI   C1B64392   3.782  16.766   7.333  0.2062 -0.0891 -0.1075
11874POPI   C2B64393   3.366  16.781   7.651 -0.0765  0.0155  0.3000
11874POPI   C3B64394   2.986  16.508   7.692  0.4028 -0.1887 -0.1523
11874POPI   C4B64395   2.536  16.432   7.715  0.1629 -0.1934 -0.0076
11875POPI    C164396  34.917   2.564   8.345 -0.1170 -0.1942  0.0872
11875POPI    C264397  35.272   2.410   8.245 -0.1054 -0.0045 -0.1710
11875POPI    C364398  34.937   2.260   8.085 -0.1222 -0.0109 -0.1294
11875POPI   PO464399  34.972   2.874   8.247  0.3926 -0.1432 -0.1985
11875POPI   GL164400  34.895   3.303   8.460 -0.0211 -0.3215  0.2260
11875POPI   GL264401  34.687   3.275   8.191 -0.0185 -0.0228 -0.0802
11875POPI   C1A64402  34.803   3.492   8.873 -0.0605 -0.0833  0.0399
11875POPI   D2A64403  34.703   3.553   9.184 -0.0415 -0.0477  0.0119
11875POPI   C3A64404  34.424   3.529   9.588  0.3250  0.3049  0.1881
11875POPI   C4A64405  34.142   3.508   9.941 -0.1131  0.3093 -0.0012
11875POPI   C1B64406  34.488   3.594   8.421 -0.1202 -0.3685 -0.0837
11875POPI   C2B64407  34.373   3.827   8.786  0.1509  0.1155  0.0330
11875POPI   C3B64408  34.361   4.230   8.842  0.0652 -0.0267  0.2026
11875POPI   C4B64409  34.193   4.386   9.244  0.2505 -0.2038  0.3722
11876POPI    C164410  29.534  19.867  25.475  0.0166 -0.5179  0.3592
11876POPI    C264411  29.900  19.758  25.357  0.0348 -0.0557 -0.0259
11876POPI    C364412  29.607  19.798  25.088 -0.1199  0.2581  0.1863
11876POPI   PO464413  29.424  19.730  25.714 -0.0572  0.2410 -0.1548
11876POPI   GL164414  29.448  19.677  26.163  0.0013  0.1205  0.2917
11876POPI   GL264415  29.134  19.855   0.011  0.0082 -0.3316  0.0317
11876POPI   C1A64416  29.504  19.741   0.348  0.2915  0.1243  0.2591
11876POPI   D2A64417  29.521  19.637   0.795 -0.1882 -0.1361  0.1538
11876POPI   C3A64418  29.793  19.779   1.123  0.1420 -0.2397 -0.0973
11876POPI   C4A64419  29.794  20.152   1.341 -0.0234  0.0293  0.1191
11876POPI   C1B64420  29.226  20.183   0.293 -0.1113  0.0212  0.1418
11876POPI   C2B64421  29.513  20.482   0.572  0.3408 -0.1126 -0.0817
11876POPI   C3B64422  29.638  20.571   0.949  0.1050 -0.1585  0.1941
11876POPI   C4B64423  29.474  20.768   1.273  0.2450  0.0489 -0.0304
11877POPI    C164424  17.534   9.492  13.363 -0.0841 -0.0144  0.1402
11877POPI    C264425  17.279   9.211  13.238 -0.0034 -0.0109 -0.0344
11877POPI    C364426  17.231   9.590  13.120  0.2070 -0.0473 -0.2403
11877POPI   PO464427  17.724   9.286  13.431  0.0617  0.0733 -0.2353
11877POPI   GL164428  18.012   9.495  13.704 -0.1877  0.0019  0.0525
11877POPI   GL264429  18.080   9.105  13.725  0.1420 -0.1057  0.2176
11877POPI   C1A64430  18.237   9.443  14.183  0.1286 -0.1140  0.0408
11877POPI   D2A64431  18.471   9.527  14.465  0.1438 -0.2180 -0.2286
11877POPI   C3A64432  18.604   9.224  14.740  0.3448 -0.2135 -0.0211
11877POPI   C4A64433  18.689   8.969  15.022 -0.2326  0.0497 -0.0832
11877POPI   C1B64434  18.464   9.072  13.919  0.0342  0.0974  0.2519
11877POPI   C2B64435  18.719   9.165  14.227  0.2026 -0.4173  0.0756
11877POPI   C3B64436  19.046   9.141  14.513  0.0802 -0.1746 -0.1410
11877POPI   C4B64437  19.292   8.783  14.326  0.1322  0.2009  0.0243
11878POPI    C164438  30.873  26.805   2.889 -0.0505  0.1672  0.2295
11878POPI    C264439  30.686  26.540   2.656  0.2146 -0.0052  0.2101
11878POPI    C364440  30.739  26.916   2.529  0.0612 -0.0090  0.1331
11878POPI   PO464441  30.815  26.644   3.134 -0.1031 -0.0316 -0.0062
11878POPI   GL164442  30.860  26.189   3.326  0.0186  0.2197  0.1280
11878POPI   GL264443  30.772  26.110   2.987  0.0388 -0.0156  0.4309
11878POPI   C1A64444  30.780  26.292   3.753 -0.1569 -0.0606 -0.2610
11878POPI   D2A64445  30.824  25.833   4.007  0.0872  0.1550 -0.1491
11878POPI   C3A64446  31.085  25.520   4.063  0.2977  0.1459  0.0609
11878POPI   C4A64447  31.418  25.329   4.013  0.0855  0.0585 -0.1680
11878POPI   C1B64448  30.866  25.730   2.960 -0.0214  0.1389 -0.0486
11878POPI   C2B64449  30.604  25.372   2.996  0.1062 -0.4254 -0.2187
11878POPI   C3B64450  30.131  25.234   2.825 -0.0676  0.0276 -0.1991
11878POPI   C4B64451  29.978  24.907   2.578  0.1581  0.1544  0.0989
11879POPI    C164452  24.366  23.386   2.041  0.0485 -0.0681  0.0710
11879POPI    C264453  24.297  23.771   1.958  0.0244  0.0142  0.4612
11879POPI    C364454  24.033  23.562   2.174  0.0244 -0.2298  0.2273
11879POPI   PO464455  24.665  23.368   1.906 -0.1558 -0.0501  0.2144
11879POPI   GL164456  25.050  23.429   2.067  0.0836 -0.0157  0.3803
11879POPI   GL264457  25.339  23.538   1.989  0.1483  0.1056 -0.1058
11879POPI   C1A64458  25.285  23.040   2.303 -0.0162  0.1687  0.0747
11879POPI   D2A64459  25.726  22.862   2.353 -0.3905 -0.0369  0.3469
11879POPI   C3A64460  25.974  22.573   2.652 -0.1821 -0.2180 -0.1621
11879POPI   C4A64461  26.366  22.313   2.739  0.1326  0.0379 -0.0861
11879POPI   C1B64462  25.661  23.417   2.242  0.1381 -0.2488 -0.2427
11879POPI   C2B64463  26.078  23.246   2.428 -0.0912  0.0214  0.2194
11879POPI   C3B64464  26.351  22.829   2.426 -0.5002 -0.0561 -0.1867
11879POPI   C4B64465  26.627  22.596   2.484  0.0273  0.0927  0.0129
11880POPI    C164466   0.216  29.457   8.597 -0.1075  0.0586 -0.0871
11880POPI    C264467   0.160  29.257   8.254 -0.1535 -0.2124  0.0765
11880POPI    C364468   0.505  29.220   8.453 -0.1010 -0.0028  0.0261
11880POPI   PO464469   0.003  29.410   8.787 -0.1716 -0.0575 -0.2115
11880POPI   GL164470  34.951  29.382   8.932 -0.0644 -0.1468 -0.2994
11880POPI   GL264471  34.714  29.690   8.923 -0.1500  0.0575  0.2267
11880POPI   C1A64472  34.665  29.233   9.249 -0.3849 -0.2772  0.0019
11880POPI   D2A64473  34.287  29.096   9.061 -0.2360 -0.0080 -0.0268
11880POPI   C3A64474  33.975  29.234   9.220  0.1630  0.0042  0.0675
11880POPI   C4A64475  33.616  29.217   9.483 -0.2000  0.0608 -0.1610
11880POPI   C1B64476  34.326  29.636   9.180  0.1965 -0.1149 -0.0410
11880POPI   C2B64477  34.052  29.613   9.542  0.0054 -0.1382 -0.0407
11880POPI   C3B64478  33.635  29.559   9.800  0.1196 -0.0935  0.0496
11880POPI   C4B64479  33.185  29.729  10.055  0.0870  0.0361  0.0937
11881POPI    C164480  13.445  21.445  16.817  0.0822  0.2013  0.0684
11881POPI    C264481  13.345  21.068  16.728  0.1007  0.1569  0.2326
11881POPI    C364482  13.633  21.253  16.521  0.1880  0.0332  0.2427
11881POPI   PO464483  13.527  21.501  17.111  0.0445 -0.0093 -0.1187
11881POPI   GL164484  13.407  21.526  17.624  0.2066  0.1383  0.0077
11881POPI   GL264485  13.560  21.199  17.619 -0.0673  0.1943 -0.1409
11881POPI   C1A64486  13.303  21.492  17.984 -0.2841 -0.0259 -0.0984
11881POPI   D2A64487  13.068  21.396  18.289  0.1496  0.1395 -0.0415
11881POPI   C3A64488  13.165  21.256  18.605  0.2456  0.0147  0.2247
11881POPI   C4A64489  13.430  21.374  18.909 -0.1212  0.0456  0.0542
11881POPI   C1B64490  13.827  20.998  17.824 -0.1480 -0.0470  0.0596
11881POPI   C2B64491  13.874  20.760  18.227 -0.2791  0.3592  0.1948
11881POPI   C3B64492  13.805  20.623  18.661 -0.0996  0.0735  0.2247
11881POPI   C4B64493  13.775  20.433  19.071 -0.0096  0.0415 -0.2137
11882POPI    C164494  30.436  28.979   4.481  0.2511  0.1158 -0.2248
11882POPI    C264495  30.371  29.318   4.683  0.1631 -0.0475  0.0225
11882POPI    C364496  30.369  29.320   4.283  0.0692  0.2251  0.0232
11882POPI   PO464497  30.721  28.874   4.679  0.1084  0.1876  0.0556
11882POPI   GL164498  30.930  28.583   4.958 -0.0343  0.3465 -0.0960
11882POPI   GL264499  30.774  28.199   5.005 -0.2040 -0.1632  0.0618
11882POPI   C1A64500  30.883  28.660   5.384 -0.1250 -0.2392 -0.1442
11882POPI   D2A64501  30.852  28.771   5.767 -0.2120 -0.0848  0.6299
11882POPI   C3A64502  30.645  28.417   5.904 -0.2705  0.0753 -0.0443
11882POPI   C4A64503  30.738  28.058   6.107  0.1339 -0.0454 -0.2110
11882POPI   C1B64504  30.478  27.995   5.034  0.2702 -0.0517 -0.0187
11882POPI   C2B64505  30.166  27.722   5.231  0.0750 -0.0366  0.1381
11882POPI   C3B64506  30.110  27.410   5.497  0.4380  0.1100 -0.3220
11882POPI   C4B64507  29.795  27.257   5.821 -0.0007 -0.0241 -0.0894
11883POPI    C164508   7.672  29.490  16.529  0.0204  0.2580  0.1479
11883POPI    C264509   8.023  29.615  16.385  0.1477 -0.1591  0.0913
11883POPI    C364510   7.985  29.532  16.774  0.0831 -0.0159  0.1159
11883POPI   PO464511   7.504  29.731  16.433  0.2090 -0.2924  0.3049
11883POPI   GL164512   7.177  29.765  16.738 -0.0518  0.1468 -0.0794
11883POPI   GL264513   6.833  29.630  16.603  0.3112  0.1983  0.0369
11883POPI   C1A64514   7.056  29.932  17.051 -0.1166  0.0517  0.2475
11883POPI   D2A64515   6.941  29.673  17.332 -0.1249 -0.0567 -0.1966
11883POPI   C3A64516   6.995  29.360  17.123 -0.2608  0.5923  0.2250
11883POPI   C4A64517   7.417  29.290  16.945  0.0893  0.1194  0.2259
11883POPI   C1B64518   6.533  29.567  16.988  0.2390 -0.0777  0.3499
11883POPI   C2B64519   6.311  29.441  17.350  0.0464  0.0556 -0.3965
11883POPI   C3B64520   6.546  29.618  17.647 -0.1560  0.0043 -0.2554
11883POPI   C4B64521   6.811  29.931  17.737  0.1300  0.4463 -0.2268
11884POPI    C164522   4.091  13.819   6.038 -0.1104 -0.0050 -0.0203
11884POPI    C264523   4.374  13.549   6.123 -0.1987 -0.0940 -0.0082
11884POPI    C364524   4.468  13.937   6.101 -0.1032 -0.1084  0.1357
11884POPI   PO464525   3.861  13.704   6.059  0.0663  0.1601 -0.0230
11884POPI   GL164526   3.688  13.720   6.415  0.0523 -0.1736  0.2294
11884POPI   GL264527   3.676  13.820   6.683 -0.2892 -0.4530  0.1266
11884POPI   C1A64528   3.349  14.147   6.476  0.3364  0.0820  0.0228
11884POPI   D2A64529   3.146  14.565   6.450 -0.0286 -0.0604 -0.2457
11884POPI   C3A64530   3.118  14.879   6.784 -0.0295 -0.0845  0.3405
11884POPI   C4A64531   2.979  14.804   7.121 -0.0213 -0.3731 -0.3327
11884POPI   C1B64532   3.331  13.760   6.834  0.2360  0.0660 -0.0304
11884POPI   C2B64533   2.947  13.986   7.002 -0.0921  0.0595  0.4344
11884POPI   C3B64534   2.868  14.288   6.731  0.1121  0.1226 -0.1525
11884POPI   C4B64535   2.616  14.715   6.801  0.1930 -0.0839  0.3376
11885POPI    C164536  18.655  27.881   9.577  0.0832 -0.0984 -0.0697
11885POPI    C264537  18.480  27.839   9.220 -0.0896 -0.2512  0.0323
11885POPI    C364538  18.368  28.135   9.465 -0.0159 -0.1850 -0.0143
11885POPI   PO464539  18.781  27.471   9.494  0.0560 -0.2427  0.0422
11885POPI   GL164540  18.930  27.279   9.827 -0.0263 -0.1424 -0.1695
11885POPI   GL264541  19.310  27.271   9.612 -0.1116  0.0266  0.5367
11885POPI   C1A64542  19.192  27.525  10.039 -0.0712  0.0722  0.0636
11885POPI   D2A64543  19.199  27.835  10.282 -0.1133 -0.0543  0.0996
11885POPI   C3A64544  19.437  27.921  10.580 -0.1400  0.1977 -0.1407
11885POPI   C4A64545  19.774  28.046  10.766  0.1068  0.1916  0.0235
11885POPI   C1B64546  19.554  27.209  10.012 -0.0535  0.1585  0.1791
11885POPI   C2B64547  19.859  27.441  10.160  0.1339  0.0515 -0.0040
11885POPI   C3B64548  20.015  27.738  10.397 -0.0866  0.0537 -0.0346
11885POPI   C4B64549  20.233  28.146  10.604 -0.1339 -0.0757  0.0782
11886POPI    C164550  34.579   9.716   2.644  0.0286  0.0955 -0.2170
11886POPI    C264551  34.881   9.952   2.527  0.0961  0.0758 -0.0830
11886POPI    C364552  34.929   9.555   2.538  0.0602  0.0714 -0.0769
11886POPI   PO464553  34.524   9.800   2.971  0.1840  0.1638 -0.0454
11886POPI   GL164554  34.290  10.119   3.192 -0.3211 -0.0065  0.1354
11886POPI   GL264555  34.598  10.161   3.252  0.0661 -0.0581 -0.0836
11886POPI   C1A64556  34.044  10.129   3.481  0.0709  0.1471 -0.1192
11886POPI   D2A64557  34.143  10.416   3.823  0.0456 -0.0693  0.0773
11886POPI   C3A64558  33.920  10.517   4.186 -0.2607  0.1451  0.0071
11886POPI   C4A64559  33.781  10.825   4.474  0.4507 -0.0840 -0.2736
11886POPI   C1B64560  34.556  10.108   3.690  0.0578  0.0227 -0.0379
11886POPI   C2B64561  34.338  10.036   4.050  0.0249 -0.0782 -0.0334
11886POPI   C3B64562  34.207  10.223   4.508 -0.0632 -0.1090 -0.1766
11886POPI   C4B64563  33.928  10.433   4.786  0.2910 -0.0346 -0.0738
11887POPI    C164564  27.786   5.388   4.216  0.0015  0.0536 -0.1065
11887POPI    C264565  28.069   5.362   3.934  0.0201  0.0559 -0.0880
11887POPI    C364566  27.780   5.637   3.903  0.0146  0.0475 -0.1116
11887POPI   PO464567  27.987   5.428   4.442  0.1908  0.3592 -0.2101
11887POPI   GL164568  27.976   5.285   4.829  0.0848 -0.0886 -0.1321
11887POPI   GL264569  27.859   5.572   4.887  0.0848  0.1172  0.0015
11887POPI   C1A64570  28.212   5.265   5.230  0.2914 -0.2046 -0.1204
11887POPI   D2A64571  28.267   5.453   5.584 -0.1175  0.0394 -0.2075
11887POPI   C3A64572  28.480   5.568   5.948 -0.0829  0.1479  0.2248
11887POPI   C4A64573  28.326   5.944   5.960 -0.0050  0.3002 -0.1261
11887POPI   C1B64574  27.832   5.618   5.287 -0.1190 -0.1440  0.3515
11887POPI   C2B64575  27.957   5.834   5.624  0.1448  0.3081 -0.0867
11887POPI   C3B64576  27.839   6.100   5.853  0.0726  0.0052 -0.1525
11887POPI   C4B64577  27.625   6.296   6.136  0.2179 -0.0636  0.0660
11888POPI    C164578  13.477  18.252  15.259 -0.2645  0.1294  0.1925
11888POPI    C264579  13.738  18.545  15.181 -0.1652  0.0010  0.0394
11888POPI    C364580  13.353  18.633  15.248 -0.1112  0.1776  0.1228
11888POPI   PO464581  13.615  18.117  15.478  0.0739 -0.1901  0.0148
11888POPI   GL164582  13.918  17.935  15.667  0.0113  0.4246 -0.1112
11888POPI   GL264583  14.205  17.929  15.643 -0.0235 -0.1061  0.0103
11888POPI   C1A64584  13.901  17.945  16.119  0.0010  0.3127 -0.3871
11888POPI   D2A64585  13.954  17.732  16.487 -0.3172 -0.0457 -0.0125
11888POPI   C3A64586  13.795  17.455  16.618  0.3252 -0.1044 -0.1967
11888POPI   C4A64587  14.059  17.077  16.808  0.0445  0.1610 -0.0777
11888POPI   C1B64588  14.187  17.600  16.005 -0.1303 -0.0529  0.2616
11888POPI   C2B64589  14.309  17.344  16.367  0.1121  0.1209  0.0327
11888POPI   C3B64590  14.605  17.114  16.467 -0.1213 -0.0919  0.5906
11888POPI   C4B64591  14.714  16.755  16.728 -0.0572 -0.0224  0.0400
11889POPI    C164592  31.278  28.838   4.368  0.0151  0.1480 -0.0143
11889POPI    C264593  31.556  29.005   4.602 -0.0821  0.1213  0.1207
11889POPI    C364594  31.177  29.133   4.619 -0.1289 -0.0182  0.1244
11889POPI   PO464595  31.258  28.614   4.441  0.0706 -0.1896  0.2955
11889POPI   GL164596  31.390  28.526   4.839 -0.1137 -0.2348 -0.0235
11889POPI   GL264597  31.668  28.647   5.171  0.0209 -0.0847 -0.0408
11889POPI   C1A64598  31.262  28.286   5.142 -0.0417 -0.0662 -0.1016
11889POPI   D2A64599  30.945  28.168   5.488  0.2402 -0.1098 -0.2833
11889POPI   C3A64600  30.902  27.777   5.717  0.1336  0.0773 -0.0148
11889POPI   C4A64601  30.940  27.522   5.996 -0.1299  0.1840 -0.2224
11889POPI   C1B64602  31.877  28.394   5.548  0.0891  0.0991  0.0403
11889POPI   C2B64603  31.764  28.208   5.865 -0.1069  0.0594 -0.0102
11889POPI   C3B64604  31.747  28.038   6.161  0.3004 -0.4307 -0.0583
11889POPI   C4B64605  31.568  27.700   6.514  0.1256 -0.3021  0.0080
11890POPI    C164606  15.158  29.221  15.507  0.0541  0.1809  0.3117
11890POPI    C264607  14.854  29.387  15.305  0.0789  0.0674  0.1814
11890POPI    C364608  15.195  29.297  15.116  0.1569  0.1008  0.3060
11890POPI   PO464609  14.997  29.131  15.734  0.2761 -0.0542  0.2090
11890POPI   GL164610  15.219  29.006  16.148 -0.0435 -0.4036 -0.0179
11890POPI   GL264611  15.407  28.679  16.194  0.0128 -0.2220  0.0284
11890POPI   C1A64612  15.401  29.354  16.460 -0.0631  0.2405  0.0943
11890POPI   D2A64613  15.634  29.510  16.776 -0.1251 -0.0393 -0.1749
11890POPI   C3A64614  15.994  29.658  16.892  0.0502  0.2659 -0.2566
11890POPI   C4A64615  16.251  30.038  16.906 -0.1130  0.0463  0.1718
11890POPI   C1B64616  15.701  29.009  16.278 -0.1209 -0.2687  0.0820
11890POPI   C2B64617  15.974  29.265  16.466  0.1982 -0.0011  0.2479
11890POPI   C3B64618  16.428  29.221  16.628 -0.0422 -0.0797  0.2252
11890POPI   C4B64619  16.832  29.172  16.753  0.0985 -0.1214  0.0410
11891POPI    C164620  20.471  20.873   8.758 -0.1980  0.2370 -0.0680
11891POPI    C264621  20.558  20.968   8.379 -0.0953  0.0953 -0.0803
11891POPI    C364622  20.271  20.700   8.457 -0.1662  0.1782 -0.0557
11891POPI   PO464623  20.661  20.883   8.916 -0.0730  0.2606 -0.0101
11891POPI   GL164624  20.926  21.104   9.151  0.0417 -0.0667  0.2401
11891POPI   GL264625  21.067  21.443   9.085 -0.0228  0.0301  0.4738
11891POPI   C1A64626  21.337  21.123   9.373  0.2339  0.2178 -0.2086
11891POPI   D2A64627  21.758  21.192   9.511 -0.0520  0.0010 -0.1447
11891POPI   C3A64628  22.188  21.114   9.300  0.1588  0.1221  0.2232
11891POPI   C4A64629  22.564  21.263   9.328 -0.1463 -0.2797  0.2810
11891POPI   C1B64630  21.392  21.624   9.265  0.2444  0.5403 -0.2541
11891POPI   C2B64631  21.778  21.687   9.406 -0.1868 -0.0878  0.1728
11891POPI   C3B64632  22.215  21.654   9.306  0.3323 -0.0052  0.1737
11891POPI   C4B64633  22.701  21.734   9.277 -0.1500 -0.0255  0.2270
11892POPI    C164634  17.951  17.643  12.382  0.1303  0.1209 -0.1348
11892POPI    C264635  17.934  17.996  12.196 -0.1181  0.1386 -0.0802
11892POPI    C364636  17.605  17.770  12.227  0.0047 -0.0272  0.0208
11892POPI   PO464637  18.012  17.684  12.645 -0.2667 -0.1638  0.1510
11892POPI   GL164638  18.345  17.648  12.920 -0.0089  0.2608 -0.1454
11892POPI   GL264639  18.597  17.449  12.803  0.0176 -0.2188  0.0387
11892POPI   C1A64640  18.432  17.603  13.397  0.2148  0.0950 -0.0039
11892POPI   D2A64641  18.358  17.897  13.727  0.0182  0.1075 -0.3407
11892POPI   C3A64642  18.506  17.869  14.077  0.1432  0.0256  0.0390
11892POPI   C4A64643  18.869  17.843  14.493  0.2838 -0.3124  0.3064
11892POPI   C1B64644  18.847  17.517  13.230  0.0022 -0.0548 -0.3021
11892POPI   C2B64645  19.205  17.461  13.539  0.0209  0.4600  0.0053
11892POPI   C3B64646  19.504  17.388  13.864  0.1557  0.1092 -0.4105
11892POPI   C4B64647  19.758  17.662  14.035 -0.2405 -0.2918 -0.0737
11893POPI    C164648  32.958  31.518   7.314 -0.0050  0.0286  0.0524
11893POPI    C264649  33.273  31.274   7.344 -0.0315 -0.0178 -0.0539
11893POPI    C364650  33.047  31.268   7.015  0.0632  0.2640 -0.1249
11893POPI   PO464651  32.846  31.551   7.504 -0.5562  0.2884 -0.1050
11893POPI   GL164652  33.019  31.672   7.911 -0.1010  0.2377 -0.0054
11893POPI   GL264653  33.232  31.945   7.909  0.0030  0.1754  0.2139
11893POPI   C1A64654  32.832  31.772   8.385  0.0422  0.0484  0.2155
11893POPI   D2A64655  32.915  31.713   8.814  0.0087  0.1164  0.0306
11893POPI   C3A64656  32.806  31.729   9.236  0.1411 -0.1357 -0.1675
11893POPI   C4A64657  32.936  31.710   9.736 -0.0316 -0.1972 -0.0257
11893POPI   C1B64658  32.851  32.107   8.062 -0.0365 -0.2639 -0.1110
11893POPI   C2B64659  32.603  32.263   8.384 -0.4372 -0.3903 -0.1433
11893POPI   C3B64660  32.487  32.058   8.762 -0.3465 -0.2010 -0.2283
11893POPI   C4B64661  32.422  32.261   9.093  0.0543  0.3084  0.0635
11894POPI    C164662  18.897   6.324  12.118  0.3248 -0.1532  0.0735
11894POPI    C264663  18.584   6.083  12.181 -0.0756  0.3144 -0.0990
11894POPI    C364664  18.763   6.089  11.823  0.1316  0.0487 -0.0011
11894POPI   PO464665  19.039   6.278  12.288 -0.1756  0.0563 -0.1740
11894POPI   GL164666  19.196   6.139  12.687  0.0997 -0.0390  0.1832
11894POPI   GL264667  18.945   5.930  12.672  0.0230  0.4918 -0.1597
11894POPI   C1A64668  19.193   6.163  13.119 -0.2658  0.2100 -0.1274
11894POPI   D2A64669  19.307   6.064  13.475  0.0096 -0.0274  0.1361
11894POPI   C3A64670  19.519   6.065  13.849  0.0251 -0.1181 -0.0941
11894POPI   C4A64671  19.712   5.856  14.103 -0.3814 -0.0160  0.0359
11894POPI   C1B64672  19.272   5.718  12.987 -0.1216 -0.0004  0.0764
11894POPI   C2B64673  19.436   5.585  13.370 -0.3315 -0.4269 -0.1814
11894POPI   C3B64674  19.426   5.589  13.791 -0.4203 -0.1296 -0.1039
11894POPI   C4B64675  19.354   5.437  14.251  0.2604 -0.2096  0.0368
11895POPI    C164676  28.560  27.479   3.051  0.1429  0.0365 -0.0445
11895POPI    C264677  28.699  27.819   3.210  0.0012  0.0367  0.0805
11895POPI    C364678  28.401  27.831   2.944  0.1206  0.0235 -0.0540
11895POPI   PO464679  28.612  27.323   3.299 -0.1566 -0.1399  0.2643
11895POPI   GL164680  28.754  27.057   3.655 -0.0301 -0.2447 -0.2684
11895POPI   GL264681  29.013  26.919   3.379  0.1627 -0.1140 -0.0605
11895POPI   C1A64682  28.504  26.675   3.810  0.0778  0.0258  0.0570
11895POPI   D2A64683  28.701  26.395   4.078 -0.1957  0.1897 -0.1608
11895POPI   C3A64684  28.524  25.972   4.325  0.0368  0.0062  0.0195
11895POPI   C4A64685  28.455  25.537   4.156 -0.1818 -0.0927  0.0966
11895POPI   C1B64686  29.004  26.672   3.701 -0.0494 -0.1612 -0.0249
11895POPI   C2B64687  29.228  26.455   4.047  0.2383 -0.0680  0.1530
11895POPI   C3B64688  29.126  26.273   4.399 -0.2579  0.0790 -0.2087
11895POPI   C4B64689  28.871  26.168   4.814 -0.3622  0.1353 -0.3286
11896POPI    C164690   1.617   0.454  10.229  0.2166  0.0553  0.0184
11896POPI    C264691   1.716   0.079  10.326  0.0734 -0.0044 -0.0650
11896POPI    C364692   1.601   0.165   9.953  0.4361  0.1874 -0.1346
11896POPI   PO464693   1.787   0.632  10.434 -0.0826 -0.0469  0.2487
11896POPI   GL164694   1.981   0.851  10.730  0.2533 -0.2716  0.2457
11896POPI   GL264695   2.120   0.835  11.016  0.3474 -0.2270 -0.0762
11896POPI   C1A64696   1.634   1.168  10.932  0.0420 -0.0835 -0.1813
11896POPI   D2A64697   1.437   1.271  11.292 -0.0070  0.0352  0.0824
11896POPI   C3A64698   1.285   1.636  11.302 -0.2635 -0.2909  0.1905
11896POPI   C4A64699   1.190   1.931  11.110 -0.1354 -0.1070 -0.0038
11896POPI   C1B64700   1.848   1.052  11.349  0.2277 -0.3082 -0.0838
11896POPI   C2B64701   1.895   1.033  11.795 -0.1251  0.1081  0.0842
11896POPI   C3B64702   1.808   1.156  12.122  0.0539 -0.0774  0.0992
11896POPI   C4B64703   1.678   1.109  12.592 -0.1824 -0.1124  0.0360
11897POPI    C164704  30.494   4.710   5.472 -0.0897 -0.1541 -0.2408
11897POPI    C264705  30.718   4.706   5.140  0.0969 -0.2642 -0.1142
11897POPI    C364706  30.498   5.028   5.229  0.4118 -0.0508 -0.1024
11897POPI   PO464707  30.738   4.571   5.668  0.2599  0.1878  0.1034
11897POPI   GL164708  30.885   4.795   5.985  0.2997 -0.1513  0.2570
11897POPI   GL264709  31.124   4.940   5.919 -0.1369  0.1124 -0.1336
11897POPI   C1A64710  30.732   5.079   6.195 -0.3568  0.1352  0.1763
11897POPI   D2A64711  30.749   5.390   6.367  0.3664  0.1336 -0.2512
11897POPI   C3A64712  30.520   5.637   6.622  0.0775 -0.1851  0.0496
11897POPI   C4A64713  30.783   6.005   6.851  0.0244  0.1592  0.1401
11897POPI   C1B64714  30.983   5.317   5.850 -0.2017  0.1179 -0.1780
11897POPI   C2B64715  30.736   5.646   5.936  0.1292 -0.5219  0.3127
11897POPI   C3B64716  30.378   5.860   6.140 -0.2142  0.0769  0.1233
11897POPI   C4B64717  30.098   5.976   6.462  0.1647  0.1770  0.0483
11898POPI    C164718  29.158  16.150  26.205  0.0520 -0.1517  0.2249
11898POPI    C264719  28.954  15.806  26.191 -0.0092 -0.0955 -0.3774
11898POPI    C364720  28.798  16.138  26.032  0.2107  0.1283 -0.1313
11898POPI   PO464721  29.271  16.196   0.118 -0.0169 -0.1014  0.0049
11898POPI   GL164722  29.390  16.172   0.474  0.3516 -0.2642  0.0646
11898POPI   GL264723  29.782  16.121   0.423 -0.2718 -0.1696 -0.0317
11898POPI   C1A64724  29.292  16.311   0.788  0.1936 -0.1026  0.0316
11898POPI   D2A64725  29.156  16.510   1.197  0.1607  0.1043 -0.0900
11898POPI   C3A64726  28.967  16.444   1.633  0.0403  0.0145 -0.1893
11898POPI   C4A64727  28.645  16.727   1.751 -0.2036  0.2528  0.0282
11898POPI   C1B64728  29.799  16.290   0.819  0.0209  0.1803 -0.0168
11898POPI   C2B64729  29.660  16.449   1.215  0.0890 -0.0234  0.3635
11898POPI   C3B64730  29.495  16.574   1.602  0.0117  0.1826  0.1254
11898POPI   C4B64731  29.208  16.731   1.910 -0.0829 -0.0363 -0.1396
11899POPI    C164732  12.311  11.486  14.057 -0.1406  0.0084 -0.2117
11899POPI    C264733  12.623  11.247  13.982  0.1548  0.2322  0.2764
11899POPI    C364734  12.616  11.619  13.836 -0.1652  0.0335 -0.2304
11899POPI   PO464735  12.221  11.502  14.402  0.3602 -0.0661  0.2178
11899POPI   GL164736  12.149  11.426  14.920 -0.0689  0.3586 -0.1695
11899POPI   GL264737  11.879  11.568  14.881  0.1963 -0.2506  0.3706
11899POPI   C1A64738  12.028  11.322  15.344 -0.1445 -0.0692 -0.2201
11899POPI   D2A64739  12.164  11.196  15.743 -0.0142  0.1080 -0.2037
11899POPI   C3A64740  12.607  10.977  15.758  0.0744  0.0508  0.1396
11899POPI   C4A64741  13.013  10.934  15.992  0.1703  0.0306  0.0162
11899POPI   C1B64742  11.630  11.168  15.028 -0.2122 -0.1675  0.0042
11899POPI   C2B64743  11.307  11.203  15.402  0.1998  0.2385 -0.1529
11899POPI   C3B64744  11.142  11.342  15.821  0.0187  0.2117  0.1827
11899POPI   C4B64745  10.805  11.613  15.955  0.0585 -0.1113 -0.2212
11900POPI    C164746  18.444  18.209  12.114  0.1047  0.1938 -0.1512
11900POPI    C264747  18.735  18.160  11.844  0.0808 -0.1664 -0.1132
11900POPI    C364748  18.443  17.888  11.876 -0.1545  0.0947 -0.0177
11900POPI   PO464749  18.580  18.286  12.295  0.0470  0.1784 -0.1613
11900POPI   GL164750  18.929  18.076  12.439  0.3777 -0.0839  0.4108
11900POPI   GL264751  18.801  17.916  12.662 -0.2463  0.3574 -0.0454
11900POPI   C1A64752  19.303  17.937  12.609 -0.1163 -0.0418  0.0375
11900POPI   D2A64753  19.687  17.921  12.863  0.3340 -0.1231  0.1130
11900POPI   C3A64754  19.650  17.905  13.357  0.3293  0.2561  0.1679
11900POPI   C4A64755  19.297  17.912  13.648 -0.3326 -0.1376 -0.2137
11900POPI   C1B64756  18.711  17.994  13.151  0.1530  0.0396  0.1358
11900POPI   C2B64757  18.836  17.920  13.518  0.1209  0.1916  0.2571
11900POPI   C3B64758  18.788  17.593  13.789 -0.2963  0.0617  0.1391
11900POPI   C4B64759  18.971  17.430  14.100  0.3862  0.3285 -0.2831
11901POPI    C164760  34.020   4.986   6.612  0.1167  0.3088 -0.1472
11901POPI    C264761  33.923   4.754   6.301  0.1072  0.2211 -0.0791
11901POPI    C364762  34.218   4.644   6.548  0.0125  0.2143  0.0307
11901POPI   PO464763  33.844   5.191   6.562 -0.0657  0.2480 -0.1969
11901POPI   GL164764  33.470   5.381   6.763 -0.0953  0.0320  0.4050
11901POPI   GL264765  33.349   5.135   6.793  0.0901 -0.3028 -0.0583
11901POPI   C1A64766  33.335   5.705   6.906 -0.0865  0.1110  0.0363
11901POPI   D2A64767  32.934   5.778   7.154 -0.2439 -0.3301  0.2974
11901POPI   C3A64768  32.809   5.577   7.571  0.1230 -0.1218  0.0528
11901POPI   C4A64769  32.550   5.312   7.717  0.2586  0.1371 -0.1110
11901POPI   C1B64770  33.105   5.281   7.208  0.0250  0.0671  0.0930
11901POPI   C2B64771  33.200   5.259   7.680  0.0593  0.0190  0.1688
11901POPI   C3B64772  33.229   5.338   8.060  0.1202  0.3385 -0.0181
11901POPI   C4B64773  33.444   5.579   8.365 -0.2316 -0.1496 -0.0918
11902POPI    C164774  10.460  22.879  17.635  0.1720 -0.0709  0.3620
11902POPI    C264775  10.707  23.141  17.461 -0.1064  0.0413  0.1321
11902POPI    C364776  10.615  22.799  17.275 -0.3425  0.1254  0.0920
11902POPI   PO464777  10.449  22.893  17.875  0.3437  0.1421  0.0869
11902POPI   GL164778  10.293  22.975  18.296  0.0928 -0.0107  0.2217
11902POPI   GL264779  10.404  22.693  18.342  0.0875 -0.3572 -0.0348
11902POPI   C1A64780  10.063  22.936  18.701 -0.2130 -0.1818  0.1147
11902POPI   D2A64781  10.106  22.740  19.068 -0.3375 -0.1718  0.1968
11902POPI   C3A64782   9.862  22.505  19.378  0.2314  0.0755  0.1448
11902POPI   C4A64783   9.531  22.335  19.623 -0.1364 -0.0609 -0.0907
11902POPI   C1B64784  10.380  22.433  18.641  0.2133 -0.0744 -0.1570
11902POPI   C2B64785  10.361  22.312  19.032 -0.0828 -0.1253  0.0427
11902POPI   C3B64786  10.553  22.072  19.262 -0.5021 -0.1504  0.1565
11902POPI   C4B64787  10.877  21.958  19.591 -0.0941  0.0993  0.0509
11903POPI    C164788   6.268   9.626  10.602 -0.4276  0.0123  0.0870
11903POPI    C264789   6.460   9.977  10.613  0.0902 -0.2555 -0.2088
11903POPI    C364790   6.368   9.789  10.953 -0.0072  0.0663 -0.0548
11903POPI   PO464791   6.063   9.645  10.492  0.0996 -0.0926 -0.0889
11903POPI   GL164792   5.594   9.698  10.439  0.2330 -0.0717 -0.2934
11903POPI   GL264793   5.312   9.584  10.294  0.3769  0.3273  0.2611
11903POPI   C1A64794   5.289   9.872  10.802 -0.0518 -0.0885 -0.2882
11903POPI   D2A64795   5.287   9.552  11.188 -0.3087 -0.3696 -0.1541
11903POPI   C3A64796   5.589   9.599  11.563  0.1530 -0.0170 -0.2176
11903POPI   C4A64797   5.442   9.860  11.921  0.1813  0.1139 -0.3795
11903POPI   C1B64798   4.951   9.599  10.544  0.2793 -0.0504 -0.3270
11903POPI   C2B64799   4.933   9.300  10.903  0.1107  0.0707  0.2135
11903POPI   C3B64800   4.856   9.374  11.359  0.3421 -0.0376 -0.3576
11903POPI   C4B64801   4.527   9.577  11.580  0.2988  0.1410  0.2985
11904POPI    C164802   3.884  30.260  13.118  0.0590 -0.1285 -0.1553
11904POPI    C264803   3.524  30.431  13.155  0.2485  0.2533 -0.0431
11904POPI    C364804   3.758  30.524  12.845  0.1421 -0.2037 -0.2665
11904POPI   PO464805   3.856  30.155  13.393  0.0271 -0.1391  0.1482
11904POPI   GL164806   3.678  30.256  13.761  0.2138 -0.5436  0.0043
11904POPI   GL264807   3.414  30.390  13.669 -0.0068  0.1109  0.0238
11904POPI   C1A64808   3.482  30.161  14.115  0.0172  0.0051 -0.0949
11904POPI   D2A64809   3.054  30.288  14.348 -0.1753  0.2557 -0.0370
11904POPI   C3A64810   2.959  30.189  14.746 -0.0550  0.1134 -0.0651
11904POPI   C4A64811   2.991  30.318  15.126 -0.0084  0.2444 -0.2299
11904POPI   C1B64812   3.056  30.614  13.821 -0.0477  0.1303  0.2905
11904POPI   C2B64813   2.966  30.871  14.091 -0.2940 -0.1757 -0.0417
11904POPI   C3B64814   2.659  30.696  14.413  0.3405 -0.0900  0.0704
11904POPI   C4B64815   2.664  30.542  14.786  0.1773 -0.0956  0.0131
11905POPI    C164816  34.956   7.041   5.958 -0.0367 -0.1771  0.2571
11905POPI    C264817  34.816   6.711   5.779  0.1033 -0.1204  0.0400
11905POPI    C364818  35.179   6.709   5.949  0.0139 -0.1428  0.2323
11905POPI   PO464819  34.870   7.120   6.143 -0.3284  0.0770  0.0753
11905POPI   GL164820  34.816   7.187   6.495 -0.0181  0.0544  0.1884
11905POPI   GL264821  34.995   7.100   6.726 -0.1908  0.1476  0.0500
11905POPI   C1A64822  34.756   7.429   6.983  0.1196  0.1764  0.0877
11905POPI   D2A64823  34.456   7.549   7.172 -0.1284 -0.0560  0.1621
11905POPI   C3A64824  34.440   7.694   7.423  0.0660 -0.0107  0.0208
11905POPI   C4A64825  34.337   8.191   7.570 -0.1948 -0.0366  0.2678
11905POPI   C1B64826  35.061   6.914   7.145  0.0142 -0.2774  0.1704
11905POPI   C2B64827  34.885   7.173   7.493  0.4405 -0.4234  0.1287
11905POPI   C3B64828  34.580   7.213   7.853 -0.1706  0.0777  0.0437
11905POPI   C4B64829  34.134   7.301   7.946  0.3148  0.0704 -0.0336
11906POPI    C164830  33.070  29.197   5.927  0.1207  0.4595  0.1815
11906POPI    C264831  33.255  29.372   5.618  0.0417  0.0509 -0.1024
11906POPI    C364832  32.883  29.233   5.575  0.0327 -0.0159  0.1766
11906POPI   PO464833  33.216  29.331   6.131 -0.3278 -0.0524 -0.3850
11906POPI   GL164834  33.218  29.023   6.592 -0.0138  0.1630  0.3425
11906POPI   GL264835  33.182  29.064   6.901  0.4442  0.0179 -0.1893
11906POPI   C1A64836  32.929  28.762   6.355  0.0462  0.1907  0.1575
11906POPI   D2A64837  32.652  28.469   6.223 -0.2331 -0.2084 -0.1162
11906POPI   C3A64838  32.586  28.143   6.300 -0.0558  0.0345  0.1676
11906POPI   C4A64839  32.277  27.914   6.270 -0.0095  0.0317  0.0666
11906POPI   C1B64840  32.988  28.918   7.255  0.3086 -0.2852 -0.2831
11906POPI   C2B64841  32.813  28.494   7.299 -0.2002  0.2921  0.0623
11906POPI   C3B64842  32.766  28.044   7.409 -0.0052  0.2442  0.3038
11906POPI   C4B64843  32.633  27.657   7.449  0.0405 -0.0735 -0.1039
11907PAPI    C164844  13.974   6.481  13.697  0.0556 -0.2405 -0.0079
11907PAPI    C264845  13.856   6.401  13.323 -0.0943  0.0421 -0.0221
11907PAPI    C364846  14.244   6.454  13.403 -0.0810  0.1799 -0.1750
11907PAPI   PO464847  13.850   6.366  13.942 -0.0768 -0.1637  0.1008
11907PAPI   GL164848  13.922   6.034  14.126  0.0001  0.0330  0.1243
11907PAPI   GL264849  13.953   6.120  14.473  0.0441  0.0306 -0.0538
11907PAPI   D1A64850  13.828   5.662  14.299  0.0439  0.1452  0.0172
11907PAPI   D2A64851  14.354   5.562  14.484  0.1153  0.1398 -0.0028
11907PAPI   D3A64852  14.444   5.839  14.182 -0.0325 -0.0111 -0.2448
11907PAPI   D4A64853  14.772   6.225  14.191  0.2218  0.0801  0.0692
11907PAPI   C5A64854  14.932   6.431  14.470  0.1553  0.0118 -0.0497
11907PAPI   C1B64855  13.958   5.863  14.766  0.1020 -0.2484  0.4068
11907PAPI   C2B64856  14.129   5.493  14.980  0.3369 -0.1688 -0.1527
11907PAPI   C3B64857  14.309   5.384  15.264 -0.0158 -0.1707  0.1672
11907PAPI   C4B64858  14.673   5.379  15.550 -0.1251 -0.2240  0.3126
11908PAPI    C164859   2.779  10.752   5.435 -0.1793  0.0564  0.1592
11908PAPI    C264860   2.613  10.798   5.074 -0.0095  0.2217  0.1012
11908PAPI    C364861   3.005  10.725   5.106 -0.0252  0.2029  0.2520
11908PAPI   PO464862   2.595  11.002   5.545 -0.1053 -0.0269 -0.1920
11908PAPI   GL164863   2.637  11.092   5.967  0.2480  0.1925  0.3347
11908PAPI   GL264864   2.438  11.063   6.111 -0.2409 -0.0804  0.0932
11908PAPI   D1A64865   2.735  11.440   5.709  0.2285  0.0254  0.1813
11908PAPI   D2A64866   2.458  11.518   5.472  0.0113  0.1280  0.3367
11908PAPI   D3A64867   2.127  11.858   5.631  0.3936  0.1651  0.0846
11908PAPI   D4A64868   2.222  12.243   5.569  0.2508 -0.0406  0.3366
11908PAPI   C5A64869   2.191  12.436   5.993  0.0259  0.2244 -0.3379
11908PAPI   C1B64870   2.088  10.947   6.209  0.1233  0.0158 -0.0930
11908PAPI   C2B64871   1.872  11.072   6.470  0.0885  0.0535 -0.1198
11908PAPI   C3B64872   1.805  11.123   6.863  0.0095 -0.1891 -0.4166
11908PAPI   C4B64873   1.556  11.184   7.172  0.0587  0.1052 -0.3136
11909PAPI    C164874  26.068   1.102   6.788 -0.1399 -0.0248 -0.0752
11909PAPI    C264875  26.110   0.869   6.466  0.0847  0.1027 -0.1388
11909PAPI    C364876  26.360   0.830   6.775 -0.0844  0.0316 -0.0103
11909PAPI   PO464877  26.021   1.366   6.698  0.0626 -0.1740  0.0555
11909PAPI   GL164878  25.809   1.692   6.731  0.1459 -0.2279 -0.0202
11909PAPI   GL264879  25.757   1.896   7.040 -0.1709  0.1149  0.0187
11909PAPI   D1A64880  25.574   1.433   6.993  0.1283  0.3604 -0.2898
11909PAPI   D2A64881  25.922   1.498   7.279 -0.0164 -0.1738  0.0493
11909PAPI   D3A64882  25.517   1.605   7.591 -0.1735 -0.1028 -0.1195
11909PAPI   D4A64883  25.608   1.253   7.774 -0.1772  0.2634  0.1081
11909PAPI   C5A64884  25.255   1.090   7.943  0.0220  0.0111  0.1150
11909PAPI   C1B64885  25.844   2.011   7.463  0.2490 -0.0831 -0.2394
11909PAPI   C2B64886  25.961   1.762   7.837  0.1904  0.1687  0.2516
11909PAPI   C3B64887  25.902   1.478   8.116 -0.0566  0.2050 -0.1974
11909PAPI   C4B64888  25.929   1.498   8.447  0.1245  0.2171 -0.1478
11910PAPI    C164889   5.679  24.634  11.171  0.0126  0.1142  0.0243
11910PAPI    C264890   6.017  24.753  11.348  0.1237  0.0922 -0.1721
11910PAPI    C364891   5.980  24.779  10.951 -0.0774  0.0252 -0.1582
11910PAPI   PO464892   5.542  24.670  11.288 -0.0176 -0.0038  0.2943
11910PAPI   GL164893   5.113  24.532  11.364 -0.0827 -0.2572  0.4165
11910PAPI   GL264894   4.960  24.316  11.047 -0.0986  0.4137 -0.1637
11910PAPI   D1A64895   4.897  24.251  11.556 -0.0453 -0.3269  0.1906
11910PAPI   D2A64896   4.484  24.142  11.337 -0.2680  0.0362  0.1610
11910PAPI   D3A64897   4.114  23.884  11.276  0.1886 -0.0853 -0.1385
11910PAPI   D4A64898   3.900  24.190  11.248 -0.0646 -0.0684  0.0697
11910PAPI   C5A64899   3.546  24.014  11.413 -0.0542  0.0138 -0.1401
11910PAPI   C1B64900   4.694  23.959  10.862  0.0118 -0.0297  0.0154
11910PAPI   C2B64901   4.632  23.482  10.997 -0.0664  0.3266 -0.1327
11910PAPI   C3B64902   4.428  23.225  11.018  0.3959 -0.0340 -0.1626
11910PAPI   C4B64903   4.282  22.953  10.812  0.3558  0.0153  0.1594
11911PAPI    C164904  32.136   0.939   7.270  0.1404 -0.4183  0.1781
11911PAPI    C264905  32.351   0.949   6.933  0.0972  0.1194  0.1627
11911PAPI    C364906  31.974   0.815   6.926  0.1043  0.1060  0.0010
11911PAPI   PO464907  32.258   0.845   7.425  0.0385 -0.2854 -0.2093
11911PAPI   GL164908  32.466   0.574   7.646  0.1431 -0.1648 -0.1567
11911PAPI   GL264909  32.481   0.351   7.744 -0.1049  0.0229 -0.0614
11911PAPI   D1A64910  32.310   0.986   7.914  0.2174 -0.2018  0.2391
11911PAPI   D2A64911  32.438   0.669   8.154  0.1196  0.3941  0.1547
11911PAPI   D3A64912  32.152   0.540   8.500  0.0593 -0.0266 -0.0614
11911PAPI   D4A64913  32.190   0.766   8.838  0.1122  0.1365 -0.3136
11911PAPI   C5A64914  32.346   0.674   9.207  0.0507  0.2455  0.0764
11911PAPI   C1B64915  32.427   0.137   8.149  0.0688  0.1374 -0.0832
11911PAPI   C2B64916  32.165   0.024   8.474 -0.0565  0.1371  0.1610
11911PAPI   C3B64917  31.954  35.231   8.854  0.3198  0.2593 -0.1009
11911PAPI   C4B64918  31.630  35.092   9.126 -0.0772  0.1800 -0.0263
11912PAPI    C164919  35.378  30.200   8.339 -0.0868  0.1522 -0.0547
11912PAPI    C264920  35.199  30.434   8.068 -0.2485  0.1327  0.0350
11912PAPI    C364921  35.085  30.053   8.110 -0.0545  0.0654 -0.0402
11912PAPI   PO464922   0.023  30.367   8.586 -0.2184  0.0210  0.1005
11912PAPI   GL164923  35.188  30.427   8.926  0.0595  0.0271 -0.2492
11912PAPI   GL264924  35.018  30.181   9.137  0.0531 -0.2588  0.1060
11912PAPI   D1A64925   0.011  30.534   9.304  0.0155  0.0006  0.0221
11912PAPI   D2A64926   0.361  30.290   9.182 -0.2126  0.0998 -0.0252
11912PAPI   D3A64927   0.645  30.052   9.303  0.3530 -0.1682 -0.2758
11912PAPI   D4A64928   0.303  29.877   9.529 -0.2039  0.1422  0.0060
11912PAPI   C5A64929  35.339  30.039   9.510  0.0233  0.2592 -0.0262
11912PAPI   C1B64930  34.739  29.876   9.355  0.0027 -0.2596 -0.0181
11912PAPI   C2B64931  34.474  29.831   9.768 -0.0461  0.6110 -0.2085
11912PAPI   C3B64932  34.233  29.656  10.110  0.3109  0.0523  0.0134
11912PAPI   C4B64933  34.167  29.304  10.348  0.0792 -0.0145  0.0259
11913PAPI    C164934  24.497  13.447   1.736 -0.2499  0.0023  0.1131
11913PAPI    C264935  24.519  13.802   1.553  0.3042 -0.0416  0.0850
11913PAPI    C364936  24.371  13.485   1.359  0.3491  0.0430 -0.0881
11913PAPI   PO464937  24.734  13.481   1.977 -0.1493 -0.1720  0.1216
11913PAPI   GL164938  25.053  13.376   2.375 -0.1851 -0.0048  0.1907
11913PAPI   GL264939  25.197  13.233   2.587 -0.1473  0.3046  0.0905
11913PAPI   D1A64940  24.807  13.710   2.524 -0.2832  0.0506 -0.0463
11913PAPI   D2A64941  24.481  14.060   2.597 -0.1405 -0.1544  0.0736
11913PAPI   D3A64942  24.287  13.926   3.067 -0.0831  0.3718 -0.0245
11913PAPI   D4A64943  24.579  14.146   3.361 -0.2744  0.0874 -0.2133
11913PAPI   C5A64944  24.920  13.904   3.539 -0.2260  0.2709 -0.0196
11913PAPI   C1B64945  25.220  13.609   2.903 -0.0392 -0.1081  0.0608
11913PAPI   C2B64946  25.261  13.928   3.140 -0.2341 -0.4398 -0.0159
11913PAPI   C3B64947  25.267  14.260   3.316 -0.0200 -0.0045  0.3515
11913PAPI   C4B64948  25.367  14.725   3.340 -0.0045  0.0034  0.0072
11914PAPI    C164949  21.407  21.067   6.531  0.0574  0.0895  0.1131
11914PAPI    C264950  21.312  20.724   6.350  0.0597 -0.0158  0.3109
11914PAPI    C364951  21.661  20.902   6.270  0.0024  0.0080  0.1112
11914PAPI   PO464952  21.362  21.062   6.738  0.0704 -0.0028 -0.1325
11914PAPI   GL164953  21.670  21.073   6.980 -0.1202  0.0795 -0.3406
11914PAPI   GL264954  21.821  21.236   6.738  0.2209 -0.1968  0.2690
11914PAPI   D1A64955  22.063  20.964   7.287  0.2916 -0.0511 -0.0468
11914PAPI   D2A64956  22.120  20.566   7.522  0.1077 -0.2023  0.1386
11914PAPI   D3A64957  22.481  20.367   7.692 -0.1396  0.1050  0.2162
11914PAPI   D4A64958  22.584  20.606   8.166  0.1713 -0.0474  0.0184
11914PAPI   C5A64959  22.727  20.567   8.674  0.2469  0.0097  0.1265
11914PAPI   C1B64960  22.239  21.134   6.846  0.0281 -0.1642 -0.0647
11914PAPI   C2B64961  22.595  21.030   7.200 -0.2549  0.1423 -0.0781
11914PAPI   C3B64962  22.855  21.131   7.408 -0.2735 -0.0985 -0.0310
11914PAPI   C4B64963  23.309  20.985   7.571  0.0623 -0.0933  0.0667
11915PAPI    C164964   4.204   5.604   9.271  0.0544 -0.0867  0.1068
11915PAPI    C264965   4.473   5.675   9.558  0.2777 -0.0523 -0.1093
11915PAPI    C364966   4.545   5.396   9.281  0.1245  0.0097 -0.2121
11915PAPI   PO464967   3.949   5.649   9.404 -0.0930 -0.1104  0.0290
11915PAPI   GL164968   3.641   5.836   9.785 -0.0778  0.0094  0.1222
11915PAPI   GL264969   3.668   5.809  10.030  0.1024  0.0057  0.1079
11915PAPI   D1A64970   3.448   6.110   9.486  0.0127  0.1005 -0.2495
11915PAPI   D2A64971   3.129   6.066   9.774 -0.5030  0.2293 -0.1787
11915PAPI   D3A64972   3.159   5.600   9.765  0.0853  0.1769  0.2327
11915PAPI   D4A64973   3.078   5.440   9.478 -0.1825 -0.0698  0.1103
11915PAPI   C5A64974   2.770   5.231   9.323  0.2495  0.3788 -0.0773
11915PAPI   C1B64975   3.475   5.953  10.359 -0.1221  0.1123  0.1888
11915PAPI   C2B64976   3.120   5.966  10.636 -0.0621  0.4924 -0.1159
11915PAPI   C3B64977   2.687   6.012  10.701 -0.0656 -0.1573  0.0442
11915PAPI   C4B64978   2.331   5.967  10.879 -0.1227  0.1086 -0.1242
11916PAPI    C164979  34.848   7.530   4.903  0.2624  0.1249  0.1680
11916PAPI    C264980  35.238   7.605   4.853  0.2109  0.2494 -0.0518
11916PAPI    C364981  34.967   7.799   4.632  0.0153  0.2723  0.2050
11916PAPI   PO464982  34.777   7.593   5.263 -0.2350 -0.1016  0.0904
11916PAPI   GL164983  34.661   7.934   5.421  0.1109 -0.1556  0.0464
11916PAPI   GL264984  34.419   8.085   5.616 -0.0692  0.3090 -0.0548
11916PAPI   D1A64985  34.556   8.385   5.242  0.0206 -0.0181  0.0215
11916PAPI   D2A64986  34.080   8.502   5.204  0.0007  0.2590 -0.1384
11916PAPI   D3A64987  34.179   8.551   5.527  0.1796 -0.2407  0.0376
11916PAPI   D4A64988  33.948   8.806   5.767  0.0793 -0.4219 -0.0075
11916PAPI   C5A64989  33.583   8.787   5.970 -0.2785 -0.1075 -0.0158
11916PAPI   C1B64990  34.483   8.288   5.950 -0.0474 -0.1137  0.3024
11916PAPI   C2B64991  34.583   8.214   6.392 -0.0267 -0.1741  0.2565
11916PAPI   C3B64992  34.622   8.472   6.671 -0.2964  0.1139  0.2430
11916PAPI   C4B64993  34.540   8.641   7.048 -0.3624  0.1652  0.0271
11917PAPI    C164994  11.215  26.960  17.531  0.4044 -0.2043 -0.1771
11917PAPI    C264995  11.079  26.608  17.664  0.1391 -0.0141  0.0640
11917PAPI    C364996  10.907  26.782  17.348  0.2331 -0.0720 -0.0196
11917PAPI   PO464997  11.214  27.142  17.816  0.0939  0.0707 -0.0466
11917PAPI   GL164998  11.121  27.438  18.075  0.0109 -0.3047  0.0789
11917PAPI   GL264999  10.848  27.595  17.986 -0.2586 -0.0421  0.0316
11917PAPI   D1A65000  11.296  27.460  18.389  0.0987 -0.2532 -0.1610
11917PAPI   D2A65001  11.675  27.447  18.541 -0.1304  0.3388 -0.2983
11917PAPI   D3A65002  11.565  27.549  18.911  0.2171  0.2164 -0.2343
11917PAPI   D4A65003  11.829  27.319  19.226  0.0976 -0.1064 -0.4058
11917PAPI   C5A65004  11.891  27.393  19.614  0.0236 -0.1331  0.1792
11917PAPI   C1B65005  10.646  27.565  18.407  0.0808 -0.1711  0.3259
11917PAPI   C2B65006  10.533  27.431  18.835 -0.2369 -0.0004  0.0074
11917PAPI   C3B65007  10.416  27.236  19.248 -0.2232 -0.2339  0.0063
11917PAPI   C4B65008  10.301  26.861  19.378 -0.1973  0.1740  0.0992
11918PAPI    C165009  34.199  33.795   7.892 -0.2064  0.2143  0.0527
11918PAPI    C265010  34.542  33.690   7.715 -0.2173  0.3034 -0.0222
11918PAPI    C365011  34.537  33.781   8.105 -0.2232 -0.0554  0.0631
11918PAPI   PO465012  34.072  33.548   7.882  0.1638  0.1863 -0.0895
11918PAPI   GL165013  33.753  33.322   8.097 -0.2094 -0.1651 -0.0993
11918PAPI   GL265014  33.709  33.642   8.162  0.3387 -0.0690 -0.1311
11918PAPI   D1A65015  33.676  32.838   8.109  0.2155 -0.2406  0.2096
11918PAPI   D2A65016  33.716  32.884   8.611 -0.1213  0.3218 -0.0862
11918PAPI   D3A65017  33.855  33.061   8.883 -0.0898  0.1969 -0.0909
11918PAPI   D4A65018  33.559  33.038   9.208 -0.0791  0.3746  0.1865
11918PAPI   C5A65019  33.665  33.071   9.593  0.1649  0.1217  0.0796
11918PAPI   C1B65020  33.597  33.414   8.581 -0.0542 -0.1890  0.2007
11918PAPI   C2B65021  33.333  33.201   8.802 -0.0531 -0.1214  0.3280
11918PAPI   C3B65022  33.087  33.261   9.086 -0.0638  0.3445  0.1167
11918PAPI   C4B65023  32.971  32.860   9.247  0.1906 -0.0600  0.0558
11919PAPI    C165024   1.197  26.042   6.519 -0.1642  0.0002 -0.1999
11919PAPI    C265025   1.475  26.097   6.237 -0.0510  0.0815 -0.0728
11919PAPI    C365026   1.584  25.992   6.608 -0.1972  0.0040 -0.0516
11919PAPI   PO465027   1.088  26.304   6.471 -0.1596 -0.1112 -0.1784
11919PAPI   GL165028   0.685  26.330   6.605  0.1559 -0.1471  0.0540
11919PAPI   GL265029   0.296  26.501   6.627 -0.1412 -0.0225 -0.3714
11919PAPI   D1A65030   0.664  26.240   7.011 -0.0130 -0.3978 -0.0661
11919PAPI   D2A65031   0.411  25.778   7.014  0.1358 -0.1744 -0.1583
11919PAPI   D3A65032   0.649  25.851   6.689 -0.0787 -0.0679  0.0315
11919PAPI   D4A65033   0.963  25.854   6.976 -0.2897 -0.0355 -0.1021
11919PAPI   C5A65034   1.010  25.531   7.274 -0.1935 -0.3867  0.1586
11919PAPI   C1B65035   0.226  26.143   6.735  0.2240  0.0063  0.1928
11919PAPI   C2B65036  35.371  25.754   6.775 -0.1485 -0.2009  0.2840
11919PAPI   C3B65037  35.233  25.343   6.846  0.1219  0.0050  0.1026
11919PAPI   C4B65038  35.293  24.859   6.950 -0.0109 -0.0410 -0.1527
11920PAPI    C165039   0.856   4.472   7.407  0.0756 -0.1280 -0.1073
11920PAPI    C265040   0.931   4.651   7.057  0.1242 -0.0293 -0.0465
11920PAPI    C365041   1.030   4.268   7.111  0.1928 -0.0210 -0.1126
11920PAPI   PO465042   0.872   4.713   7.609  0.1706 -0.2118 -0.0495
11920PAPI   GL165043   0.699   4.692   8.030 -0.0676 -0.0678 -0.3159
11920PAPI   GL265044   0.744   4.971   8.097 -0.0984 -0.2068 -0.0958
11920PAPI   D1A65045   1.090   4.540   8.027  0.1758  0.0663  0.0191
11920PAPI   D2A65046   1.210   4.462   8.448 -0.0781 -0.0309 -0.0507
11920PAPI   D3A65047   1.178   4.919   8.306 -0.1504 -0.2650 -0.0816
11920PAPI   D4A65048   1.168   4.911   8.681  0.2444 -0.1161 -0.3563
11920PAPI   C5A65049   1.455   4.703   8.907 -0.0354  0.1379  0.0100
11920PAPI   C1B65050   0.673   4.825   8.579 -0.0568 -0.1126 -0.0732
11920PAPI   C2B65051   0.667   5.020   8.995  0.0174  0.0968  0.0804
11920PAPI   C3B65052   0.442   5.296   9.216  0.0214  0.0505  0.1642
11920PAPI   C4B65053   0.513   5.582   9.558 -0.1170 -0.0133  0.4196
11921CHOL   ROH65054  22.079  22.610  13.127  0.0002  0.1981 -0.0503
11921CHOL    R165055  21.820  22.681  13.036  0.0557  0.0486 -0.3319
11921CHOL    R265056  21.682  22.532  12.849  0.1326 -0.3221 -0.0989
11921CHOL    R365057  21.488  22.531  13.040  0.0339  0.0998 -0.1930
11921CHOL    R465058  21.353  22.440  12.796  0.1614 -0.4444 -0.0656
11921CHOL    R565059  21.292  22.605  12.925  0.0921 -0.1558 -0.4603
11921CHOL    C165060  20.980  22.386  12.944  0.0856 -0.1201 -0.1342
11921CHOL    C265061  20.613  22.146  13.026 -0.0420 -0.1823  0.0191
11922CHOL   ROH65062  33.967  15.790   1.785 -0.0078  0.1792 -0.0700
11922CHOL    R165063  33.973  15.746   2.065  0.0519  0.0251 -0.0950
11922CHOL    R265064  34.185  15.824   2.223  0.0415  0.0289 -0.0826
11922CHOL    R365065  33.991  15.951   2.365  0.0065 -0.1339  0.0170
11922CHOL    R465066  34.134  15.789   2.563  0.1503 -0.1277 -0.0817
11922CHOL    R565067  33.919  15.789   2.526  0.1408 -0.2353 -0.0244
11922CHOL    C165068  33.922  15.889   2.894  0.1805 -0.3720  0.0124
11922CHOL    C265069  33.778  15.665   2.998 -0.0356 -0.0384  0.1536
11923CHOL   ROH65070  10.042  16.144  17.744  0.1631 -0.0525 -0.0549
11923CHOL    R165071  10.008  16.145  17.463  0.3236  0.0221 -0.0744
11923CHOL    R265072   9.842  16.323  17.333  0.1807 -0.1266 -0.0953
11923CHOL    R365073  10.066  16.379  17.190  0.1967  0.2057  0.0547
11923CHOL    R465074   9.847  16.495  17.034  0.1313 -0.0771 -0.0677
11923CHOL    R565075   9.998  16.356  16.962  0.3734  0.1415  0.0078
11923CHOL    C165076  10.060  16.649  16.725  0.1176  0.2635  0.0894
11923CHOL    C265077   9.911  16.670  16.449  0.0801 -0.1140 -0.1381
11924CHOL   ROH65078   3.293  29.973  13.464  0.1264  0.0187 -0.0516
11924CHOL    R165079   3.049  29.967  13.609  0.1129  0.0563 -0.0729
11924CHOL    R265080   3.016  30.097  13.850  0.1122  0.0607 -0.0753
11924CHOL    R365081   2.804  30.211  13.724  0.1411  0.0943 -0.0935
11924CHOL    R465082   2.735  30.220  14.009  0.0415 -0.0525 -0.1122
11924CHOL    R565083   2.614  30.136  13.849  0.1076  0.0092 -0.1951
11924CHOL    C165084   2.372  30.399  13.983  0.0275 -0.0864 -0.1506
11924CHOL    C265085   2.158  30.395  14.155  0.2156  0.0156 -0.0979
11925CHOL   ROH65086   3.126  14.183  11.821 -0.0651  0.1926 -0.0209
11925CHOL    R165087   3.381  14.160  11.700 -0.0335 -0.0976  0.0966
11925CHOL    R265088   3.430  13.989  11.489 -0.2174  0.0935 -0.1021
11925CHOL    R365089   3.523  14.216  11.369  0.2540  0.0939  0.2498
11925CHOL    R465090   3.662  13.997  11.232 -0.3870 -0.0115 -0.2594
11925CHOL    R565091   3.754  14.170  11.327  0.1177 -0.4068 -0.0015
11925CHOL    C165092   3.883  14.214  10.971 -0.0432 -0.0720 -0.0207
11925CHOL    C265093   4.138  14.186  10.644  0.0050  0.2012  0.1725
11926CHOL   ROH65094  12.134   4.964  14.685  0.0091 -0.0499  0.0386
11926CHOL    R165095  12.186   5.029  14.955 -0.1050 -0.0794  0.0682
11926CHOL    R265096  12.098   4.872  15.165 -0.0259 -0.2075  0.0086
11926CHOL    R365097  12.361   4.877  15.235 -0.0443 -0.0126  0.0660
11926CHOL    R465098  12.217   4.856  15.490 -0.0876  0.0550  0.0449
11926CHOL    R565099  12.367   5.005  15.437 -0.1637  0.1106 -0.0095
11926CHOL    C165100  12.532   4.851  15.744 -0.1408  0.3908  0.1198
11926CHOL    C265101  12.648   5.129  16.052  0.2756 -0.1540  0.1186
11927CHOL   ROH65102  14.596  12.211  15.258  0.0004  0.0313 -0.0204
11927CHOL    R165103  14.563  12.198  15.539  0.0406  0.1365 -0.0107
11927CHOL    R265104  14.536  11.959  15.675 -0.1741  0.1966  0.0556
11927CHOL    R365105  14.745  12.056  15.820 -0.0481  0.0250 -0.0095
11927CHOL    R465106  14.574  11.920  16.016  0.0340 -0.0588  0.0050
11927CHOL    R565107  14.645  12.125  16.027  0.1078 -0.0894  0.1051
11927CHOL    C165108  14.791  11.987  16.351  0.2734 -0.3687 -0.0860
11927CHOL    C265109  14.757  11.580  16.543  0.2091 -0.0640  0.0689
11928CHOL   ROH65110  20.824  15.013   7.459 -0.1408  0.1251  0.4397
11928CHOL    R165111  21.060  14.949   7.601 -0.0370  0.1174  0.2650
11928CHOL    R265112  21.270  14.811   7.487 -0.1277  0.1082  0.1098
11928CHOL    R365113  21.415  15.024   7.572 -0.0550  0.1031  0.0006
11928CHOL    R465114  21.605  14.801   7.574 -0.0523  0.1019 -0.1748
11928CHOL    R565115  21.560  14.935   7.740  0.0885  0.0916 -0.1274
11928CHOL    C165116  21.935  14.995   7.705  0.0603  0.0933 -0.4430
11928CHOL    C265117  22.238  14.717   7.562 -0.1310 -0.0632  0.3820
11929CHOL   ROH65118  34.102  25.139   9.093  0.3098 -0.3063  0.0105
11929CHOL    R165119  34.260  25.373   9.069  0.0866 -0.1575 -0.0106
11929CHOL    R265120  34.535  25.369   9.089  0.0775  0.1372  0.1920
11929CHOL    R365121  34.522  25.493   8.847  0.1245 -0.0172  0.1093
11929CHOL    R465122  34.774  25.586   8.964  0.1225  0.0240  0.0818
11929CHOL    R565123  34.613  25.711   8.886  0.1492 -0.0036 -0.0197
11929CHOL    C165124  34.900  25.828   8.664  0.1933 -0.1869 -0.0600
11929CHOL    C265125  34.958  26.097   8.495  0.2347 -0.1576 -0.1492
11930CHOL   ROH65126   3.311   3.122  15.983  0.1496 -0.1575  0.0635
11930CHOL    R165127   3.407   2.945  15.783  0.1796 -0.1229  0.0477
11930CHOL    R265128   3.435   3.021  15.519  0.0741 -0.1239  0.0375
11930CHOL    R365129   3.690   2.934  15.555  0.1250 -0.0030 -0.0271
11930CHOL    R465130   3.649   2.929  15.264  0.0328 -0.0772 -0.0143
11930CHOL    R565131   3.718   2.763  15.389  0.1471 -0.0232 -0.0036
11930CHOL    C165132   4.014   2.794  15.149  0.0566  0.0635 -0.1051
11930CHOL    C265133   4.156   2.827  14.815 -0.2758 -0.0616 -0.0646
11931CHOL   ROH65134  13.022  16.420  18.518  0.1280 -0.1202 -0.0358
11931CHOL    R165135  13.019  16.500  18.246  0.0930 -0.1661 -0.0490
11931CHOL    R265136  12.825  16.668  18.143  0.1739 -0.0490 -0.0152
11931CHOL    R365137  13.040  16.814  18.063  0.2495 -0.2133 -0.1112
11931CHOL    R465138  12.867  16.799  17.826  0.0609  0.0481  0.0099
11931CHOL    R565139  13.078  16.743  17.837  0.0178 -0.1511 -0.1696
11931CHOL    C165140  13.093  17.012  17.566  0.0656 -0.0490 -0.0656
11931CHOL    C265141  13.058  16.963  17.276  0.0779  0.2327  0.2367
11932CHOL   ROH65142  20.147  15.579  15.534 -0.1006  0.1213  0.1082
11932CHOL    R165143  19.914  15.514  15.387 -0.0097 -0.0159  0.0241
11932CHOL    R265144  19.663  15.602  15.460 -0.0925 -0.1847 -0.0515
11932CHOL    R365145  19.657  15.696  15.205 -0.0667 -0.1650 -0.0446
11932CHOL    R465146  19.375  15.652  15.275 -0.0866  0.0326 -0.0026
11932CHOL    R565147  19.479  15.573  15.101 -0.1715 -0.0317 -0.0237
11932CHOL    C165148  19.202  15.769  14.928 -0.0590  0.1776  0.0323
11932CHOL    C265149  19.003  15.765  14.542 -0.1232 -0.5214  0.2227
11933CHOL   ROH65150  10.653  11.369  14.702 -0.2006 -0.0334 -0.1603
11933CHOL    R165151  10.416  11.295  14.838 -0.1431  0.0338 -0.0225
11933CHOL    R265152  10.418  11.185  15.091 -0.0244  0.0023 -0.0363
11933CHOL    R365153  10.247  11.389  15.146  0.0809  0.0564  0.0941
11933CHOL    R465154  10.227  11.211  15.378  0.1119  0.0044  0.0553
11933CHOL    R565155  10.062  11.284  15.255  0.0870  0.1026  0.1479
11933CHOL    C165156   9.955  11.418  15.596  0.2902  0.0563  0.2312
11933CHOL    C265157   9.852  11.530  15.840  0.0050  0.2940 -0.0872
11934CHOL   ROH65158   3.107   3.502   9.651  0.0336 -0.0132 -0.2482
11934CHOL    R165159   2.954   3.594   9.871 -0.2684 -0.2131 -0.3701
11934CHOL    R265160   3.025   3.817  10.018 -0.2137 -0.5997  0.2103
11934CHOL    R365161   2.771   3.896   9.958  0.0196 -0.0992 -0.1527
11934CHOL    R465162   2.848   4.061  10.188 -0.0661 -0.4243  0.1130
11934CHOL    R565163   2.670   3.937  10.171 -0.2651 -0.0962 -0.2869
11934CHOL    C165164   2.508   4.278  10.230  0.2389  0.1477 -0.2843
11934CHOL    C265165   2.370   4.697  10.159  0.2608 -0.2239  0.0731
11935CHOL   ROH65166  24.619   2.487   8.073 -0.1470  0.0701  0.0550
11935CHOL    R165167  24.693   2.415   8.337 -0.2178 -0.1210  0.0236
11935CHOL    R265168  24.771   2.601   8.526  0.0856 -0.2926  0.0702
11935CHOL    R365169  24.574   2.486   8.673 -0.0682 -0.0453  0.0610
11935CHOL    R465170  24.727   2.646   8.865  0.1831 -0.3087  0.0851
11935CHOL    R565171  24.679   2.434   8.882 -0.1211 -0.2464  0.0394
11935CHOL    C165172  24.516   2.565   9.202  0.0955 -0.0860  0.0850
11935CHOL    C265173  24.496   2.292   9.533 -0.0827  0.2585 -0.1410
11936CHOL   ROH65174  17.724   5.392  16.231 -0.1240  0.0996  0.1215
11936CHOL    R165175  17.561   5.421  16.002 -0.2222  0.1899  0.2029
11936CHOL    R265176  17.464   5.666  15.918 -0.0189  0.2615  0.1767
11936CHOL    R365177  17.581   5.596  15.683 -0.2207  0.0639  0.1334
11936CHOL    R465178  17.387   5.804  15.610  0.1432  0.4384  0.2147
11936CHOL    R565179  17.403   5.605  15.523 -0.2569  0.4140  0.1885
11936CHOL    C165180  17.453   5.818  15.211  0.0479  0.3559  0.1959
11936CHOL    C265181  17.594   5.610  14.901  0.2042  0.1449 -0.3520
11937CHOL   ROH65182   7.122  24.724  20.227  0.0438  0.0317  0.1597
11937CHOL    R165183   7.246  24.621  19.994  0.1217  0.1328  0.1562
11937CHOL    R265184   7.103  24.513  19.784  0.2105 -0.1707  0.2471
11937CHOL    R365185   7.243  24.694  19.638 -0.1181 -0.0077  0.1292
11937CHOL    R465186   7.182  24.478  19.449  0.0099 -0.0967  0.1923
11937CHOL    R565187   7.379  24.561  19.492 -0.0597  0.1490  0.0402
11937CHOL    C165188   7.360  24.628  19.117 -0.4154  0.0988  0.0480
11937CHOL    C265189   7.191  24.595  18.788  0.2553  0.0435  0.0607
11938CHOL   ROH65190  14.133   1.511  17.080 -0.0071 -0.0862  0.0544
11938CHOL    R165191  14.022   1.376  16.857  0.0408  0.0493 -0.0525
11938CHOL    R265192  13.814   1.481  16.709  0.0516  0.1254 -0.0146
11938CHOL    R365193  13.984   1.440  16.501  0.0871  0.2822 -0.0161
11938CHOL    R465194  13.720   1.464  16.377  0.0611  0.0329 -0.0128
11938CHOL    R565195  13.861   1.301  16.350  0.2148  0.1646 -0.0124
11938CHOL    C165196  13.825   1.417  15.988  0.1002  0.1262 -0.0130
11938CHOL    C265197  13.891   1.477  15.615  0.0948 -0.1128 -0.3060
11939CHOL   ROH65198   7.350  21.305  14.944  0.1210  0.1347  0.0889
11939CHOL    R165199   7.123  21.421  15.067  0.0719  0.0982  0.0329
11939CHOL    R265200   6.876  21.433  14.943  0.0798 -0.0156  0.0043
11939CHOL    R365201   6.792  21.309  15.169  0.0972  0.0223  0.0317
11939CHOL    R465202   6.546  21.362  15.017  0.0993 -0.1427 -0.0296
11939CHOL    R565203   6.586  21.419  15.224  0.0365 -0.0538 -0.0421
11939CHOL    C165204   6.275  21.204  15.273  0.1268 -0.1812 -0.0237
11939CHOL    C265205   5.967  21.094  15.387  0.0285 -0.3798 -0.4179
11940CHOL   ROH65206  14.371   8.509  15.854 -0.0697  0.0528  0.1620
11940CHOL    R165207  14.282   8.357  16.075  0.0564 -0.0013  0.1760
11940CHOL    R265208  14.110   8.143  16.050  0.0140  0.0263  0.2255
11940CHOL    R365209  14.305   8.011  16.185  0.0874 -0.0362  0.0605
11940CHOL    R465210  14.054   7.887  16.275  0.1196  0.0787  0.3109
11940CHOL    R565211  14.210   7.972  16.402  0.2739  0.0312  0.1547
11940CHOL    C165212  14.205   7.614  16.534  0.2501  0.0505  0.2057
11940CHOL    C265213  14.390   7.623  16.771 -0.3885  0.3782  0.0901
11941CHOL   ROH65214  17.775   0.182  11.591 -0.1518 -0.1853  0.0349
11941CHOL    R165215  17.862  35.307  11.661 -0.0196 -0.1331  0.0674
11941CHOL    R265216  18.129  35.239  11.678  0.0153  0.0143  0.1096
11941CHOL    R365217  18.059  35.156  11.928  0.0263 -0.0043  0.1065
11941CHOL    R465218  18.323  35.036  11.881 -0.0305 -0.1038  0.0362
11941CHOL    R565219  18.141  34.932  11.941 -0.0633 -0.0404  0.0491
11941CHOL    C165220  18.369  34.840  12.233 -0.0479 -0.1895 -0.0091
11941CHOL    C265221  18.238  34.528  12.436 -0.0257 -0.0560  0.0550
11942CHOL   ROH65222  30.539   0.534   7.383  0.2276 -0.0410  0.0659
11942CHOL    R165223  30.387   0.573   7.619  0.1558 -0.0009  0.0133
11942CHOL    R265224  30.336   0.369   7.799  0.0274  0.0075 -0.0105
11942CHOL    R365225  30.442   0.545   7.977  0.0212 -0.0315  0.0315
11942CHOL    R465226  30.316   0.337   8.142  0.1057 -0.1169 -0.0171
11942CHOL    R565227  30.281   0.552   8.155  0.0574 -0.1319  0.0669
11942CHOL    C165228  30.403   0.483   8.510  0.1456 -0.2259  0.0184
11942CHOL    C265229  30.558   0.491   8.887  0.4303 -0.1199  0.1796
11943CHOL   ROH65230  15.516  29.623  19.661  0.0748 -0.2344  0.0675
11943CHOL    R165231  15.392  29.682  19.413 -0.1715 -0.3155  0.1694
11943CHOL    R265232  15.536  29.714  19.179 -0.3360  0.2536  0.1383
11943CHOL    R365233  15.365  29.524  19.086  0.0973 -0.0936  0.0371
11943CHOL    R465234  15.478  29.647  18.845 -0.3642  0.4709  0.0986
11943CHOL    R565235  15.266  29.622  18.892 -0.2800 -0.1314  0.2056
11943CHOL    C165236  15.284  29.429  18.563  0.0264  0.2711 -0.0195
11943CHOL    C265237  15.350  29.488  18.251  0.0858 -0.1518 -0.1310
11944CHOL   ROH65238  22.432  33.277  11.786 -0.3082  0.0162 -0.0255
11944CHOL    R165239  22.503  33.149  11.544 -0.0929 -0.0328  0.0630
11944CHOL    R265240  22.316  33.036  11.375  0.0701 -0.2090 -0.0028
11944CHOL    R365241  22.435  33.195  11.190  0.0811 -0.2071  0.0060
11944CHOL    R465242  22.262  33.015  11.035  0.0580 -0.1720 -0.0031
11944CHOL    R565243  22.476  33.050  11.004  0.0587 -0.1938 -0.0074
11944CHOL    C165244  22.342  33.153  10.662  0.0619 -0.1486  0.0052
11944CHOL    C265245  22.146  33.217  10.302  0.1441  0.0048 -0.0064
11945CHOL   ROH65246  10.333  13.408  15.634 -0.1180  0.0777 -0.0333
11945CHOL    R165247  10.292  13.134  15.695 -0.0637  0.0497 -0.1226
11945CHOL    R265248  10.130  13.050  15.902  0.1771 -0.0442  0.0305
11945CHOL    R365249  10.009  12.906  15.706 -0.0672  0.0636  0.0992
11945CHOL    R465250  10.053  12.714  15.923 -0.0839  0.0163  0.0615
11945CHOL    R565251  10.116  12.691  15.716 -0.2347 -0.0250  0.0195
11945CHOL    C165252   9.895  12.382  15.752 -0.4652  0.1527  0.1440
11945CHOL    C265253   9.867  12.113  16.040  0.3210  0.0483 -0.1064
11946CHOL   ROH65254  16.530  19.653  19.534  0.0149 -0.0549 -0.1747
11946CHOL    R165255  16.332  19.687  19.335  0.1064  0.0023 -0.2567
11946CHOL    R265256  16.095  19.820  19.382 -0.0313 -0.2436 -0.2528
11946CHOL    R365257  16.171  19.968  19.168 -0.0209  0.0558 -0.0454
11946CHOL    R465258  15.879  19.956  19.149  0.0071 -0.2748 -0.3063
11946CHOL    R565259  16.021  19.901  18.993  0.2071  0.0444 -0.2384
11946CHOL    C165260  15.825  20.174  18.812  0.0393 -0.0121 -0.1429
11946CHOL    C265261  15.561  20.192  18.532  0.0861  0.1485 -0.0642
11947CHOL   ROH65262  21.942  24.197  13.108  0.1463 -0.0678  0.0549
11947CHOL    R165263  21.819  24.324  12.886  0.0748  0.0088  0.1376
11947CHOL    R265264  21.842  24.227  12.628  0.0372  0.1285  0.0897
11947CHOL    R365265  21.571  24.236  12.635  0.0369  0.0749  0.1516
11947CHOL    R465266  21.639  24.276  12.353 -0.0420 -0.1221  0.1022
11947CHOL    R565267  21.512  24.404  12.475 -0.0391 -0.0568  0.0383
11947CHOL    C165268  21.266  24.313  12.199 -0.0883 -0.3183  0.1674
11947CHOL    C265269  21.268  24.377  11.789  0.0574 -0.0039  0.0924
11948CHOL   ROH65270  27.544  27.007   3.640  0.2958  0.1508 -0.0060
11948CHOL    R165271  27.570  26.926   3.910  0.3061  0.1068 -0.0202
11948CHOL    R265272  27.365  26.803   4.049  0.2540  0.2379  0.0187
11948CHOL    R365273  27.554  26.613   4.095  0.1322  0.0995 -0.0462
11948CHOL    R465274  27.351  26.567   4.301  0.2232  0.3225  0.0965
11948CHOL    R565275  27.564  26.596   4.333  0.2689  0.1616 -0.0467
11948CHOL    C165276  27.520  26.251   4.491  0.0912  0.2417  0.0808
11948CHOL    C265277  27.434  26.168   4.803 -0.1147 -0.0590 -0.2449
11949CHOL   ROH65278   1.591  11.255  11.410 -0.0443 -0.0119  0.0486
11949CHOL    R165279   1.817  11.119  11.308 -0.1216 -0.1115  0.0083
11949CHOL    R265280   1.804  10.955  11.086 -0.1940  0.0482 -0.1077
11949CHOL    R365281   2.004  11.115  10.996 -0.0535 -0.0379  0.0481
11949CHOL    R465282   2.010  10.882  10.818 -0.2901  0.1468 -0.2086
11949CHOL    R565283   2.178  10.963  10.931 -0.2016 -0.1318 -0.1346
11949CHOL    C165284   2.317  10.989  10.577 -0.2141  0.1233 -0.1212
11949CHOL    C265285   2.542  10.691  10.424 -0.0565  0.2122  0.1911
11950CHOL   ROH65286  17.954  18.651  14.246 -0.1596  0.1507 -0.0370
11950CHOL    R165287  18.166  18.566  14.414 -0.0864  0.1421 -0.1331
11950CHOL    R265288  18.345  18.742  14.528 -0.0631  0.1403 -0.1670
11950CHOL    R365289  18.268  18.620  14.759  0.0376  0.0877 -0.1611
11950CHOL    R465290  18.482  18.805  14.839  0.1034  0.0355 -0.2180
11950CHOL    R565291  18.472  18.591  14.881  0.0957  0.0252 -0.2722
11950CHOL    C165292  18.489  18.727  15.237  0.2946 -0.0750 -0.2422
11950CHOL    C265293  18.370  18.687  15.615  0.1903 -0.1335  0.2203
11951CHOL   ROH65294  24.450  19.150   2.035  0.2209  0.1330  0.1912
11951CHOL    R165295  24.476  19.080   2.307  0.1772  0.0572  0.1757
11951CHOL    R265296  24.261  19.002   2.462  0.1441  0.0651  0.1327
11951CHOL    R365297  24.416  18.784   2.511  0.0908  0.0176  0.0940
11951CHOL    R465298  24.222  18.788   2.731 -0.0183 -0.0713  0.0024
11951CHOL    R565299  24.439  18.780   2.749 -0.0267 -0.1108  0.1048
11951CHOL    C165300  24.346  18.460   2.934 -0.1630 -0.1960 -0.1099
11951CHOL    C265301  24.355  18.210   3.145 -0.1303 -0.0317  0.2189
11952CHOL   ROH65302  29.193  17.984   3.371  0.0295  0.3841  0.1035
11952CHOL    R165303  29.147  18.085   3.111 -0.0652  0.2754  0.0779
11952CHOL    R265304  29.189  17.934   2.884 -0.0243  0.2230  0.1203
11952CHOL    R365305  28.931  18.002   2.830 -0.0685  0.0717  0.1393
11952CHOL    R465306  29.057  17.974   2.567 -0.0883  0.0828  0.1291
11952CHOL    R565307  28.946  18.147   2.640 -0.1720  0.0387  0.1060
11952CHOL    C165308  28.738  18.060   2.332 -0.1669 -0.1407  0.1522
11952CHOL    C265309  28.482  17.995   2.015  0.0170 -0.1058 -0.0665
11953CHOL   ROH65310  22.653   3.616  10.927  0.1313 -0.2700 -0.0764
11953CHOL    R165311  22.914   3.666  10.829  0.0870 -0.1184 -0.1185
11953CHOL    R265312  22.969   3.868  10.649 -0.0450 -0.0338 -0.0648
11953CHOL    R365313  23.152   3.941  10.837 -0.0367 -0.0117 -0.0817
11953CHOL    R465314  23.234   4.084  10.595 -0.1446  0.0911 -0.0572
11953CHOL    R565315  23.359   3.953  10.717 -0.0658  0.1078 -0.1200
11953CHOL    C165316  23.560   4.277  10.740 -0.1943  0.1844 -0.0687
11953CHOL    C265317  23.863   4.379  11.035  0.3222 -0.1895 -0.0087
11954CHOL   ROH65318   3.133   8.250  13.834 -0.0226  0.2552 -0.0293
11954CHOL    R165319   3.403   8.293  13.760 -0.0395  0.2380 -0.1018
11954CHOL    R265320   3.593   8.093  13.768 -0.0088  0.2720  0.0286
11954CHOL    R365321   3.632   8.164  13.509 -0.0563  0.0743 -0.0340
11954CHOL    R465322   3.890   8.054  13.595 -0.0621  0.0713 -0.0194
11954CHOL    R565323   3.856   8.249  13.503 -0.0356  0.0143 -0.1525
11954CHOL    C165324   4.100   8.099  13.251 -0.1377 -0.2311 -0.1063
11954CHOL    C265325   4.403   7.915  13.146 -0.0394 -0.1707  0.0788
11955CHOL   ROH65326  27.034  33.821   8.222  0.0930  0.1158  0.1568
11955CHOL    R165327  26.860  33.610   8.150  0.1074  0.1698 -0.0360
11955CHOL    R265328  26.762  33.429   8.334  0.1733 -0.0467 -0.2119
11955CHOL    R365329  26.522  33.506   8.234  0.1405  0.0296 -0.0744
11955CHOL    R465330  26.460  33.280   8.410  0.1965 -0.0954 -0.2127
11955CHOL    R565331  26.402  33.301   8.200  0.1247  0.0546 -0.1786
11955CHOL    C165332  26.058  33.266   8.360  0.1789 -0.0514 -0.0839
11955CHOL    C265333  25.862  33.362   8.617  0.0424 -0.4971  0.0238
11956CHOL   ROH65334   5.013  23.492  12.367 -0.1196 -0.3432 -0.1358
11956CHOL    R165335   5.052  23.585  12.632  0.1202 -0.1253 -0.2449
11956CHOL    R265336   4.900  23.495  12.844  0.0735  0.3110 -0.0890
11956CHOL    R365337   5.144  23.438  12.952  0.0370  0.0701 -0.1308
11956CHOL    R465338   4.951  23.367  13.162  0.0013  0.2548 -0.1000
11956CHOL    R565339   5.122  23.500  13.183  0.1363  0.0870 -0.1260
11956CHOL    C165340   5.209  23.239  13.447 -0.0750 -0.0040 -0.1458
11956CHOL    C265341   5.389  23.304  13.822  0.0053  0.0360  0.2407
11957CHOL   ROH65342   6.290  32.893  19.164  0.0350 -0.1756  0.0410
11957CHOL    R165343   6.505  32.734  19.070  0.1435 -0.0687  0.1087
11957CHOL    R265344   6.511  32.626  18.816  0.1881 -0.2243  0.1761
11957CHOL    R365345   6.751  32.753  18.802  0.0891 -0.0476  0.0597
11957CHOL    R465346   6.714  32.636  18.536  0.1496 -0.2701  0.1469
11957CHOL    R565347   6.887  32.610  18.667  0.1852 -0.0423  0.1488
11957CHOL    C165348   7.057  32.761  18.360  0.0343 -0.1307  0.0203
11957CHOL    C265349   7.268  32.772  18.017 -0.2585 -0.0343  0.2774
11958CHOL   ROH65350   2.470  25.050   7.897 -0.0676  0.0568 -0.0684
11958CHOL    R165351   2.471  24.789   8.007 -0.0813  0.0881  0.0070
11958CHOL    R265352   2.389  24.735   8.265 -0.2096  0.1475 -0.0206
11958CHOL    R365353   2.225  24.557   8.142 -0.1136  0.0854 -0.0579
11958CHOL    R465354   2.230  24.471   8.422 -0.0485  0.0137 -0.0822
11958CHOL    R565355   2.274  24.348   8.248  0.0127  0.0856 -0.1166
11958CHOL    C165356   1.985  24.150   8.397  0.1354 -0.1229 -0.1530
11958CHOL    C265357   1.734  23.830   8.353 -0.1578 -0.2536  0.0055
11959CHOL   ROH65358  13.979   0.302  15.935  0.0146  0.1790  0.1176
11959CHOL    R165359  14.035   0.353  15.663 -0.0497  0.0526  0.0797
11959CHOL    R265360  13.948   0.581  15.533 -0.0577  0.0066  0.0008
11959CHOL    R365361  14.212   0.609  15.473 -0.0698 -0.0500 -0.0777
11959CHOL    R465362  14.073   0.779  15.279 -0.0771  0.1260  0.0838
11959CHOL    R565363  14.217   0.622  15.234 -0.1511  0.1034 -0.0707
11959CHOL    C165364  14.393   0.920  15.074 -0.0996  0.1424  0.0587
11959CHOL    C265365  14.422   1.017  14.736 -0.0185  0.0718  0.0290
11960CHOL   ROH65366   2.613  25.148  16.163  0.1250  0.2317  0.1861
11960CHOL    R165367   2.621  25.356  15.972  0.0997  0.1505  0.0965
11960CHOL    R265368   2.707  25.611  16.033  0.1032  0.1775 -0.0223
11960CHOL    R365369   2.875  25.569  15.823  0.0791  0.0911 -0.0245
11960CHOL    R465370   2.861  25.861  15.850  0.0586  0.1040 -0.1608
11960CHOL    R565371   2.823  25.745  15.669  0.0441  0.0143 -0.1014
11960CHOL    C165372   3.108  25.967  15.547  0.0099 -0.0197 -0.2438
11960CHOL    C265373   3.152  26.272  15.512 -0.1629 -0.0043 -0.2463
11961CHOL   ROH65374  24.337  19.978   2.444 -0.1098 -0.0618 -0.1581
11961CHOL    R165375  24.540  19.912   2.630 -0.0540 -0.0149 -0.2021
11961CHOL    R265376  24.728  20.095   2.717 -0.1634  0.0673 -0.1358
11961CHOL    R365377  24.639  20.021   2.963 -0.0991 -0.0969 -0.1617
11961CHOL    R465378  24.890  20.164   3.014 -0.3233  0.2775 -0.0961
11961CHOL    R565379  24.839  19.964   3.083 -0.0341  0.1894 -0.1308
11961CHOL    C165380  24.902  20.135   3.418 -0.3566  0.2460 -0.0972
11961CHOL    C265381  25.177  20.404   3.469 -0.1005  0.0765 -0.1127
11962CHOL   ROH65382  19.451  28.727   9.818 -0.1797  0.0694 -0.0254
11962CHOL    R165383  19.625  28.588   9.992 -0.0874  0.0515 -0.1314
11962CHOL    R265384  19.888  28.664  10.031 -0.1148  0.1495 -0.1337
11962CHOL    R365385  19.815  28.666  10.293 -0.0728 -0.0289 -0.1199
11962CHOL    R465386  20.106  28.629  10.296 -0.0431  0.1930 -0.1863
11962CHOL    R565387  19.958  28.503  10.395  0.0698  0.0320 -0.2198
11962CHOL    C165388  20.165  28.611  10.697  0.0373  0.0506 -0.2041
11962CHOL    C265389  20.313  28.370  11.060  0.3283  0.1163  0.3900
11963CHOL   ROH65390  34.714  11.431   2.872  0.1765  0.0178  0.0378
11963CHOL    R165391  34.707  11.506   3.145  0.0889 -0.0483  0.0538
11963CHOL    R265392  34.935  11.528   3.299  0.0441 -0.0333  0.1175
11963CHOL    R365393  34.840  11.777   3.348 -0.0249 -0.0659  0.1521
11963CHOL    R465394  35.034  11.729   3.562  0.2144  0.0789 -0.0305
11963CHOL    R565395  34.826  11.790   3.587  0.2094 -0.0134  0.1637
11963CHOL    C165396  35.002  12.080   3.762  0.2489  0.1135 -0.0841
11963CHOL    C265397  35.269  12.277   3.858 -0.3001 -0.0571  0.0454
11964CHOL   ROH65398  28.080  12.795   1.412  0.0973  0.0241  0.0176
11964CHOL    R165399  27.972  12.811   1.673  0.0072  0.0017 -0.0178
11964CHOL    R265400  28.108  12.928   1.883 -0.0390 -0.0695  0.0538
11964CHOL    R365401  27.881  13.076   1.906 -0.0117 -0.0192 -0.0021
11964CHOL    R465402  28.007  13.092   2.170  0.0360  0.1355 -0.0363
11964CHOL    R565403  27.802  13.031   2.127  0.0200  0.1398  0.0412
11964CHOL    C165404  27.734  13.327   2.358  0.1062  0.3020 -0.1412
11964CHOL    C265405  27.879  13.635   2.528  0.0716 -0.2142  0.1210
11965CHOL   ROH65406  34.004  19.418   4.786  0.0006 -0.1397 -0.0086
11965CHOL    R165407  34.050  19.398   4.507 -0.0015 -0.0017 -0.0191
11965CHOL    R265408  34.173  19.598   4.362  0.0982  0.0217  0.0988
11965CHOL    R365409  34.339  19.396   4.286  0.0028 -0.0147 -0.0129
11965CHOL    R465410  34.394  19.612   4.096  0.2079  0.1175  0.1942
11965CHOL    R565411  34.340  19.407   4.047  0.0996  0.1917 -0.0042
11965CHOL    C165412  34.677  19.431   3.870  0.1822  0.1386  0.1448
11965CHOL    C265413  34.929  19.496   3.602 -0.3058  0.3404  0.0547
11966CHOL   ROH65414  23.475  16.828   8.341  0.1233 -0.1263 -0.0001
11966CHOL    R165415  23.200  16.893   8.323  0.1558 -0.0244 -0.1526
11966CHOL    R265416  23.059  16.876   8.087  0.2164 -0.2307 -0.1778
11966CHOL    R365417  22.893  16.719   8.234  0.1066  0.0076 -0.0442
11966CHOL    R465418  22.735  16.793   7.999  0.1598 -0.0864 -0.1067
11966CHOL    R565419  22.677  16.819   8.208  0.1751  0.1312 -0.1299
11966CHOL    C165420  22.391  16.597   8.087  0.0243  0.2217  0.0603
11966CHOL    C265421  22.189  16.431   7.851 -0.3230  0.0316 -0.3458
11967CHOL   ROH65422  13.727  20.374  20.864 -0.0391 -0.0066  0.0788
11967CHOL    R165423  13.786  20.475  20.606 -0.0063 -0.0383  0.0732
11967CHOL    R265424  13.680  20.366  20.376  0.0681 -0.1034  0.0679
11967CHOL    R365425  13.598  20.621  20.330  0.0193 -0.1297  0.0077
11967CHOL    R465426  13.495  20.468  20.102  0.0809 -0.1942  0.0259
11967CHOL    R565427  13.618  20.648  20.093  0.0429 -0.1709  0.0059
11967CHOL    C165428  13.311  20.767  19.900  0.0428 -0.2721 -0.0557
11967CHOL    C265429  12.858  20.709  19.880  0.0222  0.0049  0.0347
11968CHOL   ROH65430  27.456  32.776   9.760 -0.0870  0.1632 -0.0037
11968CHOL    R165431  27.306  32.804   9.522 -0.0212  0.1575 -0.0460
11968CHOL    R265432  27.372  32.988   9.326  0.0563  0.1253 -0.0509
11968CHOL    R365433  27.368  32.769   9.165  0.0672  0.1069 -0.0259
11968CHOL    R465434  27.257  32.984   9.000 -0.1228  0.0385  0.0124
11968CHOL    R565435  27.165  32.791   9.039 -0.0124  0.0008  0.0837
11968CHOL    C165436  27.186  32.776   8.659 -0.2169 -0.0295  0.0727
11968CHOL    C265437  27.211  32.654   8.329  0.0707 -0.0048 -0.1676
11969CHOL   ROH65438  13.252  30.824  17.113 -0.1320  0.0868 -0.0010
11969CHOL    R165439  13.517  30.924  17.107 -0.0801 -0.0492  0.0111
11969CHOL    R265440  13.623  31.076  17.312 -0.0873  0.0894 -0.0877
11969CHOL    R365441  13.818  30.886  17.308 -0.1786 -0.0115  0.1668
11969CHOL    R465442  13.921  31.095  17.487 -0.0148  0.2510 -0.2274
11969CHOL    R565443  14.022  31.011  17.313 -0.1170 -0.0967 -0.1232
11969CHOL    C165444  14.277  30.928  17.585 -0.0581  0.2503 -0.0697
11969CHOL    C265445  14.639  31.010  17.657  0.0112 -0.1011 -0.3070
11970CHOL   ROH65446  27.277  29.060   9.519  0.3204  0.0160  0.2135
11970CHOL    R165447  27.381  29.052   9.256  0.3099  0.0221  0.2085
11970CHOL    R265448  27.239  28.946   9.043  0.3960 -0.1933  0.2539
11970CHOL    R365449  27.289  29.188   8.931  0.1514 -0.1828  0.1662
11970CHOL    R465450  27.240  29.010   8.704  0.2148 -0.2857  0.2359
11970CHOL    R565451  27.414  29.138   8.733  0.1188 -0.1326  0.1340
11970CHOL    C165452  27.287  29.275   8.401 -0.1205 -0.3298  0.1434
11970CHOL    C265453  27.006  29.498   8.166  0.0295  0.2956  0.2933
11971CHOL   ROH65454   8.073  25.364  17.425  0.1252  0.0960  0.1293
11971CHOL    R165455   7.860  25.349  17.610  0.0749  0.1596  0.0769
11971CHOL    R265456   7.818  25.128  17.771 -0.0938  0.1289 -0.0097
11971CHOL    R365457   7.826  25.312  17.971 -0.0267  0.0547  0.0569
11971CHOL    R465458   7.637  25.108  18.064  0.0539 -0.0141  0.0732
11971CHOL    R565459   7.600  25.323  18.050  0.0097 -0.0143  0.1724
11971CHOL    C165460   7.537  25.269  18.423  0.2030 -0.1672  0.1842
11971CHOL    C265461   7.186  25.061  18.562 -0.2863 -0.1289 -0.6604
11972CHOL   ROH65462   1.067   8.229   8.857  0.0545  0.0847  0.2070
11972CHOL    R165463   0.955   8.489   8.852 -0.0363  0.0438  0.0226
11972CHOL    R265464   1.107   8.715   8.806 -0.0574  0.0934  0.1791
11972CHOL    R365465   0.923   8.759   8.610  0.1749 -0.0093 -0.0646
11972CHOL    R465466   1.008   9.027   8.694 -0.4195  0.0487  0.3679
11972CHOL    R565467   0.803   8.953   8.684 -0.2788 -0.2954 -0.0382
11972CHOL    C165468   0.778   9.250   8.445 -0.4122 -0.0739  0.2493
11972CHOL    C265469   0.771   9.681   8.355  0.0109  0.1843 -0.0135
11973CHOL   ROH65470   0.022  25.504  12.377  0.0765 -0.1810 -0.1090
11973CHOL    R165471   0.284  25.509  12.271  0.0643 -0.0900 -0.1351
11973CHOL    R265472   0.392  25.733  12.152  0.0494  0.0127  0.0418
11973CHOL    R365473   0.591  25.694  12.333  0.0702 -0.1401 -0.0127
11973CHOL    R465474   0.724  25.814  12.100 -0.0131  0.3839  0.2015
11973CHOL    R565475   0.780  25.628  12.200  0.1356  0.2499 -0.1211
11973CHOL    C165476   1.104  25.824  12.239 -0.0300  0.4566  0.2433
11973CHOL    C265477   1.411  25.745  12.399 -0.2149 -0.3725  0.2279
11974CHOL   ROH65478   1.099   1.114  14.332  0.2869 -0.0983  0.4034
11974CHOL    R165479   1.379   1.142  14.300  0.3254 -0.3144  0.5421
11974CHOL    R265480   1.552   0.928  14.313  0.0857 -0.5547 -0.0456
11974CHOL    R365481   1.633   1.019  14.070  0.2308  0.0684  0.2269
11974CHOL    R465482   1.870   0.888  14.183  0.0328 -0.6410 -0.1489
11974CHOL    R565483   1.858   1.092  14.106  0.3430 -0.3769  0.4664
11974CHOL    C165484   2.131   0.951  13.879  0.1382 -0.1062  0.0469
11974CHOL    C265485   2.235   1.077  13.528 -0.1291 -0.2891  0.0026
11975CHOL   ROH65486  13.658  11.616  18.875 -0.1529  0.2880 -0.0771
11975CHOL    R165487  13.855  11.670  18.679 -0.0651  0.0725 -0.0486
11975CHOL    R265488  13.882  11.518  18.449 -0.2188  0.0625 -0.0589
11975CHOL    R365489  13.860  11.760  18.326  0.0840  0.1017 -0.0398
11975CHOL    R465490  13.914  11.570  18.109 -0.3707  0.0126 -0.0816
11975CHOL    R565491  14.025  11.753  18.152 -0.0443 -0.1629 -0.1545
11975CHOL    C165492  13.913  11.827  17.795 -0.1748  0.0205 -0.0770
11975CHOL    C265493  13.876  11.539  17.561 -0.1962 -0.1792  0.0833
11976CHOL   ROH65494   2.161  33.135  15.866  0.0905  0.0814  0.2403
11976CHOL    R165495   2.417  33.167  15.751  0.0494  0.0427  0.1369
11976CHOL    R265496   2.560  32.956  15.645  0.0768 -0.0208  0.2976
11976CHOL    R365497   2.569  33.115  15.425 -0.0287 -0.2272  0.1421
11976CHOL    R465498   2.850  33.055  15.484  0.0258  0.2033  0.3417
11976CHOL    R565499   2.762  33.253  15.459 -0.2261  0.0645  0.1009
11976CHOL    C165500   3.027  33.262  15.184 -0.1029  0.1404  0.2215
11976CHOL    C265501   3.268  33.354  14.911  0.0299 -0.1230  0.2960
11977CHOL   ROH65502  32.551  12.987   5.249  0.0226  0.1324  0.0161
11977CHOL    R165503  32.765  12.912   5.080  0.0301  0.2106 -0.0083
11977CHOL    R265504  32.728  12.762   4.851  0.0612  0.1803  0.0081
11977CHOL    R365505  32.859  12.969   4.733 -0.0403  0.2266 -0.0255
11977CHOL    R465506  32.879  12.748   4.540  0.1438  0.1760  0.0478
11977CHOL    R565507  33.044  12.865   4.621  0.0519  0.3063  0.0510
11977CHOL    C165508  33.089  12.934   4.248  0.0959  0.2167  0.0394
11977CHOL    C265509  33.214  13.141   4.185  0.3349  0.1006 -0.0793
11978CHOL   ROH65510  11.295   0.067  19.501  0.0905  0.1239  0.0279
11978CHOL    R165511  11.081   0.137  19.329  0.1067  0.2470  0.0566
11978CHOL    R265512  11.108   0.318  19.123  0.2266  0.1064 -0.0526
11978CHOL    R365513  11.009   0.114  18.973 -0.0272  0.1233  0.0916
11978CHOL    R465514  10.949   0.356  18.819  0.3169  0.0861 -0.1020
11978CHOL    R565515  10.806   0.202  18.880  0.1024  0.3222 -0.0021
11978CHOL    C165516  10.762   0.186  18.501  0.1314  0.0901  0.0037
11978CHOL    C265517  10.634   0.138  18.210  0.4465 -0.3122  0.0986
11979CHOL   ROH65518  21.205   9.751  10.298  0.0449 -0.1924 -0.3382
11979CHOL    R165519  21.467   9.855  10.327 -0.1350  0.2117 -0.1120
11979CHOL    R265520  21.537  10.026  10.532 -0.4011 -0.2545  0.3827
11979CHOL    R365521  21.730   9.841  10.578 -0.0412 -0.0445 -0.2231
11979CHOL    R465522  21.827  10.083  10.711 -0.4072 -0.2213  0.3815
11979CHOL    R565523  21.935   9.964  10.565 -0.2657  0.3622 -0.0060
11979CHOL    C165524  22.177   9.943  10.859 -0.0730 -0.0046 -0.1877
11979CHOL    C265525  22.483   9.882  11.172  0.1470  0.1017  0.1272
11980CHOL   ROH65526  18.372  13.249  16.530  0.0097  0.2387  0.0637
11980CHOL    R165527  18.307  13.412  16.308 -0.0481  0.1070 -0.0170
11980CHOL    R265528  18.327  13.323  16.047  0.0271  0.0004  0.0254
11980CHOL    R365529  18.067  13.403  16.034 -0.0127 -0.1372 -0.0415
11980CHOL    R465530  18.145  13.358  15.755  0.1808  0.2050 -0.0463
11980CHOL    R565531  18.057  13.540  15.838  0.0257  0.0674  0.0965
11980CHOL    C165532  17.796  13.454  15.573  0.2324  0.1949 -0.1507
11980CHOL    C265533  17.630  13.705  15.428 -0.0652  0.1231  0.1622
11981CHOL   ROH65534  26.469  11.336   5.986  0.0449  0.2584 -0.0085
11981CHOL    R165535  26.374  11.309   5.721  0.3294  0.1685 -0.1040
11981CHOL    R265536  26.508  11.163   5.529  0.3612 -0.1913  0.1841
11981CHOL    R365537  26.270  11.035   5.505  0.2045  0.1285  0.0056
11981CHOL    R465538  26.382  11.035   5.234  0.4648 -0.1233  0.1102
11981CHOL    R565539  26.185  11.108   5.292  0.5054  0.1712 -0.1027
11981CHOL    C165540  26.084  10.841   5.039  0.3777  0.2167 -0.1005
11981CHOL    C265541  25.945  10.730   4.661 -0.3028  0.1698 -0.0619
11982CHOL   ROH65542  25.123   3.312   7.606  0.0522 -0.1036 -0.1679
11982CHOL    R165543  25.321   3.199   7.774 -0.0658 -0.2473 -0.1250
11982CHOL    R265544  25.420   3.329   7.996  0.0842 -0.2577 -0.1861
11982CHOL    R365545  25.346   3.100   8.124 -0.1627 -0.1227 -0.0824
11982CHOL    R465546  25.462   3.269   8.334 -0.2581 -0.0330 -0.1011
11982CHOL    R565547  25.519   3.064   8.286 -0.3296 -0.1030  0.1024
11982CHOL    C165548  25.417   3.019   8.650 -0.6886  0.2246  0.0458
11982CHOL    C265549  25.266   2.771   8.875 -0.0625 -0.0194  0.0250
11983CHOL   ROH65550  24.649   6.447  11.384 -0.0758  0.1558  0.1107
11983CHOL    R165551  24.512   6.617  11.203 -0.0563  0.0391 -0.0145
11983CHOL    R265552  24.310   6.526  11.038 -0.1036 -0.0483  0.0891
11983CHOL    R365553  24.169   6.728  11.153 -0.0337  0.0864 -0.0611
11983CHOL    R465554  24.019   6.662  10.910 -0.2468 -0.2781  0.1669
11983CHOL    R565555  24.092   6.859  10.968 -0.2279 -0.1829 -0.1729
11983CHOL    C165556  23.718   6.931  10.943 -0.2648 -0.2856  0.0712
11983CHOL    C265557  23.349   6.916  10.845 -0.2070  0.2067  0.0400
11984CHOL   ROH65558   3.185   0.022  16.437  0.1703  0.2081  0.0025
11984CHOL    R165559   3.323   0.202  16.268  0.0311  0.1041 -0.2247
11984CHOL    R265560   3.591   0.261  16.301 -0.0089  0.3293 -0.3151
11984CHOL    R365561   3.606   0.187  16.040  0.0236  0.0299 -0.2305
11984CHOL    R465562   3.860   0.325  16.094  0.0374  0.0586 -0.3401
11984CHOL    R565563   3.719   0.369  15.933  0.0679 -0.1025 -0.4177
11984CHOL    C165564   4.031   0.292  15.728  0.0947 -0.3801 -0.2758
11984CHOL    C265565   4.413   0.415  15.763 -0.1247 -0.1708  0.1260
11985CHOL   ROH65566  12.040   8.661  18.455 -0.1946  0.0195 -0.1213
11985CHOL    R165567  12.006   8.740  18.185 -0.2491 -0.0096 -0.1232
11985CHOL    R265568  12.160   8.638  17.980 -0.0141  0.2681 -0.0894
11985CHOL    R365569  11.918   8.578  17.871  0.1141 -0.1302 -0.1657
11985CHOL    R465570  12.095   8.616  17.641  0.1078  0.2437 -0.1116
11985CHOL    R565571  11.904   8.716  17.676 -0.0800 -0.0995 -0.1320
11985CHOL    C165572  11.830   8.547  17.342  0.2988 -0.1442 -0.1953
11985CHOL    C265573  11.925   8.395  16.984 -0.1056 -0.0835 -0.2173
11986CHOL   ROH65574   3.442  12.290   6.857  0.0445  0.0692  0.0882
11986CHOL    R165575   3.203  12.428   6.921 -0.0793 -0.0090 -0.1977
11986CHOL    R265576   2.955  12.344   6.834  0.0165 -0.2890 -0.2045
11986CHOL    R365577   2.894  12.354   7.099 -0.1105  0.0105 -0.2436
11986CHOL    R465578   2.636  12.382   6.963 -0.0870 -0.4835 -0.3991
11986CHOL    R565579   2.719  12.517   7.114 -0.3100 -0.1735 -0.5477
11986CHOL    C165580   2.394  12.415   7.286 -0.2665 -0.3155 -0.5491
11986CHOL    C265581   1.975  12.551   7.223  0.0146  0.0338 -0.3062
11987CHOL   ROH65582  25.326  19.192   1.662  0.0479 -0.3593 -0.1589
11987CHOL    R165583  25.508  19.074   1.844  0.0065 -0.1495  0.0208
11987CHOL    R265584  25.531  19.158   2.106 -0.3897 -0.1583  0.0622
11987CHOL    R365585  25.487  18.895   2.160 -0.1051 -0.2271 -0.0300
11987CHOL    R465586  25.539  19.017   2.422 -0.2064 -0.2668  0.0101
11987CHOL    R565587  25.641  18.844   2.336 -0.0303 -0.1289 -0.0658
11987CHOL    C165588  25.502  18.689   2.657  0.1680 -0.3950 -0.1070
11987CHOL    C265589  25.644  18.516   2.885 -0.0541 -0.1707  0.0464
11988CHOL   ROH65590  11.167  25.715  21.916 -0.2816 -0.2925 -0.1567
11988CHOL    R165591  11.250  25.864  21.690 -0.1160 -0.1345  0.0065
11988CHOL    R265592  11.224  25.769  21.432  0.1056  0.0298 -0.0777
11988CHOL    R365593  11.093  26.004  21.393  0.1077  0.0387 -0.0318
11988CHOL    R465594  11.152  25.905  21.123  0.0793  0.0753 -0.0519
11988CHOL    R565595  11.202  26.102  21.203  0.0919  0.0628 -0.0284
11988CHOL    C165596  10.987  26.206  20.906  0.0659  0.1105  0.0066
11988CHOL    C265597  11.164  26.284  20.483  0.0008  0.2059  0.1244
11989CHOL   ROH65598   2.277   2.113  14.419 -0.0264  0.1536 -0.1805
11989CHOL    R165599   2.436   2.119  14.185 -0.0694  0.0059 -0.2147
11989CHOL    R265600   2.363   1.991  13.952 -0.2109  0.0256 -0.1821
11989CHOL    R365601   2.398   2.238  13.843 -0.0552 -0.0143 -0.2232
11989CHOL    R465602   2.383   2.056  13.613 -0.3121 -0.0249 -0.1979
11989CHOL    R565603   2.541   2.200  13.655 -0.1728 -0.1528 -0.2854
11989CHOL    C165604   2.427   2.326  13.313 -0.2247 -0.0917 -0.2456
11989CHOL    C265605   2.485   2.321  12.948 -0.1599  0.0697  0.2463
11990CHOL   ROH65606  16.237  16.571  18.007  0.1090  0.2270 -0.2593
11990CHOL    R165607  16.177  16.492  17.742 -0.1596 -0.0551 -0.1177
11990CHOL    R265608  15.921  16.424  17.661 -0.3189  0.2571  0.1132
11990CHOL    R365609  15.966  16.614  17.471 -0.0945 -0.0871 -0.1828
11990CHOL    R465610  15.698  16.511  17.412 -0.3392  0.3418  0.1608
11990CHOL    R565611  15.865  16.524  17.273 -0.4136 -0.1703  0.0147
11990CHOL    C165612  15.610  16.739  17.089 -0.1403  0.0685 -0.0889
11990CHOL    C265613  15.485  16.917  16.835 -0.2024 -0.1586  0.0453
11991CHOL   ROH65614   9.063  27.618  20.601 -0.2462  0.0743 -0.1438
11991CHOL    R165615   9.052  27.603  20.318  0.0441  0.1516 -0.1608
11991CHOL    R265616   9.279  27.591  20.161  0.2036 -0.0915  0.0848
11991CHOL    R365617   9.159  27.368  20.062  0.0368  0.0767 -0.0954
11991CHOL    R465618   9.359  27.441  19.860  0.3843 -0.1482  0.1602
11991CHOL    R565619   9.147  27.407  19.826  0.3792  0.1307 -0.1078
11991CHOL    C165620   9.294  27.144  19.592  0.3326 -0.0233  0.0354
11991CHOL    C265621   9.626  27.075  19.504 -0.0846  0.1164 -0.0103
11992CHOL   ROH65622   1.277   5.238  11.444  0.0126  0.1129  0.0670
11992CHOL    R165623   1.211   4.987  11.333 -0.0646  0.1053  0.1287
11992CHOL    R265624   1.183   4.947  11.061 -0.1844  0.0714  0.1439
11992CHOL    R365625   1.365   4.750  11.104 -0.1886  0.0572  0.0951
11992CHOL    R465626   1.240   4.680  10.848 -0.1745  0.1309  0.0718
11992CHOL    R565627   1.258   4.551  11.023 -0.1841  0.0814  0.0339
11992CHOL    C165628   1.443   4.340  10.764 -0.1726  0.1523 -0.0158
11992CHOL    C265629   1.420   3.887  10.798 -0.0016 -0.2618  0.3146
11993CHOL   ROH65630  25.298   6.847   5.007 -0.2917  0.1609  0.0839
11993CHOL    R165631  25.370   6.869   5.279 -0.1724  0.2837  0.0427
11993CHOL    R265632  25.596   6.748   5.384 -0.2609  0.1232  0.0497
11993CHOL    R365633  25.652   7.001   5.468  0.0326  0.1277 -0.1528
11993CHOL    R465634  25.858   6.833   5.593 -0.1490 -0.0101 -0.0363
11993CHOL    R565635  25.725   6.973   5.694  0.0170  0.2225 -0.1358
11993CHOL    C165636  26.064   7.119   5.793  0.1923 -0.0834 -0.2765
11993CHOL    C265637  26.135   7.127   6.151 -0.2163 -0.0766 -0.3589
11994CHOL   ROH65638  23.612  14.964   9.752 -0.1620  0.0534  0.1700
11994CHOL    R165639  23.397  14.785   9.712 -0.1146  0.0099  0.1101
11994CHOL    R265640  23.158  14.808   9.848 -0.1692 -0.0174  0.0171
11994CHOL    R365641  23.052  14.808   9.597 -0.0767 -0.0665 -0.0222
11994CHOL    R465642  22.821  14.774   9.775 -0.1629  0.1384 -0.0894
11994CHOL    R565643  22.876  14.646   9.607 -0.1711  0.0345 -0.0153
11994CHOL    C165644  22.527  14.753   9.498 -0.0723  0.1832 -0.1882
11994CHOL    C265645  22.145  15.001   9.466 -0.0740  0.1144 -0.0528
11995CHOL   ROH65646  30.478  20.702   3.321  0.1947 -0.0575  0.0368
11995CHOL    R165647  30.470  20.809   3.059  0.1144 -0.0193  0.0547
11995CHOL    R265648  30.608  20.696   2.848  0.0232 -0.0083 -0.0120
11995CHOL    R365649  30.362  20.695   2.730 -0.0201  0.0416  0.0774
11995CHOL    R465650  30.552  20.691   2.507 -0.1043 -0.1198  0.0098
11995CHOL    R565651  30.389  20.833   2.536 -0.0374 -0.0448  0.0140
11995CHOL    C165652  30.290  20.688   2.198 -0.2189 -0.1380  0.1066
11995CHOL    C265653  30.302  20.739   1.923 -0.1238 -0.1955 -0.2265
11996CHOL   ROH65654  13.780   7.375  15.211  0.2608 -0.0945 -0.3644
11996CHOL    R165655  13.975   7.382  15.415  0.1604  0.0499 -0.2720
11996CHOL    R265656  14.108   7.156  15.501  0.0791  0.1005 -0.0071
11996CHOL    R365657  14.329   7.304  15.444  0.1325  0.0131 -0.0275
11996CHOL    R465658  14.417   7.115  15.652  0.0220  0.1201  0.1150
11996CHOL    R565659  14.437   7.333  15.656  0.0722  0.1175 -0.0114
11996CHOL    C165660  14.804   7.231  15.687  0.0387  0.0494  0.1672
11996CHOL    C265661  14.938   7.055  16.031 -0.4153  0.0717  0.1440
11997CHOL   ROH65662   0.191  14.623   3.249  0.2084  0.2881  0.1787
11997CHOL    R165663  35.385  14.558   3.447  0.1364  0.0897  0.0455
11997CHOL    R265664   0.049  14.587   3.717  0.0060 -0.0940  0.0907
11997CHOL    R365665  35.206  14.735   3.710 -0.0318 -0.1516  0.0953
11997CHOL    R465666  35.215  14.625   3.982  0.0809 -0.0238  0.1435
11997CHOL    R565667  35.049  14.609   3.840  0.0404 -0.1287  0.2037
11997CHOL    C165668  34.873  14.786   4.129  0.0908 -0.0372  0.1786
11997CHOL    C265669  34.674  14.500   4.263  0.0807  0.1929  0.3266
11998CHOL   ROH65670  28.070  27.427   7.964 -0.0016 -0.0079 -0.1173
11998CHOL    R165671  28.179  27.601   7.768  0.0628 -0.0629 -0.1307
11998CHOL    R265672  28.275  27.510   7.526 -0.0735 -0.1047 -0.1693
11998CHOL    R365673  28.102  27.693   7.424  0.0256  0.0290 -0.0978
11998CHOL    R465674  28.319  27.680   7.228 -0.0069 -0.0513 -0.1286
11998CHOL    R565675  28.243  27.859   7.325  0.1152 -0.0301 -0.0702
11998CHOL    C165676  28.182  27.951   6.960  0.1251  0.1055 -0.0379
11998CHOL    C265677  28.364  28.057   6.596  0.1808 -0.0682 -0.1863
11999CHOL   ROH65678  19.175  27.513  17.749  0.2429 -0.1084  0.0002
11999CHOL    R165679  19.090  27.376  17.517  0.1619 -0.2272  0.0996
11999CHOL    R265680  19.003  27.114  17.521 -0.1764 -0.1105  0.3220
11999CHOL    R365681  18.784  27.219  17.399  0.0057  0.0510  0.1286
11999CHOL    R465682  18.785  26.937  17.320 -0.3832 -0.0648  0.5032
11999CHOL    R565683  18.776  27.109  17.187 -0.0975 -0.2222  0.2701
11999CHOL    C165684  18.453  26.931  17.088 -0.3326  0.1131  0.4274
11999CHOL    C265685  18.160  26.731  17.008 -0.3855 -0.4729  0.1300
12000CHOL   ROH65686  34.965  17.623   1.904 -0.0383 -0.0217  0.0650
12000CHOL    R165687  34.773  17.680   2.105 -0.0542 -0.0351  0.0537
12000CHOL    R265688  34.783  17.909   2.258 -0.0840 -0.0314  0.0486
12000CHOL    R365689  34.528  17.940   2.170 -0.0827 -0.0568  0.0362
12000CHOL    R465690  34.534  18.078   2.429 -0.0599  0.0954 -0.0419
12000CHOL    R565691  34.394  17.923   2.368 -0.0786  0.0731  0.0519
12000CHOL    C165692  34.150  18.207   2.444 -0.0445  0.1455 -0.1063
12000CHOL    C265693  33.886  18.274   2.702 -0.0735 -0.1815 -0.5249
12001CHOL   ROH65694  30.381  27.505   4.281  0.0170  0.1133  0.1541
12001CHOL    R165695  30.476  27.306   4.458 -0.0898  0.1244  0.2253
12001CHOL    R265696  30.313  27.181   4.643 -0.2502 -0.0068  0.0010
12001CHOL    R365697  30.406  26.955   4.523  0.0179  0.0712  0.0576
12001CHOL    R465698  30.324  26.870   4.792 -0.2993 -0.0458 -0.0764
12001CHOL    R565699  30.519  26.837   4.699 -0.1595  0.0746  0.1733
12001CHOL    C165700  30.417  26.476   4.767 -0.0766  0.0053 -0.0685
12001CHOL    C265701  30.286  26.194   4.914 -0.2515  0.1313  0.0094
12002CHOL   ROH65702  19.428  28.422  15.913 -0.0829  0.1802  0.0046
12002CHOL    R165703  19.283  28.264  15.728 -0.0132  0.1558 -0.0293
12002CHOL    R265704  19.156  28.030  15.800  0.1406  0.0513 -0.0921
12002CHOL    R365705  18.940  28.151  15.689  0.0497 -0.0415 -0.0173
12002CHOL    R465706  18.931  27.875  15.588  0.0790 -0.0702  0.0609
12002CHOL    R565707  18.926  28.057  15.468 -0.0334 -0.1040  0.0143
12002CHOL    C165708  18.596  27.899  15.360 -0.0419 -0.2281  0.2204
12002CHOL    C265709  18.306  27.776  15.594 -0.1292  0.0887 -0.0194
12003CHOL   ROH65710  31.127   2.974   7.117 -0.2497  0.1510  0.0825
12003CHOL    R165711  31.068   3.045   7.385 -0.1600  0.2567  0.0746
12003CHOL    R265712  31.158   2.897   7.600 -0.4009  0.1302  0.0892
12003CHOL    R365713  31.258   3.136   7.682 -0.0377 -0.0170  0.0820
12003CHOL    R465714  31.111   3.034   7.914 -0.2962  0.2674  0.0449
12003CHOL    R565715  31.086   3.229   7.819  0.0601  0.2933 -0.0021
12003CHOL    C165716  31.178   3.339   8.173  0.1051  0.2091  0.0124
12003CHOL    C265717  31.500   3.375   8.406  0.1730  0.0936  0.3667
12004CHOL   ROH65718  18.701  29.882  10.434  0.1142 -0.1805 -0.1598
12004CHOL    R165719  18.927  29.853  10.601  0.1675 -0.1871 -0.2323
12004CHOL    R265720  18.906  29.799  10.872  0.2441  0.1453 -0.1568
12004CHOL    R365721  19.070  29.591  10.810  0.0300 -0.0749  0.0053
12004CHOL    R465722  19.123  29.646  11.093  0.0816  0.0875 -0.0367
12004CHOL    R565723  19.271  29.635  10.933  0.0740 -0.1898 -0.0261
12004CHOL    C165724  19.404  29.362  11.163 -0.2141 -0.1527  0.1858
12004CHOL    C265725  19.485  29.340  11.486  0.2455 -0.2259 -0.0771
12005CHOL   ROH65726  28.321  12.829   4.366 -0.1933  0.0691 -0.0487
12005CHOL    R165727  28.329  12.742   4.097 -0.1881  0.2242 -0.0993
12005CHOL    R265728  28.342  12.475   4.027  0.1791  0.2774 -0.2480
12005CHOL    R365729  28.122  12.536   3.880  0.0169  0.0296 -0.1113
12005CHOL    R465730  28.278  12.356   3.709  0.1490  0.2629 -0.2363
12005CHOL    R565731  28.203  12.554   3.655 -0.1328  0.1802 -0.1540
12005CHOL    C165732  28.034  12.344   3.385 -0.0211  0.0218 -0.1012
12005CHOL    C265733  27.661  12.178   3.173  0.1439 -0.1564  0.0416
12006CHOL   ROH65734   1.507   3.465  13.454 -0.4580 -0.1255 -0.1507
12006CHOL    R165735   1.713   3.316  13.329 -0.1850  0.0702  0.0575
12006CHOL    R265736   1.687   3.213  13.074  0.0578 -0.2082  0.1422
12006CHOL    R365737   1.918   3.349  13.030 -0.1343  0.1091  0.0968
12006CHOL    R465738   1.917   3.138  12.827  0.1603  0.0476  0.1581
12006CHOL    R565739   2.077   3.180  12.970  0.1062  0.3152  0.1417
12006CHOL    C165740   2.269   3.221  12.643  0.0397  0.4944  0.1250
12006CHOL    C265741   2.641   3.171  12.483  0.1698  0.2036 -0.2424
12007CHOL   ROH65742  16.011  22.263  19.973 -0.2235 -0.1008 -0.2173
12007CHOL    R165743  16.087  22.272  19.701 -0.0639 -0.0120 -0.1709
12007CHOL    R265744  15.916  22.357  19.502 -0.0277 -0.1710 -0.2723
12007CHOL    R365745  16.121  22.527  19.444 -0.1590  0.0355 -0.1356
12007CHOL    R465746  15.986  22.484  19.187  0.1880 -0.2779 -0.2686
12007CHOL    R565747  16.198  22.456  19.228  0.1751 -0.0042 -0.0055
12007CHOL    C165748  16.218  22.716  18.950  0.1907 -0.1466 -0.1380
12007CHOL    C265749  16.537  22.984  18.730 -0.0707  0.1282  0.2178
12008CHOL   ROH65750  24.076  23.892  10.156 -0.1469  0.0648 -0.1187
12008CHOL    R165751  23.793  23.909  10.146 -0.1448  0.1289 -0.0713
12008CHOL    R265752  23.661  24.121  10.028 -0.1156  0.0969 -0.1608
12008CHOL    R365753  23.538  23.924   9.887 -0.1932  0.0501 -0.0286
12008CHOL    R465754  23.387  24.168   9.822 -0.0511  0.0828 -0.2500
12008CHOL    R565755  23.305  23.980   9.897 -0.1665  0.1844 -0.1163
12008CHOL    C165756  23.113  24.010   9.569 -0.0867  0.0298 -0.1778
12008CHOL    C265757  22.713  23.955   9.528  0.2249 -0.0509 -0.0967
12009CHOL   ROH65758   2.098  22.820  10.877  0.0045 -0.0268 -0.0032
12009CHOL    R165759   2.181  23.072  10.778  0.0030 -0.0984 -0.1874
12009CHOL    R265760   2.302  23.262  10.938 -0.2443  0.1244 -0.2626
12009CHOL    R365761   2.495  23.253  10.747 -0.0379 -0.0024 -0.0518
12009CHOL    R465762   2.578  23.470  10.926 -0.1470  0.0118 -0.0160
12009CHOL    R565763   2.553  23.483  10.709  0.0932 -0.0334 -0.0493
12009CHOL    C165764   2.920  23.583  10.739  0.1035 -0.1716  0.3251
12009CHOL    C265765   3.138  23.860  11.027  0.1966 -0.2077 -0.0431
12010CHOL   ROH65766   6.231  29.847  19.971 -0.1446  0.0520 -0.0873
12010CHOL    R165767   6.344  29.644  19.810 -0.0614  0.0704 -0.0519
12010CHOL    R265768   6.388  29.677  19.539 -0.0862  0.0368 -0.0605
12010CHOL    R365769   6.642  29.605  19.605 -0.0522  0.1620 -0.0563
12010CHOL    R465770   6.619  29.544  19.319 -0.1715 -0.2966  0.0484
12010CHOL    R565771   6.683  29.407  19.476 -0.0923 -0.0416  0.2405
12010CHOL    C165772   6.992  29.399  19.252 -0.1892 -0.3730  0.1164
12010CHOL    C265773   7.087  29.034  19.282 -0.1178 -0.1281 -0.0293
12011CHOL   ROH65774  28.702  32.458   9.777  0.0614 -0.1693  0.0344
12011CHOL    R165775  28.693  32.444   9.495  0.1312 -0.1587  0.0317
12011CHOL    R265776  28.647  32.666   9.337  0.0645 -0.1729  0.0329
12011CHOL    R365777  28.879  32.588   9.217  0.1272 -0.0595  0.0801
12011CHOL    R465778  28.689  32.622   8.996  0.1661 -0.1125  0.0373
12011CHOL    R565779  28.808  32.445   9.038  0.2310 -0.0671  0.0448
12011CHOL    C165780  28.930  32.524   8.686  0.2837  0.0282  0.0841
12011CHOL    C265781  29.034  32.505   8.362  0.0671  0.1511  0.0636
12012CHOL   ROH65782  28.324  18.792   0.472 -0.0033 -0.1306 -0.0668
12012CHOL    R165783  28.306  18.664   0.723  0.0004  0.0713  0.0368
12012CHOL    R265784  28.398  18.407   0.766 -0.2168  0.0178  0.1788
12012CHOL    R365785  28.538  18.526   0.967 -0.0079  0.0354  0.0257
12012CHOL    R465786  28.489  18.252   1.062 -0.2436  0.1516  0.2579
12012CHOL    R565787  28.441  18.437   1.168 -0.0126  0.2853  0.1382
12012CHOL    C165788  28.673  18.274   1.423 -0.0636  0.2459  0.1601
12012CHOL    C265789  28.911  18.107   1.716  0.0369  0.0301  0.1789
12013CHOL   ROH65790  31.240  14.193   1.306  0.0392 -0.1424  0.1856
12013CHOL    R165791  31.155  14.327   1.540 -0.0774 -0.1058  0.1227
12013CHOL    R265792  30.981  14.214   1.722 -0.0845 -0.1190  0.1087
12013CHOL    R365793  31.179  14.274   1.899 -0.1558  0.0093  0.1450
12013CHOL    R465794  30.934  14.268   2.061 -0.1686 -0.2428  0.1169
12013CHOL    R565795  31.078  14.431   2.050 -0.3088 -0.1146  0.1729
12013CHOL    C165796  31.092  14.356   2.424 -0.2843 -0.1947  0.1558
12013CHOL    C265797  30.916  14.375   2.775 -0.1817  0.1354  0.0165
12014CHOL   ROH65798  27.827  19.560   3.506  0.1238 -0.0808 -0.0219
12014CHOL    R165799  27.750  19.674   3.258  0.2266  0.0357 -0.0004
12014CHOL    R265800  27.932  19.727   3.057  0.2594 -0.1975 -0.0338
12014CHOL    R365801  27.761  19.577   2.907  0.0256  0.0381 -0.0081
12014CHOL    R465802  27.853  19.788   2.726  0.2718 -0.0723 -0.0142
12014CHOL    R565803  27.646  19.736   2.771  0.2094  0.2016  0.0251
12014CHOL    C165804  27.647  19.682   2.393  0.0598  0.2214  0.0214
12014CHOL    C265805  27.830  19.855   2.173 -0.0061  0.1444  0.0113
12015CHOL   ROH65806  20.717  11.485   9.933  0.0386  0.0602 -0.0215
12015CHOL    R165807  20.905  11.697   9.945 -0.1112  0.1847  0.1652
12015CHOL    R265808  20.987  11.809  10.183 -0.0557 -0.0900  0.2775
12015CHOL    R365809  21.235  11.749  10.089 -0.0655  0.2258  0.0451
12015CHOL    R465810  21.283  11.893  10.340 -0.0303 -0.2382  0.3097
12015CHOL    R565811  21.367  11.941  10.144 -0.1436  0.1909  0.3614
12015CHOL    C165812  21.689  11.886  10.342 -0.0245 -0.0280  0.1101
12015CHOL    C265813  21.995  12.171  10.285 -0.1214  0.1355  0.0376
12016CHOL   ROH65814  18.049  25.414  14.469  0.1149  0.0670 -0.1929
12016CHOL    R165815  18.296  25.484  14.586  0.0727  0.0803 -0.1114
12016CHOL    R265816  18.397  25.741  14.579  0.0551  0.0889 -0.0672
12016CHOL    R365817  18.411  25.708  14.849 -0.0275  0.0768 -0.0644
12016CHOL    R465818  18.616  25.909  14.787 -0.0029  0.0725  0.0075
12016CHOL    R565819  18.644  25.724  14.899 -0.0427  0.0671  0.0079
12016CHOL    C165820  18.756  25.977  15.162 -0.1145  0.0510  0.0538
12016CHOL    C265821  18.994  26.258  15.003 -0.0223  0.1953 -0.2169
12017CHOL   ROH65822  32.885  32.607   8.094  0.0894  0.0453  0.0747
12017CHOL    R165823  32.680  32.798   8.130  0.0526  0.0141  0.0265
12017CHOL    R265824  32.452  32.745   8.275  0.0208 -0.0243 -0.0366
12017CHOL    R365825  32.525  32.969   8.412 -0.0484 -0.0178 -0.0091
12017CHOL    R465826  32.278  32.879   8.543 -0.0683 -0.0595 -0.0765
12017CHOL    R565827  32.318  33.078   8.462 -0.0778 -0.0507 -0.0587
12017CHOL    C165828  32.246  33.167   8.826 -0.1848 -0.0751 -0.0737
12017CHOL    C265829  32.092  33.325   9.142 -0.1258 -0.1551 -0.1129
12018CHOL   ROH65830  23.107  13.319  10.719  0.2101 -0.1859  0.0387
12018CHOL    R165831  22.859  13.304  10.584  0.2117 -0.0563  0.0199
12018CHOL    R265832  22.620  13.370  10.705  0.2070 -0.1931  0.0882
12018CHOL    R365833  22.594  13.535  10.490  0.2022  0.0310  0.2593
12018CHOL    R465834  22.321  13.449  10.549  0.2359 -0.2614 -0.0021
12018CHOL    R565835  22.422  13.434  10.357  0.3639  0.0400  0.0409
12018CHOL    C165836  22.123  13.649  10.258  0.2481 -0.0905  0.1057
12018CHOL    C265837  21.907  13.643   9.931  0.2523 -0.3067 -0.1747
12019CHOL   ROH65838   7.410  20.009  14.511  0.1703  0.1118  0.3830
12019CHOL    R165839   7.233  19.971  14.729  0.0741 -0.0139  0.2835
12019CHOL    R265840   7.006  20.123  14.764  0.0461 -0.0516  0.2578
12019CHOL    R365841   6.883  19.881  14.773  0.0608 -0.0658  0.0796
12019CHOL    R465842   6.678  20.071  14.861  0.0524 -0.1423  0.2310
12019CHOL    R565843   6.743  19.892  14.967  0.0672 -0.2195  0.0943
12019CHOL    C165844   6.372  19.813  14.925  0.0697 -0.2088  0.0480
12019CHOL    C265845   6.094  19.736  14.613 -0.0525 -0.2746 -0.0980
12020CHOL   ROH65846   3.459   7.840  14.702  0.3606  0.2672 -0.0857
12020CHOL    R165847   3.735   7.815  14.642  0.3675  0.0733  0.0212
12020CHOL    R265848   3.891   7.612  14.744  0.1459 -0.1413 -0.0588
12020CHOL    R365849   3.950   7.569  14.482  0.2256  0.0055 -0.0659
12020CHOL    R465850   4.190   7.484  14.627  0.1239 -0.2209 -0.0281
12020CHOL    R565851   4.181   7.627  14.462  0.2646 -0.1042  0.0648
12020CHOL    C165852   4.419   7.369  14.313  0.1859 -0.1294 -0.0168
12020CHOL    C265853   4.702   7.373  13.992 -0.1459  0.2679  0.0192
12021CHOL   ROH65854   2.870  18.183  10.809  0.1254  0.0735 -0.0654
12021CHOL    R165855   3.153  18.180  10.792  0.1348  0.0807  0.0809
12021CHOL    R265856   3.304  17.960  10.866  0.0941  0.0391  0.0409
12021CHOL    R365857   3.405  17.986  10.615  0.2258  0.1746  0.1068
12021CHOL    R465858   3.594  17.809  10.753 -0.1117 -0.3061 -0.0324
12021CHOL    R565859   3.642  17.993  10.647  0.2301 -0.2539  0.2041
12021CHOL    C165860   3.857  17.745  10.452 -0.1079 -0.3794 -0.0134
12021CHOL    C265861   4.083  17.592  10.215  0.0236 -0.1714 -0.1133
12022CHOL   ROH65862  31.047  31.181   7.187  0.0589 -0.1698  0.1077
12022CHOL    R165863  31.187  31.329   7.384  0.1600 -0.2254  0.0782
12022CHOL    R265864  31.061  31.504   7.556  0.3052  0.0352 -0.0777
12022CHOL    R365865  31.182  31.355   7.747  0.0392 -0.0055  0.0616
12022CHOL    R465866  31.110  31.605   7.883  0.2613  0.1509 -0.1062
12022CHOL    R565867  31.308  31.513   7.875  0.1602 -0.0826  0.0382
12022CHOL    C165868  31.253  31.522   8.253 -0.0140  0.1798  0.0078
12022CHOL    C265869  31.511  31.581   8.497  0.1403 -0.0300  0.1331
12023CHOL   ROH65870   5.406  23.004  18.505  0.0923 -0.0588 -0.0985
12023CHOL    R165871   5.655  23.073  18.390  0.1084 -0.1242 -0.1028
12023CHOL    R265872   5.701  23.065  18.118  0.0454  0.0419 -0.1187
12023CHOL    R365873   5.778  23.323  18.156  0.2049 -0.0300  0.0476
12023CHOL    R465874   5.993  23.204  17.995  0.0234 -0.0006 -0.2195
12023CHOL    R565875   6.016  23.310  18.184  0.2207 -0.1762 -0.1434
12023CHOL    C165876   6.235  23.527  17.960  0.1604 -0.0929 -0.1222
12023CHOL    C265877   6.541  23.440  17.789  0.1409 -0.0730  0.0589
12024CHOL   ROH65878  34.896  13.721   6.687 -0.2108  0.0910 -0.0324
12024CHOL    R165879  35.094  13.598   6.527 -0.1137  0.0981  0.0810
12024CHOL    R265880  35.032  13.420   6.325  0.0169 -0.0130  0.1378
12024CHOL    R365881  35.181  13.590   6.173 -0.0035 -0.0203  0.1105
12024CHOL    R465882  35.229  13.325   6.057 -0.1202 -0.0085  0.0355
12024CHOL    R565883  35.380  13.467   6.124 -0.0553 -0.0615  0.0012
12024CHOL    C165884   0.097  13.430   5.758 -0.2184 -0.0126 -0.0498
12024CHOL    C265885   0.293  13.179   5.791  0.1398 -0.1832 -0.0960
12025CHOL   ROH65886   3.526  27.852  17.737  0.0131 -0.1765 -0.0806
12025CHOL    R165887   3.681  27.823  17.502  0.2698 -0.1459  0.0835
12025CHOL    R265888   3.678  28.008  17.298 -0.0325 -0.4536 -0.1967
12025CHOL    R365889   3.947  28.009  17.336 -0.0542  0.2675  0.0198
12025CHOL    R465890   3.912  28.084  17.055 -0.0220 -0.5787 -0.2260
12025CHOL    R565891   4.036  27.922  17.132  0.2988 -0.0954  0.3178
12025CHOL    C165892   4.301  28.129  16.950 -0.0362  0.0251 -0.0400
12025CHOL    C265893   4.615  27.914  16.798 -0.0366 -0.0741  0.3748
12026CHOL   ROH65894  27.467   8.082   6.505 -0.1354  0.2458 -0.1093
12026CHOL    R165895  27.263   8.004   6.326 -0.1141  0.0720 -0.0583
12026CHOL    R265896  27.312   7.950   6.059 -0.1628  0.2768 -0.1102
12026CHOL    R365897  27.191   7.714   6.117  0.1743  0.0850 -0.1779
12026CHOL    R465898  27.126   7.763   5.836 -0.2907  0.3129 -0.0344
12026CHOL    R565899  26.984   7.721   5.996 -0.0130 -0.0066  0.1318
12026CHOL    C165900  26.904   7.432   5.761 -0.0483  0.1540 -0.0541
12026CHOL    C265901  26.768   7.472   5.284  0.0737 -0.0643 -0.3402
12027CHOL   ROH65902  27.142   0.111   6.886 -0.2018 -0.1815 -0.1064
12027CHOL    R165903  27.272  35.356   7.094 -0.1488 -0.1469 -0.1154
12027CHOL    R265904  27.168  35.336   7.348 -0.0134  0.0186 -0.0446
12027CHOL    R365905  27.198  35.069   7.306 -0.1621 -0.0152  0.0582
12027CHOL    R465906  27.278  35.109   7.585  0.0914  0.0862 -0.0287
12027CHOL    R565907  27.395  35.011   7.430 -0.0822 -0.0378 -0.0805
12027CHOL    C165908  27.371  34.727   7.683  0.0124  0.0939  0.0770
12027CHOL    C265909  27.370  34.508   7.978 -0.6662  0.1543 -0.1002
12028CHOL   ROH65910  23.099  30.786  10.494  0.1021  0.0440 -0.0271
12028CHOL    R165911  22.972  30.653  10.279 -0.1408  0.1478  0.0499
12028CHOL    R265912  22.768  30.769  10.132  0.0195  0.4083  0.0298
12028CHOL    R365913  22.930  30.710   9.921 -0.1023  0.0576  0.0307
12028CHOL    R465914  22.661  30.728   9.806 -0.0946  0.4467  0.0622
12028CHOL    R565915  22.800  30.561   9.786 -0.3658  0.2102  0.1111
12028CHOL    C165916  22.750  30.648   9.419 -0.2753  0.1403  0.0818
12028CHOL    C265917  22.852  30.623   9.014 -0.0358  0.1173  0.1196
12029CHOL   ROH65918  24.633  12.639   3.164  0.1436  0.1051  0.0556
12029CHOL    R165919  24.830  12.657   3.367  0.1991  0.0881  0.0030
12029CHOL    R265920  25.061  12.805   3.338  0.1362  0.1853 -0.0030
12029CHOL    R365921  24.978  12.920   3.570  0.1651  0.0538  0.0730
12029CHOL    R465922  25.269  12.956   3.568  0.1451  0.2188 -0.0331
12029CHOL    R565923  25.150  12.866   3.727  0.2604  0.0931 -0.0169
12029CHOL    C165924  25.312  13.152   3.921  0.1777  0.1147  0.0208
12029CHOL    C265925  25.482  13.575   4.103 -0.0989 -0.4259 -0.1567
12030CHOL   ROH65926  34.957  25.213   4.102  0.0457  0.3005  0.1145
12030CHOL    R165927  34.868  25.212   4.371  0.0397  0.1343  0.1122
12030CHOL    R265928  34.673  25.039   4.462  0.0105  0.1030 -0.0066
12030CHOL    R365929  34.862  24.973   4.646 -0.0032 -0.0494 -0.0473
12030CHOL    R465930  34.606  24.942   4.787  0.0069  0.2655  0.0414
12030CHOL    R565931  34.777  25.061   4.852  0.1556  0.0998 -0.0454
12030CHOL    C165932  34.745  24.824   5.149 -0.0085  0.2171  0.0312
12030CHOL    C265933  34.615  24.766   5.411  0.0171  0.3053 -0.0835
12031CHOL   ROH65934   7.521  24.234  20.840 -0.2904  0.0355  0.0490
12031CHOL    R165935   7.732  24.136  20.679 -0.1498  0.2510  0.1001
12031CHOL    R265936   7.704  23.915  20.514  0.1485  0.1526  0.1773
12031CHOL    R365937   7.793  24.087  20.323 -0.0614  0.2007  0.1219
12031CHOL    R465938   7.835  23.820  20.209  0.0192  0.2237  0.0992
12031CHOL    R565939   7.984  23.978  20.229 -0.0562  0.3073  0.0084
12031CHOL    C165940   7.994  23.926  19.851 -0.2531  0.3105  0.0024
12031CHOL    C265941   8.216  23.828  19.663 -0.3319 -0.2233  0.0218
12032CHOL   ROH65942   2.512   8.814  13.277 -0.0988 -0.3021 -0.1410
12032CHOL    R165943   2.635   8.732  13.035 -0.0679 -0.2144 -0.1552
12032CHOL    R265944   2.672   8.904  12.822 -0.2058 -0.1843 -0.1554
12032CHOL    R365945   2.931   8.824  12.845 -0.1488 -0.0098 -0.1836
12032CHOL    R465946   2.910   8.934  12.573 -0.3256 -0.2830 -0.2824
12032CHOL    R565947   2.985   8.736  12.629 -0.1865 -0.1868 -0.1220
12032CHOL    C165948   3.292   8.876  12.450 -0.3418 -0.1766 -0.3829
12032CHOL    C265949   3.474   8.666  12.256 -0.4350  0.1439  0.3435
12033CHOL   ROH65950  15.082   4.861  13.501 -0.1333  0.0200 -0.0502
12033CHOL    R165951  15.106   4.998  13.748 -0.0519 -0.0369 -0.0266
12033CHOL    R265952  15.033   4.884  13.989  0.0272 -0.0910 -0.0314
12033CHOL    R365953  15.287   4.952  14.060  0.0502 -0.1075 -0.0950
12033CHOL    R465954  15.127   4.999  14.301  0.1299 -0.2236 -0.0126
12033CHOL    R565955  15.259   5.141  14.204  0.0876 -0.1704 -0.0002
12033CHOL    C165956  15.419   5.129  14.550  0.2112 -0.3164 -0.0611
12033CHOL    C265957  15.355   5.395  14.784 -0.0057  0.0334 -0.0507
12034CHOL   ROH65958  30.511  33.940  10.637  0.0802  0.0083  0.1079
12034CHOL    R165959  30.709  33.880  10.443  0.0134 -0.0843  0.0676
12034CHOL    R265960  30.718  33.639  10.309 -0.1619 -0.0662  0.0216
12034CHOL    R365961  30.716  33.798  10.089 -0.0926 -0.0239  0.0514
12034CHOL    R465962  30.846  33.550  10.001 -0.1316 -0.0351  0.0253
12034CHOL    R565963  30.925  33.753   9.981 -0.0849 -0.0484  0.0765
12034CHOL    C165964  30.919  33.648   9.614 -0.0485  0.0218  0.0556
12034CHOL    C265965  31.224  33.785   9.467  0.1970  0.0737  0.2401
12035CHOL   ROH65966  31.782   4.983  10.151  0.0967  0.1618  0.0326
12035CHOL    R165967  31.767   4.880   9.888  0.0204  0.1321  0.0488
12035CHOL    R265968  31.807   5.037   9.665  0.0747  0.0809  0.0231
12035CHOL    R365969  31.991   4.847   9.604 -0.0237 -0.0174  0.0310
12035CHOL    R465970  31.927   4.973   9.347  0.1860  0.1380  0.0530
12035CHOL    R565971  31.919   4.760   9.392  0.0198  0.1225 -0.0423
12035CHOL    C165972  32.169   4.757   9.105  0.1578  0.0790  0.0779
12035CHOL    C265973  32.255   4.793   8.845 -0.0733  0.1545 -0.1286
12036CHOL   ROH65974   9.588  31.835  20.558  0.0144  0.1948 -0.1671
12036CHOL    R165975   9.607  31.671  20.328  0.1211  0.1923 -0.1575
12036CHOL    R265976   9.392  31.526  20.231  0.2585 -0.0869 -0.0522
12036CHOL    R365977   9.449  31.657  20.000 -0.0022 -0.0378 -0.0889
12036CHOL    R465978   9.366  31.389  19.915  0.2447 -0.1295 -0.0320
12036CHOL    R565979   9.551  31.492  19.861  0.1059  0.0668 -0.1326
12036CHOL    C165980   9.403  31.433  19.514 -0.0080 -0.1090 -0.0550
12036CHOL    C265981   9.245  31.214  19.216 -0.1769 -0.1339 -0.2164
12037CHOL   ROH65982  11.118  14.335  17.416 -0.0458  0.2880 -0.1561
12037CHOL    R165983  11.098  14.309  17.135 -0.0012  0.2500 -0.1554
12037CHOL    R265984  11.122  14.524  16.964  0.0395  0.2236 -0.1803
12037CHOL    R365985  11.314  14.369  16.848  0.0488  0.1968 -0.1296
12037CHOL    R465986  11.209  14.533  16.629 -0.1157 -0.0347 -0.2285
12037CHOL    R565987  11.225  14.315  16.633 -0.0291 -0.0278 -0.0441
12037CHOL    C165988  11.438  14.392  16.326 -0.1975 -0.2102 -0.2090
12037CHOL    C265989  11.547  14.085  16.240 -0.1078 -0.0670  0.3472
12038CHOL   ROH65990   2.777  33.688  12.534  0.0740 -0.2710 -0.0740
12038CHOL    R165991   2.691  33.832  12.762  0.1001 -0.1194 -0.1599
12038CHOL    R265992   2.429  33.910  12.799  0.0967 -0.1278 -0.1630
12038CHOL    R365993   2.457  33.780  13.036  0.1620  0.0450 -0.0751
12038CHOL    R465994   2.190  33.901  13.049  0.1045 -0.0751 -0.1534
12038CHOL    R565995   2.350  33.923  13.196  0.0950  0.1007 -0.1700
12038CHOL    C165996   2.078  33.773  13.417  0.1704  0.1179 -0.0654
12038CHOL    C265997   1.963  33.843  13.779 -0.1227  0.0950 -0.0572
12039CHOL   ROH65998   2.138  30.454  11.735 -0.0649  0.0145 -0.0171
12039CHOL    R165999   1.877  30.517  11.825 -0.0622 -0.0065  0.0054
12039CHOL    R266000   1.703  30.325  11.919 -0.0112 -0.0095  0.0930
12039CHOL    R366001   1.691  30.489  12.136 -0.0069  0.0554  0.0443
12039CHOL    R466002   1.412  30.415  12.083  0.0168 -0.1770  0.2354
12039CHOL    R566003   1.491  30.617  12.103 -0.1259 -0.1083  0.1188
12039CHOL    C166004   1.232  30.621  12.382  0.0371 -0.2132  0.2729
12039CHOL    C266005   1.085  30.890  12.657 -0.0566  0.1270 -0.2802
12040CHOL   ROH66006   9.153   5.361  15.744  0.0293 -0.2266 -0.0010
12040CHOL    R166007   9.217   5.322  16.017  0.0438 -0.0986  0.0141
12040CHOL    R266008   9.354   5.510  16.166 -0.1074  0.0502 -0.0330
12040CHOL    R366009   9.140   5.487  16.332 -0.0996 -0.0647 -0.0387
12040CHOL    R466010   9.369   5.526  16.510 -0.0963 -0.1659 -0.0229
12040CHOL    R566011   9.224   5.364  16.520 -0.0875 -0.1784 -0.1190
12040CHOL    C166012   9.178   5.513  16.868 -0.0823 -0.3996 -0.0223
12040CHOL    C266013   9.306   5.629  17.205 -0.1623 -0.0047  0.3774
12041CHOL   ROH66014  32.869  22.789   4.684 -0.1625 -0.2743 -0.2025
12041CHOL    R166015  33.047  22.980   4.575 -0.1736 -0.1581 -0.0193
12041CHOL    R266016  33.254  22.910   4.405  0.0077 -0.0164  0.1422
12041CHOL    R366017  33.140  23.095   4.242  0.0451 -0.0497  0.0776
12041CHOL    R466018  33.414  23.066   4.142  0.0908 -0.0204  0.1895
12041CHOL    R566019  33.315  23.252   4.199  0.0401 -0.0284  0.1314
12041CHOL    C166020  33.400  23.331   3.835  0.1735 -0.0546  0.1564
12041CHOL    C266021  33.371  23.629   3.683  0.0039  0.1523 -0.0846
12042CHOL   ROH66022  18.719  35.086  10.279  0.0040 -0.2477  0.1073
12042CHOL    R166023  18.856  35.315  10.374  0.1501 -0.2132 -0.1849
12042CHOL    R266024  18.819   0.031  10.628  0.0349  0.2748 -0.3928
12042CHOL    R366025  19.089   0.007  10.642  0.0015  0.0326 -0.1233
12042CHOL    R466026  19.013   0.137  10.893 -0.1381  0.0976 -0.1933
12042CHOL    R566027  19.162   0.208  10.750  0.0711 -0.0306 -0.0466
12042CHOL    C166028  19.380   0.176  11.061 -0.2706 -0.2328  0.1760
12042CHOL    C266029  19.302   0.063  11.357  0.2513 -0.1919  0.2666
12043CHOL   ROH66030  22.070  11.761  13.173 -0.0914 -0.0677 -0.0461
12043CHOL    R166031  21.904  11.587  13.025  0.0431 -0.1241 -0.1308
12043CHOL    R266032  21.753  11.673  12.810 -0.0123 -0.1382 -0.0972
12043CHOL    R366033  21.883  11.473  12.680  0.1409  0.0151 -0.1837
12043CHOL    R466034  21.668  11.554  12.497 -0.1797 -0.3426  0.0247
12043CHOL    R566035  21.709  11.352  12.568  0.1930 -0.2685  0.0367
12043CHOL    C166036  21.741  11.296  12.192 -0.1335 -0.3176  0.0144
12043CHOL    C266037  21.538  10.989  12.193  0.0908  0.0897  0.2384
12044CHOL   ROH66038  25.321  30.022   6.200  0.1334  0.3732 -0.0079
12044CHOL    R166039  25.453  29.861   6.392 -0.0036  0.1577 -0.0917
12044CHOL    R266040  25.585  29.968   6.610  0.2327 -0.0595 -0.1269
12044CHOL    R366041  25.424  29.799   6.749  0.0601  0.1318 -0.0907
12044CHOL    R466042  25.624  29.890   6.944  0.2785 -0.1842 -0.1608
12044CHOL    R566043  25.573  29.683   6.896 -0.0303 -0.1076 -0.1833
12044CHOL    C166044  25.495  29.686   7.270  0.1434 -0.0767 -0.1466
12044CHOL    C266045  25.672  29.440   7.583  0.2696  0.2329 -0.1479
12045CHOL   ROH66046  34.938  30.049  13.789  0.0035 -0.0438 -0.1751
12045CHOL    R166047  35.212  29.983  13.818 -0.0004 -0.0776 -0.2089
12045CHOL    R266048   0.022  30.081  13.650  0.0330  0.1631 -0.0322
12045CHOL    R366049   0.137  30.162  13.882 -0.0182 -0.1570  0.1069
12045CHOL    R466050   0.348  30.193  13.681 -0.0343  0.3092  0.1547
12045CHOL    R566051   0.362  30.082  13.869  0.0307  0.0011 -0.0275
12045CHOL    C166052   0.645  30.334  13.918 -0.1216  0.0936  0.3944
12045CHOL    C266053   0.981  30.349  14.092  0.1861 -0.3187  0.0655
12046CHOL   ROH66054  12.055  30.735  17.311  0.3853  0.0633 -0.2151
12046CHOL    R166055  11.946  30.823  17.558  0.2391  0.0870 -0.2874
12046CHOL    R266056  12.035  30.728  17.801 -0.0005  0.0065 -0.2299
12046CHOL    R366057  12.069  30.992  17.855  0.0971 -0.0180 -0.1684
12046CHOL    R466058  12.095  30.860  18.115 -0.1192 -0.0719 -0.1736
12046CHOL    R566059  11.961  31.024  18.067 -0.0109  0.0010 -0.2262
12046CHOL    C166060  12.162  31.184  18.349 -0.0967 -0.1409 -0.0834
12046CHOL    C266061  12.132  31.473  18.628  0.1564  0.1726 -0.2278
12047CHOL   ROH66062   6.523  31.859  19.531  0.2125 -0.0076  0.1305
12047CHOL    R166063   6.583  31.684  19.317 -0.0871 -0.1099  0.1282
12047CHOL    R266064   6.402  31.627  19.116 -0.2157  0.1360  0.1721
12047CHOL    R366065   6.605  31.707  18.955 -0.1352 -0.1663  0.1216
12047CHOL    R466066   6.404  31.595  18.772 -0.3024  0.0410  0.1801
12047CHOL    R566067   6.614  31.539  18.784 -0.3722 -0.2243  0.1652
12047CHOL    C166068   6.597  31.651  18.420 -0.2773 -0.2979  0.1375
12047CHOL    C266069   6.699  31.480  18.069  0.0074  0.3280 -0.1016
12048CHOL   ROH66070   0.649   0.636  10.095  0.1722 -0.0372 -0.1336
12048CHOL    R166071   0.454   0.562  10.286  0.1450 -0.1038 -0.1864
12048CHOL    R266072   0.519   0.451  10.530  0.1252  0.0520 -0.1084
12048CHOL    R366073   0.369   0.656  10.627 -0.0743 -0.0187 -0.2635
12048CHOL    R466074   0.314   0.432  10.808  0.1855  0.0786 -0.0620
12048CHOL    R566075   0.167   0.552  10.701  0.0442 -0.1658 -0.1446
12048CHOL    C166076   0.054   0.613  11.060  0.0334  0.0277 -0.1804
12048CHOL    C266077  35.169   0.787  11.356 -0.0748  0.1378 -0.4707
12049CHOL   ROH66078   5.219  28.860  15.505  0.0758 -0.2474  0.0843
12049CHOL    R166079   5.163  28.740  15.755 -0.0051 -0.2901  0.0459
12049CHOL    R266080   5.116  28.888  15.984  0.0497 -0.3309  0.0834
12049CHOL    R366081   4.887  28.742  15.993 -0.0249 -0.2196  0.0231
12049CHOL    R466082   4.916  28.852  16.263  0.0358 -0.3504  0.0710
12049CHOL    R566083   4.890  28.642  16.211 -0.0717 -0.3151 -0.0195
12049CHOL    C166084   4.585  28.694  16.435 -0.0426 -0.2572  0.0071
12049CHOL    C266085   4.467  28.674  16.855 -0.0585  0.1172  0.3704
12050CHOL   ROH66086  27.236   4.038   6.339 -0.0264 -0.1535  0.0652
12050CHOL    R166087  27.288   4.251   6.518  0.0921 -0.1478  0.0241
12050CHOL    R266088  27.109   4.327   6.714  0.1560 -0.0422  0.0397
12050CHOL    R366089  27.323   4.291   6.878  0.1667 -0.1057  0.0125
12050CHOL    R466090  27.109   4.384   7.055  0.2659  0.1389  0.0106
12050CHOL    R566091  27.308   4.471   7.036  0.3239 -0.0096 -0.0784
12050CHOL    C166092  27.310   4.383   7.407  0.3393  0.1847 -0.0319
12050CHOL    C266093  27.453   4.694   7.536 -0.0848  0.2352 -0.1652
12051CHOL   ROH66094  21.597   4.247   9.134 -0.1341 -0.1346  0.0341
12051CHOL    R166095  21.666   4.356   9.386 -0.0795  0.0315 -0.0516
12051CHOL    R266096  21.709   4.199   9.610 -0.2485  0.1924  0.0965
12051CHOL    R366097  21.946   4.331   9.617 -0.1357 -0.0039  0.0129
12051CHOL    R466098  21.884   4.273   9.898 -0.2174  0.2844  0.0541
12051CHOL    R566099  21.932   4.468   9.813 -0.0406  0.1729 -0.1039
12051CHOL    C166100  22.210   4.440  10.073 -0.0940  0.1536 -0.0490
12051CHOL    C266101  22.430   4.361  10.382 -0.0437  0.2745  0.0174
12052CHOL   ROH66102  15.464  15.792  15.213  0.4135 -0.2132 -0.1311
12052CHOL    R166103  15.593  15.635  15.409  0.2436 -0.2314 -0.0320
12052CHOL    R266104  15.534  15.654  15.678  0.2414 -0.0199 -0.0466
12052CHOL    R366105  15.495  15.386  15.656 -0.0227  0.0042  0.1024
12052CHOL    R466106  15.626  15.421  15.916  0.1399  0.0072  0.0196
12052CHOL    R566107  15.691  15.290  15.755 -0.0644 -0.1327  0.0508
12052CHOL    C166108  15.644  15.034  16.034 -0.1674  0.0455  0.1978
12052CHOL    C266109  15.861  14.727  16.146  0.0896 -0.2742 -0.3143
12053CHOL   ROH66110   3.209  10.967  13.041 -0.1134  0.3924 -0.0550
12053CHOL    R166111   3.397  11.027  12.838 -0.1032  0.2709 -0.0819
12053CHOL    R266112   3.669  10.991  12.871 -0.1076  0.2552 -0.0604
12053CHOL    R366113   3.645  10.844  12.644 -0.1218  0.1467  0.0112
12053CHOL    R466114   3.919  10.948  12.636 -0.0458 -0.0479  0.0587
12053CHOL    R566115   3.768  10.967  12.480  0.0276 -0.0291 -0.0099
12053CHOL    C166116   4.041  10.785  12.286 -0.0232 -0.3262  0.1951
12053CHOL    C266117   4.133  11.035  12.144 -0.3313  0.1504  0.1509
12054CHOL   ROH66118   9.839  29.931  20.683  0.0811 -0.1820 -0.0374
12054CHOL    R166119   9.854  29.881  20.405  0.1285 -0.0761 -0.0542
12054CHOL    R266120   9.630  29.848  20.247  0.1554 -0.0244 -0.1032
12054CHOL    R366121   9.745  30.045  20.100  0.1722  0.0357 -0.0098
12054CHOL    R466122   9.576  29.899  19.910 -0.0221  0.2813 -0.0298
12054CHOL    R566123   9.788  29.944  19.887 -0.0106  0.1856 -0.1207
12054CHOL    C166124   9.652  30.115  19.575 -0.1096  0.5154  0.1008
12054CHOL    C266125   9.401  30.398  19.411 -0.0994  0.0386  0.1809
12055CHOL   ROH66126  13.235  20.059  16.773  0.1149  0.0324 -0.0630
12055CHOL    R166127  13.334  20.013  17.034  0.1987 -0.0008 -0.1001
12055CHOL    R266128  13.169  19.988  17.254  0.2823  0.2274 -0.0105
12055CHOL    R366129  13.302  19.753  17.287  0.0583  0.0989 -0.0161
12055CHOL    R466130  13.243  19.844  17.559  0.3143  0.2476 -0.0084
12055CHOL    R566131  13.439  19.789  17.480  0.2113  0.0189 -0.1083
12055CHOL    C166132  13.411  19.540  17.768  0.1231  0.1385 -0.0131
12055CHOL    C266133  13.544  19.381  18.148 -0.3269 -0.1444  0.0037
12056CHOL   ROH66134  11.442  26.388  18.739  0.0980 -0.2839 -0.0252
12056CHOL    R166135  11.498  26.575  18.943  0.1556 -0.2296 -0.0900
12056CHOL    R266136  11.306  26.665  19.120  0.1515 -0.0062 -0.2052
12056CHOL    R366137  11.485  26.582  19.307  0.0189 -0.0521 -0.0978
12056CHOL    R466138  11.283  26.730  19.459 -0.0185  0.0206 -0.2214
12056CHOL    R566139  11.498  26.764  19.462 -0.0103 -0.0479 -0.1009
12056CHOL    C166140  11.438  26.690  19.831 -0.2419 -0.0066 -0.1304
12056CHOL    C266141  11.334  26.503  20.060  0.2346  0.2804 -0.1005
12057CHOL   ROH66142  28.742   3.031   8.340  0.0823 -0.1174 -0.2999
12057CHOL    R166143  28.487   3.049   8.219 -0.1537 -0.1590  0.1792
12057CHOL    R266144  28.274   3.179   8.339  0.2288  0.3774  0.2985
12057CHOL    R366145  28.267   3.315   8.104 -0.1019 -0.2134 -0.0465
12057CHOL    R466146  28.030   3.408   8.251  0.2874  0.4053  0.2081
12057CHOL    R566147  28.034   3.326   8.049 -0.2069 -0.1201  0.3986
12057CHOL    C166148  27.881   3.669   7.979  0.0114 -0.1331 -0.1681
12057CHOL    C266149  27.568   3.556   7.648  0.0988 -0.2984 -0.1698
12058CHOL   ROH66150  12.619   2.932  17.474  0.1286 -0.2558 -0.2180
12058CHOL    R166151  12.493   2.815  17.250 -0.1405 -0.1276 -0.1366
12058CHOL    R266152  12.239   2.708  17.262 -0.2083  0.0424  0.0550
12058CHOL    R366153  12.193   2.876  17.053 -0.2651  0.1168  0.1280
12058CHOL    R466154  11.975   2.679  17.041  0.0540 -0.2115 -0.2293
12058CHOL    R566155  12.112   2.733  16.879  0.1299  0.1147 -0.0551
12058CHOL    C166156  11.778   2.821  16.716  0.1534 -0.2895 -0.3262
12058CHOL    C266157  11.327   3.005  16.649  0.0647  0.1397 -0.0367
12059CHOL   ROH66158   1.569  13.094   4.797 -0.2019 -0.1575 -0.0008
12059CHOL    R166159   1.485  12.862   4.936 -0.2208 -0.1257  0.0398
12059CHOL    R266160   1.633  12.750   5.141 -0.2088 -0.1264  0.0280
12059CHOL    R366161   1.401  12.776   5.279 -0.1822 -0.0710  0.0636
12059CHOL    R466162   1.546  12.562   5.418 -0.1078  0.0547  0.1844
12059CHOL    R566163   1.343  12.552   5.340 -0.1249 -0.0401  0.2383
12059CHOL    C166164   1.277  12.477   5.709 -0.0240  0.2120  0.3090
12059CHOL    C266165   1.047  12.536   5.896  0.1246 -0.0698 -0.1304
12060CHOL   ROH66166   1.085  15.010   8.630  0.0711  0.1035 -0.0334
12060CHOL    R166167   1.356  14.937   8.593  0.0517  0.0687 -0.1072
12060CHOL    R266168   1.432  14.688   8.502 -0.0063  0.0658 -0.1464
12060CHOL    R366169   1.566  14.833   8.315 -0.0322  0.0618 -0.1686
12060CHOL    R466170   1.722  14.586   8.344  0.0417  0.1165 -0.0916
12060CHOL    R566171   1.797  14.790   8.361 -0.0233  0.1448 -0.1337
12060CHOL    C166172   2.017  14.663   8.076  0.0454  0.1422 -0.0801
12060CHOL    C266173   2.388  14.662   7.965  0.0171 -0.0446 -0.1375
12061CHOL   ROH66174   6.965  15.890  16.796 -0.0475 -0.1490  0.0463
12061CHOL    R166175   7.168  15.960  16.612 -0.1365  0.1205  0.0494
12061CHOL    R266176   7.282  15.778  16.439  0.3525  0.1852  0.2940
12061CHOL    R366177   7.210  15.960  16.251 -0.0008 -0.1822  0.0628
12061CHOL    R466178   7.406  15.789  16.117  0.3191  0.0109  0.2741
12061CHOL    R566179   7.413  16.006  16.132 -0.0878  0.0490 -0.0004
12061CHOL    C166180   7.411  15.967  15.753 -0.0321 -0.4355  0.0455
12061CHOL    C266181   7.386  15.735  15.429  0.0411 -0.0155 -0.0523
12062CHOL   ROH66182   0.025   8.002  10.499  0.0999  0.1202 -0.1483
12062CHOL    R166183   0.043   7.925  10.228 -0.0134 -0.1448 -0.0823
12062CHOL    R266184   0.268   7.971  10.075 -0.1603 -0.0865 -0.2843
12062CHOL    R366185   0.252   7.703  10.029  0.0626 -0.1519  0.0055
12062CHOL    R466186   0.443   7.802   9.829 -0.3304 -0.1398 -0.3689
12062CHOL    R566187   0.264   7.683   9.791 -0.2597 -0.3746  0.0058
12062CHOL    C166188   0.529   7.453   9.642 -0.2202 -0.2323 -0.1462
12062CHOL    C266189   0.796   7.184   9.511  0.1986 -0.0008 -0.0996
12063CHOL   ROH66190  29.208   0.788   9.840 -0.1442  0.1143 -0.1044
12063CHOL    R166191  29.305   0.949   9.629 -0.2142  0.0685 -0.1721
12063CHOL    R266192  29.506   0.867   9.459 -0.0139  0.1763  0.0101
12063CHOL    R366193  29.325   0.927   9.266  0.0237 -0.1907 -0.1453
12063CHOL    R466194  29.584   1.001   9.150 -0.0265  0.4202  0.1121
12063CHOL    R566195  29.408   1.129   9.167 -0.3359  0.0235 -0.0209
12063CHOL    C166196  29.458   1.137   8.789  0.0018  0.2178  0.0255
12063CHOL    C266197  29.281   1.376   8.478  0.0082 -0.2649  0.3307
12064CHOL   ROH66198   2.884  26.239  10.983  0.2956 -0.1772  0.2503
12064CHOL    R166199   2.751  26.022  10.858  0.1778 -0.0265  0.1129
12064CHOL    R266200   2.675  25.795  10.995  0.1229 -0.1054 -0.0463
12064CHOL    R366201   2.430  25.854  10.891  0.1195  0.0743  0.0616
12064CHOL    R466202   2.404  25.580  10.992  0.0645 -0.0309 -0.2345
12064CHOL    R566203   2.357  25.649  10.791  0.0461  0.2028 -0.1511
12064CHOL    C166204   2.017  25.510  10.893  0.0274  0.1812 -0.2428
12064CHOL    C266205   1.722  25.532  11.272 -0.0587 -0.0298  0.1976
12065CHOL   ROH66206  32.805   2.886   7.657  0.0075 -0.0147 -0.0187
12065CHOL    R166207  32.790   2.891   7.940 -0.0748 -0.0144 -0.0230
12065CHOL    R266208  32.793   3.125   8.085  0.0208 -0.0211 -0.0161
12065CHOL    R366209  32.563   3.025   8.191 -0.0706  0.1121 -0.0861
12065CHOL    R466210  32.630   3.255   8.361  0.4154 -0.3570  0.3836
12065CHOL    R566211  32.591   3.051   8.427  0.1347 -0.4503 -0.0398
12065CHOL    C166212  32.319   3.237   8.621  0.5597 -0.4277  0.5505
12065CHOL    C266213  32.047   3.294   8.877  0.1782 -0.0272 -0.1396
12066CHOL   ROH66214  21.494  16.714   5.673 -0.0501  0.2113  0.1577
12066CHOL    R166215  21.643  16.618   5.895 -0.0788  0.2159  0.1788
12066CHOL    R266216  21.875  16.471   5.866 -0.2401 -0.0473  0.2087
12066CHOL    R366217  21.979  16.664   6.027  0.0127 -0.0374  0.0378
12066CHOL    R466218  22.201  16.477   5.981 -0.1713 -0.2590  0.0300
12066CHOL    R566219  22.126  16.545   6.175 -0.0111 -0.0763  0.0313
12066CHOL    C166220  22.488  16.662   6.200  0.1056 -0.3731 -0.2342
12066CHOL    C266221  22.775  16.349   6.335  0.0000 -0.0776  0.2500
12067CHOL   ROH66222  23.285  33.802   7.348 -0.0890 -0.1771 -0.0906
12067CHOL    R166223  23.415  33.771   7.598 -0.0523 -0.0229 -0.0906
12067CHOL    R266224  23.422  33.972   7.787 -0.1933  0.0253 -0.1354
12067CHOL    R366225  23.319  33.779   7.949 -0.0394 -0.0178 -0.0875
12067CHOL    R466226  23.432  33.977   8.133 -0.1621  0.0977 -0.1373
12067CHOL    R566227  23.474  33.763   8.130 -0.0101  0.1282 -0.1003
12067CHOL    C166228  23.341  33.799   8.485  0.0006  0.1007 -0.0935
12067CHOL    C266229  23.265  33.611   8.711 -0.0243  0.0256  0.0205
12068CHOL   ROH66230  13.522  31.583  19.742  0.1168 -0.0782  0.0532
12068CHOL    R166231  13.274  31.506  19.630  0.1058 -0.2174  0.1726
12068CHOL    R266232  13.241  31.454  19.361 -0.0550  0.0249  0.1435
12068CHOL    R366233  13.143  31.217  19.450  0.2584 -0.1694 -0.0167
12068CHOL    R466234  13.051  31.236  19.172 -0.2728  0.1846  0.1766
12068CHOL    R566235  12.927  31.200  19.348  0.0750 -0.1495  0.3607
12068CHOL    C166236  12.848  30.886  19.147 -0.1053  0.0952  0.0446
12068CHOL    C266237  12.807  30.610  18.880 -0.3579  0.5577 -0.1332
12069CHOL   ROH66238  30.140   3.227  10.487  0.0894  0.1934  0.0010
12069CHOL    R166239  30.415   3.174  10.447  0.0422 -0.0360 -0.0223
12069CHOL    R266240  30.505   2.957  10.302 -0.1570  0.0441 -0.2666
12069CHOL    R366241  30.641   3.147  10.163  0.0551  0.0741 -0.0233
12069CHOL    R466242  30.786   2.898  10.109 -0.1785 -0.0114 -0.2817
12069CHOL    R566243  30.871   3.084  10.185 -0.0092 -0.1781 -0.0506
12069CHOL    C166244  31.077   3.042   9.867  0.0077 -0.0157 -0.0621
12069CHOL    C266245  31.253   3.062   9.557 -0.5707 -0.2693 -0.0934
12070CHOL   ROH66246   8.460  34.891  18.584  0.0168 -0.0423  0.1954
12070CHOL    R166247   8.342  34.685  18.430  0.1071  0.0011  0.0658
12070CHOL    R266248   8.490  34.502  18.286  0.1919  0.0494  0.0909
12070CHOL    R366249   8.345  34.321  18.428  0.1186  0.0020 -0.0443
12070CHOL    R466250   8.496  34.161  18.234  0.2268  0.0656 -0.0130
12070CHOL    R566251   8.280  34.157  18.266  0.2099  0.0507 -0.1308
12070CHOL    C166252   8.363  33.792  18.337  0.1785  0.0305 -0.1998
12070CHOL    C266253   8.436  33.487  18.365 -0.1380 -0.0763 -0.1760
12071CHOL   ROH66254   6.099   1.443  13.796  0.0252  0.3856  0.0018
12071CHOL    R166255   5.902   1.608  13.916 -0.1249  0.1830  0.0354
12071CHOL    R266256   5.657   1.511  13.996  0.0221 -0.0912  0.1609
12071CHOL    R366257   5.727   1.620  14.235 -0.0130  0.0594  0.1026
12071CHOL    R466258   5.434   1.629  14.232 -0.0166 -0.0458  0.1018
12071CHOL    R566259   5.568   1.797  14.268 -0.0753  0.0211  0.0117
12071CHOL    C166260   5.370   1.802  14.594 -0.0722  0.1218  0.0125
12071CHOL    C266261   5.238   2.161  14.783  0.0573 -0.0912  0.0526
12072CHOL   ROH66262   7.521  29.980  20.132  0.1403  0.0685 -0.0382
12072CHOL    R166263   7.702  29.962  19.916  0.1499  0.2348 -0.0439
12072CHOL    R266264   7.647  29.816  19.688  0.3178  0.1019  0.0026
12072CHOL    R366265   7.701  30.052  19.563  0.0167  0.1357 -0.0701
12072CHOL    R466266   7.757  29.846  19.361  0.2284  0.1408 -0.0246
12072CHOL    R566267   7.893  30.004  19.427  0.0540  0.3233 -0.0883
12072CHOL    C166268   7.872  30.084  19.054 -0.1065  0.1955 -0.1083
12072CHOL    C266269   7.732  30.064  18.691  0.0988  0.0958 -0.3254
12073CHOL   ROH66270   1.820   9.133   9.881 -0.0480  0.0819  0.0959
12073CHOL    R166271   2.083   9.183   9.971 -0.0241  0.0219  0.0598
12073CHOL    R266272   2.244   9.378   9.860 -0.0220  0.0380  0.0894
12073CHOL    R366273   2.264   9.462  10.118  0.0381 -0.0454  0.1118
12073CHOL    R466274   2.495   9.582   9.981 -0.1084  0.1675  0.0504
12073CHOL    R566275   2.500   9.460  10.162  0.0604  0.1022  0.0021
12073CHOL    C166276   2.660   9.780  10.294 -0.1023  0.1646  0.0487
12073CHOL    C266277   3.004   9.974  10.343  0.1888  0.1096  0.3818
12074CHOL   ROH66278  33.852  20.249   5.119  0.3220 -0.3041  0.0989
12074CHOL    R166279  33.986  20.386   4.911  0.1244 -0.1846  0.0499
12074CHOL    R266280  34.261  20.401   4.894  0.1083 -0.0106 -0.0966
12074CHOL    R366281  34.220  20.301   4.645  0.0358  0.0066 -0.0913
12074CHOL    R466282  34.472  20.449   4.625  0.1465 -0.1831 -0.0980
12074CHOL    R566283  34.296  20.474   4.498  0.1663 -0.0589 -0.1001
12074CHOL    C166284  34.556  20.383   4.234  0.1005 -0.2672 -0.0937
12074CHOL    C266285  34.890  20.327   4.030 -0.2753  0.1338  0.2834
12075CHOL   ROH66286  25.271  23.595   2.532 -0.2371 -0.0989 -0.1978
12075CHOL    R166287  25.403  23.464   2.745 -0.3542 -0.2581 -0.2224
12075CHOL    R266288  25.469  23.196   2.737 -0.0700 -0.1809 -0.5184
12075CHOL    R366289  25.718  23.289   2.793 -0.2282  0.0006 -0.0957
12075CHOL    R466290  25.737  22.998   2.829  0.0450 -0.0462 -0.5611
12075CHOL    R566291  25.794  23.151   2.974 -0.2766 -0.2218 -0.2417
12075CHOL    C166292  26.127  22.971   2.936 -0.0367  0.2026 -0.1892
12075CHOL    C266293  26.440  22.930   2.952 -0.2797  0.2927 -0.1900
12076CHOL   ROH66294  19.852   0.088  11.263  0.0830  0.2056 -0.1701
12076CHOL    R166295  19.852  35.311  11.031  0.0580  0.1236 -0.1124
12076CHOL    R266296  20.070  35.161  10.954  0.0642  0.1278 -0.1052
12076CHOL    R366297  19.890  34.957  10.955  0.0945  0.1017  0.0058
12076CHOL    R466298  20.109  34.862  10.785  0.0111  0.1247 -0.1124
12076CHOL    R566299  19.898  34.870  10.732 -0.0189  0.0916  0.0061
12076CHOL    C166300  19.964  34.497  10.688  0.0087  0.0982 -0.0125
12076CHOL    C266301  20.302  34.260  10.627  0.0154 -0.1219  0.3001
12077CHOL   ROH66302  29.803  32.405   9.943  0.0692  0.2534 -0.2269
12077CHOL    R166303  30.018  32.433   9.761  0.0420  0.1873 -0.2695
12077CHOL    R266304  30.100  32.229   9.594 -0.0367  0.1540 -0.2660
12077CHOL    R366305  30.063  32.416   9.400 -0.0287  0.1451 -0.2767
12077CHOL    R466306  30.196  32.193   9.264 -0.0751  0.1129 -0.2729
12077CHOL    R566307  30.261  32.402   9.266 -0.0437  0.1049 -0.2955
12077CHOL    C166308  30.218  32.348   8.890 -0.0902  0.0811 -0.2871
12077CHOL    C266309  30.365  32.586   8.615 -0.2598  0.1527  0.1112
12078CHOL   ROH66310   4.465   1.990  12.561  0.1016  0.1085 -0.0581
12078CHOL    R166311   4.330   2.146  12.755  0.1654  0.0246  0.0535
12078CHOL    R266312   4.085   2.073  12.860  0.0739  0.1174 -0.0986
12078CHOL    R366313   4.215   2.100  13.098  0.0185 -0.2226 -0.0273
12078CHOL    R466314   3.931   2.134  13.163  0.0515  0.4220 -0.1688
12078CHOL    R566315   4.093   2.271  13.213  0.3495  0.0442 -0.0628
12078CHOL    C166316   3.963   2.194  13.563 -0.0136  0.2800 -0.1426
12078CHOL    C266317   4.026   2.055  13.942 -0.0916 -0.2275 -0.0938
12079CHOL   ROH66318  33.493  34.683  12.498 -0.0882 -0.0653  0.0254
12079CHOL    R166319  33.585  34.776  12.247 -0.0378  0.2110  0.1437
12079CHOL    R266320  33.818  34.921  12.218  0.1130  0.0103  0.3176
12079CHOL    R366321  33.879  34.727  12.038 -0.1268  0.2079  0.0188
12079CHOL    R466322  34.075  34.939  11.988  0.2441 -0.0252  0.4604
12079CHOL    R566323  33.943  34.846  11.841  0.1553  0.4337  0.2451
12079CHOL    C166324  34.282  34.766  11.685  0.0950  0.1390  0.2634
12079CHOL    C266325  34.470  34.639  11.396  0.0698  0.0324 -0.0363
12080CHOL   ROH66326  33.583  19.417   4.574  0.0834 -0.3417 -0.0038
12080CHOL    R166327  33.615  19.444   4.295  0.1095 -0.2176  0.0113
12080CHOL    R266328  33.766  19.645   4.181  0.0319 -0.1027  0.1110
12080CHOL    R366329  33.891  19.438   4.058  0.1451  0.0034  0.0459
12080CHOL    R466330  33.982  19.676   3.913 -0.0999  0.0864  0.0262
12080CHOL    R566331  33.891  19.497   3.826  0.0050  0.0210  0.0498
12080CHOL    C166332  34.225  19.499   3.641 -0.0690  0.2965 -0.0842
12080CHOL    C266333  34.505  19.438   3.366  0.0266 -0.1050 -0.1201
12081CHOL   ROH66334   4.579  29.885  19.182 -0.1473 -0.0504 -0.1049
12081CHOL    R166335   4.755  29.776  18.988 -0.1063 -0.1028 -0.0383
12081CHOL    R266336   4.767  29.506  18.934 -0.2402 -0.0949 -0.1053
12081CHOL    R366337   4.723  29.588  18.678 -0.0500  0.0017 -0.1082
12081CHOL    R466338   4.881  29.342  18.651 -0.2911 -0.1579 -0.0895
12081CHOL    R566339   4.927  29.537  18.563 -0.0536 -0.1862 -0.0336
12081CHOL    C166340   4.906  29.324  18.247 -0.1422 -0.1039 -0.0833
12081CHOL    C266341   5.122  29.250  17.894 -0.0547  0.0632 -0.0123
12082CHOL   ROH66342   1.099  24.409  13.929 -0.1376 -0.1257 -0.0119
12082CHOL    R166343   1.255  24.615  13.813 -0.3108  0.0208  0.0139
12082CHOL    R266344   1.471  24.564  13.649 -0.0293  0.2171  0.3166
12082CHOL    R366345   1.337  24.726  13.476 -0.0734 -0.1234  0.0235
12082CHOL    R466346   1.621  24.764  13.410 -0.0572  0.1534  0.2452
12082CHOL    R566347   1.476  24.920  13.458 -0.2942  0.0298 -0.0497
12082CHOL    C166348   1.583  25.033  13.110 -0.1147 -0.2032 -0.0716
12082CHOL    C266349   1.461  25.146  12.650  0.1653  0.1639 -0.3289
12083CHOL   ROH66350   3.374   7.256   9.443 -0.0329 -0.1698  0.0638
12083CHOL    R166351   3.221   7.379   9.647  0.0436 -0.1567  0.1129
12083CHOL    R266352   3.041   7.581   9.597  0.1514 -0.0410  0.1907
12083CHOL    R366353   2.868   7.416   9.728  0.0675  0.0079  0.1427
12083CHOL    R466354   2.762   7.686   9.774  0.0009  0.0208 -0.0798
12083CHOL    R566355   2.809   7.537   9.926 -0.1009  0.1050  0.0347
12083CHOL    C166356   2.439   7.592  10.000 -0.1656  0.1030 -0.2824
12083CHOL    C266357   2.253   7.686  10.385  0.2831 -0.0256 -0.0432
12084CHOL   ROH66358  24.208  15.795   4.934 -0.1919 -0.1908  0.0751
12084CHOL    R166359  24.068  16.031   4.865 -0.2205 -0.2180  0.0395
12084CHOL    R266360  24.090  16.150   4.616 -0.0335 -0.1097  0.1064
12084CHOL    R366361  23.819  16.129   4.619 -0.0292 -0.2172 -0.1562
12084CHOL    R466362  23.872  16.393   4.503 -0.0240 -0.0801  0.1516
12084CHOL    R566363  23.742  16.349   4.673 -0.1610 -0.2985 -0.0051
12084CHOL    C166364  23.490  16.515   4.439 -0.0139 -0.1635 -0.0688
12084CHOL    C266365  23.113  16.592   4.457 -0.0436 -0.2452 -0.1642
12085CHOL   ROH66366   0.912  10.958   4.488  0.0674 -0.0373  0.1401
12085CHOL    R166367   0.794  10.895   4.738  0.0236  0.0773  0.1488
12085CHOL    R266368   0.732  11.087   4.926 -0.1985  0.1867 -0.0341
12085CHOL    R366369   0.485  10.975   4.912 -0.1063 -0.0198 -0.0345
12085CHOL    R466370   0.472  11.156   5.143 -0.2120 -0.1402  0.0564
12085CHOL    R566371   0.421  10.944   5.141 -0.0304 -0.1849 -0.0346
12085CHOL    C166372   0.088  11.091   5.256 -0.1333 -0.5243  0.1084
12085CHOL    C266373  35.190  11.004   5.552  0.1145 -0.1711  0.2278
12086CHOL   ROH66374   7.962   4.292  16.709  0.2659 -0.3509 -0.2009
12086CHOL    R166375   7.701   4.185  16.734  0.1480 -0.0727 -0.2224
12086CHOL    R266376   7.577   4.046  16.530  0.0986 -0.1211 -0.1606
12086CHOL    R366377   7.548   3.855  16.721 -0.1728  0.0652 -0.0120
12086CHOL    R466378   7.380   3.764  16.498  0.0037 -0.0622 -0.0940
12086CHOL    R566379   7.318   3.791  16.706 -0.1876  0.1549 -0.1770
12086CHOL    C166380   7.237   3.420  16.660 -0.3065  0.1471  0.0840
12086CHOL    C266381   7.413   3.060  16.839  0.0788  0.2351  0.3825
12087CHOL   ROH66382  11.472  21.848  18.549  0.0463  0.0826  0.0191
12087CHOL    R166383  11.553  21.789  18.814  0.0422  0.0839  0.0210
12087CHOL    R266384  11.482  21.555  18.943  0.0360  0.0865  0.0226
12087CHOL    R366385  11.750  21.532  18.979  0.0349  0.0814  0.0256
12087CHOL    R466386  11.633  21.338  19.165  0.0278  0.1041  0.0452
12087CHOL    R566387  11.775  21.495  19.215  0.0328  0.1045  0.0296
12087CHOL    C166388  11.973  21.189  19.329  0.0221  0.1095  0.0615
12087CHOL    C266389  11.695  20.869  19.470 -0.2850  0.2616  0.1012
12088CHOL   ROH66390   1.152  17.117   7.882  0.0361  0.0149 -0.2602
12088CHOL    R166391   1.361  17.175   7.700  0.1055 -0.0235 -0.1930
12088CHOL    R266392   1.534  17.387   7.735  0.0544  0.0199 -0.2033
12088CHOL    R366393   1.724  17.194   7.712  0.0974  0.0424 -0.0429
12088CHOL    R466394   1.872  17.447   7.692  0.0620  0.0593 -0.0915
12088CHOL    R566395   1.878  17.281   7.550  0.1482 -0.0010 -0.0180
12088CHOL    C166396   2.247  17.301   7.645  0.1067  0.1035  0.1241
12088CHOL    C266397   2.574  17.334   7.612  0.3660 -0.1122  0.1722
12089CHOL   ROH66398  26.482  30.369   6.229 -0.1719  0.0607  0.0358
12089CHOL    R166399  26.653  30.259   6.425 -0.1328 -0.1133 -0.0954
12089CHOL    R266400  26.672  30.362   6.681  0.1626 -0.1371 -0.1078
12089CHOL    R366401  26.614  30.107   6.754 -0.0359 -0.0824 -0.0694
12089CHOL    R466402  26.740  30.226   6.991  0.0751 -0.1474 -0.0929
12089CHOL    R566403  26.799  30.041   6.891 -0.0774 -0.2098 -0.0723
12089CHOL    C166404  26.725  29.906   7.240 -0.1618 -0.1016 -0.0481
12089CHOL    C266405  26.918  29.810   7.475 -0.0401 -0.2975 -0.0277
12090CHOL   ROH66406   2.215  12.056  12.277 -0.1450 -0.1359 -0.2697
12090CHOL    R166407   2.496  12.049  12.310 -0.1456  0.2012 -0.1804
12090CHOL    R266408   2.652  11.840  12.218  0.0595  0.0768  0.4314
12090CHOL    R366409   2.788  12.039  12.092 -0.0861 -0.1442 -0.0885
12090CHOL    R466410   2.967  11.807  12.079  0.1093 -0.0428  0.5717
12090CHOL    R566411   3.016  12.005  12.156 -0.0663  0.2158  0.0476
12090CHOL    C166412   3.278  11.975  11.880  0.0017 -0.3199  0.1653
12090CHOL    C266413   3.527  12.110  11.613  0.1330  0.1028 -0.0733
12091CHOL   ROH66414   5.371  22.094  10.128 -0.1691  0.1906  0.0973
12091CHOL    R166415   5.360  21.915  10.347 -0.0776  0.0731  0.0071
12091CHOL    R266416   5.154  21.919  10.531 -0.0243 -0.0552  0.0694
12091CHOL    R366417   5.134  21.656  10.466 -0.0032 -0.0241 -0.0631
12091CHOL    R466418   5.033  21.672  10.741 -0.1699 -0.1425 -0.1163
12091CHOL    R566419   5.190  21.540  10.667 -0.1342 -0.1200 -0.0808
12091CHOL    C166420   4.944  21.281  10.801 -0.2348 -0.1642 -0.3484
12091CHOL    C266421   4.949  20.971  10.906  0.0634 -0.1716  0.2908
12092CHOL   ROH66422   4.413   9.715   9.330 -0.0106  0.0048 -0.1408
12092CHOL    R166423   4.232   9.645   9.536 -0.0532  0.0429 -0.1653
12092CHOL    R266424   4.198   9.798   9.763 -0.0103  0.0206 -0.1433
12092CHOL    R366425   3.936   9.791   9.689 -0.0076  0.1338 -0.1640
12092CHOL    R466426   3.931   9.848   9.977 -0.0174 -0.2727 -0.0815
12092CHOL    R566427   3.825   9.687   9.874 -0.0187 -0.1253 -0.3139
12092CHOL    C166428   3.530   9.871  10.032 -0.0190 -0.3375 -0.0650
12092CHOL    C266429   3.326  10.202  10.075 -0.1239  0.1051 -0.1001
12093CHOL   ROH66430  34.413  22.045   7.030  0.0871 -0.2818 -0.1769
12093CHOL    R166431  34.428  22.034   6.747  0.0404  0.0483 -0.1940
12093CHOL    R266432  34.388  22.256   6.588  0.1745  0.2717  0.0763
12093CHOL    R366433  34.631  22.187   6.487  0.1128  0.2206 -0.0368
12093CHOL    R466434  34.535  22.401   6.311  0.0717  0.2272 -0.0016
12093CHOL    R566435  34.603  22.203   6.249  0.0042  0.2127 -0.0236
12093CHOL    C166436  34.848  22.421   6.054 -0.0460  0.1531 -0.1531
12093CHOL    C266437  35.036  22.517   5.703 -0.2674 -0.2345  0.0888
12094CHOL   ROH66438  31.151  13.368   4.233 -0.1389 -0.3539  0.1055
12094CHOL    R166439  31.253  13.266   3.989 -0.0738 -0.1486  0.0458
12094CHOL    R266440  31.279  12.996   3.940  0.1536 -0.1046 -0.0885
12094CHOL    R366441  31.131  13.054   3.720  0.0818 -0.1226 -0.0453
12094CHOL    R466442  31.329  12.858   3.627  0.1184 -0.0503 -0.1178
12094CHOL    R566443  31.290  13.054   3.540  0.0372 -0.0521 -0.0842
12094CHOL    C166444  31.219  12.833   3.238  0.0307 -0.0356 -0.0943
12094CHOL    C266445  31.129  12.747   2.849 -0.3245  0.4274 -0.1066
12095CHOL   ROH66446   9.059  18.407  19.387 -0.0034  0.3633  0.2289
12095CHOL    R166447   9.117  18.595  19.183  0.0868  0.2916  0.1881
12095CHOL    R266448   9.353  18.739  19.176  0.2165  0.0724  0.0783
12095CHOL    R366449   9.370  18.636  18.925  0.0186  0.0347  0.0790
12095CHOL    R466450   9.536  18.877  18.917  0.0797 -0.0092 -0.0637
12095CHOL    R566451   9.373  18.828  18.782 -0.0269  0.0166  0.0528
12095CHOL    C166452   9.659  18.861  18.531 -0.1859 -0.0917 -0.1450
12095CHOL    C266453   9.757  19.146  18.539  0.0369  0.0980 -0.0093
12096CHOL   ROH66454  27.204  11.695   5.326 -0.2154  0.0674 -0.1560
12096CHOL    R166455  27.109  11.466   5.189 -0.1930  0.0092 -0.0742
12096CHOL    R266456  26.840  11.418   5.148 -0.1853 -0.0014 -0.1079
12096CHOL    R366457  26.916  11.399   4.888 -0.1332 -0.1198 -0.0847
12096CHOL    R466458  26.705  11.198   4.919 -0.3716  0.1200 -0.1160
12096CHOL    R566459  26.906  11.165   4.840 -0.3843 -0.1165 -0.0563
12096CHOL    C166460  26.698  11.052   4.540 -0.4306  0.0796 -0.0989
12096CHOL    C266461  26.467  10.806   4.696  0.3016 -0.2239 -0.0078
12097CHOL   ROH66462  29.667   8.258   2.837 -0.5047 -0.0861  0.2516
12097CHOL    R166463  29.612   8.368   3.092 -0.2947  0.0319  0.2470
12097CHOL    R266464  29.803   8.382   3.292 -0.2003 -0.1093  0.1702
12097CHOL    R366465  29.736   8.645   3.292  0.0632 -0.0417  0.1297
12097CHOL    R466466  29.811   8.587   3.570 -0.1955 -0.1223  0.1795
12097CHOL    R566467  29.625   8.678   3.502 -0.0544  0.0659  0.0490
12097CHOL    C166468  29.753   8.953   3.732  0.0547 -0.0665  0.1468
12097CHOL    C266469  29.897   9.274   3.810  0.0085  0.2903  0.2711
12098CHOL   ROH66470  23.588  17.352  10.343  0.0315  0.0719  0.2869
12098CHOL    R166471  23.364  17.461  10.209  0.0914 -0.0471  0.0868
12098CHOL    R266472  23.177  17.305  10.079  0.1416 -0.1651  0.1542
12098CHOL    R366473  23.002  17.440  10.238  0.0781 -0.0089 -0.0461
12098CHOL    R466474  22.833  17.293  10.049  0.1486 -0.3420  0.1476
12098CHOL    R566475  22.826  17.507  10.089  0.0616 -0.2859 -0.1540
12098CHOL    C166476  22.468  17.412  10.180  0.0927 -0.2986 -0.0443
12098CHOL    C266477  22.088  17.549  10.217  0.3664 -0.1548 -0.1037
12099CHOL   ROH66478   8.857  31.991  16.876 -0.0024 -0.0127  0.0238
12099CHOL    R166479   8.682  32.028  17.094  0.0612 -0.0599  0.0832
12099CHOL    R266480   8.710  31.891  17.333  0.1125 -0.1352  0.0350
12099CHOL    R366481   8.710  32.142  17.439  0.1679 -0.1666  0.1098
12099CHOL    R466482   8.701  31.962  17.671  0.2323 -0.2329  0.0587
12099CHOL    R566483   8.563  32.125  17.628  0.2312 -0.2102  0.1539
12099CHOL    C166484   8.696  32.238  17.968  0.3543 -0.3197  0.1428
12099CHOL    C266485   8.440  32.383  18.220 -0.1954  0.0539  0.4473
12100CHOL   ROH66486  22.572  10.793  13.276  0.1434  0.1264 -0.0461
12100CHOL    R166487  22.360  10.783  13.088  0.1060  0.0931 -0.0029
12100CHOL    R266488  22.257  11.009  12.968  0.0389  0.0783  0.0251
12100CHOL    R366489  22.313  10.874  12.739  0.0178  0.0952  0.0101
12100CHOL    R466490  22.103  11.064  12.664 -0.0296  0.0579  0.0564
12100CHOL    R566491  22.100  10.849  12.632  0.0025  0.0597  0.0507
12100CHOL    C166492  22.064  10.970  12.272 -0.0898  0.0619  0.0605
12100CHOL    C266493  21.957  10.776  11.965 -0.1291  0.1472 -0.4017
12101CHOL   ROH66494   1.800  31.950  16.053  0.2260  0.0655 -0.0392
12101CHOL    R166495   1.946  31.758  15.907  0.1554  0.0217 -0.0524
12101CHOL    R266496   2.092  31.822  15.681  0.1150 -0.0305 -0.0939
12101CHOL    R366497   2.295  31.702  15.817  0.1243 -0.0529 -0.1275
12101CHOL    R466498   2.317  31.598  15.544 -0.0062 -0.1486 -0.1010
12101CHOL    R566499   2.304  31.480  15.727  0.0200 -0.0856 -0.0590
12101CHOL    C166500   2.639  31.356  15.592 -0.0681 -0.2391 -0.1368
12101CHOL    C266501   2.808  31.181  15.517  0.1271 -0.2377 -0.0172
12102CHOL   ROH66502   6.727  35.251  15.315 -0.1451 -0.0588 -0.1244
12102CHOL    R166503   6.491  35.146  15.430 -0.0925 -0.0648 -0.0216
12102CHOL    R266504   6.472  35.079  15.698  0.0147 -0.0324 -0.0055
12102CHOL    R366505   6.257  35.245  15.692 -0.0026 -0.0525  0.0544
12102CHOL    R466506   6.192  35.046  15.897  0.0256 -0.1240 -0.0055
12102CHOL    R566507   6.069  35.100  15.725  0.0136 -0.0835  0.0156
12102CHOL    C166508   5.827  35.182  16.007  0.0157 -0.1959  0.0506
12102CHOL    C266509   5.420  35.096  16.177 -0.1221 -0.0568  0.1440
12103CHOL   ROH66510   3.394  19.530  10.379 -0.0852 -0.1951  0.0499
12103CHOL    R166511   3.613  19.569  10.203 -0.1048 -0.0328  0.0602
12103CHOL    R266512   3.875  19.576  10.290 -0.0979 -0.0646  0.0441
12103CHOL    R366513   3.908  19.381  10.103 -0.0884  0.0807 -0.1066
12103CHOL    R466514   4.176  19.422  10.218 -0.0978 -0.0193 -0.0526
12103CHOL    R566515   4.122  19.429  10.006 -0.0793  0.1490 -0.0517
12103CHOL    C166516   4.383  19.150  10.000 -0.0889  0.1435 -0.2508
12103CHOL    C266517   4.621  19.073  10.080 -0.0977 -0.3086 -0.2667
12104CHOL   ROH66518  10.704  19.570  19.943 -0.0438 -0.0918  0.1944
12104CHOL    R166519  10.788  19.840  19.920 -0.1136 -0.0677  0.2251
12104CHOL    R266520  10.733  19.994  19.698 -0.0268 -0.1022  0.1801
12104CHOL    R366521  10.628  20.164  19.882 -0.1917 -0.1198  0.1034
12104CHOL    R466522  10.616  20.312  19.629 -0.0263 -0.1204  0.0938
12104CHOL    R566523  10.706  20.380  19.815 -0.1757 -0.1066  0.1629
12104CHOL    C166524  10.448  20.656  19.761 -0.1809 -0.1478 -0.0285
12104CHOL    C266525  10.328  21.059  19.829  0.0265  0.1816  0.0810
12105CHOL   ROH66526  29.409  11.968   1.080  0.2143  0.1169  0.0051
12105CHOL    R166527  29.430  12.055   1.349  0.2304 -0.0470  0.0579
12105CHOL    R266528  29.227  12.191   1.477  0.3899  0.2287  0.0250
12105CHOL    R366529  29.254  11.993   1.661 -0.0251  0.0896 -0.0574
12105CHOL    R466530  29.171  12.228   1.816  0.4768  0.2064  0.0417
12105CHOL    R566531  29.346  12.103   1.853  0.2157 -0.1833 -0.0135
12105CHOL    C166532  29.164  12.063   2.187  0.1380  0.0627 -0.0259
12105CHOL    C266533  29.036  12.201   2.590  0.0634 -0.2886  0.0852
12106CHOL   ROH66534  19.588   2.138  10.430  0.2306 -0.0726 -0.0876
12106CHOL    R166535  19.775   2.106  10.640  0.2392  0.2505 -0.0423
12106CHOL    R266536  19.786   2.276  10.857 -0.1349  0.2489 -0.0155
12106CHOL    R366537  19.762   2.045  10.998  0.2554  0.1829 -0.0540
12106CHOL    R466538  19.902   2.229  11.179 -0.4261  0.5256  0.1315
12106CHOL    R566539  19.967   2.029  11.121  0.1429  0.6854  0.2068
12106CHOL    C166540  19.947   1.985  11.499 -0.2288  0.6248  0.1810
12106CHOL    C266541  20.040   1.666  11.768  0.0827  0.0494  0.0408
12107CHOL   ROH66542  12.491   7.949  15.326  0.2260  0.0088  0.0361
12107CHOL    R166543  12.566   7.999  15.595  0.1427  0.0944  0.0437
12107CHOL    R266544  12.381   8.028  15.798  0.0813  0.1164 -0.0153
12107CHOL    R366545  12.528   7.831  15.916  0.0833  0.1743  0.0788
12107CHOL    R466546  12.355   7.933  16.129  0.0546  0.2510  0.0212
12107CHOL    R566547  12.572   7.914  16.136  0.0560  0.2683  0.0500
12107CHOL    C166548  12.477   7.693  16.433  0.0410  0.3835  0.1308
12107CHOL    C266549  12.243   7.643  16.724 -0.1032  0.0068 -0.2107
12108CHOL   ROH66550  10.691  16.984  14.237 -0.4030  0.2165  0.0198
12108CHOL    R166551  10.560  16.748  14.322 -0.0194  0.0034  0.0313
12108CHOL    R266552  10.690  16.547  14.460  0.2527  0.3363  0.2682
12108CHOL    R366553  10.490  16.584  14.640  0.0079  0.0477  0.0599
12108CHOL    R466554  10.634  16.348  14.737  0.2845  0.2851  0.2378
12108CHOL    R566555  10.420  16.362  14.698  0.2972 -0.0568  0.0178
12108CHOL    C166556  10.412  16.267  15.067  0.0728 -0.0153  0.0249
12108CHOL    C266557  10.310  15.915  14.927 -0.1621 -0.0070  0.0175
12109CHOL   ROH66558   7.475  33.256  16.346 -0.0997 -0.0285 -0.0801
12109CHOL    R166559   7.409  33.143  16.598 -0.0278  0.0137 -0.0423
12109CHOL    R266560   7.358  33.296  16.821 -0.0478  0.0539 -0.0747
12109CHOL    R366561   7.127  33.154  16.827  0.0001 -0.0206 -0.0070
12109CHOL    R466562   7.149  33.270  17.095 -0.0841  0.1854 -0.0895
12109CHOL    R566563   7.121  33.060  17.047 -0.0040  0.1396  0.0624
12109CHOL    C166564   6.811  33.121  17.260 -0.0603  0.1914 -0.0341
12109CHOL    C266565   6.568  32.935  17.448 -0.0905 -0.1844 -0.1565
12110CHOL   ROH66566  28.952  26.662   7.311 -0.1680  0.2375  0.2248
12110CHOL    R166567  28.985  26.900   7.160 -0.2363  0.1976  0.1466
12110CHOL    R266568  29.143  26.912   6.934 -0.0514  0.2257  0.2767
12110CHOL    R366569  28.916  27.009   6.820 -0.0354 -0.0128  0.0368
12110CHOL    R466570  29.132  27.098   6.643  0.0534  0.1574  0.2285
12110CHOL    R566571  28.979  27.224   6.735 -0.1570  0.0317  0.0566
12110CHOL    C166572  28.912  27.298   6.367  0.1293 -0.1062 -0.0247
12110CHOL    C266573  28.973  27.171   6.056 -0.0025  0.1199  0.0858
12111CHOL   ROH66574  21.741  19.102   8.125  0.0792 -0.0811  0.0510
12111CHOL    R166575  22.023  19.094   8.097  0.0813 -0.1900  0.0960
12111CHOL    R266576  22.184  19.309   8.161  0.1179 -0.1037 -0.2729
12111CHOL    R366577  22.311  19.125   8.317  0.0615  0.1484  0.0761
12111CHOL    R466578  22.503  19.346   8.291  0.1175  0.0565 -0.3167
12111CHOL    R566579  22.540  19.136   8.246  0.0692 -0.0372  0.0724
12111CHOL    C166580  22.807  19.196   8.512  0.0638  0.3862 -0.0143
12111CHOL    C266581  23.205  19.072   8.507 -0.0664 -0.3165 -0.2203
12112CHOL   ROH66582  20.722  14.764   9.686  0.1891 -0.1292 -0.0415
12112CHOL    R166583  20.987  14.721   9.778  0.1616 -0.0468  0.0751
12112CHOL    R266584  21.188  14.908   9.746  0.1317 -0.0112  0.1083
12112CHOL    R366585  21.213  14.879  10.015  0.0330  0.0635  0.1263
12112CHOL    R466586  21.471  14.988   9.927  0.1610 -0.2064  0.1517
12112CHOL    R566587  21.440  14.808  10.046 -0.0387 -0.1369  0.2109
12112CHOL    C166588  21.659  15.009  10.285  0.0851 -0.2501  0.1939
12112CHOL    C266589  21.793  14.736  10.527 -0.1994 -0.0651  0.0954
12113CHOL   ROH66590   0.381  24.095  11.226 -0.0773  0.1266  0.1066
12113CHOL    R166591   0.383  24.328  11.065 -0.1703  0.0702  0.0228
12113CHOL    R266592   0.399  24.582  11.172 -0.0606  0.1055 -0.0768
12113CHOL    R366593   0.612  24.605  11.005 -0.1825  0.0232 -0.2448
12113CHOL    R466594   0.602  24.861  11.147  0.0558  0.0105 -0.2022
12113CHOL    R566595   0.606  24.833  10.931 -0.1310  0.0362 -0.2101
12113CHOL    C166596   0.920  25.045  10.975  0.0093 -0.1223 -0.4327
12113CHOL    C266597   0.978  25.345  10.678  0.1993 -0.1270 -0.2561
12114CHOL   ROH66598  23.349  25.042   7.141 -0.1851 -0.1723 -0.1063
12114CHOL    R166599  23.468  25.193   6.934 -0.1026 -0.0305  0.0440
12114CHOL    R266600  23.561  25.450   6.973 -0.0325 -0.0917  0.2802
12114CHOL    R366601  23.792  25.348   6.872 -0.0449 -0.0741  0.2332
12114CHOL    R466602  23.773  25.616   6.756 -0.0149 -0.0174  0.3538
12114CHOL    R566603  23.800  25.429   6.647 -0.0368  0.0273  0.2690
12114CHOL    C166604  24.113  25.616   6.535 -0.0157  0.0424  0.3526
12114CHOL    C266605  24.396  25.528   6.171 -0.2571 -0.3197 -0.1739
12115CHOL   ROH66606  28.992   3.143   7.846  0.1334 -0.0799  0.0028
12115CHOL    R166607  29.211   3.309   7.913  0.3584 -0.3410 -0.0788
12115CHOL    R266608  29.213   3.471   8.136  0.3777  0.1218 -0.4083
12115CHOL    R366609  29.445   3.340   8.190  0.0798 -0.1990  0.1423
12115CHOL    R466610  29.426   3.547   8.397  0.2869  0.3876 -0.4093
12115CHOL    R566611  29.595   3.512   8.263  0.3483 -0.2936 -0.1745
12115CHOL    C166612  29.769   3.468   8.599 -0.0462  0.2412  0.1069
12115CHOL    C266613  30.217   3.668   8.624 -0.0183  0.0301 -0.2512
12116CHOL   ROH66614  31.792  34.336  11.373 -0.0327  0.2570 -0.0077
12116CHOL    R166615  31.813  34.378  11.094 -0.0456 -0.0191 -0.0519
12116CHOL    R266616  31.931  34.604  10.986 -0.2987  0.0059 -0.2785
12116CHOL    R366617  32.082  34.421  10.853 -0.0624  0.0398 -0.0610
12116CHOL    R466618  32.065  34.651  10.671  0.0397 -0.0126 -0.1393
12116CHOL    R566619  32.015  34.445  10.624  0.1869 -0.0484 -0.1454
12116CHOL    C166620  32.285  34.508  10.363  0.4580  0.0080  0.1461
12116CHOL    C266621  32.465  34.483  10.097 -0.0984 -0.3633 -0.1376
12117CHOL   ROH66622  32.291   5.927   5.946  0.1377 -0.1416  0.1891
12117CHOL    R166623  32.219   6.090   6.167  0.0854 -0.1549  0.1820
12117CHOL    R266624  32.057   6.312   6.141  0.2830 -0.0174  0.1201
12117CHOL    R366625  31.910   6.188   6.332  0.0257  0.0367 -0.0406
12117CHOL    R466626  31.845   6.473   6.361  0.3500  0.0979  0.1014
12117CHOL    R566627  31.915   6.339   6.519  0.1022 -0.0865  0.0573
12117CHOL    C166628  31.582   6.449   6.670  0.1478  0.2160 -0.0605
12117CHOL    C266629  31.693   6.720   6.881 -0.0990  0.2367  0.0468
12118CHOL   ROH66630   0.876  14.064   3.640  0.0454 -0.0097 -0.0493
12118CHOL    R166631   0.691  13.985   3.839 -0.0785  0.1897 -0.0842
12118CHOL    R266632   0.769  13.886   4.085 -0.2272 -0.1258 -0.1622
12118CHOL    R366633   0.608  14.084   4.179  0.1424  0.1045 -0.0044
12118CHOL    R466634   0.648  13.905   4.408 -0.5320 -0.3923 -0.2584
12118CHOL    R566635   0.457  13.972   4.327 -0.2909  0.2059 -0.3592
12118CHOL    C166636   0.426  14.102   4.685 -0.3624 -0.3314 -0.1663
12118CHOL    C266637   0.446  14.051   5.069  0.1801  0.1461  0.1100
12119CHOL   ROH66638  15.654  34.222  17.678 -0.0161  0.0204 -0.0438
12119CHOL    R166639  15.375  34.178  17.694 -0.0196  0.0816  0.0669
12119CHOL    R266640  15.267  33.943  17.791 -0.0321  0.0387 -0.0484
12119CHOL    R366641  15.133  34.111  17.958  0.0983 -0.0459  0.1425
12119CHOL    R466642  14.959  33.875  17.933 -0.1510  0.1751 -0.2378
12119CHOL    R566643  14.903  34.083  17.897  0.0858  0.2876  0.0322
12119CHOL    C166644  14.654  33.993  18.173 -0.0974  0.1746 -0.1689
12119CHOL    C266645  14.417  33.762  18.084  0.0529 -0.2296  0.0651
12120CHOL   ROH66646  26.020   3.214   7.030  0.0520 -0.1937  0.0918
12120CHOL    R166647  26.051   3.445   7.190  0.0055 -0.1236  0.0001
12120CHOL    R266648  25.974   3.453   7.456  0.0250 -0.0409  0.0035
12120CHOL    R366649  26.230   3.534   7.494  0.0074  0.0402 -0.0488
12120CHOL    R466650  26.126   3.484   7.764  0.0923 -0.0350 -0.0304
12120CHOL    R566651  26.221   3.667   7.693  0.0122  0.0075 -0.0269
12120CHOL    C166652  26.456   3.578   7.980  0.1145  0.0448 -0.0992
12120CHOL    C266653  26.741   3.782   8.054 -0.3741 -0.1572 -0.1949
12121CHOL   ROH66654  20.350   4.648  11.374  0.0232  0.0688  0.0269
12121CHOL    R166655  20.623   4.606  11.433  0.0460  0.0682 -0.0762
12121CHOL    R266656  20.766   4.773  11.602  0.0868  0.0173 -0.0606
12121CHOL    R366657  20.822   4.540  11.731  0.1473 -0.0258 -0.1639
12121CHOL    R466658  21.033   4.726  11.816  0.1871 -0.0514 -0.2000
12121CHOL    R566659  21.061   4.527  11.729  0.1478 -0.0236 -0.2794
12121CHOL    C166660  21.241   4.480  12.063  0.3023 -0.1320 -0.3777
12121CHOL    C266661  21.618   4.461  11.923 -0.0138  0.2903  0.1690
12122CHOL   ROH66662   9.521  12.927  14.301 -0.0862  0.2335  0.0792
12122CHOL    R166663   9.359  13.004  14.520 -0.1380  0.1683  0.0642
12122CHOL    R266664   9.309  12.837  14.735 -0.1838  0.1062  0.0068
12122CHOL    R366665   9.402  13.049  14.878 -0.2206  0.0679  0.0866
12122CHOL    R466666   9.282  12.870  15.078 -0.1580 -0.0428  0.0233
12122CHOL    R566667   9.237  13.081  15.049 -0.2110 -0.0423  0.1163
12122CHOL    C166668   9.353  13.088  15.412 -0.1774 -0.1658  0.1077
12122CHOL    C266669   9.561  13.034  15.717 -0.5543  0.0693 -0.0123
12123CHOL   ROH66670  12.045  19.125  20.423  0.0972 -0.2836 -0.1531
12123CHOL    R166671  12.183  19.363  20.357 -0.0520 -0.1823 -0.0996
12123CHOL    R266672  12.458  19.384  20.369 -0.0729  0.0320  0.0457
12123CHOL    R366673  12.430  19.466  20.111  0.0001 -0.0114  0.0239
12123CHOL    R466674  12.671  19.604  20.209  0.0757 -0.1358  0.0118
12123CHOL    R566675  12.497  19.697  20.115  0.1406 -0.0511 -0.0250
12123CHOL    C166676  12.769  19.809  19.873  0.2311 -0.2745 -0.0282
12123CHOL    C266677  13.092  20.056  19.816  0.1834  0.0086 -0.0506
12124CHOL   ROH66678  11.438   9.373  15.195  0.3218 -0.2465  0.0919
12124CHOL    R166679  11.461   9.519  15.437  0.2173 -0.1894  0.0680
12124CHOL    R266680  11.244   9.630  15.565  0.1719 -0.0872 -0.0964
12124CHOL    R366681  11.337   9.488  15.778 -0.0037 -0.0598  0.0001
12124CHOL    R466682  11.171   9.699  15.896  0.1245  0.1289 -0.1512
12124CHOL    R566683  11.378   9.653  15.946  0.0748 -0.0106 -0.0666
12124CHOL    C166684  11.216   9.606  16.288 -0.0678  0.2805 -0.0923
12124CHOL    C266685  11.407   9.517  16.604  0.1099 -0.3657  0.0144
12125CHOL   ROH66686  28.858  12.819   0.976  0.1075  0.2406 -0.0557
12125CHOL    R166687  29.000  12.951   1.182  0.1087 -0.0434  0.1284
12125CHOL    R266688  28.912  13.187   1.295  0.3017 -0.0014  0.1915
12125CHOL    R366689  28.937  13.047   1.527 -0.0418 -0.1627  0.1348
12125CHOL    R466690  28.877  13.321   1.612  0.1602 -0.1493  0.2394
12125CHOL    R566691  29.046  13.199   1.677 -0.0175 -0.3573  0.3181
12125CHOL    C166692  28.881  13.268   2.014 -0.2446 -0.3864  0.2142
12125CHOL    C266693  28.830  13.356   2.166  0.0611  0.2401 -0.2731
12126CHOL   ROH66694  34.333  11.006   7.262  0.0367 -0.1744  0.0367
12126CHOL    R166695  34.396  10.948   6.993  0.0011 -0.1592  0.0252
12126CHOL    R266696  34.609  11.065   6.862 -0.1157 -0.0235 -0.0470
12126CHOL    R366697  34.678  10.806   6.811  0.0509  0.0184 -0.0388
12126CHOL    R466698  34.805  10.960   6.597 -0.2354  0.0715 -0.1736
12126CHOL    R566699  34.673  10.789   6.573 -0.1186 -0.0403 -0.0318
12126CHOL    C166700  34.984  10.657   6.396 -0.1480  0.1660 -0.2396
12126CHOL    C266701  35.184  10.782   6.111 -0.2062 -0.1095 -0.2788
12127CHOL   ROH66702  24.654   3.946   8.025  0.1701 -0.2077 -0.2398
12127CHOL    R166703  24.778   3.912   8.277  0.0237 -0.1641 -0.1614
12127CHOL    R266704  24.731   3.692   8.437  0.0290 -0.1989 -0.2088
12127CHOL    R366705  25.002   3.670   8.431  0.0455 -0.0633 -0.0333
12127CHOL    R466706  24.926   3.570   8.695 -0.0740 -0.0596 -0.0645
12127CHOL    R566707  25.072   3.726   8.653 -0.1244  0.0082  0.0034
12127CHOL    C166708  25.293   3.478   8.840 -0.1185  0.1488  0.1843
12127CHOL    C266709  25.697   3.610   8.979  0.0734 -0.0189 -0.1250
12128CHOL   ROH66710  14.490  14.962  18.161 -0.0872  0.2141 -0.0878
12128CHOL    R166711  14.509  14.788  17.939  0.0019  0.0573  0.0422
12128CHOL    R266712  14.302  14.754  17.759  0.0222 -0.1771  0.0627
12128CHOL    R366713  14.494  14.818  17.577 -0.0057 -0.2204  0.0177
12128CHOL    R466714  14.283  14.689  17.420 -0.1744  0.0286  0.0328
12128CHOL    R566715  14.494  14.634  17.423 -0.2124 -0.1354 -0.0872
12128CHOL    C166716  14.451  14.711  17.052 -0.3149  0.1077 -0.0264
12128CHOL    C266717  14.301  14.508  16.768  0.0109  0.0243 -0.1468
12129CHOL   ROH66718  15.424  28.288  16.740  0.0271 -0.0644  0.0830
12129CHOL    R166719  15.695  28.370  16.743  0.0132 -0.0126 -0.0168
12129CHOL    R266720  15.779  28.610  16.633 -0.0904  0.0603  0.0573
12129CHOL    R366721  15.885  28.648  16.880  0.0283 -0.0430  0.0222
12129CHOL    R466722  16.016  28.849  16.711 -0.1827  0.1434  0.0824
12129CHOL    R566723  16.115  28.703  16.839 -0.0269  0.1156 -0.0713
12129CHOL    C166724  16.253  29.025  16.989 -0.1252  0.0941  0.0643
12129CHOL    C266725  16.294  29.369  17.207 -0.3735  0.0907 -0.1678
12130CHOL   ROH66726  23.027  25.210  10.894  0.0327 -0.1239  0.0817
12130CHOL    R166727  22.761  25.299  10.862  0.0824  0.0671  0.1996
12130CHOL    R266728  22.689  25.565  10.886  0.3420  0.1677 -0.1141
12130CHOL    R366729  22.583  25.526  10.639  0.0791 -0.0931  0.0378
12130CHOL    R466730  22.462  25.776  10.734  0.3223  0.1070 -0.1692
12130CHOL    R566731  22.356  25.600  10.660  0.1429  0.0715  0.1625
12130CHOL    C166732  22.229  25.862  10.413  0.0646 -0.1731 -0.0589
12130CHOL    C266733  21.929  25.615  10.348  0.2237 -0.1611 -0.0919
12131CHOL   ROH66734  24.598  32.092   9.869  0.4467 -0.0453  0.0328
12131CHOL    R166735  24.554  32.165   9.599  0.2995 -0.1167  0.0370
12131CHOL    R266736  24.711  32.350   9.467  0.1153 -0.0138 -0.0427
12131CHOL    R366737  24.740  32.148   9.287  0.2078 -0.0180 -0.0230
12131CHOL    R466738  24.726  32.393   9.125 -0.1572 -0.0618 -0.0619
12131CHOL    R566739  24.602  32.215   9.102  0.0143 -0.1976  0.0546
12131CHOL    C166740  24.762  32.229   8.756 -0.2291 -0.0946 -0.0544
12131CHOL    C266741  24.407  32.001   8.547  0.1758  0.0514  0.0150
12132CHOL   ROH66742  17.852  26.595  16.680 -0.0368 -0.2334 -0.0024
12132CHOL    R166743  17.869  26.810  16.497 -0.0044 -0.1293  0.1225
12132CHOL    R266744  17.740  26.808  16.253  0.0760 -0.0106  0.0795
12132CHOL    R366745  17.637  27.044  16.342  0.0175 -0.0721  0.1765
12132CHOL    R466746  17.475  26.975  16.107  0.1369  0.0631  0.0519
12132CHOL    R566747  17.581  27.163  16.142  0.1087  0.0490  0.2216
12132CHOL    C166748  17.224  27.294  16.105  0.1174  0.0478  0.1267
12132CHOL    C266749  16.837  27.355  16.244 -0.1770  0.1201 -0.2935
12133CHOL   ROH66750   6.143  34.993  18.823 -0.1472 -0.3036 -0.1280
12133CHOL    R166751   6.336  35.075  18.632 -0.0253 -0.1888  0.0433
12133CHOL    R266752   6.603  35.009  18.652 -0.0604 -0.3045  0.1104
12133CHOL    R366753   6.565  34.912  18.401  0.0281 -0.0483 -0.0029
12133CHOL    R466754   6.843  35.006  18.404  0.1794 -0.4879  0.3412
12133CHOL    R566755   6.689  35.062  18.261  0.4033 -0.1305  0.2321
12133CHOL    C166756   6.948  34.914  18.023  0.4020 -0.3549  0.3689
12133CHOL    C266757   7.144  34.575  17.938  0.2528  0.1501  0.2069
12134CHOL   ROH66758  22.302  20.997   6.267  0.1607 -0.1643 -0.1637
12134CHOL    R166759  22.563  20.980   6.376  0.1417 -0.0599 -0.1021
12134CHOL    R266760  22.669  21.176   6.539  0.0094 -0.0374 -0.0425
12134CHOL    R366761  22.710  20.967   6.708  0.0659 -0.0466 -0.0678
12134CHOL    R466762  22.923  21.159   6.773  0.0477 -0.0208 -0.0828
12134CHOL    R566763  22.949  20.948   6.722  0.0710 -0.0126 -0.1059
12134CHOL    C166764  23.110  20.953   7.067  0.1229 -0.0198 -0.1300
12134CHOL    C266765  23.350  21.303   7.202 -0.0979  0.2694  0.3348
12135CHOL   ROH66766  16.863   0.072  10.648  0.0473 -0.0840 -0.0840
12135CHOL    R166767  17.060  35.372  10.833  0.0917  0.0539 -0.0671
12135CHOL    R266768  17.159  35.115  10.837  0.0762  0.0492  0.1156
12135CHOL    R366769  17.399  35.242  10.818  0.0791  0.0188 -0.0526
12135CHOL    R466770  17.467  34.965  10.889  0.0681  0.1328  0.4151
12135CHOL    R566771  17.532  35.145  10.993  0.0494  0.3063  0.1306
12135CHOL    C166772  17.871  34.997  10.900  0.0659  0.1532  0.4317
12135CHOL    C266773  18.200  34.972  10.696 -0.0055  0.1802  0.1509
12136CHOL   ROH66774  30.100  26.512   7.384 -0.1000 -0.3130 -0.1212
12136CHOL    R166775  30.120  26.523   7.102 -0.1225 -0.1284 -0.1163
12136CHOL    R266776  29.997  26.719   6.951 -0.0546  0.0263  0.0290
12136CHOL    R366777  30.248  26.758   6.855 -0.0476 -0.0125  0.0318
12136CHOL    R466778  30.084  26.954   6.713  0.0050  0.0893  0.1120
12136CHOL    R566779  30.216  26.807   6.622 -0.0431  0.0828  0.0513
12136CHOL    C166780  30.370  27.127   6.484  0.0463  0.0891  0.1631
12136CHOL    C266781  30.638  27.383   6.346 -0.2275 -0.0467  0.1536
12137CHOL   ROH66782  12.032  32.241  19.970  0.0393 -0.1451 -0.1428
12137CHOL    R166783  12.096  32.386  19.736 -0.0566 -0.0587 -0.1150
12137CHOL    R266784  12.053  32.286  19.482 -0.0167 -0.0276 -0.1342
12137CHOL    R366785  11.915  32.518  19.449 -0.1483 -0.0977 -0.0748
12137CHOL    R466786  11.833  32.349  19.223 -0.0824 -0.1007 -0.0961
12137CHOL    R566787  11.913  32.552  19.212 -0.1953 -0.0546 -0.0685
12137CHOL    C166788  11.575  32.604  19.041 -0.2444 -0.2092 -0.0187
12137CHOL    C266789  11.297  32.310  18.952  0.0020  0.0672  0.0258
12138CHOL   ROH66790  17.812  23.941  19.539 -0.1936 -0.0517  0.0667
12138CHOL    R166791  17.531  23.911  19.556 -0.1959 -0.0633  0.0051
12138CHOL    R266792  17.356  24.049  19.392 -0.1697  0.0188  0.0474
12138CHOL    R366793  17.263  23.800  19.336 -0.1593  0.0461 -0.0958
12138CHOL    R466794  17.041  23.979  19.269 -0.1389  0.0832 -0.0690
12138CHOL    R566795  17.033  23.806  19.402 -0.1770  0.0193 -0.1530
12138CHOL    C166796  16.770  23.704  19.145 -0.1110  0.1457 -0.2715
12138CHOL    C266797  16.654  23.826  18.882  0.0567 -0.1437 -0.1134
12139CHOL   ROH66798   7.201   1.542  14.992 -0.2590  0.1168 -0.0310
12139CHOL    R166799   7.070   1.472  15.233  0.0679 -0.1778  0.0653
12139CHOL    R266800   7.207   1.421  15.468  0.3486  0.3070  0.0144
12139CHOL    R366801   7.041   1.611  15.569 -0.1585 -0.1308  0.0267
12139CHOL    R466802   7.201   1.522  15.798  0.4066  0.5897 -0.0696
12139CHOL    R566803   6.983   1.530  15.786  0.3560 -0.1274  0.1712
12139CHOL    C166804   7.041   1.759  16.085 -0.0360  0.3433 -0.1069
12139CHOL    C266805   7.048   1.818  16.486 -0.0054 -0.0311 -0.1626
12140CHOL   ROH66806   6.198   4.348  13.583  0.0328 -0.4356  0.0394
12140CHOL    R166807   6.050   4.365  13.824 -0.0448 -0.4115 -0.0094
12140CHOL    R266808   5.878   4.573  13.878  0.0915 -0.2998  0.0014
12140CHOL    R366809   5.699   4.372  13.918 -0.0755 -0.1808 -0.1389
12140CHOL    R466810   5.597   4.596  14.079  0.2995 -0.3162  0.2967
12140CHOL    R566811   5.637   4.394  14.149  0.1604 -0.4659 -0.0469
12140CHOL    C166812   5.266   4.421  14.234  0.2638 -0.2141  0.3370
12140CHOL    C266813   5.016   4.288  14.399  0.0385 -0.0222  0.0423
12141CHOL   ROH66814  28.883  10.662   1.238 -0.1285  0.0621 -0.0174
12141CHOL    R166815  28.957  10.742   1.499 -0.2668 -0.0057  0.0433
12141CHOL    R266816  28.862  10.616   1.726 -0.0799 -0.3194 -0.0502
12141CHOL    R366817  29.127  10.591   1.783 -0.0404  0.0571 -0.0573
12141CHOL    R466818  28.999  10.643   2.042 -0.1186 -0.1931 -0.0440
12141CHOL    R566819  29.166  10.753   1.955 -0.2798  0.0753 -0.0184
12141CHOL    C166820  29.327  10.635   2.280 -0.1040  0.2340 -0.0470
12141CHOL    C266821  29.335  10.943   2.550  0.1966  0.1165 -0.2216
12142CHOL   ROH66822  15.398  29.425  15.914  0.1517 -0.1999  0.1413
12142CHOL    R166823  15.573  29.636  15.985  0.0565 -0.1123  0.1180
12142CHOL    R266824  15.730  29.629  16.212  0.0940 -0.0360  0.0951
12142CHOL    R366825  15.931  29.677  16.035  0.0439  0.0667  0.0656
12142CHOL    R466826  16.043  29.750  16.296  0.1034 -0.0448  0.0713
12142CHOL    R566827  16.038  29.875  16.118  0.0454  0.0387  0.1314
12142CHOL    C166828  16.414  29.864  16.180  0.0622  0.0469  0.0295
12142CHOL    C266829  16.601  29.893  16.540  0.2364 -0.3034  0.2618
12143CHOL   ROH66830  29.190  10.279   5.090  0.1302 -0.2168 -0.0242
12143CHOL    R166831  29.328  10.256   4.844  0.3048 -0.2990  0.0798
12143CHOL    R266832  29.433  10.017   4.754 -0.0596 -0.4369  0.0060
12143CHOL    R366833  29.284  10.072   4.533  0.2309 -0.0027 -0.0868
12143CHOL    R466834  29.497   9.893   4.438 -0.2195 -0.6187  0.0441
12143CHOL    R566835  29.445  10.089   4.356  0.3939 -0.4626  0.0130
12143CHOL    C166836  29.395   9.872   4.046 -0.0403 -0.3170 -0.0209
12143CHOL    C266837  29.712   9.758   3.828 -0.1096 -0.2481 -0.1428
12144CHOL   ROH66838   6.484  26.932  16.906  0.1371 -0.3435  0.0480
12144CHOL    R166839   6.307  27.028  17.105  0.2465 -0.1757  0.0650
12144CHOL    R266840   6.049  26.934  17.132  0.1495  0.0915  0.0696
12144CHOL    R366841   6.127  26.888  17.388  0.1131 -0.0123  0.0621
12144CHOL    R466842   5.835  26.913  17.402  0.1273  0.1875  0.0603
12144CHOL    R566843   5.980  27.024  17.520  0.2036  0.0648  0.0854
12144CHOL    C166844   5.783  26.856  17.800  0.0804  0.1460  0.0479
12144CHOL    C266845   5.903  26.575  17.922 -0.3017  0.1735 -0.1240
12145CHOL   ROH66846  25.436  28.523   8.911  0.1080  0.1968  0.1191
12145CHOL    R166847  25.317  28.689   8.715 -0.1694 -0.0002  0.1183
12145CHOL    R266848  25.431  28.732   8.468 -0.1552  0.3177  0.1787
12145CHOL    R366849  25.189  28.648   8.377  0.0571 -0.1798  0.0526
12145CHOL    R466850  25.322  28.760   8.141 -0.2188  0.5259  0.2170
12145CHOL    R566851  25.125  28.814   8.217 -0.3696 -0.0971  0.2994
12145CHOL    C166852  25.031  28.698   7.865 -0.0564  0.1800  0.1211
12145CHOL    C266853  24.894  28.799   7.565  0.1449  0.0469 -0.2562
12146CHOL   ROH66854   5.276  33.819  18.427  0.1007  0.1703  0.1162
12146CHOL    R166855   5.533  33.933  18.387  0.1440  0.0328 -0.0027
12146CHOL    R266856   5.735  33.801  18.253  0.0148 -0.0806 -0.0867
12146CHOL    R366857   5.739  34.027  18.102  0.0680 -0.0889 -0.0984
12146CHOL    R466858   6.019  33.941  18.115  0.1037  0.0690  0.2447
12146CHOL    R566859   5.941  34.138  18.167 -0.0709  0.0298  0.1379
12146CHOL    C166860   6.188  34.235  17.893  0.2053  0.1482  0.4270
12146CHOL    C266861   6.305  34.374  17.571 -0.2146 -0.2167  0.0095
12147CHOL   ROH66862  33.654  13.491   5.595  0.2176  0.1857  0.0691
12147CHOL    R166863  33.686  13.341   5.357  0.2903 -0.0300  0.2131
12147CHOL    R266864  33.657  13.453   5.106 -0.1967 -0.3830  0.1058
12147CHOL    R366865  33.906  13.350   5.067 -0.0152  0.0910 -0.0176
12147CHOL    R466866  33.796  13.385   4.797 -0.2575 -0.2062  0.0392
12147CHOL    R566867  33.880  13.202   4.881  0.1572 -0.0199  0.0453
12147CHOL    C166868  34.110  13.249   4.580 -0.1213  0.3415 -0.1154
12147CHOL    C266869  34.270  13.106   4.238 -0.0584 -0.0669 -0.4837
12148CHOL   ROH66870  31.892  13.620   1.086  0.0607  0.1423  0.0184
12148CHOL    R166871  31.790  13.654   1.348  0.0074  0.2832 -0.0203
12148CHOL    R266872  31.631  13.868   1.419 -0.1840  0.2097 -0.2232
12148CHOL    R366873  31.461  13.673   1.503 -0.0249  0.1358 -0.0689
12148CHOL    R466874  31.391  13.908   1.664 -0.2314  0.2148 -0.2700
12148CHOL    R566875  31.441  13.709   1.739 -0.0675  0.3183 -0.0993
12148CHOL    C166876  31.091  13.748   1.886 -0.1096  0.1481 -0.1524
12148CHOL    C266877  30.854  13.780   1.898  0.0103  0.0283 -0.1403
12149CHOL   ROH66878   7.513  31.200  16.635 -0.1018  0.2263 -0.0044
12149CHOL    R166879   7.410  31.320  16.869  0.0060  0.1892  0.0618
12149CHOL    R266880   7.139  31.341  16.918  0.0294  0.2146  0.1727
12149CHOL    R366881   7.203  31.215  17.150  0.1025  0.1577  0.1221
12149CHOL    R466882   6.929  31.313  17.192  0.1043  0.1301  0.2216
12149CHOL    R566883   7.101  31.349  17.321  0.1390  0.1081  0.1848
12149CHOL    C166884   6.868  31.178  17.569  0.2163  0.0275  0.2026
12149CHOL    C266885   6.776  30.973  17.876  0.2998 -0.3030 -0.1171
12150CHOL   ROH66886  12.293   3.121  18.142  0.0040  0.1349  0.0226
12150CHOL    R166887  12.206   3.257  17.910  0.3052  0.0478 -0.1442
12150CHOL    R266888  12.246   3.158  17.655  0.2241 -0.2797 -0.0341
12150CHOL    R366889  11.977   3.191  17.634  0.2818  0.1477 -0.1484
12150CHOL    R466890  12.065   3.120  17.363  0.2048 -0.6119  0.0196
12150CHOL    R566891  11.946   3.294  17.420  0.4992 -0.2726 -0.3864
12150CHOL    C166892  11.707   3.129  17.174  0.2478 -0.4041 -0.0567
12150CHOL    C266893  11.553   3.286  17.010  0.1490 -0.1470  0.0331
12151CHOL   ROH66894  20.336  27.532  14.833 -0.1390  0.1182  0.0068
12151CHOL    R166895  20.148  27.340  14.923 -0.0681  0.0044 -0.0856
12151CHOL    R266896  19.913  27.411  15.049  0.0279 -0.1519  0.1907
12151CHOL    R366897  19.800  27.258  14.854 -0.1234  0.0948  0.0834
12151CHOL    R466898  19.627  27.220  15.087  0.1717 -0.3593  0.2307
12151CHOL    R566899  19.722  27.063  14.969  0.1131 -0.1270 -0.1268
12151CHOL    C166900  19.355  26.965  14.927  0.1127 -0.2482  0.1534
12151CHOL    C266901  19.072  26.688  14.799 -0.0821  0.0963  0.3211
12152CHOL   ROH66902  20.986   7.540  11.319  0.0060  0.0423  0.0773
12152CHOL    R166903  21.228   7.588  11.458  0.0435 -0.0091  0.0305
12152CHOL    R266904  21.251   7.558  11.732  0.0706  0.0554  0.0353
12152CHOL    R366905  21.457   7.395  11.665  0.0021 -0.0383  0.0497
12152CHOL    R466906  21.537   7.514  11.921  0.0851  0.0088  0.0023
12152CHOL    R566907  21.653   7.514  11.736  0.0559 -0.0867 -0.0167
12152CHOL    C166908  21.898   7.335  11.967  0.0293 -0.1063 -0.0034
12152CHOL    C266909  22.057   7.562  12.181  0.1534  0.1400  0.2942
12153CHOL   ROH66910  14.073   9.833  18.135  0.1081  0.2361  0.1240
12153CHOL    R166911  13.982   9.939  17.889  0.0072  0.1873  0.1404
12153CHOL    R266912  14.069   9.844  17.645  0.0135  0.2339  0.1251
12153CHOL    R366913  13.803   9.814  17.597  0.0208  0.0921  0.1718
12153CHOL    R466914  13.915   9.902  17.341 -0.0796  0.2114  0.1682
12153CHOL    R566915  13.748   9.993  17.449 -0.1110  0.0937  0.2213
12153CHOL    C166916  13.575   9.908  17.120 -0.1270  0.0649  0.2371
12153CHOL    C266917  13.705   9.975  16.729  0.0757 -0.0969  0.0600
12154CHOL   ROH66918   4.889  20.410  16.197  0.1412 -0.3073 -0.0047
12154CHOL    R166919   5.169  20.414  16.156  0.1364 -0.2041 -0.0292
12154CHOL    R266920   5.298  20.232  15.993  0.1683 -0.0493 -0.1772
12154CHOL    R366921   5.395  20.456  15.874  0.0994  0.0655 -0.0194
12154CHOL    R466922   5.583  20.244  15.798  0.1068  0.1545 -0.2550
12154CHOL    R566923   5.633  20.435  15.891  0.1082  0.0841 -0.1100
12154CHOL    C166924   5.839  20.462  15.572  0.0064  0.3805 -0.1522
12154CHOL    C266925   6.207  20.587  15.443  0.2516 -0.0089  0.0057
12155CHOL   ROH66926  28.826  22.790   4.215  0.1052 -0.0439 -0.1276
12155CHOL    R166927  28.836  23.025   4.059  0.1711 -0.1341 -0.2601
12155CHOL    R266928  28.929  23.027   3.799 -0.1819 -0.3767 -0.3901
12155CHOL    R366929  28.688  23.143   3.748 -0.1172 -0.1165 -0.1180
12155CHOL    R466930  28.881  23.304   3.597 -0.1234 -0.4004 -0.4369
12155CHOL    R566931  28.735  23.378   3.741  0.1497 -0.1720 -0.2710
12155CHOL    C166932  28.628  23.574   3.432 -0.0282 -0.1701 -0.2086
12155CHOL    C266933  28.813  23.880   3.165  0.1248 -0.2015 -0.1417
12156CHOL   ROH66934   0.940   3.080  10.367 -0.0864 -0.0596 -0.0703
12156CHOL    R166935   1.216   3.026  10.340 -0.0954 -0.1094 -0.0610
12156CHOL    R266936   1.332   2.961  10.098 -0.0892 -0.0731 -0.0669
12156CHOL    R366937   1.497   3.168  10.157 -0.0506 -0.1219 -0.0025
12156CHOL    R466938   1.592   3.069   9.898 -0.1707  0.0417 -0.1118
12156CHOL    R566939   1.712   3.098  10.078 -0.0890 -0.0843 -0.1445
12156CHOL    C166940   1.899   3.327   9.838 -0.1819  0.0626 -0.0775
12156CHOL    C266941   2.170   3.239   9.528  0.2147 -0.2081 -0.0862
12157CHOL   ROH66942  21.000   7.291  15.352 -0.0184  0.0118 -0.1648
12157CHOL    R166943  20.721   7.307  15.305 -0.0587  0.1253  0.1062
12157CHOL    R266944  20.586   7.548  15.293  0.0727  0.1943 -0.0214
12157CHOL    R366945  20.503   7.452  15.053 -0.2331 -0.0267  0.1684
12157CHOL    R466946  20.322   7.676  15.110  0.0217  0.2082  0.0615
12157CHOL    R566947  20.264   7.472  15.060 -0.2100  0.1971  0.3629
12157CHOL    C166948  20.090   7.661  14.778 -0.2946  0.0087  0.2883
12157CHOL    C266949  19.871   7.898  14.655 -0.6894 -0.0656  0.0584
12158CHOL   ROH66950  17.222  19.183  18.823 -0.2423  0.1432 -0.0127
12158CHOL    R166951  17.215  19.289  18.561 -0.2310  0.1623 -0.0053
12158CHOL    R266952  17.167  19.132  18.338 -0.1584  0.1685 -0.0242
12158CHOL    R366953  16.970  19.314  18.293 -0.1978  0.1219 -0.0396
12158CHOL    R466954  17.014  19.184  18.033 -0.0675  0.2094 -0.0629
12158CHOL    R566955  17.017  19.398  18.074 -0.1467  0.1993  0.0004
12158CHOL    C166956  16.739  19.385  17.813 -0.0523  0.1895 -0.1003
12158CHOL    C266957  16.554  19.544  17.487 -0.0810 -0.1149 -0.0273
12159CHOL   ROH66958  33.790   7.050   6.222  0.1164  0.4006 -0.3311
12159CHOL    R166959  33.589   7.142   6.399  0.0557  0.1962 -0.2920
12159CHOL    R266960  33.641   7.323   6.601 -0.0643  0.1539 -0.2238
12159CHOL    R366961  33.439   7.463   6.485 -0.1620  0.0619 -0.1659
12159CHOL    R466962  33.457   7.571   6.757 -0.1331  0.0698 -0.1705
12159CHOL    R566963  33.278   7.492   6.660 -0.1255 -0.0121 -0.1195
12159CHOL    C166964  33.160   7.846   6.738 -0.2648 -0.0655 -0.0851
12159CHOL    C266965  32.935   7.858   7.094 -0.1673  0.0300 -0.1227
12160CHOL   ROH66966   4.510  34.240  17.945  0.0233  0.0172 -0.0840
12160CHOL    R166967   4.695  34.112  17.774 -0.1092 -0.1026 -0.1389
12160CHOL    R266968   4.674  34.122  17.498  0.0060  0.2013 -0.1371
12160CHOL    R366969   4.930  34.214  17.514  0.1480 -0.2086  0.0489
12160CHOL    R466970   4.918  34.072  17.258 -0.0813  0.3323 -0.2539
12160CHOL    R566971   5.062  34.040  17.418 -0.1174 -0.2159 -0.3193
12160CHOL    C166972   5.299  34.130  17.133  0.0010  0.0242 -0.1471
12160CHOL    C266973   5.588  33.952  17.096  0.0039  0.0557 -0.1646
12161CHOL   ROH66974  21.800  10.088   9.480  0.0063 -0.2212  0.1047
12161CHOL    R166975  22.065  10.001   9.526  0.0813 -0.1051 -0.1006
12161CHOL    R266976  22.279  10.089   9.375 -0.0243  0.2525 -0.0475
12161CHOL    R366977  22.382  10.154   9.618  0.0051 -0.0149  0.0131
12161CHOL    R466978  22.613  10.152   9.437  0.0000  0.0756  0.0056
12161CHOL    R566979  22.594  10.042   9.624 -0.0341 -0.0962 -0.0978
12161CHOL    C166980  22.904  10.250   9.701  0.0413 -0.2781  0.0935
12161CHOL    C266981  23.049  10.546   9.856  0.0547 -0.0382 -0.5454
12162CHOL   ROH66982  30.418   0.060   8.678  0.0690 -0.2004  0.0270
12162CHOL    R166983  30.140   0.091   8.721  0.0963 -0.0111  0.0691
12162CHOL    R266984  30.013   0.335   8.696  0.2405  0.0559 -0.0159
12162CHOL    R366985  29.853   0.198   8.524  0.1215  0.0750  0.0790
12162CHOL    R466986  29.698   0.437   8.595  0.2441  0.1568  0.0743
12162CHOL    R566987  29.631   0.230   8.611  0.1659  0.1871  0.1533
12162CHOL    C166988  29.365   0.367   8.375  0.1338  0.2336  0.2161
12162CHOL    C266989  28.954   0.402   8.464  0.1467 -0.0362  0.0033
12163CHOL   ROH66990   6.937  24.713  17.684  0.0880 -0.0904  0.0399
12163CHOL    R166991   6.860  24.512  17.868 -0.0349 -0.1396 -0.0643
12163CHOL    R266992   6.622  24.520  18.007  0.0789  0.0614  0.1244
12163CHOL    R366993   6.588  24.272  17.900 -0.3258  0.1896 -0.0522
12163CHOL    R466994   6.525  24.240  18.185  0.3389 -0.0624  0.0744
12163CHOL    R566995   6.668  24.123  18.069 -0.0041 -0.0332 -0.3941
12163CHOL    C166996   6.436  23.844  18.187  0.1104 -0.0138 -0.1203
12163CHOL    C266997   6.496  23.555  18.368 -0.0539 -0.1339 -0.2719
12164CHOL   ROH66998  29.086  28.949   5.000  0.0151  0.0015 -0.1806
12164CHOL    R166999  29.018  28.809   5.237 -0.0326  0.0956 -0.1381
12164CHOL    R267000  29.139  28.571   5.308 -0.1740  0.0312 -0.1106
12164CHOL    R367001  29.189  28.704   5.540 -0.0437  0.0480 -0.1480
12164CHOL    R467002  29.190  28.420   5.615  0.0751  0.0505 -0.1412
12164CHOL    R567003  29.071  28.579   5.707  0.1015  0.0246 -0.0627
12164CHOL    C167004  29.267  28.457   6.012  0.3421  0.0783 -0.1944
12164CHOL    C267005  29.176  28.329   6.375 -0.0471 -0.0059 -0.0027
12165CHOL   ROH67006   1.018  16.976   2.942  0.0753 -0.2479  0.1152
12165CHOL    R167007   0.907  16.956   3.202  0.1011  0.0437  0.1514
12165CHOL    R267008   0.801  17.173   3.336  0.0328  0.1796 -0.1165
12165CHOL    R367009   0.582  17.012   3.356  0.0919  0.1251  0.1016
12165CHOL    R467010   0.484  17.280   3.425  0.0176  0.1612 -0.1488
12165CHOL    R567011   0.462  17.099   3.544  0.1086  0.2756  0.0420
12165CHOL    C167012   0.095  17.192   3.495  0.0643  0.0992  0.0371
12165CHOL    C267013   0.000  17.139   3.852 -0.0090  0.1829 -0.1925
12166CHOL   ROH67014  16.922  22.661  15.945  0.0835 -0.0284  0.0061
12166CHOL    R167015  17.114  22.492  16.067  0.2731  0.0267 -0.2132
12166CHOL    R267016  17.377  22.567  16.101  0.0930  0.4640  0.2844
12166CHOL    R367017  17.328  22.504  16.361 -0.0942 -0.3127  0.0735
12166CHOL    R467018  17.620  22.499  16.338 -0.0362  0.5430  0.4402
12166CHOL    R567019  17.493  22.340  16.415  0.2844 -0.0036 -0.1184
12166CHOL    C167020  17.714  22.401  16.720 -0.2873 -0.1401  0.3327
12166CHOL    C267021  17.951  22.145  16.838 -0.0384  0.1684 -0.1811
12167CHOL   ROH67022  22.611  10.310  10.901  0.3059 -0.1676  0.1527
12167CHOL    R167023  22.430  10.392  11.102  0.2338 -0.2877  0.1371
12167CHOL    R267024  22.467  10.333  11.369  0.3096 -0.1649  0.1547
12167CHOL    R367025  22.441  10.602  11.399  0.0382 -0.1807  0.0696
12167CHOL    R467026  22.501  10.502  11.668  0.5217  0.0070  0.0350
12167CHOL    R567027  22.332  10.627  11.611  0.2958 -0.2148  0.2078
12167CHOL    C167028  22.496  10.853  11.871  0.3904  0.0921 -0.1146
12167CHOL    C267029  22.528  10.818  12.299  0.0465 -0.2592  0.0828
12168CHOL   ROH67030  16.310  33.608  17.243 -0.0346  0.1313  0.1300
12168CHOL    R167031  16.159  33.547  17.012  0.0414  0.0660  0.0973
12168CHOL    R267032  16.078  33.290  16.951  0.0159  0.0571  0.1718
12168CHOL    R367033  15.832  33.405  16.941  0.0411  0.0995  0.0304
12168CHOL    R467034  15.799  33.145  16.808  0.0378  0.0347  0.1526
12168CHOL    R567035  15.745  33.341  16.727  0.1017  0.0050  0.0328
12168CHOL    C167036  15.405  33.169  16.714  0.0735  0.0619  0.0080
12168CHOL    C267037  15.272  33.067  16.409 -0.1122  0.0448  0.2245
12169CHOL   ROH67038   7.079  27.001  17.497 -0.5199  0.0805  0.0523
12169CHOL    R167039   6.956  27.042  17.749 -0.2520  0.0429  0.1904
12169CHOL    R267040   6.802  26.849  17.873 -0.2939  0.0998  0.2282
12169CHOL    R367041   6.974  26.890  18.080 -0.0656 -0.1522  0.0914
12169CHOL    R467042   6.709  26.879  18.204  0.0443 -0.0357  0.3382
12169CHOL    R567043   6.856  27.038  18.226  0.1811 -0.1560  0.2968
12169CHOL    C167044   6.816  26.935  18.591  0.4556 -0.3510  0.2736
12169CHOL    C267045   6.436  27.041  18.626 -0.2254  0.1645  0.0113
12170CHOL   ROH67046   0.607   9.263   5.057 -0.0500  0.0951 -0.2592
12170CHOL    R167047   0.390   9.443   5.075  0.0024  0.1440 -0.0960
12170CHOL    R267048   0.147   9.374   5.187 -0.0400  0.0930 -0.2110
12170CHOL    R367049   0.192   9.594   5.340  0.0073 -0.0892  0.0402
12170CHOL    R467050  35.286   9.587   5.303  0.0370  0.1894 -0.2256
12170CHOL    R567051   0.033   9.755   5.261  0.2137  0.1202  0.0536
12170CHOL    C167052  35.185   9.918   5.515  0.1255  0.0742  0.0016
12170CHOL    C267053  34.865   9.824   5.700  0.0502  0.1117 -0.1041
12171CHOL   ROH67054  27.143  18.655   4.197  0.0733  0.1496 -0.1950
12171CHOL    R167055  27.024  18.726   3.951  0.2460  0.1320 -0.2852
12171CHOL    R267056  27.115  18.630   3.708  0.1959 -0.1683 -0.1893
12171CHOL    R367057  26.856  18.553   3.678  0.0988  0.1573 -0.2105
12171CHOL    R467058  26.965  18.553   3.406  0.1749 -0.1625 -0.1801
12171CHOL    R567059  26.786  18.656   3.474  0.2934  0.1207 -0.2957
12171CHOL    C167060  26.635  18.435   3.203  0.0718  0.1463 -0.1946
12171CHOL    C267061  26.687  18.629   2.961 -0.1637  0.0044  0.1654
12172CHOL   ROH67062  32.784  30.431   7.727  0.3351 -0.0571  0.2151
12172CHOL    R167063  32.709  30.317   7.975  0.1949  0.0603  0.2271
12172CHOL    R267064  32.700  30.464   8.209 -0.0373  0.1952  0.1350
12172CHOL    R367065  32.445  30.369   8.221 -0.0096  0.1020  0.0012
12172CHOL    R467066  32.518  30.422   8.500 -0.0664 -0.1602  0.0677
12172CHOL    R567067  32.441  30.235   8.419  0.0053 -0.1030 -0.1359
12172CHOL    C167068  32.174  30.309   8.680 -0.0563 -0.4548 -0.0968
12172CHOL    C267069  31.830  30.170   8.727  0.1112  0.0262  0.2786
12173CHOL   ROH67070   7.405  15.734  16.929  0.2994 -0.3269  0.1398
12173CHOL    R167071   7.641  15.831  16.806  0.1917 -0.2224  0.0141
12173CHOL    R267072   7.752  15.710  16.584  0.1351 -0.1815 -0.0380
12173CHOL    R367073   7.734  15.960  16.479 -0.0367 -0.1948 -0.0408
12173CHOL    R467074   7.824  15.792  16.256  0.1134 -0.1277 -0.0290
12173CHOL    R567075   7.919  15.975  16.327 -0.0300 -0.0578 -0.0185
12173CHOL    C167076   7.848  16.075  15.966 -0.0604 -0.1089 -0.0264
12173CHOL    C267077   7.814  16.093  15.514  0.2069 -0.0118 -0.1979
12174CHOL   ROH67078   5.472  12.803  15.209 -0.1029  0.0930 -0.0100
12174CHOL    R167079   5.565  13.013  15.043 -0.1689  0.1140 -0.0213
12174CHOL    R267080   5.834  13.074  15.018 -0.1939  0.2668  0.0592
12174CHOL    R367081   5.782  13.044  14.752 -0.0856  0.1796  0.0476
12174CHOL    R467082   6.042  13.179  14.762 -0.1233  0.2443  0.1078
12174CHOL    R567083   5.866  13.245  14.652 -0.0965  0.1703  0.0225
12174CHOL    C167084   6.114  13.212  14.365  0.0197  0.1492  0.1252
12174CHOL    C267085   6.103  13.094  13.985 -0.2699  0.0634 -0.0547
12175CHOL   ROH67086  33.173  12.984   1.669  0.0777  0.0202 -0.0385
12175CHOL    R167087  33.062  12.928   1.923 -0.0225  0.0153 -0.0825
12175CHOL    R267088  33.177  12.748   2.099 -0.1279 -0.0392 -0.0678
12175CHOL    R367089  33.168  12.958   2.270 -0.1286 -0.0592 -0.0434
12175CHOL    R467090  33.154  12.721   2.443  0.0469 -0.0800 -0.0589
12175CHOL    R567091  33.015  12.889   2.441 -0.0198 -0.1348  0.0235
12175CHOL    C167092  33.133  12.904   2.804  0.1483 -0.1226 -0.0310
12175CHOL    C267093  33.252  13.227   2.965 -0.1144  0.0240  0.2411
12176CHOL   ROH67094   3.511  11.650   9.241 -0.0484  0.2457  0.0106
12176CHOL    R167095   3.248  11.655   9.346 -0.0031  0.0674  0.1357
12176CHOL    R267096   3.033  11.543   9.214 -0.0482  0.2304  0.0699
12176CHOL    R367097   2.999  11.410   9.449  0.0705 -0.1090 -0.1014
12176CHOL    R467098   2.757  11.352   9.295 -0.1501  0.3701  0.0538
12176CHOL    R567099   2.766  11.433   9.497  0.1401  0.0442  0.1772
12176CHOL    C167100   2.564  11.116   9.562 -0.0981  0.1331 -0.1165
12176CHOL    C267101   2.165  11.139   9.368 -0.3637 -0.1291  0.0741
12177CHOL   ROH67102  18.375   6.440  13.134  0.0466  0.0460  0.0834
12177CHOL    R167103  18.463   6.374  13.395 -0.0147 -0.0594  0.0777
12177CHOL    R267104  18.291   6.291  13.594 -0.0576 -0.1624 -0.0031
12177CHOL    R367105  18.461   6.080  13.609 -0.0415 -0.1531 -0.0503
12177CHOL    R467106  18.372   6.124  13.885  0.0481 -0.1420 -0.0211
12177CHOL    R567107  18.579   6.113  13.815  0.0265 -0.1352 -0.0908
12177CHOL    C167108  18.580   5.828  14.069  0.1248 -0.1213 -0.0755
12177CHOL    C267109  18.541   5.671  14.373 -0.0119  0.1647  0.0796
12178CHOL   ROH67110  25.235   4.132  10.561 -0.0799 -0.2933  0.1747
12178CHOL    R167111  25.015   3.985  10.460 -0.1394 -0.1081  0.0314
12178CHOL    R267112  24.827   4.096  10.290  0.0296  0.0680 -0.0432
12178CHOL    R367113  24.893   3.884  10.132 -0.0467  0.0518 -0.0528
12178CHOL    R467114  24.679   4.023   9.986  0.1360  0.2435 -0.1380
12178CHOL    R567115  24.684   3.812  10.040 -0.0532  0.2291 -0.1800
12178CHOL    C167116  24.654   3.782   9.661  0.1265  0.3303 -0.2022
12178CHOL    C267117  24.235   3.941   9.631  0.0806 -0.1191  0.0368
12179CHOL   ROH67118  18.862   2.022  14.123  0.0803  0.1899 -0.1002
12179CHOL    R167119  18.913   2.081  13.851  0.0237 -0.0633 -0.1669
12179CHOL    R267120  18.880   1.894  13.649 -0.3800 -0.1433 -0.0316
12179CHOL    R367121  18.721   2.087  13.541 -0.1396  0.0377 -0.0647
12179CHOL    R467122  18.762   1.893  13.325 -0.2789  0.0126 -0.0694
12179CHOL    R567123  18.799   2.108  13.315 -0.0452 -0.0253 -0.0385
12179CHOL    C167124  18.544   2.074  13.034  0.0055  0.2734 -0.1222
12179CHOL    C267125  18.394   1.956  12.738  0.0709 -0.1640  0.7612
12180CHOL   ROH67126   5.274   1.025  17.690 -0.0012 -0.2020  0.0384
12180CHOL    R167127   5.521   0.891  17.719  0.1145 -0.0038 -0.0212
12180CHOL    R267128   5.565   0.636  17.622  0.1740 -0.1199  0.3031
12180CHOL    R367129   5.775   0.754  17.497 -0.0292 -0.1638 -0.0873
12180CHOL    R467130   5.851   0.471  17.520  0.2138 -0.0672  0.3298
12180CHOL    R567131   5.968   0.642  17.587  0.1401  0.1424 -0.0666
12180CHOL    C167132   6.215   0.485  17.343  0.0464 -0.0777 -0.0208
12180CHOL    C267133   6.543   0.400  17.160  0.0778  0.0432 -0.2960
12181CHOL   ROH67134  29.970   9.817   5.519  0.4055 -0.0416 -0.0162
12181CHOL    R167135  30.133   9.638   5.372  0.2419 -0.1965 -0.0100
12181CHOL    R267136  30.033   9.412   5.250  0.0076 -0.0316 -0.1258
12181CHOL    R367137  30.152   9.517   5.029  0.2287 -0.1050 -0.0431
12181CHOL    R467138  30.106   9.236   4.962 -0.1131 -0.0232 -0.1621
12181CHOL    R567139  30.295   9.343   4.950  0.0326 -0.2646 -0.0518
12181CHOL    C167140  30.260   9.232   4.587  0.0243 -0.0869 -0.1055
12181CHOL    C267141  30.096   9.350   4.244 -0.1523  0.0798 -0.0967
12182CHOL   ROH67142  18.140  19.005  18.026  0.0289 -0.0062  0.0470
12182CHOL    R167143  18.037  19.250  17.928  0.1068  0.0086  0.0002
12182CHOL    R267144  18.100  19.348  17.677  0.0862 -0.0931 -0.0455
12182CHOL    R367145  17.829  19.356  17.648  0.0813  0.0114  0.0200
12182CHOL    R467146  17.932  19.523  17.431  0.0860  0.1143  0.1005
12182CHOL    R567147  17.783  19.580  17.579  0.1373  0.0702  0.1701
12182CHOL    C167148  17.582  19.632  17.259  0.0813  0.3329  0.2467
12182CHOL    C267149  17.360  19.928  17.044 -0.0810 -0.0424 -0.1063
12183CHOL   ROH67150  31.233  22.718   3.958 -0.2045  0.0300 -0.1558
12183CHOL    R167151  31.399  22.787   3.739 -0.1040  0.0893 -0.0621
12183CHOL    R267152  31.336  22.718   3.479  0.1396 -0.0582 -0.0837
12183CHOL    R367153  31.367  22.985   3.436 -0.0540 -0.0471 -0.1571
12183CHOL    R467154  31.547  22.857   3.242  0.1019  0.0317 -0.0645
12183CHOL    R567155  31.600  23.011   3.387 -0.0595  0.1183 -0.0962
12183CHOL    C167156  31.698  23.189   3.064 -0.1016  0.0936 -0.1221
12183CHOL    C267157  31.801  23.410   2.868  0.4241 -0.3207 -0.0004
12184CHOL   ROH67158   0.809  17.442   7.129 -0.2345  0.1213 -0.1897
12184CHOL    R167159   1.027  17.486   6.954 -0.1130  0.0467 -0.0584
12184CHOL    R267160   1.249  17.322   6.949 -0.1425  0.0010  0.1127
12184CHOL    R367161   1.190  17.304   6.684  0.0236 -0.0334  0.0774
12184CHOL    R467162   1.453  17.176   6.711 -0.0323 -0.1095  0.2737
12184CHOL    R567163   1.401  17.338   6.574  0.1061 -0.1202  0.2070
12184CHOL    C167164   1.516  17.074   6.324  0.1879 -0.2058  0.3341
12184CHOL    C267165   1.818  17.130   6.343 -0.2226 -0.0474 -0.2463
12185CHOL   ROH67166   7.275  17.984  17.497  0.0246  0.1104 -0.1170
12185CHOL    R167167   7.137  18.142  17.307 -0.0597  0.0221 -0.1291
12185CHOL    R267168   7.266  18.312  17.133 -0.1631  0.2141 -0.0190
12185CHOL    R367169   7.129  18.172  16.945  0.0682  0.1252 -0.1243
12185CHOL    R467170   7.256  18.391  16.796 -0.0751  0.2930 -0.0038
12185CHOL    R567171   7.044  18.340  16.796 -0.0260  0.0811 -0.1213
12185CHOL    C167172   7.120  18.306  16.424  0.1933  0.2548 -0.0934
12185CHOL    C267173   6.897  18.610  16.131 -0.0072  0.1253 -0.0765
12186CHOL   ROH67174  13.959   3.458  16.492  0.1617 -0.2053  0.0931
12186CHOL    R167175  13.854   3.478  16.230  0.0954 -0.0760  0.1291
12186CHOL    R267176  13.908   3.291  16.034  0.1267  0.0730 -0.0047
12186CHOL    R367177  13.637   3.279  16.016  0.1270 -0.0233  0.0473
12186CHOL    R467178  13.734   3.199  15.751  0.1028  0.1610 -0.0193
12186CHOL    R567179  13.589   3.356  15.794  0.0496  0.0813  0.0998
12186CHOL    C167180  13.377   3.133  15.569  0.0895  0.1219  0.0215
12186CHOL    C267181  13.061   3.131  15.322  0.1590  0.1422  0.2939
12187CHOL   ROH67182   7.182  23.675  16.299  0.1074 -0.1905 -0.2004
12187CHOL    R167183   6.901  23.642  16.290  0.1001 -0.1350 -0.1764
12187CHOL    R267184   6.781  23.395  16.263  0.0467 -0.1202 -0.0838
12187CHOL    R367185   6.648  23.471  16.488  0.0728 -0.0121 -0.1050
12187CHOL    R467186   6.500  23.238  16.389  0.0746 -0.0731  0.0381
12187CHOL    R567187   6.417  23.435  16.436  0.0684 -0.0547 -0.0532
12187CHOL    C167188   6.211  23.218  16.673  0.1155  0.0558  0.0887
12187CHOL    C267189   6.048  23.507  16.889  0.0763 -0.0175  0.0514
12188CHOL   ROH67190  18.063  28.972  17.780  0.0449 -0.0878 -0.3144
12188CHOL    R167191  17.950  28.837  17.559  0.0372 -0.2876 -0.1904
12188CHOL    R267192  17.906  28.564  17.557 -0.0390 -0.2782  0.0871
12188CHOL    R367193  17.652  28.638  17.493 -0.0094 -0.2736 -0.0240
12188CHOL    R467194  17.680  28.366  17.387 -0.0343 -0.3471  0.1593
12188CHOL    R567195  17.616  28.543  17.276  0.0261 -0.4072  0.0292
12188CHOL    C167196  17.310  28.320  17.227 -0.0028 -0.3821  0.0978
12188CHOL    C267197  16.978  28.134  17.100  0.0088  0.1146 -0.1028
12189CHOL   ROH67198   6.304   1.660  18.223 -0.1685  0.1053  0.0313
12189CHOL    R167199   6.369   1.518  17.987 -0.0761  0.0692  0.0784
12189CHOL    R267200   6.193   1.491  17.776 -0.0100 -0.0035  0.0340
12189CHOL    R367201   6.398   1.594  17.632  0.0130  0.0021  0.0704
12189CHOL    R467202   6.267   1.406  17.450 -0.1051  0.1818 -0.0359
12189CHOL    R567203   6.479   1.410  17.502 -0.0925  0.0512 -0.0673
12189CHOL    C167204   6.504   1.454  17.124 -0.1387  0.2949 -0.0428
12189CHOL    C267205   6.648   1.711  16.967  0.0172  0.0928  0.1708
12190CHOL   ROH67206  28.310   0.126  10.129  0.0704 -0.3017  0.1566
12190CHOL    R167207  28.221   0.262   9.897  0.1907  0.0096  0.2915
12190CHOL    R267208  28.387   0.422   9.746  0.4463 -0.3323  0.2086
12190CHOL    R367209  28.302   0.262   9.543 -0.1276 -0.0491  0.2167
12190CHOL    R467210  28.418   0.496   9.409  0.3107 -0.2612  0.2116
12190CHOL    R567211  28.218   0.415   9.378  0.0792  0.2261  0.3610
12190CHOL    C167212  28.356   0.390   9.023 -0.3075  0.0460  0.2208
12190CHOL    C267213  28.412   0.339   8.629 -0.1384  0.0250  0.1372
12191CHOL   ROH67214  21.300  16.395  14.543  0.4568 -0.0014 -0.1555
12191CHOL    R167215  21.064  16.493  14.422  0.3391 -0.0496  0.0329
12191CHOL    R267216  21.057  16.730  14.279  0.1465  0.0171  0.1489
12191CHOL    R367217  20.952  16.572  14.084  0.1020  0.0626  0.1359
12191CHOL    R467218  20.829  16.834  14.042  0.0439  0.0546  0.2635
12191CHOL    R567219  20.725  16.644  14.065  0.0837  0.0307  0.2400
12191CHOL    C167220  20.598  16.747  13.721 -0.0575  0.1185  0.3182
12191CHOL    C267221  20.293  16.717  13.660 -0.1281 -0.1262  0.1816
12192CHOL   ROH67222  10.247  23.441  18.973 -0.2494 -0.1602 -0.1345
12192CHOL    R167223  10.204  23.232  19.159 -0.2865 -0.1522 -0.1341
12192CHOL    R267224  10.236  23.266  19.431 -0.1410 -0.1947 -0.1443
12192CHOL    R367225   9.982  23.169  19.440 -0.1943 -0.0468 -0.0372
12192CHOL    R467226  10.116  23.044  19.668 -0.1499 -0.1850 -0.1396
12192CHOL    R567227  10.007  22.942  19.510 -0.2929 -0.0797 -0.1089
12192CHOL    C167228   9.808  22.824  19.814 -0.2049 -0.0401 -0.0359
12192CHOL    C267229   9.543  22.602  20.164 -0.2538 -0.2210 -0.2039
12193CHOL   ROH67230  15.510  33.216  13.081 -0.0547 -0.0365 -0.1198
12193CHOL    R167231  15.689  33.432  13.112 -0.0996 -0.0168  0.0056
12193CHOL    R267232  15.863  33.451  13.326 -0.0622 -0.1340 -0.0127
12193CHOL    R367233  16.050  33.476  13.130 -0.1064  0.0546 -0.0317
12193CHOL    R467234  16.186  33.567  13.373 -0.0345 -0.2300  0.0345
12193CHOL    R567235  16.168  33.677  13.186 -0.0652 -0.0225  0.1575
12193CHOL    C167236  16.548  33.658  13.217 -0.0599 -0.1093  0.0440
12193CHOL    C267237  16.735  33.805  13.554 -0.0111  0.0857 -0.0265
12194CHOL   ROH67238  25.499  13.863   1.905 -0.1254  0.0437 -0.0480
12194CHOL    R167239  25.575  14.047   2.106 -0.1205  0.1541 -0.1497
12194CHOL    R267240  25.781  13.996   2.284 -0.2680  0.1493  0.0217
12194CHOL    R367241  25.874  14.235   2.194 -0.0387  0.0097 -0.1160
12194CHOL    R467242  25.989  14.207   2.462 -0.1780  0.1161 -0.0443
12194CHOL    R567243  25.873  14.376   2.387 -0.0111  0.1541 -0.2201
12194CHOL    C167244  26.197  14.554   2.482  0.0902 -0.0340 -0.2119
12194CHOL    C267245  26.303  14.671   2.902 -0.0512  0.0542 -0.0435
12195CHOL   ROH67246  15.625  23.048  20.382  0.0259  0.2236  0.0884
12195CHOL    R167247  15.505  23.167  20.155  0.1106  0.1877  0.0250
12195CHOL    R267248  15.639  23.198  19.915  0.1406 -0.0148  0.0153
12195CHOL    R367249  15.424  23.066  19.815  0.0606  0.0718  0.0704
12195CHOL    R467250  15.536  23.209  19.585  0.1066 -0.0315  0.0256
12195CHOL    R567251  15.330  23.217  19.655  0.1175  0.0872  0.0505
12195CHOL    C167252  15.274  23.091  19.299  0.0115  0.0403  0.0831
12195CHOL    C267253  15.261  23.162  18.939  0.0322  0.0490 -0.2066
12196CHOL   ROH67254  35.355  23.436   2.913  0.0963 -0.2620 -0.1597
12196CHOL    R167255  35.284  23.250   3.115  0.1713 -0.1738 -0.0517
12196CHOL    R267256   0.023  23.245   3.362  0.0058  0.1808  0.0417
12196CHOL    R367257  35.153  23.265   3.454 -0.0852 -0.0378 -0.1553
12196CHOL    R467258  35.293  23.107   3.657 -0.0549  0.2438  0.0479
12196CHOL    R567259  35.109  23.053   3.554  0.0763 -0.0235 -0.0513
12196CHOL    C167260  34.987  23.046   3.916 -0.1754  0.0761 -0.1334
12196CHOL    C267261  34.820  22.961   4.282  0.1705 -0.2314  0.5989
12197CHOL   ROH67262  17.502   9.692  13.999  0.0053 -0.1124 -0.1196
12197CHOL    R167263  17.713   9.576  14.148 -0.0053 -0.1632 -0.1442
12197CHOL    R267264  17.850   9.714  14.344  0.1712 -0.1375 -0.2837
12197CHOL    R367265  17.780   9.501  14.498  0.0978 -0.0026 -0.1292
12197CHOL    R467266  18.009   9.620  14.637  0.2348 -0.0718 -0.2972
12197CHOL    R567267  17.988   9.412  14.576  0.0727 -0.0937 -0.1674
12197CHOL    C167268  18.034   9.365  14.951  0.2035  0.0928 -0.1599
12197CHOL    C267269  18.241   9.309  15.259  0.1684  0.0992 -0.0108
12198CHOL   ROH67270  33.702  20.991   1.513  0.0161 -0.1192 -0.0146
12198CHOL    R167271  33.451  20.887   1.593  0.1053 -0.2146  0.1439
12198CHOL    R267272  33.387  20.840   1.857  0.1570  0.1099  0.2168
12198CHOL    R367273  33.173  20.998   1.799  0.0228 -0.1467 -0.0024
12198CHOL    R467274  33.084  20.831   2.023  0.2460  0.2474  0.3874
12198CHOL    R567275  32.983  20.855   1.832  0.1320 -0.2111  0.3832
12198CHOL    C167276  32.707  20.974   2.066  0.1711  0.0864  0.2811
12198CHOL    C267277  32.676  20.594   2.227 -0.2173  0.1402  0.0771
12199CHOL   ROH67278  14.563  11.252  15.071  0.2963  0.2944  0.2007
12199CHOL    R167279  14.458  11.187  15.325  0.2367  0.2477  0.1644
12199CHOL    R267280  14.428  10.927  15.412 -0.1547  0.2194 -0.0449
12199CHOL    R367281  14.575  11.014  15.624  0.0183 -0.1817  0.0054
12199CHOL    R467282  14.404  10.804  15.734 -0.4856  0.1719 -0.0863
12199CHOL    R567283  14.423  11.008  15.808 -0.0278  0.1096 -0.0201
12199CHOL    C167284  14.527  10.814  16.120 -0.5160 -0.2320 -0.0633
12199CHOL    C267285  14.391  10.622  16.370  0.0869 -0.1790 -0.1510
12200CHOL   ROH67286  27.992   3.467   6.395 -0.0684  0.0373 -0.0344
12200CHOL    R167287  28.060   3.563   6.652 -0.0185 -0.0021 -0.0326
12200CHOL    R267288  28.054   3.403   6.877  0.0103 -0.0328 -0.0530
12200CHOL    R367289  28.311   3.488   6.905  0.0202 -0.0522 -0.0860
12200CHOL    R467290  28.257   3.335   7.149  0.0755 -0.1347 -0.1269
12200CHOL    R567291  28.332   3.539   7.138  0.0801 -0.1344 -0.0738
12200CHOL    C167292  28.616   3.375   7.333  0.1226 -0.2123 -0.2008
12200CHOL    C267293  28.512   3.227   7.666  0.0850  0.2562 -0.2091
12201CHOL   ROH67294  33.032  17.814   4.662 -0.1410  0.0260 -0.0747
12201CHOL    R167295  32.977  17.802   4.385 -0.1125 -0.0414 -0.0776
12201CHOL    R267296  33.175  17.771   4.195 -0.0929 -0.0788 -0.0500
12201CHOL    R367297  33.021  17.561   4.116 -0.0772 -0.1030 -0.0166
12201CHOL    R467298  33.175  17.634   3.878 -0.1877 -0.0366 -0.0686
12201CHOL    R567299  32.958  17.614   3.891 -0.1781 -0.0870  0.0149
12201CHOL    C167300  33.031  17.357   3.619 -0.2283 -0.0349 -0.0480
12201CHOL    C267301  32.986  17.064   3.373 -0.0863  0.0715  0.1345
12202CHOL   ROH67302  13.047  23.583  18.395  0.2579  0.1487 -0.2294
12202CHOL    R167303  13.039  23.501  18.666 -0.0668  0.1989 -0.2218
12202CHOL    R267304  13.245  23.361  18.785 -0.3403 -0.0492 -0.0320
12202CHOL    R367305  13.234  23.563  18.967 -0.2283 -0.0053 -0.0739
12202CHOL    R467306  13.418  23.368  19.085 -0.2886 -0.0540 -0.0616
12202CHOL    R567307  13.241  23.452  19.179 -0.2381  0.0381 -0.0513
12202CHOL    C167308  13.508  23.561  19.429 -0.1535 -0.0153 -0.1186
12202CHOL    C267309  13.817  23.289  19.539 -0.1361 -0.2352  0.0095
12203CHOL   ROH67310  33.874   1.096  11.777 -0.0824  0.0379  0.2186
12203CHOL    R167311  34.097   1.168  11.618  0.0504 -0.0407  0.3680
12203CHOL    R267312  34.296   0.989  11.552 -0.1947 -0.2298  0.1368
12203CHOL    R367313  34.237   1.067  11.298 -0.0396  0.2383  0.2386
12203CHOL    R467314  34.523   1.001  11.292 -0.1942 -0.4732  0.1245
12203CHOL    R567315  34.431   1.188  11.227  0.2621 -0.1533  0.3684
12203CHOL    C167316  34.600   1.081  10.902 -0.0465 -0.1756  0.2133
12203CHOL    C267317  34.814   1.247  10.541  0.0592  0.2179  0.0736
12204CHOL   ROH67318   3.800  22.918  14.517  0.0185  0.1203  0.1556
12204CHOL    R167319   4.022  22.892  14.343  0.0930 -0.0731  0.2779
12204CHOL    R267320   4.131  23.107  14.208 -0.0612 -0.2735 -0.1744
12204CHOL    R367321   4.361  23.023  14.326 -0.0185  0.1954  0.0878
12204CHOL    R467322   4.449  23.190  14.101 -0.1042 -0.2422 -0.2789
12204CHOL    R567323   4.511  22.985  14.143  0.0636 -0.0986  0.2127
12204CHOL    C167324   4.850  23.160  14.150 -0.0891  0.2161 -0.0938
12204CHOL    C267325   4.824  23.331  13.731  0.1341 -0.1914 -0.1110
12205CHOL   ROH67326  31.798  31.728  11.146 -0.1534 -0.0466 -0.0534
12205CHOL    R167327  32.024  31.614  11.017 -0.2087 -0.2119 -0.0058
12205CHOL    R267328  32.004  31.465  10.786 -0.2486 -0.0255 -0.1247
12205CHOL    R367329  32.187  31.644  10.693  0.0079 -0.1649  0.1069
12205CHOL    R467330  32.162  31.445  10.479 -0.2991  0.1600 -0.1634
12205CHOL    R567331  32.347  31.510  10.576 -0.1953 -0.2405 -0.0853
12205CHOL    C167332  32.426  31.601  10.214 -0.0870  0.1372  0.0314
12205CHOL    C267333  32.635  31.368   9.921  0.2565  0.0115 -0.0962
12206CHOL   ROH67334   7.095  20.582  13.689  0.0716 -0.0669  0.0841
12206CHOL    R167335   6.840  20.468  13.734  0.0091  0.0765  0.0926
12206CHOL    R267336   6.723  20.460  13.984  0.0817  0.0027  0.1224
12206CHOL    R367337   6.517  20.583  13.856  0.1218  0.2179  0.2620
12206CHOL    R467338   6.395  20.462  14.095  0.0187 -0.3195 -0.0507
12206CHOL    R567339   6.331  20.436  13.888  0.1422  0.0956 -0.1498
12206CHOL    C167340   6.011  20.579  14.039  0.0198 -0.3050 -0.0205
12206CHOL    C267341   5.962  20.603  14.464 -0.0718 -0.2495 -0.1072
12207CHOL   ROH67342  23.500  16.199  10.131  0.0790 -0.1653  0.1709
12207CHOL    R167343  23.234  16.284  10.179  0.0919 -0.1070  0.1406
12207CHOL    R267344  23.070  16.379   9.979  0.1369 -0.0696  0.1219
12207CHOL    R367345  22.901  16.186  10.069  0.0834 -0.0331  0.1008
12207CHOL    R467346  22.730  16.368   9.915  0.1280  0.0481  0.1471
12207CHOL    R567347  22.699  16.303  10.121  0.1242  0.0210  0.1380
12207CHOL    C167348  22.374  16.180   9.962  0.0726  0.1508  0.1422
12207CHOL    C267349  22.180  16.473   9.958 -0.1272 -0.2057  0.4366
12208CHOL   ROH67350  16.467   2.145  15.576 -0.1240  0.0329  0.0809
12208CHOL    R167351  16.384   2.313  15.364  0.2874 -0.0655 -0.1627
12208CHOL    R267352  16.392   2.233  15.100 -0.0164 -0.5212 -0.0402
12208CHOL    R367353  16.130   2.303  15.103  0.1728  0.2351 -0.0650
12208CHOL    R467354  16.196   2.279  14.819 -0.0599 -0.7824 -0.0541
12208CHOL    R567355  16.105   2.451  14.917  0.4820 -0.2259 -0.4851
12208CHOL    C167356  15.836   2.371  14.659  0.0928 -0.2244 -0.0853
12208CHOL    C267357  15.625   2.589  14.604  0.1240  0.2242 -0.0280
12209CHOL   ROH67358  20.259  16.575  10.007  0.0729  0.1119 -0.2501
12209CHOL    R167359  20.495  16.470  10.122 -0.0118  0.1862 -0.0063
12209CHOL    R267360  20.731  16.447   9.982  0.0218 -0.1509  0.1027
12209CHOL    R367361  20.832  16.589  10.190  0.0225  0.1396 -0.0931
12209CHOL    R467362  21.059  16.432  10.090 -0.0576 -0.2571  0.3323
12209CHOL    R567363  20.986  16.439  10.296 -0.1812  0.1865  0.2789
12209CHOL    C167364  21.345  16.557  10.349 -0.1033 -0.0464  0.2818
12209CHOL    C267365  21.761  16.521  10.510  0.1907 -0.1881  0.0215
12210CHOL   ROH67366  20.031  31.633   9.211 -0.1085 -0.1423  0.0544
12210CHOL    R167367  20.180  31.515   9.422  0.0498 -0.0446 -0.0017
12210CHOL    R267368  20.419  31.620   9.512 -0.0445  0.1820 -0.0134
12210CHOL    R367369  20.293  31.615   9.753  0.0007 -0.0153  0.0066
12210CHOL    R467370  20.578  31.634   9.818  0.0084  0.0208 -0.0329
12210CHOL    R567371  20.438  31.485   9.892  0.0635 -0.0692 -0.1070
12210CHOL    C167372  20.553  31.638  10.223  0.0819 -0.2578 -0.0256
12210CHOL    C267373  20.817  31.592  10.438 -0.0642 -0.2585 -0.1180
12211CHOL   ROH67374  32.631  10.026   2.484 -0.2036 -0.1499  0.0782
12211CHOL    R167375  32.570  10.032   2.761 -0.1556 -0.0659  0.0873
12211CHOL    R267376  32.682  10.216   2.934 -0.0577 -0.0693  0.0282
12211CHOL    R367377  32.423  10.269   2.994 -0.0270  0.0411  0.0597
12211CHOL    R467378  32.565  10.289   3.250 -0.0034 -0.1128  0.0583
12211CHOL    R567379  32.389  10.167   3.208 -0.0671 -0.0111  0.0281
12211CHOL    C167380  32.252  10.382   3.491  0.0559 -0.0343  0.1055
12211CHOL    C267381  32.017  10.541   3.647  0.0681 -0.2439 -0.0897
12212CHOL   ROH67382  28.108  16.323   3.550 -0.1394  0.0351 -0.0361
12212CHOL    R167383  27.983  16.385   3.305 -0.2024  0.0563  0.0009
12212CHOL    R267384  28.055  16.266   3.066 -0.0439  0.3088 -0.0810
12212CHOL    R367385  27.790  16.206   3.053  0.0272 -0.0034 -0.1338
12212CHOL    R467386  27.870  16.251   2.774 -0.0158  0.2983 -0.0981
12212CHOL    R567387  27.706  16.348   2.879 -0.1387  0.0225 -0.0322
12212CHOL    C167388  27.514  16.186   2.592  0.0675 -0.0004 -0.1576
12212CHOL    C267389  27.559  15.873   2.291 -0.0659 -0.0549 -0.2458
12213CHOL   ROH67390  33.541   9.178   8.540  0.2152 -0.0677  0.1527
12213CHOL    R167391  33.733   8.989   8.453  0.2182 -0.0319  0.0813
12213CHOL    R267392  33.707   8.849   8.216  0.1129 -0.1006  0.1330
12213CHOL    R367393  33.954   8.950   8.166  0.0512 -0.0378 -0.0472
12213CHOL    R467394  33.926   8.726   7.979  0.0885 -0.2298  0.1767
12213CHOL    R567395  34.089   8.757   8.120  0.1217 -0.0215  0.0921
12213CHOL    C167396  34.286   8.749   7.794  0.0157 -0.2461  0.0331
12213CHOL    C267397  34.544   8.703   7.557 -0.2964 -0.1890  0.0602
12214CHOL   ROH67398   3.920  27.386  13.521  0.0364 -0.3696 -0.1664
12214CHOL    R167399   3.766  27.251  13.716  0.0164 -0.2020 -0.0652
12214CHOL    R267400   3.640  27.383  13.924  0.0205 -0.0256 -0.1721
12214CHOL    R367401   3.420  27.256  13.829  0.0129 -0.0796 -0.0819
12214CHOL    R467402   3.389  27.251  14.121  0.0151  0.1209 -0.0799
12214CHOL    R567403   3.381  27.080  13.986  0.0047  0.0305  0.0382
12214CHOL    C167404   3.035  27.054  14.146  0.0049  0.1559  0.0582
12214CHOL    C267405   2.673  26.918  14.334 -0.1703  0.4511 -0.0404
12215CHOL   ROH67406   0.555  22.626   5.377  0.2277 -0.0843 -0.0051
12215CHOL    R167407   0.421  22.386   5.441  0.2364 -0.0895 -0.0075
12215CHOL    R267408   0.330  22.210   5.249  0.1802 -0.0562 -0.0116
12215CHOL    R367409   0.476  22.030   5.391  0.2112 -0.0833 -0.0777
12215CHOL    R467410   0.307  21.867   5.215  0.1107 -0.0519 -0.0105
12215CHOL    R567411   0.324  21.849   5.432  0.1993 -0.0601 -0.0180
12215CHOL    C167412   0.431  21.498   5.329  0.0993 -0.0746 -0.0720
12215CHOL    C267413   0.668  21.221   5.174 -0.0274 -0.0516 -0.0244
12216CHOL   ROH67414   7.536   3.550  18.610 -0.0112 -0.0448 -0.2070
12216CHOL    R167415   7.437   3.668  18.373  0.0132  0.0928 -0.1493
12216CHOL    R267416   7.602   3.756  18.170  0.0239 -0.0296 -0.1947
12216CHOL    R367417   7.447   3.594  18.016 -0.1892  0.1451 -0.1665
12216CHOL    R467418   7.590   3.764  17.825 -0.0681  0.0169 -0.1905
12216CHOL    R567419   7.374   3.735  17.837 -0.0963  0.2389 -0.1312
12216CHOL    C167420   7.437   3.617  17.479 -0.3218  0.2079 -0.1617
12216CHOL    C267421   7.432   3.505  17.120 -0.0052 -0.1787 -0.0765
12217CHOL   ROH67422  23.802  21.788  11.082  0.1022  0.0039  0.0076
12217CHOL    R167423  23.557  21.804  10.943  0.0273  0.0633  0.1453
12217CHOL    R267424  23.407  21.580  10.881  0.0428  0.0808  0.0436
12217CHOL    R367425  23.209  21.716  11.009  0.0790 -0.0628  0.2544
12217CHOL    R467426  23.075  21.484  10.891  0.0492  0.0580  0.0498
12217CHOL    R567427  23.019  21.693  10.866  0.0332  0.0835  0.2914
12217CHOL    C167428  22.696  21.556  11.017  0.0876 -0.0897  0.2517
12217CHOL    C267429  22.276  21.281  10.861  0.3880  0.1961 -0.1366
12218CHOL   ROH67430  21.376  29.665   7.506  0.0029  0.0272  0.1095
12218CHOL    R167431  21.598  29.503   7.576  0.0763  0.0822  0.0066
12218CHOL    R267432  21.824  29.606   7.695  0.0765  0.1271 -0.0281
12218CHOL    R367433  21.774  29.415   7.882  0.1888  0.0618 -0.0645
12218CHOL    R467434  22.039  29.519   7.952 -0.0177  0.4402  0.1606
12218CHOL    R567435  21.986  29.310   7.918  0.3080  0.3633  0.1221
12218CHOL    C167436  22.117  29.288   8.276  0.0329  0.5617  0.2363
12218CHOL    C267437  21.933  29.158   8.625  0.0910 -0.1993  0.2752
12219CHOL   ROH67438  25.420  15.478   5.531 -0.1188 -0.0690  0.0702
12219CHOL    R167439  25.250  15.356   5.340 -0.0948 -0.0954  0.0661
12219CHOL    R267440  24.976  15.348   5.369 -0.1024 -0.0375  0.0027
12219CHOL    R367441  24.979  15.461   5.122 -0.0238 -0.1123 -0.0309
12219CHOL    R467442  24.729  15.310   5.130 -0.0700 -0.0375 -0.0308
12219CHOL    R567443  24.884  15.295   4.978 -0.0462 -0.1285  0.0018
12219CHOL    C167444  24.588  15.394   4.759  0.0221 -0.1078 -0.0818
12219CHOL    C267445  24.314  15.278   4.427 -0.1747 -0.2410 -0.1353
12220CHOL   ROH67446  21.293  19.331  15.180 -0.0222  0.2831 -0.0986
12220CHOL    R167447  21.085  19.334  14.987  0.0067  0.1308 -0.1329
12220CHOL    R267448  20.948  19.106  14.913  0.1251  0.0450 -0.0886
12220CHOL    R367449  20.730  19.255  14.980  0.0443 -0.0368 -0.1673
12220CHOL    R467450  20.640  19.087  14.757  0.0834 -0.3315  0.0348
12220CHOL    R567451  20.625  19.304  14.771 -0.0629 -0.3258 -0.1841
12220CHOL    C167452  20.256  19.215  14.730 -0.0160 -0.6271  0.0331
12220CHOL    C267453  19.977  19.265  14.494  0.2128  0.2881  0.0056
12221CHOL   ROH67454  20.757  10.760  15.177 -0.0538 -0.1151  0.0052
12221CHOL    R167455  20.519  10.872  15.075  0.0206 -0.0183 -0.0616
12221CHOL    R267456  20.500  10.974  14.819  0.0879 -0.1601 -0.1221
12221CHOL    R367457  20.289  10.802  14.801 -0.0269 -0.0315 -0.0193
12221CHOL    R467458  20.241  11.001  14.592  0.1274 -0.1442 -0.1655
12221CHOL    R567459  20.102  10.942  14.749  0.0721  0.0604 -0.1351
12221CHOL    C167460  19.892  10.856  14.443  0.0422 -0.0145 -0.0943
12221CHOL    C267461  19.694  10.648  14.150 -0.1169  0.1675  0.2173
12222CHOL   ROH67462  26.911  34.458   6.786  0.4041  0.1135 -0.0826
12222CHOL    R167463  27.040  34.439   7.038  0.2491  0.1850  0.0029
12222CHOL    R267464  26.985  34.612   7.246 -0.0047  0.1393 -0.0230
12222CHOL    R367465  26.939  34.382   7.383  0.0554  0.1007 -0.0673
12222CHOL    R467466  26.957  34.589   7.590 -0.1568  0.0904 -0.0385
12222CHOL    R567467  27.071  34.404   7.581 -0.0515  0.1537 -0.0019
12222CHOL    C167468  26.897  34.360   7.918 -0.1889  0.0265 -0.0891
12222CHOL    C267469  27.022  34.328   8.276  0.0570  0.1236 -0.1485
12223CHOL   ROH67470  25.722  21.048   1.410  0.1000 -0.0967  0.0539
12223CHOL    R167471  25.923  21.085   1.605  0.0847  0.0668  0.0390
12223CHOL    R267472  26.121  21.276   1.580  0.0273  0.1155 -0.0563
12223CHOL    R367473  26.032  21.355   1.825 -0.0023  0.2152 -0.0990
12223CHOL    R467474  26.290  21.491   1.793  0.1442 -0.0372  0.0053
12223CHOL    R567475  26.230  21.364   1.960 -0.0513  0.0301 -0.0139
12223CHOL    C167476  26.304  21.689   2.146  0.1843 -0.0319  0.0010
12223CHOL    C267477  26.213  21.980   2.443  0.1122 -0.1266 -0.0993
12224CHOL   ROH67478   3.147   9.721  12.864 -0.0989 -0.3213 -0.1368
12224CHOL    R167479   3.363   9.639  12.700  0.0084 -0.1213 -0.0964
12224CHOL    R267480   3.592   9.790  12.670  0.0233 -0.0779  0.2303
12224CHOL    R367481   3.715   9.560  12.747 -0.0188 -0.1674  0.0361
12224CHOL    R467482   3.898   9.680  12.552 -0.0122 -0.0484  0.1101
12224CHOL    R567483   3.818   9.477  12.547 -0.0576 -0.0300 -0.0429
12224CHOL    C167484   4.191   9.400  12.555 -0.0724 -0.1152 -0.1421
12224CHOL    C267485   4.529   9.562  12.510  0.0173  0.0177  0.3361
12225CHOL   ROH67486   7.100   0.639  19.073 -0.1098 -0.1280  0.1625
12225CHOL    R167487   7.010   0.422  18.916 -0.1061 -0.0911  0.1080
12225CHOL    R267488   6.925   0.453  18.655 -0.1397 -0.0223  0.1231
12225CHOL    R367489   7.110   0.260  18.606 -0.1235  0.0129  0.0490
12225CHOL    R467490   6.948   0.270  18.362 -0.2810 -0.0914  0.1553
12225CHOL    R567491   6.992   0.093  18.482 -0.1588 -0.0480  0.1682
12225CHOL    C167492   7.136  35.368  18.147 -0.3482 -0.0986  0.1041
12225CHOL    C267493   7.242   0.165  17.892 -0.0892  0.1691 -0.1891
12226CHOL   ROH67494  33.957  12.144   2.341 -0.2922  0.0238 -0.2523
12226CHOL    R167495  33.843  12.017   2.566  0.0469  0.0384 -0.0684
12226CHOL    R267496  33.937  12.057   2.823  0.0986  0.4720 -0.1491
12226CHOL    R367497  33.678  12.121   2.873  0.0002  0.0469 -0.0971
12226CHOL    R467498  33.808  12.123   3.136  0.0607  0.3084 -0.1298
12226CHOL    R567499  33.629  12.011   3.081  0.2319 -0.0013 -0.0672
12226CHOL    C167500  33.489  12.222   3.366 -0.0543 -0.1858 -0.0699
12226CHOL    C267501  33.280  12.222   3.708  0.1792 -0.3511 -0.2261
12227CHOL   ROH67502  34.265   4.698  11.143 -0.0076 -0.2633  0.1746
12227CHOL    R167503  34.510   4.717  11.003 -0.1396 -0.1981 -0.0488
12227CHOL    R267504  34.747   4.614  11.100  0.0486  0.1786 -0.0966
12227CHOL    R367505  34.752   4.486  10.861 -0.0150 -0.1402  0.0693
12227CHOL    R467506  35.014   4.430  10.980  0.1026  0.2069 -0.0193
12227CHOL    R567507  34.977   4.515  10.783 -0.0839 -0.0830 -0.1119
12227CHOL    C167508  35.175   4.203  10.685  0.0745 -0.0759  0.1813
12227CHOL    C267509   0.077   3.998  10.442 -0.0163 -0.0534 -0.0322
12228CHOL   ROH67510  19.059  14.369  16.459 -0.0419 -0.0346  0.1783
12228CHOL    R167511  19.008  14.419  16.185 -0.1059  0.0729  0.2094
12228CHOL    R267512  19.060  14.233  15.988  0.1238  0.2561  0.0931
12228CHOL    R367513  18.799  14.276  15.924  0.0680 -0.0262  0.1237
12228CHOL    R467514  18.878  14.043  15.764  0.3220  0.1031  0.0602
12228CHOL    R567515  18.787  14.227  15.690  0.1060  0.0175  0.1131
12228CHOL    C167516  18.527  13.973  15.573  0.3855 -0.2510  0.0700
12228CHOL    C267517  18.205  13.906  15.550 -0.0272  0.2237 -0.0334
12229CHOL   ROH67518  16.248  16.390  14.519  0.0702  0.3080 -0.0224
12229CHOL    R167519  16.305  16.230  14.746  0.0469  0.0355 -0.2057
12229CHOL    R267520  16.555  16.123  14.793  0.0990  0.1598 -0.1994
12229CHOL    R367521  16.529  16.249  15.033 -0.1469 -0.1908 -0.0373
12229CHOL    R467522  16.763  16.075  15.065  0.2312  0.2615 -0.2818
12229CHOL    R567523  16.588  16.082  15.194  0.2249 -0.2731 -0.2510
12229CHOL    C167524  16.860  16.166  15.448  0.0772 -0.0080 -0.1777
12229CHOL    C267525  16.907  15.921  15.697 -0.2211  0.4018 -0.2452
12230CHOL   ROH67526  12.402  28.093  18.009  0.1315  0.0420  0.0220
12230CHOL    R167527  12.583  28.251  18.158  0.0649  0.0532  0.0917
12230CHOL    R267528  12.528  28.340  18.414  0.0014 -0.0304  0.1077
12230CHOL    R367529  12.764  28.220  18.473  0.0258  0.0196  0.1109
12230CHOL    R467530  12.738  28.436  18.671 -0.0481 -0.0229  0.1448
12230CHOL    R567531  12.908  28.401  18.538 -0.0264  0.0439  0.1570
12230CHOL    C167532  13.083  28.378  18.876 -0.0538  0.0289  0.1700
12230CHOL    C267533  13.375  28.397  19.098 -0.1208 -0.2564 -0.0362
12231CHOL   ROH67534  20.210  28.498   9.417  0.0137 -0.0567  0.1435
12231CHOL    R167535  20.362  28.529   9.654  0.0168 -0.1312  0.1511
12231CHOL    R267536  20.506  28.758   9.710  0.0003 -0.1409  0.2309
12231CHOL    R367537  20.363  28.753   9.941  0.0064 -0.2359  0.2330
12231CHOL    R467538  20.586  28.935   9.996 -0.1801  0.0071  0.1910
12231CHOL    R567539  20.529  28.761  10.114 -0.0002 -0.0261  0.2307
12231CHOL    C167540  20.498  29.033  10.379 -0.2793  0.0041  0.1697
12231CHOL    C267541  20.554  29.206  10.750  0.0482  0.1521  0.0029
12232CHOL   ROH67542  14.904  24.906  17.980 -0.1081  0.1812  0.0047
12232CHOL    R167543  15.074  24.990  18.189 -0.1122  0.0908  0.0446
12232CHOL    R267544  14.983  25.033  18.447 -0.1183 -0.0150  0.0609
12232CHOL    R367545  15.181  24.859  18.512 -0.1232 -0.0459 -0.0069
12232CHOL    R467546  15.145  25.023  18.752  0.1251  0.0927 -0.0629
12232CHOL    R567547  15.332  24.988  18.646  0.0283 -0.0246 -0.1959
12232CHOL    C167548  15.425  24.853  18.991  0.2621  0.1265 -0.1987
12232CHOL    C267549  15.677  24.884  19.260  0.2988 -0.0802  0.3578
12233CHOL   ROH67550  32.056  29.417   6.067 -0.1209  0.2103 -0.1425
12233CHOL    R167551  32.100  29.259   6.299 -0.0553  0.2625 -0.1193
12233CHOL    R267552  31.903  29.211   6.485 -0.0287  0.2276 -0.0983
12233CHOL    R367553  31.967  28.951   6.438  0.0538  0.2415 -0.0614
12233CHOL    R467554  31.818  28.946   6.691  0.0715  0.2306 -0.0534
12233CHOL    R567555  32.016  28.861   6.655  0.0957  0.2903 -0.0516
12233CHOL    C167556  31.829  28.548   6.766  0.2067  0.2451  0.0073
12233CHOL    C267557  31.894  28.095   6.687  0.3280 -0.1588 -0.1471
12234CHOL   ROH67558  15.352  20.036  19.813  0.1243 -0.0081 -0.1387
12234CHOL    R167559  15.186  20.195  19.648  0.1624  0.1324 -0.0422
12234CHOL    R267560  15.283  20.403  19.495  0.2396  0.0917 -0.0475
12234CHOL    R367561  15.159  20.270  19.293  0.0633  0.2101 -0.0189
12234CHOL    R467562  15.107  20.553  19.238  0.3301  0.2630 -0.0107
12234CHOL    R567563  14.958  20.395  19.254  0.1762  0.4084  0.0244
12234CHOL    C167564  14.888  20.516  18.899  0.2174  0.4733  0.0379
12234CHOL    C267565  14.749  20.377  18.588  0.0765  0.0392 -0.1031
12235CHOL   ROH67566  19.819  15.092  10.872 -0.0181  0.1084  0.0499
12235CHOL    R167567  19.873  14.999  11.134  0.0824 -0.0117 -0.0134
12235CHOL    R267568  20.063  14.805  11.186  0.1326 -0.0055 -0.1705
12235CHOL    R367569  20.160  14.992  11.358  0.1557 -0.0735 -0.1089
12235CHOL    R467570  20.230  14.735  11.480 -0.0174 -0.1227 -0.1121
12235CHOL    R567571  20.122  14.899  11.575  0.0244 -0.0817 -0.1350
12235CHOL    C167572  20.419  14.870  11.813 -0.0832 -0.2550 -0.0202
12235CHOL    C267573  20.691  15.014  12.021 -0.1673 -0.1543 -0.2087
12236CHOL   ROH67574  28.305  24.211   5.288 -0.0788  0.0264 -0.1769
12236CHOL    R167575  28.161  24.431   5.184 -0.2619 -0.1116 -0.2183
12236CHOL    R267576  28.285  24.653   5.077 -0.4353  0.1796  0.1682
12236CHOL    R367577  28.128  24.597   4.862 -0.0076  0.1078 -0.1326
12236CHOL    R467578  28.171  24.887   4.850 -0.5274  0.2069  0.2430
12236CHOL    R567579  27.979  24.784   4.848 -0.3378 -0.1537 -0.1581
12236CHOL    C167580  27.957  24.971   4.516 -0.1796  0.1559  0.0042
12236CHOL    C267581  27.862  24.819   4.184 -0.0427  0.2119 -0.3658
12237CHOL   ROH67582  12.756  11.205  16.581  0.0873 -0.0787  0.0870
12237CHOL    R167583  12.917  10.979  16.526  0.0180 -0.1413  0.1402
12237CHOL    R267584  13.193  10.989  16.529  0.0224 -0.1780 -0.0534
12237CHOL    R367585  13.166  10.783  16.704  0.1105 -0.0481  0.1134
12237CHOL    R467586  13.436  10.752  16.593  0.0521 -0.1338 -0.0021
12237CHOL    R567587  13.280  10.600  16.599  0.0534 -0.1281  0.1915
12237CHOL    C167588  13.553  10.420  16.795  0.1520  0.0140  0.1847
12237CHOL    C267589  13.722  10.395  17.105 -0.0821  0.3343  0.1518
12238CHOL   ROH67590  12.312  29.216  21.093  0.3975 -0.2005 -0.1953
12238CHOL    R167591  12.210  29.266  20.833  0.2157 -0.2708 -0.1383
12238CHOL    R267592  12.348  29.415  20.646 -0.0846 -0.0013 -0.1485
12238CHOL    R367593  12.311  29.194  20.491  0.1868 -0.0092 -0.2029
12238CHOL    R467594  12.405  29.401  20.305 -0.0660  0.1543 -0.1522
12238CHOL    R567595  12.225  29.280  20.285  0.0813 -0.0631 -0.1816
12238CHOL    C167596  12.405  29.185  19.962  0.1996  0.2374 -0.2055
12238CHOL    C267597  12.345  29.284  19.567 -0.1117 -0.0349  0.1071
12239CHOL   ROH67598   8.486  19.257  19.591 -0.2541  0.0344 -0.0803
12239CHOL    R167599   8.670  19.369  19.407 -0.1694  0.0605  0.0193
12239CHOL    R267600   8.652  19.327  19.135  0.0484 -0.0304  0.0164
12239CHOL    R367601   8.655  19.599  19.125 -0.0676 -0.0324 -0.0615
12239CHOL    R467602   8.786  19.515  18.877  0.2970 -0.0433  0.1345
12239CHOL    R567603   8.866  19.653  19.025  0.0377  0.0380  0.1976
12239CHOL    C167604   8.866  19.879  18.718  0.3325 -0.0524  0.1301
12239CHOL    C267605   8.862  20.096  18.390  0.0336 -0.1990 -0.2905
12240CHOL   ROH67606  23.226  19.040  10.568  0.0574  0.3808 -0.0197
12240CHOL    R167607  22.962  18.993  10.657  0.1019  0.1472 -0.0096
12240CHOL    R267608  22.769  19.191  10.665 -0.0468  0.0013  0.0901
12240CHOL    R367609  22.627  19.013  10.516  0.0706 -0.0464  0.0347
12240CHOL    R467610  22.426  19.197  10.625 -0.0160 -0.0076 -0.1865
12240CHOL    R567611  22.425  18.979  10.640 -0.0303 -0.0029 -0.1147
12240CHOL    C167612  22.092  19.034  10.462  0.1119 -0.0577 -0.3996
12240CHOL    C267613  21.732  19.069  10.442  0.6292  0.1476 -0.2837
12241CHOL   ROH67614  25.145  18.484   4.665 -0.0765 -0.0356 -0.2280
12241CHOL    R167615  24.949  18.623   4.517 -0.1194 -0.0328 -0.1686
12241CHOL    R267616  24.771  18.496   4.348 -0.1731 -0.0305 -0.1154
12241CHOL    R367617  24.585  18.627   4.497 -0.1250 -0.0273 -0.0579
12241CHOL    R467618  24.445  18.555   4.250 -0.1865  0.0265 -0.0368
12241CHOL    R567619  24.460  18.754   4.338 -0.1427  0.0114 -0.0121
12241CHOL    C167620  24.080  18.712   4.333 -0.1491  0.0627  0.0630
12241CHOL    C267621  23.710  18.913   4.126 -0.3149 -0.0735 -0.0065
12242CHOL   ROH67622  33.751   9.398   8.927 -0.2245 -0.1221 -0.1229
12242CHOL    R167623  33.943   9.203   9.000 -0.1556 -0.0365 -0.0765
12242CHOL    R267624  33.883   8.934   9.021 -0.0662 -0.0500  0.0130
12242CHOL    R367625  34.091   8.907   8.849 -0.0710 -0.0365  0.0051
12242CHOL    R467626  34.101   8.667   9.017  0.1038  0.0852  0.1717
12242CHOL    R567627  34.265   8.807   8.981  0.0107  0.1652  0.0535
12242CHOL    C167628  34.425   8.485   8.852  0.1987  0.1767  0.2567
12242CHOL    C267629  34.530   8.318   9.150 -0.0078  0.3324 -0.0518
12243CHOL   ROH67630  19.275  15.481  11.470 -0.0279  0.0199 -0.0738
12243CHOL    R167631  19.355  15.561  11.730  0.0019  0.0979 -0.1067
12243CHOL    R267632  19.531  15.413  11.883 -0.2091 -0.0096  0.0358
12243CHOL    R367633  19.668  15.647  11.895  0.0656 -0.1618 -0.0892
12243CHOL    R467634  19.774  15.488  12.117 -0.2066 -0.1212  0.0695
12243CHOL    R567635  19.693  15.690  12.129  0.0278 -0.0152 -0.1124
12243CHOL    C167636  20.045  15.752  12.264  0.0526 -0.3292 -0.0282
12243CHOL    C267637  20.022  15.604  12.620  0.1177 -0.1860 -0.2145
12244CHOL   ROH67638   4.397  14.122   7.750  0.0210 -0.0706  0.0012
12244CHOL    R167639   4.171  13.999   7.868 -0.0678 -0.0390 -0.1353
12244CHOL    R267640   4.125  14.002   8.140 -0.1012 -0.2493 -0.1373
12244CHOL    R367641   3.885  14.107   8.066 -0.0291 -0.0406 -0.0789
12244CHOL    R467642   3.821  13.918   8.281 -0.1628 -0.1339 -0.2010
12244CHOL    R567643   3.733  13.923   8.082 -0.1539  0.0521 -0.2007
12244CHOL    C167644   3.419  13.968   8.294 -0.1311  0.1293 -0.1834
12244CHOL    C267645   3.207  14.042   8.522 -0.0442 -0.1191 -0.0066
12245CHOL   ROH67646   5.952   9.956  11.283 -0.1143 -0.4400  0.0405
12245CHOL    R167647   5.728  10.117  11.345 -0.0422 -0.2990 -0.0628
12245CHOL    R267648   5.478  10.073  11.236 -0.0540 -0.2333 -0.0636
12245CHOL    R367649   5.400  10.068  11.496 -0.0806 -0.0633 -0.0681
12245CHOL    R467650   5.151  10.100  11.345 -0.0906 -0.4146 -0.1268
12245CHOL    R567651   5.221  10.227  11.507 -0.2185 -0.2060 -0.2334
12245CHOL    C167652   4.887  10.111  11.652 -0.1369 -0.3606 -0.1677
12245CHOL    C267653   4.520  10.086  11.807  0.2405 -0.2091  0.0468
12246CHOL   ROH67654  34.678  22.710   7.542  0.1302  0.2002  0.1649
12246CHOL    R167655  34.739  22.801   7.281  0.3288 -0.0336  0.1276
12246CHOL    R267656  34.677  23.055   7.194  0.0522 -0.2300 -0.2665
12246CHOL    R367657  34.942  23.064   7.133  0.1230  0.0915  0.0652
12246CHOL    R467658  34.831  23.309   7.016 -0.0496 -0.0854 -0.1494
12246CHOL    R567659  34.949  23.158   6.913  0.2789  0.0320  0.0438
12246CHOL    C167660  35.169  23.464   6.855 -0.0417  0.3006  0.2302
12246CHOL    C267661  35.233  23.749   6.608 -0.0841  0.3501  0.3401
12247CHOL   ROH67662  24.811  13.318   2.860  0.1478 -0.1319  0.0896
12247CHOL    R167663  24.801  13.241   3.132 -0.1673  0.0221  0.1243
12247CHOL    R267664  25.008  13.290   3.308 -0.1363 -0.3661  0.2016
12247CHOL    R367665  24.812  13.408   3.455  0.0556  0.1611  0.0460
12247CHOL    R467666  25.035  13.375   3.642 -0.1604 -0.4021  0.2127
12247CHOL    R567667  24.830  13.306   3.671 -0.3660  0.1309  0.0714
12247CHOL    C167668  24.867  13.535   3.974  0.0056  0.0719  0.0732
12247CHOL    C267669  24.916  13.418   4.243 -0.0503  0.4514 -0.2042
12248CHOL   ROH67670  32.743  21.427   4.386 -0.3375  0.0821 -0.2594
12248CHOL    R167671  32.799  21.423   4.108 -0.2628  0.1455 -0.2452
12248CHOL    R267672  32.847  21.653   3.962  0.1226  0.1540 -0.1097
12248CHOL    R367673  33.075  21.523   3.892 -0.0483 -0.1500 -0.1123
12248CHOL    R467674  33.085  21.775   3.744  0.3601 -0.0862  0.0122
12248CHOL    R567675  33.105  21.575   3.661  0.0870 -0.0786 -0.0805
12248CHOL    C167676  33.439  21.725   3.552  0.3378 -0.5115  0.0807
12248CHOL    C267677  33.543  22.056   3.483 -0.0542 -0.0844 -0.2552
12249CHOL   ROH67678  30.677  18.056   3.874  0.1503 -0.0254 -0.0194
12249CHOL    R167679  30.783  18.105   3.616  0.2520  0.0074  0.0285
12249CHOL    R267680  30.959  17.931   3.493  0.1406 -0.0798 -0.0090
12249CHOL    R367681  30.776  17.940   3.292  0.1952  0.1624 -0.0497
12249CHOL    R467682  31.022  17.841   3.165  0.0492 -0.3326  0.0416
12249CHOL    R567683  30.901  18.011   3.100  0.3653 -0.1417 -0.0554
12249CHOL    C167684  30.887  17.797   2.785  0.0468 -0.2525  0.0330
12249CHOL    C267685  31.129  17.734   2.490 -0.0029  0.3630  0.1453
12250CHOL   ROH67686   6.261  26.546  16.742  0.0071 -0.1327 -0.2746
12250CHOL    R167687   5.989  26.552  16.822  0.0303  0.0105 -0.2068
12250CHOL    R267688   5.793  26.404  16.696 -0.0498 -0.0142 -0.0520
12250CHOL    R367689   5.746  26.312  16.947 -0.0154  0.1756  0.0248
12250CHOL    R467690   5.524  26.207  16.786  0.1225 -0.1976  0.0689
12250CHOL    R567691   5.507  26.324  16.970 -0.0340 -0.0380 -0.0429
12250CHOL    C167692   5.322  26.007  17.075  0.2552 -0.1265  0.2111
12250CHOL    C267693   4.961  25.867  16.900  0.0329  0.1350  0.0345
12251CHOL   ROH67694   2.476   0.028  11.643  0.0911 -0.0209  0.0942
12251CHOL    R167695   2.394   0.197  11.855  0.1736  0.0074  0.1035
12251CHOL    R267696   2.276   0.100  12.084 -0.0328  0.0686  0.0236
12251CHOL    R367697   2.476   0.237  12.207  0.0579 -0.1762  0.1521
12251CHOL    R467698   2.255   0.238  12.401 -0.1260  0.2310 -0.0530
12251CHOL    R567699   2.364   0.412  12.326  0.2033  0.0415 -0.0271
12251CHOL    C167700   2.432   0.447  12.700 -0.0952  0.0959  0.0232
12251CHOL    C267701   2.217   0.481  13.045  0.0667  0.0459  0.0062
12252CHOL   ROH67702  22.045   6.903   9.516  0.1015  0.0600  0.0198
12252CHOL    R167703  22.318   6.928   9.447  0.1070 -0.1060 -0.0210
12252CHOL    R267704  22.490   7.100   9.579  0.1830 -0.0560 -0.1828
12252CHOL    R367705  22.638   6.875   9.612  0.0971 -0.0854  0.0045
12252CHOL    R467706  22.835   7.090   9.584  0.1785 -0.1707 -0.0668
12252CHOL    R567707  22.827   6.906   9.468  0.1535 -0.2395  0.0455
12252CHOL    C167708  23.176   6.873   9.618  0.0951 -0.2650  0.1766
12252CHOL    C267709  23.480   6.958   9.364  0.0164  0.0124 -0.1990
12253CHOL   ROH67710   6.103  22.223  19.693  0.0448  0.1420  0.2012
12253CHOL    R167711   6.231  22.461  19.609 -0.0354  0.1556  0.1169
12253CHOL    R267712   6.498  22.469  19.537 -0.0239  0.2315  0.1708
12253CHOL    R367713   6.399  22.579  19.309 -0.0196  0.0846  0.0973
12253CHOL    R467714   6.691  22.596  19.280 -0.0183  0.1947  0.1566
12253CHOL    R567715   6.548  22.760  19.261 -0.0848  0.1266  0.0486
12253CHOL    C167716   6.711  22.773  18.916 -0.0112  0.0358  0.0799
12253CHOL    C267717   6.607  22.770  18.575 -0.0600 -0.0022 -0.0152
12254CHOL   ROH67718  14.832  32.857  13.828 -0.1317  0.4119 -0.0315
12254CHOL    R167719  15.012  32.839  14.045 -0.2072  0.2171  0.0157
12254CHOL    R267720  15.286  32.855  14.013 -0.1845 -0.0076  0.0959
12254CHOL    R367721  15.264  33.053  14.198 -0.0693 -0.0253  0.1289
12254CHOL    R467722  15.552  32.996  14.183 -0.1010 -0.1816  0.1114
12254CHOL    R567723  15.429  32.998  14.363 -0.0946 -0.1423  0.1152
12254CHOL    C167724  15.686  33.264  14.456  0.0556 -0.2992  0.1514
12254CHOL    C267725  15.885  33.354  14.818  0.1429  0.1275  0.2641
12255CHOL   ROH67726  18.948   4.749  12.554 -0.0762 -0.1146 -0.0886
12255CHOL    R167727  18.873   4.714  12.824 -0.1379  0.1971 -0.0634
12255CHOL    R267728  18.979   4.514  12.984 -0.5500  0.0581  0.0427
12255CHOL    R367729  19.039   4.722  13.148 -0.0996  0.0288 -0.0784
12255CHOL    R467730  19.017   4.490  13.326 -0.4667  0.1510  0.0402
12255CHOL    R567731  18.911   4.679  13.347 -0.1072  0.3612 -0.0091
12255CHOL    C167732  19.096   4.670  13.680  0.0047  0.1775 -0.0749
12255CHOL    C267733  19.099   4.502  14.122  0.1029 -0.0791 -0.0372
12256CHOL   ROH67734   7.077  13.354  16.434 -0.0020 -0.2568 -0.0757
12256CHOL    R167735   7.319  13.329  16.291  0.0350 -0.1289 -0.0349
12256CHOL    R267736   7.343  13.174  16.064  0.1078  0.0307 -0.1341
12256CHOL    R367737   7.437  13.405  15.955  0.1085  0.1153  0.0438
12256CHOL    R467738   7.521  13.195  15.768 -0.1370  0.2823 -0.2667
12256CHOL    R567739   7.649  13.344  15.862  0.0065  0.1270 -0.2063
12256CHOL    C167740   7.713  13.423  15.494 -0.2789  0.5081 -0.1773
12256CHOL    C267741   8.007  13.564  15.270 -0.2167 -0.0707  0.0847
12257CHOL   ROH67742  30.110   2.117  10.468 -0.0853  0.0480  0.1737
12257CHOL    R167743  30.152   2.212  10.205  0.0971 -0.0154  0.1791
12257CHOL    R267744  30.332   2.095  10.031 -0.2111 -0.4289  0.1325
12257CHOL    R367745  30.116   2.081   9.867 -0.2806  0.1123  0.1673
12257CHOL    R467746  30.346   2.070   9.686 -0.3239 -0.5337  0.1350
12257CHOL    R567747  30.178   2.208   9.674  0.0336 -0.0852  0.1336
12257CHOL    C167748  30.151   2.042   9.332 -0.4547 -0.0867  0.1690
12257CHOL    C267749  29.903   1.941   9.028  0.0493 -0.1528 -0.2000
12258CHOL   ROH67750  12.440  14.010  17.639 -0.1076  0.1439  0.0536
12258CHOL    R167751  12.525  13.943  17.377  0.0074  0.1100  0.0998
12258CHOL    R267752  12.350  13.921  17.165  0.0728 -0.1303  0.0706
12258CHOL    R367753  12.519  14.100  17.049 -0.0583 -0.0309  0.0327
12258CHOL    R467754  12.330  14.027  16.836  0.0733 -0.3144  0.0105
12258CHOL    R567755  12.548  14.018  16.826  0.0860 -0.1172  0.0822
12258CHOL    C167756  12.477  14.257  16.537 -0.0492 -0.3279 -0.0599
12258CHOL    C267757  12.362  14.473  16.264 -0.0018 -0.0240 -0.1924
12259CHOL   ROH67758   9.267  22.238  17.746  0.0633  0.1168  0.0001
12259CHOL    R167759   9.202  22.011  17.903 -0.0156  0.0769 -0.0908
12259CHOL    R267760   9.099  22.031  18.158  0.1373  0.0090 -0.0227
12259CHOL    R367761   8.902  21.873  18.057 -0.0320  0.2079 -0.0052
12259CHOL    R467762   8.969  21.752  18.316  0.1825 -0.1198 -0.2121
12259CHOL    R567763   8.964  21.651  18.122 -0.0569  0.1051 -0.3256
12259CHOL    C167764   8.708  21.442  18.312  0.0501 -0.0083 -0.3060
12259CHOL    C267765   8.432  21.463  18.691  0.2504 -0.0004  0.5057
12260CHOL   ROH67766   7.510   4.882  14.795 -0.1902  0.3159 -0.0756
12260CHOL    R167767   7.346   4.819  15.017  0.0118  0.1661  0.0323
12260CHOL    R267768   7.413   4.889  15.275  0.0665  0.3195 -0.0235
12260CHOL    R367769   7.166   5.004  15.273 -0.0821  0.0062  0.0825
12260CHOL    R467770   7.236   4.981  15.558  0.2110  0.3876  0.0457
12260CHOL    R567771   7.054   4.906  15.462  0.2135  0.0578  0.2880
12260CHOL    C167772   6.901   5.142  15.720  0.1558  0.1332  0.1854
12260CHOL    C267773   6.953   5.107  16.072 -0.0451  0.0262  0.1747
12261CHOL   ROH67774  11.054   7.576  15.433  0.0125  0.1313 -0.0585
12261CHOL    R167775  11.132   7.592  15.705 -0.0267  0.1135 -0.0457
12261CHOL    R267776  10.964   7.688  15.902 -0.0456  0.1291 -0.0665
12261CHOL    R367777  11.021   7.450  16.021 -0.0931  0.1176 -0.0679
12261CHOL    R467778  10.949   7.629  16.242  0.0275  0.1516 -0.0599
12261CHOL    R567779  11.132   7.511  16.225 -0.0184  0.0905 -0.1019
12261CHOL    C167780  10.995   7.372  16.552  0.0253  0.1540 -0.0571
12261CHOL    C267781  11.315   7.428  16.783 -0.2927 -0.0543 -0.1222
12262CHOL   ROH67782  15.127  28.824  16.640 -0.1293 -0.0853  0.1075
12262CHOL    R167783  15.373  28.804  16.779 -0.2126 -0.1749  0.2443
12262CHOL    R267784  15.561  29.007  16.777  0.0656 -0.4296 -0.0455
12262CHOL    R367785  15.540  28.984  17.048 -0.0806  0.0832 -0.0069
12262CHOL    R467786  15.786  29.137  17.005  0.1715 -0.3597 -0.1894
12262CHOL    R567787  15.766  28.955  17.122 -0.1514 -0.1251  0.1324
12262CHOL    C167788  15.898  29.191  17.391  0.0957  0.1627 -0.2370
12262CHOL    C267789  15.983  29.122  17.676 -0.0392 -0.0513 -0.0559
12263CHOL   ROH67790   1.729  13.339  10.937 -0.0098 -0.0132 -0.1913
12263CHOL    R167791   1.845  13.223  10.706  0.0490 -0.0666 -0.1346
12263CHOL    R267792   1.988  13.370  10.522  0.0888 -0.1089 -0.1343
12263CHOL    R367793   2.180  13.184  10.570  0.0833 -0.0922 -0.0449
12263CHOL    R467794   2.277  13.332  10.337  0.2221 -0.0200  0.0537
12263CHOL    R567795   2.253  13.116  10.353  0.2424 -0.0297 -0.0134
12263CHOL    C167796   2.626  13.134  10.275  0.2945  0.0473  0.2473
12263CHOL    C267797   2.963  13.198  10.122 -0.0615  0.0850 -0.1707
12264CHOL   ROH67798  20.865  23.466   9.790 -0.1088  0.1291 -0.0781
12264CHOL    R167799  21.082  23.629   9.870 -0.0631  0.0614 -0.0631
12264CHOL    R267800  21.194  23.613  10.122 -0.0679  0.0078 -0.0642
12264CHOL    R367801  21.425  23.577   9.982 -0.0778 -0.0446 -0.0675
12264CHOL    R467802  21.510  23.698  10.236 -0.0248 -0.2548  0.0148
12264CHOL    R567803  21.557  23.769  10.035  0.0349 -0.1577  0.0638
12264CHOL    C167804  21.909  23.713  10.171 -0.0095 -0.4561  0.0575
12264CHOL    C267805  22.108  23.383  10.175  0.2275 -0.1384 -0.0034
12265CHOL   ROH67806  24.729   8.117  11.173  0.0999  0.1936 -0.1974
12265CHOL    R167807  24.463   8.178  11.250  0.1692  0.2349  0.0136
12265CHOL    R267808  24.297   8.336  11.097  0.0378  0.1778  0.0947
12265CHOL    R367809  24.130   8.123  11.116  0.0473  0.1906  0.3316
12265CHOL    R467810  23.963   8.338  11.006  0.1245 -0.0325 -0.2336
12265CHOL    R567811  23.920   8.217  11.183 -0.0309  0.2907 -0.0480
12265CHOL    C167812  23.612   8.138  10.971  0.1833 -0.1431 -0.2023
12265CHOL    C267813  23.410   7.970  10.785  0.2692 -0.0402  0.3372
12266CHOL   ROH67814  20.460  28.433  13.617  0.0753 -0.0357 -0.0361
12266CHOL    R167815  20.197  28.332  13.650  0.1366 -0.1925 -0.0255
12266CHOL    R267816  19.988  28.405  13.486 -0.0053  0.0158  0.2468
12266CHOL    R367817  19.962  28.137  13.453  0.0725  0.0589 -0.2003
12266CHOL    R467818  19.706  28.248  13.364 -0.1064  0.1112  0.3555
12266CHOL    R567819  19.734  28.091  13.513  0.1732 -0.1484  0.0384
12266CHOL    C167820  19.517  27.904  13.262 -0.0927  0.2075 -0.0007
12266CHOL    C267821  19.342  27.760  12.979 -0.0419  0.0146 -0.3841
12267CHOL   ROH67822   3.026   7.186  13.905  0.1782 -0.0367  0.0119
12267CHOL    R167823   3.241   7.240  13.729  0.1009 -0.0805 -0.0967
12267CHOL    R267824   3.502   7.266  13.817  0.1339 -0.0180 -0.2123
12267CHOL    R367825   3.550   7.075  13.629  0.0783 -0.0852 -0.1584
12267CHOL    R467826   3.785   7.249  13.619  0.1686 -0.2080 -0.1473
12267CHOL    R567827   3.659   7.192  13.451  0.1768 -0.1821 -0.1616
12267CHOL    C167828   3.995   7.059  13.329  0.1366 -0.3817 -0.0587
12267CHOL    C267829   4.421   7.092  13.439  0.0273  0.1008  0.4219
12268CHOL   ROH67830   4.968  14.118  10.275  0.1703 -0.1197 -0.1787
12268CHOL    R167831   4.769  13.926  10.213  0.1228 -0.0718 -0.1745
12268CHOL    R267832   4.515  13.934  10.323  0.1714 -0.0903 -0.0623
12268CHOL    R367833   4.437  13.929  10.063  0.0577  0.0281 -0.0315
12268CHOL    R467834   4.187  13.922  10.216  0.1158  0.1766  0.0727
12268CHOL    R567835   4.248  13.781  10.061 -0.0524  0.1668  0.0132
12268CHOL    C167836   3.923  13.909   9.909 -0.0233  0.4432  0.1800
12268CHOL    C267837   3.814  13.555   9.789  0.0892 -0.3105  0.2980
12269CHOL   ROH67838  30.940  14.351   4.518 -0.1423  0.1825 -0.0532
12269CHOL    R167839  31.000  14.340   4.241 -0.1896  0.2278 -0.0652
12269CHOL    R267840  30.983  14.561   4.076  0.1565  0.3440  0.0521
12269CHOL    R367841  31.240  14.495   4.016  0.0453 -0.0484 -0.0082
12269CHOL    R467842  31.119  14.566   3.759  0.1339  0.2995  0.0416
12269CHOL    R567843  31.225  14.381   3.806 -0.1657  0.0947 -0.0727
12269CHOL    C167844  31.440  14.507   3.517  0.0156 -0.0943 -0.0211
12269CHOL    C267845  31.671  14.343   3.255  0.3143 -0.2061  0.2077
12270CHOL   ROH67846  31.921  10.719   5.671 -0.0267  0.0711  0.0662
12270CHOL    R167847  31.961  10.548   5.449 -0.0538  0.1198  0.0232
12270CHOL    R267848  32.115  10.619   5.232 -0.1117  0.1839  0.0022
12270CHOL    R367849  32.244  10.387   5.287 -0.0691  0.1895 -0.0721
12270CHOL    R467850  32.306  10.441   5.006 -0.0694  0.2956 -0.0506
12270CHOL    R567851  32.221  10.257   5.087 -0.0366  0.2522 -0.1157
12270CHOL    C167852  32.538  10.118   4.926 -0.0043  0.3664 -0.1512
12270CHOL    C267853  32.821  10.187   4.766 -0.1452 -0.4726  0.5376
12271CHOL   ROH67854   5.037  27.073  15.040 -0.0202  0.2453 -0.0786
12271CHOL    R167855   4.783  26.974  15.116  0.0325  0.0202 -0.1909
12271CHOL    R267856   4.578  27.139  15.200 -0.0369 -0.1903  0.0566
12271CHOL    R367857   4.439  27.013  15.003  0.0034  0.0160 -0.1053
12271CHOL    R467858   4.244  27.192  15.129 -0.0432 -0.1726  0.0982
12271CHOL    R567859   4.222  26.978  15.097  0.0033 -0.1417 -0.1608
12271CHOL    C167860   3.919  27.106  14.903 -0.0090  0.0310 -0.0297
12271CHOL    C267861   3.616  27.042  15.118  0.0902 -0.0569  0.1222
12272CHOL   ROH67862  28.516  11.895   4.691  0.3164 -0.1586 -0.0402
12272CHOL    R167863  28.336  11.728   4.550  0.1745 -0.0177 -0.0265
12272CHOL    R267864  28.140  11.829   4.383  0.2885  0.1335 -0.0690
12272CHOL    R367865  28.255  11.662   4.201  0.1508 -0.0136 -0.0224
12272CHOL    R467866  27.969  11.657   4.136  0.1196  0.0565  0.1001
12272CHOL    R567867  28.096  11.484   4.175  0.0721  0.0298  0.1461
12272CHOL    C167868  27.977  11.401   3.822 -0.1074 -0.1265  0.2426
12272CHOL    C267869  27.855  11.123   3.727  0.2511  0.1133  0.2080
12273CHOL   ROH67870   0.990   9.964  10.814 -0.1819 -0.0166 -0.0948
12273CHOL    R167871   1.137  10.037  10.584  0.0149 -0.0860  0.0076
12273CHOL    R267872   1.299   9.859  10.448 -0.0785 -0.1999  0.0420
12273CHOL    R367873   1.149   9.936  10.235  0.1096  0.0081 -0.0163
12273CHOL    R467874   1.423   9.914  10.130  0.1432 -0.2338  0.1219
12273CHOL    R567875   1.291  10.087  10.115  0.3231 -0.0989  0.0994
12273CHOL    C167876   1.354  10.019   9.745  0.4489 -0.0587  0.1138
12273CHOL    C267877   1.678  10.062   9.630 -0.2391  0.1051  0.3552
12274CHOL   ROH67878  11.940   4.175  14.449  0.0540 -0.1285  0.0197
12274CHOL    R167879  12.061   4.027  14.657 -0.0453 -0.1420  0.0676
12274CHOL    R267880  12.325   4.060  14.729 -0.0081 -0.3362  0.0186
12274CHOL    R367881  12.220   4.101  14.976  0.0586 -0.1403  0.0156
12274CHOL    R467882  12.484   3.984  15.027 -0.0236 -0.3229  0.0305
12274CHOL    R567883  12.293   3.912  15.105 -0.0694 -0.1397  0.0917
12274CHOL    C167884  12.478   3.978  15.432  0.0299 -0.1312  0.0349
12274CHOL    C267885  12.897   4.111  15.487  0.2349 -0.1310 -0.0523
12275CHOL   ROH67886   7.970  22.667  17.005 -0.1334 -0.0902 -0.2473
12275CHOL    R167887   7.701  22.732  17.065 -0.1275 -0.0858 -0.2253
12275CHOL    R267888   7.524  22.549  17.172 -0.1019 -0.0629 -0.1433
12275CHOL    R367889   7.491  22.741  17.362 -0.0818 -0.0082 -0.1951
12275CHOL    R467890   7.264  22.560  17.399  0.0182 -0.0961 -0.0031
12275CHOL    R567891   7.254  22.776  17.370 -0.0929 -0.1104 -0.0771
12275CHOL    C167892   7.081  22.747  17.709  0.1070 -0.0640  0.0300
12275CHOL    C267893   6.740  22.673  17.738  0.3746 -0.0694  0.0331
12276CHOL   ROH67894   9.510  30.383  17.524  0.0326 -0.1337 -0.0525
12276CHOL    R167895   9.390  30.500  17.752 -0.1013 -0.2026 -0.0874
12276CHOL    R267896   9.285  30.350  17.959  0.0311 -0.2615 -0.0631
12276CHOL    R367897   9.451  30.503  18.111 -0.1319 -0.0645 -0.0827
12276CHOL    R467898   9.218  30.452  18.282 -0.0403 -0.3649 -0.0446
12276CHOL    R567899   9.303  30.647  18.233 -0.2907 -0.2550 -0.0483
12276CHOL    C167900   9.334  30.655  18.613 -0.2351 -0.2403 -0.0528
12276CHOL    C267901   9.438  30.786  18.995  0.0361 -0.0077 -0.1572
12277CHOL   ROH67902  23.154   1.780  11.890  0.0089 -0.1190 -0.0919
12277CHOL    R167903  23.133   1.830  11.613  0.0349  0.0300 -0.0677
12277CHOL    R267904  22.934   1.719  11.456  0.2122 -0.1079 -0.1985
12277CHOL    R367905  22.886   1.978  11.389 -0.0725 -0.1194 -0.0488
12277CHOL    R467906  22.802   1.823  11.154  0.1236 -0.0753 -0.1482
12277CHOL    R567907  22.943   1.990  11.156 -0.0633  0.0823 -0.0366
12277CHOL    C167908  22.680   2.127  10.915 -0.1956 -0.0671  0.0215
12277CHOL    C267909  22.697   2.451  10.649  0.0425 -0.0392 -0.0959
12278CHOL   ROH67910  31.222  26.776   7.990 -0.0789 -0.1828 -0.1749
12278CHOL    R167911  31.362  26.895   7.774 -0.2514 -0.1488 -0.2692
12278CHOL    R267912  31.234  27.007   7.557 -0.4371  0.1633 -0.0036
12278CHOL    R367913  31.383  27.225   7.622 -0.1246 -0.0419 -0.0229
12278CHOL    R467914  31.288  27.278   7.350 -0.3395  0.2258  0.1029
12278CHOL    R567915  31.495  27.283   7.418 -0.2630 -0.0486 -0.1011
12278CHOL    C167916  31.459  27.640   7.290  0.0104  0.0698  0.1468
12278CHOL    C267917  31.651  27.890   7.087  0.0690 -0.1181 -0.0409
12279CHOL   ROH67918   1.191  24.675   6.606 -0.1301 -0.0803  0.0890
12279CHOL    R167919   1.122  24.498   6.816 -0.0457 -0.0940  0.1056
12279CHOL    R267920   1.176  24.553   7.081 -0.0854 -0.0365  0.1023
12279CHOL    R367921   0.910  24.508   7.111 -0.0631 -0.1731  0.0957
12279CHOL    R467922   1.017  24.507   7.384 -0.0803 -0.0496  0.1028
12279CHOL    R567923   0.896  24.350   7.291  0.0099 -0.1368  0.1324
12279CHOL    C167924   0.675  24.437   7.589 -0.0564 -0.1852  0.0969
12279CHOL    C267925   0.895  24.089   7.746  0.1394 -0.0051  0.0402
12280CHOL   ROH67926  34.536  33.399   8.629  0.3907  0.1281  0.1796
12280CHOL    R167927  34.465  33.449   8.898  0.1389 -0.0202  0.1431
12280CHOL    R267928  34.222  33.371   9.005  0.0995 -0.2219 -0.0815
12280CHOL    R367929  34.379  33.249   9.190  0.0322 -0.1903 -0.0040
12280CHOL    R467930  34.119  33.279   9.322  0.0435  0.0031 -0.0346
12280CHOL    R567931  34.312  33.346   9.398  0.0671 -0.0439 -0.0624
12280CHOL    C167932  34.206  33.112   9.680 -0.0530  0.1630  0.0655
12280CHOL    C267933  34.156  33.158  10.038  0.0275  0.1940 -0.2134
12281CHOL   ROH67934   7.901  16.706  13.844 -0.0500 -0.1074 -0.0674
12281CHOL    R167935   7.761  16.810  14.067  0.0247 -0.0870 -0.0306
12281CHOL    R267936   7.490  16.866  14.061  0.0469  0.0152  0.0199
12281CHOL    R367937   7.485  16.704  14.279  0.0180 -0.0122 -0.0004
12281CHOL    R467938   7.272  16.900  14.326  0.2471  0.2069  0.1626
12281CHOL    R567939   7.436  16.852  14.461  0.2862  0.0162  0.0530
12281CHOL    C167940   7.139  16.767  14.686  0.3366  0.2930  0.2267
12281CHOL    C267941   7.119  16.702  15.110 -0.4639  0.1008  0.0580
12282CHOL   ROH67942  34.744  33.486  12.826  0.0242  0.0806  0.1611
12282CHOL    R167943  35.002  33.517  12.713  0.0282  0.0034  0.1480
12282CHOL    R267944  35.176  33.306  12.681 -0.1091 -0.0823 -0.0365
12282CHOL    R367945  35.181  33.390  12.423 -0.0938  0.1098  0.0262
12282CHOL    R467946   0.078  33.361  12.496 -0.1027 -0.2735 -0.0851
12282CHOL    R567947  35.369  33.538  12.412  0.0751 -0.0988  0.0805
12282CHOL    C167948   0.249  33.472  12.146 -0.0847 -0.2041 -0.0544
12282CHOL    C267949   0.623  33.537  12.230 -0.0514 -0.3777 -0.4018
12283CHOL   ROH67950  27.387   2.547   7.126  0.1975 -0.1994  0.0919
12283CHOL    R167951  27.308   2.532   7.397  0.0931 -0.1072  0.0671
12283CHOL    R267952  27.404   2.338   7.570 -0.0046 -0.0745  0.1595
12283CHOL    R367953  27.471   2.553   7.722 -0.0242 -0.0418  0.1219
12283CHOL    R467954  27.529   2.321   7.892  0.1711 -0.0138  0.0952
12283CHOL    R567955  27.404   2.492   7.944  0.1190 -0.0705  0.1578
12283CHOL    C167956  27.664   2.513   8.222  0.2549  0.0522  0.0226
12283CHOL    C267957  27.905   2.260   8.249  0.2324 -0.1408 -0.0084
12284CHOL   ROH67958   7.658   5.194  14.431 -0.0021  0.0480 -0.1680
12284CHOL    R167959   7.607   5.324  14.677  0.0648  0.1318 -0.1983
12284CHOL    R267960   7.360   5.427  14.742  0.0276 -0.0306 -0.0813
12284CHOL    R367961   7.389   5.272  14.963  0.3013  0.1031 -0.0212
12284CHOL    R467962   7.258   5.516  15.061 -0.0908 -0.0667 -0.1087
12284CHOL    R567963   7.441   5.427  15.138  0.0646  0.2621 -0.0877
12284CHOL    C167964   7.227   5.421  15.454  0.0972  0.0379 -0.0683
12284CHOL    C267965   7.084   5.639  15.787 -0.1002 -0.1671 -0.0518
12285CHOL   ROH67966   1.228  15.933   8.771 -0.0199 -0.1464  0.0717
12285CHOL    R167967   1.394  15.967   8.545 -0.1464 -0.1234 -0.0181
12285CHOL    R267968   1.655  16.057   8.564 -0.1816  0.0089 -0.1675
12285CHOL    R367969   1.709  15.830   8.425 -0.1366 -0.0002 -0.1360
12285CHOL    R467970   1.964  15.975   8.434 -0.1633  0.0525 -0.1518
12285CHOL    R567971   1.863  15.899   8.255 -0.1476  0.0080 -0.1443
12285CHOL    C167972   2.195  15.714   8.227 -0.1104  0.0688 -0.1136
12285CHOL    C267973   2.579  15.663   8.044  0.1538 -0.0875  0.3301
12286CHOL   ROH67974   1.718   6.796   8.067 -0.1732 -0.2208  0.1230
12286CHOL    R167975   1.570   6.850   8.302 -0.0841 -0.1395  0.1606
12286CHOL    R267976   1.367   6.686   8.392 -0.1442 -0.0352  0.2190
12286CHOL    R367977   1.511   6.687   8.622 -0.0824 -0.1014  0.1802
12286CHOL    R467978   1.232   6.687   8.710 -0.0574  0.0711  0.2558
12286CHOL    R567979   1.387   6.828   8.770  0.0414 -0.0159  0.2024
12286CHOL    C167980   1.289   6.687   9.111  0.0512  0.0708  0.2408
12286CHOL    C267981   1.398   6.806   9.478 -0.0005 -0.2598  0.3627
12287CHOL   ROH67982   6.791  24.808  15.406  0.0110 -0.0647 -0.1071
12287CHOL    R167983   6.518  24.878  15.390  0.0123 -0.0582 -0.1024
12287CHOL    R267984   6.325  24.706  15.292  0.0150 -0.0325 -0.1542
12287CHOL    R367985   6.205  24.756  15.531  0.0047 -0.0904 -0.1471
12287CHOL    R467986   6.004  24.608  15.376 -0.1068  0.2275 -0.3111
12287CHOL    R567987   5.977  24.801  15.474  0.0633  0.1833 -0.1733
12287CHOL    C167988   5.705  24.599  15.649 -0.1874  0.3239 -0.3960
12287CHOL    C267989   5.516  24.390  15.867  0.0437 -0.1722  0.0021
12288CHOL   ROH67990  18.206  18.789  17.655  0.0266  0.0943 -0.0123
12288CHOL    R167991  18.086  18.929  17.441  0.0542  0.0704 -0.0433
12288CHOL    R267992  17.930  18.804  17.251 -0.0537  0.0759  0.0433
12288CHOL    R367993  17.748  18.993  17.323  0.0616  0.2033  0.0047
12288CHOL    R467994  17.727  18.978  17.031 -0.2485 -0.1526  0.0406
12288CHOL    R567995  17.761  19.157  17.149 -0.0845 -0.0113 -0.2136
12288CHOL    C167996  17.438  19.256  16.971 -0.2533 -0.1657  0.0030
12288CHOL    C267997  17.143  19.369  16.795 -0.0948  0.1541 -0.3875
12289CHOL   ROH67998   8.586  13.530  17.881  0.2038 -0.0894 -0.0001
12289CHOL    R167999   8.803  13.471  17.710  0.1370 -0.0948 -0.0834
12289CHOL    R268000   8.769  13.377  17.453  0.0357 -0.0788 -0.0774
12289CHOL    R368001   8.926  13.590  17.388  0.0254 -0.0849 -0.1223
12289CHOL    R468002   9.002  13.380  17.198  0.2142 -0.2015  0.0832
12289CHOL    R568003   9.136  13.492  17.328  0.0931 -0.0726  0.0954
12289CHOL    C168004   9.285  13.582  16.989  0.3084 -0.2788  0.1342
12289CHOL    C268005   9.333  13.641  16.637  0.0997 -0.0077 -0.0273
12290CHOL   ROH68006  18.873   6.494  13.087  0.1167 -0.2839 -0.1050
12290CHOL    R168007  18.889   6.559  13.362 -0.0715 -0.3011 -0.0892
12290CHOL    R268008  18.873   6.369  13.562  0.1103 -0.3536 -0.1238
12290CHOL    R368009  19.109   6.478  13.641 -0.0621 -0.0475 -0.0210
12290CHOL    R468010  18.988   6.373  13.887  0.1230 -0.5222 -0.1255
12290CHOL    R568011  19.060   6.577  13.854 -0.2151 -0.3618  0.0934
12290CHOL    C168012  19.277   6.478  14.152 -0.0320 -0.3330 -0.0298
12290CHOL    C268013  19.479   6.689  14.310  0.2856 -0.1619  0.0542
12291CHOL   ROH68014  15.087  20.175  16.196 -0.0734 -0.1260 -0.0798
12291CHOL    R168015  15.225  20.124  16.438 -0.1291 -0.0195 -0.0252
12291CHOL    R268016  15.150  19.925  16.614 -0.0563 -0.0662 -0.0455
12291CHOL    R368017  15.409  19.847  16.585  0.0102  0.1143  0.0543
12291CHOL    R468018  15.315  19.706  16.824 -0.0824 -0.2026 -0.1667
12291CHOL    R568019  15.492  19.832  16.809 -0.1431 -0.0832  0.0992
12291CHOL    C168020  15.654  19.505  16.920 -0.0353 -0.1129 -0.1435
12291CHOL    C268021  16.004  19.494  16.768 -0.0859 -0.1215  0.0356
12292CHOL   ROH68022   6.229  15.551  16.631  0.1645 -0.1754  0.0457
12292CHOL    R168023   6.191  15.476  16.361  0.1081 -0.0232  0.0111
12292CHOL    R268024   6.131  15.660  16.163  0.2205  0.1095  0.0997
12292CHOL    R368025   6.349  15.551  16.041  0.1469  0.0264  0.0420
12292CHOL    R468026   6.244  15.745  15.848  0.1370  0.0258  0.0469
12292CHOL    R568027   6.285  15.534  15.811  0.0626  0.0078  0.0665
12292CHOL    C168028   6.514  15.693  15.550  0.0195 -0.1008 -0.0380
12292CHOL    C268029   6.740  15.572  15.249  0.1713 -0.0042  0.0351
12293CHOL   ROH68030   7.391  28.631  18.147 -0.1140 -0.4487 -0.0729
12293CHOL    R168031   7.620  28.756  18.257 -0.0645 -0.3311 -0.3063
12293CHOL    R268032   7.690  28.731  18.523 -0.0236  0.0652 -0.2771
12293CHOL    R368033   7.927  28.648  18.420 -0.0617 -0.1523 -0.1929
12293CHOL    R468034   7.994  28.757  18.684 -0.0272 -0.0229 -0.2560
12293CHOL    R568035   8.085  28.813  18.494  0.0335 -0.2043 -0.2808
12293CHOL    C168036   8.395  28.695  18.682 -0.0650 -0.2786 -0.1641
12293CHOL    C268037   8.719  28.995  18.803  0.5961  0.0348  0.0590
12294CHOL   ROH68038  15.722   5.458  13.261  0.2025  0.0258 -0.0379
12294CHOL    R168039  15.809   5.318  13.492  0.1251  0.0712  0.0199
12294CHOL    R268040  16.052   5.187  13.503  0.1298  0.0821  0.1326
12294CHOL    R368041  16.088   5.340  13.725  0.0398  0.1276  0.1150
12294CHOL    R468042  16.327   5.172  13.712  0.1986  0.3684  0.0636
12294CHOL    R568043  16.193   5.194  13.882  0.2258  0.2444  0.0953
12294CHOL    C168044  16.520   5.307  14.042  0.1543  0.5778  0.0070
12294CHOL    C268045  16.613   5.119  14.307  0.0051 -0.0002  0.0890
12295CHOL   ROH68046   6.045  11.255  16.332 -0.0073  0.0737  0.1204
12295CHOL    R168047   6.208  11.304  16.106 -0.1147  0.0670  0.0410
12295CHOL    R268048   6.480  11.253  16.105 -0.0942  0.1724 -0.0494
12295CHOL    R368049   6.419  11.107  15.884 -0.1251  0.0798  0.0206
12295CHOL    R468050   6.671  11.241  15.817 -0.2358  0.2031 -0.1451
12295CHOL    R568051   6.486  11.245  15.701 -0.2974  0.0683 -0.0513
12295CHOL    C168052   6.724  11.096  15.442 -0.3473  0.1338 -0.1348
12295CHOL    C268053   6.907  11.239  15.074  0.0298  0.1295 -0.5171
12296CHOL   ROH68054   4.416  15.254  12.510  0.1422 -0.0332  0.3299
12296CHOL    R168055   4.536  14.999  12.538  0.0767 -0.0927  0.0880
12296CHOL    R268056   4.546  14.865  12.779  0.2497 -0.2202  0.0122
12296CHOL    R368057   4.430  14.666  12.636  0.0447 -0.1041  0.0144
12296CHOL    R468058   4.578  14.528  12.849  0.0747 -0.2622 -0.1072
12296CHOL    R568059   4.594  14.491  12.635 -0.0659 -0.2078 -0.1277
12296CHOL    C168060   4.488  14.144  12.755 -0.2198 -0.1775 -0.1746
12296CHOL    C268061   4.221  13.900  12.925 -0.0342  0.0481  0.0436
12297CHOL   ROH68062  23.135  11.847   4.557 -0.0370 -0.2003  0.1969
12297CHOL    R168063  23.403  11.908   4.628 -0.0582 -0.0315  0.1318
12297CHOL    R268064  23.482  12.161   4.705 -0.2339 -0.0184  0.2733
12297CHOL    R368065  23.577  12.030   4.924 -0.0398 -0.0924  0.1460
12297CHOL    R468066  23.700  12.296   4.937 -0.1348 -0.0515  0.2001
12297CHOL    R568067  23.804  12.105   4.943 -0.0555 -0.0146  0.0357
12297CHOL    C168068  23.916  12.252   5.277  0.1046 -0.1402  0.0380
12297CHOL    C268069  23.895  12.596   5.368 -0.1359 -0.0478  0.1929
12298CHOL   ROH68070  25.705  19.533   4.568 -0.1004  0.0107  0.2147
12298CHOL    R168071  25.449  19.508   4.449 -0.0648 -0.0881  0.1575
12298CHOL    R268072  25.218  19.477   4.598 -0.1127  0.0585  0.1147
12298CHOL    R368073  25.135  19.693   4.455 -0.0594 -0.0692 -0.1104
12298CHOL    R468074  24.888  19.566   4.548 -0.0872  0.1884  0.1743
12298CHOL    R568075  24.938  19.617   4.342 -0.1616 -0.0952  0.0838
12298CHOL    C168076  24.618  19.821   4.385 -0.0221  0.1444 -0.0022
12298CHOL    C268077  24.271  19.649   4.269  0.1856 -0.1973  0.0853
12299CHOL   ROH68078   4.475   3.758  13.002  0.1242 -0.1048 -0.1763
12299CHOL    R168079   4.414   3.987  12.848 -0.0153 -0.0141  0.0126
12299CHOL    R268080   4.283   3.972  12.605  0.2011  0.0845 -0.1093
12299CHOL    R368081   4.113   4.149  12.722 -0.1025 -0.2325 -0.0641
12299CHOL    R468082   4.094   4.207  12.436  0.3922  0.3220  0.0023
12299CHOL    R568083   4.138   4.350  12.594  0.0344  0.0370  0.3715
12299CHOL    C168084   3.824   4.509  12.447  0.2184  0.1626  0.1096
12299CHOL    C268085   3.684   4.798  12.244  0.3619 -0.0317 -0.3137
12300CHOL   ROH68086  34.593  22.811   2.439  0.2361  0.3502  0.2935
12300CHOL    R168087  34.581  22.591   2.616  0.2804  0.1757  0.0815
12300CHOL    R268088  34.728  22.579   2.849  0.1031  0.0875  0.1913
12300CHOL    R368089  34.485  22.535   2.962  0.0469 -0.2232 -0.0446
12300CHOL    R468090  34.677  22.485   3.178 -0.1057  0.2140  0.1960
12300CHOL    R568091  34.520  22.349   3.110  0.1793 -0.0757  0.1090
12300CHOL    C168092  34.419  22.389   3.475 -0.2796 -0.0038 -0.0226
12300CHOL    C268093  34.663  22.071   3.521  0.0682 -0.0825 -0.1366
12301CHOL   ROH68094   1.503  24.296   5.173  0.0243  0.0021  0.0252
12301CHOL    R168095   1.310  24.099   5.236  0.1198 -0.1162 -0.0488
12301CHOL    R268096   1.378  23.837   5.293  0.2665 -0.0518  0.0772
12301CHOL    R368097   1.234  23.884   5.519  0.0768 -0.0832 -0.0354
12301CHOL    R468098   1.243  23.592   5.496  0.3809 -0.0866  0.1107
12301CHOL    R568099   1.065  23.715   5.518  0.2442 -0.2516 -0.0615
12301CHOL    C168100   1.031  23.492   5.826  0.2694 -0.1364  0.0246
12301CHOL    C268101   0.939  23.449   6.121  0.0505  0.1278 -0.1283
12302CHOL   ROH68102  18.384  23.284  14.001 -0.0799  0.2132  0.1392
12302CHOL    R168103  18.605  23.243  14.173 -0.0648  0.1408  0.1034
12302CHOL    R268104  18.728  23.449  14.310  0.0812  0.1146  0.0178
12302CHOL    R368105  18.678  23.292  14.526  0.0374  0.2046  0.0728
12302CHOL    R468106  18.930  23.428  14.589  0.1753  0.0027 -0.0587
12302CHOL    R568107  18.894  23.213  14.593 -0.0044  0.0362  0.0035
12302CHOL    C168108  19.001  23.268  14.955  0.1888  0.0221 -0.0518
12302CHOL    C268109  19.184  23.076  15.247 -0.1329 -0.0736 -0.1969
12303CHOL   ROH68110   5.171   0.776  13.677 -0.0266 -0.2751 -0.0752
12303CHOL    R168111   4.919   0.832  13.794 -0.0315 -0.1796 -0.1307
12303CHOL    R268112   4.826   0.698  14.017 -0.0449 -0.0053 -0.0311
12303CHOL    R368113   4.798   0.950  14.117 -0.0458  0.0729 -0.2272
12303CHOL    R468114   4.591   0.793  14.252  0.0253  0.1515 -0.0236
12303CHOL    R568115   4.562   0.978  14.141 -0.0418  0.0572 -0.1658
12303CHOL    C168116   4.428   1.084  14.482  0.0654  0.3162 -0.2031
12303CHOL    C268117   4.149   1.229  14.705 -0.0995 -0.2806  0.0382
12304CHOL   ROH68118  31.946   9.373   7.496 -0.0736 -0.1109 -0.0827
12304CHOL    R168119  31.974   9.162   7.310  0.0629 -0.0873 -0.0896
12304CHOL    R268120  32.167   9.163   7.113  0.1264 -0.0017 -0.0299
12304CHOL    R368121  32.232   8.921   7.220  0.1808  0.0152 -0.0254
12304CHOL    R468122  32.367   8.926   6.959  0.1286  0.0132 -0.0499
12304CHOL    R568123  32.232   8.771   7.033  0.1652  0.0010 -0.0126
12304CHOL    C168124  32.544   8.562   6.971  0.1808  0.0376 -0.0574
12304CHOL    C268125  32.583   8.279   6.683  0.1733 -0.4855 -0.0648
12305CHOL   ROH68126  12.476  10.627  18.518  0.0456 -0.0422  0.0036
12305CHOL    R168127  12.292  10.536  18.323  0.0097  0.0525 -0.0067
12305CHOL    R268128  12.373  10.416  18.088 -0.0425 -0.0997  0.0532
12305CHOL    R368129  12.205  10.218  18.169 -0.2369  0.0753  0.0830
12305CHOL    R468130  12.245  10.169  17.882 -0.0593 -0.1686  0.1459
12305CHOL    R568131  12.054  10.189  17.985 -0.1225  0.0401 -0.0074
12305CHOL    C168132  12.013   9.839  17.839 -0.2514 -0.0443  0.2280
12305CHOL    C268133  12.029   9.509  18.014  0.0334 -0.2353  0.3004
12306CHOL   ROH68134  23.873  15.777   8.731 -0.0856 -0.0047  0.0708
12306CHOL    R168135  23.607  15.699   8.675 -0.0227 -0.0562 -0.1587
12306CHOL    R268136  23.391  15.788   8.822 -0.1537 -0.2024 -0.2617
12306CHOL    R368137  23.298  15.863   8.578 -0.0057 -0.0996 -0.2871
12306CHOL    R468138  23.064  15.753   8.716 -0.1278 -0.0037 -0.4115
12306CHOL    R568139  23.139  15.694   8.520 -0.0732 -0.0026 -0.3921
12306CHOL    C168140  22.785  15.803   8.426  0.0258  0.2087 -0.5223
12306CHOL    C268141  22.691  15.498   8.060  0.2369  0.0210  0.0474
12307CHOL   ROH68142  32.522  19.002   1.178 -0.0295 -0.5432  0.1779
12307CHOL    R168143  32.514  19.165   1.409  0.1469 -0.2499 -0.0203
12307CHOL    R268144  32.397  19.083   1.645 -0.0378  0.2064  0.0507
12307CHOL    R368145  32.639  19.147   1.751  0.0290 -0.0214  0.0361
12307CHOL    R468146  32.466  19.104   1.984  0.1274 -0.3307  0.0554
12307CHOL    R568147  32.587  19.281   1.943  0.1560 -0.2991  0.2682
12307CHOL    C168148  32.733  19.176   2.279  0.2869 -0.8562  0.0444
12307CHOL    C268149  32.537  19.471   2.510  0.2461 -0.1719 -0.2262
12308CHOL   ROH68150  29.698  11.638   1.018  0.3188 -0.2304  0.1395
12308CHOL    R168151  29.577  11.580   1.267  0.2552 -0.2808  0.0969
12308CHOL    R268152  29.722  11.500   1.488  0.2428  0.0291  0.2208
12308CHOL    R368153  29.596  11.710   1.607 -0.1224 -0.0875  0.0463
12308CHOL    R468154  29.683  11.540   1.829  0.3592  0.3494  0.1984
12308CHOL    R568155  29.480  11.613   1.793  0.1848 -0.1097  0.2270
12308CHOL    C168156  29.542  11.760   2.139  0.0839  0.4263  0.0216
12308CHOL    C268157  29.462  11.825   2.532  0.0870 -0.0352 -0.1774
12309CHOL   ROH68158   4.644  10.745  14.839 -0.0170 -0.0691  0.0305
12309CHOL    R168159   4.907  10.658  14.785 -0.1168 -0.3717  0.0199
12309CHOL    R268160   4.964  10.465  14.595 -0.2989 -0.0364 -0.3847
12309CHOL    R368161   5.132  10.656  14.498  0.0789 -0.0742  0.1694
12309CHOL    R468162   5.259  10.402  14.425 -0.3413 -0.1212 -0.4271
12309CHOL    R568163   5.351  10.567  14.534 -0.0889 -0.5551  0.0346
12309CHOL    C168164   5.587  10.545  14.235 -0.0112 -0.2062  0.0685
12309CHOL    C268165   6.114  10.568  14.256  0.3253  0.1733  0.2192
12310CHOL   ROH68166   3.739  10.560  13.666 -0.1677  0.0460 -0.0654
12310CHOL    R168167   4.004  10.485  13.603 -0.0780  0.2995  0.0072
12310CHOL    R268168   4.064  10.272  13.438  0.1730  0.0837  0.3715
12310CHOL    R368169   4.208  10.459  13.303 -0.1134  0.0456  0.0035
12310CHOL    R468170   4.281  10.204  13.178  0.1905 -0.0849  0.4297
12310CHOL    R568171   4.418  10.352  13.261  0.0193  0.2474  0.1351
12310CHOL    C168172   4.544  10.339  12.901 -0.0680 -0.2186  0.1182
12310CHOL    C268173   4.622  10.015  12.810 -0.0077  0.3540 -0.2014
12311CHOL   ROH68174  22.588  34.701  11.805  0.1458 -0.0390 -0.1299
12311CHOL    R168175  22.401  34.841  11.646  0.0206 -0.0572 -0.0003
12311CHOL    R268176  22.463  34.943  11.397 -0.1225  0.0716  0.0148
12311CHOL    R368177  22.247  34.798  11.319 -0.0884  0.0061  0.0428
12311CHOL    R468178  22.317  34.960  11.084 -0.1974  0.0618  0.0495
12311CHOL    R568179  22.122  34.948  11.180 -0.1717 -0.0206  0.0904
12311CHOL    C168180  22.029  34.834  10.828 -0.2087 -0.0055  0.0958
12311CHOL    C268181  22.136  35.156  10.579  0.1698  0.1248 -0.0323
12312CHOL   ROH68182   2.995   5.817  13.954 -0.1321 -0.0736 -0.2455
12312CHOL    R168183   3.182   5.653  13.819  0.0055 -0.0326 -0.1058
12312CHOL    R268184   3.305   5.730  13.584 -0.0161 -0.1054 -0.1408
12312CHOL    R368185   3.532   5.676  13.723  0.0041  0.1525 -0.0700
12312CHOL    R468186   3.626   5.768  13.461 -0.0349 -0.3725 -0.2763
12312CHOL    R568187   3.681   5.582  13.560 -0.0315 -0.1840  0.0859
12312CHOL    C168188   4.026   5.739  13.519 -0.0269 -0.2858 -0.2888
12312CHOL    C268189   4.068   5.823  13.127  0.1904 -0.1826 -0.1688
12313CHOL   ROH68190  17.755  20.328  14.310  0.0516  0.3256  0.0093
12313CHOL    R168191  18.024  20.363  14.393  0.0454  0.3122  0.0359
12313CHOL    R268192  18.092  20.507  14.619  0.0175  0.1335  0.1611
12313CHOL    R368193  18.223  20.279  14.686  0.0666  0.1023 -0.0385
12313CHOL    R468194  18.299  20.472  14.893  0.0946 -0.0387  0.0816
12313CHOL    R568195  18.434  20.355  14.769  0.0776  0.0694 -0.0389
12313CHOL    C168196  18.543  20.237  15.116  0.1848 -0.1688 -0.1519
12313CHOL    C268197  18.884  20.183  15.339  0.0318  0.2418 -0.2346
12314CHOL   ROH68198   7.024  21.029  13.835 -0.0377  0.0511 -0.1127
12314CHOL    R168199   6.751  20.965  13.875 -0.0770  0.1841 -0.1642
12314CHOL    R268200   6.651  20.890  14.122 -0.0555 -0.2760 -0.2904
12314CHOL    R368201   6.477  21.094  14.077  0.0951 -0.0288  0.2107
12314CHOL    R468202   6.316  20.884  14.204 -0.0676 -0.2447 -0.3378
12314CHOL    R568203   6.272  20.984  14.016  0.0211  0.2724 -0.0915
12314CHOL    C168204   5.956  21.072  14.211  0.0666  0.0052  0.1051
12314CHOL    C268205   5.518  20.930  14.404 -0.0167 -0.0406 -0.1115
12315CHOL   ROH68206  31.831  22.548   2.704 -0.0027  0.1851  0.0751
12315CHOL    R168207  31.673  22.740   2.840 -0.0212  0.1511  0.1020
12315CHOL    R268208  31.599  22.980   2.725 -0.1080  0.1270  0.1083
12315CHOL    R368209  31.348  22.897   2.792 -0.0721  0.0664  0.1679
12315CHOL    R468210  31.335  23.190   2.800 -0.1850  0.0656  0.0100
12315CHOL    R568211  31.278  23.053   2.959 -0.1223  0.1297  0.0878
12315CHOL    C168212  30.946  23.235   2.906 -0.1961 -0.0265  0.0087
12315CHOL    C268213  30.690  23.339   3.141 -0.1376 -0.1570  0.2048
12316CHOL   ROH68214  25.179   9.340   9.235 -0.0860 -0.1099  0.0974
12316CHOL    R168215  24.923   9.289   9.128 -0.0584  0.0122 -0.0294
12316CHOL    R268216  24.859   9.053   9.000 -0.1124  0.0347 -0.0477
12316CHOL    R368217  24.657   9.045   9.182 -0.2066  0.1473 -0.1473
12316CHOL    R468218  24.552   8.903   8.947 -0.1282  0.1041 -0.1532
12316CHOL    R568219  24.458   9.071   9.050 -0.1331  0.1608 -0.2537
12316CHOL    C168220  24.183   8.809   9.088 -0.2257  0.2502 -0.3081
12316CHOL    C268221  23.952   8.569   9.278  0.0117 -0.1719 -0.0877
12317CHOL   ROH68222   0.996  13.818   8.823  0.0318  0.0550 -0.1282
12317CHOL    R168223   1.178  13.767   8.612 -0.0706 -0.1152 -0.1759
12317CHOL    R268224   1.451  13.791   8.641 -0.0633  0.0397 -0.3657
12317CHOL    R368225   1.452  13.536   8.549 -0.0074 -0.0711 -0.0642
12317CHOL    R468226   1.732  13.621   8.535 -0.0430  0.0164 -0.2745
12317CHOL    R568227   1.614  13.537   8.372 -0.0772 -0.2199 -0.1304
12317CHOL    C168228   1.897  13.281   8.387  0.0214 -0.1010  0.0617
12317CHOL    C268229   2.176  13.031   8.276 -0.1234  0.0761  0.0383
12318CHOL   ROH68230   2.574  20.998   5.225 -0.1096 -0.0377 -0.1804
12318CHOL    R168231   2.432  20.871   5.435  0.0414  0.0402 -0.0304
12318CHOL    R268232   2.331  21.010   5.650 -0.0538  0.1631 -0.1529
12318CHOL    R368233   2.098  20.890   5.577  0.0459 -0.1279  0.0024
12318CHOL    R468234   2.076  20.923   5.868  0.0196  0.2321 -0.0393
12318CHOL    R568235   2.051  20.738   5.756  0.1741  0.0645  0.2012
12318CHOL    C168236   1.710  20.759   5.926  0.1560 -0.0008  0.1727
12318CHOL    C268237   1.555  20.622   6.346 -0.0983  0.1913 -0.0212
12319CHOL   ROH68238  30.792  24.770   6.048 -0.0653  0.1398  0.0015
12319CHOL    R168239  30.878  24.946   5.843 -0.0551  0.1186 -0.0122
12319CHOL    R268240  30.727  24.996   5.617 -0.0003  0.0208 -0.0707
12319CHOL    R368241  30.759  25.255   5.692 -0.1031  0.0480 -0.1207
12319CHOL    R468242  30.869  25.243   5.421  0.0723 -0.0031 -0.0484
12319CHOL    R568243  30.969  25.319   5.598 -0.0566  0.0664 -0.0045
12319CHOL    C168244  30.980  25.630   5.377  0.0179  0.0088 -0.0823
12319CHOL    C268245  31.168  26.033   5.350  0.1741 -0.0809 -0.1533
12320CHOL   ROH68246  18.550  12.385  13.127 -0.0788 -0.1463 -0.0091
12320CHOL    R168247  18.794  12.368  13.269 -0.1377  0.0194  0.1140
12320CHOL    R268248  18.855  12.535  13.480 -0.3535  0.0664  0.1419
12320CHOL    R368249  18.897  12.301  13.612 -0.2652  0.0967  0.1672
12320CHOL    R468250  19.099  12.484  13.720 -0.0521  0.0578 -0.1620
12320CHOL    R568251  19.135  12.287  13.634 -0.2396  0.0160 -0.1437
12320CHOL    C168252  19.279  12.234  13.983  0.2060  0.0809 -0.3152
12320CHOL    C268253  19.464  12.123  14.302 -0.0288  0.2429  0.0221
12321CHOL   ROH68254  17.238  24.837  16.554  0.2093  0.2352 -0.2553
12321CHOL    R168255  17.352  25.050  16.701  0.1205  0.1925 -0.1245
12321CHOL    R268256  17.199  25.244  16.824  0.0467  0.1725 -0.1843
12321CHOL    R368257  17.340  25.170  17.044 -0.1113  0.1110 -0.1030
12321CHOL    R468258  17.281  25.455  17.086  0.0736  0.1617 -0.1844
12321CHOL    R568259  17.477  25.361  17.093  0.0029  0.0212 -0.0731
12321CHOL    C168260  17.461  25.508  17.444 -0.0584  0.0977 -0.1076
12321CHOL    C268261  17.790  25.654  17.607 -0.1296  0.3160  0.1485
12322CHOL   ROH68262  15.269  26.663  17.375  0.0492 -0.2605  0.2094
12322CHOL    R168263  15.311  26.804  17.617  0.0422 -0.3254  0.2483
12322CHOL    R268264  15.509  26.735  17.796  0.2433 -0.1777  0.0842
12322CHOL    R368265  15.581  26.995  17.768 -0.0831 -0.0766  0.1602
12322CHOL    R468266  15.728  26.903  18.004  0.2677 -0.0513 -0.0420
12322CHOL    R568267  15.597  27.077  17.992  0.0535 -0.1904  0.1934
12322CHOL    C168268  15.923  27.246  18.099 -0.0248  0.1173 -0.0447
12322CHOL    C268269  16.296  27.412  18.299  0.0058 -0.0367  0.0135
12323CHOL   ROH68270  13.057  33.138  16.142  0.1213  0.0729 -0.0057
12323CHOL    R168271  13.106  33.072  16.413  0.1160 -0.0599 -0.0370
12323CHOL    R268272  13.347  32.969  16.500  0.2128  0.1660 -0.0382
12323CHOL    R368273  13.337  33.178  16.673 -0.0897  0.0337  0.1100
12323CHOL    R468274  13.441  32.955  16.832  0.2110  0.0607 -0.0414
12323CHOL    R568275  13.270  33.080  16.881  0.0309 -0.2098  0.0374
12323CHOL    C168276  13.487  33.143  17.188 -0.0737 -0.1259  0.0951
12323CHOL    C268277  13.634  33.137  17.554  0.2976  0.1526  0.1512
12324CHOL   ROH68278   0.751   3.997   8.403 -0.3667 -0.1430  0.2741
12324CHOL    R168279   0.828   4.225   8.551 -0.0597 -0.1163  0.0765
12324CHOL    R268280   0.684   4.318   8.768  0.1045  0.2212  0.0448
12324CHOL    R368281   0.924   4.299   8.894  0.1168  0.0389 -0.0053
12324CHOL    R468282   0.792   4.528   9.020  0.2144 -0.0148  0.1966
12324CHOL    R568283   0.991   4.526   8.930  0.2000 -0.0119  0.1654
12324CHOL    C168284   1.081   4.633   9.285  0.2899 -0.3235  0.2380
12324CHOL    C268285   1.268   4.874   9.450 -0.2002 -0.0336 -0.0361
12325CHOL   ROH68286  31.916  23.766   0.913  0.0960 -0.2486  0.1090
12325CHOL    R168287  31.774  23.639   1.123  0.0288 -0.1303  0.1362
12325CHOL    R268288  31.508  23.691   1.176 -0.0013 -0.1346 -0.0072
12325CHOL    R368289  31.484  23.421   1.152  0.0496 -0.1542  0.1615
12325CHOL    R468290  31.312  23.492   1.379 -0.0290 -0.0351  0.0636
12325CHOL    R568291  31.471  23.343   1.378 -0.0053 -0.0097  0.2083
12325CHOL    C168292  31.175  23.123   1.475  0.0021  0.0044  0.2631
12325CHOL    C268293  30.930  22.874   1.500  0.0542 -0.0421 -0.2428
12326CHOL   ROH68294  19.906  25.990  16.786  0.0179 -0.0317 -0.3044
12326CHOL    R168295  19.660  26.105  16.707 -0.0160 -0.0307 -0.1970
12326CHOL    R268296  19.444  25.953  16.627 -0.0363 -0.0277 -0.1488
12326CHOL    R368297  19.314  26.092  16.821  0.0242 -0.0702 -0.0775
12326CHOL    R468298  19.103  26.012  16.633 -0.0029  0.1694 -0.1513
12326CHOL    R568299  19.145  26.214  16.703  0.1093  0.1030 -0.0219
12326CHOL    C168300  18.783  26.177  16.820  0.0735  0.2451 -0.0857
12326CHOL    C268301  18.519  26.289  16.510 -0.1352 -0.1785  0.0041
12327CHOL   ROH68302  24.865  16.309   5.846  0.0841 -0.2985 -0.1014
12327CHOL    R168303  24.784  16.214   5.592 -0.0826 -0.2035 -0.0854
12327CHOL    R268304  24.526  16.241   5.497 -0.0842  0.0562 -0.0099
12327CHOL    R368305  24.651  16.358   5.286 -0.0297 -0.0512 -0.0370
12327CHOL    R468306  24.418  16.224   5.170 -0.1022  0.0465 -0.0034
12327CHOL    R568307  24.625  16.200   5.107 -0.1163 -0.0732 -0.0044
12327CHOL    C168308  24.472  16.323   4.780 -0.0611 -0.0596 -0.0248
12327CHOL    C268309  24.379  16.455   4.348  0.0570 -0.3086  0.2424
12328CHOL   ROH68310  21.754  32.480  11.810 -0.0489  0.0069  0.0324
12328CHOL    R168311  21.722  32.336  11.569 -0.0504  0.0729 -0.0071
12328CHOL    R268312  21.491  32.197  11.508 -0.0292  0.0436 -0.0189
12328CHOL    R368313  21.498  32.347  11.282 -0.0896  0.1132  0.0253
12328CHOL    R468314  21.299  32.139  11.227  0.1041 -0.0431 -0.0927
12328CHOL    R568315  21.472  32.188  11.104  0.0996  0.1396 -0.0272
12328CHOL    C168316  21.193  32.246  10.851  0.1250 -0.0280 -0.0944
12328CHOL    C268317  21.035  32.433  10.620  0.2152  0.0852 -0.0782
12329CHOL   ROH68318  32.471  28.363   5.441  0.1254  0.2376  0.2686
12329CHOL    R168319  32.552  28.105   5.524  0.0526  0.1789  0.1585
12329CHOL    R268320  32.689  28.060   5.759  0.1008  0.0475  0.1074
12329CHOL    R368321  32.487  27.885   5.806  0.0486  0.1065  0.1008
12329CHOL    R468322  32.695  27.811   5.998  0.0080  0.0612  0.1245
12329CHOL    R568323  32.598  27.678   5.856 -0.0149  0.0797  0.1255
12329CHOL    C168324  32.509  27.501   6.181 -0.0954  0.1252  0.1284
12329CHOL    C268325  32.365  27.139   6.319  0.2258  0.0809  0.1061
12330CHOL   ROH68326   2.017  26.155  16.015 -0.0687  0.1267  0.0159
12330CHOL    R168327   2.058  26.316  15.785  0.0519  0.1947  0.0851
12330CHOL    R268328   1.927  26.271  15.547  0.2996  0.1643 -0.0459
12330CHOL    R368329   1.855  26.532  15.574  0.1232  0.1187 -0.0626
12330CHOL    R468330   1.844  26.482  15.286 -0.0398  0.0374 -0.0446
12330CHOL    R568331   1.955  26.641  15.386 -0.0879  0.1465 -0.1608
12330CHOL    C168332   1.730  26.850  15.159 -0.4030 -0.0793 -0.0600
12330CHOL    C268333   1.591  27.044  15.135  0.2077 -0.0043  0.0239
12331CHOL   ROH68334  32.599  10.719   2.194 -0.1449 -0.1660 -0.1545
12331CHOL    R168335  32.392  10.890   2.283 -0.0202 -0.0582 -0.0695
12331CHOL    R268336  32.134  10.801   2.326 -0.0765  0.0998 -0.0750
12331CHOL    R368337  32.171  10.910   2.572  0.0241 -0.0158 -0.0384
12331CHOL    R468338  31.882  10.870   2.552  0.0093  0.0555  0.0344
12331CHOL    R568339  31.983  11.056   2.602  0.0648  0.0119  0.0843
12331CHOL    C168340  31.770  11.012   2.915  0.1536 -0.0786  0.1323
12331CHOL    C268341  31.837  10.866   3.302 -0.1975  0.1590  0.2706
12332CHOL   ROH68342  23.327   0.341  11.347  0.0508 -0.0179  0.0553
12332CHOL    R168343  23.344   0.495  11.111  0.0160  0.1168  0.1399
12332CHOL    R268344  23.479   0.408  10.886  0.0992  0.3027  0.1162
12332CHOL    R368345  23.242   0.459  10.763  0.0951  0.2499  0.1021
12332CHOL    R468346  23.443   0.495  10.553  0.0750 -0.0034  0.0371
12332CHOL    R568347  23.290   0.639  10.612  0.1219  0.0946 -0.0762
12332CHOL    C168348  23.199   0.594  10.245  0.0565 -0.2311 -0.0218
12332CHOL    C268349  22.925   0.653   9.936  0.2009 -0.0862  0.3594
12333CHOL   ROH68350  16.247   4.553  13.296 -0.0386 -0.0503  0.0853
12333CHOL    R168351  16.337   4.688  13.527 -0.1118  0.1276  0.0113
12333CHOL    R268352  16.165   4.786  13.720 -0.1557 -0.0631  0.0723
12333CHOL    R368353  16.319   4.637  13.887  0.1289  0.1829  0.0313
12333CHOL    R468354  16.139   4.787  14.064 -0.1421 -0.1935  0.0740
12333CHOL    R568355  16.357   4.781  14.076 -0.1291  0.2090  0.0629
12333CHOL    C168356  16.269   4.649  14.423  0.1327 -0.0384  0.0363
12333CHOL    C268357  16.164   4.648  14.772 -0.0866 -0.1149 -0.0063
12334CHOL   ROH68358   2.212  25.971  16.860  0.2238 -0.0741  0.0724
12334CHOL    R168359   2.356  25.936  16.620  0.1179 -0.0519  0.0051
12334CHOL    R268360   2.291  26.068  16.386  0.0662  0.0329  0.0680
12334CHOL    R368361   2.552  26.145  16.395  0.0936 -0.0495 -0.0140
12334CHOL    R468362   2.476  26.172  16.113 -0.0050  0.0322  0.0193
12334CHOL    R568363   2.645  26.060  16.191 -0.0094 -0.0368 -0.0677
12334CHOL    C168364   2.828  26.305  15.962 -0.0207 -0.0452 -0.0858
12334CHOL    C268365   2.933  26.664  15.752 -0.3891  0.0569  0.0259
12335CHOL   ROH68366   9.930  18.707  15.263  0.2347 -0.0262 -0.1455
12335CHOL    R168367   9.776  18.636  15.490  0.1952  0.0345 -0.1537
12335CHOL    R268368   9.561  18.463  15.475  0.1465  0.0966 -0.1601
12335CHOL    R368369   9.696  18.331  15.671  0.0904  0.0701 -0.1391
12335CHOL    R468370   9.420  18.234  15.692  0.0259  0.2645 -0.0594
12335CHOL    R568371   9.541  18.319  15.853  0.1120  0.2369 -0.1080
12335CHOL    C168372   9.465  17.976  16.001 -0.0971  0.3372  0.0190
12335CHOL    C268373   9.406  17.742  16.140 -0.0306  0.2709  0.1460
12336CHOL   ROH68374   7.569  15.834  13.355 -0.0625  0.0183  0.0775
12336CHOL    R168375   7.546  15.903  13.628 -0.0858 -0.0302  0.0875
12336CHOL    R268376   7.319  16.018  13.734 -0.0735  0.0011  0.0770
12336CHOL    R368377   7.333  15.810  13.908 -0.1473 -0.0353  0.0396
12336CHOL    R468378   7.214  16.028  14.063 -0.0751 -0.0204  0.0773
12336CHOL    R568379   7.389  15.911  14.118 -0.1152 -0.0912  0.0587
12336CHOL    C168380   7.166  15.838  14.418 -0.1455 -0.0673  0.0423
12336CHOL    C268381   7.127  16.079  14.767 -0.0749  0.2033 -0.1589
12337CHOL   ROH68382  24.068  26.037   4.750 -0.1291  0.0697 -0.0098
12337CHOL    R168383  24.088  26.073   5.030 -0.1553 -0.0780  0.0114
12337CHOL    R268384  24.118  25.862   5.206  0.1681 -0.1482 -0.1258
12337CHOL    R368385  24.334  26.004   5.289 -0.0281  0.1157 -0.0564
12337CHOL    R468386  24.248  25.854   5.526  0.2205 -0.1801 -0.1477
12337CHOL    R568387  24.280  26.069   5.513 -0.0986 -0.1198 -0.0024
12337CHOL    C168388  24.527  25.981   5.790  0.0676  0.0488 -0.0954
12337CHOL    C268389  24.650  26.207   6.083 -0.2838  0.0348  0.1538
12338CHOL   ROH68390  31.999  18.667   0.966  0.0086 -0.1155  0.1276
12338CHOL    R168391  31.780  18.600   1.132 -0.0345 -0.1547  0.0549
12338CHOL    R268392  31.711  18.748   1.354 -0.0556 -0.2411  0.1058
12338CHOL    R368393  31.468  18.756   1.233 -0.0312 -0.1517  0.0610
12338CHOL    R468394  31.425  18.883   1.494 -0.0597 -0.2459  0.1033
12338CHOL    R568395  31.312  18.716   1.411 -0.0727 -0.1942  0.0158
12338CHOL    C168396  31.030  18.968   1.463 -0.0383 -0.1645  0.0597
12338CHOL    C268397  30.949  19.110   1.820 -0.0298  0.3053  0.2334
12339CHOL   ROH68398  19.678  22.661  12.330  0.0949  0.3088 -0.0830
12339CHOL    R168399  19.911  22.535  12.430 -0.0511  0.1583  0.0717
12339CHOL    R268400  20.148  22.530  12.290 -0.0127 -0.1580  0.1459
12339CHOL    R368401  20.249  22.637  12.518  0.0183 -0.0966  0.1036
12339CHOL    R468402  20.484  22.546  12.369 -0.0116 -0.2892  0.1704
12339CHOL    R568403  20.433  22.495  12.575 -0.0586 -0.1629  0.1911
12339CHOL    C168404  20.774  22.656  12.631  0.0177 -0.3074  0.1451
12339CHOL    C268405  21.061  22.686  12.459 -0.0071  0.0369  0.0799
12340CHOL   ROH68406   5.967  27.953  17.047  0.0849  0.0147  0.0765
12340CHOL    R168407   5.777  27.799  17.189  0.0604 -0.0336 -0.0080
12340CHOL    R268408   5.563  27.913  17.322  0.1036 -0.0680  0.0929
12340CHOL    R368409   5.418  27.738  17.171  0.0425  0.0725 -0.0120
12340CHOL    R468410   5.221  27.868  17.345  0.0673  0.1381 -0.0347
12340CHOL    R568411   5.252  27.654  17.321 -0.0600  0.1265 -0.0956
12340CHOL    C168412   4.886  27.678  17.216 -0.0110  0.3893 -0.2081
12340CHOL    C268413   4.768  27.559  17.544  0.0282 -0.2671 -0.0095
12341CHOL   ROH68414   5.353  15.084  10.977  0.0433 -0.2778  0.0276
12341CHOL    R168415   5.148  14.915  11.075  0.0239 -0.2315  0.0678
12341CHOL    R268416   4.891  15.004  11.121  0.1166 -0.1103  0.3615
12341CHOL    R368417   4.824  14.797  10.958 -0.1505  0.0604  0.2507
12341CHOL    R468418   4.637  14.777  11.183  0.0062  0.0166  0.3766
12341CHOL    R568419   4.767  14.619  11.107 -0.1597 -0.0160  0.1560
12341CHOL    C168420   4.427  14.451  11.065 -0.3089  0.2510  0.2813
12341CHOL    C268421   4.261  14.246  11.326 -0.2159  0.0463 -0.1808
12342CHOL   ROH68422  22.810  20.455  12.479 -0.0635  0.0561  0.2173
12342CHOL    R168423  22.540  20.473  12.393 -0.0135  0.3122  0.1093
12342CHOL    R268424  22.455  20.659  12.209  0.3562  0.0187 -0.3682
12342CHOL    R368425  22.360  20.440  12.079  0.0128 -0.1415  0.1376
12342CHOL    R468426  22.193  20.661  11.983  0.3830 -0.0835 -0.4012
12342CHOL    R568427  22.123  20.474  12.070  0.0656  0.2279  0.0378
12342CHOL    C168428  21.952  20.457  11.729  0.0766 -0.2933  0.0548
12342CHOL    C268429  21.809  20.534  11.419  0.1256 -0.1513 -0.0249
12343CHOL   ROH68430  22.960  26.264   7.172 -0.2323  0.0174  0.1202
12343CHOL    R168431  22.875  26.494   7.314 -0.0248  0.1003  0.1122
12343CHOL    R268432  22.698  26.480   7.525 -0.0891  0.2753  0.0696
12343CHOL    R368433  22.894  26.614   7.657  0.0220  0.0625  0.1229
12343CHOL    R468434  22.648  26.683   7.800  0.1062  0.0586  0.2676
12343CHOL    R568435  22.794  26.823   7.717  0.1465  0.0599  0.3420
12343CHOL    C168436  22.803  26.928   8.084  0.3239 -0.2674  0.4330
12343CHOL    C268437  22.526  27.000   8.379 -0.0244  0.0798 -0.4012
12344CHOL   ROH68438  28.256  33.460   9.536  0.0716  0.0401  0.1705
12344CHOL    R168439  28.209  33.576   9.282 -0.1085 -0.1308  0.1245
12344CHOL    R268440  28.414  33.668   9.121 -0.2466  0.0878  0.0724
12344CHOL    R368441  28.300  33.503   8.937 -0.0298 -0.1492  0.1489
12344CHOL    R468442  28.503  33.652   8.788 -0.3483  0.1842  0.0401
12344CHOL    R568443  28.292  33.634   8.737 -0.3399 -0.1980  0.1264
12344CHOL    C168444  28.449  33.488   8.421 -0.2041  0.0179  0.0930
12344CHOL    C268445  28.338  33.326   8.090 -0.2999 -0.2252  0.1790
12345CHOL   ROH68446  15.172  27.643  17.205  0.1043  0.0065 -0.1533
12345CHOL    R168447  15.412  27.759  17.300  0.0789  0.1112 -0.2172
12345CHOL    R268448  15.482  28.021  17.244 -0.1284  0.1925 -0.1002
12345CHOL    R368449  15.503  28.039  17.515  0.0104  0.0439 -0.1002
12345CHOL    R468450  15.757  28.146  17.413 -0.0586  0.1404 -0.1734
12345CHOL    R568451  15.733  27.987  17.560  0.0431  0.0538 -0.2501
12345CHOL    C168452  15.936  28.236  17.765  0.1122 -0.0293 -0.2168
12345CHOL    C268453  16.016  28.249  18.138 -0.2497  0.2147  0.0040
12346CHOL   ROH68454   3.919  12.289  13.770  0.1029 -0.0771  0.0077
12346CHOL    R168455   3.969  12.278  13.492  0.1870 -0.3342  0.0315
12346CHOL    R268456   4.048  12.500  13.346 -0.3622 -0.3222 -0.2602
12346CHOL    R368457   4.253  12.338  13.272  0.0835  0.1056  0.0122
12346CHOL    R468458   4.213  12.517  13.044 -0.2549 -0.2295 -0.1964
12346CHOL    R568459   4.217  12.299  13.039  0.2917 -0.2328  0.0333
12346CHOL    C168460   4.503  12.376  12.798  0.2260  0.2263  0.0964
12346CHOL    C268461   4.602  12.299  12.469 -0.4654  0.1417  0.1027
12347CHOL   ROH68462   1.379  35.220  10.770  0.0979 -0.2116  0.1300
12347CHOL    R168463   1.121  35.192  10.882  0.0591 -0.0816  0.0730
12347CHOL    R268464   1.038  34.962  11.009 -0.0731 -0.0275  0.0844
12347CHOL    R368465   0.980  35.133  11.212 -0.0460  0.0247  0.0482
12347CHOL    R468466   0.843  34.884  11.284 -0.0634  0.0523  0.1142
12347CHOL    R568467   0.753  35.082  11.270 -0.0473  0.0568  0.0733
12347CHOL    C168468   0.674  34.999  11.634 -0.0323  0.1476  0.0976
12347CHOL    C268469   0.353  34.771  11.726 -0.3005  0.3309 -0.2124
12348CHOL   ROH68470  13.609  29.639  17.284  0.0319  0.1098 -0.0281
12348CHOL    R168471  13.816  29.600  17.473 -0.0004 -0.1944 -0.0536
12348CHOL    R268472  13.869  29.781  17.675  0.3145 -0.2545 -0.0836
12348CHOL    R368473  13.840  29.564  17.835 -0.0040 -0.1912 -0.0524
12348CHOL    R468474  13.977  29.761  18.002  0.2544 -0.3483 -0.0690
12348CHOL    R568475  14.042  29.557  17.963 -0.0225 -0.4482 -0.0307
12348CHOL    C168476  14.012  29.545  18.343 -0.0794 -0.3438 -0.0312
12348CHOL    C268477  14.224  29.424  18.667  0.2291 -0.2287  0.0597
12349CHOL   ROH68478  25.255   1.285  10.887 -0.3293  0.0131  0.2096
12349CHOL    R168479  25.279   1.221  10.613 -0.0801 -0.0872  0.2536
12349CHOL    R268480  25.071   1.114  10.466  0.0551 -0.1484  0.1060
12349CHOL    R368481  25.120   1.325  10.302  0.1939 -0.2071  0.0710
12349CHOL    R468482  24.988   1.127  10.131 -0.2117 -0.0328  0.1754
12349CHOL    R568483  25.179   1.225  10.092 -0.1129 -0.2808  0.0172
12349CHOL    C168484  24.986   1.333   9.782 -0.2367 -0.0205  0.1828
12349CHOL    C268485  24.874   1.276   9.432 -0.3579  0.0856 -0.2032
12350CHOL   ROH68486  14.362  24.335  21.000 -0.2035 -0.3634  0.0761
12350CHOL    R168487  14.399  24.345  20.720 -0.2427 -0.2035  0.0761
12350CHOL    R268488  14.557  24.163  20.584 -0.2011 -0.0811 -0.0405
12350CHOL    R368489  14.332  24.126  20.437 -0.2078 -0.0766 -0.0313
12350CHOL    R468490  14.542  23.986  20.288 -0.2161 -0.0854 -0.0372
12350CHOL    R568491  14.407  24.139  20.210 -0.2150 -0.0820 -0.0343
12350CHOL    C168492  14.322  23.849  19.976 -0.2311 -0.0837 -0.0267
12350CHOL    C268493  14.418  23.927  19.502  0.2484  0.2294 -0.0402
12351CHOL   ROH68494  21.919  33.122   8.567  0.3754 -0.1158 -0.1047
12351CHOL    R168495  21.951  32.873   8.699 -0.0727 -0.1045  0.0314
12351CHOL    R268496  22.157  32.824   8.877 -0.0375 -0.4446 -0.1011
12351CHOL    R368497  21.954  32.755   9.044 -0.0652  0.1134  0.1074
12351CHOL    R468498  22.198  32.681   9.188 -0.1076 -0.3738 -0.0587
12351CHOL    R568499  22.028  32.551   9.146 -0.4490 -0.0076  0.1529
12351CHOL    C168500  22.032  32.533   9.527 -0.1743  0.1923  0.1618
12351CHOL    C268501  22.021  32.158   9.645  0.3241 -0.0215  0.1054
12352CHOL   ROH68502  29.356  24.865   5.575 -0.0443  0.0382 -0.1219
12352CHOL    R168503  29.555  25.035   5.467  0.1303 -0.1556 -0.1089
12352CHOL    R268504  29.760  24.942   5.307 -0.1596 -0.3050 -0.3963
12352CHOL    R368505  29.668  25.132   5.136 -0.0150  0.0330 -0.1044
12352CHOL    R468506  29.952  25.101   5.068 -0.1200 -0.3479 -0.3927
12352CHOL    R568507  29.850  25.287   5.117  0.2188 -0.2340 -0.0930
12352CHOL    C168508  29.979  25.372   4.768  0.0390 -0.0550 -0.1166
12352CHOL    C268509  30.253  25.520   4.768 -0.1487 -0.1022  0.0294
12353CHOL   ROH68510   3.858   3.286  10.820  0.0194  0.1972 -0.1604
12353CHOL    R168511   3.828   3.446  11.052  0.1666  0.2103 -0.1503
12353CHOL    R268512   3.787   3.719  11.039 -0.1499  0.1656 -0.1497
12353CHOL    R368513   3.571   3.661  11.194  0.1253 -0.0434  0.1644
12353CHOL    R468514   3.574   3.954  11.176 -0.4015 -0.0523 -0.1646
12353CHOL    R568515   3.568   3.834  11.359  0.0170  0.1343 -0.0229
12353CHOL    C168516   3.246   4.036  11.401 -0.2896 -0.3754  0.1217
12353CHOL    C268517   2.999   4.215  11.601  0.2894  0.2531 -0.0726
12354CHOL   ROH68518  32.747  11.491   1.493  0.1334  0.0150  0.2035
12354CHOL    R168519  32.606  11.701   1.621 -0.0927 -0.0604  0.0812
12354CHOL    R268520  32.433  11.657   1.832  0.2126 -0.0904  0.3293
12354CHOL    R368521  32.589  11.842   1.956  0.0314  0.3480 -0.0818
12354CHOL    R468522  32.353  11.817   2.128  0.3735 -0.0379  0.3454
12354CHOL    R568523  32.433  12.001   2.044 -0.1667  0.0798  0.0592
12354CHOL    C168524  32.452  12.084   2.416  0.2978  0.4043 -0.0311
12354CHOL    C268525  32.375  12.327   2.658 -0.0734  0.3526  0.2373
12355CHOL   ROH68526  21.659  16.506  14.283 -0.1986 -0.1367 -0.1383
12355CHOL    R168527  21.436  16.586  14.128 -0.1606 -0.0473 -0.1469
12355CHOL    R268528  21.405  16.844  14.035 -0.0780 -0.0218 -0.1076
12355CHOL    R368529  21.380  16.720  13.795 -0.0896  0.0244 -0.1302
12355CHOL    R468530  21.191  16.944  13.782  0.0256  0.1194 -0.1393
12355CHOL    R568531  21.146  16.734  13.744 -0.0711  0.1476 -0.1782
12355CHOL    C168532  21.044  16.886  13.409  0.0747  0.2450 -0.1794
12355CHOL    C268533  20.678  16.782  13.276  0.0602 -0.0080  0.0508
12356CHOL   ROH68534   4.052  20.283  15.716 -0.1704 -0.0309 -0.2272
12356CHOL    R168535   4.227  20.284  15.494 -0.1145  0.0000 -0.1833
12356CHOL    R268536   4.489  20.370  15.512 -0.1813  0.2025 -0.1553
12356CHOL    R368537   4.543  20.126  15.406  0.0260  0.1938 -0.0314
12356CHOL    R468538   4.743  20.304  15.287 -0.1581  0.3120 -0.1612
12356CHOL    R568539   4.607  20.172  15.180 -0.0541  0.1289 -0.0666
12356CHOL    C168540   4.942  20.036  15.057  0.0498  0.3677 -0.0487
12356CHOL    C268541   5.177  20.186  14.771 -0.0919  0.3047  0.0549
12357CHOL   ROH68542   2.994  29.958  17.547  0.0684  0.2285  0.1464
12357CHOL    R168543   3.212  29.929  17.369  0.1092  0.1169  0.2134
12357CHOL    R268544   3.216  30.048  17.120  0.1291 -0.1055  0.1060
12357CHOL    R368545   3.453  30.149  17.208  0.0892  0.0285  0.0615
12357CHOL    R468546   3.471  30.161  16.915  0.1460 -0.2396  0.0521
12357CHOL    R568547   3.614  30.068  17.051  0.1393 -0.0830  0.1692
12357CHOL    C168548   3.841  30.322  16.879  0.1184 -0.1913 -0.0212
12357CHOL    C268549   3.795  30.517  16.571 -0.2619 -0.0780  0.2478
12358CHOL   ROH68550  14.750  19.680  16.274 -0.0888 -0.1875 -0.2310
12358CHOL    R168551  14.885  19.451  16.372 -0.0749 -0.1301 -0.1169
12358CHOL    R268552  15.115  19.469  16.524 -0.1425 -0.0361 -0.0264
12358CHOL    R368553  14.973  19.316  16.698 -0.1767 -0.0265 -0.0456
12358CHOL    R468554  15.254  19.264  16.765 -0.1817 -0.2481 -0.1820
12358CHOL    R568555  15.102  19.115  16.719 -0.3018 -0.1244 -0.1959
12358CHOL    C168556  15.202  19.001  17.069 -0.2368 -0.3621 -0.2902
12358CHOL    C268557  15.261  18.907  17.448  0.0851 -0.1660 -0.2375
12359CHOL   ROH68558  16.279   5.256  16.830  0.1357 -0.2319 -0.0454
12359CHOL    R168559  16.304   5.263  16.548  0.0572 -0.1235 -0.0500
12359CHOL    R268560  16.101   5.183  16.379 -0.0010 -0.0328 -0.0255
12359CHOL    R368561  16.135   5.431  16.273 -0.0014  0.0054  0.0640
12359CHOL    R468562  15.966   5.290  16.079  0.1211  0.0281 -0.0584
12359CHOL    R568563  16.154   5.393  16.037  0.1194  0.0794  0.0618
12359CHOL    C168564  15.920   5.585  15.805  0.1917  0.0995  0.0063
12359CHOL    C268565  16.036   5.467  15.468  0.1981  0.0682  0.1852
12360CHOL   ROH68566  15.413  35.241  17.356 -0.2221 -0.0223 -0.0397
12360CHOL    R168567  15.344  35.303  17.089 -0.1596  0.0179 -0.0471
12360CHOL    R268568  15.193  35.133  16.931 -0.0615  0.0059 -0.1339
12360CHOL    R368569  15.037  35.354  16.900 -0.1186 -0.0342 -0.1266
12360CHOL    R468570  14.998  35.199  16.654  0.0412  0.0443 -0.1972
12360CHOL    R568571  15.058   0.023  16.667 -0.0333  0.0569 -0.0961
12360CHOL    C168572  14.738   0.059  16.462  0.0474  0.0300 -0.2264
12360CHOL    C268573  14.837   0.351  16.200  0.0617 -0.0753  0.1220
12361CHOL   ROH68574  32.390  26.762   9.256  0.1813  0.1674  0.3543
12361CHOL    R168575  32.486  26.745   8.990  0.0240  0.0177  0.3069
12361CHOL    R268576  32.401  26.915   8.790  0.0010 -0.0127  0.2888
12361CHOL    R368577  32.668  26.960   8.760  0.0085 -0.1628  0.1249
12361CHOL    R468578  32.541  27.123   8.552 -0.0404  0.0847  0.3494
12361CHOL    R568579  32.699  26.976   8.523 -0.1583  0.0048  0.1143
12361CHOL    C168580  32.873  27.286   8.385 -0.0581  0.0006  0.2307
12361CHOL    C268581  32.827  27.633   8.248 -0.0452  0.1700  0.1302
12362CHOL   ROH68582   6.633  14.738  12.606 -0.1236 -0.2426 -0.0298
12362CHOL    R168583   6.496  14.691  12.849 -0.1315 -0.1402 -0.0137
12362CHOL    R268584   6.416  14.895  13.017 -0.0667 -0.0728 -0.0627
12362CHOL    R368585   6.173  14.776  12.992 -0.1023 -0.0072 -0.0273
12362CHOL    R468586   6.145  14.954  13.223 -0.0461  0.0579 -0.0729
12362CHOL    R568587   6.100  14.740  13.217 -0.1091  0.0708 -0.0180
12362CHOL    C168588   5.759  14.877  13.319 -0.0676  0.1956 -0.0457
12362CHOL    C268589   5.608  15.070  13.618  0.1377 -0.0197 -0.1794
12363CHOL   ROH68590  14.846  34.577  14.522 -0.2875 -0.1566  0.0806
12363CHOL    R168591  15.118  34.499  14.530 -0.2349  0.0252  0.0769
12363CHOL    R268592  15.205  34.253  14.441 -0.0900  0.0285  0.2045
12363CHOL    R368593  15.373  34.403  14.288 -0.2159  0.0501  0.0870
12363CHOL    R468594  15.507  34.143  14.313 -0.0491  0.1472  0.1992
12363CHOL    R568595  15.592  34.339  14.360 -0.1602  0.2254  0.0746
12363CHOL    C168596  15.840  34.220  14.095 -0.1436  0.2365  0.0856
12363CHOL    C268597  16.207  33.939  14.056  0.0695  0.1322  0.0314
12364CHOL   ROH68598   5.406  28.423  15.548  0.0119 -0.0098  0.0382
12364CHOL    R168599   5.256  28.279  15.740  0.0299 -0.1551 -0.0550
12364CHOL    R268600   5.369  28.176  15.970  0.0038 -0.1202 -0.0258
12364CHOL    R368601   5.171  28.318  16.092 -0.1505 -0.2835 -0.0838
12364CHOL    R468602   5.249  28.115  16.288  0.2158  0.0122  0.0807
12364CHOL    R568603   5.047  28.154  16.215  0.1300 -0.3435  0.1213
12364CHOL    C168604   4.994  28.212  16.588  0.1944 -0.0639  0.0880
12364CHOL    C268605   5.082  28.060  16.901  0.4641 -0.0407  0.0157
12365W        W68606   9.859   9.768   5.073  0.4972  0.1219  0.0058
12366W        W68607  26.615  32.240   0.876 -0.0628  0.2868  0.3081
12367W        W68608  28.734  10.666  25.352 -0.0012 -0.3302  0.1910
12368W        W68609  20.416   1.221   6.874  0.1443 -0.0373 -0.2088
12369W        W68610  17.085  32.469  23.599  0.0503  0.0008 -0.2884
12370W        W68611   2.453   8.131  18.775  0.0217 -0.0744 -0.1031
12371W        W68612   8.108  12.785  24.680 -0.2126 -0.1015  0.0304
12372W        W68613  13.604   9.629   7.775  0.4549  0.3129  0.0351
12373W        W68614   8.060   7.123  21.736  0.1071  0.1301  0.1057
12374W        W68615   6.030  31.145  25.387  0.1432  0.0695  0.3600
12375W        W68616  28.091  18.115  24.303  0.0162  0.2871 -0.1343
12376W        W68617  26.395  31.465  23.542 -0.0125 -0.3746  0.0419
12377W        W68618  34.131   7.511  15.818  0.3993 -0.0502 -0.4553
12378W        W68619   8.051  24.138  22.943 -0.4632  0.1190 -0.0406
12379W        W68620   3.672  19.220  18.173  0.0318  0.1351 -0.0272
12380W        W68621  12.559   8.022  21.131 -0.1824  0.0891  0.0418
12381W        W68622  11.424   8.481  21.035  0.2324 -0.1080 -0.1586
12382W        W68623   7.218  29.601  20.861 -0.0111 -0.0182 -0.0153
12383W        W68624  18.600   9.254  19.166  0.2786  0.0789 -0.2553
12384W        W68625  10.919   3.403   2.625  0.4149  0.0360  0.0297
12385W        W68626  24.899  12.954  14.449  0.2542 -0.0923  0.1407
12386W        W68627  26.320   1.776   3.080  0.2879 -0.0531  0.1301
12387W        W68628   6.497  10.352   1.544  0.0394  0.1802 -0.2092
12388W        W68629   7.950   4.297   3.936 -0.0136  0.0530  0.1363
12389W        W68630   7.721   1.070  13.795  0.3366  0.2498 -0.1066
12390W        W68631  27.865  11.851  22.226 -0.1831  0.0480 -0.3006
12391W        W68632   4.953  17.042  22.769  0.1614 -0.1311  0.2930
12392W        W68633  12.447   6.456   0.703  0.0770 -0.1160 -0.1071
12393W        W68634   9.659  32.641   4.649 -0.1722  0.0984 -0.0836
12394W        W68635   8.647   9.134  23.520 -0.0131  0.0536  0.3287
12395W        W68636   6.897  33.770  14.990  0.1483 -0.2206  0.0601
12396W        W68637   0.722  24.588   4.505  0.2246 -0.1887  0.0552
12397W        W68638  28.697   2.743  17.727  0.2311  0.3837  0.0287
12398W        W68639   2.331   5.139   2.906 -0.0240  0.1366 -0.0054
12399W        W68640  18.010  15.069  23.196 -0.1801  0.0786 -0.0552
12400W        W68641  15.477  20.283  12.521 -0.0723 -0.2962 -0.1271
12401W        W68642  28.621   1.041   1.657 -0.0561  0.3986  0.2716
12402W        W68643  26.366   0.598  21.497 -0.2632  0.1417  0.0051
12403W        W68644   1.181   5.271  20.836 -0.0559  0.0875 -0.0421
12404W        W68645  13.551  10.877  13.688  0.1529 -0.1336  0.0350
12405W        W68646   1.806  16.506  17.007 -0.4123 -0.0174  0.2117
12406W        W68647   0.747  22.796  13.778 -0.2421  0.2077  0.2013
12407W        W68648   0.849  32.304   2.916  0.1270 -0.1362  0.1803
12408W        W68649  34.622  14.644  19.530 -0.3636  0.2160  0.0225
12409W        W68650   1.599  26.199  19.346  0.1443  0.0647 -0.0928
12410W        W68651  20.976  10.786  21.980 -0.0026  0.0593 -0.0023
12411W        W68652  30.837  20.710  10.846 -0.4274  0.1395  0.1709
12412W        W68653  28.140  25.203   9.447  0.4083  0.1235  0.2258
12413W        W68654  28.069   7.984  19.636 -0.0120  0.2401  0.0676
12414W        W68655   8.828   0.151  22.359  0.0328 -0.1758 -0.0029
12415W        W68656   8.974  14.801   4.488 -0.1455  0.1393  0.0712
12416W        W68657  10.091  18.843   6.901 -0.3407 -0.0547 -0.1976
12417W        W68658  11.248   9.803   4.656  0.1899 -0.3487  0.3085
12418W        W68659  17.780  11.343   5.424 -0.2209  0.0569  0.1481
12419W        W68660  13.617  26.803  11.740 -0.0224  0.0210 -0.1918
12420W        W68661   7.016  30.401   2.084 -0.1195 -0.1102  0.2373
12421W        W68662   5.771  20.532   0.076  0.3156  0.1612  0.0531
12422W        W68663   6.649   2.373   9.924 -0.2229 -0.0187  0.1110
12423W        W68664  31.212  21.995  23.809  0.2747 -0.4271 -0.2681
12424W        W68665   5.759  21.827  20.955  0.1372 -0.1650  0.3674
12425W        W68666   6.644   9.483   7.749  0.0057  0.0961 -0.2107
12426W        W68667  15.801   9.370  20.633  0.3823  0.2252 -0.2706
12427W        W68668  28.661   1.088  19.777 -0.0124  0.1664  0.2155
12428W        W68669  24.498   2.247  22.428  0.3225  0.0668 -0.2547
12429W        W68670   5.600  26.039  14.327  0.1637 -0.0176 -0.2255
12430W        W68671  11.126   2.261   0.919  0.1313  0.1944  0.1453
12431W        W68672   4.617   4.558  23.790  0.0717 -0.3408 -0.1282
12432W        W68673  34.227  27.751  12.515  0.0282 -0.2088  0.1105
12433W        W68674  29.440   3.963  19.195  0.0456  0.0736 -0.0858
12434W        W68675  28.710  17.044  20.834 -0.1630  0.2329  0.0967
12435W        W68676   2.832   2.270   9.201  0.1352 -0.0282 -0.1355
12436W        W68677  20.517  30.718  17.938  0.0880  0.0141  0.0025
12437W        W68678   8.394   9.988  20.321  0.0366 -0.1545  0.0563
12438W        W68679  15.197  16.237  10.267  0.1417  0.0662 -0.3006
12439W        W68680   9.535  34.539  22.481 -0.3024  0.0636 -0.0124
12440W        W68681  23.162  18.613  14.530  0.3914 -0.2016 -0.1719
12441W        W68682  17.928  21.798  10.507  0.0187 -0.0097 -0.0471
12442W        W68683  10.163  17.094  11.589  0.0470  0.3302  0.0181
12443W        W68684   3.423  33.723   3.917 -0.1708 -0.1569  0.2289
12444W        W68685  30.097  30.537  20.731 -0.2225  0.1080  0.1637
12445W        W68686  27.484  16.585   9.134 -0.3018 -0.0341 -0.1677
12446W        W68687   1.432  16.855   1.353  0.1114 -0.1802 -0.2067
12447W        W68688  27.968   9.985  24.853  0.3316 -0.2912 -0.1654
12448W        W68689   0.650  29.913  25.797 -0.3534  0.1171  0.0133
12449W        W68690   2.869  17.691  13.523  0.0858 -0.0542  0.0128
12450W        W68691  30.571  14.723   8.024 -0.3793 -0.2321  0.3351
12451W        W68692  18.697  18.226   9.071  0.0040 -0.1886  0.4491
12452W        W68693  20.688   7.050  10.069  0.2314  0.0393  0.3476
12453W        W68694   3.568   9.000  23.277 -0.2801  0.3088 -0.4260
12454W        W68695  32.016  32.907  19.618 -0.3516  0.3553 -0.1745
12455W        W68696   9.006   0.109   8.535  0.2690 -0.0136 -0.0277
12456W        W68697  27.200   7.650   0.635  0.2476 -0.2259  0.0325
12457W        W68698  32.900  13.197  23.240  0.1800  0.1263 -0.1889
12458W        W68699  15.392  31.612   3.489 -0.1242 -0.0353 -0.0272
12459W        W68700  32.615   0.592   7.141 -0.3702 -0.3066 -0.1550
12460W        W68701   7.488   7.355   0.909 -0.0055 -0.0875  0.0252
12461W        W68702  19.998  28.586  24.072 -0.2064  0.0063 -0.6258
12462W        W68703  34.596  29.847  20.551 -0.1609 -0.1197  0.0138
12463W        W68704  25.310  13.064  25.618  0.2354  0.1203  0.1195
12464W        W68705  35.004  27.260  16.392 -0.1908  0.2953 -0.2572
12465W        W68706   6.468  24.731  12.453 -0.0807  0.3140  0.1197
12466W        W68707  18.938  20.941   5.259  0.0814 -0.1101  0.2085
12467W        W68708  35.259   1.100   3.308 -0.1182  0.0411  0.4400
12468W        W68709   7.797  31.383   6.089 -0.0610  0.0402  0.0913
12469W        W68710  21.552  17.672   4.183  0.2486  0.1704 -0.3142
12470W        W68711  29.941  16.851  24.947 -0.1792 -0.1660  0.2138
12471W        W68712  22.824  25.262  17.430  0.2414  0.2261  0.0684
12472W        W68713  25.753  30.762  15.386 -0.1787 -0.2036 -0.0429
12473W        W68714  14.932   2.383  11.194  0.2428  0.0779 -0.2361
12474W        W68715  17.886   7.648   0.272  0.0434 -0.0387  0.0504
12475W        W68716  14.725   7.876   4.321  0.0717  0.2671 -0.0692
12476W        W68717  26.264   4.804  18.791 -0.1377  0.2408 -0.0400
12477W        W68718  10.193  21.034  25.310  0.0322  0.3219  0.3178
12478W        W68719   5.760  12.789   2.333  0.1214 -0.1256 -0.1260
12479W        W68720  16.290  29.184  10.952  0.2030  0.0336  0.3771
12480W        W68721   4.079  25.572   2.101  0.1236 -0.0253  0.2106
12481W        W68722  19.458   3.161   6.538  0.0161  0.2405  0.0850
12482W        W68723  15.162  13.495  11.275  0.0353 -0.2019  0.3593
12483W        W68724   2.983   1.901   2.850 -0.1066 -0.0865 -0.3027
12484W        W68725   2.155   0.906  26.242  0.1526 -0.0707  0.1816
12485W        W68726  18.963  35.136   0.160 -0.0761 -0.1643  0.3473
12486W        W68727  29.394   3.122  12.710 -0.3298  0.0576 -0.2347
12487W        W68728  32.354  16.565   7.172 -0.0395 -0.1717 -0.0550
12488W        W68729   7.773  12.385  10.397  0.1501 -0.1443  0.0244
12489W        W68730   2.083  22.406   1.866 -0.0173  0.1840 -0.1205
12490W        W68731  24.388  18.140  13.588  0.2081 -0.1643  0.3579
12491W        W68732  30.658  23.437  23.612  0.0894 -0.1693  0.0295
12492W        W68733  21.279   5.800  17.863 -0.0009  0.1854 -0.2548
12493W        W68734  34.175  19.811  14.515  0.1699  0.2159 -0.3121
12494W        W68735  14.106  32.188  14.985 -0.0498  0.0551 -0.0540
12495W        W68736  25.596   6.204  12.380 -0.3836  0.0133  0.2925
12496W        W68737  21.343  22.093   1.064  0.2104  0.1297  0.2967
12497W        W68738  25.363  12.424  18.488 -0.2651 -0.2445  0.2001
12498W        W68739  23.398   6.693  14.102  0.1158 -0.0400  0.2751
12499W        W68740  34.388   6.881   1.804 -0.3853 -0.0998  0.1088
12500W        W68741  35.018  30.095   7.124 -0.2280  0.2186  0.1431
12501W        W68742  16.671  12.823   8.751  0.1952  0.0842  0.1274
12502W        W68743  32.241   4.375   2.470  0.0677 -0.0760 -0.1369
12503W        W68744  23.411  26.181  20.936 -0.0234 -0.1568 -0.3897
12504W        W68745  17.327  13.798   1.557  0.0992  0.0305 -0.1573
12505W        W68746   2.393   5.462  15.114 -0.0387  0.1474 -0.0436
12506W        W68747   4.220  30.852   3.964 -0.0056 -0.2177  0.0629
12507W        W68748  24.547  27.833  20.374  0.1538 -0.2393  0.0910
12508W        W68749  16.506   3.223  23.461 -0.0393  0.3477  0.0740
12509W        W68750   5.292   4.463  19.931  0.2765  0.1371  0.1264
12510W        W68751   3.183  34.488  24.943  0.0585  0.0470 -0.0708
12511W        W68752  17.715   0.099  23.494  0.0425  0.0479  0.0831
12512W        W68753  34.868  26.544  24.766  0.0373  0.0547  0.0599
12513W        W68754   1.453   8.310   6.373  0.0936  0.3252  0.1165
12514W        W68755   1.840  30.628   4.085  0.1607  0.2751  0.0784
12515W        W68756  26.119   2.844   4.030  0.1017 -0.0638  0.1484
12516W        W68757  16.728  23.132   7.514 -0.3812 -0.0409 -0.0257
12517W        W68758   7.975  28.023   3.803 -0.0200 -0.3823  0.0700
12518W        W68759  31.013  15.207   6.195 -0.1400 -0.0771 -0.2336
12519W        W68760  14.952   2.312  18.373 -0.2341  0.0389  0.2836
12520W        W68761   9.353  21.212   7.352  0.0832 -0.0888 -0.5590
12521W        W68762   9.425  17.567  13.857 -0.2140  0.1818 -0.2795
12522W        W68763  31.095  19.555  12.249  0.1275 -0.3397  0.3068
12523W        W68764  13.588  28.148   6.318 -0.1658  0.0650  0.1290
12524W        W68765   1.958  30.642   7.810 -0.1051 -0.1203  0.1621
12525W        W68766  20.321  30.613   2.349  0.2124  0.0187  0.0741
12526W        W68767  26.715  18.094  21.818  0.1254  0.0924  0.0435
12527W        W68768   1.768  27.271  23.388 -0.0438 -0.1709  0.0688
12528W        W68769  21.171   3.605   1.949 -0.1732 -0.1435 -0.0444
12529W        W68770  18.753  15.060  18.401  0.0172 -0.2769  0.3307
12530W        W68771  33.536  26.765  19.700  0.0298 -0.3309  0.1316
12531W        W68772  28.577  27.649   9.708  0.2969 -0.0102  0.3427
12532W        W68773  30.284  12.171  13.770  0.1105  0.2138 -0.2667
12533W        W68774   6.775   3.239   1.197 -0.0666 -0.0109  0.3005
12534W        W68775  10.448  28.582   1.041 -0.3681 -0.0470  0.1877
12535W        W68776  12.972  35.280  25.859 -0.0914 -0.0806  0.3207
12536W        W68777  13.599   8.554   6.935 -0.1300  0.0263 -0.1171
12537W        W68778  34.496   1.523  20.411 -0.0536 -0.1619  0.2251
12538W        W68779   4.150   5.628   8.308 -0.2447  0.2176 -0.4122
12539W        W68780  16.152   5.035  18.850  0.1032  0.1978 -0.3166
12540W        W68781  20.779   4.505   8.134 -0.2403 -0.1560 -0.0622
12541W        W68782  16.586  23.689  24.307  0.0017 -0.3056 -0.0683
12542W        W68783  27.537  21.754  14.121  0.0633  0.2761 -0.1553
12543W        W68784   7.464   6.272   3.887  0.2408 -0.1309 -0.0691
12544W        W68785   6.368  28.807   3.327 -0.2193 -0.1810  0.0662
12545W        W68786   6.911  30.163  23.077 -0.0897  0.0286  0.0334
12546W        W68787   4.700  32.319   9.995 -0.1952 -0.0568 -0.3988
12547W        W68788   1.258   4.573  23.961  0.0933  0.1411 -0.1145
12548W        W68789   6.549  25.360   1.671 -0.1848 -0.1736  0.2084
12549W        W68790  33.745  18.357  20.720  0.3834  0.1377 -0.1347
12550W        W68791   4.005  13.224  24.841 -0.1479  0.0226 -0.0404
12551W        W68792  23.958  21.463   1.837  0.2504 -0.5331 -0.1728
12552W        W68793  23.350  27.352   5.086  0.2314 -0.1159 -0.1394
12553W        W68794   0.804  27.996  21.118 -0.2719  0.1110 -0.1339
12554W        W68795  24.785  19.743  12.897  0.0136 -0.0935 -0.0772
12555W        W68796  26.268  16.147  12.128  0.1251 -0.2381 -0.0773
12556W        W68797  22.764   9.308  17.748  0.1334  0.2101  0.1281
12557W        W68798  18.181  14.097   1.684 -0.1601  0.0664  0.1301
12558W        W68799  16.127  20.930   3.480  0.1620 -0.0476 -0.1780
12559W        W68800  27.274   6.497  18.807 -0.0584 -0.2344  0.0598
12560W        W68801  34.998  32.698   3.901  0.0434 -0.2852  0.0168
12561W        W68802   1.897  24.308  22.456  0.0248  0.2584  0.4526
12562W        W68803  25.375  26.956  23.518 -0.0533 -0.0315 -0.0647
12563W        W68804  20.533  28.604  24.198  0.0868 -0.1121  0.0928
12564W        W68805  34.712  31.588   6.788  0.0322  0.3082  0.1716
12565W        W68806  21.751   8.201  21.159 -0.0285  0.2838 -0.0652
12566W        W68807  11.108  27.990   8.673  0.0343  0.1759  0.0015
12567W        W68808   5.650   1.145   0.858 -0.2367 -0.0505  0.1729
12568W        W68809  10.760  31.221   5.473 -0.1690 -0.0597 -0.2083
12569W        W68810  13.921   6.054   0.775  0.0617  0.1718 -0.0423
12570W        W68811  17.413  19.660  25.890  0.0095  0.0741  0.0589
12571W        W68812  33.085  18.592  11.093 -0.2492 -0.2568 -0.1790
12572W        W68813   5.548  11.966  20.363 -0.1686 -0.0037  0.0859
12573W        W68814  22.455   4.690  15.817  0.2775 -0.2431  0.0321
12574W        W68815  15.113   5.983   1.999 -0.0562  0.4813 -0.0527
12575W        W68816  31.743   6.235  18.779 -0.2487 -0.2262  0.2394
12576W        W68817   8.324  21.089   2.360  0.0636 -0.1105  0.0283
12577W        W68818  29.729  11.335  22.519 -0.2276  0.1399 -0.0057
12578W        W68819  33.391  19.863  24.179 -0.1299  0.0573  0.2086
12579W        W68820   7.272  11.548  11.224  0.0277  0.2153 -0.1455
12580W        W68821   9.719  10.215  22.595 -0.2501  0.1817  0.3860
12581W        W68822  27.091  28.821   3.461 -0.3203  0.1540  0.2178
12582W        W68823  18.619   8.857  20.023  0.0807 -0.0097  0.1682
12583W        W68824   9.786  25.388   2.323  0.2726  0.0479  0.1672
12584W        W68825  31.391  20.404  19.848  0.2572 -0.0334  0.0503
12585W        W68826   7.089   4.620   1.940  0.1698 -0.2517 -0.0092
12586W        W68827  24.922  30.530  15.850  0.2452  0.0335 -0.2839
12587W        W68828  15.394  24.861  14.367  0.0904  0.0782 -0.0251
12588W        W68829   0.992  11.145  24.254  0.2510 -0.1696  0.1695
12589W        W68830   8.298   8.036  19.076  0.3588  0.2028 -0.1822
12590W        W68831  19.107  12.983  26.177 -0.0445 -0.2985  0.1882
12591W        W68832  22.327   6.655  19.774  0.2645  0.1505 -0.1857
12592W        W68833  15.687  28.217   5.158 -0.0374  0.0504 -0.2389
12593W        W68834  34.263  22.202  23.805 -0.0330  0.1845  0.0477
12594W        W68835   8.373   2.491   7.300 -0.0056  0.0255 -0.2201
12595W        W68836   5.285  21.631   4.855 -0.1032 -0.1899 -0.0234
12596W        W68837  18.696  14.733  23.036 -0.0151 -0.2363  0.0792
12597W        W68838  16.134  22.149  10.759  0.1829  0.1848  0.4879
12598W        W68839   3.707  25.390  24.816 -0.0672  0.1195 -0.2032
12599W        W68840  10.164   1.079  26.053  0.0712  0.0538 -0.1946
12600W        W68841  35.325   2.237  13.354  0.1152 -0.1155 -0.2931
12601W        W68842   2.634  23.584  18.622  0.0227 -0.3498 -0.2215
12602W        W68843  19.404  30.412   7.603  0.1507 -0.1674 -0.0529
12603W        W68844  20.188   6.633  23.996  0.0987 -0.0099  0.0276
12604W        W68845  27.909  20.284  20.008 -0.1294  0.1834 -0.2127
12605W        W68846   1.131  25.241   1.066  0.0794 -0.0461 -0.0223
12606W        W68847   3.464  33.786   8.122  0.1507  0.4805  0.0950
12607W        W68848   8.664  15.835   5.726  0.3579  0.2102  0.2245
12608W        W68849   9.986  27.445  22.711  0.0279  0.3326 -0.1994
12609W        W68850   2.940  15.284  13.910 -0.0588 -0.1984  0.0526
12610W        W68851   9.509  10.103  23.581 -0.0694  0.0195 -0.0457
12611W        W68852   8.575  17.015   9.948  0.3516  0.0220 -0.1669
12612W        W68853   3.359  30.069  23.964 -0.0469  0.2768 -0.0032
12613W        W68854   9.930   6.660   4.630 -0.1993 -0.2533 -0.2336
12614W        W68855   9.153  31.731  12.258  0.1112 -0.0078 -0.1238
12615W        W68856  13.730  15.039   8.709  0.1510 -0.0669 -0.0453
12616W        W68857  21.524  11.178  18.555 -0.0133  0.1894 -0.4178
12617W        W68858   4.255   8.039   4.086 -0.0909  0.1117  0.1519
12618W        W68859   7.576   7.780  19.398  0.3425 -0.0842 -0.2369
12619W        W68860  33.999  22.123  17.139 -0.1907 -0.2412 -0.1407
12620W        W68861  13.398  21.095   2.036 -0.0103 -0.1721  0.1225
12621W        W68862  29.828  14.990  13.141 -0.5651  0.2102  0.2438
12622W        W68863   5.292   2.488   6.457 -0.0386  0.0075  0.0101
12623W        W68864  17.858  10.258   2.444 -0.1327 -0.0226  0.0402
12624W        W68865   0.660  26.438  22.388 -0.1972 -0.0732 -0.1260
12625W        W68866  10.614   1.701   3.670  0.1467  0.1132 -0.1716
12626W        W68867   6.668  18.138   3.608  0.3407 -0.3370  0.2077
12627W        W68868   9.549  25.490   7.230  0.0126  0.0024  0.0755
12628W        W68869  23.386  10.324  16.256 -0.1395 -0.0184  0.0607
12629W        W68870  24.498  20.810  15.785  0.0276  0.2199  0.3303
12630W        W68871  22.565   4.806   0.488  0.0470  0.1744 -0.3823
12631W        W68872   6.629  27.487  11.805 -0.1763 -0.2141  0.0038
12632W        W68873  26.822  14.562  19.248 -0.0264  0.0477 -0.0302
12633W        W68874   7.777  15.115   7.619  0.2559 -0.1340 -0.1621
12634W        W68875  32.774   1.680   7.407 -0.0288  0.0647 -0.3996
12635W        W68876  23.069  25.186  22.459 -0.1055  0.1324 -0.0366
12636W        W68877  33.801  23.794  11.231 -0.0239 -0.2397 -0.0412
12637W        W68878  25.448  10.895  20.984  0.0165  0.2523  0.0427
12638W        W68879  23.021  29.565  12.783 -0.2739 -0.0488  0.2836
12639W        W68880   4.825   0.271  25.336 -0.0273 -0.0499  0.1469
12640W        W68881  29.121  14.247  24.239  0.1930  0.2133  0.0802
12641W        W68882  16.407  24.495   6.829 -0.0167 -0.2332  0.0875
12642W        W68883  17.280   7.645   1.726 -0.0427  0.1304  0.2246
12643W        W68884  20.516  34.544   6.269  0.0698 -0.0752  0.1346
12644W        W68885  25.604  30.530  18.334  0.1427  0.0606 -0.1581
12645W        W68886   4.606   2.019  18.674 -0.2110  0.1243  0.0649
12646W        W68887  25.910  13.892  21.252  0.2275 -0.0140 -0.1660
12647W        W68888  27.291  31.498  11.530 -0.0128 -0.3616  0.0520
12648W        W68889  15.760  10.256   1.790 -0.1590  0.0183 -0.1010
12649W        W68890  23.453  27.141  19.072 -0.1265 -0.1780  0.2286
12650W        W68891   8.544  14.890   4.067  0.1483  0.2641 -0.1608
12651W        W68892  25.548   5.441  24.308  0.1127  0.0356 -0.0524
12652W        W68893  20.231  14.460  19.147  0.4593 -0.1307 -0.1209
12653W        W68894   3.821   6.663  25.414 -0.3619  0.1779  0.2311
12654W        W68895  29.396  20.584   8.201 -0.0750 -0.2753 -0.2934
12655W        W68896   9.001   5.733  20.586 -0.2912 -0.1051  0.0615
12656W        W68897  13.296  24.584  23.007  0.1908  0.2249 -0.2823
12657W        W68898  30.933   6.270  14.053  0.2408 -0.2649  0.3184
12658W        W68899  17.519  14.763   6.292  0.2068  0.0536 -0.3164
12659W        W68900  12.676  11.095   4.863 -0.2308 -0.0854  0.0746
12660W        W68901  26.624  22.294  19.365  0.0915 -0.0982 -0.1379
12661W        W68902  12.115  15.128  20.238 -0.2156 -0.0001 -0.1467
12662W        W68903   8.932   4.983   8.700 -0.0382  0.0801  0.1532
12663W        W68904   3.162  17.729  20.297 -0.0941  0.0476  0.3097
12664W        W68905   2.236  12.614  20.064  0.0728  0.2438  0.0267
12665W        W68906   3.519   3.340   0.680  0.1190 -0.2744  0.1106
12666W        W68907  26.224   8.464  13.953  0.3433  0.0913  0.4207
12667W        W68908  28.837   2.980  11.131 -0.2206 -0.0405  0.3521
12668W        W68909  33.564   6.815  17.794  0.2407  0.2655  0.1062
12669W        W68910  16.285   4.105  18.481  0.2941  0.1162  0.1127
12670W        W68911  13.883  32.175  21.376  0.0795  0.0094  0.0624
12671W        W68912  28.521   5.796  17.918  0.1589 -0.0084 -0.1572
12672W        W68913  24.505   6.933  12.958  0.0785  0.1699 -0.0588
12673W        W68914  24.244  18.997  16.111  0.0226 -0.2035 -0.2257
12674W        W68915   9.258   4.250  14.117 -0.0966 -0.0410  0.3723
12675W        W68916  13.503  33.144  20.678  0.1347 -0.0915 -0.2254
12676W        W68917   5.382  19.780   4.173  0.1488 -0.0576  0.1838
12677W        W68918   9.407  29.052   2.795  0.1157  0.1832 -0.1118
12678W        W68919  35.303  24.312  16.140 -0.1132  0.2257  0.2902
12679W        W68920  27.956  32.087  16.028  0.1102 -0.3801  0.0622
12680W        W68921  31.129   4.066   0.803  0.1542  0.0173 -0.1382
12681W        W68922  14.289   8.399  24.014  0.1623  0.0039 -0.2316
12682W        W68923  20.766  15.211  24.399  0.1927  0.1697 -0.0044
12683W        W68924  30.629  11.856   9.057 -0.0970  0.0101  0.2679
12684W        W68925  31.536  27.895  13.663  0.0361 -0.1239  0.0959
12685W        W68926   4.046  20.184  26.093  0.0560 -0.1171  0.0520
12686W        W68927   9.659   2.261   8.879 -0.1393 -0.2231 -0.1607
12687W        W68928  23.368  22.724  22.300  0.2401 -0.0743  0.0531
12688W        W68929  16.400  17.100   6.214 -0.0534 -0.0111  0.0330
12689W        W68930  33.365  20.002  21.065 -0.3178  0.4191  0.0867
12690W        W68931  26.365  18.883  17.892  0.2620  0.2109 -0.0031
12691W        W68932   7.706   4.099  23.668 -0.3419 -0.0872  0.1733
12692W        W68933  26.543  34.544  17.476  0.2572  0.0108  0.0336
12693W        W68934  24.982  28.070  11.840 -0.0794  0.0060 -0.2470
12694W        W68935   9.363   4.341  24.512  0.0001 -0.0486 -0.1637
12695W        W68936  12.026  27.088   4.570  0.1461  0.1099  0.1671
12696W        W68937  11.545  13.736  12.854 -0.1121 -0.4838  0.1270
12697W        W68938  16.767  20.794  20.241 -0.2128  0.0791  0.2689
12698W        W68939  26.291   8.615  18.366 -0.3631 -0.0820  0.0258
12699W        W68940  28.023  32.136  21.474  0.2721 -0.1278  0.0466
12700W        W68941  35.352  34.414  18.975 -0.0472 -0.0989 -0.0358
12701W        W68942  12.144   8.843   5.146 -0.3774 -0.0385  0.3223
12702W        W68943  33.731  12.207  23.229  0.0674  0.0959  0.0997
12703W        W68944  31.953  20.616  19.209  0.2201  0.0555 -0.1524
12704W        W68945  26.091   3.136  18.568  0.4222 -0.2230  0.1041
12705W        W68946  35.306  14.383  13.979  0.3089  0.1319  0.0408
12706W        W68947  16.363   7.991   1.436 -0.0572 -0.0750 -0.0295
12707W        W68948  13.222  33.836   6.001  0.2579 -0.0068 -0.2719
12708W        W68949  13.139   3.514  10.543  0.0478  0.2285  0.1944
12709W        W68950   3.302  12.838  20.091  0.0792 -0.0654  0.1470
12710W        W68951  21.411  23.779   2.046  0.1416  0.2382 -0.0142
12711W        W68952  25.665  25.439  20.039 -0.0057  0.2265 -0.1839
12712W        W68953  12.976   6.700  22.213 -0.1511 -0.0079 -0.2192
12713W        W68954  24.668  29.183  17.718 -0.2055  0.2652  0.0361
12714W        W68955  29.341  31.745  12.650 -0.1393  0.3273  0.2150
12715W        W68956   3.854  31.831   5.042  0.2496 -0.0708 -0.1712
12716W        W68957  19.207  11.733  21.435  0.2520  0.0798  0.0837
12717W        W68958  10.106  35.239   6.489  0.3548 -0.0104 -0.1564
12718W        W68959   8.092  33.635  12.938 -0.0732 -0.0030  0.1590
12719W        W68960  28.557   6.127  12.178  0.2829 -0.0683  0.1092
12720W        W68961  34.891   9.380  13.505  0.3393 -0.2107 -0.0196
12721W        W68962  32.389  17.447  20.753  0.0878 -0.0888 -0.2090
12722W        W68963   6.926  22.090  12.464 -0.3053  0.0806 -0.0265
12723W        W68964   2.674  30.923   6.281  0.1572 -0.5832  0.0504
12724W        W68965  16.302  17.161  19.596  0.2275  0.1498  0.0368
12725W        W68966   6.774  15.118  22.942  0.2070  0.2258  0.3729
12726W        W68967  10.243  33.898   7.054 -0.1795  0.0884 -0.1155
12727W        W68968  23.153  31.017  21.497 -0.2677 -0.0336 -0.0848
12728W        W68969   6.731   6.750   9.023 -0.1514  0.1440 -0.1402
12729W        W68970   2.176  17.131  12.882  0.0134  0.0798  0.2276
12730W        W68971  19.788  18.743   5.791 -0.2438 -0.4088  0.1597
12731W        W68972  21.780   8.469   5.491 -0.1992 -0.4656  0.2451
12732W        W68973  17.902   5.661  12.191  0.1446  0.0864 -0.3709
12733W        W68974  10.744   3.540   6.792 -0.0092 -0.0169  0.0010
12734W        W68975  16.731  21.657   7.659 -0.1483  0.1502 -0.0010
12735W        W68976   3.278  11.327  26.161  0.2116  0.0274 -0.2344
12736W        W68977  28.639  13.837   5.913 -0.1416  0.3089  0.0105
12737W        W68978  18.209  10.012  11.627 -0.1423  0.0275  0.2081
12738W        W68979  34.872  30.625   6.276 -0.0315  0.1124 -0.0900
12739W        W68980  20.307  20.243   2.085 -0.0833  0.1357  0.2838
12740W        W68981   9.620  15.859  20.416  0.0217 -0.4123 -0.1524
12741W        W68982  16.037  17.677   4.888 -0.0076 -0.1314  0.2679
12742W        W68983  14.785  13.121  11.299 -0.1717  0.0672  0.0948
12743W        W68984  32.197  34.444   5.988 -0.1817  0.0061  0.2782
12744W        W68985   2.291  29.823   5.701 -0.4017 -0.1259  0.0180
12745W        W68986  31.710  27.339   3.022  0.0362  0.3282  0.0080
12746W        W68987  19.083   5.554   8.044 -0.1768 -0.1772  0.1592
12747W        W68988  20.585  10.816  16.978 -0.0470  0.0283  0.2547
12748W        W68989  18.551   1.642   3.314 -0.2860 -0.3643  0.2500
12749W        W68990   5.689  16.058   1.351  0.1544 -0.2149  0.0556
12750W        W68991  15.382  11.673  22.234 -0.0104  0.0105  0.2418
12751W        W68992   8.057  31.540   0.129 -0.0068  0.0034 -0.0026
12752W        W68993   7.798  10.192  22.945 -0.2130  0.0547 -0.1311
12753W        W68994  32.474  13.677  25.655 -0.0399  0.0060  0.0527
12754W        W68995  22.299  29.327   3.463  0.1252 -0.1502  0.0672
12755W        W68996   0.269  12.150  15.939  0.1119  0.0355 -0.0668
12756W        W68997   9.821  27.679   5.569 -0.2415 -0.0367  0.2281
12757W        W68998   8.940   2.055   4.095 -0.0684  0.1057  0.1814
12758W        W68999  26.844  26.437  13.384 -0.3857 -0.4899 -0.2064
12759W        W69000  34.543  23.928  22.840  0.0355 -0.0066 -0.0301
12760W        W69001   1.065  34.579   4.588 -0.0436 -0.4051  0.0940
12761W        W69002   6.182  13.301   9.306 -0.2168  0.0341  0.1237
12762W        W69003  16.483   5.249  22.537 -0.2927  0.0241  0.1609
12763W        W69004  15.164  31.935  21.070  0.0807  0.1529 -0.2946
12764W        W69005   9.552   0.376   0.627  0.0642  0.2950  0.0309
12765W        W69006  21.019   8.735   7.682  0.1394  0.2149 -0.0093
12766W        W69007  27.598  21.867  24.913  0.1484 -0.2240  0.1612
12767W        W69008   7.368  14.529  11.553  0.1162  0.0206 -0.3066
12768W        W69009   4.091  17.814   1.755  0.4469  0.0234  0.0533
12769W        W69010  10.817  19.126  13.775 -0.3465  0.1154 -0.0720
12770W        W69011  18.194  17.080  20.873  0.1862  0.2380 -0.3068
12771W        W69012   2.907  16.931  25.825  0.2345 -0.0070  0.0329
12772W        W69013  27.849  21.111   8.605 -0.0351 -0.3618  0.0783
12773W        W69014   7.104   5.158  22.277  0.2008  0.0715 -0.1195
12774W        W69015  19.971  16.246   9.687 -0.0873 -0.0812  0.2517
12775W        W69016   5.353  22.693  23.018  0.1085  0.2804  0.0166
12776W        W69017  34.019  27.817   1.369  0.1123  0.0110 -0.4015
12777W        W69018  20.944  30.944  19.832 -0.0293  0.1293  0.1355
12778W        W69019  10.655  20.099  11.631 -0.1782  0.1442  0.2644
12779W        W69020  24.625  11.469  16.264  0.1026 -0.0744  0.1005
12780W        W69021  17.669   5.779   2.490 -0.0758 -0.0132  0.0839
12781W        W69022  31.344  14.591  21.827 -0.0724 -0.5500  0.0816
12782W        W69023   6.246  28.391   7.925  0.1732  0.0775 -0.4550
12783W        W69024   3.627  28.450  12.778  0.2982  0.2186 -0.1373
12784W        W69025  34.699   3.939   1.759  0.0029 -0.1956  0.2293
12785W        W69026  15.643  13.066  22.177  0.1283  0.0136 -0.0745
12786W        W69027  13.254  20.301  24.606 -0.0611  0.2795  0.3376
12787W        W69028  25.313  17.082  23.409 -0.1706  0.0332 -0.2585
12788W        W69029   2.735   3.900  18.674  0.0297  0.1653  0.0418
12789W        W69030  27.715  20.265   8.393 -0.0489  0.4510  0.0750
12790W        W69031  34.091  33.092  14.086 -0.2196  0.0460 -0.3772
12791W        W69032  20.652   4.240  18.501 -0.0910 -0.4587  0.0367
12792W        W69033  33.256  27.115   1.323  0.2804 -0.1067 -0.0538
12793W        W69034   9.398  27.155   3.982  0.0175  0.1988 -0.4323
12794W        W69035  12.228  22.111   1.365  0.0685  0.2451  0.1204
12795W        W69036  14.816  29.578  13.188  0.1198  0.0961  0.3849
12796W        W69037  15.307  18.427  10.367  0.0655  0.1377  0.1065
12797W        W69038  32.030  33.775  12.955 -0.3942 -0.2559 -0.0313
12798W        W69039  11.124  12.654   3.958 -0.1067 -0.2507 -0.0185
12799W        W69040  33.240  26.896   2.336  0.2208  0.2935 -0.2442
12800W        W69041  21.218  16.708   4.557  0.1335 -0.0274  0.0397
12801W        W69042  30.556  33.578  15.626 -0.0218  0.2024 -0.0553
12802W        W69043   7.976  11.203  20.390 -0.1308 -0.2466  0.3847
12803W        W69044  35.056  31.737  15.376  0.0894  0.1735  0.1290
12804W        W69045  31.999  24.273  25.620 -0.0628 -0.1095  0.1730
12805W        W69046  23.714  29.023  14.597 -0.0552  0.2537  0.1991
12806W        W69047   7.882   5.734  19.967 -0.0179  0.2000  0.1581
12807W        W69048  11.478  23.092   1.894  0.0813  0.0071 -0.1438
12808W        W69049  15.876   0.463   3.924 -0.0315  0.0005 -0.4575
12809W        W69050  34.157  33.284   3.205 -0.2399 -0.1857  0.0561
12810W        W69051  10.096   0.933   6.179  0.2527 -0.0662  0.1975
12811W        W69052  27.728  34.581   0.636 -0.2598  0.2675  0.1080
12812W        W69053   8.743  29.158  13.497  0.2961 -0.0696 -0.1501
12813W        W69054  26.915  16.722  22.234  0.1378 -0.1036  0.1421
12814W        W69055  16.895  21.242  25.365 -0.0546 -0.2370  0.1597
12815W        W69056  33.847  18.231   8.157 -0.4412 -0.1099 -0.2126
12816W        W69057  25.001   3.382  17.708  0.2657 -0.0704  0.2462
12817W        W69058  25.602  10.126  10.121  0.0998 -0.4185 -0.1109
12818W        W69059  28.486  30.004   2.269 -0.0300 -0.1763 -0.2108
12819W        W69060  13.526  24.564   6.319  0.2367 -0.2874 -0.2110
12820W        W69061  28.923   1.771  19.884  0.0325 -0.1109 -0.0887
12821W        W69062  33.632   5.818   4.071 -0.0714  0.1579 -0.0284
12822W        W69063   7.911  34.171   9.878 -0.3926  0.1260 -0.1680
12823W        W69064  32.924  29.819  12.939 -0.0216  0.2326 -0.0623
12824W        W69065  14.369  29.341   2.959  0.1660 -0.1302 -0.0695
12825W        W69066  18.211  23.723   3.557  0.1005 -0.0451  0.2114
12826W        W69067  27.649   1.331  18.786 -0.0174  0.0907  0.0803
12827W        W69068   5.915   0.707  22.780  0.3527  0.2451 -0.1477
12828W        W69069  12.806  29.448  10.596  0.2664 -0.0280  0.0945
12829W        W69070  10.368  19.249  13.549  0.2376  0.0224 -0.3371
12830W        W69071  17.146  35.124   8.944  0.2186 -0.0268 -0.1630
12831W        W69072  30.156   1.586   0.944  0.0025  0.0672  0.1374
12832W        W69073  31.051  34.198  20.230 -0.1460  0.2426  0.0441
12833W        W69074   6.588  21.657   1.715  0.1197  0.1056  0.1293
12834W        W69075  15.191  10.183  25.024  0.3508 -0.1000 -0.4245
12835W        W69076   7.217  10.823   1.308  0.3847 -0.1853 -0.0176
12836W        W69077  10.301  19.897   0.667 -0.0758  0.0931 -0.2826
12837W        W69078   5.628  34.996   2.829 -0.4000  0.2551 -0.0144
12838W        W69079   6.481  19.743  25.302  0.3766  0.0885  0.0065
12839W        W69080  13.204  12.497  10.595  0.1214  0.0388  0.0813
12840W        W69081  34.300  11.819  18.414 -0.1812 -0.0049  0.1441
12841W        W69082  30.569  30.565  23.805  0.0224 -0.1462 -0.0061
12842W        W69083  25.556  18.411  18.120 -0.2193  0.0415 -0.2013
12843W        W69084  22.800   2.899  18.169  0.0488 -0.2267  0.0190
12844W        W69085   8.686   3.702   8.982  0.1063 -0.0125  0.1497
12845W        W69086   9.400  12.316  20.891 -0.0969  0.0102  0.1795
12846W        W69087  27.722   7.159  19.599  0.4187  0.3477  0.0783
12847W        W69088  31.162  20.481  21.529 -0.1688 -0.0645 -0.1626
12848W        W69089  18.053  24.169  22.773 -0.1833  0.2671 -0.1165
12849W        W69090   7.123   8.743  20.335 -0.2276 -0.1293  0.1788
12850W        W69091  33.300  12.994  25.234 -0.0161  0.0781  0.0081
12851W        W69092  28.660  30.735  14.201 -0.0079 -0.2090  0.0309
12852W        W69093   1.896  30.267   5.939 -0.2463  0.2174 -0.2517
12853W        W69094  12.493  34.253  25.060 -0.1426 -0.2409 -0.1429
12854W        W69095  18.433  17.725   5.301  0.2196  0.1266 -0.3166
12855W        W69096  21.591  31.284   3.243 -0.2297  0.3530  0.2903
12856W        W69097  12.170  19.130   5.594 -0.2974  0.1209 -0.2517
12857W        W69098  12.654  15.865   2.406 -0.0511 -0.0654 -0.2816
12858W        W69099  12.342  10.689  11.720  0.1005 -0.0814 -0.2136
12859W        W69100   7.308  16.127  22.683 -0.1004  0.1713 -0.1228
12860W        W69101  17.473  17.383   6.908 -0.2135 -0.0035 -0.0862
12861W        W69102  31.892  32.401  16.896 -0.2400  0.0133  0.0306
12862W        W69103  15.451  14.733   6.213 -0.2406  0.0663 -0.0658
12863W        W69104  32.566  12.620  14.454 -0.0139  0.0371 -0.1443
12864W        W69105  20.694  12.290  22.742  0.1561  0.3209  0.0921
12865W        W69106  19.272  28.604  24.980  0.0201 -0.4444 -0.1928
12866W        W69107  13.768  29.899   3.260 -0.5089  0.0016 -0.1036
12867W        W69108  24.434   5.293  19.289 -0.1111 -0.2975 -0.2141
12868W        W69109  20.784  11.978  25.022  0.1059 -0.1436 -0.0081
12869W        W69110   0.342   1.162  19.108 -0.0678 -0.0301  0.0288
12870W        W69111  15.832  18.682  21.397  0.1753 -0.2044 -0.3820
12871W        W69112   3.864  34.608  10.914 -0.2977  0.0416 -0.0394
12872W        W69113   2.069  15.090  14.517  0.1091  0.0068  0.1734
12873W        W69114   6.328  33.205   1.404  0.2505 -0.1572 -0.2475
12874W        W69115  28.528  33.441  22.304 -0.1191 -0.3930  0.1208
12875W        W69116  11.586  23.872  12.660 -0.2776  0.3533 -0.1604
12876W        W69117  15.736   7.906  24.814 -0.0879 -0.0509  0.1882
12877W        W69118  17.773   1.089   1.639 -0.0596  0.0524  0.1069
12878W        W69119  33.058  31.249  21.445 -0.0238 -0.1181 -0.0284
12879W        W69120   8.169  20.036  22.377  0.3331  0.1502  0.0714
12880W        W69121  34.932  16.907  16.359 -0.0929  0.0941  0.0619
12881W        W69122   3.728  10.421  22.223 -0.1783  0.0271  0.0646
12882W        W69123   2.169  29.077   6.371 -0.3116 -0.1376  0.1881
12883W        W69124   3.428  16.675   3.702  0.1550  0.0996 -0.1449
12884W        W69125  25.681  17.691  11.853 -0.1365  0.1854  0.0662
12885W        W69126  18.130  31.711  20.843 -0.2766 -0.0147 -0.0333
12886W        W69127   8.650  35.263   2.703  0.0509 -0.2423 -0.0649
12887W        W69128   3.467  12.760   3.774 -0.0930 -0.0334 -0.1804
12888W        W69129  25.891   7.547  21.982 -0.0487  0.1522  0.2205
12889W        W69130  17.328  19.590   2.267  0.1493 -0.3366  0.2328
12890W        W69131   8.153  29.943   6.367 -0.0595 -0.4129  0.1719
12891W        W69132  21.247  13.104  17.293 -0.1654 -0.3310  0.0567
12892W        W69133  15.585  35.288  24.178  0.1011  0.0880  0.1091
12893W        W69134  28.788  23.042  12.437 -0.1215  0.0806 -0.0818
12894W        W69135  20.323   7.076  10.506 -0.0994 -0.0698  0.4862
12895W        W69136  32.644  15.622  11.512  0.3143 -0.0868  0.1371
12896W        W69137  21.561  25.598  19.645 -0.2094 -0.2577  0.0763
12897W        W69138  28.584  32.207  10.985 -0.0642 -0.0652  0.2038
12898W        W69139  34.865  34.314  21.838 -0.1342  0.1808 -0.0606
12899W        W69140  25.903  11.087  11.166  0.2320  0.0228  0.2365
12900W        W69141   2.528  21.744   1.634 -0.1161 -0.3971 -0.2742
12901W        W69142   3.711  24.532  25.291  0.0505 -0.3402  0.2618
12902W        W69143  26.670  29.681  14.525  0.1689 -0.0546 -0.1561
12903W        W69144   7.939  16.260   6.044 -0.0794  0.0592 -0.1600
12904W        W69145   0.049  23.707  16.507 -0.1247 -0.2531  0.2836
12905W        W69146  18.862  13.046  20.399 -0.3161 -0.0198 -0.0939
12906W        W69147  15.371   3.732   8.292 -0.0348 -0.1286 -0.0901
12907W        W69148  31.831   4.772  26.241  0.0923 -0.0582  0.0845
12908W        W69149  14.639  13.373  20.196  0.1041 -0.0541 -0.0639
12909W        W69150   6.642  23.758   8.864 -0.2304  0.0125 -0.0852
12910W        W69151  12.278   9.237  11.740  0.2954  0.1174  0.1082
12911W        W69152  29.441   2.237  12.640 -0.0862  0.2158 -0.0025
12912W        W69153  12.365  17.617  25.136 -0.0792 -0.0303  0.2696
12913W        W69154  16.094  27.742  23.024 -0.0596 -0.1231  0.0611
12914W        W69155   8.170  24.910  25.731 -0.2855  0.0144 -0.1052
12915W        W69156   5.944  28.937   7.331  0.0186 -0.0800 -0.0164
12916W        W69157  26.124  14.235  14.153  0.0513 -0.0108  0.0038
12917W        W69158  29.451  30.082  16.321 -0.2033 -0.5190  0.3067
12918W        W69159  12.077   2.801  24.713 -0.0899 -0.0933 -0.1369
12919W        W69160  31.072  24.408  12.396  0.1946  0.3991 -0.3755
12920W        W69161   2.687  16.019   0.962  0.3933 -0.3068  0.2022
12921W        W69162  18.200  11.749   6.374 -0.1605  0.1993 -0.0993
12922W        W69163  11.314   6.214   0.510  0.1208 -0.0369  0.0509
12923W        W69164   4.812  30.480  25.775 -0.1593  0.0873 -0.0347
12924W        W69165  13.696   2.875   1.547 -0.2999 -0.1671 -0.0902
12925W        W69166   4.917  28.984   8.757 -0.0300 -0.0855  0.0561
12926W        W69167  21.906   9.531  18.338 -0.0168  0.0055 -0.4867
12927W        W69168  21.744  17.995  26.161 -0.0963 -0.1906 -0.0176
12928W        W69169  24.201  23.767  20.889  0.2339  0.2080  0.0920
12929W        W69170  11.142   6.012  23.152 -0.0107  0.4700 -0.0653
12930W        W69171  30.312  22.741  20.142 -0.0924  0.0686  0.0096
12931W        W69172  21.636   5.206   6.513  0.1977 -0.0014 -0.4269
12932W        W69173  11.717  35.237   2.647 -0.1522  0.0403 -0.0037
12933W        W69174  21.719  27.914   2.692  0.0477  0.3346  0.1170
12934W        W69175  12.012  19.981   1.804 -0.0595  0.2177  0.3038
12935W        W69176  31.652  15.699  24.012  0.2147  0.1166 -0.0009
12936W        W69177  16.718  21.783  11.903 -0.0303  0.2826 -0.1648
12937W        W69178  30.058  18.007   7.545  0.1074  0.1339 -0.0509
12938W        W69179  34.208  17.142  16.638 -0.0221 -0.4879  0.3504
12939W        W69180  12.338  30.128   3.877 -0.0726  0.1528 -0.0022
12940W        W69181   6.300   5.892  10.632  0.0803  0.1084  0.0877
12941W        W69182  24.042  34.538  15.051  0.3644  0.1288  0.2865
12942W        W69183  16.424   0.881   5.872 -0.2074  0.1266  0.1913
12943W        W69184   7.139  30.766  23.937 -0.3320 -0.4006 -0.0716
12944W        W69185  32.038  28.047  18.612  0.1962 -0.5110  0.1203
12945W        W69186  17.002  22.739   7.795  0.2083 -0.0751 -0.0177
12946W        W69187  30.013  25.975  13.577  0.1081 -0.0060  0.0869
12947W        W69188  13.294  30.695  14.550  0.0013  0.1684 -0.0690
12948W        W69189   5.377  11.925  22.618 -0.0725  0.3154  0.3042
12949W        W69190  33.687  32.364  16.465 -0.0717 -0.1562  0.3307
12950W        W69191   5.979  28.093  23.175  0.1242 -0.0565  0.4376
12951W        W69192   3.049  15.760   2.613 -0.1483  0.2583  0.0307
12952W        W69193  16.638  34.488  19.381  0.0371  0.0295 -0.0515
12953W        W69194  24.926   4.365  23.149 -0.1086 -0.1347 -0.0508
12954W        W69195  28.642   4.213   4.378 -0.0161 -0.0264 -0.1080
12955W        W69196   5.291  16.503  21.552  0.1457 -0.1151 -0.1806
12956W        W69197  14.399  17.735  11.122 -0.0294 -0.1379  0.0576
12957W        W69198  14.031  30.032   0.369 -0.1321  0.0213  0.0658
12958W        W69199   9.571  17.744  12.958 -0.0705 -0.0130  0.0266
12959W        W69200   8.560  23.412  14.519 -0.0119  0.1797  0.1864
12960W        W69201  19.656  13.770   7.051  0.0994  0.2526  0.1459
12961W        W69202  29.424  29.724   4.458  0.0004 -0.2471  0.0492
12962W        W69203   5.697  21.227  24.462 -0.2887  0.1002 -0.1838
12963W        W69204  29.323  22.623  11.509 -0.4476  0.2089 -0.3419
12964W        W69205  33.927   4.251  23.001 -0.1899 -0.1958  0.1848
12965W        W69206  13.531  34.855   5.749 -0.0074  0.2552 -0.2224
12966W        W69207  11.106  11.239  12.910  0.1494 -0.0010 -0.4732
12967W        W69208  26.308  31.403  20.996 -0.0149 -0.0527  0.2607
12968W        W69209  17.748  30.452   4.679  0.4335 -0.1731 -0.2811
12969W        W69210   2.933  12.317  14.538  0.0824  0.0940  0.0036
12970W        W69211  22.782  26.945  21.045  0.0044 -0.0134 -0.0898
12971W        W69212   3.747  13.738  22.240 -0.0053 -0.0266 -0.0729
12972W        W69213  10.325  17.883  13.327  0.0536  0.0114 -0.1328
12973W        W69214  10.523  22.731  22.174  0.1186 -0.0467  0.1414
12974W        W69215   1.160  11.034  19.905  0.3100  0.0270  0.2517
12975W        W69216  20.298   3.190  22.212  0.2242 -0.3652 -0.2609
12976W        W69217  31.488  26.402  17.057  0.0108  0.3828  0.0911
12977W        W69218   9.320  25.321  22.265  0.0573 -0.0469 -0.0584
12978W        W69219  11.647  15.715  24.239  0.1287 -0.4099  0.1893
12979W        W69220  21.849  18.115   2.291  0.1354  0.0598  0.1304
12980W        W69221  16.731   1.473   0.107 -0.2743 -0.0029 -0.0527
12981W        W69222  33.533   8.718  16.309 -0.0977  0.0693 -0.1554
12982W        W69223  27.386  10.196   8.515 -0.0090  0.4940  0.0305
12983W        W69224   8.456   5.628   8.160  0.1878  0.0255 -0.0644
12984W        W69225   5.782  34.166  14.338  0.0497 -0.3310  0.0472
12985W        W69226   5.526  10.129  24.691  0.1954 -0.2267 -0.0286
12986W        W69227  30.711   8.130  18.940  0.2537 -0.0951 -0.3901
12987W        W69228   3.328  15.405  20.229  0.2549  0.0442 -0.1731
12988W        W69229  14.013  23.526   8.744 -0.0320 -0.0595  0.2523
12989W        W69230  32.625  12.637  17.229  0.1061 -0.0696 -0.3747
12990W        W69231   9.850   3.061  13.122 -0.0450 -0.1921 -0.1723
12991W        W69232  14.119  25.899  25.435  0.0033 -0.1449  0.0445
12992W        W69233  31.622  26.933  15.814 -0.2215 -0.0806  0.0704
12993W        W69234  35.290   7.185  25.293  0.0597 -0.0691  0.0320
12994W        W69235   6.772  30.001  12.422 -0.0170 -0.0439 -0.1056
12995W        W69236  21.309   2.859   7.580 -0.1453 -0.1197  0.2555
12996W        W69237  29.498  15.357  15.948  0.1358 -0.2742  0.2301
12997W        W69238  29.858  20.072  21.081  0.0076  0.1037 -0.0618
12998W        W69239   2.769  25.643   7.197  0.0837 -0.0446 -0.3015
12999W        W69240   1.425  17.144  16.389  0.0569 -0.0290 -0.0175
13000W        W69241   5.437  19.929  24.340  0.0743  0.0446 -0.0729
13001W        W69242   1.522   4.504  20.592 -0.0901 -0.2043  0.1897
13002W        W69243  33.386   7.147  12.571 -0.0407 -0.2731 -0.1684
13003W        W69244  35.037  21.863  25.048  0.1600  0.0843  0.1122
13004W        W69245  34.482   7.529  16.145  0.1051  0.3545 -0.2375
13005W        W69246  23.853  31.064  16.473  0.0279 -0.0381 -0.0222
13006W        W69247  25.243  35.293  19.687  0.0372 -0.0978  0.4723
13007W        W69248  30.411  11.224  11.149 -0.0834  0.4434  0.1869
13008W        W69249  20.260  21.666  22.746  0.1246 -0.2476 -0.1735
13009W        W69250  29.165   6.878  16.616  0.0446  0.1352  0.0468
13010W        W69251  24.626   6.174   3.104 -0.0120 -0.0045  0.1656
13011W        W69252   8.038  19.291   5.483  0.1745 -0.0572  0.0962
13012W        W69253  29.579  25.078  23.648 -0.0166 -0.2527  0.2213
13013W        W69254  19.076   3.564  24.142 -0.3830  0.3812 -0.2433
13014W        W69255  21.234   9.867  24.582 -0.1457 -0.1325  0.0280
13015W        W69256   1.635   3.743   1.629 -0.0659 -0.1694 -0.2078
13016W        W69257  29.204  32.330  19.870  0.0056  0.1451  0.0132
13017W        W69258  32.389  19.465  16.769 -0.2479 -0.3063  0.0845
13018W        W69259  28.139   9.529  21.110 -0.2536 -0.4527  0.1071
13019W        W69260  16.594  34.754  17.910  0.3854 -0.1983  0.0108
13020W        W69261  22.315  28.935  22.785 -0.0630 -0.1172  0.0760
13021W        W69262  21.235  16.123  17.936 -0.1536  0.1479 -0.0304
13022W        W69263  11.087   8.102   2.178  0.1989 -0.1422 -0.0376
13023W        W69264   2.380   7.747  18.391  0.1913 -0.1868 -0.2702
13024W        W69265   2.895   7.196   3.563  0.0508  0.2427 -0.2671
13025W        W69266  17.246   7.893  10.592 -0.1636 -0.2926  0.0775
13026W        W69267  34.541  18.796   6.203 -0.0960 -0.0545  0.3301
13027W        W69268   9.008  13.912  10.719  0.0832  0.1336  0.0815
13028W        W69269   8.934  31.264  22.389  0.0779 -0.0830  0.1712
13029W        W69270  32.701  34.604   4.139 -0.1653  0.0431 -0.0734
13030W        W69271   7.042   8.874  10.190 -0.0681 -0.1645 -0.0048
13031W        W69272  12.346  25.143   8.489  0.1408 -0.3623 -0.2179
13032W        W69273  18.550  33.343  25.998 -0.0679  0.0451 -0.0131
13033W        W69274  23.663  26.015  14.430  0.2034 -0.2728  0.1410
13034W        W69275  15.992   6.922  20.488  0.0330 -0.2862  0.2680
13035W        W69276   3.242  12.649   5.753  0.2414 -0.2599  0.1495
13036W        W69277  33.604  34.761   1.350  0.0649 -0.4443  0.1563
13037W        W69278  16.079   3.498  24.868  0.0063  0.1999  0.1164
13038W        W69279  10.430  15.100  21.393  0.0357  0.1170 -0.0761
13039W        W69280   1.587  14.865  19.009  0.0560 -0.2036 -0.0953
13040W        W69281  18.219  27.769  24.185  0.3749  0.1634 -0.0460
13041W        W69282  14.160  15.074  13.313  0.0183  0.1522 -0.2000
13042W        W69283  32.789  24.295  15.639  0.1874  0.0343  0.2646
13043W        W69284   2.522  22.506  23.304 -0.3891 -0.1224  0.0929
13044W        W69285   5.256  26.761  21.992  0.2682 -0.0715 -0.0788
13045W        W69286   9.910   6.696  26.100 -0.2864 -0.3583  0.0979
13046W        W69287  17.842  16.870   9.301 -0.0682  0.0024  0.3319
13047W        W69288  16.659  23.146  13.107 -0.0832 -0.0314 -0.0040
13048W        W69289  34.964  16.644  17.005 -0.2459 -0.0533  0.0946
13049W        W69290  29.348   8.058  20.527  0.2139  0.2454  0.1792
13050W        W69291   0.313  28.720  18.768 -0.0855 -0.0916  0.2424
13051W        W69292   4.176  14.089  21.306 -0.3127  0.2915 -0.1031
13052W        W69293  19.525   8.971  22.820 -0.2832 -0.1846  0.0427
13053W        W69294   9.803   5.195  22.118  0.2678  0.2020  0.2342
13054W        W69295   8.556   1.354   3.604  0.0805  0.0591  0.3204
13055W        W69296  27.946  32.860  14.779 -0.1199  0.1490 -0.0062
13056W        W69297   5.120  31.165  10.300  0.0828 -0.2296  0.5478
13057W        W69298  32.290   2.071   0.705 -0.1722 -0.2165 -0.1749
13058W        W69299   1.810  10.210  20.006 -0.0592 -0.0367  0.0923
13059W        W69300   5.286  34.222  23.401 -0.4704 -0.0416  0.3611
13060W        W69301   0.789  29.722  19.016 -0.0972  0.0915  0.2044
13061W        W69302  35.112  31.305  19.240 -0.0723  0.2908  0.0405
13062W        W69303   6.035  12.736   8.147 -0.0787  0.2034  0.2358
13063W        W69304  27.070  11.641   0.991 -0.3590  0.2968 -0.0500
13064W        W69305  10.124  26.722  15.247 -0.1068 -0.1828  0.1077
13065W        W69306  11.631  16.641   2.833 -0.1319  0.5070  0.2828
13066W        W69307  18.644  35.313   3.899 -0.0204  0.2508  0.3153
13067W        W69308  29.981   2.753  19.872  0.1712  0.2482  0.0202
13068W        W69309   1.128  33.429  25.917  0.1629 -0.0039  0.0281
13069W        W69310  23.538   4.643  16.555  0.4208 -0.1815  0.0695
13070W        W69311  10.939  34.391  13.222  0.1371  0.0083 -0.0451
13071W        W69312  17.385  25.138  23.299 -0.0289  0.2431  0.2511
13072W        W69313  28.943  33.838  20.847 -0.1683 -0.0509  0.0935
13073W        W69314   9.781   0.748  22.846  0.1144  0.1945  0.1364
13074W        W69315  24.759  31.196   4.489 -0.0378 -0.1166 -0.0061
13075W        W69316   8.252  27.805   7.095  0.0050 -0.0650  0.2801
13076W        W69317  11.054  28.497  21.824  0.1253 -0.1404  0.1001
13077W        W69318   7.720  17.837   2.228 -0.1163 -0.1076 -0.4928
13078W        W69319  11.181  33.063   4.588  0.3016 -0.0974  0.3314
13079W        W69320  20.758   8.280  21.704 -0.0443  0.2080  0.4067
13080W        W69321  15.489   8.817   4.984 -0.0530 -0.1870  0.2145
13081W        W69322  24.886  20.854   0.765 -0.0987 -0.1515 -0.2292
13082W        W69323   4.765   8.046   8.444  0.2448 -0.1448 -0.0138
13083W        W69324  19.204  32.528  25.821 -0.1076  0.0345  0.0642
13084W        W69325  15.074  24.381  24.918 -0.3690  0.0077 -0.1632
13085W        W69326   8.223  26.978   7.378  0.1008  0.2629  0.1143
13086W        W69327  12.034  35.276   9.590 -0.0493 -0.0385 -0.1310
13087W        W69328   7.245  30.318  11.798 -0.2531 -0.0561 -0.2827
13088W        W69329  19.594   2.069  25.164 -0.0690 -0.0427  0.0160
13089W        W69330  25.823  32.795   1.228 -0.1872  0.1771  0.0358
13090W        W69331  22.579  10.910  25.049  0.2238 -0.2818  0.1337
13091W        W69332   0.914  26.277   5.063  0.0921 -0.0275 -0.0329
13092W        W69333  18.785  11.975  21.529 -0.1710 -0.3808  0.0752
13093W        W69334  16.661   3.612  18.673 -0.0693 -0.2960 -0.2709
13094W        W69335   2.622  14.569  21.239 -0.0340 -0.1743 -0.0113
13095W        W69336  10.674  26.754  25.744 -0.2399 -0.0395 -0.3332
13096W        W69337   7.794  13.765  17.392  0.0471 -0.2116 -0.0413
13097W        W69338  21.274  26.948  19.294 -0.0382 -0.0497  0.1124
13098W        W69339  31.038  19.142  25.941 -0.0609 -0.1289 -0.0644
13099W        W69340   5.897  19.430   3.401 -0.1228 -0.0284 -0.3657
13100W        W69341  33.205   0.689  17.448 -0.0996  0.0070  0.3797
13101W        W69342   0.623  24.814   0.858 -0.0699  0.0139 -0.0797
13102W        W69343   6.604   7.306   4.565  0.1821  0.2107  0.0902
13103W        W69344  35.158   8.679  18.359  0.1154 -0.1345 -0.1721
13104W        W69345  33.928  22.733  16.131 -0.1884  0.0364  0.2970
13105W        W69346  12.800  29.558   8.435  0.0450 -0.0412 -0.1470
13106W        W69347   9.090  13.296   1.904 -0.2184 -0.0956  0.0380
13107W        W69348  10.477  15.138  18.516 -0.4025 -0.0873 -0.1980
13108W        W69349  18.595   7.429  12.286 -0.2110 -0.0592  0.0882
13109W        W69350  23.331   4.471  15.658 -0.2748 -0.0157  0.2756
13110W        W69351  33.086   7.373   1.336 -0.4147  0.2434 -0.1530
13111W        W69352  32.099  31.859   3.491  0.1831  0.4991 -0.0360
13112W        W69353  23.675  34.455   2.850  0.2081  0.1397 -0.1709
13113W        W69354   4.273  14.400   3.104 -0.3108 -0.1473 -0.0696
13114W        W69355  18.665  23.079   0.840 -0.2466  0.0697 -0.2064
13115W        W69356  34.753  17.071  16.801 -0.0731 -0.0929 -0.4845
13116W        W69357  34.914  15.800   9.266 -0.0316 -0.2161  0.1602
13117W        W69358  27.433   6.827  12.235 -0.1050 -0.0657  0.2763
13118W        W69359   0.082  24.800  15.927  0.2610  0.0679 -0.2068
13119W        W69360  10.196   1.142  14.338 -0.1066 -0.1337 -0.3422
13120W        W69361  17.436  30.569   8.120 -0.3601 -0.1714  0.0809
13121W        W69362  28.866  18.787  12.587 -0.0562 -0.2564 -0.1845
13122W        W69363   0.910  18.773  18.004 -0.1131 -0.0528  0.1496
13123W        W69364  25.278   8.186   3.142  0.1252  0.1555  0.0143
13124W        W69365  12.643  23.760  23.936 -0.1890 -0.0860  0.3134
13125W        W69366   1.333  30.952   2.852  0.3100 -0.1498  0.0816
13126W        W69367  21.592   1.647  18.580 -0.2746 -0.1952 -0.0659
13127W        W69368   0.295  34.550   7.561  0.3371  0.4060 -0.1465
13128W        W69369  27.931  12.922   8.394  0.0295  0.2928 -0.0607
13129W        W69370  26.026  34.355  23.163 -0.1798 -0.0428  0.2188
13130W        W69371   4.206  16.127   2.415 -0.0970 -0.2028  0.1495
13131W        W69372  24.235  12.898  16.500 -0.0508 -0.1989  0.1037
13132W        W69373  21.026   5.375   8.082 -0.1875  0.0373 -0.1179
13133W        W69374  16.544   8.031  12.181  0.0617  0.1235  0.1233
13134W        W69375  32.689   2.509  18.525 -0.3676 -0.1731 -0.0328
13135W        W69376   1.716  23.653  17.095  0.0731  0.1481  0.4445
13136W        W69377  14.837  21.034  13.228  0.1994 -0.1455  0.0796
13137W        W69378   5.654  11.908   9.536  0.0883  0.0012  0.1482
13138W        W69379   9.974  14.729   6.713  0.0336 -0.1139  0.0908
13139W        W69380  29.397   3.849  10.286 -0.2219 -0.1159  0.0874
13140W        W69381   6.360  25.942  10.103 -0.1883  0.0885 -0.0665
13141W        W69382  20.419  11.394  25.646  0.0127  0.1470 -0.3809
13142W        W69383  11.862   1.244   5.690  0.0787  0.2527  0.0624
13143W        W69384  11.512  25.351   5.480  0.2523 -0.1962  0.1024
13144W        W69385  16.569  34.125   4.490  0.2239  0.1733 -0.4169
13145W        W69386  32.291  11.249   7.803  0.0592 -0.2255  0.0244
13146W        W69387  17.002  29.110   6.632  0.1406  0.0489 -0.1509
13147W        W69388   7.309   6.162  25.523  0.3546 -0.0426  0.0878
13148W        W69389  32.131   4.936  25.659 -0.1381 -0.1517 -0.2835
13149W        W69390  11.468  11.174   9.420  0.0306 -0.0074  0.0540
13150W        W69391  22.895  29.359   0.733 -0.3391  0.0289 -0.0331
13151W        W69392   2.570   8.909  22.950  0.0141  0.0511  0.1612
13152W        W69393  18.221   3.573   7.340  0.3613 -0.0456  0.2454
13153W        W69394   9.820  16.642   5.517 -0.2793  0.0607 -0.3359
13154W        W69395  30.263  29.583  11.259 -0.0092  0.0936 -0.0972
13155W        W69396   0.673  23.323  19.652  0.0006  0.1270  0.0979
13156W        W69397  15.414  18.111  19.820  0.0460 -0.0488  0.1780
13157W        W69398  25.518  31.723  15.435  0.0957 -0.1261  0.1517
13158W        W69399  18.823  25.211   2.247  0.1817  0.2866  0.0817
13159W        W69400  32.702   4.903  11.576  0.1137  0.3954  0.3216
13160W        W69401  31.474  25.147  23.466 -0.3175 -0.2814 -0.0789
13161W        W69402  15.584  28.154  22.753 -0.1215 -0.2530 -0.1848
13162W        W69403   7.711  26.633   6.776 -0.0133 -0.2900 -0.2471
13163W        W69404  16.117  18.807  25.955  0.0676 -0.1534  0.1178
13164W        W69405  18.255  14.820  11.824 -0.2203 -0.0214  0.0694
13165W        W69406   4.100   2.936  21.304  0.0639 -0.1343  0.1305
13166W        W69407  13.889  34.085   9.313  0.2379  0.2291 -0.0629
13167W        W69408  22.170  13.278  16.345  0.1051 -0.4089 -0.0394
13168W        W69409  14.473   3.733   2.787  0.1032  0.2132  0.0581
13169W        W69410   4.095  24.064  20.156  0.2227 -0.0867  0.0778
13170W        W69411  17.894  13.828  21.015  0.1514  0.2861 -0.1111
13171W        W69412  29.499  10.577  15.981 -0.1880  0.4332 -0.1484
13172W        W69413  15.292  12.983  24.350 -0.2455 -0.0341 -0.0296
13173W        W69414  15.556  19.717  22.012  0.3534 -0.1414 -0.1094
13174W        W69415   1.956  24.633  25.863  0.2476 -0.1040 -0.0681
13175W        W69416  28.462  30.343   9.674  0.1685  0.3471  0.1324
13176W        W69417  20.632  28.242  16.873  0.4793  0.1056  0.0796
13177W        W69418   9.262  32.970  21.597  0.3638 -0.0663 -0.1357
13178W        W69419  31.197  34.189  22.370 -0.0232  0.1373 -0.0272
13179W        W69420  23.152  28.543  17.468  0.0003 -0.4571  0.1470
13180W        W69421  33.306   9.812   0.044 -0.2880 -0.0075 -0.0803
13181W        W69422  11.875  18.596   1.241  0.1809  0.1802 -0.2570
13182W        W69423  14.379  23.632  24.475  0.0489 -0.1338 -0.0084
13183W        W69424  26.867  28.112  19.601  0.3672 -0.1062 -0.0641
13184W        W69425  26.994  19.620  17.688 -0.1689  0.1068  0.0219
13185W        W69426  14.991  27.431  26.024 -0.0136  0.3666  0.0795
13186W        W69427   0.508  13.837  23.835  0.0928  0.0714 -0.0534
13187W        W69428  10.657  33.134  11.895 -0.1794 -0.0895 -0.0962
13188W        W69429   3.157  13.508  19.307 -0.3823 -0.1087 -0.3018
13189W        W69430  16.337   9.077  23.303  0.2746  0.2766 -0.0430
13190W        W69431  10.572  17.089  24.927 -0.4655 -0.1974 -0.0505
13191W        W69432   3.497  31.881  22.205  0.2897 -0.0057 -0.0475
13192W        W69433  15.813  26.321  25.240  0.1186  0.1204  0.1221
13193W        W69434  32.411  24.640  15.912 -0.0005  0.1623  0.2417
13194W        W69435  33.764  12.302  23.945 -0.0479 -0.1481 -0.0908
13195W        W69436  21.716  30.156  23.002 -0.0110  0.4969  0.0203
13196W        W69437  24.502  25.071  10.552 -0.1204  0.1309  0.1095
13197W        W69438  22.466   1.562  22.686  0.0915  0.0353  0.1320
13198W        W69439  33.361  18.490  23.819  0.1322  0.1421  0.3647
13199W        W69440   8.431   7.058  24.415 -0.1397  0.1180  0.2471
13200W        W69441  33.175  18.972  24.540  0.0709  0.3101 -0.2622
13201W        W69442  28.081  13.165   7.335  0.3330  0.1562  0.0444
13202W        W69443   9.736  19.004  22.194  0.1190  0.0216  0.1043
13203W        W69444  27.191  25.813  10.836  0.0812  0.1441  0.1282
13204W        W69445  26.210  13.799  24.896  0.0211  0.0147 -0.0745
13205W        W69446  16.515   8.631   0.897 -0.1064  0.1298 -0.2213
13206W        W69447  19.113   0.906  16.235  0.1036  0.2171 -0.0458
13207W        W69448   6.432   8.163   1.813  0.1250  0.2208  0.2318
13208W        W69449   1.545   8.874  25.553  0.0118 -0.0110 -0.1252
13209W        W69450  30.179  25.066  22.460  0.2515 -0.0724 -0.0185
13210W        W69451  11.027  16.818   8.909  0.0043 -0.1341 -0.1914
13211W        W69452  10.426  23.804  24.256  0.0758 -0.1956 -0.4232
13212W        W69453  31.479  33.899  12.250 -0.1948 -0.1159  0.0286
13213W        W69454  13.115   7.876   3.427 -0.0083 -0.1252  0.1988
13214W        W69455  15.456  24.067  10.942 -0.0725  0.1043  0.1147
13215W        W69456   6.527  29.416  24.715  0.1425  0.0104 -0.1460
13216W        W69457  16.741  21.055  10.515 -0.5118 -0.0935  0.3623
13217W        W69458  27.205  26.696  12.480 -0.1792 -0.1643 -0.2368
13218W        W69459   5.703  32.085  13.093  0.1034 -0.1725 -0.4057
13219W        W69460   2.013   4.084   1.714 -0.2255  0.2558 -0.2595
13220W        W69461  27.480  17.369   6.592 -0.0714 -0.1455 -0.1316
13221W        W69462  19.199  12.419   6.627  0.0159 -0.0987 -0.1218
13222W        W69463  16.960   4.568  22.067  0.0223 -0.2022  0.2373
13223W        W69464  32.751  34.526  17.556 -0.0959  0.0820  0.0217
13224W        W69465  12.084  13.017  20.306  0.0376  0.0360  0.1007
13225W        W69466   8.699   3.957  13.371 -0.1242 -0.3642 -0.3311
13226W        W69467   7.727  18.055   8.111  0.1956  0.1271  0.0048
13227W        W69468  16.326   6.057  17.792 -0.0725 -0.0258  0.0827
13228W        W69469  29.524   2.513   5.444 -0.1281 -0.3283  0.2299
13229W        W69470   7.234  26.814  26.228  0.0946 -0.3159 -0.0171
13230W        W69471  12.184  25.114  15.723 -0.1166  0.1228 -0.0860
13231W        W69472   6.703   0.042  14.101  0.0195 -0.0094  0.2466
13232W        W69473   9.733  12.505   9.149 -0.1165  0.0131 -0.0493
13233W        W69474   1.392  10.075   3.399 -0.4847 -0.1053  0.0154
13234W        W69475  21.095  30.680  25.892 -0.0218 -0.1223  0.3072
13235W        W69476  27.857  23.341  18.588 -0.4424 -0.0801 -0.0891
13236W        W69477  11.305  17.243   8.903  0.1414  0.1465  0.2812
13237W        W69478  23.291  10.265  19.555  0.3773 -0.1435 -0.1799
13238W        W69479   7.924   6.704   1.877 -0.0464  0.0696 -0.1299
13239W        W69480  28.664  15.927  15.169  0.1189 -0.0064 -0.0911
13240W        W69481  31.032  13.982  14.940  0.0628 -0.1562  0.0576
13241W        W69482  27.231  26.704  24.232 -0.2441 -0.0530 -0.0311
13242W        W69483  16.376  10.140  23.093  0.2372 -0.3188 -0.1090
13243W        W69484  25.176  17.210  17.462 -0.2097  0.1142  0.0088
13244W        W69485  20.755  29.402  21.923  0.0387  0.1135  0.0760
13245W        W69486   1.843   4.444   4.061 -0.0914  0.0606 -0.0772
13246W        W69487  23.480  26.308   0.994  0.3888 -0.2311  0.0901
13247W        W69488  20.056  30.838   5.672  0.2658 -0.0612  0.2648
13248W        W69489  23.720  12.143  14.197 -0.0991  0.2032 -0.3450
13249W        W69490  28.883  22.980  24.746  0.2182 -0.1634 -0.1762
13250W        W69491   2.935   1.193   7.509  0.1453  0.1773 -0.1715
13251W        W69492  23.067   8.734  20.036 -0.2279 -0.0234  0.0092
13252W        W69493  25.034  31.044  17.842 -0.1060 -0.1736  0.1549
13253W        W69494  31.808  30.385  18.098  0.1475 -0.1370 -0.1335
13254W        W69495  29.557  33.313  14.509  0.0908  0.0002 -0.1383
13255W        W69496   1.378  10.210  25.201  0.0612  0.0984 -0.4390
13256W        W69497  16.574  20.932  21.696 -0.5167 -0.2436 -0.0616
13257W        W69498  30.409  21.099  21.304 -0.4524  0.0800 -0.0190
13258W        W69499  29.142  25.186   1.242  0.1711  0.2049  0.0885
13259W        W69500  18.843  13.757  23.979  0.0955 -0.2905  0.2995
13260W        W69501  27.276  31.707   5.312  0.2048  0.1654  0.2326
13261W        W69502   4.451   1.399  19.615 -0.0416 -0.0272 -0.0591
13262W        W69503  27.962  15.105  13.036 -0.0548 -0.2257  0.2498
13263W        W69504  13.236   2.196  20.591 -0.0188  0.1340  0.2237
13264W        W69505  34.723   5.389   1.102  0.1813 -0.1095  0.1278
13265W        W69506  28.416  13.567  23.293  0.1039  0.0787  0.0198
13266W        W69507  28.695  17.555   8.268 -0.0439 -0.0005 -0.0703
13267W        W69508  24.748  28.602  20.199  0.0051 -0.2086 -0.4061
13268W        W69509   8.233  31.778  22.352 -0.2878  0.1487  0.5056
13269W        W69510  18.522  15.750   1.638 -0.3907  0.0960  0.0881
13270W        W69511   5.094   2.308  19.418 -0.2613 -0.0176 -0.0288
13271W        W69512  19.248   4.807   1.351  0.0503 -0.2278  0.2199
13272W        W69513  17.755  22.980  10.966  0.0236  0.1101 -0.3012
13273W        W69514  22.834  18.206  14.613  0.1911 -0.2195  0.1195
13274W        W69515  34.918  12.389   1.158 -0.1254 -0.0830 -0.1092
13275W        W69516  14.270  19.566  15.198 -0.1564  0.1954  0.1778
13276W        W69517  35.109  28.734   3.151  0.3213 -0.1958  0.1617
13277W        W69518  12.126   3.579   7.303 -0.0197  0.2600 -0.2311
13278W        W69519   2.375  24.961  24.504 -0.2555  0.0014  0.0102
13279W        W69520  31.714   4.489  12.624  0.2545 -0.1096 -0.1607
13280W        W69521  30.397  21.224  18.192 -0.0600 -0.1969  0.3368
13281W        W69522  12.116  12.930  13.377  0.1256  0.0997 -0.1049
13282W        W69523  19.687   0.428  16.626  0.1176  0.2277 -0.2437
13283W        W69524   5.901  34.092  22.517 -0.2856 -0.1994 -0.4249
13284W        W69525  20.691  31.543   1.613 -0.2120  0.0421  0.1249
13285W        W69526  25.646  19.514  19.431  0.0359 -0.0993 -0.3419
13286W        W69527  33.744  10.097  15.174  0.2897  0.1456 -0.1728
13287W        W69528  20.400  19.973   4.176 -0.1093 -0.0138  0.0590
13288W        W69529  27.287  15.806   5.084  0.1046  0.0333 -0.0192
13289W        W69530  24.895  33.872  19.039  0.0042 -0.0942 -0.4534
13290W        W69531  20.847  33.729   7.427  0.3788 -0.0091 -0.1472
13291W        W69532  18.983   9.617   1.769  0.0258 -0.1180  0.1119
13292W        W69533  24.197  34.433  12.803  0.2059  0.0759 -0.1573
13293W        W69534   7.571  33.961  12.345  0.1527  0.0952 -0.3112
13294W        W69535  27.489  33.313  23.496  0.0982 -0.1301  0.1246
13295W        W69536   5.544  26.129  13.195  0.0431  0.0694 -0.1553
13296W        W69537  23.631  29.287  24.374 -0.2312 -0.2194  0.0575
13297W        W69538  15.433   2.821  17.077  0.0351  0.0696 -0.1956
13298W        W69539  28.038  22.800   6.143  0.0036  0.3822 -0.0551
13299W        W69540  19.257  21.378  10.896 -0.0768  0.0132  0.1276
13300W        W69541  10.877  11.166   8.189  0.0838  0.0799 -0.0343
13301W        W69542  19.312  31.107   2.527  0.1787 -0.2993  0.2424
13302W        W69543  26.731  20.835   8.286 -0.1351  0.0069 -0.3947
13303W        W69544   4.451  27.112   4.492  0.0347 -0.2240 -0.0426
13304W        W69545   9.778  20.760  24.997  0.1299 -0.0356  0.0876
13305W        W69546  26.598  31.646  14.102  0.0217 -0.1621 -0.0714
13306W        W69547   9.648  28.280  23.017  0.0667  0.2087  0.2767
13307W        W69548  24.790   6.000  23.663 -0.2427  0.1670 -0.0420
13308W        W69549  13.568  13.264  21.147  0.0561 -0.0149 -0.2403
13309W        W69550   2.914   9.723   7.338  0.1590 -0.1142  0.1170
13310W        W69551  30.538   9.586  23.891 -0.0864 -0.1009  0.0239
13311W        W69552  21.299  21.714   1.439  0.1298  0.0722  0.0688
13312W        W69553  25.543   8.301  24.151 -0.0941 -0.4580 -0.2331
13313W        W69554   9.291  30.991  14.483 -0.1095 -0.2301  0.1749
13314W        W69555  13.122   9.116  12.162 -0.1718  0.2503  0.0727
13315W        W69556   0.816   8.362  12.021  0.0798  0.1346 -0.4161
13316W        W69557   7.428   5.274   0.483  0.2849  0.1670  0.2912
13317W        W69558   1.043  18.356  11.452  0.3643  0.2407 -0.2511
13318W        W69559  32.644  33.989  14.609 -0.4611  0.0555 -0.0904
13319W        W69560   4.242  15.622  25.583 -0.0883  0.2189 -0.0271
13320W        W69561  29.075  28.405  24.635 -0.3438  0.0438  0.1277
13321W        W69562  10.743  18.685   6.228  0.2227 -0.0798  0.3924
13322W        W69563   0.758   4.544  17.734 -0.1510  0.3371 -0.0056
13323W        W69564  24.913  19.754  17.851  0.0641  0.3270 -0.1844
13324W        W69565  32.069  10.864   6.707 -0.2316  0.0608  0.1652
13325W        W69566  22.491  35.272   2.186 -0.0124  0.1661  0.1531
13326W        W69567  35.101  19.396  17.645 -0.2459  0.1163  0.0113
13327W        W69568  25.653  28.757  19.262 -0.0644 -0.0340  0.3801
13328W        W69569  20.871  14.428  20.569  0.0917  0.1935 -0.1125
13329W        W69570   7.020  32.560  24.557  0.0433 -0.0334  0.2579
13330W        W69571  31.500  33.181  17.761  0.0052  0.1277  0.1681
13331W        W69572   9.444  35.279  21.117 -0.1681 -0.0494 -0.1761
13332W        W69573   9.061  27.831  12.159 -0.1754 -0.2537 -0.0467
13333W        W69574  27.878  15.743  23.432  0.0217  0.0930  0.0986
13334W        W69575   6.778  17.999   8.266  0.0498  0.0039 -0.0699
13335W        W69576  21.634  21.812   4.909  0.0677 -0.3159  0.1882
13336W        W69577   8.345  31.285   8.468 -0.1860 -0.0467 -0.2088
13337W        W69578  30.964   9.077   8.665 -0.0692  0.1120 -0.0953
13338W        W69579   5.620   0.157  10.201 -0.1518  0.1590 -0.2661
13339W        W69580  29.854  31.761  17.073  0.0683 -0.1168 -0.0005
13340W        W69581   2.312  34.646  17.205  0.4352  0.0505  0.1208
13341W        W69582  27.805  11.696  19.939 -0.2241 -0.2176 -0.1342
13342W        W69583  32.895   7.901  17.512  0.2769  0.0444 -0.1064
13343W        W69584   1.139  31.466   3.435 -0.0490 -0.1000  0.2404
13344W        W69585  23.198  30.967  23.817  0.0778  0.4756 -0.0906
13345W        W69586  13.539  12.761  21.701 -0.0797  0.0033  0.1030
13346W        W69587  18.203   3.446   3.322 -0.0358 -0.0068 -0.2661
13347W        W69588  24.127  22.591  14.639 -0.2758  0.0926  0.1124
13348W        W69589   3.695   9.133  20.508  0.0874 -0.0500  0.0332
13349W        W69590  17.710  27.404   2.845 -0.1215  0.0759  0.0475
13350W        W69591   7.623   6.116   3.201  0.1693  0.1426 -0.1630
13351W        W69592  13.399  26.774  26.157  0.0069  0.2223 -0.4786
13352W        W69593  27.405  15.453   6.326  0.1339  0.2712 -0.2529
13353W        W69594  34.187  21.485  21.572  0.2077 -0.1119 -0.0551
13354W        W69595   0.225  27.334  23.173 -0.1368 -0.4000 -0.1464
13355W        W69596  31.745  30.662  13.156  0.0474 -0.1473 -0.2939
13356W        W69597  14.932  32.488  20.238 -0.0144 -0.0091  0.1849
13357W        W69598  34.337  10.451  25.911 -0.2424 -0.1269 -0.3998
13358W        W69599  33.798  23.706  18.587 -0.2122  0.0914  0.0652
13359W        W69600  10.733   2.254   6.421 -0.0158  0.3349  0.0915
13360W        W69601   7.716   8.098  26.213  0.1910 -0.3078  0.0864
13361W        W69602  28.383  31.785  24.095 -0.0405  0.0432  0.1575
13362W        W69603   2.075   3.366  24.109 -0.0550  0.1394  0.2009
13363W        W69604  16.241   5.715  22.884 -0.1154 -0.0598  0.0671
13364W        W69605  15.279  29.023   7.338  0.0861 -0.2477  0.1271
13365W        W69606  30.101  10.262  20.806 -0.0167 -0.0696  0.2091
13366W        W69607   3.695  30.911   6.966  0.0648  0.1099  0.1920
13367W        W69608   6.052  15.262  23.998  0.1028 -0.0435 -0.2168
13368W        W69609   0.157  25.738   2.479  0.0577  0.2808 -0.1208
13369W        W69610  19.263  34.333  15.528  0.1555  0.1700  0.1108
13370W        W69611  24.931  11.781  17.528 -0.1636  0.0167  0.1219
13371W        W69612  29.801  10.325   8.290  0.1358 -0.0963 -0.3838
13372W        W69613   9.840  13.402  21.433  0.2429  0.0272 -0.0808
13373W        W69614   8.228  22.121  13.196  0.1026 -0.0810  0.1215
13374W        W69615  35.198   3.190   1.399  0.1278  0.1709 -0.0799
13375W        W69616   7.885   4.889   0.015  0.1781  0.2659  0.2691
13376W        W69617  23.582  34.934  15.087 -0.2492 -0.1407 -0.0814
13377W        W69618  19.904  35.038  23.644  0.1716  0.2894 -0.3279
13378W        W69619  17.778  21.172   9.763 -0.0674 -0.0260  0.2219
13379W        W69620   2.698  13.505   0.416 -0.0671  0.0697  0.1603
13380W        W69621   2.950  16.388   4.457 -0.2081 -0.1227  0.1092
13381W        W69622  25.741   1.304   0.309 -0.1355  0.2450  0.0402
13382W        W69623  18.760  34.754  24.264  0.3993 -0.1290  0.0256
13383W        W69624  17.466  15.967   7.489  0.1501  0.4070  0.2411
13384W        W69625  16.430  19.877  24.925 -0.3023  0.0677 -0.0584
13385W        W69626  22.434  27.905   2.636  0.4254  0.0035 -0.1016
13386W        W69627  34.456   3.575   0.809 -0.0662 -0.2118 -0.0353
13387W        W69628   7.777  32.377  23.602  0.0631  0.3684 -0.0940
13388W        W69629  24.810  29.619  17.116  0.3441  0.3377 -0.0118
13389W        W69630  14.902   2.381  17.870  0.0486  0.0781 -0.0966
13390W        W69631   4.816  29.458  10.706 -0.1428  0.0422  0.0101
13391W        W69632   3.787  29.890   4.945  0.1776 -0.1545  0.0800
13392W        W69633   1.521  16.646  26.230 -0.1663  0.1545 -0.0786
13393W        W69634  24.271   1.915   4.817  0.0633  0.2448  0.4391
13394W        W69635   2.714  21.134  26.006  0.0051  0.1241  0.2561
13395W        W69636   0.940  21.573  25.188 -0.1468 -0.1920 -0.1474
13396W        W69637  10.953  29.594   3.836  0.2065  0.1340 -0.1542
13397W        W69638  13.101   9.548   3.517 -0.0584  0.0174 -0.1427
13398W        W69639  10.452  10.635   8.108 -0.0192 -0.1894 -0.2390
13399W        W69640  22.737  32.500   4.647  0.2205  0.0236  0.0307
13400W        W69641  13.014   5.742   8.849 -0.0132 -0.1606 -0.0177
13401W        W69642  14.262   0.957   7.096  0.3679  0.0739 -0.2055
13402W        W69643  13.750  18.104  14.856  0.0246  0.2722 -0.1570
13403W        W69644  21.998   5.563  21.224 -0.1707 -0.2330  0.0821
13404W        W69645  19.321  34.415  25.041 -0.2971  0.1376  0.3097
13405W        W69646   9.886  20.647  11.941  0.2768 -0.1024 -0.0781
13406W        W69647   1.210   6.774  17.060 -0.0205 -0.0272 -0.0284
13407W        W69648  26.851  25.833  22.000 -0.4985  0.0567  0.2253
13408W        W69649  27.545  31.987   5.782  0.0563  0.0479 -0.0316
13409W        W69650  13.518   8.494  19.197 -0.4132 -0.2535  0.0403
13410W        W69651  19.608  29.300  24.513  0.0786 -0.0793 -0.0764
13411W        W69652   8.198  13.040   5.456  0.2355 -0.1018 -0.3739
13412W        W69653  16.602  23.060  26.025 -0.0947 -0.0313 -0.0748
13413W        W69654  15.380  16.137  11.088  0.0130  0.0440 -0.2422
13414W        W69655  24.885   4.764  13.452  0.1692 -0.0825 -0.3837
13415W        W69656  10.631   1.443  23.796  0.1052 -0.0583  0.0088
13416W        W69657  11.932  32.637  24.915 -0.0030  0.0523  0.0816
13417W        W69658   0.724  34.647  19.615 -0.2782  0.2656  0.1310
13418W        W69659  24.325  27.363   2.525 -0.1314 -0.2871 -0.2300
13419W        W69660   2.680   4.992   0.930  0.1341  0.1535  0.0977
13420W        W69661   5.658  34.927  18.983 -0.4036 -0.0440  0.2382
13421W        W69662  24.409  29.985  14.257 -0.1146  0.3950 -0.4087
13422W        W69663  24.904  25.253  17.547  0.1555  0.2265  0.0399
13423W        W69664   6.559  14.671  25.258  0.0693 -0.1310 -0.1896
13424W        W69665  17.695  32.167   7.389 -0.0644  0.0076 -0.0905
13425W        W69666  33.634  10.446  15.517  0.3707 -0.0648 -0.0922
13426W        W69667  11.224  32.348  12.223  0.0832  0.1065  0.0471
13427W        W69668   0.399  11.234  16.667 -0.0659 -0.0081 -0.0889
13428W        W69669  22.878  21.760  25.259 -0.0526  0.0261 -0.1180
13429W        W69670  18.262  17.661  10.369  0.3925 -0.0901 -0.2274
13430W        W69671  26.589  32.774   0.838 -0.1268  0.1685  0.0863
13431W        W69672  10.651  25.278   0.199  0.2906 -0.1994  0.0085
13432W        W69673  13.556  34.602  25.791  0.1268 -0.1846  0.2870
13433W        W69674  20.030  20.289  17.745  0.3359  0.1502  0.0271
13434W        W69675  26.333   6.626  20.309  0.1561 -0.2436 -0.1590
13435W        W69676   1.345  27.244  25.220  0.2227 -0.0981 -0.1975
13436W        W69677  31.642   5.384   0.993  0.0166 -0.2401  0.1618
13437W        W69678  31.382   7.235  20.397 -0.0501 -0.0526 -0.1847
13438W        W69679  28.547  30.675  10.064  0.1033 -0.0215 -0.1441
13439W        W69680  27.861  11.627  15.687 -0.3182 -0.2679  0.0908
13440W        W69681   1.686   5.247   1.006  0.0750  0.0904 -0.2335
13441W        W69682  15.078  18.465   5.326 -0.0562 -0.2451 -0.2006
13442W        W69683  31.528  10.529  16.460  0.1141  0.0642  0.1124
13443W        W69684  31.154  30.245  20.477 -0.3840  0.0325 -0.0969
13444W        W69685  14.131   8.140   5.327  0.0378 -0.3196 -0.0518
13445W        W69686  32.881  14.174  23.963 -0.1144 -0.2235  0.1192
13446W        W69687  22.739  18.654  20.190 -0.0560 -0.0078  0.2460
13447W        W69688   3.172  23.873  19.680  0.1874 -0.0919 -0.1583
13448W        W69689  23.974  26.350   2.518 -0.0347 -0.0775 -0.2143
13449W        W69690  33.528   4.219  13.404 -0.1336  0.3007  0.1509
13450W        W69691  33.646  32.957   1.413 -0.2272  0.3267  0.2673
13451W        W69692  16.818  24.955  10.181  0.0462  0.2064 -0.2281
13452W        W69693  14.252  13.487  22.409 -0.1605 -0.1335 -0.0281
13453W        W69694  28.589  12.462   7.289  0.2032 -0.0117 -0.1998
13454W        W69695  27.093  26.123  22.940 -0.2497 -0.0547 -0.0340
13455W        W69696  16.178  25.163   8.204  0.0703  0.0816 -0.0204
13456W        W69697   5.216   3.724  21.541 -0.0679 -0.1110 -0.0577
13457W        W69698  23.284   4.485  23.843  0.1910 -0.2859  0.0288
13458W        W69699  24.249  30.294  13.810  0.1615 -0.2882 -0.0951
13459W        W69700   1.355  11.200  13.021 -0.0405 -0.5603 -0.2713
13460W        W69701  22.848   0.410   7.418  0.1998 -0.1787  0.0314
13461W        W69702  11.568  13.163  19.607  0.1208 -0.1572  0.2390
13462W        W69703  21.514  31.671  20.815  0.0866 -0.3023 -0.1287
13463W        W69704   2.170  27.407  18.156 -0.0536  0.2028  0.0617
13464W        W69705  14.664  23.257   7.422  0.1331 -0.0724 -0.0803
13465W        W69706   8.443   9.698  19.755  0.2537  0.0490  0.1380
13466W        W69707   5.296   0.250   6.167 -0.0051 -0.0020  0.0446
13467W        W69708  34.995  26.416   2.902  0.1087 -0.2017 -0.1231
13468W        W69709  15.426  20.513  24.884 -0.1961 -0.1936 -0.1691
13469W        W69710  30.608  15.042   8.790 -0.1033 -0.4074 -0.1313
13470W        W69711  17.044  18.522  24.238  0.2009  0.4253 -0.1314
13471W        W69712  31.387  13.263  12.889  0.0803  0.5383  0.0171
13472W        W69713  28.404  10.456  24.903 -0.0534  0.0807 -0.2231
13473W        W69714   4.128  33.485   3.707 -0.1243  0.0618 -0.1130
13474W        W69715  31.096  14.310   8.516  0.0809 -0.0933  0.1834
13475W        W69716  23.384  22.796  17.643  0.1374  0.1244 -0.0029
13476W        W69717  23.815  34.161  18.832 -0.1490 -0.2086 -0.1535
13477W        W69718  28.165  21.487   5.433 -0.1996  0.2804 -0.4417
13478W        W69719  19.923  26.182  24.180 -0.1734 -0.3169 -0.2942
13479W        W69720  16.427  22.656   7.845 -0.1408 -0.4721  0.1737
13480W        W69721  33.610  18.150  14.023  0.0738 -0.1783 -0.0682
13481W        W69722  11.817  28.406   6.484 -0.3764 -0.4813 -0.1524
13482W        W69723   4.656   4.552  20.717 -0.0155  0.2039  0.0398
13483W        W69724  12.676  19.075   2.137 -0.1425  0.0200  0.0441
13484W        W69725   5.931   5.178  24.170 -0.0546  0.2491  0.1921
13485W        W69726  15.746   3.496   3.136  0.0174  0.1653  0.1847
13486W        W69727  14.358   0.489  25.455  0.1866 -0.1880  0.0887
13487W        W69728   2.196  32.063   4.324  0.1145 -0.0865  0.1306
13488W        W69729  12.937   0.113  25.076 -0.1427  0.1492 -0.2603
13489W        W69730   6.522   4.951   9.131  0.0786  0.1674  0.2672
13490W        W69731   0.223  25.133  14.898  0.0397 -0.0162  0.0086
13491W        W69732  33.706   0.045  20.309  0.3420  0.4575  0.1463
13492W        W69733  15.291  27.752  10.662  0.0674  0.0322  0.3675
13493W        W69734  27.310  31.131  13.692  0.0793  0.1035 -0.0103
13494W        W69735  15.135   3.566  23.866  0.3300  0.0701  0.1967
13495W        W69736  30.512  16.325   5.840  0.1634 -0.0376  0.5267
13496W        W69737  10.718  31.215  25.211 -0.2150  0.0291 -0.0987
13497W        W69738  35.101   2.417  25.932 -0.3867 -0.3059 -0.4356
13498W        W69739  19.332  34.448  15.026  0.2992  0.2446  0.0726
13499W        W69740  20.627  11.279   4.278  0.1640  0.0073 -0.0137
13500W        W69741   4.669   6.493   7.358 -0.0239  0.0155  0.0017
13501W        W69742   0.367  23.805  20.530 -0.0341 -0.6006 -0.1672
13502W        W69743   0.030  20.996  23.067 -0.3488  0.0938 -0.1437
13503W        W69744   2.518  16.393  18.151 -0.0638  0.1651 -0.0808
13504W        W69745  23.630  27.831   4.917  0.2998  0.0275  0.2494
13505W        W69746   5.857   8.228  22.439  0.2086  0.0011  0.0414
13506W        W69747  12.179  15.853  12.197  0.0187 -0.0355  0.0627
13507W        W69748   4.763   6.323  25.624 -0.0880 -0.1531 -0.1288
13508W        W69749  20.989  29.743  24.872  0.0284  0.2216  0.2708
13509W        W69750  23.125   0.348  23.883 -0.1323 -0.2183 -0.0832
13510W        W69751  15.670  20.667  13.259  0.1898 -0.0334 -0.1022
13511W        W69752  30.370  21.795  14.152  0.3289  0.1372 -0.0261
13512W        W69753  10.020  28.655   0.257  0.2386  0.0468 -0.0804
13513W        W69754  29.506  14.750  16.700  0.0322  0.3238 -0.1021
13514W        W69755   9.212  13.256  11.519  0.0153  0.0395 -0.0191
13515W        W69756  12.720  29.573   0.214 -0.1500  0.1010 -0.2815
13516W        W69757   0.007   5.764  23.462 -0.2395 -0.0148  0.2509
13517W        W69758  18.288  17.346   4.751 -0.3627  0.2401 -0.0586
13518W        W69759  17.792  24.723  20.963 -0.1394  0.2793  0.1317
13519W        W69760  21.079  11.413  19.252 -0.1103  0.1653  0.1020
13520W        W69761  19.867  30.991  23.286 -0.3054 -0.1411 -0.2341
13521W        W69762  32.867  32.862  22.398  0.0315  0.0891 -0.1814
13522W        W69763  11.702   4.194   1.829  0.2223 -0.1924 -0.0186
13523W        W69764  10.311  12.752  11.590  0.0566  0.0498 -0.0560
13524W        W69765  28.782   8.954  18.014  0.2769  0.0559  0.1153
13525W        W69766  30.004  17.679   8.603 -0.0284  0.1062 -0.2567
13526W        W69767  10.667   2.383   2.135  0.2230  0.1140  0.2461
13527W        W69768   9.676  21.126   1.655 -0.1608 -0.0400  0.0309
13528W        W69769   8.568  33.727   8.769  0.0116  0.0230 -0.2360
13529W        W69770  32.457   9.533  21.653  0.1920 -0.1035 -0.0873
13530W        W69771  29.020   2.385  17.040 -0.3320 -0.2825 -0.0491
13531W        W69772  15.125   4.988  10.735 -0.1418 -0.0421  0.1004
13532W        W69773  32.600  12.380  10.193  0.2019 -0.0751  0.0695
13533W        W69774  16.539  15.422   6.157 -0.3491 -0.2984  0.2414
13534W        W69775  34.659   2.322  15.667 -0.0997 -0.0293 -0.2216
13535W        W69776  10.060   6.852  22.537  0.2301  0.0752 -0.0625
13536W        W69777   4.698  15.436  17.062  0.1808 -0.0928  0.0893
13537W        W69778  21.858   3.391  18.012 -0.1073  0.1695  0.0049
13538W        W69779   8.038  27.658  24.131 -0.0704  0.0469 -0.0868
13539W        W69780  27.652  12.173  18.058 -0.2435  0.1012  0.1833
13540W        W69781  30.460   4.320  15.081 -0.0030  0.0788  0.0496
13541W        W69782  28.151   6.847  20.803 -0.0326 -0.1942  0.1146
13542W        W69783  20.489  16.206  25.783  0.1371  0.1091  0.0504
13543W        W69784   4.022  11.087   5.686  0.0277 -0.0739  0.3761
13544W        W69785  29.465  13.846  13.439  0.0704 -0.3621 -0.0815
13545W        W69786  12.594  20.254   2.608 -0.2764  0.1097  0.4578
13546W        W69787  22.189   0.126  21.361  0.4267 -0.2020 -0.0769
13547W        W69788  11.075  14.657   3.737  0.1885  0.2293  0.0901
13548W        W69789  10.842   9.419  25.945  0.1078  0.0119 -0.1167
13549W        W69790   8.163   5.230  22.213  0.0504  0.0581  0.0083
13550W        W69791   7.054  19.302   3.928  0.2680 -0.2864 -0.0589
13551W        W69792  19.888   4.613  22.780  0.3374 -0.0370 -0.1758
13552W        W69793  26.441   9.396   9.332  0.1656 -0.1144 -0.0323
13553W        W69794  31.356  18.783  11.911  0.3108  0.0043  0.0693
13554W        W69795  31.655   2.985  25.628 -0.0996  0.1522 -0.1635
13555W        W69796  22.915  31.524  24.003  0.1091  0.0014 -0.0621
13556W        W69797  22.355  33.845  21.757  0.0634  0.0095  0.1177
13557W        W69798  20.449   1.138  16.984  0.0520 -0.0117 -0.0179
13558W        W69799  20.609   4.349   9.058  0.2905  0.4881  0.0427
13559W        W69800   5.769  24.922   7.722  0.0951 -0.0897 -0.2630
13560W        W69801  10.544  18.990   0.968 -0.1117 -0.0554 -0.0791
13561W        W69802  15.439  35.046   0.674  0.0427  0.3622  0.1443
13562W        W69803  24.262  34.792  15.948  0.1142 -0.0052 -0.0219
13563W        W69804  26.349   1.378  25.684  0.1725 -0.1560  0.2432
13564W        W69805  12.503  15.254   4.787 -0.0901  0.3143  0.0428
13565W        W69806  26.107   7.336  12.862 -0.1493 -0.1052 -0.1776
13566W        W69807   0.606   8.186   0.843  0.2219 -0.3110 -0.5725
13567W        W69808  10.418  12.168   0.470 -0.2353  0.0003  0.1215
13568W        W69809  20.325  19.197   0.284 -0.1565  0.1753 -0.0984
13569W        W69810  33.907  19.670  13.105 -0.2230 -0.1849 -0.2610
13570W        W69811  19.358  24.044  19.829  0.1698  0.0466 -0.0917
13571W        W69812  12.106  26.976   5.501  0.0280 -0.0180 -0.2499
13572W        W69813   9.191  11.646  22.592  0.2434  0.1266 -0.1265
13573W        W69814   6.545   2.033  12.819 -0.1864 -0.2051  0.1114
13574W        W69815  33.641  19.990  16.802 -0.0234  0.0699 -0.1598
13575W        W69816  18.129  34.730   1.010 -0.1770 -0.3059 -0.1764
13576W        W69817  30.826   4.015   0.268 -0.0875 -0.0057 -0.1603
13577W        W69818  16.713   0.697   1.001 -0.1629  0.1533 -0.0005
13578W        W69819  16.073  24.817   3.881  0.2027 -0.2994  0.1122
13579W        W69820  22.995  25.815  20.893 -0.0624 -0.0357  0.0473
13580W        W69821  25.504   8.360   0.811 -0.4388 -0.0667 -0.1952
13581W        W69822  28.286  10.832  22.475 -0.0828 -0.0924  0.1208
13582W        W69823  23.010  33.810   2.426 -0.0130  0.0500  0.1949
13583W        W69824  22.774  28.488  13.747  0.2763 -0.2091  0.0208
13584W        W69825   5.859  31.145   2.546  0.0508 -0.2780 -0.1427
13585W        W69826  14.738   1.163  21.815  0.1146 -0.1279  0.0886
13586W        W69827  34.985  26.298  16.665 -0.0802 -0.1115  0.0978
13587W        W69828  25.817  27.028  21.199  0.0436  0.0593 -0.4429
13588W        W69829   0.109  27.918  19.486  0.1157  0.1293 -0.2831
13589W        W69830   6.267  26.995  15.611 -0.1466 -0.1840  0.0572
13590W        W69831   7.282  11.125   8.165 -0.0393 -0.1235  0.1161
13591W        W69832   5.976  29.678   7.598  0.1714 -0.0588 -0.0837
13592W        W69833  14.209   3.771  24.684  0.3461  0.4354 -0.2211
13593W        W69834  20.503   6.451   6.451  0.2066 -0.0434  0.1846
13594W        W69835  28.241  19.021   9.568 -0.0839 -0.1969  0.2070
13595W        W69836  17.873  10.880   9.192 -0.0517  0.1025  0.0092
13596W        W69837  30.398  25.380  19.263 -0.0919  0.2365  0.0286
13597W        W69838   3.040  18.613  19.832  0.0161 -0.3239  0.0630
13598W        W69839  13.213   2.200   7.490  0.0130 -0.1870  0.2458
13599W        W69840   8.994  19.501  11.910  0.2541  0.0209 -0.0635
13600W        W69841  28.359  15.537  12.148  0.1394 -0.2866 -0.1008
13601W        W69842  29.167  13.568  16.860 -0.2095  0.1614 -0.0336
13602W        W69843  27.998   6.728   1.410  0.1093  0.0914  0.1262
13603W        W69844  30.581   5.371  16.831 -0.0239  0.1800 -0.0889
13604W        W69845  14.302  21.337  15.301 -0.0943  0.1723  0.1096
13605W        W69846  33.084  30.992   4.058 -0.3050  0.0449 -0.1001
13606W        W69847  13.874  17.897  22.150 -0.2631 -0.2056 -0.0358
13607W        W69848  32.792   1.671   5.866 -0.0894  0.2490  0.1878
13608W        W69849   1.227  27.777  17.557  0.4816  0.1757  0.0868
13609W        W69850  13.998  19.834  24.668 -0.1977 -0.0825  0.0754
13610W        W69851  23.308  33.471  13.402 -0.0467  0.1811 -0.1641
13611W        W69852   7.614   9.573   1.591  0.0141 -0.3901  0.3219
13612W        W69853   2.217  16.290  20.356  0.2125  0.0075 -0.4036
13613W        W69854   6.112  16.225   8.861  0.1220  0.0568  0.1445
13614W        W69855   5.933  29.536   5.354  0.1890  0.1660 -0.2120
13615W        W69856  15.747   2.785  26.174  0.1907  0.2487 -0.0038
13616W        W69857   9.192  30.268  15.188  0.1312  0.1532 -0.1202
13617W        W69858   8.842   1.168   2.079  0.1283  0.1258 -0.0036
13618W        W69859  13.109  17.752   3.648 -0.0748 -0.4299 -0.3447
13619W        W69860   9.865  30.501  24.208  0.0829  0.0766  0.0397
13620W        W69861   9.700  11.549  22.070 -0.0665 -0.2471 -0.0675
13621W        W69862  22.424  25.293  21.424  0.1826 -0.2057 -0.1499
13622W        W69863   4.639   7.327  21.008  0.1562 -0.1363  0.2196
13623W        W69864  24.217  17.138  20.305  0.0721  0.1088 -0.3455
13624W        W69865  24.152  31.733  23.521 -0.0923 -0.1426  0.1005
13625W        W69866  14.100  26.621  24.351  0.1780 -0.2631 -0.2776
13626W        W69867  33.689  21.453  21.426  0.1427 -0.1436 -0.4360
13627W        W69868  32.397  14.271   9.421  0.0390 -0.0434  0.1323
13628W        W69869  22.113  13.880  21.180 -0.0434 -0.0364  0.0062
13629W        W69870   3.097   1.336  20.946  0.2402  0.2760 -0.0302
13630W        W69871  15.590  30.632   5.888 -0.0091  0.0447 -0.1559
13631W        W69872  29.829  19.218  20.754 -0.0547  0.0580  0.1487
13632W        W69873  30.558  32.392  14.849  0.2459  0.2704  0.0360
13633W        W69874  26.073   1.281  26.091 -0.0452 -0.2437 -0.1659
13634W        W69875  27.014  11.094   0.547  0.1947 -0.0798  0.0512
13635W        W69876  17.047  18.396  25.745  0.2322 -0.0232 -0.0614
13636W        W69877  18.894  15.083   5.235 -0.5689  0.1365  0.2116
13637W        W69878  26.812  24.944  20.148  0.0618  0.0236 -0.0484
13638W        W69879  31.218   4.844  12.100 -0.0565 -0.2723 -0.1297
13639W        W69880  10.508   9.982  13.540 -0.2123  0.3455 -0.0130
13640W        W69881   7.675   3.302  24.389  0.5126 -0.4186  0.0249
13641W        W69882  10.517  14.195  23.400  0.1650  0.2125 -0.0817
13642W        W69883  11.685   4.900   7.162 -0.0257 -0.1025 -0.0583
13643W        W69884  23.591   7.466  14.726  0.3008  0.2253  0.1119
13644W        W69885  24.363   4.588   3.491  0.0394  0.1015  0.0010
13645W        W69886  29.578  34.705   2.354 -0.2012  0.4180  0.1258
13646W        W69887  26.715  20.941  20.743  0.4475  0.3376 -0.1430
13647W        W69888  12.791   6.418   2.596 -0.0947 -0.0288  0.1723
13648W        W69889  19.551  33.112  22.770 -0.2249  0.1382  0.0324
13649W        W69890   1.712   0.112  22.222  0.2328 -0.1112  0.0023
13650W        W69891  11.614  32.045   6.875  0.2525 -0.2542  0.0908
13651W        W69892  32.721  26.724  19.567 -0.0248 -0.0209  0.2182
13652W        W69893  20.558  13.291  16.419  0.0586  0.0509 -0.0561
13653W        W69894  13.486  14.230   3.105  0.0167 -0.0602  0.1742
13654W        W69895  16.264  23.646  25.159 -0.4226  0.0030  0.2895
13655W        W69896   2.015   8.949  19.095  0.0515 -0.1495 -0.4148
13656W        W69897  26.855  10.768  20.418  0.0006 -0.2806 -0.0036
13657W        W69898   4.143   9.613  24.884  0.0123  0.0736  0.0041
13658W        W69899  24.898  24.110  15.319 -0.1292  0.3441  0.0195
13659W        W69900  16.535   4.107  24.699 -0.4686  0.0304 -0.2519
13660W        W69901  30.285  19.511   9.316 -0.0574  0.0604 -0.0458
13661W        W69902  18.347  32.561  25.378  0.0696 -0.0357  0.2197
13662W        W69903  11.928   2.330   5.187  0.2704 -0.1289 -0.1897
13663W        W69904  32.879  13.275  24.295 -0.0829 -0.6648 -0.0807
13664W        W69905  18.001  22.029  11.796  0.2440 -0.1063  0.0371
13665W        W69906  12.997  12.628   0.622 -0.0758  0.1365  0.0936
13666W        W69907  11.994  33.994   7.075 -0.2177  0.0500 -0.0111
13667W        W69908  13.156   8.549   8.547 -0.1599  0.0390  0.2682
13668W        W69909  16.023  19.765   6.259  0.2707 -0.2552 -0.2668
13669W        W69910  22.536  19.449   2.255  0.0111  0.1704 -0.1549
13670W        W69911   1.510  16.120  11.457  0.1130  0.0690 -0.1238
13671W        W69912  27.043  30.516  24.799  0.1470  0.1430 -0.3641
13672W        W69913   5.417  29.973  20.183 -0.1390  0.0707  0.1316
13673W        W69914  12.965   2.760   3.972 -0.3254 -0.0422 -0.1916
13674W        W69915  30.929  10.022  21.413  0.0770  0.1553 -0.1019
13675W        W69916  28.056  16.738   9.186 -0.0722  0.2411 -0.0424
13676W        W69917  22.598   4.980   6.817 -0.2202 -0.2230 -0.2746
13677W        W69918   4.140  18.679  21.058 -0.0398  0.1183  0.1539
13678W        W69919   5.218   0.078  20.505 -0.1897 -0.2270 -0.1768
13679W        W69920  28.803  14.432  25.703 -0.0849 -0.0540 -0.0703
13680W        W69921  16.302   2.310   9.399  0.0064  0.1302  0.2317
13681W        W69922  10.946   6.859   1.061 -0.0100  0.0465 -0.2802
13682W        W69923  25.082   0.094  15.466 -0.0473  0.0476 -0.1299
13683W        W69924   5.133  28.267   6.856 -0.0099  0.2400  0.1164
13684W        W69925  12.109   4.165   2.365 -0.0910 -0.2311  0.3504
13685W        W69926  28.907   9.824  22.483 -0.0893 -0.1797 -0.3254
13686W        W69927  12.708  16.072  26.060  0.0727 -0.0338 -0.3016
13687W        W69928  10.704  20.558  15.863  0.1116 -0.1817 -0.0871
13688W        W69929  16.610  32.384  20.311 -0.1256 -0.0603 -0.0533
13689W        W69930  16.189   4.001   8.324  0.0510  0.2763  0.0021
13690W        W69931   5.872   5.271   9.144 -0.0319  0.1533  0.2287
13691W        W69932  18.769  31.613   6.639 -0.0493  0.0988  0.0948
13692W        W69933   6.656  15.453   2.874 -0.1166  0.5024  0.0722
13693W        W69934   3.120  15.614   2.101 -0.1168 -0.0501 -0.0584
13694W        W69935  17.648  34.232  19.936  0.1595 -0.1521  0.1344
13695W        W69936  33.204  19.989  10.935  0.1459  0.3757 -0.3549
13696W        W69937  13.574   9.766  12.532  0.4061 -0.2890 -0.1739
13697W        W69938  13.994  24.512   8.641 -0.1192  0.1923  0.0982
13698W        W69939  16.124   2.135   1.234  0.2012  0.3256 -0.1553
13699W        W69940   1.355   8.288  20.632 -0.3210 -0.2515  0.1869
13700W        W69941  16.517  20.073  12.272 -0.2266 -0.2079  0.0670
13701W        W69942  19.555  23.773  24.561  0.1941 -0.0954 -0.2480
13702W        W69943  17.320  28.543  22.344  0.1260 -0.3196 -0.1335
13703W        W69944  14.410   2.317  19.867  0.2252  0.1112 -0.0626
13704W        W69945  12.076   9.108  11.280  0.1057 -0.2879 -0.0704
13705W        W69946  18.110   0.758  23.508 -0.1717  0.1029  0.1389
13706W        W69947  22.756  34.135  15.911 -0.1862  0.0803  0.1397
13707W        W69948  25.265   6.021   0.950 -0.1060 -0.0295 -0.0185
13708W        W69949   7.024  15.116   2.324 -0.2913  0.0208  0.1793
13709W        W69950  12.301  11.835  18.482 -0.2662  0.2284 -0.0039
13710W        W69951  20.888  24.598   8.595  0.1325  0.2829  0.0529
13711W        W69952  16.585  18.121  25.895  0.2687  0.1319 -0.0787
13712W        W69953  24.316   5.597  17.190 -0.4443  0.2441 -0.0457
13713W        W69954   6.153  26.557   9.068 -0.1058  0.2217  0.1521
13714W        W69955  15.859   9.069  23.190 -0.3905 -0.2837 -0.0344
13715W        W69956   1.842  19.968   1.657  0.0069  0.2518 -0.1552
13716W        W69957  26.541  24.458  25.184 -0.0741  0.1851  0.2570
13717W        W69958  23.233  10.670  13.806  0.0453 -0.2310  0.1813
13718W        W69959  24.908  27.681   4.708  0.1384  0.1299  0.2179
13719W        W69960  26.057  30.139   1.703 -0.5084 -0.0642  0.1699
13720W        W69961   5.830  22.722  22.291 -0.1236 -0.1335 -0.1598
13721W        W69962  29.088  31.810  17.600  0.1559  0.3123  0.1681
13722W        W69963  14.330  17.886   1.290  0.2636 -0.1128  0.0327
13723W        W69964  25.642  32.523   6.414 -0.1567  0.1061 -0.3203
13724W        W69965  32.160  20.538  21.634  0.4421  0.2067 -0.0265
13725W        W69966  34.096  30.620  17.403 -0.2265  0.2201 -0.3485
13726W        W69967  27.507  29.506  16.529  0.0776 -0.0177  0.2058
13727W        W69968   1.215  22.079  11.087  0.0515  0.0511  0.0770
13728W        W69969  28.186  23.800   9.045  0.1743 -0.1438  0.1184
13729W        W69970  28.527  22.120  25.358  0.2921 -0.1802  0.1057
13730W        W69971  32.048   3.822  20.650  0.1364  0.0435 -0.5328
13731W        W69972  25.920   1.675  19.777 -0.3276 -0.2794  0.3795
13732W        W69973   9.932  19.039  13.221 -0.0784 -0.0872  0.1221
13733W        W69974  10.901  16.564  19.168 -0.4010 -0.1011  0.0000
13734W        W69975  33.274   9.159  25.837  0.4222  0.2089  0.0217
13735W        W69976  27.643  10.254  11.197  0.1424  0.3663 -0.2270
13736W        W69977  32.898  33.693  14.341  0.1023  0.0081  0.2198
13737W        W69978  22.725   4.839  16.168  0.0717 -0.1234 -0.0160
13738W        W69979  25.592  12.818  18.778 -0.0497 -0.1306 -0.3824
13739W        W69980  16.848   3.665   5.927  0.2904 -0.1172  0.1553
13740W        W69981  35.017  28.065  16.441 -0.1344  0.3300 -0.3332
13741W        W69982  25.815  33.948   5.617  0.2636  0.0556 -0.1551
13742W        W69983  29.401   9.376  16.822 -0.0756 -0.0503  0.1611
13743W        W69984  12.919  18.243  14.363  0.2909 -0.1629  0.2275
13744W        W69985  30.971  30.645   0.425 -0.0074  0.2706 -0.2886
13745W        W69986  19.638  19.713   8.367  0.0056  0.0554 -0.4241
13746W        W69987   7.640  35.125  11.438  0.0621 -0.0953  0.1564
13747W        W69988  34.479   1.075  14.483  0.0990 -0.2007  0.0888
13748W        W69989  35.277  23.535  21.588 -0.0134  0.0953  0.1240
13749W        W69990   1.447  28.997  18.139  0.0148  0.0995 -0.3162
13750W        W69991  14.821  29.950   9.330  0.0181 -0.1593 -0.0585
13751W        W69992  27.837  10.996  10.394 -0.1132  0.0600  0.0128
13752W        W69993   0.398   8.787   1.798 -0.2053 -0.1325  0.0153
13753W        W69994   1.703  33.691   1.657  0.1337 -0.0608  0.0154
13754W        W69995  22.847   7.898  20.263  0.3183 -0.1341  0.0445
13755W        W69996  24.874  15.890  13.073 -0.1438  0.1630 -0.2641
13756W        W69997   8.849  16.765   5.094 -0.3894  0.0685 -0.2454
13757W        W69998  29.711   2.057  26.109  0.2162 -0.2051 -0.3913
13758W        W69999  26.766  18.540  12.371 -0.0023  0.0356 -0.0801
13759W        W70000  11.009   5.237  21.177  0.1228 -0.0069 -0.0148
13760W        W70001   8.870  26.153   1.027  0.2916 -0.0184 -0.1100
13761W        W70002  20.996  30.114  13.659 -0.2508  0.2895  0.2991
13762W        W70003  17.936  33.116  22.078  0.3959 -0.1466 -0.2743
13763W        W70004  25.916  23.429   0.521  0.2248 -0.1652  0.0740
13764W        W70005  11.833   9.808   7.166  0.2600  0.0539 -0.4025
13765W        W70006  14.775  13.485   2.176  0.0127 -0.0016  0.3914
13766W        W70007  10.781  19.762  13.118 -0.0535  0.0457 -0.0789
13767W        W70008  30.508   5.831  25.876  0.1964  0.5512 -0.2225
13768W        W70009  23.277  33.794   0.066 -0.0331  0.0788  0.0135
13769W        W70010  10.860  12.719  22.295  0.1039 -0.1929  0.2164
13770W        W70011  32.721   8.332  19.222  0.3200  0.0739  0.0818
13771W        W70012   5.112   3.837   8.983 -0.3669  0.1603 -0.2548
13772W        W70013  27.174  15.550   6.821 -0.4191 -0.3315  0.1841
13773W        W70014  26.498  13.336  15.347  0.1368 -0.1337  0.0777
13774W        W70015  12.381  14.057   4.060 -0.1335  0.0820  0.0414
13775W        W70016   6.260  31.011   5.766  0.0134  0.2459  0.2710
13776W        W70017   7.503  35.088   8.306  0.3958  0.0128 -0.3778
13777W        W70018   5.324  17.317  23.833 -0.3280  0.2269  0.2624
13778W        W70019   6.278  20.792  25.115 -0.0549  0.2548  0.1855
13779W        W70020   2.715  34.244  25.026 -0.2569  0.4028  0.3338
13780W        W70021  30.533  16.421   8.484  0.1839  0.1448  0.1961
13781W        W70022  25.397  30.219  23.905  0.1899  0.1911  0.0066
13782W        W70023  21.543   6.657   8.488 -0.2583 -0.0752 -0.0934
13783W        W70024  22.863  33.298  24.147 -0.1210  0.2266  0.0321
13784W        W70025  18.725   0.488   8.346 -0.1350  0.0065 -0.2231
13785W        W70026  33.719  16.836  14.844 -0.0933  0.3080 -0.2820
13786W        W70027  29.624  16.660   7.435  0.1397  0.2014  0.0371
13787W        W70028  29.536  10.606  19.859  0.0826 -0.0853  0.1511
13788W        W70029   6.796   7.752   7.884 -0.1479 -0.2659 -0.0921
13789W        W70030   8.045  12.702  10.071  0.1839  0.3204  0.1887
13790W        W70031  18.008  12.527  20.146  0.0617 -0.0938 -0.1081
13791W        W70032  24.109  21.031  22.446  0.2041 -0.1430  0.1058
13792W        W70033  27.123   0.374  18.310 -0.4262  0.0602  0.0361
13793W        W70034  11.790  21.998   4.736  0.0612  0.1239 -0.0030
13794W        W70035  31.131  22.223  11.628 -0.2013 -0.0780 -0.1126
13795W        W70036   7.019  33.183   3.178 -0.0274 -0.0528  0.0236
13796W        W70037  33.938  20.286  24.619  0.2132  0.1975  0.2079
13797W        W70038  33.490  26.293   2.836  0.0402 -0.1377  0.3341
13798W        W70039  34.378  33.405   6.992  0.1817  0.1757 -0.1803
13799W        W70040  21.097  11.122   2.961 -0.2685 -0.1414  0.1299
13800W        W70041   7.905  16.838  24.357 -0.1904 -0.2818  0.0161
13801W        W70042   1.160   6.290  22.414 -0.4922 -0.0970  0.1899
13802W        W70043   9.607  10.282   7.864 -0.3101  0.1977 -0.0170
13803W        W70044  26.829  20.579   5.434 -0.0377  0.0543  0.1587
13804W        W70045  16.697  12.649   9.847 -0.1489  0.1086  0.3585
13805W        W70046  25.110  22.555  12.624  0.0361 -0.0800 -0.1680
13806W        W70047  21.267  13.220  18.658  0.3692 -0.0026 -0.0210
13807W        W70048  22.083  32.646   0.802 -0.2770  0.2402 -0.1572
13808W        W70049  11.157  17.591   3.431 -0.0993 -0.1025  0.0476
13809W        W70050  15.680  26.370   3.160 -0.0117 -0.0734 -0.5136
13810W        W70051  12.859  18.501  20.601  0.0287  0.0428 -0.0167
13811W        W70052   3.779   6.991   2.150  0.1609 -0.0369 -0.0475
13812W        W70053  30.497  11.169   9.823  0.5665  0.1018 -0.0757
13813W        W70054  16.059  30.907   0.652  0.1056  0.2925 -0.0845
13814W        W70055   2.124   3.872  24.048 -0.1722 -0.0310 -0.4582
13815W        W70056  17.928  24.570   2.348  0.1219 -0.0097 -0.1040
13816W        W70057  11.685  10.173  23.818 -0.1265  0.1630  0.3291
13817W        W70058  10.400  32.839   2.305 -0.2218  0.0632  0.2646
13818W        W70059   4.787  28.045  20.595  0.2242  0.1594  0.1005
13819W        W70060  23.391   5.718  25.513  0.1880 -0.0837 -0.1665
13820W        W70061  28.512  13.151   6.833 -0.3916  0.3101  0.0297
13821W        W70062  12.967  29.681  12.454  0.3152 -0.2188  0.1570
13822W        W70063  15.014   9.651  19.050 -0.0813  0.2545  0.3165
13823W        W70064   5.593  32.097  26.219 -0.1087 -0.1294 -0.0521
13824W        W70065  32.648  21.542  22.417  0.3562  0.2567  0.1525
13825W        W70066  27.882  26.215  10.688  0.2442 -0.2216  0.0157
13826W        W70067   9.795  19.588   2.332  0.1351  0.0191 -0.1489
13827W        W70068   1.136   7.135  25.899 -0.0804 -0.1643 -0.5197
13828W        W70069   2.871   9.296  24.387 -0.2340 -0.1478  0.2312
13829W        W70070  29.843  19.707  15.719  0.2420  0.2330 -0.0297
13830W        W70071  29.395  19.078  16.161 -0.0241 -0.0449 -0.1668
13831W        W70072  15.170   8.843   6.154 -0.0611  0.1966  0.0611
13832W        W70073   1.373  12.602  23.214  0.0897  0.0344  0.0696
13833W        W70074   3.204  20.989  18.366  0.3031 -0.0770 -0.2949
13834W        W70075  28.187   5.895  16.500 -0.4065 -0.0908  0.3428
13835W        W70076  29.207  11.398  15.630  0.0016 -0.3138 -0.0116
13836W        W70077  22.822  17.776  17.409 -0.1914 -0.0621  0.3986
13837W        W70078  26.925  16.986  13.054  0.0807  0.1368  0.2173
13838W        W70079  26.652  18.801   7.483 -0.0452 -0.2763  0.4520
13839W        W70080  16.534  23.257  22.796 -0.2481  0.0502 -0.0767
13840W        W70081  19.223  21.524  23.725 -0.1225 -0.0764  0.2749
13841W        W70082  18.289  33.736   4.058  0.0529  0.2176 -0.0979
13842W        W70083   0.269   7.600   5.635  0.1809  0.0958 -0.2851
13843W        W70084  23.051  34.006  19.392  0.0466 -0.2588  0.0120
13844W        W70085  23.658   6.376   1.134 -0.0353  0.0372 -0.1433
13845W        W70086   8.832   6.756   5.074  0.0765 -0.1595  0.1388
13846W        W70087   3.328  23.797   1.678 -0.1016 -0.1982  0.3831
13847W        W70088   9.679  19.315  10.180 -0.0170  0.2463 -0.2475
13848W        W70089  14.765  34.065  20.636  0.0312 -0.1490  0.3044
13849W        W70090  21.433  23.766  20.580  0.0072  0.1071 -0.0362
13850W        W70091  26.984  19.359  24.402 -0.2532 -0.0045  0.1181
13851W        W70092   8.433  11.298  11.336 -0.1838  0.1987  0.2173
13852W        W70093  26.787   2.953   2.375  0.0819 -0.1673  0.0069
13853W        W70094  27.023   2.974   3.358  0.0248  0.1217  0.4393
13854W        W70095   0.652  34.182  21.138 -0.2200 -0.1780  0.0462
13855W        W70096   2.755   4.564  17.284  0.0471  0.0418 -0.1182
13856W        W70097  15.147   6.466   9.567  0.2268  0.2457 -0.7491
13857W        W70098   8.811  14.043   7.189 -0.0660 -0.1534 -0.1068
13858W        W70099  25.826  10.049   0.400  0.0405  0.0843 -0.2806
13859W        W70100   8.340   8.146  13.629 -0.1476  0.0912  0.0133
13860W        W70101  21.921  20.076  22.168  0.2850 -0.1433  0.0025
13861W        W70102  32.410  10.689  21.796 -0.1641 -0.0254 -0.1190
13862W        W70103  34.804  25.368  17.577  0.0752  0.1618  0.2156
13863W        W70104   3.323  28.685   2.040 -0.2954  0.4123  0.2166
13864W        W70105  19.364  14.052   3.497  0.2627 -0.0247  0.1928
13865W        W70106  18.504  22.918   8.202 -0.0994  0.0650  0.1252
13866W        W70107   8.026  27.379  23.700  0.0692 -0.0340  0.0318
13867W        W70108   3.990  19.135  19.840 -0.1674 -0.0434  0.0343
13868W        W70109  32.520  13.183   0.435  0.1955 -0.2729 -0.0958
13869W        W70110  13.760  31.678   8.250 -0.0578 -0.1334 -0.1536
13870W        W70111   7.628  17.879   2.730  0.0546 -0.2316  0.1994
13871W        W70112  33.675   6.401  21.289 -0.0258 -0.2723  0.1172
13872W        W70113  13.335  24.399  24.927 -0.0038 -0.5026 -0.0614
13873W        W70114  20.945  20.219   5.703  0.1520 -0.1419  0.1496
13874W        W70115   9.125   5.495  22.208 -0.0103 -0.0834 -0.2056
13875W        W70116  34.421  13.885  14.124 -0.0532  0.3397 -0.4120
13876W        W70117   7.406   1.534   5.980 -0.1854 -0.1632 -0.2035
13877W        W70118  35.270  33.208   6.655 -0.0928 -0.0673 -0.3621
13878W        W70119   5.325   3.236  19.010 -0.1224  0.2910  0.2610
13879W        W70120  19.710  18.019  24.081  0.0663  0.1847 -0.3639
13880W        W70121   3.185  34.657  17.923 -0.0274  0.2671  0.1866
13881W        W70122  21.916  11.552  16.584 -0.0001  0.0239 -0.0799
13882W        W70123  18.176  34.187  22.593 -0.0577 -0.1275 -0.0393
13883W        W70124  10.173  24.074   2.136  0.1940  0.1509 -0.1547
13884W        W70125   9.034   9.459  23.442  0.0410  0.2944  0.1256
13885W        W70126  30.532  15.302  21.295  0.1762  0.0158 -0.2210
13886W        W70127   6.251   2.190  20.160  0.1267 -0.1391 -0.1077
13887W        W70128   9.554  19.994   9.092  0.0441 -0.0306 -0.0735
13888W        W70129   4.146  25.180  21.257  0.0542  0.1238  0.2796
13889W        W70130  28.085  23.682  20.945 -0.0866 -0.1919 -0.3680
13890W        W70131  26.994   5.552  12.424 -0.2063  0.1615  0.1731
13891W        W70132   2.162   5.347  17.520  0.0427 -0.1360  0.1358
13892W        W70133   2.466  15.878   0.527 -0.0351  0.1646  0.0692
13893W        W70134  16.695  30.176   4.035  0.0336 -0.4235 -0.0002
13894W        W70135  29.888  15.455   8.324  0.0300 -0.1464  0.0834
13895W        W70136  15.898  26.473   7.171  0.0164  0.4610  0.1048
13896W        W70137  12.071  23.321   2.859 -0.0410  0.1771 -0.1945
13897W        W70138   5.042  20.332  25.290  0.1372  0.1194  0.0321
13898W        W70139  32.836  11.531  24.566  0.0310  0.0096  0.4237
13899W        W70140  22.187   5.708  20.777  0.2097 -0.1284 -0.1552
13900W        W70141   0.847  19.446  11.411 -0.1846  0.3228  0.0858
13901W        W70142   1.638  33.686  19.101 -0.2075 -0.0224 -0.1104
13902W        W70143   3.297  24.604  24.889 -0.0816  0.1756  0.0573
13903W        W70144  30.877  12.572   7.860  0.0491  0.0038  0.0972
13904W        W70145  24.770   8.354  18.873 -0.0410  0.3219 -0.1717
13905W        W70146   8.339   7.119  13.461 -0.2544 -0.2446 -0.1352
13906W        W70147  13.947   1.348   5.828  0.3122 -0.1642 -0.0603
13907W        W70148  28.723   7.411  13.521 -0.0739  0.5020  0.1778
13908W        W70149   8.666   8.327  24.626  0.3161  0.4148 -0.5428
13909W        W70150  31.885  13.791  22.278 -0.2241  0.0290  0.1165
13910W        W70151  27.067  23.765   0.014  0.0164 -0.2747  0.3211
13911W        W70152  24.330  24.725  22.459  0.0811 -0.1634 -0.3316
13912W        W70153  30.887  19.879   0.430  0.3862 -0.2269  0.1765
13913W        W70154  21.241  24.835  24.923  0.1373  0.1547  0.1831
13914W        W70155   7.442  15.998   3.125 -0.2364  0.1448  0.1194
13915W        W70156  32.551  28.432  25.334 -0.1124  0.2805  0.0743
13916W        W70157  13.788  27.685  14.712  0.0788  0.0246 -0.3268
13917W        W70158   0.831  25.671  23.433  0.0213  0.1370  0.1033
13918W        W70159   6.648   1.031   7.499 -0.0648  0.0103 -0.2418
13919W        W70160   7.617  18.378   0.491  0.2555 -0.1168 -0.0287
13920W        W70161   5.804  14.539   9.982  0.0883  0.0537 -0.2640
13921W        W70162   8.160   8.499  19.475 -0.3285  0.1697 -0.0741
13922W        W70163  25.314   5.478  23.831 -0.0118 -0.1227 -0.4814
13923W        W70164  13.125   9.771   2.043 -0.0319 -0.1666 -0.0766
13924W        W70165  19.931  11.788   4.928 -0.1031 -0.0821  0.1331
13925W        W70166  14.874  13.129   5.480  0.0965  0.1856  0.0063
13926W        W70167  20.676  31.757  21.397 -0.2252 -0.0732  0.0853
13927W        W70168   6.128   7.429   4.353 -0.0883 -0.1296  0.0201
13928W        W70169  28.625  30.847  17.590 -0.3204 -0.0787 -0.2790
13929W        W70170  14.697   7.742  12.455  0.0951 -0.1583 -0.0836
13930W        W70171  32.508  30.775   4.170 -0.1956 -0.2584 -0.1829
13931W        W70172  29.035  27.476  12.704  0.0136  0.0930 -0.0516
13932W        W70173  19.480  13.261   7.915  0.0406  0.1124  0.0162
13933W        W70174  33.890  19.163   0.303  0.0876  0.2973 -0.0338
13934W        W70175  28.272  32.708   3.315  0.1604  0.0907  0.0583
13935W        W70176   5.095   9.434  23.466 -0.0301  0.1242  0.1468
13936W        W70177  12.869  24.335  23.834  0.0772  0.0362 -0.0450
13937W        W70178  26.964  22.196  15.305 -0.1933  0.2449 -0.1449
13938W        W70179  14.781   8.287  20.128 -0.2577  0.2605  0.1994
13939W        W70180   0.776  26.643  24.301 -0.2214 -0.1114 -0.0610
13940W        W70181  33.464  15.782  20.923  0.1540  0.2188 -0.0075
13941W        W70182  27.851   0.973  13.075  0.0556 -0.1252  0.1655
13942W        W70183  15.068   9.606   3.468  0.2352 -0.0841  0.1015
13943W        W70184   9.212  26.811  25.993 -0.0928 -0.1053  0.0428
13944W        W70185  10.927  25.323   5.361  0.0316 -0.0596  0.0671
13945W        W70186  17.849   0.649  18.719  0.2740  0.0645 -0.0110
13946W        W70187   8.074  18.691  20.225 -0.0850  0.2051  0.0771
13947W        W70188  28.362  17.528  19.106 -0.0414  0.0901  0.1057
13948W        W70189   2.152  24.405  23.819 -0.1771 -0.0429 -0.2491
13949W        W70190  27.690  26.626  12.179  0.0891 -0.2560  0.1853
13950W        W70191  31.154   3.609   3.124 -0.0009 -0.2610 -0.1432
13951W        W70192  21.318  23.644  24.548 -0.0266  0.0993 -0.0540
13952W        W70193  23.958  13.231  23.583 -0.2354 -0.0643  0.0109
13953W        W70194  28.578  15.241  13.821 -0.2913  0.3182  0.3259
13954W        W70195  27.527  16.853  16.303  0.2298 -0.0026  0.2373
13955W        W70196  17.611  11.755  26.146 -0.3020  0.1568 -0.0789
13956W        W70197  16.713  16.893  19.869 -0.0692  0.2329  0.2653
13957W        W70198  25.463   0.857  16.957 -0.0449 -0.0201  0.0611
13958W        W70199  26.922  29.973  13.487  0.1402 -0.3977 -0.2372
13959W        W70200  23.686  11.884   1.866  0.2969 -0.1360  0.3407
13960W        W70201   4.526  11.015  23.826  0.2257  0.0567  0.0655
13961W        W70202  19.276   0.035  21.628 -0.2474  0.1600  0.0883
13962W        W70203  18.774   3.825  24.983 -0.1893 -0.3465  0.4965
13963W        W70204  20.953  18.759   4.787  0.1328 -0.1712  0.2695
13964W        W70205  29.060  32.509  24.098 -0.0788 -0.0350 -0.2385
13965W        W70206  20.767   6.756  21.128 -0.0304 -0.0049 -0.0772
13966W        W70207   8.289  14.644   8.110  0.2280  0.0955 -0.0071
13967W        W70208  21.686  13.584  19.843 -0.2281  0.0031  0.1509
13968W        W70209   0.771  14.379  23.343  0.0847  0.2329  0.1081
13969W        W70210  18.053  18.213   7.742 -0.1517 -0.3184  0.4040
13970W        W70211  31.341   6.873  18.349  0.1601 -0.2024 -0.1582
13971W        W70212  10.722   6.762  24.055  0.1230 -0.1812 -0.0446
13972W        W70213   0.519  10.642   0.083  0.2989 -0.1762  0.0470
13973W        W70214   5.929  12.202   5.496  0.1859 -0.2064 -0.3104
13974W        W70215  34.147  11.792  17.338 -0.0327  0.0232  0.2514
13975W        W70216   6.829   2.626   3.681  0.1749 -0.0303  0.0320
13976W        W70217  20.183  11.692   7.749  0.0992 -0.1656  0.1867
13977W        W70218  17.694  28.011  23.140  0.0812 -0.1852  0.0723
13978W        W70219  31.865   7.130  11.955  0.0586  0.1478  0.2755
13979W        W70220  12.612   7.140  20.098  0.0284  0.2748  0.3061
13980W        W70221   9.637  24.200  16.931 -0.0003 -0.2053 -0.1089
13981W        W70222  10.109  29.900  14.580 -0.1048 -0.1015 -0.0780
13982W        W70223  22.941  10.072   0.673 -0.4176  0.1697 -0.1926
13983W        W70224  30.475   3.634  25.932 -0.0686 -0.1114  0.0539
13984W        W70225  22.553   8.942  21.907  0.0672 -0.1373  0.1073
13985W        W70226  19.836   6.427   5.038  0.1990 -0.2766  0.3147
13986W        W70227   7.306  29.143  10.021  0.0581 -0.0275 -0.1584
13987W        W70228  24.985  29.668  14.599  0.1422  0.0529 -0.0811
13988W        W70229  23.599  14.424  16.875  0.2469  0.1489  0.1602
13989W        W70230  32.496   0.381  12.759  0.1059  0.1712  0.1040
13990W        W70231  19.552   2.310  17.117  0.2054 -0.0929  0.1314
13991W        W70232   5.657  12.495  19.111  0.1388  0.0851 -0.2232
13992W        W70233  24.085  27.207   1.276  0.1045  0.0590 -0.0276
13993W        W70234  17.636  18.513   3.634 -0.1231  0.0349 -0.3445
13994W        W70235   3.516   2.469   6.312  0.1684 -0.0531 -0.0256
13995W        W70236   8.140   7.411   7.922  0.3390  0.2844  0.0808
13996W        W70237   5.961  20.365  24.220 -0.1547 -0.0289  0.1563
13997W        W70238   7.741  29.291   5.770 -0.1874 -0.1190 -0.0907
13998W        W70239  10.817  25.419  22.070  0.2063  0.1660 -0.3723
13999W        W70240  16.155  21.859   4.394 -0.2287 -0.0474  0.1122
14000W        W70241   9.724  24.161   3.157 -0.0290 -0.0382  0.3392
14001W        W70242   9.301   7.436  22.317  0.0520  0.0470 -0.3636
14002W        W70243  34.157  30.386  14.430  0.1707  0.1516  0.0665
14003W        W70244  23.604   9.386  22.589  0.1139 -0.0884  0.0160
14004W        W70245  28.158  19.445  15.686 -0.0019 -0.2425 -0.1784
14005W        W70246   6.655   5.467   8.525  0.0166  0.1359  0.2308
14006W        W70247   2.043  13.547   2.781 -0.1410 -0.1346 -0.0490
14007W        W70248  21.879   4.888   8.825 -0.1393  0.5789 -0.0146
14008W        W70249  31.567  33.863  25.147 -0.0983 -0.1528  0.0182
14009W        W70250  25.698   2.053   4.614 -0.0842  0.3346 -0.1249
14010W        W70251  13.572  29.463   9.132  0.1256  0.0055 -0.0727
14011W        W70252   3.773  17.606   1.302 -0.0988  0.0025  0.0498
14012W        W70253   6.240  15.956  24.372  0.3290  0.0089 -0.0641
14013W        W70254  26.146   9.790  12.260 -0.0945 -0.1068  0.0401
14014W        W70255   6.679  14.432   8.912 -0.0785  0.3847 -0.2549
14015W        W70256  16.099  30.968   8.453 -0.0574 -0.0107  0.1576
14016W        W70257   2.257   4.186  24.941 -0.1025  0.0502 -0.1524
14017W        W70258  21.171   3.148  21.741 -0.1204 -0.2326 -0.2262
14018W        W70259  28.542  24.428  22.078  0.2119  0.1759 -0.4284
14019W        W70260   8.657  30.430   7.677  0.0467 -0.1341 -0.1936
14020W        W70261  24.602  32.759  20.697  0.4922 -0.0970  0.0786
14021W        W70262  16.349   8.222  25.322  0.2239 -0.3404  0.1971
14022W        W70263  12.183  29.220  13.561  0.3593 -0.0468 -0.0907
14023W        W70264  30.684  21.555  24.594  0.1215 -0.0607  0.3571
14024W        W70265  14.401  10.218   0.236 -0.1383 -0.0914 -0.0199
14025W        W70266   3.975  24.801   6.444  0.2173 -0.1847 -0.2683
14026W        W70267  12.013  21.152  15.416  0.0770 -0.0893 -0.1574
14027W        W70268  11.295   6.641  24.812  0.2151 -0.0369  0.0018
14028W        W70269   9.079  14.488  24.093  0.0439 -0.0659 -0.0121
14029W        W70270  18.012   4.562  19.181  0.1116  0.3077  0.0691
14030W        W70271  11.812  35.170  25.119  0.0805  0.1957  0.0694
14031W        W70272  22.830  26.624  22.470  0.0622  0.3300 -0.1707
14032W        W70273  15.799  10.586  11.973 -0.2127  0.0609  0.3384
14033W        W70274  33.280   1.080  17.805 -0.0116 -0.1531  0.0281
14034W        W70275   4.819   0.297   0.245  0.2046  0.3908  0.2732
14035W        W70276  25.922   6.725  19.975 -0.1205 -0.1745 -0.0201
14036W        W70277  10.118  13.962   7.520  0.0446  0.0096  0.1058
14037W        W70278  20.647   4.587  15.994  0.1887  0.1015 -0.0941
14038W        W70279  18.873   8.305   2.186  0.0040 -0.1549 -0.0722
14039W        W70280  33.753  24.143  12.905  0.5059 -0.1817  0.1409
14040W        W70281  21.025  18.031   6.342 -0.1018  0.1547  0.3441
14041W        W70282  28.282  33.968   1.835 -0.0003  0.2456  0.6187
14042W        W70283  34.124  17.343  10.065 -0.0459 -0.1119  0.0923
14043W        W70284  15.069  28.536  12.103  0.0860  0.2378  0.1918
14044W        W70285  20.234   1.810   3.868 -0.0651  0.0583 -0.0885
14045W        W70286   2.411  26.947  18.415 -0.3672  0.2760  0.0515
14046W        W70287   3.163   9.840  20.750  0.0186  0.1612  0.2113
14047W        W70288  27.403   4.369  20.795 -0.0940  0.2262  0.0321
14048W        W70289   0.631   7.109  20.836  0.0296 -0.2740  0.0271
14049W        W70290  19.422  32.014  16.962  0.1603 -0.1301  0.2059
14050W        W70291  11.825   3.094   0.942 -0.1318  0.2046  0.0867
14051W        W70292  21.507   2.227  25.210  0.0793 -0.3483 -0.2015
14052W        W70293  22.820  23.691  22.267  0.0610 -0.1969 -0.4223
14053W        W70294  34.539   9.573  14.327 -0.2112 -0.1481 -0.1917
14054W        W70295  17.923  11.475  10.038  0.1112 -0.4981  0.0623
14055W        W70296   0.492  34.271  20.091 -0.1112  0.0023 -0.0126
14056W        W70297   8.060  11.208  22.713  0.1381  0.1840  0.1483
14057W        W70298  13.156  10.327   9.614 -0.0578 -0.1496 -0.0843
14058W        W70299  20.285  21.757  21.354 -0.1173  0.0231  0.0415
14059W        W70300  30.671  23.153  15.590  0.0123  0.1796 -0.1341
14060W        W70301  22.136  26.695   2.074  0.2324  0.1560  0.0193
14061W        W70302  18.767  25.861   0.710  0.0451 -0.1964  0.0016
14062W        W70303   7.050   4.370   5.705  0.1316 -0.1273  0.1971
14063W        W70304  19.752   5.476   1.903 -0.1500  0.1028  0.3295
14064W        W70305  27.717  16.120   7.939 -0.1037 -0.3154 -0.0565
14065W        W70306   3.102  23.349   4.169  0.1737  0.0182  0.2744
14066W        W70307  34.726   6.156  18.245 -0.0806  0.4528 -0.1215
14067W        W70308   6.189   4.995   0.656 -0.0184  0.3261 -0.0953
14068W        W70309  30.598  11.144  17.621  0.1196  0.1302  0.1943
14069W        W70310  35.095  27.909  17.589  0.0804  0.3953 -0.4636
14070W        W70311  10.855   7.962   7.259  0.0814 -0.4286  0.1191
14071W        W70312  10.838  32.225  21.434  0.2684  0.1741  0.0432
14072W        W70313  18.410  15.981   2.590  0.1583  0.1425 -0.2338
14073W        W70314  18.414  20.625  21.021  0.0458 -0.0728 -0.1295
14074W        W70315  18.110  29.325  23.646  0.1776 -0.1840  0.2976
14075W        W70316   5.221  17.233  22.174  0.1183 -0.7256  0.0226
14076W        W70317  35.256  34.040  22.467  0.2324 -0.0786  0.0260
14077W        W70318  15.699  26.000   0.779  0.1554  0.0577  0.0531
14078W        W70319  11.269   8.235   5.430  0.0257 -0.0190 -0.1512
14079W        W70320  11.048  11.170  22.519 -0.0770 -0.1107 -0.0652
14080W        W70321   3.014  21.962   3.107  0.0169  0.0459 -0.2052
14081W        W70322   9.715  32.861  21.595  0.0715  0.1511  0.3529
14082W        W70323   8.697   2.024   8.006 -0.4714  0.0823  0.0984
14083W        W70324   1.017  27.594  17.971  0.2797  0.4090  0.0299
14084W        W70325  12.902   4.750   6.241 -0.2238 -0.3025 -0.0326
14085W        W70326  10.440  10.970  24.327  0.1143 -0.0219 -0.1911
14086W        W70327  20.159  21.711   7.975  0.1123 -0.2023 -0.1053
14087W        W70328  34.648  20.393  23.860 -0.0466  0.2070  0.0121
14088W        W70329  32.729  32.088  17.476  0.0529  0.0356  0.0850
14089W        W70330  17.964  10.795  13.033 -0.0780 -0.1436 -0.3762
14090W        W70331  14.294   3.239  12.331 -0.0565  0.0742 -0.0831
14091W        W70332  21.092  33.961   6.798 -0.3965 -0.1959 -0.1913
14092W        W70333  11.633  24.383  23.678  0.3109 -0.1202 -0.0378
14093W        W70334  13.138  26.111   1.434  0.4332  0.0822  0.2036
14094W        W70335  29.623  28.663  22.403 -0.1362  0.2746  0.2170
14095W        W70336  30.136   4.680  18.775  0.1035 -0.0917 -0.1568
14096W        W70337  19.229  27.225   4.073  0.0416  0.2954 -0.0242
14097W        W70338  27.595  17.787  15.220  0.0374 -0.4774 -0.2144
14098W        W70339  18.494   5.841  11.489 -0.0422 -0.1148 -0.0088
14099W        W70340  30.708   7.174  15.288 -0.3000 -0.1257  0.2295
14100W        W70341   9.773   4.157  10.188  0.1666 -0.0875  0.0457
14101W        W70342   3.951  32.879  19.603  0.1042 -0.1460 -0.1886
14102W        W70343  13.468  19.617   5.868  0.0452  0.1748 -0.4552
14103W        W70344  18.262   1.660   2.859 -0.0307 -0.0380 -0.0188
14104W        W70345  15.027  35.090   1.139 -0.2302  0.2176 -0.2488
14105W        W70346   1.736   1.082   8.259  0.0156  0.3247  0.0867
14106W        W70347  15.296  19.220  23.425  0.2309 -0.2296 -0.1977
14107W        W70348  27.381  21.240  10.183  0.3785  0.1655 -0.2919
14108W        W70349  17.302   3.324  23.837  0.0490 -0.1340 -0.3307
14109W        W70350  27.031   2.753   2.795 -0.0533 -0.2069  0.1848
14110W        W70351  13.925  15.646   0.386 -0.1300  0.0488  0.1654
14111W        W70352  20.396  27.493   6.343 -0.2151 -0.0508 -0.1083
14112W        W70353  30.487  25.786  24.470  0.1949 -0.0694  0.0823
14113W        W70354  32.115   0.890   3.797 -0.1603  0.4320  0.0426
14114W        W70355  19.556   3.144   7.075  0.2457  0.0210 -0.0675
14115W        W70356  27.505  27.841  20.275 -0.1910  0.0198 -0.0184
14116W        W70357  32.672  31.677  21.584  0.0431 -0.0437  0.0985
14117W        W70358  21.701  21.735  15.632 -0.0756  0.0173 -0.1820
14118W        W70359   0.634  24.000  13.373 -0.1202  0.3122  0.0195
14119W        W70360  28.762  33.880  12.382 -0.1078 -0.0381 -0.0135
14120W        W70361   9.011  20.410  25.645  0.1715  0.2821  0.0466
14121W        W70362  21.175   7.598  17.587  0.2195 -0.0466  0.0733
14122W        W70363  18.644   0.289  24.262 -0.1141 -0.0003 -0.0534
14123W        W70364  10.013  28.313  22.153  0.0274 -0.0749  0.3292
14124W        W70365  30.318  29.608  14.264  0.2196  0.0082 -0.1935
14125W        W70366  30.721  29.837  15.214 -0.0225  0.0382  0.1311
14126W        W70367  22.824   9.653  15.544  0.1096  0.2638 -0.0977
14127W        W70368  29.110  25.491  21.946 -0.0513  0.1942  0.0490
14128W        W70369  13.818  11.971   6.286 -0.3253 -0.0008 -0.2476
14129W        W70370  26.914  13.835  19.767  0.1056  0.0008  0.0038
14130W        W70371  18.394  12.454  10.865 -0.0536  0.2625 -0.0599
14131W        W70372  16.223  28.948  22.873  0.0594  0.2913  0.1173
14132W        W70373  14.232  17.470   0.118 -0.1495 -0.1675  0.3057
14133W        W70374  27.404   4.324  11.276  0.0193  0.1807  0.4837
14134W        W70375  20.537   6.238   8.531 -0.0991  0.0988 -0.0276
14135W        W70376  29.194   2.612  17.480 -0.2510 -0.3789 -0.0929
14136W        W70377  33.266  21.010  23.556  0.0767 -0.2672 -0.0039
14137W        W70378  28.634  17.046  12.309 -0.0485 -0.0424  0.1474
14138W        W70379   6.866   9.751  19.182  0.0170 -0.0174 -0.3375
14139W        W70380   5.457  18.581   2.419 -0.1703 -0.1334 -0.0330
14140W        W70381  18.554  15.972   1.128 -0.0433  0.3156 -0.1266
14141W        W70382  17.063  23.935   3.957  0.1755  0.1729 -0.0435
14142W        W70383  32.450  19.730  16.042 -0.0032 -0.1560  0.1149
14143W        W70384   5.355   1.113  20.638 -0.0128  0.2478  0.0219
14144W        W70385  24.687   4.164  22.062  0.0335 -0.2073 -0.0764
14145W        W70386  24.232  32.098  12.196  0.1027  0.0028  0.0282
14146W        W70387   3.101  15.634  15.108 -0.0444  0.1700  0.0589
14147W        W70388  16.796  19.386   0.191  0.2257 -0.0364 -0.5162
14148W        W70389  33.872  18.368  15.834 -0.1308 -0.1893 -0.0956
14149W        W70390  14.274  13.668   7.279  0.0429  0.1451  0.1682
14150W        W70391   2.397   7.028  16.191  0.1079 -0.3061  0.3155
14151W        W70392  10.670  19.416  11.001 -0.1375  0.2281  0.0765
14152W        W70393  31.515  19.306  15.596 -0.4296  0.0032  0.3420
14153W        W70394  31.998  18.742  11.773 -0.1297  0.0309  0.1247
14154W        W70395  24.839  27.853   4.246 -0.0460 -0.0303 -0.1673
14155W        W70396   6.774  30.147  23.862 -0.1455  0.0803 -0.3029
14156W        W70397   7.527  10.126  19.720  0.0126 -0.0270 -0.2000
14157W        W70398   9.586  29.329   7.836 -0.2080  0.0851  0.1847
14158W        W70399  26.555   7.151   3.280 -0.1040  0.2411  0.0493
14159W        W70400  27.478  32.887  14.183  0.2344  0.0933  0.0514
14160W        W70401  17.089  13.455  22.783 -0.0935  0.0941  0.0948
14161W        W70402  27.481  17.592  23.153  0.4523  0.3579  0.0263
14162W        W70403   1.894   4.076  17.493  0.2743  0.0608 -0.2287
14163W        W70404  15.446  26.098  25.479  0.0565 -0.0182 -0.4316
14164W        W70405  19.242  15.487  19.648  0.0190  0.0134 -0.0781
14165W        W70406  23.266   6.747  21.925 -0.0009 -0.1263 -0.0016
14166W        W70407   5.511  21.604   0.865 -0.0822  0.0328 -0.2494
14167W        W70408  12.720  13.895   5.300  0.0727  0.0696 -0.3072
14168W        W70409  17.391  31.736   2.307  0.4541  0.4527  0.1891
14169W        W70410  34.891  21.109  22.568 -0.1574  0.1082  0.0700
14170W        W70411  11.834  17.258   2.181 -0.1130  0.2001  0.1537
14171W        W70412  28.933  14.354  21.504  0.0455 -0.0088  0.0152
14172W        W70413  20.998  27.555  23.280  0.1952  0.0246  0.3682
14173W        W70414   1.825  15.070   2.568 -0.0835  0.2221 -0.0842
14174W        W70415  35.347  11.892   2.512  0.2392  0.1331 -0.1608
14175W        W70416  23.679  23.672  23.999  0.0053 -0.2111  0.1649
14176W        W70417  21.824  21.494  19.706 -0.0418 -0.0385 -0.1745
14177W        W70418  13.751  22.849  15.136 -0.3678  0.0532 -0.1094
14178W        W70419  12.276  29.211   4.424  0.1897  0.0943 -0.1877
14179W        W70420  13.659  35.130   6.813 -0.1303 -0.5799 -0.1881
14180W        W70421   5.427  19.699   5.691 -0.2281  0.1381 -0.2788
14181W        W70422  26.514  27.127  17.630 -0.1700 -0.2526  0.1569
14182W        W70423  27.941  24.864  12.619  0.2431  0.2094 -0.1407
14183W        W70424  12.293  25.682  25.421 -0.2286 -0.0532 -0.2682
14184W        W70425  19.220  12.660   3.547 -0.1377  0.0185 -0.0069
14185W        W70426  28.471  10.052   6.597 -0.2484 -0.0009  0.1824
14186W        W70427   6.314  13.447  10.302 -0.1178 -0.3599  0.1319
14187W        W70428  29.311   3.624   4.725  0.1733  0.0987 -0.2401
14188W        W70429  31.584  29.690  13.187 -0.2769  0.3028  0.0166
14189W        W70430  11.480  14.507   2.150  0.1379  0.0024  0.2324
14190W        W70431   7.188  27.043  10.898  0.1828 -0.3134  0.2201
14191W        W70432  22.361   3.731  24.082 -0.2398 -0.3962 -0.0181
14192W        W70433  14.055   4.265  21.557 -0.2487 -0.1604 -0.1408
14193W        W70434  18.617  32.068  15.468 -0.0750  0.0981  0.0271
14194W        W70435  10.299  34.955   2.144 -0.1380 -0.0540 -0.3986
14195W        W70436   5.361  29.370  25.637 -0.0161  0.1535 -0.1384
14196W        W70437  20.413  18.420  22.189  0.1651  0.2736 -0.2262
14197W        W70438  12.018  11.959   6.573  0.3294  0.1849 -0.0176
14198W        W70439  26.059  32.101  24.554 -0.3020  0.2464 -0.1512
14199W        W70440  29.612  28.256  14.466  0.1345 -0.2259  0.0511
14200W        W70441  13.426  10.210  12.703  0.4255 -0.1017 -0.0887
14201W        W70442   6.551   7.610  22.544  0.0845 -0.0801 -0.0722
14202W        W70443  23.059  33.706  17.186 -0.0233  0.1394  0.1495
14203W        W70444   7.604   3.837   9.180 -0.0313 -0.2267 -0.0131
14204W        W70445   7.845   5.013   0.596  0.0745  0.0246 -0.2997
14205W        W70446   0.928  10.536  16.445  0.2066  0.1416 -0.1158
14206W        W70447   3.484  28.036   9.480 -0.1709 -0.0977  0.0333
14207W        W70448  17.154  15.534  20.088 -0.4732 -0.3900 -0.1090
14208W        W70449   7.488  11.667   9.995 -0.1597  0.3601 -0.0966
14209W        W70450  17.971   6.410  23.789 -0.0911  0.1478 -0.0742
14210W        W70451  15.823   5.040   5.137  0.0506 -0.0211 -0.2834
14211W        W70452   7.079  10.038  26.090  0.2270  0.3131 -0.0127
14212W        W70453  20.736   0.367  23.400 -0.2279  0.4796  0.0952
14213W        W70454   3.266  15.823   1.651 -0.4955 -0.0317  0.2714
14214W        W70455  22.802  22.963   3.650 -0.0454 -0.1727 -0.2883
14215W        W70456  25.979  21.011   0.012  0.0478  0.2324  0.4595
14216W        W70457  31.278   4.391  18.946  0.1280  0.1683 -0.0121
14217W        W70458  22.855  30.671  17.499  0.2508 -0.1009  0.0049
14218W        W70459   5.422  25.039   8.449  0.3268  0.0505  0.1659
14219W        W70460  24.486  28.158  14.000 -0.2642  0.2286 -0.0039
14220W        W70461  21.916  18.217  24.497  0.2087 -0.1480  0.2628
14221W        W70462  31.654  22.799   0.030  0.0356  0.0434 -0.1288
14222W        W70463  21.491  17.554   0.062  0.0411 -0.1451 -0.1235
14223W        W70464  27.408  17.293  15.256  0.0734  0.0179 -0.1098
14224W        W70465  12.324  11.524   1.813  0.1352  0.2658 -0.1790
14225W        W70466  15.182   0.349  18.606 -0.3406  0.4265 -0.0241
14226W        W70467  31.579  14.142  22.820 -0.1535  0.0655 -0.0870
14227W        W70468  17.982  25.294   2.621  0.1794 -0.0446 -0.0222
14228W        W70469  30.599   1.041  16.392 -0.2539  0.1317  0.2294
14229W        W70470  23.109   6.213   2.527  0.0754 -0.1247  0.0799
14230W        W70471  10.253  32.202  21.742  0.0114 -0.2050 -0.1563
14231W        W70472  15.941  34.344   9.020 -0.1353  0.3149  0.0592
14232W        W70473   4.756  31.568   1.594  0.1406  0.0630  0.0737
14233W        W70474  33.993  29.236  21.762 -0.3136 -0.1070  0.0070
14234W        W70475   7.746  17.222   7.449 -0.0749  0.0267  0.0104
14235W        W70476  18.660  16.044  11.065 -0.0079 -0.3810 -0.0141
14236W        W70477  18.481  25.961   4.050 -0.3025  0.0179 -0.0867
14237W        W70478  18.071  27.517  10.599  0.0795  0.0825 -0.1705
14238W        W70479   8.181  23.315   3.378  0.0555 -0.2288 -0.0264
14239W        W70480  14.443  29.544  23.063  0.5768 -0.1551  0.0577
14240W        W70481  34.541  31.200  14.869  0.0094  0.0409 -0.1187
14241W        W70482  13.936   8.706  23.863 -0.0718  0.3496  0.0345
14242W        W70483  24.931   4.313  11.798  0.1698 -0.2304  0.5019
14243W        W70484  13.714   0.323  25.825  0.2433 -0.1070 -0.0022
14244W        W70485   3.964   3.756   1.950  0.4076  0.0416 -0.1941
14245W        W70486  18.848  19.972  21.758 -0.0353 -0.2229 -0.2150
14246W        W70487   0.754  29.621   8.980  0.1057 -0.1709 -0.1993
14247W        W70488  23.738  12.881   2.131  0.2824 -0.0066  0.0271
14248W        W70489   1.864  13.040  20.947  0.1464  0.0499  0.2662
14249W        W70490   7.635  18.087   6.305  0.1807 -0.0543 -0.0556
14250W        W70491   4.514   1.213   0.022  0.0619  0.0375  0.2919
14251W        W70492   3.470  24.816   6.585  0.3300  0.2349 -0.0747
14252W        W70493  14.691  28.024  22.746 -0.2001  0.1198  0.3688
14253W        W70494  10.133  20.909  26.051 -0.0876 -0.0514 -0.1125
14254W        W70495  23.915  22.551  24.877 -0.1407 -0.3907 -0.2340
14255W        W70496  22.881  29.494  22.557  0.2765 -0.0766 -0.1478
14256W        W70497  18.244  22.794   3.160  0.0509 -0.1365  0.0067
14257W        W70498  10.224  24.294   9.928  0.1048 -0.1166  0.0174
14258W        W70499  12.458  19.867   6.900  0.0829  0.2905 -0.3016
14259W        W70500  28.333  20.537  25.906  0.2395 -0.1722  0.0350
14260W        W70501  18.739  15.783  19.781  0.0960 -0.1227  0.3273
14261W        W70502  17.622  21.951   4.517 -0.0640  0.1017 -0.1158
14262W        W70503  21.038  33.794   5.831 -0.2213 -0.0292  0.2677
14263W        W70504  34.416  31.029   0.772  0.3778  0.1554 -0.0306
14264W        W70505  16.890  12.570  19.458  0.0959  0.1176  0.1916
14265W        W70506   0.211  10.788  22.404 -0.4080  0.2272  0.1529
14266W        W70507   5.029  14.844  24.426 -0.2483  0.3405 -0.0401
14267W        W70508  21.238   6.926   6.951  0.0513 -0.0355 -0.1796
14268W        W70509  26.619  23.007  21.696  0.5640 -0.2069  0.0434
14269W        W70510  17.757  31.211  10.592  0.0063 -0.2947 -0.1410
14270W        W70511  23.251  34.865  15.481 -0.0223  0.0693 -0.0669
14271W        W70512  21.218  17.041  15.902 -0.2081  0.1441 -0.1442
14272W        W70513  31.052  28.778  13.380  0.0338 -0.0701  0.1482
14273W        W70514  27.412  20.250   7.964  0.0107 -0.1149  0.0128
14274W        W70515  27.355  10.759   6.503  0.1324 -0.1028 -0.0706
14275W        W70516  17.530  27.106  21.301  0.0354  0.3944  0.1635
14276W        W70517   1.694  16.573  21.695 -0.0801  0.3041  0.0004
14277W        W70518  34.509  12.930   0.546  0.1866  0.3259  0.1665
14278W        W70519  34.883   5.863   0.883  0.1171 -0.2282  0.2064
14279W        W70520   3.835   3.743   6.779 -0.3425 -0.1544  0.1568
14280W        W70521  11.265   3.670  26.026 -0.0591 -0.2573  0.0407
14281W        W70522   6.428  15.544   0.605 -0.0862  0.2785  0.0581
14282W        W70523  27.285  17.259  16.302  0.0608  0.0636  0.1360
14283W        W70524  25.143  25.069  15.386 -0.2272  0.2931  0.2486
14284W        W70525  14.138  28.270   4.312 -0.1244  0.0617  0.2792
14285W        W70526  31.811   4.940  16.783 -0.2931 -0.0872 -0.3671
14286W        W70527   5.214   9.791   0.494 -0.2412  0.1195 -0.3458
14287W        W70528   7.343  26.054   1.531 -0.0529  0.0417  0.1766
14288W        W70529  31.690   0.280  16.058 -0.3705 -0.3183 -0.1934
14289W        W70530  34.773  19.675   9.687  0.0505  0.1562 -0.1644
14290W        W70531  25.735   2.318  18.923  0.1588  0.2086 -0.1257
14291W        W70532  17.587   8.106   2.829  0.0125 -0.3767 -0.3258
14292W        W70533  26.483  27.833  18.824 -0.1271 -0.1317 -0.0371
14293W        W70534  15.327   5.321  12.148 -0.1599  0.2127  0.2795
14294W        W70535  13.550  14.019  18.932  0.0866 -0.0365 -0.2594
14295W        W70536  34.971  33.802   3.179  0.3560  0.2032 -0.3008
14296W        W70537   6.921  13.458   4.033  0.2166  0.1458  0.0770
14297W        W70538  30.495  25.819  20.212 -0.1977  0.2742 -0.0065
14298W        W70539  15.739  15.871  20.250 -0.0547 -0.0972  0.1524
14299W        W70540   3.496  34.705   4.954 -0.4208  0.2790  0.0636
14300W        W70541  22.933  10.819  26.030  0.0413 -0.1294  0.0065
14301W        W70542  16.716  18.800   1.983  0.0647 -0.0450  0.1573
14302W        W70543  19.800  30.252  26.154  0.1475 -0.4552  0.4344
14303W        W70544  32.564  31.676   5.088 -0.1694  0.0412  0.1816
14304W        W70545  10.474   8.422  10.206  0.0233 -0.3500 -0.0883
14305W        W70546  32.824  32.345   0.832  0.0251 -0.0238  0.1038
14306W        W70547   7.272   2.640  22.003 -0.0364 -0.1834  0.1056
14307W        W70548  10.846  13.349  19.604  0.3404  0.3773 -0.0851
14308W        W70549  24.418  14.334  19.893 -0.1415 -0.1497  0.1362
14309W        W70550   4.874   3.937  21.872 -0.2097 -0.1220  0.2239
14310W        W70551  17.259   6.635   0.483  0.1677 -0.0348  0.0730
14311W        W70552   3.328  17.743  15.823  0.0386 -0.1203 -0.0855
14312W        W70553   3.889  16.967  18.131 -0.2091 -0.1210 -0.0493
14313W        W70554  35.326  28.326  17.753 -0.0918  0.3828  0.1799
14314W        W70555  32.437   8.676  20.340  0.2354 -0.1103 -0.2518
14315W        W70556  20.742  32.674  26.143 -0.1615  0.0570  0.0325
14316W        W70557  24.491  27.324  15.811 -0.0914 -0.2442  0.1944
14317W        W70558   6.635  35.138   8.639  0.0486  0.0564  0.1547
14318W        W70559  23.357  26.532  19.171 -0.1627 -0.1628  0.0280
14319W        W70560  29.635   2.171   0.503  0.0330  0.0165  0.1044
14320W        W70561  15.671  20.589  13.838  0.0957  0.0033  0.0171
14321W        W70562  24.520  23.718  10.906 -0.1269  0.1680  0.0431
14322W        W70563  23.853  21.442  25.086 -0.1797  0.0717  0.1013
14323W        W70564  28.718  22.339  24.919 -0.0840 -0.1500 -0.0113
14324W        W70565  33.900   5.826   4.836 -0.1565  0.2923 -0.1067
14325W        W70566   0.183  12.227  22.054 -0.3365  0.2588  0.0752
14326W        W70567  32.895   9.064  19.712 -0.0771 -0.0253  0.0273
14327W        W70568  13.920  22.532   4.305 -0.0040 -0.0946  0.4217
14328W        W70569   7.387  32.531   0.500  0.2474 -0.2150 -0.2895
14329W        W70570  33.668  17.077   8.959 -0.0575  0.4951 -0.2674
14330W        W70571   1.074  13.963  15.753  0.3626  0.2828  0.1517
14331W        W70572  18.096  14.113   4.941  0.1417  0.0609 -0.1336
14332W        W70573  21.607  17.028   4.662 -0.1676 -0.0065 -0.2566
14333W        W70574   0.309  20.763  13.220 -0.0896  0.0477 -0.1257
14334W        W70575   2.873  23.329  22.180 -0.2164 -0.1842 -0.0805
14335W        W70576  12.080  14.457   4.797  0.1223  0.0510  0.0851
14336W        W70577  25.107   4.742   1.203  0.3176 -0.0915 -0.0764
14337W        W70578  31.666  26.988   2.235  0.0346 -0.1617 -0.1619
14338W        W70579  21.254  28.419   5.290 -0.0310  0.3351  0.1854
14339W        W70580   7.838  23.952  15.503  0.1246 -0.3569 -0.1709
14340W        W70581  24.399  10.142  25.249  0.0976  0.0918  0.0044
14341W        W70582  26.615   4.971   4.165 -0.0897 -0.1659 -0.1590
14342W        W70583  30.727  25.364  12.432 -0.0380 -0.0190  0.2434
14343W        W70584  21.235   3.190   6.252  0.0794  0.0858  0.2265
14344W        W70585  17.955  12.339   9.803  0.0797 -0.2504  0.1103
14345W        W70586   1.644  29.656  17.971  0.1033 -0.1862 -0.1251
14346W        W70587  10.621  30.545  16.153  0.2981 -0.0989 -0.1487
14347W        W70588   4.544   1.310  21.633  0.0691 -0.3575 -0.0109
14348W        W70589   5.558  26.740   1.412  0.0121  0.1516 -0.2540
14349W        W70590   6.955  26.163  14.815 -0.1825  0.1793 -0.1801
14350W        W70591  24.879  33.308  15.016  0.1575  0.0157  0.1206
14351W        W70592  25.426  27.384  10.801 -0.0186 -0.3241 -0.1180
14352W        W70593  20.799  35.247  25.138 -0.0755  0.0555  0.3351
14353W        W70594  11.431  11.892  19.381  0.2089  0.4256 -0.0051
14354W        W70595   3.838  12.390   4.506  0.0422 -0.0793  0.1243
14355W        W70596  12.553  31.320  23.230  0.0152 -0.0050  0.1365
14356W        W70597   3.075   4.448   6.427  0.2356 -0.3313 -0.0445
14357W        W70598  34.154   8.678  21.594 -0.2558  0.0711 -0.2360
14358W        W70599  32.979   1.701  12.855  0.1829  0.1628  0.1454
14359W        W70600   9.770  25.183  22.427 -0.4215 -0.2270  0.0358
14360W        W70601  34.768   5.407  14.531 -0.3339  0.1751 -0.1684
14361W        W70602  11.406   0.508  21.457  0.2819 -0.1063  0.0912
14362W        W70603   8.858  12.130   4.542  0.1041 -0.2842 -0.0547
14363W        W70604  11.832  22.379   6.359  0.1898 -0.0583 -0.1691
14364W        W70605  20.347  17.670  19.104  0.0785 -0.2800  0.0935
14365W        W70606  15.025  26.458   7.043 -0.0344  0.0700  0.3248
14366W        W70607  25.436  24.287  17.410 -0.1325  0.0072 -0.1338
14367W        W70608  14.518  30.577  14.940 -0.1064  0.0617 -0.1672
14368W        W70609  15.651  18.534  26.110  0.3295  0.0274 -0.3413
14369W        W70610  17.416  16.515   1.646  0.0456 -0.1757 -0.3122
14370W        W70611  14.318   9.973   4.050  0.1214  0.3423  0.0933
14371W        W70612  22.907   7.496  22.876  0.0157  0.3361 -0.0346
14372W        W70613  30.380  20.510  17.470  0.1213 -0.2633 -0.0445
14373W        W70614   6.335   1.520  11.028  0.1797 -0.0038 -0.2323
14374W        W70615  25.926  19.752  20.823 -0.0331 -0.0882 -0.0990
14375W        W70616  24.860  33.958   2.351 -0.2872 -0.1803 -0.0506
14376W        W70617   7.617  24.312   7.631 -0.0236 -0.0188 -0.0739
14377W        W70618  25.263   9.840  24.799  0.1847  0.1414 -0.0756
14378W        W70619   7.195  11.026  19.370 -0.0491 -0.1440  0.5766
14379W        W70620   3.016   9.333  19.279  0.0074 -0.3841  0.0954
14380W        W70621  25.601   1.699  25.110  0.0918  0.1620  0.2888
14381W        W70622   5.903  22.071   0.316 -0.1562  0.0878  0.1193
14382W        W70623  20.045  14.834  21.395 -0.3622  0.1583 -0.2649
14383W        W70624  27.880  32.324  21.962  0.0792  0.0006  0.2076
14384W        W70625  21.099  29.184   0.657  0.0905 -0.1334  0.1609
14385W        W70626   5.216   5.108   7.061 -0.1999 -0.1093  0.1316
14386W        W70627   8.884  28.134  23.460 -0.0396 -0.1469  0.1967
14387W        W70628  28.704   9.127  10.054 -0.1309 -0.2344 -0.1541
14388W        W70629  17.181  17.925   5.299 -0.3071 -0.2171  0.4354
14389W        W70630  28.086   2.317  20.286 -0.0174  0.3227  0.1529
14390W        W70631  23.047  24.214  17.177  0.3413 -0.0451 -0.2516
14391W        W70632  23.588   6.050   1.935  0.2595 -0.2221 -0.0676
14392W        W70633   0.787  26.610   0.208 -0.2561  0.0498  0.0398
14393W        W70634   2.496  16.099  22.708 -0.2007  0.4262 -0.1162
14394W        W70635   5.676  30.933  23.636 -0.3501  0.2193 -0.1450
14395W        W70636  13.419   0.425   0.807 -0.0056  0.2666  0.1972
14396W        W70637   4.176  34.487  10.346  0.0316  0.2592  0.1937
14397W        W70638  14.848  30.746   9.153  0.1274 -0.0861  0.4085
14398W        W70639   4.996  19.597   5.384  0.1411 -0.2761  0.0388
14399W        W70640  27.813   7.476  10.677 -0.0298 -0.0058 -0.1940
14400W        W70641   8.419  10.740  11.501  0.2645 -0.3619  0.2510
14401W        W70642  23.785  34.638  16.247  0.1322 -0.0306  0.0549
14402W        W70643   3.771   8.385   1.092 -0.3618 -0.1850 -0.0500
14403W        W70644  26.563  24.348  23.789 -0.1619  0.1203 -0.0535
14404W        W70645   5.609  26.087  11.888 -0.0312 -0.2605  0.0920
14405W        W70646  16.069  27.837   4.214  0.2363 -0.1870  0.3058
14406W        W70647  24.343  10.386   1.861 -0.1807 -0.0629 -0.1220
14407W        W70648  15.521  18.006  20.388 -0.1178 -0.1786 -0.2388
14408W        W70649   6.576  20.727   6.254 -0.1711 -0.1516  0.2077
14409W        W70650  25.502   6.432  18.189 -0.1636 -0.3924  0.0875
14410W        W70651  24.732  15.570  15.313 -0.0637  0.1603  0.3098
14411W        W70652  21.598  34.395   7.346  0.0793  0.1359  0.0991
14412W        W70653  20.499   4.802  19.754 -0.3051  0.0447  0.0434
14413W        W70654  13.311  11.718  12.147  0.3734 -0.1661 -0.1009
14414W        W70655  13.384   6.281  19.818 -0.0591  0.0052 -0.0117
14415W        W70656   5.259  34.510   5.828  0.0707 -0.0308 -0.1590
14416W        W70657  31.696  21.998  14.700 -0.3656 -0.0220  0.0741
14417W        W70658  19.612  16.187   6.551  0.0271 -0.1704  0.2037
14418W        W70659  11.793  29.921   2.152  0.2121 -0.1715  0.1516
14419W        W70660  19.800   1.714  25.498  0.4282 -0.2221  0.4761
14420W        W70661   8.787  27.651  23.386  0.1983 -0.3066  0.4377
14421W        W70662  32.876   0.787   2.559 -0.0335  0.0566 -0.0037
14422W        W70663  17.972  16.853   4.844 -0.1496 -0.0410 -0.0507
14423W        W70664  31.746  31.640  13.489 -0.1168  0.0629  0.3843
14424W        W70665  21.393  19.523  25.555  0.0646 -0.1952  0.1752
14425W        W70666  22.070  25.864  19.803 -0.1638  0.2612  0.1210
14426W        W70667  16.435  26.712  22.072  0.1190 -0.0448 -0.2522
14427W        W70668  22.901   6.620  15.861  0.4295  0.1737 -0.2497
14428W        W70669  24.539   9.298  25.715 -0.0698 -0.2880  0.0863
14429W        W70670  20.686  22.348  25.389  0.0597 -0.0867  0.1361
14430W        W70671  29.133  28.652  20.905 -0.0156 -0.0989 -0.1780
14431W        W70672  30.978  32.019  19.747  0.0533  0.0320 -0.2726
14432W        W70673  29.022   2.786  14.024  0.1460 -0.0038  0.2328
14433W        W70674   4.998   7.301  24.344 -0.2371  0.0948 -0.0161
14434W        W70675   6.962   5.350  10.001  0.3098  0.2099 -0.1210
14435W        W70676  14.093   0.840  19.423 -0.2664  0.0351  0.0626
14436W        W70677  21.446  29.384  24.881  0.2130  0.2346  0.3033
14437W        W70678  11.841  33.166   8.823 -0.3050  0.4448 -0.1551
14438W        W70679  30.228  27.137  11.729  0.1994  0.1700 -0.0655
14439W        W70680   2.101  11.788   3.034  0.0236 -0.1162 -0.0144
14440W        W70681  27.443   3.862   3.274 -0.3723 -0.0930  0.0813
14441W        W70682  22.466  23.850  14.300  0.0786 -0.0923  0.3178
14442W        W70683   2.859  17.719  23.410  0.1684 -0.2126 -0.2490
14443W        W70684  29.404  34.388  26.156 -0.0734  0.0566  0.3532
14444W        W70685  14.061  23.708  15.024 -0.0488  0.1273  0.1502
14445W        W70686  19.231   7.269   6.741 -0.1493 -0.0322  0.0435
14446W        W70687  26.946  11.328  10.465 -0.1414 -0.1106  0.3767
14447W        W70688  16.537  12.190  21.178  0.0031 -0.2889 -0.1524
14448W        W70689  19.975  21.394  24.784  0.0114  0.1026  0.3001
14449W        W70690  33.567   6.140  13.924 -0.0449 -0.0943 -0.2977
14450W        W70691   6.776  20.727  11.461  0.1171 -0.1654 -0.0368
14451W        W70692   1.235  30.941  22.506 -0.3012  0.3981 -0.1259
14452W        W70693   9.431   1.525  11.861  0.1719  0.0616  0.0280
14453W        W70694   4.702   0.337   5.520  0.2378  0.1325  0.2982
14454W        W70695  23.216  34.333  17.955  0.2564  0.0083  0.2364
14455W        W70696  22.206   0.274   5.234 -0.1014 -0.3055  0.1176
14456W        W70697  11.158  27.857  12.355 -0.1075 -0.1358  0.4067
14457W        W70698  22.896  21.622  16.112  0.0200  0.2099 -0.2236
14458W        W70699  14.837  18.973  10.941  0.0548 -0.1048  0.1010
14459W        W70700   7.274  29.965   2.116  0.2143  0.1447 -0.1098
14460W        W70701   8.989  23.757   2.739 -0.3194 -0.2310 -0.2440
14461W        W70702  12.331   3.794   9.240 -0.0001 -0.1340  0.1215
14462W        W70703   8.275   1.355  26.139 -0.0415  0.0408 -0.1187
14463W        W70704   7.957   7.489  19.956 -0.1638 -0.0191 -0.5307
14464W        W70705   0.710  27.534   4.545 -0.0385  0.1252 -0.1190
14465W        W70706  24.138   8.028  12.736 -0.1394  0.1204 -0.0730
14466W        W70707  10.566  34.291  24.981 -0.0117  0.1383  0.1468
14467W        W70708  12.202  12.371   6.317  0.0324 -0.1818 -0.1018
14468W        W70709   7.856  31.500   9.133 -0.0689  0.2306  0.1044
14469W        W70710  19.668   0.396  24.701 -0.2028 -0.1971 -0.2772
14470W        W70711  31.830   5.323  23.792  0.0914  0.2310  0.0806
14471W        W70712   9.165  13.464  23.950 -0.2607  0.1661 -0.3774
14472W        W70713  20.458  30.558   3.430 -0.0606  0.1678  0.1466
14473W        W70714  12.266  20.634   1.093  0.0907 -0.0367  0.0997
14474W        W70715  34.682  19.885  16.222  0.1528 -0.1310  0.0378
14475W        W70716  16.327  21.793   6.551  0.2970  0.1135  0.1264
14476W        W70717  30.323  16.460  23.334  0.2338 -0.2733  0.2528
14477W        W70718  31.837  13.164  16.033  0.5461 -0.0310  0.1428
14478W        W70719  15.880  33.376   7.187  0.0874  0.1348  0.1327
14479W        W70720  31.395  34.081  21.787 -0.2263 -0.0270  0.0339
14480W        W70721   8.618  12.846   9.799 -0.4163 -0.1506  0.1033
14481W        W70722  20.663  19.426  17.876 -0.2917  0.0146  0.0340
14482W        W70723   8.490  25.287   5.804  0.2394 -0.1973 -0.2547
14483W        W70724   7.395  29.993  21.650 -0.5681 -0.1297 -0.1904
14484W        W70725  26.806   4.431  13.684  0.0049 -0.1364  0.1204
14485W        W70726  18.943  26.098   6.708 -0.0010  0.1789 -0.2154
14486W        W70727  29.685  16.039   9.322 -0.1415 -0.1556 -0.0225
14487W        W70728  31.576  23.183  14.293  0.1561  0.0003  0.0719
14488W        W70729  27.235  14.112   8.929  0.0581 -0.0055 -0.0991
14489W        W70730   7.881  12.913  26.055 -0.0236  0.0884 -0.0416
14490W        W70731  16.257  20.399   7.495  0.0516 -0.3427  0.1405
14491W        W70732   9.184  11.404  18.612  0.2588 -0.0248 -0.1250
14492W        W70733  11.540  13.947  25.292  0.0043  0.1420  0.0476
14493W        W70734   4.582  32.158  25.180 -0.2083  0.0082 -0.0606
14494W        W70735  23.829  11.073  17.368 -0.1048  0.0414  0.1274
14495W        W70736  22.633   9.114  21.422  0.0265  0.1733 -0.0433
14496W        W70737  14.887  26.220  15.684  0.1539 -0.1818 -0.3088
14497W        W70738  21.929  33.839   5.991  0.1813  0.0154  0.0082
14498W        W70739  33.680  14.589  23.907  0.0360 -0.1634  0.1586
14499W        W70740  16.103  13.353   5.222 -0.0117  0.1664 -0.1604
14500W        W70741  19.957  18.254   2.630  0.0780 -0.0305  0.2919
14501W        W70742   8.364  34.074  25.728 -0.0090  0.0123  0.1670
14502W        W70743  12.281  21.664  11.524 -0.0626  0.0746 -0.1614
14503W        W70744  19.622  23.255  11.122 -0.4666  0.0359  0.1265
14504W        W70745  11.006   7.959   4.471  0.1998  0.3339  0.2399
14505W        W70746  12.458  35.338   9.238 -0.0980  0.0186  0.0069
14506W        W70747  34.664  11.379  12.041  0.1149  0.1029  0.3430
14507W        W70748  30.912  32.889   1.783 -0.1595 -0.1449 -0.1911
14508W        W70749   0.864  26.800   5.078  0.2277  0.0339 -0.0169
14509W        W70750  20.485  32.251   5.251  0.1499  0.3047  0.0011
14510W        W70751   5.915  33.570   7.856 -0.1017  0.1438  0.2681
14511W        W70752   8.389  14.147  25.015  0.0076  0.1902 -0.2296
14512W        W70753  21.443  18.710   0.521 -0.1162  0.2750  0.1453
14513W        W70754   4.835   0.378  25.973 -0.1346 -0.1300 -0.1210
14514W        W70755  11.383  21.073  10.160  0.0274 -0.2139  0.1761
14515W        W70756  15.748  23.815  23.935  0.0935 -0.0539  0.0006
14516W        W70757  35.146  15.380  15.142  0.4422 -0.0529  0.2292
14517W        W70758  23.160  31.366  12.570  0.0046  0.4469  0.1097
14518W        W70759  12.409   0.554  20.559  0.1191 -0.1628  0.2065
14519W        W70760  20.749   0.162  22.900 -0.0058 -0.2743 -0.0306
14520W        W70761   2.307   5.954   4.892 -0.3496 -0.1139 -0.0487
14521W        W70762  12.688  17.776   6.485 -0.0536 -0.0523  0.0991
14522W        W70763  34.856  13.227   8.599 -0.1575 -0.2793  0.1639
14523W        W70764   2.618  22.553  24.235  0.0505  0.3898 -0.2478
14524W        W70765  14.602   3.227  23.402 -0.0902 -0.3079 -0.0292
14525W        W70766  34.663  34.006   3.933 -0.0731 -0.4207 -0.1393
14526W        W70767  11.992  10.701   0.633  0.2774 -0.0481  0.0237
14527W        W70768  33.219  29.505  12.608  0.0829 -0.2331 -0.0768
14528W        W70769  30.067  17.242  18.275  0.2600  0.2866 -0.1010
14529W        W70770  13.567  31.819  21.356  0.0866 -0.1107  0.0923
14530W        W70771  19.012  18.860  18.265  0.3733 -0.1210  0.1619
14531W        W70772   9.285  14.653  26.081 -0.2522  0.0775 -0.2367
14532W        W70773  28.884  30.040  20.083 -0.2379 -0.0540  0.2194
14533W        W70774  19.856  12.101  16.993  0.0184  0.0995  0.0526
14534W        W70775  13.569  25.029  12.170 -0.2481  0.1718 -0.1680
14535W        W70776  27.639  24.405  13.408 -0.1425 -0.1166 -0.0169
14536W        W70777  28.560   9.963  24.873  0.0608  0.1376 -0.2738
14537W        W70778  15.478   9.592  24.446  0.1275  0.1533 -0.1557
14538W        W70779  14.853   4.931  11.165 -0.3604  0.0246  0.2054
14539W        W70780   7.784  14.411   5.579 -0.4037  0.2561 -0.3098
14540W        W70781  34.835  34.226  16.493  0.1198  0.0561 -0.0318
14541W        W70782   3.379  28.817   2.645 -0.1963 -0.2543 -0.0679
14542W        W70783  17.516   0.902  22.347  0.1799  0.0835 -0.3668
14543W        W70784   1.495  10.476  18.468 -0.0078 -0.3614  0.3646
14544W        W70785  29.683  16.579  20.963  0.1244  0.1551 -0.2386
14545W        W70786  27.170  19.957  19.989  0.1444 -0.0749  0.1224
14546W        W70787  19.536  17.475  20.636  0.5814 -0.2039  0.3010
14547W        W70788   4.738   3.711   9.830 -0.1232 -0.1714 -0.1780
14548W        W70789  33.655  19.084  25.977 -0.2851 -0.0717  0.1992
14549W        W70790  24.111  10.370  12.319 -0.0013 -0.1991 -0.1149
14550W        W70791  33.709   5.669  19.897  0.1634  0.1629  0.0009
14551W        W70792  21.062   9.086   2.739  0.0893  0.1134 -0.0744
14552W        W70793   7.185  35.329  21.134  0.1568  0.0097  0.1482
14553W        W70794  22.790   0.730  26.228  0.0045 -0.3476 -0.1931
14554W        W70795  12.543   3.900  11.346  0.0372 -0.1357  0.0179
14555W        W70796  26.691  20.915  13.163 -0.1577 -0.0887  0.0162
14556W        W70797  22.506  15.802  16.493  0.3241  0.2375 -0.1362
14557W        W70798  29.740   1.278  15.177  0.1782 -0.4979  0.0105
14558W        W70799  20.320   5.731  25.977 -0.0783  0.1723  0.1810
14559W        W70800  12.702  21.375   4.187  0.0895  0.2949 -0.0367
14560W        W70801   2.683  13.621  19.230 -0.1436 -0.1666  0.2001
14561W        W70802   7.104  33.276   8.964  0.0385 -0.0983 -0.0349
14562W        W70803  33.888  32.736  20.843  0.2301 -0.3466 -0.1957
14563W        W70804  13.339  26.944  13.648 -0.0315 -0.0685 -0.1560
14564W        W70805  33.235  16.294  10.494  0.1574  0.2677  0.1994
14565W        W70806  14.390  32.787  20.882  0.0944 -0.1035 -0.2701
14566W        W70807  28.922  30.908   2.954  0.4068  0.2606 -0.2357
14567W        W70808   7.127  28.427   6.397  0.1077 -0.0218 -0.1009
14568W        W70809  27.297   2.288   0.859  0.2806 -0.1125 -0.1743
14569W        W70810  23.905  14.723   1.272  0.0597  0.3043  0.4423
14570W        W70811  31.408   5.570  19.540  0.2019 -0.0681  0.1730
14571W        W70812   7.362  16.490  19.525  0.3335  0.0628 -0.0238
14572W        W70813  22.843  28.026   1.868  0.1654 -0.2830  0.0222
14573W        W70814  25.586  28.128   9.893  0.0566  0.1103  0.2269
14574W        W70815   9.112  18.131   9.368 -0.1859  0.1874 -0.1055
14575W        W70816  31.132   2.761  13.141 -0.0131 -0.2618  0.1234
14576W        W70817  17.025  15.171  21.339  0.1154  0.1014 -0.2670
14577W        W70818   6.256  33.316  24.167  0.0678 -0.0928 -0.0866
14578W        W70819  13.063  16.549  24.142  0.3280  0.0286  0.0388
14579W        W70820  10.925  15.980  13.446  0.1126  0.1115  0.3398
14580W        W70821  14.404  19.685  11.721  0.0403  0.1675 -0.3679
14581W        W70822  21.128  32.696  15.974 -0.1291  0.1418 -0.0253
14582W        W70823  20.929  29.174   2.046 -0.0903  0.4213  0.0229
14583W        W70824  22.591  13.741  16.344  0.2084 -0.0276 -0.2028
14584W        W70825   2.121  12.022  16.615 -0.4374 -0.0266  0.1403
14585W        W70826  32.781  10.662  20.287 -0.1165 -0.0898 -0.0498
14586W        W70827  32.517   8.115   0.444 -0.1703 -0.2651  0.2074
14587W        W70828   8.596   4.809   9.218  0.2166  0.1581 -0.1497
14588W        W70829  17.523   5.310  21.366 -0.1386 -0.0094  0.1298
14589W        W70830   9.788  13.518   8.491 -0.0473  0.1875 -0.3385
14590W        W70831  34.488  34.991  22.279 -0.2529  0.2519 -0.2351
14591W        W70832  15.983  19.209   1.782 -0.0241 -0.0202 -0.2642
14592W        W70833  28.186  23.979  14.342 -0.1546  0.0350 -0.1783
14593W        W70834  17.895   0.776   8.879 -0.1757 -0.1994  0.0058
14594W        W70835  19.745   3.555  16.629  0.2102  0.1378  0.1768
14595W        W70836  13.842   5.933  13.119 -0.0262 -0.0230  0.1066
14596W        W70837  34.155  14.423  17.949  0.0533 -0.1309 -0.1744
14597W        W70838  30.850  15.924  13.094 -0.2310  0.0963 -0.0303
14598W        W70839  24.996  26.952   9.666 -0.2253 -0.1380  0.1836
14599W        W70840  21.454  34.944  19.499 -0.2361  0.4105 -0.1260
14600W        W70841  33.623  31.751   7.025  0.0291 -0.1436 -0.1237
14601W        W70842  15.150  20.958  23.901  0.1482 -0.0231 -0.1774
14602W        W70843  28.111   8.100  16.766 -0.3171 -0.1333 -0.2049
14603W        W70844  27.227  33.173  18.397  0.0901  0.0852  0.1709
14604W        W70845  12.709   7.636  13.489 -0.0275 -0.1471  0.1472
14605W        W70846  11.266  30.381   8.023 -0.2892  0.1700 -0.1919
14606W        W70847  26.002  23.986  21.200 -0.2240 -0.0339  0.0554
14607W        W70848  19.418   9.441  19.072 -0.0856  0.2262  0.0504
14608W        W70849  11.318  11.128  13.439 -0.0703  0.0696 -0.0322
14609W        W70850  26.190   5.904  17.639  0.1682  0.0937 -0.2343
14610W        W70851  10.386  10.840  12.451  0.3942 -0.2053 -0.1490
14611W        W70852  23.256   0.347  24.503  0.2860 -0.0667 -0.3839
14612W        W70853  23.743  15.307  16.463 -0.1220 -0.0974  0.1327
14613W        W70854  25.872  14.540  26.055 -0.1538  0.1169  0.0359
14614W        W70855  30.244  24.225  15.992  0.0727 -0.0120 -0.2084
14615W        W70856  34.633  23.009  25.639  0.4258  0.2063  0.1028
14616W        W70857  29.307  13.444  23.018 -0.2034 -0.0282  0.1170
14617W        W70858   5.719   7.499  17.949 -0.1486 -0.2487  0.3626
14618W        W70859  32.655  17.325  20.258 -0.2226  0.0395 -0.1653
14619W        W70860  15.383  30.575   9.912 -0.0347 -0.0088 -0.1890
14620W        W70861  24.300   6.106  13.469  0.0076  0.0440  0.1328
14621W        W70862  34.165   2.873  22.557  0.0985  0.1712  0.0369
14622W        W70863   7.871  17.529   4.147  0.0700 -0.1680  0.0274
14623W        W70864  20.418  14.132  24.101 -0.1925 -0.3271  0.0421
14624W        W70865   8.449  19.379   2.032  0.1271  0.2452 -0.0412
14625W        W70866  13.392  14.747  25.421 -0.1786 -0.0379  0.3150
14626W        W70867   7.716  15.717  19.827 -0.1355 -0.0580 -0.0668
14627W        W70868  16.920  13.358  20.531  0.0190  0.1771  0.2600
14628W        W70869   6.618   0.634   1.833 -0.0365  0.2232 -0.2355
14629W        W70870  32.207  13.466  22.803 -0.0775  0.1383 -0.1856
14630W        W70871  26.091  15.158  23.152  0.6052 -0.1565  0.1650
14631W        W70872  29.228  21.857  23.623  0.4279  0.2009 -0.0384
14632W        W70873  22.633  31.631  17.315  0.1112  0.2748 -0.0608
14633W        W70874  22.671   7.200  24.607 -0.1034  0.2190 -0.0639
14634W        W70875  15.413  31.318   1.301 -0.1946 -0.0489  0.0291
14635W        W70876  23.952  22.368  20.088 -0.0279  0.1165  0.0732
14636W        W70877  26.975  33.920  20.775  0.1073 -0.1406 -0.1128
14637W        W70878  11.925   5.299   1.238  0.1581  0.0051 -0.1069
14638W        W70879  11.199  32.892   6.938 -0.2064 -0.2680 -0.0027
14639W        W70880  10.732   4.830   8.636  0.0170  0.0690  0.0732
14640W        W70881  11.881  30.047  16.842 -0.0151  0.0766 -0.0655
14641W        W70882  27.096  22.633  17.091  0.2133  0.0974  0.4572
14642W        W70883  25.640  17.323  24.597  0.1162  0.1325 -0.0097
14643W        W70884  11.772  14.680   2.509  0.0689 -0.2438  0.0041
14644W        W70885  13.102  12.567  23.848  0.0975 -0.2464 -0.2940
14645W        W70886  17.563   6.408  12.514  0.2166 -0.0102 -0.0546
14646W        W70887  24.630  21.886  14.165  0.1974 -0.4218  0.3498
14647W        W70888   6.443  10.324   8.021  0.2034  0.1718  0.0785
14648W        W70889  24.486  21.252  19.157 -0.0092  0.0367 -0.1808
14649W        W70890  27.097  10.949   8.488  0.1426 -0.1944  0.1681
14650W        W70891  19.221   6.772  21.270  0.0427 -0.2333  0.0806
14651W        W70892   9.714   6.176  22.891  0.2908 -0.3197  0.0227
14652W        W70893   2.498  19.333   2.619  0.0332 -0.1919  0.3738
14653W        W70894  28.768  11.237  22.979  0.0598  0.1128 -0.2433
14654W        W70895   2.162  13.691  24.093  0.3893  0.2081 -0.2576
14655W        W70896  29.056   0.997  12.306  0.0537 -0.2915 -0.1661
14656W        W70897   6.373  20.788   3.300  0.1638 -0.0988 -0.0141
14657W        W70898   2.022  19.880  12.551 -0.1994  0.0228 -0.0259
14658W        W70899   6.559   7.828   9.391  0.2154 -0.0093 -0.2535
14659W        W70900   7.175  14.793  18.443  0.0969 -0.0109  0.3838
14660W        W70901  18.114  18.488  12.971  0.1450  0.0037 -0.2727
14661W        W70902  10.242  24.897  23.164  0.0502 -0.3115 -0.4185
14662W        W70903   5.824   0.786  11.136 -0.1288 -0.0884 -0.2658
14663W        W70904   3.915  13.539  19.930 -0.1595 -0.2088  0.1905
14664W        W70905  16.732  31.972   0.166  0.4159 -0.1027  0.0276
14665W        W70906  26.390   2.255   3.402  0.1407 -0.1000 -0.0059
14666W        W70907   9.978   4.721  13.109  0.1817 -0.0224 -0.2011
14667W        W70908  17.193  31.529  20.779  0.0562  0.0628 -0.2732
14668W        W70909  16.295  29.357   3.757 -0.2350 -0.1946 -0.0271
14669W        W70910   7.429   0.651  13.445  0.3444  0.0357  0.1226
14670W        W70911  12.864  32.096   7.296  0.0434 -0.1270  0.0164
14671W        W70912  26.803   7.530  14.530 -0.1704 -0.2243  0.1063
14672W        W70913  22.625  28.425  18.897 -0.2545 -0.0160 -0.0003
14673W        W70914  24.952  17.768   7.505 -0.2250 -0.2445  0.1302
14674W        W70915  17.010   1.092   0.064  0.0087 -0.0050  0.0823
14675W        W70916  15.106   3.259  25.700 -0.1718 -0.0053 -0.3409
14676W        W70917  32.004  21.954   6.475 -0.0870 -0.2357 -0.1975
14677W        W70918  15.574   3.391   6.884 -0.1441 -0.2151 -0.1311
14678W        W70919  10.755  32.929  21.198 -0.0358 -0.0506 -0.1495
14679W        W70920  20.961  33.796  18.961 -0.0976 -0.0371  0.2225
14680W        W70921   7.691  12.459  24.551 -0.4686  0.0632 -0.4134
14681W        W70922   8.508  25.176   5.022 -0.0812  0.0381  0.0829
14682W        W70923  33.543  10.294  20.084  0.1007 -0.1885 -0.1151
14683W        W70924  23.295  29.081  20.706 -0.0427  0.2717  0.1781
14684W        W70925   1.428  32.073   6.320  0.3671  0.2870  0.2347
14685W        W70926  30.142   6.001  23.569 -0.1616 -0.3392 -0.3742
14686W        W70927   5.958  15.355  19.831 -0.0265 -0.4245  0.3249
14687W        W70928  31.800   9.754  18.982 -0.0893  0.2909 -0.1238
14688W        W70929  13.497   0.968  22.635  0.0209  0.0519 -0.1801
14689W        W70930   1.889   2.485   7.317 -0.1926  0.0186  0.1506
14690W        W70931  25.373  12.688  20.812  0.1641  0.0025 -0.0590
14691W        W70932   4.672  15.244   0.934  0.0637  0.2846  0.0906
14692W        W70933  16.301   4.976  20.748  0.0314  0.1347 -0.2283
14693W        W70934  16.781  20.653   4.213 -0.4128  0.1699 -0.0318
14694W        W70935  13.798  27.928   8.270  0.0736  0.0435 -0.0546
14695W        W70936  16.588  27.352  10.842 -0.0072 -0.3992  0.1162
14696W        W70937  13.605  35.321  24.396 -0.1447  0.0521 -0.0504
14697W        W70938  32.777  27.136  24.422 -0.0140  0.1473 -0.0102
14698W        W70939   6.196   9.064  18.251 -0.0445 -0.0899  0.0157
14699W        W70940  12.479  19.299   3.650 -0.0400  0.2659 -0.4276
14700W        W70941   1.583   3.296   4.418 -0.0157 -0.1199 -0.0276
14701W        W70942  10.989   7.236   4.924 -0.1150 -0.0627 -0.1115
14702W        W70943  27.842  11.374   9.108  0.0938 -0.0184  0.3311
14703W        W70944  33.729  30.939   5.453  0.0362  0.1085  0.0759
14704W        W70945  32.746  11.869   1.161  0.0998  0.1869 -0.2364
14705W        W70946  14.758  34.570  20.877 -0.4251  0.1143  0.0612
14706W        W70947  16.497  16.727   9.751  0.2079 -0.0927 -0.0769
14707W        W70948   3.031  11.490   4.762  0.0022 -0.0873  0.1354
14708W        W70949   5.462  15.127   3.404  0.1365  0.1889  0.0053
14709W        W70950   5.006  15.432  25.125 -0.0300  0.1352  0.1283
14710W        W70951   2.864   1.893  18.701  0.4557  0.0082  0.1795
14711W        W70952  23.438  32.985  13.620 -0.1499 -0.3073 -0.2751
14712W        W70953  30.654  31.847  15.878  0.1846  0.3892  0.1332
14713W        W70954  25.975   3.294  15.222  0.1272 -0.0819 -0.0985
14714W        W70955  32.522  27.672  16.623  0.1477 -0.2374  0.2584
14715W        W70956  33.696  17.762  16.558  0.0204 -0.1159 -0.1326
14716W        W70957  21.319   8.472  20.988 -0.2653  0.2208 -0.0696
14717W        W70958   6.426   0.277   7.055 -0.0022  0.5249 -0.0661
14718W        W70959   6.345   0.621  22.390  0.2601 -0.1021 -0.3422
14719W        W70960  22.006   2.542   0.531 -0.0052  0.2919 -0.0980
14720W        W70961  27.025  28.409   9.888 -0.0590  0.0581  0.0729
14721W        W70962  31.448  29.886  19.357 -0.0070  0.2838 -0.0125
14722W        W70963  32.386  21.964  13.741  0.1154  0.1024 -0.1708
14723W        W70964  29.479  18.692  12.742  0.0175 -0.1092  0.2867
14724W        W70965   6.106  35.076  20.791 -0.1631  0.1083  0.0555
14725W        W70966   6.716  30.502  21.395  0.1225  0.0945 -0.4050
14726W        W70967  18.254   4.848  18.126  0.2525  0.0441  0.2389
14727W        W70968  25.362   7.303  17.915 -0.0234 -0.0880  0.2134
14728W        W70969  31.003  34.601  20.924 -0.2203 -0.0332 -0.1804
14729W        W70970   8.117   3.259   0.290  0.1183 -0.2055  0.0925
14730W        W70971  32.050  18.476  25.406 -0.1212  0.0233 -0.0440
14731W        W70972  32.240   7.799  23.443  0.0315  0.4860  0.1676
14732W        W70973   4.598  28.076   2.476  0.1556 -0.0263  0.0708
14733W        W70974  17.071   4.570  22.933 -0.2461  0.2670 -0.0202
14734W        W70975  31.853   4.354   5.539 -0.2233  0.2370  0.0590
14735W        W70976  12.245   2.055  26.119 -0.0601 -0.2542  0.1287
14736W        W70977   0.694  10.434   0.659 -0.3638  0.0752 -0.2998
14737W        W70978  24.815  15.971  13.884  0.1656 -0.4379  0.1456
14738W        W70979  12.575  25.092   5.715  0.3633 -0.1281 -0.0684
14739W        W70980  23.014  23.337  25.331  0.2657 -0.2753 -0.2504
14740W        W70981   8.934   4.285   4.119  0.2298 -0.0324  0.1729
14741W        W70982  28.743   5.779   3.237  0.2086  0.3657  0.1900
14742W        W70983  11.196  29.043   6.796 -0.0479 -0.0116  0.0545
14743W        W70984  14.589  10.755   0.079  0.4161 -0.0994 -0.1903
14744W        W70985  15.719   0.960   1.993 -0.2392 -0.0131  0.2162
14745W        W70986  23.222   8.989   3.834  0.1792 -0.3379  0.0148
14746W        W70987   6.647  25.787   6.634 -0.0636 -0.2611 -0.1695
14747W        W70988  16.630  17.076   1.949 -0.1632 -0.2132 -0.2885
14748W        W70989  13.057  19.555  15.890 -0.0743  0.0614  0.1564
14749W        W70990   4.171  18.106   0.250 -0.2261 -0.2403  0.0802
14750W        W70991  16.612  30.295   9.720 -0.1984  0.0042  0.1773
14751W        W70992  18.349  24.806   8.755  0.0204 -0.2024  0.0893
14752W        W70993  11.388  15.638   5.234  0.2117 -0.3934  0.1617
14753W        W70994   4.957  34.562  11.316 -0.2255  0.0601  0.1021
14754W        W70995  25.813  19.299  16.518  0.0032  0.3584  0.1809
14755W        W70996  22.151  29.827  16.096 -0.0715  0.1651  0.1847
14756W        W70997  32.652  20.662  13.494 -0.0550  0.1279  0.1594
14757W        W70998  22.735  30.503  16.041 -0.0664 -0.0742 -0.0728
14758W        W70999  20.161  13.492   9.752 -0.1353 -0.1291 -0.2563
14759W        W71000  21.648   7.132   6.752 -0.0183 -0.5224 -0.1968
14760W        W71001   3.908  28.044  23.465  0.0702 -0.1579  0.0706
14761W        W71002  24.270   5.633  18.930  0.2411 -0.0236  0.0610
14762W        W71003   5.648  12.929  19.991  0.3980  0.1315  0.0620
14763W        W71004  18.432   6.859   0.356  0.0012  0.0446  0.0215
14764W        W71005  34.205   2.483  12.217  0.1077 -0.1168  0.2098
14765W        W71006  10.728  17.866   1.430  0.1128  0.0639  0.1076
14766W        W71007  28.926  14.525  20.057  0.2747  0.0497 -0.1251
14767W        W71008  11.133  14.976  21.879 -0.0532  0.0722  0.0222
14768W        W71009  10.588  30.377  15.280 -0.0078 -0.2579 -0.0699
14769W        W71010  34.481  17.504  16.871 -0.3811  0.1397  0.1597
14770W        W71011  18.462  33.178   4.181 -0.5110  0.5111 -0.0311
14771W        W71012   2.867  33.382  25.533 -0.0794  0.1383  0.0685
14772W        W71013  32.748  24.248  13.662 -0.2150  0.0969  0.3376
14773W        W71014  26.642  15.484   8.013  0.1128 -0.0404 -0.3495
14774W        W71015  17.122  12.734  20.440  0.1987 -0.1306 -0.1724
14775W        W71016  32.632  20.268   7.239  0.0246  0.0294 -0.2332
14776W        W71017  18.735  17.029   5.047 -0.2566 -0.1844  0.0604
14777W        W71018   0.710  31.977  22.442 -0.0466 -0.0447 -0.3362
14778W        W71019  31.433  34.826  19.752  0.0245 -0.1719 -0.1837
14779W        W71020  11.646  15.860   7.451 -0.0359 -0.2098 -0.2069
14780W        W71021  30.871  11.582  18.983  0.1383  0.2508  0.2011
14781W        W71022  23.047   2.704  12.963 -0.0483  0.1817 -0.3210
14782W        W71023  18.872  30.415   7.715  0.0231 -0.1472 -0.0508
14783W        W71024   0.255   5.451  21.809  0.1295  0.0951  0.0863
14784W        W71025   2.194   0.278  25.557  0.0117 -0.0197 -0.2323
14785W        W71026  20.852  19.334   3.442  0.1222 -0.0249  0.1248
14786W        W71027   1.284  19.097  21.791 -0.2073 -0.1030  0.3432
14787W        W71028  15.061  18.415   3.035  0.1341  0.0034 -0.1227
14788W        W71029  14.775   2.978   9.583 -0.1724 -0.1189  0.0663
14789W        W71030  24.945   6.686  26.114 -0.2246 -0.0040  0.2492
14790W        W71031  29.426  28.891  20.562  0.1661  0.0124  0.1650
14791W        W71032  11.289  14.892   2.429  0.3283  0.0394  0.2790
14792W        W71033  24.667  24.268   0.448  0.4435 -0.0713 -0.1933
14793W        W71034  20.651  19.862   5.501  0.0725  0.1653  0.0523
14794W        W71035   6.196  21.247  24.618  0.1998  0.0824  0.0229
14795W        W71036  15.101   1.066   9.687  0.2613  0.1021 -0.2537
14796W        W71037   2.410   8.557   1.901 -0.0490 -0.1674  0.3593
14797W        W71038   9.420   0.787   0.346 -0.0004  0.0085  0.3057
14798W        W71039  19.874  13.063   6.450 -0.2329 -0.1604  0.1762
14799W        W71040  21.677   3.118   7.856  0.0803 -0.1237 -0.0788
14800W        W71041   5.676  28.725  20.141  0.0113  0.0666  0.1925
14801W        W71042  26.600  15.749  22.129  0.0302 -0.3867  0.0946
14802W        W71043  23.569  30.640  18.737  0.0749 -0.1249  0.1128
14803W        W71044  20.057  20.427   2.494  0.2917  0.1518 -0.1625
14804W        W71045  22.746  13.254   1.831 -0.0526 -0.1745 -0.1037
14805W        W71046  23.326  28.895   3.129 -0.0228  0.1662 -0.1485
14806W        W71047   2.605   1.305   4.754  0.1597  0.0955  0.1552
14807W        W71048  18.426   3.718   9.453  0.3429 -0.2178 -0.0478
14808W        W71049  33.813  13.105  11.559 -0.1208  0.1223 -0.3360
14809W        W71050  29.438   1.068  21.888 -0.1640 -0.3285  0.1891
14810W        W71051   9.743  14.410  21.448 -0.0081 -0.1702 -0.0913
14811W        W71052   4.368  14.709  15.969 -0.0571 -0.0515  0.0162
14812W        W71053  10.483   9.873  25.183  0.0960  0.2792 -0.0623
14813W        W71054  32.435  10.918  12.397  0.1015 -0.0474 -0.3043
14814W        W71055  22.217  16.263   2.494 -0.0515  0.0716  0.0207
14815W        W71056   8.813  16.086  11.784 -0.0830 -0.2512  0.2420
14816W        W71057  17.460   8.416  21.760  0.0612  0.0456  0.0894
14817W        W71058  26.971   0.575  17.394 -0.0959  0.0949  0.0667
14818W        W71059  13.607  10.658   3.021  0.0179  0.2394  0.2899
14819W        W71060   3.765   2.530  25.519  0.0365  0.2268 -0.0453
14820W        W71061  16.104   4.914   0.205 -0.2751 -0.0120 -0.1294
14821W        W71062  26.683  25.098  11.932 -0.1119  0.0277  0.0528
14822W        W71063   4.039   5.124   8.066 -0.3623 -0.0199 -0.2938
14823W        W71064  29.923   5.795   9.799 -0.4914  0.0400 -0.0217
14824W        W71065  16.607  21.955   5.734  0.1003  0.0384 -0.0921
14825W        W71066  16.884  22.988   2.267  0.1913  0.1335  0.3019
14826W        W71067   4.089  29.469   5.940 -0.0618  0.2355  0.1053
14827W        W71068  11.702  35.111   4.236 -0.4164  0.0156  0.0492
14828W        W71069   6.469  12.807   1.050  0.0467  0.1229 -0.2399
14829W        W71070   0.433   6.194  13.546 -0.1855  0.0943  0.1861
14830W        W71071  31.162  26.472  23.411 -0.0968 -0.1666  0.1856
14831W        W71072  21.458  23.344  17.876 -0.2118  0.1066 -0.4049
14832W        W71073  23.123  30.689   2.693  0.0760 -0.0214 -0.1297
14833W        W71074   9.701  10.744  12.627 -0.2227 -0.2970  0.0981
14834W        W71075   5.570  33.194   8.588  0.1150  0.0505  0.2210
14835W        W71076  13.096  19.002   6.511 -0.1725  0.1623  0.0760
14836W        W71077   4.382  34.751  21.207 -0.2861  0.4321 -0.2317
14837W        W71078  15.064  23.390  23.666  0.0914 -0.1209 -0.0438
14838W        W71079   2.394  35.002  25.714  0.0647 -0.3310 -0.2075
14839W        W71080   3.779  21.445   1.328  0.2111 -0.1800  0.1115
14840W        W71081  25.560  33.016  21.546  0.1719  0.1059  0.2739
14841W        W71082   8.015  15.596   0.665  0.0319  0.0222 -0.0754
14842W        W71083   2.025   1.989  22.941 -0.1588  0.0856 -0.2044
14843W        W71084  18.762   7.055   0.889  0.0952  0.0475  0.1263
14844W        W71085   3.010   9.351   0.404  0.1248  0.1905  0.1340
14845W        W71086   3.929   4.451  20.297  0.1139 -0.1198  0.0720
14846W        W71087  10.476  33.681  12.730 -0.1598 -0.2074  0.0897
14847W        W71088   6.588   5.857   8.838  0.1090 -0.0563 -0.0458
14848W        W71089  12.557   5.550   9.857 -0.1211  0.0034 -0.0629
14849W        W71090   7.584   0.784   8.049  0.3340  0.1703  0.3360
14850W        W71091  24.822  29.954  11.281  0.0907 -0.1195 -0.0156
14851W        W71092  22.880  19.940  25.550 -0.1595 -0.2296  0.2126
14852W        W71093  32.208  25.622  14.642  0.1420  0.0465  0.1050
14853W        W71094  14.800  21.248  15.633  0.2930  0.2188 -0.1091
14854W        W71095   9.842  17.571   9.130  0.2180  0.1011  0.1811
14855W        W71096  23.772  24.680  17.131  0.2175  0.1289  0.0169
14856W        W71097  15.149  18.349   6.697 -0.3831  0.1565  0.1140
14857W        W71098  26.005   8.529   0.895  0.2505  0.0299  0.1448
14858W        W71099   9.617  16.020   3.358 -0.2738  0.1198 -0.0680
14859W        W71100  27.316   1.877   0.055  0.3500 -0.1721  0.0015
14860W        W71101   0.610  11.741  14.477  0.1761 -0.1479 -0.0758
14861W        W71102   5.344  17.191   8.342 -0.2303  0.0839 -0.1619
14862W        W71103  26.616   8.570  16.958 -0.0202 -0.1374 -0.1368
14863W        W71104  30.931  16.752  20.777  0.2416 -0.0763 -0.0342
14864W        W71105  23.010   7.144  21.509 -0.0874 -0.1769 -0.0172
14865W        W71106  12.802  30.599  10.141 -0.3599 -0.1762  0.0662
14866W        W71107  22.775   4.189  25.353 -0.0214  0.0523  0.1033
14867W        W71108  30.655  24.697  11.778 -0.1715 -0.1432 -0.3485
14868W        W71109  24.704  23.548  20.675 -0.2813  0.0364  0.2860
14869W        W71110   6.153  35.252   6.268 -0.0624  0.1683  0.0436
14870W        W71111   6.286  15.354  10.427 -0.1144  0.5162  0.0076
14871W        W71112   5.522  27.172   2.890 -0.0013  0.2164  0.1629
14872W        W71113   0.884  20.221  17.366 -0.1313  0.0865  0.1955
14873W        W71114  10.064   4.985   0.781 -0.1977  0.2067  0.0349
14874W        W71115  14.002   2.526  23.984  0.1286  0.2424  0.1597
14875W        W71116   9.854  31.939  26.002 -0.1427 -0.0092 -0.3753
14876W        W71117  27.633   1.941  24.387  0.0744  0.1371  0.0661
14877W        W71118  22.163   0.578   6.581  0.0926  0.1839 -0.3376
14878W        W71119   3.573   8.469  18.470  0.1647  0.1373  0.1273
14879W        W71120   2.407   0.300  16.984  0.1430 -0.2489 -0.2016
14880W        W71121  27.258  15.474  10.661  0.1789  0.2264 -0.1083
14881W        W71122  14.491  27.188  11.333  0.0784 -0.1597 -0.1952
14882W        W71123  23.092  19.692   0.321 -0.2123  0.0682  0.0579
14883W        W71124  14.026   3.056  18.750  0.0141 -0.1319  0.3298
14884W        W71125  33.673   2.739  14.244  0.2103 -0.0888 -0.4038
14885W        W71126  23.959  20.706  17.434 -0.1015  0.2520 -0.1300
14886W        W71127   5.704  14.522  18.980 -0.1787  0.1722  0.0672
14887W        W71128  16.170  21.961   8.985  0.0464 -0.1524 -0.2130
14888W        W71129  25.370   2.246  11.812  0.3521 -0.0114 -0.1859
14889W        W71130  14.909   3.462  11.902 -0.2238 -0.2949  0.0244
14890W        W71131  15.909   8.718   2.220  0.0747 -0.2455  0.1177
14891W        W71132  13.979  20.391  11.506 -0.0644 -0.0748 -0.0647
14892W        W71133  15.208  32.414   2.841  0.0504  0.1728  0.1252
14893W        W71134   5.696   8.512  24.205 -0.3004  0.1750 -0.0905
14894W        W71135  23.224  28.841  24.515 -0.1721 -0.0897  0.0778
14895W        W71136  13.392  11.885  19.259 -0.0238 -0.2270  0.2055
14896W        W71137  23.697  18.672  18.245 -0.1515  0.1634 -0.0700
14897W        W71138  20.518  32.373  20.261 -0.2028 -0.3511 -0.0620
14898W        W71139   7.953   4.195  25.474 -0.0869 -0.1012  0.0346
14899W        W71140  19.916  22.350   5.045 -0.1486 -0.1747 -0.0344
14900W        W71141  26.753  33.198  19.067 -0.3728 -0.2456 -0.0263
14901W        W71142  13.628  23.847  21.822  0.0558  0.0831  0.2082
14902W        W71143  19.144  23.937  21.751 -0.1532 -0.3145 -0.2406
14903W        W71144  19.943   1.894   7.358  0.2228  0.0190 -0.5037
14904W        W71145  12.013  34.717   9.742  0.1072  0.0494  0.1356
14905W        W71146  15.528   1.580   6.607 -0.3813  0.0207 -0.0977
14906W        W71147   7.492   5.223   6.233 -0.1328  0.0113  0.3174
14907W        W71148   1.336  20.607  11.054 -0.0622 -0.0495 -0.2379
14908W        W71149  19.462  23.212   1.678 -0.1824 -0.2016 -0.0424
14909W        W71150  18.970  29.124  22.782 -0.1135  0.4102  0.1035
14910W        W71151  15.199  19.617   7.887 -0.4537  0.2969 -0.1157
14911W        W71152  12.182   1.562   0.062  0.2892 -0.3040  0.1205
14912W        W71153   8.348   2.083  20.451 -0.0193 -0.2851 -0.2367
14913W        W71154  24.182   0.673  21.613 -0.1013  0.1364  0.0095
14914W        W71155  28.492  17.379  10.936 -0.1006 -0.1225  0.1581
14915W        W71156  34.561  20.084  12.781 -0.1699 -0.0183  0.1929
14916W        W71157  26.330  21.363  16.960 -0.0407  0.2416 -0.1406
14917W        W71158  10.397  14.170   9.969 -0.0555 -0.0315  0.1607
14918W        W71159   4.752  20.876  25.097 -0.1177  0.1219 -0.1154
14919W        W71160  18.811   3.508   6.645  0.0692  0.0542 -0.1214
14920W        W71161   4.897  30.534  10.828 -0.1306  0.2565  0.1230
14921W        W71162  13.730  27.110   7.042 -0.1788 -0.0732 -0.1436
14922W        W71163  27.708  33.243   1.858 -0.0514 -0.0108 -0.3292
14923W        W71164   7.332  18.021  24.318 -0.0323 -0.3129 -0.0275
14924W        W71165  10.677   2.060  21.194  0.1275 -0.0993 -0.3434
14925W        W71166  32.367  17.710   6.633 -0.0394  0.0381  0.1601
14926W        W71167  29.961   5.476  13.467  0.1217 -0.0060  0.1261
14927W        W71168  27.855   7.896   1.687 -0.0454 -0.2024 -0.0849
14928W        W71169  21.721  13.207  23.117  0.2118 -0.0282 -0.1693
14929W        W71170   1.586  17.741   9.676 -0.0020  0.0038  0.3227
14930W        W71171   8.450   0.923  24.587 -0.2144  0.3811  0.0374
14931W        W71172  12.727  22.023   1.177 -0.0778 -0.0405  0.0290
14932W        W71173  28.494  31.058  16.203  0.0230  0.2853  0.0129
14933W        W71174  23.965  33.842  12.343  0.3285 -0.2592 -0.3182
14934W        W71175  34.493  20.233  17.516 -0.4680  0.1007  0.4126
14935W        W71176  19.242  31.706  24.903 -0.1287 -0.1223  0.1897
14936W        W71177  13.812  30.102   4.132 -0.0989 -0.3503 -0.0905
14937W        W71178   3.004  20.411  25.970  0.0854  0.1866 -0.1690
14938W        W71179  20.728  32.144  20.627 -0.2932  0.1067  0.0958
14939W        W71180  27.481   0.657  15.232 -0.1019 -0.1193  0.0429
14940W        W71181  19.277   1.270  19.842 -0.0711 -0.1959  0.0813
14941W        W71182  17.256   9.096  26.013  0.1003 -0.0916 -0.0073
14942W        W71183  20.291  26.367  16.562 -0.0538 -0.2272  0.1522
14943W        W71184  20.846   3.732   1.573  0.0816 -0.3099 -0.0232
14944W        W71185  29.074   4.541   2.480  0.1910 -0.1770  0.2522
14945W        W71186  34.114   1.962   2.356  0.1206  0.1159 -0.0583
14946W        W71187  21.940   4.951  17.405 -0.0025 -0.3256  0.1026
14947W        W71188  26.333  14.502  15.698 -0.0508 -0.0865  0.1374
14948W        W71189  30.191  14.421  25.724  0.1266  0.1338  0.0710
14949W        W71190  34.072  33.241   2.355  0.2286  0.2036 -0.1241
14950W        W71191   5.450   4.110   7.804 -0.0225  0.2512  0.1052
14951W        W71192  16.599   4.949   4.359 -0.0718  0.1011  0.0814
14952W        W71193  34.593   8.715   0.736 -0.2133  0.0092 -0.0358
14953W        W71194  23.489   1.593  21.523  0.4391  0.2105  0.1771
14954W        W71195  33.275  17.087  26.218 -0.0158 -0.2240 -0.3395
14955W        W71196   4.383   5.994  24.280 -0.1663  0.2619  0.0428
14956W        W71197  26.318  22.408  25.576  0.2558 -0.0530 -0.0373
14957W        W71198   9.010   2.926  14.050  0.1633 -0.1369  0.0589
14958W        W71199   2.695   5.796   7.255  0.0177 -0.0495  0.0063
14959W        W71200  12.345  27.981   1.192 -0.1154  0.0876 -0.2708
14960W        W71201   4.955  23.411   0.373 -0.1618  0.2393 -0.1030
14961W        W71202  35.167  17.414  14.369 -0.5135  0.0407 -0.0283
14962W        W71203   5.247  23.786   0.190  0.0393 -0.4276 -0.1435
14963W        W71204   1.677   0.297  17.313 -0.1086  0.0648 -0.2508
14964W        W71205   0.812  33.434  24.289 -0.0448  0.4272  0.3298
14965W        W71206   2.158   3.936   0.374 -0.0621  0.0467  0.0494
14966W        W71207  35.302   6.151   0.115 -0.1473  0.3154  0.0225
14967W        W71208  33.605  15.043  21.537 -0.0368 -0.0447 -0.1470
14968W        W71209  17.306  26.560   3.371  0.0038  0.2055 -0.0014
14969W        W71210   2.658   5.791   3.442  0.0780  0.0308  0.2526
14970W        W71211   6.961  16.503  23.163  0.1489  0.1259  0.2051
14971W        W71212   2.222  23.008   0.997  0.3476  0.0140 -0.0148
14972W        W71213  26.733  30.635  11.529 -0.4169  0.1334  0.0588
14973W        W71214   1.456   7.185  14.212  0.0816 -0.3909 -0.1394
14974W        W71215   2.607  22.425  20.887 -0.0606 -0.0248  0.3242
14975W        W71216  17.852   4.609   4.397 -0.1969 -0.0537  0.2256
14976W        W71217   4.568  34.041  20.252 -0.1674  0.0448 -0.2790
14977W        W71218  18.156   0.982  26.171  0.3112 -0.0135  0.1473
14978W        W71219  33.918  17.843  11.366 -0.1160  0.0966 -0.0104
14979W        W71220  34.452  28.434  16.505  0.1431  0.0625  0.2626
14980W        W71221  29.028  32.069  12.564  0.1606 -0.1687  0.2023
14981W        W71222   7.103  20.767   9.317 -0.0552  0.0185 -0.0338
14982W        W71223   6.438  17.758  17.782  0.1483  0.0468 -0.1726
14983W        W71224   7.085  14.203   4.331  0.1707 -0.1762  0.1312
14984W        W71225  10.279  18.204   1.891  0.1505 -0.2121 -0.0025
14985W        W71226  28.025   1.559  16.737  0.0166  0.0494 -0.3159
14986W        W71227  13.202  29.311   8.228 -0.1573  0.0636 -0.1020
14987W        W71228  22.907  34.139   5.732  0.2978  0.1378 -0.1277
14988W        W71229  17.458  32.976   8.447  0.0352  0.0411 -0.1166
14989W        W71230  28.138   8.509  12.411 -0.1113  0.2896  0.0867
14990W        W71231  31.138  23.271  24.400  0.1153  0.0616 -0.0509
14991W        W71232  19.891   0.784  23.784 -0.1247  0.1451  0.4560
14992W        W71233  32.118   1.013   4.298  0.2613 -0.0760 -0.0527
14993W        W71234  20.760  19.998  25.857 -0.2047  0.1595 -0.1151
14994W        W71235  24.673  21.534  17.254  0.2090 -0.2205  0.0003
14995W        W71236  33.983  22.379   8.098 -0.2166 -0.1037  0.2085
14996W        W71237  33.146  23.729  10.897 -0.2523 -0.0895 -0.1456
14997W        W71238  24.829   4.370   1.028  0.0476 -0.0305 -0.0929
14998W        W71239  10.470  29.931   2.718  0.0805  0.1902  0.2293
14999W        W71240   7.782  27.035  15.409  0.1393 -0.3489  0.1344
15000W        W71241  32.507  10.256  10.629 -0.0579  0.1179 -0.1804
15001W        W71242  23.691  13.618  12.540  0.3883  0.1043  0.1537
15002W        W71243  24.280  26.366  22.499  0.0434  0.2741 -0.0227
15003W        W71244   2.717   0.698   0.929 -0.1371  0.1167 -0.0939
15004W        W71245  28.910   2.853  22.542  0.0808 -0.0013 -0.3627
15005W        W71246  34.552   5.304  20.322  0.0580  0.0867  0.4481
15006W        W71247  16.682  18.775  22.305 -0.2504  0.2876 -0.3336
15007W        W71248  28.633  35.145   3.430  0.3011  0.2101 -0.0570
15008W        W71249   2.473  25.436  19.421  0.2544  0.0002 -0.0428
15009W        W71250  33.291  18.628  10.050 -0.0803  0.3154  0.0166
15010W        W71251   6.304  11.292   9.469 -0.1459 -0.0535  0.0496
15011W        W71252  12.948   9.662   8.538 -0.0685  0.1001  0.0080
15012W        W71253   8.607  28.152  24.591 -0.2074  0.2153  0.0817
15013W        W71254  30.575  27.801  12.224 -0.0662 -0.0156 -0.2352
15014W        W71255  25.785  24.848  11.411 -0.0635  0.1084 -0.3966
15015W        W71256  15.549  19.859   0.524  0.0147 -0.3185 -0.0940
15016W        W71257  34.163  34.452  19.628 -0.0339  0.0614 -0.0406
15017W        W71258   6.839  12.357   8.588 -0.1571  0.1722 -0.2323
15018W        W71259  15.613   5.177   9.807 -0.0756 -0.1901 -0.0256
15019W        W71260  12.411  24.383   9.989 -0.1099  0.0423 -0.0306
15020W        W71261   7.309   6.454  10.558 -0.0790  0.2557 -0.4166
15021W        W71262  21.533   1.114   1.145 -0.0636 -0.4890 -0.0129
15022W        W71263  28.008  34.051   3.007 -0.0901 -0.1511 -0.2704
15023W        W71264  27.514  14.261  22.660  0.0342 -0.0264  0.3960
15024W        W71265  35.131   8.762  12.954 -0.0826 -0.1837 -0.0353
15025W        W71266  23.470  12.318  20.802  0.3118  0.1333  0.3000
15026W        W71267  23.955  35.251   6.526 -0.2455 -0.0187  0.0615
15027W        W71268   5.703   0.157  12.591  0.2090 -0.2789  0.2935
15028W        W71269  19.979   2.392   6.620  0.1048 -0.2344 -0.2576
15029W        W71270  18.267  15.269  21.761  0.2956 -0.0291  0.2470
15030W        W71271   4.150   9.544  23.288 -0.0566 -0.0218  0.1877
15031W        W71272  11.593   5.564  13.487  0.0398  0.3386  0.1261
15032W        W71273  29.835   6.539  16.213 -0.2951 -0.0219 -0.0474
15033W        W71274  30.298   3.194  20.085  0.0164  0.0194 -0.2918
15034W        W71275  13.530  33.831   9.108  0.2960  0.1434 -0.0364
15035W        W71276  21.769  10.082   1.234 -0.2082  0.2241 -0.0386
15036W        W71277  13.714  30.711   9.060  0.2421  0.1404 -0.0030
15037W        W71278  21.208  15.798   0.973 -0.1636 -0.1905 -0.1571
15038W        W71279   6.390  28.293  15.424 -0.1075 -0.0375 -0.1087
15039W        W71280   9.811   7.449   2.408  0.2320  0.1068  0.1454
15040W        W71281  31.425   0.473  14.149  0.5079  0.0508 -0.3215
15041W        W71282  26.518  11.846  18.695  0.1674  0.0903  0.0086
15042W        W71283  17.252  11.086  10.463 -0.1138 -0.1338 -0.0154
15043W        W71284  11.467  11.504  13.181  0.0118 -0.2028 -0.2579
15044W        W71285   4.187  29.017  23.128  0.2205 -0.1955  0.2484
15045W        W71286   8.628  15.294   1.718  0.1284  0.4714 -0.3774
15046W        W71287  19.639  18.542  22.061 -0.0351 -0.2766  0.0737
15047W        W71288  11.367   1.165   6.230  0.2347  0.1257 -0.1303
15048W        W71289  28.836  11.085  12.467 -0.0531 -0.1062 -0.4084
15049W        W71290   7.799  22.966   1.772 -0.0675  0.3216 -0.2194
15050W        W71291   2.038  26.327  21.198 -0.2832  0.1906  0.1359
15051W        W71292  33.133  13.482  25.469  0.1239 -0.1543 -0.2605
15052W        W71293  11.734  10.989  22.913  0.1465  0.0497  0.0505
15053W        W71294  17.134   3.251   4.741  0.1495  0.0816 -0.2444
15054W        W71295   0.582  11.689  10.358  0.2838  0.0999 -0.4021
15055W        W71296  32.564  17.766   7.307  0.2262  0.1165  0.5789
15056W        W71297   8.693   5.658  10.650 -0.1945  0.0035  0.2711
15057W        W71298  25.129  15.579   9.990 -0.3233  0.2630 -0.1562
15058W        W71299  27.790   0.752  25.548 -0.0203  0.0445 -0.1522
15059W        W71300  12.112   0.654  22.709  0.3963  0.1156  0.1502
15060W        W71301  15.104  14.005  23.997  0.1634  0.1305 -0.0959
15061W        W71302  29.200   8.353  17.474 -0.0604 -0.0370 -0.3409
15062W        W71303  25.033   9.227   2.112  0.1540 -0.1150 -0.3524
15063W        W71304  20.077  35.228  15.611 -0.0642  0.1050 -0.0311
15064W        W71305  32.518  13.197   8.067  0.1786 -0.0116 -0.0628
15065W        W71306   7.639   1.064  19.739 -0.2152 -0.1052  0.0425
15066W        W71307  30.296  33.636  25.191  0.1512 -0.2000 -0.1063
15067W        W71308  12.720  24.245   4.171  0.0077  0.2622 -0.0820
15068W        W71309  30.400   1.223   2.139 -0.0176  0.0574 -0.2122
15069W        W71310   5.209   7.562  26.195 -0.0542  0.0830  0.0172
15070W        W71311  28.626  19.133  13.235 -0.1790 -0.0566 -0.0472
15071W        W71312  18.374  27.787  20.856  0.3137  0.1547 -0.4186
15072W        W71313  28.855   9.022  13.422 -0.0397  0.1209 -0.0193
15073W        W71314   3.905   7.537   2.221  0.3363  0.1486  0.1480
15074W        W71315  17.318   9.140   5.375 -0.1661 -0.2111  0.3583
15075W        W71316  14.517   5.167  23.750 -0.3292 -0.1331 -0.2016
15076W        W71317  11.897  21.260  13.899  0.0380  0.1246 -0.2443
15077W        W71318  16.726  21.973  13.458  0.0657  0.4049  0.1015
15078W        W71319  10.768   8.068  23.469 -0.0626 -0.1360  0.0062
15079W        W71320  19.490  14.158  21.314 -0.1451 -0.1503  0.2127
15080W        W71321  30.998  20.383  19.585 -0.3037  0.2133 -0.0248
15081W        W71322  35.060  13.438  17.520  0.2348  0.0118 -0.1140
15082W        W71323   9.693   3.995  22.825 -0.0529 -0.0375  0.0322
15083W        W71324   7.837  29.586   6.663 -0.0762 -0.1866 -0.3676
15084W        W71325  12.306  16.851  11.859 -0.3005 -0.1440 -0.0020
15085W        W71326  27.131  31.285   1.183  0.3365  0.2611  0.1125
15086W        W71327   5.477  20.526   2.886 -0.0731 -0.0434 -0.0075
15087W        W71328  29.751   3.244  14.443 -0.2051  0.1241 -0.0341
15088W        W71329  17.028  30.754  19.602 -0.1281  0.0177  0.1295
15089W        W71330  26.201  32.937  18.839 -0.2021 -0.0695 -0.0925
15090W        W71331  24.301  31.681  10.951  0.0391 -0.3119  0.0671
15091W        W71332   4.326   7.181   4.566  0.1974 -0.1447  0.2154
15092W        W71333   4.823  14.242   5.884  0.0011  0.1813 -0.0373
15093W        W71334  35.099   5.917  16.534 -0.0583  0.4499  0.1079
15094W        W71335  27.287  11.634  14.175 -0.3361 -0.3187 -0.4248
15095W        W71336  31.816   8.929  12.899 -0.0349 -0.1021 -0.1517
15096W        W71337  24.997   8.230  11.651 -0.1953 -0.2234  0.0494
15097W        W71338   5.048  10.228   9.393 -0.1323 -0.0954  0.2817
15098W        W71339  11.143  12.790  10.617  0.0283  0.1330 -0.1887
15099W        W71340  26.711   8.449  12.921 -0.1847 -0.2548 -0.0943
15100W        W71341  17.233   3.784  20.725  0.2134  0.2717 -0.1368
15101W        W71342  33.404   7.164  18.098  0.1062 -0.2895  0.4250
15102W        W71343   0.985  22.672  22.806 -0.1304 -0.1862 -0.0451
15103W        W71344  19.126  29.449   6.769 -0.0129  0.3452 -0.2120
15104W        W71345  32.478  31.822  18.372  0.2339  0.0526  0.0296
15105W        W71346  29.151  26.651  12.069 -0.0228  0.1312 -0.0683
15106W        W71347  14.281  16.637  22.010  0.5178  0.1712  0.2078
15107W        W71348   5.689  21.720   3.055 -0.0234  0.1995 -0.1238
15108W        W71349  25.944  16.145  19.752 -0.1081 -0.2015 -0.1052
15109W        W71350   6.332  16.448  24.408 -0.0661  0.2371 -0.0317
15110W        W71351   6.151  21.820  23.329  0.0629 -0.2791 -0.1336
15111W        W71352  28.530   1.397  25.121  0.0554 -0.0948  0.0758
15112W        W71353  33.329   4.725  24.421 -0.2915  0.3115  0.4459
15113W        W71354   8.945  16.184  24.710 -0.2980 -0.1542 -0.0397
15114W        W71355  34.381  21.361   0.244 -0.1860 -0.0538 -0.0196
15115W        W71356   9.993  11.418  24.063 -0.0408  0.2826  0.0333
15116W        W71357  30.626  26.278  17.150 -0.0704  0.2156  0.1296
15117W        W71358  17.604  21.812   3.906  0.0482 -0.2409  0.1409
15118W        W71359  14.917   4.070  18.469 -0.2038 -0.0303  0.0110
15119W        W71360  21.225  15.551  22.556  0.2926 -0.2122 -0.2740
15120W        W71361   9.745  22.079  11.447  0.0689 -0.2348  0.0522
15121W        W71362   7.258  25.997  22.798  0.0268 -0.1037 -0.0939
15122W        W71363  31.820  14.724  25.818  0.0245  0.1036  0.0593
15123W        W71364  13.519  20.140  10.779  0.1819  0.0307 -0.0789
15124W        W71365  33.164  28.067  23.432  0.3779  0.1899  0.3641
15125W        W71366   4.709  19.485  17.733 -0.2881 -0.1592  0.0547
15126W        W71367  30.748   0.226  19.755  0.1025  0.0969 -0.1505
15127W        W71368  22.130  24.749  17.626  0.0826  0.1062  0.0761
15128W        W71369  24.597  20.971  16.857  0.0076 -0.2279 -0.1872
15129W        W71370  28.277  11.046   9.034 -0.1361 -0.1909  0.0612
15130W        W71371  18.573  33.500  17.023 -0.3084  0.1029 -0.3921
15131W        W71372   5.959  25.006  26.025  0.0783  0.1369 -0.0714
15132W        W71373  21.032   0.724  24.497 -0.0723  0.1819 -0.2618
15133W        W71374  16.502   0.858  23.427 -0.1813  0.0586 -0.0373
15134W        W71375  27.676  20.440  20.465 -0.0400  0.1396 -0.1037
15135W        W71376  31.126   5.175   1.636 -0.0834  0.2836  0.2151
15136W        W71377   9.029   9.334   0.282  0.0300 -0.1383 -0.1366
15137W        W71378   9.587   1.988  10.507  0.0521 -0.1030 -0.0028
15138W        W71379   3.782  29.788  12.083  0.1594 -0.3495  0.2464
15139W        W71380  13.784  23.875   0.052  0.1871  0.0634  0.0282
15140W        W71381   4.091  31.088   6.581  0.2638 -0.2580  0.3109
15141W        W71382  12.394  22.703  21.840  0.2062 -0.1937 -0.2215
15142W        W71383   6.097  30.585  23.634 -0.1572 -0.0362 -0.0521
15143W        W71384  31.652  32.968  14.348 -0.0890  0.0454 -0.0717
15144W        W71385  27.140  25.205  15.353  0.0449 -0.1063  0.0090
15145W        W71386  31.768  14.687  14.853 -0.2317 -0.0292 -0.2350
15146W        W71387  28.942  32.050  20.645 -0.2700 -0.2810  0.0266
15147W        W71388  34.096   8.354  15.525 -0.2538  0.1007  0.1235
15148W        W71389  19.027  22.178  26.143 -0.3638 -0.1099  0.1241
15149W        W71390   7.312  15.260   6.970  0.1849  0.1072  0.0441
15150W        W71391   9.717  22.206   7.765 -0.2015  0.0651 -0.0779
15151W        W71392  19.524   7.812   4.356 -0.1762 -0.1810 -0.0715
15152W        W71393  10.509  25.864   8.219 -0.1545 -0.3373  0.1772
15153W        W71394   1.249  21.698  19.015  0.4183  0.2757 -0.1341
15154W        W71395  30.689  25.498  23.945 -0.1282  0.0566  0.0996
15155W        W71396  20.810  26.326  18.464 -0.1013  0.0713  0.0177
15156W        W71397  18.393  10.632  10.008  0.0675 -0.3967 -0.0407
15157W        W71398  14.112  29.557  21.187 -0.1594  0.0888  0.0008
15158W        W71399  35.277  19.612  22.959  0.0985  0.1376 -0.0762
15159W        W71400  33.889  16.868  20.706  0.3092 -0.1519 -0.0031
15160W        W71401   9.998  10.007   2.549  0.0225  0.0941  0.0603
15161W        W71402  32.648  26.949  22.473  0.1570  0.1423  0.3052
15162W        W71403   0.041  29.351  16.476 -0.0654 -0.0238  0.0483
15163W        W71404  15.155  19.740   0.221  0.1621 -0.3074  0.3459
15164W        W71405  22.946   5.045   6.410  0.2564  0.0393  0.0845
15165W        W71406  27.665  31.758   2.872 -0.3061  0.0192 -0.1277
15166W        W71407  18.000  20.162   9.121 -0.0277 -0.0822  0.1786
15167W        W71408  16.720  23.551  25.903 -0.1951 -0.1032  0.3823
15168W        W71409  32.963  20.284   6.784 -0.0238  0.0443 -0.0197
15169W        W71410  26.904  16.430  18.407  0.2461  0.0051 -0.1340
15170W        W71411  10.573  23.832   3.840 -0.0786  0.0113  0.1019
15171W        W71412   8.498  30.486  16.137 -0.0902  0.1778 -0.0975
15172W        W71413  21.594  22.827  18.924 -0.0212  0.1442  0.2947
15173W        W71414  31.302  15.600  22.377 -0.0671  0.0884  0.0143
15174W        W71415  14.636  13.432  20.767  0.0867  0.0607 -0.1795
15175W        W71416  31.987  12.241   9.286  0.2039 -0.0686  0.1186
15176W        W71417   9.530  13.015  13.297  0.0235  0.1135 -0.1670
15177W        W71418   6.170   3.414   7.551 -0.0109 -0.0007  0.1039
15178W        W71419  29.829  23.576   7.045 -0.0910  0.2495 -0.4070
15179W        W71420  24.768   3.742   2.066 -0.0768  0.0854  0.3163
15180W        W71421  19.935  14.819   6.863  0.0341  0.2298 -0.1472
15181W        W71422  24.022  22.299  12.537  0.2688  0.0014 -0.0585
15182W        W71423   1.468  34.908   5.974 -0.0010  0.1802  0.2977
15183W        W71424  32.796   1.895  24.616  0.0428  0.2111 -0.0798
15184W        W71425  18.400  23.117  24.732  0.0310  0.4345 -0.3133
15185W        W71426   9.263   7.554   6.258 -0.1987  0.1668 -0.1097
15186W        W71427   6.708   0.607  12.215 -0.1929  0.0038 -0.1676
15187W        W71428  31.855   6.142   0.832 -0.4098 -0.0623 -0.3077
15188W        W71429  30.756   8.517  25.540  0.1461  0.0072 -0.1112
15189W        W71430  34.546  26.145  19.768 -0.0493  0.0211  0.1961
15190W        W71431   0.514  26.830  24.726  0.1725  0.1317 -0.0273
15191W        W71432   3.567   3.439   2.656 -0.1780 -0.0363 -0.2977
15192W        W71433  32.628  16.041  26.108 -0.0719  0.0367  0.1981
15193W        W71434  16.549  21.358   6.179 -0.1807 -0.1568 -0.1159
15194W        W71435  26.234   5.818  25.450 -0.3184 -0.2248  0.0413
15195W        W71436  11.495   4.748   2.866  0.0245 -0.0318 -0.0088
15196W        W71437  28.222   5.207  10.561 -0.0860 -0.0047 -0.1104
15197W        W71438  25.784   0.887  23.820 -0.2279  0.1284  0.2157
15198W        W71439  28.552  32.180  16.212 -0.1164  0.1186 -0.0200
15199W        W71440  30.368   9.343  21.665 -0.0508  0.2945  0.3568
15200W        W71441  29.644   0.076  20.219 -0.1371 -0.0058 -0.0300
15201W        W71442  22.727  31.367  25.401  0.2625 -0.0162 -0.3197
15202W        W71443  13.103   2.160   7.984  0.0935 -0.2075  0.0392
15203W        W71444  31.499   8.733  18.110 -0.1733  0.3602 -0.0403
15204W        W71445  20.093   1.403   0.665  0.1743  0.0670 -0.1798
15205W        W71446  30.408  15.253  25.221  0.0251 -0.1422 -0.0456
15206W        W71447  33.709   5.176  23.197 -0.0146  0.3003  0.1607
15207W        W71448  14.616  16.410  21.208 -0.0248  0.0800  0.2193
15208W        W71449  21.672  27.017  21.159 -0.0162 -0.1509 -0.0041
15209W        W71450  10.077  22.501  23.002 -0.1294  0.0853 -0.0695
15210W        W71451   8.255   6.532   7.491 -0.2940  0.0801  0.0031
15211W        W71452   8.330   6.875   5.105  0.2019  0.1209  0.4951
15212W        W71453  24.491   5.271   3.064  0.0846 -0.1816 -0.6103
15213W        W71454  19.661  23.418   1.292  0.0996 -0.1042 -0.0469
15214W        W71455  30.557  22.744  12.736  0.2399 -0.1530  0.2320
15215W        W71456  30.994  14.607  22.681  0.3279  0.0043  0.2154
15216W        W71457  16.183  14.561  23.078 -0.0491  0.0351 -0.1118
15217W        W71458  18.961  17.174   3.569 -0.2054  0.1322  0.2933
15218W        W71459  20.432  15.902   6.712  0.1255 -0.1490 -0.1043
15219W        W71460  22.509  33.060  13.696 -0.3923 -0.3878 -0.1929
15220W        W71461  34.944  31.230   5.757 -0.2379  0.2746 -0.1088
15221W        W71462  23.705   8.841  23.634  0.2349 -0.1142  0.1283
15222W        W71463  29.573  16.361  24.980 -0.4582  0.1167 -0.1197
15223W        W71464   6.505  26.492  24.168  0.0086  0.0368  0.0283
15224W        W71465  11.799  33.635  25.889 -0.2026 -0.1276 -0.0766
15225W        W71466  21.248   7.963   1.873 -0.3448  0.1496 -0.1300
15226W        W71467  18.437  27.430   2.770 -0.0965  0.1986  0.1264
15227W        W71468  30.951  10.362  20.842 -0.1930  0.0673  0.2426
15228W        W71469  30.553  10.766  15.442  0.1831 -0.0743 -0.0907
15229W        W71470  34.633  25.410  18.417  0.0887 -0.1660 -0.1348
15230W        W71471   2.330  14.022   1.261 -0.1190  0.0522 -0.3041
15231W        W71472  29.579  13.376  13.213  0.2705  0.1630 -0.1297
15232W        W71473   8.442   1.589  25.736  0.0804 -0.0096  0.1344
15233W        W71474  27.531  23.658  25.565 -0.2704 -0.0342  0.0468
15234W        W71475   9.228  17.609   7.342  0.2088 -0.0392  0.1499
15235W        W71476  19.135   4.555  18.448 -0.2973  0.0743  0.0940
15236W        W71477   3.933  19.048  24.574 -0.0081 -0.1052  0.0243
15237W        W71478  20.889  33.925  19.507 -0.1045  0.0108  0.1864
15238W        W71479  32.663  11.280  14.261 -0.0636 -0.2178  0.0307
15239W        W71480  18.805  28.849   5.296  0.4619 -0.0724 -0.3015
15240W        W71481  10.468  12.212  10.554 -0.0032  0.2097 -0.0326
15241W        W71482   2.995  19.798  20.898  0.3466  0.2492 -0.0408
15242W        W71483  30.557  21.205   7.892 -0.1455  0.0055 -0.2095
15243W        W71484  14.013  34.896   6.402 -0.1094 -0.2114 -0.3612
15244W        W71485  29.216  32.022  23.768  0.2128 -0.5893 -0.0370
15245W        W71486  19.908  27.094   3.551 -0.1897 -0.0676 -0.4043
15246W        W71487  26.995  16.921   9.079 -0.4162 -0.0391  0.1437
15247W        W71488  18.631  17.061   2.436  0.3744  0.0580  0.0305
15248W        W71489  15.690  16.269  12.460  0.0432 -0.0725 -0.2603
15249W        W71490   4.539  24.769   7.159  0.0120  0.0048  0.2438
15250W        W71491  11.477  10.933  19.589 -0.1997 -0.0715 -0.1520
15251W        W71492   8.206   3.338  12.795 -0.3750 -0.1011 -0.0027
15252W        W71493  22.576  27.277   5.592  0.1690  0.1137 -0.2122
15253W        W71494  10.254  16.197  10.456 -0.0660 -0.0033 -0.0392
15254W        W71495   3.356  28.763  20.912 -0.0437  0.1280  0.0302
15255W        W71496  16.960  18.179  23.749  0.0217 -0.2041 -0.0464
15256W        W71497   5.851  15.469   3.556 -0.1019 -0.2532  0.2411
15257W        W71498  19.215  24.500  23.788 -0.4098  0.0239 -0.1536
15258W        W71499  10.399  20.269   0.994 -0.3416 -0.1790  0.1624
15259W        W71500  10.765   6.394   9.361 -0.1541 -0.1822 -0.1425
15260W        W71501   8.846  19.663   0.163  0.0571  0.0446 -0.1487
15261W        W71502  16.820  27.778   1.827  0.1037 -0.1195  0.0923
15262W        W71503  18.791  25.282  24.768 -0.0463  0.0340  0.0153
15263W        W71504   9.728  28.729  22.088  0.0586  0.0766  0.2863
15264W        W71505  11.318  27.172   0.668  0.2268  0.0162 -0.0238
15265W        W71506  29.201  30.619  16.907 -0.0396  0.1317 -0.1991
15266W        W71507  17.343  29.470   1.553  0.1299 -0.1115 -0.0375
15267W        W71508   9.265  14.072   7.428 -0.0721  0.1768  0.0530
15268W        W71509  21.656  12.026   4.799  0.2495  0.0448 -0.1546
15269W        W71510   6.925  33.499  13.936 -0.1484  0.0138  0.0304
15270W        W71511  14.667  10.473  18.702 -0.0763  0.1848  0.2065
15271W        W71512   5.617  18.744  23.968  0.1622 -0.3271  0.2273
15272W        W71513  35.162  19.978  15.975 -0.0080  0.1541 -0.1225
15273W        W71514  29.132  28.675   0.743 -0.0673  0.1257 -0.1906
15274W        W71515  18.154  17.085   1.304 -0.0959  0.3255  0.1396
15275W        W71516   4.643  11.178  22.887  0.1943  0.1830 -0.1150
15276W        W71517   5.612  19.640  22.160 -0.2223  0.1454  0.2868
15277W        W71518  27.815  34.615  25.224 -0.0743 -0.1909  0.5727
15278W        W71519  33.473  24.105  21.960  0.0623 -0.1094 -0.0681
15279W        W71520   2.934  33.856   6.361  0.3173  0.2496 -0.1863
15280W        W71521  19.233  26.255  23.287  0.1307  0.2153  0.0296
15281W        W71522  16.558  12.399   1.424  0.3450 -0.1514 -0.2059
15282W        W71523   2.556  11.788  22.902 -0.1001  0.3621  0.1678
15283W        W71524  24.967  27.408  18.146  0.2315  0.1292 -0.1913
15284W        W71525  14.589  31.274  24.078 -0.0299 -0.1558 -0.0906
15285W        W71526  12.209  34.970   1.170  0.0474 -0.4302  0.2375
15286W        W71527  21.332  33.334   4.723 -0.0573  0.2142 -0.1874
15287W        W71528  16.478   9.942  23.585 -0.0917 -0.2146  0.3500
15288W        W71529  16.313  20.287   0.399 -0.3308 -0.2286 -0.0382
15289W        W71530  10.319  12.252   3.895  0.0976 -0.1489  0.0330
15290W        W71531  29.626  26.417  24.384 -0.0383 -0.1507 -0.0173
15291W        W71532  22.310  35.247  22.266 -0.2228 -0.1027 -0.0742
15292W        W71533  25.256  14.078  24.839 -0.0887 -0.0650 -0.3020
15293W        W71534  15.848   6.684   8.585 -0.1264 -0.0907 -0.2902
15294W        W71535  30.133  20.636  24.430 -0.0826 -0.0729  0.3068
15295W        W71536  16.559  23.756   5.241  0.0294  0.4171 -0.0930
15296W        W71537  25.682  27.331  17.459 -0.0506  0.1182  0.0436
15297W        W71538   9.789   2.812  22.049 -0.2597  0.1434 -0.0347
15298W        W71539  29.019  32.206  22.467  0.1643  0.1732  0.2407
15299W        W71540  25.019  34.247  23.106 -0.0738  0.0838  0.0325
15300W        W71541  23.369  32.510  14.472 -0.1210 -0.0993  0.4371
15301W        W71542  27.949   6.105  18.577 -0.0807 -0.1625 -0.0538
15302W        W71543  12.204   0.736   2.917  0.2513 -0.3921 -0.0055
15303W        W71544   6.263   4.152   8.367  0.0206  0.0348 -0.1184
15304W        W71545  20.153  16.689  20.919  0.0821  0.2006 -0.3021
15305W        W71546   4.486   5.502  22.884  0.0453  0.0109 -0.0286
15306W        W71547  10.148  34.956   8.067  0.2229 -0.0359  0.1081
15307W        W71548  14.491  23.833   6.812 -0.2863  0.0399 -0.0978
15308W        W71549   1.069  14.392  10.012 -0.1004 -0.0388  0.2286
15309W        W71550  25.671  29.732  20.564  0.0872  0.1143  0.1077
15310W        W71551  26.675  28.704  21.338  0.3186  0.0326 -0.0830
15311W        W71552  31.856   6.429  22.674  0.2332 -0.4174 -0.0560
15312W        W71553  33.729  19.259  13.232 -0.0380  0.1154 -0.3169
15313W        W71554   9.482  21.680   2.271 -0.0124  0.3696  0.0612
15314W        W71555  26.781  12.454  18.126  0.0862  0.2495  0.1339
15315W        W71556  17.090  27.067   5.535 -0.1252  0.3769  0.1530
15316W        W71557  18.512  34.029   7.802 -0.0965  0.0104 -0.0830
15317W        W71558  29.338  17.011  11.004 -0.2407  0.3273  0.0987
15318W        W71559  32.919  20.196  11.703  0.3985  0.1018  0.1475
15319W        W71560  27.484  11.422  15.436 -0.2141 -0.0877 -0.1698
15320W        W71561  26.536  35.065  17.482 -0.1237  0.1254 -0.0060
15321W        W71562   7.758   6.987   8.614  0.2766  0.2535  0.0669
15322W        W71563  20.716   7.553  23.227 -0.1287 -0.1761 -0.0464
15323W        W71564   0.368   0.733   7.697 -0.0669 -0.1526  0.2186
15324W        W71565  34.188  23.984  12.572  0.3212  0.0007 -0.0076
15325W        W71566  28.257  13.799   8.645 -0.1179 -0.2745 -0.2128
15326W        W71567  12.075   5.825  26.222  0.2634 -0.0805 -0.1884
15327W        W71568  33.539  29.612  20.643  0.1610 -0.2947  0.1579
15328W        W71569  25.542   1.649  13.278  0.0843  0.2688  0.2591
15329W        W71570  20.712   5.322   9.142 -0.1815  0.2359  0.0925
15330W        W71571  19.067  12.414  22.268 -0.3109  0.0123  0.2320
15331W        W71572  34.660  25.335  11.047 -0.1094 -0.1458 -0.0179
15332W        W71573  14.715  15.782  19.006 -0.1008  0.2141  0.1109
15333W        W71574  21.854  17.542  19.891  0.1364 -0.3627 -0.0829
15334W        W71575  17.939  32.261  22.046 -0.0189 -0.1287 -0.0775
15335W        W71576  12.961  34.356  10.458 -0.0203 -0.2192 -0.0364
15336W        W71577  35.303  10.201   0.808 -0.0981  0.0749  0.1066
15337W        W71578  29.946   0.135   2.616 -0.0374 -0.0199  0.0007
15338W        W71579   5.504  24.123   2.353  0.0920 -0.2953 -0.2342
15339W        W71580   1.530  32.245   3.575  0.0765  0.0753  0.1673
15340W        W71581  30.263   9.621  25.278  0.0001  0.0669  0.0976
15341W        W71582   4.430  15.707   5.557 -0.1316  0.1125  0.1724
15342W        W71583   4.624  26.680   2.469  0.3593 -0.5127  0.0065
15343W        W71584   1.523   0.151   9.450  0.1132  0.0222  0.1983
15344W        W71585  25.485  34.437  18.764  0.2334 -0.3032 -0.4685
15345W        W71586  26.260  24.990  11.514  0.0953  0.0335 -0.0036
15346W        W71587  22.667  20.930   0.541  0.0885 -0.1634  0.1179
15347W        W71588  10.312  25.133  12.224  0.0460  0.0477 -0.1771
15348W        W71589  32.157   2.983   6.424  0.0059 -0.2532 -0.3548
15349W        W71590  29.618   3.755   2.105 -0.1496 -0.1655  0.0694
15350W        W71591  15.880  14.940  20.137  0.0214 -0.0958  0.2081
15351W        W71592   2.467  23.283  24.896  0.4301  0.0396  0.2106
15352W        W71593  30.410  15.804  18.689  0.3287 -0.0003 -0.1041
15353W        W71594  31.949  25.870  25.500  0.1438 -0.1086 -0.0539
15354W        W71595  10.643  35.163   5.002  0.2406  0.1698  0.0121
15355W        W71596  34.084  18.617   6.406  0.0355  0.2295  0.1756
15356W        W71597  17.350  24.257   2.925  0.2903 -0.2794 -0.2080
15357W        W71598   6.885  22.977   7.337 -0.2181  0.5126 -0.0823
15358W        W71599  16.367  16.784  24.997 -0.2174  0.3509 -0.2673
15359W        W71600   7.195  21.542   4.918  0.1671 -0.0544  0.0773
15360W        W71601  12.906  11.505   2.663  0.1534  0.0378 -0.0145
15361W        W71602  14.333  35.276   6.965 -0.4308 -0.3380  0.1111
15362W        W71603  12.293  26.552  22.001 -0.0352  0.1419  0.1414
15363W        W71604  30.133  18.938  14.146  0.0014 -0.0355  0.1847
15364W        W71605  14.564   1.937   0.363  0.1338 -0.2342 -0.3751
15365W        W71606   3.468  30.873   1.269  0.2567  0.0295 -0.0553
15366W        W71607  32.433   5.852  24.031  0.0521 -0.4740  0.1532
15367W        W71608  17.536  21.073   8.488 -0.0782 -0.1775 -0.1997
15368W        W71609  26.897   4.533  15.006 -0.1646  0.1142 -0.1739
15369W        W71610   5.151  13.760   3.323 -0.2572  0.0926  0.1274
15370W        W71611  12.106  34.211  23.926 -0.0051  0.2230 -0.0947
15371W        W71612  21.659   1.878   7.914  0.0048  0.0880  0.2399
15372W        W71613   5.280   5.670  19.260 -0.0577  0.0179 -0.3446
15373W        W71614  13.968  13.092  10.852  0.3639  0.0252  0.0569
15374W        W71615   9.768   6.842   6.170 -0.1283  0.1949 -0.0794
15375W        W71616  30.752   1.107  18.765 -0.1439  0.0882  0.0271
15376W        W71617   0.193  15.363  17.123 -0.1896  0.2872 -0.0755
15377W        W71618  14.111  26.928   1.485  0.1649 -0.0249  0.0965
15378W        W71619  10.100  23.501  11.316  0.0810 -0.4032 -0.1858
15379W        W71620   6.546   2.280  23.155 -0.2432  0.0040  0.0016
15380W        W71621   5.650   2.242  21.546  0.1202 -0.1312  0.0025
15381W        W71622  31.859  17.212  16.625  0.0087 -0.0319  0.0648
15382W        W71623  32.012  25.634  14.008 -0.1893  0.3669  0.0597
15383W        W71624  20.948  16.433  18.179 -0.1359  0.3246  0.1331
15384W        W71625  29.261  34.291  11.608 -0.1303  0.0008 -0.1882
15385W        W71626   0.524   4.016   2.990  0.0902  0.2135 -0.1143
15386W        W71627  24.370  18.594   9.909  0.3110 -0.0608 -0.0143
15387W        W71628   9.588   8.362  24.259  0.1602  0.2707 -0.2110
15388W        W71629  20.820  33.190  26.145  0.1963  0.1032  0.0863
15389W        W71630  24.081  14.376   1.643 -0.3250  0.0091 -0.0218
15390W        W71631  30.924  13.792  16.446  0.2110  0.0292 -0.2857
15391W        W71632  35.299   2.813  23.345 -0.0281 -0.0348  0.0859
15392W        W71633  13.166  30.480  24.815 -0.4481 -0.2051 -0.1015
15393W        W71634   0.446  20.854  13.717  0.1943  0.2192  0.0585
15394W        W71635  17.940  23.891   0.641 -0.0150 -0.2244 -0.1819
15395W        W71636  31.957  16.924  20.894 -0.2146 -0.1349 -0.1664
15396W        W71637  18.603   3.058   8.130 -0.0555  0.2760  0.0186
15397W        W71638  24.801   4.270   2.595  0.0258 -0.1383  0.0250
15398W        W71639   6.097  15.482   4.882  0.2485 -0.0933  0.0292
15399W        W71640  17.807  20.705   2.675 -0.1639  0.0293  0.1650
15400W        W71641   2.685  15.625  15.411  0.1364 -0.0494 -0.0106
15401W        W71642  14.164  24.277  11.220  0.4171 -0.0433  0.0030
15402W        W71643  13.616  17.548  20.147  0.0666 -0.1278  0.1137
15403W        W71644  14.773  34.261   9.248  0.0693  0.1460 -0.0855
15404W        W71645  15.871   4.889   3.870 -0.0764 -0.2893  0.0891
15405W        W71646   0.691  30.635  19.783 -0.2200  0.1204  0.2569
15406W        W71647   7.760  21.389  21.867 -0.1733  0.2656 -0.0425
15407W        W71648  23.999   9.141   3.781 -0.0957 -0.2946  0.1909
15408W        W71649  31.919  13.420  19.353 -0.0004  0.0981  0.1423
15409W        W71650  15.351   5.782  13.058 -0.0695  0.0698 -0.1375
15410W        W71651   1.125  26.720   2.795  0.2518  0.1207 -0.1084
15411W        W71652  32.808  30.781  21.257  0.0667 -0.1356  0.2104
15412W        W71653   2.914  10.317  24.281  0.0153 -0.2391 -0.0556
15413W        W71654  11.791   2.891   0.497 -0.2442 -0.1451 -0.0475
15414W        W71655  31.966  23.071  19.065 -0.0421  0.3109 -0.0888
15415W        W71656  18.506  19.634   4.437  0.1132  0.0775  0.0259
15416W        W71657   6.614  21.230   1.401 -0.0441 -0.2805 -0.2502
15417W        W71658  30.545  12.225   9.578  0.2275 -0.2116 -0.0511
15418W        W71659  27.303  13.518  20.026 -0.0323 -0.0346 -0.2409
15419W        W71660  32.795  22.532  14.229  0.0542 -0.0163  0.1570
15420W        W71661   0.385  30.690  16.336  0.4100 -0.0951 -0.1469
15421W        W71662  34.432  13.566   9.907 -0.0700  0.0481 -0.0636
15422W        W71663  25.339  15.645  16.532 -0.1788 -0.0428  0.1249
15423W        W71664  12.715   9.295  12.658  0.0489 -0.2282  0.2423
15424W        W71665  22.733  10.311  22.847  0.0400 -0.1263  0.0926
15425W        W71666  12.580   5.117  19.331 -0.1028 -0.0644  0.1659
15426W        W71667  13.158  13.949   1.413  0.2389 -0.3252  0.0318
15427W        W71668   9.550  10.664   6.027  0.0856  0.1512 -0.2183
15428W        W71669  10.910  14.377  18.626 -0.0168  0.0088 -0.4450
15429W        W71670  15.620  14.088  24.000 -0.5182 -0.1185  0.0805
15430W        W71671   7.616  33.479   1.565 -0.1502 -0.0546 -0.1653
15431W        W71672   4.332   7.817   2.236  0.2326  0.1322 -0.2590
15432W        W71673  27.561  18.919  12.245 -0.1136  0.1631  0.2977
15433W        W71674   4.898   2.790  23.867  0.2129  0.0993 -0.0487
15434W        W71675  29.440  12.141  20.239  0.2441  0.0829  0.0132
15435W        W71676   1.894  22.573  13.241  0.0778  0.0404 -0.1965
15436W        W71677   6.750  10.048   2.652 -0.0714 -0.3131 -0.0274
15437W        W71678   2.469  31.431   0.297  0.0409 -0.0388 -0.1351
15438W        W71679  15.271  20.031  14.384 -0.2261 -0.0004 -0.1325
15439W        W71680   5.328  19.463   6.345 -0.4091  0.0751 -0.3044
15440W        W71681  32.617  34.472   5.248  0.2933 -0.3080 -0.0176
15441W        W71682   7.613  23.481   8.818 -0.2228 -0.1950  0.1854
15442W        W71683  27.533  11.816   9.843 -0.2090  0.3916 -0.0008
15443W        W71684   6.853  33.835   9.783 -0.0168  0.0087  0.0097
15444W        W71685   3.539   6.409  24.738 -0.1779  0.1996  0.0922
15445W        W71686  31.928  12.615  21.583  0.1815 -0.0258  0.0793
15446W        W71687   5.462  23.496   6.142  0.1396 -0.0205  0.0341
15447W        W71688  22.428  32.214   2.908 -0.0548 -0.1543  0.1484
15448W        W71689  19.333  17.622   7.390  0.0172  0.0578  0.1226
15449W        W71690   6.935  16.359  23.714 -0.0985 -0.1853 -0.3602
15450W        W71691   1.522  28.795  24.065 -0.0493  0.0182 -0.3108
15451W        W71692  25.349  20.585  18.042 -0.1496  0.1670 -0.1984
15452W        W71693  10.237  17.651  21.583 -0.2211  0.2740 -0.0130
15453W        W71694  15.032   1.907  20.978  0.4598 -0.0461  0.0325
15454W        W71695   0.096  33.922  18.822  0.2474 -0.1427  0.2433
15455W        W71696  29.105   4.847  21.620 -0.3477  0.0985 -0.0120
15456W        W71697  30.680   9.268  18.414  0.1134  0.0816 -0.0856
15457W        W71698  23.171   6.019  15.191  0.1882  0.0501 -0.1687
15458W        W71699   1.330  13.389   3.291 -0.0612 -0.2529 -0.0978
15459W        W71700  12.865  21.313   6.556  0.0971 -0.1089 -0.1243
15460W        W71701   0.765  32.485  16.164 -0.1900 -0.0971  0.5212
15461W        W71702   9.828  17.875   2.056  0.3118  0.0852 -0.1109
15462W        W71703  23.722  28.072  19.202  0.2775 -0.3347 -0.0234
15463W        W71704  15.810   2.624  17.368  0.2072  0.2193  0.2504
15464W        W71705  20.889   5.155   6.981 -0.1164  0.3397 -0.2808
15465W        W71706  15.302  22.983   1.426  0.0042 -0.0522 -0.0724
15466W        W71707   6.682   0.783   5.797  0.2269  0.2305  0.0857
15467W        W71708  10.340  24.534  16.196 -0.0614 -0.2878 -0.1092
15468W        W71709  31.124  14.685  20.925 -0.3764 -0.0774  0.1136
15469W        W71710  12.696  13.237   2.305 -0.1574 -0.1340 -0.2404
15470W        W71711   7.042   9.339   7.300  0.0158  0.0046 -0.4372
15471W        W71712  18.104  25.956   1.441 -0.0927 -0.1701  0.2154
15472W        W71713  25.935   4.714  25.184  0.2645 -0.1547 -0.2630
15473W        W71714  26.693  33.390  15.098 -0.0710  0.0557  0.1544
15474W        W71715  17.224  14.067   3.330 -0.0962  0.0685  0.1920
15475W        W71716  33.475   3.996  23.960  0.0480 -0.4085 -0.2454
15476W        W71717  29.829  20.941   9.404  0.0516  0.2587  0.0829
15477W        W71718  28.137  26.015  16.643 -0.0036  0.1836  0.2498
15478W        W71719   2.441  33.446  18.031  0.3265  0.2336 -0.0868
15479W        W71720   5.433  13.238  19.629  0.2429 -0.1677 -0.0789
15480W        W71721  33.437  13.664   7.461 -0.2503 -0.1234 -0.0023
15481W        W71722  14.646  24.431  24.711 -0.1022  0.0128 -0.1250
15482W        W71723  10.251   0.127   7.413 -0.1310 -0.1463 -0.0385
15483W        W71724  11.481  31.535  12.818  0.2449 -0.0278 -0.1112
15484W        W71725  20.236   4.989   1.438 -0.0077  0.3131  0.2287
15485W        W71726  28.125  19.719  24.735 -0.1528  0.1086 -0.0549
15486W        W71727   2.549  17.029  19.929  0.0178 -0.1221  0.1262
15487W        W71728   7.761  30.461   9.983  0.1040  0.2960  0.1230
15488W        W71729  25.452   4.361  23.186  0.1583  0.4380  0.0741
15489W        W71730  28.422  13.139  25.947 -0.0790  0.1647 -0.0405
15490W        W71731  24.813   8.471  15.312  0.0198  0.1095 -0.0825
15491W        W71732  22.270  33.247  25.146  0.0619  0.2235 -0.2930
15492W        W71733   8.055  29.328   9.353  0.0953  0.2318 -0.1388
15493W        W71734  10.932  27.242   4.043 -0.4380 -0.2502 -0.2812
15494W        W71735  18.468  16.479  10.863  0.2204 -0.0119 -0.0873
15495W        W71736  25.842  14.361  15.443  0.1476  0.7044  0.2911
15496W        W71737  33.801  23.674  21.367 -0.3174 -0.1405 -0.1111
15497W        W71738  10.127  13.715   7.054 -0.4436  0.1876 -0.1902
15498W        W71739   3.450   3.097   6.378 -0.1180  0.0849 -0.5945
15499W        W71740  18.764  28.328  26.248  0.0003 -0.3963  0.0325
15500W        W71741  21.367  13.615   2.186  0.1592 -0.0276 -0.0891
15501W        W71742  35.185   4.269  26.052 -0.3207  0.0219 -0.0501
15502W        W71743  21.677  18.042  20.172  0.1032 -0.2639  0.0627
15503W        W71744  32.328   1.597  23.061 -0.0343  0.1892  0.1626
15504W        W71745  32.461  15.607  14.224 -0.1551 -0.0603 -0.0245
15505W        W71746  32.693   4.439  22.214 -0.1595  0.0324  0.1379
15506W        W71747  11.108   2.194  21.007 -0.2186 -0.2597 -0.1577
15507W        W71748  25.677  25.130   9.322  0.3364  0.1170  0.0104
15508W        W71749  22.556  27.612  13.973  0.2237  0.2743 -0.0724
15509W        W71750  12.002  23.873  23.885  0.1687  0.3052  0.0774
15510W        W71751  32.127  17.500   7.192  0.4447 -0.1231  0.2970
15511W        W71752  32.138  31.475  17.426  0.1018  0.0303 -0.3242
15512W        W71753  19.486  28.000  23.588  0.4181  0.0694  0.2550
15513W        W71754  31.779  11.106  25.463 -0.3219  0.0768 -0.1730
15514W        W71755   9.013   5.963  13.201 -0.0256 -0.1692 -0.0152
15515W        W71756  17.215  23.196   9.691 -0.1789  0.0322 -0.2509
15516W        W71757   8.783  30.282  23.842  0.3284  0.0545 -0.1941
15517W        W71758   2.397  27.814   6.591 -0.3216  0.3334 -0.2452
15518W        W71759   0.927  21.475  20.371 -0.1073  0.1801 -0.4013
15519W        W71760  30.021  27.266  13.506  0.0926 -0.1890  0.1483
15520W        W71761  23.390   3.950   5.140  0.4620  0.0022  0.2753
15521W        W71762  22.824  25.981  24.016  0.2017 -0.1441  0.1057
15522W        W71763  14.982  20.347   0.183  0.1528  0.0025  0.1513
15523W        W71764  30.948  10.297   0.663  0.2209 -0.0650 -0.2268
15524W        W71765  11.421   6.548  19.680 -0.0496 -0.3866  0.0116
15525W        W71766  19.822   5.092  18.971  0.1498  0.0738 -0.0060
15526W        W71767  27.355  14.443  23.992 -0.1138  0.0556 -0.1539
15527W        W71768  10.934  29.749   6.425 -0.1705  0.1777  0.1562
15528W        W71769  31.814  33.740   5.126 -0.0636 -0.2341 -0.1182
15529W        W71770  29.626  29.299   1.728  0.1064 -0.1779  0.0538
15530W        W71771  17.035   2.900  16.398  0.2377  0.1974 -0.2550
15531W        W71772  25.987  16.626   9.738  0.1359 -0.4890 -0.0731
15532W        W71773  14.274  34.818   2.519 -0.2090  0.0081  0.1470
15533W        W71774   1.542  14.293  19.722  0.1338 -0.0251 -0.0994
15534W        W71775   4.253  31.473  19.758  0.0410  0.0876  0.1279
15535W        W71776  28.539  33.525  14.662 -0.0511 -0.0985 -0.1980
15536W        W71777  23.416  17.201  17.900 -0.1111  0.4097  0.0504
15537W        W71778  14.467  29.965  25.359  0.1629  0.0921 -0.2863
15538W        W71779  31.268   4.242  16.032  0.2166  0.1284 -0.0077
15539W        W71780  27.549   3.586   5.159 -0.0905  0.0318  0.0858
15540W        W71781  23.480  30.890   5.618  0.1368 -0.3203  0.2552
15541W        W71782  33.604  18.414  15.090 -0.1158  0.3615 -0.0136
15542W        W71783   9.532  35.295  25.112  0.0499  0.1151 -0.1702
15543W        W71784   7.237   6.434  25.063 -0.0637 -0.3869 -0.0926
15544W        W71785  33.816  31.641  13.951  0.0517 -0.3172  0.1895
15545W        W71786  17.839  34.532  22.814  0.1412 -0.0553  0.1654
15546W        W71787  22.049  14.203  25.315 -0.3987  0.4231  0.0427
15547W        W71788  17.333  24.057  11.780  0.1965 -0.0897 -0.1485
15548W        W71789  18.411   6.148  25.134  0.3294  0.0938  0.3282
15549W        W71790   6.922  30.574  25.103 -0.1887  0.1218  0.1555
15550W        W71791  21.562  28.914   0.667  0.0345  0.0813  0.2157
15551W        W71792  28.069  19.162  13.326 -0.2680 -0.1720 -0.0369
15552W        W71793  34.939  17.115  21.078 -0.0764  0.3052  0.2166
15553W        W71794  19.126  24.526   7.434  0.0018 -0.0863 -0.2114
15554W        W71795  11.411  21.517   8.899 -0.0401  0.1396 -0.2747
15555W        W71796  26.286  18.928  16.784  0.2970  0.0977  0.1574
15556W        W71797  30.919  14.327  19.562 -0.2193  0.1604 -0.0026
15557W        W71798  26.902   1.709  13.724 -0.0641 -0.2502  0.2512
15558W        W71799  28.117  13.958  24.423  0.0714  0.0606 -0.2291
15559W        W71800  33.267   4.074  14.370 -0.4820 -0.2328  0.0233
15560W        W71801  15.333  15.133   6.591 -0.2331 -0.0266  0.5068
15561W        W71802  30.884  34.505  17.136 -0.0361  0.1703 -0.2407
15562W        W71803  32.999  16.161   8.166 -0.0437 -0.2680  0.0039
15563W        W71804  20.189   9.725  24.410 -0.3692 -0.0164 -0.2113
15564W        W71805   4.836  33.440  25.228  0.0481 -0.1918 -0.1062
15565W        W71806   7.675  32.035  14.915  0.0435 -0.1151  0.3387
15566W        W71807  21.038  32.798  15.049 -0.2258  0.0203 -0.1214
15567W        W71808  33.208  33.035   0.896 -0.3738  0.0529 -0.0412
15568W        W71809   1.595  15.168  18.449 -0.0599  0.4900  0.0156
15569W        W71810   4.261  13.941  24.696 -0.2799 -0.0362 -0.4074
15570W        W71811  13.534  16.387  24.480 -0.1369 -0.2130  0.1542
15571W        W71812  15.877  27.137  11.089  0.0023  0.3610  0.0160
15572W        W71813   4.721  16.424   3.813 -0.1235 -0.0911  0.0965
15573W        W71814   0.595  28.855   7.490  0.0631  0.2279  0.0984
15574W        W71815  22.581  15.068   0.792 -0.1547  0.0813 -0.0835
15575W        W71816  24.841   6.867  22.434  0.0141  0.2237  0.0818
15576W        W71817  13.745  29.849  14.375  0.2247  0.2593 -0.0196
15577W        W71818  33.919  29.317   1.089  0.1875 -0.0937  0.1105
15578W        W71819  10.433  12.289   2.036 -0.0506  0.3599  0.0924
15579W        W71820  26.994   8.311  25.117  0.0395 -0.0460  0.1138
15580W        W71821  19.074   6.451   3.626 -0.1662  0.2011 -0.1119
15581W        W71822  32.855   8.858  10.338  0.1496  0.2398 -0.0907
15582W        W71823   7.475  18.261   8.938  0.0023 -0.2198  0.1883
15583W        W71824  11.313  28.089   1.137  0.1279  0.5533 -0.4519
15584W        W71825  16.836   8.972  25.801  0.2505  0.1046  0.2482
15585W        W71826  10.659  35.175  10.415 -0.0351  0.0690  0.1149
15586W        W71827   8.074  33.459   5.270  0.3016 -0.0508  0.1117
15587W        W71828  31.177  32.991  20.301  0.2694  0.1699  0.0296
15588W        W71829  15.014  13.984  11.524  0.0710  0.4111 -0.2894
15589W        W71830   2.569   1.408  16.988  0.0429  0.0613  0.0026
15590W        W71831  13.590  19.734   8.735  0.3501 -0.1738 -0.1866
15591W        W71832   3.506  25.448  23.609  0.0492 -0.1999  0.1763
15592W        W71833  30.080  21.254  17.785 -0.0148  0.1119 -0.0829
15593W        W71834  24.265  27.983  19.299 -0.1913 -0.2035 -0.0616
15594W        W71835  32.134  12.207   5.727 -0.0366  0.2762 -0.1138
15595W        W71836  31.428   9.470   1.070  0.1682 -0.0987 -0.4172
15596W        W71837   8.906  28.934  24.091  0.1834  0.0460 -0.3390
15597W        W71838  11.105  27.164   5.561 -0.1385  0.3031 -0.2277
15598W        W71839  18.951  14.841  22.528  0.2604  0.3037  0.2446
15599W        W71840   4.858  30.857   8.464 -0.2105  0.3802 -0.1511
15600W        W71841  29.269   8.604  10.976 -0.3268 -0.0924  0.1310
15601W        W71842  28.682  30.194  14.334 -0.0417  0.0913  0.4506
15602W        W71843  32.270  19.210  23.495  0.0924 -0.5462  0.2386
15603W        W71844   4.925   3.658  22.841  0.1172 -0.0233  0.1187
15604W        W71845   2.126  35.140   3.241  0.3090  0.0460  0.0218
15605W        W71846   2.586  26.772   2.690 -0.0345 -0.0299  0.2215
15606W        W71847  23.296  30.502  21.407  0.0655 -0.1466  0.1296
15607W        W71848  24.663  24.160  24.281 -0.0823 -0.0531  0.0337
15608W        W71849  21.431   5.967  19.806 -0.0543 -0.4425 -0.1277
15609W        W71850   3.750   8.601  22.059 -0.1250  0.2037 -0.0968
15610W        W71851   9.014   4.145  23.810  0.1229 -0.0524  0.1728
15611W        W71852  32.118  28.537  21.372  0.0495 -0.1400  0.2184
15612W        W71853  22.463  30.060   2.362  0.0268  0.0597  0.1273
15613W        W71854  13.560  24.967  23.347 -0.2803  0.0984 -0.0809
15614W        W71855   1.819  18.003  12.302  0.2375  0.2756 -0.0793
15615W        W71856   3.271   1.717   4.978 -0.1513  0.0042 -0.1969
15616W        W71857  30.545   3.683  14.407 -0.0124 -0.1006  0.1242
15617W        W71858  16.396  19.312  13.602 -0.0614  0.0488  0.1728
15618W        W71859   1.469   4.168  16.915  0.1145 -0.0109 -0.2386
15619W        W71860  26.450  29.355  25.313 -0.0604  0.0327  0.2450
15620W        W71861  14.993  30.035  14.751 -0.0901  0.0161  0.0413
15621W        W71862  13.791  20.063   6.511 -0.1923  0.1378  0.0359
15622W        W71863   9.083  28.079   8.285 -0.0777 -0.1726  0.1162
15623W        W71864  27.411  25.509  18.712  0.0096 -0.1456  0.0419
15624W        W71865  25.089  33.038  24.725 -0.0854  0.0563  0.0858
15625W        W71866  29.120  35.273  17.359 -0.1891 -0.3731  0.0589
15626W        W71867  28.013  31.381  25.258 -0.0140  0.1415  0.0216
15627W        W71868  12.188  20.749   9.664  0.1650 -0.0875  0.1781
15628W        W71869  26.803   9.693  15.814 -0.1702 -0.0153 -0.1802
15629W        W71870   7.974   4.658   6.582 -0.1272 -0.3339  0.4365
15630W        W71871  16.785  30.156  25.030  0.2129  0.1104 -0.2998
15631W        W71872  21.677  34.665   5.050 -0.0033 -0.2424  0.0600
15632W        W71873  11.525  35.257  23.274 -0.0886  0.2751 -0.2207
15633W        W71874  10.981  32.438   1.954 -0.0523  0.0028 -0.4055
15634W        W71875  26.758  33.266  22.272  0.0011 -0.0922  0.5231
15635W        W71876  18.935  17.228  24.259  0.1163  0.0416 -0.0904
15636W        W71877   8.433  30.773  11.177 -0.0765  0.2892  0.1043
15637W        W71878  20.277  29.023   3.771 -0.0170 -0.2979 -0.2281
15638W        W71879  10.712  20.460  14.799 -0.1624 -0.0285  0.3116
15639W        W71880  27.222  17.840   6.641 -0.1328  0.1079 -0.0532
15640W        W71881  26.829   6.750  14.008 -0.1176 -0.0852  0.2280
15641W        W71882  10.990   8.933   2.521  0.1354 -0.2046 -0.0605
15642W        W71883  30.966  24.610   8.241  0.0035 -0.0117 -0.3982
15643W        W71884   2.123   8.752  26.197  0.0385 -0.0133 -0.1285
15644W        W71885  18.447  17.402   7.637 -0.3633  0.3045  0.3145
15645W        W71886   4.967  16.043  19.493 -0.0234  0.2362 -0.0992
15646W        W71887  10.533  16.479   0.945 -0.2466 -0.2729  0.1863
15647W        W71888  29.951  27.626   2.182  0.1836  0.2901  0.2901
15648W        W71889  32.152  32.679  24.661 -0.1909 -0.1849  0.0593
15649W        W71890  10.474  31.408   2.976  0.1633 -0.2675  0.2413
15650W        W71891  24.839  30.073  22.629  0.2931  0.3365  0.4807
15651W        W71892  15.508  14.102   2.352  0.0829 -0.0471  0.0146
15652W        W71893   8.100  34.593  13.024  0.2435  0.1259  0.0118
15653W        W71894  23.405  13.379  25.728  0.0748  0.0642  0.2687
15654W        W71895  24.538  27.029   9.769 -0.2236 -0.3036  0.1932
15655W        W71896   1.895   0.441  20.868 -0.1922 -0.0692  0.0480
15656W        W71897  35.045  13.666   8.541 -0.2751 -0.0609 -0.0018
15657W        W71898  31.852   3.034  21.797  0.3080  0.0247 -0.2346
15658W        W71899  32.242  19.780   6.647 -0.1956 -0.1133  0.0979
15659W        W71900  24.687  23.738  25.426 -0.0205 -0.0913  0.0425
15660W        W71901   0.218  22.075  19.885 -0.1993  0.2392 -0.0124
15661W        W71902  22.926  20.466  24.292  0.2791 -0.1677 -0.1072
15662W        W71903  16.574   2.674  23.378  0.1334  0.1137 -0.0877
15663W        W71904  15.356  16.999  12.542 -0.1824  0.0303  0.1838
15664W        W71905   7.623  14.558   6.929  0.1118 -0.2137  0.0598
15665W        W71906  30.428  35.164   1.451  0.1770 -0.2332 -0.1733
15666W        W71907  18.977   5.903   6.693 -0.1019 -0.1065  0.1685
15667W        W71908   3.832   8.651   1.609 -0.3149 -0.0560 -0.2275
15668W        W71909  18.891   7.421   1.326  0.0821 -0.0112 -0.0992
15669W        W71910   3.400  19.968  23.678 -0.1202 -0.0172  0.1626
15670W        W71911  16.361   4.345   1.141  0.0439 -0.2359 -0.0695
15671W        W71912  20.315  25.356   7.093  0.0313 -0.1608  0.3423
15672W        W71913  21.316  35.284  24.541 -0.0639  0.1427 -0.1313
15673W        W71914   1.361  16.450  14.836  0.0042 -0.0677 -0.2104
15674W        W71915  20.716  10.781   4.594  0.0027 -0.1009  0.2797
15675W        W71916   8.721   3.909  24.914 -0.2061  0.0209 -0.2127
15676W        W71917   8.202  32.539  10.608  0.1048  0.0089  0.2426
15677W        W71918  22.509  22.014   3.823 -0.2567  0.2248 -0.0676
15678W        W71919   0.288  29.794  24.549  0.3195 -0.0521 -0.1466
15679W        W71920  25.828  27.804  10.175 -0.2361 -0.1990  0.0332
15680W        W71921  34.382  21.042  17.756 -0.1626  0.0255  0.1083
15681W        W71922   3.278  32.638  12.010  0.0102 -0.0012  0.3881
15682W        W71923  26.162   2.872  24.178 -0.2665  0.2175  0.1316
15683W        W71924  16.342  14.587   9.895 -0.1046 -0.0268 -0.0543
15684W        W71925  26.117   2.213  11.388  0.2020 -0.2509  0.1284
15685W        W71926   4.413  32.075   0.974  0.3179  0.0391 -0.2531
15686W        W71927  24.165  15.776  18.498 -0.1193  0.0853 -0.0615
15687W        W71928  28.106  14.489   5.602  0.1003  0.1427  0.2955
15688W        W71929  17.847   7.115   4.779 -0.2259 -0.1239 -0.0752
15689W        W71930  20.552   1.187   7.447 -0.0760  0.0828 -0.0304
15690W        W71931  31.593  17.160  24.974 -0.2464 -0.0904  0.2164
15691W        W71932  31.047  27.889  19.916 -0.1755  0.0397 -0.2455
15692W        W71933  31.530  17.488   6.279  0.1674 -0.0425  0.0627
15693W        W71934  12.253  18.859   3.549 -0.0023 -0.2348 -0.0646
15694W        W71935  29.086  11.471  12.211 -0.2377  0.2218  0.1067
15695W        W71936  15.273  17.444   6.871 -0.4684 -0.0046 -0.3196
15696W        W71937  28.566  28.357  25.457  0.3720 -0.0175  0.0707
15697W        W71938  28.215  32.940   1.992 -0.0563 -0.1043 -0.1915
15698W        W71939  12.116  19.697  15.050  0.1157  0.0991 -0.0715
15699W        W71940   1.752  30.672   7.378  0.1172  0.1556  0.1030
15700W        W71941  26.999  18.001  17.870 -0.2667  0.1197  0.1266
15701W        W71942  26.010  18.071  23.106  0.2136 -0.0592 -0.0283
15702W        W71943  35.088   2.376  23.197  0.0291  0.2837  0.1578
15703W        W71944  19.478   2.475   9.950 -0.2721  0.0900 -0.0295
15704W        W71945   9.108  22.180  17.194  0.1328 -0.1600  0.0623
15705W        W71946   2.152   2.944   6.493 -0.2732  0.1276  0.0279
15706W        W71947  22.515  13.841  17.592  0.0190  0.1344  0.0691
15707W        W71948   4.288   0.730  25.565 -0.3069  0.2325 -0.2850
15708W        W71949   4.115  27.541  24.992  0.0652  0.2143  0.1001
15709W        W71950  22.465  23.058  21.353  0.2150  0.3369  0.0387
15710W        W71951  10.424  31.642  16.303  0.0852  0.1958  0.0579
15711W        W71952   7.137  18.253  22.401 -0.1995  0.1884  0.0450
15712W        W71953  19.223  34.562   3.119  0.4983  0.3286 -0.0280
15713W        W71954  17.761  15.660  21.269 -0.4639 -0.1214  0.3249
15714W        W71955  33.008  33.805  24.815  0.0376  0.2258 -0.2342
15715W        W71956  22.916   5.750  25.716  0.0313  0.3344 -0.2719
15716W        W71957   0.430  13.802   1.234  0.2568 -0.0503 -0.1167
15717W        W71958  26.531  13.257  15.963  0.2102  0.2376  0.2169
15718W        W71959  12.176  32.268  25.762 -0.0820  0.3788 -0.1047
15719W        W71960   4.303  34.329   3.921  0.1517  0.4102 -0.1142
15720W        W71961  29.712  29.895  10.534  0.2171 -0.2672  0.1646
15721W        W71962  17.649   7.026   9.822  0.2091  0.0866  0.1503
15722W        W71963  11.828  28.855   7.844  0.3122 -0.1462  0.0880
15723W        W71964  25.555  35.016  17.845 -0.1287 -0.2399  0.1401
15724W        W71965   4.953  35.180   6.266 -0.1357  0.0466 -0.1597
15725W        W71966  25.554  24.204  16.003  0.1947 -0.0172  0.1226
15726W        W71967  13.893  34.278   8.761  0.0628 -0.0089 -0.1360
15727W        W71968  17.436   2.543  22.106 -0.2509 -0.1167 -0.1710
15728W        W71969   9.505  20.126  22.325 -0.1956  0.0662 -0.2820
15729W        W71970  18.408   1.382  22.510 -0.0130  0.0524 -0.2533
15730W        W71971  29.016  29.256  22.790 -0.0954  0.0356 -0.2643
15731W        W71972   0.550  27.181  21.801 -0.2934  0.3670 -0.3656
15732W        W71973  14.949  31.035  12.881  0.2183 -0.0773 -0.2147
15733W        W71974  15.117  14.228   2.066 -0.1282 -0.0290  0.0652
15734W        W71975  15.880  19.943   7.328 -0.1704  0.4910 -0.0061
15735W        W71976   7.204  15.715  24.217  0.1702 -0.1056  0.4786
15736W        W71977  26.793  16.254  15.241 -0.0344  0.1255 -0.1580
15737W        W71978  18.874  16.765  23.981 -0.1140 -0.3075 -0.0912
15738W        W71979  22.654  30.265  14.843 -0.0175 -0.2297  0.1796
15739W        W71980  28.698  14.937  18.650 -0.4429 -0.1089  0.1051
15740W        W71981  24.808   2.517   3.628  0.0147  0.0740 -0.0419
15741W        W71982  12.641   0.478   1.076  0.1546 -0.0815 -0.1159
15742W        W71983   0.673   4.930  20.230 -0.0861 -0.2887 -0.4082
15743W        W71984  27.131  30.914  24.485 -0.1140  0.0733 -0.2154
15744W        W71985  32.767  31.080   5.929 -0.4231 -0.2164 -0.2352
15745W        W71986  30.518  13.251  12.937  0.2486 -0.1458  0.0118
15746W        W71987   3.100  10.052   7.016 -0.3819 -0.2324  0.1405
15747W        W71988  29.502  20.206  15.106  0.1757  0.0022  0.2071
15748W        W71989   9.562  34.831  11.828 -0.0247 -0.0103  0.1656
15749W        W71990   9.967  27.179  12.329  0.2625 -0.0519 -0.5814
15750W        W71991   5.427  30.136  14.353  0.2218  0.1622  0.1073
15751W        W71992  26.800  29.187  18.013  0.0168 -0.0071 -0.1691
15752W        W71993  31.754  18.061   4.995  0.1576 -0.2086  0.0845
15753W        W71994   2.839  14.578  15.016  0.1489  0.1832  0.1961
15754W        W71995  15.266  19.076   8.168  0.1096  0.0607  0.0227
15755W        W71996   0.035  10.592  17.895  0.2458  0.3426 -0.2134
15756W        W71997   9.125  11.098  21.422  0.1805  0.3401  0.0672
15757W        W71998   1.599   4.972  15.704  0.1115 -0.1749  0.1614
15758W        W71999   9.097   8.454  22.611 -0.0405 -0.1170  0.2897
15759W        W72000  20.843  29.546  16.435 -0.0397 -0.2440 -0.3419
15760W        W72001  34.711  18.329  23.410  0.2692 -0.4669 -0.1769
15761W        W72002  34.327  22.738  20.258 -0.0337  0.0452 -0.0124
15762W        W72003   3.912  32.434   5.895  0.2228 -0.0434  0.0647
15763W        W72004  10.954  10.616   6.531 -0.1190 -0.0588 -0.0483
15764W        W72005   4.019  10.972  23.782  0.1565 -0.1028  0.2196
15765W        W72006  23.074  14.274  21.156 -0.1323 -0.1563  0.0569
15766W        W72007   5.073   1.931   8.928  0.0038  0.0502 -0.0004
15767W        W72008  13.547  22.320   3.934 -0.0582 -0.0497  0.0465
15768W        W72009   6.635   1.008   2.918  0.0081  0.1846 -0.2063
15769W        W72010   5.983   3.021  10.308  0.1014  0.2048 -0.1113
15770W        W72011  32.953   7.171  14.310  0.0853 -0.3576 -0.2709
15771W        W72012  13.307  21.280  10.408  0.1074  0.0680  0.0793
15772W        W72013   5.869  14.114   8.891  0.0946  0.3700 -0.0184
15773W        W72014  17.095  18.142  24.752 -0.2416 -0.1334  0.1218
15774W        W72015   7.585   4.672   1.994  0.0955 -0.1778  0.2067
15775W        W72016   0.355  12.988  23.214 -0.2816  0.1461 -0.1650
15776W        W72017  22.762  33.496  15.862  0.1340 -0.3507  0.1415
15777W        W72018  33.499  31.963  20.412 -0.2206 -0.2891  0.2264
15778W        W72019  13.931  23.968  23.207 -0.0817  0.1323  0.2078
15779W        W72020  15.305  25.003   4.243 -0.0135  0.2926 -0.2744
15780W        W72021  32.135   3.436  23.700  0.2141  0.4501  0.0082
15781W        W72022   2.058  18.459  11.478  0.4745 -0.0284  0.1698
15782W        W72023   6.125   2.003   8.175 -0.1087  0.0201 -0.1921
15783W        W72024  21.573  10.731  21.951  0.1676 -0.2341  0.3947
15784W        W72025   4.499  20.537  23.220  0.3053 -0.2644  0.3353
15785W        W72026  17.185  23.772   2.216 -0.1769 -0.1194  0.1151
15786W        W72027  19.009   2.540  16.038 -0.0400  0.1656  0.3647
15787W        W72028  15.435  29.415   1.590 -0.3209  0.1056 -0.2476
15788W        W72029   7.479  11.045  21.237  0.0236 -0.0488 -0.0458
15789W        W72030   8.797  16.107  10.538 -0.0235  0.1244  0.2549
15790W        W72031  34.579  15.846   0.346 -0.4039  0.2460 -0.0968
15791W        W72032  30.642  23.150  24.680 -0.2573 -0.0411 -0.0266
15792W        W72033   1.028  32.898  18.892  0.1951 -0.0954 -0.0625
15793W        W72034  23.733  23.759  18.615  0.2730 -0.2268 -0.0996
15794W        W72035  15.902  19.952  24.793  0.3095 -0.2968  0.0799
15795W        W72036   7.870  16.848   2.659  0.0840 -0.0990 -0.2061
15796W        W72037  28.529   8.581  11.374 -0.0437  0.1964 -0.0840
15797W        W72038  14.306  22.449   8.445 -0.1230 -0.1707 -0.0810
15798W        W72039   2.154  23.264  13.559 -0.2230 -0.0971  0.3113
15799W        W72040  17.542  15.402   9.041  0.1101  0.1515 -0.0673
15800W        W72041   8.173  29.117  13.180 -0.3678 -0.0307 -0.4383
15801W        W72042   4.088  17.691  22.564  0.0274 -0.3060 -0.2748
15802W        W72043  26.354  25.082  19.957 -0.2210 -0.4054  0.1906
15803W        W72044  21.529  34.450  18.895  0.1128 -0.1030 -0.0937
15804W        W72045  33.950   4.714   3.220  0.0796 -0.0877 -0.0512
15805W        W72046   7.029  22.350  24.040 -0.2052  0.0281 -0.0741
15806W        W72047  35.065  33.504   7.626 -0.2011 -0.1779  0.0064
15807W        W72048  27.974  14.155  21.430 -0.0236  0.1664 -0.1685
15808W        W72049   1.289   0.662   7.742 -0.1753 -0.1287 -0.3533
15809W        W72050  19.052  20.317   9.931 -0.2018 -0.2085 -0.0685
15810W        W72051  31.485   6.356  14.054 -0.0652  0.0075 -0.1532
15811W        W72052  23.658  24.669  25.324 -0.1658 -0.0458 -0.2750
15812W        W72053   4.165   7.805  20.379 -0.0655  0.2950 -0.0461
15813W        W72054  17.048  21.373   2.594 -0.2660  0.0444 -0.0891
15814W        W72055  16.847  24.384  25.403 -0.2944 -0.0127  0.1486
15815W        W72056  26.257  12.373  25.996 -0.1133 -0.0300  0.1277
15816W        W72057  12.513  13.583   3.875 -0.0866 -0.0739  0.1727
15817W        W72058  12.273   7.607  12.781 -0.2628 -0.3191 -0.2236
15818W        W72059  24.635  33.085  22.493 -0.3817  0.2566  0.1509
15819W        W72060  33.662  20.929  14.161  0.1313  0.1090 -0.0747
15820W        W72061   5.742  25.499   0.137  0.1284 -0.0240 -0.1525
15821W        W72062  13.598  21.953  22.495 -0.1297 -0.2098  0.0047
15822W        W72063   7.676  32.503  25.144 -0.1356 -0.1753  0.2492
15823W        W72064  30.808  13.882  13.682 -0.1852  0.1629 -0.0084
15824W        W72065  28.776  20.824  14.086  0.2290 -0.0875  0.3260
15825W        W72066  28.594  31.106  26.021  0.1203  0.3615 -0.2459
15826W        W72067  14.583  23.101   5.669  0.0902 -0.1888 -0.2596
15827W        W72068  19.827  10.915   2.295 -0.0653  0.3917 -0.1221
15828W        W72069  19.592   7.794  19.531 -0.4735  0.1344 -0.1357
15829W        W72070  10.448  26.908  17.489  0.1521 -0.0030  0.1038
15830W        W72071  22.541   0.690  25.652  0.2922  0.1766  0.0063
15831W        W72072   2.715   3.451  21.385  0.2013 -0.2074 -0.1485
15832W        W72073  32.200  31.949  25.847  0.1627  0.0180 -0.0327
15833W        W72074  20.275   2.441   4.842  0.0404  0.3727 -0.2072
15834W        W72075  16.271  13.076   7.636 -0.0354 -0.1532 -0.0181
15835W        W72076  34.551   3.011   3.990 -0.1464 -0.3217 -0.3124
15836W        W72077  11.880  19.463  11.240 -0.2612  0.0108  0.2649
15837W        W72078   3.352   7.570  16.860  0.1987  0.0028 -0.3152
15838W        W72079  27.805   3.967   2.082  0.1721  0.1500  0.0930
15839W        W72080  14.945  17.825   6.531  0.1423  0.0282 -0.3156
15840W        W72081  22.515  18.619   0.782  0.0528 -0.1027  0.0940
15841W        W72082  23.385  31.643  20.694 -0.0745  0.1557  0.2406
15842W        W72083   4.524   7.896   1.670 -0.2938 -0.2372 -0.0425
15843W        W72084   2.766   3.288   0.192  0.3205 -0.4743 -0.1111
15844W        W72085  34.131  28.459  14.517  0.1454  0.6254  0.0452
15845W        W72086  29.549  15.439  18.713 -0.3144 -0.1483 -0.1540
15846W        W72087  22.772  30.546  13.399 -0.1022  0.2581 -0.0580
15847W        W72088  29.992  21.668  12.142  0.1430 -0.3305 -0.3147
15848W        W72089  16.154  18.623  11.392 -0.1036 -0.1835  0.0344
15849W        W72090  12.048  26.516  24.304 -0.1708 -0.0909 -0.1273
15850W        W72091   1.757   8.902  23.670  0.0885 -0.2858  0.2640
15851W        W72092  10.932   5.150   1.499  0.1023  0.2465  0.1303
15852W        W72093  21.140   9.838   6.715 -0.3550 -0.0272 -0.1875
15853W        W72094  12.169   1.395  21.060 -0.0061 -0.0985 -0.0861
15854W        W72095  26.223   5.181   2.925 -0.1597  0.4021 -0.0288
15855W        W72096  24.145   3.814   6.254 -0.0868 -0.3816  0.1746
15856W        W72097  30.825  24.726  22.896 -0.1810 -0.1213 -0.2967
15857W        W72098  24.870   1.167  17.592  0.1973  0.2128  0.0133
15858W        W72099   8.385   0.868  24.074  0.0395 -0.0514  0.0116
15859W        W72100  32.865  10.960  15.914  0.4595  0.0292 -0.2805
15860W        W72101  33.930  14.765  21.135  0.0925 -0.1637 -0.1172
15861W        W72102  31.716  10.900  18.290 -0.2200 -0.3926  0.2382
15862W        W72103   2.379  29.417   2.973  0.1162  0.1845  0.1696
15863W        W72104   0.030  20.832  18.310  0.4502 -0.2413 -0.1600
15864W        W72105  35.179  17.206  26.227 -0.1452 -0.0284 -0.0824
15865W        W72106  12.970   8.645  14.020 -0.2945 -0.0249  0.1300
15866W        W72107  32.151  11.660  22.693  0.0562 -0.0323 -0.1505
15867W        W72108  30.612   6.106  19.444  0.2736 -0.3362  0.1305
15868W        W72109   5.647  33.594   9.675 -0.1702 -0.2767  0.0337
15869W        W72110  17.655  17.255   9.513 -0.0009 -0.0620 -0.1634
15870W        W72111   4.965  29.250   5.420  0.0813  0.0224  0.2178
15871W        W72112   4.021   2.164  11.185 -0.0007  0.2832  0.1209
15872W        W72113   0.787  24.611  18.666  0.4151  0.1226 -0.0548
15873W        W72114  27.335  31.186  12.006 -0.0512 -0.0712 -0.1901
15874W        W72115  23.527   5.094   2.198 -0.0241  0.0358  0.0727
15875W        W72116   9.014  10.754  22.926  0.2163 -0.0091 -0.2539
15876W        W72117  25.203  27.740  24.647 -0.1145  0.0315  0.1596
15877W        W72118  20.848   2.482   2.846  0.2384  0.1317 -0.0388
15878W        W72119   0.825   3.782   3.876  0.4447 -0.1738 -0.0108
15879W        W72120  20.100   0.052   0.405 -0.1138  0.2070  0.4046
15880W        W72121   0.953  15.216  17.739  0.1010 -0.2693 -0.2463
15881W        W72122  15.944  26.726  23.358 -0.2827 -0.3646  0.0265
15882W        W72123  29.144  12.209  14.552 -0.2148 -0.1002 -0.1324
15883W        W72124  28.825   1.387  14.234 -0.1363  0.0761 -0.0246
15884W        W72125  28.479   0.914  21.447 -0.3196  0.0184  0.1527
15885W        W72126  24.911  15.018  26.048  0.0638  0.2015 -0.0932
15886W        W72127  34.795   1.167  17.782 -0.1807  0.1520  0.0299
15887W        W72128  14.532  25.756  22.463 -0.3523 -0.1614 -0.3863
15888W        W72129   2.501  27.546  22.193 -0.0136 -0.2230 -0.1157
15889W        W72130  25.839  15.621  16.883 -0.0397  0.2019 -0.0993
15890W        W72131   7.480   8.451   7.443  0.1279 -0.0389 -0.2938
15891W        W72132  19.219  13.367   9.765  0.1405 -0.1602 -0.1285
15892W        W72133  14.731  33.005  22.707  0.4362  0.1088 -0.0987
15893W        W72134  24.475  22.112  24.521 -0.0065  0.0172  0.1537
15894W        W72135  18.182  10.022  12.671 -0.1073 -0.0974 -0.0943
15895W        W72136  19.766  26.805  23.657 -0.4287 -0.1153  0.2695
15896W        W72137  12.037  15.333   6.822 -0.1140  0.4341  0.1711
15897W        W72138  21.803  25.350  15.414 -0.0485 -0.2987  0.1330
15898W        W72139  14.065  23.425  22.594 -0.1153 -0.1775 -0.0232
15899W        W72140  26.629  25.700  24.017  0.0242  0.2781  0.0633
15900W        W72141  24.954  15.081  12.385  0.0317 -0.0012  0.1708
15901W        W72142  30.606  14.553   4.847 -0.3421 -0.1340  0.2342
15902W        W72143  27.579  10.304  12.206  0.1564  0.1250  0.1897
15903W        W72144   2.443  21.693  22.399  0.1632  0.1138 -0.0237
15904W        W72145   5.075  24.915   0.099 -0.4079  0.2810  0.2671
15905W        W72146  12.907  31.926  14.733  0.2154 -0.1848  0.1140
15906W        W72147  27.025  15.878  22.266 -0.2009 -0.0509  0.1714
15907W        W72148  12.865   0.694  21.592 -0.0215 -0.0510  0.2815
15908W        W72149   4.787  20.946   3.036  0.0008 -0.1727  0.0289
15909W        W72150  23.639  19.355  15.327 -0.2663  0.2388  0.1735
15910W        W72151  22.294  27.445  15.632  0.2077  0.1590  0.0252
15911W        W72152  16.864  31.834   6.872 -0.4370  0.0746  0.1112
15912W        W72153  33.771   7.472   3.863 -0.0843 -0.1109 -0.2186
15913W        W72154  34.337   5.406  25.836  0.1389  0.1475 -0.2796
15914W        W72155  20.288  10.034   2.119 -0.3449  0.1567 -0.0999
15915W        W72156  18.208  28.405  19.452  0.1182  0.1516  0.3195
15916W        W72157  30.932   6.828  20.419 -0.1648 -0.1840 -0.2772
15917W        W72158  18.411  26.770  24.884 -0.2867 -0.2628  0.0592
15918W        W72159  29.919   7.522  13.701 -0.0832  0.3355  0.2134
15919W        W72160   1.224  23.359  12.983  0.0876 -0.0065  0.1627
15920W        W72161  24.013  18.283  22.047  0.1121 -0.0443  0.0611
15921W        W72162  11.399   9.381   2.047 -0.0764  0.2501  0.1143
15922W        W72163   2.901   5.677  15.827  0.1483  0.0393 -0.0248
15923W        W72164  17.895  18.601   6.103 -0.3449  0.0466 -0.1057
15924W        W72165  33.114   6.107  13.478 -0.1147 -0.0710  0.2584
15925W        W72166  28.914   6.752  19.452  0.0108 -0.0431 -0.0498
15926W        W72167  10.817  31.094   4.022  0.0966  0.0828 -0.3096
15927W        W72168  24.369  12.499  17.343 -0.1136  0.2956 -0.1895
15928W        W72169   7.410   7.486   0.258 -0.0191 -0.2922  0.1982
15929W        W72170  17.261  16.833  19.147 -0.1150 -0.0773  0.0332
15930W        W72171  10.324  30.849   7.025 -0.3227  0.1682 -0.1107
15931W        W72172  12.052  34.009  11.080  0.4003 -0.4335 -0.2920
15932W        W72173  32.738   5.034  20.379 -0.0370 -0.1033 -0.1204
15933W        W72174   2.973   1.473  25.036  0.1467 -0.1227 -0.0792
15934W        W72175  13.850  18.330  11.208  0.4905 -0.1227  0.0939
15935W        W72176   9.730  26.891  24.133 -0.0006 -0.0168 -0.1740
15936W        W72177  28.521   5.334  17.645  0.1078 -0.0382 -0.1225
15937W        W72178  11.428  17.351  10.513  0.0224  0.0943 -0.0427
15938W        W72179  35.192  13.971  10.161 -0.1359  0.0424  0.0445
15939W        W72180  18.084   9.342  22.527 -0.0828 -0.0159  0.0832
15940W        W72181  22.264  34.024   7.270 -0.2107 -0.0585  0.0601
15941W        W72182   4.495   1.195   5.357 -0.0668  0.3566 -0.1216
15942W        W72183   7.010   7.421   7.541  0.1019 -0.0604 -0.1581
15943W        W72184  13.315  11.204  25.425 -0.1570 -0.1790 -0.1006
15944W        W72185  33.410  16.285  25.112 -0.0171 -0.0692 -0.4196
15945W        W72186   4.078   0.204   2.236  0.3424  0.1216  0.2614
15946W        W72187  32.812  25.062  21.621 -0.1071 -0.0484  0.0166
15947W        W72188   0.609   8.419  26.080  0.1532 -0.0384  0.1654
15948W        W72189  12.951  33.472  21.046 -0.0882 -0.4305  0.0318
15949W        W72190  29.048  24.908  16.541 -0.0841 -0.0690  0.2104
15950W        W72191  17.558   8.591  19.152 -0.2878 -0.1636 -0.0532
15951W        W72192  30.801   0.818  21.782  0.1088  0.0283 -0.0791
15952W        W72193   8.888  33.422  21.659  0.1032  0.1598 -0.0256
15953W        W72194  17.924  29.521   6.414  0.2814  0.0806 -0.0163
15954W        W72195  23.164  13.430  13.707 -0.1501 -0.1481  0.4169
15955W        W72196   9.280  19.263  12.607  0.3576  0.0465  0.0031
15956W        W72197  11.447  21.051  12.554  0.3015  0.0619 -0.2246
15957W        W72198  29.470  14.573  13.469  0.1256  0.1193  0.0927
15958W        W72199  29.856  31.018  14.673 -0.1830  0.2708  0.4749
15959W        W72200   8.068   3.777   6.641  0.1301  0.2467 -0.2051
15960W        W72201  17.281  13.599   0.131  0.1381 -0.1356  0.0199
15961W        W72202   2.416  34.421   8.360  0.4312 -0.0822 -0.2137
15962W        W72203  31.047   0.454  21.367 -0.0653  0.0556  0.5735
15963W        W72204  25.376   0.774  12.938  0.0785 -0.0809 -0.0547
15964W        W72205  31.678  15.756  21.489  0.1326  0.0260 -0.1511
15965W        W72206   7.339  14.525   0.070 -0.1468 -0.0630 -0.0571
15966W        W72207   7.069  30.253  24.281  0.1033 -0.3109  0.2329
15967W        W72208  34.953  12.234   2.305  0.2150  0.2184 -0.4705
15968W        W72209  20.538   8.629   7.913  0.0167  0.0879 -0.1319
15969W        W72210  33.177  21.138  26.017  0.0755  0.1657 -0.2199
15970W        W72211  35.270  35.071  22.790 -0.0234  0.0057  0.0566
15971W        W72212   5.799  27.263   4.946 -0.3042  0.2274  0.2163
15972W        W72213   7.299  17.741  23.337 -0.0086 -0.1313 -0.1082
15973W        W72214   0.499  14.324  24.698  0.2048 -0.0547  0.2191
15974W        W72215  12.369  23.186  14.465  0.0627  0.1711 -0.4054
15975W        W72216   1.913  15.664  23.751 -0.0237  0.1844 -0.0877
15976W        W72217  18.960   6.046  26.199 -0.0041  0.0522 -0.0951
15977W        W72218  19.593   5.298   6.459  0.2524 -0.0872 -0.0262
15978W        W72219  28.727   6.195  13.633  0.3405  0.1248 -0.1504
15979W        W72220  22.930  31.498  21.450  0.2902 -0.0542 -0.1322
15980W        W72221   7.442   9.467  11.847 -0.1360 -0.3243  0.0203
15981W        W72222  27.259  27.813   0.983 -0.0072 -0.1572  0.1446
15982W        W72223  22.390  16.654   1.916 -0.0120  0.1984 -0.0159
15983W        W72224  16.439  13.598   7.717 -0.2125 -0.0906 -0.3127
15984W        W72225   6.400  12.695   0.135 -0.0720 -0.2865  0.1174
15985W        W72226  28.339   0.203  22.182 -0.1032 -0.1689 -0.0723
15986W        W72227   8.095  25.523   4.121 -0.2364  0.2002  0.0012
15987W        W72228   8.910  15.396  22.750 -0.1743 -0.1737  0.0589
15988W        W72229  35.274  11.216  21.793 -0.0640 -0.4498  0.0137
15989W        W72230  19.822  17.552   7.815  0.1063 -0.0362  0.1340
15990W        W72231  34.107  11.642  25.665  0.1753  0.1350  0.4648
15991W        W72232   3.352  20.988  16.366  0.1380  0.0521 -0.2740
15992W        W72233   6.013  27.120  23.778  0.0496 -0.0631 -0.3322
15993W        W72234  17.421  11.861   0.334  0.1978  0.0225 -0.3865
15994W        W72235   1.619  33.815  24.301 -0.1854  0.2359  0.3575
15995W        W72236  31.727   4.886  18.350  0.1434  0.1219 -0.0158
15996W        W72237   5.200  28.318   9.887  0.0418 -0.2242 -0.0787
15997W        W72238  11.412  20.518  21.614  0.0819 -0.3116 -0.1681
15998W        W72239   0.744  32.501   0.088 -0.1392  0.1433 -0.2495
15999W        W72240  17.380  23.062  20.887  0.2465 -0.2000  0.2053
16000W        W72241  14.787  20.471  24.994 -0.0547  0.1726 -0.0132
16001W        W72242  32.535  34.013  14.035 -0.2292 -0.2137 -0.2789
16002W        W72243   3.857  30.882  24.841 -0.3411  0.0777  0.2492
16003W        W72244  26.362  13.589  24.176  0.1761  0.0630 -0.3047
16004W        W72245   6.694  27.768   3.992  0.2962  0.0733  0.2811
16005W        W72246  23.445   2.958   5.172  0.1601 -0.0180 -0.0402
16006W        W72247  25.339   8.958   3.509 -0.1017  0.4199  0.1038
16007W        W72248   9.724  27.804   9.938 -0.0035 -0.2568  0.1931
16008W        W72249  28.292  23.712   5.695  0.2659  0.3080  0.1707
16009W        W72250  23.218  25.161  15.125  0.1643  0.0031  0.1178
16010W        W72251   7.716  31.723   7.383  0.3375  0.0096  0.0236
16011W        W72252  23.391   4.730   4.033 -0.0370  0.3276  0.1196
16012W        W72253  26.309  30.125  16.470  0.2723  0.1761 -0.0416
16013W        W72254  25.413  33.877  23.798 -0.1957  0.1503 -0.0131
16014W        W72255   6.185  22.539   7.786  0.1371 -0.1816 -0.1254
16015W        W72256  32.090  28.252   0.617  0.2575  0.0703  0.1508
16016W        W72257  23.034   8.952   2.078  0.1495  0.0769  0.0233
16017W        W72258  16.107   3.149   5.806  0.0871 -0.1148  0.0994
16018W        W72259  28.709   2.635  23.834  0.4509 -0.1662  0.2197
16019W        W72260  23.644   5.265  25.581  0.2669  0.0478  0.0467
16020W        W72261  35.379  14.545  22.193 -0.0896  0.2076  0.2208
16021W        W72262  13.368  32.334   3.679  0.1231  0.0591  0.0716
16022W        W72263   8.292  29.435  13.636 -0.1222  0.0445  0.1491
16023W        W72264  13.363  14.597  11.308 -0.0352 -0.1486 -0.4333
16024W        W72265   7.104  30.981   6.962 -0.1194  0.1833 -0.0789
16025W        W72266  30.297  10.305   8.934  0.0512 -0.0062 -0.0276
16026W        W72267  33.254  25.066  25.326 -0.3377 -0.0538 -0.1406
16027W        W72268   7.455  21.435  20.838  0.2355  0.2008  0.0309
16028W        W72269  15.742  11.569  12.520  0.1065  0.2230  0.1520
16029W        W72270  28.617  14.752  17.473  0.2445 -0.0657 -0.1042
16030W        W72271  31.287  13.197   9.396 -0.3469 -0.0168 -0.0207
16031W        W72272  25.203   8.876  15.638  0.2964  0.1757  0.0439
16032W        W72273  10.191   9.433  10.968 -0.1526  0.0346  0.0933
16033W        W72274  10.026   7.737   5.564 -0.0709 -0.0474 -0.3984
16034W        W72275  19.293  20.678  22.233  0.0034 -0.1265 -0.1256
16035W        W72276  14.654  24.646   5.468 -0.0465 -0.0791  0.2450
16036W        W72277   4.365  23.895   6.495  0.0330 -0.2247  0.0061
16037W        W72278  21.281   8.907  19.705  0.3195  0.1209  0.5114
16038W        W72279  21.925   7.959   2.604 -0.4842 -0.1855  0.3225
16039W        W72280  19.449  29.309  22.940 -0.1884 -0.4246 -0.0355
16040W        W72281  11.419   1.267  19.739 -0.1707  0.1419  0.0058
16041W        W72282  31.726  31.403  23.436 -0.2345 -0.0762 -0.1532
16042W        W72283   2.646   3.769   6.855  0.1378 -0.1402 -0.1443
16043W        W72284  29.254  24.546   1.299  0.2867  0.1698  0.0962
16044W        W72285  22.369   2.322  14.267 -0.1660  0.0372  0.2921
16045W        W72286  30.218  17.112  12.245 -0.1305  0.0092 -0.2336
16046W        W72287  26.743  28.648  14.552 -0.0230  0.2549  0.1402
16047W        W72288  16.977  15.660   0.692  0.0673  0.1956  0.0376
16048W        W72289   4.194  21.698   5.548 -0.1309  0.0495  0.0209
16049W        W72290  10.804  31.251  12.714  0.0105 -0.0768  0.0882
16050W        W72291   9.339  20.728  15.690  0.2836  0.1424  0.3564
16051W        W72292   0.054   0.455   6.944 -0.4001 -0.0430 -0.1156
16052W        W72293  18.827  31.309   0.346 -0.2864  0.0470 -0.1820
16053W        W72294  20.984  25.089   0.653  0.2126  0.1544  0.0344
16054W        W72295  31.566  20.800  21.564  0.0435 -0.4757  0.0958
16055W        W72296  17.289  30.227   3.530 -0.2145  0.2333  0.0287
16056W        W72297  24.635   5.133  25.677  0.1056  0.0111 -0.1519
16057W        W72298  22.760  16.809  20.052  0.2944 -0.0658  0.3385
16058W        W72299  19.219  15.028  16.919  0.0862 -0.0937  0.0636
16059W        W72300  32.925   2.587  23.261  0.1321 -0.2736 -0.0494
16060W        W72301  22.002  30.705  13.816 -0.0588 -0.2160 -0.0066
16061W        W72302  11.472  31.370  23.179 -0.0159 -0.3600 -0.2138
16062W        W72303  25.571  22.235  11.624  0.0424 -0.0479  0.0885
16063W        W72304   9.167  32.470  10.996 -0.0163  0.1392 -0.2624
16064W        W72305  24.555   4.218   4.186 -0.0878 -0.4324 -0.0194
16065W        W72306   6.707  15.623   1.324 -0.3993  0.0263 -0.0767
16066W        W72307   6.692   0.331  10.222 -0.2121 -0.2155 -0.2038
16067W        W72308  17.859  15.323  23.982 -0.1442  0.0911 -0.3643
16068W        W72309  28.363   9.219   8.855  0.2377 -0.0498  0.2177
16069W        W72310   9.917  19.977  11.696  0.0184 -0.1539  0.1318
16070W        W72311   0.198   6.156  20.427 -0.0511 -0.1112 -0.2715
16071W        W72312  24.092  10.079  22.228  0.0105 -0.1235 -0.0391
16072W        W72313  12.841  33.145   1.047 -0.2227  0.3183  0.1434
16073W        W72314  27.727  19.729  25.807 -0.0843  0.2573 -0.3927
16074W        W72315  31.296  18.132  21.380  0.2722  0.0132  0.0895
16075W        W72316   9.667  34.264   6.463 -0.4151  0.3486  0.1305
16076W        W72317   9.885  29.197   9.719  0.0155  0.1117 -0.0600
16077W        W72318   2.261  23.218  22.272  0.0769 -0.1940 -0.0601
16078W        W72319  25.657  27.346  18.953 -0.3549 -0.0990  0.2972
16079W        W72320   7.022   0.862  23.720 -0.3802  0.0246 -0.1360
16080W        W72321   3.417  27.664   9.164  0.0406 -0.2224 -0.1825
16081W        W72322  17.711  21.353  10.254 -0.2086 -0.1411 -0.2067
16082W        W72323   9.664  26.033   6.218 -0.1542  0.1797  0.1368
16083W        W72324  30.652  28.750  24.097  0.3294  0.2023  0.2022
16084W        W72325   0.771   1.921   4.591  0.0493  0.1957 -0.2540
16085W        W72326  14.321  20.640  14.001 -0.1714  0.1392  0.2344
16086W        W72327   2.465   0.809   9.840  0.1351  0.3593  0.5018
16087W        W72328  10.096   9.006  21.397  0.1899  0.2214 -0.0079
16088W        W72329  13.860  24.740   7.905  0.0016 -0.1653 -0.1746
16089W        W72330  18.285   8.675   1.673  0.1174 -0.0657 -0.2845
16090W        W72331  15.967  22.247   7.837  0.1121 -0.3225  0.1231
16091W        W72332  20.201  16.547   2.831 -0.3315 -0.1066  0.0223
16092W        W72333   0.495  21.825  12.801 -0.1705 -0.0589 -0.1598
16093W        W72334  25.585  10.899   1.289  0.3633 -0.1202  0.0983
16094W        W72335   3.149  17.253  16.640  0.4459  0.1064  0.1468
16095W        W72336  24.071  18.520   0.501  0.2076  0.1501  0.3082
16096W        W72337   5.272   9.315  24.304 -0.1278 -0.1204 -0.2308
16097W        W72338  30.279  30.214  20.097  0.2852  0.2676  0.3278
16098W        W72339  29.442  18.078  16.832  0.0983  0.3999  0.0222
16099W        W72340   8.783   3.198   6.313 -0.0895  0.1267  0.0058
16100W        W72341  11.231  13.613  19.810 -0.0773  0.0034 -0.1623
16101W        W72342  15.153   4.957  22.005  0.2488  0.4973  0.3497
16102W        W72343  16.429   6.450   4.139  0.1951  0.0887  0.2807
16103W        W72344   8.739  22.544   0.735  0.0383 -0.0322  0.2474
16104W        W72345  21.814  24.020  25.983  0.1168 -0.1162  0.1202
16105W        W72346   7.397  34.608   4.170  0.0704  0.3491  0.2874
16106W        W72347  33.844  31.898  22.201 -0.1016 -0.1677  0.3421
16107W        W72348  19.104   1.089  24.534 -0.0403  0.3270 -0.1275
16108W        W72349  13.106  24.585   7.429 -0.1511 -0.3501 -0.0531
16109W        W72350  34.120  25.390  17.988  0.0990 -0.0483  0.1347
16110W        W72351   6.485   6.194  24.368  0.0911  0.0474 -0.2053
16111W        W72352  10.047   5.201   6.820  0.0143  0.3361  0.2860
16112W        W72353  19.374   1.801   1.247 -0.0985  0.2432 -0.0712
16113W        W72354  25.178   7.671  21.670 -0.3691  0.0261  0.0431
16114W        W72355   8.966  17.493   4.846  0.2321  0.3064  0.0952
16115W        W72356  11.928  23.940  16.166  0.1283  0.1664  0.3302
16116W        W72357  26.660   6.023  12.687 -0.0123 -0.1958  0.0173
16117W        W72358  25.794  18.455  23.933  0.0624  0.2433  0.0243
16118W        W72359   5.790   6.905   7.633  0.0211  0.0530  0.3636
16119W        W72360  14.062  13.113  11.981  0.1661  0.2471  0.1468
16120W        W72361  23.177   0.137  19.963 -0.0814 -0.1008  0.1004
16121W        W72362  19.649  28.189  21.021 -0.2279  0.0986  0.3293
16122W        W72363   8.329  12.704  22.408  0.1359  0.1789  0.1433
16123W        W72364   9.676  19.279  21.693 -0.1067 -0.3738  0.0058
16124W        W72365  32.449   1.580   6.246 -0.0406  0.0126 -0.0027
16125W        W72366  17.236  35.383   5.581 -0.1217  0.0251 -0.2075
16126W        W72367   9.514   7.011  18.907 -0.3080  0.0217 -0.1141
16127W        W72368  23.645   7.819  16.428  0.1700  0.1028  0.1853
16128W        W72369   1.840   1.503   0.619 -0.1393 -0.0722  0.0533
16129W        W72370   8.294  33.475  23.352  0.0539 -0.1069  0.4051
16130W        W72371  32.498   2.725  23.011 -0.0502 -0.3327  0.0940
16131W        W72372  24.709  32.653  14.898  0.1673 -0.0629 -0.1640
16132W        W72373  22.969   4.492   6.234  0.0437 -0.1306 -0.3115
16133W        W72374   0.566   3.987  22.732  0.3624  0.1508  0.1249
16134W        W72375  31.402  24.871  11.483 -0.3305 -0.2874 -0.1411
16135W        W72376  18.124  11.010   2.497 -0.1351 -0.1504  0.0584
16136W        W72377   9.630   3.054  23.578 -0.0124 -0.0357 -0.0796
16137W        W72378  23.808   2.104   1.161  0.2751 -0.0182 -0.0958
16138W        W72379  25.981  21.229  19.131 -0.3329 -0.2881 -0.2940
16139W        W72380  31.609   9.004   9.800 -0.0403  0.1042 -0.0604
16140W        W72381  31.558  34.670  11.794  0.1590 -0.1352  0.1390
16141W        W72382   7.670   4.805  10.943 -0.2850 -0.0117  0.1388
16142W        W72383  31.307   0.561   4.252 -0.0867 -0.1919  0.0271
16143W        W72384  24.263  34.372  18.008  0.1910  0.1480 -0.3417
16144W        W72385   1.581  13.332  21.890 -0.0732  0.1480  0.2355
16145W        W72386   2.125   1.545   2.522 -0.1323 -0.1554 -0.1756
16146W        W72387  34.036  27.120  16.213 -0.1659 -0.2246 -0.0079
16147W        W72388  12.492  27.741   9.630 -0.1055  0.1810 -0.0736
16148W        W72389  30.603  32.870  15.902  0.2975  0.1726 -0.1485
16149W        W72390  32.905  10.099  11.569  0.1447  0.4948 -0.0003
16150W        W72391   9.242  34.244   5.002 -0.0330  0.2293 -0.3320
16151W        W72392  34.862   4.014  16.652  0.0888 -0.1373  0.4008
16152W        W72393   6.067   1.418  20.820 -0.4212  0.1929  0.0593
16153W        W72394  18.006   9.769  11.967  0.0492  0.0629 -0.0949
16154W        W72395   7.452  31.097   6.603 -0.2760  0.1821 -0.1272
16155W        W72396   4.252  31.206   7.046 -0.2441 -0.1499  0.2097
16156W        W72397  22.095  30.569   1.548  0.1231  0.0576  0.2853
16157W        W72398  10.755  12.819  25.393 -0.0937 -0.1553 -0.1066
16158W        W72399  10.702  24.495   8.371 -0.0216  0.1212 -0.0987
16159W        W72400   5.910  20.187   7.356  0.2683 -0.0704  0.0013
16160W        W72401   9.175  19.513  11.451 -0.2102 -0.5450 -0.0546
16161W        W72402  31.539  30.176  15.835  0.1378 -0.0924 -0.0112
16162W        W72403  27.668  17.387  21.884  0.0209  0.4405  0.2389
16163W        W72404  22.673  20.022  21.534 -0.0497 -0.2005 -0.1184
16164W        W72405   0.566  17.337  13.070 -0.0347  0.0809  0.1875
16165W        W72406   5.697  14.981  23.680  0.0618  0.1898  0.1620
16166W        W72407   2.899   8.473   2.323 -0.0394 -0.3104  0.0308
16167W        W72408   5.889  19.075   3.838  0.0648  0.1117 -0.1048
16168W        W72409  14.175  20.350   8.960  0.3678  0.0507  0.0168
16169W        W72410   5.663   2.966  11.656  0.0542 -0.2237  0.1262
16170W        W72411  14.402   7.793   6.082 -0.1102 -0.1362  0.1278
16171W        W72412  17.485  17.512   2.883 -0.2080  0.1461 -0.1376
16172W        W72413   4.918  23.985  25.564 -0.0230 -0.2584  0.1935
16173W        W72414  30.575  15.941  15.623  0.2018 -0.0766 -0.1126
16174W        W72415   3.427  27.002  22.967 -0.0905 -0.0897  0.1321
16175W        W72416   8.420  18.107  22.639  0.3180 -0.1853  0.0415
16176W        W72417   1.725  21.214  15.444 -0.0513  0.0794  0.2799
16177W        W72418  19.167  13.774  22.027  0.0451  0.1801 -0.1947
16178W        W72419  30.335  25.626   7.175  0.2504 -0.3301  0.1187
16179W        W72420  22.146   6.180   2.825 -0.1509  0.2842  0.0253
16180W        W72421  32.042  21.910  19.406 -0.1931 -0.4283 -0.0815
16181W        W72422  12.864  25.962  15.349 -0.3905  0.0585  0.0351
16182W        W72423   8.695  34.520   4.082 -0.1167 -0.1256 -0.1279
16183W        W72424  29.263   1.621   5.273 -0.0516  0.0480  0.2976
16184W        W72425   1.759  10.383   4.695 -0.0259 -0.2319 -0.1495
16185W        W72426  13.941  24.417  25.767  0.2705  0.1632 -0.5359
16186W        W72427  16.443  11.278   9.714  0.1503  0.3443 -0.0622
16187W        W72428  14.212   8.462  13.665  0.2722 -0.0948  0.1258
16188W        W72429   6.988  11.525   5.152 -0.0467  0.2694 -0.1836
16189W        W72430  30.528   8.765  17.309  0.1976 -0.3012 -0.2257
16190W        W72431  27.465  16.489  11.887  0.1598  0.5620  0.1234
16191W        W72432  21.291  14.276  19.272  0.1668  0.1320  0.2973
16192W        W72433  13.434  24.562  12.998  0.0585 -0.0201 -0.3787
16193W        W72434  26.553  28.871  13.140 -0.0233  0.2720  0.0073
16194W        W72435  16.058  28.829   5.361 -0.2023 -0.1765 -0.0133
16195W        W72436  30.451  21.113  20.064  0.0333  0.0612 -0.1150
16196W        W72437  16.188  34.517   2.237  0.0492  0.0121  0.0322
16197W        W72438  22.113  28.940  23.202 -0.3350  0.2072 -0.1634
16198W        W72439  10.162  25.571   8.464 -0.2207  0.1768  0.1277
16199W        W72440  28.003  12.093  19.005 -0.1657 -0.4519 -0.0217
16200W        W72441  29.245   1.385  23.179 -0.2502 -0.0959  0.0825
16201W        W72442   4.504  33.610   6.722 -0.1196 -0.0792  0.1554
16202W        W72443   2.459   3.461   3.787  0.0168  0.0503  0.0207
16203W        W72444  28.413  28.708  22.180 -0.1518 -0.2524 -0.2023
16204W        W72445  28.283  28.526  15.359  0.1442  0.2284  0.1021
16205W        W72446  28.359  15.772  23.555  0.1480  0.2661 -0.0227
16206W        W72447  15.444  16.627  12.863 -0.3810  0.0969 -0.0827
16207W        W72448  26.855  35.293  18.037  0.0780  0.2199 -0.2557
16208W        W72449  22.350  16.054  20.426 -0.1675  0.2108 -0.0305
16209W        W72450  28.722  16.667  14.412 -0.0401  0.1509 -0.1401
16210W        W72451  18.322   8.420  22.569  0.0735 -0.0915 -0.0320
16211W        W72452  10.356  26.951   1.667 -0.3280 -0.0494  0.0415
16212W        W72453  30.440  29.172  15.658  0.1260 -0.0088  0.2216
16213W        W72454  10.561  11.362  22.737  0.0578 -0.0994  0.1492
16214W        W72455   3.256  15.989   0.828 -0.0278 -0.1519 -0.2174
16215W        W72456   7.069  24.680   7.112  0.2373 -0.1870  0.0848
16216W        W72457  25.763  26.990  13.957 -0.0106  0.3758 -0.0757
16217W        W72458   2.424  15.936  18.129  0.3113  0.2492 -0.3348
16218W        W72459  17.337   8.246  23.917 -0.0450  0.0891 -0.2253
16219W        W72460   3.074   5.786  23.002 -0.2171 -0.0750 -0.4173
16220W        W72461  19.058  12.075   6.069  0.2598 -0.5429  0.1180
16221W        W72462   4.367   8.184   5.462 -0.2716  0.0655  0.0408
16222W        W72463   8.424  15.416  21.860 -0.1530  0.0346 -0.4525
16223W        W72464  30.871  24.316  19.853 -0.1165  0.3914 -0.0204
16224W        W72465  17.511  18.763  20.449  0.0892  0.2555 -0.2814
16225W        W72466   4.434  26.104   8.658 -0.1427  0.0115  0.3149
16226W        W72467  34.031  28.004  13.133  0.0736  0.2204  0.0992
16227W        W72468   6.471  24.805   8.082  0.1343  0.2299 -0.4387
16228W        W72469  15.769   4.444  19.306 -0.1845  0.2170 -0.0954
16229W        W72470  11.300   6.905   5.797 -0.3012 -0.0496 -0.2256
16230W        W72471   6.842  21.724   8.428  0.1131 -0.1544 -0.0709
16231W        W72472  30.995  27.936  19.446  0.0363 -0.1385 -0.0905
16232W        W72473  18.501   0.915   6.567  0.1659 -0.2611 -0.0025
16233W        W72474  28.387  30.825  16.736 -0.2931  0.2841  0.0111
16234W        W72475  12.403  25.397  11.853  0.2221  0.2073 -0.2905
16235W        W72476   8.999   8.669   2.729 -0.0666 -0.0206 -0.1477
16236W        W72477  30.743  28.278  19.240  0.2815  0.0049 -0.0443
16237W        W72478  22.304   5.041  16.413  0.2912 -0.0085 -0.3196
16238W        W72479  10.766  17.732  22.393  0.0284  0.0506  0.2968
16239W        W72480  31.122   0.751  18.338 -0.2557 -0.0599 -0.0015
16240W        W72481  28.802  21.211   7.051 -0.0321  0.0833  0.2398
16241W        W72482  34.534  16.946   7.804 -0.0106  0.2569 -0.0473
16242W        W72483  21.252  15.119  21.614 -0.0062 -0.2739 -0.2663
16243W        W72484  23.970  20.368  18.598  0.0786  0.2727  0.3621
16244W        W72485  21.656  14.953   1.913 -0.1818  0.1363  0.0963
16245W        W72486  31.210  25.471   9.524 -0.0618 -0.2410  0.0345
16246W        W72487  31.992  17.068  14.718 -0.0206  0.0328 -0.1608
16247W        W72488  24.588   9.412  21.471 -0.1357 -0.1525  0.1153
16248W        W72489  21.629  31.801   1.145 -0.3268 -0.1830  0.4501
16249W        W72490  33.661   4.345  23.553 -0.1337 -0.1292 -0.1035
16250W        W72491   5.198  10.940  23.635  0.2128  0.1876  0.1049
16251W        W72492  32.325   8.965  12.592  0.2208 -0.2333 -0.1169
16252W        W72493  28.892   9.213   8.957  0.1792  0.0327  0.3389
16253W        W72494  31.240  15.964  22.729 -0.2825 -0.0577  0.1384
16254W        W72495  24.485  12.525  26.140  0.2228 -0.1003 -0.1024
16255W        W72496  34.085   9.062   0.758 -0.1523  0.1612  0.0904
16256W        W72497  33.199  26.810  19.322  0.0597  0.0704 -0.1150
16257W        W72498   9.324  30.585   8.756  0.1329 -0.1341 -0.2490
16258W        W72499  10.849   3.541   5.365  0.1249 -0.1035  0.0475
16259W        W72500  22.428   6.466   3.142 -0.1340 -0.0524 -0.0576
16260W        W72501   6.686  28.445   0.319  0.1280 -0.0214  0.0611
16261W        W72502  17.226  13.840  21.492 -0.1273  0.1405  0.0440
16262W        W72503   9.120  18.874   1.187 -0.3502  0.0444 -0.0549
16263W        W72504  28.729  27.474  25.657  0.1749  0.1951  0.0524
16264W        W72505  21.878   5.905  17.195  0.1620  0.1253 -0.2448
16265W        W72506  23.573  16.406  24.303  0.2127  0.0577  0.1302
16266W        W72507  11.390  23.843   1.115  0.3981  0.2265  0.2425
16267W        W72508   1.350  22.218  17.248 -0.2309 -0.3936  0.2712
16268W        W72509  18.319  32.091  23.376  0.0267  0.1012 -0.0182
16269W        W72510  13.992  33.115   3.770 -0.0540  0.0610 -0.0643
16270W        W72511   8.082  14.561   3.148  0.1261 -0.1873 -0.1524
16271W        W72512  15.640   0.364  17.441 -0.1001 -0.0689 -0.2376
16272W        W72513  21.202   8.597  15.707 -0.3053 -0.0103 -0.3499
16273W        W72514  25.065   8.588   0.904  0.4640 -0.2079  0.3829
16274W        W72515   0.897  29.337   5.743 -0.1175 -0.1564 -0.2950
16275W        W72516  16.732  17.525   3.428 -0.1671  0.0814  0.1567
16276W        W72517   0.533   1.847  25.256  0.1276 -0.1590 -0.0898
16277W        W72518   8.328  17.910  20.516 -0.0591  0.1420  0.2482
16278W        W72519  20.130   9.250  24.028 -0.3364  0.0932  0.1050
16279W        W72520  13.732  17.353  21.557 -0.0299 -0.2923  0.0789
16280W        W72521   3.678  20.899  18.649  0.1334  0.0189  0.0143
16281W        W72522  20.925   0.947  21.903 -0.0578 -0.0170 -0.5182
16282W        W72523  16.498   7.944  24.230  0.1539 -0.1469 -0.2194
16283W        W72524  24.987   3.968   2.975  0.1563  0.1903 -0.0482
16284W        W72525  27.248  33.609  25.267 -0.3467  0.1634  0.0527
16285W        W72526   0.996  33.644  21.458 -0.1353 -0.1941 -0.1654
16286W        W72527   1.492  35.022  22.497 -0.0536 -0.1965 -0.1396
16287W        W72528  26.740  32.089   4.187  0.0208 -0.1178  0.2857
16288W        W72529   9.613   4.038  24.069  0.0901 -0.1167  0.0200
16289W        W72530  14.597  18.090  19.997 -0.0490  0.0425 -0.2735
16290W        W72531   1.988  14.878  24.831 -0.1215  0.2823  0.3073
16291W        W72532  22.172   3.192  18.916  0.1323  0.2679 -0.1111
16292W        W72533  32.965  12.039   8.657 -0.4871 -0.1672 -0.1161
16293W        W72534  31.327  19.391  10.031 -0.0049 -0.0453  0.1206
16294W        W72535  30.009  15.079  24.483  0.0662 -0.0549 -0.1661
16295W        W72536  23.461  32.339  15.554 -0.0318  0.0668 -0.1978
16296W        W72537  28.460  11.410  15.097  0.2058  0.4254 -0.1227
16297W        W72538   4.890  28.067   4.233  0.2669 -0.0160  0.2180
16298W        W72539  23.668  30.123   5.155  0.0478  0.0091 -0.1038
16299W        W72540  11.382  32.361  22.818 -0.1922  0.3617  0.0469
16300W        W72541   9.356  22.648   6.952  0.1272  0.1560 -0.1543
16301W        W72542  25.708  25.094  10.745  0.1136 -0.0828 -0.0287
16302W        W72543  22.741  19.142  13.472  0.0117 -0.2313 -0.1740
16303W        W72544   8.920   3.705  14.381  0.1745  0.1616 -0.0556
16304W        W72545  24.264   3.266  23.793  0.0465 -0.0406 -0.2588
16305W        W72546  12.817   9.245  23.773 -0.3098  0.2598  0.1862
16306W        W72547  14.654  10.125  22.504 -0.1894  0.2235  0.1022
16307W        W72548   1.701  20.997  13.876  0.1668  0.2354  0.1098
16308W        W72549  29.095  32.048  21.112 -0.0043  0.1567  0.4216
16309W        W72550   3.283  26.434  25.053  0.0601 -0.1485  0.0506
16310W        W72551  22.432  19.021   1.173  0.0775  0.3090 -0.0875
16311W        W72552  16.942  19.594  24.022  0.1899  0.1812 -0.0132
16312W        W72553   3.167  14.787  25.165 -0.1265 -0.2397 -0.3049
16313W        W72554  14.999  34.752   2.807 -0.2291  0.0386 -0.2781
16314W        W72555  23.867   1.255  22.807  0.0379  0.2128 -0.3114
16315W        W72556  21.568  29.114   3.059  0.0753 -0.1428 -0.0307
16316W        W72557  26.304  16.622  12.789  0.1231 -0.0428 -0.1737
16317W        W72558  29.245  28.562   0.229  0.1340  0.2622  0.2728
16318W        W72559  31.923   6.411   2.330 -0.2944 -0.0781  0.1845
16319W        W72560   8.248   8.905   6.916  0.1605  0.0686 -0.2113
16320W        W72561  19.010  19.071   3.486  0.2895  0.0940 -0.0950
16321W        W72562   6.327   9.309   7.378  0.1246 -0.1345 -0.0370
16322W        W72563  22.720  26.640   0.754 -0.0568  0.0791  0.2710
16323W        W72564  24.280  12.124  12.963  0.0290 -0.0187  0.1740
16324W        W72565   8.990   4.459   6.863  0.2334  0.1257  0.1649
16325W        W72566  11.899  10.157  23.307 -0.1497 -0.1711  0.1098
16326W        W72567  24.219  15.681  23.513 -0.1431  0.1614 -0.0649
16327W        W72568  15.200  12.571   4.035 -0.2144 -0.0862  0.1773
16328W        W72569  12.084  21.040  24.628 -0.0024  0.2950 -0.0809
16329W        W72570  30.696  17.891  13.901 -0.0761 -0.2305 -0.0501
16330W        W72571  12.098  32.693  25.433  0.2641  0.2333 -0.1361
16331W        W72572   9.586  25.019  10.019  0.2843 -0.0591  0.2245
16332W        W72573  21.231   7.179  19.958 -0.0344  0.1888 -0.0844
16333W        W72574   6.021  29.914  23.752  0.3149  0.2067  0.0557
16334W        W72575  26.878  10.525  18.903  0.2865 -0.1317 -0.2609
16335W        W72576  15.240   4.054  25.252  0.0648  0.2224  0.0687
16336W        W72577   6.731   9.487   2.557 -0.1348  0.0552 -0.2941
16337W        W72578  23.638  31.799  20.256 -0.2356 -0.1212  0.1491
16338W        W72579  12.768  28.591  25.976 -0.1108  0.2384  0.0023
16339W        W72580  35.214   5.642  12.843 -0.2536 -0.0290  0.2290
16340W        W72581  14.066   2.714   2.385 -0.1546 -0.1704 -0.0389
16341W        W72582   5.084  22.963   3.723  0.0261 -0.0518  0.0957
16342W        W72583  26.131  29.911  20.394 -0.2706  0.2124  0.5008
16343W        W72584  31.026  15.386  23.305 -0.0886 -0.0798 -0.3768
16344W        W72585  23.561  33.903   1.611 -0.1108  0.1295 -0.0937
16345W        W72586   8.646   5.092   1.676  0.0808  0.1698  0.0398
16346W        W72587   6.024   6.205  10.114 -0.1843  0.1793  0.1573
16347W        W72588  30.816  31.606   0.157 -0.1991  0.2168  0.0999
16348W        W72589  25.925  32.127  14.660 -0.0569 -0.0063  0.2693
16349W        W72590   8.295   9.163  10.331  0.1008 -0.0328  0.0332
16350W        W72591   7.101  27.259   4.853 -0.2906  0.2600 -0.0732
16351W        W72592   5.131  29.820   3.443 -0.0856  0.0456  0.0542
16352W        W72593   0.282  25.577  24.545 -0.2290  0.0600 -0.1154
16353W        W72594  34.826  16.471  22.689 -0.0448  0.0398  0.0211
16354W        W72595   7.952   6.977  19.809 -0.0290 -0.4091  0.0472
16355W        W72596  34.572   1.019  23.373  0.1836 -0.1462 -0.3086
16356W        W72597  11.527  18.071  23.994 -0.0741 -0.0056 -0.1039
16357W        W72598  20.870  35.238  17.993  0.6345 -0.1481 -0.1409
16358W        W72599  13.806   9.539  19.954 -0.0809  0.0324 -0.1323
16359W        W72600   1.693   1.010  16.456  0.3720 -0.0187 -0.0088
16360W        W72601  20.367   8.315   8.275  0.1821 -0.1635 -0.0823
16361W        W72602   3.114  26.948   2.247  0.1450  0.1473 -0.0268
16362W        W72603  28.712  11.933  14.451 -0.2901  0.3370  0.0521
16363W        W72604  12.638  31.719  23.548 -0.2693  0.1532 -0.1370
16364W        W72605  10.672   1.984   0.897 -0.0045 -0.0062 -0.0735
16365W        W72606  30.137  25.552  24.144 -0.2357  0.2645  0.1882
16366W        W72607  14.117   7.156   8.916  0.1916  0.0032  0.0961
16367W        W72608   0.601  32.183   3.396 -0.1742  0.0688 -0.0416
16368W        W72609  33.534  20.426  22.606 -0.0624 -0.0161  0.3717
16369W        W72610  29.827  32.421  21.986  0.0214 -0.2214 -0.1689
16370W        W72611  21.211  10.038  21.311  0.1371  0.0101  0.1783
16371W        W72612  17.161  33.585  23.434 -0.1442  0.3672 -0.4896
16372W        W72613  30.682   2.121   3.824  0.2992 -0.0222 -0.3084
16373W        W72614   2.404   1.217   3.595  0.0727  0.2136  0.1651
16374W        W72615  25.067   3.356  25.198  0.2205 -0.1954 -0.2066
16375W        W72616   8.975  11.054   2.564  0.1116  0.0817 -0.0226
16376W        W72617   1.159  30.058   6.377  0.1181  0.0911  0.2449
16377W        W72618   9.637  13.112  21.979  0.1641  0.0988  0.1225
16378W        W72619  12.726  28.649   8.286  0.0178 -0.2792  0.0171
16379W        W72620   5.679   8.324  17.253 -0.0647  0.2229 -0.3081
16380W        W72621  26.452  10.618  15.998  0.0486 -0.0321 -0.0645
16381W        W72622  16.321   0.381   8.085 -0.0716  0.0066 -0.1051
16382W        W72623  34.807  34.760  23.932 -0.3699  0.1613  0.1898
16383W        W72624  29.392  34.674  16.580 -0.3012 -0.3895 -0.0551
16384W        W72625  29.145  11.329  19.962 -0.1925 -0.1285 -0.3082
16385W        W72626   2.932   7.559   2.428  0.0767  0.0849  0.0594
16386W        W72627  33.750   3.962   0.461  0.0003 -0.2158 -0.3473
16387W        W72628  26.962  11.437   8.658  0.4804  0.1244  0.1280
16388W        W72629  34.157  34.494   2.449 -0.4216  0.1768  0.2121
16389W        W72630  20.619  13.370   4.296  0.2811 -0.1819 -0.2075
16390W        W72631   4.742  29.121  13.449 -0.2596  0.1415 -0.1431
16391W        W72632  27.660  30.044  15.303  0.0316 -0.1261  0.1060
16392W        W72633  19.750  34.612  21.687 -0.0563  0.3159  0.0656
16393W        W72634   1.753  19.334  11.268 -0.0729 -0.0538 -0.1892
16394W        W72635  24.767  18.805  15.889 -0.1470  0.1907 -0.1494
16395W        W72636  33.566  33.451   0.550 -0.1431  0.0588 -0.0103
16396W        W72637   2.081  14.905   2.999  0.3985  0.0245 -0.2770
16397W        W72638   1.810   8.934  18.653  0.1040  0.1449  0.0851
16398W        W72639   9.734  31.138   3.328  0.2232 -0.1721 -0.2159
16399W        W72640  10.628  27.501  16.429 -0.0854 -0.1741  0.0501
16400W        W72641  32.257  25.323  10.506  0.0514 -0.1126  0.2836
16401W        W72642  22.466   4.849  20.183  0.0562  0.0066 -0.0245
16402W        W72643  17.898   7.644  25.532 -0.0988 -0.1329  0.0497
16403W        W72644  28.825  34.385  19.419 -0.1265 -0.1355  0.2433
16404W        W72645  14.669  30.987  22.055  0.3463  0.0798 -0.1268
16405W        W72646  21.463  31.665   3.724 -0.1655 -0.3605  0.0872
16406W        W72647  10.570  25.531   5.008 -0.0683  0.0359  0.2148
16407W        W72648  29.063   4.349  18.098 -0.2297  0.2633  0.0049
16408W        W72649  27.998  33.445  11.710  0.1530  0.0190 -0.1070
16409W        W72650   5.333  28.660  21.999  0.2978 -0.1983  0.1235
16410W        W72651   0.326   4.388   4.384  0.1304 -0.2999  0.2110
16411W        W72652   2.937  18.682   1.195 -0.4011 -0.1511  0.0486
16412W        W72653  31.839  13.199  12.007 -0.0618  0.1305  0.2100
16413W        W72654  32.101  19.461  16.326 -0.2951 -0.3283  0.2368
16414W        W72655  20.316  19.797   1.796  0.0903 -0.0617 -0.2372
16415W        W72656  25.597   5.484  14.421 -0.0223 -0.0778 -0.0216
16416W        W72657   3.704  30.840   4.815  0.2446  0.3734  0.1354
16417W        W72658  13.747   2.203   9.737  0.0927 -0.1842  0.1655
16418W        W72659  16.888  25.396  22.828 -0.0039  0.0015  0.2497
16419W        W72660  26.078  27.228   1.341  0.1431 -0.3220  0.1057
16420W        W72661  28.354  13.357  19.414 -0.1692 -0.0757 -0.1648
16421W        W72662  16.938  18.791   9.683  0.1740  0.0001  0.3491
16422W        W72663  32.142  29.511   1.160 -0.1188 -0.3306 -0.1674
16423W        W72664  20.296  11.470   5.204 -0.1733  0.1443 -0.1449
16424W        W72665  13.102  34.710  10.745 -0.0510 -0.1857  0.0606
16425W        W72666   6.903  20.493   7.462  0.0988  0.1403 -0.2138
16426W        W72667  30.158  21.378   8.119  0.2117 -0.2012  0.1186
16427W        W72668  28.169   4.014  14.759  0.2087 -0.1140  0.1470
16428W        W72669  17.368  18.016   6.918 -0.1687 -0.1027  0.0678
16429W        W72670   1.725   1.452   8.634 -0.0719 -0.1433 -0.2103
16430W        W72671  35.059   4.200  21.802  0.2940 -0.1891  0.2201
16431W        W72672  16.530  24.290   5.085 -0.2641 -0.1893 -0.1000
16432W        W72673   7.916   5.912   2.553 -0.1430  0.2254  0.0923
16433W        W72674   4.072  19.701  18.813 -0.0753  0.0975 -0.0938
16434W        W72675  12.827  12.321   8.394 -0.3779 -0.1668  0.3249
16435W        W72676  28.796   7.807  25.462 -0.0318  0.1307 -0.3965
16436W        W72677  10.653   9.090   9.715  0.3518  0.1874  0.2927
16437W        W72678   8.364  13.309  24.119 -0.1829 -0.0131 -0.0201
16438W        W72679  20.082  23.552  18.692  0.0098  0.5644  0.1142
16439W        W72680   8.970  20.336  14.059  0.2069  0.1796  0.2833
16440W        W72681  10.037  17.373   9.557  0.0367 -0.0461 -0.2648
16441W        W72682  18.452  19.547   2.420  0.2197 -0.0893  0.0781
16442W        W72683  25.619   2.198  16.957 -0.0496 -0.1090  0.3401
16443W        W72684  26.788  10.936  16.190  0.0417  0.1560  0.0478
16444W        W72685  27.329  21.302  14.904 -0.1511 -0.2417 -0.3030
16445W        W72686  14.415   8.034  25.378 -0.1944  0.0491  0.1395
16446W        W72687   7.081  29.267  23.134 -0.0969 -0.1440  0.2017
16447W        W72688  32.411  27.295  16.126 -0.0870  0.1057  0.3088
16448W        W72689   0.040   7.540  18.613 -0.0859 -0.4299  0.2321
16449W        W72690  13.571  29.920   7.987 -0.4917 -0.0199 -0.1229
16450W        W72691   8.599  17.749  24.674 -0.0011 -0.2025  0.1843
16451W        W72692   5.347  11.149   8.810  0.3112  0.2627 -0.2388
16452W        W72693   3.928  32.118   8.329 -0.0869 -0.2793 -0.2031
16453W        W72694   8.188   0.606  24.917 -0.1436  0.0365 -0.2278
16454W        W72695  25.495  32.963  20.371  0.1782 -0.3055  0.0098
16455W        W72696  11.176  15.932   6.564 -0.3769  0.1217  0.0794
16456W        W72697  16.078  12.350   6.751  0.1585  0.0439  0.2546
16457W        W72698  29.538   2.194  22.007 -0.0637  0.2596 -0.1628
16458W        W72699  20.793  19.292   5.765  0.1604 -0.0655 -0.0001
16459W        W72700  18.269  20.146  10.758 -0.1838 -0.0922 -0.2004
16460W        W72701   6.098   2.687  11.606  0.0872 -0.2418 -0.5257
16461W        W72702  21.287  15.576   2.560 -0.0922 -0.0449 -0.0153
16462W        W72703  20.404  12.927   4.155  0.0619  0.2574  0.2363
16463W        W72704  21.350  31.677   3.057  0.0432  0.2313  0.1834
16464W        W72705  13.581  32.676  12.129  0.1647  0.2800 -0.0531
16465W        W72706  15.396  18.284   5.831  0.0765  0.2638 -0.1027
16466W        W72707   9.786   0.004   4.384  0.0674 -0.0023  0.0399
16467W        W72708  29.341   0.383  13.301 -0.1793 -0.0970 -0.2566
16468W        W72709  17.260   0.781   3.274  0.0400 -0.0093 -0.0160
16469W        W72710  31.795   2.968  24.184 -0.3483  0.1010 -0.0999
16470W        W72711  27.887  33.529   4.510  0.2610  0.1986 -0.0209
16471W        W72712  26.584  17.543  22.642 -0.0131 -0.0158  0.2467
16472W        W72713   3.410  15.715  21.538 -0.1597  0.1047 -0.1553
16473W        W72714  27.260   5.238   0.595 -0.0621 -0.2245  0.3258
16474W        W72715   1.652  19.146  21.238  0.1420 -0.1486 -0.0514
16475W        W72716   5.479  13.787  21.782  0.0533 -0.0395  0.1758
16476W        W72717  19.188  28.871  26.053 -0.0026 -0.3143 -0.0581
16477W        W72718  14.979  20.404   2.390 -0.2117 -0.2109 -0.4196
16478W        W72719  30.266  30.991  19.406  0.5223 -0.2368 -0.1796
16479W        W72720  11.726  25.946  13.726  0.1218  0.0071  0.0816
16480W        W72721  19.765  18.812   1.764  0.0327  0.1007  0.2876
16481W        W72722   4.740   4.336  17.326  0.0945  0.1268 -0.0801
16482W        W72723  29.208  30.204   4.291  0.0658 -0.1628 -0.0091
16483W        W72724  32.106  33.777  24.922  0.0875 -0.0918 -0.1008
16484W        W72725  15.542   9.251  13.247  0.0268 -0.1894  0.1090
16485W        W72726  30.335   2.485  13.213  0.0095 -0.0259  0.1872
16486W        W72727  30.899  20.235  16.833  0.1102 -0.2908  0.0196
16487W        W72728   7.911  28.384   2.313  0.1504 -0.2579 -0.1234
16488W        W72729  18.822  29.978   8.490 -0.0382 -0.1525  0.0993
16489W        W72730   0.639  21.256  21.513  0.1806 -0.2912  0.0305
16490W        W72731  15.217  24.533  14.749  0.1183  0.1222 -0.0149
16491W        W72732  12.289  28.857  22.014 -0.0073 -0.1908 -0.0988
16492W        W72733  20.231  16.774   1.857 -0.2466 -0.0149  0.1739
16493W        W72734   6.179   4.195  12.037  0.3443  0.4068  0.0013
16494W        W72735  21.741  33.162   5.533  0.0115 -0.0434 -0.2422
16495W        W72736  21.452  19.837  23.686  0.0277 -0.2189 -0.2888
16496W        W72737   4.008   5.536  18.554  0.1756 -0.2163  0.1922
16497W        W72738   2.212  19.642  21.903 -0.2911  0.0236  0.1843
16498W        W72739  32.183  26.005  19.458  0.2599  0.0220  0.2576
16499W        W72740   4.435  17.030  20.182 -0.2066 -0.2601 -0.1089
16500W        W72741  27.663   8.848  25.234 -0.1672 -0.1227 -0.3030
16501W        W72742  23.866  32.651  21.889 -0.1645  0.0204 -0.2384
16502W        W72743  16.759  26.087  13.763  0.0161 -0.0526 -0.0099
16503W        W72744   9.610  18.698   9.918 -0.1031  0.3846 -0.4031
16504W        W72745  15.974   7.430   0.196  0.2708 -0.1523  0.0313
16505W        W72746   4.265  29.705  20.307  0.0871 -0.2475  0.1578
16506W        W72747  24.888   9.758  11.430  0.2037  0.1029  0.1510
16507W        W72748  26.799   4.768  22.730  0.0843  0.0415  0.0586
16508W        W72749  33.581  15.626   8.117  0.0145 -0.1150  0.2281
16509W        W72750  27.829  26.599   8.556 -0.2044 -0.2690  0.2061
16510W        W72751  16.918  34.521   5.254 -0.0803  0.0995  0.1308
16511W        W72752  31.748  20.520  17.447  0.0398 -0.3086  0.0702
16512W        W72753  29.741   5.301  19.825  0.3269 -0.0510  0.1270
16513W        W72754   1.636  13.287   2.894  0.0548 -0.1430  0.3678
16514W        W72755   5.081   7.807  19.635  0.1738 -0.2489  0.2469
16515W        W72756  33.564  20.333  14.961 -0.0260  0.1659  0.0098
16516W        W72757   2.484  19.541  13.380 -0.0002  0.1530 -0.0067
16517W        W72758   2.553  12.482   5.137  0.0870 -0.0517  0.0034
16518W        W72759  18.782  15.600   6.359  0.0892  0.1453 -0.0991
16519W        W72760  19.364  27.813   1.226  0.0811  0.0436  0.1188
16520W        W72761  25.853  28.650  24.986 -0.3014 -0.2135 -0.0104
16521W        W72762  33.010   6.466   3.894  0.4022 -0.1043 -0.1533
16522W        W72763  31.239  23.155  24.936 -0.1500 -0.2320 -0.0849
16523W        W72764   6.069   5.090   4.885 -0.1678  0.0314 -0.0082
16524W        W72765  17.847  15.187  19.913 -0.1098  0.0363  0.1328
16525W        W72766  20.048  31.816  22.997  0.0876  0.0038 -0.0663
16526W        W72767  10.663  24.849  13.140 -0.1968 -0.4480  0.0167
16527W        W72768  30.133  33.633  14.750 -0.0828 -0.0630  0.2963
16528W        W72769  28.890   0.905  21.983 -0.1109 -0.0471 -0.0340
16529W        W72770  24.070  29.301  18.952 -0.1826  0.1530 -0.4927
16530W        W72771   1.440  14.538  22.824 -0.1321 -0.1289  0.2750
16531W        W72772   9.467  14.315   0.744  0.1048  0.2611  0.1333
16532W        W72773  11.972   6.712  20.428  0.1090  0.0231 -0.0823
16533W        W72774   3.242  29.367  22.525  0.1756  0.1241  0.0908
16534W        W72775  22.342  23.936  21.070 -0.1192 -0.0468 -0.1403
16535W        W72776  28.081   7.110  22.369  0.1593  0.2909 -0.2934
16536W        W72777   9.771  15.566  22.475 -0.3835  0.1425  0.3977
16537W        W72778   6.010  26.259   7.635  0.1396 -0.1318 -0.2792
16538W        W72779  10.795  18.464   3.753 -0.0070 -0.1828  0.2618
16539W        W72780   8.354   9.160   5.404  0.6019 -0.2661 -0.0104
16540W        W72781  25.361  26.259  21.184 -0.0068  0.0914 -0.0070
16541W        W72782  19.376  33.778   7.058 -0.2760  0.0366  0.2098
16542W        W72783  24.074  27.413  12.403  0.0878  0.1588  0.1657
16543W        W72784  15.766  29.254   4.700 -0.2544 -0.1590  0.1472
16544W        W72785   9.198  25.787  12.156 -0.0325  0.0431 -0.3309
16545W        W72786  29.940  33.628  21.276  0.0630  0.2665  0.1529
16546W        W72787  23.142   1.634  21.868  0.3130  0.2572  0.4118
16547W        W72788  33.710   6.825  26.038  0.1141  0.3196  0.0986
16548W        W72789  15.801  32.373   9.397  0.1462 -0.4335  0.3252
16549W        W72790  31.414  11.620  11.950 -0.2658 -0.3971  0.0364
16550W        W72791  19.296   2.414  24.914 -0.1771  0.2015  0.3594
16551W        W72792  11.606  32.087  10.425  0.2918 -0.0635  0.0291
16552W        W72793  29.720  34.290   4.393 -0.0447  0.1537  0.2315
16553W        W72794  32.453  19.204  24.991  0.0900  0.3000 -0.2033
16554W        W72795  10.186  33.197  22.086 -0.1521  0.2392 -0.0603
16555W        W72796  27.491  24.939  13.578  0.0223 -0.1079 -0.0555
16556W        W72797  22.428  20.695   1.252 -0.1814 -0.0275 -0.2151
16557W        W72798  19.619   6.646   9.257 -0.0232  0.4902  0.0103
16558W        W72799  29.998  23.184  18.958 -0.1300  0.0625 -0.3641
16559W        W72800  15.636   2.008   5.235 -0.2478 -0.1456 -0.4773
16560W        W72801   0.839  23.349  25.734 -0.4697  0.0284 -0.0912
16561W        W72802  17.739  33.760  18.146 -0.1727  0.1429 -0.0661
16562W        W72803  34.252  24.371  15.839 -0.0012  0.0673  0.2305
16563W        W72804   6.646  13.145  20.132 -0.0494  0.2370 -0.3195
16564W        W72805   0.837  12.649  17.932  0.2198 -0.2342  0.0591
16565W        W72806  10.367  28.208  14.042  0.3588 -0.1775  0.2016
16566W        W72807   9.041  32.966  24.322 -0.1297 -0.0401 -0.1495
16567W        W72808  10.220  16.495  20.923  0.1730 -0.0034 -0.0524
16568W        W72809  10.655  18.108  24.510 -0.1139  0.0461 -0.3861
16569W        W72810  10.328  11.571   0.617 -0.0952  0.0315 -0.1424
16570W        W72811   2.845  28.811  20.678  0.0342 -0.1250  0.3387
16571W        W72812  31.844  33.354  14.017 -0.0441  0.1980 -0.1381
16572W        W72813  18.372  29.810  18.671  0.0632  0.2144 -0.1547
16573W        W72814   8.965   4.646  13.940 -0.0124 -0.2204 -0.1697
16574W        W72815  24.085  23.789  11.199 -0.0396  0.0516 -0.2943
16575W        W72816  28.155   7.892  12.006  0.0850 -0.3017 -0.2486
16576W        W72817  34.315   5.712   2.999  0.1478  0.3435 -0.2146
16577W        W72818   8.585  29.476   1.855  0.2318  0.1689 -0.1170
16578W        W72819   7.369   4.570  24.207 -0.1710 -0.1804 -0.0320
16579W        W72820  22.346   5.299  19.203  0.0849  0.2032  0.1331
16580W        W72821  27.917  28.469  13.159 -0.1823 -0.2382 -0.0262
16581W        W72822   9.460   6.033   3.356  0.0536 -0.2247 -0.1188
16582W        W72823  23.211  26.033  12.722  0.1047  0.0738  0.3339
16583W        W72824  14.033  24.172   7.487 -0.0914 -0.0850  0.1147
16584W        W72825   0.466  21.336  12.644  0.0844  0.2515 -0.0750
16585W        W72826  34.956  13.333  11.668  0.2830 -0.4259 -0.1538
16586W        W72827   1.642  19.794  21.288 -0.0001  0.3160  0.1366
16587W        W72828  26.331   5.966  17.117 -0.1415 -0.0045  0.0527
16588W        W72829  22.516  32.823   1.084 -0.3362 -0.1151 -0.0072
16589W        W72830  13.274   1.583  10.506  0.0397  0.0312  0.1015
16590W        W72831  11.808   3.447  22.189 -0.0841  0.1720 -0.3233
16591W        W72832   5.137  11.859  23.906  0.0651  0.0011 -0.3160
16592W        W72833  12.370   9.582  20.165  0.1433 -0.0168 -0.0255
16593W        W72834  32.395  21.242  16.529 -0.0319 -0.1624 -0.0167
16594W        W72835  20.264  16.990  25.517 -0.4872 -0.1143 -0.1938
16595W        W72836  10.310  30.839  24.047  0.2727 -0.1515  0.0284
16596W        W72837   1.462  20.794  23.484  0.0350 -0.4220 -0.2077
16597W        W72838   8.380   6.118   9.883  0.0441 -0.1181 -0.3372
16598W        W72839  14.377  19.301   4.703  0.0139 -0.0661 -0.1418
16599W        W72840  12.499   0.246   4.600  0.2537  0.0095 -0.1632
16600W        W72841  18.838  20.673  10.136  0.1421 -0.3513 -0.0515
16601W        W72842  35.322  34.187   0.691 -0.0610 -0.2678 -0.1158
16602W        W72843  26.366  10.193  25.645  0.1124 -0.2348 -0.1192
16603W        W72844  30.476  32.559   5.612 -0.0093 -0.0055 -0.0314
16604W        W72845  25.198  30.486  25.814 -0.1672  0.1326 -0.2141
16605W        W72846  31.920  14.218  11.196 -0.0183 -0.0851 -0.0190
16606W        W72847  16.943   9.847  10.429  0.1361  0.1623  0.2038
16607W        W72848  30.335   7.068  12.606  0.2524 -0.0288 -0.3382
16608W        W72849  24.950  22.282  14.088  0.0545 -0.1804  0.1150
16609W        W72850  20.272  14.223   7.480  0.0940 -0.1468  0.2719
16610W        W72851  12.473  12.122  24.415 -0.0962 -0.5279 -0.3809
16611W        W72852  29.530  34.087  25.691 -0.1744 -0.0138 -0.1109
16612W        W72853   5.039  17.351   5.531 -0.0858  0.1120 -0.0338
16613W        W72854   9.333  24.668   4.974 -0.1500 -0.1139 -0.1541
16614W        W72855  12.945  33.458   9.201 -0.0658 -0.0224  0.2453
16615W        W72856  10.010  14.125   5.848 -0.1001  0.3233 -0.2546
16616W        W72857  33.816  20.289  20.877  0.1471  0.0170  0.1131
16617W        W72858  14.455  11.848  23.874 -0.0006  0.0851  0.3461
16618W        W72859   8.822   6.205  23.420  0.0315  0.0783 -0.1649
16619W        W72860  33.241  19.467  20.666 -0.0300 -0.2099  0.2327
16620W        W72861  24.425   4.136   6.642  0.2676 -0.0413  0.2760
16621W        W72862   3.106   0.401   4.587  0.3235 -0.0252 -0.1904
16622W        W72863  31.397  19.499   5.142  0.2567 -0.0761  0.1733
16623W        W72864  32.450  32.729   1.279  0.2394 -0.4421  0.1613
16624W        W72865  14.419  29.392   3.482 -0.0316  0.1373  0.0510
16625W        W72866  18.778   8.995   9.097 -0.2967  0.0003  0.1809
16626W        W72867  24.087   2.380  18.676 -0.3335  0.0193  0.3269
16627W        W72868  22.448   3.016  24.177 -0.0627  0.0071  0.1076
16628W        W72869  34.573  16.778  23.900  0.0051  0.0876  0.1679
16629W        W72870  25.544   1.332  19.680  0.1293  0.2522 -0.2532
16630W        W72871   8.121  34.924  14.976  0.0738  0.3696  0.3100
16631W        W72872  26.123  22.152  24.593  0.0236  0.0961  0.2230
16632W        W72873  19.695  18.361   4.164 -0.0722 -0.0095  0.1299
16633W        W72874   8.825  21.117   7.867 -0.3236 -0.2420 -0.0772
16634W        W72875  25.969  22.986   0.688  0.2905 -0.3615  0.1571
16635W        W72876  20.511   7.343  17.680  0.0069 -0.1036 -0.4234
16636W        W72877  17.882  35.231   0.749 -0.1152 -0.1877  0.1426
16637W        W72878   1.875  18.356   2.680 -0.0329 -0.2818  0.2834
16638W        W72879  15.258  19.066   3.044 -0.0419 -0.0827  0.1118
16639W        W72880  23.213  26.409   1.963  0.0532  0.1311 -0.1041
16640W        W72881  27.166   1.483   1.159  0.0671  0.0577 -0.2031
16641W        W72882  19.873   7.845  20.772  0.3132 -0.1692  0.1094
16642W        W72883   4.993  27.826   9.929 -0.2043  0.5675 -0.2341
16643W        W72884  18.135  24.508  25.491  0.2130 -0.0987  0.3328
16644W        W72885  24.232   0.430  16.013 -0.1264 -0.2766  0.2699
16645W        W72886  18.642  27.577   0.910  0.1477 -0.1014 -0.0541
16646W        W72887  10.344  22.226   9.463  0.1002  0.0359 -0.0966
16647W        W72888   7.567   0.305   2.056 -0.4016  0.3222 -0.0623
16648W        W72889  32.984  29.703   5.891  0.1097 -0.3343 -0.1796
16649W        W72890   3.124   6.119   4.659  0.3496  0.0232  0.1730
16650W        W72891   1.613  19.467  17.791 -0.3135  0.2703  0.3279
16651W        W72892   9.351   5.016  11.455  0.2442 -0.0754  0.1535
16652W        W72893  10.494  30.942   9.336  0.1568 -0.0209 -0.1783
16653W        W72894  27.610   9.146  22.667  0.2778  0.0554 -0.5331
16654W        W72895  34.084   8.824  13.134 -0.1720  0.0830 -0.0232
16655W        W72896  10.184  15.751  24.293 -0.0699 -0.0423  0.0189
16656W        W72897   3.138  11.708  21.786  0.2376 -0.0105  0.0111
16657W        W72898  26.837  16.570  19.659  0.1120  0.0680  0.0847
16658W        W72899  24.165  27.808   0.813  0.1322 -0.0634  0.1877
16659W        W72900  17.203   5.267  24.694 -0.0474  0.2490 -0.1736
16660W        W72901  19.050  19.426  22.826 -0.1277 -0.0861 -0.3366
16661W        W72902  16.904  14.832   5.615 -0.0199 -0.4587  0.1111
16662W        W72903   4.651  23.104   5.962 -0.2095 -0.0837  0.1060
16663W        W72904  32.886  18.672  16.453  0.0060  0.1580 -0.0703
16664W        W72905  22.676  31.064  19.602  0.1053  0.1282  0.3727
16665W        W72906  11.673   5.588   2.359 -0.0495  0.0508 -0.0956
16666W        W72907   0.392  19.138  13.660 -0.1639 -0.0785 -0.2381
16667W        W72908  30.447   4.985   4.646  0.0620 -0.0043 -0.2927
16668W        W72909   7.092  17.633  19.704 -0.3244  0.1086 -0.2201
16669W        W72910  15.574  19.583   6.105 -0.2995  0.3697  0.2829
16670W        W72911  35.346  31.940  16.195  0.0119 -0.1824 -0.2365
16671W        W72912  16.564  11.370  24.919 -0.1332 -0.0528 -0.5496
16672W        W72913  24.946  19.273  12.498  0.0668  0.4825 -0.0281
16673W        W72914   4.358  25.720   5.443 -0.5452  0.0475  0.1000
16674W        W72915   9.377   1.681  25.095  0.3253 -0.1071 -0.0837
16675W        W72916   1.873  11.740  13.978  0.4201  0.1602 -0.0747
16676W        W72917  14.998  31.782   5.749 -0.2763 -0.0035 -0.0250
16677W        W72918   8.156  13.226   4.109 -0.0090  0.2084 -0.0459
16678W        W72919  15.090   8.643  22.284 -0.2044  0.0037 -0.0316
16679W        W72920   5.773  31.931   6.714  0.0377  0.2922  0.1843
16680W        W72921  34.267  25.422  20.080 -0.0047  0.1483  0.0409
16681W        W72922  22.947  28.043  22.980 -0.2070  0.0639  0.0302
16682W        W72923  10.354  15.868  25.665  0.0942  0.6148 -0.2418
16683W        W72924  22.115   2.526  21.676  0.2383 -0.2692  0.1463
16684W        W72925   0.879  15.952  19.070  0.1358 -0.0126 -0.0815
16685W        W72926  26.189   2.214  12.174  0.3434 -0.3804 -0.1524
16686W        W72927  32.952  12.614   8.415 -0.0207  0.2190  0.0040
16687W        W72928  12.639  25.967  24.790 -0.2450 -0.0393 -0.4821
16688W        W72929   1.008   2.080   1.804 -0.3532  0.2229 -0.1103
16689W        W72930  31.864  23.308  12.685  0.1395 -0.1965 -0.0658
16690W        W72931  19.976  30.759   3.277 -0.2285  0.2131 -0.1391
16691W        W72932  24.768   9.377  20.246 -0.3129 -0.0649 -0.0376
16692W        W72933   0.420   5.977  16.416 -0.0833  0.0338 -0.0653
16693W        W72934  18.260   0.119   3.639 -0.0639 -0.0182  0.0470
16694W        W72935   2.668  19.187  25.526  0.0806 -0.1512 -0.0395
16695W        W72936  30.828  14.016  23.641  0.0243  0.3653 -0.1302
16696W        W72937  17.566  16.727   7.435  0.2423 -0.3930 -0.1428
16697W        W72938   9.240  29.232   0.365  0.1815 -0.2415 -0.2515
16698W        W72939  17.331  32.629   6.574 -0.3879 -0.0102 -0.0899
16699W        W72940   1.581  16.790   9.709 -0.1767 -0.0509  0.0256
16700W        W72941  15.188  29.847  22.444 -0.2122 -0.0210 -0.1975
16701W        W72942  12.609  23.946  12.159  0.0246 -0.3213 -0.0849
16702W        W72943   8.221   1.870   8.140  0.0920  0.0557 -0.1920
16703W        W72944  14.116  13.080  25.786 -0.0955 -0.1213  0.0337
16704W        W72945   2.258  31.271  10.396  0.0413 -0.0596 -0.1677
16705W        W72946  27.832  10.604  15.375  0.1344  0.0335 -0.1730
16706W        W72947  24.237  32.556   1.686  0.0817 -0.4862 -0.1816
16707W        W72948   4.043   5.242   1.817  0.3138  0.1920  0.1693
16708W        W72949  33.135  27.063  23.709 -0.0073 -0.2939  0.1241
16709W        W72950  10.117  32.904   0.925 -0.0761  0.3052  0.2412
16710W        W72951  31.068   5.325  16.868  0.0890 -0.1219 -0.3194
16711W        W72952  23.770  22.805  14.410  0.0135  0.1330 -0.3072
16712W        W72953  28.848   4.194  16.639 -0.2144  0.3518 -0.1314
16713W        W72954   4.764  14.084   1.835 -0.2780 -0.3232  0.0871
16714W        W72955   6.065   7.846  20.324 -0.0233 -0.0286 -0.3854
16715W        W72956  26.622  15.220  13.107  0.0528 -0.1721 -0.0716
16716W        W72957  13.112  30.626  15.012 -0.2707  0.0140  0.0128
16717W        W72958  19.693  32.431  20.717 -0.0720  0.2072  0.1737
16718W        W72959  20.688  27.537   4.279 -0.0684  0.0242 -0.3037
16719W        W72960  14.186  34.478   6.645  0.1633 -0.2451 -0.0668
16720W        W72961  31.646  33.715   4.628 -0.0250  0.0066 -0.2558
16721W        W72962  21.039  12.307  16.060 -0.2336  0.3163  0.0573
16722W        W72963  33.287   3.332  16.093  0.2979  0.0597 -0.0757
16723W        W72964  16.652  34.037   3.315  0.0552 -0.0766 -0.2483
16724W        W72965  14.315   3.052  23.035 -0.2227 -0.1511  0.2471
16725W        W72966  24.679   7.017  21.987  0.2064 -0.0915 -0.1731
16726W        W72967  24.405  13.176  12.663 -0.1125  0.2302 -0.1152
16727W        W72968  10.524  12.558   5.571  0.1960 -0.0543 -0.1675
16728W        W72969  25.918  16.157  14.711 -0.2460 -0.1403 -0.0528
16729W        W72970  33.874  30.507   4.825 -0.0250  0.0558  0.0970
16730W        W72971  20.657  32.447  16.764 -0.2685  0.1313  0.1642
16731W        W72972   0.047  10.442  21.895  0.2672  0.3921 -0.1724
16732W        W72973   2.527  31.471  25.939  0.0580  0.1429 -0.0299
16733W        W72974  32.663  27.766  17.607 -0.0632  0.0649 -0.0376
16734W        W72975  18.428   4.040   4.291 -0.0526  0.1322 -0.3062
16735W        W72976  20.263   3.230  25.872  0.3081 -0.0454  0.4116
16736W        W72977  20.973   1.801   4.612 -0.4216  0.0427 -0.2585
16737W        W72978   7.137  29.491  24.907  0.1849 -0.1894  0.1615
16738W        W72979   4.158  11.341  21.060 -0.1775 -0.0959 -0.0812
16739W        W72980  30.895  12.724  20.764 -0.1257 -0.1590 -0.1113
16740W        W72981   9.187  29.675   6.961 -0.1063  0.3595  0.1303
16741W        W72982  10.905  15.248   8.393 -0.1101  0.2524  0.0053
16742W        W72983  11.860  20.136  24.952  0.1510  0.3987  0.4301
16743W        W72984   7.934  18.884  23.674  0.2487 -0.2369  0.1193
16744W        W72985   2.816  35.262   7.530 -0.2972 -0.1199  0.1897
16745W        W72986  13.826  15.806   3.119  0.1286 -0.2537  0.0945
16746W        W72987   3.523   5.060  24.626 -0.0694 -0.0331  0.0209
16747W        W72988  26.946  16.735   7.597 -0.2231 -0.1636 -0.2988
16748W        W72989  28.145  17.929  23.290 -0.1939 -0.0082 -0.1952
16749W        W72990  32.868  19.372   9.828 -0.1464  0.1830  0.0448
16750W        W72991  22.585  26.747   4.725 -0.1769  0.0062  0.0837
16751W        W72992  19.940  11.810  21.768 -0.0936 -0.3239  0.0263
16752W        W72993   6.954   9.004  19.585  0.1634  0.0615  0.0935
16753W        W72994   4.600  11.671  19.057 -0.0282  0.0992  0.0671
16754W        W72995  13.277   7.364  13.363 -0.0467  0.2266  0.1973
16755W        W72996   4.235  30.789   1.724 -0.0640 -0.0010 -0.0560
16756W        W72997  17.769   1.592   2.956 -0.1117  0.1676  0.2091
16757W        W72998  24.700   2.519  13.753 -0.0683  0.0708  0.0141
16758W        W72999  21.056   7.682  19.632  0.2757 -0.0092 -0.1454
16759W        W73000  27.985  12.814  13.373 -0.2546  0.0315  0.1113
16760W        W73001  10.489  16.098  12.486 -0.0322  0.2832  0.0992
16761W        W73002  30.698  11.086   6.915  0.1328  0.1454 -0.0994
16762W        W73003  34.655  13.081  22.685 -0.5278  0.1730  0.1799
16763W        W73004  15.251  30.627  12.063  0.1341  0.2553  0.1321
16764W        W73005  14.467  20.739   3.599 -0.2122 -0.1112  0.0532
16765W        W73006  25.923  11.793   1.354 -0.0079 -0.0377 -0.2295
16766W        W73007  12.484  13.730  10.972 -0.4495  0.3484  0.1091
16767W        W73008   5.311  21.151   0.495  0.0606  0.2254  0.3438
16768W        W73009  15.075  12.603   8.936 -0.5401 -0.0123  0.0273
16769W        W73010  14.286  27.455   6.952  0.0972  0.3238 -0.2638
16770W        W73011  12.559  24.589   3.838 -0.0249  0.0022  0.2112
16771W        W73012  14.265  12.269  12.333 -0.2548  0.2465  0.0099
16772W        W73013  31.738  34.735  22.462 -0.1883 -0.0444  0.5058
16773W        W73014   0.125  14.505   7.936  0.4546  0.0493 -0.0138
16774W        W73015   0.180   3.112   1.872  0.0350 -0.0180 -0.2874
16775W        W73016  28.627   9.015  23.305  0.5580  0.0746 -0.0213
16776W        W73017  30.423   7.762  19.999  0.1599  0.1254  0.3930
16777W        W73018   4.606  34.786   5.095 -0.3368 -0.0682  0.1087
16778W        W73019   5.366   1.297   1.280 -0.0034 -0.1844 -0.0315
16779W        W73020  11.051   3.458  20.601 -0.2208 -0.1142 -0.2166
16780W        W73021  25.514   8.936  15.211 -0.0934 -0.4446 -0.0666
16781W        W73022  31.319  30.253   6.256  0.4286 -0.0282  0.0315
16782W        W73023  13.683  31.034  23.828  0.2841  0.0075  0.2468
16783W        W73024   2.658  34.987  10.905 -0.1085  0.2548 -0.0963
16784W        W73025   2.414  34.898  25.206 -0.0683  0.2009  0.1310
16785W        W73026  12.836   3.177   1.977  0.3003 -0.0546 -0.0446
16786W        W73027  17.868  18.745   9.109 -0.2067  0.3783  0.1014
16787W        W73028  19.018  34.673   4.438 -0.1997 -0.1941  0.1318
16788W        W73029  33.902   3.048   0.063  0.3740 -0.3617 -0.1405
16789W        W73030   8.416  24.553   9.752  0.0080  0.2503 -0.1122
16790W        W73031  11.945   6.272  25.119  0.0542  0.1127 -0.1513
16791W        W73032   5.542  14.890   6.421 -0.1264  0.1290  0.3915
16792W        W73033   7.067  21.547   6.602 -0.4449 -0.1040 -0.2543
16793W        W73034  13.915   4.474   5.986  0.1528 -0.3828  0.0511
16794W        W73035  30.624   2.565   4.199 -0.0033 -0.1279  0.0892
16795W        W73036   4.208  10.586   5.707 -0.3395 -0.0359  0.2309
16796W        W73037  14.702   7.094  10.534 -0.1344 -0.0815 -0.1450
16797W        W73038  30.229  30.176  25.576 -0.1379  0.0348 -0.3156
16798W        W73039  30.893  25.762   0.839  0.1605  0.1297 -0.3025
16799W        W73040  30.629  18.179  18.571 -0.4114  0.3288 -0.0922
16800W        W73041  34.212  25.752  19.108 -0.0256  0.0711 -0.1610
16801W        W73042   5.801   9.190  24.863  0.1866  0.2336 -0.0429
16802W        W73043  23.855   4.761  25.541  0.0376 -0.0694 -0.0076
16803W        W73044  31.135  24.682   7.201 -0.2156 -0.0818  0.0823
16804W        W73045  12.040  10.682   4.040 -0.0649 -0.3236 -0.1108
16805W        W73046  30.328  16.581  19.940  0.0247  0.0635 -0.1017
16806W        W73047  14.713  31.421  11.971 -0.0651 -0.0920  0.0595
16807W        W73048  31.972  13.808  24.917 -0.1778  0.0551  0.3204
16808W        W73049   8.829  28.216  13.273  0.0992  0.1781 -0.0023
16809W        W73050   5.252   2.544   0.317 -0.1161  0.2267 -0.0570
16810W        W73051  32.900   1.012  14.377 -0.1487 -0.2251 -0.1959
16811W        W73052  18.705  11.291  19.024  0.0456  0.0476 -0.1562
16812W        W73053   3.359   2.935  18.796 -0.0273 -0.3429  0.0373
16813W        W73054  13.605  10.916  13.187 -0.1094 -0.2520 -0.2805
16814W        W73055   5.877  11.880  17.607 -0.0421  0.1081  0.0725
16815W        W73056  23.718  15.501  15.955 -0.2218 -0.0798  0.0636
16816W        W73057  12.739  21.434  22.510 -0.0077  0.2615  0.0447
16817W        W73058  28.372   2.293  14.543 -0.0544  0.2922  0.0891
16818W        W73059  18.408  16.082  21.273 -0.2738  0.2186 -0.2869
16819W        W73060  14.018  28.462  14.247 -0.0175 -0.0927 -0.0160
16820W        W73061  25.197  33.622  12.868  0.1299 -0.0107 -0.1068
16821W        W73062   6.828   9.314  25.791 -0.3090 -0.1277  0.0136
16822W        W73063  16.416  33.287  20.950  0.1727  0.0200 -0.0169
16823W        W73064  11.548  25.916  16.483 -0.0738 -0.1024 -0.1348
16824W        W73065  28.861  34.303  26.176 -0.0166 -0.1571  0.3010
16825W        W73066  14.753   7.840  25.072  0.0024 -0.1973  0.0582
16826W        W73067  20.196  21.546   7.507 -0.3173  0.1034 -0.1007
16827W        W73068  24.432   2.366   6.643  0.0399 -0.1523  0.3343
16828W        W73069  31.164  17.395   8.186 -0.2627  0.0981 -0.0143
16829W        W73070  17.197  20.863  20.839 -0.0118 -0.1168 -0.0382
16830W        W73071  20.328  31.784  19.655 -0.0442  0.1051 -0.1161
16831W        W73072  31.355   0.216  15.247  0.3674 -0.0294  0.0193
16832W        W73073  11.372   9.453  11.788 -0.0408 -0.0508 -0.1505
16833W        W73074   4.655  31.235   0.498  0.2735 -0.0142 -0.2290
16834W        W73075   6.104   3.731   8.678 -0.2444  0.0317 -0.1164
16835W        W73076   0.504   5.023  13.785  0.0121  0.1286  0.5267
16836W        W73077   5.471   7.489   0.454 -0.0774 -0.0454 -0.1033
16837W        W73078  26.464  16.481   7.529  0.4594 -0.0938 -0.1834
16838W        W73079   4.269  22.007   4.356  0.0189  0.2843 -0.0221
16839W        W73080  14.223  27.429  14.514  0.2950  0.0979  0.2267
16840W        W73081  18.003  15.784  20.854  0.0894  0.0258  0.1804
16841W        W73082  15.414  31.517  21.621  0.0094  0.1620 -0.2292
16842W        W73083  15.605  25.899  13.574 -0.2202 -0.1747 -0.1082
16843W        W73084   7.809  11.620  20.626  0.2174 -0.2621 -0.7560
16844W        W73085  26.243  19.603   0.179 -0.3056 -0.1867  0.0572
16845W        W73086  28.596  15.054   8.736  0.4232  0.2378 -0.0004
16846W        W73087  15.854  27.060  11.609 -0.0008 -0.1633 -0.3795
16847W        W73088   2.488  20.329   0.573  0.1525 -0.0562  0.1226
16848W        W73089   2.439  32.916   3.702  0.0808 -0.1299  0.0601
16849W        W73090  22.533  25.668  19.661  0.0517  0.2416  0.0546
16850W        W73091  31.667   4.710  19.696 -0.1606  0.2265  0.2756
16851W        W73092  14.284   1.556  23.102  0.0851  0.1084 -0.0862
16852W        W73093   0.944   2.685  23.880  0.1661 -0.4215  0.1145
16853W        W73094  24.719  22.584  20.463  0.0741 -0.2517 -0.2168
16854W        W73095  26.704  29.222  22.834  0.1295 -0.2644  0.1100
16855W        W73096   0.763  30.385   0.492  0.2411 -0.1119 -0.0742
16856W        W73097   3.111  13.009   4.818 -0.1566 -0.0866  0.1091
16857W        W73098  21.398  17.077   0.148 -0.0495  0.0298  0.1996
16858W        W73099   7.625  23.097   3.423 -0.3930  0.0546  0.1302
16859W        W73100  14.133  25.400   9.138  0.0330  0.1274  0.0977
16860W        W73101   8.993  33.154   3.150  0.1059  0.2761 -0.2028
16861W        W73102  33.363  35.061   5.439 -0.1040 -0.1602 -0.2793
16862W        W73103   6.382  20.650   3.760 -0.1279  0.1966 -0.3145
16863W        W73104  12.385  15.483  26.055 -0.1762 -0.1981 -0.1878
16864W        W73105  26.862  11.349  22.558  0.2539  0.3251  0.2306
16865W        W73106   6.802   6.860  11.748  0.1986  0.0598  0.0699
16866W        W73107  10.283  12.480  19.759  0.1288 -0.0360 -0.2260
16867W        W73108   4.914  21.271  18.430  0.0397  0.0383  0.1069
16868W        W73109  21.526   0.147  17.264  0.3957 -0.1584  0.0576
16869W        W73110  27.984  17.857  12.036 -0.4546  0.0908 -0.0991
16870W        W73111   8.909  11.897  19.412  0.2765 -0.4636  0.0387
16871W        W73112   1.545  10.107  23.394 -0.0130 -0.0032 -0.3809
16872W        W73113  32.656  24.241  15.118 -0.0615  0.0627 -0.0410
16873W        W73114   2.793  31.583   6.162  0.0712 -0.1318 -0.1505
16874W        W73115   4.083  18.110  22.834 -0.0645 -0.2283  0.2220
16875W        W73116   5.922  18.679  25.100 -0.3455 -0.2688 -0.0087
16876W        W73117  18.077  10.798   3.845  0.0237 -0.1705  0.4599
16877W        W73118  32.326  28.158  19.002  0.1340  0.0541 -0.1229
16878W        W73119  33.134   1.236  18.707  0.0182  0.0532 -0.3718
16879W        W73120  26.303  16.592  15.281  0.4261  0.1800  0.0295
16880W        W73121  21.325  11.557  18.277 -0.0319  0.0572 -0.2894
16881W        W73122  16.298  30.791  20.972  0.1981 -0.1643 -0.0681
16882W        W73123  15.071  32.006  12.743 -0.0274  0.0424 -0.2519
16883W        W73124  25.830   3.037  25.317 -0.4286  0.0248 -0.2489
16884W        W73125  12.469  23.873  10.203 -0.0064 -0.2859  0.1155
16885W        W73126  14.156  29.976  10.165  0.1016 -0.2951  0.3210
16886W        W73127  34.442  21.657  18.577 -0.1983  0.1079  0.0119
16887W        W73128  28.249  26.190  21.970 -0.2223  0.1863  0.2270
16888W        W73129  29.557  31.180  23.865  0.1387 -0.0012  0.0367
16889W        W73130  26.747   1.651  19.352 -0.0012  0.0037  0.2303
16890W        W73131   4.962   8.491  25.914  0.0353  0.0003 -0.0800
16891W        W73132  27.714   5.023   3.879 -0.1172  0.0728  0.0426
16892W        W73133   9.595  31.936   8.737 -0.0446 -0.0885 -0.1291
16893W        W73134  20.535  12.340   5.777  0.0645 -0.1660 -0.2217
16894W        W73135   8.083  28.775   7.687 -0.3287 -0.0775  0.1422
16895W        W73136  22.732  27.261  12.509 -0.0932 -0.1486  0.3491
16896W        W73137   9.307  13.435  12.421  0.0844 -0.1310 -0.1298
16897W        W73138   6.589  27.093  13.394 -0.0344 -0.0872  0.1556
16898W        W73139  12.747   1.533   2.931  0.2877 -0.1926  0.0982
16899W        W73140  23.807  17.149  22.927  0.0327 -0.0338 -0.0981
16900W        W73141   1.673   2.883   7.049  0.0284  0.0323 -0.0256
16901W        W73142   7.173  31.505  22.577  0.1880 -0.0684 -0.3447
16902W        W73143  22.074  21.793  22.047  0.0616 -0.0099 -0.1370
16903W        W73144  14.187   2.172  18.470  0.2599  0.0736 -0.1092
16904W        W73145  28.076  17.259  18.659  0.0684 -0.0474 -0.3795
16905W        W73146   5.601   7.043  10.259 -0.1883 -0.2139  0.1870
16906W        W73147  30.353  14.308  16.995 -0.0050  0.1722 -0.0218
16907W        W73148   4.449  19.448  26.154  0.0802 -0.1596  0.1394
16908W        W73149   0.619   4.437  23.644  0.0621  0.0500  0.1345
16909W        W73150  32.601  26.072  18.846 -0.2957  0.1431  0.1161
16910W        W73151  16.848  23.870  14.779 -0.0064  0.0393 -0.4038
16911W        W73152  27.452  10.788  13.002 -0.0828  0.1424  0.0172
16912W        W73153  13.947  21.734  23.301  0.2537 -0.1293 -0.1321
16913W        W73154  14.199   2.047  20.671 -0.0640  0.0712 -0.2567
16914W        W73155  18.415  19.759  21.514 -0.0217 -0.2141  0.1757
16915W        W73156  23.889  30.672  18.362  0.0498 -0.0894  0.0459
16916W        W73157   9.732  24.971   5.078 -0.0137 -0.0018 -0.1022
16917W        W73158   5.145  33.446  22.346 -0.1419 -0.2883 -0.4249
16918W        W73159  32.347  26.571   1.764 -0.0967  0.1124 -0.0029
16919W        W73160   6.023   9.915  24.970 -0.1221 -0.0271 -0.1403
16920W        W73161  28.478  30.772  18.062 -0.1525 -0.1489 -0.0942
16921W        W73162  21.412  34.681   4.641 -0.0004  0.1148  0.1811
16922W        W73163  30.842  23.268  26.103  0.0961  0.4075 -0.1051
16923W        W73164  30.258  10.396  14.850  0.2089 -0.0792  0.1920
16924W        W73165  19.098  24.911   7.780 -0.0775 -0.0519 -0.1748
16925W        W73166  13.778  26.678   2.097 -0.1062  0.0780  0.0849
16926W        W73167  24.816  29.496  24.946  0.0235  0.0682 -0.3073
16927W        W73168  21.792  17.894  17.257 -0.1458  0.3730  0.2794
16928W        W73169  10.507  29.613   0.100  0.1019  0.1274 -0.0204
16929W        W73170  24.743   5.553   1.833 -0.4477  0.2678  0.1252
16930W        W73171   2.456  13.073   0.792 -0.1246 -0.0008  0.0035
16931W        W73172  32.467  11.739  23.717 -0.2889  0.0127  0.2807
16932W        W73173  29.963  31.191   1.104  0.1258  0.1247  0.0898
16933W        W73174  22.426   1.982  19.145  0.2537 -0.0695 -0.1951
16934W        W73175  23.632   7.006  20.061  0.3505  0.0719  0.3861
16935W        W73176  33.918  11.103  22.311  0.0477 -0.3089 -0.3269
16936W        W73177  22.932  10.778  17.064  0.0142 -0.0965  0.1748
16937W        W73178  33.163   0.067  24.077  0.0531  0.1217 -0.1942
16938W        W73179  19.801  15.519   5.484  0.0399 -0.1775  0.0060
16939W        W73180  33.165  24.639  17.519  0.1317 -0.1963  0.0327
16940W        W73181  26.091   1.204   1.993  0.1741  0.3199  0.3718
16941W        W73182   1.326   1.256   8.920  0.0486  0.1727 -0.2527
16942W        W73183  32.701   8.628  15.474  0.0764  0.0840  0.0309
16943W        W73184  27.806  18.912   5.918  0.1190  0.3007  0.0819
16944W        W73185  20.868  20.186  20.738 -0.0231  0.1380  0.2389
16945W        W73186   5.304  22.879   1.215  0.0549  0.1456 -0.2869
16946W        W73187   8.449  15.755   1.766  0.3529  0.0150  0.6558
16947W        W73188  12.428  15.889  11.671  0.0440 -0.2808 -0.1179
16948W        W73189   9.780  33.083   5.568  0.2976  0.1778 -0.0624
16949W        W73190  33.244  33.410  20.715 -0.4066  0.3277 -0.0190
16950W        W73191  12.543  11.594   3.972  0.2850 -0.2776 -0.1540
16951W        W73192  12.429  28.488  12.267 -0.2013  0.2666  0.1407
16952W        W73193  23.309   1.515  14.427 -0.2283 -0.1750  0.4218
16953W        W73194  17.444  26.895   0.853  0.0224 -0.1201  0.0509
16954W        W73195   1.864  10.289  16.155 -0.0978 -0.2256 -0.0450
16955W        W73196  14.001  31.203   2.974 -0.0343  0.1587  0.0481
16956W        W73197   9.797  33.198  25.201 -0.0007  0.4106  0.0619
16957W        W73198   8.758  33.600   6.005 -0.2963 -0.0891 -0.1499
16958W        W73199  26.634  16.186  25.449 -0.3493 -0.1218 -0.2335
16959W        W73200   6.690   9.867   9.235  0.1399  0.1550  0.2320
16960W        W73201  23.976  29.758  24.644  0.0879 -0.1108 -0.2556
16961W        W73202   3.935   1.939  19.423 -0.0297  0.1885 -0.0020
16962W        W73203  30.258  30.537   1.542 -0.1016  0.2230  0.0531
16963W        W73204  15.104  31.977   8.066  0.1820  0.0904 -0.2426
16964W        W73205  10.768  10.068   5.994  0.2989 -0.2125 -0.1116
16965W        W73206  10.860  15.086  12.361  0.1112 -0.1089  0.2097
16966W        W73207  10.143  33.182  24.295  0.1084 -0.1198 -0.2172
16967W        W73208  34.450  18.451   7.191  0.1424  0.2027 -0.0678
16968W        W73209  29.914  11.483  25.429 -0.1145  0.1178 -0.1071
16969W        W73210  28.921  18.197   3.710 -0.2499 -0.1319 -0.1908
16970W        W73211   2.551  13.634  22.793  0.1677 -0.0655 -0.2051
16971W        W73212  15.593  20.176  13.546  0.1729 -0.0419 -0.1230
16972W        W73213   2.800  26.236   2.678  0.0507 -0.1044  0.0114
16973W        W73214   4.892  17.423  24.510  0.3016  0.3316  0.0910
16974W        W73215   7.885  31.737  11.590 -0.0081  0.1410  0.1690
16975W        W73216  14.342   4.944  24.350  0.2499  0.2288 -0.1313
16976W        W73217  24.740  15.846  23.827  0.1834 -0.0205 -0.1216
16977W        W73218   5.832   0.493  25.733 -0.3091 -0.0447  0.2175
16978W        W73219  13.517   3.480   5.068  0.2250 -0.0124 -0.0482
16979W        W73220   2.581  10.590  25.292 -0.2175  0.2267 -0.0497
16980W        W73221  30.584  26.401  25.906 -0.1769 -0.0656 -0.1860
16981W        W73222   6.447  32.841  20.692  0.0737 -0.3424  0.1719
16982W        W73223  13.490  26.437  14.973 -0.0927  0.0888 -0.3331
16983W        W73224  10.913  13.865  10.851  0.1411 -0.1538 -0.1646
16984W        W73225  10.825  31.682   8.618  0.1703  0.0390  0.0629
16985W        W73226   1.517  11.256  16.542  0.0840  0.1158 -0.0290
16986W        W73227   0.313  31.526  19.536 -0.0146  0.0823  0.0152
16987W        W73228  17.849  27.101  19.923  0.0592  0.0403  0.1482
16988W        W73229  18.283   4.068  19.882 -0.0697  0.0133  0.3291
16989W        W73230   4.674   2.406  24.624  0.0822  0.0325  0.1451
16990W        W73231  33.598   0.468  24.415  0.0205  0.1982 -0.1476
16991W        W73232   5.830   1.378  10.120  0.0011 -0.0032  0.1477
16992W        W73233  21.286  29.786  15.760  0.0273  0.2714  0.1121
16993W        W73234   2.660  30.605   0.469  0.0992 -0.0873 -0.1107
16994W        W73235   7.156  28.106   8.343  0.1001  0.0735  0.6996
16995W        W73236  15.715  19.299  14.527  0.0939  0.0810  0.0464
16996W        W73237   8.291   3.548   6.192  0.0163  0.1920  0.1926
16997W        W73238  13.924  24.919  10.316  0.1005  0.1237  0.1167
16998W        W73239  13.528   1.265   7.593  0.5315  0.1524  0.1021
16999W        W73240  30.043  17.331  19.974  0.0775 -0.0589  0.1429
17000W        W73241   3.868   0.078  25.620  0.0961 -0.0790  0.0848
17001W        W73242  10.262  21.120   7.964  0.1987  0.1113 -0.0696
17002W        W73243  21.622   2.249   8.920  0.1045  0.1667 -0.3055
17003W        W73244  10.284  11.649  10.056 -0.1954  0.1305 -0.0952
17004W        W73245  11.523  24.569  22.258  0.0407 -0.1188 -0.1455
17005W        W73246  15.966  13.539  26.045 -0.2101  0.0129  0.1354
17006W        W73247  35.190  20.104   1.065  0.3575  0.3096 -0.2943
17007W        W73248  19.602  21.717  22.082 -0.3337 -0.5885 -0.0301
17008W        W73249   7.708  16.338  10.714 -0.2759  0.3394  0.0097
17009W        W73250  29.921  31.944  24.391  0.1837 -0.0066 -0.0223
17010W        W73251  10.997   9.634   3.729 -0.1250 -0.5661 -0.0671
17011W        W73252  26.481   0.566  17.873 -0.0678 -0.1920 -0.1278
17012W        W73253  13.622  21.434   1.104 -0.1281 -0.0509 -0.0858
17013W        W73254  17.460  10.250   5.593 -0.0036 -0.0311  0.2223
17014W        W73255  35.040   4.983  22.864 -0.1402  0.0395 -0.1284
17015W        W73256  25.531  22.835   0.930 -0.0315 -0.1617  0.2545
17016W        W73257   2.137  12.835  23.841  0.1782  0.1450 -0.1928
17017W        W73258  26.286  27.564  12.434 -0.0113 -0.0351 -0.1080
17018W        W73259   4.631  18.363  23.235 -0.1260  0.0813 -0.1752
17019W        W73260  21.907  17.996  22.021  0.0142  0.1111 -0.3305
17020W        W73261  12.426  29.135  10.840 -0.1718  0.0782 -0.1914
17021W        W73262  18.460   4.589  20.077 -0.3374 -0.0307 -0.0479
17022W        W73263  13.366  22.662   2.725  0.1467 -0.0898  0.1068
17023W        W73264   4.739  26.854   1.315 -0.2676  0.2011 -0.0607
17024W        W73265  29.695  30.333  20.994  0.1156 -0.2316  0.2898
17025W        W73266  33.732   2.656   6.600 -0.1621 -0.0220  0.3508
17026W        W73267   8.710   1.650   5.892  0.0666 -0.3803  0.0625
17027W        W73268  14.608  31.220   1.891  0.0518  0.3861  0.1278
17028W        W73269  23.979  23.062  12.044  0.1812  0.0050  0.2319
17029W        W73270   8.787  31.152  23.543 -0.1771 -0.0664  0.1006
17030W        W73271  34.982  35.012  17.015  0.0315  0.1086  0.3075
17031W        W73272  23.418  32.517  21.440 -0.0607 -0.0860  0.2468
17032W        W73273  29.123  16.406  14.552 -0.0063  0.1084 -0.2344
17033W        W73274  33.310   2.878  22.891 -0.1392 -0.0977 -0.2506
17034W        W73275  28.667   9.636   8.842 -0.2473 -0.3724 -0.2413
17035W        W73276  26.680   0.205  16.531 -0.3099 -0.3380  0.0612
17036W        W73277  33.197   3.784  22.803  0.1513 -0.0337  0.3705
17037W        W73278  31.337  33.803  16.602  0.4405  0.1306 -0.1051
17038W        W73279  24.377   1.833  23.149 -0.1628 -0.3620 -0.4093
17039W        W73280  11.684   2.762   8.315  0.0357  0.3393 -0.3852
17040W        W73281  31.481  18.441  18.407 -0.1037  0.1031  0.0633
17041W        W73282  14.662  19.287   1.137 -0.1211  0.1072  0.0881
17042W        W73283  18.657  17.331  20.724  0.0829 -0.1192 -0.4860
17043W        W73284  11.009  19.656   5.998 -0.0406 -0.0016  0.1201
17044W        W73285  14.214  17.932   5.970  0.0397  0.1991  0.2360
17045W        W73286   6.603  27.387   0.477  0.0403  0.0357 -0.0256
17046W        W73287  26.701   1.802  14.989  0.0033 -0.0150  0.2051
17047W        W73288   5.983   8.001   4.432  0.1168 -0.0821  0.2065
17048W        W73289   9.762  14.862   7.900  0.1035 -0.2429 -0.1516
17049W        W73290   3.684  26.471  24.676 -0.4005 -0.0390  0.2424
17050W        W73291  31.012  16.167  15.997  0.1606 -0.1604 -0.2031
17051W        W73292   4.546  29.924  20.698 -0.0672 -0.2765  0.2182
17052W        W73293  31.765  28.877  22.092 -0.1156  0.0323 -0.1315
17053W        W73294  24.606  27.335  21.217  0.0867  0.0203  0.2883
17054W        W73295  31.437  25.421  24.347 -0.0423  0.0747 -0.0544
17055W        W73296   2.817   1.203  23.650  0.1477  0.2754  0.1595
17056W        W73297   2.276  17.552  24.620  0.2180  0.0787 -0.1603
17057W        W73298  19.264  25.697  20.555 -0.0257 -0.2926 -0.1147
17058W        W73299  26.597  13.072  13.001  0.2705  0.1152 -0.0338
17059W        W73300  17.122   8.001   8.193  0.2181 -0.3142 -0.1533
17060W        W73301  30.251  22.437   7.514  0.0405  0.0928 -0.0966
17061W        W73302  30.376  23.645  13.491 -0.0573  0.1136  0.1329
17062W        W73303   6.079  17.341  17.980 -0.2388  0.3487 -0.3318
17063W        W73304   4.712  10.658   1.025  0.3566 -0.1315 -0.1556
17064W        W73305  27.768  23.900  11.487 -0.0698  0.1290  0.0568
17065W        W73306  27.839  27.427  22.172  0.0350 -0.1345 -0.1464
17066W        W73307   3.176  34.356  21.005 -0.1198  0.3374 -0.1055
17067W        W73308  22.070  34.650   3.798  0.1422  0.0959 -0.2246
17068W        W73309  12.328   9.894  25.069 -0.2765 -0.1229  0.1425
17069W        W73310  16.554  13.806  11.547 -0.0557  0.1949  0.3673
17070W        W73311  29.987   3.089   4.367  0.2146 -0.0649 -0.0320
17071W        W73312  28.896  23.851  17.951  0.0480  0.0368  0.1086
17072W        W73313   3.351  16.726  24.982 -0.1686 -0.1186 -0.1889
17073W        W73314  15.213  15.967  20.370  0.2252 -0.0028 -0.0584
17074W        W73315  13.928  24.252   1.321 -0.0472  0.1782 -0.1821
17075W        W73316   7.826   7.400   2.836 -0.3566 -0.1360  0.1106
17076W        W73317  32.380   4.850  21.255  0.1701 -0.0400  0.1511
17077W        W73318  13.490   8.408  20.604 -0.2518 -0.1490  0.0225
17078W        W73319  32.843   5.151   3.180  0.1307  0.1716 -0.0398
17079W        W73320  15.993  27.377   3.204 -0.0723 -0.0147  0.0208
17080W        W73321  16.913   3.087   3.730  0.1518  0.3582 -0.0040
17081W        W73322  14.814  25.832  23.344  0.2406  0.1920 -0.1632
17082W        W73323  13.460  35.181  25.808  0.2639 -0.1109 -0.1104
17083W        W73324  14.502   7.119   2.960 -0.1808 -0.1585 -0.1565
17084W        W73325  22.007  29.305  15.850  0.4558 -0.2129 -0.2368
17085W        W73326   5.026   8.275  22.922  0.2041  0.1240 -0.0142
17086W        W73327  29.617  19.334  21.744 -0.1313 -0.1132  0.1410
17087W        W73328   3.563  27.229  17.686 -0.2707  0.0007 -0.0029
17088W        W73329   0.894  17.542  12.129 -0.0545  0.2228  0.2062
17089W        W73330   5.726  26.989   4.460 -0.0072  0.0432 -0.0603
17090W        W73331  23.356  30.664  19.475 -0.4543  0.0801 -0.0849
17091W        W73332   2.133  31.294  17.822 -0.2281 -0.1850 -0.0381
17092W        W73333  29.223  25.222  11.467  0.1772 -0.0218 -0.1089
17093W        W73334  29.179   2.679  14.527 -0.0416  0.1280  0.1442
17094W        W73335  14.541  24.128   1.424  0.0809  0.0061  0.1131
17095W        W73336   1.295   1.322   6.945  0.3373 -0.1029  0.0215
17096W        W73337  34.671  22.852  17.113 -0.0012  0.3770 -0.0676
17097W        W73338   5.902  30.367   3.276 -0.4146  0.1730  0.1120
17098W        W73339  15.456   6.708   5.083 -0.2710  0.1739 -0.1766
17099W        W73340  16.315  12.089   6.145  0.0939 -0.0422 -0.1105
17100W        W73341  22.630  26.582   2.011 -0.1003  0.1015 -0.4227
17101W        W73342   6.401  33.358   6.770 -0.1560  0.0182  0.0611
17102W        W73343  23.931   3.420  26.216 -0.0427  0.2583  0.1315
17103W        W73344  13.459  31.403   8.529 -0.0070 -0.1641 -0.3637
17104W        W73345  27.911  21.767  16.981  0.2183  0.2234  0.1946
17105W        W73346  14.324  25.939  14.433  0.5162  0.0691 -0.1461
17106W        W73347  32.947  23.176  16.418  0.2216  0.1279 -0.2519
17107W        W73348  13.733   2.285   3.919 -0.1219  0.0059  0.1554
17108W        W73349   9.477  30.817  24.468  0.0876 -0.1172 -0.3079
17109W        W73350  30.317  30.981  25.932 -0.3328 -0.2537  0.0397
17110W        W73351   5.746  15.372  21.018  0.0378 -0.0773  0.0362
17111W        W73352  24.314  21.860  18.025  0.0369 -0.0058  0.0271
17112W        W73353  14.238  11.765  22.919  0.0112  0.2461 -0.1497
17113W        W73354  13.627  15.219  11.881  0.0845 -0.0180  0.0105
17114W        W73355  18.693   1.979  17.445  0.1142  0.0192  0.2695
17115W        W73356  26.225  23.822   9.882 -0.1312 -0.0395 -0.0043
17116W        W73357   4.868  26.126  25.826 -0.0393 -0.1135  0.0589
17117W        W73358  29.256  21.306  18.354 -0.0585 -0.1746 -0.0320
17118W        W73359  29.926  29.999  24.814  0.0514 -0.3660 -0.2232
17119W        W73360  31.668   1.697  19.548 -0.4101 -0.0073  0.2458
17120W        W73361  25.669   2.432  20.832  0.1677 -0.0639 -0.3165
17121W        W73362  30.699  26.984  24.026  0.5110 -0.2654 -0.1547
17122W        W73363  27.999   8.861   0.989 -0.0443 -0.2463  0.0952
17123W        W73364  20.539  20.814   5.786 -0.2891 -0.0284  0.0891
17124W        W73365  17.571  27.610   0.051 -0.0207 -0.3004  0.1429
17125W        W73366  19.676   3.608   4.852  0.1464  0.0952 -0.2004
17126W        W73367  28.935  14.686   6.385 -0.2701  0.1337  0.0289
17127W        W73368  29.872  19.938  12.129 -0.3673  0.0672  0.0655
17128W        W73369  31.171  26.327   0.521  0.0201 -0.0213  0.0397
17129W        W73370  28.256  28.821  10.065  0.3499 -0.3678 -0.0591
17130W        W73371  22.313  29.072  13.372 -0.1013 -0.2947 -0.1935
17131W        W73372   2.087  32.292   5.026 -0.1314  0.1112 -0.3584
17132W        W73373  32.625  22.411  19.878 -0.1393  0.0875  0.3812
17133W        W73374   0.404  12.647  16.813 -0.1020 -0.2494  0.1319
17134W        W73375  13.956   2.480   7.101 -0.0304 -0.2820  0.1463
17135W        W73376   8.771   9.929  19.998  0.1953 -0.0521 -0.2219
17136W        W73377  18.897  18.395  18.340  0.1533  0.0463  0.1214
17137W        W73378  24.101  27.483  10.848 -0.0070  0.1590 -0.0952
17138W        W73379  32.275  22.707  23.579 -0.0916 -0.1132  0.0247
17139W        W73380  31.981  31.303  22.076  0.2642 -0.0484  0.0021
17140W        W73381  12.454  31.591   6.497 -0.0951 -0.1609 -0.0786
17141W        W73382  29.289  14.216  20.191 -0.3751  0.0698 -0.0594
17142W        W73383  15.573  18.062  12.518 -0.0461  0.0208  0.0407
17143W        W73384  25.324   0.984  12.397  0.1303 -0.2826  0.0775
17144W        W73385  11.667  30.860  25.554 -0.3541  0.1199  0.1933
17145W        W73386  33.696  27.344  22.494  0.0899 -0.0743 -0.3436
17146W        W73387  26.786  11.090  12.122  0.2922  0.3170 -0.1485
17147W        W73388  14.232  10.889  25.410 -0.0779 -0.1686 -0.0178
17148W        W73389  12.344   4.684  19.432  0.2973  0.2381  0.1304
17149W        W73390   4.349  30.967   7.561  0.0939  0.3582  0.2249
17150W        W73391  15.363  21.171   1.750 -0.0438  0.0670 -0.3605
17151W        W73392   3.112  20.457  19.164 -0.2541  0.0129 -0.2691
17152W        W73393   3.974   1.579  19.753  0.4322 -0.0220  0.3010
17153W        W73394  32.990  31.735  19.123  0.3699  0.1548  0.0476
17154W        W73395  10.182   4.938   0.295  0.2253  0.0552  0.0679
17155W        W73396  34.287  26.245  11.963 -0.0780 -0.2331  0.2169
17156W        W73397  29.423   9.161  12.416  0.0524 -0.0250  0.0342
17157W        W73398  27.101  27.726  16.599  0.0678  0.0181  0.3360
17158W        W73399  12.059  13.038  21.197  0.1963  0.0489 -0.1247
17159W        W73400  29.085   0.664  15.504  0.1489 -0.0370  0.2383
17160W        W73401  18.250  16.930  19.549  0.2719 -0.0663 -0.3089
17161W        W73402  10.729   6.256   1.699 -0.3060  0.4491 -0.0603
17162W        W73403  34.393   0.068   2.646 -0.1991 -0.2903  0.0305
17163W        W73404   3.258  18.989  21.400 -0.1545  0.3324  0.3670
17164W        W73405  21.601   2.792  21.051 -0.0249  0.1954 -0.0491
17165W        W73406  30.021   7.363  25.616  0.0583  0.2036 -0.1934
17166W        W73407  30.416  25.544  24.874 -0.0172  0.4341  0.0540
17167W        W73408  25.339   5.693  23.367 -0.0409 -0.2476  0.0652
17168W        W73409   3.407  20.468  23.229  0.1518  0.2800  0.3312
17169W        W73410  33.993   5.274  15.245 -0.4012 -0.0284 -0.2484
17170W        W73411  12.739  30.788  24.253 -0.1953  0.2512 -0.3383
17171W        W73412   7.516   4.734   2.958  0.1929  0.0153 -0.0776
17172W        W73413  28.466  29.002  25.201 -0.0254  0.0232 -0.0654
17173W        W73414  24.130   5.199  25.548  0.3524 -0.0762 -0.1108
17174W        W73415   9.567  17.883  25.178  0.0120 -0.0729 -0.2016
17175W        W73416   8.691  32.073  25.720 -0.0446 -0.0366  0.3059
17176W        W73417  18.847  15.493  11.811  0.0225 -0.1880  0.1409
17177W        W73418  10.578   7.963  19.379  0.1394 -0.1554  0.0818
17178W        W73419  33.629  18.509  19.339 -0.2361  0.4328  0.0678
17179W        W73420  25.198  15.081  17.836  0.2779 -0.0809  0.0916
17180W        W73421  33.073   6.360   0.455 -0.0430 -0.2064 -0.0913
17181W        W73422  27.906  10.339  21.643 -0.1910 -0.4749 -0.1932
17182W        W73423  19.910  24.568   1.018 -0.3166  0.1178 -0.0356
17183W        W73424  26.057   3.310   4.156  0.3325 -0.1236  0.3045
17184W        W73425  21.419  13.585  24.424  0.0053 -0.2895  0.1164
17185W        W73426  21.240  12.999  23.203 -0.0990 -0.1174  0.2053
17186W        W73427  30.367   8.645  25.263  0.0492  0.0506  0.2373
17187W        W73428   4.231  32.284  23.177  0.0802 -0.0272  0.3461
17188W        W73429  10.018  34.981   1.668 -0.3499 -0.0137 -0.2376
17189W        W73430  22.239  31.091  14.050  0.0213 -0.4817  0.1412
17190W        W73431   5.422  10.928   1.284  0.2381  0.1759  0.0543
17191W        W73432  12.233  32.433   0.123  0.0621 -0.0682  0.5506
17192W        W73433  15.704  18.124   8.763 -0.2890  0.1344 -0.3089
17193W        W73434  25.783  18.747  17.207 -0.1400  0.2372 -0.0152
17194W        W73435  19.627  12.656  17.125 -0.0494  0.0176 -0.3358
17195W        W73436   2.313  16.497  19.023  0.0473 -0.1813  0.0411
17196W        W73437  20.435   9.335   5.983 -0.0182 -0.0462 -0.0006
17197W        W73438  22.549   1.491  17.769  0.2526  0.2659 -0.1184
17198W        W73439  18.394  20.404  26.153 -0.3293 -0.1113  0.0502
17199W        W73440  16.784   4.911  25.877  0.3197  0.2428 -0.0163
17200W        W73441   6.594  34.178   9.502  0.0145 -0.2404 -0.0614
17201W        W73442  21.643  15.810  17.111  0.5598  0.4598  0.0606
17202W        W73443  10.333  26.267  13.811 -0.0171 -0.0659  0.0016
17203W        W73444  19.655  29.020   2.898  0.1093  0.0766 -0.1020
17204W        W73445   6.918  26.291   2.511  0.0163 -0.1003  0.1934
17205W        W73446  15.389  16.447   5.637 -0.2375  0.0303  0.2106
17206W        W73447  20.341  12.116  18.714  0.1673  0.2899 -0.1485
17207W        W73448  29.146   8.476  26.038  0.0129  0.3496 -0.1948
17208W        W73449   5.452  32.699   9.297 -0.0648  0.0589 -0.0676
17209W        W73450  18.506  20.914   0.248  0.1582  0.2291  0.2302
17210W        W73451  34.741  16.188   8.781  0.2121 -0.2049  0.4369
17211W        W73452  19.723  31.874  23.420 -0.1237  0.0967  0.3038
17212W        W73453  27.393  33.977  13.010 -0.0065  0.1194  0.1856
17213W        W73454  13.520   9.871   8.765  0.0159  0.0176 -0.1568
17214W        W73455  12.096  35.110   0.667 -0.0250  0.0741  0.1703
17215W        W73456  11.449   1.751  25.640 -0.0862 -0.1989 -0.3115
17216W        W73457  16.670  13.204  23.974 -0.1452 -0.1549 -0.3638
17217W        W73458  16.527  32.046   2.749 -0.0632 -0.0321  0.0128
17218W        W73459  24.196  24.046   2.392 -0.0581  0.1680 -0.1717
17219W        W73460  24.203   6.680  14.677  0.0627  0.3318  0.0153
17220W        W73461  15.309  27.323   6.030  0.3295  0.1894 -0.3287
17221W        W73462  31.697  27.899   4.648 -0.0602 -0.0946 -0.4329
17222W        W73463  21.456  20.955  25.258 -0.3718 -0.1251 -0.0033
17223W        W73464  11.879  27.543   5.308  0.0458 -0.0419 -0.3378
17224W        W73465  17.948  26.912  25.973 -0.0989 -0.1289 -0.1781
17225W        W73466  13.552  28.261   9.846  0.3098 -0.2037  0.0256
17226W        W73467  27.457  32.449   1.053  0.0234  0.0895 -0.1549
17227W        W73468  15.500  17.701   3.999  0.0920 -0.0304 -0.0070
17228W        W73469  32.914  11.217  23.933 -0.0718 -0.1846  0.2127
17229W        W73470   7.379  22.695  11.783  0.0016  0.0054 -0.1267
17230W        W73471  28.715  28.589  13.576  0.0611  0.1028 -0.2586
17231W        W73472   5.253   2.479  18.415 -0.0813 -0.1130  0.0212
17232W        W73473  15.419   8.042   9.519  0.1888 -0.1759 -0.0228
17233W        W73474  30.946  21.375  14.653 -0.1842  0.1524 -0.0341
17234W        W73475  18.255  19.080   5.650  0.0255 -0.0654  0.0201
17235W        W73476  31.341  35.362  24.101  0.1657  0.1540  0.0217
17236W        W73477  17.118  26.649   1.824 -0.1302  0.0584 -0.1594
17237W        W73478  19.564   7.335  10.830 -0.2683  0.2286  0.2133
17238W        W73479  31.608   0.362   0.036  0.2701 -0.1152  0.1029
17239W        W73480  33.454  24.860  17.850  0.1007 -0.2686  0.0104
17240W        W73481  19.299  29.882  23.654  0.1292  0.0055 -0.0556
17241W        W73482  29.393   0.987   5.988 -0.0827 -0.0697 -0.1842
17242W        W73483   2.559  22.954  19.064 -0.0987  0.0391  0.0584
17243W        W73484  11.988  32.517   9.810  0.0357 -0.3217 -0.2997
17244W        W73485  21.358  19.193  15.678  0.0429  0.2312 -0.1940
17245W        W73486  32.005  22.068  21.780 -0.0839 -0.2030 -0.2776
17246W        W73487  14.023   5.325  23.686  0.1523  0.1049 -0.0016
17247W        W73488   5.486  20.050   0.118 -0.2815  0.2145  0.2835
17248W        W73489  24.673  30.439  17.838 -0.0117 -0.2645 -0.4097
17249W        W73490  31.640  30.660  19.057  0.2152  0.0014  0.0511
17250W        W73491   9.657  17.349   7.194  0.3834 -0.2087 -0.2758
17251W        W73492  10.257   9.655   1.493  0.0687  0.0033  0.0244
17252W        W73493  35.004  28.431  18.985 -0.0046 -0.0661  0.1825
17253W        W73494   2.015  27.602   3.068 -0.0577 -0.1687 -0.1357
17254W        W73495   9.887  22.881   3.846 -0.0034 -0.1037  0.1023
17255W        W73496  12.114  29.801   9.399  0.3056  0.2109 -0.1418
17256W        W73497  28.543  28.621  17.234  0.3810  0.3414 -0.1028
17257W        W73498   7.946  30.095   4.991  0.1215 -0.4742  0.1022
17258W        W73499   7.034  31.899  24.839 -0.1804  0.1482 -0.0121
17259W        W73500  12.556   9.721  22.952  0.1386  0.1361  0.1742
17260W        W73501  35.082   0.460   1.484 -0.3723 -0.2241 -0.0041
17261W        W73502  10.049  27.782   8.544  0.1400 -0.1803  0.0601
17262W        W73503  10.947   9.881  12.822  0.2664  0.2720  0.0663
17263W        W73504  24.262  22.371  16.045  0.2296  0.1290  0.3015
17264W        W73505  26.628  25.446   9.284  0.1163 -0.1107  0.1055
17265W        W73506  25.143  15.470  26.201 -0.2712  0.2853  0.3949
17266W        W73507  28.598  17.550   5.866  0.4564 -0.3507  0.1386
17267W        W73508  16.144   2.533  17.746 -0.1688 -0.3616 -0.0455
17268W        W73509   8.972  16.395  11.216  0.2520  0.0462 -0.1280
17269W        W73510  32.609  34.737  24.194  0.1066 -0.0459  0.2480
17270W        W73511  13.689  20.889   8.050 -0.1834 -0.1522  0.0160
17271W        W73512  21.750  26.088  17.060 -0.0036 -0.0024 -0.0931
17272W        W73513   8.413  30.493  15.573  0.1724 -0.3544  0.2308
17273W        W73514   7.060  34.524  21.519  0.2470 -0.2869  0.1308
17274W        W73515  34.938  26.916  15.179  0.1790 -0.0786  0.2933
17275W        W73516  18.542  13.793  11.040 -0.0957  0.2525  0.1277
17276W        W73517   0.904  13.695  26.243  0.1758 -0.1531 -0.0794
17277W        W73518   7.128  25.995  11.935 -0.2449 -0.0969 -0.2692
17278W        W73519  28.314  30.903  25.184 -0.0450  0.1240 -0.0961
17279W        W73520  16.509  34.219   5.484  0.1588 -0.1401 -0.0272
17280W        W73521  31.290   8.671   0.282 -0.2360  0.2721 -0.2782
17281W        W73522  29.308  33.646  13.583 -0.0102  0.2328  0.2600
17282W        W73523   6.415  13.068  17.967  0.0039  0.1396  0.1944
17283W        W73524  13.848  12.545  25.491 -0.3151  0.0841 -0.1824
17284W        W73525  18.227  14.542  23.215  0.0604 -0.0534  0.2310
17285W        W73526  20.359  34.546  19.501 -0.1228 -0.0446 -0.2028
17286W        W73527  16.450  10.907  22.180  0.3893  0.0459  0.1312
17287W        W73528  10.619  25.794   5.430  0.1497 -0.1170  0.3368
17288W        W73529  24.530  34.781  18.000 -0.3372 -0.0644 -0.0038
17289W        W73530  19.900  23.591   5.919  0.3614 -0.3323  0.0046
17290W        W73531  30.102  34.170  19.303  0.0625  0.1165  0.0447
17291W        W73532  12.403  29.330  26.041  0.1876 -0.0303  0.1229
17292W        W73533  27.586  14.247  25.142 -0.1554 -0.0642 -0.1427
17293W        W73534  32.730  28.146  17.052  0.0630 -0.0956 -0.0218
17294W        W73535  24.800  24.252  18.597 -0.0821 -0.3187 -0.2078
17295W        W73536   6.215  20.476  22.615  0.1036  0.1211  0.0319
17296W        W73537  35.114  14.511  14.869  0.1456 -0.1946  0.0611
17297W        W73538  17.705   5.850   1.624  0.0778  0.2053 -0.2074
17298W        W73539  23.194   6.389  21.041  0.0273 -0.2058 -0.0299
17299W        W73540  16.245   3.521  25.413 -0.0951  0.1639 -0.2231
17300W        W73541  17.270  11.347   8.222 -0.1991  0.1042 -0.3467
17301W        W73542  32.933  20.815  14.644  0.1803  0.1857 -0.1105
17302W        W73543   6.318  15.452   6.542  0.0205 -0.0684  0.1338
17303W        W73544  18.354   5.651  17.658 -0.1324 -0.0204  0.2453
17304W        W73545  18.389  34.405  17.877  0.0759 -0.0802 -0.3013
17305W        W73546   6.612  11.813  10.570 -0.0934 -0.0124  0.0053
17306W        W73547   6.828   4.962  20.996  0.1166  0.0584 -0.2980
17307W        W73548  10.065   2.582   5.218  0.1185  0.1153 -0.1063
17308W        W73549  21.521  25.026  24.334 -0.1980  0.1609 -0.3243
17309W        W73550  16.543  17.878   0.315 -0.2240  0.3601 -0.0819
17310W        W73551  13.450  30.770   8.419 -0.1212 -0.1221 -0.0224
17311W        W73552  22.315  11.330  13.354 -0.2792 -0.2235 -0.0281
17312W        W73553  28.149   2.067   5.573 -0.2704 -0.1047 -0.2592
17313W        W73554  24.110  17.202  17.217  0.0363  0.2295 -0.0356
17314W        W73555   8.867  21.289   5.209  0.1319  0.1051  0.1827
17315W        W73556   9.914  21.168  24.729  0.0702  0.0836 -0.0317
17316W        W73557  10.228  21.191   0.799  0.1071 -0.2294  0.0176
17317W        W73558   1.708  23.576  17.641 -0.1553 -0.2276 -0.0343
17318W        W73559   1.099  13.939  13.595 -0.1220 -0.3142 -0.1887
17319W        W73560  19.614  14.157  17.361  0.1834  0.0526 -0.2515
17320W        W73561   3.134   1.377   2.859 -0.0846  0.2491  0.0641
17321W        W73562  29.732   6.946  23.731  0.1661 -0.0042 -0.2288
17322W        W73563  27.936  25.920  22.739  0.0143  0.0410 -0.0690
17323W        W73564  19.007  19.445   5.278  0.2790 -0.1557 -0.1944
17324W        W73565   5.852  12.477   1.830  0.3951 -0.1664  0.0264
17325W        W73566  25.696   1.220   4.705  0.3456  0.0803  0.4191
17326W        W73567  12.902  19.662  21.397 -0.4499  0.1057  0.1654
17327W        W73568  10.111   3.811  20.457  0.0388 -0.1780 -0.4204
17328W        W73569  21.959  29.733   0.831  0.3840 -0.2430  0.0946
17329W        W73570  26.288   6.069  23.847 -0.0318 -0.2294 -0.0267
17330W        W73571  30.925  19.099  23.359 -0.1983 -0.0286 -0.0304
17331W        W73572  21.851  33.684  19.517  0.0180 -0.1484  0.3385
17332W        W73573   2.771  21.900  20.938  0.3524  0.1874 -0.1644
17333W        W73574  11.523  20.986  21.711  0.0312 -0.4983  0.1561
17334W        W73575  12.337  26.946  23.543  0.0333  0.0346 -0.1310
17335W        W73576  14.552   7.402   0.818 -0.0073  0.1818  0.0763
17336W        W73577  13.027  19.884  22.514 -0.1317  0.1600  0.2181
17337W        W73578  27.838  17.413   9.746 -0.2288  0.0231 -0.2995
17338W        W73579  11.925  14.010   5.576  0.0175  0.1758 -0.1700
17339W        W73580   9.620   4.184  12.312 -0.2785  0.4036 -0.0071
17340W        W73581  18.619  17.434  23.297  0.3628  0.1467 -0.0203
17341W        W73582   6.261  33.574  26.188 -0.2392  0.3433  0.3678
17342W        W73583   9.345   4.793   0.743  0.2837 -0.5148  0.0986
17343W        W73584  14.787  27.667  11.824  0.3509 -0.2473 -0.2196
17344W        W73585  27.595  13.730  25.181 -0.2019  0.0254  0.4080
17345W        W73586  15.649  16.793  21.577 -0.0883 -0.3094 -0.0783
17346W        W73587   9.823   9.673   1.850 -0.0017 -0.0901 -0.0978
17347W        W73588  30.652  21.666  15.011 -0.1062  0.2226 -0.4359
17348W        W73589  34.146  13.848  23.930 -0.0960  0.0661  0.2619
17349W        W73590  29.569  13.039  15.210 -0.2412  0.0787  0.0526
17350W        W73591  16.197  34.233   4.158  0.2352  0.1327 -0.0761
17351W        W73592  12.172   4.607  20.772  0.0321  0.3328 -0.2312
17352W        W73593  16.322   4.681   7.349 -0.1051  0.1133 -0.1475
17353W        W73594  18.916  18.049   5.278  0.0814  0.0675 -0.2956
17354W        W73595   6.732  25.162   8.479 -0.0007  0.2268  0.1446
17355W        W73596  12.082  27.677  10.580  0.2612  0.0696  0.1803
17356W        W73597  29.986  31.804  14.421 -0.0885 -0.0792 -0.0948
17357W        W73598  22.545  27.485  16.061 -0.1310 -0.0856 -0.2399
17358W        W73599   6.177  11.642  24.777  0.1606  0.2652 -0.0081
17359W        W73600  15.123  16.222  21.297  0.1080 -0.0179  0.2630
17360W        W73601   4.451   9.868   8.405 -0.0075 -0.1452 -0.1358
17361W        W73602  24.029  14.617  18.247 -0.4698  0.0490  0.0734
17362W        W73603   0.128   3.128   1.040 -0.1959  0.0531  0.3227
17363W        W73604  24.740  33.371   6.489  0.3707  0.0086  0.2677
17364W        W73605  13.614   9.827   0.179  0.2676  0.2590  0.2259
17365W        W73606   9.375  26.087  14.528  0.3290  0.0214 -0.3903
17366W        W73607   3.737  21.448  25.317 -0.0699 -0.2851  0.0990
17367W        W73608  23.015  20.120  23.301 -0.3253  0.0167 -0.0022
17368W        W73609  32.731  30.929   5.468  0.0955 -0.0731  0.0572
17369W        W73610  25.445  14.296   8.689 -0.0098  0.0244  0.0699
17370W        W73611   1.702  30.655   1.928  0.1976 -0.1497  0.0811
17371W        W73612  22.146  24.560  25.276  0.2017 -0.0301  0.0705
17372W        W73613   6.607  30.595   8.299  0.4446 -0.0459  0.1848
17373W        W73614  13.044  25.202  23.555 -0.3165  0.0125 -0.0958
17374W        W73615  21.724  13.431  19.341 -0.0247 -0.1358  0.3036
17375W        W73616  23.467  34.871  21.019  0.0502 -0.0834 -0.3645
17376W        W73617  27.915  31.165  20.851 -0.0391  0.1774 -0.0986
17377W        W73618  14.312   6.061  25.124  0.0034  0.1192 -0.2782
17378W        W73619  11.361  14.770  19.944 -0.0682 -0.0681  0.1923
17379W        W73620  25.765  29.642  21.448 -0.2352 -0.1697 -0.0342
17380W        W73621  26.632  34.564  10.575 -0.0397  0.1183 -0.0555
17381W        W73622  34.402  21.999  15.828  0.0299 -0.0529  0.0964
17382W        W73623  27.223  16.275  20.889 -0.0491 -0.1176  0.0096
17383W        W73624  22.375  34.942   3.060 -0.0826  0.2230  0.0312
17384W        W73625  14.267   3.566  17.940  0.2974 -0.1055  0.1166
17385W        W73626  17.370  31.979  20.058  0.0381  0.2847  0.1736
17386W        W73627   6.968   5.629  10.904 -0.0358  0.3362  0.2692
17387W        W73628  33.119  15.910   7.390  0.1239  0.0414  0.2900
17388W        W73629  21.667  11.848  20.725 -0.0410  0.1391 -0.2004
17389W        W73630  19.144   8.780   1.925  0.2998 -0.0881  0.2578
17390W        W73631  25.862  33.865  19.448 -0.0178  0.0720 -0.3148
17391W        W73632  22.875  34.748   2.626 -0.0362 -0.1446 -0.0247
17392W        W73633  19.210  18.368  17.622 -0.0102  0.2996  0.0980
17393W        W73634  28.164  10.772  20.454 -0.0037 -0.0869  0.0421
17394W        W73635  11.418  21.247   2.001  0.2662 -0.3765 -0.1021
17395W        W73636  24.809  21.448  18.809 -0.2294  0.0537 -0.2790
17396W        W73637  28.307  23.133  16.339 -0.1274 -0.0887 -0.0676
17397W        W73638  24.074  35.107  18.065 -0.0068 -0.0551 -0.2121
17398W        W73639  35.194  35.198  22.286  0.3470 -0.0407  0.4322
17399W        W73640  27.463  13.248  17.063  0.1980  0.2803  0.0733
17400W        W73641  16.752  34.960  26.198  0.0162  0.2313 -0.1750
17401W        W73642  26.011  24.924  26.219 -0.2726 -0.0003  0.0555
17402W        W73643   8.458  25.892   5.821 -0.0244  0.0359 -0.2092
17403W        W73644  10.595   6.202  19.585  0.0280  0.0728 -0.0946
17404W        W73645  15.464  10.071   7.867 -0.0574 -0.0979 -0.2710
17405W        W73646   9.550  16.790   7.615 -0.1941 -0.1636 -0.0841
17406W        W73647  16.324  26.975  10.279  0.3677 -0.3107  0.0506
17407W        W73648  16.617  11.388   6.468  0.0767 -0.0522 -0.3910
17408W        W73649  29.346  23.889   9.820  0.1984  0.2670 -0.0768
17409W        W73650  27.079  30.968   5.803 -0.0305  0.1369  0.0345
17410W        W73651   1.615   9.964   0.163 -0.4049 -0.0888 -0.0513
17411W        W73652   7.692  31.465   3.280  0.0227  0.5191 -0.1275
17412W        W73653  14.241  19.892   7.292 -0.0840 -0.0018  0.3332
17413W        W73654  30.032  27.898  24.108  0.2193 -0.0197  0.1593
17414W        W73655  31.805  10.304  15.516 -0.1514  0.1884  0.0135
17415W        W73656   6.101   1.913   7.134 -0.1210  0.0742  0.0675
17416W        W73657   1.761  22.210  24.143 -0.2242  0.0291 -0.1297
17417W        W73658   9.608  17.455   8.289 -0.0551  0.0279 -0.4779
17418W        W73659  32.187  29.281  14.157  0.0173 -0.2785 -0.0423
17419W        W73660  29.179  10.766  25.132  0.1309 -0.0717  0.3036
17420W        W73661   6.383  15.680   8.270  0.2069  0.0857  0.0834
17421W        W73662  25.629  15.090  24.383 -0.1455 -0.1114 -0.0752
17422W        W73663  17.477  13.549  23.080 -0.0047 -0.1010 -0.0065
17423W        W73664  24.972   2.585  14.674  0.1873 -0.0305  0.0866
17424W        W73665  21.242  29.277  14.364  0.3571  0.0242  0.0456
17425W        W73666  25.544  32.496  10.803 -0.1543 -0.0647  0.0227
17426W        W73667  14.753  11.580  20.065 -0.0728 -0.3526 -0.0212
17427W        W73668  15.582  13.987   4.805  0.2118 -0.1856  0.0376
17428W        W73669  31.857   7.476   1.715 -0.1533 -0.0551  0.3132
17429W        W73670  17.369   7.408   8.996  0.0020 -0.1520 -0.2035
17430W        W73671   6.327  24.045   3.414 -0.0836 -0.0379 -0.0710
17431W        W73672  29.209  28.250  14.232  0.0961 -0.1561 -0.2966
17432W        W73673   8.132  16.554   4.689  0.0346 -0.1460 -0.2306
17433W        W73674  12.348  31.357  23.913  0.2270  0.1774 -0.0620
17434W        W73675  11.290  24.373  25.451  0.0581 -0.0142  0.0482
17435W        W73676  15.143  25.510  13.079  0.0853  0.3208  0.0348
17436W        W73677   4.873   5.063   1.219 -0.0028  0.1911 -0.2067
17437W        W73678  17.814  20.003  25.658  0.0970  0.2994 -0.0416
17438W        W73679   6.346  23.441  21.857 -0.0577 -0.0077  0.0995
17439W        W73680  11.242  28.597   8.421 -0.3212 -0.2115 -0.5191
17440W        W73681  22.969   2.088   6.937  0.2813  0.0615 -0.1237
17441W        W73682   9.490  24.199  22.433 -0.0689 -0.0080  0.0462
17442W        W73683  18.104  28.484   6.725  0.2937  0.1498  0.2098
17443W        W73684  24.032  31.734  25.359  0.1688  0.1741  0.2299
17444W        W73685   8.214   0.417   9.578  0.0278  0.1016  0.2004
17445W        W73686   4.774   7.528  25.177 -0.1144  0.0385 -0.1348
17446W        W73687  29.959  16.446  16.777 -0.2281 -0.2317  0.0919
17447W        W73688   4.967  25.614  21.914 -0.1146 -0.1307  0.2296
17448W        W73689  14.749  34.101   6.159 -0.1475  0.0348  0.2853
17449W        W73690   4.206  31.729  24.720  0.1165 -0.2242  0.0958
17450W        W73691  26.909  11.846  26.082  0.2760 -0.2059 -0.2396
17451W        W73692  27.948  31.333  18.354 -0.1008  0.1874 -0.2884
17452W        W73693  12.864  15.068  21.759  0.0466 -0.1876  0.2220
17453W        W73694  33.279  33.142  12.180 -0.2057 -0.0559  0.0444
17454W        W73695  28.495   7.463  21.545 -0.1509 -0.0144  0.0240
17455W        W73696  28.563  23.625  14.419  0.0519 -0.2004 -0.1559
17456W        W73697  27.924  15.554  17.243  0.2315  0.1678 -0.0165
17457W        W73698  29.437  13.775   5.984  0.2462 -0.1648 -0.1420
17458W        W73699  23.542   7.075   3.020  0.3977  0.0515  0.3127
17459W        W73700   6.287  31.856  22.806 -0.1346 -0.1086 -0.3181
17460W        W73701   3.628  29.806  25.780 -0.0705 -0.1682 -0.2604
17461W        W73702  31.744  31.822  17.587 -0.4289 -0.0478 -0.0344
17462W        W73703  33.159   0.097  19.735  0.1021  0.0893 -0.2950
17463W        W73704  30.620  25.287  20.168  0.2639 -0.0886  0.0151
17464W        W73705  20.517  27.766  22.219 -0.1945 -0.0284 -0.0105
17465W        W73706  34.689  14.842  17.264  0.0543 -0.3639  0.0923
17466W        W73707   7.138  12.354   3.633 -0.2221 -0.0194  0.2822
17467W        W73708   2.086   5.320  21.090 -0.0470 -0.0492 -0.0475
17468W        W73709   5.999  16.006  17.288  0.2324 -0.1785  0.2635
17469W        W73710   9.788  17.711   0.454  0.2297 -0.0420 -0.1983
17470W        W73711  33.642  19.918   7.415  0.0582 -0.4898 -0.1825
17471W        W73712  14.841  31.723  25.967 -0.3774 -0.0715 -0.1500
17472W        W73713  24.961   2.707   1.192 -0.1142 -0.0447  0.0012
17473W        W73714  14.669   3.337  20.155  0.1634  0.1600  0.1402
17474W        W73715  13.199  13.452   9.091  0.0348  0.0938 -0.0129
17475W        W73716  19.726  27.875   1.637  0.0210 -0.0376 -0.4072
17476W        W73717  22.477  12.278  19.602 -0.2615  0.1026 -0.0937
17477W        W73718  17.987   3.001   3.009 -0.1045 -0.2159 -0.1026
17478W        W73719  22.931   5.375  22.942  0.3617  0.1494 -0.0007
17479W        W73720  10.468  18.164  11.691 -0.0964  0.2548  0.4480
17480W        W73721   2.051  33.561   0.732  0.0986  0.2486  0.0997
17481W        W73722  33.010  30.046   0.850  0.0449  0.3603  0.0616
17482W        W73723  32.889  29.717   3.491 -0.2403 -0.1447 -0.0740
17483W        W73724  11.923  27.341  15.527 -0.2134  0.0704 -0.3539
17484W        W73725   3.655   3.484  22.801 -0.1982  0.4551  0.0057
17485W        W73726   0.588  30.301  23.946 -0.2723 -0.1204 -0.0572
17486W        W73727  17.171  34.021   7.514  0.0828 -0.0832  0.0045
17487W        W73728   7.041   0.081  25.140 -0.1121  0.1401 -0.2573
17488W        W73729  11.427  16.327   7.504 -0.3838  0.0269 -0.4579
17489W        W73730  11.731   9.487  19.359  0.4643  0.1061 -0.3847
17490W        W73731  21.020  17.803  24.330  0.2958 -0.1493  0.1267
17491W        W73732  16.184   1.716   8.311 -0.2008  0.1097  0.2119
17492W        W73733  32.614   8.277  25.729  0.1382  0.2892 -0.0268
17493W        W73734   2.389  20.185  24.677  0.0450  0.0948 -0.0466
17494W        W73735   9.228  34.922  20.799 -0.4021 -0.1200 -0.0148
17495W        W73736  10.391   5.481  12.859  0.0993 -0.0576 -0.1170
17496W        W73737   3.078  32.877   9.008  0.1562  0.1212  0.2387
17497W        W73738   1.379  12.954  14.919 -0.2071 -0.1536 -0.0042
17498W        W73739  27.960  22.106  11.712 -0.0781  0.2801  0.2010
17499W        W73740   8.526  18.721   0.199  0.0356 -0.2416 -0.1039
17500W        W73741  10.322  19.213   9.399 -0.1115 -0.0195  0.1204
17501W        W73742  18.972  31.794   8.905 -0.0872  0.0650  0.2055
17502W        W73743   8.032  20.559   9.100 -0.0235 -0.1692  0.0119
17503W        W73744  25.867  29.858  22.043  0.0204  0.1475  0.1827
17504W        W73745   9.793  34.194  10.394 -0.1539  0.2264 -0.3585
17505W        W73746  12.586  28.941  25.171  0.1749 -0.2019  0.2711
17506W        W73747  34.774   0.861  13.510  0.3456 -0.0810 -0.3962
17507W        W73748  10.847   9.114   6.353  0.0248 -0.2422  0.2049
17508W        W73749  14.913   2.639  23.794 -0.0320 -0.0249 -0.1316
17509W        W73750   7.365   7.243   6.649 -0.2060 -0.0758 -0.1516
17510W        W73751  31.811   0.421  25.400  0.2124  0.2014  0.2413
17511W        W73752  16.774  31.844  24.278  0.2409 -0.0453 -0.3172
17512W        W73753  31.321  29.809  20.738  0.0595  0.2813 -0.1740
17513W        W73754  17.825  18.361  23.609 -0.0253  0.5737 -0.1243
17514W        W73755  20.906  18.452  17.991  0.0326 -0.1632  0.3204
17515W        W73756   8.969   8.533   0.049  0.0640  0.0767 -0.3634
17516W        W73757  18.177   7.013   5.162  0.1777 -0.1759  0.1830
17517W        W73758  33.264  29.800  16.522  0.1463  0.1825  0.2620
17518W        W73759  10.574  14.127  23.963 -0.0153  0.3005 -0.1509
17519W        W73760  13.820  30.589   0.266  0.1528  0.2520  0.0275
17520W        W73761  28.089  16.940   5.916  0.1444  0.1185 -0.0521
17521W        W73762  11.809  25.983  17.395 -0.0643  0.2686 -0.5188
17522W        W73763  21.753   3.475   1.309 -0.1134 -0.0504  0.3076
17523W        W73764  18.699  24.103   2.203  0.0219  0.0204  0.1893
17524W        W73765   6.604   8.294  12.418  0.0900 -0.0136 -0.2078
17525W        W73766  13.537  22.318   9.608  0.3069 -0.0415  0.2355
17526W        W73767   0.038   1.884  16.832  0.2428 -0.2298  0.3179
17527W        W73768   2.588   7.611  14.399 -0.0500 -0.0888  0.1241
17528W        W73769  34.752  19.960  15.447  0.3365  0.2083  0.0244
17529W        W73770  10.499  30.092  13.137  0.2382  0.3205 -0.0306
17530W        W73771   3.431  22.524  21.909  0.3047  0.1256 -0.1578
17531W        W73772  20.284   8.744  25.524 -0.3067 -0.0262 -0.1573
17532W        W73773  19.550  24.610   4.409  0.0102  0.0512 -0.1508
17533W        W73774   9.407  19.892   0.946  0.0873 -0.1109 -0.4010
17534W        W73775   2.843  11.636  15.770  0.2244 -0.3802  0.0405
17535W        W73776  11.164  23.977  26.091 -0.4181 -0.0803 -0.2601
17536W        W73777   9.803   4.932  19.899 -0.2487  0.0152  0.0609
17537W        W73778  28.468  11.002   9.831  0.2125 -0.0062 -0.2464
17538W        W73779  16.784  17.499  23.033  0.0582 -0.0319 -0.1474
17539W        W73780  22.975  17.831  19.134 -0.0930  0.0823 -0.0439
17540W        W73781  17.601  23.161   8.767 -0.3209  0.1225  0.3914
17541W        W73782   5.492  32.883   9.801 -0.1550  0.2025 -0.3102
17542W        W73783  13.686   1.379  20.551 -0.4431  0.0417  0.1529
17543W        W73784  28.350  24.982  17.625 -0.1219 -0.1874 -0.1817
17544W        W73785  11.586  19.847  10.984  0.0344  0.3365 -0.1184
17545W        W73786   1.250   7.168   1.063 -0.1639  0.1381 -0.3129
17546W        W73787  13.807  17.710  12.605 -0.1400  0.0234  0.3288
17547W        W73788  29.504  28.177  10.190 -0.0275  0.0429  0.1730
17548W        W73789   5.454  11.056  18.591  0.1603  0.1855 -0.2851
17549W        W73790  16.188  24.003  24.143  0.2182 -0.2539  0.1581
17550W        W73791  31.624  20.339   5.589  0.1215 -0.1080 -0.0210
17551W        W73792   1.406  31.302  24.604  0.3279  0.1390  0.2009
17552W        W73793  26.231  18.304  21.139 -0.3475 -0.1431 -0.4287
17553W        W73794  18.612   1.386   3.868  0.1127  0.0946 -0.1401
17554W        W73795  26.940  13.577  16.013 -0.2105  0.1377 -0.1578
17555W        W73796   8.829  30.447   1.683  0.2294  0.1528  0.1682
17556W        W73797   7.132  18.977   8.216  0.2618  0.0941 -0.0619
17557W        W73798  29.501  29.747   2.953 -0.1991 -0.0425  0.1207
17558W        W73799  18.466  33.710  17.464  0.1656  0.1000 -0.1558
17559W        W73800  24.472   8.067   0.569 -0.2940  0.0205 -0.3101
17560W        W73801  18.730  22.222   0.923  0.0479 -0.0808  0.2173
17561W        W73802  20.351   0.824  18.823 -0.1094  0.1305  0.1742
17562W        W73803  27.242  11.011  11.480 -0.0001 -0.0056  0.2414
17563W        W73804  19.611  35.314  24.964  0.0158 -0.2594  0.0907
17564W        W73805  10.209  16.129   3.922 -0.1418  0.1891  0.0359
17565W        W73806  33.371  33.119  14.848 -0.1360  0.0269  0.1138
17566W        W73807  23.068   5.321  18.511  0.0561  0.1820  0.0214
17567W        W73808   1.119   3.227   5.697  0.1106  0.1403 -0.0352
17568W        W73809  32.995   4.043  20.393  0.0656  0.2109 -0.0617
17569W        W73810  17.709  16.303  23.411  0.0679 -0.4162 -0.0659
17570W        W73811  12.328   9.274   4.133  0.2001 -0.0990  0.1106
17571W        W73812   7.631  26.716  23.921 -0.1213  0.0965 -0.1759
17572W        W73813  13.134  10.565  13.728 -0.4021 -0.2836  0.2983
17573W        W73814  19.269  31.994   2.868  0.1207 -0.4079  0.2744
17574W        W73815   8.881  35.377   0.816  0.2277 -0.1413 -0.0724
17575W        W73816  14.978   4.701   5.348  0.1350  0.0721  0.1102
17576W        W73817   5.325  26.416   3.154  0.0779  0.2150 -0.0970
17577W        W73818   6.592  13.459   0.575  0.1769 -0.1608  0.0629
17578W        W73819  33.641   3.914  15.263  0.1728 -0.0661 -0.1792
17579W        W73820   7.846  18.628   7.434  0.2866 -0.3804 -0.1672
17580W        W73821  16.631  19.537   3.444  0.0518 -0.2920  0.1537
17581W        W73822  24.249   6.687  23.806  0.2000 -0.2702 -0.1167
17582W        W73823  13.474  34.291   1.548  0.0243  0.2022 -0.0194
17583W        W73824   2.788  24.929  22.332 -0.2852 -0.2035  0.1900
17584W        W73825  21.299  23.771  18.048  0.0117 -0.1725  0.1225
17585W        W73826  32.570  31.074  16.570 -0.0283  0.1821  0.1724
17586W        W73827  13.335   7.533   2.508 -0.2052  0.2598 -0.1817
17587W        W73828  25.872  10.855  10.595 -0.0190 -0.0881  0.3095
17588W        W73829  10.623  28.618  11.409  0.1898  0.0932  0.1461
17589W        W73830  29.978  11.924  16.662 -0.0636 -0.1918 -0.0324
17590W        W73831  34.021  32.099  19.991  0.0371  0.0480 -0.2279
17591W        W73832  18.430  30.216   8.036  0.1124 -0.0625 -0.1188
17592W        W73833   5.350  18.539  17.904 -0.1403  0.2182  0.2935
17593W        W73834  30.725  20.866  14.070 -0.2262 -0.2301  0.1925
17594W        W73835  18.592   2.465   2.700 -0.1424  0.2587  0.0160
17595W        W73836  35.382  11.145  17.027 -0.0263 -0.2037 -0.3337
17596W        W73837  20.161   4.493   1.125  0.3156  0.1025 -0.1811
17597W        W73838  20.300  16.555  22.766  0.0536  0.2366 -0.0318
17598W        W73839  21.685  28.036  17.134 -0.1548  0.3660  0.1299
17599W        W73840  25.299   2.097   4.257  0.2684 -0.0463 -0.2340
17600W        W73841  28.200   4.248   4.130 -0.0434 -0.0696 -0.1949
17601W        W73842  32.303   0.423   4.529 -0.1996  0.3810 -0.0304
17602W        W73843  17.990  33.440  23.364 -0.1085 -0.2948  0.0726
17603W        W73844   1.880  32.756   5.021 -0.1569 -0.1102 -0.1619
17604W        W73845  30.397   7.357  17.913 -0.2367 -0.0086 -0.0762
17605W        W73846  19.785  21.718   7.213 -0.2078  0.0979  0.2176
17606W        W73847  28.966  21.432  23.680 -0.0868 -0.0337  0.1646
17607W        W73848  17.181  19.922   0.577 -0.1404  0.1668  0.1012
17608W        W73849  22.517  35.372   7.341 -0.0932  0.1280  0.2383
17609W        W73850  27.135   0.298   5.746 -0.3475 -0.0422 -0.0065
17610W        W73851   4.952   1.194   9.857  0.1953 -0.0205  0.0663
17611W        W73852  25.178  29.275  15.917 -0.3136 -0.2107 -0.1055
17612W        W73853  32.088   1.335  21.694  0.3105 -0.1085  0.0283
17613W        W73854   9.690  13.964  25.860 -0.1608  0.2017  0.1402
17614W        W73855   3.084   9.343  17.298 -0.0847  0.1536 -0.1398
17615W        W73856   4.614  10.426   3.177 -0.0033 -0.1454 -0.0437
17616W        W73857  25.845   1.690  22.034 -0.1106  0.2981 -0.5852
17617W        W73858   5.025   0.726   2.556  0.4611  0.3060  0.0069
17618W        W73859  14.975  34.743   6.270  0.1037 -0.1042  0.3015
17619W        W73860  26.500   3.134  11.984  0.2322 -0.1280  0.0309
17620W        W73861   0.751  14.886  11.946  0.0978  0.0066  0.0549
17621W        W73862   3.179   8.854  24.081  0.3092 -0.1442 -0.3588
17622W        W73863  29.894   1.471  15.619  0.0609  0.0223 -0.0676
17623W        W73864  20.188  11.947   3.761  0.0987 -0.2125 -0.3318
17624W        W73865  29.874  12.399  16.938 -0.0489 -0.0811  0.1295
17625W        W73866   2.506  31.231   3.651  0.2096  0.0858  0.0098
17626W        W73867   0.894   1.739   3.643 -0.3224  0.1081  0.1239
17627W        W73868  27.958  13.316  25.913  0.1337 -0.1308  0.2042
17628W        W73869  16.474  25.960  24.963  0.2610 -0.1278 -0.0899
17629W        W73870  31.898  19.840   7.916 -0.3565  0.3282  0.0009
17630W        W73871   9.803  26.712  15.689  0.0741  0.0115  0.1004
17631W        W73872  28.589  28.333  12.108  0.1007  0.2924 -0.0963
17632W        W73873  19.365  33.358  18.974  0.1546 -0.1362 -0.0786
17633W        W73874  21.875   5.784  25.093  0.1499 -0.2557  0.2760
17634W        W73875   9.964  18.449  21.305 -0.1169 -0.0529  0.1336
17635W        W73876  29.030   7.233  18.230 -0.0569  0.3069 -0.1682
17636W        W73877   3.756  33.139   0.517 -0.1798  0.0682 -0.0646
17637W        W73878   7.193  13.646  12.116  0.1098 -0.1739  0.1566
17638W        W73879  34.008   9.165  19.454 -0.6189 -0.0360  0.0383
17639W        W73880  14.171  31.468   0.200 -0.1222 -0.1584 -0.0942
17640W        W73881  30.531  12.055   8.227  0.1900 -0.2061  0.0781
17641W        W73882   9.143  29.607  10.036 -0.0475 -0.0270  0.0622
17642W        W73883  26.049   6.405  11.117  0.3211  0.0843  0.2184
17643W        W73884   8.407  13.156   1.363  0.1636 -0.2674  0.0425
17644W        W73885  20.601   3.669  22.376 -0.1491 -0.1504 -0.0758
17645W        W73886   2.778  32.717  23.217  0.0284  0.0442  0.0347
17646W        W73887  10.404   0.877   8.750 -0.0484 -0.0365  0.3551
17647W        W73888  30.977   3.015  17.773 -0.0992 -0.0084  0.2158
17648W        W73889  10.264  32.487  13.582  0.2570 -0.2105  0.2484
17649W        W73890  15.199  34.124   2.983 -0.1742  0.0081 -0.2307
17650W        W73891   9.213  13.657   5.947 -0.0482 -0.1450 -0.0234
17651W        W73892   1.540   9.310  16.993 -0.2564  0.1050  0.3225
17652W        W73893  30.555   1.920   1.287  0.1410  0.2746  0.0577
17653W        W73894  25.594   7.321  22.903 -0.0651  0.1360  0.0109
17654W        W73895  16.451  11.656  23.350  0.2079 -0.3259  0.1894
17655W        W73896  28.429  33.657  13.306 -0.3625  0.0679  0.0906
17656W        W73897  28.392  21.558  24.547  0.0096  0.3381 -0.2170
17657W        W73898  33.920  30.338  15.922 -0.0256 -0.1636 -0.0930
17658W        W73899  17.065  19.610   9.104  0.2634  0.2283  0.0493
17659W        W73900   0.575  26.627  19.772  0.2219 -0.0809 -0.1002
17660W        W73901  25.366   3.838  13.694 -0.2303  0.1416  0.0211
17661W        W73902  32.071  14.613  18.411 -0.0703  0.1277  0.0973
17662W        W73903  33.173  25.609  20.350 -0.0703  0.1331 -0.0661
17663W        W73904  19.652  15.881  20.041  0.0782  0.2300  0.0099
17664W        W73905   5.401   8.214  21.086 -0.3989  0.1293 -0.0435
17665W        W73906  22.968  31.969  16.646 -0.1229 -0.0251  0.0745
17666W        W73907  25.249  23.207  11.820  0.0122  0.1051 -0.1311
17667W        W73908  20.273  20.500   3.545 -0.1245 -0.1736  0.0451
17668W        W73909  15.654   6.834   4.573  0.5134  0.2825  0.2032
17669W        W73910  27.913  21.457  24.589  0.3536 -0.2334  0.1082
17670W        W73911   0.069  27.371  25.491 -0.2376 -0.2876 -0.0277
17671W        W73912  19.446  11.833  10.112  0.3641 -0.2564 -0.2216
17672W        W73913  14.570  13.919  25.446  0.1048 -0.1937  0.3439
17673W        W73914  33.449  13.058   6.780 -0.1505 -0.0088 -0.1102
17674W        W73915  23.541  28.755  25.957 -0.0116  0.3090 -0.0449
17675W        W73916  15.017   4.999   8.409 -0.1168 -0.1240 -0.1295
17676W        W73917  22.581   2.890   5.752 -0.3009  0.0488 -0.0171
17677W        W73918  25.549  22.914  19.381 -0.0154  0.1331  0.0825
17678W        W73919  21.586   2.279   5.391 -0.0162  0.0435  0.0453
17679W        W73920  16.170  20.928   1.513  0.1941  0.3037 -0.3107
17680W        W73921  13.996  16.358   4.853 -0.0772 -0.1965  0.0109
17681W        W73922   1.351   7.139  17.397 -0.0516  0.1621  0.2420
17682W        W73923  24.418   2.726   5.090  0.0332 -0.1562 -0.1868
17683W        W73924   8.488  21.946   3.374  0.1973 -0.2433  0.0455
17684W        W73925   7.280  16.469  21.070  0.0639  0.1689 -0.1436
17685W        W73926  35.024  29.651  17.335  0.2206  0.2652 -0.1238
17686W        W73927   9.177  26.724  22.471 -0.0778 -0.3057 -0.1305
17687W        W73928  13.333   3.097  20.997  0.2265  0.2755  0.0117
17688W        W73929  20.292  21.781  20.495 -0.0356 -0.1683 -0.0820
17689W        W73930   7.541  29.539  25.230 -0.2208  0.1257 -0.0276
17690W        W73931  13.722  19.539  24.994  0.5118 -0.0862  0.2603
17691W        W73932   2.982   6.319   3.136 -0.2647 -0.2212 -0.0291
17692W        W73933  16.339  14.182  11.840 -0.0158  0.0722  0.1092
17693W        W73934   4.648   7.709  20.009 -0.1371 -0.0967  0.0545
17694W        W73935  33.167   5.725   3.813 -0.0221  0.1403  0.2023
17695W        W73936  32.748  34.135  19.834  0.1739  0.2126 -0.1593
17696W        W73937  29.670   1.694  13.418  0.1638  0.0031 -0.1975
17697W        W73938   3.936  24.540  21.952 -0.0870  0.0256 -0.1441
17698W        W73939  14.304   5.708  10.303  0.1661 -0.0436 -0.0171
17699W        W73940  20.723  13.661   2.661 -0.2983  0.1263  0.1766
17700W        W73941  32.916  33.320  22.588 -0.4435 -0.2279 -0.0891
17701W        W73942  10.344   9.563   6.534 -0.0914  0.2329 -0.2013
17702W        W73943  27.229  32.293   0.110 -0.2541  0.2460 -0.1486
17703W        W73944  33.020   1.639  25.481  0.1033  0.0675 -0.1057
17704W        W73945  25.685  31.813  12.951 -0.0339 -0.1143  0.0245
17705W        W73946   1.322  31.378   4.251 -0.1026 -0.1453  0.3297
17706W        W73947   2.548   4.268  23.791  0.2266  0.3813  0.1404
17707W        W73948  21.128  35.223   6.100 -0.0862  0.1962 -0.0059
17708W        W73949  10.546   6.213   8.133 -0.2506 -0.4038  0.1702
17709W        W73950   5.862  17.178   2.094 -0.3966  0.1578  0.1825
17710W        W73951  33.107   5.130  14.737  0.1326 -0.3340 -0.0278
17711W        W73952   6.912  30.415  13.273  0.1577 -0.2758  0.0976
17712W        W73953  28.115  13.693   6.788  0.1357 -0.0837 -0.1958
17713W        W73954   5.226  25.098  24.665 -0.0449  0.1714 -0.1733
17714W        W73955   0.207  21.508  25.194  0.2368  0.1513 -0.2230
17715W        W73956  29.537   7.781  16.471  0.0826 -0.0671 -0.0198
17716W        W73957  22.840   6.590   3.432 -0.0255  0.2419 -0.2224
17717W        W73958  10.000   4.218   0.732  0.2104  0.2466 -0.1998
17718W        W73959  15.475  30.769  23.575 -0.4475 -0.1041  0.0089
17719W        W73960  13.581  10.459  24.881 -0.4119  0.0452 -0.2034
17720W        W73961  25.565  12.174  12.883 -0.1063  0.3372 -0.3678
17721W        W73962  14.089   2.469  18.082  0.2160 -0.1356  0.0564
17722W        W73963  18.460  30.315  23.095 -0.2366 -0.0396  0.1042
17723W        W73964  28.976  17.274  10.701 -0.1438  0.1263  0.0069
17724W        W73965  30.590  30.338   0.608 -0.1176 -0.1041  0.0147
17725W        W73966  32.134  18.342  13.363 -0.0594  0.0477 -0.0001
17726W        W73967   8.452  24.409   5.224  0.0220  0.0419 -0.1987
17727W        W73968  18.152  26.908   5.579  0.2087  0.1350  0.1468
17728W        W73969  23.055  32.094  14.395 -0.1686  0.0586 -0.0435
17729W        W73970  14.184  23.159   9.905 -0.0751  0.2340 -0.2021
17730W        W73971  14.330  18.767   4.781 -0.2923 -0.1638 -0.2755
17731W        W73972  14.612   9.877   6.885  0.5552 -0.0013 -0.0584
17732W        W73973  31.193  25.926  10.756  0.0092  0.2292  0.1463
17733W        W73974  27.406  10.247  21.608  0.0078 -0.2451 -0.2587
17734W        W73975  28.875  15.228   8.350  0.1027 -0.0036  0.2443
17735W        W73976  18.291   9.325  19.985  0.0482 -0.1179  0.0510
17736W        W73977   3.395  25.739   6.405  0.1866 -0.4180 -0.1982
17737W        W73978  29.045  26.135  21.344  0.1613 -0.0871  0.0246
17738W        W73979  34.511  20.556  12.999  0.3079 -0.1008  0.1840
17739W        W73980   5.295   3.448   6.014  0.2559  0.1632 -0.2917
17740W        W73981  13.492  11.745  12.608  0.1606  0.0186 -0.0641
17741W        W73982   6.760  13.964   0.736 -0.1945  0.0113 -0.0070
17742W        W73983  33.859   8.585   2.926  0.0178  0.2779 -0.3077
17743W        W73984   3.268  26.486   7.318 -0.1048  0.2239 -0.2515
17744W        W73985  13.438   1.424   0.402  0.3093 -0.0818 -0.0155
17745W        W73986   9.033  31.524  24.161  0.3241 -0.2105 -0.3081
17746W        W73987   2.026  28.438  23.963 -0.0760  0.2382  0.1533
17747W        W73988  25.156  13.148  19.717  0.1167 -0.1594 -0.2536
17748W        W73989   1.964  35.021  24.907  0.1062  0.0286 -0.1315
17749W        W73990  13.070  21.849  16.633  0.1600  0.1006 -0.1559
17750W        W73991  10.252  27.890   0.289  0.0860  0.0369 -0.2006
17751W        W73992  22.297  28.794  19.086 -0.0353 -0.0081  0.0184
17752W        W73993   5.430   3.262   1.560  0.2232 -0.1962 -0.0533
17753W        W73994  11.862  13.963  12.412 -0.0953  0.1854 -0.0324
17754W        W73995  30.168   2.990  26.124 -0.0778 -0.1087  0.2393
17755W        W73996  22.508  25.078  18.205  0.2441  0.1600  0.0683
17756W        W73997  17.721   4.391   1.804  0.1556  0.0761 -0.0479
17757W        W73998  32.676  26.525  21.250  0.1764 -0.4954  0.2946
17758W        W73999  12.815  23.389   4.892 -0.2244 -0.0088  0.1136
17759W        W74000  11.620  34.940   5.709 -0.2617 -0.1858  0.3237
17760W        W74001  27.644  14.443  16.440 -0.0679 -0.2161  0.1033
17761W        W74002   2.524   6.142   0.202  0.0548 -0.1818  0.0802
17762W        W74003  26.736   3.318   3.583  0.1084  0.0035 -0.1374
17763W        W74004   7.770  35.149  20.560  0.0589 -0.1682  0.2181
17764W        W74005  15.604  28.161  25.232  0.2765  0.0176 -0.0424
17765W        W74006  25.150   7.100  15.141 -0.0818  0.2641 -0.3130
17766W        W74007  33.104   7.942  13.898  0.0181 -0.0648  0.2472
17767W        W74008  20.997  30.806   1.793  0.1574 -0.2181  0.2616
17768W        W74009   2.076   3.503   1.721  0.0147  0.1095 -0.0550
17769W        W74010  24.649  14.004  15.813  0.3114  0.2081 -0.0405
17770W        W74011  17.688  10.578  20.151  0.2759 -0.2157  0.0513
17771W        W74012   5.186  18.684   7.525 -0.1696  0.2716  0.2015
17772W        W74013   5.634  25.231   3.682 -0.3054  0.2178  0.0300
17773W        W74014  24.495  28.623   0.966 -0.0248 -0.3532 -0.0092
17774W        W74015  16.779  16.797  24.236 -0.1201 -0.4166  0.0690
17775W        W74016  17.264  33.802   8.992 -0.0818 -0.0629 -0.1452
17776W        W74017  26.289  16.389   8.020 -0.2972 -0.2404  0.3745
17777W        W74018  13.508  22.870   1.969 -0.1235  0.1732  0.3123
17778W        W74019  23.822  31.707  10.536 -0.0414  0.0158 -0.4594
17779W        W74020   2.116   0.719  16.559  0.2962  0.0293  0.1872
17780W        W74021  11.348  16.489  24.027  0.1687 -0.1486  0.0862
17781W        W74022  20.443   0.028  13.268  0.2360 -0.1437 -0.0076
17782W        W74023   1.392  19.061  17.943  0.0140 -0.1662 -0.1706
17783W        W74024  13.823  25.716  10.676 -0.2842  0.0385  0.0232
17784W        W74025  35.062   5.987   3.995 -0.0259 -0.1556  0.0050
17785W        W74026   0.314   2.259  17.870 -0.2971  0.2491  0.3544
17786W        W74027  32.108  15.969  21.688  0.1160 -0.0531  0.3569
17787W        W74028   2.588  33.360  18.949 -0.0464  0.0366  0.1794
17788W        W74029  13.353  26.163  16.602  0.3845 -0.1142 -0.1692
17789W        W74030   1.463  16.671  24.715 -0.0334 -0.1166 -0.2295
17790W        W74031   8.500  11.498  25.760  0.0501  0.1593 -0.2025
17791W        W74032  20.475  11.366  24.217  0.0111  0.0999  0.0978
17792W        W74033   6.153   8.498  11.247 -0.1992  0.3386  0.0341
17793W        W74034   5.698  23.468   4.018  0.2187  0.2615  0.1392
17794W        W74035  25.141   3.580  13.233  0.1595 -0.1117  0.1200
17795W        W74036  10.409  14.542   0.787  0.1270 -0.1688  0.0542
17796W        W74037   3.745  19.724   4.303  0.0166 -0.0757  0.2108
17797W        W74038  30.207   6.185  21.842 -0.0383  0.0165 -0.1382
17798W        W74039  25.916  27.923  18.127 -0.2190  0.2548  0.0509
17799W        W74040  12.693  20.725  11.333 -0.0467 -0.0798  0.1094
17800W        W74041  11.931  26.051  22.718  0.2715 -0.2071  0.1706
17801W        W74042  26.673   6.459  10.312 -0.0285 -0.1793  0.2925
17802W        W74043   4.527  20.831  21.439 -0.0072  0.1860  0.1112
17803W        W74044  34.295  33.310  24.775 -0.2464  0.1251  0.1322
17804W        W74045  30.292  29.919  11.957 -0.1235 -0.1196  0.1190
17805W        W74046  30.842  29.177   4.266  0.0474 -0.1368  0.0654
17806W        W74047   7.667  32.668   7.048  0.1146 -0.0248  0.1137
17807W        W74048  16.387   7.287  24.561 -0.0895  0.3997  0.1572
17808W        W74049  25.772   1.863  23.928  0.2562 -0.1504 -0.3622
17809W        W74050   0.616  22.823  11.108  0.1002 -0.1209 -0.1760
17810W        W74051  11.126  25.347   8.042  0.0280 -0.1729 -0.0127
17811W        W74052  23.745   8.279  21.455  0.2424  0.2083 -0.0735
17812W        W74053  20.897  12.535  15.089 -0.0877  0.0314 -0.1790
17813W        W74054  30.804  11.708  12.060 -0.1325 -0.1560 -0.1628
17814W        W74055  20.082   4.914  23.993  0.4562  0.0505  0.0176
17815W        W74056  30.341  31.160  22.174  0.1577 -0.1404 -0.0957
17816W        W74057   9.409   7.992   8.222 -0.1495  0.2722  0.3017
17817W        W74058  31.892   5.416  18.511  0.0599  0.0456 -0.0214
17818W        W74059  23.800  17.590  13.618 -0.1017  0.1164 -0.1265
17819W        W74060  32.241  29.981   5.271  0.2544 -0.0287  0.0915
17820W        W74061  13.408  11.288  11.044  0.0517  0.1350 -0.1098
17821W        W74062  34.907   2.785   5.945  0.0124  0.1304 -0.0093
17822W        W74063   7.330   4.321  23.376 -0.1855  0.0514 -0.0596
17823W        W74064   8.428   0.856   6.412 -0.0303  0.2248 -0.1325
17824W        W74065  16.406  33.363   5.785 -0.2052  0.0852  0.2020
17825W        W74066  19.633  27.716   6.506 -0.0770  0.0574 -0.1895
17826W        W74067  15.146  19.874  22.278  0.0298 -0.3059 -0.0562
17827W        W74068  25.581  11.848  19.229  0.3153 -0.0550  0.0361
17828W        W74069  28.896  14.796  16.588 -0.0176 -0.0596 -0.0775
17829W        W74070  22.350   5.295   8.542  0.0939 -0.0995 -0.3528
17830W        W74071   6.856  13.794   9.074  0.0839 -0.1287  0.0340
17831W        W74072  31.788   1.882   4.532 -0.0980 -0.1458  0.5304
17832W        W74073  15.671  24.212  25.137 -0.0987  0.1168  0.0273
17833W        W74074   8.902   6.693   6.478 -0.0684  0.1746  0.4857
17834W        W74075  32.656   9.479   8.585  0.3164 -0.1567  0.3620
17835W        W74076  10.837  30.369   5.148 -0.0022 -0.0620 -0.1244
17836W        W74077   1.082  26.752  22.358 -0.1937  0.0800  0.0000
17837W        W74078  29.380  26.962   1.435 -0.0675  0.0832 -0.0892
17838W        W74079  29.119  15.742   6.604 -0.0809 -0.1886  0.2304
17839W        W74080  14.097  11.646   2.179 -0.0752 -0.2693  0.1405
17840W        W74081   0.075  33.796  19.306  0.0110 -0.1388 -0.0622
17841W        W74082  24.696  31.700  15.124 -0.1152 -0.0102  0.0413
17842W        W74083  30.723   4.133  23.414 -0.0652 -0.1736 -0.0654
17843W        W74084  19.666  27.407  20.975 -0.3680  0.0770  0.0010
17844W        W74085  14.813  19.282   4.449 -0.1987 -0.0457  0.0351
17845W        W74086  31.856  20.762   7.563  0.0434  0.3916  0.0528
17846W        W74087  33.409  19.516  25.026  0.1126 -0.0792  0.0840
17847W        W74088  15.154  15.218   2.412 -0.3151  0.0310  0.0449
17848W        W74089  22.721  33.250  14.718  0.1566 -0.0196  0.0411
17849W        W74090  19.404   1.634  26.146  0.0115  0.3482 -0.0504
17850W        W74091   4.920   5.488  22.187  0.2578  0.0039  0.0394
17851W        W74092  13.061  12.527   5.863  0.2139  0.0113  0.2994
17852W        W74093  22.347   4.505   0.104  0.0266 -0.0148  0.1764
17853W        W74094  15.819  15.898   2.375  0.1732  0.1387  0.4985
17854W        W74095   9.523   7.449   1.911  0.0695  0.0657 -0.1384
17855W        W74096  15.122   8.619  23.654  0.0540  0.0955  0.0972
17856W        W74097   9.525  28.735  25.699  0.0384 -0.1800  0.0927
17857W        W74098  23.059  14.775  17.312  0.0394 -0.3466 -0.0569
17858W        W74099  13.948   2.780  20.640 -0.1527 -0.0767  0.2218
17859W        W74100  12.181  21.272  23.793  0.5106  0.3223 -0.0485
17860W        W74101  25.063  24.248  12.883 -0.2844  0.2681 -0.0295
17861W        W74102  31.601  10.209  16.113  0.2171 -0.2274  0.0671
17862W        W74103  23.190  33.711   3.806  0.1267  0.0963  0.1207
17863W        W74104  26.969  28.178   0.050  0.1086  0.1863  0.2216
17864W        W74105  31.369  10.664   0.645  0.1307  0.1741 -0.1737
17865W        W74106  24.369   0.135  23.467  0.3170 -0.1274 -0.0899
17866W        W74107   9.892  32.686  10.844 -0.2866  0.1060  0.0305
17867W        W74108  30.796  11.353  22.786  0.0204  0.3031 -0.0247
17868W        W74109  33.738  19.683  18.930  0.0205  0.0179  0.0523
17869W        W74110  28.817  15.119  23.996 -0.0909 -0.0435  0.4124
17870W        W74111  27.547   1.423   2.515  0.4621  0.1610  0.3456
17871W        W74112   4.319  35.194  20.078  0.1167 -0.2027 -0.2185
17872W        W74113  23.924  15.505  12.201  0.1383 -0.1789 -0.0705
17873W        W74114  17.828  17.216   3.202 -0.1181  0.2169 -0.0478
17874W        W74115  21.921  31.670  13.391  0.0390  0.0308  0.1737
17875W        W74116  12.271  21.571   8.029  0.1373  0.1082 -0.1469
17876W        W74117  14.577  10.451   6.045  0.0869 -0.0985  0.1528
17877W        W74118  12.838   4.981  25.128 -0.0072  0.1477  0.1180
17878W        W74119   6.651   6.534   7.154 -0.1007 -0.1192 -0.2319
17879W        W74120   5.314  13.559  17.340 -0.1669  0.1936 -0.1832
17880W        W74121  16.804  13.490  12.430 -0.0003 -0.1387 -0.1904
17881W        W74122  33.002  31.181   1.738  0.0780 -0.0053  0.1803
17882W        W74123  18.620  21.882  21.118  0.0079  0.1168  0.1811
17883W        W74124  17.762   1.038   4.113  0.0292 -0.0208 -0.1966
17884W        W74125  26.729  19.394  13.640 -0.1152  0.0914 -0.0627
17885W        W74126  32.801  25.431  25.207  0.0691  0.0876 -0.1932
17886W        W74127   3.804  25.429   3.659 -0.2724 -0.1856  0.2724
17887W        W74128   8.936  24.635  25.344 -0.0936  0.0111  0.2462
17888W        W74129   0.278   7.645  21.536  0.0259 -0.1659  0.1536
17889W        W74130  34.631  19.280  22.539  0.0576  0.1611  0.0894
17890W        W74131  21.485   2.184  19.310 -0.2410 -0.0691 -0.0943
17891W        W74132   1.928  18.746  24.328  0.1650 -0.0200 -0.2815
17892W        W74133  12.105  10.099  10.900  0.0315  0.3852  0.1295
17893W        W74134   7.648  34.451   3.523 -0.2038  0.0596  0.2098
17894W        W74135   8.681  22.084  12.066  0.1729 -0.0213  0.3272
17895W        W74136  18.093  35.174  21.935  0.1139  0.1010  0.0434
17896W        W74137  26.779  34.315  10.971 -0.1521 -0.2665  0.0238
17897W        W74138  14.239  19.320   3.698 -0.1465 -0.0306  0.0642
17898W        W74139  27.088  20.646  16.279 -0.3971  0.0289 -0.3431
17899W        W74140  32.663  29.086   0.689  0.1580 -0.0253 -0.1943
17900W        W74141   0.571   2.356  25.208 -0.1699 -0.4807  0.2211
17901W        W74142   5.254  23.109   4.724  0.1496 -0.1016 -0.3491
17902W        W74143  22.429  32.262   4.043 -0.1353 -0.1174 -0.2371
17903W        W74144   6.284   8.540  24.249 -0.1922 -0.3122 -0.2986
17904W        W74145   9.568  10.088   4.716  0.0078  0.2069  0.0884
17905W        W74146  21.544   4.285   0.521 -0.3685 -0.0985 -0.1107
17906W        W74147  11.094  21.679  24.264  0.2072  0.1909  0.5379
17907W        W74148  10.197   2.655  21.760  0.1384  0.0771 -0.2691
17908W        W74149  14.427  34.005  25.250  0.2559 -0.1411 -0.2937
17909W        W74150  27.324  24.659  23.333 -0.0035  0.0024 -0.1543
17910W        W74151   2.869  26.160   1.582  0.1118  0.0309 -0.1702
17911W        W74152  22.776  20.942  25.918 -0.0744  0.0117 -0.1375
17912W        W74153  28.821  32.550  24.715  0.0407 -0.0580 -0.1203
17913W        W74154  26.652  31.221   5.752 -0.0044  0.1155  0.0971
17914W        W74155  24.529  22.177  15.468  0.2420 -0.1027  0.0114
17915W        W74156  24.431  34.635  19.366 -0.3214 -0.0931 -0.3325
17916W        W74157  34.561   9.432  16.432  0.1853 -0.2443  0.1815
17917W        W74158  29.949  29.462  23.143  0.2825  0.1874 -0.2151
17918W        W74159  27.904  17.156  16.109  0.3277 -0.2192  0.2445
17919W        W74160  29.092  11.390  11.716  0.0233  0.0042  0.0804
17920W        W74161   2.025  10.527  14.960  0.0595  0.1647  0.0326
17921W        W74162   7.663   6.316  11.360 -0.1522 -0.1285  0.2205
17922W        W74163  18.914  11.716  19.189  0.0622  0.3123  0.0705
17923W        W74164  20.727  34.182   7.558  0.1948  0.1600 -0.1441
17924W        W74165  28.835  26.333   0.818 -0.0454 -0.0567  0.0981
17925W        W74166   3.213   6.022   5.337  0.1613 -0.0063  0.1686
17926W        W74167  20.124  24.163   8.034  0.1255  0.0551 -0.3167
17927W        W74168  28.905   1.954  13.928 -0.2351 -0.2097  0.1158
17928W        W74169  28.702  21.564   5.400 -0.1294  0.1201  0.1991
17929W        W74170  10.495  28.800   4.122  0.2030 -0.2648 -0.0392
17930W        W74171   1.152   7.837   3.226 -0.0155  0.0435 -0.0425
17931W        W74172  24.645  10.889  20.676 -0.3770 -0.0319 -0.2887
17932W        W74173   5.346   8.893   2.667  0.0580 -0.2326 -0.0461
17933W        W74174  25.298  25.490  12.513  0.0270 -0.4288 -0.2731
17934W        W74175  11.753   7.660  21.254  0.1039  0.1088 -0.1839
17935W        W74176  33.963  34.527  20.166  0.3928  0.0360  0.0710
17936W        W74177  19.711  10.950  16.920  0.1040 -0.4302 -0.1521
17937W        W74178  35.333  15.576  11.124  0.2333 -0.1953  0.3147
17938W        W74179   9.906   8.147   7.483 -0.0514 -0.2746 -0.0923
17939W        W74180   9.669  32.464  22.445  0.2185  0.2324  0.4128
17940W        W74181   0.995  30.591   1.549  0.1325 -0.0837 -0.4892
17941W        W74182  27.506  10.650   8.645 -0.1083  0.0156 -0.1016
17942W        W74183  34.209  25.212  22.640 -0.2640 -0.0861 -0.0782
17943W        W74184  10.179   4.699   4.809 -0.1453  0.0819 -0.2139
17944W        W74185  33.664   4.554   3.637  0.3525  0.3939  0.1752
17945W        W74186  27.765  31.423  17.374  0.0147 -0.1640 -0.2381
17946W        W74187  26.043  21.640  23.255  0.1261  0.0566  0.1865
17947W        W74188  29.365  15.719  12.577 -0.1314 -0.2663 -0.1364
17948W        W74189  14.701  24.866   9.681  0.1492 -0.1474  0.0841
17949W        W74190   1.280   9.081  18.561  0.1999  0.1087  0.0423
17950W        W74191  18.119   9.914  18.753  0.1259  0.0492 -0.0332
17951W        W74192  34.158   6.695  17.430  0.2766  0.0610  0.2005
17952W        W74193  24.428  16.027  16.308 -0.2311 -0.0399 -0.0422
17953W        W74194  14.061   2.889   8.202 -0.0051  0.2012  0.0350
17954W        W74195  18.549   0.395   6.485 -0.0059 -0.4992 -0.0478
17955W        W74196  30.217  23.360  24.535 -0.0467 -0.1566 -0.0444
17956W        W74197  21.215  28.535   6.407  0.2352  0.1131  0.1816
17957W        W74198  17.324  33.516   3.464  0.1875  0.1431  0.0070
17958W        W74199   8.047   2.946  20.353  0.4176  0.2087 -0.1522
17959W        W74200  27.183   3.175  15.637 -0.3226 -0.1680 -0.1057
17960W        W74201  29.950  11.304  15.919 -0.0918 -0.0146  0.1983
17961W        W74202  26.480   1.937  16.580 -0.3201 -0.0532  0.1010
17962W        W74203   0.939   0.731   2.924  0.0233 -0.0970 -0.0970
17963W        W74204  21.344  19.823  17.729 -0.1561 -0.1382 -0.1438
17964W        W74205  22.221  21.297   1.260  0.1239  0.2037 -0.1979
17965W        W74206  19.658  14.170   9.364 -0.0422 -0.3355 -0.3295
17966W        W74207  17.546  33.812  25.784 -0.0878  0.3782 -0.1387
17967W        W74208  33.413  33.706  16.866 -0.2727 -0.2351  0.3800
17968W        W74209  33.030  17.959  13.594 -0.1691 -0.0285  0.0863
17969W        W74210  28.309  12.423  16.696  0.0491 -0.0048 -0.2839
17970W        W74211  20.077   1.976  21.019  0.4620  0.0881  0.2582
17971W        W74212  30.482  25.867  22.344 -0.3399 -0.2223  0.1385
17972W        W74213   7.499  17.589   3.638  0.1570 -0.1396  0.2795
17973W        W74214   6.484   5.171   5.826  0.0106  0.2744  0.1118
17974W        W74215  23.616   4.604   3.152 -0.1416 -0.0119  0.1757
17975W        W74216  25.357  19.446  16.863  0.1075  0.0146 -0.2005
17976W        W74217   7.924   6.940   3.047 -0.3235 -0.3562  0.0168
17977W        W74218  17.004  29.829   3.195 -0.1634  0.0120  0.4049
17978W        W74219  22.337  28.609  25.421  0.1807 -0.1188 -0.0718
17979W        W74220  24.686  30.415   5.002 -0.0073  0.1698  0.2088
17980W        W74221  28.281   7.411  17.705 -0.2117  0.0904 -0.2119
17981W        W74222  29.008  10.362  22.977 -0.1236  0.2087 -0.0634
17982W        W74223  31.513  16.952  10.352  0.2319 -0.2620 -0.0018
17983W        W74224  30.370  21.880  17.449  0.4969  0.1240 -0.2236
17984W        W74225  10.585   9.699  20.819 -0.1995  0.4773 -0.1776
17985W        W74226   7.269  10.725  22.705  0.2836 -0.0824 -0.0572
17986W        W74227  34.612  10.032  25.589 -0.0884 -0.0505  0.2403
17987W        W74228  24.562  34.082  13.082  0.3178 -0.0128 -0.1258
17988W        W74229  14.620  24.855  24.360  0.0203 -0.1363 -0.1596
17989W        W74230  13.833   2.609  18.967  0.0535 -0.0878  0.0761
17990W        W74231  12.568   8.372  13.964  0.1257 -0.1390 -0.1766
17991W        W74232  10.747  33.135   8.304 -0.4184  0.3528  0.0097
17992W        W74233  21.556  35.311  16.767  0.2886 -0.0326 -0.1570
17993W        W74234   2.042  22.952   1.937  0.1355  0.0589  0.2080
17994W        W74235  15.527   9.939   8.349 -0.2033 -0.3298 -0.2796
17995W        W74236  21.509  15.625   0.537  0.1512  0.1463 -0.1413
17996W        W74237   9.701  18.363   3.560  0.1801  0.1300 -0.1899
17997W        W74238  14.874  14.406  25.968 -0.3771  0.1272 -0.1950
17998W        W74239  17.359  33.842  16.493 -0.2574  0.0160  0.0407
17999W        W74240  34.408   5.790   5.360  0.1651  0.1091 -0.0115
18000W        W74241  18.516  19.624   3.441  0.0394 -0.1466  0.2207
18001W        W74242   9.719  13.611   9.971 -0.0533  0.1651  0.0971
18002W        W74243  11.783  25.373  15.012 -0.1900  0.0758  0.0007
18003W        W74244  24.013   7.794  14.767 -0.0650 -0.1512  0.0616
18004W        W74245  23.655  10.493  14.027 -0.1690 -0.0369  0.3336
18005W        W74246  19.621   5.030  16.227  0.0327  0.2788 -0.1300
18006W        W74247   3.854  20.761  22.136 -0.0797  0.0136 -0.0502
18007W        W74248  23.864  25.839  15.146  0.0540  0.4623 -0.2608
18008W        W74249   7.005  28.693  10.079 -0.1981 -0.1776  0.1149
18009W        W74250  35.087  26.644  15.681  0.1129  0.2228  0.0635
18010W        W74251  29.789  10.300  20.453  0.0396 -0.0038  0.0389
18011W        W74252   5.063  14.869  20.967  0.1572 -0.1525  0.0240
18012W        W74253  27.226   2.727  11.653 -0.0999 -0.0876  0.0713
18013W        W74254   6.967   7.232   2.101 -0.1388  0.1013 -0.2186
18014W        W74255  30.732  30.251  13.024 -0.0354 -0.1374 -0.0800
18015W        W74256  17.909   2.681  22.202 -0.0516 -0.0699  0.0901
18016W        W74257  30.477  17.978   7.781 -0.2555 -0.2156 -0.2930
18017W        W74258  23.048  14.939   2.772 -0.1982 -0.2701  0.1230
18018W        W74259   0.881   0.895  21.393  0.0273  0.1340  0.0523
18019W        W74260   7.662   6.469   0.539 -0.1538 -0.0841  0.2302
18020W        W74261  12.132   3.921  24.790 -0.1368 -0.0299 -0.1489
18021W        W74262  10.672  23.940   7.014 -0.2006 -0.1401  0.3432
18022W        W74263  14.828  30.128   2.331 -0.1751 -0.0964 -0.2334
18023W        W74264  32.006  20.980  17.687 -0.3053  0.1409 -0.1499
18024W        W74265   8.188  29.190  10.449 -0.2178  0.3866 -0.2311
18025W        W74266  11.429  10.454  25.002 -0.2800  0.0622 -0.2814
18026W        W74267   2.191  31.938  21.653  0.0137 -0.0877 -0.1663
18027W        W74268  28.800   1.857  26.141  0.1626 -0.0208 -0.0814
18028W        W74269   8.024  32.102  22.991 -0.1330 -0.0970  0.2251
18029W        W74270  22.024  28.901  25.145  0.0834  0.1837  0.2124
18030W        W74271  26.070  28.803   2.032  0.0300 -0.0285  0.1594
18031W        W74272  14.467  17.522  21.105 -0.3501  0.1055 -0.2000
18032W        W74273  28.971  35.069  18.263 -0.0902  0.1935 -0.1432
18033W        W74274  18.975   7.347  10.172  0.0555  0.1958  0.1193
18034W        W74275  33.768  22.070  13.908 -0.0036 -0.0803  0.0307
18035W        W74276  31.764   4.129  22.444 -0.1526 -0.1256  0.0696
18036W        W74277  15.767   1.888   4.655 -0.0607 -0.0566  0.1686
18037W        W74278   1.857  14.915  24.367  0.4024 -0.1647 -0.1052
18038W        W74279   3.191   0.525  22.387  0.0997  0.0212  0.1636
18039W        W74280   2.693  19.102   0.919  0.1872  0.0456  0.2233
18040W        W74281  14.606  16.681  25.526 -0.2320 -0.2503  0.0868
18041W        W74282   4.562  32.091  12.088  0.1190 -0.0998 -0.2044
18042W        W74283  25.567   7.878  18.781 -0.0928  0.2855  0.2576
18043W        W74284  11.221  19.521  14.003 -0.2492 -0.2003 -0.1188
18044W        W74285  18.410  26.720  22.023  0.0271  0.2574  0.3077
18045W        W74286  14.736  18.518   8.351  0.0860  0.1096  0.0365
18046W        W74287  17.328  20.642   8.194 -0.0455 -0.1705  0.1801
18047W        W74288  16.289  14.984  13.398  0.0030 -0.2423 -0.1141
18048W        W74289  15.501  25.285   0.303  0.3321  0.1534  0.3368
18049W        W74290  28.000  34.284  16.692 -0.1065  0.1346  0.0553
18050W        W74291  15.717  27.523  14.195  0.0971 -0.0290  0.0525
18051W        W74292  20.343  31.547  25.591 -0.2725  0.2793 -0.1263
18052W        W74293   7.225   1.248  22.044 -0.1295 -0.3331  0.2407
18053W        W74294   0.641   5.655  18.186  0.2387  0.3468 -0.2222
18054W        W74295  29.423  14.154  24.810  0.1049 -0.1253  0.2549
18055W        W74296  10.296  15.664   3.030  0.1595  0.1050  0.3954
18056W        W74297  10.644  34.177   0.633  0.0159 -0.1016 -0.1454
18057W        W74298  18.566  10.105  25.624 -0.0308  0.1527  0.1295
18058W        W74299   0.831  25.800  21.044  0.1577  0.1752  0.2090
18059W        W74300   9.938  20.691  25.571 -0.2617 -0.2518  0.1018
18060W        W74301  21.349   9.475  23.152  0.1998 -0.2115  0.0962
18061W        W74302  21.313  21.794  23.678  0.2132  0.1091 -0.3302
18062W        W74303  28.793  19.326  17.021  0.4241  0.0865 -0.0074
18063W        W74304  15.574  20.757  22.754  0.1305 -0.1094  0.2101
18064W        W74305  20.190  34.933  19.244 -0.1559  0.1505 -0.0923
18065W        W74306  24.567  32.256   1.903 -0.3186  0.0348 -0.0863
18066W        W74307  20.186   9.840   5.275  0.0333 -0.1582  0.0026
18067W        W74308  18.610  16.333   3.901  0.2789  0.1157 -0.2123
18068W        W74309  10.516   5.969  23.866  0.0742 -0.3502  0.0698
18069W        W74310  28.711  12.974  10.907  0.2615 -0.2169 -0.0131
18070W        W74311  27.057  12.666  25.575 -0.2013  0.0248 -0.1846
18071W        W74312  21.227  13.744   2.761  0.1718 -0.0713  0.1506
18072W        W74313  25.129  12.255   1.199  0.2283  0.0737  0.1674
18073W        W74314  24.399  22.383  14.183 -0.2122 -0.0192  0.3720
18074W        W74315   4.569  33.457   1.366 -0.0292  0.3650 -0.0223
18075W        W74316   1.150  20.480  23.716  0.3912  0.1406 -0.0061
18076W        W74317  17.716  11.930  10.077  0.0004 -0.3030 -0.0432
18077W        W74318  16.853  12.339   4.477  0.1148 -0.0587 -0.2557
18078W        W74319  15.895   1.589   7.548  0.0046 -0.2182 -0.0432
18079W        W74320   7.936  34.364  21.660 -0.0548 -0.0707 -0.0243
18080W        W74321  10.264  14.715  20.365 -0.0059 -0.1312  0.0995
18081W        W74322  20.213   8.990   0.783 -0.2786  0.2294 -0.0465
18082W        W74323  16.863   6.163  22.545  0.0008 -0.2740  0.0208
18083W        W74324   8.248  29.826   0.080 -0.1074  0.1340  0.3366
18084W        W74325   3.996  31.689  23.995  0.0337  0.1149 -0.0319
18085W        W74326  21.185  33.444  13.625 -0.3607  0.0701 -0.1303
18086W        W74327  34.215  20.406  16.696  0.1553 -0.0524 -0.1410
18087W        W74328  34.377  17.549  12.173  0.0376  0.1324  0.2121
18088W        W74329  14.767  19.723  12.731 -0.0929 -0.0175 -0.0786
18089W        W74330  21.526  14.623   0.884 -0.1494  0.0948  0.3789
18090W        W74331   1.367  33.794   0.093 -0.0752 -0.0862 -0.0335
18091W        W74332   9.477  10.109  23.099 -0.0521 -0.1171  0.2630
18092W        W74333  34.969  13.278  16.745  0.0798  0.0086 -0.4279
18093W        W74334   9.788  30.288   0.610 -0.0107  0.2437 -0.2028
18094W        W74335  12.893  20.000   3.435  0.0950 -0.0209 -0.0279
18095W        W74336   8.371  24.174  10.083  0.1940 -0.4261  0.1120
18096W        W74337   7.755   2.107  25.782 -0.3682  0.1119 -0.0466
18097W        W74338  33.828  15.506  13.355  0.2985  0.1848  0.1710
18098W        W74339   4.617  21.195  23.056 -0.2059 -0.0179 -0.0723
18099W        W74340  31.475   1.317  23.483  0.3677 -0.1849  0.1887
18100W        W74341  10.647   4.284  10.769  0.0526 -0.3053  0.0760
18101W        W74342  23.836  24.215  15.666  0.0132 -0.2517 -0.3575
18102W        W74343  24.347   7.113  21.611 -0.1174 -0.1417  0.1723
18103W        W74344  18.061  32.898   6.082 -0.0446 -0.0535 -0.1223
18104W        W74345  32.176  14.437   5.191 -0.0698  0.1117 -0.0859
18105W        W74346  12.534  10.606  23.535 -0.1578  0.1716  0.3050
18106W        W74347  11.899   4.506  19.298 -0.2136  0.0381 -0.0774
18107W        W74348  32.618  26.231  19.411 -0.0742  0.1660  0.2271
18108W        W74349  13.282  12.906  20.860 -0.2058 -0.2850  0.1113
18109W        W74350  14.257  25.005   5.656  0.1390  0.4190 -0.1568
18110W        W74351  13.953  33.458  24.410 -0.0098 -0.2025  0.0763
18111W        W74352  27.693  18.704  14.537  0.0768  0.0127  0.2478
18112W        W74353  34.989  14.310  16.610  0.0536  0.2391  0.1806
18113W        W74354   8.774  16.595  24.496 -0.0526  0.0520  0.2078
18114W        W74355  15.390  30.854  24.954 -0.0432 -0.1473  0.2373
18115W        W74356  22.502  33.572  21.193  0.1254 -0.2216  0.2442
18116W        W74357  32.603  15.985  23.844 -0.2220 -0.0538 -0.2256
18117W        W74358  28.827  32.253  23.072  0.2052 -0.3518  0.2133
18118W        W74359   9.256  12.095   4.887 -0.0657  0.1004 -0.0532
18119W        W74360   7.704   4.749  11.617 -0.1203  0.1893 -0.0299
18120W        W74361   2.795  24.597   1.749 -0.0703  0.1380  0.0840
18121W        W74362  22.474   1.759  20.000 -0.1559 -0.0923  0.1573
18122W        W74363  15.902  28.242  12.530  0.1546 -0.1831  0.2201
18123W        W74364   3.945  14.320   0.494 -0.1245 -0.2134 -0.2896
18124W        W74365  34.776  26.100  14.804  0.3469  0.2812  0.0230
18125W        W74366   1.270  19.273  16.268 -0.2946  0.4328  0.0752
18126W        W74367  20.520   4.440   7.659  0.0832  0.1575  0.0298
18127W        W74368  13.081  14.221  13.571 -0.1668  0.0115 -0.0492
18128W        W74369   8.948   2.895   2.317 -0.1315  0.2499  0.2544
18129W        W74370  12.350   1.968  12.313 -0.3490 -0.2282  0.0624
18130W        W74371  11.123  23.236   7.029  0.0154  0.1343 -0.0717
18131W        W74372   5.691  17.636  19.705  0.0891 -0.0509  0.1969
18132W        W74373   4.232  16.716  17.873  0.0485  0.2779  0.1177
18133W        W74374  32.795  23.694  13.778 -0.1625  0.0202 -0.0077
18134W        W74375  33.657  15.577  21.390  0.1069  0.2092  0.1345
18135W        W74376   7.505  29.748   4.859 -0.0429  0.1022 -0.1390
18136W        W74377   2.439  29.605  19.474 -0.0049 -0.4478  0.1956
18137W        W74378  13.273   1.187   8.655 -0.0119  0.1915  0.1739
18138W        W74379  28.675  14.563  23.305 -0.0891 -0.2672 -0.0144
18139W        W74380   3.089  25.652   4.901  0.1590  0.1478 -0.1524
18140W        W74381  23.298   2.986  25.734  0.0149 -0.1031  0.2114
18141W        W74382   6.663  14.569   0.347 -0.2140 -0.2482  0.0100
18142W        W74383  26.162   7.821  12.746  0.1515 -0.2610  0.4365
18143W        W74384  15.294   6.753   9.998 -0.1098  0.2592  0.0358
18144W        W74385   9.671   3.485  21.556  0.0470 -0.2915 -0.0420
18145W        W74386   6.145   6.066   3.145 -0.1527  0.0300 -0.0368
18146W        W74387   2.894  18.070   0.931  0.0944  0.0981  0.2699
18147W        W74388   9.501  12.919  11.209 -0.0054 -0.1992 -0.2974
18148W        W74389  35.271   6.872  22.908  0.1778  0.0642 -0.0644
18149W        W74390  33.917  14.109  16.545  0.0337 -0.1610  0.1396
18150W        W74391  25.853  12.960  24.667  0.2623  0.1220  0.2334
18151W        W74392  19.014  13.571   9.209  0.0801  0.0368  0.2361
18152W        W74393   8.510  15.057   9.614 -0.6579 -0.1160 -0.3717
18153W        W74394  20.575  26.494   6.406  0.0697 -0.3290 -0.1056
18154W        W74395   6.669  27.500  26.093 -0.0515 -0.4122 -0.1642
18155W        W74396  12.330   8.130  20.005 -0.2142 -0.3288  0.1017
18156W        W74397   5.770   5.010   0.255  0.0669  0.1280  0.1567
18157W        W74398  10.904  18.254  23.259  0.0756  0.3468  0.0318
18158W        W74399  34.138  13.294  20.893  0.0146 -0.1026 -0.1332
18159W        W74400  28.275   7.314  16.475 -0.0354  0.1329 -0.2015
18160W        W74401  28.828  34.493  13.321  0.0318 -0.1475  0.2388
18161W        W74402  22.040   6.511   3.990  0.0022  0.0279  0.1866
18162W        W74403   6.471  14.741   1.240 -0.0283 -0.1618 -0.2194
18163W        W74404  30.931   3.183  18.422 -0.1639  0.0577  0.2044
18164W        W74405   4.988  33.742  23.519  0.1163  0.5199 -0.1773
18165W        W74406   5.680  12.422  25.669 -0.0880 -0.0035  0.0925
18166W        W74407  10.010  20.566   0.226  0.2428 -0.1698  0.0010
18167W        W74408  12.768   9.903   4.843  0.1074 -0.2863 -0.2624
18168W        W74409  20.191  18.269   3.047  0.0486 -0.1489  0.0907
18169W        W74410  17.842  11.179   4.205  0.1762  0.0504  0.1838
18170W        W74411  20.772  23.208   6.919 -0.2243 -0.1085 -0.2463
18171W        W74412   8.575  19.032  22.220 -0.3399  0.0008  0.0061
18172W        W74413  10.651  15.664   2.617 -0.7031 -0.0421 -0.3074
18173W        W74414  27.403   8.097  14.145 -0.0627 -0.2516 -0.0276
18174W        W74415  23.555   4.071  23.473  0.0339  0.1969  0.2665
18175W        W74416  30.848  13.978  18.387  0.3557 -0.0570 -0.0213
18176W        W74417  12.930  25.990   6.481 -0.2426 -0.0124 -0.2821
18177W        W74418   5.194   4.750  25.971 -0.1805  0.0499 -0.0228
18178W        W74419  29.465   7.102  12.516  0.3221  0.0172 -0.4410
18179W        W74420  13.632  31.035  13.294  0.3318 -0.1586  0.2773
18180W        W74421  32.804  28.075  18.951 -0.1885 -0.1593  0.1491
18181W        W74422  15.060   5.780  11.888 -0.4919 -0.4066 -0.3414
18182W        W74423  24.157  15.709  22.610  0.1770 -0.3949  0.1766
18183W        W74424  26.998   0.920  21.911 -0.0294 -0.1535 -0.0104
18184W        W74425  34.372  26.484  14.504  0.0049  0.0606  0.1245
18185W        W74426  28.420   8.623  24.658 -0.0345 -0.1051 -0.2190
18186W        W74427  23.673  27.470  21.365  0.1811 -0.1302  0.2934
18187W        W74428  11.204   2.616   1.267 -0.4757 -0.1378 -0.2404
18188W        W74429  15.431  10.236  20.612  0.0471 -0.2161  0.1869
18189W        W74430  20.199  15.186  19.758  0.3027  0.1682  0.4390
18190W        W74431  22.112   7.090   1.711  0.0901  0.0591 -0.1568
18191W        W74432  30.541  17.485  20.066 -0.2226 -0.0822 -0.0881
18192W        W74433  14.177  10.583  14.498 -0.0100  0.2321 -0.3027
18193W        W74434  33.301  18.771  18.779  0.1902 -0.0476 -0.3172
18194W        W74435  14.932  18.555  14.725 -0.0791 -0.0555  0.1905
18195W        W74436  14.712  19.117   3.602  0.2002 -0.0130  0.0752
18196W        W74437  29.664  35.320  13.089  0.0149  0.0804 -0.0628
18197W        W74438  24.758   0.296   4.666  0.3712  0.1569  0.2829
18198W        W74439  23.862  33.699   1.126 -0.2641  0.0902 -0.2625
18199W        W74440  21.891   8.164   1.572 -0.1630 -0.0827 -0.2333
18200W        W74441  26.388   8.281  18.890  0.1882  0.2135 -0.1653
18201W        W74442  17.898  12.868  18.803 -0.3767 -0.0392  0.3199
18202W        W74443  30.771  30.514  14.016 -0.1761  0.0810 -0.0170
18203W        W74444  17.419   9.765  19.945  0.2593  0.2366  0.0204
18204W        W74445  12.273   6.201  11.741  0.0528  0.0611  0.2798
18205W        W74446  35.047  26.752  19.444  0.0616 -0.3076  0.1298
18206W        W74447  11.316  25.754  13.107 -0.1541  0.0345  0.0496
18207W        W74448  31.014  34.079  22.978  0.0735 -0.1151  0.1630
18208W        W74449   7.463  23.919  26.022 -0.2112  0.0579 -0.1097
18209W        W74450  34.557  32.163  22.682 -0.1575 -0.0741 -0.1080
18210W        W74451   5.085   2.166   7.424 -0.1927 -0.0312  0.2837
18211W        W74452  27.123   8.211   2.235  0.0301 -0.0710  0.2568
18212W        W74453   1.489  16.290  19.191  0.1921 -0.0442 -0.0709
18213W        W74454  35.294  22.012  22.053  0.1280  0.2170 -0.2166
18214W        W74455  24.070  33.465  15.249  0.0010 -0.0049 -0.2254
18215W        W74456  14.516   3.359   4.570  0.0715 -0.0647  0.0001
18216W        W74457  23.878   8.505   0.965 -0.0340 -0.2193  0.2853
18217W        W74458  34.377   3.183  12.917 -0.2627  0.3231  0.1471
18218W        W74459  19.838   8.031   3.629  0.0458  0.3192  0.0655
18219W        W74460  14.217  29.933  14.201 -0.1135 -0.3688 -0.0412
18220W        W74461  18.875  32.868  20.988 -0.0708 -0.2521  0.5882
18221W        W74462  35.063  29.388   6.742  0.3130  0.0940  0.0674
18222W        W74463   6.322   6.335  22.078 -0.0805 -0.1697  0.0332
18223W        W74464  10.825   9.554  18.909  0.1666  0.0179  0.0034
18224W        W74465  21.560  22.908  17.136  0.1407  0.2384  0.0563
18225W        W74466  10.018   3.448  23.606 -0.0477  0.0462 -0.2652
18226W        W74467  20.333  11.918  16.138 -0.1505  0.0129 -0.2187
18227W        W74468  25.181  33.801  20.840 -0.0833 -0.3227  0.2838
18228W        W74469  28.846   0.921  20.670  0.1370  0.0108  0.0199
18229W        W74470   9.099   0.706  22.857 -0.2771  0.0085  0.0763
18230W        W74471  33.402   9.654  25.801 -0.4437 -0.0050  0.2981
18231W        W74472   0.697   1.658   4.096 -0.1907 -0.1773  0.0010
18232W        W74473  34.155  31.548  14.902 -0.1539  0.0874  0.1026
18233W        W74474  13.729   4.552   2.463 -0.0674 -0.1113  0.0065
18234W        W74475  18.360  12.367  25.758 -0.1961  0.2783 -0.4018
18235W        W74476  10.038   5.198   9.316  0.2133 -0.2973 -0.1098
18236W        W74477  35.021  32.743   7.162  0.1199 -0.0636  0.1327
18237W        W74478  33.855  35.347  25.673 -0.1052  0.1003  0.1697
18238W        W74479  13.882   5.749  24.438 -0.0556 -0.2102 -0.1089
18239W        W74480  13.331  12.683  19.732  0.1146 -0.3369 -0.2040
18240W        W74481  34.415  20.346  22.407  0.1554  0.1441  0.0438
18241W        W74482  17.425   5.453   1.772 -0.1812  0.1588  0.2293
18242W        W74483  15.516  22.877   4.577  0.1483  0.0226 -0.1884
18243W        W74484  31.216  33.756  12.946 -0.4745  0.0393  0.2362
18244W        W74485  31.554   2.284   6.081 -0.1745  0.0299 -0.0134
18245W        W74486   7.958  11.988   4.131 -0.1023 -0.2377  0.0887
18246W        W74487   6.956   8.143   1.987  0.0763  0.0213  0.0864
18247W        W74488  17.768   7.341  12.464  0.0832 -0.1851 -0.4220
18248W        W74489   8.679  34.691   2.387  0.1076 -0.1314  0.0672
18249W        W74490  33.615  14.525  24.878  0.0699  0.0993 -0.0383
18250W        W74491   3.256  23.733  22.246 -0.0466  0.3032 -0.1612
18251W        W74492  30.630   9.854  13.887  0.0673 -0.2468  0.2596
18252W        W74493  34.132   8.242  17.239  0.1224 -0.0573 -0.0115
18253W        W74494  15.863  15.271  11.638 -0.0815 -0.4034 -0.2580
18254W        W74495   9.427  12.329   5.519  0.0093 -0.2050  0.1166
18255W        W74496  33.007  15.691  15.089  0.3778 -0.0120  0.3284
18256W        W74497  22.499  27.740  20.510  0.0107  0.3306  0.2658
18257W        W74498  23.828   6.908  20.800 -0.1210 -0.1271  0.0708
18258W        W74499  33.797  23.105  10.075 -0.1506 -0.1376  0.1119
18259W        W74500   6.883  31.544  11.694 -0.0245  0.1332 -0.1835
18260W        W74501  24.459  17.404  19.345 -0.0815 -0.1210  0.1118
18261W        W74502  13.182  33.608  23.333  0.2106 -0.0988  0.3357
18262W        W74503  34.268   7.406  18.570  0.0296 -0.2231 -0.0137
18263W        W74504  31.314  29.976  25.735  0.0317  0.1222 -0.2662
18264W        W74505   3.449  32.417   2.757  0.0509 -0.0160 -0.2116
18265W        W74506   4.843  28.448   0.148 -0.1768  0.0508 -0.0329
18266W        W74507  14.021  18.833  21.902  0.0271 -0.1799  0.2373
18267W        W74508  11.296  31.200   7.828 -0.0444 -0.1576  0.1966
18268W        W74509  34.607  21.200  23.013  0.0105  0.1719 -0.1043
18269W        W74510  30.713  22.438  11.359 -0.2004  0.0609 -0.2341
18270W        W74511  24.212   1.160  16.625  0.3018  0.2110 -0.1863
18271W        W74512  14.206   8.527  19.425  0.0456  0.2608 -0.1399
18272W        W74513  23.659  33.132  20.817  0.3159 -0.3432 -0.3322
18273W        W74514  33.531  34.324  20.413  0.1569 -0.0616  0.2918
18274W        W74515  15.487   4.597  20.304  0.0626  0.0391  0.0599
18275W        W74516  30.907   0.011   5.591 -0.0654  0.0593 -0.0282
18276W        W74517   8.770   0.126   6.074  0.3572 -0.0903  0.2425
18277W        W74518  21.778   3.059   6.235 -0.0962  0.2421 -0.2435
18278W        W74519  13.240   8.774   1.979 -0.4001  0.0474  0.0830
18279W        W74520  11.098  35.018   9.387  0.0311  0.0529  0.0751
18280W        W74521  12.732   4.076   4.684 -0.1744 -0.1346 -0.0092
18281W        W74522   9.584  33.897   4.881  0.2838 -0.0904  0.0522
18282W        W74523   9.357   6.241  20.019  0.0120  0.1127  0.0754
18283W        W74524   7.150   5.060  12.314 -0.1004 -0.1548 -0.1253
18284W        W74525  19.767  14.722  19.058 -0.0256  0.1109 -0.0321
18285W        W74526   3.162  19.873  18.583 -0.1800  0.4494 -0.0562
18286W        W74527  27.119  25.472  23.688  0.0704  0.1182 -0.2652
18287W        W74528   9.350   2.643  11.542 -0.0362 -0.1526  0.0361
18288W        W74529  33.272  16.568  26.157 -0.0033 -0.0019 -0.0135
18289W        W74530  18.296  20.097  24.354 -0.2482  0.0090  0.0019
18290W        W74531  22.708   8.657  23.606 -0.0058 -0.0978 -0.4241
18291W        W74532  26.906  26.333  25.120  0.0096  0.2790  0.3660
18292W        W74533   2.113   5.746  18.426 -0.3396 -0.0286 -0.1510
18293W        W74534  18.249  15.024  19.636 -0.0698 -0.1419  0.0112
18294W        W74535   5.163  13.802   1.682  0.3531  0.2055  0.0991
18295W        W74536   0.738  30.962  24.521 -0.1770  0.1117  0.1216
18296W        W74537  24.254  29.032  19.386 -0.2539  0.0529  0.4338
18297W        W74538   3.787   9.283  16.634 -0.0460 -0.1042  0.0079
18298W        W74539  11.646  33.824   0.138  0.1403  0.1761  0.1724
18299W        W74540  10.512  25.931   1.804 -0.0580 -0.0271 -0.0533
18300W        W74541  23.743   9.269  21.534  0.2031 -0.0665 -0.0944
18301W        W74542  13.249  28.042   3.672  0.3181  0.2856  0.1241
18302W        W74543  31.391  15.292  21.629 -0.1471  0.0323  0.0853
18303W        W74544  21.183  15.603  20.567 -0.1197  0.0007 -0.1531
18304W        W74545   6.468  34.697   8.235  0.0202  0.1526 -0.0712
18305W        W74546   1.015   6.400  24.748  0.1350  0.2722 -0.3411
18306W        W74547  14.652   7.337   4.684 -0.1936  0.1629 -0.1122
18307W        W74548  16.136  19.733  12.125  0.4274 -0.4515  0.0102
18308W        W74549  33.641   6.714  13.981  0.0105  0.0477 -0.3111
18309W        W74550  35.151  15.332  19.834  0.0709  0.1015 -0.1636
18310W        W74551  17.007  31.122   3.455 -0.2157 -0.0385 -0.1526
18311W        W74552  31.032  25.141   1.327 -0.0447  0.1557 -0.1003
18312W        W74553  35.033  33.715  23.128  0.1236  0.0254 -0.0898
18313W        W74554  20.954  15.617  25.313  0.4725 -0.0031 -0.2027
18314W        W74555  20.036  10.742  21.884 -0.0234 -0.2812 -0.1019
18315W        W74556  30.237  32.665  21.377  0.4614  0.1463  0.0796
18316W        W74557  27.748  30.712  21.583  0.3635 -0.2012  0.3041
18317W        W74558  34.438  18.636  20.169  0.1560  0.0537  0.0260
18318W        W74559  21.032  20.190   2.378 -0.3403  0.1088 -0.1657
18319W        W74560  33.711   8.597   0.793 -0.2867  0.1622 -0.1036
18320W        W74561  20.886  33.611  25.280  0.1194 -0.0647 -0.0028
18321W        W74562  24.244  34.938  17.113 -0.0650  0.3677 -0.1644
18322W        W74563  28.604  27.810  22.950  0.0384 -0.0205 -0.1823
18323W        W74564  11.385  13.599  22.197 -0.0333 -0.0215 -0.1074
18324W        W74565  34.999  12.389  14.322 -0.0863  0.3496  0.1768
18325W        W74566  29.505  22.674  18.262  0.1374 -0.1950  0.1200
18326W        W74567   7.375  17.881  18.609 -0.0161 -0.1706 -0.3648
18327W        W74568  33.220  24.168  14.512  0.1088  0.0059 -0.0039
18328W        W74569  21.361  24.581   0.794 -0.1965  0.0552  0.0074
18329W        W74570  31.996  32.150   3.147  0.4614  0.1217 -0.0480
18330W        W74571   7.083  17.854  26.178 -0.1529  0.2451 -0.1140
18331W        W74572   6.467   6.192  17.595 -0.1256  0.1931 -0.1528
18332W        W74573  14.726  34.022   4.900  0.0805  0.0560  0.0300
18333W        W74574  12.297   0.051   6.459  0.1512 -0.0819  0.1779
18334W        W74575  14.546   2.984  18.498 -0.0990  0.0625  0.0977
18335W        W74576  16.070  17.090   2.713 -0.0419  0.2193 -0.2149
18336W        W74577  14.387  13.896  20.680 -0.1776 -0.1781 -0.1371
18337W        W74578  23.835  31.363   1.235 -0.2695  0.3292  0.3474
18338W        W74579  33.525  18.356  11.156  0.0525  0.1802 -0.3526
18339W        W74580  32.273  34.525  21.062 -0.2719 -0.1655 -0.1776
18340W        W74581  10.509  16.167  22.530  0.1157  0.0714  0.0720
18341W        W74582  17.716  23.760   2.006  0.1781 -0.0228 -0.0534
18342W        W74583  25.007  15.583  14.249  0.1217  0.3627 -0.3325
18343W        W74584   8.270   6.732   2.789  0.3459  0.1688  0.0855
18344W        W74585  18.859  13.054   9.915 -0.1875 -0.1030 -0.1071
18345W        W74586  27.971   0.030   0.541  0.0138  0.0924  0.4757
18346W        W74587  33.599  26.281  15.333  0.2982  0.2016  0.0477
18347W        W74588  11.120  24.861   6.588 -0.0268 -0.1288  0.1177
18348W        W74589   9.127   7.988  19.474 -0.1376  0.0132 -0.1865
18349W        W74590   6.736  30.508   4.163 -0.1334 -0.0741 -0.0308
18350W        W74591  26.175  32.629  14.695 -0.0064  0.2736 -0.0527
18351W        W74592  31.393  26.844  19.324  0.1922 -0.5218 -0.0524
18352W        W74593  29.691   1.386  17.856 -0.0004  0.0790  0.0054
18353W        W74594  23.718   2.480  19.435  0.0618 -0.1819 -0.0815
18354W        W74595  21.323  15.549  17.377 -0.0141 -0.4220  0.2012
18355W        W74596  20.470   8.130   5.230  0.0702 -0.3585  0.0507
18356W        W74597  28.781  16.557  23.316  0.1353 -0.0685 -0.2411
18357W        W74598  18.541  24.418   9.593 -0.2138  0.0088 -0.1264
18358W        W74599  24.317  19.994  22.757  0.0162  0.1157 -0.1028
18359W        W74600  28.976   8.103  14.716  0.0478 -0.2632  0.0604
18360W        W74601   4.852  13.245  19.678  0.1370  0.0468 -0.0438
18361W        W74602  11.387  14.848  19.317  0.1595  0.1266  0.2641
18362W        W74603  17.412   1.740   8.846  0.2710  0.0062  0.0456
18363W        W74604  13.044  23.455  22.380 -0.0189  0.1991 -0.2561
18364W        W74605   7.179  30.508  22.249  0.0407 -0.0839  0.2122
18365W        W74606  21.404  29.773  14.659  0.2071 -0.0003  0.0496
18366W        W74607  13.466  28.015  25.860 -0.0561  0.2854 -0.0725
18367W        W74608  32.673  18.944   4.722 -0.2753 -0.1071  0.0820
18368W        W74609   6.118   9.088  22.036  0.0094  0.3407  0.1600
18369W        W74610  33.082   9.474  14.444  0.0925 -0.1948  0.1708
18370W        W74611   4.244   6.118  18.059 -0.1166  0.1348  0.0526
18371W        W74612  32.299  20.877   6.949  0.0044  0.2054 -0.0334
18372W        W74613  18.176  31.223   8.729 -0.2429  0.0663 -0.1375
18373W        W74614   7.778  26.936   6.341  0.3279  0.0958  0.0101
18374W        W74615   9.318  12.531   1.245  0.2005 -0.1104 -0.0925
18375W        W74616  19.988  11.395   7.404 -0.1589  0.0809 -0.0824
18376W        W74617  32.627  22.198  25.583 -0.0516 -0.1833 -0.0493
18377W        W74618  25.292  15.314  13.906 -0.0377 -0.2833  0.0231
18378W        W74619  13.179  30.011   1.797 -0.2842 -0.2904 -0.0847
18379W        W74620   9.676   7.223  12.450 -0.0033 -0.1304 -0.1220
18380W        W74621   5.508  30.043   4.212 -0.1120 -0.1917 -0.1349
18381W        W74622  12.062   0.204   7.767  0.1303  0.0530 -0.1597
18382W        W74623  24.667  25.040   9.213  0.3883 -0.0127 -0.0483
18383W        W74624   1.592   8.530   4.905 -0.0965  0.1363 -0.0331
18384W        W74625  26.921   6.224  16.539  0.0209 -0.0891  0.0699
18385W        W74626  32.930   3.145   2.189 -0.0960  0.3394 -0.1656
18386W        W74627  30.436  13.717  26.206  0.5153 -0.1231  0.0299
18387W        W74628  26.362  15.648  25.597  0.0651 -0.3423  0.0544
18388W        W74629  14.918   3.550  18.574 -0.0823  0.0836  0.1311
18389W        W74630  16.592   1.007  24.606 -0.3005  0.3743 -0.0182
18390W        W74631  23.583   8.872  20.722 -0.0344  0.2487  0.0782
18391W        W74632   2.321  35.051   9.026 -0.4234 -0.1738 -0.1405
18392W        W74633  32.615  34.812   2.121  0.0350  0.0320 -0.3697
18393W        W74634  20.090  25.926  20.154 -0.2487 -0.1008 -0.0892
18394W        W74635  19.507   6.477  18.472 -0.1098 -0.0047 -0.1388
18395W        W74636  12.268  23.688  24.258  0.1990 -0.1099  0.2297
18396W        W74637   0.824  22.125   1.969 -0.2180  0.1383 -0.0786
18397W        W74638  22.124  14.630  23.714 -0.3410  0.0597  0.1800
18398W        W74639  15.376  22.807  24.443  0.0051 -0.0333 -0.1389
18399W        W74640   4.838  25.026  20.732 -0.1065 -0.0862  0.0817
18400W        W74641  18.548  17.502   4.294  0.1262 -0.1155 -0.0462
18401W        W74642  26.180  33.383   4.697 -0.1138 -0.0475 -0.2234
18402W        W74643  20.138   7.083   7.554 -0.3222 -0.2906 -0.1577
18403W        W74644  32.062  26.550  11.171  0.3081  0.0240  0.1985
18404W        W74645  10.418  31.320   0.054  0.0482  0.0883  0.2284
18405W        W74646   4.639   4.652   8.688 -0.0484  0.1793  0.1103
18406W        W74647  17.177  32.461  23.039 -0.0079 -0.1627  0.2454
18407W        W74648  16.652  16.151   7.640 -0.2346  0.1767  0.1967
18408W        W74649  21.562  25.185  19.364 -0.2927 -0.1339  0.0165
18409W        W74650  33.760   2.016  21.154 -0.2902  0.0859  0.1853
18410W        W74651  35.296  16.575  25.253  0.2597 -0.0466  0.0953
18411W        W74652  29.788  27.719  19.386 -0.0811 -0.1329 -0.1923
18412W        W74653  33.299  16.524  25.640  0.0127  0.2330 -0.2314
18413W        W74654  11.136  11.585  20.241 -0.0529 -0.1076 -0.0697
18414W        W74655   4.700   1.019   3.266  0.1440 -0.1174  0.2155
18415W        W74656  27.936  12.988   5.672 -0.0671 -0.2312 -0.0200
18416W        W74657   4.379  11.402  25.191  0.1892  0.2057  0.3854
18417W        W74658  33.310  18.675   8.136 -0.0444 -0.1937 -0.1101
18418W        W74659  35.329  19.993  12.131  0.0247 -0.3691 -0.2212
18419W        W74660   0.299  17.723  23.835  0.1306  0.0160  0.0217
18420W        W74661  27.752  20.271   8.971  0.2089 -0.2136 -0.1563
18421W        W74662  19.223   5.260  21.590  0.3021  0.2152 -0.0684
18422W        W74663  23.452  31.894  16.285 -0.0091 -0.1103  0.0645
18423W        W74664   5.462   1.641  23.224  0.0260  0.0833  0.2900
18424W        W74665  31.808   7.912  20.847 -0.1000  0.2533  0.0002
18425W        W74666  33.430   8.678  15.033 -0.0700  0.0554  0.0422
18426W        W74667   9.697   3.074   4.503 -0.1934  0.0987  0.5640
18427W        W74668  16.062   5.130  12.559 -0.3694 -0.0936  0.2855
18428W        W74669  10.222  10.191  26.170  0.0161  0.2041  0.0375
18429W        W74670  25.909  26.612  18.113 -0.4762  0.2229  0.2233
18430W        W74671  11.422   2.682  25.507 -0.5634  0.0422 -0.1186
18431W        W74672   4.350  34.591   5.460 -0.0033 -0.2544  0.2205
18432W        W74673  26.952  25.326  21.811  0.0800 -0.0444  0.0987
18433W        W74674  32.047  19.606  14.690 -0.1226 -0.1980  0.4254
18434W        W74675   1.743  28.121  10.505  0.3914  0.1483  0.1729
18435W        W74676  15.159  11.517   1.696 -0.0563 -0.0304 -0.1137
18436W        W74677   5.421  15.720   3.339  0.1258 -0.2347  0.1899
18437W        W74678  23.007   3.962  18.473 -0.1873 -0.0086 -0.5681
18438W        W74679  21.834   4.749   3.992 -0.2231 -0.5458  0.0760
18439W        W74680  13.766  24.503  24.083  0.1970 -0.1889  0.0357
18440W        W74681  13.393  34.058  24.137  0.4887 -0.3284 -0.1694
18441W        W74682  11.108  10.363   5.528  0.1052  0.1007  0.0142
18442W        W74683   3.665  28.844   3.951 -0.0442  0.3125  0.0913
18443W        W74684  31.540  13.763   6.410  0.1116 -0.3425  0.2355
18444W        W74685   0.453  30.125  18.991  0.1988  0.2925 -0.2404
18445W        W74686  23.651  35.322  23.387  0.4545  0.2229 -0.0287
18446W        W74687  22.513   9.856  22.832  0.1862 -0.2352 -0.0710
18447W        W74688  23.365   4.041  17.602  0.0972  0.1893 -0.2491
18448W        W74689  35.071   1.918  17.207  0.1113  0.3275 -0.0308
18449W        W74690   7.337  30.905   2.061  0.0104  0.1626  0.1979
18450W        W74691  17.088  16.819   5.680 -0.2125 -0.1094  0.3578
18451W        W74692  23.107  29.762   2.880  0.2113  0.0061 -0.1200
18452W        W74693  22.407  12.274  20.314  0.0255 -0.0701  0.0491
18453W        W74694   4.481   0.903  19.472 -0.2294 -0.0809  0.1726
18454W        W74695  16.156   5.030  25.707 -0.1276  0.1281  0.2000
18455W        W74696  23.571  24.280  12.382  0.1427 -0.1060  0.3835
18456W        W74697  21.089  21.874   0.662  0.1276  0.0693 -0.1117
18457W        W74698  33.017   4.329  14.792 -0.1413  0.2764  0.4431
18458W        W74699   7.492   1.254  12.797 -0.0825  0.1770 -0.0717
18459W        W74700  30.673  10.962  12.423  0.0628  0.0807  0.4867
18460W        W74701  31.494  24.284  11.107 -0.2397  0.2936  0.1193
18461W        W74702  35.171  10.633  21.097 -0.3646  0.0226 -0.3232
18462W        W74703  22.907  33.200   1.119 -0.0193 -0.0947 -0.2300
18463W        W74704  16.226  17.530   6.453 -0.0149 -0.1418 -0.1161
18464W        W74705   9.314  28.066  10.193  0.0619  0.0086 -0.2398
18465W        W74706  14.635  17.768  25.681  0.0520  0.2315  0.0419
18466W        W74707   4.152  25.274   3.277  0.5155 -0.0138  0.0151
18467W        W74708   1.546   4.159   8.049  0.0792  0.5884  0.1105
18468W        W74709  28.958  27.318  10.440  0.0458 -0.0562 -0.3192
18469W        W74710   3.018  12.828  14.483  0.0315 -0.0774 -0.1102
18470W        W74711  23.110   6.042   1.957 -0.2607  0.0405 -0.2109
18471W        W74712  19.015  31.346   7.355 -0.0991 -0.1621  0.4522
18472W        W74713  17.366  14.937  18.825  0.2392  0.0240  0.0408
18473W        W74714  15.153  21.981   7.600 -0.1681  0.2202  0.2709
18474W        W74715   5.597  27.831  14.528  0.0358 -0.1647 -0.0529
18475W        W74716  29.401  30.978  19.439  0.1483  0.0841  0.0595
18476W        W74717   7.913  26.976  12.620 -0.1844  0.2154  0.1353
18477W        W74718  21.583  30.074   1.510 -0.3506 -0.2669 -0.1987
18478W        W74719   9.769  17.263  12.753  0.1618 -0.2365  0.0861
18479W        W74720   7.188  29.939  14.660 -0.2775  0.0621  0.2189
18480W        W74721  30.112   1.616  15.153 -0.1885 -0.0741 -0.0689
18481W        W74722  26.885  26.233  19.819 -0.0775 -0.1619  0.0587
18482W        W74723   0.826  35.218   7.594  0.2183  0.1387 -0.2422
18483W        W74724  34.805  11.233  23.967  0.3564  0.3424 -0.0011
18484W        W74725   5.214  11.437   4.104 -0.0501  0.0189  0.3240
18485W        W74726  33.061   7.906  11.176  0.2494  0.1619  0.2203
18486W        W74727  21.577   9.982  16.441 -0.1747  0.2719 -0.0759
18487W        W74728  23.224  28.430   2.785 -0.2861  0.3289 -0.0447
18488W        W74729  26.519   4.317  19.393  0.1702 -0.1569 -0.4403
18489W        W74730  25.457  15.544  22.305 -0.1069  0.1965  0.1955
18490W        W74731   2.729  20.019   1.732 -0.2333 -0.1348  0.1665
18491W        W74732   0.726   5.090  16.094  0.0795  0.1780  0.0946
18492W        W74733  24.054   2.982  22.206  0.0617 -0.1376 -0.0234
18493W        W74734   7.164  34.568   5.173  0.2048 -0.0805  0.0054
18494W        W74735   0.024  29.119   4.347  0.2433 -0.1249 -0.1143
18495W        W74736  11.997   0.019   9.053  0.0581 -0.1770  0.0267
18496W        W74737  11.918  27.728  23.700  0.0110  0.1506 -0.0122
18497W        W74738  20.543   2.887   9.399 -0.4969 -0.0923 -0.1106
18498W        W74739   9.676  22.067  16.082 -0.0475  0.1178 -0.0983
18499W        W74740   3.457  31.588   0.283 -0.4026 -0.1141  0.1991
18500W        W74741  30.718  34.956  18.786 -0.0763  0.1357  0.2880
18501W        W74742  19.427  24.565  20.175 -0.1080  0.2918 -0.2102
18502W        W74743  16.582  12.442   6.453 -0.0686  0.0542 -0.2235
18503W        W74744  28.760  35.111  13.505 -0.0970 -0.0934 -0.0403
18504W        W74745  26.072  22.117  22.311 -0.3092  0.0002  0.2750
18505W        W74746   2.183  28.941   5.338 -0.0354 -0.1043 -0.2266
18506W        W74747  24.767  12.152  14.954 -0.1377 -0.0289 -0.1743
18507W        W74748  10.040  21.372  25.726 -0.0030  0.2440 -0.0033
18508W        W74749  14.993  31.519  21.343  0.2581  0.3748  0.1636
18509W        W74750  32.336  11.430   1.080 -0.0721 -0.1720 -0.2507
18510W        W74751   1.379  29.150  25.526 -0.0383 -0.5003  0.1250
18511W        W74752   8.768  30.756  25.064 -0.6177 -0.0135 -0.1422
18512W        W74753   7.155  29.080   4.981  0.3084  0.1187  0.0719
18513W        W74754   4.639  28.063   3.457 -0.0422 -0.1899 -0.0817
18514W        W74755  19.254  25.438   1.131 -0.0003 -0.1888  0.0871
18515W        W74756  23.824  17.642   0.653 -0.3522 -0.2244 -0.1468
18516W        W74757  26.701   7.828  14.109 -0.0191 -0.2731 -0.1483
18517W        W74758   4.475   6.576  16.629 -0.3290 -0.1694 -0.0405
18518W        W74759   3.496  18.014  21.674 -0.2422  0.5907 -0.2164
18519W        W74760  24.929   2.613   1.994  0.0729  0.0605 -0.0625
18520W        W74761  22.231  12.595  17.287  0.0037  0.0838  0.2242
18521W        W74762  29.258  11.504  13.261 -0.0901  0.1318 -0.0575
18522W        W74763   4.919  32.690  12.664  0.3909 -0.5705  0.1981
18523W        W74764  19.674  30.266   6.304 -0.0385 -0.0556  0.2287
18524W        W74765   1.427  28.579  23.363  0.1582  0.0178 -0.1271
18525W        W74766  15.331  11.009  20.267 -0.3176 -0.2022 -0.0488
18526W        W74767  30.144  19.914  21.930 -0.0859 -0.1277 -0.0270
18527W        W74768   8.630  33.966  22.887 -0.1370  0.2296 -0.3283
18528W        W74769  31.606  24.205  15.688  0.0660  0.1940  0.4093
18529W        W74770  34.964   4.244   0.436 -0.3934 -0.3487  0.0749
18530W        W74771  19.879  20.662  22.660 -0.0626 -0.1809 -0.2378
18531W        W74772  29.249  22.475  15.909 -0.3083 -0.1592  0.3556
18532W        W74773   5.305  32.910   8.869 -0.0593  0.2482  0.3341
18533W        W74774  16.460  15.729   7.314  0.3304  0.1059 -0.1504
18534W        W74775   1.060  27.990   2.409  0.3420  0.0988  0.0272
18535W        W74776   8.137  27.122   2.378 -0.2279  0.0328  0.0468
18536W        W74777  26.954  32.575   5.454 -0.0199 -0.0610 -0.0159
18537W        W74778   3.957  11.179  23.074  0.1604  0.3292 -0.0849
18538W        W74779   7.404  22.302   8.427  0.2561 -0.1041  0.2322
18539W        W74780  15.915  12.555   9.970 -0.0241  0.0224 -0.1841
18540W        W74781   4.027  34.404   3.522 -0.0221 -0.2302 -0.1601
18541W        W74782  10.098  29.135  21.789  0.0600  0.1913  0.2561
18542W        W74783  17.939  16.578   7.876 -0.2314 -0.5092 -0.1349
18543W        W74784  12.149  12.946   8.706  0.0407 -0.2003  0.1585
18544W        W74785  18.902  31.720   4.586  0.2949  0.3365  0.1602
18545W        W74786   8.095  22.998  11.151  0.0832  0.0034  0.0335
18546W        W74787  16.055   6.003  19.464  0.0856 -0.0817 -0.1890
18547W        W74788  26.113   2.328  23.423  0.1889  0.2624  0.0054
18548W        W74789  33.806   6.119  20.913 -0.1638 -0.2407  0.1962
18549W        W74790  26.928   0.845   1.075 -0.0905  0.2220 -0.0599
18550W        W74791  22.765   6.283  16.236 -0.1096  0.1354  0.0615
18551W        W74792  34.612  17.518  20.856  0.0795 -0.1657 -0.0644
18552W        W74793   7.791  27.936   6.337 -0.0632  0.1572  0.0340
18553W        W74794   2.488  34.359  19.078  0.0730 -0.2413  0.1141
18554W        W74795  15.646  11.304   7.077 -0.0951  0.0050  0.2311
18555W        W74796  15.492  21.627  10.584 -0.0391  0.1181  0.1480
18556W        W74797  13.104  19.069  15.135  0.0840 -0.3466 -0.4083
18557W        W74798  19.478  15.128   6.820 -0.1317 -0.0810  0.0857
18558W        W74799   4.854   1.981   6.467 -0.2335 -0.2709 -0.0827
18559W        W74800  11.168  29.291  15.467 -0.0595  0.0454 -0.2010
18560W        W74801  29.069   9.299  11.589 -0.0684  0.3043 -0.0517
18561W        W74802   2.776   6.209  16.638  0.0419  0.0907 -0.1348
18562W        W74803   6.302  29.447   8.965 -0.1343 -0.2769  0.2811
18563W        W74804  26.367   7.441  14.179  0.0860 -0.3451  0.0672
18564W        W74805  32.658   6.527   2.981 -0.3283  0.4559  0.2085
18565W        W74806  13.188   4.511  21.034 -0.0940  0.1311 -0.0937
18566W        W74807  14.049  15.072  20.201  0.0874 -0.0255  0.1556
18567W        W74808   8.718  35.308  24.402  0.1883  0.1040 -0.0737
18568W        W74809  24.764  17.801  11.331 -0.3511 -0.0838  0.0758
18569W        W74810  34.125  33.522   1.909  0.6320  0.3956  0.0996
18570W        W74811   4.673  28.981   8.353 -0.2526  0.1004  0.1414
18571W        W74812  14.246  14.084  21.551 -0.0836 -0.0054 -0.0049
18572W        W74813  29.321  28.015  11.569 -0.1670 -0.0597  0.0566
18573W        W74814  13.036   1.861  25.012  0.2310  0.1023  0.4469
18574W        W74815  34.310  28.384   5.789 -0.2958 -0.0265  0.1652
18575W        W74816  30.713  33.712  12.972  0.1662 -0.1321 -0.1737
18576W        W74817  18.882  21.576   1.409 -0.0453 -0.0561  0.2547
18577W        W74818   0.214  23.994   1.520  0.2433 -0.2024 -0.0113
18578W        W74819  23.804  23.407   1.219 -0.1983 -0.1972  0.2199
18579W        W74820   6.662  31.084  11.709  0.1368 -0.0262  0.0112
18580W        W74821   0.768  12.953  22.248  0.0299 -0.0064 -0.1672
18581W        W74822  29.552   0.952   4.732  0.1296  0.2004 -0.0822
18582W        W74823  17.072  19.711   3.161  0.2100 -0.2130  0.1137
18583W        W74824  25.247  18.720  19.173 -0.2642  0.0004 -0.1962
18584W        W74825   7.730  15.926  22.404 -0.4279 -0.3291 -0.4082
18585W        W74826  28.328  19.651  20.535 -0.1665 -0.0150  0.2565
18586W        W74827  14.002  23.634  16.394  0.0388  0.2264 -0.0597
18587W        W74828   7.860  12.875  19.253  0.0080 -0.2889 -0.0749
18588W        W74829   6.031  32.006   2.429  0.3399 -0.2264  0.0459
18589W        W74830  27.246  11.678  16.695 -0.2360 -0.1358 -0.0457
18590W        W74831  21.973  26.718  19.992 -0.3312 -0.1905 -0.0244
18591W        W74832  34.428   9.541  23.396  0.0926 -0.2073 -0.2952
18592W        W74833  35.054  28.746   4.606  0.0753  0.3290  0.2290
18593W        W74834  31.951  16.969  10.669  0.2827  0.1198 -0.0376
18594W        W74835  28.967   6.192   2.764 -0.1256 -0.0243 -0.1866
18595W        W74836  14.485  28.441   1.388  0.4455  0.1855 -0.1811
18596W        W74837   0.512  22.946  11.619 -0.0463 -0.2831 -0.0511
18597W        W74838  25.350  13.301  20.255 -0.1822  0.0593 -0.2675
18598W        W74839  33.821   1.180  24.969 -0.1839 -0.1775  0.2318
18599W        W74840   0.283  21.478  23.125 -0.1308 -0.0738  0.0410
18600W        W74841  23.416  18.866  21.553  0.0424  0.0928  0.0454
18601W        W74842   7.309  34.293  12.752 -0.4547  0.2041  0.3343
18602W        W74843  25.718   8.950  16.450  0.0388 -0.0713 -0.2828
18603W        W74844  25.029   6.412  14.819 -0.1119 -0.0132  0.3238
18604W        W74845  14.934  24.102   2.716  0.0403  0.0037 -0.3229
18605W        W74846  14.659  31.778   7.256 -0.4420 -0.0746 -0.0657
18606W        W74847  17.254  11.708  22.755  0.3785  0.0125 -0.5106
18607W        W74848   3.575  11.678  17.802  0.0881 -0.0414 -0.1985
18608W        W74849   8.375  21.189   3.095 -0.1175  0.1253  0.1473
18609W        W74850  22.994   8.554  22.658  0.2321  0.1223 -0.0067
18610W        W74851  16.460  28.539  21.150 -0.4788 -0.1121  0.2181
18611W        W74852  27.086   6.515  23.878 -0.0139 -0.0236  0.2100
18612W        W74853  18.836  12.547  22.665  0.2854 -0.0876 -0.1266
18613W        W74854   2.612   8.082   2.373  0.0255  0.4427  0.0912
18614W        W74855   0.880   2.346   1.372 -0.0313  0.0214  0.0492
18615W        W74856  33.426  35.187   1.464  0.1278  0.3700  0.0198
18616W        W74857  27.849  30.982  13.604  0.2478  0.0317  0.1314
18617W        W74858  13.631   9.316   4.051  0.0114  0.1425  0.0243
18618W        W74859  19.126  11.423   7.777  0.1532  0.0866 -0.1108
18619W        W74860   8.718   2.491   2.180 -0.1184  0.1082 -0.0857
18620W        W74861   1.240   6.892  16.607  0.1174 -0.3182 -0.5416
18621W        W74862  34.386   4.936  18.478  0.0283 -0.1407 -0.0011
18622W        W74863   0.539  30.181   1.363 -0.0508 -0.1625 -0.0720
18623W        W74864  30.440  34.076  23.663  0.1453 -0.0487 -0.1193
18624W        W74865  21.680  27.226  16.757 -0.0278  0.1436  0.1136
18625W        W74866  19.096   4.397   1.076  0.2675  0.0484  0.0766
18626W        W74867  13.543  10.595  21.877  0.2064 -0.1926 -0.1152
18627W        W74868  15.674  15.618   8.647  0.0456  0.2442 -0.1436
18628W        W74869   1.948  29.640  24.053 -0.2635 -0.3321 -0.0339
18629W        W74870  32.446   0.222  25.146  0.3133  0.0540 -0.2026
18630W        W74871   7.203  25.305   0.888  0.1110  0.0259 -0.0725
18631W        W74872  30.368  17.367  18.843 -0.0234  0.2558  0.0053
18632W        W74873  29.244   4.920  25.608  0.2466  0.0548 -0.2626
18633W        W74874  34.107  20.155   6.982  0.3978 -0.0361  0.1418
18634W        W74875  26.730   4.725  26.205  0.2274  0.1681  0.0208
18635W        W74876  15.642  12.770  11.185 -0.1853 -0.0378 -0.3046
18636W        W74877  33.586  15.318  20.244 -0.2706  0.3314 -0.3325
18637W        W74878  21.286  28.588   3.285  0.0337 -0.0584  0.0513
18638W        W74879   6.617  15.872   0.262  0.0096 -0.3680 -0.1703
18639W        W74880  27.883   0.472   3.801 -0.3816  0.2321 -0.0310
18640W        W74881  12.139   4.813   1.088 -0.0631 -0.2694 -0.2105
18641W        W74882   4.697  31.758   0.640  0.1078 -0.2851  0.3247
18642W        W74883   4.767  11.616  16.763 -0.1915 -0.1171  0.1644
18643W        W74884  22.466   9.473  18.353 -0.1426  0.0937  0.0055
18644W        W74885  28.667  18.474   8.255  0.1595 -0.2010  0.1392
18645W        W74886  31.790   4.565  25.670  0.2730 -0.0441 -0.1461
18646W        W74887  30.526  20.279   7.644 -0.2698  0.0097  0.2506
18647W        W74888  32.119  34.493  20.575  0.1263 -0.2331 -0.3639
18648W        W74889   2.378   1.939   1.292  0.1369  0.3252  0.0097
18649W        W74890  26.933  33.605  26.054 -0.1622  0.0872 -0.0009
18650W        W74891   0.850  15.938  11.163  0.0585 -0.0113  0.0716
18651W        W74892  19.475  20.450   7.277  0.1303 -0.0751  0.0050
18652W        W74893  10.492   8.749   2.689 -0.0079  0.1198  0.0456
18653W        W74894  17.478   4.024  11.440 -0.0174  0.2653 -0.2368
18654W        W74895  35.016   3.994  24.891 -0.0428  0.4508 -0.0029
18655W        W74896  22.183  14.954   1.869 -0.1554 -0.3319 -0.0560
18656W        W74897  22.528  19.386  24.200 -0.1594  0.1239  0.1747
18657W        W74898  14.000  13.894  25.964  0.2630  0.2433 -0.0307
18658W        W74899   9.226  21.199  26.245 -0.0590  0.2205  0.2377
18659W        W74900   9.808  11.938  25.556  0.2113  0.2334  0.2636
18660W        W74901  21.494  23.845   5.143  0.4069  0.0095  0.3212
18661W        W74902  34.092  14.925  10.035 -0.0765  0.0055  0.0884
18662W        W74903   3.987   4.250   2.750 -0.2117 -0.0547  0.0168
18663W        W74904   1.522  18.482  23.342 -0.2696  0.0320  0.1267
18664W        W74905  31.550   8.320  22.262  0.0092  0.0875  0.1665
18665W        W74906  12.692   1.824   6.911 -0.0658 -0.1693 -0.0483
18666W        W74907   4.248   3.409  23.989 -0.0068 -0.1316  0.0147
18667W        W74908  19.719  11.770   1.937 -0.3454 -0.2504 -0.2706
18668W        W74909  12.748  30.958   4.873  0.0701  0.1401  0.2219
18669W        W74910  25.474   8.408   2.145  0.1345 -0.0349 -0.0894
18670W        W74911  12.721   0.104   7.002  0.1520  0.0179  0.0873
18671W        W74912  17.739  17.665  25.329  0.1627 -0.1537  0.2545
18672W        W74913   6.788  17.715   3.259 -0.4284  0.0707  0.0564
18673W        W74914  19.937  22.965  24.745 -0.1856  0.0953  0.2089
18674W        W74915  30.717  25.588  14.058 -0.2606 -0.1710  0.0565
18675W        W74916  15.422  16.323  19.100  0.1800  0.1483 -0.3666
18676W        W74917  14.423   9.742   5.031  0.1343 -0.0282 -0.1044
18677W        W74918   8.052  17.821   6.297 -0.0676  0.1169 -0.0787
18678W        W74919  27.815   0.266  11.353  0.0021  0.3872 -0.2290
18679W        W74920  30.296   2.942   2.906  0.2847  0.1262 -0.1561
18680W        W74921   1.650  16.365  24.391  0.0059 -0.1927  0.0968
18681W        W74922  31.792   0.346  12.804 -0.1002  0.0760  0.0632
18682W        W74923  25.504  24.916   0.036 -0.0100  0.2816  0.1158
18683W        W74924  20.528   3.444  17.769  0.1955  0.0188 -0.1792
18684W        W74925  20.294  32.192   3.393  0.0121  0.0752  0.2039
18685W        W74926  22.064  34.348   1.304 -0.4277  0.0105  0.0540
18686W        W74927  23.234  35.128  19.614  0.3579  0.1628  0.1012
18687W        W74928  14.723  25.003  23.052 -0.2311 -0.0474  0.0293
18688W        W74929  18.158  10.230   8.025 -0.0451 -0.0735 -0.1521
18689W        W74930  18.733  23.896   6.667  0.0315 -0.0052 -0.1001
18690W        W74931  25.487  20.850  10.547  0.1131 -0.1231  0.2714
18691W        W74932  27.789   8.911   8.248 -0.2597 -0.0406 -0.0306
18692W        W74933  29.868  25.451  16.821 -0.0619 -0.3875 -0.2685
18693W        W74934  32.111  30.979  17.324 -0.1939  0.3791  0.0179
18694W        W74935  30.155  24.574  22.332  0.1387 -0.1003 -0.2455
18695W        W74936  26.680  32.382  14.734 -0.0743 -0.0062  0.0096
18696W        W74937   6.081   0.215  12.908  0.0728  0.0396 -0.0357
18697W        W74938  31.892   1.918   6.042 -0.0696  0.0795  0.1369
18698W        W74939   9.283  32.398   0.734 -0.0781 -0.0379  0.0907
18699W        W74940  18.834   5.081   1.843 -0.1179 -0.2435 -0.0774
18700W        W74941  23.379  11.007   3.406  0.2737 -0.0287  0.2029
18701W        W74942  11.338  21.465   4.274 -0.1476 -0.1195  0.1557
18702W        W74943   0.452  17.821  10.507 -0.0638 -0.0459 -0.1747
18703W        W74944  18.010   2.903   2.270 -0.0506  0.3379 -0.1255
18704W        W74945   0.773  11.123  25.243 -0.0450  0.1779  0.1694
18705W        W74946  26.328  34.271  15.375 -0.0356 -0.0859  0.0658
18706W        W74947  29.979  16.496  25.321  0.1154  0.0095 -0.1288
18707W        W74948  29.193  33.097  13.523 -0.0291 -0.2906 -0.3564
18708W        W74949  15.257  22.168  25.701  0.2638 -0.4039  0.1261
18709W        W74950   0.919  21.676  21.530 -0.1319 -0.3722  0.2736
18710W        W74951  31.976   6.781  14.721 -0.0811 -0.1286 -0.1312
18711W        W74952  16.293  10.368  22.540 -0.2512 -0.1293 -0.1191
18712W        W74953   9.321  20.805  13.263  0.1794  0.2606  0.0327
18713W        W74954  31.069  25.376  10.372 -0.2294  0.0281  0.3920
18714W        W74955  17.366  29.467   5.061 -0.0350  0.1723 -0.1522
18715W        W74956  17.607   0.333   5.542 -0.1640 -0.1357  0.2147
18716W        W74957   1.348  34.510   1.458  0.1158  0.0404  0.2495
18717W        W74958  15.578  31.716  11.930  0.3472 -0.1119 -0.0080
18718W        W74959  32.230  30.449  14.376 -0.0211 -0.4347 -0.1134
18719W        W74960  16.505  25.249   6.346  0.1195  0.2866  0.1600
18720W        W74961  11.267   1.849  20.524  0.3089  0.0347 -0.2995
18721W        W74962  12.187  34.225   4.154 -0.1783  0.2788  0.0074
18722W        W74963  30.892  26.252   0.145 -0.1506 -0.0148  0.1950
18723W        W74964  19.741  25.412   1.173 -0.2402  0.0215 -0.2168
18724W        W74965   1.459   1.927  17.891 -0.2820 -0.3389  0.2016
18725W        W74966  25.337   6.414  11.923 -0.0805 -0.1190 -0.2450
18726W        W74967   8.903  16.869   2.708  0.3429  0.1069  0.0032
18727W        W74968   4.664  32.400  24.123 -0.1361 -0.0255  0.1427
18728W        W74969  15.104  10.308   0.832  0.2863 -0.2093 -0.0667
18729W        W74970  17.021  27.853   2.559 -0.0892  0.4211 -0.1348
18730W        W74971  22.554   3.093   0.594 -0.1921 -0.2256 -0.1819
18731W        W74972   1.375   4.278  19.583  0.1656  0.2801 -0.0297
18732W        W74973   9.137  10.029   3.056  0.0038 -0.0457  0.0422
18733W        W74974   5.292  34.079   6.404  0.1260  0.0268 -0.1437
18734W        W74975  25.531  26.123  21.650 -0.3902 -0.0879 -0.0601
18735W        W74976   5.199  23.727   0.683 -0.0150 -0.0283 -0.1378
18736W        W74977  28.386  32.380  15.767 -0.3380  0.1451  0.1852
18737W        W74978   9.304  16.751  11.558  0.2605  0.0244 -0.2793
18738W        W74979  32.131  18.699  19.641 -0.0275 -0.0848 -0.2378
18739W        W74980   3.380  15.837  19.021 -0.1490 -0.0224 -0.1508
18740W        W74981   8.942   7.093  10.584 -0.1938  0.4002  0.0677
18741W        W74982   7.920  17.646  25.296  0.0816  0.0053 -0.0898
18742W        W74983  21.225  15.388  22.056  0.1956  0.1098 -0.2448
18743W        W74984  23.863   2.181   5.408  0.4794  0.0026 -0.1194
18744W        W74985  26.827  16.986  23.632 -0.1290  0.0716 -0.0794
18745W        W74986   5.060  12.560   4.866  0.1029 -0.2511 -0.0658
18746W        W74987  18.590   9.581   2.629 -0.3824  0.0046 -0.1822
18747W        W74988  32.004  11.559  12.837  0.0414  0.1124 -0.1103
18748W        W74989  27.395  29.591  18.697  0.1292  0.2103  0.0759
18749W        W74990  25.450  24.430  26.181  0.2617  0.1452  0.1443
18750W        W74991  29.011  17.454  19.819  0.0919  0.5677 -0.0689
18751W        W74992  12.055  30.207  21.788  0.3029  0.1316 -0.0542
18752W        W74993  20.981   1.171  20.348 -0.2091  0.1396  0.3145
18753W        W74994   0.675  35.088   1.218  0.3220 -0.1055  0.0287
18754W        W74995   0.855  14.808  24.296  0.2539 -0.5879  0.1285
18755W        W74996   5.587   2.013  19.339 -0.0657  0.0935  0.0076
18756W        W74997  12.021  29.388  12.078 -0.1497 -0.1744 -0.0742
18757W        W74998  24.915  18.791  12.699  0.0178 -0.0124 -0.0991
18758W        W74999   0.258   8.378   3.735 -0.2723  0.1727 -0.1582
18759W        W75000  11.821  27.410  24.068  0.1159 -0.2801  0.1599
18760W        W75001   7.640  33.584  24.438 -0.2720 -0.0663  0.0953
18761W        W75002  14.909   7.669  22.382  0.2419  0.2342 -0.3010
18762W        W75003  19.524  33.635  24.958 -0.0571 -0.1429 -0.1982
18763W        W75004  16.980  26.607  24.721  0.1003  0.3627  0.1957
18764W        W75005  17.740   3.210   4.825 -0.0963  0.0557  0.0255
18765W        W75006  19.604   5.955   2.022 -0.0577 -0.0714  0.0984
18766W        W75007  14.391  32.365  12.002 -0.1840  0.1607  0.0982
18767W        W75008   3.594  27.955  22.794  0.0719 -0.1379  0.0789
18768W        W75009  17.734  29.569  19.200  0.1995  0.1729 -0.2655
18769W        W75010  25.062   6.368  21.464 -0.1177  0.1329 -0.2501
18770W        W75011   9.084   6.206   6.146 -0.2266 -0.2337 -0.1073
18771W        W75012   3.712  30.625  22.433 -0.0983  0.1177  0.1589
18772W        W75013  16.129  24.767  21.995 -0.1317  0.1807 -0.0465
18773W        W75014  22.270  22.197  18.238 -0.3336 -0.0229 -0.1577
18774W        W75015   1.094  10.328  19.363 -0.0727 -0.1594 -0.2346
18775W        W75016   0.540  20.966  19.540 -0.0221 -0.0096  0.2039
18776W        W75017   0.065   7.753   2.954 -0.3087 -0.0174 -0.2512
18777W        W75018  21.107   2.644  26.233  0.4191 -0.0095 -0.3616
18778W        W75019   9.980  15.501  24.758  0.2039  0.1575 -0.0820
18779W        W75020  27.497  16.576  13.318 -0.0828  0.1549  0.2813
18780W        W75021  21.571   6.297   2.850  0.0522 -0.3192  0.2929
18781W        W75022   5.751  24.208   8.480 -0.1623  0.0264  0.5062
18782W        W75023   1.677  25.898  25.585 -0.1961  0.0630  0.1224
18783W        W75024  16.630  35.321  19.294  0.1973  0.1868  0.1424
18784W        W75025   6.449   8.742  25.994  0.1965  0.0026  0.0634
18785W        W75026  18.687  22.188   0.380 -0.1699  0.1150 -0.1411
18786W        W75027  25.407  26.516  14.660  0.2386 -0.0792 -0.0231
18787W        W75028  18.847  12.091  17.108  0.4131 -0.0983  0.0494
18788W        W75029   1.982  35.277  22.691 -0.0733 -0.2126 -0.3159
18789W        W75030  23.653   1.001   0.129  0.0739 -0.0234 -0.0689
18790W        W75031  12.143  33.520  10.972 -0.0100  0.0719 -0.2851
18791W        W75032  33.418   7.152   3.691  0.0438  0.0254 -0.1286
18792W        W75033  31.148   2.256  13.730  0.0368 -0.0208  0.1740
18793W        W75034  26.338  34.782  18.650  0.1365 -0.1306 -0.0460
18794W        W75035  17.999   1.044   7.861 -0.0783 -0.0050 -0.0744
18795W        W75036  14.223  11.654  24.406  0.1103 -0.2387  0.1857
18796W        W75037  26.833  31.802  15.287  0.0024  0.0476 -0.0287
18797W        W75038  35.135  24.756   2.586  0.0844 -0.0071 -0.1740
18798W        W75039  31.708  33.615   3.195  0.2973  0.2028  0.1150
18799W        W75040  21.292   8.944  22.382  0.0716 -0.1332  0.0762
18800W        W75041  21.153  18.118   3.046 -0.0759 -0.0594  0.0767
18801W        W75042  27.800  14.985  11.116  0.0409 -0.0676 -0.0101
18802W        W75043  18.865   2.454   8.613 -0.1381 -0.1693 -0.2215
18803W        W75044  28.963  35.360   5.450  0.2241 -0.0484 -0.0230
18804W        W75045  29.699  12.182  20.859  0.1924 -0.0446  0.1268
18805W        W75046  18.707  12.808   0.224  0.0739 -0.0339 -0.1737
18806W        W75047  17.856   1.804  25.287 -0.0475  0.1323 -0.1779
18807W        W75048  15.539  21.040  12.808  0.0769  0.0439  0.1860
18808W        W75049   8.111   1.225  12.063  0.0643 -0.0146  0.0344
18809W        W75050   5.907  32.758  21.743  0.0410  0.0676  0.1235
18810W        W75051  29.220  14.842  13.768 -0.2985 -0.2310 -0.2026
18811W        W75052  17.251  23.816   9.692  0.0503 -0.0566  0.0285
18812W        W75053  20.336  14.879   3.314 -0.2272 -0.0780 -0.0290
18813W        W75054  16.880   4.384  12.121 -0.1030  0.3516  0.0873
18814W        W75055  27.049   4.976  19.660 -0.0967  0.1547 -0.0633
18815W        W75056  26.556  26.829  16.461  0.0455 -0.0209 -0.0410
18816W        W75057   2.104  33.975   7.126  0.1185 -0.2482  0.1558
18817W        W75058   2.521   5.882   2.771 -0.1413  0.0488 -0.1598
18818W        W75059  27.793   6.018  14.493  0.0976  0.1370 -0.0071
18819W        W75060  30.234  31.815   4.135  0.0132 -0.0807 -0.4283
18820W        W75061  26.011   8.482  16.450 -0.0946  0.2309  0.1578
18821W        W75062  13.661   1.709  25.831  0.1426 -0.0536 -0.0332
18822W        W75063  13.491  15.890  24.354 -0.1056 -0.1042  0.0597
18823W        W75064  32.701  26.382  17.130  0.2556 -0.1377  0.3890
18824W        W75065  31.702   6.763  12.916  0.1582  0.0249  0.1399
18825W        W75066  34.810  22.899  18.477  0.0857 -0.0426  0.0742
18826W        W75067  12.237  18.197   2.460 -0.2501  0.0932  0.0214
18827W        W75068  22.461  26.851  16.282  0.1241 -0.0540  0.1719
18828W        W75069   6.675  23.388  21.455  0.0340 -0.0034 -0.2701
18829W        W75070  24.359  28.320  20.139  0.1076  0.2204  0.1795
18830W        W75071  31.440  11.906  22.768  0.4379 -0.1517 -0.1321
18831W        W75072   1.053  26.522   5.484  0.0776 -0.1986  0.0209
18832W        W75073  18.568   9.414   6.536  0.4896  0.1068  0.0352
18833W        W75074   0.042  28.022  25.534 -0.0904 -0.1453  0.1333
18834W        W75075   2.212  19.223  14.336 -0.2784 -0.4416 -0.3695
18835W        W75076  18.753  18.072  21.375  0.0309  0.0789  0.1507
18836W        W75077  27.923  20.680  15.423 -0.0177 -0.1510  0.4427
18837W        W75078  29.818  25.179  18.058 -0.0985  0.3710 -0.1685
18838W        W75079  18.284  21.808  11.359  0.0420 -0.0075  0.0459
18839W        W75080   4.905  11.307   7.032  0.2586  0.0811 -0.0876
18840W        W75081  10.209   2.308  20.976 -0.0152 -0.3077 -0.2432
18841W        W75082  13.285  24.102   3.832  0.1338  0.0011 -0.3420
18842W        W75083  27.250   9.388  13.658 -0.1391  0.0298 -0.0928
18843W        W75084  26.405   1.600   5.789 -0.2607  0.4200 -0.1160
18844W        W75085  34.056   2.949   4.928 -0.0215 -0.0824  0.1351
18845W        W75086  24.226  16.837  22.068  0.4393  0.3255  0.2120
18846W        W75087  30.122  29.672  13.444  0.1738 -0.1152  0.2293
18847W        W75088   4.285  28.785  20.684 -0.1445  0.0241  0.2385
18848W        W75089  11.195   6.154  18.912 -0.0605  0.2110  0.3488
18849W        W75090  34.755  13.025  14.689 -0.0246 -0.6252 -0.0093
18850W        W75091  23.207  27.195  16.440  0.1437 -0.0248 -0.0831
18851W        W75092  12.703  14.416   3.979  0.0481  0.1459 -0.1360
18852W        W75093  30.892  12.665   7.047  0.0506 -0.0933 -0.0195
18853W        W75094  11.344  34.915   2.603 -0.3270 -0.2060 -0.0078
18854W        W75095  11.098  21.401  23.275  0.1621 -0.0820  0.0129
18855W        W75096  15.615   8.888   6.877  0.0557  0.1322 -0.2757
18856W        W75097  23.080   2.836  24.037  0.3036 -0.2292 -0.0959
18857W        W75098  25.620  13.491  21.477  0.2170  0.1323 -0.1063
18858W        W75099  13.935  14.035  22.449  0.1796  0.0728 -0.2930
18859W        W75100  31.208  26.962  12.061  0.0161  0.2897 -0.1836
18860W        W75101  13.903  16.065  13.136  0.0357 -0.0903 -0.3267
18861W        W75102  10.781  19.173   0.241  0.0952  0.3489 -0.0884
18862W        W75103  16.761  16.100  20.237  0.0007  0.2167 -0.0568
18863W        W75104  22.242   4.027  16.456  0.0998  0.2191  0.1595
18864W        W75105   0.589  19.973  21.525 -0.0070  0.0887  0.0580
18865W        W75106  35.166   2.660  16.615  0.3225 -0.0654 -0.0956
18866W        W75107  27.458   1.176  21.808  0.0254 -0.0283  0.0023
18867W        W75108  17.344  15.604  23.922 -0.1503  0.2249  0.1521
18868W        W75109  21.702   6.658   3.644 -0.2618  0.0983  0.1490
18869W        W75110   3.423  14.158  23.454 -0.0103 -0.1698 -0.2139
18870W        W75111  30.304  33.209  15.037 -0.1100  0.0493  0.1773
18871W        W75112  26.801  27.126   1.856 -0.3082 -0.2182 -0.0279
18872W        W75113  23.873   3.480  25.200 -0.0211  0.0089 -0.2306
18873W        W75114  18.646  25.609  23.666  0.0153  0.0362  0.1558
18874W        W75115  17.102  12.190   2.702 -0.2247 -0.1866  0.0362
18875W        W75116  20.967  12.303  19.508 -0.1125  0.0264  0.2262
18876W        W75117  14.041   4.700  19.476  0.0947 -0.1457  0.1807
18877W        W75118  13.148  18.875  12.530 -0.0680 -0.2157 -0.0851
18878W        W75119  23.013  24.217  15.996  0.4491 -0.0153 -0.1975
18879W        W75120   2.662   2.580  22.505 -0.2653  0.0644 -0.0328
18880W        W75121  17.988  30.439   7.786  0.1457  0.1184  0.0310
18881W        W75122  12.559  13.557  26.211 -0.1378 -0.1522  0.0205
18882W        W75123   8.354  33.040  15.265  0.0167  0.1152 -0.0731
18883W        W75124   9.026  14.289   4.284  0.0341  0.0414  0.1150
18884W        W75125  33.139  15.501   7.781  0.0315  0.3224 -0.0344
18885W        W75126   4.162  24.223  22.284 -0.1419  0.0819 -0.2033
18886W        W75127  11.704  16.693   3.879 -0.2692 -0.2440  0.1121
18887W        W75128  12.717   1.990  25.325 -0.1373 -0.0640  0.3285
18888W        W75129  24.575  31.569  24.980 -0.1688 -0.2316  0.0964
18889W        W75130  27.776  17.357  10.287  0.3125  0.0291  0.0709
18890W        W75131  24.567  27.390  16.311  0.0333 -0.1416 -0.1192
18891W        W75132   8.191  15.163   7.891 -0.4278  0.0877 -0.0136
18892W        W75133  12.047  31.706   8.159  0.0581 -0.0692 -0.0019
18893W        W75134  20.344  34.906   7.919  0.0595  0.1449  0.0321
18894W        W75135  20.023  32.482   8.431 -0.0393  0.1042  0.4250
18895W        W75136  35.020  18.553  11.360 -0.2967 -0.1978 -0.2299
18896W        W75137  18.064  19.545  20.524 -0.0893 -0.0684 -0.0355
18897W        W75138  22.649  31.827   4.156 -0.0189  0.1428  0.2344
18898W        W75139  13.532  24.965  16.177  0.0125 -0.1945 -0.4268
18899W        W75140  16.191  15.722   5.841  0.0085 -0.0732  0.2007
18900W        W75141  30.346  26.868  23.693  0.0558  0.1589  0.3294
18901W        W75142  30.919  19.976  13.659  0.1906  0.1019  0.0834
18902W        W75143  27.478   8.993  13.899  0.1039  0.0839  0.2354
18903W        W75144  20.887   8.091   3.581 -0.0276  0.2715 -0.5453
18904W        W75145  23.770   6.660  22.114 -0.1091 -0.1408 -0.1594
18905W        W75146  30.998  19.692   5.336 -0.1057 -0.1126  0.0631
18906W        W75147  23.028  30.740   1.346 -0.0625  0.1942 -0.1160
18907W        W75148   4.635  27.918   5.423 -0.0086 -0.2543 -0.2646
18908W        W75149   2.875  18.850  23.263 -0.2351  0.2327 -0.1550
18909W        W75150   3.287  12.850  14.900  0.0134 -0.5286 -0.0759
18910W        W75151  27.719   9.950  26.032  0.0079 -0.0256  0.0526
18911W        W75152  19.158  30.343   5.807  0.1655 -0.2989  0.0286
18912W        W75153  14.556  22.333   1.365  0.2909 -0.2430 -0.2012
18913W        W75154   3.475  28.684   6.262 -0.3029  0.1454  0.3030
18914W        W75155  11.412  23.481   2.715  0.0130 -0.1759 -0.2862
18915W        W75156  14.837  22.567   6.764 -0.0914 -0.0850  0.0573
18916W        W75157  29.326  17.747  12.159  0.0359 -0.1392 -0.2080
18917W        W75158  30.008  25.234  24.850 -0.0692  0.1092 -0.0995
18918W        W75159   8.908  19.317   1.907 -0.2816  0.1846 -0.2785
18919W        W75160  33.439  13.949  15.340  0.1439 -0.3127 -0.0939
18920W        W75161  18.865  31.109  18.778 -0.0100  0.2561  0.0859
18921W        W75162  18.677  33.520   8.081  0.0893 -0.3134  0.0420
18922W        W75163  30.070  20.150  13.105 -0.4901  0.1811 -0.1457
18923W        W75164  23.884  35.160  20.121  0.0529  0.4325 -0.1810
18924W        W75165  32.944  29.588  13.504  0.0323 -0.2471  0.1326
18925W        W75166  22.075   3.818   3.079 -0.0375  0.4253 -0.0847
18926W        W75167  13.396  15.914   9.143  0.1239 -0.0591 -0.0830
18927W        W75168  19.172  21.418   8.912  0.4764 -0.2694  0.0038
18928W        W75169   5.044  31.902  12.118 -0.1254  0.1362  0.1067
18929W        W75170  11.190  29.590   8.257 -0.0650  0.0713 -0.0575
18930W        W75171  24.875  16.993  13.282 -0.0362  0.0874 -0.2171
18931W        W75172  33.569  20.420  23.510  0.0764  0.1400 -0.1053
18932W        W75173  16.567   7.546   2.242  0.2165  0.1156  0.3190
18933W        W75174   7.762  26.194   4.820  0.0187  0.1069 -0.3456
18934W        W75175  33.436  32.752  16.165 -0.0615 -0.2350 -0.3620
18935W        W75176  25.204  25.454  20.310 -0.1522 -0.0976 -0.3443
18936W        W75177  15.867  28.167   4.530 -0.0308 -0.0092 -0.3012
18937W        W75178   5.365   6.668  19.000 -0.0212  0.2122  0.2431
18938W        W75179   9.785  26.283  21.990 -0.1143  0.0415  0.4457
18939W        W75180  27.957   9.294  18.878  0.3119  0.1953 -0.0247
18940W        W75181   5.589   5.517  20.215 -0.1907 -0.3996  0.0194
18941W        W75182  10.352   5.328   1.634  0.3583 -0.2853 -0.2279
18942W        W75183   4.739  21.170   2.323  0.1413 -0.2486 -0.1572
18943W        W75184   4.416   3.802  21.716  0.0962  0.2731 -0.0683
18944W        W75185  10.695  34.065   6.665  0.1849  0.2895  0.0343
18945W        W75186  10.520  15.961   2.200 -0.0365  0.1850 -0.3635
18946W        W75187  12.892  32.903  25.933  0.2034  0.0328 -0.1784
18947W        W75188   8.641  15.971  11.021 -0.1348 -0.3216 -0.2760
18948W        W75189  17.704  13.413  10.249  0.3439  0.1677 -0.1950
18949W        W75190   5.689  23.372   7.860  0.1403  0.0841 -0.2802
18950W        W75191  23.162  13.008  14.710  0.0465 -0.0157  0.2858
18951W        W75192   7.535  23.745  12.609 -0.1072  0.0208 -0.2160
18952W        W75193  21.257  26.660   7.730 -0.1403  0.1346  0.0275
18953W        W75194  22.862  24.506  24.942 -0.0095  0.3069 -0.0675
18954W        W75195  19.483  17.170  22.833  0.0694 -0.5634 -0.0591
18955W        W75196  22.646  19.886  18.271  0.0054 -0.0526 -0.0338
18956W        W75197  28.485   2.358  13.527  0.0063 -0.4206 -0.4134
18957W        W75198   0.805  27.627  21.940 -0.3450 -0.1810 -0.0829
18958W        W75199  12.791  16.337  20.727  0.2081  0.1734 -0.3316
18959W        W75200  19.862  15.271  18.943  0.0103 -0.2089 -0.0546
18960W        W75201  21.010  17.123   0.820 -0.0221  0.1371  0.4889
18961W        W75202   3.269  31.230   6.960  0.1061 -0.3765  0.0457
18962W        W75203   1.358  12.120  18.284  0.2252 -0.0220 -0.0655
18963W        W75204  31.434   9.821  14.702 -0.1766  0.4188 -0.1803
18964W        W75205  25.077  32.397  22.607 -0.1637  0.0847  0.0054
18965W        W75206   6.424   2.384   9.130  0.1167 -0.0764  0.1341
18966W        W75207  33.385   9.995   9.550 -0.0242  0.0598 -0.2234
18967W        W75208  30.006  14.873   7.263  0.0617  0.1839 -0.0344
18968W        W75209  16.359  28.215   4.378  0.4398  0.4783  0.0418
18969W        W75210   0.974  27.836   1.222 -0.2192  0.0503 -0.0767
18970W        W75211  14.338  18.814   1.169 -0.0108  0.0998 -0.1397
18971W        W75212  12.861   5.552  22.451 -0.0754 -0.0418 -0.0401
18972W        W75213   4.764  16.251  19.939 -0.2343  0.1829 -0.2056
18973W        W75214  31.010   1.230  22.677 -0.1582 -0.1223 -0.0126
18974W        W75215   9.477  30.506  14.634 -0.0443  0.3578  0.2370
18975W        W75216  14.274  20.227   4.929  0.0142  0.2821  0.0003
18976W        W75217  14.291  22.181   6.305 -0.0445 -0.0739  0.0523
18977W        W75218  32.574   2.673   6.040  0.1711  0.1706  0.3097
18978W        W75219   2.574  33.792  21.859  0.0924  0.0535  0.0538
18979W        W75220  14.272   0.471  22.360 -0.4054 -0.0391 -0.1181
18980W        W75221  18.082  33.524   6.774 -0.0645  0.0294 -0.0062
18981W        W75222  26.549   5.081  21.884  0.0427 -0.3067  0.0554
18982W        W75223  18.342  28.324   7.707 -0.2492  0.0555  0.3578
18983W        W75224  25.080  12.461  14.751 -0.2123 -0.0977  0.1488
18984W        W75225  10.625  28.486  24.800  0.2529 -0.0522 -0.2617
18985W        W75226   2.873  10.935  21.793  0.1844 -0.0073 -0.2185
18986W        W75227  21.663  20.955   3.551  0.1225 -0.0939  0.0078
18987W        W75228  14.265  17.635   8.585 -0.0829  0.3811  0.0641
18988W        W75229  31.761  31.297  22.857 -0.0087  0.0492  0.3096
18989W        W75230  29.412  13.657  17.859 -0.2281 -0.1154  0.1676
18990W        W75231   1.131  34.753  26.184  0.1399 -0.2933  0.1949
18991W        W75232  21.721   4.280   5.958  0.1728 -0.1054 -0.0521
18992W        W75233  22.388   5.814  23.475  0.1363 -0.2098 -0.0753
18993W        W75234  19.189   2.171  19.707 -0.0483  0.2728  0.1907
18994W        W75235  25.029  32.131  19.312  0.1515 -0.2193  0.2719
18995W        W75236  10.048  21.552  14.388 -0.1520  0.4345  0.3514
18996W        W75237  25.632  12.780  15.102  0.3649 -0.0213 -0.1299
18997W        W75238   3.946  32.526   8.611 -0.2061  0.2698 -0.0649
18998W        W75239  14.108  15.708   1.865  0.0421 -0.0903 -0.2218
18999W        W75240  24.670  24.467   4.006 -0.4556  0.2875  0.0671
19000W        W75241  28.501  18.777  20.850  0.0897 -0.0542 -0.2606
19001W        W75242  25.191  17.818  25.956 -0.2373  0.2038 -0.2335
19002W        W75243  21.464  30.274  25.358 -0.0510 -0.1151  0.1143
19003W        W75244  20.595  20.917  18.217 -0.0590 -0.1040 -0.1336
19004W        W75245  30.546   7.643  20.925 -0.2932 -0.1332 -0.3536
19005W        W75246  29.070  16.208  20.409  0.0435  0.2228 -0.3991
19006W        W75247  11.459   2.605   5.079 -0.2234  0.1691  0.2525
19007W        W75248  14.192  19.276  12.263  0.0761 -0.0022  0.0461
19008W        W75249  15.305  32.011   4.195 -0.0014 -0.0275  0.0380
19009W        W75250  24.658  15.271  14.839  0.1964  0.0129 -0.1149
19010W        W75251  18.205   9.470   3.046 -0.2221  0.4038  0.2647
19011W        W75252  15.372   0.515   8.198  0.0706  0.1514  0.1445
19012W        W75253   4.925   5.175   0.447 -0.0407 -0.1573 -0.0448
19013W        W75254   2.048  17.411  15.598 -0.2345  0.1834 -0.0966
19014W        W75255  29.565  31.395  13.747 -0.2976 -0.1360  0.0953
19015W        W75256  15.678   9.599   7.699  0.1515 -0.0498 -0.1341
19016W        W75257   1.513   3.725  20.967 -0.1799 -0.2063 -0.0883
19017W        W75258  13.981   4.180   0.440 -0.0840 -0.2159  0.3083
19018W        W75259  22.449   9.918  17.008 -0.0599  0.1870  0.2251
19019W        W75260  18.371   9.593  10.249 -0.0772  0.0375  0.0369
19020W        W75261   5.063  25.052   2.211 -0.0603  0.1765 -0.1513
19021W        W75262  22.502  30.659  19.293 -0.0183 -0.2088 -0.0102
19022W        W75263   4.372   0.703  12.037 -0.1387 -0.0429 -0.0345
19023W        W75264  23.504  26.975   0.915  0.3619 -0.0830  0.0115
19024W        W75265  19.257  16.066  18.490  0.1165 -0.1689  0.2747
19025W        W75266  16.997   7.621   9.937  0.0295  0.2602  0.3000
19026W        W75267  24.868  14.344  14.633  0.0566 -0.0394  0.0870
19027W        W75268  15.865   5.310  20.702  0.1034  0.4504  0.0634
19028W        W75269  34.047  33.074  23.820 -0.2038  0.0342 -0.0006
19029W        W75270   9.696  17.985   8.124  0.1498  0.0242  0.0008
19030W        W75271  19.177  19.964  22.178 -0.2557  0.1958 -0.4991
19031W        W75272  25.070  11.258  22.047 -0.1208  0.0660  0.3985
19032W        W75273  15.848   9.206   0.491  0.0070 -0.0415  0.3227
19033W        W75274   1.016   5.024  16.506  0.3148  0.1014  0.1538
19034W        W75275  26.016  10.714   9.175 -0.0942  0.2715 -0.2796
19035W        W75276   3.940  33.336  18.166  0.1167  0.0601  0.0709
19036W        W75277  13.730  17.352   5.260 -0.2833  0.1893 -0.1747
19037W        W75278   0.520  11.543  22.653  0.2241  0.0896  0.0270
19038W        W75279   8.357  14.980   1.410 -0.1752  0.0873  0.1180
19039W        W75280  35.136  23.608  17.281 -0.1779  0.2688 -0.1610
19040W        W75281  31.979  13.673  21.514  0.3270  0.2284  0.1007
19041W        W75282  13.603  15.748  12.032  0.0163 -0.0533 -0.2407
19042W        W75283  31.239  14.926   0.354 -0.0218  0.0750  0.1414
19043W        W75284  22.450   5.619   8.032  0.2827 -0.3407  0.4326
19044W        W75285  27.767  23.275  16.149  0.1088  0.1847 -0.0736
19045W        W75286  16.023  34.358  25.951  0.2560 -0.3244 -0.0824
19046W        W75287   7.364   0.627   8.985 -0.2100  0.1854 -0.0303
19047W        W75288  26.619  19.978  19.861 -0.1591 -0.1708 -0.0030
19048W        W75289  34.989   9.086  15.488 -0.0280 -0.1432 -0.1244
19049W        W75290  24.855   4.819  23.313  0.0985 -0.1152  0.0598
19050W        W75291  21.615  30.677  25.611 -0.2639  0.1368 -0.0568
19051W        W75292  16.778  13.940  13.594  0.2657 -0.0669 -0.3283
19052W        W75293   1.735   9.329  25.573 -0.1926 -0.3426 -0.1096
19053W        W75294  19.705  22.302  20.897 -0.1119  0.0424  0.0639
19054W        W75295  30.436   7.520   0.247  0.0254 -0.0144 -0.3080
19055W        W75296  23.329  30.335   1.352  0.1702  0.1319  0.1032
19056W        W75297  34.311  17.740  15.264  0.2716 -0.0654 -0.1494
19057W        W75298  24.362  27.683   1.298 -0.1860  0.1591  0.3771
19058W        W75299   5.719   6.543  17.443 -0.2455 -0.3019  0.3157
19059W        W75300  28.596   9.036  25.903  0.4324 -0.0305 -0.0291
19060W        W75301  19.320  11.865  22.466 -0.0825 -0.1988 -0.2601
19061W        W75302  25.287  34.496  21.686  0.2124 -0.1468 -0.4153
19062W        W75303  23.473   7.175  19.198  0.0980  0.4711  0.1308
19063W        W75304  35.217  29.260  19.408 -0.0389 -0.0983 -0.1851
19064W        W75305   2.172   5.284   3.463  0.1440 -0.0792 -0.2163
19065W        W75306   8.605   0.811   4.329  0.2640  0.2347  0.0864
19066W        W75307   6.765   9.769   4.432 -0.2304  0.3852 -0.0643
19067W        W75308  13.442  20.755   0.020 -0.0866 -0.0535  0.2456
19068W        W75309  11.158   4.401  24.057 -0.4051  0.1754  0.0822
19069W        W75310  19.817  10.744   5.462  0.2385  0.0747 -0.0627
19070W        W75311   2.902   6.830  25.318 -0.1901 -0.1182 -0.2003
19071W        W75312  10.690  22.202   8.549 -0.0033  0.4913  0.3128
19072W        W75313  10.387  12.878  22.359  0.2570 -0.2707  0.0163
19073W        W75314  22.025  26.247  15.694 -0.1375  0.0230  0.0977
19074W        W75315  34.804  13.973  22.860 -0.2879  0.1413 -0.1357
19075W        W75316   2.472  30.461   8.755  0.0949  0.1202  0.0602
19076W        W75317  12.128  26.332  17.121  0.4049 -0.1954 -0.1666
19077W        W75318  22.250  16.006  26.168 -0.1406  0.0071 -0.2600
19078W        W75319  18.666  15.527  25.993  0.1210  0.5557  0.2789
19079W        W75320  28.006   8.941  13.205  0.1145  0.3331 -0.2572
19080W        W75321  33.127   4.960  21.636  0.0123  0.0367  0.1564
19081W        W75322   8.077  24.219  15.106 -0.1385 -0.5150  0.0599
19082W        W75323  21.116  34.363   3.587 -0.1013 -0.2593 -0.2898
19083W        W75324  21.622  29.107  13.992 -0.0925 -0.0450  0.0723
19084W        W75325  21.538  29.532   5.826  0.0005  0.1762  0.3521
19085W        W75326  31.387  26.894  21.914  0.1085  0.0159  0.1858
19086W        W75327   4.043  20.578   1.420 -0.2273 -0.3107  0.0452
19087W        W75328  23.376  25.929  19.563  0.0008 -0.0854  0.1587
19088W        W75329  17.227   4.033  12.246 -0.1889 -0.0710  0.0479
19089W        W75330  10.962  22.460   8.902  0.0026 -0.0924  0.0600
19090W        W75331  11.543  14.597  10.247 -0.0309 -0.0499 -0.3403
19091W        W75332  14.014  30.097   2.862 -0.3827 -0.0591  0.3178
19092W        W75333  15.561  29.333   6.388  0.0740 -0.2269  0.1890
19093W        W75334  32.005  29.544  11.969 -0.2083  0.0424  0.1349
19094W        W75335   8.454  24.731   8.167  0.0627 -0.3929  0.2394
19095W        W75336  10.617   8.291  10.879  0.0597 -0.0817  0.1789
19096W        W75337  34.346  22.718  12.925 -0.3444  0.1379 -0.1614
19097W        W75338  16.430  10.991  25.373  0.2068  0.1717  0.1693
19098W        W75339  19.303  19.179   2.010 -0.0589 -0.1365  0.1312
19099W        W75340  29.307  11.804  17.321 -0.1253  0.0988 -0.2104
19100W        W75341  27.525   5.941  21.841 -0.2945 -0.0119 -0.0164
19101W        W75342  26.568  26.491  11.683 -0.0218  0.0321  0.1833
19102W        W75343  10.481   6.759   6.482 -0.0957 -0.2069  0.2208
19103W        W75344  25.761  17.131  26.017 -0.1399  0.0289 -0.4914
19104W        W75345  21.933  31.104   0.172  0.1908  0.0568  0.0094
19105W        W75346   6.467  15.486  21.740  0.0334 -0.5477  0.0203
19106W        W75347  20.312   7.089  21.182  0.1319 -0.0191 -0.0967
19107W        W75348  21.718  16.605   1.668 -0.0013  0.0746 -0.0017
19108W        W75349  24.927  29.005  22.613  0.2502  0.2411 -0.1020
19109W        W75350  29.017   1.211  11.004 -0.1893 -0.3688 -0.3219
19110W        W75351  18.473   9.329   8.156  0.1319 -0.1273 -0.1871
19111W        W75352  15.281  32.090  10.518  0.1246 -0.0198  0.1010
19112W        W75353   0.761   4.721  24.040 -0.2242  0.1979 -0.0549
19113W        W75354  12.639   1.654   3.458 -0.0594 -0.1652  0.2742
19114W        W75355  10.859  31.919   9.939 -0.1974 -0.4404 -0.3034
19115W        W75356  12.988   2.040   0.078  0.0250  0.0481  0.1179
19116W        W75357   3.946  30.238   7.913  0.0470 -0.0527  0.1287
19117W        W75358   2.474  18.032  25.445  0.0625 -0.0044  0.0104
19118W        W75359  34.639  26.563  21.083 -0.1937  0.0504  0.2770
19119W        W75360  35.214  20.046  19.967  0.2350  0.2984  0.0635
19120W        W75361  30.081  15.981  16.577  0.3025  0.0718  0.3897
19121W        W75362  17.049  22.626   5.901 -0.1055  0.0058 -0.1062
19122W        W75363  20.287   6.696   5.543 -0.0101 -0.1752  0.1035
19123W        W75364  22.351   2.375   4.025  0.3366 -0.3862 -0.0788
19124W        W75365   3.963  22.493   4.384  0.2553 -0.1198  0.0260
19125W        W75366   0.223  21.009  14.235  0.0665 -0.2423 -0.1166
19126W        W75367  32.788  28.790  26.193 -0.1080  0.1312 -0.2090
19127W        W75368  35.141  16.188  11.431  0.2726 -0.0509 -0.2026
19128W        W75369  24.591   7.432   4.193 -0.0467 -0.2393  0.3308
19129W        W75370  30.050   7.523  14.252 -0.0284 -0.0484 -0.1023
19130W        W75371  12.957   2.792   2.272 -0.1615  0.3678 -0.0237
19131W        W75372  22.915  20.445  21.512  0.2153  0.0419  0.0371
19132W        W75373   9.761   8.646   6.692 -0.0904  0.1133  0.1974
19133W        W75374  24.893   0.671   1.573 -0.0926 -0.3216 -0.1727
19134W        W75375  28.382  18.094  25.917 -0.0341 -0.0682  0.0841
19135W        W75376   6.351  24.557   3.266 -0.0316 -0.2326  0.2823
19136W        W75377  26.669  19.747   8.489  0.0149  0.0408  0.2862
19137W        W75378   0.015  10.365  13.759  0.0317  0.0243 -0.2198
19138W        W75379  10.408  25.011  15.959 -0.0876 -0.1772  0.2316
19139W        W75380  12.138  18.351  14.101 -0.0562  0.3900 -0.1416
19140W        W75381  10.003  29.057   1.200  0.1790 -0.2482  0.1078
19141W        W75382  24.107  22.504  22.970 -0.2533  0.0080 -0.0010
19142W        W75383  19.370  21.451   7.458 -0.2462  0.1906 -0.0120
19143W        W75384  29.092   7.914  24.674 -0.3872 -0.1543  0.0313
19144W        W75385  18.963   8.258  21.366  0.0896  0.1061  0.1617
19145W        W75386   1.270  30.292   8.346 -0.0372  0.0015  0.0955
19146W        W75387   1.905   9.569   3.995  0.1341  0.0191 -0.1431
19147W        W75388  32.026  18.579  10.833 -0.0892  0.1193  0.0216
19148W        W75389  11.022  15.880  11.265  0.1409 -0.0509 -0.0918
19149W        W75390   8.940  22.752  16.080 -0.2981 -0.1567  0.2691
19150W        W75391  27.662   8.448  25.640  0.0349  0.2942  0.0656
19151W        W75392  12.544  14.547  10.436 -0.0665 -0.3398  0.3112
19152W        W75393  30.989  17.947  14.389  0.1740  0.2249 -0.0858
19153W        W75394   7.123   3.384   2.507 -0.1168  0.1052 -0.0238
19154W        W75395  27.150  15.947  10.844  0.1796 -0.1983 -0.3006
19155W        W75396  26.488  11.587  10.690 -0.0427 -0.0306  0.4279
19156W        W75397  32.255  10.343  25.048  0.0290 -0.1649 -0.0360
19157W        W75398  33.233  18.246  18.967  0.0869 -0.1990  0.1228
19158W        W75399  18.638  23.888  22.030 -0.2456 -0.1607  0.0374
19159W        W75400  16.056  20.693  13.565 -0.0453  0.2798  0.0250
19160W        W75401  33.664  13.493  17.211 -0.0179 -0.1062  0.2038
19161W        W75402  17.579   8.181  19.464 -0.1931  0.1203  0.1500
19162W        W75403   8.281  10.598   8.638  0.2447 -0.3522 -0.1664
19163W        W75404  31.914  16.759  12.627  0.0982 -0.0082 -0.2691
19164W        W75405  26.842  25.446  15.623  0.0548 -0.0181 -0.0750
19165W        W75406   9.843   1.131  20.277 -0.1707 -0.3617 -0.0375
19166W        W75407  24.771  21.507  25.167 -0.1672 -0.1942 -0.3485
19167W        W75408   0.045  11.768   1.203 -0.2405 -0.2224  0.4090
19168W        W75409  16.953  27.258   1.727  0.1160 -0.4518  0.0385
19169W        W75410  10.737   6.953  10.140  0.1666 -0.0119  0.0592
19170W        W75411  30.777  14.589   7.548  0.2211  0.0226  0.1761
19171W        W75412  13.271  31.080  23.099  0.0948 -0.0456  0.1655
19172W        W75413   0.211   6.014  18.398  0.1792  0.0635  0.0690
19173W        W75414  12.640  24.257   5.738  0.0790 -0.3048 -0.0487
19174W        W75415  17.563  29.240   3.746 -0.1596 -0.1483 -0.0004
19175W        W75416  19.232   2.316  18.900  0.3688 -0.1549 -0.1260
19176W        W75417  24.507  21.491  24.009  0.1609  0.0228 -0.2239
19177W        W75418  22.342  17.399  15.022  0.0597 -0.2877 -0.1792
19178W        W75419  33.673  20.033  21.935  0.3622 -0.5418  0.4301
19179W        W75420   0.481  32.471  19.600  0.1126 -0.1545  0.0780
19180W        W75421  10.236  14.955  24.215 -0.3828  0.0743 -0.2027
19181W        W75422  26.860  27.242  10.842  0.0840 -0.1100 -0.1340
19182W        W75423  22.750  18.878  22.604 -0.1153 -0.4012 -0.3259
19183W        W75424  27.555   4.376  17.213  0.1360  0.1843  0.2893
19184W        W75425  23.658  16.923  24.327 -0.1199 -0.1451 -0.1519
19185W        W75426  33.362   7.727  16.266  0.0093 -0.0015  0.0805
19186W        W75427  17.987   5.545  21.338  0.0572 -0.1883 -0.3265
19187W        W75428  29.804  10.570   8.743  0.1935  0.0866 -0.2254
19188W        W75429  10.619  29.170   3.128 -0.1926  0.1143 -0.1795
19189W        W75430   4.748  17.478   4.021 -0.1728  0.2646 -0.3509
19190W        W75431  20.731   2.279  20.297 -0.0392 -0.1897  0.2688
19191W        W75432   9.162  15.871   8.090  0.0141  0.0647 -0.0504
19192W        W75433  25.757   1.411  23.665  0.0942 -0.0871 -0.1627
19193W        W75434  18.573  32.987  22.701  0.2517 -0.0919 -0.0450
19194W        W75435  14.800   3.883   9.265 -0.0254  0.1109  0.0114
19195W        W75436  29.185  13.820  14.801 -0.0405  0.2354  0.1039
19196W        W75437   1.980  18.110  17.266  0.0604  0.2194 -0.1898
19197W        W75438  23.932   5.594   2.140 -0.0391 -0.1663 -0.1592
19198W        W75439   9.548  14.214  25.118  0.0417  0.0723  0.0033
19199W        W75440   4.730   2.166   9.648 -0.1048 -0.0689  0.0517
19200W        W75441   6.890  33.748  11.170 -0.4149 -0.1716 -0.4574
19201W        W75442  27.581  19.933   9.382 -0.2060 -0.3220  0.1960
19202W        W75443  30.513  18.386  16.182 -0.1218 -0.2216 -0.1050
19203W        W75444  14.233  26.277  16.001  0.1078  0.3060  0.3168
19204W        W75445  19.043   8.452   3.962  0.0031 -0.1549 -0.5914
19205W        W75446   0.956  20.254  10.481 -0.0454  0.0985 -0.1743
19206W        W75447  16.183   8.716   2.777 -0.0968 -0.1189  0.1561
19207W        W75448  21.951   3.013   3.347 -0.2581 -0.0909 -0.0472
19208W        W75449   8.725   1.943  19.583  0.0632  0.1914  0.0633
19209W        W75450  28.375  32.554  25.057 -0.3141 -0.0316 -0.1045
19210W        W75451   0.523  33.854   4.314 -0.3902 -0.0675  0.1544
19211W        W75452   0.692   9.848  11.212  0.1280 -0.0726  0.2431
19212W        W75453  34.673  21.520  17.105 -0.2172  0.1467 -0.0548
19213W        W75454   1.982   4.453   3.086 -0.4147  0.0494  0.1536
19214W        W75455  16.824  35.084  25.688 -0.0134  0.0937 -0.4366
19215W        W75456   9.959   5.043   9.784 -0.2878  0.1113  0.1437
19216W        W75457  34.056  15.928  16.025  0.0069  0.0334  0.3520
19217W        W75458  16.749   0.417  21.503 -0.2141 -0.0753  0.2042
19218W        W75459   6.449  15.807  22.207 -0.0236  0.0394 -0.2135
19219W        W75460  15.806   9.132  12.311 -0.1169 -0.2191 -0.0809
19220W        W75461  14.518  31.721   3.507  0.0364  0.1777  0.0201
19221W        W75462  34.162  12.059   0.805 -0.2458  0.1361  0.2164
19222W        W75463  26.601  12.662  23.917  0.3389 -0.2409 -0.1604
19223W        W75464  31.930   8.043   1.723  0.6246  0.2724  0.0282
19224W        W75465  29.875  29.369   4.477  0.0683  0.0030  0.0586
19225W        W75466   5.585   3.944  19.171  0.2617  0.0803 -0.0050
19226W        W75467  14.571  35.279  21.641 -0.1129  0.0806 -0.1486
19227W        W75468  24.859  33.705   4.846  0.2929  0.1316  0.0944
19228W        W75469   7.638  20.621  10.716  0.0521 -0.2368 -0.1216
19229W        W75470  21.777   2.697   3.864  0.2195  0.0843 -0.3272
19230W        W75471  22.201  11.655  20.783  0.1645  0.1036  0.1975
19231W        W75472   4.747  31.742   1.119 -0.1583  0.3336 -0.1641
19232W        W75473   6.766  17.234  10.217 -0.0958  0.2683 -0.1873
19233W        W75474  17.807   3.879   3.572 -0.3362  0.2554  0.0548
19234W        W75475  12.097   2.837  13.982 -0.4186  0.0970  0.1712
19235W        W75476  28.921  17.291   7.345  0.0106 -0.0466  0.1781
19236W        W75477  19.273   3.763  19.021  0.0272 -0.0517 -0.2637
19237W        W75478   0.203   6.533  15.050 -0.2652 -0.2462  0.0307
19238W        W75479  32.397  10.635  10.105  0.0878  0.0670  0.3440
19239W        W75480   7.635  13.426   0.955 -0.1395  0.2155  0.0925
19240W        W75481  15.324   1.004  22.539  0.2543 -0.0687 -0.2860
19241W        W75482  22.028  30.207  26.004  0.1351  0.0290 -0.0494
19242W        W75483   9.927   2.097  23.739 -0.2563  0.0242  0.2126
19243W        W75484  17.897  18.879  20.057  0.0578 -0.0462  0.0800
19244W        W75485   3.792  19.845  24.740 -0.0207 -0.0561 -0.3253
19245W        W75486  24.292   2.622   6.179 -0.0197 -0.3147 -0.0103
19246W        W75487  21.500   9.316  17.071 -0.0052 -0.0806 -0.1015
19247W        W75488  20.363  33.381  22.147  0.0750 -0.1089 -0.3119
19248W        W75489   2.339  19.582  14.801  0.2387  0.1805 -0.1715
19249W        W75490  17.785  17.232  10.858 -0.1392 -0.1031  0.1047
19250W        W75491  16.008  25.123   6.095  0.0694  0.1214 -0.1457
19251W        W75492  23.860  27.296  24.647  0.3300 -0.0204  0.1600
19252W        W75493  32.591   9.003  23.341 -0.1648 -0.1567 -0.3662
19253W        W75494  29.212  20.934  23.495  0.0152 -0.0382  0.0985
19254W        W75495  10.408  31.853   3.244 -0.2003 -0.0847  0.0543
19255W        W75496  27.629  34.056  20.614 -0.2310 -0.0940 -0.3608
19256W        W75497  30.965   2.284   3.024  0.1901  0.0605  0.0881
19257W        W75498  20.822   8.953  17.716 -0.2853 -0.0641 -0.0569
19258W        W75499  13.304  10.256   2.071 -0.0301 -0.1937 -0.2164
19259W        W75500  12.349  31.206   8.175 -0.0745 -0.0666  0.1069
19260W        W75501  27.673  24.923  18.328 -0.2405 -0.1493 -0.1035
19261W        W75502  10.540  22.359  15.600  0.3005 -0.1214  0.1780
19262W        W75503  34.362  25.460   1.009  0.1342 -0.2501 -0.1628
19263W        W75504  11.081   5.147  20.504  0.2186 -0.4116 -0.0006
19264W        W75505   0.755   9.021  14.655  0.0704  0.1177  0.0927
19265W        W75506   5.390   0.615  19.989  0.2395  0.0868  0.0298
19266W        W75507  23.110  11.434   1.012 -0.1602  0.3207 -0.0586
19267W        W75508  24.045   5.612  21.770 -0.0075 -0.2386  0.1279
19268W        W75509  34.431  34.652  21.857 -0.0915 -0.2653  0.2430
19269W        W75510  24.886  17.657  22.659 -0.0919  0.0667 -0.1462
19270W        W75511  34.332  34.037   2.629 -0.0151  0.0244 -0.1782
19271W        W75512  30.589  35.074   5.959 -0.4026 -0.3641  0.1419
19272W        W75513  26.308   9.268  23.273  0.1485  0.3408 -0.0786
19273W        W75514  33.395  24.517  18.192  0.2019  0.0104 -0.0405
19274W        W75515  29.903  10.757  20.155  0.1541  0.0157 -0.0442
19275W        W75516  31.056  31.070  20.697  0.2743 -0.0480  0.2139
19276W        W75517  31.784   0.502  14.707  0.0286  0.0963 -0.0369
19277W        W75518  27.859   6.419  22.982  0.0335 -0.1292 -0.0421
19278W        W75519  27.928  21.140   6.607 -0.1136 -0.4277  0.0960
19279W        W75520  13.100  23.654   3.821  0.2351 -0.2931  0.3677
19280W        W75521   9.891   1.473   7.767 -0.4214 -0.3716  0.0932
19281W        W75522  10.535  32.738  13.866 -0.0253  0.1543 -0.0495
19282W        W75523  15.521   4.605   0.035 -0.0058  0.1458  0.3079
19283W        W75524  33.146   3.633  25.185 -0.3631  0.2178  0.2385
19284W        W75525  28.931  12.979   8.617  0.1486  0.0334 -0.0166
19285W        W75526  25.223  29.888  21.232  0.1656  0.0347 -0.2144
19286W        W75527  29.446  27.840  17.323  0.1252  0.0940 -0.0064
19287W        W75528  34.929   7.156   3.987 -0.1513 -0.3905 -0.0893
19288W        W75529   6.980  11.408  10.706 -0.1103  0.1280  0.1667
19289W        W75530  12.119   4.385  22.046 -0.2615  0.0755 -0.2788
19290W        W75531   9.222  27.359   2.564  0.1496  0.0818  0.1345
19291W        W75532  27.606  16.533  21.110  0.1009  0.1878 -0.0493
19292W        W75533  25.717   9.909  11.328  0.2150 -0.0140 -0.1149
19293W        W75534  24.007  26.404  20.903 -0.2482  0.1521  0.0562
19294W        W75535  13.701  23.346  16.655 -0.1088  0.2371 -0.0586
19295W        W75536  27.913   2.149  15.433  0.3520  0.1379  0.2474
19296W        W75537  13.841  33.036   2.470  0.0047 -0.0061 -0.1046
19297W        W75538  33.630   9.094   9.436  0.2046  0.0535 -0.1100
19298W        W75539  13.706  25.671   2.597  0.2032  0.1951  0.3768
19299W        W75540   0.699  21.626  16.102 -0.1382  0.0072  0.0527
19300W        W75541  19.760  19.468   3.987  0.1574 -0.0157 -0.3924
19301W        W75542  27.362  17.684  10.302  0.7045 -0.0264  0.0488
19302W        W75543   3.096  33.373   2.777  0.2523 -0.2129 -0.1905
19303W        W75544   4.653   4.767   1.545  0.2186 -0.0588  0.2629
19304W        W75545  16.681  11.856   4.760  0.0246 -0.1271 -0.0352
19305W        W75546  25.477  15.424  10.493  0.0885 -0.0575 -0.1170
19306W        W75547  11.862  16.844  21.669 -0.1677  0.3447 -0.3162
19307W        W75548  16.754  10.890  24.551 -0.0618  0.3140 -0.0256
19308W        W75549  32.659   0.772   0.146  0.0346  0.0391 -0.2322
19309W        W75550  29.155  25.636  24.576 -0.0316 -0.1708 -0.0349
19310W        W75551   4.856  24.634  23.419  0.1416  0.1226  0.0973
19311W        W75552  26.815  28.609  19.449  0.0963 -0.1070 -0.0325
19312W        W75553   6.335   8.608  21.731 -0.0028 -0.0877  0.1605
19313W        W75554   6.669  30.775  14.914  0.1536 -0.2619  0.0992
19314W        W75555   8.314  10.081  19.304 -0.3444  0.3494 -0.0471
19315W        W75556  19.799  25.680   2.421 -0.0114 -0.2637  0.1512
19316W        W75557  34.281  13.013  10.538  0.0015 -0.0790  0.1805
19317W        W75558  12.247  30.510  24.035  0.1343 -0.0039 -0.2054
19318W        W75559  34.733  14.537  10.894  0.1626 -0.1214 -0.0619
19319W        W75560  22.979   8.770  18.029 -0.0205  0.1360 -0.2227
19320W        W75561   7.966  24.389  25.632  0.1231  0.0541  0.0706
19321W        W75562  33.273   5.222   2.223  0.2670  0.0234  0.0564
19322W        W75563  25.604   3.748  20.151 -0.3134 -0.0432  0.1227
19323W        W75564  29.733   7.395  25.161 -0.1548  0.1453 -0.1524
19324W        W75565  22.800  11.221  13.172  0.0694  0.0444 -0.1232
19325W        W75566  29.392  16.955  15.226  0.1860  0.2896 -0.1962
19326W        W75567  17.070  29.676  23.818  0.1289 -0.0477  0.1799
19327W        W75568   7.200  29.322  16.440  0.0670  0.1103 -0.1817
19328W        W75569   6.188   6.582   8.550  0.3111  0.1723  0.3502
19329W        W75570  28.834   1.958  10.501  0.0439 -0.1668 -0.1874
19330W        W75571  26.944  17.725  25.009  0.1101 -0.1853  0.2297
19331W        W75572  32.613   2.991  23.817 -0.0447  0.0461 -0.1524
19332W        W75573  26.647  28.111   1.339  0.0752  0.4780  0.1586
19333W        W75574  19.822  15.857   1.775 -0.2958 -0.3238  0.1454
19334W        W75575   1.512  17.877  12.651  0.0152  0.1463  0.1116
19335W        W75576  32.409  22.960  20.189 -0.1350  0.1753 -0.0165
19336W        W75577  22.489  13.667  18.547  0.2713 -0.1351 -0.1259
19337W        W75578  20.610   3.983   8.644 -0.0859 -0.3589  0.1431
19338W        W75579  26.580  24.672  11.740 -0.0970 -0.1385 -0.0306
19339W        W75580  25.063   3.241   1.204  0.1210  0.1415  0.1413
19340W        W75581  23.669   9.386  22.063  0.3357 -0.1910  0.0189
19341W        W75582  17.017  27.266   0.102  0.0515 -0.0377 -0.0002
19342W        W75583  15.116   9.641   8.449  0.0889 -0.0937 -0.1001
19343W        W75584  28.837  34.040   1.796 -0.0426 -0.0497 -0.3545
19344W        W75585  27.792  20.658  17.832  0.2108 -0.0588 -0.0513
19345W        W75586  16.249  34.665  24.091  0.1718  0.1727 -0.4136
19346W        W75587  12.347  24.494  15.192 -0.2582  0.2730  0.3176
19347W        W75588  11.573   7.451   8.547  0.2429  0.0950 -0.4824
19348W        W75589  25.140  20.523  11.414  0.1449 -0.2610  0.0326
19349W        W75590  34.849   9.257  23.299  0.1216 -0.0139  0.1063
19350W        W75591  16.834  27.293   9.137 -0.0640 -0.0592  0.0624
19351W        W75592   2.472  31.064  23.669 -0.0912 -0.1737  0.0804
19352W        W75593  18.291  29.395  17.968  0.2188  0.0554  0.0440
19353W        W75594   1.616   2.300  16.714  0.1537  0.1719  0.0031
19354W        W75595  15.131   6.765   2.939 -0.2313  0.5232 -0.1993
19355W        W75596  20.186  10.754   4.471 -0.0161 -0.1780  0.1441
19356W        W75597   2.230   4.948   7.097 -0.2307  0.2094 -0.2220
19357W        W75598  16.887  14.896  18.651  0.0451 -0.5398  0.2297
19358W        W75599   1.752  13.259   2.413 -0.1829 -0.0133 -0.0359
19359W        W75600   0.529  25.068  20.308 -0.0948 -0.3373  0.1574
19360W        W75601   7.268  14.187  25.982 -0.1878  0.1587 -0.2283
19361W        W75602  27.871  35.327   5.047 -0.0191 -0.1112  0.0937
19362W        W75603  12.155   3.062   3.796 -0.2442 -0.1918 -0.0905
19363W        W75604  12.675  30.998  21.489  0.0881 -0.5111 -0.1150
19364W        W75605  32.480   2.973  19.594 -0.0885 -0.2741 -0.2695
19365W        W75606  28.482  21.364   6.623 -0.4610 -0.1258 -0.0178
19366W        W75607   3.180  19.851  17.833 -0.2229 -0.3418 -0.2970
19367W        W75608   8.845  17.021   8.016  0.0261  0.0700  0.0764
19368W        W75609  34.344   4.492   1.063 -0.2833  0.1427  0.1675
19369W        W75610   2.929  11.340  21.515  0.1330  0.0006 -0.0509
19370W        W75611   7.846   3.177  25.031 -0.0734 -0.1562  0.1110
19371W        W75612   7.113  20.177  21.360  0.0707 -0.1405  0.0290
19372W        W75613   5.154  26.676   7.809  0.1208 -0.0581  0.1167
19373W        W75614  29.711  29.408  12.196 -0.0766 -0.1498  0.0757
19374W        W75615  27.740   6.612  11.863 -0.2480 -0.0627 -0.0922
19375W        W75616  29.449  18.218  18.952 -0.2326 -0.1085  0.1023
19376W        W75617  27.758  12.206   5.848 -0.0800  0.1033  0.1841
19377W        W75618   3.350   4.831   0.322  0.1810  0.3754  0.4254
19378W        W75619  34.075  26.300  18.307 -0.1512 -0.0494 -0.1329
19379W        W75620  23.683  32.502  25.011  0.0285  0.1916  0.0996
19380W        W75621  19.530  24.501  10.687 -0.0184 -0.1120  0.1157
19381W        W75622  21.880   4.171  19.974 -0.1346 -0.0399 -0.0640
19382W        W75623  15.262  17.139   0.812  0.3416  0.0640 -0.0828
19383W        W75624  14.908  18.393  23.021  0.0300 -0.0585 -0.2141
19384W        W75625   7.508  15.624   0.694 -0.1586  0.2129  0.1584
19385W        W75626   1.994  16.115  19.803 -0.3419 -0.1202 -0.1808
19386W        W75627  13.332   7.676  24.474  0.2119  0.0220 -0.1288
19387W        W75628  25.094  14.128  20.777 -0.0321  0.0979  0.0273
19388W        W75629  20.508  28.698  16.769 -0.3317  0.0213 -0.0155
19389W        W75630  26.321   9.421  15.693  0.2729  0.0778 -0.2976
19390W        W75631   9.086  22.160   5.500  0.0693  0.1423 -0.5144
19391W        W75632  14.686  22.162   5.935  0.1852 -0.1966 -0.0155
19392W        W75633  20.439  13.742   8.818  0.1480 -0.0713 -0.2084
19393W        W75634   9.515  10.933   9.317 -0.2944  0.1064  0.2646
19394W        W75635  13.783  16.290  20.797  0.1275 -0.2446  0.2072
19395W        W75636  10.004   0.814   1.369  0.1181 -0.2808  0.2365
19396W        W75637  16.814  26.393  14.220 -0.0841 -0.1253  0.0431
19397W        W75638  26.506  29.012  14.910  0.1801  0.0963  0.1055
19398W        W75639   9.629  17.124  22.036 -0.0790  0.1284  0.1772
19399W        W75640  12.933  13.402  10.670 -0.0476  0.2523  0.0418
19400W        W75641   4.251   5.409   5.176 -0.4876  0.0161 -0.0719
19401W        W75642  24.976  30.464  16.732 -0.3749 -0.0196 -0.1190
19402W        W75643  20.242   8.403  22.683 -0.1263  0.2175 -0.1217
19403W        W75644   4.755  15.214   6.517 -0.1403 -0.1993 -0.0855
19404W        W75645  18.502   5.070  19.695  0.1572 -0.1455 -0.3005
19405W        W75646   2.375   6.849  22.437  0.1137  0.2376  0.2372
19406W        W75647   7.356  10.784  23.718 -0.2162  0.0381  0.3632
19407W        W75648  14.557  28.150  15.804  0.0753  0.2331 -0.3112
19408W        W75649   1.831   4.974   4.335  0.2798 -0.2228 -0.0998
19409W        W75650  30.139   8.975  21.966 -0.3365 -0.2690 -0.2974
19410W        W75651  13.186  27.873  25.451 -0.2434 -0.2356  0.1883
19411W        W75652  26.700  11.607  20.498  0.0387 -0.0646  0.2174
19412W        W75653  13.479  24.789  15.316  0.3201  0.1294  0.0333
19413W        W75654   2.384  26.510   6.196 -0.0991  0.2941 -0.2246
19414W        W75655  19.401   1.262   8.258  0.0107 -0.2661 -0.0173
19415W        W75656  28.601  14.448  11.555  0.1275  0.0638 -0.0716
19416W        W75657  23.926  21.536   0.398 -0.0826  0.0297  0.1560
19417W        W75658   6.642  29.980   1.011  0.1077  0.0608  0.0907
19418W        W75659  19.766  26.573   1.943 -0.1882  0.4379 -0.3241
19419W        W75660  17.248  13.942   7.579 -0.1263 -0.2619 -0.1962
19420W        W75661   9.911  25.913  25.342  0.1864 -0.1520  0.1933
19421W        W75662  28.706  21.998  15.564 -0.2935  0.1053  0.1641
19422W        W75663   3.232  33.578  26.146 -0.1885 -0.0156  0.0275
19423W        W75664   5.734  15.268   7.255 -0.2853  0.0798  0.1914
19424W        W75665  19.357   0.224  16.958  0.0718  0.2684  0.0972
19425W        W75666  21.865   1.095   1.543 -0.0147  0.4525  0.0649
19426W        W75667  21.433   6.672  21.943  0.0366 -0.4239 -0.0224
19427W        W75668   1.310  13.909  11.062  0.0410  0.2720 -0.2576
19428W        W75669  14.483  34.883  12.210 -0.2565  0.1450 -0.2257
19429W        W75670  11.373  17.662  20.629 -0.0460  0.1969  0.1356
19430W        W75671  34.029  17.481  25.926 -0.0645 -0.0037 -0.0921
19431W        W75672  18.985  22.901  20.366  0.0872 -0.1286 -0.1324
19432W        W75673   5.163  33.293   3.553 -0.1655  0.2455 -0.1559
19433W        W75674  25.644  31.964  12.417 -0.1734  0.0066 -0.1188
19434W        W75675  25.817  28.859  13.497 -0.0625  0.0600 -0.1089
19435W        W75676  17.688   9.916  13.603  0.3100  0.0862 -0.1153
19436W        W75677   6.965  18.258   1.715  0.1706 -0.2677 -0.0493
19437W        W75678  22.122  28.261  24.550 -0.0922 -0.1803 -0.0648
19438W        W75679   2.256  27.328   5.822  0.1613  0.0218  0.4311
19439W        W75680  10.920  10.956  24.252 -0.0229  0.1424 -0.0006
19440W        W75681   1.026  17.067  23.731 -0.1486 -0.0754  0.0152
19441W        W75682  30.717   8.984  24.177 -0.1022 -0.0387  0.0442
19442W        W75683  35.133  30.634   4.249 -0.0222  0.0978  0.0584
19443W        W75684  27.996   8.703  18.200 -0.1412 -0.0880  0.1448
19444W        W75685  10.497  11.802  20.936  0.0961 -0.2097 -0.0945
19445W        W75686  14.204  33.199   5.099 -0.0728 -0.0956  0.0909
19446W        W75687   4.613  32.481   4.621  0.0627 -0.0290  0.0421
19447W        W75688  34.204  14.916   1.192  0.0999  0.1887 -0.1505
19448W        W75689   5.954  31.247   3.100  0.0005  0.0107 -0.3559
19449W        W75690   7.993  25.293  22.260 -0.0716 -0.2692  0.1580
19450W        W75691  14.630  34.312   6.556 -0.1661 -0.2227 -0.2543
19451W        W75692  20.563  19.342  18.415 -0.2342 -0.0985 -0.2568
19452W        W75693  29.823  16.049  25.414 -0.1378 -0.0519 -0.0922
19453W        W75694  14.240  15.462   2.269 -0.0231  0.1807 -0.2801
19454W        W75695  22.454   1.919   5.326  0.1255 -0.2234  0.0904
19455W        W75696  28.089  29.938  11.917 -0.2448  0.2857 -0.0671
19456W        W75697  31.240  14.078   5.353 -0.1412 -0.1833  0.2972
19457W        W75698  23.349  25.910  26.211 -0.1003  0.1125  0.3266
19458W        W75699   9.365   5.850  20.901  0.2918  0.0622 -0.0690
19459W        W75700  27.058  31.437   4.873  0.3337  0.0536  0.0959
19460W        W75701  17.498  32.784   3.530 -0.0644  0.1257 -0.2592
19461W        W75702   5.020  16.732  19.991  0.0620  0.1332 -0.3485
19462W        W75703  26.021  28.099  23.658  0.0360 -0.2590  0.0803
19463W        W75704  10.465  10.620   6.725  0.2855  0.0775  0.0750
19464W        W75705  14.783  27.664  11.270  0.0584  0.1409  0.3125
19465W        W75706  18.562  20.299   8.629  0.2809 -0.0685  0.4259
19466W        W75707   2.303  33.445  25.466  0.1544 -0.2635  0.1182
19467W        W75708   7.804  18.953   4.224 -0.4996 -0.2695  0.1739
19468W        W75709   7.629  14.626   0.578  0.0844  0.1704  0.1057
19469W        W75710  19.594  28.731  21.385  0.1082 -0.2515 -0.0287
19470W        W75711  16.547  22.382   5.939 -0.1929 -0.2993 -0.1004
19471W        W75712  32.868   9.445   0.296  0.2297 -0.0240 -0.0082
19472W        W75713  16.113   7.369  25.027 -0.3718 -0.1930 -0.3139
19473W        W75714  19.530  10.876  25.189  0.4518  0.0984  0.1997
19474W        W75715  22.479   6.856   8.470 -0.1962  0.1118  0.1070
19475W        W75716  11.820  14.630  11.182  0.3777  0.0204 -0.0642
19476W        W75717  33.403   3.487  17.647  0.0318  0.3683  0.0522
19477W        W75718  31.624  18.029  18.113 -0.1953 -0.2457 -0.1588
19478W        W75719  34.128   8.490   2.420  0.0815 -0.1654 -0.0557
19479W        W75720  27.318  27.645  24.615  0.0005  0.3042  0.0680
19480W        W75721  25.223  20.017  13.042  0.1856  0.1179 -0.1331
19481W        W75722  17.766  25.838   9.463 -0.1952 -0.1525  0.0460
19482W        W75723  34.348  28.605  18.889  0.0747  0.1162  0.1317
19483W        W75724  16.574   1.839   1.960  0.1679 -0.0351 -0.2421
19484W        W75725  20.698   5.099  21.634 -0.0792 -0.1996 -0.2758
19485W        W75726  26.133  34.245  20.643  0.2515  0.3311 -0.0684
19486W        W75727  22.343  31.277  20.489 -0.1698  0.3104  0.1300
19487W        W75728  25.138   7.833  17.570  0.1813  0.0721  0.0617
19488W        W75729  12.118  32.828  10.354 -0.2230 -0.0750 -0.0936
19489W        W75730  10.701  23.863  15.526 -0.1348  0.0679  0.0008
19490W        W75731  11.439   8.906   8.314  0.0726 -0.1131 -0.3375
19491W        W75732   2.077  17.345  18.587  0.2386  0.1143  0.1781
19492W        W75733  15.880   8.436   5.625 -0.1827  0.1170 -0.1951
19493W        W75734  27.791  26.190  13.175 -0.1253  0.0249  0.2265
19494W        W75735  29.768  31.971   2.897  0.4856  0.4635 -0.0824
19495W        W75736  30.666  20.761  15.020 -0.4869 -0.0634 -0.0808
19496W        W75737   4.207   7.195   8.137  0.2988 -0.1761  0.1108
19497W        W75738  16.911  34.128  22.510  0.4585  0.2008  0.1129
19498W        W75739  27.096   5.240   2.882  0.2369  0.2562 -0.0103
19499W        W75740  16.207   0.827   0.732  0.0047  0.2766 -0.1757
19500W        W75741  20.991  28.990   3.450 -0.1311  0.2545 -0.1951
19501W        W75742  21.135  14.989  18.284 -0.2288 -0.3301 -0.4407
19502W        W75743   3.108  19.604  22.142 -0.1560 -0.3111  0.3978
19503W        W75744  21.098  31.013  15.227  0.1101  0.1878 -0.1224
19504W        W75745  17.069  32.741  25.680 -0.1179 -0.2112 -0.1029
19505W        W75746  24.296  24.141  24.628 -0.3443  0.2312 -0.1086
19506W        W75747  33.822  29.565   5.022 -0.1961  0.1762  0.1374
19507W        W75748  13.058  18.617  25.336  0.0084  0.4574  0.0688
19508W        W75749   8.437  14.069  22.663  0.4086  0.2604  0.0056
19509W        W75750   8.155   1.995   4.694 -0.1601  0.0159 -0.1185
19510W        W75751  14.740   3.099  17.707 -0.2589 -0.0571 -0.0567
19511W        W75752  16.423   9.591  21.361 -0.0671 -0.1523  0.0676
19512W        W75753   3.202   0.992   2.520 -0.0249 -0.3220 -0.1072
19513W        W75754  32.249   8.032  12.820  0.3546  0.0694  0.0849
19514W        W75755  22.859   3.265   4.571  0.0917 -0.2750 -0.1693
19515W        W75756  33.150  13.137  24.691  0.1039  0.1256 -0.1893
19516W        W75757  27.543  30.421  16.114  0.1242 -0.2590 -0.0617
19517W        W75758   8.496  11.184   2.391  0.5028  0.0039 -0.3421
19518W        W75759  22.724  30.957  15.840 -0.2629 -0.2091 -0.0686
19519W        W75760   5.052   6.610  20.546  0.3458 -0.1684  0.0601
19520W        W75761  19.638   4.966   4.694 -0.0848 -0.0745 -0.1687
19521W        W75762   5.310  30.069  25.092 -0.0503 -0.0902 -0.1208
19522W        W75763  30.284  31.683  17.807  0.2623 -0.1679  0.3065
19523W        W75764   5.702  31.488   5.280 -0.0119  0.1414 -0.2582
19524W        W75765  30.960   4.387  14.980  0.1844  0.1609 -0.0154
19525W        W75766  11.459   9.471   3.659  0.0489  0.1573 -0.0305
19526W        W75767  35.013  25.740  22.786  0.1185  0.2696 -0.3505
19527W        W75768  22.426  33.236   1.458  0.0185  0.2180 -0.1215
19528W        W75769   7.300  14.604   1.745 -0.1556 -0.0764  0.1900
19529W        W75770   1.065   6.376  16.788  0.0252 -0.3415  0.0096
19530W        W75771   8.662  24.568  10.184 -0.2942 -0.0012 -0.3521
19531W        W75772  12.663  15.274   1.120 -0.2361  0.0204  0.0680
19532W        W75773  25.229  13.842  16.294 -0.1156  0.3660 -0.2352
19533W        W75774  19.545  15.939  17.713 -0.0458 -0.4378 -0.0060
19534W        W75775  11.391  14.426  23.788 -0.0263  0.0545 -0.0546
19535W        W75776  17.453  24.654   7.896 -0.0857 -0.2078 -0.2277
19536W        W75777  15.000  21.623   6.319 -0.2189  0.0493  0.2596
19537W        W75778  34.211   6.142  12.289 -0.0177  0.1693 -0.1288
19538W        W75779  27.601  15.993  22.268  0.2120  0.2935  0.1039
19539W        W75780   5.405  15.260   1.672  0.2830  0.3708 -0.3345
19540W        W75781  18.902  25.294   6.554  0.3207  0.0535 -0.1888
19541W        W75782  30.174  31.947  16.710  0.0220 -0.1682  0.3658
19542W        W75783  23.274  19.594  20.378  0.0225  0.1098 -0.0697
19543W        W75784   6.075  13.347  18.791 -0.0162  0.1117  0.0577
19544W        W75785   7.776  25.302  12.751  0.0397  0.3440 -0.3091
19545W        W75786  23.362  15.651  16.346 -0.1136  0.5668  0.1152
19546W        W75787  14.218   4.564  11.228 -0.2304  0.2287 -0.1925
19547W        W75788   8.780   2.285  25.750 -0.0487  0.1151 -0.1023
19548W        W75789  32.050   0.610  23.526 -0.0879 -0.0622  0.2787
19549W        W75790   5.748  18.432  20.595  0.0121  0.1146  0.1977
19550W        W75791  26.465  15.417   9.840 -0.1679  0.0680 -0.1690
19551W        W75792   4.228  20.117   4.543 -0.1223 -0.0395  0.1069
19552W        W75793  31.649   9.008  12.412  0.0718 -0.2228 -0.3329
19553W        W75794   9.938  22.959  16.134 -0.0187 -0.0385 -0.1603
19554W        W75795   5.537  21.965  21.381  0.2475  0.0549  0.0571
19555W        W75796  17.838   6.151  24.324  0.1594  0.2280  0.3427
19556W        W75797  17.719  19.526   9.693 -0.1541  0.0976  0.3573
19557W        W75798   9.486  32.022   0.074  0.1158  0.0731 -0.1169
19558W        W75799   3.059   1.019   0.689 -0.1650  0.1273  0.0742
19559W        W75800   4.882  35.217   9.018  0.2618 -0.1430  0.1680
19560W        W75801  25.732  15.215   8.415 -0.0792  0.2296  0.1508
19561W        W75802  34.255   6.194   5.172  0.4009 -0.1639 -0.2418
19562W        W75803  33.567  17.206  14.043  0.0124  0.2320 -0.2914
19563W        W75804  11.863  25.194  12.716 -0.2401 -0.1991 -0.2656
19564W        W75805   7.858  12.861   7.935 -0.4271  0.1561 -0.3181
19565W        W75806  34.823  27.514  17.978  0.1290  0.3723 -0.3876
19566W        W75807  14.804  30.056  13.588  0.1809 -0.1754 -0.1039
19567W        W75808   8.911  20.862   0.073  0.2171  0.2465  0.0723
19568W        W75809  22.662  34.267  21.957 -0.2205 -0.3392  0.1251
19569W        W75810  10.072  32.488   9.703 -0.1351 -0.0134 -0.1212
19570W        W75811  14.902  15.859  24.446 -0.0640 -0.2090 -0.1409
19571W        W75812  17.222  18.970   3.815 -0.0938 -0.1478  0.0378
19572W        W75813  22.321  27.823   5.299 -0.4939 -0.1758 -0.1676
19573W        W75814  33.229  12.671   5.951 -0.2086 -0.2786 -0.2186
19574W        W75815  32.977  12.299  14.131  0.2296 -0.1275 -0.1263
19575W        W75816   3.981  34.965   1.172 -0.0627  0.2553  0.0420
19576W        W75817  29.889  20.468  18.167  0.0480  0.1470 -0.1444
19577W        W75818  25.483  16.525  15.727 -0.2128 -0.0837  0.1110
19578W        W75819   1.808  26.265  24.445  0.0068  0.0837 -0.0663
19579W        W75820  13.288  16.684   7.945  0.3345  0.0905  0.2391
19580W        W75821  15.572  16.281   6.895 -0.0010 -0.1722 -0.2473
19581W        W75822  28.110  34.325   0.320  0.1947  0.0212 -0.0222
19582W        W75823   1.911  20.142  23.917 -0.1274 -0.1889  0.1225
19583W        W75824   7.574  25.495   7.710  0.0972  0.1399  0.0207
19584W        W75825  34.864  31.098   0.267 -0.0092  0.1435 -0.2357
19585W        W75826  20.029  34.568   8.171  0.0377 -0.0429 -0.1362
19586W        W75827  12.911   6.270   8.567  0.0628 -0.0221 -0.0317
19587W        W75828   6.273  19.797   2.158 -0.2216  0.2110  0.1340
19588W        W75829   3.619  29.136  18.755 -0.1323 -0.0387  0.1327
19589W        W75830   2.473  33.869  19.264  0.1933  0.1785  0.1657
19590W        W75831  33.133   8.368  10.002 -0.1342  0.1612  0.4255
19591W        W75832  17.773  24.227  12.124  0.0677  0.1219  0.0802
19592W        W75833  27.634  17.025   5.773 -0.0608 -0.0772  0.1286
19593W        W75834  30.637  33.853   2.181 -0.0784  0.1221  0.0847
19594W        W75835  20.409   6.851   6.154 -0.2537 -0.1572 -0.0193
19595W        W75836   6.221  12.124  18.384 -0.1122  0.0111 -0.3065
19596W        W75837  25.393  21.241  23.910 -0.1633  0.0699 -0.1520
19597W        W75838  35.132   0.406   4.884 -0.2768 -0.0041  0.2458
19598W        W75839   6.134   3.063   5.783  0.0353  0.0522 -0.0994
19599W        W75840  31.500  30.921  17.729 -0.3511  0.2291  0.1145
19600W        W75841  33.229   8.194  19.207 -0.3125  0.1531  0.0194
19601W        W75842  27.577   8.504  21.906 -0.0856 -0.2155  0.5422
19602W        W75843  28.963   3.340  24.944  0.0020  0.4945  0.1878
19603W        W75844   0.058  30.621   4.704 -0.0087  0.2077  0.0916
19604W        W75845  31.334  24.201   9.067  0.2007  0.2245 -0.0506
19605W        W75846  29.763   4.979  14.715  0.2408  0.2303 -0.0714
19606W        W75847  13.701  26.164   8.538 -0.0928  0.2652  0.0718
19607W        W75848   9.996  13.233  12.903 -0.0510  0.4386 -0.0143
19608W        W75849  26.524  23.532  13.874  0.0317 -0.1543  0.1109
19609W        W75850  31.873  11.222   7.435 -0.1686  0.0648  0.1213
19610W        W75851  32.545  30.088  15.144  0.0037  0.0070 -0.1789
19611W        W75852  17.732  30.285  20.871  0.2802  0.0058  0.2338
19612W        W75853  25.150   1.446  12.151  0.0811 -0.3073  0.0500
19613W        W75854  27.145  12.256  19.958 -0.1995  0.0589  0.1139
19614W        W75855   9.781  13.535   7.670  0.1182  0.2479  0.2180
19615W        W75856  29.521   8.826  15.339  0.0314 -0.1089  0.0363
19616W        W75857   7.746  23.652  10.250  0.1073 -0.2496  0.1680
19617W        W75858  21.017  11.348  16.186 -0.0477 -0.0298 -0.2068
19618W        W75859  23.931   6.799  14.048 -0.0768  0.0703  0.2452
19619W        W75860   7.803  18.968  21.960  0.4647 -0.2523  0.0766
19620W        W75861   4.027  16.523  24.063 -0.0028  0.3390 -0.1841
19621W        W75862  27.212   2.388  12.107  0.0868 -0.1703  0.0227
19622W        W75863  14.090  23.194  13.265  0.0604 -0.2900 -0.0205
19623W        W75864   9.485  29.632   1.586 -0.3068 -0.1092 -0.0633
19624W        W75865   9.467  32.415  14.067  0.0142  0.0800  0.0741
19625W        W75866   2.289   6.698   4.451  0.0973 -0.2201 -0.2582
19626W        W75867  26.222  20.226  17.441 -0.1528  0.1978  0.1295
19627W        W75868  18.700  18.766  19.469  0.0229 -0.1273  0.3426
19628W        W75869  23.696  20.336  19.410  0.1407  0.0897 -0.0273
19629W        W75870  29.827  14.368  21.967 -0.2327  0.1371 -0.0285
19630W        W75871  33.667  17.457  24.616  0.1911  0.0521  0.3493
19631W        W75872  12.983  17.929  11.567  0.3092  0.2704 -0.0611
19632W        W75873   2.762   4.258   1.847  0.1262  0.0688 -0.1140
19633W        W75874   6.412   0.555  22.925 -0.0679 -0.0493  0.0578
19634W        W75875  23.978   1.509  25.534  0.1081  0.2117 -0.0982
19635W        W75876  22.143  12.865  18.172  0.1339 -0.2882  0.0560
19636W        W75877  29.045   9.476  16.456  0.1142 -0.0257  0.3212
19637W        W75878   4.596  18.104  17.863 -0.2886  0.1198  0.0089
19638W        W75879  11.361  11.059  26.212 -0.1170 -0.0590  0.2780
19639W        W75880  27.466   5.393   4.616  0.1406 -0.2453  0.2585
19640W        W75881  14.902   8.971   8.788  0.1995 -0.0909 -0.1542
19641W        W75882  10.245  15.459  19.265  0.1095 -0.1938 -0.0534
19642W        W75883  34.597   1.192   1.338 -0.0635 -0.0983 -0.1699
19643W        W75884  27.381  12.220   7.774 -0.1775  0.1748  0.1027
19644W        W75885  23.120  11.085  24.980 -0.4102 -0.1858 -0.0403
19645W        W75886  12.889  13.279  13.171  0.1206 -0.5308 -0.1393
19646W        W75887  19.989  13.276   2.160  0.2232 -0.1233  0.0909
19647W        W75888  31.083   8.367  11.368 -0.2674 -0.1068 -0.1873
19648W        W75889  19.766  24.291  19.804  0.0225  0.1268 -0.2375
19649W        W75890  14.102  18.167  25.197  0.0117  0.0257  0.1334
19650W        W75891  18.309  14.661   3.134 -0.3457 -0.1709  0.2001
19651W        W75892  23.840  21.223  24.097 -0.1503 -0.3654 -0.2401
19652W        W75893  10.221  28.144  12.657 -0.1228  0.2490  0.3467
19653W        W75894  30.457  10.331  18.603 -0.0779  0.0613 -0.4641
19654W        W75895  30.226   9.821   8.985 -0.2078  0.6183 -0.0871
19655W        W75896  13.576   3.655  12.698  0.0489  0.0620 -0.1228
19656W        W75897  27.690  23.124   0.334 -0.0751  0.1198  0.0987
19657W        W75898  18.169  23.271  23.702 -0.2059 -0.0293  0.0596
19658W        W75899  29.929  30.065  15.693 -0.1005 -0.0035 -0.1857
19659W        W75900  16.435  30.812  25.740 -0.4180  0.0775  0.3180
19660W        W75901  21.776  15.342  17.806  0.0042  0.0270 -0.0308
19661W        W75902   2.140  15.207  16.356 -0.0285  0.3078 -0.2681
19662W        W75903  31.720  35.230  22.668 -0.1734  0.2096  0.0961
19663W        W75904  11.374   9.917  22.150  0.1186 -0.0538 -0.2060
19664W        W75905  17.629  34.288   9.549 -0.0598 -0.2466  0.0068
19665W        W75906  21.672  31.485  25.758  0.2503  0.1518  0.0869
19666W        W75907  11.184  32.615  21.185  0.0069 -0.3058  0.1967
19667W        W75908   8.472  26.318  24.823  0.0128 -0.0287  0.2871
19668W        W75909   7.034   1.091   9.780 -0.1401  0.5249  0.1885
19669W        W75910   4.426  31.885   6.283  0.0711  0.3281 -0.0966
19670W        W75911  26.428  17.265  13.438  0.3019 -0.3608 -0.0565
19671W        W75912  11.804  21.395  14.861 -0.0511  0.2070  0.2175
19672W        W75913   9.859  14.314   8.266  0.3629 -0.1315 -0.0571
19673W        W75914   2.830  33.863   9.813  0.1771  0.1044  0.5199
19674W        W75915  12.589  10.854  25.599 -0.2732 -0.2119 -0.3406
19675W        W75916  10.888  14.102  25.912 -0.3896 -0.2724 -0.0450
19676W        W75917  23.471  19.187  24.281 -0.2730  0.4226 -0.1441
19677W        W75918   1.046  20.257  16.539 -0.2226  0.0344 -0.2279
19678W        W75919  33.605   8.139   2.679  0.0584  0.1995  0.0040
19679W        W75920  29.706  28.688  14.751  0.0840  0.1117  0.1404
19680W        W75921   2.627   9.254  18.984 -0.0447 -0.1828  0.0381
19681W        W75922  14.818  33.229  25.102 -0.0660  0.0780 -0.1328
19682W        W75923  19.408  33.093  24.229 -0.1875 -0.2906 -0.3652
19683W        W75924  21.586  34.079   7.801 -0.4231 -0.3494  0.0751
19684W        W75925  11.912  12.803  23.293 -0.2592 -0.1477  0.2659
19685W        W75926   1.944   6.695  22.401  0.0813 -0.2875  0.0249
19686W        W75927  33.675  11.668  15.165 -0.1947  0.1219 -0.1944
19687W        W75928  10.598  16.885   1.721 -0.2439  0.1598 -0.1467
19688W        W75929  17.085   5.791  24.738  0.0179  0.3036  0.0040
19689W        W75930  33.429   8.724  26.172 -0.1214  0.2229 -0.1684
19690W        W75931  31.607  33.878  22.238  0.4546  0.1306 -0.0358
19691W        W75932   7.695   9.925  18.956  0.0054 -0.0602  0.1737
19692W        W75933   2.768   6.621  23.668  0.0117  0.1560  0.2314
19693W        W75934   4.134   2.873  25.578  0.1880 -0.0529 -0.1072
19694W        W75935  17.134  18.895  11.276  0.1698  0.4209  0.3253
19695W        W75936  11.128   9.025  26.124 -0.0741 -0.0887  0.1737
19696W        W75937  27.120   3.743  21.452 -0.0494  0.1689 -0.1326
19697W        W75938   8.807   5.853   9.950 -0.0239 -0.3476 -0.2628
19698W        W75939  18.020   7.092   0.143  0.1325 -0.2926  0.0720
19699W        W75940  21.083  26.956   3.571  0.1661  0.0710  0.2867
19700W        W75941  17.385  34.742   1.660  0.0548 -0.0355  0.2400
19701W        W75942  13.485  21.735   3.437  0.2221 -0.0440 -0.0692
19702W        W75943  14.288   5.886   5.039  0.1600 -0.0907 -0.0541
19703W        W75944  29.435   3.975  16.547  0.1368  0.1813 -0.0971
19704W        W75945   3.552  19.808  16.751 -0.0704  0.0718  0.3682
19705W        W75946  29.556  31.350  15.117 -0.4105 -0.1888 -0.1853
19706W        W75947  32.809  12.496  20.066 -0.2400  0.0727 -0.3427
19707W        W75948  12.010  33.293  10.457  0.0489  0.2197  0.0582
19708W        W75949  34.634  14.076  20.230  0.1061  0.1391  0.0603
19709W        W75950   5.261   2.765  11.011 -0.2908  0.0633 -0.1487
19710W        W75951  32.957  11.733   9.532 -0.1801  0.0632 -0.0057
19711W        W75952   4.862  28.438   8.081  0.2939 -0.0604 -0.2042
19712W        W75953   2.536  10.216  19.331 -0.1680  0.2698  0.1515
19713W        W75954  22.470  22.606  21.552  0.0356  0.0299 -0.2202
19714W        W75955  18.937  29.444   5.457 -0.2354  0.4637  0.1707
19715W        W75956  16.619  19.283   4.947 -0.1295  0.3181 -0.0736
19716W        W75957  22.967  28.793  11.714  0.0801 -0.1190 -0.1666
19717W        W75958  32.924  15.558  13.740 -0.0947 -0.0733  0.0727
19718W        W75959  24.831  15.405  13.250 -0.1478  0.1535 -0.3802
19719W        W75960   0.170  18.025  12.342  0.0270 -0.1153  0.2418
19720W        W75961  19.977   6.962   2.994  0.6262 -0.2638  0.2929
19721W        W75962  10.792   4.075  25.311  0.0889  0.2396  0.1333
19722W        W75963   6.667  14.008  25.733  0.0040  0.1860  0.0432
19723W        W75964  30.272  28.120  13.738 -0.1841  0.2679  0.5166
19724W        W75965  21.666  28.443   6.169 -0.1971 -0.0685  0.2385
19725W        W75966  29.049   7.329  25.385  0.4221  0.0027 -0.2991
19726W        W75967  26.248  30.126  18.915  0.1207  0.0754  0.0262
19727W        W75968  14.241  12.918  19.432 -0.3286  0.1253  0.0302
19728W        W75969  28.506   9.931   9.302 -0.1104  0.1357  0.2683
19729W        W75970   4.359  31.176  24.795 -0.2531  0.1082 -0.1343
19730W        W75971  13.541  21.700  14.293  0.0220 -0.3730  0.1836
19731W        W75972  21.747  28.058  19.934  0.1176  0.1560 -0.0253
19732W        W75973  11.415  33.742  13.307 -0.1257  0.1259  0.3033
19733W        W75974  29.923  20.625  18.764 -0.1936 -0.0599 -0.1438
19734W        W75975   3.602  25.596   1.960 -0.0061 -0.0590  0.0081
19735W        W75976  29.232  23.992  17.044 -0.0915 -0.1051  0.0156
19736W        W75977  31.568  23.667  16.762  0.1266 -0.2624  0.2297
19737W        W75978  29.414  26.951  10.140 -0.0753  0.0601 -0.0198
19738W        W75979  11.308   5.841  23.753 -0.2498 -0.4574  0.1506
19739W        W75980   1.227   9.849  24.246  0.1701 -0.0328  0.1552
19740W        W75981  11.611   5.742   4.305  0.1057 -0.1055 -0.0884
19741W        W75982  25.508  11.994  16.391  0.1161 -0.0958 -0.0517
19742W        W75983   2.324  23.150  25.758 -0.1060 -0.2750  0.1366
19743W        W75984  10.974  30.484   7.317 -0.0087  0.1887  0.2981
19744W        W75985  33.442  29.183  13.419 -0.0594  0.2389  0.0869
19745W        W75986   3.868  20.605  19.420  0.0945  0.0195  0.0441
19746W        W75987  15.814  29.578  25.221  0.0957  0.2188  0.1583
19747W        W75988   4.435   1.745   1.709 -0.0301  0.2810  0.0258
19748W        W75989  30.539  34.242  18.167 -0.0302  0.4224 -0.1111
19749W        W75990   4.310  29.638   9.521  0.0314 -0.2724 -0.0708
19750W        W75991  29.436  22.766   9.981 -0.1886  0.2137 -0.0927
19751W        W75992  32.318  18.056  22.863  0.0825  0.0502 -0.0971
19752W        W75993  26.263  33.801   3.834 -0.0070  0.3803 -0.1470
19753W        W75994  35.288  20.497  20.424 -0.0448 -0.1317 -0.0596
19754W        W75995  14.634   0.896  18.846  0.2072  0.0392  0.2775
19755W        W75996  27.255   5.009  22.726  0.0282 -0.0234 -0.2075
19756W        W75997   2.394  24.511  16.648  0.1088 -0.0674 -0.0161
19757W        W75998  25.863  20.730  23.699  0.4535  0.4680  0.2078
19758W        W75999   4.685   9.532  21.866 -0.0202 -0.1130  0.1804
19759W        W76000  16.065  29.814  22.475 -0.2039  0.0253 -0.3687
19760W        W76001   8.122  28.407   4.311 -0.1540 -0.0450 -0.1469
19761W        W76002  34.741  21.165  19.911 -0.0361 -0.1415 -0.0543
19762W        W76003   3.935  13.621  20.437 -0.2284  0.0485  0.2589
19763W        W76004   3.911  16.356   0.570  0.2069 -0.0562 -0.2135
19764W        W76005  21.460   9.320  19.419 -0.0354  0.0340  0.0413
19765W        W76006  13.300   5.281   3.932  0.0542  0.0822 -0.0863
19766W        W76007  13.459  24.243   4.669  0.3410 -0.3294 -0.2839
19767W        W76008  10.334  29.608  11.594 -0.0914  0.1686  0.1183
19768W        W76009  11.698  10.723  23.901 -0.0477  0.5196 -0.2399
19769W        W76010  22.644   8.419  16.047 -0.0943  0.0139  0.0127
19770W        W76011  24.534   5.959  20.401 -0.1098  0.3059  0.1557
19771W        W76012  19.161   1.406   5.174  0.1360 -0.1627 -0.1338
19772W        W76013  24.161   0.417  23.130 -0.1321 -0.1265 -0.1314
19773W        W76014  10.678  34.505  22.092 -0.2287  0.0523 -0.0312
19774W        W76015  23.824   4.164  17.930  0.2007 -0.1368  0.3709
19775W        W76016  34.526   6.938  24.609 -0.0522 -0.0774  0.2511
19776W        W76017  27.148  30.991  12.701 -0.1126  0.7854  0.4433
19777W        W76018   8.977   4.182   2.058 -0.2590  0.1752  0.1209
19778W        W76019   8.027  26.367   8.069 -0.3812 -0.2359 -0.2600
19779W        W76020  18.030  14.648   6.468  0.4584 -0.0132  0.2596
19780W        W76021   0.028  29.796  16.235 -0.2385 -0.1930 -0.3797
19781W        W76022  32.066  21.912  18.206 -0.0939  0.1161 -0.0191
19782W        W76023   5.772  30.575  24.201 -0.0494 -0.0122 -0.0963
19783W        W76024   7.120   7.092  21.182 -0.1271  0.0836 -0.1454
19784W        W76025  15.941  16.846  21.100  0.2436 -0.1070 -0.0110
19785W        W76026   8.964  12.924  18.499  0.3576  0.0656  0.1137
19786W        W76027  28.653  10.409  13.454  0.0682 -0.2078  0.1908
19787W        W76028   8.279  13.739  13.496  0.0020  0.1804 -0.3507
19788W        W76029  24.856  21.594  22.658  0.0872 -0.0026 -0.1029
19789W        W76030  23.975  10.961  24.717  0.1420  0.0246  0.0387
19790W        W76031  14.337   8.590  14.134 -0.3542  0.0939 -0.1883
19791W        W76032  28.510  14.864  10.066  0.0694 -0.0401  0.0836
19792W        W76033  28.734  12.992  20.480 -0.2332 -0.0688 -0.1785
19793W        W76034   9.806  27.383  14.470 -0.0288 -0.2080  0.2709
19794W        W76035   0.916  32.045  20.765  0.0556 -0.0694 -0.1215
19795W        W76036  20.428   5.630   3.398 -0.1967  0.2913  0.1532
19796W        W76037  34.590  18.295  20.499  0.0199 -0.1383 -0.1409
19797W        W76038  27.843  21.427  25.048  0.2533  0.4290  0.2657
19798W        W76039  19.257  11.109  21.582 -0.0564  0.1551  0.0647
19799W        W76040  33.255   8.631  24.971 -0.0078 -0.1273 -0.0326
19800W        W76041  31.123  29.114  16.628 -0.0371 -0.3126 -0.1685
19801W        W76042  14.949  16.767  11.640  0.0052 -0.4659  0.2468
19802W        W76043  23.565  31.623  17.869 -0.0305 -0.0665  0.0234
19803W        W76044  20.808  22.779   1.073  0.3309  0.0951  0.0765
19804W        W76045  31.418  21.584  25.409  0.1064 -0.2328 -0.0638
19805W        W76046   2.505   0.656  19.346  0.0801 -0.0773 -0.1264
19806W        W76047   8.932  34.265  13.564 -0.3660  0.1050 -0.1169
19807W        W76048   0.196   1.061  25.031  0.1644  0.1906 -0.0831
19808W        W76049  13.226   2.282   8.925  0.0867  0.3411  0.0741
19809W        W76050   0.339  24.213  24.198  0.2970  0.2193  0.1303
19810W        W76051   8.491   9.704  11.041 -0.0521  0.0950 -0.0169
19811W        W76052  16.437   8.911  11.224 -0.1011 -0.0606  0.0384
19812W        W76053  14.375  27.808  10.936 -0.2787  0.2292  0.3021
19813W        W76054  12.919  13.750  23.124  0.0488 -0.0169 -0.0866
19814W        W76055  25.695  10.299  20.565  0.0336 -0.0834 -0.2286
19815W        W76056  23.299  15.081   1.641 -0.1310 -0.0354  0.2464
19816W        W76057  20.642  15.259   3.831  0.0883  0.0423 -0.0762
19817W        W76058  29.369  10.202  22.628 -0.2172 -0.1791 -0.3384
19818W        W76059  24.963  15.162  22.140 -0.1147  0.2723  0.1415
19819W        W76060  27.971  10.068  10.100 -0.2237 -0.0116  0.2560
19820W        W76061  32.358  25.909  14.228 -0.0858  0.0578  0.1672
19821W        W76062  22.354  11.342  19.152 -0.2844  0.0295  0.0140
19822W        W76063  31.400  24.922  24.589  0.0922 -0.0181 -0.0094
19823W        W76064   2.036   1.679   8.327 -0.1010 -0.3297  0.0343
19824W        W76065  11.037  22.052   3.659 -0.1348  0.1424  0.0472
19825W        W76066   7.431  12.727  20.119 -0.5575 -0.1403 -0.1960
19826W        W76067   5.266  21.242   1.295 -0.1831 -0.1178 -0.0275
19827W        W76068   5.192  29.291  13.691  0.0934 -0.0998 -0.2693
19828W        W76069  30.130  31.619  11.474 -0.1101  0.0980 -0.1353
19829W        W76070  11.688  10.721  21.342 -0.0149  0.1630 -0.0232
19830W        W76071   2.891  30.490  21.126 -0.2388  0.0279 -0.0468
19831W        W76072   6.929  35.101  25.464  0.1462  0.1875  0.2496
19832W        W76073  27.793  26.123   9.075 -0.0163 -0.0855 -0.5920
19833W        W76074   9.512  33.734   6.289  0.0194  0.0554  0.0692
19834W        W76075  24.174  22.571  12.093 -0.0469 -0.0441 -0.0338
19835W        W76076  11.584  29.457  22.545 -0.0682 -0.2570 -0.0999
19836W        W76077   3.467  30.856   5.262  0.0464  0.2622  0.2708
19837W        W76078  14.912   0.943  10.176  0.2963 -0.1797 -0.3083
19838W        W76079  19.356  13.119  23.324  0.0751  0.0477 -0.1185
19839W        W76080   5.012  12.166   4.601 -0.1628  0.3247 -0.0590
19840W        W76081  22.785  31.794  18.353  0.2444  0.1936 -0.1174
19841W        W76082   0.795  20.434   1.765  0.2667 -0.0076 -0.1132
19842W        W76083   4.125   9.653   2.668 -0.1811 -0.2174 -0.0335
19843W        W76084  17.238  24.446  21.768  0.0321  0.0008 -0.1315
19844W        W76085  31.706   0.463  15.593 -0.3561  0.0076 -0.0467
19845W        W76086  13.674  24.105   3.409 -0.1080 -0.1640 -0.0277
19846W        W76087  30.205   6.305   4.105 -0.0254 -0.1300 -0.0337
19847W        W76088  14.966  24.161   8.609  0.2740  0.0531  0.2898
19848W        W76089  26.669   3.242   3.069 -0.2647 -0.2100  0.2059
19849W        W76090  18.110  17.396  23.524  0.0353 -0.2465  0.1760
19850W        W76091   5.604  19.499  20.515 -0.1269  0.0131 -0.2054
19851W        W76092  22.147   8.007  22.687 -0.1498 -0.3340  0.3201
19852W        W76093  24.398  12.557  25.633  0.0879  0.1530  0.0741
19853W        W76094  14.741  13.521  13.618 -0.0472  0.0337  0.0062
19854W        W76095  11.346  32.967  12.120 -0.2555  0.2063 -0.1761
19855W        W76096  26.886  11.903  16.333  0.2610  0.2984  0.4393
19856W        W76097   9.360  22.871   7.458  0.0505 -0.0099  0.2038
19857W        W76098  33.310  27.399   3.544  0.0219  0.3030  0.2915
19858W        W76099  22.245  21.946   1.472 -0.1706 -0.1628  0.1420
19859W        W76100  16.122  14.741   6.228 -0.1028 -0.0872 -0.2607
19860W        W76101   9.004  16.155   1.392 -0.0255 -0.1665 -0.1400
19861W        W76102  29.768  21.033  12.998  0.1559 -0.0001 -0.1992
19862W        W76103  12.203   3.060   7.278  0.0050  0.1421 -0.0014
19863W        W76104  20.279  13.703   2.534  0.1655 -0.0485 -0.0948
19864W        W76105  19.273  27.818   4.214  0.0661 -0.0413  0.1113
19865W        W76106  30.313  23.547  14.412  0.6341  0.0602  0.1505
19866W        W76107  19.181  32.291   1.805  0.0086 -0.0004  0.0088
19867W        W76108  14.924  31.222   4.779 -0.0103 -0.0902 -0.0709
19868W        W76109  32.033  10.863  11.639 -0.1279 -0.0981 -0.2648
19869W        W76110  12.211  13.785   9.543  0.0744  0.3543 -0.3204
19870W        W76111  14.653  15.879  20.614 -0.1531 -0.0103  0.2249
19871W        W76112  27.226   0.369  24.518  0.1712 -0.1870  0.0020
19872W        W76113   9.831  34.030  20.569  0.0062 -0.3781  0.1986
19873W        W76114  31.042  31.275  16.274  0.1025  0.0401 -0.1327
19874W        W76115  34.665   6.577  19.493 -0.1219 -0.0962  0.0474
19875W        W76116  25.513  25.683   9.844  0.0177 -0.0155 -0.4013
19876W        W76117   1.029   8.555   0.575 -0.4618 -0.3468  0.5355
19877W        W76118   8.208  27.872  10.290  0.0728 -0.2335 -0.0126
19878W        W76119   5.849   8.909  18.613  0.2002  0.2055  0.1233
19879W        W76120  26.473  23.177  18.836  0.1698  0.0851 -0.0375
19880W        W76121  34.936  15.878  17.807 -0.3094 -0.1320 -0.0291
19881W        W76122   4.490  24.533  25.485 -0.2811  0.2258  0.1685
19882W        W76123  29.002  25.692   1.303 -0.2990 -0.1246  0.0394
19883W        W76124  34.937   2.284   2.121 -0.2974 -0.2958 -0.0937
19884W        W76125  15.444   3.416  25.365  0.0200 -0.1339  0.0233
19885W        W76126  14.699  12.944   0.328 -0.2704  0.2613 -0.2932
19886W        W76127  21.608   0.572  14.811  0.3747 -0.0000  0.1992
19887W        W76128   4.079  17.275  24.845 -0.2162 -0.1209  0.0538
19888W        W76129   0.427  14.747  21.998 -0.0424 -0.2108  0.0442
19889W        W76130  25.115  12.947   1.009 -0.0446 -0.1621  0.0070
19890W        W76131  30.902  17.154  25.652  0.2821  0.1437 -0.1629
19891W        W76132  12.594  11.931  12.862 -0.2036 -0.1066  0.1803
19892W        W76133  28.378  17.126  11.383  0.3893 -0.1379  0.0091
19893W        W76134  30.258  12.514   0.592 -0.1073  0.0894 -0.1896
19894W        W76135  30.275  25.330  17.713 -0.2038  0.2009 -0.0458
19895W        W76136   5.169  11.616   5.254  0.0713 -0.1268 -0.0150
19896W        W76137   9.155  23.193  11.209  0.1262 -0.2762  0.3479
19897W        W76138  10.198   3.719   9.306  0.2451  0.4033 -0.2379
19898W        W76139   8.430  34.702   7.218  0.0604  0.2031  0.1693
19899W        W76140   4.461  26.244  10.205  0.1411  0.1503  0.1340
19900W        W76141  28.299  26.034  14.777 -0.1456  0.0179  0.3231
19901W        W76142  15.903  21.887  24.927  0.0636 -0.1064 -0.1427
19902W        W76143  29.155  14.493  22.356  0.1774  0.0464 -0.0017
19903W        W76144  20.311  26.236  23.265  0.0394  0.2993  0.0891
19904W        W76145  27.242   8.591   8.349  0.1236 -0.2792  0.1424
19905W        W76146   0.870   7.254   4.393  0.0636 -0.0233  0.0162
19906W        W76147   0.986  32.415   1.109  0.4863 -0.3810 -0.0544
19907W        W76148   7.352  34.871   5.544  0.1474 -0.0047 -0.0510
19908W        W76149  25.224  33.578   4.335 -0.0175 -0.0551 -0.0568
19909W        W76150  16.765  14.973   6.975 -0.1380 -0.2129 -0.0616
19910W        W76151   9.602  23.154  22.326 -0.2373  0.0086 -0.0703
19911W        W76152  16.504  12.143   9.729 -0.0495 -0.4496  0.1782
19912W        W76153   2.945   6.266   1.098  0.1188 -0.0069 -0.0517
19913W        W76154  13.511  26.716  10.546 -0.2014 -0.3262  0.0791
19914W        W76155   6.331   2.439  25.009  0.0011 -0.0841  0.1723
19915W        W76156  10.318  23.914   7.782 -0.0360 -0.3728  0.0324
19916W        W76157   6.811  16.292  20.842 -0.2985  0.0083 -0.0293
19917W        W76158  14.881  18.750  12.758  0.2309 -0.1919  0.3305
19918W        W76159  10.014   5.982  20.600 -0.3421 -0.1047 -0.0309
19919W        W76160  21.903   4.714  15.520  0.1805 -0.0578 -0.1382
19920W        W76161   4.782  30.596  13.385 -0.2382  0.0584  0.2020
19921W        W76162   4.998  19.473   5.929 -0.0525 -0.2742 -0.1306
19922W        W76163   1.369  29.157   5.925  0.0938  0.2618  0.0547
19923W        W76164  12.590  13.642   1.906 -0.0027 -0.0158 -0.1188
19924W        W76165  21.389  33.180   1.993 -0.1337 -0.2110  0.2180
19925W        W76166   1.753  12.145  21.515  0.0101  0.2930  0.0385
19926W        W76167  25.693  30.814  11.856 -0.3043 -0.0369  0.0389
19927W        W76168  13.439  11.978   9.278  0.1445 -0.2313  0.3069
19928W        W76169   3.923   7.882  20.814 -0.1942 -0.1509  0.0264
19929W        W76170  27.184  32.854   3.702 -0.0708 -0.2446  0.1732
19930W        W76171  29.435   1.747  17.400 -0.2818 -0.2144 -0.0421
19931W        W76172   6.489  14.852  22.522 -0.0129 -0.0495 -0.1676
19932W        W76173  29.195   7.058  11.502 -0.1281  0.0064 -0.1214
19933W        W76174  23.917  12.767  18.971 -0.3659  0.1099  0.2927
19934W        W76175  14.686  34.699   0.730  0.1543 -0.2315  0.0142
19935W        W76176  22.346   6.574   0.502  0.0048  0.0787 -0.0759
19936W        W76177   3.011   5.489  17.402  0.2201  0.0409 -0.0697
19937W        W76178  26.949  16.462  15.645  0.2846  0.2061  0.0726
19938W        W76179  20.266  31.708  22.157  0.0853 -0.0669 -0.0766
19939W        W76180  31.969  23.093  11.694 -0.0534 -0.1555  0.0754
19940W        W76181  17.979  12.667   1.837 -0.3247  0.2230  0.1827
19941W        W76182  34.282  29.792  23.440 -0.1500  0.0695 -0.0567
19942W        W76183  18.380  20.744  22.177 -0.1907  0.1781 -0.0976
19943W        W76184  35.094  12.127  21.864  0.4051 -0.0636 -0.1455
19944W        W76185   6.014  27.016   9.995 -0.1853 -0.1041 -0.3059
19945W        W76186  30.402   5.395  20.314  0.0246 -0.0142  0.0600
19946W        W76187  20.403  28.941   1.293 -0.5453  0.0679 -0.2283
19947W        W76188   7.283  28.072  22.301 -0.1563  0.1017  0.3444
19948W        W76189   0.494  18.276  10.126 -0.0338 -0.1226 -0.1258
19949W        W76190   7.310  34.414  25.878 -0.2353  0.3337 -0.2810
19950W        W76191  10.578  15.334  20.891  0.1826  0.0425  0.0817
19951W        W76192   7.853  19.060   9.053  0.0849 -0.0439  0.1550
19952W        W76193  26.174  11.459  23.549 -0.0970  0.0644  0.0211
19953W        W76194  29.461  29.940  18.643  0.1334  0.0266  0.2903
19954W        W76195  14.746  33.203  20.893  0.1855  0.1086 -0.0969
19955W        W76196  17.419  13.618   1.100  0.1904 -0.1392  0.0560
19956W        W76197  30.386  30.802  10.752  0.0294 -0.0837 -0.4013
19957W        W76198  13.939   3.601  25.144 -0.4475 -0.2204 -0.2243
19958W        W76199   4.260  26.757  10.207 -0.1301  0.0435 -0.0101
19959W        W76200  13.876  16.586  23.845  0.0007 -0.0376 -0.2752
19960W        W76201  25.609  12.393  12.359 -0.1680 -0.0531 -0.0394
19961W        W76202  27.943  21.870  17.920  0.1486 -0.1388 -0.2754
19962W        W76203   4.551  33.531  25.820  0.2070 -0.0331 -0.0333
19963W        W76204  16.528   4.044  11.842  0.1730 -0.3981 -0.2555
19964W        W76205   9.980  29.718  21.654  0.0452 -0.0035  0.1511
19965W        W76206  32.805  13.358   7.545  0.1888 -0.0289 -0.0526
19966W        W76207  16.055  10.353  13.573  0.0491 -0.3088  0.0271
19967W        W76208  15.699  22.095   8.961  0.1900 -0.0034 -0.2287
19968W        W76209  13.108  12.173  23.416 -0.1031  0.1982 -0.1766
19969W        W76210  27.943  27.427   1.612 -0.2364 -0.0104  0.3346
19970W        W76211  34.029   5.337  24.033  0.3148  0.0667  0.0265
19971W        W76212  18.395  12.825   9.861  0.2306  0.2336 -0.1172
19972W        W76213   2.200  24.972  18.947 -0.0323 -0.0363  0.0516
19973W        W76214  32.910   5.003   0.029 -0.2604 -0.0216 -0.2477
19974W        W76215  18.557   3.998   1.624 -0.1657 -0.1221 -0.0229
19975W        W76216  19.222  25.361   9.062  0.1825 -0.2245  0.2866
19976W        W76217   8.010  27.915   2.083  0.1901 -0.1456  0.6452
19977W        W76218  26.711  26.923  11.220  0.0327 -0.0658 -0.1175
19978W        W76219  24.061  19.711   0.367 -0.1158 -0.0880 -0.0154
19979W        W76220   6.287  27.846  24.876 -0.1750  0.0450 -0.2417
19980W        W76221  12.317   8.882   7.273 -0.3300  0.3163  0.0373
19981W        W76222  31.752  10.938  10.910  0.1983  0.1353  0.0966
19982W        W76223  12.379   0.058  10.024 -0.1199 -0.0885 -0.1459
19983W        W76224  18.364  15.572   4.081 -0.0505  0.0460 -0.0780
19984W        W76225   0.064  29.612  16.976 -0.2468  0.1601  0.0011
19985W        W76226   1.183  10.134  26.225 -0.1806 -0.1972 -0.0427
19986W        W76227  23.441  28.501  19.108  0.1055  0.1799  0.0886
19987W        W76228  31.642  30.207   4.896  0.1745  0.2141 -0.1659
19988W        W76229  15.741  24.308   9.047 -0.2240 -0.2672 -0.0516
19989W        W76230   7.120   9.002  25.407 -0.4060  0.2206  0.2099
19990W        W76231  23.949  19.729   1.605  0.2281  0.1951  0.0392
19991W        W76232  31.872  27.364  15.951  0.2891 -0.4215  0.2036
19992W        W76233  16.024  16.273  26.184  0.2812  0.0506 -0.0317
19993W        W76234  14.529  12.189   9.770 -0.2615 -0.0148  0.3012
19994W        W76235  31.664   0.845  20.704  0.0863 -0.0806  0.0010
19995W        W76236   2.166  28.616  25.723  0.4234  0.0887 -0.2523
19996W        W76237  31.377   9.614  17.835  0.1154 -0.1505 -0.5011
19997W        W76238  11.083   3.881  21.340  0.3926 -0.0920 -0.0006
19998W        W76239  32.805   2.099  20.574 -0.2023  0.0876  0.2895
19999W        W76240  15.641   8.087  22.625  0.1182 -0.0186  0.2659
20000W        W76241  25.822  21.907   8.974 -0.3462  0.0219  0.2229
20001W        W76242  10.137  16.490  22.573  0.0776  0.1007 -0.1388
20002W        W76243  33.806  26.120  17.368  0.1517 -0.0984  0.3657
20003W        W76244   3.363  13.853  15.322  0.0607 -0.1533 -0.0876
20004W        W76245  16.861   3.254  10.140 -0.0857 -0.0814  0.0141
20005W        W76246  17.972  23.403  11.185 -0.0377 -0.2179 -0.0144
20006W        W76247  13.479   7.372  21.069 -0.2165 -0.1612  0.2041
20007W        W76248   4.539  18.630   3.735 -0.0455  0.0047  0.0192
20008W        W76249  19.382  33.017   6.505  0.2591  0.2150 -0.1045
20009W        W76250  33.140  19.112  11.178  0.0860 -0.1516  0.1635
20010W        W76251   4.118  15.246   3.328  0.0315 -0.2156  0.2953
20011W        W76252  13.920  24.752  10.797  0.0023  0.1128  0.2757
20012W        W76253  34.737  21.591   8.297 -0.0837  0.0689  0.3185
20013W        W76254  29.846  23.206  10.922  0.3427  0.0054  0.1938
20014W        W76255  31.945  18.366  12.452 -0.2278  0.0540  0.0133
20015W        W76256   8.224  14.097  23.163  0.0766  0.1071 -0.2584
20016W        W76257  12.956  15.008   4.974 -0.0548  0.0422 -0.2038
20017W        W76258  28.507  11.956  25.137  0.1320  0.2721  0.2354
20018W        W76259   6.663  29.443   6.769  0.0989  0.0864 -0.6115
20019W        W76260  16.439   8.743   4.426  0.1650 -0.3337  0.1412
20020W        W76261  20.892   5.444   4.976 -0.2494  0.0519 -0.2079
20021W        W76262   2.957  21.257  23.808  0.0352  0.0712  0.1036
20022W        W76263  26.580  22.743   8.435 -0.3210 -0.1690 -0.2057
20023W        W76264  23.823  35.266   2.065 -0.2202  0.2734 -0.2814
20024W        W76265  31.649   0.688   6.570  0.0656  0.0153 -0.2400
20025W        W76266  29.007  32.123   3.292 -0.2361  0.1018 -0.0366
20026W        W76267   9.565   2.713  24.847 -0.0242  0.0664 -0.3166
20027W        W76268  20.763   6.240   1.139 -0.2464  0.0554  0.0534
20028W        W76269  19.875  27.390  24.568 -0.1315 -0.2561 -0.2036
20029W        W76270  26.916   7.840   1.973  0.0728  0.0462 -0.1871
20030W        W76271  25.641  25.765   8.228  0.2117  0.0373 -0.2660
20031W        W76272  16.755  32.797  24.179  0.0552  0.0553 -0.0195
20032W        W76273   3.086  10.122  17.577  0.3270 -0.0511 -0.3288
20033W        W76274  29.044  14.782  19.603 -0.0480  0.1767  0.0609
20034W        W76275   2.020  17.330  25.868  0.1272 -0.0069 -0.1873
20035W        W76276  20.990   7.890   4.107 -0.1606  0.0777  0.1154
20036W        W76277  16.479  14.042  25.657 -0.2236 -0.1385 -0.0365
20037W        W76278  12.832   9.309  10.617  0.1415  0.0490  0.0654
20038W        W76279   4.179   3.020   3.175  0.0269  0.0177 -0.0174
20039W        W76280   3.154  12.850  19.272  0.2150 -0.0929  0.2003
20040W        W76281  30.044  31.838   0.252  0.0590 -0.1706  0.2242
20041W        W76282  32.721  17.742  18.440  0.1627 -0.1377 -0.0347
20042W        W76283  16.046  24.986  11.604  0.0509 -0.1594  0.0348
20043W        W76284  11.863  22.533   4.957 -0.0199 -0.1051  0.4395
20044W        W76285  25.809  22.897  15.154  0.1003  0.1326 -0.2898
20045W        W76286   6.949   7.615  18.823  0.1325  0.2159 -0.0413
20046W        W76287  31.437  13.352  15.578  0.0543 -0.0205 -0.0277
20047W        W76288  29.147  26.198  13.157 -0.1144 -0.0858 -0.2874
20048W        W76289   2.462  31.439  23.162 -0.0626 -0.0235 -0.3515
20049W        W76290  24.768   7.244  13.358  0.1939  0.1797  0.1050
20050W        W76291  21.983   9.578   4.765  0.0074 -0.2642 -0.0981
20051W        W76292  29.197  34.047  20.310  0.0571  0.0305  0.0095
20052W        W76293  23.817   4.850  17.497  0.1672  0.0850  0.3281
20053W        W76294  23.962  21.448  23.155 -0.1028  0.1960  0.1802
20054W        W76295  24.246  29.060   0.071  0.0943  0.1113 -0.1107
20055W        W76296  16.682  11.436   8.351 -0.2253  0.1395 -0.0117
20056W        W76297  32.604  23.479  16.645  0.3108 -0.0356  0.1641
20057W        W76298   5.574  17.132  20.754 -0.2455  0.3072 -0.1525
20058W        W76299  13.474  26.555  23.089 -0.0083  0.0927 -0.3124
20059W        W76300   6.390   5.973  20.394 -0.2044  0.4719 -0.3441
20060W        W76301  11.268   0.449   7.961  0.2155  0.3688 -0.0949
20061W        W76302   5.665   3.058  23.615  0.2388 -0.3320 -0.1060
20062W        W76303   9.419  28.493   4.921 -0.0695  0.0756  0.1534
20063W        W76304   6.913   6.194  21.225 -0.0777 -0.1717 -0.1983
20064W        W76305   2.401   3.229   1.145 -0.1348  0.4527  0.1425
20065W        W76306  26.470  12.032  15.257  0.0618  0.3106  0.0335
20066W        W76307  14.598   8.743  22.976  0.0135 -0.1417  0.3321
20067W        W76308  35.229  14.499  11.577  0.4608 -0.0997  0.1230
20068W        W76309  30.978  26.939  14.771 -0.1801 -0.2374 -0.0736
20069W        W76310  10.895   3.753   0.194  0.0576  0.0535  0.1453
20070W        W76311   1.537   4.108  17.907  0.3157 -0.1722 -0.2182
20071W        W76312   4.420  22.236   3.926 -0.0136  0.2381  0.2052
20072W        W76313   1.419  33.266  19.107 -0.1369  0.0463  0.0156
20073W        W76314   8.890   2.626   4.289 -0.0325 -0.0369 -0.1244
20074W        W76315  24.845  10.084  24.793 -0.0021 -0.6220  0.1052
20075W        W76316  34.711  17.950   7.574 -0.1312  0.0290 -0.3585
20076W        W76317  33.376  33.781   1.617  0.1493  0.2922  0.1156
20077W        W76318  32.013  30.210  13.353 -0.2572  0.1169 -0.0782
20078W        W76319  18.108  19.175  24.138 -0.0167 -0.1894  0.0688
20079W        W76320  14.967  26.346   8.799 -0.0884 -0.1127  0.4046
20080W        W76321  30.178  14.573   7.670  0.0509 -0.1944 -0.0606
20081W        W76322  27.278  12.188   7.235  0.0590  0.1356 -0.1057
20082W        W76323  25.246  26.171  25.983  0.1339  0.3119 -0.2878
20083W        W76324  34.595  27.314  24.262  0.1847  0.1947  0.1992
20084W        W76325   8.667  21.286   7.148 -0.0352 -0.0438 -0.2628
20085W        W76326  26.497   1.445   4.019 -0.1401  0.6373 -0.1282
20086W        W76327  16.875  22.451  11.386 -0.0598  0.2167  0.2740
20087W        W76328   9.951   3.971   8.197 -0.0264  0.1527 -0.2580
20088W        W76329  23.482  25.476   1.640  0.1505  0.0655 -0.0602
20089W        W76330   3.712  29.867  24.468 -0.0029 -0.1318 -0.0665
20090W        W76331  23.966  16.362  16.189 -0.3284 -0.3493 -0.3120
20091W        W76332  30.433   1.438  18.208  0.1783 -0.0027  0.0680
20092W        W76333  10.327   2.317  24.240 -0.0227 -0.1979 -0.1276
20093W        W76334  17.435  26.957  24.711 -0.0400 -0.1560 -0.1495
20094W        W76335   7.824  21.908  25.469  0.1244 -0.1645 -0.0765
20095W        W76336  25.681   5.150   0.500  0.0045 -0.0526 -0.3418
20096W        W76337  23.364  11.260   2.979 -0.0750 -0.0809  0.3329
20097W        W76338  22.494   8.868  15.634 -0.1719  0.1296  0.1983
20098W        W76339  35.224  29.238  20.761  0.0428 -0.0038  0.2631
20099W        W76340   3.194  11.946  16.702  0.1852 -0.0615 -0.0093
20100W        W76341  16.784  30.634  23.335 -0.2415  0.3252 -0.0090
20101W        W76342   9.136  27.610  23.032 -0.0107  0.0252  0.1188
20102W        W76343   1.702  24.420  25.076  0.0538  0.0669 -0.0750
20103W        W76344   9.676  21.254  16.264  0.0402  0.0331  0.2787
20104W        W76345  34.376   0.024  21.973 -0.1111 -0.2744  0.0018
20105W        W76346  29.916  14.947  20.735  0.0394 -0.1100 -0.0127
20106W        W76347  31.176  15.795  26.223 -0.0034  0.0660  0.0979
20107W        W76348  24.117   3.849  15.062  0.2330  0.0487 -0.1084
20108W        W76349   2.527   5.301  23.575  0.1588  0.1965 -0.1382
20109W        W76350  33.373   1.977  23.399  0.1549 -0.1407  0.2068
20110W        W76351  34.459   6.322   6.532  0.2462  0.0587  0.1872
20111W        W76352   3.945  27.325   8.324  0.1660 -0.1361  0.0231
20112W        W76353  19.970   1.906  17.127  0.1431  0.1539  0.1767
20113W        W76354   2.888   0.920  15.970 -0.3362 -0.2862 -0.0691
20114W        W76355   7.908  10.577  11.894  0.2454 -0.0662  0.4917
20115W        W76356  35.094  20.155  21.652  0.2213 -0.3606  0.1255
20116W        W76357   8.390  34.667   8.406  0.1236 -0.1743  0.1633
20117W        W76358  26.106   5.020   1.718 -0.0622  0.1876  0.3626
20118W        W76359  28.395  27.647  18.111  0.0237  0.1093 -0.1197
20119W        W76360  32.088  28.675  16.777 -0.1594 -0.0182  0.1619
20120W        W76361  25.399  17.436  21.867 -0.0023  0.1733 -0.1039
20121W        W76362  31.708  11.077  25.986  0.1359 -0.0901 -0.3270
20122W        W76363  16.244   3.252  21.711  0.1049  0.5634 -0.0608
20123W        W76364   5.972  10.526   7.321 -0.0922  0.0383  0.1481
20124W        W76365  13.551  28.323  24.781 -0.4298  0.0479  0.0660
20125W        W76366  25.241  10.250  12.167 -0.3256  0.1213  0.4794
20126W        W76367  26.343  15.627   9.023 -0.0443 -0.0309 -0.0774
20127W        W76368   4.730  11.594  15.357  0.0367  0.2879  0.2905
20128W        W76369  25.540  10.803  11.394 -0.0185  0.1956 -0.1827
20129W        W76370  29.276   8.082   2.419  0.4068 -0.0481 -0.2234
20130W        W76371   6.228  11.913  10.883 -0.0908  0.1235 -0.1468
20131W        W76372  34.472   7.909   3.259  0.0517 -0.1352 -0.0603
20132W        W76373  27.978  13.848  22.109  0.1196 -0.0109 -0.0446
20133W        W76374   5.320  32.463  10.265  0.3057  0.2402  0.0583
20134W        W76375  16.540   6.523  24.939  0.1368 -0.1360 -0.0115
20135W        W76376  13.994  16.363   5.368  0.1717  0.1520 -0.2793
20136W        W76377   3.078   1.827   6.467  0.2455  0.0933 -0.0507
20137W        W76378   7.869  19.337   2.301 -0.0422  0.1745 -0.0704
20138W        W76379  23.889  17.966  22.446  0.2295 -0.1302  0.1376
20139W        W76380  32.627  31.941  13.387 -0.1622 -0.0783  0.2622
20140W        W76381  10.482  20.099   7.026  0.2167  0.0198 -0.1635
20141W        W76382  34.919  28.982   0.401 -0.1395  0.0108 -0.0877
20142W        W76383  10.694  31.904   3.692 -0.1165 -0.0738 -0.1517
20143W        W76384   1.396  33.197   3.290 -0.0804  0.0700  0.1080
20144W        W76385   1.155  27.635   5.973 -0.0342  0.0936 -0.0153
20145W        W76386  12.282  30.133  22.366  0.0904  0.0916 -0.0282
20146W        W76387   9.584  14.654  12.083 -0.0016 -0.1853 -0.1063
20147W        W76388   0.098  27.419   2.862  0.0842  0.1045 -0.1106
20148W        W76389  22.682  28.585  13.246  0.1979 -0.0801 -0.0957
20149W        W76390  15.131  20.100  14.873  0.2075 -0.1437 -0.3790
20150W        W76391  26.880  20.625   6.290 -0.0645  0.2562  0.4324
20151W        W76392  16.754  14.150   5.122  0.1939 -0.0380 -0.0421
20152W        W76393   8.938  31.080  14.075  0.1866 -0.1451  0.0901
20153W        W76394   9.276   3.519   5.261  0.2898 -0.0283  0.2035
20154W        W76395  33.266  14.630  24.518  0.0552  0.0264 -0.1779
20155W        W76396   6.657  22.412   1.604 -0.0877  0.0593 -0.1269
20156W        W76397  19.843  32.259  21.640  0.3507 -0.1049  0.0425
20157W        W76398  13.087  30.354  25.335  0.2722  0.3118  0.2005
20158W        W76399  24.774  33.885  21.285 -0.0922  0.0271 -0.3029
20159W        W76400  27.348   0.711  14.277 -0.1383  0.1579 -0.2375
20160W        W76401  16.165  15.181  11.222  0.3156  0.2219  0.3296
20161W        W76402   3.498  25.103   1.993 -0.0810 -0.0684  0.0310
20162W        W76403   0.486   7.590  20.002 -0.3376  0.2302 -0.2538
20163W        W76404   7.324  13.794  11.642  0.0634 -0.0453 -0.0511
20164W        W76405   7.236   6.295  23.760 -0.0169 -0.3099  0.0230
20165W        W76406  31.146  27.076   3.179  0.3346  0.1333  0.0938
20166W        W76407   7.825   5.388  23.848 -0.0891 -0.0979 -0.2999
20167W        W76408  24.061   6.270  14.145  0.0631 -0.1900 -0.1194
20168W        W76409  21.469  20.041  24.168  0.0692  0.0095  0.1349
20169W        W76410  20.211   2.846   0.834 -0.0280 -0.0052  0.2421
20170W        W76411   5.665   7.732  23.085  0.0347 -0.2498 -0.0550
20171W        W76412  20.761  10.486  20.739 -0.0647  0.1539 -0.1288
20172W        W76413  35.167  23.596  11.802  0.0975  0.0536 -0.1468
20173W        W76414   7.951   0.526   8.209  0.2045  0.0093  0.3929
20174W        W76415  22.666  14.207  23.376 -0.2629 -0.0628  0.0366
20175W        W76416  23.455  28.325   0.032 -0.2216  0.1244 -0.1679
20176W        W76417  20.532  24.493   8.983  0.1160 -0.0967  0.1163
20177W        W76418  20.912  23.724   6.619  0.0559  0.1205  0.1204
20178W        W76419  33.952  14.179  10.953 -0.1655  0.0235  0.0417
20179W        W76420   7.469  28.764  13.819  0.3163  0.0632 -0.2397
20180W        W76421  25.508  22.983  24.284 -0.4475  0.2258  0.2371
20181W        W76422  12.252  11.218  13.580  0.1906 -0.1912 -0.2256
20182W        W76423   5.089  24.633   6.329 -0.1053  0.2362 -0.1750
20183W        W76424  15.307  30.066  10.063  0.0944  0.0149  0.3084
20184W        W76425  18.581  15.499  18.570  0.2173  0.0039  0.2284
20185W        W76426   7.868  12.596  22.439  0.1757 -0.0941  0.2893
20186W        W76427   7.939   3.626   7.460 -0.1506  0.0097 -0.0424
20187W        W76428   9.583  14.905  21.574  0.4465  0.0399  0.3942
20188W        W76429  19.453   4.480   4.706 -0.1402  0.0755  0.1458
20189W        W76430  17.709  21.225  23.940 -0.1314  0.3614 -0.0713
20190W        W76431  34.960  29.149  17.840  0.0381 -0.2578 -0.0591
20191W        W76432  31.708   7.142  14.882 -0.1326  0.4143  0.0265
20192W        W76433  15.202   6.837   2.422  0.2361  0.1614  0.0031
20193W        W76434  29.507  22.521  15.097 -0.0125 -0.1018 -0.0050
20194W        W76435  34.372  11.661   1.220 -0.0643 -0.1004 -0.1589
20195W        W76436  14.637  12.596  13.055 -0.2419  0.2474 -0.4585
20196W        W76437   6.971   1.703  12.881  0.0395 -0.0452  0.1924
20197W        W76438  13.333  18.690  11.963  0.3368 -0.0932 -0.0426
20198W        W76439   4.203  11.376  17.675  0.1353  0.3747 -0.2817
20199W        W76440  14.555  35.325   4.390 -0.0261  0.2768  0.0810
20200W        W76441  14.068  29.450  14.276  0.1595  0.3714  0.0145
20201W        W76442  25.458  10.796  24.737 -0.4085 -0.0928 -0.1786
20202W        W76443   8.954  14.156   8.556  0.2933 -0.0349 -0.0291
20203W        W76444  18.040  32.111   6.514 -0.0968 -0.0655 -0.0822
20204W        W76445   8.920  31.583  22.791  0.2758  0.1450  0.2767
20205W        W76446   1.565  22.025  25.399 -0.4675  0.0183  0.0780
20206W        W76447   6.114  31.489   9.265 -0.0154  0.1002  0.0855
20207W        W76448  28.108  30.482  18.930 -0.0549  0.0802  0.2662
20208W        W76449   9.373  33.743  16.021  0.1985 -0.0255 -0.2927
20209W        W76450  33.630  17.907  26.147 -0.1258  0.0607  0.2001
20210W        W76451  25.970  34.805  24.927  0.2416 -0.2339  0.1682
20211W        W76452  33.711  10.961  21.755  0.1509  0.0460 -0.1219
20212W        W76453   6.876  18.066   8.803 -0.1393 -0.5867 -0.0102
20213W        W76454  17.062  19.496  12.873  0.2194 -0.0020  0.1314
20214W        W76455   0.132   3.317  25.113  0.1952 -0.3126 -0.0796
20215W        W76456   4.915   3.300  20.446  0.0033 -0.2843 -0.1657
20216W        W76457  27.502   4.852   1.809  0.0786 -0.0234  0.0759
20217W        W76458   4.364  27.296  25.581  0.0112  0.0900 -0.1600
20218W        W76459  24.889  20.052  14.110 -0.0681  0.0048 -0.1420
20219W        W76460  12.570  18.408   4.435  0.0565 -0.2289  0.1060
20220W        W76461  18.633   1.707  20.918  0.1326 -0.2776 -0.0625
20221W        W76462  10.020  11.582  21.047  0.1474 -0.0256 -0.0566
20222W        W76463  31.596  16.733  20.402  0.0214 -0.2101 -0.0188
20223W        W76464   9.810  25.787  14.375 -0.0276 -0.2296  0.2656
20224W        W76465  33.639  15.491  17.168 -0.2210  0.1190 -0.2197
20225W        W76466   3.259  29.844   7.482  0.2346 -0.2028 -0.0146
20226W        W76467  18.045  34.584  15.288  0.1075 -0.1843 -0.4290
20227W        W76468  26.103  31.895  12.219 -0.1433  0.2655  0.2449
20228W        W76469  27.030  12.268   9.300  0.0478 -0.1769  0.3291
20229W        W76470  26.009  23.047  11.809 -0.0251  0.2776 -0.0568
20230W        W76471  14.337  28.684   6.423 -0.0656 -0.0851 -0.1673
20231W        W76472  28.704   5.091  21.728 -0.0799  0.2325  0.2086
20232W        W76473  19.637  20.600   0.789  0.1336  0.2725 -0.1446
20233W        W76474  26.120  15.003  16.185 -0.1645 -0.1451 -0.1767
20234W        W76475  28.391  29.987   5.310 -0.2809  0.0744 -0.3038
20235W        W76476  31.145  10.249   8.842 -0.1798  0.1496 -0.0319
20236W        W76477   0.573  21.946  25.236 -0.0262  0.0901  0.0740
20237W        W76478  25.484   3.663  15.741  0.2342  0.3267  0.2784
20238W        W76479  18.462  24.448  10.963 -0.2166  0.0595  0.2282
20239W        W76480  10.700  28.294   4.064 -0.2233 -0.1031 -0.1215
20240W        W76481   9.923   5.224   7.660  0.6648 -0.1606  0.2682
20241W        W76482   1.657   6.957  19.216  0.0901 -0.1573 -0.0461
20242W        W76483  14.111  12.916   4.088 -0.1123 -0.3032  0.1986
20243W        W76484  32.240  26.157  17.052  0.0212  0.3029  0.2003
20244W        W76485  13.979  32.282  14.093  0.2566  0.1946  0.0086
20245W        W76486   7.886  19.251   1.744 -0.0363  0.0606 -0.1560
20246W        W76487   8.249  20.385   2.867  0.2869  0.1377 -0.2742
20247W        W76488  12.561  34.951   4.157 -0.0703  0.0401  0.0249
20248W        W76489   8.633   1.343  12.595  0.2232  0.2694 -0.0427
20249W        W76490  31.226   6.646  10.438 -0.1382  0.0784  0.0196
20250W        W76491  26.263   7.813   1.470  0.1424  0.1156  0.0616
20251W        W76492  21.618   6.537  15.945  0.0512  0.0271 -0.1040
20252W        W76493  33.465  17.750  17.581  0.3195 -0.1968 -0.0246
20253W        W76494  24.243  25.064  18.550  0.1082 -0.1538 -0.0023
20254W        W76495  10.503   4.504   9.632 -0.2205 -0.0828 -0.2341
20255W        W76496  29.258   4.495   2.019 -0.3282 -0.4058 -0.0227
20256W        W76497  19.889  28.547   4.062 -0.4500 -0.0502  0.1171
20257W        W76498   1.476  34.185  19.139  0.1996 -0.0733  0.2254
20258W        W76499  35.030   6.516  23.858  0.0479  0.2659  0.1441
20259W        W76500  34.885  13.871  23.360 -0.0025  0.0805 -0.0929
20260W        W76501  17.655  33.783  23.144 -0.3469  0.2059 -0.0906
20261W        W76502  13.267   7.525  12.470  0.0468  0.1944 -0.1434
20262W        W76503  29.220  31.883  13.879 -0.0898 -0.0101 -0.2216
20263W        W76504   6.277   3.982  19.916  0.1658  0.2868  0.1039
20264W        W76505  33.903  34.357   3.315 -0.2474 -0.1158 -0.1838
20265W        W76506   5.829   5.159  19.732  0.1900  0.3959 -0.1912
20266W        W76507  35.071  11.386  22.212 -0.1705  0.0198 -0.1217
20267W        W76508  32.162  12.632  26.241 -0.0036 -0.0196  0.0665
20268W        W76509  14.856  19.966   3.429  0.1990  0.0238  0.0576
20269W        W76510  29.143   2.018  11.607 -0.2536  0.4403 -0.2010
20270W        W76511  10.571  12.538   7.917  0.1447 -0.2296 -0.3548
20271W        W76512  14.361  16.218  10.892  0.2882 -0.0910  0.0119
20272W        W76513  10.707  27.638   6.281 -0.1585  0.0449  0.1957
20273W        W76514  25.447  28.058  25.629  0.1287  0.2961 -0.1860
20274W        W76515  14.281  28.447   9.213 -0.1358  0.0771  0.0976
20275W        W76516   0.477   3.659  25.409 -0.2301 -0.1504 -0.0566
20276W        W76517  13.944   5.464  12.873 -0.1404  0.2088 -0.1176
20277W        W76518  29.191  31.252  24.224 -0.1575  0.2408  0.0746
20278W        W76519  22.841   1.200  22.755 -0.0757 -0.4471 -0.1805
20279W        W76520  34.758  21.308  22.117  0.0247  0.2385 -0.0319
20280W        W76521  30.836   1.277  16.818  0.5019  0.3091 -0.1432
20281W        W76522  29.305   4.969  17.760  0.1150 -0.0241 -0.1357
20282W        W76523   8.109  10.363   3.528 -0.5334  0.1286 -0.1224
20283W        W76524  33.465   7.957  23.669 -0.0924 -0.2054 -0.1941
20284W        W76525   1.539  32.268   0.463  0.0391 -0.3691  0.1968
20285W        W76526  22.239  17.047  25.747  0.0176  0.0044 -0.1229
20286W        W76527  33.717  21.369   1.160 -0.1717  0.1405  0.2374
20287W        W76528   2.702   3.950  16.428 -0.2877 -0.1095 -0.0579
20288W        W76529  26.033  26.961  18.947  0.1613  0.1934  0.4211
20289W        W76530   7.210  10.373  11.187  0.0910 -0.5053  0.1424
20290W        W76531   9.238   0.022  22.089 -0.0390 -0.1672 -0.3446
20291W        W76532  12.669  32.871  25.236  0.0490 -0.2777  0.2411
20292W        W76533  23.831  15.256  24.779  0.2315  0.0948  0.0862
20293W        W76534  27.187  22.542  18.964  0.1510  0.2836 -0.0342
20294W        W76535   5.803   4.153   1.778  0.0712 -0.1447  0.3135
20295W        W76536   5.966   5.900   5.265  0.0016 -0.0815 -0.2158
20296W        W76537   9.062  21.586  13.996 -0.1414  0.0432 -0.0863
20297W        W76538   0.535  33.815  21.661  0.0924 -0.1886 -0.1386
20298W        W76539  22.753  30.235  14.315  0.2849  0.1009 -0.2606
20299W        W76540  20.296  15.123  18.196  0.2776  0.2673  0.2071
20300W        W76541  31.201  24.842  20.729  0.4267 -0.1918  0.0767
20301W        W76542  21.683  31.801  24.851 -0.0195  0.2252 -0.1203
20302W        W76543  13.861  29.199   4.080  0.2727  0.0250 -0.0361
20303W        W76544  14.808  31.979   9.256 -0.1634  0.3115 -0.1651
20304W        W76545  34.834  19.703  20.101  0.1603 -0.0856 -0.3966
20305W        W76546  23.286   0.464   6.655 -0.2580  0.1877  0.1048
20306W        W76547   7.375  14.501  22.874  0.1297 -0.0547 -0.0005
20307W        W76548  33.911  24.348  23.456 -0.0963 -0.0391 -0.2770
20308W        W76549  21.154   1.079  24.121 -0.1554  0.2160 -0.0093
20309W        W76550   5.851  33.930   3.976 -0.1411  0.0451  0.0320
20310W        W76551   5.162  10.313   5.686 -0.3603  0.1148  0.0858
20311W        W76552  10.369   2.142   5.153 -0.1499 -0.1170  0.0177
20312W        W76553  32.611   2.022  19.311  0.0205 -0.0109  0.2782
20313W        W76554   9.232  15.367  18.394  0.2760 -0.0807  0.0274
20314W        W76555  28.437   5.625  12.071  0.0931  0.0539 -0.2733
20315W        W76556  12.333   3.722  20.238  0.0986  0.0663  0.2224
20316W        W76557  20.146  27.236   2.487  0.0564  0.3691 -0.0620
20317W        W76558  25.144  29.848  20.607  0.0440  0.1795 -0.0010
20318W        W76559  13.458  19.439   1.115 -0.1248 -0.0938  0.0566
20319W        W76560  33.021  33.285  18.937  0.1557 -0.0530  0.0707
20320W        W76561  14.665  29.104  25.966 -0.0630 -0.0603  0.3877
20321W        W76562  12.643  14.320  18.795  0.1195 -0.1050 -0.0865
20322W        W76563   0.996  32.800   4.288 -0.3453 -0.0406 -0.1398
20323W        W76564  11.368  24.403   6.691  0.0090  0.1761  0.1254
20324W        W76565  15.771   5.812  18.256 -0.1327 -0.0412  0.0651
20325W        W76566   2.497  15.858  12.789  0.0130 -0.0185  0.1381
20326W        W76567  34.317  27.921  19.228  0.3521  0.0173  0.2003
20327W        W76568   7.218  18.816   6.883 -0.0881 -0.0524  0.0586
20328W        W76569  16.241  33.301   8.174  0.0493  0.1979  0.1355
20329W        W76570  17.295  26.709   4.533  0.1328  0.2752 -0.0961
20330W        W76571   9.611   7.110   1.570 -0.3905 -0.0512  0.2545
20331W        W76572  32.768   2.478  25.706  0.1171  0.1302 -0.1039
20332W        W76573  31.593  20.089  16.799  0.1159  0.0425  0.1605
20333W        W76574  25.459  19.442  20.664  0.2490  0.1201  0.1718
20334W        W76575   1.263  30.080   0.248  0.2243 -0.1542  0.1354
20335W        W76576   0.273  15.899  22.471 -0.1440  0.3280  0.1798
20336W        W76577  18.089  17.616  24.033  0.1610  0.1379  0.0830
20337W        W76578  21.704   7.298  17.956  0.1609  0.2695  0.0322
20338W        W76579  21.263  34.746  20.928 -0.1105  0.0672  0.1155
20339W        W76580  14.795  10.304  23.897 -0.1079 -0.0117  0.5676
20340W        W76581  27.742   7.661  11.790 -0.0337 -0.0210 -0.2648
20341W        W76582  22.977  27.972  25.648 -0.0199  0.1760 -0.3395
20342W        W76583   3.798   8.490  24.656 -0.0012 -0.0698  0.0409
20343W        W76584   0.521  24.347  12.916 -0.4080  0.2077  0.3094
20344W        W76585  32.535   1.739  14.732 -0.1017  0.0988 -0.0693
20345W        W76586  28.361  22.552   9.069 -0.0847  0.0235 -0.2350
20346W        W76587  15.749  14.782   7.985  0.1376 -0.1678  0.2123
20347W        W76588  24.310  25.973  22.793 -0.0672  0.0507 -0.1701
20348W        W76589  13.802  13.988  25.014  0.2177 -0.0276  0.3052
20349W        W76590  30.346  21.923   6.100  0.3744 -0.1492 -0.2139
20350W        W76591  27.788  12.101  24.429  0.0494  0.0038  0.0654
20351W        W76592  19.550  23.939  18.706  0.0169 -0.0489  0.1650
20352W        W76593  26.025   8.133  23.422 -0.1723 -0.0428  0.1060
20353W        W76594  12.292  23.652  14.725 -0.2381 -0.3600 -0.0526
20354W        W76595  20.032   1.025   7.642  0.1160 -0.2148  0.1083
20355W        W76596  29.413  29.078  22.227  0.2043  0.1726 -0.0617
20356W        W76597  14.176  17.619   4.042  0.0318  0.0570  0.1679
20357W        W76598  10.425  13.234  12.649  0.1590 -0.1043  0.2643
20358W        W76599   5.199   0.019  23.373  0.0435  0.1203  0.2137
20359W        W76600  17.203   0.230   3.148 -0.0041 -0.0909 -0.3604
20360W        W76601  28.273  34.120  23.975 -0.0651 -0.2312 -0.1017
20361W        W76602  33.139   9.184  13.344  0.1188  0.0416 -0.0630
20362W        W76603  35.103   3.144  18.799 -0.0793  0.1243  0.3764
20363W        W76604  26.064  20.356  14.166  0.1739 -0.0622 -0.2705
20364W        W76605  22.976  12.923  22.839 -0.0339 -0.0756  0.0631
20365W        W76606   3.632  31.473  10.615 -0.2273  0.2467 -0.0437
20366W        W76607  16.593   3.325  17.996 -0.0274 -0.0303 -0.0706
20367W        W76608  15.874   2.012  18.605 -0.1283  0.0099 -0.1070
20368W        W76609  21.678   9.999  24.627  0.1954  0.0382  0.2529
20369W        W76610   2.578   0.991   8.363  0.1699  0.0709 -0.1894
20370W        W76611   2.523  33.729  10.282  0.0654  0.0603  0.0498
20371W        W76612  10.339  27.247  16.069  0.3552 -0.0780 -0.0923
20372W        W76613  26.947   1.183  13.720 -0.1112  0.0311  0.2463
20373W        W76614  28.168  19.411  23.052  0.0295  0.0725 -0.0719
20374W        W76615   9.488  15.601   8.261 -0.1902  0.0387  0.2263
20375W        W76616  11.917  10.624   9.756  0.1933  0.0348 -0.0054
20376W        W76617   2.445  19.210  24.550  0.4895 -0.1634 -0.0277
20377W        W76618  26.988  19.849  19.541 -0.4348 -0.1875 -0.2750
20378W        W76619  31.523   4.604  23.217  0.0731  0.1052 -0.1270
20379W        W76620  25.798  10.183  12.284  0.0217 -0.1877 -0.0180
20380W        W76621  14.953  32.685   2.494 -0.0971 -0.2151  0.0341
20381W        W76622  13.270  26.680   7.135 -0.2822 -0.1704  0.1912
20382W        W76623  13.187   2.780  12.856 -0.3608  0.2373  0.0169
20383W        W76624  20.951  20.839   0.874 -0.0451 -0.0787  0.1273
20384W        W76625   0.964  35.063   6.152 -0.1378  0.0999 -0.0488
20385W        W76626  27.042  27.851  21.524  0.2735 -0.2456 -0.3431
20386W        W76627  18.819  29.903   0.909  0.1239  0.3955  0.0608
20387W        W76628  25.096  33.677   6.608 -0.0722  0.1832 -0.0362
20388W        W76629  33.601  15.201   1.134 -0.2519 -0.2993  0.2316
20389W        W76630  11.043  31.124   7.371  0.1560 -0.4184  0.3202
20390W        W76631  12.853  18.588   2.901 -0.1249  0.2591 -0.1291
20391W        W76632  16.391   5.342   3.905 -0.1010 -0.1461  0.1451
20392W        W76633   9.646   4.029  19.693 -0.2491 -0.1040 -0.0825
20393W        W76634  17.108  29.880  11.660  0.0031  0.0555 -0.3342
20394W        W76635  24.943  29.131   2.487 -0.0213  0.0609  0.1910
20395W        W76636   7.119   2.229  21.224 -0.2249 -0.3311 -0.1086
20396W        W76637  24.260   7.496  24.130 -0.0331  0.2545  0.2312
20397W        W76638   2.466  24.461  19.603  0.0501  0.0114  0.0561
20398W        W76639   5.321   6.599   6.999  0.0725  0.0782  0.0031
20399W        W76640  24.905   4.594  24.135  0.6397  0.1579  0.1419
20400W        W76641   4.922   1.403   3.128 -0.0550  0.0533  0.2891
20401W        W76642  11.744   9.163  21.693 -0.0027 -0.3993 -0.0714
20402W        W76643  33.005  14.501  20.624 -0.2592  0.1758  0.1023
20403W        W76644  26.019  11.799  15.250 -0.0254  0.1620  0.2725
20404W        W76645  22.050  30.999  16.769  0.1688  0.0540  0.0578
20405W        W76646  18.639  20.857  12.986  0.1842  0.2982 -0.3271
20406W        W76647  16.201  20.818  25.208 -0.3202  0.1593  0.3800
20407W        W76648   7.826   3.713   0.323 -0.0501  0.2484 -0.0578
20408W        W76649   6.078  15.693  24.761 -0.1445 -0.0472  0.0448
20409W        W76650  32.709  22.058  23.478  0.0110 -0.0299 -0.0556
20410W        W76651   7.644   0.973  25.821  0.2310 -0.4396 -0.1892
20411W        W76652   8.339  25.992   8.764 -0.0117 -0.3317 -0.0172
20412W        W76653  33.984  33.536  21.281 -0.0891  0.2500 -0.1822
20413W        W76654   1.380  15.077  21.823  0.0012 -0.3808  0.0330
20414W        W76655  13.360   2.134   2.600 -0.2156 -0.2050  0.1821
20415W        W76656  22.284  32.128  18.627  0.2656  0.1128  0.0092
20416W        W76657   4.554   7.312   1.439 -0.1157 -0.1317 -0.1128
20417W        W76658  28.617  11.505  19.190  0.2169 -0.1578 -0.0242
20418W        W76659  14.747   6.902  11.359  0.0068 -0.2916 -0.2851
20419W        W76660  10.661   0.182  21.185 -0.2095 -0.0486 -0.0584
20420W        W76661   0.097  20.130   9.678 -0.1901 -0.1008 -0.0013
20421W        W76662   4.860  25.822  25.227 -0.1060 -0.2666 -0.1986
20422W        W76663  27.897  32.884  21.964 -0.1752  0.0179  0.1141
20423W        W76664  31.980  25.828  13.217  0.0536  0.0337 -0.1405
20424W        W76665  25.411  28.258  11.524 -0.4606  0.2536  0.1248
20425W        W76666   5.869   4.925  21.442  0.0458  0.3335 -0.1928
20426W        W76667  32.861   9.834   0.640 -0.1633  0.2230  0.1170
20427W        W76668  18.562  31.632  24.723  0.0261 -0.1106  0.0676
20428W        W76669  33.750  20.442  15.781  0.0880  0.0888  0.1708
20429W        W76670  15.484  15.388  18.745  0.2740  0.0568  0.0023
20430W        W76671  16.192   2.350  21.370  0.1004  0.1413  0.0929
20431W        W76672   8.530  32.291  12.425  0.0607  0.2867  0.0996
20432W        W76673  33.675   4.212  12.469  0.1436  0.3243 -0.1680
20433W        W76674   0.910  33.572  23.541  0.2299 -0.2525  0.2916
20434W        W76675   6.347  12.041   5.734 -0.0966  0.1559  0.0958
20435W        W76676  29.406  34.185  18.791 -0.2553 -0.1654 -0.3767
20436W        W76677  32.004  30.866  20.383 -0.0919  0.0640  0.0774
20437W        W76678  34.622  20.254  25.888 -0.2223 -0.2526  0.1446
20438W        W76679   1.221   6.265  17.776 -0.2027 -0.1724 -0.1278
20439W        W76680  20.809  12.817   5.057 -0.1714  0.0079  0.2272
20440W        W76681   7.722  18.837   0.687  0.0791  0.0608 -0.1341
20441W        W76682  19.206  26.908   8.083  0.0598  0.0664 -0.0579
20442W        W76683   8.363  25.276   3.656  0.0062 -0.0152 -0.3456
20443W        W76684   3.978  34.219  25.896 -0.0169 -0.0784  0.0467
20444W        W76685  17.863  20.441   3.095  0.0152 -0.2280 -0.0247
20445W        W76686   2.186  19.032  21.473  0.1370  0.0468 -0.2013
20446W        W76687  30.382  11.720   0.744 -0.0570  0.2153 -0.2792
20447W        W76688  35.064  32.637  22.023 -0.1220 -0.0054 -0.1457
20448W        W76689  29.836   5.551  23.637  0.2136 -0.2008 -0.0756
20449W        W76690  15.832   2.590  19.982  0.1126 -0.0052  0.0878
20450W        W76691  11.796  30.569  16.864  0.1819  0.1803  0.0559
20451W        W76692  28.987  31.051  17.922 -0.0756 -0.2297 -0.1260
20452W        W76693  16.411  33.229   0.581 -0.0090  0.0120  0.1993
20453W        W76694  26.681  24.447  24.683  0.0155 -0.0068  0.2257
20454W        W76695  23.370  13.338   1.581 -0.0504 -0.0032  0.3902
20455W        W76696   5.136  23.886  21.960  0.0959 -0.0208  0.1832
20456W        W76697  31.301  25.971   9.597  0.1459 -0.2036 -0.3027
20457W        W76698  11.172  27.081   8.502 -0.2294 -0.1437 -0.2320
20458W        W76699  10.259  20.714   6.300  0.0770 -0.0932 -0.0988
20459W        W76700  23.802  25.920  19.870 -0.0606  0.2364  0.0630
20460W        W76701   9.797  12.166   4.067  0.0722  0.2802 -0.3933
20461W        W76702  29.407  12.154   8.912 -0.1899  0.1977 -0.0643
20462W        W76703  17.886  20.238   5.347 -0.1944  0.1103  0.3057
20463W        W76704  18.325  34.411  25.977 -0.0304 -0.0273 -0.3201
20464W        W76705  18.937  24.942  25.118  0.0923  0.1446  0.0310
20465W        W76706  31.062  26.899  15.255  0.0851  0.1770 -0.2613
20466W        W76707  28.672  13.000  17.465  0.1134  0.1113  0.3027
20467W        W76708  10.650  26.144   2.249 -0.0948  0.0389 -0.1946
20468W        W76709  11.331  30.379  22.884  0.2048 -0.1031 -0.2213
20469W        W76710  31.309  12.814  25.161 -0.1183 -0.0316 -0.2751
20470W        W76711  18.159  27.448   9.133  0.2681 -0.0698  0.0224
20471W        W76712  15.679  13.393  24.447 -0.0391  0.0325 -0.4622
20472W        W76713   2.823  31.150  18.883  0.2573  0.1494  0.0959
20473W        W76714  21.510  23.021  19.409  0.0148  0.2000 -0.0724
20474W        W76715   1.502   0.635   9.786  0.1223  0.0993 -0.1845
20475W        W76716  26.347  30.721  10.697  0.0481  0.3919  0.0515
20476W        W76717  33.658  25.747  23.601  0.1221 -0.0741  0.0536
20477W        W76718   3.399  29.635   5.844  0.4440  0.1023  0.0431
20478W        W76719  18.729  26.878   6.406  0.1070 -0.0438  0.0355
20479W        W76720  11.203  24.721   9.139  0.0529  0.3504 -0.2447
20480W        W76721  32.467   1.030   4.643  0.2868  0.1086 -0.1785
20481W        W76722  22.744  29.522   6.062  0.1292  0.1252  0.2817
20482W        W76723  20.470   4.292  23.235  0.0592  0.1261  0.2525
20483W        W76724  23.691   4.476  19.557  0.0133 -0.1611 -0.0276
20484W        W76725  29.635   2.666  17.693  0.0516  0.2346  0.0127
20485W        W76726  16.550  18.540  12.479  0.0452  0.0438 -0.4042
20486W        W76727   3.590  21.395   6.008 -0.0464 -0.2516 -0.0583
20487W        W76728  33.430   9.829   0.855 -0.1353 -0.2169  0.0175
20488W        W76729  18.376  19.837  10.368  0.5447 -0.1170  0.0875
20489W        W76730  30.735   1.666  23.380  0.2472  0.1449 -0.1212
20490W        W76731  28.113   8.388  17.180 -0.2076 -0.0719  0.0564
20491W        W76732   3.506   8.076  20.566  0.0367 -0.0192 -0.0950
20492W        W76733   5.947  34.600   7.654  0.0499 -0.1606 -0.0298
20493W        W76734  27.453  34.265  15.272  0.1475  0.0381  0.0598
20494W        W76735   1.840  34.380  17.335 -0.3301  0.0950 -0.0930
20495W        W76736  34.097  26.514  17.582  0.0868  0.1962 -0.0461
20496W        W76737   0.871  31.107   2.663 -0.2233  0.1496  0.0103
20497W        W76738   4.820  34.976  20.366  0.2517 -0.0300 -0.3449
20498W        W76739  34.003   5.092  14.227 -0.0815 -0.1405  0.0166
20499W        W76740  27.923  33.050  17.611  0.0474 -0.1959  0.1522
20500W        W76741  12.735  24.826   2.067  0.0375 -0.0781  0.1914
20501W        W76742  29.815   2.271  18.020 -0.1094  0.1194  0.0531
20502W        W76743  11.415   7.111   0.182 -0.1280 -0.0871 -0.1056
20503W        W76744   5.441   0.472   8.289 -0.3211 -0.0576  0.2232
20504W        W76745  24.669  19.290   1.092  0.1429 -0.2360 -0.4864
20505W        W76746  25.409  27.100  12.312 -0.1586 -0.2219  0.1318
20506W        W76747  20.008  34.327   2.093 -0.0691 -0.1517  0.0869
20507W        W76748   7.298  19.599  22.713 -0.5256  0.1274 -0.1912
20508W        W76749  31.258  27.956  22.204 -0.1633  0.3048  0.0980
20509W        W76750  24.418  24.554   2.349 -0.0356  0.0445 -0.0512
20510W        W76751   3.232  25.461  21.674 -0.1142  0.1767  0.2444
20511W        W76752  15.830  10.789   5.132  0.0028 -0.1810  0.0468
20512W        W76753  19.530   1.236  19.354  0.2868 -0.0831  0.0628
20513W        W76754  17.796   2.803  18.594  0.0909  0.0534  0.0665
20514W        W76755  21.114  21.290  21.432  0.2932 -0.3028 -0.1093
20515W        W76756   3.582  26.226   7.713  0.1934 -0.1094 -0.0141
20516W        W76757   4.820   4.503   9.246 -0.2320 -0.1191 -0.2756
20517W        W76758  31.156  13.658  22.287 -0.3157 -0.2582  0.3995
20518W        W76759  25.007  17.530  19.531  0.0867  0.3792  0.2610
20519W        W76760  15.522  12.218  19.941 -0.0276 -0.0364  0.0050
20520W        W76761  32.508  35.124  17.693  0.0011 -0.0771 -0.0478
20521W        W76762  25.841   2.117   0.821 -0.0617 -0.2575  0.1714
20522W        W76763   8.290  19.945   3.981  0.1893  0.1300  0.2201
20523W        W76764   6.441   3.548  11.081  0.1133  0.0184 -0.2378
20524W        W76765  27.516  12.855   9.585  0.1224  0.1919  0.3185
20525W        W76766   8.584   7.482   4.635  0.2001 -0.0110 -0.0264
20526W        W76767  32.457   4.965  22.429 -0.2875  0.2005 -0.1690
20527W        W76768  26.474  21.737  13.932  0.2791  0.1931 -0.2022
20528W        W76769  30.715   2.116  25.863 -0.0545 -0.1843 -0.1793
20529W        W76770  28.415  29.227  21.926 -0.2950  0.3531 -0.2299
20530W        W76771  18.832   5.708  19.026  0.2864 -0.3948  0.1619
20531W        W76772   2.919  21.050  13.634 -0.1245  0.3713  0.1098
20532W        W76773  28.228   6.904  16.812 -0.2057 -0.2876  0.1382
20533W        W76774  22.688   9.427  23.688  0.2997 -0.0802  0.2066
20534W        W76775  22.509  23.310  18.217  0.0737  0.0475  0.2231
20535W        W76776  20.005  28.078   3.973  0.1941 -0.1090 -0.0067
20536W        W76777   9.838  20.263  14.112  0.2053  0.3205 -0.1016
20537W        W76778  21.520   5.272   7.949 -0.3592 -0.0145  0.0238
20538W        W76779   2.040  25.169  18.419  0.0533 -0.1596  0.0565
20539W        W76780   5.055  16.428   5.097  0.2953  0.1628 -0.0895
20540W        W76781  28.952  10.418   8.456  0.1757 -0.1523 -0.1445
20541W        W76782  15.798   2.465  18.806  0.0038  0.3557 -0.2279
20542W        W76783   7.340   3.798   0.548  0.0448 -0.1989 -0.1774
20543W        W76784  28.319  28.281  13.617  0.1339  0.1890  0.4317
20544W        W76785  35.213  31.829   5.506 -0.1189  0.0930  0.1962
20545W        W76786  30.053  15.507  24.844 -0.1030 -0.1993  0.0134
20546W        W76787  28.408  10.466  14.384  0.1608  0.0010 -0.1070
20547W        W76788  21.138  16.573   5.294 -0.2433 -0.3237 -0.2566
20548W        W76789  34.945  22.064  13.875  0.1051 -0.0243  0.3247
20549W        W76790  17.292  29.372  19.302  0.0516  0.2206  0.0028
20550W        W76791   8.942   9.724   7.416  0.1796 -0.0671  0.0307
20551W        W76792  25.118  10.602  12.646  0.0708  0.1478  0.0520
20552W        W76793  13.367  11.747   6.110  0.2683 -0.1794  0.0798
20553W        W76794  15.187  30.044  24.147 -0.1669  0.0599 -0.0229
20554W        W76795  12.824   7.482  20.392  0.0905  0.3068 -0.1311
20555W        W76796  12.971   2.329  21.444  0.0068  0.1279  0.0916
20556W        W76797  15.262  23.329  23.229  0.1345 -0.2050  0.0307
20557W        W76798  19.157   0.803  15.742  0.3495  0.1547 -0.2737
20558W        W76799  32.950   5.025   6.479  0.0486  0.2228  0.3743
20559W        W76800  20.901   4.579   4.112  0.1337 -0.1051 -0.1439
20560W        W76801  14.754  19.993  26.169  0.0589  0.3622 -0.1737
20561W        W76802  27.436  23.851  22.900 -0.1859  0.0221  0.3432
20562W        W76803  29.514   9.819  17.131  0.1510  0.0246 -0.0789
20563W        W76804  17.900  15.787  18.072 -0.0151  0.3360 -0.2434
20564W        W76805  13.979   9.257   2.403  0.1742  0.1775 -0.1074
20565W        W76806  33.555  19.983  17.325  0.3655  0.0220 -0.1222
20566W        W76807  28.697  10.125   0.136 -0.3596  0.2257 -0.2830
20567W        W76808  34.965  31.969  25.643 -0.1864 -0.1311 -0.0076
20568W        W76809  25.651  21.600  18.031  0.3209  0.0246 -0.2956
20569W        W76810  30.322   9.359  18.928  0.0001 -0.1303 -0.1331
20570W        W76811  26.753   7.799  20.515 -0.2121  0.1821 -0.0866
20571W        W76812   4.474  27.184  11.695 -0.2156 -0.0635 -0.0379
20572W        W76813   9.280  18.947  24.157 -0.2133 -0.0381 -0.0258
20573W        W76814  33.460  20.582   0.601 -0.2644 -0.1785 -0.0383
20574W        W76815  25.252   5.898  14.438  0.1406 -0.4206  0.2666
20575W        W76816  19.028  28.506  24.011 -0.1059  0.0597 -0.0525
20576W        W76817  31.276   2.885   1.821  0.1283  0.1747  0.1307
20577W        W76818   1.730  33.797   5.196 -0.0414  0.3424  0.0002
20578W        W76819  23.901  28.262  19.942 -0.1428 -0.2426  0.0519
20579W        W76820  32.675  13.518   5.939 -0.1127 -0.1668 -0.1366
20580W        W76821  25.475   6.559  20.117 -0.2843 -0.1342 -0.0386
20581W        W76822  22.163   3.503  25.494  0.0611  0.3926  0.2676
20582W        W76823  19.732  15.901  18.180  0.0904  0.0483 -0.0119
20583W        W76824  26.311  30.068   0.272 -0.1387  0.1225 -0.0470
20584W        W76825  25.309  25.742  25.062  0.0617  0.2630 -0.1398
20585W        W76826   0.683  11.147   1.490 -0.3664 -0.2866 -0.1042
20586W        W76827   5.890   5.001  20.256  0.0877 -0.2012 -0.0142
20587W        W76828  10.248  20.637  23.873 -0.0746  0.2181 -0.3046
20588W        W76829  26.337  29.010   3.470 -0.0802 -0.1720  0.3383
20589W        W76830  28.453  16.238  12.866  0.0299  0.0444 -0.0489
20590W        W76831  19.018   4.482  23.965  0.0100 -0.0710  0.0570
20591W        W76832   0.447   8.905  23.171 -0.0011 -0.2413  0.2988
20592W        W76833  19.641  33.650  23.175 -0.0891 -0.0082  0.0967
20593W        W76834  26.261   7.114   1.984  0.3256  0.0479  0.0117
20594W        W76835  23.251   6.389   0.672  0.1817  0.2559 -0.3183
20595W        W76836  28.802  22.251   4.424  0.0720 -0.2097 -0.1198
20596W        W76837  16.654  10.911  10.148 -0.0641 -0.0516 -0.5052
20597W        W76838  28.875  12.465   0.167  0.0958  0.2737 -0.0337
20598W        W76839   0.601  24.436  21.045 -0.1206 -0.0112  0.2729
20599W        W76840   2.633  28.828   8.114 -0.0202  0.2052  0.0145
20600W        W76841  29.859   5.958  23.997  0.1059  0.1748  0.1088
20601W        W76842  16.017   9.845   1.637  0.0556  0.2010 -0.0350
20602W        W76843  30.310   7.722   8.999  0.0752  0.1330 -0.0820
20603W        W76844  23.847  10.760  18.729 -0.1663  0.2646  0.0021
20604W        W76845  16.756  16.519  12.518 -0.0161 -0.0283  0.3549
20605W        W76846  21.090   6.389  19.976 -0.2938  0.0248 -0.3260
20606W        W76847  11.478   1.467   6.626 -0.3031 -0.2631 -0.2070
20607W        W76848  13.295  31.993  10.328  0.1839 -0.1770 -0.1059
20608W        W76849  32.682   7.722  13.656 -0.0530 -0.1582 -0.2819
20609W        W76850   8.761  25.183   2.176 -0.0942 -0.4838 -0.1638
20610W        W76851  22.412   3.322   7.084 -0.3032  0.0985  0.0668
20611W        W76852   2.909  34.000  26.218 -0.0307 -0.0141 -0.1108
20612W        W76853   0.463  31.600   4.190  0.1052 -0.1403 -0.0186
20613W        W76854  14.604  19.539   0.119 -0.1133  0.3309 -0.0774
20614W        W76855  10.584   8.665  13.970  0.0169  0.1270  0.1013
20615W        W76856   7.871  28.888  10.237 -0.1182 -0.1807 -0.1960
20616W        W76857  12.890  21.066   8.561  0.1060 -0.1141 -0.0068
20617W        W76858  31.386  33.982   2.341 -0.1154  0.1892  0.2088
20618W        W76859  22.890   3.972  17.726 -0.2133 -0.1071 -0.1686
20619W        W76860  19.086   4.322  17.839  0.1851  0.0094  0.1351
20620W        W76861  20.298   5.371   0.568  0.0241 -0.0632  0.2375
20621W        W76862   7.459  29.582  24.491  0.2632 -0.0753  0.3090
20622W        W76863  21.254  13.370  19.477 -0.0791  0.3308 -0.0515
20623W        W76864  29.780   3.158  14.932 -0.2104 -0.3180 -0.1369
20624W        W76865  11.727   3.732   7.628  0.2186  0.0034 -0.0282
20625W        W76866   6.232   2.414   6.462  0.1741  0.3237 -0.0185
20626W        W76867  13.996  19.179  25.216  0.1469  0.1116 -0.1808
20627W        W76868   4.081  23.483  21.372 -0.2274 -0.2737  0.1656
20628W        W76869  21.142  22.878  17.849  0.2737 -0.0200  0.3182
20629W        W76870  22.533   4.633  24.528 -0.1104  0.0129  0.3340
20630W        W76871   3.165   5.133  24.955 -0.2650  0.1856 -0.1102
20631W        W76872  25.650  12.198  11.679 -0.0485 -0.1972 -0.3663
20632W        W76873  33.974  29.866  25.474 -0.2105 -0.0222 -0.3460
20633W        W76874  35.170  34.891  14.356  0.1080 -0.0581 -0.0645
20634W        W76875   0.554  27.794  17.974  0.1596  0.3068  0.1387
20635W        W76876  34.066  14.600  26.226  0.0395  0.1403 -0.2591
20636W        W76877   4.449  20.667   5.442 -0.0212  0.0125 -0.0231
20637W        W76878  12.200  22.503   7.621 -0.0518  0.0333  0.2010
20638W        W76879  16.380  18.386  13.389 -0.1168 -0.2863 -0.3412
20639W        W76880   6.329  19.700   4.573 -0.0862  0.1992 -0.2754
20640W        W76881  31.009  26.871  11.260 -0.0147  0.0180  0.1368
20641W        W76882  27.634  34.412   4.880 -0.1679 -0.1881 -0.2318
20642W        W76883  31.820   7.440  22.892  0.0939  0.0713  0.1473
20643W        W76884  21.294  21.995  25.922  0.2934 -0.2049  0.0222
20644W        W76885  33.949  30.702  14.088 -0.1071  0.1885 -0.0060
20645W        W76886  28.445  29.760  24.812  0.0404  0.2295  0.0450
20646W        W76887  11.078  21.905   9.970  0.1723 -0.2172 -0.1164
20647W        W76888  11.361   9.623   3.185 -0.3948 -0.0590 -0.0114
20648W        W76889   4.712   1.252   5.846  0.0236 -0.2145  0.2061
20649W        W76890  17.225  32.272   7.042 -0.0102 -0.1688 -0.0710
20650W        W76891  12.787  34.920   1.711 -0.0250  0.1748 -0.1086
20651W        W76892   7.705  33.842   2.417  0.1131 -0.3068  0.0102
20652W        W76893  16.023  13.027  12.825  0.0886  0.3379 -0.0861
20653W        W76894  16.440  10.393  18.990 -0.1544  0.1325  0.1637
20654W        W76895  32.668   7.623  12.851 -0.0444 -0.2829  0.1411
20655W        W76896  29.081  20.568  20.573 -0.3264  0.2949  0.0885
20656W        W76897  10.501  28.006  25.054  0.0428  0.0253 -0.1238
20657W        W76898  12.265   1.003   3.994 -0.1761 -0.0427 -0.1651
20658W        W76899  12.167  10.653  25.798 -0.1008 -0.3827 -0.1909
20659W        W76900  31.823   7.236  13.745  0.2379 -0.1490 -0.0429
20660W        W76901  20.998   4.240  25.503  0.2150  0.0578  0.1396
20661W        W76902  25.338  24.087   0.836 -0.0379 -0.0264  0.1489
20662W        W76903  31.048  29.987  15.592 -0.3948  0.3075 -0.1489
20663W        W76904  10.328  33.358   2.598 -0.3013  0.1278  0.1648
20664W        W76905  20.197  22.769   3.974 -0.2306 -0.0045  0.3169
20665W        W76906   7.914  10.921   5.046 -0.2687  0.2196 -0.0392
20666W        W76907  28.015  27.494  24.866  0.3681  0.0112  0.0192
20667W        W76908  16.899  23.405  23.695  0.1619  0.2716  0.0667
20668W        W76909  29.685   5.232   1.785 -0.1384 -0.1412 -0.2970
20669W        W76910  20.977  21.189   3.441 -0.1333  0.3075 -0.0668
20670W        W76911  17.333  24.116   1.842  0.0479 -0.3563 -0.5082
20671W        W76912  11.598  24.492  16.841 -0.0356  0.1254  0.1490
20672W        W76913  34.484  26.302  23.987 -0.0145 -0.2208  0.0180
20673W        W76914   7.058  26.930  23.764 -0.1920  0.0665 -0.0210
20674W        W76915  22.489  26.489  15.665  0.2431 -0.3929 -0.0991
20675W        W76916  33.788  31.705  16.093  0.1585  0.1646 -0.1822
20676W        W76917  33.905  22.041  11.104 -0.0611  0.1525 -0.0115
20677W        W76918  24.330   1.070  25.738  0.0217  0.0040  0.0294
20678W        W76919   5.083  28.719  24.497  0.0541  0.1920 -0.1480
20679W        W76920  17.055   7.504   7.074  0.3795 -0.2871 -0.1697
20680W        W76921  30.381  16.573   4.480  0.1559 -0.0872  0.0203
20681W        W76922  19.019  25.561   3.581 -0.1286 -0.3873 -0.0273
20682W        W76923  27.931  31.031  23.856 -0.0763  0.2345  0.2685
20683W        W76924  19.010  21.694   6.555  0.0128  0.1893  0.0158
20684W        W76925  18.599   9.122   5.952 -0.2930 -0.0823 -0.1413
20685W        W76926  12.138   5.284  26.138 -0.1387 -0.0409 -0.1461
20686W        W76927  15.127  20.756   0.460 -0.0380 -0.1620 -0.1879
20687W        W76928   2.523   2.072   4.450  0.0624 -0.0775 -0.1646
20688W        W76929   2.266  31.519  10.946 -0.2583 -0.3279 -0.1401
20689W        W76930   4.829  11.054  17.780 -0.1164  0.1295 -0.1247
20690W        W76931  35.256   2.460  24.888  0.1015  0.0611  0.1085
20691W        W76932  34.467  30.699  14.758  0.0192 -0.1841 -0.0227
20692W        W76933  11.404  23.360  24.536  0.1788  0.4447  0.1617
20693W        W76934   8.371  24.896  12.180 -0.1429  0.1844 -0.1845
20694W        W76935  16.558  15.306  21.084  0.1791  0.1218  0.2442
20695W        W76936   9.303  14.921  12.510  0.3399 -0.2822  0.0581
20696W        W76937   1.785   0.416   6.184 -0.0416  0.0209 -0.2526
20697W        W76938  34.934   0.181  15.396 -0.1341 -0.0082 -0.3337
20698W        W76939  19.996  28.086   5.209 -0.1045 -0.0212 -0.0777
20699W        W76940   7.837  34.961   5.551  0.1263 -0.1602  0.0830
20700W        W76941   6.075   2.492   5.929  0.1615  0.2503  0.4622
20701W        W76942  24.285  29.749  19.244 -0.2254  0.1983  0.0503
20702W        W76943  33.773   3.403   6.113 -0.3166  0.3033 -0.0990
20703W        W76944  35.149  24.202   3.246  0.4133 -0.1914 -0.1453
20704W        W76945  28.237  33.652  17.265 -0.0549 -0.1833  0.1251
20705W        W76946  34.827  33.227  16.455  0.0101 -0.0102 -0.2682
20706W        W76947   0.265  12.187  19.895  0.0508 -0.1079 -0.2681
20707W        W76948  15.826  31.803  22.008  0.1090  0.0954  0.3130
20708W        W76949  18.313  13.716   9.666 -0.3353  0.0862 -0.3289
20709W        W76950  13.789   6.718  12.736 -0.0890  0.0031 -0.0745
20710W        W76951  32.687  11.547   0.603 -0.0634 -0.0030 -0.1491
20711W        W76952  31.414  32.477  18.956  0.0047  0.1953 -0.2597
20712W        W76953   2.362   2.531   2.537  0.0414  0.2404 -0.1170
20713W        W76954   3.982   3.892   6.259 -0.0670  0.0630 -0.0506
20714W        W76955  29.555  30.561   4.309 -0.1107 -0.1342  0.0172
20715W        W76956  32.320  13.622  15.714  0.0037 -0.1232  0.2203
20716W        W76957  12.466  33.483   2.006  0.3909 -0.1635 -0.2104
20717W        W76958  17.477   4.263   2.718 -0.1562 -0.0944 -0.3551
20718W        W76959  26.252   4.555  16.586 -0.0844 -0.0289  0.1117
20719W        W76960  14.440  12.529   0.474 -0.3740  0.0978 -0.0073
20720W        W76961  26.671  20.771  10.874  0.1754 -0.0816  0.0263
20721W        W76962   6.381   2.076  21.938  0.2356 -0.2988 -0.0176
20722W        W76963   4.220  30.431  19.859 -0.1690  0.2011  0.2023
20723W        W76964  18.074  19.673  10.798 -0.4481  0.0131 -0.0652
20724W        W76965  21.407  24.537  16.186  0.2461 -0.4588 -0.1945
20725W        W76966  33.917  26.543  18.824  0.0924  0.0839 -0.1109
20726W        W76967  20.175   6.149  20.368 -0.0641 -0.1163 -0.2589
20727W        W76968   2.453  31.595   5.039 -0.1853  0.2814 -0.1395
20728W        W76969  28.837  30.592  24.416  0.3687 -0.0103 -0.3459
20729W        W76970  26.916  17.338  25.309  0.0902 -0.2909 -0.3503
20730W        W76971  33.727  31.154   6.366  0.2512 -0.2071 -0.0963
20731W        W76972  19.758  35.165  18.754 -0.0717  0.0078 -0.0016
20732W        W76973   0.192   8.753  12.050 -0.0059 -0.0706 -0.0412
20733W        W76974  10.460  21.456  16.197 -0.2124  0.1578 -0.1349
20734W        W76975  23.347  12.702  15.158  0.2470 -0.0742  0.0274
20735W        W76976  11.198  14.547  13.028  0.0566  0.0447 -0.1379
20736W        W76977  32.569   2.840  25.925  0.0268 -0.1140  0.1800
20737W        W76978   4.201   4.426  19.487 -0.1124  0.0160  0.2520
20738W        W76979  18.435   8.988   2.894 -0.0116 -0.1436 -0.1538
20739W        W76980  14.178  12.135   2.952 -0.3038  0.2744 -0.1745
20740W        W76981  34.491  20.526  18.028  0.1852 -0.1545  0.2536
20741W        W76982  12.688  18.466   8.663 -0.3091 -0.3853 -0.0983
20742W        W76983  32.087   2.566   3.431 -0.0335  0.3907 -0.0648
20743W        W76984  25.846  32.983  14.745  0.4826  0.1041  0.1654
20744W        W76985   3.249   5.418  19.677  0.0340 -0.1738  0.0382
20745W        W76986  31.159  10.562  24.791 -0.3914 -0.0033  0.2609
20746W        W76987   0.327  16.222  21.886 -0.1332 -0.1725  0.0551
20747W        W76988  31.376  28.144  14.063  0.0014 -0.0918 -0.0809
20748W        W76989  12.550  16.654  21.261 -0.2309  0.0917 -0.1573
20749W        W76990  14.288  29.942   4.282  0.1787  0.1673  0.0762
20750W        W76991  34.941  17.749  10.490  0.0030 -0.2671 -0.1797
20751W        W76992  16.235  31.496  18.743 -0.0074 -0.1155  0.0264
20752W        W76993   4.862  28.188  25.580  0.1668  0.2711 -0.0406
20753W        W76994   7.848  17.016   2.146 -0.0538  0.0170  0.0504
20754W        W76995   7.867  14.017   2.195 -0.1885 -0.1678  0.0965
20755W        W76996  32.665  19.340  11.313 -0.1922  0.0844  0.0798
20756W        W76997  30.629  21.359   5.246  0.1337 -0.0143  0.1405
20757W        W76998  14.554  22.513   7.183  0.1964  0.1371  0.0218
20758W        W76999  26.177  32.929  19.811  0.0111 -0.0474  0.3503
20759W        W77000  32.901  30.765   2.898  0.0435  0.2547  0.1490
20760W        W77001  32.098  18.148  22.430 -0.0028  0.1076  0.2979
20761W        W77002   0.288  24.799  19.879  0.3709  0.1253 -0.1314
20762W        W77003  12.474   9.659  24.662  0.0513  0.3608  0.1524
20763W        W77004  10.398   5.226   4.123  0.1290 -0.0446  0.4788
20764W        W77005  34.557  23.484  23.049  0.1419  0.0775  0.1307
20765W        W77006  12.869  21.999  22.417 -0.0834  0.0629  0.0238
20766W        W77007   7.695  20.095   0.638 -0.2004 -0.3651  0.0893
20767W        W77008   8.485   0.936   8.162 -0.0756 -0.1521  0.1962
20768W        W77009  32.182   5.092   0.936  0.0249 -0.0623 -0.0523
20769W        W77010   0.537  26.872  19.291  0.1718 -0.0759  0.3606
20770W        W77011  34.162   9.808  13.674 -0.0213  0.1402  0.0044
20771W        W77012  13.852  14.330   7.834 -0.1327 -0.0579  0.0957
20772W        W77013  17.359  33.839   8.110 -0.4164 -0.1140 -0.2919
20773W        W77014  15.779  11.723  25.012 -0.2755 -0.0825  0.1242
20774W        W77015   8.426  28.135   3.914  0.0002 -0.0149  0.1055
20775W        W77016  32.764  30.010   3.914 -0.0719  0.0046  0.2128
20776W        W77017   8.332  16.751  20.800 -0.5454  0.4787  0.0382
20777W        W77018  23.955  25.653  20.340  0.3562  0.2948  0.0764
20778W        W77019  10.896  22.552  10.222  0.2717  0.3051  0.0861
20779W        W77020   5.551  10.224  25.145 -0.1096  0.0719 -0.0622
20780W        W77021  26.554  29.702  20.547  0.4538 -0.1331 -0.1975
20781W        W77022  25.882  26.650  24.804  0.0134 -0.1366  0.1763
20782W        W77023  34.267  13.010  14.377  0.1840  0.1276  0.2051
20783W        W77024  28.431  11.733  10.825 -0.0145 -0.1643 -0.0277
20784W        W77025   8.850  13.299  18.827  0.1968  0.0338 -0.1904
20785W        W77026  29.594  18.743  24.150 -0.3264 -0.1944  0.0455
20786W        W77027   0.537  17.389   7.589  0.1632  0.2594 -0.2257
20787W        W77028  12.870  14.397  24.721  0.0261 -0.0130 -0.0248
20788W        W77029  29.208  15.755  22.316 -0.2258  0.2821 -0.1021
20789W        W77030  15.494  18.352   2.167 -0.0098 -0.1478 -0.1008
20790W        W77031  15.409  34.335  21.530 -0.2760 -0.0673 -0.2608
20791W        W77032  23.728  34.548   0.826  0.1183 -0.1831  0.1796
20792W        W77033   3.769  28.584   7.888  0.1479 -0.1503  0.1314
20793W        W77034   7.725  31.244   1.928  0.1262 -0.0046  0.5462
20794W        W77035  14.898  22.159   6.479  0.2151  0.2558  0.2837
20795W        W77036  25.294  29.581  15.558 -0.1697 -0.0575  0.0030
20796W        W77037   4.254   6.159  17.072  0.5158 -0.0574 -0.0489
20797W        W77038  28.012   9.473  10.969  0.0127 -0.3568 -0.3014
20798W        W77039  10.886  27.527  22.663 -0.1162  0.1884 -0.2602
20799W        W77040  23.051   5.070   4.476  0.1818 -0.2199  0.0642
20800W        W77041  22.508   2.168  17.833 -0.1851 -0.0241  0.0352
20801W        W77042  15.791  20.341   7.645 -0.0697 -0.2494 -0.3508
20802W        W77043  23.543   7.789  13.326 -0.1411 -0.0486 -0.3979
20803W        W77044  18.749   9.734  20.021 -0.1186  0.0697  0.0756
20804W        W77045   2.171   6.073  26.056 -0.2020 -0.4135  0.2745
20805W        W77046  35.245   9.761  13.750  0.1753 -0.1482  0.0769
20806W        W77047  32.121   5.639   0.862 -0.1080  0.3321 -0.0859
20807W        W77048  12.615   8.823  10.710 -0.0736 -0.0060  0.4257
20808W        W77049  28.746  17.269  22.104 -0.1389 -0.0370  0.2020
20809W        W77050  28.699  21.554  22.863 -0.2040  0.0841 -0.0855
20810W        W77051   6.431  32.342   9.485 -0.2042 -0.4047  0.1025
20811W        W77052   3.938  13.365  21.969  0.1691 -0.3539  0.1267
20812W        W77053   2.796  26.421   8.515 -0.1188 -0.1204 -0.1471
20813W        W77054  22.108  28.695  18.241  0.1413 -0.0400  0.1333
20814W        W77055  24.114  24.075  21.861  0.1847  0.0732  0.1243
20815W        W77056   2.403  17.873   2.600  0.3062 -0.0775  0.2661
20816W        W77057  35.163  33.105  16.801  0.2067 -0.2328 -0.3569
20817W        W77058  13.034  12.090   6.408  0.1005  0.0893 -0.1156
20818W        W77059   1.130  26.141  24.280  0.2397 -0.0652  0.0155
20819W        W77060   2.964   4.519   0.579  0.0822 -0.0518 -0.1163
20820W        W77061  12.017  27.380   8.626  0.2603  0.0335 -0.3595
20821W        W77062   9.869   6.462   7.667 -0.3460  0.3316  0.0352
20822W        W77063  16.614  12.766  11.042  0.1550 -0.0810 -0.2251
20823W        W77064   9.948   4.565   6.664  0.0455 -0.1474  0.3295
20824W        W77065  32.285   5.535  22.554 -0.2390 -0.0762  0.4055
20825W        W77066  13.072  20.778   1.254 -0.1877  0.0307  0.1616
20826W        W77067   1.558  25.432  16.698  0.0475  0.0238 -0.0933
20827W        W77068  24.122  17.113  11.767 -0.0004  0.1411 -0.1597
20828W        W77069   5.484  15.463   3.884 -0.1922  0.1394 -0.0839
20829W        W77070  28.896  27.683  18.883 -0.1859 -0.1967  0.0023
20830W        W77071  26.429  22.795  10.909 -0.1186  0.3153 -0.2428
20831W        W77072  17.497   3.288  20.099 -0.2094 -0.0656  0.1694
20832W        W77073   3.292  10.821  25.993  0.2060  0.0729  0.1074
20833W        W77074  10.696  15.824   1.718 -0.3569 -0.2370 -0.0730
20834W        W77075  28.200   2.092  16.942  0.0318 -0.0633  0.0787
20835W        W77076  26.277  15.648   0.680 -0.0311 -0.2047 -0.3694
20836W        W77077  13.186   0.430   0.353  0.1792 -0.0968 -0.1524
20837W        W77078   9.921   3.875  11.998 -0.2370 -0.3831 -0.3010
20838W        W77079  10.293   6.061   4.793  0.0685 -0.1302 -0.0768
20839W        W77080  21.259   4.865  20.224 -0.0732  0.1204  0.0343
20840W        W77081  28.808  12.462  20.816  0.0402 -0.2206  0.3088
20841W        W77082  33.954   5.343   4.036  0.2130 -0.0969  0.0938
20842W        W77083  18.056  13.396  19.879  0.1576  0.0435  0.0392
20843W        W77084  16.580  19.350  23.653  0.3459  0.0241  0.2240
20844W        W77085   9.141  12.034   9.906  0.1480  0.3600  0.1060
20845W        W77086  28.668  27.115  24.180  0.2942  0.1101 -0.2035
20846W        W77087  16.998   2.936   5.156 -0.1851 -0.2098  0.3064
20847W        W77088  20.716   1.778  19.560  0.2192 -0.1483  0.0430
20848W        W77089  33.381  19.478  19.182  0.0020  0.1231 -0.1214
20849W        W77090  19.733   8.819  18.211 -0.1005  0.0753 -0.2668
20850W        W77091  28.368  25.573  18.327 -0.3366 -0.1782 -0.1315
20851W        W77092  32.916   2.846  15.960  0.1842 -0.1770  0.0111
20852W        W77093  12.964  32.619   8.719  0.3447 -0.1343  0.0232
20853W        W77094  11.818   1.531   2.511  0.3218 -0.2681  0.1546
20854W        W77095   8.094  23.873   0.129 -0.0098  0.1401  0.2010
20855W        W77096   8.489   7.615   6.632  0.0244  0.0987 -0.0713
20856W        W77097  13.420   5.145   1.590  0.1526  0.2471 -0.0164
20857W        W77098  12.971  20.291  11.600  0.0066 -0.1746 -0.0331
20858W        W77099  34.022  10.226  16.583 -0.2486 -0.2163 -0.2544
20859W        W77100  33.966  28.119  14.819 -0.2804  0.2602 -0.0495
20860W        W77101   8.363   5.911  19.893  0.3177 -0.1048  0.0102
20861W        W77102  32.471   8.596  16.229 -0.1225 -0.3099 -0.5027
20862W        W77103  28.708  28.065  24.386 -0.0113 -0.2250 -0.0847
20863W        W77104   8.883   6.532  23.890 -0.3509 -0.1782 -0.1802
20864W        W77105  24.711  30.376  11.549  0.1195  0.2806 -0.1006
20865W        W77106  15.226  14.198  21.795 -0.0333 -0.0698 -0.1547
20866W        W77107   3.715   9.913   2.472  0.2368  0.1627  0.2228
20867W        W77108   9.896  26.898   6.318  0.0897 -0.2500  0.3301
20868W        W77109  29.758  13.621  11.367  0.2274  0.1198  0.1089
20869W        W77110  33.684  15.694  22.716 -0.0018  0.0893  0.3541
20870W        W77111  30.099   3.097  24.808 -0.2585  0.0614  0.0856
20871W        W77112  28.172  28.651  25.595 -0.0908 -0.1912  0.0977
20872W        W77113   7.468   5.542  24.768  0.1445  0.3103 -0.2743
20873W        W77114   3.387  21.737  14.925  0.2601 -0.3799 -0.0620
20874W        W77115   8.967  24.087   7.330  0.0846 -0.0666 -0.2182
20875W        W77116  17.603   3.832  10.241  0.0688 -0.1047  0.1286
20876W        W77117  31.564  21.625   8.492  0.1432  0.1755 -0.1006
20877W        W77118   3.935  21.548  19.252 -0.3055  0.5194 -0.2852
20878W        W77119   2.550  23.193   1.816  0.0097 -0.0252 -0.1595
20879W        W77120   9.295  33.288  15.718 -0.4902  0.2070  0.1850
20880W        W77121  25.524  34.740  16.481  0.2568  0.0224  0.2326
20881W        W77122  28.059   9.952  22.524 -0.0412 -0.0131  0.0793
20882W        W77123  30.852  22.341  22.471 -0.0342 -0.1304  0.0186
20883W        W77124  24.948  14.073  10.596 -0.0814 -0.0539  0.2182
20884W        W77125  30.363   1.959  23.673 -0.0081  0.0586 -0.2616
20885W        W77126  25.735   2.244  23.082  0.3921 -0.1003  0.1958
20886W        W77127  12.370  15.560  22.674 -0.0798 -0.0863  0.2163
20887W        W77128  30.200  27.883  25.561 -0.2115 -0.1598 -0.0334
20888W        W77129   7.706   9.358   0.712 -0.0035  0.0513  0.0653
20889W        W77130  10.562  16.211   8.534 -0.1734  0.1073  0.0989
20890W        W77131   8.028  33.077   7.106 -0.0196  0.3081  0.0756
20891W        W77132  22.442   7.533  17.471 -0.1936 -0.1435 -0.2726
20892W        W77133  28.468  27.697  12.305  0.0786 -0.0659 -0.1520
20893W        W77134  12.242   5.995  24.785 -0.2073  0.1199  0.2231
20894W        W77135  12.586  18.432   1.959 -0.2595 -0.1599 -0.0991
20895W        W77136  24.466  34.715   0.765  0.5239 -0.1976  0.1966
20896W        W77137  22.630  30.550  23.774  0.2248 -0.1627  0.1652
20897W        W77138  18.104  18.424  22.250 -0.3255  0.1514 -0.1889
20898W        W77139  31.150  12.947  17.788  0.1873 -0.1325 -0.1641
20899W        W77140  14.465  13.221  12.430  0.2178  0.3664  0.0517
20900W        W77141   7.490  20.495   2.798 -0.1286 -0.3773  0.0939
20901W        W77142  18.357  18.756  12.608  0.0072  0.2004 -0.1360
20902W        W77143   4.071  21.851   1.018  0.1023  0.2292 -0.0025
20903W        W77144  21.383   1.534   3.777 -0.0221 -0.2175 -0.0291
20904W        W77145   0.923  12.967  16.955  0.2624  0.1383  0.0765
20905W        W77146  33.511  20.699  20.858 -0.4399  0.1731 -0.0395
20906W        W77147  12.862  24.473   9.602  0.0857 -0.0433 -0.1863
20907W        W77148   5.796  35.288   4.655 -0.0834  0.0024  0.0601
20908W        W77149   0.395  12.979  20.937 -0.1718 -0.1561 -0.1134
20909W        W77150   1.171  14.530  12.946 -0.1952  0.0189 -0.0657
20910W        W77151  13.633  16.762   7.563 -0.0312 -0.0226 -0.2486
20911W        W77152   9.020   0.502  25.831  0.0046 -0.3383  0.1637
20912W        W77153  15.143  20.096  11.496 -0.0598 -0.0094  0.2981
20913W        W77154  32.974  35.067   3.366  0.1807 -0.0839 -0.1399
20914W        W77155  12.407  26.586   8.951  0.2032 -0.1944  0.2051
20915W        W77156  21.401  25.648   1.035 -0.3374  0.0556  0.2767
20916W        W77157  15.211   2.784   6.159 -0.0114  0.2746  0.0511
20917W        W77158   2.037  34.553  22.193 -0.0275  0.3735  0.3034
20918W        W77159  17.146   3.554  25.848  0.0324 -0.1327  0.0399
20919W        W77160  25.709   5.872  25.429  0.0604 -0.1139 -0.0900
20920W        W77161  17.319  31.590  22.791 -0.1655  0.0339  0.2460
20921W        W77162  24.154  16.396  23.009  0.1147  0.2730  0.2390
20922W        W77163  14.634   1.623   0.759  0.0185  0.2289  0.2242
20923W        W77164  26.740   9.585  25.063 -0.0203  0.1030  0.1742
20924W        W77165  26.377  15.407  19.673 -0.1241  0.1456 -0.0660
20925W        W77166   9.195  22.761  14.888 -0.1038  0.0590  0.3941
20926W        W77167  17.357  28.827   9.165 -0.0241 -0.1737 -0.0976
20927W        W77168  31.980   6.984  20.029 -0.2897  0.1091 -0.0891
20928W        W77169  20.381  17.224   3.703 -0.1304  0.1053  0.0221
20929W        W77170  29.963  18.661  21.413  0.0531 -0.0835 -0.2740
20930W        W77171  27.287  24.381  11.957  0.2944  0.2743  0.3579
20931W        W77172   2.567   1.526   8.404  0.4106  0.2082 -0.1503
20932W        W77173  27.761  33.938  16.252  0.0216 -0.0753  0.0778
20933W        W77174  16.850   1.744  23.334  0.1403  0.1263 -0.1634
20934W        W77175  18.577   0.072  15.852 -0.1806 -0.0756  0.1058
20935W        W77176  24.754  31.343  19.714  0.3165  0.2200 -0.0605
20936W        W77177  25.508  26.775   0.038 -0.0235  0.1758 -0.2185
20937W        W77178   5.583  25.401   7.566 -0.2066 -0.0820  0.0777
20938W        W77179  27.136   8.231  21.986 -0.1838  0.2558  0.0086
20939W        W77180  28.046  17.066   7.775  0.1711  0.0267 -0.1801
20940W        W77181   2.366  11.706  15.901  0.0275 -0.1109 -0.1121
20941W        W77182  22.492  29.905  14.011  0.1012 -0.0276 -0.1065
20942W        W77183  14.268  16.922   1.048  0.1624  0.2818 -0.2011
20943W        W77184  33.714  25.484  11.869 -0.2569  0.0666  0.1874
20944W        W77185   9.013   8.609  24.175 -0.1545 -0.1457  0.2716
20945W        W77186  19.243   2.177   2.169  0.2083 -0.0406 -0.0194
20946W        W77187   7.395   4.284   7.428 -0.0013 -0.1852 -0.1196
20947W        W77188   5.787  32.780   2.131  0.0386 -0.2583  0.0460
20948W        W77189   7.359  29.957  14.086  0.1443  0.0151  0.4254
20949W        W77190   1.740  28.799   9.176 -0.1055 -0.0709  0.2515
20950W        W77191   9.019   4.706   2.062  0.3691 -0.3249 -0.2293
20951W        W77192  29.724   3.846   4.818  0.2812  0.2114  0.0926
20952W        W77193  21.133  12.710  22.724 -0.1070  0.2879  0.1583
20953W        W77194  17.058   0.858  20.964  0.0725 -0.0922  0.0156
20954W        W77195   9.888  23.006  12.808  0.0935  0.4633  0.0749
20955W        W77196  15.117   3.109   0.752  0.2419  0.1863  0.0773
20956W        W77197  16.902   5.538   4.847  0.1288  0.3492  0.3283
20957W        W77198   7.243  19.188  11.743  0.2956  0.0836 -0.0400
20958W        W77199  28.806  31.548   9.942 -0.1036 -0.1941 -0.0707
20959W        W77200   3.147  16.104   2.282  0.2951  0.2923  0.0384
20960W        W77201   3.995  25.404   5.509  0.0711 -0.2628  0.0982
20961W        W77202   3.968  26.317   4.031 -0.1910 -0.2383  0.5835
20962W        W77203  18.226  23.048   1.704 -0.2219 -0.2798  0.0459
20963W        W77204  13.980  21.615  14.592  0.0529 -0.1672  0.1853
20964W        W77205  20.470   8.159   7.096 -0.1025 -0.0729  0.0413
20965W        W77206   9.866  26.484  25.361 -0.0369  0.2462 -0.2502
20966W        W77207   8.026  11.203  24.625 -0.0473  0.1724  0.0766
20967W        W77208  22.732  11.337  14.923 -0.1633  0.0142  0.0642
20968W        W77209   3.249  28.089  18.057 -0.0378 -0.0783  0.0224
20969W        W77210  13.476   8.466  10.448 -0.1295  0.0248  0.0865
20970W        W77211  28.262  18.634   9.919 -0.1448  0.0607  0.1254
20971W        W77212   4.880   6.102   5.929 -0.1453  0.3228 -0.0838
20972W        W77213   0.062  20.410  19.044 -0.0569 -0.2185  0.3674
20973W        W77214  10.577   8.618   1.373 -0.0076 -0.2385 -0.0844
20974W        W77215  31.617  20.801  17.895 -0.1990  0.3053  0.1124
20975W        W77216  26.724  14.799  25.284  0.0298  0.3615  0.1462
20976W        W77217  23.902  31.293   3.787 -0.1556  0.2883 -0.0094
20977W        W77218  25.849  35.314  26.148  0.1329  0.1390 -0.1833
20978W        W77219  14.238  31.504   2.433 -0.2439  0.0091  0.1739
20979W        W77220  33.771   4.156  20.024 -0.1323  0.0606  0.2343
20980W        W77221  10.608  14.285   2.594 -0.2593  0.0296  0.0136
20981W        W77222  25.824  29.099   0.166 -0.1274  0.1023 -0.2034
20982W        W77223   9.881   3.406   1.038 -0.0168  0.0723  0.2232
20983W        W77224   9.620  17.170  21.446 -0.0715 -0.1577  0.3367
20984W        W77225  22.492  10.109   3.099  0.1132  0.2899  0.0863
20985W        W77226  12.584  28.631   9.962 -0.0325 -0.0483 -0.0903
20986W        W77227  29.935  15.525  22.996 -0.0582  0.3039 -0.0289
20987W        W77228  11.471  13.707   7.550 -0.1533  0.1063  0.0778
20988W        W77229  18.203  11.980  20.657  0.2318  0.1899 -0.0093
20989W        W77230  30.540  19.563  20.709  0.0985 -0.2791 -0.1311
20990W        W77231  24.040  11.332  18.695 -0.0034  0.1099  0.1559
20991W        W77232  24.208  24.228  13.613 -0.1038  0.0351 -0.0332
20992W        W77233   4.447  34.755   3.752  0.0571  0.2569 -0.0729
20993W        W77234  13.172   9.452  14.646 -0.0270 -0.1686  0.1156
20994W        W77235  29.920  20.581   4.981 -0.0835 -0.0396 -0.0667
20995W        W77236  32.264   5.699  12.368  0.3668  0.1840 -0.2371
20996W        W77237   6.574  27.864   0.193 -0.1491  0.0282 -0.0211
20997W        W77238  28.069   7.501  19.824 -0.5246  0.2324 -0.0601
20998W        W77239  29.525   9.407  24.504  0.0223  0.2295  0.0255
20999W        W77240   9.800  29.022   7.189 -0.0032 -0.3404  0.1038
21000W        W77241  34.278  28.586  13.790  0.4131  0.1962  0.0917
21001W        W77242  29.288  23.830  12.074  0.1406 -0.0282  0.1334
21002W        W77243  27.764  14.368  15.374  0.4568 -0.2893 -0.0256
21003W        W77244  29.301  25.072  25.579 -0.0285  0.0947  0.0441
21004W        W77245  23.565  31.532  19.335 -0.0573  0.1978 -0.1295
21005W        W77246  17.517   8.371  18.621  0.2493 -0.3176 -0.1190
21006W        W77247   4.836  29.236   1.851  0.2180 -0.1772 -0.0421
21007W        W77248  22.391  18.645  18.627  0.1912 -0.3035 -0.0409
21008W        W77249  23.036   2.111  20.095 -0.0923  0.1900  0.0696
21009W        W77250   0.926  29.599   7.065  0.0726 -0.2067 -0.2774
21010W        W77251  23.630  31.505   2.755 -0.0927 -0.1681 -0.3174
21011W        W77252  34.383  15.407   0.626  0.1807 -0.0467 -0.0317
21012W        W77253  30.165   8.535   8.709 -0.1740 -0.0949  0.0745
21013W        W77254  16.284  32.816   7.700 -0.1423 -0.1187 -0.0121
21014W        W77255   6.566  13.115  11.814 -0.1857  0.0260 -0.1438
21015W        W77256  14.635  28.130   5.663  0.0942 -0.2470 -0.1349
21016W        W77257   4.138  12.141   1.875 -0.3954 -0.1184  0.2932
21017W        W77258   5.106  12.919   1.129  0.0149  0.2394 -0.1959
21018W        W77259  25.097  18.470  17.667  0.0656 -0.1514 -0.1308
21019W        W77260  24.833  30.768   1.053  0.0238  0.0408  0.1196
21020W        W77261  31.508  34.632   4.749  0.1006 -0.1834  0.0189
21021W        W77262  25.739  32.135  24.880 -0.0143 -0.0153 -0.2317
21022W        W77263  11.283  14.206  10.026  0.2292  0.1904 -0.0042
21023W        W77264   1.067  11.645   2.341  0.3770  0.2007 -0.0586
21024W        W77265  29.351  11.187  18.739  0.3266 -0.0062 -0.0362
21025W        W77266  12.388  24.334   0.461 -0.2367  0.0841  0.1793
21026W        W77267  29.800  20.579  24.777  0.0985 -0.1468 -0.2085
21027W        W77268   3.139  13.565  14.887  0.0644  0.1058  0.0008
21028W        W77269  13.839  13.692  23.971  0.0214  0.0105 -0.2539
21029W        W77270  25.794  29.893  11.151  0.1309  0.0755 -0.0334
21030W        W77271  13.662  22.430   0.062 -0.2028 -0.0701  0.0565
21031W        W77272   1.920   4.353  20.260  0.2833  0.0678  0.1008
21032W        W77273  21.409  14.886   1.479  0.2353  0.0870 -0.3167
21033W        W77274  23.688  11.478  21.910 -0.0032 -0.2197 -0.1905
21034W        W77275   1.490  18.715  17.560 -0.0804 -0.0333  0.0461
21035W        W77276  10.663  15.527  25.816 -0.0717 -0.0838  0.1396
21036W        W77277  26.137  13.014  11.862 -0.4791 -0.0241  0.2444
21037W        W77278  11.856  21.245  24.219  0.4226 -0.0352  0.1131
21038W        W77279  19.270  22.316   7.251 -0.0696 -0.0977  0.3191
21039W        W77280  21.071  21.594  20.399 -0.0169  0.0424  0.0361
21040W        W77281  13.155  17.250   4.451  0.0766 -0.1529 -0.0599
21041W        W77282  23.257  11.646   2.102 -0.3260 -0.0198 -0.0913
21042W        W77283  13.771   4.926   8.749 -0.2491 -0.0373  0.1024
21043W        W77284   5.321  17.275  21.244  0.1853 -0.2387  0.1452
21044W        W77285  25.252  23.960  23.096  0.0311 -0.2885  0.0883
21045W        W77286   5.698  27.953  23.606 -0.1152  0.0084 -0.1299
21046W        W77287  33.954  15.535   0.919  0.0360  0.0792  0.3196
21047W        W77288  27.440   0.413  25.501 -0.0194  0.0285 -0.0414
21048W        W77289   0.047  25.818  18.120  0.1893  0.0736  0.3052
21049W        W77290  31.176  15.375   5.715  0.0297 -0.0597  0.1927
21050W        W77291  28.663   1.773  16.215 -0.1152 -0.0241  0.2078
21051W        W77292  32.847  20.926  20.000  0.6402 -0.1294  0.1834
21052W        W77293   3.099  12.642  24.743  0.2668  0.0132 -0.1346
21053W        W77294  16.368  12.606   2.369 -0.0108  0.1761  0.2822
21054W        W77295  13.659  14.891   3.855 -0.1913  0.1328  0.1509
21055W        W77296  30.083  25.325  14.785  0.0382  0.1104  0.2308
21056W        W77297  10.976  25.310  24.538 -0.3653 -0.1190 -0.0316
21057W        W77298  21.499  34.270   0.519  0.0623 -0.1261  0.0726
21058W        W77299  28.013  22.041  23.778 -0.1266  0.0810  0.0388
21059W        W77300  26.357   4.984  14.592 -0.2066 -0.0877 -0.3721
21060W        W77301  28.502  32.285  19.759  0.1173 -0.0238 -0.1803
21061W        W77302   9.908   5.020   1.833 -0.3218  0.0172  0.1778
21062W        W77303  31.357   1.017  12.301  0.4562  0.4067  0.0411
21063W        W77304  24.038   0.585  15.220  0.0624  0.0561 -0.1637
21064W        W77305  11.760  15.454  10.610 -0.0380 -0.1656  0.0943
21065W        W77306  22.170  13.716  16.661  0.3483 -0.0036 -0.0544
21066W        W77307   5.645  29.735   3.804 -0.0103 -0.2250 -0.1322
21067W        W77308   3.406   6.800   7.952 -0.1592  0.3092 -0.2425
21068W        W77309  32.300  25.511  25.202 -0.1221 -0.1832  0.2018
21069W        W77310   7.246   2.725  13.536 -0.0198 -0.0004  0.0316
21070W        W77311  22.489  22.301  19.601  0.2703 -0.0062 -0.0572
21071W        W77312  20.020  13.637  23.148 -0.0908 -0.0140 -0.2747
21072W        W77313  20.429  35.288  20.841  0.0747  0.0997 -0.2697
21073W        W77314  31.368   8.377  12.479  0.4557  0.1352  0.2223
21074W        W77315  20.358  11.108   8.363  0.3298  0.1119  0.0349
21075W        W77316  12.992  18.143   2.106  0.0222 -0.0059  0.1144
21076W        W77317   1.518  31.282  21.656 -0.0781 -0.0571 -0.1088
21077W        W77318  35.217   0.127   3.936  0.0117  0.1238  0.0216
21078W        W77319   7.700  18.474  19.030  0.1232 -0.0276  0.0679
21079W        W77320  13.492  29.663   1.516 -0.0074 -0.0333  0.0188
21080W        W77321  23.444  29.628  14.101  0.1449  0.0872 -0.0148
21081W        W77322  13.809  21.727  12.790  0.2766  0.1399 -0.0426
21082W        W77323  24.703  28.448  23.240  0.1868  0.1666  0.1771
21083W        W77324   4.360  17.729  18.209  0.2023  0.2034  0.0878
21084W        W77325  31.109  32.843  24.633 -0.1365 -0.1239  0.0922
21085W        W77326  29.594  16.220  20.627  0.0578  0.1344 -0.0745
21086W        W77327  11.290  35.015  11.652 -0.2946 -0.1363 -0.1026
21087W        W77328  24.039   5.304  21.388 -0.0896 -0.0885  0.1168
21088W        W77329   3.008  27.495  24.208  0.0080  0.0135  0.0929
21089W        W77330   1.318  12.548   0.839  0.1118 -0.1159 -0.2043
21090W        W77331  11.482  33.604  22.399  0.0340  0.3812  0.3502
21091W        W77332   3.597   1.171   8.719 -0.0387 -0.0571  0.3122
21092W        W77333  31.942  12.354   0.797  0.2774 -0.2435  0.0068
21093W        W77334  22.829  20.266  17.083 -0.1102  0.0523  0.0849
21094W        W77335  30.157   9.461  15.062  0.1586  0.0159  0.1015
21095W        W77336  10.032  23.314   3.579  0.2839 -0.1918 -0.0158
21096W        W77337  11.937   3.289   7.677 -0.1358  0.4005  0.1760
21097W        W77338   9.938   0.774   0.514 -0.0554  0.1069 -0.1165
21098W        W77339  24.107  14.797  24.794  0.2253  0.1613  0.0059
21099W        W77340  25.954  12.686  20.894  0.2625 -0.2536  0.2604
21100W        W77341  23.296  11.330  23.445  0.0156  0.0542 -0.2312
21101W        W77342  33.183  11.033  11.568  0.2093  0.3685  0.2328
21102W        W77343   8.979  34.069  22.517  0.1641  0.2936  0.1568
21103W        W77344  22.997  28.860   2.670 -0.1260  0.2380 -0.2004
21104W        W77345  10.450   4.114   0.917  0.3293  0.3186  0.2495
21105W        W77346  30.675  28.278  20.142  0.0634 -0.2104 -0.0986
21106W        W77347   5.014  27.038   8.150  0.1083 -0.1052 -0.0472
21107W        W77348  13.183  14.475  23.609  0.1479  0.1267  0.1056
21108W        W77349  10.833   0.558  11.689 -0.1854  0.1932  0.1773
21109W        W77350  17.001  19.348  25.622  0.4852  0.0842 -0.5024
21110W        W77351  19.632   1.859  21.499  0.0118  0.1057  0.1201
21111W        W77352  13.928   6.462  12.296 -0.0075 -0.0444 -0.2087
21112W        W77353  31.035  25.923  17.980 -0.2433 -0.1887 -0.2953
21113W        W77354   2.459  34.868  18.003  0.2395  0.0570 -0.3795
21114W        W77355   9.585  23.026   8.191 -0.0748 -0.1925 -0.1754
21115W        W77356  32.378   2.704  17.817 -0.2602  0.1004 -0.2297
21116W        W77357  18.522  15.074   0.950  0.3421 -0.1435  0.0279
21117W        W77358   7.075  25.742  15.140  0.1705 -0.0124 -0.0185
21118W        W77359  35.075  14.740   0.886  0.4167 -0.2835 -0.1235
21119W        W77360   7.754  11.403  13.234  0.0019 -0.0441 -0.0556
21120W        W77361  21.292   1.393   5.627 -0.1148 -0.0092  0.0443
21121W        W77362  20.304  13.669  16.110 -0.1726  0.0981 -0.2165
21122W        W77363  31.416  20.252  18.685 -0.2393  0.0356  0.1367
21123W        W77364  10.890  33.110   6.171  0.1529  0.2262  0.2676
21124W        W77365  16.486  18.839  22.797  0.3945  0.1164  0.3766
21125W        W77366   0.502   8.098  21.128  0.2859 -0.0686  0.2026
21126W        W77367  14.415  11.878  22.463  0.0209 -0.2436 -0.3664
21127W        W77368  27.840  24.382  21.306  0.1215  0.2684  0.0305
21128W        W77369   0.022  17.038  19.706 -0.1385 -0.1195  0.0343
21129W        W77370  33.287  24.773  23.514  0.0916  0.1076 -0.1621
21130W        W77371  22.477  31.415  18.133  0.1418  0.2903  0.1213
21131W        W77372   0.316  31.483   8.312  0.0576 -0.3069  0.0457
21132W        W77373  11.323  16.110  10.481  0.1556 -0.2696 -0.3409
21133W        W77374  28.748  32.240   1.756 -0.0665  0.0956 -0.0118
21134W        W77375  29.455  29.904  23.923 -0.0940 -0.1099 -0.2449
21135W        W77376  24.564  23.231  25.610 -0.0196  0.2071  0.2237
21136W        W77377  21.364  10.633  18.469  0.0420 -0.2498 -0.3558
21137W        W77378   0.380  19.113   0.431  0.0335  0.2810 -0.0070
21138W        W77379  31.443   7.294  16.336  0.0333  0.1296 -0.0116
21139W        W77380  11.654  19.886  22.663 -0.0046 -0.0729  0.0282
21140W        W77381   7.189  26.072   9.688 -0.0556  0.0167  0.1197
21141W        W77382  33.740  35.206  20.839 -0.1007  0.2270  0.1378
21142W        W77383  20.086   1.875   1.973 -0.1085  0.2348  0.0125
21143W        W77384  28.980  17.896  16.665 -0.0713 -0.2367 -0.0221
21144W        W77385  17.375   7.135   7.717 -0.0001 -0.1048 -0.1232
21145W        W77386  30.105   3.510  23.980  0.2655 -0.1789  0.0977
21146W        W77387  21.078  30.992  25.220  0.0729  0.1350  0.2970
21147W        W77388   0.743  16.551  25.500  0.1478 -0.1430  0.2249
21148W        W77389  31.308   3.936  23.325  0.4265  0.0462  0.1124
21149W        W77390  34.310  15.514  26.249  0.0851  0.3223  0.1887
21150W        W77391  28.847  34.223  17.632  0.2117  0.0419 -0.0990
21151W        W77392   9.459  17.698  21.208 -0.0460  0.1347 -0.1435
21152W        W77393  30.683  13.762   9.473  0.1075 -0.0868 -0.2566
21153W        W77394   0.294  20.538   1.755  0.0482 -0.1727 -0.3144
21154W        W77395  32.426  35.309  16.754  0.1122  0.0413  0.0592
21155W        W77396  19.888  17.508  18.581  0.2852 -0.3463  0.1364
21156W        W77397  14.760  15.432   7.538 -0.1388  0.0007 -0.0971
21157W        W77398  14.422  23.164  12.040 -0.2671  0.1560  0.3045
21158W        W77399  31.279  30.692  14.784 -0.1292 -0.1407 -0.2704
21159W        W77400  23.119   0.896   0.797  0.0403  0.1193  0.1934
21160W        W77401   9.053  22.648  23.588  0.2189  0.0851 -0.1122
21161W        W77402  34.009  15.631  20.163 -0.1007  0.0873  0.1031
21162W        W77403  18.330   9.391  23.089  0.0976 -0.2579  0.2423
21163W        W77404   2.462   8.200   6.832  0.3295  0.0197 -0.0573
21164W        W77405  25.425  19.429  23.305 -0.0023 -0.3566  0.0715
21165W        W77406  18.160  33.580  24.472  0.1287  0.0782  0.1576
21166W        W77407  17.784  30.893   7.929  0.4206 -0.3468  0.0950
21167W        W77408  11.147  22.801  16.406  0.1455 -0.1800 -0.1219
21168W        W77409  27.985  24.157  24.914 -0.0590 -0.0309 -0.1888
21169W        W77410  20.749  26.319  25.693 -0.1224  0.3213 -0.2948
21170W        W77411   2.030  34.384  23.134  0.0477  0.1151  0.1541
21171W        W77412  13.570   0.275  12.421 -0.2000 -0.2174 -0.0834
21172W        W77413  27.950  16.301  19.681 -0.0540  0.1372  0.1287
21173W        W77414  32.501   9.360  17.085  0.3455 -0.0017 -0.0205
21174W        W77415  28.289  15.208  17.806 -0.0340 -0.0010  0.0556
21175W        W77416  11.873  27.232   4.129 -0.4086 -0.2355 -0.1884
21176W        W77417  24.365  27.040   2.125 -0.0346  0.2654 -0.4549
21177W        W77418  18.937  15.887  22.058 -0.0388  0.1082  0.2609
21178W        W77419  22.180   4.806  25.025  0.1232  0.1596 -0.1936
21179W        W77420  32.111  27.522  14.178  0.1514  0.0773 -0.0781
21180W        W77421  29.306  20.199  21.431  0.1270 -0.0175 -0.2757
21181W        W77422   5.607  30.383   9.930 -0.2047  0.1216 -0.1456
21182W        W77423  34.964   5.123  25.406  0.0417  0.1598 -0.1413
21183W        W77424  28.595  28.601  25.969 -0.0397 -0.2157 -0.0165
21184W        W77425  12.989   6.435  19.544  0.1524  0.2713 -0.2532
21185W        W77426  27.661  18.403  12.091 -0.0640 -0.2064  0.3847
21186W        W77427   0.066  32.629  24.140 -0.1075  0.0561 -0.1525
21187W        W77428  16.674  31.567   5.746 -0.2101 -0.1929  0.2856
21188W        W77429  20.398   3.047  16.474  0.2608 -0.0497  0.1267
21189W        W77430  22.474  24.242  20.681  0.0030 -0.2228  0.2016
21190W        W77431   2.768  35.007  21.738  0.1308 -0.1181 -0.1942
21191W        W77432  25.641   0.469  20.292 -0.1221  0.0078 -0.0755
21192W        W77433  19.878  23.832  24.189 -0.2244  0.0695 -0.2167
21193W        W77434  16.377   1.493   9.521 -0.1791 -0.0453  0.0078
21194W        W77435  25.144  26.570  25.032 -0.3374  0.0394 -0.1569
21195W        W77436  29.019  20.878  25.271 -0.0065  0.2459  0.2231
21196W        W77437  25.947  27.346  20.322 -0.0972  0.2174  0.0198
21197W        W77438  14.589  14.125  10.232  0.4534 -0.0598 -0.2151
21198W        W77439  15.391   7.501  24.536  0.1039  0.0872 -0.0596
21199W        W77440  12.185   9.754  20.758  0.0327 -0.1057 -0.2568
21200W        W77441  31.484   7.529  25.857  0.0189 -0.2181  0.0106
21201W        W77442   7.287  25.100   3.681 -0.3117 -0.3881  0.1459
21202W        W77443  30.143   9.448  15.575 -0.0800 -0.1357  0.0048
21203W        W77444  14.590   2.425  10.824  0.3649 -0.0691 -0.0053
21204W        W77445  23.833   8.670   2.036  0.0859  0.0973  0.1122
21205W        W77446   9.058   7.775  23.163  0.2908 -0.2267 -0.1005
21206W        W77447  35.233   6.143  24.181 -0.0772 -0.1690 -0.0504
21207W        W77448  13.248  19.056  23.061  0.1028  0.1833 -0.0041
21208W        W77449  20.143  16.086  21.803  0.4147 -0.0934  0.1645
21209W        W77450  32.336  10.569  14.517  0.1958  0.0927  0.3952
21210W        W77451  28.272  25.808   0.024  0.1765  0.0970 -0.1350
21211W        W77452  28.875  10.841  10.681 -0.1234  0.1032 -0.1064
21212W        W77453   4.499  33.626  18.853 -0.1420 -0.0170  0.2473
21213W        W77454   2.378   4.308  16.988  0.1785 -0.2551 -0.0027
21214W        W77455  28.381  31.654  21.566  0.1549 -0.0407 -0.0133
21215W        W77456  21.873  15.931  16.649  0.0029 -0.0257  0.1615
21216W        W77457  21.059   5.671   2.161  0.1904  0.0508  0.0183
21217W        W77458   5.393  28.925  22.526  0.0214 -0.1644 -0.0439
21218W        W77459  10.608  10.260  14.656  0.0221 -0.0855 -0.3004
21219W        W77460  24.769   1.158  12.945 -0.2240  0.1203  0.0852
21220W        W77461  16.656   7.102   3.443  0.2471  0.0940  0.0942
21221W        W77462   6.682  15.087  25.010  0.2107  0.1070  0.2983
21222W        W77463  28.530  29.667  19.783 -0.0250 -0.1195  0.2535
21223W        W77464  20.253  15.786   5.748 -0.0247 -0.2124 -0.1372
21224W        W77465  17.749  22.257   4.056 -0.3014  0.3098  0.0586
21225W        W77466  31.480   8.981  14.371  0.0107 -0.0302 -0.0445
21226W        W77467   6.080  30.022  25.568  0.0055 -0.1873 -0.1229
21227W        W77468  10.661  15.489  13.697  0.0726  0.1948  0.1557
21228W        W77469  25.072  28.751  13.088  0.0556  0.0345 -0.4166
21229W        W77470  23.967  12.323  13.751 -0.0236  0.3127 -0.3195
21230W        W77471  24.113  28.067  10.985  0.3023  0.0573  0.0292
21231W        W77472  12.664  34.797  11.944 -0.1679 -0.0082 -0.4149
21232W        W77473   9.102   3.242  19.072  0.0482  0.0133  0.0700
21233W        W77474   6.294  27.446   4.995  0.1314 -0.1466  0.3339
21234W        W77475   6.438  32.509  20.320 -0.0882 -0.4519 -0.0875
21235W        W77476  11.218  25.012   6.131 -0.2538  0.2792  0.0851
21236W        W77477  22.940  20.282  22.729  0.2011 -0.3161 -0.1634
21237W        W77478  21.974   2.797  18.628 -0.1131  0.0667 -0.3199
21238W        W77479  25.627  24.371   9.163  0.0659 -0.0012 -0.2353
21239W        W77480  15.403  30.552   6.372 -0.4041  0.0253  0.0982
21240W        W77481  24.097  24.882   2.782 -0.0153  0.1156  0.2025
21241W        W77482  32.583   9.856  22.046 -0.2825 -0.1543  0.1335
21242W        W77483  16.605  12.597   7.882 -0.0818 -0.1227  0.1240
21243W        W77484   2.933   8.183  23.607  0.2077  0.0597 -0.0849
21244W        W77485  19.410   8.890  24.449  0.1188 -0.1838 -0.1155
21245W        W77486  10.638   5.343  20.205 -0.1881 -0.1675  0.1423
21246W        W77487   9.947  28.670  22.652  0.3276 -0.0043 -0.2656
21247W        W77488  33.167   7.102  14.811 -0.2406  0.0770 -0.0136
21248W        W77489  27.795  34.023  18.421  0.1779  0.2110  0.0179
21249W        W77490   3.085   3.846   9.273 -0.0893  0.2019 -0.3330
21250W        W77491  31.275  29.687  18.947 -0.1916 -0.3278 -0.2047
21251W        W77492  23.654  27.283  14.061  0.3868  0.1446 -0.1352
21252W        W77493  17.739   6.582  24.687 -0.1506 -0.0550  0.1825
21253W        W77494   8.057   9.055   5.003  0.1862 -0.2230 -0.1871
21254W        W77495   3.394  28.785  24.542  0.2902 -0.0691  0.1540
21255W        W77496  23.169  22.540  15.635 -0.1507  0.2270 -0.1238
21256W        W77497  16.759   4.966  20.428 -0.1745 -0.2158  0.0718
21257W        W77498  22.470  20.941   4.595 -0.1716 -0.0415  0.1077
21258W        W77499   5.110  23.029  22.121  0.0690 -0.1224 -0.0087
21259W        W77500   3.246  28.754   0.834 -0.0572  0.0663 -0.0545
21260W        W77501   4.486   8.934  23.178  0.0953 -0.1748  0.1358
21261W        W77502  21.793  33.261  22.372  0.2246 -0.0231 -0.2525
21262W        W77503  11.911  31.098  23.089  0.1605 -0.1074  0.1224
21263W        W77504   5.572   5.661   2.803 -0.1122 -0.1876 -0.1804
21264W        W77505  32.857  28.500  16.084 -0.2512 -0.0228 -0.1247
21265W        W77506  27.786  29.381  24.256 -0.0258  0.1230 -0.2531
21266W        W77507   3.856  30.195   2.257  0.1668 -0.1600  0.0777
21267W        W77508  28.644   2.462  20.447 -0.1830  0.0650  0.0722
21268W        W77509  19.257  31.670   2.497  0.0578  0.0188 -0.0067
21269W        W77510  13.984   3.499  23.032 -0.3364  0.2103  0.2062
21270W        W77511  21.567  20.592   3.173  0.1599 -0.0388  0.2879
21271W        W77512   2.828  30.208   7.835  0.0304 -0.2038 -0.2065
21272W        W77513  19.741  21.459   4.920 -0.1960 -0.1744  0.1240
21273W        W77514  16.796   9.487  20.724  0.0254 -0.0717 -0.3334
21274W        W77515   1.105  16.904  17.006  0.1857  0.0706 -0.1101
21275W        W77516  32.336   6.300  22.567 -0.0938 -0.0024 -0.3038
21276W        W77517  32.412  28.030  24.405  0.0387 -0.0967 -0.2077
21277W        W77518  23.237  33.910  14.621  0.1107  0.1154 -0.2463
21278W        W77519   2.603  26.853  22.258 -0.0747  0.1121 -0.0587
21279W        W77520  11.255   3.284  20.138  0.1507 -0.0327 -0.1412
21280W        W77521   1.952  26.161  23.813 -0.3333 -0.2705  0.2725
21281W        W77522  24.752  30.415  11.066 -0.1055  0.1916 -0.1014
21282W        W77523  10.661  30.489  11.076  0.0871  0.0939  0.1807
21283W        W77524  29.157   0.176  24.694  0.0526 -0.3572  0.1119
21284W        W77525  28.100  19.732  19.079 -0.1888  0.0320  0.4064
21285W        W77526   5.007   3.793  20.151 -0.0157 -0.2625 -0.0147
21286W        W77527  17.157  27.211   4.658 -0.0421  0.2290 -0.0074
21287W        W77528  15.355   2.673  18.759  0.3401  0.0004  0.0484
21288W        W77529  16.036  15.784  22.414  0.1056 -0.1158 -0.2813
21289W        W77530  28.951  30.880  10.187 -0.2209  0.0547  0.0071
21290W        W77531  14.207   0.697  20.700  0.1715  0.1395 -0.1600
21291W        W77532  24.813  25.759  22.395  0.3910 -0.0887 -0.0504
21292W        W77533  34.793  27.975  19.370 -0.1850 -0.0258  0.4115
21293W        W77534  20.369  30.961  22.851 -0.1905  0.1830  0.2824
21294W        W77535  28.602  17.880   7.063  0.1393 -0.0594 -0.1077
21295W        W77536  23.038   3.866  17.206  0.2621 -0.0852  0.0287
21296W        W77537  25.422  24.796  15.004  0.0667  0.4579  0.0638
21297W        W77538  34.098  21.028  25.630  0.0129 -0.0468 -0.2666
21298W        W77539   8.026  30.799  22.707 -0.0025  0.2699  0.1085
21299W        W77540  10.349  27.457   0.593  0.3503 -0.1974 -0.1555
21300W        W77541  30.731  34.426  13.356 -0.0839 -0.0388 -0.2077
21301W        W77542  24.405  24.088  16.428  0.2528 -0.0448  0.0169
21302W        W77543  10.993   3.268  13.865  0.1635 -0.2217  0.1136
21303W        W77544  31.078  20.432   6.181 -0.0673 -0.2326  0.0157
21304W        W77545  14.366  33.186  23.763 -0.4816 -0.1141 -0.3551
21305W        W77546  33.562  24.998  10.662  0.2516 -0.1918  0.1959
21306W        W77547  29.493   9.423  22.351  0.1004  0.2965 -0.0913
21307W        W77548  23.934   9.306  19.842  0.0691 -0.2147  0.0012
21308W        W77549  34.527  13.156  11.363  0.2496 -0.1162  0.1211
21309W        W77550  23.225  28.254  22.496 -0.3009 -0.1316  0.2254
21310W        W77551  20.020   5.825   2.735 -0.0447 -0.4070 -0.2627
21311W        W77552  16.087  26.449   2.734 -0.2012 -0.1944 -0.1998
21312W        W77553  10.012  25.128   0.429  0.1416 -0.0846  0.0147
21313W        W77554   0.874  16.170  15.275  0.1155 -0.1051  0.2471
21314W        W77555  20.929  31.849  18.217  0.0449  0.0697 -0.3620
21315W        W77556  27.239  27.308  13.528 -0.2070  0.1530  0.1720
21316W        W77557  19.871  33.842   0.380  0.0990 -0.0956 -0.0967
21317W        W77558  31.334   0.275  13.262  0.2178  0.0549  0.1442
21318W        W77559   6.234  16.885  18.207  0.1875  0.0518  0.0953
21319W        W77560  18.859  34.128  25.034 -0.1711  0.3890 -0.2728
21320W        W77561  34.736  20.083   9.303 -0.2249  0.3072  0.4418
21321W        W77562  25.858  27.200  19.842 -0.0534 -0.1680  0.1756
21322W        W77563  33.911  33.065  25.270  0.2556 -0.0703  0.1671
21323W        W77564  23.101  26.430  25.871 -0.0213 -0.0703 -0.1037
21324W        W77565  15.770  30.883   9.665 -0.1405 -0.1818  0.5632
21325W        W77566  24.621  27.352  19.132  0.0376 -0.1177 -0.3152
21326W        W77567   6.556  10.476  10.423  0.0259 -0.1634  0.1235
21327W        W77568  15.670  22.030  25.313 -0.1248  0.0994  0.1441
21328W        W77569  27.621   3.394  16.877 -0.1038 -0.0014 -0.2724
21329W        W77570  21.327  27.510  23.642 -0.1503  0.3754 -0.0183
21330W        W77571   5.211  10.272  18.461 -0.1164 -0.3200 -0.2951
21331W        W77572  28.812  26.041  25.467 -0.2553  0.0190  0.0156
21332W        W77573  31.501  16.374  22.584 -0.2689 -0.1047 -0.0915
21333W        W77574   9.550   2.924  24.363  0.0007 -0.0142 -0.0321
21334W        W77575   8.432   4.591   0.167  0.0955 -0.1630 -0.1855
21335W        W77576   8.394  26.221  15.762 -0.1627 -0.2615 -0.0449
21336W        W77577   0.922  11.153  18.572  0.7134  0.0255  0.1789
21337W        W77578  22.957  31.796  25.079  0.0155 -0.0132  0.5480
21338W        W77579   3.975  25.236  23.430 -0.0591  0.2991  0.2400
21339W        W77580  10.894   1.994   2.531  0.0600  0.0710 -0.1115
21340W        W77581  34.994  13.410  12.592 -0.0476 -0.2296  0.0282
21341W        W77582  26.319   8.998  10.682 -0.0407  0.0953  0.2539
21342W        W77583  12.076  25.993   2.626  0.0403  0.0373 -0.0154
21343W        W77584  33.194   6.355   2.164 -0.0721 -0.2159 -0.0294
21344W        W77585  27.265  10.277   0.970  0.2193 -0.0291 -0.0486
21345W        W77586  18.243   8.371   4.835 -0.0882 -0.2246 -0.0376
21346W        W77587  34.999  21.411   8.748  0.3657  0.0567 -0.0917
21347W        W77588   7.358   3.282  20.979  0.2774  0.2116 -0.1796
21348W        W77589  26.913   3.485  23.696 -0.0661  0.3714 -0.0746
21349W        W77590   7.616  13.629   6.644 -0.2055  0.1538  0.0614
21350W        W77591  16.853   8.601  17.452 -0.0561  0.0046  0.0349
21351W        W77592   8.591   0.292   0.511  0.0757  0.2711  0.0802
21352W        W77593  10.945  31.228   6.008  0.3049  0.2564 -0.0292
21353W        W77594  28.818  33.173   1.859 -0.1080  0.2915  0.2423
21354W        W77595  21.607   4.624   7.728 -0.3606  0.2555  0.1221
21355W        W77596  27.396  22.414  12.980 -0.0611 -0.1981  0.1704
21356W        W77597  28.274  16.148  15.448 -0.2344  0.2876  0.0944
21357W        W77598  13.359  11.006   5.491 -0.0089 -0.0284  0.0513
21358W        W77599   5.521  30.289  13.780 -0.0604  0.3005  0.1178
21359W        W77600   4.479  34.614  11.677  0.1722  0.0019  0.1041
21360W        W77601   8.714  30.334   2.186  0.2437 -0.3848 -0.3666
21361W        W77602  34.842   2.778  15.504 -0.2421 -0.0825  0.0601
21362W        W77603  15.667  21.470   8.348 -0.0448  0.2981  0.0300
21363W        W77604  25.384  23.211  21.198  0.1127 -0.2393 -0.0357
21364W        W77605   3.450  12.413   0.447 -0.0161  0.2310 -0.0138
21365W        W77606   5.953  26.741   4.006  0.0355 -0.1129  0.2739
21366W        W77607  26.923  11.570  18.878 -0.0360  0.3372  0.0614
21367W        W77608  31.222  17.624   8.802 -0.0632 -0.0374 -0.0873
21368W        W77609  30.972  11.796  16.475  0.1136 -0.0508  0.2715
21369W        W77610  12.157   4.883  25.687 -0.1861 -0.1077 -0.1065
21370W        W77611  11.259  32.692   5.857 -0.0481  0.0686  0.2477
21371W        W77612   8.085  25.188  23.282  0.0207  0.1779 -0.2820
21372W        W77613  20.023  33.360   0.212 -0.3406 -0.0172  0.0061
21373W        W77614  12.933  21.528  23.524 -0.0784 -0.2165  0.1011
21374W        W77615  17.206   6.673   9.880 -0.1656 -0.1632  0.2307
21375W        W77616  26.650   1.793  11.362  0.2313 -0.0644  0.1098
21376W        W77617  30.498  17.979  10.925  0.1431  0.0392 -0.2115
21377W        W77618  11.636   9.750   9.621 -0.0082 -0.0507  0.0673
21378W        W77619  35.319   1.759   5.085 -0.1407 -0.0483 -0.1352
21379W        W77620  17.802   4.455  24.418 -0.1149  0.0200 -0.5397
21380W        W77621   6.059  29.436  23.863  0.0389  0.0994  0.2268
21381W        W77622  18.070   4.210  23.492 -0.0929  0.0605 -0.1787
21382W        W77623  12.437  18.690  22.952 -0.1236 -0.0491 -0.1356
21383W        W77624   1.676  27.937  25.068  0.4965 -0.1028 -0.0168
21384W        W77625   5.346  29.303  21.751 -0.0199 -0.0038  0.0340
21385W        W77626   7.016  16.079  18.696 -0.0459 -0.0384 -0.5297
21386W        W77627   7.568  24.171   8.633  0.2092  0.2058 -0.0768
21387W        W77628   9.634  27.800  13.850  0.3192  0.0301 -0.1290
21388W        W77629  18.825   1.172  22.219  0.0584 -0.3151 -0.0177
21389W        W77630  15.452  14.115  12.328  0.4270 -0.0811  0.0324
21390W        W77631  26.798  21.877  20.887  0.0256 -0.0672 -0.0855
21391W        W77632  13.021   7.339   2.919  0.0713  0.2288  0.0830
21392W        W77633   4.059  21.233  25.745 -0.0171  0.0441  0.3178
21393W        W77634  30.052  29.586  22.559  0.0406 -0.2000  0.0953
21394W        W77635   6.769  21.495  21.669 -0.1109 -0.3766  0.2681
21395W        W77636  18.265  24.068  19.816 -0.4692 -0.4237 -0.0907
21396W        W77637  31.080  26.116  10.116  0.3617  0.0492 -0.1592
21397W        W77638  29.662  26.266  25.241  0.1595  0.0347 -0.2472
21398W        W77639  29.660  11.900  11.009 -0.2297  0.1736  0.0015
21399W        W77640  16.460  22.846   2.530 -0.1144 -0.2796  0.2883
21400W        W77641  20.009   1.252  25.499  0.2200  0.0307 -0.1856
21401W        W77642   1.750  25.760   0.106  0.1597  0.0386 -0.1166
21402W        W77643   0.734  28.165   5.348  0.1156  0.0903 -0.2167
21403W        W77644  21.591   7.092   7.265 -0.2278 -0.0222 -0.4162
21404W        W77645  19.509   1.962   1.777 -0.1065  0.3553  0.2304
21405W        W77646  16.572   2.337  24.358  0.2535  0.1492  0.0395
21406W        W77647  23.909  31.605  20.660  0.1504 -0.0816 -0.2046
21407W        W77648  29.311   4.902  14.744  0.0143  0.0315  0.1436
21408W        W77649  21.836   9.950  20.618  0.2884 -0.4169  0.2461
21409W        W77650  23.258  34.425   2.448  0.2726 -0.0053 -0.2277
21410W        W77651  25.923  26.897  20.561  0.2147 -0.0119  0.0226
21411W        W77652  22.009  33.829   2.526 -0.0019 -0.4474  0.0470
21412W        W77653   7.477   8.699  11.211 -0.2533 -0.0508 -0.1325
21413W        W77654  14.643  35.196   0.690 -0.0974 -0.1488 -0.2880
21414W        W77655  25.987  22.855  17.623 -0.1109  0.1725  0.0660
21415W        W77656  28.018   1.327   0.284  0.1206 -0.0946 -0.3008
21416W        W77657   9.628  20.935   2.267  0.0283  0.1579 -0.0168
21417W        W77658  13.961  16.769  23.348 -0.0674  0.2058  0.2865
21418W        W77659   4.262   7.572  25.173  0.2987  0.0129  0.1397
21419W        W77660   1.542  13.569  11.834  0.0415  0.1765  0.1320
21420W        W77661  18.721  25.022   5.806  0.0329 -0.1810 -0.2023
21421W        W77662   5.474   3.451  17.571  0.1555  0.2008  0.1003
21422W        W77663  26.937   6.836  22.698 -0.0739 -0.1199 -0.2837
21423W        W77664   2.663  17.831  23.827 -0.0400 -0.1099 -0.2856
21424W        W77665  25.488  14.944  12.143  0.1645  0.0247 -0.1864
21425W        W77666   6.447  23.576   7.414 -0.3007 -0.3393  0.2655
21426W        W77667  10.169   2.194  25.443 -0.2187  0.0113  0.0721
21427W        W77668   9.011   4.839  19.685 -0.1467  0.1161 -0.0017
21428W        W77669   9.259   6.488   3.402 -0.0770  0.1955 -0.1537
21429W        W77670  26.490   1.678   0.597 -0.2849 -0.0570 -0.0574
21430W        W77671  22.944  18.305  15.868 -0.1114 -0.1823 -0.3523
21431W        W77672  20.036  15.319  25.894 -0.1760 -0.1692 -0.1921
21432W        W77673  24.277  31.255  25.296 -0.1825 -0.1498 -0.1668
21433W        W77674   7.839  34.072  25.709 -0.3043 -0.2302 -0.1754
21434W        W77675  10.479  10.433  21.456  0.0281 -0.1162  0.0419
21435W        W77676  30.634   0.007  14.406  0.4090 -0.1738  0.1511
21436W        W77677   3.450  10.402  14.071  0.1863 -0.5813 -0.0355
21437W        W77678  23.281  32.509  22.547  0.0862 -0.0260 -0.2851
21438W        W77679  21.718   6.416  24.466  0.2885  0.2551  0.1091
21439W        W77680   1.306  29.576  24.517 -0.3906 -0.4158 -0.1399
21440W        W77681  28.014  10.166  16.321  0.0943 -0.0716  0.2211
21441W        W77682  17.753   7.728   3.851 -0.2434 -0.1749 -0.0105
21442W        W77683   5.922  23.832   5.587 -0.2630  0.1102  0.3229
21443W        W77684  33.087   3.163  12.760 -0.0238  0.3355  0.1648
21444W        W77685  34.609   7.325  24.903  0.1445  0.1340  0.3255
21445W        W77686  13.803  22.277  11.404 -0.1135 -0.0006 -0.0984
21446W        W77687   4.556   5.139   0.809 -0.0446  0.1693  0.1104
21447W        W77688   6.229  28.979  23.651 -0.1374  0.0260  0.0068
21448W        W77689   1.536  30.559  19.922 -0.0451 -0.0084 -0.0965
21449W        W77690  23.300   3.880   1.682  0.2992 -0.0818  0.1458
21450W        W77691  18.368  27.377  21.221  0.1779 -0.0412 -0.0340
21451W        W77692  13.972   7.939  13.650  0.1479  0.1453  0.0692
21452W        W77693   0.978  29.144   7.700 -0.0583  0.3220  0.1056
21453W        W77694  30.338  22.471  17.041  0.1256 -0.1510 -0.1697
21454W        W77695  16.129  31.939   7.237 -0.1615  0.0862  0.1219
21455W        W77696  10.760   9.592   6.178 -0.1801  0.2410 -0.1342
21456W        W77697  29.473   7.670  13.937 -0.4813 -0.0282  0.2859
21457W        W77698  31.471   6.115  14.845  0.0404  0.0410  0.0489
21458W        W77699   8.723  29.205  13.997  0.2035  0.2568 -0.1365
21459W        W77700  12.969  24.438  16.189 -0.1305 -0.0551  0.1272
21460W        W77701  32.712  23.856   8.996 -0.2479 -0.3139  0.0838
21461W        W77702  31.924  27.642  25.792 -0.2838 -0.0135  0.0708
21462W        W77703   8.279   3.591   4.659  0.4334  0.1571 -0.1914
21463W        W77704  31.503  33.133   3.301  0.3973 -0.0979 -0.2109
21464W        W77705  14.315  19.179   9.154  0.1215  0.3366 -0.2071
21465W        W77706   4.036  24.380   1.032  0.3919  0.1892  0.1647
21466W        W77707  14.193  16.488   9.303  0.0049  0.0814 -0.0336
21467W        W77708   9.238  10.376   3.903 -0.0398  0.0299 -0.1920
21468W        W77709  17.009  25.945   7.128 -0.2388  0.0896 -0.2128
21469W        W77710   6.358  30.638  12.831  0.5881  0.0592  0.3158
21470W        W77711   4.166  15.920  17.364  0.1189  0.0644  0.0170
21471W        W77712  29.895  21.264  18.875 -0.0274 -0.2099 -0.0453
21472W        W77713  11.915   5.798  21.552  0.0274 -0.1159  0.0947
21473W        W77714  33.545   7.529   3.356  0.1163  0.0807  0.2034
21474W        W77715   3.869   0.579   3.539 -0.0534 -0.0855  0.1724
21475W        W77716   6.275  21.567  21.788  0.3474 -0.0330  0.2955
21476W        W77717  31.677   2.060  16.474  0.1783 -0.2744 -0.0062
21477W        W77718  19.874  24.181  10.402  0.1389 -0.2334 -0.2920
21478W        W77719  34.313   6.689   5.107 -0.0889  0.0466 -0.2327
21479W        W77720   6.029  15.865   6.752  0.1511  0.1223 -0.0753
21480W        W77721  24.370   2.064  24.001  0.0370  0.2847 -0.2090
21481W        W77722  21.142   1.474  19.042  0.2694  0.1311  0.1496
21482W        W77723   3.056   7.917  22.510 -0.0452 -0.0937 -0.3634
21483W        W77724   4.819   5.942   9.036 -0.2871  0.0161  0.2346
21484W        W77725   2.934   7.622  24.837  0.2124 -0.3215  0.0679
21485W        W77726  17.261  35.200  23.341  0.1387 -0.0431  0.1379
21486W        W77727  20.641  19.160  21.841  0.0449 -0.2605  0.0768
21487W        W77728  25.068   2.292  24.391 -0.0607  0.2517 -0.0236
21488W        W77729  23.518  10.718  17.254 -0.0671 -0.3293  0.1139
21489W        W77730  31.875   0.870  24.960 -0.0607 -0.0301 -0.1777
21490W        W77731  27.204   1.694   5.657 -0.0451 -0.1090  0.0596
21491W        W77732  24.351  33.547  18.514 -0.0658 -0.1558 -0.1404
21492W        W77733  10.833   5.793   2.386 -0.1356  0.2071  0.1276
21493W        W77734  28.810  29.071   1.558  0.0457  0.0846 -0.0859
21494W        W77735   6.119  15.978  19.023 -0.2371 -0.1796  0.1871
21495W        W77736   6.343  28.253   4.479 -0.0156  0.1274 -0.2207
21496W        W77737  27.109  32.008  24.977  0.0572 -0.0163  0.2561
21497W        W77738  34.664  26.359   2.044 -0.3672 -0.1446  0.0356
21498W        W77739  33.623  25.427  21.538 -0.5828 -0.0124 -0.1850
21499W        W77740  24.100   7.217   4.002 -0.2389 -0.1852 -0.0835
21500W        W77741  16.330  20.394   3.335 -0.1583 -0.2073  0.2561
21501W        W77742  31.397  28.285  14.974  0.0653 -0.0686 -0.1027
21502W        W77743  20.384   3.469   7.880 -0.0541 -0.0641  0.4362
21503W        W77744  18.846  26.021   3.131 -0.1656  0.1586 -0.3713
21504W        W77745  11.963  20.697   3.830 -0.1029  0.0191 -0.0966
21505W        W77746   4.759   4.159  22.884  0.3973  0.2612  0.1670
21506W        W77747   3.591  14.952   0.850 -0.0476 -0.1837  0.1815
21507W        W77748  10.799  28.067  12.044  0.4141 -0.4661  0.0051
21508W        W77749  32.522  16.297  24.644  0.3322 -0.0667 -0.3524
21509W        W77750   7.833  26.136   0.846 -0.0003  0.0152  0.0859
21510W        W77751  35.130   3.940   3.977  0.3296  0.0152 -0.1747
21511W        W77752  15.080  25.004   4.696  0.2155  0.0427  0.1518
21512W        W77753  27.615  23.868  17.566 -0.3061  0.2949 -0.0758
21513W        W77754  22.038   3.733  17.358 -0.1347  0.3366 -0.1606
21514W        W77755   6.226  29.604   6.806  0.3055  0.3785  0.1896
21515W        W77756  14.163   7.638   7.191 -0.2000 -0.1090 -0.1142
21516W        W77757  25.492   2.183   3.241  0.0191  0.1118  0.0312
21517W        W77758   7.275  29.725  26.054  0.0390  0.0766 -0.0927
21518W        W77759  21.193  25.322  21.441 -0.0703  0.0535  0.0252
21519W        W77760  20.064  12.628  24.948 -0.1723 -0.0771  0.2689
21520W        W77761   1.864  33.869   8.419  0.4179  0.2993 -0.1757
21521W        W77762   4.949   5.974  24.151  0.4429 -0.1581  0.0309
21522W        W77763   6.679  27.552   7.276 -0.0113  0.3013  0.0489
21523W        W77764  21.567   1.212  25.093 -0.0055 -0.0026  0.1833
21524W        W77765  31.317   7.107  11.767 -0.3990 -0.1643  0.0107
21525W        W77766  13.394  22.488  24.299  0.3478 -0.1137  0.2738
21526W        W77767   9.790   7.823   1.102  0.1223 -0.1158 -0.1448
21527W        W77768  13.126   9.472   4.891 -0.4873  0.0909  0.0170
21528W        W77769   9.305  32.093  25.766  0.0063  0.1553  0.2146
21529W        W77770   9.282  18.015  20.827 -0.2762  0.0241 -0.1738
21530W        W77771   5.784   0.334   1.838  0.2565 -0.0024 -0.0927
21531W        W77772   0.387  26.981  16.839 -0.1903 -0.5180  0.0290
21532W        W77773   5.513  33.123  22.191 -0.0854 -0.0662 -0.0321
21533W        W77774  23.739  21.711  12.526 -0.0532  0.3011  0.1091
21534W        W77775  13.777   8.531  11.101  0.0880 -0.0910 -0.1361
21535W        W77776  16.754   4.816  22.540  0.1244  0.0936 -0.0754
21536W        W77777  17.749  28.181   8.618 -0.2573 -0.2227  0.0397
21537W        W77778  27.590  11.744   7.533 -0.3232  0.0608  0.0349
21538W        W77779   6.625  15.081  10.168 -0.2815  0.2229 -0.1428
21539W        W77780  27.071  20.119   0.149  0.0151 -0.2862 -0.1643
21540W        W77781  18.615   9.414  21.605  0.2115  0.0871 -0.0431
21541W        W77782  29.494  20.381  13.298  0.1372  0.0663 -0.1137
21542W        W77783  20.658  33.605   1.018  0.0099  0.0137  0.2571
21543W        W77784   1.680   3.466  14.769 -0.1246 -0.0012  0.3055
21544W        W77785  31.187  24.822  18.476 -0.0141 -0.0426  0.1694
21545W        W77786  29.730  30.543  18.129 -0.0853 -0.3656  0.0070
21546W        W77787  24.333  29.614   4.168  0.0568 -0.3066  0.0637
21547W        W77788  26.432  34.604  23.263  0.2092 -0.0753 -0.1744
21548W        W77789  15.902  29.291  24.002 -0.1610 -0.1415  0.1569
21549W        W77790  13.045  18.478  11.187  0.0588  0.2048 -0.0378
21550W        W77791  13.917  16.207  19.499 -0.0983  0.0316 -0.1352
21551W        W77792  12.939   2.623   8.971 -0.0718 -0.2851 -0.3611
21552W        W77793  24.271  22.989   0.152  0.3212  0.0770 -0.1458
21553W        W77794   1.642  22.842  24.198 -0.1219 -0.2705 -0.3309
21554W        W77795   7.256  18.357  11.697 -0.1244  0.1429 -0.0610
21555W        W77796  21.376  29.838  21.969 -0.1660 -0.0108 -0.0494
21556W        W77797  21.096  25.327  24.986 -0.0017 -0.1440 -0.2801
21557W        W77798  15.005   1.918   2.680 -0.0989 -0.1067  0.1940
21558W        W77799   8.110   0.693   1.073 -0.0782 -0.0433 -0.1140
21559W        W77800  28.683  35.067  17.213  0.1167 -0.2267 -0.0664
21560W        W77801   3.845  30.948   3.023 -0.1450 -0.1735 -0.1133
21561W        W77802  21.043   5.461  15.247  0.0056  0.1953  0.0578
21562W        W77803   1.778  17.740  10.158 -0.0406  0.0325 -0.1708
21563W        W77804  10.357  28.515   8.954 -0.1789  0.1217  0.1001
21564W        W77805  22.346  30.505   2.011  0.5860 -0.1379  0.2541
21565W        W77806  24.521  25.064  12.900  0.0008  0.4271  0.1603
21566W        W77807   5.192  11.738  20.722 -0.0377 -0.0887 -0.0989
21567W        W77808  26.106  16.567  10.806  0.0247 -0.1927  0.0316
21568W        W77809  31.306  32.256  23.509  0.2102 -0.3802  0.1130
21569W        W77810  28.415   0.125  20.930  0.0585 -0.1536 -0.0757
21570W        W77811   4.180  31.749   4.149 -0.3214  0.1487 -0.2501
21571W        W77812  34.293  30.309  22.645  0.0253 -0.1734  0.3578
21572W        W77813  22.913   7.774  21.534  0.2747  0.3085 -0.1487
21573W        W77814  23.571   1.345  20.310 -0.0128  0.1376 -0.2904
21574W        W77815  24.245   6.939  17.692 -0.0700  0.1687  0.0556
21575W        W77816  15.704   0.392   7.787  0.1476 -0.5020 -0.0403
21576W        W77817  22.097  22.597   0.065 -0.2314  0.1439  0.1281
21577W        W77818  25.774  26.647  14.335 -0.2553 -0.1435 -0.2160
21578W        W77819  15.089  14.296   3.907 -0.3433 -0.2211  0.0049
21579W        W77820   4.948  21.446   5.334  0.1059 -0.1626 -0.1539
21580W        W77821   1.159  14.630  21.627 -0.2018 -0.3123  0.1834
21581W        W77822  29.505   3.595  17.388  0.1425  0.0902 -0.0626
21582W        W77823  20.235   7.067   9.854  0.0817  0.1959 -0.2007
21583W        W77824   2.939  20.150  18.160  0.0311  0.0188 -0.1439
21584W        W77825  13.974  31.434  11.008 -0.0912  0.1690  0.1185
21585W        W77826  10.928  28.617   2.827 -0.4310  0.2474 -0.1533
21586W        W77827   9.955  31.417   3.786  0.1521  0.1667  0.3847
21587W        W77828  24.479   4.764   1.263  0.0128  0.3587  0.1676
21588W        W77829   4.738   8.340  25.037  0.0806  0.0620  0.0504
21589W        W77830  22.831  16.921  20.798  0.2160 -0.0858  0.1666
21590W        W77831  17.915  13.049   3.668  0.1208 -0.1315  0.1290
21591W        W77832  33.389  28.108  20.285 -0.1815 -0.0598 -0.1410
21592W        W77833  15.391  22.227  17.082 -0.0000  0.0761  0.1205
21593W        W77834  27.052  21.610  23.539 -0.0909  0.0113  0.1953
21594W        W77835  13.054  35.343   6.205  0.0678  0.1551 -0.1133
21595W        W77836   4.814  14.640   0.025 -0.0749  0.0694  0.1962
21596W        W77837  13.244  19.064  14.380  0.1346 -0.2873  0.0796
21597W        W77838  23.753  16.770   1.576 -0.4561 -0.1324  0.3201
21598W        W77839  23.480  32.573  23.901 -0.0066 -0.2928  0.2231
21599W        W77840  14.187  34.991   7.487  0.0834 -0.0167 -0.3211
21600W        W77841  28.195  27.004   1.511  0.1340 -0.0741 -0.1982
21601W        W77842  27.821  22.975  25.546 -0.2600 -0.1254 -0.0048
21602W        W77843  33.228  15.867  21.480  0.0883 -0.3581 -0.0727
21603W        W77844   6.004  30.344   5.858  0.2037  0.0294 -0.0816
21604W        W77845  30.533  33.070  24.477 -0.1522  0.0591 -0.0039
21605W        W77846  15.867   7.622  22.412  0.0182  0.0161 -0.0885
21606W        W77847  22.416   3.765  21.347 -0.1599  0.1289  0.0577
21607W        W77848  18.155  15.757  22.577  0.1132  0.1548  0.1214
21608W        W77849   6.582   3.215   0.109  0.2213 -0.1275 -0.1913
21609W        W77850  16.527  25.968  23.382 -0.0604 -0.2031 -0.3652
21610W        W77851   7.782  23.008  11.549  0.2178  0.0920  0.0033
21611W        W77852  12.648  14.828  18.036  0.0488 -0.2365 -0.0179
21612W        W77853  18.400  31.902  18.228 -0.3250 -0.0992  0.1262
21613W        W77854   8.139  25.711  25.515 -0.3861 -0.0452  0.0554
21614W        W77855   1.076  15.312  24.827  0.0388  0.0717  0.1273
21615W        W77856  11.947  32.088   8.687 -0.0202  0.4930  0.2584
21616W        W77857  15.317  19.643   5.075 -0.0116  0.0529 -0.4276
21617W        W77858  32.607   5.408  22.118 -0.2780 -0.1959 -0.1048
21618W        W77859  32.166  19.908  16.525 -0.0250  0.3807  0.1491
21619W        W77860  33.975  12.019  22.830  0.1833 -0.1666 -0.0377
21620W        W77861  24.709  23.555  21.639 -0.0471  0.0493  0.1694
21621W        W77862  20.118  26.474  24.606  0.2624 -0.3798 -0.0677
21622W        W77863  11.325  21.931  16.174 -0.0637 -0.0920  0.0464
21623W        W77864  30.450  20.167   7.146  0.1516  0.1138 -0.1120
21624W        W77865  19.486  33.303  16.563  0.1397 -0.0634  0.2908
21625W        W77866   6.908  29.790   7.574  0.1166 -0.0049 -0.1796
21626W        W77867  33.083  15.098  21.627 -0.2125 -0.1986  0.1232
21627W        W77868   9.961   2.295  11.423  0.3587  0.0024  0.1090
21628W        W77869   4.026  18.362   0.675  0.2621  0.1262  0.0557
21629W        W77870  22.923  10.519  20.567  0.1564  0.1271  0.1441
21630W        W77871  31.998  29.432   4.743  0.2182  0.0257  0.1550
21631W        W77872  30.374  30.296  13.564  0.2261 -0.3193 -0.1810
21632W        W77873   0.753   3.556  20.319  0.2004  0.0298  0.0489
21633W        W77874  18.104  34.087   0.083  0.2939  0.0694 -0.0302
21634W        W77875  15.483   4.822   7.318  0.3738 -0.2280  0.1382
21635W        W77876  29.305  14.647  15.005 -0.1257 -0.2670 -0.1100
21636W        W77877  34.485  15.042  11.859 -0.0045  0.1410  0.0877
21637W        W77878  34.879   5.155  20.691 -0.0307  0.3472  0.1491
21638W        W77879  26.802  33.198  17.117  0.0945 -0.1046  0.3509
21639W        W77880   2.956   0.961   1.700 -0.1315  0.3769 -0.1892
21640W        W77881   4.513   2.204  21.250  0.1150 -0.2905 -0.0335
21641W        W77882  33.606  29.638   5.978 -0.1536  0.1472 -0.1725
21642W        W77883  16.516  33.815  21.007 -0.0868  0.6108 -0.0161
21643W        W77884  33.165  13.827  16.953  0.0280  0.0647  0.0801
21644W        W77885   1.664   6.136  22.335  0.0183  0.0540 -0.0227
21645W        W77886  10.550   9.508  22.299 -0.2727 -0.1210  0.1960
21646W        W77887  25.806  28.810  23.605  0.2496 -0.2711 -0.0704
21647W        W77888  26.709   6.148   2.668 -0.0115 -0.3440 -0.1435
21648W        W77889   7.598  14.852  22.559 -0.1700 -0.2286 -0.2331
21649W        W77890   8.306   9.618   8.341  0.2407  0.2447  0.0663
21650W        W77891   1.284   5.361   5.598  0.0826 -0.3511  0.1931
21651W        W77892   1.286   2.961  23.027 -0.0140 -0.1358  0.0212
21652W        W77893   5.994  18.969   0.245 -0.5054  0.0965  0.1231
21653W        W77894  32.842  29.664   0.003 -0.1109  0.0649 -0.1551
21654W        W77895  21.721  17.219   2.354  0.0804 -0.3429 -0.0316
21655W        W77896   8.924  19.712  24.538  0.0604 -0.3326 -0.2760
21656W        W77897  20.049  33.981  16.084  0.0744 -0.1480 -0.0881
21657W        W77898   3.299  26.112  22.828 -0.1640  0.0390  0.0251
21658W        W77899  10.376  22.757   5.477  0.3001 -0.4143  0.0750
21659W        W77900  18.583   2.115   8.266  0.2238  0.0428 -0.2149
21660W        W77901  16.510  11.055   9.223 -0.3063 -0.2625  0.0318
21661W        W77902   6.500  23.389  25.473 -0.0001  0.0145 -0.2554
21662W        W77903  33.256  22.753  22.018  0.1005  0.1988  0.1220
21663W        W77904   7.770  25.361  10.224  0.0765  0.0360 -0.0758
21664W        W77905  34.138  15.102  19.127  0.0399  0.1418  0.0902
21665W        W77906  20.138  20.524  19.558  0.2320 -0.0906  0.1270
21666W        W77907  33.134   3.231  17.991 -0.1868 -0.0336  0.0939
21667W        W77908  11.441  16.260   3.590  0.1439 -0.1532 -0.0954
21668W        W77909  35.072  31.006  23.586 -0.4285 -0.3137 -0.1864
21669W        W77910  33.052  30.227  13.173  0.0819 -0.0383 -0.2475
21670W        W77911  29.576  14.798  12.498 -0.0178 -0.0367 -0.2598
21671W        W77912  27.218   6.732  21.158 -0.2267 -0.0403  0.1582
21672W        W77913  35.321  15.488  25.563 -0.3476 -0.0243 -0.0092
21673W        W77914  19.388  32.886  23.703 -0.3925 -0.0762 -0.0944
21674W        W77915  34.127   3.920  20.383 -0.1989 -0.1283 -0.2487
21675W        W77916  24.380  34.837  18.882 -0.0498  0.0408 -0.0498
21676W        W77917  30.356  33.155  23.065 -0.0860  0.5210 -0.2068
21677W        W77918  15.266   2.164  25.024 -0.1199  0.0745  0.1053
21678W        W77919  24.964   4.083   4.956  0.2137  0.0519  0.0413
21679W        W77920  34.171  16.497  12.018 -0.3183 -0.0748  0.3113
21680W        W77921  35.288  14.598  17.418 -0.0671 -0.0628 -0.2347
21681W        W77922  20.605  22.286   4.369  0.3999 -0.2812 -0.1259
21682W        W77923   8.291  12.123  11.975 -0.0666  0.2456 -0.2618
21683W        W77924   4.603  10.867  22.449 -0.0120 -0.1586  0.1045
21684W        W77925   9.044   0.082  10.505 -0.1570  0.0270 -0.1753
21685W        W77926  25.165  20.441  22.940 -0.2209  0.2550  0.1756
21686W        W77927  11.663  30.357   1.453  0.1360 -0.0262 -0.0183
21687W        W77928   9.568  30.844   2.022 -0.1312  0.1437  0.0186
21688W        W77929  21.634   7.689  25.565  0.2930  0.2587  0.0378
21689W        W77930   2.883  34.765   0.137 -0.0394 -0.0546  0.1628
21690W        W77931  28.998   1.957   6.057 -0.1550 -0.0708 -0.2195
21691W        W77932   5.265  27.563   7.009  0.5411  0.0044 -0.0077
21692W        W77933  35.312  28.820  21.962  0.0069  0.0186 -0.1696
21693W        W77934  31.722  18.595   7.883 -0.1858  0.2313  0.0145
21694W        W77935   5.625  21.709   6.668  0.1705 -0.2303  0.0428
21695W        W77936   0.001   6.770   2.748  0.1137 -0.1650 -0.1100
21696W        W77937  10.899   3.823   3.953  0.2118  0.0930 -0.0105
21697W        W77938   5.500  34.215  22.254 -0.0121  0.0186  0.1247
21698W        W77939   2.823  31.590  18.539  0.2515  0.1588 -0.0652
21699W        W77940  16.384  30.320   6.227 -0.0881 -0.1173 -0.3730
21700W        W77941   8.590  32.844  10.534  0.3034 -0.0108  0.1427
21701W        W77942   6.253   9.943  17.356 -0.1529  0.1513 -0.2159
21702W        W77943  13.986  34.377   1.430  0.0036 -0.2150 -0.1037
21703W        W77944  15.629   4.541   2.902  0.1671  0.1433  0.0193
21704W        W77945  22.225   1.889   4.177 -0.1426 -0.0123 -0.2436
21705W        W77946   6.023  28.801   1.097 -0.0782 -0.1054  0.0747
21706W        W77947  22.181  18.837   2.787  0.0042 -0.3180  0.1573
21707W        W77948  27.006  14.249  23.639  0.2233 -0.3786 -0.2275
21708W        W77949  23.602   0.510   2.773 -0.2400 -0.1970 -0.0608
21709W        W77950  11.783  17.815  14.133 -0.3229 -0.1211 -0.0501
21710W        W77951  27.059   1.668  17.173 -0.2013 -0.0300 -0.1453
21711W        W77952  25.918  29.952  19.266 -0.0453 -0.2698 -0.0628
21712W        W77953  34.777  34.950   3.379  0.2854 -0.1773  0.3217
21713W        W77954  11.171  28.549   3.731  0.0527 -0.0402 -0.2147
21714W        W77955  31.733  29.006   4.112 -0.0281 -0.0517  0.2222
21715W        W77956  26.191  10.296  11.960 -0.1881  0.0136 -0.0530
21716W        W77957  21.511  26.845  22.149  0.3071  0.0236 -0.3871
21717W        W77958   4.659  14.748  23.504  0.0227 -0.1943  0.2428
21718W        W77959  22.150   8.065  18.532  0.2588  0.1152  0.1420
21719W        W77960   9.246   4.189  20.082  0.1500  0.1065 -0.0734
21720W        W77961  23.788  35.010   2.879 -0.3310  0.2801  0.0494
21721W        W77962  31.335   4.332  22.013 -0.0222 -0.1445  0.2924
21722W        W77963  31.486  26.187  18.114 -0.0727 -0.1570  0.1255
21723W        W77964  17.580  10.251  22.865  0.2309  0.5502 -0.2552
21724W        W77965  28.826   5.132  11.346  0.2078 -0.0492  0.0968
21725W        W77966  27.460  20.207   6.592 -0.0539  0.0495 -0.2518
21726W        W77967  35.361  11.738  26.127  0.0934 -0.0516  0.0500
21727W        W77968  32.265  25.658  23.639  0.1818 -0.2221  0.0464
21728W        W77969  25.146  35.379  11.725  0.0042 -0.0334  0.2125
21729W        W77970  26.333  20.632  15.954  0.1064 -0.1000  0.2445
21730W        W77971  28.506  23.395  25.987 -0.2044  0.0636  0.0567
21731W        W77972  23.560  24.536  22.995  0.0558  0.1733 -0.0960
21732W        W77973  10.883  21.393   1.999  0.0738 -0.0694  0.0229
21733W        W77974  32.130  11.598  17.708  0.0584  0.0142  0.0265
21734W        W77975  15.897  19.399   2.291  0.0583  0.1916 -0.1253
21735W        W77976  32.181  23.206  23.765  0.1955  0.1426 -0.1138
21736W        W77977  11.937  12.457   2.432 -0.1537  0.2808  0.1576
21737W        W77978   4.283  31.594   0.354  0.1133  0.1899  0.0757
21738W        W77979  11.737  33.826   4.101 -0.4343  0.1369 -0.2097
21739W        W77980  10.704   0.911   5.656 -0.1764  0.1051 -0.1482
21740W        W77981  26.981  29.725  16.391  0.1826  0.0721 -0.0319
21741W        W77982  27.295  15.009  10.874 -0.0556  0.1725 -0.1897
21742W        W77983  33.822  17.326  20.540 -0.0302 -0.3184  0.2845
21743W        W77984  32.646  33.537  24.971  0.1116 -0.0927 -0.0198
21744W        W77985  14.047   2.336  17.619 -0.0265  0.1511 -0.1021
21745W        W77986  16.025  21.011  11.600  0.1951  0.1519  0.0899
21746W        W77987  13.002  31.361   5.126  0.1292 -0.0314  0.0726
21747W        W77988  30.894  13.172  14.244 -0.1958  0.2395  0.3972
21748W        W77989  29.115   5.720  22.021  0.0083  0.0081  0.0629
21749W        W77990   4.738  28.135   0.545 -0.0023 -0.0423 -0.0135
21750W        W77991   4.905  29.917  14.456  0.4104 -0.1615  0.2921
21751W        W77992  23.810  26.955  11.633  0.0813 -0.2940  0.0792
21752W        W77993  27.128  31.573   2.230 -0.0860  0.0823  0.2736
21753W        W77994  31.446   1.522  16.691 -0.1355 -0.1718 -0.1682
21754W        W77995   8.452   9.002  12.877 -0.0698  0.4587 -0.1424
21755W        W77996  24.565   4.504  25.980  0.1129  0.1323 -0.0523
21756W        W77997  24.674   2.210  21.300  0.0311 -0.1950  0.2106
21757W        W77998   0.840  18.172   8.701  0.1385  0.1209 -0.0816
21758W        W77999  32.682  19.615   8.836  0.0291 -0.0470 -0.1223
21759W        W78000   6.513   4.638  24.298  0.1238  0.2216  0.0982
21760W        W78001   9.260  29.675  24.556  0.1657  0.1032 -0.2199
21761W        W78002  20.508  31.106   4.654  0.1706  0.3883 -0.1553
21762W        W78003  10.513  18.938   3.609  0.1439 -0.0405  0.2913
21763W        W78004   4.371   1.168   6.512  0.0227  0.0848 -0.3204
21764W        W78005  22.759  18.364  14.153 -0.1358 -0.0479  0.1387
21765W        W78006  13.246  20.418  12.475 -0.2310 -0.1157 -0.1023
21766W        W78007  20.185  12.406  17.252  0.0212  0.3587  0.2592
21767W        W78008  10.979  15.373   6.101  0.1858 -0.2652  0.3067
21768W        W78009  28.206  34.291  15.848  0.1774  0.0495 -0.0040
21769W        W78010   9.258   9.668  19.543  0.0109 -0.3433 -0.2359
21770W        W78011  10.957  28.198   8.092 -0.0091  0.1722 -0.0356
21771W        W78012  30.812  12.970  16.007  0.3409  0.1874  0.1449
21772W        W78013  28.539  20.919  13.557 -0.0857 -0.2477 -0.1980
21773W        W78014  16.500   0.971   1.601  0.3049 -0.2660  0.3102
21774W        W78015  19.844  28.113  22.166 -0.2127  0.0684  0.0738
21775W        W78016  13.006  15.452   3.876 -0.2762  0.1565  0.1137
21776W        W78017  20.200  25.071   7.535 -0.0190 -0.0972  0.1697
21777W        W78018  15.027  28.972   1.800 -0.3630  0.2951  0.1727
21778W        W78019  30.560   5.611  22.559 -0.2385 -0.1999 -0.4289
21779W        W78020  22.296  10.165  18.828  0.0098  0.0437  0.2590
21780W        W78021  23.619  21.061  23.164 -0.1793  0.3849 -0.0191
21781W        W78022  17.494  13.046   8.037  0.0204  0.1202  0.1062
21782W        W78023  13.122  16.790   4.237  0.1750 -0.1409  0.1017
21783W        W78024  25.121  32.261   0.297 -0.1833 -0.1806 -0.0239
21784W        W78025  26.602  12.408  16.452 -0.2799  0.0316  0.1919
21785W        W78026   3.678  26.867   6.606 -0.1329  0.3701  0.1338
21786W        W78027  30.625   2.267   5.611 -0.2995  0.1436  0.0386
21787W        W78028  17.600  22.673  12.215 -0.3380  0.3337 -0.0322
21788W        W78029  28.648   1.879  12.868 -0.3778 -0.0369 -0.0888
21789W        W78030  21.203  29.936  16.258 -0.1323 -0.2100 -0.0375
21790W        W78031  13.252  32.892   0.643  0.0284 -0.1198  0.0356
21791W        W78032   0.284   9.780  15.789  0.2171 -0.2670 -0.0270
21792W        W78033  22.353  14.221  23.865 -0.1677 -0.0152 -0.0437
21793W        W78034  27.985  19.271   8.721  0.0854 -0.0491  0.0985
21794W        W78035   7.368  13.275  22.078 -0.0481 -0.1297 -0.3188
21795W        W78036   9.719  31.684  13.484  0.2147 -0.1713 -0.0559
21796W        W78037  21.647   6.069  16.078  0.0017 -0.1069  0.0572
21797W        W78038  19.061   5.024  10.252  0.4690  0.3129  0.1023
21798W        W78039   6.595  15.450   9.135 -0.1875  0.2495 -0.2575
21799W        W78040   4.092   9.664   5.911  0.0386  0.2546  0.0147
21800W        W78041  11.320   0.586   9.697  0.3414  0.1962 -0.2803
21801W        W78042  28.502   2.417  25.170 -0.0327 -0.4770  0.1992
21802W        W78043  28.366  13.180  13.580  0.1576 -0.1970  0.2134
21803W        W78044   1.410   8.682  20.315 -0.0350 -0.1230  0.1704
21804W        W78045   3.137   0.733   7.326 -0.2862  0.3955 -0.0665
21805W        W78046  35.331  33.972  16.881 -0.2688  0.0746  0.1153
21806W        W78047  28.823  32.961  13.888 -0.1976  0.0733 -0.3993
21807W        W78048  14.418  10.119   6.461 -0.2513 -0.1206  0.4011
21808W        W78049  18.078  31.766   5.832  0.0217 -0.1754  0.0689
21809W        W78050  27.145  19.440  19.050 -0.4369 -0.1507 -0.0654
21810W        W78051  15.981   2.361  18.274  0.0152 -0.0174 -0.0620
21811W        W78052   1.092  11.448   1.526  0.1463 -0.3076  0.0572
21812W        W78053   1.649  33.795   4.639 -0.0804  0.0531 -0.0858
21813W        W78054   5.486  10.714   2.266  0.3829 -0.2942  0.2284
21814W        W78055  19.310  33.139   5.495 -0.1363 -0.1457  0.0295
21815W        W78056  20.304  33.520  16.207  0.1972 -0.0725  0.2431
21816W        W78057  29.671  14.624  22.393  0.0388  0.2642 -0.2832
21817W        W78058  24.779  21.673  12.793  0.1274 -0.0039  0.0204
21818W        W78059  33.451  18.304   8.508 -0.2274  0.1218 -0.1883
21819W        W78060  14.050  19.578   8.053  0.2217  0.0489 -0.0999
21820W        W78061  22.036  31.647   5.928 -0.3260 -0.1038  0.1900
21821W        W78062  10.921  17.075  19.443  0.0006 -0.2270 -0.2972
21822W        W78063  31.798   2.390   4.567 -0.1789 -0.0259  0.2299
21823W        W78064  20.979  19.864  22.152  0.4448 -0.1537 -0.1185
21824W        W78065  12.588  12.913  11.494  0.2729  0.0252  0.0887
21825W        W78066  30.946  21.805  22.475 -0.2299 -0.0474  0.1259
21826W        W78067  10.351   6.139  25.688  0.0590  0.0472  0.1413
21827W        W78068  13.378   4.095  24.485  0.0052 -0.2974 -0.1766
21828W        W78069  20.239  27.950   2.753 -0.2892  0.1522  0.2668
21829W        W78070   1.961   8.798   2.076 -0.2795 -0.3630  0.2398
21830W        W78071  15.959  14.197  19.256  0.3793 -0.0838 -0.3262
21831W        W78072  34.341  24.065  20.694  0.0677  0.0681 -0.0796
21832W        W78073   9.328  21.847  22.405 -0.0733 -0.0652  0.3443
21833W        W78074  23.736  31.497  16.667  0.0166 -0.1508 -0.3278
21834W        W78075   0.605  27.827   6.664  0.0024 -0.4068 -0.1369
21835W        W78076  24.307   0.019  14.894  0.1163 -0.3950 -0.2743
21836W        W78077  10.755   8.682  11.753  0.2290  0.0043  0.1236
21837W        W78078   8.384  18.258  20.847 -0.0084 -0.0294  0.1695
21838W        W78079   6.682  15.389  18.302  0.2130  0.0454 -0.0544
21839W        W78080  31.771  20.538  25.085  0.1183  0.1536  0.2155
21840W        W78081  30.218   5.295   4.310  0.0036 -0.4668 -0.3327
21841W        W78082  22.489  14.743  15.128  0.2878  0.0489 -0.1376
21842W        W78083  26.316   1.758  20.175  0.0681  0.4168  0.2317
21843W        W78084   4.597   2.797   3.368  0.1843 -0.3265  0.2585
21844W        W78085   8.812  33.615   4.416  0.2123 -0.0480 -0.0978
21845W        W78086  33.270  21.526   9.251  0.0231  0.1081  0.1042
21846W        W78087  17.269  24.662  12.460  0.1296  0.0006  0.0785
21847W        W78088   7.105  28.381   0.601 -0.0612  0.0943  0.0140
21848W        W78089  34.382  21.013  12.714  0.2087 -0.3005 -0.0266
21849W        W78090  17.416   4.286   6.398 -0.1903 -0.0052 -0.1083
21850W        W78091  26.025   2.630  15.848  0.0192 -0.0966 -0.1042
21851W        W78092  14.584   1.949  18.237 -0.1374  0.1420 -0.2270
21852W        W78093  21.655   9.355   2.826  0.1783 -0.3481  0.0710
21853W        W78094  23.323   4.466  20.926 -0.3482  0.3720 -0.1137
21854W        W78095  26.329  31.528  11.893 -0.0588  0.1335 -0.0933
21855W        W78096   8.340  13.416  18.794  0.2022 -0.0066 -0.0782
21856W        W78097  15.517   7.169   4.222 -0.0714 -0.0780  0.0841
21857W        W78098  26.508  16.392   5.604  0.2503 -0.1997 -0.0624
21858W        W78099   4.816   2.574  11.548  0.0225 -0.0545  0.0602
21859W        W78100   8.816  28.165  26.079  0.1590  0.0318 -0.1753
21860W        W78101  34.007   2.011  19.659 -0.1670  0.1041 -0.0266
21861W        W78102  13.309  12.630  24.429  0.0483 -0.0630 -0.2338
21862W        W78103  33.721  32.984   3.306  0.1615 -0.2550  0.2887
21863W        W78104  10.555  22.857   3.103 -0.0819  0.0693 -0.1387
21864W        W78105   4.284  32.742   2.643 -0.2496 -0.1220 -0.0988
21865W        W78106  24.411   2.889  24.907 -0.2119  0.0796  0.0247
21866W        W78107   5.615  33.970  11.709  0.0836 -0.1213  0.1735
21867W        W78108   9.705   3.243  13.529  0.1753 -0.0711  0.3922
21868W        W78109   2.096  20.016  17.984 -0.0705 -0.2025 -0.2658
21869W        W78110   9.840  32.296  12.694  0.1710 -0.1151 -0.2489
21870W        W78111   8.693  26.795   7.319  0.0704  0.2112  0.3903
21871W        W78112  14.977   1.306  22.750  0.1970 -0.1419 -0.1388
21872W        W78113  15.359  22.850   5.349  0.0284  0.2401  0.1609
21873W        W78114  20.544   7.172   5.182 -0.1596 -0.0682 -0.1487
21874W        W78115  24.813  25.635   0.530 -0.3846  0.0279 -0.0048
21875W        W78116   2.820   5.109   2.101 -0.0910  0.0776  0.1052
21876W        W78117  18.937  28.342   6.249 -0.2399 -0.0031 -0.2747
21877W        W78118   7.665  14.069  24.030 -0.0773 -0.0265 -0.1601
21878W        W78119  29.370  23.774   0.155  0.0179  0.0453 -0.1691
21879W        W78120  14.538  21.090   5.881 -0.0480  0.0454  0.0467
21880W        W78121   7.220  24.569  15.438 -0.0843 -0.1359 -0.1646
21881W        W78122  29.377  14.502  14.212 -0.1438 -0.1359  0.1873
21882W        W78123  33.308  18.886  15.266  0.0906  0.2940  0.2786
21883W        W78124   1.124  18.720  25.043 -0.1286  0.2584  0.0687
21884W        W78125  17.890  21.978   9.698  0.0162 -0.0069 -0.0374
21885W        W78126   6.857  10.918   7.394 -0.0638 -0.1233 -0.0353
21886W        W78127  15.318   9.969   5.952  0.2115  0.2154 -0.3392
21887W        W78128   8.439  17.100  19.830  0.0537 -0.0412 -0.0323
21888W        W78129   7.391  17.882   0.336  0.1702 -0.1022 -0.2199
21889W        W78130  26.174  30.136   3.454 -0.0667 -0.0777  0.0697
21890W        W78131   8.090  34.501  15.618 -0.0658  0.1213  0.2224
21891W        W78132  32.883  12.829  10.359 -0.2158 -0.0502 -0.0618
21892W        W78133  34.853  28.746  25.148  0.0494 -0.0248 -0.1247
21893W        W78134  30.174  33.565   5.081 -0.0236 -0.0286 -0.0394
21894W        W78135  18.654  28.266  23.004 -0.1392  0.0426 -0.2147
21895W        W78136  19.084  14.928   2.521  0.0443 -0.0965  0.2696
21896W        W78137  11.758   6.724   6.939  0.2146 -0.3413  0.2420
21897W        W78138  10.291  24.554   0.700  0.2281  0.0873  0.1758
21898W        W78139  11.013  31.998   8.184  0.1055 -0.2835 -0.2667
21899W        W78140  15.992  11.398   2.242 -0.2608  0.0512 -0.0595
21900W        W78141   6.983  28.789  11.762  0.0565 -0.1575  0.1146
21901W        W78142  19.606  31.043  16.091  0.2612  0.0357 -0.1932
21902W        W78143  23.430   7.254  17.492 -0.0128 -0.3186  0.2203
21903W        W78144  28.643   4.267  15.017  0.1061  0.2750  0.0078
21904W        W78145  14.530  30.100   8.059 -0.1442  0.1943  0.0123
21905W        W78146  25.203   3.757  23.928 -0.0280  0.1270  0.0836
21906W        W78147   3.952  13.461   0.897  0.0764  0.1218 -0.0036
21907W        W78148   5.293  24.922  20.452 -0.0917  0.0959  0.0017
21908W        W78149  12.657  34.641   1.152 -0.1631  0.0644 -0.0696
21909W        W78150  34.761  24.423  19.308  0.0471  0.0900  0.2508
21910W        W78151  11.163  31.654   6.130  0.0383 -0.3363 -0.0701
21911W        W78152  12.554  13.993   9.914 -0.3196 -0.3346  0.3035
21912W        W78153  25.021  27.378  23.386  0.2526  0.0025 -0.3409
21913W        W78154  29.832   7.837  11.695  0.0110 -0.0838 -0.2794
21914W        W78155  26.551   9.943  20.337  0.2826 -0.0346 -0.0175
21915W        W78156   9.294  30.296   5.973 -0.3158  0.4116  0.1699
21916W        W78157  19.287  23.005  24.230  0.0226 -0.0434 -0.1437
21917W        W78158  34.150   2.129  21.427  0.0123 -0.0535 -0.0972
21918W        W78159  10.407   2.522   3.546 -0.0082 -0.3050  0.2862
21919W        W78160  18.071   5.283   5.870  0.2066  0.0513  0.2864
21920W        W78161  23.628   9.053  18.971  0.0013 -0.0041 -0.0554
21921W        W78162   7.864  13.894   4.821  0.2750  0.4336  0.1160
21922W        W78163  12.712   7.069   9.928  0.0141  0.1769 -0.0031
21923W        W78164   1.920   6.766   2.649 -0.1250  0.3470  0.0019
21924W        W78165  14.529  29.725  11.088  0.3232 -0.1362 -0.1292
21925W        W78166  15.920   5.354  18.001  0.4430  0.1591  0.2464
21926W        W78167   9.251   4.497   5.857  0.1623  0.0163 -0.2710
21927W        W78168   8.928  10.713   3.448 -0.1107 -0.1119 -0.2209
21928W        W78169   9.685   1.185   0.799  0.1220 -0.2303  0.3087
21929W        W78170   1.159  10.745  12.687 -0.0330  0.2678 -0.3129
21930W        W78171  17.338  23.374   4.522 -0.3695  0.4323 -0.1512
21931W        W78172   0.261  29.430  17.455 -0.0536 -0.1725 -0.1368
21932W        W78173   9.993   6.082   8.080 -0.1551  0.1668 -0.0654
21933W        W78174  12.082  23.944  25.567  0.0751 -0.0866  0.0504
21934W        W78175   9.290  22.306  14.638  0.2379  0.0458 -0.1287
21935W        W78176  32.161  20.896  22.773 -0.3226  0.1954  0.0315
21936W        W78177  11.080   3.615  19.219 -0.1152  0.3572 -0.1245
21937W        W78178  10.107  30.868   1.709 -0.2627  0.0276 -0.0443
21938W        W78179   2.720  25.838   5.878  0.3773  0.0464 -0.2875
21939W        W78180  14.709   4.955   1.451  0.1236  0.0163 -0.0150
21940W        W78181  18.771  34.076   8.248 -0.1700 -0.0614 -0.2562
21941W        W78182   4.940   7.295   3.919  0.0198  0.1199  0.2270
21942W        W78183  29.798  32.923  15.959 -0.1439 -0.2668 -0.1979
21943W        W78184  30.533  32.576   1.683 -0.4370  0.1240  0.4031
21944W        W78185   1.239  32.260   5.778 -0.0496 -0.0346  0.0582
21945W        W78186  24.339  21.249  13.532 -0.3805  0.0467 -0.0568
21946W        W78187  22.280   4.846  23.358  0.0534  0.0013  0.0874
21947W        W78188  33.965   3.172  16.945 -0.1846  0.2261  0.2218
21948W        W78189   1.028  12.060  25.041  0.3263  0.1819 -0.0646
21949W        W78190  31.686   5.317  12.614 -0.0765 -0.1071  0.1602
21950W        W78191   5.089   2.740  19.696  0.1379 -0.2701 -0.1709
21951W        W78192  24.008  32.779  13.860 -0.0355 -0.1937 -0.1353
21952W        W78193  12.678  27.629  23.372  0.5690  0.2431  0.0968
21953W        W78194   8.634  31.715   6.542 -0.4616 -0.1607 -0.0478
21954W        W78195  14.473   1.074   9.039 -0.0651  0.0964  0.0119
21955W        W78196  24.199   7.268  14.833 -0.1286 -0.1238  0.1533
21956W        W78197   3.634   4.649  18.030 -0.0801 -0.0374 -0.0278
21957W        W78198  31.207  15.970  11.766 -0.0412 -0.1331 -0.1276
21958W        W78199  20.876  19.921  16.558  0.2474  0.1042  0.4811
21959W        W78200  16.191  23.045  23.049 -0.1255 -0.2057  0.2938
21960W        W78201   8.127   7.212   5.393  0.1302  0.2679  0.2193
21961W        W78202  33.934  34.348  22.579  0.3859 -0.0283  0.0071
21962W        W78203   7.475  11.167  10.989 -0.0677  0.0687 -0.1702
21963W        W78204   5.744  16.398  16.991  0.2866  0.1090 -0.0688
21964W        W78205   7.200   4.338   6.898  0.0030  0.0299  0.0713
21965W        W78206   8.928   7.288   4.302  0.0725 -0.0519 -0.2419
21966W        W78207  10.428   0.616   9.838 -0.0557  0.0543  0.0823
21967W        W78208  13.712  31.097  12.803  0.1757 -0.0367  0.1926
21968W        W78209   8.461   2.381  22.569 -0.0905  0.0855 -0.0733
21969W        W78210  13.854  16.847  11.849 -0.0862  0.0248  0.2517
21970W        W78211   2.985  30.802  23.586  0.1279 -0.0287  0.3611
21971W        W78212  24.150  12.021   1.082 -0.2049  0.2800  0.1068
21972W        W78213  30.409  15.529  13.116 -0.2922 -0.2261  0.0837
21973W        W78214  13.954  13.651  22.793 -0.4804  0.1066 -0.1374
21974W        W78215  26.662  34.974   4.703  0.0152  0.1032 -0.1820
21975W        W78216  21.498  22.299  25.583  0.2306  0.0001  0.2110
21976W        W78217  16.836  29.251   1.591  0.0684  0.0383  0.2286
21977W        W78218  33.206  35.178  15.269 -0.0868 -0.3411  0.2159
21978W        W78219  35.313  15.847   0.113 -0.2793  0.3130 -0.2353
21979W        W78220   6.490   6.888   6.361  0.5180 -0.0890 -0.4802
21980W        W78221  11.283  26.328  10.623 -0.3158  0.0921  0.0345
21981W        W78222  15.789  14.808  23.270 -0.0864  0.0862  0.0633
21982W        W78223   1.342   7.535  20.674 -0.0745 -0.0095 -0.0844
21983W        W78224  28.198  35.053  13.711  0.0925  0.0239  0.0653
21984W        W78225  19.620  10.146  20.999 -0.0552 -0.0874  0.1453
21985W        W78226  16.440   4.703  11.397 -0.0761 -0.1229  0.2649
21986W        W78227  32.261  17.768  17.380 -0.1886 -0.0856 -0.0869
21987W        W78228  27.230  31.774  20.976 -0.0141 -0.0693 -0.1233
21988W        W78229  22.773  30.125   0.320 -0.0034 -0.1774  0.0467
21989W        W78230   2.027  25.814  24.227  0.0018 -0.1177 -0.1947
21990W        W78231  26.847  34.470  14.508 -0.0067  0.0822 -0.1615
21991W        W78232  19.621  13.231   3.083  0.0596 -0.0434 -0.4482
21992W        W78233  22.675  12.716  18.233  0.4723  0.1008 -0.1129
21993W        W78234   8.600  12.328   2.332 -0.1247 -0.0520  0.1178
21994W        W78235   4.746  19.400   1.098 -0.4629 -0.0980 -0.1817
21995W        W78236  11.294  13.666  11.254 -0.1159 -0.0864  0.1847
21996W        W78237  35.107  33.729   3.945 -0.2375  0.0125 -0.0652
21997W        W78238  27.458  34.083  22.312  0.2434  0.0439 -0.1616
21998W        W78239  31.765  11.352  18.014  0.3477 -0.0177 -0.2892
21999W        W78240  25.085  24.521  22.962  0.1862 -0.3444 -0.1187
22000W        W78241  29.713  15.531  19.269 -0.2040 -0.0590 -0.1200
22001W        W78242  20.177   2.986  16.922  0.1348  0.4502 -0.1172
22002W        W78243  16.260   6.256   3.407  0.0493 -0.0608 -0.1595
22003W        W78244   5.239  34.808   2.974 -0.1130  0.0141  0.2506
22004W        W78245  12.523  31.576  12.405 -0.1257 -0.0300 -0.0290
22005W        W78246  20.499   6.487  18.593 -0.4865  0.1687  0.0984
22006W        W78247  14.726  12.235   2.088 -0.0579 -0.1876  0.3885
22007W        W78248  32.141  28.233  11.579 -0.0991 -0.0651 -0.0271
22008W        W78249  17.482  10.799  25.842  0.1755  0.0684 -0.1521
22009W        W78250  21.859  12.483  24.886  0.1635  0.0452 -0.0930
22010W        W78251   1.477   1.236   6.380  0.1041 -0.0994 -0.1835
22011W        W78252  29.172   4.442  22.579 -0.0980 -0.0029 -0.1251
22012W        W78253  12.940  18.713  13.165  0.0752 -0.0886  0.2971
22013W        W78254  12.388  14.965   2.040 -0.2084  0.0321 -0.1951
22014W        W78255  27.827  16.612  15.893 -0.2191 -0.0591  0.0695
22015W        W78256   2.572  12.935   4.851  0.0672 -0.2745  0.1172
22016W        W78257  33.578  29.115  19.051 -0.2114 -0.0197  0.0880
22017W        W78258  27.462  31.372   3.949  0.2177  0.2091  0.0133
22018W        W78259  33.220  27.823  25.412  0.0009 -0.2369  0.0939
22019W        W78260   8.820   1.677  22.895  0.0995  0.3986  0.3979
22020W        W78261  26.574  12.984  20.155 -0.0009  0.0015 -0.0268
22021W        W78262  13.652  33.157  14.466  0.1139 -0.1431  0.2405
22022W        W78263  23.857  30.324   2.300 -0.1809 -0.2407 -0.0272
22023W        W78264  31.115  30.663  23.858  0.3241 -0.1862  0.1172
22024W        W78265   2.292  19.527  12.174 -0.2106  0.0793 -0.1055
22025W        W78266  32.516  33.071   0.425 -0.1586  0.4402  0.0909
22026W        W78267  10.429  21.371   5.757  0.0639  0.2169  0.3256
22027W        W78268   3.061   8.692   7.112  0.2336 -0.0141 -0.1340
22028W        W78269  28.458   5.529   1.180  0.0156  0.3189  0.2140
22029W        W78270  24.273   9.733  18.517  0.0451  0.1613  0.2199
22030W        W78271  21.150  15.169  17.096  0.2427 -0.2193  0.3378
22031W        W78272  26.111  27.473  19.195 -0.1971  0.0154  0.1701
22032W        W78273   0.609  24.059   3.084 -0.0761 -0.0036 -0.0120
22033W        W78274  18.190  34.764  20.455  0.3618 -0.1056  0.2669
22034W        W78275  30.962  11.507  18.423 -0.0676 -0.0157  0.0786
22035W        W78276  31.866  15.353  21.861 -0.0451 -0.2201 -0.3382
22036W        W78277  31.653  20.297  10.384  0.1246 -0.0874  0.3124
22037W        W78278   9.360  18.374   6.071 -0.2223  0.2334 -0.2579
22038W        W78279  33.588  21.606   7.614 -0.0495 -0.0086  0.1772
22039W        W78280   0.455  13.291  19.618 -0.0256  0.1225  0.3267
22040W        W78281  28.549   8.880  21.830  0.0029 -0.0641  0.4227
22041W        W78282   2.446   7.808  25.116  0.0351 -0.2198 -0.0181
22042W        W78283  34.050  33.382  19.457  0.1625 -0.0703 -0.1774
22043W        W78284   3.091  23.839   2.490 -0.1784  0.0245 -0.0980
22044W        W78285  26.116   9.906   8.602  0.0292 -0.0030 -0.0019
22045W        W78286  14.841   5.134  24.184 -0.2583  0.1981  0.2513
22046W        W78287   9.978  24.078  24.150 -0.0769  0.0941  0.0031
22047W        W78288   2.171  20.053  10.931  0.1059  0.2998 -0.0861
22048W        W78289   8.778  20.721  21.824 -0.0310 -0.1255  0.0332
22049W        W78290  18.161  20.113  23.850 -0.2618  0.0565  0.1855
22050W        W78291  23.586  20.255  12.349 -0.1581 -0.2132  0.1422
22051W        W78292   2.856  11.488  25.557 -0.0754 -0.4867 -0.2220
22052W        W78293  16.705  32.379  18.091 -0.1929  0.0499  0.0545
22053W        W78294   5.489  13.405   3.245  0.0532 -0.0641  0.2281
22054W        W78295   2.973  20.604  20.468  0.2735 -0.0459  0.1978
22055W        W78296  16.868  29.767  21.647  0.3783 -0.0091  0.2308
22056W        W78297  15.288  27.673  23.330 -0.0903  0.1492 -0.3382
22057W        W78298  11.696  17.360  11.660  0.1049  0.0282 -0.1678
22058W        W78299  25.906   7.267  18.113  0.0868  0.1777 -0.2921
22059W        W78300  34.827  24.809  23.347 -0.2750  0.4019  0.1687
22060W        W78301  26.849   4.944  17.775  0.0365 -0.4602 -0.1509
22061W        W78302  30.633  33.537  12.241  0.0562  0.1903 -0.0718
22062W        W78303  31.946  16.799   7.356  0.2873  0.1180  0.3320
22063W        W78304   5.768  28.925   1.555 -0.0233 -0.1451 -0.1550
22064W        W78305  26.094  27.588   3.011  0.1337 -0.3303  0.1907
22065W        W78306   7.758  32.711  10.567  0.0939 -0.2332  0.1583
22066W        W78307  11.941  25.741  16.213 -0.2709  0.3474  0.1374
22067W        W78308   4.504   2.615  22.177  0.1783 -0.2032  0.2113
22068W        W78309  10.254  34.705  11.042  0.1190 -0.3040  0.1045
22069W        W78310  22.208   0.037  23.268  0.3273 -0.0916  0.0073
22070W        W78311   5.297  27.030  13.485  0.0985 -0.2445  0.4128
22071W        W78312  33.076  26.039  12.560  0.0583  0.0117  0.0582
22072W        W78313  30.166  22.565  11.805 -0.0731  0.1127  0.1979
22073W        W78314  26.826   5.175  17.274  0.0376  0.0409  0.0035
22074W        W78315  12.223  23.389   4.677  0.2307  0.3726 -0.1053
22075W        W78316  29.945   9.085  24.614 -0.0744 -0.1755 -0.1999
22076W        W78317  22.201  14.511  20.284 -0.3019 -0.3621 -0.1756
22077W        W78318   2.394  22.355   3.538  0.1512  0.0246  0.0191
22078W        W78319  18.378  18.978   9.945 -0.2622  0.1245 -0.0687
22079W        W78320  13.457   6.671  24.249  0.0790 -0.4435 -0.1990
22080W        W78321  28.927   3.263   3.730 -0.0994  0.0460 -0.0958
22081W        W78322  12.065  33.441   7.009 -0.0800  0.1731  0.3270
22082W        W78323  29.760  27.703   1.065  0.1162 -0.1109  0.1008
22083W        W78324  26.518   0.659  11.818 -0.4918 -0.0221  0.0886
22084W        W78325  29.822  13.522  12.099  0.0729  0.3164 -0.1452
22085W        W78326  14.408  11.346   7.810 -0.3099 -0.1661 -0.1490
22086W        W78327  31.081  26.733  20.253  0.0259 -0.4194  0.0412
22087W        W78328  15.751  25.784   4.828 -0.3045 -0.1028 -0.4428
22088W        W78329  14.315  29.838   9.607 -0.3468  0.0089  0.1303
22089W        W78330   6.001   8.760  19.167 -0.0052  0.3143 -0.3111
22090W        W78331  12.903   6.620  23.782  0.0102 -0.0169  0.0325
22091W        W78332  25.163  26.308  13.445  0.1181  0.1997 -0.2146
22092W        W78333  35.240  28.442   5.784 -0.1763 -0.1726 -0.1718
22093W        W78334   0.935   3.038  14.721  0.0365  0.0730 -0.0481
22094W        W78335  16.280   4.395  21.405  0.2539 -0.2591  0.2728
22095W        W78336   2.479  25.071   5.297  0.0290  0.0853  0.0118
22096W        W78337  15.424  28.480  24.632 -0.0459  0.0341  0.2074
22097W        W78338  33.598  25.286  19.390  0.0535  0.2289 -0.0449
22098W        W78339  27.105  21.719  16.706 -0.0927  0.1199 -0.0206
22099W        W78340  24.079   8.425  16.364  0.1794  0.1344  0.0150
22100W        W78341  15.973   7.450  10.245  0.0152 -0.0007  0.0252
22101W        W78342  28.770  14.146   0.098 -0.1446 -0.1586  0.1082
22102W        W78343   3.157  24.165   4.510  0.1150  0.0770  0.1739
22103W        W78344  21.446  20.947   2.184 -0.0981 -0.3649  0.0813
22104W        W78345  31.966   5.829  23.797 -0.3163  0.0678  0.2929
22105W        W78346  29.368  27.346  22.778 -0.1644 -0.0279  0.4433
22106W        W78347   7.115  11.973  18.259 -0.1101  0.1043 -0.2863
22107W        W78348  29.962  27.195  22.224 -0.1341 -0.0050  0.1685
22108W        W78349  18.040   5.776  17.228  0.0718 -0.0538 -0.2647
22109W        W78350  33.462  21.587  14.933  0.1807 -0.1132 -0.1081
22110W        W78351  12.410  35.016  23.993  0.0921 -0.1683 -0.0414
22111W        W78352   7.741   9.110   6.252  0.0309 -0.0625  0.3122
22112W        W78353  28.461  28.967  21.551 -0.1029 -0.1358 -0.0198
22113W        W78354  11.529  19.623  14.920 -0.1362 -0.0135 -0.1238
22114W        W78355   1.359  22.885  16.929 -0.0878  0.1268 -0.2256
22115W        W78356  35.221  35.379   1.312 -0.0034 -0.3112  0.0555
22116W        W78357  25.638   8.492   1.595 -0.1745 -0.0610 -0.1578
22117W        W78358  11.325  14.567   9.081  0.1753  0.0912  0.2542
22118W        W78359  14.866   6.076   9.554  0.4725 -0.1746  0.2963
22119W        W78360  13.572   4.022  22.368  0.1702  0.1336 -0.0264
22120W        W78361   7.766  33.551  12.574  0.0880  0.0630 -0.1198
22121W        W78362  18.222   2.040  24.906  0.0871 -0.1908 -0.0212
22122W        W78363  19.261  11.252   3.143  0.0862 -0.0626 -0.4097
22123W        W78364  14.799  25.575  15.017 -0.2649  0.0445 -0.0313
22124W        W78365  24.351  11.945  23.827 -0.2521  0.4471  0.3669
22125W        W78366  22.725  22.988  21.782  0.1310  0.0003 -0.3315
22126W        W78367  20.197   5.668  10.302  0.0687  0.1696 -0.1410
22127W        W78368  18.241  14.974  10.586 -0.0664  0.1390  0.2902
22128W        W78369  28.323  31.308   4.589  0.0303 -0.0089  0.1162
22129W        W78370   0.403   7.832  17.051 -0.4559  0.0825  0.1354
22130W        W78371  13.619  26.556   7.815  0.2051  0.1894  0.1105
22131W        W78372  31.487  33.204  12.615 -0.2730  0.2768 -0.1654
22132W        W78373  15.237  14.821  10.839 -0.1553 -0.0878 -0.1797
22133W        W78374  20.987  29.491  24.372  0.0100 -0.0988 -0.0063
22134W        W78375  17.157  25.958   9.744 -0.1922  0.4522  0.0079
22135W        W78376  17.187  12.369  12.878 -0.1610 -0.2547 -0.1957
22136W        W78377  34.326   3.473   3.995 -0.0118  0.3712 -0.0484
22137W        W78378  26.212   1.907  17.307  0.0246 -0.0690  0.0461
22138W        W78379  31.901  26.750  14.057 -0.1225  0.0020  0.1963
22139W        W78380   4.310  28.303  11.163  0.0795 -0.0027  0.5844
22140W        W78381  30.352   1.204  13.054 -0.2056  0.1673  0.1260
22141W        W78382  27.624   8.266  13.102 -0.1656  0.2782 -0.3391
22142W        W78383  10.965  29.659  22.496 -0.2189 -0.0519  0.1085
22143W        W78384   5.433  14.012   1.348 -0.2100 -0.0509  0.1798
22144W        W78385   6.607  15.992  17.430  0.0846  0.0404  0.1485
22145W        W78386   4.488  31.942  20.060  0.0936 -0.0271 -0.2754
22146W        W78387  33.669  23.662   9.724 -0.0700 -0.1592  0.1907
22147W        W78388  17.766  19.742   0.421  0.1278  0.3921  0.1960
22148W        W78389   0.277   2.521   7.527  0.0348 -0.2876 -0.1049
22149W        W78390   4.948  14.002   1.175 -0.0230 -0.1276  0.0591
22150W        W78391  24.328  16.212  11.011  0.1481 -0.0356 -0.2427
22151W        W78392   5.378  20.263   3.332  0.1321  0.1632 -0.1543
22152W        W78393  25.023  24.879  26.036  0.0347 -0.0391 -0.1516
22153W        W78394  27.845  18.128   5.209  0.1963 -0.1148 -0.0814
22154W        W78395  35.358  34.720  22.383  0.1235  0.1613  0.1576
22155W        W78396  22.807  18.615   1.205  0.3653  0.4267  0.2097
22156W        W78397   2.252   2.104  17.556  0.1770  0.1887  0.1163
22157W        W78398  10.348  32.613  10.684  0.0309 -0.0831 -0.1898
22158W        W78399  25.834  14.263  22.093  0.0493 -0.0283 -0.0509
22159W        W78400  26.247  22.576  22.394  0.1952  0.0066 -0.3054
22160W        W78401  18.114   3.904  17.071 -0.1057 -0.4471  0.0116
22161W        W78402  27.625   2.905  17.053  0.0380  0.1550  0.0402
22162W        W78403  16.150  23.371  15.566  0.1074 -0.0708  0.1240
22163W        W78404  27.118  34.058  21.389  0.3297 -0.3290  0.0819
22164W        W78405  13.372   2.965  25.960  0.0336 -0.0508 -0.0439
22165W        W78406  14.213  31.349  20.998 -0.1287 -0.0727  0.0260
22166W        W78407  14.737  11.905   6.163  0.1080 -0.2021 -0.1160
22167W        W78408  27.564  10.921   0.667 -0.4274 -0.1443  0.0204
22168W        W78409   6.625   3.110   3.019 -0.0881 -0.0737 -0.0947
22169W        W78410  30.435  15.386   9.121  0.0688 -0.0265 -0.0302
22170W        W78411   6.095  20.242   5.399 -0.0270  0.1468 -0.2627
22171W        W78412  22.078  30.190  16.801 -0.2917  0.1498  0.1828
22172W        W78413  22.208  20.260   1.025 -0.1609 -0.2001 -0.2605
22173W        W78414  26.211  14.346  21.843 -0.1911 -0.3295 -0.0359
22174W        W78415  24.819  12.428  21.981 -0.0968 -0.1598  0.0878
22175W        W78416   7.392   3.235   4.958 -0.0590  0.1615  0.0773
22176W        W78417  26.025  23.810  21.809  0.0734 -0.0138  0.3205
22177W        W78418  17.807  11.426  23.776 -0.3046 -0.0573 -0.0919
22178W        W78419  31.925  26.855   1.459  0.1191  0.1997 -0.1807
22179W        W78420   1.758  28.560   7.926 -0.1398 -0.0902 -0.3300
22180W        W78421  20.835   2.574   4.888  0.1096  0.3079  0.3815
22181W        W78422  33.065  12.919  15.323  0.1262  0.3211 -0.1184
22182W        W78423  27.312  30.357  23.464  0.1770 -0.1969  0.1621
22183W        W78424  29.622  10.106  12.546  0.1825  0.0426 -0.0541
22184W        W78425  14.971  14.299  19.424 -0.0652 -0.1794 -0.2937
22185W        W78426  23.268  14.894  19.352  0.0837  0.2164  0.0514
22186W        W78427  18.716  24.684   2.192  0.2331  0.0621 -0.0393
22187W        W78428  26.218  34.950  22.358  0.2183 -0.4182  0.2363
22188W        W78429   5.759  29.270  10.942  0.0218 -0.0792  0.0803
22189W        W78430  31.740  30.481   2.284 -0.2265 -0.1918  0.0596
22190W        W78431  14.998  22.249   3.671  0.0711 -0.0638  0.1366
22191W        W78432  33.841   9.090  14.888  0.0298 -0.0138  0.0333
22192W        W78433  24.533  28.023  12.053  0.2334 -0.1147 -0.0940
22193W        W78434  26.782  11.137  21.683 -0.0633 -0.0268  0.0200
22194W        W78435   1.644  29.241   5.201 -0.1062 -0.2429 -0.1136
22195W        W78436  28.709  27.050  11.623  0.2701 -0.0224 -0.0517
22196W        W78437  23.966  18.839  15.259  0.3981 -0.0763 -0.0175
22197W        W78438  30.573  23.548  18.936 -0.0655 -0.3104  0.0337
22198W        W78439  31.818   4.121  12.964  0.0088 -0.1075 -0.0723
22199W        W78440  33.006  34.088  13.729 -0.0454  0.3857 -0.2542
22200W        W78441  17.347  15.159   6.479 -0.1642  0.2045  0.1533
22201W        W78442  18.594  24.957   0.510  0.0713 -0.2259 -0.0887
22202W        W78443  13.870  25.484  13.899 -0.0693 -0.1307 -0.1904
22203W        W78444  23.919  15.481  14.050 -0.2256  0.0479 -0.0743
22204W        W78445   7.013  18.231  10.653 -0.0947 -0.1498 -0.3222
22205W        W78446  28.180  24.626  24.136 -0.1231  0.3505  0.0739
22206W        W78447  27.990  33.821  12.065  0.2262 -0.1910  0.1375
22207W        W78448  32.781   2.072  15.050 -0.0275  0.0243 -0.2259
22208W        W78449  33.967  17.560  22.439  0.1032 -0.0838 -0.1376
22209W        W78450   4.555  30.782   3.599 -0.0525  0.0099  0.0661
22210W        W78451   6.259  17.105  25.921  0.2411  0.0407 -0.0342
22211W        W78452  23.613  29.967  15.577  0.0940  0.4244  0.0485
22212W        W78453   1.613  28.152  23.229  0.1349  0.2430  0.4479
22213W        W78454   5.144  33.599  11.673 -0.1069 -0.0638 -0.0718
22214W        W78455  12.502  35.222  25.990 -0.0376  0.1658  0.1375
22215W        W78456   9.720  22.989   3.011  0.1470 -0.1974  0.2024
22216W        W78457   7.695  19.860  20.907 -0.1650 -0.1134  0.0020
22217W        W78458  28.520  21.135  21.269  0.3248  0.1053  0.0041
22218W        W78459   4.516   8.548  19.624 -0.0424 -0.4319  0.3616
22219W        W78460  35.360  20.991  21.383 -0.0175 -0.2830 -0.0255
22220W        W78461  30.602  29.601   3.481  0.2978 -0.3756  0.3112
22221W        W78462   7.145  23.892  25.314 -0.1142  0.0272  0.1348
22222W        W78463  26.276  32.361  19.572  0.3144 -0.1095  0.2717
22223W        W78464   1.767  15.959  19.406  0.0577  0.2735 -0.2982
22224W        W78465  28.288  17.332   6.237  0.5054 -0.3091 -0.1427
22225W        W78466  11.189  13.870  11.793 -0.0506  0.4777 -0.1020
22226W        W78467   5.054  11.247  22.496 -0.2455  0.1205 -0.1605
22227W        W78468   1.084  23.715  18.972 -0.2281  0.1025  0.1108
22228W        W78469   7.837   2.187   9.927  0.0313 -0.1616 -0.1716
22229W        W78470  21.195  10.076  25.953 -0.0133  0.0447 -0.2708
22230W        W78471  18.932   2.952  21.341 -0.2481  0.2307 -0.1070
22231W        W78472  29.004   8.171   7.914  0.0964  0.0180 -0.0319
22232W        W78473  12.713  19.268   8.720 -0.0968  0.2027  0.1816
22233W        W78474  34.243  19.393  25.429 -0.0349 -0.0006  0.1614
22234W        W78475  31.755  12.464   9.682 -0.0026  0.3216  0.1051
22235W        W78476  32.514   4.430  14.823  0.2024  0.1199  0.1707
22236W        W78477  25.363   1.499  15.205  0.2096  0.2595  0.0922
22237W        W78478   6.569   9.418  23.087  0.0261 -0.1137  0.0879
22238W        W78479   0.059  11.749  10.792 -0.0684 -0.1214  0.2797
22239W        W78480  35.282   3.498   4.135  0.1160  0.2161 -0.1944
22240W        W78481   4.369  28.456   0.220 -0.2620  0.0235  0.0562
22241W        W78482  33.225  26.590   1.405  0.2986 -0.2872 -0.0560
22242W        W78483   1.065  29.242  18.365  0.2027  0.1696  0.1405
22243W        W78484   8.262  34.360  12.408 -0.0440 -0.3236 -0.2335
22244W        W78485  30.035  13.191  24.040  0.0588 -0.2104 -0.0546
22245W        W78486  24.946   4.594  22.271 -0.1616 -0.0131  0.4200
22246W        W78487   1.866  16.230  13.948  0.1781 -0.4363  0.0910
22247W        W78488  34.410   4.366  20.856  0.1791  0.3813  0.1005
22248W        W78489  10.412  23.517   6.746 -0.0907  0.5119  0.0802
22249W        W78490  21.603   8.839  20.780  0.0361 -0.0614  0.0530
22250W        W78491  17.214  13.575  20.091  0.0900  0.0027 -0.1020
22251W        W78492  30.354   9.758  24.705 -0.1156  0.2557  0.1077
22252W        W78493  33.726  31.152  15.792  0.1492 -0.0440  0.1781
22253W        W78494  31.578   3.280  13.329 -0.0349 -0.0009  0.3123
22254W        W78495   9.255   4.884   0.206 -0.3055 -0.1579  0.4084
22255W        W78496  15.662   3.262  24.431  0.2270  0.0773 -0.1855
22256W        W78497  31.955  19.181  13.854  0.0653 -0.2072  0.0860
22257W        W78498  26.597  25.205  24.493 -0.1875  0.0482 -0.0801
22258W        W78499  18.257  16.432  17.564 -0.6164  0.4312  0.0986
22259W        W78500  11.048   3.932   0.618 -0.1009  0.1929  0.0691
22260W        W78501   1.136  31.360  25.746  0.0924 -0.0856  0.1813
22261W        W78502  19.478   8.211   6.243 -0.0046 -0.2335 -0.2423
22262W        W78503   4.006  13.131  25.774  0.0506 -0.1235  0.0674
22263W        W78504  14.364   7.837   1.305  0.1030  0.0746  0.3388
22264W        W78505  11.575   2.761  13.209 -0.1847 -0.2174  0.1764
22265W        W78506  17.347  14.532  25.497  0.1092  0.2654 -0.1690
22266W        W78507  18.042  11.957   8.891 -0.1738  0.0375 -0.1256
22267W        W78508  23.307  13.294  15.078 -0.0088  0.0167 -0.0148
22268W        W78509  29.614  34.910  20.283  0.0065  0.0679 -0.1257
22269W        W78510   8.436  26.801   9.755 -0.4173 -0.0244  0.0644
22270W        W78511   8.811  16.646  25.001 -0.1127  0.1386  0.0097
22271W        W78512   0.084  17.067  13.335 -0.2859  0.1131  0.1842
22272W        W78513  23.350   8.958  21.430  0.1031  0.1490  0.0812
22273W        W78514   4.349   3.529   3.220 -0.0384  0.1466  0.1077
22274W        W78515  30.750  22.579   7.570 -0.1180  0.0652  0.1168
22275W        W78516  18.323   4.175  25.463 -0.0675  0.1050  0.1286
22276W        W78517   2.224   2.510   5.233  0.0973 -0.2850 -0.0431
22277W        W78518  31.432  11.140  17.094 -0.0118  0.0171 -0.0211
22278W        W78519  23.113   3.989  20.752 -0.0271  0.1953 -0.2021
22279W        W78520   5.895  12.423   9.593  0.0639 -0.1695 -0.3153
22280W        W78521  27.856   8.655  23.037 -0.2606  0.1963  0.0448
22281W        W78522  16.182  17.957   2.147  0.0522  0.2280 -0.2171
22282W        W78523  12.681   3.203  10.591 -0.1058 -0.4604  0.1783
22283W        W78524  14.113   5.677  18.828 -0.2099  0.1046 -0.1459
22284W        W78525  25.805  18.181  14.932  0.0817  0.0834 -0.0390
22285W        W78526  28.187  21.865  14.037 -0.2327 -0.1543 -0.0465
22286W        W78527  10.438  10.182   3.782  0.0382 -0.3806 -0.0827
22287W        W78528  14.483   0.732   8.216 -0.1716  0.1758 -0.2051
22288W        W78529  28.320   3.983  23.539 -0.0802  0.0407 -0.2851
22289W        W78530  25.963   3.802   0.521  0.0141 -0.2165  0.0989
22290W        W78531  23.856   3.484  20.581 -0.4096 -0.2047 -0.0038
22291W        W78532   1.843   9.384  23.616  0.1190  0.1139  0.2209
22292W        W78533  14.614  22.265   9.562 -0.2824  0.2548 -0.0416
22293W        W78534  24.709   0.360  20.883 -0.1785  0.0450  0.3206
22294W        W78535  33.690  19.768  20.127 -0.2441  0.0103 -0.0768
22295W        W78536  25.916   2.095   3.503 -0.1115  0.0091  0.1711
22296W        W78537  14.184   3.674   0.038 -0.1870 -0.0660  0.1201
22297W        W78538  10.254  14.250   9.040  0.0282  0.3646  0.0806
22298W        W78539   5.957  11.079   7.175 -0.0341  0.1857  0.1216
22299W        W78540   6.394  35.276   4.511  0.0449 -0.1392 -0.2687
22300W        W78541  34.804  17.919   0.616 -0.1369  0.0495 -0.0247
22301W        W78542  15.791  29.187   3.496 -0.3521 -0.0903 -0.0205
22302W        W78543  12.830   9.743  25.904 -0.2549 -0.1378 -0.3146
22303W        W78544  27.085   6.490   9.997  0.1762 -0.2114 -0.4879
22304W        W78545  15.469  12.601   4.889  0.1613 -0.1954 -0.2209
22305W        W78546  24.548  30.657  20.346  0.0409  0.0152 -0.2342
22306W        W78547   2.067  19.019   1.924  0.2641 -0.4481  0.0558
22307W        W78548  24.509  27.219  18.032  0.0249  0.1832 -0.0802
22308W        W78549  21.510  19.563   4.623  0.0540 -0.0230 -0.0805
22309W        W78550   2.832  14.414  25.679  0.0584 -0.0390  0.1544
22310W        W78551  35.342   2.162   7.165 -0.0405  0.0157 -0.1174
22311W        W78552  31.594   2.741  22.601 -0.1874  0.0618 -0.0355
22312W        W78553  15.763  26.863  15.831 -0.1422 -0.2086 -0.0475
22313W        W78554  30.081  24.048   9.162 -0.1332  0.0860  0.3822
22314W        W78555  25.405  13.051   0.077 -0.3178  0.1024 -0.3121
22315W        W78556   1.733   7.398  19.548 -0.2340  0.1013 -0.2838
22316W        W78557  28.545  17.013  21.340  0.0532 -0.0708 -0.0980
22317W        W78558   8.667  16.668  25.547 -0.1079 -0.0411 -0.0508
22318W        W78559   5.690  25.026   8.924  0.0503  0.2227  0.1574
22319W        W78560   7.058   3.966   7.197 -0.1834  0.0101  0.0569
22320W        W78561  34.644  21.368  25.715  0.0164 -0.1526  0.0944
22321W        W78562  34.564   4.035  14.112 -0.1082  0.0215 -0.1684
22322W        W78563  10.729   2.422   3.137 -0.5288 -0.2270 -0.1718
22323W        W78564  16.385  18.357   1.395  0.0712  0.2781 -0.1528
22324W        W78565  30.596   5.369   3.005  0.1218  0.0012 -0.2555
22325W        W78566  29.788  16.783   6.141 -0.2682 -0.2549  0.2722
22326W        W78567   1.963   1.600  18.503 -0.0697 -0.1388  0.1929
22327W        W78568  28.364  25.429  13.361  0.3243  0.1655 -0.0087
22328W        W78569   3.732  32.449   6.863 -0.1292  0.1464  0.4267
22329W        W78570   3.971   4.522  22.011 -0.0441  0.1023  0.0508
22330W        W78571   6.358  32.419  23.808 -0.0327 -0.5111  0.0521
22331W        W78572  10.274  20.988  11.226 -0.2973 -0.0795 -0.0849
22332W        W78573  19.495  17.503  24.050  0.1780 -0.1960  0.0236
22333W        W78574  13.139  31.998   9.698  0.0928 -0.5205 -0.0626
22334W        W78575  34.411  32.010  15.180  0.0959 -0.2426 -0.2196
22335W        W78576   1.433  23.004  14.881 -0.0370  0.1317  0.2704
22336W        W78577  12.022  22.283  25.576  0.1862  0.1377  0.1435
22337W        W78578   3.156  19.195  16.342 -0.1835  0.0456  0.0679
22338W        W78579   5.162  24.258   3.928  0.6245  0.2802 -0.1357
22339W        W78580  34.388  23.554  10.474  0.1998 -0.0270  0.1089
22340W        W78581   6.844  31.364  23.462 -0.1584  0.0805  0.0798
22341W        W78582   3.846  21.282   4.660 -0.2341 -0.0297  0.2111
22342W        W78583  30.161   6.675  17.716  0.1973  0.0166  0.2481
22343W        W78584  17.591  24.621  10.018  0.2673  0.0552 -0.0978
22344W        W78585  18.605   9.180   1.634 -0.1424  0.0793 -0.2205
22345W        W78586  26.275  32.485  11.671  0.1095 -0.0007  0.3556
22346W        W78587  11.143  10.087   7.936 -0.2829  0.0949 -0.1979
22347W        W78588  16.161   8.222  18.743  0.0074  0.1067 -0.0659
22348W        W78589  22.943  15.694  16.029  0.1925  0.2351 -0.2626
22349W        W78590  10.957  22.298  13.997  0.3395 -0.1443  0.1010
22350W        W78591  30.602   9.300  20.726 -0.1776 -0.1583 -0.2470
22351W        W78592  11.884  29.242  11.654 -0.0540  0.4267 -0.3680
22352W        W78593  13.979  20.094  11.000  0.1557  0.2002 -0.0292
22353W        W78594  13.733   3.032   2.560  0.1792 -0.2922  0.0735
22354W        W78595   9.654  20.585   1.824 -0.2372 -0.1325 -0.1137
22355W        W78596  29.360  27.283  20.781  0.0660  0.0352 -0.0751
22356W        W78597  30.490  35.215  11.168  0.1441  0.1357  0.1986
22357W        W78598  31.419  13.329  23.131 -0.1052 -0.3081  0.0593
22358W        W78599   3.407  12.401  22.682  0.1305  0.0295  0.0348
22359W        W78600  18.756  27.559  22.992  0.4808  0.2649  0.1248
22360W        W78601  23.742  25.225   2.510  0.1124  0.1483  0.1492
22361W        W78602  32.280   5.475   3.349 -0.1759  0.0975  0.0149
22362W        W78603  24.122  18.623  12.216 -0.0865 -0.0477 -0.1403
22363W        W78604  27.109  17.677  16.519  0.2487 -0.3110  0.1960
22364W        W78605  27.036  10.984  25.039  0.2372 -0.0490  0.1293
22365W        W78606  10.898   4.829   4.775 -0.1489 -0.1928  0.0527
22366W        W78607  20.080  11.284  18.563 -0.3359  0.0192  0.0024
22367W        W78608  25.995  16.946   6.150 -0.1014  0.1263  0.0053
22368W        W78609   7.388  27.408  25.428  0.1144  0.2729 -0.2204
22369W        W78610  28.399  32.376  10.506  0.0271 -0.0521 -0.2478
22370W        W78611  17.025  11.081   1.904 -0.1223 -0.1534  0.3217
22371W        W78612  32.482   9.417  19.227 -0.1183 -0.2135 -0.1077
22372W        W78613   3.502  11.766  16.269 -0.2703 -0.0122 -0.4571
22373W        W78614  23.662   3.604  15.276 -0.2737 -0.0797 -0.2150
22374W        W78615  16.229  33.144   6.785  0.0341  0.1603  0.0766
22375W        W78616  29.486  13.022  24.384  0.0684 -0.0355 -0.1441
22376W        W78617  27.156  17.799  20.511  0.1312 -0.3630 -0.0261
22377W        W78618  21.274  12.466  23.242 -0.0996  0.0270  0.1344
22378W        W78619  11.375  33.572   9.288  0.1114 -0.0800 -0.1675
22379W        W78620   6.726  33.317   3.631  0.1772 -0.1437  0.0129
22380W        W78621  10.811  27.610  10.809  0.2705  0.3151 -0.1950
22381W        W78622  13.656   7.464  11.516 -0.1033  0.2416  0.0666
22382W        W78623   4.523  22.718  23.026 -0.3803 -0.0990  0.2999
22383W        W78624   9.856  24.196   9.495  0.1422  0.1559 -0.1044
22384W        W78625  30.382  29.770  15.555  0.0170 -0.2279  0.1239
22385W        W78626   4.258   7.925  23.523 -0.0641  0.1688 -0.1011
22386W        W78627  15.040  30.338   4.524  0.2994  0.1307  0.2627
22387W        W78628  32.751  21.164   8.903  0.1773 -0.2528  0.0796
22388W        W78629  33.706   1.823   2.121  0.2632 -0.4110 -0.2563
22389W        W78630  17.928   6.117   3.974  0.2314 -0.0795 -0.3475
22390W        W78631   2.355  18.957   9.632 -0.2350 -0.2632  0.0744
22391W        W78632   2.461  21.521  21.435  0.0932  0.0382  0.0688
22392W        W78633   2.223  30.219   0.309  0.1598  0.0666 -0.4940
22393W        W78634  17.843   7.751   7.437 -0.1584 -0.0615 -0.0235
22394W        W78635  27.919   4.522   4.844  0.1698  0.2430  0.0836
22395W        W78636  13.261  21.260  24.877  0.0892 -0.0838 -0.2306
22396W        W78637  26.257  20.866  24.140  0.3276 -0.3337  0.5033
22397W        W78638  27.203   3.551   1.843 -0.0509  0.4194  0.1291
22398W        W78639  33.882   1.395  23.854  0.2523  0.2061  0.0032
22399W        W78640  20.633  32.977  19.433 -0.1243  0.0832 -0.1391
22400W        W78641  18.572   0.774  22.680 -0.0102  0.1360 -0.0750
22401W        W78642  30.824  30.035  23.730  0.0404  0.0663 -0.0716
22402W        W78643   2.936  11.368   0.522  0.0487  0.2261  0.0012
22403W        W78644  14.993  12.347   2.588  0.0778 -0.1665 -0.0662
22404W        W78645  26.255  29.137  13.487 -0.2976  0.0677 -0.2350
22405W        W78646  11.075   5.390  23.889  0.2010 -0.2033 -0.2780
22406W        W78647  17.944  12.902   9.615 -0.3970 -0.2931  0.1584
22407W        W78648   9.536   4.472  21.378 -0.0587 -0.0082 -0.0860
22408W        W78649  17.762   8.430  25.363  0.0546  0.1842 -0.3482
22409W        W78650  26.834   7.407   2.945 -0.1579  0.0667 -0.1477
22410W        W78651   9.580   9.673  24.589  0.1729 -0.0717  0.0794
22411W        W78652  21.684  23.329   0.373 -0.1257  0.1354  0.2860
22412W        W78653   8.322  35.058   5.441 -0.0137 -0.0053 -0.1531
22413W        W78654  28.980   9.343  22.433  0.0612  0.1514 -0.1325
22414W        W78655  10.885  34.891   6.446 -0.0391 -0.1435 -0.2060
22415W        W78656  18.568  30.092   6.114  0.1050 -0.2407 -0.0850
22416W        W78657   1.840  16.725  14.185  0.0896 -0.2044 -0.0841
22417W        W78658  30.742   1.872   6.305  0.5113  0.1166 -0.3580
22418W        W78659  18.266  12.262   6.423 -0.0337 -0.3659 -0.0906
22419W        W78660   8.150  15.488  24.824  0.1354  0.0130 -0.0496
22420W        W78661  11.608  32.001   2.423  0.1536 -0.3897  0.1404
22421W        W78662  19.289   9.180   5.291 -0.1487 -0.0244  0.0733
22422W        W78663  21.953  32.906   2.506  0.4017  0.2520  0.0004
22423W        W78664  28.405  15.330  19.808  0.3127 -0.1276 -0.2060
22424W        W78665   8.646  33.892  11.684 -0.4076 -0.0238 -0.0166
22425W        W78666  25.884  34.593   4.971 -0.0626  0.1033  0.2663
22426W        W78667   1.650  33.040   2.893 -0.1753  0.0483 -0.3148
22427W        W78668  35.068  10.939  10.234  0.0906 -0.3073  0.3259
22428W        W78669  31.543  25.786  12.143 -0.0497 -0.0487 -0.1364
22429W        W78670  14.263  21.468  11.980  0.3212  0.0210  0.0204
22430W        W78671   5.970  31.815   3.286 -0.0218  0.0568 -0.2101
22431W        W78672   1.878   4.898  17.331  0.1049 -0.1543  0.0096
22432W        W78673  31.664  10.093   8.519  0.0679  0.0467  0.2569
22433W        W78674  15.470  32.514  20.201  0.2568  0.2901 -0.0857
22434W        W78675  20.820  12.697  23.138 -0.2131  0.0322  0.1768
22435W        W78676  26.072   8.626  23.163 -0.0094 -0.2566 -0.1416
22436W        W78677   5.412  29.005  12.095 -0.2895 -0.1430  0.0506
22437W        W78678   6.321  28.058  25.333 -0.0134 -0.3924 -0.0691
22438W        W78679  21.472  18.140  24.377 -0.2166 -0.0089  0.0263
22439W        W78680  33.897   4.283  20.699 -0.0203  0.0158  0.2106
22440W        W78681  10.863   4.718  14.039 -0.2252  0.0039 -0.0084
22441W        W78682   9.290  22.820  11.546  0.0536  0.1333  0.0608
22442W        W78683   6.896  22.010   8.885 -0.0844 -0.1990 -0.0628
22443W        W78684  20.738  32.322  16.308 -0.1108 -0.0897 -0.1572
22444W        W78685  25.257  25.911  22.446 -0.3873  0.0289  0.2994
22445W        W78686  16.574  34.898  23.771 -0.1379  0.0268  0.4050
22446W        W78687  33.356  18.550  16.080  0.0653 -0.1728 -0.1689
22447W        W78688   9.443  29.190  22.807  0.1591 -0.2054 -0.0091
22448W        W78689  35.017   6.542  17.697  0.3892 -0.0235  0.1113
22449W        W78690  17.076  13.052  19.985 -0.3920  0.0186  0.4946
22450W        W78691  25.405  19.514  18.973 -0.0773 -0.0868 -0.0172
22451W        W78692  11.748  34.564  21.402 -0.1082 -0.2485 -0.2415
22452W        W78693  27.421   6.602  12.694  0.2434  0.0517 -0.0733
22453W        W78694  21.320  15.015  19.831  0.1569  0.0883  0.1861
22454W        W78695  34.321  13.720  11.190 -0.1630  0.0072  0.2214
22455W        W78696  22.757  32.257  19.363  0.0516 -0.1104 -0.1856
22456W        W78697  17.501  16.410  24.487  0.2447  0.0644 -0.0047
22457W        W78698  32.802  23.480  12.279  0.4109  0.3844 -0.0720
22458W        W78699  14.093   0.744  10.388  0.1132 -0.0192  0.0902
22459W        W78700   8.039  29.057   5.114  0.1295  0.1299  0.1489
22460W        W78701   0.060   1.092  19.496  0.0842  0.0790 -0.0213
22461W        W78702  17.404  25.642   6.656  0.0672 -0.0223  0.0441
22462W        W78703  29.881  26.616  23.494 -0.0688  0.1491  0.1239
22463W        W78704  12.422  23.341  16.314  0.0779  0.0697 -0.0240
22464W        W78705  30.039  31.462  18.657  0.1531  0.2619  0.0052
22465W        W78706  33.222  30.390  17.709  0.0514 -0.1194  0.0772
22466W        W78707  14.339   7.261   5.454 -0.0523  0.1557  0.1331
22467W        W78708  20.810  15.908   2.895 -0.0664  0.0950  0.1497
22468W        W78709  21.754  33.908  19.926 -0.1998 -0.0341 -0.3001
22469W        W78710  12.481  35.214  10.494 -0.0535  0.2944  0.1403
22470W        W78711  18.265  10.097   5.561 -0.0322  0.0055  0.1722
22471W        W78712  13.647  28.024   3.926  0.1957  0.1776 -0.3046
22472W        W78713  10.120  10.591   0.358  0.1082  0.0421 -0.0680
22473W        W78714  32.245   3.667  11.561 -0.0788 -0.0386 -0.1135
22474W        W78715  32.315  19.654  25.203  0.1911  0.2123  0.2001
22475W        W78716   8.732   2.067  13.880 -0.2092  0.2367  0.3122
22476W        W78717  27.812  26.263  14.935  0.4116  0.2047  0.2234
22477W        W78718   7.286   1.719  24.619  0.1809 -0.0838  0.2984
22478W        W78719  27.142  24.178  25.924 -0.0650 -0.0960  0.2336
22479W        W78720  32.692  15.305  18.545  0.0884 -0.1665  0.2725
22480W        W78721  14.877  25.453  10.755  0.1502  0.0527  0.2644
22481W        W78722   1.262   6.273  19.313  0.2810  0.3775 -0.1943
22482W        W78723  18.196   5.692   4.150 -0.0551 -0.0287 -0.5645
22483W        W78724  34.873   4.305   3.086  0.1057 -0.1254  0.0774
22484W        W78725  24.637   1.712  18.683 -0.0660 -0.1065 -0.0164
22485W        W78726  18.248  28.867   6.274  0.0578 -0.3981  0.1114
22486W        W78727  20.487  33.206   0.297 -0.1417  0.0936  0.0636
22487W        W78728  13.111   6.220   3.972 -0.0973 -0.2172  0.3967
22488W        W78729  30.713   3.897  17.011 -0.0424  0.0374 -0.0876
22489W        W78730   4.241   5.185  20.975  0.1314 -0.2756 -0.0848
22490W        W78731  28.617   6.282  12.754 -0.0687  0.1858 -0.3700
22491W        W78732   8.283  22.771  22.896 -0.0611  0.1670  0.0378
22492W        W78733   3.222   4.388   9.462  0.1340 -0.2426  0.0274
22493W        W78734  28.409  20.583  14.421  0.4228 -0.1011 -0.2243
22494W        W78735  26.795  25.008  18.210 -0.1432 -0.5888  0.1062
22495W        W78736  26.492  11.447  13.614  0.2012  0.1014 -0.0185
22496W        W78737  33.550  28.892  16.450  0.0051 -0.1303  0.1789
22497W        W78738  24.520  17.163  15.605 -0.2391 -0.0932  0.0611
22498W        W78739  13.724  25.234   8.412 -0.0872 -0.2218 -0.0426
22499W        W78740   5.035   6.279   0.538 -0.1806  0.1384  0.1387
22500W        W78741  21.100  18.084  20.192  0.1191  0.0288 -0.0527
22501W        W78742  26.666   4.392  25.831  0.1495  0.1797 -0.0082
22502W        W78743  24.360  11.049  15.681  0.1380 -0.0343  0.0763
22503W        W78744   5.041  21.788   1.850  0.4773 -0.0015 -0.0437
22504W        W78745   6.038  10.681   5.686 -0.1859 -0.0201  0.1539
22505W        W78746   0.821  27.159  18.610  0.4228 -0.1262  0.0617
22506W        W78747  19.404   2.172   7.336  0.2057  0.1163 -0.3696
22507W        W78748   6.939  12.546   7.830  0.0203 -0.3165  0.3372
22508W        W78749  28.070   9.569  10.124  0.2645  0.0464  0.0082
22509W        W78750   8.261  29.401   3.280  0.1946 -0.0714  0.1200
22510W        W78751  28.759   9.226   8.457 -0.0873 -0.0656  0.0991
22511W        W78752  13.416  14.892  24.513 -0.1104  0.1185  0.2078
22512W        W78753  16.950   5.449   9.831  0.0484  0.1360 -0.3958
22513W        W78754  16.047  26.250   6.292  0.0017 -0.1981  0.1979
22514W        W78755   8.196  18.709  22.019  0.3172  0.0384  0.1164
22515W        W78756   0.657   9.834  15.233 -0.3956  0.4125  0.3152
22516W        W78757   4.181  14.211  23.393  0.1484 -0.1429 -0.0263
22517W        W78758   1.618  20.171   1.232 -0.0353 -0.2147 -0.1477
22518W        W78759  15.097  30.485  23.892 -0.1057 -0.0458  0.2858
22519W        W78760  34.522  22.979  12.312 -0.0862 -0.0497  0.2276
22520W        W78761  20.708  24.700   0.433  0.0589 -0.1948 -0.1227
22521W        W78762  23.612   6.004  14.911 -0.0168  0.1002  0.0770
22522W        W78763  32.429   7.556  25.590 -0.0613  0.0901 -0.1302
22523W        W78764   1.177   6.839  19.771 -0.2627 -0.0566 -0.0152
22524W        W78765   9.988  19.746  12.573 -0.1808 -0.1178 -0.0069
22525W        W78766  33.874  29.030  15.662  0.2151  0.2719 -0.3060
22526W        W78767  19.051  26.727  24.180 -0.1013 -0.0464 -0.0696
22527W        W78768  19.467   0.452   5.953 -0.0056  0.3049  0.0507
22528W        W78769  28.256  26.652   1.971  0.0410 -0.0080 -0.1437
22529W        W78770  15.717  14.871  21.612  0.4193  0.0646  0.2310
22530W        W78771   6.044   9.525   0.878 -0.1509 -0.1828 -0.1237
22531W        W78772  16.069   8.479  10.869 -0.0362 -0.2094  0.0214
22532W        W78773   5.423   3.591   0.729  0.2466  0.2362  0.2233
22533W        W78774   9.483  22.840  23.072  0.1468  0.2368  0.2093
22534W        W78775   8.715  25.017   4.566  0.3400 -0.1625  0.3330
22535W        W78776  21.783  21.078  20.978  0.2155  0.3993  0.2199
22536W        W78777  34.170  19.402  21.257  0.1476 -0.0560 -0.1366
22537W        W78778  33.581  34.810  15.495 -0.2812  0.0159  0.1135
22538W        W78779  30.343  30.642  22.629  0.0176  0.1565 -0.0035
22539W        W78780  19.773  22.806   4.237  0.2871  0.0643  0.0251
22540W        W78781   3.564  30.945  12.623  0.2322  0.2380  0.1569
22541W        W78782  26.537   1.192  23.305  0.0148 -0.1406 -0.1033
22542W        W78783  15.671   4.873  10.269 -0.2042 -0.4173  0.2376
22543W        W78784   0.317  23.760  17.427 -0.0845  0.3017 -0.6107
22544W        W78785  24.125  12.156  17.669 -0.3366  0.1701 -0.0636
22545W        W78786   3.641   4.963  17.639 -0.0354 -0.3207  0.0564
22546W        W78787  18.877  12.224   9.497 -0.3153  0.2606  0.0030
22547W        W78788  10.655  13.581  12.366 -0.2174 -0.0055  0.0548
22548W        W78789  29.541  26.884  17.635  0.4120 -0.1481 -0.1666
22549W        W78790  14.218  22.582   6.010  0.2842  0.1672  0.0320
22550W        W78791  32.762  27.085  17.943 -0.2492  0.1193 -0.1086
22551W        W78792  26.887  21.156  11.829  0.2188  0.1269  0.1061
22552W        W78793   4.992  33.958  19.622  0.2214  0.2258  0.1109
22553W        W78794  14.111  33.831   7.442 -0.2011  0.2690  0.1964
22554W        W78795   7.306  11.344   1.520  0.0268 -0.0082  0.0282
22555W        W78796   4.164  10.102   7.159 -0.3797 -0.2123 -0.0070
22556W        W78797  28.070  20.290   5.331 -0.1929  0.1083 -0.2838
22557W        W78798   1.061  31.141   3.839  0.2728  0.0209 -0.0221
22558W        W78799  17.334  30.275   9.157  0.0991  0.0470  0.0205
22559W        W78800  34.663   6.235   5.583 -0.0510 -0.0483 -0.3739
22560W        W78801  24.386  12.765  11.137  0.2390  0.0813  0.1235
22561W        W78802  13.363   2.462   9.933  0.2695 -0.0103 -0.3054
22562W        W78803  13.920   7.875  24.529  0.1578  0.1979  0.2069
22563W        W78804  33.919  24.147  17.555  0.1661 -0.0260 -0.0519
22564W        W78805   6.928  24.106  23.983 -0.0014  0.0993  0.1459
22565W        W78806  32.229   1.251  12.282  0.2834 -0.0999 -0.1805
22566W        W78807  30.031   3.924  18.954  0.0421 -0.4409  0.1205
22567W        W78808  24.050  24.860  12.543 -0.0467  0.1088 -0.0525
22568W        W78809  30.970  16.523  16.670 -0.1467 -0.1274  0.0218
22569W        W78810   9.058   7.277  25.550 -0.2673 -0.0953 -0.1441
22570W        W78811   0.467  13.453  23.536 -0.0813 -0.4459  0.2180
22571W        W78812   4.286  11.889   4.916  0.0319 -0.1936 -0.2144
22572W        W78813  11.081   2.330   4.246  0.0791  0.4286  0.2930
22573W        W78814   8.472   3.458  14.173 -0.2775  0.0531  0.1449
22574W        W78815  23.094  13.734   1.301  0.2663  0.1091  0.0974
22575W        W78816  15.464  30.206  12.188  0.0063 -0.2463 -0.4079
22576W        W78817  26.492  32.262  25.334 -0.3386  0.1510 -0.0698
22577W        W78818  22.010  14.646  24.995 -0.2742 -0.1826 -0.4326
22578W        W78819  17.046  15.585  25.432  0.1992 -0.2489 -0.0388
22579W        W78820  14.801  16.974   9.038 -0.1104  0.2248 -0.2755
22580W        W78821  33.220  31.219   6.192 -0.0359  0.1662  0.2314
22581W        W78822  32.223   1.444   4.476  0.4159 -0.0909 -0.2558
22582W        W78823  22.799  17.194  15.921  0.1597  0.2229  0.0513
22583W        W78824   7.305  34.336   3.207 -0.5102 -0.2663 -0.1572
22584W        W78825  32.252  12.084  11.011 -0.1640 -0.0480  0.1686
22585W        W78826   7.938  11.410  23.333 -0.0968 -0.1364 -0.0297
22586W        W78827  23.546  25.398  24.709  0.1832  0.0792  0.0047
22587W        W78828  18.046  10.686  23.692  0.1951  0.0080 -0.0457
22588W        W78829  33.107  22.923  19.508  0.1243 -0.0174 -0.2410
22589W        W78830  13.894  23.863  25.749  0.0611 -0.0746  0.1147
22590W        W78831  23.724   9.071  20.277 -0.1188 -0.0636  0.3282
22591W        W78832  31.757   7.394  10.249 -0.1456  0.1736 -0.0702
22592W        W78833  11.659  15.670  12.226  0.0896  0.0527  0.0415
22593W        W78834  33.091   6.852   2.225  0.1886  0.0657  0.0172
22594W        W78835  31.440   2.596   2.378 -0.1827  0.1382  0.0252
22595W        W78836  32.543  29.351   5.223 -0.0449 -0.0750 -0.0578
22596W        W78837   8.578  27.395  10.670 -0.2019  0.3243  0.0979
22597W        W78838  12.228  13.833  25.069  0.0865 -0.1789  0.3607
22598W        W78839   0.161  22.842  25.672  0.1090 -0.0522 -0.0480
22599W        W78840  15.335  25.068   1.779 -0.3650  0.1744 -0.3065
22600W        W78841  31.511  20.207  14.190 -0.1394 -0.1115  0.2132
22601W        W78842  13.579  10.321  23.828  0.3522  0.0412 -0.1133
22602W        W78843  24.201  22.051  22.725  0.0314  0.1811 -0.1637
22603W        W78844  15.409  21.572  23.220 -0.1679  0.6641  0.0346
22604W        W78845  32.052  32.363   2.697 -0.2984  0.0488  0.2948
22605W        W78846  11.111  11.626   6.659  0.0736 -0.0839  0.0355
22606W        W78847   3.510  33.342  19.078 -0.2001  0.1801  0.0804
22607W        W78848  29.844   9.081  19.076 -0.1442 -0.1527  0.0184
22608W        W78849  28.477  29.130   3.581  0.0994  0.3313  0.0613
22609W        W78850  19.544  29.790  21.552  0.1760 -0.2142 -0.0904
22610W        W78851   0.182   2.015  18.817 -0.0204 -0.2263 -0.0811
22611W        W78852   6.702  10.788   6.427 -0.0976 -0.1028  0.2597
22612W        W78853  22.397  13.319  15.938 -0.0500 -0.1053 -0.0216
22613W        W78854  31.549  33.173   5.709 -0.3868 -0.0440  0.2294
22614W        W78855  20.223  28.749  22.556 -0.0682 -0.0097  0.1092
22615W        W78856  26.018   0.879   4.452  0.0025  0.0747  0.1714
22616W        W78857  15.842   0.419  21.650  0.0946 -0.2798 -0.1657
22617W        W78858  20.861  27.250  25.478  0.0117  0.0994  0.3957
22618W        W78859  30.981  12.373  16.745 -0.0690 -0.0378  0.3063
22619W        W78860  23.179   0.673  21.451  0.2718  0.0028  0.0110
22620W        W78861  16.609  23.808   0.533 -0.1247 -0.6543  0.2690
22621W        W78862   1.493  27.130   4.790 -0.0453 -0.2618  0.0340
22622W        W78863  33.269  17.987  16.695  0.1615  0.0455  0.1667
22623W        W78864  34.670   0.302   5.708  0.2647 -0.2687  0.1347
22624W        W78865   4.347  34.328   0.009  0.0540  0.2122  0.1234
22625W        W78866  17.402  23.812  23.602  0.2639 -0.0080  0.4058
22626W        W78867  30.182   8.157  11.900 -0.0341  0.1565 -0.0989
22627W        W78868   1.442   3.753   3.038  0.2354 -0.0566  0.1151
22628W        W78869  13.607   8.808  24.359  0.3131  0.0367 -0.1809
22629W        W78870   6.734  30.652   6.974 -0.2535 -0.3538  0.3384
22630W        W78871   1.098   6.023   3.173  0.1787 -0.2508 -0.1373
22631W        W78872   4.753  16.462  24.458  0.0622 -0.1576 -0.0277
22632W        W78873  33.353  31.738   7.499  0.1955 -0.0809 -0.2548
22633W        W78874  12.374   9.954  21.970  0.0402  0.1120  0.0556
22634W        W78875  24.897  17.681   0.768  0.0122  0.2287  0.0363
22635W        W78876  18.715  32.947  23.812 -0.0888 -0.0836  0.0488
22636W        W78877  14.243  33.113  22.955  0.2268 -0.1463  0.1272
22637W        W78878  33.738  19.875  14.819 -0.1383 -0.1173 -0.0392
22638W        W78879  22.408   3.584  25.979  0.0211 -0.2295  0.1299
22639W        W78880   6.547   1.204   4.604  0.0205 -0.1941 -0.2060
22640W        W78881  35.330  25.305  22.871 -0.0008 -0.0757 -0.2178
22641W        W78882  31.477   1.548  25.000 -0.2003  0.0790  0.1703
22642W        W78883   0.751  21.157  25.364 -0.1218 -0.2236  0.2447
22643W        W78884   5.901   5.418  21.190 -0.0660  0.1075  0.0832
22644W        W78885  20.516   8.890  23.994 -0.0160 -0.2371  0.3329
22645W        W78886  21.251   9.588  23.708  0.0247 -0.0802  0.1058
22646W        W78887  10.561   2.750  26.201  0.0029  0.1985 -0.0757
22647W        W78888   9.509  11.029   4.944  0.0453  0.1126  0.0910
22648W        W78889  26.249   0.480   5.390  0.0206 -0.0527  0.1201
22649W        W78890  21.551  29.117  21.398  0.0905  0.1637 -0.0570
22650W        W78891  27.928  21.409  21.473  0.2332 -0.1573 -0.0616
22651W        W78892  31.414  28.813  18.187  0.2245  0.1662 -0.1073
22652W        W78893  28.093   7.481  25.105 -0.1669 -0.3016 -0.0276
22653W        W78894  18.103  23.789  23.507 -0.2187 -0.4128 -0.0224
22654W        W78895  15.905  24.684  25.279 -0.0571  0.1137 -0.3930
22655W        W78896   5.084  25.390  22.491  0.0038 -0.1884 -0.0650
22656W        W78897  23.178  11.851  19.286 -0.1301 -0.0587  0.3742
22657W        W78898  24.907   3.306  24.602 -0.1638 -0.2237 -0.4653
22658W        W78899   7.212  32.100   4.144  0.1102  0.1311 -0.0449
22659W        W78900   6.760  12.857   6.398  0.2160 -0.1797 -0.1144
22660W        W78901   4.619  28.214  22.595  0.1919 -0.0474  0.0522
22661W        W78902  21.770  21.893  18.517 -0.2066 -0.2119 -0.0689
22662W        W78903  32.731  27.925  13.306 -0.1082  0.2171 -0.2613
22663W        W78904   9.813   8.090  13.987 -0.0275  0.1393  0.0099
22664W        W78905  23.306  12.753   2.350  0.2415  0.2705 -0.0240
22665W        W78906  30.362   2.020  16.369 -0.0777  0.1862 -0.1644
22666W        W78907   8.699  32.364  13.530 -0.2492 -0.1291 -0.2819
22667W        W78908  14.741   1.878  20.523  0.1272  0.1120 -0.3074
22668W        W78909  23.208   9.936  15.367  0.1804  0.1036  0.0123
22669W        W78910  16.918  11.494  20.746 -0.0144  0.1079 -0.0812
22670W        W78911   5.019  26.170  10.003  0.0227 -0.0465  0.1459
22671W        W78912   9.438  32.327  25.352  0.1920  0.4004 -0.1910
22672W        W78913  28.766  26.501  13.072 -0.3421 -0.0146  0.0813
22673W        W78914  28.715  26.237  22.156  0.2401 -0.0428 -0.0105
22674W        W78915  31.617   1.613  12.733 -0.1904 -0.1489 -0.0320
22675W        W78916  24.450  16.613  12.925  0.5763  0.0348  0.0597
22676W        W78917   1.729   8.803   4.373  0.1045 -0.1123 -0.0015
22677W        W78918   6.337  30.161  22.969  0.1336  0.1591 -0.2182
22678W        W78919  14.361  26.888   8.251 -0.1752  0.0419  0.1232
22679W        W78920  12.713  34.045  25.955 -0.1013 -0.1316 -0.0497
22680W        W78921  11.432  16.616   0.730 -0.0282  0.0031  0.2847
22681W        W78922  19.045  33.744  24.071 -0.2279  0.0536 -0.0854
22682W        W78923  18.079  11.867  10.585 -0.1134 -0.1656  0.2639
22683W        W78924  34.163  13.995  20.464 -0.3269 -0.0897  0.3396
22684W        W78925  27.179   2.498  11.183  0.2742  0.0905  0.0372
22685W        W78926  16.781  14.850  18.168 -0.0464 -0.1292  0.1574
22686W        W78927  12.562  32.471   6.696 -0.1638 -0.3005 -0.0308
22687W        W78928  22.487  19.872   1.229  0.0418  0.1030  0.1504
22688W        W78929  16.965  32.169   0.791 -0.2175  0.1334 -0.1830
22689W        W78930  14.325   1.103   5.302 -0.2018 -0.2811 -0.1427
22690W        W78931  10.351  10.341   9.647 -0.2124  0.0756  0.1110
22691W        W78932  30.261  27.135  12.704 -0.1326 -0.0001  0.1137
22692W        W78933   2.439  17.809   0.960  0.0419 -0.0264 -0.0890
22693W        W78934  25.555  32.883  15.752 -0.1154 -0.0176  0.0716
22694W        W78935  22.987   0.986   1.542 -0.1621 -0.0524 -0.3233
22695W        W78936  24.537   3.890  24.867 -0.0037  0.0709 -0.0113
22696W        W78937   8.061  26.902  12.083  0.1620 -0.2881  0.2397
22697W        W78938  24.967   2.962  22.516  0.2109  0.0824 -0.0440
22698W        W78939  19.880   8.021   7.293 -0.2645 -0.0149  0.0486
22699W        W78940  11.095  30.618   9.065 -0.1092 -0.2952 -0.0618
22700W        W78941  13.309  20.378  22.022 -0.3796  0.1343  0.0342
22701W        W78942  34.586   2.626  16.513  0.1752 -0.1147 -0.3361
22702W        W78943  11.834  30.494  12.960  0.0072 -0.2041 -0.0249
22703W        W78944   9.611   3.243   7.656  0.1425  0.2456 -0.0294
22704W        W78945  16.467  26.314  26.003 -0.3181  0.1569 -0.2189
22705W        W78946  15.879  23.189  21.562  0.3964  0.0082 -0.0251
22706W        W78947  11.260  17.638  24.191 -0.0250  0.1809 -0.2425
22707W        W78948  26.069  28.701  24.514 -0.1781 -0.0322  0.0412
22708W        W78949   6.916  11.773   2.122 -0.1940  0.1215 -0.1238
22709W        W78950  34.600   4.700  23.147 -0.1024 -0.0600  0.2586
22710W        W78951  20.606  16.737  22.395  0.0616  0.1086  0.0069
22711W        W78952   7.579  21.598   0.049  0.1904 -0.1705  0.3772
22712W        W78953  18.093  33.898  23.638  0.0307  0.0406 -0.1260
22713W        W78954   3.363   4.157   7.917  0.2362  0.0623 -0.1872
22714W        W78955  25.022  13.277  14.092  0.1186 -0.0983 -0.1802
22715W        W78956  35.015   9.763  22.996  0.2920 -0.1139 -0.1208
22716W        W78957  19.394  12.979  19.154  0.1575 -0.0679 -0.0436
22717W        W78958  29.687  22.516   6.597 -0.4452  0.1859 -0.4425
22718W        W78959  12.998   7.152  14.487 -0.1676  0.3226 -0.1372
22719W        W78960  30.579  22.858  17.360  0.1948  0.0497  0.0112
22720W        W78961  33.607   6.586   0.219  0.3619  0.0875  0.1508
22721W        W78962   1.436  32.646   1.183  0.1059  0.2712  0.0826
22722W        W78963  11.652  35.295  23.793  0.1052  0.3090 -0.1483
22723W        W78964  33.634  23.433  16.671  0.0487  0.0369  0.0667
22724W        W78965  11.452  13.898   6.138  0.2179  0.1796 -0.0084
22725W        W78966  27.864  29.830  22.938  0.1401 -0.2018  0.0145
22726W        W78967  11.861   5.852  20.243 -0.0119  0.0722 -0.1653
22727W        W78968  13.406  11.314  11.788 -0.1264  0.3750 -0.1696
22728W        W78969  19.434  29.299   1.307 -0.3404 -0.1321  0.0532
22729W        W78970  29.290  13.651   4.119  0.0755  0.0826  0.0404
22730W        W78971  31.082   0.901  16.594  0.1129 -0.0673 -0.0110
22731W        W78972  27.218  25.847  19.945  0.0353  0.0686 -0.0782
22732W        W78973  19.521  19.670  21.523  0.0176  0.0656  0.1530
22733W        W78974  24.271   2.858   0.778 -0.2181 -0.1269  0.1372
22734W        W78975  24.105  18.484  14.909 -0.0196  0.2181  0.0426
22735W        W78976  22.513  17.480  19.241 -0.1577 -0.2261  0.0197
22736W        W78977   7.828  30.354   3.712  0.0336 -0.1728  0.2052
22737W        W78978  35.239  18.638  13.817 -0.2038  0.0312 -0.0626
22738W        W78979  16.250  15.706   4.910  0.1078 -0.2516 -0.2258
22739W        W78980   3.416   3.153   1.287  0.3433  0.2632  0.1228
22740W        W78981  12.981   6.729  19.191 -0.0252  0.0589  0.2445
22741W        W78982   7.819  11.448  18.160  0.2050 -0.2161  0.0161
22742W        W78983  22.697  31.046  23.835 -0.0802  0.1719  0.0122
22743W        W78984  23.803  15.356  20.605 -0.3279  0.3000  0.0924
22744W        W78985  22.632  15.641  20.747  0.1244 -0.3212  0.0996
22745W        W78986   4.269  22.271  24.215  0.0880  0.1235 -0.1544
22746W        W78987  17.321  15.511   2.448 -0.2168 -0.0220 -0.0637
22747W        W78988   3.579  15.863  20.499 -0.0429  0.2009  0.0652
22748W        W78989  31.651  27.468  17.373 -0.2331 -0.2564 -0.0201
22749W        W78990  15.054  24.412  22.002  0.0606  0.1706  0.1970
22750W        W78991   0.967   6.243   1.565 -0.1508 -0.0475  0.1492
22751W        W78992  14.657  35.220   5.311 -0.0844  0.1758 -0.1088
22752W        W78993  32.879  27.225  21.977  0.0662 -0.0155 -0.0410
22753W        W78994  34.092  21.808  19.040  0.0283 -0.1105  0.1115
22754W        W78995  27.010  18.231  11.048 -0.4841  0.0253  0.0637
22755W        W78996  24.397  30.868  20.749 -0.0951  0.1847 -0.0142
22756W        W78997  19.211   6.660   5.427 -0.3395 -0.0921 -0.1790
22757W        W78998   0.697   1.964   1.080  0.2012 -0.0976 -0.3011
22758W        W78999  29.855  23.028  23.173 -0.0879  0.0448 -0.2578
22759W        W79000  27.966  27.750  15.471 -0.1147 -0.2043  0.2035
22760W        W79001  22.303  34.618   6.214  0.1925 -0.1293  0.1583
22761W        W79002  13.822  19.960   5.997  0.0548 -0.1436 -0.0199
22762W        W79003  32.519  12.162   6.508 -0.1914 -0.2536  0.2819
22763W        W79004   0.896  29.133   2.036 -0.1967  0.2697 -0.0661
22764W        W79005   6.136  24.499   1.426 -0.1511  0.1202 -0.1548
22765W        W79006  27.362  29.776  13.263  0.0508  0.0148 -0.3207
22766W        W79007  29.162  29.076   2.851  0.2350  0.6862  0.0610
22767W        W79008  18.273  28.839   0.636 -0.1818 -0.0770 -0.0136
22768W        W79009  27.394   1.386   1.629  0.2030 -0.2387  0.1807
22769W        W79010   8.901  24.413   9.771  0.1758  0.3072 -0.1700
22770W        W79011  11.824  20.665   3.319 -0.0112  0.0976  0.0747
22771W        W79012   2.128  34.907  21.319  0.0257 -0.0431  0.1401
22772W        W79013  25.555  22.555  16.164 -0.2245  0.2015 -0.1102
22773W        W79014  18.598   4.253   9.770  0.3413  0.3204  0.0591
22774W        W79015   6.357  14.375  23.379 -0.2340 -0.3545 -0.3540
22775W        W79016  20.594  25.248   2.802 -0.0237 -0.1165  0.0849
22776W        W79017  27.416  13.074  16.559 -0.5942  0.2101  0.1332
22777W        W79018  14.976   3.417   9.521  0.0028  0.0683  0.0875
22778W        W79019   9.158  16.004   7.176 -0.2723  0.1017 -0.0736
22779W        W79020  30.445  17.823  20.963 -0.0942  0.0233 -0.2444
22780W        W79021   4.971  18.143   1.225  0.4950  0.1838 -0.0667
22781W        W79022  12.913  11.023  25.195 -0.0120  0.1667  0.0727
22782W        W79023  10.867  23.505  24.384 -0.0081 -0.1293 -0.0213
22783W        W79024  21.306  26.518  21.091 -0.0293 -0.1756  0.1886
22784W        W79025   3.473  22.893  22.930  0.0518  0.1583 -0.2939
22785W        W79026  29.422  25.794   9.409  0.4665 -0.5019 -0.1457
22786W        W79027  17.197  12.391   9.216  0.2832 -0.0174  0.1112
22787W        W79028  19.061  32.225  24.098  0.1744 -0.0574 -0.2919
22788W        W79029   0.111   0.827  18.151  0.2341 -0.4275  0.1421
22789W        W79030   6.374   0.681  10.001 -0.1843 -0.0193 -0.1324
22790W        W79031  28.775   9.875  10.676 -0.0994 -0.2007  0.2012
22791W        W79032   0.838   0.139   5.454 -0.1435  0.1156  0.2781
22792W        W79033   4.961   7.563   1.673  0.1050 -0.0204  0.4761
22793W        W79034  31.626  14.308  14.050 -0.2755 -0.0117 -0.2862
22794W        W79035  19.556  27.235   6.293 -0.0388 -0.0331 -0.1682
22795W        W79036  13.431   1.906  20.241 -0.1379  0.3830  0.3523
22796W        W79037   9.091  33.564  24.725  0.2914  0.2657  0.0567
22797W        W79038   8.656  10.132  10.360 -0.4267 -0.0780  0.4684
22798W        W79039  33.111  25.873  15.339  0.1849  0.1492 -0.1454
22799W        W79040   3.361  15.051  22.122 -0.0920 -0.0615 -0.3137
22800W        W79041  27.749   2.339   0.578 -0.2807 -0.2742  0.0280
22801W        W79042  11.741  19.795  21.269  0.1908  0.0043  0.0155
22802W        W79043  25.022  27.905  25.345  0.1037 -0.0823 -0.0766
22803W        W79044  27.696  13.503   6.531  0.1455  0.1318  0.0193
22804W        W79045  35.203   1.358  15.622 -0.2305 -0.0462  0.0171
22805W        W79046  34.619  22.207  23.417 -0.2517 -0.1496  0.2160
22806W        W79047  30.888  13.494  15.285  0.3573 -0.1639 -0.0921
22807W        W79048   5.287  10.292  22.880 -0.2090 -0.0732  0.1262
22808W        W79049   2.853  29.303   8.176 -0.0891 -0.1353  0.1994
22809W        W79050  21.627  26.257  20.821  0.1941  0.1322  0.1617
22810W        W79051  34.084  28.822   1.012 -0.0665  0.0250 -0.1570
22811W        W79052  21.415  32.733  25.143  0.0173 -0.2551  0.1140
22812W        W79053  21.504   9.767  19.665  0.2952  0.1434  0.0069
22813W        W79054  19.570  30.666  20.365  0.0548 -0.3384 -0.0416
22814W        W79055  16.897  15.534  21.720  0.0931 -0.2281  0.0603
22815W        W79056  13.821   4.358  23.183 -0.3108  0.0803 -0.0595
22816W        W79057  30.066  18.367  26.130  0.1598 -0.0190  0.1178
22817W        W79058   4.327   1.240  20.601 -0.0177 -0.0617  0.0247
22818W        W79059  26.503   2.683  19.176  0.0288  0.3226  0.1924
22819W        W79060  14.903  22.925  23.582  0.0062 -0.2307 -0.0478
22820W        W79061  13.038  35.356   7.442 -0.0878  0.1708 -0.1117
22821W        W79062  15.981  27.308  12.325 -0.0144  0.0244 -0.0194
22822W        W79063  30.847  33.341  20.215  0.2777 -0.1337  0.0397
22823W        W79064   0.922   2.186  24.603  0.1573  0.0154  0.2328
22824W        W79065  26.654   4.165   2.548 -0.3011  0.3887  0.1819
22825W        W79066  21.473  32.679  21.386  0.0631  0.2813 -0.2569
22826W        W79067  10.649   5.720  25.584 -0.3624  0.0982  0.1539
22827W        W79068  14.394  26.503   5.072  0.1084  0.1823 -0.1029
22828W        W79069  26.003  10.780  11.597 -0.0831 -0.0390 -0.0005
22829W        W79070  33.444  34.926   3.527 -0.0308 -0.1921 -0.0085
22830W        W79071   8.494  12.979  21.429 -0.0738 -0.2545 -0.0186
22831W        W79072   6.130  11.484  23.636 -0.0562  0.0285 -0.2705
22832W        W79073   6.370   3.025  11.178  0.0818  0.0597 -0.1106
22833W        W79074  16.334  34.235  18.979  0.0384  0.1844 -0.1173
22834W        W79075  12.489  30.368   2.867  0.1555  0.0772 -0.3887
22835W        W79076   1.359   7.431  24.338 -0.1329 -0.0867 -0.2205
22836W        W79077  23.455   0.219   3.582 -0.0731  0.2736  0.2468
22837W        W79078  30.703  11.893  19.381 -0.1753  0.0466 -0.0003
22838W        W79079  30.985  21.764   6.655 -0.1646 -0.0263  0.1405
22839W        W79080  28.208  18.987  21.791  0.1601  0.1473  0.6302
22840W        W79081   2.654  30.720   4.620 -0.0075  0.1170 -0.0110
22841W        W79082   2.721  10.769   0.608  0.1435  0.0572  0.1459
22842W        W79083  17.679  17.027   2.349  0.2102  0.1772  0.0590
22843W        W79084  26.640   6.298  20.073 -0.0523 -0.3730  0.0975
22844W        W79085   6.660  27.014  20.873  0.0686 -0.2229 -0.0950
22845W        W79086  17.420  27.280   6.787  0.0878  0.0716 -0.1278
22846W        W79087  19.801  11.866   8.054 -0.3339  0.1915 -0.1001
22847W        W79088  10.135  18.761   3.371 -0.2310  0.2444 -0.1380
22848W        W79089  22.547  21.918  15.857 -0.0092 -0.1000  0.3139
22849W        W79090  13.339  26.618  16.337 -0.1246 -0.1116 -0.2875
22850W        W79091   0.744  30.715   2.241 -0.1749  0.0077 -0.0591
22851W        W79092  12.518   9.998  11.206 -0.0284 -0.2408  0.1117
22852W        W79093  31.219  21.706  11.652 -0.0883 -0.4631  0.1172
22853W        W79094   6.184  21.060   1.684  0.0214 -0.3413  0.0474
22854W        W79095  28.368   9.115   1.468 -0.3534 -0.2694 -0.2408
22855W        W79096  30.918  24.098   0.254 -0.1067  0.1359  0.0049
22856W        W79097  19.271  10.564  25.608 -0.1921 -0.1219  0.1997
22857W        W79098   0.005  10.128  22.884 -0.1758  0.3640 -0.0569
22858W        W79099  15.965   2.305   5.993  0.1860 -0.1918 -0.0599
22859W        W79100   4.309   6.933   7.738  0.0198 -0.1756 -0.2398
22860W        W79101  18.961   9.510  11.835  0.0622  0.3087 -0.2150
22861W        W79102  20.548  26.336   0.558  0.0150 -0.0511  0.0505
22862W        W79103  26.327  16.647  23.814  0.2643  0.0753  0.1060
22863W        W79104  21.615  21.826   4.465  0.0753 -0.2281  0.1940
22864W        W79105  10.153   9.436  13.330 -0.0470 -0.0852 -0.0193
22865W        W79106  18.443  27.912  21.381 -0.0705  0.0718  0.4008
22866W        W79107  22.504  25.902  24.435  0.3827 -0.0912  0.1886
22867W        W79108  25.940  33.930  15.711 -0.1085  0.0114 -0.0133
22868W        W79109   7.026  23.880  14.015  0.1529 -0.0262  0.0609
22869W        W79110  16.788  24.527  12.522  0.0213 -0.0952  0.0134
22870W        W79111  18.742  13.979  25.650  0.1281  0.1085  0.0130
22871W        W79112   3.703  26.711   8.652 -0.0793  0.1396 -0.0870
22872W        W79113  20.575  15.707  20.338 -0.0392 -0.2398 -0.3491
22873W        W79114  30.746  32.777  13.255  0.0137 -0.1311  0.0378
22874W        W79115  11.751  15.209   6.436  0.1216 -0.0919  0.0454
22875W        W79116  17.266   2.107   2.322 -0.2290  0.0663 -0.1813
22876W        W79117  24.631  25.110  23.742 -0.0009  0.0638  0.1458
22877W        W79118  13.254  15.134   3.352  0.0459 -0.2324  0.1534
22878W        W79119   8.289  33.082   2.298  0.1105 -0.2475 -0.1192
22879W        W79120  26.201   8.186  22.872 -0.0427 -0.0632  0.0774
22880W        W79121  26.792  15.345  21.201 -0.0401 -0.0237 -0.0980
22881W        W79122  34.674   6.311  17.316 -0.0321 -0.0231  0.2142
22882W        W79123   5.720  11.883  21.553  0.1262  0.0711 -0.1170
22883W        W79124  24.875   3.444   1.620  0.1113  0.0330 -0.0194
22884W        W79125   2.075  27.641  24.433 -0.0828 -0.0590 -0.0059
22885W        W79126  17.448  11.396   3.601  0.1059 -0.1375  0.1354
22886W        W79127  34.837  14.943  15.428  0.0750  0.0819  0.2170
22887W        W79128  10.213  25.499  16.406 -0.5959  0.0845  0.2232
22888W        W79129   0.868  13.937  16.997 -0.0177 -0.1010  0.0348
22889W        W79130   4.892   7.565   6.870  0.0464  0.0138  0.0090
22890W        W79131  28.296  16.070  13.302  0.0243  0.3323  0.1346
22891W        W79132   2.695  23.318   3.293  0.1339 -0.2203 -0.2220
22892W        W79133  34.420  24.666  13.956  0.2291 -0.2888  0.1568
22893W        W79134   2.543  27.344   7.628 -0.0433 -0.1060  0.5042
22894W        W79135   8.240  26.615   6.391 -0.1158  0.1403 -0.1208
22895W        W79136  29.677  25.989   9.026  0.2680 -0.0134 -0.0519
22896W        W79137   9.580  24.968   8.890 -0.1481  0.0203 -0.0759
22897W        W79138  13.176   7.371   5.988  0.0946  0.2425 -0.1005
22898W        W79139  24.297   7.394  25.190 -0.1437  0.1664  0.0941
22899W        W79140  31.205   8.932  11.748  0.2243  0.2518 -0.0635
22900W        W79141  34.662   3.188   2.377 -0.1807 -0.1612 -0.4462
22901W        W79142  34.172  20.557  19.738 -0.0075  0.2269 -0.0077
22902W        W79143  19.400  22.117  25.888 -0.0651  0.0983  0.0784
22903W        W79144  11.463  33.866  24.625 -0.2435 -0.2491  0.0719
22904W        W79145  18.602  12.885   6.927  0.2467  0.0422 -0.0790
22905W        W79146  34.918   7.228  24.538  0.3079  0.2680  0.1625
22906W        W79147  19.851   8.824   6.771  0.2048  0.1382  0.1418
22907W        W79148   7.610  24.473  12.541 -0.0563  0.2580 -0.0079
22908W        W79149   1.703  28.844   5.529 -0.1498 -0.1628 -0.1510
22909W        W79150  21.178   4.829  24.918  0.2377 -0.1200 -0.0631
22910W        W79151  18.248  18.417   8.840  0.1947 -0.0903  0.0099
22911W        W79152   9.372  20.075  14.324 -0.2633  0.2552  0.0872
22912W        W79153   0.629  34.398  15.870 -0.0531 -0.1758 -0.1571
22913W        W79154  22.765  13.684  14.164 -0.2939  0.2236 -0.1814
22914W        W79155  25.426  15.923  25.569 -0.1199 -0.0362  0.0786
22915W        W79156   1.675   7.143  25.042 -0.0408 -0.2578 -0.2977
22916W        W79157  12.695  28.349  13.336  0.0686 -0.1238 -0.0751
22917W        W79158   3.093   3.458  25.492 -0.1555 -0.1887  0.0837
22918W        W79159   0.598  32.938  25.786  0.1462  0.3839  0.0155
22919W        W79160  11.618   1.969   3.348  0.1427 -0.0961  0.1396
22920W        W79161   7.441   4.259  24.605 -0.0725  0.2075  0.2577
22921W        W79162  23.947   5.193   5.920 -0.3704 -0.1657 -0.0404
22922W        W79163  16.858   8.458   4.492  0.0994 -0.4663 -0.1265
22923W        W79164  21.805  21.298  18.325 -0.2042  0.1939  0.3606
22924W        W79165  13.626   7.543  13.863  0.0940  0.2603  0.0101
22925W        W79166  13.284   5.925  10.882  0.2146  0.0231  0.1722
22926W        W79167  33.937  34.556   6.857  0.5213  0.1602  0.0930
22927W        W79168   9.068  12.722   3.633 -0.0027  0.1680 -0.0634
22928W        W79169  21.214  34.313  15.292 -0.0501  0.0420  0.1152
22929W        W79170   3.577  34.231   1.675 -0.2029 -0.0832  0.0739
22930W        W79171  11.199   6.604  21.519  0.0890 -0.1888  0.0903
22931W        W79172   2.044   5.263  21.621  0.2434 -0.2225  0.0693
22932W        W79173  13.431  22.034  12.882 -0.0452  0.1276 -0.2540
22933W        W79174  25.138  32.696  12.609 -0.0237 -0.1819  0.2797
22934W        W79175   9.242  10.746  22.059 -0.0643  0.1624 -0.2339
22935W        W79176   0.761  10.724  17.222 -0.3662  0.5085  0.1022
22936W        W79177  31.721   9.483  11.886  0.1122 -0.0459  0.2105
22937W        W79178  17.674  31.552  20.594 -0.1230 -0.2775  0.0461
22938W        W79179  12.112  29.108  23.196  0.2531  0.0702  0.0445
22939W        W79180   7.092  15.392  17.651 -0.0759  0.1470 -0.0634
22940W        W79181  15.156   1.516   5.089  0.1202  0.0059 -0.2579
22941W        W79182  27.810  33.949   0.491 -0.0710 -0.3766 -0.1992
22942W        W79183  23.073   6.502  20.474  0.4332  0.0773  0.1619
22943W        W79184   7.756   8.101  20.567 -0.2427 -0.2941  0.2484
22944W        W79185  31.952   9.951  25.763  0.3340 -0.1772  0.3861
22945W        W79186  33.069  32.879  25.132  0.0688 -0.1710 -0.7338
22946W        W79187  13.360  14.512   8.764  0.1479  0.0566 -0.0969
22947W        W79188  34.043   3.947   5.733 -0.0776 -0.0354  0.0290
22948W        W79189  33.880  23.939  22.256  0.2355  0.0787  0.2438
22949W        W79190   1.021  16.654  15.211 -0.0483 -0.1202  0.1109
22950W        W79191  30.116   7.885   8.559 -0.3710 -0.0860  0.2500
22951W        W79192   2.121   0.063  21.920  0.1273  0.1224 -0.2071
22952W        W79193  30.682  31.722  19.347  0.1255 -0.2253 -0.0216
22953W        W79194  18.081  20.122  20.494 -0.0096 -0.1180  0.1628
22954W        W79195  33.535  11.692  15.614 -0.0913 -0.0414  0.0355
22955W        W79196  12.364   0.955  21.289 -0.1550 -0.3587 -0.2652
22956W        W79197  20.922   4.386  15.554 -0.0834  0.0166  0.0142
22957W        W79198  25.398  14.073  15.415 -0.0170  0.2266  0.0231
22958W        W79199  31.795  27.678   2.645 -0.1194 -0.2070 -0.0328
22959W        W79200  20.151  30.197   6.473  0.0130 -0.2153 -0.0070
22960W        W79201  11.671  15.780  23.081  0.0611 -0.0104 -0.1264
22961W        W79202  25.678  27.461   2.418 -0.0788  0.0708 -0.0837
22962W        W79203   7.523  28.869  25.382  0.2644  0.0035 -0.1987
22963W        W79204  13.185  27.027  11.871 -0.1181 -0.0076  0.2052
22964W        W79205  13.234  30.229  11.140 -0.1775  0.0658  0.0294
22965W        W79206  16.870   2.733   1.056  0.0695  0.1074  0.0604
22966W        W79207  16.215  30.407  25.846  0.0368  0.3601 -0.2958
22967W        W79208  31.938   5.049  13.362  0.0736  0.1826 -0.2614
22968W        W79209  23.965   0.112   2.649  0.0583  0.2609 -0.2005
22969W        W79210  12.300   7.691  10.550 -0.0477 -0.0686 -0.2061
22970W        W79211   1.726  13.295   0.069  0.0979  0.0895  0.1547
22971W        W79212  26.758  28.513  11.637 -0.1705 -0.2821  0.1818
22972W        W79213   3.377  29.091  12.487  0.1193 -0.2495  0.0969
22973W        W79214   7.560  30.669  12.071  0.5347  0.0135  0.1375
22974W        W79215  13.240   3.739  23.569 -0.1781 -0.2859  0.0323
22975W        W79216   4.865  26.503  21.623 -0.0902  0.2206 -0.2207
22976W        W79217  20.640  30.405   0.582 -0.1628  0.4461  0.0635
22977W        W79218   7.973   6.854  25.513  0.0721  0.0311  0.2264
22978W        W79219   5.814  23.103   9.035  0.1728  0.0696 -0.1040
22979W        W79220  27.105   3.439   3.099  0.0087  0.2539  0.2400
22980W        W79221  23.917  22.208  21.815 -0.2210  0.1791  0.4768
22981W        W79222  17.735  30.127  22.612 -0.1095  0.0138  0.1019
22982W        W79223  14.342   9.602  20.025  0.0997  0.0550 -0.2287
22983W        W79224  31.840  24.889  11.785 -0.1624  0.0085  0.0706
22984W        W79225  17.850  32.945   9.426 -0.2894 -0.3714  0.2014
22985W        W79226  25.519  14.979  25.310 -0.0653  0.4762 -0.1093
22986W        W79227  34.399  34.524  22.436 -0.2280 -0.0962  0.0444
22987W        W79228  21.947  13.278   2.536 -0.3041  0.0044  0.3172
22988W        W79229   9.348  25.087   3.777 -0.0924  0.0299 -0.1146
22989W        W79230   8.787  23.761  16.652 -0.2643 -0.2697  0.1415
22990W        W79231  33.268  20.766  12.240 -0.1622 -0.1698 -0.0481
22991W        W79232  19.159   7.227  20.992  0.0825 -0.0312 -0.0630
22992W        W79233   6.060   8.431   4.202  0.0808 -0.2959 -0.2475
22993W        W79234  26.028  24.614  11.829  0.1019 -0.0419 -0.0636
22994W        W79235   6.902  33.483   6.823 -0.2400  0.0784 -0.0078
22995W        W79236   2.506  20.470   2.428  0.3539  0.0477  0.4647
22996W        W79237   0.238  22.028  11.857 -0.0027 -0.0361 -0.0811
22997W        W79238  27.181  31.486  20.063  0.1594 -0.0835 -0.3419
22998W        W79239  28.120  22.021   8.300 -0.0439 -0.0874  0.1358
22999W        W79240   2.189   9.046  23.862  0.0022 -0.0354  0.3110
23000W        W79241  24.397  11.552  13.479 -0.0644 -0.2211 -0.0850
23001W        W79242  28.884   9.592   9.275 -0.0096 -0.1202  0.2010
23002W        W79243  30.762  16.513  19.722 -0.1074 -0.3815 -0.2047
23003W        W79244   9.684  11.132   5.778 -0.0985  0.2063 -0.0987
23004W        W79245  20.462  15.719  19.033 -0.1870  0.3981  0.2008
23005W        W79246   0.326  30.550  19.248 -0.2558  0.0256 -0.1146
23006W        W79247  25.548   7.315  10.676  0.2593 -0.1262 -0.0604
23007W        W79248  33.979  34.867   0.490  0.0517 -0.0999  0.1621
23008W        W79249  25.272  18.149  14.782  0.2469  0.2277 -0.2552
23009W        W79250  26.515  34.960   4.221  0.1429 -0.2289 -0.1835
23010W        W79251  10.138   1.355  11.612  0.0004 -0.2642 -0.0469
23011W        W79252  22.357  15.600  15.528 -0.2496 -0.0965 -0.2220
23012W        W79253  28.015   6.397   9.721  0.3179  0.2959  0.3734
23013W        W79254  28.065  34.408   1.781 -0.0505 -0.0903 -0.0295
23014W        W79255  13.232  28.145  12.197 -0.0437  0.0139 -0.0941
23015W        W79256  14.794  12.538  10.621  0.2730  0.1008  0.0143
23016W        W79257  26.183  29.417   5.456  0.1063 -0.1648  0.1696
23017W        W79258   6.832   9.012   1.010 -0.3038 -0.0932 -0.1285
23018W        W79259  17.164  35.332  24.909 -0.2469 -0.1854  0.0394
23019W        W79260  34.982  21.863  16.757  0.0135 -0.0646 -0.1904
23020W        W79261  24.910  21.723   0.348  0.3730  0.0975 -0.0322
23021W        W79262  28.030  18.138  23.834 -0.2023 -0.0038  0.1262
23022W        W79263   3.738  12.641   1.318 -0.0896 -0.3680 -0.0707
23023W        W79264  11.480   6.351  20.167 -0.0053  0.1366  0.2048
23024W        W79265  29.564  19.851  10.410 -0.1533  0.1248  0.2258
23025W        W79266  34.958  28.515  21.805  0.0445 -0.1631 -0.1350
23026W        W79267  18.228  29.352  19.046  0.0500 -0.1622 -0.2375
23027W        W79268   8.884   8.874  21.649 -0.1637  0.1439  0.0828
23028W        W79269  34.979  31.756  14.365  0.3015  0.0147  0.1194
23029W        W79270  18.320  12.309  11.422 -0.1599 -0.0678 -0.1279
23030W        W79271   1.376  10.529   2.369 -0.2683 -0.1319 -0.1249
23031W        W79272  17.680  10.970   1.915  0.1112 -0.3648 -0.3142
23032W        W79273   7.687   2.425  14.337 -0.1195 -0.0754  0.3243
23033W        W79274  26.743  30.885   5.422  0.0933  0.2669  0.1018
23034W        W79275   9.279  31.700  12.856  0.0571 -0.1674  0.0553
23035W        W79276  14.155  16.368  20.301 -0.1795  0.0394  0.1873
23036W        W79277   5.998   0.603   6.912 -0.2661  0.2790  0.0997
23037W        W79278   7.723  30.504   9.162 -0.0248 -0.0540 -0.2479
23038W        W79279  14.609  25.379  16.063  0.0716 -0.0989  0.0160
23039W        W79280   0.430  28.795   2.328 -0.3019  0.1342  0.1366
23040W        W79281  31.882   7.898  22.613  0.0568  0.0751  0.0886
23041W        W79282   1.303   1.670  21.767  0.1993  0.0464 -0.0837
23042W        W79283  34.754  17.841   9.387  0.0850 -0.2454  0.1479
23043W        W79284  10.600  15.456  10.299  0.1935  0.4786  0.1836
23044W        W79285   4.216  34.236  20.527  0.0554 -0.1834 -0.2845
23045W        W79286   7.607  21.074   1.619 -0.2473  0.3066 -0.2875
23046W        W79287  21.358   6.594   7.362  0.1185 -0.0188 -0.1821
23047W        W79288  29.786  12.113   6.504  0.1246 -0.1128 -0.0319
23048W        W79289  27.265   9.018  23.007 -0.2972 -0.0000 -0.4578
23049W        W79290  14.404  19.139  23.838  0.2133  0.0510 -0.0001
23050W        W79291  17.754  17.886   7.380  0.0013 -0.1446  0.3048
23051W        W79292  35.361  23.516  20.745  0.0977 -0.1151  0.1664
23052W        W79293  14.569  18.964  24.623 -0.0867 -0.0928  0.0274
23053W        W79294   5.957  14.540   4.038 -0.3100  0.1991  0.3631
23054W        W79295   4.124  13.321  26.169  0.2655 -0.0743 -0.0285
23055W        W79296  12.323   3.245   1.228  0.0768  0.3034  0.1364
23056W        W79297  15.836   4.351  10.483  0.2317  0.0027  0.3792
23057W        W79298  16.223  20.639  13.060 -0.3204 -0.0642 -0.0618
23058W        W79299   3.490  15.757  21.011  0.1254 -0.1856  0.1793
23059W        W79300   6.952  31.610   1.666  0.0336 -0.1236 -0.0521
23060W        W79301  32.656  31.984  17.985 -0.0051 -0.0113  0.2467
23061W        W79302  25.892  13.181  12.791  0.0486 -0.0339 -0.0364
23062W        W79303  17.716  23.638  13.131 -0.2398  0.1051  0.2652
23063W        W79304  22.177   6.962   2.276 -0.2188 -0.1776 -0.0908
23064W        W79305  20.726  32.360   0.284 -0.1921 -0.0332  0.1408
23065W        W79306  14.931   3.676  25.550 -0.2336 -0.2971 -0.1831
23066W        W79307  20.865  23.025   2.682 -0.0088  0.1533 -0.1599
23067W        W79308   9.249  27.147  25.502 -0.1556 -0.2667  0.3155
23068W        W79309  23.876  27.968  15.572  0.1034 -0.1130  0.2767
23069W        W79310   9.591  13.920   3.954  0.0961  0.1004  0.0124
23070W        W79311  20.141  17.100  18.324 -0.2211  0.1660  0.0758
23071W        W79312  32.396  19.463   7.086 -0.1163 -0.1284  0.2271
23072W        W79313   3.786  23.555  19.261  0.0296 -0.0003 -0.1023
23073W        W79314  26.993  28.705   2.767  0.2704  0.1550  0.0474
23074W        W79315  23.950  31.286  14.903  0.2274 -0.1859  0.1556
23075W        W79316   7.395  19.191  26.202  0.3109  0.0639 -0.3785
23076W        W79317   7.805   4.588   3.372  0.1813 -0.1409 -0.0058
23077W        W79318   8.818   5.076   9.678  0.1424 -0.0398  0.1695
23078W        W79319   2.418  29.925  23.066  0.0378 -0.0449  0.0159
23079W        W79320  12.108   9.276   7.600  0.2352 -0.0235 -0.1206
23080W        W79321  28.784  26.840  21.785 -0.0719  0.1452  0.2089
23081W        W79322   8.249  30.486  24.900  0.1767 -0.0257 -0.1733
23082W        W79323  25.577  21.362  20.156  0.1790  0.0776 -0.1388
23083W        W79324  12.444  26.170   6.922 -0.0017 -0.0108  0.2009
23084W        W79325  26.592   3.202  10.533  0.1426  0.0224  0.0771
23085W        W79326  28.473  25.937  10.782  0.0258  0.0980  0.0759
23086W        W79327  21.800  10.760  22.778  0.2594 -0.0694  0.0165
23087W        W79328  18.977  33.610  21.042 -0.1892  0.2437 -0.1095
23088W        W79329   2.148   7.389   6.710  0.0334  0.2246  0.1454
23089W        W79330  15.328   7.605   4.325 -0.1888  0.1653 -0.1626
23090W        W79331  21.831  28.913  16.360  0.2248  0.1176  0.4773
23091W        W79332  11.173  16.374   3.124  0.2797  0.0238 -0.0203
23092W        W79333  34.425  20.981  14.379 -0.0240  0.0339  0.0510
23093W        W79334  12.873  21.464  26.075 -0.0279 -0.4089  0.1079
23094W        W79335  18.769  14.540   2.864 -0.1899  0.0711  0.0427
23095W        W79336  10.400  13.319  13.174  0.0953  0.0219  0.0505
23096W        W79337  25.227  34.038  20.382  0.2619  0.0302 -0.1741
23097W        W79338  12.513  22.019  12.567 -0.0045  0.0096 -0.3991
23098W        W79339  19.362  29.722  24.687  0.0153  0.0598 -0.0369
23099W        W79340  11.225  20.853  11.064 -0.4148  0.1916 -0.1085
23100W        W79341  13.049  10.246  19.225 -0.0511 -0.1331 -0.0128
23101W        W79342  25.160  16.727  12.707  0.0032  0.5429  0.4486
23102W        W79343   3.829  25.902  22.665  0.1942 -0.0457 -0.1458
23103W        W79344  28.075  30.886  14.415  0.0035  0.2976 -0.0062
23104W        W79345   8.898  35.381   0.255  0.0517 -0.1050 -0.1826
23105W        W79346  19.850  10.513  23.457 -0.0004 -0.0582  0.0215
23106W        W79347  18.534   4.386  25.058 -0.0604 -0.3131 -0.1806
23107W        W79348  16.532  27.109   1.991 -0.1608 -0.1330 -0.0544
23108W        W79349  10.289  26.702  16.098 -0.0740 -0.0735 -0.0104
23109W        W79350  19.274  34.674   8.212  0.0026  0.0597 -0.2010
23110W        W79351  27.519  23.773   9.971  0.2669 -0.0051  0.1596
23111W        W79352   8.349  20.200  23.627  0.2048 -0.3375 -0.0681
23112W        W79353  26.288  30.456   3.027  0.2994  0.3847  0.2117
23113W        W79354   8.862  24.217  25.636 -0.3305  0.0357  0.2795
23114W        W79355  32.982  17.061  21.704  0.1067 -0.1894  0.0424
23115W        W79356  15.411   2.709  20.141  0.0626  0.0012 -0.2349
23116W        W79357  13.514   6.381  11.265 -0.1944 -0.0279 -0.0924
23117W        W79358   5.893  11.276   6.648  0.0902  0.2626 -0.0166
23118W        W79359   9.006  34.392   4.512 -0.1012  0.1978 -0.1307
23119W        W79360  12.193   6.748  11.634  0.1853  0.0987 -0.0630
23120W        W79361  28.374   3.567  13.560 -0.1908 -0.1708  0.2544
23121W        W79362  21.166  21.039  22.716  0.0038 -0.0296 -0.0452
23122W        W79363  32.755   1.159  25.960 -0.0166  0.1569 -0.1005
23123W        W79364  11.320   3.371  12.371 -0.0670 -0.1458  0.0185
23124W        W79365   7.430  15.193  10.488 -0.2848 -0.0013  0.0961
23125W        W79366  29.646  20.869   5.393 -0.5314 -0.0402  0.1012
23126W        W79367  28.004  24.441  22.261  0.1500 -0.1994 -0.1091
23127W        W79368  29.127   8.777  13.813  0.1271  0.0183 -0.0582
23128W        W79369  21.068   9.249   4.709  0.2051  0.0673 -0.0063
23129W        W79370   1.389   8.575  22.289 -0.0303  0.0457 -0.1301
23130W        W79371  15.839  18.729  24.114 -0.0729  0.1231 -0.1437
23131W        W79372  11.948  17.412  22.948 -0.0789  0.0064  0.0373
23132W        W79373  20.742  10.266   6.796 -0.0516 -0.0080  0.2621
23133W        W79374  30.536   2.193   0.751  0.0932  0.0884  0.1185
23134W        W79375  13.214  23.478   4.616 -0.1779 -0.0654  0.0812
23135W        W79376  19.258  32.739   5.248 -0.0141 -0.0506 -0.1836
23136W        W79377  22.888   0.994  25.837  0.1625 -0.0020  0.0885
23137W        W79378  14.006  22.776   6.427  0.1768  0.0496  0.2455
23138W        W79379   2.123   9.998  19.071  0.3086  0.1644  0.1475
23139W        W79380  28.257  16.886  15.832  0.1776  0.0900  0.3215
23140W        W79381  35.114  16.826  18.031 -0.1134  0.3199  0.0010
23141W        W79382  19.762  34.640  14.810  0.0129  0.1234 -0.0453
23142W        W79383  10.131  10.175  25.081 -0.2578 -0.2755 -0.1824
23143W        W79384   1.085   9.370   3.672 -0.0508  0.1379  0.2357
23144W        W79385  27.633  28.165  12.063  0.0021  0.3122  0.3893
23145W        W79386   4.401  25.180   6.803 -0.0726  0.1770 -0.0063
23146W        W79387  18.922  32.539   0.854  0.0699 -0.0492  0.0835
23147W        W79388  27.973  26.201   1.854  0.3476  0.0183  0.3949
23148W        W79389  10.841  17.165   0.317 -0.2182 -0.0975 -0.2601
23149W        W79390  23.529  33.075  16.083 -0.1105 -0.4227 -0.2110
23150W        W79391   7.497   0.178  25.275  0.3179  0.0690  0.0150
23151W        W79392  13.387   4.476   1.778 -0.1459 -0.2525  0.3097
23152W        W79393  12.564  32.114  24.582  0.3137 -0.0191  0.0844
23153W        W79394  19.006  20.410   2.149 -0.2904  0.3398 -0.0898
23154W        W79395  21.850  24.129  17.348  0.0659  0.0911 -0.1210
23155W        W79396  21.093  25.742  19.935 -0.1472  0.1186 -0.0956
23156W        W79397  10.580  11.545  13.299  0.1419  0.2684 -0.1377
23157W        W79398  18.109  17.419  21.336  0.0474  0.0686  0.1632
23158W        W79399  10.873   8.949   1.302 -0.1120 -0.3047  0.2524
23159W        W79400  31.729  30.998   0.615  0.1195 -0.0889 -0.0589
23160W        W79401  16.888  31.280   8.671  0.0927 -0.1694  0.0981
23161W        W79402   1.659  17.282  21.959 -0.0205 -0.0300 -0.3560
23162W        W79403  28.197  32.298  11.389  0.1486 -0.2271 -0.1594
23163W        W79404  28.855  15.402  16.731  0.0233 -0.1125 -0.0141
23164W        W79405  33.977  11.254  23.529  0.0808 -0.0714 -0.0781
23165W        W79406  13.261  32.522  25.903 -0.0587 -0.2471 -0.1244
23166W        W79407  22.119   8.147   5.753  0.1179  0.2263 -0.1914
23167W        W79408  12.257  32.343   1.670  0.0671  0.0067  0.2344
23168W        W79409   5.574  32.665   8.486 -0.0137 -0.2912 -0.0332
23169W        W79410   9.903  13.101   1.731  0.0418 -0.3354 -0.2901
23170W        W79411  32.980  23.156  22.125  0.0737  0.1316  0.1826
23171W        W79412  23.092  14.262  24.290 -0.1337  0.4188  0.0115
23172W        W79413   9.659   7.152  24.773 -0.1772  0.0229  0.1002
23173W        W79414  13.318  15.031   2.818 -0.0328  0.0874  0.0242
23174W        W79415  20.147  28.223   4.414 -0.0430 -0.3227 -0.5345
23175W        W79416  23.372  26.873  18.611  0.1176 -0.1816 -0.1239
23176W        W79417  21.976  25.822  15.300  0.4271 -0.1335 -0.0144
23177W        W79418  21.964   3.706  21.449  0.0254 -0.2120 -0.1477
23178W        W79419  34.473  18.793  13.218 -0.0852 -0.1967  0.2926
23179W        W79420  28.127  32.602  13.435 -0.0465  0.0591  0.1961
23180W        W79421  25.825  10.884  14.605 -0.2307 -0.0021  0.0587
23181W        W79422   5.329  14.513   1.259 -0.3955  0.0959 -0.0496
23182W        W79423  32.059  21.345  15.500 -0.2059  0.0589  0.0400
23183W        W79424   0.822   3.027  21.122 -0.1179 -0.0247 -0.1820
23184W        W79425   2.531  20.128   4.340  0.0209 -0.2199 -0.0075
23185W        W79426   8.926   8.202   1.139  0.1896  0.0613 -0.0664
23186W        W79427   4.414  11.869   1.543 -0.0664  0.0470 -0.1216
23187W        W79428   0.560  28.678  26.192  0.3787  0.0908 -0.0083
23188W        W79429   4.871  16.941  22.301  0.0634  0.0464 -0.3770
23189W        W79430  15.551  27.073  12.352 -0.0506  0.0355 -0.1456
23190W        W79431  24.836   3.320  13.575 -0.0697 -0.0252 -0.0894
23191W        W79432  33.361  24.518  20.964 -0.3022  0.0036  0.3154
23192W        W79433   9.927   5.987  13.673 -0.2108 -0.1558  0.1803
23193W        W79434   4.738  27.641  10.325  0.1257 -0.3878 -0.1206
23194W        W79435   6.242  17.498   0.622 -0.0757 -0.0727 -0.0822
23195W        W79436  23.715  34.785   5.699  0.2212  0.0653  0.1112
23196W        W79437  33.635   4.059  21.174  0.1437 -0.2814  0.1125
23197W        W79438  32.482  20.848  14.534  0.1850  0.2423  0.1182
23198W        W79439  31.968   2.084  13.628 -0.0011 -0.0343 -0.0985
23199W        W79440   7.960  25.788  13.546 -0.0856  0.0717 -0.2457
23200W        W79441   2.356  24.018  16.648 -0.0777  0.4327 -0.2131
23201W        W79442  35.285   3.138   6.031 -0.1051  0.0899  0.1253
23202W        W79443  33.694   6.268  18.302 -0.1506 -0.2764 -0.2417
23203W        W79444   7.155  34.043  10.582 -0.0459 -0.3695  0.0691
23204W        W79445  28.858  17.247  16.975 -0.1135 -0.2165  0.1205
23205W        W79446  27.581   1.159  16.052 -0.1199 -0.0642 -0.3792
23206W        W79447   3.911  10.301   0.420 -0.0051  0.4370  0.1936
23207W        W79448  29.671   4.474  20.356 -0.0468  0.1403  0.1798
23208W        W79449  11.353  21.415   5.798 -0.1104  0.1108 -0.0151
23209W        W79450  30.427  29.430  16.678 -0.2490 -0.2516  0.3607
23210W        W79451  28.412   2.174  17.931 -0.2214  0.0472  0.3019
23211W        W79452   5.065  20.085  25.829 -0.2720 -0.3257  0.1072
23212W        W79453  11.526   0.067   6.984  0.2335 -0.1039  0.0141
23213W        W79454   5.842   5.345  21.721 -0.0365  0.0108 -0.2772
23214W        W79455  25.856  19.517  20.373  0.2861 -0.0425  0.0983
23215W        W79456   4.436  21.421   4.487  0.0500  0.1397  0.0554
23216W        W79457   2.403  16.014  20.861 -0.2039  0.0096 -0.3824
23217W        W79458  26.307  25.991  24.322  0.0005  0.3124  0.3027
23218W        W79459  17.655  11.672   9.646 -0.0671  0.1503  0.3240
23219W        W79460  16.720  16.751  12.959  0.0530 -0.1811  0.2776
23220W        W79461  30.272  18.526  19.409  0.0881 -0.2354  0.1601
23221W        W79462   8.514  33.655   6.455  0.2279  0.1054 -0.2452
23222W        W79463  32.451  14.311  16.289 -0.3014 -0.1141 -0.1574
23223W        W79464   7.634  11.629  10.868 -0.1280 -0.1389  0.0458
23224W        W79465  19.634   4.973   3.111  0.4293  0.2089  0.1876
23225W        W79466  12.008  24.174   4.361  0.2418  0.0687 -0.1045
23226W        W79467  33.520  11.846   8.033 -0.0770 -0.4440 -0.1163
23227W        W79468  21.608  17.733  22.362  0.1987 -0.1160 -0.0608
23228W        W79469  10.343  25.214   3.605  0.1357  0.1377  0.3750
23229W        W79470   8.604  10.553  18.374  0.0832 -0.0592  0.2869
23230W        W79471  34.845   5.858  13.306 -0.2678 -0.3684 -0.1028
23231W        W79472  19.161  31.443  23.667  0.0320 -0.1087 -0.0152
23232W        W79473   5.357   7.301   1.938 -0.1520 -0.0664  0.2811
23233W        W79474  12.894  11.352  11.474 -0.0562 -0.0063 -0.1807
23234W        W79475   6.893  20.193   6.023 -0.2624 -0.0982  0.2993
23235W        W79476   6.398  15.744   4.538  0.0424 -0.1713  0.0610
23236W        W79477  25.309  14.321  23.262 -0.1308 -0.3932  0.0003
23237W        W79478  18.655  25.796   5.685  0.0385  0.0423 -0.0182
23238W        W79479   6.506  13.181   1.507  0.2277  0.1572  0.3908
23239W        W79480  16.895  30.917  25.558 -0.1203 -0.3165 -0.0390
23240W        W79481  16.320   0.244   3.332 -0.0170 -0.1551 -0.0187
23241W        W79482  34.025  29.219   6.212  0.2103  0.1732  0.0879
23242W        W79483   0.412   0.060   0.788  0.0872  0.1615  0.0106
23243W        W79484   1.922  10.231  23.984 -0.0952 -0.0094 -0.2064
23244W        W79485  26.861  32.755   1.793  0.4314 -0.4208  0.1053
23245W        W79486  21.598  24.135   2.533 -0.1250  0.3928 -0.2177
23246W        W79487   6.541  22.690   6.383  0.2046 -0.0720  0.1536
23247W        W79488  18.734  12.972   8.092 -0.0733 -0.0683 -0.2967
23248W        W79489  33.772   3.000  21.844 -0.2220  0.1601  0.4341
23249W        W79490  14.513  32.549  11.523 -0.2794 -0.0460  0.2546
23250W        W79491   7.638  27.252  24.069  0.0586 -0.1523 -0.0787
23251W        W79492  29.400   8.127  13.811  0.0158 -0.1810  0.0486
23252W        W79493  24.740   6.701  14.466  0.0573 -0.4436  0.1532
23253W        W79494  21.822   4.642  23.181  0.0752  0.1473  0.3428
23254W        W79495  18.316   6.985  25.253  0.0506  0.0819  0.0292
23255W        W79496  30.614  24.945  17.654  0.0152 -0.0312 -0.1826
23256W        W79497  15.461  31.321   7.051  0.0846 -0.1897 -0.5701
23257W        W79498   0.046  33.731  21.703  0.0397 -0.0938 -0.2050
23258W        W79499  26.380  34.145   4.682  0.3007  0.0613  0.0445
23259W        W79500  20.573   5.091   1.001 -0.0224 -0.0052  0.2025
23260W        W79501  19.188  16.381   8.351  0.0079  0.0915 -0.1616
23261W        W79502  29.850  24.104  23.957 -0.2893 -0.0093  0.0441
23262W        W79503  32.982   0.934  24.482 -0.2490  0.3563 -0.0672
23263W        W79504   3.114   4.876  18.902  0.1504 -0.2711  0.0324
23264W        W79505  31.852  23.492  15.372 -0.0019 -0.3791 -0.0503
23265W        W79506   4.415   9.519  17.104 -0.1035 -0.1541  0.2019
23266W        W79507  21.870  22.182  24.897 -0.2251 -0.0356 -0.5401
23267W        W79508  28.384  25.851  17.518 -0.0242 -0.1213 -0.2992
23268W        W79509  15.967   5.517   9.061  0.1030  0.0906 -0.2785
23269W        W79510  15.844  15.356   1.964 -0.0294  0.0486  0.0209
23270W        W79511  10.170  24.330  17.645  0.1150 -0.0802  0.1587
23271W        W79512  26.455  27.566  14.464  0.0889 -0.1995 -0.1169
23272W        W79513   2.779  29.253  19.350  0.1450 -0.0434  0.0627
23273W        W79514  17.660  18.443  10.491 -0.0125  0.0872  0.2800
23274W        W79515  30.926   4.476   4.243  0.1174  0.1932  0.2019
23275W        W79516  28.440  22.750  24.951  0.0945  0.0221 -0.0594
23276W        W79517   9.081  17.753  19.905 -0.0165 -0.0588  0.1876
23277W        W79518  12.113  28.011   1.668 -0.0057 -0.0472  0.2221
23278W        W79519   9.857  33.136  14.171  0.2771 -0.0176  0.1202
23279W        W79520   7.613  18.869  24.722  0.0993  0.0494  0.0316
23280W        W79521  21.325  11.989   2.057  0.1111  0.1240  0.0621
23281W        W79522  32.392  30.578   1.976 -0.2379  0.2106  0.2687
23282W        W79523   5.462  30.762   8.374 -0.2373  0.1036 -0.1935
23283W        W79524   1.825  32.492  24.113 -0.2824  0.0930 -0.1147
23284W        W79525  25.036  27.796   2.962  0.2628  0.3293 -0.2047
23285W        W79526  18.548   1.688  24.620 -0.1935 -0.2601  0.0129
23286W        W79527  27.421   4.846   1.275  0.0339 -0.2446  0.0400
23287W        W79528  27.517  30.328  11.955 -0.2161  0.0016 -0.0075
23288W        W79529  15.381  20.398  11.149 -0.5700 -0.0628 -0.1124
23289W        W79530  18.988  15.289  17.930  0.0499 -0.1430 -0.1129
23290W        W79531  13.970   5.944  12.504 -0.2523 -0.1024  0.0068
23291W        W79532  30.076  18.924  23.839 -0.0461  0.3382 -0.0279
23292W        W79533  24.932   0.082  18.332  0.1413 -0.0794 -0.0551
23293W        W79534  34.367   1.119   2.606  0.1841  0.0887  0.0212
23294W        W79535  33.080  22.520   9.307 -0.2208  0.0383  0.0843
23295W        W79536  31.828  34.920  23.571  0.2341  0.3047  0.2437
23296W        W79537  29.159   7.541  10.620 -0.2396  0.4958 -0.1929
23297W        W79538  17.049  17.646  10.217 -0.0824  0.0795 -0.0748
23298W        W79539  11.035  24.846   2.513  0.0397  0.2216 -0.0248
23299W        W79540   2.868  23.393   0.397  0.1649 -0.0035  0.0578
23300W        W79541  19.361  20.144   4.177 -0.4811  0.1209  0.0266
23301W        W79542  30.615   8.838  13.863  0.0320 -0.1271  0.0327
23302W        W79543   0.824  20.482  11.228  0.2555  0.3050 -0.1374
23303W        W79544   4.841  24.363   3.482  0.1311  0.2633 -0.2346
23304W        W79545  26.722  35.197   5.786  0.2677 -0.1487  0.1484
23305W        W79546   4.461  16.807   0.833 -0.0728 -0.0711  0.2153
23306W        W79547  21.990  33.203  16.963 -0.2428  0.0465 -0.4275
23307W        W79548  14.154  10.931   2.613 -0.2219  0.2000  0.2149
23308W        W79549  31.035  22.198   6.397  0.2181  0.2869  0.0062
23309W        W79550  30.555   2.320  20.455 -0.1717  0.0861  0.1427
23310W        W79551   6.281   4.886  10.620 -0.2337 -0.0731  0.1023
23311W        W79552   3.075  10.517   6.772  0.0388 -0.3206  0.0417
23312W        W79553   0.876  25.260  17.135  0.0937  0.1005  0.2518
23313W        W79554  32.889  30.775   2.113  0.1708  0.2270 -0.0986
23314W        W79555  11.516  30.248   7.140 -0.2279  0.0668 -0.1984
23315W        W79556  29.340  22.433  12.045  0.2357  0.2127 -0.2147
23316W        W79557  16.792  19.107  26.051  0.1316 -0.3489  0.2330
23317W        W79558  10.252   8.028   1.060 -0.0693 -0.2495  0.0299
23318W        W79559  14.508   0.420  11.794  0.1526  0.3109  0.1319
23319W        W79560  33.134  12.144  19.242  0.0079  0.2393 -0.0872
23320W        W79561  30.982  19.182  12.984 -0.1148 -0.3257  0.0128
23321W        W79562   2.020  17.448   2.644 -0.1607  0.1716  0.0769
23322W        W79563  11.810  34.809   0.949  0.0366 -0.3742  0.2855
23323W        W79564   0.569  26.816  16.295  0.0988  0.0306 -0.3903
23324W        W79565  18.832  11.937   0.386  0.1093 -0.2837 -0.1414
23325W        W79566  17.533  21.833  14.679  0.1270 -0.4458  0.0149
23326W        W79567   7.608  30.891   0.102 -0.1347 -0.1944 -0.2728
23327W        W79568  34.530  33.710   4.429  0.0354  0.0884 -0.3254
23328W        W79569   8.989  22.050   9.863 -0.2480  0.3076 -0.3468
23329W        W79570  31.655  12.559   9.203 -0.1662  0.1247 -0.1794
23330W        W79571  11.305   1.898   6.886  0.0238 -0.0562 -0.0812
23331W        W79572  31.298  27.390   0.807 -0.0398 -0.1279 -0.0091
23332W        W79573  31.309  34.262  20.759  0.1088 -0.0190 -0.1872
23333W        W79574  17.285  29.108   8.205 -0.1936  0.0364  0.0442
23334W        W79575  23.656  15.900  14.039  0.2942 -0.0969 -0.1248
23335W        W79576  16.906  20.043  21.636 -0.1045  0.2611  0.1864
23336W        W79577  17.248   5.515   9.253 -0.0122 -0.0956  0.2011
23337W        W79578  27.304  18.211   8.871 -0.2260 -0.1034  0.5180
23338W        W79579  27.069  17.145  21.657 -0.0716  0.1218 -0.1511
23339W        W79580  16.457  32.058   6.606  0.4842  0.0104 -0.0327
23340W        W79581  14.434  21.495  14.412 -0.0136 -0.0234 -0.2568
23341W        W79582  24.188  32.628  15.611  0.0852 -0.0540  0.0685
23342W        W79583   8.431   0.950   3.357 -0.3153  0.2595 -0.1377
23343W        W79584  16.554  27.365  20.819 -0.1660  0.1676  0.3389
23344W        W79585  14.620  22.109  11.808 -0.0300  0.1491  0.1213
23345W        W79586   1.486  24.118  23.751  0.1569 -0.1444  0.2643
23346W        W79587   0.604  23.573  15.076 -0.2493 -0.1528 -0.1104
23347W        W79588   5.756  23.070   1.511  0.0501 -0.4000  0.0788
23348W        W79589  30.018   8.926  14.244 -0.0834 -0.1456 -0.2028
23349W        W79590  14.748  19.699   6.489 -0.1865 -0.1071  0.3088
23350W        W79591  25.160  20.556  21.667  0.2570  0.1480  0.1112
23351W        W79592  20.296  22.029   9.148 -0.2102  0.1640  0.0965
23352W        W79593  16.150   4.034   3.676 -0.1396  0.0409  0.0410
23353W        W79594   9.753   7.303   1.106  0.1327  0.4496  0.1202
23354W        W79595  12.220  27.332  24.473  0.0283  0.0645  0.1822
23355W        W79596   6.424  13.709  11.148 -0.0303 -0.1744 -0.5913
23356W        W79597   5.846  23.996  21.473 -0.4805 -0.0928  0.0971
23357W        W79598  10.662   7.686  13.388  0.2460 -0.1554  0.1348
23358W        W79599   4.728  20.585   3.930 -0.2892 -0.2968 -0.0246
23359W        W79600   9.335  28.647   3.633  0.1534 -0.2066 -0.5369
23360W        W79601  17.507  30.045  20.420 -0.0854 -0.2717  0.1510
23361W        W79602  10.283   2.746  13.049  0.0469  0.3168 -0.0406
23362W        W79603  17.533  25.992  19.957 -0.1124 -0.1318  0.0260
23363W        W79604   8.898  14.968  21.084  0.1483 -0.0583  0.2714
23364W        W79605   1.387   3.645  22.304 -0.1201 -0.3341 -0.0770
23365W        W79606  14.735  12.657   6.001 -0.0237  0.0323  0.0542
23366W        W79607  30.169  34.595  11.346 -0.3892 -0.3743  0.1217
23367W        W79608   2.660  23.386  24.047  0.0373 -0.0122 -0.0845
23368W        W79609  19.581   5.427   2.902  0.3150 -0.0566 -0.0696
23369W        W79610   9.199  19.631   4.469  0.2660  0.1378  0.0690
23370W        W79611  25.343  32.423  18.233 -0.1241  0.1035  0.3158
23371W        W79612  18.970  33.055   0.797  0.0607  0.0946  0.1098
23372W        W79613  33.232   1.323   4.297 -0.1405 -0.2897  0.2581
23373W        W79614  26.486  25.337  22.915 -0.0695  0.3315 -0.0557
23374W        W79615  15.858   7.281   5.556 -0.0208  0.0504  0.1986
23375W        W79616  22.602  21.730  18.724  0.3678  0.0799  0.1251
23376W        W79617  14.101  16.933   0.051  0.2056 -0.2633 -0.1557
23377W        W79618   4.473  19.382   4.205 -0.1164  0.0533 -0.0833
23378W        W79619  13.426  31.960  21.850  0.0902  0.0916 -0.0522
23379W        W79620  22.891  27.845  13.143  0.0642  0.0619  0.0280
23380W        W79621  34.481   3.034  17.767  0.1625  0.1586  0.0955
23381W        W79622  26.134  11.364   0.342  0.0031  0.0035  0.1619
23382W        W79623  26.594  33.243   4.980 -0.2345  0.0635  0.1367
23383W        W79624  34.416  26.232  12.399 -0.0960  0.2897 -0.2855
23384W        W79625   5.711   4.767  25.942 -0.1089 -0.0887 -0.0577
23385W        W79626   5.336  34.411   8.854  0.2559 -0.2050  0.2256
23386W        W79627  26.187  30.450  13.931 -0.0910  0.2305  0.1311
23387W        W79628  17.551  23.738  24.672 -0.1608  0.0535 -0.1949
23388W        W79629  20.498   4.966   1.845 -0.1394 -0.0709 -0.1068
23389W        W79630  32.425   3.726  12.765  0.0980 -0.1596  0.0861
23390W        W79631  16.488  35.333  16.595  0.0341  0.1863 -0.1907
23391W        W79632   6.213  31.267   0.133  0.0846 -0.0825  0.0048
23392W        W79633   3.939  27.075   2.921 -0.1193  0.1887  0.0346
23393W        W79634  32.498  30.398   0.802  0.2045 -0.0968  0.0470
23394W        W79635  30.605  24.141  18.184  0.0427 -0.0778  0.3136
23395W        W79636  20.466  24.449  19.261  0.0890  0.0638 -0.0963
23396W        W79637  16.866  23.417  15.091 -0.0857 -0.0915  0.1474
23397W        W79638  19.238  28.604   0.678  0.0552  0.1068  0.0190
23398W        W79639  10.584   4.805  18.909 -0.3986 -0.0663 -0.2602
23399W        W79640  19.189  26.758   8.553  0.3259  0.0991  0.1153
23400W        W79641   6.757  20.743  20.188 -0.0752  0.0931 -0.0388
23401W        W79642  27.870  21.081  22.583  0.2283 -0.0090 -0.0645
23402W        W79643  32.452   8.725  18.893  0.0348  0.1546  0.0569
23403W        W79644   3.978  21.125  19.678 -0.0478  0.3145 -0.2088
23404W        W79645   3.009  10.497  20.640  0.0195  0.2461 -0.2319
23405W        W79646   4.787   6.280   2.521 -0.0325  0.1167  0.0974
23406W        W79647  17.125   3.130  17.872  0.1372 -0.0307  0.0549
23407W        W79648  22.706   4.918  23.095  0.1704  0.0500  0.0155
23408W        W79649  18.004  18.617  26.091 -0.1037 -0.3085 -0.2449
23409W        W79650  12.971  29.959  24.088 -0.0019  0.2260 -0.0522
23410W        W79651  18.690  35.372   0.557  0.1909  0.1065  0.0841
23411W        W79652   4.320   9.614   5.463  0.1453  0.1775 -0.1037
23412W        W79653  21.777  21.538  23.079  0.1656 -0.1450 -0.0240
23413W        W79654  12.954  19.959  23.839  0.0760  0.0789 -0.0610
23414W        W79655  31.588  13.430  12.371  0.2601 -0.0180  0.2423
23415W        W79656   8.759  11.073   6.148 -0.2776 -0.2314  0.1714
23416W        W79657   4.468  26.175   3.003  0.0784 -0.0139  0.0221
23417W        W79658   8.559   6.605   5.522 -0.2851  0.1160 -0.0385
23418W        W79659   3.691   3.022  23.384  0.0738  0.0243  0.2887
23419W        W79660  31.716  17.749  16.114 -0.1625 -0.0384 -0.1127
23420W        W79661  31.565  22.160  20.477  0.0485 -0.3402 -0.0535
23421W        W79662   7.091  35.046  14.538 -0.1754  0.1857  0.0039
23422W        W79663  24.475  34.515   4.599 -0.2049 -0.1273 -0.1063
23423W        W79664  21.370  12.699   1.238 -0.0380  0.0229 -0.1237
23424W        W79665  14.328  25.947   7.847  0.0923  0.3172 -0.2024
23425W        W79666  11.447  28.112   5.802 -0.1508  0.0725 -0.2068
23426W        W79667  26.786   8.370  14.358 -0.0237 -0.1758 -0.1444
23427W        W79668   1.159   7.479  21.910 -0.1196 -0.0783 -0.0617
23428W        W79669   4.531  19.526   5.240  0.1163  0.3117  0.2139
23429W        W79670  22.612   4.209   5.970  0.1772 -0.0467 -0.0135
23430W        W79671  32.284  22.498  20.357 -0.1958 -0.2685 -0.1176
23431W        W79672   3.910  12.882  23.776 -0.0346 -0.0440  0.2482
23432W        W79673  23.714  32.396  11.251  0.1197  0.2088  0.1207
23433W        W79674  15.573   9.079   9.655 -0.0495  0.1259  0.1824
23434W        W79675  17.238  10.553   2.137 -0.1480  0.1901  0.1762
23435W        W79676  22.130  33.184   4.394 -0.1954  0.2433  0.3599
23436W        W79677  21.522  16.637  24.464  0.0243 -0.0973 -0.2283
23437W        W79678   3.477  32.822   3.071  0.2077 -0.0818 -0.1916
23438W        W79679   9.707  13.665  12.233  0.1826 -0.3181  0.1381
23439W        W79680   8.348   8.258   8.873  0.1878  0.0189 -0.3128
23440W        W79681  11.940  15.323   3.440 -0.0950  0.0112  0.1173
23441W        W79682  23.235  18.938   1.257 -0.3411 -0.1794  0.4540
23442W        W79683  19.441   2.748  24.569 -0.0221  0.1235  0.1921
23443W        W79684  12.667  30.419  22.218 -0.3384 -0.0369  0.1752
23444W        W79685   9.225  13.462   5.495  0.0395 -0.4448 -0.2705
23445W        W79686   8.619   8.412   8.042  0.4636 -0.1536  0.0096
23446W        W79687   4.831  30.280  20.157 -0.0137 -0.0466  0.1126
23447W        W79688  20.510   4.704  21.869 -0.2221  0.0374 -0.3105
23448W        W79689   1.802  33.310   4.691  0.1818  0.2953  0.0187
23449W        W79690  29.512   9.520  10.874 -0.0855 -0.0854 -0.2167
23450W        W79691  11.359  16.827  19.442 -0.2195 -0.1532 -0.0102
23451W        W79692   0.694  10.927  12.816 -0.3205 -0.1256  0.0632
23452W        W79693   2.345   3.308   6.789  0.1947 -0.1190  0.0934
23453W        W79694   2.472  18.666  24.541  0.0118  0.2888 -0.0489
23454W        W79695   3.471  20.930  20.398  0.0424  0.0737  0.3299
23455W        W79696  15.869  29.395  11.011  0.1995  0.1117 -0.1224
23456W        W79697  11.123   6.832  21.027 -0.3232  0.3700 -0.2144
23457W        W79698  24.235   3.610  13.716 -0.2124 -0.2137  0.0574
23458W        W79699  16.492  22.227  22.820 -0.0695 -0.0543  0.1951
23459W        W79700   5.685   4.572   7.622 -0.3720 -0.1887  0.0500
23460W        W79701   6.027   4.163   9.729 -0.1472  0.2737 -0.1429
23461W        W79702  26.330  24.713  14.545 -0.0275  0.0823  0.1602
23462W        W79703  18.702  21.201  10.293 -0.0349 -0.0257 -0.0598
23463W        W79704  23.669   1.636  17.844 -0.1368 -0.3596 -0.1276
23464W        W79705  19.089  18.603  26.058 -0.0203 -0.0506  0.1252
23465W        W79706  28.544  30.657   1.631  0.0633 -0.0125  0.1224
23466W        W79707   6.518  33.058   9.717  0.0973  0.0097  0.0166
23467W        W79708  31.960  29.148  12.356 -0.1023 -0.2190 -0.1128
23468W        W79709   1.310  17.077  17.854 -0.1636 -0.0553  0.2300
23469W        W79710  17.517  21.489  22.980 -0.2359 -0.2049  0.0037
23470W        W79711  13.782   4.112   2.118  0.0987  0.0014 -0.4069
23471W        W79712  33.893  18.148  25.567  0.3830 -0.1290  0.1150
23472W        W79713  13.646  26.069  16.108 -0.2242  0.1278  0.2566
23473W        W79714  29.983   1.832  19.876 -0.2923  0.3890 -0.1697
23474W        W79715  10.389   2.554  14.967 -0.0654 -0.1457  0.2102
23475W        W79716   2.521  32.845   5.636  0.1089 -0.0810 -0.3358
23476W        W79717  29.524  27.995  12.272 -0.1506 -0.1124 -0.0404
23477W        W79718  16.566  24.436  22.536  0.1056  0.2562 -0.0666
23478W        W79719  30.391  22.083   7.033  0.2771  0.0330 -0.1775
23479W        W79720  17.585   3.214   5.805 -0.1194 -0.2178 -0.0367
23480W        W79721  12.123   1.636   5.439  0.0613 -0.2134 -0.0673
23481W        W79722   9.994  24.643  11.910 -0.5464 -0.0160  0.1156
23482W        W79723  16.791  26.771  22.940 -0.4323  0.1551  0.4131
23483W        W79724  21.586  15.245  18.245 -0.1721 -0.1727  0.1131
23484W        W79725  14.837  21.324   0.179 -0.1105  0.0336 -0.0348
23485W        W79726   8.720   6.712  18.687  0.0502 -0.3586 -0.0107
23486W        W79727  24.259  35.331  18.831  0.5338  0.1595  0.2594
23487W        W79728  11.266  23.617  22.280 -0.0827  0.3441  0.3913
23488W        W79729  27.539  19.012  25.124 -0.0020  0.1890  0.0653
23489W        W79730  14.072  18.445   3.412 -0.3609  0.0526 -0.4653
23490W        W79731   7.842  24.274   5.202  0.2945 -0.3139 -0.1776
23491W        W79732  32.868   0.747  22.159 -0.1289  0.2106 -0.2050
23492W        W79733  16.169   8.442   0.360 -0.0331  0.2489 -0.1818
23493W        W79734  28.819  21.467  20.879  0.2059  0.1410  0.2867
23494W        W79735  11.606  27.072  14.337 -0.0692 -0.0038 -0.1817
23495W        W79736   2.206  16.315  12.003 -0.3769 -0.0339  0.2303
23496W        W79737  14.507  14.674   7.994 -0.3110  0.2942  0.2746
23497W        W79738  33.932  14.880  18.288  0.6424  0.1230  0.0037
23498W        W79739   4.064  30.122   6.459 -0.0426 -0.3733 -0.1503
23499W        W79740  35.191  19.491  19.890 -0.0390 -0.0958  0.3691
23500W        W79741   2.195   7.891  15.461 -0.0398 -0.1062  0.0786
23501W        W79742  32.236  30.061  19.701  0.0077 -0.2030  0.3669
23502W        W79743  15.088   7.851  18.441 -0.0753 -0.2223  0.4180
23503W        W79744  29.803   9.193   8.270 -0.2247  0.1400  0.1277
23504W        W79745   3.072  17.850  21.346 -0.1114  0.0032 -0.0600
23505W        W79746  21.311  28.600   1.279  0.0044  0.0231  0.0514
23506W        W79747  23.024  17.714  22.130 -0.3286 -0.1246  0.0595
23507W        W79748   2.582   1.797  20.182  0.4941 -0.0256 -0.1274
23508W        W79749  23.820  18.319  25.166  0.2002 -0.0900  0.3360
23509W        W79750  22.584   4.913   4.491 -0.0150 -0.5175 -0.2632
23510W        W79751   5.011  28.240   1.638 -0.3307 -0.0435 -0.0158
23511W        W79752  25.931   5.682  15.441 -0.1987 -0.2763 -0.1277
23512W        W79753   5.768  18.924  24.722 -0.2453  0.0334  0.2263
23513W        W79754  28.731  13.662   0.104 -0.3252  0.1504 -0.1205
23514W        W79755  25.764   3.318  22.856  0.2858  0.1464  0.0525
23515W        W79756  26.849  18.238  14.625  0.0301  0.2297 -0.3404
23516W        W79757   3.039  20.306  25.104 -0.0849  0.0440 -0.0406
23517W        W79758  13.456  12.823   1.085 -0.0264 -0.2684  0.3554
23518W        W79759  27.812  11.601  14.478 -0.2054  0.0845  0.4712
23519W        W79760  21.326  28.060  13.190  0.1039  0.2999 -0.0371
23520W        W79761  32.566   4.014  18.798  0.1690  0.1416 -0.1958
23521W        W79762  27.196   1.895   4.564  0.1387 -0.1088  0.1914
23522W        W79763  16.547   2.157   4.208 -0.2663 -0.0473  0.2396
23523W        W79764  24.068   8.028  25.895 -0.2390  0.2395  0.2315
23524W        W79765   4.243   6.458  24.453 -0.2528  0.1313  0.0575
23525W        W79766  24.779  10.788   1.030 -0.1921 -0.4031  0.2018
23526W        W79767   5.728  32.223   5.874 -0.0941  0.1643 -0.1590
23527W        W79768   7.056  13.672   0.405  0.0329 -0.2570  0.1013
23528W        W79769  10.486  29.269   7.152 -0.0218  0.1602 -0.1252
23529W        W79770  24.229  29.216   3.407  0.2122 -0.0610 -0.3122
23530W        W79771   4.587  28.306   1.062 -0.2551 -0.1312  0.2748
23531W        W79772  12.137   5.254  11.088 -0.1826  0.0073 -0.3680
23532W        W79773  13.103   5.560  20.386  0.1938  0.1133 -0.1034
23533W        W79774  28.992   7.656  19.022  0.0552 -0.3539  0.2071
23534W        W79775  11.807  20.742  12.863  0.1984  0.2671  0.0363
23535W        W79776  17.690  11.433  22.803 -0.2638 -0.0900  0.2043
23536W        W79777  28.504  17.402  13.608  0.1109 -0.2500  0.4383
23537W        W79778   0.175  24.556  20.348  0.1637  0.1217 -0.3526
23538W        W79779  34.763   4.638   4.068  0.2643  0.3867  0.2395
23539W        W79780  26.328   7.700  20.231 -0.2589  0.1151 -0.1223
23540W        W79781  29.001  23.050  14.893  0.2894  0.0582  0.2274
23541W        W79782  30.283  26.055  10.256  0.0892 -0.2353 -0.0750
23542W        W79783   9.372  23.040  14.466  0.2747 -0.1928 -0.0491
23543W        W79784  28.175  15.995  18.051  0.0722  0.1279 -0.2872
23544W        W79785  32.103  26.011  24.119 -0.0646 -0.0279 -0.0855
23545W        W79786  16.769   5.517  23.412 -0.0209  0.2216 -0.4122
23546W        W79787  33.298  25.628  24.591  0.0567 -0.2019  0.0237
23547W        W79788  21.983  28.872   3.494  0.2540  0.1127 -0.2258
23548W        W79789  10.731  11.398  13.776 -0.1649 -0.0270 -0.1514
23549W        W79790   7.867  10.752  22.911  0.0111 -0.0100 -0.2376
23550W        W79791   1.139  11.630  24.150 -0.0889  0.6589  0.0108
23551W        W79792  21.109   8.196  19.684  0.0856 -0.1131  0.0826
23552W        W79793  34.499   7.700  15.092  0.1924  0.2688  0.0597
23553W        W79794   0.686  15.814  22.756  0.2048 -0.0962  0.2224
23554W        W79795  24.299   8.483  25.878 -0.1302 -0.1507 -0.6607
23555W        W79796  27.156  13.666   5.720 -0.0367 -0.2085  0.3116
23556W        W79797   3.952  30.989   0.957 -0.1397 -0.0749 -0.4567
23557W        W79798  29.206  26.322  16.548 -0.1132 -0.0192 -0.0595
23558W        W79799   0.291  15.167  11.981 -0.1313 -0.1506 -0.1440
23559W        W79800  29.416  28.383  20.564  0.0528  0.2358  0.1563
23560W        W79801  31.836   8.499  15.568  0.1738  0.2068 -0.1238
23561W        W79802   3.506   6.562  17.256 -0.0064 -0.0413 -0.0350
23562W        W79803  15.082  14.784   5.851  0.0351 -0.0851  0.1689
23563W        W79804  34.579  23.937  12.222  0.0325 -0.3217  0.1470
23564W        W79805  35.011  31.118   2.529  0.0876  0.0926  0.0456
23565W        W79806   1.315  15.206  16.840 -0.3666  0.1583 -0.1988
23566W        W79807  30.383  31.103   2.924  0.0743  0.1621  0.0942
23567W        W79808  16.319  24.297  12.675  0.0506 -0.1172 -0.0324
23568W        W79809  14.030  23.069   6.809  0.0680 -0.3228 -0.1726
23569W        W79810  21.692  31.201  20.655  0.0212  0.1151 -0.0524
23570W        W79811  18.520  26.887  24.181  0.2052 -0.3201 -0.3006
23571W        W79812   2.009   4.238   4.932  0.0898  0.0299 -0.1660
23572W        W79813   7.930   8.945  25.912  0.1971 -0.0148 -0.1576
23573W        W79814   9.841  25.131  12.002  0.0707  0.0368  0.0019
23574W        W79815   1.579   3.735  21.803  0.1227  0.0302  0.1691
23575W        W79816  14.639  16.610   1.754 -0.2171  0.1707  0.0236
23576W        W79817  10.741  14.219  21.605 -0.0256  0.3369 -0.0670
23577W        W79818  23.295  34.903   2.785 -0.0400 -0.3407 -0.0192
23578W        W79819  25.375  20.458  14.824 -0.0034  0.0395 -0.1387
23579W        W79820   2.968  30.976   3.825  0.1163 -0.1459  0.2684
23580W        W79821  26.338  28.787  25.959 -0.0242  0.0742 -0.5304
23581W        W79822  15.069  29.218   1.157 -0.2076 -0.1645  0.1719
23582W        W79823  13.171   4.760   9.848  0.1602 -0.1228 -0.1553
23583W        W79824  30.632  10.575   8.241  0.0758  0.0817  0.1147
23584W        W79825  13.148  22.151   9.885 -0.1138  0.2568 -0.1901
23585W        W79826  13.443  30.499  26.050 -0.1511  0.1892 -0.0807
23586W        W79827  16.693  21.667  13.012 -0.1287  0.1345 -0.0305
23587W        W79828   6.154  21.614   6.008  0.0173 -0.3228 -0.0453
23588W        W79829  29.391   7.988   0.004  0.0553 -0.0249 -0.0610
23589W        W79830   4.296  24.934  25.269 -0.0889  0.0947  0.1032
23590W        W79831  15.070  18.484   1.345  0.0862 -0.0222  0.0020
23591W        W79832   0.632   7.241   5.417  0.1937 -0.1927  0.0476
23592W        W79833  14.034   5.890   6.618 -0.0418  0.4360  0.2298
23593W        W79834   9.497   2.342   2.761 -0.0644 -0.4108 -0.2052
23594W        W79835   7.966  25.398   1.951  0.3972  0.2952  0.0349
23595W        W79836  17.405  14.842  25.983 -0.1195  0.1310  0.0480
23596W        W79837  15.528  15.102   8.740  0.0469  0.1072 -0.2576
23597W        W79838  23.581  24.823   3.437 -0.1239  0.0805  0.1185
23598W        W79839   0.728   5.178   7.598 -0.3586 -0.1291 -0.0415
23599W        W79840   9.803  30.177   9.281  0.0768  0.0924 -0.0017
23600W        W79841  34.182  17.939  13.151 -0.4232  0.0534  0.0484
23601W        W79842  23.442   8.632  12.910  0.0188  0.1135 -0.1080
23602W        W79843  16.066  17.039   3.762 -0.0031  0.0064  0.0501
23603W        W79844  29.073  24.123  14.771  0.4599 -0.0636 -0.1968
23604W        W79845  30.474  13.250  24.336  0.0753  0.1254  0.0966
23605W        W79846  33.719  17.329   7.742 -0.2169 -0.1053 -0.0752
23606W        W79847  28.342  20.374   7.750  0.2490 -0.1633  0.2376
23607W        W79848   5.599  27.921  25.170 -0.1042 -0.2208 -0.0719
23608W        W79849   1.694   7.796  19.209  0.1685 -0.2917  0.1360
23609W        W79850   4.382  12.575   6.119 -0.1300 -0.1032 -0.1044
23610W        W79851  21.753  23.360  24.911 -0.0244 -0.2217 -0.2904
23611W        W79852  11.711  33.121  11.852  0.0136 -0.3643 -0.2590
23612W        W79853  12.063  33.105  14.757 -0.0711 -0.3285 -0.0792
23613W        W79854   8.842  12.642  21.449 -0.0600  0.0809  0.1346
23614W        W79855  16.314  31.495   5.097 -0.2515 -0.2858  0.1904
23615W        W79856   4.336  19.389  21.179 -0.1750  0.0558  0.1385
23616W        W79857  35.173   6.187  18.039  0.0512  0.0857 -0.0370
23617W        W79858  28.757   7.725   1.337 -0.0632 -0.0087 -0.1281
23618W        W79859  34.030  12.151  20.519 -0.0950 -0.1530  0.2077
23619W        W79860  14.053   8.774  25.783  0.1692 -0.1277 -0.3675
23620W        W79861   8.837   8.341  19.319 -0.1433  0.1338  0.0242
23621W        W79862   5.549  25.016  21.181 -0.1095  0.1056  0.1326
23622W        W79863  17.880  22.384   2.308  0.1450  0.0089  0.0115
23623W        W79864  10.548   1.368  23.005 -0.1959 -0.3342 -0.0864
23624W        W79865   3.084  35.318  18.110 -0.0811  0.0079 -0.0562
23625W        W79866  10.103   2.420  20.371  0.1730  0.0176  0.0492
23626W        W79867  28.594  20.060   8.540  0.2057 -0.0255  0.2553
23627W        W79868  30.149  18.722  23.259 -0.0908  0.0509 -0.1860
23628W        W79869  29.585   8.368  16.968  0.1759  0.3320  0.2191
23629W        W79870  21.991  33.084   3.831  0.0546 -0.2214  0.3512
23630W        W79871   6.768  12.747  17.812 -0.1880 -0.0563 -0.0565
23631W        W79872  30.872   5.585   2.416  0.0358 -0.0840 -0.0914
23632W        W79873  13.472  33.725   5.452  0.2127  0.1368  0.0439
23633W        W79874  35.229   5.422  13.311 -0.1243  0.3299 -0.0546
23634W        W79875   9.255  12.308  12.875 -0.0481 -0.0001  0.1684
23635W        W79876  12.775  33.932   0.593  0.2014 -0.4678  0.1213
23636W        W79877   1.332  12.936  19.800 -0.0583  0.0416 -0.0740
23637W        W79878  32.652  29.705  17.870 -0.2837  0.1627  0.1041
23638W        W79879   3.510  33.148   1.045 -0.0103 -0.0137  0.0748
23639W        W79880  33.877  13.356  19.382  0.0376  0.0822  0.1500
23640W        W79881   7.986  31.551  14.973  0.1448 -0.0555  0.4434
23641W        W79882  26.738  22.648  24.884 -0.1605 -0.0921 -0.0445
23642W        W79883  15.457  15.692   2.044  0.1137 -0.2983  0.2427
23643W        W79884   2.288  13.949  17.484 -0.1773 -0.2059 -0.0162
23644W        W79885  33.452  21.437  25.195 -0.0598  0.0743  0.0065
23645W        W79886   1.141  18.588  11.014  0.0208 -0.0136  0.3036
23646W        W79887   9.993  21.899   1.446  0.0432 -0.0045 -0.0111
23647W        W79888  15.877  12.632  22.889 -0.0614  0.1425 -0.1924
23648W        W79889   6.568  34.133  11.317  0.1478  0.1158  0.3638
23649W        W79890  13.699  22.540  21.892  0.1835  0.1563 -0.2956
23650W        W79891  35.121  19.823  16.981  0.1976  0.2955  0.3256
23651W        W79892  16.148  22.997  14.634  0.1632  0.0642  0.3086
23652W        W79893  16.766   0.148  25.959  0.1109  0.2231 -0.1440
23653W        W79894   2.224  27.883   4.324  0.0425  0.2676 -0.3167
23654W        W79895   1.129  17.746  14.526  0.0802  0.1827 -0.2877
23655W        W79896  11.160  16.995  25.734  0.2764  0.1188  0.1508
23656W        W79897   4.958   5.315  10.169 -0.1229 -0.1771  0.0870
23657W        W79898  25.794  31.334  15.333  0.2698 -0.0557  0.0168
23658W        W79899   9.977  31.602   0.960  0.1102  0.2234  0.1835
23659W        W79900  30.458  23.963  14.670 -0.1023 -0.0623 -0.2169
23660W        W79901  18.432   5.662  22.301  0.0126  0.0355  0.3039
23661W        W79902  24.075  28.384   4.842  0.1790 -0.1489  0.1289
23662W        W79903  32.594   3.638  15.853 -0.2770 -0.2364  0.1849
23663W        W79904   7.719  17.207   6.915 -0.1623  0.0444 -0.0916
23664W        W79905  15.137   0.967  18.075 -0.2386 -0.0479 -0.1661
23665W        W79906   4.213  20.044   1.310 -0.2859  0.0173  0.1292
23666W        W79907  23.562  20.681  17.752 -0.0383 -0.0304  0.2551
23667W        W79908  30.173  28.300   2.125  0.2085 -0.1732  0.1151
23668W        W79909   0.745   7.537  25.802  0.2024  0.1181 -0.1368
23669W        W79910   2.621  10.918  24.926 -0.0372 -0.4347 -0.0715
23670W        W79911  24.706  24.802   1.028  0.0760  0.1732 -0.3618
23671W        W79912  15.842  15.764  24.739  0.0540  0.3464  0.1326
23672W        W79913   8.547  11.606   6.070 -0.1223  0.2585  0.1473
23673W        W79914  35.354  11.817  22.227  0.0257  0.0048 -0.0043
23674W        W79915  19.552  18.941   6.715 -0.1682  0.2208 -0.2784
23675W        W79916   0.257  14.807  14.695  0.0283 -0.0222 -0.1473
23676W        W79917  22.201  28.814  14.702  0.0536  0.0465  0.0043
23677W        W79918  13.452  10.990   3.355  0.1457 -0.1542  0.1759
23678W        W79919  15.052   1.729  18.428 -0.1297 -0.0457 -0.3022
23679W        W79920   9.902  17.073   5.813  0.1218 -0.2819  0.0477
23680W        W79921  22.941  20.320  18.465  0.2118 -0.1999 -0.1672
23681W        W79922  27.260   3.820  10.552 -0.1511  0.2136 -0.2209
23682W        W79923   0.042   3.421  16.917 -0.0215  0.1669 -0.3090
23683W        W79924   4.899  18.408  21.524  0.2115  0.0073 -0.0218
23684W        W79925  20.111  27.696   8.149 -0.2738  0.1691 -0.0231
23685W        W79926   7.416  28.963   7.238 -0.0530  0.1017  0.1556
23686W        W79927  26.852  33.695  17.190  0.0053  0.0685 -0.0738
23687W        W79928  19.770   7.353   5.744 -0.0593  0.0050 -0.1146
23688W        W79929  12.685  19.842  10.865  0.0756  0.0536 -0.4516
23689W        W79930   7.916  29.151  25.176 -0.0784  0.3475  0.0440
23690W        W79931  25.635  11.473  15.664 -0.2811 -0.0391 -0.1494
23691W        W79932  24.572  27.947  25.038  0.0061  0.2314 -0.2090
23692W        W79933  26.246  10.108  23.913  0.4420  0.1919  0.0811
23693W        W79934  11.769  28.449  13.336 -0.0666  0.4882 -0.0404
23694W        W79935  12.156  21.238   0.673  0.0072 -0.0935 -0.0521
23695W        W79936   5.736  22.125   1.229  0.1123  0.1316 -0.0470
23696W        W79937  11.471  30.434   4.054 -0.2633 -0.2023  0.1512
23697W        W79938   7.826  17.606  12.731 -0.0115 -0.0137 -0.0125
23698W        W79939   3.481  31.144  26.246  0.0128  0.2117 -0.2462
23699W        W79940  20.784  15.180  19.190 -0.0233  0.0635 -0.2041
23700W        W79941   5.070  16.330  25.807  0.0060 -0.1358 -0.2943
23701W        W79942  33.665   8.875  24.621  0.0741 -0.2961  0.1614
23702W        W79943  12.573  35.141   3.643  0.1908  0.3869  0.2063
23703W        W79944   8.108  24.970  15.468 -0.0658 -0.1606 -0.3632
23704W        W79945  15.893  25.530   0.589  0.1361  0.1204  0.0686
23705W        W79946  27.091   8.756  12.228 -0.3723 -0.0884  0.0047
23706W        W79947  23.471  32.307  21.907 -0.1921 -0.0499  0.1075
23707W        W79948  34.207  14.532  19.764  0.2710  0.0036  0.0354
23708W        W79949  23.833  22.109  23.212  0.0676  0.2172 -0.1974
23709W        W79950   1.707  19.846  11.075 -0.4121  0.2095  0.1691
23710W        W79951  25.140  29.424   0.679  0.0411 -0.0674  0.0128
23711W        W79952  19.039   4.930  18.014 -0.3192  0.1497 -0.1987
23712W        W79953   7.564  31.483   1.391 -0.0292 -0.0645 -0.2754
23713W        W79954  18.770  17.786   8.838 -0.0915  0.1023 -0.0371
23714W        W79955   0.680  12.617  13.731 -0.1580  0.0807  0.0997
23715W        W79956  32.399  34.438   4.746 -0.3578  0.0300 -0.2541
23716W        W79957   3.056   8.046  19.039  0.0585 -0.0641 -0.1750
23717W        W79958  12.392  25.907  22.644 -0.1037 -0.0095  0.0383
23718W        W79959  22.714   8.773  18.462  0.0161 -0.0521 -0.1288
23719W        W79960  19.785  22.226   7.147  0.0992  0.1338 -0.3977
23720W        W79961  16.589  28.204  11.059  0.2440 -0.0779  0.0579
23721W        W79962   6.830  10.118  22.405  0.1680 -0.0830  0.2463
23722W        W79963   7.834   8.682  12.216 -0.0335  0.1931  0.1098
23723W        W79964  27.069  32.498   2.252  0.0178  0.1319 -0.0153
23724W        W79965  13.577   9.265  12.325  0.0860 -0.2003 -0.2173
23725W        W79966  34.000  14.993  11.668 -0.3454  0.2464 -0.0359
23726W        W79967  25.409  26.644  23.036  0.0619  0.2756  0.2318
23727W        W79968  11.620  11.974  21.261  0.2678  0.0192 -0.1387
23728W        W79969   1.336  22.623  21.895  0.1601  0.0721 -0.1133
23729W        W79970   7.515  17.452  20.954 -0.0084  0.3486  0.1556
23730W        W79971  15.725   4.595  23.551 -0.2644 -0.1726  0.1264
23731W        W79972  22.751  24.008  21.866  0.2432 -0.4825 -0.0415
23732W        W79973  15.792   5.775   1.342  0.1559  0.1263 -0.0609
23733W        W79974  15.173  22.520   6.310 -0.2090  0.3073 -0.2436
23734W        W79975  15.669  25.258  14.385  0.0587 -0.2258 -0.2966
23735W        W79976  12.205  12.522  23.762  0.1663  0.1643 -0.1097
23736W        W79977  14.309  20.338   2.177  0.0696  0.3272 -0.1293
23737W        W79978  14.033   5.003   2.712 -0.0822 -0.2657 -0.0373
23738W        W79979  13.842  20.392  23.321 -0.1878  0.0557 -0.3136
23739W        W79980  18.270  20.736  22.750  0.1294  0.0824  0.1568
23740W        W79981   5.772   0.402   6.028  0.1262 -0.2809 -0.4216
23741W        W79982  33.435   4.493  21.509 -0.1873  0.0135 -0.1193
23742W        W79983  20.081  11.328   9.751 -0.0201  0.0532  0.2450
23743W        W79984   6.311   3.298  21.142  0.4103  0.1483 -0.3981
23744W        W79985   8.605  13.714  23.203 -0.2983 -0.5081 -0.2678
23745W        W79986   7.621  19.578  20.515 -0.1358  0.3046 -0.2892
23746W        W79987   9.866  12.822   7.066 -0.2020 -0.1658  0.1365
23747W        W79988  18.292   8.159   1.447 -0.2385  0.2061  0.3518
23748W        W79989  30.040  19.507  24.905 -0.3427 -0.0506  0.1961
23749W        W79990  18.170  24.985   2.102 -0.0723 -0.0338  0.3605
23750W        W79991  21.403   4.198  20.903 -0.1131  0.0481  0.0153
23751W        W79992   8.007  31.638  23.329  0.0976 -0.0903 -0.0392
23752W        W79993   0.230  16.943  20.388  0.1247  0.0097  0.0510
23753W        W79994   8.975   9.283   1.512 -0.2441 -0.2587  0.1798
23754W        W79995   6.574  28.732  12.737  0.3762 -0.1126  0.1104
23755W        W79996  32.240   2.849  24.503  0.0094 -0.2295  0.0104
23756W        W79997  31.046  22.270   5.476  0.0386 -0.6335  0.1432
23757W        W79998  14.471  24.257   8.408  0.0182 -0.1409  0.0423
23758W        W79999   9.924  19.965  25.919 -0.1774  0.0431 -0.1401
23759W        W80000  19.274  27.497   3.566  0.3232  0.2533 -0.4490
23760W        W80001  31.897  29.068  13.795  0.0878  0.1343  0.0151
23761W        W80002  32.493   6.913   4.086  0.2004 -0.0971  0.0282
23762W        W80003  10.258  31.410   5.678  0.0323  0.2078  0.2890
23763W        W80004   7.179  25.415   2.397 -0.1451  0.0319  0.0917
23764W        W80005  30.334  18.577  14.463  0.2914 -0.0313 -0.1742
23765W        W80006  32.457  31.095  20.434 -0.1331  0.1291  0.0084
23766W        W80007  19.821  29.806  20.240  0.1130 -0.0133  0.0137
23767W        W80008  17.069   2.640   6.715  0.2005  0.2364 -0.3812
23768W        W80009   7.882   0.445   8.702 -0.0410  0.1897  0.0178
23769W        W80010  34.958  25.844   2.201 -0.0991  0.0734 -0.3286
23770W        W80011  27.023  33.988   5.677  0.0212  0.0509 -0.0062
23771W        W80012  26.927  13.422  12.755  0.2027  0.1533 -0.0723
23772W        W80013   7.934  15.303  18.177 -0.1452  0.0856  0.0687
23773W        W80014  14.263  10.832  19.848  0.0859  0.3294  0.0158
23774W        W80015  15.084  20.265  24.610  0.1537 -0.1342  0.1336
23775W        W80016   9.742  14.627  11.443  0.0208 -0.2254 -0.1976
23776W        W80017  16.060  33.317  20.167 -0.2059  0.4117 -0.0642
23777W        W80018  13.842  23.839   2.223 -0.1031  0.1606  0.0685
23778W        W80019  22.243  11.706  20.249 -0.0168 -0.0064  0.0297
23779W        W80020  24.693  11.144  16.960  0.2577 -0.0334 -0.1323
23780W        W80021  11.968  15.492   0.842 -0.1208 -0.0555 -0.3065
23781W        W80022  27.708  27.032  18.473 -0.0362 -0.1494 -0.1830
23782W        W80023  34.944   4.101   2.632 -0.0753 -0.1424 -0.1739
23783W        W80024  29.675   1.737  12.893  0.2258 -0.2324 -0.0043
23784W        W80025   3.099  30.076  21.382  0.2219 -0.0810 -0.1456
23785W        W80026  20.285  25.428  17.724  0.0604 -0.0162 -0.0686
23786W        W80027  33.543  22.811  19.913 -0.2004 -0.1530  0.2124
23787W        W80028  22.820  16.469  24.900 -0.0818 -0.2237 -0.0988
23788W        W80029  16.903  23.995  24.622 -0.2164  0.1468 -0.2034
23789W        W80030  14.841   8.030  20.683 -0.3595  0.0977 -0.1112
23790W        W80031  29.651  18.102   5.244 -0.0052 -0.0655 -0.1793
23791W        W80032  20.172  12.560   4.425  0.0777 -0.2109  0.2548
23792W        W80033  33.570  16.414  23.926  0.0766  0.0003  0.0928
23793W        W80034  23.379   4.314   0.524  0.1818 -0.0467  0.0371
23794W        W80035  33.925  22.150  16.227  0.1037 -0.0998 -0.1579
23795W        W80036  30.064  16.074  25.008 -0.2726 -0.0402  0.0475
23796W        W80037   4.861  15.716  24.757 -0.0113  0.1182 -0.1755
23797W        W80038  25.165   3.347  23.637 -0.3096  0.1152 -0.1240
23798W        W80039  10.601  28.201  25.816  0.2588  0.1597  0.0795
23799W        W80040  30.133  19.467  17.912  0.0988 -0.3169 -0.0334
23800W        W80041  28.450  29.555  15.218 -0.1431 -0.1923  0.0563
23801W        W80042  24.877   5.502  13.869  0.2045 -0.3517 -0.0544
23802W        W80043   7.277   5.113   1.602  0.2121  0.2567 -0.1077
23803W        W80044  35.096  33.954   1.824  0.0916  0.1126 -0.0396
23804W        W80045  17.695  17.685   8.241  0.0698 -0.1577 -0.2930
23805W        W80046  22.608  12.193  17.996  0.3136 -0.0474 -0.0001
23806W        W80047   1.331  26.064   4.896 -0.0538 -0.1244 -0.0795
23807W        W80048   8.582  24.577   7.681 -0.4897  0.0310 -0.2038
23808W        W80049  11.910   1.711  20.749 -0.0629  0.0582 -0.0948
23809W        W80050  25.534   4.689   0.650 -0.0596  0.2617 -0.1709
23810W        W80051   3.934  13.260  17.320 -0.0082 -0.0550 -0.3227
23811W        W80052  15.967  19.829   6.807  0.1807 -0.0411  0.0833
23812W        W80053  33.934  19.845  24.311  0.0690  0.0104  0.2913
23813W        W80054  14.962  35.182  20.238 -0.0543 -0.0636  0.1927
23814W        W80055   7.706  23.541  23.631  0.1820 -0.0873  0.1604
23815W        W80056  20.314   7.284  24.998 -0.1466 -0.3421  0.2044
23816W        W80057  21.143  21.250   1.226  0.3315  0.0518  0.1979
23817W        W80058  19.971   2.692   4.378  0.5658 -0.1460 -0.3906
23818W        W80059  25.038  34.311  11.699  0.2120  0.0537 -0.1439
23819W        W80060  21.954  26.367  13.794  0.0213  0.1864  0.1774
23820W        W80061  32.218  26.173  11.687  0.0195 -0.3218  0.0644
23821W        W80062  27.078   6.489   1.879 -0.0945  0.5087  0.1177
23822W        W80063   0.037  19.954   8.919  0.2227  0.0908 -0.0608
23823W        W80064  32.061  19.352  12.083 -0.0225 -0.0652  0.0557
23824W        W80065  16.142   6.855  22.539  0.0920  0.3103 -0.0805
23825W        W80066   6.146   0.370  13.441 -0.0994 -0.3269 -0.0881
23826W        W80067  11.647  24.347  10.968  0.0684 -0.1673 -0.0330
23827W        W80068   0.942  20.057  23.501 -0.1783  0.1126  0.0589
23828W        W80069  17.518  18.398  24.883 -0.1030  0.0184 -0.1606
23829W        W80070  16.595  33.803   9.376  0.6118  0.0852 -0.2236
23830W        W80071  21.745  10.083  20.005 -0.0077 -0.0771 -0.0314
23831W        W80072  17.716   3.744   2.554 -0.1691  0.1738  0.0877
23832W        W80073  15.766  31.321  10.535  0.1802  0.1588  0.1028
23833W        W80074  26.391   5.911  10.290 -0.0797  0.3248 -0.2273
23834W        W80075  29.927  25.821  12.833 -0.0015 -0.0524  0.0887
23835W        W80076  22.323   5.769  19.530 -0.0684  0.2273  0.2044
23836W        W80077  25.151   2.157  20.031  0.2855  0.1883 -0.3646
23837W        W80078  19.339  24.678  25.221  0.0375  0.0168  0.0954
23838W        W80079  23.516   2.012   7.055 -0.1412  0.0282  0.1636
23839W        W80080  33.575  26.813  16.596 -0.0373 -0.2225  0.0088
23840W        W80081  11.022   1.892  11.470  0.1808 -0.2120 -0.0703
23841W        W80082  11.095  22.171  23.417 -0.0260 -0.0869  0.2005
23842W        W80083  20.458   4.240  20.532  0.1952  0.1556 -0.2008
23843W        W80084  29.449  13.951   9.315  0.0581 -0.0568 -0.0014
23844W        W80085   3.154   2.394   4.909 -0.0598  0.1865 -0.0565
23845W        W80086   2.375  18.567  16.484  0.0756 -0.0713 -0.1931
23846W        W80087  35.237  21.379  14.422 -0.0411 -0.2863  0.0126
23847W        W80088  14.972  17.731   9.382 -0.1616  0.1482  0.2562
23848W        W80089  25.114  17.870  18.272  0.0094 -0.3771 -0.3738
23849W        W80090  16.272   5.088  21.677 -0.0838  0.5687 -0.0765
23850W        W80091   1.881  21.180  14.881  0.2555 -0.0828 -0.1488
23851W        W80092  30.923   8.308  12.992  0.0630 -0.0343 -0.2495
23852W        W80093  28.906   5.703  16.953 -0.0235  0.3916 -0.1558
23853W        W80094  14.448   3.742   4.909 -0.3713 -0.0769  0.1507
23854W        W80095  33.322  32.408  18.555  0.0937  0.1035  0.0193
23855W        W80096  24.104  27.125  22.847  0.0655 -0.1512 -0.1368
23856W        W80097  29.656  32.030  14.048 -0.1026  0.4744  0.0597
23857W        W80098  22.122   2.728  19.138  0.0031 -0.0296  0.1645
23858W        W80099  31.702  10.878  13.060  0.2272  0.1724 -0.0555
23859W        W80100  35.228  16.013   0.625  0.3142 -0.1111  0.1747
23860W        W80101  11.251  18.440   9.659  0.0456 -0.3039  0.3173
23861W        W80102  16.726  27.305  24.340 -0.2959 -0.0758  0.2309
23862W        W80103  17.651  19.275  23.505 -0.1415 -0.3757  0.3699
23863W        W80104   7.242   8.936  24.197  0.1790 -0.2096 -0.1282
23864W        W80105  33.084  24.684  23.072 -0.0300 -0.1074 -0.1822
23865W        W80106  20.732   0.058   2.801 -0.1792  0.2209  0.1134
23866W        W80107  10.375  27.189  12.752  0.2733  0.3905 -0.1654
23867W        W80108  19.240  25.738   3.090 -0.0824 -0.1329  0.2318
23868W        W80109   2.520   1.654  19.076 -0.1621 -0.0317 -0.1555
23869W        W80110   1.480  15.144  20.284 -0.0809 -0.1614 -0.0179
23870W        W80111  14.224  18.111  25.703  0.4118 -0.1347  0.0367
23871W        W80112  14.133  18.830  12.597 -0.1064  0.2251  0.1408
23872W        W80113   8.435  15.806  24.072  0.4292  0.0361 -0.0067
23873W        W80114  10.733  28.656  26.154  0.0281  0.3254  0.1500
23874W        W80115   4.456   8.336   6.893  0.0184 -0.0045  0.2358
23875W        W80116  27.331  27.389  11.074  0.1223  0.2564 -0.2154
23876W        W80117  34.178  31.636   3.368  0.0837  0.1763 -0.0784
23877W        W80118  27.584  34.751  21.887 -0.3691  0.0567 -0.0293
23878W        W80119  18.107  26.685  21.592  0.3332  0.1314 -0.2578
23879W        W80120  30.965   1.409  17.324 -0.1763  0.3399  0.4073
23880W        W80121   0.359   5.499   5.421 -0.2734 -0.1373 -0.2001
23881W        W80122  34.640   4.537   6.302  0.2665 -0.0061  0.1011
23882W        W80123  28.944  14.125  15.600  0.0481 -0.0941  0.2449
23883W        W80124   9.229   7.977   9.783 -0.0520 -0.1151 -0.0865
23884W        W80125  13.896  15.285  25.250  0.0437 -0.1277  0.0250
23885W        W80126  14.997  11.000   7.279 -0.2169 -0.3361 -0.1385
23886W        W80127  30.998   1.721  20.848  0.1669 -0.0315  0.0942
23887W        W80128   7.727  14.792  20.289  0.1366  0.0421  0.1065
23888W        W80129  19.479  28.120  19.883  0.0456  0.0481  0.2337
23889W        W80130   5.832  22.713   3.299 -0.2090  0.3465  0.1122
23890W        W80131  20.564   8.585  25.956 -0.0469  0.3438 -0.0976
23891W        W80132   9.097  22.015   1.494  0.0550  0.2404  0.0864
23892W        W80133  30.844  17.016   9.101 -0.0984 -0.2553 -0.2181
23893W        W80134   0.298  18.677  10.310  0.2489 -0.0124 -0.1116
23894W        W80135  15.572  22.942  21.862  0.1042 -0.0390  0.2521
23895W        W80136  33.462  32.589  19.057 -0.0502  0.0749  0.0757
23896W        W80137  31.121   6.828  17.360 -0.3446 -0.1387  0.0931
23897W        W80138   8.623  33.267   7.807  0.2256  0.0047 -0.2258
23898W        W80139  17.279  23.736   3.049 -0.3334 -0.2708 -0.0267
23899W        W80140   4.248  28.558  22.732  0.2509 -0.3390 -0.1775
23900W        W80141  27.232   5.116  13.068  0.1448 -0.0384 -0.0293
23901W        W80142   5.767  23.679  21.081 -0.4232  0.0356 -0.0420
23902W        W80143   6.897   3.977  13.125 -0.0068 -0.2219  0.0272
23903W        W80144   5.300  27.357   8.453  0.0812  0.1598  0.1740
23904W        W80145  10.017   7.945   9.638 -0.1136  0.0068 -0.1166
23905W        W80146  10.700  30.698   3.001  0.1857 -0.0306 -0.0172
23906W        W80147  23.058  34.199  13.274  0.0143  0.3299  0.0729
23907W        W80148  12.430  18.607   5.714 -0.2312  0.1046  0.0240
23908W        W80149  29.826  28.040  18.061 -0.0484 -0.2694 -0.1570
23909W        W80150  16.757  20.670  10.248  0.1554 -0.0295 -0.0107
23910W        W80151  14.037  33.046  24.666 -0.2519  0.1812 -0.1616
23911W        W80152  14.807   1.174   5.234 -0.1539 -0.1128  0.0130
23912W        W80153   0.378  27.342  25.964  0.1225 -0.3676 -0.1141
23913W        W80154  17.733  15.208  18.018 -0.0853 -0.1874  0.4019
23914W        W80155  15.699  11.201  19.884 -0.0794 -0.1626  0.0319
23915W        W80156  33.372   0.998  14.650 -0.0259 -0.0609  0.0661
23916W        W80157  26.646   1.177  18.932 -0.1717 -0.1323 -0.2001
23917W        W80158  25.659  31.321  11.276  0.2464 -0.2340  0.2078
23918W        W80159  26.363  18.366  25.132 -0.0579 -0.1179 -0.0138
23919W        W80160   6.726   8.192  13.280 -0.1152  0.2537 -0.2300
23920W        W80161  27.831  32.896  20.183  0.1249 -0.0608 -0.2766
23921W        W80162  17.951   4.896   7.674 -0.1492  0.0596 -0.2223
23922W        W80163   7.011  28.290  10.520 -0.4452 -0.1916  0.0611
23923W        W80164  30.200  29.214  18.285 -0.0480 -0.0760  0.1506
23924W        W80165   6.255  22.363   0.010  0.1734  0.0105  0.0248
23925W        W80166  15.802   0.805   4.351 -0.2745 -0.1937  0.2599
23926W        W80167  30.789   8.782  14.827  0.1670  0.0530  0.3584
23927W        W80168  34.893  10.983  18.264  0.0410 -0.2641  0.0992
23928W        W80169  17.975  30.707  25.745 -0.0398  0.1829 -0.2220
23929W        W80170  22.400  30.523   5.542 -0.2184 -0.0319  0.1470
23930W        W80171  15.126   0.052   1.483  0.2327 -0.2229  0.2018
23931W        W80172  14.057  14.807  19.686  0.2086  0.1424 -0.0977
23932W        W80173  23.593   7.953  22.387 -0.1029  0.0711  0.5202
23933W        W80174  22.330  11.809  16.308  0.3719  0.2573  0.1524
23934W        W80175  29.214  27.850   0.935 -0.1363 -0.2366  0.0651
23935W        W80176   9.492  24.205  10.276  0.0475 -0.0875  0.0485
23936W        W80177  25.425  27.673  14.458  0.0544  0.2182 -0.1884
23937W        W80178  34.124  12.443  19.287  0.0852  0.1784 -0.2590
23938W        W80179  17.832  22.965  11.448 -0.2765 -0.1886 -0.0353
23939W        W80180  15.333  33.002   7.370 -0.0190 -0.2404 -0.0768
23940W        W80181  26.540   4.543  24.521 -0.0737  0.1017  0.4802
23941W        W80182  22.545  34.647  21.063  0.1205 -0.0214 -0.1014
23942W        W80183   1.351  28.259  24.216  0.2947  0.2730 -0.2775
23943W        W80184  10.684  22.153   2.505  0.2394 -0.2355  0.0024
23944W        W80185   4.764   7.717  24.343  0.6490  0.0525  0.1267
23945W        W80186  11.472   9.840  12.520  0.1777  0.0431  0.0295
23946W        W80187  14.211   0.698   4.445  0.0954 -0.0977 -0.2761
23947W        W80188  28.427   3.065   0.675 -0.0891 -0.1234  0.2389
23948W        W80189   5.327  27.846   4.079  0.1787 -0.0550 -0.1528
23949W        W80190   9.597  31.745   2.689 -0.2335 -0.2209 -0.1477
23950W        W80191  29.015   9.069  12.734  0.2731  0.1696 -0.1488
23951W        W80192  22.244   8.661  24.775 -0.3422  0.2656  0.2089
23952W        W80193  20.488   6.894   3.758 -0.0239  0.1418 -0.1818
23953W        W80194  14.613  31.257  25.922 -0.1340 -0.0580 -0.1742
23954W        W80195   7.365   5.391   7.761  0.5045  0.2445  0.1672
23955W        W80196   7.947  34.887   6.031  0.2826  0.3201  0.1119
23956W        W80197  32.998   3.716  12.858 -0.1582 -0.1739 -0.1596
23957W        W80198  22.437   5.040  17.730 -0.3570  0.0790 -0.2223
23958W        W80199  33.788  24.299   1.474 -0.0284  0.0572 -0.0105
23959W        W80200  13.576  34.397  23.780  0.0973  0.0829  0.0485
23960W        W80201  35.353  22.198   0.565  0.3447  0.1590  0.0536
23961W        W80202   4.811  12.738  21.075  0.1838 -0.0701 -0.3349
23962W        W80203  22.780   7.813   0.634  0.1046  0.2091 -0.0560
23963W        W80204  22.474  29.419  22.918 -0.3382 -0.1749 -0.2057
23964W        W80205  21.266   6.570  21.268 -0.0146  0.1193 -0.1581
23965W        W80206  23.453  23.333  25.648 -0.1724 -0.1219 -0.2521
23966W        W80207  12.102  17.354  26.171  0.0518 -0.0153 -0.2588
23967W        W80208  16.777  35.274  17.570 -0.0155  0.1710 -0.1724
23968W        W80209  26.663  24.771  15.076 -0.1048  0.1965 -0.1576
23969W        W80210  16.632   2.349  20.926  0.1351 -0.1366  0.4016
23970W        W80211  14.845  27.775  10.815 -0.2736 -0.0724 -0.1093
23971W        W80212  22.488  29.982   6.093 -0.0706  0.1223  0.1863
23972W        W80213   0.561  11.508  18.816 -0.4174 -0.0045 -0.1475
23973W        W80214  25.589  19.649   7.602 -0.2851  0.0113  0.0280
23974W        W80215  16.015  11.259   3.294  0.0508 -0.0414  0.3225
23975W        W80216  29.088  28.441  25.574  0.0784 -0.4437  0.1287
23976W        W80217  17.007  34.530  23.287 -0.2298  0.0132  0.0430
23977W        W80218  28.038  24.091   7.382  0.1642  0.0112  0.1796
23978W        W80219  19.666   4.763  18.528  0.2314 -0.2055 -0.3250
23979W        W80220   9.774  25.987   7.057 -0.0093  0.0470 -0.1937
23980W        W80221  27.024  21.491  12.640  0.0032 -0.1297  0.0386
23981W        W80222  19.347  27.104  24.356  0.1106 -0.1278 -0.0098
23982W        W80223  28.460  27.868  10.982 -0.2337 -0.0922 -0.1166
23983W        W80224  11.577   5.182  22.617  0.0417 -0.3177 -0.1293
23984W        W80225  34.029   0.929  19.540  0.2174 -0.2562 -0.1738
23985W        W80226  28.091  29.233  13.627  0.0518 -0.0265 -0.0233
23986W        W80227  33.583   5.932   1.153  0.1555 -0.0298  0.2957
23987W        W80228  33.257   5.830   5.813  0.2322  0.0341  0.0282
23988W        W80229   2.391  20.042   2.742 -0.1358  0.1637 -0.0177
23989W        W80230  34.307   9.941  20.083 -0.1792  0.0284  0.0156
23990W        W80231  20.071  11.394  19.887 -0.1372  0.0177 -0.0437
23991W        W80232  15.314  28.413  12.972 -0.3565  0.2796  0.0589
23992W        W80233  15.659  17.904  22.906 -0.0728 -0.0011 -0.0436
23993W        W80234  10.466  12.483   9.386 -0.1235  0.0447 -0.0034
23994W        W80235  28.266  25.213   0.082 -0.2546 -0.1969  0.0961
23995W        W80236   8.340  13.351   8.355  0.2085  0.1465  0.1344
23996W        W80237  21.512  29.375   0.848  0.0804 -0.1569 -0.4513
23997W        W80238  34.830   7.209  11.593  0.0833  0.0891  0.2946
23998W        W80239   3.572  13.778   5.042 -0.0567 -0.3995 -0.0291
23999W        W80240  27.220  21.709  25.213  0.0258 -0.0348  0.0326
24000W        W80241  21.075  31.433   3.497  0.4653 -0.0156 -0.0218
24001W        W80242  18.615  11.384  23.246 -0.0729 -0.0358 -0.4560
24002W        W80243   8.300  26.738   3.827  0.0067 -0.0941  0.0419
24003W        W80244  32.092   3.100  13.260  0.0195 -0.0672  0.1577
24004W        W80245  26.122  25.829  23.280 -0.1758 -0.1559 -0.1909
24005W        W80246   9.383   2.259   6.520  0.1224  0.2466 -0.1924
24006W        W80247  16.425   7.315   8.933 -0.2995  0.1512 -0.1152
24007W        W80248  33.020  35.091   1.952 -0.4500  0.1144  0.0637
24008W        W80249  34.646  32.256   8.459 -0.1059  0.2695 -0.2228
24009W        W80250   1.476  10.432   0.342 -0.3099  0.0158  0.3059
24010W        W80251   2.171  25.494  23.063  0.6001  0.0687  0.0903
24011W        W80252  13.600  15.306  23.206 -0.0525  0.0886 -0.0693
24012W        W80253  28.372  16.016  10.970  0.0129 -0.0055  0.0964
24013W        W80254  13.639  19.724  11.038 -0.0358 -0.1065  0.0925
24014W        W80255  32.778   1.258  23.549 -0.1885  0.1369  0.0068
24015W        W80256  29.961  34.610  21.047 -0.1519 -0.0081 -0.1340
24016W        W80257  19.903  28.205  23.734 -0.3907  0.0682 -0.1024
24017W        W80258   9.869   1.564   4.423 -0.2180  0.1955 -0.1679
24018W        W80259  15.733  26.969   0.567 -0.1373  0.0664 -0.3786
24019W        W80260  30.711  12.885  16.894  0.2632 -0.2523  0.0967
24020W        W80261   7.741  17.790   7.701 -0.1931 -0.2284  0.1658
24021W        W80262  30.114  27.672  20.024 -0.0207  0.0704 -0.1499
24022W        W80263  32.046  13.856  19.193 -0.0413  0.0227  0.3954
24023W        W80264  14.364  26.602   8.739 -0.2521 -0.1631  0.1106
24024W        W80265  25.457  15.421  14.941 -0.1285  0.0246 -0.0657
24025W        W80266   1.327   7.995  14.900  0.2992  0.3640  0.2064
24026W        W80267   4.866  35.186   2.835 -0.2822 -0.1419 -0.1746
24027W        W80268  33.338  33.747  18.153  0.0970  0.0085  0.0810
24028W        W80269   3.819  29.414   1.605 -0.3157 -0.1353 -0.2120
24029W        W80270  32.016   5.292  12.249  0.2504 -0.2773  0.0705
24030W        W80271  18.011   2.528   7.672  0.0306  0.0264 -0.2079
24031W        W80272  27.575   1.632  24.969 -0.1661  0.0562 -0.0441
24032W        W80273   2.980   0.390   7.884  0.2159 -0.0272 -0.1974
24033W        W80274  21.938  32.869  19.713 -0.2055  0.1317  0.1048
24034W        W80275  14.519  22.642   0.738 -0.0672 -0.2293 -0.0355
24035W        W80276  20.169  28.670   0.879  0.1047  0.0059 -0.0596
24036W        W80277   5.481  22.926  24.858  0.0122 -0.3066  0.1014
24037W        W80278   4.928  24.988   5.965  0.1234  0.1739  0.0165
24038W        W80279  33.979   4.682  19.791  0.1227 -0.0332 -0.2550
24039W        W80280  16.743  21.982   6.787 -0.0423  0.2567 -0.0618
24040W        W80281   1.862  19.324  24.513 -0.1636  0.0112 -0.2024
24041W        W80282  14.558   4.825   4.100  0.1766  0.1334 -0.0437
24042W        W80283  18.984  16.719   6.001  0.1301 -0.0645  0.1014
24043W        W80284  14.402  20.757   6.235  0.0701 -0.1212 -0.0200
24044W        W80285  28.675  11.374  25.358  0.0500 -0.1477  0.1696
24045W        W80286  15.843  30.631  21.175 -0.0542  0.0875  0.1516
24046W        W80287  34.847   4.846  18.014  0.2092  0.0144 -0.1413
24047W        W80288  14.622  22.955  14.086  0.2606  0.1859  0.4171
24048W        W80289  11.950   1.668  21.699  0.0540  0.2251 -0.1010
24049W        W80290  21.060  11.711   3.504  0.4579  0.0576  0.0472
24050W        W80291  22.295  16.422  15.774  0.0073 -0.1859 -0.0794
24051W        W80292  17.252  18.391   9.786  0.0455 -0.0263  0.1839
24052W        W80293  26.347   2.935  20.056 -0.3653 -0.0391  0.2877
24053W        W80294  32.104   1.884  12.778 -0.0124 -0.0121  0.2312
24054W        W80295   4.116   6.872  25.723 -0.2670 -0.0134 -0.3464
24055W        W80296  24.302  15.969  25.050  0.5431  0.1614  0.2805
24056W        W80297  27.868   5.155   1.344 -0.0955 -0.1892  0.0129
24057W        W80298  25.837  21.713   9.733  0.3120 -0.4047  0.2077
24058W        W80299  17.193  28.116   5.754 -0.0048 -0.0890  0.1933
24059W        W80300  25.046  32.990  23.743 -0.1711  0.1946  0.2006
24060W        W80301  34.145  15.784  21.560 -0.1776  0.0546 -0.1839
24061W        W80302   7.433   9.595   2.327 -0.1036  0.5189 -0.0903
24062W        W80303   9.556  34.782   9.592  0.2790 -0.3881 -0.0506
24063W        W80304   9.782   5.544   9.069  0.3884  0.1833 -0.1963
24064W        W80305  18.400   6.208  25.956 -0.3702  0.0061  0.1427
24065W        W80306  20.629  23.041  21.439  0.1623  0.2821 -0.1444
24066W        W80307  26.320  31.530  25.420  0.4582  0.1117  0.2083
24067W        W80308   6.494  10.292   6.568 -0.1169 -0.0551  0.2607
24068W        W80309  28.496  24.388   8.405 -0.2476  0.2843 -0.1862
24069W        W80310  10.494  25.018   0.650  0.3145 -0.1678 -0.0946
24070W        W80311  10.523  14.668  21.700  0.3026  0.2592  0.0813
24071W        W80312  20.058   5.413  24.603 -0.0050 -0.0408  0.0022
24072W        W80313  17.611  10.241  21.225  0.0137 -0.1402  0.2770
24073W        W80314  34.779  22.768  20.560 -0.0790  0.0593  0.0211
24074W        W80315   3.720   0.883  11.575 -0.1225 -0.1443  0.0325
24075W        W80316  25.699  15.667  21.038 -0.1353  0.0037 -0.0565
24076W        W80317  29.766   3.194  19.616  0.1725 -0.0700  0.1721
24077W        W80318  29.270  29.519   0.342 -0.0194  0.3381 -0.2859
24078W        W80319  13.888  33.643   3.051  0.2050 -0.2424 -0.1075
24079W        W80320  22.977   8.287  13.886  0.1402  0.1379 -0.1288
24080W        W80321  12.307  28.367   7.411  0.0916  0.0031  0.1490
24081W        W80322  29.493   3.557  12.158  0.0217  0.0906 -0.1623
24082W        W80323  32.410   4.217  13.155  0.1149 -0.0516  0.0648
24083W        W80324  14.619  30.182  14.061  0.0067  0.1509  0.2801
24084W        W80325   8.246   6.730   4.259  0.2257 -0.0395  0.0736
24085W        W80326   6.566  21.619   6.750 -0.2093 -0.1669 -0.0096
24086W        W80327   7.341  28.564   8.058  0.3825 -0.0177 -0.0788
24087W        W80328  22.636  31.899  20.675 -0.0311 -0.2883 -0.1433
24088W        W80329  16.759   7.551  12.470 -0.2564  0.0452  0.2006
24089W        W80330   0.962  23.890  23.284  0.0245  0.1852 -0.2747
24090W        W80331  18.081  27.554  10.131 -0.1177 -0.1683  0.1870
24091W        W80332  26.333  21.138   9.043 -0.0496 -0.0557  0.0164
24092W        W80333  19.291  14.865   8.057  0.0230  0.1390  0.4680
24093W        W80334   2.104  18.680  11.916 -0.1904 -0.1565  0.2388
24094W        W80335  30.997  14.009  15.981 -0.0358  0.0280 -0.0125
24095W        W80336  26.546   4.603   3.344  0.0877 -0.0496 -0.0510
24096W        W80337  35.153  13.344  12.125  0.3841 -0.0531 -0.2142
24097W        W80338  29.583  34.276   4.945 -0.1582 -0.0714  0.1019
24098W        W80339  18.963  11.527  20.154  0.2944  0.1067  0.1250
24099W        W80340   0.445   0.753   8.265 -0.1377 -0.3628 -0.0908
24100W        W80341  20.948   3.426  24.962 -0.2771 -0.2218 -0.3102
24101W        W80342  14.751  11.499   2.861  0.0514 -0.1034  0.0279
24102W        W80343  34.685  30.581   3.571  0.0705  0.1564 -0.5895
24103W        W80344  32.460  27.347  15.231 -0.2527 -0.0002 -0.1616
24104W        W80345   2.183  17.088  13.920  0.3307  0.0616  0.1524
24105W        W80346  23.350  27.063  22.130  0.2063 -0.0224  0.0170
24106W        W80347   2.095  25.566   4.094  0.2450  0.1138  0.3299
24107W        W80348   8.325  35.237  10.744 -0.0503 -0.0596 -0.3755
24108W        W80349  25.876  30.192  24.055 -0.1773  0.2755  0.1589
24109W        W80350  30.608   1.262  23.835  0.0443 -0.1402 -0.0870
24110W        W80351  24.140   8.892  19.404 -0.3050 -0.1426 -0.2866
24111W        W80352  15.448   5.058  21.093 -0.0726 -0.0267  0.2229
24112W        W80353  21.393   2.455  18.355 -0.1018 -0.0004 -0.2327
24113W        W80354  27.768   2.295   1.237  0.0786 -0.0715 -0.0210
24114W        W80355  35.003  16.565  24.242 -0.0029  0.1412 -0.1836
24115W        W80356   6.911  12.013  24.504 -0.0534  0.3840  0.3103
24116W        W80357  27.314  34.650  12.981  0.1910  0.0710  0.2807
24117W        W80358   3.180   5.399   7.154 -0.1731  0.0464  0.1180
24118W        W80359  32.543  29.099  15.589 -0.2013  0.0217 -0.1679
24119W        W80360  18.041   4.142  18.844 -0.0339  0.0937  0.0051
24120W        W80361  30.960  32.252   1.564  0.0902 -0.0622  0.1253
24121W        W80362  11.059   0.700  21.133 -0.3933  0.1216 -0.0425
24122W        W80363  29.952   7.436  10.524 -0.0698  0.1191 -0.0330
24123W        W80364  22.453   8.964   1.359 -0.0077 -0.2979 -0.1013
24124W        W80365  16.441  12.452   3.934  0.1014  0.0249  0.0913
24125W        W80366  27.326  23.518  24.730  0.1212 -0.2442 -0.0354
24126W        W80367  18.121  10.866  22.772 -0.2193 -0.0843  0.2235
24127W        W80368  13.476  34.007  20.039  0.0095 -0.1274  0.2374
24128W        W80369  19.217  30.037   5.307  0.0614  0.1378 -0.0456
24129W        W80370   1.150  31.945   5.294 -0.0023 -0.0465  0.0477
24130W        W80371  26.778  17.383   5.908  0.1302 -0.3172  0.0462
24131W        W80372  24.719  24.827  18.432  0.1872 -0.0355 -0.0368
24132W        W80373  34.588  34.611  23.398  0.1594  0.1311 -0.0941
24133W        W80374  20.193  10.421   1.717 -0.2399  0.1947  0.1301
24134W        W80375  30.019   9.568  24.320  0.0650  0.0494 -0.0634
24135W        W80376  26.949   0.222  19.095  0.0438 -0.0849  0.1746
24136W        W80377  33.484  27.902  19.773 -0.2656 -0.0128  0.0989
24137W        W80378  24.895  24.248  19.574  0.0482  0.0755  0.2342
24138W        W80379  26.662  34.638   0.942  0.0032 -0.1171  0.2615
24139W        W80380  16.071  14.861   2.621 -0.2112  0.0336 -0.0951
24140W        W80381  20.764   7.194  21.477  0.0416  0.0489 -0.3977
24141W        W80382   5.296  28.966  25.034 -0.2136  0.2608 -0.0105
24142W        W80383   2.413  24.498  25.892 -0.3115 -0.3240 -0.2630
24143W        W80384  16.790   3.184   6.050 -0.0815  0.1129 -0.3559
24144W        W80385  34.065  25.801  25.312  0.0308 -0.0238  0.1147
24145W        W80386   7.328  14.987  23.647  0.4944  0.2298 -0.1723
24146W        W80387  23.403  17.372  19.604  0.0345 -0.1267 -0.0345
24147W        W80388  23.746  29.027   5.547  0.0754  0.1453  0.3962
24148W        W80389  27.736  13.456  15.379  0.0208 -0.0138 -0.0808
24149W        W80390  24.186  29.357   2.071  0.4191 -0.0088  0.1318
24150W        W80391  11.232  14.314  21.495 -0.0450 -0.2024  0.0368
24151W        W80392  31.751  12.562  13.752 -0.0843  0.0574  0.2225
24152W        W80393  31.925   5.481  19.612 -0.0063 -0.0348  0.3178
24153W        W80394  18.597  26.838  21.081 -0.0544  0.1732 -0.0970
24154W        W80395  18.186   3.687  22.738  0.0269 -0.0956  0.1147
24155W        W80396  13.747  18.161  20.783 -0.0052  0.2356  0.2945
24156W        W80397   9.942   2.791  13.587 -0.2824  0.0903  0.0208
24157W        W80398  20.188   0.611  18.401  0.2405  0.1315  0.1853
24158W        W80399  21.491  34.563  17.647  0.2948  0.2182 -0.0872
24159W        W80400  32.459  22.537  13.725 -0.3900 -0.0946 -0.3226
24160W        W80401   6.417   1.652   2.818  0.1270  0.0907 -0.1524
24161W        W80402  28.696  10.851   9.369 -0.2451 -0.2336 -0.1241
24162W        W80403   0.992  22.095   0.527 -0.0979  0.0950 -0.1631
24163W        W80404   4.350  15.693  21.128  0.1625  0.0222 -0.1721
24164W        W80405  14.930  14.168  12.543 -0.0654  0.1543  0.0051
24165W        W80406   4.917  27.634   0.350 -0.0225 -0.0979  0.2287
24166W        W80407   9.711  34.671   1.920 -0.0580  0.0211 -0.0586
24167W        W80408   7.803  31.255   4.730  0.3423 -0.2466 -0.0244
24168W        W80409  17.083   1.943   9.242  0.1619  0.1735 -0.0744
24169W        W80410  25.626  21.207  18.318 -0.1630 -0.0665 -0.0910
24170W        W80411  11.312   1.686   2.343 -0.0697  0.0149 -0.1536
24171W        W80412  10.819  24.710   4.361 -0.3380 -0.1158 -0.2885
24172W        W80413  28.114  31.518  18.848  0.1815 -0.0727  0.1755
24173W        W80414  13.368  29.132  14.734  0.1651  0.0636 -0.1375
24174W        W80415   4.093  26.430   0.761 -0.1953  0.0288  0.2845
24175W        W80416  26.914  19.342  16.434  0.1356 -0.1099 -0.2783
24176W        W80417  34.211  22.690   8.440 -0.1209 -0.1189 -0.0004
24177W        W80418  23.116   1.045  15.566  0.0112 -0.1679  0.2043
24178W        W80419  12.267   1.667  22.575  0.2391  0.1716  0.3101
24179W        W80420  20.734  20.912  26.022  0.1364 -0.1210  0.1121
24180W        W80421  18.710  21.647  24.997  0.0583 -0.0317  0.1960
24181W        W80422   5.300  32.480  24.199  0.3684  0.2331 -0.0077
24182W        W80423  15.511  34.865  26.190 -0.0772  0.0879 -0.2926
24183W        W80424  12.441  31.555   1.343 -0.0266  0.1347 -0.0375
24184W        W80425  13.554  28.976   9.313  0.0879  0.1321 -0.2826
24185W        W80426  24.021  30.222  14.694 -0.2851 -0.0473 -0.0834
24186W        W80427  17.153   5.563   7.533  0.0466 -0.3234 -0.0991
24187W        W80428  24.925  33.717   5.463  0.2165 -0.2814  0.2799
24188W        W80429   3.666  10.415   2.236 -0.2580  0.0618 -0.2904
24189W        W80430  19.221   5.871   7.152  0.2041 -0.4103  0.1090
24190W        W80431   1.544  26.970   2.861  0.1995 -0.1895  0.1391
24191W        W80432  23.579  13.660  13.688  0.2278  0.0532 -0.0133
24192W        W80433  17.044   1.664  18.477 -0.2996 -0.0769  0.0217
24193W        W80434  18.704  18.907  25.063  0.0206  0.2627  0.2076
24194W        W80435  32.943  32.825   6.979 -0.0040 -0.1415  0.1941
24195W        W80436   1.032  19.541  18.801 -0.2088  0.0040 -0.0738
24196W        W80437  22.550  18.909   2.399 -0.1258  0.0465 -0.0223
24197W        W80438   8.341  34.764   9.835 -0.1003 -0.0543  0.3030
24198W        W80439  21.525   2.925   6.677  0.0712 -0.0479 -0.1828
24199W        W80440  14.561  29.955  21.287  0.3095  0.0738  0.1398
24200W        W80441  12.420   0.434   8.155  0.1283 -0.0476  0.3090
24201W        W80442  33.687   2.020   5.893 -0.4518 -0.0263 -0.1452
24202W        W80443  19.601  28.436  23.307 -0.4020 -0.1126 -0.0368
24203W        W80444   8.522  10.061   9.878  0.1207  0.1304 -0.3128
24204W        W80445   8.574   5.281  23.237 -0.0101  0.0678 -0.1767
24205W        W80446   5.596  25.954   0.961 -0.0371  0.0283 -0.1654
24206W        W80447   2.453   6.696  17.495 -0.1783 -0.0173  0.0536
24207W        W80448  32.696  10.387  24.875 -0.2221  0.2032 -0.2933
24208W        W80449  27.465  34.688   4.102 -0.1126 -0.0777 -0.0775
24209W        W80450  31.717  15.498  12.146  0.3425 -0.1211 -0.0376
24210W        W80451   7.890  30.114  21.493 -0.2503 -0.0436  0.0316
24211W        W80452   6.772  28.040   3.229 -0.2063 -0.0297 -0.2672
24212W        W80453   0.170   0.615  25.818 -0.1062  0.0703 -0.1995
24213W        W80454  23.034  34.197   5.258 -0.1217 -0.1077 -0.1724
24214W        W80455  25.930  11.408  25.325 -0.0018  0.1333  0.1599
24215W        W80456  24.888  31.360  16.311 -0.2800  0.0419  0.1999
24216W        W80457   8.314  22.843   7.544 -0.1197 -0.0086 -0.0539
24217W        W80458  31.662  28.182  25.991  0.3065 -0.1914  0.2002
24218W        W80459  34.342  14.233  19.429 -0.0782  0.1248  0.1449
24219W        W80460  31.806   3.153   5.925 -0.1568 -0.0593  0.0534
24220W        W80461  12.022  30.306   7.365 -0.0061 -0.0775  0.2665
24221W        W80462   4.908  15.008   4.181 -0.2717 -0.1275  0.1441
24222W        W80463  23.152   5.769  19.818  0.2166  0.0870 -0.0205
24223W        W80464  13.481  13.390  14.166 -0.1950  0.1067 -0.0146
24224W        W80465  30.974  21.392  25.301 -0.1146 -0.0289  0.2808
24225W        W80466  22.489  12.389  22.555 -0.4559 -0.2899  0.0431
24226W        W80467   3.767  22.849  18.816 -0.0929  0.2004 -0.1809
24227W        W80468  18.482  14.967  17.327 -0.3352 -0.1887 -0.1223
24228W        W80469   4.308  26.315   8.139  0.0495  0.1417  0.0071
24229W        W80470  29.882  32.283  16.429 -0.0692 -0.0676  0.2324
24230W        W80471   2.334  31.000  10.863 -0.0311 -0.0867 -0.0131
24231W        W80472  27.518   6.907   0.378 -0.0660  0.1897  0.1782
24232W        W80473  29.990  26.523   0.296 -0.2668  0.0068  0.0866
24233W        W80474   4.261   4.114  24.113  0.0610  0.1808  0.0450
24234W        W80475   6.147  27.413  11.158  0.2244 -0.0611  0.1223
24235W        W80476  28.663  15.206  20.283  0.1198  0.0305 -0.0395
24236W        W80477   0.804  14.220  25.716 -0.2272 -0.0134 -0.4144
24237W        W80478  19.332  33.566  21.567  0.5494  0.2105  0.3954
24238W        W80479  11.818  34.853  24.661  0.2001  0.1639 -0.0833
24239W        W80480   1.161  17.546  10.326  0.2475 -0.0240 -0.0927
24240W        W80481  19.103   3.988  19.991 -0.1973  0.0511  0.2076
24241W        W80482   3.837  33.241  17.598  0.0044 -0.2478 -0.2589
24242W        W80483  24.720  28.864  13.845 -0.3334  0.1808  0.1883
24243W        W80484  11.509  16.316   2.489 -0.4842 -0.3699  0.0781
24244W        W80485  20.306  24.845   6.059  0.0610 -0.0222  0.2258
24245W        W80486   7.032  13.757   5.790 -0.4016 -0.3969  0.5636
24246W        W80487  15.618   1.877  11.269 -0.0963  0.1897  0.1586
24247W        W80488  13.819   7.305   3.425 -0.3291  0.0349  0.2823
24248W        W80489  20.463   8.786  18.129 -0.1011  0.3573 -0.3130
24249W        W80490  16.263  11.305  23.811  0.0169  0.0693 -0.1577
24250W        W80491   4.909  14.077  19.989 -0.1584 -0.0468  0.0142
24251W        W80492  22.679   9.645  23.247 -0.1939 -0.1960 -0.2430
24252W        W80493   6.080  18.338   7.182 -0.1407 -0.1335 -0.1663
24253W        W80494  21.213   8.622  23.927  0.2989  0.0783 -0.0976
24254W        W80495   9.832  34.950  14.213  0.3916  0.1515 -0.0474
24255W        W80496  24.268   1.832   6.134 -0.0398 -0.1562  0.0047
24256W        W80497  31.234  19.465  16.385 -0.1258  0.0539  0.0649
24257W        W80498  32.328   7.692  16.209  0.1386 -0.1762 -0.0424
24258W        W80499  27.458   6.118   3.199 -0.1989  0.1686 -0.2587
24259W        W80500  15.890  26.075   9.762  0.0453 -0.0462  0.3484
24260W        W80501  23.771  29.602  25.784 -0.0264 -0.0895  0.0820
24261W        W80502  30.492  30.707  24.811  0.0300  0.0947 -0.0795
24262W        W80503  13.813  21.365   4.562 -0.1801 -0.0529  0.1844
24263W        W80504   0.926   4.554  24.458  0.0035 -0.2395  0.0247
24264W        W80505   5.407  30.376   1.555 -0.0551  0.0896  0.0092
24265W        W80506   3.575   7.033   4.090 -0.3364  0.0662  0.0451
24266W        W80507  33.268   1.071  19.256 -0.1420 -0.1581 -0.2353
24267W        W80508  22.103  15.167  18.111  0.1262  0.0350 -0.0042
24268W        W80509   6.658  14.117   5.720  0.2324  0.3510 -0.0050
24269W        W80510  10.963  33.064  25.003  0.0044  0.2295 -0.0934
24270W        W80511  14.507   8.221  22.981  0.0141  0.2440 -0.1332
24271W        W80512  14.600  10.016   1.655 -0.0419  0.0036  0.1597
24272W        W80513   6.349  27.850   0.640 -0.0076  0.1052  0.0334
24273W        W80514  24.898  27.519  20.173  0.0717  0.0393  0.2636
24274W        W80515  14.182  31.196  14.760 -0.0174  0.0449  0.3806
24275W        W80516  17.600   4.880   7.107  0.1803 -0.2786  0.2380
24276W        W80517  17.932  30.064  20.171  0.1245  0.0828 -0.4181
24277W        W80518   3.476  13.468   1.894 -0.1437 -0.0261 -0.0619
24278W        W80519  13.940   0.554   7.282 -0.1571  0.0130  0.2428
24279W        W80520  30.717   6.567  13.127  0.2044 -0.4380  0.2321
24280W        W80521  27.117   7.584  19.587 -0.0303 -0.1058  0.2144
24281W        W80522  32.072  12.594  19.323  0.0698  0.1950 -0.0340
24282W        W80523   5.889   6.554  19.169  0.1667 -0.4699 -0.1527
24283W        W80524  20.604  24.501  17.753  0.3054 -0.0089  0.1845
24284W        W80525  12.608  10.819  10.726 -0.0221  0.2426 -0.1307
24285W        W80526  25.717  10.873   9.694 -0.0247 -0.1199 -0.0701
24286W        W80527  27.685  29.579  13.691  0.5587  0.0587  0.0360
24287W        W80528   5.573   5.126  20.593  0.1135 -0.0267 -0.0014
24288W        W80529  14.804  13.926   2.970  0.2408  0.3553 -0.1564
24289W        W80530  31.219  29.103  15.137 -0.1007 -0.1990  0.2032
24290W        W80531   1.037   7.257  17.011  0.4304  0.0708 -0.0061
24291W        W80532   6.037  33.873  25.854  0.0298  0.1203 -0.0917
24292W        W80533  29.142  16.291  24.053  0.0215  0.1962 -0.0805
24293W        W80534  19.056  31.462  15.405 -0.0334  0.0848 -0.0797
24294W        W80535  33.672   3.390  12.096 -0.0529  0.0758  0.2405
24295W        W80536  28.457  33.251  14.148  0.2405 -0.2408  0.2879
24296W        W80537   0.684   8.946   1.395 -0.0324 -0.0922 -0.1958
24297W        W80538  22.712  26.046   2.224 -0.0529 -0.1905 -0.0431
24298W        W80539   9.780  27.767   3.816 -0.3959 -0.0315 -0.0502
24299W        W80540   0.094   0.765   5.127  0.0049 -0.1657 -0.3350
24300W        W80541  34.209   7.594  25.007  0.0635  0.4101  0.1046
24301W        W80542  19.777  30.042   8.325 -0.0998  0.1264 -0.1738
24302W        W80543  32.259  18.756  22.095  0.1131 -0.0896  0.0236
24303W        W80544   7.947  17.084  20.856  0.0330  0.0967 -0.1270
24304W        W80545  26.662   1.921  17.548 -0.0996 -0.2463 -0.0098
24305W        W80546  26.027  11.604  13.538 -0.1496 -0.0458 -0.1748
24306W        W80547  26.611  14.172  14.377  0.0782  0.1556 -0.0531
24307W        W80548  25.873   1.336  18.118  0.0179 -0.0572 -0.0596
24308W        W80549  11.062  19.771   4.283 -0.3492 -0.1528  0.0766
24309W        W80550  23.768  27.339  20.451 -0.0051  0.2600  0.1288
24310W        W80551  16.984  17.604  23.862  0.2182  0.2748 -0.0892
24311W        W80552  19.557  24.136   1.137  0.0630  0.0277  0.2129
24312W        W80553  35.248  10.985  18.597 -0.3748 -0.2439  0.2783
24313W        W80554  17.998  23.535  25.418  0.1368 -0.0965 -0.1803
24314W        W80555   2.421  35.069   0.336  0.0162  0.1836  0.3117
24315W        W80556  29.988  12.065  14.255 -0.1719  0.0451 -0.1962
24316W        W80557  35.143  26.404  25.481 -0.0526  0.0905  0.2133
24317W        W80558  24.689  31.174  20.451 -0.1105  0.1493 -0.2201
24318W        W80559  13.457  31.246  14.021  0.0928  0.3307  0.0460
24319W        W80560  20.793  22.055  17.847  0.1510  0.0384 -0.1002
24320W        W80561   9.035  14.251   5.114 -0.0882 -0.1726 -0.4067
24321W        W80562  34.061  21.065  15.864  0.0730 -0.1018  0.0430
24322W        W80563  11.718  24.025  16.617 -0.1337 -0.0078 -0.1686
24323W        W80564  25.141  16.423  16.924 -0.1424  0.1286  0.3184
24324W        W80565  34.294  20.585  11.125 -0.1650  0.1753  0.4576
24325W        W80566  21.228  25.496  20.950  0.2729 -0.0961 -0.0156
24326W        W80567  23.487  12.673   0.842 -0.0818  0.0674 -0.1444
24327W        W80568   1.687  16.823  17.523 -0.0121 -0.2720 -0.1933
24328W        W80569   6.570  26.835  22.868 -0.1844 -0.1606 -0.0445
24329W        W80570   2.901  28.594  21.779 -0.2192  0.1546  0.0826
24330W        W80571  12.842  17.265   0.857  0.2367 -0.1329 -0.1245
24331W        W80572  28.515  29.323  15.683  0.0293  0.2855  0.2241
24332W        W80573  17.115  23.770  26.043 -0.0952 -0.0942  0.0926
24333W        W80574  23.804   0.110  24.462  0.1451  0.0417 -0.0641
24334W        W80575  14.520  17.191  20.133 -0.0781  0.1158 -0.1128
24335W        W80576  30.626  14.308  25.077 -0.0927  0.0408  0.2888
24336W        W80577  18.629  23.346   9.570  0.3003 -0.0389  0.2738
24337W        W80578  19.000   7.621  22.523  0.4308 -0.0902  0.1086
24338W        W80579  24.674   1.214  18.453  0.1097  0.1414  0.1563
24339W        W80580  25.281  11.125  21.468  0.2862  0.0989 -0.0666
24340W        W80581   8.609  31.791  12.273  0.0520  0.0354 -0.2290
24341W        W80582   5.450   5.591  25.794 -0.0403 -0.2629 -0.1569
24342W        W80583  14.125  12.190   2.007  0.1071 -0.2487 -0.1224
24343W        W80584  22.880  29.611   1.737  0.2208  0.0636 -0.0116
24344W        W80585  14.497   9.788  24.837  0.3138 -0.0417 -0.1056
24345W        W80586  20.675  11.271   6.714 -0.2389  0.2387 -0.2795
24346W        W80587   4.967  15.077  22.527  0.1474 -0.4308  0.0456
24347W        W80588  14.802  31.261  12.446  0.2173 -0.1925 -0.1489
24348W        W80589  11.143  27.296   6.060  0.1734 -0.0198 -0.1875
24349W        W80590   8.886   6.757  20.850 -0.0960  0.0999  0.1909
24350W        W80591   1.423  27.968   6.267  0.2579  0.1642 -0.2578
24351W        W80592  12.405  15.827   8.268 -0.0847 -0.0844  0.0435
24352W        W80593  15.899  34.797   0.724  0.1402 -0.1327  0.1658
24353W        W80594   1.735  12.235  12.585 -0.1400 -0.1571 -0.0941
24354W        W80595  10.235  29.495  22.619 -0.1083 -0.1256 -0.0411
24355W        W80596  29.278  15.860   8.890 -0.0037  0.1108  0.0803
24356W        W80597  29.918  32.311   4.941 -0.0410 -0.2614  0.1186
24357W        W80598   8.058  20.172   1.528 -0.0399 -0.1500 -0.0905
24358W        W80599  11.112   5.458  14.357  0.0517 -0.0753 -0.0389
24359W        W80600   4.836  27.659   3.882 -0.0587  0.0761  0.1983
24360W        W80601  30.328  14.560   9.910 -0.0457  0.1076  0.0874
24361W        W80602   0.263   1.366  14.552  0.1124 -0.1401  0.2806
24362W        W80603  29.162  31.338   2.130 -0.0822  0.4684 -0.0612
24363W        W80604   7.026  14.049   8.081  0.1007 -0.3586  0.0389
24364W        W80605   9.642  28.495  24.578 -0.4343  0.1304 -0.1743
24365W        W80606  33.929  17.696  17.404  0.3542  0.0168 -0.0359
24366W        W80607  19.098  16.763  22.323 -0.0141  0.3463 -0.3745
24367W        W80608   5.538  23.509   8.997  0.1013 -0.1303  0.2704
24368W        W80609   0.607  22.978   2.479 -0.1079 -0.0896 -0.0210
24369W        W80610  27.478  15.283  12.826  0.0951 -0.1585  0.2112
24370W        W80611   4.512   2.773   8.422  0.0862 -0.3218 -0.1838
24371W        W80612  32.095  18.059  20.433 -0.1829  0.0619 -0.1132
24372W        W80613  18.430   3.474  15.856  0.0318 -0.1596 -0.2489
24373W        W80614   5.147  16.478  25.312  0.2311 -0.2741 -0.2914
24374W        W80615  14.002  14.391   3.239  0.3393  0.0594  0.1447
24375W        W80616  12.148   5.600   6.559  0.1726 -0.0914  0.2596
24376W        W80617  18.967  26.956   9.180  0.2392  0.0567 -0.2202
24377W        W80618  18.520   9.041  18.219 -0.0184 -0.2562  0.0485
24378W        W80619  19.835   6.602   0.132 -0.2011  0.1858  0.2187
24379W        W80620   8.887  29.821  14.443 -0.0424  0.0916  0.1463
24380W        W80621  11.654  28.402   2.501 -0.0935  0.0150 -0.1322
24381W        W80622  11.813  11.768   5.363 -0.1750 -0.0889  0.0805
24382W        W80623   8.126  11.669  11.596  0.0008  0.0046 -0.0288
24383W        W80624  16.885  20.919   0.100 -0.0910 -0.1676  0.3303
24384W        W80625  27.175  30.352   1.117 -0.3434  0.0647 -0.3501
24385W        W80626  18.266   9.021   3.720  0.1912 -0.0028 -0.1099
24386W        W80627  16.400  33.786  18.363  0.0155 -0.1925 -0.3232
24387W        W80628  33.764  14.725  17.329 -0.2332 -0.0003 -0.0807
24388W        W80629  26.822  19.908  21.927 -0.2060  0.0451  0.2712
24389W        W80630  24.705  34.345  13.935  0.0186 -0.1275 -0.2062
24390W        W80631   5.007  14.431   0.864 -0.0211  0.0591 -0.2647
24391W        W80632  13.830   2.120  25.445 -0.0898 -0.4291 -0.0920
24392W        W80633  25.773  24.855  22.378  0.2093 -0.0994  0.1708
24393W        W80634   6.474  10.504  17.270  0.1045 -0.1328 -0.1678
24394W        W80635  30.245  18.438  13.975  0.1153 -0.0251 -0.0783
24395W        W80636  28.463   9.994  18.646  0.0795 -0.0346  0.0442
24396W        W80637  11.843  25.746   1.807  0.1723 -0.0468 -0.1658
24397W        W80638  34.168   8.327  25.212  0.1173  0.0720  0.0460
24398W        W80639   6.049  18.524   5.800 -0.1727 -0.1132 -0.0977
24399W        W80640   1.974  34.776   7.627 -0.0716  0.3935 -0.3567
24400W        W80641  15.541  32.987   1.768 -0.2097 -0.2280 -0.0927
24401W        W80642  26.632  17.462  20.398  0.1665  0.2708 -0.1505
24402W        W80643  14.335  27.329   8.625 -0.0519  0.0972 -0.0193
24403W        W80644  14.377   5.257   1.736 -0.1802  0.1747  0.2526
24404W        W80645  24.529  29.178   3.951  0.0442 -0.1016 -0.2178
24405W        W80646  13.966   9.307   7.388  0.1253  0.2708  0.0033
24406W        W80647  13.805   4.632  12.363  0.1228 -0.0399  0.0848
24407W        W80648  27.182  17.805  22.337 -0.2870 -0.2512  0.1035
24408W        W80649  18.402  22.747   1.107 -0.2694 -0.0206 -0.0590
24409W        W80650  23.788   8.158  17.215 -0.3462  0.2816 -0.0468
24410W        W80651  11.037  26.986  11.639  0.1319 -0.2570 -0.0664
24411W        W80652  32.131  19.482  11.377  0.0970  0.1152 -0.1592
24412W        W80653  29.829   2.733  15.288  0.0750  0.0328  0.0676
24413W        W80654  22.934  28.760  11.263 -0.0615  0.2517  0.0549
24414W        W80655  16.800  22.510  24.200 -0.4119  0.0274  0.0010
24415W        W80656  34.543  28.538   1.919 -0.0113 -0.2042 -0.1241
24416W        W80657  33.306  34.463   0.240 -0.3633 -0.2807  0.1628
24417W        W80658   4.160   0.362  20.773 -0.1123  0.1992 -0.0335
24418W        W80659  29.325  30.435  24.449 -0.0789 -0.1900 -0.0100
24419W        W80660  24.118  27.251  16.196 -0.0128 -0.0025  0.2028
24420W        W80661  17.358   0.618  19.614 -0.2518  0.0828 -0.2151
24421W        W80662  13.675   3.531  24.639 -0.1475  0.0380 -0.2894
24422W        W80663  16.558   7.668   6.867 -0.2994 -0.1337 -0.2869
24423W        W80664  11.682  10.018  19.494 -0.2494  0.0530  0.0088
24424W        W80665  19.019  34.195  19.637 -0.2116  0.0341  0.1144
24425W        W80666  33.139  34.966  22.631  0.0446 -0.0170  0.0394
24426W        W80667  13.043  22.006  12.592  0.0929 -0.0695 -0.1215
24427W        W80668  10.252  27.811  24.116 -0.2549  0.0688  0.0878
24428W        W80669  12.657   1.605   0.354  0.0267  0.1282  0.0711
24429W        W80670  25.706  30.801  22.528 -0.0946  0.0330 -0.1891
24430W        W80671  12.143  13.526   3.486  0.1034 -0.0628  0.0832
24431W        W80672  16.689  30.962   9.165 -0.3296 -0.2385 -0.2287
24432W        W80673  10.781  27.323   9.274 -0.1094 -0.1776  0.1835
24433W        W80674  32.349  33.260  13.667 -0.1565 -0.2443 -0.1894
24434W        W80675  24.740  14.664   8.961  0.0938 -0.1229 -0.2152
24435W        W80676  19.092   8.990  19.226 -0.3463  0.1069  0.0535
24436W        W80677  22.528  27.700  22.782  0.0009  0.1538 -0.1674
24437W        W80678  25.945  30.444   3.809 -0.0139 -0.0567 -0.0702
24438W        W80679  27.521   5.687  18.467  0.1837  0.1014  0.0518
24439W        W80680   2.018  14.746  15.470 -0.0992 -0.4125 -0.2980
24440W        W80681   2.086  14.569  19.200  0.3712 -0.0288  0.0124
24441W        W80682  15.655  10.974  26.188 -0.0150  0.1712  0.0104
24442W        W80683   4.586  28.123  12.768 -0.1014  0.1984 -0.0977
24443W        W80684  21.150  23.348  24.192 -0.0143  0.1149  0.0198
24444W        W80685  22.931   1.581  19.997  0.1571  0.2957 -0.0936
24445W        W80686  32.235  17.540   9.826  0.3266  0.0231  0.1417
24446W        W80687  25.206  19.107  14.965 -0.2981  0.2564  0.0737
24447W        W80688  21.296  16.253   4.394 -0.1185  0.2481 -0.1699
24448W        W80689  20.307   1.548  17.298 -0.4092 -0.1131 -0.1593
24449W        W80690  24.351  14.558  20.295 -0.1397  0.1810  0.2273
24450W        W80691   1.542  21.601   1.734 -0.3640 -0.0645  0.0829
24451W        W80692  25.351  31.653  20.143  0.0531  0.1306  0.1060
24452W        W80693   7.585  28.123   9.679  0.2570 -0.0214  0.1192
24453W        W80694   9.502  29.833  24.960 -0.1231 -0.2080 -0.1525
24454W        W80695   0.905  16.113  18.120 -0.3747 -0.2179 -0.2024
24455W        W80696  27.389   0.495   4.729 -0.0641 -0.0463 -0.0200
24456W        W80697  15.168  18.990  10.425  0.0366  0.1890 -0.1728
24457W        W80698  27.553  26.335  24.238 -0.1947  0.0912 -0.1666
24458W        W80699   6.979  31.088   9.135  0.0868  0.1364 -0.1229
24459W        W80700  12.247   7.889   9.749  0.1782  0.0027  0.2083
24460W        W80701  32.600   5.295  24.854  0.0046 -0.2559 -0.0747
24461W        W80702  29.296  16.019  12.968  0.0963 -0.0747  0.1637
24462W        W80703  20.547  27.508  19.781  0.2347 -0.0988 -0.2356
24463W        W80704  29.231  18.494  25.974 -0.1020 -0.0025 -0.1171
24464W        W80705   0.193   6.496  13.212  0.0524  0.0307  0.1029
24465W        W80706  32.337  33.558  25.304 -0.1517  0.5018 -0.3050
24466W        W80707  24.493  28.060  23.053  0.1651  0.6060  0.0096
24467W        W80708  27.936   2.166  24.113 -0.1780 -0.0644 -0.1231
24468W        W80709   7.026   0.954   2.620  0.3307 -0.1226 -0.0400
24469W        W80710  13.646  15.175   0.085 -0.1686  0.1795  0.1051
24470W        W80711  19.908  19.622   8.819 -0.3469 -0.2510 -0.1955
24471W        W80712  34.224  27.521  12.976  0.2658 -0.0956 -0.2661
24472W        W80713  14.656  15.653   1.683  0.2928 -0.2558  0.2302
24473W        W80714  24.181  27.949   9.767 -0.3341 -0.2061  0.2070
24474W        W80715  18.992  26.584   7.707 -0.2470 -0.0911 -0.3116
24475W        W80716  29.813   9.426  13.530 -0.2511  0.3083  0.0475
24476W        W80717  14.985  18.908   5.542  0.0018 -0.1177  0.1997
24477W        W80718  12.038   5.020  18.574  0.0655 -0.0190 -0.0978
24478W        W80719   6.796  23.113  23.885 -0.1124  0.0210 -0.0715
24479W        W80720   1.072  10.235  20.676 -0.0879  0.4777  0.0109
24480W        W80721  31.323  20.427  12.333 -0.1359  0.0105 -0.0180
24481W        W80722  33.334  31.301  13.990 -0.3138 -0.3352 -0.1687
24482W        W80723  24.192  31.241  23.328 -0.0270  0.1355 -0.0024
24483W        W80724  12.665  27.305  14.896  0.2352 -0.2181  0.0033
24484W        W80725  18.193  18.658  22.817  0.2766 -0.0431 -0.1784
24485W        W80726  34.874  25.868   3.020 -0.1636  0.1537  0.4032
24486W        W80727  27.352  29.925  21.453 -0.1992  0.2343 -0.1013
24487W        W80728  21.657  33.717  22.503  0.2428 -0.2161  0.0286
24488W        W80729  13.510  34.076   8.524 -0.0313 -0.2521 -0.3497
24489W        W80730  31.879   0.932  23.157  0.0997 -0.1736  0.3592
24490W        W80731  17.637  28.520  22.900  0.2353 -0.0792  0.0720
24491W        W80732  16.237  30.136  24.241 -0.0030 -0.2626 -0.0884
24492W        W80733  21.871   0.245   3.405 -0.2203 -0.3153  0.2391
24493W        W80734   8.191  26.321   4.051 -0.2058  0.0963 -0.0690
24494W        W80735  19.079   2.719  10.121 -0.0410  0.1199 -0.0965
24495W        W80736   3.853  31.101  19.602 -0.1497 -0.0700  0.0116
24496W        W80737  24.866   3.748  19.279 -0.0171 -0.0753  0.0407
24497W        W80738   9.241   0.106  12.268  0.1976 -0.2098  0.0228
24498W        W80739  30.935   3.453   3.542  0.0547 -0.2237 -0.0147
24499W        W80740  35.284  28.798   2.663  0.0784 -0.1116  0.4891
24500W        W80741   2.079  12.834   3.746  0.1067 -0.0856  0.0474
24501W        W80742  20.282  32.406   4.185 -0.0164 -0.2732  0.2729
24502W        W80743   3.465  13.738  23.856  0.2339 -0.0002 -0.0429
24503W        W80744  22.274  24.043  17.094  0.0807 -0.0640  0.1262
24504W        W80745  26.295  28.877  12.700  0.2911  0.2192  0.1761
24505W        W80746  33.388  25.020  11.535  0.0023  0.0792  0.1675
24506W        W80747  30.543  12.313  18.356  0.1682 -0.3969  0.1820
24507W        W80748  33.413  17.679  11.228 -0.1234  0.0529 -0.2098
24508W        W80749  16.214   4.514   3.579  0.1149  0.3312 -0.1324
24509W        W80750  12.730  14.952   2.447  0.0757 -0.4251 -0.3574
24510W        W80751  30.040   6.147  12.526 -0.0341 -0.2718  0.2267
24511W        W80752  19.914   4.779  19.727 -0.0742 -0.0102 -0.0157
24512W        W80753   8.364   5.630  11.695 -0.2191  0.0659  0.2951
24513W        W80754  11.263  23.264  15.852  0.1262  0.0968 -0.1308
24514W        W80755  27.352   5.344  16.555  0.0473 -0.0044 -0.1223
24515W        W80756  32.401  17.875  11.370  0.1096  0.1904  0.0566
24516W        W80757   0.530   1.855  19.322 -0.0172  0.0474 -0.0378
24517W        W80758   0.594   0.791   0.439  0.2626  0.1986  0.1461
24518W        W80759  16.204  22.729   1.588 -0.1746  0.1077 -0.1323
24519W        W80760  30.279   0.948  17.825  0.0917 -0.3489 -0.2768
24520W        W80761   5.569  15.152   9.362 -0.5020 -0.2631  0.1844
24521W        W80762  18.357  26.209  24.923 -0.0925 -0.0648 -0.0627
24522W        W80763  23.305  23.798  15.824  0.0670  0.0339  0.1867
24523W        W80764  31.559   8.572  18.658 -0.0241  0.5299 -0.1692
24524W        W80765   2.947  28.136  21.909 -0.0376  0.1123 -0.0626
24525W        W80766   9.430   3.224   1.025  0.0188  0.0905 -0.2254
24526W        W80767   0.111  29.547  20.294 -0.2452 -0.3459 -0.1614
24527W        W80768  24.598   6.542  17.536 -0.0313  0.1426  0.0805
24528W        W80769  33.602  21.719   6.863  0.0780  0.2909  0.2666
24529W        W80770  14.053  10.643  13.857 -0.2002  0.2349  0.0542
24530W        W80771  16.057  35.057   7.200 -0.0554  0.0372 -0.2189
24531W        W80772   4.129  17.226  22.439  0.2841  0.3359  0.1434
24532W        W80773  22.651  11.227   1.122  0.0069  0.3598 -0.3060
24533W        W80774  33.056   2.224  15.496 -0.0571  0.0475 -0.3498
24534W        W80775  20.412  14.086  18.207 -0.1131 -0.1005 -0.1222
24535W        W80776  33.643  18.706  14.021  0.4112  0.0000 -0.0297
24536W        W80777  11.848  22.588   1.718  0.0655 -0.1012 -0.0175
24537W        W80778  27.725  23.366   9.378 -0.1939  0.0163  0.2189
24538W        W80779  31.243  26.457  12.124 -0.0001  0.1432 -0.1603
24539W        W80780  30.779  21.437  15.665  0.0827 -0.2661  0.3128
24540W        W80781   2.016  17.260  13.469 -0.0628 -0.0671 -0.1641
24541W        W80782   7.726  34.243  15.365 -0.0971  0.1185 -0.2168
24542W        W80783  27.529  10.570  25.923  0.1362 -0.2599  0.0699
24543W        W80784   4.609  27.677  11.535  0.0250 -0.0167 -0.3104
24544W        W80785  31.312  26.615  11.661  0.1332 -0.0156 -0.1156
24545W        W80786   9.408  33.039   6.956  0.0761 -0.1734  0.0132
24546W        W80787   8.338   6.199  10.867  0.0706 -0.0265 -0.2088
24547W        W80788  21.314   1.518  19.919  0.1392 -0.3015 -0.0593
24548W        W80789  16.242  24.454   2.708  0.0692  0.1267 -0.0564
24549W        W80790   1.042  29.730  18.477 -0.2090  0.0160  0.0648
24550W        W80791   4.693  14.980  16.966  0.0400  0.2643  0.0400
24551W        W80792  15.869  10.166   6.159  0.1206 -0.1469  0.3841
24552W        W80793   4.994  26.193   8.843 -0.3560  0.0446 -0.0769
24553W        W80794   3.303  31.113  10.967  0.0633  0.1236  0.0283
24554W        W80795  13.053  22.403  16.474  0.3248 -0.3864  0.0393
24555W        W80796  17.818  14.584   8.080 -0.0925  0.0196  0.2618
24556W        W80797   4.371   0.220  24.734  0.2680 -0.0857 -0.0166
24557W        W80798   4.922   1.079  10.367  0.0501 -0.1707 -0.0877
24558W        W80799   7.433   6.622   1.964  0.4023  0.0061 -0.1679
24559W        W80800  11.957  23.198   8.551 -0.3270 -0.3310 -0.3333
24560W        W80801  11.567  14.243  21.055  0.1878 -0.0400 -0.0783
24561W        W80802  28.347  20.562  13.226  0.0262  0.1070 -0.2216
24562W        W80803  33.245   6.524  26.100 -0.2328 -0.2379 -0.3563
24563W        W80804  34.624  10.884   0.518  0.1078 -0.1235  0.1250
24564W        W80805  32.819   1.871   1.630  0.0969  0.1785 -0.2807
24565W        W80806  14.675   2.993   1.633 -0.0210  0.2646  0.1742
24566W        W80807  31.059  17.067  18.265 -0.2044 -0.0655 -0.0118
24567W        W80808  28.786   2.533  21.153 -0.2787  0.2983 -0.2396
24568W        W80809  16.857  32.180   8.109  0.3142 -0.0465  0.2672
24569W        W80810  16.442  32.714  21.195 -0.0357  0.0104  0.2698
24570W        W80811   5.762  12.409  16.950 -0.1226 -0.1294 -0.0126
24571W        W80812  23.945  17.325   0.306  0.2720  0.1341  0.2299
24572W        W80813   7.137   4.201   0.330 -0.2384 -0.2073  0.0101
24573W        W80814  14.178  34.590  22.970 -0.0389  0.1293 -0.2485
24574W        W80815  12.695  30.073  22.712 -0.0886 -0.0285 -0.0138
24575W        W80816  18.295  17.924   2.789  0.0539 -0.2964 -0.2888
24576W        W80817   1.374   1.188  18.172 -0.2766 -0.0483  0.2584
24577W        W80818  19.863   1.360  19.748 -0.2231 -0.1051 -0.3526
24578W        W80819  34.794  24.417  21.660  0.1552 -0.6129  0.0709
24579W        W80820  32.553  13.516  11.480  0.0243 -0.1890 -0.0060
24580W        W80821  34.341   0.721  22.829 -0.0350  0.1881 -0.2032
24581W        W80822  17.731  31.095   9.536  0.0627  0.1146 -0.2815
24582W        W80823  17.245  23.564  10.415  0.1743  0.0393 -0.3159
24583W        W80824  19.822  32.638   1.883 -0.0968  0.1906  0.3606
24584W        W80825  24.999   7.279  16.829  0.2820  0.0801 -0.2785
24585W        W80826  21.275   0.905  19.296 -0.0142 -0.1905  0.0463
24586W        W80827   4.151  21.871   2.198 -0.2063  0.0611 -0.1955
24587W        W80828  18.401   7.353   1.062  0.1322 -0.2240  0.1236
24588W        W80829   7.792  15.624  25.088  0.0254  0.0796 -0.0027
24589W        W80830   9.154  16.383   9.669  0.1015  0.1574 -0.0666
24590W        W80831   3.235  16.801   1.591  0.1585  0.2877  0.0249
24591W        W80832   3.892  16.513  19.900  0.0080 -0.3042 -0.1896
24592W        W80833  24.397   4.626   0.180  0.0385  0.4270  0.1348
24593W        W80834  10.518   8.670  22.352  0.1339 -0.1130 -0.2486
24594W        W80835   1.844   3.726  18.032 -0.0462  0.2259  0.1265
24595W        W80836   3.839  20.477  25.296  0.0740  0.0557  0.1394
24596W        W80837   2.608  14.028  22.172  0.1380  0.3145 -0.2003
24597W        W80838  32.393  33.346   4.452 -0.5503  0.1565  0.0645
24598W        W80839  33.944  24.627   1.124  0.1242 -0.0219  0.2144
24599W        W80840  30.515  27.772   2.743  0.0664  0.3382  0.1783
24600W        W80841  24.219  10.547  22.108  0.0138 -0.1222 -0.2141
24601W        W80842   7.277   0.200   4.672  0.2674  0.0077 -0.2640
24602W        W80843  34.123  16.587  10.468 -0.2006  0.1596  0.4234
24603W        W80844  10.230  22.298   5.642  0.1458  0.0910  0.2393
24604W        W80845  10.348   9.972   4.745  0.0744 -0.0707 -0.0732
24605W        W80846   8.109  15.342   1.674  0.0167  0.0815  0.0732
24606W        W80847   3.657  25.878  23.808  0.2565  0.0309  0.2668
24607W        W80848  22.722   0.947   3.137  0.1403 -0.0447 -0.2015
24608W        W80849  24.305  19.822  19.343  0.0784 -0.1604 -0.0490
24609W        W80850  26.588  34.114   3.647 -0.1886  0.1705 -0.1997
24610W        W80851  12.797  17.063  20.461 -0.0098 -0.0962 -0.0174
24611W        W80852  14.176  22.924  15.805 -0.2456 -0.0911 -0.1965
24612W        W80853   4.197  17.366  22.896  0.0867 -0.2358 -0.1006
24613W        W80854   0.212  13.606  15.638  0.2085  0.1858 -0.1582
24614W        W80855  22.028  15.440   0.078  0.4551 -0.5284  0.4455
24615W        W80856  32.418  18.241  20.106 -0.3324  0.3855 -0.1037
24616W        W80857  27.582  33.032  22.398 -0.1839  0.3660 -0.0125
24617W        W80858  10.837  25.010   1.454  0.0713  0.0207  0.1925
24618W        W80859   1.775   8.016  17.469 -0.0935  0.0187 -0.0908
24619W        W80860  33.773  33.872   1.273 -0.0498 -0.0020 -0.2448
24620W        W80861  22.025  28.367  25.049  0.0239  0.4378 -0.3646
24621W        W80862  21.835  28.690  24.504 -0.0804  0.0075  0.1655
24622W        W80863  23.939   0.791  15.663  0.0964  0.1452 -0.0135
24623W        W80864  23.652   7.796  21.654 -0.2556 -0.3088 -0.0593
24624W        W80865  32.886  22.860  22.557  0.2367  0.3470  0.0921
24625W        W80866  18.998  13.164   6.099 -0.2885  0.2479 -0.3130
24626W        W80867   8.773  20.681   8.680 -0.4493  0.1390 -0.0537
24627W        W80868  16.745  30.241   4.606 -0.1449  0.0236 -0.1434
24628W        W80869  30.220  24.048  12.240 -0.0585  0.4572 -0.0861
24629W        W80870  35.047  33.610   1.453  0.0005  0.0139 -0.3388
24630W        W80871   2.546  21.506   2.686 -0.0748  0.1688  0.0897
24631W        W80872  26.174  35.324  17.382  0.4318 -0.1047  0.0989
24632W        W80873  31.495  15.836   7.302  0.0734 -0.2992  0.0744
24633W        W80874  27.114   4.954  13.996  0.1597 -0.0360  0.1517
24634W        W80875   6.737  23.909  23.162 -0.1266 -0.0612  0.0904
24635W        W80876   1.011  25.469  21.440  0.1412  0.0486 -0.0258
24636W        W80877  33.023  27.345  18.308  0.1559 -0.1735  0.0777
24637W        W80878  27.838  13.325  11.896  0.0715 -0.2501  0.0059
24638W        W80879  30.326  25.065  17.239 -0.1461 -0.1757  0.1575
24639W        W80880  14.108  25.374   0.911 -0.4123 -0.0074  0.2123
24640W        W80881  23.115  18.491  21.383 -0.0550 -0.0506  0.0793
24641W        W80882  26.978   6.370  22.840 -0.2717  0.1918  0.0264
24642W        W80883  25.392  34.152  25.819 -0.1725 -0.1050  0.1733
24643W        W80884  16.085  20.270   0.854  0.1962  0.3670 -0.0771
24644W        W80885  24.122  21.702  21.774  0.0565  0.1959  0.0880
24645W        W80886  27.415  30.535   3.534  0.1753 -0.0903  0.1431
24646W        W80887  16.789  30.908   2.272 -0.1680 -0.0495  0.2082
24647W        W80888   9.174  18.038   6.445 -0.2035  0.0228  0.2419
24648W        W80889  26.886  16.519   9.865 -0.0426  0.0905 -0.0018
24649W        W80890   9.692  30.272   5.696 -0.0513 -0.1220 -0.0981
24650W        W80891   9.117  21.288  10.249 -0.2615 -0.0237  0.2247
24651W        W80892   7.119   9.559  11.426  0.0227 -0.0666 -0.4834
24652W        W80893  32.891   5.844   5.070 -0.2738 -0.1249  0.0781
24653W        W80894  30.011   4.148  21.001  0.3301  0.2848 -0.3226
24654W        W80895   4.321   1.030  19.008 -0.0452 -0.0303  0.1585
24655W        W80896  34.790  30.397  19.698  0.0613 -0.0974  0.0480
24656W        W80897   9.314  20.033  25.850 -0.2579  0.0390  0.0414
24657W        W80898   1.309  18.507   1.885 -0.0816  0.2204  0.0833
24658W        W80899  33.491  32.519  23.225  0.0244 -0.1823  0.0138
24659W        W80900   9.294  20.342  11.972 -0.1013  0.2437  0.2054
24660W        W80901   3.539  17.840  21.076 -0.0536 -0.0530  0.2246
24661W        W80902  34.001  24.664  24.851 -0.4518  0.0058 -0.3772
24662W        W80903   5.391   1.772  21.335  0.0047 -0.3287 -0.2349
24663W        W80904  32.470  11.264   8.757 -0.0827 -0.1402 -0.0695
24664W        W80905  32.972  15.048  17.728  0.1369  0.0659 -0.1003
24665W        W80906  27.553  16.021  25.328 -0.2325  0.0530  0.0406
24666W        W80907   2.209  23.625  17.867 -0.0607  0.2281  0.1371
24667W        W80908  31.171   8.646  14.476  0.1957  0.0554  0.1153
24668W        W80909   7.666  33.357  22.204  0.2379  0.0168 -0.2119
24669W        W80910   7.877  34.450   4.541  0.0270 -0.3634  0.4942
24670W        W80911  22.333   4.641  18.305  0.0167  0.0606 -0.0188
24671W        W80912  21.004   2.826  25.806 -0.0089 -0.2263 -0.0041
24672W        W80913  10.893  27.150  15.211  0.0557 -0.2070  0.4339
24673W        W80914   3.786  28.024  22.221 -0.2053 -0.0912 -0.0801
24674W        W80915  19.137  28.737   8.182 -0.4409 -0.1216 -0.1909
24675W        W80916  22.194  27.971   1.881  0.0149 -0.0175  0.2146
24676W        W80917  26.328  17.238  17.665  0.1141  0.1791 -0.1593
24677W        W80918  11.985   6.825  10.598 -0.0043 -0.4652 -0.0914
24678W        W80919   5.084  13.512  23.839 -0.0463  0.2753  0.0451
24679W        W80920   2.936   9.864  17.972 -0.2443 -0.0508  0.3213
24680W        W80921  34.971  12.338  25.426 -0.0418  0.1944 -0.0636
24681W        W80922  16.245  14.704   5.709 -0.0714 -0.0781 -0.1179
24682W        W80923  35.135  23.983  22.019 -0.0780  0.0171 -0.1587
24683W        W80924  26.103  24.638  16.685  0.0020  0.1056  0.0393
24684W        W80925   1.452  31.233   6.769 -0.1252 -0.4951  0.0334
24685W        W80926  26.771  17.686  11.496  0.0133 -0.1489 -0.0502
24686W        W80927  32.498  30.591  23.233 -0.1440 -0.0870 -0.0362
24687W        W80928  16.755   9.095  22.308 -0.0475  0.1921  0.0499
24688W        W80929   6.581  29.323   9.370 -0.2176 -0.0912 -0.0684
24689W        W80930  13.019   6.153  20.974 -0.0426 -0.0899  0.0467
24690W        W80931   7.069   4.413   4.219  0.0442  0.3292 -0.0451
24691W        W80932   9.065  28.194  21.367 -0.1403 -0.2747 -0.0511
24692W        W80933   5.624  33.391  13.471 -0.3955 -0.3113 -0.0835
24693W        W80934   0.402  27.999  24.735 -0.0784 -0.0847  0.1457
24694W        W80935   4.101  20.890   5.172  0.0896 -0.1358  0.0397
24695W        W80936   4.845  13.611   0.872 -0.3536 -0.1170 -0.0433
24696W        W80937   9.448  26.468   7.759 -0.3796 -0.0131  0.1081
24697W        W80938  25.472  34.970   4.761  0.0488 -0.0185  0.2881
24698W        W80939   0.923  27.198  22.195 -0.3329  0.0056  0.0343
24699W        W80940  34.383   5.777  25.396  0.1317 -0.3386  0.0481
24700W        W80941  25.722   5.737  17.697 -0.1501  0.1042  0.0775
24701W        W80942   0.210  28.501  24.706  0.0989 -0.0391  0.2456
24702W        W80943   7.367   3.016  12.105 -0.0433 -0.0576 -0.1714
24703W        W80944  12.288   4.946  21.295 -0.0978 -0.1950 -0.1139
24704W        W80945  23.237  35.196  23.062  0.1596 -0.3348 -0.1112
24705W        W80946  31.396   2.182   6.925  0.0574  0.3489  0.2421
24706W        W80947   9.286  34.085  22.154  0.3024 -0.1095  0.1005
24707W        W80948   4.956  27.908   1.996  0.1187 -0.0258 -0.0229
24708W        W80949   6.877  24.883  25.177 -0.1306  0.2163  0.0939
24709W        W80950  23.089  27.439  13.401  0.2750 -0.0310 -0.1042
24710W        W80951  10.251  33.541   1.158 -0.0389 -0.0827 -0.0853
24711W        W80952  29.978   1.196   0.642 -0.2804  0.1877  0.2154
24712W        W80953  32.123  18.076  13.983  0.1954  0.0976  0.0293
24713W        W80954  28.450   8.714  17.396  0.3828  0.2408 -0.1828
24714W        W80955  15.343  24.097  13.185 -0.7145 -0.2318 -0.2376
24715W        W80956  19.054  33.219  15.754 -0.0426  0.2147 -0.1031
24716W        W80957  11.250  26.794  24.556  0.0343 -0.3055 -0.3092
24717W        W80958   6.253  11.761  18.731  0.2823  0.3072  0.1057
24718W        W80959  30.084  23.776  24.298 -0.2418  0.0444  0.0978
24719W        W80960  29.669  26.910   1.975 -0.2324 -0.0411  0.2025
24720W        W80961  29.695  28.163  16.292  0.3355  0.0577 -0.2247
24721W        W80962  19.919   1.104   6.451 -0.2293 -0.3012 -0.0954
24722W        W80963  18.236  18.859  25.258  0.1712 -0.0442  0.0835
24723W        W80964  14.105   7.995  23.154  0.0157 -0.1931  0.2603
24724W        W80965   7.289  28.452  21.657 -0.2938  0.3777 -0.2652
24725W        W80966  16.147  11.235   8.795 -0.1887 -0.1135  0.3259
24726W        W80967   0.890   8.675  16.621 -0.2431 -0.1601 -0.0345
24727W        W80968  26.770  10.254  15.397 -0.0125  0.0810  0.5953
24728W        W80969   1.960  25.196  22.306 -0.0141  0.0233  0.4096
24729W        W80970  15.176  12.749   4.520  0.0862 -0.2202 -0.0977
24730W        W80971   4.681   0.687  19.008 -0.0050  0.0970 -0.1978
24731W        W80972   2.078  18.511  23.753 -0.0342  0.0570 -0.1724
24732W        W80973  21.404   3.994  17.031 -0.1228  0.2092  0.0868
24733W        W80974  34.484  13.337  10.883 -0.0274 -0.0963 -0.2549
24734W        W80975  24.276   0.109  24.303 -0.0991 -0.1148  0.2022
24735W        W80976  24.088  32.058  17.045 -0.1666  0.0903  0.0430
24736W        W80977  34.443   1.343  25.596  0.2062  0.0115  0.3367
24737W        W80978   5.536  10.950   9.236  0.1765  0.0411 -0.0698
24738W        W80979  15.194  33.256  20.699  0.2210  0.0972  0.0876
24739W        W80980  28.406  10.136   8.832 -0.0863 -0.2308 -0.0138
24740W        W80981  12.213  33.091  11.785 -0.0088  0.0962  0.0166
24741W        W80982  23.252   6.155  13.765 -0.1352 -0.2397  0.0568
24742W        W80983   9.612  16.731   3.864  0.0819  0.0029  0.0152
24743W        W80984  17.851  10.581   8.795  0.0670 -0.0698 -0.0516
24744W        W80985   5.043   6.652  24.639  0.0399  0.1623 -0.2261
24745W        W80986   7.351   1.661  21.191 -0.1827 -0.0164 -0.0518
24746W        W80987  15.713   7.745   2.124 -0.1348 -0.0362 -0.1300
24747W        W80988   0.387  23.675  17.933 -0.0486 -0.2671 -0.0373
24748W        W80989   5.902  34.186  23.947  0.3828 -0.4762 -0.1023
24749W        W80990   9.773   6.181  19.429  0.1554 -0.0203  0.2525
24750W        W80991  23.281  29.359  12.378 -0.3034 -0.2090  0.4002
24751W        W80992  10.459   4.851   1.798  0.1503 -0.2201  0.0264
24752W        W80993  22.747   5.178  15.717 -0.0356  0.0894 -0.0550
24753W        W80994  28.601  15.929   4.929 -0.1075 -0.0353 -0.2712
24754W        W80995  19.068  26.938  26.056 -0.4171 -0.2081 -0.0135
24755W        W80996  32.982   7.950  18.762 -0.2854 -0.1729  0.0084
24756W        W80997   7.929  33.397  11.632 -0.1536 -0.1651 -0.1819
24757W        W80998  21.495  12.896  16.816 -0.0096 -0.3211  0.1750
24758W        W80999  31.243  12.157   8.410 -0.0789  0.2591  0.3280
24759W        W81000  17.953  25.382   5.390 -0.3769  0.1085 -0.1431
24760W        W81001   7.525   2.775  13.108  0.0491  0.2757  0.1896
24761W        W81002  13.034  18.415  13.562 -0.0457  0.4261  0.2390
24762W        W81003   6.880   7.889  24.281  0.3624  0.0031 -0.2942
24763W        W81004  33.526  30.212   5.187  0.1071  0.1006 -0.1464
24764W        W81005  25.196  14.785  23.164 -0.1877 -0.2722  0.1452
24765W        W81006  34.446  20.205   9.829  0.1556 -0.0940 -0.4975
24766W        W81007  28.358  28.481   0.528 -0.0524 -0.0673 -0.1320
24767W        W81008   4.080   7.457   0.660  0.2417  0.3334 -0.1758
24768W        W81009   6.148  13.124   3.029  0.2150  0.0403  0.2181
24769W        W81010  11.023  31.160  14.399  0.1369 -0.0644 -0.0406
24770W        W81011  10.128   3.877  22.333 -0.1506 -0.0477 -0.0028
24771W        W81012   6.749  14.393  18.742  0.0604 -0.0315  0.1785
24772W        W81013   7.135   0.386  23.868 -0.0473 -0.1766 -0.1581
24773W        W81014  13.492  12.296   6.071 -0.1321 -0.0478  0.0286
24774W        W81015  18.297  30.400  18.496  0.2129  0.1329  0.0805
24775W        W81016  20.567   9.386  24.105  0.0444 -0.0712 -0.3347
24776W        W81017  34.983  12.837  25.455  0.0810 -0.0479 -0.1991
24777W        W81018  17.857   2.154  23.804  0.1602 -0.3004  0.0920
24778W        W81019  30.405  18.210  10.429  0.1883  0.3167 -0.1885
24779W        W81020  23.819   1.930  23.191 -0.0739 -0.0862  0.2004
24780W        W81021   8.143  28.215   8.286 -0.0073 -0.3859 -0.1976
24781W        W81022  25.459  11.460  16.212  0.0402 -0.0128 -0.1683
24782W        W81023  29.683  14.477  12.094  0.1245 -0.2111  0.2025
24783W        W81024  27.022  14.913   0.103  0.0975  0.2119 -0.0166
24784W        W81025  21.131  10.546   8.216 -0.0239 -0.3064  0.1018
24785W        W81026  21.075  11.462  18.702 -0.1140 -0.0836 -0.0840
24786W        W81027   9.752  27.673   1.763 -0.0759 -0.3971 -0.2255
24787W        W81028   0.114   8.971  25.179  0.1423  0.3802 -0.4596
24788W        W81029  33.582  33.683  21.009  0.1956  0.4863  0.1397
24789W        W81030  16.796  22.623  22.536  0.1327 -0.0016  0.1278
24790W        W81031  18.665   2.043  19.345  0.0859 -0.0755 -0.1511
24791W        W81032  17.070  23.824  15.502  0.1397  0.1560  0.0442
24792W        W81033  21.646  28.985  26.077  0.2235  0.1400 -0.1467
24793W        W81034  21.804  20.851  17.317 -0.2712  0.2182  0.0170
24794W        W81035  16.593  13.639   9.440 -0.0309 -0.0032 -0.0524
24795W        W81036   5.959  30.143  10.613  0.1407  0.2632 -0.4275
24796W        W81037  24.770   5.624   1.384 -0.1846 -0.4504  0.2135
24797W        W81038  18.964  32.158  21.380  0.0634  0.1601 -0.1860
24798W        W81039  13.928  15.363  20.634  0.1424  0.1037  0.0477
24799W        W81040  29.151  17.520  15.246  0.2407  0.0998  0.1367
24800W        W81041   0.465  18.612  16.873 -0.0374 -0.0781  0.0689
24801W        W81042  10.185  23.035   2.767  0.2068  0.3142 -0.2967
24802W        W81043  26.572   5.876   0.406  0.1087  0.0767 -0.2088
24803W        W81044  10.160   1.713  23.502 -0.0874 -0.3118  0.0018
24804W        W81045  12.485  31.392  22.105 -0.1054  0.0115 -0.3500
24805W        W81046  11.613  25.129  26.083 -0.0128 -0.0950 -0.1165
24806W        W81047  29.466  16.750  24.233 -0.2962  0.0936 -0.0687
24807W        W81048  20.470  17.364  25.221  0.0103 -0.1566 -0.0972
24808W        W81049  18.976  34.204  24.326 -0.2848 -0.3440  0.0205
24809W        W81050   7.510   1.341   7.805 -0.2014 -0.0486 -0.1434
24810W        W81051   6.914  29.532   5.104 -0.0187 -0.1259 -0.1594
24811W        W81052   1.517  10.628  25.742 -0.0208  0.0519 -0.1873
24812W        W81053  10.348  35.236  14.009 -0.1961 -0.0019  0.0199
24813W        W81054  14.695  10.004  10.044 -0.0910 -0.0956  0.0346
24814W        W81055   0.935  26.075  23.845  0.0260  0.0267 -0.3020
24815W        W81056  17.493   9.544   5.171  0.1527  0.0490 -0.1309
24816W        W81057  22.722   3.560   2.431 -0.0080 -0.0927  0.0544
24817W        W81058  15.933  16.273   6.475  0.1780  0.0347  0.1219
24818W        W81059  17.681  15.065   5.362 -0.0058  0.0931 -0.1868
24819W        W81060  27.611  32.399  13.594  0.0923  0.0109 -0.2751
24820W        W81061  17.731   4.263  21.493  0.0375 -0.1508 -0.0792
24821W        W81062  16.335   4.427  24.377 -0.1856 -0.1844  0.0211
24822W        W81063  19.852  11.837   9.900  0.1846  0.2530  0.0115
24823W        W81064  18.318   2.249  19.707  0.1803  0.1678  0.2171
24824W        W81065  17.443   4.567   2.213 -0.1490 -0.2277  0.1527
24825W        W81066  24.631  31.199  17.310  0.2782  0.0796  0.0087
24826W        W81067  23.365  11.958  13.180  0.0182 -0.0335  0.1668
24827W        W81068  33.014  27.365  25.207  0.2453 -0.1408  0.0388
24828W        W81069  11.078  24.674  10.991 -0.0648  0.0583  0.0490
24829W        W81070  24.419   8.456   0.893 -0.0684 -0.4016 -0.0306
24830W        W81071  11.912  27.523  14.157  0.2533 -0.1683 -0.2600
24831W        W81072  26.785  26.139  12.842 -0.2956 -0.0993 -0.1268
24832W        W81073  25.282  28.443   1.389  0.5125 -0.0147 -0.0856
24833W        W81074   4.869   6.013   8.057 -0.2110  0.1178  0.1721
24834W        W81075  19.150  30.271  23.945  0.1572  0.1863  0.2952
24835W        W81076   9.919   3.314  11.649 -0.3830  0.3013  0.1517
24836W        W81077   1.671  16.370  11.906  0.0162 -0.0674 -0.0292
24837W        W81078  15.087  14.832  25.075  0.1009 -0.1496 -0.1471
24838W        W81079  24.370   1.095   4.328  0.2594  0.2220 -0.2852
24839W        W81080  14.966   1.085  10.810 -0.0941 -0.3520  0.0803
24840W        W81081   0.528  32.709  15.642  0.1760 -0.1209  0.1244
24841W        W81082  31.200  14.664   6.110  0.0534  0.2171  0.2223
24842W        W81083   8.700   1.362  20.491 -0.2134 -0.0836 -0.0439
24843W        W81084  11.107  20.278   1.676 -0.1741  0.2550  0.3368
24844W        W81085  10.570  23.705  24.753  0.1362  0.0029  0.0403
24845W        W81086  22.495  33.635  24.420  0.1823 -0.3468  0.0449
24846W        W81087   8.452   4.525  24.079  0.1320 -0.1798  0.0923
24847W        W81088   4.743   8.385  23.336 -0.0147 -0.3622  0.1014
24848W        W81089  20.475   3.234  15.245 -0.1592  0.1121  0.0168
24849W        W81090  28.394   3.075  25.691 -0.1139 -0.0244 -0.4065
24850W        W81091  16.347  31.972  20.234 -0.1335 -0.0902 -0.0379
24851W        W81092  18.676   8.028   6.823  0.1255  0.2282 -0.0210
24852W        W81093   8.877   5.964  21.149 -0.2981  0.0989 -0.1296
24853W        W81094  23.206  31.990  17.797 -0.2479  0.1683  0.1495
24854W        W81095   9.100  23.264  14.819  0.0135 -0.0092  0.0686
24855W        W81096  10.098  16.398   5.121  0.1835 -0.0319 -0.0447
24856W        W81097  16.068  18.621  10.381 -0.0207  0.1784 -0.0708
24857W        W81098  30.430  29.911  22.216  0.0294 -0.0321  0.3248
24858W        W81099  33.162   9.898  15.944  0.0463  0.1356 -0.0718
24859W        W81100  12.430  25.934   4.421 -0.3377 -0.1050  0.3138
24860W        W81101  24.750  10.740  22.118  0.2117  0.3632  0.4307
24861W        W81102   5.155  17.961   2.030 -0.0168 -0.3101  0.1793
24862W        W81103   1.461   2.795   2.043 -0.0233 -0.1075  0.2687
24863W        W81104  29.986  12.097  24.926 -0.0406 -0.1666  0.1269
24864W        W81105  28.000  10.035  20.121 -0.0580  0.0511 -0.0146
24865W        W81106  16.170  32.419   7.479  0.3313 -0.0360  0.0347
24866W        W81107  19.609  14.724   7.680 -0.3652  0.1760  0.0216
24867W        W81108  13.192  28.479   4.724 -0.2190  0.0898 -0.2303
24868W        W81109   4.363  30.963   8.284  0.2759  0.1955 -0.2500
24869W        W81110  19.243  15.383  24.131  0.3989  0.0761 -0.1747
24870W        W81111  13.487   1.297  25.639 -0.1229  0.1642  0.2223
24871W        W81112  11.459  33.519  25.070  0.0147  0.0082 -0.0137
24872W        W81113  33.623  15.437  12.937 -0.2039  0.1881  0.1347
24873W        W81114  21.692  15.229   3.790 -0.1980  0.1258 -0.1706
24874W        W81115  14.542  12.529  20.228 -0.0395 -0.0205 -0.0325
24875W        W81116   0.241  11.568   0.243 -0.4612  0.3845  0.0473
24876W        W81117  20.853  16.252   1.705  0.2235 -0.2110 -0.0640
24877W        W81118  25.492  11.267  24.591  0.1089  0.0540 -0.0367
24878W        W81119  32.376   0.039  20.614  0.2388  0.1224 -0.0890
24879W        W81120   0.791  17.194  15.132 -0.0418 -0.0340 -0.0346
24880W        W81121  10.391  25.224  23.482 -0.0419 -0.0945 -0.1317
24881W        W81122  28.011  17.287   9.235 -0.1918  0.0606 -0.0713
24882W        W81123  34.832   9.747  14.780  0.4300 -0.2913 -0.0815
24883W        W81124  16.235   6.890  11.342  0.2181  0.1009 -0.4602
24884W        W81125  14.254  30.164  12.666 -0.0128  0.1001 -0.3063
24885W        W81126  22.930  23.073  18.480 -0.1881  0.0497  0.2029
24886W        W81127  25.885  28.733  12.990  0.1760  0.2026  0.1864
24887W        W81128   3.676  12.803  19.385 -0.0869 -0.1490 -0.0691
24888W        W81129  17.323   2.380   1.760 -0.3920  0.3435 -0.1493
24889W        W81130  24.344  30.516  24.754  0.2603 -0.0535 -0.0935
24890W        W81131  33.043  11.382  14.762 -0.0129 -0.2116  0.1892
24891W        W81132   2.007  19.816  24.629  0.0220  0.0420 -0.3516
24892W        W81133   9.112  24.597  23.893 -0.0942 -0.0218  0.4894
24893W        W81134   9.301  33.749   9.413 -0.1007  0.3530 -0.2198
24894W        W81135   9.481  28.109  12.347 -0.3470  0.0013  0.4403
24895W        W81136  19.869  23.688   4.088  0.2213 -0.0899 -0.0841
24896W        W81137   6.345  12.622  25.386 -0.0857  0.0213 -0.0187
24897W        W81138   0.406  28.822  21.513 -0.3220 -0.1520  0.0159
24898W        W81139  21.643  16.485  22.901  0.1927  0.0066 -0.0612
24899W        W81140   9.849  29.015   5.565  0.4378  0.0721 -0.2033
24900W        W81141  34.378  15.331  22.306 -0.0329 -0.1011 -0.2126
24901W        W81142  18.790  24.211  19.904 -0.1942 -0.1780  0.1642
24902W        W81143  29.568  12.562  21.457  0.1781  0.1739 -0.0314
24903W        W81144   6.039   8.687  17.372 -0.0300 -0.0354  0.3817
24904W        W81145  34.701   4.995   3.702  0.2290  0.3435  0.2169
24905W        W81146   2.203  28.670  17.814  0.0496 -0.0614 -0.1855
24906W        W81147   1.611   2.619  18.816 -0.0763  0.3124  0.3343
24907W        W81148   9.521  24.624   3.302 -0.1860  0.5913 -0.6481
24908W        W81149  31.275  34.189  19.752  0.0071  0.0038  0.1584
24909W        W81150   9.690   0.065   6.103  0.0125 -0.2300 -0.2630
24910W        W81151  24.810   2.079   4.872 -0.3084  0.1639 -0.0200
24911W        W81152   3.353  21.988  18.084  0.1353  0.0841  0.1262
24912W        W81153  29.263   9.272  15.283  0.0180  0.3543 -0.2677
24913W        W81154  18.096  33.351   9.040 -0.0146 -0.2699 -0.2533
24914W        W81155  16.582  13.226   9.134 -0.2488  0.1361 -0.0231
24915W        W81156  17.957   5.393  18.838 -0.0176 -0.2128  0.1538
24916W        W81157   1.865   8.883  17.060  0.1313  0.0089  0.2433
24917W        W81158  26.711  25.760  11.196 -0.0651  0.1605 -0.1669
24918W        W81159   0.229  35.209  18.003 -0.0078  0.0059 -0.2061
24919W        W81160  25.253   1.364  12.821 -0.1272 -0.5928  0.1651
24920W        W81161  27.738  32.660   4.073 -0.0067  0.3166  0.1928
24921W        W81162  23.052   1.110  20.207 -0.1491 -0.3022 -0.0227
24922W        W81163   7.890  11.665  22.831 -0.4040 -0.3361  0.1848
24923W        W81164  14.796   2.870  20.883 -0.1142  0.0537 -0.3598
24924W        W81165  24.136  26.358  21.427 -0.0994 -0.0398 -0.0093
24925W        W81166   6.237  20.606  21.698  0.0166  0.0637 -0.1369
24926W        W81167  30.272  17.633   4.921  0.0005  0.1448  0.3750
24927W        W81168  10.607   4.284  14.070  0.0920  0.0599 -0.1069
24928W        W81169   5.795  16.713   6.813  0.1505  0.1074 -0.2510
24929W        W81170   9.446  19.305  23.792  0.2689 -0.2051 -0.0405
24930W        W81171  29.217  32.498   4.765  0.0009 -0.0516  0.2944
24931W        W81172  30.962   2.541  15.207 -0.0091 -0.3875 -0.1076
24932W        W81173  19.554  22.634   2.751  0.2093 -0.0053  0.0496
24933W        W81174  17.350  23.055  24.039 -0.2542 -0.0311 -0.3185
24934W        W81175  13.830  27.680   9.744  0.2764 -0.1128  0.0748
24935W        W81176  25.431  19.234   0.266  0.0029 -0.0110  0.3131
24936W        W81177  13.700  12.773   4.985  0.5273  0.0220 -0.0518
24937W        W81178  21.426   7.045  20.481  0.3589 -0.3848  0.0214
24938W        W81179  16.980   1.426   7.309 -0.2164  0.1909 -0.0073
24939W        W81180  15.524  26.893   9.061 -0.4606  0.1821  0.0837
24940W        W81181   7.530  23.303  10.028  0.1660  0.0347 -0.1643
24941W        W81182   9.313  26.557  12.712 -0.3196  0.2851  0.0722
24942W        W81183   2.793  20.793   1.278 -0.2433  0.0916  0.3419
24943W        W81184  12.399   1.976  20.394  0.1354 -0.1649 -0.1776
24944W        W81185  26.821   7.303  21.837 -0.3327  0.2750 -0.1575
24945W        W81186  34.291  23.243  11.369  0.1810 -0.2881  0.1060
24946W        W81187  30.543   6.823  17.990  0.0758  0.1465  0.0349
24947W        W81188  34.825  18.291   0.982  0.0433 -0.1043  0.0878
24948W        W81189  13.854   2.365  19.874  0.0312 -0.1092  0.0484
24949W        W81190  29.486  14.774   6.550 -0.1894 -0.0948  0.1632
24950W        W81191  29.254  11.872  21.892  0.1844  0.2798  0.2291
24951W        W81192  15.995  17.151   3.249 -0.1608  0.1388 -0.0859
24952W        W81193  31.690  35.227  21.202 -0.5471  0.2102 -0.0963
24953W        W81194   1.633  34.855  22.029 -0.0072  0.0827 -0.3131
24954W        W81195   7.513   7.786   9.315 -0.0696 -0.0074  0.0363
24955W        W81196   8.828   8.579  23.529  0.1754 -0.0071  0.2331
24956W        W81197  32.336  25.573  24.185 -0.1067 -0.2002 -0.4148
24957W        W81198   3.943   7.503  22.376  0.2817  0.0797 -0.0191
24958W        W81199  17.674   6.445   4.315  0.1824 -0.1103 -0.0461
24959W        W81200  15.515  26.369   6.679 -0.0601 -0.0601  0.2442
24960W        W81201   9.441  33.574  22.314  0.1117 -0.0232  0.0165
24961W        W81202  35.013  16.362  17.903  0.2140 -0.2097  0.1137
24962W        W81203   4.749   3.071  22.268  0.1650 -0.0466 -0.2449
24963W        W81204   8.671  31.732   3.198 -0.0647  0.2151  0.1151
24964W        W81205  20.240  31.999   1.073  0.1221  0.0453  0.3048
24965W        W81206  17.573   6.976  23.854 -0.2568 -0.1585  0.0636
24966W        W81207   5.001  15.866   4.875  0.0986 -0.1091 -0.1389
24967W        W81208   9.882  11.783   0.730 -0.0005 -0.2140 -0.5097
24968W        W81209  19.901  29.798   0.693 -0.1321  0.2534 -0.2059
24969W        W81210   3.048  11.347   2.757  0.1164 -0.3046 -0.1901
24970W        W81211  31.384  24.001   0.729 -0.4883  0.1382  0.0678
24971W        W81212  25.127   3.722   4.370  0.1463 -0.0427 -0.2108
24972W        W81213   9.894  21.050  24.161  0.1267  0.0042 -0.0065
24973W        W81214  22.370  20.118  25.616 -0.2630 -0.2613  0.0823
24974W        W81215  28.748  20.987  18.988 -0.2759  0.1375  0.2550
24975W        W81216  27.408   5.057  17.775  0.0128  0.2417  0.0494
24976W        W81217  11.530  28.937   2.390  0.0459 -0.0245  0.2166
24977W        W81218  20.346  28.778  25.421  0.2014 -0.1825  0.0800
24978W        W81219  31.899  35.290  20.533  0.3151  0.0532 -0.2465
24979W        W81220   2.445  22.294  15.511 -0.0344  0.0012 -0.1697
24980W        W81221  20.413  24.819   0.089  0.1581 -0.1952  0.2101
24981W        W81222  28.752   1.409  19.384  0.0529 -0.2724  0.0551
24982W        W81223  11.462   8.032  26.030 -0.0981  0.0184  0.1130
24983W        W81224  11.769  17.842   7.854 -0.3484 -0.4945 -0.6399
24984W        W81225  16.014  10.738   7.448 -0.1558  0.0795 -0.4009
24985W        W81226  15.330   6.259  20.544  0.0231  0.1060  0.2269
24986W        W81227  31.673   0.178  23.541  0.0580  0.0918  0.2917
24987W        W81228  33.717  23.914   0.589  0.1647  0.1114  0.0292
24988W        W81229  23.874  16.469  20.880  0.0957 -0.0874  0.1716
24989W        W81230  34.707  30.789  24.434 -0.0404 -0.2538  0.2924
24990W        W81231   8.049  20.649   5.575 -0.0692  0.0561  0.0900
24991W        W81232  21.508  20.925  25.893  0.5825 -0.1572 -0.1701
24992W        W81233  16.075  29.532   9.369  0.1416 -0.0238  0.3669
24993W        W81234   6.226   1.467   2.012 -0.0163 -0.0311  0.3094
24994W        W81235  10.068  20.083  24.119  0.0883 -0.2791  0.0157
24995W        W81236  24.304  18.625  10.953  0.2161  0.2389 -0.3775
24996W        W81237  17.667  12.648   3.909  0.2643  0.2243 -0.3098
24997W        W81238  16.886  33.206  19.535  0.0494 -0.2428 -0.1525
24998W        W81239   7.912   3.936  11.015 -0.2189  0.1897 -0.2001
24999W        W81240  11.188   6.034   1.730 -0.1307 -0.1849 -0.0066
25000W        W81241  23.930  18.250   9.954  0.0287 -0.1325 -0.1181
25001W        W81242  16.636  21.883   8.652 -0.3439  0.0223 -0.0970
25002W        W81243   3.545   7.032  16.950 -0.1519  0.1264  0.0644
25003W        W81244   1.123   6.862  15.781  0.2335 -0.0932 -0.0346
25004W        W81245  17.669  22.543  12.870  0.1302  0.2022 -0.1729
25005W        W81246  21.666  26.704  15.216  0.0119 -0.1209 -0.0039
25006W        W81247  30.258  14.169   6.439 -0.3029 -0.1115  0.1646
25007W        W81248  28.068  28.899  11.918 -0.0759 -0.0042 -0.0563
25008W        W81249   0.852   8.163   2.892  0.1993 -0.0455 -0.0719
25009W        W81250  31.173  13.435  16.810  0.2017 -0.0486 -0.2301
25010W        W81251  22.182   8.928   0.535  0.2236 -0.0764 -0.0263
25011W        W81252  35.173  30.847  18.323 -0.1780 -0.0237  0.1490
25012W        W81253   2.681   6.545  16.113  0.0414  0.0219  0.0332
25013W        W81254  14.153  28.602  25.636 -0.1810 -0.1363  0.0094
25014W        W81255   5.150  21.730   5.784 -0.1474  0.2392  0.2651
25015W        W81256  12.286  24.127   8.612  0.1748  0.0947 -0.0531
25016W        W81257   5.840  25.746  21.921  0.1285 -0.0190 -0.2415
25017W        W81258  30.532  16.576   7.482 -0.1287 -0.1145 -0.0058
25018W        W81259  20.188  20.892  21.743 -0.4832  0.1776  0.0413
25019W        W81260  29.268   7.119  13.511  0.0012 -0.1472  0.0033
25020W        W81261  29.786  30.512   4.800 -0.1800 -0.4273 -0.0177
25021W        W81262  30.557  28.578  21.432 -0.1306 -0.1161 -0.1072
25022W        W81263  30.666   4.586  20.044  0.1968 -0.1631 -0.2412
25023W        W81264   8.925   3.464   8.607  0.1529  0.3908  0.2020
25024W        W81265   2.329   5.942  24.267 -0.0732 -0.1827  0.0360
25025W        W81266  16.994  10.057   2.954  0.0604 -0.1733  0.0859
25026W        W81267  26.799  13.247  10.228 -0.0780 -0.3041 -0.3599
25027W        W81268  16.353  20.421  10.008  0.1014 -0.1819 -0.1834
25028W        W81269  31.622  12.212  17.995  0.0727  0.1409  0.2111
25029W        W81270   1.984  28.062   6.570 -0.0516  0.2165 -0.1283
25030W        W81271  13.055  26.855  13.210 -0.2094  0.3514  0.2260
25031W        W81272   2.031   3.723   6.694 -0.0249 -0.0902  0.2245
25032W        W81273   9.042   1.898  10.482 -0.1965  0.2676  0.1867
25033W        W81274  23.870   1.396  14.486  0.0062  0.1832  0.3243
25034W        W81275   1.630  12.218  19.188  0.3111 -0.0510  0.2393
25035W        W81276   8.163  16.658  10.006  0.2247 -0.1453  0.4720
25036W        W81277  12.709   5.460   2.008  0.1372  0.0864  0.3996
25037W        W81278  14.950  26.805   4.156  0.1225 -0.2387 -0.0489
25038W        W81279  27.757   6.099  16.716 -0.3977 -0.2803  0.3587
25039W        W81280  15.499  17.035   6.506 -0.2783  0.0148  0.4206
25040W        W81281  14.214  10.272  24.562  0.0069 -0.2572 -0.2195
25041W        W81282  11.386  26.257   6.883 -0.1670  0.1328  0.0706
25042W        W81283  18.980  35.070   7.421 -0.0275  0.0789  0.0277
25043W        W81284  21.277  21.699   0.098  0.2580 -0.4405  0.0317
25044W        W81285  28.807  13.411  19.256  0.3768 -0.1800  0.0089
25045W        W81286   3.075  18.747  22.771  0.0976  0.2344  0.0326
25046W        W81287  29.520  20.091  18.302  0.1182  0.1422  0.1809
25047W        W81288  10.139  10.181  13.874 -0.2259 -0.1781  0.0952
25048W        W81289  26.392   0.578   2.743  0.1487 -0.0045 -0.2843
25049W        W81290  33.679   0.906  17.462 -0.0015  0.1838  0.0958
25050W        W81291  10.784  14.660  20.275 -0.0314 -0.3143  0.2524
25051W        W81292  30.286   3.452  21.094  0.2222 -0.0649  0.0664
25052W        W81293  26.330  32.112   2.338  0.1413 -0.0720  0.0740
25053W        W81294  35.018  22.710  14.920  0.1227 -0.4284 -0.0285
25054W        W81295   8.763  17.029  20.932  0.0334  0.2154 -0.1896
25055W        W81296   4.933  30.230   3.270  0.1480 -0.2556  0.1799
25056W        W81297  16.750  12.463   3.541  0.1448  0.2028 -0.1180
25057W        W81298  16.450  10.616  13.697 -0.1212 -0.0999  0.0500
25058W        W81299   0.490  22.639  14.818 -0.0111  0.1799  0.3725
25059W        W81300  28.951   1.586  17.303  0.1375 -0.0298 -0.1510
25060W        W81301  32.542   9.921  17.221 -0.1220  0.1912 -0.0706
25061W        W81302  10.871  19.952  22.253  0.0733 -0.0628 -0.0354
25062W        W81303  19.488   3.937   1.686 -0.0062  0.4056 -0.2555
25063W        W81304   0.732   8.938  21.745 -0.0379 -0.1755 -0.1060
25064W        W81305  31.893  11.287  22.476 -0.2570 -0.0466  0.1230
25065W        W81306  21.787   8.695  16.346 -0.1394  0.4229  0.1942
25066W        W81307  24.296  16.716   9.869 -0.1382  0.1598 -0.0844
25067W        W81308   6.056  30.014   4.056  0.2407 -0.1420  0.2394
25068W        W81309  12.723  27.926   0.832 -0.2099 -0.0621 -0.3665
25069W        W81310  30.051  26.531  25.079  0.0831  0.4769  0.0265
25070W        W81311  15.407  27.379   9.800 -0.2450 -0.0866 -0.0205
25071W        W81312   2.538  19.082  21.858  0.2638  0.1025  0.2569
25072W        W81313   7.013  33.548   2.812  0.0184  0.2516  0.0432
25073W        W81314  24.524   6.999  15.055  0.1129  0.3348 -0.1438
25074W        W81315  10.137  27.406  22.032  0.3794 -0.0417  0.1267
25075W        W81316  31.026  15.752  15.543  0.1433  0.3353  0.0373
25076W        W81317   9.857  30.719   3.588 -0.3330 -0.0855  0.0618
25077W        W81318  18.255  17.920  22.002 -0.1380 -0.1576 -0.0211
25078W        W81319  16.796  13.849  19.294 -0.3119 -0.0525  0.1985
25079W        W81320  22.655   2.255   0.403 -0.1819 -0.0316 -0.0538
25080W        W81321  24.122  23.088  19.734 -0.2447 -0.0445  0.0222
25081W        W81322   0.164  14.094   9.577  0.2440  0.2434 -0.2111
25082W        W81323  11.851  12.399  11.046 -0.0213 -0.0117  0.2444
25083W        W81324   5.169   3.655   9.451 -0.2626  0.1778 -0.2226
25084W        W81325  31.848  16.363  12.303  0.1343 -0.1241 -0.0608
25085W        W81326  33.302   3.550  24.260 -0.1633  0.3229  0.1355
25086W        W81327  32.277  23.849  11.082  0.1747  0.2284 -0.1131
25087W        W81328   6.952  33.604  14.479  0.1603  0.0112  0.0223
25088W        W81329  25.108   4.122   3.572 -0.2075 -0.1205 -0.0193
25089W        W81330  21.638  15.939  23.214  0.2281 -0.1697  0.1613
25090W        W81331  26.485  26.977  20.515 -0.2048  0.0294 -0.3978
25091W        W81332  31.044  31.945  24.615 -0.0841 -0.2421  0.2266
25092W        W81333   5.683  11.530   3.949  0.1053  0.3321  0.3000
25093W        W81334  33.060  10.877  14.975  0.1761  0.0099  0.1749
25094W        W81335  30.163  32.203  14.579 -0.3490 -0.2403 -0.1053
25095W        W81336  33.698   7.461  19.253 -0.0745 -0.2787  0.2341
25096W        W81337  14.299  12.782   9.760 -0.0247  0.0721  0.2131
25097W        W81338   8.075  29.511   1.983 -0.0778  0.1942 -0.0954
25098W        W81339  31.035  23.220  21.278  0.0739 -0.0951  0.4078
25099W        W81340  14.445  18.920  25.127  0.0025  0.0359 -0.1751
25100W        W81341   5.987  29.919  14.045  0.1396 -0.0341 -0.2954
25101W        W81342   5.302   8.864   1.674 -0.1345  0.0843 -0.3184
25102W        W81343  20.178   0.409   1.840 -0.2359  0.2938  0.2043
25103W        W81344  11.122  20.746  25.587  0.3165  0.1357  0.0550
25104W        W81345  14.667  19.363   9.512  0.1650  0.0810  0.0579
25105W        W81346  20.625   6.184   7.210  0.1035 -0.3093 -0.2973
25106W        W81347  10.075  17.290   6.369  0.0710  0.1385  0.2877
25107W        W81348   8.145  29.939  11.591  0.1961 -0.0658  0.0496
25108W        W81349  24.921  29.552  22.537 -0.2606 -0.0932 -0.1500
25109W        W81350  34.011  23.320  14.406 -0.0750 -0.1132  0.2157
25110W        W81351  27.099   3.198  12.676 -0.0020  0.0711 -0.2775
25111W        W81352  16.014   8.957   5.963 -0.1132  0.0550 -0.1490
25112W        W81353  27.746  31.141   2.683  0.0195 -0.0369 -0.3312
25113W        W81354  27.468  31.879  24.220 -0.0022 -0.3019  0.1699
25114W        W81355  12.748  25.722  25.241  0.2094  0.0304 -0.3205
25115W        W81356  14.852  11.675  11.032 -0.0967 -0.1008 -0.0497
25116W        W81357   2.132  28.299  18.370 -0.0165 -0.0991  0.0133
25117W        W81358   2.066  21.007  18.176  0.0748  0.1035 -0.0138
25118W        W81359  29.407  12.564  17.837  0.0112 -0.2730  0.0314
25119W        W81360  25.117   9.893  19.547 -0.2487  0.2313 -0.1220
25120W        W81361  25.833  32.773  12.939  0.1045  0.1090 -0.0186
25121W        W81362   5.900   5.115   5.801  0.1435 -0.3601 -0.0786
25122W        W81363   1.099  27.134  22.715  0.1547  0.0344  0.1994
25123W        W81364   0.507   4.973   0.061 -0.0225  0.1892  0.1417
25124W        W81365  34.927  29.758  25.210  0.2408  0.0427 -0.1817
25125W        W81366   9.200   3.935   1.445  0.1494  0.0672 -0.1396
25126W        W81367   4.090  11.731  18.823 -0.0676  0.2452  0.0370
25127W        W81368   7.960  21.908  12.330  0.1018  0.1403 -0.1217
25128W        W81369  13.929  12.511   2.423  0.2205  0.0194  0.1741
25129W        W81370  26.704  23.843  17.978 -0.0847  0.2209 -0.0501
25130W        W81371  25.198   1.665   3.124  0.2921 -0.1061 -0.2893
25131W        W81372  11.442  31.127  11.213 -0.2143  0.2613 -0.0319
25132W        W81373  15.013  26.547  12.733  0.1200  0.0763 -0.1174
25133W        W81374   8.731  11.632   2.498  0.3543  0.2256  0.0936
25134W        W81375  26.415  17.592  14.980 -0.2771  0.2271 -0.1638
25135W        W81376   0.820   5.635   2.255  0.0984  0.0898 -0.2259
25136W        W81377   6.488  22.116   5.672  0.0918 -0.0422  0.0291
25137W        W81378   2.484  20.178  18.340  0.0237 -0.0892  0.0973
25138W        W81379  28.859  33.426   1.150  0.0315  0.2596  0.0826
25139W        W81380  29.988  18.747  19.808  0.0166  0.0459  0.1210
25140W        W81381   9.598  20.685   5.030  0.2624  0.0781  0.0235
25141W        W81382   7.417  28.655   1.990  0.1122 -0.0509 -0.0138
25142W        W81383  27.092  34.445  20.601 -0.0571  0.3098  0.2695
25143W        W81384  27.689   7.564   1.342  0.1150  0.1625 -0.1224
25144W        W81385   7.405  17.865  22.618  0.0443  0.0476 -0.1534
25145W        W81386  16.067  28.813  20.321 -0.3376 -0.0771  0.0643
25146W        W81387   2.523  21.056  17.552  0.1611  0.0344 -0.2454
25147W        W81388  11.358  24.885  24.623  0.0191 -0.0154  0.4533
25148W        W81389  21.288   8.206   4.647 -0.0032  0.0412  0.1389
25149W        W81390  11.534  23.390   1.251 -0.2734 -0.0912 -0.1724
25150W        W81391  20.354  28.857  17.305  0.3044 -0.0285 -0.2919
25151W        W81392  34.206  29.772  14.823  0.3730  0.2381 -0.0870
25152W        W81393  34.417  31.390  15.347 -0.0640 -0.1764  0.1092
25153W        W81394  30.560  26.265  24.502  0.0816  0.1484 -0.3462
25154W        W81395  20.464  10.133  22.913 -0.0335 -0.3239  0.3135
25155W        W81396  11.868  23.389   7.719  0.1002 -0.1575 -0.0987
25156W        W81397  18.501   9.105  22.683 -0.1774 -0.0816 -0.0480
25157W        W81398  32.157  15.885  12.228 -0.0690 -0.0354  0.4537
25158W        W81399  10.891  18.823  21.450  0.0943  0.1818 -0.1096
25159W        W81400   6.711  23.370   4.180  0.0325  0.0050 -0.2963
25160W        W81401  13.248  26.492  24.504 -0.1208  0.3699  0.1477
25161W        W81402  30.364   8.120   7.838 -0.1681  0.4209 -0.0022
25162W        W81403  20.563   1.998  24.772  0.0084  0.0917  0.1087
25163W        W81404  15.414  33.175   3.600  0.1800 -0.1883 -0.0949
25164W        W81405  29.417  31.001  10.472  0.0137 -0.0493  0.1778
25165W        W81406   5.898  27.820  11.167  0.3364 -0.0636 -0.1906
25166W        W81407  26.651   5.864  25.699 -0.0529  0.0356  0.0318
25167W        W81408  15.097  26.378   3.321  0.1096  0.2619 -0.2998
25168W        W81409   9.548  16.158   2.147 -0.3790  0.3837 -0.2947
25169W        W81410  28.384  31.306   3.872 -0.0847 -0.2574 -0.3550
25170W        W81411   7.444   1.715   9.221  0.0612 -0.0371 -0.0590
25171W        W81412  11.695  11.418   5.002 -0.0793 -0.2315  0.0452
25172W        W81413   5.674  31.333   8.603 -0.2312  0.0162 -0.2992
25173W        W81414  22.469  24.744  20.744 -0.3764  0.3942  0.0393
25174W        W81415  33.800  19.693   6.885 -0.2067  0.3353 -0.1199
25175W        W81416  19.093  27.885   5.458  0.0599 -0.0391  0.0120
25176W        W81417   8.119  25.874   8.263  0.0463  0.1146 -0.1513
25177W        W81418  26.300  32.457   3.659  0.3096  0.1088  0.1483
25178W        W81419   9.879  18.234  12.458 -0.0423  0.4059 -0.2921
25179W        W81420   0.102   3.099  19.782 -0.0263 -0.0584 -0.1518
25180W        W81421  32.359  22.737  25.454  0.0235  0.0740  0.0920
25181W        W81422  16.958  19.313   5.798  0.1705  0.3367 -0.3414
25182W        W81423  23.976  11.504  24.035 -0.1327  0.0837  0.1267
25183W        W81424  34.783  27.053  17.742  0.1178  0.1576 -0.1656
25184W        W81425   5.689   1.267  23.467 -0.1423  0.1451  0.0236
25185W        W81426  11.335   9.724  13.714  0.2362 -0.0587  0.1429
25186W        W81427  15.880  12.925  12.350 -0.0171 -0.0662  0.2552
25187W        W81428  15.512  28.698   7.654 -0.1859 -0.0457  0.0072
25188W        W81429   6.068  27.099  10.711  0.0243  0.3237  0.4307
25189W        W81430  31.442  34.404  14.990  0.2375 -0.1145  0.2000
25190W        W81431  18.165  16.486  20.236  0.0159  0.1719  0.3270
25191W        W81432   8.953   9.173   5.321 -0.0007  0.1545  0.2895
25192W        W81433  21.166  30.598   0.556  0.0400  0.0326 -0.0646
25193W        W81434  27.514  26.627  19.577  0.0764 -0.1119  0.0088
25194W        W81435  18.658  21.943   9.758 -0.0920 -0.1325  0.1045
25195W        W81436  18.243  20.663  24.561 -0.3559  0.3647 -0.2380
25196W        W81437  18.422   3.962  23.194 -0.2484 -0.0125 -0.0986
25197W        W81438  29.731   6.307  21.904 -0.0482  0.2594 -0.1753
25198W        W81439  13.977   7.245   8.368  0.2263  0.2836  0.2530
25199W        W81440   0.245   5.180   0.867  0.0215  0.3195 -0.0032
25200W        W81441  18.392  24.604   5.253  0.2334  0.0176  0.2535
25201W        W81442   5.794  25.371   8.582 -0.3107  0.0233 -0.1229
25202W        W81443   9.607  16.602  12.031 -0.2359  0.1626 -0.1675
25203W        W81444   6.352  11.587   8.779 -0.3217 -0.1186 -0.0447
25204W        W81445  19.483  34.361  19.636  0.2498 -0.1015 -0.4926
25205W        W81446  19.442   9.375   8.467 -0.1269 -0.0921 -0.1554
25206W        W81447  15.031  11.561  21.459 -0.0236 -0.1045 -0.0652
25207W        W81448  22.922  18.177  16.728 -0.1109 -0.0917  0.2236
25208W        W81449  23.161   4.068  19.210 -0.2317  0.3334 -0.1158
25209W        W81450  21.404  16.247   1.822 -0.0618  0.2235  0.3323
25210W        W81451   8.662  29.686   9.105  0.2558  0.1416 -0.2614
25211W        W81452  23.894  29.449  19.430 -0.0426  0.4062 -0.2844
25212W        W81453  29.984  14.354   0.404  0.1732  0.0387  0.0161
25213W        W81454   6.543  31.283   7.608  0.4040  0.3039 -0.1718
25214W        W81455  14.730  11.067  11.213 -0.0978  0.1277  0.0472
25215W        W81456   5.838   9.757  23.585 -0.0503  0.0332  0.0939
25216W        W81457  26.554  11.150   9.956  0.0755 -0.1529 -0.0236
25217W        W81458  35.102  18.430  21.559 -0.2382  0.1023 -0.0131
25218W        W81459  33.832  35.202   1.743  0.2023 -0.1942  0.1026
25219W        W81460  19.208  24.477   5.150  0.0352  0.0959  0.0992
25220W        W81461  16.613   1.031  20.760  0.0236  0.1367  0.1502
25221W        W81462  24.411   4.652   3.963  0.0259  0.2001  0.3336
25222W        W81463   0.372   4.503  20.167  0.4114  0.2287 -0.2377
25223W        W81464  34.953  34.454  15.235 -0.1027 -0.1612  0.0837
25224W        W81465   0.422  27.545  17.007  0.2776  0.1234  0.2604
25225W        W81466  27.231  16.830   9.597  0.0108  0.0190  0.1700
25226W        W81467   8.450  19.136   6.629  0.1096 -0.1559  0.1293
25227W        W81468  22.487  23.243  23.994  0.1545 -0.4096 -0.0229
25228W        W81469   6.831  30.843  13.550  0.0775 -0.2597  0.5086
25229W        W81470  14.756  15.918  21.083  0.1028  0.2402 -0.0527
25230W        W81471   3.311  16.868  14.693  0.0910  0.2819 -0.0809
25231W        W81472  34.661   7.622   4.217  0.2149 -0.1373 -0.0644
25232W        W81473  11.557  26.339   7.976 -0.1488 -0.0094 -0.0316
25233W        W81474  15.377   7.297  23.030 -0.0958  0.0969 -0.0069
25234W        W81475   8.507  13.556   0.234 -0.2059  0.2236  0.0852
25235W        W81476  20.770  13.242   1.042 -0.5259 -0.2569 -0.2593
25236W        W81477   9.296  32.972   3.514 -0.0831 -0.2392 -0.0333
25237W        W81478  33.137  16.241  21.062 -0.2152  0.0201 -0.1964
25238W        W81479  17.863  22.194  20.909 -0.1050 -0.0920  0.2124
25239W        W81480  21.744  14.046  16.324  0.2343 -0.1207  0.4066
25240W        W81481  28.616  22.261  23.006 -0.3047  0.2643  0.2355
25241W        W81482  29.468  29.216  13.938  0.0281  0.2805  0.1715
25242W        W81483  25.459  15.802  21.492 -0.0081  0.0176  0.0695
25243W        W81484   6.614   3.356  22.182 -0.0134 -0.2199  0.2995
25244W        W81485  31.645  26.596   0.574 -0.2301 -0.1879  0.0538
25245W        W81486   6.599   3.364  23.879  0.0264  0.0999 -0.0484
25246W        W81487  18.135  24.558   6.561 -0.1207  0.0409  0.0960
25247W        W81488   8.081  16.127  12.044  0.0324 -0.0758 -0.2677
25248W        W81489   8.218  13.578   2.205  0.0405 -0.0590  0.3032
25249W        W81490   3.093   2.311   0.112 -0.2018 -0.2046 -0.0690
25250W        W81491  28.606  32.511  25.774 -0.0782  0.3008  0.2435
25251W        W81492  27.910   9.321  11.882  0.1762 -0.2615  0.2706
25252W        W81493  17.349  27.082  21.795  0.1365 -0.0434 -0.0519
25253W        W81494  19.117   3.217   7.379  0.0402 -0.0983 -0.0309
25254W        W81495   3.999   0.253  20.217 -0.5495  0.0151  0.3477
25255W        W81496  29.718  20.932  23.395 -0.0039 -0.2489 -0.0963
25256W        W81497  11.288  34.296  10.388  0.3466 -0.3328 -0.1793
25257W        W81498  13.619   0.434  20.419  0.0542 -0.2569 -0.0316
25258W        W81499   2.463  23.113   0.056 -0.0812 -0.0344  0.0024
25259W        W81500  19.639  11.833   0.634  0.0756 -0.0405  0.0730
25260W        W81501  13.177   3.526  19.674  0.1444 -0.1571 -0.0263
25261W        W81502  24.735   2.988  14.967  0.2725 -0.0918  0.4263
25262W        W81503  35.273  28.328   2.408  0.0542 -0.0307  0.0589
25263W        W81504  19.078   7.153   5.007  0.0281 -0.1763 -0.0478
25264W        W81505  31.417  19.958   7.793 -0.0593 -0.1830 -0.2473
25265W        W81506  20.553   7.544   7.351  0.0154  0.0729  0.0600
25266W        W81507  11.820  16.868   7.907 -0.1082  0.0681 -0.0079
25267W        W81508  15.954   0.007  25.569  0.1899  0.1913 -0.2834
25268W        W81509   1.702  12.712  20.054 -0.0497 -0.3670 -0.0958
25269W        W81510  17.283  11.126  20.881  0.0387  0.2408 -0.2852
25270W        W81511  17.709  11.688   1.323 -0.0677 -0.1791 -0.0816
25271W        W81512   1.106  23.500   4.292  0.0410  0.3875 -0.1806
25272W        W81513  24.360  33.990   5.762  0.1247 -0.3280 -0.1439
25273W        W81514  20.350  27.119  26.184  0.2392  0.0273  0.2838
25274W        W81515  29.819  22.815  11.362 -0.0606 -0.2844  0.0529
25275W        W81516  22.424  27.650  21.967  0.1119 -0.2202 -0.1974
25276W        W81517   4.827  12.614  16.633 -0.0556 -0.1314 -0.0948
25277W        W81518  15.325  12.624  22.153  0.1105  0.1778 -0.1700
25278W        W81519   2.370  15.685  22.272 -0.0882 -0.3474  0.3715
25279W        W81520  32.915   8.019   1.636  0.0731  0.0120 -0.1167
25280W        W81521  27.156  23.133  17.284  0.0370  0.0653  0.0900
25281W        W81522  10.572  27.995  14.889  0.0417  0.1839  0.3508
25282W        W81523   8.830   6.821   1.128  0.2054 -0.2173  0.3090
25283W        W81524  27.943   5.816  20.044  0.1758 -0.0464  0.0829
25284W        W81525  17.778  13.085   1.932 -0.0633  0.2455  0.2986
25285W        W81526  23.292   2.625   3.231 -0.1466 -0.4000  0.1974
25286W        W81527   0.005   6.180  13.893 -0.2548  0.3642  0.0719
25287W        W81528  30.340  10.292  12.848  0.2127  0.1626  0.1061
25288W        W81529   0.059  12.297  23.041 -0.0693 -0.0947  0.3990
25289W        W81530   0.572  24.721  17.375 -0.0828 -0.4700 -0.0582
25290W        W81531  12.847   8.719  26.113  0.0744  0.3268 -0.3203
25291W        W81532  13.452  34.778   4.057  0.1488 -0.0933 -0.0286
25292W        W81533  32.459  18.805  15.966  0.0821 -0.0285  0.2181
25293W        W81534   0.155   4.423  15.057 -0.0195 -0.0687 -0.2350
25294W        W81535   2.777   0.446  18.833  0.0686 -0.0452 -0.2908
25295W        W81536  17.666  31.442   4.031  0.2662  0.1822  0.0651
25296W        W81537  19.360  34.386  21.361  0.2922  0.0999  0.2314
25297W        W81538   1.147   1.054  19.712  0.0422  0.4248  0.2715
25298W        W81539  23.977  18.268  17.449 -0.0624 -0.0204  0.0990
25299W        W81540  27.306  10.014  20.651  0.0287 -0.0965  0.2139
25300W        W81541  15.758  17.477  11.395 -0.0083 -0.1108  0.0095
25301W        W81542  13.580  11.566  13.829  0.2336  0.1693  0.0681
25302W        W81543  16.786   2.797  25.878 -0.1130 -0.0623 -0.1836
25303W        W81544  20.400  34.800  20.988 -0.1913  0.0419  0.0847
25304W        W81545   6.488   7.603   3.161 -0.0646 -0.0487  0.0137
25305W        W81546   9.111  10.198  11.660 -0.1993  0.1006  0.2210
25306W        W81547  10.819  19.774   8.341 -0.0809  0.1511 -0.1943
25307W        W81548  31.274   9.914  19.368  0.0461  0.0521 -0.1593
25308W        W81549  12.077   6.462  24.583 -0.1221  0.1109  0.0363
25309W        W81550  30.624   8.662  10.107  0.1200 -0.2109 -0.1301
25310W        W81551  30.466  15.169  16.133  0.0007 -0.0040  0.3272
25311W        W81552  10.908  26.634   2.273 -0.2870  0.1682 -0.0462
25312W        W81553   1.034   3.368   7.276 -0.1416  0.1778  0.0975
25313W        W81554  32.263  33.731  18.061 -0.1785 -0.1251  0.2778
25314W        W81555  33.572  17.505  16.986 -0.3933 -0.1703  0.4605
25315W        W81556   7.550  32.118  21.465  0.1491 -0.1749 -0.2519
25316W        W81557  29.738  12.754  12.884 -0.2180 -0.0177  0.0035
25317W        W81558  25.241  33.152   0.706 -0.1640 -0.3948  0.0568
25318W        W81559  13.851   2.043   7.399 -0.0709 -0.0843  0.2636
25319W        W81560  24.759   6.367   0.965  0.3617 -0.1279  0.3303
25320W        W81561  22.425  16.580  13.469  0.3746  0.1377  0.3468
25321W        W81562  19.729  26.727   3.936 -0.0362 -0.1400  0.2222
25322W        W81563  26.250   5.884   3.951 -0.1114 -0.2154  0.0520
25323W        W81564   1.586  20.953  20.879  0.3943  0.1284  0.0449
25324W        W81565  24.893  23.898  11.217 -0.0470  0.0781  0.0282
25325W        W81566  12.503  10.157   7.627 -0.0381  0.0833 -0.1384
25326W        W81567  11.578   0.246   6.492  0.2233 -0.1337 -0.1941
25327W        W81568  17.342  17.050  10.179 -0.0312  0.1140  0.1475
25328W        W81569   7.786  12.086   8.263  0.1079 -0.3227  0.1496
25329W        W81570  24.365  26.047  25.838  0.1755  0.0150 -0.0234
25330W        W81571  20.175  17.694   6.449 -0.0556  0.0128  0.0183
25331W        W81572  20.102   0.846  23.328  0.2526 -0.1875  0.0563
25332W        W81573  16.496  13.017   9.591 -0.1534  0.0496 -0.3182
25333W        W81574  27.685  29.065  12.705  0.0388 -0.1185 -0.0348
25334W        W81575   5.236  25.759   7.988  0.2182  0.0308  0.1778
25335W        W81576  23.669   1.748   6.236 -0.2061 -0.3994  0.0167
25336W        W81577  22.412  21.420   0.569 -0.0657  0.1039  0.0894
25337W        W81578  21.873   9.355  18.954  0.0613  0.0438  0.0120
25338W        W81579  15.192  24.217   4.903 -0.0387  0.1052 -0.0595
25339W        W81580  17.938  16.091   0.506 -0.2742  0.1409  0.0575
25340W        W81581  27.356  19.457   4.255 -0.3318 -0.1370 -0.2187
25341W        W81582  13.371  26.276   4.452  0.0351  0.1250  0.1908
25342W        W81583  29.660  31.556  25.081  0.0176  0.0561 -0.0908
25343W        W81584   6.198  15.475   1.491  0.2650 -0.2454 -0.0986
25344W        W81585   8.566  20.260  13.091 -0.1750  0.2688 -0.0990
25345W        W81586  29.582  10.600  22.972 -0.3598 -0.2013 -0.5493
25346W        W81587   3.310  12.482  21.355 -0.1390  0.2891 -0.0084
25347W        W81588  11.283  20.624   6.740  0.0336  0.4282 -0.0679
25348W        W81589  33.306  35.002  18.481 -0.1393 -0.3164  0.0824
25349W        W81590  28.292   4.950   4.080 -0.1187 -0.1588  0.0552
25350W        W81591  35.080  24.641   1.641  0.0643 -0.0275 -0.0516
25351W        W81592  23.669  32.943  17.752 -0.0061 -0.2052 -0.1470
25352W        W81593   6.882  10.694  23.623  0.3283 -0.1444  0.0724
25353W        W81594  19.049  26.257   8.666  0.0334  0.0178 -0.1024
25354W        W81595  25.084  10.990  11.197 -0.1024  0.1841  0.0838
25355W        W81596  20.067  22.937  20.514 -0.0288 -0.1900  0.0797
25356W        W81597  20.554   9.896  21.860 -0.0291  0.2176 -0.4675
25357W        W81598  21.132   0.822  18.836 -0.1852 -0.2627 -0.1206
25358W        W81599   4.522   3.441  20.115  0.3852  0.1689 -0.2076
25359W        W81600  34.185  14.226  18.765 -0.2508 -0.0057  0.0506
25360W        W81601  22.905   4.125   1.440 -0.2975 -0.2492 -0.2606
25361W        W81602  13.696  12.579  20.537  0.1082 -0.1335  0.0187
25362W        W81603  26.910  20.769  18.967  0.0649 -0.3692  0.0473
25363W        W81604   7.158  21.718   2.113 -0.1988  0.0864 -0.3385
25364W        W81605  12.784  15.450  11.624  0.1308 -0.1032  0.0241
25365W        W81606  15.935  11.258  22.839  0.0658 -0.2413 -0.1937
25366W        W81607  11.345   8.261   4.786  0.0534 -0.0113 -0.0478
25367W        W81608  25.586  12.424   9.408  0.1688  0.3356 -0.0192
25368W        W81609   8.127  12.345   2.083  0.4266  0.3539  0.1293
25369W        W81610  22.997  32.275  15.365 -0.2148 -0.7983  0.0356
25370W        W81611  23.127  21.457  16.515  0.1012 -0.1974  0.2969
25371W        W81612  22.393  20.971  23.244 -0.0747 -0.1384  0.1033
25372W        W81613  12.394  21.076  15.875  0.1169  0.1536 -0.1299
25373W        W81614  27.727  29.590  17.830  0.0401  0.2093 -0.1453
25374W        W81615   5.484  28.402  24.692  0.1982 -0.0246  0.0968
25375W        W81616  17.988  20.221  12.987 -0.1734 -0.0962  0.3273
25376W        W81617   6.294  28.988   1.888 -0.1832  0.1538 -0.0401
25377W        W81618  31.384   3.078  21.584 -0.2160 -0.1696  0.4111
25378W        W81619  11.241   2.847  10.490  0.0487  0.1369  0.0431
25379W        W81620  27.190  14.358  19.595 -0.0881 -0.0678  0.2333
25380W        W81621  29.949  25.186  10.290  0.0992  0.2876  0.0742
25381W        W81622  11.207  24.419   2.371 -0.3346 -0.1639  0.0857
25382W        W81623  18.376  32.746  19.847 -0.0848  0.0451  0.1124
25383W        W81624  23.490   5.345  24.625  0.2316  0.2043  0.1890
25384W        W81625  33.183  12.720  19.145  0.1647  0.0504 -0.2161
25385W        W81626  33.477   1.706  25.263  0.0409 -0.3152  0.1364
25386W        W81627  12.988  18.000  20.417  0.1641  0.2486 -0.0788
25387W        W81628  27.092  15.361  26.069 -0.1031 -0.0167 -0.0255
25388W        W81629   6.351  16.113   7.883 -0.1415 -0.2910 -0.1734
25389W        W81630   4.490  30.211  23.100 -0.2142 -0.0497  0.0945
25390W        W81631  30.833   8.917  22.298  0.1087 -0.1569 -0.1169
25391W        W81632  11.694  15.338   8.774  0.1021  0.0213  0.4096
25392W        W81633   9.218  18.507   5.335 -0.0355 -0.0761  0.0038
25393W        W81634  24.352  20.439  12.984  0.0359 -0.0918 -0.3562
25394W        W81635   9.536  20.110  24.189 -0.2601 -0.0531 -0.2576
25395W        W81636  19.567  29.082  20.969  0.0314  0.0578 -0.1773
25396W        W81637  27.679  29.440  11.256  0.1987 -0.0200 -0.0371
25397W        W81638   6.534   4.847   7.707  0.2126 -0.2342  0.2225
25398W        W81639   5.822   0.956  21.719 -0.1631  0.1376 -0.3035
25399W        W81640  13.641  20.990  17.134  0.2667 -0.0334  0.0051
25400W        W81641   3.686  18.342  23.037  0.2369 -0.1587 -0.0234
25401W        W81642  29.466   5.521   1.432 -0.1364  0.1259  0.1147
25402W        W81643  10.330  18.709  11.815 -0.0303  0.3922 -0.3897
25403W        W81644  22.002   7.683  24.679 -0.0165  0.0267  0.2275
25404W        W81645   4.644  26.760   9.377 -0.1713  0.0591 -0.0548
25405W        W81646  14.329  27.754  26.203  0.1983  0.1641 -0.0746
25406W        W81647  28.404  16.238  19.271 -0.1676 -0.0101  0.1237
25407W        W81648  22.594   2.504  14.647  0.0994  0.1671 -0.0020
25408W        W81649  33.126   5.389  14.023 -0.2082  0.0898  0.2601
25409W        W81650   3.653  15.670  16.651 -0.0895 -0.3143 -0.6472
25410W        W81651  13.643  26.256  25.248  0.0994 -0.2225  0.0367
25411W        W81652  14.530   7.833   8.203  0.1086 -0.2943 -0.3641
25412W        W81653  14.111   7.111   0.034  0.1894  0.1340 -0.2692
25413W        W81654   2.784  24.340  23.558 -0.0058  0.1117  0.0180
25414W        W81655  33.420   0.854  16.253  0.1256  0.3093 -0.0597
25415W        W81656   0.232  28.747   1.080 -0.1399 -0.2016  0.1251
25416W        W81657  18.894   1.982  20.565  0.0188 -0.2526 -0.0383
25417W        W81658  17.978  23.594  24.387 -0.0122 -0.2642 -0.3083
25418W        W81659   8.740   9.083  10.102  0.0901  0.1847 -0.1146
25419W        W81660  32.847  16.313  15.141 -0.0274  0.0457  0.0362
25420W        W81661  20.773  21.806   2.176  0.0327 -0.0594  0.1138
25421W        W81662  33.839  10.669  15.120 -0.1713  0.0975 -0.0587
25422W        W81663  29.864  34.304   2.782  0.0053  0.1040 -0.0236
25423W        W81664  14.056   1.511  23.628  0.0794  0.3379  0.3963
25424W        W81665  15.411   8.303   8.114 -0.2164  0.2877 -0.1982
25425W        W81666  11.597  19.532  23.080  0.2167 -0.4951  0.0708
25426W        W81667  19.247  10.424   0.509 -0.2438  0.0074 -0.0022
25427W        W81668  34.882  17.232  25.443 -0.2365  0.0992  0.1432
25428W        W81669  17.909  25.628  23.090 -0.0225  0.0597 -0.0751
25429W        W81670  31.744  21.768   5.966  0.0013 -0.0691  0.0792
25430W        W81671   4.710  26.484  23.244  0.3833  0.1737 -0.0660
25431W        W81672  28.964   3.897  23.474  0.0725 -0.0849  0.0643
25432W        W81673  33.366  21.691  22.945 -0.2785 -0.1821 -0.0330
25433W        W81674  31.422  32.119  24.020 -0.1197 -0.0797 -0.0042
25434W        W81675  10.048  35.203  11.116 -0.0278 -0.0294 -0.0056
25435W        W81676  18.495   4.360   7.007 -0.0944  0.0100  0.2078
25436W        W81677   3.693  32.251   7.666  0.1665  0.1420  0.1037
25437W        W81678   2.798  20.774  16.297  0.1180 -0.1283  0.0362
25438W        W81679  33.308  24.265  13.818 -0.2732 -0.0220  0.1342
25439W        W81680  21.561  22.892   1.804  0.0358 -0.1353 -0.0107
25440W        W81681  10.905  25.929  24.152 -0.1016 -0.2334  0.2073
25441W        W81682  16.151  13.608  11.245  0.5422 -0.0754 -0.1942
25442W        W81683   9.186  27.766  11.109 -0.0141  0.1251  0.1015
25443W        W81684  23.833  18.040  14.974 -0.0760 -0.0653 -0.3432
25444W        W81685   2.131  13.377  23.701 -0.0342  0.1818  0.5042
25445W        W81686  16.770   9.663   0.957  0.0326  0.0146  0.3214
25446W        W81687   2.607  25.186   4.163 -0.2399  0.2126  0.2178
25447W        W81688  13.530   7.329   1.577 -0.0842  0.3743  0.1741
25448W        W81689   2.462   8.973   4.279  0.0445 -0.5218 -0.1948
25449W        W81690   1.912  26.424  19.671  0.0960  0.2771  0.1742
25450W        W81691  12.472  18.365   0.192  0.1115 -0.0610 -0.1115
25451W        W81692  29.257  23.442  14.670 -0.1464 -0.2382 -0.2063
25452W        W81693  13.747  34.188   7.688  0.1429  0.1125  0.1346
25453W        W81694   4.226  28.898  23.820 -0.4615 -0.0625 -0.1556
25454W        W81695   5.646  16.083   2.118  0.0997 -0.6477 -0.2480
25455W        W81696  16.267  33.667   7.372 -0.2144 -0.0902  0.0744
25456W        W81697   3.003  33.338  21.263  0.0494  0.0749  0.2049
25457W        W81698   0.014   5.672   3.606 -0.2315 -0.1964  0.1995
25458W        W81699  30.931  24.969  19.184  0.2504  0.2041 -0.2704
25459W        W81700  27.235  12.315  21.628 -0.3266  0.3651  0.2636
25460W        W81701  22.989   1.424   0.834 -0.1849  0.0583  0.0364
25461W        W81702  19.735  34.521   3.241 -0.1525  0.0602 -0.3311
25462W        W81703  10.312   9.298   2.364 -0.5416 -0.1862  0.0544
25463W        W81704  26.197  22.286  17.862 -0.1936 -0.4448 -0.3867
25464W        W81705   7.909  14.312   2.631 -0.0877 -0.0777 -0.1621
25465W        W81706  28.923  21.182   8.768 -0.1707  0.0928 -0.2434
25466W        W81707  20.454   8.116  26.100  0.1348 -0.1243  0.1874
25467W        W81708  32.499  22.896   9.248  0.4070  0.2954 -0.1209
25468W        W81709  33.878   5.459  25.489  0.1277 -0.0825 -0.4016
25469W        W81710  12.582  34.912   0.741 -0.1048 -0.2070  0.3122
25470W        W81711  18.444  30.548   5.502 -0.1664  0.3026 -0.0267
25471W        W81712  18.238  18.794   0.352 -0.0081 -0.3584 -0.1731
25472W        W81713   4.956  33.375  21.891 -0.1500 -0.0164 -0.2981
25473W        W81714   9.301  17.435   4.472  0.2823  0.0078 -0.1154
25474W        W81715  32.472  21.411  25.830 -0.0908 -0.1508  0.1310
25475W        W81716  11.997   8.412  25.336 -0.0479 -0.0501  0.0980
25476W        W81717  24.378  12.878  15.738 -0.1369  0.1258 -0.0946
25477W        W81718  15.719   8.752  13.237 -0.1113  0.0393  0.3153
25478W        W81719  24.074   0.165  16.405  0.1460  0.0394 -0.1103
25479W        W81720   7.075  32.398  13.460  0.1686 -0.3017 -0.0845
25480W        W81721   7.524  14.660  24.855  0.0349 -0.2433 -0.0778
25481W        W81722  14.569   5.306  10.580  0.1794  0.0386 -0.1252
25482W        W81723  13.243   2.377   4.135 -0.1003  0.0180 -0.1932
25483W        W81724   6.316  30.320  21.981 -0.3204 -0.3223 -0.1826
25484W        W81725   1.128  15.628   1.275  0.0540  0.0517 -0.0181
25485W        W81726  25.158  26.927  15.354 -0.0447 -0.0869  0.0375
25486W        W81727  12.703  21.393   8.981  0.0771  0.2104  0.1139
25487W        W81728  10.181  34.014  12.920  0.1357 -0.2430  0.0294
25488W        W81729   3.579  26.995  20.708 -0.1361  0.1188 -0.2066
25489W        W81730  32.972  31.704  14.229  0.3775 -0.0685 -0.0017
25490W        W81731  24.028  33.132  22.735 -0.2206  0.2930  0.0704
25491W        W81732   3.983   6.212   2.399 -0.2737 -0.0198  0.0238
25492W        W81733   6.687  27.198  11.075  0.1156  0.1566 -0.1251
25493W        W81734  23.310   6.851  21.279 -0.1542 -0.0511  0.4003
25494W        W81735  27.623  28.082  12.961  0.0721  0.2077  0.1581
25495W        W81736   6.790  13.073   3.337 -0.2440  0.4004 -0.0062
25496W        W81737  14.561  31.186   3.733 -0.1147 -0.0555  0.1417
25497W        W81738  19.355   1.619   6.695  0.1459 -0.0009  0.0405
25498W        W81739  31.669  11.510   8.999 -0.0719  0.1780  0.0744
25499W        W81740  31.345  14.837  18.956 -0.0738 -0.2556 -0.1058
25500W        W81741  34.335  28.753  24.945  0.2160 -0.4258 -0.0827
25501W        W81742   4.062  23.497   1.813 -0.1771 -0.1110 -0.4406
25502W        W81743  31.866   0.990  19.048 -0.1909  0.3034  0.1319
25503W        W81744   0.186   5.379   2.220 -0.4601 -0.2406  0.1986
25504W        W81745   5.581  19.955  22.618  0.0012  0.1970 -0.1354
25505W        W81746  11.834  10.753   8.018 -0.2706  0.0239  0.0828
25506W        W81747  34.079   9.577  16.365 -0.3898  0.0912  0.0804
25507W        W81748  33.308   2.789   4.580  0.1449 -0.3745 -0.3854
25508W        W81749  34.520  26.993  22.652  0.2552 -0.3468 -0.2558
25509W        W81750  28.570  29.441  16.499 -0.2558  0.1694 -0.0142
25510W        W81751  12.420   6.168   4.762 -0.1233 -0.0695  0.3079
25511W        W81752  17.091  26.073  12.336 -0.0690 -0.0849  0.1281
25512W        W81753  11.994  28.216  11.384  0.0112  0.3421  0.0485
25513W        W81754  15.000  15.007   3.550  0.1688 -0.1483 -0.3298
25514W        W81755  27.197  10.881  18.095  0.0245 -0.1866 -0.0654
25515W        W81756   6.575   7.755  23.021 -0.3392 -0.0467 -0.0496
25516W        W81757   4.578   5.767  18.253 -0.0883 -0.0147  0.2934
25517W        W81758  35.161  10.968  15.137  0.1063  0.1761 -0.3326
25518W        W81759  18.168  25.947  12.285  0.0571 -0.1959 -0.0027
25519W        W81760   0.367  12.954  16.351  0.1247  0.0320  0.4870
25520W        W81761  31.157  32.533  25.050  0.1391  0.1734 -0.0473
25521W        W81762  25.778  14.918  18.171 -0.1993 -0.0979 -0.2034
25522W        W81763   0.052  14.990   0.151 -0.1032  0.0023  0.3009
25523W        W81764   1.615  30.863   6.462 -0.0372  0.0868  0.2487
25524W        W81765   8.255  16.477  12.422 -0.3695  0.0158  0.1717
25525W        W81766  15.996  31.840   0.968 -0.0280  0.0932 -0.1386
25526W        W81767   6.717  12.913   8.662 -0.1634  0.1607 -0.3050
25527W        W81768  14.700  11.205   4.619 -0.0610  0.0868  0.2087
25528W        W81769  13.408  13.540   7.817 -0.0060  0.0603  0.1884
25529W        W81770  15.739  22.353   3.924  0.1426  0.1800  0.1047
25530W        W81771  22.095  20.309  15.790  0.1472  0.1924  0.0935
25531W        W81772   2.416  17.004  23.226 -0.0582  0.0783 -0.0232
25532W        W81773  30.300   8.063  21.338 -0.1215 -0.0076 -0.1825
25533W        W81774  33.006  16.711  17.330 -0.2247  0.1464 -0.0751
25534W        W81775   8.714  20.259  23.218 -0.1874 -0.2400  0.0876
25535W        W81776  10.869  10.988   9.630 -0.0904  0.2065  0.2053
25536W        W81777   5.250   5.954  18.757 -0.0442 -0.0373  0.3809
25537W        W81778   9.212  35.102   7.708  0.2428  0.2588  0.3860
25538W        W81779   9.054   3.733  23.553  0.0370  0.0663 -0.0298
25539W        W81780  27.489  27.902  23.660 -0.1820  0.3087 -0.0078
25540W        W81781   6.422  20.372   8.211 -0.3222  0.2815 -0.0730
25541W        W81782   8.427  27.985  16.507  0.1554 -0.1474  0.2225
25542W        W81783  11.765  27.767  11.442  0.4161  0.0650  0.1569
25543W        W81784  11.668  29.586  17.231  0.5444  0.2758  0.3144
25544W        W81785  16.799  29.101  10.935  0.1537  0.0179  0.1634
25545W        W81786  11.051  21.364  10.988  0.0154 -0.0509 -0.1355
25546W        W81787   8.893  34.085  25.734  0.2755 -0.0061 -0.0605
25547W        W81788   9.990  25.102   8.450  0.0011  0.4795  0.3907
25548W        W81789  28.926  33.885   0.342 -0.1596  0.2619  0.1261
25549W        W81790  35.189  30.874  22.812 -0.1417 -0.1597  0.3872
25550W        W81791  31.034   7.494  21.289  0.3449 -0.0116  0.1805
25551W        W81792  30.206  23.007   0.139 -0.1723 -0.0677 -0.1129
25552W        W81793   0.940   2.345  22.541 -0.2035 -0.4092 -0.1555
25553W        W81794  15.372  25.799   7.550 -0.1037 -0.0750  0.2304
25554W        W81795   5.828  14.198  19.401  0.1025  0.2096  0.1244
25555W        W81796  22.067  12.448   2.684 -0.0736 -0.1073  0.0360
25556W        W81797  35.238   7.015  16.951  0.0122 -0.0173  0.1884
25557W        W81798   8.863  34.979  15.664 -0.2761 -0.1191 -0.1444
25558W        W81799  35.289  17.290   6.270  0.2983  0.2588  0.2442
25559W        W81800  11.049  32.924   9.157  0.2738 -0.1904  0.0456
25560W        W81801  29.770   4.625  14.308 -0.0040  0.0472  0.4131
25561W        W81802  24.277  26.899  23.710  0.3087  0.0410  0.1242
25562W        W81803  27.996  23.406   0.624  0.0113 -0.0015  0.1166
25563W        W81804  11.936  28.129  22.681 -0.0120 -0.1061  0.1176
25564W        W81805  17.745  28.526   3.528 -0.1669  0.1960  0.1392
25565W        W81806  10.632  16.082   3.137 -0.1060  0.2532 -0.2138
25566W        W81807  28.354  23.338  12.249 -0.2291 -0.1740 -0.2317
25567W        W81808  27.176  32.601  21.397 -0.1629 -0.2617  0.0137
25568W        W81809  24.526  19.324  10.212  0.1602  0.3232  0.3896
25569W        W81810  22.196  27.288  23.921 -0.0410 -0.2118 -0.0851
25570W        W81811  21.396  33.471  22.077 -0.0177 -0.3297  0.0380
25571W        W81812  11.034  17.815   6.194 -0.0355  0.1983  0.3553
25572W        W81813  31.298  27.318  14.915  0.0066  0.1330  0.0891
25573W        W81814  24.275  32.690   4.101  0.0434  0.1318  0.0363
25574W        W81815   8.474  16.150  24.433  0.0008 -0.0058 -0.2588
25575W        W81816  17.074  12.248   0.298  0.1006 -0.1020 -0.0404
25576W        W81817   7.208  11.892  22.385 -0.1024 -0.0718 -0.0104
25577W        W81818  11.592   7.443   9.086 -0.1093 -0.3620  0.3018
25578W        W81819   0.302  13.163  24.310  0.0161 -0.0143  0.0288
25579W        W81820  28.264   7.766  24.674  0.0800 -0.0589  0.0311
25580W        W81821   5.826  12.827  25.402 -0.2663  0.0926 -0.2958
25581W        W81822  29.059  12.813  24.155 -0.1110 -0.2238 -0.2394
25582W        W81823  28.343   6.292  26.049 -0.1028  0.1704  0.1302
25583W        W81824  13.542  31.978   0.447  0.1722  0.2694  0.3272
25584W        W81825   2.558  33.064  25.326  0.1698  0.2150 -0.0017
25585W        W81826   9.982  25.406  23.189 -0.2098  0.0871  0.1681
25586W        W81827   2.779  27.083  11.225  0.2411 -0.0023  0.3031
25587W        W81828  18.217  24.634  22.648 -0.1333  0.3823  0.2574
25588W        W81829  31.089  23.562   5.930 -0.0242 -0.3704 -0.1616
25589W        W81830   7.874  10.419   8.521 -0.4897  0.1278 -0.0323
25590W        W81831  33.409  18.839   9.541 -0.1939  0.1411 -0.3740
25591W        W81832  28.754   5.844  11.779  0.2075 -0.1922  0.0380
25592W        W81833   0.876   9.210  25.914  0.1008 -0.3673 -0.0854
25593W        W81834  14.940  34.263  24.512  0.1195  0.1120  0.1011
25594W        W81835  32.328   0.674  22.565 -0.1169  0.1324 -0.0966
25595W        W81836  35.175  34.504  22.773 -0.0729 -0.0585 -0.0139
25596W        W81837  19.374  22.956  23.226  0.0787  0.0888  0.1520
25597W        W81838  25.269  22.370  10.295  0.0739  0.0297 -0.2697
25598W        W81839  15.497   3.572  19.968 -0.2725 -0.1642  0.1770
25599W        W81840  10.488  15.232   1.337 -0.0060  0.0388 -0.6148
25600W        W81841   3.723  24.324  21.038  0.0320 -0.2705 -0.1593
25601W        W81842  25.898  31.230  25.484 -0.2643 -0.2331 -0.3230
25602W        W81843  18.008  14.269   2.909  0.1445 -0.4195  0.0612
25603W        W81844  15.808  28.024   0.420 -0.1245  0.2795 -0.0184
25604W        W81845  21.564  32.065  22.169  0.1169  0.2121  0.0230
25605W        W81846  26.525   3.196  11.421  0.0632  0.0474 -0.1635
25606W        W81847  17.349   9.603   6.835  0.2424  0.0483  0.0062
25607W        W81848  13.084   5.603   5.262 -0.3226 -0.0083 -0.0056
25608W        W81849   5.786  24.465  21.697  0.2007 -0.0272 -0.2609
25609W        W81850   2.484  12.867   1.272 -0.1644 -0.0180  0.1993
25610W        W81851  22.874  31.304   4.612 -0.1674 -0.0328  0.3234
25611W        W81852  24.208  11.253  16.084 -0.0079  0.0908 -0.0043
25612W        W81853  26.245   1.861  23.750  0.0439  0.1810  0.2492
25613W        W81854  33.894  10.670  22.690  0.3472  0.1189  0.2303
25614W        W81855  14.440  31.896  12.023  0.1364 -0.3144 -0.0444
25615W        W81856  30.705  30.665  24.370 -0.0096 -0.0542 -0.1484
25616W        W81857  13.989  29.635   8.844 -0.1757 -0.0560  0.1433
25617W        W81858  33.676   7.325  16.413  0.3268 -0.1410 -0.0679
25618W        W81859  13.120  12.240  22.720  0.1418  0.1140 -0.0094
25619W        W81860  19.522   4.428  16.300  0.0689  0.0503 -0.0825
25620W        W81861   6.690  34.977  12.540 -0.2462  0.0973 -0.2932
25621W        W81862  23.824   8.226  13.679  0.1919 -0.2430  0.0115
25622W        W81863  15.715  28.482  21.745 -0.0404 -0.2611 -0.3340
25623W        W81864   2.881  17.375  19.902  0.0141 -0.2474  0.0928
25624W        W81865  35.142   1.684   6.501 -0.0341  0.0644 -0.0560
25625W        W81866  11.994  21.561  16.686 -0.2304 -0.0693  0.1082
25626W        W81867  14.584   6.962   7.029  0.0097 -0.1707  0.3275
25627W        W81868  22.069  17.310  24.187 -0.0283 -0.1371 -0.0817
25628W        W81869  28.310  21.067  18.791  0.0743  0.0669 -0.0793
25629W        W81870  14.444  27.538   1.580 -0.0359  0.1611  0.2861
25630W        W81871  25.748  33.385  15.670  0.0196 -0.2499 -0.1083
25631W        W81872   9.441  10.699   7.372  0.0219  0.0312  0.0578
25632W        W81873  27.629   9.759  20.317 -0.1625 -0.0659  0.2968
25633W        W81874  23.135   1.982  20.856 -0.0004 -0.0867 -0.0218
25634W        W81875   6.013  32.914   5.090 -0.0143  0.0170 -0.0169
25635W        W81876   6.794  24.898   3.508  0.0022  0.0908  0.0585
25636W        W81877  17.529  28.886  22.031  0.2805 -0.0428  0.1266
25637W        W81878  18.266   1.226   6.919 -0.0755 -0.0263 -0.0930
25638W        W81879  30.452  20.063  18.493  0.3488 -0.2735  0.1691
25639W        W81880  10.046   6.295   1.934 -0.0281 -0.0573  0.1396
25640W        W81881   6.118  34.284  19.001 -0.1839 -0.0143  0.0853
25641W        W81882  13.444  31.346  23.462 -0.2288 -0.1357 -0.0314
25642W        W81883  30.362  23.213  12.554  0.3210 -0.2132 -0.1116
25643W        W81884  23.118  28.241  21.110  0.1331 -0.0771 -0.3524
25644W        W81885   4.150  34.546   9.432 -0.1020  0.0861  0.3808
25645W        W81886  12.307  23.976  25.102 -0.1494 -0.2825 -0.0643
25646W        W81887  31.869   5.527  21.550  0.2181  0.0698  0.0027
25647W        W81888  29.155  28.132  18.348  0.1826  0.1691  0.1068
25648W        W81889  31.354  18.308  23.165 -0.1210 -0.2427  0.1593
25649W        W81890  12.552   7.687   0.607 -0.2334  0.0549  0.2222
25650W        W81891  24.983  12.210  15.431  0.1582  0.0456 -0.3683
25651W        W81892   7.705   6.439   4.407 -0.2295  0.2915 -0.1335
25652W        W81893  21.582  31.738  15.375  0.1911  0.2261  0.2011
25653W        W81894  17.813   3.255   7.023 -0.1829 -0.0162 -0.2812
25654W        W81895  19.604   0.739  17.997  0.2309 -0.4128  0.1213
25655W        W81896  32.802  14.822   7.922  0.0063 -0.0038  0.1923
25656W        W81897   1.222  17.018  14.887  0.3521 -0.2170 -0.3769
25657W        W81898  15.451  32.564   9.821 -0.1942 -0.1267 -0.0086
25658W        W81899  22.563   7.637  23.617 -0.0103  0.2702  0.2650
25659W        W81900   5.448  31.162   5.692 -0.3434  0.1737 -0.2445
25660W        W81901  30.289   1.342  14.420  0.2720  0.1456  0.0460
25661W        W81902  34.982  11.803   9.576 -0.0988  0.0115 -0.0384
25662W        W81903   4.354  33.038   0.397  0.0859 -0.1360 -0.0167
25663W        W81904   7.069  32.300   2.627 -0.1736 -0.2817  0.1407
25664W        W81905   8.486  21.808   9.857 -0.0332 -0.0610  0.0070
25665W        W81906   5.008  28.877   2.312 -0.1593 -0.1434  0.0908
25666W        W81907   5.589  10.728   7.578 -0.1896 -0.2117 -0.0261
25667W        W81908  35.155  27.697  25.291  0.2275 -0.1861 -0.0874
25668W        W81909  28.820   2.828  25.036  0.0888  0.1428  0.1532
25669W        W81910  14.602  17.540   5.003 -0.1613  0.2968  0.3341
25670W        W81911  26.742  22.849  19.145 -0.0772  0.2241  0.1414
25671W        W81912   9.150  22.870  26.174 -0.1551  0.1517  0.1828
25672W        W81913   9.688  16.053  25.274  0.0953 -0.2163 -0.0016
25673W        W81914   4.055  23.860  24.817  0.0321 -0.0407  0.0125
25674W        W81915   7.241   8.643   2.809  0.1931 -0.1441 -0.2043
25675W        W81916  11.363  21.892  12.651 -0.3935 -0.3534  0.0696
25676W        W81917  24.051  15.389  23.046 -0.0094 -0.1422 -0.4046
25677W        W81918   7.478  23.759   5.062 -0.2609 -0.4707 -0.0409
25678W        W81919  33.720  23.303  22.729 -0.2979  0.1711  0.0067
25679W        W81920  15.459  19.228   9.581 -0.1769 -0.0212 -0.2931
25680W        W81921  23.054   7.185  21.994  0.0340  0.1860  0.1221
25681W        W81922  11.180  13.770   4.486 -0.0276  0.1577  0.2574
25682W        W81923  22.347   4.464  15.103  0.0028  0.0941  0.1671
25683W        W81924  20.164   6.661  19.864 -0.0294  0.2512 -0.1644
25684W        W81925   7.205  31.255  23.910  0.0231  0.0019  0.0723
25685W        W81926  34.127  21.266  10.007  0.0688  0.1061 -0.0758
25686W        W81927  33.033   4.017  24.886 -0.0382 -0.0918 -0.3175
25687W        W81928  30.916   6.270  20.613 -0.1238 -0.0961 -0.0132
25688W        W81929  30.980  12.717  22.482  0.1246  0.0439  0.1735
25689W        W81930  13.558  18.972   4.320  0.0898 -0.0910 -0.2349
25690W        W81931  18.443   6.812   9.757  0.2213 -0.1796  0.1433
25691W        W81932  29.869  21.570  25.624  0.0253  0.1222 -0.0253
25692W        W81933   5.947  35.216   7.790  0.0676 -0.4017 -0.1160
25693W        W81934  16.617  19.680   6.806  0.1117 -0.2314 -0.3396
25694W        W81935  29.136  34.790   6.338 -0.1901 -0.2311  0.0954
25695W        W81936  15.418  26.398  23.933  0.1936  0.0335 -0.1216
25696W        W81937   2.899  29.881  22.797  0.2387 -0.0477 -0.1471
25697W        W81938  12.306   9.421  13.703 -0.1420  0.0743 -0.0151
25698W        W81939  24.864   9.412  22.551 -0.0556 -0.0087 -0.0486
25699W        W81940  19.895  35.271  25.367 -0.1619 -0.0928 -0.3167
25700W        W81941   1.456  21.560  12.530 -0.1683  0.2509  0.0485
25701W        W81942  18.390  25.936   2.858 -0.1413  0.0724 -0.2359
25702W        W81943   9.913  14.938  12.365 -0.0960 -0.1528 -0.1480
25703W        W81944  31.467  29.501  25.977 -0.0404  0.0325 -0.0935
25704W        W81945  28.616   5.653   2.286  0.0054 -0.1596  0.0301
25705W        W81946  28.234  25.327  23.399  0.1994  0.0342 -0.2838
25706W        W81947  19.148  23.461  19.637  0.1375 -0.0558  0.0811
25707W        W81948   1.704  16.666   1.780  0.2002  0.2960  0.1884
25708W        W81949   7.883  24.630   5.496  0.1262 -0.0096  0.1971
25709W        W81950  30.087  20.902  20.925  0.1229  0.2860  0.1632
25710W        W81951   5.380   6.280  18.328 -0.1297  0.2521  0.2043
25711W        W81952  22.623   8.730   3.360 -0.2714 -0.2519  0.0995
25712W        W81953  17.418  31.249  25.420  0.0189  0.1836 -0.1233
25713W        W81954  15.749  20.143  22.215 -0.1424 -0.1010  0.0936
25714W        W81955  11.487  22.354   0.236  0.2752  0.3327 -0.1581
25715W        W81956  27.453  19.957  14.769 -0.1571  0.2617  0.4135
25716W        W81957   6.406   6.195   3.992  0.2097 -0.2698  0.0008
25717W        W81958  29.378  19.103   8.121  0.3001  0.1125  0.1499
25718W        W81959  29.407  11.749  15.944  0.0028 -0.0385 -0.0000
25719W        W81960  12.852  23.509  11.296  0.1074 -0.3022 -0.1646
25720W        W81961  20.645   8.667   2.080 -0.2655  0.2665 -0.1766
25721W        W81962  28.951   6.154  20.772 -0.1923  0.2198  0.3584
25722W        W81963   6.439  17.268   7.759 -0.0806  0.0637  0.0885
25723W        W81964  24.185  33.745  25.059 -0.4125  0.0586  0.0289
25724W        W81965   8.081   1.147  23.766 -0.1131  0.3684  0.0813
25725W        W81966   1.197  11.035  16.042  0.1849  0.1498 -0.1209
25726W        W81967  11.491  20.233  23.000  0.3846  0.1009 -0.0507
25727W        W81968  29.885  11.596   0.566 -0.4145 -0.1074 -0.1797
25728W        W81969  34.045  19.125  10.205 -0.2510 -0.0584  0.2156
25729W        W81970   6.176  28.379  21.855 -0.3371  0.0627  0.2270
25730W        W81971  12.705   9.060   5.776 -0.4774 -0.2294  0.1093
25731W        W81972  14.272  12.613  13.403  0.0864 -0.0333  0.0848
25732W        W81973  27.015  27.581  15.506 -0.1360 -0.0465  0.2603
25733W        W81974  22.246   3.282  17.132  0.0611  0.0493 -0.1557
25734W        W81975  15.303  16.899   8.986 -0.1117  0.0714 -0.3485
25735W        W81976   1.928  15.580   2.647  0.1829  0.1704 -0.3848
25736W        W81977   4.133  12.575  17.977 -0.2407 -0.0832 -0.3157
25737W        W81978  22.443  16.524  19.191 -0.0554  0.0743 -0.2428
25738W        W81979   9.107  23.241  16.222  0.1599  0.1645  0.1897
25739W        W81980  10.478   6.584  25.406  0.0195  0.0290 -0.1376
25740W        W81981  11.027  20.099  22.667 -0.1026  0.1278  0.1544
25741W        W81982  17.253  10.715   8.049  0.0378 -0.1033  0.0684
25742W        W81983  23.484  22.317  13.182  0.1821  0.0832  0.0350
25743W        W81984  28.105  14.478  20.434 -0.1303 -0.1477  0.3769
25744W        W81985  25.272  16.860  15.144 -0.0160  0.4108 -0.3953
25745W        W81986   0.880   7.502   1.871 -0.1684 -0.3307  0.0317
25746W        W81987  34.025  20.237  17.245 -0.0872  0.1716  0.1898
25747W        W81988  31.040   7.032  24.894 -0.1610  0.2008  0.0363
25748W        W81989  25.443   5.734  15.574 -0.0873 -0.1580  0.1519
25749W        W81990  22.106   3.024   5.319 -0.1554 -0.1779  0.1783
25750W        W81991  21.389  20.733  16.646 -0.1567 -0.0016 -0.0748
25751W        W81992  28.918  28.633  14.192  0.1051 -0.1412 -0.2406
25752W        W81993  19.872  32.618   7.940  0.0107  0.0196 -0.1005
25753W        W81994   7.470   0.571  19.820 -0.0340  0.1608  0.0566
25754W        W81995   9.399  14.526  21.951  0.0589 -0.1450  0.0655
25755W        W81996  32.918  29.663   1.168 -0.2058 -0.1659 -0.1093
25756W        W81997  15.740  23.191   4.219  0.0729  0.0446 -0.0567
25757W        W81998   3.667  27.274  19.794  0.0524 -0.3794 -0.3024
25758W        W81999  15.524   7.614  11.104  0.0738  0.1284 -0.0355
25759W        W82000  28.603  24.315  22.664 -0.0030  0.1243  0.2687
25760W        W82001  23.428  15.689  13.128  0.0109  0.2129 -0.1519
25761W        W82002   0.949  17.592  24.502  0.0518  0.1899 -0.0205
25762W        W82003   6.388  16.184   8.403 -0.0194  0.1160  0.2103
25763W        W82004  27.823  26.635  25.078  0.5641  0.0330 -0.0176
25764W        W82005  16.119  24.032  23.650 -0.1883 -0.4696  0.3297
25765W        W82006  28.116   5.179  18.724  0.1783  0.0694  0.0062
25766W        W82007  32.118  34.018  22.366  0.2614  0.3812 -0.3029
25767W        W82008  12.285   3.604   3.833  0.1070  0.4147 -0.3021
25768W        W82009   7.761  12.957   3.896  0.3093 -0.0498 -0.1165
25769W        W82010   0.287  32.569  23.705  0.3079 -0.2904 -0.2222
25770W        W82011  26.102  24.557  17.786 -0.0409  0.5513  0.2999
25771W        W82012   9.296  11.250  19.233 -0.0200  0.0432  0.2105
25772W        W82013  27.558  14.060  23.588 -0.2455 -0.2305 -0.1814
25773W        W82014  23.260   6.068  23.184 -0.0598 -0.1603  0.1398
25774W        W82015  33.136   7.145  23.795  0.6121  0.0214  0.2008
25775W        W82016  11.251  16.492  12.278  0.0540  0.2068  0.1611
25776W        W82017   7.211   6.618   0.365  0.2690 -0.1023 -0.0655
25777W        W82018   9.420  29.123  21.219 -0.0418 -0.2448  0.1445
25778W        W82019  28.884  17.342   5.000  0.0577 -0.0143  0.1098
25779W        W82020   8.405  14.575  20.881  0.2275  0.2075 -0.1019
25780W        W82021  23.126  33.473  19.287 -0.1626 -0.0493 -0.2461
25781W        W82022  31.589  34.713   5.235 -0.0669 -0.1431  0.1095
25782W        W82023  23.119  27.924   2.929 -0.0753 -0.0878 -0.0292
25783W        W82024  23.249  31.421  25.425  0.2340  0.4557  0.3265
25784W        W82025  27.551  23.323  23.750 -0.0325 -0.1544 -0.0363
25785W        W82026   8.434  26.162  23.650  0.1449  0.2218  0.0096
25786W        W82027   3.576  21.239  19.939 -0.2977  0.1211  0.0890
25787W        W82028  13.888   2.225   2.448  0.2569 -0.0969 -0.1691
25788W        W82029   4.740  29.849   1.099  0.1216 -0.1300 -0.0621
25789W        W82030   3.601  35.300   1.017  0.1373  0.0517 -0.3400
25790W        W82031  19.673  23.998   7.179  0.0225 -0.0637 -0.0821
25791W        W82032  23.947  23.256  15.376  0.1737 -0.2783 -0.0502
25792W        W82033  15.084  27.300   7.291  0.0917 -0.0070 -0.0995
25793W        W82034   6.459   6.912  23.566  0.1818 -0.1321 -0.0429
25794W        W82035   1.136  34.248   7.825 -0.2442  0.3937  0.2233
25795W        W82036  28.283  13.431  10.086  0.0126  0.1499  0.0502
25796W        W82037  34.107   1.630  24.650  0.3667 -0.0089 -0.0002
25797W        W82038  32.548  15.315  14.680 -0.1483  0.0280 -0.0127
25798W        W82039  34.074  24.440  23.979  0.1094 -0.1678 -0.3622
25799W        W82040   6.780  15.128  24.545 -0.2602  0.0345  0.0641
25800W        W82041  30.135  23.776  21.677 -0.0689 -0.0294 -0.1693
25801W        W82042  11.679   1.524  11.193 -0.2814  0.1205  0.2057
25802W        W82043  16.230  35.317   2.760 -0.1197 -0.0618 -0.0715
25803W        W82044  35.153   7.255   1.965  0.0332 -0.0973  0.3430
25804W        W82045  33.103   7.727  19.704  0.1378 -0.2454 -0.2934
25805W        W82046  30.786  33.389  25.201  0.0609 -0.0730 -0.1341
25806W        W82047  22.954  24.904   0.726  0.0650 -0.1056  0.2131
25807W        W82048  18.513  23.634   3.024  0.0165 -0.1006 -0.2810
25808W        W82049  26.731  10.173  15.907  0.1763 -0.1891 -0.3684
25809W        W82050  17.133  21.343  12.516  0.1357  0.0863 -0.0597
25810W        W82051  28.496   7.127  20.400  0.0149  0.4612 -0.3049
25811W        W82052  33.644  17.477  10.831 -0.3544 -0.0791  0.1203
25812W        W82053  22.245  26.206   3.753 -0.0059  0.3936 -0.1246
25813W        W82054  14.706  15.059  22.761 -0.3120  0.0743  0.1167
25814W        W82055   8.280   8.927   3.807 -0.3232  0.1908  0.1731
25815W        W82056   0.044  34.694   2.027 -0.4079  0.4751  0.2790
25816W        W82057  26.929   6.859   2.296 -0.3252 -0.1402  0.0145
25817W        W82058  18.050   7.885  24.194 -0.0083 -0.1867 -0.0585
25818W        W82059  10.921  31.622   3.314  0.0935  0.3385 -0.2363
25819W        W82060  20.804  12.386  21.886 -0.3218  0.2806  0.0811
25820W        W82061  29.547   1.589  19.911 -0.2344 -0.0929 -0.1653
25821W        W82062  13.418  21.801   0.589 -0.1496 -0.1818  0.0947
25822W        W82063   8.430  35.284  10.285 -0.1212  0.0303  0.1021
25823W        W82064  18.123  17.708   7.807 -0.2340  0.1230  0.0169
25824W        W82065  12.803   3.057   1.489  0.0074 -0.2157 -0.2911
25825W        W82066  23.286   5.031  18.099 -0.1738 -0.1244  0.1887
25826W        W82067  13.822  31.353  21.291 -0.1161 -0.0061  0.0991
25827W        W82068  22.452  11.187   1.677 -0.0506  0.2319  0.2836
25828W        W82069  34.615  18.986  10.553  0.0875  0.4223 -0.0941
25829W        W82070  33.998  28.952  18.807 -0.0179  0.2876  0.1645
25830W        W82071  16.325  13.857  25.167 -0.0702  0.1116  0.0392
25831W        W82072  33.663   6.571  19.091  0.0724 -0.0419  0.1384
25832W        W82073  17.075  19.791  23.147 -0.4068 -0.0833 -0.0172
25833W        W82074  31.451   8.504  23.677  0.1104 -0.1070 -0.3853
25834W        W82075   2.470  12.054  17.855  0.1952  0.1648  0.0575
25835W        W82076  17.518  20.243   3.533  0.1134 -0.0271  0.0468
25836W        W82077  11.758   0.633   7.744  0.2094  0.2351 -0.1640
25837W        W82078   9.778   2.025  13.076 -0.0546 -0.1182 -0.0363
25838W        W82079  35.253  15.595  22.378 -0.3645  0.1279 -0.0339
25839W        W82080  32.357  17.235  10.302  0.0744 -0.1420  0.2140
25840W        W82081  22.446   1.306   7.512  0.0762  0.1996 -0.1657
25841W        W82082  11.642  11.383  20.628 -0.1906  0.0287  0.0502
25842W        W82083   0.113   1.202  22.266 -0.1187 -0.0243 -0.0411
25843W        W82084  34.328  22.989  20.674  0.1321 -0.0836 -0.0426
25844W        W82085  29.819   2.525  13.221  0.1677  0.0394  0.1313
25845W        W82086  14.418   2.324   9.891  0.2249  0.0205  0.0377
25846W        W82087  12.597  17.169   0.389  0.0510 -0.2294  0.0206
25847W        W82088  24.834   5.544   3.872  0.1680 -0.1759  0.2514
25848W        W82089  27.573  24.892  15.987 -0.2831  0.0340 -0.1342
25849W        W82090  15.230  16.770  11.094  0.0906  0.0400  0.1446
25850W        W82091   9.847  18.690   0.079  0.1957 -0.1156 -0.3530
25851W        W82092  13.590  12.537   4.570 -0.1258 -0.1673  0.3718
25852W        W82093  22.188  15.878   0.372 -0.0822 -0.2069 -0.1641
25853W        W82094  30.732  32.761   6.113 -0.0936  0.0356  0.1731
25854W        W82095   5.031   8.343  21.576  0.3298  0.0496 -0.0614
25855W        W82096  20.101  32.741  20.941  0.0879 -0.2331  0.1038
25856W        W82097   9.526   7.087   8.091 -0.5003 -0.0289  0.2926
25857W        W82098  13.358   4.363  19.742 -0.3307 -0.1178 -0.2589
25858W        W82099  18.084   8.617   8.571 -0.2973 -0.0032  0.0524
25859W        W82100  18.834  18.893  20.557  0.1444  0.0212  0.1829
25860W        W82101  16.360  21.490   4.147 -0.1093 -0.1543 -0.0088
25861W        W82102  31.274  31.794  20.845 -0.0206  0.0025 -0.0863
25862W        W82103  24.323  25.822  20.003 -0.1661  0.2674 -0.1526
25863W        W82104   8.376  32.466  10.123  0.4460 -0.2933 -0.0188
25864W        W82105  19.993  27.596  17.635  0.1213 -0.0062 -0.3511
25865W        W82106   9.954  22.366  25.225 -0.0136  0.2041  0.3792
25866W        W82107  14.882  14.475  11.678  0.0432 -0.1891  0.0902
25867W        W82108  31.209  13.192   5.829 -0.0094  0.3186  0.0669
25868W        W82109  33.638  15.038   9.295 -0.1042  0.2655 -0.1195
25869W        W82110  24.254  23.639  15.533  0.0920 -0.1658  0.0526
25870W        W82111  30.342  11.110   8.153 -0.3704 -0.0374 -0.1902
25871W        W82112   4.450   4.380  18.685  0.1581 -0.0237  0.1902
25872W        W82113  18.650   6.616   3.878  0.2811  0.2468 -0.0084
25873W        W82114   0.468  16.944  24.393 -0.1647 -0.0564  0.2220
25874W        W82115  12.177   3.582  12.506  0.1071 -0.1695 -0.1984
25875W        W82116  17.188   1.629  21.952 -0.1912 -0.1985  0.1306
25876W        W82117  32.679  23.299  22.684  0.0048  0.3566 -0.1495
25877W        W82118  22.520   0.023  18.975 -0.0271 -0.2401 -0.0868
25878W        W82119  31.303  13.769  17.198  0.0211  0.0448 -0.1573
25879W        W82120  23.969  12.348  24.761  0.2023 -0.0036  0.1670
25880W        W82121  10.446  33.621  22.620 -0.3844  0.0295  0.2470
25881W        W82122  32.329  30.930  22.135 -0.1850  0.0118  0.1447
25882W        W82123  32.557   7.040   0.304  0.1639  0.2934  0.1096
25883W        W82124  19.081  32.763  24.079  0.3462  0.3069  0.1758
25884W        W82125  24.252  27.438   9.718 -0.2448 -0.1956 -0.1104
25885W        W82126   0.446  14.883  20.885 -0.5217 -0.0636  0.0549
25886W        W82127  18.382  13.869   4.541  0.0430 -0.2444  0.2065
25887W        W82128  18.572  13.212  18.848 -0.1522 -0.0651 -0.0554
25888W        W82129  18.552  11.392  10.943 -0.2269 -0.3270  0.1201
25889W        W82130   2.887   2.003  25.181  0.4404 -0.2147 -0.1363
25890W        W82131  14.654  24.105   2.248  0.1778 -0.2734  0.0480
25891W        W82132   6.440  26.199  13.695  0.0832 -0.0591 -0.0801
25892W        W82133  26.393  28.097   2.219  0.0401 -0.1186  0.3192
25893W        W82134  11.349  34.066   2.524  0.0371  0.0474  0.0786
25894W        W82135  34.808   5.994  14.650 -0.1137 -0.0361 -0.3169
25895W        W82136  27.879   0.600   4.679  0.0611 -0.2622 -0.1703
25896W        W82137  22.026  24.207  22.433  0.2120 -0.0391  0.2551
25897W        W82138   5.016  16.059  21.484 -0.0010 -0.2148 -0.0734
25898W        W82139  34.226  28.598   4.744 -0.2029  0.3332 -0.1365
25899W        W82140  15.217   6.902  25.757  0.0791 -0.1896  0.4154
25900W        W82141   7.336   8.618  13.399 -0.0631 -0.0427  0.2640
25901W        W82142  24.415   5.664  15.942  0.2327 -0.2534 -0.1530
25902W        W82143   7.458  31.526   5.734  0.1800 -0.0428 -0.1006
25903W        W82144   9.315   1.943   3.686  0.0363  0.0404  0.1692
25904W        W82145   7.505   2.993   2.734 -0.0403 -0.0843 -0.2542
25905W        W82146  21.689  17.824  23.001  0.1711  0.0791 -0.1680
25906W        W82147  12.878  15.250  20.352 -0.1811 -0.4979 -0.2509
25907W        W82148  27.102   6.129  25.355 -0.0811  0.1418 -0.0004
25908W        W82149   4.555  11.904  19.550 -0.1350 -0.1182 -0.1960
25909W        W82150  24.612   8.366  21.959  0.1058  0.0481 -0.3954
25910W        W82151  16.623  30.711   6.024 -0.1230 -0.2069  0.1854
25911W        W82152   8.715  17.594  22.302  0.0212  0.0562 -0.2449
25912W        W82153  19.143   3.014  19.471 -0.0311 -0.0015  0.3426
25913W        W82154  13.380  24.790   1.936 -0.0555  0.1413  0.0833
25914W        W82155  24.124  25.719  18.460  0.2144 -0.2390  0.2117
25915W        W82156  29.211  32.209   0.450  0.3551 -0.2620  0.0728
25916W        W82157  18.584   4.136   6.531  0.0447 -0.0142  0.0137
25917W        W82158  15.338  31.003   5.067 -0.0794  0.0753 -0.1827
25918W        W82159  16.680  33.326   3.833  0.0560 -0.1923  0.1857
25919W        W82160  17.367  13.937  25.636 -0.1690 -0.1788 -0.0370
25920W        W82161  24.999  16.964   6.400  0.2100  0.1505 -0.1688
25921W        W82162  30.249   6.737   8.927  0.1320 -0.0348  0.0050
25922W        W82163  21.263  35.285  20.058  0.2189  0.3914 -0.0168
25923W        W82164   7.471  33.584  14.279 -0.1029 -0.0577 -0.1101
25924W        W82165  22.269   1.799  23.190 -0.0463  0.0196  0.0073
25925W        W82166  21.277   3.597   4.962  0.0089 -0.3670 -0.2399
25926W        W82167  22.610  10.863   2.124 -0.2842  0.4945 -0.2301
25927W        W82168  16.876  18.768   4.828  0.0123  0.3102 -0.0933
25928W        W82169   8.215   0.817   7.385  0.1875  0.0154  0.0204
25929W        W82170   1.851  21.336  17.391  0.1990  0.0691  0.1927
25930W        W82171  29.579  18.012  24.657 -0.0882  0.5570 -0.0880
25931W        W82172  11.141  25.905   5.413 -0.0494  0.1049 -0.5105
25932W        W82173  21.450  33.193  23.985 -0.4332  0.2439 -0.1217
25933W        W82174  21.722   5.384   1.394 -0.1930  0.0104  0.0754
25934W        W82175  23.934  21.452  26.147  0.2117 -0.2057  0.1887
25935W        W82176  16.029  26.805   7.519 -0.3302  0.4617  0.2370
25936W        W82177  12.536   3.474   1.703 -0.1579 -0.0743 -0.0515
25937W        W82178  17.740  11.231  18.588 -0.1538  0.1879 -0.0945
25938W        W82179   0.444   9.454  18.129 -0.0435 -0.0236  0.0568
25939W        W82180   5.303   2.362   9.112  0.1775 -0.3734 -0.0445
25940W        W82181   7.463  29.360   9.539  0.2177 -0.1494 -0.2187
25941W        W82182  30.710  29.015  14.870 -0.1426 -0.0913  0.0121
25942W        W82183  25.386  19.044  12.579  0.0485 -0.0853  0.2140
25943W        W82184  29.398   8.480  20.867 -0.0807 -0.1218 -0.0784
25944W        W82185  33.448  29.969   2.252  0.1253  0.2093  0.2420
25945W        W82186  17.255  32.668   8.862  0.2401 -0.0656  0.2883
25946W        W82187   0.369   4.581  13.489 -0.0085  0.2693 -0.0380
25947W        W82188   4.005  15.001   1.996  0.1255  0.0963 -0.0350
25948W        W82189  18.851   4.764  22.379  0.2995 -0.1441  0.0482
25949W        W82190  28.544   4.850  17.648 -0.2332  0.1674  0.1002
25950W        W82191  10.429   4.407   6.496  0.0606 -0.0349 -0.0139
25951W        W82192  25.271  22.330  18.850  0.0607  0.0511 -0.2828
25952W        W82193  13.999  10.520  25.746  0.3500 -0.2382 -0.2852
25953W        W82194  32.556  19.574  24.660 -0.1337 -0.0878  0.4814
25954W        W82195  17.892  16.192  21.063 -0.3046  0.1344 -0.0368
25955W        W82196   8.578  16.246   6.329  0.1522 -0.2980 -0.1872
25956W        W82197   0.914  19.637  21.778 -0.0228  0.0447  0.2094
25957W        W82198   7.072  14.842  22.533  0.0986 -0.1941  0.1317
25958W        W82199   9.123  11.737   8.880  0.1416 -0.0903 -0.0905
25959W        W82200  30.855  12.913   6.087  0.1288  0.0906 -0.0052
25960W        W82201  22.971   6.237  18.817  0.0567 -0.1208 -0.0003
25961W        W82202   3.909  25.881  25.603 -0.0602  0.1860 -0.3103
25962W        W82203   8.983  26.536  21.678 -0.0096 -0.1767  0.1621
25963W        W82204   8.398  23.193   3.865  0.0566  0.1825  0.4032
25964W        W82205  23.241  19.887  18.388 -0.1849 -0.2341  0.1970
25965W        W82206   3.863  19.083  17.450 -0.1091 -0.3500  0.0132
25966W        W82207  35.048  28.482  24.760 -0.0187  0.2071 -0.1759
25967W        W82208  21.941  34.167  25.541 -0.0118  0.0341 -0.1421
25968W        W82209  30.699  19.020  24.816  0.0831 -0.2423 -0.2281
25969W        W82210   9.601  34.488  13.524 -0.4325  0.0129 -0.2244
25970W        W82211  33.067  17.580  15.791 -0.0508 -0.1268 -0.2090
25971W        W82212  12.315  28.606  14.946 -0.0833  0.1690  0.1126
25972W        W82213  13.449  17.396  13.395  0.0974  0.2081 -0.0570
25973W        W82214   8.649  27.063   4.070  0.1255 -0.1995 -0.2229
25974W        W82215   4.440  22.582  21.794 -0.0855 -0.0217  0.0654
25975W        W82216   4.331  31.335  10.019  0.2529 -0.1959 -0.1129
25976W        W82217  30.287   4.291  11.336 -0.4246  0.2435 -0.0070
25977W        W82218  32.196  25.483   0.998  0.0789  0.0154  0.1129
25978W        W82219   9.221  30.486   6.445 -0.0862  0.1252  0.1148
25979W        W82220  22.526   4.263  21.452  0.0998  0.1951  0.3169
25980W        W82221  14.283  24.179   5.296 -0.0759 -0.0260  0.1676
25981W        W82222  16.481  23.672   8.901 -0.1620  0.0577 -0.0591
25982W        W82223  34.022  16.324  12.788  0.0789  0.0245  0.0666
25983W        W82224  10.876  16.372  22.115  0.0733  0.4295 -0.2885
25984W        W82225  15.665  33.129  22.338 -0.0405 -0.1457 -0.3524
25985W        W82226   8.054  18.409   7.830  0.0965 -0.0591  0.2928
25986W        W82227   6.514  19.386   5.714 -0.3741 -0.0942 -0.0294
25987W        W82228   4.746  16.897   2.127  0.2110 -0.0741 -0.1046
25988W        W82229  17.453   1.303   5.523  0.0560  0.2576  0.0639
25989W        W82230   7.522   1.103   6.249  0.2568  0.1331 -0.0161
25990W        W82231  30.865  15.593  24.511  0.1181 -0.1860  0.2091
25991W        W82232  33.854   0.481   4.277  0.3104 -0.2705  0.3105
25992W        W82233  13.627  10.737   2.042  0.0910  0.2767 -0.1368
25993W        W82234  12.894   7.783   5.842 -0.2482 -0.3895  0.0947
25994W        W82235  24.298   6.739  12.480  0.1261 -0.0923  0.1498
25995W        W82236  26.138  16.994  18.621  0.0947 -0.3456  0.3596
25996W        W82237  25.735  23.185  10.447  0.0155  0.1511 -0.0910
25997W        W82238  21.315   6.266   9.457  0.0708 -0.1344  0.2875
25998W        W82239  22.370   6.513   4.901 -0.2372  0.0436  0.0725
25999W        W82240  12.596   5.294  21.159 -0.2421 -0.0784 -0.0416
26000W        W82241  26.258   6.817   1.557  0.0348 -0.0435 -0.0286
26001W        W82242  26.799  15.432  17.302  0.3834 -0.0158  0.0802
26002W        W82243  26.037   2.597   3.493  0.0702 -0.1509 -0.1430
26003W        W82244   8.295  14.237   6.770  0.0801  0.1324 -0.2442
26004W        W82245   3.567  19.540   3.341 -0.1350  0.4391 -0.2355
26005W        W82246  31.882  17.118  24.075 -0.1376  0.1019  0.2148
26006W        W82247   4.378  24.341   1.468 -0.1262 -0.1954  0.1875
26007W        W82248   2.151  11.036  15.084 -0.1502  0.2344 -0.1064
26008W        W82249  31.154   8.131  12.147 -0.0291 -0.1174  0.1133
26009W        W82250  31.728   3.374  15.644  0.2482 -0.1252  0.2095
26010W        W82251   3.633  21.202  22.829 -0.0514 -0.1771 -0.1084
26011W        W82252  31.126   8.390  24.501  0.2822 -0.0833  0.2066
26012W        W82253   8.591  32.691   0.419  0.3174  0.2170  0.4573
26013W        W82254  29.755  33.241   4.411 -0.0196 -0.1993 -0.3736
26014W        W82255   4.680  20.710   1.340  0.0584 -0.2407  0.0885
26015W        W82256  31.290  32.907   3.755  0.0482  0.0957 -0.0140
26016W        W82257  23.318  17.181  20.741 -0.1906  0.2434 -0.1015
26017W        W82258   2.229  15.485  18.046  0.1862  0.1818  0.3040
26018W        W82259  25.259  10.764  21.972  0.1575  0.2427  0.1544
26019W        W82260  14.039  25.522   6.469  0.4032 -0.4025 -0.0946
26020W        W82261   6.748  12.667  11.036  0.0198  0.2783  0.2546
26021W        W82262  34.250  18.949  22.511  0.2659 -0.1044 -0.1601
26022W        W82263  10.104   2.596   5.881  0.0239 -0.0531 -0.0382
26023W        W82264  17.355  14.830   1.825  0.1363  0.1786 -0.2335
26024W        W82265  13.392  28.802  15.962  0.2897  0.2613  0.1375
26025W        W82266  26.723   3.263  20.383  0.0661 -0.1699  0.1157
26026W        W82267   3.877   7.920  19.485  0.2228  0.0369 -0.2295
26027W        W82268  14.428   6.323   4.749  0.0912 -0.1210 -0.0871
26028W        W82269  26.023  27.176  22.799 -0.2678  0.0116  0.3331
26029W        W82270  18.221   6.020  24.123 -0.2007  0.0774  0.4409
26030W        W82271  14.197   9.619  11.795 -0.0440  0.0699 -0.0815
26031W        W82272   5.999  27.247   4.118  0.1951  0.0367 -0.1494
26032W        W82273  29.571   8.413   0.184 -0.1751 -0.1848  0.2043
26033W        W82274  22.560  35.375   0.983 -0.0862 -0.4089  0.1376
26034W        W82275  34.502  10.618  24.828  0.3509 -0.0386  0.1950
26035W        W82276  14.660  20.865   7.943 -0.2461  0.4315 -0.1493
26036W        W82277  23.604   2.943   3.552 -0.0942  0.0586  0.0542
26037W        W82278  18.409  24.263  21.638 -0.2620 -0.1372  0.1592
26038W        W82279  16.848  27.471  11.871  0.3499  0.2202 -0.1647
26039W        W82280   3.100   5.295  24.447  0.4745  0.2841  0.2317
26040W        W82281   9.879  22.524   8.233  0.1551 -0.1649  0.0662
26041W        W82282  16.340  32.195  10.614 -0.1309  0.1803 -0.2702
26042W        W82283  10.085   9.575   8.624  0.0874 -0.0013  0.1128
26043W        W82284  16.665  35.127  22.194  0.1227 -0.1645  0.0812
26044W        W82285   7.117  31.818   5.453 -0.1726 -0.3134 -0.0137
26045W        W82286  13.115  32.371  12.700 -0.3252 -0.0016  0.0277
26046W        W82287  17.541   4.572   3.956  0.0839 -0.0729  0.1264
26047W        W82288   1.525   1.437   3.836 -0.2405 -0.0446  0.0433
26048W        W82289   6.176  26.899  22.555  0.2592  0.3128  0.0351
26049W        W82290  32.648   5.134  21.662 -0.1092  0.0070  0.1039
26050W        W82291   8.559  18.002  11.159  0.0052  0.0880  0.0036
26051W        W82292   7.200  20.473   1.397 -0.1331  0.3318  0.4273
26052W        W82293  15.070  17.821  22.035 -0.3202  0.4542  0.2288
26053W        W82294   8.847  15.829   4.023 -0.3020 -0.1033 -0.2434
26054W        W82295  27.468  18.335  13.148 -0.2738  0.0889  0.0586
26055W        W82296   3.506  20.422  15.745 -0.1172 -0.2525 -0.0985
26056W        W82297  26.821   4.010  12.440  0.2636 -0.1762  0.0157
26057W        W82298  18.226  24.204   3.713 -0.1778  0.3647  0.0133
26058W        W82299  35.007  15.005   0.468 -0.0120 -0.2459  0.1351
26059W        W82300  32.373  17.031  23.718 -0.3053 -0.0309  0.5110
26060W        W82301   4.289  12.769  25.526  0.1889 -0.1907  0.0154
26061W        W82302   7.921   5.230  13.124 -0.2662 -0.1808  0.0581
26062W        W82303  11.319  10.366   4.716 -0.0754 -0.0576  0.0750
26063W        W82304  13.354   1.667  12.032  0.3371 -0.1393  0.1108
26064W        W82305   5.285   5.488   5.316 -0.3192  0.0455 -0.0437
26065W        W82306  15.904  25.670  21.939  0.0129  0.3176 -0.0602
26066W        W82307  31.599   0.270  17.558 -0.2499  0.0328  0.0322
26067W        W82308   6.767   0.065  12.015 -0.0632 -0.0510 -0.1736
26068W        W82309  30.635   2.172   1.767  0.1793  0.0032 -0.2213
26069W        W82310   6.335   5.462  18.513  0.1789  0.0982 -0.0081
26070W        W82311  16.079  23.474   5.328  0.3973 -0.1719 -0.0557
26071W        W82312  23.957  25.911  14.023 -0.0950 -0.0389 -0.0084
26072W        W82313  26.868  22.505  10.229 -0.2109  0.3050 -0.0147
26073W        W82314  11.286  34.587  22.649  0.0179  0.0131 -0.1271
26074W        W82315  31.099   4.758  14.714 -0.0424  0.1449 -0.1917
26075W        W82316  28.740  30.047  10.659 -0.2834  0.1295 -0.0479
26076W        W82317  29.393  28.786  21.406 -0.2417  0.4698  0.0318
26077W        W82318  12.432   1.045  19.183  0.3949  0.2101  0.0385
26078W        W82319  31.690  16.971  13.834 -0.1943  0.0071  0.0031
26079W        W82320  15.691  30.976  23.134 -0.0599 -0.2850  0.1725
26080W        W82321  25.059  25.556  12.091 -0.1441 -0.1605  0.0551
26081W        W82322  26.221  34.074   2.383 -0.1564 -0.1845  0.1389
26082W        W82323   5.942  14.660  22.869 -0.1425 -0.0701  0.1635
26083W        W82324  30.269  23.038  18.133  0.0943 -0.0369  0.1972
26084W        W82325  28.451  31.662  23.515  0.0787 -0.0627 -0.0214
26085W        W82326   5.825   8.918  23.797  0.0530 -0.1784  0.2659
26086W        W82327  21.922   0.245  20.549  0.0764 -0.1818 -0.0974
26087W        W82328  32.642  34.850   1.587 -0.0439  0.4190  0.3304
26088W        W82329  29.871  20.210  14.080  0.2880  0.3543  0.0216
26089W        W82330  28.088   8.171  11.107 -0.1978 -0.1935  0.0893
26090W        W82331  11.808  17.486  25.334  0.1460 -0.1937 -0.0366
26091W        W82332  23.887  16.200  18.669  0.1897  0.2669 -0.2107
26092W        W82333  16.251  12.121  14.404 -0.2085  0.4993  0.0365
26093W        W82334  31.241  33.964  18.041 -0.0032 -0.5332  0.4484
26094W        W82335  33.851  16.170  13.322 -0.2027  0.1458 -0.0406
26095W        W82336   2.322  13.113  17.974 -0.0537 -0.1113 -0.1814
26096W        W82337  19.939  30.673  23.680  0.2800 -0.1328 -0.1589
26097W        W82338   6.781   3.735  23.082 -0.0571  0.0917 -0.1737
26098W        W82339  22.608  28.154  19.645 -0.0445  0.2886  0.0652
26099W        W82340  29.193   0.935   2.801  0.1032  0.1375 -0.3359
26100W        W82341  24.523  30.461   3.609 -0.1818  0.6029  0.1054
26101W        W82342  28.160  20.031  16.825 -0.1702  0.1942  0.1624
26102W        W82343  18.078  28.809  23.065  0.1486 -0.0319  0.0613
26103W        W82344  33.725  30.236  19.985  0.2340  0.0968 -0.1020
26104W        W82345  24.081  32.258  13.888  0.0223 -0.0207  0.2288
26105W        W82346   2.400  26.755   6.688 -0.0642  0.3606  0.3283
26106W        W82347  32.635   5.942  13.499 -0.0906  0.0438  0.1200
26107W        W82348  12.081  14.951   8.664  0.0245 -0.2633 -0.2641
26108W        W82349  26.720  18.951   9.015  0.0964 -0.2657  0.1607
26109W        W82350  28.818  22.586  19.550 -0.0859 -0.1904 -0.0022
26110W        W82351   4.466   9.919  24.683  0.3078  0.3195 -0.0752
26111W        W82352  13.597  15.233  22.110  0.0419  0.0135  0.1230
26112W        W82353  20.956   4.743   7.384 -0.2222 -0.3745 -0.0487
26113W        W82354  19.080  24.035  23.968  0.0461  0.1414  0.1356
26114W        W82355  15.948  17.734  12.367  0.3111 -0.2780 -0.1556
26115W        W82356  20.250  23.040   4.378 -0.1229  0.1357 -0.0580
26116W        W82357   1.166   2.608  24.452 -0.3462  0.2669 -0.0825
26117W        W82358   8.622  23.545   0.603  0.0493 -0.4480 -0.2903
26118W        W82359  32.945  20.579  12.721 -0.0019  0.3502 -0.0678
26119W        W82360   6.794   2.415  12.022 -0.1229  0.1084  0.4324
26120W        W82361  26.603  18.629  10.651  0.2529 -0.0469 -0.1530
26121W        W82362   4.638  12.522  17.713 -0.0137  0.2410  0.3539
26122W        W82363  33.228   4.458  24.979  0.1212  0.1040  0.2735
26123W        W82364  26.921   3.965  25.927 -0.1778 -0.1554  0.2970
26124W        W82365  25.517  11.185  19.644  0.0795  0.1763 -0.2351
26125W        W82366  12.477  21.211  26.157 -0.0452 -0.1180 -0.0936
26126W        W82367  26.312  11.142  25.830 -0.2208  0.0263  0.1259
26127W        W82368  14.232  26.012  24.132  0.0495  0.1990  0.1778
26128W        W82369  17.021  15.598   9.336  0.1594 -0.1753 -0.3677
26129W        W82370  11.747   1.775   7.027 -0.0507  0.4029 -0.2649
26130W        W82371   6.866   1.268   4.239  0.0115  0.0411  0.2372
26131W        W82372   7.457  22.989   7.385 -0.1246 -0.1155  0.1528
26132W        W82373  33.916   4.366  21.698 -0.0219  0.1814  0.2202
26133W        W82374   7.187  28.151  24.485  0.1681  0.0867 -0.2987
26134W        W82375  16.207   2.530  24.734 -0.1558  0.0260 -0.1926
26135W        W82376  26.868  21.031  18.178  0.0935 -0.1207  0.1448
26136W        W82377  27.945   5.320  20.093  0.0424  0.0765 -0.4299
26137W        W82378  32.174   7.457  23.854  0.0853  0.1698  0.2152
26138W        W82379  20.775  12.664  17.993  0.2926  0.2943  0.1139
26139W        W82380   8.838  24.508   3.338 -0.4099  0.0273 -0.0636
26140W        W82381  15.999  29.339   8.123  0.1108  0.1782  0.1392
26141W        W82382   1.362  28.078   2.870 -0.0178  0.1043 -0.0021
26142W        W82383  11.252  35.338  13.436  0.2174  0.1416 -0.0555
26143W        W82384  21.023  20.294  24.957  0.2024  0.0679  0.0253
26144W        W82385  23.672  14.182  16.468 -0.0996 -0.1293 -0.1593
26145W        W82386   8.237  10.412  20.966 -0.0859  0.0966 -0.2952
26146W        W82387   3.340  13.036  16.358  0.0900 -0.2861 -0.0833
26147W        W82388   6.852  10.605   6.024  0.0771  0.0704  0.1577
26148W        W82389  13.216   0.748  12.231  0.3516  0.0077 -0.0273
26149W        W82390   8.128   0.882   1.586 -0.1324  0.4752  0.1738
26150W        W82391  16.998  31.519  10.837 -0.0974 -0.0407  0.2109
26151W        W82392  23.620  12.950  14.224 -0.0897  0.0479  0.0006
26152W        W82393  24.065   7.261  15.401 -0.2449  0.2572 -0.2206
26153W        W82394  33.137   6.863  18.732  0.2088  0.1257 -0.2451
26154W        W82395  25.558  23.695   0.302  0.0655 -0.1462  0.1378
26155W        W82396  11.378  23.543   0.587 -0.2223 -0.1722  0.0111
26156W        W82397  21.756   8.948   3.574  0.1094  0.0267  0.0762
26157W        W82398  33.886  13.082   7.088 -0.2154 -0.0280  0.3357
26158W        W82399  32.629  11.690  11.040  0.2874  0.0837 -0.0629
26159W        W82400  30.595   6.577  13.727  0.2178  0.0621 -0.0064
26160W        W82401   0.975   8.189  17.524  0.3634 -0.1918  0.3139
26161W        W82402   8.048   1.177   6.490  0.2693 -0.3029 -0.0374
26162W        W82403  23.826   7.543   4.885 -0.2505 -0.0429 -0.0652
26163W        W82404  25.193  27.786  15.256  0.4247 -0.3173 -0.4539
26164W        W82405  31.522  22.709  20.490  0.0843  0.0527  0.1076
26165W        W82406  12.254   6.659  25.053 -0.0652  0.0279 -0.1485
26166W        W82407  19.669  10.012   3.845 -0.0628  0.2055 -0.0559
26167W        W82408  24.766  19.476   8.973  0.0541 -0.1903 -0.0463
26168W        W82409  29.259  23.997  24.828 -0.4426 -0.2541 -0.0338
26169W        W82410  28.345  14.410  19.997  0.1009  0.3119 -0.1211
26170W        W82411   9.178   2.619  25.133 -0.3918  0.2326  0.1631
26171W        W82412   5.458   5.440   0.495 -0.0451  0.0326 -0.0820
26172W        W82413  28.404  18.232  15.448  0.1614  0.0493  0.3796
26173W        W82414  35.253   2.632  16.019  0.0124 -0.0695  0.2324
26174W        W82415  23.964   2.199  14.172  0.1474  0.0175 -0.1028
26175W        W82416  30.233  11.943  22.908  0.1796 -0.2167  0.0684
26176W        W82417   9.978  27.101   3.170 -0.2894  0.1264  0.0819
26177W        W82418  29.859   3.364  21.411  0.1605  0.1330  0.0884
26178W        W82419   1.472  29.040  24.509 -0.0608  0.1269  0.3177
26179W        W82420  12.041  25.275   1.988 -0.1401  0.3137 -0.1761
26180W        W82421  10.783   0.279   0.948  0.0282  0.0048 -0.2889
26181W        W82422  15.580  26.269  14.207  0.0257 -0.1011 -0.1012
26182W        W82423   9.250   5.307   5.668 -0.3914  0.2283  0.0357
26183W        W82424  20.954  19.472  17.300 -0.1401 -0.3011  0.3156
26184W        W82425   8.154  14.175   4.545 -0.1238  0.2974  0.1631
26185W        W82426  27.118  26.614   0.166 -0.3735 -0.0811 -0.1763
26186W        W82427  19.038   7.571  18.384 -0.0343 -0.1111 -0.0546
26187W        W82428  22.231  11.001   5.437 -0.0389 -0.2123  0.0593
26188W        W82429  28.962   7.942  16.538  0.1313 -0.0566 -0.1755
26189W        W82430  24.776   5.983  25.962 -0.0163  0.0693 -0.5081
26190W        W82431  26.079  22.123  15.620  0.1481  0.1050  0.0096
26191W        W82432  32.064   6.725   3.840  0.1216  0.0044  0.2384
26192W        W82433  30.802   9.352  17.502  0.1093 -0.1611 -0.0056
26193W        W82434   2.989  32.692   5.533 -0.0495 -0.1189  0.2964
26194W        W82435  29.708  17.374  12.963 -0.1457 -0.2595 -0.0172
26195W        W82436  21.717  27.255  20.718  0.0779 -0.3435 -0.1890
26196W        W82437   2.406  10.923   1.073  0.2555 -0.5859 -0.1146
26197W        W82438  30.356  19.016  19.559 -0.4192 -0.0306  0.0084
26198W        W82439   7.431   2.227  24.502  0.1998 -0.2323 -0.2611
26199W        W82440  11.937  14.836  25.511 -0.2940  0.1842  0.1280
26200W        W82441  33.006  16.635  16.659 -0.0030  0.3331  0.0109
26201W        W82442  18.614   6.358   0.752 -0.1017 -0.3772  0.1135
26202W        W82443  24.317  21.527  16.900 -0.1227  0.2203 -0.0190
26203W        W82444  35.069   4.181  25.539 -0.1403  0.0047  0.0035
26204W        W82445  23.155  12.551  22.568 -0.1656 -0.4036  0.2444
26205W        W82446   3.700   6.746   1.192 -0.1994 -0.1002 -0.0288
26206W        W82447  34.604  30.944   6.017 -0.0668  0.0147  0.1849
26207W        W82448  20.831  16.505   3.615 -0.1153 -0.1503  0.3757
26208W        W82449  34.854  10.809  12.198 -0.1646  0.3433 -0.1157
26209W        W82450  32.489  15.640  16.980 -0.1767  0.1532  0.1236
26210W        W82451  22.860  10.691   4.037 -0.0301 -0.0417  0.0910
26211W        W82452  10.265  16.357   9.955  0.0394  0.1345  0.0816
26212W        W82453  30.660   8.499  24.379 -0.3539  0.0188  0.0566
26213W        W82454   7.467  15.041   9.014  0.1022  0.2148 -0.1333
26214W        W82455  20.645  17.992   4.256 -0.1284  0.1456 -0.2322
26215W        W82456  14.018  28.493   6.746  0.1778 -0.1823  0.1454
26216W        W82457   2.022  13.033   1.425 -0.0337  0.2939  0.1717
26217W        W82458   3.309  23.563  18.859  0.1197 -0.0123  0.4488
26218W        W82459  10.259  25.163  15.362 -0.0596 -0.3428 -0.1082
26219W        W82460   0.602  17.576   0.134  0.3156 -0.2926 -0.0296
26220W        W82461  29.928  12.919  18.716  0.1806 -0.0262 -0.3515
26221W        W82462  22.485  19.867  18.896  0.2937  0.0381 -0.0886
26222W        W82463  33.835   7.955   4.117  0.1699 -0.1635 -0.1097
26223W        W82464   6.513  17.515  18.183  0.1520  0.4576  0.3711
26224W        W82465  13.326  14.138   5.833 -0.2289  0.5705 -0.1842
26225W        W82466  10.128  30.661   0.433  0.0953  0.0976 -0.1860
26226W        W82467  32.190   5.066  15.750 -0.3174  0.0101 -0.0461
26227W        W82468   7.673  13.054   4.926 -0.1863  0.3639 -0.0411
26228W        W82469  12.150  18.655  13.616  0.1263  0.1576 -0.1501
26229W        W82470  26.408  26.532  13.588  0.0679 -0.0954  0.2379
26230W        W82471  17.476  21.957   1.142 -0.1373 -0.2872 -0.0112
26231W        W82472  13.723   1.608  22.454 -0.3014 -0.0244  0.2001
26232W        W82473   6.540  11.397  25.072 -0.0189 -0.1611  0.3404
26233W        W82474  14.302   4.826  10.400 -0.1445  0.0229 -0.0625
26234W        W82475  17.351   4.553  11.437  0.1111  0.0471 -0.1181
26235W        W82476  19.213  19.706   9.317  0.1022 -0.1122  0.0412
26236W        W82477  31.012  27.429  18.614  0.2823 -0.1221  0.0073
26237W        W82478  15.782  30.267   5.445 -0.1013 -0.0623 -0.0471
26238W        W82479  14.763  35.279   0.218  0.4502 -0.1742  0.0714
26239W        W82480   8.590  14.256  25.681 -0.1108 -0.1124 -0.2636
26240W        W82481   9.819  20.770  11.130  0.0970 -0.0312  0.0724
26241W        W82482  24.393  10.568  11.895 -0.1042 -0.1524 -0.0836
26242W        W82483   5.438   2.423   5.984  0.0732 -0.2721  0.1317
26243W        W82484   2.900  20.305   3.406  0.2041  0.1052 -0.0289
26244W        W82485  33.809  12.333  13.423 -0.0176 -0.2494 -0.3540
26245W        W82486   9.627  32.832   2.409  0.0728 -0.1726  0.1012
26246W        W82487   1.779  29.607   7.438  0.1043  0.1222 -0.0914
26247W        W82488  13.146  19.855  11.095  0.2917 -0.0597 -0.0431
26248W        W82489   7.643  13.836   1.228  0.2573 -0.2015  0.3236
26249W        W82490  15.742  12.753   7.483 -0.0868  0.5146  0.0040
26250W        W82491  28.460  23.322   9.907 -0.1143 -0.0805  0.0667
26251W        W82492  18.851   4.564  24.524 -0.0478  0.0078 -0.3280
26252W        W82493   8.957   7.998   8.064  0.0012  0.3658  0.0076
26253W        W82494  18.890  18.857  18.729  0.3868 -0.1236  0.4650
26254W        W82495  35.232  25.241  25.713 -0.4403  0.0611 -0.0914
26255W        W82496  25.005  14.059   8.797 -0.1361 -0.1594  0.0396
26256W        W82497  30.254  28.611  26.028 -0.1945  0.2318 -0.2491
26257W        W82498  22.666  34.651  25.345  0.0691 -0.3642 -0.2424
26258W        W82499  25.221  17.347  14.211  0.0838 -0.4243  0.4435
26259W        W82500  23.354  17.715  20.024 -0.0004 -0.1343  0.0883
26260W        W82501  33.523   3.485   3.052 -0.2403  0.1583  0.1524
26261W        W82502   2.357  23.299  16.761 -0.1238  0.3809 -0.0485
26262W        W82503  30.050   4.446  17.271  0.1091 -0.0048  0.1366
26263W        W82504  32.722   5.795  12.053 -0.0265  0.3602  0.1237
26264W        W82505   3.803   2.342  20.202 -0.3305  0.0489 -0.1241
26265W        W82506  33.403  29.041   1.735 -0.0984  0.0535  0.0791
26266W        W82507  10.961  24.058   1.217 -0.0912 -0.0367  0.0456
26267W        W82508  17.009  24.941  11.674  0.2087 -0.0739 -0.2895
26268W        W82509  17.612  14.385   7.696  0.0176 -0.0486 -0.2169
26269W        W82510  28.131  11.795  21.335  0.1729  0.1942 -0.2416
26270W        W82511   6.299  13.181   6.177 -0.0495  0.1967  0.0337
26271W        W82512  25.328  10.085   0.376  0.0053  0.0270 -0.0499
26272W        W82513  17.216  26.902   6.383  0.2436  0.2648  0.1669
26273W        W82514  31.961  29.310  21.995 -0.1732  0.2885 -0.1555
26274W        W82515   5.923  30.885   3.495  0.3301 -0.0635  0.0263
26275W        W82516   1.702  12.284  16.686 -0.1277 -0.2439 -0.0664
26276W        W82517  27.976  27.345  19.833  0.2293  0.2341 -0.1867
26277W        W82518  13.663   2.717  13.110 -0.0511 -0.1626 -0.2803
26278W        W82519   6.059  26.632   5.386 -0.0309  0.0297  0.2310
26279W        W82520  21.056   3.768   3.566  0.1613  0.1820  0.4963
26280W        W82521  30.337  27.199  19.842  0.0187 -0.3871  0.2311
26281W        W82522   9.391   1.057   4.287 -0.2573  0.1190 -0.0503
26282W        W82523  28.686   3.721  26.245  0.1715 -0.0044 -0.1278
26283W        W82524  32.459  30.254  22.901  0.1899  0.2255 -0.1767
26284W        W82525  32.203  28.522   1.048  0.3204  0.0780 -0.3112
26285W        W82526   6.725   0.723   7.829  0.2898 -0.0799 -0.1297
26286W        W82527  23.623  16.450  23.773 -0.0805  0.1759  0.3613
26287W        W82528  11.842  25.737  15.339  0.2076 -0.0951  0.0056
26288W        W82529  32.108  12.118  14.376 -0.0660  0.1175  0.0540
26289W        W82530  19.226  31.970   9.659  0.0203  0.1102  0.1796
26290W        W82531  15.440   0.654   1.720  0.1151  0.0813 -0.1857
26291W        W82532  28.907  16.470  16.728 -0.0400 -0.2432  0.0545
26292W        W82533  19.084  18.889  10.291  0.0998  0.0705 -0.0209
26293W        W82534  12.687  35.354   5.015  0.1725 -0.2485  0.0105
26294W        W82535  29.106   7.377  12.644  0.1323  0.0937 -0.1149
26295W        W82536  33.645   2.021  17.233  0.0941  0.2191 -0.0785
26296W        W82537  15.927   5.896  10.837  0.4345  0.2663  0.0162
26297W        W82538   6.593   2.427  22.676 -0.0037  0.3138 -0.2173
26298W        W82539  16.148   6.688   0.687  0.1743 -0.4719  0.0883
26299W        W82540  16.410   3.127   9.851 -0.0358 -0.0494 -0.0539
26300W        W82541  13.212  12.043   8.450 -0.2125 -0.2944 -0.4160
26301W        W82542   7.223   8.257  22.960 -0.1462  0.0594  0.2349
26302W        W82543  23.105  16.454  23.743  0.2804  0.1741  0.2259
26303W        W82544   5.365  29.884   1.621 -0.0168  0.2275  0.2975
26304W        W82545  33.271   1.135   7.870  0.1099 -0.2629  0.2205
26305W        W82546   9.684   5.467   9.602 -0.0792 -0.1871 -0.1542
26306W        W82547  18.495  20.519   9.521 -0.1031  0.1579 -0.1057
26307W        W82548   8.535  20.025  14.723 -0.0309  0.0253  0.3940
26308W        W82549  22.923  11.344   2.747  0.1811 -0.1370 -0.0913
26309W        W82550  22.355  22.790  15.433 -0.1027 -0.0131 -0.0049
26310W        W82551  10.954  15.679  20.127  0.1218 -0.0069  0.1857
26311W        W82552   6.312  31.268  14.268 -0.0892 -0.3068 -0.0361
26312W        W82553   8.884   5.772   0.088 -0.0964 -0.1747  0.2366
26313W        W82554  16.366   9.407  25.115  0.0905  0.0066 -0.1837
26314W        W82555  22.352   9.849  20.507 -0.0050 -0.1737  0.1848
26315W        W82556  26.363   8.023  17.213  0.1615  0.1235 -0.0219
26316W        W82557  30.618  22.688  20.499  0.0212  0.0020  0.2747
26317W        W82558  18.527  27.535  19.457  0.0705 -0.1042 -0.2338
26318W        W82559  22.747  30.917  12.508  0.0155  0.1391 -0.1829
26319W        W82560  12.015  31.243   7.295  0.1942  0.1419 -0.1384
26320W        W82561  34.581  19.033  25.517  0.0178 -0.2413  0.4426
26321W        W82562   0.663  32.488   5.223 -0.2805 -0.3171  0.0957
26322W        W82563  30.280   7.175   9.596 -0.1158  0.2593  0.0856
26323W        W82564   4.782  12.318   2.893  0.1807 -0.1367 -0.2045
26324W        W82565   6.457  24.808   7.040 -0.0618 -0.2953 -0.2464
26325W        W82566  20.841  20.940  22.198  0.2207  0.0085 -0.0254
26326W        W82567  13.342  23.349  17.117  0.0427 -0.0615  0.2165
26327W        W82568  28.657  20.528   4.691 -0.0141 -0.0940 -0.1445
26328W        W82569  17.845   6.945   4.255  0.0454  0.1495  0.1081
26329W        W82570  26.610  18.174  11.298 -0.1850  0.0779  0.0931
26330W        W82571  15.074  17.408   9.000 -0.0985  0.0598  0.1368
26331W        W82572  33.231   5.908  14.958 -0.1336  0.1065  0.0128
26332W        W82573   0.192  29.878   8.923 -0.1970  0.0022 -0.1376
26333W        W82574  33.999  10.179   1.480 -0.1686 -0.1839  0.2215
26334W        W82575  15.402  29.610  23.007  0.1741  0.1633  0.3981
26335W        W82576  17.435   7.379  10.759 -0.3204 -0.2530  0.0769
26336W        W82577  27.397   3.812  17.000  0.1370 -0.1599 -0.0127
26337W        W82578  25.130   7.588  13.204 -0.0275 -0.1685  0.1428
26338W        W82579   9.854  34.403  12.354 -0.0379 -0.0580  0.0841
26339W        W82580  28.856  28.078  14.697  0.0585 -0.0714 -0.0847
26340W        W82581  15.781   0.952  20.714  0.0957 -0.2911  0.1016
26341W        W82582  20.424  15.492  23.325  0.0128  0.1095 -0.1657
26342W        W82583   0.996   2.085  19.303 -0.2435 -0.0428 -0.0899
26343W        W82584  31.295  31.120   3.840 -0.1489 -0.1488  0.1429
26344W        W82585  27.497  26.617  10.060 -0.3817  0.0618  0.1988
26345W        W82586   3.465  27.509  11.665 -0.0369  0.2737  0.2186
26346W        W82587  29.619  25.134  13.970  0.2554  0.0045 -0.0542
26347W        W82588  21.045   6.660   9.285  0.0392  0.1824  0.2323
26348W        W82589   2.936  17.667   3.848 -0.1469 -0.0059  0.2821
26349W        W82590  32.331  11.446  11.381  0.5640  0.0506  0.2339
26350W        W82591  12.913  14.729   3.563 -0.3584  0.0487 -0.1595
26351W        W82592  14.818  10.731   5.541 -0.1572  0.0210  0.0398
26352W        W82593  26.541  30.444  19.923  0.2774  0.1972 -0.0979
26353W        W82594   0.460  29.328  20.894  0.0429  0.1508  0.2205
26354W        W82595  24.110   1.449   2.706  0.0518  0.2081 -0.1522
26355W        W82596  33.671  32.712  17.853  0.1179 -0.0125 -0.1707
26356W        W82597   5.175   7.746  19.109 -0.2195 -0.2083 -0.1314
26357W        W82598   6.193  14.576   2.975 -0.0771 -0.2366 -0.1466
26358W        W82599   1.769  31.112   4.274  0.2111 -0.4476  0.0987
26359W        W82600   9.186   1.872   9.504 -0.1396  0.0242  0.2179
26360W        W82601   3.276  19.709   0.906 -0.1066  0.1722  0.0453
26361W        W82602   8.576  18.321   4.676  0.3565  0.0103  0.2115
26362W        W82603  13.557  28.701  21.823  0.1223  0.0596  0.1066
26363W        W82604  21.988  15.751  24.920 -0.2591 -0.1679 -0.2115
26364W        W82605  20.574  13.846  25.492  0.0173 -0.3780 -0.0762
26365W        W82606   5.512   9.544  21.698  0.0220 -0.1964 -0.1185
26366W        W82607  11.759  26.447  13.594 -0.2223  0.0816 -0.1370
26367W        W82608  33.504   8.042  24.831 -0.1184 -0.1067 -0.2284
26368W        W82609  14.272   5.512  25.186  0.1247  0.0537 -0.1595
26369W        W82610  28.513  15.437  20.796 -0.0398  0.2395 -0.0813
26370W        W82611  20.090  27.882  22.780  0.0911 -0.1893 -0.1530
26371W        W82612  31.285  18.505   7.679  0.1260  0.0085 -0.0216
26372W        W82613   3.031   6.814   7.639  0.0572 -0.2618  0.0861
26373W        W82614  27.675  27.977  11.590 -0.1631  0.1025  0.3376
26374W        W82615  21.361   8.483  16.149 -0.4820  0.0436 -0.0311
26375W        W82616  33.020  20.479   6.321  0.2158  0.0293 -0.3421
26376W        W82617   3.329   8.981   4.045  0.1341 -0.2956  0.0860
26377W        W82618   1.717   5.630  13.877 -0.0623 -0.1930 -0.3187
26378W        W82619  24.404  22.453  16.714  0.0570 -0.0642  0.1544
26379W        W82620   7.113  33.410  23.211  0.0492  0.1824 -0.3149
26380W        W82621  32.312   0.311  19.063  0.0571 -0.0945 -0.2770
26381W        W82622  21.772  33.352   7.432 -0.0255 -0.0366 -0.1989
26382W        W82623  29.025  28.182  19.770  0.0555 -0.4372 -0.0955
26383W        W82624  17.848   8.277  10.525 -0.3991 -0.2488  0.3382
26384W        W82625  28.899  16.618   5.667 -0.1716 -0.3881 -0.1493
26385W        W82626  15.171  11.319  21.846  0.1039 -0.3255 -0.0856
26386W        W82627  10.068  18.831  23.116 -0.5593 -0.1053 -0.3509
26387W        W82628  21.507  26.622  20.233 -0.1543 -0.3348  0.1174
26388W        W82629  23.223  17.810  25.549 -0.1757 -0.0486 -0.0050
26389W        W82630  17.511  30.149   7.906  0.2996 -0.0266  0.1167
26390W        W82631  32.680   6.513  18.207 -0.0244  0.3627  0.0852
26391W        W82632  15.108  12.756   0.600 -0.0049  0.1538  0.0567
26392W        W82633  16.323  23.554   2.772  0.3649 -0.2168 -0.0562
26393W        W82634   9.739   1.254   0.142 -0.0369 -0.2428 -0.1491
26394W        W82635  30.606   8.890  10.902 -0.0740 -0.0165 -0.0085
26395W        W82636  15.206   2.791   3.331  0.1838  0.1650 -0.2120
26396W        W82637  11.919   8.806  14.437  0.0776  0.0507  0.1455
26397W        W82638  30.959   6.676   0.919 -0.1022  0.0459  0.0355
26398W        W82639  19.578  13.990   2.740  0.2873  0.0158  0.2386
26399W        W82640   6.330  24.612   0.948 -0.0492 -0.3806  0.2349
26400W        W82641  17.448   5.731  21.118  0.2495  0.0251  0.1257
26401W        W82642  15.156  17.062  19.375  0.0125  0.0514 -0.1918
26402W        W82643  16.747   5.332  12.390  0.0230 -0.0751  0.1279
26403W        W82644  11.683  11.235   7.495  0.2161 -0.0538  0.0191
26404W        W82645   1.387  31.411  22.158 -0.0117 -0.0582  0.1582
26405W        W82646  17.113  23.280  24.897 -0.0709 -0.0266 -0.0491
26406W        W82647   4.162  29.091  21.148 -0.1150 -0.1385  0.2670
26407W        W82648  32.809  24.865  23.982 -0.1791 -0.0635  0.2505
26408W        W82649  31.905   7.059  16.846 -0.1736 -0.4025  0.1000
26409W        W82650  28.048   2.202  12.709 -0.1242 -0.0201  0.1486
26410W        W82651   2.060  18.319   3.269  0.2596 -0.4658  0.2192
26411W        W82652  15.905  21.593  24.022 -0.1249 -0.0661  0.2281
26412W        W82653  25.578   3.361   5.215 -0.0300  0.4235  0.0102
26413W        W82654  34.027   3.969   5.244  0.1026 -0.0009  0.1288
26414W        W82655   7.423  27.577  12.676  0.5442  0.2498  0.0807
26415W        W82656  26.931  34.544  24.934  0.0631 -0.0257 -0.1491
26416W        W82657  25.136  21.440  19.224  0.3342 -0.0040  0.0452
26417W        W82658   4.539  23.901  23.544  0.0627 -0.1672 -0.2273
26418W        W82659   0.421  24.706   0.043 -0.2488 -0.2044  0.1637
26419W        W82660  20.607  18.248  21.688  0.2966 -0.0994  0.0484
26420W        W82661  14.685   9.069   6.257  0.1315 -0.0318  0.0358
26421W        W82662   8.960   4.108   9.874  0.2904 -0.0014 -0.1843
26422W        W82663  29.838  18.370  14.357  0.0970 -0.0435 -0.2055
26423W        W82664  14.130  34.500   7.346 -0.3578 -0.2401  0.3020
26424W        W82665  26.074   0.822  21.126  0.2317  0.2035  0.1084
26425W        W82666  18.861   7.541  11.039 -0.0612  0.0120 -0.0605
26426W        W82667  31.819  12.064  22.466  0.0451  0.1206  0.2745
26427W        W82668  27.096   5.246  11.126 -0.2001 -0.1113 -0.2785
26428W        W82669  24.981  31.524  25.794 -0.3053  0.2908 -0.1290
26429W        W82670  24.103  33.448  12.673  0.0858  0.0577 -0.2429
26430W        W82671  30.511  18.665  13.597  0.1133  0.0188 -0.0641
26431W        W82672   2.149  30.043  24.718  0.1117  0.2420 -0.4072
26432W        W82673  28.609  10.780   8.302 -0.1591 -0.3196 -0.1778
26433W        W82674   4.618  25.254  21.212 -0.1471  0.0221  0.1238
26434W        W82675  33.527  31.399   1.815  0.0057  0.3549  0.1405
26435W        W82676  30.451   1.347  17.203 -0.0923  0.0994  0.0925
26436W        W82677  11.959  28.714  23.693 -0.2176 -0.1470 -0.0755
26437W        W82678  16.614   1.419  10.367  0.3560  0.1894  0.0469
26438W        W82679  28.730   5.656  23.004  0.0236 -0.0776 -0.0011
26439W        W82680   2.704  28.427   7.178 -0.0391 -0.4207  0.1488
26440W        W82681   7.837   0.103  24.817 -0.0573 -0.1814  0.3508
26441W        W82682  32.918   8.959  13.746  0.0754 -0.0237  0.1448
26442W        W82683   9.653  26.405  24.035  0.1125 -0.0709  0.2822
26443W        W82684  18.849   9.390   5.531  0.0724  0.1461  0.0881
26444W        W82685   9.617  35.353   1.592  0.1473  0.1575  0.4454
26445W        W82686   3.544  35.381  10.898 -0.0309  0.0300  0.2724
26446W        W82687  24.550  14.860  12.175  0.4148 -0.2206 -0.0610
26447W        W82688  24.396  26.560  12.167 -0.1070 -0.1049  0.1398
26448W        W82689  12.088  22.118   1.835 -0.0535  0.0879  0.0508
26449W        W82690   4.575  26.786   7.960  0.1980  0.0828  0.1084
26450W        W82691  23.002  30.114   1.615  0.1119  0.1496  0.1290
26451W        W82692   2.432   1.163  22.757  0.1368  0.3658 -0.0925
26452W        W82693  22.758  32.116  19.873 -0.0275  0.0650  0.5137
26453W        W82694  30.715  32.739  20.067  0.2890 -0.0255 -0.0705
26454W        W82695  27.054  21.281  20.034  0.2125  0.1946  0.1201
26455W        W82696  11.034   9.230   8.634  0.2382  0.0596 -0.0127
26456W        W82697  23.916  33.946   2.635 -0.1909  0.0922  0.2978
26457W        W82698  28.071   2.412  13.216  0.1765  0.1869  0.1535
26458W        W82699  17.406  13.009   4.835  0.2395 -0.2610 -0.4777
26459W        W82700  28.576   1.346  11.427 -0.2823  0.1914 -0.2075
26460W        W82701  16.589  30.414   9.222  0.0808 -0.0171  0.2488
26461W        W82702  27.866  34.963  13.055 -0.0993 -0.0787  0.0160
26462W        W82703  20.356  27.779   4.537  0.0898  0.1226 -0.0721
26463W        W82704  26.274   3.216  15.899 -0.2422  0.3680 -0.1456
26464W        W82705  17.828  30.767  23.890 -0.0631 -0.0851 -0.0068
26465W        W82706   2.097  35.083   6.781  0.2169 -0.1943  0.2739
26466W        W82707  19.401  26.423  25.109  0.0878 -0.1964  0.1447
26467W        W82708  11.154   6.325   4.644 -0.1851 -0.0342  0.0588
26468W        W82709  22.969  21.204  25.028  0.1148 -0.0447 -0.0618
26469W        W82710  24.980  15.797  18.159 -0.1001 -0.2723 -0.0829
26470W        W82711  16.381  32.153  21.184 -0.0723 -0.1759  0.0855
26471W        W82712  33.044   3.573   0.859  0.1003  0.2061  0.0106
26472W        W82713  33.118  30.184  23.741  0.2527  0.0597  0.0750
26473W        W82714  13.273  21.024  15.674  0.1737 -0.0555  0.0421
26474W        W82715   7.592   3.609  23.548  0.2778 -0.3322  0.0003
26475W        W82716  33.729   4.051   4.786 -0.3753 -0.2454 -0.0867
26476W        W82717   6.348   7.813   0.321  0.0035  0.1744  0.2760
26477W        W82718   0.883   6.914  16.247  0.3552  0.2283  0.0274
26478W        W82719  13.654  32.033  15.644  0.0438  0.3056 -0.2791
26479W        W82720  11.946  33.946  13.470 -0.1549 -0.1661 -0.0600
26480W        W82721  20.709  30.039  14.080 -0.2334 -0.1463 -0.3314
26481W        W82722  15.474   8.926  13.647  0.2761 -0.3392 -0.0761
26482W        W82723  11.541  24.622  24.190 -0.3381  0.2334 -0.1978
26483W        W82724   1.741  20.562  20.380 -0.1707 -0.1145  0.1658
26484W        W82725   6.200   6.476  23.551 -0.1785 -0.0764  0.0346
26485W        W82726  28.470  14.415  10.260  0.0960 -0.2777 -0.0126
26486W        W82727   6.961  10.098   1.813  0.2782  0.1486  0.0821
26487W        W82728  28.658  30.312  18.420  0.1698 -0.0057 -0.0446
26488W        W82729   8.673  35.024   7.553 -0.2038  0.1507 -0.2643
26489W        W82730   5.300   6.408  17.196  0.0880  0.1286 -0.4213
26490W        W82731   7.140   1.601  11.501 -0.0408  0.1232  0.2334
26491W        W82732  32.313  18.180  19.553  0.0937 -0.2775 -0.2967
26492W        W82733  23.764   4.026  16.037  0.1992  0.1164 -0.1538
26493W        W82734   4.990  33.639   4.863 -0.1204  0.0826  0.3688
26494W        W82735  15.346  29.975  26.005 -0.0296  0.4829  0.2483
26495W        W82736   4.911  31.918   1.935 -0.0081  0.1355  0.2395
26496W        W82737  32.568  12.207  14.699 -0.1859  0.3294  0.1096
26497W        W82738   4.317   0.257  25.658  0.1585  0.4069 -0.0488
26498W        W82739   9.570  19.765  10.367  0.0939 -0.0082  0.1086
26499W        W82740  28.129   3.265   3.293  0.0892 -0.2808  0.1541
26500W        W82741  24.117  18.864  18.418 -0.1626 -0.0093  0.2683
26501W        W82742  13.761  12.740  11.749 -0.0663 -0.0320  0.0195
26502W        W82743  25.069  13.785   9.250 -0.1476  0.2391  0.0752
26503W        W82744  14.663   5.486  18.879  0.2156 -0.1755 -0.0124
26504W        W82745  25.673  15.213   5.912 -0.2100 -0.1762  0.1141
26505W        W82746   4.000  10.150   4.454 -0.0070  0.1134  0.2128
26506W        W82747  33.563  33.722  20.025  0.2194  0.0869  0.2875
26507W        W82748  25.492   8.069  21.560  0.2602 -0.0926 -0.2148
26508W        W82749  33.494  22.828  18.713  0.1226 -0.0538  0.2663
26509W        W82750  20.815  28.791   1.605  0.0426  0.1621  0.1478
26510W        W82751   1.394  33.297   1.968 -0.1640 -0.0208  0.2143
26511W        W82752  26.188  10.921   0.009  0.0862 -0.1772 -0.0634
26512W        W82753  17.053  14.753  22.925 -0.3483  0.0916  0.1250
26513W        W82754  24.307  20.695  13.398  0.1609 -0.0879  0.1511
26514W        W82755  19.357  31.736   7.480 -0.0076 -0.0079 -0.0086
26515W        W82756   9.215  26.216  25.772  0.1715  0.0651  0.0171
26516W        W82757  11.477  34.915  14.805  0.0267  0.1180  0.0165
26517W        W82758   8.153   5.669  12.975 -0.1403 -0.1308  0.1224
26518W        W82759   8.412  21.941   1.427 -0.2537  0.3498 -0.0774
26519W        W82760  25.828   9.520  18.035 -0.0883 -0.0797 -0.2844
26520W        W82761  19.229  32.441  20.506 -0.1842  0.0661  0.2912
26521W        W82762  26.392   3.813   2.351 -0.0093 -0.1071 -0.1292
26522W        W82763   0.903   6.047   5.654  0.1038 -0.0014 -0.1092
26523W        W82764  12.588   1.634   9.062  0.1082  0.1422  0.0987
26524W        W82765  21.847  32.992   0.487  0.0952  0.2033 -0.0073
26525W        W82766  22.427  26.354  21.164  0.2798 -0.0404  0.3413
26526W        W82767  11.049  19.168  12.278 -0.0599  0.0918  0.1225
26527W        W82768  32.947  24.647  16.010  0.1395  0.1098  0.2473
26528W        W82769   4.673   8.102  25.844  0.1777 -0.0630 -0.1397
26529W        W82770  32.296  29.164   2.252  0.1220 -0.0051 -0.1438
26530W        W82771  15.754  32.444   4.163 -0.3134 -0.1031  0.1016
26531W        W82772   5.641  10.213   2.474 -0.0706 -0.2100 -0.0947
26532W        W82773  27.843  31.193  22.932  0.0199 -0.2110 -0.0747
26533W        W82774  15.240   3.787   4.315  0.2258 -0.3089 -0.0834
26534W        W82775  32.456   1.402  20.869 -0.3473 -0.4025  0.1500
26535W        W82776   2.044  13.856  18.364  0.1991 -0.2521  0.1115
26536W        W82777   8.774  29.784  22.997  0.0259  0.1638  0.1850
26537W        W82778  11.172  16.876   9.781  0.4546 -0.1822 -0.0955
26538W        W82779  25.641  31.572   4.665  0.0196 -0.1563 -0.0162
26539W        W82780  17.556  18.106   3.413  0.0001 -0.1421 -0.3685
26540W        W82781  30.084   7.711   1.388  0.0205  0.3553 -0.2543
26541W        W82782  34.249   0.452  19.811 -0.2494 -0.0208 -0.1276
26542W        W82783   4.470  30.260   1.424  0.3311 -0.2305  0.2264
26543W        W82784  11.691  34.367  10.699  0.1175  0.0154 -0.2565
26544W        W82785  30.740  25.485  25.724 -0.1784  0.0856 -0.3249
26545W        W82786   6.296   4.060   0.978  0.0828  0.0892 -0.0290
26546W        W82787  16.608   1.482  18.171  0.0371 -0.0026  0.2930
26547W        W82788   5.407  29.315  23.667 -0.3135  0.0368  0.0457
26548W        W82789  32.484  13.906  21.037  0.2549  0.0767  0.1734
26549W        W82790   4.770  28.806  11.424 -0.0954  0.1393 -0.2072
26550W        W82791   2.626  32.817   0.931  0.0067 -0.2185  0.1195
26551W        W82792  22.448   3.759  22.326  0.0680 -0.1319 -0.1737
26552W        W82793  22.068   5.511  14.629  0.0263  0.1275 -0.0442
26553W        W82794  18.251  28.146   8.823  0.3476  0.3096 -0.3998
26554W        W82795  11.455   0.795   1.406 -0.4492  0.2164  0.1973
26555W        W82796   4.107  32.375   4.411  0.0244 -0.2648 -0.0359
26556W        W82797  20.892  27.531   7.461 -0.0051 -0.2457 -0.3155
26557W        W82798  13.143  18.613   0.934  0.2804 -0.0162  0.0045
26558W        W82799  21.119  18.999  22.077 -0.1203  0.0439 -0.0622
26559W        W82800  14.140  22.722  14.100  0.0604 -0.1007  0.1603
26560W        W82801   6.241   9.607   8.963 -0.1634  0.0948  0.1597
26561W        W82802  18.193  29.008   8.740 -0.0253 -0.2235 -0.1845
26562W        W82803  22.826  30.203   4.609 -0.0861  0.0423 -0.4060
26563W        W82804  29.524   8.162  12.530  0.2943 -0.1242  0.0808
26564W        W82805  34.187  29.950   0.077  0.1104  0.3184 -0.1225
26565W        W82806   8.477  15.029   5.199  0.1043 -0.5205  0.0612
26566W        W82807  15.203  30.863  22.919 -0.2251  0.0141 -0.1033
26567W        W82808  12.874  30.530  11.989  0.4484 -0.1403  0.0749
26568W        W82809  19.318  22.871  10.367  0.0250  0.3007  0.1587
26569W        W82810  33.654  32.909  22.605  0.2265 -0.3584 -0.0411
26570W        W82811  30.275   8.008  22.106  0.0823  0.0614  0.0686
26571W        W82812  35.070   9.422  16.449  0.1202 -0.1044 -0.1707
26572W        W82813  14.427  14.417   1.056 -0.1561  0.0523  0.0607
26573W        W82814  21.834   8.935   3.098  0.2030 -0.1552 -0.2560
26574W        W82815  28.516  23.901   7.121  0.0043  0.3065 -0.0377
26575W        W82816   1.429  21.628  15.045  0.2752 -0.1845 -0.3391
26576W        W82817  27.275   6.569  25.224 -0.0413 -0.2446  0.2936
26577W        W82818   3.275  18.898   0.914  0.1430  0.1602 -0.1707
26578W        W82819  18.861  27.277   4.947  0.0552 -0.0629  0.0425
26579W        W82820  33.802   4.704  18.628 -0.3992  0.0900 -0.2893
26580W        W82821   9.773  19.695   0.062 -0.1394 -0.0088  0.1564
26581W        W82822   0.896  24.703  15.523 -0.0161  0.0948  0.2217
26582W        W82823   2.956  26.680   1.753  0.0085  0.1926 -0.1212
26583W        W82824  16.436   7.015   1.552 -0.1392  0.0151 -0.2607
26584W        W82825  13.160   1.114  24.727 -0.1388  0.1285 -0.1326
26585W        W82826  32.375  15.017  13.371  0.0598 -0.1089 -0.1438
26586W        W82827   1.154  24.263  15.351  0.0197 -0.0113 -0.0488
26587W        W82828  29.804  22.875   7.610  0.1697 -0.0176  0.2415
26588W        W82829  32.307  24.561  22.403  0.1077  0.3420 -0.1778
26589W        W82830  23.563  24.349  24.516 -0.1549 -0.0911  0.2755
26590W        W82831  26.544   2.220   5.186  0.1570  0.2181 -0.0607
26591W        W82832  20.924  23.739  19.706 -0.1988  0.3917 -0.1446
26592W        W82833  24.185   0.947  23.115  0.1389 -0.0882  0.2339
26593W        W82834  29.586   6.405  17.721 -0.1159  0.2199  0.0426
26594W        W82835   6.175  34.152   7.270  0.2588  0.1914 -0.3023
26595W        W82836   7.132  19.921   8.218 -0.1697  0.0889 -0.3708
26596W        W82837  17.859   0.515   2.473  0.0758  0.1370  0.1923
26597W        W82838  33.515  12.692  15.985 -0.2586  0.4693 -0.1624
26598W        W82839  14.920  33.955  25.089  0.1304 -0.1309 -0.2136
26599W        W82840  33.827   2.322   4.276  0.2484  0.0379 -0.0159
26600W        W82841  20.172   2.336   9.189  0.0717  0.1509 -0.0532
26601W        W82842  23.707  12.019  26.178  0.0863 -0.1461 -0.1494
26602W        W82843   9.186   3.248  13.705 -0.1605 -0.1680 -0.1174
26603W        W82844  22.439   8.331  22.975  0.0484 -0.1710 -0.1167
26604W        W82845   1.406  18.821  24.638  0.2839  0.2438 -0.0111
26605W        W82846  27.725  21.031  24.742 -0.1645 -0.0485  0.1874
26606W        W82847  33.780  26.704   2.085  0.3361 -0.0357  0.2124
26607W        W82848  23.823  17.547  21.297  0.0249  0.2484 -0.2466
26608W        W82849   2.063  32.850  20.261  0.1891 -0.0808 -0.1331
26609W        W82850   3.803   9.456   5.536 -0.2235  0.0635 -0.0185
26610W        W82851  26.879  29.422   4.190 -0.2193  0.1105  0.2895
26611W        W82852  10.642  31.789   6.898  0.1246 -0.2215 -0.2203
26612W        W82853  33.092   4.435  19.511 -0.0642  0.1190 -0.0366
26613W        W82854  10.512  10.617  23.947 -0.2064  0.1045 -0.2791
26614W        W82855  26.273  33.318  16.433  0.2607  0.1161  0.3537
26615W        W82856   3.723  32.362  25.226 -0.3568  0.3102 -0.1136
26616W        W82857  22.925  26.779  20.352 -0.2015  0.0503  0.0953
26617W        W82858  30.131   5.327  12.182  0.0397  0.1586  0.1024
26618W        W82859  24.778   1.927  13.951 -0.0219 -0.2101 -0.2646
26619W        W82860   1.518  17.377  14.608 -0.1203  0.1537  0.1995
26620W        W82861  33.484  28.946  11.453 -0.3023  0.3265 -0.1026
26621W        W82862  12.359   9.407  25.171 -0.2646  0.0230  0.0920
26622W        W82863  28.147  17.881   7.512 -0.1446  0.0962 -0.0450
26623W        W82864  16.007  25.257   1.023 -0.2645 -0.1442 -0.0523
26624W        W82865  11.097   2.726   6.536 -0.1035 -0.0209 -0.0708
26625W        W82866  25.174  33.890   1.541 -0.1153 -0.0049 -0.0066
26626W        W82867  34.095  34.585   5.068  0.2095 -0.2345 -0.1020
26627W        W82868  28.142   0.627  16.483 -0.2079 -0.3087 -0.3276
26628W        W82869  30.490  24.271   9.047  0.0049  0.0502 -0.1740
26629W        W82870   3.654   0.236   7.749 -0.2993  0.0309  0.1112
26630W        W82871  19.969  30.740  16.346 -0.2441  0.1043  0.3449
26631W        W82872  30.758  34.986  20.207 -0.0467 -0.1015  0.0067
26632W        W82873  11.441   5.761  19.571 -0.0210 -0.3467  0.0882
26633W        W82874  25.280  35.239  24.545 -0.0664  0.0335 -0.1426
26634W        W82875  27.378   9.541  14.604  0.1675 -0.1660 -0.5463
26635W        W82876   3.509   6.916  19.314  0.0660 -0.1121  0.2539
26636W        W82877  25.639  21.075  23.378 -0.0453  0.0054  0.0257
26637W        W82878  24.349  10.452   2.713  0.0885  0.1916 -0.3292
26638W        W82879  23.023  20.635  17.365 -0.0675 -0.0118  0.1107
26639W        W82880  23.028  16.552  15.560  0.1971 -0.0391 -0.2638
26640W        W82881  31.318  21.471  10.592 -0.1081  0.1159 -0.3261
26641W        W82882  10.392   5.116   3.647  0.1506  0.3981 -0.3107
26642W        W82883  25.785  27.911  16.838  0.0573 -0.0249 -0.1567
26643W        W82884   4.301  26.661   5.691 -0.0711  0.0323  0.0643
26644W        W82885  29.923   4.315  19.387 -0.4767 -0.0056 -0.1053
26645W        W82886   5.850   3.191  20.999 -0.1005 -0.0781  0.2063
26646W        W82887   2.174  10.186   1.792  0.0359  0.0846 -0.1788
26647W        W82888  14.256  21.710  16.486  0.0427 -0.2491 -0.1194
26648W        W82889   1.175  19.905  21.359  0.4002  0.0139 -0.1125
26649W        W82890  25.302   0.303  25.114  0.0639  0.1368  0.0579
26650W        W82891   0.418  19.040   8.863  0.2416  0.1789  0.1371
26651W        W82892  24.820   8.185  14.888 -0.0674  0.0731  0.1183
26652W        W82893   1.695   1.542  24.396 -0.0280 -0.3107  0.2540
26653W        W82894  12.731  23.035  16.571 -0.2319 -0.1781 -0.0353
26654W        W82895  12.392  31.336  22.746  0.0434 -0.3242 -0.1262
26655W        W82896   9.426  11.803   7.510 -0.0106  0.1870 -0.2149
26656W        W82897  29.724  31.893  14.943  0.1655  0.2615  0.2450
26657W        W82898  24.211   6.300  23.462 -0.3488 -0.1348 -0.2520
26658W        W82899  17.006  30.045   0.960 -0.1672 -0.1857  0.1341
26659W        W82900   5.647   7.966   3.630  0.0010  0.1309  0.2212
26660W        W82901   8.136  34.916  22.631  0.2454  0.2415  0.2156
26661W        W82902  30.592  24.266  12.505 -0.0924  0.0228  0.3073
26662W        W82903  19.254  18.237  25.585 -0.0010 -0.3216  0.0309
26663W        W82904  32.418  13.195  22.342  0.1496  0.3712  0.1938
26664W        W82905  34.188   3.382   2.231  0.1734 -0.2217 -0.0794
26665W        W82906  16.645  11.596  21.131 -0.0704 -0.0585  0.1218
26666W        W82907  25.669  25.824  22.681  0.1498  0.0106  0.0254
26667W        W82908   3.337   1.608   7.992  0.1381 -0.1188  0.0101
26668W        W82909  19.402  28.329   1.673  0.1666  0.2961  0.0845
26669W        W82910  31.864  33.310  23.257  0.4402  0.1551 -0.2649
26670W        W82911   0.920   4.137  26.051 -0.1217 -0.0841 -0.1380
26671W        W82912  19.032  26.402   9.237 -0.1910  0.1633  0.1166
26672W        W82913  25.973  28.200  24.783 -0.1129 -0.1408  0.1453
26673W        W82914  32.207  31.467  12.713 -0.0057 -0.3942 -0.0594
26674W        W82915  26.859  28.865   0.578  0.0499 -0.1752 -0.3069
26675W        W82916  24.196  18.670   1.506  0.0985  0.1697  0.0505
26676W        W82917  29.595  12.974  22.633 -0.2182  0.2963  0.1272
26677W        W82918  27.069   4.377  22.421 -0.2105  0.2211 -0.0307
26678W        W82919  20.139  27.866   1.941  0.2835 -0.1526  0.0763
26679W        W82920  32.899   6.613  15.604  0.0015  0.0953 -0.0207
26680W        W82921   2.628  13.693  26.165  0.0549  0.4497  0.2701
26681W        W82922  27.990  29.538  15.640  0.2282 -0.2123  0.0716
26682W        W82923  20.364  12.189   4.169 -0.0363  0.1565  0.1241
26683W        W82924   9.964  29.006  11.210  0.0649  0.1069  0.0070
26684W        W82925  27.790   6.494  20.182 -0.4469 -0.0482  0.1604
26685W        W82926  20.661   2.958  20.084 -0.2020 -0.1373 -0.0012
26686W        W82927  20.250  19.757  19.345  0.0611 -0.5436 -0.1196
26687W        W82928  34.448  31.936  21.298  0.3761 -0.0546  0.0513
26688W        W82929  24.454  10.763  14.715 -0.1127  0.0143 -0.0037
26689W        W82930  27.466  30.714  15.636  0.1842  0.0026  0.1777
26690W        W82931  35.007   3.215  24.440 -0.1224 -0.2667  0.3454
26691W        W82932  29.878  12.746  10.001 -0.3150  0.1810 -0.0165
26692W        W82933   8.356  30.392   0.009  0.0236 -0.2206  0.2679
26693W        W82934  17.322   4.289   1.247 -0.0316  0.0758 -0.1706
26694W        W82935   5.795  15.662  17.925  0.2046  0.3755 -0.3068
26695W        W82936  16.413  24.943   7.795 -0.0230  0.4852  0.0809
26696W        W82937  34.209  32.788  24.968  0.2330  0.0110  0.1565
26697W        W82938  28.442   2.042  10.878  0.0089 -0.3573  0.0502
26698W        W82939  28.781  13.574  10.252  0.2983  0.4448  0.0935
26699W        W82940  10.791  32.064  21.919  0.1734 -0.2457  0.0478
26700W        W82941  30.391  28.672  18.971 -0.1783  0.2276 -0.2217
26701W        W82942  18.088   5.220   9.598  0.0351  0.0715  0.0587
26702W        W82943  12.884  20.231  12.184 -0.1480 -0.4242 -0.3134
26703W        W82944   2.763  15.625  17.936 -0.1758  0.0399 -0.0058
26704W        W82945   0.176  11.500  15.498  0.1074  0.2236 -0.4075
26705W        W82946  30.190  22.188  22.139 -0.1328 -0.0573  0.1058
26706W        W82947   9.607   3.546   2.359 -0.0109  0.3295  0.0198
26707W        W82948  10.606  32.545   9.807  0.0144  0.1121  0.0235
26708W        W82949  26.331  32.252   4.453  0.0322 -0.0684  0.1184
26709W        W82950  25.326  15.224  15.963  0.0853 -0.2789  0.2170
26710W        W82951  31.987  11.472  21.505 -0.1979  0.1283 -0.2673
26711W        W82952  28.727   2.063  14.772  0.2531 -0.2982 -0.2444
26712W        W82953   3.703   0.832  22.210 -0.1602 -0.3545 -0.2376
26713W        W82954  25.906  14.608  25.010 -0.2034 -0.2994 -0.3893
26714W        W82955  18.870  28.817   0.217  0.1001  0.0925  0.3290
26715W        W82956  23.924  26.731  10.894 -0.2321 -0.1674  0.2226
26716W        W82957  19.594   2.813   3.255 -0.0182 -0.2448 -0.0379
26717W        W82958   2.655  33.025  20.239 -0.0767 -0.1543 -0.1767
26718W        W82959  29.393  21.695  24.514  0.2703  0.0363 -0.3715
26719W        W82960  30.915  14.800  14.326 -0.1075  0.1399 -0.1512
26720W        W82961   3.414  18.451   1.257  0.4242  0.1453  0.3753
26721W        W82962   6.082  32.245   0.715  0.0362 -0.2723  0.0606
26722W        W82963   8.536  20.311  24.922 -0.2891 -0.0654  0.0950
26723W        W82964  33.602  16.192   7.386  0.1222  0.0037 -0.1901
26724W        W82965  24.091   4.727  22.322 -0.0719 -0.0784 -0.0610
26725W        W82966  23.650  19.996  11.937 -0.1025 -0.4327 -0.2378
26726W        W82967   1.474  30.455  22.716 -0.0714  0.0380  0.3295
26727W        W82968  35.274  22.769   9.979 -0.2482 -0.0518  0.0865
26728W        W82969  10.673   5.916   3.861  0.0100 -0.3476  0.0528
26729W        W82970  27.286   4.778   0.353 -0.0101 -0.2218 -0.2189
26730W        W82971  17.155  33.348   4.516 -0.0995  0.0932 -0.1452
26731W        W82972  24.068  25.975  25.412  0.0116  0.2450 -0.0081
26732W        W82973  18.571  34.099  18.857  0.0541  0.1244  0.1338
26733W        W82974  31.819  26.558   1.972 -0.1216 -0.0097 -0.1747
26734W        W82975  15.711  29.604   3.217 -0.0225 -0.0466 -0.2766
26735W        W82976   7.448   1.112  15.104  0.2345  0.0781 -0.1353
26736W        W82977  32.555   5.094   4.380  0.0345 -0.0887 -0.0640
26737W        W82978  14.949  25.493   0.826  0.1642  0.1136  0.2560
26738W        W82979  24.995  31.883  19.796  0.3092  0.1057 -0.4849
26739W        W82980  29.871   6.437  11.296 -0.1482 -0.0667 -0.1382
26740W        W82981  29.691  26.248  23.823  0.0829  0.2570 -0.3462
26741W        W82982  11.108  25.109  16.678 -0.1282 -0.3647 -0.3104
26742W        W82983  13.028   3.792  11.446  0.1161  0.3827 -0.1333
26743W        W82984  26.504  10.742   8.972  0.2596 -0.1598  0.2810
26744W        W82985  16.026  28.669  24.054  0.1065 -0.4358 -0.1551
26745W        W82986  12.460   5.991  13.816 -0.2722 -0.3706  0.2924
26746W        W82987   1.751  10.220  25.990  0.4064 -0.2416  0.1432
26747W        W82988  13.582  30.774  12.484 -0.0675  0.0371 -0.0993
26748W        W82989  33.419  34.520  16.305 -0.1122 -0.1081  0.1112
26749W        W82990  23.212  18.541  21.882 -0.0605  0.1494 -0.0407
26750W        W82991   8.102  19.368   0.715  0.0372  0.0162 -0.0709
26751W        W82992   9.290  25.482  15.957 -0.1956  0.1234  0.0535
26752W        W82993  31.787  31.119  15.749  0.0951 -0.0629  0.0408
26753W        W82994  21.978   3.853   5.842 -0.1671 -0.2738  0.2392
26754W        W82995  17.961  19.697  24.209  0.0237 -0.0704  0.0650
26755W        W82996  34.253  11.379  18.687  0.2511 -0.0399  0.3234
26756W        W82997  10.004   9.009   4.875 -0.0601  0.0566  0.1533
26757W        W82998   9.948   2.169   7.901 -0.2649  0.3790  0.0351
26758W        W82999  16.478  29.514  22.098 -0.0459  0.2612 -0.1994
26759W        W83000  31.472  17.955   4.463 -0.2760 -0.2396 -0.0754
26760W        W83001   3.146  19.142  25.224 -0.4138  0.0709 -0.3236
26761W        W83002  18.450  18.348  19.454 -0.1829 -0.2858 -0.0640
26762W        W83003  29.199  22.395   6.507  0.1613  0.0861 -0.0167
26763W        W83004  21.923  14.162  20.446 -0.1991  0.2146  0.1144
26764W        W83005  20.738   1.207  16.576 -0.0811  0.0882 -0.0862
26765W        W83006   7.137  24.748  25.589 -0.0039 -0.1335  0.2471
26766W        W83007  34.460   6.842   0.510 -0.1538  0.0588  0.1934
26767W        W83008  13.327   6.119  18.873 -0.3285 -0.2576  0.0977
26768W        W83009  30.702  20.146   5.985 -0.2297 -0.1215  0.0084
26769W        W83010  18.791  24.869   3.062 -0.0708 -0.0272 -0.0137
26770W        W83011   9.954  13.707   0.660  0.1281  0.3783 -0.1368
26771W        W83012   2.434   7.169   5.739 -0.0402 -0.0327 -0.0717
26772W        W83013   7.298  33.461   8.015  0.0992 -0.4099 -0.2870
26773W        W83014   1.278  30.797  17.404  0.2293 -0.0965 -0.1651
26774W        W83015  28.279  18.142  22.004 -0.4386 -0.0843 -0.2078
26775W        W83016  25.996  34.920  25.799 -0.0529 -0.3822 -0.0152
26776W        W83017  21.071  23.545   2.395 -0.0490 -0.0372  0.3977
26777W        W83018   2.108  31.079  23.317  0.0971  0.1011 -0.0835
26778W        W83019   3.773  22.970  18.340 -0.0739  0.0179  0.2926
26779W        W83020  13.619   9.592  20.984 -0.1474  0.2907 -0.0226
26780W        W83021  20.275   5.349  22.386 -0.2643 -0.0317  0.2202
26781W        W83022   6.808  16.331  10.971  0.0724 -0.4074 -0.0228
26782W        W83023  10.437  15.906   4.362  0.1590  0.1715  0.3064
26783W        W83024   3.164  32.074   1.940 -0.0099 -0.3610  0.2000
26784W        W83025  26.885   9.732  18.052  0.0250 -0.3190 -0.2674
26785W        W83026   9.163  27.647  22.108  0.1447 -0.1059 -0.0692
26786W        W83027   3.543  24.271  20.536  0.0974  0.0116 -0.0214
26787W        W83028  28.522  11.549  24.893 -0.2316  0.2717 -0.0278
26788W        W83029  20.853  24.384  18.215 -0.0691 -0.2824 -0.2931
26789W        W83030  22.281   2.232   2.266  0.1660  0.3518  0.3243
26790W        W83031  18.576   1.483   0.598  0.1582  0.1432 -0.1230
26791W        W83032  14.119  28.173  16.078  0.0104 -0.0153 -0.1959
26792W        W83033  14.560  18.278   6.221 -0.1768  0.3648  0.2368
26793W        W83034  34.143  28.079  15.777 -0.1161  0.1147 -0.2675
26794W        W83035   1.411   8.882  17.348 -0.1473 -0.0422 -0.1857
26795W        W83036  31.884  33.100  22.110  0.1951  0.0428 -0.2157
26796W        W83037   2.505   8.786  16.385 -0.3767  0.0121  0.1204
26797W        W83038   4.719  20.837  22.769  0.0917  0.1401  0.1420
26798W        W83039  26.091  25.298  16.126  0.0958  0.1428  0.0096
26799W        W83040  35.362   9.115  14.441  0.1368  0.1273  0.1788
26800W        W83041  10.648   9.407  11.158 -0.1843  0.3777  0.0263
26801W        W83042   3.079  17.719   1.746 -0.0974 -0.0847 -0.3328
26802W        W83043  10.610   5.168  23.163 -0.1470  0.1016  0.0464
26803W        W83044  31.298  26.598  22.900 -0.0119  0.1156 -0.0519
26804W        W83045  22.194  32.676   0.210  0.1111  0.2205 -0.0275
26805W        W83046  32.500  25.083  25.416  0.1133  0.1132  0.0421
26806W        W83047  22.741   0.188  15.754  0.0735  0.0842 -0.0566
26807W        W83048   2.864  34.651   8.216  0.1510  0.0647  0.1526
26808W        W83049  32.541   4.290  17.740  0.0851 -0.0394 -0.1712
26809W        W83050  22.291   5.483   0.233 -0.3519 -0.0338 -0.1120
26810W        W83051  32.522  13.249  18.349 -0.3512 -0.2285 -0.1637
26811W        W83052  18.694  33.491   1.771 -0.1209  0.0084  0.0718
26812W        W83053  12.293  14.420   9.738 -0.1882  0.2187  0.1629
26813W        W83054  26.745  10.262  20.683  0.0420 -0.3728 -0.2137
26814W        W83055  16.704  16.206  24.895  0.2840  0.1761 -0.0001
26815W        W83056  21.573   3.439   4.550 -0.1285  0.0492  0.0945
26816W        W83057  15.292  24.742  16.495 -0.0429 -0.2216 -0.0237
26817W        W83058  12.330  19.840   7.411 -0.2673  0.0304  0.1164
26818W        W83059  19.776  32.886   7.516  0.0590 -0.1487 -0.1263
26819W        W83060  15.606  15.706  23.576  0.3386  0.1858 -0.3212
26820W        W83061  25.986   4.540   2.996  0.0123  0.0981 -0.2143
26821W        W83062   9.098  13.693   0.179 -0.1892  0.1342  0.1542
26822W        W83063  20.697  29.167   5.409  0.2019  0.0274  0.2454
26823W        W83064  28.788   0.029  21.879  0.2049 -0.1002  0.0771
26824W        W83065   6.271  17.342  22.572 -0.0735  0.0474  0.0479
26825W        W83066  11.492   7.708  25.160 -0.0023  0.0019  0.2008
26826W        W83067   7.328   2.690  19.240  0.0964  0.0262  0.0329
26827W        W83068  14.767  13.305  21.712 -0.1455  0.2344  0.1319
26828W        W83069  32.375   1.722  15.231  0.0889  0.0386  0.1060
26829W        W83070   3.455   1.718   7.458 -0.0882 -0.0123 -0.1230
26830W        W83071  30.308   8.989   1.333  0.0292 -0.0084  0.2813
26831W        W83072  32.348  13.448  21.222  0.2095 -0.2602  0.0892
26832W        W83073   8.286   2.324   6.544  0.0267  0.0569  0.3650
26833W        W83074  19.764  32.215  25.603 -0.0670  0.0250 -0.0169
26834W        W83075  35.115  14.784  11.181 -0.0301 -0.0108 -0.3752
26835W        W83076  31.845  23.461   8.133  0.3062  0.1247  0.1936
26836W        W83077   1.239  19.379  23.150  0.0428  0.0964  0.1464
26837W        W83078  14.502  13.752  21.139 -0.1575 -0.1264 -0.0122
26838W        W83079   1.321   7.351   0.162  0.0874 -0.2954  0.4777
26839W        W83080  33.037  27.815  22.349  0.0021  0.0047 -0.3953
26840W        W83081  14.193  10.315  22.174  0.0424 -0.0863 -0.2247
26841W        W83082  28.017  16.122  13.722 -0.0097 -0.0114 -0.0488
26842W        W83083  15.286   5.463  19.850  0.0170 -0.2600 -0.1271
26843W        W83084   5.839  28.723  20.597 -0.0359 -0.4203  0.1709
26844W        W83085  11.052  12.933  19.383  0.0819  0.1157  0.1917
26845W        W83086   9.561  10.909  25.375 -0.0929 -0.0707 -0.2667
26846W        W83087   2.963  24.800  18.445 -0.0069  0.0793 -0.3958
26847W        W83088   4.039  17.928  25.576 -0.1081  0.4136 -0.2319
26848W        W83089  24.839  21.389  16.800  0.0802 -0.2259 -0.0291
26849W        W83090  23.083   0.713  13.879  0.0307 -0.2601 -0.0813
26850W        W83091  11.176  20.077   0.848  0.0153  0.4733 -0.0508
26851W        W83092  20.287  33.429  19.955 -0.5324  0.1105  0.0857
26852W        W83093  16.590  34.788  18.480  0.0583  0.2235  0.3100
26853W        W83094  28.921  24.307  11.914 -0.0636  0.0282 -0.0535
26854W        W83095  34.008   4.107   3.656 -0.1497  0.1032  0.1348
26855W        W83096  12.699   7.933  11.744 -0.3577  0.3399 -0.0460
26856W        W83097  30.348  15.444  20.854  0.2184  0.1120  0.2728
26857W        W83098  30.521  26.786  25.118 -0.1095 -0.3766  0.0826
26858W        W83099   1.050   0.532   5.136  0.0089  0.1186  0.0992
26859W        W83100   2.968  17.887  21.840  0.2842  0.0139  0.4748
26860W        W83101  10.013   3.715  21.848  0.0877  0.0181 -0.0863
26861W        W83102  34.259   6.184  25.094  0.1554  0.1004  0.0915
26862W        W83103  34.183  19.100  19.949  0.4109  0.2417 -0.0561
26863W        W83104   9.574  22.142   1.433  0.3637 -0.0918  0.1904
26864W        W83105  22.769  27.034   2.940 -0.0077 -0.1818 -0.1135
26865W        W83106   1.180  26.128  21.274  0.2018  0.2341  0.1565
26866W        W83107  31.848  21.594  23.423 -0.5370  0.0038  0.4138
26867W        W83108  10.965   4.390   9.285  0.0127 -0.0605 -0.2116
26868W        W83109   4.100   6.273   3.947 -0.2464 -0.1465 -0.1645
26869W        W83110  27.299  27.716   2.440 -0.1066 -0.0245 -0.1348
26870W        W83111  20.589  23.339   3.350 -0.1734 -0.0054 -0.1546
26871W        W83112  25.532   2.798  13.948  0.2736 -0.0852 -0.2335
26872W        W83113  28.160  20.791   9.441  0.2083 -0.0976 -0.1188
26873W        W83114  22.000   4.529   7.298 -0.0396  0.1342  0.2467
26874W        W83115  10.448  28.025   4.451 -0.2846 -0.1169 -0.1611
26875W        W83116  12.556  14.940  10.772 -0.0557  0.2365  0.0650
26876W        W83117  20.787  21.377   5.365  0.1253  0.1166  0.0773
26877W        W83118  34.039  20.184  12.938 -0.1011  0.3256 -0.0928
26878W        W83119  14.744  15.986   3.512  0.0100  0.1815  0.1723
26879W        W83120  14.209  10.152   0.903 -0.0274 -0.1676 -0.0761
26880W        W83121  33.311  18.657   9.052 -0.2299 -0.0346  0.0753
26881W        W83122   8.201  19.896  11.422  0.0849  0.0263  0.1662
26882W        W83123  20.914   4.391   6.355  0.0984 -0.1191  0.1160
26883W        W83124  15.114  26.011  23.648 -0.0269  0.4470  0.1759
26884W        W83125   4.644   8.122   4.422 -0.0211  0.0014 -0.1810
26885W        W83126   8.575  24.496  14.675 -0.2516  0.2903  0.1096
26886W        W83127   4.352   6.272   7.054 -0.1154 -0.3030  0.1295
26887W        W83128  17.918   8.318  21.625 -0.2464  0.0145  0.1519
26888W        W83129  35.038   1.356   7.339 -0.1794 -0.2052 -0.1339
26889W        W83130   2.771   4.356  20.265  0.0907 -0.2885 -0.0672
26890W        W83131  29.687   8.955   8.746  0.2077  0.1113  0.1307
26891W        W83132  19.966   4.356   5.489 -0.4155 -0.2697  0.0059
26892W        W83133  31.496  35.087  24.789 -0.0198  0.2600  0.1433
26893W        W83134  26.165  24.362  23.438 -0.0213 -0.1185 -0.0931
26894W        W83135  22.446  12.831  22.774 -0.0669 -0.0877  0.1662
26895W        W83136  34.303  34.687   3.483  0.0128 -0.1081 -0.0907
26896W        W83137  33.310  23.551  11.386 -0.1138 -0.0613  0.0758
26897W        W83138  31.907  26.597   0.091 -0.1688 -0.1668  0.2198
26898W        W83139   8.944  30.662   6.850 -0.1387  0.1064  0.0606
26899W        W83140   5.137  11.040   4.534  0.0385 -0.2021 -0.5186
26900W        W83141  29.145  25.387  25.059 -0.3588  0.0649 -0.2329
26901W        W83142  10.323   6.956   8.852 -0.3389  0.0800  0.0285
26902W        W83143  12.198  30.093  10.530 -0.2814 -0.0950 -0.3135
26903W        W83144   2.187   6.823  22.890 -0.3523  0.5679 -0.3607
26904W        W83145  18.331  35.140  18.352  0.1804  0.0067 -0.2087
26905W        W83146  34.982  18.398   6.785  0.0251 -0.2419  0.1091
26906W        W83147  23.473   6.469  25.934 -0.2378  0.1819 -0.0158
26907W        W83148   3.978  13.881  24.179  0.2574 -0.1312 -0.0863
26908W        W83149  34.038   4.295  17.826  0.0534  0.1895  0.0316
26909W        W83150   4.216   8.417  25.921 -0.0287  0.3438  0.0697
26910W        W83151  30.598  24.192  25.447 -0.1248 -0.2641 -0.1429
26911W        W83152  19.247   0.418  17.871  0.0980  0.0735 -0.1690
26912W        W83153   7.609  12.604   7.274  0.1780 -0.3736  0.2688
26913W        W83154  28.461   2.017   4.268  0.1956  0.0212  0.2332
26914W        W83155  12.227  12.794   9.186 -0.0957 -0.0776  0.1610
26915W        W83156   2.062   9.858   2.133 -0.2584 -0.2146  0.1962
26916W        W83157   4.237  15.856  24.737  0.2558 -0.0682 -0.0008
26917W        W83158  14.457  33.566   9.918  0.0508  0.3778 -0.1020
26918W        W83159  28.984   1.992   4.259  0.0074 -0.1765 -0.2520
26919W        W83160  11.111  28.864  14.257 -0.1321  0.0687  0.0154
26920W        W83161   0.879  12.612  16.643  0.4337  0.1377  0.2239
26921W        W83162   3.474   5.550   7.526 -0.1088 -0.0619  0.0778
26922W        W83163  28.359  33.362  15.432  0.1484  0.1313  0.0966
26923W        W83164  30.731  10.837   6.513  0.0727  0.1407  0.3338
26924W        W83165  33.963  23.178  21.554  0.3078 -0.1223  0.2024
26925W        W83166   0.750  27.721  24.952 -0.0425  0.0406 -0.1897
26926W        W83167  25.158   3.905  11.962 -0.0816  0.3948  0.1831
26927W        W83168   8.642   6.324   5.998  0.1633 -0.0815 -0.0199
26928W        W83169  16.942   3.684   4.523  0.0686  0.0399  0.1717
26929W        W83170  30.946  23.447  13.659  0.2142  0.0717  0.2023
26930W        W83171   3.375  17.708   1.014 -0.1987 -0.1078 -0.0105
26931W        W83172  19.576  21.892   5.557  0.0141 -0.0419  0.1982
26932W        W83173   0.984  30.044  21.513  0.1438  0.1302  0.0013
26933W        W83174  10.162  29.745   0.429 -0.0001  0.0145  0.0136
26934W        W83175   8.785  10.913  24.993 -0.2349 -0.1438  0.1310
26935W        W83176  16.137   8.248   1.794 -0.2526  0.1473 -0.0561
26936W        W83177   8.165  32.835   0.483  0.0212 -0.3096 -0.0428
26937W        W83178  23.061   3.560   1.335 -0.1748 -0.0395 -0.0699
26938W        W83179  22.358   2.053  20.449 -0.1500  0.2405  0.0388
26939W        W83180  31.848  35.255  13.627  0.0567 -0.1791  0.0359
26940W        W83181  29.121   4.204  16.218 -0.1933  0.0676 -0.2274
26941W        W83182  27.986  14.953  19.674  0.0118 -0.0812  0.0618
26942W        W83183  13.692   6.388   1.491 -0.2442 -0.1309  0.1838
26943W        W83184  14.593  27.048   1.594 -0.0875 -0.1826  0.1763
26944W        W83185  35.140  11.694  13.860 -0.1965  0.3987 -0.1236
26945W        W83186   9.862  16.985   1.870 -0.1035 -0.1940  0.0088
26946W        W83187  25.755   8.227   2.866 -0.2918 -0.3776 -0.0176
26947W        W83188   6.347   5.985  22.453  0.0048  0.0733  0.0482
26948W        W83189  15.050  14.084  12.024  0.1163 -0.1565  0.3464
26949W        W83190  29.562   3.605  24.238  0.0172 -0.0956  0.3947
26950W        W83191   1.346  29.935   6.944 -0.0590  0.3956  0.1393
26951W        W83192  31.972   3.591  14.224 -0.0679  0.0513 -0.0537
26952W        W83193  18.444  33.119   5.657  0.3600  0.0610  0.0621
26953W        W83194  34.910  14.171  13.820 -0.4248 -0.1392 -0.0768
26954W        W83195  23.517   3.620  13.621 -0.1363 -0.0030  0.0132
26955W        W83196  23.822   5.391  14.210 -0.0304 -0.0823 -0.0635
26956W        W83197   1.240  32.435   5.088 -0.0785  0.1673  0.0563
26957W        W83198  21.257  32.539  13.309  0.1569 -0.0460 -0.1609
26958W        W83199  30.161   6.862  19.110  0.1905  0.0493  0.0067
26959W        W83200   4.146  29.182   3.196 -0.0047 -0.1195  0.3252
26960W        W83201  34.768  27.536  17.404 -0.2425 -0.1221 -0.2109
26961W        W83202  34.779  31.153   4.800 -0.1288  0.1087  0.0124
26962W        W83203  10.689  21.480   9.165 -0.1384  0.2278  0.0797
26963W        W83204  34.925  30.833  14.984 -0.0798 -0.0620  0.2745
26964W        W83205   0.361  35.159  15.216 -0.4313  0.2716 -0.0107
26965W        W83206  13.947  13.399   5.495  0.1228  0.1293  0.0747
26966W        W83207  34.723  24.197  24.850 -0.1639 -0.4782  0.0260
26967W        W83208  27.352  34.214  12.114 -0.2323  0.1919 -0.0291
26968W        W83209  26.872  21.731  12.236  0.2873  0.1704  0.0904
26969W        W83210   6.950  18.097   4.009  0.0056  0.1765 -0.4225
26970W        W83211   6.999  23.176   1.911 -0.2357 -0.0183 -0.1386
26971W        W83212  12.025   1.160  11.342  0.1034 -0.0475  0.0189
26972W        W83213   0.923  16.829  11.629 -0.1382 -0.1085 -0.2319
26973W        W83214   7.146  14.234   6.573 -0.0429  0.1340 -0.0470
26974W        W83215  28.277   7.865  18.506 -0.2456 -0.2403  0.0133
26975W        W83216  29.248  11.613  10.922 -0.2069 -0.0317 -0.0387
26976W        W83217  18.521   4.883   7.062  0.0503 -0.1792 -0.0958
26977W        W83218   2.251  27.023  26.039 -0.1499  0.1801  0.2503
26978W        W83219   7.363   9.237  22.874 -0.0294 -0.0390 -0.1757
26979W        W83220  26.772  35.046  23.122 -0.1877 -0.0339  0.0267
26980W        W83221  18.932  26.164  21.706 -0.4734  0.1861  0.1821
26981W        W83222  10.020   7.405  20.565 -0.2186 -0.0498 -0.1629
26982W        W83223  10.240  30.981   2.844  0.1133 -0.2068 -0.0855
26983W        W83224  33.049   2.001   4.957 -0.1872  0.2039 -0.0358
26984W        W83225  31.401  20.233  23.178  0.2232 -0.2084 -0.0681
26985W        W83226  26.093   0.533  18.823  0.0377 -0.2636  0.0652
26986W        W83227   5.239  16.497  24.769  0.0813 -0.1187  0.1581
26987W        W83228  18.774  22.296   7.534 -0.0078  0.1692 -0.0525
26988W        W83229  23.950  11.771   3.288 -0.1961  0.1145  0.3397
26989W        W83230   9.856  33.440  15.493  0.4078 -0.1207 -0.4692
26990W        W83231  32.824  17.922   8.563  0.2726  0.3759 -0.0571
26991W        W83232   3.238   9.362  15.929 -0.1176  0.0795 -0.0954
26992W        W83233  32.531  17.081  14.098  0.0314 -0.2936 -0.0805
26993W        W83234  13.335  34.483   5.373 -0.0718  0.0195 -0.0129
26994W        W83235   9.173  16.952  23.435  0.4146 -0.0091 -0.0582
26995W        W83236  10.802  33.942  22.795 -0.0734 -0.5336  0.2937
26996W        W83237  19.167  26.690  24.660 -0.1559  0.3213 -0.2102
26997W        W83238   1.364   3.492   4.826 -0.0024  0.0861 -0.0750
26998W        W83239   4.124  16.852  22.936 -0.0962 -0.0246 -0.2634
26999W        W83240  23.393  19.389  16.312  0.1217 -0.1023  0.0539
27000W        W83241  19.438   4.333   5.625 -0.0172 -0.1224  0.0688
27001W        W83242  17.259   1.362  24.873  0.0586  0.1506 -0.3125
27002W        W83243   5.330  18.005  25.395  0.2427  0.0593  0.0605
27003W        W83244  31.028  14.696  11.065 -0.3631  0.1019  0.0439
27004W        W83245  26.462  32.975  25.207 -0.1337 -0.0514 -0.0848
27005W        W83246   5.053   7.641   4.281 -0.1968 -0.0386  0.1171
27006W        W83247  31.690  22.752  24.912  0.1005  0.1070  0.3310
27007W        W83248  20.781  26.817  15.319  0.0364 -0.0780  0.1867
27008W        W83249   6.555   2.948   1.679  0.0969 -0.2758 -0.1138
27009W        W83250  34.445  17.010  19.948  0.2450 -0.2127  0.0012
27010W        W83251  27.341  16.770  22.660  0.1070  0.0305 -0.0275
27011W        W83252   8.771  33.383  11.537 -0.1189  0.4392 -0.0801
27012W        W83253  19.610  31.437   2.278 -0.0166 -0.1176  0.1104
27013W        W83254  11.705   2.159  13.026  0.0404  0.3258 -0.0042
27014W        W83255  20.733  16.554  25.541 -0.2769  0.0910  0.0960
27015W        W83256  29.460  16.700  10.595 -0.1104 -0.2908 -0.1199
27016W        W83257  24.832  26.251  25.712  0.0261  0.0877  0.3295
27017W        W83258  12.424  12.129  20.229 -0.0250 -0.1699  0.0460
27018W        W83259  24.698   0.571  23.172 -0.0033  0.1773  0.0112
27019W        W83260  34.248   6.006  22.691  0.3020 -0.0872  0.0875
27020W        W83261   3.038  28.654  23.186  0.2714 -0.3025 -0.0472
27021W        W83262   4.387   2.849  23.946  0.0624 -0.1638 -0.0700
27022W        W83263  28.090  33.123  10.810 -0.0646  0.3016  0.1170
27023W        W83264   1.042   5.445  17.360 -0.3049 -0.0803 -0.3242
27024W        W83265   1.187  16.965  19.818  0.1139  0.1815  0.0793
27025W        W83266  10.427  10.185  10.600  0.1994  0.2446  0.1561
27026W        W83267  30.782  33.042  16.373 -0.0059  0.1350 -0.1534
27027W        W83268  22.955   5.106   1.436 -0.0071 -0.1488  0.1409
27028W        W83269   9.756  13.491   3.755  0.1339 -0.2373 -0.0365
27029W        W83270  30.010   0.629   2.846  0.1545  0.1720 -0.0737
27030W        W83271  27.686  14.680  23.524  0.1618  0.4012 -0.0467
27031W        W83272  24.953   5.684  20.394  0.3259  0.0718 -0.4034
27032W        W83273   2.044  14.572  25.241  0.0811  0.2294  0.2571
27033W        W83274   4.437  28.647   6.192  0.0444 -0.0919  0.1334
27034W        W83275  18.547   3.948  22.081 -0.2079 -0.2155  0.2037
27035W        W83276  33.520   2.359   0.317 -0.1436  0.3139  0.0971
27036W        W83277  24.481  19.134  20.534 -0.2286 -0.1303  0.1181
27037W        W83278  16.946  30.373  10.107 -0.2101  0.2162  0.0814
27038W        W83279  13.373   9.689   1.024 -0.0040 -0.0177 -0.1525
27039W        W83280   4.842  18.838  24.477 -0.0906 -0.0027 -0.1753
27040W        W83281   1.748   1.846   7.916  0.3008  0.0306  0.1067
27041W        W83282  34.101   1.225   1.435 -0.0320 -0.0946  0.0732
27042W        W83283   6.684   2.026   0.020 -0.2887  0.5984 -0.0955
27043W        W83284  11.848   5.796  13.130  0.0196  0.1079  0.0105
27044W        W83285  29.867   6.399  15.535 -0.0117  0.1790 -0.1168
27045W        W83286  31.271  29.712  22.269  0.1028 -0.0140  0.2190
27046W        W83287  32.949   4.959  24.624 -0.0321  0.0767 -0.4570
27047W        W83288   3.518  17.074  16.946 -0.3188 -0.5299  0.1246
27048W        W83289  13.003  21.231   6.018  0.0354  0.0018 -0.0557
27049W        W83290  23.666  27.045   0.420  0.0303 -0.0523  0.0477
27050W        W83291   2.931  20.323   4.598 -0.1032 -0.0479  0.0724
27051W        W83292  34.425   6.931  25.589 -0.3271  0.1085  0.1921
27052W        W83293   7.573  27.067  23.583  0.0228 -0.2730 -0.0799
27053W        W83294   9.579  33.819  21.289  0.0091 -0.1921  0.0405
27054W        W83295  22.011  12.337   1.097 -0.0235  0.4574  0.2213
27055W        W83296   6.260   5.774  11.165 -0.0691  0.0461 -0.0873
27056W        W83297  24.945   1.989   0.064  0.2759 -0.2922 -0.1640
27057W        W83298  34.825   7.794  26.251 -0.1537 -0.0896 -0.1641
27058W        W83299  13.924   8.110   3.750 -0.1696  0.0527  0.0701
27059W        W83300   4.367   5.657  17.346 -0.1051  0.2717  0.2748
27060W        W83301  32.229  10.239   9.250 -0.3298 -0.1111 -0.0101
27061W        W83302  11.439  11.204  24.281  0.1620  0.0689 -0.1734
27062W        W83303  26.015   7.014  22.960 -0.0200  0.2514  0.2448
27063W        W83304  30.026  10.669  10.567  0.0361 -0.0879 -0.1488
27064W        W83305  21.498  11.315   3.288 -0.3290 -0.1342  0.0298
27065W        W83306  16.971  19.461  12.380  0.3477  0.0452 -0.1287
27066W        W83307   5.370   7.868   0.851  0.2952  0.2058 -0.1869
27067W        W83308  32.803  35.125  14.263 -0.0142  0.2079 -0.1480
27068W        W83309  32.756  27.486  25.605 -0.1139 -0.0904 -0.0448
27069W        W83310   7.165  29.490   7.958 -0.1707 -0.0785  0.3999
27070W        W83311  15.239  13.463  22.595  0.1395  0.0719 -0.3182
27071W        W83312  17.845   0.161  16.328  0.4101 -0.0182  0.0046
27072W        W83313  16.886   2.249   1.565  0.1046 -0.1433 -0.0201
27073W        W83314  23.769  15.593   0.168 -0.3078  0.0286  0.1447
27074W        W83315  25.248  12.659  14.201 -0.4243 -0.1654  0.0621
27075W        W83316  26.239  31.263  14.169 -0.0347  0.3202 -0.2465
27076W        W83317  12.979   1.361  12.208 -0.0805 -0.1525 -0.0163
27077W        W83318  33.985   9.675   1.484 -0.2470  0.0000  0.0748
27078W        W83319   2.057  25.156   3.321  0.0878  0.2611 -0.2377
27079W        W83320  14.111  16.889  20.018  0.0781  0.0625 -0.0313
27080W        W83321  19.077   2.740   6.601 -0.0349  0.1347  0.0410
27081W        W83322   7.509  26.314   8.003 -0.0121 -0.3689  0.1655
27082W        W83323  11.341  11.049   8.470  0.0997  0.1168 -0.0895
27083W        W83324  19.246  34.046   6.095 -0.1277  0.2146 -0.0180
27084W        W83325   3.220  31.889  10.241  0.2106 -0.3408  0.0679
27085W        W83326  32.172   2.353  16.471  0.0508  0.1546  0.1234
27086W        W83327  23.814  30.257   4.735 -0.2409 -0.1710  0.2911
27087W        W83328   0.094   3.928   4.447 -0.2622  0.1222  0.0076
27088W        W83329  17.944   9.860  17.717 -0.0828  0.1287 -0.2185
27089W        W83330  28.576  15.528  11.266  0.2995 -0.0743 -0.1424
27090W        W83331  29.685  34.153   1.848 -0.2284  0.2868  0.0520
27091W        W83332   2.031  28.907   1.596  0.1061 -0.1846 -0.3542
27092W        W83333   5.875  33.574  19.733  0.0436  0.2783  0.0393
27093W        W83334  19.304  25.869  19.184  0.1222  0.1161 -0.1166
27094W        W83335  32.829  25.636  23.361 -0.2517  0.0896  0.2275
27095W        W83336  26.380  16.493  22.237  0.1646 -0.0877 -0.0492
27096W        W83337  27.267  26.919   3.157 -0.0756  0.2471 -0.3308
27097W        W83338   6.343  19.011  20.780  0.2399  0.1336  0.0479
27098W        W83339  19.760   6.214   9.451 -0.2396  0.1608  0.2425
27099W        W83340  16.323   5.166  11.189  0.0734 -0.0360  0.1259
27100W        W83341  12.472  29.054  15.313 -0.0223 -0.0091  0.3280
27101W        W83342   1.801  24.152   2.552 -0.1944 -0.0141 -0.2550
27102W        W83343   5.049  29.159  11.627  0.4863  0.0161  0.1929
27103W        W83344  20.057  31.499   4.489 -0.0874  0.0259  0.0952
27104W        W83345  10.063  12.366   7.916  0.3059 -0.0357  0.0136
27105W        W83346  14.815  15.869  12.257  0.2107 -0.0692 -0.0164
27106W        W83347  28.177  15.672  13.837  0.0177 -0.1306  0.1357
27107W        W83348   6.727   8.056  10.581 -0.0229  0.2376 -0.1119
27108W        W83349   9.388  33.733   8.696 -0.0739 -0.1287  0.2036
27109W        W83350  30.519  30.099  14.244  0.1243 -0.0795  0.1972
27110W        W83351  25.039  11.744   0.254 -0.3004  0.1658  0.0950
27111W        W83352  20.476   2.577  22.225  0.2420 -0.4584 -0.4156
27112W        W83353  30.370  26.724  19.255 -0.2053  0.0277  0.0029
27113W        W83354  30.017   4.235  16.529 -0.2973  0.3284 -0.1181
27114W        W83355  26.809  28.700  18.980 -0.0568  0.4692  0.2849
27115W        W83356  27.508  11.118  14.399 -0.0724  0.1423  0.3676
27116W        W83357   0.917  11.730  11.000 -0.2885 -0.0503  0.0522
27117W        W83358  21.713   3.352  16.491 -0.1343  0.1313 -0.4620
27118W        W83359   2.764   2.512   5.759  0.0909  0.0319 -0.0317
27119W        W83360  13.158   7.998  21.414  0.2517 -0.0032 -0.3847
27120W        W83361  14.734  12.488  23.172 -0.0372 -0.2124  0.5408
27121W        W83362  21.920   5.219  15.392 -0.2730 -0.2215  0.3196
27122W        W83363  10.601  12.367  23.986 -0.1672  0.3313  0.1482
27123W        W83364  26.680  19.622  25.761 -0.0269 -0.1459  0.0174
27124W        W83365  21.025  27.395   2.293  0.0686  0.0405  0.0524
27125W        W83366  20.956  16.731  19.880  0.2760 -0.1862 -0.2558
27126W        W83367   9.370  13.154   3.743  0.0324  0.1363 -0.0449
27127W        W83368  14.928  12.788  23.567 -0.1425 -0.2471 -0.2543
27128W        W83369  29.638  17.700   4.287  0.0838 -0.2440  0.1464
27129W        W83370   9.147  30.589   7.737  0.1144 -0.0313 -0.0034
27130W        W83371  13.852  12.429   7.239 -0.0677 -0.1419 -0.0363
27131W        W83372  17.079   2.138  17.490  0.1110  0.2063 -0.0253
27132W        W83373  12.873   2.150  21.941 -0.0920 -0.0199  0.1847
27133W        W83374  10.387   1.119   9.908  0.0189 -0.3480 -0.2448
27134W        W83375   4.970   4.179   2.333 -0.0279 -0.0290 -0.1493
27135W        W83376  24.908  35.130   7.082  0.1553 -0.0185 -0.0627
27136W        W83377   3.010  27.652  22.005  0.3952 -0.0666  0.0270
27137W        W83378  27.611   3.556   5.663  0.2125  0.0613  0.1847
27138W        W83379  18.146  15.138   4.031 -0.5254  0.3860 -0.0262
27139W        W83380   4.686  22.439   4.331 -0.0813  0.1126 -0.0002
27140W        W83381  24.740  11.098   2.400  0.0965  0.0374  0.1145
27141W        W83382  15.214  24.771  15.543  0.1466  0.0530 -0.1626
27142W        W83383   4.365  11.244  23.394  0.0447 -0.3044  0.1031
27143W        W83384   8.803  11.380  19.075  0.2050 -0.1932 -0.1015
27144W        W83385  30.718   2.557   6.219  0.1524 -0.3096  0.3245
27145W        W83386  26.739  16.215  22.481 -0.1202  0.1108 -0.3190
27146W        W83387   1.006  31.604  18.045 -0.0031  0.3028  0.4473
27147W        W83388   7.456   6.078  24.602  0.0046  0.3591  0.0258
27148W        W83389  29.568  21.173  24.635  0.2277  0.1327 -0.2122
27149W        W83390  22.440  27.018  15.811 -0.0783 -0.2471  0.0885
27150W        W83391  13.798  10.689  23.583  0.2189 -0.0656  0.0664
27151W        W83392  31.459   7.596  15.437 -0.0928  0.1315  0.1144
27152W        W83393  34.159  18.405   9.738 -0.2506 -0.0150 -0.0563
27153W        W83394  23.463   7.260  21.657 -0.0411 -0.0399  0.0188
27154W        W83395   7.573  19.089  22.384 -0.0845 -0.0961  0.2302
27155W        W83396   1.415  31.689   3.767 -0.0080  0.1891 -0.0760
27156W        W83397  18.494  13.776  24.368 -0.2152  0.0895 -0.2608
27157W        W83398   6.986  32.689   0.798 -0.0007  0.0356  0.5040
27158W        W83399  25.593  27.681   3.835  0.0102 -0.1457 -0.3173
27159W        W83400  24.559  35.249  16.200  0.1723 -0.0421  0.1613
27160W        W83401  25.984  16.328  24.879 -0.0338 -0.2956 -0.1275
27161W        W83402  31.655  27.719  14.232 -0.0890  0.1574  0.1604
27162W        W83403  14.345  14.147  22.800  0.1694 -0.3451 -0.0743
27163W        W83404  26.440  25.318   0.648  0.0419  0.0452 -0.0030
27164W        W83405   1.114  33.884  24.180 -0.0488 -0.1261 -0.1764
27165W        W83406  26.802  28.912   9.916 -0.3059  0.0010 -0.0890
27166W        W83407  24.540   9.548   1.407 -0.0258  0.1355  0.2231
27167W        W83408  20.446   5.942  20.021 -0.0482 -0.0179 -0.1998
27168W        W83409  29.017  22.351   8.051 -0.2678  0.1381 -0.1445
27169W        W83410  34.749  31.258  20.455 -0.2294  0.0716 -0.0990
27170W        W83411  27.584  15.404  20.280  0.1066  0.5096  0.1670
27171W        W83412   8.151  22.858   8.454 -0.1967  0.2028  0.1301
27172W        W83413  11.541  17.712   2.493  0.2790 -0.1933 -0.0017
27173W        W83414   6.017   2.617   3.568 -0.1803 -0.2120  0.1363
27174W        W83415  23.684  30.556   0.499 -0.1626  0.3552 -0.0875
27175W        W83416   0.005   1.663   9.253  0.2211 -0.0696  0.0794
27176W        W83417  21.981  13.035  22.672  0.1059  0.0190 -0.0631
27177W        W83418  23.811  30.135  18.289 -0.2521  0.2119  0.1618
27178W        W83419  32.035   6.362  20.723  0.0080  0.2214 -0.0736
27179W        W83420  27.185  25.508   9.381  0.0626 -0.0810  0.0891
27180W        W83421  12.704  12.999  12.716  0.0709 -0.0418 -0.3258
27181W        W83422   5.385  11.045   2.610 -0.2870  0.0622 -0.0163
27182W        W83423  17.223  12.565  22.975  0.2028 -0.2635 -0.1797
27183W        W83424  29.394  23.660   7.328 -0.4586 -0.2738 -0.0617
27184W        W83425  29.619  25.064  16.630 -0.0959  0.1067 -0.2105
27185W        W83426  20.780   5.177  18.338  0.0194  0.0206  0.1111
27186W        W83427  27.737   5.395  14.668 -0.1508 -0.1847  0.0510
27187W        W83428  33.458  15.579   0.840 -0.1136  0.0918 -0.1685
27188W        W83429   6.854  27.093   2.788 -0.1409  0.1515  0.1411
27189W        W83430   3.915  20.786  25.739 -0.1652  0.0578  0.0508
27190W        W83431   9.346  13.470   6.854  0.1654  0.0251  0.0764
27191W        W83432  10.924   7.431  12.108  0.2110  0.1501  0.1346
27192W        W83433   2.112   9.720  24.700 -0.0552 -0.0099  0.2206
27193W        W83434  12.930  24.368   2.749  0.0383  0.3733  0.2784
27194W        W83435   5.494  29.723   5.181  0.0697  0.1143  0.1109
27195W        W83436  27.614  34.683   2.129 -0.1761 -0.0632  0.0657
27196W        W83437  34.659  16.754  19.470  0.1834  0.1616  0.0540
27197W        W83438  35.249   7.809  25.962 -0.1780 -0.0488 -0.0095
27198W        W83439  21.592  32.303  16.680  0.0115 -0.2239 -0.3015
27199W        W83440   3.717   1.038  20.401  0.1004 -0.0158 -0.3683
27200W        W83441  23.163  13.211  23.190 -0.0158  0.0893 -0.0792
27201W        W83442  25.752  29.342  15.990 -0.0071 -0.1228 -0.0214
27202W        W83443  13.552  32.405  10.076  0.0538  0.1627 -0.0048
27203W        W83444   8.626  11.894  10.133  0.3663 -0.0993 -0.0418
27204W        W83445   1.240  13.099  21.523 -0.0102  0.1531 -0.0862
27205W        W83446  23.459  20.418   0.147  0.0893  0.0465  0.0574
27206W        W83447   5.363  35.031   3.559 -0.2299  0.1385  0.3921
27207W        W83448  29.572  18.005   4.754  0.3788 -0.0378 -0.2519
27208W        W83449  29.841   1.813  17.657  0.0432  0.1260 -0.0173
27209W        W83450  32.196  24.122   1.116 -0.1779  0.0817  0.0527
27210W        W83451  17.918  21.815   5.458 -0.0640  0.0594  0.0145
27211W        W83452  28.920   0.392  23.575 -0.1010  0.0426 -0.2596
27212W        W83453  19.526  19.537  24.177 -0.1928  0.6233  0.1788
27213W        W83454  22.734  30.522  15.591  0.0181  0.0578 -0.1655
27214W        W83455  10.685   7.897  10.250  0.3367 -0.2957  0.1423
27215W        W83456  34.357   5.342  17.767  0.3915 -0.2353 -0.2854
27216W        W83457  29.891  21.470  21.036 -0.2345  0.0214 -0.0696
27217W        W83458  28.810  28.981  16.711  0.1646  0.2393  0.0717
27218W        W83459  10.211  33.562   7.479  0.2952  0.0470  0.1552
27219W        W83460  27.141   1.089   0.506 -0.0487 -0.2517  0.2577
27220W        W83461  18.228  14.744  22.721  0.1185 -0.2538 -0.4192
27221W        W83462  11.817  11.376   0.099  0.1025 -0.2256 -0.1266
27222W        W83463  23.731   0.396   1.264  0.2740 -0.2208 -0.1995
27223W        W83464  27.993  15.298  14.240  0.0204 -0.1383  0.2933
27224W        W83465   1.796  26.712   3.565 -0.2180 -0.1245  0.0174
27225W        W83466  23.069  32.547  12.952  0.1700  0.1835 -0.1095
27226W        W83467  31.947   4.563  14.224  0.1169 -0.0095 -0.1373
27227W        W83468  16.402  19.028   0.064  0.0485  0.0014 -0.2361
27228W        W83469  30.348  11.588  19.052  0.0745 -0.0223 -0.1198
27229W        W83470  19.983  10.205  23.909  0.2573 -0.1601  0.2366
27230W        W83471  21.065  10.967  18.659 -0.0422 -0.2401  0.1148
27231W        W83472  31.589  26.211  11.825  0.1093  0.2133 -0.3010
27232W        W83473   9.133   0.161  24.145 -0.1783 -0.1287  0.1046
27233W        W83474   9.999  22.912  14.101  0.2988  0.0232  0.0355
27234W        W83475  11.958  19.221   6.905  0.2177 -0.0781  0.2416
27235W        W83476  12.142   5.026   8.570  0.2946 -0.2369 -0.1330
27236W        W83477   9.184  10.200  11.107 -0.0826  0.1169 -0.0635
27237W        W83478  25.350  19.765   0.427 -0.2531  0.0030  0.0869
27238W        W83479  17.484   4.550  10.223 -0.4180  0.2914  0.0866
27239W        W83480   5.258  26.005  23.367 -0.0330 -0.0699  0.0545
27240W        W83481  26.022  13.986  17.114 -0.0027 -0.3845  0.0192
27241W        W83482   0.164  18.236   1.201 -0.2192  0.5488 -0.0771
27242W        W83483  30.673  22.525  13.193 -0.0409  0.1368  0.0761
27243W        W83484  23.747  23.757  25.777  0.1362 -0.0019  0.0645
27244W        W83485   6.894  26.421   1.924 -0.1718  0.1101  0.2206
27245W        W83486  20.868  32.792   1.700  0.2685 -0.0847  0.2234
27246W        W83487   9.815  32.587   0.621 -0.0649 -0.1148  0.2648
27247W        W83488  28.878  16.163  21.249 -0.0283 -0.0002 -0.1638
27248W        W83489  16.316  13.866  19.519  0.2836 -0.3691  0.0490
27249W        W83490  24.275   3.191  25.341 -0.1528 -0.2238  0.0722
27250W        W83491  10.618  18.454  23.731  0.0918 -0.2819  0.2701
27251W        W83492   6.888   1.996  23.409  0.2024 -0.2619 -0.6014
27252W        W83493  14.556  26.467  15.033  0.2165  0.0585  0.0935
27253W        W83494  20.881  27.727  25.771 -0.0950 -0.0689  0.1837
27254W        W83495  17.976  16.592  20.731 -0.1064  0.0387 -0.0688
27255W        W83496   8.052  20.079   6.687  0.2534  0.1851 -0.1326
27256W        W83497  26.466  15.194   7.552 -0.0616 -0.0681  0.1042
27257W        W83498  18.040  10.837   7.454 -0.0410  0.0745 -0.1212
27258W        W83499  15.239  24.758   8.264  0.0063  0.0353  0.0212
27259W        W83500  30.384   1.438  18.817 -0.1037 -0.0173  0.1568
27260W        W83501   9.765   5.742  12.308 -0.1794  0.0313 -0.1263
27261W        W83502   2.213  25.447   5.190  0.0270 -0.0884  0.0592
27262W        W83503  21.829  18.720   0.867  0.0654  0.0278 -0.0117
27263W        W83504  27.991  15.769  10.438 -0.1334 -0.3080  0.0762
27264W        W83505  27.860   8.963  19.231 -0.3349  0.3712 -0.0945
27265W        W83506  30.533   0.684  13.620 -0.3312  0.0217 -0.0481
27266W        W83507  28.125  29.664  16.885  0.1421  0.0388 -0.1008
27267W        W83508  12.935  14.577  13.996  0.1289  0.0201  0.0931
27268W        W83509  30.475   2.469   0.332  0.2298  0.1064 -0.1075
27269W        W83510  13.247   3.304  19.270  0.2659 -0.0436  0.2287
27270W        W83511  13.547  18.450   0.709 -0.3058  0.2562 -0.0565
27271W        W83512  23.624  24.582  18.813 -0.1057 -0.0073  0.1432
27272W        W83513  13.197  12.658   9.693  0.1983  0.0392 -0.1586
27273W        W83514  20.434  34.182   1.830  0.1175  0.1059  0.3550
27274W        W83515  15.416  24.866   1.308  0.0012 -0.1364 -0.2629
27275W        W83516   3.371  10.997  24.446 -0.2807 -0.0481 -0.2918
27276W        W83517  11.552  17.808   4.627 -0.0758  0.0713  0.1703
27277W        W83518  25.783   8.337  24.626 -0.0480  0.0064 -0.0213
27278W        W83519  21.410  29.562  12.539 -0.0945 -0.2143  0.2009
27279W        W83520  16.191   3.825  24.496 -0.3202  0.4347 -0.3458
27280W        W83521  15.200   6.726   4.214  0.0169  0.1063  0.1178
27281W        W83522  19.080  31.330  22.129  0.1054  0.1999 -0.2929
27282W        W83523   8.505  13.193  22.539 -0.1822  0.2077  0.0531
27283W        W83524   5.732  18.345  23.634 -0.0111  0.3157  0.1127
27284W        W83525  27.952  13.165   6.861  0.0455  0.3053  0.0371
27285W        W83526  26.602  27.007  11.718  0.0320 -0.3436 -0.0232
27286W        W83527  12.193   2.456  13.507 -0.1107 -0.0593  0.0654
27287W        W83528   7.018  28.400  12.802  0.0568  0.2982 -0.2551
27288W        W83529   1.194   4.605   2.715 -0.2845  0.1708  0.3842
27289W        W83530  12.315   3.671   2.108 -0.0205  0.1687  0.1393
27290W        W83531   0.554   9.219  21.352  0.0227 -0.0857 -0.2004
27291W        W83532  10.389  30.307  24.009  0.1092 -0.1972  0.1694
27292W        W83533   5.747  19.401  25.564  0.0896  0.0261 -0.0720
27293W        W83534  29.537  12.305  10.732 -0.0589 -0.2139  0.2118
27294W        W83535  26.434  31.145   4.256 -0.2826  0.0399 -0.1570
27295W        W83536  13.122   6.486  13.108 -0.1335 -0.0947 -0.0223
27296W        W83537  10.064  21.768  14.879  0.1095 -0.2612  0.0458
27297W        W83538  33.310  31.630  14.794 -0.0837 -0.2437  0.2050
27298W        W83539  28.359  12.535  13.658  0.0029  0.1129 -0.1017
27299W        W83540   7.520   4.257  11.823  0.2902  0.1934 -0.1654
27300W        W83541   7.906   7.201   1.948  0.0815  0.2601  0.1936
27301W        W83542  26.449   8.155  24.240 -0.0549  0.1347 -0.1356
27302W        W83543  31.991   8.699  18.024 -0.0500 -0.0793 -0.0452
27303W        W83544  30.996  28.504  20.508  0.1525 -0.1732  0.2610
27304W        W83545  30.139   7.566  17.330  0.2279 -0.1903 -0.4542
27305W        W83546  20.804  26.240  20.131 -0.0700  0.2421 -0.1108
27306W        W83547   1.097  20.081  14.558  0.0349  0.3207  0.2752
27307W        W83548  28.962  24.771   0.998 -0.0649 -0.0237  0.0404
27308W        W83549  13.435  30.317  23.336  0.1407 -0.3425 -0.0474
27309W        W83550  24.727  22.741  13.996  0.1711  0.0469  0.0286
27310W        W83551  25.719  10.793  18.842 -0.0419 -0.0490 -0.0725
27311W        W83552  34.880  13.035  19.324 -0.0351  0.2380  0.1446
27312W        W83553  26.651  19.503  15.574  0.0965 -0.1316  0.0442
27313W        W83554   2.077  26.866  22.205  0.0731 -0.0782  0.2527
27314W        W83555   5.484   4.598  25.012  0.1060  0.2692 -0.1134
27315W        W83556   6.265  26.247  24.918  0.1838  0.0870 -0.0184
27316W        W83557  35.125  18.291  15.575 -0.1168 -0.2503  0.2013
27317W        W83558  32.131  12.625  14.203 -0.1178  0.4942 -0.1578
27318W        W83559  27.045  27.047  22.636  0.4761 -0.2558  0.0460
27319W        W83560  21.755  23.105  21.889  0.1205 -0.2716 -0.0805
27320W        W83561  35.151  14.065  18.238  0.0094  0.0922  0.2169
27321W        W83562  11.086   2.026   3.823 -0.0193  0.1068 -0.1704
27322W        W83563  11.090  18.154  24.179  0.3791 -0.2069 -0.1969
27323W        W83564  14.149   1.175  12.219 -0.0540 -0.2976 -0.1777
27324W        W83565  35.261  14.855  18.524  0.0858  0.1106 -0.3132
27325W        W83566   3.752  27.267  25.853  0.2904  0.2138  0.0961
27326W        W83567  29.443  10.716  17.399  0.1912  0.0391 -0.3167
27327W        W83568  23.181  12.666  17.408  0.0705  0.0949  0.1346
27328W        W83569  28.651  13.605  18.517 -0.1832  0.0042 -0.1118
27329W        W83570  11.247  31.435  14.051 -0.1207 -0.2168  0.2816
27330W        W83571  33.681  11.850  22.278  0.0053  0.0066 -0.2791
27331W        W83572  13.289   8.747  11.857  0.0821  0.1172  0.1958
27332W        W83573  26.193  32.037   0.852  0.0030 -0.2256  0.2791
27333W        W83574  11.716   4.031  22.098  0.0227  0.0077 -0.1763
27334W        W83575   6.159  20.374  24.706  0.0510 -0.4429  0.2588
27335W        W83576   7.356  13.081   1.151  0.2343  0.0062 -0.5769
27336W        W83577   1.962  12.585   2.223 -0.0154 -0.0161 -0.0539
27337W        W83578   6.695   2.893  10.179  0.2745  0.2712 -0.1471
27338W        W83579  16.652   9.446  20.205 -0.2175 -0.0714 -0.1545
27339W        W83580  33.385  29.910  22.562  0.2374  0.2906 -0.2362
27340W        W83581  25.864   7.099  23.439  0.2728  0.3973  0.0893
27341W        W83582  32.082   8.634   0.959 -0.0643 -0.2340  0.3869
27342W        W83583  11.427  26.339   6.347 -0.2424 -0.5242 -0.2399
27343W        W83584  18.859  34.247  22.200  0.3119  0.1408 -0.0185
27344W        W83585  33.878   0.311   3.740 -0.2351  0.0245  0.1802
27345W        W83586  23.456  28.910  16.371  0.1557 -0.0745  0.2539
27346W        W83587  16.487  25.498  14.451 -0.1925 -0.2439 -0.1878
27347W        W83588  33.176   4.226  20.925  0.1751  0.0570  0.0562
27348W        W83589  10.128  13.648  12.522 -0.2407 -0.0052  0.1158
27349W        W83590  17.010   8.844  10.582  0.1146  0.0128 -0.0274
27350W        W83591   2.655  14.233   4.204 -0.0134 -0.1526  0.3577
27351W        W83592   9.089  25.293  14.701  0.1899 -0.0727  0.1183
27352W        W83593   8.578  19.415   0.476  0.3976  0.0741  0.1357
27353W        W83594   3.828   2.940  18.984  0.1042 -0.0785  0.0523
27354W        W83595  12.977  34.307   2.416 -0.0278  0.1379 -0.0344
27355W        W83596  11.245  18.787  22.369 -0.0502  0.1814 -0.1311
27356W        W83597   0.188  21.394  19.202  0.1689  0.1623  0.0172
27357W        W83598  13.556  31.023  25.424  0.3401  0.3722 -0.0994
27358W        W83599  29.558  25.274  11.090 -0.2264  0.2239  0.0404
27359W        W83600  11.249   2.807  26.059  0.1426  0.3384  0.0453
27360W        W83601  19.364  26.321  25.798 -0.1794 -0.0657  0.3166
27361W        W83602  20.093   7.935  10.512  0.0699 -0.0862  0.0163
27362W        W83603   2.685  33.587   0.236 -0.1370 -0.3325  0.1555
27363W        W83604  12.178  14.563  22.476  0.0882  0.2106 -0.2659
27364W        W83605   8.467  18.612  23.821  0.2919  0.0797  0.0203
27365W        W83606  19.992   2.009   1.490 -0.0006  0.0325  0.0207
27366W        W83607  33.916   1.698   0.834 -0.0187 -0.2383  0.1180
27367W        W83608  24.121   8.564  21.597 -0.0633  0.2761  0.2116
27368W        W83609   7.388   7.038   2.871  0.1707  0.1984 -0.0278
27369W        W83610  16.192  10.838   3.133  0.0689 -0.2436  0.0865
27370W        W83611   2.920  21.815  15.147 -0.0168  0.0216  0.1922
27371W        W83612  31.707   0.631   5.048  0.2295  0.0251 -0.0017
27372W        W83613  26.931  16.989  10.755 -0.0600  0.0630  0.1056
27373W        W83614  14.374  24.874  11.902  0.1115  0.0774  0.1376
27374W        W83615   0.279   8.487  18.188  0.3205  0.2123 -0.3582
27375W        W83616  15.328   2.774  10.228  0.2348 -0.4623 -0.0449
27376W        W83617  16.227  16.119  20.085 -0.3667  0.0568  0.0235
27377W        W83618   8.008   1.505  12.856 -0.0733 -0.3302 -0.2739
27378W        W83619  32.712  29.072  14.378 -0.1331  0.1178 -0.1085
27379W        W83620  27.334  32.321  22.911 -0.0612  0.3953 -0.1069
27380W        W83621  28.428  11.844   6.362 -0.1427 -0.1536  0.3702
27381W        W83622  28.761  27.485   0.169 -0.0602 -0.2033 -0.1474
27382W        W83623  19.610   6.214   8.990 -0.0530 -0.2642 -0.0629
27383W        W83624  24.545  27.804  22.517  0.1416  0.0805 -0.0827
27384W        W83625  17.067  23.731  24.022 -0.0391  0.3460  0.2599
27385W        W83626   1.449  22.207  22.675 -0.0503  0.1600 -0.0625
27386W        W83627  34.851  31.487  25.567  0.0245 -0.1952  0.0875
27387W        W83628   1.119  32.592   2.524 -0.1593  0.3054 -0.2038
27388W        W83629  29.008  14.766   6.940 -0.1803  0.0016 -0.0596
27389W        W83630   4.705  21.689  21.749  0.1401  0.2777 -0.1190
27390W        W83631  33.510  33.522  15.556 -0.1310  0.1039  0.0883
27391W        W83632   7.997  17.577   7.272 -0.0113 -0.0071  0.1814
27392W        W83633  31.141   1.902  26.244  0.0439 -0.3246 -0.2741
27393W        W83634  24.189   0.025  14.356  0.0733  0.1028 -0.0636
27394W        W83635  24.725   6.911  16.123  0.0508 -0.0478 -0.3979
27395W        W83636  33.989   1.860   1.277  0.2640 -0.0296  0.2811
27396W        W83637  30.075  14.091  22.327  0.1303  0.0627  0.1899
27397W        W83638  26.364  14.162  18.311  0.3904 -0.1392 -0.2114
27398W        W83639   9.736  11.504   3.788  0.4298  0.1728  0.0706
27399W        W83640  33.074  17.982  14.321  0.2577  0.0164 -0.1370
27400W        W83641  13.217  11.523   3.122  0.0082 -0.2100  0.4010
27401W        W83642   9.999  19.292  23.881  0.1364  0.1479 -0.0338
27402W        W83643  18.463   1.273   2.465  0.0014  0.1289  0.0090
27403W        W83644   0.220  33.057  20.062  0.1924  0.1712  0.0857
27404W        W83645   0.863   2.729   5.474  0.2618 -0.0439 -0.1766
27405W        W83646  24.632  35.079  15.660 -0.3672 -0.1134 -0.2355
27406W        W83647  24.668  15.871  24.715  0.0650 -0.2156 -0.3477
27407W        W83648  27.774  29.631  19.033  0.1889 -0.1323 -0.0735
27408W        W83649   9.036  14.104  23.284  0.2557 -0.1432  0.2499
27409W        W83650  28.455  10.007  20.985 -0.0776  0.3291 -0.0844
27410W        W83651   0.290  31.235  24.478 -0.0477 -0.1358 -0.1528
27411W        W83652  30.216   9.693  14.590 -0.4042  0.3215 -0.1175
27412W        W83653  11.959   7.009  25.318  0.2270  0.3479  0.0418
27413W        W83654  33.428  23.962  20.911 -0.3088  0.4756  0.0114
27414W        W83655  21.861  27.190   3.305 -0.1486  0.1396  0.1404
27415W        W83656  22.547   8.426  22.451 -0.1596  0.0186 -0.3786
27416W        W83657  17.454  22.660  25.362 -0.2357  0.1743  0.1401
27417W        W83658   5.441  30.226  21.105 -0.0744  0.1256  0.1312
27418W        W83659  19.560   4.244  17.613  0.0794  0.1832 -0.0465
27419W        W83660  33.831  33.022   5.469 -0.1679 -0.0346 -0.1998
27420W        W83661   2.635  28.540  24.856  0.0970  0.2404 -0.2134
27421W        W83662  30.126   1.489   2.484 -0.1029  0.4477 -0.0379
27422W        W83663  22.747  24.355  21.112 -0.0435  0.0604 -0.0955
27423W        W83664  25.107  30.696   4.762  0.0309  0.1882  0.0735
27424W        W83665   4.978   4.045   1.257 -0.1726  0.1430 -0.0018
27425W        W83666  13.980  13.544  12.370  0.0249  0.2349 -0.0216
27426W        W83667  17.867  27.074   7.784  0.1063 -0.1733 -0.1107
27427W        W83668  23.545   0.264  22.243 -0.1209  0.1882 -0.0090
27428W        W83669  11.567  31.469  21.650 -0.1024  0.0680  0.1516
27429W        W83670   7.236  13.085  20.446 -0.0362 -0.1823  0.2667
27430W        W83671  18.882  14.160  10.848  0.2319  0.1200  0.0409
27431W        W83672  21.626  15.134  18.753 -0.3445  0.2171 -0.0473
27432W        W83673  16.182  25.483   1.435 -0.0318 -0.2541 -0.0266
27433W        W83674   6.788  28.146   2.779  0.0114  0.1271  0.0312
27434W        W83675  34.818  24.525  25.235  0.3810 -0.2086 -0.2924
27435W        W83676  13.309   8.394  25.994  0.2136 -0.3037 -0.1840
27436W        W83677  31.449  24.446  12.768  0.2577  0.0968 -0.1944
27437W        W83678  17.671  10.675   9.561  0.0149 -0.3234 -0.0831
27438W        W83679   6.266  23.766  23.292  0.1896 -0.1802  0.1430
27439W        W83680  27.045  24.663   8.757  0.0990 -0.0703  0.1222
27440W        W83681  21.181  25.436   6.116 -0.0056  0.2153 -0.2082
27441W        W83682  23.377   0.088   1.081  0.2236  0.1996  0.0810
27442W        W83683  11.499  26.662   0.765 -0.4795  0.0826 -0.0909
27443W        W83684  24.891   4.310  13.720  0.0483 -0.0513  0.1438
27444W        W83685  28.469   1.464  21.496  0.2764 -0.0105 -0.1197
27445W        W83686  27.423   5.119  16.071 -0.1278  0.2645 -0.3484
27446W        W83687  28.680  12.076  16.719  0.2326 -0.3177 -0.0192
27447W        W83688   2.705  29.928   8.922  0.3314  0.0177 -0.0043
27448W        W83689  10.177  23.882  22.848  0.3756 -0.0953 -0.0172
27449W        W83690  21.648  27.424  22.837  0.2859  0.2586 -0.0641
27450W        W83691   7.366  34.693   9.299 -0.4667 -0.3152  0.2083
27451W        W83692  24.463   0.968  17.439 -0.2199 -0.3204  0.0781
27452W        W83693   8.894  32.483  25.412 -0.0594  0.3648 -0.1117
27453W        W83694  13.561  10.954   7.721 -0.2763 -0.1127 -0.1677
27454W        W83695  34.346  26.660  13.993 -0.1921 -0.2807  0.2034
27455W        W83696   7.078   4.228  20.602 -0.2797 -0.1527  0.0383
27456W        W83697  35.190   6.140  24.720 -0.1164 -0.1204  0.1906
27457W        W83698  21.043   6.967   7.957  0.1381 -0.1021 -0.3291
27458W        W83699  26.181  21.056  12.824  0.1555 -0.1085  0.1020
27459W        W83700  19.583  14.415  24.590  0.0217 -0.1314 -0.3309
27460W        W83701  23.937   0.630  18.244  0.1720  0.1440  0.2121
27461W        W83702  30.398  21.310  14.751  0.0519  0.0234  0.0337
27462W        W83703   0.573  28.513  17.249  0.0495  0.0692  0.0987
27463W        W83704  17.095  18.506   5.320  0.0334 -0.0715 -0.0349
27464W        W83705  12.824  32.492  15.943 -0.2600 -0.1242  0.0754
27465W        W83706  14.565  24.092  16.130  0.0162 -0.0550  0.2010
27466W        W83707   7.232   5.961   1.117  0.0537  0.0026  0.0809
27467W        W83708  11.727  27.197  25.117  0.0585 -0.2488 -0.0768
27468W        W83709  29.782  16.090  15.260 -0.3231  0.1785  0.1771
27469W        W83710  14.665  30.961   5.809  0.2577  0.2898  0.1206
27470W        W83711  20.651   4.829  18.032  0.2241  0.3179  0.0519
27471W        W83712  27.850  21.907  19.129 -0.0301 -0.2532  0.0725
27472W        W83713   1.520   3.189   5.360  0.1702 -0.0933  0.0859
27473W        W83714  23.429  27.183  25.332 -0.1080 -0.0893 -0.2388
27474W        W83715  13.015  27.635   3.352 -0.1426 -0.1399  0.1064
27475W        W83716  17.657   6.909  11.658 -0.2285  0.0422 -0.2494
27476W        W83717  18.177  24.582   1.337  0.1780 -0.0626 -0.3636
27477W        W83718   2.801   0.407  20.735  0.0440 -0.1031 -0.2862
27478W        W83719   0.665   7.358   1.002  0.1182 -0.1350  0.1280
27479W        W83720   8.019   2.763  14.631 -0.3186 -0.0833 -0.0239
27480W        W83721  20.825  16.400  22.713 -0.0646 -0.1052 -0.0729
27481W        W83722  28.664  15.894  20.086 -0.0191  0.0777  0.2071
27482W        W83723  15.238  15.188   3.961 -0.0979 -0.0126 -0.1265
27483W        W83724  21.081  15.400  25.776  0.4044  0.1104 -0.1907
27484W        W83725  11.377  12.051   6.724  0.0468 -0.1567  0.3139
27485W        W83726   4.756  30.280   8.188 -0.2541 -0.4286 -0.0244
27486W        W83727  33.772  27.083  20.408 -0.0849  0.1069 -0.0493
27487W        W83728   2.842  15.430  20.054  0.0726 -0.1891  0.1416
27488W        W83729  22.671  11.696   0.068 -0.2580  0.1871 -0.1605
27489W        W83730   7.388  33.945  11.842 -0.3066 -0.2647 -0.2205
27490W        W83731   2.489  26.229  25.264  0.3307  0.0606  0.0139
27491W        W83732  22.826  32.780  19.198 -0.3769 -0.2221  0.1768
27492W        W83733  24.610  29.043   2.099 -0.2575  0.2103 -0.1264
27493W        W83734  19.439  11.309   6.653  0.1246 -0.1674  0.1051
27494W        W83735   5.729  10.302   8.528 -0.0201  0.0422 -0.2707
27495W        W83736  34.617  24.890  17.456 -0.1763  0.0400  0.4190
27496W        W83737   5.383   4.596  10.281  0.1220  0.0895 -0.0240
27497W        W83738  14.077   3.202  25.418  0.1895 -0.1791  0.2637
27498W        W83739   3.385  20.729  25.172  0.0220  0.1185  0.0086
27499W        W83740   6.800  12.950   9.545  0.0632  0.3530  0.1156
27500W        W83741   6.560  24.717  21.764  0.3954  0.1859  0.1726
27501W        W83742  20.598  23.166   3.987  0.0878  0.0230  0.3103
27502W        W83743   1.595  23.293  25.184  0.0517 -0.0921 -0.0359
27503W        W83744  14.791  20.372  23.282 -0.2544  0.1050  0.1756
27504W        W83745  20.407  33.703  18.051  0.2441  0.0391 -0.1908
27505W        W83746  11.044  23.897   2.085 -0.1909  0.0770 -0.3804
27506W        W83747  12.465  13.919  13.552  0.2236  0.1015  0.2607
27507W        W83748   3.376  18.852  24.866  0.1312  0.0928  0.0861
27508W        W83749   8.669  22.304   5.157 -0.1255  0.0591 -0.2067
27509W        W83750  30.974  10.664  22.355  0.1010  0.2634  0.1230
27510W        W83751  11.894   8.837  13.375  0.3329 -0.0402 -0.2550
27511W        W83752  21.780  35.198   6.009  0.0158  0.1524  0.1828
27512W        W83753   9.973  14.541  24.955  0.1851 -0.1313 -0.1028
27513W        W83754  30.798  32.138  12.232  0.2888  0.2116 -0.0510
27514W        W83755   6.738  31.306  15.947 -0.0714  0.0573  0.1819
27515W        W83756  13.864  15.001  10.967  0.0511  0.0142  0.0280
27516W        W83757  23.705  23.339  14.210  0.0204 -0.0039 -0.1254
27517W        W83758  16.887  16.422   9.059  0.3153  0.1352  0.0635
27518W        W83759  20.590  19.120   6.831 -0.0097  0.0166  0.0936
27519W        W83760  33.592   8.016  20.884  0.1668  0.1584  0.0322
27520W        W83761  12.353  16.078   7.262  0.2776  0.0682 -0.0161
27521W        W83762  26.436   6.844   1.027 -0.0032 -0.0643  0.0346
27522W        W83763  31.550  33.119   4.211  0.0585 -0.3387  0.1854
27523W        W83764  21.435   3.157  25.684 -0.0700 -0.2270 -0.0416
27524W        W83765   3.142  29.395   3.596  0.1302  0.1113 -0.1690
27525W        W83766   3.935  12.489   6.755 -0.0264  0.2102  0.1932
27526W        W83767  20.887  26.366   2.655 -0.1869  0.2254  0.1486
27527W        W83768   5.278   3.788   9.926 -0.2331 -0.1404 -0.0310
27528W        W83769   0.956   6.789  20.673 -0.2243 -0.0830  0.0821
27529W        W83770  22.127  12.399  14.387 -0.1598 -0.1303 -0.2121
27530W        W83771  26.645   0.465  11.031  0.0836  0.1087  0.1254
27531W        W83772  29.839   0.890  11.424 -0.1011  0.0151 -0.1503
27532W        W83773   2.778  31.304  25.187  0.0434 -0.1790  0.1126
27533W        W83774   5.665  18.747   4.226 -0.0162  0.2443  0.0043
27534W        W83775  23.997  14.722  19.914  0.1037 -0.2685  0.0614
27535W        W83776  16.837  28.458  21.495  0.1976  0.1529 -0.0392
27536W        W83777  11.338  13.736  10.272 -0.0948 -0.1413  0.1089
27537W        W83778   4.909  23.544  23.258  0.0758 -0.0162 -0.1222
27538W        W83779  17.653   5.371  11.920 -0.1054  0.1353  0.3313
27539W        W83780  11.010  26.179  16.210 -0.1821 -0.0453  0.1426
27540W        W83781  11.456  19.139  15.303 -0.2458 -0.1634  0.3904
27541W        W83782  14.005  28.587   4.666  0.1961 -0.1656 -0.0722
27542W        W83783   7.759   0.015  25.656 -0.0166  0.3216  0.0378
27543W        W83784   3.102  16.874  15.530 -0.0629 -0.0506 -0.2867
27544W        W83785  32.370   0.298   0.534  0.1312  0.0275 -0.1948
27545W        W83786  32.170  33.860  17.609  0.0516 -0.0605  0.2015
27546W        W83787  12.129  24.902   5.690 -0.1482  0.3363  0.1443
27547W        W83788  23.893  19.401  16.088 -0.2981  0.0840  0.2398
27548W        W83789  28.154  34.761   6.251 -0.8189 -0.2022  0.1991
27549W        W83790  21.242  34.563  22.573 -0.2569  0.1785 -0.2329
27550W        W83791  30.001  17.072  13.743  0.0085 -0.0233 -0.1593
27551W        W83792  10.969  32.984  13.729 -0.0934  0.2619  0.1621
27552W        W83793   4.660  24.420  24.256  0.0704 -0.1595  0.0184
27553W        W83794  29.941  27.263  14.876 -0.1654 -0.1879 -0.2627
27554W        W83795  26.861  28.621  25.979 -0.1908 -0.0902 -0.0729
27555W        W83796  17.257  19.380   6.213 -0.3960  0.0982 -0.0069
27556W        W83797  12.626  29.818   0.717  0.2689  0.2922  0.1247
27557W        W83798  10.555  17.845  22.981 -0.0217 -0.2036  0.1637
27558W        W83799  34.090  13.720  25.763  0.1531 -0.0695 -0.1215
27559W        W83800  11.147   2.561   9.497  0.1834  0.1159  0.1098
27560W        W83801  30.818  12.560  14.433 -0.0492 -0.2507  0.2383
27561W        W83802  34.383   9.864  17.910 -0.1079  0.0043  0.2591
27562W        W83803  20.363  10.641  20.037  0.1096  0.1636 -0.0956
27563W        W83804  11.301  18.466  22.843  0.0092 -0.0782 -0.1537
27564W        W83805  10.726   0.828   1.042 -0.3690  0.1326  0.3336
27565W        W83806   8.782  13.993   3.454  0.0979  0.0941 -0.0423
27566W        W83807  25.094   8.218  14.389  0.0913 -0.0350 -0.0415
27567W        W83808  30.394  26.308  13.557 -0.3152  0.1884  0.0215
27568W        W83809  33.699  26.140  24.403 -0.0279 -0.0100  0.1295
27569W        W83810  10.051   8.004  24.248  0.2546 -0.1033 -0.1255
27570W        W83811  14.076   1.233  11.173  0.1389  0.2609  0.5433
27571W        W83812  23.730  22.655  12.318  0.0875 -0.0815 -0.1637
27572W        W83813  22.530  32.946   4.963 -0.1213 -0.2290 -0.2517
27573W        W83814  34.339  25.224  18.940  0.0834 -0.0045  0.0291
27574W        W83815  16.056  34.142  19.434  0.0614  0.0246  0.4999
27575W        W83816  33.453  14.166  20.502  0.4521 -0.1078  0.0761
27576W        W83817   6.311   5.214  11.544  0.1538 -0.4370 -0.2546
27577W        W83818  14.128   9.270  10.381  0.2396 -0.1368  0.3533
27578W        W83819  28.184  34.730  15.060  0.5041  0.1706 -0.1370
27579W        W83820   1.094  35.081   4.518  0.0876 -0.1344 -0.3577
27580W        W83821  23.244  16.044  22.961 -0.3239 -0.2331 -0.0896
27581W        W83822  26.232   0.225  19.742 -0.0386  0.1626  0.3080
27582W        W83823  18.603  28.171  24.083  0.2868 -0.0339  0.3137
27583W        W83824  16.216  31.387   3.237 -0.2367 -0.3748 -0.1279
27584W        W83825  29.025  22.744   7.749  0.1651  0.0795  0.2615
27585W        W83826  17.698  10.517   7.945 -0.2318  0.0946  0.0353
27586W        W83827  13.329   4.998  10.687 -0.1299 -0.2488 -0.0076
27587W        W83828   0.311  22.195  12.373 -0.0963 -0.0596  0.0463
27588W        W83829  14.861  17.208  21.670 -0.0595 -0.2012  0.1306
27589W        W83830  14.550  14.963  25.764  0.2027  0.1898 -0.1889
27590W        W83831  29.288  22.850  12.262 -0.2150  0.0776 -0.4348
27591W        W83832  11.616  13.435   6.232 -0.0414  0.1473  0.0623
27592W        W83833   7.003   1.725  24.221 -0.0594 -0.0892  0.1028
27593W        W83834  32.774  20.379  15.431  0.1060 -0.0569 -0.2942
27594W        W83835   9.711  27.013  25.653  0.0819 -0.3577 -0.1788
27595W        W83836  21.025  26.759  17.092  0.0881 -0.3636 -0.0491
27596W        W83837  33.598  24.800  17.096 -0.1684 -0.2574 -0.0981
27597W        W83838  18.386  17.719  26.212 -0.2734 -0.2393  0.1884
27598W        W83839  35.183  32.382  23.760 -0.1287  0.4335  0.2386
27599W        W83840  10.035  28.239   0.626 -0.0665 -0.1582  0.0172
27600W        W83841   0.066   8.332  23.833  0.1924  0.2514 -0.3643
27601W        W83842   6.730  35.072  25.021  0.4198  0.0165 -0.0763
27602W        W83843   0.564  24.100  17.757 -0.2477  0.0773  0.1600
27603W        W83844  29.931   1.081  16.394 -0.3568 -0.2235  0.1775
27604W        W83845   3.324   3.636  20.542 -0.0079 -0.1599 -0.0734
27605W        W83846  22.830  28.153   4.516  0.2075  0.0069  0.0052
27606W        W83847  10.895  33.957   9.335  0.3401 -0.1556 -0.1253
27607W        W83848  23.726  21.473  12.980 -0.0654 -0.2527 -0.2830
27608W        W83849  19.249  34.245  17.021 -0.0466  0.2639  0.1685
27609W        W83850   0.583  20.326  21.215 -0.0306 -0.2918  0.0095
27610W        W83851   7.957   2.186  11.338  0.2579 -0.0952 -0.3190
27611W        W83852  29.133  19.177  19.948 -0.0284  0.1348  0.1206
27612W        W83853  12.818   8.396  21.305 -0.2820 -0.1553  0.1252
27613W        W83854  16.325  21.480   3.592 -0.1468  0.0411 -0.2220
27614W        W83855   1.624  17.932  18.975 -0.0287 -0.1868 -0.1501
27615W        W83856  15.617   6.340  18.338 -0.1564  0.1466 -0.0098
27616W        W83857  19.743  22.628  23.446 -0.2128  0.2123 -0.0139
27617W        W83858  26.874  28.628  24.863 -0.0552 -0.1304 -0.0425
27618W        W83859   7.960  14.000  23.583  0.0583  0.3228  0.2339
27619W        W83860   1.681  15.647  18.479 -0.1077  0.1265  0.1375
27620W        W83861  30.923  32.696  18.099 -0.0094  0.1398 -0.0030
27621W        W83862  30.391  24.786  16.047 -0.0292  0.2380  0.1817
27622W        W83863  33.976  15.256   9.696 -0.0071 -0.0058  0.5172
27623W        W83864  19.680  20.011  23.993  0.1469 -0.1388 -0.1063
27624W        W83865  17.797   3.851  20.581  0.4243  0.1291 -0.1349
27625W        W83866   0.833   6.657  21.308  0.0112 -0.1656 -0.0074
27626W        W83867  10.698  12.366   4.868  0.0229  0.1607 -0.1992
27627W        W83868   5.005  34.342   6.847 -0.2305 -0.1089 -0.3681
27628W        W83869  23.858   1.726  25.134 -0.2087 -0.2117 -0.0794
27629W        W83870  19.836  20.057  20.170 -0.1403 -0.1304 -0.1785
27630W        W83871  26.921  29.875   1.268  0.0485 -0.2365  0.0989
27631W        W83872  25.490  26.458  12.253  0.1965  0.1601  0.1552
27632W        W83873   7.450  18.610   4.412  0.0237  0.1582 -0.0658
27633W        W83874  15.355  20.636  12.894 -0.1801 -0.3528  0.1532
27634W        W83875  15.474  20.328   2.330  0.1234  0.1656 -0.3426
27635W        W83876  17.490  29.021   2.808  0.0642 -0.1944 -0.0381
27636W        W83877  35.336  33.587  18.460  0.0090  0.0679  0.0121
27637W        W83878  13.039  34.170  11.552  0.1625 -0.0515  0.0597
27638W        W83879  21.536  19.285   1.437 -0.1487 -0.2036  0.0634
27639W        W83880  31.005  26.194  18.397 -0.1632 -0.1242 -0.3178
27640W        W83881  17.889   8.911   6.616  0.0201  0.1816 -0.4395
27641W        W83882  14.654  25.607  16.948 -0.3159 -0.1982  0.0600
27642W        W83883  25.509  23.119  20.274  0.0688  0.2029 -0.0107
27643W        W83884  25.468  12.593   0.911 -0.0971 -0.1219  0.0121
27644W        W83885   9.766  35.022   5.917  0.0256  0.3187 -0.0550
27645W        W83886  25.292   2.112  19.119  0.0533  0.1968  0.2450
27646W        W83887  24.700  29.579   3.643  0.1333  0.0086 -0.1843
27647W        W83888  15.399   9.177   3.407  0.0225 -0.2435 -0.2072
27648W        W83889  12.337   7.096  21.653  0.2824 -0.1653  0.0911
27649W        W83890  29.596  34.194  21.079 -0.1101 -0.2546 -0.1897
27650W        W83891  33.489  13.309  11.224  0.1575 -0.0379 -0.2147
27651W        W83892   1.891  11.141  20.085  0.2934  0.2457 -0.2168
27652W        W83893   2.450  32.853  24.388 -0.4078  0.0776 -0.0821
27653W        W83894  31.296  10.724  14.323 -0.2539  0.0722  0.2539
27654W        W83895  34.230  15.906  20.511 -0.2344 -0.2105  0.1463
27655W        W83896   9.443  14.152  12.006  0.0713 -0.1895 -0.0535
27656W        W83897  17.642  34.934  22.585 -0.1175  0.0109 -0.1366
27657W        W83898  30.579  22.632  24.526  0.3522 -0.1972  0.1017
27658W        W83899   9.403  11.793   6.336  0.1988 -0.2058 -0.1910
27659W        W83900  22.127   3.680  15.631  0.0319  0.0960 -0.2813
27660W        W83901  20.687  35.224   4.055  0.2819 -0.0885  0.1760
27661W        W83902   7.302  27.162  15.540  0.0137 -0.0427 -0.0990
27662W        W83903  22.453  24.740  21.822 -0.2906 -0.1022  0.2744
27663W        W83904  21.419   5.976  19.317  0.0033 -0.1409 -0.0175
27664W        W83905  28.797  30.965  18.365  0.1452 -0.2518  0.2663
27665W        W83906  13.767  11.523  10.030  0.0142  0.0859  0.0521
27666W        W83907  19.791  14.986   8.972  0.1084 -0.1749 -0.0421
27667W        W83908  29.064   7.423  22.169 -0.0940  0.0955  0.1039
27668W        W83909   7.452   9.943  20.576  0.4195  0.1794  0.1249
27669W        W83910  17.928  31.726   7.403  0.2074  0.3320 -0.2257
27670W        W83911  18.663  27.749  20.029  0.1768  0.2306  0.0609
27671W        W83912  35.026  26.839  14.253  0.1547 -0.3630  0.1446
27672W        W83913  34.893   7.982   6.022 -0.3266  0.1676  0.2491
27673W        W83914  18.206  12.367  19.626  0.1775 -0.2130  0.0129
27674W        W83915   4.993   9.451  22.566  0.0976 -0.1782  0.3742
27675W        W83916   1.946  19.691   1.289  0.1154 -0.2688  0.0239
27676W        W83917  32.837   9.513  16.314  0.1706  0.2159  0.1032
27677W        W83918  21.536  29.385  18.349 -0.5410 -0.0541  0.2393
27678W        W83919  25.151   4.406  15.522  0.3416 -0.1769 -0.0848
27679W        W83920   0.371  20.581  14.384 -0.0272 -0.1356 -0.0256
27680W        W83921  22.215   2.857  18.137 -0.1282  0.1709  0.0811
27681W        W83922   3.544  22.653   5.801 -0.0918 -0.3434  0.2732
27682W        W83923  22.043  33.568  22.009  0.0414 -0.0972  0.1712
27683W        W83924  20.935  31.327  18.250  0.0153 -0.0131 -0.1408
27684W        W83925  24.527  32.722   2.022 -0.2141  0.0009 -0.1839
27685W        W83926   9.631  12.120   5.939  0.1880 -0.0905  0.4192
27686W        W83927  33.404  14.239  16.783  0.1015  0.2253 -0.1573
27687W        W83928   4.388   1.776  20.932 -0.3684 -0.0954  0.0624
27688W        W83929  11.435   2.271  22.446 -0.2145  0.1531 -0.0800
27689W        W83930   9.946  32.375   1.701 -0.1389 -0.1425 -0.2393
27690W        W83931  27.671  30.795   5.160 -0.2330  0.1346 -0.3098
27691W        W83932   9.973   3.509   8.002  0.1729  0.4020  0.1780
27692W        W83933  15.190  24.942  23.915  0.1015  0.0615 -0.0803
27693W        W83934  11.803   7.784  24.665  0.2913 -0.2744 -0.1578
27694W        W83935  32.895   8.470  20.149 -0.0004  0.0619 -0.2029
27695W        W83936  20.478  14.354  23.701 -0.2549  0.0724  0.0017
27696W        W83937  25.690  26.340  25.920  0.1173 -0.0862  0.0848
27697W        W83938  30.647  32.425  11.892 -0.0662 -0.2361  0.0140
27698W        W83939  10.130  33.116  16.352  0.0246  0.2790  0.0344
27699W        W83940   4.302   7.129  23.668 -0.4302  0.1373  0.1760
27700W        W83941   5.035  30.405  22.996 -0.3156  0.0450  0.0055
27701W        W83942  24.896  14.115   0.149 -0.3464 -0.0750  0.1673
27702W        W83943  20.906  28.317  14.342  0.0086 -0.0367  0.0845
27703W        W83944  28.327  26.842  19.455 -0.0361  0.1073  0.2128
27704W        W83945  30.774  20.841  23.313 -0.2103  0.1001  0.2199
27705W        W83946  21.262  29.146   4.558  0.1158 -0.0462  0.1545
27706W        W83947  22.997   7.867  18.151 -0.0616  0.0876 -0.3922
27707W        W83948  26.820  15.346   9.195 -0.0299  0.1873 -0.0292
27708W        W83949  18.705  34.014   5.168 -0.1541  0.1121 -0.0967
27709W        W83950  12.593  27.773   6.536 -0.0796 -0.1962  0.0475
27710W        W83951   8.108  22.665   9.903 -0.1258 -0.1267  0.1850
27711W        W83952  24.456   9.077  23.472 -0.0912 -0.2232 -0.2140
27712W        W83953  16.983  26.268  10.104  0.0668  0.1826  0.1609
27713W        W83954  12.145  11.144  11.533  0.1556 -0.0725 -0.0631
27714W        W83955  24.163   9.491  22.274  0.2346 -0.1862  0.0188
27715W        W83956  15.552   4.986   2.743  0.0532 -0.0286 -0.0828
27716W        W83957   0.066  21.163  23.526  0.2289  0.0641  0.0572
27717W        W83958  12.930  22.861  12.840 -0.1657 -0.1344  0.0074
27718W        W83959  12.068   5.184  22.433 -0.0581 -0.1939  0.2190
27719W        W83960  32.604   5.059  24.003  0.1164  0.0744 -0.1598
27720W        W83961  14.250   2.419   7.493 -0.0962 -0.1126 -0.2919
27721W        W83962  18.186  13.685   2.007 -0.1838 -0.3177 -0.0702
27722W        W83963  32.528  33.686  21.835 -0.1273 -0.1219  0.1188
27723W        W83964   4.418   9.137   4.165 -0.2263  0.0714  0.0788
27724W        W83965  33.295  18.847  25.556  0.1656  0.2190 -0.2928
27725W        W83966   8.901   8.365   3.637  0.1065  0.1650  0.0843
27726W        W83967  30.520   6.840   0.997 -0.0569 -0.0724  0.2883
27727W        W83968  15.292  19.524  14.673 -0.0097  0.2320  0.1134
27728W        W83969   1.291  34.003   1.342 -0.2305  0.2142  0.1950
27729W        W83970  26.029  19.348  22.424  0.0855 -0.2162 -0.0575
27730W        W83971  16.507  25.999   6.197  0.0503 -0.1718 -0.0895
27731W        W83972  27.485   0.476  17.997 -0.1763 -0.0861  0.1014
27732W        W83973   6.716  11.744  22.012  0.2003  0.0082  0.1320
27733W        W83974  14.425  19.307  25.547  0.0919 -0.1629  0.0506
27734W        W83975   0.947   8.166  24.809  0.0846 -0.0625 -0.2268
27735W        W83976   8.943   1.542   4.183  0.0934  0.1756 -0.0144
27736W        W83977  22.713   2.260   2.667  0.1371 -0.1302 -0.1963
27737W        W83978  24.951   0.697   2.091 -0.0587 -0.3680  0.0107
27738W        W83979  25.689  28.654  16.813  0.0890  0.2833  0.0658
27739W        W83980  17.041   2.324  11.298  0.0837  0.0758  0.3678
27740W        W83981  31.749   3.724  13.827  0.0365  0.0044  0.0233
27741W        W83982  32.849  13.542  21.113 -0.1299 -0.0088 -0.1343
27742W        W83983  18.746  28.785   0.722  0.1455  0.2008 -0.3833
27743W        W83984  20.162   6.556  17.206 -0.0355 -0.1074  0.0841
27744W        W83985  33.375  24.118  11.559  0.0846  0.1603  0.0384
27745W        W83986  20.524  27.795  23.127  0.0479  0.5033  0.0832
27746W        W83987  31.766   3.427  24.002  0.1136  0.2510 -0.4075
27747W        W83988  28.251   0.450  10.566  0.2841  0.1050  0.1679
27748W        W83989  27.534   1.438  16.934  0.1342  0.1877  0.1525
27749W        W83990  25.081  22.488  14.842  0.2336  0.1107 -0.0868
27750W        W83991  28.479  35.181   6.174  0.2352  0.0068 -0.0871
27751W        W83992   7.845   8.367  11.118 -0.0863  0.1510  0.0502
27752W        W83993  17.975  11.073   5.770  0.1137  0.0542 -0.0689
27753W        W83994  20.461   5.226   4.747 -0.2473 -0.0688 -0.0418
27754W        W83995  19.085  29.785   3.026 -0.2631  0.0293  0.0096
27755W        W83996  19.714  10.911  21.521  0.0299  0.0568 -0.0881
27756W        W83997  28.307  25.033   0.985 -0.0726  0.0526  0.0154
27757W        W83998  15.660  14.385  22.999 -0.0253  0.1670  0.0697
27758W        W83999  15.738   2.987   4.538  0.1124 -0.0257  0.0821
27759W        W84000  28.663  31.021  13.233  0.1001  0.0576  0.3185
27760W        W84001  11.206  11.141   5.058 -0.0519 -0.2945  0.2197
27761W        W84002  26.486   4.574   2.759  0.1449  0.0181 -0.3619
27762W        W84003  10.969  19.548  13.566 -0.2818 -0.1714  0.0317
27763W        W84004  24.013  12.735  22.262  0.0219 -0.4938  0.1165
27764W        W84005   9.196  23.044  10.632  0.3281 -0.1726  0.1270
27765W        W84006  26.434  27.383   1.005  0.0841 -0.2069 -0.1918
27766W        W84007  32.222  15.814  17.342  0.2333 -0.0417 -0.2018
27767W        W84008   8.374   5.292  13.405  0.1618  0.0398  0.0479
27768W        W84009   1.651   8.289  16.166 -0.0979 -0.1355  0.0321
27769W        W84010  14.890   2.455   5.369 -0.0563  0.1009  0.1408
27770W        W84011   2.879   2.937   8.474 -0.0725 -0.1149 -0.1897
27771W        W84012   4.265  17.680   1.116 -0.0450 -0.0018 -0.0189
27772W        W84013  15.852  23.080  25.928  0.2314  0.0184  0.0672
27773W        W84014  14.033  18.759   7.961 -0.0470 -0.0506 -0.1295
27774W        W84015  28.972  11.486   7.899 -0.1773 -0.1377 -0.1043
27775W        W84016  11.998  22.567  11.800  0.2506 -0.0555 -0.0037
27776W        W84017  19.481  30.856  17.606  0.0860 -0.2250 -0.0435
27777W        W84018   7.419   7.997   2.138 -0.1338 -0.1342 -0.0518
27778W        W84019  33.292   4.730  17.209 -0.2718  0.0136 -0.0632
27779W        W84020   1.042  35.008  19.431 -0.0282  0.0190  0.0228
27780W        W84021  11.741  20.489   6.575  0.3926 -0.3463 -0.0385
27781W        W84022  21.978  19.911  19.112 -0.0041 -0.0516  0.1073
27782W        W84023  22.047   7.781  21.256  0.1021 -0.1804  0.2342
27783W        W84024  30.488  22.977  10.191  0.0963 -0.4600 -0.0601
27784W        W84025  18.871  19.620   9.674  0.2585 -0.3852 -0.0100
27785W        W84026  29.207  33.963  18.349  0.3404  0.0810  0.0359
27786W        W84027   7.063  34.304  13.174 -0.0522  0.0978  0.4412
27787W        W84028  25.627   3.078   4.031  0.1446  0.1271  0.0419
27788W        W84029  24.031   4.818  20.475 -0.0474 -0.0359  0.2133
27789W        W84030  11.656  20.669  12.311  0.0188 -0.3801 -0.0036
27790W        W84031   8.388   9.587  21.622 -0.2024  0.0696 -0.1979
27791W        W84032  20.074   8.389   7.010 -0.3096 -0.0937  0.0713
27792W        W84033   3.296  11.330  16.059  0.3399  0.2991  0.1674
27793W        W84034  28.572  26.556  18.122  0.2276  0.1604  0.0913
27794W        W84035   1.617  34.322  25.543 -0.0265  0.1044 -0.1442
27795W        W84036  15.261   5.514  24.755  0.1314 -0.0932 -0.0212
27796W        W84037  33.460  18.554  11.889  0.5361 -0.0822 -0.0195
27797W        W84038  12.447  14.386  21.794 -0.0868 -0.3499  0.0459
27798W        W84039   3.988  15.177   3.806  0.2504 -0.0026 -0.0135
27799W        W84040   2.897  22.433  17.654 -0.3961 -0.0869  0.0828
27800W        W84041  29.983  27.067   9.134  0.1011 -0.2381  0.0183
27801W        W84042  21.540  13.841  21.231  0.1507  0.1251  0.0071
27802W        W84043  12.811  32.923  11.022 -0.0283  0.0281 -0.0050
27803W        W84044  17.284  16.836   6.494 -0.0513 -0.1508  0.0214
27804W        W84045  30.878  30.043   4.080  0.3674 -0.2261  0.0213
27805W        W84046  15.021  14.260   8.725 -0.1893  0.0040 -0.0265
27806W        W84047   8.732  29.590  22.167 -0.0663  0.0917  0.0036
27807W        W84048  19.373   7.250  26.026  0.0258  0.0992 -0.0397
27808W        W84049   8.897  11.025   3.074  0.2309  0.0538  0.2406
27809W        W84050  28.380   0.536  17.554 -0.2318  0.0471 -0.0571
27810W        W84051  23.705  34.643  14.643  0.0370 -0.2092  0.2926
27811W        W84052  10.297  34.269  23.911  0.0819  0.2155 -0.0792
27812W        W84053  19.966  27.699   5.620  0.1159  0.0375  0.2337
27813W        W84054   9.850  24.296  22.810  0.2934 -0.1794  0.0225
27814W        W84055  17.794   9.818   7.014  0.0951  0.2098  0.1100
27815W        W84056  16.940   2.021   3.849  0.0952  0.0391 -0.0454
27816W        W84057  21.652   1.424  24.656  0.1098  0.1677  0.1375
27817W        W84058   8.400   6.932  18.346 -0.2250  0.0751 -0.0322
27818W        W84059  18.493   6.728   8.850 -0.1473 -0.1064 -0.0629
27819W        W84060  13.893   7.842  20.866  0.0366 -0.2779 -0.4238
27820W        W84061  12.737  23.990  23.482  0.4262  0.3767 -0.1069
27821W        W84062  14.178   2.584  21.553 -0.1299  0.3454  0.3661
27822W        W84063   6.878  30.201   8.897 -0.0763 -0.1973  0.1776
27823W        W84064  17.036  32.949  23.146 -0.0011 -0.0337 -0.2710
27824W        W84065   7.477  33.328  15.730  0.0271 -0.5223 -0.0786
27825W        W84066  20.875  15.734  17.045  0.1556 -0.2596 -0.2083
27826W        W84067  11.809   3.987   8.485 -0.0191  0.2290 -0.3181
27827W        W84068  11.005  15.819   7.111  0.2428  0.5266  0.0546
27828W        W84069   7.707   0.796   6.577 -0.2136 -0.0456  0.0172
27829W        W84070   2.919  26.984   5.450  0.1786  0.0108  0.0424
27830W        W84071   8.285  26.703  12.734  0.0068  0.0740 -0.0892
27831W        W84072  28.086   7.553  15.024  0.0395 -0.4047  0.0819
27832W        W84073   1.966  29.429   8.785 -0.3374 -0.1332  0.1109
27833W        W84074  17.092   0.652  16.644 -0.2848 -0.0684 -0.1371
27834W        W84075  13.468   1.359   3.372 -0.0533 -0.1419 -0.2205
27835W        W84076  24.752  27.517  20.718 -0.1317 -0.0476 -0.2177
27836W        W84077   0.659   0.071  17.825 -0.0031 -0.3407  0.0380
27837W        W84078   7.092   8.029   0.291 -0.2905 -0.4242  0.2242
27838W        W84079   3.917  30.298  24.642  0.0921 -0.1318 -0.2599
27839W        W84080  23.463  22.929  16.858  0.0808  0.1031  0.2899
27840W        W84081   1.883  29.141   7.802  0.1165  0.1850 -0.1817
27841W        W84082   3.498  13.664   3.025  0.1482 -0.5231  0.0011
27842W        W84083   8.135  20.618  10.526  0.2094 -0.1552  0.0403
27843W        W84084   9.811   1.995  20.327 -0.2482 -0.5022  0.0757
27844W        W84085  22.468  13.775  23.702 -0.0028  0.1563  0.0971
27845W        W84086  15.094  12.768   1.477  0.0226  0.2598  0.1774
27846W        W84087  25.814  25.900  10.212 -0.0458 -0.2071  0.2412
27847W        W84088   2.090  15.958   3.858 -0.3909  0.0089  0.1076
27848W        W84089  14.269  33.950  21.365 -0.2838  0.0636 -0.0959
27849W        W84090  31.276  33.884   1.097 -0.1398 -0.1011 -0.2091
27850W        W84091  17.753  34.958  23.592  0.1797  0.2725 -0.0299
27851W        W84092  13.413   5.476  11.250 -0.1255 -0.0170  0.6379
27852W        W84093  10.378   9.205  24.526 -0.1696 -0.0514 -0.0352
27853W        W84094  32.636  26.044  13.340  0.3476 -0.2865 -0.0030
27854W        W84095  29.407  30.125  18.109 -0.0151  0.0562  0.0406
27855W        W84096   9.152  25.541  12.625 -0.2082  0.0184 -0.0066
27856W        W84097  18.411  13.261  21.153  0.2035 -0.1668  0.3954
27857W        W84098  33.284  30.703  22.957  0.1351 -0.1104 -0.1233
27858W        W84099  18.039   2.957  24.568 -0.2976 -0.3435 -0.1549
27859W        W84100  14.157   8.422  20.074  0.0264 -0.0186 -0.2143
27860W        W84101   4.051  29.789  12.918 -0.1802 -0.1503 -0.0931
27861W        W84102   6.325  29.581  25.901  0.0420 -0.2883  0.0985
27862W        W84103  30.624  27.296  22.431  0.2052 -0.1290  0.0395
27863W        W84104  12.775   2.966  25.136  0.0802  0.2395 -0.1007
27864W        W84105  27.035  19.949  23.493  0.4134  0.0780  0.0029
27865W        W84106  29.968   1.581  24.333  0.0725  0.2549 -0.1168
27866W        W84107  15.399   1.518   7.732  0.1646  0.0127 -0.1570
27867W        W84108   8.274  29.883  12.687 -0.1811 -0.2495  0.0345
27868W        W84109  20.704   5.915  21.730  0.1958 -0.0005 -0.3397
27869W        W84110  26.468  11.122  25.207  0.1649 -0.2385  0.0624
27870W        W84111  13.698  15.460  11.074 -0.0579  0.1820 -0.0346
27871W        W84112  33.260  16.893  10.472 -0.0362 -0.0974 -0.0472
27872W        W84113  28.993  16.497  11.200  0.0727 -0.0035  0.2128
27873W        W84114   0.457  11.948  21.312 -0.1085 -0.1219 -0.0430
27874W        W84115  11.562   5.557  22.914  0.1371  0.2598 -0.2065
27875W        W84116  25.346  22.361  21.861 -0.2339  0.0448  0.0369
27876W        W84117   1.263  32.171   4.056 -0.0701  0.3730  0.0838
27877W        W84118  23.784   0.008  17.117 -0.0372 -0.0555 -0.1808
27878W        W84119  31.365   6.334  18.457 -0.0754  0.0809  0.0020
27879W        W84120  16.310   1.676  22.030  0.4279  0.0995  0.1586
27880W        W84121  13.838  11.310  11.484 -0.0044 -0.0611 -0.0655
27881W        W84122  14.696  31.675   7.813  0.0144  0.1832  0.0039
27882W        W84123  29.567  18.318  12.064 -0.2031 -0.1942 -0.4047
27883W        W84124   6.863   0.536  12.728  0.1136 -0.3680  0.0956
27884W        W84125  21.922  17.862  23.540 -0.1047 -0.0204  0.2545
27885W        W84126   1.390  22.115   2.079  0.0300 -0.2076  0.2088
27886W        W84127  29.813  24.839  11.080 -0.2861  0.0149 -0.0870
27887W        W84128  14.782   9.369   1.941 -0.2345 -0.0818  0.0729
27888W        W84129  30.948  16.218   5.627  0.0542  0.0511  0.0273
27889W        W84130  19.000  27.413  22.598 -0.1649  0.1248 -0.2771
27890W        W84131  18.122   7.452   8.421 -0.1719 -0.3334  0.2070
27891W        W84132  33.137   4.736  16.310  0.0713 -0.2364 -0.0419
27892W        W84133  20.180   2.671  20.389  0.1553 -0.1735 -0.0403
27893W        W84134  34.558   4.366  17.926 -0.0008 -0.2855  0.1000
27894W        W84135  29.374  20.034  14.229 -0.1519  0.1829 -0.1896
27895W        W84136  19.758   9.271  21.473  0.1769  0.2931  0.2540
27896W        W84137  28.916   3.061   2.091 -0.2102  0.1526  0.1285
27897W        W84138  24.545  31.608  11.837  0.1060  0.1529  0.2946
27898W        W84139  16.987  20.549  10.651 -0.0119 -0.0388  0.0455
27899W        W84140  15.127  29.995  24.682  0.1315 -0.1357  0.0242
27900W        W84141  28.492  32.766  24.386  0.0197 -0.0674  0.2540
27901W        W84142   0.167  19.944  16.247  0.0222  0.1377  0.0112
27902W        W84143  26.396  28.317  12.425  0.1767  0.0259 -0.0875
27903W        W84144  34.701   4.793  24.482 -0.0932  0.1738  0.0918
27904W        W84145  28.632  15.145  10.909 -0.0791 -0.0231 -0.0926
27905W        W84146   2.915  15.830  16.260 -0.2454 -0.1758  0.1069
27906W        W84147  33.514   3.356   6.550  0.3428 -0.1059 -0.1192
27907W        W84148  11.667  23.150   9.859  0.0567 -0.1449 -0.1430
27908W        W84149   8.148  32.235  15.675 -0.1542 -0.0603 -0.3213
27909W        W84150  20.577  21.354  26.217  0.0048  0.1376 -0.1877
27910W        W84151  26.621   5.413  11.209 -0.0574 -0.0487 -0.2372
27911W        W84152  27.060  11.362  16.322 -0.0469  0.2413 -0.1071
27912W        W84153  29.273  33.520  15.126  0.4480  0.2879  0.1045
27913W        W84154  22.745  30.194  17.521  0.0142  0.2383  0.2517
27914W        W84155  28.267  21.395   9.443  0.5585  0.0676  0.0173
27915W        W84156  34.184   8.872  11.822  0.0661 -0.2057 -0.1745
27916W        W84157   1.320  21.736  18.416 -0.2445  0.2296  0.0022
27917W        W84158   7.810   1.869  12.107  0.1194  0.0245  0.1688
27918W        W84159  20.073  29.586  25.264 -0.2453  0.0663 -0.0341
27919W        W84160  26.649  34.405  21.627  0.0466  0.2465 -0.0485
27920W        W84161  26.976   5.609  25.341  0.0454  0.1453  0.1600
27921W        W84162   3.206  11.680   5.677  0.1420 -0.2401 -0.1719
27922W        W84163  15.360  14.581  14.427 -0.2032  0.2065  0.1478
27923W        W84164   2.020  34.806   8.240  0.2428  0.3095  0.0529
27924W        W84165  19.273  17.029   1.086 -0.2286 -0.0290 -0.1896
27925W        W84166  22.999   3.793   5.903 -0.1320 -0.0285 -0.1695
27926W        W84167  16.814  29.626  24.951  0.0044 -0.0211 -0.0292
27927W        W84168  31.303  28.394  12.325 -0.1144 -0.1270  0.5252
27928W        W84169  25.605   2.215  17.503 -0.1695  0.1038 -0.2501
27929W        W84170  24.852   4.806  15.580 -0.5448  0.0670 -0.0010
27930W        W84171  32.296  19.558  25.766 -0.1915  0.3684 -0.0170
27931W        W84172  19.661  19.986   1.487  0.1846 -0.0926 -0.2164
27932W        W84173  22.431  11.945  23.458  0.1057 -0.0307  0.3080
27933W        W84174  23.263  16.780  14.680  0.2373 -0.3685 -0.1596
27934W        W84175  11.411  18.243   8.761  0.1046 -0.3414 -0.3351
27935W        W84176  14.482   0.178   7.784  0.0648 -0.3971 -0.1704
27936W        W84177   2.822  11.123   2.388  0.0370  0.1155  0.0771
27937W        W84178  12.644   1.829  22.311 -0.2548  0.1710  0.3443
27938W        W84179   9.427  28.736   1.793  0.0230 -0.0448 -0.1476
27939W        W84180  15.894  10.249  19.931 -0.0595  0.0490 -0.1207
27940W        W84181  33.979   7.137  14.429 -0.0730 -0.0119  0.0477
27941W        W84182  17.938   1.597   1.138  0.0134  0.0236 -0.1538
27942W        W84183  31.606  26.691  21.451 -0.0147  0.0224  0.0058
27943W        W84184   9.469  33.415   4.717  0.1091 -0.2069 -0.0412
27944W        W84185  34.166  16.809  19.548 -0.0479  0.3114 -0.0251
27945W        W84186  12.510   3.444   5.429 -0.0776 -0.1728  0.0462
27946W        W84187  12.585  27.798  16.175 -0.1145  0.3523 -0.3784
27947W        W84188   8.527  26.414  22.076  0.2728  0.1917  0.0248
27948W        W84189   1.087   2.727  21.529  0.0366 -0.0083 -0.1773
27949W        W84190  12.823   5.427   4.882  0.0507 -0.2173  0.2197
27950W        W84191   1.826  13.961   1.142 -0.0291 -0.0512 -0.2862
27951W        W84192  11.834   3.256  13.834  0.0617  0.0979 -0.2120
27952W        W84193   0.304  19.848  20.032 -0.0593  0.1118  0.0277
27953W        W84194   6.469  17.658   3.646  0.0914 -0.0261  0.3065
27954W        W84195  21.861  17.747  20.581 -0.1434 -0.1630 -0.1309
27955W        W84196  18.854   6.983  26.176  0.1879  0.0635 -0.1632
27956W        W84197   4.621  20.275  18.081 -0.1151  0.0525 -0.2321
27957W        W84198  33.698  32.270  20.877 -0.2825 -0.2429 -0.2358
27958W        W84199  20.514  31.898  16.171  0.1296 -0.2396  0.5130
27959W        W84200   5.175   6.324   1.467  0.0999  0.0780 -0.0398
27960W        W84201  33.949  19.651   8.721 -0.2908  0.3209  0.0760
27961W        W84202  25.862   9.296  25.496 -0.1585 -0.0970 -0.0382
27962W        W84203  15.420  26.088   9.472  0.0612 -0.0532 -0.0615
27963W        W84204  17.383   4.815   2.647 -0.1064 -0.0100 -0.0196
27964W        W84205  14.077  25.453  26.210 -0.0357 -0.1403 -0.2152
27965W        W84206   2.325  34.038  20.856  0.0552  0.0376 -0.0020
27966W        W84207   5.631  17.451   4.970 -0.0120 -0.2682 -0.1573
27967W        W84208  16.382  34.860   1.729 -0.1659 -0.1504  0.5221
27968W        W84209  25.305  20.435  12.429  0.0320 -0.4569  0.0529
27969W        W84210  29.894  26.053  22.168  0.0901 -0.3448  0.1913
27970W        W84211  32.434  32.388  25.841  0.0611  0.1055 -0.0804
27971W        W84212   3.942  28.670  13.089  0.0460  0.1630  0.2253
27972W        W84213  28.410   1.567  19.776  0.2894 -0.0746 -0.0965
27973W        W84214  11.753  10.456  13.769  0.3041 -0.0956  0.2411
27974W        W84215  25.401  32.192  11.690  0.1824 -0.1696 -0.1321
27975W        W84216  25.175  33.538   2.797  0.2057  0.2848 -0.0610
27976W        W84217  22.982  11.589  19.736  0.1311 -0.1199 -0.1644
27977W        W84218   8.273  22.181   2.992 -0.0101 -0.4042  0.2644
27978W        W84219  17.236  13.248   7.001  0.0583 -0.0189 -0.4624
27979W        W84220  35.305  10.733  12.454  0.1989 -0.0675  0.2762
27980W        W84221  27.602   2.706  12.064 -0.0691  0.0651 -0.1882
27981W        W84222  12.087  19.833  21.687  0.2425  0.0373  0.0804
27982W        W84223   1.169   2.932  25.142  0.1159  0.3407  0.0496
27983W        W84224  17.260  18.122   7.418 -0.3285  0.0193 -0.0108
27984W        W84225  34.723  10.756  12.859  0.2452 -0.0421 -0.4080
27985W        W84226  22.551  14.166   2.068 -0.0430  0.2656  0.2658
27986W        W84227   9.368  28.975  25.260 -0.0082  0.0411  0.1020
27987W        W84228  14.350  24.149  12.886  0.1766  0.1539 -0.1476
27988W        W84229  15.203  33.836   6.535 -0.1932 -0.1723  0.0621
27989W        W84230   6.439   1.905   9.860  0.1833  0.0279  0.2211
27990W        W84231  13.927  15.826   3.589  0.2152  0.0357  0.0239
27991W        W84232   1.394  17.530  15.598  0.1171 -0.0300  0.2580
27992W        W84233  23.812  17.477  22.549  0.2509 -0.0731 -0.2422
27993W        W84234  13.916  32.666  22.826  0.1791  0.1512 -0.1270
27994W        W84235   8.108  23.416   8.581  0.1092 -0.0929  0.1861
27995W        W84236   5.093  25.457   7.551 -0.0656  0.0411  0.1419
27996W        W84237   8.868  35.045   8.730  0.1271  0.1102  0.0796
27997W        W84238  29.690  20.892  16.818  0.0584  0.0910 -0.0716
27998W        W84239  33.960   0.255  15.867  0.0581 -0.0738  0.0370
27999W        W84240  35.015  10.001  16.631 -0.0784  0.0611  0.2115
28000W        W84241  17.127  28.538  24.859 -0.0954  0.1647 -0.1014
28001W        W84242   9.091   0.043  15.815 -0.4003  0.2559 -0.1093
28002W        W84243   7.756  15.062   6.987 -0.0833 -0.0941 -0.2224
28003W        W84244  11.119   0.236  23.858 -0.0765 -0.1793  0.2119
28004W        W84245  25.591   6.949  18.851  0.1615 -0.1923 -0.1714
28005W        W84246   9.007   0.005   8.038  0.0246  0.1419 -0.0385
28006W        W84247  33.706  24.098  23.121  0.2393 -0.2203 -0.1063
28007W        W84248   3.346  11.418  23.331  0.0112  0.0206 -0.0502
28008W        W84249   4.564  28.167   2.979  0.0875 -0.1493  0.0966
28009W        W84250   5.270   8.449  17.565  0.2330  0.3889  0.0545
28010W        W84251  18.165   2.320  16.354 -0.2855  0.2146  0.0331
28011W        W84252  15.741  12.375   1.162  0.1459 -0.0394 -0.0217
28012W        W84253  35.252   8.708  15.237 -0.3125  0.0765  0.1274
28013W        W84254  14.583  17.641   0.915 -0.1606  0.0927  0.1688
28014W        W84255  29.372  27.703  10.770 -0.1632  0.0934  0.0206
28015W        W84256  14.780  13.948   5.966 -0.1325  0.2350  0.2198
28016W        W84257  24.609   0.013  20.421  0.2766 -0.1515 -0.2975
28017W        W84258  24.815  20.702  18.117  0.0335  0.1825  0.0258
28018W        W84259  16.145  16.833  20.522  0.0173  0.1363 -0.1580
28019W        W84260  12.162  20.635  25.462 -0.4221 -0.2110 -0.1401
28020W        W84261   5.078  32.630   9.662  0.0646 -0.2613  0.1514
28021W        W84262  11.221  22.775  25.402  0.1285 -0.2144  0.0916
28022W        W84263  14.248  18.105  22.465  0.1168  0.0946  0.1529
28023W        W84264  32.239  33.891  16.588 -0.3400  0.0875 -0.0081
28024W        W84265  18.968   1.629  23.802  0.0263 -0.0378 -0.0030
28025W        W84266   2.234  20.170  15.818  0.2945 -0.4141  0.2954
28026W        W84267  25.657  24.071  25.781 -0.1467  0.1042  0.1228
28027W        W84268   3.069  14.281  18.614 -0.0684  0.0615 -0.3900
28028W        W84269  19.273  34.113  25.809 -0.1912 -0.1273  0.0120
28029W        W84270  20.648  27.446  24.255 -0.1285  0.1436 -0.0074
28030W        W84271  26.227  31.323   1.967  0.0674 -0.0756 -0.0482
28031W        W84272  26.996  27.279  11.450 -0.3895 -0.0279  0.1702
28032W        W84273   0.216   4.275   4.864  0.2668 -0.1972  0.0580
28033W        W84274  10.824   7.380  10.832 -0.1035 -0.0150 -0.2150
28034W        W84275  14.443  21.967  25.886 -0.2274 -0.1128 -0.1914
28035W        W84276  25.581  26.585   3.374 -0.2224 -0.1535 -0.2783
28036W        W84277   7.458  18.439  10.672  0.1570  0.0854 -0.0413
28037W        W84278   3.285  35.021   7.362  0.1565 -0.1903  0.2851
28038W        W84279  11.483  30.202   0.002 -0.0621  0.0108 -0.1824
28039W        W84280   8.745  26.790  13.536  0.1577  0.1973 -0.1755
28040W        W84281  28.901  12.256  25.042 -0.1001  0.1629 -0.0259
28041W        W84282  14.700  18.611  14.252  0.0109  0.1575  0.0554
28042W        W84283  14.341  14.631  20.953 -0.3066  0.0096  0.2360
28043W        W84284   2.440  23.665   0.278 -0.2076  0.3334 -0.1644
28044W        W84285  27.585  13.673  12.214 -0.1394  0.1985 -0.0404
28045W        W84286  34.832  24.771  25.747  0.0485 -0.3648 -0.0784
28046W        W84287  14.589  10.524   1.700 -0.5744  0.0867  0.1855
28047W        W84288  20.029   1.957  14.769  0.0419 -0.0636  0.1739
28048W        W84289  10.598   3.652  23.710 -0.1888 -0.2914 -0.1070
28049W        W84290  27.290  16.691  10.574 -0.3606 -0.3239  0.1213
28050W        W84291  11.371  14.236   3.716  0.2308 -0.0692 -0.1220
28051W        W84292  29.471  16.421   4.840  0.0766  0.1044  0.2037
28052W        W84293  12.976   3.865   3.822  0.3126 -0.0660 -0.0545
28053W        W84294  28.925  21.338  17.381 -0.0577 -0.0951 -0.0622
28054W        W84295  27.783  34.490  16.251 -0.1953 -0.1080 -0.2032
28055W        W84296  17.248   9.029  22.443  0.1939 -0.4396  0.1945
28056W        W84297  10.671  17.445  12.877  0.3988  0.1175 -0.2094
28057W        W84298   6.044  33.080  19.638  0.0845  0.1088  0.0702
28058W        W84299  29.855   8.213  13.701  0.1187 -0.2372  0.0410
28059W        W84300  10.824  21.531   6.670 -0.1166 -0.0590  0.1745
28060W        W84301  18.811  23.318  19.993  0.1623 -0.0154  0.1858
28061W        W84302  18.390   9.079   0.648 -0.1594  0.3222 -0.1038
28062W        W84303   2.406  35.291  24.193 -0.1519  0.0534 -0.0029
28063W        W84304   9.668  24.835   5.676 -0.0903 -0.1943 -0.1024
28064W        W84305  12.180   9.143  14.640 -0.1771 -0.0738  0.1847
28065W        W84306  15.135  18.070  14.643  0.4434 -0.2167 -0.3084
28066W        W84307  18.992   1.139  21.246  0.3348  0.2292 -0.3892
28067W        W84308  21.718  11.710   0.369  0.0296 -0.2634 -0.2828
28068W        W84309   0.227  22.817  18.116  0.1408 -0.1935  0.1037
28069W        W84310  12.021  24.146   3.086  0.1151 -0.2110  0.3520
28070W        W84311  29.129  24.103  22.729 -0.0869  0.1242  0.1825
28071W        W84312  31.749  34.430   5.591 -0.0304 -0.1078 -0.2602
28072W        W84313   9.440   9.055  14.393 -0.1639 -0.0552 -0.3855
28073W        W84314  28.134  28.700  19.196  0.0357 -0.1683  0.0238
28074W        W84315  25.538   5.421  11.990 -0.1278 -0.0981 -0.2576
28075W        W84316   2.646  32.546  25.475  0.0344 -0.2584  0.3334
28076W        W84317   8.731  25.504   9.880  0.1802 -0.0929  0.0325
28077W        W84318   6.661   9.304   2.126  0.1398 -0.1298  0.0610
28078W        W84319  30.789  31.524  24.361 -0.0646 -0.0832 -0.0186
28079W        W84320  11.392   4.891   7.531  0.1560  0.1062  0.0005
28080W        W84321  35.173  18.329  24.241 -0.1018  0.0052  0.0827
28081W        W84322  18.193   6.259  23.162  0.1520 -0.5389 -0.3705
28082W        W84323   4.462  22.157   0.702 -0.2314  0.4254 -0.2715
28083W        W84324  15.577  25.539  12.721 -0.1473 -0.0980  0.2449
28084W        W84325  21.158   1.610   3.292  0.5260 -0.2557 -0.0901
28085W        W84326  33.342  31.944  12.857 -0.2615 -0.1263 -0.0851
28086W        W84327   1.638  29.817   6.542  0.0643  0.0587 -0.0713
28087W        W84328  27.947   5.704  13.840 -0.1950 -0.2666  0.1366
28088W        W84329  22.731  25.336   0.358  0.1366 -0.0966 -0.1271
28089W        W84330  18.562  32.205   3.989  0.3176 -0.2482  0.2170
28090W        W84331  20.226  31.246   0.324 -0.1835 -0.0502 -0.0191
28091W        W84332   3.777   7.085   7.831  0.2792  0.0862 -0.0586
28092W        W84333   2.202   1.642   8.808  0.0523  0.2667  0.2020
28093W        W84334   5.281  16.249  21.027  0.2486 -0.1093  0.0723
28094W        W84335   9.555  29.295  16.653  0.0767  0.0278  0.1252
28095W        W84336  14.024  27.553  10.666 -0.1543  0.1886 -0.0553
28096W        W84337   1.297  34.043  22.363 -0.0628  0.0011 -0.1286
28097W        W84338  22.773   4.856  18.038  0.1759 -0.0972 -0.0117
28098W        W84339  30.985   7.018  21.476 -0.0603  0.0282 -0.0919
28099W        W84340  25.893  22.278  10.107 -0.2369  0.2435  0.0874
28100W        W84341   3.338  11.663  15.680 -0.0339 -0.1191 -0.0686
28101W        W84342  16.596  26.652  12.001 -0.3414 -0.1897 -0.0397
28102W        W84343   0.826  11.180   2.044  0.4312 -0.3065  0.3060
28103W        W84344   2.331  20.028  21.582  0.3022 -0.1614  0.4369
28104W        W84345  24.897   1.614  21.431  0.3950 -0.2818  0.0934
28105W        W84346  16.789  24.065   1.792  0.2218 -0.3154  0.1036
28106W        W84347  10.646   0.080   6.380  0.3862  0.0824  0.0872
28107W        W84348   8.572   7.922  25.942 -0.2661 -0.0932 -0.1335
28108W        W84349   8.632  27.857   4.767  0.0352 -0.0066 -0.2622
28109W        W84350  10.397   6.419   0.290 -0.3371 -0.5316  0.1821
28110W        W84351  17.342  14.132   9.762 -0.1107 -0.0201 -0.1904
28111W        W84352  16.459   4.560  11.862  0.2488 -0.0261  0.0916
28112W        W84353   8.044  32.634  14.420  0.0823  0.3196 -0.1791
28113W        W84354   0.649   8.331   5.283  0.1736 -0.2111  0.0567
28114W        W84355   2.120  15.851  26.245 -0.1615  0.0706 -0.0105
28115W        W84356  11.585  17.140  13.620  0.2124  0.0416 -0.1404
28116W        W84357  23.620  26.670  25.086  0.0025 -0.1525 -0.1067
28117W        W84358  18.424  30.264   1.671 -0.2900 -0.0992 -0.0926
28118W        W84359  21.153   9.593  22.585 -0.0295 -0.0418  0.1557
28119W        W84360  15.418   6.238   6.034 -0.1202 -0.3760 -0.0771
28120W        W84361  20.574  23.840   6.215  0.3130  0.1476  0.1825
28121W        W84362  29.719  28.991  16.612  0.2874  0.0966  0.1825
28122W        W84363  16.174   7.609  13.287 -0.1148 -0.0207  0.1883
28123W        W84364   7.501  11.317  23.898 -0.1123 -0.2304  0.2937
28124W        W84365  33.845  21.406  19.544  0.3730  0.0141 -0.0430
28125W        W84366  11.554  28.437  11.467 -0.1188 -0.1076 -0.0905
28126W        W84367  34.374   8.374   3.212 -0.0673  0.4019  0.2181
28127W        W84368   4.225  16.324  24.514  0.0815 -0.0654  0.0043
28128W        W84369  23.913  21.590  20.993  0.0788  0.1396 -0.1564
28129W        W84370   2.621  29.472  12.764  0.0541 -0.0394 -0.0975
28130W        W84371   1.557   4.750  25.122 -0.2893 -0.0522 -0.1531
28131W        W84372  27.081  29.129  18.859 -0.2430  0.0604 -0.5689
28132W        W84373  34.285  19.405  21.797 -0.4438 -0.1092  0.1010
28133W        W84374  21.008  28.682   4.512  0.0973  0.1119 -0.3346
28134W        W84375   2.617  23.780   3.611  0.1478  0.0695 -0.1013
28135W        W84376  27.054   7.061  15.976 -0.2488 -0.3104  0.0110
28136W        W84377  27.512   5.332   0.048 -0.1621 -0.1900 -0.0153
28137W        W84378   4.625  24.758   5.631 -0.1335 -0.0745 -0.0287
28138W        W84379   1.932  34.211  17.766 -0.2926 -0.1365  0.0281
28139W        W84380  11.107  27.611  14.030  0.3685  0.0854 -0.4524
28140W        W84381  26.841  29.719  17.694 -0.1736  0.0732  0.0384
28141W        W84382  17.631  22.007  20.061  0.1481 -0.1040  0.1910
28142W        W84383  23.773  19.757  18.711 -0.2133  0.1785  0.0439
28143W        W84384   0.898   2.637  18.509  0.1743  0.0656  0.0275
28144W        W84385   2.619  32.691   7.416 -0.2014 -0.1360  0.1838
28145W        W84386  10.773   3.938   4.995  0.3371  0.2982 -0.1580
28146W        W84387  34.646   3.172   1.120  0.0616 -0.1218  0.2332
28147W        W84388  18.805  17.521   9.278  0.0465 -0.0109 -0.0853
28148W        W84389  20.054  22.607  21.085 -0.5047  0.0317 -0.0797
28149W        W84390  10.191   3.062   0.011 -0.1646  0.2898 -0.3232
28150W        W84391   8.424   3.185  20.739  0.0291 -0.0167  0.1182
28151W        W84392   5.094  11.030  16.325 -0.3970  0.0379 -0.0415
28152W        W84393  30.485   0.219   1.730 -0.0368  0.0583  0.0671
28153W        W84394  12.287  23.383   0.655  0.0822 -0.1862 -0.0222
28154W        W84395  33.499  27.232  12.254 -0.0869 -0.1582  0.0678
28155W        W84396  17.387   4.231  16.471  0.2858 -0.0523  0.1271
28156W        W84397  23.743   5.012   3.772 -0.1908  0.1673 -0.0196
28157W        W84398  25.505  16.527   8.515  0.1159  0.1422  0.0191
28158W        W84399   1.809   3.209   0.036  0.0465 -0.0253 -0.2140
28159W        W84400  34.122  21.502  20.688  0.1026 -0.0315  0.2430
28160W        W84401   8.360   4.155   3.436  0.0849 -0.1647 -0.1910
28161W        W84402  31.052   7.822  15.679 -0.0000  0.1535  0.2058
28162W        W84403   7.731  18.643  13.792  0.2726 -0.0310  0.3341
28163W        W84404  31.104   3.747  20.162  0.1282 -0.0582 -0.0655
28164W        W84405  14.412  11.266  25.118 -0.0872  0.2008 -0.3168
28165W        W84406  26.199   8.851  20.922  0.0491  0.1443  0.0620
28166W        W84407  15.365  24.773   6.933 -0.2240 -0.1635 -0.1613
28167W        W84408   7.570  13.327   9.859  0.1486 -0.2447 -0.0180
28168W        W84409  14.627   8.017   9.823 -0.2734  0.1132 -0.1586
28169W        W84410  19.762   1.363   7.944  0.1022  0.2606 -0.4076
28170W        W84411  27.405  20.831  21.313 -0.0333  0.0215  0.1566
28171W        W84412   5.091  26.002  11.480 -0.0277  0.2359  0.0297
28172W        W84413   9.214  11.856  23.059  0.1477  0.4897 -0.3301
28173W        W84414  15.963  31.988   8.125 -0.2002  0.2384 -0.0506
28174W        W84415  34.129   2.667   2.900 -0.2183 -0.1020  0.0542
28175W        W84416   1.466  19.113  24.202  0.0876 -0.0038 -0.0856
28176W        W84417  28.730  22.529  25.407 -0.0713 -0.1114 -0.3354
28177W        W84418  28.407  32.856  17.384  0.0087  0.3769  0.4189
28178W        W84419  24.992   6.036  22.167 -0.1320  0.0231  0.2060
28179W        W84420  10.027   8.829  10.364 -0.1995 -0.1057 -0.0343
28180W        W84421  20.737  24.166  24.003  0.4534  0.2147 -0.4863
28181W        W84422   4.840  28.538   2.683 -0.2120 -0.0739  0.2003
28182W        W84423  25.268   2.587   5.930 -0.0284 -0.1034  0.1348
28183W        W84424   1.203  16.212  25.367  0.0814 -0.1000 -0.2406
28184W        W84425   6.550  27.643  11.375  0.1067  0.0227 -0.1693
28185W        W84426  21.833  35.132   6.695  0.2141  0.1142  0.1143
28186W        W84427  35.317  34.494  20.615  0.0830 -0.0513 -0.0621
28187W        W84428  17.967  28.377   2.578  0.0037  0.1469 -0.0520
28188W        W84429  10.066  24.739  12.501  0.1621  0.0473 -0.0699
28189W        W84430  34.315   8.521  14.267  0.0240  0.2013  0.2389
28190W        W84431  31.936   0.797  15.114 -0.5868 -0.1378 -0.0124
28191W        W84432  10.693  24.507  24.284  0.0520 -0.2612  0.0125
28192W        W84433  29.765   1.546  23.175 -0.3620  0.1433  0.0185
28193W        W84434   7.021  28.718   1.260 -0.0885  0.0829 -0.0603
28194W        W84435  29.581   0.083  15.292  0.2306 -0.1563 -0.5166
28195W        W84436   8.085   9.120  25.475  0.0377 -0.0875  0.1248
28196W        W84437   6.190   7.419   8.175 -0.2365  0.0935 -0.0400
28197W        W84438   3.408  22.009   3.817 -0.2137  0.2918  0.1718
28198W        W84439   6.537  26.780   8.660  0.1153 -0.2214  0.1565
28199W        W84440  23.984  28.691  14.211  0.0068  0.0793 -0.1763
28200W        W84441  27.934  31.822  15.022 -0.2149 -0.0666  0.2307
28201W        W84442  20.022  31.697   8.320  0.0800  0.3455  0.0483
28202W        W84443   2.534  27.726   6.148  0.2203  0.2638  0.0694
28203W        W84444  15.094  23.021   3.467 -0.0547  0.2759 -0.1512
28204W        W84445  12.779   5.579  12.121 -0.2010  0.0878  0.3106
28205W        W84446  29.372   1.635  15.447 -0.4588  0.2119 -0.1140
28206W        W84447  10.118  24.259   3.814 -0.0458 -0.1372 -0.2188
28207W        W84448  19.278  21.505   7.935 -0.0156  0.1943  0.0284
28208W        W84449  30.667   9.062   9.126  0.1254 -0.1439  0.1563
28209W        W84450  10.003  23.721   2.988 -0.0117 -0.2447  0.0741
28210W        W84451  28.021   3.903  18.626  0.2694  0.0283  0.1346
28211W        W84452  22.271   9.329  20.512  0.0724  0.1395 -0.2074
28212W        W84453  28.760   1.035  13.376 -0.0668 -0.2361 -0.1966
28213W        W84454   0.916  11.259  23.259 -0.0632 -0.0328  0.0897
28214W        W84455  34.821  16.270  22.218  0.2552  0.2280  0.0785
28215W        W84456  30.147   7.303  20.884  0.0590  0.0237 -0.0516
28216W        W84457   5.074  18.472   2.172  0.2197  0.1104  0.0070
28217W        W84458   9.683  27.101   7.113  0.0027 -0.1599 -0.2116
28218W        W84459  27.178  29.578   3.320 -0.0255  0.1840  0.0174
28219W        W84460  30.806  14.247   9.291  0.1331 -0.0229 -0.0325
28220W        W84461  28.311  33.957  21.660  0.0726  0.0638 -0.3433
28221W        W84462  16.541  11.842  25.231  0.0137 -0.1417  0.3821
28222W        W84463  27.538  20.626  24.190  0.0419 -0.0693 -0.1160
28223W        W84464  22.730   3.104   0.106 -0.3519  0.0953  0.1140
28224W        W84465  22.672   4.436  19.365  0.2154 -0.0095  0.0711
28225W        W84466  22.508  25.047  26.004 -0.0102  0.1114 -0.0669
28226W        W84467  32.054   5.295  20.708 -0.1261  0.0093 -0.1240
28227W        W84468  12.901  13.057  21.765  0.1345 -0.1637 -0.1607
28228W        W84469  33.942  13.698  22.219  0.0143 -0.0314 -0.0957
28229W        W84470  24.150   2.002  16.175 -0.3460 -0.1204  0.0432
28230W        W84471  25.532   7.367  24.844  0.3248 -0.1098  0.1439
28231W        W84472  11.919  26.173   5.064 -0.0485  0.0469 -0.0684
28232W        W84473  34.705  13.613  14.960 -0.1192 -0.0335  0.0846
28233W        W84474  11.809  29.721  23.069  0.0097  0.0103  0.2549
28234W        W84475  30.257  34.133  17.710 -0.0593  0.0663 -0.0844
28235W        W84476   7.551  15.981   6.674  0.1076 -0.2965  0.3609
28236W        W84477   1.034   6.288  12.896  0.0843  0.0452 -0.5620
28237W        W84478  32.598  12.232  19.322 -0.0496  0.1161 -0.1734
28238W        W84479  13.162   7.604  13.790  0.1029 -0.0543 -0.4862
28239W        W84480  30.217   0.795   0.590  0.1168 -0.3990 -0.0166
28240W        W84481  26.247   4.506  26.055  0.1736  0.1161  0.0001
28241W        W84482  28.650  21.029   9.533 -0.1334  0.1300  0.2608
28242W        W84483  15.404  31.164   3.697 -0.0521 -0.1633  0.2388
28243W        W84484  15.511  10.408   6.898  0.4300  0.1336 -0.0038
28244W        W84485  23.098   6.262  17.385 -0.1820 -0.2549 -0.0324
28245W        W84486  34.921  25.713  19.590  0.1800 -0.1052  0.1350
28246W        W84487  15.028  22.253  24.067 -0.0646  0.0271  0.1954
28247W        W84488  12.638  22.892  22.791  0.2111 -0.0444  0.0876
28248W        W84489   7.122  31.129  13.774  0.0985 -0.1513 -0.2789
28249W        W84490  13.395  26.067  25.690 -0.0997  0.1021 -0.3245
28250W        W84491  24.015  29.295  20.017 -0.1026 -0.0169 -0.0702
28251W        W84492  11.824  31.274   1.959  0.1845  0.1981 -0.1768
28252W        W84493  14.629  11.607   8.192  0.0274  0.1013  0.0929
28253W        W84494   1.362  16.500  12.810  0.2695 -0.1746 -0.0178
28254W        W84495  15.374  21.812   1.780  0.0428  0.4567  0.1116
28255W        W84496  29.004   3.704  19.799 -0.0020 -0.1754 -0.0636
28256W        W84497  30.624  33.664   4.582  0.2527 -0.1932  0.1830
28257W        W84498  20.028  33.063  20.087  0.1537  0.2427 -0.1296
28258W        W84499  16.262  16.194  22.164  0.0769  0.1222  0.0305
28259W        W84500  24.221  17.305  22.108  0.3184 -0.1306  0.1274
28260W        W84501  30.052  27.857   3.462 -0.0206 -0.0002 -0.0199
28261W        W84502  18.373  25.163   9.260 -0.0935  0.0434 -0.2795
28262W        W84503   0.192  33.662  17.244  0.0400  0.0137  0.1161
28263W        W84504  26.823  31.065  13.591  0.0196  0.3640  0.1398
28264W        W84505   6.714  12.320  11.411 -0.1050 -0.1325  0.2765
28265W        W84506  31.844  28.753  14.449 -0.3137 -0.2281  0.3820
28266W        W84507   7.536   6.640  26.192  0.1552 -0.1824  0.0009
28267W        W84508  22.357   5.832   6.313 -0.0475 -0.2582 -0.0375
28268W        W84509  12.633   7.259  10.646 -0.1885 -0.2492  0.2485
28269W        W84510  18.393  24.507  23.436 -0.2061  0.2210 -0.1442
28270W        W84511  11.202   3.660   7.690 -0.0649  0.0836  0.0718
28271W        W84512  32.859   7.055   3.177 -0.1178  0.0931 -0.1170
28272W        W84513  14.534  16.221   8.637  0.0768  0.1352 -0.0309
28273W        W84514  32.203   3.873  16.039  0.1903 -0.1106 -0.0760
28274W        W84515  25.052  24.210  23.478  0.0412 -0.1438 -0.1571
28275W        W84516   4.166  34.333  20.015 -0.3154  0.0170 -0.0055
28276W        W84517  33.293  17.070   8.625  0.5042  0.2224  0.1716
28277W        W84518  13.004  25.224   7.377  0.0438  0.2217 -0.0292
28278W        W84519  12.716   7.738   5.390 -0.1992  0.4472  0.0054
28279W        W84520   9.222  32.223   5.837 -0.0802  0.0934  0.1118
28280W        W84521   6.122   5.428  10.436  0.2353  0.2303 -0.1037
28281W        W84522  14.367  15.812   9.080  0.0188  0.1639 -0.1086
28282W        W84523  16.860   3.204   1.496 -0.1627  0.2140  0.0040
28283W        W84524  34.301   6.169  20.775  0.3449  0.0880  0.2691
28284W        W84525  17.113  15.987  20.592  0.0851 -0.2814 -0.0756
28285W        W84526  31.359  35.170  12.127 -0.1886 -0.3516  0.1973
28286W        W84527  24.198   2.840   4.278 -0.0526  0.4619  0.2520
28287W        W84528  22.412  31.567   5.631  0.0167  0.1114 -0.0587
28288W        W84529  17.746  26.812   7.324  0.0857 -0.2840 -0.0804
28289W        W84530  11.250   1.799  14.544 -0.2351  0.1041 -0.3394
28290W        W84531  13.593  21.207  12.317  0.0188  0.3252  0.0373
28291W        W84532  25.408  32.234  13.391  0.0905  0.0538  0.1756
28292W        W84533  29.202  22.592  17.855 -0.0078 -0.1628  0.0652
28293W        W84534  23.627  22.359  14.614 -0.1789 -0.0086  0.3519
28294W        W84535  31.643  24.916  15.912  0.1969  0.1647 -0.0991
28295W        W84536  30.324  18.207  20.671  0.1014 -0.0061 -0.3730
28296W        W84537  18.729  14.313  23.271 -0.5699 -0.0188 -0.0519
28297W        W84538  21.714  26.904  18.502 -0.1097  0.2801 -0.1331
28298W        W84539   7.376  17.067  21.780  0.0155  0.0100  0.1983
28299W        W84540   0.596  34.565  18.091 -0.2605 -0.0615  0.0051
28300W        W84541  18.873  30.385   4.729  0.4246  0.1324  0.1363
28301W        W84542  25.013   2.478  25.255 -0.1332 -0.0352 -0.1840
28302W        W84543   5.069  34.042   5.871  0.1322 -0.3383 -0.3433
28303W        W84544   7.982   7.665  12.398  0.1063 -0.2105 -0.4041
28304W        W84545   1.737  22.218  16.897 -0.1186  0.1058 -0.2329
28305W        W84546  20.456  16.526  21.882 -0.1333  0.0480  0.1722
28306W        W84547  21.857  10.477   3.870 -0.3467  0.1463 -0.2748
28307W        W84548  33.105  13.889  12.665 -0.2049  0.0055  0.1224
28308W        W84549  14.928  32.822  24.865  0.5870  0.0148  0.1534
28309W        W84550   1.544   9.843  15.283 -0.0046  0.0831  0.0258
28310W        W84551  22.351   2.023   5.795  0.3466 -0.0398  0.0868
28311W        W84552  24.783  24.221  13.804 -0.0504  0.0017 -0.1880
28312W        W84553   2.255   2.983   1.614 -0.2107  0.0658  0.0538
28313W        W84554  20.537  13.644  20.510  0.0850 -0.1080 -0.1219
28314W        W84555  15.760  11.807  21.376 -0.0059 -0.6335 -0.4598
28315W        W84556  29.301   4.115   2.403 -0.3753 -0.1111 -0.2537
28316W        W84557   5.745   8.446   0.135 -0.0292 -0.0281 -0.1409
28317W        W84558   0.943   1.460  24.820  0.0740  0.1278 -0.1808
28318W        W84559  30.428  27.489  20.386 -0.1116 -0.3141 -0.0538
28319W        W84560  13.467  26.427  14.003  0.0245  0.1242  0.0866
28320W        W84561  14.768  26.170  14.167 -0.1491  0.2516  0.1650
28321W        W84562  28.294  34.690  21.213 -0.2796  0.0379 -0.2317
28322W        W84563  15.324  21.118   2.381  0.1563  0.4661 -0.2346
28323W        W84564  19.913  15.329  17.917  0.0322 -0.0848 -0.1323
28324W        W84565  10.417  22.994   6.411 -0.3696  0.0683 -0.3267
28325W        W84566   6.598  21.376   2.829  0.2019  0.1142 -0.1693
28326W        W84567  34.790   4.091  14.565 -0.1331  0.4034  0.0967
28327W        W84568  15.067  17.346   4.781  0.1843  0.1435 -0.0211
28328W        W84569   9.183  24.098  13.310  0.0759 -0.2997  0.0766
28329W        W84570  34.471  24.221  24.117  0.2809  0.1663  0.2777
28330W        W84571   9.489  12.977  21.500 -0.1333 -0.0990 -0.1835
28331W        W84572  11.700  35.182  20.505 -0.2681  0.1207  0.0977
28332W        W84573  10.842  20.576  17.110  0.1738 -0.0546  0.0496
28333W        W84574   4.718   9.374  23.059  0.0475  0.0951 -0.0332
28334W        W84575  25.204  28.296  26.000  0.4128  0.1553 -0.2436
28335W        W84576   5.529  17.707   4.078  0.0812 -0.1355 -0.2008
28336W        W84577  24.065   4.363   3.136 -0.3074 -0.0993  0.1848
28337W        W84578   0.347  30.706  20.703 -0.1107 -0.0138  0.1831
28338W        W84579  22.253   8.952  25.632 -0.2389  0.1524  0.0568
28339W        W84580  16.299  19.438   9.716 -0.1992  0.1349  0.3093
28340W        W84581   0.726  26.752  17.156  0.1340  0.0597  0.0337
28341W        W84582  33.335   5.555  18.953 -0.1514  0.2229  0.1484
28342W        W84583  26.011   7.798  18.555  0.1662 -0.0657 -0.1964
28343W        W84584  33.876  21.115   9.528 -0.0138 -0.2269  0.4637
28344W        W84585  26.278  33.368   2.023  0.0672  0.2648  0.2312
28345W        W84586  21.194  27.794  21.387  0.0130 -0.0909  0.1227
28346W        W84587  31.916  24.334  18.525 -0.0340 -0.2210  0.2267
28347W        W84588  22.354  15.226  20.692  0.0906  0.1862  0.0893
28348W        W84589   2.722  10.413  21.063 -0.1913 -0.2511  0.1618
28349W        W84590  23.493  28.807   2.682 -0.0551  0.1549  0.1808
28350W        W84591  13.630  29.738   0.511 -0.1682  0.1646 -0.0326
28351W        W84592  20.458  14.685  22.794 -0.0856  0.2077 -0.1794
28352W        W84593  26.246  31.949  13.967  0.2172  0.0630 -0.0991
28353W        W84594  15.069  25.358  12.557 -0.2351 -0.0640 -0.3256
28354W        W84595  32.371  18.783   8.474  0.2887  0.0363  0.1021
28355W        W84596  12.103  27.641   6.820  0.2512  0.0069  0.1463
28356W        W84597  28.777  12.726  15.413  0.1605 -0.0007  0.1265
28357W        W84598  34.633  12.959  12.589  0.1208 -0.2328 -0.1052
28358W        W84599  25.783  22.236  25.287 -0.1398 -0.1871  0.3560
28359W        W84600   8.531  11.957   7.746  0.2696 -0.4066 -0.3147
28360W        W84601  32.590  23.386  13.403  0.1369  0.1452  0.0925
28361W        W84602   5.392   4.647  11.176  0.2474 -0.1157 -0.2013
28362W        W84603   3.821  15.978   3.698  0.0244  0.0118  0.0499
28363W        W84604   7.368  19.933  25.912 -0.2182  0.0620  0.1072
28364W        W84605  14.162  12.222  13.751 -0.0088  0.0231  0.1732
28365W        W84606  17.333   2.877   9.245 -0.0993 -0.1108 -0.3309
28366W        W84607   4.009  16.914   0.376 -0.1249 -0.2503  0.0653
28367W        W84608   8.984   9.921  21.518  0.1656  0.0571 -0.0401
28368W        W84609   8.163   5.664  10.752 -0.0592  0.0071 -0.0010
28369W        W84610  31.556  30.063  21.961 -0.2887  0.1811 -0.1088
28370W        W84611  25.402  12.677  25.966  0.0204  0.0554 -0.0560
28371W        W84612   5.044  34.668  19.880  0.1147 -0.2380  0.0751
28372W        W84613  12.262  12.484  21.188  0.1202  0.0871  0.0329
28373W        W84614  18.719  18.016   4.339  0.3784  0.0625 -0.1976
28374W        W84615  33.597  23.458  10.801  0.3475  0.0295 -0.1432
28375W        W84616  30.630   3.286  15.129  0.1129  0.0279 -0.0007
28376W        W84617   9.661  11.084   2.380  0.0385 -0.1213 -0.2022
28377W        W84618   5.813  16.574  24.450 -0.1537 -0.0835  0.2914
28378W        W84619  13.780   7.476  10.157  0.0308 -0.0769  0.2687
28379W        W84620  16.641  23.969  25.196 -0.0092  0.1215  0.2689
28380W        W84621  13.110  23.027   8.483  0.3727 -0.0133  0.1031
28381W        W84622   8.733   5.985  10.999  0.4424  0.0042  0.2839
28382W        W84623  13.747  19.167  24.661 -0.1630  0.0765  0.0957
28383W        W84624  31.792  34.702  16.149  0.0582  0.0380  0.1804
28384W        W84625   4.685   5.114  23.817 -0.0960 -0.1174 -0.1697
28385W        W84626  27.299  22.398  22.351  0.2684 -0.1576 -0.1758
28386W        W84627  19.806   8.878   6.231  0.4844  0.0467 -0.0242
28387W        W84628   6.226   2.441   4.923 -0.0339 -0.1629 -0.1890
28388W        W84629  21.296  28.349  17.401 -0.0630 -0.3927 -0.1278
28389W        W84630  20.925  22.894  18.430  0.0343 -0.0812  0.1259
28390W        W84631  13.396  17.271   3.620  0.0077  0.2020  0.1718
28391W        W84632   7.362   0.536  25.829 -0.2259 -0.2709  0.0050
28392W        W84633  13.606  17.969   8.538 -0.2341 -0.0695  0.0651
28393W        W84634   4.784  25.522   6.750  0.2420  0.1508 -0.0348
28394W        W84635  29.954  13.888  11.755 -0.0676  0.0854  0.0648
28395W        W84636  17.369  18.914   0.868  0.2843  0.0773 -0.2514
28396W        W84637  21.015  20.284   3.522 -0.1118  0.0449 -0.5407
28397W        W84638  19.902  28.565   2.521 -0.5159  0.2340  0.3439
28398W        W84639   5.835   4.335   0.865 -0.0882  0.0194  0.0432
28399W        W84640  25.181  31.809  18.730 -0.2925  0.0532 -0.1565
28400W        W84641  28.407  34.909   4.356 -0.3644 -0.1130 -0.1585
28401W        W84642  10.762  29.847   1.135  0.1296 -0.4409  0.1639
28402W        W84643   7.676  23.922   5.482 -0.2459  0.0068  0.0847
28403W        W84644  27.419   6.677  23.029 -0.2678 -0.1742 -0.1573
28404W        W84645   0.044  29.695  25.057 -0.2533  0.2574 -0.1125
28405W        W84646  19.545  25.566  23.592  0.0893 -0.0331 -0.0377
28406W        W84647  30.576  21.073   8.489  0.0598  0.0968  0.3941
28407W        W84648  32.200   0.185  19.681  0.0214 -0.0850  0.2565
28408W        W84649  11.724  11.710   0.559 -0.0739  0.3732  0.0683
28409W        W84650  28.847  16.021  24.329  0.2729  0.3019  0.2560
28410W        W84651  29.177  16.749  16.240  0.1077 -0.0627  0.0511
28411W        W84652  31.467  31.615  17.103 -0.0285 -0.2258  0.4032
28412W        W84653   1.794   8.072   4.523  0.0573  0.1020  0.0239
28413W        W84654  34.227  30.689  22.984 -0.0364  0.4868  0.0125
28414W        W84655  34.646  15.004  12.534 -0.3926 -0.1545  0.2092
28415W        W84656   6.191  30.534  24.444 -0.2746  0.1391 -0.1098
28416W        W84657   0.892  16.754  10.525 -0.2955 -0.1692 -0.3472
28417W        W84658  18.768  28.411   9.559  0.0464  0.0110 -0.0127
28418W        W84659  10.916  35.023   5.944  0.3294  0.1005  0.0147
28419W        W84660  31.450   8.260   1.606  0.2368 -0.3131  0.1796
28420W        W84661  17.472   6.968  12.747 -0.2358 -0.0084  0.0083
28421W        W84662  25.348  34.816   2.472  0.1062 -0.0689 -0.0891
28422W        W84663  24.581  24.641  12.122 -0.1606 -0.1923 -0.4123
28423W        W84664  18.259  19.331  18.841  0.1914  0.0329 -0.2418
28424W        W84665  28.535  11.421  23.367  0.1213 -0.2859 -0.1860
28425W        W84666  19.540  19.192  22.892 -0.2966 -0.2141  0.3308
28426W        W84667  10.753  22.303  11.152  0.3056 -0.1206  0.2228
28427W        W84668  22.041   2.248   2.777  0.0488  0.1416  0.0810
28428W        W84669  13.266  34.985  24.697 -0.2011  0.0630  0.2501
28429W        W84670   1.268   2.100   3.442 -0.2529  0.2522 -0.0669
28430W        W84671  17.390  16.430  13.011  0.2438  0.0080  0.0002
28431W        W84672  15.456  26.154   7.132 -0.1986  0.1571 -0.0997
28432W        W84673  33.578  33.792  24.927 -0.0663 -0.2598 -0.1749
28433W        W84674  24.575  27.906  17.288 -0.2652 -0.0054 -0.3957
28434W        W84675  15.893  29.020  23.443 -0.0067  0.1366 -0.0567
28435W        W84676  19.953  14.777  24.765  0.0880 -0.4431 -0.0934
28436W        W84677  18.379  11.695  22.763  0.1534 -0.1776 -0.2038
28437W        W84678  10.417   3.745  12.048  0.4769  0.0709 -0.1632
28438W        W84679   6.671   5.849  18.624  0.0604 -0.2113  0.2965
28439W        W84680  29.259  22.856  19.599  0.0436  0.2305 -0.0911
28440W        W84681  29.588   5.448  22.780  0.0725 -0.1031 -0.3759
28441W        W84682  22.092   0.627   1.574  0.2811 -0.2473 -0.2445
28442W        W84683  25.044  27.198  23.912 -0.2280  0.4074  0.2030
28443W        W84684  30.528  27.158  14.724 -0.1603  0.0389 -0.1424
28444W        W84685   7.149  13.543  23.976 -0.1324  0.1928 -0.1455
28445W        W84686  24.739   7.049  15.495 -0.0902 -0.0834 -0.0500
28446W        W84687   6.653  35.224   6.154  0.0207  0.0931 -0.1598
28447W        W84688   2.963  12.766   3.169 -0.0100  0.2614  0.1538
28448W        W84689   5.059  28.655   9.208 -0.0599  0.2672  0.1608
28449W        W84690  13.099  20.719   1.804 -0.2014  0.3021 -0.3887
28450W        W84691   3.537  16.776  15.723  0.0787 -0.1037  0.0912
28451W        W84692  17.756  14.464  12.555  0.2063  0.0777  0.1315
28452W        W84693  25.893  13.315   7.715 -0.0501  0.0790 -0.0521
28453W        W84694  11.466   3.138   5.363  0.0090  0.1035  0.1386
28454W        W84695  20.909   1.173   3.086  0.0050  0.0507  0.2437
28455W        W84696  35.094  14.813  23.858  0.0041 -0.3542  0.2464
28456W        W84697  24.044  33.878  14.424 -0.1423  0.1038 -0.1041
28457W        W84698   0.727  30.377  17.992 -0.1594 -0.1363  0.0543
28458W        W84699   1.712  13.371  14.095 -0.0134  0.1809  0.0515
28459W        W84700  31.321   6.086  25.520 -0.2162  0.5025  0.2130
28460W        W84701  11.734  27.296  25.659 -0.0083 -0.1831  0.0453
28461W        W84702  34.824  30.801  23.115 -0.1471 -0.0793 -0.3538
28462W        W84703   6.571   4.447   3.238  0.0920  0.0489 -0.0649
28463W        W84704  20.548  26.059   8.270 -0.1974  0.0543 -0.0330
28464W        W84705  19.534  21.334   9.977  0.2850 -0.2531  0.1491
28465W        W84706  35.051  13.190  25.093  0.0009 -0.1198  0.1765
28466W        W84707  21.893  21.103   2.926 -0.1028  0.0073  0.2042
28467W        W84708  21.629   6.938   0.148 -0.0939  0.1937  0.0378
28468W        W84709  19.584  27.001   3.176  0.1704 -0.1614  0.0607
28469W        W84710  13.145  28.694   5.162 -0.0468 -0.1027 -0.3688
28470W        W84711  28.539  30.419  24.880 -0.1325  0.1708 -0.0107
28471W        W84712  10.274  16.665  24.991  0.2947 -0.0033 -0.4671
28472W        W84713  30.557  10.840  24.844 -0.1824  0.2354  0.0387
28473W        W84714   2.285  34.568  24.840 -0.0156  0.0268  0.2015
28474W        W84715  13.577   7.164   9.811 -0.2243 -0.0071  0.1470
28475W        W84716  20.824   9.334   0.752 -0.1567 -0.0341  0.0586
28476W        W84717   2.080  19.322  25.771 -0.0924  0.2272 -0.2578
28477W        W84718   6.768   1.454   9.987  0.2230  0.0868 -0.0945
28478W        W84719   7.396  12.245   9.079  0.1425 -0.0590 -0.2579
28479W        W84720  18.027   8.724  21.231  0.1113  0.1062 -0.3016
28480W        W84721   2.159   2.221  25.998 -0.1820 -0.0582  0.1011
28481W        W84722   3.194  12.767  26.119  0.1625 -0.6477 -0.2955
28482W        W84723  34.399  30.127   5.430  0.0351  0.2041  0.3164
28483W        W84724  23.483  25.218  25.206 -0.3211 -0.1220  0.0600
28484W        W84725  34.242  25.577  15.413 -0.0544 -0.0459 -0.2132
28485W        W84726   6.244  32.098   2.884 -0.0171 -0.0727  0.2795
28486W        W84727  19.419  17.356   5.425 -0.2474 -0.0545  0.2300
28487W        W84728  28.072  19.635  18.580 -0.0802 -0.0920  0.0135
28488W        W84729   9.131  26.800   5.884 -0.1972  0.4529  0.1872
28489W        W84730   2.578   5.781  17.495  0.1301  0.0749 -0.2639
28490W        W84731  19.906  12.070   3.286  0.1751 -0.1655  0.1331
28491W        W84732   2.781  10.969   1.443 -0.0305  0.1643  0.0814
28492W        W84733  19.890   3.906   3.707 -0.3751  0.0344 -0.0520
28493W        W84734  35.197   7.500   0.166 -0.1695  0.2012  0.2361
28494W        W84735   1.096   7.528   5.044  0.3404 -0.0203 -0.1850
28495W        W84736   1.579  18.443  26.099  0.2623  0.1645  0.1318
28496W        W84737  14.970  13.889  22.603 -0.1463 -0.1919 -0.1125
28497W        W84738  24.218  28.465  11.183 -0.0272  0.1946 -0.1082
28498W        W84739   9.846  20.223  12.762  0.1702 -0.2142  0.3664
28499W        W84740  27.982   9.824   8.260  0.1866  0.2727 -0.5202
28500W        W84741  33.068  21.751   7.641 -0.1516 -0.0971 -0.2696
28501W        W84742   6.026   7.686   3.052  0.2379  0.1211  0.0974
28502W        W84743  12.935  26.957   3.005 -0.1881 -0.1067 -0.1264
28503W        W84744  23.006  24.179   1.388 -0.0282  0.0413 -0.2324
28504W        W84745  31.682  25.799  22.807  0.1316 -0.0575 -0.1252
28505W        W84746  34.819   4.710   4.546 -0.0316  0.0393  0.3252
28506W        W84747  29.083  23.260  12.884  0.0776 -0.1674  0.2302
28507W        W84748   0.332  22.781  23.688 -0.1243 -0.2850 -0.0550
28508W        W84749  22.036  32.361  22.984  0.1175  0.1601  0.1014
28509W        W84750  29.796  18.236  13.442  0.1093  0.2137  0.0715
28510W        W84751  20.382  29.472   4.697 -0.0664  0.0068  0.1123
28511W        W84752  19.819  35.120  24.570  0.3761 -0.0340 -0.2713
28512W        W84753   6.495  19.202   1.080  0.2348 -0.2882 -0.0633
28513W        W84754   8.193  24.372  11.370  0.1774  0.3044  0.2071
28514W        W84755  32.064  11.133  17.530  0.2217 -0.0739 -0.0515
28515W        W84756  22.326  11.320  16.494 -0.2207 -0.0631 -0.3640
28516W        W84757  24.007   9.151  23.354 -0.0017  0.1111  0.0225
28517W        W84758  16.139  32.335   2.622  0.2022 -0.3829  0.2827
28518W        W84759  22.573   4.464   3.276  0.1839  0.0777  0.0308
28519W        W84760   6.149  24.499  25.700  0.1935 -0.1380  0.3067
28520W        W84761  27.017  28.185  10.768  0.0337  0.2330  0.4124
28521W        W84762  20.306  24.105  18.007  0.0041 -0.3416 -0.0438
28522W        W84763   5.397  17.346  19.297 -0.1732 -0.0144 -0.0705
28523W        W84764  29.903  30.657   3.371 -0.0013 -0.4231 -0.0173
28524W        W84765  10.271  25.624   4.551  0.0269  0.2508 -0.0543
28525W        W84766  23.746  20.311   1.123  0.1679  0.0959 -0.1065
28526W        W84767  20.613  19.840  17.031 -0.2443  0.0668  0.1483
28527W        W84768   9.483   8.460   7.647  0.1425  0.1508  0.0467
28528W        W84769  20.340  19.162  20.554 -0.3000  0.5077 -0.1867
28529W        W84770  29.727  22.087  18.934 -0.2797  0.0801 -0.2961
28530W        W84771  18.809  30.950   8.962  0.2194  0.2897  0.0408
28531W        W84772  21.095   2.117   8.665 -0.2777  0.1444 -0.0785
28532W        W84773  25.212  28.372  22.488  0.0871 -0.1634 -0.0354
28533W        W84774   1.991  18.471   0.830 -0.2045  0.0164 -0.3384
28534W        W84775  22.294  21.493  23.212  0.2670  0.1033  0.3095
28535W        W84776   6.674   2.972  25.562  0.1854  0.2492 -0.2846
28536W        W84777  16.906  30.747  21.976  0.1819  0.1003  0.1849
28537W        W84778  17.528  23.928  10.467  0.0966 -0.1583 -0.0381
28538W        W84779   6.240  22.633   4.996  0.3035 -0.0610 -0.1762
28539W        W84780  12.947  31.707   1.440 -0.0270  0.0608  0.3194
28540W        W84781  27.411   3.177  14.054 -0.2531  0.1611 -0.3003
28541W        W84782  30.690   1.838  11.862 -0.3240 -0.0684  0.1759
28542W        W84783  34.371  24.176   9.823 -0.0259  0.1832  0.3321
28543W        W84784  22.352  16.267  25.168  0.1422  0.0489  0.2572
28544W        W84785  33.479  22.114  14.423 -0.0456  0.0609 -0.3269
28545W        W84786  24.422  19.601  14.789 -0.0962  0.2155  0.0232
28546W        W84787  15.869  20.602   5.821  0.1458  0.0722  0.3219
28547W        W84788  22.384  19.358  19.818  0.4561 -0.0363  0.1930
28548W        W84789  34.969   5.193   7.069  0.2125  0.1068 -0.1750
28549W        W84790   6.528  22.478   8.243 -0.1105 -0.1885  0.1430
28550W        W84791  20.118  30.975   6.609 -0.0241 -0.0259  0.0886
28551W        W84792  29.965  10.513  17.040  0.0276 -0.3198 -0.0433
28552W        W84793  12.710   1.025   6.562  0.0038  0.1148 -0.1955
28553W        W84794  17.695  27.371  22.126  0.1064 -0.1542  0.6279
28554W        W84795  14.226  22.520   9.377  0.0841 -0.0246  0.0185
28555W        W84796  14.651  34.940   7.211  0.0934 -0.1379 -0.1733
28556W        W84797  24.122   6.163  16.316  0.0272  0.0835 -0.0289
28557W        W84798  26.160   9.489   2.429  0.0086  0.1086 -0.3111
28558W        W84799  10.680  16.903   5.591 -0.1884  0.1101 -0.1073
28559W        W84800  21.668  18.635   2.100  0.0409 -0.1408  0.1332
28560W        W84801  21.161  34.410   7.512  0.4117 -0.0016 -0.0048
28561W        W84802  14.679  27.322  13.833  0.1281  0.1628  0.2420
28562W        W84803  24.706  34.734  16.125  0.3610 -0.1899 -0.2153
28563W        W84804  18.466   2.784   0.514 -0.1999  0.1229  0.1146
28564W        W84805  22.316  35.286  17.027 -0.0106 -0.1540  0.1582
28565W        W84806  25.080  26.645  22.653  0.0263  0.2309 -0.3070
28566W        W84807   6.215  11.378  17.627 -0.1115  0.2606 -0.0068
28567W        W84808  11.261   2.451  12.949  0.2925 -0.2152 -0.0174
28568W        W84809   4.472  35.044   8.734  0.0845 -0.0364 -0.0039
28569W        W84810   6.689  20.580  21.514 -0.1213  0.3262  0.0244
28570W        W84811   9.367  14.780  19.924  0.0887 -0.2065  0.2325
28571W        W84812  31.291   5.600  17.971  0.1397 -0.1355 -0.4854
28572W        W84813  34.787  31.594   2.673  0.0268 -0.1908 -0.4114
28573W        W84814   6.574  12.634   5.165 -0.2223  0.0020 -0.0917
28574W        W84815  35.076  19.008  11.776  0.0451 -0.0654 -0.0641
28575W        W84816   1.855   0.127   1.016 -0.0275 -0.2159 -0.1793
28576W        W84817  29.576  10.563  18.305  0.0849  0.2755 -0.3118
28577W        W84818  23.199   5.255   2.538  0.3904 -0.0552  0.3237
28578W        W84819  13.333   0.924   0.714 -0.0754  0.0478 -0.1032
28579W        W84820   3.753   9.433   2.301 -0.1376  0.1357  0.2219
28580W        W84821  27.060   5.940  16.097 -0.1536 -0.1889 -0.0318
28581W        W84822   9.104  30.441   3.158  0.1000  0.1382 -0.0226
28582W        W84823  24.269  29.533  21.134 -0.4083 -0.2456 -0.0894
28583W        W84824  20.304  32.239   5.745 -0.0290 -0.1231  0.0533
28584W        W84825  34.053   9.024  14.441 -0.1708  0.0668 -0.0319
28585W        W84826  24.520  17.828  25.940 -0.4497 -0.1892 -0.0002
28586W        W84827   3.209  10.680  23.391 -0.6523 -0.2161  0.1924
28587W        W84828  25.733   6.766   2.894 -0.2215  0.1543  0.0432
28588W        W84829  10.619  17.756  10.859 -0.1200  0.1239  0.4266
28589W        W84830  30.324   4.183  17.571 -0.1824  0.3416  0.1033
28590W        W84831  13.734  20.316  22.781  0.1424  0.1300 -0.1245
28591W        W84832  23.574  15.102  23.942  0.1040  0.3431  0.0943
28592W        W84833   7.476  17.132  24.170  0.1453  0.1816  0.0478
28593W        W84834  23.901  10.361  19.086  0.3505  0.0097  0.0194
28594W        W84835  33.905   8.722  13.599  0.0162  0.0599 -0.1426
28595W        W84836   0.359  23.993  18.347  0.0253 -0.0772 -0.2269
28596W        W84837   0.336  27.164  17.355 -0.1506  0.0462 -0.0359
28597W        W84838  25.801  12.549  13.312  0.2203  0.0307 -0.0025
28598W        W84839  29.244  22.736   6.861 -0.0038 -0.1267  0.0880
28599W        W84840   9.250  25.780   6.317  0.1530  0.0154 -0.1481
28600W        W84841   5.484  33.666   3.618 -0.1276 -0.0499  0.1956
28601W        W84842  30.366  15.526   6.658 -0.3603  0.0610  0.0008
28602W        W84843  27.132  32.573  15.809  0.2363  0.0942  0.0099
28603W        W84844  27.913   3.588  20.713  0.1499  0.1297 -0.0031
28604W        W84845   1.407   7.066   3.864  0.0698  0.0015 -0.0710
28605W        W84846  19.911  14.465   4.220 -0.2435 -0.2397  0.2443
28606W        W84847  16.001   1.566   0.648  0.0741 -0.3153 -0.1556
28607W        W84848   1.209  19.575  11.086 -0.0282 -0.3129 -0.2510
28608W        W84849  11.208   9.611   7.314 -0.0751  0.2861 -0.0084
28609W        W84850  17.887  26.999   1.079  0.2092 -0.0957 -0.3807
28610W        W84851  10.678  27.742   9.044 -0.3167  0.1219  0.0852
28611W        W84852  26.709  27.872   8.950 -0.1429  0.0195 -0.1502
28612W        W84853  12.208   8.390   4.872 -0.1342 -0.1960  0.1168
28613W        W84854   1.385  26.535  22.020  0.1707 -0.1234 -0.4581
28614W        W84855  27.317  12.755   6.061  0.2363 -0.0571  0.2410
28615W        W84856  19.808  10.287  18.075  0.0893 -0.2837  0.0966
28616W        W84857  12.021   4.024  18.985  0.3235 -0.2341  0.1485
28617W        W84858  35.004  28.569  24.290  0.1103  0.0265 -0.2081
28618W        W84859   0.543  26.839   5.678 -0.2774  0.1563 -0.0175
28619W        W84860   0.099  18.296  17.566 -0.0999 -0.0839  0.5051
28620W        W84861  10.954  14.946   7.760 -0.0237 -0.2109  0.0175
28621W        W84862  12.328  34.524   8.498 -0.3065 -0.1307 -0.0075
28622W        W84863  31.687  15.741  10.638  0.3017  0.0175 -0.0528
28623W        W84864   9.560  30.449  16.996 -0.0604 -0.3700  0.0730
28624W        W84865   5.162  14.105   6.581  0.0839 -0.1355 -0.1911
28625W        W84866   5.557   6.101  19.979 -0.0515 -0.0981 -0.1028
28626W        W84867   0.647  30.933   0.339  0.1183  0.0015 -0.2867
28627W        W84868   8.510  27.969   7.583 -0.1053 -0.0847 -0.4710
28628W        W84869  19.744   0.564   2.013  0.0389 -0.3845 -0.1104
28629W        W84870  27.052  15.136   4.467  0.1174 -0.0569  0.2514
28630W        W84871  34.401  19.467  10.387  0.1335 -0.0515 -0.1310
28631W        W84872   2.277   4.913  22.288  0.1892  0.0109 -0.3962
28632W        W84873  16.327  30.961  22.442 -0.1268  0.0823 -0.0630
28633W        W84874  26.793   2.430   5.549 -0.3226  0.0694 -0.0514
28634W        W84875   8.342  33.929  22.445 -0.2105  0.0449 -0.3651
28635W        W84876  13.759  35.303   2.920 -0.0939 -0.3703 -0.0289
28636W        W84877  33.552  22.728  19.244  0.2762 -0.3033 -0.1102
28637W        W84878  23.861  15.428  13.084  0.1089 -0.0159 -0.2068
28638W        W84879  29.138  24.767  20.532 -0.0691 -0.0414 -0.1275
28639W        W84880  32.459   8.807  17.839  0.1533 -0.0843  0.0379
28640W        W84881  29.429   1.275  18.289 -0.1783  0.2459 -0.0600
28641W        W84882  15.956   1.327   8.595  0.2268  0.1223  0.1224
28642W        W84883  34.212   8.558  24.702  0.0500 -0.3093 -0.0227
28643W        W84884  23.487  31.795   5.922 -0.1358  0.1303 -0.0811
28644W        W84885  11.102  24.386  15.481  0.1031 -0.0635 -0.1163
28645W        W84886  26.849  28.592  24.072  0.0262  0.0506 -0.2473
28646W        W84887   5.543  22.666   6.635  0.3662 -0.0219  0.2045
28647W        W84888  18.615  13.835   0.768 -0.2024 -0.2955 -0.0912
28648W        W84889  17.698  33.872   1.186 -0.5456  0.1009  0.4169
28649W        W84890  13.845   8.204  19.436  0.1615  0.2249  0.0882
28650W        W84891  29.940  21.008  18.438  0.2380  0.0667 -0.1493
28651W        W84892   4.656   5.078  22.651  0.1756 -0.3239  0.0657
28652W        W84893   6.721   7.629  18.294 -0.0241  0.0538  0.3572
28653W        W84894  21.550  23.182   6.182  0.0371 -0.0480  0.5728
28654W        W84895  20.407  22.154  26.138  0.0837  0.0685  0.0836
28655W        W84896  29.629  22.341  21.290 -0.2833  0.0199 -0.0340
28656W        W84897  33.708  32.894  25.886 -0.0132  0.0449 -0.0720
28657W        W84898   8.350  21.449  23.265 -0.1959  0.0346 -0.2292
28658W        W84899  26.680   6.734  13.537 -0.0106  0.1510 -0.0739
28659W        W84900  30.356   3.598   2.212  0.2743  0.0637  0.0889
28660W        W84901  34.062  11.166  16.706 -0.0113 -0.0387 -0.3703
28661W        W84902  30.855   1.965  23.769 -0.3558  0.0692 -0.0470
28662W        W84903  15.473  10.677  12.903 -0.3763 -0.1483 -0.2604
28663W        W84904  32.897  33.302  17.005 -0.0814 -0.1070  0.3423
28664W        W84905  32.401   6.969  18.155 -0.1307  0.1245 -0.2319
28665W        W84906  31.017   6.552   2.222  0.0133  0.0360 -0.2497
28666W        W84907   2.315  26.997  21.385 -0.0429 -0.0047 -0.0117
28667W        W84908  11.155  19.817  23.119  0.0314 -0.0817  0.0089
28668W        W84909  13.460  15.406   7.096  0.0339 -0.1928 -0.2239
28669W        W84910  12.314  31.041  13.291 -0.1618  0.1690  0.1822
28670W        W84911  12.963  21.572  15.020 -0.1919  0.0466  0.0883
28671W        W84912  27.288  23.616  24.172  0.1442  0.0348  0.0454
28672W        W84913   1.001  25.814  24.645  0.2151  0.1205 -0.0083
28673W        W84914  18.390  33.021  21.779  0.1764 -0.1906 -0.1192
28674W        W84915   4.526   6.082  16.617 -0.0773  0.0659  0.0744
28675W        W84916   1.990  28.714   9.933 -0.4882 -0.0327  0.0842
28676W        W84917   1.516  33.796  10.090  0.0760 -0.0624 -0.1513
28677W        W84918   7.601  27.928  13.411 -0.1551  0.1207  0.1605
28678W        W84919   4.114   2.141  10.021  0.0061  0.0752  0.1233
28679W        W84920  28.433  32.341  18.692  0.1960  0.2442  0.2032
28680W        W84921  21.713  33.441  14.357  0.2498  0.1139 -0.2699
28681W        W84922  32.447  13.474  12.009  0.0294 -0.2396  0.1031
28682W        W84923  22.540  25.445  25.207  0.3483 -0.1408 -0.4240
28683W        W84924   5.390  29.520  11.833  0.1614  0.0066  0.0334
28684W        W84925  19.785  19.380   2.256 -0.3381  0.3068 -0.1517
28685W        W84926  18.474   1.848   4.075 -0.0338  0.1610 -0.2996
28686W        W84927  32.134  26.111  13.766 -0.0686  0.2746  0.1872
28687W        W84928  20.188   0.820  24.191 -0.3605 -0.0834 -0.2135
28688W        W84929  27.495  10.658  25.403  0.0241 -0.0537  0.1272
28689W        W84930  18.064   0.179  18.161  0.0096 -0.2013  0.1714
28690W        W84931  10.144  30.488  11.079 -0.0034  0.2168  0.2420
28691W        W84932   0.753  21.739   1.464  0.2675 -0.1565  0.0130
28692W        W84933  20.038  29.388  15.800 -0.0051 -0.2994  0.0558
28693W        W84934  23.163  29.351   4.235 -0.3332 -0.1029  0.0923
28694W        W84935  15.326   5.158  24.043  0.0062  0.1031 -0.1867
28695W        W84936   7.033  14.879  11.633  0.1434 -0.0782 -0.1427
28696W        W84937  29.117  25.414  15.745  0.0824 -0.3244  0.1604
28697W        W84938  32.124  26.096  18.085  0.1175 -0.0915 -0.2681
28698W        W84939  27.457  33.585   4.845  0.0436  0.0976  0.0659
28699W        W84940  22.488  33.002   3.985  0.0285 -0.4686  0.0906
28700W        W84941   5.790  24.805   1.152  0.2345 -0.1071  0.0552
28701W        W84942  20.021   8.510   7.974 -0.0349  0.0570  0.0884
28702W        W84943  16.282  18.214  13.910 -0.1030  0.3193  0.1405
28703W        W84944  10.908  27.124   4.862 -0.3842  0.1140 -0.0412
28704W        W84945  23.300  26.373   1.461 -0.1132 -0.0350  0.0071
28705W        W84946  21.955  23.620  17.084  0.0149 -0.0516 -0.0161
28706W        W84947  14.282  11.745   6.331  0.0645  0.3083  0.2846
28707W        W84948  33.982  23.245  21.071  0.0288  0.1752 -0.1208
28708W        W84949  17.270  31.900   3.799  0.1924  0.2001  0.1173
28709W        W84950   2.478  21.734  14.909  0.1354 -0.1660 -0.0368
28710W        W84951   7.627  17.554   6.351 -0.0930  0.2863  0.2726
28711W        W84952  34.410  34.974   2.540  0.1137 -0.1477 -0.0700
28712W        W84953   0.160  22.004   1.148 -0.1437  0.0113  0.1971
28713W        W84954  32.258  23.512   7.361 -0.0942  0.0721  0.0428
28714W        W84955   4.128  21.742  24.999  0.1086 -0.2008  0.2346
28715W        W84956  13.385  22.718  13.091  0.1976  0.0906  0.1020
28716W        W84957  18.307  22.567   8.940 -0.1841 -0.0574  0.2292
28717W        W84958  22.331   0.080  17.981 -0.2725 -0.3747  0.1367
28718W        W84959  25.415  17.747  12.912 -0.0025  0.0693 -0.0735
28719W        W84960  25.286  23.913   1.656 -0.2423 -0.4513  0.1901
28720W        W84961  13.945   1.543   7.388 -0.3206  0.0869  0.1532
28721W        W84962   3.385  27.394   5.425 -0.1229 -0.1495  0.0460
28722W        W84963  34.665  32.902  23.135 -0.7799  0.2951  0.1628
28723W        W84964  18.190  24.687   3.805 -0.1392 -0.0327  0.2804
28724W        W84965  24.184  11.768   1.550 -0.0061 -0.1681  0.1916
28725W        W84966   1.518  34.858   7.378 -0.1764 -0.4233 -0.0464
28726W        W84967   7.118  12.433  24.462  0.2460 -0.0400  0.2540
28727W        W84968  19.067  32.580   8.984 -0.0391 -0.0515 -0.1641
28728W        W84969   7.778   2.047   2.841 -0.1919 -0.0947 -0.1350
28729W        W84970   1.508  30.115  25.775  0.1119  0.1606 -0.2690
28730W        W84971  25.898  17.940  10.504 -0.2001  0.1617  0.1911
28731W        W84972  33.614  26.733  16.038 -0.0919  0.0089 -0.3148
28732W        W84973  32.127  34.907   3.044 -0.1632 -0.2184  0.2918
28733W        W84974  18.846   3.362  25.108 -0.2032 -0.0720  0.0229
28734W        W84975  32.086   0.142  14.434  0.0364  0.2915  0.2507
28735W        W84976  34.756  30.341  16.858 -0.0034 -0.0105  0.2242
28736W        W84977   9.388  21.314  13.055 -0.2074  0.0726 -0.2622
28737W        W84978  20.823   9.248   3.272  0.0245 -0.1270 -0.0578
28738W        W84979  29.815  23.308  18.054 -0.1413 -0.3295 -0.4768
28739W        W84980  24.292  17.311  10.706 -0.0085  0.3530 -0.2368
28740W        W84981  18.639   7.241  11.469 -0.0574  0.0833  0.3045
28741W        W84982   9.769  14.824   3.992  0.1431 -0.3482 -0.1211
28742W        W84983  18.512  26.628   5.447 -0.1608 -0.0423 -0.6369
28743W        W84984  33.725  28.932  15.193 -0.0646 -0.0084  0.0606
28744W        W84985  18.838  20.103   9.500  0.0594 -0.1775  0.1266
28745W        W84986   8.961  24.611  11.699 -0.2307  0.2982 -0.0203
28746W        W84987  12.490  34.531  21.898 -0.0349  0.1688 -0.1075
28747W        W84988  26.209  12.314   1.359  0.3386  0.0934  0.3591
28748W        W84989  16.468  32.101  23.401  0.0820 -0.4235 -0.2251
28749W        W84990  30.997  14.305   6.753  0.2069  0.0709  0.1268
28750W        W84991   6.677  11.461   7.036 -0.0092 -0.1353 -0.0404
28751W        W84992  17.016  28.102   0.163  0.0556 -0.1549 -0.3817
28752W        W84993   1.837  18.234  10.561 -0.2388  0.2191  0.2193
28753W        W84994   5.864  13.327   0.668  0.0049  0.1552 -0.0543
28754W        W84995  28.942  12.689  11.865 -0.1883  0.1189  0.0418
28755W        W84996  19.686   5.314   2.422 -0.0223 -0.1532  0.0188
28756W        W84997  19.956   7.468   2.007 -0.0868 -0.2274 -0.1119
28757W        W84998  22.999   9.391  21.237  0.1571  0.1491  0.1148
28758W        W84999   8.833  22.924  16.602 -0.1370  0.0450  0.0266
28759W        W85000  17.766  23.146   0.634  0.1726 -0.1019  0.0375
28760W        W85001   7.991  12.507   3.489 -0.1496  0.0669 -0.1744
28761W        W85002  22.549   7.435   1.534  0.1984  0.0038  0.2821
28762W        W85003  12.485   7.483  21.340 -0.3065 -0.1637  0.1003
28763W        W85004  23.171   3.241  23.785 -0.3181  0.1092  0.1465
28764W        W85005  27.108  23.157  21.627  0.1278  0.1269 -0.0848
28765W        W85006  22.781  13.166  14.372 -0.0906  0.3756  0.1345
28766W        W85007  31.095   1.924   2.138  0.5451 -0.2206 -0.0815
28767W        W85008  23.776  24.687  25.844  0.0559 -0.0496  0.0789
28768W        W85009  28.776  27.998  21.345  0.1405  0.1843 -0.1915
28769W        W85010  22.392   8.465   1.450 -0.0711  0.1286 -0.2015
28770W        W85011   1.778  17.530  24.961 -0.0489 -0.1857 -0.1925
28771W        W85012   6.530  10.025   0.019 -0.1871  0.2659 -0.1041
28772W        W85013  26.956  22.547   9.760  0.0740  0.1154 -0.0844
28773W        W85014  11.981  26.299  10.704  0.3203 -0.1233  0.2298
28774W        W85015  25.359  34.082   6.493  0.3412 -0.0768  0.0197
28775W        W85016  29.567  18.512   7.148 -0.0909  0.0423  0.0058
28776W        W85017  31.032  29.340  13.778  0.0657 -0.0312  0.0359
28777W        W85018  11.719  11.977  12.337  0.1855  0.0574 -0.1094
28778W        W85019  10.935  33.902   4.720 -0.3128 -0.0397 -0.1332
28779W        W85020  33.146  23.547  16.672  0.3036  0.0120 -0.2905
28780W        W85021   8.740   8.077   0.174  0.0658  0.3431  0.1058
28781W        W85022  25.679   2.520  25.314  0.0889 -0.1622 -0.3215
28782W        W85023  31.996  30.264  16.016 -0.1981 -0.0264 -0.0990
28783W        W85024  34.999  15.624  17.315  0.0984  0.1789  0.1201
28784W        W85025   2.716  17.443  16.952 -0.0176 -0.1467  0.1041
28785W        W85026  13.086  10.786   9.990 -0.3599 -0.0792 -0.1214
28786W        W85027  31.622   7.630  12.876 -0.2130 -0.1350 -0.2774
28787W        W85028   8.205  25.627  21.396  0.2734  0.1392 -0.0411
28788W        W85029  12.363   2.782  19.825 -0.0263  0.3096 -0.1596
28789W        W85030  15.963   8.038   8.003 -0.0810 -0.0556  0.0254
28790W        W85031  15.707  20.025  11.887 -0.0146  0.1563 -0.1032
28791W        W85032   3.590   6.573   4.009 -0.0164  0.2541  0.4597
28792W        W85033  34.355  34.569   0.866  0.0984  0.3978  0.1264
28793W        W85034  18.091  24.556   3.311  0.1316 -0.0977 -0.0254
28794W        W85035  35.383  16.724  16.611  0.0829 -0.1383  0.1463
28795W        W85036  32.582  28.510   1.905  0.0438  0.0588 -0.2144
28796W        W85037   6.340  11.075   6.865 -0.1147 -0.0655 -0.2385
28797W        W85038  22.764  35.380  23.397 -0.1501  0.0860  0.0367
28798W        W85039  13.653   0.824  18.082 -0.0098  0.2299  0.1301
28799W        W85040  26.895  25.525  11.665 -0.1892 -0.1743  0.1052
28800W        W85041   9.570  18.218   2.415 -0.0232  0.0199 -0.0410
28801W        W85042  15.766  20.949   4.629  0.4024 -0.0402  0.3130
28802W        W85043  27.228  30.080   3.472  0.2225  0.1270 -0.2065
28803W        W85044  11.589  34.105   1.593 -0.1653  0.0259  0.1915
28804W        W85045   0.134   1.846  22.715  0.0569  0.0054  0.0568
28805W        W85046  10.967  11.899   7.096 -0.1541 -0.0551  0.1210
28806W        W85047  33.144  32.253  19.189  0.1382  0.0857 -0.1583
28807W        W85048   7.331  32.334   8.945  0.2153 -0.0783 -0.2543
28808W        W85049  11.351  27.994  14.200  0.3961 -0.1546  0.2970
28809W        W85050  26.690   7.783  23.907 -0.1882 -0.0586  0.0096
28810W        W85051  22.099   9.015  20.135 -0.0216  0.0187 -0.1486
28811W        W85052  28.689  27.325  23.622 -0.1795 -0.2275 -0.0586
28812W        W85053  27.655   8.923  23.396  0.4029 -0.0705  0.3699
28813W        W85054  34.328   9.257  14.869 -0.0865  0.0957 -0.1472
28814W        W85055   7.989  18.405   1.447 -0.0399 -0.2081  0.0524
28815W        W85056   2.296  28.616  20.423 -0.1576  0.1472  0.2668
28816W        W85057  28.429  30.426  23.998 -0.1076 -0.0996  0.4349
28817W        W85058   8.525  10.353   4.550  0.2023  0.2379 -0.1386
28818W        W85059   8.464   0.406   1.929 -0.1535 -0.2796 -0.0417
28819W        W85060   2.052  27.490  19.644 -0.5585 -0.4038  0.3532
28820W        W85061   6.952  26.848  13.035 -0.2673 -0.0794  0.1186
28821W        W85062  10.623  28.583   2.234 -0.1373 -0.1159  0.1287
28822W        W85063  33.153  32.845  14.032 -0.1387  0.1656 -0.0569
28823W        W85064  26.337  19.452  13.935  0.2263 -0.0522  0.2333
28824W        W85065  33.695  31.148  24.608 -0.1591 -0.0704 -0.0736
28825W        W85066   5.488  24.731   3.631  0.0849 -0.0972 -0.1105
28826W        W85067  23.504  26.867  18.083 -0.0158  0.2016 -0.0406
28827W        W85068  23.646   7.359   0.762  0.2282 -0.1687 -0.0361
28828W        W85069  13.459  18.847   9.164  0.0710  0.2164 -0.3985
28829W        W85070  23.856  16.708   1.043 -0.0915 -0.0628 -0.0582
28830W        W85071  13.133   6.166   0.740  0.3895 -0.1925  0.0049
28831W        W85072  17.795   3.709  17.416  0.3556 -0.1168  0.2774
28832W        W85073   1.887   2.540   0.902 -0.0231 -0.1845 -0.1163
28833W        W85074  10.323   8.949  25.806 -0.2123  0.1958  0.0133
28834W        W85075  10.364  21.149   9.328  0.5345  0.2657  0.0291
28835W        W85076  11.324   0.991   3.541 -0.1215  0.2245  0.0705
28836W        W85077  20.230  10.571   2.303  0.2792  0.2521 -0.0168
28837W        W85078  16.969  17.857   8.240  0.1460 -0.0361 -0.0683
28838W        W85079  19.182  34.419  26.214 -0.3120 -0.0334 -0.0433
28839W        W85080  16.186  10.751   7.971 -0.1906 -0.0881 -0.0460
28840W        W85081   1.786  12.655   1.733  0.1574  0.2694 -0.1694
28841W        W85082  10.467  32.589  23.433 -0.0484 -0.3269  0.0076
28842W        W85083  31.348   6.592  20.622 -0.0568 -0.0422  0.1440
28843W        W85084  23.155  20.173  17.425  0.3255 -0.0617  0.2037
28844W        W85085  20.572  22.891   6.084 -0.3291  0.1282 -0.2380
28845W        W85086   9.806  11.246   9.571 -0.1720 -0.5302 -0.0607
28846W        W85087  11.802  27.488   9.266  0.0494 -0.0734  0.1492
28847W        W85088  14.360  11.718   6.858 -0.1099  0.2748 -0.5284
28848W        W85089  26.616  21.119  23.665  0.1232  0.0565  0.1483
28849W        W85090   6.398  26.040  24.401  0.1317 -0.2004  0.2256
28850W        W85091   3.653   3.817   0.762  0.0570  0.0528  0.0582
28851W        W85092  34.402   5.512  22.628  0.1456 -0.1514 -0.2088
28852W        W85093   2.172  32.401  18.322 -0.3531 -0.2256  0.3718
28853W        W85094  13.904  33.247  26.170  0.0202 -0.0322 -0.1966
28854W        W85095  30.994   1.309  24.773  0.1291 -0.1129  0.0010
28855W        W85096   3.757   6.876  18.091 -0.2059  0.2519  0.1732
28856W        W85097   8.596  10.283  19.635 -0.1136  0.0538  0.0964
28857W        W85098  12.758  23.420  17.645  0.1343 -0.1037 -0.1522
28858W        W85099  32.737  14.598  15.878 -0.0797  0.0990  0.0626
28859W        W85100  15.238  25.822   1.129 -0.1264  0.0864  0.0699
28860W        W85101  17.584   7.179  11.282 -0.1008 -0.1317  0.2036
28861W        W85102  28.985  18.331  12.730  0.1490  0.3861  0.0552
28862W        W85103   9.166   9.879  24.155  0.1543  0.2492 -0.1229
28863W        W85104  18.385  19.438  22.973  0.0728 -0.4157 -0.1189
28864W        W85105  18.387  11.730  19.159 -0.2794  0.0525 -0.4102
28865W        W85106  34.950  22.069  25.550 -0.1329 -0.1629  0.1334
28866W        W85107  28.477  28.982  15.226  0.0640 -0.1760  0.3214
28867W        W85108  31.935  24.091  11.346  0.0634  0.1384  0.1256
28868W        W85109  11.499  26.729   8.739 -0.2177  0.0836 -0.0315
28869W        W85110   5.494  32.310  20.405  0.0494  0.3116 -0.0718
28870W        W85111  28.961  22.635  16.335 -0.3468 -0.0100  0.0956
28871W        W85112  20.438  31.858  23.313  0.1060  0.0965 -0.0869
28872W        W85113   4.445  24.750  22.047  0.0602 -0.0151 -0.3718
28873W        W85114  13.318  19.294  12.980  0.0093 -0.1078 -0.3285
28874W        W85115  10.202  31.953  13.560 -0.1172 -0.0194 -0.0368
28875W        W85116  26.700   6.908  23.625 -0.1531  0.2414 -0.1221
28876W        W85117  28.899  11.729   7.421 -0.0209  0.0853 -0.1004
28877W        W85118  13.813  23.477   4.526 -0.0909  0.0337  0.0525
28878W        W85119  25.760  28.452  23.256  0.2106  0.2379 -0.2959
28879W        W85120  35.058  30.736   5.744 -0.3642  0.2126  0.1135
28880W        W85121  20.195  16.626   4.903 -0.0152 -0.0235  0.1099
28881W        W85122  16.050  24.211   5.124  0.0223  0.0574  0.6126
28882W        W85123  31.750   7.178  23.793 -0.1177  0.0249 -0.2971
28883W        W85124   5.676   1.128   7.909 -0.3974 -0.0194 -0.0005
28884W        W85125   4.863   7.254   4.471 -0.0687  0.0562  0.1293
28885W        W85126  34.885   1.855   2.383 -0.0182  0.1164 -0.0053
28886W        W85127   8.495   4.731   2.174 -0.0642  0.0067  0.1676
28887W        W85128  13.460  16.843  22.208 -0.0502 -0.2159 -0.1274
28888W        W85129   1.089   7.051   5.281 -0.0189 -0.0864  0.1727
28889W        W85130  33.135  27.970   3.373  0.0709  0.4804  0.2053
28890W        W85131  27.715   1.071  15.529 -0.0806 -0.1195 -0.0325
28891W        W85132  15.834  26.716   1.830  0.2359  0.2796 -0.1048
28892W        W85133   4.110  28.062  10.735 -0.3510  0.0503  0.1899
28893W        W85134  18.818   4.848  21.319 -0.2741  0.0505  0.1620
28894W        W85135  27.536  21.220  24.280  0.3562 -0.1355  0.1105
28895W        W85136  31.617   0.732  13.801  0.2465 -0.0679 -0.2453
28896W        W85137  26.975  28.312  11.236 -0.0763 -0.0321  0.1185
28897W        W85138  34.714  15.735  19.707  0.1095 -0.3044 -0.0942
28898W        W85139  30.381  20.374   9.540 -0.1534 -0.0291  0.1726
28899W        W85140  35.297  12.482  23.873 -0.3593 -0.1812 -0.0580
28900W        W85141  15.301   9.229  12.553 -0.0800  0.1874  0.1228
28901W        W85142  10.418  32.752  14.922  0.0090  0.0001  0.0278
28902W        W85143   9.436   7.229   8.549  0.0293  0.1960  0.0980
28903W        W85144   5.390   9.712   5.529 -0.1865  0.0673  0.2772
28904W        W85145  31.021  29.466  23.037 -0.4061  0.1657 -0.2003
28905W        W85146  11.439  21.458  12.957 -0.2427 -0.1865 -0.0093
28906W        W85147  14.626   6.012  10.044 -0.2693  0.0319  0.0516
28907W        W85148  30.765  30.960   2.588 -0.0140  0.2153  0.1188
28908W        W85149  29.826   4.311  17.738 -0.0398 -0.1851  0.0272
28909W        W85150  32.268  15.582  25.440 -0.0062  0.0713 -0.2215
28910W        W85151  11.838  16.368  22.790  0.0287 -0.0080  0.1041
28911W        W85152  16.870  15.359  19.091  0.2862  0.1225  0.1325
28912W        W85153  18.167  20.929   0.620 -0.0004  0.1014 -0.0968
28913W        W85154   9.587   7.823  24.271  0.1173 -0.0910  0.1577
28914W        W85155  27.027  12.297  21.155 -0.1419 -0.3955  0.0798
28915W        W85156  34.381  21.956  14.651  0.1281 -0.1246  0.0737
28916W        W85157  31.335  21.859  19.484  0.2691 -0.0621 -0.0196
28917W        W85158   0.727   7.814  18.914 -0.1466  0.0081 -0.2446
28918W        W85159  35.365  19.959  19.407 -0.0488 -0.1298 -0.1650
28919W        W85160   2.737  27.555   1.709  0.3968 -0.2992 -0.1290
28920W        W85161   1.149  25.163  19.910 -0.0378 -0.0262  0.0364
28921W        W85162   3.011   3.067   4.323  0.1336  0.0495  0.0626
28922W        W85163   8.415  28.289   2.442 -0.1032  0.2610  0.2778
28923W        W85164   5.568  21.868  26.251 -0.2934  0.1612  0.0562
28924W        W85165  23.035  12.467  14.729 -0.0375  0.2413  0.2934
28925W        W85166   1.675   3.451  19.321  0.0080  0.2331  0.1083
28926W        W85167  19.507  33.869   8.522 -0.2047 -0.3639 -0.0678
28927W        W85168   3.917  20.271   0.359 -0.2646  0.2720  0.0497
28928W        W85169  23.900  29.740  22.064  0.1925  0.0338  0.1815
28929W        W85170   3.620  23.518  26.072 -0.2749 -0.2094 -0.2580
28930W        W85171   6.923   5.434  18.757  0.2848  0.1222  0.0360
28931W        W85172  31.537   1.906  19.959 -0.0001  0.1689 -0.1099
28932W        W85173   5.791  18.665  22.081 -0.0959 -0.0102 -0.2216
28933W        W85174   3.948  13.863   2.917 -0.1612 -0.2296  0.0941
28934W        W85175  11.833  13.373   9.361 -0.0594 -0.0930 -0.2150
28935W        W85176  18.787   1.479  16.423 -0.1104  0.2577 -0.1789
28936W        W85177   8.599   2.325   8.981  0.0662 -0.0025  0.2313
28937W        W85178  23.623  27.723  19.734 -0.4951 -0.3498 -0.2176
28938W        W85179   8.848  10.187   9.481 -0.0714  0.3474 -0.2682
28939W        W85180   5.580  10.395   0.095  0.1853  0.1824  0.4102
28940W        W85181  21.640   4.048  18.374  0.0906  0.1654 -0.0493
28941W        W85182  27.135   2.883  20.166  0.1932  0.0218  0.1131
28942W        W85183  26.127  26.041  13.665 -0.0632 -0.4343  0.2343
28943W        W85184   8.768   1.301   6.207  0.1105 -0.0117  0.4959
28944W        W85185  18.160  16.768   2.184 -0.1156  0.0894 -0.0192
28945W        W85186  27.836  15.603  12.067 -0.2678  0.0385 -0.0253
28946W        W85187   4.043  29.172   0.786 -0.0610  0.1592  0.2935
28947W        W85188  17.624  11.747   0.756 -0.0489  0.0026  0.1332
28948W        W85189  10.805  35.200  13.796  0.0427 -0.0592  0.1921
28949W        W85190  17.190   5.423  18.706  0.2088  0.1077  0.4090
28950W        W85191  19.400  12.739   7.473  0.1463 -0.0503 -0.1539
28951W        W85192  24.001  30.680  23.243 -0.0601  0.0107  0.1014
28952W        W85193  16.593   5.702   8.268 -0.2441  0.2228  0.0453
28953W        W85194  29.845   2.487  20.354 -0.1953 -0.1653 -0.0109
28954W        W85195  17.692  26.679  10.468  0.1008 -0.0859 -0.2135
28955W        W85196  16.932  15.429  13.070  0.1584  0.2133 -0.1069
28956W        W85197   2.121  19.541  19.373 -0.3952 -0.0594  0.3816
28957W        W85198   4.336  33.263  21.916  0.1825 -0.0326 -0.0244
28958W        W85199  12.009   6.629  25.586 -0.2254  0.1070  0.3601
28959W        W85200  11.210  15.884   3.318  0.0259  0.1861 -0.0738
28960W        W85201  35.105   5.155   3.451  0.1108 -0.0933  0.0364
28961W        W85202   1.707   8.568  12.917 -0.1915 -0.0035  0.1254
28962W        W85203   7.332  33.745  11.389  0.2276 -0.3420 -0.1080
28963W        W85204   3.649  28.681  22.997  0.2281  0.2645  0.1610
28964W        W85205   6.815  15.121   8.166 -0.2565  0.0139 -0.0927
28965W        W85206  25.158  23.704  12.871  0.1951 -0.5241  0.2682
28966W        W85207   5.140   9.843  17.491 -0.2827  0.0298 -0.0091
28967W        W85208  28.662  16.254  17.219  0.0422 -0.2351 -0.1303
28968W        W85209  11.446  26.725  21.973  0.0670 -0.1878  0.2249
28969W        W85210   2.030  13.128   0.477  0.2343 -0.1795 -0.2129
28970W        W85211  29.315  24.692  17.873 -0.0198 -0.0730 -0.2326
28971W        W85212  31.608  34.574  17.575 -0.2280  0.0602  0.2258
28972W        W85213   2.158  12.049  22.728 -0.1559  0.1041 -0.1151
28973W        W85214  24.439  31.721   0.216  0.1702 -0.1785 -0.0750
28974W        W85215  27.373  25.063   0.820  0.0191  0.3901  0.0390
28975W        W85216   6.828   0.787  10.137 -0.0593  0.0532 -0.1033
28976W        W85217   6.962  33.965  12.214 -0.0434  0.0697 -0.0683
28977W        W85218   7.640  16.540   0.905  0.4611  0.1827 -0.2644
28978W        W85219  16.688  29.085  22.796  0.0014 -0.1778 -0.0977
28979W        W85220   9.558  26.542  10.490  0.1311  0.0992 -0.1304
28980W        W85221  28.098  22.208  22.970  0.1437  0.0059 -0.3583
28981W        W85222  15.951  27.509   6.966 -0.2416 -0.0297  0.3099
28982W        W85223  20.232   9.211  20.426  0.1695  0.1593  0.0314
28983W        W85224   7.195  21.302   8.491 -0.0873 -0.0305 -0.1112
28984W        W85225  26.034  27.827  18.641 -0.0009  0.3298  0.0663
28985W        W85226  25.949  32.387   2.274 -0.1458  0.3076  0.3645
28986W        W85227  25.217  35.017  21.717 -0.2129 -0.1137  0.0234
28987W        W85228   8.792  12.199   6.592 -0.2599  0.3082  0.2293
28988W        W85229  31.240   5.445   4.141 -0.1389 -0.1112  0.4877
28989W        W85230  18.427  11.909   4.318 -0.3526 -0.0073 -0.1259
28990W        W85231   8.389  27.063   1.949 -0.3047  0.0978 -0.2272
28991W        W85232   5.827   1.194  22.958 -0.0711 -0.0863  0.0875
28992W        W85233   8.163  12.140   1.633 -0.0563 -0.3136 -0.1232
28993W        W85234  14.654  30.405  25.508  0.2082 -0.1453  0.0949
28994W        W85235  18.029  16.190   0.979  0.0147 -0.2087  0.0167
28995W        W85236  25.128   4.792  14.976  0.0968  0.1352  0.1218
28996W        W85237  25.464   1.147   5.515 -0.1611 -0.0583 -0.0509
28997W        W85238  31.746   7.935  26.035 -0.1258  0.1118  0.1340
28998W        W85239  26.784  15.057   7.096  0.0351  0.1676  0.0886
28999W        W85240  18.743  17.119   3.064  0.0737 -0.2030  0.2542
29000W        W85241  28.731  13.712  12.859 -0.0240  0.0055 -0.1051
29001W        W85242  18.707  19.126   4.389 -0.1950 -0.3060  0.0046
29002W        W85243  19.261  22.585  22.250 -0.3431  0.5533  0.1914
29003W        W85244  22.206  31.839   4.914 -0.1673 -0.0783  0.0264
29004W        W85245  34.115   3.968  17.212 -0.1138 -0.1373 -0.3134
29005W        W85246  27.109  25.128  25.624 -0.2286  0.0458  0.5752
29006W        W85247   5.943   0.261  26.169  0.2931  0.0271 -0.2407
29007W        W85248  35.260  21.142  22.177 -0.0211  0.1305  0.1299
29008W        W85249   6.569  23.730   3.079 -0.1602  0.1194  0.1029
29009W        W85250  26.593  35.106  19.938  0.1051 -0.1290  0.0115
29010W        W85251   2.941   2.502  18.792 -0.1191 -0.0870 -0.1136
29011W        W85252  24.189   3.817   1.968 -0.0097  0.2019 -0.1666
29012W        W85253  30.739  15.207  10.088 -0.0038 -0.0116 -0.0909
29013W        W85254  13.814  23.914  24.790 -0.2321  0.0577  0.2740
29014W        W85255   4.981  28.838  12.415  0.1188  0.1928  0.3454
29015W        W85256   6.274  26.776  12.506  0.0367  0.1368  0.3112
29016W        W85257  15.909   9.239  13.640  0.0416  0.0330  0.2387
29017W        W85258  34.947  33.519   8.222  0.2762  0.1417 -0.0641
29018W        W85259  22.428   9.343  15.809 -0.3733 -0.0348 -0.0347
29019W        W85260  33.125  25.273  13.788  0.5259 -0.0107 -0.0482
29020W        W85261  14.945  32.680   7.864 -0.3640 -0.2523 -0.2429
29021W        W85262  16.495  23.362   2.303  0.1551 -0.2889 -0.0627
29022W        W85263  33.635  33.202  18.216  0.0008 -0.4210  0.0501
29023W        W85264  23.779   1.409  18.720 -0.1174 -0.0855  0.1980
29024W        W85265   8.688  20.180  10.494  0.1673  0.0639  0.2392
29025W        W85266  17.686  30.171  22.092 -0.0355 -0.1481  0.2929
29026W        W85267  16.589  18.519  21.071  0.1983 -0.2382  0.2017
29027W        W85268  14.538  31.541  24.637  0.3025 -0.3570  0.2459
29028W        W85269  12.147   1.942   2.579  0.5411 -0.0364 -0.1169
29029W        W85270  26.342  33.554   0.518 -0.4284  0.0877  0.1506
29030W        W85271  25.067  14.562  18.514  0.0439 -0.0947  0.4906
29031W        W85272  32.493  29.098  19.915  0.1429  0.2030 -0.0855
29032W        W85273   9.054  18.604   6.658  0.0779  0.0378  0.1877
29033W        W85274   3.929  14.546  22.834 -0.2512  0.1616  0.4310
29034W        W85275  22.429  32.017   5.851 -0.0293 -0.0235 -0.0845
29035W        W85276   4.324  13.243  23.595 -0.0246  0.0664  0.0188
29036W        W85277  13.045  17.180  13.748  0.1072 -0.4353 -0.1263
29037W        W85278  24.121  19.872  18.420 -0.0024  0.0749 -0.1404
29038W        W85279  21.172  19.399  23.664  0.0761  0.0567 -0.3743
29039W        W85280  26.759   3.142  25.089 -0.2361 -0.0067 -0.1754
29040W        W85281  15.366   2.596  22.552  0.1878  0.3287 -0.4239
29041W        W85282   9.228   9.439   5.674  0.0415  0.0316 -0.2931
29042W        W85283  22.089  15.987  17.519 -0.2515  0.2805  0.1914
29043W        W85284   8.683   9.214   5.764 -0.2341 -0.0970 -0.3256
29044W        W85285   9.536  10.584  22.885  0.0185  0.3106 -0.2428
29045W        W85286  26.762   2.107  24.618 -0.0348 -0.0031  0.0194
29046W        W85287  29.639  26.085  12.347  0.0618 -0.2188 -0.2811
29047W        W85288  20.480  18.982  19.142 -0.1299  0.1017  0.1117
29048W        W85289  19.962   6.861   4.661  0.2153  0.0334  0.0532
29049W        W85290  25.870   7.572   2.762  0.3632  0.1208  0.4625
29050W        W85291  21.859  12.056  16.641  0.3373 -0.1551 -0.1471
29051W        W85292   5.821  15.665   5.811 -0.0466  0.4051 -0.0155
29052W        W85293  31.571  23.115  24.571 -0.0985  0.1160  0.2640
29053W        W85294   2.695   8.740  15.387 -0.0370 -0.0135 -0.1423
29054W        W85295  34.359  11.397  16.388 -0.1532 -0.2507  0.0260
29055W        W85296   0.862   4.158   5.770 -0.1165  0.0042  0.1894
29056W        W85297  35.112  16.447  12.991  0.0718  0.1198 -0.0596
29057W        W85298  18.492  16.273   7.748  0.0413  0.0476  0.0064
29058W        W85299  32.017  12.008  20.390  0.6247 -0.1071 -0.3184
29059W        W85300  28.586  18.668  16.420  0.0747 -0.0611 -0.3210
29060W        W85301  26.035  22.023  19.516 -0.0467  0.0104  0.0376
29061W        W85302  23.594  19.483   0.374 -0.2004 -0.1277  0.0356
29062W        W85303  14.020  19.994  21.202  0.2972  0.1030  0.0056
29063W        W85304  28.009   1.272  20.841 -0.1122  0.0009  0.1857
29064W        W85305   5.247   9.503   7.433 -0.0807  0.1557  0.0847
29065W        W85306  14.247  10.674  19.389 -0.1397 -0.4842 -0.0145
29066W        W85307  21.435   7.211   2.427 -0.0370 -0.1569 -0.0683
29067W        W85308  14.227  34.848   0.613  0.1575 -0.0341 -0.0182
29068W        W85309   4.302   8.222  24.566  0.1140  0.0446  0.1828
29069W        W85310  33.076   8.203  19.743  0.1395  0.0406  0.0300
29070W        W85311  11.017  11.648   9.322  0.2477 -0.1136 -0.0072
29071W        W85312  12.405   9.500  26.045  0.4231 -0.2390  0.1893
29072W        W85313   2.190  10.693   1.911 -0.3686  0.0350  0.0352
29073W        W85314  12.423   8.824  14.263 -0.2346 -0.0537 -0.2283
29074W        W85315  22.326  20.715  18.774  0.1169  0.0224  0.0446
29075W        W85316  29.867  23.300  24.231 -0.0140 -0.0277 -0.0237
29076W        W85317   1.406  19.135  25.953  0.2823  0.1550  0.0682
29077W        W85318   9.028  20.014  10.063 -0.0207 -0.0781 -0.2304
29078W        W85319  34.546  33.918  18.909 -0.0738 -0.3124  0.0891
29079W        W85320  19.499  10.372  23.875 -0.1891 -0.0879  0.0985
29080W        W85321  35.109  31.275  16.483  0.0300  0.4966  0.0598
29081W        W85322   8.523  26.689  23.823  0.1962 -0.0648 -0.0692
29082W        W85323  12.352   2.369  21.756  0.1402  0.0961  0.2001
29083W        W85324  25.717  20.406  21.018  0.0005  0.1628  0.2348
29084W        W85325  10.520  24.744   8.990  0.2157  0.0761  0.1286
29085W        W85326  11.063   2.727  13.949  0.0106 -0.3792 -0.0683
29086W        W85327   1.437   0.846   5.399 -0.0730  0.2027 -0.0883
29087W        W85328  18.384   0.714  16.946 -0.2871 -0.0672  0.3364
29088W        W85329   9.108  32.506  26.140  0.0231 -0.2843 -0.0301
29089W        W85330  24.445  27.845   2.347 -0.1341  0.0508  0.0986
29090W        W85331   5.839  29.457   7.097  0.1412 -0.0602 -0.3081
29091W        W85332   5.697   4.385  10.685 -0.0645 -0.1712 -0.4229
29092W        W85333  26.653  31.994  13.627 -0.0915 -0.0593 -0.0659
29093W        W85334  24.236  22.764  23.509  0.1016  0.0493  0.1447
29094W        W85335  23.849   9.325  19.340 -0.0367 -0.1136  0.3490
29095W        W85336  29.634   5.718  23.186  0.2023 -0.1097 -0.0894
29096W        W85337  20.521  14.634  19.581  0.1056  0.0210  0.1401
29097W        W85338  22.937  13.879  25.216 -0.1055  0.0475  0.3240
29098W        W85339  25.961   0.464   6.143  0.2268 -0.1754 -0.0531
29099W        W85340   4.526   4.549  19.908  0.0082 -0.1481 -0.0301
29100W        W85341  23.843  15.910  13.217 -0.1106  0.0430  0.1331
29101W        W85342   4.330   1.904  17.764 -0.2598  0.3342 -0.2851
29102W        W85343  11.739   9.282   8.684 -0.0894  0.0923 -0.0828
29103W        W85344  22.524  25.834  18.322 -0.1974 -0.1740  0.1160
29104W        W85345  15.757  18.900   8.245 -0.1317  0.0206 -0.0429
29105W        W85346   6.371  18.149  24.020  0.1793  0.0200 -0.2507
29106W        W85347  12.971  15.137  24.642  0.0040  0.0669 -0.1194
29107W        W85348   9.237  22.517  12.419 -0.1050  0.2282 -0.1287
29108W        W85349   4.226  25.833  20.559  0.0738 -0.4036 -0.0810
29109W        W85350  30.297   3.407  18.717  0.0298  0.1161  0.0375
29110W        W85351  14.092   5.790  20.219 -0.0439  0.0231  0.3228
29111W        W85352  17.913  15.919  10.512  0.2344 -0.3501 -0.0132
29112W        W85353   6.552  25.122  24.327 -0.1701 -0.0524  0.0083
29113W        W85354  22.539  11.125  23.097 -0.0300 -0.0546 -0.1810
29114W        W85355  12.630  20.295  25.524  0.0766 -0.0125  0.1970
29115W        W85356  14.532  28.172   0.263  0.0768 -0.6035 -0.1160
29116W        W85357  13.380  28.861   8.847  0.0704  0.2209  0.1575
29117W        W85358  21.383  22.269   5.637 -0.0341 -0.3096  0.0342
29118W        W85359   0.397  27.349  17.875 -0.0553 -0.2830 -0.0016
29119W        W85360  32.584  30.585  24.222  0.2158  0.1682 -0.0372
29120W        W85361  27.645  30.540   1.042 -0.0147 -0.2087 -0.0199
29121W        W85362  32.068  33.203  14.518 -0.1714 -0.0664  0.0530
29122W        W85363  31.763  18.965  11.303  0.1082 -0.0064 -0.1824
29123W        W85364  32.843  11.842  15.564  0.2133  0.0589  0.1917
29124W        W85365  20.532  25.956  23.625 -0.0108 -0.1452 -0.0466
29125W        W85366  34.471  28.548  25.429 -0.0269 -0.0446  0.0732
29126W        W85367   7.253  28.604  10.895 -0.1771 -0.2239  0.0445
29127W        W85368   1.346  32.100  16.907  0.2557  0.1475 -0.4105
29128W        W85369   4.347  15.416  22.339  0.1832 -0.4528 -0.1323
29129W        W85370  17.355   7.661  12.541 -0.0928  0.0623 -0.1728
29130W        W85371   3.381  33.896   8.605 -0.0296 -0.1672 -0.0914
29131W        W85372   5.970  11.983  16.916  0.3040 -0.2114  0.2152
29132W        W85373  18.585  11.526  21.653  0.1986 -0.0456 -0.4409
29133W        W85374  15.020   9.097  20.127  0.0523 -0.1233  0.1708
29134W        W85375  16.173  28.880   2.691 -0.0621 -0.1715 -0.2794
29135W        W85376  12.996   2.661  20.697  0.0759 -0.2869 -0.2062
29136W        W85377  28.363   8.573  21.435 -0.0502  0.1569 -0.5320
29137W        W85378   3.790   7.566   3.121 -0.1729 -0.1463 -0.3326
29138W        W85379  30.646  25.327  11.556 -0.0188  0.0263 -0.1441
29139W        W85380   6.387  34.879  23.403 -0.3657 -0.0071 -0.3165
29140W        W85381  26.704  32.840  23.187  0.0325 -0.2407 -0.0166
29141W        W85382  18.312  20.555   3.265  0.0985 -0.1940 -0.2333
29142W        W85383   8.047  29.471   6.106  0.0923  0.1784  0.0720
29143W        W85384  24.860  14.574  21.029 -0.0704  0.0833  0.2329
29144W        W85385  31.605  25.051  19.994 -0.1931  0.1238  0.2296
29145W        W85386  19.246  26.821  25.588  0.0189  0.2027 -0.2232
29146W        W85387   8.814  26.851  22.177  0.3692  0.3049  0.2047
29147W        W85388  30.804   0.685   1.548  0.1379 -0.0043  0.1299
29148W        W85389  34.462  31.663  20.273 -0.2537 -0.1000  0.1775
29149W        W85390   2.630  21.062   2.383  0.1361 -0.3932 -0.0371
29150W        W85391  19.318  26.699   4.189 -0.2982  0.0922  0.0005
29151W        W85392  18.929  19.659   8.020  0.3303  0.0110 -0.0011
29152W        W85393  27.233  33.522  19.826  0.1985  0.0524 -0.0406
29153W        W85394  18.781  20.321  25.209 -0.0510  0.1742  0.0267
29154W        W85395  33.155  17.233  11.376  0.0352  0.1500  0.4825
29155W        W85396  22.196   8.554  18.374 -0.1114 -0.1478  0.1322
29156W        W85397   4.019  15.196  20.759 -0.1265  0.2509  0.1794
29157W        W85398  32.831  24.181  12.896 -0.0788  0.1653 -0.1585
29158W        W85399  29.717   5.814  22.040  0.2195 -0.0114  0.0097
29159W        W85400   4.168  19.938   5.274  0.0810  0.2831  0.0410
29160W        W85401  11.035  32.560  25.398  0.2395 -0.2349 -0.0615
29161W        W85402  15.500  16.794   5.912  0.2396  0.0720 -0.1311
29162W        W85403  18.184  12.795   4.570  0.2134 -0.2853 -0.1542
29163W        W85404  15.549   6.318  10.006  0.0379  0.0473  0.0379
29164W        W85405  31.798  17.254  20.481 -0.5154  0.1974 -0.2470
29165W        W85406   2.235   7.207   2.727 -0.0576 -0.0759 -0.1758
29166W        W85407  27.469  18.481  19.934 -0.1895 -0.0951 -0.4041
29167W        W85408  20.221  22.209   0.737  0.2438  0.0474 -0.1022
29168W        W85409  32.339  29.145  11.343  0.1606  0.1187  0.1486
29169W        W85410  11.584   0.246   4.268  0.3839 -0.0191  0.1143
29170W        W85411  13.028  27.516   1.774 -0.1026 -0.1707 -0.2717
29171W        W85412  34.676  14.298  23.230 -0.1573 -0.1253  0.0381
29172W        W85413  26.198  21.501  25.493 -0.0124  0.0414  0.0035
29173W        W85414   3.780  26.884   9.918  0.2006 -0.1130  0.2856
29174W        W85415   1.073  23.530  14.925  0.2629 -0.0426 -0.0827
29175W        W85416  32.557  13.766   7.318  0.0970  0.0928 -0.0838
29176W        W85417   3.225  10.883   2.236 -0.1758 -0.3837 -0.0034
29177W        W85418  14.748  21.516   8.294  0.0335  0.1038  0.2218
29178W        W85419  14.311  27.735  13.013 -0.0003 -0.0494  0.0625
29179W        W85420   6.557   8.438   9.335 -0.1744 -0.0880  0.0724
29180W        W85421  25.906  28.033  17.613 -0.3362 -0.0635  0.2542
29181W        W85422  20.335   9.488  16.152  0.4695 -0.1167  0.0778
29182W        W85423   2.756   2.988   7.299  0.0545  0.2740  0.1362
29183W        W85424   1.826  14.471  13.092  0.1535 -0.0145  0.0359
29184W        W85425   1.258   2.828  21.053 -0.0345  0.1523  0.0550
29185W        W85426  10.425  15.872   5.342  0.1221  0.1402  0.2537
29186W        W85427  31.366  12.071  12.186 -0.2468  0.2013 -0.1621
29187W        W85428  34.143   3.880  25.288 -0.0387 -0.1129 -0.2021
29188W        W85429  33.672   9.275  10.113  0.1158 -0.0671 -0.0041
29189W        W85430  23.764  24.465   0.313 -0.2041 -0.0154 -0.1391
29190W        W85431  25.678   7.318  15.767 -0.0671 -0.1538 -0.0134
29191W        W85432  34.061  13.324   1.756  0.1144  0.2155 -0.3479
29192W        W85433  12.064  31.338  21.505  0.0381 -0.0680 -0.1701
29193W        W85434  19.623   0.773  21.526  0.1175 -0.2801 -0.0075
29194W        W85435  19.550   9.896  18.923 -0.0358  0.2527  0.1922
29195W        W85436  26.439  16.137  16.875 -0.0051  0.0897  0.2641
29196W        W85437  13.894  29.884  12.534 -0.3552 -0.0183  0.2939
29197W        W85438   3.135  16.720  20.734 -0.0211 -0.4308  0.0015
29198W        W85439  24.615  10.451  25.613  0.0557 -0.1360  0.2984
29199W        W85440   3.871  12.969  24.284 -0.1644  0.1534  0.1802
29200W        W85441   8.064  27.213   0.970  0.0342  0.2865 -0.2122
29201W        W85442  31.162   4.288  19.473  0.1743 -0.0017  0.1116
29202W        W85443   8.109  20.938   5.081  0.1846  0.1530 -0.3299
29203W        W85444   6.105  15.469   2.484  0.0148  0.1330 -0.1990
29204W        W85445   0.218  13.573  22.569 -0.1570  0.0114 -0.3517
29205W        W85446   2.354  21.987   2.521 -0.0165  0.2424 -0.3382
29206W        W85447  24.403  32.001  18.510  0.1959  0.2125  0.1290
29207W        W85448  18.067  18.300   4.122  0.1116 -0.0078  0.0121
29208W        W85449  12.200  34.724   3.758 -0.1997 -0.0564  0.0281
29209W        W85450  22.078   7.004  22.884 -0.1364  0.0208  0.0982
29210W        W85451   8.556  12.364  12.340 -0.0453  0.3673  0.0201
29211W        W85452  32.952  17.209   9.421  0.1525  0.3380 -0.2242
29212W        W85453   4.139  10.623  14.552 -0.0365 -0.1913 -0.2030
29213W        W85454  26.245  14.501  17.002  0.2594 -0.2320 -0.0274
29214W        W85455  18.429  32.224   0.961 -0.1142 -0.1541 -0.2264
29215W        W85456  13.875   3.813  23.407 -0.0173 -0.2220 -0.1812
29216W        W85457  10.878  23.039   5.080 -0.0324 -0.0495 -0.0073
29217W        W85458   5.645  26.739   7.038 -0.0998 -0.0961 -0.0335
29218W        W85459  12.346   2.149  23.679  0.0225 -0.3825  0.0529
29219W        W85460  12.654  24.204  24.252  0.0457  0.2112  0.0590
29220W        W85461  20.454   1.472   0.270 -0.1592 -0.0032  0.0508
29221W        W85462  26.255  32.833  22.902 -0.4575 -0.1937  0.0642
29222W        W85463  12.334  31.457  24.810  0.0090 -0.3272  0.0664
29223W        W85464  16.856   9.717  19.077 -0.0923  0.1077 -0.1418
29224W        W85465  32.357  27.313  22.111 -0.0407  0.2057  0.0796
29225W        W85466   9.335  35.110   0.091  0.1919  0.0774  0.3372
29226W        W85467  31.626  13.666   9.629 -0.0744  0.1494  0.1367
29227W        W85468  34.113  23.763  14.041 -0.2780  0.0870 -0.1099
29228W        W85469  19.458  27.318   4.913 -0.3473  0.2286  0.0276
29229W        W85470  19.927  26.309  25.052 -0.3040  0.2701  0.2045
29230W        W85471  24.211   8.339  19.227  0.1414  0.0385 -0.1872
29231W        W85472  20.291   0.261  15.406  0.0987  0.0198 -0.3631
29232W        W85473  16.359  11.067   8.365  0.2435 -0.1526 -0.2617
29233W        W85474  18.683  13.767   3.873  0.1349  0.0736  0.3029
29234W        W85475  29.384  16.131   4.397 -0.2767  0.0522 -0.0383
29235W        W85476  19.921  11.930   7.382 -0.2221  0.1383  0.0414
29236W        W85477  15.792   5.555  21.966 -0.0409  0.0898 -0.0365
29237W        W85478  16.671  17.163   3.867 -0.2875  0.0383 -0.1263
29238W        W85479   6.134  28.622   9.007  0.2071 -0.0685 -0.0686
29239W        W85480   6.249   9.615   5.281 -0.2585  0.0249 -0.3221
29240W        W85481  30.522  15.190   5.899 -0.1238 -0.1545 -0.0502
29241W        W85482  28.566  28.281  11.248  0.0366  0.0369  0.3526
29242W        W85483  25.437  16.288  19.775  0.1682  0.2913  0.0481
29243W        W85484  22.449   9.494  20.972 -0.1722 -0.3984 -0.0794
29244W        W85485  11.288   1.260  23.623 -0.1243  0.3966 -0.2782
29245W        W85486  27.000  20.327  11.461  0.2119  0.4038  0.2881
29246W        W85487  11.617  30.262  23.299 -0.2302 -0.0376 -0.0686
29247W        W85488  24.518  15.767  11.715  0.2019  0.1193  0.1666
29248W        W85489  34.958  34.043  25.437 -0.1794 -0.1590 -0.0755
29249W        W85490  12.762   2.167  19.372  0.3856  0.2910 -0.2912
29250W        W85491  13.520  13.798  13.712  0.1558 -0.3480 -0.0979
29251W        W85492  11.393  21.702  14.085 -0.1053  0.1442  0.0679
29252W        W85493  15.877   2.578   1.881 -0.0814 -0.0156 -0.2228
29253W        W85494  18.570  16.296  25.759  0.1696  0.3091 -0.0166
29254W        W85495  28.480  19.227  10.605 -0.1457 -0.0643 -0.1275
29255W        W85496  19.576   3.870   2.927 -0.1168 -0.2369 -0.3213
29256W        W85497  12.654   6.785   2.326  0.3864 -0.3219 -0.0300
29257W        W85498   4.642  31.011  12.743  0.3092 -0.2127  0.1980
29258W        W85499  13.015  17.573  12.676 -0.1344 -0.2050  0.0216
29259W        W85500  14.334   1.744   6.431 -0.1957 -0.1279 -0.1183
29260W        W85501   2.305   8.084  20.449  0.0754  0.1528 -0.0666
29261W        W85502   3.030  22.226  24.214  0.0496 -0.0343  0.2095
29262W        W85503   0.288  17.077  12.325  0.2204  0.1634  0.0403
29263W        W85504   5.400   2.586   2.084  0.3480 -0.2475 -0.2317
29264W        W85505  13.476  35.291  22.930  0.0064  0.1451  0.0251
29265W        W85506  13.775   4.074  10.106  0.3463 -0.1807  0.0920
29266W        W85507   1.902  22.684  13.794 -0.3683  0.2581  0.1939
29267W        W85508  10.448  15.440  23.981 -0.0909  0.0738  0.4850
29268W        W85509  31.675   3.384  20.528  0.1370 -0.3341 -0.2460
29269W        W85510  10.266  21.636   2.935 -0.0675 -0.0034  0.1068
29270W        W85511  23.267   9.806  20.378  0.1243  0.3928 -0.1202
29271W        W85512  35.195  28.343  25.808 -0.0715  0.0763 -0.0183
29272W        W85513  21.567   2.846  21.567  0.2682 -0.0523  0.0325
29273W        W85514  32.441  31.773  17.136 -0.0353 -0.2721  0.1413
29274W        W85515  31.939  10.150  13.821  0.0612  0.0118 -0.0375
29275W        W85516  10.230   3.382  13.309  0.1653  0.1386 -0.2090
29276W        W85517   8.697  20.763   0.533  0.1335  0.0253 -0.1393
29277W        W85518  25.455  16.957  18.065 -0.1202 -0.2666 -0.1279
29278W        W85519   2.856   5.619  25.732 -0.0393 -0.0428 -0.2247
29279W        W85520  17.513   2.665   8.806 -0.1722 -0.0333 -0.0106
29280W        W85521  11.090   7.016   2.567 -0.0466 -0.2024 -0.4393
29281W        W85522  21.892  11.863  21.350  0.4888  0.0338  0.1628
29282W        W85523  13.546  29.904   8.816 -0.0308 -0.1688 -0.1017
29283W        W85524  26.798   7.772   9.508  0.0297 -0.0553 -0.3103
29284W        W85525  13.664  35.368   9.580 -0.1847 -0.0537  0.0547
29285W        W85526  19.755   3.814  25.067  0.1050 -0.1263  0.2232
29286W        W85527   5.816  27.777  25.588  0.2362 -0.0676 -0.2825
29287W        W85528   6.922  22.874  20.773 -0.0269 -0.1179 -0.1113
29288W        W85529  17.011  21.590   5.900  0.1517 -0.3350 -0.1371
29289W        W85530  21.238  35.170   3.896 -0.1983 -0.2217  0.2126
29290W        W85531  31.563  30.037  14.175 -0.1390  0.1918  0.0019
29291W        W85532  26.877  34.930  21.308  0.0254  0.0915  0.1537
29292W        W85533  13.894  30.034   6.433 -0.2163  0.1341 -0.0332
29293W        W85534  28.074   1.650  25.258  0.3700  0.1610  0.3187
29294W        W85535  17.111  15.752   3.365 -0.0460  0.0188 -0.4594
29295W        W85536  34.352  17.153   0.774 -0.0951  0.1119  0.1201
29296W        W85537  16.853  34.171  20.076  0.0047  0.0268 -0.0597
29297W        W85538  11.004  15.945  22.405  0.2144  0.1949  0.1371
29298W        W85539   3.600  34.985  11.231 -0.0520 -0.1645 -0.0531
29299W        W85540  16.089   9.664  25.501  0.0612 -0.4941 -0.1757
29300W        W85541  13.195   3.390   4.574 -0.0005  0.1166  0.1028
29301W        W85542  29.627  23.771  22.761  0.0904  0.0332  0.1457
29302W        W85543  18.848  31.906  17.760  0.0755  0.1929 -0.0884
29303W        W85544  18.995   8.112   5.413  0.0211 -0.1556 -0.1384
29304W        W85545  24.473   8.820  24.624 -0.1479 -0.3230  0.0175
29305W        W85546  19.795   8.006   6.785  0.0498  0.0870 -0.4866
29306W        W85547  27.179  13.494   8.722 -0.3014  0.3054 -0.0784
29307W        W85548  20.975  17.185   1.489  0.0931 -0.1390  0.0861
29308W        W85549  32.168  15.117  18.597  0.1931  0.1307  0.1028
29309W        W85550  25.467  17.318   8.286  0.2231  0.1012  0.1216
29310W        W85551  32.638  11.453  15.234 -0.0296  0.1895 -0.3055
29311W        W85552  14.007  16.512  21.560 -0.2129  0.0373  0.1765
29312W        W85553   3.392   7.436  21.496  0.1413  0.2274 -0.0514
29313W        W85554  28.494   1.989  22.939 -0.1308  0.4197 -0.2636
29314W        W85555  21.769   3.051   4.345  0.0886  0.2682 -0.0471
29315W        W85556  34.097  21.653  12.917  0.0317  0.0091  0.1594
29316W        W85557  33.904  27.374  23.530 -0.1038 -0.1035 -0.3381
29317W        W85558  15.285   5.301   4.666  0.2393  0.0772 -0.4071
29318W        W85559  32.522  24.674  16.420  0.1505  0.3914  0.0634
29319W        W85560  17.976  21.921   7.037 -0.0287  0.2226  0.2987
29320W        W85561  16.866   4.328   2.967  0.1026 -0.1385 -0.0666
29321W        W85562  17.269  20.912   2.601  0.0223  0.0211  0.0816
29322W        W85563  35.360  29.568   7.168  0.0250  0.0211  0.3476
29323W        W85564  32.722  24.004  23.612  0.2540 -0.0499  0.1688
29324W        W85565   6.821   3.858   0.094 -0.0330 -0.2662 -0.0764
29325W        W85566  16.329  15.896   6.835 -0.1225 -0.1543  0.0829
29326W        W85567  24.636   4.116  16.755  0.0791 -0.2275 -0.1903
29327W        W85568   7.311  10.903  25.858  0.0792  0.0325 -0.2448
29328W        W85569   4.884  18.502  17.922  0.2135 -0.1818  0.1680
29329W        W85570   5.792   9.420   5.405 -0.2855 -0.0169  0.4429
29330W        W85571  18.611  34.249   8.698 -0.1688  0.1863  0.0268
29331W        W85572  22.716  15.195  19.904  0.3441 -0.1121  0.0812
29332W        W85573   7.350  26.011   6.654  0.2153 -0.0769  0.2443
29333W        W85574  30.501   1.614  25.983 -0.2638  0.3154  0.0795
29334W        W85575   3.309   3.341  18.524 -0.3506 -0.1317 -0.0925
29335W        W85576   2.122  17.744  19.556 -0.1182 -0.2071  0.1431
29336W        W85577  23.940   1.804   0.774 -0.0073  0.0220 -0.0730
29337W        W85578  33.922   7.802   1.593  0.2775 -0.2846 -0.0604
29338W        W85579   6.081  10.531  10.563 -0.0836 -0.2062  0.1573
29339W        W85580   0.364   4.635  18.089 -0.0919 -0.3729  0.0121
29340W        W85581  30.145  13.646  10.172  0.1388  0.2669 -0.0491
29341W        W85582  11.608  13.434   2.481 -0.1487 -0.2501  0.1732
29342W        W85583  28.969  14.020  25.414 -0.1455 -0.0736 -0.2526
29343W        W85584  13.099  10.967   7.505  0.1959 -0.2974 -0.3934
29344W        W85585   3.290   6.974   0.726 -0.1234  0.0233  0.3145
29345W        W85586   4.689   4.832   4.259 -0.0442 -0.1001 -0.0117
29346W        W85587  14.096  11.619   5.497 -0.0945 -0.3346 -0.2530
29347W        W85588   6.341  12.810  24.332 -0.1691  0.1806  0.1129
29348W        W85589  21.975   5.248  25.999  0.2000  0.0387  0.0568
29349W        W85590   8.280   7.315   7.367  0.0889 -0.1172  0.3576
29350W        W85591   6.144   9.379   2.523  0.0614 -0.0489 -0.0639
29351W        W85592  30.437  31.862  19.766 -0.1934 -0.3263  0.3541
29352W        W85593  32.697  20.517   7.752 -0.0205 -0.1571  0.0149
29353W        W85594  34.377  34.424  19.173  0.1779  0.2244 -0.2141
29354W        W85595  22.838  31.449  15.005 -0.2355 -0.0441  0.1457
29355W        W85596   6.156  16.752  18.874  0.0338  0.0718 -0.2287
29356W        W85597  25.572  29.723   0.723  0.2691 -0.0287 -0.0217
29357W        W85598  12.061   0.711   9.542 -0.2195 -0.1672  0.0845
29358W        W85599   8.132  15.839   5.831 -0.1559 -0.4234  0.0397
29359W        W85600  21.414  30.369   6.576  0.1621 -0.2432 -0.1854
29360W        W85601  25.680  30.109  16.987 -0.2492  0.2263 -0.0122
29361W        W85602   1.130   7.928   3.702  0.1310  0.0765 -0.0194
29362W        W85603  30.014  25.729  24.598 -0.2267  0.1023 -0.0868
29363W        W85604  24.517  15.385  21.110  0.2070 -0.0546 -0.0100
29364W        W85605  16.728  15.978  18.749 -0.1593 -0.0250  0.1041
29365W        W85606  30.897  30.321  18.328 -0.0597 -0.0722 -0.0063
29366W        W85607  32.266  32.309  17.940 -0.0192 -0.1715 -0.1329
29367W        W85608  30.535  32.363  12.973  0.0220 -0.0240 -0.1379
29368W        W85609  10.783  12.086   1.639 -0.2643  0.0631 -0.0162
29369W        W85610  25.028  10.207  19.917  0.0022  0.2213  0.2538
29370W        W85611   5.935  30.792   7.033 -0.0170 -0.0483 -0.0599
29371W        W85612  26.040  28.783  10.307  0.0566  0.1487  0.0942
29372W        W85613   2.457  35.361  22.807  0.0907 -0.4146  0.1403
29373W        W85614  28.446  25.894  20.252  0.0024  0.2855 -0.0719
29374W        W85615   8.536  13.650  25.428  0.2434 -0.0426  0.1074
29375W        W85616   9.003  27.858   4.430  0.0539 -0.2368  0.0332
29376W        W85617  15.790  27.715   2.036 -0.2427 -0.2537 -0.0898
29377W        W85618  24.550  35.284  18.033 -0.0666 -0.1755 -0.3358
29378W        W85619  28.793  11.494  11.132 -0.2811 -0.1106  0.1863
29379W        W85620   8.173  24.690  17.225 -0.0214  0.0786  0.2636
29380W        W85621   5.078  19.332   3.096  0.0225 -0.0269  0.1329
29381W        W85622  29.307  19.790  17.629  0.0842  0.2303 -0.3810
29382W        W85623  27.068   0.484   3.463 -0.0667  0.1725 -0.0475
29383W        W85624   7.088  22.852  25.614 -0.1313 -0.1686 -0.0765
29384W        W85625   2.565  31.578   8.583 -0.0588 -0.1267 -0.2356
29385W        W85626  20.366   6.061  21.301  0.0254  0.0168  0.1669
29386W        W85627  11.656  17.158   0.266  0.0411 -0.0408  0.0938
29387W        W85628  35.091   3.184   3.781  0.0391 -0.1829 -0.1198
29388W        W85629  29.483  30.970  16.583 -0.0865  0.2095 -0.1877
29389W        W85630  15.211   4.666   1.894  0.2092  0.0369  0.0201
29390W        W85631  27.396  18.808  11.320 -0.0006 -0.1407 -0.0304
29391W        W85632  11.028  18.785  25.574 -0.1060  0.0581 -0.5333
29392W        W85633  10.722  10.563   1.725 -0.1268  0.1610 -0.0770
29393W        W85634  20.223  13.476  21.125  0.1746 -0.0466  0.2473
29394W        W85635  18.438   8.677   3.303 -0.0671  0.0103 -0.1689
29395W        W85636   4.093   0.181   1.766  0.1375 -0.1555  0.1015
29396W        W85637  11.516  21.295  11.144  0.1494 -0.3050  0.2513
29397W        W85638   9.511   1.661   6.927  0.3280  0.3201  0.3245
29398W        W85639   8.625  26.185  12.053 -0.0167  0.1643 -0.1365
29399W        W85640  16.170  28.165  25.276  0.0720 -0.0939  0.4659
29400W        W85641  17.377  14.607   7.201 -0.1273  0.1679  0.1578
29401W        W85642  20.247  13.845  17.805 -0.0087 -0.1533 -0.1494
29402W        W85643  30.036  11.981  24.344 -0.1044 -0.0391  0.1121
29403W        W85644  15.764  18.543  25.018 -0.0781  0.0010 -0.1557
29404W        W85645  33.917  31.350  15.269  0.1809 -0.1669 -0.4134
29405W        W85646  27.558  13.145  14.970  0.0687  0.2676 -0.0554
29406W        W85647  13.845  34.512   4.199  0.0919 -0.1669 -0.1644
29407W        W85648   1.096   1.852  15.565 -0.0609  0.3521 -0.2887
29408W        W85649  16.996  10.989  19.682 -0.0518 -0.2600 -0.0517
29409W        W85650  23.262  14.822  22.120 -0.1723 -0.4125  0.0827
29410W        W85651  11.687  34.929   4.722  0.1178  0.0930 -0.0946
29411W        W85652  23.116  20.673  22.460 -0.0242 -0.1067 -0.0820
29412W        W85653  14.110  11.195  25.751 -0.1189  0.1990 -0.0978
29413W        W85654  32.853  10.939  12.095  0.1285 -0.0066  0.3374
29414W        W85655  31.495   3.700   2.222  0.0521  0.0781  0.1485
29415W        W85656   5.734   7.013  11.817 -0.3397 -0.1147 -0.3265
29416W        W85657   9.981   5.823  21.942  0.0665 -0.1090 -0.0745
29417W        W85658  10.916  10.434  20.120  0.1593  0.0990  0.0093
29418W        W85659  10.887  25.752  25.174 -0.1240  0.0770  0.2702
29419W        W85660  14.790  22.927  10.803 -0.2352  0.2240  0.2113
29420W        W85661   4.226  12.282  17.322 -0.1824  0.0036  0.1101
29421W        W85662  25.121  15.108  12.898  0.1557  0.1358 -0.0351
29422W        W85663   2.835  14.109  24.662  0.3721  0.2044  0.2267
29423W        W85664  19.693   2.360  20.435  0.0469  0.0785 -0.3727
29424W        W85665   9.512  13.645   2.897  0.0173  0.0094  0.4847
29425W        W85666   9.426  11.514   5.562  0.0027 -0.0049  0.0375
29426W        W85667  25.397  15.292  23.358  0.0974  0.1688 -0.0796
29427W        W85668  24.219  31.820  21.134  0.2364 -0.1078 -0.0124
29428W        W85669  17.714   2.798  23.769  0.0282  0.1503 -0.0925
29429W        W85670   1.176   5.551   2.883 -0.3605 -0.0652  0.0281
29430W        W85671  24.142  29.666  20.605 -0.4076  0.2284 -0.1912
29431W        W85672  11.056  35.224  22.069 -0.2603  0.3120  0.1043
29432W        W85673   4.421   6.030  24.919 -0.1467  0.0615 -0.0313
29433W        W85674   7.940  14.539   7.744  0.0729 -0.1077 -0.2132
29434W        W85675  10.429  33.206  25.181 -0.0093  0.0077  0.1151
29435W        W85676  31.405  10.670  18.836  0.0701 -0.0812 -0.1101
29436W        W85677  19.495  30.354   2.419  0.0690 -0.0774 -0.0593
29437W        W85678  33.232   1.492  23.680 -0.2033 -0.3135 -0.0735
29438W        W85679  13.237  30.586  16.215  0.0714 -0.3129  0.0841
29439W        W85680   5.013  17.387  25.945  0.1089 -0.0454 -0.0751
29440W        W85681  13.269  17.595  22.671  0.2928 -0.1463 -0.1291
29441W        W85682   9.433  31.418  22.761  0.6905  0.1199  0.0015
29442W        W85683  32.332  20.238   8.007  0.1003 -0.0243 -0.0026
29443W        W85684  21.371  11.390   5.135 -0.0027  0.1598 -0.1017
29444W        W85685  17.504  19.867   9.111  0.0485 -0.3050 -0.3442
29445W        W85686  31.130  20.438  10.377  0.0411  0.1618 -0.0729
29446W        W85687  27.209  14.790   9.929  0.2040  0.2937  0.0864
29447W        W85688   3.795  20.265   4.126  0.0110 -0.0802  0.2509
29448W        W85689  11.278  10.111   4.213  0.0762  0.4795 -0.0486
29449W        W85690   0.886   8.013  25.668  0.2421  0.1522  0.1508
29450W        W85691   7.296  25.816   7.098 -0.2480 -0.1092 -0.1730
29451W        W85692  15.438  18.347  14.903  0.0223 -0.0478  0.0217
29452W        W85693  26.751  23.306   0.931  0.3065 -0.1349  0.1439
29453W        W85694  19.238   1.023  25.888  0.0345 -0.2560  0.1813
29454W        W85695  13.585  35.311   7.816 -0.0294 -0.1861  0.2525
29455W        W85696  30.645   9.773  11.475  0.1011 -0.0760  0.0040
29456W        W85697  24.238  33.668  13.613 -0.2907  0.1282 -0.1425
29457W        W85698  30.644  28.196  17.386  0.1577 -0.1162 -0.0245
29458W        W85699   8.630   6.993  11.446 -0.2274  0.0637  0.3884
29459W        W85700  19.505  27.256   2.780 -0.0129  0.0976  0.3162
29460W        W85701   1.386   4.971  17.345 -0.0163 -0.3167 -0.3179
29461W        W85702   2.747   9.056  23.939  0.1606 -0.0611 -0.1823
29462W        W85703  21.251  30.447   2.241 -0.1031 -0.1366  0.0783
29463W        W85704   8.586  20.531  14.742 -0.0605  0.0858  0.1469
29464W        W85705  19.628  21.163  20.318 -0.0517  0.0709 -0.1268
29465W        W85706  21.399  23.276  20.348 -0.0347  0.1301 -0.0478
29466W        W85707   1.679  34.917   6.530 -0.2539 -0.0636 -0.2769
29467W        W85708  31.400   2.535   1.040  0.0163  0.0112 -0.3766
29468W        W85709   0.954  20.082  13.306  0.1581 -0.0331  0.0081
29469W        W85710  31.334  25.225  21.397  0.2230 -0.1937 -0.0526
29470W        W85711  21.640  21.759   3.534 -0.1681  0.0532  0.1326
29471W        W85712   2.560  20.545  24.402  0.1364  0.2987  0.1604
29472W        W85713  35.332  31.314   5.450 -0.1616 -0.0093 -0.1909
29473W        W85714  28.718  30.310  23.568  0.0328 -0.2385  0.2195
29474W        W85715  22.755  18.552  20.870  0.0108 -0.0135 -0.2511
29475W        W85716   1.215  23.890  22.285  0.2768  0.0903 -0.0467
29476W        W85717  27.971  18.680  12.448  0.3632 -0.2530 -0.0218
29477W        W85718  14.966  29.365   3.520 -0.1216 -0.2288 -0.0984
29478W        W85719  28.909  32.608  14.498 -0.0903 -0.0947 -0.0777
29479W        W85720  30.416   3.116  25.200 -0.0081 -0.1661 -0.3037
29480W        W85721  33.344  12.520  15.526  0.1565 -0.2943  0.1314
29481W        W85722   2.488  14.586  19.883  0.1543 -0.1138 -0.0135
29482W        W85723  18.226  15.488   7.114  0.0709  0.4514  0.1054
29483W        W85724  16.110  29.213   7.584  0.2381  0.0639  0.0667
29484W        W85725  31.663  32.718  12.824 -0.2030 -0.1546  0.1260
29485W        W85726   3.784  17.563  16.091 -0.2008 -0.0466 -0.2684
29486W        W85727   8.585   6.619  24.324 -0.1814 -0.2632  0.2512
29487W        W85728   3.002  13.646   2.121 -0.1354  0.4406 -0.0977
29488W        W85729  30.657   9.324   8.271 -0.2762 -0.1390  0.1084
29489W        W85730   5.319  17.831  24.874  0.3555  0.1784  0.1342
29490W        W85731  25.088  17.265  22.886  0.0634 -0.0520 -0.0572
29491W        W85732  34.418  19.219  14.356 -0.0786  0.2044  0.1193
29492W        W85733  14.273   9.051   9.384  0.1759  0.0966  0.3643
29493W        W85734  16.981   6.808   4.570  0.2913 -0.2154  0.1625
29494W        W85735  13.569  23.558  22.621 -0.3591 -0.3956 -0.2067
29495W        W85736   2.199   0.257  22.405 -0.1303  0.0948  0.1012
29496W        W85737  21.318   4.431  16.854  0.0738  0.0002  0.1218
29497W        W85738   7.590  18.416  25.042  0.4959 -0.2539  0.0611
29498W        W85739  29.203  19.846  16.631  0.2153  0.1029 -0.2686
29499W        W85740  27.632  19.363  23.192 -0.3476  0.4174 -0.0579
29500W        W85741  21.897  30.038  24.957  0.0688 -0.1824 -0.2033
29501W        W85742   9.936   7.929   8.144  0.2873  0.0898  0.3540
29502W        W85743  18.527  35.211  25.151  0.1529  0.3022  0.0298
29503W        W85744  18.427   9.697  17.501  0.1440  0.0080 -0.1529
29504W        W85745   6.888  10.342   4.363 -0.1509 -0.1806  0.1094
29505W        W85746  30.647  20.716   8.960 -0.2417  0.2636  0.0120
29506W        W85747  15.626  27.647  13.193 -0.0665 -0.2137 -0.2368
29507W        W85748  12.720   4.183   1.097 -0.0806 -0.1788  0.2244
29508W        W85749  18.640   2.137   1.375 -0.0785  0.0874 -0.1668
29509W        W85750   0.421  23.467  15.626 -0.3508  0.0235 -0.0275
29510W        W85751  28.691  25.719   0.409  0.2817  0.0574  0.3393
29511W        W85752  22.693  21.510  14.269  0.2765  0.0909 -0.2861
29512W        W85753  24.787  21.460  20.007 -0.1940 -0.1776  0.0140
29513W        W85754  16.292  21.108  10.256 -0.2479 -0.0689  0.2411
29514W        W85755  10.962  35.104  10.849 -0.1119 -0.2254 -0.2484
29515W        W85756  11.449  17.735   8.924  0.1182  0.0963 -0.3094
29516W        W85757  12.825  15.555  22.437 -0.0915  0.1268  0.2073
29517W        W85758  34.606  20.151   8.385 -0.2916  0.1009 -0.0227
29518W        W85759  13.268   0.441  10.384  0.0270  0.2475 -0.0314
29519W        W85760  20.776  19.629  24.481 -0.2544  0.0164  0.2357
29520W        W85761  11.192  27.408  16.267  0.1886 -0.2564 -0.3224
29521W        W85762  32.704  16.782  10.273  0.2492  0.2896  0.0018
29522W        W85763  24.848  10.739  19.734  0.0158 -0.3526 -0.1598
29523W        W85764   7.367   9.485  23.303 -0.2017 -0.2100  0.0970
29524W        W85765   2.851  23.126  25.756 -0.0919  0.2400  0.0350
29525W        W85766   4.688   9.925   9.708 -0.1155 -0.2325  0.1041
29526W        W85767  15.854  25.664   9.134 -0.1476  0.2313  0.1688
29527W        W85768  20.091  23.147   6.014  0.0412 -0.2147 -0.1256
29528W        W85769  28.101  23.846   0.985  0.3095  0.1644 -0.1367
29529W        W85770  29.117   0.361  22.512 -0.1116 -0.0130 -0.0549
29530W        W85771  28.514  21.553   7.257  0.0060 -0.1827  0.1284
29531W        W85772  25.256  14.379  10.937  0.0871 -0.0961  0.1448
29532W        W85773  10.061  34.506  25.135 -0.2449  0.0937  0.1126
29533W        W85774  26.321   9.781  16.080  0.1439 -0.3946  0.2069
29534W        W85775  15.077  23.536   7.517  0.0581  0.0635  0.3861
29535W        W85776  32.886  18.945  16.042  0.1289  0.0278 -0.1141
29536W        W85777  10.095   4.605  11.264 -0.3275 -0.1808 -0.3082
29537W        W85778  31.968   1.658  25.083 -0.2672 -0.0983  0.0697
29538W        W85779  28.158  20.814  17.077  0.1604 -0.1068 -0.1677
29539W        W85780  24.506  22.549  24.864  0.1669 -0.1499  0.1579
29540W        W85781  27.584  23.004  24.736 -0.1707  0.2035  0.3178
29541W        W85782  16.271  16.937   1.080  0.1263  0.1846  0.2323
29542W        W85783  10.527  24.315   1.228  0.1667 -0.3242  0.2082
29543W        W85784   6.851   8.001  11.058  0.0331  0.1854 -0.1480
29544W        W85785   5.708  29.235   9.235 -0.1308  0.0590  0.2133
29545W        W85786  32.287  13.230   9.396  0.1845  0.0316 -0.1321
29546W        W85787  18.780  33.206  17.595 -0.0920  0.0174  0.0847
29547W        W85788  14.910  18.282  22.216 -0.0640  0.2266  0.0629
29548W        W85789   8.693  30.945  10.049 -0.0767 -0.0619  0.0567
29549W        W85790   1.546  26.669  19.502 -0.1854 -0.2118  0.0951
29550W        W85791  13.990  21.004  12.043 -0.0436 -0.0883  0.0414
29551W        W85792  32.802   4.988  21.102 -0.1040 -0.0212 -0.2002
29552W        W85793   8.769  25.596  11.090  0.1441  0.1509 -0.2049
29553W        W85794  16.073  10.534  18.428  0.3271 -0.1106  0.1229
29554W        W85795   7.445  23.393  14.544  0.3398  0.0947  0.1197
29555W        W85796   3.291  33.530  19.642 -0.0880  0.2839 -0.0237
29556W        W85797  21.345  31.624   4.898  0.1113 -0.0165 -0.2500
29557W        W85798  19.900  30.089  19.492 -0.0323 -0.3297 -0.0266
29558W        W85799  13.301   3.242   3.113  0.3875 -0.1265  0.0069
29559W        W85800  11.343   5.831  20.121  0.1237 -0.0452 -0.4051
29560W        W85801  25.950  28.801  20.618  0.1826 -0.1569  0.0382
29561W        W85802  23.135  10.985  23.954  0.2007 -0.1070 -0.2852
29562W        W85803   0.104  23.688   2.479  0.0380  0.2071 -0.0968
29563W        W85804   2.341   3.020   7.671  0.1811 -0.0439  0.0005
29564W        W85805  23.445  10.884   0.816  0.0139  0.1151  0.1663
29565W        W85806  10.232   6.120  12.185  0.1093  0.3867 -0.1863
29566W        W85807   3.568  16.454   0.992 -0.0502 -0.0933 -0.1318
29567W        W85808  12.121  18.372   0.883 -0.0933  0.3019 -0.1887
29568W        W85809  13.193  20.881   4.319 -0.2522  0.2601  0.1749
29569W        W85810  30.130   7.092  17.461 -0.0181 -0.4419  0.0191
29570W        W85811  28.675   2.740  24.568 -0.2226 -0.0795 -0.1474
29571W        W85812  19.978   3.658  18.328  0.0623  0.0209  0.1934
29572W        W85813   9.769  25.586  10.515  0.1502  0.0499 -0.2250
29573W        W85814  17.392  35.052   8.361  0.0076  0.3022 -0.3154
29574W        W85815  33.742  29.808  15.122  0.0243 -0.0238  0.1913
29575W        W85816   7.265   2.439  23.588  0.0161  0.1239  0.2492
29576W        W85817  32.950  14.472   0.900 -0.1068 -0.1677  0.3741
29577W        W85818  12.764  32.839   1.451 -0.2128  0.2061 -0.2221
29578W        W85819  25.144  26.339  22.108  0.2061 -0.1762 -0.0642
29579W        W85820  13.502  10.377  13.302  0.2386 -0.2152  0.2167
29580W        W85821  27.812  10.691  16.425 -0.1311  0.0627 -0.0256
29581W        W85822  19.932  26.150  19.589  0.0134 -0.1924  0.4841
29582W        W85823  12.926  30.004  26.181  0.1968  0.3320 -0.2305
29583W        W85824  34.851  10.598  15.335 -0.1337  0.2892 -0.2723
29584W        W85825  23.304  31.274   1.044  0.0281  0.5071 -0.0389
29585W        W85826  13.013  13.624  24.326 -0.1827 -0.0551 -0.0278
29586W        W85827   9.716  11.249  13.893  0.0177 -0.0067 -0.3375
29587W        W85828  20.607  12.857  21.630 -0.3629 -0.3713 -0.2942
29588W        W85829   2.984  12.476   4.785 -0.2126  0.0169 -0.2319
29589W        W85830  31.931  12.035  15.373 -0.2144 -0.2826 -0.0567
29590W        W85831   1.773   1.886   3.575  0.1117 -0.1913  0.0642
29591W        W85832  12.741  18.643  10.815 -0.0349  0.0687  0.2705
29592W        W85833   2.138   4.043  25.488  0.0205 -0.0636 -0.0999
29593W        W85834  15.963  22.546  14.883 -0.0138  0.1235 -0.0131
29594W        W85835  34.891  24.024  20.072 -0.1643  0.1241 -0.0816
29595W        W85836   3.811   5.047   1.306 -0.0629 -0.2812 -0.0244
29596W        W85837  29.160   6.059   2.230  0.2604 -0.1779 -0.2662
29597W        W85838   9.538   0.252   0.124  0.0885 -0.1823  0.3237
29598W        W85839   2.154   3.372  25.081 -0.1160 -0.1647  0.2219
29599W        W85840  17.644   7.079  18.875  0.0589  0.0290  0.1180
29600W        W85841   6.869   6.144  25.845  0.1161 -0.2631  0.0009
29601W        W85842  17.553   6.133  21.906 -0.1544  0.0097 -0.3394
29602W        W85843   6.838  29.209   1.454 -0.0694  0.1745 -0.0115
29603W        W85844  25.668  19.972  20.392  0.0134  0.1454  0.1803
29604W        W85845  10.944  17.496  20.185 -0.2069  0.1362 -0.1878
29605W        W85846  20.852   6.639   1.670 -0.0768 -0.2833  0.2331
29606W        W85847  14.004  12.228  11.787 -0.0079 -0.0327 -0.1150
29607W        W85848  11.882   4.583   8.648  0.0576  0.0362 -0.0673
29608W        W85849  27.291  23.664  17.303 -0.2916 -0.0130 -0.1380
29609W        W85850  13.471  27.754   8.865 -0.0261  0.1441 -0.3666
29610W        W85851  11.085  16.332  21.649  0.1384 -0.0247 -0.6680
29611W        W85852  28.999  30.181  22.577 -0.2922  0.1350 -0.0346
29612W        W85853  30.440  11.794  21.325  0.0013  0.2665  0.0763
29613W        W85854  20.506   9.121   9.485 -0.1566  0.0331 -0.0646
29614W        W85855  23.770  10.644  12.569 -0.1786 -0.2822 -0.0419
29615W        W85856  25.407  21.422  26.072  0.5207 -0.1539  0.1275
29616W        W85857  26.410  17.103  18.181 -0.1901  0.0025  0.0719
29617W        W85858  19.235  13.030  22.740  0.2592 -0.3900 -0.2639
29618W        W85859  12.368   2.585   3.730  0.1896 -0.1505 -0.5600
29619W        W85860  19.974  30.256   5.161 -0.3202  0.4603  0.2712
29620W        W85861  34.901  34.276  20.380 -0.0464  0.3224 -0.0730
29621W        W85862  13.920  14.774  10.479 -0.2715 -0.1223  0.1070
29622W        W85863  35.155  23.013  12.333  0.1617  0.1085 -0.3052
29623W        W85864  15.256  26.179   0.715  0.1267 -0.1345  0.0021
29624W        W85865  18.767   7.416  25.897 -0.0675  0.0188 -0.2055
29625W        W85866  25.980  21.593  12.045  0.0283  0.2625  0.0495
29626W        W85867  30.719   2.337  14.024  0.0711 -0.2365 -0.0693
29627W        W85868  21.632   3.990   2.880 -0.3215 -0.1202  0.1274
29628W        W85869  12.902  18.755  14.537  0.3576  0.0300 -0.0024
29629W        W85870  20.354   3.420  16.832  0.4468 -0.1330  0.0969
29630W        W85871  25.644  31.223  20.094  0.0743  0.1596  0.3068
29631W        W85872   9.128  12.197   8.488 -0.0185 -0.2334 -0.3481
29632W        W85873  10.874  17.687   5.723  0.0031  0.1115 -0.3682
29633W        W85874  13.863   3.412   0.804 -0.0497  0.4495  0.0622
29634W        W85875  26.238   3.531  14.138  0.0351 -0.0784 -0.1454
29635W        W85876   0.182  32.384  15.648  0.0885 -0.3173 -0.1733
29636W        W85877  19.891   2.063  15.622 -0.0974  0.1836 -0.0420
29637W        W85878   1.143  13.660  18.579  0.0173 -0.1949 -0.0662
29638W        W85879   5.864   9.492  18.051  0.5109  0.0226 -0.0498
29639W        W85880   0.489   2.155  24.295  0.0284 -0.1621 -0.2121
29640W        W85881  27.638   4.254  14.355  0.0141  0.1510 -0.1170
29641W        W85882  27.669  10.692  20.687  0.0896  0.3664  0.2623
29642W        W85883  32.643  25.552  25.669  0.3559  0.1245 -0.3913
29643W        W85884  27.144   6.687  17.755  0.1156  0.0204 -0.0892
29644W        W85885  31.757  15.403  13.810  0.1311  0.0842 -0.2409
29645W        W85886   1.575  25.623   4.048  0.1396 -0.0718 -0.0970
29646W        W85887  13.020  10.060  19.699 -0.4286 -0.6835 -0.0886
29647W        W85888   8.547  15.987   5.187 -0.0587  0.1078  0.3010
29648W        W85889  20.542   0.250   3.313 -0.0591  0.1543 -0.1675
29649W        W85890  11.084  24.459  14.370 -0.0881 -0.0861 -0.1506
29650W        W85891   7.614  13.019  10.308 -0.0314 -0.0142  0.3064
29651W        W85892  31.368   0.492   3.239  0.0775  0.0481  0.1239
29652W        W85893  14.388  31.510  23.286 -0.2627  0.1195 -0.0931
29653W        W85894  22.007   5.332  16.754 -0.1907  0.0426  0.0432
29654W        W85895  11.826  30.552  14.482  0.1288  0.1691  0.0626
29655W        W85896  31.106  27.620  20.860 -0.1684 -0.3003 -0.2064
29656W        W85897  11.914  21.842   8.920 -0.0082 -0.0174  0.1396
29657W        W85898   8.474   7.848   7.109  0.2135  0.0069  0.1716
29658W        W85899  23.375  27.622  17.626 -0.0801 -0.1230 -0.0465
29659W        W85900   8.590  32.116   6.949  0.0018 -0.0938  0.0347
29660W        W85901  22.034  26.027  21.210 -0.2159 -0.0020 -0.1009
29661W        W85902  14.226   4.311   6.798 -0.0731 -0.0990 -0.0391
29662W        W85903   1.029  12.436  22.828 -0.1204  0.0615 -0.1630
29663W        W85904  26.793  19.365  22.089  0.1784 -0.1685 -0.1261
29664W        W85905   8.296  23.609   5.572  0.0000 -0.0780 -0.1562
29665W        W85906  13.780  23.597   3.182  0.3830 -0.0774 -0.0002
29666W        W85907  15.420  14.739  20.168  0.2227 -0.0569 -0.0042
29667W        W85908   4.148  17.298  18.818  0.0901  0.2397  0.2543
29668W        W85909  34.652   9.846  13.354  0.0565  0.1464 -0.0222
29669W        W85910   8.204  21.271   8.606 -0.0076  0.1108  0.1571
29670W        W85911  24.505   1.004   1.918  0.1857 -0.0270 -0.1383
29671W        W85912  12.859  26.568   8.451  0.3752  0.1111 -0.3901
29672W        W85913   7.229   0.506   5.175 -0.0148  0.0633  0.0868
29673W        W85914  28.057  23.936   6.822  0.1737  0.1130 -0.0801
29674W        W85915  26.389  32.882  16.134 -0.2801 -0.2495 -0.2266
29675W        W85916   4.431   4.364   9.475 -0.2420  0.0636  0.0675
29676W        W85917   5.762   6.025  20.491 -0.2809  0.0048  0.0001
29677W        W85918   6.027  10.313  17.479  0.0660 -0.2634 -0.1376
29678W        W85919  17.899  20.480  25.842  0.3552  0.3757 -0.0223
29679W        W85920   7.372  15.376  19.687 -0.3489 -0.0037  0.1834
29680W        W85921   9.710   3.871   7.070  0.1135  0.0309 -0.1003
29681W        W85922  16.856  22.352   8.656  0.0923 -0.1627 -0.3349
29682W        W85923  30.847  26.638  25.523  0.0424  0.0366 -0.4010
29683W        W85924  26.840  20.706  23.170 -0.2511  0.2130  0.0138
29684W        W85925  19.402  17.915  19.313  0.1575 -0.1277 -0.2334
29685W        W85926  21.988  25.045  25.698 -0.0739  0.2989 -0.1619
29686W        W85927  20.694  13.018   2.063  0.1161  0.1736  0.3793
29687W        W85928  25.825  18.469  21.547  0.1481  0.1372 -0.1255
29688W        W85929  16.535  24.550   7.560 -0.0806  0.2994 -0.0937
29689W        W85930   5.323  28.818   6.574  0.2746 -0.0418  0.0624
29690W        W85931  33.317   1.444   0.307  0.1573  0.1017  0.1544
29691W        W85932  33.519   6.437  15.931  0.2179 -0.2185  0.3198
29692W        W85933  24.674  21.754  17.703 -0.2612  0.1165  0.3491
29693W        W85934  16.862   0.520   0.146 -0.1786 -0.3224 -0.4086
29694W        W85935  10.066  14.448  19.365 -0.1298  0.1001  0.2023
29695W        W85936  21.423  33.478  19.957 -0.0172  0.1475  0.2917
29696W        W85937   3.983  27.581  23.432 -0.1735  0.0584  0.1923
29697W        W85938  11.576   5.619   3.015  0.2951  0.0140 -0.0902
29698W        W85939  22.484   0.754   2.476 -0.2436 -0.1467 -0.2014
29699W        W85940  18.004   3.833   0.004 -0.0307 -0.0476  0.3832
29700W        W85941   5.906  26.168   2.533  0.0741  0.0870 -0.1687
29701W        W85942  20.150  19.636   2.864  0.0305  0.2168  0.0091
29702W        W85943   1.540   5.207   0.472  0.1123 -0.0871  0.1238
29703W        W85944  25.819  34.008  18.672  0.1445  0.0010  0.2238
29704W        W85945   4.875  24.199  23.244 -0.1881  0.2231  0.0170
29705W        W85946  23.266   0.995   5.241 -0.0393  0.2312 -0.0483
29706W        W85947  18.178  25.611   8.427  0.1063  0.0470  0.0840
29707W        W85948  28.177   0.630  20.377  0.0252 -0.0250  0.0542
29708W        W85949  21.267  35.320  13.816  0.1077  0.5403 -0.0305
29709W        W85950   3.241  22.397   0.603 -0.0089 -0.0077  0.1086
29710W        W85951   9.844  15.170  19.128 -0.2433 -0.1743  0.2610
29711W        W85952  33.364  13.121  24.042 -0.0262 -0.3131  0.0490
29712W        W85953  27.515  18.830   4.513 -0.1017  0.0951  0.0770
29713W        W85954  24.599  17.417  23.549 -0.0627 -0.1679  0.1329
29714W        W85955   9.412  18.931   0.157  0.0777 -0.0852 -0.1752
29715W        W85956  15.830  15.091  22.445 -0.4208  0.1750  0.0818
29716W        W85957  15.836  33.777  24.053  0.1347  0.1781  0.3160
29717W        W85958  15.236  27.810  22.785 -0.1227 -0.2810 -0.1008
29718W        W85959   6.818  14.532  22.942 -0.1032 -0.2853 -0.1967
29719W        W85960  28.222  11.284  10.145  0.1505 -0.0835 -0.1325
29720W        W85961   6.321  21.618   3.989  0.0851  0.2433  0.1058
29721W        W85962  31.305  30.823  15.925  0.1018  0.2427  0.0894
29722W        W85963  24.035  32.917  12.452 -0.2532  0.1373  0.2840
29723W        W85964  29.961  15.774  12.402  0.2765  0.0726 -0.0215
29724W        W85965  24.423  31.120  11.737 -0.2045 -0.2729 -0.2096
29725W        W85966   9.744   1.321   3.013  0.4415  0.0796 -0.2379
29726W        W85967  22.999   3.577  22.317 -0.0893  0.0416 -0.1228
29727W        W85968  13.623  19.341   2.690  0.2402  0.1049 -0.1647
29728W        W85969  12.284  20.223  21.411 -0.0086  0.0320 -0.3022
29729W        W85970  11.134  16.298   3.966 -0.2215  0.0674 -0.2740
29730W        W85971  11.672  11.512   3.394 -0.0508  0.1318  0.1404
29731W        W85972   4.094   8.050   8.181  0.0601  0.1111  0.0698
29732W        W85973  18.433   4.220   6.078 -0.0968  0.2823 -0.0423
29733W        W85974  22.173  31.505   1.984  0.1621  0.0757  0.1776
29734W        W85975  33.033  23.144  10.250 -0.0739 -0.0446 -0.0083
29735W        W85976  19.148   0.016   5.312 -0.0745  0.0035  0.2397
29736W        W85977  21.509   7.540   5.928  0.0390 -0.1360  0.0653
29737W        W85978   0.585  31.884   7.195  0.2152  0.2142  0.2471
29738W        W85979  30.420   4.561  24.891  0.1307 -0.3584 -0.1671
29739W        W85980   6.447  13.995   4.775  0.0210  0.0485  0.3271
29740W        W85981  23.191  32.332  19.594 -0.1381 -0.1663  0.1497
29741W        W85982  14.805  24.957  25.789  0.0525 -0.0205 -0.0806
29742W        W85983   5.096   0.799   0.523 -0.1372  0.1208 -0.1678
29743W        W85984  18.813  11.640   3.166 -0.1298  0.2145 -0.0614
29744W        W85985   6.489   4.974  20.233 -0.1975  0.0336  0.1938
29745W        W85986  16.500  29.482   2.818  0.2252  0.0502 -0.3213
29746W        W85987  12.676  28.342  10.436 -0.0036 -0.3784  0.1434
29747W        W85988  27.795  29.231  10.782 -0.1301  0.0746 -0.0754
29748W        W85989  35.322  19.750  21.609 -0.0258  0.0191  0.0528
29749W        W85990  33.095  19.089  19.041 -0.0281  0.1029 -0.1998
29750W        W85991   2.245  16.211   1.849 -0.0044 -0.1167  0.0127
29751W        W85992  23.020  12.934  21.715 -0.2014  0.3038 -0.1424
29752W        W85993  33.510  31.601  17.096 -0.1920 -0.1133  0.1451
29753W        W85994   9.001   3.721   9.543 -0.1946  0.0591  0.0928
29754W        W85995  14.811   0.636   7.884 -0.0287  0.1172 -0.3523
29755W        W85996  19.628  18.591   6.257 -0.0135 -0.3094  0.0035
29756W        W85997   2.953   2.796  17.466 -0.2459  0.0390  0.5498
29757W        W85998   0.843  19.342  13.919 -0.3473  0.0500 -0.1677
29758W        W85999  15.175   7.819  10.426  0.1868 -0.2357  0.0558
29759W        W86000  27.379  16.929  22.007 -0.2820  0.0281  0.0551
29760W        W86001   8.142  20.077   9.114 -0.2265  0.2545  0.0139
29761W        W86002  17.634   9.433  25.732  0.0036  0.0947  0.2427
29762W        W86003  25.320   1.723  11.658 -0.0385 -0.1062 -0.0409
29763W        W86004   8.054  31.911  21.578 -0.2087 -0.2367 -0.0041
29764W        W86005  31.061  35.023  11.726 -0.1649  0.0434  0.2139
29765W        W86006   8.913  27.100   9.801  0.1340  0.0091 -0.2692
29766W        W86007  34.936  35.197  20.981  0.0136 -0.1881 -0.1394
29767W        W86008   7.174  18.014   5.397  0.2655 -0.0678  0.2318
29768W        W86009  19.113  30.332  22.506  0.1584 -0.3167 -0.1123
29769W        W86010  13.818  13.374  26.131 -0.0881  0.1402  0.0180
29770W        W86011   2.212  18.258   2.306  0.3536 -0.0598 -0.1870
29771W        W86012  17.815  30.068  21.618 -0.1911 -0.2384  0.2451
29772W        W86013  11.928  29.325   5.833  0.0641 -0.0638 -0.1915
29773W        W86014  24.831  31.334  22.467 -0.0010  0.1642  0.0635
29774W        W86015   9.123  22.880  12.802  0.1194 -0.0667 -0.0770
29775W        W86016   8.330   0.161   3.840  0.0292 -0.3578 -0.0817
29776W        W86017  33.968  11.627  23.192 -0.0833  0.1427  0.0491
29777W        W86018  24.996  11.454  23.412 -0.1117  0.1688  0.0955
29778W        W86019  16.586   8.777   8.929  0.1115 -0.0821  0.1827
29779W        W86020   8.491  15.325  20.314  0.2240 -0.0843 -0.0446
29780W        W86021   2.542  33.811  18.759  0.2244 -0.1722  0.0045
29781W        W86022  29.628  12.244  16.458 -0.0755  0.1409  0.2184
29782W        W86023  32.275  14.411  17.675 -0.0622  0.1188  0.2190
29783W        W86024  27.046  33.337  14.086  0.1022  0.0435  0.1478
29784W        W86025  35.182   9.465  20.800 -0.1211 -0.0678  0.0678
29785W        W86026   6.204  26.066  10.864  0.1160  0.1073 -0.1054
29786W        W86027  25.628   1.190  16.533  0.0439  0.1175  0.3699
29787W        W86028   8.110   2.663  12.446  0.3125 -0.2197  0.0106
29788W        W86029  27.137  34.119  25.240  0.1163 -0.1815 -0.3628
29789W        W86030  27.799   6.957  20.091 -0.4813 -0.1845  0.2963
29790W        W86031   1.417   0.655  24.486 -0.0067  0.1297 -0.2088
29791W        W86032  25.025   8.414  24.110 -0.4019 -0.1931  0.0424
29792W        W86033  27.538  34.205   3.992  0.1172  0.1350 -0.0010
29793W        W86034  15.967  13.782   1.137 -0.0990  0.0851 -0.3405
29794W        W86035  16.322   0.203  18.177 -0.0867  0.0894  0.1635
29795W        W86036  30.635  25.357  12.944 -0.1904 -0.0099 -0.1217
29796W        W86037  30.591  22.153   5.518  0.2942  0.0890  0.1311
29797W        W86038  17.583   9.151   2.372 -0.1409 -0.0153 -0.0584
29798W        W86039   6.632  32.427   6.921  0.0429 -0.0579 -0.0871
29799W        W86040  19.378   8.156   3.556 -0.0731 -0.1893 -0.1484
29800W        W86041  31.499  15.140  23.945  0.1187 -0.0864 -0.0066
29801W        W86042  19.781   1.394   2.691 -0.1997  0.0081 -0.1885
29802W        W86043   8.491   9.807   2.595  0.0755  0.0622 -0.0196
29803W        W86044  12.741  10.376  12.697 -0.0647  0.1055  0.0773
29804W        W86045   4.756   0.081  10.401 -0.0438  0.0773 -0.0125
29805W        W86046  13.466  22.609   3.547 -0.2956  0.2451 -0.2203
29806W        W86047  32.145   7.464  18.136 -0.0095  0.0219  0.0923
29807W        W86048  22.344  29.780   0.495 -0.0305  0.1118 -0.0879
29808W        W86049  16.207  15.865  18.835 -0.0337  0.1420 -0.1512
29809W        W86050  31.528   4.062  20.309  0.1728 -0.0344 -0.0502
29810W        W86051  26.325  34.821  15.051  0.0913 -0.0209 -0.2357
29811W        W86052  16.399   6.776   8.925 -0.1869  0.0028  0.1396
29812W        W86053  17.245   9.887  19.401  0.0604  0.1260  0.1037
29813W        W86054  23.511   1.853  20.015  0.0766  0.0622 -0.0380
29814W        W86055  32.723  32.362   4.402 -0.1109 -0.2978  0.1139
29815W        W86056  22.849  26.914  18.125 -0.2779 -0.0599 -0.0456
29816W        W86057  33.076   3.880   6.184  0.0856 -0.3636  0.1065
29817W        W86058   6.339  17.464  10.935 -0.0923  0.1763 -0.0055
29818W        W86059  25.225   0.936   6.834 -0.1457 -0.1834 -0.2240
29819W        W86060  14.402  27.118   6.601 -0.0872  0.0126  0.2559
29820W        W86061  11.626  19.506   9.902 -0.0309 -0.0188  0.0143
29821W        W86062  33.869   6.693  10.861  0.3102 -0.1429 -0.2274
29822W        W86063  17.746   4.316   8.566 -0.0168 -0.0557  0.0478
29823W        W86064  19.043   5.212  25.276  0.2328  0.1693 -0.1632
29824W        W86065  13.650  24.756   1.374  0.1828 -0.0558 -0.2680
29825W        W86066  26.410   3.554  12.278  0.1944  0.1312  0.0173
29826W        W86067  26.050  11.314  15.299 -0.2293 -0.3032 -0.0072
29827W        W86068  29.203  24.870  20.990 -0.4849 -0.1922  0.1272
29828W        W86069   7.844  33.735  22.530 -0.1320  0.0538 -0.2052
29829W        W86070   9.029  16.732   1.118 -0.0124  0.2637 -0.3443
29830W        W86071  10.112   5.388  24.092 -0.2084 -0.0401 -0.1960
29831W        W86072   9.218  28.457  23.223 -0.3533  0.1077  0.0471
29832W        W86073   9.191  20.544  24.165 -0.0727  0.1827  0.1312
29833W        W86074   5.151  13.028  21.329  0.0534 -0.0426  0.0308
29834W        W86075  24.174   8.577   4.557 -0.7408  0.1715 -0.2474
29835W        W86076  13.344  19.175  10.358  0.0408  0.0620 -0.2313
29836W        W86077  25.045   6.827  11.308  0.0404  0.0615 -0.0831
29837W        W86078   2.719  34.522   8.754 -0.1418  0.0341  0.1261
29838W        W86079  11.644  31.830  25.189  0.0221  0.0913 -0.1628
29839W        W86080  10.755  30.752  12.266  0.2747  0.1108  0.1910
29840W        W86081  17.776  19.531   4.605 -0.5216  0.1775  0.0633
29841W        W86082   9.752  13.149  10.836  0.0194  0.0565  0.0351
29842W        W86083  30.397  24.210  11.734  0.0037 -0.2366  0.3213
29843W        W86084  20.079  15.031  25.456 -0.3008 -0.0485  0.1725
29844W        W86085  29.191  15.066  16.936  0.0791 -0.0886  0.0641
29845W        W86086   0.599  19.836  10.490  0.0649 -0.0785 -0.1505
29846W        W86087  31.304   3.923  14.168 -0.0121  0.3948  0.2934
29847W        W86088  35.040  32.245   8.064 -0.2072 -0.2437  0.2737
29848W        W86089  34.943   4.665  23.525 -0.1409 -0.3372 -0.1621
29849W        W86090   4.579  33.373   4.721  0.2670 -0.2499 -0.0657
29850W        W86091  24.592  27.344  10.691 -0.0280  0.4749  0.1512
29851W        W86092  23.893  28.711  15.120  0.2062  0.2369 -0.1391
29852W        W86093  34.481  17.936   0.132 -0.1142  0.0223  0.0030
29853W        W86094   2.181   5.004  22.745 -0.0447 -0.1439  0.2127
29854W        W86095  17.261  14.086   2.420  0.1185  0.0878  0.0904
29855W        W86096  10.819   0.746   0.001 -0.0774  0.0328  0.0185
29856W        W86097   1.051  18.188  19.075 -0.1048  0.4845  0.4707
29857W        W86098  33.512   6.858  24.013 -0.2642 -0.2904  0.1332
29858W        W86099  25.516  28.139  10.370  0.2984  0.0583 -0.0094
29859W        W86100  13.025  20.831  21.949  0.0879  0.0553 -0.1766
29860W        W86101  30.750  17.266  13.078  0.2059  0.1006 -0.1419
29861W        W86102  16.402  10.450  20.323  0.1299  0.1964 -0.0164
29862W        W86103   1.810   6.061  18.739 -0.3040  0.0449  0.1048
29863W        W86104   4.210  16.152  20.807  0.2904 -0.1721 -0.0909
29864W        W86105  21.591  33.659  13.491  0.1682  0.2373 -0.0557
29865W        W86106  24.205  27.703  15.049 -0.1712  0.1654  0.1013
29866W        W86107  35.047   6.420  12.441 -0.0580 -0.2834 -0.0070
29867W        W86108   1.073  28.018   1.843 -0.2481  0.2072  0.2044
29868W        W86109   8.960  34.517   8.468 -0.3867  0.1858  0.1725
29869W        W86110  18.095  30.015  24.866  0.1712  0.0634 -0.0835
29870W        W86111  29.478  20.327  18.745 -0.3248  0.2949 -0.2241
29871W        W86112   9.236  16.851  21.763  0.1805 -0.2146  0.5909
29872W        W86113  17.437  33.815   0.427  0.2069  0.0004  0.1521
29873W        W86114   2.694  21.440  13.279 -0.2305  0.0167 -0.1150
29874W        W86115   2.780  28.738  10.618 -0.0138 -0.0289 -0.1909
29875W        W86116   3.980  28.552  22.107 -0.0287  0.1027  0.2491
29876W        W86117  10.804  22.144  25.101 -0.0402  0.0081 -0.0049
29877W        W86118  10.457  18.304  12.257 -0.2506  0.2462 -0.1810
29878W        W86119  23.578  16.810  25.502 -0.2283 -0.3556  0.1504
29879W        W86120  13.443  34.674  22.282  0.0049  0.2362  0.0175
29880W        W86121  35.278   6.065  15.138  0.1248 -0.0430  0.2861
29881W        W86122  16.079  32.336   8.531 -0.1613 -0.1908  0.0434
29882W        W86123   3.334   6.725   2.280  0.1369  0.2025 -0.3999
29883W        W86124  33.665  34.464  15.866  0.0711 -0.2970 -0.1029
29884W        W86125   8.217   8.919  20.682 -0.0137  0.1735  0.3670
29885W        W86126  33.352  14.640  17.652  0.3422 -0.2867  0.0952
29886W        W86127  30.667  32.549  25.354  0.2282 -0.1017 -0.1296
29887W        W86128  26.499   2.905  18.341 -0.2077  0.1406  0.0232
29888W        W86129  21.024  21.991   6.007  0.1783 -0.0193  0.1157
29889W        W86130  13.799   5.489   7.041  0.0809  0.2012  0.1275
29890W        W86131  18.186  25.729  21.696  0.0324 -0.2499  0.0134
29891W        W86132  25.022  14.636  19.468 -0.1512  0.0656 -0.0960
29892W        W86133  29.288  26.182  24.700 -0.1024 -0.0858  0.2290
29893W        W86134   1.207   5.435  13.968  0.2232  0.0532 -0.3225
29894W        W86135  18.390   0.442   9.032 -0.2526  0.0133  0.0016
29895W        W86136  17.748  22.266   5.476  0.3225 -0.1625  0.0836
29896W        W86137  21.602   2.133   4.853 -0.1443 -0.0808  0.0192
29897W        W86138   5.319   0.180   4.753  0.1020  0.0204  0.1281
29898W        W86139   4.074  15.546   0.673  0.3771 -0.3144 -0.1473
29899W        W86140   0.233  30.829  19.732  0.1874  0.2351 -0.0929
29900W        W86141  21.021  14.230  21.744 -0.0769 -0.0052 -0.3298
29901W        W86142  25.827  20.700   6.754 -0.0042 -0.1259  0.0623
29902W        W86143   3.838  34.672  20.212  0.1636  0.2008 -0.1269
29903W        W86144  25.769  26.165  23.121  0.4367  0.1709  0.1769
29904W        W86145  21.017  17.667  20.955 -0.0956 -0.0741 -0.0234
29905W        W86146  21.338   9.326   3.404  0.0227 -0.0070  0.2141
29906W        W86147   8.450  26.454  25.386 -0.1292 -0.1899  0.0836
29907W        W86148  24.722  21.408  10.095 -0.2066 -0.3651 -0.0818
29908W        W86149  19.530  31.307  19.784 -0.0950 -0.3004  0.3594
29909W        W86150   7.095  30.678   8.272  0.2588 -0.1595 -0.0257
29910W        W86151  20.425  21.651  24.922  0.0648  0.2285  0.1150
29911W        W86152   1.279  15.544   1.778 -0.1494  0.1208  0.0253
29912W        W86153  17.872  17.738   3.173  0.3199 -0.2127 -0.2649
29913W        W86154  22.600  19.470  23.140 -0.3322  0.0685 -0.1520
29914W        W86155   5.788  33.279   3.703 -0.3661  0.3174 -0.1633
29915W        W86156  12.783  10.118  21.426  0.2829 -0.2634  0.0466
29916W        W86157  29.467  25.337  17.133  0.1773 -0.1149 -0.2369
29917W        W86158  17.343  16.057  24.113 -0.0666 -0.2328  0.0499
29918W        W86159  32.580   0.326  26.090 -0.2673  0.2196  0.2321
29919W        W86160  21.395  34.842  16.975 -0.1784 -0.3601 -0.0763
29920W        W86161  21.178  25.938  24.009  0.1548  0.0605  0.1654
29921W        W86162   5.326  11.546   2.652  0.0753 -0.0361 -0.0435
29922W        W86163  16.859   5.243   9.109 -0.3819  0.0134 -0.4224
29923W        W86164   0.441   6.830  22.257  0.2909  0.0806  0.0584
29924W        W86165  14.660  14.100   8.429  0.1586  0.0944 -0.1101
29925W        W86166   8.858  21.867  23.934 -0.0390 -0.0675  0.0298
29926W        W86167   9.656   4.348  24.998  0.3608 -0.1316  0.1369
29927W        W86168  34.583   1.502  22.975 -0.0030  0.0842 -0.0485
29928W        W86169   1.089   6.277   4.491  0.3322 -0.0852  0.0243
29929W        W86170  18.714  20.230   1.560  0.3428 -0.1426  0.0300
29930W        W86171  18.109  13.889   0.812  0.1248  0.0230 -0.3489
29931W        W86172  11.446  31.519   1.098  0.1807  0.3882  0.0240
29932W        W86173  28.254  32.775   1.265  0.2153  0.1306 -0.0150
29933W        W86174  10.707  19.288  20.419  0.0533 -0.1232 -0.2890
29934W        W86175  34.470  34.998   6.994  0.1258  0.1382 -0.3739
29935W        W86176   5.462  32.880   3.659  0.2394  0.0728  0.0893
29936W        W86177  10.317   4.817  10.098  0.1110 -0.1756 -0.0872
29937W        W86178  29.185   5.893   3.148 -0.3850 -0.0688  0.1162
29938W        W86179  34.645   3.653  24.561  0.1246  0.1325  0.1312
29939W        W86180   6.061  33.555  22.363 -0.2622 -0.0263 -0.0057
29940W        W86181  13.534  32.936  25.649  0.0685 -0.0412 -0.1900
29941W        W86182  15.234   1.405   8.231 -0.0736 -0.1760 -0.0431
29942W        W86183  19.499  14.505  18.154  0.0812 -0.0467 -0.0829
29943W        W86184  20.315  33.708  15.735 -0.0232 -0.0137 -0.3504
29944W        W86185  26.136  27.579  21.912 -0.2135  0.2432 -0.2126
29945W        W86186  14.883   9.167  12.136 -0.1994 -0.0468 -0.0271
29946W        W86187   3.280   8.669  19.413  0.1933 -0.2580  0.1705
29947W        W86188  24.181  31.664  23.027  0.1085 -0.2802 -0.1978
29948W        W86189  14.454  16.864  14.279  0.0137  0.0687 -0.0294
29949W        W86190  20.415  12.997  18.337 -0.2112 -0.0003  0.1736
29950W        W86191  14.764  22.648  22.548  0.2531  0.0772  0.1316
29951W        W86192   3.440   5.045  24.027  0.2815  0.0300  0.2173
29952W        W86193  27.412   2.120  23.821 -0.2012  0.0125 -0.2244
29953W        W86194   4.305  34.214   8.305 -0.1149  0.0779 -0.0506
29954W        W86195   6.207  16.906   5.221  0.2349  0.3143  0.1894
29955W        W86196   1.091  33.245  23.883  0.2436  0.1042 -0.1603
29956W        W86197  15.083  17.365  12.771 -0.2638 -0.0827  0.0294
29957W        W86198   5.097  20.564  19.967 -0.1922  0.0177 -0.2169
29958W        W86199  12.562  17.112  10.251  0.0840  0.0853 -0.2106
29959W        W86200   6.693  21.719   7.200  0.0129  0.2412 -0.0170
29960W        W86201   4.591   4.824   0.157  0.1439  0.0550  0.0144
29961W        W86202  15.426  28.982   2.057  0.0014 -0.2799 -0.0296
29962W        W86203  30.081  11.591  10.871 -0.0866  0.1181 -0.1290
29963W        W86204  30.622  16.244  20.084 -0.0973  0.3524 -0.0701
29964W        W86205  23.511  10.617  19.856 -0.0993  0.0388 -0.1813
29965W        W86206  23.116  20.303  19.106 -0.0014 -0.0935 -0.1876
29966W        W86207   5.815   0.706  19.530  0.0660 -0.1305 -0.1870
29967W        W86208  23.355  17.667  24.649 -0.0009  0.0643  0.1216
29968W        W86209  12.071  13.421   9.867  0.0758 -0.0421 -0.0226
29969W        W86210   0.886  19.594  15.372  0.2357 -0.1673 -0.0203
29970W        W86211  25.406   0.526  15.263  0.1117 -0.0083  0.2019
29971W        W86212  27.554   4.568  19.478 -0.0127  0.1361  0.0572
29972W        W86213  10.917  18.208  21.609  0.1158 -0.3493  0.1677
29973W        W86214  14.290  23.894  13.724  0.0318  0.0474 -0.2201
29974W        W86215  33.608   7.904  19.665 -0.0612  0.0608  0.0484
29975W        W86216  24.899  28.286  12.990  0.0997  0.0900 -0.0124
29976W        W86217  24.340  21.644  24.880  0.1326 -0.2438  0.1501
29977W        W86218  28.669  24.305  13.543  0.0280 -0.1488  0.3120
29978W        W86219  20.942   6.342   6.828  0.1032 -0.3112 -0.1472
29979W        W86220  31.400   4.998   0.167 -0.2018 -0.1953  0.0715
29980W        W86221   3.922  27.064   6.235 -0.1918 -0.2356  0.1839
29981W        W86222  12.487  30.669   5.229 -0.1314  0.1206  0.1992
29982W        W86223  23.756  12.766  15.601  0.3167  0.1549  0.1411
29983W        W86224  33.729  24.247  16.533  0.2782 -0.0954  0.2932
29984W        W86225  18.457  29.713   5.210 -0.0911  0.2051  0.1593
29985W        W86226  15.107  23.802   3.844 -0.2047  0.3370  0.1158
29986W        W86227   1.089   4.184   5.183  0.2489  0.1521 -0.2837
29987W        W86228  12.702  12.894  10.527  0.3374 -0.2472  0.2253
29988W        W86229  18.828  27.008  24.623 -0.0397 -0.1177  0.3857
29989W        W86230  30.253  32.240   4.442 -0.1503  0.0666  0.0897
29990W        W86231  17.395   1.997  20.611 -0.0942 -0.3538  0.2765
29991W        W86232  25.445  26.964  24.826  0.1336 -0.0521  0.0371
29992W        W86233  12.499  25.680   6.681  0.3321 -0.1966  0.0056
29993W        W86234  11.918   6.644  14.218 -0.0206 -0.0204  0.1742
29994W        W86235  13.309  12.942  24.810  0.0892 -0.1319 -0.1436
29995W        W86236  17.485  14.404  23.054  0.0964  0.3036  0.2692
29996W        W86237  12.917  28.542  15.960  0.2814 -0.1503 -0.3146
29997W        W86238  17.966  13.047  11.276  0.1492 -0.1785  0.2507
29998W        W86239   0.611  34.770  21.289  0.1714  0.0366 -0.1211
29999W        W86240  15.310  34.898  18.415  0.0359 -0.2919 -0.0996
30000W        W86241   8.526  19.796  10.215 -0.0355 -0.3108 -0.0654
30001W        W86242  32.547  18.714  11.688 -0.1480 -0.1435 -0.2734
30002W        W86243  16.409  34.607   5.879 -0.0903  0.0011  0.0154
30003W        W86244  27.553   2.304  15.000  0.1566 -0.0006  0.0178
30004W        W86245  34.188  12.499  26.102 -0.2258 -0.1509 -0.0924
30005W        W86246  24.611  16.015  18.560 -0.2675  0.1956  0.1687
30006W        W86247  10.301   6.754   9.413 -0.1964  0.0637  0.0163
30007W        W86248  23.429  27.042   2.173  0.2809 -0.2754  0.0512
30008W        W86249  16.460   3.173  21.189  0.1991 -0.1774 -0.1124
30009W        W86250  34.001  16.528  26.230  0.0351 -0.0152 -0.3491
30010W        W86251  16.669   5.518   0.139  0.2301  0.0789  0.0659
30011W        W86252   8.380   6.182   3.462  0.1586  0.0885  0.0941
30012W        W86253  26.196  23.807   0.583  0.0415 -0.2280  0.0315
30013W        W86254  26.422  15.112  22.130 -0.0013  0.0528 -0.1415
30014W        W86255  15.298   2.349   7.112 -0.4789 -0.2262  0.0491
30015W        W86256  25.481  11.372  11.999 -0.1641 -0.0849  0.1791
30016W        W86257   5.002  14.863   8.754 -0.4358 -0.0520 -0.0344
30017W        W86258   5.346  17.327  22.672 -0.2299  0.0477 -0.0878
30018W        W86259   8.048   1.927  21.497 -0.0595 -0.0264 -0.0395
30019W        W86260  23.025   6.039  24.144 -0.0170  0.2054 -0.1946
30020W        W86261  30.239  11.988  20.874  0.1727  0.1357 -0.0330
30021W        W86262  11.628  17.141   1.436 -0.1828 -0.4512  0.0783
30022W        W86263  14.461  23.243  25.479 -0.2533  0.0357  0.0006
30023W        W86264   1.564   7.698   0.583  0.2686 -0.2636  0.1202
30024W        W86265  32.561  20.015  24.454  0.2546  0.0626 -0.0625
30025W        W86266  11.378  16.875  24.415 -0.1948  0.3241 -0.1586
30026W        W86267  32.915   1.942  17.733 -0.1185  0.0202  0.0608
30027W        W86268  23.977  33.900   4.931  0.0559 -0.1418  0.0112
30028W        W86269  24.859  34.144  24.529  0.0524 -0.1467 -0.0763
30029W        W86270  11.669  30.598  11.292 -0.3866 -0.1654  0.0964
30030W        W86271  15.824   5.663   8.645  0.0030  0.2113  0.2741
30031W        W86272  13.007  34.396  24.479 -0.1290  0.0681 -0.1374
30032W        W86273  12.843  16.663   2.434 -0.2411 -0.0527 -0.1776
30033W        W86274  21.015   4.870   4.970  0.0279 -0.0158 -0.1357
30034W        W86275  29.418   6.850  14.338  0.3930  0.0433  0.1490
30035W        W86276  23.070  10.994  23.176  0.0605  0.1014 -0.1117
30036W        W86277  25.460  29.605  16.704  0.3128  0.1591  0.1477
30037W        W86278  23.485  22.133  24.066 -0.2069 -0.0219  0.0044
30038W        W86279  15.075  28.977  22.137  0.0616 -0.0499  0.1211
30039W        W86280  13.657  13.442  23.265  0.1038  0.2593  0.0033
30040W        W86281   9.890  32.547  21.239  0.0652 -0.0426 -0.2476
30041W        W86282  25.862  25.908   1.591  0.0203 -0.3206  0.1495
30042W        W86283  10.024  31.178   1.328 -0.3681 -0.2707  0.1254
30043W        W86284  29.637  23.257   6.386 -0.1972  0.1233 -0.0149
30044W        W86285  25.973  25.387  15.588 -0.1600 -0.0771  0.0205
30045W        W86286  17.457  34.282   7.955 -0.0085 -0.2217 -0.1737
30046W        W86287   0.688  22.691  15.244 -0.1558  0.0992 -0.1616
30047W        W86288  10.248  12.141   0.948  0.0593  0.2600  0.0398
30048W        W86289  28.161  20.315  19.129 -0.0214  0.0791  0.0116
30049W        W86290   2.068   9.655  16.389 -0.0187  0.1679  0.0524
30050W        W86291   0.279  34.995  22.005 -0.0796 -0.0109 -0.0668
30051W        W86292  32.684  30.524  23.738 -0.1566  0.2730  0.1977
30052W        W86293  32.136   6.034   2.622  0.1536  0.0358  0.1187
30053W        W86294  13.868  12.183   1.608  0.3291  0.0501  0.3710
30054W        W86295  34.643  12.436  16.724 -0.0304  0.1319  0.3286
30055W        W86296  31.203  10.846  18.270  0.2221 -0.1484 -0.2075
30056W        W86297  27.620   0.188  15.550 -0.3603  0.3013 -0.0269
30057W        W86298  24.421   1.868   0.999  0.4273 -0.1917 -0.0471
30058W        W86299  20.019  26.459   2.384  0.1320 -0.2709 -0.1154
30059W        W86300  25.568   9.595  25.152  0.0724  0.0129  0.2293
30060W        W86301  22.409  16.223  22.567  0.0217 -0.0007 -0.0418
30061W        W86302  26.143  13.665  23.257 -0.1641 -0.3027  0.2876
30062W        W86303   5.440  25.413  22.021  0.0814  0.0657  0.4617
30063W        W86304  30.474  33.547  13.428  0.1435 -0.5344  0.0661
30064W        W86305   0.065  23.169  17.351  0.1895 -0.2059  0.0616
30065W        W86306  18.551  23.330  21.932 -0.1753  0.2420  0.1484
30066W        W86307  17.952  30.612   6.648 -0.0951 -0.0802  0.0505
30067W        W86308  31.061  23.233  11.821  0.5393 -0.0678 -0.2100
30068W        W86309  13.695   1.711  10.067 -0.0555 -0.0616  0.1060
30069W        W86310  25.292  18.712  18.640 -0.1728 -0.2345  0.0899
30070W        W86311  22.092   0.337  15.618 -0.4301 -0.2032  0.0635
30071W        W86312  27.711  34.905  23.964  0.1707  0.1587  0.0601
30072W        W86313  33.228   7.275   2.479 -0.0304  0.1107 -0.0455
30073W        W86314  20.306  33.666   2.660  0.0564  0.2682  0.2909
30074W        W86315  20.737  24.250  18.831  0.0943 -0.1495  0.2055
30075W        W86316   4.569   8.597  21.627 -0.1956  0.0291 -0.1771
30076W        W86317  22.094   4.892  20.559 -0.0212 -0.1935  0.2756
30077W        W86318  29.208   2.967  11.910  0.0614 -0.0532  0.1712
30078W        W86319  10.231  33.367  12.044 -0.0292  0.0967  0.1676
30079W        W86320  18.101  12.457  20.623  0.1143  0.0916  0.1397
30080W        W86321   4.404  14.000  20.861  0.0205 -0.1272 -0.1566
30081W        W86322  29.502  21.650  16.502 -0.0860  0.1298  0.0242
30082W        W86323  13.198  28.240   6.012  0.0021 -0.2773  0.1117
30083W        W86324  26.507  19.128  18.291 -0.4585 -0.3085 -0.2851
30084W        W86325  13.605  21.338   7.268  0.3309  0.0354  0.0825
30085W        W86326  31.515  26.753  11.214 -0.2421  0.0023 -0.3139
30086W        W86327  15.733  25.784   1.239 -0.0778  0.0582 -0.0233
30087W        W86328  23.028   0.281  16.577  0.0971  0.0001 -0.1533
30088W        W86329  19.976  25.564   7.529 -0.0073  0.0674  0.1115
30089W        W86330   8.457  13.101   8.801 -0.1130 -0.2303  0.1985
30090W        W86331  33.944  27.689  19.422  0.0801 -0.0634 -0.1032
30091W        W86332  11.198  18.048   5.679 -0.1675  0.0762  0.2953
30092W        W86333  17.393  16.631   3.275 -0.0161  0.0446 -0.0485
30093W        W86334   8.255   4.014  21.011  0.0099 -0.3279  0.0937
30094W        W86335  24.527  32.072  19.431 -0.0743  0.1621  0.4898
30095W        W86336  23.052  23.330  22.485 -0.2780 -0.0992  0.2258
30096W        W86337  27.629   4.132  19.820  0.2107  0.3084  0.1648
30097W        W86338  21.663   1.501   6.712  0.4197  0.2014 -0.1035
30098W        W86339  11.900  14.416  12.728  0.0711 -0.0881  0.1320
30099W        W86340   2.830  12.111  22.058 -0.0052  0.1245  0.0261
30100W        W86341  26.628   4.047  14.156  0.1415 -0.1675  0.0065
30101W        W86342  23.945   7.343  19.302  0.0261 -0.3975 -0.0221
30102W        W86343  29.606   2.668  14.112  0.2092  0.0910  0.0691
30103W        W86344   4.146   6.760   8.600  0.1374 -0.1233 -0.0021
30104W        W86345  34.076  34.576  23.478 -0.0301  0.2862 -0.2778
30105W        W86346  28.793  22.669  13.490 -0.1526 -0.2935  0.5455
30106W        W86347   9.678  29.703   8.711  0.3425  0.0096 -0.0209
30107W        W86348  19.437  29.575  16.457 -0.1416 -0.0143 -0.1278
30108W        W86349  19.682  10.184   0.422  0.0571  0.2306  0.2804
30109W        W86350   1.627  15.756  21.124 -0.0829 -0.1359 -0.0900
30110W        W86351   1.435  21.613  25.043  0.0080  0.0987  0.1629
30111W        W86352  21.392  33.579  19.080 -0.0463 -0.1482  0.1091
30112W        W86353   0.219   3.097   5.203  0.0354  0.0637  0.0360
30113W        W86354   4.603   9.466  16.112  0.0448 -0.3166 -0.1228
30114W        W86355  19.380  28.143  21.941 -0.1813 -0.1555  0.0008
30115W        W86356  29.069  27.034  20.413 -0.1152 -0.0986 -0.0840
30116W        W86357  18.344  25.205   3.030  0.0480 -0.3821 -0.0186
30117W        W86358  30.880  26.133  11.106 -0.1421  0.3799  0.2422
30118W        W86359  17.858   7.348  24.003  0.2349  0.2612 -0.3294
30119W        W86360  11.844  20.334   9.782 -0.4342  0.0512 -0.1612
30120W        W86361  21.104  24.045  18.514  0.1287 -0.1295 -0.0720
30121W        W86362  15.453   4.260  12.049  0.1502 -0.2571 -0.0453
30122W        W86363   5.641  25.426  10.412  0.1010  0.2380 -0.0635
30123W        W86364  14.881  27.013   0.279  0.1890  0.3478  0.0847
30124W        W86365  33.103  33.050  16.634  0.0239  0.2256 -0.1819
30125W        W86366  23.772   5.653  23.866 -0.0081 -0.0892  0.1531
30126W        W86367  21.538   1.978  14.189  0.2012 -0.2221 -0.2250
30127W        W86368  12.683  35.140  11.434 -0.1681 -0.2757 -0.4080
30128W        W86369  22.033  31.010   1.791  0.0299  0.3209  0.1274
30129W        W86370  16.349   4.650  18.516  0.3069  0.0588 -0.3040
30130W        W86371  18.198  34.440   7.061  0.0472 -0.0975 -0.0644
30131W        W86372  27.301   0.875  16.614 -0.1971  0.0822  0.1467
30132W        W86373  19.777  35.120  17.326 -0.4061 -0.0679 -0.0550
30133W        W86374  21.894   5.530  16.290  0.1282  0.1281 -0.0154
30134W        W86375  14.224  32.471  23.707 -0.2271  0.0137  0.1252
30135W        W86376  24.784  18.800  18.440  0.0348 -0.1134 -0.1853
30136W        W86377   2.346  26.382  18.354 -0.2083  0.0449 -0.0604
30137W        W86378   7.935  28.777  21.994 -0.3919 -0.3616  0.2763
30138W        W86379  15.540  30.739  22.550  0.0253 -0.0501  0.1270
30139W        W86380  28.993  27.648   2.747  0.0120 -0.1681 -0.0076
30140W        W86381  31.775   3.077  26.121  0.0389 -0.0160 -0.0637
30141W        W86382  17.630   1.847  22.031  0.0689 -0.0146 -0.1453
30142W        W86383  13.616  33.396  22.299 -0.2050 -0.2317  0.0790
30143W        W86384   9.316  35.288  15.011 -0.0084 -0.0271 -0.1619
30144W        W86385   8.467  16.955   5.313  0.3409  0.1096  0.2178
30145W        W86386  21.807   2.596   5.048  0.2746 -0.2099  0.2024
30146W        W86387  29.758  25.018  11.524  0.0817  0.0553  0.0389
30147W        W86388  15.270  13.668   2.295  0.1531  0.1010 -0.1004
30148W        W86389   2.858  22.926  20.178  0.1179 -0.1657  0.2780
30149W        W86390   9.175   8.423  24.621 -0.1758  0.1142  0.2720
30150W        W86391  14.330  24.165   0.975  0.1352 -0.1116 -0.1239
30151W        W86392  33.160   8.476  10.587 -0.0146  0.1002  0.0968
30152W        W86393  29.258   2.378   4.442  0.3662 -0.2466 -0.3955
30153W        W86394  19.644  14.543  17.652  0.1260  0.1166 -0.0555
30154W        W86395  11.420  18.625   0.281  0.2115 -0.0303  0.1912
30155W        W86396   8.769   3.201  14.486  0.0664 -0.0780  0.3280
30156W        W86397  19.119   7.300  24.913  0.2188 -0.0911 -0.2604
30157W        W86398   8.647  28.157   5.975 -0.0994  0.1064 -0.0679
30158W        W86399  13.702  19.678  15.414  0.0042  0.1126  0.2169
30159W        W86400  16.663  15.219   4.285 -0.1144  0.1431 -0.0829
30160W        W86401  33.571  15.006  17.939 -0.2989  0.2576 -0.1219
30161W        W86402  16.340  30.544   3.751  0.5955  0.0019 -0.0964
30162W        W86403  29.423  27.953  19.659 -0.1446  0.0702  0.1303
30163W        W86404  10.071  30.268  13.018  0.0481 -0.2619  0.1214
30164W        W86405  17.038  10.731  20.762  0.2956  0.1284  0.0378
30165W        W86406   9.661   6.443  23.397  0.0425 -0.1162 -0.0283
30166W        W86407   4.949  24.563  20.353  0.2065 -0.2740  0.1249
30167W        W86408   5.559  21.756  25.774 -0.0854  0.1098 -0.0916
30168W        W86409  20.505  24.329  20.616 -0.0963  0.2352  0.0586
30169W        W86410  34.403  31.761   2.959  0.0392 -0.1224  0.1933
30170W        W86411  21.839   1.660   5.090 -0.1287  0.1133 -0.2158
30171W        W86412  29.545  24.516  21.187  0.1618  0.1335  0.2903
30172W        W86413   5.661  11.693  24.950 -0.1349 -0.0189 -0.0614
30173W        W86414   1.887   4.976  14.641  0.4416 -0.0899  0.3731
30174W        W86415  24.541  23.828  18.394  0.0110  0.1816  0.0627
30175W        W86416   7.350  22.388   5.912  0.0407  0.1875 -0.2000
30176W        W86417   9.385  10.742  24.602 -0.1130 -0.1140  0.1701
30177W        W86418  22.292  23.554  16.231  0.0360 -0.0079  0.1876
30178W        W86419  10.331  13.045  24.885 -0.2654 -0.3897  0.3731
30179W        W86420  29.015  16.494  14.018  0.1122  0.0909  0.1795
30180W        W86421  17.137  26.361   0.292 -0.3659  0.2489  0.1561
30181W        W86422   5.735  35.209  21.108  0.0593  0.0815  0.0993
30182W        W86423   7.358  13.701   5.325 -0.2193  0.0416  0.0271
30183W        W86424  27.958  32.067   0.024  0.0115 -0.0390  0.0944
30184W        W86425   0.274  24.411   1.868  0.4315 -0.0335  0.2400
30185W        W86426   9.836  29.197  13.646 -0.0817  0.0994  0.0149
30186W        W86427  35.051  13.566  20.789 -0.2359  0.1929 -0.1369
30187W        W86428   4.021  22.326  19.635  0.2658 -0.0237  0.1982
30188W        W86429  13.174   9.410  21.669  0.0570  0.0558  0.0595
30189W        W86430  27.466   6.265  17.845 -0.2932 -0.3312  0.0414
30190W        W86431   1.169  25.096   2.112 -0.1563  0.2253 -0.2423
30191W        W86432  35.262   1.947   1.976 -0.0590  0.1217 -0.1347
30192W        W86433   1.476   4.458  18.292 -0.3117  0.0715  0.0185
30193W        W86434   3.635  23.888   5.634 -0.1658 -0.0874  0.2240
30194W        W86435  24.187  26.537   3.019  0.2211  0.2330  0.0693
30195W        W86436  20.087  16.008  25.456 -0.4607 -0.0718 -0.0713
30196W        W86437   7.287   8.585   6.970 -0.0478 -0.3713  0.2165
30197W        W86438  16.125  26.845   2.267  0.0065 -0.0512 -0.1781
30198W        W86439   3.220  25.228   3.562 -0.0164 -0.1004  0.0091
30199W        W86440   9.519   4.621   8.043  0.0894 -0.1722  0.1060
30200W        W86441   8.323  25.192  10.891 -0.2692  0.1273  0.1750
30201W        W86442  26.103  26.780  21.572  0.0455  0.2050 -0.0214
30202W        W86443  19.178  28.995   5.599  0.0918 -0.1481  0.2249
30203W        W86444   4.470   5.778   5.592 -0.0366  0.0383 -0.0104
30204W        W86445  18.284  27.509   5.022 -0.0940  0.0895 -0.1386
30205W        W86446  29.233  29.210   1.256 -0.0542 -0.0431 -0.2441
30206W        W86447  27.844  26.038  11.363  0.0185  0.3876  0.0540
30207W        W86448  11.704   9.592   7.614  0.2588  0.1529  0.1956
30208W        W86449  25.724   9.636  20.209 -0.1992 -0.1858 -0.1674
30209W        W86450  17.285  28.171   7.032  0.0292 -0.2196  0.1642
30210W        W86451  14.272  18.410   5.841 -0.0714 -0.0444  0.2215
30211W        W86452  18.897  19.265   1.678 -0.2576  0.1205  0.0270
30212W        W86453   4.796   7.024   6.193  0.2286 -0.2182 -0.1522
30213W        W86454  22.681   9.290   2.215  0.3185 -0.1441  0.0168
30214W        W86455   3.795  34.081   4.866  0.0758  0.0879  0.1936
30215W        W86456  17.652  35.084  20.161 -0.1524 -0.0808  0.0562
30216W        W86457  24.160   3.296   6.353 -0.0317  0.1302  0.1609
30217W        W86458  34.670  23.542   8.861  0.0774  0.0698  0.1547
30218W        W86459   7.082  31.401  24.746 -0.0942 -0.1940  0.3417
30219W        W86460  33.774  30.799  18.346 -0.0169 -0.1014 -0.1943
30220W        W86461  10.719  25.908   4.555  0.2873  0.2107  0.2022
30221W        W86462  33.813  16.583  25.122 -0.1104 -0.0279  0.0177
30222W        W86463  17.463   7.337   6.766 -0.0864  0.1774 -0.2912
30223W        W86464  26.446  19.304   8.216 -0.4629  0.1682  0.2831
30224W        W86465   4.847   4.447   0.289 -0.0859  0.0689 -0.1595
30225W        W86466  15.774  31.217   3.285  0.3727 -0.0913 -0.0548
30226W        W86467  20.368  29.757  19.514 -0.0834 -0.0645 -0.0482
30227W        W86468   2.460   4.301  18.407  0.0834  0.2064  0.0993
30228W        W86469  14.548  32.432   0.183  0.3903 -0.0974 -0.0740
30229W        W86470   4.371  12.344   0.340 -0.1234  0.0112 -0.3417
30230W        W86471   1.298   3.141  17.895 -0.2522 -0.0719 -0.5372
30231W        W86472  20.098  34.650   1.708 -0.2512  0.2115 -0.0544
30232W        W86473   4.478  32.742  10.574 -0.2196  0.0778  0.2960
30233W        W86474  18.194   4.888   4.657 -0.5161  0.0977  0.0370
30234W        W86475  14.393  13.318  11.037  0.5338 -0.1136  0.0103
30235W        W86476  30.951  14.235  11.340  0.3883 -0.4196 -0.1232
30236W        W86477  34.555   7.626  16.612  0.1548 -0.2820 -0.0329
30237W        W86478  31.343   0.245   2.345  0.2789 -0.1909 -0.0405
30238W        W86479  29.862   5.996  18.555  0.0494  0.1104  0.0701
30239W        W86480  34.709  29.188  25.303  0.0691 -0.3759 -0.0908
30240W        W86481   9.837   5.338   4.110 -0.0827  0.0389 -0.3404
30241W        W86482  33.086   2.057   6.704 -0.0301 -0.0170  0.0589
30242W        W86483  17.764  27.539  23.390 -0.1248 -0.2067 -0.3517
30243W        W86484   3.788  28.916  10.534  0.3115 -0.1528 -0.0934
30244W        W86485  29.034  26.246  19.551 -0.0175 -0.0520 -0.0063
30245W        W86486  29.740  29.485   3.654 -0.0910 -0.0108 -0.1109
30246W        W86487   3.472  33.319   4.302 -0.2426  0.1253  0.1993
30247W        W86488  21.772  11.937   6.061  0.2668 -0.3047 -0.0445
30248W        W86489  15.423   7.806   8.972 -0.0925 -0.2138 -0.2015
30249W        W86490  25.873   3.386  20.751  0.0709  0.1032  0.0353
30250W        W86491  26.322  20.909  19.864  0.0784  0.2089  0.0607
30251W        W86492  27.577  33.184  14.526  0.0272  0.0702 -0.3575
30252W        W86493  34.494   8.912  20.849  0.1851  0.0364 -0.1140
30253W        W86494  15.703   8.273   2.125 -0.1236  0.0106  0.0169
30254W        W86495  16.819  14.199  11.123 -0.5884  0.2544 -0.0603
30255W        W86496  32.977  27.235  11.245  0.0887 -0.0191 -0.1410
30256W        W86497  11.751  28.877  26.103  0.0244  0.0346  0.1628
30257W        W86498  19.350  32.526   6.297  0.0380 -0.3301  0.3399
30258W        W86499  25.149  12.642  15.265 -0.2502 -0.2129  0.0626
30259W        W86500  15.398   6.827   0.063  0.0830 -0.2039  0.1310
30260W        W86501   0.046  18.589  22.350  0.0943 -0.0012  0.0030
30261W        W86502   5.983  12.190  23.554 -0.2904 -0.3156 -0.2378
30262W        W86503  30.369  16.038   9.908 -0.3533 -0.1192 -0.1711
30263W        W86504  30.534  13.361   8.971  0.1602 -0.1488  0.0557
30264W        W86505   8.237   0.460   5.215  0.4705 -0.2364  0.0724
30265W        W86506  29.051   7.465  16.604  0.1101 -0.1698 -0.0962
30266W        W86507  12.882   1.671   5.157 -0.1817 -0.3286  0.2228
30267W        W86508  12.557  14.416  10.902 -0.1917  0.0837 -0.1878
30268W        W86509  23.277   4.097  25.239 -0.2872  0.1439 -0.2699
30269W        W86510  20.433  19.434  26.074 -0.4226  0.0496 -0.2370
30270W        W86511  25.123  32.310  20.031  0.0458  0.1286  0.2782
30271W        W86512  26.352  30.800  21.589 -0.0910  0.2818  0.2363
30272W        W86513  26.953  21.357  23.982 -0.1668 -0.1985 -0.3247
30273W        W86514  12.727  19.343   1.689  0.3399  0.1885  0.1892
30274W        W86515  30.696  17.474   8.270 -0.1858  0.0816  0.0713
30275W        W86516  26.544   0.053   4.555  0.0364  0.2553 -0.2234
30276W        W86517  18.096   2.682   3.804 -0.1421 -0.1723 -0.1634
30277W        W86518   7.151  10.965   9.780  0.3101  0.2670 -0.2315
30278W        W86519  14.661  13.838  24.946 -0.1353  0.0809 -0.1616
30279W        W86520  30.198  18.376  17.614  0.0630 -0.2825  0.1144
30280W        W86521  34.517  14.261  24.724 -0.1272  0.0579  0.2361
30281W        W86522  27.106  21.653  11.824  0.0046  0.1026 -0.0069
30282W        W86523   9.790  22.978   7.177  0.2166  0.0116 -0.0695
30283W        W86524  13.813  32.773  20.490 -0.1934 -0.2165 -0.1116
30284W        W86525  31.865  33.129   0.210 -0.0990  0.0166 -0.0997
30285W        W86526  28.527   9.888   0.589  0.3110  0.1934  0.2732
30286W        W86527   5.340  16.969   6.534  0.2237  0.2628 -0.2499
30287W        W86528  11.069  23.916   3.966 -0.1350  0.0045  0.3058
30288W        W86529  23.485   0.268  21.400 -0.1828  0.3041  0.1147
30289W        W86530  16.944   5.766   1.686  0.3990  0.2439 -0.1667
30290W        W86531  33.146  13.951  18.769  0.2499  0.2700  0.2390
30291W        W86532   1.588   0.603   4.089  0.2048 -0.0614  0.3098
30292W        W86533   1.834  14.030  24.387 -0.2889 -0.2779  0.0372
30293W        W86534   3.147   0.568   2.195 -0.1481  0.0952  0.0288
30294W        W86535  31.720   0.915  15.909 -0.1767  0.1654  0.0655
30295W        W86536  20.707   3.332   5.423  0.0384  0.0764  0.0654
30296W        W86537  18.458  21.081   3.301 -0.0547 -0.0646 -0.0896
30297W        W86538   0.232  13.623  12.585 -0.0037 -0.3659 -0.1991
30298W        W86539   4.915  30.971  24.764  0.0228  0.0563 -0.2699
30299W        W86540   7.024   0.325   3.494  0.0774 -0.0546 -0.3941
30300W        W86541  24.479  34.686  24.713  0.1262  0.0782  0.0762
30301W        W86542  24.345  18.793  22.642 -0.1269 -0.0555  0.0044
30302W        W86543  14.215   6.722   5.325  0.0818  0.1519  0.0262
30303W        W86544  25.875  29.720  22.870 -0.4635 -0.3372  0.0006
30304W        W86545  20.738  12.104  18.444 -0.0747 -0.1405  0.3413
30305W        W86546  10.040  32.052  22.189  0.1806  0.1925 -0.0840
30306W        W86547  23.939  28.147  23.142 -0.1031  0.2897 -0.3178
30307W        W86548  22.443   7.095   7.070  0.0559 -0.3771  0.3983
30308W        W86549   6.283  14.367  10.029 -0.0674  0.1093  0.2196
30309W        W86550  31.268  28.040   0.153 -0.2210 -0.1489 -0.1532
30310W        W86551  18.191  25.934   8.858 -0.4201  0.1509  0.0804
30311W        W86552  14.481   4.489   5.528 -0.1017  0.0768 -0.4274
30312W        W86553  13.293  17.157  21.702  0.1252  0.2035 -0.2940
30313W        W86554  28.068  16.549   9.766  0.0648  0.0561 -0.1390
30314W        W86555  30.546   0.308  19.180  0.1919 -0.2762  0.0924
30315W        W86556  16.047  23.726  13.672 -0.2111 -0.0701  0.1129
30316W        W86557  16.364  18.220   7.145 -0.3269  0.2374  0.1408
30317W        W86558   7.059   7.190   0.445 -0.1188 -0.0034  0.2485
30318W        W86559  12.993  13.285  11.717  0.0519  0.0812 -0.2735
30319W        W86560   2.289  26.565   3.818  0.1527  0.3916  0.2076
30320W        W86561  18.978  25.987  25.951 -0.1469  0.0464 -0.1751
30321W        W86562  18.402  22.361  20.541  0.0836 -0.2011  0.1977
30322W        W86563   5.658  29.447  12.827  0.1039 -0.2936 -0.1983
30323W        W86564  26.163  12.030  19.164 -0.1504  0.2706  0.2164
30324W        W86565  10.693  31.275   7.772 -0.0308 -0.0344 -0.2669
30325W        W86566  26.958  29.113  13.277 -0.0699 -0.1332  0.0391
30326W        W86567  15.270  13.951  23.001 -0.1957 -0.4385 -0.1252
30327W        W86568   5.204  33.070  24.356 -0.1614  0.0011  0.1665
30328W        W86569  11.401   8.724  13.066  0.1584  0.1633  0.0890
30329W        W86570   3.755  33.364   1.774 -0.1059  0.0662  0.1992
30330W        W86571  10.275  10.501  14.183  0.2276 -0.0865  0.3952
30331W        W86572  20.398  35.385   5.626  0.3589  0.1571 -0.0642
30332W        W86573  26.245   3.776  23.115  0.2209  0.2493  0.2635
30333W        W86574   1.783   4.169   6.662 -0.3433 -0.1865  0.1841
30334W        W86575  20.825   7.888  25.820  0.0282  0.1197 -0.0480
30335W        W86576   1.856  20.232  15.126 -0.3313  0.1749 -0.0272
30336W        W86577  10.568  28.531  23.475  0.0881  0.0067 -0.3391
30337W        W86578  13.946   2.947  24.533  0.0124  0.3442 -0.0730
30338W        W86579   2.226   3.730  25.945  0.0729  0.0646  0.0383
30339W        W86580   3.124   8.072  16.597  0.1216 -0.0346  0.3207
30340W        W86581   8.608  10.691   6.411  0.2902 -0.0477 -0.0140
30341W        W86582  22.407  21.880  23.446  0.1636 -0.2371 -0.0481
30342W        W86583  26.124   9.589  14.764 -0.0441 -0.0380 -0.1390
30343W        W86584  20.993  15.264  15.856  0.0557 -0.1806 -0.3271
30344W        W86585   7.900  27.109  13.178 -0.0712 -0.2150 -0.0389
30345W        W86586  30.870   2.846  13.721  0.2605  0.2332  0.0578
30346W        W86587  33.144  31.264  23.936 -0.4076 -0.1327  0.1585
30347W        W86588  24.759  19.078  11.040 -0.2454 -0.1659 -0.0866
30348W        W86589  29.867  35.308   4.764 -0.0874 -0.2210 -0.1244
30349W        W86590  10.151  13.244   7.509  0.4121  0.0161 -0.2263
30350W        W86591  32.126  13.472  14.651  0.3733 -0.0796  0.0929
30351W        W86592   4.652  32.363  22.784  0.1101 -0.2270 -0.0217
30352W        W86593  15.801  24.066  22.681 -0.2129  0.1738 -0.1616
30353W        W86594  14.660  23.121   8.002 -0.0913  0.1221 -0.2648
30354W        W86595  17.719  31.083   8.932  0.2112 -0.1100  0.1495
30355W        W86596  20.182  23.549   9.256 -0.1038 -0.0885  0.0397
30356W        W86597  12.464  23.138  12.845 -0.4617 -0.2712 -0.2617
30357W        W86598   6.183  15.051  21.826 -0.0749 -0.1789  0.0449
30358W        W86599  10.707  23.270  13.910  0.0002  0.0825 -0.2496
30359W        W86600  14.177   6.649  25.795 -0.2193 -0.4599  0.2571
30360W        W86601  10.468  11.822   1.315 -0.0750 -0.0053 -0.1171
30361W        W86602  28.440  15.951  12.447 -0.2104 -0.3907  0.2000
30362W        W86603  14.610  30.624   6.288 -0.2981  0.1437 -0.0883
30363W        W86604   6.558  17.770  24.472  0.0198  0.3923  0.0038
30364W        W86605   4.586  15.654  17.504 -0.1035 -0.1355  0.1057
30365W        W86606   4.554  34.931   9.271 -0.1284 -0.0016 -0.5870
30366W        W86607  16.792  27.225   9.954 -0.0091 -0.0151  0.3103
30367W        W86608  32.026  20.735  23.604 -0.3137 -0.1431 -0.1483
30368W        W86609  31.701  24.498  22.436 -0.2446 -0.1252  0.1263
30369W        W86610   3.014  19.777  21.550 -0.0353  0.1869 -0.2088
30370W        W86611  34.982  21.447  17.989  0.1734 -0.2236  0.1904
30371W        W86612  26.921  33.627   4.940 -0.1621 -0.0644 -0.0200
30372W        W86613  31.861  21.476  22.878 -0.0250 -0.1694  0.2632
30373W        W86614  13.148  22.435   5.322  0.3632  0.0682 -0.0946
30374W        W86615   7.885  19.759   5.149 -0.3765  0.1296  0.2023
30375W        W86616  29.174  35.309  17.856  0.1869 -0.0436 -0.1945
30376W        W86617  27.015  27.955  20.639 -0.1408  0.1264  0.0890
30377W        W86618   4.114  20.993  16.647  0.3953  0.0044  0.0180
30378W        W86619  26.864  11.633  10.954  0.1447 -0.3696 -0.2501
30379W        W86620   9.729   2.645  21.121 -0.0268  0.2699  0.1093
30380W        W86621  17.937  22.968  24.655 -0.0512 -0.0964  0.3127
30381W        W86622   5.466  11.299   6.293  0.1186 -0.0077  0.1408
30382W        W86623   8.256  20.678  12.963  0.0064 -0.2210  0.0751
30383W        W86624  13.775  28.679  11.734  0.4054  0.0501 -0.1912
30384W        W86625  24.912  23.792  10.594  0.0219 -0.2456 -0.0208
30385W        W86626  19.030   5.935  19.807 -0.0382  0.3809 -0.2607
30386W        W86627  24.641  14.635  13.582 -0.4343  0.1335  0.0279
30387W        W86628  14.736  20.615   5.847  0.0267 -0.1851  0.4205
30388W        W86629   2.120  33.792  24.401 -0.0736 -0.0671  0.1932
30389W        W86630  28.500   3.150  24.795 -0.1297  0.0798  0.0903
30390W        W86631  27.780  17.511  19.080  0.2880 -0.0748  0.0395
30391W        W86632  10.851  25.866  22.873 -0.0275  0.1514  0.0139
30392W        W86633  29.402   2.115  12.110  0.2458  0.0625 -0.1046
30393W        W86634  10.244  28.890  23.134  0.1355  0.1121  0.1255
30394W        W86635  12.561  20.114   0.672  0.0471  0.2918  0.1923
30395W        W86636  22.986   7.343  25.577  0.3334  0.3331  0.0233
30396W        W86637   0.402  11.964   1.693 -0.1106  0.1932  0.2178
30397W        W86638  18.442  26.182   2.422 -0.1426  0.1011  0.2516
30398W        W86639  33.830  34.626  13.582 -0.0172 -0.1792  0.4071
30399W        W86640  25.761   1.777   5.638 -0.2145 -0.1441  0.1503
30400W        W86641  16.334  25.468   1.893 -0.0579  0.2676  0.0025
30401W        W86642  33.388  15.729  15.530 -0.1488 -0.0893  0.4395
30402W        W86643  10.371  28.456  24.276 -0.1073 -0.2916 -0.0452
30403W        W86644   8.770  22.168  14.445 -0.3768  0.1667  0.1784
30404W        W86645  26.013  20.964   7.225 -0.2675 -0.0032 -0.0421
30405W        W86646  13.486  29.592   5.222 -0.1080 -0.0011  0.3060
30406W        W86647  23.011  24.705  24.502 -0.0830 -0.4851 -0.0889
30407W        W86648  12.619  32.280  14.444  0.1226 -0.1247  0.1243
30408W        W86649   4.864  29.733  21.367  0.1930  0.4926 -0.3374
30409W        W86650  33.817   4.668  12.378  0.1528 -0.2542  0.3075
30410W        W86651  12.308  21.254   7.183 -0.3616  0.0031 -0.2599
30411W        W86652  28.610   8.961  18.937 -0.1109  0.0602 -0.2954
30412W        W86653  24.769   4.487  15.174 -0.1376  0.0302 -0.0607
30413W        W86654  10.899  23.390   0.543  0.2050 -0.1937 -0.0335
30414W        W86655   7.932   9.053   3.436 -0.0601 -0.2134 -0.1491
30415W        W86656   2.556  11.300   4.991  0.2024  0.4344 -0.1442
30416W        W86657  34.153  19.558  17.835 -0.1388 -0.0884  0.2535
30417W        W86658   2.968  19.486  17.471 -0.0933 -0.0410 -0.0972
30418W        W86659   6.998  19.612  21.953  0.0093  0.0411 -0.1943
30419W        W86660  15.258  16.521  12.402 -0.1913  0.0410 -0.1316
30420W        W86661  14.250  26.135  10.835  0.0065  0.4997  0.1047
30421W        W86662  12.372   9.348  23.417  0.2005 -0.3779  0.0659
30422W        W86663  27.339  25.996  13.774  0.2464 -0.0221 -0.2771
30423W        W86664  17.062  25.770  24.829 -0.1594  0.3351 -0.1980
30424W        W86665  10.631  29.466  23.457 -0.1960 -0.0061 -0.1744
30425W        W86666  10.729  11.426  19.974 -0.0590 -0.2380  0.0117
30426W        W86667  16.247  32.513  10.985 -0.0282  0.1712 -0.1412
30427W        W86668   4.038  28.919   8.139  0.1561 -0.1687  0.0839
30428W        W86669  19.535  22.809   0.843 -0.2764  0.2934 -0.0942
30429W        W86670  29.630  13.003  25.284 -0.0810  0.0115  0.1492
30430W        W86671  28.023  25.000  20.657 -0.1449 -0.3965  0.3700
30431W        W86672  11.020  34.155   9.837  0.2400 -0.1395  0.4199
30432W        W86673  13.092  22.482   7.271 -0.0098  0.0249 -0.2186
30433W        W86674  26.821  30.388   2.813  0.2867 -0.0826 -0.0555
30434W        W86675  17.766   9.608  18.597  0.1242  0.0870  0.0626
30435W        W86676   2.980  28.077   9.813  0.0614 -0.0079 -0.0867
30436W        W86677  13.247  13.590  20.839  0.0981  0.0666  0.0559
30437W        W86678  10.907   8.997   4.399  0.1061  0.0217 -0.0691
30438W        W86679   7.264  28.743  13.245  0.2795  0.2533 -0.0062
30439W        W86680  13.278  16.359   7.525 -0.0493 -0.1072  0.0027
30440W        W86681  25.322  26.180  20.705  0.0420  0.0193 -0.0673
30441W        W86682   0.221   3.927  21.089  0.2778  0.0388  0.0561
30442W        W86683  23.480   2.529  13.896 -0.0940 -0.2951 -0.1381
30443W        W86684  13.012  29.084   5.784 -0.0309 -0.1755  0.1210
30444W        W86685  17.142  21.729  11.694 -0.2212 -0.1923  0.0277
30445W        W86686   1.212  22.084  14.855 -0.1848 -0.0040 -0.1618
30446W        W86687  19.069   9.149  10.218 -0.0470 -0.1920 -0.1729
30447W        W86688  25.324  33.347  19.585 -0.1194 -0.0448  0.0696
30448W        W86689  20.256   5.722  20.745  0.2873  0.0181 -0.0826
30449W        W86690  30.839  16.178  17.237  0.3211 -0.0158 -0.0661
30450W        W86691  27.798  12.194  19.813  0.0857 -0.0732 -0.0624
30451W        W86692   5.474   5.315   8.696  0.0187  0.1814  0.0503
30452W        W86693  20.311  12.940  17.876  0.0795  0.0875  0.0842
30453W        W86694   5.828  10.336  21.558 -0.3547 -0.2403 -0.0710
30454W        W86695  34.358  27.630   0.657  0.0062 -0.1026 -0.2930
30455W        W86696  27.962  17.606   5.097 -0.3281 -0.2022 -0.1560
30456W        W86697  14.467  22.992   6.552 -0.1240 -0.0518 -0.0481
30457W        W86698   0.278   4.829   5.743  0.1054 -0.1404  0.0271
30458W        W86699  20.000  16.423  25.792  0.0953 -0.1332 -0.1405
30459W        W86700  29.026  22.028  12.208 -0.0428  0.3257  0.0470
30460W        W86701  31.496  18.730  24.195 -0.0691 -0.3784  0.3536
30461W        W86702  34.928   5.206  24.471 -0.3399 -0.1564  0.0713
30462W        W86703  17.694   4.689   6.649 -0.1566  0.0541  0.0523
30463W        W86704  35.062  24.010  15.317 -0.1757  0.4655 -0.1561
30464W        W86705  16.553   4.070  23.805 -0.2201  0.0691 -0.1878
30465W        W86706   9.935  10.176  10.374  0.2051  0.1027 -0.1757
30466W        W86707  13.721   3.308   8.833 -0.1841  0.0718  0.0937
30467W        W86708  31.370  33.328  22.937 -0.1867 -0.0033  0.3032
30468W        W86709  19.462  11.906  20.225  0.1371 -0.0368 -0.2116
30469W        W86710  33.141  10.884   7.791  0.0514  0.5748  0.0086
30470W        W86711  18.229  32.509  25.861 -0.0760 -0.0155  0.0625
30471W        W86712  16.058  22.253  12.384 -0.0235  0.1308 -0.0687
30472W        W86713  31.034   4.795   2.701 -0.2283 -0.2072  0.2878
30473W        W86714  16.061  32.090  11.136  0.1158 -0.0573  0.1154
30474W        W86715  21.293  21.085   0.641  0.0713 -0.1050 -0.0128
30475W        W86716  11.198  28.994  12.124  0.5622 -0.0132  0.4144
30476W        W86717  25.319  29.504  14.226  0.0801 -0.0256  0.2686
30477W        W86718   0.375  14.821  10.771 -0.1017 -0.1801 -0.0799
30478W        W86719  12.263  20.296  23.634 -0.1634  0.1795  0.2080
30479W        W86720  21.617  14.751   2.738  0.2809 -0.0703  0.5069
30480W        W86721  33.073   2.911  20.191  0.2354  0.2721  0.2665
30481W        W86722  19.138  27.354   5.422 -0.2700  0.2258  0.1447
30482W        W86723  20.295  25.543  23.724 -0.1293 -0.1946 -0.1102
30483W        W86724   8.533  16.724   0.284  0.0630 -0.0427  0.1393
30484W        W86725  19.554   8.010   9.799  0.2440  0.1688 -0.1776
30485W        W86726  33.637  19.020  19.156 -0.1913  0.0283  0.1012
30486W        W86727  10.603  34.191   5.002  0.1810 -0.1524  0.0222
30487W        W86728  34.974   3.066   0.132 -0.2020  0.3986 -0.0981
30488W        W86729   4.197  34.985   9.617 -0.0493 -0.0097 -0.0432
30489W        W86730  15.183  20.222   0.640  0.1409 -0.0984 -0.0820
30490W        W86731  25.731  10.836  17.880  0.0131  0.1915 -0.1941
30491W        W86732   0.387   7.117   4.474 -0.0289  0.1884 -0.1862
30492W        W86733  15.250   7.165  18.786 -0.0517  0.0124 -0.0239
30493W        W86734  33.037  10.293  20.115  0.2615 -0.0261  0.1006
30494W        W86735   8.079  11.245   0.446  0.2519 -0.2425 -0.0344
30495W        W86736   8.513   2.356   4.524  0.0600 -0.2324 -0.0517
30496W        W86737  29.227  13.550   9.624 -0.0848 -0.5271  0.1727
30497W        W86738  13.988  19.080   6.609  0.0178  0.0698 -0.0379
30498W        W86739  10.802   5.419   3.931  0.0494 -0.2170  0.2634
30499W        W86740  26.912  26.581  18.917 -0.0651 -0.0630 -0.1736
30500W        W86741   3.260  22.129  17.338  0.3058 -0.0020 -0.0580
30501W        W86742   6.067   5.316   3.932  0.0799  0.1942  0.0736
30502W        W86743  14.678  34.710   0.238 -0.0454 -0.0450 -0.1339
30503W        W86744   1.429   2.370   4.889 -0.0629  0.2401  0.0847
30504W        W86745  21.364  24.486   3.198  0.1236 -0.2354 -0.0841
30505W        W86746  22.648  16.179  23.680  0.0301 -0.0795 -0.1436
30506W        W86747  31.883  18.634  12.926  0.0761  0.0775  0.1945
30507W        W86748   0.118  25.607  16.827  0.1977 -0.0167 -0.1426
30508W        W86749  13.353  12.688  25.354 -0.1280 -0.2336 -0.2804
30509W        W86750  12.720  26.527   5.075  0.1144 -0.0793 -0.1367
30510W        W86751  24.622  30.682  13.565  0.0508  0.1403  0.0729
30511W        W86752  15.389  18.153  26.226 -0.2162 -0.4250 -0.1120
30512W        W86753  30.681  25.524   8.610  0.1581  0.2111 -0.2873
30513W        W86754   2.746   3.074  21.054  0.0134  0.2151  0.2192
30514W        W86755  29.019   0.342   5.051 -0.1400 -0.3061  0.0741
30515W        W86756  33.149  25.643  17.035 -0.2469 -0.0799 -0.0843
30516W        W86757   5.503  27.077   8.879 -0.1109  0.1203  0.0891
30517W        W86758  32.712   8.507  12.860  0.2369 -0.0740 -0.1163
30518W        W86759  22.617  20.350  17.528 -0.1480 -0.2114 -0.0995
30519W        W86760  20.643  11.417   6.170  0.3177 -0.1559  0.1654
30520W        W86761  13.455  33.900   2.809  0.4090 -0.1161 -0.3090
30521W        W86762  34.758   7.254  15.158 -0.0101  0.2933  0.1498
30522W        W86763  20.335   4.220  23.849 -0.1636  0.1818 -0.3933
30523W        W86764  30.862   6.177   0.911  0.3069  0.0248  0.2306
30524W        W86765  25.994  20.313  19.336  0.0336 -0.1517  0.0165
30525W        W86766  11.142  25.340  15.754 -0.0234  0.0989  0.0114
30526W        W86767  24.523  32.150  13.669  0.1739 -0.0186  0.0504
30527W        W86768   1.371  31.017  25.366  0.1050 -0.3695 -0.0176
30528W        W86769  10.443  33.821   4.660  0.4407 -0.2073  0.2074
30529W        W86770  14.623  24.366  22.616 -0.3149 -0.3963  0.0701
30530W        W86771  14.210  29.926  22.572 -0.1862 -0.1456  0.2726
30531W        W86772  24.855  27.841  23.462  0.1295 -0.2235  0.1382
30532W        W86773  33.374  24.492  16.753 -0.0059  0.1754  0.0435
30533W        W86774  30.852  12.104  26.113  0.1396  0.0223 -0.0272
30534W        W86775  28.342  10.257  15.588  0.1452 -0.3187 -0.3074
30535W        W86776  33.258  11.062  13.000  0.1588  0.1675  0.1995
30536W        W86777   8.650  16.928  23.241  0.0010  0.2156  0.0652
30537W        W86778   0.158  26.502   3.012 -0.4030 -0.0657  0.1357
30538W        W86779  30.115  17.845   7.061 -0.1122 -0.0458  0.1459
30539W        W86780   4.098  33.367   8.475  0.2547  0.2161  0.3192
30540W        W86781  30.503  13.662  11.780  0.0521 -0.2590 -0.0506
30541W        W86782  24.681  21.649  15.600  0.4169 -0.1769  0.0810
30542W        W86783  12.271  10.375  24.914 -0.1925  0.3111  0.0451
30543W        W86784  11.182  11.947  23.363  0.1148 -0.0066  0.0813
30544W        W86785  27.363  25.209  11.475  0.3197 -0.1230 -0.1623
30545W        W86786  29.665  10.804   9.165  0.4780 -0.0259 -0.2776
30546W        W86787   3.575  32.698  24.330  0.2602  0.0163 -0.0314
30547W        W86788  13.865  27.982   7.361  0.0566 -0.1578  0.0377
30548W        W86789  27.864  10.708  13.819  0.0516  0.1252 -0.2832
30549W        W86790  18.610  34.010   0.767 -0.0004  0.0899 -0.1748
30550W        W86791  31.371  19.668  16.823 -0.0176 -0.3985 -0.2070
30551W        W86792   1.179  20.561  16.929  0.2240 -0.1567  0.1575
30552W        W86793  16.740  31.589   4.103  0.2313 -0.0038  0.1132
30553W        W86794  17.657   2.226  18.036  0.0205  0.1658  0.0409
30554W        W86795  18.632  12.448   8.477  0.0412 -0.0931 -0.1358
30555W        W86796  34.470  32.198   1.360 -0.2147 -0.1150  0.2030
30556W        W86797   9.594  14.753   3.383 -0.1684 -0.0600 -0.0672
30557W        W86798  21.457   8.751   3.887 -0.3952  0.0015 -0.2374
30558W        W86799   2.903   4.355   5.964 -0.0618 -0.1057  0.5006
30559W        W86800  18.101  18.516  19.021 -0.2933 -0.0915  0.0505
30560W        W86801   2.909  28.423  11.314  0.2310  0.0930 -0.1586
30561W        W86802  22.291   7.084  23.910 -0.2254  0.1514  0.2280
30562W        W86803  14.977  20.603   0.994 -0.0113  0.1618  0.1801
30563W        W86804  10.938  17.288  23.919  0.0781  0.0900 -0.1615
30564W        W86805  30.065   3.765  24.433 -0.1537 -0.0486 -0.1440
30565W        W86806   6.453  24.266   3.824  0.0497  0.0903 -0.3269
30566W        W86807  16.220  23.772   7.538  0.3440  0.0748 -0.0656
30567W        W86808  19.628  29.003   3.505 -0.0297  0.2191  0.0401
30568W        W86809   6.986   3.162  23.657 -0.1043  0.0711 -0.2049
30569W        W86810  13.532   8.080   9.316 -0.1814 -0.2207 -0.1927
30570W        W86811  29.118   3.613   0.932  0.2302  0.0936  0.0859
30571W        W86812  33.627   7.335  25.256 -0.1472 -0.1862  0.2748
30572W        W86813  20.176   9.033  19.532 -0.0756 -0.0600 -0.1896
30573W        W86814   8.359  31.403  12.520  0.2317 -0.0064 -0.3934
30574W        W86815   4.665   3.587   1.384  0.0375 -0.1746  0.0134
30575W        W86816  11.852  14.282  18.644  0.2492 -0.3026 -0.2842
30576W        W86817  24.256  17.528  20.624  0.0167 -0.1226 -0.0831
30577W        W86818  20.510  10.262  17.512  0.3549  0.0822 -0.1875
30578W        W86819   7.632  10.617  18.527 -0.1314 -0.2379  0.0468
30579W        W86820  32.340  15.808  20.924 -0.2043 -0.1389 -0.3584
30580W        W86821  33.153   4.053  16.990  0.1133 -0.0208  0.0386
30581W        W86822  34.305   6.906  18.159  0.2629  0.2068 -0.2341
30582W        W86823  21.124   7.149   5.992  0.0369 -0.0395  0.0956
30583W        W86824  17.082  15.608   5.044 -0.2158  0.1880 -0.0312
30584W        W86825  17.533  33.665   2.361  0.0432 -0.2241 -0.2093
30585W        W86826  14.632  10.135  24.303  0.1633  0.1623 -0.1717
30586W        W86827  27.660   7.647  19.433  0.1131 -0.0335 -0.0984
30587W        W86828  10.009  30.844  22.368  0.0402  0.0881 -0.0106
30588W        W86829  28.178  30.834   4.981  0.0588 -0.2686  0.2929
30589W        W86830  22.957   4.109   3.276 -0.4402 -0.1235 -0.1515
30590W        W86831  29.909   8.206  21.010  0.1644 -0.1284 -0.0579
30591W        W86832  19.734   3.090   8.176  0.0507 -0.0076  0.2513
30592W        W86833   0.362  18.107  23.380  0.0480 -0.0851 -0.1049
30593W        W86834  23.640   8.773  16.339  0.2092 -0.0707  0.0455
30594W        W86835   0.570   4.165  24.677  0.2055  0.0952 -0.1939
30595W        W86836  25.143  29.029  13.503 -0.1952  0.0320 -0.0832
30596W        W86837  32.746  22.108  10.997 -0.1201 -0.0894 -0.1322
30597W        W86838  19.473   6.728  22.680  0.1404 -0.3667  0.1931
30598W        W86839  15.709   1.930   0.995 -0.0559  0.2578  0.1609
30599W        W86840  19.108   0.140  21.014 -0.0519  0.0723  0.2668
30600W        W86841  30.529  30.069   3.717  0.0782 -0.1221 -0.3532
30601W        W86842   9.016  23.514  22.953 -0.1790 -0.1479  0.1661
30602W        W86843  24.646  25.359  14.524 -0.3630  0.2403 -0.1401
30603W        W86844  19.982   3.478  15.176 -0.1353  0.0000  0.2578
30604W        W86845  21.270  30.926   1.365  0.0809 -0.2436  0.0207
30605W        W86846   7.436  11.432  22.557 -0.1529  0.0692  0.1461
30606W        W86847   0.069  22.576  12.654  0.0012  0.1975 -0.2153
30607W        W86848   8.798  11.834  22.358 -0.2623 -0.0725 -0.2100
30608W        W86849  26.065  32.963   5.052 -0.0293 -0.1847 -0.1086
30609W        W86850  24.755  19.929  22.129 -0.0155 -0.3788 -0.2631
30610W        W86851  18.351  28.260  25.443 -0.3902  0.1494 -0.1351
30611W        W86852  27.130   1.448  24.655  0.0789  0.4645  0.3095
30612W        W86853  21.621  21.837  25.126  0.1048 -0.0227 -0.1704
30613W        W86854  14.831   5.034  20.065  0.0285 -0.0227 -0.1049
30614W        W86855  20.772   2.164  22.034  0.0494  0.0652  0.0620
30615W        W86856  26.496  19.120  19.209 -0.1247  0.1332 -0.0960
30616W        W86857  18.249  21.251  19.536  0.1318 -0.3323 -0.2347
30617W        W86858  33.629  24.787  19.698  0.0011 -0.2769 -0.3635
30618W        W86859  32.162   2.936   0.622 -0.1837  0.0688  0.0681
30619W        W86860   7.809  34.894   4.307 -0.1205  0.1056 -0.2377
30620W        W86861  18.770   4.256  25.923  0.0269 -0.0609  0.2735
30621W        W86862  30.720  27.045  12.878 -0.0224  0.1263 -0.0908
30622W        W86863  19.308  18.697  20.080 -0.0195 -0.2269 -0.2075
30623W        W86864   2.902  13.204  18.934  0.1106 -0.3237  0.1790
30624W        W86865  15.602  16.375   9.518 -0.1310 -0.3030  0.1770
30625W        W86866  23.255  14.035  13.714  0.1131 -0.3782  0.2020
30626W        W86867  27.281  12.689  15.123  0.0321 -0.0754  0.1185
30627W        W86868  25.737   3.308  18.961  0.1082  0.0859 -0.1057
30628W        W86869  23.362  21.069  22.369  0.1304  0.3235 -0.1479
30629W        W86870   7.045  27.563  22.580 -0.0630 -0.1371 -0.0889
30630W        W86871  18.697  13.091  17.461 -0.0379 -0.0803 -0.0780
30631W        W86872  24.556  15.107  15.296 -0.1260  0.2257 -0.2095
30632W        W86873  15.454   0.684   0.198  0.0841 -0.0513 -0.0376
30633W        W86874  27.068  22.620  25.296  0.1511  0.1301 -0.2792
30634W        W86875  30.195  15.676  15.656  0.3350  0.1432 -0.0444
30635W        W86876  12.638  18.904  15.012 -0.2387 -0.0233  0.1054
30636W        W86877  14.864   7.276  21.992 -0.3291 -0.0441 -0.1166
30637W        W86878  14.344  27.524   6.070  0.1973  0.1982 -0.3320
30638W        W86879  10.669  29.292  16.062  0.0116  0.1937  0.3115
30639W        W86880  17.186  18.700  26.087 -0.3520  0.0408 -0.0083
30640W        W86881  14.369   7.950  20.270  0.4510  0.2610 -0.0906
30641W        W86882   2.094  18.785  24.840  0.2501 -0.0738  0.1086
30642W        W86883  27.158  31.772   1.331 -0.0754 -0.1093  0.1340
30643W        W86884  30.713  34.525  17.624  0.0624 -0.0063 -0.0876
30644W        W86885   5.506   6.346  24.757 -0.0227  0.4422 -0.2127
30645W        W86886  27.534  32.730  24.454 -0.2011 -0.0318 -0.1112
30646W        W86887   3.854  29.108  25.841 -0.1456 -0.2245 -0.0711
30647W        W86888  34.822   1.708  17.728  0.2643  0.1076  0.0167
30648W        W86889  20.576   6.375  23.484  0.1459  0.0213  0.0205
30649W        W86890   3.279   0.728   3.432 -0.1159 -0.0920 -0.1575
30650W        W86891   5.405   4.131   0.997  0.1555 -0.1942 -0.0006
30651W        W86892  10.337   2.241  13.075 -0.2271 -0.0707  0.3543
30652W        W86893  15.110   0.889   0.465  0.2303  0.1380 -0.0824
30653W        W86894  18.120  21.322   6.281  0.0330 -0.0588 -0.1043
30654W        W86895  14.560  15.806  23.972 -0.0950  0.1453 -0.1075
30655W        W86896  27.308  21.465  17.086  0.1666 -0.1216  0.0006
30656W        W86897  31.323  17.938  10.403 -0.0636 -0.1930 -0.0835
30657W        W86898  31.138  10.139   6.761 -0.0773 -0.1505  0.0830
30658W        W86899   7.188   5.302   5.251 -0.0757 -0.0448 -0.2701
30659W        W86900   5.487  17.383   1.893  0.2930 -0.2845 -0.3186
30660W        W86901   9.012   9.098  25.616 -0.0740 -0.1416  0.1773
30661W        W86902  17.040   8.784   1.358 -0.3082  0.0560  0.3860
30662W        W86903   8.039  11.898  24.055  0.1141 -0.1181  0.1426
30663W        W86904  26.467  16.056   7.270 -0.1039  0.4146 -0.2272
30664W        W86905  11.716   6.223   0.118  0.0519 -0.2080 -0.0880
30665W        W86906  30.361  21.778  20.360  0.2311  0.2784  0.0292
30666W        W86907   3.287   0.339  18.965  0.2783 -0.1338 -0.1496
30667W        W86908  24.438   8.567  19.640  0.1002 -0.3973 -0.0433
30668W        W86909  20.059   1.600   9.421 -0.2103  0.0460 -0.0128
30669W        W86910   1.604  32.816   4.568  0.3320 -0.0101  0.0941
30670W        W86911  28.637   4.790  21.338 -0.1639 -0.2232  0.3373
30671W        W86912   6.458  29.401  12.240 -0.1283  0.1462  0.0850
30672W        W86913  15.472  24.243  24.429  0.1002  0.0932 -0.0469
30673W        W86914  21.958  23.768   0.642  0.0836  0.0676 -0.1683
30674W        W86915  26.961  14.438  15.100 -0.0484 -0.2503 -0.1289
30675W        W86916  23.211  31.829  20.003 -0.1427  0.0278  0.4199
30676W        W86917   6.737  32.770   2.681 -0.0223  0.4081  0.1115
30677W        W86918  25.562  27.064  18.000 -0.2397 -0.0172 -0.1669
30678W        W86919  25.148  15.678   7.606 -0.2209 -0.2270 -0.0831
30679W        W86920  32.090  14.443  16.908  0.2207 -0.1322  0.1979
30680W        W86921  28.254  21.787  16.156 -0.0137 -0.0547 -0.1693
30681W        W86922  17.645   6.005  11.989 -0.2455  0.1310  0.1568
30682W        W86923  34.554  24.989   9.470 -0.0751  0.2103  0.0836
30683W        W86924   9.899   3.948  23.545  0.3520  0.0598  0.2818
30684W        W86925  18.263  21.490  10.969 -0.0737  0.0088 -0.0452
30685W        W86926  13.489   7.500   3.044 -0.1959  0.2315 -0.0988
30686W        W86927  10.785  18.917   1.536 -0.1244  0.1479 -0.0297
30687W        W86928  21.614   8.571   7.537  0.0205  0.0465  0.0733
30688W        W86929  28.065  29.817  18.046 -0.0648  0.0627 -0.2936
30689W        W86930   6.892  15.760  10.764  0.1380  0.4242  0.1860
30690W        W86931   1.015   3.915  24.568 -0.0591 -0.0211 -0.1290
30691W        W86932  13.405  31.016  24.905 -0.3000 -0.0345 -0.3461
30692W        W86933  16.699  20.099   6.115  0.1578  0.0888  0.1774
30693W        W86934  11.437  30.202   3.586  0.0893  0.2773  0.0002
30694W        W86935  25.870  11.192  23.145  0.3488 -0.1141 -0.1189
30695W        W86936   8.466   8.042  18.349  0.0860 -0.0180 -0.1488
30696W        W86937  10.133   2.066  26.209  0.0168 -0.0001 -0.0468
30697W        W86938  13.882  11.009  10.105  0.0456  0.1772 -0.0596
30698W        W86939  27.152  23.772  20.282 -0.0462  0.0507 -0.2024
30699W        W86940   5.497  33.617   6.126  0.3053  0.3396  0.1485
30700W        W86941  33.781   4.642  24.678 -0.0661 -0.1613  0.1036
30701W        W86942   8.634  12.529  11.249  0.4618 -0.2111 -0.2449
30702W        W86943  17.349  10.227   8.138  0.0948  0.1237 -0.0383
30703W        W86944  31.249   4.843  22.194  0.2712 -0.3065 -0.1459
30704W        W86945  25.405   7.465   2.463 -0.2272 -0.0176 -0.1278
30705W        W86946   6.739  28.417   9.697 -0.1057 -0.3364 -0.3181
30706W        W86947  28.420  15.751  25.772 -0.0959 -0.2291 -0.0700
30707W        W86948   4.500   0.465   9.499 -0.0063  0.0898 -0.0575
30708W        W86949  32.699   0.343  15.067 -0.0803  0.1831 -0.0775
30709W        W86950   8.103  24.761   5.087  0.0503 -0.0700  0.1075
30710W        W86951   7.752   2.381   1.229  0.1563  0.2081  0.0021
30711W        W86952  21.045   3.698  22.651 -0.1943 -0.2281 -0.0096
30712W        W86953  31.672  26.841  24.133  0.1109  0.2488  0.0186
30713W        W86954  25.011  30.922  15.440 -0.2187 -0.1407  0.3210
30714W        W86955  29.276  32.498  25.055  0.0649  0.0076 -0.1596
30715W        W86956  26.967   8.160  13.890 -0.0039 -0.0087  0.2106
30716W        W86957   6.749   3.342   4.868 -0.2199 -0.0133  0.2786
30717W        W86958  31.514   4.627  11.750 -0.2755  0.1628  0.1696
30718W        W86959  35.263  18.788  12.951 -0.2513 -0.2818  0.2632
30719W        W86960   5.499  16.902  17.174 -0.0505  0.2724 -0.0455
30720W        W86961   8.834  28.386  15.859  0.0053 -0.3054 -0.2228
30721W        W86962  13.449   8.045  24.116  0.2603  0.0619 -0.1909
30722W        W86963   4.114  15.144   0.999 -0.1994  0.1100 -0.2558
30723W        W86964   3.608   2.954   7.280 -0.0172 -0.1506 -0.0243
30724W        W86965   9.988  24.552  14.896 -0.6022  0.0752 -0.0866
30725W        W86966  26.240   4.179  15.648 -0.3223  0.0078 -0.2166
30726W        W86967  25.635  15.706  23.601 -0.2898 -0.2484 -0.0773
30727W        W86968  35.314  18.824   8.411  0.2710  0.2209  0.1315
30728W        W86969  10.250  18.842   6.434  0.1445  0.0798  0.2884
30729W        W86970   8.004   2.877   2.094  0.3424  0.3812 -0.2099
30730W        W86971  18.828  26.069  19.229  0.3822 -0.1563 -0.2400
30731W        W86972   5.255   8.286   9.747  0.1891  0.0449  0.0290
30732W        W86973  33.103  10.094  24.176 -0.1621 -0.3272 -0.0026
30733W        W86974  21.753   9.418   8.299 -0.0177  0.1712 -0.2159
30734W        W86975  33.206  19.023  22.408 -0.0946  0.1618  0.0093
30735W        W86976  17.183  19.163   4.633  0.0515  0.1153 -0.1970
30736W        W86977  12.815  14.638   6.687  0.1867  0.0136 -0.1680
30737W        W86978  26.075  33.460  12.783  0.1644 -0.3258 -0.1882
30738W        W86979   5.441  33.407   5.326 -0.1843  0.1007  0.1080
30739W        W86980  26.394  27.666  10.854  0.0449  0.0313  0.0533
30740W        W86981  12.596  12.308  23.033  0.0227 -0.3071 -0.0735
30741W        W86982  25.219  18.111   0.283  0.0046 -0.1584 -0.1430
30742W        W86983  16.249   3.000   6.424 -0.0786 -0.0810  0.1241
30743W        W86984  17.748   2.773  22.724 -0.1246  0.0933  0.0607
30744W        W86985  16.703   2.569   2.551 -0.0589  0.4384  0.1965
30745W        W86986   1.023   6.801  24.432  0.0111 -0.0103  0.5454
30746W        W86987  12.675   9.841   5.694 -0.0726  0.0880  0.0797
30747W        W86988  21.009   9.188  19.302 -0.0814 -0.1422  0.0068
30748W        W86989   5.071  27.996   2.664  0.0908  0.2981 -0.0424
30749W        W86990  13.039  21.290  22.132 -0.0958 -0.1141 -0.2061
30750W        W86991  20.010  24.199   4.168 -0.0504  0.1898  0.0826
30751W        W86992  28.801   9.406  20.234 -0.4555 -0.3918  0.3601
30752W        W86993  18.670  20.692   1.402  0.0003 -0.2013  0.1587
30753W        W86994  32.031   7.080  10.500 -0.1652  0.0252 -0.2487
30754W        W86995  17.012   5.091  23.212  0.1561 -0.1453  0.2220
30755W        W86996  28.709   6.716  18.979  0.0916 -0.0282  0.0134
30756W        W86997  30.112  21.941  10.521 -0.1066 -0.1059  0.2945
30757W        W86998  30.826  21.111  21.839  0.1923  0.0455 -0.0523
30758W        W86999  27.749   7.062   2.546  0.1478  0.0945  0.1605
30759W        W87000  12.197  33.550  23.061 -0.1127 -0.2193 -0.3066
30760W        W87001  33.201  23.883  13.544  0.0821 -0.0518  0.1328
30761W        W87002  33.524   8.328  21.359 -0.1018 -0.0197 -0.0382
30762W        W87003   8.281  29.096   2.792  0.2200  0.1896 -0.0448
30763W        W87004  32.835   9.028  26.126  0.1268 -0.0115 -0.1824
30764W        W87005  10.721   8.118  19.846  0.0206  0.1428  0.2611
30765W        W87006   4.125  12.163  21.218  0.1306  0.1445  0.0465
30766W        W87007  30.932   3.638  22.353 -0.0693 -0.1116  0.2366
30767W        W87008  26.101  28.980  14.478 -0.2109  0.1990 -0.1121
30768W        W87009  24.303   2.447   5.615  0.3257 -0.0706  0.0437
30769W        W87010  34.406  10.790  10.640 -0.1777  0.2221 -0.2181
30770W        W87011  33.040  23.773  24.369 -0.2265 -0.0350 -0.1228
30771W        W87012  32.034   2.079   1.164  0.1119 -0.0234  0.2846
30772W        W87013  30.176   5.880   1.053  0.2857  0.0122 -0.1389
30773W        W87014  30.756   1.392  15.766  0.4043 -0.1487 -0.2111
30774W        W87015  30.953  23.500  16.872  0.2496  0.0076  0.0211
30775W        W87016  16.490   9.698   3.650  0.2297 -0.0921 -0.1687
30776W        W87017  27.630   3.255  20.475  0.2845 -0.2192  0.1482
30777W        W87018  25.136  16.379  22.587 -0.1016 -0.2853  0.2170
30778W        W87019   6.286   1.034  22.122 -0.0103  0.1896 -0.2067
30779W        W87020  31.232  29.388  25.129 -0.1074 -0.0787 -0.0865
30780W        W87021  30.837  26.756   2.083  0.3153 -0.0621 -0.1396
30781W        W87022  30.160  30.123   0.809  0.2088 -0.0976  0.1494
30782W        W87023  31.027   1.018  15.092 -0.0709 -0.3390 -0.1772
30783W        W87024   3.624  12.831   6.606  0.1556  0.0161  0.0873
30784W        W87025  30.486   6.899  24.831 -0.0362  0.1282 -0.2502
30785W        W87026  27.658  21.622  12.264 -0.0793  0.2679  0.4004
30786W        W87027  10.528  15.448   8.855 -0.0404  0.0605  0.3460
30787W        W87028  20.682  32.134   4.371 -0.1176  0.1795  0.1182
30788W        W87029   2.626  16.341  12.609  0.0582 -0.0059 -0.2131
30789W        W87030  28.109  18.492  25.009  0.1025  0.2066  0.2914
30790W        W87031  22.555  22.953  20.781 -0.4060 -0.1683  0.0300
30791W        W87032  28.252  10.449  11.913 -0.1731 -0.2986  0.0774
30792W        W87033   7.909  12.313   7.784 -0.1488 -0.0044  0.0418
30793W        W87034  16.441   1.615   8.814  0.0514  0.2584 -0.2103
30794W        W87035  10.685  15.692  24.422 -0.0305 -0.1215 -0.2506
30795W        W87036  30.270  17.990  11.438  0.2032 -0.1971 -0.1030
30796W        W87037  27.934  27.587  13.086  0.0240 -0.0565  0.1272
30797W        W87038  30.146  19.430  21.942 -0.0667 -0.2228 -0.1756
30798W        W87039  22.041  34.415  19.089 -0.1643  0.2727  0.2767
30799W        W87040  19.435  29.143  25.582 -0.1349  0.3312  0.0653
30800W        W87041   3.687  18.487   3.237  0.0849  0.2462  0.1335
30801W        W87042  15.903  13.525  23.996 -0.1507 -0.1260  0.2431
30802W        W87043  28.098  27.901  12.014  0.1448 -0.0377 -0.0467
30803W        W87044  18.474  14.881  10.108 -0.1517  0.0960 -0.4982
30804W        W87045  26.584   4.285   4.675  0.1528 -0.1116 -0.1617
30805W        W87046  21.945  30.582  17.112 -0.1371  0.0113  0.0014
30806W        W87047  28.982  29.752  16.433 -0.2983 -0.0077 -0.2092
30807W        W87048  21.915  20.112  24.245 -0.0277  0.0010  0.0357
30808W        W87049  16.172  25.872  25.322  0.3289 -0.3724  0.0702
30809W        W87050  27.457   5.827  14.763  0.1159 -0.0698 -0.2351
30810W        W87051  18.292  30.006   2.798  0.0469 -0.1026 -0.2036
30811W        W87052   1.723  17.566  19.369  0.1187 -0.0979  0.0028
30812W        W87053  18.380  17.438  19.361  0.1148 -0.1213  0.0868
30813W        W87054  25.541   1.733  18.322  0.1161 -0.0723  0.0959
30814W        W87055  30.866   9.395  19.402 -0.1729 -0.0650 -0.2457
30815W        W87056  28.470  21.463  22.242  0.1464  0.4368 -0.2882
30816W        W87057  10.495  14.298  25.754 -0.1367  0.1971 -0.1629
30817W        W87058  24.304  14.947  15.870 -0.2697  0.2680 -0.0327
30818W        W87059   5.462   7.525  21.280  0.1227  0.0220 -0.2180
30819W        W87060  10.881  12.218   0.182  0.2561 -0.3995 -0.3260
30820W        W87061  14.919  19.505   3.291 -0.2249 -0.0432  0.1252
30821W        W87062  26.277   8.021   1.051 -0.2841 -0.1260  0.3324
30822W        W87063   4.475  25.791   2.331 -0.0175  0.2433 -0.1795
30823W        W87064  15.203  21.441  25.869  0.0401 -0.0990 -0.0393
30824W        W87065  12.497  12.663   0.765  0.0775  0.0946  0.1722
30825W        W87066   3.077  10.408   4.471  0.0378  0.0437 -0.1640
30826W        W87067  24.893  32.753  20.171  0.1583  0.1401 -0.0433
30827W        W87068  13.408  22.741  11.222 -0.0408 -0.0629  0.1276
30828W        W87069  24.274   3.857  16.418 -0.3411  0.0799  0.1932
30829W        W87070  22.967   7.131  19.258 -0.0111  0.1610 -0.3118
30830W        W87071  28.217  25.601  21.257 -0.2350  0.0052 -0.1685
30831W        W87072  32.178  30.013   4.764 -0.0161  0.0233  0.1923
30832W        W87073  29.277  14.601   9.972  0.4351 -0.0742 -0.1798
30833W        W87074   4.090  17.719  19.158 -0.2664  0.0379  0.0971
30834W        W87075   7.172   0.005   2.601 -0.0680  0.1150 -0.0168
30835W        W87076  19.037  29.270  18.157 -0.0449 -0.2826 -0.1940
30836W        W87077  17.571  16.087  12.710 -0.0404  0.0896 -0.2252
30837W        W87078  21.218  27.106   0.080 -0.1378 -0.2983 -0.0903
30838W        W87079  22.969  21.238  15.084 -0.0175  0.2136 -0.2700
30839W        W87080  26.196  29.826  25.998 -0.2291 -0.0090 -0.3439
30840W        W87081   9.637  26.381   8.230  0.0521  0.1102 -0.0052
30841W        W87082  28.939  10.716   7.546  0.2082 -0.0171  0.0690
30842W        W87083   4.336  10.971   5.291 -0.1934 -0.0663  0.1438
30843W        W87084  16.630  28.689  23.981  0.0220  0.0218  0.0164
30844W        W87085  18.653  14.148  18.457 -0.1160  0.2196 -0.3545
30845W        W87086  21.094  18.767  23.186  0.3498  0.2658 -0.0342
30846W        W87087  10.707  26.574   3.344 -0.2419  0.2332 -0.0557
30847W        W87088  27.523  31.199  24.623  0.2169 -0.2491  0.0645
30848W        W87089  15.536   7.033  24.607  0.3154  0.2800  0.0320
30849W        W87090  31.692  21.663  11.450 -0.1034  0.2017  0.2075
30850W        W87091  13.546  31.398   7.174 -0.0550 -0.0734  0.1196
30851W        W87092  11.733  30.375   8.315  0.2095 -0.1668 -0.0370
30852W        W87093  20.724   3.423   6.374 -0.0463 -0.1052 -0.1292
30853W        W87094   6.007  22.671   0.394  0.0390  0.1362  0.1557
30854W        W87095  34.721  21.441  16.564  0.1618  0.1571  0.0461
30855W        W87096   0.798   0.496   9.046 -0.0666 -0.2870  0.0195
30856W        W87097  19.191  17.881  17.518  0.2342  0.3608 -0.1292
30857W        W87098  31.862  10.774   0.048  0.0809 -0.3205 -0.3073
30858W        W87099  31.302   9.807  21.679  0.2306 -0.1769 -0.2642
30859W        W87100  31.341   8.374  26.135  0.2446  0.0326  0.0480
30860W        W87101  35.227   4.596  12.607  0.0931 -0.2104 -0.3455
30861W        W87102  12.896  31.292  21.851  0.0587 -0.1530  0.0366
30862W        W87103   6.567  22.646  23.863  0.2469  0.3467  0.0311
30863W        W87104  18.496  33.785   1.370  0.0929  0.2252  0.0611
30864W        W87105  29.856   7.710  16.879 -0.0773 -0.2398 -0.0833
30865W        W87106   8.546  12.403   4.229 -0.0247 -0.2154  0.0772
30866W        W87107  27.006  30.529  13.619  0.5020 -0.0315 -0.1209
30867W        W87108  11.533   2.445   0.062 -0.0703 -0.2729 -0.2568
30868W        W87109   1.057   6.494   5.931 -0.2075  0.1251 -0.0114
30869W        W87110   4.441  26.742  12.056  0.0500 -0.1391  0.1250
30870W        W87111  21.079   2.520  25.031 -0.0311  0.0203 -0.0790
30871W        W87112  16.435   5.935  11.563 -0.2188 -0.0559  0.0629
30872W        W87113  23.819   5.744  25.285  0.0236  0.0593 -0.0589
30873W        W87114  27.653  27.201  23.428  0.2213  0.2778  0.2561
30874W        W87115  13.802   9.110  22.758  0.0827  0.1359  0.0708
30875W        W87116  34.929  20.176  19.314  0.0589 -0.1403  0.1740
30876W        W87117  25.642  20.496  21.479 -0.2050  0.2299  0.2453
30877W        W87118  11.946  22.353  23.161  0.1710  0.0014 -0.0236
30878W        W87119  31.381  34.150   5.925 -0.0373  0.1143  0.0800
30879W        W87120  12.838  29.852   9.604 -0.1688 -0.0251  0.2346
30880W        W87121  16.219  16.797   9.102  0.0651 -0.1824  0.1543
30881W        W87122  28.341  31.358   5.553  0.0472  0.2982  0.2646
30882W        W87123  10.904   3.125  10.731  0.1422  0.0605  0.1137
30883W        W87124  11.697  12.239   6.336  0.0823  0.1270  0.1537
30884W        W87125  13.294  18.399  25.806 -0.1293 -0.0249 -0.0903
30885W        W87126   9.339  14.203   6.472 -0.1479 -0.0517  0.1596
30886W        W87127  18.582   2.627   8.959 -0.0907 -0.0083  0.0008
30887W        W87128   5.712  19.613   7.351  0.0069  0.3640 -0.0726
30888W        W87129  12.398   4.915  12.825  0.1658  0.3521  0.3667
30889W        W87130   6.343  34.283  13.398 -0.1815  0.0229 -0.0195
30890W        W87131  21.405  24.686   1.256  0.1070 -0.1326  0.0926
30891W        W87132   7.011  10.864  21.401 -0.0697 -0.1228  0.1968
30892W        W87133   9.019  27.078  24.782  0.1809  0.0644 -0.0328
30893W        W87134  15.268   1.324   3.255  0.1146 -0.1624  0.1203
30894W        W87135  11.961   1.171  10.833  0.2368 -0.1600  0.0938
30895W        W87136  19.451  14.959  22.942 -0.1922  0.0298  0.0855
30896W        W87137  20.414  32.534   6.796  0.1781  0.2635 -0.0599
30897W        W87138  12.409  20.311  11.573  0.0575  0.0731  0.2414
30898W        W87139  11.708  13.354  23.513 -0.1578  0.1517 -0.3064
30899W        W87140  27.497  27.082   9.805 -0.0698 -0.0849 -0.0530
30900W        W87141   7.762  23.589   3.395 -0.0465  0.2323 -0.0326
30901W        W87142  14.530  11.047  23.558  0.0592  0.0199 -0.1467
30902W        W87143   1.312  11.122   3.147  0.0526 -0.0996 -0.1413
30903W        W87144  24.547  16.496  23.877  0.3241  0.0342  0.2325
30904W        W87145  14.335  34.272   9.017  0.1021  0.1590  0.0992
30905W        W87146  17.451  23.871  12.273 -0.0791  0.0306 -0.1522
30906W        W87147  30.765  14.058  20.573 -0.0016  0.1090  0.4221
30907W        W87148  12.289   7.391   9.605  0.1841  0.2768 -0.2629
30908W        W87149  13.487  28.567  14.263  0.0640 -0.0390 -0.1535
30909W        W87150  11.800  27.268   3.630  0.2433  0.1200  0.3133
30910W        W87151  28.055  15.469   7.218  0.2332 -0.0487 -0.3759
30911W        W87152  31.270  30.478  24.332  0.0110 -0.2436  0.2793
30912W        W87153  27.640   0.351   5.216  0.1472  0.2561  0.1168
30913W        W87154  33.852  17.939  11.953 -0.0117  0.1109 -0.0645
30914W        W87155   1.734  13.140  25.859  0.1468  0.0442 -0.1435
30915W        W87156   9.359  30.571  16.261 -0.1625  0.1043 -0.2401
30916W        W87157  17.928  10.259  21.654  0.2022 -0.2342  0.0494
30917W        W87158  17.246  12.857   0.295 -0.3238 -0.3491  0.1429
30918W        W87159   6.545   3.638   8.380 -0.1600  0.2873 -0.2296
30919W        W87160  34.313  27.230   3.950  0.0607 -0.1115 -0.0743
30920W        W87161  35.166   9.283  23.834 -0.1809 -0.0121  0.2172
30921W        W87162  12.495   1.097  20.620  0.3450 -0.0203 -0.1137
30922W        W87163   8.938  15.630   2.286  0.1114 -0.0164  0.0294
30923W        W87164  15.973  13.866   7.742  0.2256 -0.2010 -0.1322
30924W        W87165   6.798  17.214   9.296  0.0847 -0.0818 -0.0231
30925W        W87166  22.466  19.024  16.709  0.0570 -0.0062 -0.0064
30926W        W87167   2.819  25.067  24.186 -0.0857  0.1343  0.2077
30927W        W87168  18.619  25.875   1.724  0.0328  0.0358  0.2996
30928W        W87169  11.257  27.461   5.187  0.1004 -0.2207 -0.0764
30929W        W87170  31.176  18.461  20.481 -0.0744 -0.1056 -0.0554
30930W        W87171  26.018  25.516   9.251 -0.0878  0.1327 -0.2743
30931W        W87172  29.160  21.207  19.770  0.2354 -0.0964 -0.0783
30932W        W87173   6.128  34.527  25.240  0.3797 -0.2643 -0.1206
30933W        W87174  19.276  34.668  23.985  0.3068 -0.0780  0.0916
30934W        W87175  31.164  13.619  18.944 -0.0747 -0.0958  0.5944
30935W        W87176  25.716  17.555  14.262  0.2401 -0.1242 -0.1745
30936W        W87177  25.218  29.949  22.345  0.1320  0.1119 -0.0199
30937W        W87178  32.266  10.931   9.677 -0.0757  0.1576 -0.3124
30938W        W87179  32.700  24.890  18.747 -0.3579  0.0791 -0.2776
30939W        W87180  12.797   6.663   8.247 -0.0152  0.0975  0.1920
30940W        W87181   3.938  12.691   0.312 -0.0173 -0.1402  0.1976
30941W        W87182   9.215   6.226  22.669 -0.1179  0.2870 -0.1988
30942W        W87183   9.304  17.104   3.230  0.1697  0.0013  0.1430
30943W        W87184  16.122   5.807   3.246  0.4487 -0.2878  0.0828
30944W        W87185   7.102   6.383   4.977  0.1213 -0.0154 -0.0186
30945W        W87186   9.827  32.005  25.154  0.1727  0.2726 -0.1926
30946W        W87187   7.406  16.230   8.628 -0.1544 -0.1686 -0.0571
30947W        W87188  34.690  34.576  16.123 -0.0022 -0.1856  0.1364
30948W        W87189  19.735  17.536  26.070  0.3152 -0.0688 -0.1947
30949W        W87190   3.620  28.491  24.880  0.0978 -0.2033  0.1571
30950W        W87191  23.528  34.965  18.171 -0.0635  0.0555  0.1689
30951W        W87192   5.568  11.901   8.750 -0.1487  0.2581 -0.0221
30952W        W87193  24.980  19.979  22.989 -0.0486  0.1820 -0.2208
30953W        W87194   4.780   4.092   5.378 -0.2689 -0.0222  0.0537
30954W        W87195  19.098   8.733  10.453  0.1430  0.0943 -0.0152
30955W        W87196  22.060  15.484  17.373  0.4297  0.0541  0.0905
30956W        W87197  12.492   1.465   6.583  0.3702  0.3908  0.0340
30957W        W87198  30.063  29.619   0.698  0.1463 -0.4473 -0.1340
30958W        W87199  32.334  18.048  15.423 -0.0168  0.2447  0.2238
30959W        W87200  15.377  13.604  24.092 -0.2196 -0.0709 -0.1065
30960W        W87201   1.525  22.422  21.530  0.0528  0.0475 -0.0078
30961W        W87202  20.685  10.557  22.721 -0.0853 -0.0956  0.1633
30962W        W87203   2.464   8.094  24.186 -0.1455  0.0337 -0.2351
30963W        W87204  25.196  23.749   1.206 -0.0710 -0.1731  0.0007
30964W        W87205   7.782  30.162  14.259  0.0759 -0.0480  0.2103
30965W        W87206   9.800  35.255   9.568 -0.1823 -0.2701 -0.1308
30966W        W87207  23.256  23.678   1.016  0.0287  0.0399 -0.1965
30967W        W87208  33.555  19.003  16.698 -0.0421  0.0948  0.0288
30968W        W87209  16.446  33.658   3.484  0.1316  0.0669  0.0009
30969W        W87210   6.031  28.263  10.896 -0.1455 -0.3390 -0.2360
30970W        W87211   1.153  29.641   4.719 -0.0066 -0.1683  0.1314
30971W        W87212   5.572   4.368   8.940  0.1743 -0.2455  0.4981
30972W        W87213  12.813  16.878  19.675 -0.2421  0.2289  0.0555
30973W        W87214   7.481   5.495   9.884 -0.0394 -0.1101 -0.1020
30974W        W87215  34.530   5.953   1.686 -0.1348  0.0942  0.0540
30975W        W87216   8.353  12.988   6.085  0.0426 -0.2451 -0.2607
30976W        W87217  17.704  25.973   8.543  0.2997 -0.0895  0.0813
30977W        W87218  18.145   5.103  23.103 -0.0231  0.3235 -0.2005
30978W        W87219  14.945  17.364   1.676 -0.1166  0.1056  0.0112
30979W        W87220  31.441   6.297   9.647 -0.4831 -0.0875 -0.2977
30980W        W87221   9.846  26.765   2.774 -0.1102 -0.3802  0.0287
30981W        W87222  33.090   2.027  21.000  0.2133  0.1027  0.2519
30982W        W87223  21.293  31.988  25.647 -0.0546  0.2621  0.0522
30983W        W87224  30.235  10.761  12.659 -0.0800  0.0268 -0.0145
30984W        W87225  17.587   5.894  19.789  0.3750 -0.1480  0.2372
30985W        W87226  35.116   3.925   3.418 -0.1653  0.1275 -0.4263
30986W        W87227  10.514  12.058   8.452 -0.2814 -0.1958  0.0629
30987W        W87228  34.620  28.768   5.720 -0.1386 -0.0916  0.3422
30988W        W87229  16.102   5.303   9.549 -0.1540 -0.1235 -0.3187
30989W        W87230   4.332  33.372   4.272 -0.2393  0.0148  0.3504
30990W        W87231   5.885  34.118  12.658  0.1436 -0.1924 -0.2046
30991W        W87232  24.244  33.144   3.044  0.2564  0.1839 -0.2549
30992W        W87233   5.781   2.015  13.264  0.2840  0.3229 -0.3806
30993W        W87234  18.483   4.529  10.568  0.1733 -0.0369 -0.3589
30994W        W87235  32.991  14.329  12.469  0.0137  0.3076  0.1319
30995W        W87236  25.881  17.455  17.622 -0.1079  0.2275 -0.1326
30996W        W87237  12.780  27.925   5.464 -0.0585 -0.0505  0.2411
30997W        W87238  27.794  15.868  18.387  0.0548 -0.0986  0.0692
30998W        W87239  17.134  31.756  19.687  0.0671 -0.2067 -0.0318
30999W        W87240  28.716  24.794  10.162  0.1633 -0.2410  0.5228
31000W        W87241  34.262  15.702  22.677  0.3384 -0.0240 -0.2814
31001W        W87242   3.541  11.920   0.644 -0.0135  0.0958 -0.0413
31002W        W87243  14.325  32.861   5.610 -0.0531 -0.0913 -0.1999
31003W        W87244   7.489  30.272  15.038 -0.0354  0.1008  0.0450
31004W        W87245  10.158   1.606  26.019 -0.1408 -0.1056  0.0296
31005W        W87246  26.157  20.030  21.714 -0.0015  0.1667  0.2408
31006W        W87247  29.959   5.214  17.326 -0.2028 -0.2225 -0.0683
31007W        W87248  18.316   4.019  16.648  0.2192  0.0223  0.1548
31008W        W87249  31.861  24.064  16.400  0.0408 -0.0918  0.0196
31009W        W87250  31.035  19.564  19.750 -0.0175 -0.0501 -0.2195
31010W        W87251   6.248  33.330  22.766  0.0059 -0.2412 -0.0953
31011W        W87252  15.351  33.319  26.211  0.2242 -0.2213 -0.0715
31012W        W87253  26.189   4.364  16.140  0.1395 -0.2341 -0.1822
31013W        W87254  24.800   7.323   1.417 -0.3020  0.1994  0.1660
31014W        W87255   6.403  24.430  20.918  0.1049 -0.0342  0.0022
31015W        W87256  10.394   3.429   2.137 -0.3114  0.4090  0.2565
31016W        W87257  15.476   4.194  12.814  0.0601 -0.0406  0.0452
31017W        W87258  21.297  30.087  19.699 -0.0900  0.1231 -0.3654
31018W        W87259   7.117   6.704  19.382  0.1547 -0.1461  0.1349
31019W        W87260  24.218  11.357   2.511 -0.2012 -0.0132 -0.0622
31020W        W87261  33.708   9.793  16.702 -0.0611 -0.0230 -0.1239
31021W        W87262   9.531  20.369  15.303 -0.2476  0.2769 -0.0288
31022W        W87263   4.328   1.545  11.637 -0.0498  0.1096 -0.0700
31023W        W87264   5.135  34.968  23.114 -0.3207 -0.1044 -0.2287
31024W        W87265   9.150   6.976  21.576  0.4055  0.1865  0.2282
31025W        W87266  12.841  16.909   0.011 -0.0521 -0.2254  0.1218
31026W        W87267  18.783  22.418  19.081 -0.1332  0.0621  0.2391
31027W        W87268  18.008  15.337   2.230 -0.1608  0.0412  0.0136
31028W        W87269  24.313   4.351   1.479  0.1967 -0.0999 -0.2227
31029W        W87270  13.501  12.738  12.610 -0.0278 -0.0649 -0.1515
31030W        W87271  15.220  32.922  20.238  0.3053  0.1827  0.4103
31031W        W87272  34.584   0.208   7.237 -0.1811 -0.1241 -0.1838
31032W        W87273  27.223  15.111  23.270  0.1210 -0.2149  0.1736
31033W        W87274   0.790  26.592   4.421 -0.2823 -0.1173  0.1324
31034W        W87275   4.216  33.127  20.976  0.2082  0.1050 -0.2080
31035W        W87276  31.812   0.806  24.460  0.1333 -0.1371  0.0076
31036W        W87277  26.626  32.968   5.377  0.0673  0.0579  0.0994
31037W        W87278  13.040  17.224  20.948  0.1614  0.0996  0.1320
31038W        W87279  35.136  10.153  22.210  0.1562  0.0175 -0.0430
31039W        W87280   0.573  29.913   5.124 -0.1563 -0.1108 -0.3355
31040W        W87281  27.797  15.325   5.971  0.1233 -0.1612  0.2304
31041W        W87282   0.367  29.720  17.820 -0.1377 -0.4318 -0.1051
31042W        W87283  35.168  13.882  19.744 -0.2658  0.2127 -0.0178
31043W        W87284   7.889  18.137  13.047  0.0452 -0.2815 -0.4772
31044W        W87285  15.523  30.429  22.164 -0.1333  0.0220 -0.2993
31045W        W87286  17.379  19.801   4.503 -0.1468 -0.1014  0.3713
31046W        W87287  18.848  10.663  19.728 -0.1731  0.1582  0.0925
31047W        W87288   0.716  20.042  15.602  0.0194 -0.3716 -0.0790
31048W        W87289  32.240  34.927  12.529 -0.2027 -0.0403  0.1315
31049W        W87290  21.402   2.391   4.053 -0.0583  0.3841 -0.0929
31050W        W87291   5.766   6.712   8.163 -0.1412 -0.1060 -0.0220
31051W        W87292  19.040  11.511   8.688 -0.6920  0.1156  0.0058
31052W        W87293  15.700   7.098  11.088  0.1341 -0.3647  0.0452
31053W        W87294  18.622   8.092   4.097 -0.1120 -0.3110 -0.1543
31054W        W87295  26.792  22.958  13.630 -0.1026 -0.0482  0.0562
31055W        W87296  23.715  18.432   0.154  0.0905 -0.3107 -0.4262
31056W        W87297  27.346  34.298  12.621  0.1955 -0.2474  0.0410
31057W        W87298  17.020  10.051   7.557 -0.0062  0.1036  0.4247
31058W        W87299  11.951   9.194  22.315 -0.1742  0.0099  0.1030
31059W        W87300  14.708  12.678  10.116  0.2494 -0.1938  0.2742
31060W        W87301  17.195   8.906  18.730  0.0866 -0.0056 -0.0520
31061W        W87302  11.836  29.563   1.364  0.1516 -0.1459 -0.1598
31062W        W87303  21.129  12.111  22.999  0.0998 -0.1633 -0.0086
31063W        W87304  15.702   2.803  22.839  0.1217 -0.0690 -0.0018
31064W        W87305   4.225  33.924  22.329  0.1518 -0.1219 -0.0621
31065W        W87306  28.043   9.912  17.184 -0.0433  0.1429 -0.0281
31066W        W87307  30.967  18.559  18.316 -0.0435 -0.3488  0.3203
31067W        W87308   5.421   2.720  22.455  0.2458 -0.0545  0.1383
31068W        W87309   9.544  31.119  26.162 -0.0189 -0.1451  0.2603
31069W        W87310  16.512  11.804  26.148 -0.0138 -0.1084  0.0883
31070W        W87311  19.674   7.586   0.051  0.0883 -0.0348 -0.0926
31071W        W87312  23.235  27.248  17.324 -0.1867 -0.4047 -0.2147
31072W        W87313   7.270  13.046   8.815 -0.2692 -0.1657 -0.0184
31073W        W87314  14.031  13.313  21.966  0.0632 -0.1608  0.0841
31074W        W87315   0.505  26.695  20.899  0.0149  0.0450 -0.0825
31075W        W87316  26.764   7.905  12.007 -0.2667  0.0825 -0.0396
31076W        W87317  20.482  29.622   5.231  0.0194  0.0929  0.0367
31077W        W87318  17.967  16.111  11.761 -0.1307  0.3294 -0.1470
31078W        W87319  29.642  21.236  10.822 -0.0479 -0.3285  0.0595
31079W        W87320  23.575  27.655   2.860  0.1438  0.1794 -0.0948
31080W        W87321  32.328  11.159  16.085 -0.0802  0.0112  0.2255
31081W        W87322   6.080  13.555  16.853 -0.2788  0.0142  0.0205
31082W        W87323  14.678  18.915  23.386 -0.0336 -0.2171 -0.3570
31083W        W87324  12.335  22.568   1.685  0.1506 -0.0468 -0.0272
31084W        W87325   4.981   5.198  23.053 -0.1175  0.3887  0.0187
31085W        W87326   5.644   2.942   5.980 -0.4943  0.0581  0.0042
31086W        W87327   6.994  21.295   2.504  0.5174 -0.0871  0.1851
31087W        W87328  21.286  13.787  20.193  0.0655 -0.5366  0.2916
31088W        W87329  12.815  17.355  23.732 -0.1000 -0.5123 -0.0856
31089W        W87330   9.467  11.337  25.190  0.1531  0.1566  0.1764
31090W        W87331  19.841  19.687  18.936 -0.0426 -0.1573 -0.1025
31091W        W87332   5.600   1.379  21.643  0.0726 -0.3056  0.3562
31092W        W87333   5.799   7.797   8.152 -0.0301 -0.0385  0.2596
31093W        W87334   3.132  27.922  22.961  0.2303  0.1932  0.0752
31094W        W87335  15.463  24.139   0.634 -0.2020  0.0252 -0.3035
31095W        W87336  12.909  19.223  13.351  0.1956 -0.1187  0.1316
31096W        W87337  28.940  17.809  22.649  0.2505 -0.1298 -0.1073
31097W        W87338  18.549  30.708   5.017 -0.0738 -0.2349  0.0417
31098W        W87339  25.557  16.477   9.663 -0.3161  0.3852 -0.2862
31099W        W87340  15.648   0.445   6.053  0.0179  0.0437 -0.1343
31100W        W87341   7.937  30.505  24.443  0.2197 -0.2756  0.3354
31101W        W87342  26.280  23.915  23.704  0.1028  0.0220  0.0929
31102W        W87343  32.243  31.949   4.404 -0.3330 -0.0837  0.1437
31103W        W87344  15.150  30.277   5.740 -0.1067 -0.0648  0.0838
31104W        W87345  27.659   9.267  14.901  0.1529 -0.0721 -0.0475
31105W        W87346  32.481   3.094  14.555 -0.1471 -0.0451 -0.0363
31106W        W87347  23.132   9.424  22.469  0.1265  0.0077  0.1607
31107W        W87348   8.460  21.830   1.938  0.2598 -0.0062  0.0021
31108W        W87349   5.900  13.566  21.850 -0.1923  0.2972  0.4343
31109W        W87350  28.058  18.948  24.778 -0.1869 -0.2432  0.0084
31110W        W87351   4.784  22.180  24.529 -0.2327  0.0860  0.0516
31111W        W87352  17.393  31.014  21.742 -0.2669 -0.1110 -0.2062
31112W        W87353  18.140  16.845   6.596  0.3686  0.0866 -0.0183
31113W        W87354  13.555  17.960  25.775 -0.1855 -0.1405  0.0187
31114W        W87355  25.981  34.488  18.838  0.1231  0.1198  0.0614
31115W        W87356  15.955  20.980  14.882 -0.3817 -0.0177  0.3068
31116W        W87357  28.943   7.755  19.834 -0.0468 -0.0702 -0.1611
31117W        W87358  15.131  21.682  24.572  0.0397 -0.1822 -0.0007
31118W        W87359  24.762   0.207  12.059  0.2490 -0.0263 -0.1653
31119W        W87360  31.387  19.212   7.216 -0.0913  0.1230  0.1214
31120W        W87361  32.382  26.427  23.288  0.0809  0.0742 -0.2234
31121W        W87362   5.386  17.521   6.557  0.2186 -0.2744 -0.2841
31122W        W87363   6.298  18.466   4.527  0.1192  0.0796  0.1024
31123W        W87364  29.108   2.396  21.992 -0.2066 -0.0954  0.1422
31124W        W87365  33.167  30.318  19.541  0.0954 -0.0035  0.0052
31125W        W87366  20.173  18.073   5.500  0.0230 -0.1106 -0.0835
31126W        W87367  10.429  25.884  11.819 -0.3187 -0.0088 -0.0448
31127W        W87368  13.295  30.829  22.642  0.2014 -0.0155 -0.0321
31128W        W87369  12.318   2.199   9.886 -0.0304  0.0187  0.0739
31129W        W87370   6.479  28.297  23.863  0.1280  0.0160 -0.2648
31130W        W87371  30.872  19.735  16.821 -0.0827  0.1737  0.2761
31131W        W87372  18.303  24.239   4.194  0.3242 -0.3367 -0.0777
31132W        W87373  13.955  31.904   9.185  0.1133 -0.4118 -0.0766
31133W        W87374   6.696  27.472   9.674  0.0986 -0.3496  0.0936
31134W        W87375  14.833  19.907  25.008  0.3479 -0.1770 -0.5367
31135W        W87376  30.847  21.483  19.631 -0.2520 -0.0917 -0.2375
31136W        W87377  10.307   9.907   6.155 -0.0855 -0.3191  0.2125
31137W        W87378  20.006   9.007   0.363 -0.2220 -0.3100  0.0243
31138W        W87379  11.757  26.052  10.208 -0.3006 -0.2651  0.0234
31139W        W87380  29.451   4.237   0.233 -0.1200 -0.0114  0.1803
31140W        W87381  31.448  32.937  24.058 -0.0845 -0.2012 -0.1885
31141W        W87382  30.442  30.855  17.301 -0.1429 -0.0798 -0.2302
31142W        W87383   3.729   2.530  24.210  0.3811  0.1084  0.1294
31143W        W87384   1.443  35.205  17.252 -0.0119  0.5987  0.0925
31144W        W87385  17.215   5.602   3.885  0.1796  0.0783 -0.0460
31145W        W87386  26.021   6.129   2.501 -0.2180  0.0065  0.1790
31146W        W87387   1.411  12.119  13.451  0.0086 -0.0959  0.0025
31147W        W87388  12.559  17.214  10.947  0.1338 -0.1797  0.4610
31148W        W87389  17.543  32.351  17.393 -0.2316 -0.2346 -0.2030
31149W        W87390  30.032   7.717   9.430  0.2107  0.0732 -0.1372
31150W        W87391  15.971  27.282   1.814 -0.2191  0.0084  0.1856
31151W        W87392   8.368   9.966   2.113  0.2097 -0.1970  0.0331
31152W        W87393   8.334  20.360  10.868 -0.1598  0.2358 -0.0111
31153W        W87394   7.170  33.191  14.421 -0.2820  0.0077 -0.2637
31154W        W87395  20.847   5.136   6.487  0.1070  0.1961  0.0892
31155W        W87396  17.906  33.626   2.708 -0.1540  0.3181  0.1255
31156W        W87397  35.185  24.957  14.513  0.2207 -0.2285 -0.1502
31157W        W87398  33.727  32.130  19.268  0.0066 -0.1082 -0.1108
31158W        W87399  31.561  31.220  20.765  0.3154  0.0826 -0.2582
31159W        W87400   7.609  32.988   8.989 -0.0461  0.1606  0.0014
31160W        W87401   3.269   8.075  17.158  0.2764 -0.0477  0.2304
31161W        W87402  17.378   6.653  19.981  0.1894 -0.0641 -0.2599
31162W        W87403  23.138  35.298  24.184 -0.1208 -0.1655  0.1411
31163W        W87404  21.856   9.019  21.257  0.0309  0.0514 -0.0179
31164W        W87405  15.779   8.561  18.919  0.0632 -0.0953 -0.0417
31165W        W87406  12.586   5.841   1.591 -0.3295 -0.1555  0.1515
31166W        W87407   3.313  28.290   0.857  0.4928 -0.0755 -0.4937
31167W        W87408  29.895  34.933  25.599 -0.4535  0.3111  0.0684
31168W        W87409  24.731  19.558  19.154 -0.1074  0.3055 -0.1591
31169W        W87410  22.310  16.751  19.659  0.0746 -0.0219  0.1378
31170W        W87411  24.106  14.625  22.237  0.2528 -0.0902 -0.0856
31171W        W87412  10.722   8.807   7.723 -0.0734 -0.0084 -0.2359
31172W        W87413   5.330  16.603  22.894 -0.0510 -0.4867  0.2670
31173W        W87414  18.798  18.936  21.698  0.0594  0.0640 -0.0881
31174W        W87415   0.230  18.856  25.282  0.1266 -0.0203 -0.0160
31175W        W87416  12.608   8.132  18.647 -0.2310  0.2034 -0.0993
31176W        W87417   3.581  24.082  23.773  0.1724 -0.0255  0.4932
31177W        W87418   6.741  19.418  25.625 -0.3070 -0.1083 -0.0194
31178W        W87419  22.495  29.031   1.118  0.0012 -0.1851 -0.1248
31179W        W87420  33.049  13.037  10.845  0.1784  0.0556  0.0607
31180W        W87421  22.807  23.328  25.848  0.1524  0.1751  0.0482
31181W        W87422  10.074  13.383  11.883  0.1054  0.0349  0.3091
31182W        W87423  10.529  13.793  26.136  0.1937  0.3218  0.1186
31183W        W87424   8.051  13.101   7.572 -0.2372  0.4715  0.2409
31184W        W87425  16.647  28.592   0.345  0.2525  0.0903 -0.0281
31185W        W87426   5.984   6.709  26.084  0.1499  0.0221 -0.0040
31186W        W87427  17.132  13.729  11.341 -0.1073  0.0303 -0.0586
31187W        W87428  34.993   1.213  22.324 -0.0714 -0.1681  0.1420
31188W        W87429  17.668  30.809  10.202  0.2244 -0.1512  0.0576
31189W        W87430   1.836  21.659  21.394 -0.2081  0.0279  0.1601
31190W        W87431  33.331   3.842   0.629 -0.1459 -0.2346 -0.1005
31191W        W87432  25.295  33.660   2.360 -0.1449  0.1825  0.0386
31192W        W87433  15.030   3.529  22.438  0.0810 -0.1112 -0.2431
31193W        W87434  35.272   3.788  17.895 -0.1018  0.0797  0.2321
31194W        W87435  34.814  26.507  13.614 -0.0046  0.1135  0.1102
31195W        W87436  25.800  16.783  24.657  0.0314  0.1398  0.0631
31196W        W87437  20.699   3.823   0.893 -0.1006 -0.0993  0.2531
31197W        W87438  25.561  32.505   5.853  0.1836  0.5676  0.2783
31198W        W87439  30.688  15.139   8.309 -0.1877 -0.0870 -0.0079
31199W        W87440  33.758   8.140   0.612  0.0947 -0.0788 -0.1911
31200W        W87441   9.888  21.871  12.294  0.0292 -0.0476  0.1936
31201W        W87442   6.470  16.322  22.481  0.0051 -0.1160 -0.5077
31202W        W87443  33.793  33.370  25.714 -0.0367 -0.1547  0.1079
31203W        W87444  31.079  22.823  24.659 -0.2473 -0.0331  0.0143
31204W        W87445  17.469   0.524  23.614  0.0475 -0.0686 -0.2736
31205W        W87446  16.180  27.939  22.065 -0.1596 -0.0299  0.1601
31206W        W87447  32.805  12.502  13.191 -0.0142 -0.4274 -0.0723
31207W        W87448   1.893  20.293  24.416 -0.3945 -0.1309  0.1240
31208W        W87449  34.784   5.876  18.919 -0.0513 -0.1676  0.2225
31209W        W87450  15.022  33.178  22.283 -0.2924  0.1664  0.0071
31210W        W87451   8.417  22.783  14.019 -0.2924 -0.1068 -0.0773
31211W        W87452  35.094  33.478   4.468 -0.1708 -0.2658 -0.2939
31212W        W87453  25.835  29.695  20.081 -0.2039 -0.0977  0.0371
31213W        W87454  16.778  25.010  23.172 -0.1889 -0.0247  0.1172
31214W        W87455  25.499  12.322  15.052  0.1844 -0.2726  0.2968
31215W        W87456   4.210  13.219  25.355  0.1845  0.0098 -0.1668
31216W        W87457  33.379  14.852   8.731 -0.3148  0.2248  0.1945
31217W        W87458  28.007   5.217  26.183 -0.1018  0.0914  0.1141
31218W        W87459  34.018   3.540  24.105 -0.1203  0.1192 -0.2363
31219W        W87460  30.699   8.758  16.458 -0.0064  0.0641  0.0526
31220W        W87461  17.903  35.222   7.689  0.2982 -0.1159 -0.1249
31221W        W87462   3.728   3.112  25.423  0.0891  0.0271  0.0222
31222W        W87463  34.601  22.330   8.324 -0.3611  0.1913  0.3138
31223W        W87464  30.574   9.604  15.298 -0.2484 -0.2549 -0.1026
31224W        W87465  26.477   8.696  12.466 -0.2001  0.1453  0.0199
31225W        W87466   9.224  35.036  10.423 -0.1329 -0.0453 -0.0851
31226W        W87467  21.057  18.325   0.608 -0.0034 -0.2605  0.0004
31227W        W87468  31.358  30.327  17.161 -0.0097 -0.2547 -0.1300
31228W        W87469   5.762  29.148   2.145 -0.0327  0.2326 -0.2819
31229W        W87470  32.467  31.269   7.332  0.0427  0.2414 -0.0667
31230W        W87471  11.051  22.798   8.419 -0.0040  0.1595 -0.2663
31231W        W87472   7.164  31.116  13.239  0.1178  0.2880 -0.0292
31232W        W87473  12.965  29.799  11.084 -0.0628 -0.2520  0.0342
31233W        W87474   7.041  24.073  26.206  0.0356  0.3216  0.2097
31234W        W87475  27.899  17.708  24.097  0.2114 -0.0722 -0.2328
31235W        W87476  30.445   0.684  15.843 -0.2999  0.5441  0.4955
31236W        W87477   7.027   0.532  23.347  0.0717  0.1084 -0.1053
31237W        W87478  19.842   9.195   9.255  0.0300  0.0545  0.0123
31238W        W87479  21.180   7.639  16.628 -0.1240 -0.0407  0.3646
31239W        W87480  15.278  25.211  21.655  0.0501 -0.2194  0.1675
31240W        W87481   0.170  27.765  24.314  0.0527 -0.0784 -0.1193
31241W        W87482  12.193  27.817  11.127 -0.2097 -0.0135  0.2582
31242W        W87483   7.694  18.164   3.139  0.0201 -0.1376  0.1730
31243W        W87484  28.150  29.321  13.137 -0.2453 -0.1877 -0.0523
31244W        W87485  30.524  32.977  25.891  0.1644 -0.2457 -0.1461
31245W        W87486  10.266  22.749  25.506  0.2357 -0.0776 -0.2227
31246W        W87487  23.200  26.661  20.807  0.3982 -0.1123  0.3035
31247W        W87488  29.071  24.853  12.072  0.1438  0.2906  0.2371
31248W        W87489  20.326  28.416   2.966 -0.1849  0.0739  0.1361
31249W        W87490  18.525  34.162  15.823  0.0761  0.0271 -0.1881
31250W        W87491   2.549   9.237   6.192  0.1531 -0.0871  0.2844
31251W        W87492  20.538  13.940   4.122  0.1486  0.2889 -0.0403
31252W        W87493   2.828  33.336   4.383 -0.3047 -0.1531  0.1916
31253W        W87494   6.707  34.284  20.586 -0.0015  0.3594 -0.2060
31254W        W87495   9.962   1.081  23.887  0.2325 -0.1124  0.0163
31255W        W87496  31.207  19.023   6.635  0.2536 -0.2850 -0.0254
31256W        W87497  23.097  31.209  24.331  0.0671 -0.2180  0.1411
31257W        W87498  19.608  26.452   2.893  0.0090  0.2120 -0.1131
31258W        W87499   6.531  24.249  21.925  0.1724 -0.1519  0.1631
31259W        W87500   2.927  29.692   9.653 -0.0845  0.3097 -0.0213
31260W        W87501   0.315  28.552   5.961 -0.1312 -0.0653 -0.1046
31261W        W87502  12.388   6.085  23.681  0.0762  0.0379 -0.1389
31262W        W87503  34.108  13.747  19.529 -0.1474 -0.1427  0.1080
31263W        W87504   3.814  23.062  21.310  0.0408  0.0218 -0.2228
31264W        W87505   8.108  17.022  23.433 -0.2057  0.0303  0.2011
31265W        W87506  13.213  27.852  17.074  0.2524 -0.3402  0.0710
31266W        W87507  17.111  10.785   3.707 -0.2419 -0.0549 -0.3261
31267W        W87508  30.496  14.860  24.833 -0.1583 -0.1103  0.0769
31268W        W87509   2.086  35.344  21.006  0.1221 -0.3432 -0.1701
31269W        W87510   4.515  29.705   7.248  0.1736 -0.3857 -0.1538
31270W        W87511   3.096  31.028   0.972  0.0584  0.2453 -0.3005
31271W        W87512   5.408   3.019   6.477 -0.0268 -0.1648 -0.0619
31272W        W87513   9.065   4.476  21.121 -0.1501  0.1319 -0.2608
31273W        W87514   0.679   9.867  18.029 -0.0167 -0.0931  0.0622
31274W        W87515  28.506   3.820  19.462 -0.0372 -0.2004  0.1221
31275W        W87516  33.770  31.089   4.591 -0.0818  0.1114  0.2198
31276W        W87517   5.061  13.103  21.820  0.2165 -0.2231 -0.1290
31277W        W87518  33.134  20.723   7.582 -0.1809 -0.3636  0.0599
31278W        W87519  21.521   6.297  22.228  0.0043  0.1942  0.0203
31279W        W87520  12.664   0.154   7.736  0.3245 -0.1001  0.1173
31280W        W87521  10.379  26.454   4.034  0.0211  0.2096 -0.1313
31281W        W87522   7.937  32.119   5.699  0.4167 -0.1789  0.0063
31282W        W87523   8.816  26.597  15.886  0.0374 -0.0538  0.3388
31283W        W87524  14.706  20.375   8.543  0.0947  0.2602  0.3735
31284W        W87525   3.273   7.960  24.846 -0.0888 -0.4207 -0.3665
31285W        W87526  29.283  23.306  10.040 -0.2750 -0.1921  0.3775
31286W        W87527  28.938   9.635  21.551  0.2257 -0.0359 -0.1329
31287W        W87528  33.790  17.647  10.358  0.2882  0.0145 -0.0403
31288W        W87529  10.687   5.454   2.784 -0.0166  0.4034  0.2043
31289W        W87530  21.098  28.536  25.033 -0.2758  0.0937  0.0651
31290W        W87531   7.182  33.374   5.913 -0.1436 -0.2604 -0.4540
31291W        W87532  23.983  21.740  24.156  0.0516 -0.2045  0.1562
31292W        W87533  30.229  21.852  20.844 -0.1295  0.2709  0.1485
31293W        W87534  17.504   6.886  22.867 -0.0017  0.2270 -0.1435
31294W        W87535   1.642  13.544   0.728 -0.3440  0.0440 -0.1194
31295W        W87536  12.617   6.728  23.335  0.1982 -0.1249  0.0426
31296W        W87537   9.209  19.750   6.699  0.1833 -0.2968 -0.0597
31297W        W87538   3.559  17.093  16.273  0.0765 -0.1451 -0.0496
31298W        W87539  32.351  34.744  18.003 -0.0999 -0.0294 -0.2677
31299W        W87540   4.188  25.275   6.357  0.3513 -0.1101  0.2607
31300W        W87541  32.110   7.380  19.650  0.1901  0.2300  0.1265
31301W        W87542  10.436  24.174  23.894  0.0035  0.0997 -0.1511
31302W        W87543   7.731  25.294   0.137 -0.0678 -0.0786 -0.1767
31303W        W87544  28.675  24.847  11.213 -0.1920  0.2273  0.0430
31304W        W87545  12.673  21.391   9.747 -0.3320  0.2052  0.1893
31305W        W87546  27.036   8.226  12.422 -0.1432  0.2897  0.1225
31306W        W87547   4.921  31.538  22.714 -0.0142 -0.1819  0.0556
31307W        W87548  31.206  31.888   1.215  0.0861 -0.2301 -0.4732
31308W        W87549  13.111  33.389  11.409 -0.3442 -0.0754 -0.0151
31309W        W87550  34.770   0.061  18.580 -0.0905  0.1491 -0.1024
31310W        W87551  21.348   7.288   9.132  0.2440  0.0212 -0.0512
31311W        W87552  22.112  23.195   6.335  0.0803  0.0834  0.0727
31312W        W87553  35.298  15.659   9.849  0.1322 -0.0486  0.0687
31313W        W87554   7.555  31.335   7.062 -0.1144  0.1606 -0.0858
31314W        W87555  30.027  14.644   6.637 -0.1790 -0.1811 -0.2111
31315W        W87556   1.141   9.954  13.185  0.1446  0.0801 -0.0339
31316W        W87557  18.497   3.536   5.373 -0.1008  0.1085 -0.0871
31317W        W87558   8.812  25.670  14.912  0.2563 -0.1286  0.2729
31318W        W87559   2.230  10.441  17.501  0.3450  0.0525 -0.0277
31319W        W87560  28.959   0.266  19.075 -0.2910  0.0387 -0.1578
31320W        W87561  19.060   4.221  24.873 -0.1428 -0.1116  0.0202
31321W        W87562   6.420  24.714   9.427 -0.0733 -0.2146 -0.0213
31322W        W87563  29.355  19.683  22.710 -0.1643  0.2352 -0.0146
31323W        W87564  31.788  28.661   0.794  0.0835 -0.3264  0.0670
31324W        W87565  16.639  29.303   4.359 -0.0266  0.0662 -0.2463
31325W        W87566  18.891  30.278   4.272 -0.0121 -0.0294 -0.1529
31326W        W87567   5.893  11.075   0.043 -0.0954  0.0332 -0.1273
31327W        W87568  31.975  28.074  24.681  0.2826  0.1293  0.0397
31328W        W87569  13.734  32.672  13.142 -0.0532 -0.0608 -0.3622
31329W        W87570  28.471   4.703  25.691 -0.0990 -0.2679 -0.0051
31330W        W87571  16.050  22.680   2.885 -0.0743  0.3101  0.0570
31331W        W87572  17.409  23.476  25.378  0.0962  0.2494  0.2330
31332W        W87573  32.064  34.009   4.591  0.0831 -0.0442 -0.0785
31333W        W87574  27.813   4.189   4.490  0.1286  0.1444 -0.0918
31334W        W87575   7.701  34.092   6.748  0.1693  0.0005 -0.3404
31335W        W87576   4.449   0.960  23.597  0.3756  0.0464  0.0786
31336W        W87577  28.331  10.397  22.645  0.1568 -0.0537  0.1720
31337W        W87578  28.581  18.676  13.047  0.0947  0.1769 -0.1667
31338W        W87579  28.783   1.561   6.316 -0.0778  0.0228  0.1688
31339W        W87580  28.667   5.199  23.192  0.0863  0.2373  0.1391
31340W        W87581  28.481   2.061  12.346 -0.2728  0.3404 -0.0310
31341W        W87582  16.841  18.772   0.218  0.0547  0.0616  0.3791
31342W        W87583  10.238  19.609  24.206  0.1012 -0.1993 -0.3303
31343W        W87584  26.713   5.533  18.918 -0.1178  0.0602 -0.2814
31344W        W87585   6.580  10.552   3.007  0.1920  0.0873  0.2261
31345W        W87586  12.200  29.676  23.564 -0.1889  0.0589 -0.2282
31346W        W87587   4.205   0.897  18.035  0.0667  0.1980 -0.0555
31347W        W87588   8.700  14.272  18.646  0.0296  0.0261  0.2171
31348W        W87589  11.347  34.510   0.747 -0.0239  0.0218 -0.1118
31349W        W87590   8.890   9.928  13.198  0.1028  0.3261  0.1377
31350W        W87591  29.111  19.331  16.563 -0.1222 -0.1258 -0.3652
31351W        W87592  18.377   8.399   9.540  0.1250 -0.0301 -0.1489
31352W        W87593  29.084  33.660  16.559 -0.0625  0.0884  0.2775
31353W        W87594  11.117   3.288   4.480 -0.3837  0.0447  0.2055
31354W        W87595  27.490   2.180   2.327  0.3586 -0.1165 -0.0342
31355W        W87596   9.366  20.710   1.420 -0.2705 -0.1160  0.1797
31356W        W87597  28.295  15.846  24.025 -0.2302  0.1511  0.2495
31357W        W87598   2.154  18.670  17.289  0.1657 -0.0421 -0.0010
31358W        W87599  28.466   7.528  13.889 -0.2203 -0.0422  0.2222
31359W        W87600   7.390  27.000   7.598  0.0094 -0.2632  0.2023
31360W        W87601  28.673   6.602  14.973  0.3342  0.3442  0.0817
31361W        W87602  17.806   6.381   3.392 -0.1724  0.3123  0.1309
31362W        W87603   7.434  33.124   3.518 -0.1098 -0.0234 -0.0974
31363W        W87604  13.689  18.075   0.381 -0.0960  0.1178  0.0735
31364W        W87605   8.504  23.796   4.603 -0.1096 -0.0076 -0.0329
31365W        W87606  18.006  33.446   5.751 -0.2308  0.0919  0.0627
31366W        W87607  20.355  10.021   8.500 -0.1734 -0.1653  0.1130
31367W        W87608  15.664  11.801  19.676 -0.2454  0.0066 -0.1290
31368W        W87609  27.108  34.261  14.879 -0.0465 -0.0022  0.0774
31369W        W87610   4.671  26.415  24.803  0.0038  0.1249 -0.0112
31370W        W87611   8.968  28.547   5.830  0.1954 -0.5655 -0.3012
31371W        W87612  15.329  16.028   9.814  0.0249  0.0855  0.0716
31372W        W87613  34.844   1.613  15.015  0.1643  0.0058  0.0036
31373W        W87614   8.213   5.313   4.619  0.0332 -0.0294 -0.1935
31374W        W87615  23.301  32.427  20.564  0.1008 -0.1721  0.0618
31375W        W87616  29.621   7.753   9.828  0.1737 -0.1130  0.0728
31376W        W87617  25.122   5.608  25.143 -0.4049 -0.0250  0.2817
31377W        W87618  10.924   5.802  13.973  0.0631 -0.0745  0.1088
31378W        W87619  13.025  20.569  12.912  0.3527 -0.1332  0.2576
31379W        W87620  29.328   6.055  19.860 -0.1801  0.2092 -0.1371
31380W        W87621  21.683  24.329   5.259  0.0349 -0.2815 -0.1346
31381W        W87622   1.892  28.367   3.637 -0.1461  0.2922  0.0712
31382W        W87623  18.986  10.818  22.416  0.1485  0.0445  0.0630
31383W        W87624  21.764  10.302  22.587  0.0317 -0.2207  0.3349
31384W        W87625  19.087  11.992   3.040  0.2648  0.1464  0.0255
31385W        W87626  25.075  33.970  16.016 -0.2553  0.2972 -0.0636
31386W        W87627   8.571  18.644   8.022  0.0179  0.1144  0.0830
31387W        W87628  12.487  17.174  13.636 -0.0571 -0.4348  0.2078
31388W        W87629  26.880  27.639  24.350  0.0472 -0.1916  0.2236
31389W        W87630  34.794  20.723  17.689  0.1630  0.0196  0.4412
31390W        W87631  19.451  31.067   4.285 -0.1440  0.3126 -0.2960
31391W        W87632  21.738   7.145  20.095  0.2562 -0.5146  0.1192
31392W        W87633  32.487  16.295   7.949 -0.2721  0.4045  0.1784
31393W        W87634   9.705  30.935  12.245  0.2281 -0.2145  0.0352
31394W        W87635  30.858   4.718  18.239 -0.2582  0.0777  0.0003
31395W        W87636  13.558  26.051   5.159  0.2877  0.2412 -0.2877
31396W        W87637  16.628  22.470  14.161 -0.1322 -0.0642 -0.2675
31397W        W87638  32.017   1.722  19.901  0.0959 -0.3509  0.0838
31398W        W87639  12.680  33.423  10.963 -0.0817  0.1597 -0.2594
31399W        W87640  24.563  21.162  18.212  0.2281 -0.1399 -0.1714
31400W        W87641   0.889  33.301   8.653  0.0504  0.2434 -0.0137
31401W        W87642  16.673   4.423   4.330 -0.0806  0.1311  0.1908
31402W        W87643  21.053  13.104  16.410  0.0321  0.0136  0.1640
31403W        W87644  27.348   3.575   6.082  0.0455  0.0941 -0.0550
31404W        W87645  16.637  21.569  12.398  0.1152 -0.0119 -0.0103
31405W        W87646  16.796  23.235   3.993  0.2892  0.2163 -0.4609
31406W        W87647  30.234  27.883  22.997 -0.0192 -0.0591  0.3875
31407W        W87648  15.720   2.269  25.230  0.2213 -0.1882 -0.0117
31408W        W87649  17.632   0.696   7.771 -0.0005  0.3282 -0.1406
31409W        W87650  14.529  15.268   8.306  0.0335 -0.3710 -0.1318
31410W        W87651   5.181  32.789  23.475 -0.3739  0.0472 -0.0021
31411W        W87652  20.512  18.617  24.318 -0.3150 -0.0603 -0.2305
31412W        W87653  11.941   1.695  25.416 -0.2907 -0.2098  0.1926
31413W        W87654  20.561  10.817   4.091  0.1774 -0.0485 -0.1091
31414W        W87655   3.398   2.286  25.891  0.2243  0.0653 -0.0797
31415W        W87656  33.415  32.753   5.696  0.0439 -0.2427  0.0876
31416W        W87657  32.864   3.608  13.675  0.3310 -0.1326  0.0801
31417W        W87658  28.108  30.297  22.829 -0.1170 -0.0757  0.0992
31418W        W87659  21.670  13.805   2.500  0.1702 -0.1922 -0.0968
31419W        W87660  34.061  31.135   1.492  0.1880 -0.5140 -0.0801
31420W        W87661  13.596  31.901  23.761  0.3489  0.0888  0.1188
31421W        W87662   0.163  11.796  23.130  0.2927 -0.0181 -0.2434
31422W        W87663  25.680  10.407  15.187  0.1801 -0.3331  0.2339
31423W        W87664  11.953  26.320   6.556  0.2613  0.1140  0.1244
31424W        W87665  19.729  18.272   1.612  0.0766 -0.0035 -0.0595
31425W        W87666  22.602   9.964  26.201 -0.0813  0.0125  0.1563
31426W        W87667  11.718  15.528  13.680 -0.0363 -0.1530  0.0979
31427W        W87668  12.214   3.535   0.789 -0.2681 -0.1438 -0.0038
31428W        W87669  21.342  30.028  23.910 -0.2726 -0.1158  0.1083
31429W        W87670  22.364   3.268   3.143 -0.1053  0.4789 -0.2963
31430W        W87671  28.664   7.342   1.061  0.0315 -0.1344 -0.0084
31431W        W87672   3.547  29.747  10.459 -0.0471 -0.3133  0.0253
31432W        W87673  33.706   7.908  13.930  0.1282  0.2128 -0.0530
31433W        W87674  14.540   4.218   7.158 -0.0350 -0.0012  0.1677
31434W        W87675  22.801   6.319  14.675  0.0491  0.1402 -0.0698
31435W        W87676  12.645  31.642   7.493  0.2213 -0.0071 -0.1938
31436W        W87677  25.650  30.840  17.057 -0.0065 -0.1354 -0.0042
31437W        W87678   3.675  30.056  22.451  0.2167 -0.0036  0.1672
31438W        W87679  26.666  21.113   9.440  0.0672 -0.1212  0.2165
31439W        W87680  24.504  26.639  14.485  0.0148 -0.0632  0.0063
31440W        W87681   2.747   1.286   2.541  0.1170 -0.3365 -0.2345
31441W        W87682  28.670  27.913   1.840  0.0410 -0.0141  0.0768
31442W        W87683  23.915  20.478  14.929 -0.4112  0.3208 -0.3504
31443W        W87684   9.799  24.921  22.973 -0.0993 -0.2114  0.2878
31444W        W87685  14.754   9.177   7.106 -0.3252  0.0941  0.1133
31445W        W87686  30.167   2.892  25.642 -0.1005  0.0834  0.1976
31446W        W87687   5.617  29.254  24.757  0.0046 -0.3055 -0.0569
31447W        W87688  13.787  15.210   9.551 -0.1324 -0.0535 -0.1077
31448W        W87689  19.443  19.581   1.227 -0.1231 -0.2269  0.0800
31449W        W87690  19.693   9.282   6.579 -0.0717 -0.4040 -0.3017
31450W        W87691   1.745   7.788  15.232  0.1703  0.0377 -0.1560
31451W        W87692   5.179   7.208   7.761 -0.2538 -0.1194 -0.0871
31452W        W87693  14.518   5.050  25.420 -0.0298  0.0819 -0.0685
31453W        W87694   0.274  25.076  25.441  0.1896 -0.1418  0.2038
31454W        W87695  30.581  19.282  21.155  0.2415  0.2190  0.1854
31455W        W87696  24.747  28.846  19.259 -0.0476 -0.2734  0.0969
31456W        W87697  16.292   4.572   9.382  0.1064 -0.1830  0.0989
31457W        W87698  16.047   7.817   0.897 -0.2653  0.0384  0.1183
31458W        W87699  14.539   1.066   7.818  0.2851 -0.3611  0.0331
31459W        W87700  20.450   7.464  22.153  0.1171 -0.0028  0.1773
31460W        W87701   6.234   4.204   4.007  0.0029 -0.0416 -0.2037
31461W        W87702  12.647  30.950  14.114  0.0719 -0.0951  0.2455
31462W        W87703  30.583   9.921  14.869 -0.0328  0.0568 -0.3349
31463W        W87704   1.557  29.852  26.212  0.2315 -0.1820 -0.2271
31464W        W87705  14.265   0.166   6.015 -0.5550  0.2141 -0.1676
31465W        W87706  12.193  23.149   6.754  0.0178 -0.0288  0.0882
31466W        W87707  31.840  33.240   4.617 -0.2019  0.1909 -0.3487
31467W        W87708  21.317   8.209   1.428  0.1941  0.3560  0.1597
31468W        W87709  16.512  15.939  10.244 -0.1775 -0.0655 -0.2319
31469W        W87710  27.190  12.080  10.076 -0.1558  0.0365  0.1438
31470W        W87711   6.538  14.649   3.597 -0.1882 -0.1311  0.2521
31471W        W87712   8.676  19.902  22.499  0.0968 -0.3020  0.2944
31472W        W87713  30.565  17.923   6.780  0.1802  0.1303 -0.0316
31473W        W87714   7.777   1.547   6.320  0.0405 -0.2410 -0.0359
31474W        W87715  33.444  13.750  22.793  0.1267  0.2059 -0.1441
31475W        W87716  34.715  22.325  19.318 -0.0431 -0.1671 -0.0282
31476W        W87717  19.141   3.923   4.360  0.3518  0.2232  0.3380
31477W        W87718   5.699  10.716   0.458 -0.1775  0.1339  0.3193
31478W        W87719   0.601  15.045  16.828 -0.5436 -0.0853 -0.0840
31479W        W87720  26.379   3.789  11.605 -0.1361 -0.3102 -0.0904
31480W        W87721  10.260  24.413   7.614 -0.1230  0.3454 -0.2485
31481W        W87722   7.880  24.294   1.828  0.2046 -0.0102  0.1912
31482W        W87723  33.914  18.293  16.682 -0.1279  0.1048 -0.0892
31483W        W87724  30.441  12.822   6.436 -0.0832 -0.1429  0.2735
31484W        W87725  35.082  11.355  17.389 -0.2762  0.0288 -0.2921
31485W        W87726  12.598  20.298  15.464  0.0504  0.1364  0.1917
31486W        W87727  17.943  34.832   2.361  0.2926 -0.2063  0.0884
31487W        W87728  23.495  11.580  13.960 -0.1414  0.0901 -0.0993
31488W        W87729  18.310   0.372   2.226  0.4777  0.0269  0.2319
31489W        W87730  25.831  28.736  17.305 -0.0742 -0.0069  0.2791
31490W        W87731  17.030  27.663   8.247  0.2560  0.2931  0.1314
31491W        W87732  35.067  14.748  23.394  0.1648 -0.0972  0.3237
31492W        W87733   9.662  33.210   1.115 -0.2341  0.4413 -0.2548
31493W        W87734   3.546   1.307   4.159 -0.1956 -0.0938 -0.2760
31494W        W87735  18.013   6.542   2.894 -0.2554  0.0039 -0.2431
31495W        W87736  31.285  19.826  17.861 -0.2232 -0.2189 -0.0011
31496W        W87737  29.002   4.505  12.963  0.0863 -0.0570  0.2705
31497W        W87738  12.999  20.899  24.016  0.0473 -0.0758  0.2876
31498W        W87739   0.343  33.368   4.755 -0.4009  0.0475  0.1270
31499W        W87740  10.930   3.253   5.819  0.0508  0.2075 -0.0594
31500W        W87741  17.651  29.863   8.331  0.0323 -0.0620  0.1224
31501W        W87742  34.189   9.577   0.658  0.3273  0.1297 -0.1665
31502W        W87743  33.789  34.272  15.393 -0.2195  0.3664  0.0759
31503W        W87744   6.252  18.644   1.095  0.2612  0.0146  0.1785
31504W        W87745  25.703  35.258   2.253 -0.0857 -0.0823  0.2270
31505W        W87746  31.064  17.944  15.503  0.0181  0.0338  0.0316
31506W        W87747  25.989  15.209  19.456  0.4535 -0.0411  0.1036
31507W        W87748  26.455  11.513  11.186  0.3214  0.1194  0.0832
31508W        W87749  25.854  19.817  23.150  0.1718  0.1428 -0.0741
31509W        W87750  18.907  26.840   7.198 -0.0989 -0.2027  0.3073
31510W        W87751  27.377  26.649  25.931 -0.0597  0.1941 -0.1801
31511W        W87752  29.782  10.957  12.842 -0.3255 -0.0758  0.1038
31512W        W87753  17.682  13.198  24.901 -0.0156 -0.0398  0.1223
31513W        W87754  26.623  34.342  20.625 -0.1055 -0.1239 -0.1151
31514W        W87755  30.575  34.264  14.289  0.2515  0.0602 -0.0159
31515W        W87756  24.252   1.870  11.960  0.2562  0.0071  0.0911
31516W        W87757   2.792   3.033   1.993 -0.1627  0.2038  0.1062
31517W        W87758  24.909   4.589  16.705 -0.0318 -0.1785  0.1903
31518W        W87759  21.626  24.463  24.942 -0.1652 -0.2430  0.0193
31519W        W87760  29.373  32.011  26.150 -0.0211 -0.0791  0.2316
31520W        W87761   3.967   8.869   4.201 -0.0971  0.1128 -0.1618
31521W        W87762  10.452  21.288   2.214  0.0300 -0.1287 -0.1610
31522W        W87763  27.854  23.660  15.206  0.0598 -0.0243 -0.3646
31523W        W87764   5.812  22.876  24.042  0.3133 -0.1191 -0.3783
31524W        W87765  10.523  23.509  16.509 -0.1154  0.1910 -0.3350
31525W        W87766  12.924  29.545  10.076 -0.1180 -0.2147 -0.1430
31526W        W87767  22.886   5.275   5.913  0.1146 -0.0915 -0.0202
31527W        W87768  18.323  12.341   2.552 -0.0640 -0.1126  0.0211
31528W        W87769   5.990  30.421  26.131  0.1827  0.3243 -0.1487
31529W        W87770  32.521  12.276  26.112 -0.0492 -0.2873 -0.2770
31530W        W87771  22.454  17.681  20.526  0.4249  0.1023  0.0324
31531W        W87772  13.615   4.915   0.600 -0.0154  0.1194  0.0239
31532W        W87773   3.668  13.973  21.299 -0.0418  0.1751  0.0116
31533W        W87774  11.729  29.481   3.927 -0.1664 -0.0941  0.1346
31534W        W87775  13.073   9.163   9.223 -0.3512  0.0363  0.0064
31535W        W87776  32.169   9.800  16.813  0.3557  0.0215 -0.0087
31536W        W87777  14.790  21.700  15.859  0.0073 -0.3157 -0.0504
31537W        W87778  29.684  32.798   1.867  0.2840 -0.2858 -0.1197
31538W        W87779  25.117  20.537  13.796 -0.2394 -0.1351 -0.3474
31539W        W87780  12.323  15.550   1.662 -0.2870  0.1487  0.0634
31540W        W87781   4.918  28.257   9.494  0.1341  0.0847  0.0459
31541W        W87782  22.644   6.883   0.909 -0.1680  0.0148 -0.0672
31542W        W87783   9.596  20.268   4.151  0.2153  0.1302  0.2380
31543W        W87784  24.767  23.304  18.348 -0.1267  0.0265  0.1513
31544W        W87785  22.645  12.305  16.154  0.0248 -0.1233  0.1358
31545W        W87786  29.568  27.574  24.525 -0.0411 -0.1700 -0.4456
31546W        W87787   1.662  33.415  16.790 -0.0067 -0.3520  0.1238
31547W        W87788   3.811  21.742   3.765  0.2499  0.0009 -0.0447
31548W        W87789  29.984  20.208  15.887 -0.3425  0.0735  0.1537
31549W        W87790  12.770  32.053   6.477 -0.1871 -0.2373 -0.0692
31550W        W87791   3.021  16.465  18.407  0.0356  0.0473 -0.1855
31551W        W87792  24.613  29.307  13.546  0.0306 -0.0391  0.3040
31552W        W87793   2.964   0.486  21.929  0.3912  0.1918  0.0852
31553W        W87794   7.950  32.548  25.963  0.1102 -0.1093 -0.2550
31554W        W87795   0.895   5.493   3.340 -0.0381 -0.2028  0.3473
31555W        W87796   1.962  20.433  12.436 -0.1932  0.0325 -0.2536
31556W        W87797  29.372  26.788  23.564  0.2198  0.0044 -0.1525
31557W        W87798   0.119  34.570   5.313 -0.2325 -0.2314  0.0771
31558W        W87799  16.024  23.782   9.167 -0.0215  0.0394  0.1736
31559W        W87800  28.598  24.944  24.059  0.0974 -0.1666  0.1273
31560W        W87801  17.646  26.938   8.207 -0.0393 -0.1629  0.1152
31561W        W87802  18.284  18.957  20.341 -0.3551 -0.1302 -0.0387
31562W        W87803  29.687   5.803   2.998  0.0077  0.0768 -0.0055
31563W        W87804  16.765  34.594  22.376 -0.0586 -0.0137  0.0006
31564W        W87805  35.051   1.634  23.883  0.0807  0.1236 -0.0985
31565W        W87806  17.045  33.809   2.397 -0.3016 -0.0173 -0.0208
31566W        W87807   2.358  25.224  25.022  0.2006  0.1020 -0.3976
31567W        W87808  16.304  12.725  26.113  0.2682  0.0462  0.1114
31568W        W87809  31.399   2.743   0.533 -0.0098 -0.2821  0.3960
31569W        W87810  15.906  32.067   8.900 -0.0192  0.2234 -0.0166
31570W        W87811  30.000  34.807   1.449  0.1169  0.2949 -0.0531
31571W        W87812   1.374  24.096  18.862 -0.1166 -0.0917  0.0167
31572W        W87813  14.491  33.897  19.662 -0.0177  0.1422 -0.0375
31573W        W87814   3.776  10.949  16.942 -0.1424 -0.1723 -0.0380
31574W        W87815  29.487  23.542  17.802 -0.1528  0.0592  0.1301
31575W        W87816   7.702  20.040   1.216 -0.2600 -0.2407  0.0056
31576W        W87817   1.436   5.736   4.797 -0.1275 -0.1365  0.2542
31577W        W87818   3.933   8.009  17.700  0.1019 -0.1006 -0.0747
31578W        W87819  19.234   4.529  16.789  0.1725 -0.0075 -0.1656
31579W        W87820   7.960  14.794   2.479  0.1481 -0.3851 -0.0307
31580W        W87821  23.112   0.697  18.848 -0.0438 -0.1585  0.0747
31581W        W87822  32.920  25.633  21.217 -0.0424  0.0608  0.0370
31582W        W87823  21.724   1.280   4.688  0.0640  0.1803 -0.3043
31583W        W87824  31.115   3.048  21.152  0.1408  0.1365 -0.0328
31584W        W87825  23.836  25.150  24.118  0.2975  0.2562 -0.1377
31585W        W87826  14.742  26.741  13.726 -0.1522  0.2264  0.0144
31586W        W87827  24.889  35.359  16.593 -0.1675  0.1760  0.0636
31587W        W87828   8.308  20.819  11.727  0.0941 -0.1796  0.0384
31588W        W87829  27.010  19.141  23.926  0.0417  0.0272  0.0638
31589W        W87830  10.012   1.364  20.763 -0.1401 -0.1836  0.1609
31590W        W87831  25.096   1.424  24.136 -0.2638 -0.1079 -0.0751
31591W        W87832  31.645  19.229   6.492 -0.1993 -0.0294  0.1448
31592W        W87833  12.678  22.912  17.681  0.0892  0.0173 -0.0777
31593W        W87834  13.675   6.318  22.104 -0.0058  0.1275  0.1380
31594W        W87835   5.502  14.718   9.608  0.0699 -0.0989  0.0464
31595W        W87836   1.137  14.449  18.158 -0.0125 -0.0936  0.0356
31596W        W87837  19.768  18.967  25.241 -0.2072  0.1576 -0.1279
31597W        W87838   3.684  32.969  10.015  0.0120 -0.0339 -0.0050
31598W        W87839  13.548  20.642  11.531 -0.0007 -0.0580 -0.1911
31599W        W87840   1.035   1.330   3.018  0.0129  0.0464  0.0035
31600W        W87841   3.079   7.045   4.835  0.0958  0.0885 -0.1746
31601W        W87842  18.022  22.524   2.842  0.0146  0.2467  0.1713
31602W        W87843  27.171  17.773   4.527  0.0164 -0.3950  0.2283
31603W        W87844  34.340   0.612  17.060  0.2225 -0.1555 -0.1429
31604W        W87845  21.117  31.320   1.835  0.1289  0.4167 -0.3247
31605W        W87846  29.297  12.228   9.452 -0.2956  0.2341 -0.0081
31606W        W87847  30.687  15.721  14.711 -0.1500 -0.1348 -0.3653
31607W        W87848  17.181  11.405  19.828 -0.4248  0.2235 -0.2163
31608W        W87849  26.435  22.673  23.335 -0.0464 -0.2465  0.2374
31609W        W87850   8.728   2.637   0.347  0.1603  0.0950 -0.0844
31610W        W87851  27.132  30.040  25.250 -0.2094 -0.0028 -0.0709
31611W        W87852  28.805  25.159  24.780  0.1955  0.0967  0.0833
31612W        W87853   4.790  12.332   8.505 -0.3715  0.3097 -0.4488
31613W        W87854   3.443   3.107   3.966 -0.1472 -0.0556  0.3790
31614W        W87855  32.524  18.606  22.749  0.1146  0.2970  0.0389
31615W        W87856  24.024   7.405  17.783  0.2461 -0.1781 -0.1846
31616W        W87857  25.085  29.264  16.787 -0.2717  0.0201 -0.1615
31617W        W87858  11.846  16.628  24.529 -0.0506 -0.0077  0.4974
31618W        W87859  32.328  34.371  12.391 -0.2851 -0.2177 -0.1622
31619W        W87860  23.162   4.861   7.327  0.0713 -0.0003  0.5853
31620W        W87861   2.078  26.869   2.763  0.0125 -0.0707  0.2370
31621W        W87862   3.136   8.457   3.706  0.2866  0.0943  0.3071
31622W        W87863   9.476  24.497  23.501  0.2091 -0.2199 -0.1347
31623W        W87864   3.926   6.324  18.731  0.1097 -0.3593 -0.0822
31624W        W87865  18.033   2.903   1.814 -0.1287  0.2101 -0.0016
31625W        W87866  34.844  20.991  18.161  0.1480  0.3588 -0.0881
31626W        W87867  35.380  20.151  17.454 -0.0093  0.0006  0.3657
31627W        W87868  12.046  21.564   4.627 -0.0338 -0.0901 -0.4602
31628W        W87869  25.599   5.914  19.464  0.3639 -0.0939 -0.1946
31629W        W87870  23.713   0.620  17.773 -0.0643 -0.1851 -0.1804
31630W        W87871  11.122   4.861  23.962 -0.0487 -0.0939  0.0648
31631W        W87872  13.912   2.667   0.462  0.0809  0.2155 -0.1010
31632W        W87873   2.235  32.165   1.745 -0.3007  0.1109  0.0376
31633W        W87874   0.855  17.939  16.301  0.2125  0.0666 -0.0515
31634W        W87875  21.394  19.672   0.247 -0.0542 -0.0115  0.1193
31635W        W87876   3.769  30.255  19.055 -0.1558 -0.0990 -0.0186
31636W        W87877   6.423   8.273   6.528  0.1237  0.1617  0.0504
31637W        W87878  25.688  28.008  24.047  0.0107 -0.1876  0.1068
31638W        W87879  12.624   6.612  20.126 -0.3325  0.0489 -0.0815
31639W        W87880  33.193   4.043  12.458 -0.3942  0.4140  0.3354
31640W        W87881   1.566   4.547   3.667  0.1822 -0.0557 -0.0272
31641W        W87882  14.185   2.937   1.712 -0.0089  0.0104 -0.1992
31642W        W87883  24.169   5.893   3.576 -0.0207 -0.2164 -0.1219
31643W        W87884   6.293  14.181  25.379  0.0276  0.0892  0.4479
31644W        W87885  14.417   0.314   3.584 -0.1234  0.1255  0.1877
31645W        W87886  10.976  22.340   0.175 -0.2023  0.0326  0.4110
31646W        W87887  21.238  34.269   4.936  0.1926 -0.4435  0.0930
31647W        W87888  24.699  26.979  15.530  0.0986  0.2910 -0.0437
31648W        W87889   5.577  26.153   2.196  0.0995  0.2690  0.0501
31649W        W87890   8.528  14.791   0.342 -0.2870  0.0899  0.0667
31650W        W87891  22.255   1.550  18.148  0.2734 -0.1524 -0.2293
31651W        W87892  10.694   6.745   5.840 -0.2745  0.1678 -0.2069
31652W        W87893  14.636  25.551  12.844  0.1700  0.4218 -0.0385
31653W        W87894  11.477  19.575   5.192 -0.2302  0.2058 -0.0404
31654W        W87895  32.303  18.783  24.541 -0.3180 -0.0431 -0.1974
31655W        W87896  31.616  13.957  20.676 -0.0927  0.1326  0.1313
31656W        W87897  15.931  33.214  23.837 -0.2807 -0.0108  0.0765
31657W        W87898   9.306  13.642  11.933  0.3005 -0.1198  0.2247
31658W        W87899  14.407  25.036  25.474  0.0393 -0.1294 -0.0847
31659W        W87900   8.611  13.257  10.109 -0.0935 -0.0540  0.0455
31660W        W87901  35.274  13.726  12.956  0.0529 -0.1340 -0.0467
31661W        W87902  34.968   1.727  15.809 -0.1438 -0.1890  0.0580
31662W        W87903  18.745  13.834   6.650  0.1710  0.1577 -0.2597
31663W        W87904  17.086  26.454   6.459 -0.3326  0.1229  0.0285
31664W        W87905  33.966  31.135  13.727 -0.1696 -0.0359  0.0312
31665W        W87906  32.345   1.080  13.120 -0.0617 -0.3542  0.0644
31666W        W87907  11.323  28.466   0.747 -0.0765  0.0512 -0.0440
31667W        W87908  34.558  28.974  23.142 -0.3819 -0.3260 -0.1562
31668W        W87909  11.707   5.837  25.228 -0.0598 -0.3589 -0.1563
31669W        W87910  23.127   3.456   2.773  0.0404  0.1795 -0.3989
31670W        W87911  24.385  34.361  24.270  0.0660 -0.0662  0.2147
31671W        W87912  12.434  29.747   8.058  0.2740 -0.1356  0.1008
31672W        W87913  10.280   3.855  13.206 -0.1459 -0.2602 -0.0070
31673W        W87914  33.156  34.884  24.083  0.2981 -0.0352  0.0504
31674W        W87915   0.318   0.692  22.159 -0.3648  0.0648 -0.0460
31675W        W87916  11.906  23.067   9.429 -0.0327  0.2208 -0.1189
31676W        W87917  16.340  12.765   9.143  0.1038 -0.1487 -0.0113
31677W        W87918  21.864  10.878  20.741  0.3845  0.0508  0.2172
31678W        W87919  21.022   8.819  26.092  0.0494 -0.1824  0.3722
31679W        W87920  29.071  34.732  12.746 -0.0585  0.1006 -0.5415
31680W        W87921  29.721  20.176   8.397 -0.1699 -0.0998  0.0716
31681W        W87922   0.738   0.086   5.991  0.0091 -0.1321  0.0979
31682W        W87923  31.576  35.119  15.900  0.0341 -0.1665 -0.2500
31683W        W87924  25.172   0.119  25.514  0.1578 -0.3280 -0.1766
31684W        W87925  33.755  18.367  13.636  0.1263 -0.1717  0.0087
31685W        W87926   5.382   3.106  19.512 -0.1593 -0.0662 -0.0406
31686W        W87927   3.506  11.488  16.968  0.3482 -0.1652  0.2307
31687W        W87928  33.111  30.242   3.204  0.0982  0.0099  0.1484
31688W        W87929  23.752  22.509   1.620  0.0570 -0.0875  0.2007
31689W        W87930  27.732  17.127  24.016 -0.0978  0.1440 -0.0506
31690W        W87931  16.282  25.555   0.236 -0.1693 -0.0861  0.4892
31691W        W87932   7.337  17.966  21.037  0.2370 -0.0646  0.0488
31692W        W87933   3.508  31.724   2.019 -0.1024 -0.1157  0.1251
31693W        W87934   3.860  29.016  10.047 -0.2123 -0.4054 -0.0222
31694W        W87935  20.019   3.989  16.945  0.0729 -0.0317 -0.1055
31695W        W87936  20.249   0.546   5.354 -0.1647  0.1915  0.0955
31696W        W87937  20.585  11.160  18.632 -0.0967 -0.1123  0.2199
31697W        W87938  30.281  34.965   4.537 -0.0463 -0.1707 -0.0388
31698W        W87939   0.498  23.425  24.901 -0.1069 -0.3368  0.0621
31699W        W87940  26.731  19.111  12.699 -0.0115  0.3656  0.1856
31700W        W87941   0.958  34.448   3.590 -0.0146  0.2218  0.4612
31701W        W87942  14.323  10.932   9.183 -0.0898  0.2900  0.0815
31702W        W87943  21.371  31.135   0.872  0.1774 -0.1583  0.0799
31703W        W87944  22.598   5.314  17.332  0.0485  0.1411  0.0070
31704W        W87945  12.113  25.688   7.699  0.1480  0.0295 -0.0003
31705W        W87946  15.208  18.658  11.209 -0.0112  0.2221  0.3251
31706W        W87947  24.141  15.900  17.672 -0.1552  0.0984 -0.3262
31707W        W87948  26.360  29.496  17.795  0.0020  0.0287  0.1222
31708W        W87949   4.494   4.840  21.244  0.0418 -0.1868 -0.1422
31709W        W87950  34.341  32.986   0.019 -0.2375 -0.3084  0.3656
31710W        W87951  30.046   2.823  14.108  0.0017  0.2830  0.1889
31711W        W87952  23.728   6.763  18.525 -0.0103  0.0033 -0.2459
31712W        W87953   3.523  30.227  23.435  0.1949  0.0345 -0.1146
31713W        W87954   3.215  16.786  14.216 -0.1151  0.0741 -0.2029
31714W        W87955  14.152  14.501  13.558 -0.0381 -0.0798 -0.1602
31715W        W87956   0.185  27.921  23.213 -0.0630 -0.0063 -0.0164
31716W        W87957  15.819  11.755  11.577  0.1431  0.2154  0.3037
31717W        W87958  10.375  16.407  22.094 -0.3754 -0.0146  0.3738
31718W        W87959   9.339  13.176   7.244 -0.1734 -0.1775 -0.0898
31719W        W87960   9.673  26.051  13.308 -0.2190  0.1928 -0.1758
31720W        W87961  23.933   4.577  14.676  0.1009  0.0123 -0.2346
31721W        W87962  34.205   7.695   1.175  0.1710  0.0164 -0.0132
31722W        W87963  17.923  12.129   0.951 -0.3722  0.0632 -0.2249
31723W        W87964  10.156  13.721   9.775 -0.0632 -0.1858  0.0589
31724W        W87965  27.992  31.009  18.862  0.1463  0.4052  0.1399
31725W        W87966   6.612   1.565   9.507 -0.0366 -0.0029  0.0337
31726W        W87967   5.659  31.941   8.562 -0.0957 -0.2956 -0.3845
31727W        W87968   2.295   9.503   2.359  0.0023  0.0522 -0.3243
31728W        W87969   4.414   0.105   5.148 -0.2239 -0.3576  0.1430
31729W        W87970   4.134  16.403   1.099  0.1265 -0.0556  0.0347
31730W        W87971  10.209  21.839   0.080  0.2295 -0.0346 -0.1400
31731W        W87972  28.870  11.094  21.673  0.2334  0.0068  0.1560
31732W        W87973  12.628  15.773   4.126  0.0331  0.3493 -0.0365
31733W        W87974  13.351  14.402  25.838 -0.1957 -0.0516 -0.3613
31734W        W87975   9.258  28.449  11.019 -0.0668  0.2180  0.2623
31735W        W87976   2.620  33.524   5.822  0.0723  0.2065 -0.1236
31736W        W87977  22.231  20.938  21.211  0.0755  0.3847  0.1449
31737W        W87978  16.460  19.363  21.256  0.2255 -0.1105 -0.2358
31738W        W87979   0.522  23.276  19.101 -0.1032  0.0221  0.1571
31739W        W87980   6.967  30.892   5.347  0.1654  0.1266 -0.0224
31740W        W87981   9.538  14.450   5.801  0.3237 -0.1924 -0.1421
31741W        W87982  14.318  17.280  19.693  0.1303 -0.3400 -0.0100
31742W        W87983  31.450  17.164  18.571 -0.2193  0.1413  0.1668
31743W        W87984  34.370  32.337   6.542 -0.1323 -0.1110  0.0977
31744W        W87985  10.519  27.584  12.979  0.0179 -0.1157 -0.4853
31745W        W87986   2.805   6.971  19.061  0.1455  0.0396 -0.1837
31746W        W87987  31.792   2.441  21.356  0.0231 -0.0323  0.1145
31747W        W87988   1.458   9.143   4.147  0.1059  0.0045  0.1504
31748W        W87989  33.609  15.182   7.821 -0.2068  0.0022  0.0727
31749W        W87990  32.882  27.006  14.302  0.1455  0.1493 -0.2601
31750W        W87991  23.162  32.283   6.469  0.3382  0.0609  0.1424
31751W        W87992  11.193  33.055  21.023 -0.0150 -0.1385  0.3104
31752W        W87993  18.187  23.621  24.930  0.0808 -0.0193 -0.1081
31753W        W87994  28.023  19.166  17.701 -0.1825  0.1979 -0.0176
31754W        W87995   4.260  13.689  18.729 -0.2106  0.2361  0.0982
31755W        W87996   7.712   3.406  11.914 -0.2822  0.1130 -0.2214
31756W        W87997  31.311  19.478  21.625  0.1940 -0.0873  0.0656
31757W        W87998   7.193  27.145  15.056 -0.2502  0.1558 -0.1760
31758W        W87999   8.572   9.329  25.399 -0.0113 -0.0580  0.1580
31759W        W88000  15.285  29.392   7.658  0.0136  0.1845  0.0950
31760W        W88001  22.357  29.252  25.029  0.1878 -0.1908  0.1531
31761W        W88002   7.828  23.126  21.815 -0.3378 -0.1338  0.1042
31762W        W88003   7.838  21.813   4.195  0.2625  0.1668 -0.0037
31763W        W88004  22.710   4.176  22.091  0.0544  0.1155  0.0423
31764W        W88005  33.639   9.530  18.493 -0.1332 -0.2013 -0.3348
31765W        W88006  29.459  30.836   2.207  0.0114  0.0927  0.1448
31766W        W88007   7.189  15.866   9.637 -0.1830  0.0473 -0.0142
31767W        W88008  24.516  12.724  17.923  0.4328 -0.0234 -0.2720
31768W        W88009  34.958   3.187  25.428  0.2614  0.1240  0.3546
31769W        W88010  34.280  32.525   6.038 -0.1875  0.2505  0.4745
31770W        W88011  33.592  22.570  14.767  0.0244 -0.1252  0.1233
31771W        W88012  30.621   6.352   0.453  0.0028 -0.0404 -0.0844
31772W        W88013   4.520   3.545  23.187  0.4415 -0.3046  0.0375
31773W        W88014  15.625   3.479   8.701  0.0340  0.1130 -0.2058
31774W        W88015  25.378  28.283  24.551  0.0735  0.2073  0.0844
31775W        W88016  16.796  17.719  21.741  0.1280 -0.1025  0.0066
31776W        W88017  29.048  27.510   1.687 -0.2159 -0.1397  0.1571
31777W        W88018  28.776   0.430   4.263 -0.0521  0.2123  0.0553
31778W        W88019  17.671   4.902   0.359 -0.0287 -0.2613  0.0059
31779W        W88020  18.937  13.679   6.178  0.2500  0.0384 -0.2526
31780W        W88021  33.338   5.357  16.364  0.1405 -0.2459 -0.4010
31781W        W88022   3.668  20.441   2.730  0.0447  0.3541 -0.1111
31782W        W88023  25.948  21.066  17.097  0.0016 -0.0139 -0.0285
31783W        W88024   9.534   0.472  21.222  0.0110  0.1425 -0.1006
31784W        W88025   3.900  10.647   6.120 -0.1340 -0.1538  0.2370
31785W        W88026   5.012   9.808  22.122  0.1603 -0.0449  0.1235
31786W        W88027  25.944   1.440  24.770 -0.2994  0.0368  0.0288
31787W        W88028  11.378   4.489  26.248  0.2055 -0.0476 -0.0170
31788W        W88029  26.221  34.493  10.345  0.2182  0.1166  0.3263
31789W        W88030  10.514  32.485   5.453  0.0950  0.3301  0.3948
31790W        W88031   0.132  22.098  20.369 -0.0513 -0.0825  0.0785
31791W        W88032  13.419   3.190   2.189 -0.2686  0.2156  0.1764
31792W        W88033  32.588  32.867  21.222 -0.2482  0.0459  0.1270
31793W        W88034  22.241  30.865  23.955 -0.0854  0.0697 -0.4035
31794W        W88035  32.184  15.999  16.580 -0.1093 -0.0173 -0.2949
31795W        W88036   4.395  21.393  19.590 -0.2031 -0.1852  0.3255
31796W        W88037  27.123  32.866  12.323  0.0714  0.2149 -0.2574
31797W        W88038  30.386   6.476  23.081 -0.1000 -0.0300 -0.5734
31798W        W88039   5.344   7.610  18.637 -0.0521 -0.0440 -0.3902
31799W        W88040   7.095  20.623  23.215  0.0412  0.0172  0.0605
31800W        W88041  20.595   9.333  24.618 -0.1617 -0.0369  0.0372
31801W        W88042  23.476   7.331  24.765 -0.0033 -0.3038  0.2474
31802W        W88043   9.960   0.672  10.057  0.3668  0.1223  0.2376
31803W        W88044  20.187  34.142  17.464 -0.0803  0.1269 -0.3676
31804W        W88045  15.304  29.287  13.322  0.0845 -0.5021 -0.0196
31805W        W88046  31.825  32.212  15.452 -0.2373 -0.2731 -0.0328
31806W        W88047  10.319  13.871  12.095 -0.1303  0.2081 -0.1410
31807W        W88048   7.113   3.605  20.108 -0.0496  0.0228  0.3447
31808W        W88049  30.693  29.575  17.274 -0.1562  0.4136  0.1763
31809W        W88050  20.040  11.455   8.223 -0.0239 -0.1625 -0.1912
31810W        W88051  32.350  28.724  23.960 -0.1859  0.1451  0.2760
31811W        W88052  32.400  21.180  12.606  0.0966 -0.1965  0.3390
31812W        W88053  26.920   8.767   8.912  0.0798 -0.1363  0.2155
31813W        W88054  27.970  13.268  19.663 -0.1219 -0.0499  0.0629
31814W        W88055  22.388  15.710  23.546  0.2889 -0.1469 -0.2225
31815W        W88056   7.370  12.414   5.474  0.5434  0.0606  0.2860
31816W        W88057   5.498  33.807  19.990  0.2474  0.3796  0.4240
31817W        W88058  34.606  25.614  13.916 -0.3619 -0.0364  0.3423
31818W        W88059  15.468   5.651   2.158  0.0995  0.0659 -0.3056
31819W        W88060  24.901  25.591  14.014  0.1159  0.1567  0.0485
31820W        W88061  30.400  30.999  23.034 -0.0077 -0.0047  0.2207
31821W        W88062   6.215   8.376  21.305  0.0156 -0.0159  0.1893
31822W        W88063   9.486  30.617   3.940 -0.2673  0.0253  0.0264
31823W        W88064  34.616  29.822  21.368  0.0259  0.0924 -0.1485
31824W        W88065  20.117  33.484   2.132 -0.1615  0.1083  0.1851
31825W        W88066  24.539  18.257  20.226 -0.1883 -0.0865 -0.2602
31826W        W88067  33.381  31.964  18.836 -0.1486  0.3299 -0.1824
31827W        W88068   5.882   8.188  24.597 -0.0479 -0.0451 -0.3001
31828W        W88069  17.911  33.669   8.581 -0.0324  0.0868  0.0429
31829W        W88070  31.613  25.199  13.988  0.1106  0.2657 -0.0783
31830W        W88071  23.509  25.676  21.107  0.1358 -0.2851  0.1543
31831W        W88072   7.166  15.757   8.623  0.1372  0.1214 -0.0707
31832W        W88073   2.423  27.491   8.089  0.2117 -0.1744  0.0393
31833W        W88074   1.644  23.897  22.531 -0.3503  0.1194 -0.0254
31834W        W88075  34.782  32.622  25.130  0.2131 -0.0037 -0.3041
31835W        W88076   0.702  18.682  22.999  0.0624 -0.0177 -0.1064
31836W        W88077  35.009  10.768  21.573  0.1184 -0.1782  0.0846
31837W        W88078  21.445  10.997   1.679 -0.0164 -0.1105 -0.0613
31838W        W88079  18.425  16.324   9.716  0.2546 -0.0869 -0.2126
31839W        W88080  11.440  20.170  10.548 -0.0686  0.0099 -0.0095
31840W        W88081  26.562  30.059   2.447  0.0654  0.0105  0.0897
31841W        W88082  11.273  18.901  24.527  0.0660 -0.2357 -0.1101
31842W        W88083  28.951  32.028   4.503  0.2244 -0.0677 -0.2541
31843W        W88084  19.459  16.167  20.903 -0.2118 -0.1057  0.0098
31844W        W88085   4.911  20.080   2.679 -0.0444  0.3766 -0.1790
31845W        W88086  10.312  29.244   6.290 -0.0008 -0.1848 -0.4404
31846W        W88087   0.798   1.765   2.182 -0.0718  0.2819  0.1586
31847W        W88088  14.126  17.127  25.457  0.0155  0.1061 -0.1937
31848W        W88089   6.498   5.560  25.311 -0.4048  0.0992  0.1584
31849W        W88090   4.654  27.786  21.029 -0.1946 -0.0872  0.0359
31850W        W88091  23.692  25.054  19.991 -0.0820 -0.0689  0.0099
31851W        W88092  18.230   5.077  21.068 -0.0635 -0.0195 -0.0320
31852W        W88093  10.286  32.940  23.050  0.2948 -0.1367  0.0502
31853W        W88094  30.438  12.516  17.634 -0.1298  0.0210 -0.0282
31854W        W88095  33.253  10.713  20.445  0.0798 -0.0043 -0.3938
31855W        W88096  15.646   1.362   5.252  0.1054  0.0500 -0.0184
31856W        W88097  25.675  27.652  25.419 -0.1180  0.2122  0.3145
31857W        W88098  24.903  11.600  21.567 -0.0332  0.2983 -0.0243
31858W        W88099   5.018  35.119  10.679  0.0414  0.1114  0.0216
31859W        W88100  13.390  15.027  21.552 -0.0039  0.1763 -0.0451
31860W        W88101  22.369  21.982  17.288 -0.4287  0.1503 -0.1100
31861W        W88102   7.067  18.299   3.213  0.1176 -0.0584  0.0544
31862W        W88103  33.682  30.825  22.190  0.2104  0.2032  0.3343
31863W        W88104  34.682   1.973   6.591 -0.0030  0.1385  0.1772
31864W        W88105  30.591  24.305   0.956  0.2145 -0.1984 -0.1120
31865W        W88106   2.983  29.674   4.569  0.1212  0.0847  0.0363
31866W        W88107   6.733  21.162   8.540  0.1312 -0.1334 -0.2610
31867W        W88108  23.301   5.200  20.847  0.0514  0.1229  0.1883
31868W        W88109  26.725   6.790   2.821  0.0158 -0.2508 -0.0109
31869W        W88110   1.707   1.540  18.100  0.2737  0.1661  0.2764
31870W        W88111  18.614  34.762   7.138 -0.1313  0.3622  0.0040
31871W        W88112  11.406  16.541  10.805 -0.2338  0.2489  0.1555
31872W        W88113  32.246  10.502  12.619  0.1820 -0.2320  0.2553
31873W        W88114  24.118   6.230  16.803  0.0914  0.0518  0.0043
31874W        W88115  12.077  26.127   2.034 -0.1654 -0.0466  0.4506
31875W        W88116  18.358  17.414   0.465  0.0824 -0.0752 -0.1583
31876W        W88117   4.674  30.481  13.847  0.0162 -0.3827 -0.2186
31877W        W88118   2.966   2.379   3.130 -0.0345 -0.0704  0.3300
31878W        W88119  29.687  17.314   5.632 -0.0599  0.2700 -0.0255
31879W        W88120  18.628  29.680  19.094 -0.0200  0.1019  0.0181
31880W        W88121   0.856  22.547  16.535  0.2258 -0.2793 -0.1500
31881W        W88122   0.409   0.924  21.688  0.2117  0.5603 -0.2353
31882W        W88123  31.731  15.976   6.275 -0.0075 -0.0154  0.0745
31883W        W88124   0.643  22.133  14.943  0.1465 -0.0908  0.1978
31884W        W88125  19.067  27.154   6.232 -0.0104 -0.3092  0.2964
31885W        W88126   5.788  14.490  22.421  0.2179 -0.1489 -0.2552
31886W        W88127   2.419  20.974  21.079  0.0906 -0.1845 -0.1814
31887W        W88128   0.575   3.244  19.623 -0.0636  0.2467  0.3624
31888W        W88129  14.796  24.147   5.642 -0.3469  0.0091 -0.1285
31889W        W88130  30.850   0.394   2.361  0.0608 -0.4076  0.1887
31890W        W88131  30.644  21.842   5.069  0.1129 -0.2498 -0.1171
31891W        W88132  18.634   2.842   4.864 -0.0786  0.1981  0.0672
31892W        W88133  26.993   4.741  20.879 -0.1363 -0.0403  0.1030
31893W        W88134  17.157   8.689   5.230  0.1941 -0.1187 -0.0153
31894W        W88135  20.080  24.557  21.430  0.0473  0.0355 -0.2022
31895W        W88136  32.020  16.725  11.117 -0.1496 -0.3773  0.0067
31896W        W88137  28.286   3.646   0.259  0.1656 -0.2574 -0.1166
31897W        W88138  30.067  23.902  20.664 -0.1149  0.1809 -0.0894
31898W        W88139  16.075  29.754  25.628 -0.0816 -0.1256 -0.0088
31899W        W88140  34.853   0.759   3.186 -0.2739 -0.2030  0.0460
31900W        W88141  13.156  31.897  22.819 -0.3258 -0.2009  0.1751
31901W        W88142  14.978  17.253  11.743  0.1904 -0.1606 -0.4865
31902W        W88143  28.556  35.179  11.151 -0.1802 -0.2706 -0.1048
31903W        W88144  12.220   0.235  20.210  0.0595  0.0202  0.1318
31904W        W88145   2.431   2.753  16.216 -0.0301  0.0598 -0.2646
31905W        W88146  16.584  15.010   0.329 -0.0483 -0.3550 -0.0304
31906W        W88147   6.571  28.686  22.140 -0.1293 -0.0034 -0.0098
31907W        W88148  33.702  23.997  13.384 -0.0774  0.0274 -0.0798
31908W        W88149   7.103  10.330   1.229  0.2683  0.1350  0.1436
31909W        W88150   8.265  34.726   4.206  0.1021  0.2886 -0.2413
31910W        W88151  30.748  11.509  26.049 -0.1396  0.0641 -0.1131
31911W        W88152   0.945  25.434   0.038 -0.4094 -0.1915  0.0900
31912W        W88153   2.236   0.778  18.930  0.0530 -0.2688 -0.1257
31913W        W88154   3.529  32.486   2.061 -0.0174  0.0844  0.0155
31914W        W88155  13.167   3.109  10.199 -0.4358 -0.0976  0.0210
31915W        W88156   0.375   2.402  15.337  0.1920  0.1222  0.2610
31916W        W88157  33.893  12.476  19.937  0.1595 -0.1086 -0.0219
31917W        W88158  18.737   0.616  15.634  0.0969  0.2564  0.1506
31918W        W88159   9.689  12.833  19.213  0.0418  0.0219  0.0336
31919W        W88160   8.607   3.388  24.572 -0.3266 -0.0764 -0.0934
31920W        W88161   1.980  34.058  22.351 -0.0692  0.1766 -0.2385
31921W        W88162  14.998  23.438  13.384 -0.1591 -0.2371 -0.1736
31922W        W88163  29.394  20.660  15.366  0.2791 -0.1774  0.0339
31923W        W88164  34.223  28.653  22.881 -0.4058 -0.2089 -0.0209
31924W        W88165  15.332  18.880   0.605 -0.1802 -0.3707  0.2814
31925W        W88166   5.060  32.759   5.274  0.1148  0.0975 -0.1427
31926W        W88167  28.723  17.965  17.641  0.3551  0.0048 -0.1049
31927W        W88168   8.491  24.702  16.808 -0.3131 -0.3105 -0.1143
31928W        W88169   7.835   8.185  19.177  0.2068  0.0035 -0.0856
31929W        W88170   9.077   7.146   7.671  0.0077  0.1179  0.0636
31930W        W88171  21.076  24.549  15.844  0.0601  0.3976 -0.0290
31931W        W88172  14.325  13.618   0.645 -0.3654 -0.1607  0.2785
31932W        W88173   4.660  13.491   4.472 -0.1442  0.2523 -0.0272
31933W        W88174   8.414  32.193  13.894 -0.0338  0.0016  0.1330
31934W        W88175  27.770  34.526  14.885 -0.2414  0.1467 -0.0715
31935W        W88176  15.305  31.976   3.161  0.4144  0.2144  0.0687
31936W        W88177   1.357   6.196   1.114 -0.4902 -0.2176  0.1720
31937W        W88178  26.526   8.357   2.930  0.0992 -0.2133  0.0650
31938W        W88179   9.104  21.434  11.290 -0.2743  0.0911 -0.1305
31939W        W88180  26.147  24.252   0.147 -0.0818  0.1884  0.1507
31940W        W88181  22.713  10.022  20.101 -0.2284  0.1369 -0.0156
31941W        W88182  16.881  12.495   6.884 -0.3755  0.1661  0.1073
31942W        W88183  25.962  11.842  25.711  0.1720  0.1445  0.0819
31943W        W88184  23.520  23.197  22.345 -0.1980  0.3129 -0.2842
31944W        W88185  14.788   8.630   1.498 -0.1807 -0.1616  0.0220
31945W        W88186  12.801  11.995   2.612  0.1560 -0.0423 -0.0132
31946W        W88187  20.654  11.691  22.802 -0.1860  0.2139  0.1635
31947W        W88188  11.871   8.936   1.196  0.2778 -0.0964 -0.0355
31948W        W88189  17.481  23.340  11.434 -0.1053 -0.0454  0.1816
31949W        W88190  23.606  27.133  16.137  0.0547  0.1457 -0.2619
31950W        W88191  26.740   9.117  20.059  0.3524  0.0639  0.0278
31951W        W88192   5.759   7.564   0.025 -0.0965  0.1005 -0.1192
31952W        W88193  19.021  12.556  24.815  0.1782  0.0346 -0.0026
31953W        W88194  29.633  33.932  11.383  0.2216 -0.0138  0.0283
31954W        W88195   7.903  11.295  26.237 -0.1371  0.1536 -0.1995
31955W        W88196  30.739   4.570  13.557  0.1724 -0.0143  0.1446
31956W        W88197  23.922  15.173  13.609 -0.0695 -0.3553  0.0866
31957W        W88198   4.287   1.067   4.750  0.0288 -0.3401 -0.2011
31958W        W88199  18.081  22.990   5.206 -0.1980 -0.3075 -0.1255
31959W        W88200  28.479  15.437  18.895 -0.1053  0.0102 -0.1090
31960W        W88201  34.103  18.386  19.779 -0.0277 -0.0430  0.0189
31961W        W88202   6.255   4.959  25.756  0.0899 -0.2953  0.2703
31962W        W88203  31.096  11.455  16.808  0.0843 -0.0877 -0.0968
31963W        W88204   5.759  29.114  10.436 -0.3475  0.3323  0.3146
31964W        W88205  21.642   4.524  20.257  0.2684 -0.0436  0.0666
31965W        W88206  33.292  29.158  24.261 -0.1137  0.0805  0.0440
31966W        W88207  21.016  30.777   4.849  0.3283  0.0386 -0.2257
31967W        W88208   0.468  12.404  17.697  0.1596  0.0841  0.3332
31968W        W88209  14.924  10.404  25.377  0.0741 -0.0866  0.1844
31969W        W88210  20.855  21.973  25.041 -0.0923 -0.1166 -0.1623
31970W        W88211  29.791   1.824   3.956  0.2327 -0.2061 -0.0330
31971W        W88212  18.612  21.340  22.112 -0.1976 -0.2307  0.1155
31972W        W88213  25.442  22.957  25.331 -0.0794 -0.2380 -0.1991
31973W        W88214   7.102   5.037  21.494  0.2425 -0.3075 -0.2292
31974W        W88215  16.424  33.648  23.260 -0.3100 -0.3265 -0.0900
31975W        W88216  13.448  11.847   6.643  0.1095  0.0493  0.0081
31976W        W88217  28.019  32.700  22.464 -0.0786  0.5111  0.1858
31977W        W88218   1.388  10.051  17.623 -0.0141 -0.1607  0.0205
31978W        W88219  32.554  10.276  19.180  0.3293 -0.0392 -0.1819
31979W        W88220  26.541  11.467  11.908  0.0424  0.0585 -0.2542
31980W        W88221  26.307  24.378  21.334  0.2013 -0.0940  0.1604
31981W        W88222  21.174  12.655  22.202 -0.0896 -0.0560 -0.1640
31982W        W88223  25.122   6.625  19.066 -0.1538  0.0416  0.0023
31983W        W88224  15.884  22.627  24.498 -0.0248 -0.1643  0.0149
31984W        W88225   5.479  32.401  22.870 -0.1394 -0.0124 -0.2898
31985W        W88226   8.521  26.401   8.173 -0.0752 -0.2557  0.0380
31986W        W88227  33.818  27.984   0.516 -0.2499  0.1181 -0.3908
31987W        W88228  28.892  32.806  22.704 -0.1567 -0.0815  0.0855
31988W        W88229  26.767  32.773  24.011  0.0787 -0.0104  0.1243
31989W        W88230  32.638  28.679  11.745 -0.1370  0.2379  0.1398
31990W        W88231  10.971   9.774   0.938  0.2879  0.0717 -0.0331
31991W        W88232  18.294  32.247   3.450 -0.0837 -0.0145 -0.0240
31992W        W88233   7.433  29.111  23.503 -0.0607 -0.0909  0.1742
31993W        W88234  16.716  25.203  24.835 -0.2088 -0.0310  0.0325
31994W        W88235  22.999  16.872  23.461  0.0412 -0.2585 -0.0667
31995W        W88236  14.639  26.111   1.482  0.0758 -0.0764 -0.0661
31996W        W88237   5.843  25.404   4.930  0.2907  0.0856  0.0137
31997W        W88238   8.216  17.914  25.703 -0.0047 -0.3977 -0.3278
31998W        W88239  26.474  17.526   4.574  0.1871 -0.0465  0.1597
31999W        W88240  12.698  20.232  11.171  0.2002  0.1942 -0.1889
32000W        W88241  11.592   1.063  25.010  0.2801  0.1898  0.2688
32001W        W88242  17.837   2.391   1.782 -0.0862 -0.0305 -0.1144
32002W        W88243   2.861   7.693   3.723  0.0446 -0.1118  0.0821
32003W        W88244  23.197  34.825  25.142 -0.0402  0.0775 -0.0596
32004W        W88245  22.632  32.539   2.271  0.0467 -0.1607 -0.0811
32005W        W88246  17.880   1.717  17.972  0.2344 -0.0064  0.0669
32006W        W88247  34.458   2.671  13.611 -0.1846  0.0239  0.3285
32007W        W88248  19.856   8.634   9.388 -0.0337 -0.2906  0.0545
32008W        W88249  34.523  18.754  17.820 -0.0702  0.0630  0.2756
32009W        W88250  11.963   0.117  22.965  0.2469 -0.1714 -0.0840
32010W        W88251  13.837   9.968  10.914  0.2191  0.2663 -0.2042
32011W        W88252   5.320  20.328   4.712  0.0026 -0.1663  0.1357
32012W        W88253  11.321  26.916  23.598 -0.3969 -0.1261  0.3052
32013W        W88254  12.853   8.405  24.738 -0.0343 -0.1020 -0.2240
32014W        W88255  19.822   3.806   2.064 -0.0370  0.0985  0.1627
32015W        W88256  26.352  30.827  23.042  0.1126  0.1609  0.0549
32016W        W88257  25.078  28.155  23.197 -0.1101 -0.0034 -0.1767
32017W        W88258  16.594  19.916  23.798 -0.2051  0.1786  0.0945
32018W        W88259   6.306  32.079   1.174 -0.1602 -0.2804  0.0121
32019W        W88260   9.389   2.846  22.347  0.3675 -0.2180  0.1758
32020W        W88261  33.234  17.699  23.206 -0.1080 -0.0770 -0.1805
32021W        W88262  27.867  17.534  21.146 -0.1377  0.0545 -0.0024
32022W        W88263  29.000  23.454  14.069  0.1983 -0.0752 -0.2491
32023W        W88264  16.619   7.249   0.774 -0.3292  0.0465 -0.2612
32024W        W88265  30.679  12.414  17.146  0.0081 -0.1391  0.0999
32025W        W88266   3.636  29.586   8.539 -0.0717 -0.2685 -0.0757
32026W        W88267  19.512  22.049   5.034  0.0502 -0.1973  0.1254
32027W        W88268  30.985  16.672  21.731  0.3786  0.2072  0.1549
32028W        W88269  32.116   2.476   5.170  0.2113 -0.3844 -0.1786
32029W        W88270  14.607   1.171  11.842  0.1421 -0.1549 -0.3538
32030W        W88271  22.852  14.981  16.938 -0.2776  0.2589 -0.0492
32031W        W88272  23.695  26.661   1.253 -0.2067  0.2950 -0.1500
32032W        W88273   1.279   3.779  15.419  0.5243  0.0484  0.1648
32033W        W88274   7.289   2.072  12.126 -0.0736  0.4066 -0.4234
32034W        W88275  13.076  26.764  14.046 -0.2698 -0.5029 -0.1525
32035W        W88276  24.900  28.689   1.207 -0.2504 -0.0715 -0.0749
32036W        W88277   7.452  24.712   8.307 -0.0090  0.0267  0.1589
32037W        W88278  26.599  22.322  18.805  0.2394 -0.3597 -0.1202
32038W        W88279   8.534  32.769  25.182 -0.2865 -0.0629 -0.1313
32039W        W88280   4.363  15.806  19.853 -0.1954  0.1336 -0.0142
32040W        W88281   9.030   4.219  13.645 -0.2624 -0.0080 -0.1602
32041W        W88282  20.631   7.876  24.177 -0.0247  0.0100 -0.1806
32042W        W88283   5.859  32.600  23.147 -0.1748  0.1709  0.3853
32043W        W88284  35.131   2.222  13.840  0.2325  0.0981  0.1022
32044W        W88285  19.333  10.514   7.506  0.1484  0.3577 -0.2760
32045W        W88286  10.697  18.355   2.126  0.0521 -0.2142 -0.4431
32046W        W88287  24.378  28.017   4.682 -0.0094 -0.0528  0.1885
32047W        W88288   2.418  15.145  19.967  0.1577 -0.1356 -0.0695
32048W        W88289  30.741  22.782  22.784  0.2527  0.0913  0.4553
32049W        W88290   2.839   2.564  18.005  0.0110 -0.3059 -0.2492
32050W        W88291  20.884  16.741   5.692 -0.0710 -0.0947 -0.1030
32051W        W88292  22.670  24.244  15.184  0.3761  0.1279 -0.0576
32052W        W88293  32.518  10.592   1.544 -0.0355 -0.3634  0.0484
32053W        W88294   8.277  24.653  23.039  0.0343  0.0431 -0.1441
32054W        W88295  32.656  23.030  11.848 -0.1240 -0.0689 -0.0774
32055W        W88296  33.378   2.925   2.421 -0.3000 -0.0299  0.0066
32056W        W88297   0.063  19.540  13.522 -0.0201  0.0680 -0.0007
32057W        W88298  31.606   8.264  24.088 -0.0805 -0.3841 -0.2113
32058W        W88299  13.073   8.001  13.224  0.0479  0.1625 -0.1848
32059W        W88300  26.815  15.317  24.618 -0.2159  0.0750  0.0556
32060W        W88301   2.742  18.371   2.345 -0.0186 -0.0364  0.1171
32061W        W88302  10.587   4.938  25.059  0.2461 -0.4367 -0.0859
32062W        W88303   7.241  20.349  22.834 -0.0247 -0.1562 -0.1493
32063W        W88304  16.739  29.196  24.003  0.0723 -0.0737  0.0526
32064W        W88305   8.135  13.512   4.578  0.2766 -0.0641 -0.0382
32065W        W88306  11.299  32.681  11.147 -0.1969 -0.1011  0.2306
32066W        W88307   9.215  13.657   3.567  0.1185 -0.1243  0.1885
32067W        W88308   3.065  12.274  26.073 -0.2149 -0.1603 -0.3076
32068W        W88309  33.806  29.850  16.735 -0.1830  0.0824 -0.0641
32069W        W88310  24.354   0.420   7.167  0.2385  0.2127 -0.1339
32070W        W88311   9.048  19.921  24.151 -0.2205  0.0435 -0.0206
32071W        W88312   1.196   8.826  25.886  0.0803  0.1184 -0.2304
32072W        W88313   3.322  10.642   3.566  0.0271 -0.1685 -0.1675
32073W        W88314  10.520   4.430  25.167 -0.0896 -0.0242  0.2261
32074W        W88315  33.528  29.290  22.514 -0.0348  0.3076 -0.1601
32075W        W88316  34.442  17.457  10.859 -0.4974 -0.3744 -0.0698
32076W        W88317  19.043   4.023  23.755 -0.1225 -0.0256  0.0304
32077W        W88318   3.673  21.403  24.778 -0.0182  0.1053  0.3063
32078W        W88319   8.698   3.472   0.872 -0.3721 -0.2695 -0.1315
32079W        W88320   9.598  25.353   6.038 -0.3220  0.2335 -0.0762
32080W        W88321   8.536  30.913  21.525 -0.0048 -0.3759 -0.1928
32081W        W88322   6.806  28.951  14.934  0.0648 -0.0180  0.3337
32082W        W88323   3.857  25.068   8.279  0.0464  0.2344  0.3419
32083W        W88324  14.500  24.875   0.813  0.0081 -0.0600 -0.0265
32084W        W88325  20.367  23.571  20.083 -0.1578 -0.2466 -0.1950
32085W        W88326   5.479   4.088   5.354  0.1601 -0.0852  0.2801
32086W        W88327  35.168  18.592   9.299  0.1160 -0.2469 -0.2887
32087W        W88328  33.714  20.940  12.322  0.5005  0.2438  0.4374
32088W        W88329  34.790  23.631  15.164 -0.1717  0.4048 -0.2786
32089W        W88330  31.415  20.125  21.938 -0.2266  0.2606  0.0569
32090W        W88331  26.139   6.388  13.447 -0.0582  0.1235 -0.0867
32091W        W88332  33.227  24.053   0.514 -0.0892 -0.1454  0.0650
32092W        W88333   3.699   0.909  24.297 -0.0408  0.3035 -0.2564
32093W        W88334  12.727  14.208   7.128 -0.0885  0.1734  0.0319
32094W        W88335  13.880   2.946   5.160  0.1101  0.0632 -0.2196
32095W        W88336  10.247  33.913  15.800  0.0184  0.1301 -0.2361
32096W        W88337  33.620  31.696   0.001  0.1393  0.0189  0.0887
32097W        W88338   0.508  24.823   1.995  0.2423 -0.0800  0.2291
32098W        W88339  18.341  23.110   7.791 -0.1556 -0.2500 -0.0831
32099W        W88340  29.535  20.141  22.113 -0.1738  0.0673  0.0635
32100W        W88341  18.356   0.357  22.900 -0.0095  0.2132 -0.0695
32101W        W88342  30.121   1.151  23.010  0.0518 -0.1646  0.1143
32102W        W88343  24.106  18.077  18.134 -0.1529 -0.3255  0.1570
32103W        W88344   9.232  33.592  13.586 -0.3256 -0.0593 -0.2060
32104W        W88345  14.218  29.534   0.335 -0.0183  0.0045  0.0471
32105W        W88346   8.360   3.549  11.321 -0.0241 -0.2702 -0.2987
32106W        W88347  14.448   8.641  12.654  0.0399 -0.3276 -0.2044
32107W        W88348  17.694  10.788   4.702 -0.0490 -0.2415  0.0988
32108W        W88349  20.964   5.793   6.920 -0.3102 -0.1938  0.5613
32109W        W88350  12.631   5.485  22.966 -0.0997  0.1268  0.1645
32110W        W88351  10.019   3.039   3.106 -0.0038 -0.2983 -0.0832
32111W        W88352  15.157  21.741  25.483  0.1335  0.0764 -0.1365
32112W        W88353  14.592  19.274  22.504  0.0227  0.2777  0.0702
32113W        W88354  15.705  28.656   4.868 -0.0715  0.0850  0.1626
32114W        W88355  16.478  28.294  11.638 -0.1089 -0.1771  0.3627
32115W        W88356  19.495   9.113  11.086  0.1215 -0.1290 -0.0157
32116W        W88357  29.328  19.601  23.207  0.0518  0.2388  0.0544
32117W        W88358  33.491  11.318  23.171 -0.1696  0.2193  0.3002
32118W        W88359  17.407  20.757   6.485 -0.0773 -0.0915 -0.0139
32119W        W88360  11.968  33.349   6.530 -0.0229  0.1247  0.1577
32120W        W88361  30.600   9.075  15.195 -0.0620  0.2368  0.1952
32121W        W88362  13.465   6.212   9.672 -0.1231 -0.2533  0.1683
32122W        W88363   9.247  34.917   9.186  0.1151  0.3412 -0.0375
32123W        W88364  21.672  15.213  21.879  0.0293  0.1399 -0.1911
32124W        W88365  24.938   2.479  22.425 -0.1150 -0.0639  0.0408
32125W        W88366  22.642  22.514  20.092 -0.1480 -0.2296 -0.0976
32126W        W88367  14.923  35.103  21.993 -0.0662 -0.0252  0.0288
32127W        W88368   3.517   1.744  19.768  0.1229  0.1607 -0.2345
32128W        W88369   5.236  24.258   9.723 -0.0570  0.1942 -0.0649
32129W        W88370  25.689  23.616  12.753  0.2194  0.1091 -0.0873
32130W        W88371  11.498   9.650   4.127  0.0059 -0.1097 -0.3081
32131W        W88372  25.668  13.579  19.884  0.1201  0.0867 -0.1618
32132W        W88373  29.370   4.144  12.429  0.1198  0.1480  0.1377
32133W        W88374   3.990  26.693   2.614 -0.0022 -0.2197  0.2505
32134W        W88375   0.624   9.771  14.238  0.0659  0.1531  0.3657
32135W        W88376  17.166  30.736   6.014 -0.1920  0.0615 -0.1420
32136W        W88377  16.794  11.337  22.030 -0.1255 -0.5261  0.0329
32137W        W88378  26.745   4.614  14.556 -0.4150  0.3850  0.1616
32138W        W88379  29.119  33.421  25.877 -0.1704 -0.1969 -0.0215
32139W        W88380  22.574  34.518  22.363 -0.2258  0.1855 -0.4267
32140W        W88381   8.664   6.239   6.564  0.1856 -0.2308  0.0404
32141W        W88382  24.130  34.249  22.988  0.0546  0.0028 -0.4502
32142W        W88383  15.718  19.991  25.503 -0.2664 -0.3211 -0.0673
32143W        W88384   0.149   0.521   3.709 -0.1998 -0.0301  0.0441
32144W        W88385  14.192   9.827  13.479  0.0322 -0.1220 -0.1416
32145W        W88386  28.100  15.325   4.908 -0.2078  0.1640  0.2672
32146W        W88387  24.251  10.653  25.278 -0.1509  0.0701 -0.1598
32147W        W88388   0.340  19.528   0.822 -0.1757 -0.1479 -0.0009
32148W        W88389  17.298  17.732  22.229 -0.1428 -0.0528  0.0556
32149W        W88390  27.634  19.406  14.688 -0.0901 -0.0221  0.0386
32150W        W88391  15.868  18.325  10.727  0.2375  0.1194  0.1403
32151W        W88392   4.118   9.201   7.222  0.2998  0.0125 -0.0408
32152W        W88393  10.675  13.470  25.226  0.0370  0.2588 -0.1211
32153W        W88394  28.165  33.354  21.826 -0.0379  0.0031 -0.2204
32154W        W88395  28.770   4.878   2.226  0.0097  0.2908 -0.0632
32155W        W88396  32.648   6.039  10.747  0.0385  0.2846 -0.2122
32156W        W88397   4.354   7.334  19.683  0.3748  0.0880 -0.0994
32157W        W88398  12.053  16.213   9.268 -0.1363 -0.0533  0.0727
32158W        W88399   6.067  28.126   6.671 -0.3345 -0.0511  0.0212
32159W        W88400  12.352   0.857   9.017 -0.2076 -0.0109 -0.0210
32160W        W88401  22.108  17.098  22.891 -0.0491 -0.2001  0.3283
32161W        W88402  35.373  30.402  23.785 -0.0162  0.1613  0.0871
32162W        W88403   6.001  17.031  24.395 -0.1133 -0.1034 -0.1195
32163W        W88404  16.460  33.087   6.347 -0.1600  0.1042  0.2583
32164W        W88405  13.688  25.524   5.187  0.0408  0.2603  0.0087
32165W        W88406  21.462  18.317   1.743  0.1869  0.0037 -0.0286
32166W        W88407  16.985   2.039   1.098  0.0511  0.2445  0.4027
32167W        W88408  21.338   6.676   9.755  0.1151 -0.2063 -0.1527
32168W        W88409  11.788  22.153  10.420 -0.1438 -0.0026 -0.0179
32169W        W88410  26.159  16.884   7.917  0.1629  0.1183  0.0917
32170W        W88411  10.720   9.857   6.584  0.0901 -0.4476 -0.1675
32171W        W88412  31.781  21.830  22.237  0.2040  0.1764 -0.0443
32172W        W88413  18.408   4.800   3.262  0.1933 -0.2046 -0.3725
32173W        W88414  19.857   4.067  20.526 -0.1097 -0.1742 -0.0125
32174W        W88415  12.670   2.312  23.076 -0.1023  0.1309  0.0260
32175W        W88416  16.026  27.287   7.469 -0.3142 -0.6164  0.2820
32176W        W88417  14.266   8.001  12.662 -0.0019  0.1493  0.1513
32177W        W88418  25.391  11.818  10.001  0.3237 -0.0911  0.0347
32178W        W88419  30.621   1.081   4.724  0.1455 -0.1633  0.3963
32179W        W88420   8.030  20.339  14.014 -0.2547  0.1127 -0.2697
32180W        W88421  32.027  28.545  18.694 -0.3205 -0.1282  0.1070
32181W        W88422  30.124  30.106  26.100 -0.0699  0.2251 -0.0262
32182W        W88423  15.581  21.581   3.229 -0.0793  0.2704  0.3359
32183W        W88424  23.992  34.242   3.701 -0.1884 -0.0473  0.0306
32184W        W88425  18.333   5.397   9.219 -0.2001 -0.2339 -0.0180
32185W        W88426   9.483   5.849  14.027  0.1883 -0.3017  0.0887
32186W        W88427  34.985  20.385  12.883  0.1430 -0.1850 -0.3203
32187W        W88428   5.665  16.426  25.004  0.2259 -0.0340 -0.2363
32188W        W88429   4.265  16.033  24.030 -0.0444  0.3048 -0.0289
32189W        W88430  28.222   6.813   0.880  0.1382 -0.3217 -0.1692
32190W        W88431  30.867  26.658  21.917 -0.2257 -0.0292 -0.1141
32191W        W88432  28.294  17.750  15.567  0.4089  0.0507 -0.1181
32192W        W88433  19.218   3.504   1.518  0.0188 -0.0085 -0.0779
32193W        W88434  13.051   6.350  11.013 -0.3239  0.0897 -0.3850
32194W        W88435   4.210  35.335  23.779 -0.1519  0.0072 -0.1707
32195W        W88436   1.045  20.419  19.673  0.4097  0.0470 -0.0301
32196W        W88437  28.922  33.809  22.328 -0.2691  0.1242 -0.0458
32197W        W88438  23.515  14.406  14.721  0.2289  0.0700 -0.0745
32198W        W88439  14.685  23.575  22.078  0.1201  0.1539  0.0522
32199W        W88440  32.900  11.020  15.423 -0.0469  0.2392 -0.0247
32200W        W88441   5.794  19.679  23.582 -0.0080 -0.2391  0.1363
32201W        W88442  22.483   0.726  15.541 -0.0465  0.3184 -0.1501
32202W        W88443  21.382  28.002   6.968 -0.1571  0.0976  0.1759
32203W        W88444   8.089  18.933   7.066  0.2727 -0.0328  0.1505
32204W        W88445   5.967  19.895   6.989  0.0132  0.2361 -0.1381
32205W        W88446  18.346  15.089   9.172 -0.2911 -0.2567 -0.4833
32206W        W88447  30.683   5.106  12.430 -0.1711  0.0753 -0.0395
32207W        W88448  19.878  28.500  19.655 -0.1334 -0.2402  0.0007
32208W        W88449  22.738  25.041  22.165 -0.1702  0.1529 -0.1135
32209W        W88450  16.912  10.061  25.871 -0.0571  0.2465 -0.0673
32210W        W88451  12.136  28.847   5.595 -0.1716 -0.1167 -0.0357
32211W        W88452  28.980  10.584  18.227 -0.0968 -0.0130 -0.1707
32212W        W88453   5.201  31.413   1.342 -0.0327  0.2446  0.1658
32213W        W88454   2.961  33.452  19.974  0.0280  0.0282 -0.0016
32214W        W88455  11.358  13.121   9.340  0.2762  0.0624  0.1078
32215W        W88456  11.302  10.300  19.758 -0.2897  0.0272 -0.1322
32216W        W88457  33.425  19.394  23.313 -0.0598  0.0667 -0.0133
32217W        W88458  26.508  13.360  17.535 -0.2296  0.0542  0.1078
32218W        W88459  12.404  12.612   8.349  0.2609  0.1009  0.0561
32219W        W88460  21.877  31.374  23.046 -0.1019  0.0575  0.1342
32220W        W88461  16.387   9.166   2.796 -0.0347 -0.0592  0.0575
32221W        W88462  33.300   8.331   1.622 -0.3180  0.0860 -0.0317
32222W        W88463   2.715  16.713  20.502 -0.1552 -0.1999 -0.4546
32223W        W88464  32.630  26.223  22.887  0.1099 -0.0175 -0.3399
32224W        W88465   8.139  20.580   4.688  0.0539  0.0583  0.0116
32225W        W88466  29.160  30.078   0.954 -0.3584 -0.1630  0.0534
32226W        W88467  15.055  14.893  24.609 -0.1824 -0.3732 -0.0978
32227W        W88468  25.932  22.556  19.466  0.1015 -0.4146 -0.0610
32228W        W88469  34.704  25.853  18.722 -0.1546  0.0779 -0.1704
32229W        W88470   6.185   4.856   6.164  0.0704  0.1824 -0.0856
32230W        W88471  33.695  29.408  19.478  0.5076 -0.0551  0.0975
32231W        W88472   0.273  22.555  10.320 -0.1780  0.1668  0.1226
32232W        W88473  17.417   9.687  10.796  0.0608  0.2772  0.0365
32233W        W88474  21.174  15.858   1.577  0.0705 -0.0585  0.1037
32234W        W88475  18.077   1.356  24.499  0.0945 -0.2998 -0.0370
32235W        W88476  22.615  29.714  17.491 -0.0679 -0.3739  0.1289
32236W        W88477  24.966   2.175  24.851 -0.0252  0.2180 -0.0161
32237W        W88478  31.408  14.733   9.116  0.1956 -0.1297  0.0911
32238W        W88479   6.436  34.248   4.798  0.0219 -0.0580  0.2252
32239W        W88480   2.168   7.097  15.024  0.0307  0.0331 -0.1705
32240W        W88481   8.568  31.348  21.139 -0.1507  0.0905  0.1979
32241W        W88482  19.727  33.100  23.262  0.1408 -0.2423 -0.1800
32242W        W88483   6.567  17.455  22.161  0.3543  0.1157  0.1070
32243W        W88484  16.425  26.150   0.868 -0.0878 -0.0928 -0.0276
32244W        W88485   5.767  30.683   7.952  0.2370  0.0900  0.3474
32245W        W88486   0.786   1.386  22.551  0.1915 -0.1717 -0.1685
32246W        W88487  33.255  29.931   6.914 -0.1027  0.2486  0.3248
32247W        W88488  30.675  17.224  20.526 -0.4751  0.1627 -0.0433
32248W        W88489  16.590  16.969   7.037  0.1849 -0.1192  0.0335
32249W        W88490  10.926  18.152   6.943  0.1334  0.4161  0.0260
32250W        W88491   9.845  13.727  24.459  0.0062  0.4737 -0.0051
32251W        W88492  32.747   2.652  19.101  0.0521 -0.2779  0.0634
32252W        W88493   3.565   9.341  20.003 -0.0354  0.0157 -0.1145
32253W        W88494  17.079  10.508  26.088 -0.1837 -0.1276 -0.0734
32254W        W88495  35.144   0.206   2.040  0.0667 -0.0642  0.3460
32255W        W88496  32.390   3.806  13.647  0.1010  0.0263  0.1749
32256W        W88497  18.830  15.534   7.243  0.0032 -0.1912  0.2521
32257W        W88498   5.691   2.574  23.007  0.0634  0.2906  0.0809
32258W        W88499  10.949  10.056   7.448 -0.2395 -0.1420  0.1161
32259W        W88500  10.267  25.120  12.979  0.0010  0.3543 -0.3303
32260W        W88501  34.444   4.846  15.595  0.0655 -0.3414 -0.0445
32261W        W88502   9.756  12.422  22.615 -0.0340  0.0993 -0.0111
32262W        W88503  31.137   4.898  13.054  0.3167  0.1882 -0.0519
32263W        W88504  14.972   9.453  21.795 -0.0372 -0.2821 -0.0702
32264W        W88505  15.055   3.614  21.879 -0.4423 -0.1071  0.2630
32265W        W88506   3.507  23.144  22.242 -0.0084  0.1176  0.0028
32266W        W88507   5.612   6.560   2.524 -0.2311 -0.1863  0.2338
32267W        W88508   6.674   2.694   8.764  0.0976 -0.1873 -0.3191
32268W        W88509   1.726  16.199   1.925  0.0402  0.2694 -0.0577
32269W        W88510  32.505  21.758  17.407  0.1094 -0.1066  0.0413
32270W        W88511   6.522  13.522  20.450 -0.0863  0.1410 -0.1719
32271W        W88512   2.470  21.528  18.616 -0.2446  0.1063 -0.0519
32272W        W88513   0.167  32.584   3.470 -0.0449  0.2930 -0.0621
32273W        W88514  10.793  16.297   8.937 -0.2718 -0.1769 -0.2527
32274W        W88515   0.753   6.362   3.179  0.1222  0.0273  0.1185
32275W        W88516   4.920  22.104   4.074 -0.0284 -0.6089 -0.2389
32276W        W88517  28.642  23.228  23.842  0.1847  0.0757  0.0592
32277W        W88518   5.743  26.714   7.916  0.1994 -0.0691  0.1653
32278W        W88519  17.837  33.811  24.727  0.0862  0.0071 -0.1814
32279W        W88520  17.000   9.374   3.777 -0.2193 -0.1335 -0.0380
32280W        W88521  18.765  16.509   5.139  0.0025 -0.2107 -0.3097
32281W        W88522  33.383   0.178  22.874 -0.2054 -0.0820 -0.2414
32282W        W88523  25.760  28.283  20.478  0.3314 -0.0426  0.0438
32283W        W88524  15.981  10.367  19.387  0.1183 -0.0490  0.1152
32284W        W88525  27.368  16.087  25.848 -0.1521 -0.0531  0.0813
32285W        W88526   1.368   7.852  18.789 -0.1099  0.0732 -0.1426
32286W        W88527  33.339   2.997   5.605  0.2058  0.0745  0.0355
32287W        W88528  13.236  35.072  22.572  0.0344  0.0926  0.4238
32288W        W88529   8.120  14.536  18.443 -0.1083 -0.1841 -0.0119
32289W        W88530   9.331   9.360   6.261 -0.0395 -0.3417  0.2449
32290W        W88531  18.695  17.628   3.556 -0.6023  0.1715  0.0707
32291W        W88532  24.935  32.138  18.420 -0.1650  0.0659  0.0802
32292W        W88533   4.389  31.407   0.909  0.1105  0.0781 -0.0570
32293W        W88534  19.346  12.675  23.839  0.0505 -0.2074  0.2378
32294W        W88535  14.461  29.336   8.775  0.2218  0.0136 -0.2460
32295W        W88536   4.305  21.282  24.194 -0.1277  0.1178 -0.0790
32296W        W88537   1.244  21.052  14.348 -0.1390  0.3762  0.2547
32297W        W88538  23.626  12.951  18.221  0.0166 -0.1389 -0.0201
32298W        W88539  32.910  20.348   0.461 -0.1639  0.1021 -0.0238
32299W        W88540  16.492  13.661  23.236 -0.0333 -0.3128  0.0175
32300W        W88541  33.086  34.203  23.180 -0.1660 -0.0297  0.2621
32301W        W88542  33.557  33.223  16.397  0.0430 -0.1575 -0.1788
32302W        W88543  14.762  31.900  10.526 -0.0508 -0.0231  0.0120
32303W        W88544  15.284  32.621   9.337 -0.0620 -0.0209 -0.1097
32304W        W88545  34.094  15.032  12.641 -0.0725  0.2333 -0.0539
32305W        W88546  23.104  18.562  13.311  0.2936 -0.3306  0.1630
32306W        W88547  31.770  27.153  19.052 -0.0179 -0.0720 -0.1454
32307W        W88548  27.335   6.634  26.066  0.1071  0.1069  0.0698
32308W        W88549  22.278  34.617  26.155  0.1801 -0.1420 -0.1092
32309W        W88550  25.303  13.759  23.652  0.0070  0.1529 -0.2208
32310W        W88551   6.704  26.413  13.320  0.3019  0.0684  0.1582
32311W        W88552  13.753  29.390  24.578 -0.2613  0.1203 -0.1222
32312W        W88553   3.894   7.363  24.865  0.1145  0.0441  0.0420
32313W        W88554  24.353  25.500  25.200 -0.0346  0.2118 -0.3165
32314W        W88555  19.722  14.070  20.886  0.2735 -0.0423  0.0813
32315W        W88556   1.496  21.097  11.201  0.0999  0.1853  0.3661
32316W        W88557  21.235  28.767  23.804  0.1556 -0.1028  0.1489
32317W        W88558  24.841  34.002  25.495 -0.0846 -0.1006 -0.1399
32318W        W88559  14.099  31.871  11.216 -0.1625 -0.1413  0.0823
32319W        W88560  33.861  14.567  12.937  0.0198 -0.1093 -0.0257
32320W        W88561  31.474  12.013   9.261 -0.0526  0.0554 -0.3014
32321W        W88562  32.130  27.208  21.657 -0.0513  0.0083  0.0595
32322W        W88563  13.276  16.671  15.255  0.2593  0.1642 -0.0013
32323W        W88564  20.780   8.047  18.315 -0.1060 -0.1363  0.3221
32324W        W88565  12.427   7.131  23.608 -0.3166  0.2862  0.6644
32325W        W88566   2.865  17.922  19.680  0.0373  0.0671  0.0245
32326W        W88567  24.802   3.320  17.247 -0.1562 -0.3732  0.3010
32327W        W88568   8.547  33.128   0.197  0.0815 -0.0897 -0.0902
32328W        W88569  22.363  26.315  16.989 -0.2158 -0.0115  0.0032
32329W        W88570  16.795  14.563  21.260  0.1282 -0.0750  0.0842
32330W        W88571  28.586  23.364  20.030  0.0117  0.0142  0.1129
32331W        W88572  13.638  34.925  25.383 -0.2492 -0.0698  0.1555
32332W        W88573   1.817  22.345  17.515 -0.1544 -0.1920 -0.2790
32333W        W88574  30.043  28.876  25.657  0.2759 -0.3173  0.1461
32334W        W88575  14.661  26.699   9.624  0.2058  0.1786  0.1639
32335W        W88576   3.044   0.935   6.300  0.0405 -0.0297  0.0465
32336W        W88577  11.059  19.251   7.094  0.0160  0.2852 -0.1142
32337W        W88578  24.324  15.903  15.341 -0.1465  0.4744  0.1905
32338W        W88579  19.711  32.392  26.087  0.2959  0.1498 -0.1117
32339W        W88580  35.127   1.354  16.138 -0.2774  0.1239  0.1050
32340W        W88581   3.053  28.725   5.939 -0.1133 -0.1309  0.0238
32341W        W88582  15.787  25.038  13.941 -0.1696  0.0146  0.0693
32342W        W88583   9.947  12.656   9.564  0.0811 -0.1660  0.2551
32343W        W88584  11.950  15.268  12.882 -0.1713  0.0513  0.1261
32344W        W88585  34.415  24.732  12.256  0.0184 -0.0097  0.0949
32345W        W88586  17.243   7.860   9.201 -0.0645  0.1467  0.1722
32346W        W88587  33.551  31.660   5.431 -0.1436  0.1658  0.0527
32347W        W88588  26.288  10.965  23.791  0.0569  0.0756  0.1627
32348W        W88589  17.490  10.068   7.306 -0.0706  0.0258  0.0026
32349W        W88590   8.152  34.105  12.963 -0.0127  0.1074 -0.3512
32350W        W88591  30.922  11.204  14.102  0.1622 -0.0599 -0.3657
32351W        W88592  18.406  34.362   6.043  0.1559  0.2178 -0.2273
32352W        W88593   8.350   3.097   3.382  0.0094 -0.2060  0.0116
32353W        W88594  22.628  32.675  20.496 -0.1094 -0.2022  0.0272
32354W        W88595  22.746  16.719  24.463  0.1096 -0.1112 -0.3715
32355W        W88596  34.905   2.536  18.821  0.0679 -0.0388 -0.1239
32356W        W88597  34.130  21.108   1.074 -0.0132  0.0202 -0.3019
32357W        W88598  27.548  22.066  15.426  0.1833 -0.2996  0.0729
32358W        W88599   8.676  18.201  21.257 -0.1204 -0.1343 -0.0548
32359W        W88600  25.201   4.155   1.262 -0.0019  0.0756 -0.0129
32360W        W88601  32.410  16.701  20.829 -0.3903  0.0093  0.4110
32361W        W88602   2.537  14.892  12.706 -0.1209 -0.0246  0.1225
32362W        W88603  17.747   5.348  16.878 -0.0182 -0.1543 -0.0645
32363W        W88604  34.851  10.991  22.430 -0.3432 -0.2793  0.1567
32364W        W88605  24.913  28.061  22.758 -0.1392  0.1436 -0.0205
32365W        W88606  34.740   3.892  17.801 -0.3733 -0.2253  0.0934
32366W        W88607  29.336  21.001  22.308  0.1019 -0.3875 -0.0958
32367W        W88608   1.752   2.324   6.332 -0.2257  0.1361 -0.1986
32368W        W88609  30.024   7.532   9.904  0.0442 -0.3489 -0.3443
32369W        W88610   9.154  17.482   6.397  0.0692  0.0653  0.0413
32370W        W88611  20.161  13.591   3.758 -0.1239 -0.1116  0.2791
32371W        W88612  15.332  29.081  23.159 -0.0880 -0.2036 -0.0029
32372W        W88613  20.957  25.913  21.500  0.0251 -0.1854 -0.0486
32373W        W88614  11.562  20.047   4.175  0.4129  0.0512 -0.0499
32374W        W88615  22.711   5.819   5.714 -0.4973 -0.0645  0.3512
32375W        W88616  12.872  15.957  13.352 -0.4028  0.3360 -0.0476
32376W        W88617  23.151  26.917  25.672 -0.2290 -0.0859 -0.0342
32377W        W88618  32.573  20.945  24.917 -0.1662 -0.4290  0.0343
32378W        W88619  19.878  29.817  16.685  0.3746 -0.2287  0.4146
32379W        W88620   8.216   9.418  20.659  0.1458 -0.2254 -0.0181
32380W        W88621   2.730   5.077  24.122 -0.1183  0.0498  0.1722
32381W        W88622  35.150  20.365  13.892  0.1507 -0.3419  0.0600
32382W        W88623   1.729  20.940  22.483  0.0153 -0.1920 -0.0070
32383W        W88624   3.402  18.128  20.122 -0.3285 -0.2419 -0.1377
32384W        W88625  28.553  18.315   5.867  0.0731  0.1106 -0.1495
32385W        W88626  35.049   3.702  17.468  0.3858 -0.4049 -0.0419
32386W        W88627  13.067  12.337   4.606 -0.0876 -0.1294 -0.1681
32387W        W88628  23.794  26.374  10.057 -0.2613 -0.3178 -0.2101
32388W        W88629  35.198   6.789   3.249 -0.0605 -0.0240  0.0057
32389W        W88630  26.559  14.739  22.628  0.0502  0.2387 -0.1212
32390W        W88631  17.706   7.742   6.941  0.1801  0.1093 -0.0588
32391W        W88632   9.889  20.200  24.611 -0.1897 -0.1648  0.0489
32392W        W88633  13.874   6.230  18.812 -0.1424 -0.0040  0.0852
32393W        W88634  21.034  17.931  25.560 -0.0105  0.0011  0.1892
32394W        W88635  18.642   5.023   9.387 -0.0436  0.0484  0.1700
32395W        W88636  24.619   3.103   1.036  0.2197 -0.2931 -0.0775
32396W        W88637  19.521  25.417   8.324  0.0298 -0.0914  0.4432
32397W        W88638  14.708   9.227  24.905  0.0678 -0.3229 -0.0062
32398W        W88639   4.409  19.984  24.585  0.0292  0.0385  0.0409
32399W        W88640   6.284   9.417   8.350  0.1988 -0.2613  0.1812
32400W        W88641  15.673  25.202   2.299 -0.1070  0.0388 -0.0391
32401W        W88642  25.674  22.559  13.206  0.3745 -0.0678 -0.1369
32402W        W88643  16.280  29.722   2.065  0.0324  0.3294  0.0445
32403W        W88644  27.383   2.619   5.681 -0.0431 -0.1368  0.0157
32404W        W88645  17.081  22.649   0.527 -0.2171  0.0525  0.0355
32405W        W88646  29.171   4.330  23.226  0.2790 -0.0528  0.4182
32406W        W88647  20.340  22.910   1.932 -0.3546 -0.2767 -0.0171
32407W        W88648  15.162  11.794  12.466 -0.1664  0.0281  0.1352
32408W        W88649  14.755  14.069   6.510  0.3257  0.3064 -0.2724
32409W        W88650  10.352   2.834  24.325  0.0875 -0.1936 -0.2286
32410W        W88651  23.040  22.264   2.508  0.1737  0.1864 -0.1867
32411W        W88652  29.393  15.618  11.329  0.0141  0.0770 -0.0073
32412W        W88653  23.069   3.893   2.218 -0.0707  0.0965 -0.2110
32413W        W88654   1.284  31.997  21.173 -0.2860  0.2464  0.0859
32414W        W88655  14.353  13.333   2.542  0.2722 -0.1673 -0.4114
32415W        W88656  32.613   9.100   9.688 -0.0578 -0.2339  0.4354
32416W        W88657  30.271  30.815  21.829 -0.0088  0.0280  0.1169
32417W        W88658   7.305  33.787  22.404 -0.0285 -0.0240 -0.0227
32418W        W88659  33.160   3.975  13.858 -0.1771 -0.2023  0.1452
32419W        W88660  22.775  19.264  12.982  0.2574 -0.2857 -0.1263
32420W        W88661   0.925  23.194  11.251 -0.0357  0.0012 -0.3080
32421W        W88662  34.716  11.647  11.424  0.0115  0.0469 -0.1080
32422W        W88663  33.535   0.668  22.089 -0.1328 -0.0540 -0.3933
32423W        W88664   1.309   2.304   2.108  0.3261 -0.1652 -0.0660
32424W        W88665  19.041   3.315   7.883  0.2593  0.0790 -0.2309
32425W        W88666  28.324   5.881  11.126  0.0609  0.0195  0.1307
32426W        W88667   7.867  29.297  10.845 -0.2781 -0.0400  0.2344
32427W        W88668  25.808  32.764  24.243  0.0473 -0.0718 -0.0224
32428W        W88669  29.871  31.239  19.098  0.0080  0.0863 -0.0104
32429W        W88670  27.681  28.974  13.721 -0.0897  0.1428 -0.0413
32430W        W88671   2.564  23.224  19.929 -0.0979  0.3126  0.0999
32431W        W88672  34.922  15.582   0.690 -0.2087  0.0571  0.3544
32432W        W88673   6.098  15.538  26.007  0.1349  0.0307  0.3561
32433W        W88674  18.100  14.564   3.983 -0.0137 -0.2878  0.0385
32434W        W88675  15.046  29.872   2.846 -0.2685 -0.1747 -0.2800
32435W        W88676  21.501   0.680  19.715 -0.3932  0.1461 -0.0756
32436W        W88677  18.368  31.689   8.656 -0.1410  0.3393 -0.3210
32437W        W88678   2.181  18.015  23.724 -0.2837  0.2637  0.0414
32438W        W88679   0.201  30.058  20.274  0.2003  0.0570  0.3631
32439W        W88680   0.943  24.021   2.432  0.1062  0.0022 -0.1921
32440W        W88681   4.771   8.579  19.126  0.0826  0.0352 -0.0740
32441W        W88682  33.997   8.871  20.636 -0.2591  0.1468 -0.0936
32442W        W88683   4.577   9.014   8.091  0.1520 -0.0660  0.0236
32443W        W88684  14.624   3.902   0.211 -0.0193 -0.1362  0.0428
32444W        W88685   7.328  34.698   2.133  0.2532  0.0806  0.0287
32445W        W88686  26.982   4.453  16.421 -0.1999 -0.0528 -0.3210
32446W        W88687  26.728   1.223  22.271 -0.1410 -0.0566  0.2328
32447W        W88688  19.986  29.564   5.337  0.0249 -0.0573  0.2816
32448W        W88689  20.009  18.578   1.297  0.1109  0.0601  0.1504
32449W        W88690  20.178  11.607  22.185 -0.4085 -0.1621 -0.4341
32450W        W88691  25.322  20.325  13.388 -0.0689  0.1674  0.1745
32451W        W88692   2.795  33.828  24.760 -0.2808 -0.0719  0.2618
32452W        W88693  13.229  35.152   4.829 -0.2275  0.1334 -0.1341
32453W        W88694  11.274   5.875   3.862 -0.0101  0.1330  0.2371
32454W        W88695  14.836  11.337   6.867 -0.1431  0.1425  0.4901
32455W        W88696  33.747  35.248   2.423  0.0806  0.0726  0.1535
32456W        W88697   4.828  27.103   2.632  0.1039  0.0106  0.0105
32457W        W88698  28.455  15.939   0.025  0.0994 -0.0438  0.3706
32458W        W88699   4.280  14.778   3.492  0.0875  0.2369  0.1135
32459W        W88700  12.564   7.916   6.621  0.1213 -0.2561 -0.0301
32460W        W88701  30.036  20.762   6.555 -0.0682 -0.0119 -0.0619
32461W        W88702  28.022  12.093   0.570 -0.1445 -0.2774  0.4053
32462W        W88703   0.712  33.817  17.163  0.2822 -0.0875  0.0711
32463W        W88704  19.951  19.724   7.287 -0.0787  0.0249  0.1602
32464W        W88705  20.225   3.767   6.562  0.0649  0.1284  0.5821
32465W        W88706  30.959  33.111  23.127 -0.0298 -0.2182  0.1373
32466W        W88707   0.408   9.218  19.154  0.0979 -0.2566 -0.1349
32467W        W88708  33.612  24.966  16.621 -0.2511  0.2007 -0.1064
32468W        W88709  28.541  29.092  22.849 -0.1204 -0.0747  0.0472
32469W        W88710  32.627  26.463  12.547 -0.2470 -0.1709 -0.0488
32470W        W88711  13.279  11.818   2.326 -0.2474  0.1401  0.1671
32471W        W88712  14.786  18.732  13.743  0.3379 -0.1997  0.0243
32472W        W88713  34.566  23.976  19.151 -0.0299  0.0471 -0.0196
32473W        W88714  14.439  21.211  13.998  0.2292  0.2437  0.1540
32474W        W88715  12.541  33.185  23.365  0.2181  0.2001 -0.3092
32475W        W88716  14.806   0.346   6.180 -0.2505 -0.1215 -0.1158
32476W        W88717   2.130  19.710  11.305  0.1382  0.0156 -0.1000
32477W        W88718  35.250  16.448  21.846  0.1883 -0.1273 -0.3547
32478W        W88719  19.308  34.224   4.604 -0.0611  0.0061  0.0263
32479W        W88720  13.338  13.479   9.651  0.1262  0.2928 -0.0391
32480W        W88721   1.321   4.669   7.396 -0.0370 -0.0930 -0.1796
32481W        W88722  15.773  15.542   4.607  0.1272  0.0168  0.1269
32482W        W88723  10.568  33.758   1.526  0.0811 -0.0548 -0.0671
32483W        W88724   5.733  21.794  24.264  0.1950  0.1160  0.1089
32484W        W88725  12.300  26.208   0.646 -0.0216 -0.3137  0.2504
32485W        W88726   5.081   0.270   2.759 -0.2229 -0.0725 -0.0154
32486W        W88727  26.269  14.142   9.048  0.0687 -0.0936 -0.3689
32487W        W88728  18.045   4.657  12.029 -0.3512 -0.0771  0.2692
32488W        W88729   4.763   0.339   1.064  0.0146 -0.1146  0.2891
32489W        W88730   1.621   4.067   3.385  0.0730 -0.1045  0.2821
32490W        W88731  20.962  34.823   6.774 -0.0335 -0.4351 -0.0372
32491W        W88732   7.271  16.693   8.554 -0.1934  0.0408 -0.0871
32492W        W88733  30.473  10.117  23.881 -0.0571 -0.1901  0.2190
32493W        W88734  20.544  24.299   7.717 -0.0720  0.1348  0.0639
32494W        W88735  31.550  33.411  14.530 -0.1639  0.0396 -0.0389
32495W        W88736  26.487  13.388  19.797  0.0370 -0.1108 -0.0844
32496W        W88737  10.462  19.702   9.506  0.0433  0.0676  0.0761
32497W        W88738   1.475  12.972  18.197  0.1283 -0.0260  0.0987
32498W        W88739  10.429  18.415  21.628 -0.0082  0.0339  0.4179
32499W        W88740   2.510  18.744  23.635  0.0956 -0.1104  0.0829
32500W        W88741  21.822  21.733  21.655  0.4168  0.0721 -0.0000
32501W        W88742  11.497  21.957  16.823 -0.0424  0.2411  0.0311
32502W        W88743  33.338   2.022  24.473  0.4115 -0.2378 -0.4380
32503W        W88744   8.086  12.561   5.844 -0.0322 -0.2134 -0.0380
32504W        W88745   0.072   2.026  26.192  0.1598 -0.1228 -0.2923
32505W        W88746  19.181   1.991  17.815  0.5001  0.0492 -0.2350
32506W        W88747  12.947  18.477  12.704  0.1495  0.0398 -0.0468
32507W        W88748   0.061  32.507   7.279 -0.1617 -0.5511  0.0208
32508W        W88749  30.756  16.202  10.709  0.0537  0.0144  0.0484
32509W        W88750   1.969   6.884  19.694  0.2351  0.0180 -0.5658
32510W        W88751  29.586  34.957  15.543  0.0503  0.1923  0.0561
32511W        W88752  14.965   4.102  21.758 -0.1386  0.0847  0.0511
32512W        W88753  30.100   9.234  12.054  0.6048  0.1204 -0.1543
32513W        W88754   9.793  28.392  11.141 -0.0658  0.0584  0.0257
32514W        W88755  15.769  30.841   9.145 -0.2263 -0.0438  0.0264
32515W        W88756  16.393  31.865   3.857 -0.1152 -0.0536  0.2134
32516W        W88757   7.982   7.090   6.120  0.0341 -0.0832  0.0203
32517W        W88758  24.336  28.553  16.610  0.0624  0.0642  0.0855
32518W        W88759  27.173  24.042  15.862 -0.1491 -0.0005 -0.3426
32519W        W88760  15.479   0.149  26.237 -0.0743 -0.1640 -0.0187
32520W        W88761   3.564   0.102   9.422  0.1136  0.4116 -0.1289
32521W        W88762  12.558  22.432   8.391  0.1389  0.0256 -0.1159
32522W        W88763  25.451  21.400  21.316 -0.1129  0.1833  0.1984
32523W        W88764  12.701  22.115   4.908 -0.0476  0.2113  0.0621
32524W        W88765  13.967  25.176  14.807 -0.1794 -0.3463  0.1078
32525W        W88766  12.107  31.552  12.122  0.1070  0.1606  0.1350
32526W        W88767  31.203   5.955  15.241  0.1745 -0.2189 -0.1575
32527W        W88768  11.534  15.878  22.350 -0.0972 -0.1251  0.0220
32528W        W88769   5.975  24.912   6.247 -0.2869 -0.0768 -0.2286
32529W        W88770  16.775  34.449  24.475  0.1373  0.5115 -0.1635
32530W        W88771  20.139  34.751  24.116 -0.1747  0.0161 -0.0899
32531W        W88772   9.219   6.170  11.720  0.1839 -0.1577  0.0640
32532W        W88773  12.753  29.598   7.143  0.1853 -0.1838  0.0333
32533W        W88774  34.858  16.937  15.828 -0.4428 -0.2609  0.0026
32534W        W88775   5.779   9.675   8.152 -0.4239 -0.1152  0.2367
32535W        W88776  24.397  17.105   0.343 -0.0239 -0.3729 -0.1315
32536W        W88777   5.560   7.128  17.499 -0.0155 -0.1247  0.1028
32537W        W88778  32.276  19.623  18.198 -0.2631 -0.0242  0.0721
32538W        W88779   9.536  18.013  10.487 -0.0395 -0.1972  0.0597
32539W        W88780  22.154  31.899  22.411 -0.0671  0.0104 -0.2552
32540W        W88781  29.946  20.890  15.615  0.1209  0.1643  0.1368
32541W        W88782  11.423  19.426   2.534 -0.4306 -0.2099 -0.1447
32542W        W88783  28.129  15.776   5.008  0.0719  0.0797 -0.0743
32543W        W88784  33.251  16.338  12.012  0.0454 -0.1195  0.1825
32544W        W88785   8.124  34.438  23.588  0.0132  0.0884 -0.1504
32545W        W88786   3.826  27.949  20.897  0.1589  0.1866 -0.1092
32546W        W88787   4.691  31.163   7.949 -0.2160  0.1239  0.0438
32547W        W88788   4.882   1.124  21.938 -0.1822 -0.1065 -0.1220
32548W        W88789  34.712  19.532  20.531  0.0531 -0.1427  0.0908
32549W        W88790  18.673   5.995  21.387 -0.2605  0.1606 -0.0045
32550W        W88791  14.569  13.806   2.508  0.0736 -0.0778  0.3706
32551W        W88792   3.749  11.986  22.209 -0.2753  0.1762 -0.1322
32552W        W88793  20.750   2.801   8.296  0.1434 -0.2510  0.3099
32553W        W88794  32.161  29.112  16.529 -0.7672  0.0521 -0.1813
32554W        W88795  17.580  18.092  11.350 -0.1309 -0.2761  0.1509
32555W        W88796  16.129   3.593   9.699 -0.0657 -0.0057  0.3636
32556W        W88797  16.750   1.175   7.713 -0.3896 -0.2055 -0.0354
32557W        W88798  28.887   6.609  25.930 -0.1450 -0.2745 -0.2738
32558W        W88799  10.480  26.519   6.849 -0.2543  0.2409  0.0562
32559W        W88800  27.470  18.500   9.899 -0.4967  0.0384  0.1492
32560W        W88801  11.421   5.069  21.701  0.0504 -0.0595 -0.1169
32561W        W88802   6.921  32.830  11.068 -0.1941  0.0265  0.2817
32562W        W88803  14.149  32.664  21.312  0.1677  0.0024 -0.1975
32563W        W88804  22.381  24.332  14.522  0.0191 -0.1187  0.1285
32564W        W88805  30.499  16.880  17.878  0.2670 -0.0974 -0.0205
32565W        W88806  16.801  23.149   9.008  0.1061  0.1202  0.0243
32566W        W88807   8.106   8.929   2.251 -0.2017  0.3790 -0.1898
32567W        W88808  18.792  13.697  10.523 -0.0959 -0.0787  0.3390
32568W        W88809  27.188   7.494  19.097  0.0607  0.3103  0.1014
32569W        W88810   9.917  30.468  12.045  0.0336  0.1517 -0.4453
32570W        W88811  12.814   8.260   8.983 -0.1708 -0.0271  0.0608
32571W        W88812  32.701   9.558  23.020  0.0783 -0.1208 -0.2083
32572W        W88813   6.736   3.778  25.708 -0.0966 -0.3382  0.1555
32573W        W88814  34.049   2.066   1.843 -0.1479 -0.1720  0.0842
32574W        W88815   2.959  13.275  24.303 -0.0718  0.2247  0.0754
32575W        W88816  27.879  13.311   9.069  0.1655  0.1131 -0.0058
32576W        W88817  34.625   1.380  13.615  0.2096 -0.1528 -0.0691
32577W        W88818  30.677   3.733   1.905 -0.0349 -0.2159  0.2021
32578W        W88819  27.121  31.728   4.022  0.1777 -0.3568 -0.0726
32579W        W88820  31.242   1.328   3.845 -0.1918  0.0312  0.0720
32580W        W88821  24.715   5.571  15.095  0.1203 -0.0726  0.0507
32581W        W88822  16.136   1.170  18.792  0.2370 -0.0759  0.2757
32582W        W88823  17.781  22.694  22.504 -0.1605  0.1270 -0.0118
32583W        W88824   9.017  16.822   9.904  0.0665  0.1185  0.1241
32584W        W88825  28.344   1.196   4.060  0.2165  0.1140 -0.1592
32585W        W88826  27.665   6.108   9.963  0.3767  0.3561  0.1585
32586W        W88827  28.537   3.525  24.476 -0.2537 -0.3829 -0.0940
32587W        W88828  15.359   1.185  23.907  0.3917  0.3052  0.1130
32588W        W88829  29.438   0.710   0.245 -0.3066 -0.1658  0.1191
32589W        W88830  13.049  14.107   2.940  0.0017 -0.1018 -0.3221
32590W        W88831  29.333  24.152  24.022  0.0010  0.0656 -0.3261
32591W        W88832  34.442  11.024  21.374 -0.1145 -0.0817 -0.1025
32592W        W88833  30.888  22.452  10.726  0.0821  0.0547 -0.0772
32593W        W88834  26.824  24.773   8.301 -0.1639 -0.0707  0.0623
32594W        W88835  31.343  25.936  17.047 -0.2807  0.1578  0.0242
32595W        W88836  27.285   7.711   1.154 -0.1268 -0.2906 -0.1414
32596W        W88837  11.389   6.645   8.631 -0.1920  0.1207 -0.1340
32597W        W88838  29.481   7.346  10.925 -0.1679  0.1322  0.0602
32598W        W88839  25.321  19.682  15.279 -0.0008 -0.0554  0.1495
32599W        W88840  21.151  26.981  20.941  0.1885 -0.0974  0.0712
32600W        W88841  25.333  13.360  24.198  0.0815 -0.1199  0.1247
32601W        W88842  25.436   6.681  21.728 -0.2104  0.0600  0.0727
32602W        W88843  35.131   0.069  24.364 -0.0265  0.0153  0.1477
32603W        W88844  26.824  24.132  23.457 -0.0988  0.3658  0.0336
32604W        W88845  12.081  14.941  19.293 -0.1375  0.2419 -0.0249
32605W        W88846  33.401  35.319  18.127 -0.0525  0.0401 -0.0685
32606W        W88847  15.790  16.201  13.044  0.0203  0.3712  0.1388
32607W        W88848   1.367  28.318  17.465  0.0235  0.3415  0.2394
32608W        W88849  22.537  10.591  15.466  0.2325 -0.1597 -0.0912
32609W        W88850  29.510  33.378  11.279 -0.2516  0.1379  0.1365
32610W        W88851   8.357  27.988   6.347 -0.0350  0.1065 -0.0791
32611W        W88852  27.181  13.103   8.080 -0.0469  0.0076 -0.4832
32612W        W88853  25.849  14.392  18.296 -0.0857  0.2633  0.0340
32613W        W88854  32.404  11.989  16.317  0.0710 -0.2093  0.1305
32614W        W88855  10.194  28.889   6.933 -0.0682  0.1785  0.2042
32615W        W88856  22.865   7.913  24.278  0.0031 -0.1324 -0.0898
32616W        W88857  14.940  27.294  11.029  0.1059  0.0480 -0.2021
32617W        W88858  30.194   1.964  18.938  0.1019 -0.1983  0.1607
32618W        W88859   3.448  30.650  25.353 -0.0516  0.0401  0.0506
32619W        W88860  16.015  14.122   4.582  0.1527  0.2558 -0.0512
32620W        W88861  14.486  30.973  25.550 -0.0677 -0.0327  0.2296
32621W        W88862  17.967   3.280   2.575 -0.0585 -0.0516 -0.1445
32622W        W88863  34.365  11.743  17.888  0.3342 -0.1988 -0.1241
32623W        W88864  24.090   1.955  22.346 -0.3034 -0.0107 -0.1147
32624W        W88865  20.684  15.239   3.357  0.0505  0.0144  0.0488
32625W        W88866  31.231  34.161  15.562 -0.1412 -0.0817  0.0907
32626W        W88867   3.233   1.575   8.550 -0.0948 -0.1648  0.1050
32627W        W88868  24.035  15.308  25.675 -0.0627 -0.2110 -0.0917
32628W        W88869  27.919  21.459  10.486  0.0947 -0.0320 -0.0810
32629W        W88870  14.124  18.547   2.914 -0.0843 -0.1486  0.0573
32630W        W88871  26.673   3.543  21.905 -0.0287  0.2020  0.1213
32631W        W88872  26.395  12.148  18.279  0.0601  0.1406  0.4444
32632W        W88873  27.442  11.359  20.077 -0.1421 -0.0008 -0.0281
32633W        W88874  14.694  31.906  19.796 -0.2497 -0.0962 -0.3418
32634W        W88875  16.012  26.185   1.169  0.1315 -0.0444  0.1447
32635W        W88876   5.446  21.699  19.859  0.0242  0.2469  0.1265
32636W        W88877   1.857  28.464   7.479 -0.1737  0.0005  0.0024
32637W        W88878  16.257   6.100   7.040  0.1235  0.2883  0.0200
32638W        W88879  16.848  26.923   8.800  0.3146 -0.3790 -0.3691
32639W        W88880   5.709  20.524  20.502  0.0019  0.0111 -0.0321
32640W        W88881  30.740  24.774  12.495  0.2483  0.1404  0.1489
32641W        W88882  26.052  27.902  12.686  0.3182 -0.4938 -0.0667
32642W        W88883  20.325  21.704   1.998  0.1181 -0.0682  0.0668
32643W        W88884  20.860  35.026   0.613  0.1843 -0.2828 -0.1949
32644W        W88885  12.764  28.694  11.563 -0.1660 -0.0793  0.1073
32645W        W88886  17.251  16.801  25.144 -0.1428 -0.0562  0.1541
32646W        W88887  30.640  24.244  22.983  0.1414 -0.1610 -0.3912
32647W        W88888  12.219  23.546  22.628 -0.1173  0.1200  0.0520
32648W        W88889   1.765  30.046  19.039  0.0435  0.0566 -0.2577
32649W        W88890  11.261  17.578  14.883 -0.0429 -0.1390 -0.3263
32650W        W88891   0.607   7.677  22.033 -0.0747 -0.0865  0.3108
32651W        W88892   3.447  24.780  22.855 -0.0209 -0.1229 -0.0932
32652W        W88893   5.376  13.082  23.003 -0.1404  0.0119  0.1965
32653W        W88894  18.231  13.992   3.650  0.2284 -0.2203 -0.1782
32654W        W88895  27.377  18.596   8.369 -0.0113  0.1545  0.0115
32655W        W88896  19.116  13.217  24.037 -0.1003 -0.2244 -0.2501
32656W        W88897  15.953   2.123  17.238  0.1761  0.2296  0.1459
32657W        W88898  28.785  12.868  19.176  0.1685  0.2361 -0.1353
32658W        W88899   9.780  29.418   2.896 -0.2770 -0.0793 -0.2099
32659W        W88900  29.624  27.652  15.049  0.2110  0.1011  0.1916
32660W        W88901  30.050  13.082   7.163 -0.1029  0.4102  0.2244
32661W        W88902  26.008  10.312  21.602 -0.2220  0.0629  0.1653
32662W        W88903  17.445   8.309  23.411 -0.1458  0.3719 -0.0104
32663W        W88904  21.749  13.978  19.541 -0.0864 -0.3223 -0.1523
32664W        W88905  21.249   5.109  21.163  0.2140 -0.0014 -0.0043
32665W        W88906  15.595  12.697  19.425 -0.1509  0.3948 -0.3177
32666W        W88907   6.924   9.891  21.267 -0.0986  0.1174  0.1945
32667W        W88908  23.314   3.712  24.904 -0.2046  0.2351  0.1483
32668W        W88909  22.997  32.817  21.669 -0.1034 -0.0107  0.2568
32669W        W88910  14.414  15.632  11.346 -0.0717  0.1335 -0.1688
32670W        W88911   5.144  23.900   2.718  0.2945 -0.0725  0.1675
32671W        W88912  10.234  28.585   5.399  0.2122  0.4189 -0.4874
32672W        W88913   4.555  30.686  12.024 -0.1326  0.2417  0.2960
32673W        W88914   1.215  14.251  23.233 -0.0321  0.2219 -0.1373
32674W        W88915  33.969  12.708  11.260 -0.1823 -0.1066 -0.1472
32675W        W88916  20.654  29.814  17.862 -0.0642  0.2567  0.0364
32676W        W88917   0.675  12.046  11.328  0.3096  0.1424  0.0384
32677W        W88918   4.944   3.019   6.667 -0.4021  0.0319 -0.1899
32678W        W88919  10.590  22.693   9.674  0.1369  0.2771  0.0207
32679W        W88920  32.609  29.125  19.048  0.1314 -0.0306 -0.1679
32680W        W88921  13.091   2.567  12.394 -0.1927  0.0477 -0.1401
32681W        W88922   9.387  30.269  21.973  0.0559  0.0499 -0.1335
32682W        W88923   6.533  22.860  25.632 -0.0424  0.1572  0.2713
32683W        W88924   6.009  22.253   3.268  0.0449  0.1100  0.0111
32684W        W88925  25.266  29.616   1.713 -0.0995 -0.3777  0.0380
32685W        W88926  21.512  17.980  17.700 -0.0608 -0.0039  0.0850
32686W        W88927  19.853  16.268  17.860 -0.0176 -0.2240  0.2329
32687W        W88928  16.921   8.475  24.327  0.0881  0.0114  0.0731
32688W        W88929  28.035   2.746  17.282 -0.1304 -0.0017 -0.0318
32689W        W88930  12.919  22.058  15.245  0.1051 -0.1768  0.1417
32690W        W88931   9.354   7.785   5.130  0.1038  0.0596 -0.1650
32691W        W88932  18.362   1.292   6.277  0.1913  0.3035  0.1235
32692W        W88933  21.734   2.144  13.619  0.1317  0.1129 -0.1368
32693W        W88934  24.340   3.916   0.984 -0.2937 -0.1217 -0.0980
32694W        W88935  15.714  29.264   0.689  0.2233 -0.2230 -0.0138
32695W        W88936  20.594  25.179   1.176 -0.0534  0.1884  0.1497
32696W        W88937  18.811   4.965   5.514  0.0304  0.2195 -0.2625
32697W        W88938  19.837  34.227   0.756 -0.2004  0.1788 -0.3658
32698W        W88939   7.461   9.438  18.883 -0.1661  0.0845  0.1639
32699W        W88940  19.818   9.090  19.910  0.1320 -0.1621  0.2640
32700W        W88941  21.646  22.665  16.238 -0.1909  0.0376 -0.0277
32701W        W88942  15.360  30.064  12.721 -0.2344  0.0069  0.1126
32702W        W88943  16.769  35.007   5.928  0.2176 -0.4117 -0.1221
32703W        W88944  28.332  31.389  24.449 -0.0958  0.0460  0.0931
32704W        W88945  27.739  12.290  21.909  0.2343 -0.0834 -0.2416
32705W        W88946  26.459  27.579  13.186  0.5099 -0.1309  0.1344
32706W        W88947   7.612  33.890  12.899 -0.2508  0.2887 -0.0569
32707W        W88948  12.454   9.694   7.296  0.1083  0.0627 -0.1461
32708W        W88949   5.007  11.033  24.693  0.2365  0.2372 -0.1594
32709W        W88950   7.717  17.063   6.446 -0.0006 -0.1079  0.0040
32710W        W88951  30.262   1.474  19.705 -0.1598  0.0398 -0.0150
32711W        W88952  34.527  29.018   2.038 -0.0046 -0.3279 -0.1430
32712W        W88953  16.036  32.987  10.892  0.1952 -0.0878 -0.0585
32713W        W88954  31.607   6.513  17.955 -0.1631  0.0289  0.1261
32714W        W88955  11.942  17.663  25.832 -0.0822  0.2164  0.0711
32715W        W88956  10.328   6.442   6.114 -0.2046  0.0576 -0.1714
32716W        W88957  32.857   1.175  24.053  0.1444  0.2214 -0.2911
32717W        W88958  12.474  13.107  19.947 -0.0397  0.1966 -0.0493
32718W        W88959  15.074  34.555  11.590  0.0030 -0.0399 -0.2486
32719W        W88960  30.487  24.148  20.170 -0.1908  0.1538  0.2315
32720W        W88961   5.291  25.456   6.529 -0.1066  0.0135 -0.0527
32721W        W88962  17.561   7.494   3.469 -0.0888 -0.1836  0.2995
32722W        W88963  24.487  35.270  12.349  0.1139 -0.1318 -0.2190
32723W        W88964   3.091  32.671  18.950 -0.3280 -0.2331 -0.1059
32724W        W88965  30.666   7.384  24.659  0.3040  0.1208 -0.0505
32725W        W88966   1.792  26.762   4.443 -0.1151 -0.0702 -0.0575
32726W        W88967  11.620  35.300   6.087 -0.0425  0.2647 -0.1104
32727W        W88968   4.145  11.151  22.566  0.0211  0.1855  0.1827
32728W        W88969  20.115  30.615  26.205 -0.1041  0.1718  0.3346
32729W        W88970  20.122   6.927   4.176 -0.1581  0.2205 -0.0962
32730W        W88971  22.757  19.935  24.239  0.0606  0.3026  0.0769
32731W        W88972  20.993   2.397  15.293 -0.0379 -0.0729  0.2349
32732W        W88973  23.421  28.887   2.120 -0.1880 -0.1875 -0.0488
32733W        W88974  19.318  28.184  25.962  0.3558 -0.0803 -0.2288
32734W        W88975  22.787  22.508  15.266  0.0269  0.2422 -0.3649
32735W        W88976   4.597   8.546  16.280  0.4971 -0.1028 -0.1101
32736W        W88977  30.319   3.582  16.289  0.0223 -0.1231  0.0909
32737W        W88978  15.646   7.727  13.215 -0.1828 -0.2673  0.0405
32738W        W88979  27.777  34.743  22.977 -0.1452  0.1094  0.1557
32739W        W88980  18.222   4.434  17.804 -0.1584  0.0280 -0.1108
32740W        W88981  19.277  15.871   1.543 -0.0066 -0.0325 -0.2411
32741W        W88982   5.302  22.778   6.082 -0.0912 -0.1962 -0.1440
32742W        W88983  34.409   4.341  15.831 -0.0037  0.1080  0.0719
32743W        W88984  13.744  28.668   1.703 -0.1168  0.0513  0.3361
32744W        W88985  21.408  32.935  19.863 -0.1829 -0.0760 -0.1102
32745W        W88986  12.489  15.308  21.148  0.2104  0.0890 -0.1756
32746W        W88987  10.353  11.768  11.810 -0.0820  0.4337 -0.4927
32747W        W88988  32.263   4.261  20.419  0.0814  0.2664  0.0423
32748W        W88989  22.923   8.881  15.901 -0.0269 -0.1609  0.0515
32749W        W88990  13.567  19.314  15.806 -0.1099  0.2268  0.0185
32750W        W88991  26.999  34.277  17.959 -0.2048 -0.1924  0.1335
32751W        W88992   9.836   4.487   7.136  0.0175  0.0879  0.1156
32752W        W88993  23.768  32.305  18.347 -0.0447 -0.2446 -0.1554
32753W        W88994  21.679  20.822  18.489  0.2706  0.2475  0.2395
32754W        W88995  11.755  14.491  19.205 -0.3353  0.2241  0.4955
32755W        W88996   0.670   3.130  17.400  0.0836 -0.3271  0.0058
32756W        W88997  10.219  22.836   2.297 -0.0441  0.0314 -0.1360
32757W        W88998  16.160   4.914  23.609  0.2088 -0.0284 -0.0352
32758W        W88999   9.606  25.233   7.656 -0.0662  0.0188 -0.2043
32759W        W89000  23.483  13.721   0.001 -0.1765  0.1844  0.1322
32760W        W89001  24.688  23.034  26.109  0.0510  0.0664  0.1515
32761W        W89002  34.603  11.045  16.099 -0.1766  0.1080 -0.1572
32762W        W89003  24.694  14.226  12.937 -0.2937  0.2351 -0.4298
32763W        W89004  14.565   6.984   5.088  0.0929 -0.1067 -0.0283
32764W        W89005   2.098   9.025  25.177 -0.0179 -0.3685  0.0559
32765W        W89006  31.050   9.076  19.855 -0.0539 -0.0464  0.0995
32766W        W89007  24.453  35.052  23.454 -0.2839  0.0332  0.2895
32767W        W89008  20.529  20.311   4.477 -0.0644 -0.2419  0.0946
32768W        W89009  24.063  22.069   0.578 -0.0346  0.3400 -0.1067
32769W        W89010   7.249  33.401   7.500  0.1927 -0.0934 -0.1361
32770W        W89011   0.469  32.160   0.311  0.1342 -0.1919 -0.2619
32771W        W89012   6.352  19.944  20.555 -0.4065 -0.4010 -0.2122
32772W        W89013   1.315   9.698  12.396 -0.1453  0.3130 -0.2076
32773W        W89014  21.824   3.598   2.578 -0.1095 -0.0320  0.2327
32774W        W89015  34.063  10.689  23.665 -0.4792  0.0429 -0.2528
32775W        W89016  17.401  24.187   4.252  0.2527 -0.1059 -0.0164
32776W        W89017  33.347  29.962   1.230  0.3162 -0.2137  0.0319
32777W        W89018  26.437   4.930  15.249 -0.0007 -0.1444  0.1486
32778W        W89019  11.206  31.612   2.179 -0.0827  0.0772  0.1892
32779W        W89020  27.251  20.185  10.141 -0.1056 -0.0036  0.0383
32780W        W89021  34.309  21.671  22.979 -0.1148  0.1147 -0.0674
32781W        W89022  28.829  24.624   8.176  0.0168 -0.1068 -0.1347
32782W        W89023  31.318  13.861  10.004  0.0414  0.1170 -0.0953
32783W        W89024   8.068   5.107  19.424  0.0360 -0.1895 -0.2888
32784W        W89025  19.263  17.088  23.914  0.1747 -0.1131 -0.1434
32785W        W89026   9.288   1.190   3.127 -0.4312  0.0833 -0.3605
32786W        W89027  16.301  24.984  23.986  0.0805 -0.2726  0.0220
32787W        W89028  16.679  26.581   2.584 -0.1925  0.0715 -0.0242
32788W        W89029  14.505  32.470   1.335 -0.0989  0.0040  0.0187
32789W        W89030   0.115  28.567  21.048 -0.1026 -0.0974 -0.1906
32790W        W89031   9.918  26.428  13.534  0.0819  0.0049 -0.3361
32791W        W89032   5.412  15.132  18.506 -0.1669  0.0705 -0.2160
32792W        W89033   1.457   3.704   6.666 -0.1339 -0.1793 -0.1732
32793W        W89034  14.560  10.243   9.029  0.0194  0.1763  0.0854
32794W        W89035   0.437  25.066  21.243  0.1067  0.0233 -0.2174
32795W        W89036  28.454  17.516   7.488  0.2454 -0.2637 -0.3715
32796W        W89037  19.198  10.137   3.634  0.3985 -0.0389  0.2266
32797W        W89038   9.582  17.663   1.169  0.2859  0.1190  0.2532
32798W        W89039  28.463  27.791  23.515  0.0867 -0.0200 -0.0681
32799W        W89040   8.572   9.173  20.267  0.1653  0.1997  0.1499
32800W        W89041  27.360   3.929   4.104  0.0886 -0.2182  0.0085
32801W        W89042   6.037  33.061  22.295 -0.3143  0.1723 -0.3567
32802W        W89043   7.553  29.729   2.557 -0.1262 -0.0006 -0.2406
32803W        W89044   3.786  32.648   2.442 -0.0381 -0.0228 -0.3694
32804W        W89045  31.536  26.097  19.562  0.1874 -0.1700 -0.2581
32805W        W89046  14.516   1.187  10.493 -0.1133 -0.0497  0.2286
32806W        W89047  13.968  21.795   6.605 -0.2258  0.1259 -0.3629
32807W        W89048   4.834  11.776   6.366  0.6854 -0.1286  0.0400
32808W        W89049   5.654   4.595  20.402  0.2280  0.0974 -0.5154
32809W        W89050   7.985  18.590  20.792  0.0430 -0.0086  0.1553
32810W        W89051   7.848   4.265   1.778  0.0691 -0.2199 -0.2008
32811W        W89052  26.189  20.898  22.674  0.1196 -0.2533  0.1698
32812W        W89053  32.848   5.386   4.684  0.2982 -0.1075  0.1257
32813W        W89054  33.444  16.646  24.754  0.1670 -0.0737  0.0821
32814W        W89055  14.480  22.139  24.019  0.1026 -0.0900  0.0723
32815W        W89056  34.533   4.206   0.099 -0.4161 -0.2452 -0.0107
32816W        W89057  18.206  26.867   4.046  0.0530 -0.1149  0.0369
32817W        W89058   2.448   7.761  19.878  0.1255  0.0512  0.1326
32818W        W89059  11.091  34.482   4.666 -0.1241  0.1007 -0.1401
32819W        W89060  22.966  24.771  20.651  0.0046 -0.0267 -0.1023
32820W        W89061   1.894   1.419  22.056 -0.0535 -0.1159  0.0917
32821W        W89062   8.350  11.420   9.791 -0.0020 -0.0425  0.1034
32822W        W89063   5.523  21.799   3.615  0.1802 -0.2129 -0.0565
32823W        W89064   0.098   9.105  20.567  0.0425  0.0119  0.0300
32824W        W89065   2.562  20.710   3.439  0.1515  0.1710  0.4347
32825W        W89066  26.417  32.696   1.714  0.1697 -0.2279  0.1883
32826W        W89067   5.281  12.975   2.489  0.0564 -0.2466 -0.1657
32827W        W89068  34.041  24.680  16.166  0.2345  0.0664  0.0074
32828W        W89069   5.278   2.385  20.054  0.1130 -0.0455 -0.4239
32829W        W89070   9.004  29.585  13.778  0.2117  0.0826 -0.4125
32830W        W89071   8.850  30.976   8.570 -0.0851 -0.1326 -0.2776
32831W        W89072  20.919  21.182   6.427 -0.1687 -0.0149  0.0892
32832W        W89073  13.603  35.225   7.317  0.0416 -0.0412 -0.0006
32833W        W89074  12.217  29.202   7.937  0.2658 -0.0069 -0.3909
32834W        W89075  20.064   2.710   3.440 -0.0267 -0.2441  0.4787
32835W        W89076  32.761  15.172   9.192 -0.0726  0.3475  0.2485
32836W        W89077  34.501  11.427   8.939 -0.4129  0.1619  0.1321
32837W        W89078   1.452  12.977  17.241 -0.3209  0.0379  0.0118
32838W        W89079  29.627   1.380   4.395 -0.0466  0.0873 -0.3259
32839W        W89080  18.128  22.623   8.385  0.2603 -0.1636  0.3755
32840W        W89081  19.184   0.573  25.497  0.0592 -0.0148  0.0928
32841W        W89082   3.243  14.604  16.634  0.3110  0.2153  0.0317
32842W        W89083   0.223  29.140  26.212 -0.1056  0.1329 -0.1353
32843W        W89084  28.315  14.488  14.806 -0.4022  0.0754 -0.2913
32844W        W89085  13.620   0.871   1.150  0.0425  0.0606 -0.2119
32845W        W89086  27.239  35.136  22.029  0.2859 -0.1745  0.4117
32846W        W89087  21.688  23.039  24.117  0.1073  0.0302 -0.0075
32847W        W89088  30.727  14.882   0.187 -0.0848 -0.1552 -0.1591
32848W        W89089  31.790  14.368  17.411 -0.0023 -0.0628  0.0067
32849W        W89090  24.454  17.475  18.798  0.0553  0.0833 -0.0807
32850W        W89091  34.850   6.827  17.276  0.1261  0.1310  0.0981
32851W        W89092   5.302   3.487  21.050  0.0730 -0.3857 -0.0089
32852W        W89093  26.076  30.366  20.136 -0.4405 -0.1838 -0.2468
32853W        W89094   7.404  35.054  25.317 -0.2488 -0.0936 -0.2301
32854W        W89095  31.869   5.173  21.188  0.3247 -0.0284  0.2026
32855W        W89096  18.631  17.439   8.366 -0.1802  0.1630  0.0497
32856W        W89097  16.150  28.820  21.485  0.4267 -0.5269  0.2297
32857W        W89098  10.063   0.526  21.181  0.2646  0.1116 -0.0054
32858W        W89099   1.523  15.929  14.734  0.1306 -0.0355  0.0959
32859W        W89100  25.958  19.433  24.217 -0.1255 -0.0392 -0.3231
32860W        W89101   6.163  17.954   2.087 -0.2911  0.4189  0.2442
32861W        W89102  24.389  16.873  15.200  0.3311  0.0903 -0.0603
32862W        W89103   1.502  18.247  20.211 -0.2615 -0.0956  0.3457
32863W        W89104   7.397  25.378   3.204  0.5931 -0.0806  0.1243
32864W        W89105   3.837  13.991  17.428  0.0122 -0.1984 -0.1981
32865W        W89106  28.064  29.449  12.633 -0.0113  0.1944  0.3361
32866W        W89107  30.072   8.059   9.796  0.0101  0.2654 -0.1871
32867W        W89108  10.940   7.782   6.204 -0.1616 -0.1730 -0.3171
32868W        W89109  21.656   3.974  15.690 -0.0051  0.1170 -0.3007
32869W        W89110   1.979  28.900  22.627  0.2795 -0.0236 -0.1879
32870W        W89111  29.671  16.496  12.333  0.0255 -0.1516  0.0147
32871W        W89112  15.865  31.274   8.823  0.2062 -0.4165  0.2338
32872W        W89113  12.829  30.862  13.291 -0.0558 -0.1138  0.0866
32873W        W89114   5.502   2.065  25.323 -0.3065 -0.1628 -0.0771
32874W        W89115  25.919   5.263  20.037  0.1739  0.1878  0.3825
32875W        W89116  14.956   4.616  20.563  0.2104  0.1082  0.0669
32876W        W89117  23.394   0.481   7.155 -0.3440 -0.1982 -0.2142
32877W        W89118  22.030  27.644  20.689  0.2058  0.2274  0.1080
32878W        W89119  11.848   7.572   4.080 -0.0613  0.3292  0.1535
32879W        W89120   3.504  29.169   8.163  0.0462 -0.0297  0.0800
32880W        W89121  32.329  24.064   7.383  0.1748  0.0844  0.0483
32881W        W89122   6.522  19.459  19.240  0.0140  0.1167  0.0765
32882W        W89123  29.243   7.024  23.325 -0.0957  0.0583  0.0445
32883W        W89124  28.900   1.686  19.001 -0.3864  0.1043 -0.0155
32884W        W89125  34.046   8.621  23.420  0.0304 -0.0800 -0.0554
32885W        W89126   0.641  34.398  24.365  0.2187  0.1473 -0.1536
32886W        W89127  31.868   0.429   3.050 -0.1718 -0.1747 -0.1596
32887W        W89128  35.212   0.178  17.792 -0.2482  0.0924  0.2004
32888W        W89129  14.939  32.775   1.309 -0.2906  0.3542 -0.2630
32889W        W89130   8.940  26.047  13.543  0.0008  0.0666  0.1588
32890W        W89131   8.951   7.595   5.438 -0.0274 -0.1039  0.3714
32891W        W89132  15.471  35.159  25.805 -0.1275 -0.0840  0.6167
32892W        W89133  30.766   3.176  10.785  0.0476 -0.1002 -0.1598
32893W        W89134  12.317   5.629   1.153  0.1849 -0.1952  0.5728
32894W        W89135  32.066  31.013  25.393 -0.0590 -0.0248  0.0157
32895W        W89136  29.979   2.762  16.787 -0.1230 -0.0943 -0.1728
32896W        W89137  26.155   2.666  25.717 -0.2595  0.2158 -0.2911
32897W        W89138  27.184  10.046   1.369 -0.1754 -0.1913 -0.2047
32898W        W89139  18.921   4.423  19.341 -0.0191  0.0360  0.2538
32899W        W89140  21.664   8.576  21.461  0.1357 -0.6084  0.1790
32900W        W89141  19.766  26.918  17.052 -0.1280 -0.0324  0.1768
32901W        W89142  30.011  16.546  12.887  0.0387 -0.1685  0.0363
32902W        W89143  32.194   5.433   4.160 -0.0983 -0.1800  0.1464
32903W        W89144  22.672   2.320  12.810  0.2753  0.1598 -0.1314
32904W        W89145  29.053  13.590   5.164  0.0094  0.3989  0.2578
32905W        W89146  20.556  27.580   2.009  0.0575  0.0131 -0.2199
32906W        W89147  34.199  13.121   1.276  0.1574  0.0422 -0.2139
32907W        W89148  33.020   2.764  15.423  0.0148  0.1531 -0.2064
32908W        W89149  27.554  21.485  11.721 -0.3095 -0.3620  0.2544
32909W        W89150   1.930  26.529  19.183  0.2379  0.2054 -0.2206
32910W        W89151  14.218  21.181   2.416 -0.0248 -0.2999  0.1098
32911W        W89152   1.795  28.088   3.181 -0.3450 -0.1094  0.1109
32912W        W89153  32.958  23.730  22.599 -0.2618 -0.4494  0.0120
32913W        W89154   6.994  27.945   9.704 -0.1687 -0.1593 -0.1490
32914W        W89155  25.895   0.064  17.794  0.0786 -0.0827  0.1760
32915W        W89156   9.259  26.050  12.592 -0.0915  0.0242 -0.2180
32916W        W89157  15.551  22.881   0.872 -0.1734  0.3588 -0.0535
32917W        W89158  23.328  31.411  23.614  0.0779 -0.1471 -0.0497
32918W        W89159  16.397  13.257  11.019  0.4073  0.3055  0.1535
32919W        W89160  17.212  12.315  11.894  0.2339 -0.3068 -0.0760
32920W        W89161  19.584  19.175  23.806  0.1916  0.0002 -0.0101
32921W        W89162  34.485   1.191  21.983 -0.0984  0.2718  0.2624
32922W        W89163  18.128  32.404  17.339 -0.0247  0.0256  0.3303
32923W        W89164   9.251  10.741  19.367 -0.1314 -0.1649  0.0266
32924W        W89165  29.323   6.206  14.893  0.0510 -0.0627 -0.2639
32925W        W89166  20.424  30.474  20.055  0.1864 -0.1543 -0.1422
32926W        W89167  12.428  30.939  21.903 -0.1659 -0.3258 -0.0848
32927W        W89168  14.846  35.000  25.197  0.0240  0.3746 -0.1834
32928W        W89169  13.992   4.486  10.140  0.1657  0.1874 -0.0184
32929W        W89170   1.641  22.644  16.548  0.2603 -0.1174  0.1984
32930W        W89171  20.530  10.625   8.453  0.0036 -0.1152 -0.0765
32931W        W89172  12.878   4.938  13.099 -0.3441  0.0001  0.0453
32932W        W89173  35.068  27.590  20.622  0.2690 -0.3093 -0.2647
32933W        W89174  19.031  18.641   2.596 -0.0079  0.0169 -0.0349
32934W        W89175   4.768  23.553   2.498  0.0056 -0.0858  0.1540
32935W        W89176  13.964  18.244  13.399  0.1752  0.3896  0.3581
32936W        W89177   6.335  19.086  23.884 -0.0039  0.1993  0.0743
32937W        W89178  30.458   6.041  12.947  0.0777 -0.1939 -0.1012
32938W        W89179  30.666  22.852  14.761 -0.0419  0.1932  0.3432
32939W        W89180  23.433  13.502  20.672 -0.3162  0.0141  0.0471
32940W        W89181   4.171  14.612  15.465  0.2852 -0.2094  0.0338
32941W        W89182  18.730   4.402   3.620  0.1624 -0.0648 -0.2128
32942W        W89183  13.803  13.678  21.569 -0.2036  0.2749 -0.1924
32943W        W89184  34.084   1.648   7.299 -0.1570 -0.1934  0.0697
32944W        W89185  33.942  34.348  14.530  0.0003 -0.1407  0.0792
32945W        W89186  10.441  24.961   1.763  0.2251  0.5071  0.2114
32946W        W89187   9.654   1.534  21.159 -0.2801  0.0807 -0.0151
32947W        W89188   2.177   8.638   4.077  0.3556 -0.0706 -0.0605
32948W        W89189  22.859   8.292  21.680 -0.3279 -0.0955 -0.0472
32949W        W89190   1.580  12.400   3.012  0.1002 -0.0888 -0.0088
32950W        W89191   8.480  13.128   3.310 -0.0418  0.3511 -0.2752
32951W        W89192  18.739  31.129  20.808  0.0137  0.0977 -0.1118
32952W        W89193  14.858  11.764   6.715 -0.2117 -0.2015 -0.2249
32953W        W89194   9.086   8.885   9.064  0.0149  0.1116  0.1079
32954W        W89195  29.832  13.327   6.663 -0.0230 -0.0831 -0.0047
32955W        W89196   5.627  27.132  14.653 -0.2121  0.5871 -0.4506
32956W        W89197  15.174   2.375  21.687 -0.1531 -0.2965  0.0659
32957W        W89198  19.999  30.467  24.726 -0.0211 -0.1658  0.0090
32958W        W89199  33.741  14.287  25.768  0.5514  0.2578  0.0854
32959W        W89200  29.915  20.178  10.651  0.3056  0.3073  0.0054
32960W        W89201   7.855   8.279   2.871  0.0084  0.1511 -0.2835
32961W        W89202  18.879   7.490   3.875 -0.2227 -0.1740 -0.1059
32962W        W89203  17.031   9.275  11.471 -0.0143  0.1180 -0.0420
32963W        W89204   2.682   4.474   3.511 -0.0601  0.1917 -0.0128
32964W        W89205  31.870   9.071  14.685 -0.1778  0.0281 -0.0535
32965W        W89206   9.217  18.406   3.600 -0.0542 -0.1767 -0.2009
32966W        W89207  19.146  15.008  11.723  0.0520 -0.0472 -0.2623
32967W        W89208  15.555   4.573   1.480 -0.0139  0.0726 -0.0599
32968W        W89209  21.748   3.395   0.749 -0.0118  0.0493 -0.1160
32969W        W89210  30.223   5.332  18.026 -0.0560 -0.1880  0.1835
32970W        W89211   8.975  23.206  25.550 -0.2116 -0.3428 -0.2278
32971W        W89212  24.120  26.778  17.425  0.0714  0.1563  0.1834
32972W        W89213  15.632  31.957   6.139 -0.3939  0.1535  0.1736
32973W        W89214  28.052  26.850  20.390  0.2507  0.1138  0.0384
32974W        W89215  17.976  22.535   4.961 -0.2414  0.0406 -0.1566
32975W        W89216  14.113   7.830  19.323  0.0399  0.0188 -0.0371
32976W        W89217  10.261  17.372  13.395  0.5131 -0.0197  0.2345
32977W        W89218   8.332   6.896   0.280  0.1573  0.2727 -0.1414
32978W        W89219  30.313  14.066  13.471  0.2157 -0.1293 -0.0918
32979W        W89220   6.086  31.278  11.861 -0.0164  0.1196 -0.3705
32980W        W89221   8.105  19.610  10.986 -0.2150 -0.2287  0.0806
32981W        W89222  20.053   2.444  20.803 -0.1388  0.2083 -0.1775
32982W        W89223  33.120  21.901   8.960  0.1742 -0.2849  0.1387
32983W        W89224  35.031  15.074  14.731  0.0288 -0.2422  0.0025
32984W        W89225  29.677  26.840   2.457 -0.1963  0.2219 -0.2343
32985W        W89226   5.674  13.375   2.638  0.2655 -0.3681  0.0719
32986W        W89227   3.966   1.528   6.131 -0.0610 -0.2054  0.0386
32987W        W89228  23.029  22.525  13.881  0.0743  0.1648 -0.0162
32988W        W89229  32.229  29.244  24.292  0.0712  0.1315 -0.0702
32989W        W89230  11.904  20.030  22.109 -0.1008  0.1222  0.3021
32990W        W89231   6.257  29.964   1.429 -0.2729 -0.0586  0.0386
32991W        W89232   5.553   7.316  22.752  0.1899 -0.3182  0.0632
32992W        W89233  15.387   4.720  21.540 -0.0918  0.1351 -0.0640
32993W        W89234  31.117  31.651   0.571  0.1988 -0.0747 -0.0300
32994W        W89235  12.007   9.057  25.247  0.1698  0.0068  0.3704
32995W        W89236  10.595  22.413   6.393 -0.1682 -0.2712 -0.0378
32996W        W89237  24.338   1.392   6.825 -0.2495  0.0208 -0.0667
32997W        W89238  16.747   2.821  18.154  0.1173 -0.0358  0.0506
32998W        W89239   5.056  22.024   6.925  0.1566 -0.0231 -0.1431
32999W        W89240  27.406   4.174  24.130  0.1662 -0.0154  0.2919
33000W        W89241   4.515  26.106  22.143  0.2460 -0.1738 -0.1989
33001W        W89242  14.601  26.776  14.190  0.3583 -0.0863  0.2054
33002W        W89243  19.699  34.820  22.148  0.3723  0.4477  0.1485
33003W        W89244   3.360  32.492   4.682  0.2240  0.0856  0.1156
33004W        W89245  23.238  35.377  13.350 -0.2599 -0.2534 -0.1100
33005W        W89246  35.134   2.055  21.189 -0.0749  0.0519  0.2400
33006W        W89247  20.462  16.556  19.859  0.0839  0.0734  0.0945
33007W        W89248  13.475  12.141  10.957  0.4130  0.1676  0.1363
33008W        W89249   3.914   8.867  18.190 -0.0631 -0.2470 -0.1218
33009W        W89250  10.928  14.747  11.510  0.2141  0.2935  0.0794
33010W        W89251  19.491   0.231   8.928 -0.3033  0.1758  0.0333
33011W        W89252  34.809  11.735   0.009 -0.2481 -0.3386 -0.0893
33012W        W89253  31.805   8.425  24.978  0.1603  0.1310  0.1987
33013W        W89254  18.836   3.550  18.815 -0.1620 -0.1155  0.2292
33014W        W89255  26.522  26.788  23.518  0.0991 -0.0404  0.1484
33015W        W89256  27.245  35.013  23.990 -0.1532 -0.0343  0.1051
33016W        W89257  28.379   8.641  16.800 -0.1750  0.1760 -0.0583
33017W        W89258   0.707  25.796  22.946 -0.1991 -0.0597  0.1538
33018W        W89259  26.881   6.864  11.401 -0.1598  0.0290 -0.0392
33019W        W89260  24.880  13.294  18.386 -0.0980  0.0283  0.0227
33020W        W89261   2.419  26.915   4.476  0.0981  0.0361 -0.0399
33021W        W89262  29.570   3.743  19.735 -0.3275 -0.2179  0.0188
33022W        W89263   6.803  22.594  23.075  0.0336  0.2734 -0.0003
33023W        W89264   4.467  31.538  13.086 -0.0956 -0.0649 -0.1083
33024W        W89265  13.982   3.709   2.750  0.1591 -0.1270 -0.0141
33025W        W89266   6.146   7.885   8.522 -0.1421 -0.0936  0.0609
33026W        W89267   0.049  20.524  12.019 -0.0618 -0.2436 -0.0176
33027W        W89268   7.915  21.002   0.916  0.1392 -0.0203 -0.0381
33028W        W89269   6.494   0.911  20.157  0.0241  0.2959 -0.2323
33029W        W89270  13.639  28.441  12.163 -0.0988  0.0059 -0.0781
33030W        W89271   4.890  21.545  19.806  0.5818  0.3009  0.0974
33031W        W89272  28.115  15.725   4.479 -0.0586  0.4195 -0.1590
33032W        W89273  35.147  28.608  23.697  0.0829  0.0615 -0.0910
33033W        W89274  23.881  28.714  16.583 -0.2325  0.1866  0.1235
33034W        W89275  30.657   5.009  22.086  0.1881 -0.2784  0.0753
33035W        W89276  20.884  12.047   5.401  0.0916  0.2169 -0.2454
33036W        W89277   9.337  17.221  10.237 -0.2271 -0.1610 -0.1238
33037W        W89278  33.157  20.944  21.223  0.3088 -0.2078 -0.1665
33038W        W89279  26.356  25.896   9.040  0.3259  0.0936  0.1991
33039W        W89280   6.867   0.754  24.766  0.0164  0.2455  0.1450
33040W        W89281  16.651  19.348   1.209 -0.4470 -0.0556 -0.1597
33041W        W89282  16.789   4.910  12.170 -0.1366  0.0370  0.0027
33042W        W89283  10.980  28.809  23.617 -0.1137 -0.1401 -0.3404
33043W        W89284  21.006  11.391  15.555  0.0091 -0.0607 -0.1278
33044W        W89285  25.443  19.834  17.637  0.3325  0.0712 -0.0527
33045W        W89286  29.986  22.133   7.863  0.1172 -0.0091 -0.1667
33046W        W89287  31.910   9.141  16.467  0.1029  0.1006 -0.3296
33047W        W89288  28.166   6.127  17.136 -0.0876  0.3026 -0.0777
33048W        W89289  20.354  22.191   7.805  0.1988  0.1796 -0.1899
33049W        W89290   1.668  19.855  24.293 -0.0828  0.0755  0.1580
33050W        W89291  15.551  23.963  10.419  0.3964  0.5686 -0.2411
33051W        W89292  19.366  34.755   4.904  0.2734  0.2440  0.1243
33052W        W89293   4.519  32.071   4.358  0.0304 -0.0988  0.0165
33053W        W89294  10.400  29.038  21.409  0.1973  0.0818 -0.2726
33054W        W89295  26.526  30.494  15.183  0.1362 -0.0696  0.0426
33055W        W89296  10.387  12.782   9.866 -0.0592  0.0015  0.1811
33056W        W89297  24.497   6.911  22.796 -0.1497  0.1354  0.1263
33057W        W89298  23.380   7.009  18.738 -0.2008  0.2195 -0.2998
33058W        W89299  18.441  18.033  24.734  0.1345  0.1990 -0.0135
33059W        W89300  28.785  20.035   6.422 -0.2003 -0.2936  0.0244
33060W        W89301  11.962   5.911  19.381  0.1247  0.4656 -0.4436
33061W        W89302   3.868  33.467  20.925 -0.2164 -0.2812 -0.0280
33062W        W89303  18.842  20.461  22.115 -0.3182  0.2454 -0.2869
33063W        W89304  25.267  35.031   3.648  0.1140  0.0416  0.3436
33064W        W89305  22.271   7.274  17.958 -0.3066 -0.1635 -0.0048
33065W        W89306   4.679  17.931  21.586 -0.2940 -0.1480 -0.2368
33066W        W89307   2.901  27.637   0.084 -0.0753  0.0785 -0.0994
33067W        W89308  10.286  19.057  26.226 -0.0991 -0.0794 -0.0527
33068W        W89309  29.618   4.536  16.455 -0.2315 -0.0431 -0.0107
33069W        W89310  16.465  33.889  25.983  0.0887 -0.0580 -0.0590
33070W        W89311  12.936  32.374  22.810  0.1766  0.2604 -0.1098
33071W        W89312  11.726  28.587   8.325  0.0303 -0.2948 -0.0169
33072W        W89313  29.931   9.784  25.625 -0.0661 -0.1902  0.0840
33073W        W89314   0.755  10.842  19.595 -0.0348 -0.0336 -0.1517
33074W        W89315  32.682   5.243  14.274  0.4967 -0.2059 -0.3752
33075W        W89316   1.456  33.617  18.266 -0.0506 -0.1298  0.0554
33076W        W89317  16.958   2.029   5.537 -0.4361 -0.1518  0.1514
33077W        W89318  10.279  19.362   6.584 -0.0134 -0.0183 -0.2531
33078W        W89319  34.097  21.413   0.649  0.0622  0.2789  0.0439
33079W        W89320  30.988   5.975   0.481  0.0521 -0.1683 -0.0026
33080W        W89321   6.541  29.442   4.768 -0.1397  0.0396  0.0838
33081W        W89322   9.032  14.382  12.625 -0.2722  0.2538 -0.0616
33082W        W89323   5.765  32.340  10.710  0.0929 -0.0894 -0.1668
33083W        W89324  29.895  27.245   2.478  0.1581 -0.2273  0.0408
33084W        W89325  30.720  32.465  17.627 -0.0284  0.2303  0.1590
33085W        W89326  25.807  22.566  13.890 -0.1138 -0.0549  0.0342
33086W        W89327  29.413   4.971   3.199  0.1011  0.1642  0.1096
33087W        W89328   6.348  32.579  25.780 -0.4846 -0.1613  0.0746
33088W        W89329  28.113   2.246   1.594 -0.0018  0.0376  0.0405
33089W        W89330  22.644  26.685  24.964 -0.0739  0.2318 -0.1110
33090W        W89331  27.224  24.998  19.897 -0.0927  0.0760  0.0365
33091W        W89332   2.743  26.348   4.160  0.0685  0.1462  0.3484
33092W        W89333  10.285  29.093  16.279  0.1631  0.0499  0.1613
33093W        W89334   7.270  31.972   9.913 -0.1347  0.6474  0.0562
33094W        W89335  10.864  32.920   2.342 -0.2342  0.1728  0.0135
33095W        W89336  11.481  27.673  24.966  0.0309  0.0138 -0.0702
33096W        W89337  10.950  15.534  21.980 -0.0526  0.0702  0.1195
33097W        W89338  22.322  20.532  16.277  0.0385  0.0155 -0.0183
33098W        W89339  28.683  15.529  15.418 -0.0082 -0.1706 -0.0247
33099W        W89340   8.438   9.302   3.109  0.0928 -0.1854 -0.0307
33100W        W89341  11.556  18.227   1.082  0.0020 -0.1209  0.1323
33101W        W89342   2.516   1.187  24.039  0.2636 -0.0137  0.0216
33102W        W89343  28.338  24.496  14.341  0.0636 -0.0846  0.2097
33103W        W89344   5.056  14.975  21.953 -0.1666 -0.0076 -0.0520
33104W        W89345   3.682  32.414  21.029  0.1233  0.0619 -0.1856
33105W        W89346  16.406  25.398   9.237  0.1252 -0.2057  0.1145
33106W        W89347  11.056   6.954  12.198  0.0331  0.1900 -0.1865
33107W        W89348  11.558  17.974  11.781  0.3084  0.1618  0.0959
33108W        W89349  22.144   3.594   4.499 -0.2779  0.0915  0.0164
33109W        W89350  20.758  10.866   8.052 -0.2435 -0.0386 -0.0217
33110W        W89351  11.676   5.720   9.677  0.1879  0.0787  0.1481
33111W        W89352  26.337  34.155   0.700  0.1644 -0.0996 -0.0474
33112W        W89353   4.731   9.441   1.816  0.1430  0.4375 -0.1566
33113W        W89354  13.278   9.579   6.716 -0.0278 -0.0425  0.1788
33114W        W89355   6.663  27.225   3.838  0.0362  0.0467 -0.0705
33115W        W89356  13.885  28.649   9.039 -0.0034  0.0514 -0.0004
33116W        W89357  17.628   1.728   6.390  0.1818 -0.3237  0.1200
33117W        W89358  19.609  32.484  24.848 -0.0549 -0.2983 -0.1797
33118W        W89359  20.426   2.866   4.581  0.0383  0.0087 -0.3596
33119W        W89360  25.520  10.380  11.154 -0.3142 -0.1543  0.0989
33120W        W89361  26.174  17.616  24.626  0.2075  0.0649  0.0370
33121W        W89362  17.224   0.162  17.450  0.0563  0.2145 -0.2214
33122W        W89363  26.440   3.790  19.150  0.0066 -0.1503 -0.4707
33123W        W89364   8.351  24.622   4.232  0.1301  0.0872 -0.1351
33124W        W89365  11.815  32.496  22.665 -0.0177  0.0001 -0.1975
33125W        W89366   2.937  32.583  26.004  0.0253  0.0296  0.1277
33126W        W89367   3.037  31.523   0.980 -0.0029 -0.3534  0.0649
33127W        W89368  31.843  22.272  22.437  0.2077 -0.0923 -0.1594
33128W        W89369  19.438   3.904  24.158 -0.2069  0.0641 -0.0380
33129W        W89370   4.801  17.448  18.007 -0.2485 -0.0912  0.0530
33130W        W89371  32.405  26.948  20.516  0.2735  0.1843 -0.2145
33131W        W89372  30.239  19.468  14.146 -0.0971 -0.2943 -0.1183
33132W        W89373  23.137  26.319  16.305  0.0268 -0.1170 -0.0615
33133W        W89374  26.287  12.436  10.130 -0.1120 -0.2753  0.1026
33134W        W89375  29.217   9.794   7.761  0.0011  0.0057  0.0989
33135W        W89376   9.207   7.367  23.417 -0.1214  0.2692 -0.3283
33136W        W89377  26.170  32.384  21.392  0.3071  0.0663 -0.2448
33137W        W89378  22.393   8.550  25.264 -0.1730 -0.3108  0.4173
33138W        W89379  32.141  19.193  23.011  0.4148  0.0180  0.0942
33139W        W89380   3.808  20.937  25.047 -0.0659  0.1519 -0.1227
33140W        W89381  11.138  16.834   2.847  0.3362  0.0869 -0.1830
33141W        W89382   1.449   7.454  19.985  0.0151  0.3999  0.1761
33142W        W89383  24.107  24.194  25.148 -0.0944 -0.0554  0.0343
33143W        W89384  34.683  26.251  21.855 -0.1397 -0.0356  0.0678
33144W        W89385  25.261   8.217   1.280 -0.0028 -0.2070 -0.2318
33145W        W89386  25.114  35.289  20.727 -0.2042  0.0214 -0.1386
33146W        W89387  24.678   5.892  19.140  0.0295  0.2604 -0.0984
33147W        W89388  16.772  22.451   2.378 -0.0503  0.0952 -0.1163
33148W        W89389  29.630  28.568  17.182 -0.0058 -0.0834 -0.1180
33149W        W89390  30.534   1.253  21.948 -0.2315 -0.1294  0.0152
33150W        W89391   7.275  13.204  17.330  0.0222  0.0929 -0.3283
33151W        W89392   9.714  12.598   8.157 -0.0026 -0.2253 -0.2955
33152W        W89393  12.213  16.585   8.024  0.4579 -0.0720  0.1779
33153W        W89394  18.196  19.969  21.008  0.3241 -0.0757 -0.1067
33154W        W89395   2.400  17.903  22.549  0.1870 -0.2175  0.0043
33155W        W89396  28.157   6.557  19.015  0.1444  0.0403  0.2050
33156W        W89397  16.903  21.115   8.965 -0.5326  0.3037  0.1513
33157W        W89398   3.328  13.840  17.404  0.3534 -0.1511  0.0856
33158W        W89399  23.545   6.434   4.009  0.3594 -0.2752  0.0802
33159W        W89400   9.693  26.974   3.574 -0.0258 -0.1059 -0.2255
33160W        W89401  14.966  29.125   0.153 -0.3629 -0.3594  0.0064
33161W        W89402  15.474  11.742   4.585  0.0966 -0.2167 -0.2539
33162W        W89403  26.474  32.575  11.214 -0.0796 -0.1405 -0.0296
33163W        W89404   5.308   1.019   6.572  0.2264  0.0540  0.4155
33164W        W89405  33.260   6.661  25.025 -0.0870 -0.2026 -0.2798
33165W        W89406  31.809  34.867  15.060  0.2411  0.0175 -0.1556
33166W        W89407  26.579  10.563  12.074  0.0002  0.2282  0.0305
33167W        W89408  18.159  23.862   8.431  0.0307 -0.1367 -0.1381
33168W        W89409  33.018  13.679  17.991  0.2227 -0.0994 -0.0446
33169W        W89410  19.564  30.589  19.297  0.1991 -0.2362 -0.0941
33170W        W89411   4.906  33.130   1.714  0.1318 -0.2189 -0.0140
33171W        W89412  17.867   2.432  18.970  0.1592 -0.0652  0.2143
33172W        W89413  17.362   1.234   7.077 -0.2638 -0.2263  0.1407
33173W        W89414  15.805  21.007   6.201  0.0671 -0.0654 -0.1100
33174W        W89415   2.426   3.607  14.917 -0.0973  0.0341 -0.0140
33175W        W89416  12.045  17.096   5.313 -0.1383  0.0238  0.3049
33176W        W89417  21.431   4.488  15.560  0.2479 -0.0469 -0.0894
33177W        W89418   0.408  19.064  16.676  0.0939  0.1446  0.3688
33178W        W89419  16.765   1.751  17.174 -0.0231  0.1921  0.2114
33179W        W89420  12.246  26.142   0.122 -0.1337  0.4931 -0.2717
33180W        W89421  16.788  24.152  24.000 -0.0216  0.1962 -0.0228
33181W        W89422  26.729  19.321  22.601  0.0864  0.1276 -0.0277
33182W        W89423  14.333   1.013  23.053 -0.1816 -0.0255  0.0062
33183W        W89424  19.785  16.185   6.037 -0.3825 -0.1547 -0.2711
33184W        W89425  11.192   3.562  12.803 -0.0086  0.0452  0.1419
33185W        W89426  25.080  16.628  17.861 -0.0347 -0.0094 -0.1643
33186W        W89427  13.948  28.941  25.308 -0.2044  0.2052 -0.2156
33187W        W89428   8.152  13.518   1.071 -0.1744  0.2006 -0.0288
33188W        W89429  17.393   8.147  24.406 -0.0919  0.1659  0.0853
33189W        W89430  33.425  13.009  13.798 -0.1955 -0.1510  0.1709
33190W        W89431   5.014   3.088   7.933 -0.0407  0.1899 -0.2431
33191W        W89432   2.604   2.148  19.843 -0.1907 -0.0651  0.1826
33192W        W89433  35.080   2.960   5.055  0.0714  0.0067  0.0910
33193W        W89434   9.190   1.877  13.802  0.0286 -0.1268  0.0490
33194W        W89435   4.468  16.848   6.763 -0.0895 -0.0033  0.3210
33195W        W89436   2.087  14.766  23.352  0.1265 -0.0773  0.0624
33196W        W89437  12.386  21.328   6.706 -0.0972 -0.0717 -0.0006
33197W        W89438  32.068   7.605  10.595  0.2345  0.1347  0.0494
33198W        W89439   8.812  16.646  11.707 -0.0749 -0.2409  0.1524
33199W        W89440   7.947  35.362   0.349  0.1144  0.0236 -0.2549
33200W        W89441  20.016  33.288  15.833 -0.3109  0.0851  0.0908
33201W        W89442  24.563  16.911  11.554  0.0870  0.1494  0.2646
33202W        W89443  31.584  30.456  15.099  0.0154  0.0587  0.1823
33203W        W89444  20.005  20.984  24.292  0.2125  0.1569 -0.3104
33204W        W89445   7.178  30.206   8.477 -0.0783  0.4367 -0.2011
33205W        W89446   3.391  21.681   2.896  0.2297  0.2083  0.0631
33206W        W89447  24.807  34.207  17.125 -0.0452  0.1528  0.2044
33207W        W89448  16.849  33.265  21.825 -0.1582 -0.0160 -0.1294
33208W        W89449  18.858  18.149  24.363  0.4627 -0.1526  0.1811
33209W        W89450   1.478  34.124  20.052  0.0315  0.0619  0.4913
33210W        W89451  21.386  21.282  15.912 -0.0568  0.0598 -0.0849
33211W        W89452  31.832   2.811   4.859  0.0756  0.1386 -0.0575
33212W        W89453   9.044  32.721  14.091 -0.2837 -0.2338 -0.0787
33213W        W89454  22.591  14.953  15.871 -0.0003  0.0165  0.2578
33214W        W89455  31.616  19.273  18.426  0.2239  0.0076  0.0430
33215W        W89456  19.061   3.151  18.507  0.2432 -0.1088  0.2041
33216W        W89457  14.809  29.247  14.415 -0.3681 -0.1006  0.0343
33217W        W89458   0.564  29.368  24.893  0.3489  0.0776  0.1930
33218W        W89459   8.721  31.814  16.424 -0.1208  0.2656  0.0153
33219W        W89460  27.491  24.484  26.201  0.3428 -0.2264  0.2028
33220W        W89461  28.419   0.765  14.740  0.0648  0.1378 -0.1903
33221W        W89462  25.499  14.658   8.357 -0.0857 -0.0505 -0.4191
33222W        W89463   0.461  30.399  25.744 -0.0022 -0.0250  0.4789
33223W        W89464  29.242   2.990  25.735 -0.1751  0.0832  0.2083
33224W        W89465  29.693   2.786  11.040  0.1800 -0.2368  0.0975
33225W        W89466   4.209   9.949  21.064  0.3875  0.0667 -0.0485
33226W        W89467   0.916   1.980  16.325 -0.2593 -0.0303  0.3159
33227W        W89468  23.199   0.466  21.002  0.5011 -0.0432 -0.0061
33228W        W89469  33.284  13.521  24.985  0.0801 -0.3234 -0.0636
33229W        W89470   1.876  34.889  19.473 -0.0566  0.1512 -0.1581
33230W        W89471  18.651  10.821  25.016 -0.0001 -0.2376 -0.0440
33231W        W89472  30.593  19.978  17.203  0.3028 -0.0180  0.0056
33232W        W89473  20.208  10.738  22.909 -0.2613  0.2172  0.0156
33233W        W89474  34.988  16.198   7.838 -0.0209 -0.3399 -0.2691
33234W        W89475  10.869  30.182  22.590  0.0290  0.1789 -0.3127
33235W        W89476   1.573  13.392   1.557  0.0711  0.0349  0.0403
33236W        W89477   1.333   8.220  14.403  0.0448 -0.0946  0.1536
33237W        W89478   6.355  34.524  24.325  0.2213 -0.0262  0.0919
33238W        W89479   5.855  18.007  20.010 -0.0933 -0.1185  0.0881
33239W        W89480   1.170  13.557  21.635  0.2912 -0.2706  0.2231
33240W        W89481  23.196  23.503   1.633 -0.3952 -0.2099 -0.2245
33241W        W89482   7.047  35.252   6.589 -0.1687 -0.2983  0.0317
33242W        W89483  30.885  10.554  20.021  0.3972  0.3032 -0.3701
33243W        W89484   0.409  33.481  18.701 -0.0634  0.0945 -0.0034
33244W        W89485   7.314  32.048  22.404 -0.0383  0.0179  0.1136
33245W        W89486  13.148  21.622   0.924  0.1200  0.1309  0.2840
33246W        W89487  28.120  23.461  16.710 -0.2604  0.2445  0.0325
33247W        W89488  11.254  21.079  25.948  0.0873  0.0510  0.1004
33248W        W89489  23.659  15.745   1.246 -0.0678 -0.0620  0.1029
33249W        W89490  25.040   8.973   2.854  0.2628 -0.1860 -0.2312
33250W        W89491  17.939  28.734  24.680 -0.1311 -0.1182  0.1231
33251W        W89492  29.625  12.911  11.804  0.2055  0.3831  0.0247
33252W        W89493  23.874   4.393  24.656 -0.0261  0.1404 -0.0543
33253W        W89494   4.830   2.145  11.373  0.4542  0.3591  0.1631
33254W        W89495   9.354  12.633   4.804  0.3817  0.2043 -0.4266
33255W        W89496  19.284  23.010  20.740  0.2081 -0.2933  0.2014
33256W        W89497   3.430  28.651  12.322 -0.3434 -0.1737  0.2283
33257W        W89498  19.710   9.416  21.914  0.1824  0.2197 -0.1958
33258W        W89499   9.815   8.695  21.645  0.0901  0.2866 -0.0593
33259W        W89500   6.516  20.855  25.568 -0.1094 -0.2084 -0.1774
33260W        W89501  24.609   1.248   5.413  0.0573 -0.4499 -0.2808
33261W        W89502  31.805   9.137  13.886 -0.2391  0.0657 -0.1724
33262W        W89503  15.874  14.227  13.133 -0.1758 -0.1951 -0.2632
33263W        W89504  12.649  29.556  21.984 -0.3217  0.2396  0.0761
33264W        W89505  22.845  32.092   3.102  0.0701  0.1957  0.0578
33265W        W89506   7.881  25.020  24.092  0.1239  0.1341  0.1452
33266W        W89507  27.690  13.939  24.738  0.1010  0.1598  0.2702
33267W        W89508  19.470  12.943   4.421  0.1617 -0.1964  0.3642
33268W        W89509  23.305  28.462   3.454 -0.2281 -0.0061  0.3396
33269W        W89510   6.224  11.774  21.303  0.3669 -0.3031 -0.1741
33270W        W89511   1.061   0.337   3.707 -0.1773  0.0742  0.0284
33271W        W89512  34.009  14.913  20.681  0.1379  0.0328 -0.0322
33272W        W89513  15.852   7.662   5.076  0.1593  0.1788  0.1858
33273W        W89514  16.765  33.944  18.833  0.0244 -0.0300 -0.2623
33274W        W89515   6.304   3.042  24.224 -0.1518 -0.3191  0.3066
33275W        W89516  23.512  31.194  13.765  0.0243 -0.0552  0.0889
33276W        W89517  19.333  25.398   0.115  0.2360  0.1561  0.1709
33277W        W89518  10.040  32.416   8.311 -0.0307  0.3110  0.0761
33278W        W89519  19.112   4.890  19.367  0.2239  0.1864 -0.0579
33279W        W89520   3.660   5.200  21.056 -0.0628 -0.1424 -0.1504
33280W        W89521  32.746  19.945  22.635  0.0207 -0.2084  0.0560
33281W        W89522  17.712  34.408   5.391  0.0223 -0.0386 -0.1825
33282W        W89523   7.078   2.786   2.947 -0.1407 -0.0185  0.1749
33283W        W89524  20.949   6.937  24.193  0.3783 -0.2416  0.0268
33284W        W89525   1.873   4.408  19.750 -0.0186  0.0895  0.2890
33285W        W89526  16.804  11.795  22.964 -0.2148  0.0229 -0.0440
33286W        W89527  26.011   4.565  12.646 -0.2094  0.2531  0.2128
33287W        W89528  30.169  16.370  21.958 -0.3596  0.3949  0.0313
33288W        W89529  12.302  24.959   7.248 -0.3074  0.0910  0.2138
33289W        W89530  16.867  31.531  24.716 -0.1373 -0.0604 -0.0431
33290W        W89531  24.135   6.219   3.956 -0.3281  0.0383  0.0060
33291W        W89532   5.524   2.718  21.396  0.5324 -0.1714 -0.1247
33292W        W89533   2.484  21.517   3.893  0.2321  0.2268  0.1517
33293W        W89534  30.169  17.957   5.290 -0.0385 -0.0623  0.0117
33294W        W89535  31.496  29.898   0.021 -0.1039 -0.0477  0.1053
33295W        W89536  14.609   6.751  18.826 -0.0735  0.0681 -0.0897
33296W        W89537  12.565  23.540   3.944  0.1140 -0.3080 -0.2446
33297W        W89538  22.452  25.228   0.796  0.3414  0.2090  0.3577
33298W        W89539  17.446   1.181  21.237 -0.0062 -0.4221  0.1110
33299W        W89540  29.231  30.278  12.061 -0.0930 -0.1920 -0.0579
33300W        W89541  30.120  24.437   0.387 -0.1357 -0.0497 -0.0633
33301W        W89542   0.466  19.593  13.828  0.3060 -0.0190 -0.2308
33302W        W89543   9.200  18.534  20.537 -0.2314 -0.1330 -0.0225
33303W        W89544  33.263  33.963  25.766  0.0869  0.3648 -0.3078
33304W        W89545   7.289  18.229   2.723 -0.0254 -0.1881 -0.0185
33305W        W89546  12.073  25.930  15.761 -0.0786  0.0979  0.1334
33306W        W89547   9.065  16.056  12.510  0.2218 -0.0968 -0.2762
33307W        W89548   9.151   0.921  26.039  0.1208  0.0422  0.0363
33308W        W89549  33.237  34.727  15.012  0.0164  0.1148  0.1581
33309W        W89550   8.928  29.717  16.320 -0.2350  0.2702 -0.0470
33310W        W89551  22.110   1.857  23.681  0.1577  0.2631  0.0072
33311W        W89552  24.093   1.901  13.241  0.3187 -0.5566 -0.2477
33312W        W89553  23.785  34.562  17.909  0.2105 -0.0352 -0.0134
33313W        W89554   9.916   9.300  24.859  0.0066  0.0443 -0.0326
33314W        W89555   8.949  34.363  25.056 -0.0562 -0.1328 -0.2873
33315W        W89556  27.000  31.350  23.399  0.0482 -0.3561 -0.3820
33316W        W89557  11.833  21.152  13.295 -0.0347 -0.1879  0.1132
33317W        W89558   7.207  30.121  10.140 -0.2940 -0.3234 -0.2653
33318W        W89559  19.766   6.540   5.588  0.2925 -0.4171  0.1679
33319W        W89560  26.846  11.520  25.341 -0.3299 -0.4258  0.1065
33320W        W89561  13.115  16.204   9.519 -0.3096 -0.0743  0.0231
33321W        W89562   8.516  18.433  26.002 -0.1002 -0.0779  0.0333
33322W        W89563  17.076   5.092   5.102 -0.2222 -0.1436 -0.3291
33323W        W89564  10.067   4.947  10.508  0.2181  0.0937  0.2815
33324W        W89565  11.228  34.029  22.355  0.0101  0.2878 -0.1094
33325W        W89566  34.202  17.162   9.160 -0.0955  0.2472  0.2511
33326W        W89567  26.531   2.671  16.983 -0.1444 -0.0100  0.0452
33327W        W89568  14.845  17.905   5.901  0.4228  0.0442 -0.0914
33328W        W89569   5.205  29.510   0.544 -0.0892 -0.2625  0.2128
33329W        W89570   1.197   7.558  23.826 -0.1778 -0.2490  0.0364
33330W        W89571  13.275   4.144   8.501 -0.0203 -0.0787  0.3358
33331W        W89572  22.085  35.363   2.980  0.2598 -0.0654  0.3187
33332W        W89573  18.125  32.372   1.341 -0.3538 -0.4650  0.1559
33333W        W89574   7.812  13.073   8.473  0.2012  0.1720 -0.0425
33334W        W89575  19.807   6.530   3.231  0.1185  0.2741 -0.1791
33335W        W89576   7.346   1.393  25.811 -0.0492  0.1277 -0.0227
33336W        W89577   6.836  13.063   5.174  0.2194  0.0701 -0.1192
33337W        W89578   0.144  30.252  16.245 -0.0853  0.0197  0.2430
33338W        W89579  31.610   6.468  19.827  0.4873  0.2013  0.0971
33339W        W89580  19.781   5.899  20.850  0.0929  0.1786  0.1328
33340W        W89581  17.913  30.046   8.688 -0.1470 -0.0458 -0.1529
33341W        W89582  32.302  30.888   3.414 -0.3410 -0.1555  0.1407
33342W        W89583  11.152  14.992  22.770 -0.1988 -0.2308 -0.1564
33343W        W89584  19.472  10.169   2.686  0.5247  0.1291  0.0225
33344W        W89585   5.022  12.300  25.038  0.0249  0.0674 -0.2392
33345W        W89586   7.893   8.627   7.250  0.1815 -0.3228 -0.2211
33346W        W89587  13.388  20.792  16.304 -0.1182  0.0859  0.2844
33347W        W89588  34.537  31.264   1.556 -0.0299  0.0541  0.2775
33348W        W89589  23.543  25.200  22.809 -0.0892 -0.3333  0.0110
33349W        W89590  16.734   5.163  18.776  0.2886  0.0864  0.1654
33350W        W89591  22.703  35.349   3.178  0.1194  0.0375  0.1392
33351W        W89592  18.773   3.664  23.440 -0.2647  0.1120 -0.0791
33352W        W89593  33.678  35.179  15.143 -0.3173  0.0497 -0.2678
33353W        W89594  12.145  24.035  14.485  0.1020 -0.2431  0.2041
33354W        W89595   5.735  22.619  19.795  0.0371 -0.0113 -0.1559
33355W        W89596  17.687  20.689  24.553 -0.2291 -0.5040  0.0358
33356W        W89597   5.182  32.124  11.258 -0.2021  0.0572 -0.1644
33357W        W89598   1.247   3.380   1.729 -0.2630  0.4655 -0.0145
33358W        W89599  31.938  30.483   2.819 -0.1167  0.1028  0.0681
33359W        W89600  16.652  19.173   6.889 -0.0260 -0.0506 -0.1162
33360W        W89601  30.856  29.999   0.889  0.1376  0.2789  0.1541
33361W        W89602   3.442  34.857  23.668 -0.0437  0.0344 -0.1706
33362W        W89603  27.661  27.770  25.724  0.0576  0.0110 -0.1188
33363W        W89604  33.961  16.615  15.842  0.0433  0.0315  0.0451
33364W        W89605  24.791  20.879   0.287  0.1639 -0.1208  0.1294
33365W        W89606  11.531   0.109  12.943 -0.0966  0.1100 -0.1049
33366W        W89607   3.664  26.023   0.470 -0.1059 -0.0885  0.0945
33367W        W89608   0.386  16.098  20.841 -0.3741  0.1069  0.0792
33368W        W89609  32.531  10.029   1.000  0.1790  0.0955  0.2010
33369W        W89610  30.494   6.561  16.793 -0.2092  0.2010 -0.1640
33370W        W89611  21.040  29.272   5.856 -0.0781  0.1316  0.0601
33371W        W89612   5.815  23.253   7.324 -0.2767  0.0262  0.1564
33372W        W89613   9.266  10.462  22.503 -0.1717  0.2295  0.0408
33373W        W89614  32.656   7.381  25.218  0.1585  0.1518 -0.0187
33374W        W89615  25.729   1.122  12.062 -0.0868 -0.2617 -0.0537
33375W        W89616  28.767  15.913  13.207  0.3549  0.0835  0.2964
33376W        W89617  20.762  12.969   3.698  0.0151 -0.0781  0.1533
33377W        W89618   3.848   2.324  19.692  0.0813 -0.1315 -0.0963
33378W        W89619   3.700  34.895   0.679 -0.0063  0.1429  0.0321
33379W        W89620  33.281  12.996  25.746 -0.2368 -0.3340  0.0033
33380W        W89621  11.038  15.176  11.014  0.2280  0.0997  0.2524
33381W        W89622  28.001   1.922  23.066  0.1419 -0.3814 -0.1277
33382W        W89623   5.343  24.405   9.276 -0.2608  0.1282 -0.0668
33383W        W89624  27.908  30.680   2.702 -0.0443 -0.2150 -0.1440
33384W        W89625   3.676  17.383   1.782 -0.0754  0.1228 -0.0964
33385W        W89626  17.254  28.443  21.057  0.1636  0.0524  0.1522
33386W        W89627   7.089  30.320  24.749 -0.3695 -0.2557 -0.1922
33387W        W89628   0.795   8.286   0.262 -0.1202 -0.2088 -0.0359
33388W        W89629  26.908  20.594  20.989  0.1677  0.1886 -0.0331
33389W        W89630  18.917  33.413  16.178 -0.2721 -0.3272  0.0546
33390W        W89631  12.046  16.634  21.243  0.3966  0.3189 -0.1416
33391W        W89632  33.714   9.156  25.631  0.0824  0.1757  0.0801
33392W        W89633  14.271  27.817  22.574 -0.0472 -0.0176  0.0303
33393W        W89634   6.137  31.068   9.489  0.0904 -0.2820  0.5394
33394W        W89635   7.657  25.782  22.454 -0.0873  0.0537  0.0274
33395W        W89636  35.310  20.331  16.930  0.0532 -0.3381  0.1317
33396W        W89637  27.882  13.929   7.738  0.0256 -0.1208 -0.1232
33397W        W89638  18.887  25.221   0.184 -0.2311 -0.0539  0.3252
33398W        W89639  33.628   6.128   5.643 -0.0554  0.0871 -0.3041
33399W        W89640   3.687  16.782   1.862  0.0538 -0.0778 -0.0963
33400W        W89641   0.145  32.609   2.261  0.1293  0.3492 -0.2508
33401W        W89642  33.978  19.543  23.687  0.4456  0.1790  0.0901
33402W        W89643   7.455   1.034   0.283  0.3148  0.2229  0.1261
33403W        W89644   2.610  12.493  16.471  0.1242 -0.0282  0.2298
33404W        W89645  10.402  20.559   9.246 -0.0983  0.2031 -0.3128
33405W        W89646  29.372  33.403  24.081 -0.1366 -0.0006  0.1264
33406W        W89647   5.703  14.570  16.506  0.2082  0.1855 -0.4588
33407W        W89648   6.490  19.014   4.234  0.1259  0.4493 -0.2869
33408W        W89649  18.059  12.422   4.200  0.0148 -0.0997  0.2006
33409W        W89650  18.010  10.068  23.109 -0.0643 -0.0054  0.1302
33410W        W89651  31.636  19.961  12.983  0.1494  0.0972 -0.0126
33411W        W89652  28.718  25.099  13.152 -0.1966  0.0719 -0.2531
33412W        W89653  14.034   0.220  20.661 -0.0369 -0.2238  0.2535
33413W        W89654  11.053  32.858  24.017  0.1069 -0.2768  0.0389
33414W        W89655  19.347   2.314  21.582 -0.3770 -0.1960 -0.0165
33415W        W89656  33.574  33.032  20.522  0.0137  0.2193 -0.0972
33416W        W89657  11.359  26.664   4.660 -0.0254  0.1638 -0.1405
33417W        W89658   1.546  33.378   9.700 -0.0158 -0.2546  0.1023
33418W        W89659  26.415   3.211  23.500  0.1991  0.3063  0.1728
33419W        W89660  17.121   4.258  18.071 -0.0345  0.1201 -0.0922
33420W        W89661  18.809  23.528   4.218 -0.0360 -0.0770  0.1795
33421W        W89662  14.348  30.020   1.167  0.0390 -0.0907 -0.4563
33422W        W89663  16.087  15.343  14.026 -0.0334 -0.2134 -0.0066
33423W        W89664   4.335  33.293  17.691 -0.0023 -0.2250 -0.0482
33424W        W89665  10.326   8.062  23.208 -0.1029 -0.1970  0.0355
33425W        W89666  10.180   1.543  24.693  0.3514 -0.4594 -0.1253
33426W        W89667  12.882   3.457  25.755  0.1426 -0.0905  0.1407
33427W        W89668  30.926  16.852  22.926  0.2247  0.1046  0.0159
33428W        W89669   0.907   1.506   5.074  0.3157  0.2755  0.0255
33429W        W89670   7.358  35.298  24.784 -0.1697  0.2586  0.0411
33430W        W89671  11.692  29.507  14.177 -0.5900 -0.1442  0.0187
33431W        W89672  24.384  13.366  21.161  0.0482  0.1468  0.2006
33432W        W89673  24.982  16.188   0.736  0.0951  0.2311  0.2416
33433W        W89674  10.949  12.373   4.420 -0.3855 -0.2313 -0.1963
33434W        W89675   2.359  16.610  24.366  0.0532  0.0735 -0.0195
33435W        W89676   5.904   0.913   1.249 -0.3058 -0.2540  0.2500
33436W        W89677  21.738  11.131   5.386  0.2811  0.0007  0.0771
33437W        W89678  13.174  15.423   0.318  0.0560 -0.1849  0.1857
33438W        W89679  16.012  30.578  21.683  0.4387 -0.0348  0.0511
33439W        W89680   0.564  25.800  19.594  0.0515 -0.2560 -0.0132
33440W        W89681  17.255  10.870   6.695 -0.0909  0.1285 -0.1083
33441W        W89682  32.128   3.666   1.293 -0.3778  0.3274 -0.2378
33442W        W89683  16.829  10.097   8.581  0.0490 -0.0427 -0.0060
33443W        W89684   2.107   4.589  24.508 -0.0766 -0.0198  0.2203
33444W        W89685  34.068  13.537  10.565  0.3477 -0.0321  0.1801
33445W        W89686  14.202  19.776   6.291  0.0286 -0.1217 -0.0409
33446W        W89687   3.477   1.223  25.031 -0.0521  0.1688  0.1367
33447W        W89688   3.737  32.205   5.370 -0.3841 -0.0379  0.0216
33448W        W89689  12.925  13.061   6.361 -0.0203 -0.2111 -0.1247
33449W        W89690  33.343   9.068   9.044  0.0492 -0.1587  0.0662
33450W        W89691  14.555  26.569   6.981 -0.2126 -0.0776 -0.0267
33451W        W89692  26.687  25.250  14.231 -0.2092  0.1822 -0.1627
33452W        W89693  24.755  18.543  22.390 -0.2425 -0.1480 -0.1858
33453W        W89694  12.256  17.444  10.002  0.1450 -0.2456  0.2247
33454W        W89695  16.434   9.178  11.681 -0.3109 -0.1699  0.0866
33455W        W89696  17.714  22.655  23.898 -0.0238 -0.0195  0.0567
33456W        W89697  24.989  20.993  21.453 -0.0280 -0.2633 -0.0904
33457W        W89698   8.520  34.255   8.550 -0.6955 -0.3450  0.0781
33458W        W89699  30.441  20.560  15.722 -0.0517  0.2309  0.3972
33459W        W89700  33.269  23.853   0.956 -0.0903 -0.2256  0.0966
33460W        W89701  33.850   1.377  14.007 -0.2283  0.0930  0.1452
33461W        W89702   4.919   0.557  20.212  0.0134 -0.0826  0.0160
33462W        W89703  29.499  22.540  18.787  0.0433  0.1860  0.4166
33463W        W89704  23.720  20.211  18.166 -0.0226 -0.1228  0.2963
33464W        W89705  13.304  11.812  24.902 -0.1626 -0.0687  0.1730
33465W        W89706  32.962  31.935  22.143 -0.0826  0.1809  0.1958
33466W        W89707  32.310   0.670  25.053 -0.2022  0.0828 -0.0669
33467W        W89708   9.449   7.384  21.258  0.1317  0.3694 -0.0802
33468W        W89709  13.124  11.654  24.384 -0.1534  0.1322 -0.0183
33469W        W89710  30.516   0.005  20.513  0.0092 -0.4276  0.3581
33470W        W89711   1.424  21.543  15.598 -0.0364  0.1266 -0.0171
33471W        W89712  15.111   8.062   4.517 -0.3293 -0.0122  0.0790
33472W        W89713  14.398  28.476   3.380  0.0254  0.2936 -0.0009
33473W        W89714   5.139   7.648  20.723  0.1325  0.0153  0.1729
33474W        W89715  18.237  26.405   3.846  0.0357 -0.4301  0.0658
33475W        W89716   1.424  14.709  12.567  0.2610 -0.0534  0.0250
33476W        W89717  17.670  19.307  10.692 -0.2614  0.0933  0.2789
33477W        W89718   1.027  18.296  18.610  0.1155  0.1521 -0.1150
33478W        W89719  10.226  32.590  12.627  0.1291  0.3627 -0.0425
33479W        W89720  17.842  22.737  25.091 -0.1180  0.0201 -0.4519
33480W        W89721  23.147  15.916  19.310 -0.4123  0.2510 -0.0998
33481W        W89722   5.112  24.578   7.914  0.0561 -0.0310 -0.0956
33482W        W89723   0.819  12.492  12.851 -0.1204 -0.0182  0.0153
33483W        W89724  28.053   6.624  16.080 -0.3735 -0.3847  0.1325
33484W        W89725  10.955  29.569   5.939 -0.0604  0.0065 -0.0927
33485W        W89726  25.510  31.448   0.605 -0.0635  0.1449 -0.2788
33486W        W89727   4.753   2.135   7.996 -0.0860  0.0501 -0.0822
33487W        W89728  35.264   9.477  25.104 -0.0472  0.2556  0.0853
33488W        W89729  26.439   9.366  10.171 -0.4886 -0.0709 -0.0058
33489W        W89730  23.605   2.733  24.723  0.2081 -0.0366  0.0924
33490W        W89731  31.266  25.321  20.851  0.1739 -0.0271  0.0851
33491W        W89732  31.749   8.283  18.323 -0.0461  0.1743 -0.1604
33492W        W89733   2.406   7.521  21.958  0.1816 -0.4178  0.2677
33493W        W89734  19.584  32.394   8.775  0.1830  0.2998 -0.0249
33494W        W89735   8.879  26.246  25.270  0.2105  0.2095 -0.2208
33495W        W89736  11.492  13.067  25.827  0.0948 -0.0915 -0.1659
33496W        W89737   1.789  28.594  22.990 -0.0867 -0.1062  0.1138
33497W        W89738   9.567   8.121  11.258  0.1207 -0.1172  0.2165
33498W        W89739   4.031  28.586   5.544  0.0049  0.0582 -0.3661
33499W        W89740  30.431   1.120  20.446 -0.0754 -0.1169 -0.0210
33500W        W89741  21.673  10.065  25.961  0.2050 -0.0085 -0.0956
33501W        W89742  32.855   5.166   2.670 -0.1014  0.3744 -0.0982
33502W        W89743  27.853  28.507  13.682 -0.0743  0.1766 -0.2288
33503W        W89744  19.240  21.114   4.918  0.0263  0.4300  0.1733
33504W        W89745  16.640  15.883   3.555 -0.1132  0.2125  0.1510
33505W        W89746   0.058   6.623  19.164 -0.0051  0.1148 -0.0410
33506W        W89747  12.949  32.498   7.639 -0.1326 -0.1636 -0.0215
33507W        W89748  13.622   0.628   2.118 -0.1119 -0.1433 -0.0371
33508W        W89749  20.572  23.629  24.126 -0.1369  0.1236  0.1229
33509W        W89750  30.747   6.012  16.979 -0.2752  0.2978 -0.0657
33510W        W89751   1.247  16.664  16.385 -0.2804  0.0134 -0.1574
33511W        W89752  11.431  13.197   2.984  0.0412  0.2777  0.0276
33512W        W89753  19.052   3.418   4.643  0.1092  0.0188  0.0640
33513W        W89754  17.711  17.148   1.032  0.1149  0.3027 -0.1050
33514W        W89755   7.018   2.490   1.652  0.0184  0.0557 -0.1172
33515W        W89756  23.624  28.614  17.301  0.0764  0.0465 -0.0092
33516W        W89757  25.123  32.409   6.053  0.0002  0.2337 -0.1986
33517W        W89758   7.286  17.732  11.745  0.1949 -0.1163 -0.1993
33518W        W89759  34.239  28.910  18.329  0.2802  0.2173 -0.0870
33519W        W89760  21.241  16.934  23.679  0.0913  0.2075  0.0447
33520W        W89761  11.694  18.063  10.874  0.0917 -0.0905 -0.0854
33521W        W89762  24.005   8.645  12.924 -0.0787 -0.3530 -0.0835
33522W        W89763  10.276  30.143   9.413  0.1456 -0.2870  0.2870
33523W        W89764  16.590   2.761   0.080 -0.2076 -0.0709 -0.2261
33524W        W89765  17.851   6.954  18.400  0.5317  0.0896  0.4482
33525W        W89766  14.264  25.031   7.745 -0.1438 -0.0405 -0.2133
33526W        W89767  14.639   3.405   6.373 -0.1489 -0.4105  0.0006
33527W        W89768  17.264  24.335  11.341  0.0957  0.1185  0.0357
33528W        W89769   4.397   5.076  19.595 -0.1523  0.2592 -0.1857
33529W        W89770   5.410   2.873   6.971 -0.4224  0.1921  0.1004
33530W        W89771   3.833  16.789  23.680  0.0324 -0.3768  0.0544
33531W        W89772  23.477  34.066   1.079 -0.0941 -0.2205 -0.2067
33532W        W89773  27.956  23.918  20.298 -0.1053  0.0392 -0.1741
33533W        W89774  14.973  33.408   3.595  0.1407  0.1789  0.5030
33534W        W89775   7.075  21.421  21.145 -0.0616  0.0162 -0.1305
33535W        W89776  26.733  13.752  10.952  0.0668  0.0391  0.1740
33536W        W89777  13.345  31.434  21.100  0.1154 -0.0429  0.1404
33537W        W89778   4.348  22.836   2.134  0.0530 -0.3433  0.1173
33538W        W89779  14.751  28.809   3.943  0.3466  0.1452  0.1934
33539W        W89780  25.214  19.194  21.133  0.1880  0.0218 -0.2807
33540W        W89781   2.933  35.125  21.274 -0.1181  0.0075 -0.2674
33541W        W89782  17.219   1.646  17.522 -0.0426 -0.0089 -0.0889
33542W        W89783   0.705  26.591   6.153 -0.1536  0.2022 -0.1470
33543W        W89784  19.707   3.656  26.032  0.0811 -0.0334 -0.0123
33544W        W89785  22.061  35.089   7.660 -0.0186 -0.1439 -0.1852
33545W        W89786  14.270   1.068  20.415 -0.0931 -0.0860  0.0570
33546W        W89787  25.803  11.511  13.965  0.0194  0.0534  0.2662
33547W        W89788   3.499  25.284  22.061 -0.1127  0.1615 -0.0811
33548W        W89789   2.060  19.567   2.807  0.4094 -0.1188 -0.1811
33549W        W89790   1.391   0.187  18.585 -0.1002  0.0251  0.1521
33550W        W89791  28.173   3.221  21.614  0.0017  0.3043  0.2739
33551W        W89792   2.258  22.736  15.338 -0.0481  0.1407 -0.1926
33552W        W89793  17.087  13.055  23.692  0.1344 -0.1689 -0.1380
33553W        W89794  23.478  31.473  14.844  0.0114  0.1356 -0.1060
33554W        W89795  28.527  13.193  16.170  0.2663 -0.2752 -0.2063
33555W        W89796  31.012  15.173   9.541  0.0614 -0.1677 -0.0170
33556W        W89797  28.457  21.101  14.503  0.0829 -0.2284  0.0710
33557W        W89798   3.677  31.318  11.900  0.0580 -0.2175 -0.2391
33558W        W89799  32.870  12.402  15.326  0.2417  0.2264  0.3005
33559W        W89800  15.780  22.311   8.345  0.1974  0.0196  0.0799
33560W        W89801  17.172  18.740  10.304  0.4146 -0.1253  0.0067
33561W        W89802  13.864  23.037  17.032 -0.0495  0.0544  0.1812
33562W        W89803   0.919   8.985   4.112 -0.0643 -0.1180  0.1387
33563W        W89804   4.740  12.415  22.984 -0.0943 -0.1662  0.0870
33564W        W89805  11.315   9.932   2.768  0.0708  0.1982 -0.0724
33565W        W89806  25.091  33.834   0.092  0.1740  0.2975  0.0419
33566W        W89807  30.176   9.665  16.849  0.0322 -0.0359  0.3322
33567W        W89808  19.200   7.855   2.973 -0.2097  0.1843 -0.1891
33568W        W89809  11.387  10.699  22.664  0.1055 -0.2518  0.0080
33569W        W89810  17.592  29.807   8.980 -0.2844  0.2891  0.2074
33570W        W89811   6.133   1.413  11.487  0.4593 -0.1941 -0.0292
33571W        W89812  15.879   7.279  12.984  0.4252 -0.0170 -0.2206
33572W        W89813  31.927  13.747  24.151  0.0497  0.0304  0.3010
33573W        W89814  23.304  21.585   2.419  0.2081  0.6569  0.1662
33574W        W89815  23.456   3.188  15.110 -0.0212 -0.0977 -0.0918
33575W        W89816  25.896  31.003  17.455 -0.2524  0.2407 -0.1845
33576W        W89817  19.674  12.123  18.124 -0.0126 -0.1707  0.0081
33577W        W89818   1.173   4.356   6.080 -0.1502  0.0578  0.0336
33578W        W89819  31.395   9.431  19.079  0.1288 -0.0446  0.3377
33579W        W89820   3.049  21.666   1.528 -0.0114 -0.0721  0.0521
33580W        W89821  14.343  12.644   8.047 -0.1172  0.0338  0.0007
33581W        W89822  25.028  21.366   0.956  0.2166  0.1750 -0.0903
33582W        W89823   9.802  22.854   2.541 -0.0692  0.1860  0.3592
33583W        W89824   8.085  32.161  11.816  0.0882 -0.2509 -0.2040
33584W        W89825   1.582  10.158  19.195  0.1042 -0.0461 -0.0356
33585W        W89826   7.935   4.013  11.540  0.2096  0.0069 -0.1380
33586W        W89827  15.759   1.206   6.794 -0.0868 -0.1945 -0.1089
33587W        W89828  15.051  31.324   7.948  0.0881 -0.3088 -0.0950
33588W        W89829  34.077  22.776  14.930  0.3485 -0.0182  0.0404
33589W        W89830  12.725  20.425  10.306 -0.1729 -0.2328  0.1561
33590W        W89831  26.535  24.365  12.098  0.3300 -0.0132  0.2399
33591W        W89832  19.282  26.332  22.458 -0.4277  0.1478  0.0104
33592W        W89833  14.457  20.648   2.575 -0.2450 -0.5034 -0.2594
33593W        W89834  32.043   1.826   2.708  0.0953  0.0018  0.1907
33594W        W89835   3.212  27.959  24.401  0.0645 -0.1538  0.3050
33595W        W89836   4.491   6.277   7.822  0.4719  0.0102  0.0393
33596W        W89837  10.248   8.404  12.475  0.0497 -0.1786 -0.1870
33597W        W89838  10.024  33.726   2.422  0.0154 -0.1604  0.3093
33598W        W89839  15.703  26.842   5.406 -0.1671 -0.0812  0.0370
33599W        W89840  15.564   0.302   6.642 -0.3078 -0.1509 -0.0793
33600W        W89841  24.820  12.629  17.582  0.5086 -0.4643  0.1512
33601W        W89842  28.108  17.848   6.365 -0.0126 -0.0394 -0.1239
33602W        W89843  18.871  17.984   6.621 -0.2065  0.2627 -0.2206
33603W        W89844  33.095   7.478  17.944  0.0568 -0.1639  0.0939
33604W        W89845  23.477   3.067  24.322 -0.1462 -0.2360  0.0561
33605W        W89846   7.938  21.988   3.276 -0.0028 -0.0173 -0.0727
33606W        W89847  32.648  16.761   6.182  0.2516 -0.0273  0.0200
33607W        W89848  31.671  24.550  20.398 -0.2074 -0.1073 -0.2003
33608W        W89849  10.396   9.501  21.384 -0.1693 -0.1967 -0.2745
33609W        W89850  33.832  32.647   2.588  0.0696 -0.1070 -0.1141
33610W        W89851   5.293  25.330   0.259  0.1967  0.0767  0.0662
33611W        W89852  18.568   0.719  23.231 -0.1322 -0.3626  0.1501
33612W        W89853  20.836  32.367  22.882 -0.1951 -0.1829  0.0759
33613W        W89854  15.047  21.439   3.236 -0.1463 -0.3501  0.1137
33614W        W89855  20.588  21.983   2.880 -0.2718 -0.0208  0.0575
33615W        W89856  21.989  30.627  22.901  0.3774  0.1614  0.0498
33616W        W89857  20.584  26.011   5.382  0.1269 -0.1324 -0.0021
33617W        W89858  27.436  33.094  24.963 -0.0230 -0.1349  0.0245
33618W        W89859   6.246   9.143  22.558  0.2072  0.0924  0.0530
33619W        W89860  31.168  15.878   7.877 -0.2371 -0.0269 -0.1033
33620W        W89861  34.201  31.452   6.669  0.0336 -0.1330 -0.0542
33621W        W89862  19.977  10.416  19.625  0.1403 -0.1325 -0.1501
33622W        W89863  30.730   6.492  10.491  0.1112  0.2124  0.2507
33623W        W89864   5.230  16.655   6.073  0.1556  0.1598 -0.1792
33624W        W89865  10.449  33.584   6.045 -0.1758 -0.0617 -0.1455
33625W        W89866  19.907  12.401  20.410  0.0880  0.0337  0.2960
33626W        W89867  12.345  24.214  25.895 -0.1713 -0.4601 -0.0196
33627W        W89868  34.733  10.303  21.791 -0.0767 -0.0891 -0.0653
33628W        W89869  32.926  13.996  21.310 -0.1999 -0.1492 -0.0096
33629W        W89870  15.225   9.709  10.889 -0.0876 -0.0502  0.0326
33630W        W89871   1.812  19.880  20.813 -0.1287  0.2251  0.0030
33631W        W89872  22.616   9.768  25.690 -0.2187 -0.1961  0.2010
33632W        W89873  11.603   8.684   5.939  0.1117  0.1278 -0.0458
33633W        W89874  19.191  30.959  20.651 -0.0659  0.2860 -0.2490
33634W        W89875  26.958  10.451   8.606  0.0903 -0.0296 -0.1492
33635W        W89876  34.031  24.741   1.623  0.1158  0.1044 -0.1130
33636W        W89877  10.725  17.365  12.318 -0.3385  0.2196  0.2606
33637W        W89878  18.968  28.028  22.680  0.1094 -0.0337 -0.4388
33638W        W89879  18.829  18.173   1.961 -0.0764  0.1639  0.0048
33639W        W89880  10.358  18.940  24.914  0.1357 -0.2024  0.0963
33640W        W89881  31.803   9.786  17.373  0.3366  0.0057 -0.2935
33641W        W89882  17.703  11.400   0.252 -0.1720  0.0914 -0.2089
33642W        W89883   2.156  29.554   8.287  0.4476 -0.0731  0.2759
33643W        W89884  13.926   6.124  19.845  0.0685 -0.0700  0.0146
33644W        W89885   1.637   5.192  19.849  0.0666  0.0257  0.2386
33645W        W89886  30.100  16.228   8.907  0.2433  0.1742  0.2501
33646W        W89887  11.261  13.183  10.211  0.2814 -0.0245 -0.0751
33647W        W89888  26.582  18.278   5.396  0.1453 -0.0461 -0.0653
33648W        W89889  33.684  33.418  22.906  0.2264  0.2049  0.2781
33649W        W89890  32.913   4.174   4.401  0.0508  0.0799  0.0312
33650W        W89891   3.837  29.061  23.494 -0.2551  0.0987  0.1441
33651W        W89892  14.550  28.047  11.539  0.2215 -0.1959  0.0340
33652W        W89893   7.137   8.730  22.787 -0.0989 -0.2480  0.3045
33653W        W89894  28.911   7.961  17.767 -0.0991 -0.3514 -0.2438
33654W        W89895  11.691  29.167   0.978  0.0952  0.0589  0.1486
33655W        W89896  29.845   3.235   5.854  0.1788  0.1230 -0.1814
33656W        W89897  19.405  30.187  20.218 -0.0573 -0.0936  0.0160
33657W        W89898  19.428  13.626   8.335  0.0756  0.3498  0.0448
33658W        W89899  22.835  29.183  13.360 -0.1061 -0.2686  0.0387
33659W        W89900   1.916  28.510   5.082 -0.2876  0.1459 -0.2630
33660W        W89901  27.505  33.335  11.954 -0.2185  0.0300 -0.0145
33661W        W89902   8.451  16.525  21.191 -0.2259  0.0596  0.1149
33662W        W89903  14.737  18.331  25.787 -0.4820  0.0364 -0.3360
33663W        W89904  12.203  33.109   2.318 -0.0537  0.3192 -0.2257
33664W        W89905  16.271  30.528   1.486  0.5305 -0.1053  0.0467
33665W        W89906  16.804  28.983   8.441 -0.0004  0.0645  0.1526
33666W        W89907  26.422  22.992  13.250  0.0908 -0.1441 -0.4276
33667W        W89908  10.529   5.270   9.247  0.4832 -0.1892  0.2733
33668W        W89909   7.519  21.574  23.356 -0.0170  0.0975 -0.1472
33669W        W89910   6.301  11.159   1.826  0.2104 -0.0585 -0.0510
33670W        W89911  19.438   2.352  18.421 -0.1119  0.0785 -0.0396
33671W        W89912  11.246  19.452   9.095  0.3246  0.0422 -0.0724
33672W        W89913  18.080   9.340   2.437  0.3502 -0.0957  0.1110
33673W        W89914  13.939   3.768   8.776 -0.3215 -0.0783  0.0808
33674W        W89915  24.908  22.820  11.543  0.0146 -0.0267  0.0927
33675W        W89916  18.278  11.803   7.463 -0.2430 -0.2478  0.0201
33676W        W89917  15.577  18.719  14.585  0.1766 -0.2916 -0.0866
33677W        W89918  10.517  23.180  24.889 -0.0296 -0.1003 -0.0212
33678W        W89919  25.510  11.674  22.240  0.0706 -0.1335  0.2625
33679W        W89920   9.716   4.821  11.702  0.2049 -0.0262  0.1423
33680W        W89921  29.620  12.853  14.733  0.1683 -0.0908 -0.3663
33681W        W89922   5.817   0.248   0.941 -0.4344  0.0664 -0.2627
33682W        W89923  29.296   0.177   0.446 -0.0706 -0.1359  0.0005
33683W        W89924  17.463   2.498  24.800 -0.1815 -0.0383  0.5127
33684W        W89925   1.705   3.935   8.495  0.2142  0.2882  0.0251
33685W        W89926  26.145   4.542  19.820  0.0372 -0.4006 -0.0622
33686W        W89927  30.255  33.780  19.030 -0.2980  0.2050  0.1612
33687W        W89928   5.157  10.798  22.841  0.0000 -0.0289  0.0195
33688W        W89929  24.661   1.914  15.437 -0.0768 -0.2436  0.0234
33689W        W89930  29.058   8.124  10.674  0.2317  0.3398  0.1883
33690W        W89931  31.102   8.639   9.941 -0.1480 -0.0745  0.2193
33691W        W89932   2.750   6.053  19.096 -0.2060  0.1359  0.3233
33692W        W89933  10.343  12.038  20.118 -0.0817  0.2022 -0.3151
33693W        W89934  10.620  25.963  16.808  0.1266 -0.0744  0.2665
33694W        W89935  17.191   9.415  12.158 -0.1698 -0.1477  0.3293
33695W        W89936  11.362   8.395   1.896 -0.3452  0.1371 -0.2744
33696W        W89937  30.888  19.285   5.845  0.0122 -0.3582  0.2198
33697W        W89938  24.714  32.774  25.143 -0.2272  0.1047  0.4655
33698W        W89939  25.084  28.752  15.969 -0.4636  0.0437  0.0179
33699W        W89940   9.870   7.299   5.365  0.2797  0.0908 -0.2096
33700W        W89941  34.645   2.242  13.889 -0.2269 -0.0891  0.1531
33701W        W89942   9.029  15.842  26.007  0.3414 -0.1171  0.1215
33702W        W89943   9.387  25.917  23.703 -0.0424  0.1633 -0.2602
33703W        W89944  24.439  32.475  20.284 -0.0445 -0.2432  0.3616
33704W        W89945  14.447  27.561  25.336 -0.4447  0.0267 -0.0697
33705W        W89946  31.704  28.487   3.113  0.3990  0.0378  0.2538
33706W        W89947  32.174   7.613  21.480  0.0965  0.1482 -0.2001
33707W        W89948   0.088  17.866  12.821  0.2817  0.0193  0.0373
33708W        W89949   3.847   1.861  20.294 -0.0262 -0.3217 -0.0136
33709W        W89950   2.108  19.617  20.271 -0.0897 -0.0731  0.0580
33710W        W89951  20.149  34.381   3.574  0.1580 -0.2653 -0.1874
33711W        W89952  31.405  30.710  11.821  0.2040  0.1747  0.0242
33712W        W89953  16.282  19.096   7.315  0.1560 -0.1786 -0.0069
33713W        W89954   3.796  21.802  18.765 -0.1970 -0.1823  0.2171
33714W        W89955  15.370  17.601  21.195 -0.0382 -0.1631  0.0390
33715W        W89956   5.930  28.172  13.544  0.2989  0.2553  0.4703
33716W        W89957  34.774  19.769  10.729  0.3360 -0.0624 -0.1317
33717W        W89958  25.535  10.725  19.263 -0.2773 -0.2977 -0.6065
33718W        W89959   4.463  16.471  15.909 -0.1259 -0.0156 -0.1224
33719W        W89960  34.273   9.357  11.718  0.0012 -0.1456 -0.2658
33720W        W89961   2.740   3.215  23.523 -0.0796 -0.0389  0.2598
33721W        W89962   7.795   9.772  24.414  0.0247  0.0209  0.1246
33722W        W89963  17.318   3.753  22.976 -0.1147 -0.0117  0.0257
33723W        W89964  23.921  24.124  16.582 -0.0762  0.0639 -0.1491
33724W        W89965  26.201   1.836  22.435 -0.3150  0.0459 -0.2229
33725W        W89966  13.245  12.122   2.768  0.1945  0.1354 -0.1022
33726W        W89967   1.830   7.592  23.198 -0.2237 -0.0089 -0.2183
33727W        W89968  14.227  19.111  21.434  0.2470 -0.1616  0.0279
33728W        W89969  10.074   4.591  12.510 -0.1139  0.0096  0.2209
33729W        W89970  20.603  25.788   6.281  0.1182 -0.0980  0.3199
33730W        W89971   9.862  24.413   7.300  0.1033  0.0234  0.1693
33731W        W89972  16.274  19.439  11.694 -0.1342  0.2113 -0.0169
33732W        W89973  33.863  29.059   5.294 -0.0351  0.1568  0.2128
33733W        W89974  28.564  16.022   4.327 -0.1643  0.0717  0.1928
33734W        W89975  24.568   1.415  24.295  0.4511 -0.1810 -0.0823
33735W        W89976  20.671   2.172   3.871 -0.1877 -0.1530 -0.0043
33736W        W89977   5.008   8.489  20.335  0.3818 -0.1486  0.0100
33737W        W89978  17.324  19.622   7.920  0.0537 -0.1334 -0.1244
33738W        W89979  20.282  23.497   4.417  0.2100  0.1191  0.0794
33739W        W89980  15.124   0.741  26.075  0.0319 -0.0839  0.2015
33740W        W89981  18.503  22.660  24.533  0.1620 -0.0169 -0.2065
33741W        W89982  21.207  29.786   2.490  0.0749 -0.0896  0.2825
33742W        W89983   2.698   4.470  20.757 -0.2634  0.1310 -0.1636
33743W        W89984  32.767  32.959  18.000 -0.1208 -0.2876 -0.1503
33744W        W89985  15.569  28.603   8.847  0.2463 -0.0335 -0.1434
33745W        W89986  29.486  17.328  25.191 -0.1764  0.1687 -0.0058
33746W        W89987  17.678  31.508  18.943 -0.2751  0.0332 -0.0973
33747W        W89988  11.439  32.766  24.280  0.0732 -0.3506  0.0625
33748W        W89989  10.000   8.625  19.237 -0.2128  0.1909  0.2801
33749W        W89990   7.408  21.165  23.092 -0.0160 -0.1247  0.2238
33750W        W89991   4.068  16.620  22.443 -0.0261 -0.1848 -0.2756
33751W        W89992  26.105  27.938   0.908  0.0847 -0.1375 -0.1603
33752W        W89993  26.644  17.562  18.319  0.0334 -0.2336  0.1386
33753W        W89994   3.554   4.328   8.498 -0.1172  0.0787  0.2441
33754W        W89995   1.926  13.892  23.501 -0.0095 -0.2174 -0.0540
33755W        W89996  18.682  20.746  11.855 -0.2744  0.1284  0.2302
33756W        W89997  22.639   6.306  23.262 -0.4763 -0.1420  0.0728
33757W        W89998  14.468   0.173  20.439  0.1655  0.0326 -0.1239
33758W        W89999   8.256  26.054   0.556  0.0873 -0.0129 -0.2138
33759W        W90000  28.428   2.748   1.669  0.2460 -0.0695 -0.0184
33760W        W90001  12.135  29.066   3.961 -0.0208 -0.2276  0.2536
33761W        W90002   8.887   6.428   9.496 -0.3186 -0.1879  0.2357
33762W        W90003  19.451  21.646   3.810 -0.0699  0.0587 -0.0419
33763W        W90004  11.081   8.194   8.808  0.3149 -0.3787  0.1459
33764W        W90005  20.604  27.001  20.973 -0.0574  0.3318  0.0501
33765W        W90006  32.130  29.530  11.091  0.1036  0.1828 -0.3730
33766W        W90007  30.888   7.476   3.252  0.0096 -0.0154  0.1453
33767W        W90008  29.676   7.770   2.196  0.1060 -0.1271 -0.2863
33768W        W90009  23.448  34.339  17.484  0.1554  0.1764  0.2602
33769W        W90010  18.858   7.160  20.487  0.1529 -0.1475 -0.3174
33770W        W90011  29.162  19.868  10.765  0.1724 -0.2798  0.1763
33771W        W90012  21.909  20.663   1.048  0.2334  0.2571  0.0632
33772W        W90013  11.702  21.779   1.859 -0.0814 -0.1090  0.0786
33773W        W90014  13.926  28.569   9.991  0.0962 -0.0036  0.3007
33774W        W90015  27.980  11.875  12.373  0.1200 -0.0993  0.0735
33775W        W90016   9.990   4.792   2.275 -0.1235  0.0234  0.1108
33776W        W90017  32.173  10.614  17.574 -0.0485 -0.0653  0.1755
33777W        W90018  22.253  27.264  14.761 -0.1328 -0.1106 -0.0630
33778W        W90019   5.475  29.375   1.316  0.0558  0.2031  0.1673
33779W        W90020  32.295  10.249  15.442 -0.1623  0.1333 -0.1353
33780W        W90021   4.086  12.397  22.153  0.3013 -0.1965 -0.1276
33781W        W90022  17.299  32.673  19.419 -0.0343  0.4684 -0.2152
33782W        W90023  29.086   9.857  16.113  0.4631  0.3662 -0.1951
33783W        W90024  12.142  13.118  13.831 -0.2912  0.0153  0.1337
33784W        W90025   9.295  21.316   1.992  0.1716 -0.2076  0.2507
33785W        W90026   0.298   3.136  17.882 -0.2554 -0.1409 -0.2635
33786W        W90027   1.176  12.670  14.579 -0.0132  0.3990  0.1007
33787W        W90028  15.967   8.066  23.075 -0.0786  0.1730  0.3678
33788W        W90029   4.297  16.313  15.431 -0.0954  0.1899 -0.2070
33789W        W90030  25.028  32.856  15.774 -0.3785  0.4332  0.2908
33790W        W90031  21.971  27.204  23.197  0.1853  0.3470 -0.3030
33791W        W90032  26.784  16.787  24.576  0.1160  0.0140  0.1127
33792W        W90033  33.557  30.572  20.287  0.0952 -0.0855 -0.2592
33793W        W90034  32.949  34.585  18.745  0.1198  0.2964  0.0590
33794W        W90035   5.347  15.371  22.360 -0.1146  0.0289 -0.0715
33795W        W90036  20.019   1.402  16.925  0.1986 -0.1717  0.1546
33796W        W90037   1.330  28.007  25.759  0.4327 -0.0073 -0.3619
33797W        W90038  32.581   5.855  16.926 -0.1303  0.0644  0.1860
33798W        W90039   8.900   4.771  11.451  0.1137  0.4673 -0.3226
33799W        W90040  11.320  19.233  24.034  0.0704  0.0569 -0.0293
33800W        W90041  11.772  24.570   8.450  0.2981  0.0737  0.2611
33801W        W90042  19.248  33.376   5.061  0.0777 -0.1120 -0.2585
33802W        W90043  17.802   5.082   2.890  0.2241 -0.2460  0.0023
33803W        W90044   8.456  25.758  13.669  0.0919 -0.1581 -0.1290
33804W        W90045  22.974  10.174   3.899 -0.1282  0.1078  0.1356
33805W        W90046  11.702  10.338  10.669  0.3253  0.0344 -0.4349
33806W        W90047   7.545  19.479  10.267 -0.1375 -0.1819 -0.2856
33807W        W90048  29.360  19.064  17.374 -0.2179  0.3213 -0.2852
33808W        W90049   7.577  27.323   0.871  0.0211 -0.2253  0.0212
33809W        W90050  11.699  32.884  22.908 -0.0163  0.1596 -0.1064
33810W        W90051  23.344  12.843  20.728 -0.0738 -0.1519 -0.1456
33811W        W90052  17.546  15.022  10.239 -0.1300 -0.0039 -0.0352
33812W        W90053  31.727  20.483  12.675 -0.0307 -0.0365 -0.0910
33813W        W90054  15.376  16.539   7.930  0.3473  0.3750  0.0295
33814W        W90055   9.652   9.351   4.855 -0.2146 -0.2089 -0.0331
33815W        W90056  29.642   6.085  11.028 -0.0739  0.0750  0.0424
33816W        W90057  21.309   4.721  25.473 -0.0409 -0.0831  0.1714
33817W        W90058   8.029  33.041   5.568 -0.1286  0.5491 -0.1443
33818W        W90059  27.242  17.536   7.528 -0.1748 -0.0471  0.1828
33819W        W90060  18.780  34.696  26.130 -0.1245 -0.1139  0.1963
33820W        W90061  33.962  24.579  20.247  0.0197  0.1527  0.0707
33821W        W90062   2.414  21.295  19.811  0.0930  0.2040  0.0408
33822W        W90063  32.683  24.877  23.417 -0.0867  0.1947 -0.1565
33823W        W90064   2.146   0.958   7.015  0.0004  0.3672  0.0486
33824W        W90065  21.881  20.176   3.343 -0.1180 -0.0005  0.2749
33825W        W90066  28.116  31.544  20.566  0.2788  0.0436 -0.0901
33826W        W90067  11.537  16.824  21.148  0.0031 -0.0747  0.0857
33827W        W90068  11.408  16.416   4.424 -0.0383  0.4371 -0.2276
33828W        W90069  28.452  33.256   0.867  0.1150 -0.0274 -0.0048
33829W        W90070  19.509  26.703   4.761 -0.0276  0.0437 -0.2331
33830W        W90071   0.888  29.719  22.802 -0.2149  0.2228 -0.0405
33831W        W90072  23.065  16.278  21.235 -0.0053  0.1104 -0.1863
33832W        W90073  23.454  21.725   1.064  0.0093  0.0291  0.0694
33833W        W90074   3.753  28.710  13.576  0.1371  0.1745 -0.1741
33834W        W90075  12.160  18.673  14.901  0.1127  0.1564  0.1512
33835W        W90076  34.045   3.970   0.031  0.1242 -0.0257 -0.1037
33836W        W90077  16.613  15.123  20.633 -0.0085 -0.0847  0.0449
33837W        W90078  13.502   3.015   7.713  0.1557 -0.0942 -0.1360
33838W        W90079   6.943  11.486   9.507  0.1597  0.1323  0.4264
33839W        W90080  21.033  31.492  22.724  0.2761  0.2405 -0.1089
33840W        W90081  20.983   5.396  16.613  0.1911  0.1560  0.1171
33841W        W90082   9.093  11.610  10.113 -0.2867  0.0677  0.0384
33842W        W90083  32.583  15.495   0.002 -0.1982 -0.1329 -0.2299
33843W        W90084  23.513  17.181  24.741 -0.0286  0.1213 -0.1220
33844W        W90085  13.301  18.469   5.386  0.1390 -0.0569  0.2080
33845W        W90086  27.294   8.571  24.710  0.0654 -0.0074  0.0267
33846W        W90087  12.970  24.809   5.038 -0.0357  0.1016  0.2219
33847W        W90088  15.986   3.294  22.167  0.4491  0.1298  0.4054
33848W        W90089  16.692   5.008  11.703 -0.4139 -0.1768 -0.0211
33849W        W90090  15.227  28.483   8.023 -0.1040 -0.0249 -0.2072
33850W        W90091  25.302  27.812  19.176  0.1754 -0.0553  0.1245
33851W        W90092   8.904  15.545  22.053  0.2873 -0.0203 -0.2975
33852W        W90093   6.312  25.484  14.639  0.1419  0.2367 -0.0506
33853W        W90094   1.453  13.085  20.436 -0.0124 -0.1951  0.1127
33854W        W90095  31.207  23.245  20.022 -0.1032  0.0493 -0.2644
33855W        W90096  26.879  29.317  20.745 -0.1664 -0.0572  0.3727
33856W        W90097   3.463  15.351  20.749  0.0080  0.2173  0.2675
33857W        W90098  34.574  13.392  12.887  0.1214  0.0906  0.2293
33858W        W90099  33.040  13.744  15.035 -0.0536  0.0090  0.0694
33859W        W90100  14.373  30.276  15.397  0.2093  0.2249 -0.1846
33860W        W90101   7.813   6.205   2.011  0.3547 -0.0306  0.2354
33861W        W90102  16.353  16.781  25.544  0.0483  0.0943 -0.4781
33862W        W90103  32.945  32.188  25.858  0.2970  0.0743 -0.2713
33863W        W90104  31.565  32.517  21.039  0.3649  0.0401  0.1489
33864W        W90105   9.391   8.820  10.839 -0.1063  0.2275 -0.0105
33865W        W90106   6.120   6.887  10.583  0.0509 -0.0345  0.1545
33866W        W90107  34.329   4.263   1.746  0.1575 -0.1860  0.1130
33867W        W90108   5.815  18.450   0.431  0.0188  0.0009 -0.0691
33868W        W90109   4.311   5.628  16.785 -0.1221 -0.3336  0.0767
33869W        W90110  16.422  12.393   1.927  0.1255 -0.1092  0.1843
33870W        W90111  22.884  31.616  24.508  0.0180 -0.0151  0.1208
33871W        W90112  31.568   0.171   5.249  0.1349  0.2055 -0.2109
33872W        W90113  15.122  26.787   2.343  0.1022  0.1130  0.0038
33873W        W90114   9.886  35.312   0.120 -0.0169  0.0554  0.1718
33874W        W90115   5.766  34.569  24.289 -0.1246 -0.0956 -0.0915
33875W        W90116  26.720   8.673   8.476 -0.0359  0.0420  0.0336
33876W        W90117  19.109  30.747  20.133  0.0533  0.1534  0.1477
33877W        W90118  17.363  33.492  18.378 -0.1925  0.3894  0.0509
33878W        W90119  16.608   3.756  25.985 -0.2246 -0.3010 -0.1971
33879W        W90120  27.618  29.352  18.335 -0.3748 -0.1106 -0.2337
33880W        W90121  11.206   2.033   6.443 -0.0438  0.2628 -0.0796
33881W        W90122  27.728  18.728   7.378  0.0951 -0.0809 -0.0418
33882W        W90123  19.975   6.106  23.127 -0.0412  0.1280 -0.3050
33883W        W90124   0.058  12.724  21.304  0.0342  0.1573  0.1669
33884W        W90125  22.897  31.682  22.873 -0.2717  0.0466  0.0196
33885W        W90126   5.691  13.250   8.675 -0.2755 -0.2419 -0.1248
33886W        W90127   0.974  18.044  10.268  0.0810 -0.2110 -0.0735
33887W        W90128  23.767  29.270  11.487 -0.0422  0.1491 -0.0464
33888W        W90129  11.132  11.854  23.888  0.0905 -0.4108 -0.0505
33889W        W90130   8.532   9.114  21.400 -0.2020  0.0986  0.0341
33890W        W90131  22.718  17.033  21.265  0.1180  0.0913 -0.1243
33891W        W90132  26.154  23.338  17.325 -0.0840  0.0296  0.0076
33892W        W90133   0.124  28.511   6.969  0.0704  0.1466 -0.0878
33893W        W90134   1.609  10.336  21.820 -0.1067 -0.0554  0.2187
33894W        W90135  15.299  19.878  10.581  0.1176  0.1596  0.1661
33895W        W90136  28.541  31.746  18.774 -0.1613  0.1751  0.0271
33896W        W90137   7.629  33.371  15.169 -0.2712 -0.0928  0.5817
33897W        W90138  10.252  24.720   3.930 -0.1440 -0.1334 -0.2118
33898W        W90139  11.354  30.395  25.798 -0.0817  0.1833 -0.1366
33899W        W90140  25.105  32.611  19.069 -0.0382  0.0662 -0.2821
33900W        W90141   7.882  20.720  21.251 -0.1411 -0.0386  0.0686
33901W        W90142  20.885  30.544  22.197  0.0052 -0.0957  0.0228
33902W        W90143  21.885  23.807  19.748 -0.1674  0.1188 -0.1035
33903W        W90144   8.360  28.568  25.337  0.0459 -0.0840 -0.2703
33904W        W90145  24.639  22.829   0.968  0.0133 -0.3688 -0.0286
33905W        W90146   6.328  26.565  21.002 -0.0476  0.3488  0.0099
33906W        W90147   4.923  32.010   4.022  0.2366  0.1641 -0.0561
33907W        W90148  13.302  12.444   8.145  0.1319  0.0562  0.3847
33908W        W90149  23.640  32.079  12.688  0.2144 -0.2288 -0.2103
33909W        W90150   0.898  14.113  18.437  0.1353  0.0606 -0.0969
33910W        W90151  10.894   9.006  19.682 -0.2173  0.0717  0.3185
33911W        W90152  29.152  15.626  18.408  0.2802  0.0978 -0.1836
33912W        W90153  14.787  24.894  24.796 -0.1890  0.3134 -0.1547
33913W        W90154  16.631   9.065  20.847 -0.2425 -0.1096  0.2735
33914W        W90155  26.252  10.252  20.599 -0.0301 -0.2233  0.0931
33915W        W90156   5.676  29.729  23.405 -0.3960  0.3359 -0.1695
33916W        W90157   1.967  19.157  14.782  0.0417 -0.0286  0.0102
33917W        W90158  34.455   2.198   4.817  0.1491  0.1316 -0.0756
33918W        W90159  12.149  23.698   4.261 -0.0912  0.1156 -0.2594
33919W        W90160  19.489  15.355  21.482 -0.2491 -0.2515  0.0764
33920W        W90161   3.964   0.783   2.763  0.3084 -0.2306  0.2237
33921W        W90162  17.231   9.820   5.815  0.0488 -0.3102 -0.3442
33922W        W90163  23.417  21.540  19.091 -0.1285 -0.2835 -0.2050
33923W        W90164   8.834   2.619  13.062 -0.1553  0.0220  0.1519
33924W        W90165  16.969  32.378   0.307  0.0078  0.0979 -0.0804
33925W        W90166  32.158  15.654  13.842 -0.0252 -0.3589 -0.0666
33926W        W90167  16.452  14.017  19.016  0.0139  0.1602  0.2800
33927W        W90168  27.153   6.397  17.320 -0.1912 -0.0062 -0.1564
33928W        W90169  34.534  29.858  19.702 -0.0753  0.2675 -0.1419
33929W        W90170   9.096  23.280   0.877 -0.1479 -0.1335  0.0430
33930W        W90171  13.824  21.502  15.102  0.0104  0.1854  0.0782
33931W        W90172   5.350  31.874   7.771  0.0131  0.2804 -0.0310
33932W        W90173  31.668  22.415  14.439  0.1469 -0.2012  0.0454
33933W        W90174  17.787  18.744   0.264 -0.3948 -0.1148 -0.1848
33934W        W90175  11.601  30.954  16.006  0.0250  0.1059 -0.0949
33935W        W90176   1.636  16.004  21.578 -0.0004  0.2975 -0.1341
33936W        W90177  11.532   3.376   7.946  0.1421  0.0295  0.2411
33937W        W90178  35.184  16.134  25.459 -0.0815  0.0884  0.2252
33938W        W90179  35.003   0.965   4.773 -0.0848  0.0704  0.2475
33939W        W90180  10.718  15.741   9.692  0.1256 -0.1375  0.1061
33940W        W90181  15.264   6.010   9.246 -0.2294 -0.0728 -0.2158
33941W        W90182  22.321  28.150  13.788 -0.0465 -0.0533  0.0623
33942W        W90183   7.871  29.518   2.854  0.0042 -0.3228  0.1614
33943W        W90184  27.468  11.872  17.677  0.1809 -0.0901  0.0718
33944W        W90185   9.412  19.046  20.171  0.2024  0.0992  0.0002
33945W        W90186  17.587  13.603   7.437  0.1002 -0.0044 -0.0396
33946W        W90187  13.141  14.754   8.351 -0.0821  0.1418  0.0422
33947W        W90188  28.806  26.209  23.942  0.0887 -0.0523  0.0384
33948W        W90189   0.522  28.938  24.577 -0.1798  0.0240 -0.1481
33949W        W90190  21.512  24.993   4.946  0.1213 -0.0078  0.0611
33950W        W90191  15.852   9.850   6.521 -0.2035  0.1256  0.0292
33951W        W90192   0.120   7.555  13.557 -0.3374 -0.0106 -0.1421
33952W        W90193  19.694  25.127   8.948 -0.4093  0.0464 -0.2155
33953W        W90194  19.178  31.764   0.275  0.2145  0.1976 -0.2003
33954W        W90195  22.331   7.487  22.911 -0.0764  0.0337 -0.2012
33955W        W90196  35.092   2.373   2.612 -0.2403  0.0808  0.1849
33956W        W90197  14.479  17.988   3.387  0.1303  0.1482 -0.2054
33957W        W90198  22.545  12.956  26.035  0.2785  0.0824  0.0242
33958W        W90199   4.820  27.196   4.158  0.0176 -0.0399 -0.1001
33959W        W90200  11.948  23.062  10.220 -0.1315  0.0635  0.0638
33960W        W90201  26.902  28.311  16.042  0.1143  0.0983 -0.1918
33961W        W90202  12.770   5.589   9.340 -0.0704  0.0397 -0.0233
33962W        W90203  32.480  12.620  19.618  0.0030  0.0295 -0.1902
33963W        W90204  23.187  30.513   4.317  0.3017  0.0168  0.4971
33964W        W90205  34.640  17.014  24.643  0.2641 -0.0319 -0.1722
33965W        W90206   2.538  22.986  24.478  0.1503  0.0117  0.0673
33966W        W90207  21.872  10.598  25.086 -0.1496  0.3301 -0.1062
33967W        W90208  32.978   6.284  20.495  0.0516  0.0458  0.2891
33968W        W90209  33.205   2.321  13.854  0.1094  0.0054  0.1542
33969W        W90210  34.399  25.595  16.441 -0.0074 -0.1043 -0.0673
33970W        W90211  33.036  11.064  22.491 -0.0372  0.2099  0.2523
33971W        W90212  11.899   2.420   2.638 -0.2178 -0.0140 -0.0717
33972W        W90213  25.811  26.054  19.425 -0.1259 -0.0384 -0.0153
33973W        W90214  34.090  34.691  18.825  0.0160  0.2386  0.1523
33974W        W90215  13.822  13.059  19.156 -0.0912 -0.0377  0.0192
33975W        W90216  25.990  24.914  21.770  0.0725 -0.1279 -0.0546
33976W        W90217   2.284  31.961  11.378 -0.0008 -0.1077  0.0396
33977W        W90218  14.611  30.231  21.844 -0.0805 -0.4072 -0.1095
33978W        W90219   2.891  16.811   1.998 -0.1734 -0.0131  0.2368
33979W        W90220  22.935   9.058   0.498  0.1436 -0.0294  0.0578
33980W        W90221  26.947   1.715  10.877 -0.2286 -0.0714 -0.3202
33981W        W90222  28.153   2.222   3.325 -0.0601  0.0263  0.1242
33982W        W90223   2.413   9.429   3.996 -0.1480  0.3431  0.1900
33983W        W90224  34.940   7.010  13.084  0.0190  0.3974  0.0690
33984W        W90225  23.817  21.478  11.863  0.1624  0.2219 -0.0389
33985W        W90226  26.249   7.972  14.013  0.0010  0.3209  0.2484
33986W        W90227   4.947  29.058   7.919  0.1627 -0.1207  0.0359
33987W        W90228  15.531   8.442  11.877 -0.1177 -0.2366  0.1710
33988W        W90229  24.038   8.276  18.702 -0.4156  0.2115  0.5437
33989W        W90230  33.125  18.028  25.332 -0.0630  0.0174 -0.1107
33990W        W90231   4.492   0.623   7.804 -0.0740 -0.6255  0.1409
33991W        W90232  31.710  31.068   4.201  0.0584 -0.0237 -0.2102
33992W        W90233  17.145  18.035  24.237  0.2159  0.1271 -0.0241
33993W        W90234  24.689  12.812  12.291 -0.0338 -0.0908 -0.1517
33994W        W90235   6.511  12.978  20.571 -0.0032  0.0366 -0.2823
33995W        W90236   3.932   2.423   9.202 -0.1122 -0.1027  0.1188
33996W        W90237  13.126  28.215   9.548  0.1522 -0.1474  0.1317
33997W        W90238  26.694  24.862  10.127 -0.1382  0.0607  0.1308
33998W        W90239  32.398   9.632  15.228 -0.1526  0.0102  0.6455
33999W        W90240  32.130  11.679   8.783 -0.0056  0.0103  0.1904
34000W        W90241  19.430   7.593  25.174 -0.1204  0.0592  0.4031
34001W        W90242  18.340   6.261   3.131 -0.1327 -0.2815 -0.2181
34002W        W90243   1.631   8.800  25.048 -0.1040  0.3819  0.2547
34003W        W90244   2.887  11.565  22.621 -0.2795  0.0717  0.0375
34004W        W90245  30.273  17.818  25.901  0.1969  0.1515  0.1744
34005W        W90246  22.850  31.480  20.426 -0.3403  0.0539  0.0927
34006W        W90247   4.306  32.859  11.891  0.2487 -0.3608 -0.1407
34007W        W90248   6.812  22.998  23.397 -0.1830  0.0112 -0.0769
34008W        W90249  21.454   8.982   6.093  0.0480  0.1393  0.1464
34009W        W90250  32.679   0.759  13.105 -0.2616 -0.2290  0.1009
34010W        W90251  22.286  30.188  12.430 -0.1050  0.1738 -0.2196
34011W        W90252  12.688  15.918  23.906 -0.1556 -0.3664  0.0738
34012W        W90253  26.005  29.471  13.741 -0.0060 -0.0049  0.1595
34013W        W90254  26.971  35.360   2.704 -0.0731 -0.1776  0.0382
34014W        W90255  21.007   1.422   5.010 -0.3541  0.2736  0.3775
34015W        W90256  28.299   5.426  22.377 -0.0836  0.1627 -0.0834
34016W        W90257   4.094  34.409   8.758 -0.3207  0.0799  0.0422
34017W        W90258  32.641  33.642  22.896 -0.0692  0.1753 -0.2753
34018W        W90259  27.412  23.555  11.232  0.0320 -0.0999  0.2864
34019W        W90260  14.429  22.438   3.767 -0.2054  0.0301  0.3630
34020W        W90261  12.922   3.950  13.284 -0.2511 -0.0052 -0.1945
34021W        W90262  22.693  18.836  24.833  0.3897  0.0521  0.0895
34022W        W90263   5.745  25.360   6.137 -0.2481  0.0547  0.2170
34023W        W90264  10.230  31.023   5.305  0.1307 -0.0444  0.2519
34024W        W90265   3.448  10.982  17.922 -0.1591 -0.1724  0.2845
34025W        W90266  24.863   8.993  24.283  0.0534  0.0447 -0.1304
34026W        W90267   0.004  25.476  21.138  0.0557 -0.0296  0.1668
34027W        W90268  18.839   3.245  16.947 -0.1630  0.2295  0.0612
34028W        W90269  29.133  13.109  25.175  0.2663  0.1203 -0.1564
34029W        W90270  17.946  18.281   0.180 -0.1455  0.1804  0.1754
34030W        W90271  24.308   5.856  25.249 -0.2326 -0.0299 -0.2252
34031W        W90272  24.268  32.068  15.198  0.0517  0.0880  0.2066
34032W        W90273  28.413  22.107  23.428 -0.0777  0.0996  0.1569
34033W        W90274   7.236  18.831   5.732 -0.4168  0.3882 -0.2780
34034W        W90275  31.670  33.815  13.823  0.0122 -0.1435  0.3233
34035W        W90276  35.075  14.697   8.921 -0.2255  0.1250 -0.0523
34036W        W90277   8.024   4.462   2.225 -0.0512  0.0141 -0.1719
34037W        W90278  30.618  25.521  14.947 -0.1226 -0.1781 -0.2426
34038W        W90279   2.272   6.977  17.874  0.0987 -0.3905 -0.0164
34039W        W90280  35.004  34.251  26.097 -0.0921 -0.2159  0.0952
34040W        W90281  30.348  14.578  17.939  0.2170 -0.0795 -0.1503
34041W        W90282  18.263   0.817   5.647 -0.0895 -0.1925 -0.2865
34042W        W90283  10.787  29.652   3.023  0.0840  0.0560 -0.0851
34043W        W90284  34.923   6.816  14.334 -0.1232  0.3044  0.7137
34044W        W90285   0.117   4.896  18.762 -0.2038  0.0016 -0.1982
34045W        W90286  16.991  16.008  25.946  0.2486 -0.0420 -0.1038
34046W        W90287   6.199   6.819  20.715  0.1929 -0.0333  0.1505
34047W        W90288  33.625   2.062  17.789 -0.2557  0.2204  0.2330
34048W        W90289  18.853   2.805  20.400 -0.1450  0.1649  0.1970
34049W        W90290  28.010  31.026  23.334  0.3389  0.0391  0.1936
34050W        W90291  27.647  28.799  19.157 -0.1649  0.1400 -0.2040
34051W        W90292  34.925  22.272  17.076 -0.0232  0.1072  0.0293
34052W        W90293  16.560  20.131  13.521  0.0293 -0.1030 -0.0945
34053W        W90294  33.204  31.731   6.303 -0.2385  0.2483  0.0721
34054W        W90295  20.357  16.110   1.087  0.2897 -0.1754 -0.1867
34055W        W90296   2.788   3.696  19.189 -0.0114  0.1075 -0.0718
34056W        W90297   0.793  21.479  21.998 -0.1538 -0.0467 -0.0748
34057W        W90298  11.406   5.759   6.946  0.0988 -0.0707 -0.0460
34058W        W90299  32.981   0.097   1.089  0.0546 -0.0265 -0.0070
34059W        W90300  20.604   6.978   7.490 -0.0439 -0.0093 -0.3100
34060W        W90301  16.084  33.186  22.033  0.2498 -0.2737 -0.1453
34061W        W90302  14.626   0.789   3.689 -0.0615 -0.2340  0.1553
34062W        W90303  15.349   9.328   0.693  0.3902 -0.2287  0.0659
34063W        W90304  18.947   7.953   6.293  0.0271 -0.0759  0.1434
34064W        W90305  27.541  31.812  20.341  0.0594 -0.2051  0.0490
34065W        W90306  28.163  16.255  20.570  0.1129  0.2283 -0.2187
34066W        W90307  16.253  35.042   3.182  0.3577 -0.1033  0.1099
34067W        W90308  17.798   3.340   4.369 -0.0563  0.0255 -0.5472
34068W        W90309   3.497  11.896   3.570 -0.1571 -0.0202  0.2145
34069W        W90310  16.365  18.300  10.577 -0.0127  0.0628  0.0015
34070W        W90311  15.664  15.938  21.200  0.0134  0.0899 -0.0556
34071W        W90312  23.420  29.770  16.006  0.0620 -0.1234 -0.2933
34072W        W90313  20.613  33.878   1.430 -0.1883 -0.0005  0.0267
34073W        W90314   9.024  26.776   4.731  0.0404 -0.1838  0.2349
34074W        W90315  10.341  29.691   7.548  0.2393  0.0189 -0.1105
34075W        W90316  18.667   6.773  11.652  0.2204 -0.0510  0.2678
34076W        W90317   6.814  11.848  18.640 -0.0549 -0.0197  0.0425
34077W        W90318   2.626   5.074  17.491 -0.2218 -0.1289 -0.3336
34078W        W90319  32.251  23.267  17.248  0.2282  0.2095 -0.1189
34079W        W90320   3.263  16.934  21.321 -0.0001  0.0046  0.2582
34080W        W90321  22.993   8.843  21.722 -0.0604 -0.0922 -0.0341
34081W        W90322  12.146  29.511  13.977 -0.1608  0.0438  0.0691
34082W        W90323   7.781  34.889  12.038  0.0597  0.0872 -0.1613
34083W        W90324  32.515  24.516  20.645 -0.3005  0.0943 -0.0755
34084W        W90325  15.824  23.646  10.057  0.2055 -0.0136  0.3544
34085W        W90326   3.831   8.835  17.108 -0.0650 -0.4352 -0.1719
34086W        W90327  10.110  25.871   2.274  0.1232  0.2809  0.0207
34087W        W90328  24.959   7.696  24.825 -0.2064  0.2136 -0.0160
34088W        W90329   7.104  23.957   9.545  0.1989  0.0387 -0.1043
34089W        W90330  28.405  31.192  20.656 -0.3643  0.0115 -0.0195
34090W        W90331  27.509   9.318  19.149  0.1088 -0.0405  0.2640
34091W        W90332   0.738   7.979  19.357 -0.3073 -0.1598 -0.1936
34092W        W90333  27.976  27.162  22.610  0.2119  0.1582  0.1716
34093W        W90334   8.509  20.741   9.167 -0.4092 -0.0904 -0.0173
34094W        W90335  22.933  29.654   4.658 -0.1456  0.1604  0.0790
34095W        W90336  29.829  10.999  26.140 -0.0790 -0.1918  0.2327
34096W        W90337   3.134  24.773  21.999 -0.1157 -0.0287  0.1943
34097W        W90338  10.692  16.342  21.265 -0.1262  0.2961 -0.1380
34098W        W90339  35.163  21.427  22.885 -0.0215  0.1534  0.3597
34099W        W90340  28.425  15.457  14.470  0.0815 -0.0235  0.1169
34100W        W90341  18.377  16.763   1.692  0.0437  0.2651 -0.0432
34101W        W90342  29.413   7.903  14.957 -0.3456 -0.1397  0.1071
34102W        W90343   7.255  13.918  24.291 -0.3164  0.1893  0.0213
34103W        W90344   7.590  26.876  24.426  0.1794 -0.0928 -0.0029
34104W        W90345  32.491  11.686  24.213 -0.2494 -0.0818  0.0333
34105W        W90346  26.245  31.427  17.383 -0.0276 -0.1760 -0.2206
34106W        W90347  17.358  13.589  22.362 -0.4797 -0.0654 -0.4169
34107W        W90348  29.549   1.487  24.028  0.1900  0.1321 -0.1504
34108W        W90349  32.227   9.883  22.393  0.0508 -0.0494  0.1136
34109W        W90350   5.646   4.768   2.358  0.1940  0.3033  0.4930
34110W        W90351   2.335   8.368  17.505  0.2310  0.0163 -0.0582
34111W        W90352  26.653  19.149  20.769 -0.0817 -0.2412 -0.1788
34112W        W90353  16.121  18.710   1.721 -0.1248 -0.1872 -0.0740
34113W        W90354  23.260  18.133  14.293  0.0946  0.2036  0.4545
34114W        W90355  10.439  14.777  12.303  0.0571  0.2861 -0.1171
34115W        W90356  24.410  20.829  17.777  0.1786  0.0544  0.1170
34116W        W90357   7.873  30.261   0.094  0.1929  0.1306 -0.3154
34117W        W90358   3.240  29.386   7.747 -0.1682  0.0112 -0.1975
34118W        W90359  23.912  17.686  15.295  0.1014  0.2018 -0.0046
34119W        W90360  31.430  27.831   0.589 -0.1064  0.1749 -0.2285
34120W        W90361  12.897  27.420  14.378  0.2123  0.0503 -0.0128
34121W        W90362   1.354   3.626   5.317  0.3420 -0.4393  0.1488
34122W        W90363  31.805  21.626  16.806  0.1016  0.2028 -0.1828
34123W        W90364  32.712  10.480  23.550 -0.2236 -0.2645  0.2740
34124W        W90365  21.252   7.689   4.560 -0.0325 -0.2216 -0.2303
34125W        W90366  21.664  25.632   1.520 -0.0599  0.2105  0.2977
34126W        W90367  17.303   6.516  23.754  0.1078  0.1890  0.1548
34127W        W90368  26.765  31.188  20.147 -0.0896 -0.2036  0.2085
34128W        W90369  19.534  34.528  25.930  0.0672  0.0021 -0.1075
34129W        W90370   6.679  29.409  16.181 -0.3105 -0.0035 -0.1508
34130W        W90371  23.821   3.024  25.576 -0.0904  0.0328 -0.3392
34131W        W90372  18.260   7.136  18.081 -0.1457 -0.1275 -0.1587
34132W        W90373  17.027  14.971  12.273 -0.0999 -0.6351 -0.2157
34133W        W90374  24.318  32.085  16.239 -0.2272  0.0048 -0.4770
34134W        W90375  12.432  13.913   1.513  0.0687  0.0520  0.0568
34135W        W90376  25.534   6.189  22.425  0.3933 -0.0663 -0.1396
34136W        W90377  25.409  24.161  15.507 -0.0894 -0.0509 -0.0087
34137W        W90378  27.610  23.956  18.030 -0.0792 -0.2460  0.0490
34138W        W90379   7.826   7.451   7.433 -0.1888  0.0830 -0.1555
34139W        W90380  32.946   0.559   3.921 -0.0541  0.0385  0.1438
34140W        W90381   5.451  11.606  19.979  0.0906  0.2217 -0.0738
34141W        W90382  18.567  24.200   1.620  0.1541  0.0019 -0.2435
34142W        W90383   6.470  12.409  25.864 -0.1208 -0.2229  0.0802
34143W        W90384  16.344  22.912  13.549  0.0569  0.1914  0.0897
34144W        W90385  23.498   7.251  15.479 -0.3294  0.0810 -0.0457
34145W        W90386  28.912  27.004   9.032 -0.2782 -0.3158 -0.0715
34146W        W90387  28.396   6.605  19.517 -0.1381 -0.1666 -0.1425
34147W        W90388  30.953  22.470  17.981 -0.1084  0.2004  0.0681
34148W        W90389   7.856  16.756   6.036  0.1218 -0.2484  0.1903
34149W        W90390   9.711  28.816  23.163  0.1373  0.1188 -0.1282
34150W        W90391   8.884  32.776   2.739  0.2797 -0.1349 -0.3037
34151W        W90392  20.703  29.294   3.852  0.1141 -0.1836 -0.1021
34152W        W90393   8.718   3.890   5.419 -0.1738 -0.1615 -0.1882
34153W        W90394   0.483  15.335  23.533  0.3038 -0.1312 -0.3486
34154W        W90395  32.119   3.374  13.711  0.2289 -0.0335  0.0946
34155W        W90396  20.974   6.541   5.529  0.2101 -0.5412  0.1475
34156W        W90397  32.448   5.087  16.129  0.0535 -0.0672  0.2505
34157W        W90398  31.184   5.781  17.014  0.0040  0.0609  0.0504
34158W        W90399  23.072  14.130   2.055  0.1038 -0.1593  0.2092
34159W        W90400  30.406  31.167  24.996 -0.0201 -0.1267  0.2129
34160W        W90401  22.778  13.141   3.765 -0.3505  0.2719 -0.1636
34161W        W90402  34.508   3.686  15.293 -0.1356  0.0170 -0.0461
34162W        W90403  17.092   3.915   4.160 -0.1200 -0.1487  0.3624
34163W        W90404   8.571   4.948  23.731 -0.1318  0.4692 -0.2970
34164W        W90405  23.890  26.435  12.238 -0.2472 -0.1377  0.1264
34165W        W90406  27.347  22.983  19.223 -0.0595  0.2496 -0.0075
34166W        W90407  34.088  30.288   3.571 -0.1466 -0.0020  0.1509
34167W        W90408  28.513   6.967  21.704 -0.1165 -0.0421  0.2615
34168W        W90409  26.865  15.920  15.614  0.0445  0.0555  0.1058
34169W        W90410  28.137  22.079   9.481  0.0534 -0.1565 -0.2274
34170W        W90411  22.894  33.679  17.988  0.2480 -0.1899 -0.0018
34171W        W90412  12.667  24.835   7.571  0.1503 -0.3058  0.0241
34172W        W90413  29.752  12.348  11.303  0.0718 -0.1798  0.0229
34173W        W90414  34.973  19.222  14.658  0.2516 -0.1369 -0.2690
34174W        W90415   3.185   1.489   5.427  0.2244 -0.0177 -0.0281
34175W        W90416  23.040  34.952   0.271  0.0553 -0.0446  0.0820
34176W        W90417  19.285   8.881   7.098 -0.1211 -0.0643 -0.0238
34177W        W90418   2.295  33.390   4.491 -0.0229  0.0478 -0.2387
34178W        W90419  26.987  18.298  22.274 -0.3317 -0.3984  0.0259
34179W        W90420  18.798   2.991  17.981  0.0842 -0.0650  0.1533
34180W        W90421  24.612  30.034   4.364  0.1772 -0.2322 -0.2214
34181W        W90422  12.289   7.546  24.892 -0.0475 -0.0125  0.0134
34182W        W90423   5.094  29.653  11.484 -0.0939  0.2128  0.0572
34183W        W90424  30.339   6.586  19.941  0.1092  0.2343  0.3054
34184W        W90425   0.458  21.695  20.095  0.0064  0.1544 -0.0184
34185W        W90426   3.025   8.880   1.175  0.2277  0.1635  0.1085
34186W        W90427  33.410  20.058  11.862 -0.1835  0.2533 -0.1186
34187W        W90428  27.834  17.074  15.567 -0.0761 -0.1235 -0.0873
34188W        W90429  11.778  25.562  13.023 -0.1418 -0.1904 -0.1056
34189W        W90430  27.357  30.416  19.305  0.0825 -0.1283 -0.1712
34190W        W90431  11.775   0.210  11.069  0.0097  0.1117  0.1969
34191W        W90432  29.206  16.444  24.535 -0.0175 -0.1453 -0.0587
34192W        W90433  29.086  34.715  25.215 -0.3248 -0.0450  0.0005
34193W        W90434  16.492  34.643   4.414  0.1242 -0.1110  0.0565
34194W        W90435  14.827  34.334   5.386  0.2240  0.2061 -0.3706
34195W        W90436   6.978   3.355   5.824 -0.2932  0.1084 -0.0839
34196W        W90437  10.175  34.507   2.001 -0.0736  0.0047  0.1737
34197W        W90438  14.952  12.609   4.995  0.0317 -0.0402  0.4057
34198W        W90439  30.283  10.144  17.195 -0.0602 -0.0742 -0.3437
34199W        W90440  30.763   2.196  15.515 -0.2098 -0.1794 -0.0037
34200W        W90441  30.277  32.157  17.640  0.0881  0.0773 -0.1006
34201W        W90442  10.098  32.163  23.536  0.0939  0.0819 -0.1596
34202W        W90443  24.425  18.293  19.636 -0.1526  0.0645  0.0755
34203W        W90444  32.228  25.270  20.393  0.0424 -0.0544  0.0382
34204W        W90445  25.074  14.050  11.454  0.1471 -0.0004  0.3202
34205W        W90446   6.269   1.469   8.831 -0.1858  0.3654 -0.0378
34206W        W90447  14.548   1.600   4.985  0.1981  0.0919  0.0477
34207W        W90448  12.057  10.318  19.301  0.0620 -0.1478 -0.1139
34208W        W90449  31.975  13.045  11.499 -0.1368  0.0769 -0.0362
34209W        W90450  35.155  23.986  11.112 -0.0329  0.0062  0.1511
34210W        W90451  16.749   3.130  16.750 -0.1074 -0.0176 -0.0552
34211W        W90452  12.582  27.544   8.734 -0.2019  0.3607  0.2405
34212W        W90453  29.676  24.468  19.697 -0.0918 -0.0456 -0.0881
34213W        W90454  27.975  32.612  16.051  0.4995 -0.2415  0.1187
34214W        W90455  25.981  10.125  13.928 -0.0065  0.1365  0.1908
34215W        W90456  23.869  23.243  18.527  0.0105  0.4372  0.4261
34216W        W90457   6.031  13.114  23.977  0.1090 -0.0222 -0.0983
34217W        W90458  19.183  13.322   8.825  0.1153 -0.1408 -0.0082
34218W        W90459  12.737  17.544   3.241  0.2765  0.2925 -0.2544
34219W        W90460  23.609  19.792  10.998  0.0318  0.3556 -0.2869
34220W        W90461  20.480  33.822  19.215  0.0834 -0.3495  0.0959
34221W        W90462  15.742  27.676  10.501  0.0351  0.1994 -0.1512
34222W        W90463  30.415   2.698  13.669 -0.2332 -0.0881  0.1492
34223W        W90464  31.419   6.217  15.782 -0.0970 -0.5628  0.0514
34224W        W90465  31.797   5.968  12.630  0.2786 -0.0657 -0.1574
34225W        W90466   3.680  28.219  13.280 -0.1433  0.2145  0.0318
34226W        W90467   3.944  33.307   4.647  0.2192  0.3272  0.0701
34227W        W90468  12.341  22.426  10.215  0.0094  0.3494 -0.0868
34228W        W90469  21.523  11.481   1.931 -0.2925  0.1495  0.0204
34229W        W90470   3.846   0.319  10.041 -0.5231 -0.0459 -0.0944
34230W        W90471   5.735   5.192  10.007 -0.1363  0.1546 -0.1264
34231W        W90472   0.729  12.510  10.659 -0.0279  0.0887  0.0334
34232W        W90473  20.711   4.564  20.913 -0.2356  0.0502  0.3329
34233W        W90474   4.362  18.066   1.446 -0.1646  0.0887  0.0500
34234W        W90475  14.388  30.988  13.699 -0.2340  0.0845  0.0665
34235W        W90476   6.336  12.269   1.828 -0.2454 -0.0127  0.1011
34236W        W90477  12.633  34.126  13.834  0.0132 -0.1583  0.0430
34237W        W90478  29.109  24.609  10.450  0.1854 -0.3822 -0.2176
34238W        W90479  33.239  15.009  14.204  0.2564 -0.1705  0.0861
34239W        W90480  17.657   0.763   6.339  0.1567 -0.3683  0.1807
34240W        W90481  24.078   5.144   5.360 -0.0620 -0.0531 -0.2908
34241W        W90482  23.834  12.009  22.902 -0.1339 -0.3865 -0.1964
34242W        W90483  27.783  12.201  14.548 -0.0504 -0.2448  0.0199
34243W        W90484  21.098  22.562   1.908  0.2270 -0.1113 -0.1160
34244W        W90485  12.578  18.379  25.934  0.0881  0.1380 -0.0075
34245W        W90486  13.791  31.828  12.752  0.2052  0.1264 -0.1137
34246W        W90487  30.397  17.257   9.260 -0.0369 -0.0559 -0.0155
34247W        W90488  13.634  32.666  21.493 -0.3166 -0.0972 -0.1868
34248W        W90489  31.665   4.937  14.801  0.1007 -0.0240  0.1513
34249W        W90490  11.527   0.030  22.325  0.1620 -0.0559  0.2672
34250W        W90491   0.053   3.643   1.250 -0.2137 -0.0146 -0.0847
34251W        W90492  20.869  30.341   1.932 -0.2196 -0.2501 -0.0818
34252W        W90493  28.493  18.653   5.386  0.0730 -0.0043  0.1852
34253W        W90494   8.150   2.575   0.366 -0.3514 -0.2686 -0.0986
34254W        W90495   2.684  15.813  23.084 -0.0577 -0.4302  0.0698
34255W        W90496  24.891  27.755  15.957  0.0675  0.1923 -0.0713
34256W        W90497  22.803  19.512  20.711 -0.2116 -0.1352  0.0213
34257W        W90498   6.766   8.185   2.490  0.0142  0.3865 -0.0731
34258W        W90499  33.996   1.560  15.641  0.1131 -0.0591 -0.1519
34259W        W90500   7.516  28.145  22.754 -0.1885 -0.1256 -0.2145
34260W        W90501   7.849  34.288  12.006  0.2769  0.0335  0.1522
34261W        W90502  14.874  28.199  15.235  0.3298 -0.5681 -0.2018
34262W        W90503  28.769  26.267   1.348 -0.0608  0.0784  0.0176
34263W        W90504   9.094  16.931  25.787 -0.1560  0.0527 -0.0779
34264W        W90505  12.548  22.387   6.690  0.2555 -0.1798  0.0313
34265W        W90506  31.286  26.941   0.589  0.1441 -0.0021  0.0616
34266W        W90507   0.229  27.506  20.408  0.0545 -0.1473 -0.0392
34267W        W90508  18.333  25.379   5.755  0.0735  0.2824  0.2607
34268W        W90509   8.391  27.548   2.100  0.2062  0.0191 -0.2643
34269W        W90510  22.250  29.672  21.065  0.0762 -0.1375 -0.0835
34270W        W90511  16.652  14.958  11.395  0.3106 -0.2243 -0.0771
34271W        W90512  20.945   9.221   5.573 -0.0503 -0.0135 -0.2990
34272W        W90513  13.136   7.954   8.053  0.0099  0.2124 -0.0655
34273W        W90514  10.346  10.387  19.351  0.1524  0.0731 -0.1274
34274W        W90515  25.657  20.117  12.823  0.0726  0.1875 -0.0975
34275W        W90516   0.474   4.566  25.307 -0.2738  0.0495  0.0227
34276W        W90517  21.141   4.390   7.808  0.0449 -0.2711  0.0086
34277W        W90518  14.873  11.147  13.622 -0.1313 -0.1226  0.2056
34278W        W90519  21.776  31.936  23.238 -0.2543 -0.0873 -0.1941
34279W        W90520  25.938  17.039  20.630 -0.0328  0.1895 -0.0479
34280W        W90521   6.861   2.616  13.246 -0.0385 -0.0398  0.2734
34281W        W90522  18.898   9.167   2.068  0.0524 -0.2255 -0.0413
34282W        W90523  30.968  23.997  18.713 -0.1733  0.0398  0.0091
34283W        W90524   6.200  26.423   0.206  0.1649  0.0174  0.0336
34284W        W90525   5.944  13.724   9.176 -0.4122  0.0620  0.1604
34285W        W90526   2.149  31.071   3.350 -0.2544  0.0876 -0.0676
34286W        W90527  26.000   4.555  21.150 -0.2102  0.2944 -0.2170
34287W        W90528  24.030  25.218  13.797 -0.0651 -0.0943  0.0422
34288W        W90529  14.717  28.255  23.328 -0.1917  0.0181 -0.0440
34289W        W90530  34.752  19.731   8.661  0.0657  0.1054 -0.1536
34290W        W90531  24.234  35.297  15.852  0.2779  0.2055  0.1339
34291W        W90532  24.216  22.787  25.348  0.0681 -0.0193  0.1862
34292W        W90533   8.926   0.692   8.466  0.0059  0.1231 -0.1699
34293W        W90534  34.815  24.805  20.763 -0.1735  0.0725 -0.2352
34294W        W90535   6.369   6.840  22.163 -0.2162  0.1132  0.2349
34295W        W90536   8.523  29.773  15.412 -0.0085  0.2071  0.0520
34296W        W90537  18.531   8.571   3.809 -0.0983 -0.3491  0.0076
34297W        W90538   3.699  30.816   6.128  0.1339 -0.3733  0.2027
34298W        W90539  30.073  25.405  14.225  0.0085 -0.0987  0.3929
34299W        W90540  19.538  33.123  21.513 -0.0511  0.0268 -0.0814
34300W        W90541   1.006  26.761  23.458 -0.3615  0.2332 -0.1398
34301W        W90542   3.868   1.526   7.843  0.4547  0.0575  0.1678
34302W        W90543  24.226  20.440  21.569  0.2217  0.2089  0.1708
34303W        W90544  14.791  17.858  23.445 -0.0284  0.1341 -0.0200
34304W        W90545  32.599   7.510   3.096 -0.0839  0.2863  0.0041
34305W        W90546  24.744  31.715  12.810 -0.0572  0.0456  0.0554
34306W        W90547  34.653   8.243  25.471 -0.3176  0.0134 -0.3023
34307W        W90548  19.363  29.342  26.142  0.1688  0.0349  0.2442
34308W        W90549  27.834  13.856  22.620 -0.0760 -0.3701 -0.2704
34309W        W90550  16.286  32.456   3.730  0.1105  0.0369 -0.2006
34310W        W90551  24.702   2.001  20.763 -0.1389  0.1414 -0.2693
34311W        W90552  22.496  12.109   1.204 -0.1189 -0.0135 -0.1589
34312W        W90553  28.991  20.341   8.392 -0.2210  0.2493  0.0878
34313W        W90554  31.631  28.802  13.417 -0.0237 -0.0788  0.0179
34314W        W90555  29.498  20.489   9.784  0.1602  0.2918  0.1483
34315W        W90556  10.421  26.073  23.755 -0.0574 -0.2060 -0.0932
34316W        W90557  16.953  26.887  25.996  0.0476  0.1043 -0.0745
34317W        W90558   9.422  33.181  25.673 -0.1002  0.0474  0.2673
34318W        W90559  10.922  20.124   0.029 -0.0270  0.0593 -0.0404
34319W        W90560  20.452  17.484  18.556 -0.1542  0.1165 -0.3443
34320W        W90561   2.687  20.008  13.385 -0.3550  0.2144  0.1015
34321W        W90562  10.173  30.575   6.577  0.2288 -0.1304  0.0196
34322W        W90563  30.624  28.317   2.828  0.1376 -0.1512  0.1505
34323W        W90564   5.846   2.116   0.547  0.3077 -0.0751 -0.0287
34324W        W90565  13.518  20.537   9.253 -0.2721  0.1963 -0.1954
34325W        W90566  30.459   9.787  21.462 -0.0800 -0.1028  0.0035
34326W        W90567   9.725  10.200  12.203 -0.1562 -0.2134 -0.0419
34327W        W90568   9.808   0.338  23.395  0.3298  0.0256 -0.1025
34328W        W90569  12.849   0.687  10.547  0.1291 -0.0428  0.0885
34329W        W90570   2.532  24.733   4.927  0.0295  0.1470 -0.2087
34330W        W90571   8.082  12.487   3.978 -0.1932  0.0379  0.0034
34331W        W90572  16.745  22.721  24.763 -0.1492 -0.1889 -0.1593
34332W        W90573  32.229  32.758   7.224  0.0197 -0.1569 -0.0833
34333W        W90574   1.308   3.033  24.670  0.0568 -0.0110  0.0670
34334W        W90575   3.292  34.196  22.422  0.0177  0.0758  0.2449
34335W        W90576  13.271   3.206   9.131 -0.0728 -0.1077  0.0764
34336W        W90577  13.640  12.087   1.003  0.3186 -0.1116  0.0051
34337W        W90578   3.656  17.451  22.586  0.0558  0.1601  0.0040
34338W        W90579  12.646  23.023  25.438 -0.0519  0.0657 -0.0667
34339W        W90580   7.557  23.273  12.394  0.0050  0.2297 -0.0127
34340W        W90581  34.137  31.655   0.219  0.3965  0.2120  0.1430
34341W        W90582  10.827  10.033   4.600 -0.1314  0.0857  0.0640
34342W        W90583  27.793  13.537  17.396  0.1795  0.1345  0.0868
34343W        W90584  18.683  26.510  22.398  0.1085  0.2925 -0.3349
34344W        W90585  19.648  18.671  23.741  0.0782 -0.4522 -0.2617
34345W        W90586  33.764   8.754  14.073 -0.4787  0.0379 -0.4254
34346W        W90587  23.240  11.769  22.252 -0.0441  0.1332  0.1015
34347W        W90588  26.399   3.766  16.546  0.2274  0.0391 -0.1506
34348W        W90589  13.539   3.451  10.198 -0.0928 -0.0798 -0.1268
34349W        W90590  18.304   6.186   5.782  0.4511 -0.1838  0.0614
34350W        W90591  15.104   3.546  17.049 -0.1812 -0.0903 -0.0048
34351W        W90592  16.144   0.872   9.925 -0.1815  0.1050 -0.2150
34352W        W90593   8.433   0.279  24.039 -0.0105 -0.0362 -0.1305
34353W        W90594  16.326  30.522  20.580  0.0940  0.1622 -0.2167
34354W        W90595  16.296  17.747  26.135 -0.0140 -0.0125  0.0590
34355W        W90596  18.727  30.733  20.474  0.3263 -0.2460 -0.1289
34356W        W90597  10.187   5.946  24.485  0.1394  0.2960  0.4271
34357W        W90598  30.646   8.484  10.581  0.0154 -0.1963 -0.1915
34358W        W90599  13.106  27.843   2.463 -0.2063 -0.0350  0.1127
34359W        W90600   8.652   0.556  22.678 -0.1095  0.0207  0.2072
34360W        W90601  21.565  31.132  22.780  0.1068  0.0279 -0.0777
34361W        W90602   9.058   8.184   5.399  0.2511 -0.1853 -0.0373
34362W        W90603  16.559  15.986  11.842  0.1730 -0.2055  0.0268
34363W        W90604  31.152  31.561   4.141 -0.0726 -0.2829 -0.0430
34364W        W90605  20.355  29.449   5.727 -0.0465  0.3431 -0.3055
34365W        W90606   6.962   2.127  13.179  0.0428 -0.4292  0.4235
34366W        W90607   4.258  11.671   2.005  0.1562 -0.0217  0.0267
34367W        W90608   4.804   1.049   7.806 -0.4286 -0.1269 -0.1414
34368W        W90609   3.009  29.110  21.017  0.0534  0.1246 -0.0029
34369W        W90610  28.964  11.915   0.918  0.1982  0.0890  0.0779
34370W        W90611  22.838  21.744   3.246  0.1402 -0.1636 -0.2364
34371W        W90612  20.354  34.963   0.505  0.1152 -0.1271  0.1429
34372W        W90613  23.300   2.273   2.241  0.4377  0.2437 -0.0210
34373W        W90614   7.018   3.033   1.604 -0.2543  0.0227 -0.1956
34374W        W90615   2.433  12.868  18.662 -0.0176  0.1261 -0.0641
34375W        W90616  17.285  11.239  18.739 -0.1841  0.1332 -0.0821
34376W        W90617  15.883   1.324  19.827 -0.0519  0.2087  0.3155
34377W        W90618  18.636  10.149   2.568  0.0183  0.0202 -0.1034
34378W        W90619  29.519  13.959  15.765  0.1029  0.1226  0.0983
34379W        W90620  18.531  18.160   4.953  0.0203  0.2621 -0.1675
34380W        W90621  14.156  34.005  10.593 -0.2344  0.0279 -0.2118
34381W        W90622   6.436  26.400   1.121 -0.0450  0.0272  0.1424
34382W        W90623  33.790   8.540  11.414  0.1760 -0.0995  0.1829
34383W        W90624  35.383  13.469  19.937 -0.1379 -0.0339 -0.0412
34384W        W90625  16.313  17.508  23.199 -0.0945 -0.2587 -0.1966
34385W        W90626   2.353   8.990  17.631  0.2111  0.1984  0.1002
34386W        W90627  28.546  21.470  11.792 -0.0460 -0.0435 -0.2534
34387W        W90628  23.971  20.665  24.015 -0.0533  0.1304  0.3147
34388W        W90629  15.546   3.390   2.183  0.0128  0.0044 -0.0872
34389W        W90630  10.500   9.300  20.426 -0.0982 -0.2442 -0.0601
34390W        W90631  32.643   0.767  18.454 -0.1452  0.2296 -0.2563
34391W        W90632   9.840  12.413  19.449  0.2226 -0.1151  0.0191
34392W        W90633   8.538  11.032  13.146 -0.2119 -0.1641 -0.1341
34393W        W90634  22.653  18.571   1.673  0.0678 -0.1223 -0.0709
34394W        W90635  11.684  21.764   5.856  0.1587  0.4037  0.3078
34395W        W90636  28.356  28.335  23.294  0.0724  0.2287  0.0406
34396W        W90637  19.793  22.357  19.240 -0.2117 -0.0023  0.1353
34397W        W90638   4.137  34.767   7.501 -0.1025  0.1658  0.2356
34398W        W90639   9.132   0.242  20.875 -0.0667  0.1955  0.3552
34399W        W90640   6.335  26.702  10.530  0.4886  0.2675 -0.0334
34400W        W90641   9.972  23.523  22.060  0.1281  0.1430 -0.2021
34401W        W90642  25.544  14.277  17.348  0.2232 -0.1453  0.1420
34402W        W90643  29.567  18.724  10.536 -0.0438 -0.0378  0.1090
34403W        W90644  11.186  27.275  24.891 -0.1049  0.3502  0.2493
34404W        W90645  29.829  32.414  24.464  0.0216 -0.2644  0.1101
34405W        W90646  32.803  14.797  13.411  0.1081  0.3406 -0.2968
34406W        W90647  33.708  27.638  25.688 -0.0577  0.2781  0.4385
34407W        W90648  31.356  11.495  19.174  0.1272  0.0320 -0.0377
34408W        W90649  20.789  11.751  19.450 -0.1817  0.2184 -0.2759
34409W        W90650   7.280   5.335  23.413 -0.2506 -0.2165  0.0613
34410W        W90651  30.451  21.435  20.923  0.1058 -0.2565 -0.0683
34411W        W90652  20.433   2.020   3.397 -0.0010 -0.2143 -0.1105
34412W        W90653  19.826   5.821  17.728  0.2127 -0.0911 -0.1619
34413W        W90654  27.451  19.472  21.350 -0.0470 -0.4590 -0.0766
34414W        W90655   0.388   8.652  16.637  0.4382 -0.0753  0.3308
34415W        W90656  24.510   2.707  12.980  0.3100  0.0300 -0.3039
34416W        W90657   2.809   8.178  20.000  0.0347 -0.0444 -0.3279
34417W        W90658  26.820  31.204   2.198 -0.0105 -0.0313 -0.1147
34418W        W90659  24.020  16.947  20.718 -0.2849  0.0652 -0.0548
34419W        W90660  29.250  19.561   7.929  0.3179 -0.0061  0.2047
34420W        W90661  30.190  31.578  12.923  0.0959  0.0504 -0.0790
34421W        W90662  13.708  27.927   5.235  0.1501  0.1792 -0.0150
34422W        W90663   7.771  21.654  24.304 -0.2032  0.5211 -0.1280
34423W        W90664  22.192  11.038  22.787  0.0337  0.1074  0.0798
34424W        W90665   4.154  11.386   0.351 -0.1790  0.1557 -0.3089
34425W        W90666  32.258  23.709  13.607 -0.2774  0.0392 -0.2009
34426W        W90667  28.963   7.863   1.748  0.3413  0.2712 -0.1827
34427W        W90668  10.858  32.519  12.837  0.0694  0.0480 -0.1978
34428W        W90669  20.295  27.349  16.806  0.1013 -0.0688 -0.3724
34429W        W90670  12.281  15.736   9.378 -0.3770  0.0131  0.2461
34430W        W90671  27.601   7.419  18.054  0.3734  0.2147 -0.2295
34431W        W90672  27.138   0.266  19.660 -0.2170 -0.2768 -0.0438
34432W        W90673   9.471   3.568   6.643 -0.4428  0.1100 -0.4494
34433W        W90674  21.539  28.112   3.109  0.2165 -0.0343  0.0851
34434W        W90675  32.387   8.910  17.099 -0.1516  0.1487 -0.0786
34435W        W90676  18.621  34.726  25.626 -0.1919 -0.1228  0.0247
34436W        W90677   4.021  24.324   0.423  0.2747  0.0486 -0.2940
34437W        W90678  21.627   8.462  19.566  0.1358 -0.2874  0.1078
34438W        W90679   0.208  32.567  16.202  0.1011 -0.0878  0.1466
34439W        W90680  33.329   4.367   0.594  0.1172  0.2059  0.2680
34440W        W90681  15.335  10.840   8.687  0.1847  0.2236 -0.0418
34441W        W90682   5.070  28.678  21.071 -0.0212  0.1298 -0.1289
34442W        W90683  20.938  27.826  16.572 -0.2961  0.2986 -0.0930
34443W        W90684  32.198   4.594  25.989 -0.3197 -0.1937 -0.1008
34444W        W90685  16.387  16.631  20.958  0.0180  0.2752 -0.0207
34445W        W90686  13.573  10.781   8.224 -0.1715  0.0037 -0.1144
34446W        W90687  24.298  30.151  15.161  0.1733 -0.3235  0.0356
34447W        W90688  28.171  17.443  16.497  0.0144  0.1799  0.3371
34448W        W90689  29.936  27.985   2.501  0.1647 -0.4802 -0.0650
34449W        W90690   0.527  15.405  18.432 -0.1626  0.1233  0.0112
34450W        W90691  18.384  27.960   2.577  0.1799  0.2932 -0.1484
34451W        W90692  11.657   3.723   3.634 -0.3277 -0.2034 -0.1811
34452W        W90693  22.640  25.770  21.689  0.0491 -0.0042 -0.1801
34453W        W90694   4.207   8.441  23.371  0.2308 -0.1296  0.2230
34454W        W90695  33.509   4.622  22.027  0.0104  0.2147  0.0021
34455W        W90696  25.563  27.460  15.100 -0.3791 -0.1076 -0.0792
34456W        W90697  11.077   7.466  18.901 -0.0385 -0.0544  0.0446
34457W        W90698   7.477   4.030  11.231 -0.1445  0.0636 -0.2643
34458W        W90699  14.027   4.153   3.726 -0.1951  0.3806  0.0712
34459W        W90700  16.265   5.892  18.569  0.0159  0.3311 -0.3065
34460W        W90701  14.635  19.402  24.930 -0.0853 -0.0727 -0.2410
34461W        W90702  31.137  19.183   9.601  0.1176  0.0594 -0.0035
34462W        W90703  19.993  16.198  17.375  0.0077 -0.0855 -0.0799
34463W        W90704   6.791   6.077  23.951 -0.1875  0.0331  0.0089
34464W        W90705  32.915  26.905  17.065 -0.1798  0.0610  0.1358
34465W        W90706  14.183  29.139  24.439 -0.0715  0.2603 -0.3152
34466W        W90707   3.865  18.565  25.519  0.1073  0.1732 -0.0106
34467W        W90708  27.956  35.141  25.967  0.1065  0.0934 -0.1628
34468W        W90709  23.643  11.402   3.419 -0.2788 -0.0136  0.2410
34469W        W90710  16.233  12.183  13.178 -0.2376  0.0259  0.0216
34470W        W90711   1.188   3.061   4.200  0.0691 -0.1781 -0.0646
34471W        W90712  14.723  20.455   4.042  0.0354 -0.0445  0.0277
34472W        W90713  34.312  23.354   9.146  0.0160  0.0760  0.0449
34473W        W90714   3.542   4.609  21.618 -0.3287 -0.0109 -0.0344
34474W        W90715  25.985  20.678  17.529 -0.1815  0.3673 -0.0866
34475W        W90716  22.460  20.875  23.723  0.1805  0.0809  0.1177
34476W        W90717  24.514  32.737  11.589  0.3116  0.0823  0.1619
34477W        W90718  19.851  28.068   0.306  0.0451 -0.0503  0.0887
34478W        W90719  33.776  30.340   2.396  0.1668  0.1563  0.4094
34479W        W90720   4.117  23.273  18.113  0.1949 -0.1793 -0.0119
34480W        W90721   4.561   4.242   7.382  0.0482  0.0647 -0.2480
34481W        W90722  13.482  29.310   6.259  0.2667 -0.1362  0.0464
34482W        W90723  13.409  30.543  21.726 -0.0973  0.0611  0.2490
34483W        W90724  29.638   5.975   3.874  0.4336  0.0266 -0.0009
34484W        W90725   2.932   4.878  21.075 -0.3693 -0.2623 -0.1042
34485W        W90726  20.612  22.080  22.308  0.0299 -0.1984  0.1635
34486W        W90727  21.529   5.481   2.419  0.0234  0.2254  0.0473
34487W        W90728  22.751  29.295   2.531 -0.2724  0.3631  0.0352
34488W        W90729  22.938  22.033  15.453 -0.0143  0.1933 -0.2957
34489W        W90730   2.912   5.887  17.780 -0.0900  0.3838 -0.0363
34490W        W90731   6.979  15.555   7.315 -0.3143 -0.0043  0.0395
34491W        W90732  31.222  19.422  22.573  0.0300  0.0757 -0.2165
34492W        W90733   7.817  25.955   8.882  0.1779  0.2313  0.0325
34493W        W90734  25.499   9.100  25.204  0.1973  0.1305  0.1706
34494W        W90735  29.072  11.683  14.271  0.0205  0.0618  0.1881
34495W        W90736  21.395  12.073   5.807  0.0238  0.1503  0.3942
34496W        W90737  26.647  25.156  16.106 -0.3722  0.0868  0.2230
34497W        W90738   2.122  18.866  16.792  0.1414 -0.0173  0.1302
34498W        W90739  32.661   0.106  13.202 -0.3504  0.0976  0.0485
34499W        W90740  11.516  22.417  15.267  0.0727 -0.2813 -0.0872
34500W        W90741  24.224  15.473  14.975 -0.1114 -0.1367 -0.1788
34501W        W90742  21.461  17.261  25.378  0.1402  0.2568 -0.2132
34502W        W90743  18.159   6.815  21.607  0.2605 -0.1907  0.0237
34503W        W90744   6.603   2.070  24.174  0.1609  0.1977 -0.1184
34504W        W90745  30.527  13.534  18.829 -0.1386 -0.0022 -0.2976
34505W        W90746  16.277   7.697  23.298 -0.2032 -0.0358  0.3768
34506W        W90747  23.603  35.280  14.238 -0.1347 -0.0275  0.3035
34507W        W90748  27.669  32.118  23.611  0.2976  0.0157 -0.0492
34508W        W90749  11.176  25.424  24.087 -0.2993  0.1007 -0.1630
34509W        W90750  17.346  22.416   4.338  0.2784 -0.1127 -0.1354
34510W        W90751   5.186  33.687  25.585  0.2103 -0.0286  0.2277
34511W        W90752   4.816  31.642  21.942 -0.2810 -0.0853 -0.2139
34512W        W90753  31.499  10.072  13.632 -0.0760  0.0671  0.0205
34513W        W90754   1.569  13.451  17.269 -0.3507 -0.1964  0.0211
34514W        W90755  20.561  20.307   2.523  0.0091  0.1183 -0.2847
34515W        W90756  27.184  31.680  12.175  0.2721  0.0002 -0.1881
34516W        W90757   9.230  19.550   7.147  0.0744 -0.2376 -0.1847
34517W        W90758  28.545   9.792  13.188 -0.1553 -0.0744  0.0756
34518W        W90759   2.170  21.560  13.067  0.0799 -0.0292 -0.3183
34519W        W90760  30.071  30.541  12.684  0.1049 -0.0075 -0.0826
34520W        W90761   9.386  21.776   7.998 -0.1868  0.0991  0.1515
34521W        W90762  34.545  32.902  23.596 -0.1015 -0.0421  0.0023
34522W        W90763  25.715   6.949  16.087 -0.0824  0.1393 -0.0274
34523W        W90764   9.747   6.414   3.190  0.0556  0.1098  0.0160
34524W        W90765  19.173  21.163   5.638  0.0098  0.2381  0.1538
34525W        W90766  19.653  21.584  25.113  0.0703 -0.1512  0.0698
34526W        W90767  20.546   6.636  16.413  0.1615  0.2560  0.2733
34527W        W90768   6.975   4.929  18.823  0.3690  0.0305  0.1115
34528W        W90769  20.175   8.179  10.072 -0.0044 -0.1489 -0.0497
34529W        W90770   7.990   8.373  25.900  0.1713 -0.0065  0.1284
34530W        W90771  32.772   0.297  22.405  0.0393  0.0116  0.1317
34531W        W90772  13.920  27.317   1.328 -0.0601 -0.3471  0.3500
34532W        W90773  30.254  33.127  20.824 -0.2259 -0.1811  0.1077
34533W        W90774   6.740  19.590   4.871 -0.1238 -0.2140  0.0201
34534W        W90775  19.308  27.387  25.957 -0.1519  0.1403 -0.2511
34535W        W90776  12.771   1.822  10.422 -0.3125 -0.4753 -0.0628
34536W        W90777  29.468   2.430   0.075  0.0735  0.0091 -0.0090
34537W        W90778   4.097  10.859  16.584  0.3365 -0.2327 -0.0399
34538W        W90779   5.602  33.885  11.212 -0.1647 -0.3112 -0.0134
34539W        W90780  31.273  19.180  13.424 -0.2559  0.0968  0.0377
34540W        W90781  26.043   6.669  24.904 -0.4250  0.0524 -0.0628
34541W        W90782   8.309  33.120   3.946  0.2456 -0.0065  0.3139
34542W        W90783  22.950   0.181   1.346  0.0358  0.0026  0.0875
34543W        W90784   8.201  10.397  20.101  0.0607 -0.2508 -0.0311
34544W        W90785  32.158  31.270  14.467  0.0321  0.0214 -0.2001
34545W        W90786  34.045  27.185  13.960 -0.1288 -0.0867  0.2139
34546W        W90787  27.820  15.771  22.832  0.0531 -0.1342  0.0574
34547W        W90788  27.195  19.060  14.452 -0.1611 -0.3094  0.3454
34548W        W90789  16.652   5.241   5.231 -0.5447  0.2501 -0.0672
34549W        W90790  25.182  11.014  20.174 -0.1114 -0.1001  0.0429
34550W        W90791   0.846   5.592   5.461  0.0349 -0.1827 -0.1509
34551W        W90792  34.210   6.192  16.602  0.1061 -0.2787 -0.2175
34552W        W90793  30.590  15.508   7.343  0.2526  0.3768  0.3185
34553W        W90794  19.491  22.419  18.503  0.1479  0.0281  0.3285
34554W        W90795  14.249  21.688   4.659 -0.2728  0.1261 -0.1471
34555W        W90796  20.849   5.037  16.207  0.1131 -0.2762 -0.2580
34556W        W90797   1.286  34.559  20.920  0.1542  0.0082 -0.1266
34557W        W90798   6.691  32.853   3.906  0.1398 -0.0826 -0.0504
34558W        W90799  12.953  20.612  22.519  0.1878  0.0360  0.2572
34559W        W90800  11.439  24.690  17.569 -0.0464  0.1138 -0.0511
34560W        W90801  25.699  20.304  18.775  0.2715  0.1900 -0.3852
34561W        W90802  16.612   4.156   0.766 -0.3781 -0.1741  0.2474
34562W        W90803   5.993   8.021  23.639 -0.2290 -0.0686 -0.1899
34563W        W90804   2.698  30.857  20.840  0.2326  0.0382 -0.0316
34564W        W90805  13.775   6.625  19.853 -0.1308  0.2665 -0.5598
34565W        W90806  13.274  19.778   2.699 -0.3529 -0.0563  0.0727
34566W        W90807  30.751  11.970  17.446 -0.2114 -0.0550  0.0772
34567W        W90808  15.846  17.202  21.752 -0.4741  0.2579  0.3304
34568W        W90809  30.794  16.391  22.104  0.0572 -0.0346  0.1969
34569W        W90810   9.518  14.897   1.853  0.1039 -0.2319  0.2206
34570W        W90811  14.979  12.560  24.033  0.0452 -0.0038 -0.1300
34571W        W90812   3.531  15.863  18.251  0.2914 -0.2803  0.1779
34572W        W90813   6.379  26.268  12.682 -0.0117 -0.1122 -0.0670
34573W        W90814   4.910   0.242  22.976 -0.2736  0.1032  0.0465
34574W        W90815  31.722   6.546  15.937  0.2508  0.0653 -0.0877
34575W        W90816   4.709  22.685  20.580 -0.1953  0.1050  0.0014
34576W        W90817   3.605  34.127   2.614 -0.0162  0.3047 -0.2625
34577W        W90818   8.306   8.969   9.868  0.1482  0.0114  0.0933
34578W        W90819   0.522   6.654   2.729  0.1261 -0.0515 -0.3358
34579W        W90820  25.161  31.072  25.980  0.1030  0.2721  0.1207
34580W        W90821  16.226  24.850  22.508  0.1522  0.0724 -0.2291
34581W        W90822  16.553  31.771  25.488 -0.1967  0.0916 -0.1993
34582W        W90823  35.099   1.751   7.000 -0.0107 -0.3299  0.2543
34583W        W90824  24.374  34.902  21.244 -0.2651 -0.0530 -0.2045
34584W        W90825  25.670  24.496  25.508 -0.0427 -0.0196  0.2973
34585W        W90826   6.499  11.519  19.205  0.1424 -0.1687  0.1367
34586W        W90827   5.745  20.643   3.591 -0.4388  0.0177 -0.0873
34587W        W90828  19.651   3.125   4.664  0.0229  0.2503 -0.0072
34588W        W90829  26.125   6.665   2.538  0.0218 -0.0803  0.3524
34589W        W90830   9.220  23.732   1.628 -0.2940  0.3727 -0.0060
34590W        W90831  16.409  13.482  25.516 -0.1147  0.1960 -0.1102
34591W        W90832  29.859   9.551  24.840 -0.1085 -0.0358 -0.3809
34592W        W90833  29.169  34.810   2.575 -0.1345  0.2036 -0.4122
34593W        W90834  12.614  25.133  10.642  0.2035 -0.0981 -0.0218
34594W        W90835   7.329  32.117  23.819 -0.3506  0.3344  0.2775
34595W        W90836  16.723  32.023   4.342 -0.3678  0.0197  0.2401
34596W        W90837   9.592  29.769   8.224 -0.2526 -0.1001 -0.2392
34597W        W90838  31.793  10.758  19.338  0.0233 -0.0237  0.1268
34598W        W90839  34.573   2.485   1.815  0.2350  0.0190 -0.3750
34599W        W90840  10.434   5.979  22.202 -0.1370 -0.0753  0.1334
34600W        W90841  22.114   7.820   5.071 -0.1456 -0.1635 -0.0148
34601W        W90842   9.620  21.293  23.863 -0.0672 -0.0289 -0.2155
34602W        W90843   4.801  14.162  24.892 -0.1979  0.1772 -0.1068
34603W        W90844  16.121  17.972  23.141 -0.1780  0.6196 -0.2616
34604W        W90845  28.132  22.330  24.994  0.0208  0.2108  0.1474
34605W        W90846  24.015  30.030  20.966 -0.0437 -0.1222  0.0604
34606W        W90847  30.482  18.453   9.069  0.2553  0.0546  0.1311
34607W        W90848  21.636  27.608  19.782 -0.0167 -0.0484 -0.0094
34608W        W90849  32.303  13.468  10.506 -0.1175  0.1400  0.2525
34609W        W90850   0.496   2.511   1.151  0.1926  0.1390 -0.0993
34610W        W90851  14.649  18.965  13.178  0.2898 -0.0809  0.0431
34611W        W90852  14.424  21.960   1.681  0.0599  0.3357 -0.0331
34612W        W90853  31.962  34.143  21.862 -0.3636 -0.1324 -0.1100
34613W        W90854  15.885   3.740   7.006 -0.0950 -0.0692  0.0020
34614W        W90855  24.308   8.413  20.644  0.2815 -0.1899  0.0396
34615W        W90856   8.532  26.957   0.429 -0.0057  0.2718 -0.0649
34616W        W90857  10.260  17.476  10.016  0.1352 -0.1119 -0.0448
34617W        W90858   5.563  14.312  21.610 -0.1769 -0.0071  0.1270
34618W        W90859   0.481  11.948  21.777  0.4284 -0.1195 -0.4435
34619W        W90860  32.440  18.234   8.652 -0.3715 -0.0070  0.3151
34620W        W90861  29.673  29.619  19.671  0.4311 -0.0621  0.1713
34621W        W90862  31.289   6.596  14.426  0.1654  0.2465  0.0276
34622W        W90863  12.308  11.796  19.853  0.2543 -0.2775  0.2007
34623W        W90864   0.918  25.231  23.651 -0.3566 -0.1371 -0.1420
34624W        W90865   0.697  22.559  10.651 -0.0042  0.3366 -0.1077
34625W        W90866  19.409  16.691  20.565  0.0344 -0.0205  0.0446
34626W        W90867  19.580  23.740   0.458  0.2349  0.4363  0.1164
34627W        W90868  34.956   6.291   6.115  0.0277 -0.0803  0.1897
34628W        W90869  17.231  29.669   2.112  0.2300 -0.0365 -0.3965
34629W        W90870   8.707  14.367   4.696  0.0219 -0.0772 -0.2490
34630W        W90871  18.825  32.706   8.539 -0.1502 -0.3987 -0.2094
34631W        W90872   0.347   5.228  19.775 -0.2606 -0.1445 -0.4677
34632W        W90873  19.257  25.681  10.101  0.0145 -0.0828 -0.2475
34633W        W90874  12.477  21.052  14.125  0.3592  0.0850 -0.0970
34634W        W90875  18.524  16.546  19.451 -0.0982  0.1566 -0.0578
34635W        W90876   4.091  24.882   0.018  0.3042  0.0740 -0.1627
34636W        W90877  21.590  34.861  15.891  0.3134 -0.0969 -0.2038
34637W        W90878  23.718  10.807  25.796 -0.0512 -0.0716  0.2581
34638W        W90879  20.250  16.346  18.875 -0.2982  0.1448 -0.1008
34639W        W90880  10.914  10.565   5.970  0.1638 -0.2106 -0.3176
34640W        W90881   1.214  34.514  19.855 -0.2236 -0.1144  0.0305
34641W        W90882  10.000  19.192   3.635  0.0566 -0.0498 -0.1813
34642W        W90883  11.460  25.416  13.510  0.0191  0.2019  0.1089
34643W        W90884  30.452   0.706  14.547 -0.1439  0.3248  0.1153
34644W        W90885  12.074  34.807  23.706 -0.2130  0.0559 -0.1727
34645W        W90886  17.867  21.639  24.312  0.1978  0.1905  0.2054
34646W        W90887  25.723  30.125  21.561  0.1250 -0.3251  0.0322
34647W        W90888  29.123  30.645   3.893  0.1521  0.1194  0.0657
34648W        W90889  31.962  11.333  18.560  0.3091 -0.1322  0.0138
34649W        W90890  30.779  11.388  23.914  0.0612 -0.0028  0.2498
34650W        W90891  13.618  20.926   4.529  0.1686 -0.0644  0.3596
34651W        W90892  15.343  33.221   2.183 -0.1194  0.0660  0.0114
34652W        W90893  13.037  15.701  23.000  0.1019 -0.0915  0.0032
34653W        W90894  22.650  20.386  20.741 -0.1347 -0.0291 -0.3875
34654W        W90895  14.681  15.889   4.115  0.0998 -0.0459  0.0309
34655W        W90896  11.516  34.940   1.653  0.0562 -0.3434 -0.1549
34656W        W90897   5.999   2.215   4.041  0.0538 -0.0172 -0.1792
34657W        W90898   7.859  11.584   0.708 -0.0180 -0.1383 -0.2284
34658W        W90899  10.787  11.459  24.949  0.0930 -0.1632  0.3199
34659W        W90900  11.044  22.268  13.243 -0.1318  0.4319 -0.0868
34660W        W90901  12.269  20.572  13.832  0.1029  0.0604  0.3127
34661W        W90902   4.660  12.166  21.629  0.1268  0.0409 -0.0478
34662W        W90903  23.725   8.531  22.502 -0.1732  0.0790 -0.0254
34663W        W90904   9.446  13.229  12.869  0.1302  0.2001  0.0022
34664W        W90905  22.978  13.518  26.237 -0.0781 -0.0807  0.0855
34665W        W90906  22.667  34.017  20.961  0.0134  0.2771 -0.1668
34666W        W90907  26.742  12.088  10.826  0.1361 -0.0773 -0.0434
34667W        W90908  28.680  28.039  19.167 -0.1455  0.3326 -0.0685
34668W        W90909   7.958  27.480   6.174 -0.1221 -0.1279  0.0126
34669W        W90910   9.167  23.487  12.300 -0.0440 -0.0538  0.0351
34670W        W90911  21.372  29.863  24.376  0.2900 -0.0013  0.0360
34671W        W90912  23.062  12.409  18.346  0.1248  0.0893  0.1993
34672W        W90913  22.235  32.868  20.208 -0.5017  0.1580  0.0370
34673W        W90914  12.625  16.934  24.337 -0.3074 -0.0589  0.2488
34674W        W90915  24.657  13.689  20.069 -0.0588  0.1141 -0.0411
34675W        W90916  12.623  27.134  23.071  0.1001  0.1795  0.3867
34676W        W90917  31.422  26.343  10.414  0.1295  0.0967  0.1454
34677W        W90918  31.840   0.106   4.785  0.4338  0.0148 -0.2027
34678W        W90919  31.976   5.041   5.010  0.0345 -0.0833 -0.3240
34679W        W90920   8.099  27.820   1.556 -0.1669 -0.1162 -0.2221
34680W        W90921   4.051   1.965   4.934  0.0220 -0.0277  0.2151
34681W        W90922   7.896  12.545  18.875  0.0145  0.0361 -0.1525
34682W        W90923   3.871   1.790  24.812  0.0016  0.0456 -0.3296
34683W        W90924  23.124  24.581  25.573 -0.0224 -0.0405  0.2903
34684W        W90925  19.113  17.352  22.328  0.2243  0.0215 -0.0391
34685W        W90926  11.487  11.807   4.264  0.0554 -0.2344  0.0303
34686W        W90927  31.853  14.545   9.344 -0.1171  0.2393  0.1941
34687W        W90928  35.359  28.822   2.105  0.1407 -0.0851  0.0854
34688W        W90929  19.257  31.788  17.410  0.2140  0.0292  0.0032
34689W        W90930  17.625  11.987  12.032 -0.0305 -0.2308  0.0420
34690W        W90931   3.465  21.183   2.807 -0.1604 -0.2836 -0.4389
34691W        W90932  32.140   3.286  20.504  0.0996 -0.1260 -0.0537
34692W        W90933  29.263  15.815  16.009  0.2456 -0.1227  0.0414
34693W        W90934  21.490   3.451  20.362  0.3138 -0.2649 -0.1855
34694W        W90935  16.038  14.458  20.176 -0.1119  0.1999 -0.0860
34695W        W90936  30.952   7.720  22.193  0.0711 -0.2249 -0.0722
34696W        W90937  33.751  21.240   6.722 -0.3684 -0.2281 -0.1312
34697W        W90938  17.379   9.691  21.311  0.3051 -0.0792  0.1229
34698W        W90939  18.344  16.902  23.544  0.1675 -0.5472  0.1177
34699W        W90940   4.778  14.250  22.698 -0.0587 -0.1394 -0.0350
34700W        W90941  28.846  21.185  10.439 -0.2116  0.0532 -0.2354
34701W        W90942  16.262  27.619  13.650  0.1963 -0.0673  0.0321
34702W        W90943  18.920   6.089  25.093 -0.0243 -0.1261  0.3879
34703W        W90944  10.111   3.406   1.602  0.0715  0.0899  0.0012
34704W        W90945   0.709  12.722  11.928 -0.1091  0.3017 -0.2991
34705W        W90946  29.585  18.486   8.988 -0.2122 -0.4206 -0.1117
34706W        W90947  12.880  29.407  14.799 -0.4103 -0.0540  0.1718
34707W        W90948  10.598   3.007  14.036 -0.1119  0.0969 -0.0911
34708W        W90949   4.629  16.425   5.472 -0.1269 -0.1254 -0.3547
34709W        W90950  17.205  29.181   7.134  0.3146  0.0470 -0.1626
34710W        W90951  30.292  17.357  20.827  0.1182 -0.4067  0.0063
34711W        W90952   4.062  30.078  11.039  0.2626  0.0546  0.2766
34712W        W90953  14.716  32.741  26.031 -0.2004 -0.1072 -0.2415
34713W        W90954   9.758  35.171   2.617 -0.1412 -0.1397 -0.0486
34714W        W90955  33.004  20.299  14.992 -0.0039  0.0385 -0.2481
34715W        W90956  28.109  11.256  14.290 -0.0550 -0.2126  0.0694
34716W        W90957   8.578  27.593   6.671 -0.0883 -0.1040 -0.1569
34717W        W90958  23.955  13.914  22.709 -0.1034 -0.0700  0.0946
34718W        W90959  34.162  33.762  24.733  0.1960 -0.0617 -0.0306
34719W        W90960  30.344   2.582   3.769  0.0081  0.2103  0.2015
34720W        W90961   8.157  11.805  10.116  0.0784  0.0482  0.2988
34721W        W90962  29.039  16.917  19.862 -0.1293 -0.0568 -0.1590
34722W        W90963  31.414   6.834  13.880  0.2362  0.0365 -0.3058
34723W        W90964  17.408  28.627   0.980  0.0124 -0.0271  0.3283
34724W        W90965  19.380  11.470  25.231  0.0811  0.2163 -0.1280
34725W        W90966  25.935  25.747  16.444  0.3189  0.0661  0.0254
34726W        W90967   6.986  17.284   2.390 -0.3993 -0.0839  0.0145
34727W        W90968   8.116  27.161   9.832 -0.0684 -0.1677  0.1045
34728W        W90969  13.864   2.493  23.453 -0.2287 -0.0214 -0.1049
34729W        W90970  21.141   1.083  18.357  0.0669 -0.0505  0.3799
34730W        W90971  10.816  20.485   2.704 -0.1636  0.0089  0.1213
34731W        W90972  16.069  15.854  11.841 -0.1275 -0.1080 -0.0194
34732W        W90973  28.445  22.689  17.236 -0.0531 -0.1591  0.0076
34733W        W90974  35.089   4.305   4.702 -0.2648  0.3049  0.1903
34734W        W90975  24.645  21.476  21.644 -0.0740 -0.0758 -0.1071
34735W        W90976   6.536  10.991  22.209 -0.1387  0.2892  0.1776
34736W        W90977   2.922   3.354   6.877 -0.0001  0.0058  0.0944
34737W        W90978  25.361  29.125  23.499  0.0568  0.1075 -0.4979
34738W        W90979  20.733   7.170  24.687 -0.0547  0.2505  0.1769
34739W        W90980   9.805  19.804  13.079 -0.0604  0.0004  0.0444
34740W        W90981  12.558  24.815  24.989  0.1838 -0.0315  0.1398
34741W        W90982  33.730   7.537  12.732 -0.0060  0.0376 -0.1197
34742W        W90983  31.533   9.816  20.748 -0.0987 -0.0732  0.0923
34743W        W90984  20.103  21.112  22.625  0.0744  0.0493 -0.2667
34744W        W90985  20.928  19.514  24.925  0.3646 -0.0073 -0.0702
34745W        W90986  29.367  19.495   8.837  0.2256 -0.4068 -0.1162
34746W        W90987  11.807  29.489  25.283  0.0449  0.1557  0.1859
34747W        W90988  13.598   7.457   5.698 -0.1486  0.2842  0.0621
34748W        W90989  34.505  34.613  19.940  0.1723  0.0940 -0.1214
34749W        W90990  31.122  20.987  18.829 -0.2217 -0.0945 -0.2425
34750W        W90991  15.418  19.279  24.157  0.2318 -0.1991  0.0609
34751W        W90992   2.457  14.201  22.650  0.1022 -0.1423 -0.0595
34752W        W90993  22.666  17.903  22.476 -0.1083  0.1546  0.2209
34753W        W90994   9.109  32.036   1.139 -0.0054 -0.0960 -0.0983
34754W        W90995  24.198   8.798   4.097 -0.0745  0.2257 -0.2891
34755W        W90996  18.576   4.108  17.164  0.2448 -0.2660  0.2471
34756W        W90997  19.305  18.689   9.629  0.0749 -0.2979  0.3230
34757W        W90998   6.799   5.410   9.059  0.1678 -0.3404  0.1642
34758W        W90999  23.329   8.591  23.038  0.0401  0.0483 -0.1284
34759W        W91000  13.827   9.632   9.626  0.0226  0.0109  0.0437
34760W        W91001  24.299   4.235  22.908  0.0042 -0.1668  0.0187
34761W        W91002  21.975   1.147   7.241  0.3769  0.0362  0.4239
34762W        W91003  13.472   4.734  20.236 -0.0943 -0.1365 -0.2093
34763W        W91004  15.643  18.159  25.790 -0.2296 -0.1404  0.0917
34764W        W91005  26.840   2.062   2.791  0.0257 -0.2349 -0.1786
34765W        W91006  13.524  33.267   9.948 -0.0255  0.0857 -0.0879
34766W        W91007  17.446  18.549  21.749  0.0335  0.0227  0.0285
34767W        W91008   0.434  16.219  18.774  0.0867 -0.0677  0.0683
34768W        W91009   5.550   6.788  25.612 -0.0045 -0.0746 -0.1727
34769W        W91010  19.387  13.219   7.296 -0.1637  0.1293  0.0911
34770W        W91011  15.094   7.848   9.880 -0.0564  0.1825 -0.2735
34771W        W91012  32.851  28.301   1.313  0.0722 -0.6126  0.0595
34772W        W91013   3.709  24.102  22.115 -0.0845  0.1362  0.2860
34773W        W91014  18.142  11.859   7.939  0.2403  0.0914  0.1310
34774W        W91015   1.503   8.728  13.363 -0.1307  0.3520 -0.3433
34775W        W91016  14.761  20.486   1.914 -0.5253  0.1459 -0.2471
34776W        W91017   3.471  16.973  20.487 -0.1137 -0.1551  0.1046
34777W        W91018  18.551  22.161  22.460 -0.1870  0.1853  0.0247
34778W        W91019  28.125  15.135  12.097  0.3043  0.2185  0.0565
34779W        W91020  11.781   4.301   9.624 -0.1276  0.0315  0.1362
34780W        W91021  14.435  14.770   7.014 -0.0204 -0.1384  0.1063
34781W        W91022  22.471  33.333  25.592 -0.2101  0.0056  0.0875
34782W        W91023  30.924   0.787  14.149  0.0937 -0.1127  0.0299
34783W        W91024  30.469  18.080  16.566  0.1227 -0.3914  0.1218
34784W        W91025  25.507   7.677  14.034  0.2156 -0.1036  0.1415
34785W        W91026  31.853  32.522   5.023 -0.0396  0.0875 -0.0956
34786W        W91027  34.538  26.685  17.490  0.4011 -0.1690 -0.0374
34787W        W91028  27.695  13.084   5.246 -0.0196  0.1373 -0.2179
34788W        W91029  19.463   5.773   9.301  0.4061 -0.2891  0.0978
34789W        W91030  20.276  23.140   6.819 -0.0086  0.0475 -0.1308
34790W        W91031   4.954  27.250  24.758  0.1143 -0.1950 -0.1176
34791W        W91032  34.852   5.675  15.585  0.1819  0.0218 -0.0920
34792W        W91033  32.916  31.035  18.989  0.0598  0.1861  0.1242
34793W        W91034  30.537  19.498  19.717  0.0508  0.1738 -0.1007
34794W        W91035   2.037  33.429   9.723  0.2694 -0.1392 -0.0327
34795W        W91036   8.556   5.280   7.221 -0.2323  0.1098 -0.2018
34796W        W91037  21.011   4.775  19.735 -0.2302 -0.0377 -0.3026
34797W        W91038  19.929  20.173  19.232  0.0992 -0.1402  0.0890
34798W        W91039   2.145  15.519   0.360  0.2715  0.3126 -0.0263
34799W        W91040  26.382  28.761  22.655  0.1150 -0.0753 -0.1914
34800W        W91041  20.281  33.043   1.950 -0.1881 -0.2346 -0.1919
34801W        W91042  16.296   9.681  11.718 -0.1157 -0.2157 -0.0468
34802W        W91043  16.329  17.855  10.801  0.0784 -0.0392 -0.0726
34803W        W91044  19.571   2.260  22.046  0.0213  0.0846 -0.2716
34804W        W91045  16.172  12.953  20.052 -0.0867 -0.3224 -0.6147
34805W        W91046  20.953   5.547  23.015  0.0210 -0.2168  0.0518
34806W        W91047  14.147  14.163  23.639 -0.3447 -0.0023  0.1145
34807W        W91048   6.747  25.333   0.700  0.0747 -0.2952 -0.1101
34808W        W91049  27.028  34.367   0.231  0.2451  0.0628 -0.0836
34809W        W91050  16.853   7.287   0.270 -0.1198 -0.0265 -0.1955
34810W        W91051  32.135  17.753  19.483  0.3542  0.1648  0.2856
34811W        W91052   2.947  31.135   8.116  0.1437 -0.0774  0.3343
34812W        W91053  20.050  10.102   7.107  0.1916  0.2689  0.2921
34813W        W91054   8.545  26.714  14.189 -0.2887 -0.1595 -0.1012
34814W        W91055  29.016  22.096   9.712  0.3473  0.0739 -0.2878
34815W        W91056   0.532  17.948  17.788  0.0117 -0.1060  0.2312
34816W        W91057  15.349  12.771  13.414 -0.0254  0.1525  0.0523
34817W        W91058   5.994  14.173   0.610  0.1948  0.2707  0.0258
34818W        W91059  10.699  34.555  15.024 -0.0787  0.0567 -0.3939
34819W        W91060  27.592   3.585  21.481  0.3166  0.0153 -0.2061
34820W        W91061  18.376  31.953  19.486  0.0052 -0.1131  0.1351
34821W        W91062  33.639  27.189   0.254 -0.3534 -0.0228  0.0324
34822W        W91063  15.967   5.914   6.676 -0.0135 -0.0196  0.0853
34823W        W91064  31.446  33.727  15.865 -0.3552  0.0153  0.0168
34824W        W91065  16.164   4.191  22.388  0.1564 -0.2416 -0.0212
34825W        W91066  11.645   1.910   8.914  0.1838  0.0375 -0.1759
34826W        W91067  15.349   8.410  13.841 -0.1341 -0.1691 -0.1526
34827W        W91068   1.965   6.011  14.725 -0.1447  0.0797  0.0932
34828W        W91069   1.401  18.053  18.319 -0.2087  0.0314 -0.1811
34829W        W91070  10.690  24.383   9.305  0.0288  0.0969  0.0593
34830W        W91071   4.163   4.137  25.376  0.2236 -0.6078  0.0716
34831W        W91072  15.237  31.106   9.218  0.1484  0.1579  0.3266
34832W        W91073   9.038  34.898  23.117  0.0208 -0.0333  0.1224
34833W        W91074   6.633   8.298  20.973  0.1573  0.0762 -0.6395
34834W        W91075  30.711  23.189  18.125  0.0334 -0.1376  0.1269
34835W        W91076  22.458  34.377   4.634 -0.0409 -0.1525 -0.2303
34836W        W91077  28.273   4.481  16.192  0.0270  0.0198 -0.0486
34837W        W91078   4.745  15.271  23.553 -0.3675 -0.4344  0.2355
34838W        W91079   4.026   6.541  21.162  0.0943  0.2243 -0.2959
34839W        W91080  21.427  25.827   6.593 -0.3416  0.2300  0.0346
34840W        W91081  14.998  10.235   4.752  0.3546  0.0956  0.2004
34841W        W91082  20.121  15.782   4.406 -0.0198 -0.0640  0.0745
34842W        W91083   0.823  13.654  22.867  0.2146 -0.1513 -0.1831
34843W        W91084  29.391  34.590   1.905 -0.0554  0.1853 -0.3244
34844W        W91085  24.238  12.616  16.903 -0.2649 -0.3582  0.0595
34845W        W91086  30.974  12.410  21.217 -0.0576 -0.1075  0.3200
34846W        W91087  19.857  17.165  17.694 -0.0089 -0.0554  0.0429
34847W        W91088   1.610  31.362   0.266  0.1420  0.1916 -0.1107
34848W        W91089  22.660   1.970  13.509  0.1491  0.0302 -0.2251
34849W        W91090  23.638   5.926  24.266  0.4365 -0.0555  0.1609
34850W        W91091  23.171  23.750  18.852 -0.0665 -0.0062  0.2396
34851W        W91092  13.917  14.605  23.788 -0.1764  0.2654  0.1126
34852W        W91093   8.087  34.321   7.526 -0.0669  0.0640 -0.0505
34853W        W91094   6.882   4.449   4.808 -0.0537  0.1130  0.0796
34854W        W91095   8.345  33.782   4.356  0.2934  0.1704  0.1002
34855W        W91096  23.307  22.340  15.208  0.0687 -0.1066 -0.2447
34856W        W91097  20.433  17.869  16.819  0.2420 -0.0170  0.2620
34857W        W91098   9.799   3.646   8.979 -0.3286 -0.1814 -0.0282
34858W        W91099  21.015  26.996   1.967 -0.2552  0.0544 -0.2754
34859W        W91100  27.637   1.317  22.446  0.1412  0.0672 -0.1588
34860W        W91101  10.501   3.747   1.730  0.0053  0.0440  0.1484
34861W        W91102  15.540  16.909   4.356  0.1572  0.4979 -0.0038
34862W        W91103  19.844  20.336  18.205  0.1198 -0.2260 -0.1552
34863W        W91104  26.168  23.181   9.665  0.2497 -0.0368  0.0307
34864W        W91105  29.607   4.908   1.008  0.4101  0.1052  0.3971
34865W        W91106   0.070  19.402  16.905  0.1012  0.1712 -0.0068
34866W        W91107   9.713   3.992   8.643 -0.2296 -0.2831  0.0197
34867W        W91108  10.570   5.789  11.822  0.0117 -0.2234 -0.2575
34868W        W91109  11.759  31.236   0.199  0.1296 -0.1698 -0.0672
34869W        W91110  13.642  34.525  11.889  0.0910 -0.0078 -0.2118
34870W        W91111   5.420  25.146   1.876 -0.1205  0.1635 -0.1442
34871W        W91112  26.249  31.023  12.139 -0.2762  0.3321  0.3569
34872W        W91113  18.767   5.318   0.932 -0.0826  0.4099  0.1534
34873W        W91114  17.409  31.859  23.579 -0.0949 -0.0582  0.1178
34874W        W91115  10.643  26.250  23.184  0.3629  0.1183 -0.0017
34875W        W91116   9.922   1.090  22.513 -0.0728 -0.2165 -0.2733
34876W        W91117  16.586  14.860   3.946 -0.0254  0.2496 -0.0273
34877W        W91118  25.126  13.224  10.140  0.0130 -0.1119  0.1164
34878W        W91119  31.940  31.854  24.822  0.1754  0.1213  0.3438
34879W        W91120  34.316  11.584   0.600 -0.1414 -0.2225 -0.2232
34880W        W91121  31.347   8.747  24.744  0.4541  0.1606 -0.2911
34881W        W91122  31.573   9.628  12.419 -0.1654  0.1153  0.2015
34882W        W91123  17.016  17.041  23.814 -0.2178  0.0821 -0.0452
34883W        W91124  25.120  15.633  15.748  0.2913  0.0976  0.0335
34884W        W91125  13.953  17.162   7.508 -0.3057 -0.0570  0.1053
34885W        W91126   0.270   3.497  21.940  0.1133 -0.0577 -0.2827
34886W        W91127  25.594  16.307  12.091 -0.1495 -0.3549  0.3030
34887W        W91128  11.909   5.172   9.128 -0.0937  0.0874 -0.0795
34888W        W91129  13.523   8.851  10.785 -0.1954 -0.0772 -0.0962
34889W        W91130  33.224   0.096   3.322 -0.3710  0.1435 -0.0055
34890W        W91131   4.392  18.589  22.178  0.0899  0.1165  0.2168
34891W        W91132  26.955  23.026   9.858  0.0863 -0.0394  0.0035
34892W        W91133  11.290  23.964  23.573  0.3674 -0.0826  0.4853
34893W        W91134   9.059  27.108  21.614 -0.1379  0.0713  0.0056
34894W        W91135  26.878  20.100   5.919 -0.1051 -0.1538 -0.0242
34895W        W91136   5.037  27.916   3.150 -0.0333 -0.1771 -0.3266
34896W        W91137  26.351  13.276   8.363  0.0041 -0.0747  0.2142
34897W        W91138   2.227  34.878  20.808  0.0103 -0.2796  0.3218
34898W        W91139   8.836   5.285  25.470 -0.2430 -0.0879 -0.1199
34899W        W91140   3.197   3.074   0.299  0.1289 -0.1031 -0.4240
34900W        W91141   9.325   8.054   1.977  0.0839 -0.1698 -0.1280
34901W        W91142  30.918  23.956   8.917  0.1112  0.0697  0.3015
34902W        W91143  31.349   4.190   4.190  0.1083 -0.1391 -0.0381
34903W        W91144   2.749  27.287   2.288  0.1526  0.1420 -0.1937
34904W        W91145   9.395   8.179   4.055  0.1479  0.0945  0.2503
34905W        W91146   4.711  30.846   6.247  0.2971  0.0580 -0.2627
34906W        W91147  14.265  33.529  21.562 -0.2065  0.0924 -0.1697
34907W        W91148  27.996  11.028  11.571 -0.1378 -0.3289 -0.0670
34908W        W91149  10.875  14.944  20.973  0.1581  0.2305  0.0177
34909W        W91150  25.413  29.771   5.183  0.1131  0.3105 -0.0372
34910W        W91151  26.276  25.128   9.405 -0.0039 -0.0217 -0.0873
34911W        W91152   0.671  12.614  14.259  0.1276 -0.1124  0.0237
34912W        W91153  34.225   8.651  12.663  0.3476  0.2618 -0.0222
34913W        W91154   6.803   2.693   7.067  0.1820  0.0141  0.0819
34914W        W91155  18.326  12.568   9.411  0.2828  0.2472  0.2840
34915W        W91156  18.353  21.669   8.105  0.0184  0.1469 -0.0565
34916W        W91157  26.748  12.284  10.269 -0.1679  0.1515  0.3031
34917W        W91158  25.116   3.196   0.366 -0.0223  0.1375  0.0320
34918W        W91159  27.459  12.783   8.392  0.2945  0.2779 -0.0920
34919W        W91160   0.002   0.166  19.836 -0.1925 -0.0965 -0.2066
34920W        W91161  28.118   6.442  25.295 -0.3108 -0.0665 -0.1157
34921W        W91162  32.953  16.300  12.404 -0.0821 -0.1321 -0.0902
34922W        W91163  22.373  14.582  25.397 -0.4201  0.2964 -0.0552
34923W        W91164  34.504  31.221  21.819  0.2542 -0.2358 -0.0597
34924W        W91165  10.875   9.294   0.196 -0.4091  0.0619 -0.1872
34925W        W91166  14.380  31.882  22.443 -0.3795 -0.0698 -0.0150
34926W        W91167  16.974  14.414  18.301  0.3068 -0.0550  0.1080
34927W        W91168  29.655  23.447   5.078  0.2960 -0.1992  0.2443
34928W        W91169   1.673  11.079  25.162  0.0696 -0.0030  0.0766
34929W        W91170   2.529  14.249  16.128 -0.0483  0.2545 -0.2464
34930W        W91171   5.945   3.429  20.450 -0.2587  0.1042 -0.1192
34931W        W91172  17.186   2.745  20.111  0.2852 -0.0321  0.1548
34932W        W91173  23.732  26.891  23.804 -0.0062  0.4181  0.0508
34933W        W91174   2.705  28.504  25.472 -0.1468 -0.2553 -0.1336
34934W        W91175  12.525  32.979   1.932 -0.2468 -0.3108 -0.1362
34935W        W91176  34.673  12.692  25.087 -0.1523 -0.2169 -0.0605
34936W        W91177  13.807  32.609  26.012 -0.2752 -0.1322  0.1726
34937W        W91178  25.165  26.086   9.749 -0.1383 -0.1609  0.0814
34938W        W91179  27.972   9.264  18.357 -0.1041 -0.2869 -0.4111
34939W        W91180  20.084   0.740  22.085 -0.1508 -0.1109 -0.0712
34940W        W91181  12.120  18.647  24.455  0.0399  0.0622  0.0057
34941W        W91182  18.118  21.270  22.223 -0.0985  0.2680 -0.1310
34942W        W91183  18.940  35.090   8.473  0.0122  0.0828 -0.2838
34943W        W91184  22.463   7.112  21.013  0.2024 -0.0420 -0.1456
34944W        W91185  34.068   0.539   7.254 -0.0748  0.1619  0.2748
34945W        W91186  23.315  33.909  22.704  0.0823 -0.1632 -0.0836
34946W        W91187  27.469  19.863  17.703  0.2282  0.4109 -0.1589
34947W        W91188   4.171  32.454  19.923  0.1396 -0.0469  0.3405
34948W        W91189   8.383   4.455  13.256  0.0146  0.2135  0.0736
34949W        W91190  31.178  18.841  20.749  0.0246 -0.0972  0.0709
34950W        W91191   8.429  18.051   0.484 -0.1452 -0.3154  0.2614
34951W        W91192   8.288  28.843   0.119  0.0948  0.0485  0.0583
34952W        W91193  31.190  24.678  11.865 -0.0302 -0.1106 -0.1089
34953W        W91194  15.869  21.160   1.130  0.1425  0.2882 -0.0698
34954W        W91195   7.998  10.141  13.054 -0.0447 -0.0363 -0.1476
34955W        W91196  13.288  10.013   8.354  0.2512  0.2353 -0.1985
34956W        W91197  17.320   7.048  21.523  0.1163 -0.1068 -0.0826
34957W        W91198   8.177   7.202   4.776  0.1476 -0.0388  0.0858
34958W        W91199  17.014  26.164  24.477  0.0178  0.0887  0.3027
34959W        W91200   8.777   7.790   0.658 -0.1246 -0.2857  0.1838
34960W        W91201  29.823  30.152   4.386  0.1515 -0.4984  0.0407
34961W        W91202  16.500  21.795   3.103  0.2280 -0.0819  0.1090
34962W        W91203  11.589   4.492  21.859 -0.1910  0.0584  0.0637
34963W        W91204  33.518   5.938  16.535  0.3676  0.0248 -0.0162
34964W        W91205  24.169   0.687  16.471 -0.2441  0.0190  0.1797
34965W        W91206   6.149  26.008   2.084 -0.1223  0.0690 -0.2005
34966W        W91207  17.849  11.077   1.377  0.0723  0.3558  0.0693
34967W        W91208  34.652  31.811  25.244 -0.3060 -0.1399 -0.1650
34968W        W91209  34.593   6.572  20.494  0.1774 -0.0163 -0.4468
34969W        W91210  11.473  34.110  14.136 -0.2570 -0.0762 -0.0508
34970W        W91211  27.484  10.293  16.201 -0.3496  0.0891 -0.4089
34971W        W91212  29.483   8.483  13.405 -0.0077 -0.0735 -0.0928
34972W        W91213  12.088   0.846  23.796 -0.1512 -0.1320 -0.0054
34973W        W91214  29.675  20.773  13.654  0.1438 -0.1077  0.2261
34974W        W91215  27.703  10.673   6.098  0.1172  0.1147  0.0229
34975W        W91216  16.566   4.464  22.803  0.3530 -0.0855  0.3585
34976W        W91217  34.266  34.282  16.959 -0.1591 -0.1417  0.2287
34977W        W91218  25.167  27.207  19.123  0.0998  0.0295  0.3097
34978W        W91219  11.611  27.274  13.847  0.0047 -0.0961 -0.4969
34979W        W91220  25.312  10.892  26.141  0.0342  0.3373 -0.1979
34980W        W91221  12.535  34.985   2.559 -0.1889  0.1031 -0.1603
34981W        W91222   0.738  13.598   0.431  0.1785 -0.3454 -0.3265
34982W        W91223  29.659  30.357  18.874  0.5102  0.0695  0.0444
34983W        W91224   9.148  32.945  12.878 -0.1231 -0.2319  0.3110
34984W        W91225   9.194  10.904  13.268  0.1512  0.0389 -0.0974
34985W        W91226   7.047  12.782  17.400 -0.1009  0.0809  0.1676
34986W        W91227   8.325  33.184  13.549 -0.1710  0.0644 -0.0341
34987W        W91228   0.911   3.746   0.165  0.0098 -0.0838 -0.1952
34988W        W91229  29.921  31.551   3.654  0.2565  0.2053  0.0418
34989W        W91230   7.105  27.506  13.733  0.0420 -0.0593  0.0027
34990W        W91231  29.667   7.602  15.254  0.0122  0.3344 -0.1058
34991W        W91232  10.173   6.130  23.515  0.0548  0.0353 -0.0745
34992W        W91233   3.673  27.052   5.049  0.1858 -0.0890  0.0493
34993W        W91234  16.415  30.100  12.176  0.1036 -0.1670 -0.2386
34994W        W91235  22.009  19.893   1.390  0.0206  0.6704  0.0510
34995W        W91236   4.000  10.657   4.794 -0.1372  0.0931  0.3176
34996W        W91237  17.322   0.570  20.613  0.3681  0.0541  0.0383
34997W        W91238  29.217  10.425  21.288  0.0977 -0.2375 -0.2527
34998W        W91239   8.426  34.658  23.908 -0.0600  0.0389 -0.0107
34999W        W91240  22.911   4.529   4.322  0.3259  0.2115 -0.2439
35000W        W91241  21.213  22.710   4.448  0.2222  0.0468  0.0952
35001W        W91242  34.103  31.911  16.930 -0.0956 -0.2122 -0.0538
35002W        W91243  24.400  20.574   1.879  0.0425 -0.1502  0.0321
35003W        W91244  34.869   5.679  21.440 -0.0255 -0.0539 -0.0292
35004W        W91245  23.384  18.263  19.125  0.2102  0.0449 -0.0313
35005W        W91246   8.768   3.337   3.177  0.0268 -0.0956 -0.0770
35006W        W91247  28.809  16.601   8.719 -0.0031 -0.1102  0.5661
35007W        W91248  20.282   4.365  26.248  0.2908  0.0736 -0.3866
35008W        W91249  21.811   4.843  14.573 -0.0313  0.2166  0.1184
35009W        W91250  18.391  13.833   6.994 -0.0199  0.0426 -0.0342
35010W        W91251  19.968   5.301  25.077 -0.3163  0.0431 -0.1462
35011W        W91252   0.326  24.558  17.842 -0.0248  0.0687  0.1556
35012W        W91253  14.936  13.526   7.370 -0.0470 -0.1284 -0.0547
35013W        W91254  23.669  15.106  20.165 -0.1070 -0.0662 -0.0918
35014W        W91255   9.800  12.373  18.925  0.3914 -0.0627 -0.3903
35015W        W91256   6.177  18.768   2.167  0.1682  0.1718 -0.0686
35016W        W91257  13.286  10.743   5.966 -0.1107 -0.1978 -0.1835
35017W        W91258  17.720  22.441  23.379  0.1434 -0.0179 -0.1600
35018W        W91259  34.646  15.978  13.651  0.1784  0.3228 -0.0278
35019W        W91260  16.851   7.092   9.721  0.4982  0.1479 -0.1592
35020W        W91261  19.101  29.156  21.237 -0.2697  0.3994  0.0043
35021W        W91262  29.996  18.422  16.249  0.1939 -0.2044  0.0056
35022W        W91263  13.683  33.447  10.852 -0.1390  0.3294  0.3731
35023W        W91264  23.778   9.654  17.374  0.1960  0.3881  0.1026
35024W        W91265  15.031  20.587  25.981  0.1128  0.0639 -0.3253
35025W        W91266  15.975  16.350  18.987 -0.0469  0.2995 -0.1385
35026W        W91267   8.101   4.297  10.698 -0.2749  0.1494  0.1712
35027W        W91268  18.647  24.858  10.571 -0.0818 -0.2011 -0.0476
35028W        W91269  21.628  31.982  23.777 -0.0140 -0.2510  0.0818
35029W        W91270  13.783  21.768   3.826 -0.4334 -0.2629  0.0522
35030W        W91271  11.665  21.310   6.151 -0.0859 -0.1015  0.2432
35031W        W91272  16.023   4.448  20.225 -0.2759  0.3057  0.1616
35032W        W91273   9.467  23.655   0.009 -0.0691  0.1000 -0.1322
35033W        W91274  33.115   1.992   7.231  0.0687 -0.0560  0.0143
35034W        W91275   6.376  32.317  11.574  0.3535 -0.2106  0.1364
35035W        W91276  25.677  30.148  12.476  0.1546 -0.1020  0.1222
35036W        W91277  10.758  29.484  10.064  0.0129 -0.2603 -0.0316
35037W        W91278  11.083   2.244  10.627  0.1790 -0.2672 -0.0854
35038W        W91279  11.786  22.694  13.712 -0.0185  0.4491  0.0457
35039W        W91280  31.495  27.151  15.358 -0.1153  0.1255 -0.0678
35040W        W91281   8.360  24.871  13.599 -0.1746  0.0021  0.0217
35041W        W91282  17.713   3.687   9.720 -0.0464  0.0123 -0.1028
35042W        W91283  10.425  32.426   1.958 -0.1795  0.1341 -0.1140
35043W        W91284  20.239   1.142   2.696 -0.2116 -0.1162 -0.3329
35044W        W91285   7.575  13.470   0.441  0.0055 -0.0920 -0.1944
35045W        W91286   5.750  32.631  12.863 -0.2339  0.1179 -0.3826
35046W        W91287  13.814  34.002  24.571 -0.0175 -0.1543  0.3344
35047W        W91288  25.998  31.649  25.769 -0.3888  0.2538  0.0464
35048W        W91289   7.203   7.589  21.398  0.1751 -0.1260 -0.0036
35049W        W91290  12.426  18.465  24.122 -0.3270 -0.1322 -0.0567
35050W        W91291  13.846  19.186   7.842 -0.0832  0.1842 -0.0816
35051W        W91292   4.804  19.296  24.347 -0.0901 -0.2763 -0.1842
35052W        W91293  13.192   3.542   7.210  0.0179 -0.1310  0.1221
35053W        W91294   2.873  29.206  10.965 -0.0926  0.2267 -0.1158
35054W        W91295  26.278  12.750  20.505 -0.2752 -0.0204 -0.1138
35055W        W91296  25.445   7.428  23.873  0.2235 -0.1055 -0.0677
35056W        W91297   2.324   6.614   2.915  0.3458 -0.0996 -0.1106
35057W        W91298   9.570  25.322  12.926  0.2277 -0.3112 -0.0800
35058W        W91299  13.200  25.375  24.746  0.1195  0.2439  0.2012
35059W        W91300   5.880  28.509   4.330  0.1584  0.0658 -0.3215
35060W        W91301  32.716   8.588  19.645  0.1961 -0.0878 -0.0209
35061W        W91302  30.531   7.869  12.888  0.2949  0.2767  0.1482
35062W        W91303   1.237  33.943   2.714 -0.0458  0.0306 -0.2861
35063W        W91304   8.898  28.945   4.141 -0.0044 -0.0475  0.1898
35064W        W91305   1.654  20.832  14.368  0.1454 -0.2856  0.2174
35065W        W91306  16.726  34.910  21.294  0.0966 -0.0991  0.1097
35066W        W91307  22.712  21.522   1.912  0.0496  0.1766  0.0957
35067W        W91308   9.876  24.226   8.718 -0.2938  0.1277  0.0924
35068W        W91309  30.299  34.033   0.463  0.1775 -0.2639  0.1812
35069W        W91310  22.787  20.992  24.296 -0.4238  0.0775 -0.0997
35070W        W91311  27.130  33.902  17.614 -0.0046 -0.2243 -0.2023
35071W        W91312   9.945  16.307   7.614 -0.0948 -0.4538  0.0422
35072W        W91313   1.759  29.850  22.595  0.0170 -0.2126  0.0721
35073W        W91314  17.312  27.823   7.845  0.1998 -0.1610  0.1717
35074W        W91315  30.130   2.781  12.366 -0.0065  0.3426 -0.0271
35075W        W91316  13.122  16.208   8.410  0.0330 -0.0546 -0.0260
35076W        W91317  30.167  13.344  21.485 -0.0505 -0.0700  0.0750
35077W        W91318  10.505  29.883  13.591  0.0021 -0.3220  0.2973
35078W        W91319  30.019  13.260  15.309 -0.0097  0.1659 -0.0101
35079W        W91320  32.139  14.790  23.651  0.0429 -0.1736  0.4589
35080W        W91321  33.953  26.314  14.794  0.1608 -0.5404  0.0146
35081W        W91322  28.956  27.881  13.012  0.0145  0.0324  0.1888
35082W        W91323  13.546  31.486  20.563  0.3526 -0.2224  0.2960
35083W        W91324  22.478   8.314   3.682 -0.0071  0.0139  0.3441
35084W        W91325  12.268  29.558   0.409 -0.0079 -0.2340  0.0589
35085W        W91326   2.692  25.342  23.782 -0.1372 -0.0072  0.1147
35086W        W91327  30.856   7.270  22.437 -0.1345 -0.0914  0.1398
35087W        W91328  33.610  34.166  18.069  0.0658  0.2650 -0.2537
35088W        W91329  33.417  27.924  13.031  0.3951 -0.0086 -0.2542
35089W        W91330  18.471  20.637   7.203 -0.0382 -0.0527 -0.1463
35090W        W91331  11.843  31.998   3.654  0.1652 -0.0050 -0.0890
35091W        W91332  29.325   9.973  22.239 -0.1698  0.0436  0.3652
35092W        W91333  33.090  25.065  26.114 -0.0836 -0.1386 -0.0037
35093W        W91334  20.445   8.856   1.569  0.2434 -0.0621  0.1017
35094W        W91335  14.281  17.480  22.577  0.1302  0.1041  0.1078
35095W        W91336   2.749   4.021  15.934 -0.2621  0.0788  0.0069
35096W        W91337  34.052   3.981  19.321  0.0187  0.2062  0.1193
35097W        W91338   8.893   0.911   4.699 -0.1709 -0.0442 -0.0743
35098W        W91339  11.839  26.659  12.219  0.1748 -0.1920 -0.2266
35099W        W91340  17.452   5.502  23.831 -0.1773 -0.2064  0.0316
35100W        W91341   4.889  28.942   6.182  0.2933  0.1004  0.0766
35101W        W91342  13.021  14.106  22.734  0.1037  0.1462  0.1030
35102W        W91343  12.253  12.823  14.202 -0.1606  0.0189 -0.1433
35103W        W91344   8.662  24.085  13.248  0.0940 -0.1005  0.0450
35104W        W91345  10.029  26.474   6.060  0.0269 -0.1896  0.3303
35105W        W91346   5.647  11.137  20.035 -0.3485 -0.2775  0.0830
35106W        W91347   8.615   6.040   0.681 -0.0212 -0.1746  0.3625
35107W        W91348  35.269   1.091  14.335 -0.0171  0.0007  0.0649
35108W        W91349  33.828  10.812   8.910  0.1060 -0.1041 -0.1395
35109W        W91350  17.855  19.967  25.106  0.2784  0.2719  0.3102
35110W        W91351  23.377  29.256  22.119 -0.1406  0.0379 -0.1555
35111W        W91352  27.573   6.359  21.498  0.0742 -0.0501 -0.0818
35112W        W91353  25.128  30.023  10.809  0.1759 -0.1015 -0.1984
35113W        W91354  18.661  20.250  11.199  0.0878 -0.1821 -0.0164
35114W        W91355  14.901  12.798   7.293  0.0037 -0.0485 -0.1290
35115W        W91356  20.062  14.073  26.123  0.1114  0.3682  0.0667
35116W        W91357   2.963  31.599   0.491  0.3938  0.0715 -0.0841
35117W        W91358  20.180  13.769  25.772  0.2649 -0.0197  0.2864
35118W        W91359  17.527  20.535  10.635 -0.3908 -0.4201  0.1890
35119W        W91360  12.735  25.588   9.902  0.2192 -0.1975 -0.2020
35120W        W91361  14.875  27.299  25.453  0.1823 -0.0131 -0.2344
35121W        W91362   7.935  18.440   2.015 -0.1336 -0.2529  0.2571
35122W        W91363  26.638  16.983  21.108  0.1576  0.1884  0.1209
35123W        W91364   2.514  22.289   1.570 -0.0024  0.1190 -0.0688
35124W        W91365  32.390  16.354  21.515 -0.1755 -0.0264 -0.2425
35125W        W91366  32.672  35.175  12.358  0.2600  0.1604  0.1482
35126W        W91367  10.428  29.859   9.937  0.0347  0.0442  0.0992
35127W        W91368  29.482  34.721  20.924  0.2545 -0.2552 -0.5191
35128W        W91369  10.038   9.354   3.912  0.1907  0.1834  0.1830
35129W        W91370  10.029  28.743   6.339 -0.0566 -0.3358  0.0144
35130W        W91371   0.441  24.462  16.109  0.0022 -0.1666  0.0041
35131W        W91372   1.211   6.117  13.650 -0.3531  0.2029 -0.3698
35132W        W91373  16.594   9.668  25.608 -0.1991 -0.0801  0.1706
35133W        W91374   3.961  33.333   5.487 -0.1991 -0.0390 -0.2656
35134W        W91375   6.461   8.942   9.444  0.0714  0.3091 -0.2546
35135W        W91376  15.322  14.660  20.654 -0.1931  0.0773 -0.1314
35136W        W91377  21.835   5.557  24.613  0.1252 -0.3656  0.2494
35137W        W91378  27.510   1.202   3.845  0.0921  0.1002 -0.1551
35138W        W91379  32.879  19.530  12.663 -0.2315  0.4197 -0.0627
35139W        W91380   4.209  33.352  19.853 -0.0874 -0.0104 -0.2497
35140W        W91381  29.732  34.325  13.713  0.0394  0.1898  0.1162
35141W        W91382  18.202  12.475   3.315  0.1251  0.0227 -0.0237
35142W        W91383  30.640   5.877   2.058  0.2015 -0.1812  0.0767
35143W        W91384  13.257  33.341  12.927 -0.1410 -0.1549 -0.2524
35144W        W91385  34.634   0.672   1.414 -0.2526 -0.1348  0.2289
35145W        W91386   3.600  16.100   2.507 -0.3304 -0.2111  0.1763
35146W        W91387  24.838  30.254  21.199 -0.0740 -0.0424  0.2058
35147W        W91388   7.201   9.723   4.135 -0.0140 -0.0976  0.0172
35148W        W91389  27.405  14.258  13.763  0.0155  0.0567  0.0792
35149W        W91390  24.995  33.844   6.035  0.2875  0.0807 -0.0760
35150W        W91391  13.011  31.736  12.230 -0.2758 -0.2608 -0.1438
35151W        W91392  11.238  23.903  12.266 -0.2165  0.0770 -0.0002
35152W        W91393   7.823  12.762   2.062  0.2536  0.2281  0.0876
35153W        W91394  27.026  23.305  15.032 -0.1439 -0.0102 -0.0030
35154W        W91395   6.987  11.368  21.297  0.1308 -0.1466  0.0958
35155W        W91396   2.957   6.733   1.391 -0.0178  0.2091  0.0544
35156W        W91397  10.550  14.905   1.755 -0.4190 -0.0523 -0.2231
35157W        W91398   4.466  18.175  24.294 -0.1267 -0.1479 -0.1945
35158W        W91399  12.615   0.460  22.654  0.5039  0.2392  0.2368
35159W        W91400   1.443   3.145   1.217 -0.1221 -0.5107  0.1851
35160W        W91401  10.839  26.705  23.091  0.0358  0.0727 -0.1251
35161W        W91402  12.158   6.938  24.039  0.0106 -0.0929 -0.1507
35162W        W91403   6.991  13.319  21.670 -0.1578  0.0175  0.3445
35163W        W91404  13.574   6.904  20.931 -0.0116 -0.2412 -0.1105
35164W        W91405  18.324  28.498  25.866  0.2374 -0.2461 -0.0777
35165W        W91406   0.694   2.604  17.122  0.0497  0.0077 -0.1877
35166W        W91407   0.767  15.756  20.701  0.1034  0.3098  0.0641
35167W        W91408  28.180  25.134  18.108  0.0673 -0.3463  0.0827
35168W        W91409  23.617  34.875  24.655  0.1657 -0.1805  0.1370
35169W        W91410  21.103  25.830  16.587  0.0238 -0.0988 -0.0493
35170W        W91411  21.905  27.167  19.885  0.0364 -0.0205 -0.3238
35171W        W91412  28.378  17.352   0.068 -0.1429  0.1492  0.1257
35172W        W91413  27.122   4.747  21.399 -0.1484 -0.1941  0.2012
35173W        W91414  24.268   2.260   1.314 -0.2360  0.1579  0.0381
35174W        W91415  28.274  31.613  11.080 -0.0694  0.2853  0.1804
35175W        W91416   5.964  10.965   1.459 -0.0024 -0.2037  0.0047
35176W        W91417  29.514  29.546  16.546 -0.2010 -0.1819 -0.1155
35177W        W91418   3.656   4.473   2.457 -0.1908 -0.1478  0.0811
35178W        W91419  34.186   5.432  19.262 -0.1892 -0.1547  0.1124
35179W        W91420  29.851   9.260  12.912  0.1990 -0.0706  0.0190
35180W        W91421   9.375  17.082  25.399  0.0409  0.0218 -0.0515
35181W        W91422  34.991  14.498  10.252  0.1535  0.0533  0.1101
35182W        W91423   3.226  19.101  23.877 -0.1458  0.2574 -0.3063
35183W        W91424   4.387  11.594   4.002 -0.0087  0.2567  0.3753
35184W        W91425   6.033   4.409   8.709  0.1279 -0.0685 -0.0462
35185W        W91426  12.488   1.495  23.175 -0.0745  0.0598  0.3625
35186W        W91427  15.795  30.049   4.976  0.3499  0.1655  0.0897
35187W        W91428  27.862  28.216  15.232  0.0076  0.0422  0.1885
35188W        W91429   4.690  30.088   6.963 -0.0896  0.1017  0.0941
35189W        W91430  23.620  25.590  13.787 -0.3379  0.0205 -0.2052
35190W        W91431  33.940  20.694   0.268  0.1248  0.0665  0.1342
35191W        W91432   4.742   8.387   5.846  0.2535 -0.0223  0.3921
35192W        W91433   0.027   7.293  12.132  0.1674  0.1851  0.0128
35193W        W91434  27.538   9.693  17.052 -0.1057 -0.0421  0.0471
35194W        W91435   7.343  22.514  23.242  0.4565 -0.0537 -0.3164
35195W        W91436   6.354  29.050   1.355  0.2925 -0.1878 -0.4115
35196W        W91437  31.852  21.114  20.902 -0.3396 -0.1745  0.0319
35197W        W91438  12.330  16.880  13.267 -0.0214 -0.0370 -0.1105
35198W        W91439   6.032  21.520   1.784 -0.0297 -0.0969 -0.1867
35199W        W91440   6.377   2.718   1.234 -0.2710 -0.0596 -0.3243
35200W        W91441   0.262  15.842  15.749 -0.0375 -0.1626 -0.1869
35201W        W91442   5.739  15.288   6.726 -0.0290 -0.2287 -0.3544
35202W        W91443   1.292  32.369  20.045  0.0772  0.2133  0.1278
35203W        W91444   3.383   7.603   5.597 -0.0258 -0.0708 -0.2264
35204W        W91445   7.826   1.755   1.348  0.1978  0.0227 -0.1032
35205W        W91446   1.308  19.403  22.222 -0.0411  0.0124 -0.0948
35206W        W91447  24.748  10.036   1.648 -0.0841 -0.2090 -0.1110
35207W        W91448  15.201  32.447   6.143  0.4178 -0.1473  0.0826
35208W        W91449   3.828   9.180  16.129  0.1905 -0.0114 -0.0540
35209W        W91450  30.322   0.240  16.227 -0.0387 -0.2227 -0.0261
35210W        W91451   7.855  27.494  22.169 -0.0029  0.0704 -0.0742
35211W        W91452   8.780   5.436   5.751 -0.0615 -0.0088 -0.0357
35212W        W91453  31.686  10.255  19.589  0.0569  0.3107  0.0750
35213W        W91454  19.756   5.100  26.122 -0.0932  0.1953  0.1518
35214W        W91455  30.960  22.659  24.089  0.1158 -0.0271  0.1053
35215W        W91456  14.611   2.072  12.300  0.0670  0.1756 -0.1763
35216W        W91457  18.710  35.280   1.457 -0.1468 -0.0447  0.3846
35217W        W91458   4.636  34.402   7.440 -0.1514  0.2825 -0.0143
35218W        W91459   9.224  26.596  16.976 -0.0647 -0.0956 -0.1382
35219W        W91460  33.507  34.388   6.885 -0.0361  0.0151  0.1082
35220W        W91461  21.871  15.101   1.468 -0.6622  0.1445 -0.2025
35221W        W91462  34.246   6.434   1.592  0.3640 -0.1037 -0.0056
35222W        W91463  12.593   3.251  23.166  0.1180 -0.1264 -0.2146
35223W        W91464  31.072   6.736  21.887 -0.1226 -0.3104  0.0118
35224W        W91465  20.319  19.866  17.627  0.2091  0.1216 -0.0727
35225W        W91466  26.796   1.598   6.588 -0.1853  0.1330 -0.1943
35226W        W91467  21.905  26.784  24.792 -0.2006  0.0046 -0.0164
35227W        W91468  28.501  14.515   0.385  0.1546 -0.0715  0.1418
35228W        W91469  15.675  15.374   5.704  0.1477  0.0379 -0.1503
35229W        W91470  26.266  19.955  10.320 -0.2858 -0.2021  0.4559
35230W        W91471  30.911  15.419   1.045  0.0901 -0.2097  0.1819
35231W        W91472  32.068   8.406   0.013 -0.1054  0.1862 -0.0356
35232W        W91473   1.579   3.477  20.502 -0.0491  0.3458 -0.0931
35233W        W91474   8.457   8.401  24.221  0.0448 -0.0698  0.1816
35234W        W91475   7.887  16.426  25.134 -0.0277 -0.1766  0.0241
35235W        W91476  23.889  23.203  16.720  0.1120 -0.1448  0.1252
35236W        W91477   5.690  30.494  11.418 -0.1265 -0.0873  0.1299
35237W        W91478  10.189  32.957  21.187  0.0452 -0.0385 -0.0282
35238W        W91479   4.099  10.263   8.477 -0.0276  0.1841 -0.2258
35239W        W91480  26.498  27.490  20.857 -0.0714 -0.1247 -0.1146
35240W        W91481  24.436  30.218  15.934 -0.1633  0.2273  0.0688
35241W        W91482   0.747  35.006  26.003 -0.3666 -0.0334  0.1260
35242W        W91483   5.346   9.256   8.426 -0.1318 -0.2970 -0.1419
35243W        W91484   9.683   8.446  12.203 -0.1595  0.2060  0.3636
35244W        W91485  28.149   9.653   8.770  0.0537 -0.0165 -0.1331
35245W        W91486   2.050  17.096  19.797  0.1865  0.1052  0.1758
35246W        W91487  25.615  25.064  11.914  0.1177  0.1897 -0.2213
35247W        W91488  10.104  26.357  13.034  0.0911 -0.0950 -0.0261
35248W        W91489  28.914  16.683   9.360  0.0406  0.1652 -0.0698
35249W        W91490  12.062  32.333  11.158  0.0876  0.2378  0.1097
35250W        W91491  26.725  20.335  18.740 -0.2081  0.0209 -0.0251
35251W        W91492   9.765  12.432   6.806  0.0461  0.0246  0.2738
35252W        W91493  23.577  20.581  25.363 -0.0301 -0.0250  0.0303
35253W        W91494   1.333   7.439  23.292  0.0930  0.0475  0.1263
35254W        W91495   1.216   9.282  14.012 -0.0826  0.0261  0.0718
35255W        W91496   8.887  16.369   0.193  0.0481  0.1360  0.0769
35256W        W91497  16.094   7.060   4.700 -0.0932 -0.1010 -0.0006
35257W        W91498   4.515  16.124  18.185  0.0004  0.3020 -0.2725
35258W        W91499  27.267   7.865   9.724  0.1560  0.2193 -0.1113
35259W        W91500  19.662   8.713   3.202 -0.2689  0.1154  0.1471
35260W        W91501   1.735  19.372   1.764  0.0665 -0.3112 -0.0485
35261W        W91502   7.121   3.648  25.403 -0.1301  0.0704 -0.0027
35262W        W91503  24.855  18.329  11.348  0.3550 -0.0692  0.0719
35263W        W91504  15.143   9.840   2.383  0.1973  0.1844 -0.0241
35264W        W91505  31.862   1.266  22.714 -0.1136  0.3682 -0.2031
35265W        W91506  27.585  20.009  13.535 -0.2104  0.1449  0.1048
35266W        W91507  21.235   3.611   5.473  0.1624  0.0228  0.0163
35267W        W91508  24.187  27.018  10.571  0.1498 -0.2065 -0.1215
35268W        W91509   8.221  14.111   2.974 -0.1508  0.4395  0.1791
35269W        W91510  13.861  35.020  21.791 -0.2377 -0.1530  0.0137
35270W        W91511  34.045  33.740  19.809 -0.0355  0.1279 -0.1233
35271W        W91512   0.817   2.817  20.673 -0.2267  0.1286 -0.2660
35272W        W91513  29.757  18.246  24.148  0.3722  0.0108  0.1472
35273W        W91514  28.215  26.425  12.905  0.4443 -0.1388 -0.3179
35274W        W91515   9.863   4.363  20.008 -0.0889 -0.0178 -0.0783
35275W        W91516   3.155  12.139  24.811 -0.1196 -0.2381 -0.2491
35276W        W91517  27.081  21.002  25.469 -0.0622 -0.1686 -0.2229
35277W        W91518  23.426   8.705  17.641  0.0587  0.1833  0.1041
35278W        W91519  12.696  12.800  22.942 -0.1289  0.2089  0.2392
35279W        W91520   7.184  24.260  25.694 -0.1371 -0.1701 -0.0458
35280W        W91521  32.007  13.945  25.411  0.0641 -0.2051 -0.3290
35281W        W91522  34.411  15.968   0.807  0.1691  0.0762  0.0442
35282W        W91523   9.555  29.201   3.297  0.1541  0.0853 -0.2319
35283W        W91524  17.686  23.685  22.773  0.3062 -0.1296  0.0666
35284W        W91525  27.456  18.036  14.398  0.1627 -0.0556 -0.4367
35285W        W91526  10.886  29.514  21.998 -0.0617 -0.3691  0.0510
35286W        W91527  30.146  33.226  18.145 -0.0085 -0.0590 -0.1121
35287W        W91528  29.869  22.094  18.100 -0.1289  0.0332  0.0204
35288W        W91529   7.288  26.818   9.869 -0.1471  0.2457  0.1439
35289W        W91530  24.043  34.623  24.512 -0.0281 -0.1649  0.1629
35290W        W91531  25.640  31.336  13.085 -0.2139  0.5382  0.0069
35291W        W91532  19.288  10.161   0.094 -0.0396 -0.1656 -0.2262
35292W        W91533  27.496  11.867   0.692 -0.0166  0.1072  0.2748
35293W        W91534  24.457  14.866   0.473 -0.0485 -0.1542 -0.2037
35294W        W91535  16.847  22.241  11.865 -0.2206 -0.2034  0.1251
35295W        W91536  32.643   0.004  20.136 -0.1098  0.1934  0.0543
35296W        W91537  27.660   1.026   0.024 -0.1315  0.1836  0.1503
35297W        W91538   0.951  27.752   5.429 -0.0495  0.2386 -0.3042
35298W        W91539  34.005  20.277  15.341  0.1112  0.2117  0.1835
35299W        W91540  18.206  22.412  12.055  0.0942 -0.0855  0.0692
35300W        W91541  17.073   6.117   9.159 -0.0531 -0.1661  0.0086
35301W        W91542  22.698   1.207   2.396 -0.0912  0.1049  0.1490
35302W        W91543   5.940  28.280  12.121  0.2526 -0.2279  0.0795
35303W        W91544   0.211  16.392   8.998 -0.0856 -0.2412 -0.1595
35304W        W91545  29.611   9.293  15.659 -0.0028  0.2919 -0.1378
35305W        W91546   0.517  21.729  21.230 -0.0165 -0.1409  0.1120
35306W        W91547  15.734   0.573  25.972 -0.2952 -0.1637  0.1250
35307W        W91548   6.792  16.934  20.257  0.3030 -0.2223 -0.1273
35308W        W91549  33.227  28.450   1.050 -0.1182 -0.0133  0.1181
35309W        W91550  34.293   4.640   0.192  0.2589  0.2660 -0.0049
35310W        W91551   2.900  31.619   7.332  0.2377  0.0862  0.1419
35311W        W91552  24.311  28.992  21.713 -0.0833 -0.1325  0.1857
35312W        W91553  17.073  11.475  23.319  0.0517 -0.0823  0.4303
35313W        W91554  22.088   3.445   1.653  0.0337  0.1124 -0.3433
35314W        W91555   1.635   0.035  18.991  0.0145  0.1499 -0.1191
35315W        W91556  28.966  34.851  20.772 -0.1114  0.0075 -0.0673
35316W        W91557  35.220  20.352   9.250  0.1742 -0.0495 -0.1994
35317W        W91558  31.619  30.448  20.249  0.2327 -0.1543 -0.2040
35318W        W91559  19.654  18.127  17.367 -0.1324 -0.0762 -0.1438
35319W        W91560  15.696  18.378  24.416  0.2455 -0.1539  0.0244
35320W        W91561  31.998  32.396  16.382 -0.1513  0.0626 -0.1851
35321W        W91562   2.847  30.353  18.942  0.0899 -0.0014  0.2018
35322W        W91563  34.278  21.722   7.508  0.0355  0.3533  0.2795
35323W        W91564  31.226  19.476   6.342 -0.0754 -0.0822  0.0515
35324W        W91565  18.555  27.966  25.909  0.1850  0.1083  0.1069
35325W        W91566  18.591  14.134  17.101 -0.0303 -0.2883 -0.2765
35326W        W91567  25.324  13.341  12.382  0.0358  0.1691  0.0997
35327W        W91568  14.732   1.421  10.115  0.0129 -0.2092  0.2330
35328W        W91569  18.850  12.376  23.557  0.3305 -0.0785 -0.2601
35329W        W91570   8.771  29.237   8.083 -0.0029  0.1743 -0.0599
35330W        W91571   2.931  20.756  24.178 -0.1096  0.3072  0.2363
35331W        W91572  16.467   3.532  23.023  0.0118 -0.1999 -0.0123
35332W        W91573  14.489   5.769  12.323 -0.0766  0.1986 -0.1154
35333W        W91574  29.548  33.903   3.037 -0.1196 -0.2289 -0.0720
35334W        W91575   8.647  34.721  25.269 -0.0941  0.0270  0.2548
35335W        W91576   1.932  18.047  12.843  0.0606 -0.1300 -0.1665
35336W        W91577   0.842   0.994  16.532 -0.1259 -0.0516  0.1642
35337W        W91578  24.113  15.130  20.946 -0.0002 -0.2005 -0.2227
35338W        W91579   4.716  14.960  18.785  0.1010 -0.5654  0.1982
35339W        W91580  21.540   1.592   7.493 -0.0778  0.1663 -0.1947
35340W        W91581  17.742  15.324  11.195  0.1533  0.1637 -0.0729
35341W        W91582   7.635  21.844  14.356 -0.0101 -0.0239  0.1959
35342W        W91583  16.023   0.102  23.025 -0.0779  0.0365  0.2497
35343W        W91584  17.710  19.526  24.708  0.0711 -0.1967  0.1987
35344W        W91585  24.294  21.387   0.831 -0.1294  0.2704 -0.0260
35345W        W91586  30.056  22.457  24.766  0.1899  0.3934  0.3473
35346W        W91587   7.753  16.071  12.963 -0.0166  0.2190  0.3026
35347W        W91588   7.663  34.502   8.963  0.2452  0.1005 -0.1521
35348W        W91589  12.761  13.015   7.373 -0.2022 -0.0248  0.2801
35349W        W91590  21.813   7.646   3.631  0.2090 -0.1351  0.0222
35350W        W91591  19.073   1.991  24.876  0.1056 -0.1966  0.0698
35351W        W91592  22.305  32.767  14.087 -0.2368  0.0684 -0.2410
35352W        W91593  32.748  22.548  22.147 -0.1370 -0.0993 -0.3327
35353W        W91594  19.967  13.973  22.275 -0.2143 -0.1977 -0.0728
35354W        W91595  15.280  30.651   9.391  0.0698 -0.1679 -0.1398
35355W        W91596  13.566   2.148  10.768  0.4237 -0.1842  0.1465
35356W        W91597  33.138  22.461  19.699 -0.1608  0.1444  0.1404
35357W        W91598  13.945  19.675   6.741  0.2041 -0.1105  0.1833
35358W        W91599  35.275  25.337  17.288 -0.1617 -0.1538 -0.1436
35359W        W91600   8.114  33.925   4.760  0.1731  0.0436  0.0602
35360W        W91601  14.866  25.290   4.281  0.0364 -0.0534  0.2670
35361W        W91602   4.839  23.068  24.482  0.1865  0.0693  0.0707
35362W        W91603  26.013  17.270   8.257  0.1027  0.2688  0.0783
35363W        W91604  30.952   1.310   1.091  0.0627 -0.0569 -0.0047
35364W        W91605  35.034  23.965  22.951 -0.1762 -0.2611 -0.1580
35365W        W91606  32.098   6.092  15.941  0.0357  0.1527  0.1209
35366W        W91607  34.095   7.165  24.816  0.4412 -0.2861 -0.0471
35367W        W91608  25.015  33.587  24.434  0.0646  0.0643  0.0186
35368W        W91609  13.967  14.010  10.200  0.0092 -0.2381 -0.0524
35369W        W91610  31.770   3.821  18.808 -0.1507 -0.3251 -0.1146
35370W        W91611  23.215  21.251  13.076 -0.1654 -0.1298 -0.0653
35371W        W91612  17.801  35.157   9.892  0.0944 -0.0687 -0.1406
35372W        W91613   9.227   9.475   2.214  0.1860  0.0721  0.2905
35373W        W91614  10.102  22.954   8.159  0.0690 -0.1569 -0.1395
35374W        W91615  18.021   7.347  10.598  0.2308  0.3612  0.2091
35375W        W91616  27.235  15.126  12.365 -0.1090  0.1628 -0.1007
35376W        W91617  10.579  25.509  24.292 -0.0615 -0.0573  0.0499
35377W        W91618   8.343   2.736   1.007  0.0332 -0.0592 -0.0232
35378W        W91619  24.499  10.975  17.900  0.0734  0.1422 -0.1104
35379W        W91620  34.777   2.436   0.873  0.3371  0.3135  0.0355
35380W        W91621  15.151  31.298  20.837  0.1201  0.1377  0.1038
35381W        W91622  25.596  27.692   2.848  0.2375 -0.0657  0.0763
35382W        W91623  13.619  32.301   6.551  0.3287 -0.1647  0.3551
35383W        W91624   8.091  15.662  23.448  0.1458  0.0372  0.1250
35384W        W91625  34.169  20.483  23.604 -0.2009  0.1608  0.1099
35385W        W91626  29.734  14.091   5.794 -0.0244 -0.0237  0.2299
35386W        W91627  34.667  19.863   7.715  0.0579  0.1486 -0.3056
35387W        W91628  29.848  19.329   8.199 -0.1431 -0.0192 -0.1228
35388W        W91629   6.003  27.859   9.570  0.0082  0.0404 -0.2319
35389W        W91630  32.088  33.611   6.474  0.0142 -0.0235  0.0404
35390W        W91631  17.010  27.968   3.453  0.0451 -0.0666  0.1669
35391W        W91632   9.545   2.547  14.303 -0.0100  0.2155  0.1293
35392W        W91633  23.082   5.731  22.011  0.1219 -0.2679  0.0032
35393W        W91634   2.732  16.005  16.824  0.4435  0.2537 -0.1865
35394W        W91635  18.783  27.062   1.207  0.1825  0.0349 -0.0191
35395W        W91636   9.614  30.255   8.494  0.0634  0.5077 -0.2771
35396W        W91637  31.012  30.292  15.965 -0.0853  0.1064 -0.1278
35397W        W91638  28.683  26.751  17.595 -0.2089 -0.0445 -0.3084
35398W        W91639   8.949  28.299   9.130  0.0849 -0.1421  0.0588
35399W        W91640  11.687  32.571   0.124  0.1486  0.1508  0.0207
35400W        W91641   3.618  34.374   9.388  0.3024  0.2516 -0.1361
35401W        W91642  15.433  26.289  24.568 -0.0241  0.0688  0.1745
35402W        W91643   9.136  22.854   3.405  0.2980  0.0993  0.4960
35403W        W91644  22.694   3.802  14.586  0.2178 -0.1090  0.1993
35404W        W91645  23.395  10.366   0.346 -0.0492  0.4126  0.0922
35405W        W91646  27.016   4.902   3.425 -0.2227 -0.0688  0.2204
35406W        W91647  31.245  31.353  12.491 -0.0219 -0.2891  0.0894
35407W        W91648   5.645  16.013  19.278 -0.3684  0.0486  0.0236
35408W        W91649  30.119   0.177  26.228  0.0707  0.0662  0.0028
35409W        W91650  31.609   9.207  21.928 -0.0348  0.2053  0.0674
35410W        W91651  29.532  14.717  25.012 -0.0590  0.1111 -0.0042
35411W        W91652  34.690  12.085  19.683 -0.2294 -0.2588 -0.0078
35412W        W91653  11.243  17.682   7.134  0.1529  0.2916  0.1004
35413W        W91654  12.117  28.469  16.397 -0.0687 -0.1457 -0.0666
35414W        W91655   5.067  21.788  26.159  0.0530 -0.0577  0.3341
35415W        W91656  10.887  30.285   0.886 -0.0072 -0.4166 -0.4154
35416W        W91657  14.352   5.621  21.900  0.0982  0.0656 -0.1400
35417W        W91658  20.797   2.232  19.787 -0.1500 -0.0729  0.0961
35418W        W91659  12.404  20.236   0.234 -0.0706  0.0271 -0.2543
35419W        W91660   8.022  22.646   6.977 -0.2042  0.2315  0.0849
35420W        W91661  18.410  24.834   4.726  0.2274 -0.0920  0.2214
35421W        W91662  15.250  29.884   7.601 -0.0112 -0.1075  0.4232
35422W        W91663  11.170  18.742  13.505 -0.2070 -0.0646 -0.1569
35423W        W91664  19.853  31.720  25.423  0.0869 -0.0129 -0.0729
35424W        W91665  29.303  18.748  20.151 -0.2969 -0.1000 -0.0527
35425W        W91666  17.053   6.992  23.002 -0.0831  0.2450  0.1768
35426W        W91667  10.300  29.075  25.690  0.1325  0.1503  0.0867
35427W        W91668  15.129   8.730  25.092  0.4814 -0.0249  0.0835
35428W        W91669  25.027  34.464  24.184 -0.2100  0.0796  0.0679
35429W        W91670  28.145  31.110  11.644 -0.1284 -0.0724 -0.0546
35430W        W91671  34.630  12.262   1.637  0.1324  0.3139 -0.0602
35431W        W91672   1.185   4.220  20.380 -0.0255 -0.0146  0.3043
35432W        W91673  32.640  32.367  18.921 -0.0815  0.0998  0.0043
35433W        W91674  31.200  16.913  25.367  0.1107 -0.0619 -0.0382
35434W        W91675   5.312   3.624  25.260  0.1341  0.0599  0.1706
35435W        W91676  34.656  28.951  13.688 -0.0437  0.1084  0.1344
35436W        W91677   0.208  15.746  21.279 -0.0557 -0.1283  0.0094
35437W        W91678   0.290   9.474  20.948 -0.4214  0.0425 -0.1303
35438W        W91679  18.302  14.539  19.627  0.1182  0.3312  0.1672
35439W        W91680   8.603   2.772   4.755  0.0405 -0.0476  0.3287
35440W        W91681   7.605   4.027  14.243 -0.3143 -0.2921  0.3579
35441W        W91682  15.299   5.919  18.215 -0.3827  0.2723 -0.3419
35442W        W91683   1.399   7.470   3.582 -0.2566  0.3046 -0.0102
35443W        W91684   9.806   5.230  11.457  0.1095 -0.0468  0.1306
35444W        W91685  25.342  21.627  12.876 -0.0016 -0.1573  0.3994
35445W        W91686  17.672   4.391  11.031 -0.1283  0.0729  0.0833
35446W        W91687  22.625  22.986  17.312 -0.1830  0.0002 -0.0372
35447W        W91688   6.331  28.796  20.201 -0.0517  0.2649 -0.6009
35448W        W91689  27.749  19.055  21.511  0.0425  0.2269 -0.0786
35449W        W91690   8.938  26.775   9.403  0.2040 -0.1024 -0.1960
35450W        W91691  26.461  22.716   9.624  0.2005  0.0394  0.1258
35451W        W91692  32.422  11.283  22.473 -0.0243  0.1257  0.3658
35452W        W91693  15.381   2.234  19.995 -0.1208  0.0837  0.3039
35453W        W91694  20.318  16.553   3.455 -0.1052  0.2679 -0.1031
35454W        W91695   5.095  28.304  10.460 -0.0419 -0.2160  0.0938
35455W        W91696  25.451  34.954  18.333  0.2556  0.2352  0.3360
35456W        W91697  18.479  29.798  20.931  0.0291  0.1762 -0.1710
35457W        W91698  14.683  24.827   0.315 -0.3133  0.1721  0.1094
35458W        W91699  22.276   4.667  22.917  0.1110 -0.2920  0.4987
35459W        W91700  21.372   1.521   0.695 -0.2333 -0.0794 -0.0318
35460W        W91701  12.312  27.416  23.768 -0.2065 -0.1907  0.1291
35461W        W91702  19.667  15.177  22.022 -0.3020 -0.2968  0.4546
35462W        W91703  26.795  24.229   0.668 -0.2010  0.0088 -0.3913
35463W        W91704  15.584  23.188   2.644  0.0648 -0.0839  0.0313
35464W        W91705   5.974  34.756   0.572  0.0089 -0.0133  0.4093
35465W        W91706  23.779  30.613  12.512  0.0123 -0.0625  0.1735
35466W        W91707  17.096  24.727  22.381  0.1685 -0.0259  0.1923
35467W        W91708   7.059  29.061  10.463  0.0142 -0.1825 -0.0344
35468W        W91709  15.780  19.031  10.421 -0.0876 -0.0009 -0.2037
35469W        W91710   0.930  16.645  13.064  0.1196 -0.4406 -0.2539
35470W        W91711  20.711  21.599   4.913 -0.1796 -0.0377 -0.0872
35471W        W91712  24.629  20.107  25.964  0.0497  0.0707  0.0374
35472W        W91713  34.883   4.565   0.048 -0.0952 -0.2735 -0.2001
35473W        W91714   5.394   3.009   2.432 -0.0666 -0.0695  0.0007
35474W        W91715  17.767  15.709  18.720  0.1214  0.1021 -0.0042
35475W        W91716  18.246  22.660  22.343 -0.1501 -0.0106 -0.3938
35476W        W91717  32.295   3.408  12.409 -0.5012 -0.3297  0.1650
35477W        W91718   9.966  10.990  24.509 -0.0484  0.2348 -0.2607
35478W        W91719  21.129  32.094   3.410 -0.0388 -0.0293  0.0072
35479W        W91720  23.689   3.935  24.414 -0.3142 -0.0029 -0.0832
35480W        W91721  23.465   0.079   1.560  0.0872  0.1059  0.0505
35481W        W91722  21.491  24.706   2.754 -0.0280  0.1050 -0.0969
35482W        W91723  15.072   0.318   0.218  0.1886  0.0673 -0.1143
35483W        W91724  32.876  11.853  10.049 -0.3234 -0.2594 -0.0809
35484W        W91725   8.805  23.538  10.296  0.0385 -0.0985  0.0682
35485W        W91726  15.403  10.910  10.656 -0.2619  0.1486  0.3034
35486W        W91727  19.641  22.548  21.762  0.2587  0.1598  0.0589
35487W        W91728  33.943  32.611   3.539 -0.2770 -0.3649 -0.0254
35488W        W91729  15.016  16.633   9.402 -0.0005 -0.3109  0.3781
35489W        W91730   1.037   0.059  23.937 -0.1268 -0.3049  0.2941
35490W        W91731  10.220  19.648  11.441  0.5091  0.3778  0.1269
35491W        W91732   8.594  32.766  24.660 -0.1291 -0.1564  0.0170
35492W        W91733  25.068  27.174  10.544  0.1656 -0.0984  0.0971
35493W        W91734  26.200   8.537  15.460  0.2796  0.1363  0.5521
35494W        W91735  17.010  12.465  10.944  0.0501  0.0278 -0.0942
35495W        W91736  26.232   8.671  12.046 -0.1164 -0.1480  0.0073
35496W        W91737  28.975  16.713  10.757 -0.2576  0.1257 -0.2203
35497W        W91738  33.728  25.020  14.746  0.0872  0.0678  0.3879
35498W        W91739  11.645  15.603  24.814  0.1155 -0.2730  0.1695
35499W        W91740   4.059  23.993  23.545  0.3059  0.0964 -0.4013
35500W        W91741  28.974   2.959   4.280  0.0912 -0.1086  0.1511
35501W        W91742   0.488  29.849   1.763  0.1027  0.0154  0.2188
35502W        W91743  19.726   6.039   3.264  0.1279  0.1377 -0.0298
35503W        W91744  12.476  23.771   0.411  0.0711  0.2418 -0.0209
35504W        W91745  27.530  26.320   0.020  0.0093 -0.0579 -0.0459
35505W        W91746  29.528  29.779  20.108 -0.4074 -0.0636  0.1314
35506W        W91747  26.248  17.747  23.408 -0.3361  0.2777 -0.0542
35507W        W91748  29.825  32.060   0.646  0.2944 -0.5253 -0.1920
35508W        W91749  21.634  27.312  17.692 -0.1498  0.1955 -0.0240
35509W        W91750   2.956  13.067  20.708 -0.1468  0.0955 -0.2721
35510W        W91751  28.150   9.589   0.594 -0.3130 -0.0059 -0.0636
35511W        W91752   5.495  30.572  11.994  0.0776  0.0055  0.0211
35512W        W91753  26.276  20.257  11.671  0.3003 -0.0221 -0.2262
35513W        W91754  18.093   1.374   4.882 -0.1467  0.1621 -0.1327
35514W        W91755  13.955  29.905   5.133 -0.1039  0.1247 -0.1007
35515W        W91756  33.245  13.120  12.987  0.0146 -0.2732 -0.1638
35516W        W91757   0.201  34.521  21.013 -0.0166 -0.0397  0.0133
35517W        W91758  15.045   8.103  18.962  0.1846  0.1319 -0.1785
35518W        W91759  28.976   5.771  18.688  0.2495  0.0269  0.2561
35519W        W91760  28.859   2.598   3.693 -0.4368 -0.0741  0.0044
35520W        W91761   8.245  23.481   1.263 -0.2416 -0.0698 -0.0288
35521W        W91762   6.852  18.993  23.908 -0.0120 -0.0127 -0.0681
35522W        W91763  25.618   6.902  17.983 -0.0101 -0.1519 -0.2930
35523W        W91764   1.530   0.416  18.025  0.0133 -0.2213 -0.0349
35524W        W91765   5.058  29.043  20.387 -0.2670 -0.0830 -0.2267
35525W        W91766  34.758  23.947  11.746 -0.3971 -0.0004  0.2382
35526W        W91767  14.273  26.443   1.540 -0.2289  0.1941 -0.0328
35527W        W91768  15.608  15.035   2.790 -0.0035  0.0087  0.0500
35528W        W91769   2.767  22.657  19.421  0.0849  0.1123  0.0718
35529W        W91770  16.312  15.093  19.928 -0.0855  0.0365 -0.0427
35530W        W91771  21.517  12.835   3.365  0.1272  0.0096 -0.0636
35531W        W91772  33.254  30.089  19.993  0.1137  0.1568 -0.0708
35532W        W91773  11.892  12.936  22.690 -0.0591 -0.1335  0.1228
35533W        W91774  23.724  29.196   1.822 -0.2419 -0.1888  0.1902
35534W        W91775  20.961   8.374  23.383 -0.1898  0.0092 -0.1015
35535W        W91776   2.198  16.708   1.988  0.1746 -0.0008 -0.3275
35536W        W91777   9.881  28.271   2.615  0.1401  0.1371 -0.1295
35537W        W91778   5.353  34.560  20.427  0.0146 -0.0770  0.0422
35538W        W91779  19.629  10.776  25.806  0.1041  0.0160 -0.1523
35539W        W91780  25.047   7.817  14.111  0.0848 -0.1221  0.0789
35540W        W91781  27.756  32.528  17.388 -0.0174  0.1812  0.1368
35541W        W91782  26.391   6.549  13.944 -0.0211  0.0639  0.2967
35542W        W91783   3.133  13.414  22.916  0.4035  0.0348 -0.2451
35543W        W91784  17.498   4.273  20.581 -0.5490  0.2106  0.2099
35544W        W91785   8.544  26.043  14.132 -0.0060 -0.0220  0.0191
35545W        W91786  25.149  13.896  17.081 -0.1010  0.0075 -0.1396
35546W        W91787  33.064  28.413  22.222 -0.5393 -0.1056 -0.1709
35547W        W91788   1.871   2.225   1.318 -0.3668  0.0360 -0.2171
35548W        W91789  24.417   0.891  13.307 -0.0027 -0.1362  0.0409
35549W        W91790  15.321  34.127   5.453  0.0832  0.1554  0.4250
35550W        W91791  14.699   7.725  21.965  0.3835 -0.1447 -0.2279
35551W        W91792  21.184  29.511  22.289 -0.2848 -0.1109 -0.0721
35552W        W91793   8.053  10.874   5.616 -0.0922 -0.0778  0.0512
35553W        W91794  11.908  17.875   4.213  0.1327  0.0296 -0.0860
35554W        W91795  25.947  33.445  25.091  0.3619  0.1917 -0.1587
35555W        W91796  26.630  22.806  17.141 -0.1738 -0.1406 -0.0409
35556W        W91797  25.798  18.674  11.035  0.0072 -0.0337  0.0056
35557W        W91798  16.430   0.693  19.977  0.0383 -0.2952 -0.0473
35558W        W91799  18.537  23.588  12.680  0.1356 -0.0919 -0.3666
35559W        W91800  31.678  30.356  23.998  0.3822 -0.0314 -0.1094
35560W        W91801  25.786  16.247  25.417 -0.0154 -0.2992 -0.1050
35561W        W91802  20.917   9.375   2.346  0.3291 -0.0351 -0.1638
35562W        W91803  32.961  16.824  22.337 -0.0883  0.3646 -0.0683
35563W        W91804  17.761   9.306   5.623 -0.3920  0.0557  0.2943
35564W        W91805   8.233  23.228  23.641  0.0901  0.0408 -0.0787
35565W        W91806  32.077  16.336  19.682  0.0792  0.3471  0.1503
35566W        W91807  17.170  27.222   8.425  0.0604 -0.0269  0.2623
35567W        W91808  25.755   1.894  21.003  0.2244  0.0572  0.1539
35568W        W91809  11.926   1.510   4.195  0.0638 -0.2720  0.0768
35569W        W91810  15.866  28.001   8.404  0.0630 -0.0463  0.1695
35570W        W91811  14.405  27.625  22.083  0.2083  0.1777 -0.3568
35571W        W91812   7.140  18.830   1.908  0.2016 -0.2192  0.4964
35572W        W91813  32.586  32.339  22.019 -0.0426 -0.1835 -0.2162
35573W        W91814  16.956   7.277  18.422 -0.1397  0.0437 -0.0484
35574W        W91815  35.003   6.261   2.303  0.0142 -0.0528 -0.1684
35575W        W91816   9.199  27.375  23.524  0.0954  0.0685 -0.0150
35576W        W91817  34.296  26.415  26.135 -0.2615  0.1467  0.1362
35577W        W91818   7.472   5.535  12.306  0.0508  0.1154 -0.1888
35578W        W91819  13.177  22.711  22.812  0.0568 -0.1274 -0.0749
35579W        W91820  32.319  30.294  17.759  0.1881 -0.2534  0.0365
35580W        W91821  33.200   5.588   4.350  0.0161  0.2493  0.0999
35581W        W91822  10.540  34.555   6.609 -0.3141 -0.0125  0.1466
35582W        W91823   7.421  26.168   2.030 -0.4900  0.1777  0.1435
35583W        W91824  13.008  22.976  24.451  0.2367  0.2505 -0.1559
35584W        W91825  13.680  27.373  21.776  0.1812 -0.0553  0.0757
35585W        W91826  11.270  35.300   5.725  0.1461 -0.2456  0.0194
35586W        W91827   8.614  16.554   8.242 -0.0164 -0.3652  0.1898
35587W        W91828  13.074  28.346   1.106  0.1738  0.0762 -0.0511
35588W        W91829  33.032   6.605  20.115  0.0483  0.2431  0.3488
35589W        W91830   6.693  10.077  17.174  0.0810 -0.1482 -0.4978
35590W        W91831  20.838  22.582   4.771  0.0332  0.1236 -0.1340
35591W        W91832  11.510  33.244   0.939 -0.1847  0.1499 -0.1121
35592W        W91833  23.739  21.468  21.547  0.0528  0.4726 -0.1505
35593W        W91834  14.387  23.595   5.873 -0.1184  0.0157 -0.3436
35594W        W91835  23.923  10.036  15.124 -0.0706 -0.4253 -0.0371
35595W        W91836  24.846   8.398   2.276 -0.0382  0.2995 -0.0655
35596W        W91837  24.301  21.545  13.074 -0.1375  0.0515  0.2654
35597W        W91838   8.016  23.337  14.601  0.0985 -0.3166  0.2908
35598W        W91839  33.846   7.345  25.697 -0.0096 -0.0124  0.0076
35599W        W91840   6.964   1.219  10.410  0.1322 -0.0389 -0.0956
35600W        W91841   0.764  23.427  12.609 -0.1201 -0.1474  0.0102
35601W        W91842   7.613   9.831  13.183  0.1210 -0.0778  0.0977
35602W        W91843   0.119   8.214  23.324 -0.2793  0.1091  0.0892
35603W        W91844   8.687   1.193   5.678  0.0804  0.0234 -0.0841
35604W        W91845  10.816   6.274  24.937 -0.4829  0.0731 -0.1872
35605W        W91846  18.574  11.940  19.916  0.0790  0.1387 -0.1907
35606W        W91847  19.991  13.161  23.253  0.0823  0.0999 -0.4951
35607W        W91848  26.305  11.062  16.196  0.0248  0.1833  0.0781
35608W        W91849  15.417   8.256   3.725  0.1491 -0.1214 -0.0813
35609W        W91850  17.270  23.195   3.195  0.1346 -0.1210 -0.4057
35610W        W91851  12.495  12.785   6.370 -0.0351  0.2169 -0.0367
35611W        W91852  30.326  14.633  20.076  0.0011 -0.2373  0.1724
35612W        W91853  16.629  21.575  15.257 -0.1257  0.3555  0.1272
35613W        W91854   9.093   1.209   8.465 -0.0381 -0.2189 -0.1033
35614W        W91855  34.384  31.054   2.003 -0.1818 -0.1686  0.0067
35615W        W91856   2.995  29.361   6.260  0.0310  0.0313 -0.0370
35616W        W91857  17.416  17.289   1.451  0.0089 -0.1376 -0.4346
35617W        W91858  14.295  11.768   9.928 -0.0346  0.0039 -0.0193
35618W        W91859  26.812   9.369   9.769 -0.0799 -0.1214  0.1111
35619W        W91860   4.352  33.062   9.176 -0.2689  0.0764  0.1678
35620W        W91861  12.935  29.583  15.437  0.2060 -0.1077  0.2914
35621W        W91862  26.560   2.740   0.556 -0.0037  0.1102  0.2141
35622W        W91863  15.409  30.370   2.721  0.1573  0.0533 -0.0119
35623W        W91864  33.473   6.047  22.941 -0.2936 -0.0233  0.0148
35624W        W91865  35.045   0.968   5.313 -0.0984  0.0502 -0.0748
35625W        W91866  27.822   0.508   0.466  0.0113 -0.1066  0.1529
35626W        W91867   3.100  20.500   1.541 -0.2375 -0.1507 -0.3026
35627W        W91868  33.455  35.148   0.982 -0.2710  0.0847 -0.3382
35628W        W91869  30.574  32.176  18.117 -0.0352 -0.0735 -0.0327
35629W        W91870  27.973   4.942   1.828  0.2351 -0.1608 -0.2950
35630W        W91871   9.931  21.441   7.190 -0.0652  0.2353 -0.2454
35631W        W91872  21.109  24.152   5.385 -0.1291 -0.2195 -0.0297
35632W        W91873  20.621   0.709  18.064  0.1215  0.2089  0.2034
35633W        W91874   9.708  13.194  25.254  0.1667 -0.1512  0.2581
35634W        W91875  20.363   5.744   5.743 -0.0611 -0.3476  0.0068
35635W        W91876  25.142  12.543   8.615 -0.0183  0.1689  0.1237
35636W        W91877  32.300  31.999  24.399  0.0676  0.2236  0.5131
35637W        W91878  12.534   9.054   5.304 -0.4485  0.2460  0.1956
35638W        W91879  23.152   9.445   0.240 -0.1891  0.2283 -0.0075
35639W        W91880  24.434   4.589  16.631  0.0265 -0.0105 -0.0841
35640W        W91881  26.256   6.169  11.566  0.2018 -0.0006 -0.1544
35641W        W91882  28.573  28.341  21.809 -0.2396 -0.1002 -0.2707
35642W        W91883   5.824   9.137  22.954 -0.0296 -0.1568 -0.1709
35643W        W91884  24.644   1.766   2.962  0.1429  0.1117 -0.0280
35644W        W91885  30.519   9.807  11.007  0.1004 -0.0102 -0.0105
35645W        W91886  10.125   2.808   9.553  0.1182  0.1380  0.1796
35646W        W91887  31.036   7.516  12.847  0.1947  0.2181 -0.0703
35647W        W91888  32.359  32.099  21.481  0.1245  0.0193  0.0312
35648W        W91889   3.167   3.306  17.555  0.2237  0.2311  0.0769
35649W        W91890  28.143   4.816  10.925  0.0492 -0.0401  0.0597
35650W        W91891   8.402   3.487   4.144 -0.3795 -0.0096  0.0735
35651W        W91892   0.241   3.390  25.799  0.1892  0.2698 -0.2223
35652W        W91893  34.821   6.992   4.984 -0.0418 -0.3006  0.2167
35653W        W91894  29.573  22.236  17.721 -0.1050 -0.3225  0.0244
35654W        W91895   7.321  19.474  21.579 -0.1028 -0.0550 -0.1657
35655W        W91896  28.323  28.247   1.806  0.1924 -0.1465 -0.1593
35656W        W91897  13.362  17.058   3.150  0.0219 -0.2916 -0.0968
35657W        W91898  20.398   7.142  19.501 -0.1342  0.0011 -0.0291
35658W        W91899  25.460  14.350  16.322 -0.2675 -0.2520 -0.1769
35659W        W91900  18.301  12.988  20.665 -0.3938 -0.0424  0.0480
35660W        W91901  13.831  21.955  25.864  0.0409 -0.0102  0.0031
35661W        W91902  31.065  33.660  15.477  0.0842  0.1975 -0.0095
35662W        W91903  12.550  16.477   8.959 -0.3016 -0.1622  0.1081
35663W        W91904  28.475   2.975  16.615  0.0245  0.3845 -0.0679
35664W        W91905   6.001  30.132  25.091 -0.2163  0.1266  0.1823
35665W        W91906  16.576  13.303  13.691  0.0156  0.2065 -0.0202
35666W        W91907  10.204  14.610  23.934  0.0149  0.0436 -0.1293
35667W        W91908  30.621  31.270  17.097  0.2246  0.1881  0.1184
35668W        W91909  21.368   3.002   4.630  0.1926  0.0589  0.0334
35669W        W91910  27.766  12.214  12.701 -0.0518 -0.0397  0.2157
35670W        W91911   1.232  32.705   0.745 -0.3164  0.1948  0.1830
35671W        W91912  26.945   0.296  15.951 -0.1016  0.3014 -0.1563
35672W        W91913  16.674  18.697  13.110  0.0192 -0.1848  0.0639
35673W        W91914   5.590  19.137  21.009 -0.0822  0.2638  0.0306
35674W        W91915   5.837  13.688  10.994 -0.0744 -0.1544 -0.1695
35675W        W91916  11.809  13.786   9.166  0.1365  0.1947 -0.0670
35676W        W91917  30.973  13.523  11.716  0.2782  0.0474  0.0905
35677W        W91918   2.619  14.643   3.456  0.2904  0.1109 -0.2245
35678W        W91919   2.092   8.699  20.169 -0.2297 -0.0769 -0.4404
35679W        W91920  20.570  26.738   5.463 -0.1165  0.1069 -0.2096
35680W        W91921  16.132   5.581  11.797 -0.0585  0.0940 -0.0498
35681W        W91922  31.929   5.145  17.957  0.0837  0.0303 -0.1296
35682W        W91923  15.282   1.928   1.881 -0.0906 -0.2657  0.3455
35683W        W91924  22.073  30.903  21.350  0.0547 -0.1272  0.1587
35684W        W91925   1.084  23.635  19.520 -0.0664  0.2746  0.1155
35685W        W91926  13.760   4.474   8.379  0.0705 -0.1442 -0.2713
35686W        W91927  16.934  23.903   8.892 -0.3027  0.2086 -0.3300
35687W        W91928  10.302   0.148   5.195 -0.0435  0.1595  0.0747
35688W        W91929   2.645  20.030  25.559  0.0485  0.2632 -0.1645
35689W        W91930  23.408  31.307  17.115  0.0912  0.0651 -0.1248
35690W        W91931   3.959  22.848   1.336 -0.0212 -0.1955 -0.3023
35691W        W91932  19.308  19.601   1.698 -0.2172 -0.0332  0.2233
35692W        W91933  23.719  17.452  23.342 -0.1293 -0.0234  0.5587
35693W        W91934  20.845  31.111  25.946 -0.1686  0.1277  0.2571
35694W        W91935  27.527  22.328  23.774  0.0745  0.1008  0.0546
35695W        W91936  27.931  19.742   9.018  0.0391  0.0512 -0.3146
35696W        W91937  27.916   9.583  23.410  0.0372 -0.2267 -0.2362
35697W        W91938  15.705  30.765  12.925 -0.1857  0.0106  0.1212
35698W        W91939  18.679  10.662  20.592 -0.0253 -0.0132 -0.2084
35699W        W91940  25.242   8.076   1.725  0.0732  0.0122 -0.0285
35700W        W91941  27.778  29.937   3.140  0.2896  0.0352  0.2711
35701W        W91942  18.668  25.716   2.194 -0.1581 -0.2770 -0.1030
35702W        W91943  31.793   8.578  22.605 -0.1229 -0.1230  0.4207
35703W        W91944  14.147   9.055  22.309  0.2780 -0.1339 -0.0675
35704W        W91945  19.457  10.729   2.565 -0.0325  0.1523 -0.2323
35705W        W91946  33.346  32.644  13.018  0.1909 -0.0326  0.1653
35706W        W91947  16.163   0.764   1.900  0.1986  0.1152 -0.0937
35707W        W91948   0.829  34.463  17.626 -0.2681 -0.2074 -0.1495
35708W        W91949  22.164  14.001   1.835 -0.0041  0.1782  0.2071
35709W        W91950  30.209  13.214   6.164 -0.0083  0.0640 -0.0710
35710W        W91951  12.429  24.523  11.783 -0.1531 -0.0389  0.2148
35711W        W91952  10.516  26.744  10.925 -0.2707  0.4391 -0.0442
35712W        W91953   1.396  17.549  23.173 -0.1305  0.3272  0.3537
35713W        W91954  22.003  10.201  16.224  0.1649 -0.1678  0.2168
35714W        W91955   1.779  17.869  26.077  0.0997 -0.0542  0.3456
35715W        W91956  20.563  25.744  19.953 -0.0054 -0.0653  0.0635
35716W        W91957  26.033  14.576  16.452 -0.2055 -0.0950  0.0766
35717W        W91958   2.562  35.243   0.843 -0.2080 -0.0878 -0.0005
35718W        W91959  12.085  23.355  13.211 -0.1462 -0.1469 -0.1659
35719W        W91960  32.621   7.229  13.924 -0.1414 -0.2424  0.1416
35720W        W91961  27.405  25.488   0.239 -0.0182  0.1409 -0.1924
35721W        W91962  20.386   3.159   4.169 -0.1257  0.0253  0.1414
35722W        W91963  20.430   7.180   4.570  0.0992 -0.2984 -0.3411
35723W        W91964  11.728  18.429  11.558  0.2136 -0.0586  0.0179
35724W        W91965  32.672  33.909   0.045 -0.0668 -0.1285 -0.4457
35725W        W91966  11.356  17.704  23.707 -0.2014  0.0778  0.3664
35726W        W91967  21.148  22.394   5.175  0.1441 -0.1490 -0.0600
35727W        W91968   8.436  10.905   0.176 -0.1795  0.3006  0.1793
35728W        W91969   6.940  34.151   2.804 -0.1020 -0.0096 -0.0681
35729W        W91970  22.385  28.186  16.503 -0.1257 -0.2100  0.0132
35730W        W91971  33.568  33.461   5.409 -0.1736  0.1968 -0.0609
35731W        W91972  14.930  11.095   3.702 -0.0269  0.1750  0.1182
35732W        W91973   6.012   1.875   2.951  0.1609  0.0625  0.7623
35733W        W91974   4.862  15.131   1.662 -0.4315  0.1336  0.1395
35734W        W91975  24.632   0.790  18.798  0.0077 -0.3374  0.1642
35735W        W91976  16.137  18.068   7.646 -0.1358  0.1430  0.2332
35736W        W91977  26.475   2.869   5.414 -0.2168 -0.1386 -0.2069
35737W        W91978  25.043  24.294  22.119 -0.1173  0.2224 -0.0936
35738W        W91979  23.831   0.033  26.100  0.0070  0.1825  0.4068
35739W        W91980   4.712  13.194  21.424 -0.0838 -0.1870  0.1584
35740W        W91981  29.818  12.316  20.006  0.1380 -0.2972 -0.0928
35741W        W91982  16.478   6.824  24.545  0.2798 -0.2285  0.1866
35742W        W91983   9.555  19.613   9.406  0.1707  0.1299 -0.2022
35743W        W91984  29.728  30.572   0.204  0.4114 -0.0679 -0.1034
35744W        W91985  22.904   9.550  26.103  0.0832  0.0323 -0.0023
35745W        W91986  18.213  32.404  10.111  0.1170  0.0952  0.0972
35746W        W91987  28.732   7.931   9.703 -0.2027  0.0262  0.1075
35747W        W91988  34.375   0.625   5.957  0.0361 -0.1434 -0.0114
35748W        W91989  17.540  22.131  22.385 -0.1027 -0.2762 -0.0334
35749W        W91990  25.246   4.541   5.494  0.1267 -0.0457 -0.0642
35750W        W91991   7.539   9.856  12.201 -0.0593 -0.2626 -0.3215
35751W        W91992   8.802  34.879  12.965  0.0572  0.0791  0.3172
35752W        W91993   3.697   5.161   0.518  0.4989 -0.0021  0.0605
35753W        W91994  19.447  32.666  21.774  0.0406  0.1392 -0.0157
35754W        W91995  33.978  26.358  14.152 -0.1145 -0.0025 -0.0661
35755W        W91996  16.062   8.440   4.384 -0.0632  0.0651  0.0048
35756W        W91997   7.416   3.377   6.053 -0.2482  0.1041  0.1301
35757W        W91998  28.260  17.877  20.974 -0.0506 -0.1898 -0.0867
35758W        W91999   5.091  34.199  10.319  0.1457  0.2439 -0.0174
35759W        W92000   1.178   4.604  18.657 -0.3223 -0.0055 -0.1106
35760W        W92001  29.502  32.086  24.751 -0.1200  0.1466  0.0602
35761W        W92002  15.333  31.529  25.734 -0.3904  0.1178  0.6031
35762W        W92003  33.372  32.288  24.199  0.1005 -0.0553  0.0260
35763W        W92004  11.256  27.586   3.904  0.1922  0.1267 -0.2744
35764W        W92005  33.191  26.340  13.968  0.0229  0.0616  0.2904
35765W        W92006  27.557   9.005   9.378  0.1565  0.1658  0.1376
35766W        W92007  28.436  17.778  14.536 -0.0449 -0.0768  0.2262
35767W        W92008   6.190   0.922   8.036 -0.2875 -0.0429 -0.1433
35768W        W92009  27.211  34.161  14.374  0.0887  0.0999 -0.1341
35769W        W92010   9.616  11.080   1.481  0.4067 -0.0436  0.0468
35770W        W92011  30.964  19.444  23.844  0.0286  0.1727 -0.2095
35771W        W92012  31.407   3.469  17.749  0.2849 -0.0394  0.0684
35772W        W92013  10.136   2.488  22.271  0.4220 -0.0463  0.1900
35773W        W92014   0.630  17.289  20.409  0.2601  0.3223 -0.4044
35774W        W92015  27.841  27.269   9.221 -0.1638 -0.1239  0.0386
35775W        W92016   6.281  11.801   8.025 -0.2528  0.1709 -0.0128
35776W        W92017   4.418   5.753   7.857  0.0935  0.0217 -0.2534
35777W        W92018   8.001  23.006   0.277 -0.0421 -0.2886 -0.4210
35778W        W92019   9.171   9.507  13.274 -0.0503  0.0661  0.0906
35779W        W92020  33.419   1.449  19.580 -0.4041 -0.2354  0.0560
35780W        W92021  27.573   8.039  22.066  0.0150  0.0097  0.1107
35781W        W92022  15.104  21.255   0.630  0.0694  0.1572 -0.2096
35782W        W92023  28.517   5.076  11.753  0.1197  0.2721 -0.3100
35783W        W92024   8.811   2.296   6.432 -0.2376  0.2728 -0.0224
35784W        W92025   9.976  27.234  14.041  0.1343 -0.1000 -0.0968
35785W        W92026   0.355   4.901  22.203  0.2976 -0.1287 -0.2766
35786W        W92027   1.838   4.244   2.382  0.1923  0.0733  0.1837
35787W        W92028  23.593  13.955  23.130  0.1002 -0.0746  0.0066
35788W        W92029  25.245   9.744  17.439  0.6132  0.0738 -0.0023
35789W        W92030  26.124  29.955  12.071  0.1456 -0.0593 -0.2007
35790W        W92031   5.554  15.636  20.556 -0.2241  0.2859  0.0311
35791W        W92032   8.995  34.404  14.941 -0.0787 -0.3006 -0.0630
35792W        W92033   1.464  35.098  24.919  0.1136  0.2368 -0.1763
35793W        W92034  15.627   4.059  19.708  0.3808  0.2554 -0.0924
35794W        W92035  16.633  13.007  12.849 -0.4873 -0.1638  0.1967
35795W        W92036  11.563  28.299  25.867 -0.1212 -0.1170  0.0774
35796W        W92037  33.702  30.547  23.996 -0.0133  0.1248 -0.0814
35797W        W92038   0.112  26.246  20.806 -0.1077  0.0435 -0.5306
35798W        W92039   9.813  21.578  13.136 -0.0313 -0.0026 -0.0014
35799W        W92040  13.392  31.578   5.942  0.2408  0.2105  0.3183
35800W        W92041   1.295   6.556   3.156 -0.0773 -0.3487  0.0204
35801W        W92042  28.669  29.965  23.998  0.3541  0.1714  0.2323
35802W        W92043  14.920   4.744   9.255  0.2340  0.1397  0.1368
35803W        W92044   3.156  10.741  18.276  0.0102 -0.1097  0.1205
35804W        W92045  10.087  17.990  23.096  0.3487  0.3177 -0.1375
35805W        W92046  30.627  22.056  22.898 -0.1087 -0.1670  0.0015
35806W        W92047   6.858   8.789   2.120  0.0079  0.2500 -0.0697
35807W        W92048   0.613  21.035   0.914  0.2582  0.1383  0.1943
35808W        W92049   4.855  19.116  26.032  0.2270  0.0278 -0.1995
35809W        W92050  17.951  19.052  19.086 -0.1284 -0.1917  0.1004
35810W        W92051  18.446   1.240   1.056 -0.1805  0.1710 -0.2335
35811W        W92052  31.254  21.840   8.165 -0.0142  0.0124  0.0431
35812W        W92053  14.712  22.429   4.797 -0.0942  0.0600 -0.5223
35813W        W92054  23.628  31.610   0.762 -0.1349 -0.0604 -0.1675
35814W        W92055  11.765  26.363   2.327  0.1730 -0.0242  0.2290
35815W        W92056  17.750  13.407  22.644 -0.0139 -0.2414  0.1370
35816W        W92057  33.804  15.340  10.709 -0.0925  0.1279  0.1281
35817W        W92058  28.787  22.172  18.340 -0.3023 -0.0313  0.1756
35818W        W92059  19.530   8.388  18.007 -0.2899  0.0967  0.0966
35819W        W92060  10.501  31.484   9.950  0.2606 -0.0097  0.0806
35820W        W92061  25.718   9.466  10.975  0.2621  0.0391  0.0705
35821W        W92062   5.584   5.401  25.307 -0.0296  0.1740  0.3022
35822W        W92063  20.728  16.469   5.005 -0.4057 -0.2554 -0.0893
35823W        W92064  33.747  23.326  11.351  0.2823  0.4376  0.2261
35824W        W92065  16.634  24.413   5.650  0.1200  0.2816 -0.1631
35825W        W92066  30.556  28.924  25.627  0.3327  0.0143  0.1382
35826W        W92067  34.732   4.106  24.442  0.1295 -0.0766 -0.0835
35827W        W92068  17.656  13.753  19.872  0.0450 -0.1652 -0.0923
35828W        W92069  21.007  24.416  24.947 -0.1314 -0.4031 -0.0030
35829W        W92070  11.362   0.421  13.294 -0.2871 -0.1557  0.2491
35830W        W92071  26.730  15.015  23.197  0.1650 -0.0625 -0.2079
35831W        W92072  35.042   8.076   2.524 -0.2012  0.1286 -0.2674
35832W        W92073   5.225  33.959   8.771  0.3735  0.1052 -0.2307
35833W        W92074   5.061  29.809  10.411  0.1816 -0.0267 -0.2013
35834W        W92075   8.555   6.599  26.241 -0.1628  0.1442 -0.0121
35835W        W92076  11.049   3.257   0.007  0.0627 -0.0735  0.0818
35836W        W92077  34.516  14.569  13.558  0.4054 -0.1382 -0.2939
35837W        W92078  27.584   1.023  20.987 -0.1492 -0.0999  0.0080
35838W        W92079  27.365   2.607  19.831 -0.2742  0.1554  0.1229
35839W        W92080  25.795   0.854  12.536 -0.2579 -0.1034 -0.0906
35840W        W92081  11.339  30.718  21.964  0.1617 -0.0376  0.1961
35841W        W92082   6.146  12.219   7.766  0.1586 -0.3462 -0.0224
35842W        W92083  24.118  18.072  21.408 -0.1977 -0.2094 -0.1585
35843W        W92084  30.519  18.681  22.501  0.4489  0.0058  0.5636
35844W        W92085   9.860   4.325   4.898 -0.1446  0.3027  0.2078
35845W        W92086  31.888  32.779  14.731 -0.2562 -0.1652 -0.0145
35846W        W92087  27.644   7.289  21.408  0.0895 -0.0590  0.0338
35847W        W92088  33.647  18.097  23.829  0.0999  0.1881  0.2298
35848W        W92089  33.307  22.830  20.347  0.0075 -0.0683  0.0889
35849W        W92090  15.505  17.099  21.038 -0.3043  0.2539 -0.1725
35850W        W92091  24.938  13.427  23.795  0.1192  0.3632  0.0795
35851W        W92092  34.305  23.742  18.116 -0.2187  0.2047 -0.0474
35852W        W92093  34.564  19.182  24.479 -0.0286  0.0802  0.1916
35853W        W92094  30.385  24.744  25.437 -0.0200 -0.1502  0.1651
35854W        W92095  13.624   1.311  23.841  0.1766  0.0072 -0.1282
35855W        W92096  10.514  20.790   2.269  0.0300  0.0695  0.0204
35856W        W92097  32.621  20.649   8.239  0.0980 -0.3817 -0.0701
35857W        W92098  18.707  25.458  25.254 -0.2376  0.0217 -0.0568
35858W        W92099  35.329  18.063  13.799 -0.1004  0.1768  0.3613
35859W        W92100  25.820   8.515   2.458 -0.3297  0.1035 -0.1986
35860W        W92101  25.952  13.267  18.900 -0.0347 -0.0351  0.1574
35861W        W92102   4.981  25.128   7.027 -0.1794 -0.1921  0.0189
35862W        W92103  10.710  30.317   7.938 -0.2183 -0.4961  0.4328
35863W        W92104  22.080   9.160   1.541  0.1988  0.1781 -0.1660
35864W        W92105  11.575   9.913   6.326  0.1407 -0.0049  0.1198
35865W        W92106  24.803  23.056  19.250  0.2608  0.2018 -0.0479
35866W        W92107   5.453   6.677   4.356 -0.1266 -0.0502  0.0014
35867W        W92108  19.611   4.882   0.273 -0.1023  0.1119 -0.0081
35868W        W92109  26.652  24.819  23.743  0.3012  0.0925  0.0780
35869W        W92110  17.057  27.297  23.931  0.3791  0.0597 -0.2540
35870W        W92111  27.111  33.315  15.596 -0.0901  0.0728  0.1098
35871W        W92112   7.213   1.198   4.693  0.1271 -0.3695  0.1668
35872W        W92113  13.760  35.316  23.449 -0.2389 -0.0081  0.0328
35873W        W92114   7.345  18.977   6.435  0.0398 -0.1826 -0.0097
35874W        W92115   1.744  19.907  22.176  0.0219  0.0273  0.0870
35875W        W92116  27.094  15.614  20.069  0.0247 -0.0705 -0.1992
35876W        W92117   3.405  20.019   1.479 -0.0826 -0.0371  0.5784
35877W        W92118   7.457  27.440  25.975  0.1416  0.2464  0.0056
35878W        W92119  25.363   5.693   1.298  0.0139  0.2473 -0.3154
35879W        W92120  12.947  25.887  25.691  0.2240  0.0843  0.2321
35880W        W92121  21.435  22.314  19.930 -0.0418 -0.2429  0.1459
35881W        W92122  26.095   0.529  16.163 -0.0535 -0.1121  0.2358
35882W        W92123  33.165  32.053   5.809  0.0318 -0.0349  0.1187
35883W        W92124  17.730  23.925   2.841  0.0281 -0.1944 -0.2873
35884W        W92125  25.093   3.067  26.116  0.2566  0.1200  0.0863
35885W        W92126   3.171  30.822   6.337  0.0960 -0.1144  0.1196
35886W        W92127  35.031  15.940  11.850 -0.2205  0.0238  0.2736
35887W        W92128   1.981   7.708  23.690  0.2401  0.2501 -0.0367
35888W        W92129   9.833  14.802  25.810  0.1643 -0.2374 -0.0645
35889W        W92130  10.289  11.805  24.393  0.0579 -0.1062  0.0872
35890W        W92131   7.204  12.175   0.884  0.0676  0.0918  0.1663
35891W        W92132  19.047   8.603  18.932  0.3016 -0.0935  0.0020
35892W        W92133   4.806  18.213   0.104 -0.0296 -0.1377 -0.1351
35893W        W92134   4.497  26.039  20.213 -0.1622  0.1643  0.0585
35894W        W92135  10.141  21.126   2.636  0.0350  0.0949  0.2085
35895W        W92136  18.777   6.527  20.509  0.1596 -0.0064 -0.2545
35896W        W92137  19.165   2.627  24.128  0.1294 -0.1188  0.1454
35897W        W92138  12.225   7.434  22.158 -0.0623  0.0542 -0.1893
35898W        W92139  31.539  11.636  21.205  0.3358 -0.2783 -0.4489
35899W        W92140  13.815  13.424   1.830 -0.1892  0.2437 -0.0903
35900W        W92141   0.576  25.578   3.330  0.1087 -0.0169  0.1558
35901W        W92142   8.401   5.481  14.453 -0.0335 -0.0323  0.0763
35902W        W92143  15.140  34.994  23.346  0.1470 -0.0493  0.4083
35903W        W92144  14.369  15.074  22.398 -0.1772 -0.0412 -0.1565
35904W        W92145  16.959  31.106  20.958 -0.1963 -0.2279  0.3328
35905W        W92146  18.406   7.634   4.140  0.0675 -0.2557  0.1188
35906W        W92147   3.293  28.442   0.398  0.1216 -0.1813  0.0560
35907W        W92148  34.853  19.994  11.937 -0.0918  0.1019 -0.0160
35908W        W92149  17.107  30.622  21.520 -0.1897  0.1603  0.4380
35909W        W92150  31.024  31.932  11.829 -0.0922  0.1428  0.1448
35910W        W92151  32.501  16.839  22.216  0.0109 -0.0378 -0.0110
35911W        W92152  11.649  17.703   1.346  0.1712 -0.1352  0.2124
35912W        W92153   7.753  17.136   0.037 -0.5007 -0.0359  0.2318
35913W        W92154  13.506   1.158   5.690  0.0131 -0.1837 -0.1520
35914W        W92155  30.037  30.527  24.958  0.3830 -0.0244  0.1082
35915W        W92156  31.776  25.032  21.605 -0.1982 -0.0817 -0.0200
35916W        W92157  34.313  33.917  21.151  0.0560 -0.0713  0.0873
35917W        W92158  12.502  21.179  23.332  0.1239 -0.0284 -0.0245
35918W        W92159  21.457   5.420  18.693  0.2436 -0.0372  0.1873
35919W        W92160  21.571  31.888   5.705 -0.1160  0.2453 -0.2344
35920W        W92161  15.106  26.590  24.314 -0.0926 -0.1165 -0.0936
35921W        W92162  24.003  31.275  13.714  0.2237  0.1169  0.1459
35922W        W92163   1.228  31.247   1.207  0.0563 -0.1917 -0.2092
35923W        W92164  16.149  27.038  20.900 -0.3269 -0.1705  0.1130
35924W        W92165  11.909   3.309   5.639  0.0535  0.3139  0.1473
35925W        W92166  26.777  27.137  23.058 -0.0667  0.1498 -0.1205
35926W        W92167  12.882  25.831   7.096  0.0157 -0.1429  0.0555
35927W        W92168  27.484  29.084  21.357  0.1891  0.2721  0.3124
35928W        W92169  19.177   8.117  21.798  0.0389 -0.0913 -0.1172
35929W        W92170   7.582  21.484   9.701  0.1831 -0.1502 -0.0081
35930W        W92171  21.024  29.012  18.097  0.0237 -0.1584 -0.4880
35931W        W92172  23.341  12.522  21.699 -0.1231 -0.1116 -0.3513
35932W        W92173   1.975  34.141   9.535  0.1143  0.2534  0.3979
35933W        W92174   8.236   5.828   5.973  0.0107 -0.0905 -0.2855
35934W        W92175   1.424  31.222   5.119  0.1266  0.2601 -0.0414
35935W        W92176  13.096   1.017   2.063  0.0248 -0.1148 -0.0056
35936W        W92177  13.716  30.960  14.682 -0.3249  0.2452 -0.3012
35937W        W92178  26.847  23.609  23.293  0.2708 -0.1016 -0.1294
35938W        W92179  16.339   9.364   9.943 -0.2062  0.0004 -0.1689
35939W        W92180  13.996  30.911  24.796  0.2784 -0.1489  0.0153
35940W        W92181   3.173   8.135   1.710 -0.0656  0.1740  0.3265
35941W        W92182  17.926  33.892  24.129  0.2329 -0.0236 -0.1610
35942W        W92183  30.843   0.377  20.653 -0.0398  0.1611  0.0068
35943W        W92184  11.819  10.204   9.448 -0.1346 -0.0245  0.1361
35944W        W92185   5.486  16.718  18.827 -0.1527 -0.0906  0.0668
35945W        W92186  19.084  29.025   2.745 -0.4116 -0.3648 -0.1772
35946W        W92187  27.712  32.071  16.621 -0.1729  0.2466  0.0177
35947W        W92188  20.889  29.406  17.692  0.0358  0.0228  0.0861
35948W        W92189  13.991  26.621   3.925  0.0779  0.1718  0.2909
35949W        W92190  21.206  15.585  23.102 -0.0805  0.0709  0.0381
35950W        W92191  32.338   4.527  25.477 -0.0118 -0.2304  0.0241
35951W        W92192  33.689   3.840  13.738  0.1280  0.1606 -0.4409
35952W        W92193  13.576  34.464  24.393 -0.0786  0.0051  0.2137
35953W        W92194  15.525  20.062  21.541 -0.1574 -0.1592 -0.4153
35954W        W92195  11.341  21.884   5.458  0.1502  0.0655  0.2425
35955W        W92196  28.644   3.889  12.790 -0.0528  0.1638  0.2110
35956W        W92197   2.233  14.153   1.897 -0.1774 -0.1052 -0.1687
35957W        W92198  25.836  23.266  20.981  0.0642  0.0787 -0.1060
35958W        W92199  17.602   6.551   5.737 -0.0438  0.3192 -0.3101
35959W        W92200  14.320  11.228   3.003  0.1304  0.3026 -0.0075
35960W        W92201   6.752   6.852  19.775  0.0074  0.1679  0.0658
35961W        W92202   0.577   1.533   6.366  0.0726 -0.0435 -0.2333
35962W        W92203  26.188   6.764  21.337  0.0495  0.4262 -0.0534
35963W        W92204   1.547  11.677   0.245 -0.1683  0.2613  0.3175
35964W        W92205  21.810  13.939  17.389  0.1417  0.3034 -0.2838
35965W        W92206  17.659  18.855  13.805 -0.0782  0.1721 -0.0346
35966W        W92207  18.171  25.514   1.831 -0.1317 -0.3416  0.4309
35967W        W92208   4.627  12.845   1.364  0.2455  0.1826 -0.0112
35968W        W92209  12.924   0.715   0.741  0.0878  0.0925  0.2660
35969W        W92210  23.929   9.677  14.681  0.6311 -0.1518  0.1404
35970W        W92211  10.792  28.728   1.709  0.2793  0.1127  0.0067
35971W        W92212  28.236  25.843   8.606  0.0365 -0.0444  0.0653
35972W        W92213  28.700  18.878  21.327  0.0268  0.0099 -0.0771
35973W        W92214  16.712   0.840   6.749  0.2447 -0.2696 -0.2360
35974W        W92215  33.236  15.996   9.615  0.1673 -0.0835  0.1693
35975W        W92216   8.283  18.201   8.247  0.1452  0.0203  0.1351
35976W        W92217  25.155  13.636  10.504 -0.0309  0.2683  0.0344
35977W        W92218  18.763  12.455   5.176 -0.0121 -0.1162  0.1236
35978W        W92219  32.265  19.518   7.732  0.0215 -0.0025 -0.4652
35979W        W92220  17.673   3.235   8.594 -0.1109  0.0565  0.0184
35980W        W92221  13.085  17.146   6.043  0.0181  0.2820 -0.1917
35981W        W92222  21.490   1.328  17.593 -0.1119 -0.1133 -0.0295
35982W        W92223  15.715  11.199  20.573  0.1793 -0.2754 -0.2491
35983W        W92224  10.659  26.369  14.826  0.0673 -0.0547 -0.2085
35984W        W92225   4.069  28.836   8.729  0.3220  0.0032 -0.0559
35985W        W92226  13.614  17.333  11.690 -0.0704 -0.0731 -0.1183
35986W        W92227  24.730   6.934   3.838  0.0686  0.0898  0.1436
35987W        W92228  23.218   5.256  19.853  0.0411 -0.0989  0.0118
35988W        W92229   6.956  18.469   5.616 -0.0503  0.1683 -0.1522
35989W        W92230  14.028  15.624  14.031  0.0578 -0.0337  0.1631
35990W        W92231   2.713  33.443  22.868 -0.0173 -0.1284  0.1478
35991W        W92232  31.322  12.439   7.996  0.0983 -0.0813  0.1181
35992W        W92233  11.978  16.405   2.097 -0.1074 -0.2070  0.0961
35993W        W92234  32.945   8.040  11.633 -0.0782  0.1229  0.0533
35994W        W92235   3.098   7.459   6.422 -0.5234 -0.1142 -0.2037
35995W        W92236  26.299  17.925   9.516  0.2161 -0.0272 -0.1946
35996W        W92237   4.150   0.132   6.480 -0.3353 -0.2641 -0.0114
35997W        W92238  34.529  11.831  20.881  0.2195  0.2432 -0.3744
35998W        W92239  14.801   5.649   4.996  0.0149 -0.0542  0.0641
35999W        W92240  11.868  29.716   4.387  0.3189  0.0796 -0.5295
36000W        W92241  20.005  29.408  23.689  0.0743 -0.0256 -0.0500
36001W        W92242  27.757  25.371  19.229  0.2867  0.1103 -0.1952
36002W        W92243  16.612  28.370  24.843 -0.1633 -0.0777 -0.0929
36003W        W92244  19.155  30.189   1.146 -0.0457  0.0666 -0.0537
36004W        W92245  25.857  12.489  21.840 -0.0582 -0.0865 -0.1832
36005W        W92246   3.130  11.352  20.106  0.4418 -0.0390  0.0843
36006W        W92247   4.453  31.660   8.876  0.3072 -0.0797 -0.0694
36007W        W92248  33.808  34.922  19.333  0.0562 -0.2852  0.2657
36008W        W92249  11.716  32.801   1.655  0.1987 -0.0698 -0.0668
36009W        W92250   7.555  10.937  20.696 -0.2299 -0.0115 -0.0109
36010W        W92251  23.693  31.294   3.304 -0.3001 -0.0763  0.1858
36011W        W92252  10.749  32.249  15.332 -0.0903 -0.1211 -0.2327
36012W        W92253  29.926   7.575   0.272  0.0347 -0.0578 -0.1343
36013W        W92254   0.165   6.692  21.585  0.4321  0.0518 -0.1136
36014W        W92255   0.378  14.053  22.454  0.0197  0.0048 -0.1582
36015W        W92256  18.683  27.125   2.384 -0.0403  0.0807 -0.4394
36016W        W92257   3.862  26.838  19.875  0.2616  0.1832 -0.0469
36017W        W92258   9.781  32.090  11.551 -0.3628  0.1576  0.1179
36018W        W92259  15.977  33.750   3.384 -0.0439 -0.1849  0.2595
36019W        W92260  33.955   7.893  23.453 -0.0450 -0.1157 -0.1115
36020W        W92261  31.926  23.624  11.615 -0.0098  0.0467 -0.0120
36021W        W92262   3.652  20.809  18.008  0.0023 -0.1292 -0.1930
36022W        W92263   1.274   5.798   1.480 -0.1280 -0.2329  0.0085
36023W        W92264  11.681   3.673  12.699  0.0147  0.1325  0.1876
36024W        W92265  22.524  24.661   2.923 -0.2821  0.2017  0.1639
36025W        W92266  29.454  25.610  18.141 -0.1034  0.1587  0.1524
36026W        W92267  15.642  26.102   0.291  0.1048  0.2096 -0.0776
36027W        W92268   6.058  16.919  20.938  0.0674  0.0776  0.1307
36028W        W92269  27.858  19.875  24.267 -0.2439  0.2195  0.2018
36029W        W92270   3.567   4.398  17.580 -0.0008  0.0218 -0.0452
36030W        W92271  31.758  29.242   1.309 -0.4324 -0.1045  0.3690
36031W        W92272  12.280   4.007   2.874 -0.2905 -0.1464  0.1225
36032W        W92273  13.254   4.449  10.811  0.1612 -0.1882  0.3362
36033W        W92274   4.168  34.154   7.522 -0.0269  0.0709 -0.0787
36034W        W92275  29.877  28.522   0.808 -0.0741 -0.1121 -0.2003
36035W        W92276   0.961   4.547  19.380  0.0945  0.0143  0.0684
36036W        W92277  20.963  26.761   4.192  0.2490 -0.0311  0.2032
36037W        W92278  14.420  23.489   0.508 -0.0258 -0.0435 -0.1771
36038W        W92279  34.468  11.799  10.360  0.0323  0.0877 -0.4174
36039W        W92280   4.222   4.991  23.826  0.3868  0.0145  0.1328
36040W        W92281  26.523  18.509   7.854  0.0819 -0.1405 -0.0282
36041W        W92282   8.736  26.353   4.454  0.3111 -0.0498 -0.2089
36042W        W92283   8.239   4.914  23.276 -0.0189  0.0340 -0.3055
36043W        W92284   1.394  13.780  26.190 -0.1231  0.0580  0.2455
36044W        W92285  27.146  12.916  23.073  0.2256 -0.0547 -0.0487
36045W        W92286  17.305  11.664  12.638  0.1190 -0.1947  0.2106
36046W        W92287  34.445  22.904  11.733  0.0400  0.1985 -0.3804
36047W        W92288  31.458   1.637  16.168 -0.2608 -0.1528 -0.1121
36048W        W92289   3.736  14.006  14.941 -0.0367  0.0316  0.0898
36049W        W92290   9.237   1.443   9.274 -0.0232  0.0633  0.1006
36050W        W92291   0.333  10.977  15.291  0.1010 -0.2386 -0.2411
36051W        W92292  14.437  21.245  10.438  0.1018  0.0061 -0.3028
36052W        W92293  21.683  21.407  25.997 -0.0511  0.3774 -0.5340
36053W        W92294  19.770   8.486   2.633 -0.1201  0.0266 -0.2563
36054W        W92295  12.984  13.138  23.139  0.2052  0.1000 -0.2692
36055W        W92296  25.643   0.958  24.670  0.1555  0.1005  0.0102
36056W        W92297  14.351  25.377  13.739  0.4029 -0.1630  0.4891
36057W        W92298  13.070  10.207  11.927 -0.0175 -0.3775 -0.0842
36058W        W92299   6.014  34.648   6.994 -0.2353 -0.0080 -0.2640
36059W        W92300  23.628  33.124  12.698 -0.0747 -0.0307 -0.2581
36060W        W92301  16.350  12.033   0.364  0.2104  0.1931  0.0608
36061W        W92302  11.038  23.088   3.860  0.2075  0.0728  0.4112
36062W        W92303  25.005   6.368  25.234 -0.1274  0.2095 -0.3622
36063W        W92304  22.163   2.502  14.929 -0.1474  0.1492  0.2080
36064W        W92305  22.990   1.264  25.017  0.1732 -0.0746 -0.0726
36065W        W92306  10.093  27.004   8.941 -0.1235  0.0904 -0.1148
36066W        W92307   9.664   8.389   1.361 -0.0330 -0.3253 -0.0824
36067W        W92308  12.757  23.261   0.675  0.2953 -0.0586 -0.0835
36068W        W92309   4.164  11.490   1.118 -0.1269 -0.4079  0.0179
36069W        W92310  26.584   3.412   2.508 -0.0435  0.2336  0.1912
36070W        W92311  25.364  13.269  15.903 -0.2394  0.2175  0.1255
36071W        W92312  31.554   6.101  22.912  0.1062 -0.2284 -0.2695
36072W        W92313   8.616   6.201  20.337  0.1446 -0.0557 -0.2007
36073W        W92314   8.472  33.514   6.923  0.1555 -0.3707  0.0211
36074W        W92315   0.351  14.301  25.981  0.0748 -0.2118  0.1296
36075W        W92316  29.763  27.760  11.308 -0.2004 -0.4112 -0.0220
36076W        W92317  21.682  27.807  20.380 -0.0382  0.0168  0.3527
36077W        W92318  22.854   6.111  19.600  0.1167 -0.0288  0.0850
36078W        W92319  34.260  22.334  24.298 -0.2937 -0.0645 -0.2459
36079W        W92320  34.767  29.165  16.574  0.1937  0.2816  0.4847
36080W        W92321   7.131  32.615  12.390 -0.3046 -0.3284  0.1967
36081W        W92322   9.994  22.980  24.493  0.0521 -0.0447  0.3554
36082W        W92323   8.226  21.716  12.716  0.0691  0.2397  0.5075
36083W        W92324   3.008  28.422   6.300 -0.1954 -0.1416 -0.1461
36084W        W92325  11.927   9.623  24.992  0.3347 -0.2195  0.2887
36085W        W92326   3.995   5.731   1.954  0.1333  0.0082  0.3824
36086W        W92327   9.033  32.230   2.198  0.3269 -0.0578 -0.1094
36087W        W92328  27.487   9.673  24.547 -0.3083  0.3064 -0.1405
36088W        W92329   7.415  30.896   5.094 -0.1862 -0.0231  0.1277
36089W        W92330  29.446  34.446  15.459 -0.2676 -0.1836 -0.0410
36090W        W92331   1.271  28.051  20.897  0.2053  0.0678  0.1086
36091W        W92332  18.504  29.165  22.374 -0.0260 -0.0935 -0.0183
36092W        W92333  14.902   0.281   8.242 -0.1158  0.1842  0.1002
36093W        W92334   2.373  32.255  22.039 -0.1352  0.1300 -0.0562
36094W        W92335  13.782  27.976  11.366  0.2918  0.1819 -0.0819
36095W        W92336  18.193  16.541  23.203  0.0053 -0.1352 -0.3294
36096W        W92337  23.375   5.547   5.206  0.2072 -0.3146 -0.0757
36097W        W92338   4.675  25.265  25.507 -0.0587 -0.0474  0.4069
36098W        W92339  34.940  31.419  23.854 -0.0291  0.0553  0.1371
36099W        W92340  23.833  26.397  16.799 -0.0881 -0.0614 -0.0963
36100W        W92341  29.956  26.994   0.090 -0.2687  0.1367  0.0914
36101W        W92342  12.722  11.738  22.252 -0.1771 -0.0048 -0.2816
36102W        W92343  26.200  14.324  14.698 -0.1305  0.0966 -0.2677
36103W        W92344  23.426   6.725  24.400  0.1695  0.1958  0.1627
36104W        W92345  14.804   5.966  11.459  0.2303 -0.3148 -0.1316
36105W        W92346  22.807   5.306  16.315 -0.3172  0.2293  0.0567
36106W        W92347  33.587   6.018  25.551  0.1099 -0.0600 -0.0941
36107W        W92348  21.202  34.826   3.045  0.0937 -0.1190  0.4208
36108W        W92349  15.195   0.223   3.131 -0.0993  0.0057 -0.1337
36109W        W92350  12.631  23.291   7.307 -0.2268 -0.1089  0.1615
36110W        W92351  18.520  10.459   7.728 -0.1575  0.0461  0.1293
36111W        W92352  24.697  21.305  22.157  0.3576  0.0335  0.2323
36112W        W92353  20.510  29.259  20.450 -0.0334  0.2090 -0.0453
36113W        W92354  12.714   3.545   4.527 -0.1220 -0.2260  0.0008
36114W        W92355  26.603  15.105  14.548 -0.1465  0.1060  0.0960
36115W        W92356   1.105  24.865  23.964 -0.2369 -0.1256 -0.1554
36116W        W92357  35.336  19.366   0.558  0.1255 -0.1342  0.1406
36117W        W92358  30.061   2.631   3.245  0.1913  0.0257  0.1333
36118W        W92359  33.011   5.576  14.540 -0.1380 -0.0147  0.1578
36119W        W92360  31.069  13.136  19.480  0.1364  0.4706  0.0110
36120W        W92361  25.397   7.125  13.922 -0.1457 -0.1650 -0.2062
36121W        W92362  33.755  26.166  20.318  0.1333  0.0098 -0.1090
36122W        W92363  17.277   9.054  25.489 -0.0425 -0.1993  0.4408
36123W        W92364  33.640  31.238   0.763  0.1843  0.0376 -0.0500
36124W        W92365  26.669  13.755   6.978  0.1146  0.0558  0.0226
36125W        W92366   1.094  14.920  23.012  0.1232 -0.2031  0.2229
36126W        W92367  17.384   6.578   1.897  0.0839  0.2054 -0.2253
36127W        W92368   6.303  24.952  10.171 -0.0931  0.0311  0.0601
36128W        W92369  29.384  29.290   3.282 -0.2515  0.0392 -0.0825
36129W        W92370  14.171  17.598   5.251 -0.0694 -0.1517  0.1474
36130W        W92371  13.585  22.733  23.424  0.1310  0.0002 -0.0980
36131W        W92372   1.721   9.294   4.517  0.0200 -0.1117 -0.3640
36132W        W92373  32.525  12.730  12.718  0.2118  0.0952  0.2229
36133W        W92374  25.398  31.935  18.323 -0.1759 -0.1329  0.1334
36134W        W92375  26.305  25.684   2.361  0.0302  0.0693 -0.1465
36135W        W92376   0.217  10.279  22.355  0.1947  0.1022 -0.1581
36136W        W92377  32.565  21.405  23.994  0.1073 -0.2750 -0.0728
36137W        W92378  10.592  25.007  16.517  0.0705  0.0987  0.2517
36138W        W92379  19.986   5.647   5.411  0.1898  0.1506 -0.0262
36139W        W92380   1.799   6.459   0.621  0.1722  0.0940  0.1979
36140W        W92381   5.805   6.419  20.764 -0.1120  0.0367  0.2692
36141W        W92382   9.186  29.513  26.174 -0.0087 -0.1622 -0.0566
36142W        W92383   7.110  17.028  22.795  0.1115  0.0137 -0.1334
36143W        W92384   8.866  30.081  13.949 -0.2905 -0.1535 -0.2040
36144W        W92385  33.842  18.540  23.912 -0.0142  0.4390 -0.0592
36145W        W92386  29.484  15.478  23.808 -0.0087  0.0286 -0.2077
36146W        W92387  26.627  28.590   1.535  0.0049 -0.3908 -0.1243
36147W        W92388  21.985  25.304  19.662 -0.1299 -0.0401 -0.1502
36148W        W92389  23.607  21.091  25.887  0.0742  0.1599  0.0669
36149W        W92390  11.365  22.811   0.538  0.0003 -0.3926 -0.1160
36150W        W92391  32.686   2.028  25.500  0.3901  0.0995 -0.1144
36151W        W92392  23.411   6.311   1.579 -0.1793 -0.1866  0.1302
36152W        W92393  29.424   2.519   3.577 -0.0718 -0.0229 -0.1940
36153W        W92394  33.431  35.212   4.409 -0.3063  0.0269 -0.1518
36154W        W92395   2.075   3.981   6.249  0.0649 -0.1489 -0.2562
36155W        W92396   8.491  30.200   8.875 -0.1145  0.4800  0.1252
36156W        W92397  30.369   6.874   1.435 -0.1105  0.3561  0.0116
36157W        W92398   5.080   1.877  19.909 -0.1785  0.0723 -0.0774
36158W        W92399  24.447   4.700  14.271 -0.1664  0.0549 -0.1705
36159W        W92400  12.769   3.606   0.780  0.2464 -0.1684 -0.1695
36160W        W92401  27.518  16.527  25.959  0.4893  0.0654  0.1198
36161W        W92402  27.470  24.793  22.869 -0.0252 -0.2689  0.1560
36162W        W92403  24.253  19.468  18.139  0.0822  0.0786  0.0066
36163W        W92404  16.624  32.900  17.921 -0.1149  0.0340  0.1171
36164W        W92405   6.211  29.001  12.469  0.1684  0.0479  0.1011
36165W        W92406  12.894   9.834   2.624  0.1257  0.0366  0.1320
36166W        W92407   7.249  20.040  20.706 -0.5357 -0.3071 -0.3832
36167W        W92408   8.799  32.008   6.132  0.1934  0.2353 -0.2913
36168W        W92409   9.741  22.919   9.755 -0.1608  0.0727 -0.0078
36169W        W92410  19.132  15.665  23.073  0.0708 -0.1627 -0.1033
36170W        W92411   8.806  26.230   9.103 -0.4010 -0.1636  0.1208
36171W        W92412  29.211  34.197  19.773  0.1767  0.1315  0.1024
36172W        W92413  33.751   2.547  18.062 -0.0789  0.1371 -0.1413
36173W        W92414   2.314   6.256  17.354 -0.0873 -0.0876  0.2221
36174W        W92415   5.453   3.352  23.047  0.3477  0.0265 -0.4149
36175W        W92416   0.183   3.972  20.214 -0.0379 -0.2023 -0.0874
36176W        W92417  12.003  16.282   5.166 -0.0553 -0.2376 -0.2637
36177W        W92418   3.948   6.137   1.318  0.0750 -0.2538 -0.2376
36178W        W92419  21.770  31.878   1.819 -0.1993 -0.2563 -0.1448
36179W        W92420  26.722   3.770   5.356 -0.1954 -0.0644  0.0069
36180W        W92421  16.509  33.051  23.310  0.0647  0.1483  0.1200
36181W        W92422  17.562  17.649   3.660 -0.0186 -0.3099 -0.3417
36182W        W92423  18.604  34.859  24.757 -0.0627 -0.0487  0.1321
36183W        W92424  33.206  31.343  12.161  0.1770 -0.2784  0.4313
36184W        W92425  11.736   7.504   0.079  0.0029 -0.0937 -0.1305
36185W        W92426  14.493  12.375  14.128  0.0248 -0.3222 -0.0734
36186W        W92427  29.192  32.947  20.688  0.2923 -0.2620  0.2511
36187W        W92428  31.445  33.806  17.092  0.0513  0.0559  0.0494
36188W        W92429  31.140  29.963   3.111  0.0865  0.2121 -0.2379
36189W        W92430  25.447  29.533  13.362  0.0282 -0.1929 -0.0914
36190W        W92431   8.624   8.474  11.055 -0.0446 -0.3216 -0.0061
36191W        W92432   7.913  29.599   3.650  0.1263  0.0512 -0.1647
36192W        W92433  17.185  30.573  11.004  0.0556  0.2326  0.1460
36193W        W92434  30.469  26.333  15.014 -0.2909 -0.1874 -0.2567
36194W        W92435   5.493  19.583   3.225  0.0561  0.0641  0.2458
36195W        W92436  34.641   9.662  18.308 -0.0675 -0.0476 -0.1795
36196W        W92437  34.870  12.593   0.201 -0.0979 -0.0813  0.2657
36197W        W92438  19.751  29.972   7.781 -0.2406 -0.1446 -0.2952
36198W        W92439   3.209  28.103   3.750  0.2791  0.0333  0.0430
36199W        W92440  22.252  32.517  13.407 -0.0593 -0.0020 -0.1775
36200W        W92441  32.177  32.570   1.647 -0.2242 -0.0142  0.3659
36201W        W92442  13.794  27.670   0.073  0.1493 -0.0907  0.1461
36202W        W92443  13.150  22.180  22.857  0.1577 -0.2237  0.4648
36203W        W92444  23.074  34.642   6.926  0.0108 -0.1318  0.2262
36204W        W92445  20.612  17.997  26.014 -0.0908  0.1597  0.1004
36205W        W92446  18.184  34.585   8.799  0.2440 -0.1219  0.1901
36206W        W92447  28.802  30.709  16.018  0.0304  0.4934 -0.2985
36207W        W92448   4.789  31.875   2.421 -0.1192 -0.2496 -0.0619
36208W        W92449   8.892  24.503  13.298  0.0503  0.1465 -0.1928
36209W        W92450  23.112  27.528  12.698  0.5437 -0.0779 -0.1072
36210W        W92451  25.033   9.495  24.429  0.1630 -0.0258  0.2036
36211W        W92452   1.613  31.430   8.178  0.0516  0.0673  0.2498
36212W        W92453  35.234  19.242  18.981  0.2006  0.0664 -0.3004
36213W        W92454   9.305  30.943   0.302  0.0171  0.0860  0.0078
36214W        W92455  18.015  33.597  17.098  0.0565 -0.1528  0.1972
36215W        W92456  22.213   9.175   5.160 -0.1849  0.1018  0.0255
36216W        W92457  26.546  19.231  12.280  0.2857 -0.0866 -0.0892
36217W        W92458   7.487   8.925  17.708 -0.1372 -0.2915 -0.2168
36218W        W92459  21.355   8.649  17.627 -0.0805 -0.0186 -0.1144
36219W        W92460  12.635   0.923   5.320 -0.2613  0.1292  0.2132
36220W        W92461   5.796   9.835   3.337  0.5503  0.0350  0.0676
36221W        W92462  13.799  31.273   5.737 -0.2371  0.1742 -0.1332
36222W        W92463   3.201   0.392  21.052 -0.0224  0.0167 -0.3389
36223W        W92464  16.097  25.118   3.489  0.1424 -0.1688 -0.1401
36224W        W92465  10.633  21.424  15.729 -0.1458 -0.1647 -0.0645
36225W        W92466  16.147  16.215  12.244 -0.2023 -0.0140  0.1958
36226W        W92467   7.697  18.050  23.162 -0.1140 -0.3142 -0.3242
36227W        W92468  17.571   3.590  26.076 -0.4568 -0.3923  0.1045
36228W        W92469  28.027  12.260  15.179 -0.1667 -0.1268 -0.0622
36229W        W92470   4.982  12.594  18.177  0.1656 -0.1476 -0.1977
36230W        W92471   3.939   6.093  26.205 -0.0093 -0.1213 -0.3139
36231W        W92472  17.254  32.772  10.327  0.1014  0.1240  0.1367
36232W        W92473  25.440   4.833  15.412 -0.2479  0.1122 -0.0755
36233W        W92474   9.046  15.487   0.660  0.2210 -0.1942  0.3411
36234W        W92475  35.355  19.611  12.412  0.0029  0.1049  0.2807
36235W        W92476  21.248  25.908  20.518 -0.0454 -0.0923  0.2121
36236W        W92477  17.426  14.123   0.271  0.0003  0.0268  0.2518
36237W        W92478   7.407  29.736   8.771  0.0234 -0.2231 -0.1428
36238W        W92479  10.611  23.192   0.952 -0.4616 -0.1768 -0.1017
36239W        W92480  11.446  26.451  14.797  0.0675 -0.0177 -0.0903
36240W        W92481  17.188  21.293   4.452 -0.1744  0.4760  0.1287
36241W        W92482  27.291  16.875  23.760  0.0693  0.2264  0.1774
36242W        W92483   2.236  14.779  17.360 -0.1710  0.0978  0.2552
36243W        W92484  21.909   1.388  18.866 -0.0719 -0.0511  0.0735
36244W        W92485  22.486  18.452   2.772 -0.1375  0.0519 -0.2696
36245W        W92486  31.205  20.604  21.055  0.0107  0.2206  0.2453
36246W        W92487   9.290  22.661   9.046 -0.1709 -0.1009  0.0329
36247W        W92488   4.967  23.846  24.991  0.0301  0.0364  0.0935
36248W        W92489  28.618  30.196  20.925 -0.0851 -0.1540 -0.2063
36249W        W92490  20.948   7.949   8.499 -0.1911 -0.1246 -0.2543
36250W        W92491  33.109  23.292  11.829  0.0527  0.2440  0.0902
36251W        W92492  33.609  13.803  19.696 -0.0443 -0.0776 -0.0053
36252W        W92493  22.428   6.265  19.342  0.0230  0.1090 -0.1280
36253W        W92494  29.755  13.739  16.980 -0.0193 -0.2926 -0.3643
36254W        W92495  31.637  16.274  14.968  0.0437  0.0960 -0.1661
36255W        W92496   6.468  15.192  17.900 -0.2209  0.2158 -0.1099
36256W        W92497   9.490  17.440   3.582  0.2117  0.1274  0.0935
36257W        W92498  17.377  13.352  19.682 -0.1586  0.0100 -0.1176
36258W        W92499  34.548   7.996  22.357 -0.1701 -0.3999 -0.0326
36259W        W92500   6.546  30.055  13.538  0.3735 -0.1921  0.1757
36260W        W92501  13.137  10.443  22.585  0.0540  0.2159 -0.2274
36261W        W92502  15.372  21.161   6.534 -0.1522  0.1789  0.0181
36262W        W92503  29.096  23.079  13.485 -0.1110 -0.1183  0.1105
36263W        W92504  27.048   2.697  15.398  0.4315 -0.0108 -0.2194
36264W        W92505   0.194  19.946  18.966 -0.4193  0.1374  0.4627
36265W        W92506  34.455  28.157  13.536  0.1664 -0.1121  0.1610
36266W        W92507   4.708  17.862   3.145 -0.0567 -0.2994 -0.2519
36267W        W92508  10.690  28.824  16.195 -0.0591  0.2480 -0.0191
36268W        W92509  22.399  24.050  16.156 -0.1939 -0.1413  0.0481
36269W        W92510  24.954  33.109  21.179  0.1141  0.0175 -0.1528
36270W        W92511  11.350   8.453  12.085 -0.0928  0.0985  0.0540
36271W        W92512  10.832  17.494  19.189  0.0712 -0.2643  0.2786
36272W        W92513  23.934  34.037  19.309 -0.1917 -0.3101 -0.1375
36273W        W92514   1.209   8.027  25.235  0.0428 -0.0104  0.0215
36274W        W92515  31.784  10.784  22.368 -0.0469 -0.1564 -0.0227
36275W        W92516   4.990  21.259  22.751 -0.0341 -0.0663  0.0969
36276W        W92517   4.910   6.726   0.632 -0.3239  0.1860 -0.3165
36277W        W92518   0.122   6.243   5.881  0.0189 -0.0480 -0.0455
36278W        W92519  33.556  13.714  14.415 -0.3209  0.0949  0.1733
36279W        W92520  23.599  25.774  23.794  0.2236 -0.2033  0.3444
36280W        W92521  11.471  15.846  11.616 -0.0446  0.2388 -0.1015
36281W        W92522  31.327   8.053  10.626 -0.0419  0.0065 -0.0664
36282W        W92523  27.648  25.015  20.341  0.0415  0.0795 -0.1367
36283W        W92524   4.256   7.401   1.874  0.2498 -0.1973  0.0465
36284W        W92525   1.055  12.182  12.555  0.2278  0.1363 -0.0875
36285W        W92526   7.243  21.923   9.271  0.1791 -0.1374  0.1967
36286W        W92527   6.755  27.484   7.809  0.0954  0.0847 -0.0211
36287W        W92528  27.172  25.967   0.231 -0.3082  0.1004 -0.2709
36288W        W92529   2.424  18.595  12.353  0.1817 -0.3067 -0.1627
36289W        W92530  30.246   5.675  14.754  0.3719 -0.2005 -0.2894
36290W        W92531  11.122   4.074   7.516  0.1610  0.2314  0.4466
36291W        W92532   6.424  22.293   0.475 -0.2395  0.0738 -0.4591
36292W        W92533  24.222   6.183  17.303  0.1281  0.0369 -0.1180
36293W        W92534  18.365  20.047   2.474 -0.0615  0.0766  0.1697
36294W        W92535   9.168   0.787   1.708  0.3140 -0.3553 -0.2081
36295W        W92536  10.580  10.297   4.260  0.0131 -0.1502  0.4489
36296W        W92537  26.748  12.936  20.688  0.1772 -0.0935  0.1169
36297W        W92538  30.984  25.541  12.037  0.0167 -0.1358 -0.4306
36298W        W92539  16.303   6.869   8.446  0.0441 -0.2924 -0.2475
36299W        W92540  14.527   7.605  10.688  0.0005  0.0841  0.0763
36300W        W92541  23.091  12.053  16.407  0.2989 -0.0689  0.1954
36301W        W92542  19.657   3.909   5.754  0.0664  0.2548  0.0208
36302W        W92543   2.098  17.744  18.912  0.2212  0.0266 -0.1227
36303W        W92544   5.211   6.089   9.888 -0.0558 -0.3515 -0.0118
36304W        W92545  26.300   1.719  21.124 -0.0684 -0.3944 -0.4443
36305W        W92546  32.324  29.736  24.254  0.0451 -0.1685  0.0138
36306W        W92547  13.573   0.474   2.979 -0.1439  0.1412  0.1031
36307W        W92548  32.828  16.135   6.216  0.1343 -0.1099  0.0029
36308W        W92549  26.239  26.051  16.760  0.0334  0.0753 -0.1492
36309W        W92550   4.368  19.855  19.214 -0.5502  0.1637  0.0755
36310W        W92551   5.339   5.608   9.964 -0.0213 -0.2775  0.0770
36311W        W92552  11.973   4.855   2.960  0.2480 -0.1684  0.0930
36312W        W92553  24.723  25.353   1.225 -0.3926 -0.0537  0.2818
36313W        W92554   6.518  31.644  13.526 -0.0191  0.1098 -0.1164
36314W        W92555   5.093   7.863   2.118  0.1091  0.1790 -0.2521
36315W        W92556   9.238   9.324  12.726 -0.0349  0.0449  0.1092
36316W        W92557  21.121  19.947  26.164  0.0428 -0.1187  0.1186
36317W        W92558  32.412  33.914  15.564 -0.0383  0.1112 -0.2082
36318W        W92559  10.168   0.716  13.224  0.1413 -0.0519  0.1536
36319W        W92560   6.284  13.990  23.988  0.0383  0.2999  0.2296
36320W        W92561  10.900  25.331   2.314 -0.1383  0.0088 -0.3939
36321W        W92562  20.641  35.135  16.885 -0.3665  0.2268  0.2764
36322W        W92563   9.812   9.173  19.149 -0.3100 -0.3211 -0.0192
36323W        W92564  13.687  34.676   7.426  0.0680  0.0537  0.0025
36324W        W92565   1.236  20.743   0.137  0.0340  0.1973  0.0555
36325W        W92566   9.770   0.234  20.804  0.2610 -0.0197  0.0851
36326W        W92567  26.583  32.809  16.717  0.1599 -0.0117  0.0507
36327W        W92568   6.805  12.806  25.111 -0.0879  0.0813  0.5786
36328W        W92569  16.803  30.106   8.871  0.0850  0.0021 -0.1534
36329W        W92570  30.904   4.210   3.229 -0.0110  0.2095  0.0609
36330W        W92571  21.490   4.500   0.977  0.0290  0.1037 -0.1486
36331W        W92572  16.993   0.227   1.734 -0.2217 -0.4944 -0.0501
36332W        W92573  23.366   9.123  16.578  0.1063 -0.0012  0.1168
36333W        W92574  33.235  11.175  15.702 -0.3457  0.0595  0.2233
36334W        W92575   9.642   9.707   1.287  0.0916  0.0140 -0.2803
36335W        W92576  12.045  27.924   7.570 -0.0465  0.1740 -0.0725
36336W        W92577  30.988  34.470  11.722  0.2207 -0.0647 -0.1651
36337W        W92578   0.002   8.267   1.216 -0.1501 -0.1463  0.2007
36338W        W92579  32.265  18.221   7.241 -0.0300 -0.2758  0.1544
36339W        W92580  12.951   8.366  10.465 -0.2209  0.0361 -0.2498
36340W        W92581  24.346   3.863  18.612 -0.0180 -0.1528  0.1776
36341W        W92582  31.831   5.880  20.604 -0.0941  0.0417 -0.1678
36342W        W92583  11.659  25.761   9.764  0.0450  0.3649  0.3696
36343W        W92584   5.354  12.808   8.984 -0.1832  0.0636 -0.1205
36344W        W92585  18.010  23.238  10.189  0.3719 -0.2793 -0.1362
36345W        W92586  26.273  17.413  14.439 -0.1015 -0.1984 -0.1921
36346W        W92587  18.660  19.773   1.762 -0.0598 -0.0123 -0.4207
36347W        W92588  15.143  22.537  21.719 -0.1941 -0.0638  0.3457
36348W        W92589  33.237   7.447  16.664 -0.2609  0.2453 -0.1271
36349W        W92590  27.595   2.027  20.509 -0.1014  0.0704  0.0396
36350W        W92591   4.874  34.631   5.445  0.4256 -0.2036 -0.0818
36351W        W92592   7.542  13.023  21.522  0.5388 -0.0549  0.0165
36352W        W92593   3.624  30.058   3.174  0.0486 -0.0844  0.0420
36353W        W92594  17.255  31.441   1.696 -0.0173 -0.0531  0.0026
36354W        W92595  19.903  21.828  21.712  0.0945  0.0556 -0.1835
36355W        W92596   5.909  31.764   0.896 -0.3522  0.1050 -0.0721
36356W        W92597   6.670   0.451   2.776  0.0211 -0.1466  0.1252
36357W        W92598   1.939   4.449   6.284 -0.2840 -0.0679 -0.0956
36358W        W92599  32.626  21.065  22.410 -0.0566  0.1177 -0.0929
36359W        W92600  10.699  20.743  13.599  0.4807  0.1656  0.1756
36360W        W92601  12.273   6.392   9.611 -0.1858  0.1643  0.0956
36361W        W92602  22.832  24.419  14.693  0.2512 -0.0566 -0.0322
36362W        W92603  22.330  28.377  14.902  0.0352 -0.1759  0.2620
36363W        W92604  18.580   0.423  17.299  0.0545  0.0915 -0.1572
36364W        W92605  18.029   7.210  11.508 -0.0945  0.3350 -0.0185
36365W        W92606  29.439  31.163   1.763 -0.1020 -0.3609  0.0514
36366W        W92607  23.213  32.107  13.094  0.1292  0.0582  0.4420
36367W        W92608  19.282   7.620   4.746  0.2725  0.0807 -0.3719
36368W        W92609   8.642  27.290   3.506  0.0060 -0.0803 -0.1119
36369W        W92610  27.208  19.745  18.112  0.1164 -0.0770  0.2109
36370W        W92611  12.129  10.019  19.829 -0.0343 -0.0750 -0.0204
36371W        W92612  33.903  33.990  20.269 -0.0530 -0.1502 -0.0973
36372W        W92613   5.351  26.912  12.007 -0.0462 -0.3799 -0.1198
36373W        W92614   9.702  11.196   7.960 -0.1401 -0.1091  0.3693
36374W        W92615  15.629  19.686  25.836  0.1004 -0.1685  0.1461
36375W        W92616   8.223  18.331  12.370 -0.0473  0.1718  0.2992
36376W        W92617   8.350   5.901  12.157  0.0255  0.0064  0.1750
36377W        W92618  11.743  34.404   2.579 -0.0674  0.2519  0.0899
36378W        W92619  20.242  27.969  20.107 -0.0465  0.0296  0.1845
36379W        W92620   1.202  34.568   6.218  0.0088  0.0510 -0.3544
36380W        W92621  29.970   8.016  15.066  0.0880  0.0109 -0.2507
36381W        W92622  31.401  32.294  15.820  0.0858  0.0073  0.1125
36382W        W92623  13.382   2.776  23.319  0.2292 -0.0017 -0.0937
36383W        W92624  33.926  29.678   2.985 -0.0267  0.0426  0.2042
36384W        W92625  25.572   4.480   1.086 -0.1413  0.1935 -0.2587
36385W        W92626   7.630   0.245  23.162 -0.2884 -0.2699  0.0851
36386W        W92627   2.684  20.436   2.906 -0.2273 -0.0250 -0.1383
36387W        W92628  25.455  31.239  15.661 -0.3548  0.2192 -0.0429
36388W        W92629  23.871  33.801   5.558 -0.0218 -0.1746 -0.2615
36389W        W92630  30.824  26.988  22.824  0.2555 -0.2954 -0.3294
36390W        W92631  23.364   1.995  25.151  0.0445 -0.2087 -0.0971
36391W        W92632   7.782  18.311  19.912  0.1201 -0.0858 -0.2820
36392W        W92633   1.987  12.084  23.253  0.1321 -0.1281 -0.0590
36393W        W92634   3.002  12.493  22.368 -0.0609  0.0093 -0.0242
36394W        W92635  32.748   7.685   4.627 -0.0883  0.1042  0.4193
36395W        W92636  28.326   9.893  19.701 -0.0227 -0.1979  0.2409
36396W        W92637  15.713  12.114  24.316  0.0671  0.0563 -0.0728
36397W        W92638  18.541  20.296   9.093 -0.0298  0.0374 -0.1388
36398W        W92639  31.316  20.387   4.700  0.1265  0.1255 -0.1064
36399W        W92640  31.356  27.309  22.860  0.2449 -0.5004 -0.1537
36400W        W92641  32.081  33.946   0.640  0.0295 -0.1093  0.0291
36401W        W92642   9.031   1.142  23.117 -0.1330  0.2652 -0.1076
36402W        W92643   8.238  21.473   1.676 -0.1319 -0.1630  0.4324
36403W        W92644   9.346   0.655  24.813  0.0935 -0.1579 -0.0113
36404W        W92645  15.975  27.368   0.746 -0.1231 -0.1851  0.0413
36405W        W92646  28.855  14.250  12.854 -0.0787  0.0188 -0.0900
36406W        W92647   2.645   5.430   7.682  0.1745 -0.1340 -0.1983
36407W        W92648  14.588  13.878  23.772 -0.1501 -0.1300  0.1437
36408W        W92649   3.757  18.342  22.144  0.1031  0.1133  0.2204
36409W        W92650  30.121  15.458   7.145 -0.0788 -0.1740  0.3014
36410W        W92651   1.091   0.591   4.116 -0.0608  0.0184  0.4984
36411W        W92652   2.426  15.206  14.857 -0.2924  0.3506  0.0888
36412W        W92653  12.306   0.263   7.296  0.5968 -0.3154  0.4861
36413W        W92654  32.393   7.925  15.692  0.0168  0.1011  0.2514
36414W        W92655  34.446  32.498  18.436 -0.0256 -0.3465  0.1026
36415W        W92656  24.513  15.424  22.211 -0.1039 -0.1486  0.0053
36416W        W92657  28.520  27.402  10.201 -0.4108  0.0846 -0.2876
36417W        W92658  16.528   5.980   0.107 -0.1825  0.1016 -0.3045
36418W        W92659  11.659  18.549   9.357  0.2177 -0.1205  0.0393
36419W        W92660  12.421   2.510  12.430 -0.1114 -0.3613 -0.0240
36420W        W92661   1.955  11.374  24.890 -0.2154 -0.0452  0.1208
36421W        W92662   9.609  24.266  10.777  0.2329  0.1057 -0.0395
36422W        W92663  13.292   1.708  20.751  0.0317 -0.2358  0.0840
36423W        W92664   9.217  16.438   1.707 -0.1289 -0.1566  0.0036
36424W        W92665  31.176  13.673   5.582 -0.2976 -0.1970 -0.0492
36425W        W92666   0.383  13.852  13.898 -0.0130 -0.1937 -0.1148
36426W        W92667   8.252  20.039   4.966 -0.1892 -0.0398  0.2044
36427W        W92668   3.618  27.579  22.386 -0.2527 -0.1197 -0.0592
36428W        W92669   3.499  14.385  25.250  0.0286 -0.1297 -0.0332
36429W        W92670  29.457   0.210  17.479 -0.0507 -0.4331  0.1569
36430W        W92671  33.715  31.692   6.558  0.1859 -0.1035  0.2969
36431W        W92672  13.740  14.399  25.296  0.1281  0.2717  0.0027
36432W        W92673  29.770   5.414  15.006 -0.1349  0.3137  0.4522
36433W        W92674  26.452  28.999  16.654 -0.2530  0.1958 -0.2474
36434W        W92675   8.968   7.443  21.402  0.0653  0.0346 -0.0596
36435W        W92676  24.393  24.343  22.190  0.0817  0.1542 -0.2613
36436W        W92677  13.009  30.106  12.718 -0.0428 -0.0942  0.1254
36437W        W92678  19.196  19.308   9.946  0.0517 -0.3009 -0.1855
36438W        W92679  14.142   0.851   8.765  0.0063 -0.0525 -0.1557
36439W        W92680   0.175  21.376  24.050  0.0894 -0.0976 -0.0932
36440W        W92681   6.638  25.815  10.567 -0.3884 -0.0952 -0.2253
36441W        W92682   5.236  21.714   3.228 -0.0618  0.1152  0.0041
36442W        W92683  10.972   0.870  14.516  0.2887 -0.2791 -0.1768
36443W        W92684  23.427   5.841  18.668  0.0484  0.0479  0.2176
36444W        W92685  34.537  28.657  15.278 -0.0484  0.2118 -0.0745
36445W        W92686   5.905  34.812   4.503 -0.7339 -0.4105 -0.0396
36446W        W92687   0.951  18.030  15.650 -0.1955 -0.0876 -0.1920
36447W        W92688  13.763  33.132  10.353 -0.2135  0.0483 -0.2827
36448W        W92689  24.302  33.822  25.618 -0.0822 -0.1119 -0.1948
36449W        W92690  11.512  10.125   1.789 -0.1419 -0.2474 -0.0293
36450W        W92691  32.925  22.594  24.846  0.2011  0.1385  0.1794
36451W        W92692   9.128   3.242  25.303 -0.1639  0.0155 -0.0015
36452W        W92693   9.720  29.198  23.742  0.0756  0.0224 -0.0898
36453W        W92694  24.568  27.613  12.375  0.0099 -0.1599 -0.0418
36454W        W92695   8.918   1.140  20.083 -0.0086  0.1466 -0.2658
36455W        W92696  33.855  33.743   5.737  0.2523 -0.0818 -0.1312
36456W        W92697  14.667  10.477  11.126  0.1503  0.0499 -0.0972
36457W        W92698  28.330  24.981  24.488 -0.0055 -0.1188 -0.1380
36458W        W92699   4.662   8.774  18.141  0.1596 -0.0962 -0.2982
36459W        W92700  33.023  25.283  15.859  0.2926 -0.0635 -0.0754
36460W        W92701  14.205  20.394   8.464 -0.1312  0.1972  0.0942
36461W        W92702  25.080   0.319   3.672  0.0936  0.0596  0.2720
36462W        W92703  25.214  15.653   9.520 -0.0448 -0.1034 -0.1270
36463W        W92704  21.866   3.188   3.857 -0.1432 -0.3339  0.1462
36464W        W92705  25.871  23.325  12.369 -0.3275  0.0937  0.1033
36465W        W92706   5.895  12.084   3.638 -0.3668 -0.0609  0.0575
36466W        W92707   7.700   5.691   9.405 -0.0810  0.2895  0.1799
36467W        W92708  27.323   6.542  14.890  0.0430 -0.1105  0.1042
36468W        W92709   2.734   2.243   0.441  0.0678  0.2354 -0.0523
36469W        W92710  22.925   1.448   6.036 -0.1893 -0.2704 -0.1988
36470W        W92711  10.845  15.310  19.716  0.1228 -0.0082  0.1660
36471W        W92712   7.693  21.782   4.899  0.4619  0.1172  0.2604
36472W        W92713  26.987  25.769  18.904 -0.2636  0.1092 -0.1196
36473W        W92714  13.175   9.745  20.709  0.0553 -0.0157 -0.1920
36474W        W92715  27.896  16.521   8.352  0.1485  0.0808  0.0880
36475W        W92716  15.933   8.329  20.532  0.0194 -0.2495 -0.2759
36476W        W92717  20.045   2.141   0.717  0.1114 -0.4547  0.0312
36477W        W92718  13.905  26.669   5.612 -0.0036 -0.0210 -0.3212
36478W        W92719  24.436  21.479  19.652 -0.1024  0.4606 -0.1141
36479W        W92720  21.145   2.739  14.911 -0.1535  0.1915 -0.2628
36480W        W92721  35.340  18.289   8.314 -0.0660  0.2675  0.0321
36481W        W92722  22.801  33.502   4.092  0.3182 -0.0890  0.0861
36482W        W92723  10.450  33.554   0.420 -0.3676  0.2032 -0.3448
36483W        W92724  33.063   0.336  21.960 -0.1193 -0.0138  0.2675
36484W        W92725  17.221  24.221   9.344 -0.0366  0.0034 -0.0450
36485W        W92726   0.819  23.249   2.949  0.0008 -0.1073  0.0708
36486W        W92727  13.081  24.444  13.418 -0.0607  0.2794 -0.2074
36487W        W92728   2.638  30.430  21.527 -0.0250 -0.1769 -0.2171
36488W        W92729  18.561  34.832  21.453 -0.0883  0.1524  0.0249
36489W        W92730  16.431   8.132  20.546 -0.2449  0.0795  0.0536
36490W        W92731  11.606  25.083  15.855 -0.1174 -0.0533 -0.0533
36491W        W92732  15.984  11.230  22.272  0.1709 -0.0244 -0.1935
36492W        W92733   3.531  17.453  20.590 -0.2606  0.0938 -0.0916
36493W        W92734  31.940  21.284   5.783 -0.0036 -0.0688 -0.2378
36494W        W92735   8.237  10.901  25.051 -0.1254  0.1417  0.1682
36495W        W92736   1.589  12.713  13.780 -0.0746 -0.1443 -0.0072
36496W        W92737   0.373  17.780  22.927 -0.1551 -0.3477  0.3627
36497W        W92738  22.858  22.763   4.115 -0.3927  0.1921 -0.0924
36498W        W92739  28.011   1.519   0.809  0.1029  0.0923  0.0756
36499W        W92740   1.239  17.173  22.192  0.2235  0.2261 -0.2508
36500W        W92741  12.082  18.202  26.015  0.1497  0.1363  0.3914
36501W        W92742  31.159   2.429  20.490 -0.4115 -0.1720  0.1145
36502W        W92743  13.755  12.919   1.489 -0.0760  0.1917  0.1301
36503W        W92744  31.543  19.972  12.439 -0.2109 -0.1669 -0.0523
36504W        W92745  13.578  19.404  22.068  0.0809  0.2046  0.3147
36505W        W92746  10.532   8.158   4.504 -0.1765  0.1541 -0.1895
36506W        W92747  33.052  25.621  22.265  0.1508 -0.1436  0.0522
36507W        W92748  34.616   8.517  13.796 -0.0538  0.3816 -0.0678
36508W        W92749  12.633   3.886   5.657  0.1938  0.1763 -0.0755
36509W        W92750  31.828  11.292   8.547  0.1565 -0.3169  0.3737
36510W        W92751  21.166  28.503  25.937  0.1445 -0.1675  0.2690
36511W        W92752   5.711  30.682  20.723 -0.3496  0.1421  0.0758
36512W        W92753  12.077  31.918  13.479 -0.1941 -0.1362  0.0463
36513W        W92754   0.271  18.941  23.107 -0.1599 -0.3932 -0.0750
36514W        W92755  30.464  34.407   0.169 -0.0399  0.2484  0.1206
36515W        W92756   2.760  17.662  15.162 -0.1733 -0.0662 -0.1087
36516W        W92757  33.070  16.806  15.321 -0.2547  0.3065 -0.1629
36517W        W92758  30.124   0.017  23.127  0.1799  0.2282 -0.0170
36518W        W92759   1.851  12.646  17.148 -0.1365 -0.3736  0.0556
36519W        W92760  26.032  16.521  15.738 -0.0504 -0.1008 -0.4542
36520W        W92761  34.121  13.476  12.735 -0.3487 -0.0341 -0.1430
36521W        W92762  28.561  27.614  14.744  0.1374 -0.0412 -0.0668
36522W        W92763   5.331  34.700  13.443  0.0333 -0.0827  0.1627
36523W        W92764  32.471  13.316  16.082 -0.0450  0.1486  0.0305
36524W        W92765   5.858  27.540  12.188 -0.0423  0.2518 -0.3291
36525W        W92766   6.573  16.702   6.049 -0.1066  0.1238 -0.0351
36526W        W92767  19.743   4.662   5.111 -0.0491  0.5012  0.1302
36527W        W92768  25.593  32.918   4.862 -0.2491  0.1690 -0.2502
36528W        W92769   0.725  25.361  18.139 -0.0640  0.0865 -0.2884
36529W        W92770  35.082  25.994   4.866  0.0400 -0.2730 -0.1780
36530W        W92771  34.952  12.915   9.420  0.0043  0.0169  0.0139
36531W        W92772  21.498   3.516  19.867  0.0007 -0.0819  0.0186
36532W        W92773  16.810  28.079   4.417 -0.3183 -0.0454  0.0752
36533W        W92774  27.278  34.066   4.934  0.0347 -0.1166  0.2014
36534W        W92775  18.530  24.327  22.976 -0.1002 -0.2024  0.1191
36535W        W92776  23.992  25.218   1.794 -0.2566 -0.4765 -0.0079
36536W        W92777   5.355  27.504  12.584  0.2386 -0.1037  0.2317
36537W        W92778  14.815   3.044  12.474  0.2136 -0.0919  0.0858
36538W        W92779  13.819  25.479  16.552 -0.1716 -0.0691  0.1174
36539W        W92780  12.532  20.321   6.682  0.0341 -0.1376  0.3688
36540W        W92781  19.109   8.672  22.043 -0.0531  0.1835 -0.1570
36541W        W92782  26.942  10.800  23.126 -0.0251 -0.0337 -0.1030
36542W        W92783  31.122  20.711  25.967  0.1645 -0.1118  0.0499
36543W        W92784  27.545  20.411   7.047  0.3643 -0.0235 -0.3156
36544W        W92785  27.476   8.387  16.012 -0.1076 -0.1493 -0.3319
36545W        W92786   1.430  30.668  17.970 -0.1827 -0.2929  0.0771
36546W        W92787  31.316  21.528   7.380 -0.0275 -0.2726 -0.0814
36547W        W92788  31.953   4.569  13.176 -0.3305 -0.0196  0.1309
36548W        W92789   9.772   9.304   8.332  0.0479 -0.1054  0.1730
36549W        W92790  13.072  11.886  11.718  0.3414 -0.0285  0.0422
36550W        W92791  15.708   2.030   1.559  0.0887  0.0375  0.1332
36551W        W92792   0.301  24.063  15.662 -0.1157  0.1253  0.1845
36552W        W92793  24.759  33.116  18.434  0.0930 -0.2314  0.3587
36553W        W92794  35.183  26.105  24.587 -0.1250 -0.0982 -0.0431
36554W        W92795   3.762   5.347  23.850  0.1903 -0.4201 -0.1478
36555W        W92796   8.395   9.883   7.534  0.0510  0.1207 -0.0819
36556W        W92797  33.475  12.741   9.088 -0.0806 -0.0942  0.0118
36557W        W92798  20.419  34.674  16.623 -0.1755 -0.2839 -0.0339
36558W        W92799  14.910  28.676   4.927  0.1617 -0.0809 -0.2666
36559W        W92800  20.320  32.513  14.613  0.0777 -0.2053 -0.1759
36560W        W92801  31.814   0.985   3.400  0.1293 -0.2658  0.0945
36561W        W92802  14.563  29.181   9.700 -0.0506  0.0440  0.1015
36562W        W92803  16.215  25.809   2.756 -0.2991  0.1435 -0.0451
36563W        W92804  28.314   9.296  19.282 -0.0951  0.0939  0.1253
36564W        W92805  10.100  20.303  16.590 -0.2926 -0.0746  0.0225
36565W        W92806  21.043  12.787  24.396 -0.0886 -0.0076 -0.1927
36566W        W92807  27.760   0.195   0.951 -0.0321 -0.0811 -0.0801
36567W        W92808  10.640  21.643   2.475  0.0489 -0.1386 -0.3620
36568W        W92809   9.449  31.924  11.086 -0.1178  0.3397 -0.1792
36569W        W92810  10.813  28.829   0.729  0.1797 -0.1397 -0.0510
36570W        W92811   8.005   0.388   1.827 -0.0382  0.0192 -0.0119
36571W        W92812  13.037  29.212   7.335  0.2589  0.0289 -0.1165
36572W        W92813   8.158   8.118   5.315  0.1090 -0.1576  0.0579
36573W        W92814  10.562  34.328   8.592 -0.1721  0.2277 -0.1452
36574W        W92815  23.632  26.276  21.916 -0.1937 -0.2385  0.3717
36575W        W92816  27.059  28.082  13.121 -0.0655  0.0103  0.1769
36576W        W92817  29.864  13.892  21.858 -0.1386 -0.4762 -0.1354
36577W        W92818   1.433   7.963  16.509 -0.0372  0.0393 -0.0958
36578W        W92819   8.315  27.221  15.103 -0.2528  0.2432  0.1982
36579W        W92820  34.654  16.459   6.963  0.3033  0.0865  0.4146
36580W        W92821  10.727  32.909   4.556  0.0097 -0.0234  0.0505
36581W        W92822  26.019  29.467   4.557  0.1700 -0.2676 -0.1665
36582W        W92823  20.513  28.336  18.146 -0.1795  0.0266 -0.1195
36583W        W92824   1.773   0.638  22.420 -0.1927 -0.2176  0.1329
36584W        W92825  35.012   3.253  23.246 -0.0134  0.2951 -0.0354
36585W        W92826   0.979  24.066  19.738  0.1068  0.0776  0.1128
36586W        W92827  12.074   6.441  21.014  0.0668 -0.2815 -0.1007
36587W        W92828  21.414  30.270  25.869 -0.3641 -0.0802  0.0787
36588W        W92829  16.531  28.248   7.575 -0.1072 -0.0323  0.1833
36589W        W92830  15.251  33.764   4.327 -0.1748 -0.0922  0.3897
36590W        W92831  25.852  25.404  12.558  0.1684 -0.0021 -0.0007
36591W        W92832  14.719  21.816  23.615  0.3461  0.1271 -0.1489
36592W        W92833   7.342  35.227   3.601 -0.1195 -0.1504  0.2189
36593W        W92834   4.203  34.339  19.372 -0.0940  0.0399 -0.0703
36594W        W92835  28.003  23.436  25.498  0.2881  0.0999 -0.0791
36595W        W92836   3.378  14.307  21.601  0.0079  0.0138  0.0755
36596W        W92837  27.082  16.319  17.919 -0.2056  0.5656 -0.1053
36597W        W92838   1.468   1.784  16.847  0.0686 -0.1297 -0.0838
36598W        W92839  20.923   7.983   1.264 -0.0088  0.2374 -0.2701
36599W        W92840  29.535  28.800   0.988 -0.0292 -0.1041 -0.0002
36600W        W92841   6.779  12.816  24.029  0.0430 -0.0378 -0.0717
36601W        W92842  34.175   1.573  16.557 -0.3058  0.0134  0.3126
36602W        W92843  13.855  20.931  22.444  0.2133 -0.0995  0.1478
36603W        W92844  17.613  16.900  11.218  0.1074 -0.1156  0.3406
36604W        W92845  10.746  10.166   2.116  0.1999 -0.1833  0.0620
36605W        W92846  28.893  33.120  20.179 -0.0354 -0.2398 -0.1165
36606W        W92847  13.783   6.490   3.211  0.3468 -0.0202 -0.0993
36607W        W92848  30.627  18.485  15.407 -0.4451 -0.0827  0.1692
36608W        W92849   9.970  14.609   9.249  0.2008  0.1541 -0.3432
36609W        W92850  25.843   5.025  21.209 -0.2103  0.0280 -0.1183
36610W        W92851  14.738   5.452   5.553 -0.2945 -0.2464 -0.1350
36611W        W92852  24.919  34.304   3.258 -0.4041  0.1162 -0.0772
36612W        W92853   7.996  22.527   8.883 -0.2321  0.1502  0.1362
36613W        W92854   5.643  10.385   1.946  0.1131  0.1830 -0.0128
36614W        W92855  28.966  17.855  13.896  0.2194 -0.1789  0.0879
36615W        W92856  20.711   2.620   0.923  0.0568 -0.0168 -0.0213
36616W        W92857  12.961   9.556   7.374  0.3280  0.2382 -0.1622
36617W        W92858  20.356  23.669  18.232  0.1868 -0.1659 -0.1089
36618W        W92859  22.538  17.390  24.161 -0.2380 -0.0052 -0.2826
36619W        W92860  22.505  22.750  14.903 -0.1115 -0.2160 -0.2081
36620W        W92861   5.654  28.833  23.581  0.0605 -0.3189 -0.1706
36621W        W92862  27.041  33.083  19.655  0.1274  0.0810  0.0760
36622W        W92863  23.325  22.164  26.083 -0.3583 -0.2781 -0.0876
36623W        W92864   7.347  19.346   8.858 -0.0830  0.2112  0.2297
36624W        W92865  13.453   0.289   7.193 -0.1328  0.2694 -0.3521
36625W        W92866  13.429  32.914   0.040 -0.2089  0.1499  0.1355
36626W        W92867  27.671   1.956  16.025 -0.0606 -0.3732  0.0004
36627W        W92868   6.541  17.782   2.452 -0.1485  0.0517 -0.2426
36628W        W92869  23.840  25.998   0.151  0.0261  0.0920  0.2529
36629W        W92870  11.436  29.869  24.063  0.0588  0.2359 -0.4729
36630W        W92871   7.341  23.234  21.939  0.1103  0.3620  0.0712
36631W        W92872  17.841   5.354   9.119  0.1315  0.4581 -0.1089
36632W        W92873   0.371   8.072   5.703 -0.0778 -0.0436  0.2415
36633W        W92874  33.538  14.688  11.469  0.0429 -0.0772 -0.1674
36634W        W92875  24.938  10.355   0.887 -0.2185  0.0804  0.1113
36635W        W92876   1.915   0.925  19.358 -0.2310 -0.0581 -0.2225
36636W        W92877  30.216  27.273  11.256 -0.0231  0.1016  0.0418
36637W        W92878  15.168   1.059  24.774  0.0087  0.5549 -0.2047
36638W        W92879   9.521   4.384   9.841 -0.2435  0.2629 -0.1186
36639W        W92880  27.521  30.143   0.225 -0.2667  0.1880  0.2464
36640W        W92881  34.297  18.319  20.921  0.2520 -0.1287  0.0278
36641W        W92882  27.947  34.061   4.295 -0.1930  0.0727  0.2375
36642W        W92883  21.181  18.902  20.832  0.0314 -0.0109 -0.0138
36643W        W92884   2.128  22.498  22.265  0.0585  0.1890 -0.2547
36644W        W92885  16.935  23.905  23.436  0.2414  0.0916 -0.0526
36645W        W92886  22.651  15.494   1.916  0.0117  0.0770 -0.2988
36646W        W92887  10.898   2.511  25.851  0.0383  0.0124 -0.1288
36647W        W92888   8.418  23.216  10.128 -0.6261 -0.1214  0.1909
36648W        W92889  17.654  29.239  20.601 -0.0120  0.0865 -0.0953
36649W        W92890  34.664  28.240   0.018  0.3277 -0.1573  0.2752
36650W        W92891  14.180   6.891  21.000 -0.4535 -0.1173 -0.0427
36651W        W92892  16.534  17.710  25.633  0.0368 -0.0630 -0.1320
36652W        W92893  34.817   3.922   5.016 -0.3241 -0.0951  0.2182
36653W        W92894   5.301   0.786   7.923  0.0577 -0.3854  0.1884
36654W        W92895  16.822  22.681  10.628  0.0394  0.2837 -0.2083
36655W        W92896   6.319  34.754  26.191  0.1033 -0.3104 -0.2339
36656W        W92897  27.051  32.084  17.133 -0.1673 -0.0228  0.1098
36657W        W92898  14.619  33.201   5.967  0.3110  0.1468  0.0495
36658W        W92899  35.316  13.124  13.619 -0.0630 -0.0463  0.3149
36659W        W92900  31.159  32.468  11.871 -0.1611  0.0449  0.4059
36660W        W92901   5.922   0.500   9.125 -0.1047  0.2345 -0.1295
36661W        W92902  30.127  26.086  20.593 -0.0651  0.4294 -0.0888
36662W        W92903  28.424  30.626   0.791 -0.0525  0.1058  0.1139
36663W        W92904  34.162   3.459   5.094 -0.1789 -0.1286 -0.0348
36664W        W92905  22.482  26.106  14.881  0.0187 -0.3182  0.0307
36665W        W92906  30.900  23.950  10.550  0.0845 -0.2742 -0.1289
36666W        W92907   6.583  22.250  20.577  0.0743 -0.1082 -0.2133
36667W        W92908  26.803  34.582  15.966  0.2556 -0.1746  0.0204
36668W        W92909  21.872  30.387  15.387  0.1405 -0.0310  0.0895
36669W        W92910  11.738  18.013   9.565  0.0420  0.0065 -0.0427
36670W        W92911  12.636   8.468   0.911  0.0820 -0.2608 -0.0425
36671W        W92912  10.500  33.109   8.923 -0.2679 -0.2536  0.0360
36672W        W92913  14.325  29.434  22.522 -0.0734  0.0582 -0.1827
36673W        W92914  16.595  16.626   7.475  0.0255  0.0850  0.0378
36674W        W92915   3.239   8.701  23.536 -0.0370  0.2386  0.0712
36675W        W92916  22.366  15.751  25.312  0.4573 -0.0036 -0.0443
36676W        W92917   0.312  17.557  18.235 -0.1121 -0.2247 -0.2415
36677W        W92918  19.359  19.389  22.442 -0.0484 -0.0443  0.0562
36678W        W92919  18.636  33.476  24.176  0.0607 -0.0040 -0.4366
36679W        W92920   7.777  25.300  21.575  0.0884 -0.1443 -0.0758
36680W        W92921   0.177  35.087   1.051 -0.0718  0.2954 -0.0213
36681W        W92922   5.049  13.769  16.945 -0.1643  0.0309 -0.1102
36682W        W92923  13.278  17.780  10.810 -0.0160 -0.0144 -0.1893
36683W        W92924  23.014  33.581  22.363 -0.0736 -0.2693  0.0956
36684W        W92925  34.977   9.128  21.077  0.0747 -0.0102  0.0558
36685W        W92926  15.865  21.911  11.935 -0.2011  0.1047 -0.0847
36686W        W92927   9.176  23.887   5.736 -0.0502 -0.0271 -0.0289
36687W        W92928  30.730  15.397  19.000 -0.0863  0.0915 -0.0938
36688W        W92929  25.482  24.262  14.451  0.0962 -0.3392 -0.1382
36689W        W92930  12.100  17.312   9.161 -0.2462  0.2662 -0.0305
36690W        W92931   8.761   6.554   3.305 -0.1114 -0.0045  0.1520
36691W        W92932  14.825  29.058   8.884 -0.2417 -0.1783  0.0615
36692W        W92933  28.543  24.541  25.880  0.0756 -0.2341  0.3054
36693W        W92934   6.461  25.257  25.909  0.0068  0.0127 -0.3404
36694W        W92935  27.668  14.820  10.622 -0.1962 -0.0230 -0.1577
36695W        W92936  27.379  35.207  19.578 -0.3820  0.1170 -0.0041
36696W        W92937  15.898  17.195   1.411  0.1736 -0.0683  0.1683
36697W        W92938  30.884  35.087  12.575  0.2506 -0.0478 -0.0743
36698W        W92939  20.734   9.099   7.550  0.1278  0.0030 -0.0347
36699W        W92940  21.261  31.036  19.363 -0.1544 -0.0333  0.3684
36700W        W92941  28.772  11.425  13.203  0.2543  0.3434  0.1806
36701W        W92942   0.299  16.841  19.397  0.1241  0.2452  0.0787
36702W        W92943  33.309   0.135  25.369 -0.1482  0.1893  0.1893
36703W        W92944   2.782  31.779  20.802 -0.2561  0.0918 -0.1012
36704W        W92945  16.390  17.291  22.739  0.1046 -0.0799 -0.0181
36705W        W92946  20.865  22.251   0.955  0.1590 -0.2229  0.3008
36706W        W92947   9.399   1.482   4.016  0.1278 -0.3541 -0.1776
36707W        W92948   9.149   9.593   8.743  0.3620 -0.0432  0.0068
36708W        W92949   1.739  25.708  24.861  0.1858  0.0504  0.0687
36709W        W92950   3.565  24.848   7.879  0.0308 -0.0423  0.0068
36710W        W92951  13.715  17.797  10.105 -0.0261  0.0810  0.1510
36711W        W92952   8.362  32.757   2.656  0.2867 -0.2199  0.0365
36712W        W92953   9.551   0.201  13.042 -0.0912  0.0065  0.0798
36713W        W92954  34.799  21.640   7.345  0.2378 -0.2547 -0.2272
36714W        W92955  10.595   4.313   3.091  0.1904  0.0324 -0.0504
36715W        W92956  28.908  17.466   5.460 -0.1358 -0.1507  0.0719
36716W        W92957  16.761   4.696   0.484 -0.0259 -0.1110  0.1421
36717W        W92958  25.367  20.658  15.292 -0.0241 -0.1091 -0.3612
36718W        W92959  26.180  28.588  16.686 -0.2628 -0.1902 -0.0597
36719W        W92960  11.932   1.395  24.974  0.0860  0.0872 -0.3404
36720W        W92961  10.257  32.805   6.967  0.2038 -0.1695  0.0361
36721W        W92962  15.040  10.251   6.208  0.0056 -0.0704  0.0739
36722W        W92963  27.490  13.188  23.815  0.0258  0.0770 -0.0200
36723W        W92964  24.064  30.964  25.611  0.0349 -0.0865  0.4175
36724W        W92965  15.988  17.824   7.175 -0.0935  0.0542  0.1718
36725W        W92966   9.641  23.455  12.755  0.2423 -0.1312 -0.2304
36726W        W92967  16.317  17.536   9.868 -0.0285  0.1085 -0.1133
36727W        W92968  34.478  17.435  17.434 -0.2036 -0.0696  0.1020
36728W        W92969  19.242   8.063  19.216  0.3859 -0.0608 -0.0400
36729W        W92970  17.056   1.594   9.649 -0.1605 -0.1524  0.0382
36730W        W92971   9.786  28.220  14.123  0.2327 -0.2088 -0.2309
36731W        W92972   0.168  12.206  20.790  0.3108  0.0378 -0.0952
36732W        W92973   2.523   4.707   2.083 -0.2428 -0.0463 -0.1617
36733W        W92974  10.138  12.364   4.754  0.1829  0.3546  0.1941
36734W        W92975  14.682  33.360   9.499  0.0866 -0.1763  0.0107
36735W        W92976  25.293  15.189  13.437  0.1358 -0.1786  0.1436
36736W        W92977  25.182  19.393  22.596  0.0757 -0.0802  0.0176
36737W        W92978   3.155  16.285  16.885  0.0497  0.0422  0.0029
36738W        W92979  28.430  23.532   0.187 -0.2477 -0.1501 -0.1453
36739W        W92980  12.133  11.567  13.077 -0.4123 -0.1998  0.3462
36740W        W92981  14.403  30.394  10.341  0.0124  0.0684  0.1532
36741W        W92982   0.025   4.415   0.248 -0.1260  0.2850 -0.1919
36742W        W92983   0.957  21.215  25.889 -0.1768 -0.0721 -0.1422
36743W        W92984  12.684  16.728   3.605 -0.0210  0.1338  0.2550
36744W        W92985  31.906  21.074  13.564  0.0570 -0.2113 -0.3772
36745W        W92986  32.190  25.106  15.738 -0.1396  0.2427 -0.0180
36746W        W92987   9.866  16.667  25.295 -0.1775  0.0365  0.0199
36747W        W92988  29.681   3.399  26.219  0.2060 -0.5110  0.2101
36748W        W92989  21.882  13.880  24.410  0.1218 -0.0122  0.0506
36749W        W92990  34.653   7.891  12.486 -0.2812 -0.1017  0.2256
36750W        W92991   8.985   1.070   3.995  0.0160  0.0037 -0.1777
36751W        W92992  28.540   2.242  15.788  0.1788 -0.2264  0.0999
36752W        W92993   3.663  13.488  17.684  0.3280 -0.0607  0.0521
36753W        W92994  23.823   0.965   2.425 -0.0458 -0.3777 -0.2115
36754W        W92995  20.984  31.450  23.273 -0.0789  0.0192  0.0025
36755W        W92996  22.903   1.109   0.413 -0.0444 -0.1536 -0.1839
36756W        W92997   4.870  33.253  22.831 -0.0772  0.0673 -0.1554
36757W        W92998  20.751  21.210  19.976 -0.2521 -0.0614  0.0269
36758W        W92999   7.385  19.415   3.399  0.1690  0.0337 -0.4084
36759W        W93000  11.995  18.644   2.360 -0.0078  0.2076 -0.0629
36760W        W93001  14.770   5.103  25.921  0.4642  0.1791  0.3645
36761W        W93002  25.642  14.927  13.082 -0.1324 -0.3476 -0.0759
36762W        W93003  12.595  29.582   4.896  0.0407 -0.0013 -0.2367
36763W        W93004  12.204  34.758   7.277 -0.2595 -0.2138  0.1126
36764W        W93005   2.656  33.123  20.755 -0.2049 -0.0222  0.3270
36765W        W93006   0.878  15.433  15.998 -0.1286 -0.0517 -0.2445
36766W        W93007   3.485   6.345  18.957  0.0836 -0.3406  0.1432
36767W        W93008  30.029  18.325   7.113  0.0275  0.1849 -0.2302
36768W        W93009  29.485  16.491  23.740 -0.0607 -0.0841  0.0082
36769W        W93010  34.876  31.267  22.634  0.0168 -0.1344  0.0890
36770W        W93011   8.596  21.306   4.447 -0.0800  0.3955 -0.1201
36771W        W93012  14.327   1.160   4.639  0.0248  0.3686 -0.0978
36772W        W93013   2.162  19.471  16.117 -0.1314  0.1442 -0.0587
36773W        W93014  30.938  30.917  13.708  0.2566  0.1087 -0.1838
36774W        W93015  13.805  19.488  12.518  0.1232 -0.0070 -0.0084
36775W        W93016  28.964   1.830   0.540  0.1766  0.2046  0.3470
36776W        W93017  11.034  30.059   4.716  0.4299  0.1866 -0.0476
36777W        W93018  23.065  10.699  16.340  0.0124  0.0063 -0.0353
36778W        W93019  14.629   8.915  10.755 -0.1083 -0.3540  0.1972
36779W        W93020  17.216  24.455  23.946  0.0333 -0.0334  0.0492
36780W        W93021  18.441  33.951  24.229 -0.3200  0.0852 -0.0704
36781W        W93022  13.564  30.216  25.540  0.2149 -0.1543  0.1916
36782W        W93023  25.265  21.354  19.754  0.0431  0.0937 -0.2677
36783W        W93024  15.189   5.235   2.445  0.2435  0.2263 -0.0221
36784W        W93025  23.655  24.128  19.073 -0.0083 -0.0352  0.1883
36785W        W93026   0.414  12.938  10.775  0.0319  0.0552  0.1911
36786W        W93027  29.096  27.556  20.416  0.0796  0.0939 -0.1141
36787W        W93028  14.845   8.471  20.936  0.0182 -0.2398  0.0801
36788W        W93029  28.230  32.678  15.144  0.3074  0.0464 -0.2235
36789W        W93030  26.272  33.950  23.288 -0.0633  0.2577 -0.0811
36790W        W93031   2.721  22.814   4.766 -0.2421  0.1640 -0.0600
36791W        W93032  26.301  14.034  21.490  0.1088  0.0899 -0.0488
36792W        W93033  26.636  11.503  15.282 -0.0002  0.1228  0.1009
36793W        W93034   3.085  14.463  21.170  0.1328 -0.1617  0.3915
36794W        W93035  26.496   1.000  24.175 -0.0259  0.2410 -0.4652
36795W        W93036   0.297   0.794  16.617 -0.0212 -0.5344  0.0911
36796W        W93037  27.590  34.121   3.398 -0.0724  0.0550 -0.0430
36797W        W93038  25.142  33.393  17.780  0.0769  0.0955  0.0316
36798W        W93039  33.009  29.472  14.270 -0.0284 -0.1855  0.0168
36799W        W93040   6.321  26.371   4.913 -0.1210  0.2135 -0.0762
36800W        W93041   1.515   6.072   4.403 -0.1107  0.0605  0.1818
36801W        W93042  12.742   3.173   8.886  0.0201  0.0283  0.0193
36802W        W93043  17.382   8.934  11.489 -0.1147  0.0898  0.2171
36803W        W93044  26.479  18.455  15.397  0.1786 -0.0667  0.2009
36804W        W93045  23.187  26.128   4.757 -0.1967 -0.1771  0.1108
36805W        W93046  30.567   5.565   0.098 -0.2182 -0.1813  0.2905
36806W        W93047  33.078  27.089  25.718  0.2271  0.0759  0.1039
36807W        W93048  10.075  23.716   8.793  0.1691  0.2178  0.1728
36808W        W93049  30.357   0.079   5.623 -0.2200 -0.1501  0.1871
36809W        W93050  11.000  25.562  12.453 -0.0408  0.1183  0.2393
36810W        W93051  24.447   3.526   0.738  0.0892  0.0582 -0.2851
36811W        W93052  18.872   5.264  10.749  0.3587  0.1328  0.0302
36812W        W93053   0.944  31.341   0.363  0.0545  0.1929  0.1373
36813W        W93054  19.120   6.443   6.343  0.2059 -0.0087 -0.1558
36814W        W93055  13.144  16.173  23.189 -0.3205  0.0271 -0.0935
36815W        W93056   6.006   6.982   2.733 -0.0065 -0.0824  0.0742
36816W        W93057  15.391  31.198   0.784  0.0223  0.0353 -0.1484
36817W        W93058  15.059  13.739  13.933 -0.0591 -0.1114  0.1590
36818W        W93059   8.252  27.699  21.319 -0.2064  0.1084  0.1381
36819W        W93060  23.182  14.586   1.829  0.1860  0.2614 -0.1785
36820W        W93061  21.064  19.224   0.960 -0.0373 -0.2916  0.0112
36821W        W93062  20.790  28.286   3.756 -0.0835  0.1317 -0.4812
36822W        W93063   3.911  24.143   2.949  0.0923 -0.1355  0.1410
36823W        W93064  10.701  24.994  10.978  0.2945  0.1889  0.0978
36824W        W93065  28.244  29.389  17.931 -0.2762 -0.0422 -0.1144
36825W        W93066  23.183  27.450  23.706  0.1327 -0.0511  0.4083
36826W        W93067   9.923   5.412  12.995  0.0545 -0.3455  0.2235
36827W        W93068  30.416  29.343  23.320 -0.1611 -0.2474  0.0636
36828W        W93069  33.849  21.360  21.917 -0.0045 -0.0105 -0.0719
36829W        W93070  10.350  24.743   8.121 -0.0754  0.0459  0.1357
36830W        W93071  34.775   1.195   3.370  0.2456  0.0532 -0.2769
36831W        W93072  29.781  15.086   5.232  0.0465 -0.0177  0.0623
36832W        W93073  25.125  31.668  10.710  0.0084  0.0792  0.0217
36833W        W93074  34.349  22.199  11.962  0.1897 -0.2328  0.0680
36834W        W93075  26.708  16.422  13.043  0.0211  0.0181  0.2683
36835W        W93076  29.171  34.365  20.762 -0.2746  0.0589 -0.1808
36836W        W93077  23.211  27.454   1.080  0.0711 -0.0584  0.1647
36837W        W93078  31.652  22.928  10.749 -0.1233 -0.2293 -0.3808
36838W        W93079  28.482   2.106   5.193  0.0677 -0.0745 -0.0598
36839W        W93080  12.097  12.029  23.736  0.0545  0.2600  0.0811
36840W        W93081  31.327  30.476  15.556 -0.0697 -0.3204  0.1654
36841W        W93082  20.079  21.010   6.605  0.0405  0.0101 -0.4360
36842W        W93083   9.618   7.119  20.276  0.2598 -0.4373 -0.0981
36843W        W93084   3.461  13.944  26.098  0.1559 -0.0546  0.1853
36844W        W93085  15.687   9.684  11.756  0.1173 -0.1563  0.4138
36845W        W93086  25.885  34.577  22.318 -0.1126  0.4384  0.2592
36846W        W93087   4.326  20.819   3.180 -0.0021  0.0379 -0.2377
36847W        W93088  30.691   8.136  16.559 -0.3316 -0.1926  0.2571
36848W        W93089  26.043  16.952  13.553 -0.1294 -0.0316  0.1820
36849W        W93090   0.269   9.132  23.825 -0.2008  0.0814 -0.1631
36850W        W93091  21.226  17.192   3.517 -0.0606 -0.0174 -0.0925
36851W        W93092  14.325  13.038  21.551  0.3195 -0.1012  0.1139
36852W        W93093  14.280  25.512  14.188  0.0684  0.3101 -0.1207
36853W        W93094  34.646   7.598  17.662 -0.0696 -0.0713 -0.2443
36854W        W93095  21.287  18.865  15.329  0.1602 -0.2701 -0.0535
36855W        W93096  12.623   5.375   5.389 -0.1653  0.3427  0.0075
36856W        W93097  29.921  20.957  17.321  0.2708 -0.0495 -0.1730
36857W        W93098  14.364  22.695  12.200 -0.2053  0.3197  0.3528
36858W        W93099   5.000   2.303  10.220  0.2862 -0.3375  0.4235
36859W        W93100  15.050   7.280  11.563 -0.1777  0.1628 -0.1851
36860W        W93101   4.866  25.696   5.779 -0.0965 -0.2275 -0.2995
36861W        W93102   6.087   9.110   4.823  0.2638 -0.2051 -0.1485
36862W        W93103  24.181   2.198   4.142 -0.0045 -0.1709  0.0322
36863W        W93104  12.047  31.015  21.163  0.0461 -0.2447 -0.1166
36864W        W93105  23.199  14.443  18.347  0.1684 -0.0647 -0.1342
36865W        W93106  22.889  12.605  22.075  0.0112  0.2057  0.1141
36866W        W93107  19.472  32.404  23.891 -0.1024  0.0724 -0.0233
36867W        W93108  15.105  31.919   2.734  0.0907  0.2768  0.1669
36868W        W93109   7.496  35.294  21.555  0.1343 -0.0440  0.2284
36869W        W93110  10.715  31.810  22.381  0.0172 -0.1086 -0.0287
36870W        W93111  30.758   9.916  11.963  0.0975  0.2008 -0.2273
36871W        W93112  15.340   4.568  25.328 -0.0417 -0.0280 -0.1084
36872W        W93113  26.093   6.096  23.406 -0.1939 -0.0730  0.3097
36873W        W93114  28.903  19.251  16.138  0.1694 -0.2158 -0.1210
36874W        W93115  20.460   5.811  22.218  0.0683  0.0161  0.0610
36875W        W93116   3.615   1.491  19.333  0.1528  0.0701 -0.4716
36876W        W93117  32.528  31.743   1.199 -0.1683 -0.1691 -0.0934
36877W        W93118  24.122  14.228  23.970 -0.0628 -0.0564  0.0566
36878W        W93119  14.283  32.107   1.019 -0.1911  0.1393  0.1716
36879W        W93120  27.818  15.784  25.752  0.0908 -0.1124 -0.1334
36880W        W93121   6.782  14.868  25.712 -0.0933  0.1736 -0.2377
36881W        W93122  16.228  33.872   5.713 -0.0188 -0.0182 -0.1328
36882W        W93123  23.475  19.145  18.206 -0.1239  0.0330 -0.1476
36883W        W93124   9.661  25.285  25.818 -0.2273  0.3968 -0.2154
36884W        W93125  16.600   7.753   1.017 -0.1151 -0.2468  0.0826
36885W        W93126  14.019   1.599  24.723 -0.5001 -0.0424  0.1666
36886W        W93127   7.437  26.341  24.518 -0.0841 -0.1053 -0.1419
36887W        W93128  18.895  11.780   9.202 -0.1731  0.4033  0.2821
36888W        W93129  20.063  31.672   0.117  0.2638 -0.0575 -0.1125
36889W        W93130  30.516  21.342  13.249  0.1071 -0.0480  0.2615
36890W        W93131  24.626  33.006   3.808 -0.2219  0.2050 -0.2693
36891W        W93132   5.698  32.349   8.946 -0.0470  0.4620 -0.1485
36892W        W93133   5.057   4.042   0.108  0.0209 -0.0881  0.0471
36893W        W93134   8.478  27.504   6.172 -0.0752  0.1038  0.0243
36894W        W93135  23.281  16.218  26.154 -0.2878  0.0567 -0.0099
36895W        W93136  14.145  14.712  14.002 -0.1836  0.0960  0.3336
36896W        W93137  24.372  30.912  14.914  0.0223  0.1308  0.1441
36897W        W93138  21.293  25.521  22.838  0.0274  0.3929 -0.0133
36898W        W93139  30.678  30.112  12.213  0.4712 -0.0001  0.1985
36899W        W93140  22.594   1.062   0.833  0.1126  0.0110  0.2138
36900W        W93141  13.755  28.914  10.995  0.0261  0.1655 -0.1474
36901W        W93142  20.424  18.734   4.889 -0.0491  0.1992 -0.0292
36902W        W93143   9.506  27.831  14.409  0.1043  0.1996 -0.0561
36903W        W93144  29.061  16.683  23.785 -0.0122 -0.0796 -0.0454
36904W        W93145  11.526  33.290   1.794 -0.2184 -0.0941 -0.0437
36905W        W93146  33.075  25.778  13.037  0.0184  0.0439  0.3595
36906W        W93147  31.564  19.875  22.489 -0.0798  0.0051  0.2459
36907W        W93148   6.059  29.749   4.944  0.0070  0.0130  0.0098
36908W        W93149  19.390  13.946  24.390 -0.0394  0.0080  0.0475
36909W        W93150  25.786   5.427  19.585 -0.0424  0.0030 -0.1761
36910W        W93151  15.672  16.324   6.006 -0.1898  0.2593 -0.0947
36911W        W93152  24.565  13.074  20.387 -0.2774 -0.0210  0.2951
36912W        W93153   6.139  33.535   6.375 -0.1360  0.0079 -0.0574
36913W        W93154  11.139  20.173  23.958 -0.1987  0.1879  0.0144
36914W        W93155  10.524   7.494  10.026  0.1946  0.4477 -0.0426
36915W        W93156   2.813  28.989  25.189  0.1140 -0.0769  0.1264
36916W        W93157  33.119  14.275  24.848 -0.1396  0.1256 -0.2075
36917W        W93158  20.179   5.349   0.007  0.1362 -0.3542 -0.2412
36918W        W93159   8.756  23.425   4.264  0.1091  0.0162 -0.1529
36919W        W93160   8.715  21.770   9.175 -0.1719 -0.0873  0.2189
36920W        W93161  18.883   3.184  25.685 -0.0976  0.1925 -0.1872
36921W        W93162   0.927  20.803  19.154  0.0896 -0.0343 -0.1782
36922W        W93163  33.815   5.470  17.842  0.0088 -0.3284 -0.0304
36923W        W93164  20.030  24.496  22.822 -0.1056  0.2983 -0.0856
36924W        W93165  25.831  22.688  16.652 -0.1047  0.0766  0.1467
36925W        W93166  14.481  28.940   4.823  0.0371  0.1223 -0.0435
36926W        W93167  28.856   8.598  21.484  0.1730  0.1310 -0.0498
36927W        W93168  20.210   4.699   5.216  0.1771 -0.1352  0.0457
36928W        W93169  13.022   2.766  24.703  0.0353 -0.0116  0.1584
36929W        W93170  12.764  13.439  22.781 -0.0775  0.2131 -0.1323
36930W        W93171   3.963   3.475  17.197  0.0739  0.0355 -0.0811
36931W        W93172   3.335  30.669  10.127 -0.0689  0.0042  0.1201
36932W        W93173   1.760  24.959  26.240  0.3752 -0.0241  0.0732
36933W        W93174  26.383  35.348  18.001  0.0438 -0.0456 -0.0123
36934W        W93175  31.247  27.609  13.951 -0.1762  0.0255  0.2413
36935W        W93176  31.896  12.107  16.511 -0.1265  0.2566  0.1559
36936W        W93177  23.092   0.854  23.856 -0.2257  0.0541 -0.3620
36937W        W93178  19.813   0.696   3.727  0.0932  0.1346  0.2975
36938W        W93179  12.073   9.655  10.007 -0.0667  0.1800  0.1756
36939W        W93180  14.634   2.964  11.927 -0.0799  0.0089  0.0347
36940W        W93181  18.766  29.566  25.376  0.0249  0.1826 -0.1243
36941W        W93182  22.404  28.504   1.078 -0.0313  0.1032  0.0308
36942W        W93183   8.013  17.221  13.044 -0.0837 -0.0710  0.1325
36943W        W93184  14.681   0.132   5.721 -0.2512  0.3713  0.3844
36944W        W93185  18.376   8.374  25.418  0.0646  0.1168  0.0137
36945W        W93186  19.568  19.989   7.509  0.2506 -0.3682  0.2838
36946W        W93187   9.570   1.372   2.455  0.1210 -0.1414  0.4831
36947W        W93188  25.070   4.922   0.743  0.0176 -0.0428 -0.3291
36948W        W93189  16.170  25.663   8.265 -0.1812  0.1304  0.0814
36949W        W93190  20.744  31.805   3.457  0.1667  0.2020 -0.0172
36950W        W93191  15.046  31.474   0.989  0.0203 -0.2967  0.2484
36951W        W93192  32.955  24.144  21.783 -0.2193 -0.0145 -0.1643
36952W        W93193  32.897   4.400  24.534 -0.1142  0.1466 -0.0009
36953W        W93194  26.154  21.928  25.070  0.4788  0.0931 -0.1996
36954W        W93195  11.151  34.501  26.135 -0.0804  0.3914 -0.1048
36955W        W93196   5.192   8.054   6.909  0.1005 -0.2436 -0.4115
36956W        W93197  24.224   8.319  15.648 -0.2301  0.0079  0.1366
36957W        W93198  14.879   7.504  12.023  0.2635  0.0550 -0.0142
36958W        W93199   1.147   0.975  24.869 -0.1925  0.0926 -0.0922
36959W        W93200  19.007  24.859   3.522  0.0566  0.0215 -0.1209
36960W        W93201  10.832  29.831  11.664 -0.2787 -0.2091 -0.2673
36961W        W93202  22.284  21.855  19.652 -0.0343  0.1427 -0.0963
36962W        W93203  10.806  27.587   5.182  0.0269  0.1546  0.1898
36963W        W93204  29.315  25.602  18.622  0.0013  0.2461 -0.1962
36964W        W93205  28.534  13.135   8.954 -0.2045  0.1968  0.1258
36965W        W93206   5.291  26.316  25.890  0.3453 -0.0761 -0.4750
36966W        W93207   2.309   2.174   2.181 -0.1268 -0.0086  0.0287
36967W        W93208   1.663  20.381  20.840 -0.1598  0.5816 -0.0622
36968W        W93209  31.108  20.170   5.713  0.1977 -0.0141  0.0308
36969W        W93210  31.708   7.899  21.541  0.2241  0.2275  0.1335
36970W        W93211  29.272  31.409  10.210 -0.1148 -0.1960 -0.2298
36971W        W93212  19.324  23.665  25.977 -0.0166 -0.4979 -0.1990
36972W        W93213  15.083  16.217  12.022  0.0498  0.0877  0.0223
36973W        W93214  17.287  26.498  13.084  0.4154  0.2077  0.1194
36974W        W93215  15.955   2.773   9.305 -0.0581  0.3038  0.1416
36975W        W93216  29.371  23.668  25.618  0.1985 -0.0309 -0.1909
36976W        W93217   3.708  12.594  23.049 -0.0599  0.2309  0.0803
36977W        W93218  31.700  12.073  17.079  0.2410 -0.0475  0.0022
36978W        W93219  13.992  24.899  25.222  0.2223  0.0609  0.0858
36979W        W93220  24.454  29.146  15.186 -0.0538 -0.1453  0.2071
36980W        W93221  20.602  11.439  19.016  0.0590 -0.0841 -0.3669
36981W        W93222  35.043   2.602  22.015 -0.0469  0.2198 -0.3279
36982W        W93223  10.623  31.215  12.273  0.0283  0.1208 -0.0467
36983W        W93224   0.319   2.209   3.837 -0.1837 -0.1223  0.2251
36984W        W93225   9.305   8.537  25.927  0.0157 -0.0850  0.0047
36985W        W93226   6.222   0.644   5.589  0.0987  0.0013  0.1544
36986W        W93227  35.065  24.576  20.393  0.1530  0.1383  0.2224
36987W        W93228  20.498  10.811  17.607 -0.0084 -0.0033 -0.0198
36988W        W93229  10.647  23.888   6.365 -0.0233  0.2292  0.0215
36989W        W93230  34.420  21.333  10.695 -0.1162  0.0753 -0.0047
36990W        W93231  25.147  30.518   0.102 -0.2660  0.0041 -0.2110
36991W        W93232  20.016  16.433   3.838 -0.3102  0.1327 -0.2740
36992W        W93233  32.909  15.726  14.554 -0.0132  0.0869  0.0878
36993W        W93234  21.376   6.471   0.009  0.1234  0.0412  0.0702
36994W        W93235  13.479   0.821   8.364  0.2855  0.1976 -0.3906
36995W        W93236   4.153  29.027   9.614  0.1128 -0.0361 -0.0392
36996W        W93237   4.132   1.352   0.339 -0.0418  0.0285 -0.0753
36997W        W93238   6.128   5.993   0.335 -0.0289  0.1533 -0.1433
36998W        W93239  14.890  31.149  24.732 -0.2821  0.2490 -0.0076
36999W        W93240   3.779   5.855  17.925  0.0965  0.0897 -0.2011
37000W        W93241  22.298   8.577  16.473  0.1950 -0.4461  0.0194
37001W        W93242   7.566   4.535   2.434 -0.0730  0.0653 -0.0573
37002W        W93243  14.644  21.777   0.089  0.0577 -0.0894 -0.2351
37003W        W93244   1.841  35.301  11.015  0.2753  0.2355 -0.2891
37004W        W93245  12.427   5.000  24.566 -0.1309 -0.0967 -0.1971
37005W        W93246  11.064  32.151  13.182 -0.0271  0.1981  0.1249
37006W        W93247   1.698  28.433   7.031  0.3272  0.1866  0.1600
37007W        W93248   0.883  33.153   3.328 -0.2184  0.0572  0.0762
37008W        W93249   9.333   9.827  20.102 -0.0355  0.0741  0.0733
37009W        W93250  30.709  22.133  18.926 -0.0523 -0.1558  0.4705
37010W        W93251   0.086  29.415  24.106  0.0042 -0.1004 -0.0719
37011W        W93252  30.181  13.568   9.385  0.2194  0.1867 -0.0739
37012W        W93253   5.816   7.370   6.018 -0.1913 -0.1912  0.0359
37013W        W93254  14.188  10.333  13.339 -0.1018 -0.3676  0.4741
37014W        W93255  17.484   8.606   6.597 -0.0939 -0.0980 -0.3805
37015W        W93256  17.689  31.185  25.827  0.1194 -0.3372 -0.2544
37016W        W93257  27.046  26.688   9.229 -0.2344  0.1321 -0.0944
37017W        W93258  33.703  20.457  25.023  0.0440  0.0024  0.1316
37018W        W93259  27.907  30.887  15.457  0.0740  0.2133 -0.0152
37019W        W93260  18.309  35.022   6.863  0.0580 -0.0809  0.0609
37020W        W93261   8.093  26.891  23.783  0.1627 -0.1016 -0.1025
37021W        W93262  28.770  23.574  20.534 -0.0275 -0.0517 -0.1648
37022W        W93263  10.653  19.467  14.135  0.0827  0.1146  0.1563
37023W        W93264   0.645   5.963  26.176  0.0837 -0.0879  0.1418
37024W        W93265  13.881  31.210   8.474  0.0396  0.0134  0.2555
37025W        W93266  23.636   2.389  25.832 -0.0429  0.2422 -0.1301
37026W        W93267  28.178  21.193   7.135  0.6268 -0.1051 -0.1975
37027W        W93268   8.566  22.498  13.227 -0.0117 -0.1719  0.0270
37028W        W93269  27.833   7.093  16.539  0.0124  0.0359  0.0360
37029W        W93270   4.588  29.833  26.099 -0.0584  0.2596  0.1201
37030W        W93271  23.481  35.181  25.687 -0.1435 -0.0449 -0.1959
37031W        W93272   1.187  21.772  12.053 -0.0946  0.1288  0.2177
37032W        W93273   6.519  18.960  22.555  0.3068 -0.2137 -0.0870
37033W        W93274   7.278   0.732   3.328  0.0242  0.2039 -0.0189
37034W        W93275  16.604   0.143   4.727 -0.0168 -0.3144 -0.0155
37035W        W93276   0.668  28.302   1.671 -0.1487  0.3722 -0.0377
37036W        W93277  12.559  12.320   4.699 -0.0780 -0.0698 -0.2273
37037W        W93278   5.696   5.297  19.283  0.4166 -0.1307 -0.2301
37038W        W93279  29.534  30.895   3.102 -0.3123 -0.3419 -0.1478
37039W        W93280  32.474  13.272  24.750  0.2020 -0.0719  0.2027
37040W        W93281  31.045   0.246  25.910  0.3917 -0.0978  0.0881
37041W        W93282   9.276  16.836  22.213 -0.1498  0.0264 -0.1882
37042W        W93283  22.996   2.273  25.195 -0.1345 -0.0056  0.0564
37043W        W93284  17.589  18.023  19.808  0.2128 -0.0182 -0.0297
37044W        W93285  13.113  21.488   8.030 -0.3302  0.2038  0.1051
37045W        W93286  17.116  33.605   6.777 -0.1545 -0.0347  0.3979
37046W        W93287   2.332   8.706   5.940 -0.0341  0.1757  0.1087
37047W        W93288  34.969   6.143  21.385  0.0907 -0.0197 -0.0959
37048W        W93289  16.505  21.298   2.762  0.1807 -0.0923 -0.2129
37049W        W93290   5.761   1.703   6.814  0.0792 -0.0729 -0.0903
37050W        W93291  29.473  32.022  20.678 -0.0579  0.0910 -0.1514
37051W        W93292   2.388  28.029  24.672  0.0899 -0.1576 -0.1631
37052W        W93293  33.481   5.256  22.624 -0.0553  0.1638  0.0130
37053W        W93294  18.515   4.829   3.814 -0.0675  0.0395 -0.3270
37054W        W93295  23.305  35.116  18.695 -0.1228  0.1477 -0.3841
37055W        W93296  10.367  33.245  14.974 -0.1521  0.0502  0.1789
37056W        W93297  18.766  26.475  23.301 -0.3476  0.1348 -0.1041
37057W        W93298  29.808  29.336  15.211  0.3570  0.1820 -0.1505
37058W        W93299   4.026   3.504  18.773  0.1679 -0.1063  0.1566
37059W        W93300   6.048   3.901  21.215  0.1876  0.0874  0.1281
37060W        W93301   1.717   7.569  13.788 -0.1649 -0.1187 -0.2121
37061W        W93302  19.168   7.963   9.203 -0.1303  0.0102 -0.1740
37062W        W93303  26.009  17.020  17.338  0.0454  0.1944 -0.0486
37063W        W93304  15.005   5.247  10.330  0.1360 -0.1100 -0.1828
37064W        W93305  30.209  27.270  17.358  0.1284 -0.0750 -0.2397
37065W        W93306   9.835   6.341   6.067  0.0384  0.0549  0.2664
37066W        W93307  16.567  14.116   0.672  0.1476 -0.0264 -0.1946
37067W        W93308   5.949  34.381  11.796  0.0878 -0.1849  0.0366
37068W        W93309  30.960  28.218   0.501  0.1989 -0.0144 -0.1014
37069W        W93310  20.653  28.203   4.712 -0.2043 -0.0010 -0.0533
37070W        W93311  21.557  15.558  25.971  0.1446  0.0733  0.1340
37071W        W93312   8.373  25.655  12.710 -0.3007 -0.1850  0.3615
37072W        W93313  21.319  16.595  26.030  0.2860 -0.1015  0.2227
37073W        W93314  26.399   2.892  24.610  0.1101 -0.3122 -0.1498
37074W        W93315   5.493  35.353   0.287  0.2196 -0.0318  0.1260
37075W        W93316  34.874  31.554   7.319  0.2174  0.0074 -0.1094
37076W        W93317  23.697   7.583   3.995  0.2405  0.0449 -0.1179
37077W        W93318  10.036  32.677   0.106 -0.3968 -0.0601 -0.0810
37078W        W93319   6.696  32.110   7.849 -0.0505  0.1920 -0.1966
37079W        W93320  24.102  17.028  24.373 -0.3610 -0.1792  0.1133
37080W        W93321   7.718   6.186   1.348  0.0502 -0.1088 -0.2773
37081W        W93322   9.535   4.698  20.910  0.1162  0.0836 -0.2146
37082W        W93323  14.195  14.556   9.377 -0.1111  0.1511  0.0037
37083W        W93324   6.492   6.391   8.133 -0.2034 -0.0204  0.1151
37084W        W93325   1.695   3.334   2.924  0.0964 -0.1241 -0.0174
37085W        W93326  13.662  29.718  21.603  0.0256  0.1926  0.2092
37086W        W93327  33.435  12.810  21.281 -0.3250  0.1568  0.0110
37087W        W93328  26.099  31.711  20.340  0.0555  0.0020 -0.1163
37088W        W93329  28.796  30.423  13.393 -0.0432  0.1027  0.2064
37089W        W93330  17.555  13.588  25.130 -0.0092 -0.0473 -0.3085
37090W        W93331  20.279   3.894   2.669  0.2730 -0.0056  0.2531
37091W        W93332  33.815   6.568  22.849 -0.0723 -0.3606  0.3986
37092W        W93333  26.739  33.002  11.203 -0.3401  0.2116 -0.3693
37093W        W93334  29.710  27.186   1.007  0.0878 -0.1873  0.2064
37094W        W93335   2.325   0.229   6.233  0.0603  0.2671  0.4834
37095W        W93336  19.483  27.474   7.420 -0.1902  0.0543  0.1501
37096W        W93337  13.829  11.657  25.033  0.0569 -0.1030  0.2335
37097W        W93338  18.618   6.610   7.737 -0.0718 -0.0892  0.0567
37098W        W93339  19.519  31.189   7.389  0.1389  0.0580  0.2494
37099W        W93340  17.326   5.032  26.070  0.5021  0.0270  0.2352
37100W        W93341  17.162   6.042  12.765 -0.0969 -0.0311 -0.0054
37101W        W93342   5.994  16.575  22.804  0.1740 -0.0808 -0.1213
37102W        W93343   8.315  28.879  13.619 -0.1957  0.1215  0.1486
37103W        W93344  25.802  17.499  24.154  0.1546 -0.0854  0.0077
37104W        W93345  23.999  25.191  18.152 -0.0914 -0.2226  0.0887
37105W        W93346   7.910  28.189  23.933  0.1000  0.2437 -0.2077
37106W        W93347   4.066  19.009  18.827  0.0408 -0.1141  0.1264
37107W        W93348  28.021  16.592  23.454  0.1672 -0.3306 -0.1993
37108W        W93349  28.443  34.630  23.769  0.0153 -0.1153  0.1295
37109W        W93350   8.396  21.800  14.615  0.1413  0.1064 -0.1954
37110W        W93351   3.206  35.270  25.434  0.2267 -0.2256  0.1783
37111W        W93352   1.732  17.123   0.021 -0.0107 -0.2539 -0.1372
37112W        W93353  10.260  23.139  23.557 -0.0275 -0.1172  0.0231
37113W        W93354   8.539  18.996   4.039 -0.0580  0.0214  0.2040
37114W        W93355  24.968  32.544  11.691 -0.0129  0.1296 -0.0037
37115W        W93356  23.143  31.235  22.409 -0.5256  0.2940 -0.4920
37116W        W93357   8.117  20.605  25.226  0.2474 -0.1358  0.1897
37117W        W93358   7.838  14.069  21.561  0.0168 -0.3231  0.1677
37118W        W93359  18.863  13.999  16.745 -0.0328  0.1677 -0.1381
37119W        W93360  31.718  18.734   9.860 -0.2589  0.2557  0.0295
37120W        W93361  19.339  20.556   3.425 -0.2263  0.3479 -0.0694
37121W        W93362   4.748   5.951  18.672  0.0047  0.1549 -0.0453
37122W        W93363  27.814  15.694  13.055  0.1622  0.2037 -0.1110
37123W        W93364   9.407  32.215  15.507  0.1876  0.2284  0.0268
37124W        W93365  27.371   1.381  13.857 -0.3312  0.0768  0.0332
37125W        W93366  20.797  24.410  25.567 -0.1243 -0.0206  0.2275
37126W        W93367  29.643  25.472  23.992 -0.2280  0.0264 -0.1040
37127W        W93368  29.144  16.332   8.457 -0.0084 -0.2291  0.1675
37128W        W93369  31.758  24.019  11.888  0.0883 -0.0372 -0.3229
37129W        W93370  28.954  26.539  15.163  0.0527 -0.1777  0.0759
37130W        W93371  34.218  11.411  13.815  0.1114 -0.1639  0.3242
37131W        W93372  16.046  26.180  25.679 -0.0382  0.0607 -0.2591
37132W        W93373   4.675  14.112  21.447  0.1777  0.0178 -0.0143
37133W        W93374   0.837  22.752  21.892  0.1121 -0.0485 -0.0081
37134W        W93375   1.511  27.033   7.578  0.0143 -0.1107  0.1307
37135W        W93376   3.205  25.972   5.924 -0.2802 -0.0127 -0.1707
37136W        W93377   4.272  34.473   6.255 -0.0946  0.1616 -0.3224
37137W        W93378   1.852  18.166  24.182 -0.1150 -0.2069 -0.0615
37138W        W93379  22.486  23.458  21.893  0.1423  0.0470  0.2342
37139W        W93380  32.726  24.990  16.809 -0.1441 -0.0900  0.2245
37140W        W93381  14.404   3.641   9.424 -0.3689  0.0407  0.3365
37141W        W93382  29.130  16.118  16.449 -0.2378  0.0098 -0.1849
37142W        W93383  11.679   6.708  21.748 -0.0627  0.0043  0.2593
37143W        W93384  26.865  18.019  13.622  0.1651  0.0448 -0.1482
37144W        W93385  24.424  31.220  18.896  0.1103 -0.0166  0.0210
37145W        W93386   5.687  14.419   9.242 -0.0564 -0.1389  0.0420
37146W        W93387  31.591  24.592  12.160 -0.3116 -0.0192 -0.1413
37147W        W93388  17.828  24.227   1.787  0.0704 -0.3073 -0.0324
37148W        W93389  27.771  15.458  24.685  0.2018 -0.0793 -0.0636
37149W        W93390  24.248   8.245  23.356 -0.1492 -0.0937 -0.0772
37150W        W93391  19.785  30.467  18.469  0.1990 -0.1585 -0.2943
37151W        W93392  18.694  17.264   9.714  0.2378 -0.2009 -0.1111
37152W        W93393   1.170   6.577  14.696 -0.3465 -0.0134  0.0806
37153W        W93394   3.561   9.185   7.102  0.2402 -0.2305  0.0881
37154W        W93395   0.276   1.528  15.430  0.1619 -0.1500 -0.0972
37155W        W93396  22.123   0.951  25.893 -0.3030  0.2038 -0.2301
37156W        W93397  27.330  15.442  15.987 -0.0542  0.0542  0.2724
37157W        W93398   7.005  17.527   0.282 -0.1403  0.1001  0.0514
37158W        W93399  32.789  13.889   6.825  0.2543  0.2459  0.2313
37159W        W93400  33.575  34.295  14.226  0.2458 -0.2378 -0.0491
37160W        W93401   1.502  31.427  17.933  0.0024 -0.1866  0.1877
37161W        W93402   9.628   9.855   3.015 -0.2133  0.1740 -0.1101
37162W        W93403  24.876   8.866  22.105  0.1019 -0.1868 -0.2328
37163W        W93404  21.026  29.268  13.881 -0.0693  0.1454 -0.0764
37164W        W93405  12.243  16.734  24.166  0.0499 -0.0902 -0.0995
37165W        W93406  30.138   2.794   2.034  0.1270  0.2258 -0.0834
37166W        W93407   7.458  33.357  11.654 -0.2206 -0.1051  0.2873
37167W        W93408   4.768  20.265  21.900 -0.0312 -0.1054  0.2040
37168W        W93409  32.404  22.871  20.679  0.2493  0.0899 -0.0079
37169W        W93410   1.090   6.051   7.285 -0.0998  0.1131 -0.1793
37170W        W93411   5.414  31.445  20.910  0.0181  0.0111 -0.1674
37171W        W93412  34.021   4.741  20.816 -0.0734 -0.1374 -0.0542
37172W        W93413  33.635  23.729  19.481  0.2854  0.1445 -0.1837
37173W        W93414  11.585  25.300   4.462  0.0605  0.1824  0.1215
37174W        W93415  18.084   1.647   7.256  0.4293 -0.1838 -0.2058
37175W        W93416   1.414  26.991   6.580  0.1704  0.4583  0.1016
37176W        W93417   0.877  20.544  25.227  0.1565  0.3367 -0.6551
37177W        W93418  34.538   2.897   4.831 -0.1053 -0.1632 -0.2810
37178W        W93419  10.900   7.020   6.773  0.1188 -0.0345  0.1320
37179W        W93420  13.129  22.573  17.776  0.1272 -0.4199 -0.2857
37180W        W93421  28.221  11.998  17.008 -0.2497 -0.0306 -0.4083
37181W        W93422   4.648  33.936   4.606  0.3663  0.3188  0.1234
37182W        W93423   7.060  15.933  21.036  0.1197 -0.1392  0.0163
37183W        W93424   1.156   1.345  19.092  0.1423  0.0688 -0.2056
37184W        W93425   9.401  19.836  11.976 -0.0551  0.1176 -0.1806
37185W        W93426  17.131   9.342   3.246 -0.1076  0.0754  0.1442
37186W        W93427  14.866  23.926   9.739  0.0600 -0.0213  0.2374
37187W        W93428  14.777  20.415   6.653  0.1873 -0.2438  0.0166
37188W        W93429  23.237  13.208  14.159  0.0765 -0.0798 -0.0449
37189W        W93430  14.202  25.620  24.801 -0.1760 -0.0441  0.0978
37190W        W93431  18.314  26.545  26.014  0.3965  0.0601 -0.2688
37191W        W93432   4.716  27.763  21.761  0.0692 -0.0896 -0.1869
37192W        W93433  18.856   6.204  24.162  0.0564  0.1262  0.1975
37193W        W93434   9.313  34.727  25.073 -0.1329 -0.1308 -0.0558
37194W        W93435  32.601  32.024  11.956 -0.2357 -0.4256 -0.0022
37195W        W93436  21.502  18.995  20.127  0.1611 -0.3000  0.1723
37196W        W93437   2.307  19.344  17.602  0.1158  0.0335 -0.2087
37197W        W93438  12.036  30.476  14.976 -0.1356  0.1044 -0.0389
37198W        W93439  27.263  15.703  17.266 -0.3157 -0.2967 -0.3940
37199W        W93440  24.473  10.427  21.246 -0.1711  0.2047 -0.1117
37200W        W93441   3.579  13.044   3.325  0.0851  0.0383 -0.0479
37201W        W93442   4.972  19.664  22.944 -0.2635 -0.1797 -0.0943
37202W        W93443  11.881  27.343  14.625 -0.1801 -0.2724  0.0270
37203W        W93444  30.206  33.777   1.557  0.0545  0.1756 -0.0193
37204W        W93445  33.399  17.017  12.815 -0.3290  0.2037  0.1081
37205W        W93446   3.131   1.637  22.667 -0.0533 -0.3254 -0.3642
37206W        W93447  15.577  10.190  11.451 -0.2794  0.2915  0.2348
37207W        W93448  26.672  32.618  13.594  0.0184 -0.0027  0.0010
37208W        W93449  26.642  28.124  24.100  0.0638 -0.1247 -0.0659
37209W        W93450  25.567  30.547  14.925 -0.0826 -0.1080  0.1791
37210W        W93451  14.652   7.292  11.015  0.0541 -0.2218 -0.0487
37211W        W93452   3.832  30.614   6.573  0.0287 -0.2239 -0.0842
37212W        W93453  28.747  32.854   0.897  0.0362  0.3334 -0.3281
37213W        W93454   0.871  13.949  13.005  0.3246 -0.2939 -0.0330
37214W        W93455  32.537  15.516   8.530 -0.0540 -0.1091  0.2217
37215W        W93456  32.092   7.509   2.869  0.2682 -0.0784 -0.0946
37216W        W93457  20.456  27.987  19.614  0.0128 -0.0488 -0.3437
37217W        W93458  10.362  21.866   4.985 -0.1710  0.0878 -0.0908
37218W        W93459  24.456   1.241  22.077  0.0537 -0.0673 -0.0153
37219W        W93460  25.822  34.129  23.562  0.2567 -0.2913  0.1721
37220W        W93461  27.187   6.179  15.609  0.1045  0.1586  0.1173
37221W        W93462  24.886  24.401  14.529 -0.1665 -0.1389  0.0513
37222W        W93463  21.272  31.414  16.196 -0.1628 -0.4319  0.2017
37223W        W93464  29.739   6.239  19.595 -0.1222 -0.1537 -0.1618
37224W        W93465  17.811  14.128  18.638  0.4734  0.2295 -0.0303
37225W        W93466  16.238  10.257  21.557 -0.2066 -0.0410  0.1214
37226W        W93467  22.699  16.141   0.762  0.0946  0.0364  0.3557
37227W        W93468  25.819  34.636  19.767  0.0264  0.0240 -0.0226
37228W        W93469  24.298  23.867   1.028  0.1368  0.1651  0.1498
37229W        W93470   2.480  18.890  19.864  0.0287  0.0807 -0.2479
37230W        W93471  13.575   6.390   3.781 -0.0724 -0.0880 -0.1886
37231W        W93472  16.163  11.627  24.721  0.0674 -0.2959 -0.3636
37232W        W93473  19.409  22.623  26.154 -0.2929  0.1641 -0.1175
37233W        W93474  33.036  13.933   8.405  0.2092  0.0115  0.1720
37234W        W93475  32.759  30.987  23.845 -0.3070  0.2089 -0.3717
37235W        W93476   1.708  23.858  16.088  0.0917  0.2259  0.0029
37236W        W93477  10.704   3.514   3.540  0.0976  0.0828  0.1279
37237W        W93478  22.482   5.505  23.857  0.1304 -0.1348  0.0787
37238W        W93479   8.227  15.875  21.623 -0.0362  0.2213  0.0965
37239W        W93480   2.551  13.735   1.798  0.0310 -0.2174 -0.2969
37240W        W93481   3.637   4.029   3.630  0.1848  0.0431  0.2064
37241W        W93482  12.507  30.459  13.281  0.1065  0.1427  0.0338
37242W        W93483   0.275   3.868   2.148  0.2882 -0.0864  0.3958
37243W        W93484  19.481  19.163   4.860  0.0119  0.1533  0.2454
37244W        W93485  21.038  10.271   6.355 -0.1918  0.2509  0.0536
37245W        W93486   0.816   9.215  23.330 -0.0320 -0.3498  0.5018
37246W        W93487  22.674  28.632  17.549 -0.1649 -0.1320  0.2880
37247W        W93488  31.382  17.169  12.435 -0.0279  0.2765 -0.1857
37248W        W93489   3.346  22.305  22.795 -0.1361  0.1172 -0.1612
37249W        W93490  27.536  11.414  18.569  0.0075 -0.1712 -0.2944
37250W        W93491   8.049  11.740  18.650 -0.0859  0.0224  0.0897
37251W        W93492  13.608   8.545   3.832 -0.1995  0.0099  0.0817
37252W        W93493   4.489  35.222  24.437  0.0912  0.0020 -0.1169
37253W        W93494  29.148   1.158   1.044  0.2615 -0.3662  0.0561
37254W        W93495   5.370  12.302  18.681 -0.0047  0.0977 -0.0363
37255W        W93496  28.521   0.917  15.664 -0.0374 -0.2403 -0.2010
37256W        W93497  28.560  12.717   6.533 -0.3194 -0.1225  0.2301
37257W        W93498  34.551  17.967  17.215 -0.1508 -0.0416  0.1495
37258W        W93499  33.381  19.065  11.913  0.2003  0.0025  0.1257
37259W        W93500  29.219  26.375  10.342 -0.0751  0.0446  0.0680
37260W        W93501  28.776   3.837  14.323  0.1628  0.2540  0.1262
37261W        W93502   1.541  19.965  25.670 -0.2850  0.0086  0.1101
37262W        W93503  10.840   8.044   0.024  0.1462 -0.2896  0.3680
37263W        W93504   4.858  22.652   2.880  0.1147 -0.1538  0.0120
37264W        W93505  16.857  25.371  25.798 -0.3264  0.0885  0.1344
37265W        W93506  10.402  31.024  15.339 -0.2441 -0.1643 -0.0163
37266W        W93507  16.048  21.320   7.813 -0.1384  0.1971 -0.0877
37267W        W93508  22.058  10.753  25.608 -0.1720 -0.2703  0.0059
37268W        W93509  34.214  22.026  17.693  0.2496 -0.1646 -0.0348
37269W        W93510   6.114  32.347   3.655 -0.1653 -0.0224  0.2126
37270W        W93511  35.076  34.417   2.213  0.0431 -0.0581 -0.3111
37271W        W93512  21.435   4.661   7.316  0.1307  0.0010  0.0089
37272W        W93513  26.506  19.210  23.804 -0.3639  0.1590  0.1535
37273W        W93514  33.174  27.528  21.545  0.1001 -0.4529 -0.0548
37274W        W93515  26.337  10.991  10.372  0.1517  0.3956  0.0992
37275W        W93516   3.405  31.268  19.770  0.2226  0.0345 -0.1570
37276W        W93517   3.315   2.811   4.620 -0.0353 -0.0068 -0.0995
37277W        W93518  32.149  31.602  20.334  0.0161 -0.0723  0.1851
37278W        W93519  29.541  32.444   5.247  0.1648 -0.1655 -0.1602
37279W        W93520  26.836  12.532  18.890  0.3326 -0.2033 -0.0665
37280W        W93521  13.229   3.892  12.331 -0.1539 -0.0448  0.1034
37281W        W93522   9.667   0.668  15.227  0.0197  0.0335  0.0812
37282W        W93523  10.423  17.303  20.298 -0.2179 -0.2151  0.0903
37283W        W93524  22.375   6.678   7.975  0.1012 -0.1431  0.0354
37284W        W93525  20.656   7.406   1.327  0.1152 -0.0223 -0.2468
37285W        W93526  32.030  33.008  25.193  0.1343 -0.0685 -0.1741
37286W        W93527   0.318  16.525   9.544  0.0032 -0.4017 -0.1804
37287W        W93528   7.935   3.164  11.189  0.1559  0.1108  0.0616
37288W        W93529  27.257   7.034  18.799  0.1561 -0.0535 -0.2053
37289W        W93530  22.221  32.389  22.496  0.0452 -0.0705  0.2300
37290W        W93531  34.170  10.657  21.027  0.2902 -0.1881 -0.2567
37291W        W93532   9.602  30.536  15.103  0.1712 -0.3026 -0.3011
37292W        W93533  23.373  25.805  20.561 -0.2074 -0.1155 -0.2264
37293W        W93534  13.311   4.746   4.240  0.0305 -0.1360  0.2939
37294W        W93535  21.575  25.831  16.660 -0.0632  0.0049  0.2885
37295W        W93536  11.920  15.773   7.050  0.0216  0.0881 -0.0340
37296W        W93537   2.273   3.259   8.248 -0.1016  0.0127 -0.1151
37297W        W93538  12.150  18.478  25.589  0.2665  0.2527 -0.0739
37298W        W93539   4.438   5.444   3.675  0.3817 -0.0958  0.2312
37299W        W93540  32.493  13.946  11.808 -0.1162  0.2672  0.1151
37300W        W93541   5.416   5.502  19.743 -0.1575  0.0281  0.0065
37301W        W93542  11.532  14.266  20.023  0.0680  0.0786 -0.1393
37302W        W93543  19.695  14.371   6.086 -0.2988 -0.1024 -0.2564
37303W        W93544  29.777  26.145  24.767  0.0914  0.1307 -0.0224
37304W        W93545  14.098  34.831   7.007 -0.2459 -0.0406  0.1770
37305W        W93546  31.569  13.052  19.460  0.1330 -0.1402 -0.0221
37306W        W93547  32.189  30.298   2.445 -0.3874  0.4415 -0.0084
37307W        W93548  23.829  29.192  14.144 -0.1047  0.2055 -0.2235
37308W        W93549  32.607  32.703   5.013  0.2031  0.3718  0.0537
37309W        W93550   7.536   8.054  23.282  0.0889 -0.4553 -0.1053
37310W        W93551   1.060  11.283  18.002 -0.0918  0.2081 -0.2256
37311W        W93552  20.321  16.006   1.564 -0.1505  0.1156  0.0641
37312W        W93553  13.154  23.546   8.646  0.0874  0.0268  0.0872
37313W        W93554  18.849  24.017  10.318  0.1337 -0.1533 -0.2040
37314W        W93555  14.923  27.219  11.597  0.0035  0.1276 -0.1851
37315W        W93556   3.320   7.193  26.068 -0.1713  0.1469 -0.1260
37316W        W93557  16.844  34.660   1.666  0.0950 -0.0664  0.1434
37317W        W93558  21.551  27.267   0.539  0.1186 -0.1263  0.0653
37318W        W93559  12.209  28.323  21.641 -0.3097 -0.0717 -0.0680
37319W        W93560  14.714  16.572  19.507  0.1429  0.0142 -0.2487
37320W        W93561   5.344   5.124  25.641  0.2048  0.0664 -0.4479
37321W        W93562  26.157  32.822   2.108 -0.1289 -0.0434 -0.1175
37322W        W93563  29.995   9.095  23.135 -0.1317 -0.3880 -0.1253
37323W        W93564  30.521   4.680  12.609 -0.0466  0.0154 -0.1681
37324W        W93565  18.454   1.785  25.904 -0.2755  0.2502 -0.0350
37325W        W93566   8.126  14.078   7.838  0.0264  0.0622  0.0622
37326W        W93567   5.379  23.280   3.570 -0.2450 -0.3862  0.1215
37327W        W93568  24.748  34.720  20.927  0.4658  0.0731 -0.1079
37328W        W93569   7.347  34.954  15.356  0.1302  0.3647 -0.1598
37329W        W93570   0.681   2.323   0.130  0.1504  0.2315  0.0854
37330W        W93571  23.354  24.499   0.010  0.1798 -0.2357  0.6417
37331W        W93572  26.426  30.552  25.544  0.0753 -0.2867 -0.3131
37332W        W93573  11.626   8.087  22.349  0.1223  0.0679 -0.3695
37333W        W93574  17.913   9.135   0.469  0.1000  0.2036  0.1257
37334W        W93575   3.854  24.502  18.882  0.0976  0.1630 -0.0762
37335W        W93576  10.405  12.601  20.624  0.0831 -0.2883  0.0499
37336W        W93577  32.045  31.399  21.266  0.1329 -0.2147 -0.0273
37337W        W93578  16.674  10.502   3.005  0.0920 -0.0864  0.3748
37338W        W93579  33.879   0.537   6.772 -0.1281 -0.1845  0.2153
37339W        W93580  12.947  33.871  11.155 -0.2210 -0.2896 -0.1881
37340W        W93581   0.108  35.070  21.284  0.3182  0.0547 -0.0754
37341W        W93582   4.259  18.816   4.130 -0.1797 -0.1459 -0.1264
37342W        W93583  33.807  28.342  15.262  0.0536 -0.2344 -0.2681
37343W        W93584  22.321   3.930  25.266  0.1252  0.1632  0.1158
37344W        W93585  18.948  33.552   6.277 -0.1827  0.2480  0.1749
37345W        W93586  14.306  24.980   9.339 -0.1911 -0.0571 -0.1203
37346W        W93587  29.266   1.390  14.646 -0.0482 -0.0957 -0.0523
37347W        W93588  11.095   9.122  22.823 -0.2415 -0.0642  0.3409
37348W        W93589  16.667  15.548   0.296  0.1537 -0.1044  0.0464
37349W        W93590  13.769   1.410   9.091 -0.2608 -0.0123  0.1479
37350W        W93591  27.972   2.328  19.736 -0.1081 -0.0313  0.1303
37351W        W93592  12.462  19.968  14.071  0.1855 -0.1516  0.0202
37352W        W93593  26.440   4.919  25.716 -0.2338 -0.0304  0.0235
37353W        W93594  32.589   3.810  16.391 -0.0308  0.0107 -0.0429
37354W        W93595  15.490  29.643  15.473 -0.0241  0.2415 -0.3132
37355W        W93596  29.462  24.258  19.029  0.2154 -0.1411 -0.0139
37356W        W93597  27.760  28.538  15.561 -0.5894  0.0111  0.0667
37357W        W93598   9.856   3.696   7.551 -0.1180 -0.0408  0.3617
37358W        W93599   8.702  20.148  24.456  0.0240  0.1933 -0.2412
37359W        W93600   2.836  34.315   6.603  0.1422  0.1286 -0.0648
37360W        W93601  31.122   7.529  24.467  0.0879  0.0831  0.0194
37361W        W93602  33.592   3.068   4.948 -0.0566 -0.1076 -0.1809
37362W        W93603  15.275  35.353  18.261  0.0487 -0.2689 -0.1894
37363W        W93604  18.431  10.558   3.128  0.3136  0.1364  0.0480
37364W        W93605  31.709   2.165  22.673 -0.0508 -0.0059  0.0657
37365W        W93606  16.072   0.474  23.915 -0.0937  0.3365  0.2609
37366W        W93607  29.751   9.493  22.808  0.2398  0.0801 -0.2188
37367W        W93608  19.009  31.592   9.362 -0.2328  0.1461 -0.0493
37368W        W93609  31.558  32.519  13.696 -0.1868  0.2415 -0.4528
37369W        W93610   9.652  29.393   1.115  0.1284  0.0086 -0.0977
37370W        W93611  22.194  10.658  23.182 -0.0879  0.0709  0.0622
37371W        W93612   7.542  26.559  25.471  0.0742  0.0935  0.3035
37372W        W93613   3.219   4.887  26.046  0.2197 -0.2049  0.1433
37373W        W93614   3.638  25.388  19.533 -0.1933  0.0330 -0.1161
37374W        W93615   4.242  32.595  22.680 -0.2279  0.0071  0.3077
37375W        W93616  21.884  29.658  18.098 -0.0010  0.0267 -0.2526
37376W        W93617  28.170   0.285  12.664 -0.0960 -0.0768 -0.0136
37377W        W93618   1.646  13.988  23.135  0.0531 -0.4520 -0.1529
37378W        W93619  14.171  31.641   5.525 -0.1578 -0.0082  0.4626
37379W        W93620   7.183   5.234  25.845  0.0087 -0.0660  0.1530
37380W        W93621  10.981  24.574   3.857 -0.2872 -0.2549 -0.1555
37381W        W93622  20.792   1.082  25.189 -0.1463 -0.1656 -0.2278
37382W        W93623   0.288  20.735  12.480 -0.0508 -0.3975 -0.3597
37383W        W93624  27.277  22.715  11.220  0.1209 -0.4542  0.0086
37384W        W93625   2.529  34.263   4.222 -0.0185 -0.1040  0.2153
37385W        W93626  20.357  32.209  18.169  0.1070 -0.0952  0.1478
37386W        W93627  17.912  12.753   8.708 -0.1308  0.1135  0.2320
37387W        W93628  35.129  22.157  23.447  0.1482 -0.1301  0.2804
37388W        W93629  13.711   9.683  23.800 -0.0783  0.3156 -0.0661
37389W        W93630  32.446   2.333  24.615  0.5963 -0.1751  0.0836
37390W        W93631   5.453  16.229  17.419 -0.1092 -0.1545  0.3073
37391W        W93632  31.638   2.583  12.641  0.0101 -0.1794  0.0531
37392W        W93633   2.110   1.903  24.044  0.2256  0.0141  0.0625
37393W        W93634  26.520  13.402  18.793  0.2213  0.2360  0.0570
37394W        W93635   3.874  16.433   2.175  0.5866 -0.1262  0.1199
37395W        W93636   5.587  31.502   2.300  0.0425 -0.0675 -0.1805
37396W        W93637  18.853   2.509   8.092  0.2672  0.0234  0.0559
37397W        W93638   2.495  25.639  22.700 -0.1733  0.1919  0.1969
37398W        W93639  11.306  10.987  22.201  0.2718  0.0726 -0.0883
37399W        W93640  13.536   4.152   9.317 -0.0066  0.0591  0.4115
37400W        W93641  12.639  26.340  16.518 -0.2851  0.0459  0.1308
37401W        W93642  12.588  27.534  25.468 -0.2690  0.1855  0.0707
37402W        W93643  24.422  26.053  24.039  0.0377 -0.0598 -0.0809
37403W        W93644  14.184  13.958  10.648  0.0687 -0.3253 -0.0175
37404W        W93645  16.815  23.207  21.865 -0.2327  0.2283  0.1107
37405W        W93646  19.806   5.363   0.381 -0.0865  0.0042  0.2128
37406W        W93647   6.878  26.606  14.990  0.1069  0.0397  0.1657
37407W        W93648   6.245   1.344   9.305  0.4009 -0.0635  0.3128
37408W        W93649  34.969  11.420  14.208 -0.1674 -0.0702  0.0337
37409W        W93650   2.353   4.888  25.412  0.1278 -0.0012  0.1275
37410W        W93651   2.101  19.604  24.184 -0.0827 -0.0383 -0.1531
37411W        W93652  24.345  28.925  12.251  0.3578 -0.1837  0.1842
37412W        W93653  12.769   5.834  24.791 -0.1499 -0.2887  0.0094
37413W        W93654   9.934  31.687   1.526  0.0256 -0.0341 -0.0121
37414W        W93655  30.515  10.428  19.752  0.1936  0.1177  0.0981
37415W        W93656  17.124  17.812  23.378  0.0463  0.1708  0.1816
37416W        W93657  22.098  15.547  22.041  0.2368 -0.1421  0.5235
37417W        W93658  11.416   6.750   4.092  0.1940  0.1513  0.0770
37418W        W93659  17.505   6.040  26.086  0.0863  0.3624 -0.2687
37419W        W93660  19.138   7.591  23.038  0.0852 -0.0788  0.0049
37420W        W93661  19.190  27.703  22.980  0.0018 -0.0817 -0.2286
37421W        W93662   9.580  28.232   5.771 -0.0418 -0.0544  0.2444
37422W        W93663  24.513  22.216  25.661  0.4020 -0.0876  0.0913
37423W        W93664   4.378  16.733  26.221  0.0225  0.2532 -0.0760
37424W        W93665  29.421  21.954  13.745 -0.0704  0.3297 -0.1302
37425W        W93666  21.085   8.933  24.778 -0.1647  0.2287  0.2220
37426W        W93667  27.908  28.010  16.291  0.1350 -0.0787 -0.2434
37427W        W93668   7.216  25.788  15.808 -0.0374 -0.2030 -0.2832
37428W        W93669   9.402  21.767   0.152 -0.2410 -0.0108  0.3461
37429W        W93670  15.464  10.675  19.876 -0.1578 -0.1349 -0.1217
37430W        W93671  18.166  21.875  20.276  0.5267 -0.1399 -0.2064
37431W        W93672  14.318  10.472  24.095  0.1395  0.1554 -0.0152
37432W        W93673  29.887  33.193  16.676 -0.1015 -0.3255 -0.1722
37433W        W93674  32.250  33.546  22.527  0.0041  0.0149  0.1736
37434W        W93675  15.115  19.622  24.686  0.3817  0.1191  0.4742
37435W        W93676  11.329  34.942  21.711 -0.1429 -0.1527 -0.2466
37436W        W93677  25.602  21.744  11.755  0.3786 -0.0012 -0.1933
37437W        W93678  22.766   0.671  14.330  0.2547  0.0452 -0.0735
37438W        W93679  23.316   0.324  19.151  0.1256  0.3371  0.0752
37439W        W93680  12.165  34.239  22.538  0.2226  0.1676 -0.2416
37440W        W93681  32.032  14.973  13.790  0.2516  0.1792  0.0528
37441W        W93682   0.086  21.582  15.727  0.0636 -0.1651  0.3630
37442W        W93683   2.899  34.568   2.406 -0.3899  0.0620  0.0761
37443W        W93684  25.233  11.160  13.204  0.1314 -0.2702  0.1428
37444W        W93685  11.425  23.715  16.284 -0.2537 -0.2757  0.0204
37445W        W93686   9.802  31.275   5.412  0.1119  0.1935  0.0089
37446W        W93687   1.136  27.606   6.521  0.1249  0.0965 -0.1303
37447W        W93688   2.785   6.014   4.999  0.1269  0.2852  0.0680
37448W        W93689  19.531  23.330   8.966  0.2531 -0.0662  0.1830
37449W        W93690  30.909   0.042  14.947  0.0898  0.0921  0.0198
37450W        W93691   4.188   4.933   4.964  0.1339  0.0083 -0.5325
37451W        W93692  15.017  20.080   2.926 -0.1464  0.1655 -0.0188
37452W        W93693  32.014   8.257  11.240 -0.1401  0.0915  0.2632
37453W        W93694  31.218   2.819  12.646 -0.1746  0.2310 -0.0451
37454W        W93695  27.284   5.319  21.488  0.3615  0.3238  0.2423
37455W        W93696  31.701   9.938   7.737 -0.2237  0.0048  0.0314
37456W        W93697   5.387  18.732  24.388 -0.3689  0.2095 -0.1860
37457W        W93698  31.168  29.095   3.946  0.0799  0.1252  0.2182
37458W        W93699   4.135  19.573   2.618  0.2811 -0.1543  0.1195
37459W        W93700  29.355   6.013   1.281 -0.3081  0.1008 -0.0299
37460W        W93701   5.237  11.352   3.480  0.3491  0.1113 -0.1208
37461W        W93702  27.059  31.726   0.479  0.0554 -0.0438  0.0405
37462W        W93703  19.990   5.143   2.781 -0.0149 -0.0413 -0.0012
37463W        W93704   4.534  30.336   9.153  0.0293 -0.5325  0.1675
37464W        W93705  15.409  18.945   9.061  0.1419  0.2512  0.1104
37465W        W93706   8.417  19.927   2.754  0.0159  0.0439  0.0306
37466W        W93707  25.100   7.325  20.758 -0.0190 -0.2722  0.4402
37467W        W93708   0.704  12.474  14.694  0.2484 -0.0109  0.0170
37468W        W93709  30.238  13.409  20.639  0.2508  0.0945 -0.0992
37469W        W93710   1.167  15.474  20.987 -0.2420 -0.0533 -0.1422
37470W        W93711  28.378  27.559  21.587  0.0787 -0.1041 -0.4407
37471W        W93712  33.760  24.214  16.044 -0.1893  0.0631 -0.4596
37472W        W93713  32.680  13.099  20.894 -0.1197  0.1594 -0.1401
37473W        W93714  35.144  21.357  14.929 -0.0144  0.0584 -0.0176
37474W        W93715  13.125   5.522  21.376  0.1138  0.2518  0.1762
37475W        W93716   9.230   9.964  22.553  0.2147  0.1169 -0.2130
37476W        W93717  14.168   8.752  24.878  0.2704  0.0420 -0.0433
37477W        W93718  29.835  32.614   2.320  0.1946 -0.0127  0.2583
37478W        W93719  30.380  29.414  20.178 -0.2823 -0.3683  0.3100
37479W        W93720  10.999   6.015  21.758 -0.0048 -0.2421  0.1932
37480W        W93721  14.188  25.320  10.134  0.0355  0.0504 -0.1479
37481W        W93722  30.033  17.794  11.030 -0.3188 -0.0647  0.0093
37482W        W93723  20.608  33.730  15.064 -0.2040  0.2113 -0.3168
37483W        W93724   7.636  28.163  12.039 -0.3801 -0.1658  0.0703
37484W        W93725  30.448   8.507  22.127 -0.0606  0.1160 -0.2593
37485W        W93726  12.265   8.131   5.314 -0.1157  0.3294  0.3175
37486W        W93727  34.110  21.890  25.184  0.3400 -0.1880 -0.0735
37487W        W93728   9.224  29.361  10.883 -0.1607  0.3031 -0.0211
37488W        W93729  25.139  12.416   2.432 -0.3114 -0.0268 -0.1934
37489W        W93730  15.571  31.578   0.543 -0.2687 -0.3855 -0.3896
37490W        W93731  22.800  29.730  20.276  0.2464  0.3248  0.1437
37491W        W93732  26.891   6.305  18.189 -0.3424  0.2036  0.0387
37492W        W93733   5.387  27.126   7.823  0.3827 -0.1268 -0.2189
37493W        W93734  10.534  31.808   5.522 -0.2575 -0.1595  0.2622
37494W        W93735  32.788  29.551  16.364 -0.3165 -0.0886  0.0807
37495W        W93736  19.657  19.219   5.896  0.2146  0.4417  0.4227
37496W        W93737  18.161   0.877   2.446  0.0439  0.0800 -0.3297
37497W        W93738  17.243  27.576   2.022  0.2333 -0.0857 -0.1176
37498W        W93739   2.078  23.363  17.402 -0.1314  0.0239  0.1817
37499W        W93740  28.043  28.869  16.822  0.2914 -0.1996 -0.0712
37500W        W93741  23.910  12.831   0.026 -0.1475  0.3014  0.0462
37501W        W93742  22.265   9.418  25.563  0.4299  0.1418 -0.1002
37502W        W93743  12.138  27.043  13.176  0.2858  0.0959  0.2542
37503W        W93744  12.041  17.975   9.962 -0.2127 -0.0136  0.3537
37504W        W93745  27.726  28.232  20.037  0.0195 -0.1447  0.2291
37505W        W93746  28.953  19.370  22.991 -0.1181 -0.2083 -0.1313
37506W        W93747  11.096   9.003  22.299 -0.1016  0.3003  0.2234
37507W        W93748   9.259   5.688   6.056 -0.0055  0.2410  0.0228
37508W        W93749  11.705  14.396  13.191  0.3781 -0.2568  0.2835
37509W        W93750  32.886   5.969   1.878 -0.1041  0.0511  0.0170
37510W        W93751  26.972   2.410  14.882  0.3159  0.0598 -0.0524
37511W        W93752  28.555   7.697  23.850  0.0196 -0.0358  0.1954
37512W        W93753  30.388  24.419   6.096 -0.0063 -0.2297  0.1900
37513W        W93754  24.114  11.436  13.084  0.0347  0.2876 -0.0044
37514W        W93755   9.029   3.106   9.924 -0.1173  0.0547 -0.0454
37515W        W93756  14.401  32.750  12.480  0.0844 -0.0351  0.0349
37516W        W93757  25.276  17.309  22.437  0.4401 -0.1359 -0.1500
37517W        W93758  34.238  29.858   8.233 -0.6094 -0.0407 -0.2168
37518W        W93759  11.969  17.792  14.991  0.1069 -0.0079 -0.0106
37519W        W93760  18.635  18.902   8.747 -0.1919 -0.2343 -0.0225
37520W        W93761  35.257  32.762   4.754 -0.0451 -0.2847 -0.1214
37521W        W93762  27.927   6.456  14.897  0.5358 -0.0632  0.0170
37522W        W93763  19.944  30.634  19.557 -0.3127  0.0617  0.1036
37523W        W93764  26.122   0.541  22.038 -0.1785  0.0976 -0.2580
37524W        W93765   7.511  15.168   5.158  0.0332 -0.1191  0.2028
37525W        W93766  24.496   9.824   0.230 -0.1574 -0.0263  0.2840
37526W        W93767  23.183  33.149   2.372 -0.3549 -0.1495  0.0071
37527W        W93768   7.815  31.469  14.104  0.2353 -0.2856  0.0146
37528W        W93769  11.905  25.972   8.137 -0.1000  0.0299 -0.2420
37529W        W93770  11.661   7.986   9.950  0.2856  0.0639 -0.0566
37530W        W93771   8.330   6.434  25.596 -0.2244 -0.0724  0.0056
37531W        W93772  27.919   0.765   2.087  0.3978  0.0857  0.0463
37532W        W93773  12.555  19.556   9.615  0.0481  0.1688  0.0396
37533W        W93774  31.005  34.836  19.390 -0.2676 -0.3077  0.0450
37534W        W93775  15.268  15.258  23.575  0.0656 -0.3648  0.1199
37535W        W93776  34.061  17.951  10.043 -0.2089 -0.2978 -0.1882
37536W        W93777  18.117   8.935  26.157 -0.1309  0.3246  0.1469
37537W        W93778  21.262  19.369   2.542  0.0532 -0.1970  0.0842
37538W        W93779  22.285  32.782   5.381  0.0656 -0.2361  0.1384
37539W        W93780   7.796  23.448   5.678  0.1025  0.3046 -0.2873
37540W        W93781  12.872  24.936  11.041 -0.0340 -0.1733 -0.0365
37541W        W93782  28.886  30.276   5.457  0.0298  0.2097  0.3451
37542W        W93783  28.841  22.155  14.025  0.1924  0.2595 -0.0793
37543W        W93784  11.552   5.058  12.184  0.3384  0.1283  0.2360
37544W        W93785   5.019  27.938  12.573 -0.1904  0.1934  0.1247
37545W        W93786  30.560  20.418  22.701  0.0927 -0.0429 -0.0849
37546W        W93787  14.435  25.258  17.725  0.0693  0.1129  0.2247
37547W        W93788  35.179  13.198  14.194 -0.1197 -0.2845 -0.0108
37548W        W93789  33.273  16.217  15.377 -0.0366 -0.0127 -0.1244
37549W        W93790  19.602   6.405  10.702 -0.2748  0.2241  0.0771
37550W        W93791  30.887  26.050  15.698  0.0251 -0.1982  0.0389
37551W        W93792  27.382  24.125  24.117 -0.1358  0.0200  0.0554
37552W        W93793  30.543  22.908   7.799 -0.3843 -0.0014 -0.1378
37553W        W93794  17.749  22.515   3.427 -0.2764 -0.1245  0.0994
37554W        W93795   7.449   0.674  11.499  0.3049  0.0932  0.1012
37555W        W93796  10.922   7.482  13.021 -0.0823  0.1754  0.1669
37556W        W93797  25.312  10.641   0.867 -0.2078  0.1870 -0.1961
37557W        W93798   8.569   5.080   4.314 -0.1706 -0.2869  0.0873
37558W        W93799  11.953  19.405  23.366 -0.0384 -0.2417 -0.1355
37559W        W93800   7.227  14.210  18.705 -0.2324 -0.0629 -0.5420
37560W        W93801  28.323  26.932  18.399  0.0299 -0.1627 -0.0824
37561W        W93802  35.295   7.325  23.401  0.1342 -0.2360  0.1722
37562W        W93803   5.507  33.872   5.630  0.1590 -0.1233 -0.1847
37563W        W93804  23.899  13.130  12.599  0.1030  0.1074  0.0749
37564W        W93805   6.334   2.696  12.046  0.2397  0.2738  0.0775
37565W        W93806  30.163   6.257  14.614  0.2578  0.2519  0.1861
37566W        W93807  29.902  15.553  22.488  0.1553  0.0575 -0.0580
37567W        W93808  14.308   4.301  11.638 -0.2701 -0.2978  0.1653
37568W        W93809   3.223   1.752  23.478  0.1847 -0.1439  0.0482
37569W        W93810   9.807  14.205  17.983  0.0773 -0.1682 -0.0797
37570W        W93811  21.443  16.357   2.959  0.0894 -0.1785 -0.2523
37571W        W93812   4.912  34.825   6.742  0.2413  0.2061 -0.0278
37572W        W93813   7.984   7.460  11.529 -0.1989 -0.0857 -0.0177
37573W        W93814  19.881  33.169  24.245  0.0004  0.0348  0.3919
37574W        W93815  33.240   8.815  20.368 -0.1157 -0.1959 -0.1603
37575W        W93816   8.895  26.030   6.588  0.1074  0.0042  0.2466
37576W        W93817  25.071  20.867  22.122  0.0673  0.1682 -0.1269
37577W        W93818  17.818  33.134  25.091  0.3250 -0.0674 -0.0303
37578W        W93819  26.744  10.079  18.464 -0.1636  0.0018  0.0143
37579W        W93820  18.645  13.693   2.888 -0.2044  0.0848 -0.0232
37580W        W93821   5.655  18.512  20.048  0.1268  0.3155 -0.3005
37581W        W93822  21.104  12.842   5.961  0.0359 -0.1172 -0.0504
37582W        W93823   5.137  28.824   4.879  0.2308  0.1625 -0.0113
37583W        W93824  28.788  18.820  22.536  0.3779 -0.0929 -0.0209
37584W        W93825  27.593  32.889  21.443  0.0723  0.0386 -0.1820
37585W        W93826  21.222  25.233  19.931  0.3323  0.0102  0.3450
37586W        W93827  11.010  18.479   3.064  0.2139 -0.5395  0.3268
37587W        W93828  15.553   7.727   6.760 -0.1231  0.0097  0.0553
37588W        W93829   8.213   4.197  21.521 -0.4063  0.2922 -0.2163
37589W        W93830   6.742   7.916   5.781  0.2172  0.2626  0.0508
37590W        W93831   3.085   2.756  21.220 -0.3254  0.4081 -0.1544
37591W        W93832  18.602  18.999   1.244  0.5141 -0.1735  0.0367
37592W        W93833  12.057  22.489  13.184  0.0614  0.1369 -0.1829
37593W        W93834  25.719  12.667  12.804  0.4248  0.2234 -0.1346
37594W        W93835  24.206  11.243  22.707 -0.0595  0.0870 -0.3518
37595W        W93836  11.678  32.940   2.153 -0.2461 -0.0495 -0.2031
37596W        W93837  16.331  13.685   0.840  0.1808 -0.1935 -0.3081
37597W        W93838  16.282  15.511  24.896  0.1226  0.3402  0.0908
37598W        W93839  23.106  23.440   2.994  0.1810 -0.1948 -0.0124
37599W        W93840  29.928  24.371  14.170  0.2994 -0.0537 -0.2009
37600W        W93841  18.356  23.235   1.269 -0.0378  0.0706  0.1724
37601W        W93842  12.461   4.800  14.084 -0.4057  0.0444 -0.1120
37602W        W93843   1.281  33.021  16.612 -0.0872  0.0503  0.0411
37603W        W93844  21.963   9.785  17.839  0.0320  0.1037 -0.3286
37604W        W93845   0.925  20.737  25.738 -0.0930  0.1965  0.1312
37605W        W93846  22.266  19.844   1.859  0.3319  0.1092  0.1026
37606W        W93847  10.377  18.209   9.331  0.2335  0.1111 -0.1354
37607W        W93848   1.295  15.835  22.579 -0.0176  0.0635 -0.2553
37608W        W93849  23.174  25.152   1.179 -0.2077 -0.0406 -0.1304
37609W        W93850  22.477  29.007  12.406  0.1062 -0.2443  0.0087
37610W        W93851   9.173  29.966   2.306  0.0494  0.1803  0.1524
37611W        W93852  34.652  31.667  24.219 -0.3259 -0.2303  0.1086
37612W        W93853  14.181  27.338  13.933 -0.1193  0.2505 -0.1847
37613W        W93854   9.494  17.185   4.010  0.0268 -0.0557 -0.3579
37614W        W93855  27.980  19.031   5.399  0.3932  0.4240 -0.1764
37615W        W93856   5.338  27.064  26.229  0.3054 -0.0378  0.2185
37616W        W93857  20.701   1.664  15.888  0.1150 -0.0773  0.2829
37617W        W93858   7.154  21.009  22.162  0.0147 -0.1117 -0.1299
37618W        W93859  31.375  25.091  17.950  0.2122  0.4016  0.0864
37619W        W93860   3.068   2.709  23.176 -0.0085 -0.1115 -0.1631
37620W        W93861   5.940  13.545   1.193  0.1875  0.1330 -0.0031
37621W        W93862  32.518  20.306  14.622  0.0336 -0.2213  0.2760
37622W        W93863   8.624  34.580   3.283  0.2602  0.1400  0.1344
37623W        W93864   1.126  33.115   9.720  0.0796  0.0444 -0.1795
37624W        W93865  17.918  32.858  20.306 -0.0648 -0.0398 -0.1375
37625W        W93866   5.510  14.707   5.909  0.0879 -0.2390 -0.0838
37626W        W93867  32.085   8.993  11.655 -0.2253 -0.2447 -0.0088
37627W        W93868   6.647  27.812   6.748  0.1233  0.0429 -0.4570
37628W        W93869  12.345  29.355  25.349 -0.2405  0.1757 -0.2120
37629W        W93870   5.666  35.310  11.500 -0.0289 -0.0611 -0.1284
37630W        W93871  33.066  20.805   9.108 -0.2250 -0.1790 -0.1066
37631W        W93872  29.238  31.443  20.396  0.1055 -0.2314 -0.1185
37632W        W93873  29.134  21.740  14.684 -0.1418  0.2682  0.2098
37633W        W93874  21.848  28.949   2.631  0.1201  0.1228  0.3867
37634W        W93875  29.989  17.688   5.762  0.3717  0.2251 -0.1384
37635W        W93876  14.734  30.510  10.929 -0.2577 -0.1278 -0.0049
37636W        W93877   5.899  20.871   6.589 -0.0498  0.1068  0.1001
37637W        W93878  26.332   3.032  25.467  0.1515  0.2362  0.1335
37638W        W93879  11.040  19.251  24.833  0.2261 -0.0264  0.3645
37639W        W93880  12.401  12.069   2.103  0.0731  0.2436  0.1676
37640W        W93881  19.925  33.990   3.388  0.0603  0.0328 -0.1827
37641W        W93882  33.453   3.895  20.709 -0.1953  0.1967  0.0278
37642W        W93883  29.530   7.531  10.312 -0.0592 -0.5612  0.3634
37643W        W93884  20.280   5.055   9.199 -0.0418  0.1502  0.1289
37644W        W93885  30.563  14.781  14.719 -0.1939  0.0387 -0.0969
37645W        W93886  21.379   7.274  19.457 -0.0386  0.0372 -0.1796
37646W        W93887  16.042  12.563   4.300 -0.0506 -0.2184  0.1413
37647W        W93888   3.613  23.103   4.030 -0.2993 -0.0473  0.0888
37648W        W93889   4.853  32.776  26.140  0.2506  0.3510  0.2171
37649W        W93890  29.933  15.608  17.474  0.0550  0.2900 -0.0455
37650W        W93891  16.653  17.871   6.361  0.1158  0.1444 -0.1868
37651W        W93892  20.777  33.694  21.446 -0.2020 -0.0982 -0.0732
37652W        W93893  35.060  28.704  26.220  0.0441 -0.1993 -0.0180
37653W        W93894  27.540  34.874  18.664 -0.0706 -0.3286  0.0520
37654W        W93895  23.019  30.211  13.683 -0.1048  0.0964 -0.0599
37655W        W93896  32.768   2.818  13.043  0.2004 -0.3275  0.2264
37656W        W93897  34.901  22.636  17.530 -0.0344  0.0386 -0.1263
37657W        W93898  18.823  21.207  24.860  0.2166  0.2476 -0.2787
37658W        W93899  29.876  34.175   5.398 -0.2426  0.1079 -0.1772
37659W        W93900   9.749   6.602   1.617  0.0836 -0.1401  0.2301
37660W        W93901   8.251  32.470   0.146  0.0639 -0.1957 -0.1040
37661W        W93902   4.345  16.713   4.006 -0.0608 -0.3317 -0.3144
37662W        W93903  13.614  25.423   8.984  0.0246 -0.5296 -0.1479
37663W        W93904   7.728   2.800  24.276  0.0891  0.2353  0.2720
37664W        W93905  33.284  32.674   2.492 -0.3193 -0.0919 -0.1190
37665W        W93906  15.945   0.875   5.826  0.1809  0.0559 -0.1746
37666W        W93907  26.083  23.691  15.223 -0.1031 -0.0269  0.0993
37667W        W93908   1.403  28.608  20.925  0.2880  0.1251  0.0660
37668W        W93909  27.164  12.658  13.841  0.2553  0.1708  0.1245
37669W        W93910  26.428  20.708   8.734 -0.1368  0.1556  0.0048
37670W        W93911  33.630  32.097  22.934  0.4714  0.4944 -0.0449
37671W        W93912  23.519   1.574  14.859 -0.1824  0.1344 -0.0666
37672W        W93913   3.472  23.863  21.717  0.0212 -0.3130 -0.1421
37673W        W93914   0.499  31.947   8.173 -0.2166  0.0173 -0.0524
37674W        W93915   8.157  18.081   7.448  0.5132  0.0393 -0.3715
37675W        W93916  26.701  21.112  25.948 -0.3937 -0.0248  0.1960
37676W        W93917  29.115  32.413   2.899 -0.2712  0.3948  0.0164
37677W        W93918  10.655  18.582   0.748  0.0271 -0.2809  0.0816
37678W        W93919  18.177  25.331   0.186  0.0092  0.0339 -0.3030
37679W        W93920   5.490   9.532  22.687  0.0048 -0.0560  0.4607
37680W        W93921  17.716   2.741   8.315  0.1739  0.0661 -0.2651
37681W        W93922  24.798  29.154  17.201 -0.3723 -0.2227  0.3070
37682W        W93923  10.190  12.668   8.990 -0.0197  0.0667 -0.1830
37683W        W93924   1.495  22.836  20.609  0.0407 -0.0816 -0.2690
37684W        W93925  23.393   1.383  19.798 -0.1274  0.1010  0.5058
37685W        W93926  14.336  27.990  16.493  0.0620 -0.1134  0.1893
37686W        W93927  32.853   8.242  14.328  0.0944  0.0882  0.4203
37687W        W93928  11.180  30.896  22.448 -0.3624  0.1174 -0.1204
37688W        W93929  18.513  31.328   6.167 -0.4304  0.3767 -0.0680
37689W        W93930  22.704  17.423  25.082  0.3050  0.0337  0.2439
37690W        W93931  19.155  20.750  11.115 -0.0142 -0.0791 -0.1508
37691W        W93932  12.125  17.100   8.230  0.2155  0.0066  0.0409
37692W        W93933  21.938  14.376   2.749  0.1847 -0.1565  0.0292
37693W        W93934  11.716   3.639   0.128  0.2878  0.1401 -0.2525
37694W        W93935   8.184   6.444   0.624 -0.2031  0.2527 -0.1366
37695W        W93936  13.223   8.216  20.258 -0.0129 -0.2044  0.0754
37696W        W93937  27.858  13.401  17.996  0.2053 -0.2930 -0.3821
37697W        W93938  27.442  32.632  22.009  0.2198  0.0584 -0.1564
37698W        W93939  11.851  23.333  23.814  0.1927  0.1245  0.3075
37699W        W93940  31.325   7.848   0.023  0.0389 -0.4060  0.3386
37700W        W93941  10.993  20.131   6.804 -0.0609 -0.0277 -0.0140
37701W        W93942  16.845  19.307  19.882 -0.0797 -0.1081 -0.0266
37702W        W93943  25.773  29.579  24.721  0.1572 -0.0541 -0.1194
37703W        W93944  15.932  23.314   3.470  0.1269  0.1828  0.0525
37704W        W93945  23.422  32.536  12.636 -0.0616 -0.0319 -0.0407
37705W        W93946   1.726  14.407  12.323 -0.1092  0.0941 -0.1987
37706W        W93947  16.217   6.823  23.677  0.0038 -0.0546  0.1116
37707W        W93948  24.590  23.040  17.200 -0.1082  0.1920  0.0425
37708W        W93949  17.430  26.637  25.998 -0.1090 -0.2301 -0.0064
37709W        W93950  21.347  18.031  20.628  0.1293  0.2415  0.2338
37710W        W93951  30.002  12.846  11.491 -0.3155 -0.0043  0.0028
37711W        W93952  21.933   4.385   6.413 -0.0569 -0.1144 -0.0301
37712W        W93953  32.140   4.438   4.145 -0.3578  0.2545  0.3688
37713W        W93954  30.486  23.307   8.221 -0.2092 -0.0554  0.3334
37714W        W93955   1.687  11.795  16.427 -0.2105  0.2818  0.3476
37715W        W93956  20.771  26.513   7.582  0.2825 -0.2643  0.1545
37716W        W93957  12.041  20.617  10.606 -0.1331 -0.0093 -0.1001
37717W        W93958   8.549   7.448  11.584 -0.2089  0.1051  0.1966
37718W        W93959   7.540   1.777   6.783  0.0900  0.0107  0.0952
37719W        W93960  14.775  22.039  24.573  0.2168 -0.4224  0.0605
37720W        W93961  34.477   7.227  22.217  0.0940  0.0764 -0.4915
37721W        W93962  12.307  19.641   1.475 -0.1708  0.2814  0.0062
37722W        W93963  28.995  26.507  14.446  0.1547 -0.1172 -0.0166
37723W        W93964   3.153  14.859  15.710 -0.3100  0.2747 -0.0427
37724W        W93965   8.577   3.523   0.386 -0.2658  0.3669  0.1211
37725W        W93966  21.684  19.609   1.817 -0.0459  0.2134  0.1258
37726W        W93967  29.456   0.543  24.678  0.0045  0.0458  0.2091
37727W        W93968  10.245   6.627  23.030 -0.0147 -0.0134  0.1415
37728W        W93969  19.686  12.871   9.398  0.0554  0.0170 -0.1031
37729W        W93970  21.422  24.347  20.477 -0.2899  0.0993  0.1540
37730W        W93971  31.090  34.988   0.718 -0.2349  0.1718 -0.1879
37731W        W93972   5.828  34.328   3.654 -0.0129 -0.3389  0.2721
37732W        W93973  33.091   7.544  22.928 -0.0749  0.0922  0.3444
37733W        W93974  23.440   5.268  17.398  0.2024  0.0261  0.3509
37734W        W93975   8.078  11.422  23.834 -0.1848 -0.3035 -0.1167
37735W        W93976  28.903  18.879  14.163 -0.1415 -0.1499  0.3343
37736W        W93977   0.541  16.332  19.283  0.0991 -0.2356 -0.0886
37737W        W93978  10.996  30.407   4.245 -0.2486 -0.1882  0.0793
37738W        W93979   4.236  16.182   4.009 -0.3577 -0.1302 -0.2506
37739W        W93980  13.652  19.445  10.028  0.1709  0.1686 -0.0157
37740W        W93981  21.865  24.123  20.577 -0.0814  0.0706  0.0825
37741W        W93982  17.036   7.492  21.567  0.0907 -0.1041  0.0916
37742W        W93983  24.863   1.332  14.406  0.0449  0.1672  0.0911
37743W        W93984  20.720  12.016  22.232  0.3702 -0.5396 -0.1966
37744W        W93985  32.367  17.120   9.247  0.3206 -0.1854 -0.0297
37745W        W93986   0.344  34.989   0.575  0.0206  0.0427  0.0241
37746W        W93987   7.894  24.186  10.126 -0.0773 -0.2023  0.2324
37747W        W93988  24.705  35.051  13.767  0.1382 -0.1589  0.1620
37748W        W93989  18.132   5.082  10.587 -0.2163  0.2661  0.0547
37749W        W93990  30.889  17.234  18.716  0.3689 -0.0691  0.0908
37750W        W93991  32.760  23.808  19.410  0.1918 -0.1867  0.2371
37751W        W93992   0.299  26.946  15.819 -0.1140  0.4919  0.1541
37752W        W93993   4.709  31.285  25.199 -0.2119 -0.2495  0.0517
37753W        W93994  18.059  18.884  18.626  0.1085  0.3158 -0.3468
37754W        W93995  25.980   2.657  14.462 -0.0457  0.0991  0.2351
37755W        W93996   9.903  32.034   9.565 -0.1741 -0.0695 -0.1840
37756W        W93997   5.712   9.733   2.433 -0.2413 -0.0104  0.2342
37757W        W93998  19.980   4.200  24.859 -0.2171 -0.0845  0.1826
37758W        W93999  11.840  18.111  23.563 -0.1603  0.1261 -0.1092
37759W        W94000  17.608   1.482  21.623 -0.0011  0.2461  0.0890
37760W        W94001  13.097  23.732   5.289 -0.0090  0.3300 -0.1198
37761W        W94002   1.021  27.140   6.862 -0.0818  0.0807 -0.0354
37762W        W94003  32.481  35.025  13.358  0.0165  0.0524 -0.1358
37763W        W94004  22.645   4.834  22.252  0.0314 -0.5879  0.3472
37764W        W94005  29.756  18.291  11.431  0.2482 -0.2325  0.2235
37765W        W94006  24.738  17.976  19.902 -0.0584 -0.0932  0.2411
37766W        W94007  26.986  27.833  17.427 -0.0011  0.2276 -0.0668
37767W        W94008   8.731  18.722  12.340 -0.0036 -0.2879 -0.2604
37768W        W94009  33.419  18.385   6.359  0.0723 -0.0357  0.2484
37769W        W94010  10.596   1.469   8.044  0.1075  0.0250  0.1828
37770W        W94011  26.917  30.525   4.514 -0.1310 -0.0875  0.1047
37771W        W94012   8.476   4.631   5.532 -0.3493  0.2645  0.2663
37772W        W94013   9.522  28.158   8.558  0.0196  0.0574 -0.0341
37773W        W94014  22.777  10.297  21.536  0.0452 -0.0922 -0.2245
37774W        W94015   8.071  25.757   9.295  0.0616  0.2669  0.2342
37775W        W94016  25.574  20.015  14.816  0.2124  0.2162  0.0665
37776W        W94017   8.661  12.441  10.679  0.0232  0.1519  0.2603
37777W        W94018  34.844  15.037  20.495 -0.0842  0.0597  0.1296
37778W        W94019  12.333  12.364  21.734 -0.0555 -0.1400  0.0596
37779W        W94020  14.094  29.866  15.204  0.1606 -0.2659 -0.2610
37780W        W94021  14.738   2.602   5.902  0.1705 -0.0707 -0.5842
37781W        W94022  16.063   3.907  10.172  0.1961 -0.0400  0.1953
37782W        W94023  17.570  17.678   1.086 -0.2586  0.4154  0.3264
37783W        W94024  21.384   5.188  22.836  0.1036 -0.1091  0.1529
37784W        W94025  23.340  25.857   0.868 -0.1153 -0.0010 -0.0017
37785W        W94026  22.320  34.287   2.293 -0.2456  0.0681 -0.1325
37786W        W94027  26.074  29.225  11.225 -0.4256 -0.4516 -0.0426
37787W        W94028  34.766   5.016   1.490  0.0920 -0.0196 -0.0619
37788W        W94029  19.269  31.363   0.560 -0.1999 -0.1174 -0.0090
37789W        W94030  22.437   5.414  21.575 -0.1361 -0.3622 -0.0098
37790W        W94031  24.302  21.745  25.385  0.1883  0.1570 -0.0899
37791W        W94032   8.013   4.953  13.587  0.1161 -0.0351 -0.1006
37792W        W94033  32.439  18.169  26.149 -0.1697 -0.0508 -0.2640
37793W        W94034   8.848  34.658  12.359 -0.2055 -0.0772  0.1347
37794W        W94035  27.309  26.315  18.264 -0.1244 -0.1954 -0.0073
37795W        W94036  12.528   6.218  20.929  0.2544 -0.0649  0.2767
37796W        W94037  33.657   2.666  20.485  0.2012  0.0233 -0.3234
37797W        W94038  26.827  30.090  15.034  0.0758 -0.1643 -0.0820
37798W        W94039   1.794  25.251   1.545 -0.1315 -0.1381  0.2584
37799W        W94040  33.757   1.174  18.015  0.1611 -0.1065  0.0874
37800W        W94041  10.488  31.330   1.539 -0.0350 -0.0039  0.0807
37801W        W94042  22.930  25.571   2.357 -0.1651 -0.2135  0.1676
37802W        W94043  15.060  17.626  21.578 -0.1394 -0.2442 -0.1335
37803W        W94044  18.136  34.242  18.655 -0.2097  0.0753 -0.1146
37804W        W94045  27.647   9.747  17.560 -0.1351 -0.2089  0.2011
37805W        W94046   4.436   1.953  19.538  0.0563 -0.1150 -0.0731
37806W        W94047  33.385  23.363  16.226  0.3036  0.1210  0.1132
37807W        W94048   6.414   9.843   1.715  0.3500 -0.2159 -0.4593
37808W        W94049  30.986  23.908  13.856 -0.2003  0.0130  0.1390
37809W        W94050  23.916  34.753  22.168 -0.0944  0.1955 -0.0952
37810W        W94051   5.932  19.241  22.072  0.6536 -0.2223 -0.0148
37811W        W94052  30.487  33.469  19.411  0.2101  0.0864 -0.1955
37812W        W94053  13.091   2.682   7.988 -0.0405  0.0465 -0.2212
37813W        W94054  23.279  21.732  16.929  0.1033 -0.1593  0.2774
37814W        W94055  16.165  15.234   8.637  0.1012  0.2822  0.2126
37815W        W94056  26.539   6.708  20.864 -0.3548  0.1532  0.0730
37816W        W94057  16.334  22.132  11.964  0.0012  0.0688  0.2063
37817W        W94058  33.245  11.140  16.258 -0.0754 -0.2406 -0.0421
37818W        W94059  15.839   5.968   2.813  0.2844 -0.0809  0.0336
37819W        W94060  30.012  29.822  15.237 -0.3035  0.0315 -0.1205
37820W        W94061  33.388  22.300   9.815  0.3239 -0.0483 -0.1778
37821W        W94062   0.134  22.097  13.247  0.1167 -0.0734  0.1445
37822W        W94063  18.515  26.221  22.031  0.1199  0.1932 -0.0539
37823W        W94064   6.301   5.780  23.330  0.3621 -0.0071  0.2491
37824W        W94065  16.562   8.889   3.204  0.0765  0.4351 -0.0325
37825W        W94066  26.859  30.082   2.002 -0.0989 -0.0695  0.2451
37826W        W94067   9.450  32.854   5.097 -0.0726 -0.0166  0.0205
37827W        W94068  20.260  22.576  10.662  0.0135 -0.2102  0.1313
37828W        W94069  28.402  11.301  18.820  0.1975 -0.3727 -0.2669
37829W        W94070   2.924   1.909  17.988 -0.2300 -0.0594 -0.2777
37830W        W94071  23.639  15.364  25.304  0.1040 -0.1416 -0.0435
37831W        W94072  13.575  20.983  11.157  0.1056  0.0972  0.2195
37832W        W94073  10.044  14.839   5.550  0.0250 -0.0653 -0.3106
37833W        W94074   6.009   7.149   7.084 -0.1717  0.1237  0.0695
37834W        W94075  33.008  26.224  22.495 -0.0153 -0.0251 -0.2487
37835W        W94076   6.482  30.087   5.076 -0.3608 -0.1515  0.2328
37836W        W94077  28.655   1.201   4.612  0.0495 -0.2136 -0.0318
37837W        W94078  28.243   8.125  20.743  0.3963 -0.0106  0.3152
37838W        W94079   6.346  21.914  21.423  0.0652 -0.1606 -0.1425
37839W        W94080  11.854  18.542   8.556 -0.0892 -0.0358 -0.1571
37840W        W94081   4.434  25.097   7.600  0.1151  0.0994 -0.0150
37841W        W94082  32.505  33.424  17.794 -0.0650 -0.1466 -0.2727
37842W        W94083  13.018   5.725  18.887  0.1094 -0.1305  0.2261
37843W        W94084  19.761  27.201  22.194  0.0270  0.0776  0.0286
37844W        W94085  33.315  10.660  22.641  0.1521  0.3006 -0.1202
37845W        W94086  12.758  10.005  24.863 -0.0784 -0.0833  0.2140
37846W        W94087  17.583  34.682  18.529  0.3507  0.1496 -0.1225
37847W        W94088  25.396  20.058  18.107 -0.0623  0.2151  0.0580
37848W        W94089  14.576  28.075   1.873  0.0485 -0.1025  0.0042
37849W        W94090  29.256  12.873  19.085  0.2256 -0.4467 -0.0670
37850W        W94091  33.003  18.745  12.002  0.0382  0.1701  0.1011
37851W        W94092  18.466  35.252   9.132  0.3431 -0.2086  0.3912
37852W        W94093  21.157   4.464  14.674 -0.0224  0.2629 -0.4049
37853W        W94094  18.134  20.321   4.933 -0.2681 -0.1875 -0.2773
37854W        W94095  16.710  21.434   8.512  0.3107  0.0473  0.0633
37855W        W94096   3.533   1.479   1.802  0.0660 -0.0056  0.0565
37856W        W94097   2.948  15.067  21.691 -0.2505  0.0497  0.1451
37857W        W94098   8.710  17.121   3.123 -0.0796 -0.3001 -0.1983
37858W        W94099  29.944  25.695  10.327 -0.2889 -0.1571 -0.3464
37859W        W94100  31.425  23.785  20.071 -0.3915 -0.0414  0.1108
37860W        W94101  16.997  14.340  23.365 -0.0158  0.2030  0.0017
37861W        W94102  11.631   6.636   4.613 -0.2173 -0.2558  0.0939
37862W        W94103   2.124  25.065  19.402  0.0243  0.0134 -0.1835
37863W        W94104  20.672  33.506  24.348 -0.5407 -0.0132 -0.2675
37864W        W94105   3.012  11.185   5.280 -0.0663  0.0270 -0.0220
37865W        W94106  24.734  12.731  19.566  0.2846 -0.1475  0.2092
37866W        W94107  17.881  19.575  25.903  0.0387  0.3986 -0.0835
37867W        W94108  23.769  25.400  18.831 -0.2918 -0.1188 -0.0207
37868W        W94109   7.888  35.114   0.779 -0.2826 -0.0257  0.2651
37869W        W94110  34.356  13.577  23.474 -0.0778 -0.1573  0.1915
37870W        W94111  19.245  13.698  16.823 -0.0252  0.1550 -0.0388
37871W        W94112  16.428  27.823   5.303  0.1196  0.0336 -0.0175
37872W        W94113  19.331   3.703  25.321  0.0638  0.1474  0.1169
37873W        W94114   7.823  17.560   5.529 -0.2855  0.1451  0.2872
37874W        W94115  25.378  17.976   7.681 -0.0586 -0.0745 -0.0805
37875W        W94116  10.191  31.509   7.171  0.0314  0.0716 -0.1921
37876W        W94117  11.913  14.031   0.796  0.1505  0.0548  0.2673
37877W        W94118  34.122  20.920  18.251 -0.1441 -0.1517  0.2297
37878W        W94119  14.263  21.587   8.056  0.1799  0.2363 -0.2915
37879W        W94120   9.753   0.176  10.060  0.3123 -0.0878  0.2488
37880W        W94121  16.088   3.042  17.513  0.2805  0.0988  0.0057
37881W        W94122  31.483  29.192  18.640  0.1665  0.0266  0.1381
37882W        W94123  21.662  27.399  18.309 -0.1996  0.2770 -0.2325
37883W        W94124  13.714  28.793  15.613  0.2251 -0.0657 -0.0361
37884W        W94125   0.949  29.918  17.342 -0.0957  0.0481  0.0475
37885W        W94126  26.269   7.149  22.099 -0.0072  0.2479 -0.2827
37886W        W94127  35.276  18.004   0.413 -0.0644  0.0399 -0.1393
37887W        W94128  27.180   3.633  18.529 -0.1053  0.0910 -0.2088
37888W        W94129  27.121   5.339  24.860 -0.1348 -0.0171 -0.0917
37889W        W94130  30.530  32.981   2.159  0.1435  0.3732 -0.0080
37890W        W94131  24.020  30.314  15.595 -0.2831 -0.3346  0.2557
37891W        W94132  27.375  25.105  14.492  0.1693  0.1381 -0.0776
37892W        W94133  22.946   6.761  18.875 -0.0932  0.0699 -0.1616
37893W        W94134   4.533  32.999   9.637 -0.0793  0.0299 -0.0322
37894W        W94135  27.755  26.261  16.963 -0.0125 -0.1168 -0.2064
37895W        W94136  33.437  14.001   9.220 -0.1935  0.0319 -0.0709
37896W        W94137  29.497  30.273   3.861 -0.0861 -0.1076 -0.4976
37897W        W94138  29.341   1.998  18.759 -0.1383 -0.1727  0.0058
37898W        W94139   8.146  23.040  15.737 -0.0487  0.1582  0.0450
37899W        W94140   7.277  18.946   3.474  0.2110 -0.2093  0.0542
37900W        W94141  34.676   8.457  20.629  0.0835  0.0717 -0.0891
37901W        W94142  31.036  27.488  15.549 -0.0728 -0.0539  0.0469
37902W        W94143  32.580  17.480  23.905  0.0200  0.2170  0.1857
37903W        W94144  16.926  21.444   3.542 -0.4481 -0.0093 -0.4805
37904W        W94145  25.190  29.734   4.563 -0.1072 -0.3029 -0.0764
37905W        W94146  20.400  10.681  22.307 -0.2143  0.0740  0.2470
37906W        W94147  16.688  34.892   5.396 -0.1048 -0.0170 -0.0727
37907W        W94148  29.459  33.129  10.820  0.1939  0.1838 -0.2195
37908W        W94149  22.397  33.509   0.387 -0.2073  0.1893  0.2647
37909W        W94150  11.082  20.385  14.405  0.1737  0.0985 -0.3532
37910W        W94151  23.999  19.040  13.557 -0.1624 -0.1164  0.1915
37911W        W94152   6.518   1.776   8.494  0.0504 -0.0576  0.0019
37912W        W94153  35.269  25.122   2.887 -0.2588  0.1649 -0.3209
37913W        W94154  20.873   3.524   8.203  0.0034 -0.0090  0.2640
37914W        W94155  32.142  13.926  20.048  0.2675  0.1754 -0.2042
37915W        W94156   6.755  26.877  23.377 -0.1295  0.1376  0.1884
37916W        W94157  16.785  24.868   1.389  0.0686 -0.2099  0.1259
37917W        W94158  19.225  25.106   4.544  0.0797  0.0219 -0.1351
37918W        W94159   8.019  31.787   8.671 -0.1265 -0.1092  0.2110
37919W        W94160  26.014  30.394  22.879  0.2074  0.1301  0.0651
37920W        W94161  17.640  28.344   9.112  0.0132 -0.1876  0.0242
37921W        W94162  34.037  20.831  17.121  0.2349  0.0700 -0.1004
37922W        W94163  15.407  10.522   9.601  0.1141 -0.0331  0.0437
37923W        W94164  27.978  27.614  15.978  0.1299 -0.2354 -0.2371
37924W        W94165   0.673   6.352  17.093 -0.2911  0.1692  0.0309
37925W        W94166  24.815  16.279  11.120  0.0392 -0.2157 -0.2398
37926W        W94167  15.307   5.722   7.338 -0.2036 -0.0084 -0.0611
37927W        W94168   3.305  35.172   5.672 -0.3871  0.0800  0.1915
37928W        W94169  30.768  11.350  17.163 -0.1721 -0.2209 -0.0732
37929W        W94170  33.186   5.832  22.056  0.0645 -0.0956 -0.3096
37930W        W94171  14.618  34.674  25.650  0.0387  0.1106 -0.0631
37931W        W94172  14.410  11.438  12.753  0.2611  0.1188  0.0671
37932W        W94173  32.422   1.337   4.000  0.0558 -0.1486  0.0944
37933W        W94174  14.698   3.573  24.800 -0.0737  0.4974  0.0732
37934W        W94175  18.632   7.842   1.212 -0.0952 -0.3143  0.0710
37935W        W94176  24.517  33.862  15.846 -0.4408  0.0622 -0.0029
37936W        W94177   7.841   3.571  13.676 -0.1869  0.1517 -0.0294
37937W        W94178  12.680  14.170  12.132  0.3357 -0.3910  0.0632
37938W        W94179  25.674  20.510  10.236  0.0671 -0.1424  0.1367
37939W        W94180  33.800   2.904   1.428 -0.0302 -0.0778  0.2431
37940W        W94181   3.039   8.881  25.801  0.0706 -0.0725 -0.1669
37941W        W94182   9.188  16.019  22.847 -0.1132 -0.1835 -0.0953
37942W        W94183  13.311  22.079  14.746  0.1300 -0.0370 -0.2323
37943W        W94184   0.052  22.918  16.800 -0.1340  0.2142  0.0269
37944W        W94185   0.437  35.307  23.013  0.2141  0.2537 -0.0080
37945W        W94186   8.129  30.056   1.324 -0.4188  0.4638 -0.0562
37946W        W94187  12.164  15.971   2.291  0.0330  0.0582 -0.0391
37947W        W94188   0.471   5.752  18.908  0.2466 -0.1304  0.0471
37948W        W94189   4.281  14.182  17.087  0.3274  0.0627 -0.2735
37949W        W94190  19.859  35.378   8.731 -0.3420 -0.2233  0.1594
37950W        W94191  26.216  17.261  22.947  0.2303 -0.1534  0.3648
37951W        W94192  31.028   2.022  22.079  0.0435 -0.1621 -0.0691
37952W        W94193  15.898  11.405  21.035  0.2456  0.0646  0.0286
37953W        W94194  24.179  32.614  11.957  0.0663 -0.0825 -0.2724
37954W        W94195  28.029  21.185  17.879  0.1365 -0.1529  0.1397
37955W        W94196   5.216  21.165  24.449  0.0090  0.0350 -0.0433
37956W        W94197  13.759  27.151   9.368  0.3699 -0.2568  0.2692
37957W        W94198   7.927  12.241   9.345 -0.0487  0.0060 -0.0590
37958W        W94199  31.910  20.127  14.507 -0.1424 -0.1984 -0.0271
37959W        W94200  30.604   2.049  25.017  0.0533 -0.0583  0.2530
37960W        W94201  21.121  30.724   3.946  0.0146 -0.1726 -0.1389
37961W        W94202   6.949  20.521   2.576 -0.2739 -0.0142  0.2052
37962W        W94203  19.882  15.060  20.284 -0.2627  0.0749 -0.1194
37963W        W94204   8.644   6.364   7.174  0.0250 -0.2274 -0.1141
37964W        W94205  24.727   7.989  23.971  0.1762 -0.2451 -0.2600
37965W        W94206  16.881   1.624  10.711  0.0772 -0.1618  0.3301
37966W        W94207  17.106   0.730   9.092 -0.5681 -0.0514  0.1773
37967W        W94208   2.044  34.031   3.431 -0.0561  0.2311 -0.0846
37968W        W94209  10.348  23.498  25.914 -0.3162  0.2439  0.1502
37969W        W94210  12.000  18.601   5.376  0.4033  0.1118 -0.0366
37970W        W94211  16.775   8.092  22.797 -0.2402  0.0057 -0.2375
37971W        W94212   2.566   3.884   7.501  0.3979  0.1982 -0.0296
37972W        W94213  15.455  19.641  11.072 -0.0579 -0.1277  0.1760
37973W        W94214  34.628  16.036  22.699 -0.1715 -0.1447 -0.3183
37974W        W94215  18.864   9.520   4.989 -0.1336  0.0369  0.2633
37975W        W94216  17.637  12.425  24.419  0.0243 -0.1623  0.1240
37976W        W94217  17.521   3.153  18.191 -0.0075 -0.3464  0.1350
37977W        W94218  10.302  28.259  11.772 -0.1715  0.3240  0.2835
37978W        W94219  31.374   3.731  14.633  0.0850  0.1382  0.1935
37979W        W94220  21.195   5.173   3.144 -0.0644  0.3156 -0.1490
37980W        W94221  17.059  33.232   0.648 -0.0437 -0.2968  0.2139
37981W        W94222  34.995  27.451  13.974  0.0229 -0.2008  0.0795
37982W        W94223  27.484  18.849  10.744  0.0870  0.1126 -0.2696
37983W        W94224  15.945  14.451   3.113 -0.1411 -0.3951 -0.0953
37984W        W94225   4.741  17.501  17.206 -0.0962  0.0626  0.4212
37985W        W94226   8.856  35.367   6.697  0.2143 -0.1677 -0.0404
37986W        W94227   5.804  22.282   7.602 -0.0115  0.1041 -0.0088
37987W        W94228   5.246  26.901   0.458  0.0568  0.2584  0.0179
37988W        W94229  24.327   8.242  17.434  0.0128  0.0758  0.0530
37989W        W94230   8.932  24.217  13.683 -0.0652  0.0650  0.0034
37990W        W94231   4.833  26.486  22.227 -0.1046  0.1307  0.1900
37991W        W94232   8.072   3.017  22.241  0.0542  0.1164 -0.1846
37992W        W94233   7.081  14.308  24.038  0.0978  0.1528 -0.2853
37993W        W94234  19.045   5.729  25.480  0.0223 -0.0295  0.3037
37994W        W94235   4.780  30.909  23.434 -0.1466  0.0440 -0.2314
37995W        W94236  28.982   8.856   1.226 -0.0515  0.1189  0.0162
37996W        W94237   7.975   3.567  25.615 -0.1098 -0.1911  0.1399
37997W        W94238  30.218   5.177  18.946  0.1462 -0.0534 -0.1605
37998W        W94239  12.536   2.423  26.063 -0.0490 -0.1173  0.0039
37999W        W94240   0.887  23.029  14.950 -0.0307 -0.1166  0.0573
38000W        W94241   5.953  23.557  22.127 -0.2766  0.3576 -0.3427
38001W        W94242   6.050  15.620   0.310 -0.1817 -0.3101  0.0973
38002W        W94243  13.317   9.226   1.162  0.1209 -0.0155  0.1272
38003W        W94244  16.583  18.654  25.962 -0.1815 -0.1649  0.0776
38004W        W94245  28.912   2.570  15.786 -0.3500 -0.1680  0.0951
38005W        W94246  28.220  22.732  11.557 -0.2074 -0.1423  0.1819
38006W        W94247  31.354  33.463  15.070 -0.3185  0.0900  0.2886
38007W        W94248  15.906  21.401   4.285  0.0243  0.0599  0.4207
38008W        W94249   2.954   4.580   1.162  0.2963  0.2890 -0.0673
38009W        W94250  26.111  34.376  11.395  0.1455 -0.2737 -0.2710
38010W        W94251  17.768  15.664   0.787  0.2864  0.1096  0.0226
38011W        W94252   8.668  22.954   3.550 -0.2866  0.1715  0.1720
38012W        W94253  22.351  34.801   7.954  0.3502 -0.0096  0.1138
38013W        W94254  14.524  27.995   6.145 -0.0095  0.1773 -0.2105
38014W        W94255  12.590  31.238   0.820  0.1406 -0.2083 -0.1407
38015W        W94256  29.156   1.470  15.953  0.1060 -0.3259  0.1230
38016W        W94257  34.923  23.336  24.758  0.0924  0.5710 -0.1207
38017W        W94258  16.586  19.902   5.085  0.0423  0.1517  0.1079
38018W        W94259  29.638  15.292  11.669  0.3544  0.0860 -0.0432
38019W        W94260   5.159   9.677   6.051  0.0614  0.0563  0.1752
38020W        W94261   3.813   1.792  22.594 -0.0057 -0.2373  0.3578
38021W        W94262  26.241  30.667   4.106 -0.2262  0.3476 -0.3234
38022W        W94263   5.829  25.632   0.624  0.1670  0.1969  0.0329
38023W        W94264  14.934  21.720   2.787 -0.0656  0.1356  0.2482
38024W        W94265  28.218  27.577  22.759  0.0146 -0.1117  0.2583
38025W        W94266  15.801   8.403  10.472 -0.1296 -0.0172  0.0900
38026W        W94267  27.689   0.553  14.615 -0.1337  0.1799  0.2180
38027W        W94268  26.035  16.161  20.316  0.1510  0.1027  0.0023
38028W        W94269  28.187  15.890   9.646  0.0806  0.1198 -0.1381
38029W        W94270  33.763  11.155   0.589  0.1158 -0.0037 -0.2971
38030W        W94271   6.139  17.407  19.751  0.1116 -0.1063 -0.2754
38031W        W94272   5.145  24.886  25.457 -0.0580 -0.0148 -0.2322
38032W        W94273  10.142   8.517   9.776  0.1284 -0.1788  0.2081
38033W        W94274  25.325  10.708  19.793  0.0711  0.4173  0.0610
38034W        W94275  34.336   7.884  25.390 -0.1724 -0.0374  0.0792
38035W        W94276  28.434  24.079  21.013 -0.1051  0.4280 -0.0527
38036W        W94277  23.449  29.430  18.993 -0.1209  0.1383  0.3898
38037W        W94278  24.382  26.249   0.047  0.0486 -0.4308  0.0242
38038W        W94279  12.117  30.537  12.187  0.2469  0.0581  0.2057
38039W        W94280  30.575  18.534   5.631  0.0193 -0.2718  0.3446
38040W        W94281  12.287  27.022  24.844 -0.0205  0.0686  0.1695
38041W        W94282  18.391   2.712  16.658 -0.3068  0.2839 -0.0505
38042W        W94283  11.317  21.121  22.259  0.0067 -0.3915  0.1822
38043W        W94284  26.302  18.904  17.247  0.2260 -0.1245  0.0501
38044W        W94285   4.727   3.232  24.028  0.1557  0.0824 -0.4921
38045W        W94286  14.550  19.688  12.265  0.1187 -0.3284 -0.0091
38046W        W94287  21.761  11.802  23.202  0.2720  0.0331 -0.0867
38047W        W94288  28.095  11.617  18.552 -0.3633  0.1011  0.1446
38048W        W94289  28.701   8.242   8.894  0.0226  0.0208  0.1495
38049W        W94290   2.422   1.907   6.992 -0.1431 -0.3380  0.3686
38050W        W94291  32.667  19.448   5.634 -0.0112 -0.0466  0.1772
38051W        W94292   9.889  14.151  12.273 -0.0950  0.0305 -0.0184
38052W        W94293  10.944   5.047   9.476  0.0495  0.1307 -0.0505
38053W        W94294   4.215  28.619   3.175  0.1083  0.2434 -0.0206
38054W        W94295  25.448  11.070   1.783  0.1954  0.2314  0.3931
38055W        W94296  21.240   0.305   7.987 -0.0442  0.0339 -0.2273
38056W        W94297  18.223  23.869   2.677  0.1516  0.1869 -0.0333
38057W        W94298   8.030   1.490  22.988  0.2911  0.1625 -0.1393
38058W        W94299  14.169   9.914  11.411 -0.2665  0.1159  0.2404
38059W        W94300   4.115   5.893   0.903 -0.2495 -0.0090  0.0991
38060W        W94301   5.989  31.591  20.997 -0.0825  0.0223  0.1542
38061W        W94302  14.227   5.628   3.712 -0.1149 -0.1266 -0.0393
38062W        W94303   5.828  13.257   7.244 -0.0357  0.2480 -0.3967
38063W        W94304  28.314  31.222  12.254 -0.0708 -0.1512  0.0453
38064W        W94305  34.097  18.236  11.059  0.3068 -0.3786 -0.2944
38065W        W94306  14.431  25.826   9.112  0.1820 -0.4148 -0.1330
38066W        W94307  10.959  15.188   3.738 -0.2411  0.1229 -0.1658
38067W        W94308   0.922   7.761  24.336 -0.1130  0.1439 -0.1008
38068W        W94309  12.756  31.993  12.559 -0.2327 -0.0348 -0.0972
38069W        W94310   0.192  10.845  20.742 -0.3203 -0.0324  0.0209
38070W        W94311  14.585   0.684   5.607 -0.0091 -0.4187 -0.0152
38071W        W94312   2.184  29.202   7.400 -0.3546  0.2083  0.2169
38072W        W94313  12.310  27.699   2.948 -0.0881  0.1182  0.2385
38073W        W94314  29.838  32.459  13.988 -0.4259 -0.3212 -0.1255
38074W        W94315  17.678  26.002  20.434  0.0129 -0.0414 -0.1350
38075W        W94316   8.995  15.420  18.958 -0.2702  0.0498  0.4309
38076W        W94317  16.215  23.726   9.687  0.1710 -0.1891 -0.5336
38077W        W94318   1.756  22.681  21.137  0.1099 -0.0175  0.3032
38078W        W94319  21.488   8.973   7.927  0.1325 -0.2565  0.2584
38079W        W94320  22.853  34.238  14.400  0.2481  0.0226  0.2523
38080W        W94321   5.756  32.729   7.218  0.1480  0.1548  0.2079
38081W        W94322  13.209  17.823  19.968 -0.0280 -0.0307  0.0424
38082W        W94323  27.477  27.295  14.399 -0.0952 -0.1166 -0.4038
38083W        W94324   5.111   8.295   1.160  0.0198  0.0317 -0.2835
38084W        W94325  18.196   7.730  20.059  0.1369  0.0024  0.1937
38085W        W94326  33.105  34.692   2.187  0.4018 -0.2368  0.2265
38086W        W94327  31.290   3.253   6.084  0.0197 -0.1595 -0.2103
38087W        W94328  17.144  32.762  24.499  0.0053 -0.2333 -0.1183
38088W        W94329  19.937   4.004  24.306  0.2735  0.2633 -0.0506
38089W        W94330  15.424  28.160   3.313 -0.1244 -0.1757 -0.2233
38090W        W94331  19.097  18.909  22.192 -0.2013  0.0920 -0.0266
38091W        W94332  30.389   7.865  18.632  0.2983 -0.1082 -0.0798
38092W        W94333   3.945  28.264   8.263  0.1358  0.0895  0.1629
38093W        W94334   1.997  21.460  23.855  0.3537 -0.2384  0.1524
38094W        W94335  34.688  20.539  12.531  0.2020 -0.1030  0.1307
38095W        W94336  16.382  17.664  20.539  0.0056 -0.1524 -0.1260
38096W        W94337  34.647   7.734   0.920  0.1039 -0.1160 -0.2559
38097W        W94338   5.448   6.225   0.882  0.1584 -0.3178  0.1604
38098W        W94339  23.956  27.235  12.915 -0.2083  0.2212 -0.3335
38099W        W94340  17.703  18.643   5.264 -0.1665 -0.1195  0.1393
38100W        W94341  31.312   5.050  23.225 -0.0109 -0.1751 -0.2238
38101W        W94342  34.051  19.830  19.288 -0.0324 -0.1574  0.2023
38102W        W94343  29.607   1.856  15.859  0.0433  0.0363  0.4245
38103W        W94344  22.979  25.516   3.418  0.0096 -0.1785  0.2485
38104W        W94345  10.816  35.083  12.302 -0.0480 -0.1412 -0.0725
38105W        W94346  30.770   9.878  22.884  0.1683  0.1966 -0.0293
38106W        W94347  21.811   4.716   5.676  0.0171  0.4536  0.0076
38107W        W94348   6.907  29.459  14.873  0.1382  0.2467  0.1615
38108W        W94349  10.914  24.959  14.243  0.3380  0.0169 -0.0615
38109W        W94350  11.474  16.751  25.426 -0.3451 -0.2656  0.2717
38110W        W94351  13.674  26.917  12.975 -0.1113 -0.0357 -0.1612
38111W        W94352   2.493  19.840  16.498  0.2357 -0.1813 -0.1033
38112W        W94353  20.968   0.447  22.520  0.1412 -0.3897 -0.1486
38113W        W94354  21.030   2.111  24.426 -0.4297  0.3892  0.0339
38114W        W94355  31.455   5.947  11.147  0.0439  0.4043 -0.0518
38115W        W94356   9.170  24.041   3.613 -0.0735 -0.0185 -0.0171
38116W        W94357  23.936   6.822  24.612 -0.1254 -0.1452 -0.0532
38117W        W94358  19.584  24.643  25.778  0.1809  0.0612  0.0831
38118W        W94359   7.496  24.361  23.586 -0.1322  0.1468  0.3244
38119W        W94360  20.285   3.061  19.127  0.0318 -0.2949 -0.1687
38120W        W94361  13.458  23.340   6.821 -0.2186  0.0644  0.1797
38121W        W94362  11.201  26.614   3.466  0.3407  0.1144 -0.0146
38122W        W94363   0.633   8.799  25.142  0.1057  0.2518  0.0687
38123W        W94364  18.274   5.553  23.812  0.5324  0.2071 -0.2817
38124W        W94365  34.350  33.137  17.484 -0.4092 -0.1437 -0.0545
38125W        W94366  13.937  22.879   9.071  0.2719  0.1513 -0.0225
38126W        W94367  28.545   6.355  24.763 -0.1357 -0.1839  0.3988
38127W        W94368  15.802  19.723  13.786 -0.0852  0.0461 -0.0983
38128W        W94369  33.170  20.282  20.702  0.4513 -0.1906 -0.0890
38129W        W94370  10.642   8.933   7.117  0.2096 -0.2922 -0.0347
38130W        W94371  11.291  31.471  24.251  0.0760 -0.1180  0.2238
38131W        W94372  19.118  22.984  21.589  0.6612 -0.1282  0.1168
38132W        W94373  34.415  12.054  11.363 -0.1809  0.0792  0.1363
38133W        W94374   9.163  30.337   5.502 -0.0141  0.0262  0.2328
38134W        W94375  28.158  19.078   4.601 -0.2651 -0.1793 -0.0127
38135W        W94376   0.006  13.776  17.731 -0.4395  0.0387 -0.1993
38136W        W94377  35.199   0.879  24.772  0.1288  0.1467 -0.3090
38137W        W94378   8.777  30.472  21.135  0.3291  0.0182 -0.1589
38138W        W94379   6.991  23.873   1.468 -0.1440 -0.0284  0.0023
38139W        W94380  18.245  31.151   1.992  0.0929  0.1341 -0.0034
38140W        W94381  11.659  16.358  25.124 -0.1221  0.2209 -0.0445
38141W        W94382  16.709   8.625   2.766 -0.0259  0.1659  0.0729
38142W        W94383  27.443   0.194   0.458 -0.0347 -0.3941  0.1020
38143W        W94384   0.355   8.529  12.855 -0.2134  0.0901 -0.0185
38144W        W94385  14.239   5.651   2.186 -0.1913  0.3763 -0.0011
38145W        W94386  20.516  33.225  15.821 -0.2714 -0.2304 -0.0118
38146W        W94387  20.360  23.574   7.335  0.1133 -0.0342  0.0096
38147W        W94388  30.727  30.277  19.010  0.2781 -0.2563  0.0493
38148W        W94389   6.106  19.659   5.689 -0.1169  0.3237 -0.0450
38149W        W94390  29.292   9.905  16.721 -0.1322 -0.1019  0.2498
38150W        W94391  20.303  34.555   0.075 -0.0338  0.2706  0.1260
38151W        W94392   7.284  13.107  19.316  0.2416  0.1723  0.2420
38152W        W94393  16.558  21.074   8.246  0.0441 -0.0506  0.1039
38153W        W94394  12.426   8.825  19.274 -0.1351 -0.0557  0.0570
38154W        W94395  26.141  10.130  19.138 -0.2826 -0.2091 -0.1272
38155W        W94396   6.312   1.554   7.442 -0.1400  0.3622  0.0157
38156W        W94397   1.233   1.358  15.635  0.0041 -0.1012  0.0373
38157W        W94398   7.318  26.521  14.685  0.0125 -0.0299 -0.0515
38158W        W94399   0.515  28.752  22.940 -0.0270  0.0759  0.0508
38159W        W94400  19.464   0.525   4.129 -0.2193 -0.0238 -0.1040
38160W        W94401   2.611  30.014  10.829  0.2200 -0.1728 -0.1156
38161W        W94402  25.762  16.942  23.676  0.1633 -0.2514  0.0922
38162W        W94403  13.537   5.925   0.472 -0.0817  0.2253  0.0144
38163W        W94404  29.931  29.236  11.438  0.1897  0.2078  0.1680
38164W        W94405  13.473  26.824   4.372 -0.2440 -0.3245  0.0516
38165W        W94406   0.624   9.921  22.221  0.4625  0.1966  0.2086
38166W        W94407   6.604  19.114   6.920 -0.1504  0.2513 -0.1440
38167W        W94408  35.129  24.911  25.326  0.1869 -0.0115 -0.1719
38168W        W94409  15.893  34.755   5.906 -0.1719  0.0593 -0.2804
38169W        W94410   9.210  28.660   2.211  0.0345 -0.1410  0.1038
38170W        W94411   5.814   2.693   3.133  0.1120  0.0909  0.1743
38171W        W94412   8.419   3.706  14.606  0.1820 -0.1804 -0.0325
38172W        W94413   4.730  21.696  20.630  0.2104 -0.0085  0.2154
38173W        W94414  33.079  26.997  21.241 -0.1025 -0.2039 -0.1279
38174W        W94415  12.706   1.058   4.499  0.2451  0.1256  0.0153
38175W        W94416  32.287  12.225   0.441 -0.2467 -0.0890  0.1902
38176W        W94417  23.933  25.510  21.366 -0.0897  0.1183  0.1022
38177W        W94418  13.827   2.948  18.283 -0.0232  0.1422 -0.0319
38178W        W94419  13.028  33.914  10.086  0.0336  0.2090 -0.1317
38179W        W94420  11.955  33.564   0.425 -0.0975 -0.1815 -0.1850
38180W        W94421  20.212  26.352   5.543 -0.0431  0.1105 -0.1169
38181W        W94422  15.987  33.721  10.564  0.0439  0.1905 -0.2020
38182W        W94423  24.021  14.190  11.680  0.1703 -0.2900  0.3070
38183W        W94424   8.363  19.463   2.520  0.1176  0.2015  0.1562
38184W        W94425   1.644  30.543  18.876  0.2796 -0.1185 -0.2100
38185W        W94426  21.801  29.805  23.991 -0.1374 -0.1555  0.0493
38186W        W94427  35.352   3.036   0.526 -0.1531  0.0820  0.2476
38187W        W94428  34.446  21.580   9.090 -0.2740  0.0519  0.2666
38188W        W94429  34.573  31.712  21.729  0.1234 -0.1831 -0.0782
38189W        W94430  34.176  27.305  15.119  0.1358  0.1272  0.4196
38190W        W94431  17.576   4.840  10.647  0.0848 -0.0753 -0.0698
38191W        W94432   3.296  18.711  18.181  0.0301 -0.1377  0.3271
38192W        W94433  19.170  22.845   6.838  0.1940  0.3023  0.2096
38193W        W94434  10.581  18.855   8.570 -0.1388  0.0513  0.2814
38194W        W94435  17.316  31.244   6.858 -0.3823  0.1292  0.2944
38195W        W94436  15.419  21.767   9.186  0.2079 -0.0069  0.3908
38196W        W94437  21.222  24.836   4.075  0.3891  0.1737 -0.2077
38197W        W94438  18.075  11.609   0.556  0.0310  0.1537 -0.0859
38198W        W94439   4.993  11.876  18.856  0.1234 -0.0280  0.0330
38199W        W94440   8.787   4.492  11.961 -0.0591 -0.1368 -0.3630
38200W        W94441  15.926  18.434   5.191  0.3497  0.1609  0.0286
38201W        W94442  27.690  25.715   1.155  0.3015 -0.0455  0.3307
38202W        W94443  23.241   8.060  21.920 -0.1037  0.0052 -0.1243
38203W        W94444  26.476  17.763  20.763  0.2572 -0.0991  0.3724
38204W        W94445  29.279  22.915  15.278  0.0322 -0.2922 -0.1036
38205W        W94446  18.471  19.767   9.486  0.1597  0.3840  0.2619
38206W        W94447   3.075  19.410  15.792  0.1006  0.2612 -0.3093
38207W        W94448  11.508  17.281  23.954  0.1660  0.4143 -0.1154
38208W        W94449  31.200  29.447  21.669 -0.0843  0.0969  0.1157
38209W        W94450   8.042  28.581   2.820 -0.0239 -0.5107  0.0299
38210W        W94451  31.176  14.745  19.963 -0.1405 -0.2081 -0.0307
38211W        W94452   8.446  20.281   8.787 -0.1645 -0.0503  0.1117
38212W        W94453   2.039  32.263  21.070 -0.4380 -0.1624  0.0277
38213W        W94454   6.166  17.974  19.590  0.1922  0.1091 -0.0961
38214W        W94455  31.246   6.253  19.022 -0.0287 -0.0129  0.0916
38215W        W94456   1.185  21.410   9.107 -0.0432 -0.1218 -0.1915
38216W        W94457   9.317  17.282  19.892 -0.3626  0.4094 -0.2268
38217W        W94458  25.149   2.545   2.887 -0.1337 -0.3318 -0.0120
38218W        W94459   8.020  14.358  20.645 -0.1044  0.1490 -0.1580
38219W        W94460  30.606  27.710  19.139 -0.0631  0.1292 -0.1413
38220W        W94461  15.207  12.644   9.959 -0.2032  0.0670 -0.0115
38221W        W94462  29.074  32.434  18.392 -0.2340  0.0066  0.0931
38222W        W94463   1.518  14.106  18.554 -0.1477  0.1721  0.0090
38223W        W94464   3.896  28.259  23.003  0.5363 -0.2795  0.0143
38224W        W94465  11.399   7.830   1.945  0.0034 -0.0474  0.3348
38225W        W94466  15.186   5.440   8.021  0.2042  0.2640 -0.0408
38226W        W94467  10.966   4.333   7.882  0.0176 -0.2542  0.1004
38227W        W94468  30.563   9.470   7.641  0.1175  0.0650  0.0201
38228W        W94469  18.833  33.845   6.956  0.2595  0.0126  0.0531
38229W        W94470   7.700  26.747  10.258  0.3246 -0.0984 -0.2608
38230W        W94471  18.251  24.119   5.286 -0.1940 -0.1885  0.1133
38231W        W94472  34.512  25.773  21.891 -0.2061  0.2327 -0.0629
38232W        W94473  29.516   8.521   2.362  0.0214 -0.0426  0.0883
38233W        W94474  23.355  33.450   3.356 -0.2656  0.3332 -0.1044
38234W        W94475   3.518  29.130   5.477 -0.2034  0.2958  0.0130
38235W        W94476  19.891   5.003   2.073 -0.0274  0.3454 -0.3598
38236W        W94477  32.865   1.544  16.440  0.2269  0.1141  0.4609
38237W        W94478   8.025  12.439  12.303  0.1839 -0.6338 -0.1196
38238W        W94479  11.920   2.583  11.109 -0.1162 -0.0416 -0.0186
38239W        W94480   4.662  31.571   4.254 -0.1276  0.1480 -0.0947
38240W        W94481  26.976  26.002   2.408 -0.1084 -0.0864 -0.3204
38241W        W94482  20.153  17.685   4.840 -0.0702  0.3083  0.0381
38242W        W94483  30.150  33.650  15.318  0.3618 -0.1504 -0.2855
38243W        W94484  21.529  21.339   1.645 -0.1094  0.1356 -0.0169
38244W        W94485  33.964  26.547   2.636  0.0867  0.2157  0.1695
38245W        W94486   7.463  22.129   3.434  0.2562  0.0038  0.4703
38246W        W94487  34.623  33.157  14.062  0.1205  0.1631  0.0930
38247W        W94488  33.597  27.800  22.298 -0.3769  0.1954  0.1449
38248W        W94489   4.716  26.080  24.113  0.0319  0.1227  0.0175
38249W        W94490  23.871   1.451  12.999 -0.1232 -0.1981 -0.2384
38250W        W94491   1.205   9.523  23.591  0.0332  0.0625  0.5903
38251W        W94492  34.254   6.864  20.793  0.2567 -0.3288  0.4417
38252W        W94493   0.733  25.086   1.307  0.1754 -0.2584 -0.1125
38253W        W94494  13.373   8.814   9.015 -0.0271 -0.2049  0.1730
38254W        W94495  34.356  22.686  24.639 -0.0103  0.2030  0.0214
38255W        W94496  21.099  23.465   7.511  0.0441 -0.2678 -0.0006
38256W        W94497  20.974  28.002  23.111 -0.0426 -0.0643 -0.2759
38257W        W94498  17.409  19.765   1.833  0.1354  0.2367 -0.1243
38258W        W94499   6.255  17.949   4.544  0.2788 -0.3148 -0.2635
38259W        W94500   3.522  22.255  19.349  0.0025 -0.0322  0.2722
38260W        W94501  33.727   0.796   3.853  0.2112  0.1660 -0.0271
38261W        W94502  30.717   1.864  15.127 -0.0375  0.0541  0.0740
38262W        W94503   6.156   0.869  23.280  0.0902  0.0531 -0.0134
38263W        W94504   9.758  19.433  13.467 -0.2469 -0.1707  0.0609
38264W        W94505  22.733   3.114   2.826  0.2374  0.2205  0.0758
38265W        W94506  15.147  19.380   1.239 -0.0501 -0.0186 -0.4513
38266W        W94507   5.660  14.146   5.987 -0.1247 -0.2712 -0.0923
38267W        W94508  33.417  29.156   3.384 -0.1261 -0.2875  0.0038
38268W        W94509  22.515  27.876  17.470  0.3497  0.0870 -0.3937
38269W        W94510   6.684  33.522   8.811  0.0583  0.4756  0.1048
38270W        W94511   3.199   1.179   6.765 -0.1615 -0.0996  0.1801
38271W        W94512   8.451  20.326  22.744 -0.2549  0.2663  0.0162
38272W        W94513  31.066   2.859  16.093 -0.2496  0.2151 -0.0897
38273W        W94514  21.096  23.100   4.782 -0.3761 -0.0873 -0.0206
38274W        W94515  10.239  19.189  14.976  0.0805 -0.0189 -0.2924
38275W        W94516   6.453  12.045   8.896 -0.0042  0.1199 -0.0832
38276W        W94517  14.212   5.374  12.478 -0.3630 -0.1568 -0.2095
38277W        W94518   0.347  13.343  25.788 -0.1478 -0.1132  0.2031
38278W        W94519  16.629  11.334   8.822 -0.0445  0.0094  0.0607
38279W        W94520  24.218  34.290  15.903 -0.2985 -0.1124  0.1142
38280W        W94521  23.033  31.086  12.114 -0.1083  0.0091  0.0935
38281W        W94522  20.327   9.658   9.291 -0.0172 -0.1432  0.0049
38282W        W94523  11.319  14.248   4.594 -0.0943 -0.0741 -0.0087
38283W        W94524  25.840  13.566   8.597  0.1326 -0.0189  0.1719
38284W        W94525  28.312  19.933  16.374  0.3401 -0.4236  0.0303
38285W        W94526  34.622  10.018  20.463 -0.2085  0.0457  0.0925
38286W        W94527  24.004   4.209  21.647  0.0727 -0.0442 -0.0982
38287W        W94528  30.356   0.101   4.679 -0.0944  0.0043 -0.0872
38288W        W94529  33.069  35.333   2.832  0.0139  0.1539 -0.1500
38289W        W94530  24.880  26.526  15.420 -0.2166  0.2236 -0.1332
38290W        W94531  16.392  25.151   6.896 -0.1582 -0.0235  0.2099
38291W        W94532  28.334  20.635  21.210 -0.2676  0.0484 -0.2413
38292W        W94533   7.330   9.067  20.799 -0.0722 -0.0707 -0.2208
38293W        W94534  29.917  17.380   4.646  0.0807 -0.1538 -0.1130
38294W        W94535  24.894   2.039   1.163  0.0554  0.1597  0.2156
38295W        W94536  12.688   1.856  19.863 -0.5946 -0.0753  0.0244
38296W        W94537  24.722   8.921   2.510 -0.1311  0.0581  0.0097
38297W        W94538  17.578   4.186  23.607 -0.1253 -0.0760  0.3862
38298W        W94539  17.050   2.335  18.100  0.1457  0.0591  0.1781
38299W        W94540  24.609   6.529  20.996  0.2762 -0.2437  0.2198
38300W        W94541  27.411  29.243  13.336 -0.2844 -0.2379  0.1432
38301W        W94542  14.696  29.076  24.451  0.3139  0.0213  0.2573
38302W        W94543  23.983   2.629   2.203 -0.0925 -0.1150  0.3087
38303W        W94544  15.149  33.736  20.561  0.2041  0.0095  0.0051
38304W        W94545  14.794  18.924  24.118 -0.0638  0.1764 -0.0409
38305W        W94546  17.092   5.173   3.609  0.0519 -0.2466  0.0200
38306W        W94547  27.031  25.619  20.362 -0.1527 -0.3144 -0.1267
38307W        W94548  32.075  15.440  13.317  0.0539  0.0458 -0.2210
38308W        W94549  33.251   6.474   3.221  0.4668  0.0701  0.1290
38309W        W94550  26.911  12.598  24.823 -0.0732 -0.3499 -0.0703
38310W        W94551   3.144  20.226   0.996  0.1961 -0.1424 -0.2515
38311W        W94552  23.902  25.902  17.900  0.3334  0.1047 -0.1068
38312W        W94553   6.122   3.708   5.617 -0.0927 -0.0178  0.3231
38313W        W94554   9.050   8.468   6.779  0.1699  0.2538  0.3076
38314W        W94555  26.732   7.075  24.679  0.0633  0.1237  0.3721
38315W        W94556  12.352  27.645   5.404  0.4170  0.2211  0.3460
38316W        W94557  28.446  12.651  21.209 -0.0330  0.1783  0.0620
38317W        W94558  26.551   4.376  22.432  0.1917  0.1139  0.1713
38318W        W94559  28.611  12.745  16.033 -0.0357  0.0745 -0.2304
38319W        W94560  21.602  13.007  16.373 -0.1272 -0.2742  0.1398
38320W        W94561   4.848  19.878  24.358  0.0042 -0.0256  0.2069
38321W        W94562  16.403  20.298  22.670 -0.0179  0.0735 -0.0682
38322W        W94563  24.652   6.978   4.417  0.2609 -0.1002 -0.4053
38323W        W94564  34.461   4.009   3.810  0.1827 -0.1458  0.1221
38324W        W94565  31.713  19.064  22.708 -0.1494  0.3086  0.1070
38325W        W94566  16.538   9.835   9.743 -0.2157 -0.2212 -0.1361
38326W        W94567   9.637   4.285  13.241 -0.0823 -0.2324 -0.1844
38327W        W94568  28.581  18.896   9.260  0.2170  0.2704  0.2496
38328W        W94569  16.612   1.199  10.862 -0.0700  0.2846 -0.1367
38329W        W94570  30.855  10.719  19.461 -0.0785  0.1133  0.1905
38330W        W94571   6.600  15.654   6.881 -0.2843  0.1069 -0.2139
38331W        W94572   6.136  31.872  23.822 -0.0726 -0.1681 -0.1870
38332W        W94573  22.912  17.450   1.172 -0.2806 -0.0388 -0.1852
38333W        W94574  18.939   2.689  24.600  0.2611  0.1394  0.1091
38334W        W94575  35.040   6.090   1.875  0.1927  0.0548 -0.2479
38335W        W94576  11.637  15.679   6.585  0.2648 -0.3437  0.0182
38336W        W94577  15.061  30.258   8.988 -0.1800  0.0751 -0.2854
38337W        W94578  13.370  21.258   0.062  0.1743  0.0976  0.1098
38338W        W94579  20.897  26.997  23.490 -0.0959 -0.0813 -0.3145
38339W        W94580  33.200   1.776  20.396  0.0217 -0.1117 -0.0192
38340W        W94581  29.548  33.281  19.864 -0.0378 -0.2900 -0.0568
38341W        W94582   9.621  12.819  12.715 -0.0951 -0.1887  0.0189
38342W        W94583   6.096  28.113   4.049  0.2902  0.1359  0.0875
38343W        W94584  16.537   8.686  23.042 -0.0073  0.3104 -0.1603
38344W        W94585  16.579  34.427  23.653 -0.0028 -0.1279  0.2420
38345W        W94586   1.064   8.883  25.376 -0.0626 -0.2464 -0.4064
38346W        W94587  19.711  19.160  19.478 -0.0664  0.2822  0.0797
38347W        W94588  25.608  20.597  25.550 -0.4738  0.0478  0.2345
38348W        W94589  30.872  11.175  23.260 -0.1020  0.1024  0.1146
38349W        W94590  35.362   9.120   1.930  0.1230 -0.1124  0.0558
38350W        W94591  26.429   2.082  21.471  0.1202 -0.0166  0.0039
38351W        W94592   9.904  26.253   2.689  0.3237  0.1480  0.0365
38352W        W94593  16.694  26.449   0.556  0.5015 -0.0856 -0.1050
38353W        W94594  28.884  31.577  11.732  0.1019 -0.2736  0.0159
38354W        W94595  20.181   8.498   5.370 -0.3737 -0.0376  0.0153
38355W        W94596  25.669  25.878   1.117  0.0512  0.0973 -0.0780
38356W        W94597  17.587  16.935   1.854  0.0836 -0.3255  0.1519
38357W        W94598  15.382   5.007  20.050  0.0111 -0.1289 -0.1123
38358W        W94599  32.763   1.941   3.012  0.3445 -0.0068  0.0476
38359W        W94600   5.060  11.607  20.282  0.1396 -0.0286 -0.1384
38360W        W94601  11.827  17.255  10.216 -0.0365  0.0201 -0.1838
38361W        W94602   9.172  21.312   6.098 -0.3285  0.0691 -0.0275
38362W        W94603  29.562   1.169   0.364 -0.0707 -0.1487 -0.1230
38363W        W94604  23.271   3.616  21.868 -0.1148 -0.1287 -0.0842
38364W        W94605   0.797   6.196   0.511 -0.1053 -0.1452 -0.5397
38365W        W94606  26.370  17.843  18.705  0.1572  0.0974  0.2896
38366W        W94607  28.696  27.675   1.189  0.3518 -0.2669 -0.0507
38367W        W94608   1.494  30.858   4.768  0.0515 -0.0409 -0.1149
38368W        W94609  28.380  19.099   6.554 -0.0005  0.1262 -0.3560
38369W        W94610  14.697  31.401   6.736  0.0472 -0.1085 -0.4207
38370W        W94611  11.199  25.961   4.150 -0.1009 -0.1108 -0.1931
38371W        W94612  21.255  18.996  25.742 -0.0110 -0.0156  0.0571
38372W        W94613   8.750   9.491   9.163  0.1736 -0.0402 -0.4832
38373W        W94614   7.552  35.024  25.849  0.1041  0.2594 -0.0922
38374W        W94615  21.971   2.431  18.303 -0.1934 -0.0606 -0.3477
38375W        W94616  32.154  16.470  15.292  0.0024 -0.0289  0.0016
38376W        W94617  34.937   2.932  13.147 -0.0752 -0.0534 -0.1392
38377W        W94618  29.878  34.633   5.177 -0.0847  0.0677  0.0871
38378W        W94619  12.527  10.674   6.595  0.0748  0.3052 -0.0836
38379W        W94620  10.571  20.474   5.877 -0.0294 -0.0611  0.0855
38380W        W94621  21.873   2.440  21.273  0.2467 -0.0828  0.0886
38381W        W94622  15.424  18.850  10.056 -0.3481  0.0940  0.1902
38382W        W94623   3.947  19.790  25.240  0.1725  0.1115  0.0202
38383W        W94624  34.800  24.471  24.451 -0.2492 -0.0227  0.2602
38384W        W94625  31.456   5.849   1.793 -0.0237 -0.0055 -0.2043
38385W        W94626   1.627  18.299  19.344  0.2018 -0.0861  0.2958
38386W        W94627  27.891  29.172  23.426  0.2468  0.4345  0.2485
38387W        W94628  28.630  30.273  17.607 -0.1531  0.0492 -0.0288
38388W        W94629   9.673  12.514  21.689  0.0695  0.1548  0.2209
38389W        W94630  22.068  34.536  15.167  0.1568  0.3620 -0.1217
38390W        W94631   5.160  13.074   5.785  0.2003 -0.0070  0.1218
38391W        W94632   9.915   2.686  12.725 -0.0767 -0.0887  0.1520
38392W        W94633  20.292  10.716   8.056  0.1400  0.0852  0.0588
38393W        W94634  26.134  20.176  16.857  0.0887  0.1146  0.0350
38394W        W94635   6.799   5.067  10.982 -0.0369 -0.0633 -0.1057
38395W        W94636  10.220  21.062   1.373 -0.0658  0.2473 -0.0204
38396W        W94637   6.611  16.604  18.737  0.0444 -0.1204  0.2365
38397W        W94638  20.097  23.440   6.397 -0.0832  0.1898  0.1645
38398W        W94639   0.405   3.845   5.786  0.2775  0.0718  0.0788
38399W        W94640  27.692  29.428  16.053 -0.1575 -0.1160  0.2287
38400W        W94641  29.579  21.319   9.850 -0.1161  0.0931  0.1054
38401W        W94642  22.374  32.678   2.738 -0.0827 -0.2428  0.3643
38402W        W94643  25.465   0.819  25.890 -0.1867 -0.0111  0.2172
38403W        W94644  11.566   9.960   5.008  0.1550 -0.1672 -0.2436
38404W        W94645   8.936  21.406  23.113  0.0540 -0.0072 -0.0787
38405W        W94646  22.140   2.241  15.422 -0.2803 -0.3081 -0.3028
38406W        W94647   7.953   9.470  11.721  0.1141 -0.0711 -0.1388
38407W        W94648  11.952  33.488   2.778 -0.1233 -0.1941  0.0096
38408W        W94649  22.021  33.563  24.149  0.1731 -0.0528 -0.2018
38409W        W94650  34.436  17.113   8.682 -0.0974  0.0512  0.2715
38410W        W94651  22.317   4.240  25.920 -0.5162 -0.0499 -0.0187
38411W        W94652   0.285  13.977  22.991 -0.2962 -0.0151 -0.0894
38412W        W94653  25.367   7.558  15.339  0.2038  0.1381 -0.0909
38413W        W94654  21.845   6.368  18.097  0.0463 -0.0975 -0.0194
38414W        W94655   8.931   2.525  22.466 -0.0806  0.0192 -0.1570
38415W        W94656  27.081  29.723  25.613  0.1934  0.4357 -0.1315
38416W        W94657  29.221   1.082  15.123  0.3492  0.2058  0.2709
38417W        W94658  11.093  11.382   9.786 -0.4275  0.0998 -0.1447
38418W        W94659   7.462  22.131   7.141 -0.1437 -0.1651 -0.1746
38419W        W94660  16.629   9.523  23.648  0.1753  0.1723  0.0728
38420W        W94661   7.128  20.019  22.243  0.2306  0.1162 -0.2241
38421W        W94662  34.805  29.198  26.221 -0.5374 -0.1406 -0.0196
38422W        W94663  26.313   2.363  22.486 -0.2739  0.3139  0.2007
38423W        W94664  16.410  22.791   5.391  0.0474  0.0386 -0.3353
38424W        W94665   2.147  27.201   0.328 -0.0698  0.2650 -0.0974
38425W        W94666  22.411  12.290   4.226 -0.2278 -0.0879  0.0613
38426W        W94667  14.562  13.041  11.932 -0.2286  0.1219 -0.1166
38427W        W94668   7.239   6.272   5.977 -0.0761  0.1286 -0.0263
38428W        W94669  27.968  20.255  18.249  0.0953  0.2119  0.0674
38429W        W94670  19.365  13.935  18.153 -0.1062  0.0258 -0.1941
38430W        W94671  25.391  30.044  14.895 -0.0013 -0.1487  0.0537
38431W        W94672   6.842  24.404  12.286 -0.2598  0.2584  0.4184
38432W        W94673  14.511  21.194   9.176  0.0703  0.0166 -0.0574
38433W        W94674   8.730  31.815   2.504  0.1861 -0.1720  0.1894
38434W        W94675   5.862  23.161   4.371  0.0699  0.0017  0.1717
38435W        W94676  13.562  21.629  13.258  0.1188 -0.0768 -0.2242
38436W        W94677   0.089   4.890   6.772 -0.0508 -0.1454  0.2722
38437W        W94678  31.687  35.029  24.278  0.3285 -0.1133  0.0834
38438W        W94679  17.690   1.093   2.966  0.0508  0.1745 -0.0956
38439W        W94680   7.579   5.376  23.012  0.0102  0.2728 -0.1102
38440W        W94681  20.506  27.715   5.569  0.0919 -0.2917  0.3040
38441W        W94682   4.868  13.975  24.426 -0.0235 -0.0257 -0.1797
38442W        W94683  15.508   0.662  18.334  0.2369 -0.1220 -0.3290
38443W        W94684  10.986  30.734  24.542 -0.2928  0.1735 -0.1261
38444W        W94685  16.711  32.250   3.322  0.2686  0.2131  0.2235
38445W        W94686  28.655  29.284  22.432 -0.1564  0.0114 -0.0781
38446W        W94687   5.495  33.890   7.555 -0.0724  0.0960  0.0191
38447W        W94688   0.609  20.508  23.574  0.2152  0.0155 -0.1881
38448W        W94689  31.382   6.807  20.106 -0.0903 -0.0955 -0.1954
38449W        W94690  34.406  32.719   4.606  0.0972 -0.0561 -0.0487
38450W        W94691  29.263  17.824  18.136 -0.2148 -0.0898  0.1391
38451W        W94692   2.386  10.342  18.301  0.3040 -0.2353  0.2635
38452W        W94693  21.921   5.314  24.112 -0.3019  0.3301  0.0325
38453W        W94694  28.050   1.362  24.876  0.0651  0.0513 -0.0460
38454W        W94695  16.851  23.593   4.367  0.2845  0.1382 -0.0441
38455W        W94696  22.931   5.164  21.637 -0.0382 -0.0234  0.0154
38456W        W94697  21.996  10.682   4.450 -0.1026 -0.0514  0.1042
38457W        W94698  13.936  32.456  20.911 -0.0066  0.2548  0.0038
38458W        W94699   7.868  20.077  11.713  0.0298  0.0696  0.1245
38459W        W94700  19.208   6.105  10.672  0.2836  0.1129 -0.0863
38460W        W94701  30.833   9.616  13.455  0.2721  0.2663 -0.0993
38461W        W94702  26.499  33.660   1.377  0.1932  0.2316 -0.0034
38462W        W94703  21.436  26.799  17.481  0.0072  0.3037 -0.1583
38463W        W94704  21.396  35.313  22.714 -0.1314 -0.0596  0.0992
38464W        W94705  14.569  20.702  10.563 -0.0831  0.1929  0.2037
38465W        W94706  13.889  17.659   8.968  0.2800 -0.0749  0.0981
38466W        W94707  21.160  16.707  25.360  0.3076  0.0855 -0.0500
38467W        W94708  11.639  26.920   0.371 -0.2135 -0.1996 -0.1826
38468W        W94709  27.990  30.656  10.747  0.6393 -0.1324 -0.3072
38469W        W94710   9.394   4.145   4.175 -0.0892 -0.1900 -0.1197
38470W        W94711  31.356  27.617  23.929 -0.0840  0.2809  0.0574
38471W        W94712  17.233  27.301  22.845  0.3081 -0.1600  0.1442
38472W        W94713  12.168  13.969  21.680  0.0880 -0.0804  0.0913
38473W        W94714  26.222  17.169  23.968  0.0554 -0.0966  0.0061
38474W        W94715  30.442  13.441  14.466  0.1266 -0.1520 -0.1552
38475W        W94716   4.781  15.979   5.316 -0.0977 -0.3051  0.1270
38476W        W94717   0.782  10.420  14.825  0.2336  0.1080  0.1302
38477W        W94718  12.373  22.659  23.148  0.2130 -0.0469  0.0938
38478W        W94719  10.912   0.502  12.599 -0.0931 -0.3326 -0.0499
38479W        W94720  20.702  17.685  22.630  0.0173 -0.0043  0.0084
38480W        W94721  29.748  30.516  14.503  0.2971  0.0272  0.2400
38481W        W94722  33.684  24.205  19.260 -0.0529  0.1559  0.2074
38482W        W94723   6.692  12.597  19.065 -0.1519 -0.3082  0.1467
38483W        W94724   6.840  27.740  23.127  0.1207 -0.1319  0.1716
38484W        W94725   1.316  14.236   2.073  0.0246 -0.0037 -0.1011
38485W        W94726  19.329  19.430   6.696 -0.0978  0.0773  0.1172
38486W        W94727   8.354  29.597  17.220 -0.3020  0.0468  0.3046
38487W        W94728  13.384  29.749   6.397  0.1392  0.0321 -0.0819
38488W        W94729   6.377  13.980   8.824 -0.0195 -0.2118  0.1716
38489W        W94730  30.020  21.497  17.351  0.0421  0.0543  0.0438
38490W        W94731  29.116  20.219  16.136 -0.1312  0.0003 -0.2390
38491W        W94732   1.105  29.925  20.298  0.3379  0.0099  0.0273
38492W        W94733  27.094  26.228  19.375 -0.0208  0.1013 -0.2175
38493W        W94734   6.358  27.942  20.442  0.1212 -0.2734  0.2353
38494W        W94735  14.241   8.842  21.792 -0.2803 -0.3808  0.2543
38495W        W94736  12.463  10.487  21.658 -0.0654 -0.0059  0.0834
38496W        W94737  29.471  25.274  21.720 -0.3558 -0.1880 -0.0006
38497W        W94738  21.951  30.197   1.932  0.0000  0.1220 -0.2653
38498W        W94739  22.893  23.977   0.883  0.2166  0.1219  0.2245
38499W        W94740  20.355  29.895  16.436 -0.1123  0.4116  0.1634
38500W        W94741   9.658  30.785  22.742  0.2344 -0.1161 -0.1611
38501W        W94742   9.260  21.902  22.898  0.0954 -0.1009  0.4009
38502W        W94743   8.737  23.290  11.471  0.2516  0.1768 -0.2252
38503W        W94744  20.853   9.539   1.616  0.0960  0.2409  0.0045
38504W        W94745  25.022  29.179  11.648  0.2267 -0.2847 -0.0927
38505W        W94746  18.230  20.426   7.746  0.0405  0.1523  0.1551
38506W        W94747  12.647  11.666  21.140 -0.0176  0.2290 -0.0661
38507W        W94748  10.394  21.129  23.885 -0.2297 -0.1208  0.2343
38508W        W94749   8.057  13.599  20.405 -0.2881  0.2460  0.2813
38509W        W94750  34.636  26.029  16.310 -0.2059  0.0489  0.1342
38510W        W94751  13.848  19.486  14.817 -0.1449 -0.4129 -0.2746
38511W        W94752  31.347   4.531  20.695 -0.2279  0.0281  0.0681
38512W        W94753  30.592  23.327   8.731  0.2410 -0.1975  0.0095
38513W        W94754   5.630  28.944   2.569 -0.0347 -0.1051  0.0650
38514W        W94755  29.964  32.817  23.210  0.1430 -0.0045  0.0515
38515W        W94756  33.214  13.480  26.060  0.0630  0.1194  0.0423
38516W        W94757   2.258  26.967   7.262  0.3700  0.0816  0.1469
38517W        W94758  33.773  31.245   0.259 -0.0608  0.0797  0.5522
38518W        W94759   5.373  11.993  21.240 -0.0109 -0.0666  0.0205
38519W        W94760  13.031  16.355  12.585 -0.1246  0.2162  0.1871
38520W        W94761   6.219  27.417  13.185  0.1161  0.0248 -0.0644
38521W        W94762  23.108   3.866   7.960 -0.1713  0.0393 -0.1788
38522W        W94763  27.242  12.895  25.187  0.2460 -0.0081  0.1499
38523W        W94764  29.676  13.500   4.443 -0.0853  0.4206 -0.1602
38524W        W94765  27.188  22.271  17.555  0.2236  0.2149 -0.0773
38525W        W94766  19.120   1.491  20.922  0.1892 -0.4156  0.0169
38526W        W94767   2.564  20.145  14.181 -0.0825 -0.0831 -0.0848
38527W        W94768  17.723  29.966   3.683 -0.0817 -0.0142  0.2311
38528W        W94769  27.695   9.851  10.917  0.0481 -0.0486 -0.0710
38529W        W94770   0.130   2.138  25.291  0.2372 -0.1046 -0.1764
38530W        W94771  14.523  22.103  22.678 -0.1755 -0.0008 -0.0372
38531W        W94772  34.706  13.890  17.874  0.0116 -0.1003  0.1608
38532W        W94773  30.922  18.467  24.079 -0.0114 -0.0040 -0.2985
38533W        W94774  19.137  32.059  26.048  0.2337 -0.1131 -0.0316
38534W        W94775   3.443  18.598   3.933 -0.0687  0.2203 -0.2428
38535W        W94776  29.276   5.852  26.111 -0.4110  0.0889  0.0075
38536W        W94777  13.107   0.893  10.118 -0.0886 -0.3181 -0.2214
38537W        W94778  31.755  31.002  22.439 -0.1676  0.0963 -0.3158
38538W        W94779   3.808  31.083  21.892 -0.2506 -0.1701  0.0450
38539W        W94780   5.244  18.596  21.870  0.0097 -0.1883  0.0745
38540W        W94781   7.424   5.751  18.095  0.0996  0.1657 -0.0987
38541W        W94782  33.613  15.989  23.140  0.1598  0.1313  0.0952
38542W        W94783  29.024  13.150  22.526  0.1787 -0.0865  0.2220
38543W        W94784   9.867  27.943   3.041 -0.0886  0.2469  0.4882
38544W        W94785  19.902   7.581   8.351 -0.0009 -0.0124  0.2437
38545W        W94786  28.421  13.535   7.165 -0.2134 -0.0606  0.0088
38546W        W94787   8.800  30.016   4.419 -0.0083  0.2661 -0.1465
38547W        W94788  23.976  29.882  19.676  0.1491 -0.2318 -0.0715
38548W        W94789  28.512   6.151  23.798  0.1033 -0.0776 -0.1395
38549W        W94790   8.512  10.696   5.914  0.1173  0.0884 -0.0916
38550W        W94791  33.827   7.320  26.205  0.2567  0.1222  0.0315
38551W        W94792  16.714  28.404   3.196  0.0436  0.2509  0.2872
38552W        W94793  29.631  10.818   7.969 -0.0718  0.2340  0.2021
38553W        W94794  13.656  19.705   4.775 -0.0545  0.0015 -0.1052
38554W        W94795  35.054   7.669   1.611  0.1319  0.2008 -0.0498
38555W        W94796   2.090  16.392  10.596 -0.2558 -0.2277 -0.0498
38556W        W94797  33.389  29.592  22.943  0.1390 -0.0864  0.0788
38557W        W94798  12.213  12.582   0.353  0.2540  0.3474  0.0361
38558W        W94799  32.392  22.714  18.457 -0.2938 -0.0840  0.1607
38559W        W94800  30.016  28.204  25.156 -0.0308 -0.0657 -0.0804
38560W        W94801  34.074  17.179  17.806 -0.0244  0.0715 -0.1618
38561W        W94802  26.071   1.842  22.930  0.1480  0.1255 -0.0270
38562W        W94803  25.355   6.042  24.994 -0.0998 -0.2059 -0.0001
38563W        W94804  24.552  31.294  24.592  0.0579  0.2492  0.0662
38564W        W94805  28.511  27.727  15.798  0.1344  0.1761 -0.1652
38565W        W94806  15.416   0.098   9.371  0.0573 -0.3286  0.2207
38566W        W94807  33.928   9.365  14.003 -0.0095 -0.1664  0.0761
38567W        W94808  13.048   5.731   0.411  0.2590 -0.0831 -0.0687
38568W        W94809  29.836  20.486  11.055 -0.1018  0.2728  0.1691
38569W        W94810  18.038  20.294  22.339 -0.3146 -0.2573  0.0394
38570W        W94811  19.573  26.183   1.706  0.1369  0.1819 -0.3396
38571W        W94812  22.018  17.485  19.094  0.3016  0.0602 -0.4940
38572W        W94813   6.463   4.813   4.690 -0.3559  0.3426  0.2447
38573W        W94814   2.137   5.819   6.571  0.1755 -0.0388 -0.1220
38574W        W94815  31.449  16.348  24.365  0.1005  0.0144 -0.1182
38575W        W94816   9.618   2.030   9.983 -0.0303  0.0903 -0.1773
38576W        W94817  18.948   9.946  24.117  0.2685  0.2253  0.1407
38577W        W94818   1.759  30.436   8.226  0.1584 -0.0043  0.2374
38578W        W94819   7.021   9.095   7.849  0.0270  0.1273 -0.1836
38579W        W94820  32.185   9.813  16.290  0.0120  0.1575 -0.0667
38580W        W94821  16.250   2.501  22.343  0.0282 -0.0072  0.2624
38581W        W94822  14.194  24.036   9.399 -0.2784  0.0597  0.1072
38582W        W94823   4.216  14.997  22.633  0.0968  0.0106 -0.1061
38583W        W94824  18.782  12.936   8.615 -0.1225  0.0612 -0.0312
38584W        W94825  26.542  27.363  22.690 -0.1217 -0.0389  0.1522
38585W        W94826  30.704  30.196  20.308 -0.1753 -0.0893  0.0206
38586W        W94827  16.426   6.348  23.361  0.2362 -0.1011 -0.3458
38587W        W94828  24.273   9.376  13.758 -0.1695  0.2354 -0.0672
38588W        W94829  35.029   7.792  16.372  0.0455  0.0779 -0.0437
38589W        W94830  16.299  14.187   5.558 -0.3598  0.0159 -0.5710
38590W        W94831  15.732  26.953  10.579  0.0321 -0.1359 -0.2553
38591W        W94832  20.739  14.901  20.677 -0.0238  0.1444  0.3935
38592W        W94833  22.831  25.251  15.489 -0.1209  0.0594  0.1494
38593W        W94834  34.834  34.722   6.646 -0.1293 -0.0864  0.0372
38594W        W94835   2.990   3.985   0.230 -0.0955 -0.0261  0.1364
38595W        W94836  17.504   0.761   7.299 -0.0363  0.0099  0.2540
38596W        W94837   9.932   9.126  11.356 -0.0428  0.4089  0.0381
38597W        W94838  14.877   4.425  22.462  0.1483  0.0794 -0.0296
38598W        W94839  16.802  25.744  22.514 -0.1302  0.4295  0.1719
38599W        W94840  23.225   6.325  16.190  0.1379 -0.0707 -0.1887
38600W        W94841  29.136  17.361   8.442  0.2659 -0.1144  0.0116
38601W        W94842   4.749  28.528  10.906  0.1821 -0.2097 -0.2860
38602W        W94843  18.983  22.890   4.891 -0.0843  0.0435  0.0452
38603W        W94844   2.969  29.650  21.567  0.2486  0.0263  0.1310
38604W        W94845  26.654  17.240   0.296 -0.0693  0.1835 -0.2335
38605W        W94846  17.221   3.114   1.029 -0.0277 -0.2867  0.1802
38606W        W94847  10.091  14.362  20.918 -0.2962 -0.1493 -0.1110
38607W        W94848  13.116  30.616   4.313  0.0927 -0.1958 -0.0739
38608W        W94849  11.309  16.365   9.017 -0.1748  0.2199 -0.1537
38609W        W94850   8.766   1.372   4.632 -0.3405  0.1254 -0.1781
38610W        W94851   0.511  15.061  19.896  0.0773  0.2584 -0.0735
38611W        W94852  21.513  11.735   1.510 -0.1468  0.1640  0.2922
38612W        W94853  29.626   6.370   1.607  0.3079 -0.0729  0.1577
38613W        W94854  22.913  34.447  12.098 -0.0244 -0.0620 -0.0352
38614W        W94855  20.875  27.375  23.827  0.0486  0.1824 -0.2060
38615W        W94856   0.121  22.722   0.514  0.4557 -0.3237 -0.1650
38616W        W94857   6.917  33.154  19.743 -0.0381 -0.0147  0.3278
38617W        W94858   6.513  30.143  24.393  0.0869  0.2463 -0.0022
38618W        W94859  32.923  13.967   9.096 -0.2479  0.1330  0.1537
38619W        W94860  24.376  20.958  23.718  0.0013  0.0701 -0.2082
38620W        W94861   2.230  27.043   3.650  0.1156  0.2037 -0.1293
38621W        W94862   6.466   6.643   5.521  0.1257  0.0384 -0.0494
38622W        W94863  16.752   7.426   5.683 -0.3765  0.0204  0.2857
38623W        W94864  33.357  14.012  18.315  0.2878  0.1294 -0.0989
38624W        W94865  19.420   1.592   8.611 -0.3332 -0.1017  0.1167
38625W        W94866  25.980  31.171  19.632 -0.0393  0.0444 -0.2283
38626W        W94867  34.861  34.452  14.412 -0.2819  0.2853 -0.4875
38627W        W94868  18.048  13.500  24.555  0.0686 -0.0936  0.3009
38628W        W94869  14.222   6.511  10.784 -0.2100 -0.1126  0.1926
38629W        W94870   5.113  23.060  19.438 -0.2880  0.0789  0.4112
38630W        W94871  11.630  10.665  21.831  0.1641 -0.0120 -0.0929
38631W        W94872  12.459  34.275   3.661 -0.1656  0.0712 -0.1812
38632W        W94873  29.238  30.776  20.771  0.3719 -0.3689  0.0249
38633W        W94874  24.177   9.093  17.773 -0.2840  0.1105  0.2115
38634W        W94875  11.108  14.048  21.883 -0.3128 -0.3186 -0.1152
38635W        W94876  33.244  33.133  24.337  0.0717  0.0030 -0.1871
38636W        W94877  13.465   3.132   4.186 -0.0607  0.1648 -0.1563
38637W        W94878  10.244  24.822   2.617 -0.1600  0.0446 -0.3479
38638W        W94879  35.092  21.290   8.232  0.0455  0.0661  0.0060
38639W        W94880   4.111   7.090   1.514 -0.2390  0.0484 -0.1215
38640W        W94881  11.372  25.968  17.020 -0.0285 -0.0716  0.1039
38641W        W94882  22.197  10.685  20.415 -0.0702  0.6122 -0.3593
38642W        W94883   8.723  13.511   5.845  0.0033  0.0810 -0.1090
38643W        W94884  14.716  26.488   2.592 -0.2538 -0.1570  0.0617
38644W        W94885  22.781  17.490   0.702 -0.0384 -0.2247 -0.2800
38645W        W94886  16.272   1.886   7.826 -0.0414  0.1259 -0.1603
38646W        W94887  17.992   4.474   6.204  0.0054 -0.3293 -0.1586
38647W        W94888   1.113  28.674  18.705  0.0493  0.1682  0.2476
38648W        W94889   9.650   0.929   8.773  0.2116 -0.2160  0.1145
38649W        W94890  35.170  15.962  22.044  0.1300  0.3623 -0.0805
38650W        W94891   9.261   4.822  12.548 -0.0561  0.3194 -0.2429
38651W        W94892  14.208  10.573   6.349 -0.0639 -0.0270  0.0069
38652W        W94893  33.114  19.385   5.320 -0.1691  0.1013 -0.2458
38653W        W94894  27.772  22.620  22.671  0.1140  0.1690 -0.2234
38654W        W94895  14.193  30.694   1.729 -0.2469  0.1381  0.0750
38655W        W94896   0.255   4.587  12.954 -0.1827 -0.0372  0.0146
38656W        W94897   8.467   7.136  10.554  0.5032 -0.0479  0.1379
38657W        W94898  23.364  29.899  21.513 -0.3515 -0.1644  0.2474
38658W        W94899  27.283  34.422   5.389 -0.0546  0.1452 -0.0257
38659W        W94900   1.577  24.147  24.577  0.2064 -0.0412 -0.3548
38660W        W94901  34.052  13.302  13.259  0.0590 -0.1559 -0.0721
38661W        W94902  17.049  30.026  25.447  0.0670 -0.0346 -0.2350
38662W        W94903  26.694   8.722  24.990  0.2566  0.0338  0.2544
38663W        W94904  31.571  14.455  18.602  0.0155 -0.1984  0.2367
38664W        W94905  15.167  26.320  22.927 -0.1629 -0.2290  0.1780
38665W        W94906   4.812   9.265  18.229 -0.2954  0.1456  0.1631
38666W        W94907  32.020  31.867   7.679  0.0971  0.0120  0.2318
38667W        W94908   9.148  25.032  11.524 -0.0097  0.1034  0.0340
38668W        W94909   7.199   5.883  18.591 -0.1527 -0.3902 -0.3556
38669W        W94910  11.720  18.990   7.653  0.1912 -0.1869 -0.1592
38670W        W94911   4.915  11.865   3.338 -0.0343  0.0785 -0.2411
38671W        W94912  19.139  23.070  26.079  0.2926  0.0252 -0.0869
38672W        W94913  12.705  22.097  24.750 -0.0802 -0.0958  0.0394
38673W        W94914   3.380  31.091  10.351 -0.1035 -0.0391 -0.0044
38674W        W94915  18.579  13.369   6.771  0.1052 -0.1658  0.0608
38675W        W94916  16.318   6.783  22.051 -0.0244 -0.1532 -0.0704
38676W        W94917  11.875  21.625  10.530 -0.3947 -0.1575 -0.1695
38677W        W94918  16.213   8.139  24.575 -0.2243  0.3048  0.0264
38678W        W94919  30.584  34.887   2.942 -0.0663  0.0914 -0.1058
38679W        W94920   2.647   1.077   7.018 -0.2942 -0.2611  0.0529
38680W        W94921  10.506  15.487  22.166 -0.3850  0.0101  0.0592
38681W        W94922  19.246  13.293  22.178  0.0696  0.1090  0.0842
38682W        W94923  18.785  21.683   4.554 -0.0573  0.0918  0.1988
38683W        W94924   4.898  24.160   6.515  0.0521  0.0839 -0.0025
38684W        W94925  20.038  29.061   2.588 -0.1570 -0.1726  0.1598
38685W        W94926  26.936  26.156  15.164 -0.0211  0.0880  0.0192
38686W        W94927   4.441  24.333   9.449 -0.2294 -0.1498  0.3666
38687W        W94928  17.692  35.034   3.131  0.0360  0.0049 -0.0407
38688W        W94929  25.951  33.214  21.216  0.0809 -0.2871 -0.1605
38689W        W94930  30.999  32.813  19.662  0.1742 -0.2129  0.0449
38690W        W94931  11.572   3.582  21.451  0.1020 -0.1348 -0.0320
38691W        W94932  24.035  12.728  14.058 -0.1448  0.1987  0.0887
38692W        W94933  29.064   2.447  18.744 -0.1190 -0.3689  0.3774
38693W        W94934  27.551  10.647  13.463 -0.1805  0.0825 -0.2180
38694W        W94935  32.646  17.239   5.242 -0.2073 -0.3442 -0.3825
38695W        W94936   9.524   7.661  14.036  0.1118  0.0487 -0.0887
38696W        W94937  28.874  11.593  22.493 -0.2207  0.1022  0.1113
38697W        W94938  17.632  12.328   8.622 -0.0038  0.0374  0.0689
38698W        W94939   8.209  14.640  23.375 -0.0659 -0.2767  0.5996
38699W        W94940   0.244   5.220  14.948 -0.2595 -0.2300 -0.4634
38700W        W94941  18.445  33.480  17.920  0.2095 -0.0317 -0.1285
38701W        W94942  27.059  23.618  16.728 -0.1647  0.0386 -0.1193
38702W        W94943  29.194  32.256  19.349 -0.0224 -0.0483 -0.1547
38703W        W94944   0.337  10.485  19.426  0.2806 -0.3419 -0.0802
38704W        W94945  29.166  24.889   7.943  0.0160 -0.3502 -0.1344
38705W        W94946   6.650  20.696  20.707  0.0123  0.1552  0.4277
38706W        W94947  14.427  12.136  12.816  0.2441 -0.0160  0.1569
38707W        W94948  13.676   0.806  11.374 -0.2040  0.0380 -0.1739
38708W        W94949   9.382  11.796   3.973 -0.1434 -0.0023 -0.1309
38709W        W94950  34.730  11.443  17.933  0.1587  0.1175 -0.1203
38710W        W94951   5.295   5.458  24.792  0.0583 -0.0920  0.1293
38711W        W94952  24.756   6.200  24.340 -0.0641  0.1391  0.0782
38712W        W94953  22.426   0.864   6.968 -0.2262 -0.2610 -0.0573
38713W        W94954  19.701   7.803  18.551 -0.1987  0.0737 -0.0446
38714W        W94955  35.205  24.910  12.715 -0.1629 -0.2440  0.0902
38715W        W94956   3.017   7.538  20.142 -0.1315 -0.1669  0.0496
38716W        W94957   8.925  25.896   4.594 -0.1693  0.1414  0.1449
38717W        W94958   1.652   9.433   0.159 -0.0049  0.1070 -0.1010
38718W        W94959   0.172   9.993   1.216  0.0845  0.2197  0.0543
38719W        W94960   7.633   6.773  11.549 -0.0337  0.0312 -0.2868
38720W        W94961   6.252  34.336   0.938  0.1448  0.0999  0.1008
38721W        W94962  27.295   8.779  14.914 -0.0998 -0.2195  0.3306
38722W        W94963  34.446  19.290  20.848 -0.1828  0.0220  0.1735
38723W        W94964  14.734   6.182  22.814  0.2455 -0.3803 -0.2864
38724W        W94965  29.053   0.715  10.971 -0.1549  0.3472  0.1710
38725W        W94966  13.164   6.739   6.870 -0.2650  0.2170 -0.0697
38726W        W94967   2.341   3.499  22.319 -0.2358  0.2466 -0.0266
38727W        W94968   3.205   0.024   3.149 -0.3154  0.0938  0.0490
38728W        W94969  11.066  11.132   0.960  0.4978  0.0521  0.2896
38729W        W94970  16.561  13.138  21.423 -0.1934  0.0080 -0.2030
38730W        W94971   2.399  32.768   9.359  0.3259 -0.2084 -0.0519
38731W        W94972   1.899   1.609   1.478  0.3024 -0.1180 -0.0974
38732W        W94973  31.344  17.433  16.924  0.0942 -0.0263 -0.2045
38733W        W94974  15.840  12.409  10.786  0.1627  0.0162 -0.0083
38734W        W94975  31.814   6.446  11.140  0.0084 -0.1677 -0.0661
38735W        W94976   4.187   3.816   9.057 -0.0475 -0.1656  0.0920
38736W        W94977  20.505   1.679  21.110  0.2529  0.2076 -0.0177
38737W        W94978  19.857  29.586  19.669 -0.0296 -0.1317  0.4343
38738W        W94979  15.467  20.683   5.075 -0.3074  0.0662 -0.1968
38739W        W94980  13.905  21.909   8.143 -0.0516 -0.1871 -0.0882
38740W        W94981   2.992  30.934   2.507  0.1336  0.1896 -0.0248
38741W        W94982  14.781  17.982  24.765  0.0066  0.0032 -0.2381
38742W        W94983  13.167  28.520  21.620 -0.2638  0.1468  0.1334
38743W        W94984  32.828   9.376  10.126  0.2457  0.1605 -0.1687
38744W        W94985  32.376  13.988  23.673  0.2486  0.2439 -0.0825
38745W        W94986  16.985  21.851  10.737 -0.1832  0.0398  0.0525
38746W        W94987  31.783  29.895  20.980  0.0618 -0.0990  0.1640
38747W        W94988  16.979   1.382  21.511  0.1028 -0.0399 -0.0232
38748W        W94989  31.358   2.425   1.571 -0.1018 -0.1522  0.2671
38749W        W94990   9.502   9.350  11.657 -0.1179  0.0828 -0.0717
38750W        W94991  12.082  25.787   3.090 -0.2450 -0.2446  0.0548
38751W        W94992  32.903   4.649   4.228  0.1264 -0.2688  0.1891
38752W        W94993   7.659  30.942  13.236 -0.1763  0.0635 -0.2232
38753W        W94994   0.186  15.141  16.664 -0.0120  0.2244 -0.0919
38754W        W94995  34.865   4.716  13.991 -0.0275 -0.3463 -0.1519
38755W        W94996  20.024  29.136   1.639  0.0071 -0.1037 -0.0290
38756W        W94997  17.039  19.045  22.626  0.1110 -0.0817 -0.0930
38757W        W94998   3.400  29.574  20.149 -0.0557  0.1575  0.1300
38758W        W94999  15.895   4.341  18.129  0.1244 -0.0144 -0.3000
38759W        W95000  25.421  17.000   0.248  0.1659  0.0917  0.0414
38760W        W95001  27.210   3.256  24.065 -0.0756  0.0361  0.1258
38761W        W95002  12.285  11.411  20.851  0.4197 -0.2512  0.1970
38762W        W95003  18.912  10.054   0.372 -0.2448  0.0034 -0.1885
38763W        W95004  11.282  28.534  16.009 -0.0505 -0.5280  0.0020
38764W        W95005  27.684   7.741  20.070 -0.3120  0.1896  0.0660
38765W        W95006  34.521  14.560  25.151 -0.1096  0.2386 -0.2396
38766W        W95007  17.188   5.149  23.679  0.2587  0.0973  0.4160
38767W        W95008  34.333  23.098  23.226  0.0848 -0.0011 -0.1109
38768W        W95009  34.110  34.151   7.499  0.3036  0.2816  0.1877
38769W        W95010  28.438  17.132  25.542 -0.0256  0.0868  0.0754
38770W        W95011  24.082  18.627  14.325  0.0584  0.1817 -0.0227
38771W        W95012  29.012  35.207   0.821  0.1406  0.0853  0.1000
38772W        W95013  32.733   5.752  18.250  0.0985 -0.0320 -0.0179
38773W        W95014   9.744   5.646  24.307 -0.0466  0.0048  0.0591
38774W        W95015  17.203  16.292  24.932 -0.0673  0.1232 -0.0180
38775W        W95016  31.960   7.229  19.210 -0.0135 -0.2869 -0.1679
38776W        W95017  10.776  31.042  23.885  0.0009 -0.0342 -0.2368
38777W        W95018  28.654   8.122  16.132  0.0738 -0.0799 -0.0642
38778W        W95019  29.929  16.803  16.444  0.0930 -0.4367 -0.0104
38779W        W95020   6.631  33.811   2.588  0.0486 -0.2416  0.1411
38780W        W95021  24.914   2.903  23.783  0.1864 -0.1832 -0.3000
38781W        W95022  12.239  30.564   7.823 -0.0819 -0.0741 -0.1565
38782W        W95023  21.952  31.815  21.518 -0.2461  0.0388 -0.4459
38783W        W95024   2.029  18.018  21.388  0.1322 -0.2491 -0.0951
38784W        W95025  10.524  13.911  10.549 -0.1186 -0.4898  0.4388
38785W        W95026   7.777  10.432  23.772  0.0535 -0.1877  0.1915
38786W        W95027  24.920  22.827  13.559 -0.2115 -0.1182  0.4004
38787W        W95028  35.134  28.720  20.494 -0.0221  0.0571  0.0064
38788W        W95029  18.665   2.690  25.794  0.1123  0.0680 -0.2969
38789W        W95030  24.048   3.093  18.803 -0.0757  0.3698  0.0400
38790W        W95031   3.574  26.918  22.015  0.1696  0.0135  0.0670
38791W        W95032  26.745  32.255  23.147 -0.0015  0.1870  0.1728
38792W        W95033  11.367  31.191  10.574 -0.3542  0.1952 -0.0704
38793W        W95034  34.861  10.124   0.647 -0.3052  0.1001 -0.0024
38794W        W95035  13.219  31.802  24.968  0.1298  0.0974 -0.2484
38795W        W95036  34.093  17.351  17.102 -0.1234  0.1440 -0.1115
38796W        W95037   6.954  31.006   7.420 -0.0571  0.1199  0.1385
38797W        W95038  13.259  17.619   5.063 -0.1348 -0.0658 -0.0266
38798W        W95039  23.987  14.865  18.823  0.1580 -0.1465  0.1472
38799W        W95040   9.663  31.125   8.076  0.1467 -0.2089 -0.0076
38800W        W95041  25.108  11.883  18.052  0.3511  0.3323  0.0020
38801W        W95042   6.985   9.740  19.674 -0.0424  0.0401  0.0434
38802W        W95043  34.654   4.583   0.575  0.1913  0.0329  0.1930
38803W        W95044   1.403  11.695  23.723  0.1203 -0.1142 -0.4867
38804W        W95045  25.956  34.233   0.362  0.1537  0.1095 -0.1457
38805W        W95046   9.187  16.277  10.742 -0.1104 -0.0636 -0.4611
38806W        W95047  11.630   6.568  21.195 -0.1408 -0.1317  0.0400
38807W        W95048   7.485  22.371  24.241 -0.0384 -0.1331 -0.2044
38808W        W95049  28.025  10.353   7.198  0.0041  0.1500 -0.1607
38809W        W95050  13.756   4.850  26.107  0.1685  0.1843 -0.0101
38810W        W95051  15.609  16.712  19.855  0.1040  0.1207 -0.2975
38811W        W95052  26.582  24.202  14.509  0.2152  0.0604 -0.0355
38812W        W95053  23.406   0.978  18.108 -0.1113 -0.0831  0.0518
38813W        W95054  16.684   1.864  17.736 -0.2523 -0.1612  0.2452
38814W        W95055  11.968  16.247   8.321  0.0098 -0.1158 -0.1522
38815W        W95056   1.696   5.417   5.900 -0.0711  0.0177 -0.1913
38816W        W95057  12.278  14.390  23.778 -0.0465 -0.0131  0.1133
38817W        W95058  13.881  16.776  12.537  0.3659  0.0499 -0.0633
38818W        W95059  19.265  13.449  18.047  0.1238 -0.0353 -0.1990
38819W        W95060  33.086  20.172  23.077  0.1069 -0.0917 -0.1465
38820W        W95061  27.717  12.409  13.260  0.2477 -0.1506 -0.1182
38821W        W95062  34.244  24.534  10.178  0.3715 -0.0338 -0.0310
38822W        W95063  17.809  18.022  24.977 -0.1135 -0.0960  0.1508
38823W        W95064  30.454   3.620   0.494  0.0094 -0.1097 -0.1902
38824W        W95065   8.870  11.701  20.352 -0.3293  0.1773  0.0436
38825W        W95066   5.479  12.719   9.479 -0.0652  0.0368  0.4076
38826W        W95067  33.174  15.264  10.899 -0.2952 -0.3125  0.1348
38827W        W95068  25.002  23.340  10.350 -0.0046 -0.0483 -0.0504
38828W        W95069   2.864  22.764   1.517  0.0880 -0.2320  0.1229
38829W        W95070  34.788  16.350  21.648  0.1882 -0.1461 -0.0597
38830W        W95071  27.054  28.040  22.887  0.2273 -0.0457 -0.0334
38831W        W95072  20.553  14.048  26.079  0.0298 -0.0179 -0.0425
38832W        W95073   9.597  19.102   8.257  0.0568  0.2363 -0.1637
38833W        W95074  25.253   3.837   0.851  0.0845  0.0777  0.1098
38834W        W95075  17.740   7.905  20.793  0.2744  0.0486 -0.0867
38835W        W95076  20.522  16.925   0.605 -0.1224 -0.0522 -0.1672
38836W        W95077   0.803  21.764  11.001 -0.0231  0.0634  0.0454
38837W        W95078  18.883  14.179  10.306  0.0268  0.0840  0.3149
38838W        W95079   2.505  10.576   0.203 -0.0182  0.1221  0.0291
38839W        W95080   9.818  26.454  16.974 -0.1317 -0.0404 -0.1614
38840W        W95081  29.505  22.782  22.790  0.4209  0.0143  0.0633
38841W        W95082  31.242  24.328  20.752  0.1765  0.1604  0.1931
38842W        W95083  26.082  14.030  11.149 -0.0553  0.3240  0.0423
38843W        W95084   0.529  19.340  18.292 -0.0400  0.2625 -0.0879
38844W        W95085   7.146   5.083   2.972  0.1336  0.1716  0.3397
38845W        W95086  31.163   6.662  21.049  0.1327  0.0409  0.3882
38846W        W95087   6.801  25.831  24.117  0.1841  0.2390  0.1759
38847W        W95088   2.138   9.355   6.691 -0.0657 -0.4267 -0.1082
38848W        W95089   3.034   4.436  16.386 -0.1075 -0.0657 -0.1896
38849W        W95090   5.240  28.891   5.608  0.1331 -0.3022  0.1601
38850W        W95091  33.774   5.666  13.948  0.1571 -0.3365  0.2483
38851W        W95092   3.101  11.493  14.337  0.2207  0.1973  0.3916
38852W        W95093  13.399  32.446  13.452  0.1851  0.1823  0.2586
38853W        W95094   4.532  13.656  26.112 -0.0131 -0.0671 -0.0510
38854W        W95095  13.551  32.656  12.666  0.2586 -0.1295  0.0515
38855W        W95096   9.727  15.711  21.054  0.0718 -0.0324 -0.2855
38856W        W95097   6.016  33.062  20.820  0.0264  0.0190  0.1709
38857W        W95098  24.638  25.964   9.688 -0.2183  0.2838  0.0291
38858W        W95099  18.397  10.383   7.212 -0.0531  0.1961 -0.1470
38859W        W95100   8.324  11.924  25.610  0.0480 -0.0907  0.0281
38860W        W95101  27.427  28.283  23.321 -0.1363 -0.0499  0.0066
38861W        W95102  10.341  22.981   7.267 -0.0728  0.0035  0.2659
38862W        W95103  16.167   3.063  11.648  0.0559 -0.2183 -0.1250
38863W        W95104  23.308  27.616  14.780 -0.1625  0.4934 -0.0518
38864W        W95105   0.170  26.047  19.424 -0.0081  0.1166  0.0322
38865W        W95106  32.474  26.976   1.507  0.0982  0.1383 -0.2414
38866W        W95107   7.499   3.250  23.925  0.3923  0.1609 -0.0145
38867W        W95108  25.679  27.383  21.560 -0.1674 -0.1258  0.2520
38868W        W95109  33.808  23.747  14.478  0.2254 -0.0505  0.1619
38869W        W95110  10.823   9.192  13.947 -0.2382 -0.3184  0.1279
38870W        W95111   8.548   8.321  19.787  0.1579  0.3233  0.0187
38871W        W95112   2.080  23.730  21.672  0.1231  0.3901  0.3091
38872W        W95113  14.873   7.939  22.859 -0.1300  0.2333 -0.0638
38873W        W95114  30.130  20.047  14.839 -0.3079 -0.2839  0.3656
38874W        W95115  19.727  13.064  23.754 -0.1091 -0.0810 -0.1538
38875W        W95116  23.227  14.710  25.879 -0.2012  0.1648 -0.1143
38876W        W95117   2.883  13.427  21.551  0.0216 -0.1839  0.1028
38877W        W95118   0.509  30.370   7.568  0.3219  0.1508  0.1855
38878W        W95119   9.632  33.776   4.393 -0.0279  0.1539 -0.0241
38879W        W95120  23.502   1.092   1.053  0.0367 -0.1285  0.1132
38880W        W95121   1.309  12.335  13.015 -0.3450  0.1189 -0.0023
38881W        W95122   0.349  23.408  23.634 -0.0271 -0.0576  0.0403
38882W        W95123  17.276   0.963   0.540  0.3129 -0.0981 -0.1802
38883W        W95124   6.318   8.304   0.074  0.1107 -0.0204  0.1012
38884W        W95125  29.520   2.404   3.059  0.3446 -0.1767 -0.0116
38885W        W95126  11.350  29.553   6.748  0.0569 -0.1173 -0.1910
38886W        W95127   0.959   1.236   3.535  0.2038  0.0124 -0.2669
38887W        W95128  30.202  26.690   8.766  0.1948 -0.2448  0.0885
38888W        W95129  22.273  22.490   2.834 -0.1424  0.1575 -0.0019
38889W        W95130  22.892  34.422  24.933 -0.1490 -0.0073 -0.0271
38890W        W95131  11.129   2.188   3.386 -0.1028 -0.2612 -0.0168
38891W        W95132   5.429  20.243  19.363 -0.0176 -0.1875  0.0927
38892W        W95133  20.327  27.923  23.621  0.0899  0.1636  0.4570
38893W        W95134   0.595   4.794   6.111 -0.1600 -0.1753 -0.2062
38894W        W95135   9.756  30.406  16.465  0.0520 -0.1547 -0.0355
38895W        W95136  24.361   0.596   4.518 -0.1855 -0.1075  0.0810
38896W        W95137  11.692   4.617  25.873 -0.1534 -0.0510 -0.0261
38897W        W95138   2.219  10.651  21.095  0.0547  0.2212  0.0192
38898W        W95139  31.278  33.339   2.356 -0.2284 -0.2779 -0.1205
38899W        W95140  17.867  10.752  11.164  0.0481  0.2129 -0.0418
38900W        W95141  31.514   0.197  24.914 -0.0780  0.2754 -0.2416
38901W        W95142  29.110  30.265  11.527 -0.1106 -0.0599  0.2777
38902W        W95143  22.319   9.458  22.381  0.2025 -0.0358 -0.1753
38903W        W95144  12.136  19.802   6.415 -0.2765 -0.2421  0.0352
38904W        W95145  26.581   5.010  20.527  0.0399  0.0888 -0.2262
38905W        W95146  10.500  26.338  10.075 -0.0805 -0.0515 -0.1129
38906W        W95147  12.468  27.654   3.435 -0.2728  0.0730  0.1011
38907W        W95148  13.118  10.924   3.921  0.1408  0.0593  0.3065
38908W        W95149  14.349  20.157  11.742 -0.2140 -0.0790  0.4226
38909W        W95150   9.556  27.260  10.577 -0.1138 -0.2580 -0.2020
38910W        W95151  15.953   5.429  18.530 -0.0997  0.3159 -0.4477
38911W        W95152  33.975   6.145  24.238 -0.2548 -0.0709  0.1665
38912W        W95153   2.506  16.472  16.454  0.0126  0.0298 -0.0350
38913W        W95154  27.837   4.539   1.479 -0.0955 -0.0488 -0.1824
38914W        W95155  34.700  28.435   3.102  0.1616 -0.2014 -0.2267
38915W        W95156  32.518  32.051   1.712 -0.0686 -0.1795  0.1220
38916W        W95157  26.433  31.438  24.872 -0.0832  0.0892  0.2913
38917W        W95158   6.786  25.580  21.956  0.5531 -0.4039  0.0936
38918W        W95159  23.560  13.267  24.717 -0.1842  0.1883  0.0076
38919W        W95160   0.351  32.302   1.894  0.0486  0.0726  0.0437
38920W        W95161  14.272  18.781   3.740 -0.3487 -0.0396  0.0765
38921W        W95162  11.521  24.734   3.872  0.0309 -0.2056 -0.1309
38922W        W95163  24.811   7.270  20.302 -0.1619 -0.0137 -0.1113
38923W        W95164  26.331  31.166  23.991  0.2795 -0.2865 -0.1192
38924W        W95165  25.706  16.505   0.203 -0.1410  0.1627  0.4471
38925W        W95166  26.299  34.569  14.018  0.2156 -0.2427  0.0260
38926W        W95167   7.348  34.680  13.407  0.4184 -0.0318 -0.0094
38927W        W95168  25.339  21.651  10.330 -0.1174  0.1849 -0.0205
38928W        W95169  23.685  14.847  22.475  0.2289  0.1930 -0.4459
38929W        W95170  26.196   2.561  18.707 -0.1664 -0.0040 -0.0149
38930W        W95171  23.954  19.854  13.927 -0.0365  0.0988  0.0442
38931W        W95172  21.097   6.576  23.472 -0.1854 -0.0300  0.3140
38932W        W95173  29.483   6.932  18.734  0.0883  0.0235 -0.0844
38933W        W95174  33.142  25.460  20.820  0.0875 -0.0054 -0.0500
38934W        W95175  22.804  22.600  24.687 -0.2304  0.0746 -0.0645
38935W        W95176  10.687   3.553  12.940  0.0526  0.0565  0.1672
38936W        W95177   2.462  17.805   0.447  0.1118  0.0579 -0.3782
38937W        W95178   7.924  15.816  17.984  0.0942  0.1494  0.0334
38938W        W95179  32.262  13.989  18.498 -0.1958  0.1984  0.0709
38939W        W95180  18.454   2.399  25.430 -0.1894  0.0140  0.2104
38940W        W95181  25.682   2.921   6.311  0.1369  0.0482  0.1080
38941W        W95182  14.372  15.850  12.649 -0.1892 -0.0656 -0.1190
38942W        W95183  14.564   8.834  25.989  0.2888 -0.0130 -0.1421
38943W        W95184  10.202  33.433  14.523 -0.0339  0.0842 -0.3095
38944W        W95185  32.558   6.467   0.380  0.2842  0.1596 -0.1338
38945W        W95186  11.751  15.280  11.370 -0.1435  0.1835 -0.0746
38946W        W95187  20.715  15.672   1.383 -0.2133  0.1741 -0.1700
38947W        W95188  33.150  14.704  23.754  0.1073  0.3039 -0.3264
38948W        W95189  32.329   6.376  23.958  0.1918  0.1061  0.0776
38949W        W95190  26.175  26.212  20.694 -0.0792 -0.0457 -0.1577
38950W        W95191  33.634   5.872   2.974  0.4639  0.0313  0.1375
38951W        W95192  12.775  31.704   6.980 -0.2218  0.1140 -0.0960
38952W        W95193  19.726  11.325  16.434 -0.2369  0.3995  0.1018
38953W        W95194  18.044  18.723   9.582  0.0302 -0.0396  0.1534
38954W        W95195  22.558  34.521  16.885 -0.1916 -0.3556 -0.3626
38955W        W95196   8.939   7.382  19.400  0.2893  0.3695  0.1969
38956W        W95197  34.503  12.468  25.467 -0.0135  0.0005 -0.0484
38957W        W95198  19.381  27.265  18.910 -0.1607 -0.0075  0.0068
38958W        W95199  29.142   3.999  14.719  0.2300 -0.0225 -0.0992
38959W        W95200  28.515   8.948  12.912 -0.0297  0.5906  0.1324
38960W        W95201   7.676  28.764  24.094  0.2962  0.1074 -0.3341
38961W        W95202   7.928  11.779   9.637  0.0181 -0.0312  0.2739
38962W        W95203  14.645  29.247  10.202  0.3008 -0.0042  0.0340
38963W        W95204  29.023   3.945  22.804  0.1804 -0.3802  0.0633
38964W        W95205   7.678   5.176  19.700  0.1098  0.1041  0.0639
38965W        W95206   5.406   6.980  19.722  0.1527 -0.1864 -0.0824
38966W        W95207  15.253  20.227   9.643  0.3092  0.1251 -0.2681
38967W        W95208  28.504  20.810  16.608 -0.0264 -0.2531  0.2059
38968W        W95209  15.449  23.301  13.089  0.0452  0.0875  0.2375
38969W        W95210  33.136   2.062  25.769 -0.1049  0.3142  0.0826
38970W        W95211  18.311  29.351   2.800 -0.0259 -0.1056  0.0505
38971W        W95212   8.085   1.140   7.011 -0.0880 -0.2282  0.1357
38972W        W95213   7.806  10.925  10.712  0.0317  0.2887 -0.3259
38973W        W95214  32.461  33.176   3.071 -0.0022  0.1811  0.2335
38974W        W95215  25.951  10.832  13.248 -0.0797  0.3813 -0.1200
38975W        W95216   3.796  31.332   4.659  0.0517 -0.0241 -0.0086
38976W        W95217  32.590  14.011  17.759 -0.1161 -0.3070  0.2399
38977W        W95218  27.467   0.648  15.710 -0.0482  0.0866 -0.1808
38978W        W95219  33.225  21.966  12.689  0.3320  0.0364 -0.3040
38979W        W95220   4.918  15.561   6.113 -0.0219 -0.2094  0.0684
38980W        W95221  21.074  12.982  17.731 -0.0661 -0.2280  0.0844
38981W        W95222  27.130  17.154  18.350 -0.0396 -0.4070 -0.1229
38982W        W95223  28.689  13.745  17.463 -0.1495 -0.1865  0.0434
38983W        W95224  19.465  34.766   3.573  0.0894  0.1367  0.0992
38984W        W95225  17.382  32.978  18.520  0.1823 -0.0262 -0.0278
38985W        W95226  35.252  17.085  25.096 -0.1590  0.0246  0.0784
38986W        W95227   8.892  33.657   2.970 -0.2307  0.2245  0.4579
38987W        W95228  17.222  29.897   8.701  0.0283 -0.1320  0.4248
38988W        W95229  16.042  17.346   8.508  0.0212 -0.1645  0.0064
38989W        W95230   8.861  12.659  12.610 -0.2707  0.6927 -0.0264
38990W        W95231  24.814  16.633  11.998  0.0783  0.1384 -0.0562
38991W        W95232  30.021   0.449  24.710 -0.2476 -0.0918 -0.3764
38992W        W95233  23.879  30.211  22.326  0.1861  0.1888 -0.0583
38993W        W95234  26.038  33.090  14.209 -0.0145  0.0539 -0.0807
38994W        W95235  33.219  12.162   9.739 -0.0492  0.0955  0.1341
38995W        W95236  17.052  17.075   6.920  0.2988  0.0599  0.0922
38996W        W95237  29.475  21.131  21.822  0.2890  0.2377  0.2257
38997W        W95238  11.858  12.385  10.093 -0.0069 -0.2526 -0.3593
38998W        W95239  13.291  26.860  17.252 -0.1189 -0.3876 -0.1897
38999W        W95240  34.290  12.191  16.162 -0.3241  0.0201 -0.4554
39000W        W95241  10.098   6.034   2.383  0.0642 -0.0914 -0.0200
39001W        W95242  21.559  34.794  13.902 -0.0279 -0.2441 -0.2892
39002W        W95243  24.837  33.450  12.023 -0.0005  0.0258 -0.1469
39003W        W95244  34.404  17.898   9.716  0.0421 -0.2539 -0.2661
39004W        W95245  24.764  13.712  26.113  0.0935 -0.5617 -0.0102
39005W        W95246  26.472  33.306  12.525  0.0985 -0.0441  0.3782
39006W        W95247  20.730  12.593   1.744  0.1241  0.2429  0.1643
39007W        W95248   2.729  21.037  17.101 -0.0924 -0.5534  0.1038
39008W        W95249  18.375  21.138   8.149  0.0456  0.2812  0.0197
39009W        W95250  31.921  31.449  13.928 -0.0157  0.0614  0.2974
39010W        W95251  28.281   5.110  20.542  0.5802  0.3280  0.1472
39011W        W95252  10.833  19.104  19.976  0.1442 -0.1370 -0.2343
39012W        W95253  17.638  33.387   8.202 -0.3001  0.0939 -0.2913
39013W        W95254  26.088  12.360  14.392  0.0770  0.1210  0.3353
39014W        W95255  13.769  19.824   2.558 -0.1030  0.2076  0.2456
39015W        W95256  34.347   7.079   3.438  0.3192 -0.2158 -0.0463
39016W        W95257   6.040  31.920   5.348  0.3738 -0.0721  0.1620
39017W        W95258   5.483  23.662   7.309 -0.1607 -0.0049  0.0977
39018W        W95259   0.886  23.942  26.099  0.2350  0.3148 -0.0758
39019W        W95260  15.897  21.813   1.804 -0.1345 -0.0788  0.2317
39020W        W95261  22.187  15.000  14.811 -0.0141 -0.0921  0.2875
39021W        W95262  27.628  14.600   5.737  0.2166  0.4010  0.0682
39022W        W95263  33.330  27.210  19.091  0.1892 -0.2952 -0.1114
39023W        W95264   7.306   5.050   0.017  0.1194 -0.0229 -0.1764
39024W        W95265  17.739   3.615  25.181 -0.1269 -0.2068  0.1246
39025W        W95266   7.230  34.692   0.032  0.3361 -0.3056 -0.0164
39026W        W95267  19.876  30.248  20.522 -0.0950 -0.2441  0.0963
39027W        W95268   4.402  28.378   5.255  0.4425  0.1025 -0.0945
39028W        W95269  29.196  12.424   7.903 -0.0109 -0.1338  0.2858
39029W        W95270  33.511   1.330   3.607 -0.0933 -0.1048  0.0297
39030W        W95271   3.316  22.865  17.885  0.1116  0.2849 -0.0006
39031W        W95272  30.796   5.684  19.824 -0.2410 -0.0595 -0.1252
39032W        W95273   4.447  31.009   5.837 -0.2084  0.2397 -0.1588
39033W        W95274  14.145  32.925   2.069  0.0148 -0.1120 -0.0805
39034W        W95275  10.753  11.151   9.115 -0.0256 -0.1491 -0.3876
39035W        W95276  23.188  14.873  14.704 -0.2545 -0.1717 -0.1747
39036W        W95277  15.936  24.935  10.272 -0.2385  0.0499  0.3146
39037W        W95278  16.191  27.495   7.969 -0.0451 -0.0711  0.2018
39038W        W95279  32.814   7.634  15.547 -0.2437  0.0692 -0.3205
39039W        W95280  18.212   8.829   9.954 -0.2891  0.3627 -0.0035
39040W        W95281  20.031   7.684  24.121  0.2447  0.1431 -0.1576
39041W        W95282   1.320  29.472   6.622 -0.1667 -0.1063 -0.2205
39042W        W95283  20.752   9.362  21.801 -0.3603 -0.1881 -0.4287
39043W        W95284  10.634   2.564  10.042  0.1741 -0.1667  0.1111
39044W        W95285  11.821  10.697   8.520  0.1141  0.1374 -0.0156
39045W        W95286  31.536  32.750  25.225 -0.3702  0.2085 -0.1268
39046W        W95287  28.886  23.619   8.077 -0.1270 -0.0999  0.3363
39047W        W95288   3.062   0.941  23.285 -0.1831 -0.0632  0.0553
39048W        W95289  17.952  13.861  23.154 -0.3982  0.1125 -0.1286
39049W        W95290  11.086  18.282   6.364  0.1951 -0.2561 -0.1200
39050W        W95291  15.616  20.318  21.055  0.1506 -0.1512 -0.0426
39051W        W95292  14.468  12.945   3.746  0.1003 -0.0796 -0.0367
39052W        W95293   3.703   4.532   3.488 -0.1487  0.1583 -0.0685
39053W        W95294  26.266   3.867  19.666 -0.0525 -0.0621 -0.1201
39054W        W95295  13.019   2.943   8.439 -0.0083 -0.0692 -0.3367
39055W        W95296   2.131   9.385  15.066 -0.0539 -0.0151  0.1618
39056W        W95297  24.826   5.112   1.143 -0.0534 -0.2072 -0.5574
39057W        W95298  35.011  34.948  25.145  0.3819 -0.1578 -0.0692
39058W        W95299  26.253   8.116  13.552  0.1648  0.0717  0.0183
39059W        W95300  17.084   7.401   4.733  0.0406 -0.0724 -0.1671
39060W        W95301  35.127  25.812  19.103 -0.0015 -0.0162  0.0421
39061W        W95302  19.571  24.226  20.567  0.3805  0.0290  0.0138
39062W        W95303   2.179  13.116   3.080  0.0556 -0.4529 -0.0537
39063W        W95304   7.210  10.127   5.233  0.0997  0.2706  0.0203
39064W        W95305  27.262  26.239  18.780  0.0596  0.0521 -0.0792
39065W        W95306  22.590   9.821   3.762  0.1440  0.1183 -0.0398
39066W        W95307  35.067   4.567  20.028 -0.1416  0.3660 -0.2663
39067W        W95308   0.403   9.005  17.920 -0.3423 -0.1058  0.3844
39068W        W95309   3.197   6.015   0.672  0.2441  0.4067 -0.0159
39069W        W95310  27.984  27.254   1.111 -0.0423  0.5023  0.2276
39070W        W95311   5.192  27.048  12.476 -0.3218  0.1723 -0.0499
39071W        W95312  21.091  21.226  26.196 -0.1462  0.2948 -0.0329
39072W        W95313  28.774  32.185  20.201 -0.2713 -0.0435  0.4256
39073W        W95314  20.764  14.298  17.910 -0.0773 -0.0011  0.3484
39074W        W95315   7.809   1.748   5.805 -0.2779  0.0897 -0.0450
39075W        W95316  13.485   7.988  12.352  0.1670  0.1216 -0.0111
39076W        W95317  25.950  18.027  21.408  0.0926 -0.0224  0.0859
39077W        W95318  20.032  25.984  19.161  0.2713  0.1106  0.2392
39078W        W95319  19.616  24.188   9.127  0.1696 -0.0744  0.1582
39079W        W95320  17.364  16.732  11.623 -0.2543  0.1445  0.0259
39080W        W95321   9.509   7.266  11.936  0.0652  0.1382  0.2053
39081W        W95322  35.357  24.313  21.760  0.1506  0.0200 -0.3676
39082W        W95323  16.354   2.635   8.433  0.2686 -0.2115  0.0325
39083W        W95324   6.945  31.255  10.009 -0.0029  0.4646 -0.0527
39084W        W95325   1.470   0.623   3.081 -0.2838 -0.1365 -0.1161
39085W        W95326  27.246  28.564  12.365 -0.2312 -0.3369 -0.1723
39086W        W95327   2.720   1.775  21.027  0.2749  0.0305  0.1955
39087W        W95328  18.341   2.728  18.667 -0.1390 -0.2995  0.3679
39088W        W95329   8.685  27.041   6.461  0.3119  0.1815  0.1122
39089W        W95330   5.869  29.175  14.462 -0.2022 -0.1028 -0.0887
39090W        W95331   9.523   4.072  19.181 -0.3597  0.0899 -0.4150
39091W        W95332   7.755  26.651   4.064  0.0541 -0.0850  0.0614
39092W        W95333   9.133  28.528   2.688  0.3006 -0.3816  0.1364
39093W        W95334   0.914   8.748   0.057 -0.1538 -0.1615 -0.3492
39094W        W95335  11.230  26.469  13.838 -0.1983 -0.2769  0.2206
39095W        W95336  13.753  18.241   9.171 -0.0324  0.0749 -0.0753
39096W        W95337  10.669   6.245   6.487 -0.2261 -0.0925 -0.0360
39097W        W95338  11.934  24.618  22.586 -0.0950 -0.0792 -0.0826
39098W        W95339  26.631  12.535  10.674  0.2503 -0.1247  0.2610
39099W        W95340   3.358   3.539  16.381  0.2546  0.1444  0.1045
39100W        W95341   5.045  15.442  17.564  0.1956  0.1495  0.0498
39101W        W95342   6.787  25.867   4.205 -0.1019  0.1906  0.1036
39102W        W95343  31.783  30.338  11.840  0.1316 -0.1259  0.0955
39103W        W95344  20.923  11.301  22.920  0.1315 -0.2901 -0.0677
39104W        W95345  23.084   2.176  16.645 -0.1488  0.2432  0.0323
39105W        W95346  24.353  13.981  21.464  0.0546 -0.0712 -0.1047
39106W        W95347   7.760  27.340   1.395  0.2391  0.1610  0.2362
39107W        W95348  10.478  34.987   6.210  0.0884 -0.0604  0.1109
39108W        W95349   9.196   5.460   9.695  0.0080 -0.0870  0.0133
39109W        W95350  26.511   9.935  13.142  0.0888  0.2689  0.1538
39110W        W95351   0.030   2.783  14.234 -0.1801  0.0460 -0.2540
39111W        W95352   7.624  27.335  15.867  0.1951  0.0444  0.2302
39112W        W95353  31.383   0.558  25.846 -0.0570 -0.1026 -0.2488
39113W        W95354   0.284   2.474  26.051 -0.3663  0.0229 -0.0644
39114W        W95355  22.160  32.541   2.194 -0.3351  0.0105  0.3926
39115W        W95356  33.288  22.300  17.784  0.2019  0.1586 -0.2509
39116W        W95357  24.004  28.099  21.623 -0.3075  0.2064 -0.1974
39117W        W95358  24.092  10.793  16.984 -0.2233 -0.0993  0.2641
39118W        W95359  27.754  33.138  12.894  0.1474 -0.1505  0.1737
39119W        W95360  31.077  17.204  26.140 -0.0421 -0.0830  0.0856
39120W        W95361   2.617  15.717   2.825 -0.1576  0.1229 -0.1667
39121W        W95362  33.153  33.184   5.592  0.3244 -0.2165 -0.2573
39122W        W95363  13.785  12.681   8.121 -0.1054  0.1502 -0.0899
39123W        W95364   0.611  27.672  18.891 -0.0415 -0.1922  0.0423
39124W        W95365  32.673  18.895   6.296 -0.0719 -0.0912 -0.0602
39125W        W95366  28.629  25.377  17.342  0.0562 -0.0535  0.0174
39126W        W95367  11.323  30.532   1.071 -0.1431 -0.2475 -0.2591
39127W        W95368  10.992  22.773  12.580  0.3598  0.5552 -0.1654
39128W        W95369  31.576  34.678   0.720  0.0750  0.0812  0.2459
39129W        W95370  30.307  28.647  10.446  0.1165  0.1806 -0.0578
39130W        W95371  24.251   9.935   1.654  0.1054  0.0727 -0.1345
39131W        W95372  11.875  19.191   4.338 -0.0487 -0.3910 -0.1508
39132W        W95373  12.830   1.266  10.508 -0.3761  0.0492  0.3767
39133W        W95374  34.726  30.255   0.492  0.0926  0.0613  0.0545
39134W        W95375   4.926   4.608  22.944  0.0460 -0.2481  0.1217
39135W        W95376  11.474  26.961  14.863 -0.1122  0.2736  0.0366
39136W        W95377  28.162  28.020  18.432  0.2411  0.0398 -0.2675
39137W        W95378  25.202  11.085   0.953 -0.0045  0.2631 -0.2039
39138W        W95379  31.640  14.917  24.709  0.0187  0.0609 -0.0904
39139W        W95380  33.486  19.846   0.454 -0.1567 -0.0063  0.5131
39140W        W95381   8.377   1.173  12.993  0.0294  0.0333 -0.3632
39141W        W95382   2.246  28.074   0.667  0.1869  0.0453  0.1732
39142W        W95383  28.907  26.036   9.999 -0.0522 -0.2206 -0.0586
39143W        W95384  30.599  21.524  22.733  0.3023 -0.0695  0.0690
39144W        W95385  16.769   3.545  23.837 -0.1211  0.3392 -0.0025
39145W        W95386  31.083  24.685  21.333 -0.4477 -0.1585 -0.1621
39146W        W95387  27.727  23.896  13.459 -0.0100  0.2068  0.2361
39147W        W95388   2.978  19.323  21.692 -0.1809  0.1322 -0.1875
39148W        W95389  16.411   1.443   1.455  0.0852  0.0283  0.0135
39149W        W95390  11.572  18.330  19.973 -0.0033 -0.1738 -0.0008
39150W        W95391  24.971  27.627  10.824  0.0753 -0.0211 -0.0232
39151W        W95392  13.294  30.662   9.323 -0.0531  0.4532  0.0009
39152W        W95393  12.889  16.209  20.170 -0.1463  0.3790 -0.3479
39153W        W95394   6.458  17.118  18.654  0.2632  0.0400 -0.0918
39154W        W95395  20.332   6.748   0.068  0.1505  0.0355 -0.1082
39155W        W95396  33.557  24.643  13.892 -0.0462  0.0645 -0.1923
39156W        W95397  33.010  29.456   5.082 -0.0558 -0.0689 -0.1412
39157W        W95398  10.121   6.350  21.795 -0.2561 -0.0956 -0.1497
39158W        W95399   2.583   0.670   8.007 -0.0685  0.0237 -0.0634
39159W        W95400  28.243   8.398  16.279  0.2132  0.0331  0.1133
39160W        W95401  26.398   6.050  14.092  0.1973  0.3125 -0.0641
39161W        W95402  11.973  32.524   3.472  0.0747  0.0869 -0.0587
39162W        W95403  24.608  13.349  19.685  0.1063  0.1607 -0.0188
39163W        W95404  24.905  29.582   2.825 -0.2144  0.0093  0.1534
39164W        W95405  12.524  12.319  11.318 -0.0313 -0.1782 -0.0698
39165W        W95406  27.723   2.861  19.549 -0.0660 -0.0559 -0.2355
39166W        W95407  18.974  31.524   3.732 -0.0026 -0.0575 -0.0836
39167W        W95408  11.598   5.883  11.499 -0.1209  0.1496  0.3004
39168W        W95409  10.251  32.769  25.826  0.3789  0.0813  0.1997
39169W        W95410  12.989  32.021  15.706  0.0490 -0.0129 -0.0022
39170W        W95411   6.651  31.609  15.041 -0.2374  0.0977 -0.2702
39171W        W95412   5.699   2.963   4.524 -0.1950 -0.1518  0.2560
39172W        W95413   7.249   4.269  19.493 -0.0232  0.0387 -0.2847
39173W        W95414  33.235  22.881  13.944 -0.2510 -0.2409  0.0556
39174W        W95415  10.640  27.027  15.648  0.1511 -0.2108 -0.0265
39175W        W95416  14.170   6.592   8.498  0.2582 -0.0760  0.1415
39176W        W95417  35.055  21.187  24.362 -0.0852 -0.0445  0.3960
39177W        W95418   0.608  13.204  15.737  0.0916 -0.3184  0.1110
39178W        W95419  14.010  26.169   1.961  0.0633  0.0884  0.1723
39179W        W95420   4.120   8.595   0.235 -0.0065  0.4647  0.3699
39180W        W95421   4.131  35.105   9.126  0.2205  0.0629  0.1923
39181W        W95422  10.738  10.656   3.973  0.1244 -0.1242  0.1424
39182W        W95423  12.213   1.760  19.579  0.0753 -0.0404 -0.3671
39183W        W95424  24.521   5.614  25.712  0.1096  0.2275  0.0323
39184W        W95425   9.495   1.219   5.396  0.1566 -0.0794 -0.0221
39185W        W95426   1.610   5.567  16.518 -0.0124 -0.2177  0.1005
39186W        W95427  23.989   3.900  22.670 -0.1530 -0.1931  0.1963
39187W        W95428  14.846  20.864   9.009  0.1023 -0.0283 -0.0035
39188W        W95429  35.180  12.980   9.006 -0.2703  0.0480 -0.2262
39189W        W95430  25.926  35.209  21.331  0.0743 -0.1542  0.0927
39190W        W95431   7.288  12.091  21.927  0.0919  0.2521  0.2315
39191W        W95432   5.739  10.789   6.830 -0.1068  0.2639 -0.1654
39192W        W95433  32.520  27.366   1.829  0.4917  0.2013  0.1686
39193W        W95434  19.951   5.211   4.394 -0.1771  0.2186 -0.3890
39194W        W95435  30.112   2.905  16.255  0.2467 -0.2251 -0.1342
39195W        W95436   8.897  21.843   8.010  0.3010  0.1192 -0.1554
39196W        W95437   3.386  11.026  25.007  0.2281  0.1813  0.1885
39197W        W95438   7.092   5.736  21.208  0.3506 -0.0220 -0.2620
39198W        W95439  32.189  34.242  18.203  0.2648  0.0593  0.2242
39199W        W95440   4.334  25.140  20.790  0.1386 -0.4946  0.2906
39200W        W95441  35.294  24.977  18.564 -0.1485 -0.0973 -0.1313
39201W        W95442  13.362  24.014   1.934 -0.1742  0.3591 -0.1729
39202W        W95443   9.879  14.071  10.740 -0.1706  0.2045  0.1560
39203W        W95444  19.265   6.347  11.576 -0.1340 -0.0441  0.1085
39204W        W95445  15.993  16.980  25.308 -0.1208 -0.1841 -0.4598
39205W        W95446   2.765  12.840  24.336  0.0404  0.1199  0.0583
39206W        W95447  16.034  20.159   3.904 -0.1526 -0.2248  0.0157
39207W        W95448   3.161  30.692  12.829 -0.0273 -0.1930  0.0176
39208W        W95449  13.644  16.749   8.858  0.2125 -0.2584  0.1105
39209W        W95450  19.549   7.547   1.003  0.0345 -0.2781  0.0776
39210W        W95451   4.867   0.126   1.776 -0.4803 -0.0980  0.2025
39211W        W95452  33.271   2.074  13.398  0.2462 -0.2099  0.1892
39212W        W95453   3.632  29.250   2.091  0.0734  0.2110 -0.1115
39213W        W95454  10.611  30.513  12.710  0.0442 -0.0067  0.1017
39214W        W95455  17.324  33.449   0.086  0.0140  0.3121 -0.0687
39215W        W95456  22.090   4.797  24.154 -0.1333  0.1558  0.1833
39216W        W95457  16.626  27.046  11.779  0.0556 -0.3741 -0.2381
39217W        W95458   8.584  33.937   1.871 -0.0922 -0.2038 -0.2399
39218W        W95459  27.784  31.744   5.298  0.0801  0.0206 -0.1686
39219W        W95460  27.858  25.397  20.950  0.0810 -0.2946  0.3832
39220W        W95461  22.517   9.235  24.550  0.2336 -0.1600 -0.2236
39221W        W95462  30.636   0.449  23.160 -0.0946  0.2118 -0.0114
39222W        W95463   2.663  15.451   2.021 -0.0220 -0.2509 -0.0331
39223W        W95464  28.664   7.324  22.528  0.2972 -0.1360  0.1851
39224W        W95465  22.423  35.064  17.449 -0.0187  0.4774  0.1047
39225W        W95466  15.067  12.549  22.700  0.0330 -0.2706 -0.0086
39226W        W95467   2.719   1.224   0.142 -0.1022  0.1810  0.0002
39227W        W95468   6.870  12.154   1.809 -0.2752  0.1411 -0.0278
39228W        W95469  23.930  11.491  23.057 -0.0630  0.1330  0.0113
39229W        W95470  26.554   6.381  25.284 -0.0332  0.1732 -0.0083
39230W        W95471  31.895   3.927  16.418 -0.2918  0.2483 -0.1477
39231W        W95472  28.442  14.674   5.934 -0.0164  0.2076  0.4503
39232W        W95473  10.461  32.640   6.563 -0.0785  0.3435 -0.1494
39233W        W95474  12.603   5.379  25.471  0.1283 -0.0840  0.0278
39234W        W95475  11.740   2.381  11.546 -0.0799 -0.1049  0.1157
39235W        W95476   2.790  28.264   2.884 -0.1892  0.0319 -0.2361
39236W        W95477  10.115  27.942  13.096 -0.0527 -0.0929 -0.1806
39237W        W95478  20.854  23.730   4.084  0.1467  0.1519  0.1737
39238W        W95479   2.387  18.749  23.138 -0.0628 -0.3655  0.1979
39239W        W95480   9.555  21.347   6.446 -0.3044 -0.0682 -0.0574
39240W        W95481  17.776  14.449   8.546 -0.4901 -0.0837  0.0690
39241W        W95482  27.449   7.709   2.167 -0.1518  0.0521 -0.2015
39242W        W95483  26.178  31.730  14.418  0.0085  0.3263 -0.0605
39243W        W95484  30.141  24.076   7.860 -0.0218  0.0699 -0.0960
39244W        W95485   4.725   7.882  18.150  0.2269 -0.1498 -0.1852
39245W        W95486  26.649   5.903  19.797 -0.1948 -0.1782  0.4046
39246W        W95487  15.767  10.150   5.145 -0.2168  0.0287 -0.0561
39247W        W95488   4.088  24.545   6.853  0.1015  0.0124  0.0255
39248W        W95489  31.723   2.887  17.101  0.1659  0.2025 -0.2405
39249W        W95490   2.373   8.404  23.200  0.0689  0.0490  0.1148
39250W        W95491   9.028  17.472   5.793  0.0709  0.2769  0.2705
39251W        W95492  15.553  10.100  12.061  0.0986 -0.0018 -0.0680
39252W        W95493   3.512  33.322   8.546 -0.0277  0.1754 -0.1275
39253W        W95494  30.986   0.241   2.845 -0.0041 -0.2059  0.1604
39254W        W95495  30.794  22.997  16.451  0.0479 -0.1103  0.0852
39255W        W95496   3.686  31.450  12.591  0.1937  0.1652  0.3250
39256W        W95497  20.771   1.212  18.741  0.0802 -0.4982 -0.0448
39257W        W95498  11.624  10.782  14.682 -0.0454  0.2583  0.3027
39258W        W95499  17.910  12.343  10.662 -0.1586 -0.2298 -0.2917
39259W        W95500   9.633  12.314  23.655 -0.0611 -0.0099  0.1473
39260W        W95501  12.909  15.226   9.658  0.0711  0.1965 -0.0355
39261W        W95502   6.860   2.125   0.489 -0.0641  0.1779 -0.3289
39262W        W95503   5.593   2.596   8.238  0.1082  0.3187  0.0564
39263W        W95504  28.442  25.909  10.261 -0.0528 -0.0307  0.0571
39264W        W95505   1.024   4.721  18.141  0.1155 -0.0196 -0.0667
39265W        W95506  22.126  27.613  20.135  0.0286 -0.2475  0.2509
39266W        W95507  16.617  12.110   5.636 -0.3326  0.1522  0.1792
39267W        W95508   7.735   3.377  10.166  0.1883 -0.2796 -0.1122
39268W        W95509  15.290  27.392  21.925  0.3707  0.0709 -0.1422
39269W        W95510   0.323   5.088  14.276 -0.1064 -0.3175  0.0468
39270W        W95511  32.976   6.799   0.209 -0.1978  0.0979  0.0863
39271W        W95512  30.778   5.149  14.736 -0.4902  0.2288  0.3081
39272W        W95513  25.290  10.223  23.906 -0.1470  0.1070 -0.0641
39273W        W95514  12.672  34.175  12.619 -0.0260 -0.2220 -0.1013
39274W        W95515  27.454  18.410   6.791 -0.0374  0.2308  0.0228
39275W        W95516  22.792  32.664  14.195 -0.2069 -0.2138 -0.1143
39276W        W95517   3.672   0.014   2.030 -0.0958 -0.1621 -0.2920
39277W        W95518   0.513  19.704  22.463  0.4802 -0.1074 -0.0451
39278W        W95519   4.667  28.097   6.935  0.0817 -0.2380  0.1727
39279W        W95520  11.563  25.160   3.469 -0.0628 -0.0686 -0.1830
39280W        W95521  22.863  14.094  13.186 -0.0094  0.2231  0.1505
39281W        W95522  11.436   7.705  13.950  0.2130  0.2985  0.3507
39282W        W95523  28.164   9.892  19.187 -0.1162 -0.2715 -0.2028
39283W        W95524  18.276  11.374   2.916 -0.1201 -0.0250 -0.0365
39284W        W95525  17.522  14.525  24.095  0.1850  0.0421 -0.0641
39285W        W95526  29.314   9.124  24.140 -0.0658  0.0212 -0.1494
39286W        W95527  27.518  35.243  17.321  0.5934 -0.1556 -0.1477
39287W        W95528  13.042   8.267   0.188  0.1525 -0.2312 -0.0589
39288W        W95529   8.529  20.388  25.429 -0.2832 -0.0580  0.1854
39289W        W95530   2.533   8.710   0.951 -0.0366  0.0821 -0.2677
39290W        W95531  24.281   6.588  16.114  0.1389 -0.2872  0.2393
39291W        W95532   8.844  15.992   2.602 -0.0326  0.0067  0.0792
39292W        W95533  30.248  33.969   1.112 -0.2204  0.1245 -0.0136
39293W        W95534   1.051  20.794  12.011 -0.0850  0.0675 -0.4209
39294W        W95535   3.404   1.285   1.146 -0.2441  0.0063 -0.1376
39295W        W95536   6.922   6.473  24.249 -0.0449 -0.2538 -0.4275
39296W        W95537  28.723  17.905  10.017 -0.3506  0.1649  0.2428
39297W        W95538   3.474   2.081   5.945 -0.1370  0.2080 -0.0025
39298W        W95539  11.406  33.930  10.721 -0.2853  0.2408  0.1963
39299W        W95540  15.599   8.029  20.775  0.1241  0.1138 -0.1129
39300W        W95541  30.799   5.580  17.300 -0.0367  0.1040  0.2687
39301W        W95542   1.968   2.540   2.894 -0.1569 -0.0673  0.2236
39302W        W95543  20.176  24.525   5.689  0.3346 -0.0322  0.1366
39303W        W95544  20.843  19.806   3.263  0.4028 -0.0241  0.1919
39304W        W95545  31.529  26.568  24.973  0.0648 -0.0050 -0.2942
39305W        W95546  32.967  33.685  13.271 -0.0516  0.2543 -0.1779
39306W        W95547  29.341  35.033   5.546 -0.1217 -0.0678  0.0699
39307W        W95548  34.246  13.628  25.305 -0.3852 -0.0887  0.5270
39308W        W95549   2.388   0.422  18.524 -0.0977  0.0395 -0.3524
39309W        W95550   6.984  27.109  25.923 -0.0641 -0.1008  0.1084
39310W        W95551   5.347  29.763  19.727 -0.0756  0.0575  0.1275
39311W        W95552  19.581  13.405  22.966  0.0421  0.0276  0.2812
39312W        W95553   1.248   4.957   7.810 -0.3956  0.0297  0.3295
39313W        W95554   7.837   9.584   0.216 -0.0456  0.0748  0.1085
39314W        W95555  34.289   1.400  18.943  0.1138 -0.4993 -0.0567
39315W        W95556  17.625  25.314  12.921  0.1229  0.0929  0.0976
39316W        W95557  10.527  14.486  24.860 -0.1180  0.3236  0.1957
39317W        W95558   2.147  29.333  22.278  0.0318 -0.2409 -0.1190
39318W        W95559  32.041  27.847  14.562  0.2072  0.1647  0.2570
39319W        W95560  28.378   1.388  25.697  0.0939 -0.3365  0.3380
39320W        W95561  16.242   2.161  25.066  0.3543 -0.2052 -0.1605
39321W        W95562   0.743   2.481  17.656  0.0997 -0.3756  0.0836
39322W        W95563  31.477  16.090   4.974  0.0395 -0.1432  0.0911
39323W        W95564  32.963  25.997   1.701 -0.1881  0.0559  0.2415
39324W        W95565  25.575   2.539   4.402 -0.0874  0.1849 -0.5211
39325W        W95566  23.779  21.324  22.145  0.2395  0.0407 -0.1553
39326W        W95567  35.021  14.162   8.730  0.0116  0.1339 -0.0063
39327W        W95568   0.048  14.135  16.560 -0.1542 -0.0780 -0.1933
39328W        W95569  16.133   7.633  24.242  0.1007 -0.1684 -0.0609
39329W        W95570   8.486   0.401  24.563  0.4894 -0.1831  0.1488
39330W        W95571  20.851   5.546  26.017  0.2241  0.2599 -0.0267
39331W        W95572   0.321  26.394   1.017 -0.0516 -0.3066  0.0700
39332W        W95573  25.256  29.204  12.734  0.1427 -0.1585  0.3991
39333W        W95574  18.208  10.044  25.240 -0.0546  0.1165 -0.0656
39334W        W95575  22.471   7.722  24.534  0.1379  0.1074 -0.0274
39335W        W95576  24.099  22.807  21.242 -0.2357 -0.1290 -0.2763
39336W        W95577  20.101  27.064  25.700  0.0571  0.0591 -0.0615
39337W        W95578   7.824  20.071   2.129 -0.4441  0.0989  0.3190
39338W        W95579  17.207  15.927  11.283 -0.0454  0.0887 -0.3856
39339W        W95580  31.210  29.676  15.064 -0.0150  0.3053  0.0596
39340W        W95581   4.843   8.819   3.939 -0.2296  0.0121 -0.0554
39341W        W95582   1.870  32.998   9.460  0.4771 -0.0610 -0.1200
39342W        W95583  18.939  32.313   1.364  0.3481 -0.2237  0.1140
39343W        W95584  30.310  24.676  22.812 -0.0035 -0.2222  0.1498
39344W        W95585  32.845   5.077  16.694  0.1838  0.0023 -0.0031
39345W        W95586  12.134  24.158  10.435  0.1611 -0.1423  0.3036
39346W        W95587  16.089  15.154   7.175 -0.0785 -0.0652 -0.1708
39347W        W95588  16.244  34.574   5.192 -0.1741 -0.0735  0.1878
39348W        W95589  31.882  25.530  23.321 -0.1115  0.1413 -0.2680
39349W        W95590   3.432  12.481  18.996  0.1456  0.0149 -0.0435
39350W        W95591  26.202  14.656  18.631  0.2909 -0.1035 -0.0647
39351W        W95592  21.403  31.145  26.165 -0.1298 -0.1034  0.1130
39352W        W95593  23.422   1.002  14.345 -0.0114  0.1693  0.2323
39353W        W95594  19.491  33.771  17.810 -0.0155 -0.2107  0.1967
39354W        W95595   1.990  16.873  15.225 -0.1592  0.5146 -0.0524
39355W        W95596   1.588  10.362  14.286 -0.1759  0.0792 -0.1608
39356W        W95597  26.827  12.727  10.039  0.1294  0.0484  0.2426
39357W        W95598   0.031  32.098   3.163  0.2890 -0.0219 -0.1235
39358W        W95599  25.825  20.742  16.615 -0.1256  0.1836  0.1343
39359W        W95600   2.832  14.621  20.743 -0.2868 -0.0967 -0.1193
39360W        W95601  31.276   1.260  15.879  0.0135 -0.0137 -0.4152
39361W        W95602  26.283  30.788  18.066  0.0429  0.1314  0.0531
39362W        W95603   5.106  17.286   7.300  0.0834  0.1883 -0.2208
39363W        W95604  19.831  33.452  24.615  0.2277  0.1587 -0.1594
39364W        W95605   8.010   6.658  23.367  0.0464  0.0716  0.1852
39365W        W95606   8.330   8.131  10.163  0.0753  0.0854 -0.0034
39366W        W95607  10.805  12.438   3.008  0.2207 -0.0769  0.0021
39367W        W95608   4.534   4.244  19.154  0.0624 -0.4264  0.0197
39368W        W95609   2.622   0.195  20.293  0.0400  0.0396 -0.1744
39369W        W95610   8.206  12.898   3.677  0.0615  0.0511  0.0152
39370W        W95611  25.050  16.730   0.498 -0.1142  0.1419 -0.0366
39371W        W95612  31.235  26.967  25.723 -0.3747 -0.1588 -0.2704
39372W        W95613  27.803  28.802  19.653  0.2604  0.1903 -0.1861
39373W        W95614   7.425   3.507  12.354 -0.3172  0.0562 -0.0549
39374W        W95615  20.462   1.582   4.669  0.1555  0.2078 -0.0896
39375W        W95616   8.033  20.125  25.531 -0.0406  0.2857 -0.1195
39376W        W95617  35.378  14.986  20.708  0.0485  0.3209  0.1965
39377W        W95618  34.580  20.680  18.516 -0.3765  0.1252 -0.5219
39378W        W95619  18.650   2.102  22.513  0.0761 -0.0236 -0.3003
39379W        W95620  21.375  10.776  25.081 -0.0427  0.0317 -0.1354
39380W        W95621  30.054   4.726  16.759 -0.1177  0.0604 -0.3096
39381W        W95622  10.109  25.503   0.796  0.1796  0.0630 -0.0110
39382W        W95623  28.877  26.128  14.123 -0.0605  0.0513 -0.0341
39383W        W95624  29.891  27.484  23.199 -0.3506 -0.3345 -0.0564
39384W        W95625  27.915   8.745  24.753 -0.1586 -0.0548  0.1934
39385W        W95626   8.392   7.821  21.241  0.2147  0.1543  0.0621
39386W        W95627   9.434  24.020  11.546 -0.0849 -0.0563  0.0273
39387W        W95628  24.958  22.024  15.622 -0.1830 -0.0210  0.2336
39388W        W95629   5.284   1.470  12.467 -0.0648  0.4021  0.0249
39389W        W95630  13.062  26.377  25.977  0.1085 -0.0839 -0.0746
39390W        W95631  12.584  10.385   1.375 -0.2402 -0.0357 -0.1733
39391W        W95632  31.598  22.797  13.566 -0.0854  0.0458  0.1589
39392W        W95633   2.577   4.568   5.568 -0.2082 -0.3507 -0.1382
39393W        W95634  17.162  19.636  10.183  0.1798  0.0763  0.4776
39394W        W95635   4.431   2.389   0.552  0.3169 -0.1452  0.0786
39395W        W95636  18.332  27.257  25.702  0.1274  0.0125 -0.2759
39396W        W95637   1.385   4.373  15.258  0.0555 -0.0698 -0.0973
39397W        W95638   7.389   7.040  22.455 -0.0380  0.6137 -0.1612
39398W        W95639  29.557  10.309  14.162  0.0134 -0.2690  0.2914
39399W        W95640  18.922  35.077   9.044  0.1360  0.0531 -0.2372
39400W        W95641   2.267   4.926  17.871 -0.0705  0.4395 -0.0100
39401W        W95642  18.966   9.581  23.220 -0.1918 -0.0341 -0.0007
39402W        W95643  24.682  10.556   2.273 -0.2586  0.0529  0.1807
39403W        W95644   9.852  16.201  12.319  0.2274  0.2067  0.0055
39404W        W95645  21.715  26.355  18.414  0.0378 -0.1236  0.2112
39405W        W95646  27.868  30.158  17.574 -0.0281 -0.0840 -0.3020
39406W        W95647  22.911  13.809  24.366 -0.0587  0.1227 -0.2377
39407W        W95648  32.794   3.967  14.567  0.1175 -0.1045 -0.2753
39408W        W95649  27.489  12.895  13.371 -0.1590  0.1511  0.3722
39409W        W95650  31.555  26.209  18.585 -0.2206  0.0238  0.1620
39410W        W95651  24.095   3.065  22.714  0.2251  0.4074 -0.2085
39411W        W95652  18.143  12.858  23.257 -0.2333  0.1952  0.1386
39412W        W95653  31.075  10.233  19.063  0.1592  0.0933  0.0119
39413W        W95654   7.022  30.925  15.863  0.1273 -0.1666  0.1621
39414W        W95655   9.709   7.245  13.062 -0.1430  0.1640  0.1343
39415W        W95656  18.498   2.709  16.170  0.0392 -0.0528 -0.1983
39416W        W95657   4.730  12.791   0.323 -0.1845 -0.0199 -0.2691
39417W        W95658   3.784  32.357  20.277  0.1571  0.2363 -0.0822
39418W        W95659  31.310  27.303  22.189 -0.0370  0.2121  0.0484
39419W        W95660  26.571  28.769  25.475 -0.0588  0.1144  0.3382
39420W        W95661  19.212  30.621  21.557 -0.1188 -0.0303 -0.1074
39421W        W95662  26.275  21.910   9.936  0.0651 -0.1335  0.0387
39422W        W95663  15.590   7.537   5.906  0.0916 -0.3335 -0.3278
39423W        W95664  30.211  24.242  19.595 -0.0487  0.5127 -0.0723
39424W        W95665   3.047   4.683   2.199 -0.1566  0.0336 -0.2054
39425W        W95666   6.411  11.030  23.700  0.2075 -0.0139 -0.0100
39426W        W95667  13.175  20.948  25.272  0.2327  0.1773  0.2188
39427W        W95668   5.195  23.453  22.729  0.0183 -0.0833 -0.4655
39428W        W95669  24.283  20.770  18.251 -0.0866 -0.0731 -0.1743
39429W        W95670  24.953   1.735  16.627  0.3633  0.1804  0.0312
39430W        W95671   8.968  34.481  24.538 -0.0949  0.0643  0.0928
39431W        W95672   5.505   0.289   6.966 -0.1863  0.0209 -0.2713
39432W        W95673  14.397  33.445  11.380 -0.0150  0.1222  0.0884
39433W        W95674  30.257   1.804   4.067  0.3239 -0.3632  0.2845
39434W        W95675  20.237  30.201   4.650 -0.2222 -0.1167 -0.3771
39435W        W95676  15.276   8.043  25.492  0.1716 -0.1538  0.1835
39436W        W95677   5.136  28.170   5.540  0.0774 -0.0347  0.3834
39437W        W95678   3.487   8.400  25.036 -0.0020  0.0142  0.0352
39438W        W95679  12.663  19.017   9.823 -0.0427  0.0719  0.0463
39439W        W95680   6.884  25.716   4.677 -0.1099 -0.0730 -0.0231
39440W        W95681  29.192   5.890  13.963  0.2506  0.1384 -0.1043
39441W        W95682  23.392  18.511  16.615 -0.1080 -0.0016  0.1310
39442W        W95683  16.981   2.386  25.574 -0.0667  0.1506 -0.0204
39443W        W95684  19.086  15.703  24.979  0.1289 -0.0760 -0.2433
39444W        W95685   1.166  26.866   5.866 -0.3129  0.2891  0.1572
39445W        W95686  16.034  31.265   6.389  0.2519  0.1959 -0.2173
39446W        W95687  13.138  11.002  23.827  0.0954 -0.1074 -0.2709
39447W        W95688  32.484  11.117  18.710  0.1907  0.1384  0.4262
39448W        W95689  22.391  21.265  25.730  0.0540  0.1622 -0.2574
39449W        W95690  31.051   0.626  19.932 -0.0520 -0.1893 -0.1051
39450W        W95691   1.875   7.841  15.827 -0.2175 -0.2208 -0.0692
39451W        W95692  18.472  12.088   9.287 -0.3385  0.0081 -0.0040
39452W        W95693   6.397  27.904  10.988  0.0015 -0.0346  0.2441
39453W        W95694  22.981  27.539  24.699  0.0434 -0.1386  0.1508
39454W        W95695  11.933  32.725  10.872  0.0752  0.0295  0.1387
39455W        W95696   7.259  34.950  11.706  0.1834 -0.0050  0.3211
39456W        W95697  11.108   3.770  20.186  0.1186  0.0689 -0.0823
39457W        W95698  12.611  27.732  10.167  0.1277 -0.2041  0.1904
39458W        W95699   0.151  21.099  20.712  0.0824 -0.0622  0.1439
39459W        W95700  31.554  25.382  10.095 -0.0868 -0.2110 -0.2901
39460W        W95701  22.618  35.201   2.675 -0.0331  0.1249 -0.0901
39461W        W95702  26.873  10.109   0.672  0.0728  0.2219 -0.0011
39462W        W95703   1.936   6.706  25.888 -0.1452 -0.1978  0.0608
39463W        W95704  16.210  10.928  21.133  0.0651 -0.0629 -0.0740
39464W        W95705  13.537  10.739   9.776 -0.0831  0.4484  0.0444
39465W        W95706  14.720  25.133   8.007  0.2475 -0.1377  0.4770
39466W        W95707  16.522   7.828   4.333 -0.0438 -0.1526 -0.1810
39467W        W95708  12.369  19.428   7.095 -0.3499  0.0843  0.2516
39468W        W95709  25.347  18.361  15.255  0.2741 -0.0072 -0.1207
39469W        W95710  25.979  17.555  17.129  0.1775 -0.1386  0.3392
39470W        W95711   6.844  15.874   8.222 -0.0834 -0.0559 -0.0723
39471W        W95712  25.296   5.487  18.378 -0.3193  0.1435 -0.1780
39472W        W95713  33.222  15.744   6.106 -0.0856  0.0574 -0.2087
39473W        W95714   8.658  23.461  23.325 -0.1563 -0.2064  0.3025
39474W        W95715   4.451  26.457   3.436  0.0259  0.0002 -0.0783
39475W        W95716   1.423  25.133  22.964  0.0471  0.0127 -0.1871
39476W        W95717  27.192  25.602  10.309 -0.0649 -0.2077 -0.1999
39477W        W95718  15.960   6.567  21.763 -0.1731  0.1632 -0.0998
39478W        W95719  26.531  28.589   3.598 -0.0429 -0.1071  0.0723
39479W        W95720  23.106  22.505  14.770 -0.3933 -0.3256  0.2158
39480W        W95721  12.267  22.384  23.639 -0.2470 -0.1590 -0.0711
39481W        W95722   3.030  17.276  12.693  0.1607 -0.1899  0.1699
39482W        W95723  11.680  33.439   9.707  0.0073  0.0432 -0.2237
39483W        W95724   7.256   1.477  25.110  0.1282 -0.0152 -0.0226
39484W        W95725  14.553  21.992  13.579 -0.2882 -0.3740 -0.3706
39485W        W95726  16.389  23.407   9.305  0.0471  0.1622 -0.2543
39486W        W95727   4.028  13.105  18.149 -0.1112  0.0370 -0.1982
39487W        W95728   5.523   2.179  22.013  0.2277  0.2229  0.1763
39488W        W95729  27.994  26.959  24.722  0.0953 -0.0443  0.1952
39489W        W95730  22.407   5.382   7.549 -0.1526 -0.3109  0.0620
39490W        W95731  17.345  25.016  25.867 -0.2644  0.1026 -0.1105
39491W        W95732  16.573   4.244  26.077  0.1706 -0.0014 -0.0234
39492W        W95733  25.403  24.544  24.714  0.1607  0.0062  0.0052
39493W        W95734  22.292  16.857  15.000 -0.0339  0.1182 -0.2236
39494W        W95735  30.528  18.022   6.240 -0.2541  0.1696  0.3940
39495W        W95736  30.141  20.889   8.141 -0.0676 -0.0749  0.1596
39496W        W95737  20.492  12.537  26.237 -0.0923  0.2174  0.1096
39497W        W95738  11.538  20.720   8.076 -0.2289  0.0395  0.0547
39498W        W95739  31.366   9.103   8.305  0.0283 -0.2283  0.3689
39499W        W95740  25.364   3.074  18.545  0.0557  0.0571  0.1254
39500W        W95741  30.640   1.845  17.129  0.1164  0.2044  0.2132
39501W        W95742  26.552   7.281  21.334 -0.1123 -0.0767 -0.0425
39502W        W95743  33.445  19.486  12.946  0.1023 -0.1368  0.1440
39503W        W95744  21.671  13.239   0.157 -0.1999  0.1210  0.3646
39504W        W95745  29.013  13.365   8.914 -0.3668  0.2193 -0.1397
39505W        W95746  29.091  29.306  16.353 -0.4097  0.0197 -0.0087
39506W        W95747  19.222   6.757  24.820  0.0639  0.0321  0.1198
39507W        W95748   8.627  21.809  15.208 -0.2562  0.0196 -0.2146
39508W        W95749  31.041  20.762   9.974  0.0511  0.0672 -0.2208
39509W        W95750  10.293  28.910   9.833  0.3101  0.1544  0.0829
39510W        W95751  13.001  24.602   1.673 -0.0326  0.0518  0.0661
39511W        W95752  28.927  21.164  11.663  0.1867 -0.2044  0.2580
39512W        W95753   4.178  23.071   4.863 -0.1276 -0.0035  0.1215
39513W        W95754  34.572   4.971  19.311  0.0086 -0.1896  0.2438
39514W        W95755   3.039   7.643   8.072  0.3532  0.0610 -0.0726
39515W        W95756  31.660   2.319   3.578  0.0109 -0.1034 -0.1668
39516W        W95757  34.648   8.370  22.858 -0.2782  0.1191 -0.0396
39517W        W95758  24.584  25.098   3.060 -0.0153 -0.1201 -0.3843
39518W        W95759  17.928   1.076   7.287 -0.1099  0.0184  0.2194
39519W        W95760  13.897   8.329  14.034  0.1821  0.1188  0.2603
39520W        W95761   1.473   7.030  23.974 -0.2039  0.1288 -0.0516
39521W        W95762  10.901  25.860  24.645  0.2703  0.0252  0.0217
39522W        W95763  30.524  18.746  12.489  0.1856 -0.1065  0.0914
39523W        W95764  20.391   5.837  24.376  0.0517  0.0437 -0.1916
39524W        W95765  13.877   6.084  20.693 -0.2289 -0.2192 -0.2568
39525W        W95766  17.504  25.075   6.937  0.0192 -0.1771  0.0958
39526W        W95767  35.232  34.629  23.266 -0.1142 -0.0141 -0.0952
39527W        W95768  11.997  18.738  11.192  0.0485  0.0696 -0.2405
39528W        W95769   6.664  17.650   0.797  0.0488  0.0426 -0.0349
39529W        W95770   8.387   8.078   9.381 -0.2179  0.0048 -0.2885
39530W        W95771   1.809  18.033  20.616  0.0593  0.0652 -0.1053
39531W        W95772  24.900  15.189  24.657  0.1626 -0.1448 -0.0162
39532W        W95773  14.052  29.818  13.173 -0.0093 -0.0221  0.2484
39533W        W95774  16.995  31.389  21.405 -0.0924 -0.2999  0.1569
39534W        W95775  17.379  21.011  26.084  0.0252  0.0882 -0.2753
39535W        W95776  28.568  13.752  25.260 -0.1816 -0.2706  0.1833
39536W        W95777   8.299   7.483   6.224  0.0097 -0.1153 -0.0603
39537W        W95778  17.146  25.424   1.569 -0.1484 -0.0243 -0.0402
39538W        W95779  26.337   6.935  14.773 -0.0145  0.0688 -0.0333
39539W        W95780  33.359   8.766  25.665  0.0253  0.2978 -0.0341
39540W        W95781  31.783   3.678   4.681  0.0660 -0.0266 -0.1477
39541W        W95782   8.374   0.811  15.596 -0.6414 -0.0187  0.0425
39542W        W95783  22.642  14.197  16.205 -0.1564 -0.2806 -0.0503
39543W        W95784  15.933   5.383   3.551 -0.1825  0.3444 -0.0611
39544W        W95785  19.831  21.117  18.886  0.2042 -0.0680 -0.1012
39545W        W95786  18.976  12.925  23.619  0.0844  0.3080  0.0032
39546W        W95787  35.241   0.372   0.090  0.1113  0.0676 -0.2351
39547W        W95788  32.558  32.239  23.490 -0.0543  0.4134 -0.0405
39548W        W95789  10.820   3.278   1.156  0.1612  0.0258 -0.2516
39549W        W95790  31.565  29.079  25.570 -0.2646  0.3895 -0.2430
39550W        W95791   2.082   6.974   7.496  0.0679  0.1980 -0.0018
39551W        W95792  28.443   6.617   9.491  0.3859  0.2009  0.1823
39552W        W95793  10.635  33.340  22.216 -0.1003  0.3348 -0.0488
39553W        W95794  13.588  19.049   7.425 -0.0875 -0.3721 -0.3005
39554W        W95795  29.151  15.197  22.032 -0.0786 -0.1377 -0.0448
39555W        W95796   0.170  17.242  12.750 -0.1835 -0.1827 -0.1284
39556W        W95797   6.031  20.908  24.293 -0.1920  0.0473 -0.2562
39557W        W95798  34.960  15.893  16.912 -0.2809 -0.1261  0.0178
39558W        W95799   6.973  16.773   2.343 -0.1673  0.0043 -0.4249
39559W        W95800   4.344  13.185  17.045  0.3293 -0.0405 -0.1815
39560W        W95801   4.585  33.660   0.153  0.1544  0.4453  0.0071
39561W        W95802  27.004   1.284   2.508 -0.3307 -0.1200  0.5039
39562W        W95803  13.767   0.719  13.161  0.0418 -0.0126 -0.0972
39563W        W95804   0.229  11.716  20.567 -0.0258  0.2215 -0.0062
39564W        W95805   4.587  11.715   4.455  0.2455  0.2628 -0.2026
39565W        W95806  27.105  26.213  12.497 -0.0444  0.0732 -0.0927
39566W        W95807   2.898  18.376  23.048 -0.1517  0.1594  0.0076
39567W        W95808   0.399  12.893  17.827  0.0020  0.2933 -0.1514
39568W        W95809  26.246  35.127   6.798  0.0584 -0.0632 -0.1616
39569W        W95810  19.610   7.521   2.384 -0.0049 -0.1001 -0.0204
39570W        W95811  32.038  30.717   4.034  0.0144 -0.3328 -0.2067
39571W        W95812  29.003   9.048  16.679 -0.1083  0.0122 -0.1452
39572W        W95813  16.698   5.621  17.523 -0.2280  0.0983 -0.0607
39573W        W95814  17.122  12.104   8.818 -0.2070 -0.3404  0.0792
39574W        W95815  15.522  27.214   4.691  0.1154 -0.2108  0.0747
39575W        W95816  30.879  30.430  23.384 -0.0128 -0.2206 -0.2980
39576W        W95817  31.693   6.533  21.150  0.3677  0.1190  0.0578
39577W        W95818  31.728  12.091  21.457 -0.3422  0.1009 -0.4407
39578W        W95819  34.800  22.524  22.960 -0.0550  0.0355 -0.0946
39579W        W95820  35.003   9.395  14.244  0.1346 -0.0365  0.3625
39580W        W95821  10.430   4.629   0.825  0.4117  0.1394 -0.2228
39581W        W95822  10.436   2.542  22.651 -0.0465  0.4842 -0.2196
39582W        W95823  11.804  31.927  12.939 -0.0331  0.0611 -0.0969
39583W        W95824  12.403  17.779  26.027 -0.4739 -0.0358 -0.1164
39584W        W95825  22.271  26.869  23.632 -0.1587 -0.0671  0.0322
39585W        W95826  10.074  27.541  16.396 -0.4468 -0.0762 -0.1318
39586W        W95827   4.619   1.603   4.558 -0.1319 -0.2793 -0.0180
39587W        W95828  12.020  25.223   9.925 -0.1344 -0.0709  0.0781
39588W        W95829   8.691  22.086   4.685 -0.4881 -0.1343  0.1951
39589W        W95830  32.849   3.528   2.503 -0.4552  0.3586 -0.3568
39590W        W95831  17.867  21.811   7.995  0.1193 -0.1961  0.1460
39591W        W95832  19.159  26.508   6.408  0.2235 -0.1342 -0.2827
39592W        W95833  15.208   0.774  23.739  0.3576 -0.1783 -0.1636
39593W        W95834  10.460  17.556  23.901  0.1744 -0.0855 -0.0170
39594W        W95835  19.025  34.092   2.742  0.3185 -0.1294 -0.0607
39595W        W95836  25.303  12.172  14.115 -0.0414 -0.0656  0.0925
39596W        W95837  28.863  18.140  23.580 -0.1085  0.0022 -0.2255
39597W        W95838  10.420   2.723   4.292 -0.3619  0.1747  0.0156
39598W        W95839   4.751  24.244  19.840  0.1750  0.2054 -0.3954
39599W        W95840  10.603  18.541  24.249 -0.1139  0.0019 -0.0865
39600W        W95841  14.701   8.305   6.759  0.1363  0.1575  0.1721
39601W        W95842  11.048   1.009   9.304 -0.0788  0.3616 -0.0943
39602W        W95843   6.441   1.525   1.125  0.2212  0.0026  0.0550
39603W        W95844  18.845   0.200  25.338 -0.1202  0.4721 -0.4075
39604W        W95845  25.742   4.644  13.282  0.2393 -0.1295 -0.1455
39605W        W95846  23.188   8.961   2.606 -0.1598 -0.2313 -0.4235
39606W        W95847  20.188  15.616  16.320 -0.2168  0.1328 -0.0745
39607W        W95848  10.589  25.122  22.846  0.1018  0.0971  0.0147
39608W        W95849  14.237  13.590   9.064  0.4578 -0.0441 -0.0912
39609W        W95850  17.140  23.055  25.339  0.7674 -0.3110 -0.0155
39610W        W95851  24.099  30.370  23.756  0.0576  0.0242 -0.0281
39611W        W95852   8.455  15.859   7.992 -0.1980 -0.2745  0.3543
39612W        W95853  11.653  19.695   8.935  0.2724 -0.3182  0.0637
39613W        W95854   9.620  23.832   3.781 -0.0573 -0.1049  0.3255
39614W        W95855  18.822  12.956   3.135  0.1819 -0.0888  0.0404
39615W        W95856  23.945  30.198  18.794  0.2577  0.3642 -0.1512
39616W        W95857  30.558  13.431  19.725  0.1277 -0.3043  0.1133
39617W        W95858   2.116  13.507  16.267  0.1111 -0.0891 -0.2001
39618W        W95859   9.978  23.132   7.595  0.1365 -0.1658  0.0108
39619W        W95860  15.068  20.651  12.250 -0.0264  0.2286 -0.5597
39620W        W95861  19.816  27.233  19.349 -0.2055 -0.2587  0.6447
39621W        W95862   9.813  20.021   7.948  0.2622 -0.1669 -0.2276
39622W        W95863  28.584  33.651   4.152  0.2084 -0.2493  0.1491
39623W        W95864  12.971   5.750  24.263  0.1146 -0.1119  0.2211
39624W        W95865  25.660  15.277  26.201  0.0221 -0.0495 -0.1596
39625W        W95866   6.657  25.658   7.142 -0.1971 -0.1577 -0.0986
39626W        W95867  29.712   9.336  25.851 -0.2712  0.0425 -0.1384
39627W        W95868  30.306  20.664  18.419  0.2358 -0.2928 -0.1114
39628W        W95869  27.118  27.095  14.030 -0.0634 -0.0002 -0.2131
39629W        W95870  10.865  18.027   9.922 -0.1359 -0.2883  0.0748
39630W        W95871  10.251  21.901  24.339 -0.1357 -0.2563 -0.1663
39631W        W95872  12.111  13.278  23.134  0.0247  0.0104  0.3873
39632W        W95873  24.110   1.082   0.454  0.1732  0.1291 -0.0614
39633W        W95874  15.396   0.001  20.430  0.0048 -0.1216 -0.0152
39634W        W95875  13.308  27.823  24.793  0.2276  0.0006  0.0433
39635W        W95876  28.425  32.600   1.716 -0.0706 -0.0933  0.1458
39636W        W95877  17.775  28.510   6.253  0.1015 -0.0135 -0.0829
39637W        W95878   0.108  22.077  23.055 -0.3312  0.0234 -0.1220
39638W        W95879  13.169  27.722   5.107 -0.1516  0.1498  0.0861
39639W        W95880  25.198  18.315  19.513  0.2909  0.4290  0.0860
39640W        W95881  21.945  19.337  22.742 -0.0831 -0.1798 -0.0489
39641W        W95882  14.472   7.301   1.566 -0.0449  0.1463  0.0528
39642W        W95883  10.131  18.492  24.639 -0.0117 -0.1952 -0.1550
39643W        W95884   8.082  32.021  24.989 -0.1883  0.1259  0.0505
39644W        W95885  12.510   6.044   9.947  0.0087 -0.0165 -0.1315
39645W        W95886  20.561  17.282  25.857  0.1061 -0.0262  0.0089
39646W        W95887  21.826  10.147  21.976  0.1168  0.1266  0.3568
39647W        W95888  12.186  32.994  25.039 -0.2999 -0.1163  0.1103
39648W        W95889  21.725  13.163   1.226 -0.2964 -0.4053 -0.0481
39649W        W95890  17.826  27.294   5.542 -0.0715 -0.0414  0.0325
39650W        W95891   9.076  22.820   1.017  0.0286  0.2303  0.2769
39651W        W95892  11.370   3.606   4.048 -0.0350 -0.3705 -0.1317
39652W        W95893  29.639  17.009  11.398  0.0293 -0.2250  0.0623
39653W        W95894   5.686  22.539   2.001 -0.0718  0.3305 -0.1184
39654W        W95895  32.614  31.168  15.651  0.1773 -0.0694  0.0415
39655W        W95896  15.629   7.201   3.594 -0.2042  0.1602  0.1202
39656W        W95897  11.766  19.634   8.418 -0.0963  0.0074 -0.1346
39657W        W95898  16.089  33.185   3.198  0.0303  0.1544  0.0791
39658W        W95899  27.851  33.533  15.373 -0.4233 -0.1222  0.1435
39659W        W95900  23.429  13.581  19.868 -0.0610  0.2032  0.0710
39660W        W95901  18.580  12.044   1.768  0.1895  0.4684 -0.1523
39661W        W95902  17.505   4.173  18.331  0.1018  0.0952 -0.2291
39662W        W95903  16.620  14.127   6.567  0.1709 -0.2125  0.1575
39663W        W95904   7.362   7.058   8.171 -0.0309  0.1679  0.1726
39664W        W95905   2.364  21.239  14.761  0.2761 -0.0576 -0.2273
39665W        W95906   3.803  21.238   3.207  0.2624 -0.0008  0.3222
39666W        W95907   0.832  18.304  15.245 -0.0700  0.2440  0.0133
39667W        W95908  35.010   9.912  11.253  0.1516  0.3626  0.0972
39668W        W95909  11.949  20.047   3.187  0.0046  0.2541  0.2713
39669W        W95910   8.049  26.372  10.098 -0.0225  0.1579 -0.0301
39670W        W95911  19.888   5.687  17.091  0.0939  0.1480 -0.0140
39671W        W95912  11.584  10.843  20.546 -0.1394  0.2712 -0.2619
39672W        W95913   2.899   9.854   5.975 -0.2938 -0.0503  0.1833
39673W        W95914  31.780  19.455  21.719  0.0432  0.5339 -0.3952
39674W        W95915   0.805  19.805  10.969  0.1446 -0.3090  0.2323
39675W        W95916  20.556  33.345  17.145  0.2850  0.0151  0.2609
39676W        W95917  24.662  29.926  17.831 -0.0218  0.0099 -0.2514
39677W        W95918   9.386  21.803  11.122 -0.1056  0.3073 -0.4161
39678W        W95919  19.304  10.448  10.241  0.2220 -0.1189  0.1736
39679W        W95920   0.124  24.412   0.438  0.0408  0.0182  0.1557
39680W        W95921   9.093  31.594  23.607  0.2711  0.0521  0.0624
39681W        W95922  11.352   0.816  25.360  0.3467 -0.2636 -0.1238
39682W        W95923  35.110  14.440  19.289 -0.1578  0.3887 -0.2368
39683W        W95924   3.442  18.742  25.691 -0.0733 -0.0736 -0.2344
39684W        W95925   4.907  29.549   6.986  0.0548 -0.3830 -0.2283
39685W        W95926  29.811  19.738  13.967 -0.2299 -0.2644  0.2100
39686W        W95927  28.615  27.863  21.945  0.0448  0.0660 -0.0709
39687W        W95928  26.642   6.418   2.222 -0.0450 -0.0026  0.1994
39688W        W95929  32.836  33.322  19.425  0.0751 -0.1982  0.0178
39689W        W95930  30.229  24.833  19.343 -0.2123 -0.0283 -0.1540
39690W        W95931  32.815  11.824  25.873 -0.1190  0.2308 -0.5045
39691W        W95932   7.149  34.889  12.206  0.2179  0.2258  0.1332
39692W        W95933  26.322  12.611  23.285 -0.1136  0.1209  0.0825
39693W        W95934  23.213   7.671   1.072  0.1607 -0.3477 -0.1458
39694W        W95935   8.004  10.254  19.653 -0.1007  0.2261  0.0698
39695W        W95936  17.022   6.243   9.673 -0.1974 -0.0142 -0.1763
39696W        W95937   1.265  34.441  17.235  0.1983  0.0390  0.1252
39697W        W95938   4.782  13.765   0.302 -0.1925  0.4301  0.0858
39698W        W95939  13.797  26.085   4.739 -0.3125  0.0206 -0.0673
39699W        W95940   6.409  23.387   0.801 -0.2291  0.1872  0.0646
39700W        W95941   7.362   5.574  19.480  0.2029 -0.0820  0.0654
39701W        W95942  24.827  15.745   0.360 -0.3343 -0.0035  0.2738
39702W        W95943   9.571  30.591  10.713  0.0159  0.0290 -0.2044
39703W        W95944   1.519  30.406   1.015  0.2263  0.0853  0.2304
39704W        W95945  13.267  25.487   3.567  0.1858  0.1247 -0.0749
39705W        W95946  10.945  12.751  26.221 -0.0331  0.4301 -0.2034
39706W        W95947   0.037  34.008  14.753 -0.1295 -0.0501 -0.0280
39707W        W95948  18.111   0.310  17.129 -0.0537 -0.2303 -0.0215
39708W        W95949  32.563  18.241  12.372  0.0395  0.0131 -0.5049
39709W        W95950  30.238   4.327  24.284  0.4942 -0.0835  0.0308
39710W        W95951  13.592   1.719   3.881  0.0258 -0.0030 -0.0671
39711W        W95952  16.174   8.832  10.092 -0.3152  0.0599  0.1480
39712W        W95953  35.377   0.567  23.522  0.1199 -0.0194  0.1454
39713W        W95954  32.258  28.108  13.130  0.0958 -0.1066  0.0462
39714W        W95955  19.720  28.809  25.299  0.0226 -0.0236 -0.0989
39715W        W95956  24.005  18.755   0.919 -0.2021  0.0930  0.1669
39716W        W95957   9.955  12.304   5.543  0.0445 -0.0909  0.1359
39717W        W95958   2.091  10.356  24.534 -0.1099 -0.3432 -0.3333
39718W        W95959  22.272  27.638   4.008  0.0779  0.0123  0.1222
39719W        W95960   9.207   3.992  11.393  0.0943  0.4986  0.0771
39720W        W95961   0.985   5.118   6.847  0.3304  0.1803 -0.1676
39721W        W95962  35.245  23.857  15.881  0.1420  0.2379 -0.1406
39722W        W95963   5.250  34.211  11.424 -0.2201  0.2416  0.1065
39723W        W95964  29.355  12.484   0.152  0.1318 -0.0017 -0.1459
39724W        W95965  33.571  19.966   6.051  0.3891 -0.1674  0.0794
39725W        W95966  28.276   6.964  17.554 -0.0585 -0.0239 -0.1955
39726W        W95967   8.680   8.765   3.271 -0.1806  0.2527 -0.0925
39727W        W95968  24.997  32.471  24.090 -0.1505 -0.1438  0.3893
39728W        W95969  11.415  27.373  11.502  0.0880  0.2470  0.0022
39729W        W95970  20.770  34.292   2.197 -0.2535 -0.2648 -0.2380
39730W        W95971  17.412  28.434  24.440  0.1575  0.0198  0.0546
39731W        W95972  16.845  28.067   8.598 -0.0689  0.0299 -0.1592
39732W        W95973  21.497   9.379   6.433  0.2044 -0.1622 -0.0723
39733W        W95974  24.231  24.181  15.953  0.0497  0.0026 -0.2016
39734W        W95975   3.379  32.632  11.113 -0.3261  0.1598 -0.0105
39735W        W95976  26.812   8.303  15.331 -0.1150  0.0326  0.0950
39736W        W95977   9.533  23.218  14.044  0.2141 -0.0156  0.2683
39737W        W95978  17.707   9.172   7.442  0.2029 -0.0187 -0.2182
39738W        W95979  33.019  27.068  12.897  0.0140 -0.0095 -0.2651
39739W        W95980  14.305   4.957   5.116 -0.0365 -0.4992  0.1595
39740W        W95981   0.399  18.431  24.337 -0.2625  0.1420 -0.2778
39741W        W95982  15.550  30.982  20.835 -0.1500  0.0827 -0.2804
39742W        W95983  19.963  17.691  17.090  0.0260 -0.0647  0.2491
39743W        W95984  11.649  18.658  13.917  0.0175 -0.1076 -0.0350
39744W        W95985   0.329  11.724  23.877 -0.1276 -0.0210  0.0002
39745W        W95986  34.879  31.546   3.868  0.2560 -0.4201 -0.0624
39746W        W95987  18.525  11.168  20.403 -0.2161  0.1891 -0.1838
39747W        W95988  14.723  30.255   3.923 -0.0131  0.0205 -0.0090
39748W        W95989  32.117  13.035  19.698  0.3686  0.1473 -0.0142
39749W        W95990  27.211  14.961  19.209  0.1662 -0.0807  0.0950
39750W        W95991  25.488  29.316   3.047 -0.3120 -0.2181 -0.2046
39751W        W95992   4.279   3.823  19.140 -0.1935 -0.1151  0.1200
39752W        W95993  30.794   6.511  12.600 -0.1553 -0.3513  0.3500
39753W        W95994  27.586  18.930  23.004 -0.2627 -0.0671 -0.0002
39754W        W95995  24.942  22.908  11.042 -0.1392 -0.0522 -0.0867
39755W        W95996   8.329  15.110  12.570 -0.0349  0.0351  0.4798
39756W        W95997  33.064  29.439   0.367 -0.0298  0.1825 -0.3024
39757W        W95998  16.306   1.280   4.876 -0.0429 -0.2821  0.3147
39758W        W95999   5.816  17.109  19.074 -0.1776  0.0013  0.0898
39759W        W96000  13.576  33.326   2.855  0.0143  0.4725  0.3053
39760W        W96001  15.582  11.500  13.994  0.1369 -0.2177  0.2834
39761W        W96002  13.021  17.129   8.113  0.0171 -0.3718  0.2874
39762W        W96003  12.131  11.990  21.227 -0.0814  0.0567 -0.3382
39763W        W96004   8.948  29.497  12.552  0.1122 -0.2650  0.5633
39764W        W96005   3.833  25.703  20.984 -0.1093 -0.0809 -0.1608
39765W        W96006  22.583  16.217  16.233 -0.1730 -0.2545 -0.1067
39766W        W96007  31.293  17.895   6.118  0.1244 -0.2637 -0.3402
39767W        W96008  27.981  20.634  23.595  0.1883  0.1237 -0.1125
39768W        W96009  21.272  13.580  25.514 -0.2592 -0.1012  0.0873
39769W        W96010  11.021  16.635   1.820 -0.2885  0.1417  0.1646
39770W        W96011  28.682  15.789  24.706  0.1015  0.0117  0.1966
39771W        W96012  25.684   9.834  13.151  0.1706  0.3574  0.1270
39772W        W96013  12.462  24.639  12.800 -0.3131  0.0302  0.0552
39773W        W96014  26.845   4.989  20.137  0.3023  0.0437  0.0049
39774W        W96015  14.874  19.433   4.986 -0.2431  0.0032 -0.2492
39775W        W96016   9.837   8.036  12.386  0.0763 -0.1591  0.0076
39776W        W96017  12.912  23.336  12.565  0.2349 -0.3036  0.1273
39777W        W96018   2.659  22.736  22.350  0.0337 -0.2662  0.4382
39778W        W96019   4.813   9.679  21.047  0.0068  0.2432  0.0490
39779W        W96020  35.043  29.908   6.367 -0.3781  0.2239 -0.0305
39780W        W96021  10.591   1.046  22.618  0.0944  0.1718  0.0261
39781W        W96022   8.838   8.192  22.984  0.0166 -0.0625 -0.1089
39782W        W96023  30.295  27.994   1.262 -0.1971  0.3662 -0.0473
39783W        W96024  10.563  33.032   5.089 -0.3231  0.1039  0.2174
39784W        W96025   0.645  30.311  21.054  0.3662  0.2884 -0.2500
39785W        W96026  18.287   7.008   3.981 -0.1135  0.3569  0.1328
39786W        W96027   9.199  17.468  23.434  0.1946 -0.3020 -0.0696
39787W        W96028   2.359   6.400  22.242  0.1959  0.0279  0.1916
39788W        W96029  20.358  26.296   4.581  0.1932 -0.1657  0.0356
39789W        W96030  19.335  12.249   3.841  0.2803  0.2156 -0.3272
39790W        W96031  23.759  28.853  25.533 -0.2265  0.1487  0.1324
39791W        W96032  14.090   9.089   8.461  0.0173 -0.1348  0.3248
39792W        W96033  10.912  34.479  11.588 -0.0454  0.0670 -0.2851
39793W        W96034  12.265   2.190   7.784  0.2326  0.2929 -0.2428
39794W        W96035  13.638  33.886   8.119 -0.2424 -0.0367  0.0687
39795W        W96036  26.186  25.576  17.617  0.1083 -0.5610 -0.1514
39796W        W96037   4.780  29.957  24.914 -0.1964  0.0427  0.2391
39797W        W96038  29.093  14.206  15.100 -0.1642 -0.1506 -0.0385
39798W        W96039  27.476  32.479  15.339  0.0867  0.1883  0.3703
39799W        W96040  34.716   4.342   2.072 -0.2411  0.0192 -0.1041
39800W        W96041  15.862  13.025   0.103  0.2795 -0.0342 -0.0338
39801W        W96042  24.279   3.557   4.769  0.2246  0.3478  0.1298
39802W        W96043  32.824  10.280  13.479 -0.1423  0.1360  0.0064
39803W        W96044  18.652  14.227  21.432  0.3551  0.3093  0.3425
39804W        W96045  26.857  23.856  16.294  0.2211  0.1733 -0.0496
39805W        W96046  11.199  15.845   7.711 -0.1631  0.0880 -0.0316
39806W        W96047  32.166  30.064  12.043 -0.0928  0.1166  0.2199
39807W        W96048   8.196  29.684   2.550 -0.0799 -0.2426  0.2448
39808W        W96049  27.208   7.371  11.403  0.2347 -0.4351  0.0468
39809W        W96050  25.848  19.865  19.047  0.0523  0.2373  0.3834
39810W        W96051   0.169   4.950  20.130  0.1403 -0.1642  0.2105
39811W        W96052  25.279  30.642  25.183  0.0203 -0.1799  0.1150
39812W        W96053  28.216  14.837  12.493  0.1630 -0.0254  0.1420
39813W        W96054  17.151   4.913  11.726 -0.1687 -0.0160  0.2164
39814W        W96055  32.061   2.915  12.748  0.0733  0.1512 -0.0397
39815W        W96056  26.941  27.391  15.014  0.1303 -0.0004  0.0177
39816W        W96057   3.783  35.056  24.054  0.0351  0.1636 -0.1549
39817W        W96058   1.275   4.519  17.741  0.1448 -0.1321  0.2654
39818W        W96059   1.075  20.495  24.359 -0.1200  0.2741  0.5400
39819W        W96060   6.452   3.639  20.202  0.3366  0.1871 -0.2230
39820W        W96061  12.225  34.039  20.285 -0.2996  0.0329  0.1420
39821W        W96062  21.342   6.715   6.486  0.3543 -0.1669 -0.1455
39822W        W96063   7.039  25.798  25.496  0.1280 -0.3479  0.0366
39823W        W96064  10.229  21.832   3.901  0.6285 -0.3069  0.2810
39824W        W96065  13.716  27.227   3.090  0.1661 -0.1550 -0.0781
39825W        W96066   1.687  14.997  13.507 -0.1533 -0.3178 -0.0586
39826W        W96067  14.915  33.666   2.917 -0.1665  0.3800 -0.1990
39827W        W96068   8.086  31.179  23.036 -0.0493 -0.1071 -0.2113
39828W        W96069   7.636   1.547   3.086 -0.0376  0.0916 -0.0069
39829W        W96070   8.412  10.845  18.771  0.2573  0.0429 -0.0594
39830W        W96071  25.161  31.592  15.911 -0.0231  0.0772 -0.0849
39831W        W96072   6.871  29.436  26.231  0.0820  0.1897  0.2160
39832W        W96073  24.629  33.537  25.307  0.0376 -0.0840  0.3739
39833W        W96074  28.324   1.564  14.247  0.1463  0.0680 -0.2019
39834W        W96075  31.532   9.453   0.153  0.1208  0.3167 -0.2815
39835W        W96076   0.814  10.075  13.810 -0.0061  0.0855  0.0853
39836W        W96077  25.013  12.842  18.650  0.1193 -0.0281 -0.3169
39837W        W96078  10.831   6.106   0.346 -0.2719 -0.0896  0.2019
39838W        W96079   1.453  25.522  19.730 -0.1118 -0.0681  0.1207
39839W        W96080   1.743   9.314  24.849 -0.0154 -0.2526 -0.0418
39840W        W96081   7.921  33.724   9.629 -0.1814  0.0981  0.2357
39841W        W96082   8.616  16.697  12.632  0.2042  0.1697  0.2203
39842W        W96083  26.132  23.647  20.114 -0.1686 -0.1390 -0.1703
39843W        W96084  17.828  16.821   5.354 -0.1163 -0.0447 -0.3083
39844W        W96085   5.805  32.259  20.872 -0.1640 -0.3294 -0.1606
39845W        W96086  27.022   4.677   2.876 -0.1051 -0.1118 -0.0697
39846W        W96087  24.665  33.401   0.661  0.0688  0.1397 -0.0952
39847W        W96088   9.084  34.528  15.521 -0.0105 -0.0212  0.2562
39848W        W96089  25.574  23.454  13.413 -0.1766  0.0960 -0.1397
39849W        W96090  18.331  12.907  20.187  0.2298  0.0985 -0.4530
39850W        W96091  11.098  23.527  14.658  0.1136  0.1001 -0.0883
39851W        W96092   4.859  34.133  21.780 -0.1267  0.0260  0.2163
39852W        W96093   4.585  26.170  22.632 -0.1731  0.0556  0.0572
39853W        W96094  30.836  23.141  21.680  0.3030 -0.0638  0.0796
39854W        W96095  26.180   5.487  13.113  0.2977 -0.0660 -0.0676
39855W        W96096  28.817   0.216  17.560 -0.1257 -0.1241  0.0612
39856W        W96097   9.345  21.062   5.282  0.2121  0.0021 -0.4680
39857W        W96098   1.332  16.876   0.391  0.0900 -0.3199 -0.1157
39858W        W96099   9.707   2.310   7.458 -0.1400  0.0997 -0.4976
39859W        W96100   5.063  20.661  21.822 -0.0430 -0.0940 -0.2576
39860W        W96101  11.767  25.848  14.231  0.1771  0.0909  0.0053
39861W        W96102  19.324  18.651  20.672 -0.1026  0.0433 -0.2002
39862W        W96103  11.790  27.298  12.804 -0.1621 -0.0261  0.0392
39863W        W96104  18.652   5.848   9.315  0.3552 -0.0246 -0.1645
39864W        W96105   8.950  15.478   7.834  0.0695  0.4425  0.0559
39865W        W96106   4.215  33.241   5.052  0.0230  0.2035 -0.1757
39866W        W96107  32.796  18.807   9.883 -0.4175  0.0518 -0.0049
39867W        W96108  34.363  25.908   0.831  0.3200  0.0978  0.2004
39868W        W96109   4.007   0.333  11.273 -0.3055  0.2780  0.0354
39869W        W96110  12.834  17.218  25.734  0.0483  0.2054 -0.1985
39870W        W96111  11.886  12.435   8.355 -0.3633 -0.2864  0.0752
39871W        W96112  10.643   3.042  21.409 -0.2501 -0.2285  0.0700
39872W        W96113  13.252   9.552  19.671  0.0213 -0.3319  0.0723
39873W        W96114  21.555  34.907  18.459 -0.4770  0.1963 -0.1211
39874W        W96115  27.343  14.372   7.562  0.1647  0.0448 -0.1161
39875W        W96116  23.516  14.155  21.592  0.1919  0.1502  0.3120
39876W        W96117  15.300  25.476  13.691  0.1898  0.2730 -0.2541
39877W        W96118  14.078   9.253  20.987  0.2177 -0.1387 -0.1025
39878W        W96119  20.240  25.964   0.195 -0.1431 -0.3199 -0.0020
39879W        W96120  16.179  29.466  23.633 -0.2366 -0.2385 -0.1820
39880W        W96121  20.813   2.145   0.974 -0.1221  0.2108 -0.3238
39881W        W96122  26.675  13.959   0.666 -0.0664  0.2258 -0.2227
39882W        W96123   9.521  19.765  22.835 -0.1176  0.1959 -0.1564
39883W        W96124   6.584   7.893  21.302  0.0432  0.2533  0.0625
39884W        W96125   3.597  23.950  20.080  0.2782  0.2885  0.0376
39885W        W96126  29.337  27.216  21.262  0.1868 -0.1304  0.2435
39886W        W96127   8.961  15.020   6.304 -0.0825 -0.0407 -0.2323
39887W        W96128   6.366   8.761  21.011  0.0527 -0.1913 -0.0364
39888W        W96129  28.682  11.019  20.004  0.1474  0.1986  0.1774
39889W        W96130  13.930  25.834   9.277  0.0702 -0.1850  0.0125
39890W        W96131   2.015  21.261  21.173  0.3019  0.2713 -0.2665
39891W        W96132   5.100  13.333   0.308 -0.1859 -0.1895 -0.0585
39892W        W96133   7.405  27.073   0.438 -0.2038  0.0647 -0.2907
39893W        W96134  34.050  32.199  22.583  0.2305  0.1863 -0.0394
39894W        W96135  23.991  34.336  12.376  0.2596  0.0629 -0.1031
39895W        W96136  15.923   9.730   8.229  0.1506 -0.0193 -0.1631
39896W        W96137  16.381  33.909   5.108  0.1888 -0.0568  0.1273
39897W        W96138  23.353  20.797  20.486  0.1168  0.1924  0.0292
39898W        W96139  28.262  16.644  25.603 -0.2222  0.1459 -0.2028
39899W        W96140  15.043   5.692   6.885 -0.0702  0.0595  0.2771
39900W        W96141  31.192  12.204  24.331 -0.1576 -0.2505  0.2149
39901W        W96142   0.008   8.961  16.414 -0.1181 -0.3335 -0.2857
39902W        W96143   1.423   0.300  16.792 -0.1842 -0.1241  0.2088
39903W        W96144  15.788  17.082   7.215 -0.0552  0.1806 -0.0053
39904W        W96145  34.945  17.819  12.628  0.0206  0.0365  0.0375
39905W        W96146  13.279  30.210  24.425  0.2502  0.2864 -0.0452
39906W        W96147  28.865  26.998  25.310 -0.0912  0.0908  0.0051
39907W        W96148   6.539  32.199   2.464  0.0186  0.0497  0.3912
39908W        W96149  15.986   4.600   5.138 -0.2845  0.2114 -0.0547
39909W        W96150   7.368  10.675   0.837  0.0529 -0.0365 -0.1302
39910W        W96151  16.158  31.121  26.094  0.0523 -0.2053 -0.1846
39911W        W96152   0.579  22.251  24.825 -0.1562 -0.2118  0.0625
39912W        W96153  17.971  16.310  10.109  0.0305  0.0174 -0.1226
39913W        W96154  31.940  11.140  17.059 -0.0788 -0.1631 -0.0520
39914W        W96155  16.851  35.262   7.610 -0.1914 -0.0786  0.2665
39915W        W96156  28.924  17.260  12.776 -0.0600  0.3129 -0.2436
39916W        W96157  31.282  10.216  23.398 -0.2507 -0.0694 -0.5395
39917W        W96158  30.807  21.954  15.488 -0.2782 -0.1808 -0.0910
39918W        W96159  29.627  27.411  14.510 -0.0301 -0.1355  0.0475
39919W        W96160  13.772  11.862   5.135 -0.3778  0.1075 -0.2743
39920W        W96161  17.379   2.375  25.938  0.2529 -0.2176 -0.0949
39921W        W96162  32.563  18.676  10.776  0.0444 -0.0420 -0.1839
39922W        W96163  27.311  27.104  12.955 -0.0715 -0.1489  0.2322
39923W        W96164  14.907   1.313   0.488 -0.0279  0.2014  0.1082
39924W        W96165  17.794   2.803   7.274  0.0304  0.3954 -0.1170
39925W        W96166  33.014  34.850   2.889  0.2379 -0.0435 -0.1929
39926W        W96167  10.827  20.093  24.849  0.0087  0.0844 -0.0813
39927W        W96168  34.007  30.921   1.014  0.3476 -0.0923 -0.0648
39928W        W96169  11.482  27.561  14.376  0.1986 -0.0765 -0.2803
39929W        W96170   5.815  32.840   8.982 -0.0949  0.0647  0.0534
39930W        W96171  30.351  29.265   1.046 -0.1630 -0.1471  0.1226
39931W        W96172   8.346  29.558  10.750  0.1245  0.1563  0.2059
39932W        W96173  27.278  22.341  16.033 -0.0877 -0.0445  0.0656
39933W        W96174   5.868  17.683   6.769 -0.0413  0.0818  0.2543
39934W        W96175  20.810  33.665  16.136  0.3412 -0.1247 -0.0112
39935W        W96176  20.344  26.185  25.989  0.3954 -0.0608 -0.1511
39936W        W96177  30.228   1.143  16.798  0.0628  0.0075  0.0557
39937W        W96178   6.580  12.400   2.732  0.0137 -0.1870 -0.0639
39938W        W96179   1.475   6.466   4.096 -0.2008  0.0790 -0.1977
39939W        W96180   7.941  21.615   7.612  0.0601  0.0038 -0.0667
39940W        W96181   3.434  20.389   3.382 -0.0375  0.0157  0.0449
39941W        W96182  10.508  31.668  25.403  0.1704  0.0229 -0.3244
39942W        W96183   2.305  32.517   1.204 -0.2048  0.1205 -0.0562
39943W        W96184  11.698  21.268   0.938  0.1595 -0.3105 -0.4037
39944W        W96185  29.829  14.219  21.437  0.2065  0.3575  0.2580
39945W        W96186  17.682  28.475  23.843  0.0633  0.2675 -0.1851
39946W        W96187  16.237  29.369  21.292 -0.1180 -0.0566  0.2236
39947W        W96188  28.698  20.008  17.009 -0.3707  0.4051  0.0748
39948W        W96189  20.392  16.747  23.627  0.0647  0.0363  0.0187
39949W        W96190  21.786   5.869   2.584  0.0127 -0.3107 -0.0099
39950W        W96191  12.506  29.563   2.455  0.1217  0.1090 -0.1669
39951W        W96192  29.472  24.541  15.376 -0.0747  0.3196  0.0947
39952W        W96193  19.734  20.549  17.377 -0.0695  0.2591 -0.1507
39953W        W96194   2.921  28.187   7.609 -0.0805 -0.1041 -0.1764
39954W        W96195   9.631  25.642  17.528 -0.3346 -0.3279  0.2035
39955W        W96196  26.398  11.606  19.125 -0.2510  0.2028 -0.3177
39956W        W96197  23.090  32.541   3.310  0.2295  0.0469 -0.3916
39957W        W96198  29.006  29.888  11.247 -0.2200  0.4386 -0.1102
39958W        W96199  17.309  28.630  21.594 -0.4089  0.0759 -0.2269
39959W        W96200  24.303   9.716  17.091 -0.0581 -0.0919 -0.0943
39960W        W96201  24.437  10.427  16.478  0.1688  0.1069 -0.0589
39961W        W96202  26.269   7.714  11.187 -0.0590 -0.4077  0.0912
39962W        W96203   2.370  13.762  25.692 -0.2561 -0.0429  0.1190
39963W        W96204   5.144  29.897  10.884  0.1377 -0.0259 -0.0563
39964W        W96205   3.686  19.065  25.326 -0.0903 -0.0903  0.0952
39965W        W96206   0.583  12.387  12.401 -0.1599 -0.2720  0.3501
39966W        W96207  33.642   3.216  13.454 -0.0228 -0.1743 -0.0741
39967W        W96208   3.303   9.727   4.854  0.1472  0.1251 -0.2192
39968W        W96209  24.322  21.620  14.690  0.1622  0.1060  0.0166
39969W        W96210   4.205  17.310   4.624  0.0737  0.1712  0.0363
39970W        W96211  19.017  12.017   1.405 -0.0016  0.0378  0.1529
39971W        W96212  34.825  14.829  18.331  0.0243  0.2166  0.0562
39972W        W96213  14.789  12.839   9.574 -0.0202  0.1495 -0.1210
39973W        W96214   8.386  19.012  10.466 -0.0538 -0.0193 -0.0429
39974W        W96215  34.061   6.979  14.984  0.1985  0.1685  0.0374
39975W        W96216   9.959  13.067   0.698  0.0780  0.0674 -0.1785
39976W        W96217  11.354  11.545   3.813  0.2073  0.2769  0.0871
39977W        W96218  13.210  14.588   1.784  0.1346  0.1759  0.1189
39978W        W96219   9.848  31.487  25.126  0.2176 -0.0038  0.2357
39979W        W96220  12.638   2.994   2.990  0.0114 -0.3855  0.1272
39980W        W96221  16.307  17.697   4.453  0.1820 -0.1641  0.1176
39981W        W96222  13.875  26.527   0.360  0.1327  0.1858 -0.0363
39982W        W96223  25.963  35.278  23.554  0.3428 -0.3030  0.1166
39983W        W96224   0.672  20.451  16.798  0.1316  0.0437 -0.0792
39984W        W96225  33.443  23.680  18.014  0.0032 -0.3047 -0.3917
39985W        W96226  30.800  23.573  17.852  0.0185  0.0489  0.1182
39986W        W96227  32.933  21.589  15.304 -0.0192 -0.1703  0.1297
39987W        W96228   8.897  15.670   9.013  0.3248 -0.1603 -0.1515
39988W        W96229   8.451  33.181  21.978  0.2270 -0.0469 -0.0171
39989W        W96230  10.653  31.982   2.796  0.1834 -0.2579  0.2276
39990W        W96231   4.056  12.533  23.433  0.3372  0.0671  0.2312
39991W        W96232  34.559  32.075   2.572  0.1608 -0.0540  0.2509
39992W        W96233  33.705  33.326   0.994  0.1146  0.1839  0.0631
39993W        W96234  23.417  14.698  12.374 -0.1067  0.2391 -0.0681
39994W        W96235  24.251  27.110  15.277 -0.1299  0.2569 -0.0822
39995W        W96236   3.073  15.888   4.742  0.0092 -0.0371 -0.1235
39996W        W96237  24.806   7.066   0.652 -0.4395  0.2413  0.0548
39997W        W96238  25.673  14.233  21.560  0.0728 -0.0433 -0.0174
39998W        W96239  18.136   2.796  23.009 -0.3649  0.1784  0.0560
39999W        W96240  25.868  28.721   5.162  0.0520  0.0471 -0.0894
40000W        W96241  32.699  24.605  24.413 -0.0580 -0.1160  0.1192
40001W        W96242  30.287  34.887  15.049  0.0415  0.2086  0.0143
40002W        W96243  11.922  18.799  10.283 -0.4230 -0.0241  0.2570
40003W        W96244  15.188  26.789  15.048  0.0070  0.1481 -0.0187
40004W        W96245  19.108  21.533  20.701 -0.2244  0.0228 -0.2259
40005W        W96246   7.925  28.521   9.686 -0.1186  0.1490  0.0252
40006W        W96247  30.445  24.456  13.915 -0.0408 -0.1681 -0.4977
40007W        W96248   8.586  15.347   6.298  0.0080  0.1846 -0.2709
40008W        W96249   9.659  25.868  24.817 -0.0682 -0.4910  0.2296
40009W        W96250  26.208  18.675  24.665  0.1033 -0.0238  0.2394
40010W        W96251   7.156  15.395   5.408 -0.1391 -0.5329 -0.0357
40011W        W96252  29.233  26.495  23.142  0.1547 -0.1208  0.1220
40012W        W96253  19.927  25.081  21.522  0.0002  0.3691  0.1140
40013W        W96254  21.174  12.887   3.005 -0.1637  0.2201  0.2761
40014W        W96255  26.758  19.698  22.927  0.2598  0.0901  0.0319
40015W        W96256   9.300   8.707   4.064  0.0586  0.0498  0.1242
40016W        W96257  34.651  14.534  15.281  0.2986  0.0902  0.2347
40017W        W96258   0.265   2.612  16.818 -0.1058  0.0153  0.0386
40018W        W96259   1.883   7.404  14.245 -0.0331  0.1805 -0.1808
40019W        W96260  33.764  27.292  22.002 -0.2021 -0.0997 -0.0838
40020W        W96261  30.992  12.479  18.646  0.2697  0.2531  0.4920
40021W        W96262  22.465   2.329  21.401  0.2613 -0.0010 -0.3002
40022W        W96263  16.417   8.447  24.145  0.2105  0.3282 -0.2130
40023W        W96264  28.267  12.485  20.695  0.2375 -0.2943  0.1106
40024W        W96265  17.415  24.282  14.114  0.0149 -0.0395  0.2251
40025W        W96266  11.034   6.333  24.437  0.0605  0.0831  0.0599
40026W        W96267  12.886   7.879   1.020 -0.0471 -0.1625 -0.1219
40027W        W96268  32.329  33.472  24.413 -0.2175 -0.2709  0.1307
40028W        W96269  20.609  22.838  20.722  0.3041  0.1272 -0.3966
40029W        W96270  22.350  11.371   4.520  0.2322  0.2028 -0.4762
40030W        W96271  12.340  32.942   6.445 -0.2066 -0.2466  0.0681
40031W        W96272  30.724  11.631  14.022 -0.2209 -0.0275 -0.0070
40032W        W96273   0.095  12.167   2.058 -0.1617 -0.1476 -0.2344
40033W        W96274  27.312   9.014  12.595 -0.0018  0.3602  0.0198
40034W        W96275  11.082   1.547  19.511  0.0083 -0.0609  0.0952
40035W        W96276   9.458  25.935   4.871  0.1622 -0.5594 -0.1804
40036W        W96277  14.411  32.504   8.579 -0.3238  0.2120 -0.1193
40037W        W96278   1.461  19.217   0.762  0.1821 -0.0201 -0.0560
40038W        W96279  32.142  13.520  23.655 -0.2369  0.0495 -0.1841
40039W        W96280   6.459  26.644  12.969 -0.1174 -0.0966 -0.2770
40040W        W96281  10.663   5.030  24.142  0.2194  0.4199  0.2470
40041W        W96282  21.608   0.112  19.174 -0.0965  0.0152 -0.2225
40042W        W96283  24.504   9.763  22.492  0.0935 -0.2055 -0.1476
40043W        W96284  20.428  31.035  23.396 -0.1717 -0.3158 -0.3907
40044W        W96285  12.675   9.397  25.556 -0.1730 -0.0795 -0.2518
40045W        W96286  30.937  34.099  21.059  0.1209  0.0034  0.3781
40046W        W96287  30.991  25.757  22.365  0.1644 -0.1943  0.0946
40047W        W96288   5.389  21.157   5.064 -0.0897 -0.3183  0.1679
40048W        W96289  16.805  26.683  12.875 -0.4279 -0.0071  0.1137
40049W        W96290  20.502  17.682  24.371 -0.0439 -0.2289  0.2791
40050W        W96291  22.000   3.653   6.925 -0.0159 -0.0251 -0.0285
40051W        W96292   9.983  31.188  17.071 -0.1254  0.1405  0.0150
40052W        W96293  34.485  28.263  24.969  0.0585 -0.0663 -0.2297
40053W        W96294  15.478   3.439   0.488 -0.0781 -0.1966  0.2718
40054W        W96295  19.880  34.684  18.843 -0.2671  0.3939  0.3805
40055W        W96296  13.080   1.629   8.893  0.2600 -0.4715 -0.1961
40056W        W96297  15.688   8.699  10.066  0.0833  0.0345  0.1497
40057W        W96298  15.961   8.564  19.390 -0.1125 -0.0072 -0.4140
40058W        W96299  22.833  25.076   3.174  0.2017  0.2919 -0.1254
40059W        W96300   5.327   0.380   5.218 -0.1644  0.1851  0.0396
40060W        W96301   9.820  28.662  15.905 -0.2248  0.1819  0.0218
40061W        W96302  13.210  18.695  23.918 -0.0056 -0.1408 -0.5061
40062W        W96303   6.995   2.161   3.040  0.2592  0.0246 -0.3824
40063W        W96304  24.530  32.870  24.644  0.0206 -0.1867 -0.1053
40064W        W96305  10.743  26.752  14.475 -0.3168 -0.0057  0.2388
40065W        W96306  11.255  11.715  11.699  0.1349  0.3349 -0.0070
40066W        W96307   1.948  35.179  25.488  0.1599 -0.0859  0.1884
40067W        W96308  10.489  14.713  19.448 -0.0501  0.2431  0.1274
40068W        W96309  10.601   1.372   6.718  0.0320 -0.0091 -0.3434
40069W        W96310   8.151   6.964  12.356  0.0340  0.0099  0.1281
40070W        W96311  30.182  20.843   8.727  0.0322 -0.1640 -0.3363
40071W        W96312  29.927  33.737  11.806  0.2290  0.2307  0.5111
40072W        W96313   1.805   6.685  17.406  0.2317 -0.2376 -0.0067
40073W        W96314  11.511  11.320   2.240 -0.1109 -0.2956  0.2007
40074W        W96315   2.714  27.286  18.933 -0.0759 -0.1660  0.0233
40075W        W96316   5.455  25.061  22.362  0.1402  0.2780  0.4038
40076W        W96317   5.652   1.592   7.976 -0.1751  0.0011  0.2278
40077W        W96318  33.882  24.944  20.816  0.1744  0.2302 -0.2036
40078W        W96319  23.951  14.553  17.248 -0.0331 -0.1305 -0.0379
40079W        W96320   7.766  27.719  21.229  0.0138  0.0045  0.0229
40080W        W96321  35.266  33.200  21.007  0.0445  0.0887  0.0395
40081W        W96322  27.931  20.579   8.002  0.2363 -0.3480 -0.0006
40082W        W96323  16.619   5.017  10.816  0.1230  0.0264  0.4038
40083W        W96324   4.047  30.351   4.224  0.0848 -0.0134 -0.0135
40084W        W96325  22.164  12.165  25.167 -0.0528 -0.1588 -0.0088
40085W        W96326  24.223  26.528  11.232 -0.0145  0.1653  0.3417
40086W        W96327  34.469   7.024   0.947 -0.1102  0.2369  0.3736
40087W        W96328   9.419  26.671  25.536  0.0591  0.3014  0.1751
40088W        W96329   8.442   8.259  12.776  0.1323  0.3019 -0.1187
40089W        W96330  30.423  27.809  14.270  0.1334 -0.2496 -0.0105
40090W        W96331  24.780  33.754   4.283 -0.4136  0.1609  0.0596
40091W        W96332   6.433   2.508  25.508  0.0674  0.0639  0.1289
40092W        W96333  23.296   6.901   5.292 -0.0776  0.1734 -0.2864
40093W        W96334   2.860  20.942  24.732 -0.1981 -0.0469 -0.3026
40094W        W96335  25.346  22.570  14.380 -0.0984 -0.1254  0.0308
40095W        W96336   2.585  25.340   5.758 -0.1098  0.1638 -0.0969
40096W        W96337   6.331  10.902  25.969 -0.2433  0.1222 -0.2601
40097W        W96338  25.626  14.764  17.680 -0.0145 -0.1836 -0.1375
40098W        W96339  19.250   2.112   8.754  0.0677 -0.1231  0.1686
40099W        W96340  10.653  10.618   7.352  0.2224  0.0461 -0.0253
40100W        W96341  11.263   3.495  24.388  0.2340 -0.0648  0.1308
40101W        W96342   4.828  31.069  11.637  0.0021  0.0290 -0.0138
40102W        W96343   3.146   6.270   1.798 -0.0993  0.0835 -0.0661
40103W        W96344  25.302   0.508  23.232  0.0774  0.2587  0.0053
40104W        W96345   9.268   7.735  20.967  0.0096  0.1748 -0.0887
40105W        W96346   0.267  27.619   3.700  0.1681 -0.0843 -0.1814
40106W        W96347  15.827  10.980  13.014  0.1182 -0.0206 -0.1937
40107W        W96348  11.367  16.668  22.768  0.2927 -0.2354  0.1465
40108W        W96349   5.907   0.636  20.345 -0.0604 -0.2441 -0.0174
40109W        W96350  22.632   4.510   1.127  0.0019 -0.0693  0.1230
40110W        W96351  15.859  29.045   9.314 -0.0075 -0.0594 -0.0024
40111W        W96352  33.030  29.271   2.087  0.1940  0.1671  0.1905
40112W        W96353  34.918  20.020  20.688  0.0499  0.2486 -0.2417
40113W        W96354  12.351  17.065   1.804  0.1202  0.2770  0.2046
40114W        W96355  21.632   7.042   8.839  0.1153  0.2424  0.0102
40115W        W96356  29.139  26.932  15.987  0.1790  0.1054  0.0597
40116W        W96357   0.835  10.527   3.644  0.4550 -0.2584 -0.1005
40117W        W96358  11.661  30.391  15.888  0.0508  0.0653  0.1332
40118W        W96359  18.875  28.609   1.665  0.1822 -0.1403  0.1447
40119W        W96360   7.270  17.825   3.135 -0.1296  0.4440 -0.1571
40120W        W96361   6.069  16.586  21.935  0.1055  0.1528  0.2766
40121W        W96362  19.402  24.154   7.562  0.0712  0.2592 -0.0878
40122W        W96363   9.281   9.500   3.138 -0.3053  0.2197  0.0690
40123W        W96364  23.523  21.177  23.734 -0.2545 -0.0066 -0.0062
40124W        W96365   1.493   3.613  16.918  0.1714 -0.2620 -0.2413
40125W        W96366  26.816  15.108  25.704 -0.3491 -0.3026 -0.2841
40126W        W96367  27.340  14.142  11.648  0.0649 -0.4472  0.0250
40127W        W96368  22.579  15.441  16.953 -0.0724  0.5239 -0.1127
40128W        W96369  35.304  33.948  16.361  0.0073  0.1860 -0.1231
40129W        W96370  33.902  12.293  18.830 -0.0310 -0.0498 -0.4700
40130W        W96371   0.807  27.081   2.116  0.1782 -0.2159  0.1964
40131W        W96372  17.376  33.784  10.242  0.0534 -0.0096  0.1008
40132W        W96373  30.778   3.165  15.614 -0.3286 -0.0479 -0.3133
40133W        W96374  10.562  11.481  21.326 -0.0379  0.1787  0.1179
40134W        W96375   7.902  17.932  22.704  0.2464 -0.1870 -0.0396
40135W        W96376  29.025   5.980   0.289  0.2264 -0.1907  0.2080
40136W        W96377  21.265  18.848  19.103 -0.0932 -0.0125  0.1907
40137W        W96378  17.078   6.032  18.614 -0.3443 -0.0713  0.4108
40138W        W96379  27.304  34.997  25.159 -0.0847  0.0701  0.1440
40139W        W96380   7.655  22.354  12.088 -0.2081 -0.0098 -0.4828
40140W        W96381  23.703   2.740  17.498  0.0928  0.0619  0.6892
40141W        W96382  34.689  16.149  18.779  0.0979 -0.0776 -0.0300
40142W        W96383  27.132  16.661  21.300  0.1992  0.1011 -0.1542
40143W        W96384   6.871  12.974   4.108  0.0820 -0.2978  0.0881
40144W        W96385  20.486   3.071   1.234 -0.0311  0.0857 -0.2216
40145W        W96386  27.194  18.296  18.330  0.2900  0.1371 -0.0075
40146W        W96387  12.866  18.739   5.950  0.0807 -0.1011  0.2625
40147W        W96388   0.126   9.058  18.369 -0.0794  0.1516  0.5454
40148W        W96389  28.658  31.528  13.506  0.1563  0.1446 -0.0607
40149W        W96390   5.119  33.474   5.804  0.2737 -0.0102 -0.3069
40150W        W96391   7.299   5.115  18.414 -0.2741  0.0272 -0.1278
40151W        W96392  10.322  11.258  24.729 -0.3088  0.0484 -0.2690
40152W        W96393   0.367   4.680  19.663  0.2241 -0.0411  0.0721
40153W        W96394  12.810   4.735   2.815  0.0703 -0.1880  0.2095
40154W        W96395  28.380  17.352  15.946 -0.2072 -0.0003  0.0455
40155W        W96396   8.668   7.849   3.328 -0.0958 -0.1296 -0.1855
40156W        W96397  35.094   7.498   3.373  0.2424 -0.0864 -0.2679
40157W        W96398  11.011  14.362  13.447 -0.0564 -0.0426 -0.0689
40158W        W96399   5.649  23.840  25.765 -0.2545  0.2431  0.1898
40159W        W96400   0.659  31.837  16.435  0.0337 -0.0666 -0.0321
40160W        W96401  34.625  16.789   9.062  0.3367  0.0425 -0.2618
40161W        W96402  27.695  27.873  10.282 -0.0384 -0.0587  0.1662
40162W        W96403  31.359  28.562  12.987  0.2761  0.3583 -0.0741
40163W        W96404  28.334  12.357  18.640 -0.3030  0.1176 -0.0525
40164W        W96405  31.709   9.657   1.588 -0.1426 -0.2421  0.0015
40165W        W96406  23.223  30.475   5.164  0.0778  0.0033 -0.1898
40166W        W96407  15.639   6.826  22.216  0.1606 -0.1955 -0.2537
40167W        W96408  10.577  10.951   2.029  0.0060  0.1727 -0.2882
40168W        W96409  23.424  33.179   5.226  0.0134  0.0342 -0.0408
40169W        W96410   5.328   6.134   0.159 -0.0572 -0.0213 -0.3766
40170W        W96411  12.984   6.641   3.316  0.2471  0.0742 -0.1744
40171W        W96412   8.995  25.933  15.776  0.0044  0.0062 -0.2225
40172W        W96413  19.900   3.117   4.095 -0.2184  0.0337  0.0366
40173W        W96414   0.385   1.771   1.877 -0.0964 -0.0176  0.1534
40174W        W96415   2.938  15.005  24.404  0.1255 -0.0279 -0.1356
40175W        W96416   7.708  35.244   7.715 -0.0842  0.0067  0.1912
40176W        W96417   1.860  21.248  13.454 -0.0234 -0.2049  0.0904
40177W        W96418  24.724  19.290  24.788  0.1765 -0.1716 -0.0159
40178W        W96419  35.103  21.844   1.334 -0.1999 -0.1237  0.2105
40179W        W96420  28.479   1.940  18.902  0.1321  0.1772 -0.2827
40180W        W96421  30.576  24.827   7.771 -0.1735  0.2650 -0.1108
40181W        W96422  12.048  18.210  13.375 -0.0707 -0.1379  0.5842
40182W        W96423  12.675  10.561  12.110  0.0847 -0.1451  0.0753
40183W        W96424   4.241  27.419   7.074 -0.0090  0.0728 -0.3545
40184W        W96425  23.849   9.326  18.158 -0.3309  0.0478 -0.2836
40185W        W96426  15.835  26.444   5.623 -0.3093 -0.0312 -0.0947
40186W        W96427  33.475  13.353  14.798  0.0166 -0.3713  0.1588
40187W        W96428   1.712  24.315  18.279  0.2440 -0.1908 -0.3428
40188W        W96429  15.176   4.852  22.974 -0.3751 -0.1876 -0.3173
40189W        W96430  15.144  10.134  11.147 -0.0564  0.0306  0.0811
40190W        W96431   8.451  31.833  22.850 -0.1460  0.1482 -0.0496
40191W        W96432  28.050  14.364   5.059  0.1853 -0.2597 -0.1679
40192W        W96433   8.461  10.089  13.377 -0.0126  0.1526 -0.0513
40193W        W96434   2.341  19.868  23.718  0.1029 -0.4418 -0.3152
40194W        W96435  20.136  14.128  22.980  0.0331 -0.0794 -0.0342
40195W        W96436   0.249   2.325   0.321 -0.1629  0.0549  0.0640
40196W        W96437  28.559  23.386  24.803  0.0315 -0.1443  0.0277
40197W        W96438   2.645  15.144   2.927 -0.0583  0.2729 -0.1250
40198W        W96439  12.539  34.639   6.761 -0.2391 -0.2964 -0.2174
40199W        W96440  20.213  25.651  20.916  0.3706  0.1599  0.1085
40200W        W96441  14.329  27.162  13.456  0.1492  0.0822  0.0605
40201W        W96442  13.405  19.850   6.817 -0.0885 -0.1655  0.2335
40202W        W96443  10.402  24.527  13.438  0.0160 -0.0199  0.1397
40203W        W96444  19.764  10.577  20.556 -0.2562  0.0443 -0.3409
40204W        W96445  14.488  29.729   5.218 -0.0423  0.0336 -0.1126
40205W        W96446   4.049  27.049   8.788  0.0874  0.1636  0.4450
40206W        W96447   4.474   1.875  23.166 -0.0680  0.4345  0.1188
40207W        W96448  14.864   0.908   2.334  0.1122 -0.0300 -0.0233
40208W        W96449  31.271  13.554   6.841 -0.0910 -0.1302 -0.2144
40209W        W96450  19.859  14.216   7.236 -0.3754  0.1532  0.0521
40210W        W96451   6.028  14.625   6.059  0.0894  0.0751  0.1357
40211W        W96452  16.075  32.977   0.989  0.0105  0.3039 -0.1057
40212W        W96453  22.271  26.245  26.128  0.0942  0.1165 -0.3287
40213W        W96454  34.197   9.793  10.805  0.0990 -0.1012  0.0293
40214W        W96455  32.869  32.045  21.282 -0.0992 -0.1218 -0.0760
40215W        W96456   7.819   5.497   3.865 -0.2287  0.3619 -0.3635
40216W        W96457   8.112   3.437  20.509  0.0256 -0.0388  0.0078
40217W        W96458  19.176   2.043  22.479  0.1301 -0.3032 -0.1243
40218W        W96459  22.885   3.947  22.635  0.1742 -0.3814  0.2616
40219W        W96460  22.813  15.124  19.399  0.4638 -0.2806  0.0744
40220W        W96461  13.047  17.230  11.015  0.0230 -0.4476  0.2086
40221W        W96462  16.149  20.884  12.668 -0.0096 -0.0127  0.0829
40222W        W96463  22.359  35.028   1.282  0.3285  0.2298  0.0843
40223W        W96464  12.074   5.558  10.034  0.0833  0.3039  0.0545
40224W        W96465   0.523  12.064  22.828 -0.0729  0.1104  0.2458
40225W        W96466  31.993   9.554  13.198 -0.3114 -0.2812 -0.0190
40226W        W96467   8.805   8.099   8.967 -0.2923  0.1759 -0.1696
40227W        W96468  32.118  19.726  13.762  0.0483 -0.1709  0.0720
40228W        W96469  31.320   1.658   5.007  0.1112 -0.0894  0.2006
40229W        W96470   1.117  23.239  13.462 -0.1532 -0.0969  0.0741
40230W        W96471  34.917  34.212  23.263 -0.0450 -0.1371 -0.1166
40231W        W96472  20.521   3.210  19.571 -0.1307  0.2632 -0.1107
40232W        W96473  28.429  26.158   0.498 -0.0185  0.0739 -0.0441
40233W        W96474  20.104  11.254  17.686  0.0592 -0.1806 -0.4355
40234W        W96475  19.709  20.684  25.660 -0.0313 -0.0993  0.0374
40235W        W96476  12.230  32.323  15.167  0.0414  0.0109 -0.4318
40236W        W96477  24.276  30.143  17.613 -0.2624 -0.1546  0.1853
40237W        W96478   2.363  14.737  14.634  0.1448  0.1148 -0.0843
40238W        W96479  29.161   5.296   1.909 -0.2588  0.1416 -0.3139
40239W        W96480  10.316  19.742  10.003  0.0513  0.3231 -0.0260
40240W        W96481  32.935  34.491   0.600 -0.1636 -0.0242 -0.0418
40241W        W96482  28.680  28.640  16.255 -0.0913  0.0947  0.0149
40242W        W96483  12.104  32.829  12.822  0.0980  0.3966 -0.1879
40243W        W96484  31.998  35.323  21.615  0.2424 -0.0535 -0.1538
40244W        W96485  28.010  23.803  19.299  0.0460 -0.3098  0.2036
40245W        W96486   5.983  23.347  23.517  0.0499  0.1217  0.1830
40246W        W96487   9.709  34.911   8.486 -0.1543 -0.2562  0.2742
40247W        W96488  27.057  27.109   8.834 -0.0405 -0.1473  0.1039
40248W        W96489  12.861  16.623   9.630 -0.2092 -0.1939 -0.0106
40249W        W96490   2.413   0.592  20.244  0.1917 -0.2712 -0.3218
40250W        W96491   7.605  33.975   8.497 -0.4573 -0.1208  0.0686
40251W        W96492  30.093   6.330   0.193 -0.0074 -0.1249  0.0961
40252W        W96493   9.210  21.684  12.271  0.0866 -0.1692 -0.2184
40253W        W96494  32.316  10.245  24.564  0.1112 -0.1920 -0.0533
40254W        W96495   3.298  34.450  21.983  0.0984 -0.2640  0.0991
40255W        W96496  34.075  29.097   4.408  0.1737 -0.1294 -0.0108
40256W        W96497  13.906  15.884   0.880 -0.0523  0.1465 -0.1745
40257W        W96498  22.964   9.366  24.880  0.0592 -0.0271  0.0590
40258W        W96499  27.614   0.503  20.305  0.0452  0.0500  0.1337
40259W        W96500   4.356  25.556   8.985 -0.1457 -0.0216 -0.2027
40260W        W96501  19.428   4.033   7.747 -0.1631  0.2842  0.2857
40261W        W96502  33.460  26.802  15.430  0.2122 -0.0656 -0.2932
40262W        W96503  30.486  18.758  21.491  0.0973 -0.1435 -0.3220
40263W        W96504  14.683  31.484  20.757  0.4128 -0.0921 -0.0034
40264W        W96505  15.782  15.841   6.710 -0.0177 -0.0204  0.1718
40265W        W96506  30.773  17.756   9.569  0.1440 -0.0705  0.0512
40266W        W96507  12.594  25.447  13.125 -0.0925  0.1582 -0.1067
40267W        W96508  11.348  18.432   6.953 -0.0463 -0.3280 -0.0433
40268W        W96509  19.346  13.820  22.814 -0.0352 -0.1314 -0.1799
40269W        W96510  12.606  10.544   2.690  0.0847 -0.0119 -0.0021
40270W        W96511   1.814  26.498   6.106  0.2393 -0.2199 -0.1189
40271W        W96512  27.241  23.979   0.568  0.1313 -0.1856  0.0097
40272W        W96513   5.683  30.315  25.397  0.0253  0.2702  0.0125
40273W        W96514  23.668  26.643   3.474  0.0843 -0.0704 -0.1004
40274W        W96515  14.938   1.756   7.841 -0.1016 -0.0088  0.3805
40275W        W96516  29.987  21.862  15.920 -0.1818 -0.1736 -0.0488
40276W        W96517   1.878  32.683   5.842  0.2214 -0.0079  0.0534
40277W        W96518  23.578  35.246  19.151 -0.1366 -0.2707 -0.1774
40278W        W96519  14.465  16.557   4.574  0.1185  0.0542  0.2370
40279W        W96520  23.869  20.894  15.270  0.0591 -0.1507 -0.1081
40280W        W96521   2.495   0.092   6.729 -0.2448  0.1254 -0.0388
40281W        W96522   4.543  16.550   1.299 -0.0973 -0.0119 -0.0628
40282W        W96523   6.486  34.825   2.608  0.0655  0.0021  0.0360
40283W        W96524  33.533  26.565   9.882 -0.2976 -0.0175 -0.0543
40284W        W96525  27.520   3.135   1.685  0.3305  0.0448  0.0637
40285W        W96526  22.165  30.508  24.313 -0.0884  0.1096  0.0536
40286W        W96527  15.546  12.651  10.356  0.3362 -0.2178 -0.0945
40287W        W96528   0.874  30.470   7.235  0.8493 -0.0025 -0.0930
40288W        W96529   5.175  25.788  22.767 -0.0464 -0.5064  0.1581
40289W        W96530  19.966  25.863   4.589 -0.2456 -0.0934 -0.0578
40290W        W96531  13.378  26.548  25.579 -0.1067  0.0405 -0.0936
40291W        W96532  25.948  10.608  11.098 -0.0639  0.3748 -0.0988
40292W        W96533  29.872   1.764  25.363 -0.0383  0.0278  0.2527
40293W        W96534  11.848  21.676  12.484 -0.0995  0.2512  0.0759
40294W        W96535  33.125  17.382  13.585  0.1916 -0.2776 -0.2301
40295W        W96536  25.468  16.867  20.564 -0.1483 -0.1637 -0.2623
40296W        W96537  10.759  29.896  21.305 -0.1155  0.0545  0.1716
40297W        W96538  17.902   6.305   9.311  0.0233 -0.0216 -0.2306
40298W        W96539   1.793  21.655  18.249 -0.2109 -0.2011  0.0244
40299W        W96540  13.974  31.084   3.611 -0.0797 -0.0677  0.1513
40300W        W96541  20.311  22.502  22.056  0.2544 -0.2509 -0.0555
40301W        W96542  17.403  23.546  11.848  0.1042 -0.0083 -0.0474
40302W        W96543  35.315  12.534  19.906  0.2974 -0.0391 -0.2040
40303W        W96544  27.848  31.388   0.960  0.0491 -0.1589 -0.3135
40304W        W96545   2.391   4.723  24.879 -0.1020 -0.1124  0.3301
40305W        W96546   8.961  27.708  15.154  0.4081 -0.0339  0.3406
40306W        W96547   8.431  18.596   4.286 -0.1169 -0.1113 -0.3488
40307W        W96548  15.298  16.474  10.706  0.1258  0.1850  0.0214
40308W        W96549  30.741   8.772   9.635 -0.0201 -0.1693 -0.5052
40309W        W96550   7.746   8.853   0.541  0.2462 -0.0318 -0.1946
40310W        W96551  32.576   4.126   1.319 -0.0147 -0.0400 -0.1012
40311W        W96552  26.510  24.449  22.288 -0.3607  0.1655 -0.1911
40312W        W96553  31.574   3.178  12.620  0.3143 -0.0895  0.4562
40313W        W96554  31.971  21.127  14.092  0.0170  0.2733 -0.0932
40314W        W96555  10.788  27.938   0.556  0.3059 -0.1552 -0.1716
40315W        W96556  15.056   7.759  24.154 -0.2591 -0.0757  0.0191
40316W        W96557  25.248  24.698   9.314  0.1556  0.2293  0.1644
40317W        W96558   4.456  18.420   1.754 -0.0715  0.2927  0.1621
40318W        W96559  18.798   2.719  22.220 -0.0443 -0.3309  0.0533
40319W        W96560  35.155  12.017   0.874  0.0802  0.0323  0.1302
40320W        W96561  28.193   7.967  24.156 -0.0941  0.1508  0.2712
40321W        W96562   4.224  24.918   2.911  0.1271  0.0017 -0.0565
40322W        W96563  31.358  22.739  17.824 -0.1125  0.1163 -0.0468
40323W        W96564   1.254  35.009  20.626  0.2720 -0.1589  0.0349
40324W        W96565  15.825   4.404   3.901 -0.1293 -0.2126  0.2255
40325W        W96566  25.492   8.337  18.929 -0.1738  0.0546 -0.3260
40326W        W96567  24.669  22.948  25.171  0.2607 -0.0361 -0.2230
40327W        W96568   9.072  26.612  13.966  0.5237  0.1889 -0.0517
40328W        W96569  33.386  28.901  19.471 -0.1414 -0.2098 -0.1668
40329W        W96570   3.348  12.876  24.384 -0.2123 -0.0323 -0.0268
40330W        W96571  31.245   9.591  21.136 -0.1764 -0.1607 -0.2981
40331W        W96572   1.696  20.033  17.144  0.0071 -0.3660  0.1531
40332W        W96573   5.844  35.007   6.651  0.0974 -0.1872  0.1518
40333W        W96574   1.709  20.189   0.645  0.1518  0.1123 -0.2414
40334W        W96575  25.721   8.687  13.798 -0.0294  0.4124 -0.1189
40335W        W96576  22.928  30.168  19.979  0.1488  0.0792  0.0056
40336W        W96577  31.561  10.031   1.214 -0.2143 -0.2295 -0.2221
40337W        W96578  33.031  30.147  14.850 -0.2323  0.3961 -0.0992
40338W        W96579   0.812   1.564   0.415 -0.0757 -0.0895  0.0442
40339W        W96580  15.246  34.877  19.574 -0.3561 -0.1433  0.1560
40340W        W96581  12.553  33.798   3.488 -0.0746  0.1975  0.1142
40341W        W96582  26.691   7.400  13.291 -0.1799 -0.2341 -0.0660
40342W        W96583  23.468  33.777  16.855 -0.1301  0.0908  0.2513
40343W        W96584   9.847  27.994  24.889 -0.3225  0.2043 -0.0930
40344W        W96585  34.141  18.060   6.299  0.4677 -0.0083 -0.0403
40345W        W96586  32.752  31.673  12.981  0.0897  0.1063  0.1099
40346W        W96587  21.470  28.831  24.798  0.1035  0.2351 -0.0704
40347W        W96588  24.686  29.665  20.524  0.0125  0.1419 -0.2894
40348W        W96589   2.954  29.674  20.818  0.0870  0.0267  0.1198
40349W        W96590  20.449   4.117  17.127 -0.1477  0.3036 -0.2787
40350W        W96591  20.771   2.196  25.282  0.2087  0.2338 -0.0421
40351W        W96592  14.465  12.607  24.030 -0.4350  0.1016 -0.1490
40352W        W96593  15.370  25.389  24.843  0.0453 -0.2259  0.1503
40353W        W96594   8.248  12.479   5.377 -0.1554  0.3273 -0.0309
40354W        W96595   0.285  17.048  18.916 -0.0251 -0.0565 -0.2469
40355W        W96596  32.637  35.210   0.873  0.0762  0.0770 -0.3885
40356W        W96597   7.665  34.625  25.548  0.1110  0.0208  0.2730
40357W        W96598  23.793  18.185  14.509  0.0613  0.1618  0.3150
40358W        W96599  22.783  15.598  19.186  0.0939 -0.2546 -0.2156
40359W        W96600   0.421  14.948  13.356  0.1288  0.0966  0.1204
40360W        W96601   1.657  32.197   1.021  0.3626  0.1043 -0.1464
40361W        W96602   3.669   9.557  14.572 -0.2624 -0.2083  0.1852
40362W        W96603   7.514  10.827  20.164  0.0153 -0.0514 -0.0097
40363W        W96604   2.250  27.084   2.358 -0.1441 -0.4088 -0.3349
40364W        W96605  13.920   1.882   6.035 -0.2491 -0.1590 -0.0301
40365W        W96606  17.982   4.304  20.740  0.1179 -0.1848 -0.0289
40366W        W96607  20.056  26.105  21.096  0.0527 -0.0025  0.0853
40367W        W96608  32.899  29.425  25.186  0.0513  0.3807  0.1101
40368W        W96609   6.996   3.090  19.094 -0.1571  0.1231 -0.1099
40369W        W96610   7.044  12.474  19.874 -0.1754  0.2318  0.2872
40370W        W96611   0.536  15.218   2.306  0.0569 -0.2047 -0.0823
40371W        W96612  10.370   3.363   6.542 -0.3686 -0.5215 -0.2069
40372W        W96613   3.064  28.985  20.098  0.0949  0.0781 -0.0862
40373W        W96614   8.729  29.254  16.874 -0.0046 -0.3002  0.1679
40374W        W96615  32.001  31.797   5.914  0.0347 -0.0170 -0.2273
40375W        W96616  21.032   9.778  20.487  0.1602  0.2695  0.3393
40376W        W96617  19.331  17.379   0.581  0.2731 -0.0824  0.0693
40377W        W96618  26.147   3.913  25.197 -0.0883  0.2730 -0.0249
40378W        W96619  20.803   8.511   1.468  0.0204 -0.1153  0.3359
40379W        W96620  18.823  17.589  22.722  0.0333 -0.3819 -0.1018
40380W        W96621   9.214   1.718   8.472 -0.1865  0.0662 -0.0979
40381W        W96622   6.288  26.404  22.422 -0.0071 -0.0526  0.1906
40382W        W96623   8.036  21.437   4.962  0.0757  0.1149  0.0420
40383W        W96624  11.195  33.552   4.374  0.3205  0.0640  0.0309
40384W        W96625  33.423  11.964  13.333 -0.1204  0.0893 -0.0437
40385W        W96626  25.901   5.978   4.485  0.1312  0.0226 -0.1184
40386W        W96627  11.883   1.057   4.385 -0.2466 -0.0629 -0.4066
40387W        W96628   4.109  12.358  15.575  0.0355  0.0025  0.0538
40388W        W96629   9.357  17.801   4.916  0.3432 -0.0104 -0.0994
40389W        W96630   9.777   3.002   9.081 -0.2059 -0.0954  0.3596
40390W        W96631  32.867   3.238  24.212 -0.1397 -0.2180  0.0337
40391W        W96632  31.735   4.612   2.454  0.1643 -0.3042 -0.0637
40392W        W96633  29.279   4.625  13.445 -0.0557  0.3634  0.0909
40393W        W96634  33.809   7.993  15.862  0.0334  0.2232 -0.0768
40394W        W96635  13.650  30.334  13.380 -0.0472 -0.4614 -0.2840
40395W        W96636  31.081  13.915  24.879 -0.1135 -0.1008 -0.1761
40396W        W96637   5.797   8.726   3.095  0.2035  0.0283 -0.2617
40397W        W96638   7.068   1.601  20.751 -0.1049  0.4652 -0.1832
40398W        W96639  14.656   1.707  21.803  0.0439  0.4231  0.0451
40399W        W96640   5.698  11.755  23.571 -0.1681  0.0092 -0.1669
40400W        W96641  13.750  10.350   1.740 -0.1328 -0.3832  0.1688
40401W        W96642  28.272   0.066  15.403  0.1277 -0.1330 -0.4701
40402W        W96643  18.441  29.959   7.047 -0.0919  0.1754 -0.1728
40403W        W96644  24.137  26.299   1.926  0.5179  0.2169  0.1264
40404W        W96645  27.274   0.833  20.597 -0.1197  0.0137  0.1018
40405W        W96646   7.172   8.369   9.929 -0.0796 -0.0699 -0.1845
40406W        W96647   5.463  15.985  17.004 -0.0540 -0.0843  0.0485
40407W        W96648  31.915  17.301  16.113 -0.0078 -0.0548  0.0946
40408W        W96649   8.310  14.657  26.165 -0.0246  0.1707  0.1392
40409W        W96650   0.832   5.612  21.794 -0.1099  0.1878  0.0961
40410W        W96651  19.245  23.670   3.495 -0.1317  0.1389 -0.1057
40411W        W96652  30.584   6.006   1.441  0.0521  0.2140 -0.2789
40412W        W96653  33.781   7.617  24.692 -0.0233  0.1705  0.1119
40413W        W96654  33.785  32.701  13.429 -0.3328 -0.1897 -0.1385
40414W        W96655  13.434  24.771  25.246 -0.1506  0.0339  0.4657
40415W        W96656  11.152  28.033   3.728  0.0336 -0.0145  0.0183
40416W        W96657   9.430  31.478  15.773  0.4430  0.3644  0.2322
40417W        W96658  11.652  11.053  12.141  0.0075 -0.0694 -0.1422
40418W        W96659  17.695  29.161   7.041 -0.0209 -0.0548  0.1951
40419W        W96660  21.148  30.595  17.065  0.1238  0.0200  0.0661
40420W        W96661  23.279  20.727  24.136 -0.3632  0.1893 -0.0654
40421W        W96662  33.872   3.718  14.651 -0.1896  0.2495 -0.0878
40422W        W96663   5.219  27.797   1.622  0.0007  0.0650  0.1963
40423W        W96664  19.196  18.204   7.327  0.1456  0.1537 -0.1844
40424W        W96665  26.653  11.328   8.113 -0.0200 -0.2199 -0.2649
40425W        W96666  16.632   0.897   9.663 -0.2556  0.2967  0.0171
40426W        W96667  27.905  19.266   7.381 -0.0907  0.2182 -0.1156
40427W        W96668  13.185  16.212  13.031  0.2248  0.1405  0.1414
40428W        W96669  14.718  28.883   1.429  0.2183  0.0760  0.0147
40429W        W96670   2.921  11.103  23.493 -0.4543 -0.1692 -0.2091
40430W        W96671   7.533  12.555  12.127  0.0653 -0.1367 -0.1174
40431W        W96672   5.807   4.637   1.846 -0.2953 -0.4114  0.0570
40432W        W96673  25.675  28.267  16.497 -0.2814  0.1069  0.1328
40433W        W96674  17.268  25.889  25.381  0.1108 -0.3039  0.1885
40434W        W96675  23.096   2.097   0.295  0.3598 -0.1808  0.0340
40435W        W96676  23.961  14.246  20.171  0.3529 -0.0701  0.0425
40436W        W96677   1.248  13.771  22.087  0.0163 -0.0907  0.1040
40437W        W96678  20.791  26.205   0.019 -0.1839 -0.0110 -0.2380
40438W        W96679  11.028  18.756   6.745 -0.0796 -0.0706 -0.3015
40439W        W96680  29.332  33.957  17.883 -0.2187 -0.1269 -0.0021
40440W        W96681   0.274  33.616  26.217 -0.2179 -0.0848  0.1100
40441W        W96682  22.381  20.642  20.293 -0.0983 -0.0529  0.4032
40442W        W96683  13.344  24.741   0.423  0.0919  0.1074 -0.0478
40443W        W96684   9.541   6.380  26.049  0.1375 -0.2162 -0.2259
40444W        W96685  21.794   1.927  15.227 -0.1748  0.2793  0.0439
40445W        W96686  21.716  16.338  17.640  0.3931 -0.0911 -0.1672
40446W        W96687  33.096  10.749  25.058 -0.2463 -0.0969  0.0622
40447W        W96688  12.768  11.121  20.925 -0.1629  0.1430 -0.1659
40448W        W96689  19.504  21.747   1.352  0.0623  0.0089 -0.4122
40449W        W96690  27.962  11.425  21.667  0.2659  0.2707 -0.0163
40450W        W96691   4.559  28.348   5.751 -0.0624  0.3454 -0.1315
40451W        W96692  32.030   1.958   5.299 -0.0844  0.1049  0.0293
40452W        W96693  22.934  31.385  19.909 -0.4505  0.1444 -0.0705
40453W        W96694  29.482  31.942  16.191 -0.1988 -0.1494  0.2118
40454W        W96695  26.366  18.784  12.405 -0.1452 -0.0934 -0.0637
40455W        W96696  10.522   0.570   2.864  0.0520  0.2944  0.1329
40456W        W96697  12.530   3.252  26.111 -0.2182 -0.0576  0.1973
40457W        W96698   2.393  27.250  20.029 -0.2528  0.3547  0.3681
40458W        W96699  13.652  13.588  19.638  0.0900  0.3740  0.3362
40459W        W96700   5.014  26.664  12.243 -0.4022 -0.1044 -0.1686
40460W        W96701  24.311  14.555  12.726 -0.3326 -0.1100  0.1099
40461W        W96702   0.344   7.791  25.886 -0.0868 -0.1652  0.2499
40462W        W96703  11.609  12.074  11.843  0.1213  0.0089 -0.1878
40463W        W96704   5.105   8.148   8.773  0.1283  0.0753  0.0441
40464W        W96705   8.099   6.539  19.375  0.0398  0.0724  0.2028
40465W        W96706  14.038  16.759   8.501 -0.1569 -0.0576  0.0257
40466W        W96707  27.026   4.499   4.859  0.0975  0.3101  0.4110
40467W        W96708  29.308   7.658  18.249 -0.0693  0.4321 -0.1648
40468W        W96709   6.871  18.667  25.242  0.0063 -0.1716 -0.1282
40469W        W96710  28.963   0.881   3.280 -0.1803  0.2257  0.2394
40470W        W96711   3.458   4.407   8.992  0.0329  0.0491 -0.3464
40471W        W96712   5.849  14.757   2.674  0.0083  0.6442 -0.0840
40472W        W96713   3.941   5.666  25.079 -0.3366 -0.3162 -0.3393
40473W        W96714   4.016  13.262   3.288  0.0112 -0.0915 -0.0411
40474W        W96715  33.391   7.650   0.059 -0.1641 -0.0350 -0.1037
40475W        W96716   6.338  16.811  25.440  0.1952  0.2335  0.2672
40476W        W96717   5.349   2.261  11.133 -0.2239 -0.0675 -0.2777
40477W        W96718  26.986   8.278  23.550  0.0585  0.2415 -0.3549
40478W        W96719  29.195  17.378  16.593 -0.0589 -0.3255 -0.1935
40479W        W96720  15.779  20.881  24.593  0.0842  0.1561  0.2114
40480W        W96721  21.538   5.874  18.374  0.1754 -0.4529 -0.2145
40481W        W96722  30.167   3.136   0.706 -0.0720  0.0527 -0.2241
40482W        W96723  29.368  23.070   5.868  0.1846  0.1583  0.0182
40483W        W96724  11.883  25.047   4.192 -0.0614  0.3909 -0.2951
40484W        W96725   4.739  22.091  19.967 -0.2599  0.0797  0.1268
40485W        W96726  27.504  10.021  17.974 -0.0995 -0.1503  0.0538
40486W        W96727  26.430  12.340   8.985  0.2764  0.0076  0.1256
40487W        W96728  33.850  15.228   8.840  0.2886 -0.2462 -0.1090
40488W        W96729  34.831  35.233  21.868  0.0744 -0.0185 -0.3887
40489W        W96730  12.324  26.321   7.915  0.5257 -0.2370 -0.1662
40490W        W96731  20.118  27.328   7.276  0.0055  0.0581 -0.0580
40491W        W96732  33.065  20.756  20.430  0.0877 -0.0674  0.1911
40492W        W96733   1.942  21.099   0.970  0.1258  0.1942 -0.0041
40493W        W96734   1.975  10.728   1.085 -0.0164  0.2653 -0.2030
40494W        W96735  24.138   6.617  18.064  0.0651 -0.1561 -0.0364
40495W        W96736  21.346   2.440   1.952  0.1743  0.2230  0.3260
40496W        W96737   6.418  18.521   6.749  0.2346  0.2118 -0.3652
40497W        W96738  26.622   5.835  13.186 -0.0640  0.0745  0.0826
40498W        W96739  34.087  27.935  17.488  0.1408  0.0987  0.1054
40499W        W96740  16.960  15.828  12.669 -0.2827  0.4192  0.1213
40500W        W96741  19.295   8.084   8.729  0.0015  0.0366  0.0913
40501W        W96742   9.010  18.643   0.414  0.2680  0.3198  0.2070
40502W        W96743   1.286  13.860  17.340  0.0843 -0.2196  0.2678
40503W        W96744   6.874  12.726   5.620  0.0140  0.3080  0.0139
40504W        W96745  13.660  25.563  16.014 -0.4638 -0.0380 -0.1654
40505W        W96746  32.234  23.313  20.907  0.0960  0.3235 -0.2268
40506W        W96747  24.343  31.526  19.293  0.0728 -0.1160 -0.1632
40507W        W96748   6.337  22.331   1.083 -0.2434 -0.0214 -0.1391
40508W        W96749  33.914  28.625  25.324 -0.1466 -0.1235 -0.0100
40509W        W96750  23.975  32.918   5.057  0.1474  0.2648 -0.0605
40510W        W96751  11.294  21.341   0.118  0.2790 -0.2019  0.0659
40511W        W96752   9.258  20.839  24.899 -0.2319  0.1003 -0.1702
40512W        W96753  14.137   2.653  25.524  0.3819 -0.2816 -0.1048
40513W        W96754   7.180  11.094  18.767  0.0720 -0.0686 -0.1549
40514W        W96755   7.645  14.728  18.270 -0.0551  0.0709 -0.2962
40515W        W96756   9.088   6.965   4.666  0.0990 -0.3055  0.0590
40516W        W96757  19.566  30.652   0.066 -0.0336  0.2808 -0.0867
40517W        W96758  17.184   7.909  23.601 -0.4390  0.2361 -0.1341
40518W        W96759  16.562   4.521  20.034  0.1025  0.2523  0.0404
40519W        W96760  25.181  12.961  19.253  0.1391  0.0015 -0.1903
40520W        W96761   9.983  29.483   8.110 -0.0481  0.2051 -0.0093
40521W        W96762   4.082  34.706  20.787 -0.0500 -0.0304 -0.1989
40522W        W96763   8.129  19.102  10.942  0.1811  0.0491  0.2293
40523W        W96764  10.474  14.335   3.631 -0.0548 -0.1262 -0.2837
40524W        W96765  28.173  10.340  22.127 -0.0389  0.3820  0.0784
40525W        W96766  21.682  22.314  18.036 -0.3443  0.2153  0.1473
40526W        W96767  30.629   8.448  16.937 -0.2025  0.3506 -0.0683
40527W        W96768   1.306  23.311   2.820 -0.1981 -0.1978  0.0616
40528W        W96769  11.776   0.853   6.146  0.1625  0.3293 -0.0106
40529W        W96770   6.135  32.884   1.030 -0.0023 -0.0527  0.0355
40530W        W96771   1.583   9.700  16.702  0.0269  0.0017 -0.1796
40531W        W96772   2.039  29.493  18.400 -0.4643  0.2293  0.2521
40532W        W96773  20.709  17.890  21.339 -0.3054 -0.0555 -0.0930
40533W        W96774   6.421  14.388  22.666 -0.1702 -0.0533 -0.1366
40534W        W96775  22.567   0.300  14.603  0.2084 -0.2743 -0.2280
40535W        W96776  24.649  27.444   2.120  0.1014  0.0290 -0.0842
40536W        W96777  22.474   3.355   5.340  0.4678 -0.1929 -0.0744
40537W        W96778  21.433  32.403  26.012 -0.3327  0.1233  0.1064
40538W        W96779   2.522   5.439  17.830  0.2221  0.0944 -0.3024
40539W        W96780  22.043   1.266  14.546  0.2178  0.3043  0.2251
40540W        W96781  34.496   3.958  24.911 -0.4396 -0.0779 -0.1017
40541W        W96782  32.276  32.701   0.654 -0.2869  0.1947 -0.2023
40542W        W96783  19.745  10.150   7.491  0.0421  0.0141 -0.1034
40543W        W96784  24.321  22.565  21.755  0.1538  0.1600  0.0667
40544W        W96785   9.593  34.410   4.565  0.3446  0.0075  0.0807
40545W        W96786  23.633  28.930  24.845  0.2009 -0.0690  0.0634
40546W        W96787   1.130  26.622  16.906 -0.0630 -0.0497 -0.1623
40547W        W96788  30.110  25.141  15.775 -0.3989 -0.0799 -0.1669
40548W        W96789  26.851  13.036  18.784  0.0073  0.1173  0.0655
40549W        W96790  28.007  12.609  18.942  0.2514  0.1296  0.1509
40550W        W96791  18.455  30.590  20.087  0.1071 -0.1059  0.3357
40551W        W96792   6.752   7.346  11.678 -0.0399  0.0049  0.0415
40552W        W96793   0.505  34.760   2.167 -0.2014 -0.2233 -0.2037
40553W        W96794  31.012  25.711  25.277  0.0091 -0.2219  0.1938
40554W        W96795  10.675  22.076   6.011  0.1452  0.2330  0.3491
40555W        W96796  24.837  24.783  10.274  0.2467 -0.0873  0.0337
40556W        W96797  13.794   5.232   9.637  0.0558  0.3240  0.3127
40557W        W96798  10.069  26.834   6.747 -0.2078  0.2086 -0.1243
40558W        W96799  27.912  25.590   0.346 -0.2250 -0.3852 -0.2480
40559W        W96800  16.937  14.284   8.296  0.0054 -0.1900  0.1538
40560W        W96801   5.232  32.290  10.699  0.1775  0.3204  0.0954
40561W        W96802  20.751  27.672  17.003  0.1425  0.0044  0.1181
40562W        W96803  26.330  26.153  15.653  0.0882  0.1444 -0.0127
40563W        W96804   4.416  23.344  25.933  0.1671  0.1836 -0.1403
40564W        W96805  26.401  11.686  12.304  0.0583 -0.1657 -0.0201
40565W        W96806  32.898  16.494  19.838  0.0628 -0.1820  0.0121
40566W        W96807  27.237   5.585  22.020 -0.5428 -0.1601 -0.2355
40567W        W96808   4.763  12.268   0.028 -0.0744  0.0492 -0.0753
40568W        W96809  27.471  17.186  13.395 -0.2860 -0.1079 -0.0152
40569W        W96810   7.477  22.650   6.853  0.3066  0.2306 -0.0269
40570W        W96811  24.133  19.224   1.103  0.1915 -0.1764 -0.2305
40571W        W96812  25.709   0.383  10.741 -0.2069  0.2997 -0.1154
40572W        W96813  25.917   6.223  16.197  0.1104  0.0559  0.1778
40573W        W96814  10.176  15.023   2.258 -0.0081  0.1357 -0.1428
40574W        W96815  30.017  28.800   1.166  0.0175 -0.0906 -0.0491
40575W        W96816  18.510  31.895  17.409 -0.0639  0.4277  0.0072
40576W        W96817   6.281  32.018  21.303 -0.0530  0.2108 -0.1048
40577W        W96818   6.130   4.429   1.384  0.0974  0.0285 -0.1141
40578W        W96819  14.316   2.523   5.595  0.2118  0.0935 -0.2977
40579W        W96820   2.097   3.037   8.709  0.0984 -0.1143  0.0987
40580W        W96821  10.541  17.261  13.792 -0.0216 -0.4077 -0.0735
40581W        W96822  18.806  10.514  18.717 -0.0888  0.0232  0.0991
40582W        W96823   8.899  17.490   4.001 -0.1373  0.2225  0.1924
40583W        W96824   5.858   5.445  22.201  0.2384 -0.1211 -0.2598
40584W        W96825  10.173  19.489  13.121  0.0118 -0.0439  0.4168
40585W        W96826  28.004  19.675  22.557  0.1676 -0.1831 -0.0742
40586W        W96827   3.412  11.894  26.196 -0.3062  0.0723  0.2254
40587W        W96828  30.283   5.572  17.226 -0.1466  0.0228 -0.1679
40588W        W96829  27.611   4.587  21.509  0.0058 -0.0708 -0.1402
40589W        W96830  16.369  21.598   8.140  0.0440 -0.2810  0.2539
40590W        W96831   3.485  32.654   5.141 -0.0776 -0.1776 -0.2030
40591W        W96832  35.157  27.334  18.824  0.3004  0.2206 -0.0773
40592W        W96833  13.662   3.737  11.996 -0.0751 -0.2343 -0.3079
40593W        W96834  12.702  33.696   0.085 -0.0440 -0.0310 -0.1584
40594W        W96835   7.870  34.213   5.839 -0.2084  0.2795  0.1193
40595W        W96836  30.414  31.749  18.439  0.0067  0.1179  0.3444
40596W        W96837   1.056  26.327  20.791 -0.0504 -0.0460 -0.0203
40597W        W96838  32.618  19.777  22.075  0.1325 -0.1210 -0.1873
40598W        W96839   8.822  32.716  10.080 -0.0720  0.0385  0.0651
40599W        W96840  30.479  13.483  20.252  0.3347 -0.1714  0.0509
40600W        W96841   7.210   1.234  21.512  0.0236 -0.1964  0.2575
40601W        W96842  29.223   5.352  14.077  0.0178  0.0996 -0.1261
40602W        W96843   8.306   9.494  19.332  0.0496  0.0916 -0.1342
40603W        W96844   6.626  16.106   7.133  0.1966  0.1377  0.1883
40604W        W96845   0.872  20.910  18.229  0.2180  0.2432 -0.1307
40605W        W96846  14.535  23.769  25.356 -0.0828 -0.0402  0.0791
40606W        W96847   1.678  12.557  14.891  0.0324  0.0497 -0.3267
40607W        W96848  25.636   7.542  13.002  0.1957 -0.3607  0.1489
40608W        W96849  34.025   2.012   0.451 -0.0967 -0.1596  0.2635
40609W        W96850  15.714  28.906   1.656 -0.1364 -0.1480 -0.1070
40610W        W96851   9.500   3.792   3.828  0.0272 -0.0747  0.2032
40611W        W96852  28.799  15.841  16.248 -0.0448 -0.1392  0.0280
40612W        W96853   8.765  28.832  16.631 -0.0663 -0.5214 -0.0880
40613W        W96854   1.319  29.736  21.962  0.0535  0.2220 -0.0312
40614W        W96855   2.304   1.401  23.210 -0.0011 -0.0696 -0.2878
40615W        W96856   0.851  27.312  19.257  0.1016 -0.1215 -0.0190
40616W        W96857  23.021   0.818  22.554  0.2788 -0.1640 -0.2542
40617W        W96858  31.533   2.231  14.874  0.1643  0.0681 -0.0407
40618W        W96859   6.180  29.492  14.263 -0.1285 -0.1686  0.0652
40619W        W96860   5.492  30.910  21.626 -0.2123  0.2863 -0.1542
40620W        W96861  17.946   8.775  24.703  0.0322  0.1061  0.1193
40621W        W96862  25.782  29.410  25.208 -0.2876 -0.1374 -0.2632
40622W        W96863   7.290  34.377  12.114 -0.0077 -0.1102 -0.3297
40623W        W96864   7.394  23.296  22.570 -0.1996 -0.4094  0.2674
40624W        W96865  19.532   7.306   5.269  0.0694 -0.1505  0.2025
40625W        W96866  23.893   4.179   5.842 -0.2048 -0.0537 -0.0251
40626W        W96867  12.113  15.208  23.526 -0.0651  0.3344  0.1349
40627W        W96868   4.348  30.702  24.513 -0.0933 -0.1207  0.4159
40628W        W96869  21.668  15.392  24.045 -0.1160 -0.0615  0.2664
40629W        W96870  17.384   9.644   2.297  0.4781  0.0145  0.0906
40630W        W96871  12.981  24.981   9.736  0.2331  0.0284  0.1466
40631W        W96872  12.721   9.115  10.150  0.1958  0.1843 -0.0485
40632W        W96873   2.005   0.514   3.809  0.4496 -0.0021  0.0564
40633W        W96874   6.172  24.813   2.907 -0.0526 -0.1454  0.0326
40634W        W96875  25.738  25.656   2.425 -0.2381 -0.1155  0.1852
40635W        W96876  22.392  24.175  22.879 -0.1496 -0.0044 -0.0740
40636W        W96877   0.520   0.560  26.202  0.2780  0.2825 -0.0666
40637W        W96878  11.047  25.360  15.156  0.0634  0.0211 -0.2557
40638W        W96879  32.617   1.269  13.475  0.0162 -0.1288  0.1211
40639W        W96880   5.271  22.551  25.206 -0.0167 -0.1283 -0.5212
40640W        W96881   4.356  27.725  20.646 -0.1047 -0.2321 -0.1717
40641W        W96882  25.021  17.660   0.202 -0.2105 -0.0812  0.1654
40642W        W96883  31.085  26.493  14.533  0.2072 -0.0141  0.2077
40643W        W96884  10.482  24.234   5.794  0.1278 -0.0672  0.3111
40644W        W96885  15.404  17.089  24.658 -0.0124 -0.1724 -0.3065
40645W        W96886   1.384  31.787  23.336  0.1502  0.3095 -0.1010
40646W        W96887  24.601  25.466  22.785 -0.3534 -0.0579  0.1491
40647W        W96888  32.883  17.817  12.736 -0.0822 -0.0071 -0.0339
40648W        W96889   2.719  33.160  10.334 -0.3248 -0.4210  0.1968
40649W        W96890   6.919  15.714   5.839 -0.0046  0.0028 -0.4614
40650W        W96891  10.114  24.644  21.247 -0.3127 -0.2033  0.1049
40651W        W96892  22.179  32.257   6.421  0.1512 -0.2250 -0.2229
40652W        W96893   6.564  11.705   0.251 -0.2558 -0.4549  0.1818
40653W        W96894   7.259  24.288  14.664 -0.2117  0.1022  0.3402
40654W        W96895  20.566  27.193   7.687  0.0494 -0.0722  0.3880
40655W        W96896  24.190   4.706  22.789  0.2364  0.1120  0.3945
40656W        W96897  24.570   0.628  26.080 -0.0857  0.1766 -0.2095
40657W        W96898  18.015  22.763   0.815  0.0766  0.2463 -0.1952
40658W        W96899  26.577  10.366  19.244 -0.0260  0.1016  0.0499
40659W        W96900  16.636  23.726  21.822 -0.0556  0.0630  0.2314
40660W        W96901  24.180  28.982  14.839  0.2073 -0.0259 -0.1286
40661W        W96902  27.557  28.286  18.394 -0.0025  0.1208  0.1725
40662W        W96903  32.950  11.174   7.390  0.0896 -0.7239  0.0839
40663W        W96904  29.177  17.089  19.315  0.0822 -0.2378  0.2934
40664W        W96905  12.034  23.079   1.002 -0.0075 -0.0341  0.1751
40665W        W96906  31.014  10.811   8.041 -0.0530  0.0697 -0.3018
40666W        W96907   7.505  14.760  21.229 -0.0424  0.0292  0.1713
40667W        W96908  15.646  12.824   5.784 -0.0677 -0.0876  0.1546
40668W        W96909   6.826  34.261   6.582  0.1578 -0.0766  0.0209
40669W        W96910  15.289   7.593   3.813  0.0079 -0.0158 -0.3750
40670W        W96911  11.788  11.527  20.143  0.1613 -0.1298  0.0699
40671W        W96912   0.948  26.212   2.770  0.0198  0.1162 -0.3993
40672W        W96913  21.692  31.850  24.247  0.1250  0.0145 -0.0070
40673W        W96914  27.606  31.812   0.345  0.1916  0.3209 -0.0372
40674W        W96915   7.487  30.935   6.106  0.0619  0.3488  0.2011
40675W        W96916  30.169   2.294   4.104 -0.1443 -0.0146 -0.3205
40676W        W96917  31.318  17.686  17.929  0.0358 -0.1822  0.1572
40677W        W96918  13.219  12.585   2.965  0.1598  0.4057  0.1706
40678W        W96919  28.192   7.955  10.649 -0.0826  0.0053  0.0431
40679W        W96920  11.438   7.704   4.205  0.1613  0.1815  0.1212
40680W        W96921  18.289  16.691  10.035  0.0322  0.0145 -0.0155
40681W        W96922  23.929  18.818  17.509  0.1985  0.0776  0.4034
40682W        W96923   1.190  30.818   5.958  0.1338  0.1768  0.2303
40683W        W96924  31.013  18.433  25.371  0.2479  0.0543 -0.1745
40684W        W96925  33.088  23.240  20.941 -0.1059 -0.2219  0.3376
40685W        W96926  33.007  30.683  25.576  0.0942  0.1532 -0.1358
40686W        W96927   7.402   3.642  10.520  0.3158 -0.0563  0.2705
40687W        W96928  11.856  25.215  11.237  0.1072 -0.1035 -0.0595
40688W        W96929  33.276  26.613  23.862  0.3105 -0.2433  0.2354
40689W        W96930   3.567   0.022  17.829  0.1050 -0.1106  0.2152
40690W        W96931  32.155  21.524   8.196  0.0281  0.1454 -0.2581
40691W        W96932  31.012   5.440  23.453  0.2606  0.0792 -0.2016
40692W        W96933  14.386  18.625  21.617  0.2215 -0.0111 -0.2688
40693W        W96934  12.579   5.256  20.656  0.2740 -0.0491  0.0926
40694W        W96935  15.002  19.102  20.979  0.4419 -0.2712 -0.2201
40695W        W96936  13.103  23.651  23.721 -0.0610 -0.0310  0.1168
40696W        W96937  33.690  16.728   7.521  0.1009 -0.1374 -0.1264
40697W        W96938   9.534   5.891  26.087 -0.1864 -0.1682  0.1166
40698W        W96939  26.015  20.747  20.832  0.1563  0.2028  0.1383
40699W        W96940  11.062  30.560   0.145  0.0567  0.0228 -0.0097
40700W        W96941  33.037  24.264   1.009 -0.2729 -0.0451  0.0209
40701W        W96942   0.253  13.235  22.198  0.0291 -0.4152  0.2054
40702W        W96943   6.658  26.081  25.271  0.1380  0.0073 -0.1033
40703W        W96944   0.676   0.063  17.300  0.0642 -0.1065 -0.0235
40704W        W96945   7.854   9.355  22.718  0.2899  0.0434 -0.1296
40705W        W96946  29.462  33.508  18.464 -0.0054 -0.3212  0.0720
40706W        W96947   7.995   6.377  24.291 -0.1148 -0.0023  0.1176
40707W        W96948  11.653  23.333  12.907  0.0041 -0.0548  0.1003
40708W        W96949  23.823  23.565  13.511 -0.1328  0.2148  0.0681
40709W        W96950  33.342  32.811  20.902  0.0214 -0.0143  0.0110
40710W        W96951   1.428  26.100  24.724  0.1093  0.0522 -0.2929
40711W        W96952  18.991  27.871  24.319 -0.0478  0.0386 -0.1143
40712W        W96953  31.833  32.328  18.692 -0.0398 -0.1438  0.0620
40713W        W96954  30.245   7.625  23.414  0.4091 -0.2205 -0.1509
40714W        W96955   4.292  12.440  24.309  0.0339  0.2583 -0.3036
40715W        W96956  18.461   3.902  11.262 -0.0299  0.2633 -0.1600
40716W        W96957  12.290  20.179  14.457  0.1826 -0.0923 -0.0654
40717W        W96958  23.736   8.688  15.072 -0.1117 -0.2956 -0.0771
40718W        W96959  23.215  10.113  20.884 -0.0124  0.1982 -0.0622
40719W        W96960  10.812  30.582  24.117  0.2142  0.4861  0.1577
40720W        W96961   8.516  26.398   7.612 -0.1419  0.1198 -0.0679
40721W        W96962   6.507   1.437   3.292  0.2431  0.3473  0.2385
40722W        W96963  24.451  16.251  11.709  0.3399 -0.1472 -0.0733
40723W        W96964   1.513  31.845   9.463  0.0293 -0.1427  0.1339
40724W        W96965   2.143  11.936  18.313  0.0750 -0.0395  0.0496
40725W        W96966  12.394  13.772  23.083 -0.1178  0.0003  0.1327
40726W        W96967   7.253  27.462   9.232 -0.2293  0.0005  0.0251
40727W        W96968  22.850  33.262  20.669  0.0861 -0.0749  0.3414
40728W        W96969  15.388  34.871  10.890  0.0765 -0.1977  0.1667
40729W        W96970  20.686   4.801  25.751  0.2804  0.0089  0.4053
40730W        W96971  29.171  14.685  18.804 -0.0099 -0.0517  0.1478
40731W        W96972  34.179  20.650  16.218  0.3871  0.2334  0.0185
40732W        W96973  13.627   2.568  24.773 -0.1744  0.0723 -0.0102
40733W        W96974  14.619  35.370  10.479 -0.2792  0.1595  0.1568
40734W        W96975  27.695  11.339  11.235 -0.3401  0.1214 -0.0977
40735W        W96976  29.549  28.263  17.575 -0.1524 -0.3796  0.1194
40736W        W96977  24.017  29.650  18.466 -0.1364  0.4189 -0.0535
40737W        W96978  23.700  31.532  22.688  0.2438 -0.0992 -0.1225
40738W        W96979  29.589  13.352  16.662  0.3381  0.1940  0.1540
40739W        W96980  23.586   0.224  17.501 -0.0726  0.0104 -0.0345
40740W        W96981   3.065  32.048  22.888 -0.2227 -0.1158 -0.0518
40741W        W96982  11.811   6.686   5.901 -0.1275 -0.0456 -0.0574
40742W        W96983  26.817  30.860   1.867 -0.2989 -0.2038  0.0831
40743W        W96984  12.673  19.408  23.853 -0.2151 -0.0510  0.2159
40744W        W96985  19.113   9.447  24.225 -0.2759 -0.0080 -0.0870
40745W        W96986  11.894  31.842  11.243 -0.0617  0.3242  0.1778
40746W        W96987  24.752  15.080   9.245  0.4008 -0.1546 -0.1961
40747W        W96988  17.721  27.995   4.748  0.1945 -0.1696 -0.1135
40748W        W96989  28.346  26.823  16.418 -0.2491 -0.1701 -0.0260
40749W        W96990  32.252   1.819  18.862 -0.2855 -0.0663  0.0699
40750W        W96991  22.684   0.028  19.552 -0.0366  0.0444  0.0244
40751W        W96992  13.774  32.781  24.281  0.2865 -0.1820 -0.5346
40752W        W96993  15.751   6.674  24.130  0.2605 -0.2837  0.0237
40753W        W96994   5.623  33.311  11.071  0.1811 -0.2533  0.0146
40754W        W96995  26.164  14.816  11.667  0.3562 -0.2908 -0.2012
40755W        W96996  11.928  26.693   9.876 -0.0331 -0.1891 -0.2136
40756W        W96997  15.211   8.810  21.812  0.1023 -0.3934  0.0465
40757W        W96998  20.784  25.816   3.952 -0.0601 -0.0626 -0.1103
40758W        W96999   9.264  31.057  23.584  0.0363  0.0556  0.1404
40759W        W97000  10.401  12.038   6.438  0.3480 -0.0803 -0.1832
40760W        W97001  24.556  31.329  15.837 -0.0123  0.1875 -0.1680
40761W        W97002  19.598   4.145  15.675 -0.1943 -0.0426  0.0543
40762W        W97003   9.767  11.800  10.140 -0.1557 -0.2820 -0.0444
40763W        W97004  13.498  27.331  10.520  0.3024 -0.0483 -0.0219
40764W        W97005  29.073  10.951  14.841  0.1724  0.0843 -0.1723
40765W        W97006  10.646  26.014  11.411  0.3078  0.0829  0.3518
40766W        W97007  30.785   8.940  16.927  0.0291  0.2510  0.2258
40767W        W97008   6.616   8.706  11.532  0.3752 -0.0490 -0.2166
40768W        W97009  27.654  27.486   2.650 -0.2799  0.2358 -0.2249
40769W        W97010  13.657   9.417   3.442 -0.0124 -0.1238 -0.0381
40770W        W97011   6.047   6.234   1.258  0.0673 -0.2383 -0.0977
40771W        W97012  35.071  33.787  17.285 -0.0972 -0.0186 -0.1104
40772W        W97013  22.546  18.719  17.349 -0.0845  0.4533 -0.1664
40773W        W97014  19.338  19.072   6.234 -0.0162 -0.0574 -0.1220
40774W        W97015  21.576   4.049  21.364  0.1872 -0.4003  0.2267
40775W        W97016  33.893  29.594   0.711  0.3851  0.0405  0.1547
40776W        W97017  26.557  32.527  18.184 -0.0836 -0.2834  0.1411
40777W        W97018  25.002   6.200  18.798  0.1080  0.0737 -0.0048
40778W        W97019  14.227  14.030   3.717 -0.0637 -0.0227  0.0173
40779W        W97020  30.884   5.444   9.867  0.0083  0.1208  0.0049
40780W        W97021   1.809  13.057  15.582  0.3697 -0.0077 -0.0882
40781W        W97022  26.187   1.625  20.637  0.1480  0.0578 -0.0238
40782W        W97023  28.030   4.568  12.887 -0.3472 -0.1002  0.1990
40783W        W97024   0.276  22.429   0.907 -0.0828  0.0283  0.0358
40784W        W97025  34.432  14.714  15.702  0.2539  0.2278 -0.1867
40785W        W97026  10.329   5.138  22.707  0.2024  0.1021 -0.3411
40786W        W97027  16.142  33.993   7.790  0.2623 -0.2851  0.0578
40787W        W97028  23.191  14.557  24.723  0.0049 -0.0644  0.3224
40788W        W97029  11.406   8.695  24.938  0.0231 -0.0199 -0.1827
40789W        W97030  16.989  24.489   5.287  0.0546 -0.0973  0.1193
40790W        W97031   9.772   8.699   0.446  0.0394  0.2422 -0.3287
40791W        W97032  21.341  34.904  22.178 -0.3328 -0.0610  0.0787
40792W        W97033  13.178  23.457   0.709 -0.0985  0.0773  0.3232
40793W        W97034  27.099  14.409  20.457  0.0996  0.0526 -0.1399
40794W        W97035   8.699  16.074  21.206 -0.0949 -0.1853 -0.0849
40795W        W97036  16.644   7.654   8.509 -0.4255  0.0910 -0.0346
40796W        W97037  13.462  19.372  13.464 -0.5506  0.1200  0.0806
40797W        W97038   4.954  34.721   9.059 -0.2211  0.0442  0.0936
40798W        W97039  12.454  11.922   6.105  0.0345 -0.0027 -0.0135
40799W        W97040   2.885   1.204  22.837  0.2288  0.2282  0.3999
40800W        W97041   7.241   9.547   9.474  0.2309  0.0908 -0.1598
40801W        W97042   6.452  31.457   5.953 -0.2922  0.1489 -0.1426
40802W        W97043  24.087   8.576  13.394  0.1721 -0.0085  0.0916
40803W        W97044   2.152   6.043  20.778 -0.0006 -0.0373 -0.2769
40804W        W97045  23.852   1.114  24.921 -0.2651 -0.2149  0.1796
40805W        W97046   7.127  29.892  20.446  0.1392 -0.1372 -0.1459
40806W        W97047  17.078   8.718  21.052  0.2069 -0.0516  0.2713
40807W        W97048  29.862  31.262  26.038 -0.1794  0.0649 -0.1327
40808W        W97049  15.417   3.947   8.785 -0.2195 -0.1418 -0.1018
40809W        W97050  18.903   4.653   9.656 -0.0874  0.2688  0.0989
40810W        W97051  33.268  15.470  17.763 -0.0718  0.0193  0.1303
40811W        W97052  27.913   7.710  20.608  0.0438  0.0274 -0.0239
40812W        W97053   7.346   3.887   5.896 -0.1647  0.3024 -0.0548
40813W        W97054  29.512   4.047  22.976  0.1545 -0.2868 -0.1323
40814W        W97055   9.921  31.267  22.741 -0.1932  0.0042  0.2779
40815W        W97056   2.479   2.579  17.634  0.3041  0.1036 -0.1606
40816W        W97057   3.199  12.656  15.357 -0.0194 -0.0275  0.1591
40817W        W97058  33.844  30.935  20.022  0.0143 -0.0232  0.1582
40818W        W97059  18.054   8.065  25.258  0.1418  0.0433 -0.2798
40819W        W97060  31.110   0.060   6.061 -0.0627  0.1133 -0.0486
40820W        W97061  34.110   9.716  24.769  0.1526 -0.2433 -0.0506
40821W        W97062  18.184  28.009  10.432  0.2069 -0.0766  0.0589
40822W        W97063  11.214  15.587  24.491  0.1215 -0.1875  0.0668
40823W        W97064  32.966   9.257   1.066  0.1289 -0.2538  0.1923
40824W        W97065  14.586   1.751   9.817 -0.0954 -0.1993  0.2924
40825W        W97066  32.104  31.682  12.268 -0.0970  0.2196  0.1473
40826W        W97067  34.389  14.339  10.396 -0.0100  0.1273 -0.0048
40827W        W97068  19.062  17.126  19.291 -0.0546 -0.3863 -0.2471
40828W        W97069   8.090   8.657   4.199 -0.0755  0.4755 -0.1041
40829W        W97070   6.160  23.395   8.156  0.0095 -0.1897  0.0271
40830W        W97071  13.534  25.370   2.205  0.3042 -0.2044 -0.0523
40831W        W97072  22.601  13.385  24.322  0.0616  0.0134 -0.0772
40832W        W97073   4.828   8.043   0.769 -0.2727  0.0911  0.1325
40833W        W97074  22.170  20.920  14.539 -0.3914  0.0942  0.0576
40834W        W97075  14.887  34.070  11.725  0.0172  0.0895 -0.0083
40835W        W97076  25.767  27.093  10.469 -0.1836  0.0879  0.0023
40836W        W97077   7.596  16.143  20.720  0.3675 -0.0008 -0.1187
40837W        W97078   0.568   4.818   6.712 -0.1368  0.2695  0.0136
40838W        W97079  23.116   1.221   3.361 -0.3023  0.1784 -0.1176
40839W        W97080  19.693   6.342   3.687  0.0450  0.0923  0.0130
40840W        W97081  27.502  27.572  15.716  0.1195  0.2488  0.0139
40841W        W97082  24.807  14.401  22.983  0.1819 -0.2711  0.0478
40842W        W97083  10.663  25.743   1.081  0.1992  0.0950  0.1056
40843W        W97084  12.145  34.859  13.281  0.2548 -0.1291 -0.0781
40844W        W97085   8.718  22.037  25.773 -0.2692  0.0482  0.0609
40845W        W97086  14.391   0.029  18.710  0.2457 -0.1181  0.3495
40846W        W97087  31.592   6.502  19.291  0.0649 -0.1019  0.1134
40847W        W97088  21.896  28.223   1.062 -0.3587 -0.0840 -0.0335
40848W        W97089   6.889  34.926  19.582  0.0080 -0.0072  0.1397
40849W        W97090   3.254  19.320  22.507 -0.0316  0.1249 -0.1333
40850W        W97091   6.358   6.045  12.725  0.1004  0.0147  0.2923
40851W        W97092  22.916  10.987  18.545 -0.2078 -0.3504 -0.1928
40852W        W97093  23.956  23.009   3.386 -0.3019  0.0901  0.1037
40853W        W97094   5.504  33.493  26.063  0.0166  0.1419 -0.1360
40854W        W97095   6.100  10.608   1.749 -0.0102 -0.1942 -0.0985
40855W        W97096   1.877  33.630   2.097 -0.0462 -0.0804 -0.3429
40856W        W97097  11.802  23.012   1.444 -0.2334 -0.0619  0.0910
40857W        W97098   1.545  20.967  21.408 -0.0607 -0.3735  0.2228
40858W        W97099  16.322  11.304   5.392 -0.2480  0.3461 -0.1951
40859W        W97100  33.993  20.960   8.073  0.1091 -0.1353 -0.3070
40860W        W97101  28.213  18.187   6.752  0.0167  0.0012 -0.1288
40861W        W97102  28.187   5.227  15.401  0.3166 -0.2864  0.1842
40862W        W97103   4.658  14.354   5.433 -0.1327 -0.1518 -0.0429
40863W        W97104  24.750  19.019   9.781 -0.1822  0.2262  0.0688
40864W        W97105   8.465  24.038  25.406  0.1483  0.1966  0.0658
40865W        W97106  34.502   0.592  14.287  0.0591  0.4637  0.2819
40866W        W97107  21.169   4.293  24.176 -0.1507  0.1947 -0.0674
40867W        W97108  34.420  19.647   8.268  0.2829  0.0916  0.0368
40868W        W97109  24.484   7.443   0.840  0.2177 -0.1080  0.3940
40869W        W97110  16.915  22.164  23.778 -0.0536 -0.2561  0.1544
40870W        W97111  23.364  30.868  17.351 -0.1970 -0.0967  0.1674
40871W        W97112  20.347  18.639  25.751 -0.5251  0.3028 -0.0383
40872W        W97113  19.714   2.807  24.130 -0.1008 -0.4665  0.0875
40873W        W97114  28.520  30.066  15.143  0.2472 -0.3050 -0.0988
40874W        W97115  15.833  19.204   8.713 -0.0923  0.1775 -0.1814
40875W        W97116  11.398  25.230   4.000 -0.0305  0.3442 -0.1075
40876W        W97117  25.946   8.314  18.617  0.0367  0.3035  0.2231
40877W        W97118  28.040   6.020  23.581  0.0764  0.2137  0.0569
40878W        W97119  18.839  10.155   7.059  0.1579 -0.0969  0.1306
40879W        W97120   3.272  29.748  23.532 -0.1259 -0.2233  0.1850
40880W        W97121   1.983  34.421   1.763 -0.0355 -0.0081 -0.0731
40881W        W97122  27.936  14.729   7.541  0.1871  0.1205  0.1212
40882W        W97123  13.770  14.381   6.491 -0.0455 -0.0279  0.0951
40883W        W97124   0.670  15.562  12.657  0.1477  0.2272  0.1293
40884W        W97125  33.307  15.947  13.890 -0.1860  0.3055  0.0209
40885W        W97126  11.184  30.869  14.789 -0.2275 -0.2702 -0.2269
40886W        W97127  33.379   3.336   4.128  0.2139  0.2486  0.0357
40887W        W97128   7.110   8.297   5.667  0.0086  0.0395  0.1165
40888W        W97129  16.575  19.780   3.923 -0.0821 -0.0045 -0.2087
40889W        W97130  14.408  35.023  22.886  0.4512 -0.0111  0.1318
40890W        W97131  28.708  22.795   9.387  0.2551  0.2388 -0.2427
40891W        W97132   7.294  28.652   4.685 -0.2694 -0.1169 -0.0691
40892W        W97133  15.829  24.896   5.074  0.2663  0.0644 -0.2244
40893W        W97134  12.766   8.699  12.197 -0.3551  0.0930 -0.0684
40894W        W97135  18.967  16.192  24.948 -0.3059  0.0104  0.3975
40895W        W97136   5.476   6.974   6.155 -0.1316 -0.2002 -0.1592
40896W        W97137  18.216   6.675   9.269 -0.1677 -0.2162  0.0170
40897W        W97138  30.191   0.406  22.332  0.0357 -0.0719  0.0473
40898W        W97139  34.011  12.861  18.970 -0.0743  0.1167  0.0807
40899W        W97140   6.298  13.289   0.992  0.0288 -0.2046 -0.2378
40900W        W97141   1.415  31.218  16.530  0.0805 -0.0495 -0.3485
40901W        W97142  17.290  29.062   3.267  0.2488 -0.1711 -0.1326
40902W        W97143  12.302  23.381   8.126 -0.3018 -0.5263 -0.0371
40903W        W97144  18.961  13.520  22.620 -0.2651  0.1073 -0.0778
40904W        W97145   1.991   3.005  21.703  0.1033 -0.1161  0.0338
40905W        W97146  30.835  17.996  25.107  0.2728 -0.1167 -0.3024
40906W        W97147  20.268   0.101   7.375 -0.0696 -0.0711 -0.0099
40907W        W97148   5.490  16.040  23.659  0.3852  0.0646 -0.2070
40908W        W97149  32.298  10.303  13.507 -0.0957  0.2636 -0.0270
40909W        W97150   9.083  13.275   4.159  0.1270 -0.2052 -0.2851
40910W        W97151   8.412  23.865  16.298 -0.1541 -0.0642 -0.0678
40911W        W97152  30.870  22.702   6.394  0.1135  0.2118 -0.0365
40912W        W97153   4.654  15.441  22.735  0.0232 -0.2429 -0.1881
40913W        W97154  10.961  28.777   4.793  0.0917  0.0897 -0.2609
40914W        W97155  25.746  29.162  19.010  0.1201  0.3383 -0.2370
40915W        W97156  31.541  28.775   0.302 -0.3734 -0.0530 -0.1172
40916W        W97157   4.967  33.475   0.652  0.1777 -0.1930  0.1623
40917W        W97158   0.425  25.382  23.699 -0.0679  0.0974  0.0770
40918W        W97159  32.221  25.400  19.941  0.0735  0.0065  0.1058
40919W        W97160  33.624  28.442  22.101 -0.2587  0.0603  0.0271
40920W        W97161  23.495  20.492  13.562  0.1114  0.0366  0.1961
40921W        W97162   8.855  32.305   4.065 -0.2778 -0.2076 -0.0630
40922W        W97163  10.326   5.400   6.229  0.1724 -0.0423  0.1611
40923W        W97164  28.503  11.005  18.289 -0.3039  0.0301  0.3227
40924W        W97165  15.088   8.430  11.502 -0.1561  0.2060  0.2224
40925W        W97166  27.823  23.258  20.886 -0.0706  0.1556 -0.1801
40926W        W97167   9.528   1.895  12.668  0.1651  0.4427 -0.0275
40927W        W97168  23.925  20.150   0.047 -0.1683  0.3315 -0.2899
40928W        W97169  22.234  13.719  25.624  0.1729  0.3489 -0.1768
40929W        W97170   0.034  12.954  16.983  0.0015 -0.3233  0.1678
40930W        W97171  24.637   9.440  26.196 -0.1246 -0.0869  0.1154
40931W        W97172   2.201  29.898  22.412 -0.0844  0.1157 -0.2126
40932W        W97173   8.882  23.613  11.889 -0.0526  0.1388  0.1715
40933W        W97174   7.035   1.281  24.648  0.0906  0.0838 -0.0992
40934W        W97175  27.580  30.517  18.798  0.1183 -0.0942 -0.3090
40935W        W97176  22.879   5.472   3.884  0.2336  0.1210 -0.1304
40936W        W97177  28.109  28.736  23.661 -0.0724  0.0070  0.4455
40937W        W97178   3.165   4.619  17.859  0.1137 -0.1667  0.0255
40938W        W97179  22.774  28.527  24.502  0.1579 -0.1755  0.0341
40939W        W97180  12.450   6.811   0.307  0.0154 -0.2174  0.1119
40940W        W97181  13.320  26.398   8.699 -0.1060 -0.3498 -0.2609
40941W        W97182  22.270  11.733  25.405 -0.0818 -0.1016 -0.0863
40942W        W97183  11.574  28.344  22.194 -0.4895  0.1303 -0.1025
40943W        W97184  11.228  30.944   9.713  0.1658  0.4178  0.1698
40944W        W97185  33.882  20.104  23.809 -0.0508 -0.2626  0.0569
40945W        W97186  13.992   1.068   6.720  0.0625  0.1770  0.1009
40946W        W97187  34.792  17.072  17.329 -0.0368 -0.0366  0.0840
40947W        W97188  12.880  28.986   6.925 -0.0315 -0.1391  0.1227
40948W        W97189  32.765  27.486  14.613 -0.3336  0.0624  0.2636
40949W        W97190  14.194  16.573  12.084 -0.1231 -0.0574  0.0594
40950W        W97191  27.835  33.168  16.685  0.0380 -0.0665  0.1099
40951W        W97192  15.198  19.535   2.872  0.2456  0.0656 -0.1396
40952W        W97193  24.816  24.584  19.225 -0.2878 -0.2264 -0.1335
40953W        W97194  12.879  10.466   0.352 -0.2271  0.0150 -0.0343
40954W        W97195  11.813  21.749  13.900 -0.1585 -0.1676  0.0511
40955W        W97196  16.698  16.504   3.457 -0.0013 -0.2020 -0.0633
40956W        W97197   0.335  22.919  21.066 -0.2762 -0.1154 -0.1254
40957W        W97198   0.988  29.246   6.249  0.1502 -0.4253 -0.1356
40958W        W97199   9.425  28.200   2.432 -0.1735  0.1897 -0.0563
40959W        W97200   7.471  20.798  24.504 -0.0060  0.2692  0.0434
40960W        W97201  15.255  12.588  23.177 -0.2690  0.2694 -0.0727
40961W        W97202  35.100  27.891  23.480  0.2575  0.1583  0.1122
40962W        W97203  12.468  14.394   4.440 -0.0435  0.0670  0.1188
40963W        W97204  10.195  29.171  15.251  0.4208 -0.1828  0.0482
40964W        W97205   8.205  30.545   6.274  0.1096 -0.0852 -0.3708
40965W        W97206  34.577  33.590   6.155  0.0213 -0.1851 -0.2464
40966W        W97207  32.766   1.536  18.192  0.0270 -0.1523 -0.0022
40967W        W97208   7.382  15.323   9.648 -0.0097  0.0521 -0.0296
40968W        W97209  16.600  12.256  11.121 -0.0491  0.1699 -0.1671
40969W        W97210  28.084  14.670  14.365 -0.0552  0.0829  0.0493
40970W        W97211  28.212  20.083  22.679 -0.1125 -0.1342  0.0203
40971W        W97212  32.653  27.395  20.099  0.1722 -0.0394  0.0805
40972W        W97213   8.873  30.011  21.789  0.2432 -0.1970  0.2382
40973W        W97214  28.172  15.209  15.326  0.0222  0.0520  0.2512
40974W        W97215  14.434  17.606  24.111  0.0191 -0.1414 -0.1579
40975W        W97216   7.830  17.618   3.150 -0.4582 -0.2729 -0.0309
40976W        W97217  31.885  33.294   5.407 -0.2124 -0.0845  0.2339
40977W        W97218  35.149  31.362  18.198 -0.0714 -0.0295 -0.3160
40978W        W97219  19.722  28.819  25.911 -0.1500 -0.0328  0.0404
40979W        W97220   3.276  23.726  25.194 -0.1193  0.0047 -0.1983
40980W        W97221  30.959  19.360  15.604 -0.0258  0.1028 -0.3019
40981W        W97222   1.826   3.552  22.620 -0.0533 -0.1733 -0.3052
40982W        W97223  28.332  23.241  20.577  0.0490 -0.2259  0.4260
40983W        W97224   0.709  20.125  20.277 -0.0308 -0.0565 -0.2265
40984W        W97225  21.316   7.230   4.414  0.1775 -0.0831 -0.3164
40985W        W97226  19.740  24.490  10.027 -0.0433 -0.2802 -0.1246
40986W        W97227  34.794  19.176  21.768 -0.3086  0.1004  0.1111
40987W        W97228   1.389  21.655  22.965 -0.0182 -0.0943  0.0781
40988W        W97229  22.042   0.720  14.624 -0.0107  0.4579 -0.0130
40989W        W97230   2.631  34.608  17.602  0.0315 -0.2329  0.1165
40990W        W97231   8.655  29.098  10.626 -0.1070 -0.3897 -0.0950
40991W        W97232  34.267   3.940  13.648 -0.0622 -0.0688  0.0522
40992W        W97233   4.005  24.395  20.656 -0.1712 -0.0789 -0.0902
40993W        W97234  28.077  22.400  13.666  0.0148  0.2830  0.1078
40994W        W97235  19.247  15.881  24.068  0.0759 -0.1677 -0.0952
40995W        W97236   0.732  23.628  11.985 -0.1347  0.4707  0.0258
40996W        W97237  23.845  33.292   3.347 -0.4254 -0.2497 -0.0714
40997W        W97238  32.112   6.608  18.021  0.0798  0.0397 -0.1122
40998W        W97239  10.971  11.775  26.178 -0.6379  0.0549 -0.1045
40999W        W97240   3.219  18.233  22.081  0.2694  0.1667 -0.2116
41000W        W97241  11.116   9.548  21.418  0.2911 -0.3911  0.0111
41001W        W97242  21.938  21.563  20.915  0.0723 -0.2480  0.5184
41002W        W97243  10.414  14.297   8.015  0.1893  0.3896  0.1567
41003W        W97244  15.630   9.999  24.660  0.0992  0.0888 -0.0018
41004W        W97245  18.700  17.604   4.896 -0.2729 -0.1778  0.0043
41005W        W97246   8.279   4.420  25.197 -0.2250 -0.0620  0.1034
41006W        W97247  22.566  23.263  22.349 -0.2734  0.0379 -0.1265
41007W        W97248  20.065  21.862  23.139 -0.0039 -0.1147  0.0353
41008W        W97249  28.315  13.721  16.012  0.1176  0.2629  0.1287
41009W        W97250  25.769  24.163  20.234 -0.0181 -0.1030 -0.1826
41010W        W97251  35.187   4.495  17.837  0.0439  0.1588  0.4608
41011W        W97252  24.032   1.797   5.205  0.0085 -0.2934 -0.0244
41012W        W97253  19.845   3.442  17.100 -0.2712 -0.3150  0.2467
41013W        W97254  17.224  25.042   0.299 -0.2319  0.2095 -0.0729
41014W        W97255   5.929  22.902  23.092 -0.1174  0.2148 -0.0662
41015W        W97256  17.743  25.094  26.215  0.2833 -0.0355  0.0701
41016W        W97257   6.793  34.197   9.047 -0.1965  0.2002  0.0053
41017W        W97258   3.482   8.307   3.372  0.1641  0.0715  0.0408
41018W        W97259  23.275  22.153  25.533 -0.1799  0.3196  0.1693
41019W        W97260  27.403  25.084  20.901 -0.0331  0.2538 -0.0323
41020W        W97261  32.245   1.775  17.334 -0.4701  0.2399  0.2882
41021W        W97262  18.351  23.252   9.093  0.1588 -0.0658  0.0964
41022W        W97263  20.541   7.559   1.840  0.0310 -0.1391  0.0384
41023W        W97264   2.924   7.675   0.400  0.2248  0.0353 -0.1950
41024W        W97265  32.324  33.800   4.232  0.3322 -0.2536 -0.1020
41025W        W97266  10.709   6.565   6.924 -0.0752 -0.0183  0.1841
41026W        W97267  16.086  22.866  23.834 -0.1632  0.1118  0.1602
41027W        W97268  14.683   7.193  12.339  0.0007 -0.1773 -0.2425
41028W        W97269   3.611  14.465  21.121  0.3265  0.2214 -0.0056
41029W        W97270   9.073  28.936   5.491  0.0411  0.1718 -0.0180
41030W        W97271  13.436   0.535   4.919 -0.3869  0.0918  0.0734
41031W        W97272  27.304   2.575  17.242  0.0615  0.0924 -0.2189
41032W        W97273   4.434   2.878   3.881 -0.1030  0.2081 -0.2061
41033W        W97274   7.004   7.892  17.523 -0.1102  0.0411  0.3106
41034W        W97275  33.476  15.397  18.288  0.0766 -0.0247  0.2465
41035W        W97276  20.522  13.640  17.434 -0.1895 -0.2640  0.0521
41036W        W97277  12.688   8.575  21.767  0.1367  0.3483 -0.4218
41037W        W97278   9.888  32.944  11.322 -0.1077 -0.0980 -0.0256
41038W        W97279  26.420  33.302  21.156  0.1259  0.0695  0.0096
41039W        W97280  35.259   0.151  18.784 -0.2807 -0.0332  0.4619
41040W        W97281  34.005  22.381  15.775  0.1781 -0.0057  0.1315
41041W        W97282  27.144  24.714  15.187 -0.3265 -0.0463 -0.2017
41042W        W97283  23.676  31.895  21.149  0.1013 -0.2573  0.0885
41043W        W97284  31.911  25.756  25.009 -0.1230 -0.0941  0.1012
41044W        W97285   3.598  19.558  20.055 -0.0989 -0.0777  0.1314
41045W        W97286  33.271  35.024   4.932 -0.0132 -0.0127 -0.1307
41046W        W97287  16.284  24.179   1.978  0.1543 -0.2958  0.4724
41047W        W97288  22.050  17.033   1.621 -0.1085 -0.0511 -0.0123
41048W        W97289   5.643  15.566  26.215  0.3555 -0.0519 -0.2144
41049W        W97290  17.499  32.119  21.319 -0.3849  0.0318 -0.1302
41050W        W97291  10.984  23.029   6.403  0.4166  0.2856  0.2023
41051W        W97292  29.388   8.018  10.273 -0.0963 -0.3716 -0.0868
41052W        W97293   9.607   1.213   7.036 -0.0634  0.0443  0.4775
41053W        W97294   3.899  28.903  22.543 -0.2594 -0.1179  0.0297
41054W        W97295  11.110  26.076  23.232  0.0747  0.4011 -0.2170
41055W        W97296  11.133  26.280   3.064 -0.0871  0.0217 -0.0204
41056W        W97297  14.487  11.347  10.100  0.2108 -0.0031 -0.0631
41057W        W97298  15.823  32.993   8.074 -0.0567 -0.0163  0.1145
41058W        W97299  34.332  24.451   1.427 -0.0242 -0.1410 -0.1517
41059W        W97300  26.452  18.828   8.359 -0.1245 -0.1318 -0.0813
41060W        W97301  12.304   5.016   2.021  0.1522  0.3110 -0.2102
41061W        W97302  21.937   0.953  24.820 -0.4286  0.0991  0.1331
41062W        W97303  16.342  20.485  20.180  0.0551  0.2349  0.0928
41063W        W97304  21.681  12.386  20.699 -0.2204 -0.2053 -0.1351
41064W        W97305  23.567  25.620  24.289 -0.1580  0.0251  0.2245
41065W        W97306  23.881   5.174  17.905 -0.1201  0.3028  0.0057
41066W        W97307  32.308   1.203   3.377 -0.1032 -0.0814  0.2310
41067W        W97308  33.845  15.561  14.732 -0.1878  0.1655 -0.0233
41068W        W97309  18.569  18.343   3.970 -0.0605 -0.4522  0.0735
41069W        W97310   0.378  20.785  10.967  0.2307 -0.1252 -0.2181
41070W        W97311   0.013   2.250  14.239 -0.0461  0.3808  0.2003
41071W        W97312  19.754  25.964  21.491  0.3749  0.2531 -0.0263
41072W        W97313  11.537  24.458  14.493 -0.3321  0.0008 -0.0396
41073W        W97314  18.011   0.657   4.303  0.0892 -0.0016 -0.0098
41074W        W97315   2.923  31.417  21.496 -0.1658 -0.0642  0.1876
41075W        W97316   7.879  24.378   4.146 -0.1420 -0.0998 -0.0742
41076W        W97317  26.933   4.843  15.367 -0.0943 -0.0698 -0.1587
41077W        W97318  31.345  14.787  15.425  0.2053 -0.1544  0.4264
41078W        W97319   6.501  27.902   9.742 -0.0836  0.1206  0.0155
41079W        W97320   9.460  25.493   2.819  0.0059 -0.0578  0.1529
41080W        W97321  14.210  27.246   5.593 -0.1316 -0.1694  0.3094
41081W        W97322   7.408  33.256   9.408 -0.0949 -0.2049  0.2459
41082W        W97323   7.683  31.219  14.681 -0.1351  0.1190  0.2238
41083W        W97324  30.344   8.104  18.163  0.0873  0.2204  0.1510
41084W        W97325  32.016   8.473  12.976 -0.1665 -0.0493  0.2289
41085W        W97326  29.766  29.862  22.908  0.1306 -0.0626  0.2755
41086W        W97327  17.668  11.214  25.527  0.0682 -0.0701 -0.1109
41087W        W97328  24.842  12.829  20.020 -0.0496  0.1609 -0.1098
41088W        W97329  21.979   8.671   1.771  0.1642  0.1192 -0.3289
41089W        W97330  23.716  20.077   0.584 -0.1626 -0.0069  0.0977
41090W        W97331  33.426  22.794   9.107 -0.1115  0.1141  0.0169
41091W        W97332   2.880  11.013  17.676 -0.0695 -0.2989  0.0710
41092W        W97333  32.766  18.136  18.761 -0.1204  0.0143 -0.1796
41093W        W97334  32.283  27.153  22.740  0.1806 -0.0118  0.0396
41094W        W97335  28.196   0.986  25.225  0.2945  0.0544  0.0149
41095W        W97336   5.281  16.067   0.637 -0.1884 -0.1687  0.0258
41096W        W97337  15.914  31.760   1.866 -0.0903  0.0637  0.0511
41097W        W97338  13.404  18.108  14.207 -0.1381 -0.0603 -0.0268
41098W        W97339  15.322  21.388   5.605 -0.0906 -0.0308 -0.0979
41099W        W97340   5.066  12.467   6.647 -0.1181  0.1286 -0.3894
41100W        W97341  19.702   5.981   5.645 -0.0294  0.0708 -0.0680
41101W        W97342  18.373  31.360  21.138 -0.0776 -0.0189 -0.1602
41102W        W97343  17.083   1.505  24.020 -0.0275 -0.1762 -0.2216
41103W        W97344  19.178   7.494   2.602 -0.3992 -0.5670  0.0673
41104W        W97345  11.332  24.930  15.195  0.0586 -0.0970  0.2075
41105W        W97346  13.023  19.082  12.062 -0.0443  0.2965 -0.0122
41106W        W97347  26.042  30.415  22.346 -0.0146 -0.1460  0.0448
41107W        W97348   6.681  23.018   5.864  0.3416  0.0170  0.0961
41108W        W97349   3.758  24.452   4.358  0.0164 -0.2532  0.2742
41109W        W97350  20.271   9.254  25.395 -0.0401  0.1101 -0.1355
41110W        W97351   0.092   2.096  23.116 -0.1048  0.0485 -0.2310
41111W        W97352   4.961  30.144  12.647 -0.0817 -0.2160 -0.2490
41112W        W97353  27.498  31.971  26.106 -0.4413  0.0348  0.2808
41113W        W97354  13.469  33.844   7.079 -0.0264  0.3156  0.0711
41114W        W97355  21.760  16.287  16.257  0.0499  0.1673 -0.1424
41115W        W97356  34.038  25.382   1.409 -0.1079 -0.1645  0.0387
41116W        W97357   0.955  27.820   2.950 -0.3371  0.4253 -0.1378
41117W        W97358  15.780  17.419   3.586 -0.0192 -0.1658  0.3119
41118W        W97359   1.151  32.624  23.102 -0.0359 -0.1772 -0.1957
41119W        W97360   1.800  32.167   5.861 -0.2226  0.3596 -0.3155
41120W        W97361  34.111   0.078   7.061  0.2297 -0.1407 -0.0635
41121W        W97362   2.048  24.667   2.611  0.1355  0.2222  0.1659
41122W        W97363   6.084  27.393  21.653  0.0902 -0.0287 -0.1471
41123W        W97364  14.475  28.534   2.333 -0.0516 -0.0956 -0.0288
41124W        W97365  34.716  17.871  22.904 -0.2592 -0.0294  0.1204
41125W        W97366   9.907  24.479  13.587  0.1190 -0.1216 -0.1459
41126W        W97367  12.851  33.371   1.606  0.0976 -0.0555  0.1649
41127W        W97368  24.739  30.369  13.968 -0.3326 -0.0477  0.1730
41128W        W97369  19.726  21.835  21.072  0.1019 -0.0166  0.4068
41129W        W97370  26.087  18.564  17.520 -0.2028 -0.1307 -0.1162
41130W        W97371  30.301   5.650  12.557  0.1303  0.2562  0.0518
41131W        W97372  28.501  22.833  19.865  0.3249  0.0549  0.0464
41132W        W97373  12.846  17.228  21.434  0.0061 -0.1616 -0.0566
41133W        W97374  15.646  15.919   0.047 -0.1207 -0.0171  0.2079
41134W        W97375  23.945  11.708  14.457 -0.1471 -0.3316 -0.1277
41135W        W97376  18.295  16.948   4.364 -0.2035  0.1859 -0.2106
41136W        W97377  34.419   0.351  15.299  0.0561  0.1426 -0.2090
41137W        W97378  25.684  24.314  22.906 -0.2131  0.0596 -0.0754
41138W        W97379  11.342  34.459  21.702  0.0051 -0.1802  0.2639
41139W        W97380   4.950  17.100   5.999  0.1286  0.2583 -0.2236
41140W        W97381   7.595  18.598   1.635 -0.0152  0.0558  0.1469
41141W        W97382  30.948  17.883  24.617  0.1225 -0.1532 -0.0559
41142W        W97383   8.671   4.565   9.666  0.1188 -0.3338  0.0470
41143W        W97384  26.654   9.737  19.853  0.0093  0.1646 -0.1339
41144W        W97385   9.613  11.930   9.345 -0.3827  0.2641  0.2530
41145W        W97386  26.425  26.093  22.218 -0.0229  0.5964 -0.0011
41146W        W97387   2.266  32.005   1.243  0.1048  0.1024 -0.0061
41147W        W97388   7.525  16.756  20.578 -0.1563 -0.2057  0.2334
41148W        W97389  23.661  17.834  20.434  0.1806  0.0942  0.0753
41149W        W97390  10.759  26.439   7.718  0.1543 -0.0923  0.2381
41150W        W97391  24.177   2.906  21.688 -0.0845 -0.5876  0.3204
41151W        W97392  23.054  34.219  25.917 -0.2328 -0.2636 -0.1743
41152W        W97393   8.774  20.642   6.481  0.0004 -0.0038  0.0051
41153W        W97394  17.693  23.300  25.030 -0.2062 -0.2627 -0.0303
41154W        W97395   1.555  29.043   4.226  0.0392 -0.0573  0.3601
41155W        W97396  31.920  19.499   6.924 -0.5138  0.1062  0.0975
41156W        W97397   5.452   7.925  21.612  0.4427 -0.0170 -0.0937
41157W        W97398  35.115   3.189   6.937  0.1913  0.0746 -0.0203
41158W        W97399  18.862  14.756  26.129  0.2851 -0.3127  0.0579
41159W        W97400  28.151  19.937  22.123  0.2819  0.1289 -0.1247
41160W        W97401  34.679   0.028  16.306 -0.0326 -0.0095 -0.3038
41161W        W97402  33.416  19.130  22.838  0.1597 -0.4042  0.0364
41162W        W97403  15.655  16.528  11.391  0.0205  0.0248 -0.0162
41163W        W97404  23.802  15.756  21.565 -0.0429  0.3043 -0.1043
41164W        W97405   7.688  21.707   3.650  0.1826  0.1516  0.0862
41165W        W97406  23.955  26.372  17.729  0.0311 -0.0524 -0.1331
41166W        W97407  20.026  18.441   9.077  0.1906  0.1869 -0.0211
41167W        W97408  11.154  27.476  11.979 -0.0269  0.0743  0.2564
41168W        W97409  16.738  21.829  22.751 -0.0222 -0.0238  0.4187
41169W        W97410  27.982  35.248  12.342 -0.2147 -0.0155  0.1288
41170W        W97411  32.388  20.419  23.414 -0.2086  0.2504 -0.1175
41171W        W97412   2.451   9.683   1.851  0.3516 -0.1459  0.4087
41172W        W97413  33.608  17.080  11.828  0.1382  0.0827  0.1019
41173W        W97414  17.698   2.478   4.022 -0.1568 -0.1160  0.0551
41174W        W97415  32.809   8.632  22.027 -0.2066  0.0637  0.2351
41175W        W97416   9.689   8.429   6.142 -0.0036 -0.1161  0.1184
41176W        W97417  35.285   7.532  17.078 -0.2648  0.1515 -0.2865
41177W        W97418  17.420  35.053   4.664  0.4782 -0.2048 -0.0748
41178W        W97419  26.017  20.441  15.585  0.1175 -0.0944 -0.0472
41179W        W97420  14.807  28.886  13.728 -0.0857  0.3290 -0.0983
41180W        W97421   6.690   7.123  21.515 -0.2469 -0.1556 -0.0399
41181W        W97422  20.689   9.742  20.170 -0.0012  0.1367  0.0823
41182W        W97423  28.128  12.441  15.636  0.0669 -0.1440  0.3377
41183W        W97424  32.757  20.007  13.940 -0.4879 -0.0951  0.3325
41184W        W97425  25.845  28.903  16.368 -0.0275  0.0275 -0.1593
41185W        W97426  27.368  20.182  24.413 -0.1088 -0.0746 -0.0207
41186W        W97427  25.303  34.695  20.985  0.0970 -0.1018 -0.0743
41187W        W97428   4.019  20.331   0.965 -0.2862  0.0513 -0.4351
41188W        W97429   2.211  14.002   4.080 -0.0434  0.1693 -0.0557
41189W        W97430   9.730   0.158  22.115 -0.2329  0.0122  0.1927
41190W        W97431  24.627  15.021  17.679 -0.0119 -0.0661 -0.2834
41191W        W97432  32.236  28.619  19.651 -0.2076 -0.0651 -0.2898
41192W        W97433  10.606  25.196  15.028 -0.0326  0.2886 -0.0048
41193W        W97434  15.404  14.373  25.844  0.0458 -0.0870  0.2901
41194W        W97435  25.867   9.589  16.308  0.5675  0.0584 -0.0753
41195W        W97436   2.982  33.445   7.352 -0.0304 -0.1182 -0.0047
41196W        W97437  11.912  31.309   1.073  0.1006  0.0557  0.1933
41197W        W97438  29.161   3.947   1.932  0.0097  0.3599 -0.0438
41198W        W97439  31.277  25.286   0.479 -0.0234  0.1710 -0.0020
41199W        W97440  20.847  26.857   6.644 -0.0088  0.0133 -0.1051
41200W        W97441  13.347   4.966  18.424  0.2682 -0.1443 -0.3389
41201W        W97442  20.455   6.857  23.368 -0.1945 -0.2680  0.1087
41202W        W97443   9.737  26.812  12.701  0.0317 -0.2519 -0.0817
41203W        W97444  17.679  13.065  22.989  0.3775 -0.0170  0.0017
41204W        W97445  10.714   5.572   9.594 -0.1336  0.0432 -0.0064
41205W        W97446   5.756   2.005   5.934 -0.2603  0.2289 -0.3456
41206W        W97447  29.630  13.736  14.553 -0.0525  0.1300  0.0144
41207W        W97448  26.828   2.494   3.758  0.0728 -0.0593  0.0747
41208W        W97449  30.393  26.521  20.858  0.1936 -0.1380  0.2590
41209W        W97450  30.806  28.023  20.621  0.0758 -0.4244  0.0308
41210W        W97451  13.521  21.379  22.341  0.0258 -0.2400  0.0915
41211W        W97452  24.698   2.020  23.494  0.1163  0.0546  0.0586
41212W        W97453  33.623  21.288  11.350 -0.0155  0.3435 -0.2818
41213W        W97454  32.024  15.193  24.694 -0.0754 -0.1244  0.2810
41214W        W97455  11.965  25.239  16.170  0.2292  0.0083  0.1712
41215W        W97456  10.125  19.696   1.568 -0.2105  0.2818  0.1951
41216W        W97457  33.505   6.256  11.978  0.2360 -0.3156  0.0884
41217W        W97458  31.781  11.068   9.469 -0.3028  0.0419 -0.0272
41218W        W97459  26.100  35.279  24.806 -0.0228  0.1298  0.0134
41219W        W97460  34.180  20.435  25.671 -0.1748  0.0648  0.1435
41220W        W97461  34.620  17.146   7.350  0.2047 -0.1304  0.2213
41221W        W97462  16.722  24.048  12.832 -0.4815  0.1984  0.1017
41222W        W97463  12.940  15.075  25.229 -0.1345  0.2029  0.0056
41223W        W97464   0.009  16.319  21.185  0.1478 -0.0407  0.3781
41224W        W97465  10.701   0.062  20.632 -0.0986  0.0826  0.0725
41225W        W97466  31.914  29.535  15.235 -0.1315  0.0545 -0.0557
41226W        W97467  17.783   8.765  23.408  0.0772 -0.0587 -0.0671
41227W        W97468  19.008   8.441   7.044  0.2494 -0.1878 -0.2155
41228W        W97469  28.351  18.752  10.422 -0.1844 -0.1047  0.1473
41229W        W97470  17.357  21.832   6.171 -0.1084 -0.0650  0.3064
41230W        W97471  15.145   5.025   5.687  0.0084  0.0864  0.3006
41231W        W97472  12.108  18.154  11.155  0.0926 -0.0206 -0.1116
41232W        W97473  28.674  13.887  24.298  0.0551 -0.3099 -0.0801
41233W        W97474  14.868  12.030  13.778  0.2682 -0.0173  0.0343
41234W        W97475  16.631  31.125   5.477  0.2464 -0.2642  0.3134
41235W        W97476  12.365   5.392  12.535  0.1346  0.0604 -0.0094
41236W        W97477  16.247   5.933  20.523 -0.2078 -0.3032 -0.3302
41237W        W97478  10.806   8.828   5.178 -0.3335 -0.1704  0.0028
41238W        W97479  32.063  10.428  10.780  0.0386  0.1923  0.1039
41239W        W97480  19.111  18.048   2.829 -0.1829 -0.3413  0.2725
41240W        W97481   6.401  30.330  25.782  0.2015 -0.2230 -0.1610
41241W        W97482   0.523   0.666   6.772  0.0216  0.2538  0.0115
41242W        W97483  26.511   5.746  15.391 -0.2284  0.2355  0.1179
41243W        W97484   7.954   9.841  24.898  0.2153  0.1310 -0.0083
41244W        W97485  16.063  20.149  14.512 -0.0328  0.4796  0.1537
41245W        W97486  25.612   6.749  19.273 -0.1548 -0.0523  0.3072
41246W        W97487  14.654  13.830   9.776 -0.0859 -0.0023 -0.0427
41247W        W97488  28.750   5.848   9.184 -0.0772  0.0175 -0.0860
41248W        W97489  16.032  24.446   7.611  0.1387  0.0216  0.0108
41249W        W97490  33.116  14.581  18.180 -0.2149  0.0619  0.0685
41250W        W97491  15.258  10.940   7.699  0.2603 -0.0490  0.0061
41251W        W97492  12.326  23.691  11.204 -0.0055  0.0155  0.1860
41252W        W97493  13.640   2.907  11.651  0.1505 -0.3250 -0.4963
41253W        W97494   8.551   1.843   6.763 -0.0918  0.0506  0.1466
41254W        W97495  15.356  22.054  11.290 -0.1531  0.0775 -0.2510
41255W        W97496   8.773   1.037  21.341  0.0012  0.0133 -0.1038
41256W        W97497  12.849  17.802  25.088  0.2014  0.1897 -0.0053
41257W        W97498   5.785  23.517   0.190  0.2005 -0.2281 -0.0760
41258W        W97499  27.608   6.910  24.609  0.2299  0.5083  0.1025
41259W        W97500  18.718   1.354   2.892 -0.1667  0.2573 -0.0966
41260W        W97501  22.125  28.938   4.211 -0.3331 -0.0797 -0.1659
41261W        W97502  29.833   8.231  23.317 -0.0101 -0.0785 -0.1806
41262W        W97503   4.365  19.955  21.011  0.0028  0.0113  0.2256
41263W        W97504   4.168  18.250  20.766 -0.1624 -0.4496 -0.1598
41264W        W97505  11.624  32.170   2.860  0.0228  0.0416  0.2657
41265W        W97506   0.841  31.205   7.775 -0.4391 -0.0094 -0.0247
41266W        W97507  10.188  16.218  11.429 -0.2331 -0.0627 -0.3352
41267W        W97508  18.618  13.583  19.276 -0.3780 -0.0756  0.1290
41268W        W97509  24.016   4.725  18.705  0.0633 -0.2745 -0.1413
41269W        W97510  21.754  31.913   5.065 -0.0323 -0.2227 -0.0875
41270W        W97511  28.187  28.189   2.370  0.1729 -0.4281 -0.0419
41271W        W97512  26.675  33.650  12.842  0.0849 -0.2849  0.0716
41272W        W97513  26.473  17.942   7.875  0.2359  0.2285 -0.3269
41273W        W97514  21.226  33.694   2.004  0.0860  0.0444 -0.1880
41274W        W97515  28.871  26.918   2.398 -0.3031  0.1173 -0.0704
41275W        W97516  32.425  20.828  10.586 -0.1816 -0.0166  0.1016
41276W        W97517  24.958  28.177  16.246 -0.0960  0.2399  0.1538
41277W        W97518  14.530   6.719   1.328  0.3955  0.1099  0.1512
41278W        W97519  10.595  28.097  13.034  0.3097 -0.1994  0.2524
41279W        W97520   9.118  33.069  20.806  0.1519  0.1256 -0.2075
41280W        W97521   6.126  17.986   0.529  0.0598 -0.3211  0.1451
41281W        W97522  24.566  24.533  16.155 -0.0728 -0.1273  0.0782
41282W        W97523   2.446  15.153  13.228 -0.0672 -0.0046  0.0791
41283W        W97524  11.845  19.993  13.293 -0.2011  0.3020 -0.1575
41284W        W97525   7.950   6.833   3.565 -0.0648 -0.2020  0.1517
41285W        W97526   6.337  17.706  20.052  0.0160  0.3734  0.0981
41286W        W97527  32.509   5.907  22.843 -0.0557 -0.1495 -0.1337
41287W        W97528  30.439   6.114  10.432  0.2338 -0.3296 -0.0499
41288W        W97529  21.789  22.619  23.015  0.0426 -0.0539  0.0853
41289W        W97530  27.250   3.565  24.973 -0.0087  0.0077  0.0631
41290W        W97531  24.560  33.511  17.625 -0.0780 -0.2106  0.0377
41291W        W97532  12.843  21.680  10.661  0.2395 -0.0239 -0.0085
41292W        W97533  12.926  24.733  17.119  0.2539 -0.0601 -0.1773
41293W        W97534   9.064   3.929   6.744  0.1764 -0.1495 -0.2406
41294W        W97535  25.850  32.550  15.071  0.3779  0.0307 -0.2616
41295W        W97536  14.237   6.793  10.413 -0.0464  0.1000 -0.1512
41296W        W97537   2.281  10.598   5.595  0.3340  0.0507  0.4527
41297W        W97538   5.670  34.017   4.484 -0.3104  0.2098  0.1461
41298W        W97539  16.454  24.543   4.094  0.1983  0.0561  0.0013
41299W        W97540  26.520   0.282   1.929 -0.0176 -0.0330 -0.1066
41300W        W97541   4.536  17.470  19.127 -0.1045 -0.2781 -0.0073
41301W        W97542  20.415  28.771   2.571 -0.0883  0.3397  0.0602
41302W        W97543   5.422  27.553  23.444  0.0567  0.1158  0.1771
41303W        W97544   1.298   3.748  19.655  0.1331  0.3972 -0.0929
41304W        W97545  10.376   4.726  25.651  0.1427  0.1211 -0.0803
41305W        W97546  25.973  31.907   2.065  0.2999 -0.2248 -0.0330
41306W        W97547  28.920  21.307   5.773 -0.3910 -0.0726 -0.5312
41307W        W97548  15.597  26.727  24.343  0.1262  0.2077 -0.4665
41308W        W97549  34.314   3.871   0.448 -0.2397 -0.1216 -0.0295
41309W        W97550   1.068   3.401   2.255 -0.0696 -0.3701  0.0884
41310W        W97551  20.282  29.000  23.964  0.1332  0.1807 -0.1691
41311W        W97552   5.697  32.532  24.539  0.0376  0.1378  0.0121
41312W        W97553   9.151  14.408   7.045  0.1561 -0.0419 -0.1861
41313W        W97554  28.094   9.137  13.835 -0.1962  0.1063  0.0938
41314W        W97555  34.893  14.873  11.624  0.0124  0.4027 -0.0436
41315W        W97556  20.020  15.787  16.775 -0.2255 -0.2479  0.4575
41316W        W97557  11.132  31.159  24.714 -0.1882  0.1555 -0.2019
41317W        W97558  33.454  30.947  24.239  0.2934  0.0377 -0.2689
41318W        W97559   5.669  18.837   5.693 -0.1638  0.1279  0.0124
41319W        W97560   8.709  17.597  20.490  0.1907  0.1032  0.0042
41320W        W97561  21.939  15.840   2.384  0.4319  0.1698 -0.0143
41321W        W97562  12.794  24.734  22.952  0.0797  0.0467  0.0208
41322W        W97563  12.227  28.365  23.927  0.0632 -0.0859  0.1230
41323W        W97564  28.143  24.008  10.108  0.2470 -0.3312  0.0291
41324W        W97565  25.778  12.655  10.293 -0.0428 -0.0247  0.0436
41325W        W97566   5.055   7.594  25.671  0.0150  0.1474 -0.3156
41326W        W97567  21.649  25.037  25.316 -0.0124 -0.2183 -0.3400
41327W        W97568  26.303  15.657  10.560 -0.0932 -0.0980 -0.3934
41328W        W97569   8.664  11.153   9.524  0.1934 -0.2134  0.0412
41329W        W97570  21.375  20.611   1.266  0.0121 -0.0893  0.1007
41330W        W97571  35.269   1.126   4.387 -0.2291  0.1090  0.0241
41331W        W97572   9.277   6.435  12.603 -0.0696  0.0172 -0.2211
41332W        W97573   5.384   4.083   5.845 -0.0787  0.2693  0.0366
41333W        W97574  17.471  22.057   0.049 -0.0393  0.1366 -0.2717
41334W        W97575   0.118  29.886   3.764  0.1716  0.0276 -0.2232
41335W        W97576  32.179  11.651   7.341  0.0943 -0.1986  0.1033
41336W        W97577   8.354  11.629   1.458 -0.2414  0.1259 -0.3392
41337W        W97578   4.312  15.358   5.173 -0.0645  0.2243  0.0831
41338W        W97579  25.068  10.038  19.024  0.0332 -0.1957  0.1008
41339W        W97580  28.550   2.536  11.132 -0.0591  0.4033  0.0420
41340W        W97581   7.857   5.148  18.967 -0.1956 -0.0943 -0.0527
41341W        W97582  18.436   2.669  21.246  0.0933 -0.2318  0.0197
41342W        W97583  18.882   2.832  16.576  0.0794  0.3396 -0.0074
41343W        W97584  23.349   5.839   1.520  0.2467 -0.0166 -0.0720
41344W        W97585  34.270   3.438  23.652  0.0726  0.0140 -0.1377
41345W        W97586  11.940   0.550   9.046 -0.2325 -0.2787 -0.0876
41346W        W97587  30.103  28.893  23.923 -0.0559 -0.1222 -0.1257
41347W        W97588  14.317  17.900  11.785 -0.0453  0.1021  0.0362
41348W        W97589  31.286  14.172  21.570  0.1621 -0.0498  0.1907
41349W        W97590  28.789  15.226  19.449 -0.0129  0.1956 -0.0268
41350W        W97591   2.559   6.889   4.847  0.0914  0.2341  0.2317
41351W        W97592  34.129   7.540   3.385  0.2840  0.4252  0.5124
41352W        W97593  21.725  12.390  25.436  0.0554 -0.1455 -0.0311
41353W        W97594  34.989   2.944   2.064  0.0772  0.1936  0.0433
41354W        W97595   2.997  13.126   1.890 -0.2341  0.1315 -0.3159
41355W        W97596  24.682  14.859  13.117  0.3713  0.0506 -0.4522
41356W        W97597  19.489   5.659   6.022 -0.1966  0.1976  0.1215
41357W        W97598  26.850  20.033  20.941 -0.3410  0.3457 -0.1456
41358W        W97599  16.193  19.389   1.346  0.0148  0.1910  0.0851
41359W        W97600  22.654   5.880  22.184  0.1535 -0.0469 -0.1608
41360W        W97601  25.296   6.631  18.598  0.1187 -0.1698  0.3202
41361W        W97602   2.097   2.728   0.015  0.0855 -0.2495  0.0443
41362W        W97603  12.335  34.735   0.359 -0.3185 -0.2314  0.2141
41363W        W97604  12.183  12.522   7.351 -0.0395  0.1294  0.2393
41364W        W97605  26.307   9.308  17.810 -0.0414  0.0996 -0.1548
41365W        W97606  18.528  15.010   7.131 -0.2000 -0.1903  0.1449
41366W        W97607  32.054  23.963  19.452 -0.1337 -0.0139 -0.1475
41367W        W97608  20.805  24.581   6.774 -0.0470  0.1600 -0.3259
41368W        W97609   6.531  25.319  15.675  0.0652  0.2844 -0.1871
41369W        W97610  11.486  27.922  22.634 -0.2462 -0.4129 -0.1232
41370W        W97611   9.672  22.537  15.782  0.2017  0.0666  0.3454
41371W        W97612   7.010   9.465  20.958  0.4634  0.0725  0.2923
41372W        W97613  11.551  24.700   2.548  0.0743  0.0062  0.0235
41373W        W97614  12.957  12.370  26.097 -0.4418  0.0408  0.1789
41374W        W97615  12.709  15.725   4.675 -0.1552  0.0925 -0.1050
41375W        W97616  30.509  26.980   9.100 -0.0140  0.2890 -0.0917
41376W        W97617   7.780  33.851  22.050  0.1366 -0.0972 -0.2138
41377W        W97618  20.034  28.809  21.065 -0.4031  0.5199  0.2352
41378W        W97619   3.938   2.125   6.225  0.2893  0.1403 -0.4341
41379W        W97620   9.488  27.269   8.269 -0.3763  0.0892  0.1405
41380W        W97621  21.181  22.705  16.309  0.1906 -0.1647  0.3467
41381W        W97622  30.724  13.192  20.596 -0.0868  0.1355 -0.0614
41382W        W97623  31.031   2.481   0.721 -0.0480  0.2518 -0.0928
41383W        W97624  10.765  20.498  23.656  0.2332  0.1100 -0.0707
41384W        W97625  31.690  21.703  12.684 -0.0035  0.1107  0.0534
41385W        W97626  28.252   2.658   5.460 -0.1062  0.1371 -0.0849
41386W        W97627  29.964  32.542   0.815 -0.0138  0.0827  0.2845
41387W        W97628   2.071  26.608  22.841 -0.0601 -0.1115 -0.0629
41388W        W97629   8.797  16.331  18.159 -0.2301  0.1530 -0.2695
41389W        W97630  28.875  29.855  20.605  0.0860  0.1048 -0.1754
41390W        W97631  33.008   2.895  19.640  0.2226  0.2063 -0.1181
41391W        W97632   1.653  35.008   0.728  0.0754 -0.2063 -0.0117
41392W        W97633  10.857  11.499   4.890  0.3959  0.0306  0.2317
41393W        W97634  10.560  26.967  16.416  0.1522  0.4845  0.2533
41394W        W97635  31.451   1.208  22.407  0.0138  0.1645  0.1020
41395W        W97636   9.654  14.334   1.211 -0.0181  0.1483  0.2407
41396W        W97637  17.445   3.640   4.596 -0.0297 -0.0104 -0.1322
41397W        W97638  12.522   0.187  23.641  0.1669  0.0134  0.0098
41398W        W97639  18.758   0.612  17.708 -0.1823 -0.0239  0.1495
41399W        W97640  22.032  12.389  24.072 -0.1074 -0.2990  0.1680
41400W        W97641  17.766  21.722  20.524 -0.1045  0.0693 -0.0005
41401W        W97642  34.043  13.263  25.580 -0.3226 -0.3806  0.1168
41402W        W97643   7.772  26.939  16.367  0.3197 -0.0775  0.0453
41403W        W97644   2.206  14.130  17.957 -0.3410 -0.1218 -0.1689
41404W        W97645   5.348   6.186  19.167  0.1614  0.0337  0.0754
41405W        W97646   9.211  19.540  14.306  0.1159  0.4254 -0.2056
41406W        W97647  11.750  33.606   1.326  0.0502  0.1494 -0.2292
41407W        W97648  12.329  33.747  25.809  0.0801 -0.1923  0.4534
41408W        W97649   2.511  19.455  15.301  0.2219 -0.0066  0.2529
41409W        W97650   6.967   8.181   0.746  0.3685 -0.1063 -0.0878
41410W        W97651   7.051  14.944  11.111  0.0592 -0.2525  0.4056
41411W        W97652  16.457  24.514  21.582 -0.0427  0.1169  0.1388
41412W        W97653  14.622   4.831  11.616  0.1208 -0.0493  0.0998
41413W        W97654  31.699  23.218  25.087  0.2222  0.1689 -0.4374
41414W        W97655  28.593  31.070  22.990 -0.0563 -0.1133  0.1704
41415W        W97656  12.768  22.207  23.683  0.2139  0.0863 -0.0181
41416W        W97657  13.022  15.317  23.265 -0.0553  0.0235  0.0383
41417W        W97658  11.413   7.474   9.565  0.1804  0.0227 -0.1865
41418W        W97659   4.112   3.933   5.278  0.0682  0.0657  0.2583
41419W        W97660  26.370  14.122  16.718 -0.1534  0.0721 -0.1291
41420W        W97661  29.567  17.768  17.313  0.0148  0.3521  0.0422
41421W        W97662  12.899   6.916   9.171 -0.2411 -0.3578  0.2712
41422W        W97663   6.147   3.655   9.740 -0.0132 -0.0731 -0.0265
41423W        W97664  23.473  14.941  15.297 -0.2494  0.3141 -0.2055
41424W        W97665  32.973  13.165  14.846  0.1722 -0.0356  0.0512
41425W        W97666  16.678   9.397   7.576 -0.0888  0.2419  0.2007
41426W        W97667   5.873  32.357   0.272  0.4020  0.3219  0.1690
41427W        W97668   5.802   1.646  12.259 -0.2457  0.1135 -0.1202
41428W        W97669  16.502   3.100  17.212  0.1782  0.0816 -0.0474
41429W        W97670  34.225   3.015   5.359 -0.2061 -0.3116 -0.3644
41430W        W97671   0.477  26.451  17.499  0.0518 -0.2301 -0.1693
41431W        W97672   7.275   0.438  24.874  0.2338 -0.2483  0.0356
41432W        W97673  13.220  30.145   0.815  0.0680  0.0395 -0.2646
41433W        W97674  27.087   5.539  11.515 -0.2113  0.1030  0.1012
41434W        W97675  29.857  20.170  24.462 -0.3343 -0.0683  0.2826
41435W        W97676   5.000  21.490   0.839 -0.2728  0.0115  0.1401
41436W        W97677  28.551   3.614  11.719 -0.0577 -0.2163  0.1360
41437W        W97678  21.276   2.459  22.801 -0.2013 -0.0552  0.2592
41438W        W97679  24.849  17.679  24.406 -0.3693 -0.2378  0.2233
41439W        W97680  11.048  13.488   2.290 -0.3116  0.1310  0.2139
41440W        W97681  18.663  13.398   1.148  0.4163 -0.1129 -0.1125
41441W        W97682  17.010  24.766   5.755  0.0440  0.0500  0.1988
41442W        W97683  16.316   0.541   9.081  0.0425  0.0278  0.0138
41443W        W97684   8.385  13.451  13.056 -0.2534  0.1512  0.0339
41444W        W97685  29.028  10.064  13.362 -0.3778  0.1640 -0.2153
41445W        W97686   8.064   3.776  23.575 -0.1045  0.4356 -0.2312
41446W        W97687  16.388   5.194  19.681  0.1287  0.2242  0.1234
41447W        W97688  33.437   4.098  18.066 -0.3675  0.1114 -0.1821
41448W        W97689  11.690  31.620   2.798 -0.0233 -0.1990 -0.2355
41449W        W97690  18.369  14.604  25.550  0.2782  0.3375  0.0896
41450W        W97691   2.551  17.824  17.293 -0.3787 -0.0560 -0.0234
41451W        W97692  14.727   3.292  18.205 -0.2839 -0.1098 -0.1552
41452W        W97693  18.653  19.423   0.951 -0.0059  0.1297  0.1151
41453W        W97694  10.514  30.673   0.848 -0.1087  0.0505  0.2440
41454W        W97695  25.375  28.748  10.947  0.0682 -0.0593  0.0662
41455W        W97696  14.139  33.191  20.633 -0.0820 -0.1520 -0.1254
41456W        W97697  29.073   2.068  25.345 -0.1405  0.0574 -0.4714
41457W        W97698  35.361  25.012  20.484 -0.1690 -0.0889  0.2768
41458W        W97699  28.175   0.626  22.397 -0.1671  0.2525 -0.5760
41459W        W97700  10.046   2.110  12.640  0.1744 -0.2620  0.0142
41460W        W97701   8.639  26.258   7.129  0.3653 -0.1760  0.2184
41461W        W97702  28.787   2.428   4.235 -0.1221 -0.1221  0.0842
41462W        W97703  13.254   3.856   8.085  0.0053 -0.0888  0.0296
41463W        W97704  33.155  23.451  14.726  0.3221  0.0035  0.1280
41464W        W97705  12.361  25.850  15.312 -0.2031  0.1744 -0.2849
41465W        W97706  16.036  13.025  25.372 -0.2619  0.3309  0.0244
41466W        W97707  10.387  32.976   0.422  0.0686  0.0918 -0.2557
41467W        W97708  20.927   3.960  20.931  0.3336  0.0671 -0.0070
41468W        W97709  16.937  12.056   6.535  0.2127 -0.1870 -0.0007
41469W        W97710   5.650   3.479   6.772  0.1430  0.0469  0.3826
41470W        W97711  27.215  20.708  13.225 -0.1243 -0.1287  0.0715
41471W        W97712   0.676  23.540  21.489 -0.2133  0.1758  0.1787
41472W        W97713   0.676  21.727  14.670 -0.1319 -0.0880  0.1588
41473W        W97714  31.704   1.150   3.833  0.2668 -0.1166 -0.0777
41474W        W97715   2.339  33.518  23.244 -0.1642  0.0836  0.1511
41475W        W97716  32.225  26.667  12.814  0.1133 -0.0918 -0.3786
41476W        W97717   2.305  34.641   3.987 -0.0103  0.0031 -0.0927
41477W        W97718  13.456  10.769  10.289 -0.1586 -0.1720 -0.0335
41478W        W97719  28.914  24.862  26.156  0.0413  0.1155  0.2861
41479W        W97720  19.274  30.230   3.181  0.1249  0.0491 -0.0469
41480W        W97721  30.668   4.313   2.282  0.0613  0.1503  0.2165
41481W        W97722   2.937  18.103  13.139 -0.1128  0.1278  0.0487
41482W        W97723  12.523   1.712  11.478 -0.1372  0.3755  0.0598
41483W        W97724  30.273  21.578  15.604 -0.0988 -0.4827 -0.0652
41484W        W97725   5.200   6.364   4.131 -0.0794 -0.0466 -0.0436
41485W        W97726  25.266  16.236  10.806 -0.0152  0.0441  0.0818
41486W        W97727   2.979  19.667  16.308  0.1712  0.0903 -0.1043
41487W        W97728   6.258  18.482   9.010 -0.3814  0.0226 -0.3720
41488W        W97729  29.561  18.000   8.748 -0.0687 -0.3147 -0.0102
41489W        W97730   2.722   6.249  24.013  0.1458 -0.0140 -0.0995
41490W        W97731  14.199  25.461   9.631 -0.0405  0.1559 -0.1004
41491W        W97732   1.076  13.401  17.411  0.1648 -0.0267  0.0310
41492W        W97733   9.006   9.864   0.293 -0.1755 -0.3204  0.1125
41493W        W97734  29.581  12.089  14.999 -0.0912 -0.1429 -0.0304
41494W        W97735  27.219   9.399  16.067 -0.2128 -0.3354 -0.0498
41495W        W97736  25.759  27.755   1.477 -0.0556 -0.0539  0.0906
41496W        W97737  34.168   7.428  18.041 -0.0449 -0.1005 -0.0059
41497W        W97738  29.448  25.545   8.113  0.1059  0.4274  0.4800
41498W        W97739  12.541  31.168   5.232 -0.0587  0.0463  0.4397
41499W        W97740  19.756  10.061  22.662  0.1787 -0.1394 -0.0120
41500W        W97741  26.027  16.102   7.479 -0.2059  0.0154 -0.2194
41501W        W97742  12.444   2.728   6.921  0.1511  0.1395 -0.2856
41502W        W97743   5.301  11.142  19.491  0.4859  0.0636  0.2759
41503W        W97744  25.714  13.486  12.112 -0.1319 -0.3561  0.0290
41504W        W97745   3.842  17.151  25.709 -0.0838 -0.2588  0.0202
41505W        W97746  30.434  11.567  18.204 -0.1371  0.0102 -0.0496
41506W        W97747  14.400   4.098   9.737 -0.1813 -0.1404 -0.1951
41507W        W97748  13.997  18.437   0.990  0.2257 -0.0482 -0.0151
41508W        W97749   1.721   4.135  16.063 -0.4450  0.0817  0.0176
41509W        W97750  21.775   4.851   4.491 -0.2773 -0.1485  0.1358
41510W        W97751   6.920   1.510   8.252  0.1439 -0.0572  0.2316
41511W        W97752   5.975   6.676  11.078  0.0166 -0.1835 -0.1852
41512W        W97753  24.189  13.759  11.593  0.0418  0.3792 -0.0413
41513W        W97754  12.490  23.727  23.016 -0.3731  0.4663  0.0279
41514W        W97755  31.431  17.840   6.688 -0.3266  0.2512  0.1261
41515W        W97756  35.111   9.091  18.664  0.0006 -0.0105 -0.1960
41516W        W97757  11.767  18.376  10.430  0.2687  0.1339  0.2157
41517W        W97758  33.993  34.575  21.629  0.1034 -0.5616 -0.3305
41518W        W97759  14.738  17.733  13.769  0.1862  0.2294 -0.0246
41519W        W97760  10.911  13.406  20.538  0.0556  0.1208 -0.0712
41520W        W97761  32.194  15.697   6.868 -0.1935 -0.0539  0.0205
41521W        W97762  30.514  20.794  16.188 -0.0224 -0.0591  0.2466
41522W        W97763   5.342  32.379  12.447  0.3120  0.1441  0.0567
41523W        W97764  13.792  10.967  12.036  0.1473  0.2370  0.4063
41524W        W97765  32.702  28.679  12.704 -0.0977 -0.0970  0.1755
41525W        W97766  14.423   6.522   4.276  0.2489  0.0857  0.1804
41526W        W97767  29.010  19.396   8.445 -0.1283 -0.1433 -0.2482
41527W        W97768  30.561  23.700  20.593  0.0594  0.0438  0.0785
41528W        W97769  35.038   2.940  25.912  0.1629  0.1774  0.0212
41529W        W97770   7.643  18.597  20.404 -0.1338 -0.1204  0.2001
41530W        W97771  12.541  31.628  13.316 -0.3058  0.0502  0.1166
41531W        W97772  18.360  32.148  16.980  0.0312 -0.0899 -0.1815
41532W        W97773   7.771  16.522   6.531  0.0037 -0.4098  0.0157
41533W        W97774  23.748  28.358  18.711  0.1979 -0.0901  0.1026
41534W        W97775   7.531   9.749  22.871 -0.0871  0.0310 -0.1193
41535W        W97776   9.679  30.345   4.347  0.1599  0.0299  0.0422
41536W        W97777  32.955   7.116  18.297 -0.0290  0.1558  0.4041
41537W        W97778  13.686  12.011  10.012  0.1697  0.1836 -0.2500
41538W        W97779  31.586  25.636   0.285  0.1698 -0.2529  0.1171
41539W        W97780  24.664   9.290  14.164  0.0055 -0.0131  0.1686
41540W        W97781  35.060  25.450  18.002 -0.2567 -0.0171 -0.1849
41541W        W97782  32.237  15.728  25.902  0.0577 -0.0782 -0.2190
41542W        W97783   9.665   5.261  10.137 -0.0152  0.0895 -0.4344
41543W        W97784  32.999   1.086   4.662 -0.1998 -0.0769 -0.2703
41544W        W97785  25.326  15.528   8.608 -0.2092 -0.1135 -0.0993
41545W        W97786  31.214  14.168  20.853 -0.0028  0.0469  0.0639
41546W        W97787   5.212  16.617  24.291  0.0987 -0.1361 -0.1637
41547W        W97788  34.109  16.156   5.772 -0.0209  0.0437  0.4348
41548W        W97789  31.474  25.827  11.194 -0.0685 -0.4047  0.0750
41549W        W97790  30.017   9.365   1.037 -0.0633  0.1296 -0.2388
41550W        W97791  33.965  15.702  17.686  0.0223  0.0822 -0.1515
41551W        W97792   2.456   6.823  14.719 -0.0066  0.0638  0.1231
41552W        W97793  33.267  35.335   2.387 -0.0888 -0.0900  0.1257
41553W        W97794   9.032   3.723  22.441 -0.1235 -0.2771 -0.4437
41554W        W97795  34.159  19.430  11.782  0.0291 -0.2336 -0.1267
41555W        W97796  14.749  12.162   1.122  0.0730  0.0730  0.1338
41556W        W97797  11.728  25.855   8.602 -0.0537  0.3000  0.0851
41557W        W97798  12.625  13.714  21.540  0.0692  0.0485  0.2612
41558W        W97799  10.784   9.444   1.415  0.1611 -0.2858  0.0007
41559W        W97800  29.983  21.173  23.708  0.2126  0.0489  0.0933
41560W        W97801  16.820  10.937   9.638  0.0943 -0.1841  0.0489
41561W        W97802   9.870  17.028   8.336 -0.0058 -0.0379 -0.2237
41562W        W97803  34.989  34.465   4.629 -0.2810 -0.0482 -0.0388
41563W        W97804  18.831  26.945   4.141 -0.2843 -0.3345  0.1529
41564W        W97805  17.122  23.008   1.752  0.3896  0.0468 -0.1190
41565W        W97806  10.155   4.547   7.556  0.0234  0.2007  0.1860
41566W        W97807   1.835  27.347   1.162 -0.1403  0.2379  0.0092
41567W        W97808   2.588  16.066   4.091 -0.1521 -0.4037 -0.1291
41568W        W97809   4.820   6.235  24.572  0.0782  0.0680  0.2077
41569W        W97810  24.667   0.953  15.059 -0.1220  0.1967 -0.0231
41570W        W97811  13.729   9.292  20.497  0.0027  0.0437  0.1392
41571W        W97812  11.331  18.030   7.908  0.2588  0.1512 -0.0612
41572W        W97813   8.013   3.168  24.090  0.1520 -0.0688 -0.0383
41573W        W97814  23.710  29.501   2.351 -0.0329  0.0480  0.1497
41574W        W97815  17.136  27.567  22.029  0.2968  0.0815  0.2391
41575W        W97816  35.184  34.384   7.922 -0.1544  0.0679 -0.0822
41576W        W97817  30.984  12.278  13.537 -0.0991 -0.1394  0.1922
41577W        W97818  30.959  20.830  23.825 -0.3121  0.0088 -0.0849
41578W        W97819  10.302  17.020   0.027  0.3163  0.3199 -0.5138
41579W        W97820   0.183  33.004   2.535  0.2315 -0.2399 -0.1531
41580W        W97821  29.782  11.679  17.429  0.0374 -0.0345 -0.4249
41581W        W97822  22.340  30.220  15.207  0.1714 -0.1079 -0.2305
41582W        W97823   8.480  27.841  14.419 -0.0763 -0.1481  0.0719
41583W        W97824  33.965  19.752  21.593  0.0681  0.3472 -0.0384
41584W        W97825  16.044  23.920  14.812  0.2117  0.0982  0.2060
41585W        W97826  10.819  15.493  22.551  0.1239  0.2822  0.0971
41586W        W97827   6.550  10.696   1.970 -0.1122  0.2879 -0.0957
41587W        W97828  22.722   7.366  18.434  0.0328 -0.0869 -0.1463
41588W        W97829  28.963   5.178  18.521 -0.1806 -0.1877 -0.1132
41589W        W97830   9.735  19.309  10.689  0.1305 -0.1007  0.0723
41590W        W97831  31.550  18.230  13.843  0.2328  0.1004 -0.0112
41591W        W97832  25.519  22.909  20.805  0.2313  0.0982  0.0981
41592W        W97833  16.095  16.278   9.316  0.0765 -0.0975 -0.0742
41593W        W97834  12.158  22.460   5.401 -0.2424  0.1993  0.3007
41594W        W97835  13.565  13.134   2.885  0.0496 -0.0383  0.0115
41595W        W97836  23.464   6.973  23.901  0.1114  0.2291 -0.2252
41596W        W97837  24.025  26.254   1.185 -0.3482  0.1191 -0.0655
41597W        W97838  23.620  10.398  15.264 -0.3153  0.1697  0.0032
41598W        W97839  32.737  27.171  19.365  0.2104  0.0270  0.3691
41599W        W97840  31.052  12.139  12.757 -0.1004 -0.1232  0.2303
41600W        W97841  28.461   8.440  24.213  0.0817  0.2001  0.0914
41601W        W97842   3.932   9.622  19.591 -0.1692  0.1370 -0.0999
41602W        W97843  20.501   0.013  23.678 -0.3000 -0.1186  0.2696
41603W        W97844   6.828  18.854   7.339  0.0164 -0.2824 -0.2009
41604W        W97845  31.746   0.881  21.581 -0.1431  0.0853 -0.1050
41605W        W97846  28.910   2.303  12.618 -0.2209  0.1220 -0.2538
41606W        W97847  21.275  17.343  23.956  0.1549  0.0299  0.1079
41607W        W97848  10.676  30.545   4.689  0.1325  0.0057 -0.1937
41608W        W97849   0.088  29.003  22.511  0.1019  0.0269  0.0256
41609W        W97850  20.260  27.474  20.222 -0.1617 -0.0580  0.4190
41610W        W97851  33.397  35.100   6.232 -0.0225  0.0508 -0.0251
41611W        W97852  24.632  28.013  24.019 -0.1347  0.3973  0.0021
41612W        W97853  34.839   5.957  17.712 -0.2491 -0.0038  0.2341
41613W        W97854   6.355  32.694  23.368 -0.2013  0.0217 -0.2955
41614W        W97855  27.351  11.543  19.152 -0.0431  0.1199 -0.0306
41615W        W97856  20.421  10.420  21.831 -0.0701  0.0442  0.0633
41616W        W97857  25.780  32.199  19.594 -0.1264  0.2565  0.0185
41617W        W97858  19.743  33.390   8.276  0.1153  0.1435  0.1871
41618W        W97859  14.286  15.988  26.225  0.1504  0.0486  0.3024
41619W        W97860   9.623  21.986  25.151 -0.0661  0.1684 -0.1156
41620W        W97861   2.849  30.331  20.117  0.0797 -0.2077  0.0700
41621W        W97862   5.842  26.776  10.388 -0.1094  0.0923 -0.2138
41622W        W97863  14.663  23.633   1.487  0.1313 -0.0150  0.1661
41623W        W97864  31.105   3.869  25.257 -0.0563  0.4807  0.0128
41624W        W97865  26.862  17.839  19.996  0.0362 -0.0999 -0.3022
41625W        W97866  11.530  29.967   8.010  0.1446 -0.0591 -0.0013
41626W        W97867  32.388   2.334  18.877 -0.2315 -0.0901  0.2213
41627W        W97868   8.548  33.841   8.219 -0.2241  0.4687 -0.2684
41628W        W97869  10.225  11.360   3.841  0.2781  0.0039 -0.1741
41629W        W97870  15.410  26.406  12.971 -0.1815  0.5847 -0.0103
41630W        W97871  13.515  12.814   2.550  0.0055  0.0807  0.1441
41631W        W97872  16.935  26.011   0.713  0.1497 -0.0401  0.3730
41632W        W97873  30.513  15.998  13.531  0.0241  0.0236 -0.0011
41633W        W97874  20.450  20.056  22.173  0.0385 -0.2112 -0.2559
41634W        W97875  29.450  11.974  24.161 -0.1135 -0.1201  0.3291
41635W        W97876   2.576  10.969   2.893 -0.2370  0.0962 -0.1239
41636W        W97877  28.002  19.499   9.837  0.0810  0.0240 -0.1321
41637W        W97878  25.992  12.730  24.188  0.1695  0.1650 -0.2356
41638W        W97879  30.795   7.082  18.361 -0.0641 -0.0893  0.3491
41639W        W97880  34.104   6.573   3.989  0.2851 -0.0653  0.1302
41640W        W97881  12.226   8.458   2.283  0.1303 -0.2188 -0.1320
41641W        W97882   1.761  33.382   6.532 -0.1432  0.0287  0.0373
41642W        W97883  20.148  19.163  25.498 -0.0935 -0.0178  0.0276
41643W        W97884  24.230  23.818  22.342 -0.1839  0.0108  0.0400
41644W        W97885   8.744  11.416  24.383 -0.0700 -0.0312  0.1023
41645W        W97886  30.530   0.695  18.294 -0.1779 -0.2477 -0.0067
41646W        W97887  33.541  23.498  10.239  0.0294 -0.2280  0.2318
41647W        W97888  31.908   7.896  24.179 -0.1610  0.2802 -0.2116
41648W        W97889  30.752   3.493  25.272 -0.2172 -0.0479 -0.1645
41649W        W97890  32.800  20.697  10.163  0.2365  0.1042 -0.3393
41650W        W97891  29.542  35.196  12.097 -0.2120  0.0418 -0.0948
41651W        W97892   4.174  32.126  20.991 -0.2676  0.0138 -0.0794
41652W        W97893  30.315  11.341  15.533  0.1772  0.0447 -0.0405
41653W        W97894   4.994   0.210  10.962 -0.0028 -0.1502  0.0421
41654W        W97895   7.054  28.032  22.760 -0.1209  0.0034  0.2311
41655W        W97896   9.194  22.620   5.238  0.0756 -0.2783 -0.0087
41656W        W97897  13.818  21.841   0.935 -0.2938 -0.1259 -0.1464
41657W        W97898   2.232  22.387  23.864  0.0288 -0.3027  0.1652
41658W        W97899   3.633  16.320  22.223  0.4593 -0.1328 -0.0343
41659W        W97900   7.599   6.359  11.878 -0.0074  0.0600 -0.0489
41660W        W97901  30.252   6.137   2.246 -0.0173 -0.2551  0.0563
41661W        W97902  33.480  26.895  11.745  0.0040  0.0254 -0.0385
41662W        W97903  23.500   4.294  20.417 -0.1289  0.0461  0.3984
41663W        W97904  11.942  35.267   7.354  0.1385  0.2468 -0.3658
41664W        W97905  18.447   4.340   4.715  0.4829 -0.3635  0.0096
41665W        W97906  15.198  22.663   8.927 -0.0347  0.0927 -0.0401
41666W        W97907   1.324   1.074   7.981  0.0782  0.0167 -0.0130
41667W        W97908  27.954  21.301  23.082 -0.1951  0.0193 -0.0573
41668W        W97909  29.482  27.388  15.836  0.0463 -0.1898 -0.1309
41669W        W97910  15.913  31.513   7.854  0.1805 -0.2174  0.1624
41670W        W97911  34.719   1.714  24.525 -0.1055 -0.0079  0.3814
41671W        W97912  33.332   2.870  22.047  0.2832  0.0366 -0.1364
41672W        W97913  13.209  23.916   3.368  0.0845 -0.0383  0.0870
41673W        W97914  21.334   0.368   0.457 -0.0533 -0.0435 -0.1848
41674W        W97915  11.651  21.519  15.867  0.3501  0.1123  0.0529
41675W        W97916   5.916  10.194   9.699  0.1594 -0.2424 -0.2297
41676W        W97917  16.371  30.460   0.448  0.1813 -0.0480 -0.2614
41677W        W97918  13.024   4.017  26.033 -0.1972 -0.2990  0.3653
41678W        W97919   4.019  33.550   0.700  0.2318 -0.0533  0.4801
41679W        W97920   3.374  10.945  22.997 -0.2756 -0.0325  0.0909
41680W        W97921  13.033  10.092   5.384  0.0890  0.1557 -0.0184
41681W        W97922   7.674  25.022  13.627 -0.1738  0.2030 -0.2120
41682W        W97923  27.117  26.513  12.929 -0.1952 -0.1207  0.0628
41683W        W97924  32.955  23.867  14.850 -0.0795 -0.2206 -0.1968
41684W        W97925  26.677  24.981  18.795  0.2163 -0.0299 -0.0019
41685W        W97926  17.275   9.251  23.120  0.1792 -0.0657 -0.3166
41686W        W97927   2.833  21.476  22.576 -0.0764  0.1320  0.1988
41687W        W97928  12.710  33.406   3.764  0.1431  0.3178 -0.0698
41688W        W97929  12.214   6.551  10.107 -0.3907 -0.0426  0.0199
41689W        W97930  12.380  16.643  19.366 -0.0824  0.1247  0.3478
41690W        W97931  24.321  23.420  11.970 -0.1068 -0.2687 -0.1670
41691W        W97932   1.170   4.958  24.204 -0.0344 -0.2862 -0.1742
41692W        W97933   5.895  26.292  12.309 -0.2094  0.1672 -0.0900
41693W        W97934  25.679  32.487  25.262 -0.3471  0.0141 -0.1397
41694W        W97935  34.021  29.389   3.969  0.0433  0.0493  0.0005
41695W        W97936  16.703  22.840   3.604  0.1585  0.0801 -0.0458
41696W        W97937   3.468  21.151   0.729  0.0201 -0.1932  0.0471
41697W        W97938  16.955   5.435  10.303  0.0437  0.0068  0.1108
41698W        W97939   9.416   3.620   8.477  0.2257 -0.1489 -0.2552
41699W        W97940   5.474  26.384  21.045  0.0152  0.0270 -0.0805
41700W        W97941  30.098  27.519  10.146 -0.0354 -0.0333 -0.0779
41701W        W97942   9.771  20.655  12.438 -0.1277  0.1823  0.1312
41702W        W97943  16.195  30.989  10.090  0.1138 -0.1024  0.2074
41703W        W97944  27.148  11.220  10.941 -0.0335  0.0999  0.0733
41704W        W97945  21.827  16.743  20.440 -0.2267 -0.0138 -0.0103
41705W        W97946  14.981  31.968   1.822 -0.2279 -0.2224 -0.2744
41706W        W97947  10.692   8.792  21.040  0.1466 -0.2860 -0.3940
41707W        W97948   2.945  24.651  23.901  0.1808  0.0564  0.3529
41708W        W97949  13.248  25.133   8.160 -0.0439 -0.0652 -0.1090
41709W        W97950   6.326   8.601  20.058 -0.1805  0.1513 -0.0750
41710W        W97951  19.359  31.415  19.360  0.0832 -0.1593  0.1951
41711W        W97952  17.542  25.121  23.771  0.0531 -0.1964  0.0232
41712W        W97953   5.877  24.508  21.205  0.2406 -0.0092 -0.1071
41713W        W97954   5.112  27.674  14.350  0.1260  0.0597  0.1357
41714W        W97955  26.187  31.737   3.387  0.4324  0.1600  0.1793
41715W        W97956  30.991   3.565  25.845 -0.1011 -0.0964 -0.2139
41716W        W97957  33.998  16.439  10.981  0.0878 -0.0485 -0.1977
41717W        W97958   4.073  35.370   8.685 -0.0807 -0.1089 -0.3060
41718W        W97959  34.525  30.686   7.299 -0.0668  0.2296 -0.3371
41719W        W97960   9.630   7.781  19.190  0.2245 -0.0308  0.2952
41720W        W97961  15.131  12.160  11.252 -0.0449 -0.3737  0.0500
41721W        W97962  28.866   6.179  17.170  0.0327 -0.1030 -0.3544
41722W        W97963  30.166  10.975  16.623  0.2205 -0.0486 -0.0787
41723W        W97964  17.427   1.926  17.157  0.0825  0.0088 -0.6068
41724W        W97965  31.053   1.496   6.490  0.2967 -0.1056 -0.1209
41725W        W97966  26.884   1.968  21.225 -0.3041  0.0568 -0.0903
41726W        W97967  30.204  14.112  20.842 -0.2352 -0.0984 -0.1806
41727W        W97968  20.165  13.433   1.706 -0.1519 -0.3843 -0.3661
41728W        W97969   6.913  10.986  20.921  0.0460  0.0040 -0.1889
41729W        W97970  26.023  20.036  13.167 -0.0885 -0.2480 -0.0820
41730W        W97971  21.583  24.077  22.739  0.1544  0.3778  0.0315
41731W        W97972  29.367  22.844   7.346 -0.0659  0.0779 -0.1299
41732W        W97973  10.873  27.367  11.305 -0.0409 -0.2659 -0.0650
41733W        W97974   8.292  13.876  19.638  0.1407 -0.5067 -0.0823
41734W        W97975   6.855  27.915  12.020  0.2971  0.1922 -0.1092
41735W        W97976  19.562   5.370   9.592 -0.2464 -0.1768 -0.1934
41736W        W97977   2.838  25.022   4.573 -0.1286 -0.2860 -0.1932
41737W        W97978   7.526   9.598   1.076 -0.0634 -0.1344 -0.0120
41738W        W97979  23.813  17.397  24.248  0.4044  0.4066  0.0795
41739W        W97980   6.753   8.880  23.197 -0.3832  0.1346 -0.0102
41740W        W97981   9.849  33.993  25.697 -0.0488  0.0364 -0.0278
41741W        W97982  13.942  17.574  19.751 -0.1494 -0.2898 -0.0786
41742W        W97983   5.731   7.277  25.543 -0.1024  0.4536  0.0471
41743W        W97984  12.652  32.500  25.563 -0.2165  0.1388  0.0730
41744W        W97985  30.567   8.603  23.881  0.0933 -0.0125 -0.1715
41745W        W97986  27.001  28.115  12.152  0.0322 -0.0419  0.1011
41746W        W97987  23.727  26.654  14.374  0.1715 -0.0188 -0.0130
41747W        W97988   7.614  29.909   8.298  0.2717 -0.1303  0.0981
41748W        W97989  21.221   2.162  23.551  0.3250 -0.0865  0.1074
41749W        W97990  10.045  16.826  12.074  0.2354 -0.1975  0.0033
41750W        W97991  31.090  22.640  14.704 -0.0443 -0.0360  0.1742
41751W        W97992  17.500   6.379  25.668  0.0140 -0.0643  0.0600
41752W        W97993  26.205  27.924  19.488  0.1051 -0.0168 -0.4866
41753W        W97994  19.356  26.042   6.259 -0.1646  0.0212 -0.1122
41754W        W97995  17.903  27.922   9.140  0.0461  0.3255  0.1859
41755W        W97996  11.587  27.000   9.394  0.0055  0.2364  0.3736
41756W        W97997  30.945  12.065  23.279 -0.0957  0.0678 -0.2353
41757W        W97998  17.397  10.642  10.358 -0.2667  0.0414  0.0072
41758W        W97999   4.775  20.273   6.188 -0.0322 -0.0223 -0.3258
41759W        W98000   9.819  32.285  13.464 -0.0236  0.2004  0.0730
41760W        W98001  17.479   7.256   7.238 -0.3163  0.0033  0.1825
41761W        W98002   5.695  15.848   2.555  0.0332 -0.2893 -0.1909
41762W        W98003  33.194  15.009   6.936 -0.0617  0.1168 -0.0614
41763W        W98004  26.467  16.817  13.786 -0.2154  0.3193  0.1731
41764W        W98005   4.392   3.319   4.096  0.0692  0.2507 -0.0847
41765W        W98006   1.019  26.905   4.010  0.0218 -0.2868 -0.2013
41766W        W98007   5.754   2.884   7.324  0.0646  0.1802 -0.3925
41767W        W98008  33.380  12.307  19.853  0.1928 -0.1989 -0.0320
41768W        W98009  30.742   3.573   5.438  0.0945 -0.0823 -0.4712
41769W        W98010   4.485  29.403   1.208  0.0558  0.1818 -0.2179
41770W        W98011  17.815   3.291   8.103 -0.1446 -0.1121  0.2209
41771W        W98012  30.283  16.339  15.540 -0.0166 -0.1213 -0.1525
41772W        W98013  15.582   5.735  12.242  0.0593 -0.2987 -0.2660
41773W        W98014  32.507  30.782  25.011 -0.0625 -0.0729 -0.2285
41774W        W98015  29.777   4.492  23.107 -0.0906 -0.1241 -0.1209
41775W        W98016  24.545  26.030   1.820 -0.1768 -0.1942 -0.2503
41776W        W98017  29.882  18.568  20.866  0.1757 -0.0978 -0.1692
41777W        W98018  28.619  20.233  22.434 -0.0414  0.2867 -0.2742
41778W        W98019  14.533  19.309   8.705 -0.1020 -0.0895 -0.0018
41779W        W98020  29.590   3.290  11.751 -0.2424 -0.1425 -0.2462
41780W        W98021  20.355  27.148   3.460  0.0984  0.2002 -0.1994
41781W        W98022  27.232   4.410   1.241 -0.0049 -0.4009 -0.0950
41782W        W98023  22.076  23.447   2.411  0.0950  0.0616  0.0877
41783W        W98024  19.393  16.461  24.751  0.3613  0.2837  0.2011
41784W        W98025  34.987   0.694   6.748  0.1834  0.1229 -0.0924
41785W        W98026   8.682  16.369  22.320 -0.0786 -0.1017 -0.1291
41786W        W98027   8.095  14.506  20.104  0.1815 -0.2122 -0.1661
41787W        W98028  28.008  23.011  23.580  0.1410 -0.0459 -0.3420
41788W        W98029  33.005   4.105  21.412  0.1699 -0.1243  0.3646
41789W        W98030   9.806   9.207   0.190 -0.0480  0.0380 -0.0881
41790W        W98031  31.640  26.177  14.036  0.1080  0.0303 -0.3030
41791W        W98032  29.095  22.813  20.583  0.1406 -0.1791 -0.2084
41792W        W98033  32.559  10.313   7.742  0.2397  0.4340  0.2421
41793W        W98034  28.925  27.623  25.196 -0.2767  0.0047  0.0024
41794W        W98035   7.768   6.812  12.060  0.1182  0.1719 -0.1335
41795W        W98036  27.351  20.874  22.254 -0.0128  0.0091  0.0405
41796W        W98037  21.358   6.287  10.739  0.0965  0.0800  0.1979
41797W        W98038   0.367   0.960  24.521 -0.3778 -0.0848 -0.1065
41798W        W98039   2.251  25.549   0.638  0.1838  0.0430 -0.0546
41799W        W98040  26.375  13.374  11.037 -0.4554 -0.0758 -0.2874
41800W        W98041   9.396   5.114  22.409 -0.0738 -0.0613  0.1027
41801W        W98042   8.154  22.587   4.427  0.1599  0.1151 -0.0533
41802W        W98043  20.163  28.488   4.885 -0.2156  0.0408 -0.2661
41803W        W98044  25.914  20.756  15.166 -0.0388 -0.2224  0.3812
41804W        W98045   4.783  16.062  17.741 -0.0915 -0.0195 -0.3513
41805W        W98046  29.074   6.804  17.887  0.0453 -0.2263 -0.2825
41806W        W98047  32.463  25.668  15.107  0.0012  0.1404 -0.2143
41807W        W98048  30.906  26.104  25.543 -0.2855  0.1532 -0.3345
41808W        W98049  12.601  19.958   6.315 -0.4026 -0.2626 -0.2016
41809W        W98050  29.039  30.885  19.800 -0.1793 -0.1381  0.1670
41810W        W98051   7.831   9.885   8.545  0.2415  0.2490  0.1118
41811W        W98052  33.138  11.253  20.694  0.4291  0.1970  0.1714
41812W        W98053   3.588   3.542  18.131  0.0662  0.1946  0.0802
41813W        W98054   7.876   8.579   2.045 -0.2176  0.1825 -0.2567
41814W        W98055  12.324   7.051   7.441  0.3516 -0.2571 -0.3323
41815W        W98056  10.020  18.432   9.683  0.0546 -0.0054  0.0668
41816W        W98057  28.053  15.298  13.505  0.1728 -0.0954  0.0379
41817W        W98058  30.112  17.639  15.895 -0.1135  0.4305  0.0264
41818W        W98059   4.976  32.465   1.697 -0.1064  0.2540  0.0452
41819W        W98060   1.422  33.626  25.376  0.1858  0.3901  0.1146
41820W        W98061  24.633  29.122  11.906 -0.1152  0.0621 -0.0179
41821W        W98062  10.679  35.367   7.139 -0.2304  0.1178  0.0319
41822W        W98063  18.466  31.813  18.965 -0.1533 -0.1784  0.0417
41823W        W98064  19.856   2.604  20.025  0.2445 -0.0447 -0.0004
41824W        W98065   3.504  13.973  17.935 -0.2251  0.1927 -0.0342
41825W        W98066  13.674  17.370   6.918  0.1033  0.1094 -0.1807
41826W        W98067  15.963  15.377  22.032 -0.0395  0.1959  0.1617
41827W        W98068   4.541  11.617  22.461 -0.2318 -0.0353 -0.3104
41828W        W98069  30.514  14.901  22.497  0.2145  0.2374  0.0523
41829W        W98070  22.359  17.080   0.071  0.2395 -0.2946 -0.3429
41830W        W98071  14.418  26.743  21.468  0.1413 -0.0699  0.1586
41831W        W98072  29.683   2.724   2.223  0.3878 -0.2905 -0.2829
41832W        W98073  22.010  32.038  16.477 -0.2651 -0.3398 -0.0870
41833W        W98074  16.399  14.754   7.249  0.4546 -0.0871 -0.1331
41834W        W98075  17.259   6.064   7.211 -0.0756 -0.1919  0.3334
41835W        W98076   7.728  30.734  25.825  0.1903 -0.1021 -0.3616
41836W        W98077   6.894  34.648  11.760 -0.0029  0.0354 -0.2303
41837W        W98078  21.471  13.144  22.680  0.0272 -0.0501 -0.0171
41838W        W98079  11.965  16.024  20.124 -0.0261 -0.0800 -0.1333
41839W        W98080  26.208  13.309   9.013  0.0751  0.2023  0.0791
41840W        W98081   5.256  31.565   5.081  0.1558 -0.2065 -0.0708
41841W        W98082  24.083  22.213   1.472  0.1314 -0.0016  0.0022
41842W        W98083  30.468  33.989  21.303 -0.0775  0.0203 -0.0510
41843W        W98084  21.893  18.274  20.528 -0.2024  0.2168 -0.0933
41844W        W98085   1.996   0.843   0.522 -0.1411 -0.3342 -0.0772
41845W        W98086  30.173  34.715   2.622  0.3796  0.0754 -0.3058
41846W        W98087  27.564  14.038  19.022 -0.0404  0.0185  0.0964
41847W        W98088  20.902  17.091   2.548 -0.0888 -0.1516 -0.0734
41848W        W98089   1.852  22.500   0.563 -0.4414  0.1318 -0.0726
41849W        W98090  25.336   5.799   3.650  0.3020 -0.0929 -0.4039
41850W        W98091  29.488  22.334  11.086 -0.1287  0.0434 -0.2774
41851W        W98092   4.865  24.242   3.011  0.0918 -0.0641  0.1771
41852W        W98093  29.664  31.441   2.974  0.0241 -0.1395  0.0625
41853W        W98094  11.887  32.275  20.571 -0.2351  0.2738  0.1506
41854W        W98095  20.343  13.030   0.814  0.3014 -0.2496  0.0074
41855W        W98096  22.333  30.603  16.637  0.0842 -0.2361 -0.1814
41856W        W98097   8.065  30.692   7.239 -0.2832  0.2120 -0.0124
41857W        W98098   4.149   8.583  20.970  0.1452 -0.0432  0.3150
41858W        W98099  33.995   9.506   3.343 -0.3400  0.0610 -0.0090
41859W        W98100   8.539  30.541  14.004 -0.2647  0.0855 -0.0536
41860W        W98101   5.212  19.414  21.823  0.3946 -0.0804  0.1322
41861W        W98102   3.956  14.092  16.725  0.1263 -0.0741  0.2314
41862W        W98103  13.008  30.021   7.364 -0.0265 -0.1723 -0.1443
41863W        W98104  22.865   5.545  24.345  0.1003  0.0327  0.0265
41864W        W98105  32.813   0.209  25.536 -0.0328 -0.1397  0.1216
41865W        W98106  24.529  31.671  25.508  0.4604  0.0471  0.1794
41866W        W98107  19.495   9.757  19.542 -0.0138  0.2943  0.1674
41867W        W98108   7.715   0.868  22.866  0.1129 -0.3538 -0.1334
41868W        W98109  29.326  25.521  17.639 -0.0680 -0.1959  0.0964
41869W        W98110  21.327  13.279  19.988  0.1763  0.0200  0.2257
41870W        W98111  13.411  22.048   4.284 -0.2350  0.0611  0.1191
41871W        W98112   8.484   9.755  11.542 -0.3741  0.0973 -0.0636
41872W        W98113   1.150  30.740   0.973 -0.1612  0.2448 -0.2305
41873W        W98114   6.507  19.050  26.231  0.1684  0.1692 -0.1298
41874W        W98115  26.498  24.232   9.675  0.0887 -0.1746  0.0274
41875W        W98116  16.053  22.198  23.051 -0.1286 -0.0207  0.1352
41876W        W98117  19.064  16.741  25.119  0.0369  0.2080  0.0409
41877W        W98118  17.196  34.636   8.585  0.5280  0.1075  0.0771
41878W        W98119  24.300   1.364  13.224  0.0001 -0.0250  0.0085
41879W        W98120  19.018  14.750   1.524  0.0761  0.0364 -0.2154
41880W        W98121  25.416  11.493  20.217  0.0744 -0.0362 -0.4294
41881W        W98122  31.343  12.501   6.957  0.0578 -0.1455 -0.1325
41882W        W98123  30.128  10.188  10.371  0.3376  0.1458  0.0450
41883W        W98124  10.929  21.158  11.503 -0.5060  0.0600  0.3479
41884W        W98125  25.415   2.573  19.336 -0.1010  0.1708  0.3512
41885W        W98126  19.622  33.353  23.813 -0.0170  0.0604  0.1956
41886W        W98127  14.898  20.602  24.284  0.0403  0.4337  0.0581
41887W        W98128  28.051  23.644  17.661 -0.2391 -0.0301 -0.0803
41888W        W98129  10.434  30.418   5.833 -0.0977 -0.0109 -0.2403
41889W        W98130   6.655  35.241   8.043  0.1658 -0.0646 -0.1705
41890W        W98131  33.489  24.991  21.927  0.0053 -0.1304 -0.2204
41891W        W98132  30.287  26.456  17.967  0.0499 -0.4005  0.2279
41892W        W98133   9.264  28.390  13.410  0.3658 -0.0371  0.0370
41893W        W98134  33.408  26.326  11.364 -0.1613  0.1327 -0.0444
41894W        W98135   0.170  28.918   8.667  0.0748 -0.2945 -0.3083
41895W        W98136   6.108   2.954  24.671  0.1802  0.1757  0.2265
41896W        W98137  26.428  10.512  11.595 -0.3173 -0.0565 -0.0462
41897W        W98138  12.312  15.754  25.597  0.1974 -0.1137 -0.0433
41898W        W98139   0.071   0.585  18.671  0.1829  0.0636  0.1923
41899W        W98140  17.909  15.635   9.972 -0.0465 -0.1476  0.0659
41900W        W98141  24.215  30.734  12.815  0.2614  0.1885 -0.2374
41901W        W98142  19.693  15.648  24.336  0.0201 -0.2772 -0.0232
41902W        W98143  32.083   3.970   3.981  0.0630 -0.4214  0.0448
41903W        W98144  21.315  23.286  22.839 -0.2177 -0.1777  0.3123
41904W        W98145  27.396  26.904  19.212 -0.2335  0.0727  0.0131
41905W        W98146   2.917  11.084   0.953 -0.2726  0.0242 -0.1416
41906W        W98147   2.173  12.343  17.456 -0.0705 -0.0751  0.2302
41907W        W98148  27.777   7.386   0.140 -0.0874  0.2019  0.1869
41908W        W98149  34.795  23.146  10.595  0.0083 -0.3154  0.3150
41909W        W98150   5.329  21.842   2.705  0.0395  0.3346 -0.0116
41910W        W98151  22.850   6.727   0.517 -0.0561 -0.0673 -0.2565
41911W        W98152   5.967  14.980   4.279  0.1415  0.1060 -0.1788
41912W        W98153  18.126   2.823  25.515 -0.1630 -0.0769 -0.2032
41913W        W98154   5.377  14.163   3.339 -0.1433  0.3672  0.1938
41914W        W98155  16.945   0.984  19.176 -0.0120 -0.2369 -0.1266
41915W        W98156   8.444   6.119  10.403  0.2968  0.0454 -0.0558
41916W        W98157  10.553   4.103   1.410 -0.2557 -0.1865  0.3880
41917W        W98158  19.433  31.531  18.846 -0.0569 -0.0860  0.0336
41918W        W98159  27.026   5.357  20.527  0.0811  0.2697 -0.0412
41919W        W98160  13.359  31.309  12.480 -0.0764 -0.0823  0.3470
41920W        W98161  33.426  13.604  12.013  0.0873  0.1502 -0.0687
41921W        W98162   2.096  25.049   0.489 -0.1884  0.2754 -0.0915
41922W        W98163  16.477   2.612  20.526  0.0493 -0.0196 -0.2788
41923W        W98164   6.182   5.549   5.611  0.2639  0.2206  0.0283
41924W        W98165  30.288  28.613   2.980 -0.0162 -0.1967  0.0216
41925W        W98166  25.903   7.273  18.646 -0.0396 -0.0177 -0.2215
41926W        W98167  29.486  32.716  17.712 -0.0816  0.1433  0.0794
41927W        W98168   1.334   8.202  13.756  0.1866  0.1504  0.2243
41928W        W98169  27.100  19.281  18.235 -0.1310 -0.1021  0.1779
41929W        W98170  19.873  17.088   7.069 -0.4252  0.2550 -0.3730
41930W        W98171  31.925  20.201   6.672  0.1727  0.0412 -0.0918
41931W        W98172  32.490   9.825  18.239  0.1193 -0.0520  0.0175
41932W        W98173  22.474  10.617   2.956 -0.0740  0.0741 -0.0007
41933W        W98174   8.830  14.403  26.148  0.0312  0.0414  0.1498
41934W        W98175   1.331   7.761   1.757 -0.1220  0.2748 -0.0305
41935W        W98176   2.285  25.008  16.485 -0.2552  0.2234 -0.0110
41936W        W98177  14.909  28.029  24.108  0.1622 -0.1420  0.2896
41937W        W98178  34.112  21.150  22.901 -0.3384  0.1492  0.1694
41938W        W98179   1.189  22.867  15.333 -0.3233  0.1058 -0.0049
41939W        W98180  28.404   9.490  15.639  0.0875 -0.1159  0.1396
41940W        W98181   0.419  20.079   0.585  0.0518  0.1030  0.2906
41941W        W98182  29.818  27.584  17.068  0.1359 -0.0249  0.1451
41942W        W98183  15.169  21.941   1.381 -0.0418  0.1283 -0.1081
41943W        W98184   8.372  30.271   7.247 -0.3224 -0.1071  0.1824
41944W        W98185  15.611  20.464  23.145 -0.0290 -0.1757 -0.4375
41945W        W98186  34.040  27.929   3.513 -0.2911  0.2721 -0.3644
41946W        W98187  27.676  30.056  23.637  0.0482 -0.0894  0.2577
41947W        W98188   9.971  32.362  10.438 -0.1681 -0.0426  0.0488
41948W        W98189  33.871   7.286   4.438 -0.1387 -0.0780  0.1130
41949W        W98190  13.957  14.493  25.901 -0.0686  0.0676  0.0087
41950W        W98191  10.494   5.464   7.121  0.0758  0.0150 -0.0104
41951W        W98192  14.707  18.924  20.513  0.0866 -0.0845 -0.0155
41952W        W98193   5.274  23.771  20.638  0.0116 -0.3410  0.3476
41953W        W98194  11.229  12.784   3.440  0.0557 -0.1688 -0.3762
41954W        W98195  31.208  14.872   8.648 -0.0555 -0.1503  0.1963
41955W        W98196  25.882   3.047  22.403 -0.0698 -0.1015  0.1360
41956W        W98197  13.588  26.051   1.757 -0.0620  0.0934 -0.1026
41957W        W98198  31.180   6.908  22.832 -0.3887  0.1015 -0.2186
41958W        W98199  14.253  21.123  22.686  0.0574 -0.4205 -0.0584
41959W        W98200   0.953  13.059  14.397  0.1092  0.0839 -0.2152
41960W        W98201   7.136   6.243   3.432 -0.1430 -0.2065  0.3036
41961W        W98202  12.947   5.385   6.173 -0.1647  0.3909 -0.0229
41962W        W98203  20.787   2.530  18.297 -0.0852 -0.0459  0.2939
41963W        W98204  31.221  13.639  10.875  0.1548  0.1582  0.1587
41964W        W98205  11.183  27.711   6.416 -0.1078 -0.0345  0.2908
41965W        W98206  12.165  31.653   9.470 -0.2841  0.0963 -0.0684
41966W        W98207   9.713  26.223   2.197  0.0988  0.0468  0.0008
41967W        W98208   8.135   3.326  19.993 -0.2847 -0.1135  0.0789
41968W        W98209   0.320   1.474  19.691 -0.1937 -0.3313 -0.3934
41969W        W98210  19.635   2.945  18.529  0.0736 -0.1259 -0.0745
41970W        W98211   4.267  14.351  18.501 -0.0011  0.0271  0.1321
41971W        W98212   7.183   0.469  11.097  0.1122  0.0154 -0.1031
41972W        W98213  19.229   8.766  19.799  0.1868  0.0763 -0.2054
41973W        W98214  32.665  10.880  14.649  0.0207 -0.2982  0.1767
41974W        W98215   5.782  21.888  22.921  0.1081  0.3910 -0.4101
41975W        W98216   6.677  28.268   1.555 -0.0917 -0.0324 -0.2516
41976W        W98217  16.788  33.162   0.221 -0.0402  0.1134  0.2172
41977W        W98218  21.045  13.108  22.393  0.0318 -0.1705 -0.0417
41978W        W98219  30.121   5.041  20.924  0.0059  0.2463  0.1216
41979W        W98220  32.971  34.313   7.857 -0.2649 -0.1902  0.1225
41980W        W98221   2.317  18.807   1.163  0.0353 -0.0228 -0.2475
41981W        W98222  35.310  25.146  16.811 -0.0525 -0.2531 -0.4113
41982W        W98223  14.833  17.861  22.935  0.2196  0.2963  0.1172
41983W        W98224  26.318  11.603  17.875  0.2634 -0.1055 -0.0388
41984W        W98225   5.248  25.900   3.163  0.2348  0.2289 -0.1837
41985W        W98226  14.179   7.079  24.933 -0.0646  0.1830  0.3062
41986W        W98227  24.950  31.457  13.844 -0.0970  0.1213 -0.0374
41987W        W98228  10.628  11.198   4.132  0.0814 -0.2953  0.0221
41988W        W98229  11.099  14.791  24.004 -0.2770  0.0355 -0.4656
41989W        W98230   5.985  19.330  19.898  0.1048  0.0766  0.1311
41990W        W98231  24.038  15.152  14.622 -0.0230  0.0581 -0.5153
41991W        W98232   1.370  15.761  12.500 -0.3932 -0.0129  0.1460
41992W        W98233  11.201  10.013  19.251 -0.1650 -0.2118  0.1170
41993W        W98234  26.125  22.569   8.601  0.2434  0.2275 -0.1063
41994W        W98235   9.479   6.038  24.590  0.2824  0.1873 -0.4031
41995W        W98236  22.073  23.788  22.756  0.1030  0.3763 -0.2367
41996W        W98237   9.109  14.498  18.617 -0.1332  0.0607  0.2734
41997W        W98238  25.050  20.917  19.104 -0.1861  0.0595  0.0460
41998W        W98239  32.545   7.304  26.084  0.2046  0.2694  0.0840
41999W        W98240  16.020   4.457   8.446 -0.4746  0.0535 -0.0995
42000W        W98241   2.408   5.991   1.272  0.2314  0.1339 -0.1292
42001W        W98242  12.101  25.145  24.696 -0.1360 -0.1775 -0.0781
42002W        W98243   7.275   3.993   1.232  0.1124 -0.0360  0.3092
42003W        W98244  23.580  15.948  24.542  0.0389 -0.0558 -0.0601
42004W        W98245  17.671  30.515   1.334  0.4838  0.2879 -0.2182
42005W        W98246  34.124   4.375   4.966 -0.0666 -0.2438  0.2728
42006W        W98247   0.036  16.774  13.804 -0.0048 -0.0750 -0.1580
42007W        W98248  18.878   1.917  17.005  0.1325  0.1290 -0.0510
42008W        W98249  26.190  24.617  17.184  0.0978 -0.2362  0.1931
42009W        W98250  29.162  22.415  21.416  0.0580  0.2722  0.5561
42010W        W98251  14.735  28.616   0.068 -0.0143  0.1405 -0.2640
42011W        W98252  12.498  25.406   4.625  0.1363 -0.0668 -0.1058
42012W        W98253  10.599   6.922  22.576  0.1095  0.0723  0.1955
42013W        W98254  15.983   7.942   7.486  0.4425  0.1481 -0.2579
42014W        W98255   2.526  14.151  18.370 -0.3615  0.1309  0.2556
42015W        W98256  27.931  18.656   6.906 -0.1197  0.2156  0.0230
42016W        W98257  17.204   6.675   7.847 -0.1387 -0.0130 -0.0565
42017W        W98258  10.281  18.459  14.375  0.0068 -0.0493 -0.3762
42018W        W98259   8.836   2.870  19.907  0.0470 -0.0345 -0.0048
42019W        W98260   7.345  26.513  11.234  0.0424 -0.2775  0.0719
42020W        W98261  15.822   7.978  19.100  0.3145  0.1936  0.1346
42021W        W98262  29.441  25.874  17.286  0.3950 -0.0805 -0.1066
42022W        W98263   8.050   2.619  25.823 -0.0313 -0.1165 -0.1574
42023W        W98264  16.731  12.616  11.981  0.1829 -0.1587 -0.0229
42024W        W98265   2.586  33.944  22.907 -0.4923 -0.2103  0.0400
42025W        W98266   6.627  13.394   4.815  0.1919  0.0140  0.2217
42026W        W98267   9.136   9.498  20.827  0.1208  0.1092 -0.0151
42027W        W98268   3.558  34.182   3.616 -0.1574  0.0199 -0.0166
42028W        W98269  25.774  27.385  12.129 -0.0558  0.2089 -0.0353
42029W        W98270  10.717  16.074  25.297 -0.2977  0.2715 -0.0449
42030W        W98271   9.421  14.732  21.110  0.2259 -0.3276  0.2004
42031W        W98272  31.282  31.425   1.393 -0.0293 -0.2180 -0.3924
42032W        W98273  32.474   0.701   2.797  0.2002  0.3078  0.0461
42033W        W98274  10.491   8.171  13.196 -0.0357  0.3874  0.2506
42034W        W98275  10.042   7.551  12.296 -0.0662 -0.0584 -0.1867
42035W        W98276  32.264   1.877   4.779 -0.0165 -0.0727  0.0980
42036W        W98277  17.018   9.350  10.459 -0.0589 -0.0828  0.0678
42037W        W98278  14.589  34.519   7.048 -0.1109 -0.0988 -0.1142
42038W        W98279  12.644  31.493   4.793  0.0539 -0.2230 -0.0790
42039W        W98280  20.360  12.402   2.056  0.0437 -0.0690 -0.1476
42040W        W98281  34.674   9.241  19.095  0.3323 -0.0693 -0.0517
42041W        W98282  18.281   9.405  21.226 -0.1888 -0.2746  0.4202
42042W        W98283  15.443  16.630   0.657 -0.0401  0.0621  0.2429
42043W        W98284  12.815  17.788  22.777 -0.0569  0.0214  0.1673
42044W        W98285  17.977  18.159   5.889  0.1157  0.2153  0.1249
42045W        W98286   7.420  17.616  10.750 -0.0329 -0.1472 -0.0891
42046W        W98287  16.032  33.766  26.139 -0.2894  0.0113 -0.1437
42047W        W98288   5.383  25.903   4.358  0.1445 -0.1085  0.1024
42048W        W98289  15.513  15.031  22.919  0.0569  0.5271  0.1178
42049W        W98290   1.996  12.954  23.392 -0.0059  0.2110  0.3817
42050W        W98291   8.499   0.302  23.157  0.3115  0.2333 -0.1943
42051W        W98292  20.526  24.264   5.447  0.1184  0.0484 -0.2020
42052W        W98293   1.154  27.986   7.497 -0.1213  0.0536 -0.0885
42053W        W98294  17.007  32.367  19.112  0.0409 -0.2775 -0.1295
42054W        W98295  18.492  29.062  21.878  0.0261  0.0777 -0.0706
42055W        W98296  23.827  35.117   3.375  0.0216 -0.1840  0.5735
42056W        W98297  27.982   9.803  18.742  0.4423 -0.1400 -0.3151
42057W        W98298   6.209   3.922  10.641 -0.1454  0.1089  0.4784
42058W        W98299   3.309  14.424   2.443 -0.0907 -0.1402 -0.3499
42059W        W98300   0.466  24.108  23.341  0.3338  0.0468  0.2218
42060W        W98301   2.981  21.411  24.808 -0.0707 -0.2486 -0.2915
42061W        W98302   7.458  27.858  13.881  0.0997 -0.0566  0.1942
42062W        W98303  30.171  12.598  23.132 -0.0865 -0.1221  0.0740
42063W        W98304   9.170  22.431  22.587 -0.0354  0.1875  0.1018
42064W        W98305  17.424  14.148   8.116  0.1161 -0.0614 -0.0499
42065W        W98306  25.586  20.135  14.275 -0.1020 -0.1463 -0.0488
42066W        W98307  35.275  24.817  22.019 -0.1303 -0.0538  0.3500
42067W        W98308  14.852  29.317   4.623 -0.4301 -0.2706 -0.1091
42068W        W98309   5.356   4.205   4.067 -0.1152  0.3288 -0.3079
42069W        W98310   4.939  29.363   6.513 -0.0955  0.0803 -0.1622
42070W        W98311  30.093  32.303  17.206  0.0626 -0.2095 -0.0792
42071W        W98312   7.565  29.199   0.492  0.1600  0.0976 -0.1068
42072W        W98313  15.270  17.389   4.271  0.0421  0.2353  0.2587
42073W        W98314  24.385  16.314  24.710 -0.2187  0.1237  0.1095
42074W        W98315  27.895  20.626  13.026  0.1408 -0.1196 -0.2314
42075W        W98316  34.123  17.393  11.248  0.2806 -0.0903 -0.3306
42076W        W98317   7.334  11.019   0.057  0.1676  0.0934 -0.0218
42077W        W98318   8.210  31.055  21.875  0.1878  0.0552 -0.0761
42078W        W98319  33.879  20.616   6.985 -0.1999 -0.0751 -0.0335
42079W        W98320   8.143  28.798   3.249 -0.1361 -0.1284 -0.1309
42080W        W98321  25.082   6.194  18.293 -0.0535  0.0030  0.1195
42081W        W98322  30.167   0.286  21.030 -0.1330 -0.5430  0.1563
42082W        W98323  28.338   7.051  25.668  0.1541 -0.1927 -0.1168
42083W        W98324  18.027   3.843   5.453 -0.2495 -0.0015  0.2202
42084W        W98325  14.181  23.747   7.211 -0.0678 -0.2045 -0.3757
42085W        W98326  28.003  13.531  12.669  0.0501  0.1708  0.0997
42086W        W98327  19.400   5.701   0.776 -0.2606 -0.1372  0.0686
42087W        W98328  18.952  20.752   9.623 -0.2223  0.1556  0.1885
42088W        W98329  20.460   4.050   1.681  0.1726  0.0292 -0.1447
42089W        W98330  27.287  25.371  23.201  0.1871 -0.0548  0.1582
42090W        W98331  17.108  15.527   0.101 -0.0340 -0.2113  0.0016
42091W        W98332   3.112  33.120  20.419  0.0378 -0.2602  0.0322
42092W        W98333  34.217   3.254  24.529  0.1066  0.0744 -0.2997
42093W        W98334   5.319   7.184   4.223  0.0330 -0.5171 -0.0011
42094W        W98335  18.055  24.282   7.282 -0.1962  0.0798  0.1996
42095W        W98336  12.297  19.429   5.236  0.0324 -0.2104  0.2209
42096W        W98337   6.386  31.017   7.117 -0.2146 -0.0608  0.1251
42097W        W98338  27.446  15.754   5.587  0.1931 -0.1065  0.1111
42098W        W98339  30.633  15.044  11.528 -0.1799 -0.0486 -0.0979
42099W        W98340  33.870  29.543   3.495  0.1982 -0.1250 -0.1574
42100W        W98341   8.908  15.357  25.850 -0.0184  0.4526 -0.0045
42101W        W98342  14.786  29.194   7.757  0.2426  0.1421  0.0256
42102W        W98343  31.047  26.479   1.372  0.1388 -0.2546 -0.0767
42103W        W98344   8.133  13.429   5.145 -0.1817 -0.1205 -0.3035
42104W        W98345   0.366  33.425  25.519  0.0449 -0.0133 -0.1310
42105W        W98346  15.045  34.520   6.760  0.2170  0.0850 -0.3704
42106W        W98347  33.134  16.995  21.103 -0.2843  0.0357  0.1685
42107W        W98348  23.500   4.217  13.540 -0.2170  0.3362  0.1766
42108W        W98349  27.270   3.108  18.608 -0.2686  0.0551 -0.0073
42109W        W98350   0.240  35.118   1.625  0.2709 -0.1846 -0.1094
42110W        W98351  17.171  19.270   3.336  0.0936  0.3512  0.0261
42111W        W98352  13.184   3.358  12.439 -0.0717 -0.0357  0.2262
42112W        W98353   8.292  22.716   9.256 -0.1072  0.3193  0.0212
42113W        W98354   2.144  23.008  12.374  0.3595  0.0839  0.0623
42114W        W98355  20.921  14.267  24.721  0.1208 -0.2791  0.0736
42115W        W98356   9.799   7.371   0.500 -0.0992 -0.0518  0.2269
42116W        W98357  23.565  23.275  17.235 -0.0897  0.3678 -0.0444
42117W        W98358  14.272  18.584  24.302  0.1458  0.2749 -0.0811
42118W        W98359  32.006  16.221  13.866 -0.0461  0.0615  0.4078
42119W        W98360  31.432  15.013  22.066  0.0990  0.0377  0.1757
42120W        W98361  25.466   0.489  22.780 -0.3453  0.0305  0.1628
42121W        W98362  11.985  32.694  11.878  0.1393 -0.0576 -0.1313
42122W        W98363   1.595   5.238  26.035  0.0908  0.0329  0.2066
42123W        W98364  34.865   1.237  20.658  0.0418  0.1301 -0.2454
42124W        W98365  31.138   6.979   3.000 -0.3190  0.0797 -0.2212
42125W        W98366  12.844   1.418  12.792 -0.2092  0.0048  0.0028
42126W        W98367   9.035   8.586   5.024  0.0437 -0.2837 -0.0608
42127W        W98368  32.800  17.743  17.492  0.2312 -0.4142 -0.0008
42128W        W98369  27.085   9.334  21.554  0.0459 -0.3709  0.0427
42129W        W98370  21.029   0.430  21.992 -0.0232  0.2118  0.4038
42130W        W98371  26.987  20.546  20.497 -0.0796  0.1723 -0.1146
42131W        W98372  13.976  18.858  11.411  0.0360 -0.5438  0.1941
42132W        W98373  24.688  16.724  25.392  0.0959  0.0687 -0.1894
42133W        W98374  22.225  30.794  16.042  0.0740  0.1602  0.2747
42134W        W98375   9.833  25.262   6.544  0.0611  0.3126  0.4708
42135W        W98376  33.704  20.739  16.226 -0.1642 -0.0191  0.1472
42136W        W98377  32.513   9.388  20.726  0.3860  0.0465  0.1179
42137W        W98378   6.991  18.623  26.126 -0.2973 -0.0637 -0.3250
42138W        W98379  33.786  15.020  23.652  0.0403 -0.2496  0.3556
42139W        W98380  25.686   7.130   1.629 -0.2716 -0.2953  0.1239
42140W        W98381  22.086  22.629   4.455  0.0535  0.0320 -0.1605
42141W        W98382  18.930  17.544   1.833  0.0351 -0.1266  0.0042
42142W        W98383   7.140   0.047   2.119 -0.2635 -0.0148 -0.0901
42143W        W98384  30.647  13.641  14.866  0.0583 -0.0007 -0.2142
42144W        W98385   9.116  15.290  21.462 -0.2909  0.0688  0.2816
42145W        W98386   0.503  20.283  10.291  0.1992  0.0946 -0.1811
42146W        W98387  34.323   5.946   0.518  0.0015  0.2682  0.0869
42147W        W98388   0.768  31.813   6.518 -0.0673  0.2226 -0.1327
42148W        W98389  10.143  33.716  10.347 -0.0168 -0.1086  0.1778
42149W        W98390  13.818   3.308  17.954  0.2563 -0.0567 -0.2973
42150W        W98391   4.455  20.382   1.651 -0.2712  0.0026 -0.1660
42151W        W98392  12.726  20.130  23.429 -0.1090 -0.0835  0.0144
42152W        W98393  20.452  24.398  21.709 -0.1837  0.2101 -0.0719
42153W        W98394  25.539  25.759  17.158  0.2215  0.0110 -0.1984
42154W        W98395   3.723  15.621   3.280  0.3765  0.3551 -0.0357
42155W        W98396   1.285   4.781  14.350 -0.0237  0.1039  0.2676
42156W        W98397  23.060  29.742  25.697  0.1108  0.0243 -0.1633
42157W        W98398   2.391  22.825   1.444 -0.4386  0.0670 -0.0558
42158W        W98399  32.024   3.346   0.843  0.1733  0.1715  0.0368
42159W        W98400   6.876   0.887   9.345 -0.1457  0.0549 -0.0925
42160W        W98401   5.669  32.636   0.650  0.2116 -0.0451 -0.1825
42161W        W98402  22.109   2.178   6.709  0.0569  0.0250 -0.2749
42162W        W98403   6.569  34.602  10.962  0.3556 -0.0741  0.2919
42163W        W98404  26.466  29.602  13.467 -0.0174  0.0783  0.2377
42164W        W98405   8.694  14.458   6.253  0.1192 -0.1123  0.0405
42165W        W98406   8.102  31.506   7.037  0.1361 -0.0745  0.0120
42166W        W98407  22.153   5.987  24.660  0.0310 -0.0004 -0.1698
42167W        W98408  11.189  16.052  24.178 -0.3197 -0.0744  0.0374
42168W        W98409   4.213  14.245  17.621  0.0737 -0.0719  0.3033
42169W        W98410  11.634  16.433  21.470  0.0779  0.2030  0.1575
42170W        W98411   8.522  10.210  24.085  0.1264  0.0380  0.3066
42171W        W98412   0.164   0.148  26.011  0.0697  0.2517  0.3342
42172W        W98413  28.298  27.505  24.062 -0.0251 -0.1092  0.0925
42173W        W98414   4.818  29.949  22.678 -0.0830  0.0305  0.2133
42174W        W98415   5.221  28.120   0.373 -0.1653  0.0216  0.1392
42175W        W98416   0.858  15.995   1.315 -0.1085  0.1490 -0.1322
42176W        W98417  13.539  13.326  10.864 -0.0420 -0.2645 -0.1828
42177W        W98418  35.044  19.242  12.708  0.0194 -0.5942  0.1407
42178W        W98419   4.303   7.141  17.809 -0.2348 -0.1808  0.0271
42179W        W98420  29.649   2.912  16.414  0.1664 -0.2419  0.0836
42180W        W98421   8.387  30.931   4.258 -0.3065  0.0764 -0.0716
42181W        W98422  11.200  16.448  21.140  0.0532 -0.0610 -0.1975
42182W        W98423   5.966  33.347   5.493 -0.1125 -0.0793  0.0615
42183W        W98424  20.122  25.963   2.164  0.1139 -0.0598  0.1389
42184W        W98425   2.517  34.409  23.064  0.1250 -0.3687 -0.0352
42185W        W98426   8.524  29.961  16.203 -0.2820 -0.0281  0.1807
42186W        W98427  31.958   3.320  24.496  0.0771  0.0341 -0.6087
42187W        W98428   4.792  23.366  21.858  0.1143  0.2613 -0.0836
42188W        W98429  29.950  22.741  16.377 -0.1406 -0.0132 -0.1353
42189W        W98430  26.929  25.433  19.835 -0.1244 -0.4629  0.1273
42190W        W98431  12.135  31.681   0.208 -0.0461  0.1048 -0.1450
42191W        W98432  11.658   2.378   7.618 -0.1141  0.1459 -0.0311
42192W        W98433  26.134   6.818  17.928  0.0876  0.0299 -0.1737
42193W        W98434  29.284  22.209   8.908 -0.0353  0.0067  0.0191
42194W        W98435  29.282  32.572   2.105 -0.0151 -0.3597 -0.3131
42195W        W98436  24.567  25.656  15.531 -0.2310  0.0714 -0.2731
42196W        W98437  20.769   3.952   2.564 -0.0444 -0.0346 -0.0977
42197W        W98438  21.731  15.553  22.867  0.1115  0.1673  0.1099
42198W        W98439   4.088  16.706   2.628 -0.0599 -0.1059  0.0997
42199W        W98440   8.962  19.057  24.585 -0.0197  0.1583  0.0459
42200W        W98441  23.275  12.189   2.253  0.0686  0.0696 -0.1012
42201W        W98442  21.150  11.561   2.355 -0.0534 -0.0514  0.0494
42202W        W98443  34.506  24.682  16.391 -0.2151  0.0725  0.1003
42203W        W98444  22.252  24.942   3.254 -0.0064 -0.2248 -0.0555
42204W        W98445   3.490  22.995   1.397  0.3322  0.2014  0.1020
42205W        W98446  13.722  13.136  10.349 -0.1401  0.1862  0.1988
42206W        W98447  21.242  24.680  25.479 -0.0445 -0.2625  0.0669
42207W        W98448  24.824  28.577  12.084  0.1879  0.1755  0.1672
42208W        W98449  33.530  33.868   6.670 -0.1968 -0.3468 -0.0159
42209W        W98450  25.917  14.695  23.354  0.0673 -0.0005 -0.1153
42210W        W98451   9.090  26.278   4.880  0.3508 -0.0791  0.3436
42211W        W98452  30.768  34.791   2.427 -0.0397  0.1344  0.0174
42212W        W98453  18.575  10.293  23.463 -0.1957  0.0612 -0.1657
42213W        W98454  31.262  19.222  15.131 -0.0118  0.3247  0.0414
42214W        W98455  11.212   4.792  24.452  0.1125  0.0457 -0.0449
42215W        W98456  11.450  21.964  13.245  0.0645 -0.2570  0.2196
42216W        W98457  13.004  33.176   6.699 -0.0649  0.3742 -0.0589
42217W        W98458   4.275  28.277   6.595 -0.2733  0.4422 -0.2456
42218W        W98459   5.840  28.255  25.488 -0.0930 -0.1329 -0.0872
42219W        W98460  28.440  18.241   8.835 -0.0884 -0.0532  0.2595
42220W        W98461  32.118  21.834   6.914  0.1465  0.1728 -0.2622
42221W        W98462   3.821   0.304   6.791  0.0681 -0.0154 -0.0091
42222W        W98463  14.389  23.984  23.873  0.0108  0.1000  0.0748
42223W        W98464   0.306   3.828   4.004 -0.1381  0.1393  0.1874
42224W        W98465  34.183  22.301  21.217 -0.0025 -0.2074 -0.1829
42225W        W98466  35.080   0.749   6.246  0.3097 -0.0812 -0.2312
42226W        W98467   1.440  15.217  15.950  0.2371 -0.4230 -0.4320
42227W        W98468  28.861  12.477  22.181  0.1432  0.1374  0.2251
42228W        W98469  29.980  12.603  24.864 -0.0770 -0.0597  0.3520
42229W        W98470  16.322  14.290   0.233  0.0801 -0.0194 -0.1153
42230W        W98471  15.951  19.019  11.716  0.0804  0.2633 -0.2149
42231W        W98472  30.195  15.961  12.847  0.4628  0.4255  0.3273
42232W        W98473  30.908  10.815   0.491 -0.2689  0.2358 -0.1493
42233W        W98474  27.536  29.033  24.501  0.1359 -0.0690  0.0032
42234W        W98475  34.339  34.929  13.881  0.1678 -0.1841 -0.3458
42235W        W98476   9.695   2.603   3.162 -0.1117  0.5758 -0.0832
42236W        W98477  26.384   7.612  21.813  0.3199  0.1846  0.1243
42237W        W98478  29.380  16.371  18.197  0.0142  0.1795 -0.0605
42238W        W98479  19.471  34.525  16.717  0.3280 -0.2459 -0.0553
42239W        W98480  30.016   7.641   0.814 -0.0614  0.1813 -0.0637
42240W        W98481  11.804  21.955  16.400 -0.1208 -0.0949  0.2301
42241W        W98482  30.816  23.403  15.998 -0.2125  0.0268  0.1696
42242W        W98483  15.492  10.054  23.665 -0.1931 -0.3565  0.3036
42243W        W98484  11.920  14.629  13.576 -0.1391  0.0126  0.1498
42244W        W98485  25.726  14.064  26.204  0.2134 -0.1720 -0.0551
42245W        W98486  24.778   4.338  14.604 -0.0975 -0.2625 -0.0036
42246W        W98487  14.661  25.759  23.914 -0.3636 -0.1372  0.2427
42247W        W98488  10.436  27.414   8.688  0.1099  0.1785 -0.2974
42248W        W98489  22.084  31.907  20.470 -0.0178 -0.2829 -0.2032
42249W        W98490  33.740  24.326  21.214 -0.3028  0.0874 -0.0443
42250W        W98491  18.123   6.606  22.482 -0.1131 -0.2831  0.2379
42251W        W98492  24.984  21.106  17.216 -0.2209 -0.2870 -0.3830
42252W        W98493  29.434   3.810   5.187 -0.2566  0.1088  0.0567
42253W        W98494  20.033  13.472  22.380 -0.1004  0.2536 -0.0853
42254W        W98495  28.736  33.940  14.440  0.1761  0.5548 -0.0526
42255W        W98496   7.271  11.751  18.826 -0.0796 -0.2060 -0.0070
42256W        W98497  15.998  15.089   1.601  0.1550 -0.1540 -0.0712
42257W        W98498  34.779  14.846  22.380  0.1083  0.2207 -0.0545
42258W        W98499  15.816   2.097  24.732 -0.1999 -0.0574  0.0306
42259W        W98500   3.725  19.180  16.365  0.0152  0.1515 -0.2453
42260W        W98501   8.138  31.138  10.980 -0.0256  0.0188  0.1792
42261W        W98502  12.950  22.996  11.173  0.2204  0.0349 -0.1565
42262W        W98503   6.435  25.015   1.995  0.0667  0.2268  0.0262
42263W        W98504  31.501   1.935  19.117 -0.4469 -0.0735  0.1560
42264W        W98505  21.806  19.778   0.577 -0.4261 -0.0406  0.0723
42265W        W98506  11.921   5.703  12.626 -0.1779  0.4492  0.0023
42266W        W98507  21.037   0.387  21.156 -0.4173 -0.0368 -0.1507
42267W        W98508   8.873  25.465  16.788 -0.0804 -0.3242  0.1072
42268W        W98509  17.329  16.088   3.117  0.1582 -0.1783  0.0526
42269W        W98510  11.394   4.408  22.268 -0.1308  0.2218  0.0273
42270W        W98511  18.675   7.668  11.828  0.0035 -0.0323  0.0717
42271W        W98512  18.099  16.400  10.571 -0.2398  0.1913 -0.0039
42272W        W98513  27.611  22.479  18.389 -0.0362  0.0719 -0.0387
42273W        W98514  29.439   0.994  23.986  0.0922  0.1562  0.4199
42274W        W98515  23.260   6.764  15.253 -0.1439 -0.2417  0.4985
42275W        W98516  14.758  25.448  24.802 -0.1770 -0.3315 -0.1786
42276W        W98517   6.389  19.130   7.991 -0.1035  0.1640  0.0368
42277W        W98518  16.032   8.753   0.750 -0.0102  0.2616  0.5017
42278W        W98519  34.137  29.848  20.005  0.1065 -0.1867 -0.3111
42279W        W98520  31.744  29.242  25.078 -0.1275  0.0337  0.4111
42280W        W98521  13.281   4.602  23.758 -0.1469  0.1702 -0.0169
42281W        W98522  13.175  10.174  24.671  0.1822  0.2127  0.2079
42282W        W98523  12.347  22.219  25.123 -0.1818  0.5300 -0.1225
42283W        W98524   5.585  13.425  24.165 -0.0565 -0.0185  0.0780
42284W        W98525  24.986  15.160   9.734  0.0686  0.1525  0.0408
42285W        W98526  17.291  30.642  23.856  0.2203  0.1996  0.0727
42286W        W98527  27.239   4.242  12.788  0.1591 -0.1672  0.0080
42287W        W98528  17.201   4.091  18.979 -0.0330  0.1773 -0.2917
42288W        W98529  19.462   1.807  24.702 -0.1409 -0.0096  0.0927
42289W        W98530  31.365  25.144   0.913 -0.1899 -0.0196 -0.1132
42290W        W98531   2.273  13.107  19.568  0.1359 -0.1065  0.0556
42291W        W98532  22.047  24.764  23.640  0.0306 -0.0395  0.1040
42292W        W98533  29.310  23.557   7.803  0.2758  0.2677 -0.1390
42293W        W98534  22.350  11.942  15.783 -0.1671 -0.4005 -0.0514
42294W        W98535   5.321   8.532   7.965 -0.2909 -0.1521 -0.3225
42295W        W98536  11.444  22.189  13.968 -0.0217 -0.1990  0.0828
42296W        W98537  29.869  10.477  24.394 -0.1629 -0.0706 -0.1433
42297W        W98538  31.355  31.769  18.108  0.0462  0.1978 -0.1510
42298W        W98539  32.138  31.117  20.795  0.0134 -0.2311 -0.3802
42299W        W98540  24.254  22.180  13.396 -0.2261  0.1818  0.0371
42300W        W98541  32.783   9.503   1.971 -0.0138  0.1509 -0.3211
42301W        W98542  11.777   4.516   2.563 -0.0996  0.0273 -0.1912
42302W        W98543  15.778  14.640  20.638 -0.1580 -0.3278 -0.1229
42303W        W98544  34.075   0.760  15.143  0.0199 -0.1947 -0.1927
42304W        W98545  26.798   1.079  11.827 -0.2186 -0.1488 -0.1595
42305W        W98546  26.688   2.745  15.076 -0.2790  0.0157  0.1784
42306W        W98547  23.174  23.526  12.322 -0.1231  0.1560 -0.1484
42307W        W98548  12.532  33.903  22.697 -0.0332  0.0468  0.0731
42308W        W98549  15.020  33.714   5.231 -0.3033 -0.0932  0.1180
42309W        W98550   2.851   3.719  23.542 -0.1482 -0.2398  0.0895
42310W        W98551  32.324  14.163  13.157 -0.1156 -0.0025 -0.0486
42311W        W98552  20.435  13.447   2.966  0.0881 -0.2956 -0.0822
42312W        W98553  22.416   8.472  21.931  0.3877  0.2398  0.3692
42313W        W98554   8.141  23.207   2.410  0.1294 -0.2273 -0.1638
42314W        W98555  31.839  24.708  25.448  0.0610  0.0580  0.1952
42315W        W98556  15.432  32.502  23.048 -0.2050 -0.2644 -0.0268
42316W        W98557  23.063   7.984  14.692  0.0644  0.0381 -0.0303
42317W        W98558  21.648  29.134  23.734  0.0227  0.2183 -0.1358
42318W        W98559  22.776   9.102  19.314 -0.2449  0.0213  0.1118
42319W        W98560  13.269  29.203  24.485 -0.0323 -0.1288  0.3203
42320W        W98561  25.368   6.644  13.115 -0.4175  0.0585  0.0674
42321W        W98562  11.657  34.944   3.474  0.0512  0.0082 -0.2683
42322W        W98563  24.078  18.162   1.694  0.0275 -0.0415 -0.2717
42323W        W98564  24.180  20.501  24.698  0.2161 -0.0717  0.1972
42324W        W98565  25.764  26.919   1.940  0.1538 -0.0853  0.0539
42325W        W98566  15.922  25.651  12.339  0.0853 -0.0286 -0.0955
42326W        W98567  11.755  22.832   0.182 -0.1765 -0.0860  0.0263
42327W        W98568  11.280  26.561   9.251  0.0007 -0.0304 -0.1673
42328W        W98569   9.714  12.234  25.981 -0.0002  0.0138 -0.1094
42329W        W98570  17.001  21.233   7.648  0.0860  0.0592  0.3711
42330W        W98571  23.946   1.181  18.085  0.0835 -0.2735 -0.1673
42331W        W98572  10.528  17.540  25.212  0.0227  0.0518  0.3777
42332W        W98573  34.662   9.064  18.104  0.1303 -0.0844 -0.1009
42333W        W98574  11.219  12.003   6.077  0.0046  0.1185 -0.1530
42334W        W98575   4.878   9.417  25.977  0.0117 -0.2149  0.1927
42335W        W98576   3.671  28.482  21.750 -0.2053  0.2016 -0.0798
42336W        W98577  30.555   2.338  19.111  0.2327 -0.1875  0.3986
42337W        W98578  19.696  28.446   1.188  0.0528  0.0137 -0.0142
42338W        W98579  12.547   8.061  14.462 -0.3139  0.0430 -0.1572
42339W        W98580   7.825  25.782  12.568  0.0360 -0.0088 -0.0109
42340W        W98581   6.339  17.454  23.100  0.0617  0.0845 -0.0155
42341W        W98582  22.865   0.637  24.817 -0.3824 -0.1167  0.0720
42342W        W98583  17.946  34.410  24.872 -0.3446 -0.0377 -0.2743
42343W        W98584  29.619   1.153  22.896 -0.1756  0.5472 -0.0958
42344W        W98585  34.476   5.287  24.330 -0.1186  0.2153  0.1689
42345W        W98586  18.434   5.407   0.469 -0.1401  0.2100 -0.0317
42346W        W98587  26.728  23.533  22.853  0.1487 -0.0448 -0.0755
42347W        W98588  15.582  13.422  12.706 -0.0951 -0.0955  0.1813
42348W        W98589  22.259  15.434  13.933 -0.2052 -0.0361  0.0003
42349W        W98590   8.472  32.676   8.496 -0.3422  0.1672  0.0050
42350W        W98591  20.434  30.623   1.861 -0.1885  0.0582 -0.2387
42351W        W98592   3.555  34.620  24.194  0.1161 -0.0850  0.0670
42352W        W98593  19.476  34.053  15.984 -0.0805 -0.1889 -0.0718
42353W        W98594  31.870  34.064   4.136 -0.1707 -0.0746  0.0488
42354W        W98595   5.057   3.396  18.510 -0.0148  0.0252  0.0336
42355W        W98596  34.167   9.729  22.376  0.1282  0.3047 -0.2187
42356W        W98597  18.047  32.332   3.972  0.0512 -0.0167  0.0473
42357W        W98598   6.136   8.701   1.020  0.2872  0.0464 -0.0624
42358W        W98599   0.233   9.488   0.302 -0.0856 -0.1257 -0.1226
42359W        W98600  29.366  13.557  25.124 -0.1834 -0.0413  0.1153
42360W        W98601  18.453  23.694   0.815  0.1365  0.0174  0.0623
42361W        W98602   5.482  13.507  25.136  0.0838 -0.0328 -0.0593
42362W        W98603  26.428  28.444  19.716 -0.1826  0.2702 -0.2206
42363W        W98604  20.509  31.780  26.036 -0.0418  0.1054  0.3196
42364W        W98605  27.900   4.268  24.345  0.3530  0.2341  0.0617
42365W        W98606  11.613   6.752   6.478  0.1188 -0.2592  0.1488
42366W        W98607   0.727  21.024  15.585 -0.0893 -0.0147  0.1148
42367W        W98608  12.492  22.686   0.019  0.1781  0.1683 -0.2078
42368W        W98609  11.710  17.573   7.466  0.1044 -0.1232  0.1451
42369W        W98610   6.525  31.511   6.751  0.0312  0.0183 -0.0212
42370W        W98611  34.405  29.348  20.487 -0.0453  0.0499  0.0022
42371W        W98612   4.174  29.622   7.715 -0.1090 -0.0565 -0.2713
42372W        W98613  31.662  12.793   8.162 -0.3714  0.2112  0.0590
42373W        W98614  29.839  14.515  20.980  0.0854  0.1456  0.2202
42374W        W98615  29.562   2.190  20.683  0.0717 -0.0889  0.1086
42375W        W98616  28.754  33.946  25.304  0.0927 -0.2794  0.4152
42376W        W98617  28.439  22.119   8.754  0.1963  0.3240 -0.1947
42377W        W98618  30.684  21.548  11.311  0.0243 -0.0747  0.0130
42378W        W98619  21.634   3.073   5.041 -0.0172  0.1499 -0.1970
42379W        W98620  13.311  21.765   3.883  0.0817  0.3339 -0.1822
42380W        W98621  34.405  11.244  19.245  0.0383  0.1250  0.1430
42381W        W98622   3.940  23.310   1.332 -0.0278 -0.1289 -0.0958
42382W        W98623  29.561  10.790  20.471 -0.1270  0.0428 -0.2824
42383W        W98624  26.465  17.918  10.205 -0.2205 -0.0853  0.0925
42384W        W98625  19.617  21.671  26.058 -0.4593  0.1745  0.0331
42385W        W98626   3.056  14.761   1.070 -0.2322 -0.2367  0.0487
42386W        W98627   6.612  17.579  25.005 -0.1325  0.0913 -0.0596
42387W        W98628   8.113  24.802   3.213  0.3385 -0.1661  0.0807
42388W        W98629  11.089   1.160  10.662  0.1966  0.1531  0.3064
42389W        W98630  30.799  21.770   7.108 -0.2473  0.2433  0.2626
42390W        W98631   1.897  28.466  20.141 -0.0509  0.1915  0.0999
42391W        W98632  13.543  20.700  24.888 -0.0738  0.0445  0.2536
42392W        W98633  27.377  26.938  23.795  0.1820  0.1687  0.0829
42393W        W98634  35.001   2.612  14.125  0.4485  0.1184  0.1831
42394W        W98635  33.374  32.896   2.972  0.1803 -0.3896 -0.2284
42395W        W98636   6.384  21.940   4.522  0.5668  0.0652 -0.3505
42396W        W98637  10.090  32.978   7.608  0.3939  0.3412  0.0817
42397W        W98638  34.106  12.627  13.153 -0.0607  0.2368 -0.0149
42398W        W98639  33.289   4.416   4.724  0.0469 -0.1393 -0.0232
42399W        W98640   9.311  25.532   8.770  0.2076  0.0147  0.1086
42400W        W98641  11.652  11.724  24.109  0.0645  0.0634 -0.1960
42401W        W98642  17.771  24.353   0.216 -0.2101  0.1950 -0.2062
42402W        W98643  25.686  26.523  21.412 -0.0013  0.1209 -0.1664
42403W        W98644  25.573  15.703   6.766 -0.1859  0.0608  0.1408
42404W        W98645  23.594  33.306   3.736 -0.1073  0.0508 -0.2462
42405W        W98646  28.556   4.347  18.002  0.0424 -0.1501  0.0677
42406W        W98647  31.461  34.454  18.833  0.1755 -0.2565 -0.0519
42407W        W98648   1.528  27.526   7.514 -0.1007  0.0243 -0.2204
42408W        W98649   6.594   3.279   4.330  0.0688  0.1583 -0.2138
42409W        W98650  21.705  11.685  18.583  0.2527  0.2488  0.0320
42410W        W98651  23.832  33.338  12.278  0.0465  0.0389  0.0417
42411W        W98652   7.386   2.262  12.682 -0.0773 -0.2271 -0.0844
42412W        W98653  32.806  20.076  23.546  0.3649 -0.2189  0.2183
42413W        W98654  31.559  13.112  16.461  0.0284  0.0943  0.1017
42414W        W98655  16.127  13.580   9.274  0.3752 -0.1894 -0.2592
42415W        W98656  28.283   0.946  15.236 -0.2386 -0.1162 -0.0742
42416W        W98657  11.826  16.728   4.374 -0.0977  0.1366  0.1990
42417W        W98658  27.846  18.220  25.940  0.0702 -0.0752 -0.1331
42418W        W98659  17.777  15.014   9.279  0.0254 -0.4324  0.0377
42419W        W98660  15.116   5.014   6.759  0.2890  0.0329  0.2633
42420W        W98661  18.538   0.854  24.233 -0.0204  0.0745  0.3354
42421W        W98662  23.705   5.903  18.168 -0.2294  0.0205 -0.1648
42422W        W98663   4.887  25.192   4.022  0.0580  0.2416  0.0454
42423W        W98664  28.645   1.234  21.077  0.6078  0.2051  0.1379
42424W        W98665  12.521  21.443   5.658 -0.0408  0.1783 -0.0584
42425W        W98666  27.532  15.312  17.547 -0.2501  0.0563 -0.0162
42426W        W98667  29.158   1.343  25.205 -0.1022 -0.0576 -0.0062
42427W        W98668  32.117  16.903  11.636 -0.1507 -0.2028  0.1455
42428W        W98669  34.631  16.537  19.958  0.2095 -0.0612  0.1722
42429W        W98670   0.444  31.870  17.850 -0.1512  0.0881 -0.1656
42430W        W98671   1.211  12.480   1.557  0.1684  0.1212 -0.3448
42431W        W98672  23.125  17.818  14.736  0.2549 -0.2084  0.1360
42432W        W98673  23.861  25.702  23.040  0.1688 -0.3761 -0.2917
42433W        W98674   1.457   2.673   6.603  0.2362  0.0195  0.4585
42434W        W98675  17.549   6.991  10.372  0.1284 -0.2365 -0.3242
42435W        W98676  14.503  19.182  21.056  0.1770  0.0242  0.2216
42436W        W98677  19.953   7.638  25.104  0.3732  0.0464 -0.6219
42437W        W98678   5.325  26.555   8.740  0.4644  0.1004 -0.0667
42438W        W98679  32.230  16.929  17.778  0.1470 -0.0544 -0.0181
42439W        W98680  24.824   6.511  13.838  0.2393 -0.0304 -0.0946
42440W        W98681  13.708  31.944   3.819 -0.1748 -0.0155 -0.0414
42441W        W98682   5.811  27.692   4.040  0.0380  0.2691 -0.0013
42442W        W98683   3.943   8.094  18.575 -0.4223  0.0946 -0.1659
42443W        W98684  32.088  22.838   0.231 -0.1165  0.0731 -0.1506
42444W        W98685  11.061  18.812   3.460 -0.0582  0.0031  0.2788
42445W        W98686   5.634   1.028  19.139  0.0880  0.5775 -0.1028
42446W        W98687  33.793  27.621  16.567  0.4021  0.0068 -0.1238
42447W        W98688  23.211  26.983   3.716 -0.0114  0.1456 -0.0008
42448W        W98689  14.580  10.846  24.923 -0.0354  0.4274  0.3152
42449W        W98690  27.841   1.232  23.045 -0.1984 -0.1461 -0.0760
42450W        W98691  29.918  14.936  12.035 -0.0117 -0.2355  0.0332
42451W        W98692  25.487  19.141  21.556  0.0484  0.1150  0.4462
42452W        W98693  18.131  17.026  18.758  0.0295 -0.3009 -0.0504
42453W        W98694   0.314   4.150  25.120 -0.0404  0.2132  0.1042
42454W        W98695  13.977   8.371  21.653  0.2666  0.2696  0.1274
42455W        W98696   0.112  21.106  12.878  0.5043 -0.0912 -0.1630
42456W        W98697  32.073  15.000   9.482 -0.2712 -0.0192 -0.2397
42457W        W98698  20.800  32.065   5.681 -0.0139 -0.2413 -0.0751
42458W        W98699   6.093   7.902  17.876  0.1544  0.0351  0.2212
42459W        W98700  17.026   6.815   5.191 -0.0746 -0.0346  0.0025
42460W        W98701  34.462  14.023  25.936 -0.0700  0.0065  0.1532
42461W        W98702  24.021  25.318  23.640 -0.0065 -0.0213  0.1759
42462W        W98703  12.974   1.520   9.422 -0.1202  0.4397  0.0286
42463W        W98704   2.312  34.592   4.819  0.1968 -0.0065 -0.0369
42464W        W98705  30.600   0.234   5.217 -0.2330 -0.0605  0.0895
42465W        W98706  25.458  25.430  25.449 -0.0494 -0.2843 -0.2838
42466W        W98707  33.082   0.545  26.123 -0.0828  0.1643  0.0926
42467W        W98708  24.719  28.106  18.715 -0.0021  0.1387 -0.1334
42468W        W98709  11.283  19.625   6.903 -0.0995  0.4741  0.2009
42469W        W98710  12.387  33.296   0.299  0.1986 -0.2197 -0.0384
42470W        W98711  15.154  13.599   5.283 -0.0666  0.0254 -0.1566
42471W        W98712  33.806  30.595  19.035 -0.0857 -0.0326  0.0902
42472W        W98713   8.285  14.110   6.229  0.0239  0.0692 -0.0423
42473W        W98714  18.270   5.605   5.114  0.2313  0.0626 -0.2493
42474W        W98715   9.313  29.721  22.851 -0.0175  0.1376  0.1990
42475W        W98716  24.814  20.275  12.711 -0.0348  0.1397  0.0460
42476W        W98717  11.606  11.058  23.462  0.1928 -0.2267  0.0597
42477W        W98718  31.368  12.634  15.892 -0.0202 -0.0727 -0.0948
42478W        W98719  12.039   0.020  12.795  0.3225  0.0578  0.4595
42479W        W98720   6.889  14.345   9.951  0.0435  0.2611  0.3642
42480W        W98721   5.970   4.000  18.849  0.1526  0.1659 -0.2633
42481W        W98722  31.922  11.800   0.897  0.0973 -0.0927 -0.0339
42482W        W98723   6.728  21.722   3.170 -0.1351 -0.0683  0.0639
42483W        W98724  10.282  18.627  10.749 -0.1138 -0.1027 -0.1409
42484W        W98725  28.073   1.560  21.191  0.4358 -0.2695  0.1706
42485W        W98726  12.510  12.591  25.233  0.0069 -0.1402  0.0705
42486W        W98727  23.837  33.174  19.961 -0.1399 -0.0015 -0.1332
42487W        W98728   2.663  15.887  25.341  0.0946 -0.1081  0.0630
42488W        W98729  16.658  30.673   1.733  0.0383  0.1527  0.0151
42489W        W98730  24.273  32.586  13.383  0.1496  0.1481 -0.0405
42490W        W98731  19.881  10.676  18.377  0.2280 -0.1124 -0.0793
42491W        W98732  18.260  32.836  22.249 -0.0809  0.1128 -0.0877
42492W        W98733  25.334   9.974   1.646 -0.1600 -0.2890 -0.1675
42493W        W98734  10.398   1.466   2.211 -0.4547  0.0795  0.1315
42494W        W98735  29.833  19.541  22.699  0.2321  0.0098  0.1262
42495W        W98736  20.143  24.042   0.736 -0.2730  0.1715  0.3983
42496W        W98737  17.210  16.613  22.756 -0.1390 -0.1969 -0.2647
42497W        W98738  20.421  13.302  20.119 -0.1086  0.1085 -0.0242
42498W        W98739  22.991  16.605  14.290 -0.4373  0.1375  0.1102
42499W        W98740  13.791   8.398   4.448  0.2849 -0.2727  0.2436
42500W        W98741  14.017   3.778   9.788 -0.3961  0.0718 -0.1759
42501W        W98742   9.494   8.358  11.708  0.4096 -0.0969 -0.0024
42502W        W98743  11.260   8.729   5.507 -0.2085  0.0099 -0.3568
42503W        W98744  32.062   3.664  13.294 -0.3039 -0.0350  0.2911
42504W        W98745  11.929  26.556   8.234 -0.1975 -0.1741 -0.1910
42505W        W98746  28.223  11.565  16.195  0.1901  0.2067  0.1949
42506W        W98747  31.835   5.502  22.748 -0.2951  0.1016  0.3801
42507W        W98748   4.406  28.609  19.896  0.0804 -0.0216  0.0466
42508W        W98749  23.943  10.890  13.877  0.1286  0.2335  0.4524
42509W        W98750  23.109  25.741  24.976 -0.0299 -0.2383 -0.0938
42510W        W98751  34.862  12.692  19.707 -0.0392  0.1342  0.0218
42511W        W98752  10.560   1.584  21.347  0.1709 -0.0687 -0.0910
42512W        W98753   5.469   9.855   8.503 -0.1603  0.0696 -0.3776
42513W        W98754  13.634  33.766  12.076 -0.1867 -0.0287 -0.0196
42514W        W98755  28.752  27.348   9.356 -0.3776 -0.0021  0.3290
42515W        W98756  22.804  34.857   4.187  0.0054  0.3023 -0.0567
42516W        W98757  31.805  33.054   1.230  0.0301  0.2413 -0.4429
42517W        W98758   5.191  25.290  10.716 -0.1252  0.2820 -0.0584
42518W        W98759   8.715   8.823   8.313 -0.0862  0.1280 -0.1865
42519W        W98760  19.710  33.256   0.673  0.1222 -0.2645 -0.0484
42520W        W98761   1.456   5.228   6.725 -0.2875  0.0306  0.3053
42521W        W98762   0.597  16.140   9.312  0.0928  0.1152 -0.4561
42522W        W98763  29.164  13.592  15.756 -0.1753  0.1398  0.1057
42523W        W98764  23.120  32.134  22.856 -0.1352 -0.4583 -0.2907
42524W        W98765  34.286   2.975   1.503 -0.0278  0.0144 -0.1360
42525W        W98766  18.262  27.135   6.462 -0.1370  0.1578  0.4734
42526W        W98767  32.548  21.132  15.932  0.1332  0.3482  0.1669
42527W        W98768  14.953  22.595   1.504  0.1848  0.0780 -0.1124
42528W        W98769  12.714  28.985  13.279  0.0399  0.0563  0.1732
42529W        W98770  18.216  13.083   5.753 -0.4266  0.0474  0.2974
42530W        W98771   8.608  20.247  11.352  0.1705 -0.3093  0.1855
42531W        W98772   1.591   6.174   5.392 -0.4146  0.0291 -0.1986
42532W        W98773  33.927  12.813  21.156 -0.3835  0.1676  0.0831
42533W        W98774  32.773   9.399  18.295 -0.0157  0.0199 -0.1752
42534W        W98775  31.960  10.421  11.366 -0.0891  0.2066  0.5817
42535W        W98776   3.348   0.536   9.744  0.0222  0.2484 -0.0985
42536W        W98777  13.141   7.133  10.591  0.1466 -0.0332 -0.1543
42537W        W98778   7.530   8.032  18.307 -0.0522  0.1474  0.1509
42538W        W98779  15.106   5.615   3.652  0.2908 -0.0816  0.1426
42539W        W98780   3.049  26.910   8.576  0.2387 -0.0681 -0.0340
42540W        W98781   7.076  27.551  25.041  0.1850 -0.1038 -0.0243
42541W        W98782  12.641  31.949   4.462 -0.0915 -0.0729  0.2109
42542W        W98783   8.865  22.017   0.097  0.1580  0.1549  0.1248
42543W        W98784   9.178  34.834   3.260 -0.1810 -0.0347 -0.0593
42544W        W98785  24.481  29.835   2.760 -0.0667 -0.0240  0.0382
42545W        W98786  32.204  32.815   2.204  0.2115  0.0614 -0.0799
42546W        W98787   8.379  17.319  20.781 -0.4957 -0.1269 -0.2312
42547W        W98788  27.484   0.213  15.022 -0.4278  0.0691  0.0327
42548W        W98789   5.787  18.159   4.312 -0.1115 -0.2036  0.0350
42549W        W98790   6.244   9.556  18.835  0.0811 -0.0876 -0.0572
42550W        W98791   7.421  34.960   8.796 -0.1901  0.0583  0.0342
42551W        W98792   8.190  23.708  24.469  0.1196 -0.0300  0.1592
42552W        W98793   6.152   7.655   2.289 -0.0697  0.2234  0.2480
42553W        W98794  12.361   6.303   7.187  0.2194  0.1949  0.0513
42554W        W98795  22.781  17.389  17.047 -0.1482 -0.1760 -0.3311
42555W        W98796  22.408  22.897  14.428 -0.0037  0.0834 -0.2212
42556W        W98797   5.604  31.189  24.038 -0.1558  0.1837  0.1698
42557W        W98798  24.354  18.861  25.476  0.1883 -0.2246 -0.0584
42558W        W98799   3.325   9.042  21.063  0.1184  0.1002 -0.2603
42559W        W98800  16.757  20.816   0.615  0.0372  0.0847  0.0355
42560W        W98801  12.330  23.639   6.419  0.0306  0.1119 -0.0326
42561W        W98802  24.774   8.372   1.299 -0.0365  0.1994  0.0500
42562W        W98803  13.170  30.803   1.948  0.0996  0.0317 -0.4752
42563W        W98804   0.832  11.534  22.279 -0.4807  0.1265  0.1575
42564W        W98805   7.703  15.829  21.575 -0.0130 -0.0921 -0.2278
42565W        W98806  20.566  23.760   1.398  0.0480 -0.1038 -0.1364
42566W        W98807  14.961  13.866  22.109 -0.4289 -0.1079 -0.0250
42567W        W98808  12.773  23.389  12.088  0.3326 -0.2036  0.2628
42568W        W98809   0.070   1.612  23.211 -0.0102 -0.1653  0.2521
42569W        W98810  18.081  35.351  23.862  0.2275 -0.3073  0.1083
42570W        W98811   4.957   8.484   6.863 -0.0101 -0.1552  0.0833
42571W        W98812  19.137  14.463   0.083  0.0095 -0.3456  0.0937
42572W        W98813  13.968   1.893   8.998  0.1873 -0.1510  0.3468
42573W        W98814  26.547  22.461  23.805  0.1480 -0.0194  0.0622
42574W        W98815   4.868   7.854  17.645 -0.2083 -0.1017 -0.0805
42575W        W98816  24.446  13.690  24.408 -0.2568 -0.2261 -0.0969
42576W        W98817  11.736   1.218  20.951  0.1369 -0.1905 -0.1061
42577W        W98818   9.756   8.440  25.622 -0.2735  0.0032  0.1053
42578W        W98819  19.383  16.634  18.842 -0.1674  0.0508 -0.1961
42579W        W98820  19.582  23.343  20.478 -0.5260  0.2040 -0.2270
42580W        W98821  11.316  15.604   4.645 -0.2609  0.0870  0.2381
42581W        W98822  26.898  19.733   5.538 -0.2285  0.0100  0.0379
42582W        W98823  24.418   7.079  14.401  0.0492 -0.0489  0.1251
42583W        W98824   0.545  10.679  23.297  0.4357 -0.0956 -0.0874
42584W        W98825  25.159  34.533  12.624 -0.1669 -0.0670 -0.1005
42585W        W98826  15.032  35.088   8.729  0.0452  0.0386 -0.1766
42586W        W98827   4.882  21.387   0.324  0.1376 -0.2839  0.1472
42587W        W98828  28.428  18.402  18.053  0.2762  0.3128 -0.4163
42588W        W98829  28.703   2.896  16.171  0.1868  0.1977  0.1203
42589W        W98830  34.682  19.722  14.404 -0.0874  0.1396  0.2316
42590W        W98831   0.421  17.522  23.363  0.0213 -0.2018  0.0397
42591W        W98832   1.150  20.123  11.112 -0.0319 -0.2227  0.1596
42592W        W98833  19.493  12.093  21.668  0.0642 -0.3286 -0.4679
42593W        W98834   3.665   3.523   1.609 -0.2202  0.2184  0.0715
42594W        W98835  28.592  14.161  20.410 -0.0053  0.5015 -0.3838
42595W        W98836  17.763   1.973   0.459  0.1221 -0.1815  0.0245
42596W        W98837  16.092   1.764   2.229 -0.1864  0.0852  0.0206
42597W        W98838  27.252  15.528  25.515 -0.0298 -0.3844 -0.0851
42598W        W98839  30.466  25.233  23.497 -0.0454 -0.0491  0.0803
42599W        W98840  10.749  19.915   5.638 -0.0736  0.0571 -0.2011
42600W        W98841   8.621  28.520   7.677 -0.1299 -0.0541  0.3051
42601W        W98842   0.191  10.364  17.433 -0.2583 -0.1797  0.0414
42602W        W98843  28.908   1.405  12.968  0.0506 -0.1994  0.1681
42603W        W98844  17.422   3.199   0.232  0.0458  0.0959 -0.1086
42604W        W98845   2.639   3.707   0.496 -0.1014 -0.0743  0.2881
42605W        W98846  35.066  20.408  14.825 -0.2039  0.3675  0.1594
42606W        W98847  20.814   9.722   4.608  0.1667  0.3184  0.0026
42607W        W98848  17.219  24.683  10.800 -0.1571 -0.0436  0.1304
42608W        W98849  19.412  13.938   1.370  0.0580  0.0911 -0.1318
42609W        W98850   7.328  32.704   9.323  0.2209 -0.2598 -0.0172
42610W        W98851  34.316   6.937  10.923  0.2792 -0.1193 -0.0987
42611W        W98852  20.411   4.457  16.767 -0.0820  0.3036  0.2329
42612W        W98853  33.913  21.228  10.883 -0.2727  0.3478 -0.3285
42613W        W98854  19.535  17.748  23.622 -0.1152 -0.2894 -0.3058
42614W        W98855  10.429  30.957  16.864 -0.2076 -0.0548  0.2918
42615W        W98856  21.222   6.030   4.281 -0.0104  0.1636  0.1849
42616W        W98857  28.296   2.014   4.756  0.2295  0.2313 -0.1090
42617W        W98858   2.135  34.006   5.407 -0.0062 -0.0661  0.0551
42618W        W98859   7.632  32.481  12.173 -0.0110 -0.1830 -0.1347
42619W        W98860  25.540  17.990   0.697 -0.0492  0.1355  0.0951
42620W        W98861  15.068   2.393   8.565 -0.0277 -0.0845  0.1896
42621W        W98862   0.679  13.440  22.309  0.1371  0.2002 -0.0850
42622W        W98863  34.730  22.774  23.501 -0.0840  0.0023 -0.2890
42623W        W98864  27.550   1.590   4.799 -0.0605 -0.0348  0.1063
42624W        W98865  17.943  15.594  21.704 -0.0824 -0.1575  0.1103
42625W        W98866  19.016  10.787  18.212 -0.1025 -0.1604 -0.1994
42626W        W98867  19.161  10.039  24.922  0.0576  0.0900  0.1173
42627W        W98868  30.530  24.880  12.950  0.3076 -0.0550 -0.0106
42628W        W98869   7.809  25.784   7.333 -0.0754  0.0191  0.3910
42629W        W98870  10.736  11.037  23.173  0.4483 -0.1982  0.1329
42630W        W98871  19.366  35.037  17.589  0.4255 -0.0283 -0.2495
42631W        W98872  21.165  13.672  23.973  0.2252 -0.4357  0.4917
42632W        W98873  18.837  24.797  23.410  0.2518  0.0533 -0.0407
42633W        W98874  27.865   8.063  12.717  0.1786 -0.0406 -0.0631
42634W        W98875  10.611  16.451   6.007  0.2181 -0.2288  0.1886
42635W        W98876  11.825  23.761   4.627 -0.2283  0.0065 -0.3192
42636W        W98877  15.379  17.019   3.357  0.3711  0.1355  0.1251
42637W        W98878  16.731  10.252  12.411 -0.2168  0.1350 -0.1808
42638W        W98879  33.208  20.377  18.743  0.0704  0.0701 -0.1031
42639W        W98880  11.168   8.393  24.199 -0.3004 -0.0130 -0.0104
42640W        W98881  16.301   2.640  17.278 -0.1019 -0.0691  0.0830
42641W        W98882   3.140  20.164  24.028 -0.2068 -0.2838 -0.1513
42642W        W98883  27.193   6.213   2.305  0.0175  0.0889  0.3013
42643W        W98884  19.118   6.873   9.270 -0.1830  0.0121 -0.0891
42644W        W98885   3.336  22.254   3.324  0.0175  0.0594 -0.0517
42645W        W98886  10.620  16.457   8.055 -0.0829  0.1649  0.0229
42646W        W98887  14.454  25.036  15.718 -0.0546 -0.1523  0.3492
42647W        W98888  20.150   5.515   2.363  0.0382 -0.3808  0.1163
42648W        W98889   2.157  10.956  20.703  0.2417 -0.3459 -0.7588
42649W        W98890  33.152  26.959  26.211  0.0424 -0.1432  0.0486
42650W        W98891   2.763  10.890  21.311 -0.2050 -0.4493  0.2004
42651W        W98892  15.648  32.048  23.115 -0.1136 -0.0816 -0.4177
42652W        W98893  29.172  10.346  13.822  0.1459 -0.2098  0.1718
42653W        W98894  32.219  30.458  26.157  0.1847  0.1084  0.0216
42654W        W98895  29.399  19.063  15.296 -0.3956 -0.0530  0.1825
42655W        W98896  34.070  29.416  19.145  0.0744 -0.0245 -0.0903
42656W        W98897  27.785   1.947  12.111 -0.0505 -0.5857 -0.1388
42657W        W98898   0.388  10.669   3.301  0.1528  0.0070  0.0720
42658W        W98899   1.370  25.545   5.094 -0.1334  0.1483  0.0604
42659W        W98900  24.448  32.178   5.289  0.0495  0.4890  0.1862
42660W        W98901  29.364   9.405   0.042  0.0036 -0.1438 -0.3379
42661W        W98902   7.863   0.243   3.817 -0.0619 -0.1633 -0.1551
42662W        W98903  19.145  21.834  24.664 -0.5417  0.0582  0.1573
42663W        W98904  21.426  13.747   1.675  0.0223 -0.1241 -0.3390
42664W        W98905   2.655   1.205  25.841  0.2244 -0.0089  0.2729
42665W        W98906   8.542   1.830   3.857  0.5171 -0.0201  0.2501
42666W        W98907   7.499  34.063  24.522 -0.0296  0.0338 -0.2543
42667W        W98908   8.589   1.889  10.264  0.1523  0.1229  0.1063
42668W        W98909  21.764   9.215  20.509  0.1216 -0.1780  0.0024
42669W        W98910  13.977   9.499  24.993  0.2888  0.0450  0.4358
42670W        W98911  23.749  21.292  24.632  0.1282 -0.0902 -0.0469
42671W        W98912  17.536  26.877   9.540 -0.2319 -0.0026  0.0106
42672W        W98913  30.840  19.286   7.938  0.0030 -0.0397  0.0310
42673W        W98914   5.447  18.334  22.808 -0.3872  0.1483  0.0387
42674W        W98915  28.110  30.289   0.067 -0.2411 -0.0068  0.0428
42675W        W98916  26.093   2.162  16.823  0.0537  0.2014  0.3474
42676W        W98917  14.458  27.008   6.099 -0.0698 -0.0252  0.0284
42677W        W98918  32.193  13.968   0.565  0.0001  0.0746  0.1123
42678W        W98919  25.580   2.104  11.384  0.1043  0.1183 -0.2771
42679W        W98920   6.293  14.179   8.006 -0.1716  0.0871 -0.2049
42680W        W98921  12.588  20.978   1.248  0.3404  0.2417 -0.3014
42681W        W98922   0.876  13.928   2.194 -0.4094 -0.0319 -0.2021
42682W        W98923  23.493  33.083   4.756  0.0645  0.0987  0.0733
42683W        W98924   4.043  10.139  16.529 -0.0383 -0.0488 -0.2919
42684W        W98925  27.909   3.165   5.127  0.4084  0.0077 -0.2820
42685W        W98926   5.037  34.486  22.918  0.1873  0.0702 -0.2581
42686W        W98927  15.913  12.720   0.841  0.1260  0.3019 -0.0520
42687W        W98928  28.359  21.849  10.499 -0.3303 -0.1970  0.3233
42688W        W98929  11.970  12.037   3.397  0.1280  0.0958  0.1611
42689W        W98930  16.705  17.156   5.739  0.2048 -0.0012 -0.3707
42690W        W98931   9.551  33.511  22.860 -0.2444  0.0236 -0.0559
42691W        W98932  20.324  28.544   0.351  0.2215 -0.0255  0.0746
42692W        W98933  24.300  12.400  21.032  0.1264  0.3833  0.0922
42693W        W98934  20.260  11.378  20.813 -0.1589  0.0312 -0.2243
42694W        W98935  13.432  15.869   8.555 -0.0513  0.1488  0.1492
42695W        W98936  14.602  17.111   0.132 -0.1528 -0.2057  0.0153
42696W        W98937   0.046  32.028   1.013  0.4096  0.0120 -0.2940
42697W        W98938   9.594  28.673   2.489 -0.1324  0.1840  0.6147
42698W        W98939  26.497  25.099  13.159  0.2021  0.2274 -0.0264
42699W        W98940  31.947  25.372  11.795 -0.2120 -0.2627  0.2742
42700W        W98941  11.937   2.265   3.686 -0.1426  0.0104  0.1596
42701W        W98942  15.613  28.105   4.130  0.0849 -0.2534  0.1871
42702W        W98943   5.973   7.496   5.310  0.3654  0.0683  0.1348
42703W        W98944  15.437  10.501  12.359  0.1299 -0.0616 -0.1439
42704W        W98945  17.579  34.322   3.656 -0.4442 -0.1058  0.3168
42705W        W98946  12.057  34.690   4.254 -0.0619 -0.1632 -0.0870
42706W        W98947  15.571   8.177  23.905 -0.0711  0.1259  0.0189
42707W        W98948   4.132   2.995  22.300  0.0355 -0.2625 -0.4671
42708W        W98949  30.378  15.435  22.584 -0.1846  0.1105  0.0088
42709W        W98950   1.766   4.056  21.364  0.0237  0.2701  0.2243
42710W        W98951  33.805  15.733   9.818  0.0290  0.3163  0.0188
42711W        W98952  18.528  22.699  11.830  0.0725 -0.1395  0.1527
42712W        W98953   2.783   7.269   4.050 -0.0857  0.1162  0.1478
42713W        W98954   3.867   7.427  20.430 -0.1662 -0.0875  0.1946
42714W        W98955  26.478   9.660  14.351 -0.0942 -0.1497 -0.1372
42715W        W98956  31.479  22.211  13.514  0.5606 -0.0707  0.1601
42716W        W98957  13.726   5.186  18.075  0.2919  0.1833 -0.0259
42717W        W98958  12.453  25.843  16.809 -0.3122 -0.0210  0.0625
42718W        W98959  15.113  24.411   0.407  0.3162  0.0981 -0.3535
42719W        W98960  16.687  26.721   0.968 -0.1278 -0.1608 -0.3669
42720W        W98961  28.663   0.379   2.494 -0.3951 -0.0327  0.0097
42721W        W98962   1.425  28.087   1.157  0.1456  0.1018  0.0285
42722W        W98963  30.752  20.218  16.044 -0.2476  0.2000 -0.0452
42723W        W98964  11.894  11.291  19.586 -0.0265  0.0108  0.0778
42724W        W98965  20.882  32.206  18.911  0.0390 -0.3879 -0.2120
42725W        W98966  34.101  27.639  16.200  0.1359  0.2086  0.1522
42726W        W98967   7.214  12.702  10.375 -0.0243 -0.2503  0.3115
42727W        W98968  12.366  13.911  12.406  0.0474 -0.1549  0.1398
42728W        W98969   8.220   2.847  13.526 -0.0711 -0.2350 -0.0634
42729W        W98970  21.238   1.139  24.747 -0.1492  0.1110 -0.0344
42730W        W98971  31.753  15.187  12.915  0.0346 -0.3638 -0.4551
42731W        W98972  13.152  25.712   5.130 -0.2762 -0.0319  0.2723
42732W        W98973   0.327   4.352   5.793  0.1511  0.0027  0.2845
42733W        W98974  10.688   8.112   1.313  0.0061  0.0951  0.0597
42734W        W98975  12.470   2.828   2.507 -0.0089  0.0042 -0.1033
42735W        W98976   2.727   8.380   6.071  0.0966 -0.1816  0.0956
42736W        W98977  18.480   2.949   5.381  0.0538 -0.0689  0.1627
42737W        W98978  25.915  24.458  16.254 -0.1944 -0.4144 -0.2783
42738W        W98979  31.113  27.226  13.366 -0.2389  0.1307  0.0439
42739W        W98980  29.258  26.172   1.038  0.1881  0.0249 -0.0471
42740W        W98981  11.553   0.353   2.423  0.1400 -0.4426 -0.0083
42741W        W98982  16.182   9.041  13.122  0.0101  0.3070  0.0981
42742W        W98983  34.969  13.881  15.614  0.0450  0.1870  0.1440
42743W        W98984   5.593   6.653  19.981 -0.2783  0.1349  0.1939
42744W        W98985  20.080  30.832  22.070  0.2433 -0.0427 -0.0085
42745W        W98986  31.169  30.032  12.899 -0.1389 -0.0771 -0.0861
42746W        W98987   6.861   3.699  20.530 -0.1199  0.2562  0.0376
42747W        W98988  13.343   9.355  10.909 -0.2099  0.3658  0.0954
42748W        W98989  17.432  22.146  13.668  0.2550 -0.3313  0.0398
42749W        W98990  25.901   1.036  19.554 -0.2116 -0.3633 -0.0269
42750W        W98991  14.044   0.231   9.736  0.4278  0.0119 -0.1040
42751W        W98992  33.716   3.266   3.456 -0.0493 -0.3204 -0.0511
42752W        W98993  10.957  17.153   7.453 -0.0938 -0.2834 -0.0108
42753W        W98994  14.834  12.573  25.785  0.0091 -0.0938 -0.2379
42754W        W98995  30.398  33.235  24.944  0.3157 -0.0395  0.1453
42755W        W98996  14.257  29.557   2.423  0.1429 -0.0193 -0.0582
42756W        W98997   4.558  34.939   7.955 -0.3006  0.1490  0.1213
42757W        W98998  18.169   3.420   9.937  0.0025  0.1018 -0.2419
42758W        W98999  24.447  27.168  14.327 -0.1876  0.2347 -0.0558
42759W        W99000  18.905   2.160   6.487  0.2596 -0.1472 -0.3783
42760W        W99001   0.118  28.377  21.676  0.2697 -0.1333 -0.0062
42761W        W99002  33.453  34.687  13.938  0.0300 -0.0491 -0.1026
42762W        W99003  33.699   3.624  21.932  0.1085  0.1325  0.1472
42763W        W99004  30.435  21.039  15.772  0.3351 -0.1292  0.0277
42764W        W99005  21.488   5.587   1.039  0.2708 -0.2809  0.1841
42765W        W99006  21.301  26.194  20.045  0.2254  0.1519  0.4217
42766W        W99007  11.195  20.450  16.711  0.3951 -0.1432  0.0824
42767W        W99008  12.219  30.014  22.873 -0.0640  0.0906 -0.4202
42768W        W99009   8.309  21.924   5.168  0.3304 -0.2555  0.1000
42769W        W99010  19.420   4.034  23.368 -0.0458 -0.1807 -0.3427
42770W        W99011  29.313  33.856   2.599 -0.0234  0.2988 -0.1711
42771W        W99012  33.519   0.257   1.806  0.2790 -0.0766 -0.0014
42772W        W99013   3.108   8.765   2.744 -0.1232 -0.0220  0.0524
42773W        W99014   3.985  17.211  24.014  0.1764 -0.1078  0.0432
42774W        W99015  20.593  24.260   4.905  0.1939  0.0245 -0.0561
42775W        W99016  25.901  22.688  24.951  0.0264  0.1788  0.4242
42776W        W99017  29.481  29.951  11.495 -0.1179  0.2738 -0.1657
42777W        W99018  13.700  25.023  11.246 -0.0391  0.1647 -0.0800
42778W        W99019  22.672  18.220  19.936  0.0558  0.1033 -0.0081
42779W        W99020  26.958  30.345  25.609  0.0888  0.1233  0.0729
42780W        W99021  26.637  18.474  16.547 -0.0228 -0.0250 -0.1572
42781W        W99022  30.217  11.451  10.315 -0.0076  0.0679 -0.2107
42782W        W99023   4.033  22.080   0.317  0.1654  0.0015 -0.1742
42783W        W99024  18.451  22.847   6.994 -0.1432 -0.3411 -0.2466
42784W        W99025  19.428  14.031  16.407 -0.1863  0.1521  0.1159
42785W        W99026  11.010  14.243   4.086 -0.1089 -0.3756  0.0608
42786W        W99027   1.647  20.971  16.336  0.0392  0.0901 -0.2423
42787W        W99028   5.725   6.128   6.264 -0.0107  0.0515  0.2294
42788W        W99029  20.079   9.563   6.845  0.0685  0.2446  0.0174
42789W        W99030  21.401  30.005  20.645 -0.0336 -0.0520  0.0521
42790W        W99031  15.953   5.782  24.436  0.0732  0.2826  0.1112
42791W        W99032  31.649  13.759   8.203 -0.1597  0.0586 -0.1282
42792W        W99033  27.176  34.676  15.669  0.5349  0.1591 -0.0540
42793W        W99034  35.366   4.885  25.129  0.1512 -0.4085 -0.0753
42794W        W99035   2.445  25.752  26.011 -0.2083  0.0151  0.1260
42795W        W99036  25.972  32.078  16.196  0.0596  0.4269 -0.0321
42796W        W99037  33.768  26.807  11.321 -0.0866  0.1779 -0.1936
42797W        W99038  18.197   8.838  20.341  0.0557 -0.3372 -0.2476
42798W        W99039   7.310  17.913  25.718 -0.0522  0.4265  0.0377
42799W        W99040  23.817   2.606   6.695 -0.3977 -0.1659 -0.0753
42800W        W99041  28.740  14.612  13.304 -0.1486  0.0325 -0.1469
42801W        W99042  17.474  35.200   0.456  0.1883 -0.0877  0.0772
42802W        W99043  26.042  23.552  23.498 -0.1537  0.0998  0.0019
42803W        W99044  34.945  32.729  19.291 -0.0665 -0.0786  0.0243
42804W        W99045   0.631   0.228  25.091  0.0252 -0.2447  0.4126
42805W        W99046   5.961  15.007   8.646 -0.2786 -0.0398  0.0980
42806W        W99047  17.776  30.933   7.030 -0.0215  0.2676  0.1194
42807W        W99048  22.686  29.039   3.364  0.1641  0.0588  0.0031
42808W        W99049  12.777   1.249  23.499 -0.0745  0.0916 -0.0710
42809W        W99050  16.638  22.883   5.876  0.2349 -0.0477  0.0721
42810W        W99051  26.181  34.817   1.595  0.1465 -0.0916  0.0330
42811W        W99052  19.488  16.675  21.587 -0.1340 -0.1806 -0.1820
42812W        W99053  10.475   6.016   4.327  0.2782 -0.1474 -0.0348
42813W        W99054  34.006  18.776  19.004  0.0870 -0.2308 -0.1092
42814W        W99055  11.841  14.875  12.375  0.1190 -0.1868 -0.2378
42815W        W99056  13.161   7.976  14.750 -0.0363 -0.1439  0.3865
42816W        W99057   1.668  29.967   1.207 -0.1960  0.1489 -0.3387
42817W        W99058  28.692   0.777  17.263 -0.2516 -0.3832  0.0667
42818W        W99059  15.255  20.914  24.515  0.1224  0.0238  0.0464
42819W        W99060  33.633  17.957  20.323 -0.2040  0.1326  0.0189
42820W        W99061  12.663   5.563   6.618  0.2842 -0.1160 -0.0099
42821W        W99062  11.806  31.338  25.476 -0.2243 -0.0753 -0.3335
42822W        W99063   5.746   1.175   9.178 -0.1895 -0.2773 -0.0422
42823W        W99064  20.899  32.672   6.888  0.1871 -0.3068  0.0003
42824W        W99065   4.113  21.726   4.765  0.1231  0.1170 -0.0593
42825W        W99066  19.062  28.963   7.641  0.0603  0.1043 -0.0881
42826W        W99067   3.540  13.927  19.230 -0.2504  0.2989  0.2773
42827W        W99068  19.961  11.757  16.382  0.0945  0.0547 -0.1864
42828W        W99069  10.506  15.125  13.398 -0.0612 -0.0417  0.1260
42829W        W99070  34.609  11.155  12.486  0.0278  0.1005  0.0725
42830W        W99071  17.702  14.468   9.574 -0.0853  0.1456 -0.0845
42831W        W99072  31.715   6.663   3.450  0.0583 -0.1056 -0.3726
42832W        W99073  20.672   1.610   6.496  0.2076  0.3086  0.4097
42833W        W99074   7.987  33.315  22.875 -0.2199  0.1469  0.0306
42834W        W99075   9.235  13.736   6.414  0.1448 -0.1061 -0.1527
42835W        W99076  29.452   5.994  13.111 -0.1904 -0.3091  0.0986
42836W        W99077  10.738  35.223   9.028 -0.4777  0.1613  0.1989
42837W        W99078  19.645  11.867   3.752 -0.2573  0.0189 -0.1596
42838W        W99079  15.726   2.823  17.841  0.1499 -0.0086 -0.2347
42839W        W99080  10.007  11.174  12.718 -0.1897  0.3644 -0.3045
42840W        W99081   8.191  10.967  23.246 -0.3625  0.0067 -0.3955
42841W        W99082   6.160  27.044  20.947  0.3158 -0.0938 -0.1036
42842W        W99083   2.220  11.564  15.218 -0.1425 -0.0315  0.0587
42843W        W99084  33.238  32.111  25.454  0.1725  0.1186 -0.0332
42844W        W99085   8.492  12.346  10.029  0.0245 -0.4855  0.0157
42845W        W99086  12.518  19.797  22.988  0.1665  0.2168  0.1663
42846W        W99087  29.415  34.876  18.095 -0.1027 -0.2664  0.0869
42847W        W99088  34.000  23.388  11.741 -0.2012 -0.0052  0.0985
42848W        W99089  19.511  18.245   3.151  0.1508 -0.1127  0.1841
42849W        W99090   3.273   8.866  25.178  0.4314  0.0859 -0.0389
42850W        W99091  11.636   8.823   0.633 -0.2055  0.2311  0.0493
42851W        W99092  30.260  17.009  13.040  0.1144  0.2197 -0.2224
42852W        W99093   6.219  11.500   3.843 -0.3169  0.2588  0.0828
42853W        W99094  24.869   0.451   5.990  0.1221 -0.0618 -0.0984
42854W        W99095   6.765  12.473   9.865  0.2904  0.3859  0.2283
42855W        W99096  28.777  21.063  22.317 -0.1574  0.2170 -0.1484
42856W        W99097   3.846  11.971  25.931 -0.0236 -0.1730 -0.1075
42857W        W99098  27.105  12.925  24.012  0.0659 -0.1575  0.0192
42858W        W99099  29.791  19.146   7.694 -0.2288  0.1715 -0.0606
42859W        W99100  15.131  12.254  12.293  0.2641 -0.3154 -0.1077
42860W        W99101  35.271   5.753  17.579 -0.0782  0.1436 -0.1496
42861W        W99102  27.596  30.788  10.447  0.4675 -0.0878  0.0164
42862W        W99103  17.657  22.757   5.409 -0.2220  0.5000  0.1360
42863W        W99104   5.948  15.972  23.477  0.1529 -0.0007  0.6924
42864W        W99105  28.452  17.960   8.040 -0.0893  0.1158 -0.3085
42865W        W99106  26.139  26.697   0.599 -0.2431  0.0639 -0.2484
42866W        W99107   3.581  19.446   1.208  0.0481 -0.1889 -0.1598
42867W        W99108   6.733   8.469  23.465  0.1480  0.0388 -0.0344
42868W        W99109   5.207  30.015   6.922 -0.4517  0.0281  0.0871
42869W        W99110  24.828  26.352  10.433  0.1104  0.3486 -0.1612
42870W        W99111   8.970  34.803   1.405 -0.1110  0.0698  0.0109
42871W        W99112  20.717  15.303  26.108 -0.2499 -0.2907 -0.1791
42872W        W99113   7.231  12.263  10.079 -0.0459  0.2070  0.1268
42873W        W99114  16.442   2.847   6.001 -0.0821 -0.2325 -0.1211
42874W        W99115  25.514  32.336  25.777  0.2084 -0.1256 -0.5076
42875W        W99116  28.708  25.930  17.137 -0.0068  0.1572 -0.3587
42876W        W99117  33.337  32.566   3.429 -0.0083 -0.1010 -0.3421
42877W        W99118  30.308  16.717   9.354  0.0563  0.0814  0.0905
42878W        W99119   7.438  23.630   1.352  0.1960 -0.2517 -0.0505
42879W        W99120  22.651  17.619  14.553 -0.0162  0.0363 -0.1221
42880W        W99121  29.896  10.248  13.830  0.1331  0.3909  0.1752
42881W        W99122  33.917  32.319   3.954  0.0786  0.2209 -0.1123
42882W        W99123  13.551  27.768  23.709 -0.4032 -0.2441  0.4913
42883W        W99124  13.111  29.266  23.473  0.1101 -0.1309  0.0211
42884W        W99125  14.060  10.668   8.339 -0.1648 -0.1296  0.1669
42885W        W99126   2.349   3.756   4.829  0.1235 -0.2202  0.1303
42886W        W99127   1.799   2.966  22.802 -0.0437 -0.3974 -0.2821
42887W        W99128  25.415  31.105  21.258  0.0877 -0.1338  0.2576
42888W        W99129  28.738  26.113  24.469  0.2579  0.1716 -0.0138
42889W        W99130  14.681  33.377  19.769 -0.0848  0.0568 -0.1265
42890W        W99131  32.869  34.675   6.360 -0.0400  0.1651 -0.0386
42891W        W99132  11.068  21.840   2.696 -0.0610  0.1008  0.2173
42892W        W99133   5.412  30.618   6.511  0.0556  0.2144  0.2586
42893W        W99134   0.079  25.860   0.370 -0.1088  0.0055 -0.0255
42894W        W99135   9.411  23.550  23.298  0.2577 -0.4360  0.0037
42895W        W99136  27.338  17.622  24.178 -0.2185  0.1320  0.0474
42896W        W99137   3.918  14.524  25.756  0.1069  0.0319  0.1571
42897W        W99138  18.477  25.874  19.526 -0.0252 -0.1267 -0.0696
42898W        W99139  20.745  18.609  18.926 -0.0700 -0.0717  0.0529
42899W        W99140   3.371   0.195   8.182  0.2714  0.1639  0.2474
42900W        W99141  35.364  22.501   0.024  0.2085  0.0001 -0.1529
42901W        W99142  11.749   8.109  20.859 -0.0895 -0.1833  0.2369
42902W        W99143   1.051   6.923  24.994 -0.2089  0.0215  0.1129
42903W        W99144  19.600  13.486  18.406 -0.0579  0.4455  0.1218
42904W        W99145   6.951  26.249  11.550  0.0782  0.0182  0.3805
42905W        W99146   3.791  29.948  20.259 -0.2435 -0.0387 -0.2359
42906W        W99147  23.927   7.782   3.459 -0.2123  0.1559 -0.1651
42907W        W99148  12.598  21.406  15.395  0.1019 -0.0908 -0.0765
42908W        W99149  34.739  30.948   2.868  0.0208  0.0958 -0.0508
42909W        W99150  18.067   1.612   4.214  0.0130 -0.2683  0.2318
42910W        W99151  16.208  13.065  24.145 -0.5509  0.0450 -0.1049
42911W        W99152  29.016  33.183  25.464  0.0700  0.0586 -0.0780
42912W        W99153  33.147  21.358  14.056  0.0566  0.0771  0.2453
42913W        W99154  28.942  33.400   3.843  0.1877  0.0277 -0.0530
42914W        W99155  19.190   8.055  18.281 -0.0556 -0.0267 -0.1453
42915W        W99156  31.183  15.221  20.112 -0.3847  0.1105  0.2565
42916W        W99157   4.994  14.646  24.949 -0.1908  0.1903 -0.1859
42917W        W99158   5.837   7.528  23.941 -0.1732 -0.0564  0.0061
42918W        W99159   0.664  20.607   8.884 -0.0980 -0.3282 -0.0770
42919W        W99160   8.760   5.838   6.062 -0.0104  0.2030 -0.2703
42920W        W99161  13.304  10.475  21.250 -0.0105 -0.0984 -0.0328
42921W        W99162   9.296  30.932   4.258  0.0369  0.0304 -0.1396
42922W        W99163  34.923  33.194   1.740 -0.0825 -0.0605 -0.1254
42923W        W99164  25.860  33.251  22.086  0.1393  0.1523 -0.1369
42924W        W99165   9.884   8.862   5.402 -0.0999 -0.0249 -0.0014
42925W        W99166  32.315   1.206   5.113  0.0632 -0.1381 -0.1556
42926W        W99167  34.317  35.284   1.623 -0.0969  0.1850 -0.0115
42927W        W99168  18.920  11.292  25.830  0.0289 -0.1985 -0.0010
42928W        W99169  10.983  30.569  13.946 -0.0312 -0.0306  0.0792
42929W        W99170   9.384  21.229   1.175 -0.0282 -0.0612  0.1191
42930W        W99171   7.692  11.271   4.610 -0.2548 -0.1909 -0.1908
42931W        W99172   4.459  20.850   2.694 -0.0131  0.1058  0.1121
42932W        W99173  13.969  23.606   1.800  0.0212  0.5183  0.0773
42933W        W99174  20.797   3.172  19.125  0.1425  0.2566 -0.2554
42934W        W99175  33.507  12.084  18.397  0.2284 -0.1613 -0.0613
42935W        W99176  18.588   5.322   3.341 -0.0738 -0.0690 -0.0463
42936W        W99177  21.063  33.954  14.940  0.0150  0.1391  0.0149
42937W        W99178  32.617  27.173   3.905 -0.1459 -0.0339 -0.1962
42938W        W99179  10.329  10.174  12.380 -0.1592  0.1219  0.2047
42939W        W99180  35.289  34.505  23.750 -0.1293 -0.0296  0.0989
42940W        W99181   0.574   2.745   2.641 -0.0372 -0.1286 -0.5256
42941W        W99182   4.931   3.232   2.344  0.1498 -0.1302 -0.1238
42942W        W99183   7.115  20.265  25.624 -0.0672  0.0806  0.1298
42943W        W99184  26.291  29.915   2.993 -0.0546  0.2324 -0.0271
42944W        W99185   5.594  28.343  13.946 -0.0164 -0.0904  0.1696
42945W        W99186  35.164  14.901  24.940  0.0322 -0.0093  0.0995
42946W        W99187   2.537   9.929  22.603 -0.2566 -0.0078  0.0930
42947W        W99188  32.395  19.160  18.452  0.0137 -0.0932  0.0687
42948W        W99189  11.027  22.345  12.276 -0.0365  0.0867 -0.5143
42949W        W99190  19.156  30.904  19.622 -0.1058  0.0907  0.3301
42950W        W99191   4.999   9.353   2.642 -0.0863 -0.1727  0.1171
42951W        W99192  33.817  22.785  20.358  0.1879  0.0416 -0.1820
42952W        W99193  22.492  17.422  19.988 -0.1725  0.0816  0.0754
42953W        W99194  19.402  22.855  22.664  0.2286  0.0573 -0.0267
42954W        W99195  28.672  32.915  22.328  0.1749 -0.3470 -0.2069
42955W        W99196  22.061  22.311  22.739 -0.0781 -0.0716  0.0240
42956W        W99197   9.676  24.904  24.746 -0.1436 -0.0846  0.1937
42957W        W99198  21.457  20.309  19.912 -0.3220 -0.0454  0.4724
42958W        W99199  13.437  25.938   2.262 -0.0965  0.1437  0.3879
42959W        W99200   7.145   5.797   8.640 -0.0113  0.0715  0.0751
42960W        W99201  27.336   4.893  19.184 -0.1497  0.4353  0.1447
42961W        W99202  23.617  22.016  17.926  0.0888  0.2376 -0.0677
42962W        W99203   2.166  14.327  18.724 -0.0095 -0.0491 -0.2064
42963W        W99204  15.313  30.530  20.668  0.0228  0.1425  0.1056
42964W        W99205  15.311  10.184   2.790  0.1410  0.1753  0.0043
42965W        W99206  28.562  17.590  20.140  0.3249  0.0484  0.1772
42966W        W99207  20.915  11.641   1.695  0.3506 -0.5801  0.3182
42967W        W99208  24.252  26.690   1.198 -0.0483 -0.1495  0.0175
42968W        W99209   3.199  25.255   5.656 -0.1847  0.3579  0.4199
42969W        W99210   7.665  28.666   3.410 -0.2847  0.1249 -0.2736
42970W        W99211  21.939   3.822  20.968 -0.2025  0.0617  0.1151
42971W        W99212   3.837  21.418   2.202 -0.0658 -0.0948  0.0675
42972W        W99213  16.303   3.947   1.548 -0.0974  0.0175 -0.1795
42973W        W99214  27.667  34.034   5.237 -0.6058  0.0339  0.2561
42974W        W99215   5.752  13.554   2.154 -0.2297  0.2305  0.0010
42975W        W99216   8.635   7.019   0.679 -0.0638  0.1463 -0.0358
42976W        W99217  32.326  30.835   2.903  0.0184 -0.0828 -0.1639
42977W        W99218  26.989  23.284  23.850  0.1804 -0.1589 -0.1037
42978W        W99219  25.394  28.137   3.000 -0.0022  0.1477  0.1102
42979W        W99220  21.822  31.712   4.031 -0.0997 -0.1054  0.1555
42980W        W99221  18.282  24.462   1.952  0.2230  0.1054  0.1198
42981W        W99222  17.634   1.924  16.065  0.2834  0.0860  0.1674
42982W        W99223   5.565   3.115   3.578  0.1462 -0.5104 -0.0799
42983W        W99224  30.136   1.234  24.626  0.1460 -0.0814 -0.1516
42984W        W99225   7.283  29.584  21.389 -0.0941 -0.1342  0.1748
42985W        W99226  22.612  25.177   2.127  0.1030  0.0144  0.0248
42986W        W99227  13.252   3.804   1.175 -0.0765  0.0326  0.2958
42987W        W99228  28.703  20.897  17.179 -0.0347  0.0443  0.0123
42988W        W99229  32.158  28.957  16.038  0.0841  0.1066 -0.2519
42989W        W99230   4.678  11.408  22.041 -0.0231  0.0481  0.0226
42990W        W99231   3.996  18.199  16.428  0.0612  0.2669  0.1319
42991W        W99232  22.708  12.515  19.973  0.1127 -0.2220  0.2387
42992W        W99233   9.268  18.880   1.821  0.2148 -0.0548  0.3453
42993W        W99234   9.809  15.124  19.879  0.0810 -0.1201 -0.3176
42994W        W99235  16.620  20.617   6.714  0.2211  0.1958 -0.3091
42995W        W99236   4.821  32.232  12.511 -0.1015 -0.1656 -0.0449
42996W        W99237  17.937  26.782  24.609  0.4440  0.0778 -0.3274
42997W        W99238  14.650  28.858  12.364  0.2410  0.3249  0.0195
42998W        W99239   4.591   5.604  23.986 -0.1725 -0.2053  0.4132
42999W        W99240  13.589  10.178   7.981 -0.0737  0.1193  0.0751
43000W        W99241   5.846   9.072  25.539  0.0430 -0.0072  0.0052
43001W        W99242  23.614  33.400   5.657 -0.1351 -0.0803  0.0397
43002W        W99243   2.696  32.282  11.410 -0.0525 -0.0298 -0.1653
43003W        W99244  27.075   7.656  26.137  0.2135  0.1946  0.1046
43004W        W99245  33.361  12.668  23.871 -0.1372 -0.3072  0.0728
43005W        W99246   2.879  29.747  12.066 -0.1148  0.1323 -0.4171
43006W        W99247   5.609   9.974  23.096  0.0053 -0.3033 -0.1395
43007W        W99248  33.657  22.399  19.611 -0.2896  0.0213  0.0657
43008W        W99249  22.409   4.282  22.520 -0.0089 -0.1259  0.1177
43009W        W99250  15.332   5.542  25.984 -0.0653 -0.0457 -0.0988
43010W        W99251  33.265  18.454  20.930  0.1918  0.0970 -0.0204
43011W        W99252  20.411  13.173  24.226 -0.0637  0.2392  0.0936
43012W        W99253   9.348  15.020  10.349 -0.1014  0.2263 -0.0322
43013W        W99254  25.697  20.888  24.310  0.4842 -0.0011  0.0739
43014W        W99255  31.923   6.131  17.168 -0.1781 -0.4021 -0.4912
43015W        W99256  20.945   4.809   9.847 -0.0231 -0.3593  0.0596
43016W        W99257  11.818   5.728   7.833  0.0185 -0.0910  0.1338
43017W        W99258  19.395   1.249   5.685 -0.1427 -0.0911  0.1874
43018W        W99259   5.832   8.083   7.672 -0.2483  0.2269  0.1183
43019W        W99260   7.935  29.493  12.812 -0.1051  0.5012 -0.0065
43020W        W99261  31.982   9.906  25.027 -0.4028  0.0026  0.0560
43021W        W99262  20.368   3.642   4.262 -0.0476  0.2838  0.1354
43022W        W99263  27.358  15.106   9.011  0.2297 -0.0883 -0.0357
43023W        W99264  31.188   5.601  14.732  0.2934 -0.1547 -0.1584
43024W        W99265   4.532  29.873   8.766  0.2528 -0.0497  0.0154
43025W        W99266  33.209  24.650   9.264  0.1682  0.3731  0.5050
43026W        W99267  33.170  21.713  22.477 -0.1241  0.0914  0.0673
43027W        W99268  31.826   1.009  12.395  0.0250  0.1559  0.0462
43028W        W99269  13.091  20.726   6.797 -0.0026 -0.1262 -0.0995
43029W        W99270  12.358  10.861   8.732  0.0107  0.1618  0.0502
43030W        W99271  23.589  23.314  22.817  0.0391  0.0540 -0.2109
43031W        W99272  22.125   5.660   4.292 -0.4047  0.1817 -0.2533
43032W        W99273  26.024  12.725   1.123  0.0036  0.1026  0.0197
43033W        W99274  14.176  28.494   1.879 -0.0566 -0.0770 -0.0225
43034W        W99275   5.990  12.605   0.382  0.1158  0.3651  0.3355
43035W        W99276   5.824   6.654   7.168 -0.0046 -0.2864  0.1652
43036W        W99277   9.033   4.114  12.164 -0.3153  0.1040  0.0115
43037W        W99278  18.921  24.074  11.067 -0.0542 -0.0404 -0.1506
43038W        W99279   4.551   0.243  21.615 -0.1195  0.3439 -0.1602
43039W        W99280  26.580   2.534  12.774  0.2662  0.3192  0.0560
43040W        W99281  18.974  32.551  21.806 -0.1800  0.2085 -0.1793
43041W        W99282   1.874  32.155  18.606 -0.1326  0.0295 -0.0183
43042W        W99283  10.155  29.532  12.570  0.2057  0.1429  0.0524
43043W        W99284   2.192  34.948  21.827  0.0586  0.3049  0.0058
43044W        W99285  18.766  32.882  16.109  0.0285 -0.1045 -0.1304
43045W        W99286   2.604  34.366  18.476 -0.1225 -0.0793 -0.2515
43046W        W99287  24.913  10.747  17.210 -0.1692 -0.0398 -0.3230
43047W        W99288  32.580  19.397  23.123 -0.0527 -0.2280  0.1406
43048W        W99289  33.263  21.797  18.002 -0.2950  0.0643 -0.2629
43049W        W99290  12.546  30.054  23.701  0.0639  0.1909  0.0204
43050W        W99291   5.522  11.240   1.622  0.2514 -0.0495  0.0695
43051W        W99292  31.819  35.176  16.570 -0.0842 -0.3444 -0.0800
43052W        W99293  16.575  16.135   1.768  0.3202  0.0528 -0.0832
43053W        W99294  18.944  10.426   9.348  0.0082 -0.1869 -0.1231
43054W        W99295   3.912  10.442  25.482  0.4251  0.0982  0.0999
43055W        W99296   5.872  25.944  24.846 -0.1509  0.3647  0.0143
43056W        W99297  21.926  20.845   1.516  0.1503  0.2358 -0.1831
43057W        W99298   1.297   6.170  25.139 -0.1895 -0.2211  0.3450
43058W        W99299  17.021   4.895   5.978  0.1098  0.1440  0.0917
43059W        W99300  35.140  32.324  19.004  0.2521  0.1131  0.0835
43060W        W99301  20.486  24.203   3.392  0.2086  0.2465  0.0680
43061W        W99302   5.619  14.857  21.015 -0.1165  0.0706 -0.1047
43062W        W99303  11.016  23.559  17.337  0.0654 -0.3458  0.1846
43063W        W99304  29.046  27.743  26.034 -0.3683 -0.0681 -0.1048
43064W        W99305  24.253  22.217  21.291  0.1883 -0.2543  0.3505
43065W        W99306   7.124  33.390   0.311  0.1010 -0.0341 -0.1168
43066W        W99307  18.880   9.398  18.627  0.1134 -0.0572 -0.1906
43067W        W99308   4.352  31.526  20.307 -0.1664 -0.0701 -0.2034
43068W        W99309  27.826  17.895  17.398 -0.2723  0.2467  0.0570
43069W        W99310  13.672   0.706   5.446  0.0061  0.0713 -0.2053
43070W        W99311  34.919   0.776  14.561 -0.3750  0.1351 -0.2708
43071W        W99312  22.552  12.643   0.935 -0.0130 -0.1839  0.1404
43072W        W99313  19.466  11.868   7.617  0.0095  0.2457  0.2036
43073W        W99314  30.532  18.437   7.013 -0.2700 -0.1676  0.0767
43074W        W99315  24.595  18.470  16.742  0.0702  0.1623  0.1528
43075W        W99316  16.173   0.177   2.269 -0.0729  0.3120 -0.0397
43076W        W99317   1.221  29.824   1.167  0.1293  0.3985  0.3148
43077W        W99318   1.147  17.216   1.445  0.2474  0.1809  0.0668
43078W        W99319  24.857  27.574  12.793 -0.2496  0.1762 -0.2440
43079W        W99320   0.229   2.186   0.779 -0.2092  0.0892 -0.2397
43080W        W99321  23.397  25.461  20.131 -0.1948 -0.2370  0.2819
43081W        W99322  21.876   6.022  20.577  0.0753  0.7116  0.1560
43082W        W99323   9.787  28.560   9.821  0.0381  0.2241 -0.1608
43083W        W99324   9.472  22.645   8.509 -0.2326  0.1304  0.0348
43084W        W99325  28.506   1.728  17.552 -0.0110  0.0917  0.3979
43085W        W99326  16.470  26.931   0.583  0.5218  0.2282  0.0854
43086W        W99327   0.229  19.893  25.166  0.1660 -0.0019  0.2061
43087W        W99328   8.970   0.571   5.662  0.1583  0.0506  0.1277
43088W        W99329   2.102  16.229  24.630  0.2430 -0.2719 -0.1406
43089W        W99330  35.056  23.621  16.780  0.2001 -0.5071 -0.0465
43090W        W99331  14.586  23.999   0.568 -0.0208 -0.1155 -0.3415
43091W        W99332   3.232   4.019  19.375 -0.1159 -0.2498  0.1813
43092W        W99333  24.969   6.085   0.526  0.3193 -0.3196  0.1950
43093W        W99334  24.671  34.700  10.833 -0.1770 -0.0542  0.0425
43094W        W99335  18.992  34.243  23.744 -0.0337  0.1088  0.0148
43095W        W99336   5.400  12.850  25.758  0.2635  0.0523 -0.0801
43096W        W99337  24.410  30.639  22.948 -0.0614  0.1336  0.1585
43097W        W99338   5.518   0.974   2.613  0.3898  0.0524 -0.1882
43098W        W99339   2.295   5.742  17.043 -0.0068  0.1128  0.3168
43099W        W99340   0.858  18.248  18.165  0.3290  0.1277 -0.0954
43100W        W99341  17.604  22.275  22.858 -0.0956  0.0307 -0.2390
43101W        W99342   1.448  25.955  23.555 -0.0888  0.0068  0.0383
43102W        W99343   8.516  26.550  12.352  0.1322 -0.0296 -0.2866
43103W        W99344  24.951   9.602   1.735  0.0107 -0.2430  0.2382
43104W        W99345  28.269  32.872  23.372 -0.0056 -0.0635 -0.0112
43105W        W99346  16.016   5.222   6.788  0.1009  0.1410 -0.1684
43106W        W99347  25.224   6.255  26.032  0.0237  0.1288 -0.3640
43107W        W99348   7.001  28.002  13.812 -0.0007 -0.0121  0.0670
43108W        W99349  34.490  27.170  17.259  0.2728  0.3212 -0.3045
43109W        W99350   6.790  32.556  10.398  0.0183 -0.1200  0.0045
43110W        W99351  11.967  29.713   2.639  0.2076 -0.0510 -0.2579
43111W        W99352  21.890  13.060  24.806 -0.1478  0.2147 -0.1763
43112W        W99353  30.199   3.807  13.463 -0.0149  0.0379 -0.1751
43113W        W99354  34.407  24.652   0.904 -0.0479 -0.0677  0.2322
43114W        W99355   4.242  22.097  23.636 -0.0723  0.2631  0.3930
43115W        W99356  33.632   8.785  14.579  0.0359  0.0275 -0.2577
43116W        W99357  33.000   4.795  18.962  0.0588  0.3024 -0.0265
43117W        W99358   5.755  17.148  19.555 -0.0302  0.2546 -0.3563
43118W        W99359  31.961   6.712  22.241  0.0184 -0.0319 -0.1464
43119W        W99360  34.558  22.115   9.156 -0.0373  0.3137 -0.1059
43120W        W99361   2.773  33.200  18.339 -0.2777  0.2641 -0.0702
43121W        W99362  14.439  20.681   9.217 -0.0348  0.0468 -0.0277
43122W        W99363  33.553  22.431  15.995 -0.0425  0.0850  0.1820
43123W        W99364  19.729   7.143   3.451  0.0012 -0.1937 -0.0758
43124W        W99365  19.559   4.747   8.462 -0.2143  0.2488  0.1082
43125W        W99366  28.022  16.889  25.152  0.2181 -0.0314 -0.2103
43126W        W99367  17.326  29.695   1.030  0.0657  0.2445  0.0998
43127W        W99368  30.192  20.082  17.471  0.0701 -0.2908  0.1023
43128W        W99369   4.531  16.469   2.651  0.4018 -0.1125 -0.0201
43129W        W99370  27.396   8.417  11.460 -0.3171 -0.0360 -0.0822
43130W        W99371  22.342  34.150   2.816  0.0120  0.1566 -0.1369
43131W        W99372  10.696   7.846  22.136  0.0142 -0.0009 -0.1525
43132W        W99373   1.430   8.244  19.402 -0.3108 -0.2973 -0.0897
43133W        W99374  17.656  33.575  23.748  0.0460 -0.1508  0.2710
43134W        W99375   2.300   0.904  22.012  0.0259  0.0989  0.2957
43135W        W99376   4.673  31.602   7.722  0.3957 -0.4055  0.0501
43136W        W99377  19.767  31.419  17.067  0.3685 -0.1455 -0.0654
43137W        W99378  28.790  21.855  25.756  0.1846  0.0347 -0.0167
43138W        W99379  23.151  31.143  16.313  0.0482 -0.1270  0.2978
43139W        W99380   0.169   7.076  15.419 -0.0555  0.1490 -0.2177
43140W        W99381  25.590  13.049  11.818 -0.0260 -0.2422 -0.2580
43141W        W99382  15.080  15.222   9.586 -0.0464  0.3015  0.2342
43142W        W99383  14.838  23.609  24.140 -0.7251  0.0988  0.0371
43143W        W99384  21.954  32.747  23.843  0.1773 -0.0934  0.2839
43144W        W99385   2.127  27.135  24.785 -0.1194  0.2707  0.0564
43145W        W99386   4.081   0.643  19.393 -0.1425  0.1270  0.2811
43146W        W99387  29.719  29.526  18.426  0.1507  0.1795 -0.0814
43147W        W99388  14.981  16.884  20.375 -0.3711 -0.0574  0.2088
43148W        W99389   3.801   2.962   5.946  0.1924  0.2487  0.2270
43149W        W99390  17.161  27.205   9.584 -0.0291 -0.2924 -0.3925
43150W        W99391  31.891   0.428  25.896 -0.3655 -0.0578 -0.1200
43151W        W99392   8.348  18.966   8.995  0.2706 -0.4512 -0.1433
43152W        W99393   4.283  12.035  20.211  0.1302 -0.1928  0.1628
43153W        W99394  35.229   5.287  17.323  0.0042 -0.0304 -0.4427
43154W        W99395  30.370  13.902  16.229 -0.2179 -0.1549 -0.1913
43155W        W99396  14.339   8.098   0.163  0.1328  0.0015  0.2489
43156W        W99397  31.679  15.969  11.979 -0.2670 -0.0109  0.0130
43157W        W99398  27.700  15.604  13.827 -0.0730  0.1572  0.1444
43158W        W99399   7.143  24.287  13.558  0.4334  0.0276 -0.3391
43159W        W99400  27.660  23.691  16.529  0.0090  0.0577 -0.0507
43160W        W99401  16.274  14.550   8.939 -0.5291 -0.0609 -0.0776
43161W        W99402  29.083  10.182  17.905  0.0637 -0.0298  0.4056
43162W        W99403  26.093   5.747  14.975 -0.0105  0.1023 -0.1198
43163W        W99404   1.241  16.930  10.209  0.0907 -0.3400  0.3184
43164W        W99405  12.163   5.827   5.497  0.4388 -0.0415 -0.2172
43165W        W99406  27.979  24.714   1.286 -0.1153 -0.1584  0.0453
43166W        W99407  24.508  25.680  20.957 -0.2115  0.0441 -0.2552
43167W        W99408  11.023  19.460  22.237  0.0016 -0.1001  0.1326
43168W        W99409  25.282  16.339  15.312  0.3203 -0.2586  0.0037
43169W        W99410  14.246  19.382  10.517 -0.2313 -0.3856  0.2268
43170W        W99411  34.628  23.979   1.568  0.2483  0.0543 -0.3997
43171W        W99412  33.650  29.773  20.051 -0.3017  0.2743  0.1238
43172W        W99413  11.072   1.474   8.238 -0.2227 -0.0482 -0.1344
43173W        W99414  22.144  16.161  23.414  0.1403  0.2823  0.2456
43174W        W99415   1.327  23.361  16.865  0.2610  0.0238 -0.0408
43175W        W99416  18.395   7.294  10.291 -0.0616  0.0394 -0.2126
43176W        W99417   5.274  10.495   1.206 -0.0520 -0.0058 -0.0173
43177W        W99418  28.370  14.674   6.438  0.1192  0.3995 -0.2148
43178W        W99419  15.377  24.337  15.333  0.1545 -0.0990  0.1551
43179W        W99420  34.041  12.628  23.175 -0.0867 -0.1106 -0.0429
43180W        W99421   9.699   6.264  10.038 -0.0820 -0.1157  0.2422
43181W        W99422   5.788  22.422   5.003 -0.0275  0.1833  0.1437
43182W        W99423  28.965   2.282  14.393  0.0612 -0.0527 -0.1293
43183W        W99424  10.782  26.131  25.642 -0.5086 -0.0693 -0.1206
43184W        W99425   7.978   7.308  12.067 -0.0473 -0.1821  0.2003
43185W        W99426  31.446  25.464   1.737  0.0093 -0.0215  0.2223
43186W        W99427  15.307   3.015  10.670  0.1187  0.1559 -0.1361
43187W        W99428  27.391   2.065  17.071  0.2175  0.1226  0.1218
43188W        W99429   2.000  16.622  23.838  0.3109 -0.2745  0.1270
43189W        W99430  32.037  27.153  12.643 -0.0372 -0.1234 -0.2711
43190W        W99431  22.070  27.742  18.911  0.3562 -0.0453  0.0758
43191W        W99432   6.840   2.929  24.159 -0.1611 -0.1156 -0.0377
43192W        W99433  24.608  26.378  17.447 -0.1954 -0.4885  0.2635
43193W        W99434  20.663   9.609  22.642 -0.2150 -0.3172  0.0194
43194W        W99435   9.039  15.132   0.997 -0.1253  0.3812  0.2305
43195W        W99436  18.086  25.858   7.376 -0.0947  0.1599  0.1176
43196W        W99437  13.794  21.406   6.290  0.2539 -0.2386  0.0543
43197W        W99438   8.829   8.132   1.686 -0.1442 -0.1138 -0.0271
43198W        W99439  15.017   1.582   6.488  0.0738 -0.1906 -0.2064
43199W        W99440   2.961  34.426  25.993  0.2650 -0.2862 -0.1273
43200W        W99441  16.590  15.475  25.582  0.2719  0.1769 -0.0847
43201W        W99442   3.383  34.070  19.433  0.0603 -0.2448  0.1738
43202W        W99443  29.595  24.762  23.242  0.0106  0.0150 -0.1662
43203W        W99444  34.601   4.793  21.022 -0.1726 -0.0626 -0.0006
43204W        W99445   9.100  26.323  22.861  0.1323  0.0094 -0.1592
43205W        W99446  29.545  31.117  20.561  0.0335  0.1919 -0.2452
43206W        W99447  12.023  21.594  15.567 -0.0741  0.0668 -0.2258
43207W        W99448  29.549  11.465  12.780  0.1346 -0.3616  0.3073
43208W        W99449   6.534  10.700   5.116  0.0388  0.3621 -0.0890
43209W        W99450  32.064  28.798  23.552  0.0569  0.0353 -0.2341
43210W        W99451   8.332  24.924  10.418 -0.2225  0.1944 -0.1792
43211W        W99452  24.591  18.329  10.532  0.1087  0.4279 -0.1162
43212W        W99453  23.249  28.374  25.804 -0.1098 -0.2173  0.0260
43213W        W99454  21.889  21.449   0.776  0.4251  0.3094 -0.0312
43214W        W99455   0.683  24.361  18.262  0.2088 -0.4254 -0.0399
43215W        W99456  30.400  15.780   5.646  0.1586  0.3340  0.0337
43216W        W99457  15.290  27.966  25.555  0.0566  0.1045  0.0914
43217W        W99458  18.038   2.215   9.437  0.0710  0.1004  0.0837
43218W        W99459  23.754   3.569  17.825  0.2188  0.0438  0.0690
43219W        W99460  31.343  21.604  19.948 -0.0746  0.1497  0.0025
43220W        W99461   7.184  27.272   8.077 -0.1728  0.1033  0.4810
43221W        W99462  23.012  29.356  14.311  0.1188  0.1109 -0.1846
43222W        W99463  11.654   9.824   0.432 -0.1184  0.1904  0.3390
43223W        W99464  22.775  11.604   1.893  0.3741 -0.1852 -0.1900
43224W        W99465  23.427  33.250   2.886 -0.3807  0.1157  0.0200
43225W        W99466   8.992   9.054   1.976  0.0019 -0.3189  0.3154
43226W        W99467  11.204  12.596   9.289 -0.4537 -0.2356  0.0677
43227W        W99468  26.185   0.847  13.593 -0.1162  0.0362 -0.1949
43228W        W99469  32.703  11.612   9.059 -0.0428  0.1830 -0.1134
43229W        W99470  16.436  16.215   2.324  0.1041 -0.1147  0.2322
43230W        W99471  32.713  30.845  13.426  0.0825  0.0397  0.1135
43231W        W99472   9.433  17.838   5.988  0.0161  0.3395 -0.2972
43232W        W99473  27.914  19.416  20.385  0.0101 -0.2389  0.2652
43233W        W99474  10.622   1.343  25.438 -0.1083  0.3515  0.0478
43234W        W99475  21.835   0.553  16.031  0.2833  0.2266 -0.2042
43235W        W99476   2.757  14.083  17.292  0.2764 -0.0334 -0.2179
43236W        W99477  34.079  34.407  17.897 -0.2013  0.1547 -0.2734
43237W        W99478  18.694  12.937   5.285  0.2240  0.4108  0.1084
43238W        W99479   1.162  21.158  15.779 -0.0410  0.2452  0.0230
43239W        W99480  20.413  18.696  17.248 -0.2511  0.0134 -0.2486
43240W        W99481  15.591  15.013  13.941 -0.1560  0.0308 -0.0230
43241W        W99482  32.437   2.412  11.609 -0.1285  0.1868  0.0819
43242W        W99483   6.758  35.363   9.355 -0.0432 -0.0998 -0.0464
43243W        W99484  13.453   3.494   2.638 -0.1473 -0.1362  0.2326
43244W        W99485  21.955  33.334  19.930 -0.0409  0.2477 -0.0597
43245W        W99486  23.180  16.934  13.427 -0.3043 -0.0878  0.1410
43246W        W99487  25.742  34.526  18.277  0.3261  0.1030  0.3401
43247W        W99488  26.010  10.991  22.376  0.1346 -0.1460  0.0076
43248W        W99489  22.683   9.379   1.716  0.1591  0.1318  0.0482
43249W        W99490  11.344  20.022  14.783  0.0286 -0.1531 -0.1387
43250W        W99491  30.094  35.207  15.419 -0.1192  0.0814 -0.0144
43251W        W99492  32.847  32.064   7.576  0.1431 -0.3842  0.5511
43252W        W99493  29.362  11.144   6.703 -0.1110 -0.2667  0.2145
43253W        W99494   3.619  33.723   1.531  0.2077 -0.3963  0.0683
43254W        W99495  11.925   5.398   3.364 -0.0768 -0.1981  0.0586
43255W        W99496  19.671  28.306  24.974  0.3431 -0.2172  0.3477
43256W        W99497   7.312  16.093  10.599  0.0194 -0.1316 -0.0770
43257W        W99498   2.785  29.387   1.929  0.0673 -0.2362  0.1817
43258W        W99499   7.975   5.012   5.462 -0.1055 -0.0187  0.2619
43259W        W99500   4.209  11.306  20.126  0.0348  0.0398  0.0252
43260W        W99501  14.606  10.371   0.653  0.1778  0.2309 -0.1563
43261W        W99502  19.129  20.026  24.051 -0.1010  0.1277  0.2168
43262W        W99503  35.028  21.933   9.606 -0.0106  0.0613 -0.4103
43263W        W99504  12.293  23.121   7.660  0.0937  0.1219 -0.0756
43264W        W99505  23.644  27.326  24.003  0.1450  0.2241  0.0500
43265W        W99506  15.796  32.967   2.249 -0.1412  0.1133 -0.1130
43266W        W99507  34.577  33.435   4.008  0.0076 -0.0832 -0.1465
43267W        W99508  28.856  11.050  11.439 -0.1244  0.1375  0.1094
43268W        W99509  16.026  24.213   9.517  0.0020 -0.0479  0.2001
43269W        W99510   7.142  27.406  14.212 -0.2617  0.0978  0.2477
43270W        W99511  14.803  28.442  21.011 -0.1120  0.2106  0.0724
43271W        W99512  20.236  19.415  22.091  0.0971  0.2832  0.0550
43272W        W99513  29.933  17.156   6.475 -0.0190  0.1119 -0.1284
43273W        W99514   9.465   2.035   0.747 -0.0960  0.1395  0.1425
43274W        W99515   5.083   1.751  25.123  0.0719  0.0512 -0.2310
43275W        W99516  25.262  20.160  23.852  0.0341 -0.0693 -0.1273
43276W        W99517  26.061  25.409  21.581  0.1449  0.1635  0.0493
43277W        W99518  30.780   8.017  24.456 -0.0107 -0.2671  0.5251
43278W        W99519   6.348   9.081  24.511 -0.0415  0.1539  0.3669
43279W        W99520  31.400  11.439  16.387 -0.2444 -0.1645 -0.0327
43280W        W99521  23.667  30.711  23.810  0.1617  0.2296 -0.1956
43281W        W99522   1.882  22.180   2.283  0.3840  0.1322  0.1416
43282W        W99523  21.533  25.022  25.990  0.0436 -0.1719  0.0681
43283W        W99524  35.094  25.544   2.678 -0.2998  0.0943 -0.0795
43284W        W99525  22.532  34.213  13.172 -0.2330 -0.2036 -0.2500
43285W        W99526  13.600   1.392   2.849 -0.0080  0.2799 -0.0881
43286W        W99527  32.511  29.079  17.179 -0.0878  0.1728 -0.1583
43287W        W99528  23.243   5.205   6.888  0.3328  0.0972 -0.2125
43288W        W99529  17.682  34.026  22.642  0.2097 -0.0536  0.1281
43289W        W99530  29.723  16.410  21.610 -0.1156  0.0836 -0.0796
43290W        W99531  15.281  31.599   0.128  0.2878 -0.2329 -0.4106
43291W        W99532  15.854  12.120  22.735  0.0193 -0.0641  0.0454
43292W        W99533  27.604  35.261   5.433 -0.0478  0.1766 -0.4296
43293W        W99534   9.473   1.817   6.352 -0.0932 -0.3877 -0.4740
43294W        W99535  12.044  23.178  16.538  0.1150 -0.0239  0.0656
43295W        W99536  19.856   0.295   3.959  0.0289  0.1663 -0.0112
43296W        W99537  13.069  17.652   5.952 -0.0034 -0.1906  0.2075
43297W        W99538  12.438  21.625  13.766 -0.0367 -0.1662  0.0946
43298W        W99539  19.202  32.739  21.357 -0.0890 -0.0804  0.2455
43299W        W99540  13.284   4.020  10.340  0.0204 -0.0399  0.4353
43300W        W99541  14.732  32.837   0.861 -0.2650 -0.1848  0.2768
43301W        W99542  16.274  27.829  10.795 -0.1816 -0.0983  0.0294
43302W        W99543  25.652  11.519  12.614 -0.1478 -0.2631  0.0552
43303W        W99544  15.063  23.442  16.313 -0.1376 -0.1300 -0.0361
43304W        W99545   9.020  20.450   3.454 -0.0560  0.0407 -0.1304
43305W        W99546  26.797  21.271  16.812 -0.0968 -0.4239  0.1183
43306W        W99547   2.488  21.580  23.976 -0.1879  0.0549 -0.1644
43307W        W99548   7.516   8.789   2.335  0.2067 -0.1653  0.0523
43308W        W99549  29.418  13.341   5.665  0.2850  0.0156 -0.1215
43309W        W99550   4.948   0.558  23.353  0.0832 -0.0638  0.1259
43310W        W99551   8.556  29.849  14.838  0.0468  0.0862  0.0182
43311W        W99552  24.405   1.841  19.992  0.5530 -0.1689  0.2737
43312W        W99553   8.137  16.459   2.886  0.1899 -0.0698 -0.0172
43313W        W99554   7.530  13.462   5.809  0.4391  0.0177  0.1416
43314W        W99555  25.625  19.173  25.863 -0.1063  0.0222  0.1626
43315W        W99556  16.854  14.729   4.331 -0.0962 -0.0974 -0.2612
43316W        W99557  13.452  31.846   1.489 -0.0558  0.2104 -0.1669
43317W        W99558   7.015   3.454   4.015  0.0135  0.2509 -0.2079
43318W        W99559  34.737  19.588  24.707  0.0610  0.0707 -0.2554
43319W        W99560   4.491  27.312  21.795  0.2344 -0.0142  0.0845
43320W        W99561   2.917   4.742  25.129 -0.0731  0.2869 -0.2096
43321W        W99562   0.249  22.837  14.367 -0.1308  0.1076 -0.1610
43322W        W99563   6.531  11.031  21.284 -0.0695  0.1269 -0.1474
43323W        W99564  29.993   4.712  11.343  0.2534  0.2959  0.3134
43324W        W99565  27.853  32.186   4.357  0.1419 -0.0174 -0.1173
43325W        W99566   1.728  29.452   5.744  0.1678 -0.4511  0.0026
43326W        W99567  14.515   7.281  22.407  0.1921  0.0298  0.0072
43327W        W99568  26.210   1.981   1.134 -0.0798 -0.2555  0.3820
43328W        W99569  33.997  33.682  23.834 -0.0828 -0.2261 -0.2055
43329W        W99570  31.643  19.364  23.856  0.4383 -0.0037  0.2608
43330W        W99571  29.293  11.908  12.889 -0.3556  0.1223  0.2364
43331W        W99572  33.332  25.372  16.672  0.1939  0.4275  0.0907
43332W        W99573  11.652  11.780  10.692  0.4059  0.1747 -0.0221
43333W        W99574  24.406  20.155  10.556 -0.0015  0.3936 -0.0023
43334W        W99575  27.470  25.545  15.289 -0.4451  0.0228 -0.0391
43335W        W99576  13.933  24.602   7.138 -0.0142 -0.3990 -0.2282
43336W        W99577  12.840  12.516  13.641 -0.1384  0.0327  0.0770
43337W        W99578  10.692  32.115   5.164  0.4030  0.5161  0.0339
43338W        W99579  34.282  14.428   8.730 -0.0455  0.0492 -0.0110
43339W        W99580  14.340  16.411  23.792 -0.0310 -0.1778  0.0226
43340W        W99581  10.660  17.333   5.332 -0.3727  0.0982  0.2158
43341W        W99582  22.268   3.336  21.122 -0.0624  0.1694  0.2115
43342W        W99583  25.126   3.017   6.185 -0.2036 -0.0325  0.0178
43343W        W99584   7.119  33.757   4.702 -0.0012 -0.1674 -0.1744
43344W        W99585  23.719  20.829  24.441 -0.2844 -0.4003 -0.1324
43345W        W99586   7.916  24.899  12.482  0.0559 -0.0912 -0.0261
43346W        W99587   2.934  18.516   3.971  0.0507  0.0694  0.1344
43347W        W99588  13.395   3.750   2.064  0.0194  0.1589 -0.2500
43348W        W99589  15.520  17.625  25.568  0.0451  0.0223 -0.0363
43349W        W99590  25.795  32.385  16.580 -0.0300  0.2823  0.0343
43350W        W99591  15.698  30.277   1.884 -0.0527 -0.1899  0.1706
43351W        W99592  33.748  13.836  13.984 -0.0227  0.0832 -0.2964
43352W        W99593  27.313  28.469  22.391 -0.0680 -0.1134 -0.1564
43353W        W99594   3.909  34.728   8.107  0.0744  0.1228 -0.1415
43354W        W99595  26.641  34.294  17.067  0.1261 -0.0422 -0.1844
43355W        W99596  14.037  26.790  16.811  0.0535 -0.2303 -0.0937
43356W        W99597   4.109  16.308  21.600 -0.1189 -0.1207 -0.2200
43357W        W99598   0.727  21.032  16.061 -0.0579 -0.1963 -0.0912
43358W        W99599  31.122   3.323  21.970 -0.4091  0.1672 -0.1111
43359W        W99600  20.517  22.051   6.299  0.2855  0.0172 -0.1085
43360W        W99601   4.371   0.215   4.571  0.0348 -0.1857 -0.0617
43361W        W99602  25.112   1.672  13.601  0.3875 -0.2043  0.2089
43362W        W99603  13.243   6.293  23.876 -0.2484 -0.0735  0.1212
43363W        W99604  25.431   5.267  18.832  0.0412 -0.0021 -0.0673
43364W        W99605  24.666  17.127   0.893  0.0587 -0.0328  0.0178
43365W        W99606  10.157  18.880  24.149 -0.1246  0.0016  0.1895
43366W        W99607  18.308   7.194   8.970  0.2783 -0.0930 -0.1571
43367W        W99608  12.768   4.851   3.347  0.2916  0.2323  0.2193
43368W        W99609  16.304  12.542   9.574  0.0517 -0.0836 -0.1787
43369W        W99610  13.111  25.958  13.652 -0.1331 -0.0703  0.1448
43370W        W99611  17.023  14.977   0.073 -0.2738 -0.2118 -0.2841
43371W        W99612   2.512   7.335  20.103 -0.1028  0.3217 -0.0524
43372W        W99613  27.996  15.247  16.782 -0.1476  0.3095  0.1715
43373W        W99614  12.561  13.537  12.695  0.0858  0.2227  0.1263
43374W        W99615   1.658   4.454  21.081  0.0151  0.0560 -0.1583
43375W        W99616  27.556   8.636  10.907  0.0739  0.3027  0.1005
43376W        W99617  25.644  16.880  12.436 -0.0533 -0.3179 -0.0019
43377W        W99618  13.379  21.180  11.598 -0.1474 -0.0530  0.2839
43378W        W99619   7.831   1.274   5.820 -0.1627 -0.0023 -0.0079
43379W        W99620  31.483   3.404  21.049  0.0626  0.0534  0.2173
43380W        W99621  32.090  22.926  23.217 -0.2296  0.0981 -0.1941
43381W        W99622   6.617  18.464   7.210 -0.1457  0.1072 -0.0404
43382W        W99623  22.577  16.634  25.554 -0.1356  0.2173  0.0134
43383W        W99624  13.221  11.064   2.923 -0.1751 -0.1875 -0.1993
43384W        W99625  20.846  14.460  18.402  0.1247 -0.1531  0.0368
43385W        W99626   9.637  21.538  14.708 -0.1593  0.3988  0.1455
43386W        W99627   8.653   8.748  19.511  0.2070 -0.0268  0.0440
43387W        W99628  23.290   7.833  19.845 -0.0953 -0.0295  0.1024
43388W        W99629  18.214   7.066   2.863  0.3466  0.1004  0.1006
43389W        W99630  21.424  12.128  24.854 -0.1134  0.0172  0.0260
43390W        W99631  34.959  33.613  15.698 -0.1528  0.0803 -0.1346
43391W        W99632   3.012  12.516  15.884 -0.2032 -0.1572  0.2821
43392W        W99633  33.466  27.847  14.553 -0.0236  0.1027 -0.2214
43393W        W99634   5.529   4.403  17.816  0.1773  0.2680  0.0095
43394W        W99635   5.703  15.994  24.599 -0.0315  0.1068  0.0974
43395W        W99636  18.704   9.165  12.078  0.3111  0.3447  0.0692
43396W        W99637  29.094  30.626  15.234 -0.1249 -0.1670 -0.2366
43397W        W99638   2.922   2.450  25.886 -0.2972  0.1923  0.1728
43398W        W99639  28.023   7.426  23.987  0.0194 -0.2315  0.0875
43399W        W99640  25.124  21.531  17.537 -0.0008 -0.2495 -0.0074
43400W        W99641  12.945  34.683  22.317 -0.0267  0.0445 -0.0491
43401W        W99642  24.780  14.163  11.047  0.0523  0.0787  0.0817
43402W        W99643   1.942  10.238   1.298 -0.1248  0.0607  0.0758
43403W        W99644   2.483   5.822   5.472 -0.1725  0.2750 -0.1447
43404W        W99645  14.744  27.952   2.723  0.0549  0.1173 -0.1482
43405W        W99646  26.596   6.189  13.595 -0.0402  0.3359 -0.1052
43406W        W99647  35.344  10.419   1.264  0.0318 -0.0222 -0.0864
43407W        W99648  34.164  16.144   6.432 -0.0081  0.3712  0.0783
43408W        W99649  26.523  29.653  21.092  0.2794 -0.0342 -0.0448
43409W        W99650  23.298   1.131  14.938  0.0295  0.0313  0.1006
43410W        W99651   9.165  23.899  25.813  0.3237  0.0682 -0.0595
43411W        W99652   2.887  35.301   0.336  0.0406  0.5727 -0.0901
43412W        W99653  30.737  27.705  15.926  0.2577 -0.0451  0.1820
43413W        W99654  19.522   1.759  23.571 -0.1117  0.0211 -0.4467
43414W        W99655  28.867  34.688  21.199 -0.1255 -0.2694  0.0256
43415W        W99656  24.978  35.383  14.165  0.0033  0.1505 -0.3380
43416W        W99657  34.075  12.032  25.367  0.3043 -0.1525 -0.0955
43417W        W99658  34.570   0.079  14.131 -0.0932 -0.3028  0.1858
43418W        W99659  20.038  16.515  10.427  0.0034  0.1957  0.0112
43419W        W99660  11.005  26.247  15.124  0.4202  0.2136 -0.0232
43420W        W99661  27.239  14.369  13.256 -0.1009  0.3316  0.2698
43421W        W99662   2.553   0.303   9.802 -0.0110 -0.0538  0.2520
43422W        W99663   6.198  19.928  20.084  0.4354  0.1443 -0.1462
43423W        W99664   3.346   5.134   6.433 -0.0836  0.1342 -0.0259
43424W        W99665   4.120   3.600  23.512 -0.0267  0.1144 -0.0819
43425W        W99666  34.445   9.072  24.210 -0.0348 -0.2464 -0.2678
43426W        W99667  25.821   4.973  24.300 -0.2118 -0.0052  0.0642
43427W        W99668  34.732  10.170  17.659  0.0183  0.1588 -0.0879
43428W        W99669  14.192   5.996  10.786 -0.0107  0.2220 -0.2609
43429W        W99670  23.911  31.602  17.200 -0.1852  0.0768  0.2377
43430W        W99671  13.573  11.305  10.586 -0.0943  0.1262  0.0889
43431W        W99672  19.909  13.380   5.129 -0.2455 -0.1139 -0.1548
43432W        W99673  12.065  11.544   3.670 -0.0293  0.0397 -0.3316
43433W        W99674   7.976  28.481   5.141 -0.1869 -0.2354  0.0558
43434W        W99675  19.015  14.349  22.251  0.2575  0.1300 -0.3853
43435W        W99676  21.430  19.117  18.764 -0.1433  0.3147 -0.0245
43436W        W99677  22.996  29.592   3.381 -0.0217  0.1686  0.3786
43437W        W99678  13.327   5.238   9.795 -0.0451 -0.0401 -0.2001
43438W        W99679   7.342   8.607  19.844  0.1827  0.0904 -0.0391
43439W        W99680  28.871  24.103  19.787  0.0902  0.2705 -0.2286
43440W        W99681  12.987   1.720   7.378 -0.1518  0.2720  0.2416
43441W        W99682   2.163  28.645   8.248 -0.0507 -0.3093 -0.0658
43442W        W99683  11.635  13.625   5.742 -0.1385 -0.0086 -0.0369
43443W        W99684  22.773  33.274  12.430  0.0078  0.2723  0.0665
43444W        W99685  25.381  22.439   9.285 -0.0497 -0.1815 -0.2407
43445W        W99686   4.392  23.742  24.468 -0.1388  0.0373 -0.1239
43446W        W99687  25.924   2.652  12.217 -0.4212 -0.0597  0.1063
43447W        W99688  15.001  34.455   7.337  0.0699 -0.0735 -0.0377
43448W        W99689  17.771   8.408  23.808  0.0158  0.2190 -0.1525
43449W        W99690   6.403  17.951  22.950  0.0395  0.1594  0.2679
43450W        W99691  12.488   9.337   2.385 -0.3238  0.1208 -0.3177
43451W        W99692   0.489  20.624  11.568  0.0391 -0.0018  0.2826
43452W        W99693   7.494   8.532  25.851  0.2741 -0.2730 -0.1087
43453W        W99694  21.618   2.544  23.873  0.1919  0.0351  0.2435
43454W        W99695  19.248  22.617  20.063 -0.0846 -0.1688  0.0355
43455W        W99696  23.074  14.312  19.820 -0.2807 -0.1104 -0.3197
43456W        W99697  20.018   4.998   3.933 -0.1645  0.3775 -0.0903
43457W        W99698   4.947  24.868   3.244 -0.1497  0.0343 -0.1895
43458W        W99699  28.454  33.724  19.577 -0.3189 -0.2153 -0.2468
43459W        W99700  24.839  25.174   0.690  0.0733  0.1516  0.2511
43460W        W99701  29.565  24.702  14.289  0.2582 -0.1905  0.2800
43461W        W99702  20.531  23.919   0.416 -0.1766  0.1454 -0.0332
43462W        W99703   9.659  28.224  25.697 -0.0042 -0.0923  0.3034
43463W        W99704  31.457  17.072   5.423 -0.2583  0.1659 -0.4184
43464W        W99705  27.925  11.433  15.063  0.1760 -0.1439  0.0006
43465W        W99706  25.415  12.584  25.438  0.1346  0.0153  0.0983
43466W        W99707  11.825   9.417  11.532 -0.0065  0.1815 -0.0585
43467W        W99708  28.344  22.370  10.335  0.0248  0.0093 -0.0360
43468W        W99709  30.126  22.626   9.210 -0.0325 -0.3546  0.0220
43469W        W99710  10.086  24.119   1.405  0.1175 -0.1230 -0.0345
43470W        W99711  32.383  11.667  10.639  0.1780 -0.1253  0.2225
43471W        W99712  27.442  23.568  10.752  0.3317  0.1143 -0.1384
43472W        W99713  15.643  28.049  11.555 -0.2675 -0.0638 -0.3946
43473W        W99714  11.054   5.271  24.365  0.0366  0.3020  0.0842
43474W        W99715  32.850  29.917  24.894 -0.0392  0.1332 -0.0724
43475W        W99716  20.392   9.672   4.327  0.3118 -0.2389 -0.3078
43476W        W99717  28.297  26.427  25.879 -0.2777 -0.3731  0.1375
43477W        W99718  11.184  19.276  14.843  0.0162 -0.0707  0.1057
43478W        W99719   4.923  20.290  23.346  0.0446  0.1407  0.0227
43479W        W99720  26.812   3.409  17.719  0.0653  0.0656 -0.0777
43480W        W99721   8.455  22.219   0.452 -0.3132  0.0472 -0.2689
43481W        W99722  11.658   5.790   3.497 -0.0669 -0.1139  0.0893
43482W        W99723   5.159  13.590   9.213  0.1619  0.4496  0.1850
43483W        W99724  18.583  20.098   3.557 -0.0398 -0.2453 -0.1741
43484W        W99725  16.450  27.069  22.648  0.0514 -0.0839 -0.0638
43485W        W99726  25.969   8.591  24.246  0.0527  0.2509  0.1287
43486W        W99727  29.288  21.031  24.075 -0.0357  0.0393  0.2551
43487W        W99728  21.205   1.150   3.982 -0.2175 -0.4233 -0.2273
43488W        W99729  19.228   2.544   3.199 -0.0103 -0.1730  0.5284
43489W        W99730  32.497   8.544  17.417  0.2363  0.0006  0.0675
43490W        W99731   8.617   6.238  13.220  0.2723 -0.0618 -0.0024
43491W        W99732  33.738  29.862  22.215  0.1294 -0.0585  0.1881
43492W        W99733  20.390  12.576   4.876  0.4451 -0.3934 -0.0741
43493W        W99734   3.288  29.674   3.173 -0.0769 -0.1504  0.1317
43494W        W99735   2.962  32.519   0.633 -0.0497  0.0621 -0.1131
43495W        W99736  26.039   8.320   2.014 -0.0002 -0.0044 -0.0194
43496W        W99737   3.439  15.962  15.130  0.1391 -0.2080 -0.0608
43497W        W99738  10.650  21.243   8.190  0.1469 -0.0191 -0.1555
43498W        W99739  28.093  25.939   1.256  0.1219  0.0051  0.0725
43499W        W99740   2.344  14.980  17.866 -0.0380 -0.1748 -0.0145
43500W        W99741  32.581  14.461  16.729 -0.0354 -0.0619 -0.0235
43501W        W99742  20.027   1.771  18.746 -0.2333 -0.1646 -0.0843
43502W        W99743   3.844  34.441  21.988  0.0011 -0.0372 -0.0864
43503W        W99744  20.847  10.913   8.684 -0.2443 -0.1380  0.1466
43504W        W99745  16.123   7.006   7.988  0.1223 -0.2351  0.1394
43505W        W99746  10.899  16.774   3.311 -0.1870 -0.0007  0.2449
43506W        W99747   2.922  14.384  22.473 -0.2888 -0.0101 -0.3613
43507W        W99748  31.893  30.080  17.736  0.1759 -0.3908 -0.1602
43508W        W99749   3.992  15.515   2.081 -0.1602 -0.1753 -0.2617
43509W        W99750  18.543  15.436   1.255 -0.0460  0.3442 -0.0237
43510W        W99751   3.371  27.721   6.247  0.0424  0.0232  0.0458
43511W        W99752  21.934   0.217  16.902 -0.1810  0.1537 -0.2129
43512W        W99753  23.522  18.068  12.804 -0.1733  0.0536 -0.1268
43513W        W99754  21.667  33.916  22.032  0.0241 -0.3779 -0.2928
43514W        W99755   6.086  33.831   8.750  0.0954  0.0233  0.1022
43515W        W99756  23.991   3.522  12.108 -0.0248 -0.1087  0.1649
43516W        W99757  14.074   8.103  11.167 -0.0493  0.0030  0.0150
43517W        W99758   9.981  27.384  13.030  0.0181  0.0517 -0.1546
43518W        W99759  13.314   6.663  10.691  0.2121  0.4225  0.1669
43519W        W99760  18.012  21.390  11.615  0.0796  0.0195  0.3620
43520W        W99761   5.333   6.652   9.355 -0.1100 -0.1701  0.0707
43521W        W99762  32.289  22.039  16.080 -0.1043 -0.3103  0.1404
43522W        W99763  31.599  14.516  12.500 -0.4377 -0.3140 -0.2098
43523W        W99764  11.920  27.904  13.429 -0.0015  0.2826  0.0383
43524W        W99765  10.752  15.949   0.633  0.4119 -0.1382  0.0677
43525W        W99766  14.999  12.402  24.526 -0.1277  0.1360  0.2154
43526W        W99767  25.715  12.615  21.368 -0.1578 -0.3137  0.3074
43527W        W99768   4.112  35.223   7.220 -0.2286 -0.1593  0.2035
43528W        W99769   4.752   3.630  20.889  0.1960  0.3670  0.3352
43529W        W99770   0.664   3.385  26.200  0.0380  0.0008  0.1347
43530W        W99771  19.317  21.791   7.165 -0.0616 -0.0660  0.0571
43531W        W99772  18.172   9.556   0.668  0.1528 -0.0886  0.1872
43532W        W99773  11.201  11.003  25.678  0.0597 -0.0267  0.0025
43533W        W99774  33.513   4.033   5.245 -0.1973 -0.1502  0.0519
43534W        W99775  18.600   3.188  19.862 -0.0803  0.3132 -0.3379
43535W        W99776  16.187  12.997  21.139  0.1519  0.2060  0.1931
43536W        W99777  32.237  20.022  19.136  0.5485  0.1076  0.0554
43537W        W99778   6.922   9.494   8.155 -0.4847  0.1127  0.1981
43538W        W99779   8.167  22.255   5.549 -0.0995 -0.1016 -0.1282
43539W        W99780  35.221  18.478  25.841  0.0068 -0.0954  0.1157
43540W        W99781  23.216   6.021   4.479 -0.4389  0.0932 -0.0426
43541W        W99782  32.649  32.417  24.531  0.0937  0.3483 -0.2440
43542W        W99783   0.455   2.627   4.184 -0.0376  0.0575 -0.3116
43543W        W99784  19.655  24.067   5.364  0.1468  0.0381  0.0694
43544W        W99785  30.065   1.211   2.918 -0.2773  0.3652  0.0377
43545W        W99786  19.037   9.775   6.768 -0.0451  0.1756 -0.1374
43546W        W99787  27.045   7.641  16.428 -0.1147  0.1437 -0.1630
43547W        W99788   4.865  24.337   1.437  0.0345  0.0205  0.0777
43548W        W99789  12.483  24.796   3.372  0.1015 -0.0939  0.2109
43549W        W99790  21.124  13.035  20.608  0.3468  0.1073  0.3029
43550W        W99791  23.155  33.256   5.618 -0.0221  0.1515  0.0740
43551W        W99792  13.122   9.452  11.363 -0.1795 -0.2243  0.0709
43552W        W99793   5.069   7.829  20.183 -0.2149  0.0804  0.2108
43553W        W99794  32.602   5.104  13.389  0.2287  0.0771  0.1142
43554W        W99795  10.900  15.997   5.433  0.3537  0.0992 -0.2985
43555W        W99796  18.576   3.039  21.670  0.0005  0.0699  0.1994
43556W        W99797  33.400  34.880   2.536  0.2184  0.3196  0.1024
43557W        W99798  20.367   6.045  24.831  0.1138  0.0528 -0.1109
43558W        W99799  17.523  32.868  22.923 -0.3112  0.1507  0.3766
43559W        W99800   4.473  31.065  21.199 -0.0334 -0.3433  0.2474
43560W        W99801   4.981  25.859   4.917 -0.2366  0.0640 -0.0182
43561W        W99802  33.425  16.190   6.200  0.1506 -0.0185  0.1045
43562W        W99803   2.063  31.364   8.425  0.0189 -0.0582 -0.0910
43563W        W99804   7.154   1.960  25.006  0.1690 -0.0126 -0.0129
43564W        W99805  22.727   5.209  21.195  0.2453  0.0406  0.0174
43565W        W99806  26.886  31.842  24.569  0.0567  0.1537 -0.1421
43566W        W99807   5.560  30.582   4.064 -0.2880  0.1979 -0.1047
43567W        W99808   5.910  31.543  10.660 -0.0517  0.1035 -0.2115
43568W        W99809  34.185  28.979   5.737 -0.3866  0.1565  0.2432
43569W        W99810  22.153   0.282   3.906 -0.1791  0.2979  0.0855
43570W        W99811  32.309  22.676  15.190 -0.1981 -0.1806 -0.0228
43571W        W99812  16.511  15.278   1.261  0.3194 -0.1741 -0.1403
43572W        W99813  21.441   6.842  24.421 -0.1501 -0.2125  0.4232
43573W        W99814  28.558  22.636  23.623 -0.4784  0.0919  0.1693
43574W        W99815   9.498  21.824   3.602 -0.0740  0.3528 -0.2825
43575W        W99816  23.572  32.116  13.980 -0.2402  0.1118  0.0596
43576W        W99817  14.845  31.460   1.537 -0.2245  0.1452 -0.2111
43577W        W99818  17.303  33.752   1.860 -0.0723  0.4790 -0.2591
43578W        W99819   7.872  29.976   3.267  0.0150 -0.1773 -0.1124
43579W        W99820  15.916   5.051   0.877 -0.2236 -0.4584 -0.0063
43580W        W99821   2.888  20.672  23.267 -0.3553  0.2006 -0.1919
43581W        W99822  32.239  28.750  25.036 -0.1258 -0.2429  0.0323
43582W        W99823   1.591   4.225   2.899  0.0552 -0.1749  0.0749
43583W        W99824  21.976  34.973  17.644  0.0742 -0.3883  0.1156
43584W        W99825  23.014  11.442  15.775  0.1970 -0.1790 -0.2231
43585W        W99826  28.268  33.706  14.190 -0.1381  0.0013 -0.2732
43586W        W99827  14.235   0.429   1.561 -0.1508  0.0113  0.1877
43587W        W99828  28.850   3.657   2.824  0.1490  0.1065  0.0165
43588W        W99829   4.437   2.082   4.482 -0.0194  0.1355  0.0305
43589W        W99830  13.652  19.071  13.921  0.3557 -0.3715  0.1007
43590W        W99831  17.946   7.978   9.743  0.1049 -0.0268  0.1151
43591W        W99832  12.147   9.205   6.005 -0.0935 -0.2108 -0.1709
43592W        W99833  34.622  19.325   6.078 -0.0860  0.1914 -0.1698
43593W        W99834  29.314  28.700   4.478  0.4237  0.0360  0.4407
43594W        W99835  28.319  14.194  17.249 -0.4523  0.3589  0.2178
43595W        W99836  34.295  34.049  23.711 -0.0278 -0.2442 -0.0253
43596W        W99837   5.659  18.832   2.037  0.0714 -0.3543  0.0852
43597W        W99838  10.127  27.551   4.529 -0.4053 -0.2699 -0.0528
43598W        W99839  26.103  22.811  14.743  0.0264  0.0360  0.1155
43599W        W99840  13.542  25.185   1.150  0.2923 -0.0167 -0.1530
43600W        W99841  32.956  35.009   3.886  0.1841  0.0461 -0.1046
43601W        W99842  17.840  30.800  20.938  0.0422 -0.2240 -0.0062
43602W        W99843  16.742  32.507   4.266  0.3333 -0.0046  0.0354
43603W        W99844  25.892  33.690   0.376  0.1628 -0.0022 -0.0190
43604W        W99845   2.859  22.912  24.827  0.0066  0.0586 -0.2232
43605W        W99846   1.057  10.625  11.142 -0.1741  0.0794 -0.1428
43606W        W99847  29.500  34.332  24.763  0.0527  0.1249  0.0926
43607W        W99848  24.714  20.508  18.611  0.1730  0.1710  0.2015
43608W        W99849   3.964   9.059   2.884 -0.0010  0.5417  0.0154
43609W        W99850  19.452  14.360   0.650  0.0057  0.0795 -0.1655
43610W        W99851   5.782  32.668  12.226 -0.0749  0.1288 -0.0182
43611W        W99852  17.885  24.482   4.902  0.0283  0.0826  0.1550
43612W        W99853   9.137  14.145  20.908 -0.0755  0.1275  0.2466
43613W        W99854  21.422   5.219  25.355 -0.0111  0.1336 -0.1862
43614W        W99855   2.439  20.454  16.365  0.5426 -0.2653  0.0205
43615W        W99856   4.289   2.398   7.647 -0.2138  0.1625 -0.2972
43616W        W99857  29.432  32.002  18.874 -0.0744 -0.0010 -0.0449
43617W        W99858   0.475  24.648   1.484  0.2331 -0.2238  0.1111
43618W        W99859  10.074   9.063   8.611  0.1155 -0.1637  0.3097
43619W        W99860  30.528  21.790  22.148  0.2350 -0.2225 -0.0313
43620W        W99861  13.056  28.652  10.440 -0.1254  0.0195  0.2263
43621W        W99862  30.113   7.892  20.711  0.1428 -0.0356  0.0976
43622W        W99863  30.071  10.497   0.137 -0.3464 -0.3149  0.1767
43623W        W99864   1.953  18.712   2.346 -0.2374  0.4601 -0.0902
43624W        W99865   3.456   7.389  23.620  0.3468 -0.2107  0.0239
43625W        W99866  15.061  10.740  24.259  0.1925 -0.2762 -0.1124
43626W        W99867  34.122  25.526  22.265  0.1106  0.2603  0.3332
43627W        W99868  30.033  16.827  22.592  0.0123 -0.0696  0.0804
43628W        W99869   2.159   9.217   0.182 -0.2050  0.0000 -0.2417
43629W        W99870  33.657  15.321  16.190  0.2071 -0.0624  0.1941
43630W        W99871  28.168   2.886   2.576  0.3129 -0.0459  0.1553
43631W        W99872  30.957   1.496  14.866  0.0819  0.0640  0.0679
43632W        W99873  11.500   9.423   8.246 -0.0341  0.2725  0.1473
43633W        W99874   3.664  28.228  12.166  0.1452  0.3771 -0.2986
43634W        W99875  26.120  18.197  16.344 -0.0150  0.2015 -0.1109
43635W        W99876  18.917  27.377  19.176  0.0833 -0.0280  0.3320
43636W        W99877   6.942   1.262  24.015  0.3325 -0.0650 -0.2373
43637W        W99878  28.599  20.125  18.338 -0.4446  0.2002  0.1705
43638W        W99879  18.132  11.886   2.449  0.1889  0.0316  0.1672
43639W        W99880  11.346  31.730  15.883 -0.3716  0.2741  0.0874
43640W        W99881  11.991   4.662   8.126 -0.0401  0.3063 -0.3465
43641W        W99882  12.263  16.991   0.878 -0.0186  0.0433 -0.0341
43642W        W99883  10.811   9.835   0.473 -0.0336 -0.0615  0.1590
43643W        W99884  16.469  28.453  20.550  0.3044  0.0412 -0.2200
43644W        W99885  30.974  18.692  10.374  0.1922 -0.0768  0.1671
43645W        W99886   7.144  10.658  23.187 -0.2777  0.2046 -0.0985
43646W        W99887   9.320  29.300   3.830  0.3098  0.2115  0.1180
43647W        W99888   8.602   8.353   5.260 -0.0835  0.0360 -0.0896
43648W        W99889  12.584  25.254   9.534 -0.3765  0.0297 -0.0725
43649W        W99890  11.543  20.511   4.268 -0.1118 -0.1279 -0.0111
43650W        W99891  33.234  25.527  11.769  0.0964 -0.2210  0.2575
43651W        W99892  34.445   2.581   1.271  0.0617 -0.2326 -0.1241
43652W        W99893  15.704  25.624   1.935 -0.0120  0.3838  0.2040
43653W        W99894  25.712   7.415  24.354  0.1747  0.2890 -0.1141
43654W        W99895  12.809  33.585  25.806 -0.0631 -0.2336 -0.0652
43655W        W99896   6.903  14.748  23.937  0.0259  0.0251 -0.2648
43656W        W99897  25.221  35.154  21.212 -0.1969 -0.0504  0.3631
43657W        W99898  13.580  20.128   2.956 -0.0153  0.2365  0.0089
43658W        W99899  26.912  35.381  21.507  0.1880  0.1195  0.1457
43659W        W99900  31.688  31.409   1.768  0.1809  0.1090 -0.0204
43660W        W99901  28.348  22.294  17.683 -0.2600 -0.1927 -0.0452
43661W        W99902  21.471  17.853   0.773  0.0271 -0.1174 -0.2159
43662W        W99903  10.193  14.568   7.215 -0.1107 -0.4393  0.1027
43663W        W99904   4.345   6.181   6.542 -0.6148 -0.1321  0.0972
43664W        W99905  32.554  19.822  10.383 -0.4392  0.2581 -0.3577
43665W        W99906  23.336  22.333  18.857  0.2032 -0.0722  0.0826
43666W        W99907  31.618  13.785  15.418  0.0600  0.0099 -0.1292
43667W        W99908  26.102  34.095  21.137 -0.1908  0.0333  0.0409
43668W        W99909   1.466  26.061  25.197  0.0663 -0.0578  0.3761
43669W        W99910   1.692  20.778   2.267 -0.2425  0.3553 -0.0041
43670W        W99911  32.075  34.741  24.142 -0.3337  0.0564 -0.0073
43671W        W99912   6.825  22.651   1.998  0.0773 -0.0108  0.4764
43672W        W99913  14.294  28.209  13.872  0.2148  0.1419  0.0375
43673W        W99914  22.602  16.150  19.969  0.1125  0.2432  0.0261
43674W        W99915  10.645  13.450   3.732  0.2731 -0.1284  0.0983
43675W        W99916  10.130  21.684  13.523  0.4263 -0.1175 -0.2303
43676W        W99917   0.405  10.302  17.973 -0.2519 -0.0665  0.2078
43677W        W99918  10.461  28.063   8.737 -0.1395  0.0381  0.1135
43678W        W99919  29.269   0.194  25.189 -0.1512  0.0022  0.2916
43679W        W99920   4.833  20.694  18.360  0.1323  0.1325 -0.0384
43680W        W99921  31.712  24.605  24.256 -0.1820  0.0619  0.2148
43681W        W99922  32.348   4.735  15.152 -0.2009  0.1326 -0.0872
43682W        W99923  18.570  34.839  17.137  0.1672 -0.0117 -0.3138
43683W        W99924  27.810  26.666  11.040  0.1914  0.1266 -0.0947
43684W        W99925   1.931  12.968  21.502 -0.2351 -0.0718  0.3000
43685W        W99926  14.340   5.584   7.264  0.2921  0.0205 -0.0834
43686W        W99927  21.595  31.508  17.249 -0.3084  0.0400 -0.0706
43687W        W99928  31.839   5.116   2.729  0.2761  0.1637 -0.4274
43688W        W99929  28.046  20.661  11.471 -0.1006 -0.2145  0.1294
43689W        W99930  11.246   2.755  19.078 -0.0459 -0.1582  0.0717
43690W        W99931  27.691   6.964  10.425 -0.0029  0.0252 -0.1071
43691W        W99932  19.734  10.593  10.495 -0.0539  0.2196 -0.0651
43692W        W99933  25.765  31.425   2.069 -0.1040 -0.1117 -0.0030
43693W        W99934  35.284  17.765  23.152 -0.1126 -0.1405  0.0522
43694W        W99935  19.322   8.685   6.076  0.1013  0.1064  0.1016
43695W        W99936   1.925  29.978   0.704  0.2909 -0.1007 -0.1343
43696W        W99937   5.650  31.404   9.082 -0.2198 -0.0169 -0.0062
43697W        W99938  14.665  27.880  14.426 -0.1697  0.0776  0.1141
43698W        W99939  33.220   1.743  18.078 -0.0180  0.0980  0.0849
43699W        W99940  22.651   3.812  18.138 -0.2152  0.1379 -0.0387
43700W        W99941  13.770  22.135  25.095 -0.1342 -0.0547 -0.1977
43701W        W99942   0.230  19.727  18.401  0.0233 -0.2336  0.2303
43702W        W99943   3.640   8.928   1.049 -0.2192  0.2807 -0.2269
43703W        W99944  34.485  30.231  18.813 -0.1110 -0.3888 -0.1751
43704W        W99945  10.533  17.128   7.223  0.1103  0.5142 -0.1673
43705W        W99946  25.448  25.930  12.173  0.1590 -0.2418 -0.0845
43706W        W99947  17.120  16.849  11.141  0.2576 -0.1212 -0.0364
43707W        W99948  29.185  35.154  14.205  0.0451  0.2132 -0.2823
43708W        W99949  17.944  11.352   3.755  0.3366  0.0268  0.0155
43709W        W99950  11.685  12.276  13.077 -0.1898 -0.0781  0.0725
43710W        W99951  28.539  10.070  22.355  0.1952  0.2749  0.1674
43711W        W99952  21.664  18.193   3.340  0.0136  0.1113 -0.0684
43712W        W99953   9.357  26.517   0.967 -0.1547  0.0374  0.0007
43713W        W99954  33.483   4.196  14.859 -0.0838  0.0272  0.0157
43714W        W99955   7.976   0.783  14.718  0.2024 -0.0032 -0.2310
43715W        W99956  13.983  24.893   0.618 -0.0514  0.1163 -0.1141
43716W        W99957  27.608  13.910  16.031  0.0575  0.1087  0.2263
43717W        W99958   9.013   5.309   6.198  0.5408 -0.0776 -0.2044
43718W        W99959  32.101  30.756  16.836 -0.2805 -0.0700  0.3334
43719W        W99960  14.955   4.631  24.102  0.1519  0.1779  0.2176
43720W        W99961   4.831  23.482  19.402  0.1012 -0.0306 -0.2272
43721W        W99962  10.999  19.633   2.845  0.0428 -0.3930  0.1181
43722W        W99963  22.827  11.811  13.198  0.2227 -0.0005  0.1671
43723W        W99964  33.901  10.208  12.896 -0.3048 -0.2299  0.0350
43724W        W99965  29.692  21.710   5.503  0.0301 -0.0676  0.1093
43725W        W99966  16.143  33.976  24.396 -0.1752 -0.1746 -0.4109
43726W        W99967  15.201  34.189   1.152 -0.0670  0.3569  0.1739
43727W        W99968  29.755  14.966  18.988  0.3876  0.0399  0.0582
43728W        W99969  12.279  13.206   4.207 -0.3527 -0.0311  0.2854
43729W        W99970  13.355  21.572  25.896  0.0090  0.2483  0.1668
43730W        W99971  35.020  11.994  20.756 -0.1062  0.1442 -0.2979
43731W        W99972   7.818   0.342   9.167  0.0218 -0.0410  0.0109
43732W        W99973   5.370  34.023  24.654 -0.0140 -0.0194 -0.0059
43733W        W99974   7.807  25.144   3.919 -0.1359 -0.0208  0.2115
43734W        W99975  24.163  18.417  11.401  0.1621 -0.0241  0.1974
43735W        W99976   9.804  13.852  25.368  0.1711  0.4393  0.0528
43736W        W99977  20.278   6.417   3.665 -0.2496 -0.2388  0.1158
43737W        W99978   7.837  32.398   5.246 -0.0340  0.1714  0.2581
43738W        W99979  23.143  10.479  23.036 -0.2439  0.1925  0.0310
43739W        W99980   8.471   2.274   2.561  0.1056 -0.0358  0.0817
43740W        W99981  10.917  33.377  25.349  0.4030 -0.0894 -0.1816
43741W        W99982  13.173   9.681   0.519 -0.0309  0.0100  0.1210
43742W        W99983  11.274   7.501  21.322 -0.1641  0.0249 -0.1007
43743W        W99984  17.088  11.839  25.356 -0.3044  0.0260  0.0273
43744W        W99985   3.222  26.313   6.351  0.2449  0.0327  0.3003
43745W        W99986  11.647  26.770  13.986 -0.0234  0.1429  0.2748
43746W        W99987   5.567  32.212  22.329 -0.3404  0.3004  0.3242
43747W        W99988  25.131  21.219  20.889  0.0031  0.0317  0.0088
43748W        W99989  16.539  23.112  10.427 -0.0146 -0.1333  0.1335
43749W        W99990  15.430  14.992  12.012  0.2039  0.2597 -0.1871
43750W        W99991  23.588  29.797   4.795 -0.0848 -0.0111 -0.0471
43751W        W99992  33.396  34.782  25.530 -0.2485  0.0692  0.0273
43752W        W99993  27.791   0.751  16.801  0.2870  0.1668  0.0555
43753W        W99994   2.043  31.350   0.563  0.0957  0.1892  0.0374
43754W        W99995  34.670   3.544  14.351  0.1566  0.1393  0.1735
43755W        W99996  12.531  28.879   4.170  0.2231 -0.2320 -0.0911
43756W        W99997  29.054  28.543  23.519 -0.2904 -0.0683 -0.0562
43757W        W99998   0.787  13.688  18.150 -0.0686  0.2883  0.0365
43758W        W99999  24.588  26.341  11.765 -0.2698 -0.2299 -0.0317
43759W        W    0   8.756   9.411   2.350 -0.3102 -0.0701  0.1827
43760W        W    1  33.180  34.711  23.552  0.1279  0.0143 -0.0751
43761W        W    2   5.443  10.613  21.829 -0.0791  0.0464  0.0568
43762W        W    3  13.120   5.374  12.735  0.0898  0.0673 -0.0280
43763W        W    4  20.793  19.009  21.145  0.0293  0.1291  0.0244
43764W        W    5   8.489   9.081   9.400 -0.2252 -0.0295 -0.0110
43765W        W    6  17.963  24.076  24.871  0.4065  0.1766  0.2209
43766W        W    7   4.568   9.228  18.891  0.1150 -0.1805  0.0464
43767W        W    8   2.093  14.450  24.322 -0.2716 -0.2040  0.0976
43768W        W    9  19.830  13.968  16.960 -0.0106 -0.3112  0.0416
43769W        W   10  14.627   9.611   3.178 -0.2618 -0.0445  0.0313
43770W        W   11  11.155  17.366  13.448  0.2940  0.0689  0.0352
43771W        W   12  32.759  28.398  13.651  0.1513 -0.0548  0.0455
43772W        W   13  24.156  25.310   2.297  0.0607  0.0843  0.0321
43773W        W   14   0.599   5.259  18.780  0.3780 -0.0421  0.0451
43774W        W   15   2.375  32.692  21.226 -0.1173  0.1980  0.2305
43775W        W   16  25.541   4.780  14.090  0.0574 -0.1781  0.1370
43776W        W   17  32.438   7.794  10.954 -0.1553 -0.0880 -0.1000
43777W        W   18   7.550  12.528   1.080  0.0792  0.0211 -0.0401
43778W        W   19   9.524   7.844   2.424 -0.2525 -0.4734  0.0731
43779W        W   20   9.000   1.576   3.679  0.0267 -0.1223  0.0740
43780W        W   21  23.653  16.972  22.128 -0.1913 -0.2043  0.0163
43781W        W   22   8.962   2.959  11.443 -0.0243 -0.0263 -0.3574
43782W        W   23  35.161   9.078  16.890  0.1965 -0.1371  0.2276
43783W        W   24   4.865   1.596   1.546 -0.1971  0.3705 -0.2274
43784W        W   25  28.596  13.982  21.307  0.3829 -0.0908 -0.1100
43785W        W   26  28.867  31.262  16.460  0.1011  0.1102  0.0320
43786W        W   27  11.053   0.150  10.496 -0.1087  0.0994  0.1792
43787W        W   28  16.202  19.174  11.280 -0.1018 -0.1648 -0.0958
43788W        W   29  13.462  13.397   6.429 -0.2739  0.2487  0.0594
43789W        W   30   9.146  18.430   0.874 -0.3261 -0.2118  0.2673
43790W        W   31  12.627  27.352  15.443  0.1070 -0.0490 -0.1162
43791W        W   32  32.728   8.575  23.669  0.1943 -0.1343  0.0090
43792W        W   33   1.004  33.745  21.968 -0.1652 -0.1165  0.0324
43793W        W   34  20.906  27.396  21.300  0.2130  0.4394  0.1616
43794W        W   35  22.038  21.998  16.705  0.0146 -0.1041  0.2388
43795W        W   36  24.650  27.624   0.329 -0.1878 -0.2257 -0.1770
43796W        W   37  27.040  31.281  13.185  0.1341 -0.2936 -0.2788
43797W        W   38  23.626  13.165  13.783  0.1879 -0.2347 -0.3387
43798W        W   39  28.962   6.530  24.969  0.1279  0.1598 -0.0686
43799W        W   40  27.660  33.254  19.689 -0.1500 -0.2963 -0.4776
43800W        W   41   3.156  34.377   5.096  0.0763  0.1737  0.0227
43801W        W   42  28.749   9.492  17.950 -0.0351  0.1718  0.1511
43802W        W   43  21.105  24.211   3.891  0.1748  0.0377 -0.0001
43803W        W   44  12.218  15.669  22.196  0.0259  0.2852 -0.1756
43804W        W   45  33.232  27.594  20.972 -0.0557 -0.0455 -0.3251
43805W        W   46  32.797  21.433  19.194 -0.3833  0.0578 -0.1645
43806W        W   47  32.957  22.030  11.850  0.0084  0.1708  0.2025
43807W        W   48  32.535  18.384  23.249  0.0358  0.1196  0.0290
43808W        W   49  11.811   3.362  12.288 -0.0038 -0.0321  0.1677
43809W        W   50  19.787  23.753   2.235 -0.0019  0.3224 -0.0727
43810W        W   51   7.550  14.523   9.360 -0.2369  0.2272 -0.1159
43811W        W   52   2.440   3.228  24.696  0.2996 -0.0841 -0.0157
43812W        W   53  13.393   3.441  21.637 -0.0051  0.3398 -0.0459
43813W        W   54  32.646  18.043  14.072 -0.0179  0.2291 -0.1254
43814W        W   55  33.552  28.236  18.090  0.0831 -0.0285  0.2642
43815W        W   56  13.327  25.113   8.660 -0.1490  0.1330  0.0453
43816W        W   57   6.079   2.706   5.408 -0.1198 -0.2543 -0.2708
43817W        W   58  27.242  30.115  22.001 -0.0400 -0.0615 -0.0504
43818W        W   59   9.081   2.019   2.875  0.2924 -0.0679 -0.1715
43819W        W   60   5.444  11.904  17.945 -0.0505  0.0649  0.0634
43820W        W   61  28.054  19.010  20.698  0.0211 -0.2497  0.1248
43821W        W   62  11.635   7.227   1.527 -0.0952  0.2517 -0.1154
43822W        W   63  14.194   9.104  13.893  0.1600  0.1151  0.1705
43823W        W   64  26.428  33.849   3.191 -0.1421 -0.2625  0.0593
43824W        W   65  19.955  16.294  23.663  0.0283  0.0552  0.2287
43825W        W   66   4.337   6.509  22.142 -0.1604 -0.0935  0.2657
43826W        W   67  22.570  12.274   0.415  0.0861 -0.0405  0.1486
43827W        W   68   8.891  23.741   3.229  0.2099 -0.1527  0.2274
43828W        W   69  33.604  20.097   8.833  0.3034  0.2048 -0.1999
43829W        W   70  32.693  25.586  16.140  0.0564  0.0998 -0.0101
43830W        W   71  28.125  25.503  14.021 -0.1091 -0.1608 -0.2410
43831W        W   72   7.779   1.507  10.240  0.0559 -0.2299  0.2340
43832W        W   73  32.156  25.881  18.982 -0.1894  0.1811 -0.1950
43833W        W   74  32.013   2.395  12.873 -0.0619 -0.0730 -0.0274
43834W        W   75  14.669  14.274  11.239  0.1536 -0.2336 -0.2734
43835W        W   76  17.018  20.103   4.740  0.0636  0.1484  0.0488
43836W        W   77   3.656  28.466  22.557 -0.2920 -0.0816 -0.3917
43837W        W   78  12.723  32.145  22.419  0.0356 -0.1043 -0.0250
43838W        W   79  12.838   7.422  22.817  0.0187 -0.2090 -0.2882
43839W        W   80   9.146  18.576   9.598  0.1490 -0.1747 -0.2900
43840W        W   81  16.766  31.438  20.533  0.0867  0.1769  0.1583
43841W        W   82   4.740  14.415  17.738 -0.2827  0.2128  0.2992
43842W        W   83  15.471   3.398  21.093  0.3134  0.3216  0.0629
43843W        W   84  22.512   4.561   5.154  0.0625  0.1377 -0.2288
43844W        W   85   9.224   8.297  23.249 -0.0472 -0.1454 -0.0557
43845W        W   86   7.498  27.336  10.588 -0.0028  0.1712  0.1486
43846W        W   87  35.078   1.475   4.695  0.1415  0.2875 -0.2016
43847W        W   88   0.937   6.923   5.789  0.0170  0.5162  0.2763
43848W        W   89   5.729  13.682   4.580  0.2098  0.2161  0.2893
43849W        W   90   4.646  19.789  21.571 -0.0976  0.2416  0.1210
43850W        W   91  11.638  34.664  23.251  0.0077  0.0253  0.2703
43851W        W   92  20.515  31.072   7.476 -0.1514  0.0346  0.2303
43852W        W   93  19.432  26.270   1.062  0.2724 -0.0515 -0.1199
43853W        W   94  31.572  23.529  24.284 -0.0732 -0.0100  0.0238
43854W        W   95  16.008  35.223   8.578  0.0847  0.1709  0.1656
43855W        W   96  34.040  14.613  23.502  0.5509  0.4803  0.1654
43856W        W   97  26.945  12.316  15.229  0.0327 -0.0490 -0.0040
43857W        W   98  14.517  32.341   4.268  0.0252  0.2682  0.0835
43858W        W   99  13.635  35.277  25.014 -0.3619  0.1697 -0.0319
43859W        W  100   1.638  33.743  22.687 -0.1593  0.0078 -0.0452
43860W        W  101  19.026   4.696  17.562  0.1080 -0.2593 -0.0086
43861W        W  102  10.438  16.095  21.593 -0.2469  0.1017 -0.0075
43862W        W  103  23.001   4.319  17.373  0.2431  0.0151 -0.0057
43863W        W  104  33.690  30.614   0.607  0.0654 -0.1526 -0.0781
43864W        W  105  29.712  21.728  14.733  0.1501  0.0808  0.2496
43865W        W  106  12.940   7.209   4.655  0.0547 -0.1226 -0.0321
43866W        W  107   6.182   4.239  12.560  0.0134 -0.0770 -0.1604
43867W        W  108  11.541   9.026  20.327  0.0068 -0.1174  0.3433
43868W        W  109   3.228  24.901   7.482 -0.1965  0.0442  0.1920
43869W        W  110   7.817  17.105  10.174  0.0329 -0.1782 -0.1694
43870W        W  111  28.807  20.911  20.877  0.3744 -0.2562 -0.0853
43871W        W  112  28.751   8.516  23.510 -0.0470 -0.1111  0.1477
43872W        W  113  28.996  25.997  25.936 -0.0887  0.0839 -0.2352
43873W        W  114  18.961   0.692   4.594 -0.0765  0.0479 -0.0311
43874W        W  115   4.013  18.742  16.501 -0.0118  0.2631  0.1415
43875W        W  116  28.536   2.216  20.834  0.2635 -0.1262  0.0002
43876W        W  117  20.483  23.171  23.490 -0.1272 -0.0493  0.0956
43877W        W  118   6.319   1.677  26.054  0.0344 -0.0627  0.0712
43878W        W  119  10.037  18.770  10.127  0.0931 -0.1548  0.1940
43879W        W  120  33.436  29.692  18.092  0.2882 -0.1880 -0.1971
43880W        W  121  30.312  13.669  15.306 -0.0893 -0.2984 -0.1135
43881W        W  122  15.346  28.754  15.563 -0.0673  0.3057 -0.2216
43882W        W  123  27.409  12.013  12.207 -0.1547 -0.0741 -0.4041
43883W        W  124  16.955  18.709  21.802 -0.2497  0.1000 -0.1281
43884W        W  125  13.920   6.029   5.855  0.0840  0.1624  0.1508
43885W        W  126  24.124   2.031  17.474  0.1136 -0.0094  0.1660
43886W        W  127  21.043   0.498  15.429 -0.0139  0.1585  0.3141
43887W        W  128  14.854  11.620  24.148 -0.1046 -0.2410 -0.0760
43888W        W  129   4.075  29.849  21.701  0.0108  0.2415 -0.2786
43889W        W  130   3.042  27.995   1.137  0.0771 -0.0442  0.1048
43890W        W  131   2.895  27.275  22.289  0.0566  0.0515 -0.0389
43891W        W  132   7.042   9.245   8.622 -0.1485 -0.1433 -0.2098
43892W        W  133   3.324  32.236   0.941 -0.0239 -0.2114  0.1425
43893W        W  134   0.464  15.627  19.502  0.1157 -0.0050 -0.0126
43894W        W  135  23.555  23.015  19.320  0.0001 -0.0641 -0.0681
43895W        W  136  20.767  34.006  24.118  0.1965  0.2124  0.0224
43896W        W  137  33.882   4.197  25.520 -0.2268  0.0446  0.2404
43897W        W  138  20.218  17.864  18.701 -0.1354 -0.1092  0.2329
43898W        W  139   4.876   8.688  23.798  0.2176  0.0767  0.2608
43899W        W  140  32.626  24.496   8.190  0.1537  0.2581  0.0754
43900W        W  141   0.261  28.905  16.529  0.0751  0.2291  0.0514
43901W        W  142  29.478   3.977  11.695  0.3589 -0.2571 -0.3392
43902W        W  143  33.783   6.147  22.535 -0.0582 -0.0064 -0.1775
43903W        W  144  29.219   8.985  15.716 -0.1179 -0.1381  0.0300
43904W        W  145  31.986  34.826   4.843  0.1024 -0.0526  0.0401
43905W        W  146  21.688  28.276  21.715 -0.0269 -0.0994  0.3550
43906W        W  147  35.115  34.561  18.353 -0.0052  0.1394 -0.0695
43907W        W  148  11.363  15.131  21.143 -0.1213  0.1476  0.0958
43908W        W  149  33.294  22.727  14.384  0.3088  0.0658 -0.1330
43909W        W  150   6.602   2.898   5.178  0.2564 -0.1330 -0.0472
43910W        W  151  25.791  29.973  25.084  0.1088  0.0540  0.0909
43911W        W  152  22.133  29.054   5.112 -0.1844  0.1932  0.1257
43912W        W  153   1.555  18.368  15.316 -0.0749 -0.3710  0.5305
43913W        W  154  24.062   4.301   6.925 -0.0392 -0.2150  0.0158
43914W        W  155  29.757  21.596  13.479 -0.0758  0.0908  0.2571
43915W        W  156  26.326   6.288  17.915 -0.3184 -0.0434 -0.2541
43916W        W  157   3.771  22.517  22.920  0.0512  0.3093  0.2873
43917W        W  158  35.199  21.588  24.654  0.0738  0.0823  0.2604
43918W        W  159  16.782   5.913   4.460 -0.0744  0.1184 -0.0939
43919W        W  160   5.887  33.224  21.453 -0.4239 -0.0652  0.1207
43920W        W  161   8.258  28.066   2.836 -0.0985  0.2897  0.4222
43921W        W  162  10.249  27.905   2.598 -0.0172 -0.1675  0.2461
43922W        W  163   6.211  18.972   3.449  0.0864  0.4051  0.0756
43923W        W  164  21.311  10.372  19.916 -0.2201  0.1113  0.3800
43924W        W  165   0.877  34.275   6.019 -0.1579  0.3718 -0.0444
43925W        W  166  31.059  24.683   7.698 -0.2210 -0.1554  0.1251
43926W        W  167  24.694   3.755  23.025 -0.3608  0.0447  0.0350
43927W        W  168  21.051  34.234   4.055  0.4149 -0.2845  0.0827
43928W        W  169   6.542  14.359  20.073  0.0601  0.2539  0.3553
43929W        W  170  34.660   7.936   0.467 -0.0247  0.2107  0.0714
43930W        W  171  34.763  26.218  17.639  0.0028  0.3317  0.1090
43931W        W  172  28.204  12.937   0.109 -0.1035 -0.2742 -0.0485
43932W        W  173  21.582  27.533   0.089  0.3391 -0.3551  0.2253
43933W        W  174  13.797  33.798  21.435  0.1376  0.2419  0.0542
43934W        W  175  29.793  17.669   5.028 -0.2562  0.1597 -0.3034
43935W        W  176  11.262  19.328  11.630  0.1222 -0.3356 -0.2253
43936W        W  177   4.685  13.116   5.172 -0.3745 -0.0384 -0.2351
43937W        W  178   5.574  13.829   4.170  0.1233  0.1834  0.3573
43938W        W  179  11.578  19.081  13.154 -0.0178  0.0468  0.0055
43939W        W  180  31.478  19.899   5.568  0.0864  0.2989  0.0821
43940W        W  181  11.222  25.576   7.635  0.0184 -0.1167 -0.0474
43941W        W  182   1.219  18.111  23.890  0.0075  0.1661  0.3271
43942W        W  183  19.270   6.249   2.333  0.1152  0.3646  0.0451
43943W        W  184  10.369  32.682  24.682  0.1178  0.1918  0.1469
43944W        W  185  11.161   6.987   1.579  0.1296 -0.2461 -0.4251
43945W        W  186  27.253  19.253  20.915 -0.0104  0.1186 -0.0638
43946W        W  187  20.239  21.865  17.846  0.0172 -0.1924  0.0541
43947W        W  188  17.913  18.820   8.267 -0.0096 -0.2171 -0.0316
43948W        W  189   8.339  29.686   0.583 -0.0874 -0.2559 -0.3053
43949W        W  190  26.357  20.363  25.096 -0.5232  0.4033  0.2670
43950W        W  191  25.834  13.443  10.666 -0.1096  0.0965  0.0822
43951W        W  192  30.600  20.430   6.425  0.2124 -0.4200 -0.0188
43952W        W  193  29.668  31.089  24.420  0.0141 -0.0423 -0.0621
43953W        W  194  18.427  25.114  22.468 -0.5109 -0.8334  0.0441
43954W        W  195   2.987  32.224  25.634 -0.1981  0.0017  0.0705
43955W        W  196   4.108   6.647  26.217 -0.1996  0.1819  0.1747
43956W        W  197  16.765   2.887  25.377  0.0839  0.1156  0.1488
43957W        W  198   3.844   5.989  19.913  0.0331  0.2538  0.2659
43958W        W  199  16.223  12.730   2.925  0.0662 -0.2597 -0.1200
43959W        W  200  11.004   3.156   0.640  0.0225  0.0774  0.2871
43960W        W  201  11.961  31.603   4.073  0.1199  0.3136  0.0014
43961W        W  202   4.310   1.291   1.915  0.0140  0.0465  0.4126
43962W        W  203  32.663   4.581  16.574  0.0856  0.3860  0.1540
43963W        W  204  10.771  27.630  15.177  0.1571  0.0553 -0.1480
43964W        W  205   3.750  34.258  19.736 -0.1177  0.0887  0.0503
43965W        W  206  19.397  17.963  24.473 -0.3187  0.1057  0.2095
43966W        W  207  19.295  19.076   8.744 -0.0675 -0.1718  0.0822
43967W        W  208  27.981   3.295   2.743  0.2944  0.0077 -0.1217
43968W        W  209   5.843   6.960  21.502 -0.0236 -0.0373  0.2020
43969W        W  210  31.018   3.041  12.172  0.1344 -0.1431  0.2668
43970W        W  211  25.136   1.592   0.996 -0.0444  0.2532  0.0850
43971W        W  212   7.389  24.487   0.404  0.1644  0.1723 -0.2245
43972W        W  213  32.396  17.465   8.362 -0.2761  0.2340  0.6086
43973W        W  214  13.879  31.172   2.451  0.1719  0.3154 -0.0761
43974W        W  215  13.336  18.858   3.048 -0.0776 -0.1998 -0.1453
43975W        W  216  23.366  29.319  25.929 -0.0064  0.2805  0.2106
43976W        W  217   9.982   8.276   4.681 -0.1989  0.0872 -0.0983
43977W        W  218  34.493   2.081  21.781 -0.0518 -0.2758 -0.1486
43978W        W  219  25.120   4.358  19.313 -0.0839 -0.4742 -0.2017
43979W        W  220  19.749  20.111   2.820 -0.0228 -0.1170  0.2046
43980W        W  221  20.857  26.572   3.407  0.0880  0.1249  0.2061
43981W        W  222  20.733   9.519   2.792 -0.0478  0.3996  0.1240
43982W        W  223  31.184  14.991  10.135  0.0072 -0.1395 -0.0788
43983W        W  224   4.530  22.017   6.837 -0.1622 -0.4314  0.2662
43984W        W  225  14.755  24.916   3.357 -0.1360  0.0705 -0.0538
43985W        W  226   3.949  14.754  25.283 -0.0726 -0.0632 -0.0145
43986W        W  227   5.358  25.844   0.049  0.2325  0.0989  0.1772
43987W        W  228  28.989  33.520   2.213 -0.1153 -0.1497  0.0905
43988W        W  229  16.958  15.769  24.772 -0.1032 -0.0563 -0.0354
43989W        W  230  20.187  20.846  18.744  0.1818  0.1615 -0.3242
43990W        W  231  15.743  13.082  24.014  0.3015  0.0827  0.1832
43991W        W  232  27.646   7.528  12.773 -0.1111 -0.1962  0.1659
43992W        W  233  26.016  33.073   1.635 -0.1003  0.0129  0.0864
43993W        W  234  26.894   6.888  25.405 -0.4047  0.0513  0.3597
43994W        W  235  13.811  29.372  11.265 -0.1412  0.0404  0.0287
43995W        W  236  28.150  22.247   7.686  0.1896  0.1259  0.1349
43996W        W  237   8.161   3.691  21.520 -0.2287 -0.2795  0.1069
43997W        W  238  27.105  20.639   5.861 -0.0338 -0.1006  0.0940
43998W        W  239   6.979   5.376   4.793  0.1950  0.3858 -0.2251
43999W        W  240  16.126  34.020  24.952 -0.1370  0.0869 -0.2139
44000W        W  241  21.260  17.265  21.109 -0.1222 -0.1422  0.0780
44001W        W  242   4.770   1.403  24.973 -0.1307  0.1152 -0.1236
44002W        W  243   8.278  10.743  22.485 -0.0767  0.1962  0.0017
44003W        W  244  12.021  17.595  24.820  0.0739  0.0353 -0.1048
44004W        W  245  15.106  10.129  12.384  0.0267  0.0478  0.1423
44005W        W  246  33.474  10.843   0.272  0.0490  0.1537 -0.1975
44006W        W  247   4.998  26.664   0.870 -0.0489 -0.0154  0.2325
44007W        W  248  24.608   5.057   0.260 -0.0502  0.3549  0.0305
44008W        W  249  35.332  14.083  15.106  0.0904 -0.1348 -0.0156
44009W        W  250   8.685  14.272  24.379  0.1661  0.1393  0.2938
44010W        W  251  21.033  19.709  18.092 -0.0391  0.0697 -0.3206
44011W        W  252  32.661  16.703  25.522  0.2030 -0.0978 -0.2134
44012W        W  253  24.157   7.869   0.113 -0.1075  0.1547 -0.0840
44013W        W  254  10.725   9.856  21.305  0.2955  0.0678  0.0295
44014W        W  255   1.852   3.012  24.863  0.1165  0.3711 -0.2466
44015W        W  256  34.803  11.840  18.240  0.3555 -0.0141 -0.1159
44016W        W  257  31.817  34.165   6.854 -0.1169 -0.0407  0.1171
44017W        W  258   1.758   2.118  22.546  0.1177  0.0510  0.0087
44018W        W  259  13.114   9.913  20.220 -0.2027 -0.0775  0.1183
44019W        W  260   5.591   0.024  21.974  0.0837 -0.2168 -0.0390
44020W        W  261   5.470   2.315  10.028 -0.2619 -0.4020 -0.0217
44021W        W  262  10.622   4.530  19.905  0.1112 -0.0528 -0.2180
44022W        W  263  17.105  34.259   8.265  0.1008 -0.1422 -0.1510
44023W        W  264  19.088  25.925   1.887 -0.2833 -0.0570  0.0917
44024W        W  265  28.154  12.902   7.937  0.1094 -0.1917 -0.0518
44025W        W  266  27.750  17.459   8.774  0.1770  0.0336 -0.0058
44026W        W  267  18.555  15.867  12.358  0.0117 -0.1340  0.0237
44027W        W  268  17.620   4.484   9.223 -0.2407 -0.2314  0.1274
44028W        W  269  22.150  30.184  19.982 -0.0626  0.1950 -0.2105
44029W        W  270   0.150  14.821  23.601  0.1262 -0.0468 -0.4237
44030W        W  271  18.078  17.131  24.924 -0.1538  0.1502  0.0470
44031W        W  272  19.472  15.885   5.162  0.1092  0.1788 -0.0938
44032W        W  273   1.277  31.821   9.958  0.1058  0.0956 -0.0487
44033W        W  274  18.805   4.294   9.278  0.2846 -0.2685 -0.0523
44034W        W  275  32.989  14.350  16.977  0.3786  0.2734  0.1154
44035W        W  276   1.279  31.513   0.652 -0.1452  0.2422 -0.3930
44036W        W  277  27.298  19.563  25.600  0.5228 -0.0314 -0.0982
44037W        W  278   8.411  32.898   7.460  0.1353  0.0344  0.2569
44038W        W  279  22.656  32.362  12.382 -0.1748 -0.0138 -0.1586
44039W        W  280  25.273   9.447   1.309 -0.1993 -0.3264 -0.0230
44040W        W  281  35.248  33.110  21.900 -0.1055 -0.0934 -0.2552
44041W        W  282  33.857  20.018  11.638  0.0730 -0.0234  0.1914
44042W        W  283  32.721  14.469  19.560  0.0349 -0.0066  0.0705
44043W        W  284  31.076  21.190  15.156 -0.0158  0.0470 -0.0813
44044W        W  285   4.615  30.699   1.390 -0.1765 -0.1705 -0.1658
44045W        W  286   9.638  33.720  10.551  0.1290  0.2000 -0.0091
44046W        W  287  20.857   5.892  24.115  0.0788  0.3592 -0.1468
44047W        W  288  21.304  33.841   0.356  0.3788  0.1791  0.1492
44048W        W  289  23.255  34.627  21.422 -0.1303 -0.0078 -0.0916
44049W        W  290  29.307  11.127  17.589  0.1328 -0.1385 -0.0452
44050W        W  291  18.577  23.681   1.323  0.0955  0.0045  0.1243
44051W        W  292  32.952   9.411  25.558  0.2322  0.2436  0.0620
44052W        W  293  12.883  12.457  20.105  0.0894  0.2987  0.1946
44053W        W  294  16.745  24.658  23.959  0.1667  0.0604 -0.1580
44054W        W  295  30.451  15.456  17.527  0.2799  0.2011  0.3154
44055W        W  296  16.423  10.585   9.277 -0.1957 -0.3803  0.2280
44056W        W  297  24.119  14.988  16.373 -0.2062 -0.1979  0.0260
44057W        W  298  29.679  18.305   9.854  0.2077  0.1025  0.3093
44058W        W  299   7.034   3.254   6.407 -0.1123  0.2458  0.0046
44059W        W  300  13.134  15.950  13.874 -0.0802 -0.1519  0.0099
44060W        W  301  31.593  29.157  14.524 -0.0854  0.0992 -0.1564
44061W        W  302  10.438  14.398  11.959 -0.0445  0.0089  0.1060
44062W        W  303  28.821  33.955  13.384 -0.0712  0.0299 -0.1087
44063W        W  304  18.366  30.868  21.794  0.0853 -0.2665 -0.0995
44064W        W  305  33.343  13.495   8.344  0.4308 -0.2504  0.1423
44065W        W  306  27.879  24.874  26.210 -0.3403  0.2581  0.1008
44066W        W  307  17.052  12.025   0.734 -0.1660  0.2418  0.1010
44067W        W  308  18.310  34.592  16.800  0.0761 -0.0235  0.1650
44068W        W  309  14.976   9.470   0.181 -0.0182  0.1843 -0.5745
44069W        W  310  10.532  17.227  24.344  0.3567  0.2059  0.0114
44070W        W  311   4.810   9.762  25.610 -0.1549  0.2621 -0.1029
44071W        W  312   6.479  13.442   8.901 -0.0082  0.0912  0.0197
44072W        W  313  24.197  19.416  17.026 -0.2520 -0.0222  0.0244
44073W        W  314   0.471  10.270  24.098 -0.1123  0.0380  0.0950
44074W        W  315  27.116  16.562  21.803  0.0026 -0.2433 -0.0064
44075W        W  316  27.516  23.501  11.676  0.0064  0.1338  0.1610
44076W        W  317  31.710  11.072   6.988 -0.1974 -0.1848 -0.1900
44077W        W  318  22.090  23.861  19.002 -0.0605 -0.1892  0.2012
44078W        W  319  18.908  25.576   4.377  0.2100 -0.0329  0.1826
44079W        W  320  15.276   0.788  10.535  0.1790  0.0473  0.2443
44080W        W  321  33.565   2.651  14.758  0.1954 -0.0117  0.2784
44081W        W  322  32.569  33.716   6.329  0.2147 -0.0909  0.1188
44082W        W  323  16.590  29.894  22.729  0.2196 -0.2514  0.0021
44083W        W  324  12.058  23.692   5.042 -0.2210 -0.1479  0.2067
44084W        W  325  29.532  17.225   6.809  0.0241  0.1831 -0.1423
44085W        W  326  29.865  18.514  19.034 -0.2776  0.0573  0.1316
44086W        W  327  22.550   8.621  21.373  0.0202  0.3394 -0.2290
44087W        W  328   9.843  33.146   7.224  0.2666  0.0306  0.2125
44088W        W  329   8.684   0.123  25.626  0.0521  0.4979 -0.5022
44089W        W  330  25.766   9.730  12.643  0.1238 -0.0089  0.3481
44090W        W  331   8.021  13.992   8.672  0.0164  0.0449 -0.0392
44091W        W  332  13.115   4.130   9.002  0.2295  0.3084 -0.1584
44092W        W  333  16.343  24.279  10.693  0.0834 -0.2842  0.3566
44093W        W  334  14.841  33.534   6.759  0.1838  0.0454  0.1638
44094W        W  335  26.277  21.753  21.736 -0.0064 -0.1261 -0.1274
44095W        W  336  11.570   8.235  23.163 -0.2503 -0.2105  0.1158
44096W        W  337  10.715  20.993   7.661 -0.3610  0.1214 -0.1924
44097W        W  338   5.489  32.705  25.387 -0.1402  0.1369 -0.1954
44098W        W  339  26.410  31.030  13.275  0.0660 -0.0108  0.0624
44099W        W  340   5.697  24.299  20.186 -0.2335  0.0806  0.5149
44100W        W  341  35.337  18.898  15.009  0.0850  0.2325 -0.0812
44101W        W  342  30.997   1.800   5.412  0.0405 -0.3838  0.1973
44102W        W  343  25.277   9.520  18.897  0.1011  0.0820 -0.1268
44103W        W  344  31.368  24.458   0.481  0.2969  0.0483 -0.0844
44104W        W  345  32.805  32.641  16.207 -0.0211 -0.2357 -0.1994
44105W        W  346  22.173  18.833   3.303 -0.3352  0.0050 -0.2137
44106W        W  347   9.025  18.415   2.361 -0.3015 -0.3397  0.1092
44107W        W  348   8.830  12.285  24.705 -0.3529  0.0519 -0.2829
44108W        W  349  27.197  13.764  24.838 -0.1162 -0.0415  0.0076
44109W        W  350  22.680  32.739   3.096 -0.1415  0.1447  0.1110
44110W        W  351  20.299  31.439   2.238 -0.0008 -0.1427  0.2014
44111W        W  352  25.840  17.727   8.116  0.2054  0.3208  0.1451
44112W        W  353  14.922  21.837   9.354  0.1005 -0.0217 -0.0781
44113W        W  354  33.076  22.345  25.717 -0.1158  0.2251 -0.2983
44114W        W  355  14.565  21.888   7.290 -0.2245 -0.0134  0.2142
44115W        W  356  24.832  13.238  14.995  0.0549  0.0222  0.0406
44116W        W  357   0.812  34.376  18.477  0.1780 -0.2465  0.0297
44117W        W  358  26.947   2.822  23.301 -0.0518  0.1756 -0.0354
44118W        W  359  23.292  13.856  23.850  0.2171 -0.3864  0.0942
44119W        W  360  15.888  13.759  24.835 -0.0536  0.0452 -0.2450
44120W        W  361  15.673  27.632  25.299  0.1548  0.0300 -0.0257
44121W        W  362  13.975  29.137   8.903 -0.0717  0.1356  0.3240
44122W        W  363  11.963   5.701  25.744 -0.1332 -0.1061 -0.2717
44123W        W  364   2.518  17.507  12.680  0.0990  0.2080 -0.0436
44124W        W  365  35.043  30.775   2.140  0.4683 -0.1267  0.2504
44125W        W  366  31.428  20.442  22.732  0.1661 -0.0579 -0.1250
44126W        W  367   3.696  29.009  20.233 -0.0638  0.2036  0.0570
44127W        W  368  30.404   5.196  14.334  0.0046  0.3949 -0.0350
44128W        W  369   2.263   2.122   7.626  0.1464  0.1705  0.0225
44129W        W  370   8.501   5.556  12.624 -0.1421 -0.1391 -0.1050
44130W        W  371  22.909  21.568  24.744  0.0909  0.0393 -0.1293
44131W        W  372  30.302   0.783  11.304 -0.3456  0.0550 -0.4647
44132W        W  373   2.549  16.233  17.219  0.1928 -0.0584  0.1366
44133W        W  374  15.760  28.441   7.978  0.0437 -0.0451  0.0578
44134W        W  375  27.302  30.327  13.252 -0.0550 -0.3433 -0.1106
44135W        W  376  30.369  33.278   5.448  0.0010  0.0493  0.2150
44136W        W  377  28.023  17.911  16.643 -0.3453  0.1561  0.2641
44137W        W  378  32.499  11.854  12.906  0.1394 -0.2062  0.1953
44138W        W  379   6.806   5.147  24.774  0.0651 -0.0523 -0.0887
44139W        W  380  18.902  29.458   0.659  0.1836 -0.1194  0.1281
44140W        W  381  20.141  25.484  19.046  0.1341  0.1286  0.1653
44141W        W  382  12.641   8.387  22.252  0.2141 -0.0835  0.1474
44142W        W  383  25.617   5.582  25.098  0.3757 -0.2891  0.2381
44143W        W  384   6.840  26.588  25.140 -0.1740 -0.1057  0.1110
44144W        W  385   3.263  33.880   0.261 -0.1555 -0.0417  0.4158
44145W        W  386   9.373  25.726  13.594 -0.1913 -0.2360  0.2083
44146W        W  387   5.658  14.455  19.778  0.1290 -0.0529  0.2566
44147W        W  388  34.083  21.404  17.818 -0.0473 -0.4642  0.0360
44148W        W  389  22.762  11.579  22.240  0.2067  0.0553  0.1387
44149W        W  390  10.976  12.282   2.074  0.0619  0.0911 -0.2409
44150W        W  391   7.987  11.043  17.645 -0.0375  0.3771  0.3481
44151W        W  392   6.820   9.585  25.403 -0.0023  0.0565 -0.0200
44152W        W  393  33.640   9.291  24.278 -0.1640 -0.0713  0.1257
44153W        W  394  34.362   7.165  21.159 -0.0994  0.0774  0.0760
44154W        W  395  17.883  23.130   3.192  0.1620 -0.0266  0.0723
44155W        W  396  13.193  21.567  15.516 -0.1713  0.1675 -0.0250
44156W        W  397   4.347  26.079  24.993  0.2007  0.0574  0.0358
44157W        W  398  27.366   9.505  13.200 -0.1491  0.1495 -0.2071
44158W        W  399  30.699  14.142   7.319  0.1323  0.0614  0.4922
44159W        W  400   7.503  33.256  21.116  0.2396 -0.3469  0.0939
44160W        W  401  18.345   9.168   5.478  0.2704  0.2825  0.0611
44161W        W  402  28.942  12.414   6.931  0.0086 -0.1056 -0.0634
44162W        W  403  30.572  10.747  23.208  0.0345 -0.1934 -0.1022
44163W        W  404  11.295  10.524  13.489  0.1321 -0.0079 -0.2613
44164W        W  405  15.645  13.403  19.045 -0.0356 -0.3652 -0.0542
44165W        W  406   7.499   0.735  14.718 -0.0007 -0.0625 -0.0906
44166W        W  407  30.533   8.142  10.113  0.0025 -0.0750  0.1298
44167W        W  408  32.341  19.954  14.283  0.2856  0.2189  0.0762
44168W        W  409  18.562  15.838  18.920 -0.0353 -0.1374  0.0418
44169W        W  410   1.255   5.997  22.003 -0.0311 -0.4010 -0.1991
44170W        W  411  14.575   3.275   5.136 -0.1396  0.1788 -0.0284
44171W        W  412  20.110   7.061  17.602  0.2069  0.0999  0.2582
44172W        W  413  13.001  15.595  14.398  0.0746  0.2137  0.1110
44173W        W  414   5.036  11.052   3.886 -0.0180 -0.1170 -0.2443
44174W        W  415  18.321  13.278  21.834  0.1628 -0.2963 -0.2907
44175W        W  416  26.333  14.657  14.411  0.0454  0.3956 -0.1831
44176W        W  417  14.380  18.720   0.673 -0.0122  0.1882 -0.2799
44177W        W  418   0.865  32.169  17.664  0.0521  0.2871  0.0202
44178W        W  419  34.672   4.515  18.358  0.2066 -0.0267 -0.1519
44179W        W  420  32.852  18.948   6.939  0.1382  0.0355 -0.0063
44180W        W  421  19.847   4.443  16.723  0.0316  0.3141  0.0580
44181W        W  422   8.332  33.065   8.811 -0.1280 -0.0486  0.0221
44182W        W  423  34.137   5.656   5.857 -0.1695  0.2552 -0.0362
44183W        W  424   6.071   8.566   6.714 -0.0294 -0.0580  0.2612
44184W        W  425  30.695   3.886  21.346 -0.1379 -0.0200 -0.0190
44185W        W  426  29.811   1.334  11.645  0.2401 -0.0575  0.0071
44186W        W  427  34.188  29.093   4.884  0.1132  0.0075  0.0614
44187W        W  428   2.340  16.557  20.804  0.0603  0.1070 -0.4366
44188W        W  429   9.228  15.781   3.013  0.1287  0.4159  0.2416
44189W        W  430  11.802  14.353   6.030 -0.1195  0.1314 -0.0204
44190W        W  431   3.630  34.317  12.528 -0.0006 -0.2918 -0.3573
44191W        W  432   3.265  24.867   2.453 -0.1623  0.0219 -0.1087
44192W        W  433  18.230  11.059  11.979  0.1147 -0.0103 -0.1279
44193W        W  434  34.554  30.084   3.612  0.0119  0.1714  0.1077
44194W        W  435  16.851  27.729   4.760 -0.1736  0.1631  0.2933
44195W        W  436  11.421  16.837  13.182  0.2511  0.0299 -0.0156
44196W        W  437  27.582   3.219  13.603  0.1540 -0.1351 -0.0692
44197W        W  438  17.927   5.457   1.959 -0.0246 -0.0435 -0.1761
44198W        W  439  34.357  20.370  24.841 -0.3940 -0.0249  0.0721
44199W        W  440   7.952  18.105  19.366 -0.2823 -0.1101  0.3060
44200W        W  441  29.149  27.207  22.373  0.0927 -0.2318 -0.0617
44201W        W  442   4.162  35.003   5.250  0.3677 -0.0018 -0.0972
44202W        W  443  26.525  22.711  11.750 -0.3287  0.0258  0.0949
44203W        W  444  10.402   1.303   0.167 -0.6186  0.1623  0.0248
44204W        W  445  26.277  23.103  15.225  0.0173  0.0587  0.0909
44205W        W  446  14.665  11.947   0.357  0.0016 -0.3057 -0.4522
44206W        W  447  27.263  20.145   8.957  0.1337  0.2498 -0.1754
44207W        W  448   5.325  35.155  11.878 -0.0340  0.2464  0.2522
44208W        W  449  15.751  29.965   3.610  0.4793 -0.2590  0.3820
44209W        W  450   2.302  22.579  17.551  0.2870  0.1120 -0.1130
44210W        W  451  22.729  31.875   1.854  0.3163 -0.2049  0.0321
44211W        W  452  18.545   6.626   2.793 -0.0591 -0.2564 -0.3129
44212W        W  453  30.055  28.209  13.172 -0.2627 -0.3393  0.3190
44213W        W  454  13.118  11.809   7.998 -0.0463  0.2003  0.2345
44214W        W  455  26.030   9.690   9.239  0.0918 -0.2146 -0.2157
44215W        W  456   4.196   2.058  18.939  0.2888 -0.0029  0.0920
44216W        W  457   0.456  33.617  16.285  0.1555  0.1127  0.0434
44217W        W  458   9.208   6.232   9.913  0.1174  0.0665 -0.1920
44218W        W  459   6.277  11.912  19.730 -0.1479  0.3923  0.1017
44219W        W  460  27.649  12.676   0.141 -0.4744 -0.2398 -0.3574
44220W        W  461  19.447  14.159  18.609 -0.3423 -0.1355 -0.2323
44221W        W  462  19.956   7.518  22.162  0.0302 -0.2555  0.0001
44222W        W  463   1.862  29.935   2.730 -0.0162  0.2300 -0.0670
44223W        W  464  16.909   5.062   0.133  0.2401  0.1444  0.2217
44224W        W  465  10.019  25.966   8.103  0.1011  0.0577  0.1651
44225W        W  466   8.965  12.367   9.025 -0.3491 -0.2289 -0.0916
44226W        W  467   2.233  17.804  15.387 -0.0455 -0.3386 -0.3028
44227W        W  468   1.390  12.811   2.088 -0.0500 -0.4658 -0.0138
44228W        W  469  10.065  15.072   7.548 -0.0670 -0.1704 -0.2935
44229W        W  470  14.401  21.687   2.571 -0.0140  0.0234 -0.1433
44230W        W  471  12.046   7.373   6.233 -0.0182  0.2099  0.2256
44231W        W  472  25.395   8.874  23.457 -0.0091  0.2402 -0.2892
44232W        W  473  30.412  16.148  19.129 -0.0830  0.1171  0.0194
44233W        W  474  34.236  14.632   0.679  0.1423  0.1496  0.3474
44234W        W  475   1.916   4.055  20.889  0.1562  0.2476  0.3588
44235W        W  476   6.459  18.839  21.514 -0.0389  0.0640  0.2959
44236W        W  477  13.030  28.734   2.871  0.2361  0.0447  0.0182
44237W        W  478  11.333  10.185   1.298 -0.0460 -0.3390  0.2230
44238W        W  479   0.482  26.146  24.246 -0.1391  0.0119  0.2477
44239W        W  480  24.114  33.563  24.170 -0.2894 -0.0407  0.1556
44240W        W  481  16.912   3.028  24.906  0.0358  0.0305  0.0422
44241W        W  482  17.254   3.790   5.092 -0.3095  0.0036 -0.1141
44242W        W  483   4.340  30.575   9.615 -0.1034  0.1827  0.1641
44243W        W  484  13.274  16.598   3.196 -0.1588  0.2293 -0.1200
44244W        W  485   6.063  10.240  19.061  0.0120  0.0274 -0.2982
44245W        W  486  29.726  22.956   8.336  0.0334  0.0250 -0.1126
44246W        W  487  28.672  28.772  19.280  0.3001 -0.0208  0.0944
44247W        W  488  14.843  15.913  12.977 -0.1514  0.3145  0.0973
44248W        W  489  16.997  14.717  13.671 -0.0163 -0.0429 -0.0284
44249W        W  490  24.144  12.021  15.442  0.0241  0.0992 -0.0948
44250W        W  491   4.157   3.395   1.606  0.3149 -0.1955  0.0475
44251W        W  492  29.178  14.800  10.907 -0.1097  0.0956 -0.4180
44252W        W  493  20.152  12.266   9.896 -0.1342 -0.1028  0.2548
44253W        W  494  20.879  26.944  24.101 -0.2050 -0.1755  0.0844
44254W        W  495  30.508  23.783  17.253  0.1677  0.0427  0.0079
44255W        W  496   7.269  13.418  25.273 -0.1462 -0.1517  0.0201
44256W        W  497   0.923  22.158  24.103 -0.3637 -0.0879  0.0709
44257W        W  498  31.125  10.825   8.692 -0.0389 -0.0909  0.1879
44258W        W  499  33.747  19.795  15.317 -0.0463 -0.0478  0.0336
44259W        W  500  31.323   1.431   5.554  0.1242  0.1205 -0.1864
44260W        W  501  30.045  23.359  25.014 -0.0961 -0.1318 -0.1088
44261W        W  502   7.721  18.012  11.501 -0.1308  0.1476  0.1776
44262W        W  503   6.682  27.557  12.336 -0.1158  0.0964  0.5338
44263W        W  504  18.378  23.538   7.562 -0.3470  0.3354 -0.0137
44264W        W  505  13.027   6.727  24.490  0.3746  0.1792 -0.0080
44265W        W  506  25.461  33.633  24.688  0.0624 -0.0548 -0.0734
44266W        W  507  12.805   2.964   9.345  0.2901 -0.0161  0.2306
44267W        W  508   7.178  12.202   2.314  0.1459  0.1840 -0.0760
44268W        W  509  32.465  14.708   9.168  0.1641  0.1707 -0.2925
44269W        W  510   9.047  23.309   7.402 -0.0143 -0.2023 -0.1997
44270W        W  511   4.565  17.119   4.327 -0.1248 -0.1264 -0.1082
44271W        W  512  22.123   1.377  23.485 -0.1469 -0.0373 -0.1253
44272W        W  513   8.693  10.378  20.120  0.0495 -0.1109 -0.0569
44273W        W  514   7.861  27.214  17.136  0.0976  0.0116 -0.2035
44274W        W  515  18.294  25.763   0.924  0.1786 -0.0668 -0.0886
44275W        W  516  21.060   3.544  17.492 -0.3760 -0.1458  0.2655
44276W        W  517  26.044  27.460  17.753 -0.1244 -0.2849  0.3395
44277W        W  518  26.933  13.517  15.462  0.0730  0.3202 -0.1370
44278W        W  519  14.634  30.802   0.819 -0.2515  0.0953  0.1616
44279W        W  520  17.638  20.298  20.290 -0.0619 -0.1035  0.1206
44280W        W  521  28.063   5.309  13.476 -0.0047 -0.4295 -0.0578
44281W        W  522  31.445  11.833  18.605 -0.1628  0.2158  0.0329
44282W        W  523  11.134   4.092  21.821 -0.3290 -0.1052 -0.2209
44283W        W  524  26.152  31.481   5.523  0.0752  0.0134 -0.0617
44284W        W  525  29.355   1.768  23.539  0.0988  0.2463 -0.0325
44285W        W  526   6.092  34.613   3.345 -0.2244 -0.1539  0.5217
44286W        W  527   7.629   7.271   4.808 -0.2326 -0.2406  0.2410
44287W        W  528  25.628  20.974  25.934 -0.5685  0.1259  0.0384
44288W        W  529  24.779   5.106  21.000 -0.3447 -0.1206 -0.0289
44289W        W  530  19.597  14.504   9.726  0.0496  0.1774 -0.1565
44290W        W  531  25.610  34.827  12.716  0.2097 -0.0228 -0.1239
44291W        W  532  13.927  17.991   1.655 -0.2876 -0.0541  0.0412
44292W        W  533   7.666  17.771  18.969  0.1078  0.0432 -0.0027
44293W        W  534  34.259  22.728  22.036  0.2265 -0.2227  0.2317
44294W        W  535  21.699   7.586  16.845  0.2620  0.0011  0.1714
44295W        W  536  18.226   1.769   6.156  0.3220 -0.0225 -0.1096
44296W        W  537  14.565   7.175  12.893 -0.1061 -0.3894 -0.1626
44297W        W  538  14.079  12.318  23.695  0.0446  0.1190  0.1957
44298W        W  539  24.644  16.138   9.137 -0.2341  0.2839  0.1805
44299W        W  540   8.391  13.621  18.291  0.0379 -0.3679 -0.2983
44300W        W  541   4.251   7.805   3.162  0.1024 -0.0081 -0.0113
44301W        W  542  32.302  17.450  22.951 -0.1836  0.0316  0.2333
44302W        W  543  18.362  21.162   7.206 -0.1236 -0.0678  0.1421
44303W        W  544  29.058   7.352   0.772 -0.0100 -0.4121 -0.1304
44304W        W  545  27.811  18.551   8.631  0.2255  0.0031  0.0366
44305W        W  546  21.664  16.702  23.937 -0.3066  0.0547 -0.0104
44306W        W  547  31.105  20.922   8.644  0.0517 -0.3580  0.0442
44307W        W  548  31.669  31.360  13.078 -0.0559 -0.2149 -0.0793
44308W        W  549  23.061   3.874  24.536  0.0623 -0.3377 -0.1147
44309W        W  550   8.655  34.560  25.804  0.1983  0.1371  0.1175
44310W        W  551  21.202  15.529  19.939 -0.0024 -0.4141  0.0123
44311W        W  552   1.488  23.111  12.585  0.5082 -0.0330 -0.2187
44312W        W  553  24.518  34.294  25.728  0.0819 -0.2247  0.2517
44313W        W  554  33.050  33.977   2.867 -0.1738 -0.0031  0.1022
44314W        W  555  25.817  22.499  21.690  0.1341  0.1422 -0.0556
44315W        W  556  26.049  11.207  18.958  0.0459 -0.3586 -0.2240
44316W        W  557  17.588  35.316   8.802  0.0315 -0.2157  0.0616
44317W        W  558  11.311  14.354  12.017  0.1664 -0.1037 -0.1795
44318W        W  559  18.216  25.204  10.044  0.2362 -0.1605 -0.1157
44319W        W  560  31.302  15.120  13.690  0.1631 -0.3205 -0.0653
44320W        W  561  19.810  10.943  18.834  0.0034  0.0653  0.1025
44321W        W  562  15.014  20.539  14.687  0.1298  0.1044  0.2941
44322W        W  563  28.779   6.224   9.564 -0.1615  0.1043  0.1437
44323W        W  564  15.804  12.500  22.410 -0.0307 -0.0165  0.2108
44324W        W  565  18.952  19.876   4.455  0.1171 -0.1039 -0.0392
44325W        W  566  18.473  10.652  26.051  0.0944 -0.2072 -0.0253
44326W        W  567  23.531  33.891  21.646 -0.1989  0.2021 -0.3633
44327W        W  568   5.842   9.541  22.082 -0.1588 -0.1632  0.1691
44328W        W  569   3.991   1.166  22.411  0.1115 -0.0414 -0.1823
44329W        W  570  27.650  26.157   1.429 -0.3900 -0.0408  0.1834
44330W        W  571  23.152   2.200  24.700 -0.0337 -0.3882  0.1065
44331W        W  572  25.918  21.997  20.673 -0.1853 -0.0134 -0.2290
44332W        W  573  31.537  20.229  16.185 -0.0880  0.1445  0.0274
44333W        W  574  27.590  18.549  25.109  0.0607 -0.0786  0.0541
44334W        W  575   8.075   8.971  18.491 -0.0854  0.0274 -0.0184
44335W        W  576  33.127  34.637  19.182 -0.0614  0.1345  0.1083
44336W        W  577  22.560  28.285   2.288  0.1357  0.0668 -0.0766
44337W        W  578   5.132   1.170  11.693  0.0416 -0.2910  0.1718
44338W        W  579   0.119  27.910  20.734  0.0753 -0.0543 -0.2869
44339W        W  580  33.391  15.227  19.755 -0.0279  0.1417 -0.2382
44340W        W  581  31.190  22.977  16.057  0.4553 -0.1220 -0.1804
44341W        W  582  29.983   2.535   0.146 -0.3382  0.0547  0.2620
44342W        W  583  32.825  20.654  19.597 -0.0886 -0.1634 -0.0925
44343W        W  584  21.922   8.525   3.852 -0.3591 -0.0556 -0.1227
44344W        W  585  28.468  15.970  21.549 -0.1478 -0.1704 -0.0679
44345W        W  586  17.873  34.513   9.206  0.2210 -0.0023 -0.1733
44346W        W  587   9.856  19.101   6.233 -0.0532  0.1871 -0.0076
44347W        W  588   5.847  23.350   2.769  0.0357  0.3658  0.0240
44348W        W  589  23.152   7.622   3.159 -0.0320  0.0733  0.0794
44349W        W  590  34.392  13.129  26.153 -0.0506  0.1160  0.0602
44350W        W  591  16.891  26.589  12.433 -0.0673  0.1945 -0.1416
44351W        W  592  15.775  25.907   3.963 -0.1826 -0.2736 -0.1384
44352W        W  593   6.929   2.123   4.503  0.0146 -0.1102  0.0653
44353W        W  594   9.867  31.095   0.382 -0.0714 -0.0488 -0.0706
44354W        W  595  11.787  20.442  23.373  0.0906  0.0276  0.1289
44355W        W  596  32.434  26.332  22.401  0.0893 -0.1015 -0.1333
44356W        W  597  19.155  21.834  10.634  0.0339  0.0654 -0.4473
44357W        W  598  17.105  34.893  23.730  0.1378  0.0177  0.1307
44358W        W  599  12.062  30.957   5.250 -0.3265  0.0058 -0.0784
44359W        W  600   0.429  32.310  21.451  0.0417 -0.1511 -0.0734
44360W        W  601   8.089   5.951   3.064  0.1133  0.0999 -0.2689
44361W        W  602   0.062  13.588  10.462  0.0147  0.1812 -0.2135
44362W        W  603   9.987  22.611   5.213 -0.2383  0.1897 -0.0939
44363W        W  604   0.209  32.225  20.956  0.0036 -0.2215 -0.1738
44364W        W  605  25.548   2.758  11.920  0.0258 -0.0999 -0.0275
44365W        W  606  25.846  28.665  18.790  0.2225 -0.0796 -0.0976
44366W        W  607  18.797   7.189   0.394 -0.0157  0.1385  0.0317
44367W        W  608   2.401   1.433   1.776 -0.2108  0.4308 -0.0323
44368W        W  609  22.892  27.669  22.091  0.0617  0.0022  0.3785
44369W        W  610   4.674  18.578  17.405 -0.0595 -0.1563  0.1251
44370W        W  611  15.763  20.113  23.986 -0.0656 -0.1711 -0.1462
44371W        W  612  19.088   9.020   4.618  0.1396 -0.3047  0.0999
44372W        W  613  15.171   2.684  19.462  0.0072 -0.0480 -0.0778
44373W        W  614  14.779  19.193   6.442 -0.1149 -0.3734  0.0814
44374W        W  615  13.127  33.439   6.264  0.1215  0.2122 -0.0091
44375W        W  616  30.173  19.589  17.381 -0.1585 -0.1407 -0.0604
44376W        W  617  18.872  19.333   9.025  0.1419 -0.0942  0.0621
44377W        W  618  24.983  29.650  18.913 -0.0836 -0.2977 -0.2889
44378W        W  619   2.686  19.110  17.205 -0.0030  0.0699  0.0041
44379W        W  620  17.167  10.810   2.660 -0.2323 -0.1276 -0.0618
44380W        W  621   2.998  17.686  24.755 -0.3924  0.1376 -0.0261
44381W        W  622  10.058  13.809  21.762 -0.0008  0.0264  0.1420
44382W        W  623   0.540   5.449  17.180  0.0407  0.1971  0.4399
44383W        W  624  33.863   0.682  16.111 -0.2879  0.1627 -0.0258
44384W        W  625  21.583  21.792  22.523 -0.1198 -0.0953 -0.2249
44385W        W  626   1.965  34.958   8.708  0.0637  0.0242 -0.1624
44386W        W  627  29.916   9.816  18.680  0.1973  0.0477  0.1726
44387W        W  628  24.043   1.818  15.688 -0.2248  0.2192 -0.0921
44388W        W  629  24.887   4.597  18.822 -0.1199  0.0110  0.3099
44389W        W  630  28.927  20.886  23.015  0.0426  0.0992 -0.0514
44390W        W  631  32.772  34.343  15.591 -0.0397  0.1769 -0.0229
44391W        W  632  15.797  35.254   7.584 -0.2174  0.3739 -0.0598
44392W        W  633   6.492  20.991  21.745 -0.2413 -0.1829 -0.2445
44393W        W  634  29.924  26.065  22.653 -0.0341  0.0510  0.1422
44394W        W  635   7.243  25.320  24.764  0.2337  0.0325 -0.3788
44395W        W  636  12.491   2.951   8.490 -0.0178 -0.0216  0.3467
44396W        W  637  31.800  22.141  19.054  0.0014 -0.2108 -0.1011
44397W        W  638  20.428  25.019  16.771 -0.4681  0.1472  0.0626
44398W        W  639   1.205   4.102  16.147 -0.0708  0.0688 -0.0963
44399W        W  640   9.808  17.712  13.375 -0.1027  0.1853 -0.0244
44400W        W  641  32.395  17.850  13.599 -0.1126 -0.0960 -0.1217
44401W        W  642   8.992  12.780  10.924 -0.3351  0.1339  0.0596
44402W        W  643  25.055  18.668  22.774 -0.1258  0.1494  0.0591
44403W        W  644   0.633   3.092   4.463  0.2055 -0.2425 -0.0748
44404W        W  645  11.497   6.604   0.260 -0.1427 -0.0766  0.1517
44405W        W  646  24.897  26.354  20.832 -0.2901 -0.1464  0.2112
44406W        W  647  21.395  31.132   4.839  0.0111 -0.0958 -0.1897
44407W        W  648   5.519  13.087  20.443 -0.3306 -0.2502  0.1067
44408W        W  649   1.819  19.963  14.127 -0.0411  0.2467  0.0648
44409W        W  650  11.707  25.087  11.714 -0.2944 -0.0166 -0.1074
44410W        W  651   2.494  31.366  19.199  0.0223  0.1359 -0.1525
44411W        W  652  28.603  11.092  13.801  0.1722 -0.1807  0.3585
44412W        W  653  21.855  26.283  16.191  0.1513 -0.0641 -0.3384
44413W        W  654  33.874  20.984  13.640  0.0117  0.1471  0.0787
44414W        W  655  32.371  11.335  13.241  0.0283  0.1076 -0.0176
44415W        W  656  18.361  21.652  19.916  0.3323 -0.0150 -0.0181
44416W        W  657   1.048  34.229   6.574  0.1251  0.0422 -0.3110
44417W        W  658  12.970  23.948  12.999  0.0586  0.1037  0.1437
44418W        W  659   1.970   4.357   8.136 -0.2264 -0.2063  0.5290
44419W        W  660   5.831   7.252   2.376 -0.0253 -0.0597  0.0611
44420W        W  661   8.976   7.160   8.218 -0.1304 -0.1030 -0.1136
44421W        W  662  26.621  12.429  15.608 -0.3336 -0.3018  0.1283
44422W        W  663   8.571  19.476   1.534 -0.0698 -0.2509 -0.5577
44423W        W  664  18.862  10.206   3.128  0.2910  0.2731 -0.0779
44424W        W  665   2.689  31.402   2.337  0.1224  0.1473 -0.0283
44425W        W  666  10.706   3.905  13.553 -0.1723  0.3219  0.1233
44426W        W  667  26.951  15.822   9.157  0.1145  0.2750 -0.1481
44427W        W  668  15.419  29.992  10.563  0.2824  0.1726  0.1241
44428W        W  669  32.609  20.732   6.556 -0.1258 -0.1654  0.2382
44429W        W  670   7.746  26.858   7.287 -0.1882 -0.0416 -0.2377
44430W        W  671  19.252  10.021   9.200  0.0979 -0.0340 -0.0254
44431W        W  672  13.472  30.471   8.014 -0.0542  0.1524  0.0818
44432W        W  673  29.799  34.079  25.235  0.1809 -0.0254 -0.2054
44433W        W  674  24.050  16.000  11.481 -0.1801 -0.0430  0.0782
44434W        W  675   8.074  12.464   1.052 -0.0849  0.5653  0.0363
44435W        W  676  20.958  24.088  16.921 -0.0590 -0.0531 -0.4163
44436W        W  677  18.901   4.176  25.406  0.0525  0.1981 -0.2347
44437W        W  678  29.211  35.204  19.299  0.1526  0.1029 -0.0998
44438W        W  679   4.214  32.297  10.747  0.2518 -0.0201  0.1284
44439W        W  680  12.743  22.138  12.132 -0.1045  0.0681  0.0558
44440W        W  681  32.661  26.336  25.250  0.4330 -0.1513  0.1650
44441W        W  682  23.427  24.415  12.897 -0.0692  0.3000  0.0791
44442W        W  683  34.985  26.508  19.867 -0.2295 -0.1368 -0.1521
44443W        W  684  17.021  27.407  10.390  0.0147 -0.2041 -0.3285
44444W        W  685  31.871  16.242  18.368  0.0259  0.2348  0.2598
44445W        W  686  19.207  24.076   2.195 -0.1335 -0.3598 -0.4173
44446W        W  687  15.755  18.883  22.277  0.1487 -0.1799  0.2406
44447W        W  688  12.488  17.881  24.701  0.1969 -0.0204 -0.4094
44448W        W  689  29.274  24.831  24.191 -0.1582  0.3944  0.3039
44449W        W  690   8.478  11.089   7.458  0.1220  0.0601 -0.0232
44450W        W  691  11.360  34.997   1.070  0.2521  0.1700 -0.0878
44451W        W  692  35.108  28.225  20.777  0.0459  0.0275  0.1979
44452W        W  693  26.219   9.188  16.456  0.3640  0.0153  0.1804
44453W        W  694  22.815  16.457  22.652 -0.1391  0.0039  0.4324
44454W        W  695  33.488  30.057  13.406  0.1135 -0.0585 -0.0748
44455W        W  696  12.920  23.782   2.781  0.2962 -0.0243 -0.0000
44456W        W  697   6.862  14.542  26.110 -0.1813  0.0894 -0.3090
44457W        W  698   6.334   4.252  20.945 -0.1160 -0.0527 -0.4015
44458W        W  699  32.392  10.670  11.947 -0.1966 -0.1456 -0.1322
44459W        W  700  32.905  15.743  24.290 -0.0820 -0.0421 -0.1968
44460W        W  701  34.641  20.453   7.792 -0.1719 -0.3471  0.1226
44461W        W  702   9.617  21.182   9.804 -0.1583  0.0668 -0.2451
44462W        W  703   9.822  29.019  25.991 -0.0739 -0.1655 -0.1128
44463W        W  704  26.997  32.345  18.735  0.0541 -0.2649  0.1152
44464W        W  705   8.083   3.961  20.547 -0.1809  0.1027 -0.1443
44465W        W  706   4.718   2.045   3.106  0.0060  0.1582  0.2130
44466W        W  707   1.987   6.805   1.731  0.0113 -0.1954  0.1402
44467W        W  708   3.567   5.790  23.108 -0.2154  0.0779 -0.0361
44468W        W  709  24.230  20.097  14.896  0.2182 -0.0789 -0.0183
44469W        W  710  30.806  12.015  20.957  0.0429  0.1294  0.1204
44470W        W  711  33.659   7.818  16.682  0.2498  0.0539  0.0539
44471W        W  712  16.956  14.146  19.721  0.2646  0.0974 -0.5866
44472W        W  713  15.132  25.884   2.514  0.1229 -0.0638 -0.0155
44473W        W  714  16.550   2.608   5.003 -0.1590  0.1225  0.3901
44474W        W  715  30.687  22.419  15.577 -0.1450 -0.2122  0.0120
44475W        W  716   8.727   4.507  22.750  0.4534 -0.2522  0.1353
44476W        W  717  28.082  32.803  17.037  0.0206  0.0779 -0.0959
44477W        W  718  28.773   7.748  21.987 -0.1908 -0.0636 -0.0916
44478W        W  719   7.549  13.805  25.209 -0.1039  0.0394 -0.1792
44479W        W  720  10.035  16.166   2.956 -0.1051 -0.1319 -0.0704
44480W        W  721  21.450  18.675  22.826  0.0655  0.1215  0.2761
44481W        W  722   4.076  32.428  25.771  0.1791  0.0848  0.0710
44482W        W  723  23.919  19.804  17.374  0.0615 -0.0673 -0.1149
44483W        W  724   2.913  30.976   1.887 -0.0279  0.1698  0.2160
44484W        W  725   2.139   8.766   3.589 -0.0478 -0.3966  0.3167
44485W        W  726   4.727   1.512   8.102 -0.2975 -0.0883 -0.1030
44486W        W  727  33.534  23.907  12.541 -0.0230 -0.4202 -0.3779
44487W        W  728  18.324  33.931  20.274 -0.3123  0.2641  0.1340
44488W        W  729  12.095  31.638  25.225 -0.2553  0.1857 -0.0792
44489W        W  730  27.009   0.184  12.315 -0.0539  0.0208  0.0825
44490W        W  731   8.954  15.305  24.530  0.0526  0.3343 -0.1203
44491W        W  732   7.889  19.416  22.137  0.0079 -0.0553  0.0715
44492W        W  733  24.286   5.144  24.503  0.2567 -0.0429  0.4333
44493W        W  734  23.923  32.096  22.010 -0.1887  0.0557  0.2499
44494W        W  735   4.794  19.425  20.527  0.0702  0.0392  0.0167
44495W        W  736  30.215   2.479   6.454  0.0098 -0.2472  0.0251
44496W        W  737   1.325  20.233  11.899 -0.2732 -0.1414 -0.2821
44497W        W  738  33.205  23.549  25.787  0.1353 -0.0519  0.0369
44498W        W  739  25.081   9.671  14.668 -0.4509 -0.2174  0.3385
44499W        W  740  22.824   2.896  23.573  0.2430  0.2344  0.1525
44500W        W  741  19.995   3.057  20.879  0.0713 -0.2193 -0.2229
44501W        W  742  10.221  25.249   4.883 -0.0556 -0.0744 -0.2508
44502W        W  743   0.029  19.444  14.983 -0.0407 -0.0518  0.1767
44503W        W  744  15.701   9.586  23.583  0.1880  0.0543  0.0287
44504W        W  745  15.585  33.058   6.909  0.0495 -0.3240 -0.0178
44505W        W  746  13.990  11.263  13.015 -0.1041 -0.2492  0.0537
44506W        W  747  18.642   7.837  20.520  0.0887  0.3464  0.1947
44507W        W  748  18.652  18.146  18.652 -0.1268 -0.1654  0.2301
44508W        W  749   0.163  10.727  21.505 -0.3054  0.0914  0.0281
44509W        W  750  16.163  16.720   7.137 -0.3004  0.1457 -0.4224
44510W        W  751  14.899  34.630  10.233  0.0972 -0.0706 -0.1341
44511W        W  752  22.067  18.947   2.132  0.5219  0.0803  0.2256
44512W        W  753   0.327  12.484   1.619 -0.0463 -0.3520 -0.0337
44513W        W  754   1.773  26.304  23.340 -0.2308  0.0440 -0.0947
44514W        W  755  26.207  17.004  23.436 -0.0234  0.1248  0.0024
44515W        W  756   1.182   2.496   6.143  0.0107 -0.2565  0.0311
44516W        W  757  21.786  23.522   1.816  0.1100  0.0456 -0.1387
44517W        W  758  31.314  30.220  14.584 -0.1527  0.2242  0.0821
44518W        W  759  14.792  13.415  22.355 -0.0864 -0.0614  0.2516
44519W        W  760   9.115   8.948  10.439  0.0657 -0.0644 -0.0402
44520W        W  761  23.166  14.167   1.574  0.1959  0.1338  0.3827
44521W        W  762  22.109  31.655  12.885 -0.2151 -0.2550  0.1667
44522W        W  763   9.323  12.758  25.511  0.1058  0.0840  0.0655
44523W        W  764  31.794  29.423  16.699 -0.0338 -0.1630  0.0391
44524W        W  765  31.497   5.045   5.577 -0.0719  0.5310  0.0851
44525W        W  766  12.023  12.479   0.805 -0.0585 -0.0164 -0.1017
44526W        W  767  11.604  31.724   0.176 -0.1575 -0.3629 -0.0989
44527W        W  768  23.068   1.384  23.716 -0.1168 -0.0335  0.1385
44528W        W  769  19.760  20.570  24.195 -0.1755  0.0189 -0.0827
44529W        W  770   4.805  26.762   3.591 -0.1631 -0.3578 -0.2636
44530W        W  771   1.322  26.458  23.148 -0.0771  0.1893  0.0106
44531W        W  772  16.539  24.510   2.338  0.2553 -0.0556 -0.2675
44532W        W  773  27.862   8.478   9.018 -0.0376  0.0823  0.1300
44533W        W  774  31.670  28.273   0.300 -0.0890 -0.3210  0.1901
44534W        W  775  29.551  28.260   3.452  0.0944 -0.0035 -0.2337
44535W        W  776   9.520  28.560   0.378 -0.1340 -0.0082  0.4443
44536W        W  777  32.450   6.933  14.967 -0.2942  0.0706 -0.0848
44537W        W  778  12.609  18.504   0.913  0.1919  0.1177  0.1222
44538W        W  779   3.910   7.104  24.002  0.3049  0.0267  0.0327
44539W        W  780  11.628  34.672  24.267  0.0604  0.2199  0.1794
44540W        W  781  19.331  12.186  19.493  0.0593 -0.1125 -0.0777
44541W        W  782   6.989  16.692   7.618  0.0052  0.0366  0.0190
44542W        W  783   2.217  13.622   0.250 -0.1596  0.0066 -0.0624
44543W        W  784   5.402  34.469   2.091 -0.0715  0.0821  0.0884
44544W        W  785  22.866   3.571  26.209 -0.0879 -0.0304  0.3507
44545W        W  786   2.442   8.292  25.041 -0.2271 -0.0504 -0.1816
44546W        W  787  25.357  19.958  23.400 -0.1831 -0.1363 -0.1335
44547W        W  788  31.569  12.579  15.099 -0.1556  0.0812 -0.0960
44548W        W  789   3.211  29.383   0.156 -0.0961 -0.1955 -0.1043
44549W        W  790   0.651  18.538  21.275  0.0164  0.0289  0.0912
44550W        W  791   9.673  33.065  22.056  0.0896  0.1477  0.0039
44551W        W  792  25.165   9.105   0.955 -0.0121  0.1195 -0.2317
44552W        W  793  12.240   2.281  22.266 -0.1622 -0.1925  0.0124
44553W        W  794  24.552   6.320   2.237 -0.1220 -0.2176  0.1920
44554W        W  795   5.025   2.119  23.351 -0.0215  0.2850 -0.0950
44555W        W  796  27.197   9.373   8.926 -0.0982 -0.0456 -0.1043
44556W        W  797  32.666  13.240  18.824 -0.2562 -0.1517  0.1160
44557W        W  798  14.023  27.199  22.762  0.0031 -0.2130 -0.1196
44558W        W  799  15.623  14.606   8.762 -0.1146 -0.1189  0.4563
44559W        W  800  32.111  17.802  18.271  0.1212  0.0925 -0.1177
44560W        W  801  19.163  32.366  19.599 -0.1790  0.1048 -0.0799
44561W        W  802   8.234  22.524   2.567 -0.1455  0.0824 -0.0365
44562W        W  803   2.727  11.335  20.730 -0.0332  0.2696 -0.0383
44563W        W  804  27.755   7.246  17.627  0.1092 -0.3003 -0.0778
44564W        W  805  26.966  27.932   0.532  0.1713 -0.2796  0.3937
44565W        W  806   1.278  19.992  16.933  0.5448  0.1472  0.4854
44566W        W  807   5.181  32.331  24.682 -0.2519 -0.3866 -0.1411
44567W        W  808  15.202   5.251  19.039 -0.2437  0.3196  0.1532
44568W        W  809   1.619   6.564  16.779  0.3665 -0.0353  0.0244
44569W        W  810  27.194  16.157   6.247 -0.0816  0.1315 -0.2437
44570W        W  811   8.968  28.718  14.197 -0.0573 -0.2749  0.2997
44571W        W  812  18.127  26.968   8.932 -0.0550 -0.0179 -0.1664
44572W        W  813  16.082   3.131  19.776 -0.2715  0.3666  0.0042
44573W        W  814   8.735  29.487  25.760 -0.1914 -0.2420 -0.0267
44574W        W  815  23.683  11.644  13.420 -0.1407  0.0201 -0.0410
44575W        W  816   0.333  25.603  16.388  0.0992  0.2326  0.3331
44576W        W  817  17.617  16.545   8.251  0.2035 -0.1084  0.1052
44577W        W  818  19.037  33.166  21.753  0.0011  0.0454 -0.1344
44578W        W  819  19.108   6.803   7.510  0.0061  0.1223 -0.0997
44579W        W  820  12.872  25.796  12.312 -0.1644 -0.2393 -0.1677
44580W        W  821  26.629  29.856  22.930 -0.2315  0.1455 -0.2017
44581W        W  822   0.758   9.396  19.599 -0.0124  0.2006 -0.2249
44582W        W  823  11.134   0.605  12.121 -0.5963 -0.2125 -0.3245
44583W        W  824  34.446  32.337  16.237 -0.1190  0.1063  0.2075
44584W        W  825   0.334  20.847  15.248 -0.0012  0.2630  0.2389
44585W        W  826  12.768  23.427  14.292 -0.0345 -0.0233 -0.0727
44586W        W  827  12.306  24.739  24.389  0.0060 -0.4463  0.1631
44587W        W  828  13.440  15.224   1.921 -0.0245  0.0161  0.0362
44588W        W  829   5.063  27.216   3.727  0.1850  0.5323  0.1178
44589W        W  830   2.347   0.230  23.567 -0.3813  0.1228 -0.0301
44590W        W  831  22.181   2.813  17.368 -0.0897 -0.0110  0.1916
44591W        W  832  12.362  18.092  23.760 -0.0626  0.1765 -0.0773
44592W        W  833  19.872   9.904  17.263  0.1822 -0.0490 -0.2247
44593W        W  834  30.969   3.737  12.206  0.0615 -0.0954 -0.0626
44594W        W  835  20.179   7.165   8.494  0.0646  0.5055 -0.0536
44595W        W  836  15.393  32.104   9.024  0.2875  0.1822 -0.1812
44596W        W  837  31.428  15.656  20.090 -0.3291  0.2652  0.0091
44597W        W  838   0.483  35.292   0.157  0.1391 -0.0206 -0.1906
44598W        W  839  13.462  11.599   7.582 -0.2191 -0.2203  0.1996
44599W        W  840  30.342  13.194   6.716  0.5001 -0.0397  0.2839
44600W        W  841   1.919  17.786   2.295  0.1003  0.0533  0.1178
44601W        W  842   0.752  28.771  16.822  0.2640  0.0604  0.1031
44602W        W  843   8.516  32.089  11.083  0.1732 -0.0136  0.0485
44603W        W  844  25.669  27.064  23.118  0.0887  0.2817  0.0953
44604W        W  845  16.439   5.498  10.130 -0.1084 -0.1754  0.0124
44605W        W  846  31.442  27.697   1.840 -0.0065  0.0205  0.1387
44606W        W  847  33.853   9.714  10.279  0.1209  0.0620 -0.1037
44607W        W  848  13.109   6.995   7.998 -0.1755 -0.0991 -0.0462
44608W        W  849   3.488   4.963   2.269 -0.0797 -0.0521 -0.0473
44609W        W  850  14.371  23.439   3.985 -0.0251  0.2802 -0.3439
44610W        W  851  24.370  17.563  16.963  0.1950  0.1425  0.3699
44611W        W  852   4.898   4.389   4.395 -0.1687 -0.0278 -0.3451
44612W        W  853  25.254  13.393  16.641 -0.3454 -0.0107 -0.0835
44613W        W  854  18.028  32.527   0.723 -0.2164 -0.1215 -0.0063
44614W        W  855  30.858  16.783   5.819  0.2839  0.3055 -0.1902
44615W        W  856  22.328  30.416   6.308  0.0153 -0.4294  0.2926
44616W        W  857   3.687   9.312   4.124 -0.0766  0.2426 -0.3831
44617W        W  858   2.990  24.306   4.039  0.1045  0.0061  0.2226
44618W        W  859   2.878  32.571  11.082 -0.0829 -0.1841 -0.0243
44619W        W  860   2.518  12.756  19.181 -0.1828 -0.0620  0.0124
44620W        W  861  20.629   3.747   9.174 -0.2558  0.1698  0.0185
44621W        W  862   0.025   4.559  25.522 -0.1216 -0.0679 -0.0028
44622W        W  863  30.387  25.436  21.411  0.2454 -0.0842  0.2754
44623W        W  864   0.310  12.775  22.386 -0.3018  0.0440  0.0241
44624W        W  865   5.060  27.221  10.415  0.2057  0.3387 -0.2284
44625W        W  866  18.745  26.105   4.510  0.1336 -0.2389  0.0137
44626W        W  867  21.125  26.413  19.228  0.1189 -0.0345  0.2583
44627W        W  868  14.812  29.457   2.718 -0.5203  0.1270  0.1128
44628W        W  869  16.700   8.068  19.023 -0.0253 -0.0255 -0.0511
44629W        W  870  32.818   6.323  26.225  0.0436 -0.0300 -0.0163
44630W        W  871  29.045  22.606  18.465  0.0920 -0.0041  0.2562
44631W        W  872  32.913   5.944  24.215  0.1308 -0.4844  0.0375
44632W        W  873  25.550  28.796  21.769 -0.2174 -0.0052 -0.2690
44633W        W  874   5.131  10.089  25.470 -0.0555  0.2230  0.1601
44634W        W  875  14.500   5.100  21.312  0.0497 -0.2776 -0.1597
44635W        W  876  17.901  15.094  11.594  0.1897 -0.0607 -0.1578
44636W        W  877  16.805  13.118  25.814 -0.1877 -0.4556  0.1056
44637W        W  878   9.935  22.877   5.672  0.0680 -0.1279  0.0966
44638W        W  879  16.367   9.929  22.301  0.3122  0.0828  0.0070
44639W        W  880  17.933  26.267  22.913  0.0627 -0.2809  0.0974
44640W        W  881  32.784   3.490  12.451  0.1676 -0.5502 -0.2694
44641W        W  882  12.587  14.568  23.367  0.2806  0.1179 -0.1936
44642W        W  883  25.618   7.624  18.288 -0.2360  0.1237  0.3414
44643W        W  884   7.730  25.002  23.545 -0.0940  0.2100 -0.2893
44644W        W  885  24.078  35.193  13.930 -0.1629  0.3672  0.0321
44645W        W  886  25.150   1.076  21.420  0.2031  0.0562  0.2286
44646W        W  887  20.259   6.130  22.715 -0.1460 -0.2516 -0.2989
44647W        W  888  16.001   4.773   2.643  0.0651  0.1199  0.0833
44648W        W  889  18.965  19.563   2.656 -0.0855  0.0775 -0.3788
44649W        W  890  29.520  33.099  17.385 -0.0125 -0.1442  0.0927
44650W        W  891  29.339  35.220  21.078 -0.1463  0.1405 -0.0124
44651W        W  892   9.379  26.033   1.112  0.1436 -0.1160  0.0948
44652W        W  893  18.741  34.605   8.266  0.0713 -0.2038 -0.0515
44653W        W  894  32.898  33.287  15.621  0.1153 -0.0047  0.1650
44654W        W  895  12.494  11.083   6.224 -0.0045  0.5064  0.0564
44655W        W  896  34.285  10.444  20.503 -0.1318  0.0664 -0.1109
44656W        W  897  22.322   5.461  18.727  0.2965  0.2207 -0.0527
44657W        W  898   2.809  31.998   5.907  0.0384 -0.0345 -0.0139
44658W        W  899   6.928  11.413  20.630 -0.1144 -0.0482 -0.1511
44659W        W  900   0.208  17.999  20.165 -0.2157 -0.2785  0.0611
44660W        W  901   1.444   9.529  18.334  0.1281 -0.0931  0.1613
44661W        W  902  30.930   8.654  12.573 -0.2787  0.2469 -0.1726
44662W        W  903  25.603  13.572  26.184 -0.3695  0.0484 -0.1088
44663W        W  904  20.092   7.862  19.035  0.3323 -0.2441 -0.3658
44664W        W  905   5.053  26.906   6.325  0.0717  0.0399  0.2967
44665W        W  906   6.939   5.512   2.865  0.0179  0.1196 -0.2283
44666W        W  907  23.314  17.561  13.416 -0.0670 -0.1015  0.1234
44667W        W  908  28.487  11.776  10.307  0.0517 -0.0313 -0.1348
44668W        W  909  21.093   1.610   7.305 -0.3022 -0.1845  0.0355
44669W        W  910  19.185  13.506   5.758  0.1492  0.1484 -0.0248
44670W        W  911  25.627  26.736  16.729 -0.2879 -0.3963  0.0337
44671W        W  912  11.616  31.451   3.755 -0.1034 -0.2296 -0.3312
44672W        W  913   8.100  28.553  21.554 -0.1254  0.0378  0.0021
44673W        W  914  32.503   4.157  25.786 -0.2918  0.0065  0.0600
44674W        W  915   1.665  18.016  16.247  0.0570  0.5178  0.1016
44675W        W  916  27.037   5.333  18.467 -0.3331 -0.0623  0.1356
44676W        W  917  13.421  12.252   4.143 -0.0492 -0.0667  0.3144
44677W        W  918  32.974  12.768  24.208 -0.0082  0.0675 -0.0883
44678W        W  919   6.658  14.213  19.589 -0.1523 -0.2065  0.0552
44679W        W  920  13.315  27.853   9.904  0.1277  0.0725  0.1330
44680W        W  921   6.492  27.968   7.825  0.0173  0.1601  0.2557
44681W        W  922  28.982  33.222  22.985  0.0108  0.0882 -0.1517
44682W        W  923  26.998  31.190   4.000 -0.0872 -0.0959 -0.1267
44683W        W  924   6.652   0.666  10.979  0.3749  0.2646 -0.4667
44684W        W  925  23.961   4.630  13.114  0.1940 -0.2814  0.0883
44685W        W  926  33.551   7.661  21.276 -0.3713 -0.3334 -0.2072
44686W        W  927  19.322  12.568  21.849  0.0597  0.0297 -0.0009
44687W        W  928  23.056  22.252  20.297  0.0693 -0.0094 -0.0996
44688W        W  929  15.608  35.363   1.154 -0.0976  0.0569  0.0874
44689W        W  930  10.957   3.957  10.421  0.0198 -0.3331  0.1863
44690W        W  931  30.655  18.166  12.941  0.0565 -0.6689 -0.2191
44691W        W  932   7.549  29.160  12.905  0.0688  0.2784  0.1825
44692W        W  933   8.303   7.503  20.808 -0.1612  0.1600 -0.1045
44693W        W  934  30.074  18.701   8.865  0.2021  0.1720 -0.2112
44694W        W  935  13.962  13.020  12.539  0.2249  0.1613  0.0880
44695W        W  936  32.159  10.960  17.994 -0.5266  0.0737  0.1699
44696W        W  937  20.506   7.448  25.905 -0.3053 -0.0041  0.2537
44697W        W  938  28.461  14.501  12.910  0.1845  0.0878 -0.1253
44698W        W  939  34.984   1.338  21.814  0.2092  0.3478  0.0283
44699W        W  940  27.539  34.644  24.832 -0.0175 -0.0438  0.2000
44700W        W  941  30.553  24.654  18.411  0.0196  0.3591 -0.2064
44701W        W  942  15.789   6.714  18.114 -0.0546  0.1608 -0.3523
44702W        W  943   8.533  12.671   5.762  0.1156 -0.0833 -0.1481
44703W        W  944  10.409  29.936  15.513  0.2564 -0.0909  0.0069
44704W        W  945  21.369  15.607  18.845  0.3259  0.3215 -0.1494
44705W        W  946  20.161  32.243   1.950  0.0533  0.1084  0.4222
44706W        W  947   7.005  15.762  10.300 -0.1224  0.4608 -0.2474
44707W        W  948   4.274  17.089  25.265  0.2447 -0.1237  0.1791
44708W        W  949  32.654   2.448   3.000 -0.1319  0.0269  0.3696
44709W        W  950  29.275  18.218   6.465  0.1328  0.0078 -0.0964
44710W        W  951  32.045  12.773   5.895  0.3200 -0.3698  0.2021
44711W        W  952  26.137  19.692   8.231  0.1247 -0.2227 -0.0238
44712W        W  953  12.122   9.760   5.842 -0.1026  0.3057 -0.0031
44713W        W  954   1.159  10.985   1.714  0.2382 -0.1837  0.0124
44714W        W  955  11.164  21.409   0.591 -0.2340 -0.0359  0.1369
44715W        W  956  29.959  27.050   2.889 -0.0467  0.1469  0.3460
44716W        W  957  11.615   9.857  12.002 -0.1408 -0.2255 -0.2281
44717W        W  958  33.848  23.534  17.194 -0.1463 -0.0120 -0.4219
44718W        W  959  28.748   3.740   1.727 -0.0383  0.1402 -0.0251
44719W        W  960  20.994  21.601  17.934 -0.0492 -0.2478 -0.2940
44720W        W  961   5.892  33.867   0.154  0.2017 -0.0898 -0.3466
44721W        W  962  33.453  18.916  20.118 -0.1924 -0.3863 -0.2552
44722W        W  963  10.051  23.146   0.810  0.1808 -0.0592 -0.0039
44723W        W  964  14.725  18.108  10.956  0.0632  0.0347 -0.3183
44724W        W  965  14.115  30.746  23.948  0.1146 -0.1760 -0.0763
44725W        W  966  20.368  19.434  18.967 -0.1007  0.0584  0.0698
44726W        W  967   5.031  30.639   4.333  0.2591 -0.2304  0.4845
44727W        W  968  12.377   1.061   7.871 -0.1202  0.1924  0.3094
44728W        W  969  25.568  19.104  22.483 -0.1327  0.0368  0.3753
44729W        W  970  23.851   8.343   4.244 -0.0303 -0.1152  0.0945
44730W        W  971   5.568   3.893  26.162 -0.0445 -0.2231 -0.0157
44731W        W  972   0.494  17.807  24.606  0.2262 -0.2504  0.0035
44732W        W  973  20.687  29.291   1.071 -0.1921 -0.3033 -0.2259
44733W        W  974   7.561  26.743  24.969 -0.4231  0.0754 -0.5376
44734W        W  975  18.385  25.431  19.854  0.0540  0.3030  0.2797
44735W        W  976  19.062   0.812   6.588 -0.0747  0.2223  0.0810
44736W        W  977  29.363  21.453  20.279 -0.0962 -0.1447 -0.0089
44737W        W  978   8.220  27.093  15.565  0.0705 -0.3773  0.1773
44738W        W  979  11.387  25.845   6.025  0.2273  0.0211  0.0368
44739W        W  980  33.548   3.694   5.590  0.0528 -0.0326  0.1244
44740W        W  981   9.335   5.976  10.374  0.0791 -0.3704  0.2356
44741W        W  982  18.923   3.477  19.565 -0.1414 -0.0629  0.0715
44742W        W  983  23.488   0.003   6.618  0.1776  0.1516 -0.1212
44743W        W  984   4.694  26.295  11.445 -0.0601  0.0153 -0.2379
44744W        W  985   1.247  12.254  16.454 -0.1839 -0.3306 -0.1308
44745W        W  986  33.424   9.043   0.981 -0.1571 -0.0955 -0.1355
44746W        W  987  20.549  21.760   4.404 -0.1081  0.0270  0.1742
44747W        W  988   4.119   5.280   4.562 -0.0841  0.1293 -0.4434
44748W        W  989  10.192  32.135   0.626  0.0852  0.3825  0.2448
44749W        W  990  11.196   7.980  12.149 -0.1291  0.2285 -0.2710
44750W        W  991  25.807  33.921   6.469 -0.1879 -0.0326 -0.0489
44751W        W  992  27.946  13.777  11.701  0.2992 -0.2012  0.0606
44752W        W  993  19.327   8.868  25.751  0.2178  0.3071  0.0460
44753W        W  994  32.211  12.953  21.949  0.3437 -0.2697  0.1378
44754W        W  995   2.828  28.709  19.071  0.0762 -0.1608 -0.2823
44755W        W  996  29.997  13.570  20.026 -0.2502  0.1740 -0.5450
44756W        W  997  12.397   4.200  10.255  0.0692 -0.2997 -0.0197
44757W        W  998  15.776   6.136   7.057  0.1540  0.0489  0.0271
44758W        W  999  17.945  20.404  24.853  0.0367 -0.1020 -0.1645
44759W        W 1000  28.399  33.142   2.915  0.3186  0.0236 -0.2588
44760W        W 1001  26.717  33.058   2.154  0.0526  0.2777 -0.0101
44761W        W 1002  12.323  32.110   3.529 -0.1382 -0.1491 -0.0483
44762W        W 1003   1.906  12.891  22.800 -0.2013  0.2043 -0.0388
44763W        W 1004   3.626  10.678   0.054  0.0267  0.0327  0.0540
44764W        W 1005  31.641  14.665  22.828  0.1464  0.0430 -0.0703
44765W        W 1006  25.650  30.619  19.688  0.0469 -0.0171  0.0732
44766W        W 1007  29.990  24.722  14.595 -0.1089  0.4128  0.0850
44767W        W 1008   1.410  28.443   1.825  0.1186  0.0397  0.3265
44768W        W 1009  21.617  34.307   3.966 -0.0569 -0.0415  0.4249
44769W        W 1010   3.222  34.245  24.228  0.1862  0.2968  0.0885
44770W        W 1011  29.153  12.756  22.985  0.1637 -0.0604 -0.1893
44771W        W 1012  13.631  19.033  21.715 -0.1895 -0.0928 -0.0398
44772W        W 1013  31.091  32.595  16.095 -0.2089  0.0830 -0.2885
44773W        W 1014   2.329  34.759  23.913 -0.0206  0.0681  0.0225
44774W        W 1015  16.804  12.308   2.279 -0.4213  0.2129  0.1027
44775W        W 1016  35.073  24.995  17.722  0.1723  0.0652  0.1532
44776W        W 1017   8.475   3.174   1.216  0.0053  0.1660  0.2466
44777W        W 1018  26.827  21.419   5.955  0.1682 -0.3022  0.2706
44778W        W 1019  33.550  25.611  12.851 -0.3189  0.1002 -0.2173
44779W        W 1020  10.506  30.976   2.065  0.2641 -0.0630 -0.0334
44780W        W 1021  25.296   1.178  14.408 -0.0890  0.1467  0.1663
44781W        W 1022  33.916  17.595  21.007 -0.1395  0.0739 -0.2639
44782W        W 1023   2.316   8.992   2.299  0.2073 -0.0589 -0.0620
44783W        W 1024  12.163  11.006   1.894  0.2689 -0.3470 -0.1421
44784W        W 1025  33.439   7.231  25.875 -0.0728 -0.2677 -0.1129
44785W        W 1026  18.365  18.768   6.015  0.1356 -0.4320 -0.1851
44786W        W 1027   4.983  14.559   4.439  0.2517 -0.0723 -0.1042
44787W        W 1028   2.768  11.595  23.333  0.0230  0.0849 -0.1690
44788W        W 1029  26.447   0.382   3.220  0.0521 -0.3349  0.0941
44789W        W 1030  13.377  31.824  11.699  0.0090  0.1951  0.0052
44790W        W 1031   4.017  12.883   4.588  0.2287  0.0041 -0.3377
44791W        W 1032   0.557  33.637  21.169  0.0814  0.2941  0.2212
44792W        W 1033  19.435  29.804   1.212  0.3753  0.4709 -0.1679
44793W        W 1034  12.222   8.135  20.722 -0.0958  0.2649  0.0083
44794W        W 1035  28.301  32.819   4.429 -0.0605  0.0277 -0.0643
44795W        W 1036  33.148  14.035  14.103  0.1159 -0.1953  0.1182
44796W        W 1037  10.096  29.687   2.382 -0.0680 -0.0617 -0.0018
44797W        W 1038   5.894  34.784  22.502  0.0876 -0.1202  0.1268
44798W        W 1039  26.204   6.273  25.757 -0.0767  0.3552 -0.2155
44799W        W 1040  28.145   9.898  12.929  0.0084  0.0340 -0.1775
44800W        W 1041  11.638  25.014  22.699  0.0309  0.2260  0.0391
44801W        W 1042  30.495  28.946   1.367 -0.0296  0.1085  0.2953
44802W        W 1043  12.294  26.993  14.811  0.0922  0.2165  0.1483
44803W        W 1044  13.881   8.037   7.020  0.2191 -0.0106 -0.2448
44804W        W 1045  24.392  18.329   0.201 -0.0722 -0.0969  0.2534
44805W        W 1046  28.411  33.691  18.627  0.1026  0.1800 -0.2584
44806W        W 1047  12.390  19.888  25.755  0.0435  0.0355  0.1790
44807W        W 1048   1.660   2.011   4.062 -0.2538 -0.2890 -0.1451
44808W        W 1049  10.631  16.953  12.700 -0.2535  0.0725  0.3189
44809W        W 1050  15.601  19.779  12.309  0.1870  0.1467  0.1341
44810W        W 1051  13.348   4.538   6.008 -0.2927 -0.4265  0.0142
44811W        W 1052  28.000   3.939  22.317  0.0808 -0.1977  0.0136
44812W        W 1053  30.416  30.925   5.890  0.0120 -0.2673  0.2127
44813W        W 1054  24.749  32.896  14.205  0.2152  0.4420 -0.0893
44814W        W 1055  31.438   7.160  12.740 -0.2149 -0.2775 -0.1815
44815W        W 1056  30.664  16.805  21.293 -0.0852 -0.2901 -0.0440
44816W        W 1057  23.769  10.020  13.348 -0.0211 -0.1465  0.1735
44817W        W 1058  30.237  28.477   4.124 -0.3211  0.1243  0.0479
44818W        W 1059  31.290  14.677  19.473  0.1818 -0.0793  0.2188
44819W        W 1060   8.560  15.358   9.209  0.0977  0.1538  0.1591
44820W        W 1061  28.198  19.727   7.511  0.0083 -0.0169  0.0593
44821W        W 1062   0.492   3.283  15.059 -0.0335 -0.2195 -0.2943
44822W        W 1063  10.271  11.186   2.622 -0.1570 -0.0901 -0.2200
44823W        W 1064  11.383  33.331   8.782 -0.2018  0.0840 -0.1803
44824W        W 1065   7.030  16.360   2.584  0.0768 -0.0974  0.1670
44825W        W 1066  27.089   2.173   5.921  0.0729 -0.0523  0.0703
44826W        W 1067   0.036  22.455  14.570  0.2471  0.0461 -0.1648
44827W        W 1068  32.691   4.566   5.003 -0.1463 -0.0355 -0.0493
44828W        W 1069   7.229  17.460   0.719 -0.0366  0.1580 -0.0904
44829W        W 1070  32.278   8.532  24.786 -0.1173  0.2650  0.0714
44830W        W 1071  28.041   9.518  20.049 -0.2023  0.1761 -0.1457
44831W        W 1072  24.058   2.588  25.674 -0.0456 -0.0957  0.0013
44832W        W 1073  22.662  35.298   4.430 -0.2614  0.0709  0.0341
44833W        W 1074   7.524  25.592   5.830 -0.3562 -0.0834 -0.1014
44834W        W 1075  14.840  14.657  12.677 -0.0783 -0.1255 -0.1240
44835W        W 1076  12.085  21.123   2.540 -0.0788 -0.1289 -0.0533
44836W        W 1077  13.855  26.856   6.449  0.1388  0.0955 -0.1008
44837W        W 1078   3.866  32.382   9.459 -0.0861  0.3147  0.1391
44838W        W 1079  11.969   6.060  10.024  0.2492 -0.3082 -0.0826
44839W        W 1080  29.908   9.095  11.113 -0.0338 -0.0202  0.3328
44840W        W 1081   8.488  19.668  11.858  0.1462  0.1533  0.2590
44841W        W 1082  35.026  15.560  26.025  0.4270 -0.0647 -0.1756
44842W        W 1083  24.364  27.732  12.885  0.0099  0.0141 -0.1491
44843W        W 1084   2.551  34.598   0.486 -0.2067 -0.1248  0.0523
44844W        W 1085   6.080  29.341   4.526  0.1979 -0.2897 -0.0681
44845W        W 1086  18.988  18.174   0.675  0.0563 -0.0144  0.0644
44846W        W 1087   3.324  10.827  22.072 -0.1231  0.0934 -0.0430
44847W        W 1088   2.720  31.272   5.308 -0.0861 -0.0447 -0.0198
44848W        W 1089   7.557  16.846  10.798 -0.3167  0.0583  0.0615
44849W        W 1090  18.807  11.538  24.839 -0.0237 -0.1746  0.0514
44850W        W 1091  31.407  13.376  17.697 -0.0043 -0.2096  0.0061
44851W        W 1092  13.324  32.212   7.440  0.0969  0.0722  0.1395
44852W        W 1093  24.200  16.612  25.110 -0.2491  0.0799 -0.3143
44853W        W 1094   2.546  31.424   3.151  0.2175 -0.2984 -0.0035
44854W        W 1095  22.334   7.893   1.431 -0.0528 -0.1983 -0.0139
44855W        W 1096  13.916  26.089  11.222  0.0687  0.3067  0.1210
44856W        W 1097  33.711  17.865  18.758 -0.1272  0.0741  0.0770
44857W        W 1098   5.658  13.827   0.743 -0.0932 -0.0976  0.0078
44858W        W 1099  30.019   7.185  21.399  0.3229 -0.0384 -0.0072
44859W        W 1100  20.350   6.566   9.730 -0.2228 -0.0939  0.2186
44860W        W 1101  32.629  27.735  16.025 -0.1559 -0.2548 -0.3012
44861W        W 1102   6.611  17.058  19.683  0.4860 -0.0615 -0.2095
44862W        W 1103   1.784   0.362   0.547 -0.2951  0.0179 -0.1409
44863W        W 1104   6.040   9.574  24.041 -0.3448  0.0624  0.0273
44864W        W 1105   0.827   1.524  15.290  0.0852 -0.0369 -0.1679
44865W        W 1106   5.788   0.246  20.707  0.1341 -0.2303  0.0122
44866W        W 1107   2.873   9.313  22.831  0.1273  0.1401 -0.1686
44867W        W 1108   0.287  15.071  23.174  0.1935 -0.1523 -0.3868
44868W        W 1109  11.494  16.128   5.267 -0.2271 -0.2632  0.2421
44869W        W 1110   4.413   5.660   4.669  0.2033 -0.2663  0.3393
44870W        W 1111  30.002   1.726   1.374  0.1050  0.1865  0.0566
44871W        W 1112  20.863  14.704   1.660  0.3942  0.2941  0.4437
44872W        W 1113  11.044   0.334   4.758  0.5714 -0.0629 -0.2392
44873W        W 1114  26.079  26.228  24.882 -0.1228  0.0634 -0.2718
44874W        W 1115  34.968  33.927  17.742  0.0868 -0.2349  0.0539
44875W        W 1116  23.466  12.370   0.455 -0.0717 -0.3694 -0.4235
44876W        W 1117   0.870  21.428  14.298  0.0802 -0.0867 -0.0022
44877W        W 1118  28.649  34.179  23.119 -0.2071 -0.0334 -0.2102
44878W        W 1119   3.723  20.761  23.013  0.3222  0.0750  0.1460
44879W        W 1120  33.711  22.664  17.939  0.2229 -0.0839  0.3843
44880W        W 1121  31.883  25.035  23.209  0.1555  0.2451  0.1556
44881W        W 1122   8.375   1.441  24.010  0.4042  0.0303 -0.2074
44882W        W 1123  30.412   0.973   4.119  0.1766  0.0769  0.0135
44883W        W 1124  21.262   7.319  24.142  0.0482 -0.1858  0.1232
44884W        W 1125  20.235  31.132  21.598  0.1146 -0.3099 -0.2811
44885W        W 1126  27.162  28.730   3.917 -0.1375  0.1412  0.1445
44886W        W 1127   9.771  33.963  23.061  0.2852 -0.0657 -0.2391
44887W        W 1128  10.172  22.136   0.566 -0.1012  0.2174  0.1874
44888W        W 1129  30.508   0.770  22.856 -0.4332 -0.0696 -0.0978
44889W        W 1130  27.177   1.213  17.360 -0.0417  0.0592 -0.2265
44890W        W 1131  34.920  28.302  15.290 -0.5672  0.1614  0.0811
44891W        W 1132  21.135   2.324   2.379  0.1132 -0.2662  0.1145
44892W        W 1133  23.429  13.225  21.070  0.2175 -0.1442 -0.0150
44893W        W 1134  12.017   8.850  18.952 -0.1016  0.1278 -0.1223
44894W        W 1135  12.062  33.868  20.724 -0.1021 -0.0234 -0.1668
44895W        W 1136   8.272  13.515  23.661  0.0095 -0.3019 -0.2175
44896W        W 1137  16.781  15.964  22.029 -0.1129 -0.1345 -0.0487
44897W        W 1138  21.761  13.470  21.762 -0.0757 -0.1854 -0.2128
44898W        W 1139  30.730   6.511  15.955  0.3716 -0.0218 -0.1064
44899W        W 1140  24.582   6.333  22.070 -0.0211  0.0643  0.0476
44900W        W 1141  13.854  22.243  23.354  0.2690 -0.0040 -0.2380
44901W        W 1142  31.043  30.255  19.982  0.1702 -0.3749 -0.1329
44902W        W 1143  18.370   9.507   3.885 -0.0333  0.0313 -0.0570
44903W        W 1144   6.730  34.015  10.277 -0.1418 -0.0837  0.0619
44904W        W 1145  22.056  27.075   2.492  0.0881  0.0309 -0.3697
44905W        W 1146   4.770  20.436  20.752 -0.2830 -0.0424  0.0646
44906W        W 1147  21.936  34.162   0.746  0.0124  0.1979  0.1080
44907W        W 1148  13.759   8.833   5.688  0.0025 -0.0233 -0.1172
44908W        W 1149  32.719   2.152  24.187 -0.0369  0.1539  0.2852
44909W        W 1150   3.104  30.858   0.047 -0.1809  0.0570 -0.0074
44910W        W 1151   6.987   3.696   6.204  0.0735 -0.1050  0.1112
44911W        W 1152  22.727  21.786  19.498  0.1175 -0.0361 -0.0108
44912W        W 1153  34.425  26.409   0.679  0.0946  0.1639  0.0253
44913W        W 1154  11.991  24.848   3.637  0.3202 -0.1395 -0.0006
44914W        W 1155   0.816  34.871   8.363 -0.1613 -0.2673  0.1568
44915W        W 1156   1.358   0.828   6.031  0.0223  0.1539 -0.0837
44916W        W 1157   9.615  32.677   1.907 -0.0454  0.0035  0.2021
44917W        W 1158   7.682  11.344   2.009 -0.1453 -0.1173  0.3017
44918W        W 1159  22.570  26.055  13.666  0.1694  0.1833 -0.5953
44919W        W 1160   4.303  34.798  10.776  0.1400 -0.0131  0.0901
44920W        W 1161  28.595   0.487  11.766 -0.0956 -0.2818 -0.0490
44921W        W 1162  32.027  30.178   1.074 -0.2068  0.0322 -0.0901
44922W        W 1163  29.742   5.739  19.608 -0.3175 -0.1550 -0.3094
44923W        W 1164  30.876  17.130  10.771  0.1679  0.2155 -0.0897
44924W        W 1165  14.305  15.269  21.231 -0.2535 -0.1461 -0.0764
44925W        W 1166   9.802  18.416  10.293  0.0366  0.2375  0.0713
44926W        W 1167   6.483   2.585   7.472  0.0571 -0.2942  0.2400
44927W        W 1168  27.198  34.325  13.349 -0.3296 -0.3542 -0.0680
44928W        W 1169  28.902  15.951  11.275 -0.2330 -0.0064 -0.0237
44929W        W 1170  12.064  32.721   8.719 -0.1796  0.0993 -0.0938
44930W        W 1171   7.997   6.577   1.054 -0.1081 -0.0381 -0.0364
44931W        W 1172   4.011  35.344  24.425 -0.0757  0.1147  0.0630
44932W        W 1173  12.164  17.736   7.585 -0.0939 -0.0377  0.0309
44933W        W 1174  19.215  33.111   4.077 -0.1334 -0.1029 -0.1315
44934W        W 1175  21.380  30.956   4.388  0.0263  0.0701  0.3571
44935W        W 1176   4.169  24.183  19.157  0.1640 -0.2942  0.0006
44936W        W 1177  32.113   3.110  18.675  0.0161 -0.1612 -0.0949
44937W        W 1178  29.765  17.925   9.466 -0.0856  0.0100 -0.1431
44938W        W 1179  14.928   5.387  17.513 -0.0201  0.1514 -0.0456
44939W        W 1180  30.342  32.693  24.866  0.0477 -0.1922  0.2385
44940W        W 1181  14.613   9.377   3.662  0.0505 -0.6420  0.0188
44941W        W 1182  12.312  33.574  14.684 -0.3117  0.2819  0.1334
44942W        W 1183  29.108   7.183  22.626  0.1159 -0.1445 -0.0263
44943W        W 1184   6.117  30.637  11.111 -0.0520  0.0493 -0.0557
44944W        W 1185  22.615  34.483   3.892  0.5888  0.1790  0.1047
44945W        W 1186   2.307  16.556  23.400  0.0203  0.3473 -0.2940
44946W        W 1187   6.407   8.925   7.119 -0.2786 -0.2000  0.2937
44947W        W 1188  14.667  34.062  10.873 -0.3513 -0.1302 -0.0995
44948W        W 1189   6.302   1.318   5.008 -0.3469 -0.4900 -0.2676
44949W        W 1190  26.043   0.156  25.711  0.0452 -0.4929  0.0796
44950W        W 1191   5.401  15.546  18.217  0.4613 -0.1212 -0.4434
44951W        W 1192  22.020  23.695  21.957 -0.0725 -0.1882 -0.0406
44952W        W 1193  15.267   5.915  25.625 -0.1728 -0.0575 -0.1766
44953W        W 1194   5.944  26.480  12.807  0.0370 -0.1244 -0.0791
44954W        W 1195   4.383   3.295   5.891 -0.2522 -0.1575  0.2855
44955W        W 1196  12.817  33.287  24.112 -0.2471 -0.0130  0.0046
44956W        W 1197  29.784  20.215  11.516 -0.0116  0.4370 -0.0678
44957W        W 1198  23.723  26.013  13.562  0.0852  0.0000 -0.1743
44958W        W 1199   6.397  13.706   5.948  0.3802  0.1251 -0.0105
44959W        W 1200   2.616  10.148   3.242 -0.0484 -0.1773  0.2463
44960W        W 1201   8.292  28.885  15.962  0.2081 -0.1875  0.3480
44961W        W 1202   6.210   8.450   0.522  0.2227  0.1618  0.1950
44962W        W 1203  27.701  15.007   7.104  0.1529 -0.0194  0.0498
44963W        W 1204  35.114   5.672  14.779 -0.1086  0.3518 -0.1125
44964W        W 1205  14.543  19.642   9.142  0.2547 -0.0721  0.3013
44965W        W 1206  13.764  29.702   9.966  0.2264 -0.1665  0.0322
44966W        W 1207  32.683   7.457  20.517  0.1416 -0.1079  0.0389
44967W        W 1208  12.286   8.558  21.408  0.0194 -0.2265  0.1703
44968W        W 1209  14.099  12.999  22.399  0.1996  0.0194 -0.2228
44969W        W 1210  32.820  34.612  12.375  0.0078  0.0161 -0.0586
44970W        W 1211  21.917   1.009  21.041  0.1044  0.1783 -0.0176
44971W        W 1212   9.931  30.671   3.075  0.1566  0.0239 -0.1167
44972W        W 1213  35.323  23.508  12.277  0.0653 -0.2033 -0.1000
44973W        W 1214  17.450  11.651  21.516  0.0145 -0.0003  0.0017
44974W        W 1215  34.749  18.722  12.834 -0.0744  0.0126 -0.1323
44975W        W 1216  25.097  16.318   8.731  0.0674  0.1195 -0.1067
44976W        W 1217   6.101  24.353   9.348  0.2657 -0.0010  0.0552
44977W        W 1218  24.787  22.307  17.559  0.2357  0.0326 -0.0043
44978W        W 1219  12.965  33.042  23.198  0.3484 -0.0051 -0.1709
44979W        W 1220  15.321   0.804   2.227  0.0137 -0.1344 -0.0595
44980W        W 1221  28.412  34.048   3.879 -0.0537  0.2164 -0.0003
44981W        W 1222  12.592  16.458  24.441  0.2481 -0.1223 -0.1160
44982W        W 1223   4.285  32.174   9.700  0.1306 -0.2661 -0.1243
44983W        W 1224   5.947  18.386   1.971  0.1360  0.1441  0.2278
44984W        W 1225  18.459   1.039  20.311  0.2199  0.0752  0.3553
44985W        W 1226  34.866  10.928   0.064  0.2974 -0.0188 -0.0367
44986W        W 1227  28.667  23.134  19.514 -0.0447  0.4568  0.0635
44987W        W 1228  15.256   7.013   9.430 -0.2839  0.1826 -0.2208
44988W        W 1229  27.627  29.619  15.095  0.1884 -0.2184  0.1875
44989W        W 1230  28.298  21.463   8.117  0.2243  0.1017 -0.0706
44990W        W 1231  21.635  28.410  25.992 -0.1025  0.1016  0.4007
44991W        W 1232  17.366   9.419  24.295  0.0229  0.2639  0.0472
44992W        W 1233   7.788  26.752   1.245 -0.1911  0.2352  0.1057
44993W        W 1234  24.393  20.792  21.167  0.0663  0.3117 -0.1408
44994W        W 1235   4.643  26.189   5.147  0.0478 -0.1692 -0.2349
44995W        W 1236  29.960   5.065  13.053 -0.0063  0.4124 -0.1371
44996W        W 1237  13.179  11.333   3.602 -0.1977 -0.3608  0.2255
44997W        W 1238   9.338   9.621   5.222  0.0086  0.0781 -0.2969
44998W        W 1239  14.390  23.161   8.856 -0.0131  0.2803 -0.1290
44999W        W 1240  14.536  16.972  11.891 -0.0252 -0.0671 -0.0167
45000W        W 1241  31.900  22.463  23.296  0.1692  0.1896  0.2290
45001W        W 1242   7.235  10.609   7.856  0.0584 -0.1303 -0.0086
45002W        W 1243  21.760  11.628  21.758  0.0524 -0.1415 -0.2532
45003W        W 1244  18.688  21.549   3.547 -0.0319  0.2789 -0.0265
45004W        W 1245  12.202  14.214  23.268  0.2575  0.3297 -0.1057
45005W        W 1246  34.053   2.413  20.654  0.1199 -0.0147  0.2744
45006W        W 1247  12.309  26.767  16.470 -0.1279  0.1051  0.1692
45007W        W 1248  21.972  15.221  23.679 -0.0298  0.0263  0.0775
45008W        W 1249   5.450   5.966  10.782 -0.0211 -0.2302 -0.1212
45009W        W 1250  27.301  26.044  22.105  0.2783  0.0234 -0.2417
45010W        W 1251   3.649  21.864   2.419  0.0629  0.2340 -0.0265
45011W        W 1252  24.214  17.952  18.630  0.1176  0.0516 -0.5002
45012W        W 1253   0.662  31.543   8.621 -0.0446 -0.0566  0.3996
45013W        W 1254  26.294  28.751  20.990  0.0676 -0.1567 -0.1490
45014W        W 1255  17.348   3.384   2.711  0.0085 -0.1470  0.4268
45015W        W 1256  33.837   5.691  22.907 -0.1118 -0.4989  0.0576
45016W        W 1257  24.678   7.242  21.100 -0.3709  0.3199 -0.1645
45017W        W 1258  10.277   0.859   4.826 -0.1491  0.3881 -0.0851
45018W        W 1259   0.754  29.796  25.153 -0.0934 -0.1562 -0.0931
45019W        W 1260  10.992  27.602  12.761  0.1679  0.2096  0.2663
45020W        W 1261   1.596  24.763  19.088 -0.3821 -0.2431 -0.0397
45021W        W 1262  13.069  34.744  21.187  0.2936  0.0940 -0.0903
45022W        W 1263   9.502   6.618  22.792  0.0293  0.1260 -0.0460
45023W        W 1264  22.323   5.355  20.473  0.0298 -0.1892 -0.3384
45024W        W 1265  29.425  27.197  18.101  0.2175 -0.0232  0.1283
45025W        W 1266  32.663  26.849  16.107 -0.1744  0.1738 -0.1398
45026W        W 1267   7.215   4.692   8.863  0.0958 -0.0908 -0.1413
45027W        W 1268  26.357  16.030  21.675  0.0254  0.1465  0.2545
45028W        W 1269  14.554   3.506  12.680  0.0107 -0.3334  0.1505
45029W        W 1270  10.655  17.565   2.787  0.0224  0.1757  0.1079
45030W        W 1271  15.660   1.167  12.030 -0.0507  0.2205  0.1253
45031W        W 1272  30.160  26.886  25.900  0.1159 -0.3664 -0.4229
45032W        W 1273   4.963   7.054  26.232  0.0661  0.0123  0.3529
45033W        W 1274  10.606  33.366  12.379 -0.2034 -0.1012  0.1552
45034W        W 1275   2.897   5.540  14.900  0.0083  0.0826  0.2545
45035W        W 1276   8.095  12.771   8.793  0.0344  0.0118 -0.3794
45036W        W 1277  26.278  29.540   1.452 -0.3730  0.1580 -0.3425
45037W        W 1278  28.885   2.800   2.497  0.1298  0.0997 -0.1150
45038W        W 1279  29.265   9.886   0.077 -0.1890 -0.0934 -0.0523
45039W        W 1280  16.110   3.060   8.354  0.2812 -0.0210 -0.0587
45040W        W 1281  15.599  10.219   1.128 -0.0716  0.0752 -0.1686
45041W        W 1282  10.434  27.115  23.730  0.0464 -0.2146 -0.1399
45042W        W 1283  12.524  24.744  13.334  0.2510 -0.2942 -0.0207
45043W        W 1284   5.503  13.525  22.194 -0.0877  0.4517  0.2436
45044W        W 1285  27.502   1.153  10.479  0.0677  0.0959  0.0499
45045W        W 1286  18.847  13.206  24.938 -0.0346  0.1635  0.1005
45046W        W 1287  10.318  24.064   9.426  0.0748 -0.0479 -0.2301
45047W        W 1288  24.024  21.067  19.794 -0.2698 -0.2208  0.3409
45048W        W 1289  18.952  29.792   5.913 -0.0890  0.1636 -0.0085
45049W        W 1290  16.650  16.938  10.885 -0.2478  0.0049 -0.1609
45050W        W 1291   9.886   5.786   1.974  0.1312  0.0013  0.0507
45051W        W 1292   0.966  11.945  17.168  0.2203  0.0760 -0.1798
45052W        W 1293   2.934   9.732  22.356  0.3877  0.1567 -0.3708
45053W        W 1294  17.490   2.487  20.699  0.1151  0.1232  0.0718
45054W        W 1295  10.611   2.829  14.607 -0.0801 -0.0480 -0.0058
45055W        W 1296  33.504  28.587  11.767  0.1801  0.2134  0.1850
45056W        W 1297  17.194  31.628  18.929 -0.3339 -0.4178  0.4091
45057W        W 1298   6.313  13.454   2.174  0.0191 -0.1027  0.2840
45058W        W 1299  26.757  11.868   1.369 -0.2822  0.0052  0.0278
45059W        W 1300   9.761  17.812  25.809  0.0482  0.1199 -0.0721
45060W        W 1301   6.264   9.319  20.016  0.2040 -0.1769  0.2240
45061W        W 1302   5.580  14.174   9.738 -0.0222 -0.2915  0.1234
45062W        W 1303  19.886  21.874   3.840 -0.0347 -0.2772 -0.0504
45063W        W 1304  30.452  11.176  14.299 -0.4037  0.2638 -0.1317
45064W        W 1305  17.965  15.364  25.358 -0.1368  0.0730  0.1115
45065W        W 1306  12.483  20.932  15.306  0.0420  0.1391  0.0978
45066W        W 1307  16.919  22.111  15.639 -0.1513 -0.2448  0.1930
45067W        W 1308  29.845  28.235  14.026 -0.1104  0.2022  0.0518
45068W        W 1309   3.509   2.575   9.480  0.0183  0.0897 -0.3498
45069W        W 1310  12.098   2.271  18.739  0.2404  0.2304  0.1003
45070W        W 1311  29.527   3.861  18.723 -0.0070  0.0809  0.0806
45071W        W 1312   8.480   0.507   8.482 -0.0283  0.3971 -0.2693
45072W        W 1313  22.463   7.490  15.765  0.0232 -0.3642  0.1045
45073W        W 1314   2.481   9.276  18.478 -0.0778 -0.1391 -0.1633
45074W        W 1315  28.702  26.382  10.938  0.0330  0.0012 -0.1160
45075W        W 1316  15.640   0.830   9.571  0.1008 -0.2176 -0.1983
45076W        W 1317  11.995  33.037  24.518 -0.0087  0.0467  0.1168
45077W        W 1318   1.246  21.773  17.928 -0.2110  0.1440 -0.1753
45078W        W 1319   9.795  19.326  12.829 -0.1032 -0.0459  0.1832
45079W        W 1320  34.664  23.075  13.772 -0.1068 -0.0991  0.0789
45080W        W 1321  22.454  28.128  22.101 -0.3319  0.1707  0.4295
45081W        W 1322   4.224   9.608   4.173  0.0602  0.1701  0.0797
45082W        W 1323   8.558  14.728  21.523 -0.1443 -0.1975 -0.3311
45083W        W 1324  19.562  11.255   2.622  0.3009 -0.0146 -0.1085
45084W        W 1325  26.894  16.011  23.173  0.1568  0.0487 -0.0193
45085W        W 1326  33.388   3.621  11.685 -0.0956  0.1749  0.0101
45086W        W 1327  13.205  28.718   0.212 -0.2671  0.2171  0.3550
45087W        W 1328  18.224   7.614  12.531 -0.2220 -0.1601  0.0172
45088W        W 1329   1.195  25.837  21.977  0.1342 -0.0086 -0.2490
45089W        W 1330  15.580   5.801   5.851  0.0868 -0.0715  0.0253
45090W        W 1331  22.122  20.511  23.984 -0.2899  0.1072  0.2932
45091W        W 1332   9.021  11.805   6.717 -0.1054 -0.1529  0.0185
45092W        W 1333  13.296  13.767  10.771 -0.3053  0.0495 -0.0399
45093W        W 1334  35.331   7.425  14.568 -0.0918  0.3632 -0.4961
45094W        W 1335  24.590  18.716  11.337 -0.1004 -0.0673  0.1773
45095W        W 1336  24.801  20.128  19.686  0.0770 -0.3812  0.0671
45096W        W 1337  29.976  15.603  11.919  0.2043 -0.2213 -0.0732
45097W        W 1338  12.017  23.745  18.294  0.1127  0.3042  0.0941
45098W        W 1339  22.662  12.822  23.230  0.0107 -0.2166 -0.2007
45099W        W 1340  14.338  16.875   6.228  0.1809 -0.2697 -0.4808
45100W        W 1341  29.155  12.601  25.358 -0.0092 -0.3266 -0.3907
45101W        W 1342  14.868   2.037  10.663 -0.1508 -0.2226 -0.0968
45102W        W 1343  11.913  18.938   3.939  0.1239 -0.0123  0.0770
45103W        W 1344  27.903  26.570  26.206  0.2566  0.3481 -0.1708
45104W        W 1345   5.111  15.012   0.006 -0.0030 -0.0055 -0.0943
45105W        W 1346  22.992  21.983  24.147 -0.3509  0.0867 -0.2890
45106W        W 1347  28.151  24.564  19.309  0.0266 -0.1360 -0.0498
45107W        W 1348   1.279  25.666  20.685 -0.0334  0.0656  0.3587
45108W        W 1349   7.841  30.481  13.284  0.0442  0.0821 -0.2675
45109W        W 1350  29.174  13.275  21.780  0.0836 -0.2776 -0.0758
45110W        W 1351  33.197  20.129  21.634  0.1133 -0.0551 -0.0806
45111W        W 1352   5.594  25.628  22.520 -0.1726  0.1340  0.1903
45112W        W 1353  11.746  18.094  21.255  0.1000 -0.0736  0.1169
45113W        W 1354  16.391  13.781  24.694 -0.0818  0.0420 -0.1661
45114W        W 1355   6.824   5.471   2.207  0.0567  0.1620  0.2455
45115W        W 1356   2.342   4.203  20.436  0.1552  0.1226 -0.0373
45116W        W 1357  26.739   9.581  21.253  0.2044 -0.0013  0.0457
45117W        W 1358  27.714  14.119  11.990 -0.0798 -0.0826  0.2572
45118W        W 1359  33.941  22.622   0.693 -0.0902  0.0560 -0.0344
45119W        W 1360   1.497  22.450  15.085  0.0318 -0.0949 -0.0326
45120W        W 1361  17.656  25.247   1.820 -0.0124  0.2792 -0.2207
45121W        W 1362  31.557   4.278   4.677 -0.0723  0.3997  0.2753
45122W        W 1363  27.005   2.236   4.940  0.0029  0.3144  0.0679
45123W        W 1364  32.893  22.919   8.907 -0.1295  0.0683  0.0305
45124W        W 1365  29.287   0.694  25.200 -0.0730 -0.2041 -0.0858
45125W        W 1366  17.350  34.548  17.544 -0.0596 -0.2834 -0.2609
45126W        W 1367  25.812   8.743  19.840 -0.2998  0.1920 -0.4642
45127W        W 1368  33.366   0.829   2.299  0.1139 -0.0217 -0.0485
45128W        W 1369  26.704  26.161   0.007 -0.1273 -0.0331 -0.0874
45129W        W 1370  21.190   1.996   3.799  0.0147 -0.1766  0.0115
45130W        W 1371   1.763  32.158  20.113 -0.0667  0.1087 -0.2587
45131W        W 1372   3.035  22.017  19.100  0.0944  0.3342  0.0564
45132W        W 1373  17.439  34.565   6.054  0.0343 -0.3108  0.1711
45133W        W 1374  34.276  22.026  12.644  0.1971  0.1175  0.0713
45134W        W 1375  24.692  16.631  12.484 -0.0934  0.5848 -0.0518
45135W        W 1376  21.875   2.660   7.718 -0.1536 -0.2839 -0.3920
45136W        W 1377   8.818  30.617   8.958  0.1895  0.1087 -0.0423
45137W        W 1378  31.177  12.804  19.009 -0.1148  0.3572 -0.2728
45138W        W 1379  22.173  21.815  20.574 -0.2279 -0.1111 -0.2400
45139W        W 1380   8.457  25.238  16.580  0.1226  0.0449  0.1364
45140W        W 1381   2.556  21.118  15.698  0.3471 -0.2456  0.3321
45141W        W 1382  20.606  31.108   4.125 -0.0626 -0.3249  0.1331
45142W        W 1383  20.611  13.930  18.902 -0.0422  0.3385 -0.1464
45143W        W 1384  20.066  20.499  20.068 -0.0157  0.0604  0.1838
45144W        W 1385  35.180  25.750  16.048  0.1110  0.2089 -0.2176
45145W        W 1386  18.852  30.471  16.177  0.1975  0.2062  0.3646
45146W        W 1387  14.277  20.207  24.417 -0.3576 -0.2994 -0.1290
45147W        W 1388  28.821  30.225   0.092 -0.1949  0.1852 -0.0706
45148W        W 1389  16.070  17.830   8.517 -0.0941 -0.0940 -0.0310
45149W        W 1390  32.607   7.730  21.769 -0.1902 -0.2517 -0.0162
45150W        W 1391  31.125  31.640   3.122 -0.1152  0.3429  0.0296
45151W        W 1392  34.751  23.976  22.389 -0.1786  0.1217 -0.2157
45152W        W 1393   1.608  32.517   6.699  0.0136 -0.2318 -0.0070
45153W        W 1394   6.278  13.917   2.949 -0.0820  0.1418  0.0983
45154W        W 1395   2.113   3.019  14.627  0.2351  0.0403  0.0028
45155W        W 1396  15.889  12.588  19.907  0.1482 -0.0941 -0.1176
45156W        W 1397   6.212  29.695  15.025 -0.2903  0.5237  0.0940
45157W        W 1398  18.845  17.040  23.515  0.2479  0.0748  0.3646
45158W        W 1399   7.972  30.327  11.202 -0.2158 -0.1675 -0.0819
45159W        W 1400  18.552  32.166   5.279  0.0759 -0.1588  0.0651
45160W        W 1401   1.940  28.957   0.582  0.0935 -0.1201  0.1137
45161W        W 1402  10.804  12.898  19.881  0.0489  0.0613 -0.4516
45162W        W 1403  30.611  15.105   6.448  0.0021 -0.1118 -0.0302
45163W        W 1404  21.706  15.404  15.574 -0.4916  0.2185 -0.2014
45164W        W 1405  20.675   5.622  19.356 -0.0692  0.0734  0.0580
45165W        W 1406   8.347  34.305   5.116  0.1287 -0.3402 -0.0342
45166W        W 1407  21.340   0.785  22.225 -0.0073 -0.0041 -0.2616
45167W        W 1408  22.609   7.444  24.099 -0.3785  0.0820 -0.3530
45168W        W 1409  30.608  26.271   1.765 -0.4451 -0.3573  0.0446
45169W        W 1410   4.410  32.567   0.173  0.2875  0.0013 -0.2387
45170W        W 1411  16.722   5.556  18.438 -0.1516 -0.2998 -0.1201
45171W        W 1412  25.638  32.621  19.981 -0.2582  0.1893 -0.2200
45172W        W 1413   9.374  23.518  11.484  0.5183 -0.2547 -0.1685
45173W        W 1414  27.907  29.248  14.121  0.0422  0.0035 -0.0544
45174W        W 1415   0.414  31.360   2.895  0.0015 -0.1691 -0.1768
45175W        W 1416   8.290  17.388   3.264 -0.1353  0.0891  0.3151
45176W        W 1417  13.605  28.107   1.698 -0.0944 -0.2777  0.0959
45177W        W 1418  27.154   7.607  14.955 -0.1525  0.0052 -0.2761
45178W        W 1419  23.459  14.694  18.940  0.2749 -0.1370  0.0768
45179W        W 1420  25.283  15.345  21.195 -0.0883 -0.1126 -0.1077
45180W        W 1421  21.370  14.323  15.952 -0.1287  0.0704 -0.0478
45181W        W 1422  30.062  10.783   9.564  0.3241  0.3087 -0.1863
45182W        W 1423  10.942   6.727   7.330  0.0463  0.2540  0.0836
45183W        W 1424  30.606  25.946  12.339  0.1381 -0.2592  0.1277
45184W        W 1425  23.430  30.910  21.060  0.5944  0.1635 -0.0055
45185W        W 1426  16.808  13.793   3.814  0.1771  0.1836  0.1767
45186W        W 1427  10.818  21.713  11.382 -0.0808  0.1155 -0.1821
45187W        W 1428  21.568   1.237  22.608  0.1702  0.1565 -0.0886
45188W        W 1429  32.711  31.485   5.621  0.1634  0.1426 -0.4457
45189W        W 1430  22.283  25.425  24.719 -0.2129 -0.1106 -0.0694
45190W        W 1431   6.167  28.808  24.115  0.1156  0.0747  0.1168
45191W        W 1432  10.571   7.474  12.502 -0.0762 -0.0238 -0.2154
45192W        W 1433  15.443  22.806  15.897  0.2622 -0.1190  0.0456
45193W        W 1434  11.558   7.970   8.731 -0.2371  0.5569 -0.2022
45194W        W 1435  11.915  22.808   4.139  0.1144  0.1806  0.0574
45195W        W 1436   6.254  12.731  22.809  0.0439 -0.2975 -0.1360
45196W        W 1437   4.229  25.381   0.096 -0.0231 -0.1867  0.0055
45197W        W 1438  28.669  29.550  25.931 -0.2805 -0.0784 -0.2163
45198W        W 1439  10.126  33.651  16.394  0.2762  0.1175 -0.0951
45199W        W 1440  12.882  30.429   1.666  0.1737  0.0142  0.2882
45200W        W 1441  15.823  26.819   3.853 -0.1951  0.1498  0.3196
45201W        W 1442  14.179   9.890   5.951 -0.0768 -0.0054  0.1256
45202W        W 1443  27.880  32.352   3.072  0.1962 -0.0874 -0.0284
45203W        W 1444  30.318  23.603  11.698  0.2298  0.0648 -0.2706
45204W        W 1445  23.735   3.378  22.863 -0.1014  0.1022 -0.2368
45205W        W 1446  22.255  10.135  15.327  0.1566  0.0992  0.3414
45206W        W 1447   0.661  12.275  19.577  0.1216 -0.1860  0.2271
45207W        W 1448  18.004  30.438   7.160 -0.1729 -0.0266 -0.0694
45208W        W 1449  31.021   4.242  13.247 -0.0653 -0.0301 -0.0316
45209W        W 1450  34.334  30.455  19.240 -0.0132 -0.1507  0.0207
45210W        W 1451  34.555  31.148   7.571  0.0261  0.0495  0.2166
45211W        W 1452  24.527  20.717  19.059 -0.2387  0.0691 -0.2258
45212W        W 1453  27.961   4.186  15.427  0.0531 -0.0639  0.3772
45213W        W 1454  17.346  22.905  12.656 -0.2254 -0.0732 -0.0511
45214W        W 1455  34.439  15.013  16.654  0.2964 -0.2937 -0.2334
45215W        W 1456   1.981   9.556  25.985 -0.1442 -0.1167  0.1484
45216W        W 1457   9.681  21.037  25.953  0.1007  0.1238  0.0991
45217W        W 1458  29.566  21.325   9.293 -0.1428 -0.1483 -0.2366
45218W        W 1459  33.422  11.451  25.324 -0.3589 -0.1745  0.1514
45219W        W 1460  30.107   5.438   0.271 -0.0192  0.1745  0.2763
45220W        W 1461   8.737  18.873   2.137 -0.2212  0.0265  0.1516
45221W        W 1462  32.104   9.731  14.120  0.0937 -0.1053 -0.0677
45222W        W 1463  28.869  17.705  14.850  0.2950  0.0117 -0.1522
45223W        W 1464  22.167   9.887  23.251 -0.2326 -0.0577 -0.1046
45224W        W 1465   4.081  10.088   3.863  0.3462  0.0496 -0.3040
45225W        W 1466  13.917  26.573  11.015 -0.0017  0.0373  0.0127
45226W        W 1467   6.436   5.085  20.716 -0.1617 -0.2093  0.2124
45227W        W 1468  25.224  34.388  24.721  0.2508  0.0633  0.3294
45228W        W 1469   9.311  14.226  19.853 -0.1575 -0.1207  0.0834
45229W        W 1470   3.649   1.288   5.298  0.0944  0.2502  0.0783
45230W        W 1471  30.071  34.470   6.415  0.2243 -0.1650  0.1781
45231W        W 1472  27.187  19.853   8.348 -0.0487 -0.1893  0.0668
45232W        W 1473  13.280  34.136  12.594 -0.0118 -0.1018  0.2416
45233W        W 1474  22.425  31.403  13.640 -0.0252 -0.0218 -0.2287
45234W        W 1475  20.545  20.210  19.480 -0.2592  0.3578 -0.3023
45235W        W 1476  14.128  10.205  22.682 -0.0187  0.0399  0.0534
45236W        W 1477  33.171  26.207  13.415 -0.0806  0.0609  0.2117
45237W        W 1478   5.732  30.078   0.727 -0.0126  0.0673  0.0767
45238W        W 1479  15.289   9.681   2.974 -0.2024  0.0547 -0.3196
45239W        W 1480   1.564   0.127   3.818 -0.2515 -0.1760 -0.1262
45240W        W 1481  30.154   0.994  19.445 -0.0138  0.1866 -0.0239
45241W        W 1482  27.331  19.383   7.746 -0.1523 -0.1116  0.2586
45242W        W 1483  11.392  16.643   8.627 -0.1354 -0.1787 -0.1056
45243W        W 1484  20.715  16.202  18.950 -0.0973  0.3854  0.0133
45244W        W 1485  33.128  26.486  20.900 -0.3732 -0.1303 -0.0884
45245W        W 1486  17.344  24.273  23.225  0.0661 -0.1508 -0.2170
45246W        W 1487   0.937   8.219  22.399  0.1504  0.1801  0.2887
45247W        W 1488  31.050   8.548   0.998  0.1973  0.0052 -0.1578
45248W        W 1489  25.265  24.726  23.367 -0.3429  0.1001  0.1752
45249W        W 1490   0.465  13.976   1.882  0.0069  0.4715  0.2706
45250W        W 1491  33.668  11.477  21.785 -0.1207 -0.0361  0.2268
45251W        W 1492  30.967  34.380  26.158 -0.1373  0.0824 -0.0770
45252W        W 1493   3.514  14.257  18.856 -0.5763 -0.0899  0.2679
45253W        W 1494  12.422   9.844   5.214  0.1468  0.2101 -0.2502
45254W        W 1495  35.379  19.939   0.120 -0.0756  0.1405 -0.3379
45255W        W 1496  15.745  20.147  14.092  0.0889 -0.3521 -0.1466
45256W        W 1497  11.563   0.027   2.019 -0.0707  0.0954  0.1218
45257W        W 1498  28.443   1.217  10.881 -0.2510  0.2098 -0.3892
45258W        W 1499   9.976  12.930  20.334 -0.2795 -0.2632 -0.0968
45259W        W 1500  34.771  27.428  20.997  0.5232  0.3213 -0.0994
45260W        W 1501  25.447  23.260   0.660 -0.2936  0.4584  0.1793
45261W        W 1502   7.044   8.579   9.340 -0.2456  0.1501 -0.2407
45262W        W 1503  32.918  18.955  17.377  0.1950  0.1565  0.0618
45263W        W 1504  35.116  30.929   6.705 -0.0270  0.0253 -0.0201
45264W        W 1505  17.907   6.571  18.728 -0.0160 -0.0280 -0.0781
45265W        W 1506  11.632  29.105  12.915  0.1320 -0.0474  0.1160
45266W        W 1507  34.519   0.490  23.220  0.0674  0.0829 -0.2623
45267W        W 1508  34.801  11.011  21.072 -0.0629  0.3228  0.2067
45268W        W 1509   3.257  12.328  14.973  0.0550  0.0806 -0.1925
45269W        W 1510   5.616  29.660  23.940  0.1563 -0.0179  0.0055
45270W        W 1511  17.726   7.951  11.259  0.0027  0.2965  0.3163
45271W        W 1512  14.678  22.582  11.848 -0.1074  0.1436  0.2156
45272W        W 1513   8.738  24.121   7.800 -0.0640 -0.2888  0.0230
45273W        W 1514   2.141   5.742   0.873  0.1404  0.0730  0.1107
45274W        W 1515  16.932  24.738  25.009  0.1717 -0.2071 -0.1463
45275W        W 1516   4.004   7.295   4.921  0.2749  0.4115  0.3291
45276W        W 1517  34.386   2.571   3.839 -0.1229 -0.1928  0.1866
45277W        W 1518  13.678  33.679  12.643 -0.0737  0.1447 -0.1189
45278W        W 1519  18.663  11.436   1.899 -0.1338  0.3085 -0.0231
45279W        W 1520   8.602  22.056   5.606 -0.1650  0.1655 -0.3174
45280W        W 1521  31.547  30.447  21.320  0.3116 -0.3431 -0.3329
45281W        W 1522  21.571   3.647  25.555 -0.1233  0.0490  0.1721
45282W        W 1523   6.834  15.924  22.493  0.0090  0.1039 -0.1468
45283W        W 1524   5.532   7.289   5.593  0.0002 -0.2822  0.0127
45284W        W 1525   0.568   6.329  17.647 -0.2736  0.0145 -0.1352
45285W        W 1526  14.219  32.064   8.331  0.0140  0.3977  0.0978
45286W        W 1527  34.800  15.164  16.300 -0.0176 -0.2083  0.3533
45287W        W 1528  17.412  15.627   7.987 -0.0127  0.0945 -0.0055
45288W        W 1529  28.701   6.540  16.727  0.2335  0.0406  0.0518
45289W        W 1530  29.631  34.716  11.884  0.0852  0.6126  0.3251
45290W        W 1531  29.893  26.826   1.515 -0.0447 -0.0238  0.0458
45291W        W 1532   5.535  30.566   1.985  0.1841 -0.0926  0.0906
45292W        W 1533  31.474  11.943  15.592 -0.0580  0.0029  0.1270
45293W        W 1534  10.425   8.521  23.357 -0.0284  0.1447 -0.3255
45294W        W 1535  31.919  23.212   9.171  0.0963 -0.2020 -0.0349
45295W        W 1536   1.300  32.080  17.984  0.2842 -0.1902 -0.0650
45296W        W 1537  28.319  32.192  15.298  0.3965 -0.0878  0.0726
45297W        W 1538   7.093  28.835  16.821  0.2753 -0.0461  0.1103
45298W        W 1539  27.107   4.056  25.250 -0.1328 -0.0941 -0.0869
45299W        W 1540  28.459   3.053  19.869  0.0703  0.0859  0.0837
45300W        W 1541  31.625  13.029   7.681  0.0106  0.0555  0.1100
45301W        W 1542  14.525  26.282   1.935 -0.1035 -0.1330  0.0371
45302W        W 1543  26.360   7.975  20.749 -0.1465  0.1066  0.3413
45303W        W 1544  28.219  31.751  25.569  0.0982 -0.0681  0.0728
45304W        W 1545  25.197   4.626  14.497  0.2103 -0.0037 -0.2694
45305W        W 1546   6.834  29.579   8.985  0.0277 -0.1200 -0.3351
45306W        W 1547   0.447  21.982   0.678 -0.4163  0.2054 -0.1190
45307W        W 1548  28.243   8.500   0.731 -0.0901  0.1528 -0.3471
45308W        W 1549  25.980   9.311  10.104 -0.0581  0.1720 -0.2587
45309W        W 1550  19.292  28.762   1.939 -0.1707  0.1895 -0.0010
45310W        W 1551  18.528  16.569  21.387  0.2401 -0.0086 -0.1528
45311W        W 1552  25.084  31.615  24.233 -0.0909 -0.0593 -0.3031
45312W        W 1553  10.385   2.232   1.730  0.3204  0.0792  0.3127
45313W        W 1554  12.653  18.577   7.474 -0.0839 -0.1909  0.0884
45314W        W 1555  16.726  23.780   9.763 -0.3109 -0.0844 -0.2361
45315W        W 1556   6.092  16.828   9.615  0.2084  0.4683  0.0073
45316W        W 1557  29.488  18.564  17.925  0.3612  0.0988  0.0369
45317W        W 1558   8.682  15.421   7.201  0.0231 -0.1220  0.1441
45318W        W 1559  10.996  12.125  22.937 -0.3610 -0.0402  0.0075
45319W        W 1560  13.916  20.777   2.330 -0.1201 -0.1427  0.1368
45320W        W 1561   8.516   8.302  23.754 -0.1896  0.3172 -0.1323
45321W        W 1562  10.859  13.117  25.866  0.0499  0.0048  0.2975
45322W        W 1563  17.049  33.781  23.907  0.0593  0.0988 -0.0989
45323W        W 1564  26.582  24.207   9.144  0.1450  0.2503 -0.0354
45324W        W 1565   8.311  22.392   6.528  0.0033  0.2845 -0.2352
45325W        W 1566  22.313   1.250   0.484  0.0284 -0.6137  0.3306
45326W        W 1567  29.953  34.570  25.054 -0.0453  0.0030 -0.1569
45327W        W 1568  18.240  29.686  19.515  0.0952 -0.4016  0.1782
45328W        W 1569   1.134  29.413  21.536  0.0554 -0.2953  0.0851
45329W        W 1570  30.729  22.805  15.265 -0.1662 -0.1248 -0.0489
45330W        W 1571  25.858  33.249  20.693 -0.1464  0.0701 -0.4305
45331W        W 1572  17.305  19.094  19.875 -0.1322  0.2529  0.0574
45332W        W 1573  16.368   4.828  18.021  0.1633 -0.2785  0.1878
45333W        W 1574   0.795  11.276  14.546  0.1251 -0.0298 -0.0001
45334W        W 1575  33.354  29.349  22.045  0.0543  0.0063  0.1577
45335W        W 1576  21.093  11.858  22.578 -0.2199  0.0498  0.0298
45336W        W 1577  10.661   1.461   9.584  0.0772 -0.2053  0.1022
45337W        W 1578   3.457   3.447  25.160 -0.0970 -0.1365  0.2185
45338W        W 1579  19.346  24.207  25.315  0.0317 -0.1228 -0.2376
45339W        W 1580  23.165   4.947  15.513  0.4132  0.0205  0.2903
45340W        W 1581  20.442  11.342   2.800 -0.1912  0.0971 -0.2634
45341W        W 1582  21.355   3.341   7.554  0.2594 -0.0990 -0.2737
45342W        W 1583  14.089  31.573  13.488  0.0698  0.4524 -0.2704
45343W        W 1584  11.999   6.654   3.599  0.1631  0.2790 -0.0447
45344W        W 1585  32.854  22.726  21.691 -0.0363 -0.0584  0.0235
45345W        W 1586  10.238  30.921  16.156  0.1130  0.1180  0.1162
45346W        W 1587  10.415  17.485   6.777  0.1027 -0.0024  0.2467
45347W        W 1588   1.321  10.943  23.091 -0.0949  0.0117 -0.0516
45348W        W 1589  33.538  11.928  13.829  0.2908 -0.2054  0.0817
45349W        W 1590  19.744  13.737  17.885 -0.0017 -0.3639  0.2953
45350W        W 1591  23.104  30.222  14.708  0.0719  0.0284  0.0783
45351W        W 1592   1.579   2.942  19.204  0.2284  0.4033  0.2047
45352W        W 1593   8.234  18.641   6.692 -0.1663 -0.2589  0.0692
45353W        W 1594  16.256  13.497  22.559 -0.1016  0.1144  0.2098
45354W        W 1595   2.963  20.049  20.426 -0.3115  0.1867  0.2101
45355W        W 1596   7.022   4.428   1.182  0.3190  0.0443  0.0810
45356W        W 1597  10.422  25.635  23.008 -0.0125  0.2672  0.4443
45357W        W 1598  18.963   4.613   2.331 -0.3565 -0.2192 -0.1120
45358W        W 1599   1.650  34.260  22.782 -0.0952 -0.2144 -0.0775
45359W        W 1600  27.874  31.558  19.328 -0.3823  0.0007 -0.3806
45360W        W 1601  12.334  31.362   2.108  0.0547  0.2972 -0.1556
45361W        W 1602  26.877  14.820  20.719  0.0573  0.1331 -0.0036
45362W        W 1603  17.873  30.403   8.322  0.0089  0.3735  0.0093
45363W        W 1604   3.795  29.001  24.223 -0.0318  0.0803 -0.0435
45364W        W 1605  28.455  22.411   9.699  0.1301  0.1692 -0.0956
45365W        W 1606   9.813  22.102  24.132  0.2636  0.7091  0.2408
45366W        W 1607   1.520  33.951   8.013  0.1861  0.1948 -0.1594
45367W        W 1608  22.606  10.820   3.489  0.2127  0.5926 -0.0875
45368W        W 1609  27.556  16.613  23.284 -0.0283  0.1716 -0.2803
45369W        W 1610  30.113   4.839  15.202  0.0324  0.1265  0.0641
45370W        W 1611   0.505   8.691  14.245 -0.0876 -0.4846 -0.2630
45371W        W 1612   6.040  26.164   4.219 -0.1937  0.0945  0.1274
45372W        W 1613  11.861  10.285   7.796 -0.0486  0.4311 -0.0597
45373W        W 1614  35.275  26.142   2.555  0.1568 -0.3180  0.1508
45374W        W 1615   0.793  14.317  15.401 -0.1944 -0.0441  0.1595
45375W        W 1616   3.152   4.805   5.963  0.1583  0.3160  0.2177
45376W        W 1617   8.993   3.371   8.127 -0.1547  0.0789  0.1934
45377W        W 1618   4.107  29.439  22.829 -0.2280  0.3347  0.0611
45378W        W 1619   0.109   7.145  22.436 -0.0675  0.1577 -0.2561
45379W        W 1620  24.438   2.374  17.041 -0.2451  0.1031  0.3785
45380W        W 1621   5.080   9.472  17.827  0.2769 -0.0564 -0.3982
45381W        W 1622  11.210   2.858  11.628 -0.1220 -0.0949  0.4060
45382W        W 1623   1.129  14.959  25.160  0.1764  0.1904 -0.0371
45383W        W 1624  17.223  28.500   4.299 -0.1229  0.2163 -0.2253
45384W        W 1625   6.490   5.183   2.994  0.0235  0.0357  0.0406
45385W        W 1626  34.441   2.215  18.833 -0.0225 -0.0519 -0.3063
45386W        W 1627  23.270   2.859  17.187 -0.1332 -0.1431  0.1852
45387W        W 1628  25.135  18.798   8.270 -0.1205  0.1174  0.2265
45388W        W 1629  18.016   6.169   6.494  0.1554 -0.0529 -0.0779
45389W        W 1630  25.926  32.655  19.334  0.0446 -0.0884  0.3667
45390W        W 1631   6.120  23.697   1.050 -0.1571  0.0343 -0.1195
45391W        W 1632  11.671  23.683  11.967  0.0057 -0.1528 -0.4880
45392W        W 1633  11.554   6.598   3.243  0.0144 -0.2476 -0.2052
45393W        W 1634   3.364  17.563  16.303  0.1450  0.1423 -0.3150
45394W        W 1635  30.468   8.956   8.668  0.1793 -0.1447  0.0087
45395W        W 1636  22.181  32.668  24.300 -0.0207  0.0888  0.1188
45396W        W 1637  23.360  30.764  24.334  0.2785 -0.2987 -0.2842
45397W        W 1638  17.144   6.158   3.556  0.0281 -0.0725 -0.1953
45398W        W 1639   4.607  30.982  10.893 -0.1952 -0.0427 -0.0821
45399W        W 1640  29.990   4.145   4.451 -0.0345  0.3555 -0.1196
45400W        W 1641  23.825  13.347  12.115  0.0341 -0.0054 -0.0211
45401W        W 1642   4.028  33.362   6.860  0.1109  0.2446 -0.1593
45402W        W 1643  16.047   8.764  20.255  0.3641  0.0787  0.0924
45403W        W 1644  23.401  26.219  15.830  0.2473  0.0337  0.0608
45404W        W 1645  10.170  22.677  25.993  0.1855 -0.1003  0.0651
45405W        W 1646  16.134   1.355   9.139  0.0314  0.0779  0.1303
45406W        W 1647  11.095  13.090   1.956  0.1676  0.1120 -0.5485
45407W        W 1648  24.083  28.735  24.910  0.1414 -0.0166  0.2594
45408W        W 1649  26.317  15.407  14.831  0.2157 -0.1347 -0.1531
45409W        W 1650  28.165   2.448  21.201 -0.0434  0.0999  0.4639
45410W        W 1651   6.233  23.388  10.396  0.2934  0.3864 -0.3101
45411W        W 1652  22.384  35.004   3.891 -0.0712  0.0742 -0.2054
45412W        W 1653   8.313  13.259   9.670  0.2362 -0.1700  0.2973
45413W        W 1654  26.608   5.646  26.211  0.1311 -0.1910  0.2552
45414W        W 1655  18.784  18.076  23.716 -0.3569  0.1731 -0.1985
45415W        W 1656   4.611  27.379  25.141 -0.1384  0.1738  0.0385
45416W        W 1657  28.785   8.596   9.673 -0.2811 -0.0135 -0.0501
45417W        W 1658  14.697  29.554  26.204 -0.1255 -0.2696 -0.1158
45418W        W 1659   3.896  19.961  15.170  0.2156  0.1151  0.3233
45419W        W 1660  28.594  26.929  21.346 -0.0338 -0.1194  0.2413
45420W        W 1661  24.051   0.695   2.064 -0.0518  0.0445  0.0402
45421W        W 1662   3.102  21.642   1.002  0.0134  0.3278  0.3745
45422W        W 1663  29.916   5.114  11.755 -0.1019  0.1974  0.0062
45423W        W 1664  25.043  30.340  10.214 -0.1495  0.1822  0.1242
45424W        W 1665  29.362  31.078  14.529  0.0452  0.2071 -0.2825
45425W        W 1666  11.231   1.630   3.366 -0.0445  0.0893 -0.0771
45426W        W 1667   1.106  20.193   2.141  0.3936  0.0130  0.0116
45427W        W 1668  32.417  26.549   2.908  0.3545  0.2041 -0.0762
45428W        W 1669  16.925   9.364  24.617  0.0401 -0.1561 -0.2823
45429W        W 1670  11.605  20.448   1.670 -0.0586 -0.1192 -0.0085
45430W        W 1671  23.882   9.438  14.241 -0.0617 -0.3187  0.1992
45431W        W 1672  22.390  33.618  14.963  0.0486  0.0544 -0.1590
45432W        W 1673  11.230  22.310  11.154 -0.2458  0.1183  0.0647
45433W        W 1674   0.241  21.571   0.412 -0.0605 -0.0981 -0.2553
45434W        W 1675  18.146  23.167   9.580  0.3642 -0.3597 -0.1150
45435W        W 1676   3.057   8.040  15.682 -0.0860 -0.0007  0.0313
45436W        W 1677  20.279  12.563  21.876  0.2406  0.1752  0.0340
45437W        W 1678  27.404  19.399  10.622 -0.2225  0.0146  0.3664
45438W        W 1679   2.819  31.859   5.364  0.2520  0.2330  0.0489
45439W        W 1680   1.101  21.765  17.320 -0.0885 -0.1390 -0.1462
45440W        W 1681  19.563  30.160  25.569 -0.1294  0.0779 -0.3336
45441W        W 1682   6.516   5.469  10.835  0.0070  0.1407 -0.3146
45442W        W 1683  21.930  19.721  18.096  0.1112 -0.0305 -0.1921
45443W        W 1684   6.954  32.901  15.664 -0.2750 -0.0963 -0.0875
45444W        W 1685  10.631  20.103  23.072 -0.0069  0.3241 -0.3057
45445W        W 1686   8.363  32.213   8.609 -0.2351 -0.0264 -0.2691
45446W        W 1687  15.916  10.660  12.574  0.3707 -0.0387 -0.1086
45447W        W 1688  13.860   0.345   2.514  0.0364 -0.0502 -0.0442
45448W        W 1689  31.111   3.667   0.509 -0.1304 -0.0451 -0.2759
45449W        W 1690  16.625  10.071  19.355 -0.0152 -0.0706 -0.0756
45450W        W 1691   3.463  26.762   5.412 -0.0053 -0.1353  0.0837
45451W        W 1692  33.056  23.713  20.556 -0.0175 -0.0184 -0.0869
45452W        W 1693   8.553  33.796  24.243 -0.0434 -0.2608  0.2835
45453W        W 1694   9.467   7.580   1.405 -0.0016 -0.1251 -0.0028
45454W        W 1695  25.471  22.113  21.402  0.0425  0.0767 -0.1694
45455W        W 1696  18.749   5.504   2.136 -0.3716 -0.1636 -0.2283
45456W        W 1697  18.586  17.882  19.083  0.0475 -0.3250 -0.0612
45457W        W 1698  27.516  17.455  20.391  0.5993  0.0788  0.2604
45458W        W 1699   6.245   9.835   7.973  0.2003  0.0882  0.2149
45459W        W 1700  24.547  28.754  22.854  0.0798 -0.0307  0.0192
45460W        W 1701  17.330  17.074   3.107  0.0732 -0.1656 -0.1959
45461W        W 1702  34.365  21.920  22.523 -0.1279 -0.4523 -0.1529
45462W        W 1703  11.301   7.446  19.540  0.2495  0.0008  0.0990
45463W        W 1704  19.550  34.305   5.064 -0.2865 -0.1519 -0.2409
45464W        W 1705  32.989   5.299   3.651  0.1661 -0.4062 -0.3244
45465W        W 1706  14.330  17.478  12.453 -0.1914 -0.0959  0.0647
45466W        W 1707   9.201  25.992   5.319 -0.0333  0.3094  0.1858
45467W        W 1708  31.103  18.356  10.057  0.1059 -0.0910  0.0332
45468W        W 1709  33.327  12.312  21.115  0.1576  0.1413  0.1395
45469W        W 1710  29.267  13.880  23.336 -0.0413 -0.0855 -0.1378
45470W        W 1711  15.412   6.852  13.011  0.5342  0.0439  0.0050
45471W        W 1712  29.232   5.507  21.402 -0.2360 -0.1292 -0.2144
45472W        W 1713   5.630  13.719  19.519  0.0202  0.1726  0.2882
45473W        W 1714  28.243  35.139  16.942 -0.1192  0.2099  0.1981
45474W        W 1715  34.670   9.358  23.832 -0.0453  0.1250  0.0955
45475W        W 1716  26.804  13.407   0.039  0.0737 -0.1248 -0.1376
45476W        W 1717  25.606  27.952   3.441 -0.3032  0.1245 -0.0094
45477W        W 1718  34.013  20.127  25.212 -0.1557 -0.1813 -0.0187
45478W        W 1719  14.674  13.571   9.290 -0.0092  0.1067 -0.1136
45479W        W 1720  33.224  27.091  16.753  0.0102 -0.0458  0.0686
45480W        W 1721   5.927  11.067   8.293  0.0301 -0.5089  0.2943
45481W        W 1722   0.079   5.563  18.004  0.0265 -0.3354 -0.1003
45482W        W 1723  16.213  17.354  11.667  0.1880 -0.1974  0.2051
45483W        W 1724  13.630   9.155  14.720  0.1490 -0.2029 -0.2041
45484W        W 1725  17.006   3.391  18.316 -0.3554  0.1683 -0.0008
45485W        W 1726   8.716   6.418  19.522 -0.0163  0.0995 -0.3533
45486W        W 1727  15.457   7.682  18.895  0.2040  0.2154 -0.0408
45487W        W 1728  32.147  27.325  17.295  0.0573 -0.1666  0.2249
45488W        W 1729  26.113   9.482  10.591  0.0569 -0.2071 -0.1076
45489W        W 1730  23.773  25.596  25.347 -0.0640 -0.0928 -0.1974
45490W        W 1731  19.502  28.309   8.624 -0.0708 -0.0605 -0.0643
45491W        W 1732  11.523  12.539  12.371  0.0076 -0.2560 -0.0678
45492W        W 1733  25.561   2.272  24.174  0.0361 -0.1086  0.0172
45493W        W 1734  17.201  22.512   5.434  0.0406  0.3015 -0.1577
45494W        W 1735   8.503   2.219  24.063 -0.0248 -0.0994  0.0462
45495W        W 1736  11.886   6.491   4.055  0.1558  0.0997  0.0659
45496W        W 1737   0.087  16.925   9.877 -0.1656  0.1049 -0.1360
45497W        W 1738   2.826   7.858  25.578 -0.2685 -0.3011 -0.1647
45498W        W 1739   5.617   7.880   6.656 -0.0523  0.0876 -0.0198
45499W        W 1740  31.013  29.849  26.082  0.2421  0.2901 -0.3098
45500W        W 1741   1.364   0.223   2.747 -0.0197  0.1995 -0.0155
45501W        W 1742  28.343  35.372   1.544 -0.0832  0.0806 -0.0682
45502W        W 1743  13.712  32.867   2.946 -0.2120  0.2590  0.0880
45503W        W 1744  17.865  27.218   0.608  0.0057 -0.2262 -0.1325
45504W        W 1745  25.014   1.276  22.024 -0.1917 -0.1154 -0.0479
45505W        W 1746   9.357  33.339   7.361  0.2278  0.0788 -0.2032
45506W        W 1747   7.422  25.993   7.569 -0.1192 -0.0043  0.1754
45507W        W 1748   7.461   2.090  10.322 -0.0784  0.2023  0.0704
45508W        W 1749  20.908  13.748   1.750  0.1381 -0.2100  0.0915
45509W        W 1750  33.363   5.234  26.193 -0.0463  0.0132  0.0063
45510W        W 1751  14.413  20.613  25.907 -0.0424 -0.0268  0.4657
45511W        W 1752  11.892  12.050  20.100  0.0340  0.0510  0.2784
45512W        W 1753   2.726  10.334   5.211 -0.0564 -0.0054 -0.3454
45513W        W 1754  21.886  20.273   0.561  0.2612  0.1969 -0.2220
45514W        W 1755  32.584  29.523  24.670  0.1475 -0.3638  0.1089
45515W        W 1756  35.285   0.545  21.093 -0.0290 -0.0725 -0.0223
45516W        W 1757  23.131  29.014  19.260 -0.0774  0.0131  0.1027
45517W        W 1758  18.177   0.199   1.730 -0.0452 -0.2020 -0.0274
45518W        W 1759   5.304  15.436   4.821  0.1584 -0.1500  0.1180
45519W        W 1760   8.762   9.680  12.371 -0.2578 -0.1680  0.0050
45520W        W 1761  34.100  16.673  17.708 -0.2464  0.2024  0.1447
45521W        W 1762  16.537   6.109   9.146 -0.1289 -0.0028 -0.3517
45522W        W 1763  28.369   2.538   4.491  0.1716  0.1006  0.0066
45523W        W 1764  22.497  17.447  17.793 -0.1001  0.1689 -0.4290
45524W        W 1765   4.885  16.094  23.348  0.0482  0.0935  0.0486
45525W        W 1766  15.465   9.879   1.528  0.1115 -0.2707 -0.0406
45526W        W 1767  16.326  16.261  11.044 -0.0257  0.0961 -0.0997
45527W        W 1768  26.342   3.434  17.452  0.0227 -0.0664  0.3649
45528W        W 1769  15.469  10.076  20.076  0.0363 -0.2899 -0.0828
45529W        W 1770  23.182  13.383  25.171 -0.0040 -0.1001  0.3287
45530W        W 1771  13.278   4.615  22.156  0.2415  0.1495 -0.1398
45531W        W 1772  17.557  35.383   9.365  0.2154  0.2226  0.0553
45532W        W 1773  13.449  11.621   0.903 -0.0082  0.3008  0.2962
45533W        W 1774  18.635  16.685  22.238  0.0128  0.0713  0.1791
45534W        W 1775   3.289  18.041  16.642 -0.2356 -0.0215  0.2253
45535W        W 1776  17.792   7.560  20.347 -0.0396  0.0694 -0.4815
45536W        W 1777  19.415  27.552   8.633  0.0505 -0.1266 -0.0017
45537W        W 1778  16.131  34.208   4.747 -0.1356 -0.0705  0.2108
45538W        W 1779  11.622  10.470   4.313  0.1992 -0.2555  0.0605
45539W        W 1780  27.764   5.164  24.184  0.1880 -0.0034  0.2232
45540W        W 1781   3.826  33.004  11.232  0.0146  0.0244  0.2130
45541W        W 1782  21.647  23.807  25.521 -0.0357  0.4124  0.2792
45542W        W 1783   5.863  25.218  13.535 -0.0252 -0.0509  0.0149
45543W        W 1784  19.933  16.722   5.753 -0.0957 -0.0910 -0.1594
45544W        W 1785  21.843   7.084   3.346 -0.3505 -0.0777  0.1319
45545W        W 1786  34.966  33.737  16.654 -0.0818 -0.0727  0.0083
45546W        W 1787   3.289  14.897  20.943  0.0244 -0.2732 -0.0310
45547W        W 1788   9.728  23.725   1.455 -0.0617  0.0679  0.0916
45548W        W 1789   7.861  27.126   6.859 -0.3776 -0.2507  0.1990
45549W        W 1790  29.659  16.503  17.797  0.2407  0.3747  0.0701
45550W        W 1791   7.927  28.765   7.218 -0.2673  0.0195  0.2132
45551W        W 1792  33.673  19.428   0.604 -0.0299 -0.1374 -0.2970
45552W        W 1793  26.632   6.270  26.029 -0.1827  0.0446  0.3981
45553W        W 1794  31.855   0.437   2.203 -0.1015 -0.1362 -0.1727
45554W        W 1795  34.302  11.737  11.877 -0.2897 -0.2675 -0.0389
45555W        W 1796  21.610  32.730  18.759  0.2848  0.1797 -0.3445
45556W        W 1797  16.941   7.106  24.668  0.1946  0.0721  0.0146
45557W        W 1798  29.013   7.677  22.604 -0.1354  0.2292  0.0302
45558W        W 1799   6.208  20.098  25.581  0.3509  0.0631  0.0914
45559W        W 1800  31.482  19.562  24.687  0.2131  0.0927 -0.2361
45560W        W 1801  32.968  11.920  24.791 -0.0474  0.2643 -0.5062
45561W        W 1802  20.230  32.159  15.135 -0.2435 -0.0800  0.0074
45562W        W 1803  20.413   5.838   1.475 -0.0977 -0.1832  0.1008
45563W        W 1804  15.685  21.647  22.433  0.0130 -0.0423  0.1036
45564W        W 1805  13.614   9.105   0.019 -0.4418 -0.3566  0.2558
45565W        W 1806  16.240  17.053   6.699 -0.2748 -0.1741 -0.1351
45566W        W 1807  11.600  12.684  12.827  0.0492 -0.4288 -0.1047
45567W        W 1808  26.087  24.475  20.483 -0.0447  0.0281  0.1533
45568W        W 1809  23.052  17.915   1.025 -0.0272  0.0897  0.1731
45569W        W 1810  12.989  20.494  26.249  0.1732  0.2676  0.3497
45570W        W 1811   4.967   1.251  25.894 -0.0705  0.0354  0.2776
45571W        W 1812  17.764  33.511  22.355  0.0717 -0.3412  0.0410
45572W        W 1813  10.317  13.124  26.128  0.1352 -0.2720  0.0865
45573W        W 1814  31.566  24.604  21.897 -0.0743 -0.3705 -0.1910
45574W        W 1815   3.364  22.070  22.316 -0.0840 -0.3338  0.0703
45575W        W 1816   1.293  19.380  25.559 -0.0313 -0.2253 -0.2709
45576W        W 1817  24.218   9.087  20.319  0.0028 -0.2750  0.0456
45577W        W 1818  12.137   2.657  10.188 -0.1222 -0.0788 -0.0835
45578W        W 1819  29.265   4.580   2.966  0.0849 -0.3433 -0.0060
45579W        W 1820  31.005  30.545  21.360  0.0670 -0.1842  0.2218
45580W        W 1821  14.025  13.293  23.545 -0.0096  0.0794 -0.1301
45581W        W 1822  33.419  34.077  17.167  0.0643 -0.1836 -0.1040
45582W        W 1823  28.873  21.658  24.637  0.1260 -0.0458  0.1376
45583W        W 1824  25.038  33.229  11.004  0.2240 -0.0704 -0.0938
45584W        W 1825  31.722   9.134  26.033  0.1907  0.1815  0.0382
45585W        W 1826  25.076  14.149  19.234 -0.0542 -0.3108 -0.2039
45586W        W 1827  33.681   2.648  25.218 -0.0300  0.1296 -0.1002
45587W        W 1828  20.523  20.751   0.639  0.1850 -0.0849 -0.3129
45588W        W 1829   4.088  30.860  20.988  0.0079  0.0752  0.2132
45589W        W 1830  23.670  13.025  24.024  0.2768  0.2699  0.1035
45590W        W 1831  14.045  32.203   6.858 -0.0566 -0.0837 -0.1180
45591W        W 1832  21.322  20.490   2.055  0.3235  0.2665  0.1461
45592W        W 1833  31.463  21.046  21.123 -0.1150 -0.1224  0.0720
45593W        W 1834  19.164  10.085  25.502 -0.0993 -0.3595  0.1947
45594W        W 1835  19.963  14.162  24.829  0.1083  0.0911  0.0411
45595W        W 1836  29.976  12.969  24.553  0.5261  0.0715  0.0877
45596W        W 1837  13.305   7.818   0.535 -0.2144  0.2741 -0.0582
45597W        W 1838  25.256  24.648  10.550 -0.0250 -0.0056  0.1329
45598W        W 1839  16.568   5.249  25.512  0.1198 -0.2460  0.1085
45599W        W 1840  32.949   3.143   4.375 -0.1495  0.1080 -0.1475
45600W        W 1841  35.080   4.354   6.272  0.4058  0.4479  0.1141
45601W        W 1842   1.416  22.204  17.759  0.2287 -0.2398 -0.0051
45602W        W 1843  32.917  18.689  20.208  0.2960 -0.1593 -0.3062
45603W        W 1844  31.784  32.690   2.965 -0.0332  0.1860 -0.3239
45604W        W 1845  14.763  17.480   6.785 -0.0861 -0.3405  0.0268
45605W        W 1846   2.943  20.887   3.171  0.0225 -0.0956 -0.0390
45606W        W 1847  11.199  17.698  10.230 -0.0799 -0.0014 -0.0066
45607W        W 1848  14.504  18.846  12.245 -0.2814 -0.1359  0.1313
45608W        W 1849  18.530  24.797   1.663 -0.0905  0.1956 -0.1657
45609W        W 1850   9.554  29.181  10.603  0.0277 -0.1619  0.0590
45610W        W 1851  24.151  29.250  17.785 -0.0411  0.2308  0.0854
45611W        W 1852  29.686  18.457  19.499  0.0874 -0.0438 -0.1076
45612W        W 1853  11.770   0.879  24.573  0.1736  0.2232 -0.1389
45613W        W 1854   7.893  13.954   6.996  0.3007 -0.2647  0.2238
45614W        W 1855   4.845  34.716   1.228  0.3171  0.2351 -0.0245
45615W        W 1856  20.942  26.737  20.126 -0.0033  0.1641 -0.0566
45616W        W 1857  35.306  23.766  24.153  0.2053  0.4175 -0.1875
45617W        W 1858  26.335  23.524  19.226 -0.0015  0.2458  0.2539
45618W        W 1859  34.818  11.886  15.115  0.0599  0.0104  0.4462
45619W        W 1860  14.545   4.442  21.565  0.1334 -0.0618  0.0033
45620W        W 1861  17.758  20.535   0.976  0.1552 -0.0717 -0.2221
45621W        W 1862  28.244  10.336  24.046 -0.2777 -0.0526  0.0604
45622W        W 1863  14.355  15.614  20.896 -0.4324 -0.0062 -0.1501
45623W        W 1864  10.162  24.189  14.047  0.1614 -0.3462 -0.1266
45624W        W 1865  34.282  17.659  10.385 -0.1626  0.2126 -0.3032
45625W        W 1866   0.835   8.156  22.933 -0.0665  0.3878 -0.3433
45626W        W 1867  17.821  23.025   9.209  0.0836  0.3202  0.2214
45627W        W 1868   7.345   3.677  21.337  0.2625 -0.0578  0.0514
45628W        W 1869   1.784  27.357   2.680  0.2129  0.2381  0.0704
45629W        W 1870  33.391   9.365  25.315 -0.0192  0.2031  0.1119
45630W        W 1871  11.868  29.771   6.042 -0.2415  0.2175  0.1806
45631W        W 1872  15.009  17.289  24.921  0.1909 -0.2915 -0.3214
45632W        W 1873  13.092  34.092   8.778  0.0320  0.1750 -0.1517
45633W        W 1874  34.972  21.241  23.409  0.2820  0.2757 -0.1811
45634W        W 1875  11.923  27.038  21.990 -0.0630 -0.2359 -0.0885
45635W        W 1876  17.850  14.578  21.521  0.1049 -0.5697  0.2024
45636W        W 1877  18.697  26.669   0.117 -0.0090  0.0650  0.1180
45637W        W 1878  14.476   6.185   8.296  0.2890 -0.2619 -0.1274
45638W        W 1879   0.415  15.639  10.960 -0.2300 -0.0806 -0.3679
45639W        W 1880   3.549  25.972   9.920  0.2900 -0.1738  0.0085
45640W        W 1881  27.911  26.620   0.659  0.3622  0.0484 -0.0596
45641W        W 1882  12.454   6.204  23.192  0.1281  0.1157 -0.0896
45642W        W 1883  11.995   6.863   3.179  0.3016 -0.0859 -0.0207
45643W        W 1884  34.579   3.458  21.726 -0.1096  0.0308 -0.2116
45644W        W 1885  22.011  21.934  23.972  0.2066  0.1691 -0.2890
45645W        W 1886   6.760  19.252  21.629  0.2862  0.1981 -0.2796
45646W        W 1887  14.875  28.560   2.029 -0.2718 -0.0128 -0.1249
45647W        W 1888  13.307  31.432  23.919 -0.2648 -0.3010  0.1672
45648W        W 1889  11.502   7.798  19.080 -0.1396 -0.0614 -0.2268
45649W        W 1890   5.192  20.933  20.503  0.1134 -0.1185  0.0607
45650W        W 1891  29.064  17.640   9.704  0.1848 -0.0245 -0.3352
45651W        W 1892   7.627  10.527  23.301 -0.0835  0.1284 -0.0382
45652W        W 1893   7.700  10.010  11.760 -0.0889  0.0109 -0.0077
45653W        W 1894  21.848   3.199  21.772 -0.0145  0.2928  0.1209
45654W        W 1895  15.673  17.151  19.673 -0.0824 -0.2625  0.0789
45655W        W 1896   8.982  33.513  24.190 -0.0551  0.0711 -0.0099
45656W        W 1897  31.599  23.757  19.546 -0.2148  0.2224 -0.1601
45657W        W 1898   7.272  32.729  10.232  0.3168 -0.0965  0.0437
45658W        W 1899   4.381   2.475   9.439 -0.0372  0.0169 -0.2018
45659W        W 1900   9.185   2.483  20.298  0.1768 -0.1176 -0.4473
45660W        W 1901  20.033   1.262  19.269 -0.2812  0.0863  0.0642
45661W        W 1902  17.000  16.115  25.355  0.0843  0.0371 -0.1795
45662W        W 1903  17.512  31.992  25.142 -0.2100  0.3008  0.1626
45663W        W 1904  29.462  26.857  13.847 -0.0089  0.0388 -0.0195
45664W        W 1905  23.630  27.542  22.287 -0.1043 -0.0820 -0.1375
45665W        W 1906   6.862  30.019  25.116 -0.1585 -0.3193 -0.1888
45666W        W 1907  26.483  32.604   4.123 -0.2164 -0.2553  0.0608
45667W        W 1908  31.774  11.487  22.996  0.0017  0.0192  0.1032
45668W        W 1909   4.289  24.809  24.411  0.2669  0.1717 -0.1632
45669W        W 1910  16.141  27.414   5.579  0.0251 -0.1820 -0.3047
45670W        W 1911   9.741   0.273  24.167 -0.1050  0.1764  0.3368
45671W        W 1912  10.642   8.258  12.732 -0.0668 -0.0451  0.1793
45672W        W 1913  14.339  15.235   5.689  0.0793  0.0233 -0.1583
45673W        W 1914  16.476   1.535   7.335  0.3315  0.5456  0.0570
45674W        W 1915   6.095  34.597  19.795 -0.1182 -0.2832 -0.0113
45675W        W 1916   5.074   8.516  22.496 -0.0958 -0.0760  0.0920
45676W        W 1917  10.173   5.688   3.887 -0.2796  0.0186  0.3938
45677W        W 1918   3.775  30.583  21.916  0.2219 -0.0213  0.1700
45678W        W 1919  11.262  27.038   2.391 -0.0247 -0.0372 -0.1251
45679W        W 1920  20.487  28.019   4.129  0.0018 -0.0745 -0.3279
45680W        W 1921  13.446   6.492  13.532  0.2680  0.0544 -0.1594
45681W        W 1922   3.949   5.510   6.059  0.4234 -0.0180  0.0735
45682W        W 1923  28.380  28.087  20.922  0.1214 -0.0241 -0.3694
45683W        W 1924  22.454  17.553  14.021  0.3247  0.0962  0.1235
45684W        W 1925   5.662   5.982  24.398 -0.1331 -0.0932  0.0528
45685W        W 1926  12.581  30.760   8.340 -0.2113 -0.1806  0.0862
45686W        W 1927  12.812  33.690  21.786  0.0621  0.2195 -0.3417
45687W        W 1928   0.756  29.765  22.261 -0.0740 -0.3265 -0.1854
45688W        W 1929   0.145  32.691  20.984 -0.0898 -0.0870  0.1610
45689W        W 1930  33.156  11.297  14.186 -0.4607  0.1348 -0.0698
45690W        W 1931  24.690  32.092  20.216  0.0128  0.0174  0.3489
45691W        W 1932  20.769  17.821   3.769  0.0805  0.0129  0.1875
45692W        W 1933  34.647  31.999  23.246  0.0420  0.2604  0.1617
45693W        W 1934  11.488   6.889   7.353 -0.2163  0.3028  0.1293
45694W        W 1935  11.280  15.765   3.822  0.0696  0.0671  0.1305
45695W        W 1936   7.889  30.940  24.726 -0.2315 -0.2133  0.0952
45696W        W 1937  20.356  11.090   2.364 -0.1704  0.2147  0.0999
45697W        W 1938  20.736   2.760   4.010 -0.1700 -0.4262 -0.1556
45698W        W 1939  23.727   2.777   2.951  0.1763  0.1409 -0.2308
45699W        W 1940  15.184  34.917  19.043  0.0556  0.0637  0.2095
45700W        W 1941  20.844   5.172  19.391 -0.0947  0.1554  0.1233
45701W        W 1942  13.216  18.058  25.406 -0.0689 -0.0718 -0.1859
45702W        W 1943  12.979  31.438  14.723  0.0470 -0.1768 -0.1533
45703W        W 1944  23.153  21.704  20.317  0.0006 -0.1282 -0.2429
45704W        W 1945  17.342  30.810  25.667 -0.1296 -0.0405  0.1716
45705W        W 1946  17.972  10.957   0.110  0.0670  0.2066  0.1533
45706W        W 1947  25.718   0.096  16.838 -0.1631  0.0859 -0.2190
45707W        W 1948  13.304   6.520   5.562 -0.2603 -0.2940 -0.0355
45708W        W 1949   9.994  32.159  22.708  0.2414 -0.0611 -0.3462
45709W        W 1950  27.032   2.688  16.324 -0.3043  0.2199  0.3790
45710W        W 1951  19.202  24.280   8.811  0.0776  0.1610 -0.4696
45711W        W 1952   7.876  29.664  10.522  0.0586  0.1074  0.0751
45712W        W 1953  19.240  19.214  20.467  0.3500 -0.1612 -0.0908
45713W        W 1954  13.081  28.862  25.634 -0.0155 -0.1699  0.1588
45714W        W 1955  12.495  25.886  11.991 -0.0735  0.2049  0.0565
45715W        W 1956  18.743   6.878  23.740 -0.0013  0.0603 -0.1157
45716W        W 1957   2.198   5.846  24.755 -0.2180  0.0365  0.3082
45717W        W 1958   9.646  26.101  15.771  0.1303 -0.2392 -0.4140
45718W        W 1959   1.105  20.073   8.281 -0.1012 -0.3246 -0.1405
45719W        W 1960  13.483  31.463  24.762  0.0653 -0.0650 -0.0046
45720W        W 1961   1.120  31.029   6.436 -0.0723 -0.0799  0.1370
45721W        W 1962  13.862  34.508  19.901  0.1119  0.0134 -0.1186
45722W        W 1963  29.262   8.843  24.621 -0.3651 -0.2520 -0.2691
45723W        W 1964   1.562   2.280  25.781  0.0291 -0.1534 -0.0243
45724W        W 1965  34.083  14.756  13.844 -0.0936 -0.2175  0.1060
45725W        W 1966  29.977  28.405  16.584  0.0329  0.1613 -0.2406
45726W        W 1967  14.936  22.183   1.835  0.1188  0.0656 -0.2042
45727W        W 1968  30.261  11.270  26.047  0.2066 -0.3318 -0.1158
45728W        W 1969   7.547  26.110   8.481  0.1688  0.1820  0.0399
45729W        W 1970  25.426  21.971  23.852 -0.0527 -0.1819 -0.0153
45730W        W 1971   3.163  18.428  15.112  0.5192 -0.0145  0.3763
45731W        W 1972  32.633  21.597  10.804  0.1087 -0.2299 -0.2980
45732W        W 1973   4.277  16.213  16.234 -0.1230 -0.0672 -0.3286
45733W        W 1974  33.542   1.272  26.104 -0.2080  0.2220 -0.0254
45734W        W 1975  25.557   6.926  22.612  0.1638  0.2368 -0.1608
45735W        W 1976  23.948  14.363  17.737 -0.0760  0.0995 -0.2778
45736W        W 1977  10.350   1.935   8.076 -0.0841 -0.0821  0.0734
45737W        W 1978  15.094  17.257   3.712  0.2042 -0.0084  0.1273
45738W        W 1979  20.216  26.529   7.992 -0.4345  0.0183  0.1695
45739W        W 1980  11.543   1.076  11.494 -0.1434 -0.1102 -0.0630
45740W        W 1981  25.045   1.895  22.773  0.0217  0.0265 -0.2099
45741W        W 1982  31.408   5.004   1.255 -0.1755  0.3471  0.0004
45742W        W 1983  25.149   7.366  14.287 -0.1145  0.4566 -0.0391
45743W        W 1984  32.192  22.705  21.128  0.1320  0.0145 -0.4554
45744W        W 1985  16.267  19.589   7.180  0.1472 -0.1702 -0.3887
45745W        W 1986   8.255   9.522   5.706  0.1982 -0.0664 -0.0666
45746W        W 1987   7.626  34.105  26.170  0.2186 -0.0174 -0.0454
45747W        W 1988  23.543  32.477  26.045 -0.1278 -0.0369 -0.1886
45748W        W 1989   7.973   8.119  18.698 -0.0473 -0.0761 -0.4757
45749W        W 1990  22.981  30.153  21.810  0.1548  0.1463 -0.0315
45750W        W 1991   9.731  34.337  21.314  0.3682  0.1329 -0.1844
45751W        W 1992  29.796   9.641  15.337 -0.2525 -0.2051 -0.1875
45752W        W 1993  30.231   4.321  23.802 -0.2576 -0.0188 -0.1326
45753W        W 1994  33.814  29.943   1.054 -0.0077 -0.1266 -0.0015
45754W        W 1995  28.741  20.589   9.329  0.4020  0.1990  0.2538
45755W        W 1996  10.660  30.828   8.826  0.0919 -0.1021  0.1259
45756W        W 1997   6.972  10.112   5.832  0.0961 -0.0995  0.2058
45757W        W 1998  15.879  18.490   7.905 -0.1131  0.0425 -0.1290
45758W        W 1999  32.934   9.764  13.562 -0.4145  0.2713 -0.0772
45759W        W 2000  14.458  18.550  12.980  0.0586 -0.1885  0.1950
45760W        W 2001  30.039  28.800   2.115 -0.1122  0.0238  0.0261
45761W        W 2002  33.063   7.108  25.131  0.0522 -0.2156  0.0768
45762W        W 2003  18.802  11.153   3.152 -0.1463  0.0712  0.3424
45763W        W 2004   4.616  20.683   6.496 -0.0844  0.2129  0.1422
45764W        W 2005   4.027   1.120   9.613  0.1600  0.1882 -0.1942
45765W        W 2006   8.392  32.591  11.153  0.1166  0.1225  0.1879
45766W        W 2007   0.031  17.695   8.756 -0.0754 -0.0889 -0.1463
45767W        W 2008   5.676  12.956   6.879  0.1865 -0.2570 -0.2068
45768W        W 2009  23.661  27.214  12.143  0.1614 -0.0631 -0.1895
45769W        W 2010  16.141  20.143  13.138  0.3393 -0.0762 -0.0496
45770W        W 2011  29.792  14.384  20.054 -0.0337  0.0068 -0.1409
45771W        W 2012  28.218  27.858  10.039 -0.1768 -0.1283 -0.0384
45772W        W 2013   2.303   4.213   2.144 -0.0936 -0.3153 -0.2663
45773W        W 2014  29.201  13.792  23.869 -0.1461  0.5566  0.0310
45774W        W 2015  18.022  24.929   6.139 -0.0151 -0.0323 -0.1829
45775W        W 2016  33.928   3.912  12.805 -0.1507 -0.5169 -0.1882
45776W        W 2017   1.541   2.863  21.950  0.0738  0.1016 -0.0956
45777W        W 2018  10.968   1.006   6.526 -0.3956 -0.1127 -0.0058
45778W        W 2019  24.237  33.549  14.775  0.0755 -0.3031  0.1460
45779W        W 2020  14.079  25.896  13.557 -0.3796  0.3511 -0.1864
45780W        W 2021  21.215  30.045  17.043 -0.0619  0.0714 -0.3435
45781W        W 2022  15.314  16.587   1.268  0.1645 -0.0136 -0.0354
45782W        W 2023  13.999   2.626  10.043 -0.0652 -0.0844 -0.0565
45783W        W 2024  25.277  27.618  23.042 -0.0432 -0.2387  0.0142
45784W        W 2025  20.252  33.484  14.718 -0.1498  0.2394  0.1736
45785W        W 2026  15.347  21.605  12.509  0.1094  0.3376  0.4609
45786W        W 2027  24.034  21.744  19.171  0.0079 -0.0566  0.2294
45787W        W 2028  23.536  29.272  22.994  0.2165  0.1284 -0.4577
45788W        W 2029  25.388  14.800  25.897 -0.2247  0.2813 -0.0179
45789W        W 2030  16.590  10.066   3.281  0.0784 -0.1412 -0.2355
45790W        W 2031  32.662  12.867   7.199  0.0047 -0.0730 -0.1808
45791W        W 2032  15.015  31.811   8.813 -0.2484  0.2093 -0.0106
45792W        W 2033  15.866  22.262   1.522  0.0539 -0.2480 -0.0351
45793W        W 2034  31.856  18.468  18.766  0.2869 -0.2202 -0.0726
45794W        W 2035  24.702  12.985   1.938  0.0289 -0.1582  0.3086
45795W        W 2036  24.633   1.011  19.296 -0.2662  0.2697  0.1929
45796W        W 2037   7.131  23.131  24.831 -0.0817  0.1513  0.3215
45797W        W 2038  32.074  26.299   1.390  0.0705 -0.2411 -0.2426
45798W        W 2039  12.374  21.590   3.357 -0.1532  0.1034 -0.1397
45799W        W 2040   2.895   8.565   1.598  0.0618  0.0518  0.0553
45800W        W 2041  35.089  27.492   4.046 -0.0413 -0.1604 -0.1384
45801W        W 2042  17.768  18.922  10.429  0.2009 -0.1862  0.1101
45802W        W 2043  14.823  22.607  12.873 -0.1943 -0.0054 -0.0222
45803W        W 2044  15.834  26.881   8.608  0.0488 -0.0188 -0.2316
45804W        W 2045  34.064  11.970   7.759 -0.0712 -0.0179 -0.3611
45805W        W 2046  22.992  26.296  25.064 -0.1637 -0.3644  0.0908
45806W        W 2047  24.725  19.546  16.796  0.2075 -0.1335 -0.1965
45807W        W 2048  34.395   5.517  14.828 -0.0709  0.1661 -0.1951
45808W        W 2049  25.040  32.267  22.122 -0.0685  0.0132 -0.3528
45809W        W 2050  29.500   9.844  17.664 -0.0834 -0.1996  0.0288
45810W        W 2051   4.547  22.593  22.359 -0.2113 -0.0742 -0.4564
45811W        W 2052   6.328  33.458   5.075 -0.0301  0.0223 -0.1869
45812W        W 2053  32.461  25.735  13.761 -0.1318 -0.0483 -0.0136
45813W        W 2054  22.564  15.130  24.158  0.0436 -0.2059  0.2236
45814W        W 2055   4.255   5.974  21.570 -0.1737 -0.0185 -0.0043
45815W        W 2056  28.013  12.719   5.176 -0.2407  0.0112 -0.4644
45816W        W 2057   3.989  34.546  22.945 -0.2307 -0.1032 -0.0128
45817W        W 2058  33.027  26.478  18.074  0.1792 -0.0427  0.1830
45818W        W 2059  34.347  17.356  20.479 -0.2025  0.2239  0.3516
45819W        W 2060  33.002  19.790  13.068  0.0492  0.1294  0.2657
45820W        W 2061  26.016  11.711  18.778  0.1142 -0.2434  0.2085
45821W        W 2062  12.142   3.746   5.300 -0.0505 -0.1996  0.1408
45822W        W 2063  30.131  17.375  12.719  0.1436 -0.0536 -0.0762
45823W        W 2064  31.077  31.449  16.802 -0.1480 -0.0178  0.0549
45824W        W 2065  18.500   7.799   9.011  0.2155 -0.2005  0.0273
45825W        W 2066  19.466  26.646   7.601  0.0776  0.0281 -0.3323
45826W        W 2067  18.160  33.351  25.452 -0.0594  0.3521 -0.1662
45827W        W 2068  14.227  19.215  26.064  0.1372 -0.1312  0.1738
45828W        W 2069  31.579  15.550  15.520  0.2867 -0.3497  0.1617
45829W        W 2070   8.352  15.013   7.152  0.1302  0.2377  0.0464
45830W        W 2071  32.114   0.010  17.758  0.1995  0.2089 -0.1513
45831W        W 2072   0.728   3.678  21.044  0.2246 -0.3551  0.1355
45832W        W 2073   7.975  32.018   7.743 -0.0716  0.0537 -0.0491
45833W        W 2074  12.516  12.498  19.196 -0.0309  0.2729  0.0347
45834W        W 2075  26.359   4.947  22.987 -0.0028 -0.3529 -0.1125
45835W        W 2076  14.379  13.734   8.120  0.3015 -0.0285 -0.1092
45836W        W 2077  26.791   8.120  19.669 -0.2462 -0.0942 -0.0168
45837W        W 2078  30.644   6.753  25.265  0.0404  0.0092 -0.2862
45838W        W 2079  31.235  29.313  18.014  0.4140  0.1462 -0.2628
45839W        W 2080  28.882  15.888  23.294  0.0357  0.0527 -0.2040
45840W        W 2081  26.456   6.933  19.912  0.0398 -0.2536  0.2782
45841W        W 2082  24.929  23.221  23.749 -0.0198 -0.0725 -0.0099
45842W        W 2083  29.488  32.065  21.678  0.2126  0.2976 -0.3337
45843W        W 2084  11.912   3.217   8.406  0.0332  0.2345  0.1039
45844W        W 2085  26.769   9.036  21.308 -0.0592  0.2702  0.0206
45845W        W 2086   8.785  29.229  12.983  0.2282  0.0836  0.0776
45846W        W 2087   6.392  28.606   5.081  0.3138 -0.2319 -0.2619
45847W        W 2088  27.962  25.860  20.104 -0.0607  0.2233  0.1638
45848W        W 2089   4.880  31.227   5.896  0.2288  0.0179  0.2510
45849W        W 2090  14.082   1.702   8.335 -0.0850  0.1885 -0.0561
45850W        W 2091  12.352  17.904   6.173  0.0552  0.2866 -0.0735
45851W        W 2092  11.241  32.446   8.081  0.0284 -0.0214 -0.0182
45852W        W 2093  32.185   4.536   5.261 -0.3340 -0.2869 -0.1723
45853W        W 2094   2.097   4.555  22.601 -0.0155 -0.1201 -0.2014
45854W        W 2095  32.088  22.416  18.747 -0.1020 -0.0677 -0.1743
45855W        W 2096  13.383  20.451   8.330 -0.0084 -0.0883 -0.0305
45856W        W 2097  32.523   8.016  13.199  0.0031  0.1014  0.3161
45857W        W 2098  10.213   2.308   9.712 -0.1508  0.0664 -0.0415
45858W        W 2099  27.930  28.180   2.848 -0.4577  0.0701 -0.3577
45859W        W 2100  11.776  10.238   8.309 -0.1525  0.2966  0.1752
45860W        W 2101  19.583   7.273  20.703  0.2387 -0.6310  0.1397
45861W        W 2102  34.839   0.612   1.971 -0.0016  0.2074  0.1822
45862W        W 2103  21.594  33.477  18.586 -0.2792 -0.2716  0.3418
45863W        W 2104  11.462   3.110  13.552 -0.2707  0.2579  0.0860
45864W        W 2105   4.320  16.910  16.846 -0.2968 -0.0563 -0.1928
45865W        W 2106  32.372  11.676   0.119  0.0899  0.1382  0.5140
45866W        W 2107  19.690   7.929  11.390  0.0352 -0.0843 -0.2015
45867W        W 2108   7.927  30.059   2.242 -0.2751  0.0616  0.0514
45868W        W 2109   9.630   7.255   6.421  0.1690  0.0190  0.0029
45869W        W 2110  24.883   9.448  18.276  0.1649 -0.0229  0.0559
45870W        W 2111   8.472   9.847   9.414  0.1121  0.1116  0.1511
45871W        W 2112  25.045  32.373  16.987 -0.0318 -0.0745  0.1014
45872W        W 2113   8.123   5.109  11.761  0.0914 -0.1699  0.0364
45873W        W 2114  33.357  16.755  19.779  0.1252 -0.0610  0.1558
45874W        W 2115   9.845  20.475  22.428 -0.0842  0.0831  0.2775
45875W        W 2116   7.403  35.062   1.788  0.0805 -0.1551 -0.1194
45876W        W 2117  18.604  25.217   7.827  0.0054 -0.2247 -0.1497
45877W        W 2118  25.673  22.613  18.942  0.0608  0.1153 -0.1052
45878W        W 2119  17.858  31.386   0.441 -0.0523  0.0955  0.0494
45879W        W 2120  31.294  24.207  11.859 -0.1421  0.2206 -0.2323
45880W        W 2121  33.698   9.155  20.224  0.0059 -0.0323 -0.2343
45881W        W 2122  30.236  26.251  23.736  0.0087  0.2365 -0.1275
45882W        W 2123   9.460  32.378   9.610  0.3117  0.1242 -0.2582
45883W        W 2124  31.673  30.720   3.169 -0.0509 -0.0957 -0.0259
45884W        W 2125  13.625   3.014  25.500 -0.0328 -0.0146 -0.0001
45885W        W 2126  22.036  18.645  19.654  0.0100 -0.0137  0.0294
45886W        W 2127  16.122   2.115   0.725 -0.1706  0.0054  0.0670
45887W        W 2128   6.562   5.748  20.000 -0.1352  0.2443 -0.0423
45888W        W 2129  27.410   2.366  25.074 -0.0907  0.2129  0.0342
45889W        W 2130  10.591   6.987   3.961  0.0653 -0.0025 -0.1123
45890W        W 2131   6.531  10.041   0.632  0.1235  0.0420 -0.0959
45891W        W 2132   2.916  10.987  20.413  0.2033  0.0845 -0.1656
45892W        W 2133   6.727  21.024  21.212 -0.1464 -0.0303  0.1999
45893W        W 2134   3.650   3.967   9.214  0.1926 -0.3521 -0.0772
45894W        W 2135  20.394  26.097  18.595  0.0114 -0.4044  0.0041
45895W        W 2136  23.376  15.320  22.319  0.1289 -0.1417 -0.0446
45896W        W 2137  20.393  17.205   7.990 -0.2848  0.0726 -0.0434
45897W        W 2138  24.822  24.784   1.972 -0.3377  0.2336  0.1411
45898W        W 2139  32.080  35.274  16.144  0.3624  0.1005  0.0022
45899W        W 2140   8.569   5.204  20.335 -0.3031 -0.3453  0.0476
45900W        W 2141  13.135  28.638  12.067 -0.1080  0.0685 -0.4687
45901W        W 2142  30.312  22.121  10.112  0.1663  0.1381 -0.0880
45902W        W 2143  22.236  18.753  24.952  0.2446 -0.1045  0.0561
45903W        W 2144  34.749  14.605   7.559 -0.0754 -0.0511 -0.0247
45904W        W 2145   3.750  18.970   3.714 -0.2465  0.1430  0.1758
45905W        W 2146  10.574  32.882  24.245 -0.2144  0.3171 -0.2148
45906W        W 2147  25.215  25.179  14.184 -0.0661 -0.1917 -0.2484
45907W        W 2148  12.583  10.101   0.016 -0.0833  0.4315  0.0394
45908W        W 2149   9.421  29.414  14.646  0.1033 -0.2058 -0.1061
45909W        W 2150  31.821  28.447  15.783 -0.0635  0.0331 -0.2931
45910W        W 2151   3.376   0.469  19.598 -0.2761 -0.0867  0.2046
45911W        W 2152  25.444  11.896  23.193  0.1141 -0.0197 -0.1296
45912W        W 2153   9.595   5.528  25.270  0.0268  0.0100  0.2056
45913W        W 2154  22.754   1.334   1.260 -0.0910 -0.0685 -0.1835
45914W        W 2155  22.691   6.741  14.841  0.1261 -0.3657 -0.1713
45915W        W 2156  27.045  20.917  12.328  0.0439  0.4036  0.0562
45916W        W 2157   8.967  32.500  24.859  0.0224 -0.0304 -0.2412
45917W        W 2158  19.594   4.144  20.960 -0.1077  0.0392 -0.0396
45918W        W 2159   7.105  17.613   4.498 -0.1870  0.0544 -0.2597
45919W        W 2160   7.023  24.675  21.270 -0.1378  0.0165 -0.0743
45920W        W 2161  17.565   5.300  22.515 -0.0995 -0.4160  0.2184
45921W        W 2162  28.076   0.169  26.183 -0.1025  0.2961 -0.1519
45922W        W 2163  25.439  34.012  11.383  0.0179  0.0847  0.1033
45923W        W 2164   5.852  10.862   2.620  0.1000 -0.0910  0.1866
45924W        W 2165  17.790   7.061   6.364 -0.1867 -0.3500 -0.1848
45925W        W 2166  18.408  31.274   6.717  0.1723 -0.0353  0.0658
45926W        W 2167   8.684  24.966  26.247 -0.2425 -0.0617 -0.1612
45927W        W 2168  19.868  10.432  18.898  0.1049 -0.0027 -0.0486
45928W        W 2169   7.933   9.119  23.935  0.2432 -0.0094 -0.0362
45929W        W 2170  31.190  34.326  14.573  0.0070 -0.0687 -0.0416
45930W        W 2171  34.816  33.034  17.701  0.1131  0.2218  0.2967
45931W        W 2172  24.254  20.642  14.489 -0.0786  0.0063  0.1765
45932W        W 2173  29.167  17.158   8.017 -0.1585  0.1980  0.2459
45933W        W 2174  10.008  30.004  12.256 -0.1384  0.0634  0.1659
45934W        W 2175  15.475  30.371   4.225 -0.5157  0.1091  0.0106
45935W        W 2176  25.346  34.027  17.043 -0.1814 -0.0032 -0.0718
45936W        W 2177   2.108  27.841  21.372  0.2213  0.1689 -0.2356
45937W        W 2178   4.320  24.739  22.614  0.1737  0.1655  0.1243
45938W        W 2179   2.399   9.699  20.907  0.0599  0.1181 -0.2047
45939W        W 2180   3.692  17.580   0.334  0.3057  0.1126 -0.0183
45940W        W 2181  29.173  13.645  19.733 -0.2674  0.1424  0.0552
45941W        W 2182  33.380   2.957   3.143  0.1142 -0.1597 -0.0762
45942W        W 2183  17.422  15.315  11.579 -0.1095  0.0115  0.2363
45943W        W 2184  20.779  17.349  18.192 -0.0591 -0.1589  0.2026
45944W        W 2185  13.045  19.413   9.874  0.1406  0.1119 -0.0278
45945W        W 2186  15.006  16.563  19.984 -0.0798  0.0519  0.0572
45946W        W 2187   0.779  27.860  15.348 -0.2059 -0.2150  0.3059
45947W        W 2188  34.344  13.931  23.039  0.4400  0.1297 -0.0575
45948W        W 2189  12.810  33.565  13.852 -0.2255 -0.1602 -0.2417
45949W        W 2190  16.762   6.672   2.712  0.0378 -0.0625  0.1226
45950W        W 2191   6.043   1.217   4.447  0.4385  0.2336  0.2276
45951W        W 2192  16.867   0.036   3.511  0.2031  0.5797 -0.0163
45952W        W 2193   6.565  25.045   5.968 -0.0186 -0.0057  0.1068
45953W        W 2194   8.854   2.024  20.132  0.0897 -0.4779  0.0142
45954W        W 2195  25.371   9.230   0.537  0.0204 -0.1194  0.1273
45955W        W 2196  28.424   7.891  17.204 -0.0981  0.0642  0.1634
45956W        W 2197   0.595   7.317   3.136  0.3027 -0.6517  0.1302
45957W        W 2198  24.865  12.614  21.512  0.4979 -0.0194 -0.1090
45958W        W 2199   0.006  11.546  17.745 -0.1589 -0.0779 -0.1798
45959W        W 2200   8.977  27.001   1.702 -0.2277 -0.2426 -0.4394
45960W        W 2201  34.206  34.573  22.954  0.2235  0.0532  0.0747
45961W        W 2202  32.037   2.966  22.681  0.3817 -0.0206  0.1251
45962W        W 2203   9.001   6.146  22.013 -0.0351 -0.5078  0.1042
45963W        W 2204  24.953  11.381  12.859 -0.0353  0.0881  0.0743
45964W        W 2205  18.986   1.464   1.280  0.2530  0.2527  0.0134
45965W        W 2206   7.000  22.167   0.566  0.0894 -0.0996  0.0461
45966W        W 2207  28.583   2.120  22.040  0.1195 -0.0538 -0.0104
45967W        W 2208  34.249   8.204  23.168  0.0460 -0.0098 -0.3264
45968W        W 2209  14.413  15.397  23.643  0.1625 -0.0638  0.0388
45969W        W 2210  20.196  31.672   0.669 -0.1088  0.1034  0.2423
45970W        W 2211   4.162  17.155  23.355 -0.2503 -0.1060  0.1305
45971W        W 2212  20.731  28.212   7.690  0.0072 -0.5229  0.0380
45972W        W 2213   7.490  31.126   4.152  0.0338 -0.0614 -0.0250
45973W        W 2214  18.609  30.402  21.795 -0.2118  0.1948 -0.2805
45974W        W 2215   6.436  23.916   9.324 -0.2783 -0.0944 -0.2373
45975W        W 2216   8.823  12.596   4.697 -0.0016 -0.0185  0.0067
45976W        W 2217  18.113   6.795   3.286  0.2159 -0.1025  0.1353
45977W        W 2218  14.039   5.554  21.023 -0.1101  0.0922 -0.0353
45978W        W 2219   8.828  28.805   1.223  0.2212 -0.0726 -0.2335
45979W        W 2220  24.158   0.524   0.574  0.1124  0.0001 -0.0590
45980W        W 2221  31.899   7.458  23.408  0.0374 -0.0043  0.0055
45981W        W 2222  17.549  22.264   3.072 -0.0587  0.1239  0.0176
45982W        W 2223  18.960  25.018  11.620  0.3788  0.2447 -0.1301
45983W        W 2224  17.464  18.577   5.733  0.2068  0.0860  0.1726
45984W        W 2225  12.874   0.205  13.174  0.2230  0.3106 -0.1230
45985W        W 2226  11.255  33.364  10.107  0.3850 -0.0184  0.1861
45986W        W 2227  16.017  33.773   6.171 -0.0050  0.1972 -0.1631
45987W        W 2228  10.041  35.090   7.448  0.1182 -0.0048  0.2559
45988W        W 2229  33.046   5.803   0.909  0.0543 -0.2481 -0.1545
45989W        W 2230  30.186  28.527   9.954  0.1457  0.0812 -0.1542
45990W        W 2231  11.171  13.289  21.019  0.0489 -0.0758 -0.4119
45991W        W 2232  24.550  14.125  13.663  0.0996  0.0021  0.0940
45992W        W 2233  25.351   8.322  14.000  0.1068  0.2880  0.1040
45993W        W 2234  10.518  28.014  16.411 -0.1022  0.0889  0.0862
45994W        W 2235   7.788  29.189  13.761 -0.2375 -0.0100 -0.1416
45995W        W 2236   0.722  27.799   3.465 -0.0772 -0.1644  0.0244
45996W        W 2237  33.548  34.707  20.737 -0.0716  0.0097 -0.1638
45997W        W 2238  18.672  21.675   1.902 -0.1551  0.1551 -0.0541
45998W        W 2239  24.304  35.346  16.787  0.0906  0.1470 -0.0812
45999W        W 2240   5.515   5.390   4.500 -0.2009 -0.0184 -0.0016
46000W        W 2241  18.807   6.068   0.397 -0.0949  0.1752 -0.2853
46001W        W 2242  34.892   2.210  24.654  0.1123 -0.0784  0.1492
46002W        W 2243  16.702  33.964  24.184 -0.0117 -0.0621 -0.1186
46003W        W 2244  19.326  31.162  21.608  0.1844 -0.0884 -0.1265
46004W        W 2245  34.269  29.756   1.885  0.0364  0.2180 -0.0899
46005W        W 2246  30.145  11.685  23.436 -0.0312  0.2550  0.1485
46006W        W 2247  17.133   8.342   7.494 -0.3202  0.1829 -0.2182
46007W        W 2248  35.217  21.557  18.783 -0.0132  0.1904  0.0007
46008W        W 2249   9.603  16.325   6.452  0.4421 -0.1675  0.1215
46009W        W 2250  19.945  21.862   2.299  0.0017 -0.0808  0.0279
46010W        W 2251  29.569   2.008   3.576  0.0599 -0.4741  0.2885
46011W        W 2252  30.672  13.831  15.648 -0.0400 -0.1879 -0.1673
46012W        W 2253  26.814  30.865  21.864 -0.0209  0.0885 -0.1056
46013W        W 2254  13.959  26.756   4.831  0.2623 -0.1510  0.2512
46014W        W 2255   5.540   5.352  23.237 -0.0129  0.0232 -0.1252
46015W        W 2256   2.341   4.809  14.421 -0.1071  0.0727 -0.2093
46016W        W 2257  29.676  28.647  16.234  0.1977  0.1784 -0.1168
46017W        W 2258  31.922   8.628  16.654 -0.0474  0.3713 -0.0511
46018W        W 2259  14.343  33.470   0.070  0.1538 -0.0292  0.1611
46019W        W 2260   1.249  30.069  18.143 -0.1568  0.0639 -0.2340
46020W        W 2261   5.457  21.474  21.303  0.4208 -0.0056  0.2409
46021W        W 2262  12.324   5.620  20.384  0.2141 -0.1360 -0.1698
46022W        W 2263  13.897  33.577   0.335  0.0104 -0.1726 -0.5290
46023W        W 2264   9.825  31.315   2.844  0.0161  0.1852 -0.0213
46024W        W 2265  22.916   7.131  15.004  0.1982  0.2162 -0.3002
46025W        W 2266  21.619   4.425   5.215 -0.0688 -0.3664  0.0449
46026W        W 2267  32.368  22.965  16.866  0.2460 -0.3271  0.2624
46027W        W 2268  27.334   8.372  18.953 -0.1235  0.2526  0.0612
46028W        W 2269  14.612  27.667  21.490 -0.3454 -0.1535 -0.0696
46029W        W 2270  33.337  33.307  23.323 -0.4658  0.2994  0.2506
46030W        W 2271  14.509   2.294   6.592 -0.1087  0.1877  0.4957
46031W        W 2272  16.115   9.361  17.870  0.2684 -0.2150  0.1735
46032W        W 2273   1.796  27.907  19.532 -0.3144 -0.0468  0.3222
46033W        W 2274  15.579  29.901  11.818 -0.0359 -0.1111  0.1531
46034W        W 2275  23.804   2.648   3.996  0.0232 -0.2329  0.2616
46035W        W 2276  24.811  23.323  13.630  0.2335  0.0516 -0.1438
46036W        W 2277  28.202   0.573  12.179  0.0675 -0.3916  0.1450
46037W        W 2278   0.505   9.985   2.603 -0.1785 -0.0985  0.4477
46038W        W 2279  33.887   4.742  17.656 -0.0552 -0.2581 -0.2485
46039W        W 2280  28.963   8.826  11.492 -0.0114  0.1766 -0.2957
46040W        W 2281   2.087  15.899   0.826  0.2217 -0.2022  0.1224
46041W        W 2282   1.707  19.549  25.373  0.1145 -0.0472  0.0646
46042W        W 2283  10.627  17.688  21.157 -0.1596 -0.2434  0.2212
46043W        W 2284  20.725  13.489  23.852  0.4139 -0.2709 -0.1550
46044W        W 2285   1.868   9.525  15.452 -0.0066 -0.0689 -0.1886
46045W        W 2286  28.396  18.025   9.307 -0.1503  0.1661  0.3445
46046W        W 2287  14.112   6.995   6.080  0.3951  0.0351  0.0268
46047W        W 2288  20.051  34.379  16.530 -0.1951  0.0502  0.0907
46048W        W 2289  27.985  11.902  14.838 -0.0781 -0.0055  0.1120
46049W        W 2290  17.769   4.693   8.197 -0.1480 -0.0001  0.1226
46050W        W 2291  18.905   5.210   1.365 -0.0770  0.0414  0.0570
46051W        W 2292   9.837  16.710   7.107 -0.2588 -0.0635  0.0338
46052W        W 2293  16.185  28.899   2.131  0.0409  0.2338 -0.0829
46053W        W 2294  24.967  15.542  11.710  0.2237 -0.0617 -0.0306
46054W        W 2295  29.344   8.244   9.750  0.3175  0.1028  0.2448
46055W        W 2296  15.617  28.493  13.440  0.1649 -0.0044 -0.1113
46056W        W 2297  10.767  18.200   8.994  0.1274  0.0679  0.1217
46057W        W 2298   9.742  24.208   8.229 -0.3782 -0.0112  0.0030
46058W        W 2299  12.588  27.236   1.690  0.0425 -0.1480 -0.0584
46059W        W 2300   3.004   8.157  14.697 -0.2225  0.0323 -0.2138
46060W        W 2301   8.981   4.016   1.021  0.1531  0.0585 -0.1646
46061W        W 2302  18.234  23.282   0.677 -0.0195  0.0488  0.0150
46062W        W 2303  28.422  24.204  24.057 -0.1918 -0.1537  0.0544
46063W        W 2304   8.212   5.813   4.531  0.1416 -0.1181 -0.1432
46064W        W 2305  15.205  21.756  22.324 -0.4635 -0.1673  0.1251
46065W        W 2306   3.272   2.972  22.462  0.2875 -0.0926 -0.0221
46066W        W 2307   1.863  15.609  12.777  0.2280 -0.1238 -0.0618
46067W        W 2308  18.616   3.433   9.114  0.2227 -0.0065 -0.0580
46068W        W 2309  27.576  21.540  10.907  0.2897  0.0042 -0.0517
46069W        W 2310  20.528  15.550  18.327  0.0436 -0.1809  0.0302
46070W        W 2311  24.643  22.650  22.137 -0.0004 -0.1757  0.2114
46071W        W 2312  29.856   9.315   1.560 -0.0301 -0.1961  0.1824
46072W        W 2313   8.797  28.302   0.823  0.2626 -0.0866  0.0786
46073W        W 2314  23.623  12.259  25.250 -0.3850  0.1623  0.1119
46074W        W 2315   2.567   8.581  14.538 -0.1401 -0.0802 -0.1406
46075W        W 2316  32.204  31.039   4.511 -0.0951 -0.0654 -0.1864
46076W        W 2317  32.288  12.537  13.604 -0.0180  0.0080  0.2723
46077W        W 2318  20.011  14.410   8.555 -0.1410 -0.0618  0.3170
46078W        W 2319  30.128  26.934  25.393 -0.1770 -0.1138  0.1481
46079W        W 2320   5.420   5.144  21.485 -0.4564  0.0151  0.1965
46080W        W 2321  29.890  16.684  23.427 -0.0140  0.0594 -0.3169
46081W        W 2322  21.509  12.764  25.142  0.4579  0.1208  0.0144
46082W        W 2323  26.324  26.063  11.862 -0.0379  0.2780  0.1143
46083W        W 2324  15.160   9.914  13.859 -0.0542 -0.0247 -0.0869
46084W        W 2325  28.474   0.006   4.357 -0.1353  0.1133  0.0963
46085W        W 2326  33.209   9.508  15.635  0.2213  0.1378  0.1928
46086W        W 2327  10.021  30.027  25.743  0.0633  0.2966  0.1754
46087W        W 2328  29.314  31.157  21.178 -0.1399 -0.0736 -0.3918
46088W        W 2329  14.835  21.195  22.775  0.0452  0.6304  0.0465
46089W        W 2330  28.341  33.867   3.378  0.0789  0.0054  0.2984
46090W        W 2331   8.351   2.387   5.497  0.1550  0.1272  0.2597
46091W        W 2332  29.724  35.112  20.748  0.0016 -0.0465  0.3688
46092W        W 2333  17.978  19.685   2.649 -0.1026  0.2643 -0.3772
46093W        W 2334  18.505  23.269   4.760  0.1543  0.1706 -0.1503
46094W        W 2335   3.458   2.232   3.072  0.1615 -0.2868 -0.1855
46095W        W 2336  27.219   7.120  18.250 -0.0009  0.1569  0.1037
46096W        W 2337  16.737   1.608   3.591  0.1335 -0.0672  0.2292
46097W        W 2338  12.512   3.967  13.706 -0.1827  0.2881 -0.3026
46098W        W 2339  17.262  21.092  12.108 -0.3876  0.0835 -0.1316
46099W        W 2340   1.359  24.760  15.197  0.2183 -0.1527  0.2602
46100W        W 2341  28.729  14.020  10.542 -0.1008  0.0933  0.0703
46101W        W 2342   0.605  21.540  17.955  0.0334 -0.0011 -0.0486
46102W        W 2343  16.779  31.910  18.270 -0.1446  0.0750 -0.1241
46103W        W 2344   3.197  30.039  18.918 -0.3009 -0.1738  0.0424
46104W        W 2345  12.058  12.075  22.857 -0.1703  0.3750 -0.2259
46105W        W 2346  17.956   6.828  23.328 -0.2045 -0.0623 -0.1186
46106W        W 2347   4.766  30.031  13.586  0.1959 -0.0295 -0.0308
46107W        W 2348  25.061  34.345  17.504 -0.1388 -0.0251 -0.0883
46108W        W 2349  23.820   1.056   5.120 -0.2805 -0.0558 -0.0870
46109W        W 2350   1.804  21.894  22.835 -0.2761 -0.0218  0.0186
46110W        W 2351  18.134   1.664   3.736 -0.2293  0.2867  0.1613
46111W        W 2352   9.309   7.778  21.588  0.5622  0.1334  0.1970
46112W        W 2353  14.202  16.350   2.078 -0.0888  0.1079  0.1536
46113W        W 2354  17.411  29.803  22.290 -0.0869  0.0729 -0.2246
46114W        W 2355  11.883  33.369  24.914  0.0021  0.0056 -0.1065
46115W        W 2356   3.212   3.350   7.325  0.0889  0.0657  0.0493
46116W        W 2357   9.500  20.847   5.935  0.0890 -0.0016 -0.2974
46117W        W 2358  16.411   4.223  12.286 -0.0743  0.1462  0.0925
46118W        W 2359   5.607  24.205  11.417  0.2168 -0.3410 -0.4339
46119W        W 2360   1.394  20.195  24.606 -0.1197 -0.0550  0.0135
46120W        W 2361  12.415   7.776   7.803  0.0784  0.1526 -0.0809
46121W        W 2362  15.611  13.449   0.118  0.0019  0.0394 -0.0139
46122W        W 2363  29.160  19.585  12.700 -0.0961  0.1841 -0.1342
46123W        W 2364  29.956  14.412  12.558 -0.1484 -0.0753  0.0347
46124W        W 2365  29.773  11.036  17.143 -0.0928 -0.1033  0.1681
46125W        W 2366  20.294  17.050  17.491  0.0379 -0.1584  0.0864
46126W        W 2367  27.047  26.679  20.625 -0.1256 -0.0236 -0.2630
46127W        W 2368  25.243   7.180  21.722  0.0463  0.2922  0.1440
46128W        W 2369  31.589  17.807  25.182 -0.3513 -0.2899 -0.1416
46129W        W 2370  13.544  21.780  23.016  0.0127 -0.1206 -0.1997
46130W        W 2371  16.842   1.568  20.078  0.2443  0.2469  0.0726
46131W        W 2372  25.659  33.583  12.568 -0.0915  0.0798  0.2650
46132W        W 2373   5.651   5.229   3.165 -0.1472 -0.0974  0.0235
46133W        W 2374  22.428   0.023  25.808  0.0653 -0.1828 -0.0797
46134W        W 2375   5.274  23.797   1.695 -0.0284  0.1320  0.3150
46135W        W 2376  13.066   0.781   4.677 -0.0137 -0.2061  0.2011
46136W        W 2377  24.046  19.741  10.771 -0.2557 -0.0553  0.2861
46137W        W 2378  21.418  30.374  17.944 -0.0527  0.2139 -0.2494
46138W        W 2379  19.105  14.688   7.611  0.1065  0.1039 -0.2343
46139W        W 2380  31.039   5.290   2.855  0.0372 -0.1758 -0.3118
46140W        W 2381   7.200  25.011   2.710  0.6187  0.0809  0.1226
46141W        W 2382  11.161   2.060  25.126  0.0655 -0.3682 -0.2450
46142W        W 2383  22.342   0.216   2.485  0.2579 -0.2026 -0.1066
46143W        W 2384  13.694  18.598  20.939 -0.1969  0.1269 -0.2872
46144W        W 2385  13.508   5.269  20.340  0.0951  0.3716  0.0531
46145W        W 2386   5.036   4.137  17.916 -0.0195  0.3344  0.0811
46146W        W 2387  22.374   2.092   0.832  0.2030 -0.2115  0.1524
46147W        W 2388  17.852  18.703  21.465  0.1109 -0.5283 -0.4678
46148W        W 2389  34.670  27.472  19.931 -0.0436  0.3375 -0.1072
46149W        W 2390  28.980   2.782   1.574  0.0464  0.0003 -0.1124
46150W        W 2391  18.853   4.760  25.936 -0.0343  0.1084 -0.1879
46151W        W 2392  22.286  14.286  20.964 -0.0833  0.1260 -0.2791
46152W        W 2393  13.422   2.327  11.635  0.3974 -0.0037 -0.0621
46153W        W 2394  18.992  11.065  20.282 -0.1908 -0.1232  0.0890
46154W        W 2395   8.424  16.045  11.478  0.0003  0.0128  0.1119
46155W        W 2396   0.966   0.972  23.068 -0.0836  0.0448 -0.2887
46156W        W 2397  10.584   7.280   6.414  0.0476  0.2080 -0.0967
46157W        W 2398  24.625   1.343  11.223  0.0397 -0.1174 -0.1952
46158W        W 2399   7.284  26.896   5.259  0.1838 -0.1339 -0.0565
46159W        W 2400  29.793  15.876   7.443 -0.2035 -0.3478  0.0093
46160W        W 2401  31.770  14.703   9.913  0.0693  0.2382  0.5284
46161W        W 2402  15.318   1.933   8.133 -0.0071  0.1020  0.2331
46162W        W 2403  16.349   9.002   5.035 -0.1510 -0.2155 -0.2212
46163W        W 2404  28.420  22.042  26.084  0.0643  0.0060  0.0574
46164W        W 2405  11.162  34.171   1.047 -0.0557  0.0011 -0.1067
46165W        W 2406  27.766  12.649  14.785 -0.3032  0.3354  0.0475
46166W        W 2407  16.249   1.687  17.452  0.1166 -0.3752  0.0241
46167W        W 2408   5.314  22.532   2.831 -0.0969 -0.0131 -0.5085
46168W        W 2409  23.752  18.543  19.288 -0.0760 -0.0048  0.0273
46169W        W 2410   5.059  19.172   4.992  0.0606  0.0550  0.0230
46170W        W 2411  25.776  24.881  17.982  0.2342 -0.1734 -0.4384
46171W        W 2412   2.926   9.360  16.783 -0.1228  0.1930  0.0966
46172W        W 2413   9.149  24.407  12.882 -0.0752 -0.3488 -0.0230
46173W        W 2414  11.933   9.819   5.325 -0.0092 -0.5616 -0.0351
46174W        W 2415  16.270  27.551   9.829  0.3793  0.2306 -0.0246
46175W        W 2416  20.461  30.772   0.946 -0.2730 -0.0097 -0.1075
46176W        W 2417  11.617   8.140  14.170 -0.2346  0.3150 -0.0912
46177W        W 2418  16.450  33.555   0.165  0.0277  0.0343  0.0600
46178W        W 2419   5.940  12.048  22.038  0.1957 -0.3939  0.2378
46179W        W 2420  33.957  34.509  25.350  0.0273  0.2531 -0.1270
46180W        W 2421   9.519  11.711  24.849  0.1970  0.2196 -0.1507
46181W        W 2422  16.308   3.308   7.796  0.2791 -0.0824 -0.3544
46182W        W 2423   2.764   1.141  21.927 -0.0690 -0.1657 -0.0597
46183W        W 2424   9.434  33.172  14.910  0.0817  0.1328  0.0003
46184W        W 2425  31.906  26.000  14.459 -0.0713  0.2421  0.0598
46185W        W 2426  16.754  13.105   6.960 -0.3892 -0.2611 -0.1468
46186W        W 2427  28.869  30.091  18.041  0.2283 -0.1466  0.1927
46187W        W 2428  26.244  22.061  17.232  0.1316 -0.2228  0.0654
46188W        W 2429  15.487  20.545   3.310 -0.4424  0.1171 -0.0230
46189W        W 2430  13.657  30.904   4.384 -0.2276  0.0179  0.2005
46190W        W 2431  12.538  18.346  13.796  0.2244 -0.0057  0.0983
46191W        W 2432  34.862  34.378   0.378 -0.0696 -0.1524 -0.1121
46192W        W 2433  25.861  33.214  11.057 -0.0638 -0.1933  0.1086
46193W        W 2434  12.076   1.790  13.180  0.4144  0.0236 -0.0865
46194W        W 2435   2.734   7.976  23.208 -0.3848  0.3935  0.1370
46195W        W 2436   0.313   1.328   4.216 -0.0507  0.0140  0.1794
46196W        W 2437   9.410  12.870   3.277  0.0913  0.2176  0.2655
46197W        W 2438  19.649  14.007  23.103  0.0151  0.1814  0.3709
46198W        W 2439  35.158  21.202   9.734 -0.1761  0.0701 -0.0659
46199W        W 2440  31.799  12.628  18.212  0.0270  0.4591  0.0041
46200W        W 2441   2.673   7.620  19.244  0.1792  0.0339 -0.1852
46201W        W 2442  17.655  23.835   0.003  0.2741  0.0489  0.0404
46202W        W 2443   2.897  31.400  19.821 -0.0228  0.0162 -0.3073
46203W        W 2444  21.838  30.303  19.630  0.1111 -0.0288 -0.1731
46204W        W 2445  29.623  15.713  24.990 -0.2879  0.0030 -0.1356
46205W        W 2446   1.802  20.362  11.043  0.0419 -0.1511  0.1413
46206W        W 2447  21.554   2.026   2.773  0.4578  0.0110 -0.1141
46207W        W 2448  31.839  24.062  10.812  0.1144  0.1904  0.2923
46208W        W 2449   4.525  30.402   6.588  0.1206 -0.1731 -0.0510
46209W        W 2450  24.990   0.509  22.790 -0.1388 -0.0983  0.0459
46210W        W 2451   7.778  15.426  23.065  0.2603 -0.6464 -0.0778
46211W        W 2452  23.511   4.999   1.195  0.1439  0.0351 -0.1103
46212W        W 2453   2.926  14.981  19.675 -0.1029 -0.0271  0.0033
46213W        W 2454  32.785  29.500  24.162  0.0597  0.3662 -0.0888
46214W        W 2455  28.801  12.493  18.532  0.3102 -0.2260 -0.1072
46215W        W 2456  23.222  29.778   0.480 -0.0192  0.0589 -0.0354
46216W        W 2457  13.256  12.794   7.153 -0.0894  0.3617 -0.0931
46217W        W 2458  12.561  28.361   2.889  0.0398 -0.0672 -0.2361
46218W        W 2459  25.942   5.922   0.420  0.0467 -0.0898 -0.0767
46219W        W 2460   1.598   0.689  15.101  0.0541 -0.3170 -0.2088
46220W        W 2461  13.342  34.464  20.819 -0.2977 -0.0252 -0.0323
46221W        W 2462   6.586   9.322   3.620 -0.0270  0.0787 -0.2036
46222W        W 2463  17.046   5.862  22.113  0.3123  0.1644  0.0655
46223W        W 2464   2.480   0.465  22.059 -0.2837  0.0228 -0.0384
46224W        W 2465  33.739  27.223  17.577 -0.3574  0.0510 -0.2130
46225W        W 2466  32.118   9.078  10.733  0.2021 -0.1733 -0.2076
46226W        W 2467   5.635  24.767  22.736  0.2839  0.2200 -0.3947
46227W        W 2468   7.313  12.202  19.436 -0.3044  0.1059  0.1836
46228W        W 2469  33.952  10.032  20.461 -0.2953  0.1776 -0.2979
46229W        W 2470  12.057  12.446   8.866  0.1054  0.0393  0.1857
46230W        W 2471  21.530  28.815  18.262  0.2839 -0.0160  0.0777
46231W        W 2472  28.801  31.333  21.440  0.3757  0.3389 -0.0487
46232W        W 2473  14.154   1.715   0.498  0.0630  0.0465 -0.0323
46233W        W 2474  26.778  31.972  20.765  0.0164 -0.1958  0.0703
46234W        W 2475   5.516  13.644   8.283  0.0139  0.2932 -0.2612
46235W        W 2476  18.107  12.654  19.181 -0.0951 -0.1407  0.2245
46236W        W 2477  25.171   1.565  18.663  0.1057 -0.0478 -0.0495
46237W        W 2478  19.401  27.022   5.705 -0.1142 -0.0458  0.2055
46238W        W 2479  18.871  33.740   8.582 -0.0539  0.1188 -0.0806
46239W        W 2480  28.473  24.519  18.918  0.2121 -0.2291 -0.0067
46240W        W 2481  32.436  14.355  15.302 -0.0157  0.0663 -0.0058
46241W        W 2482  15.010  24.508  12.971  0.3571  0.1713  0.1214
46242W        W 2483  34.054  17.943   0.430  0.0604 -0.1733  0.0174
46243W        W 2484  11.435  20.231   3.250 -0.2589 -0.1673  0.4171
46244W        W 2485  20.343  33.951   2.206 -0.0664 -0.0425 -0.0285
46245W        W 2486   1.507  20.275  18.634  0.0387 -0.3796  0.4763
46246W        W 2487  28.538  26.323  19.595  0.1221 -0.1614  0.0568
46247W        W 2488   4.398  17.358  21.031  0.3284 -0.2151  0.0003
46248W        W 2489   5.659   3.821  17.888 -0.1576  0.1449  0.2110
46249W        W 2490  25.151  28.584   0.338  0.0134 -0.1086 -0.0401
46250W        W 2491  13.057  12.037  20.951  0.3245  0.1183 -0.1091
46251W        W 2492   6.701  22.931  10.157 -0.0340 -0.4674  0.1114
46252W        W 2493   9.699  29.238  13.147  0.0560 -0.0723  0.0240
46253W        W 2494  30.442  30.337  17.139 -0.1277 -0.1248  0.0369
46254W        W 2495  29.466   8.232  25.208 -0.0009  0.1515  0.0303
46255W        W 2496   3.193   9.222  21.519  0.1991  0.4235  0.2689
46256W        W 2497  20.440  22.714  18.368  0.0586  0.0374 -0.0425
46257W        W 2498  11.902  29.703  16.409 -0.0511  0.3092  0.0315
46258W        W 2499  24.672  29.278   4.956  0.0025  0.1862  0.1317
46259W        W 2500  14.805  25.819   2.013 -0.1364  0.2697  0.1802
46260W        W 2501   7.288  31.270  26.247 -0.0286 -0.1345  0.1269
46261W        W 2502  13.552  29.696  13.971 -0.1391  0.2747 -0.0674
46262W        W 2503  31.548   2.840  12.150 -0.0115  0.2910  0.2539
46263W        W 2504  12.205  21.275  11.900  0.0776 -0.1318 -0.1937
46264W        W 2505   6.007  34.117   2.676 -0.2119  0.0560 -0.0064
46265W        W 2506   8.486  20.341   2.452 -0.0150  0.0774 -0.0732
46266W        W 2507  19.239   9.972  10.070  0.2161 -0.2905 -0.1642
46267W        W 2508  23.024  14.392  22.512  0.1762  0.0041  0.0883
46268W        W 2509  19.297  30.973   6.638 -0.2871  0.1314  0.3264
46269W        W 2510   0.166  12.084   0.243 -0.1559  0.3608  0.1931
46270W        W 2511  20.405   9.491  18.725 -0.0306  0.0851  0.0677
46271W        W 2512   5.870  18.569   6.696  0.1991 -0.0304 -0.0643
46272W        W 2513  24.203  21.445  24.457 -0.0296 -0.0088  0.3492
46273W        W 2514  33.923   6.373   4.784 -0.1003  0.0867  0.1211
46274W        W 2515   1.622  13.272  23.755  0.0963 -0.2002  0.2106
46275W        W 2516  11.886  23.840  14.109 -0.0333  0.1113  0.1967
46276W        W 2517   8.159  10.677  25.526 -0.0677  0.0897 -0.0482
46277W        W 2518  30.990  34.396  21.895 -0.6241  0.1595 -0.1422
46278W        W 2519  11.598  32.957  10.511 -0.2004  0.0148 -0.2378
46279W        W 2520  17.963  23.043   6.238 -0.0427 -0.2398  0.3803
46280W        W 2521  30.019  13.846  24.164 -0.0483 -0.0592 -0.0801
46281W        W 2522  31.706   8.882  23.479 -0.0085 -0.0545 -0.0092
46282W        W 2523  32.307  13.428  16.532 -0.3410 -0.0696 -0.3619
46283W        W 2524  11.545  21.021   3.903  0.1931 -0.1105  0.0038
46284W        W 2525  34.799  19.462  13.516  0.2357 -0.1119 -0.0727
46285W        W 2526  24.644  23.447  16.913 -0.1394  0.2086 -0.1539
46286W        W 2527  17.923  23.379  11.789 -0.2562  0.2800 -0.0410
46287W        W 2528  33.836  35.093   5.215  0.1873 -0.2089 -0.0557
46288W        W 2529   1.854  29.393   1.764 -0.2287  0.1872  0.2982
46289W        W 2530  12.520  12.622  24.687  0.0147  0.1748 -0.0392
46290W        W 2531   8.312   7.135   3.744 -0.0359  0.0788 -0.1761
46291W        W 2532   0.931   2.556   1.944  0.0435  0.0630 -0.0611
46292W        W 2533  30.881  25.654  14.528  0.0343  0.3030 -0.1112
46293W        W 2534  25.062  10.774  16.709 -0.2695  0.1035 -0.2003
46294W        W 2535  31.413   1.432   3.370 -0.3412  0.0947  0.2395
46295W        W 2536   7.722   4.332  21.564  0.1836  0.4467 -0.0905
46296W        W 2537  31.531  12.313  12.956  0.0492 -0.2965  0.1704
46297W        W 2538  31.478  29.298  22.124 -0.2134  0.1131 -0.0490
46298W        W 2539  12.461  26.342  15.349  0.1264  0.1915 -0.0364
46299W        W 2540  13.392  22.491  16.913 -0.2275  0.1470 -0.0117
46300W        W 2541   9.011  27.150  13.716  0.1205 -0.2639  0.1793
46301W        W 2542  21.609  32.053   0.110  0.0809  0.0444  0.0654
46302W        W 2543  16.174   7.210  13.580 -0.0121  0.2210 -0.0921
46303W        W 2544  22.089  30.670   0.487  0.0973 -0.1488 -0.2347
46304W        W 2545  10.192  19.495   0.327  0.1555 -0.2361 -0.0972
46305W        W 2546  10.992  17.261  14.526 -0.0542 -0.1740 -0.0513
46306W        W 2547  25.035   5.505  12.388  0.0145  0.3001  0.4150
46307W        W 2548   6.753  21.953  23.937  0.0060 -0.0624  0.0871
46308W        W 2549  10.111  22.533   6.502 -0.0483 -0.1596  0.2369
46309W        W 2550   4.542  33.077  24.262 -0.2762 -0.1791 -0.0150
46310W        W 2551   1.369  25.291  16.257 -0.2759  0.0357 -0.0189
46311W        W 2552  25.816  34.730   3.487 -0.2210 -0.0673  0.0298
46312W        W 2553   0.314  30.319  19.850  0.0469 -0.0123 -0.0833
46313W        W 2554   8.266  31.846   9.139  0.2037 -0.3284 -0.1859
46314W        W 2555  33.597  32.174   2.726  0.2011  0.0186 -0.0809
46315W        W 2556   0.489   5.938  23.524  0.1874  0.3754  0.3049
46316W        W 2557  33.954  19.503  25.885  0.1027  0.1167  0.0474
46317W        W 2558  18.103  17.430   0.923  0.1607  0.0515 -0.0224
46318W        W 2559  17.479  12.323  11.130  0.0969  0.2289  0.1640
46319W        W 2560  18.743  17.784   1.299 -0.3669  0.2705  0.2177
46320W        W 2561  29.817  35.137  23.621  0.0474 -0.0419 -0.1777
46321W        W 2562   7.957  12.086   3.051 -0.0792  0.1763  0.1484
46322W        W 2563  30.350  34.664  17.881  0.0412  0.0585  0.2084
46323W        W 2564  30.327   3.263  12.529  0.1750  0.0707  0.1504
46324W        W 2565  17.518  34.734  19.731 -0.0829 -0.0305 -0.1211
46325W        W 2566   2.357  23.263  19.388 -0.0496  0.1517 -0.2205
46326W        W 2567  33.899   9.422  25.103 -0.1987  0.3005 -0.1006
46327W        W 2568  20.405  31.512   7.261  0.0597 -0.1746  0.0057
46328W        W 2569  23.393  17.046  23.194 -0.0383  0.0003 -0.1078
46329W        W 2570  28.513  23.120  19.035  0.1116 -0.0610 -0.2579
46330W        W 2571   8.035   6.923   0.637 -0.0552 -0.4383 -0.2724
46331W        W 2572  19.619   7.285  19.515  0.0630 -0.1544 -0.2053
46332W        W 2573  28.094   2.453   2.251 -0.0934 -0.1730 -0.3421
46333W        W 2574  29.133  33.549  18.083 -0.0160  0.1362  0.0808
46334W        W 2575  13.282  11.736   0.009  0.0536 -0.3332 -0.1227
46335W        W 2576  23.117  33.988   3.356  0.3178 -0.1251 -0.1948
46336W        W 2577  30.790   3.681  20.922 -0.0707  0.2120  0.0013
46337W        W 2578  31.738  33.142  18.188  0.2293  0.3873 -0.3149
46338W        W 2579   5.168  14.128  17.394  0.0385 -0.3339  0.0091
46339W        W 2580  26.407   5.430  21.478  0.2506 -0.0760 -0.3644
46340W        W 2581   3.903   6.031   6.222  0.2839  0.1262 -0.2057
46341W        W 2582  12.929  31.474  12.763 -0.2153 -0.0202  0.0642
46342W        W 2583  13.464  29.944   2.801 -0.1430 -0.2250 -0.0766
46343W        W 2584  13.452  25.675   8.014  0.0444  0.0260  0.1962
46344W        W 2585  25.898  13.853  11.590  0.0084 -0.0123 -0.0765
46345W        W 2586   7.861   1.772   7.722 -0.3481 -0.1299 -0.0059
46346W        W 2587  26.459  32.091  21.088  0.1661  0.0480 -0.3258
46347W        W 2588   5.840  18.986   2.545 -0.1350 -0.0259 -0.0703
46348W        W 2589  25.032  34.600   3.909  0.0971  0.0995  0.3185
46349W        W 2590   8.105   7.089   9.382 -0.1718  0.2932 -0.0463
46350W        W 2591  15.207  18.424  13.788  0.0111  0.2413  0.2739
46351W        W 2592   5.803  18.636  22.583 -0.0199  0.0208 -0.0479
46352W        W 2593  18.282  21.086   6.693 -0.4175  0.0386 -0.1332
46353W        W 2594   7.777  27.008  21.951  0.1359 -0.2948 -0.2834
46354W        W 2595  27.123  14.436  22.032  0.0223  0.1515 -0.1735
46355W        W 2596   9.748  24.921  13.310 -0.1015 -0.1845  0.0705
46356W        W 2597  30.321   7.508  15.957  0.0329 -0.0227 -0.2372
46357W        W 2598  17.101   5.786  11.343  0.0787  0.1674  0.3978
46358W        W 2599  23.656  15.328  17.988 -0.0311  0.0289  0.0229
46359W        W 2600  13.695  24.217   9.139 -0.1664  0.0624 -0.1397
46360W        W 2601  32.672  12.409  11.202  0.1377 -0.3428  0.0487
46361W        W 2602  32.091   0.271  16.426 -0.2608  0.1867  0.0031
46362W        W 2603  26.394  17.714  13.198  0.0807 -0.0599  0.1952
46363W        W 2604  29.286  15.033   9.461 -0.0084  0.1913 -0.1747
46364W        W 2605  14.611  20.463  13.203 -0.1289  0.3376 -0.0488
46365W        W 2606  23.911   4.403  20.850 -0.1867 -0.0145 -0.2559
46366W        W 2607  21.714   4.541   2.820  0.0377 -0.0435 -0.2375
46367W        W 2608  26.491  34.662  25.795  0.1507 -0.1784 -0.1866
46368W        W 2609  19.954  21.541  25.653  0.1851  0.1647 -0.0197
46369W        W 2610   8.725  24.454  11.208  0.1724 -0.0103  0.0695
46370W        W 2611  18.699  34.293  20.218 -0.1718 -0.2090  0.1075
46371W        W 2612  26.759  35.072  23.937  0.1446 -0.2073 -0.0431
46372W        W 2613  35.222  13.607   0.332 -0.0421  0.0498 -0.0250
46373W        W 2614  28.840  16.252  24.850  0.2956 -0.1536 -0.1943
46374W        W 2615  10.983  23.388   1.984  0.0773 -0.0839  0.3660
46375W        W 2616   4.371   2.822   4.387 -0.3068  0.0670 -0.0258
46376W        W 2617  26.381  15.808  24.356 -0.0440 -0.1008 -0.0557
46377W        W 2618  16.475  14.083  21.832 -0.3794 -0.1361  0.3142
46378W        W 2619  10.328  21.898  11.310  0.2358 -0.1514  0.0015
46379W        W 2620  25.790  22.879  22.614  0.0832 -0.0321 -0.3608
46380W        W 2621  28.714  27.096  22.205  0.0952  0.0797  0.0870
46381W        W 2622  32.216  23.057  12.895 -0.3734  0.0127  0.0673
46382W        W 2623   2.816  33.911   1.884  0.1816 -0.1380 -0.2582
46383W        W 2624  27.361   2.312   0.213 -0.0789 -0.1212 -0.0087
46384W        W 2625  14.117   0.882   0.127 -0.0449 -0.0640  0.2333
46385W        W 2626  22.447  22.484  20.901 -0.5134 -0.0992  0.1515
46386W        W 2627  24.587  33.156  17.008  0.2054 -0.1240  0.0146
46387W        W 2628  30.354   9.118  11.673 -0.0178  0.2250 -0.4024
46388W        W 2629  25.652  15.623   9.826 -0.2382  0.0913 -0.1781
46389W        W 2630  19.850   1.492  22.824  0.0572 -0.0394 -0.1742
46390W        W 2631  25.665   1.169  13.022  0.1659 -0.4202  0.3220
46391W        W 2632  11.770   0.886   4.844  0.1042  0.0509 -0.5006
46392W        W 2633  15.670  19.065  25.702 -0.2541 -0.2057  0.1059
46393W        W 2634  34.432  12.758  22.426 -0.1465 -0.0463  0.1583
46394W        W 2635  17.419  21.693   9.999 -0.0314 -0.2207  0.3594
46395W        W 2636  24.021  25.096  22.380 -0.0406  0.2553 -0.1054
46396W        W 2637   8.942   1.950  24.385  0.0642  0.0758 -0.1294
46397W        W 2638  17.649  22.989  14.669  0.1713 -0.4238  0.0492
46398W        W 2639   5.962  33.863  19.285  0.0428  0.1415  0.1275
46399W        W 2640  35.056  29.940  20.281 -0.1154 -0.2213 -0.1281
46400W        W 2641  27.854  13.446   9.636 -0.1556  0.0896 -0.1160
46401W        W 2642  25.907  12.942  18.003  0.0181  0.2137  0.1042
46402W        W 2643  29.976   3.412  12.169 -0.1035 -0.3807 -0.0455
46403W        W 2644  32.402  33.562  14.719  0.1033 -0.0331  0.0055
46404W        W 2645  12.946  25.410   5.601 -0.1939  0.2575 -0.1097
46405W        W 2646  16.436  15.573  24.184  0.2057  0.1008  0.2656
46406W        W 2647  33.159  25.779  10.594 -0.1336 -0.3323  0.2963
46407W        W 2648  32.332  25.663  11.482  0.4163  0.0197 -0.0198
46408W        W 2649   0.891  20.515  18.695 -0.0187 -0.0373  0.3520
46409W        W 2650  15.052  13.130   7.652 -0.2607 -0.0690  0.0129
46410W        W 2651  33.979  14.289   9.195  0.1068  0.1657  0.4352
46411W        W 2652   5.459   6.519  19.512  0.1608 -0.1130  0.0372
46412W        W 2653  15.278  11.894   5.943 -0.1501 -0.0133  0.0714
46413W        W 2654  28.580   2.491  22.814  0.0311  0.2568  0.1149
46414W        W 2655  24.947  24.651  24.351  0.0026  0.0774  0.3085
46415W        W 2656  26.307  26.734  23.961 -0.0384 -0.0070 -0.0785
46416W        W 2657  16.997  30.838  10.300 -0.0260 -0.0398 -0.0353
46417W        W 2658  12.682   6.583   9.874  0.0766  0.0426 -0.2413
46418W        W 2659  35.116   8.036   5.081  0.0032  0.1212  0.2210
46419W        W 2660  24.264   1.903  25.938  0.2704  0.4333  0.1466
46420W        W 2661  26.410  26.213  14.677 -0.0990  0.0195 -0.4119
46421W        W 2662  15.991   8.277  10.012 -0.0675 -0.2040  0.0268
46422W        W 2663   5.127   4.109  19.235 -0.0265  0.0749  0.0099
46423W        W 2664  18.427   8.215   5.488  0.1105  0.1495  0.0612
46424W        W 2665  34.033  21.721   0.221 -0.2560 -0.3500 -0.0310
46425W        W 2666  28.376  13.354  17.258 -0.0064  0.5049  0.1030
46426W        W 2667   3.978  11.409  16.825  0.2942  0.1984 -0.0064
46427W        W 2668   4.124   1.619   4.529 -0.0846 -0.2653  0.3778
46428W        W 2669  33.181  12.481  22.463  0.0846 -0.3323  0.0530
46429W        W 2670  21.400   5.665  16.262 -0.1853 -0.1277  0.2456
46430W        W 2671  11.827   6.745   1.771  0.0697 -0.1034  0.0726
46431W        W 2672  15.789  10.017   3.055  0.0568  0.0119 -0.1898
46432W        W 2673   4.290  22.291   4.828 -0.1749 -0.2258  0.0795
46433W        W 2674  20.199  25.352   8.881 -0.1182 -0.3001 -0.1604
46434W        W 2675   4.709   4.321   0.905  0.3456 -0.0357 -0.1019
46435W        W 2676  27.927   5.268   0.871 -0.0736  0.0279 -0.2636
46436W        W 2677  11.137  30.739  10.537  0.0388 -0.0938 -0.0516
46437W        W 2678  31.889  34.117  23.076  0.0355  0.2565 -0.0835
46438W        W 2679  31.655   3.042   0.916 -0.0978 -0.3752  0.1889
46439W        W 2680   0.942   2.359   6.926  0.2702 -0.0800 -0.1187
46440W        W 2681  26.134   2.116  19.874  0.3809 -0.0213  0.0505
46441W        W 2682   2.977  20.082  19.495 -0.1185  0.1083  0.1177
46442W        W 2683   3.322  16.029  21.977 -0.2559  0.0731  0.0375
46443W        W 2684  14.782  27.474   1.192 -0.2351  0.0069 -0.1091
46444W        W 2685  16.661  27.785  12.926  0.0116  0.0795 -0.2575
46445W        W 2686   2.390  34.191   3.139 -0.4156 -0.0301 -0.0213
46446W        W 2687  18.062  13.014  21.548 -0.0246 -0.1379 -0.0139
46447W        W 2688  18.593  10.201  21.099  0.0890  0.1266 -0.0881
46448W        W 2689  22.707   3.004   4.051  0.2460  0.0021  0.1541
46449W        W 2690  30.453  20.248  24.434  0.0734 -0.0594 -0.1022
46450W        W 2691  18.721  28.824  21.471 -0.1356  0.0288  0.1089
46451W        W 2692  18.362  12.434  24.594 -0.1893 -0.0066  0.0268
46452W        W 2693  23.748   8.692  14.323  0.1918  0.1379  0.0774
46453W        W 2694   1.597  20.027  18.009 -0.1903 -0.4738 -0.0458
46454W        W 2695  14.056   3.337  23.499 -0.1342  0.1575  0.1145
46455W        W 2696   4.324   1.221   2.448 -0.0015 -0.0670 -0.0186
46456W        W 2697  26.650  21.582  10.023 -0.0738  0.0630  0.1692
46457W        W 2698  30.541  20.701   7.957 -0.2192 -0.2414  0.1062
46458W        W 2699   9.207   1.750  23.824  0.2522 -0.0229 -0.1166
46459W        W 2700  15.099  21.351  16.102  0.4268  0.2786  0.1645
46460W        W 2701  29.771  18.842   4.926  0.2188  0.0074 -0.2072
46461W        W 2702   2.600  24.279  24.003  0.1097  0.1615 -0.1228
46462W        W 2703   2.296  14.576  25.655  0.1599 -0.0028 -0.0110
46463W        W 2704   8.647   2.823  24.664  0.0159  0.0366  0.1496
46464W        W 2705  31.551  17.510  26.130 -0.1042 -0.1726 -0.5091
46465W        W 2706  10.749  13.265  23.556  0.2069 -0.1654  0.0019
46466W        W 2707   1.307  29.093  19.705 -0.0244  0.0887  0.1379
46467W        W 2708   4.601  27.722   1.533 -0.5526  0.0117  0.0053
46468W        W 2709   1.134  34.258   9.607  0.2699  0.1486 -0.2082
46469W        W 2710  14.075  16.298  12.649  0.1853  0.0110  0.1890
46470W        W 2711  24.644  23.464  22.494 -0.3368  0.0267 -0.1583
46471W        W 2712  22.411  34.593  24.904  0.1749  0.0580  0.0623
46472W        W 2713  17.997   8.814  21.880 -0.1949 -0.3320 -0.1266
46473W        W 2714  12.471  20.356  10.719  0.1527 -0.0396  0.0193
46474W        W 2715  28.632  16.790  17.154  0.0915  0.0217 -0.0023
46475W        W 2716  13.362   6.448   8.309 -0.0202  0.1598  0.0925
46476W        W 2717  10.351  31.236   0.559  0.1825  0.3000  0.1515
46477W        W 2718  10.880   4.151   9.769 -0.2955 -0.0510 -0.1763
46478W        W 2719  35.353  35.292   0.257  0.0316 -0.0814  0.0225
46479W        W 2720  11.686   2.863   6.349  0.1057  0.2097 -0.1515
46480W        W 2721   5.999  10.322  25.472 -0.1053 -0.0535  0.5057
46481W        W 2722  32.033   2.929  14.168 -0.0115 -0.1670  0.0386
46482W        W 2723  25.938   2.590  17.702 -0.2254  0.3830  0.1107
46483W        W 2724  14.488  25.472   7.757 -0.0787 -0.0470 -0.0715
46484W        W 2725   6.207   5.617   0.001  0.1443  0.5036 -0.1918
46485W        W 2726  32.245  17.665  16.082 -0.0768 -0.1547  0.0583
46486W        W 2727   7.073  21.359  25.281  0.3477  0.2954  0.0693
46487W        W 2728  24.190  10.745   2.298 -0.2952  0.0194  0.3805
46488W        W 2729  27.676  15.529  10.165 -0.1704 -0.0462  0.0459
46489W        W 2730  24.175  14.811   0.857 -0.1336 -0.0674  0.1049
46490W        W 2731   8.570   3.712   1.322 -0.0342 -0.0470 -0.2169
46491W        W 2732  17.313  28.533  10.472 -0.1580 -0.0690 -0.1538
46492W        W 2733   4.662  27.641   2.766  0.0462  0.0148 -0.2447
46493W        W 2734  22.400  15.624  19.787 -0.2183  0.1046  0.0073
46494W        W 2735   9.156  23.701   7.063  0.1125  0.1685 -0.1535
46495W        W 2736  30.574   8.040  22.672 -0.1518 -0.4103  0.0907
46496W        W 2737  23.507  13.478  12.959 -0.2266  0.0957 -0.0590
46497W        W 2738   9.826  16.995   3.522 -0.4924 -0.4228  0.1782
46498W        W 2739   9.569  24.368  24.102  0.1363  0.0020  0.0073
46499W        W 2740  17.260  13.885  24.814  0.1791 -0.0584 -0.0608
46500W        W 2741   0.002  24.530  14.338  0.1517 -0.1792 -0.1083
46501W        W 2742   0.042  10.751   0.074 -0.0957  0.1593 -0.0589
46502W        W 2743  20.335   8.079   6.609  0.0846 -0.2314 -0.3125
46503W        W 2744  25.161  29.558  25.341 -0.1370  0.2098 -0.0586
46504W        W 2745  33.776   3.282  19.342 -0.0197  0.1125 -0.1133
46505W        W 2746   3.162   4.189   2.189  0.0764  0.2441  0.2381
46506W        W 2747   3.384  27.390   4.745  0.0112  0.2288 -0.1711
46507W        W 2748  19.015  13.413  23.068 -0.1088  0.1652  0.1456
46508W        W 2749  14.006  27.446  12.233  0.0306  0.3627  0.0381
46509W        W 2750  22.333   6.532  21.940 -0.0936 -0.2665 -0.0974
46510W        W 2751  23.614  21.100   1.758  0.1555 -0.3935  0.1114
46511W        W 2752  34.466  26.767  15.179  0.3107 -0.1201  0.0008
46512W        W 2753  26.715  17.474  12.819  0.0520 -0.1499  0.3199
46513W        W 2754  23.864   3.364  21.983 -0.0402 -0.0642  0.2312
46514W        W 2755   8.312   2.846  19.884 -0.3543 -0.1810 -0.1361
46515W        W 2756  27.323  21.223   8.763  0.1164  0.0065 -0.0946
46516W        W 2757  35.234  10.154  25.824 -0.0550 -0.1691 -0.3409
46517W        W 2758  32.675  33.298   6.029  0.0630 -0.0272 -0.4765
46518W        W 2759  10.222  34.304   9.003 -0.4581 -0.0025  0.0612
46519W        W 2760  24.407  27.205  17.189 -0.0942 -0.0822 -0.0120
46520W        W 2761  34.728  33.623   3.592 -0.1039  0.3485  0.1008
46521W        W 2762  29.565   9.347   0.740  0.2495  0.4155  0.3253
46522W        W 2763   9.363  15.102  10.842  0.1335  0.1755 -0.0472
46523W        W 2764  29.305  30.382  21.940  0.5041 -0.0735  0.4392
46524W        W 2765   6.326  10.498  20.866  0.0667  0.0716  0.0752
46525W        W 2766  27.289   2.995  23.642  0.0941 -0.0595 -0.3483
46526W        W 2767   6.422   9.647   4.794  0.0177  0.0824 -0.0276
46527W        W 2768  32.079  34.318   2.481  0.0313  0.2772  0.0303
46528W        W 2769   3.994   1.068  23.537  0.0465  0.0590 -0.2932
46529W        W 2770  28.942  11.372   9.365  0.0212  0.2352  0.1401
46530W        W 2771  25.197   8.079  25.823  0.2752 -0.0022  0.0664
46531W        W 2772  15.904  13.944  14.098  0.2532  0.3104  0.0276
46532W        W 2773   1.251  16.917  18.368  0.1151 -0.4596 -0.0360
46533W        W 2774  25.171   6.276   4.962  0.0609  0.0196  0.1239
46534W        W 2775   0.354  31.988  14.818  0.1562  0.3244 -0.2201
46535W        W 2776  33.126  24.307  13.349  0.2413 -0.0493  0.1975
46536W        W 2777  31.110  16.996  20.373  0.0078  0.0453 -0.2443
46537W        W 2778  20.009  26.071  22.841 -0.1081  0.2469  0.0928
46538W        W 2779   6.428   1.112  21.188 -0.2386  0.3964 -0.1116
46539W        W 2780   1.039  19.222  23.728 -0.3386 -0.0179  0.1999
46540W        W 2781  13.882  13.355   7.434 -0.4673  0.2654  0.1247
46541W        W 2782   9.765   5.038   2.793  0.1874  0.0067  0.4571
46542W        W 2783  27.322  23.637  22.043  0.0794  0.2284  0.3648
46543W        W 2784  26.707   5.327  22.720  0.2232  0.1260  0.0877
46544W        W 2785  31.028  34.087   2.946  0.2026  0.2542  0.2499
46545W        W 2786  33.679   5.409   5.020 -0.0495 -0.0023  0.1779
46546W        W 2787   0.121  14.121  15.575  0.2004  0.0260 -0.1970
46547W        W 2788   0.459  14.601  22.470  0.1013  0.2180  0.1305
46548W        W 2789  20.397  13.530  23.434 -0.0777 -0.1762 -0.1783
46549W        W 2790  33.393  22.365  20.579  0.0289  0.0075  0.0045
46550W        W 2791   8.515   0.928  22.254  0.0028 -0.0907  0.0910
46551W        W 2792  20.477  10.478   7.221  0.2124 -0.0010  0.0989
46552W        W 2793   2.437  18.861  17.704  0.2941  0.0708 -0.3020
46553W        W 2794  15.286   0.090   6.174  0.0391 -0.0908 -0.1481
46554W        W 2795  33.790  27.663  12.718 -0.0054 -0.2222  0.0792
46555W        W 2796  16.658   5.826   4.009 -0.1952 -0.0321 -0.3013
46556W        W 2797  10.289  19.446   0.991  0.0851  0.0011 -0.0430
46557W        W 2798  13.837  13.327   0.742 -0.1773 -0.0747  0.0021
46558W        W 2799  17.810  22.278  13.310  0.1056  0.1449  0.1221
46559W        W 2800  28.866  12.626   8.281  0.2251 -0.1630 -0.0189
46560W        W 2801   7.440  27.328   7.131  0.1535  0.1138 -0.2225
46561W        W 2802  34.006  22.472  21.734 -0.3222 -0.1355  0.6361
46562W        W 2803   2.575   6.753   6.833  0.2451  0.0798  0.0619
46563W        W 2804  13.847  26.983  12.362  0.1923  0.0772 -0.2841
46564W        W 2805  17.941  20.579   3.638 -0.4397 -0.0297 -0.2805
46565W        W 2806  12.480   3.545  25.496 -0.0553 -0.0642 -0.0054
46566W        W 2807  29.612  25.095  15.856 -0.1335 -0.0999  0.0446
46567W        W 2808  19.405   9.754   9.626  0.4773  0.1974 -0.1162
46568W        W 2809  34.872  30.299   1.725  0.1239  0.0152 -0.0261
46569W        W 2810   4.852  23.110   2.761  0.1837 -0.3312 -0.1172
46570W        W 2811   2.131  23.110  25.235 -0.3738 -0.0036 -0.0307
46571W        W 2812  20.109  35.179   1.901  0.1218 -0.0255 -0.0374
46572W        W 2813  13.581   2.898   9.939 -0.4047  0.0048 -0.1975
46573W        W 2814  12.023  12.348  25.289  0.0523 -0.1893  0.0684
46574W        W 2815  33.936  23.876  24.856 -0.0474 -0.1112 -0.0845
46575W        W 2816   5.692  25.724   1.860  0.1250 -0.0688 -0.0724
46576W        W 2817  11.144  11.867   2.628  0.0001 -0.1017  0.0135
46577W        W 2818  28.479  11.951  14.881 -0.1621  0.0859 -0.3742
46578W        W 2819   8.372  26.741  16.046  0.0809  0.2590  0.1788
46579W        W 2820   1.338  15.745  18.090 -0.1065  0.1305  0.1538
46580W        W 2821  32.855  16.202   9.223 -0.4455  0.0765 -0.3334
46581W        W 2822  16.974  22.003   1.159 -0.0710  0.2049  0.1097
46582W        W 2823   1.710  19.844   0.266  0.2075  0.1561 -0.3636
46583W        W 2824  30.954   5.274  17.742 -0.0184  0.3580  0.0231
46584W        W 2825   7.699   9.154   1.325 -0.1535 -0.2100  0.2971
46585W        W 2826  29.347   8.519   8.180  0.3369 -0.0608 -0.2609
46586W        W 2827  29.770  20.789  12.037 -0.0923  0.2327  0.2481
46587W        W 2828   2.978  18.012  14.743 -0.2277 -0.0238  0.0112
46588W        W 2829  24.207  21.239  20.692 -0.1070  0.1892  0.1672
46589W        W 2830  31.650   0.879  14.353  0.0845 -0.2270 -0.4111
46590W        W 2831  30.974  19.995   6.351 -0.0590 -0.0961  0.0878
46591W        W 2832  17.988  23.540   2.968  0.0939 -0.1226 -0.0808
46592W        W 2833  11.878   4.865  20.012 -0.1677  0.2918  0.1591
46593W        W 2834   4.785  11.200  18.928 -0.2340 -0.0333 -0.0158
46594W        W 2835   2.949  22.430  21.719  0.3307  0.0713 -0.0732
46595W        W 2836   5.246  18.217   7.746  0.1650  0.1021 -0.0149
46596W        W 2837   5.537   3.850  24.028  0.3607  0.2056  0.2854
46597W        W 2838  29.567   7.334   1.818  0.1820 -0.0590 -0.0406
46598W        W 2839  14.384  29.488  12.994  0.1908 -0.0644 -0.2183
46599W        W 2840  17.122  14.505   4.674  0.3596  0.2992 -0.0659
46600W        W 2841   6.647   1.181  10.807 -0.1260 -0.1150  0.1537
46601W        W 2842   4.749  35.083   9.926  0.1110 -0.0155 -0.4648
46602W        W 2843  31.233   4.646   4.876  0.0007 -0.1843 -0.0752
46603W        W 2844   7.463  14.468  20.725 -0.0693  0.1044 -0.0245
46604W        W 2845  23.962  15.083   0.413  0.0442  0.1674  0.1042
46605W        W 2846  32.400  13.868   9.086  0.1169  0.0684 -0.0459
46606W        W 2847   2.423   9.619   5.895  0.1748  0.1390 -0.2004
46607W        W 2848  19.768  27.283   3.978  0.0333 -0.1048 -0.1939
46608W        W 2849  25.666   9.261  19.864  0.0701  0.1713  0.1655
46609W        W 2850  33.418  24.267  17.797  0.2719 -0.0704  0.1790
46610W        W 2851  11.468  24.732  10.590  0.1269 -0.0205 -0.2042
46611W        W 2852  24.174  26.307  14.380  0.1032 -0.0101  0.1926
46612W        W 2853   8.611  33.006   6.993 -0.3386  0.2085  0.3329
46613W        W 2854  25.978   2.960   5.055  0.0212 -0.1601 -0.0644
46614W        W 2855  30.227  23.124  11.239 -0.1195 -0.3043 -0.1601
46615W        W 2856  15.509  32.556  12.225 -0.2577 -0.0024  0.0377
46616W        W 2857  26.691   3.836  11.163 -0.2673 -0.1538 -0.1061
46617W        W 2858   9.955   9.105   0.665  0.1596  0.3887  0.1099
46618W        W 2859  10.228  23.735  23.758  0.3165  0.0548  0.2234
46619W        W 2860  31.387  27.528  15.965 -0.0742  0.0898 -0.3426
46620W        W 2861  16.598  25.638   0.659 -0.3019  0.2354  0.2191
46621W        W 2862  15.015  24.244   4.085 -0.0193  0.3930 -0.1188
46622W        W 2863  33.374  12.633  12.409  0.1234  0.1085  0.0692
46623W        W 2864  25.085  29.418   3.345  0.3713 -0.0372 -0.0466
46624W        W 2865   8.997   1.879   4.525 -0.2960  0.0837 -0.0054
46625W        W 2866  26.508  25.674  22.519  0.0137 -0.2661  0.1039
46626W        W 2867  33.738  12.208  12.940  0.1416  0.0733 -0.1289
46627W        W 2868  24.919  29.025   3.034  0.0432  0.2987  0.0246
46628W        W 2869   4.726   1.575   8.788 -0.1278 -0.2986  0.1083
46629W        W 2870   2.862  20.456  13.248  0.1353 -0.2908  0.0539
46630W        W 2871  11.459  31.375  14.565 -0.1779 -0.4993  0.1044
46631W        W 2872  16.353   0.500  16.807  0.2227  0.3140  0.4354
46632W        W 2873  15.916  22.101  15.106  0.0123  0.2948 -0.0030
46633W        W 2874  27.780  33.737  23.122 -0.0493  0.0835  0.1230
46634W        W 2875  21.276   4.245   1.937  0.1027 -0.3037  0.0213
46635W        W 2876  19.208   6.293  25.792 -0.1124  0.2102 -0.0936
46636W        W 2877  24.677  29.581   2.349  0.1111  0.1255  0.1736
46637W        W 2878  33.883   5.804  20.509  0.1754 -0.1071  0.3149
46638W        W 2879   3.415  32.921  11.557 -0.1000  0.2133 -0.0335
46639W        W 2880  25.314  26.973  13.238  0.2493 -0.0736  0.0709
46640W        W 2881  16.860  35.355  23.068  0.0794 -0.2687  0.2572
46641W        W 2882  24.017  14.424  10.394 -0.1128  0.1300 -0.0771
46642W        W 2883  15.008  28.757  23.391  0.2367  0.0725 -0.1276
46643W        W 2884  27.532  34.479   0.135  0.0507 -0.1173  0.1202
46644W        W 2885  15.216  29.307  22.611 -0.0032 -0.0511 -0.3921
46645W        W 2886   1.886  18.717  15.459 -0.1470 -0.2951 -0.5003
46646W        W 2887  25.336  20.695  17.428 -0.2835  0.2691  0.1866
46647W        W 2888   7.339  23.158   8.546  0.0402 -0.3027 -0.1249
46648W        W 2889  30.263  29.528  24.850 -0.0501  0.0469  0.1682
46649W        W 2890  27.605  34.135  26.069  0.2049 -0.1122 -0.0843
46650W        W 2891  34.940  21.371  16.105  0.1461  0.0083  0.2794
46651W        W 2892   0.527  12.282  25.031 -0.0217  0.0332  0.1367
46652W        W 2893  16.163  13.676   8.281  0.0004  0.2965 -0.1874
46653W        W 2894  25.841   2.418  11.744  0.0915 -0.0709 -0.0851
46654W        W 2895   9.815  25.802  26.166 -0.0934 -0.1547 -0.1958
46655W        W 2896  19.189  30.975  24.617 -0.1431 -0.1804  0.0830
46656W        W 2897  13.282  15.347  22.783 -0.1785  0.2443 -0.3489
46657W        W 2898  13.237  11.521   8.410 -0.3788 -0.0325  0.2608
46658W        W 2899  21.855  24.462  21.499 -0.1403 -0.0069 -0.0406
46659W        W 2900  16.641  33.985  19.348  0.0665  0.0941  0.2752
46660W        W 2901  31.241   0.080  21.101  0.1366  0.1905 -0.1869
46661W        W 2902  25.802  20.694  23.007  0.0888  0.1834 -0.0998
46662W        W 2903  16.852   8.255  23.852  0.2728  0.3059 -0.0121
46663W        W 2904  26.267  31.198  15.671  0.2333 -0.0951 -0.1979
46664W        W 2905  34.627  22.323  17.893 -0.1440  0.1098  0.0659
46665W        W 2906   8.032  20.370   8.406  0.0219  0.3863  0.3649
46666W        W 2907  34.956  18.567   7.309  0.4440 -0.1625  0.1302
46667W        W 2908   4.389   7.081  25.029 -0.1797 -0.1180  0.0987
46668W        W 2909   1.292  23.421  21.412 -0.1829 -0.1392  0.0181
46669W        W 2910   7.924  19.258   4.592  0.3209  0.0009  0.1804
46670W        W 2911  15.121   8.131  23.712  0.2248  0.3066  0.1429
46671W        W 2912  22.854  14.626  18.620  0.0971 -0.1508 -0.3411
46672W        W 2913   5.902  33.287   1.217  0.0638  0.0407 -0.1058
46673W        W 2914  25.132  17.102  10.087  0.0712 -0.0823 -0.0447
46674W        W 2915  13.203   6.242  10.436  0.0119  0.0173 -0.0122
46675W        W 2916  14.231  27.518   4.653 -0.2477 -0.1239 -0.3180
46676W        W 2917  25.051  33.763  19.882  0.0818  0.0720  0.0366
46677W        W 2918  24.860   9.012  25.967 -0.0636  0.2765  0.1501
46678W        W 2919   9.850  29.047  11.743 -0.0250 -0.3193 -0.1218
46679W        W 2920  14.102   0.696   0.675 -0.3274 -0.1277  0.0665
46680W        W 2921   5.362   3.973   6.367  0.1704 -0.0682  0.2147
46681W        W 2922  29.267  19.446  24.918  0.0413  0.2419  0.0205
46682W        W 2923  12.365  21.004  10.850 -0.0198 -0.1358 -0.2114
46683W        W 2924   9.095   2.111   2.359 -0.0105 -0.0682 -0.2646
46684W        W 2925  14.882  31.004   5.319  0.2294 -0.1303  0.0337
46685W        W 2926  14.293  12.620  11.832  0.0078  0.0377 -0.1334
46686W        W 2927  25.978  26.618  22.332  0.2278  0.0956  0.2814
46687W        W 2928  26.025   4.967  11.828  0.3774 -0.1999 -0.1542
46688W        W 2929  11.595  26.182   2.764 -0.2579 -0.0581 -0.0421
46689W        W 2930   1.146   8.012   0.701  0.1612  0.0821 -0.0711
46690W        W 2931  21.054  27.993  17.726  0.2242  0.0596  0.5331
46691W        W 2932   8.383  23.495  11.824 -0.1286  0.2731 -0.0857
46692W        W 2933  29.378  17.359   7.557 -0.3200  0.1605  0.3399
46693W        W 2934  19.382  19.672   7.894  0.1102 -0.0049 -0.4664
46694W        W 2935  19.244  32.194   6.950 -0.4831  0.0440 -0.2083
46695W        W 2936  35.286  29.812  23.657  0.3319 -0.0648 -0.1436
46696W        W 2937  24.204  10.624  20.773  0.0142  0.0851 -0.2833
46697W        W 2938  17.388  28.074  21.628 -0.0819  0.2005 -0.1174
46698W        W 2939  12.209   2.550   0.166 -0.1509  0.0448 -0.2985
46699W        W 2940  31.781  20.442   7.992 -0.0683  0.2175  0.0322
46700W        W 2941  30.601  30.489  19.877 -0.1989  0.2687  0.0865
46701W        W 2942  22.502  32.414  14.497 -0.1330 -0.3056 -0.0709
46702W        W 2943  20.077  17.562  17.560  0.2398 -0.0585  0.3514
46703W        W 2944  17.120  13.577   2.495  0.3268  0.1137  0.2003
46704W        W 2945  24.205   6.917  21.160  0.3579 -0.0436  0.0025
46705W        W 2946  33.399  19.488  16.628 -0.1670  0.0430 -0.2112
46706W        W 2947  31.260  30.664  18.100  0.1976  0.2367 -0.0985
46707W        W 2948  13.124  13.743   5.617 -0.3077  0.0722  0.0090
46708W        W 2949   1.639  29.772   2.290 -0.0373  0.1517  0.4556
46709W        W 2950   4.781  22.584   5.653 -0.1441  0.0612 -0.0180
46710W        W 2951   3.736  33.398   8.092 -0.0943 -0.6096  0.0444
46711W        W 2952  30.712   7.863   1.721 -0.1826  0.0099  0.0501
46712W        W 2953  28.286  21.622  18.238  0.0013 -0.0709  0.2950
46713W        W 2954   1.274  11.558  23.258  0.1124  0.1680 -0.0358
46714W        W 2955  25.850  22.160   8.492 -0.0679 -0.0755 -0.1476
46715W        W 2956  23.409   1.556  23.278 -0.3247 -0.0256  0.2065
46716W        W 2957  25.972  32.493  17.420 -0.1707 -0.2365  0.0573
46717W        W 2958  25.710  13.001   0.609 -0.0797  0.1948  0.0993
46718W        W 2959   2.984   6.521  14.801 -0.0488 -0.0758 -0.4532
46719W        W 2960  32.717  24.940  17.287  0.3252 -0.3205  0.2309
46720W        W 2961   6.782   1.910   2.604  0.0282  0.1448 -0.5645
46721W        W 2962  16.376  32.604   2.225 -0.1578 -0.0397 -0.0715
46722W        W 2963  34.277  34.396  21.117  0.1802  0.0938  0.1581
46723W        W 2964  23.963  16.597  24.654 -0.0227 -0.2992 -0.2908
46724W        W 2965   9.817   6.822   9.229 -0.3006 -0.0737  0.2744
46725W        W 2966  29.813  24.911  20.378 -0.0041  0.0252  0.0232
46726W        W 2967  31.105  35.308  19.327  0.1678 -0.1204 -0.0639
46727W        W 2968  11.459   1.072  15.026  0.3275 -0.0812  0.0303
46728W        W 2969  25.896  22.406  25.837  0.1790  0.0606  0.0747
46729W        W 2970  19.748  26.907   4.361 -0.3094 -0.2992 -0.0046
46730W        W 2971  23.198   4.030  22.186  0.1979  0.0948  0.2451
46731W        W 2972  10.481  17.977  20.763  0.0936 -0.2677 -0.0196
46732W        W 2973  21.398  20.153   3.075  0.4729 -0.0890  0.1872
46733W        W 2974   9.525  34.294   2.180 -0.3402 -0.0007  0.3094
46734W        W 2975  28.920   8.858   0.732 -0.3911 -0.1359 -0.2853
46735W        W 2976  15.009  27.221  15.927  0.1119 -0.1282  0.2285
46736W        W 2977  20.729  24.693  20.848  0.1428 -0.2353  0.3320
46737W        W 2978  20.157  15.230   2.922 -0.0772  0.3231  0.4454
46738W        W 2979  23.568   5.951  16.221  0.1797  0.0558 -0.2011
46739W        W 2980   9.944  13.012   6.536 -0.1322  0.0372  0.0535
46740W        W 2981   4.187  26.212   5.399 -0.4016  0.0063  0.1138
46741W        W 2982   5.431  33.816  23.859  0.2152  0.0282 -0.3498
46742W        W 2983  21.842   3.390   0.215  0.1175 -0.1556 -0.3757
46743W        W 2984  15.397  23.688   0.908  0.0353 -0.0709  0.2616
46744W        W 2985  33.892  15.508   9.255  0.1090 -0.1711  0.1501
46745W        W 2986  14.349  29.927   8.595 -0.6735 -0.0800  0.1220
46746W        W 2987  31.380   1.632  18.762  0.1012  0.0732  0.1359
46747W        W 2988   9.203   6.595  22.188  0.2043  0.1373  0.3793
46748W        W 2989  35.345  17.388   1.602 -0.3161  0.0609  0.0134
46749W        W 2990  21.664  11.889  25.237 -0.1217  0.0744 -0.1664
46750W        W 2991  12.744  14.549   1.986 -0.0690 -0.5596  0.1366
46751W        W 2992   7.336   2.636  14.057 -0.1661 -0.1994  0.0075
46752W        W 2993  25.227  19.281  17.868  0.1343  0.0434 -0.2164
46753W        W 2994  27.840   2.422  16.357  0.2212 -0.2511 -0.0959
46754W        W 2995  19.926   6.474   4.201  0.1110 -0.3944 -0.2574
46755W        W 2996   2.518  31.648  12.202 -0.0447  0.1136  0.2266
46756W        W 2997  16.509   5.087  24.129  0.0486 -0.3123 -0.0417
46757W        W 2998  28.388  26.366  24.134 -0.0774  0.0184 -0.1641
46758W        W 2999  29.746  26.358  13.749  0.1547 -0.0856 -0.0448
46759W        W 3000  18.741  28.346   0.939 -0.1930 -0.1745  0.0208
46760W        W 3001  28.574   0.906  24.274  0.1953 -0.0927 -0.0617
46761W        W 3002  18.270  31.586   2.921  0.2121 -0.2577  0.0015
46762W        W 3003  28.752   3.417   4.153  0.1088  0.1362  0.0761
46763W        W 3004   5.203   9.916  22.558 -0.2080 -0.0688  0.1392
46764W        W 3005  32.899   8.695  14.980  0.3128  0.2541  0.0484
46765W        W 3006  32.440  14.444  11.689 -0.0546 -0.0150 -0.2316
46766W        W 3007  26.219  19.867  16.499 -0.1248 -0.3064 -0.1329
46767W        W 3008  25.823   1.340  15.695 -0.3934 -0.0349  0.1182
46768W        W 3009  31.891  22.201  12.657 -0.0479 -0.0801 -0.0397
46769W        W 3010   7.371   6.327  12.350  0.4575 -0.2279 -0.3848
46770W        W 3011  14.725   2.948   4.730 -0.1727 -0.5429  0.0881
46771W        W 3012   1.230  14.994  12.200 -0.0420 -0.3471 -0.0788
46772W        W 3013  16.459   8.755  21.962 -0.3041 -0.2076  0.1898
46773W        W 3014  16.716  24.904  22.673 -0.1442 -0.1186  0.0147
46774W        W 3015  33.672   6.357  25.203 -0.0238  0.1481  0.0545
46775W        W 3016  13.301   0.528  21.385  0.1635  0.5152 -0.0915
46776W        W 3017  25.530   4.101  16.666  0.0940  0.2223 -0.2065
46777W        W 3018  28.437  31.803  20.007 -0.1991 -0.0100  0.1708
46778W        W 3019  10.722  26.919  24.428  0.0610  0.3713  0.2069
46779W        W 3020   8.422   3.731  13.753  0.2217  0.1236 -0.2185
46780W        W 3021   3.730  16.631   1.390  0.1394 -0.0021  0.0247
46781W        W 3022   5.292   2.383  20.583  0.0520 -0.2103 -0.2781
46782W        W 3023  17.222   5.643  20.010 -0.2295 -0.2303  0.0353
46783W        W 3024  19.120   9.313   6.609 -0.1103 -0.0034 -0.0404
46784W        W 3025   4.058  21.230  17.933  0.1831  0.2204 -0.2372
46785W        W 3026   8.312  18.057   5.456 -0.1291  0.0242  0.0971
46786W        W 3027  33.130  15.108   8.145 -0.0989 -0.0287 -0.4581
46787W        W 3028  19.765  32.567  23.507 -0.1963 -0.0696 -0.1598
46788W        W 3029   9.592  29.468  25.299 -0.1524 -0.2959  0.2960
46789W        W 3030   5.879  12.575   3.512 -0.3632  0.0163  0.1189
46790W        W 3031  24.111   2.302  16.612 -0.3204 -0.0726  0.1568
46791W        W 3032   6.071  20.556  25.640  0.0627  0.1360  0.2801
46792W        W 3033   1.652  13.325  25.153  0.0564  0.1052  0.0739
46793W        W 3034  27.776   3.163  25.600  0.0940 -0.0779  0.3407
46794W        W 3035  15.653  20.203  24.468 -0.1811 -0.1695 -0.0260
46795W        W 3036   4.779   7.756  22.290 -0.2038 -0.1606 -0.1154
46796W        W 3037  28.152  34.649  23.358 -0.1793 -0.2837 -0.0174
46797W        W 3038   7.812  20.215   9.907  0.1378 -0.0476 -0.1083
46798W        W 3039  28.258  17.128   9.851  0.0241  0.2314 -0.4971
46799W        W 3040  24.401   7.299  17.366  0.1382  0.0968 -0.4406
46800W        W 3041  28.013  35.379   3.302  0.1755  0.0100 -0.2309
46801W        W 3042  21.367   1.419  16.613 -0.2023  0.1637 -0.1595
46802W        W 3043   4.916  31.797  25.132  0.1471  0.1373 -0.0214
46803W        W 3044   7.231  15.913  20.435 -0.5019 -0.0587  0.0281
46804W        W 3045   7.117  19.137  21.247  0.0965 -0.1950  0.3167
46805W        W 3046  19.472  30.878  21.187 -0.0780  0.1337  0.2257
46806W        W 3047   9.254  11.852   5.834  0.1922  0.0069 -0.0418
46807W        W 3048   8.707  14.791  12.359 -0.1481 -0.0886 -0.5004
46808W        W 3049  18.081  32.199   5.563 -0.0572 -0.0865  0.1310
46809W        W 3050  18.653   9.413  24.112 -0.4060 -0.0014 -0.0848
46810W        W 3051  18.724  24.836  11.112 -0.0369 -0.1574  0.1571
46811W        W 3052  15.958   0.558   3.130  0.3517 -0.2044 -0.6027
46812W        W 3053   9.747  12.069   2.557 -0.0138 -0.2028 -0.0313
46813W        W 3054  27.621   3.810  19.420 -0.1173  0.0089  0.1573
46814W        W 3055   1.114  27.379   4.327 -0.0696  0.1652  0.0247
46815W        W 3056  32.876  34.968  14.780  0.0993 -0.0281 -0.0801
46816W        W 3057   7.700  22.268  22.029 -0.2480 -0.2174 -0.0630
46817W        W 3058  28.361   1.959  24.282 -0.1452  0.0950  0.0295
46818W        W 3059   2.208  21.398  13.922  0.0436 -0.1178  0.3412
46819W        W 3060   2.805  29.420  22.870  0.0001  0.2260 -0.1530
46820W        W 3061  20.245  29.405  17.915  0.1144 -0.0426 -0.3269
46821W        W 3062  13.651  30.886   2.098  0.1237 -0.1472  0.0602
46822W        W 3063   4.867   4.425  20.236  0.0824 -0.5591 -0.0983
46823W        W 3064   9.996   6.735  19.342 -0.0962 -0.0381  0.0761
46824W        W 3065  29.710   6.599  19.155  0.2770 -0.2779  0.3337
46825W        W 3066  35.360  12.559  21.785  0.0544 -0.0005  0.3617
46826W        W 3067  31.925  22.495   9.808 -0.1538  0.1227  0.0768
46827W        W 3068  18.040  27.170  24.971  0.4975 -0.0784 -0.1426
46828W        W 3069  23.420   1.470  18.378  0.0153 -0.0864  0.0856
46829W        W 3070   3.142  27.379   0.431 -0.2638 -0.1283  0.1205
46830W        W 3071  26.595   5.441  20.282  0.0604  0.1597 -0.1601
46831W        W 3072  15.358  18.896  13.090 -0.0875  0.0244 -0.0900
46832W        W 3073  33.816  31.037  23.866 -0.1808  0.2066  0.0506
46833W        W 3074  20.110  32.809   4.550 -0.0919  0.2202  0.0716
46834W        W 3075  19.145  17.441   1.331 -0.1615  0.0532 -0.0646
46835W        W 3076  14.273  31.507  25.491 -0.0964 -0.3454 -0.0622
46836W        W 3077  35.129   1.192  13.759 -0.0497  0.1220 -0.0086
46837W        W 3078  12.736   7.062   3.724 -0.3547 -0.1762 -0.1659
46838W        W 3079  17.482  19.161  22.531 -0.1196 -0.3858 -0.3637
46839W        W 3080   9.629  26.982  11.396  0.1634 -0.1327  0.1411
46840W        W 3081   4.168   4.390   1.196 -0.1515  0.1552 -0.0457
46841W        W 3082   5.789  11.339   9.580 -0.1865 -0.0838 -0.1110
46842W        W 3083   9.437   5.024  10.627 -0.3857 -0.1282 -0.0967
46843W        W 3084  21.820  20.967  17.946 -0.2206  0.2173  0.2641
46844W        W 3085  23.711  16.543  12.654  0.2541  0.1793 -0.2019
46845W        W 3086  26.654   2.656  24.959 -0.1876  0.1532 -0.0248
46846W        W 3087   4.880  26.030   4.236  0.3125  0.1587 -0.1065
46847W        W 3088  22.984   1.466  19.460 -0.1291  0.0333  0.1403
46848W        W 3089   7.769  24.002   1.181 -0.0741  0.0716  0.0348
46849W        W 3090  34.360  31.767  17.661 -0.0301 -0.1305 -0.0492
46850W        W 3091   2.346   7.452  22.454  0.2322  0.1180  0.0269
46851W        W 3092   8.581  24.550  22.631 -0.2075  0.0722 -0.2903
46852W        W 3093  14.818  28.622  22.343  0.1043 -0.2086 -0.1183
46853W        W 3094  30.819   9.384  23.226 -0.1174 -0.2106  0.3321
46854W        W 3095  18.151   0.218   5.656  0.1197  0.0196 -0.2781
46855W        W 3096  14.066   5.064  25.057 -0.0341 -0.1892  0.1389
46856W        W 3097  22.684   0.148   5.337 -0.0375 -0.5284 -0.3238
46857W        W 3098  15.706   3.277  21.699 -0.1849  0.1626 -0.2360
46858W        W 3099  19.867  15.843   1.290 -0.1100 -0.0657 -0.0877
46859W        W 3100   5.186   2.906  18.660  0.0597  0.0361 -0.2654
46860W        W 3101  24.975  26.077  21.553 -0.2985 -0.1546 -0.1862
46861W        W 3102  31.829  29.017  11.310 -0.1130 -0.2910  0.0474
46862W        W 3103  23.429   3.698  15.858 -0.2830 -0.1113  0.0358
46863W        W 3104  31.034  27.988  12.223  0.0463  0.4255 -0.1675
46864W        W 3105  19.110  28.275   2.040  0.5649 -0.4212 -0.0917
46865W        W 3106   7.512  15.029  17.860  0.1578  0.2042 -0.2349
46866W        W 3107   5.075   1.544   4.697  0.3177  0.4078  0.1133
46867W        W 3108  11.805  19.949   2.686  0.0835  0.1319  0.2198
46868W        W 3109  17.753  10.762   0.998 -0.0957 -0.2041 -0.2081
46869W        W 3110  26.216  21.695  20.901 -0.0137 -0.0669 -0.2218
46870W        W 3111  15.154   6.294  24.604  0.2252 -0.4327 -0.4151
46871W        W 3112  31.697   1.009  18.116  0.0659  0.1174  0.1520
46872W        W 3113   8.305  25.137  12.822 -0.1866 -0.2829  0.2397
46873W        W 3114   9.202  23.260   9.870 -0.4194  0.1597 -0.0000
46874W        W 3115  20.270  17.385  20.247 -0.1400  0.1325 -0.0009
46875W        W 3116   8.142   8.088  25.430 -0.0838 -0.0472 -0.0890
46876W        W 3117   6.709   4.785  19.805 -0.1383 -0.2066  0.0222
46877W        W 3118  17.639  21.727  11.552 -0.0903  0.0972  0.0012
46878W        W 3119  10.155  16.993  12.512 -0.2158 -0.1374 -0.1111
46879W        W 3120  11.750  17.605   9.873  0.1237  0.1137  0.1843
46880W        W 3121  15.367  14.668   4.145  0.0145  0.3141 -0.0477
46881W        W 3122   9.867  29.822   0.974  0.0610 -0.0138  0.2232
46882W        W 3123  15.240   8.843   2.710  0.0800 -0.1492 -0.1508
46883W        W 3124  13.858  17.181   3.654  0.1003 -0.0946 -0.2401
46884W        W 3125  20.814  11.925   0.073 -0.1387 -0.1623  0.4713
46885W        W 3126   0.833  24.130  18.729 -0.0703 -0.1467  0.2204
46886W        W 3127  31.999  11.623  23.901 -0.0490  0.0692 -0.0108
46887W        W 3128   4.437   9.126  20.029 -0.1506  0.2079 -0.0815
46888W        W 3129  29.128  30.780  21.620  0.0204 -0.0712 -0.0177
46889W        W 3130   2.310   4.074  14.887 -0.0114 -0.1019  0.2619
46890W        W 3131   7.865  23.075  23.384 -0.3224 -0.3179 -0.0222
46891W        W 3132  18.620   5.558  20.502  0.0045 -0.3198 -0.0556
46892W        W 3133   6.896  15.280  10.587 -0.0882  0.2041  0.1729
46893W        W 3134  22.949  30.576  18.599  0.1023  0.1198 -0.0454
46894W        W 3135  20.790   8.783  23.591 -0.1062  0.0854  0.1776
46895W        W 3136   7.868  14.197  18.176  0.1113  0.4323  0.0435
46896W        W 3137  12.416   7.719   6.093 -0.1982  0.2995 -0.1191
46897W        W 3138  29.580  33.599  21.666 -0.1156  0.1840  0.0222
46898W        W 3139   5.033  26.824   9.092 -0.3866  0.0382  0.0999
46899W        W 3140   0.441   2.442   1.738  0.1744 -0.2425  0.1133
46900W        W 3141   5.388   1.963  20.383 -0.2860  0.1243  0.1517
46901W        W 3142   8.034  21.374   2.711  0.0056  0.1697  0.1986
46902W        W 3143   9.886  29.662   7.679 -0.3749 -0.3381  0.1152
46903W        W 3144  24.732  10.134  15.513  0.3247  0.0917 -0.1221
46904W        W 3145  34.216  16.219  22.448  0.1242  0.0602 -0.2051
46905W        W 3146  24.825  12.572  20.984 -0.2702  0.1228 -0.1326
46906W        W 3147  21.451  35.175  14.288 -0.1135  0.0180  0.0400
46907W        W 3148  28.733  20.166  15.308  0.1858 -0.1288  0.0909
46908W        W 3149  27.418  28.044   0.513  0.0974 -0.1833 -0.3340
46909W        W 3150   9.352   0.891   6.746 -0.3832 -0.0205  0.3538
46910W        W 3151   3.846  33.025  24.538  0.2130  0.4512  0.0197
46911W        W 3152  13.146  16.433  13.511  0.1661  0.0818  0.2793
46912W        W 3153  26.709  33.728   0.816 -0.0838 -0.0565  0.1677
46913W        W 3154  20.745  14.331  19.238  0.0698  0.2042  0.0873
46914W        W 3155  20.636  10.967  16.477 -0.1425  0.2768 -0.1944
46915W        W 3156  20.729  33.623   6.980 -0.1274  0.6225  0.0306
46916W        W 3157   2.889  26.789   9.060 -0.0380 -0.0601  0.1525
46917W        W 3158  28.983  29.361  14.702  0.0297  0.1430 -0.2254
46918W        W 3159  18.470  15.976  18.033  0.0202  0.0337 -0.0770
46919W        W 3160  19.624  20.566  20.275 -0.1905  0.0282 -0.2285
46920W        W 3161  11.199  30.528   6.601  0.0184  0.0232 -0.1457
46921W        W 3162  22.279   0.052  19.877  0.4026  0.1809 -0.3301
46922W        W 3163  16.394  30.197  10.149  0.2235  0.1358 -0.0893
46923W        W 3164   7.103  26.301  25.418 -0.0700 -0.0457  0.0478
46924W        W 3165  23.367  20.435  15.128  0.1029 -0.1016  0.0145
46925W        W 3166  19.282  10.513   3.194 -0.0245  0.2887  0.1145
46926W        W 3167  29.160  20.866  19.293  0.1351 -0.0065 -0.0269
46927W        W 3168  30.155  19.044   6.360  0.2731 -0.2424 -0.2554
46928W        W 3169  26.990  32.291  25.804  0.0152  0.4180 -0.0177
46929W        W 3170   4.857   6.842  18.853  0.0476 -0.0424  0.1029
46930W        W 3171  22.201  23.628   1.577 -0.0762 -0.0967 -0.2426
46931W        W 3172  13.741  34.031  10.856  0.0905 -0.2877 -0.2050
46932W        W 3173   3.616  27.842   3.573 -0.0185  0.0659 -0.0891
46933W        W 3174   3.888  34.454   0.995 -0.3742 -0.0292  0.0485
46934W        W 3175  34.061  33.619   6.206  0.0272 -0.2121  0.0997
46935W        W 3176  22.376  21.398  20.940  0.3155  0.0270  0.0459
46936W        W 3177  11.386  10.555   8.223 -0.0812 -0.1037 -0.1045
46937W        W 3178   8.756  20.005   4.367 -0.0287 -0.1864 -0.0275
46938W        W 3179   9.624   6.720   6.900 -0.0700 -0.0067 -0.0508
46939W        W 3180   9.591   6.089   1.673  0.1152  0.1074 -0.0568
46940W        W 3181   8.169  13.508  19.369 -0.0381  0.0265  0.1252
46941W        W 3182   2.928  19.138   2.479  0.0069 -0.1407  0.0982
46942W        W 3183  18.419   5.601  12.022  0.0814 -0.4918 -0.0068
46943W        W 3184  18.411  19.579   2.935 -0.3539 -0.3507  0.0124
46944W        W 3185  20.297   1.184   4.401  0.0702  0.3037  0.0648
46945W        W 3186   3.854  19.991  17.870 -0.1964 -0.1574  0.0727
46946W        W 3187   7.215  12.099  17.796 -0.0279 -0.2022 -0.3319
46947W        W 3188  29.360  30.207  15.034 -0.4343 -0.0198  0.2647
46948W        W 3189  20.092   7.814  20.272  0.1219 -0.1535  0.2819
46949W        W 3190   9.128   3.368   2.604 -0.1038  0.2980 -0.0043
46950W        W 3191  14.439  13.244   3.279 -0.1448 -0.1661 -0.2407
46951W        W 3192   4.658   6.503   3.911 -0.0789 -0.0848 -0.0603
46952W        W 3193  29.309   9.134   1.653  0.0512 -0.4167  0.1430
46953W        W 3194  12.351   5.201  24.092  0.2362 -0.3138 -0.0189
46954W        W 3195   3.026  22.994  24.311  0.3680  0.2018  0.1218
46955W        W 3196  29.659   8.171  19.030  0.1933 -0.3399 -0.1097
46956W        W 3197   8.357   5.013   0.462 -0.0890  0.0167  0.3126
46957W        W 3198  23.788   1.327   4.258 -0.0465 -0.0421  0.0946
46958W        W 3199  31.629  20.294  25.506  0.2696 -0.0896  0.2178
46959W        W 3200  12.173   1.986   6.897  0.0108 -0.2942  0.1590
46960W        W 3201  11.095  30.382  15.286  0.2543 -0.2597  0.0416
46961W        W 3202   0.612   7.706  22.849 -0.0036 -0.0259  0.0513
46962W        W 3203   9.512  23.708   3.307 -0.0411 -0.0883 -0.0077
46963W        W 3204  10.732  13.912  25.499 -0.1906  0.1161  0.2775
46964W        W 3205  12.848   7.154  11.109  0.0070  0.0957 -0.1072
46965W        W 3206  20.474   5.695   8.431  0.0170  0.0446 -0.1817
46966W        W 3207  29.828  30.046   0.368  0.0376 -0.1378  0.0463
46967W        W 3208  16.217  19.977  11.583  0.0034 -0.0397 -0.1387
46968W        W 3209  27.294  20.484  25.478 -0.1215  0.0613 -0.3354
46969W        W 3210  30.766  23.342  23.136 -0.0251 -0.0312  0.0596
46970W        W 3211  18.256  14.599   5.769 -0.0809 -0.1073 -0.2470
46971W        W 3212  29.843   1.110   7.151  0.0825 -0.2133  0.0414
46972W        W 3213  25.428  28.870  22.559  0.2530  0.0321 -0.1387
46973W        W 3214   9.928  28.864   4.141 -0.0280 -0.0668  0.1579
46974W        W 3215  17.093  10.067  21.961  0.0397 -0.2795  0.0904
46975W        W 3216  24.410  23.274  21.115  0.0249  0.0559 -0.0583
46976W        W 3217  20.220   2.428   1.666  0.0999  0.1882  0.0394
46977W        W 3218  32.813  30.895   0.674  0.1082  0.4073 -0.2235
46978W        W 3219  30.789  18.336  12.438 -0.2055  0.0813 -0.0740
46979W        W 3220  25.116   0.215   1.708 -0.0401 -0.4993 -0.0473
46980W        W 3221  31.114  22.512  13.840 -0.0040  0.2692  0.0094
46981W        W 3222   8.915  21.525   0.257 -0.1558  0.0776 -0.0207
46982W        W 3223  10.834  17.920   1.927  0.0759  0.0100  0.0611
46983W        W 3224  13.385  17.499   5.601  0.1370 -0.2183 -0.1742
46984W        W 3225  28.095  21.938  24.608  0.1259 -0.0091 -0.2344
46985W        W 3226  28.444  15.746   6.973  0.1215  0.0152 -0.2450
46986W        W 3227  35.322   7.598  19.839 -0.0254  0.1779  0.0546
46987W        W 3228   9.241  33.870   3.391  0.0171  0.0836 -0.3357
46988W        W 3229  18.163  14.196  21.357 -0.1356  0.3676 -0.0992
46989W        W 3230  24.740   5.454  23.827  0.1606  0.0568  0.0201
46990W        W 3231  18.933  34.601  21.043 -0.2448 -0.0723 -0.1608
46991W        W 3232  30.999  11.706  10.695  0.0051  0.2958  0.1414
46992W        W 3233   1.792  34.648  20.633 -0.0843 -0.2632  0.0083
46993W        W 3234  18.599  20.625   4.984 -0.2149  0.2029 -0.2570
46994W        W 3235   0.053  13.236  17.939 -0.1268 -0.2197  0.0265
46995W        W 3236  32.911   9.683  20.652  0.2877 -0.2921 -0.1711
46996W        W 3237  26.889  11.129  13.518  0.0148 -0.4089 -0.2594
46997W        W 3238   2.331  31.265  18.746 -0.0173  0.4269 -0.0753
46998W        W 3239  24.385  30.404  18.887 -0.0240 -0.1621 -0.2728
46999W        W 3240   3.016  32.206  20.846 -0.0511 -0.1530 -0.3014
47000W        W 3241  31.968  27.503  11.493  0.1210  0.0075 -0.1486
47001W        W 3242   2.871  19.840  14.422  0.3770  0.1737  0.0785
47002W        W 3243  25.987  11.244  18.095 -0.1181 -0.0275 -0.2206
47003W        W 3244  29.379  13.552   6.537 -0.2037  0.0689 -0.3159
47004W        W 3245  23.327  10.733  14.833 -0.0238 -0.0359 -0.1907
47005W        W 3246  34.591   2.185  25.759 -0.0169 -0.2132  0.1070
47006W        W 3247   0.924  29.568  20.654  0.1258 -0.0868  0.0910
47007W        W 3248   2.987  32.083   0.420 -0.1044 -0.3186  0.3623
47008W        W 3249  26.096   3.354   1.317 -0.3268  0.1657  0.2005
47009W        W 3250  19.789   0.820   9.176  0.0745  0.0543 -0.1243
47010W        W 3251  12.085  28.193   8.489  0.2005 -0.0729 -0.2151
47011W        W 3252  14.927  29.839   1.818  0.0062 -0.2730 -0.1191
47012W        W 3253  11.750   3.151  22.576 -0.0610  0.0508  0.1983
47013W        W 3254  22.870  21.287  25.506  0.2596  0.0312  0.0143
47014W        W 3255  13.941  19.918  12.803  0.4750  0.2148  0.0001
47015W        W 3256  19.715   0.146  20.135 -0.2699 -0.3078 -0.2516
47016W        W 3257   0.514  34.554  23.931 -0.1393  0.0516  0.1128
47017W        W 3258  22.316  23.659  24.273 -0.1421  0.2653  0.0742
47018W        W 3259   1.980  17.241  16.676 -0.1913  0.3025 -0.1458
47019W        W 3260   2.712  19.771  17.848  0.1243  0.1459 -0.0479
47020W        W 3261   5.557   9.872   0.090 -0.2265  0.1553  0.3201
47021W        W 3262   8.343  11.630  19.587 -0.1285  0.2756  0.0503
47022W        W 3263   5.041  15.790  22.460  0.1382  0.1473 -0.1249
47023W        W 3264  22.837   2.598  18.632  0.1900 -0.2044 -0.0953
47024W        W 3265  12.744  19.043   0.093 -0.1953  0.2290  0.0943
47025W        W 3266   3.255  20.383  18.617 -0.0291  0.0653  0.5983
47026W        W 3267  15.734  25.155  24.467  0.1000 -0.2656 -0.0661
47027W        W 3268  20.342  15.692  20.847  0.0845  0.1923  0.0138
47028W        W 3269  24.651  31.586  22.861  0.3934  0.1160  0.0862
47029W        W 3270  26.035  23.496  10.638  0.1381 -0.1558  0.0201
47030W        W 3271  32.742  29.247  12.652 -0.2876 -0.4194 -0.1516
47031W        W 3272  32.619  24.127  22.486 -0.0818  0.1125 -0.0949
47032W        W 3273  28.462  16.941   6.489 -0.0032 -0.2128  0.0296
47033W        W 3274  10.492  20.399   3.974  0.2928 -0.1192  0.3486
47034W        W 3275   4.331  19.896   1.772  0.0985  0.1782  0.0403
47035W        W 3276   1.291  25.320  24.768  0.4777 -0.1584 -0.1242
47036W        W 3277  32.381  31.261  25.122 -0.0360  0.0153 -0.1978
47037W        W 3278  28.913   7.065  16.227 -0.0534  0.0872 -0.2201
47038W        W 3279  10.659   2.847  23.954  0.0821 -0.4192 -0.2027
47039W        W 3280  25.764  25.944  12.567 -0.2730  0.0011 -0.2687
47040W        W 3281  26.194   1.605  18.933  0.0974 -0.2690  0.1336
47041W        W 3282   8.103  33.537   8.137  0.0428  0.2385 -0.1550
47042W        W 3283   7.818  27.741  15.539 -0.0259 -0.1709 -0.0303
47043W        W 3284  13.298  13.008   4.808 -0.4133 -0.0710  0.0585
47044W        W 3285   8.614   6.924   7.392 -0.0643  0.4574  0.1711
47045W        W 3286  32.356  10.402  22.285  0.0196  0.0824 -0.1606
47046W        W 3287  32.958  10.609  11.714 -0.1790 -0.0314 -0.1735
47047W        W 3288  16.518  19.222  25.579 -0.1731 -0.2529 -0.1637
47048W        W 3289  30.045  23.816   0.365 -0.0392  0.1332 -0.1626
47049W        W 3290  27.696  32.427  11.613  0.1219  0.0564 -0.2167
47050W        W 3291  31.315  15.241  13.213 -0.0598  0.0787 -0.1817
47051W        W 3292  24.419  20.204   0.112  0.1766  0.1191  0.0270
47052W        W 3293  31.514   1.091  21.146  0.1378  0.1338 -0.3025
47053W        W 3294   5.727   1.387   8.731 -0.1378 -0.0478 -0.1823
47054W        W 3295   6.327   0.228   5.317 -0.1234  0.2494 -0.0551
47055W        W 3296   8.167   9.382  10.788  0.0967 -0.0156 -0.1418
47056W        W 3297   8.764  11.034  25.929  0.1858  0.0059  0.2734
47057W        W 3298  11.347  14.736  12.541  0.1694 -0.0115  0.2511
47058W        W 3299  11.116   6.414   8.129 -0.0283  0.0557 -0.0109
47059W        W 3300  33.565   6.738   1.134 -0.2890  0.3695  0.2060
47060W        W 3301  30.735  32.350  15.841 -0.0884 -0.1400 -0.1465
47061W        W 3302   7.389   3.990  21.766  0.0959  0.0750 -0.0225
47062W        W 3303   8.539   3.783   9.995  0.3075 -0.3852  0.1484
47063W        W 3304  22.355  13.891   3.385 -0.1622 -0.3045 -0.0671
47064W        W 3305  28.653   5.170  14.908 -0.1341  0.0262 -0.4973
47065W        W 3306  28.253  28.003   9.525  0.1273 -0.1606  0.1438
47066W        W 3307  10.961  30.896  16.551 -0.0836  0.2147 -0.1063
47067W        W 3308  22.319  14.756  20.724 -0.1319 -0.0372 -0.0245
47068W        W 3309  24.840  24.043  25.855 -0.1410 -0.0101 -0.1672
47069W        W 3310   7.164  13.147  24.822  0.0045 -0.0511  0.2076
47070W        W 3311   3.024   7.776  16.100  0.0071 -0.0032  0.1920
47071W        W 3312  19.379  19.161   7.858 -0.4024  0.0910  0.0366
47072W        W 3313  31.841   8.991  15.693 -0.0946  0.1098 -0.0108
47073W        W 3314  28.157  19.316  14.689 -0.1599  0.3342  0.2282
47074W        W 3315  17.209   2.474  22.627  0.0141  0.0302  0.1328
47075W        W 3316  10.186  15.052   0.891 -0.1183  0.0840 -0.0894
47076W        W 3317   6.293   4.242  23.480 -0.3050  0.1321  0.0072
47077W        W 3318  20.988  16.428  22.052  0.0605 -0.3309  0.2003
47078W        W 3319   9.209   3.264  10.452  0.1686  0.0642 -0.2516
47079W        W 3320   0.985   8.511  13.483  0.2082  0.0533  0.2025
47080W        W 3321  24.459   3.155  15.322  0.0559 -0.2387  0.1095
47081W        W 3322  22.450  21.958  22.912 -0.0197  0.1329 -0.0326
47082W        W 3323  23.470  34.592   7.200 -0.4304 -0.0430 -0.0882
47083W        W 3324  34.169   1.329  23.375 -0.5203 -0.1501  0.3627
47084W        W 3325  11.266  13.785  23.191 -0.0050 -0.0330  0.1970
47085W        W 3326   0.440  34.731  18.552 -0.0433  0.1545  0.0063
47086W        W 3327  24.958  32.115  11.499 -0.1165  0.1538 -0.0297
47087W        W 3328  30.571  13.158  18.131 -0.3841 -0.2425  0.2801
47088W        W 3329   9.964  27.665   0.791  0.4932 -0.1408 -0.2700
47089W        W 3330   9.434  22.799   3.811 -0.1945 -0.2331  0.0996
47090W        W 3331  12.376  10.040  23.372 -0.0074  0.0047  0.3822
47091W        W 3332  12.319   6.496   8.242 -0.0329  0.0126 -0.1600
47092W        W 3333   3.506  24.936  25.527 -0.0842 -0.0848  0.3927
47093W        W 3334  24.300  10.524  17.750  0.0415 -0.1761 -0.1259
47094W        W 3335  12.352  13.240   5.193 -0.0937  0.3490 -0.0736
47095W        W 3336  29.189  33.531   2.938 -0.2550 -0.3306 -0.1438
47096W        W 3337   2.245  30.304   7.234 -0.4055 -0.1760 -0.2371
47097W        W 3338   9.437  27.922  11.833 -0.2040 -0.2595  0.0879
47098W        W 3339  13.067  27.226   2.575 -0.1897  0.2082  0.0790
47099W        W 3340   2.309  27.403  20.500  0.0660  0.0158  0.1191
47100W        W 3341  23.915  21.576  17.967 -0.0626 -0.1312  0.1737
47101W        W 3342  21.226  24.494  17.679 -0.3943  0.3388 -0.2433
47102W        W 3343  29.551  20.556  15.809  0.0154 -0.1794  0.0183
47103W        W 3344   1.469  28.993   7.591 -0.0888  0.0183  0.0685
47104W        W 3345  21.800  13.180  18.728  0.2021  0.1750 -0.1291
47105W        W 3346  29.346   3.467  19.417 -0.2088  0.0602 -0.1491
47106W        W 3347  28.421   6.301  20.882  0.0033 -0.1783  0.1063
47107W        W 3348  24.289  29.082  14.025  0.0452  0.0460 -0.2452
47108W        W 3349  28.995  18.905  17.034  0.1128 -0.0875  0.0469
47109W        W 3350  18.467   7.851  19.607 -0.1504  0.2704  0.0966
47110W        W 3351   7.824  33.853   3.207  0.1163 -0.0714 -0.1869
47111W        W 3352  30.187  28.762  21.011 -0.0784 -0.0260 -0.4081
47112W        W 3353   1.046   6.472   2.719  0.3141  0.2492  0.0358
47113W        W 3354  25.202   8.608   2.539 -0.0399 -0.2477  0.0924
47114W        W 3355  14.276  15.889  25.149 -0.1121 -0.3887  0.0823
47115W        W 3356   4.766  34.727  21.530 -0.0306 -0.1109 -0.1689
47116W        W 3357  25.643  27.792  12.371  0.0815 -0.3290  0.4928
47117W        W 3358   7.140  12.202   4.601  0.0271 -0.1137  0.3012
47118W        W 3359   4.693   2.781   1.706  0.2207  0.2215 -0.3264
47119W        W 3360  30.349  18.887  19.073  0.1463  0.1209  0.1140
47120W        W 3361  31.149  15.749  24.918  0.0732 -0.1028  0.2295
47121W        W 3362  21.899  33.706  13.988 -0.3125 -0.1479  0.0299
47122W        W 3363  19.025  13.024  21.808  0.1084 -0.0854  0.0934
47123W        W 3364   5.900  18.030   3.784 -0.3224  0.1212  0.0170
47124W        W 3365   2.898  32.654  20.532 -0.1691 -0.1428 -0.1386
47125W        W 3366  17.162  17.721  13.265 -0.1990  0.1771  0.0094
47126W        W 3367  22.055  31.440   5.265  0.0587 -0.0700 -0.2175
47127W        W 3368  30.118  23.078  14.573 -0.3210  0.0581  0.1562
47128W        W 3369   7.297  23.575   5.556 -0.2328  0.2106  0.0134
47129W        W 3370   8.517  15.136  24.691  0.2300  0.2774  0.2024
47130W        W 3371  26.632  22.863  15.972  0.1045 -0.2403 -0.0996
47131W        W 3372  20.075  26.715   6.539  0.0269 -0.0168 -0.2635
47132W        W 3373  10.442   0.974  24.027 -0.2414  0.0948 -0.3137
47133W        W 3374  22.326  24.543  23.265 -0.1001  0.1176 -0.1103
47134W        W 3375  10.771   0.787   4.460  0.0964 -0.1750  0.0807
47135W        W 3376  32.567   2.620  16.273  0.2202 -0.0033 -0.2363
47136W        W 3377  25.271  19.501  12.817 -0.1153 -0.0823  0.0924
47137W        W 3378   3.902  22.372  21.899 -0.0180  0.2698 -0.4526
47138W        W 3379   5.508  13.209   4.278  0.3765 -0.1763 -0.0196
47139W        W 3380   1.809  33.519  21.603  0.1165  0.0622 -0.1061
47140W        W 3381  23.019   8.789  20.629  0.2465  0.3300 -0.1329
47141W        W 3382   1.469  25.713  21.598  0.1270 -0.0132  0.0127
47142W        W 3383  17.543  25.658  12.556  0.1979 -0.4086 -0.0478
47143W        W 3384  32.913   4.441  12.042 -0.2404  0.1379 -0.0817
47144W        W 3385  23.518   2.283  24.352 -0.2359  0.1705  0.0972
47145W        W 3386   5.233  11.941  18.386 -0.0173  0.2781 -0.0822
47146W        W 3387   9.562  32.289   1.392 -0.0281 -0.3524  0.1855
47147W        W 3388  28.937   3.370  20.640  0.0264 -0.1879 -0.1805
47148W        W 3389  32.711  25.699  14.649 -0.1468 -0.0288  0.2149
47149W        W 3390  26.193  24.920  15.150  0.2754  0.1024  0.0157
47150W        W 3391  16.262  23.565   5.842 -0.0842  0.2548  0.1170
47151W        W 3392  31.532  35.117   1.502 -0.0126 -0.4577 -0.1151
47152W        W 3393   4.852   4.682   3.381 -0.3253  0.0800  0.0446
47153W        W 3394   1.105   0.449   4.637 -0.1253  0.1589  0.0303
47154W        W 3395  20.873  29.554  19.857 -0.0396  0.2514  0.1575
47155W        W 3396  11.839  20.431  23.930 -0.1440 -0.0951  0.2654
47156W        W 3397  23.789  18.783  21.864  0.1223  0.3533  0.2182
47157W        W 3398  25.424  12.926  16.792  0.1314  0.0098 -0.2425
47158W        W 3399   9.438   8.426  13.075 -0.0447  0.1065  0.1195
47159W        W 3400   0.955  32.009   9.323  0.1670 -0.1336 -0.2185
47160W        W 3401  12.370  12.959   7.070  0.2192 -0.0608  0.1386
47161W        W 3402  15.504  14.148   4.239  0.0865 -0.2191  0.2611
47162W        W 3403  22.951  16.890  22.801 -0.0181 -0.1072 -0.0747
47163W        W 3404  32.036   4.238   1.215 -0.0566  0.1453  0.3745
47164W        W 3405   1.296  16.431  16.973  0.1049 -0.0406  0.2838
47165W        W 3406   0.077  19.612   1.777  0.0072  0.0839  0.2534
47166W        W 3407  13.693  26.849  14.028  0.1805  0.1845 -0.0194
47167W        W 3408  13.955  20.445   6.110 -0.0499  0.2203 -0.3582
47168W        W 3409  15.454  20.966  26.127  0.0306 -0.2626  0.0149
47169W        W 3410  31.819  20.371  13.144  0.1151 -0.2305  0.0845
47170W        W 3411  29.537  34.082  15.983 -0.1158  0.2539 -0.0012
47171W        W 3412  26.844  12.051  21.802  0.1296 -0.2819 -0.1868
47172W        W 3413  14.791  10.042   2.785 -0.1371 -0.2318 -0.0755
47173W        W 3414  23.987  10.909  17.872  0.2815  0.1586 -0.0723
47174W        W 3415   1.605  19.517  20.442 -0.0859  0.0569 -0.2468
47175W        W 3416  32.337  25.524  19.361  0.1885  0.0960 -0.3384
47176W        W 3417   2.539   2.980   3.397  0.0857  0.1915  0.1970
47177W        W 3418   0.375  34.502  22.061 -0.1675  0.1549 -0.2780
47178W        W 3419   7.840   2.770  23.718  0.2582 -0.3227 -0.0050
47179W        W 3420   1.141  12.483  13.918 -0.0763 -0.0043  0.0171
47180W        W 3421  12.949  18.942   8.448  0.4074 -0.0722 -0.1771
47181W        W 3422   9.332  18.054  14.066  0.0732  0.2735  0.0843
47182W        W 3423  12.951   5.352   1.513  0.0721  0.1387  0.2238
47183W        W 3424   0.128  26.062  21.457  0.2806  0.1089 -0.1339
47184W        W 3425   5.016  20.107  21.086 -0.2991 -0.1834 -0.0414
47185W        W 3426   9.382  27.945  23.442 -0.3444  0.1385 -0.1948
47186W        W 3427  10.199  26.647   7.704  0.1398 -0.2253  0.0684
47187W        W 3428  19.998  24.069  18.924 -0.0388  0.1469 -0.1426
47188W        W 3429  28.963   0.087  13.231 -0.2740 -0.2905 -0.1427
47189W        W 3430  14.159   4.180   8.705  0.2607 -0.0998  0.4121
47190W        W 3431  16.586  16.351  23.992 -0.0297 -0.0323 -0.2278
47191W        W 3432  13.877   6.221   8.346  0.2382 -0.2286  0.1572
47192W        W 3433  28.962  22.021  20.149  0.0826  0.0883 -0.1356
47193W        W 3434  14.290  19.446   4.166 -0.2153  0.0577 -0.0186
47194W        W 3435  32.693  23.069   9.864 -0.1737 -0.0780  0.0328
47195W        W 3436   7.949  20.537   2.370  0.0601  0.2932 -0.0994
47196W        W 3437  10.697  13.638  11.839 -0.0328 -0.1723  0.0462
47197W        W 3438   1.726  22.324  12.319  0.0510  0.1093 -0.0395
47198W        W 3439  14.512   5.767  22.419  0.0832  0.1051 -0.2489
47199W        W 3440   4.589   8.544  26.232 -0.0614  0.1129  0.0486
47200W        W 3441  32.919  14.835  20.262 -0.0091  0.1410 -0.1631
47201W        W 3442  14.667  29.470   9.327 -0.1253  0.0277 -0.4277
47202W        W 3443  33.376   9.230  19.469 -0.3752 -0.1100 -0.2251
47203W        W 3444  10.325  15.544   2.060 -0.0431  0.0163 -0.0118
47204W        W 3445  22.769  14.922  18.076  0.3283  0.3569  0.0285
47205W        W 3446  28.640  14.841  10.539 -0.1360 -0.0320  0.1464
47206W        W 3447   4.878  24.524   9.513 -0.2878 -0.2762  0.1849
47207W        W 3448   3.270  30.418  22.291 -0.0065  0.1907  0.2345
47208W        W 3449  22.626   6.281   0.837  0.1861 -0.2264 -0.0274
47209W        W 3450  11.918  11.825  10.122 -0.0759 -0.1775 -0.1906
47210W        W 3451  17.362  14.773   9.122  0.2501  0.0075  0.3676
47211W        W 3452  24.687   3.571  21.601  0.0671 -0.1085  0.1245
47212W        W 3453   4.568  28.467  12.358  0.1178 -0.1881 -0.0446
47213W        W 3454  13.667   2.400  20.407  0.1040  0.0144 -0.1127
47214W        W 3455   2.002  27.941  19.967  0.1457  0.0708 -0.0090
47215W        W 3456  25.750  12.932  19.292 -0.3083 -0.0603  0.5770
47216W        W 3457  18.495  33.017   8.284 -0.0657 -0.1368 -0.0035
47217W        W 3458   5.479  35.355   5.500 -0.0166  0.1964  0.0230
47218W        W 3459  12.511  19.265  25.518  0.0173 -0.1872  0.1401
47219W        W 3460  15.713  15.284   8.287  0.3018 -0.1915  0.2485
47220W        W 3461   4.583   3.492   9.412  0.0874  0.4976 -0.1615
47221W        W 3462  34.027  14.740   9.457 -0.1349 -0.0138 -0.1449
47222W        W 3463  27.132  31.785  18.576 -0.3404 -0.0409 -0.0197
47223W        W 3464   5.762   6.392   8.630  0.1991 -0.1202 -0.0541
47224W        W 3465  26.852  32.504  22.129 -0.2316  0.1475 -0.0865
47225W        W 3466   0.918   7.349   6.377 -0.3085 -0.1988 -0.2965
47226W        W 3467  12.487  18.108   1.226 -0.2313  0.2866  0.1995
47227W        W 3468  10.822  23.004  24.545 -0.1846 -0.2683  0.3909
47228W        W 3469  21.188   9.384   5.971  0.1717 -0.2356 -0.3558
47229W        W 3470  20.824  32.763   3.059  0.3418 -0.1530 -0.0468
47230W        W 3471   0.724   7.050  12.790  0.2022 -0.0625 -0.0634
47231W        W 3472  30.725  34.571  16.660 -0.3995  0.3402  0.1292
47232W        W 3473  12.269   0.142   5.721 -0.3048 -0.0156 -0.1306
47233W        W 3474  32.702   2.666  24.262  0.2184 -0.2531 -0.0253
47234W        W 3475  14.687  19.805  10.681  0.2086  0.0629 -0.1713
47235W        W 3476   5.726  27.143   3.309  0.0526 -0.5058 -0.0248
47236W        W 3477  30.126   8.584  16.045 -0.0590 -0.2155 -0.2217
47237W        W 3478  15.049  32.412  25.202  0.0013  0.1096  0.0173
47238W        W 3479   2.566  12.024  13.350 -0.3774 -0.0984  0.2109
47239W        W 3480   0.077  32.606  22.353 -0.0968  0.3781 -0.0902
47240W        W 3481  15.030  31.101  22.490  0.2923 -0.0002  0.3221
47241W        W 3482  20.075  17.891  25.939  0.1714 -0.1389  0.0230
47242W        W 3483  11.786  12.941   9.578 -0.1276 -0.2024 -0.1946
47243W        W 3484   5.887  14.234   3.276 -0.1665 -0.3696 -0.2650
47244W        W 3485  27.858  22.937  19.404  0.1136 -0.0097  0.1092
47245W        W 3486  26.951  15.581  24.178 -0.1306  0.1035  0.1432
47246W        W 3487  24.270   7.633  23.654  0.0415 -0.0419  0.1938
47247W        W 3488   2.220   2.797   7.080  0.0798 -0.1174  0.0659
47248W        W 3489   3.999  17.673  15.575  0.0250  0.0967 -0.3093
47249W        W 3490  26.357  17.862  19.660 -0.1472  0.0573 -0.2632
47250W        W 3491   8.998  29.100  21.495  0.1933 -0.3998  0.0824
47251W        W 3492  30.465   5.532  24.686 -0.3428 -0.0664  0.0924
47252W        W 3493  24.731  31.976  21.884 -0.0913  0.1606  0.1376
47253W        W 3494   5.601  34.190  12.196  0.0203  0.2659 -0.0288
47254W        W 3495  27.076  34.176  15.942  0.2221  0.2700 -0.0309
47255W        W 3496   3.298   9.593  22.721  0.0442 -0.1533  0.0829
47256W        W 3497  25.285   2.457  17.851  0.3061 -0.0176 -0.0053
47257W        W 3498  21.146  10.453   7.691  0.1019  0.2278 -0.1347
47258W        W 3499  27.880  17.289  20.669 -0.1560  0.0214  0.1237
47259W        W 3500   4.994  26.196   2.822 -0.0706 -0.0508  0.0170
47260W        W 3501  22.966  24.793  17.283  0.3620  0.1022  0.1805
47261W        W 3502  31.719  31.763   1.397  0.1562 -0.1924 -0.0606
47262W        W 3503   8.747  22.583   8.981 -0.1413 -0.0723 -0.0556
47263W        W 3504  10.678  22.950  16.443 -0.0110  0.0130  0.3271
47264W        W 3505  28.944  14.262   9.108  0.3422  0.2440 -0.0539
47265W        W 3506  12.186  17.943   7.157  0.0352 -0.4917  0.4094
47266W        W 3507  12.069  35.186   6.063 -0.0568 -0.4355  0.1246
47267W        W 3508   5.398   9.236   6.936  0.2064 -0.1411  0.0337
47268W        W 3509  34.266   4.884  24.031 -0.0818  0.1008 -0.2465
47269W        W 3510   6.922   7.141   2.597  0.0436  0.0051 -0.4292
47270W        W 3511  13.915  24.307   0.686  0.1606  0.3239  0.2057
47271W        W 3512  22.170   7.594   0.875  0.3904 -0.1593 -0.3138
47272W        W 3513  18.297  13.770  21.747  0.5225 -0.2068  0.1366
47273W        W 3514  11.167  27.594  21.869  0.2041  0.0420 -0.0556
47274W        W 3515  22.537  28.867  17.962  0.0136  0.1034 -0.3316
47275W        W 3516   4.121  31.801  23.036  0.3710  0.1904  0.0342
47276W        W 3517  19.962  24.583  24.237 -0.1422 -0.1919  0.0666
47277W        W 3518  27.242  22.435  14.839 -0.1274  0.2367  0.0472
47278W        W 3519  17.924  13.110   8.263  0.2049 -0.1223 -0.0036
47279W        W 3520   1.327  16.386  14.357  0.1094  0.1656  0.1947
47280W        W 3521  10.751  32.139  25.315 -0.4848  0.0913 -0.3373
47281W        W 3522  30.834   0.129  15.509 -0.0518 -0.2096  0.4112
47282W        W 3523  21.142   2.986  23.862 -0.1165 -0.5812 -0.0122
47283W        W 3524  24.694  23.857  19.350  0.0711  0.0822 -0.0670
47284W        W 3525  15.612   6.670  12.128  0.0434  0.2829 -0.2073
47285W        W 3526  32.222  18.466  16.783  0.2158  0.0434 -0.4391
47286W        W 3527  13.864  15.702  12.595 -0.0352  0.3489  0.1044
47287W        W 3528   9.490  18.457   1.506  0.1324  0.1138 -0.1961
47288W        W 3529  27.218   7.031  14.083  0.0690 -0.1515  0.0932
47289W        W 3530   5.918  17.724   5.311 -0.1269  0.1185 -0.1541
47290W        W 3531   9.665  22.752   7.802  0.2076 -0.3227  0.0280
47291W        W 3532  14.885  27.100  13.455 -0.1336 -0.2328 -0.3452
47292W        W 3533   3.424   0.999   1.968  0.1265 -0.0410 -0.1507
47293W        W 3534  27.018  14.020  17.513 -0.0057 -0.1266 -0.0716
47294W        W 3535  10.188  24.066   0.909 -0.1496  0.3105  0.0740
47295W        W 3536  23.968  30.632  16.714 -0.4017 -0.1245  0.0911
47296W        W 3537   3.005   3.030  20.081  0.0585 -0.0861 -0.0516
47297W        W 3538  29.581   7.864  10.712  0.1090  0.4060  0.1803
47298W        W 3539  29.196  16.852  13.056 -0.0714  0.0479 -0.1459
47299W        W 3540  32.917   3.305   5.643  0.2414 -0.2767 -0.0783
47300W        W 3541  12.873  11.991  21.857  0.0944  0.1171  0.1696
47301W        W 3542  27.118   3.492   4.893 -0.0648  0.1123 -0.1725
47302W        W 3543  15.015  22.272  10.973 -0.1423 -0.0939  0.0677
47303W        W 3544   3.532  33.808  18.798  0.2942  0.0739  0.1795
47304W        W 3545  32.825  27.398  21.125  0.2529 -0.1791 -0.2354
47305W        W 3546  26.515   6.197   3.192 -0.0471  0.1692 -0.3049
47306W        W 3547   2.650  19.082  13.375 -0.2339  0.0266 -0.0403
47307W        W 3548  16.131   0.009   5.696 -0.2243 -0.1166 -0.3202
47308W        W 3549  31.804   5.049  18.815  0.2027  0.0462 -0.0186
47309W        W 3550  10.790   1.567  14.931  0.0287 -0.1243 -0.0834
47310W        W 3551  17.675  17.308   5.581  0.0791  0.0390  0.1837
47311W        W 3552   6.374  12.298   7.188  0.1493  0.1367 -0.0893
47312W        W 3553  25.674   7.287   4.043 -0.0531 -0.0161 -0.0579
47313W        W 3554  24.692   0.767   3.654  0.4695 -0.2040 -0.1146
47314W        W 3555  16.365  10.620   4.407  0.2530 -0.3688 -0.3307
47315W        W 3556  33.046   9.073  23.004 -0.0791  0.0102  0.0354
47316W        W 3557   6.575   5.724   9.832  0.2238 -0.2351 -0.1023
47317W        W 3558   0.774  14.635  21.200 -0.2231 -0.1053  0.0511
47318W        W 3559   6.283  33.271  12.707  0.1826  0.0516  0.0400
47319W        W 3560  24.711  14.605  10.860 -0.0053  0.1066 -0.1689
47320W        W 3561   6.288  27.040  23.411 -0.1345  0.2297 -0.0874
47321W        W 3562  12.596  31.411  10.676 -0.1791 -0.3229 -0.0113
47322W        W 3563  20.215  13.254   5.508  0.0669 -0.0505  0.1965
47323W        W 3564  29.975  18.135   9.061  0.1447 -0.6825  0.2148
47324W        W 3565   1.140  16.556   9.805 -0.4290 -0.0554 -0.4636
47325W        W 3566   7.671   8.279  13.203  0.0001 -0.3100 -0.1237
47326W        W 3567  31.700  35.206  15.393 -0.3003  0.0275 -0.3183
47327W        W 3568  35.137  21.563  22.411 -0.1265  0.1619  0.2167
47328W        W 3569  10.588  18.809   3.087  0.2426  0.1426 -0.0787
47329W        W 3570  20.128   0.630   2.546 -0.1229 -0.1682 -0.4060
47330W        W 3571  15.277  16.816  21.874  0.4887 -0.3231  0.0053
47331W        W 3572  20.308  26.659  21.233  0.3666 -0.2163 -0.0788
47332W        W 3573  20.789  21.920   3.964 -0.3094  0.1319 -0.1481
47333W        W 3574   9.671  32.531   2.833  0.0112 -0.0922  0.2322
47334W        W 3575  26.111   1.021  16.906 -0.0587 -0.4406  0.0578
47335W        W 3576  21.912   7.849   6.093 -0.1502  0.0701 -0.0917
47336W        W 3577   1.690  10.989  20.524  0.0237  0.1300  0.1102
47337W        W 3578  15.622  13.808   6.689 -0.1202 -0.3444  0.2090
47338W        W 3579  13.101  12.158   0.813 -0.1132  0.1998 -0.1656
47339W        W 3580   2.174   0.546   7.717  0.0138 -0.0642  0.3443
47340W        W 3581  29.397  23.211  21.659  0.0233 -0.1101  0.0292
47341W        W 3582  28.817  12.205  12.618  0.3615 -0.3341  0.0143
47342W        W 3583   6.772  29.140  12.555  0.0173 -0.1348 -0.0100
47343W        W 3584  30.242  30.067  22.748 -0.1739  0.0039 -0.2718
47344W        W 3585   8.060  14.613   7.116  0.1722  0.1208  0.1511
47345W        W 3586  11.767  33.902   2.620  0.2927  0.2429  0.2608
47346W        W 3587   3.865  19.502  24.325  0.1057  0.3041 -0.3244
47347W        W 3588   4.443  19.386  18.766 -0.2938 -0.2406  0.3601
47348W        W 3589  24.505  26.226   0.995  0.2786  0.3601  0.0345
47349W        W 3590  15.898  26.093   6.867 -0.2380  0.2896  0.1109
47350W        W 3591  14.021  22.848  26.233 -0.0967  0.2599  0.1354
47351W        W 3592  21.287  19.407  16.532  0.0134 -0.3802 -0.1628
47352W        W 3593  23.938   4.687  24.176  0.0218  0.0051 -0.1175
47353W        W 3594  17.000   1.421   4.558  0.1818  0.1003 -0.0204
47354W        W 3595  29.853   0.310  23.440  0.0757  0.2426 -0.0169
47355W        W 3596   7.378  11.110  18.343 -0.1827 -0.3121 -0.3057
47356W        W 3597  22.591  31.600   2.280 -0.0725 -0.1208  0.1956
47357W        W 3598  20.281   6.511  23.054 -0.0012  0.1594 -0.0331
47358W        W 3599  30.039  11.256   0.224 -0.1988 -0.3111  0.0788
47359W        W 3600  24.886   8.834  17.300  0.0498 -0.2155 -0.0804
47360W        W 3601   1.723  31.366   1.497 -0.0799 -0.1657  0.2713
47361W        W 3602  22.351  12.338  23.083  0.1894  0.5445 -0.2003
47362W        W 3603   2.665  14.640  26.126 -0.1338  0.2230 -0.3112
47363W        W 3604  27.591  31.846  10.151 -0.0253 -0.0148  0.0797
47364W        W 3605  22.604  19.766  15.318  0.0245  0.2103  0.1636
47365W        W 3606  15.989   7.488  11.253 -0.1200 -0.0084 -0.3244
47366W        W 3607   9.169  25.474   0.062  0.0355 -0.0846  0.1599
47367W        W 3608  23.530  31.276  24.049  0.2273  0.0000  0.0015
47368W        W 3609  31.494  15.119  17.877  0.2375 -0.2103 -0.2799
47369W        W 3610  20.655  28.553  20.156 -0.0243  0.0653  0.0252
47370W        W 3611  19.544   6.599   8.694 -0.1434  0.1286 -0.1041
47371W        W 3612   2.225   9.069  15.471 -0.0238 -0.0743 -0.3474
47372W        W 3613   7.233   2.420   8.062  0.0351 -0.0560 -0.2951
47373W        W 3614  29.382  29.151  13.104 -0.1707 -0.0916  0.3291
47374W        W 3615   4.848   0.408   6.094  0.1111 -0.2604  0.2255
47375W        W 3616   6.768  16.964   4.781 -0.0613 -0.1423 -0.0738
47376W        W 3617  24.046  33.009  16.038  0.1462  0.1304  0.0826
47377W        W 3618  12.090  12.817  26.086  0.3229  0.3021 -0.1381
47378W        W 3619   4.722   2.629   6.806 -0.1048  0.1864  0.0058
47379W        W 3620  16.753   0.859  16.897  0.0775 -0.0863 -0.1385
47380W        W 3621  17.215  20.545  20.423 -0.1451 -0.3126 -0.1273
47381W        W 3622  30.050  30.622  11.634 -0.1380  0.0619  0.1681
47382W        W 3623   9.957  23.404  22.620  0.2284 -0.0360  0.0125
47383W        W 3624   7.313  31.997   2.909 -0.2254 -0.3099  0.3519
47384W        W 3625  30.473  32.871  14.679  0.1081  0.0454 -0.3119
47385W        W 3626   7.612  28.865  25.891 -0.0852 -0.4372  0.0115
47386W        W 3627   1.608   5.610  22.366  0.0082  0.1705  0.0526
47387W        W 3628   5.559  25.377  20.172 -0.1753  0.2584 -0.0261
47388W        W 3629   9.259  28.204   0.108 -0.0918  0.0755  0.0516
47389W        W 3630  12.445  14.384   8.728  0.0822 -0.4013  0.0624
47390W        W 3631  12.229  26.008  14.021  0.2122  0.1460  0.3298
47391W        W 3632   5.159   4.892   5.358 -0.0002  0.1141  0.0762
47392W        W 3633  16.290   0.693  20.533  0.0539 -0.0667  0.0911
47393W        W 3634  10.901   4.533  20.758 -0.3482 -0.0051 -0.2851
47394W        W 3635   0.214  33.967  19.746  0.2891 -0.1924 -0.1926
47395W        W 3636  22.101  28.549  21.923 -0.4589  0.0030  0.1511
47396W        W 3637  25.148   8.101   0.460  0.0363 -0.2486  0.2136
47397W        W 3638  18.102  15.064   7.509  0.0109  0.2461  0.0549
47398W        W 3639  32.944  14.934  16.785  0.0217 -0.4556 -0.0225
47399W        W 3640  27.773  25.584  12.323 -0.1814  0.1697  0.0170
47400W        W 3641  27.253  14.377  16.828  0.3221 -0.0182  0.1639
47401W        W 3642  34.043   7.323  23.158 -0.1607 -0.0941 -0.1835
47402W        W 3643  16.763  21.927   3.587  0.0573  0.1698  0.1058
47403W        W 3644  19.715   6.287  17.856 -0.3133 -0.0895 -0.3041
47404W        W 3645  18.699  10.331  10.932 -0.3640  0.0034 -0.0850
47405W        W 3646  23.042   2.882  20.634 -0.3015 -0.0261  0.1875
47406W        W 3647   6.601  25.874  25.778  0.0977  0.0921 -0.4603
47407W        W 3648  26.571  15.903  13.512 -0.1770  0.0160 -0.2096
47408W        W 3649  28.704   2.785  19.435  0.2325 -0.4150  0.0608
47409W        W 3650   2.012   5.056  24.033 -0.2573 -0.0916 -0.0486
47410W        W 3651  14.758  16.782   0.552  0.2622  0.0806 -0.4665
47411W        W 3652   0.267   1.738   0.541 -0.1431 -0.1446 -0.4492
47412W        W 3653  22.263   9.672  15.486  0.3760 -0.2480  0.1513
47413W        W 3654   2.032  16.787  25.974 -0.0779  0.0158  0.1295
47414W        W 3655  34.618  10.960  18.781  0.0148 -0.1921 -0.1429
47415W        W 3656  13.924  33.356  11.301 -0.4253 -0.1428  0.1713
47416W        W 3657   6.582  22.987   1.707  0.2143 -0.1080  0.3077
47417W        W 3658  32.178   1.702  14.370 -0.1004 -0.0950  0.2516
47418W        W 3659  21.543   6.275  21.579  0.2043  0.3058 -0.1388
47419W        W 3660  30.462  23.927   6.899  0.2789  0.2594 -0.0126
47420W        W 3661   8.794  14.053  22.316  0.0826  0.2033 -0.2755
47421W        W 3662  32.624  13.735  12.527 -0.0219 -0.0426 -0.2034
47422W        W 3663   5.356   9.455  18.271  0.1879  0.2232 -0.3123
47423W        W 3664  17.497  33.426   5.382  0.2797  0.2650  0.1866
47424W        W 3665  10.105  25.825  22.290  0.0880 -0.2662 -0.1138
47425W        W 3666  16.334   7.360   1.212  0.2895  0.1609  0.0893
47426W        W 3667  18.655  26.802  25.665 -0.1507  0.0040  0.2646
47427W        W 3668  15.232   8.908   9.235 -0.0014  0.0010 -0.1288
47428W        W 3669  29.856  25.674   1.988 -0.0237 -0.0909 -0.0761
47429W        W 3670   0.194  16.023  17.930 -0.0417 -0.1005  0.3218
47430W        W 3671  16.382  22.788  24.239 -0.1672  0.1364 -0.1552
47431W        W 3672  21.445  13.806  19.156 -0.1154  0.0452 -0.0104
47432W        W 3673  26.975  21.501  26.012 -0.0783 -0.0082  0.0870
47433W        W 3674  20.793  31.289   2.404 -0.0168 -0.2176 -0.1958
47434W        W 3675  17.818  35.142  18.379  0.1518  0.2356 -0.0616
47435W        W 3676   7.275  28.064  11.282 -0.2941 -0.2045 -0.1711
47436W        W 3677  17.534  26.030  21.123  0.0471  0.0574 -0.0382
47437W        W 3678  23.477  29.289  25.352 -0.0157 -0.1670 -0.0551
47438W        W 3679  19.477  14.869  21.598  0.2594  0.0772  0.0721
47439W        W 3680  19.832  22.684   6.175  0.4633  0.0775  0.4863
47440W        W 3681  25.082   6.516  17.661 -0.0592 -0.0620 -0.3352
47441W        W 3682   2.890   3.987  21.100 -0.0822  0.1515  0.0759
47442W        W 3683  13.774  29.345  15.821  0.2285 -0.4066  0.3300
47443W        W 3684  11.729   2.992  23.229 -0.0211 -0.1890  0.2170
47444W        W 3685  31.494  17.275  11.187 -0.0152 -0.1219 -0.0373
47445W        W 3686  19.706  20.647  21.768 -0.0372  0.0483  0.0913
47446W        W 3687  16.368  21.900  14.856 -0.1021 -0.1619 -0.1943
47447W        W 3688  10.396  30.325  10.185 -0.1973 -0.0271  0.2259
47448W        W 3689   9.126  20.920  23.175 -0.0033  0.0643 -0.2525
47449W        W 3690  21.603  14.360  25.407  0.0509  0.2485  0.0665
47450W        W 3691  15.848  21.281  26.044  0.0279  0.0076  0.0745
47451W        W 3692  26.085  32.406   5.846  0.0943 -0.2246 -0.0578
47452W        W 3693  10.408  24.310   5.303  0.1277  0.3855  0.4320
47453W        W 3694   9.217  30.776  25.236 -0.1893 -0.0042 -0.0054
47454W        W 3695   8.438  25.291   0.981  0.0029  0.2165  0.0814
47455W        W 3696  17.050  31.548   0.166 -0.0810  0.0254 -0.1109
47456W        W 3697  25.349  23.200  12.653  0.1574  0.1950 -0.1241
47457W        W 3698  26.349  21.498  18.814  0.0594  0.3104  0.1629
47458W        W 3699   9.567  22.429   2.777 -0.3006  0.3741  0.0595
47459W        W 3700  31.797  20.998   9.840  0.2417  0.2178  0.1009
47460W        W 3701  34.133   6.873  14.006  0.2713 -0.0222  0.3852
47461W        W 3702  27.899  31.220   5.384 -0.0065 -0.2681  0.2248
47462W        W 3703  12.251   3.757   4.427 -0.0596 -0.1703 -0.0884
47463W        W 3704   7.511  12.125  24.225 -0.0141 -0.1220 -0.0461
47464W        W 3705  27.514  25.348  15.800 -0.2544 -0.0194 -0.4225
47465W        W 3706   5.826  17.983   4.844  0.1558 -0.0684 -0.1839
47466W        W 3707  32.829  16.413  20.722  0.0180 -0.0670 -0.1086
47467W        W 3708  23.886   3.854  16.713  0.0515  0.2462  0.0304
47468W        W 3709  23.547   5.581  21.908 -0.0208 -0.2275  0.3194
47469W        W 3710  22.318   5.821   8.550 -0.0812  0.2878  0.2410
47470W        W 3711  20.713  32.719  19.028  0.4216 -0.0345  0.1058
47471W        W 3712   8.510  34.641  22.191  0.1814 -0.2052  0.1236
47472W        W 3713  11.316   6.532   2.487 -0.0519  0.2692  0.0577
47473W        W 3714   3.941  17.422  18.324  0.1228  0.1852 -0.0986
47474W        W 3715  33.244  29.399  19.620  0.1740  0.3117  0.1211
47475W        W 3716  11.767  28.891   5.162  0.3037 -0.0700  0.3904
47476W        W 3717   5.475   2.683  21.955 -0.1720 -0.0686 -0.1760
47477W        W 3718  15.581   6.314  21.467 -0.1322 -0.0294  0.0258
47478W        W 3719   2.317  16.961  22.471 -0.0482  0.0476  0.2532
47479W        W 3720  22.328  28.187  23.740  0.3046 -0.1119 -0.1735
47480W        W 3721  31.425   2.114  23.689  0.0622  0.0662 -0.0679
47481W        W 3722  30.537  24.667  10.831 -0.1081 -0.2656 -0.0327
47482W        W 3723  35.077   3.920   1.431 -0.0243  0.4670 -0.1673
47483W        W 3724  35.383  31.317   0.403  0.0427 -0.0112  0.0668
47484W        W 3725  17.033   6.268   1.749  0.1224 -0.2667 -0.1745
47485W        W 3726  25.094   9.733  21.194  0.0442  0.0363  0.1229
47486W        W 3727  26.243  31.642  16.052 -0.0266  0.2031  0.0219
47487W        W 3728  30.876  17.739  18.793 -0.3332  0.0561 -0.0572
47488W        W 3729  25.647  34.664   4.368 -0.2583  0.1962 -0.2542
47489W        W 3730  32.177  29.945  23.200 -0.0391 -0.1121  0.3613
47490W        W 3731  25.922  16.914  17.891 -0.0772  0.0409  0.1380
47491W        W 3732  22.428  24.030  23.350  0.0585  0.0775 -0.0926
47492W        W 3733  12.355  25.810   9.526 -0.0758 -0.0031  0.0936
47493W        W 3734  12.093   6.857  12.175 -0.0615  0.0314  0.2081
47494W        W 3735  29.895  30.874   1.657 -0.2163  0.0983  0.2971
47495W        W 3736   2.739  22.892  16.762 -0.0362  0.0474 -0.0326
47496W        W 3737  15.970  15.723   0.406 -0.1721  0.0158 -0.0183
47497W        W 3738  11.914   9.396  12.016 -0.2467  0.1465 -0.1617
47498W        W 3739   0.901  25.727   5.158  0.0987 -0.5715  0.3569
47499W        W 3740  34.708   4.601  23.999 -0.0867  0.2485  0.1842
47500W        W 3741   2.218  16.487  13.397 -0.1127  0.0077  0.0452
47501W        W 3742   5.795  29.528   1.726  0.0132 -0.0874 -0.0346
47502W        W 3743   0.541  31.889   2.982  0.3492 -0.1729  0.4713
47503W        W 3744  26.406  21.921  19.135  0.1395  0.1199  0.1486
47504W        W 3745   0.091   9.581  12.582  0.0499 -0.0605  0.1444
47505W        W 3746  17.211   3.523  24.816 -0.0950 -0.0653  0.2415
47506W        W 3747  12.207  16.187  19.626  0.0255 -0.1933 -0.0824
47507W        W 3748  24.080  24.685  24.530 -0.0253 -0.1996  0.0754
47508W        W 3749  11.892   2.034   4.308 -0.0383  0.1322  0.1761
47509W        W 3750  12.420   6.520   4.400 -0.2533 -0.0273 -0.0133
47510W        W 3751  15.817  20.929  25.553  0.0417  0.2022 -0.2232
47511W        W 3752   7.239  26.745   2.021  0.3824  0.1745  0.1155
47512W        W 3753  14.673  10.984   3.254  0.0999 -0.2719  0.1382
47513W        W 3754  16.544  29.742   6.998  0.2849  0.0681  0.1232
47514W        W 3755  21.404  29.756  16.694  0.1484  0.3432  0.1673
47515W        W 3756  11.741  14.340   9.874 -0.0533  0.0554 -0.0939
47516W        W 3757  20.426  27.493  20.938  0.0826  0.1766  0.0405
47517W        W 3758  15.673  30.709  11.235 -0.0479  0.2908  0.1136
47518W        W 3759  16.782  19.883   7.245 -0.0837  0.1012  0.1255
47519W        W 3760   0.321  11.741  11.702 -0.1268  0.0097  0.1179
47520W        W 3761  10.152  32.391  13.131 -0.0683 -0.0295  0.0662
47521W        W 3762  17.751  24.138  20.000 -0.0084 -0.3014  0.1008
47522W        W 3763   9.559   7.140  11.177  0.0608 -0.3404 -0.1128
47523W        W 3764  15.149  13.038  22.902 -0.0033 -0.0518  0.0519
47524W        W 3765  35.024  27.177   1.057 -0.4012 -0.1777 -0.0139
47525W        W 3766  26.278   7.031  18.431  0.0861  0.0924 -0.4509
47526W        W 3767  21.117  29.086   4.081 -0.1199 -0.1056  0.2433
47527W        W 3768   4.737   6.832   9.503  0.1398  0.2184 -0.0186
47528W        W 3769  32.772  17.063  11.056 -0.0805 -0.1671  0.1486
47529W        W 3770   8.437  22.167  14.934 -0.2120 -0.2923 -0.1256
47530W        W 3771  13.145  12.892  12.978  0.2724  0.0555 -0.0339
47531W        W 3772  33.198  24.305  11.110 -0.1017 -0.3186 -0.1554
47532W        W 3773  32.935   3.424   3.930 -0.0462 -0.0038  0.0837
47533W        W 3774   7.726   0.987  11.196 -0.1642 -0.0178 -0.2065
47534W        W 3775  33.300  18.350  18.467 -0.1813 -0.1199 -0.2873
47535W        W 3776  16.854  32.027   5.140 -0.0587  0.3123  0.0363
47536W        W 3777  24.888   5.759  15.649  0.1105  0.0843  0.2765
47537W        W 3778  21.344  24.839  22.117  0.0246 -0.0979  0.0181
47538W        W 3779   5.224  14.288  26.203 -0.3744  0.1295 -0.2434
47539W        W 3780  17.824   1.565   5.940 -0.1390 -0.1643 -0.3773
47540W        W 3781  33.022   0.061  14.824  0.0253 -0.1680 -0.0365
47541W        W 3782   3.398   2.538   7.951 -0.2795  0.0438  0.0611
47542W        W 3783  29.379   1.309  12.648  0.0550 -0.0253  0.1219
47543W        W 3784  13.063  19.678  26.162 -0.1191  0.1626 -0.2983
47544W        W 3785  19.518  34.864  24.862 -0.2402  0.1533  0.0902
47545W        W 3786  16.048   2.475  16.872 -0.1052  0.0534  0.2215
47546W        W 3787  11.412  18.085  23.321 -0.0671  0.1713  0.1374
47547W        W 3788  21.339  20.560   6.885  0.1792 -0.2336 -0.1395
47548W        W 3789  30.542  19.019  15.452  0.2973 -0.0022  0.0345
47549W        W 3790   5.626  22.718   0.819 -0.1228  0.1093 -0.4325
47550W        W 3791  15.834  16.386  20.314 -0.1017 -0.1628 -0.0988
47551W        W 3792  19.304  26.163  21.375  0.0991 -0.2105 -0.0600
47552W        W 3793  30.914   2.856  20.298  0.2254 -0.3537  0.2200
47553W        W 3794  26.087  15.470  25.008 -0.0573 -0.0586 -0.1091
47554W        W 3795   3.695  21.292  15.625 -0.0725  0.0162  0.2416
47555W        W 3796  24.156  15.746  17.179  0.0800  0.1616 -0.1271
47556W        W 3797  34.602  20.644  25.379  0.0131  0.4164 -0.2112
47557W        W 3798  24.871  12.293  19.890  0.2135 -0.2293 -0.1391
47558W        W 3799  21.985   7.301   5.380 -0.2551  0.1737  0.0997
47559W        W 3800   5.235   0.392   1.661 -0.1914 -0.3268 -0.0816
47560W        W 3801  22.913  19.296  25.242 -0.1786  0.0785 -0.0291
47561W        W 3802  31.017  33.676   0.643 -0.3424  0.1543  0.1836
47562W        W 3803  20.973  35.287   8.510 -0.0767  0.1259  0.0768
47563W        W 3804  23.948   1.098  17.540  0.2329  0.1686  0.5423
47564W        W 3805  12.579  26.775  22.689 -0.1055  0.0812  0.1837
47565W        W 3806   5.934   2.964   4.953 -0.0321 -0.0529  0.2270
47566W        W 3807   1.260   3.801   7.277  0.1861  0.1490 -0.0824
47567W        W 3808  29.202  28.492  22.595 -0.1754  0.1665 -0.2626
47568W        W 3809   1.365  11.991  12.173 -0.0070 -0.4432 -0.0653
47569W        W 3810  13.114   1.980   6.073  0.2117 -0.0113  0.1267
47570W        W 3811  33.713  26.726  21.529 -0.0654  0.0128  0.0268
47571W        W 3812  28.052  30.318  12.867  0.0630  0.1238  0.1421
47572W        W 3813  16.215  12.513   7.294 -0.0104  0.0876 -0.3736
47573W        W 3814   2.856   1.950  22.973 -0.0087  0.1497 -0.3885
47574W        W 3815  20.670  10.898   6.298 -0.0553 -0.2482 -0.2722
47575W        W 3816  14.984  16.821   4.658  0.1728  0.1715 -0.1189
47576W        W 3817   2.210  32.415   8.964  0.0533 -0.1051 -0.0332
47577W        W 3818  14.933   1.522  11.723 -0.1903 -0.0939 -0.1489
47578W        W 3819  27.345  26.802  21.006  0.1450 -0.2746 -0.2719
47579W        W 3820   1.076   9.133  15.670  0.2506 -0.0189 -0.0462
47580W        W 3821  11.258  32.615  10.613 -0.0788  0.0274  0.3629
47581W        W 3822   8.578  28.800  13.165 -0.0558 -0.0918 -0.1689
47582W        W 3823  26.386   9.595   0.198 -0.1070 -0.0680  0.0952
47583W        W 3824  21.491  15.986  22.701 -0.2291 -0.2180  0.2022
47584W        W 3825  30.193  35.051   5.029 -0.0147  0.1766  0.0168
47585W        W 3826   9.431   2.201  25.016  0.3603  0.0845  0.2304
47586W        W 3827   8.815  30.018  25.372 -0.1037 -0.1032 -0.0624
47587W        W 3828   8.697  33.639   3.923  0.0883  0.2658 -0.0015
47588W        W 3829   1.003  12.098  23.858 -0.1873  0.0205  0.1356
47589W        W 3830  17.868  30.253   1.667  0.3110  0.2992  0.2393
47590W        W 3831  24.037  13.952  24.553  0.2426  0.0549 -0.2882
47591W        W 3832   0.355   5.830   2.489 -0.0317  0.0747 -0.4262
47592W        W 3833  18.967  12.569  18.580 -0.0646 -0.0913  0.1597
47593W        W 3834   5.274   1.747  24.205  0.3142  0.3012  0.2698
47594W        W 3835  25.635   1.673  12.143  0.0826 -0.1123 -0.2083
47595W        W 3836   4.090  12.030   3.354  0.0862  0.0260  0.2088
47596W        W 3837  11.814  31.412  15.037  0.0208  0.0013 -0.0754
47597W        W 3838  11.844  27.132   7.068  0.1368 -0.2501  0.1504
47598W        W 3839   6.752  31.477  25.172 -0.0252 -0.0044 -0.0799
47599W        W 3840  30.069  20.583   7.617  0.1089 -0.0021  0.1973
47600W        W 3841   5.874  18.947  20.625 -0.0665 -0.0868 -0.3756
47601W        W 3842  16.917  24.965  26.172 -0.1031  0.0073 -0.1389
47602W        W 3843  12.956  12.581  12.463 -0.1447  0.0317 -0.0659
47603W        W 3844  18.295  10.395  18.474  0.0503 -0.1630  0.2091
47604W        W 3845  35.148  29.018  24.098 -0.2388  0.0063  0.0106
47605W        W 3846   8.476  22.606  22.474 -0.0720  0.1811  0.2728
47606W        W 3847  35.262   1.592  24.781 -0.4521 -0.1269  0.0104
47607W        W 3848   8.906   6.484  25.706 -0.2309  0.0730  0.2134
47608W        W 3849  22.651  25.794   1.378  0.0159 -0.0644  0.0066
47609W        W 3850  17.349   1.938   4.152 -0.1292 -0.2952 -0.1777
47610W        W 3851   4.609  33.616   5.669  0.0349  0.1070 -0.6447
47611W        W 3852   2.381   6.067   3.812  0.2844 -0.0924 -0.0006
47612W        W 3853  27.117   4.229   4.503 -0.1220 -0.0352  0.0790
47613W        W 3854  34.144  27.924   2.412  0.2735  0.0077 -0.0870
47614W        W 3855  11.927  28.390   5.887 -0.0161 -0.0972 -0.3472
47615W        W 3856   1.665  23.433   3.680 -0.1771  0.2588  0.2058
47616W        W 3857  26.626  29.174   1.391  0.1225  0.4719  0.1422
47617W        W 3858  12.643  27.800  23.881  0.2874 -0.2460  0.0185
47618W        W 3859   3.884  28.065  25.223  0.1670 -0.0268  0.0734
47619W        W 3860  26.206  30.719  19.548  0.0179 -0.3384  0.3817
47620W        W 3861  30.060  13.938  24.921  0.3141  0.0730  0.3097
47621W        W 3862  19.054  32.707   2.812  0.0044  0.0867 -0.0901
47622W        W 3863  16.798   5.579   3.558  0.2513  0.1652  0.0483
47623W        W 3864  11.558  32.604   9.494  0.1663  0.0756  0.1104
47624W        W 3865   2.687  28.705   4.172  0.1927 -0.0839 -0.2396
47625W        W 3866   4.662  32.503  25.548  0.2769 -0.0120  0.0681
47626W        W 3867   5.505   4.810  24.078  0.0968 -0.0067 -0.0249
47627W        W 3868  28.485  27.800  26.165  0.1832 -0.2904 -0.3741
47628W        W 3869  31.395  26.391  20.307 -0.0620 -0.0285  0.0289
47629W        W 3870  30.296   2.733  11.571  0.1824 -0.0396 -0.1821
47630W        W 3871   6.013  10.388   2.880  0.3093 -0.0626  0.1459
47631W        W 3872   0.191  23.430  10.486  0.0622 -0.1832 -0.0400
47632W        W 3873   8.852  32.894  16.373  0.0322  0.1927 -0.0671
47633W        W 3874   9.111   6.927  20.418  0.0266  0.1076 -0.0993
47634W        W 3875  21.555   9.093   4.563 -0.1059  0.1153 -0.1573
47635W        W 3876  21.925  18.266  25.146  0.2735  0.1270  0.0750
47636W        W 3877   0.465  16.086  16.543 -0.3263  0.2651 -0.3158
47637W        W 3878  18.635   3.695  24.560  0.0107  0.4480 -0.1091
47638W        W 3879   6.626  30.576   5.075  0.1249 -0.3688  0.1445
47639W        W 3880  32.072  20.247  11.703 -0.2486  0.1506 -0.2465
47640W        W 3881  11.483   9.625  20.290  0.0151 -0.1052  0.0502
47641W        W 3882   0.260  31.944   3.685  0.0714 -0.0912  0.2244
47642W        W 3883  24.946  25.667   1.879 -0.0285  0.2500  0.1446
47643W        W 3884  31.564   8.482   0.702  0.3953 -0.0316  0.2689
47644W        W 3885  25.797   9.070  17.077  0.1382 -0.2455  0.1525
47645W        W 3886   3.138  18.502  16.836  0.1847 -0.1382 -0.2050
47646W        W 3887  32.326  14.635  25.912 -0.0361  0.0011  0.1448
47647W        W 3888  11.097   3.173   7.146  0.2423 -0.1970 -0.0995
47648W        W 3889  26.302  18.921  13.918  0.1587 -0.2450 -0.3276
47649W        W 3890   2.319  27.721   1.023 -0.1259 -0.1836 -0.0135
47650W        W 3891  14.229  21.084  24.399 -0.0601 -0.0781 -0.1613
47651W        W 3892   1.474  23.839   0.246 -0.0145  0.1313 -0.1994
47652W        W 3893  32.432   6.047  14.986  0.1024 -0.0165  0.0874
47653W        W 3894   3.215   0.494  20.475 -0.2578  0.0494 -0.3090
47654W        W 3895  29.212   8.132   1.400 -0.1289 -0.1652  0.0412
47655W        W 3896  13.073   1.905   2.043 -0.0428  0.1673 -0.0315
47656W        W 3897   0.871  14.304  14.421  0.1207  0.3800 -0.5353
47657W        W 3898  11.246  15.087   0.354  0.0542 -0.2918  0.0190
47658W        W 3899   2.170   2.178   4.793 -0.2543  0.0713  0.0384
47659W        W 3900  19.995  35.372  20.504  0.1283  0.0299  0.3456
47660W        W 3901  15.862  14.364  12.618 -0.0927 -0.3044 -0.2143
47661W        W 3902  33.148   1.743  15.406 -0.2345 -0.1939 -0.2135
47662W        W 3903   6.413  27.434   2.860 -0.0799 -0.0901  0.0616
47663W        W 3904  25.542  31.614  13.479  0.0568 -0.0409 -0.0953
47664W        W 3905   8.474   3.194   8.500  0.2182  0.1075 -0.2147
47665W        W 3906  27.569  14.455  14.343  0.0317  0.0193  0.2631
47666W        W 3907  33.376  21.497  25.731 -0.1832 -0.1042 -0.0354
47667W        W 3908  32.691   0.325  14.534 -0.0534  0.0341 -0.1713
47668W        W 3909   2.159  31.920   5.496 -0.1686 -0.1148 -0.0849
47669W        W 3910  24.951  26.456  14.331 -0.0132  0.2163  0.1829
47670W        W 3911  20.912   6.043   0.134 -0.3302  0.2031 -0.3349
47671W        W 3912  15.670  21.711   1.346 -0.0617  0.2342  0.0693
47672W        W 3913   4.371  14.998  25.788 -0.3408 -0.0632 -0.0783
47673W        W 3914   8.332  10.526  13.098  0.4654  0.2186 -0.4914
47674W        W 3915  34.007  13.484  17.910  0.1315  0.2302 -0.1649
47675W        W 3916  30.668  17.555  15.177 -0.1705  0.0731 -0.0532
47676W        W 3917   8.849  10.564   6.928 -0.1094 -0.3227  0.0317
47677W        W 3918  31.439  16.459  16.510  0.0862 -0.0012 -0.0077
47678W        W 3919  19.848  21.415  21.390  0.0684 -0.3362  0.1992
47679W        W 3920   3.153   6.313  16.947 -0.3080 -0.2865 -0.2417
47680W        W 3921  33.171  31.402  18.850 -0.1117 -0.0114  0.0358
47681W        W 3922   2.882   0.149   4.095 -0.0691 -0.0578  0.0600
47682W        W 3923  21.094   8.393  18.887 -0.0093  0.0768 -0.0725
47683W        W 3924  10.043   3.526   8.488  0.1315  0.1483  0.3770
47684W        W 3925  22.610   6.991  22.815 -0.2118 -0.2456 -0.1923
47685W        W 3926   7.859  15.279   2.174 -0.0717  0.1562 -0.1201
47686W        W 3927   2.698   2.135   6.457  0.1762 -0.1668  0.3408
47687W        W 3928   6.125  22.123   7.968  0.0831  0.1229  0.3615
47688W        W 3929   8.221   3.953   0.478  0.4958  0.0142  0.0587
47689W        W 3930  34.531  16.610  13.842  0.0483 -0.1846 -0.1201
47690W        W 3931  15.671   1.622  23.172 -0.1646  0.0211 -0.1091
47691W        W 3932  28.709  32.169  24.233 -0.3426  0.0460 -0.1959
47692W        W 3933  12.312  26.204   3.068  0.2254 -0.3206  0.1553
47693W        W 3934  20.481  15.454   4.887  0.2016  0.1561  0.2550
47694W        W 3935  26.182  20.033  24.249 -0.0574 -0.0519  0.3340
47695W        W 3936   4.463  11.643   0.672 -0.0150  0.1565 -0.0502
47696W        W 3937  13.122  16.696  11.360 -0.5495 -0.1701  0.0845
47697W        W 3938   0.909  28.909   8.368 -0.2603 -0.1307 -0.0714
47698W        W 3939  34.128  30.917  26.249  0.3185 -0.0737 -0.2801
47699W        W 3940  14.842   0.311  11.321 -0.0348  0.3220 -0.2968
47700W        W 3941  26.963  20.471  22.135  0.1239  0.0141 -0.0481
47701W        W 3942   8.679  25.851   0.300  0.1876 -0.4450 -0.1476
47702W        W 3943  12.396  12.914  23.483  0.0422 -0.0413  0.1159
47703W        W 3944  28.015  26.883   9.531  0.0039 -0.0709 -0.0422
47704W        W 3945  15.515  20.261   3.706 -0.0883 -0.1597  0.0456
47705W        W 3946  12.057  23.381   9.033  0.1029  0.1941 -0.2078
47706W        W 3947  25.770  32.175  20.531 -0.0202 -0.0846  0.0506
47707W        W 3948   6.726  22.143  21.213 -0.0814  0.1746 -0.2392
47708W        W 3949  31.395  14.471  10.665  0.0385  0.0710  0.0320
47709W        W 3950   9.480  30.202  21.031  0.1143 -0.0811 -0.0247
47710W        W 3951  23.032  26.203  13.181  0.0305  0.1959  0.1308
47711W        W 3952   6.228   5.114  26.219  0.0515 -0.1566 -0.0573
47712W        W 3953   1.267   6.971  23.034  0.2947  0.3390  0.1250
47713W        W 3954   8.022   4.530   0.445 -0.0038  0.0162 -0.0769
47714W        W 3955   4.911  13.070   6.218  0.0058 -0.0680 -0.0092
47715W        W 3956  35.135  27.586   6.771  0.1106  0.1724  0.0087
47716W        W 3957  29.982  10.366  15.941  0.1719  0.2349 -0.1378
47717W        W 3958  21.135  32.606  25.656 -0.0639 -0.0762 -0.1665
47718W        W 3959  28.114  16.775  24.380  0.1713 -0.1142 -0.0573
47719W        W 3960   2.436  24.866  23.877 -0.1081  0.1053 -0.1961
47720W        W 3961  17.310  32.808  22.195 -0.0989 -0.1655  0.1723
47721W        W 3962  32.843  17.911  14.922  0.3742 -0.1498  0.0058
47722W        W 3963  18.193  25.302  25.311 -0.0408 -0.1863 -0.3103
47723W        W 3964  29.979   0.244  25.756 -0.0556  0.1015 -0.1113
47724W        W 3965  26.998  10.610  24.120 -0.0290 -0.0332  0.2766
47725W        W 3966   6.216  27.859  15.171  0.0743  0.2658  0.0194
47726W        W 3967  12.765  11.822  23.371  0.0331 -0.0745  0.1663
47727W        W 3968  20.370  12.640   0.451  0.0192 -0.0425  0.2251
47728W        W 3969  27.701  21.875  11.277  0.0494  0.0772  0.0574
47729W        W 3970   3.863  10.766   1.510  0.0062 -0.1153  0.0750
47730W        W 3971  16.397  28.379  24.403 -0.3077 -0.3250  0.1812
47731W        W 3972  15.269   4.279   3.053 -0.2316 -0.1081 -0.4507
47732W        W 3973   1.661   1.302  19.135  0.0173 -0.0548  0.1341
47733W        W 3974   7.480   6.115  19.929  0.1619 -0.1712  0.1026
47734W        W 3975  30.626  20.633  19.358  0.1549 -0.0847  0.2281
47735W        W 3976  29.376  22.055  21.665  0.3246  0.1245 -0.0671
47736W        W 3977  32.990  29.599  20.766 -0.0711  0.6346 -0.0463
47737W        W 3978  31.192  23.578   6.406  0.0944 -0.1534 -0.1760
47738W        W 3979   1.230  22.810  23.711  0.0367  0.1486 -0.2229
47739W        W 3980  16.261  20.286  11.068 -0.1157 -0.1733  0.0352
47740W        W 3981   1.386  17.605   1.644  0.0416  0.1087 -0.1160
47741W        W 3982  11.807  20.210  21.605 -0.1203 -0.0284  0.2486
47742W        W 3983   4.968   0.912  23.719  0.0575  0.0386  0.1871
47743W        W 3984   1.072  15.756  25.177 -0.0117  0.0220 -0.2314
47744W        W 3985  29.488  29.836  11.996 -0.0873 -0.0190  0.1217
47745W        W 3986  14.451  21.154  11.659 -0.1432 -0.0785  0.0961
47746W        W 3987  14.217  27.274  12.690 -0.0317  0.0173 -0.1231
47747W        W 3988   8.042  12.063   2.516  0.0242  0.1702  0.2339
47748W        W 3989  29.287  15.117  19.134  0.1097 -0.1414  0.1021
47749W        W 3990  10.916  22.859   1.278 -0.0661  0.2975 -0.3395
47750W        W 3991  25.797   8.158  22.598  0.0512  0.2745  0.2407
47751W        W 3992   2.810   7.572  18.177 -0.2589  0.0134 -0.0817
47752W        W 3993  10.191   8.855   0.164  0.0124 -0.1828 -0.0347
47753W        W 3994  22.378  23.140   1.506 -0.0161  0.0206  0.1437
47754W        W 3995   8.502   3.139  21.854  0.0309 -0.0162  0.0198
47755W        W 3996  33.545  17.452  16.036  0.2116 -0.1245  0.0866
47756W        W 3997   4.328  16.188  23.147 -0.3217 -0.3361 -0.1586
47757W        W 3998   9.865   1.800  22.944  0.1053  0.0902  0.3931
47758W        W 3999  29.401  34.852   3.532 -0.1554  0.1473 -0.1071
47759W        W 4000   3.674  11.889  14.957 -0.0608  0.1339 -0.0495
47760W        W 4001   8.941  23.071   4.622 -0.2942  0.0191 -0.0719
47761W        W 4002  23.952  13.274  19.663  0.0772  0.3044  0.1938
47762W        W 4003  30.316  14.041  12.531  0.1512  0.0757  0.3835
47763W        W 4004  30.165  14.533  24.298  0.0924 -0.0144  0.2371
47764W        W 4005  26.088  20.491  18.032  0.1947 -0.0051 -0.1880
47765W        W 4006   8.728  30.143  15.734 -0.1062  0.5818  0.1745
47766W        W 4007  20.724   9.015   7.022  0.1986  0.0091  0.3838
47767W        W 4008  28.612  17.075   7.960  0.1268  0.0023 -0.1197
47768W        W 4009  21.800   1.281  19.971  0.2084 -0.2887  0.3368
47769W        W 4010  25.595  15.967   7.315  0.2518  0.2746  0.0919
47770W        W 4011  24.807  25.703  14.829 -0.4636 -0.1904 -0.1767
47771W        W 4012  31.967  28.059  19.552  0.0860 -0.0188  0.1422
47772W        W 4013  14.346   3.061   3.770 -0.0304 -0.0390  0.1052
47773W        W 4014  16.284  11.931  19.668  0.2438 -0.0379  0.1438
47774W        W 4015  10.148  10.428  10.989  0.1476 -0.1421  0.0126
47775W        W 4016   2.684  10.155   1.617 -0.0198  0.2356  0.2913
47776W        W 4017  28.070  13.264  21.990  0.0962 -0.3875  0.3438
47777W        W 4018  34.569  18.241  24.996  0.0840 -0.3311  0.0875
47778W        W 4019  26.728  23.834  20.551 -0.1375 -0.3159 -0.2554
47779W        W 4020   0.274  27.487   6.596  0.1816  0.0451 -0.0740
47780W        W 4021  20.453  24.950  17.686  0.1042  0.1725  0.1121
47781W        W 4022  27.129  31.134  15.864 -0.0696  0.0734 -0.0769
47782W        W 4023   1.029  12.970  22.817 -0.0533 -0.1469  0.0876
47783W        W 4024  32.134  22.512  15.654 -0.0079 -0.1254  0.0145
47784W        W 4025   9.589  13.947  21.571  0.1111 -0.0495 -0.0335
47785W        W 4026   0.357  18.217  11.933  0.5124  0.1248  0.1039
47786W        W 4027  16.865  32.288  21.044  0.1430  0.1795 -0.1807
47787W        W 4028   0.876   0.217  16.033  0.2045 -0.2893  0.2564
47788W        W 4029  33.629  18.184  13.118  0.1283 -0.1070 -0.0115
47789W        W 4030   0.500  24.374  23.778 -0.1465 -0.2171  0.0602
47790W        W 4031  11.691  10.394  13.126 -0.0074  0.1886  0.1989
47791W        W 4032   7.891   9.074  12.703 -0.0773  0.0687 -0.0398
47792W        W 4033  32.169   3.572  19.170  0.0779  0.0452 -0.1377
47793W        W 4034  30.335  24.353   7.330 -0.0595 -0.2711  0.0885
47794W        W 4035   3.664   9.860  16.703 -0.0097 -0.2355  0.0277
47795W        W 4036  19.352  18.504   0.707 -0.0650 -0.1000 -0.0802
47796W        W 4037   8.860   0.945   6.714  0.0902  0.4022  0.0395
47797W        W 4038  18.618  15.042  25.735 -0.0770 -0.0004  0.1883
47798W        W 4039   2.646  33.324  23.615  0.1872  0.1349  0.2100
47799W        W 4040  10.772   6.286  13.743  0.0375  0.1957 -0.0638
47800W        W 4041  13.748  18.054   2.231  0.1339 -0.1971  0.1949
47801W        W 4042  23.778  28.175  23.637 -0.3442  0.0484 -0.3264
47802W        W 4043  33.825  22.607  16.832  0.0196 -0.1015  0.1365
47803W        W 4044  10.958   6.088  12.069 -0.0009  0.1923 -0.0575
47804W        W 4045  12.389  34.869  21.345 -0.3958  0.1239  0.0038
47805W        W 4046  31.639  34.525  26.228 -0.1936  0.1493  0.1686
47806W        W 4047   7.977  35.307   2.111 -0.0461 -0.2163  0.2183
47807W        W 4048  25.545   2.819   2.619 -0.1145 -0.2121 -0.3768
47808W        W 4049  24.068  15.561  11.709  0.4704  0.0613  0.3513
47809W        W 4050   0.348   6.611   4.448 -0.0445  0.0452 -0.0972
47810W        W 4051  17.602   5.063   5.784 -0.0302 -0.1489  0.1005
47811W        W 4052   5.937   8.416  20.351 -0.0398  0.2292 -0.2275
47812W        W 4053  20.143   5.624  23.111 -0.0626 -0.1357 -0.1371
47813W        W 4054   6.012  12.021   2.064  0.1664 -0.0347 -0.1553
47814W        W 4055  19.602  24.331  22.881  0.0812  0.0798  0.0692
47815W        W 4056   2.047  27.807  19.093 -0.0503 -0.4436  0.4473
47816W        W 4057  20.347  27.135  22.251 -0.4286 -0.1753 -0.3006
47817W        W 4058  16.382   5.123  12.097 -0.1256  0.1489  0.2082
47818W        W 4059  32.968  12.017  13.121 -0.3851 -0.2932 -0.1798
47819W        W 4060  12.184  29.379   9.829  0.2481  0.1232 -0.0607
47820W        W 4061  12.742   8.933   8.448  0.0847 -0.1037 -0.3133
47821W        W 4062  20.378  27.386  24.738 -0.1581  0.0113  0.3198
47822W        W 4063  32.364  17.925   8.051 -0.0532  0.0822 -0.2215
47823W        W 4064  11.285  11.723   0.317 -0.0901 -0.1497 -0.1854
47824W        W 4065  34.457  19.850  13.275  0.3337 -0.1692 -0.1524
47825W        W 4066  23.632  14.325  13.572  0.2515 -0.3852  0.1880
47826W        W 4067  19.503  24.186   3.116 -0.1069  0.3695  0.0712
47827W        W 4068   7.387  24.298   5.493 -0.0763 -0.1353  0.0072
47828W        W 4069  15.604  24.240  14.413 -0.1351  0.2626  0.1891
47829W        W 4070  30.905  13.906  17.504  0.1418 -0.0238 -0.1881
47830W        W 4071   1.981   2.769  20.068 -0.4349  0.3127 -0.2054
47831W        W 4072   4.600  21.715   0.095  0.0415  0.1933  0.2317
47832W        W 4073  32.779   1.536   3.394 -0.0206 -0.0595 -0.0682
47833W        W 4074  14.948  10.799   8.328  0.0385  0.0841  0.2831
47834W        W 4075   9.155  16.454   5.334  0.0493 -0.0182 -0.0587
47835W        W 4076  14.879  19.183   7.864 -0.0210 -0.3019 -0.2584
47836W        W 4077  26.416  11.454   8.713  0.2854  0.0187 -0.1610
47837W        W 4078   5.310  25.785  10.785  0.2852  0.1439  0.0200
47838W        W 4079  27.360  22.080  14.510 -0.0456  0.1707  0.0812
47839W        W 4080   1.585  23.929   3.726 -0.4039 -0.0581  0.0555
47840W        W 4081  27.782  15.244  15.876  0.0911 -0.0024  0.3522
47841W        W 4082   2.354   6.631  18.236  0.1248  0.2484  0.2821
47842W        W 4083   8.511  18.086  10.662 -0.1820  0.2363  0.0438
47843W        W 4084  12.939  11.387   6.251 -0.1026 -0.1913  0.2296
47844W        W 4085  35.184  10.766   1.738 -0.0049 -0.0537 -0.0177
47845W        W 4086  10.695  25.491  12.040 -0.3247  0.0329 -0.5850
47846W        W 4087  34.480  30.462   5.780  0.1449 -0.1614  0.0580
47847W        W 4088   1.624  27.432   6.452  0.0806  0.1123  0.1261
47848W        W 4089  19.506   9.446  17.496  0.2907  0.0401 -0.1047
47849W        W 4090  27.203  33.022   2.306 -0.0901 -0.0163  0.1748
47850W        W 4091  25.926  26.997  11.045 -0.3333 -0.2702  0.3969
47851W        W 4092   9.753  33.930  22.054  0.0807 -0.0196  0.0970
47852W        W 4093  32.202   0.357  20.188 -0.3846  0.1418 -0.0850
47853W        W 4094   9.310   5.353  13.310  0.0889 -0.0461  0.1643
47854W        W 4095   5.937  10.093  10.803  0.0467  0.1627 -0.1977
47855W        W 4096  13.840  22.652  12.480 -0.0051  0.0407 -0.2020
47856W        W 4097  18.006  33.570  17.684  0.0859 -0.0595  0.3725
47857W        W 4098  21.944   7.500  20.360  0.0530  0.0781 -0.2350
47858W        W 4099  26.615  20.381  16.818  0.1296 -0.2275  0.2651
47859W        W 4100  34.081   2.347   3.363 -0.1049  0.1561  0.1586
47860W        W 4101   5.538  15.682  23.292  0.1650 -0.1859  0.2247
47861W        W 4102   9.352  31.207   5.845  0.2730  0.2677  0.1481
47862W        W 4103  25.971  18.788  24.246 -0.0616  0.0513  0.0952
47863W        W 4104  19.917   5.329  16.542 -0.1065 -0.1828 -0.1593
47864W        W 4105  12.195  18.282  23.240  0.1464 -0.2486  0.0861
47865W        W 4106  18.594  22.502   1.672 -0.0821  0.1398 -0.0957
47866W        W 4107  29.239  18.945  23.481  0.1319  0.2525  0.1358
47867W        W 4108   5.924   0.887   3.640  0.1756 -0.0694  0.0596
47868W        W 4109   0.851   1.629   1.636  0.0115 -0.2178  0.3314
47869W        W 4110  15.411  17.496  11.852 -0.1399  0.3736  0.1114
47870W        W 4111  19.354  14.516   1.181  0.2333  0.0142 -0.3603
47871W        W 4112   4.994  31.497  20.540 -0.0927  0.1189 -0.0190
47872W        W 4113   8.234  24.924  23.666  0.1700  0.0572  0.1669
47873W        W 4114  33.692  29.192  25.468  0.0059 -0.1291  0.1007
47874W        W 4115  27.515   0.610  24.982 -0.1086 -0.0559 -0.0206
47875W        W 4116  25.239  32.916  19.822  0.1807 -0.2944  0.2524
47876W        W 4117  19.089   7.490   6.078  0.0588 -0.0343 -0.0363
47877W        W 4118  31.456  30.260  13.278  0.1295 -0.0911  0.1175
47878W        W 4119  12.619   7.323   0.280  0.0712  0.0303  0.0336
47879W        W 4120  15.740  24.981  11.143  0.0212 -0.2902 -0.0623
47880W        W 4121   6.522  20.589   4.306 -0.0637  0.1104 -0.0387
47881W        W 4122  17.646   6.885   2.907 -0.2805 -0.3329 -0.0047
47882W        W 4123   4.226  28.634   0.709 -0.3137 -0.0650  0.1870
47883W        W 4124  15.216  29.404   0.637  0.0463  0.1256 -0.0428
47884W        W 4125  27.012  33.601  23.898  0.0238  0.1459 -0.1317
47885W        W 4126  18.714  28.789  23.159 -0.0618  0.1031 -0.0299
47886W        W 4127  21.366   0.092  20.570 -0.0808 -0.1204  0.0265
47887W        W 4128   7.060  11.466  18.330  0.0450  0.2806  0.3091
47888W        W 4129  29.218  16.929  25.308  0.2669 -0.1662  0.0898
47889W        W 4130   3.925  18.664   2.832  0.3636  0.0224 -0.3313
47890W        W 4131  12.702  30.000  14.630  0.4425 -0.5117  0.1350
47891W        W 4132  29.907  30.846  22.238 -0.3300 -0.0752  0.0466
47892W        W 4133  27.488  18.548  16.117 -0.1864  0.1107 -0.1113
47893W        W 4134  19.134  18.976  22.666 -0.1811 -0.0651 -0.0253
47894W        W 4135  16.159  21.720  11.400  0.1536 -0.1845 -0.1034
47895W        W 4136  23.714   0.149  20.873 -0.0089  0.1644  0.0924
47896W        W 4137  33.393   8.240   0.054 -0.2015  0.2874 -0.0182
47897W        W 4138  10.368  33.777  14.846  0.1866  0.2847  0.0879
47898W        W 4139  16.583  27.235   8.326 -0.0374 -0.2779  0.1453
47899W        W 4140  24.258  27.952   0.294 -0.2435 -0.1514  0.2763
47900W        W 4141   1.479  24.413  16.424 -0.2170  0.0927 -0.2848
47901W        W 4142  19.416  26.581   0.028  0.2296  0.2428 -0.1052
47902W        W 4143  28.468   2.168  23.808 -0.1333  0.0891 -0.0882
47903W        W 4144  31.343  14.320  17.211 -0.0821  0.0305  0.1429
47904W        W 4145  13.460  23.905  10.493 -0.1895 -0.1629 -0.1917
47905W        W 4146  12.648  21.336  17.375 -0.1656 -0.0846  0.0787
47906W        W 4147  34.217  10.415  25.326 -0.0969 -0.1952  0.2539
47907W        W 4148  12.726   0.916  12.965 -0.1270 -0.1798 -0.2364
47908W        W 4149  11.677  13.552   3.202  0.3331  0.0975  0.0331
47909W        W 4150  33.730   2.403  12.085 -0.1587 -0.0516 -0.1711
47910W        W 4151   1.770  25.305  24.139  0.0408 -0.0526 -0.3521
47911W        W 4152  16.575  32.570  23.689  0.2690 -0.3252  0.2499
47912W        W 4153   6.685  10.103   4.789  0.2754  0.2105 -0.1611
47913W        W 4154   6.384  28.004   5.820 -0.0897 -0.0893  0.3728
47914W        W 4155  13.797   7.107  18.660 -0.1751  0.4579 -0.2715
47915W        W 4156  24.892   5.907  12.001 -0.1857 -0.1146 -0.4234
47916W        W 4157  22.913  33.665   5.520  0.0675 -0.0026 -0.2612
47917W        W 4158  24.351   3.570  17.511  0.0429 -0.0765  0.2617
47918W        W 4159   4.710  17.197  16.839  0.0884  0.3046 -0.1111
47919W        W 4160  20.095  10.405   3.599 -0.1922  0.0485  0.0690
47920W        W 4161  24.629  10.225  26.196 -0.4121  0.1558  0.1452
47921W        W 4162  18.298  12.475   8.892  0.0484 -0.1732  0.1365
47922W        W 4163   0.512   7.569  17.712  0.0940 -0.1744  0.0523
47923W        W 4164  12.677  26.865   5.928  0.0364 -0.1689 -0.0319
47924W        W 4165  20.452  24.626  18.200 -0.1931 -0.2084  0.1251
47925W        W 4166   6.937  16.252   8.506  0.1283 -0.3109  0.0916
47926W        W 4167  29.024  22.773  17.145 -0.2787 -0.0846  0.0320
47927W        W 4168   6.095  26.586   4.483 -0.1351  0.1874  0.0604
47928W        W 4169  33.567  17.396   8.361  0.0327 -0.3051  0.2529
47929W        W 4170   9.194  13.848  18.554  0.2369 -0.0023 -0.1321
47930W        W 4171  29.397  29.897  21.812 -0.2833 -0.0818  0.1325
47931W        W 4172  30.931  24.576   9.152 -0.0501  0.0910 -0.0994
47932W        W 4173  34.489   3.591   6.377 -0.0645 -0.1239  0.1325
47933W        W 4174   1.294  34.729   0.963 -0.0149  0.0018 -0.1432
47934W        W 4175  25.393   5.853   0.507  0.2483 -0.4099  0.2351
47935W        W 4176  27.061  32.320  13.554 -0.1290  0.0390 -0.0102
47936W        W 4177  27.626   2.745   4.813  0.1469  0.0329  0.0093
47937W        W 4178  10.954  24.607   7.386  0.0606 -0.0014 -0.0224
47938W        W 4179   5.823  19.065  23.062 -0.1568 -0.0482  0.0519
47939W        W 4180   1.373   2.717   5.233 -0.0927 -0.3514 -0.3188
47940W        W 4181   1.157  13.228  11.740  0.0761  0.4824 -0.1596
47941W        W 4182   9.575   1.522  25.558  0.2833  0.1202 -0.1551
47942W        W 4183  18.246  14.382   4.505 -0.1726  0.1390 -0.1349
47943W        W 4184  23.723  33.372  16.992 -0.1303  0.0146  0.1103
47944W        W 4185   9.257  16.273  11.680 -0.1967 -0.1374  0.0750
47945W        W 4186   9.463  34.061  22.661 -0.0306 -0.3138 -0.0702
47946W        W 4187  31.468  31.275  19.230 -0.3751  0.4438  0.0371
47947W        W 4188  31.947   5.842   4.600  0.0908 -0.1658 -0.1048
47948W        W 4189  29.860   6.293   3.031  0.0869 -0.1160 -0.1284
47949W        W 4190   2.896  23.950  25.410  0.0953  0.0269 -0.0179
47950W        W 4191  10.420  24.738  15.187 -0.1167 -0.2799 -0.0492
47951W        W 4192  23.779  30.267  13.649  0.1389  0.0853 -0.1555
47952W        W 4193   7.010  16.878  24.932  0.3718  0.0191  0.1214
47953W        W 4194  28.936   3.575  23.075  0.1310 -0.2482 -0.3011
47954W        W 4195  20.978  34.280  18.661  0.3825 -0.0783 -0.2811
47955W        W 4196  30.644  20.577  21.753  0.1102 -0.0574 -0.2359
47956W        W 4197  22.443  28.787  18.621 -0.2829  0.0051  0.2428
47957W        W 4198  33.906   6.455  16.946 -0.0944 -0.0053 -0.1489
47958W        W 4199  24.555  26.851  11.791 -0.1604 -0.4250  0.0292
47959W        W 4200  18.289   6.727  24.715 -0.3302  0.2995 -0.3569
47960W        W 4201   0.736  30.936   6.098 -0.2656  0.2939  0.0748
47961W        W 4202  18.357  33.940  24.764  0.2569  0.1694 -0.0592
47962W        W 4203  29.828  31.118   5.238 -0.1515  0.1587 -0.2533
47963W        W 4204   4.334   4.686  24.244  0.1678  0.2110  0.2030
47964W        W 4205  10.778   5.658  23.079 -0.1137 -0.1858  0.2668
47965W        W 4206  34.201   1.360  17.052  0.0523 -0.4083  0.0445
47966W        W 4207  19.659  11.680  19.810  0.0662 -0.1249 -0.2149
47967W        W 4208   1.244  12.681  11.893  0.1889  0.1478  0.0519
47968W        W 4209   4.693  21.070  24.511  0.0766  0.0594  0.1160
47969W        W 4210  34.953  25.040  18.241  0.1779  0.0685 -0.0116
47970W        W 4211   8.053   6.333  19.876  0.1769  0.0526  0.1222
47971W        W 4212  26.343  31.339  20.023 -0.2533  0.0997  0.2026
47972W        W 4213  34.290  34.950   6.574  0.1249 -0.2896 -0.0328
47973W        W 4214  26.308  22.994  22.748 -0.3632  0.0332 -0.1523
47974W        W 4215  23.025   5.289  26.133  0.1421 -0.2516 -0.0650
47975W        W 4216  28.818   1.672  22.866 -0.1099  0.3041 -0.0938
47976W        W 4217   0.853   5.020  19.618 -0.4016  0.2731  0.0482
47977W        W 4218   3.578  28.173  20.135 -0.2640  0.0211  0.0562
47978W        W 4219  19.748  34.015  24.457 -0.0421 -0.1070  0.1351
47979W        W 4220  27.160  20.001   9.639  0.0219  0.1786  0.1816
47980W        W 4221  16.712  32.749  20.724  0.1926 -0.0489  0.1444
47981W        W 4222  24.490  26.884   0.727 -0.0471  0.1726  0.0878
47982W        W 4223  35.225  19.616  24.899 -0.0639 -0.1084  0.0312
47983W        W 4224  21.139   3.639   7.086  0.0032 -0.2373  0.0060
47984W        W 4225  30.656  10.919  13.449  0.0364 -0.2820  0.0024
47985W        W 4226  26.280  12.494  17.932 -0.0533 -0.1152 -0.0817
47986W        W 4227  26.879  13.247  11.183  0.0444 -0.1131 -0.0000
47987W        W 4228  32.032  10.819  25.130  0.0127 -0.0502 -0.1307
47988W        W 4229   7.991   2.652   6.398 -0.0511  0.1396  0.1753
47989W        W 4230  32.156  20.038  17.003 -0.0683  0.0867  0.4935
47990W        W 4231  29.549  28.310  13.180  0.0893 -0.4251 -0.2022
47991W        W 4232  13.968  13.928   0.377  0.0344 -0.2149  0.0017
47992W        W 4233  14.771  31.184   9.483 -0.2230 -0.0578  0.1703
47993W        W 4234   9.260  34.350  14.359  0.0097  0.2010 -0.2338
47994W        W 4235  29.454  31.498  18.990  0.2692 -0.1736  0.0018
47995W        W 4236  28.421  11.292  22.481  0.2300 -0.1237  0.0156
47996W        W 4237  15.739  23.748  21.524 -0.1046 -0.0049  0.2327
47997W        W 4238  14.959  24.120   7.475  0.0116  0.2085  0.1722
47998W        W 4239  28.693  10.870  13.324  0.1262 -0.1907  0.1724
47999W        W 4240  16.860   9.073   5.199  0.3509 -0.0434  0.0244
48000W        W 4241  27.375   7.905  11.451  0.2336 -0.1301  0.3921
48001W        W 4242   3.920   6.125   9.043 -0.4508  0.3677  0.2636
48002W        W 4243  14.404  11.085  10.750  0.1745 -0.2469  0.0014
48003W        W 4244  12.832   9.522  20.008 -0.0498 -0.0729 -0.1140
48004W        W 4245   6.726  21.846  22.695  0.1637  0.2646  0.1532
48005W        W 4246   7.838  13.146  22.930  0.2018 -0.0098  0.3344
48006W        W 4247  16.042  25.327   6.597 -0.0651 -0.0049 -0.0036
48007W        W 4248   6.374  34.879  10.055 -0.2568 -0.3472 -0.3133
48008W        W 4249   7.668  26.158  23.660 -0.3768 -0.3967 -0.2087
48009W        W 4250   6.417   1.169  23.986 -0.1918  0.1415  0.0540
48010W        W 4251   3.624  10.068   0.082  0.1151  0.0583  0.1234
48011W        W 4252  25.911  15.693  14.946  0.1909 -0.1733 -0.5141
48012W        W 4253  21.644  34.169   5.212 -0.1189 -0.0711  0.3167
48013W        W 4254   4.863  19.645   4.023  0.3464  0.0548  0.3104
48014W        W 4255   6.426  29.856  10.380 -0.1440 -0.1131  0.2432
48015W        W 4256  20.076  27.804   7.420  0.1943 -0.6155  0.1083
48016W        W 4257   3.127   4.837  22.666 -0.1871  0.0335 -0.0939
48017W        W 4258  12.099  21.974  22.869  0.1595  0.1569  0.1208
48018W        W 4259  16.457  30.028  20.354  0.0820  0.1468  0.1303
48019W        W 4260  19.341   3.553  19.829 -0.0343 -0.0459  0.1770
48020W        W 4261   3.160   4.017  21.952 -0.0247 -0.0828  0.0705
48021W        W 4262  13.219  29.523   0.760 -0.0545  0.3872  0.0433
48022W        W 4263  21.830  28.950   4.668  0.0070  0.0047  0.2343
48023W        W 4264  19.989   0.414  18.851  0.0206  0.2047 -0.1106
48024W        W 4265   4.219  27.687  24.442  0.2552  0.2218 -0.1883
48025W        W 4266   2.174  34.348   6.770  0.1361  0.0192 -0.0637
48026W        W 4267  32.358   6.467  22.096 -0.2703  0.0887 -0.2442
48027W        W 4268   2.922   1.689  16.671 -0.3398  0.1881  0.2352
48028W        W 4269   7.504  20.233   8.356  0.1519  0.0403 -0.0932
48029W        W 4270  16.719  32.524   1.044  0.2462 -0.2730  0.3754
48030W        W 4271  29.236  14.171  19.730 -0.0323 -0.0966  0.1379
48031W        W 4272  16.103  12.491  11.198 -0.1460  0.1172  0.0187
48032W        W 4273  18.943  13.063  21.112  0.0364 -0.2521 -0.2856
48033W        W 4274  15.047  20.950   5.630 -0.1458 -0.0639  0.0013
48034W        W 4275   9.147   0.998   5.724 -0.0021  0.1550 -0.3231
48035W        W 4276  24.787   9.576  16.983  0.1325  0.0070  0.1155
48036W        W 4277   1.531   4.707  14.848 -0.0936 -0.2703  0.1374
48037W        W 4278  21.575   0.796   4.437  0.0883  0.1629 -0.1701
48038W        W 4279  28.379  28.180  16.160  0.1389  0.2934  0.0539
48039W        W 4280  30.590  10.683  20.786 -0.1449  0.1617  0.2296
48040W        W 4281   0.644  34.221   3.980  0.0166  0.2538  0.1301
48041W        W 4282  32.476   6.797   1.565 -0.1402  0.0387 -0.0252
48042W        W 4283  25.855  30.733  11.387 -0.0744 -0.0432 -0.0058
48043W        W 4284  20.961  28.963  21.711 -0.1742  0.1249  0.0829
48044W        W 4285  30.770  18.272   9.589 -0.0985  0.1807 -0.2062
48045W        W 4286  34.000  22.026   9.808 -0.1992 -0.0952  0.0431
48046W        W 4287  31.057  10.203   7.308  0.2097  0.1376  0.3523
48047W        W 4288  28.110  33.667  24.097 -0.0825  0.0242  0.1575
48048W        W 4289   4.456  34.839  25.294 -0.1049 -0.3043  0.0024
48049W        W 4290  15.119  31.888   0.620  0.1261 -0.5008  0.0700
48050W        W 4291  18.099  15.996  18.991  0.1651 -0.1938  0.0670
48051W        W 4292  25.904  13.632   9.835 -0.2287 -0.1876 -0.0972
48052W        W 4293  28.881  35.190  24.427  0.1548  0.0723  0.1973
48053W        W 4294  13.376  17.907   1.379  0.0450 -0.0731 -0.5224
48054W        W 4295  28.932  23.795  16.181 -0.0765  0.0027 -0.0340
48055W        W 4296  33.840   8.698   9.600  0.0447  0.2874  0.3390
48056W        W 4297   6.637  20.753   6.778  0.2382  0.1119  0.0360
48057W        W 4298   7.230  30.757  12.911 -0.1125 -0.0906 -0.0379
48058W        W 4299  29.126  21.242  22.661 -0.0588 -0.1127  0.0177
48059W        W 4300  23.224  17.559  14.192  0.2597  0.3189  0.1548
48060W        W 4301  15.260   3.630   9.868 -0.0008  0.3556  0.2861
48061W        W 4302  12.593  23.869  24.701 -0.1584 -0.4110 -0.1707
48062W        W 4303  31.707  13.823   5.524 -0.1244 -0.2016 -0.0906
48063W        W 4304  17.657  11.853   5.604  0.2197  0.1954 -0.1959
48064W        W 4305   1.214  11.538  16.222  0.4196 -0.2329 -0.0919
48065W        W 4306  20.282   8.710   8.548 -0.2208  0.4269 -0.0428
48066W        W 4307  14.891  21.377  22.269  0.2880 -0.0532  0.0660
48067W        W 4308   4.056   2.501   8.567 -0.1911 -0.3019  0.0236
48068W        W 4309  14.666  23.401   8.456  0.1561  0.1281  0.1393
48069W        W 4310   1.004  12.262  23.345  0.2602 -0.3350 -0.2662
48070W        W 4311  14.392  30.358   2.148 -0.5458  0.1555 -0.0221
48071W        W 4312  21.791   5.398   6.064 -0.2003 -0.3734 -0.0489
48072W        W 4313  13.455  15.065  10.469  0.1119 -0.0945 -0.0206
48073W        W 4314  19.594  28.812   0.145  0.0228  0.2432  0.0625
48074W        W 4315  23.534  31.406  21.171  0.1337 -0.1130 -0.3239
48075W        W 4316  23.767  30.677  19.898  0.2407 -0.0186  0.0490
48076W        W 4317   6.445  33.663   9.646  0.1799  0.0750 -0.2097
48077W        W 4318   8.477  32.816   4.763  0.4122 -0.1543  0.1213
48078W        W 4319   4.990   6.011   0.964 -0.0624 -0.1509 -0.2160
48079W        W 4320  20.711  12.058  17.393 -0.3516 -0.0142  0.1374
48080W        W 4321  34.633   1.773   4.517 -0.0097 -0.1832 -0.1468
48081W        W 4322   5.379  14.727   4.151  0.0397  0.0369 -0.1509
48082W        W 4323   0.135   6.869  20.349 -0.1164 -0.0847 -0.4000
48083W        W 4324  34.737  18.567  14.107 -0.1909  0.0730  0.0035
48084W        W 4325  19.589  31.105  17.994  0.0848  0.0676  0.0616
48085W        W 4326   0.885   2.783   0.191 -0.0101 -0.0090 -0.3412
48086W        W 4327  28.982  31.510   2.589 -0.0134 -0.0321  0.3136
48087W        W 4328  31.506  19.220  20.583 -0.2598  0.1322  0.3256
48088W        W 4329  18.748  13.448   9.655  0.2115  0.0641 -0.1123
48089W        W 4330  14.434  31.336   7.163  0.0762 -0.2578  0.1423
48090W        W 4331   9.140  15.776  24.468  0.2375  0.1352 -0.2384
48091W        W 4332   5.095  19.133  21.107 -0.0756 -0.0966  0.1042
48092W        W 4333  18.695  33.839  20.677  0.1977 -0.2085 -0.2457
48093W        W 4334  30.724  14.189   8.796  0.1995 -0.0832  0.2353
48094W        W 4335  29.302  21.221  16.678  0.0702  0.1163 -0.0156
48095W        W 4336  23.025  19.349   2.442 -0.1355  0.0534  0.0968
48096W        W 4337  10.056  24.115  13.059  0.1431  0.0579  0.1097
48097W        W 4338  29.023  35.225   2.188 -0.2667 -0.0759  0.3623
48098W        W 4339  26.719  25.413  10.290  0.1147 -0.1899 -0.0285
48099W        W 4340  23.253   3.865  25.741 -0.0895 -0.1160 -0.2000
48100W        W 4341  32.588  34.879  26.229 -0.3292 -0.0532  0.1186
48101W        W 4342  17.148  32.852  22.645 -0.1100 -0.1733 -0.0300
48102W        W 4343  16.330   7.325  21.676  0.1656  0.0524 -0.3130
48103W        W 4344  23.653  12.757  24.860  0.0473 -0.4063  0.2450
48104W        W 4345  30.484  30.071  17.985 -0.0673  0.0339  0.3833
48105W        W 4346   3.918  16.830   0.939  0.0681 -0.1854  0.0963
48106W        W 4347  29.387   8.718  16.134 -0.1156 -0.0343 -0.0826
48107W        W 4348  30.508  34.624  19.120 -0.0303 -0.1577 -0.2370
48108W        W 4349  19.979  34.377  19.793  0.0947 -0.2709  0.4084
48109W        W 4350  34.447  24.462  15.419 -0.1109  0.5143  0.0405
48110W        W 4351  16.802   5.252  13.029  0.0644 -0.0372 -0.0772
48111W        W 4352   4.944  33.877  10.673 -0.1797 -0.0193  0.1456
48112W        W 4353  35.140  11.255  14.723  0.0964 -0.0815 -0.3027
48113W        W 4354  27.430  26.007  15.100  0.1916 -0.2707 -0.0209
48114W        W 4355  24.052  26.577  11.787 -0.2238 -0.1199  0.1561
48115W        W 4356  22.756  32.714   3.660  0.0621  0.1989  0.0267
48116W        W 4357  20.365  33.751  23.375  0.1479  0.0766 -0.4907
48117W        W 4358   8.461  32.576   3.064  0.0076  0.2827 -0.0234
48118W        W 4359  32.836  17.321  12.377  0.0031  0.1492 -0.1640
48119W        W 4360  33.462  28.509  23.310 -0.0398  0.4343  0.2802
48120W        W 4361   1.570  14.138  17.009  0.0045  0.1402  0.1116
48121W        W 4362  12.378  21.066  25.553  0.1754 -0.0839  0.0008
48122W        W 4363  25.213  25.399  26.042  0.0871 -0.3885  0.2630
48123W        W 4364   5.460  12.799  21.638 -0.1256 -0.1947  0.0765
48124W        W 4365   4.237  22.218  25.240  0.0300 -0.1288 -0.2216
48125W        W 4366   0.916  35.161  19.869 -0.2452 -0.1186  0.0977
48126W        W 4367  34.712   5.512  19.290  0.1126 -0.0595  0.4145
48127W        W 4368  29.743  31.426  16.064 -0.1654  0.0954  0.0658
48128W        W 4369   7.570  31.404  23.118  0.0240 -0.3225  0.2529
48129W        W 4370  25.812  12.865  16.385  0.0763  0.2955 -0.1785
48130W        W 4371  32.508  12.028  24.635  0.1199  0.2523  0.0393
48131W        W 4372  19.711   3.151  15.468  0.1611  0.0875  0.3534
48132W        W 4373  22.880   6.447  17.825  0.0190 -0.1549  0.0052
48133W        W 4374  19.350  32.397  16.638 -0.0419 -0.1035  0.0659
48134W        W 4375  19.153   6.544  10.293  0.1874 -0.2212 -0.0727
48135W        W 4376   7.460  18.706  12.007  0.0298  0.0250  0.0475
48136W        W 4377  12.237  14.470   7.811 -0.2561 -0.0900 -0.3462
48137W        W 4378   2.776   6.508   6.364 -0.2020  0.0995 -0.2250
48138W        W 4379   9.062  26.780   2.721  0.0449 -0.1665 -0.0762
48139W        W 4380  10.373  17.744  13.813 -0.0791 -0.4320 -0.2606
48140W        W 4381   5.393   2.496   8.645  0.0523 -0.1760 -0.1298
48141W        W 4382  29.108   4.555   3.985  0.0153 -0.0349  0.0104
48142W        W 4383   8.062  32.128  10.365 -0.1062 -0.2594 -0.0710
48143W        W 4384   2.871   2.887   4.803 -0.2233  0.0132  0.1469
48144W        W 4385  14.400  28.939   9.193  0.0937 -0.2519  0.0842
48145W        W 4386  15.228  15.084   0.287  0.2086 -0.0710 -0.0135
48146W        W 4387  25.763   4.108  20.972 -0.0982 -0.0643 -0.0017
48147W        W 4388  31.500  32.811   6.384  0.0093 -0.1910  0.0212
48148W        W 4389  26.409  30.954  17.558  0.1642 -0.0654 -0.0142
48149W        W 4390  25.304  19.486  12.318 -0.0361 -0.1591 -0.1652
48150W        W 4391  28.847  30.361  12.413 -0.0645 -0.0162 -0.2980
48151W        W 4392  11.709  26.913  15.557 -0.0882 -0.1804  0.0345
48152W        W 4393  23.627  31.516  18.834  0.4520  0.2357 -0.0211
48153W        W 4394  28.446  12.791  22.029 -0.2119  0.0110 -0.1530
48154W        W 4395  14.947   6.361  23.268 -0.2063 -0.0728 -0.1455
48155W        W 4396  32.605  28.487  24.322  0.3321  0.0964  0.1020
48156W        W 4397  25.797  14.640  14.986 -0.3049 -0.1491 -0.2655
48157W        W 4398  17.260  32.392  24.842 -0.0495  0.0184  0.1450
48158W        W 4399  30.928   8.511  11.857  0.1397  0.3354  0.0126
48159W        W 4400  12.884   0.040  22.331  0.2060  0.0066  0.0564
48160W        W 4401  10.996   8.912  10.257  0.3550  0.0183 -0.1947
48161W        W 4402  26.928  11.712  19.922 -0.2158  0.2278  0.0367
48162W        W 4403  21.668   5.264  22.402  0.1557  0.0215  0.1629
48163W        W 4404  16.271  15.985  24.811 -0.0325  0.0079 -0.1289
48164W        W 4405  32.522   5.096  18.889  0.0885 -0.0655  0.1460
48165W        W 4406  20.327  22.159   1.596  0.4030 -0.1222  0.2185
48166W        W 4407  22.072  29.262  12.932  0.1286  0.0182 -0.2915
48167W        W 4408  13.933  17.258   8.625  0.2094 -0.1934 -0.1262
48168W        W 4409  23.701  28.379  25.610  0.0725 -0.0764 -0.2415
48169W        W 4410  33.977   4.324  14.917 -0.2042 -0.2614  0.0785
48170W        W 4411  22.541   0.284   0.091 -0.3044  0.2353  0.1370
48171W        W 4412  33.215  30.883  24.660  0.0944 -0.1478  0.2137
48172W        W 4413  29.659   3.474   1.662 -0.2830  0.3541 -0.1338
48173W        W 4414  33.893  32.961   7.180  0.0505 -0.1451 -0.2406
48174W        W 4415   9.416   2.349   9.640 -0.0002 -0.1067 -0.0963
48175W        W 4416   0.451   0.616  19.184  0.3829 -0.2587  0.1722
48176W        W 4417   8.766  34.943  10.584  0.3533 -0.1161 -0.1421
48177W        W 4418   2.436  17.722  21.991 -0.1388  0.1493 -0.0137
48178W        W 4419  27.570  25.724  13.389 -0.2322 -0.0770 -0.0650
48179W        W 4420   7.896  22.184  11.428 -0.3572  0.0024  0.1029
48180W        W 4421  18.102  13.806  20.250 -0.0328 -0.0084 -0.0882
48181W        W 4422  33.886  25.238   0.490 -0.4421 -0.1956  0.2017
48182W        W 4423   2.979  26.858  23.105  0.1026  0.1078 -0.1562
48183W        W 4424  19.653  26.205   4.668  0.1229  0.0949 -0.0633
48184W        W 4425  27.092   9.733  25.367  0.0100  0.1451  0.1751
48185W        W 4426  17.392   7.421  22.906  0.2471  0.0868  0.0793
48186W        W 4427  26.905  19.180   8.522  0.2635  0.0887  0.0063
48187W        W 4428  12.942  12.344   5.390 -0.0803  0.2482 -0.2448
48188W        W 4429  11.282   9.182  23.724  0.0667 -0.0366  0.1022
48189W        W 4430  16.237   7.806  10.811 -0.3968  0.2067 -0.2172
48190W        W 4431  22.834  30.072  18.504  0.1124 -0.0655 -0.0307
48191W        W 4432  23.676  11.436  17.720 -0.3628 -0.1960 -0.0153
48192W        W 4433   3.224   0.793  11.693 -0.1614  0.0489 -0.0416
48193W        W 4434  30.870  19.098  21.576  0.2011 -0.0549  0.3903
48194W        W 4435  35.369  18.277  14.674  0.3202 -0.5684  0.0044
48195W        W 4436  31.935  16.744  17.148  0.0056  0.1709 -0.0590
48196W        W 4437  17.567  19.904  23.489  0.5338 -0.1029  0.0386
48197W        W 4438  17.005   1.999  24.110  0.4453  0.0619  0.1975
48198W        W 4439   9.358   2.058  20.511  0.0849  0.4928 -0.0538
48199W        W 4440  33.893  22.210  13.005 -0.0061 -0.1306  0.1901
48200W        W 4441   1.813   4.776  14.114  0.2920  0.1445  0.3955
48201W        W 4442  31.568   1.776   3.726 -0.2021  0.0780  0.1994
48202W        W 4443  18.963   4.868   6.869 -0.3034 -0.0908 -0.0081
48203W        W 4444  25.042   2.024  18.577  0.1466  0.0610 -0.2123
48204W        W 4445  23.297  19.743  12.338  0.0183 -0.1849 -0.1992
48205W        W 4446  10.344   5.738  23.267 -0.0543 -0.0912  0.1616
48206W        W 4447  12.914  33.460   3.305 -0.2115 -0.3222 -0.0879
48207W        W 4448  10.386  33.248   4.616  0.0345 -0.3661 -0.0540
48208W        W 4449  17.309  27.587   1.525 -0.0315 -0.1434 -0.1624
48209W        W 4450   8.582   3.968   4.862  0.0920  0.0827  0.0391
48210W        W 4451  25.935  25.808   0.394 -0.0327  0.1578 -0.1011
48211W        W 4452  10.631   5.764  19.370 -0.0361 -0.0478  0.0778
48212W        W 4453  24.678   0.175  15.820 -0.1655  0.1621  0.2090
48213W        W 4454   8.691  19.385  21.425  0.0661 -0.0311 -0.4098
48214W        W 4455  19.160  28.753   3.155 -0.1647 -0.1100  0.1981
48215W        W 4456  11.001   4.082  12.736  0.0243 -0.3033 -0.0562
48216W        W 4457  12.870  26.236   7.383  0.3708 -0.0784  0.0225
48217W        W 4458  20.045  25.966  24.667  0.0324  0.0869  0.2109
48218W        W 4459   1.397  11.808  21.770 -0.1930 -0.0378  0.0040
48219W        W 4460  25.726   2.230  15.912 -0.3718 -0.1946  0.1777
48220W        W 4461   3.060  16.892  16.033  0.0950 -0.2057  0.2545
48221W        W 4462  19.462  34.505   5.526  0.2936 -0.2026 -0.2246
48222W        W 4463  14.186  24.474  13.910  0.1807 -0.1548 -0.0201
48223W        W 4464  23.911  24.016   1.887 -0.0583  0.2164 -0.0401
48224W        W 4465   6.864  17.641   9.044 -0.0181 -0.1898  0.0946
48225W        W 4466  28.437   2.367  11.947 -0.1885  0.0690 -0.3248
48226W        W 4467  29.502   7.151  18.017 -0.0841  0.1109  0.2223
48227W        W 4468  16.203  18.437  24.433 -0.0729  0.0259 -0.0415
48228W        W 4469  17.513   0.323  23.092  0.0376  0.0073 -0.0743
48229W        W 4470  16.233  17.586   9.351  0.1182  0.1017  0.0207
48230W        W 4471  14.305  32.052  10.206  0.0209 -0.0409 -0.0340
48231W        W 4472  33.969  12.233  18.349  0.3739 -0.1329  0.0264
48232W        W 4473   3.862  16.841   4.679  0.1837  0.0645 -0.0229
48233W        W 4474  21.905  23.657   3.605 -0.6951 -0.0602 -0.2499
48234W        W 4475   0.432  23.092  13.979  0.0432 -0.1957 -0.0639
48235W        W 4476   1.169  19.691  16.484 -0.3088 -0.0741 -0.3494
48236W        W 4477   4.142  12.472  24.772 -0.0402  0.3748 -0.1234
48237W        W 4478   6.444   5.598   4.069  0.0937  0.0155  0.1645
48238W        W 4479  29.429   7.369  21.851 -0.1085  0.3953  0.4131
48239W        W 4480  10.747  13.754   4.867  0.3695 -0.2768 -0.0960
48240W        W 4481  17.292   1.032  19.894 -0.1969  0.2850  0.3017
48241W        W 4482  12.801  27.006   1.299 -0.4631  0.1447  0.0183
48242W        W 4483  29.151  30.769  11.444  0.0917  0.0302  0.0390
48243W        W 4484   6.632  23.008   8.671  0.3041  0.1315  0.0371
48244W        W 4485  17.486  24.952  22.445  0.0673 -0.0622 -0.2223
48245W        W 4486  16.379   0.312   3.910 -0.0727  0.0346  0.0422
48246W        W 4487   8.636  24.830  15.657 -0.1057  0.2609 -0.1356
48247W        W 4488   0.343  15.533  11.450  0.0052  0.3838 -0.0867
48248W        W 4489   9.685  10.724  24.126  0.4170 -0.0341  0.0659
48249W        W 4490   3.114  25.687  26.078 -0.1438  0.0763  0.2448
48250W        W 4491  33.022   4.461  21.795  0.1601 -0.0665 -0.0159
48251W        W 4492   1.309  34.629  18.342 -0.0048  0.1416  0.3316
48252W        W 4493   5.346  27.263  25.742 -0.0479 -0.0061  0.1205
48253W        W 4494   1.532  15.259  11.853  0.0181 -0.2069  0.0059
48254W        W 4495   3.562   7.501  25.210 -0.2114  0.1391  0.3132
48255W        W 4496   6.923   7.156   3.084  0.0537  0.0166  0.3001
48256W        W 4497  22.307  23.489   1.067  0.0970 -0.3336  0.3580
48257W        W 4498  17.162  22.145   2.242  0.1128 -0.4821  0.2868
48258W        W 4499   6.505  22.396  25.814  0.1512 -0.1344 -0.0909
48259W        W 4500   5.481  34.837   9.144  0.2239  0.0259 -0.2243
48260W        W 4501  29.028  17.751  22.049 -0.1003  0.0192  0.3343
48261W        W 4502  34.525   9.020   1.181  0.1516  0.0679  0.0521
48262W        W 4503  21.673   5.911   7.346 -0.0586  0.0561  0.2597
48263W        W 4504   6.601  15.339  17.434  0.1601 -0.1850 -0.3202
48264W        W 4505  10.732  15.049   2.218  0.1705 -0.1918 -0.3366
48265W        W 4506  21.096  11.162   4.799 -0.1056 -0.0370 -0.3074
48266W        W 4507  15.101  14.433   4.647 -0.1258  0.0221 -0.1660
48267W        W 4508  26.652  11.944   2.131  0.0842  0.0237 -0.1061
48268W        W 4509   9.130  10.857   1.590  0.0287  0.0534  0.2515
48269W        W 4510  29.795  11.616  10.098  0.0306  0.0676  0.0942
48270W        W 4511   4.490  30.919  20.735  0.3058  0.3685  0.0822
48271W        W 4512   2.838  24.894   0.981 -0.0702 -0.0908  0.0710
48272W        W 4513  21.940  16.921   0.379  0.5025 -0.2242 -0.3040
48273W        W 4514  28.870  19.385  12.034 -0.2313  0.2759 -0.2204
48274W        W 4515   1.641  13.572  18.582  0.0911 -0.0559  0.0396
48275W        W 4516  29.831  13.333   0.279 -0.1363 -0.0526 -0.1432
48276W        W 4517  26.111  13.876  12.557  0.1288  0.2226  0.1007
48277W        W 4518  14.008  28.374   7.639 -0.1699 -0.0289 -0.1848
48278W        W 4519  19.052  34.890   5.312 -0.0057 -0.2193 -0.1648
48279W        W 4520  33.106  26.023   0.061 -0.3561  0.3677  0.0313
48280W        W 4521  31.725  25.333  24.821 -0.1019 -0.1806  0.0137
48281W        W 4522   1.954  34.685   9.244  0.3076 -0.0861  0.1048
48282W        W 4523   9.236  22.237   4.090 -0.1960 -0.1584  0.0816
48283W        W 4524  27.420  31.729  14.737  0.0667 -0.2140 -0.1953
48284W        W 4525  11.363  12.353   9.712 -0.0192 -0.3447 -0.2619
48285W        W 4526  32.008   6.731  24.889  0.0188 -0.2993  0.0425
48286W        W 4527  29.305   3.583  14.276  0.1117  0.2820  0.0459
48287W        W 4528  14.054  11.767  20.908  0.1781 -0.1085  0.1050
48288W        W 4529  33.329  18.665   6.955 -0.1683  0.0433 -0.0515
48289W        W 4530  15.751  12.488  23.366  0.1355 -0.1896  0.0253
48290W        W 4531  22.788  33.993   0.340 -0.0095 -0.0120  0.0583
48291W        W 4532  17.191   7.202   6.347  0.2014 -0.1319 -0.0722
48292W        W 4533  24.618  33.534  12.631 -0.1297 -0.1481  0.0303
48293W        W 4534   5.971  16.501   4.582 -0.0240  0.0105  0.2072
48294W        W 4535   9.977  33.598  14.087  0.1437 -0.1167 -0.0654
48295W        W 4536   9.112  31.974  24.494 -0.0063 -0.2427 -0.1537
48296W        W 4537  17.975  30.399   5.449  0.1214  0.2277  0.0388
48297W        W 4538   7.839  31.572  21.309  0.2160  0.1071 -0.2101
48298W        W 4539   3.208  26.760  21.551 -0.1081  0.2610  0.1803
48299W        W 4540  22.721  15.780  17.905 -0.0703  0.0595 -0.1797
48300W        W 4541  31.203  21.167  15.776 -0.0116  0.0181 -0.1247
48301W        W 4542   3.003   0.092  25.904 -0.2009  0.2184 -0.1051
48302W        W 4543   5.610  26.620  14.455 -0.2798  0.0096  0.0435
48303W        W 4544   3.102  29.038  22.904 -0.1063 -0.1606  0.1420
48304W        W 4545  17.747   6.981  10.807  0.0950 -0.1419  0.2361
48305W        W 4546  18.973   3.829   1.838  0.0101  0.4279  0.0615
48306W        W 4547  30.186  10.009  18.304  0.0608 -0.0773 -0.1341
48307W        W 4548  18.785  12.448   0.596 -0.0197  0.0909 -0.2317
48308W        W 4549  24.581  11.179  13.250  0.1001  0.0656 -0.1104
48309W        W 4550   2.066  16.305   2.307 -0.0352 -0.4849  0.2132
48310W        W 4551  19.234  22.470  20.763 -0.2572 -0.0312  0.1183
48311W        W 4552   1.300  32.274   9.761 -0.0952  0.0474  0.0231
48312W        W 4553   8.835  21.461   1.704 -0.1089 -0.0823 -0.0272
48313W        W 4554   0.471   8.419   1.250  0.1769  0.0355 -0.1321
48314W        W 4555  10.928   4.251  14.536 -0.1729 -0.0839  0.3493
48315W        W 4556  18.716  25.101   4.446  0.1445 -0.1235  0.0113
48316W        W 4557  24.377  11.883  11.170  0.0013  0.2295  0.0505
48317W        W 4558   3.286   7.214   2.427 -0.1177 -0.1612  0.0508
48318W        W 4559  29.535  15.362   5.717 -0.0254 -0.1134  0.3303
48319W        W 4560   2.654  30.281  21.979 -0.0648  0.0043 -0.1081
48320W        W 4561  12.178  18.692   7.733 -0.0491 -0.2392  0.1482
48321W        W 4562  16.740   5.403   2.010 -0.1525 -0.0869 -0.1815
48322W        W 4563  32.034  20.976  16.097 -0.0436 -0.0439  0.2880
48323W        W 4564  28.130   1.502  17.325 -0.2383  0.0698 -0.2798
48324W        W 4565   4.449   0.935  22.683  0.1581 -0.1605  0.0606
48325W        W 4566  24.608   7.773  17.327  0.0495 -0.2172  0.1480
48326W        W 4567  16.622  32.204  22.030  0.0115 -0.1419  0.0490
48327W        W 4568  21.571  15.503   1.207 -0.1417 -0.0170 -0.0770
48328W        W 4569   0.884  12.053  19.993  0.0319  0.1097 -0.2311
48329W        W 4570  21.788  20.259  23.779  0.1132 -0.3323 -0.0326
48330W        W 4571   7.568  27.115   8.677  0.0015 -0.1416 -0.0432
48331W        W 4572  13.958   7.122  21.389  0.0599  0.0226  0.0243
48332W        W 4573  29.618  27.166  17.215  0.2310  0.1782  0.1190
48333W        W 4574  17.329  18.537  23.023  0.3127  0.0127  0.2227
48334W        W 4575  34.333  24.674  20.659 -0.0572  0.2596  0.4019
48335W        W 4576  27.523   9.628  18.723 -0.0419  0.1115 -0.0445
48336W        W 4577   1.108   7.192  22.376 -0.1201  0.0688  0.2460
48337W        W 4578  10.140  25.323  26.087  0.0039  0.1111 -0.1607
48338W        W 4579  17.730  19.310   8.822 -0.2360 -0.2955  0.1013
48339W        W 4580  34.379  23.769  14.870  0.2832 -0.0355  0.0380
48340W        W 4581  32.598  30.355  21.118  0.2940 -0.1833 -0.1234
48341W        W 4582   5.371  33.221   1.473 -0.3140 -0.1968  0.2054
48342W        W 4583  29.838   2.039  21.674 -0.0896  0.0056  0.0667
48343W        W 4584  24.791  29.768   4.830  0.0806  0.2266 -0.3610
48344W        W 4585  12.579  33.850  25.357  0.1406 -0.2320  0.0336
48345W        W 4586  32.341  20.265  21.973  0.0133  0.0776 -0.1606
48346W        W 4587  10.402  23.047  16.035  0.1904  0.1321 -0.3253
48347W        W 4588  31.575  29.946   5.485  0.0194 -0.0206 -0.0133
48348W        W 4589  27.128   3.396  13.675  0.4282  0.1177 -0.0657
48349W        W 4590  28.836  16.757  24.849  0.0607 -0.1192 -0.2595
48350W        W 4591  25.294   8.698  24.922 -0.0614 -0.0571  0.1483
48351W        W 4592   3.963  35.152   4.545 -0.1288  0.1406  0.2878
48352W        W 4593  18.390  30.473   9.022 -0.1228  0.3307  0.1507
48353W        W 4594   3.709  20.586   5.115 -0.2077 -0.2048 -0.0437
48354W        W 4595  13.928  29.139   0.128 -0.1285  0.2080 -0.0278
48355W        W 4596  32.977   0.717  15.385  0.0887 -0.0245 -0.3944
48356W        W 4597  28.343   6.271   3.997  0.0002 -0.0897  0.3336
48357W        W 4598  20.183  29.346   0.745  0.1115 -0.0142  0.1796
48358W        W 4599   2.568  34.764  21.138 -0.1966 -0.0478  0.0075
48359W        W 4600  26.211   4.149   5.518  0.2591 -0.0676  0.1619
48360W        W 4601  22.167  20.714   2.879 -0.4075 -0.1864  0.2553
48361W        W 4602  34.875   8.122  11.061  0.0472  0.0396  0.3601
48362W        W 4603   0.771   6.008  18.615  0.0119  0.1732 -0.0900
48363W        W 4604  26.676  31.743  12.748 -0.5494  0.1047 -0.0756
48364W        W 4605   0.250   3.655  13.394 -0.0233  0.0868 -0.0272
48365W        W 4606   8.581   3.447   7.502 -0.1739 -0.0610  0.1802
48366W        W 4607  17.912  30.188  18.736 -0.1543 -0.0809  0.0785
48367W        W 4608  21.666   3.868  16.564 -0.0338 -0.0183  0.2677
48368W        W 4609  17.106  21.482   9.263 -0.2361 -0.0908 -0.3447
48369W        W 4610  17.365  10.461   0.940 -0.2248  0.1382 -0.2268
48370W        W 4611   6.950  22.075   6.905  0.1432  0.1049 -0.3593
48371W        W 4612   9.522  21.915   5.436  0.0148  0.1153 -0.1341
48372W        W 4613  13.106  34.718   1.346 -0.2014 -0.1474 -0.0935
48373W        W 4614   4.564  29.932   0.356  0.2500 -0.1734  0.1959
48374W        W 4615  31.811  22.408   8.024  0.0954 -0.1832  0.1808
48375W        W 4616   1.261   4.119   1.493 -0.1202 -0.3618 -0.2524
48376W        W 4617   7.199   3.272  24.415  0.6142 -0.0035  0.1958
48377W        W 4618  29.055   4.997   0.930  0.0083  0.1249  0.2555
48378W        W 4619  19.523  23.293  24.974  0.0687  0.1958 -0.0501
48379W        W 4620  14.740  32.656  23.120 -0.0298 -0.1207  0.3778
48380W        W 4621  13.882  29.456  12.243  0.0081  0.2786  0.0807
48381W        W 4622  32.208  10.275  17.093  0.2608  0.0035  0.2095
48382W        W 4623  20.250  11.839  21.177  0.2953 -0.1890  0.4819
48383W        W 4624  14.032   3.050  10.348 -0.0363 -0.1579 -0.1336
48384W        W 4625  26.831  34.305  22.100 -0.2498  0.2632  0.3306
48385W        W 4626  34.431  35.021   3.832  0.0484  0.1324 -0.4471
48386W        W 4627  15.612  16.596  25.530 -0.2333  0.0096  0.3800
48387W        W 4628   9.660  25.026  25.203 -0.3895  0.0531  0.0764
48388W        W 4629  10.050  14.751  11.927  0.5642  0.1554  0.0033
48389W        W 4630  16.098   7.145   3.699  0.0173 -0.1126  0.0766
48390W        W 4631  32.640  12.368   8.709 -0.0884  0.0719  0.0869
48391W        W 4632  27.056   0.433  22.180 -0.0161  0.2661  0.2642
48392W        W 4633  32.712  30.317  25.128  0.2695  0.0904 -0.3254
48393W        W 4634  20.662  24.802  17.182 -0.0335  0.1405 -0.0004
48394W        W 4635  31.544  26.184  25.770  0.0863  0.0347 -0.1519
48395W        W 4636  30.514  28.679   0.227  0.1090  0.3554  0.0530
48396W        W 4637  27.407  29.202  22.171  0.2750  0.0848  0.0537
48397W        W 4638   8.051   6.916   1.483 -0.2406 -0.0044  0.0073
48398W        W 4639  13.266  15.462  20.323  0.0162  0.2432  0.0220
48399W        W 4640   7.173  26.339   7.083  0.4063  0.0850  0.0575
48400W        W 4641   1.324  25.779   5.849  0.1194 -0.1530  0.2530
48401W        W 4642  21.367   3.806  16.035 -0.2121 -0.2551 -0.1419
48402W        W 4643  23.051  16.175   0.350  0.0366 -0.0596  0.3039
48403W        W 4644  30.477   0.768  23.803 -0.4229 -0.0352 -0.2372
48404W        W 4645  18.952  22.461  24.592  0.1547 -0.2766  0.2747
48405W        W 4646   1.979   0.121   7.062 -0.2909 -0.0296  0.2169
48406W        W 4647  31.970  12.624  22.551 -0.1409 -0.1291 -0.0821
48407W        W 4648   7.171  24.187  10.822  0.0151  0.0075 -0.0606
48408W        W 4649  17.361  26.813  22.819 -0.1875 -0.0346 -0.2513
48409W        W 4650  10.152  15.196  21.818 -0.1938  0.0154 -0.1156
48410W        W 4651   8.660  14.719  18.470 -0.2562  0.0501 -0.2433
48411W        W 4652   7.762  19.660  14.447  0.1050 -0.1729  0.0610
48412W        W 4653   5.887  23.846   9.220 -0.2285  0.1353 -0.3350
48413W        W 4654   3.082   3.536   4.381 -0.1101  0.0337 -0.2782
48414W        W 4655   7.193  13.311   0.747 -0.2121 -0.0102  0.3157
48415W        W 4656  18.421  18.916  10.531  0.0135  0.0912 -0.1827
48416W        W 4657  28.517  24.249   0.362 -0.0108  0.1907  0.1164
48417W        W 4658  12.102   4.471  12.159  0.0152  0.2474  0.3525
48418W        W 4659   9.381   4.618   3.314 -0.0324  0.1623  0.2954
48419W        W 4660  18.938   5.151   7.774  0.2206  0.1660 -0.0334
48420W        W 4661  22.629   1.534  23.583  0.2355 -0.0559  0.1523
48421W        W 4662   6.631  34.123   7.528 -0.0507  0.1244  0.2059
48422W        W 4663  30.266   2.306  15.408 -0.0523 -0.1904 -0.1819
48423W        W 4664   1.661  30.946   8.235  0.1069  0.1347  0.1892
48424W        W 4665  25.468  21.617  16.204 -0.2513  0.0370 -0.0065
48425W        W 4666  33.442  16.609  15.678  0.3746 -0.1051 -0.0138
48426W        W 4667  24.739  24.417  20.069 -0.3947 -0.3114 -0.2572
48427W        W 4668  10.287  32.364  26.045  0.1703  0.1437  0.0888
48428W        W 4669  16.386  32.294   1.763 -0.2102  0.1982  0.2286
48429W        W 4670   4.777  32.063  21.595  0.0215  0.2394  0.2484
48430W        W 4671  28.389  10.687  16.581  0.0940  0.1313  0.0325
48431W        W 4672  19.011   0.822   8.096 -0.0427  0.0344  0.0976
48432W        W 4673  34.355  11.508  23.797  0.2936  0.0880  0.3554
48433W        W 4674  15.395   1.602  24.178 -0.0227  0.2319 -0.2784
48434W        W 4675  22.864  13.207   0.638 -0.1692  0.0129  0.0269
48435W        W 4676   2.848   2.121   4.097 -0.2039  0.2187  0.0072
48436W        W 4677  34.286  25.041  18.366 -0.0312 -0.0548  0.1465
48437W        W 4678   0.919  31.203  22.783  0.4541  0.1608 -0.0767
48438W        W 4679  25.351   4.975  18.433  0.0605 -0.1688 -0.4792
48439W        W 4680  32.645  30.425   2.408 -0.0608 -0.1856  0.3045
48440W        W 4681   1.603  32.795   8.470  0.2520 -0.0235 -0.1107
48441W        W 4682  28.871  10.029  14.718  0.3085 -0.2837 -0.0557
48442W        W 4683  15.375  18.350  12.159  0.2075  0.3825 -0.0776
48443W        W 4684  18.316  30.758  23.199  0.1211  0.0526 -0.1382
48444W        W 4685   0.129   7.319  26.062  0.0499 -0.2148 -0.0347
48445W        W 4686  26.464  12.825   8.765 -0.2700 -0.2764  0.0138
48446W        W 4687  11.862   1.026   2.370  0.0137  0.1490 -0.0147
48447W        W 4688  23.619   2.379  22.962 -0.0508 -0.1241  0.1452
48448W        W 4689  32.591   5.852  26.016  0.1341 -0.0356 -0.0686
48449W        W 4690   7.084   0.508  25.366 -0.0790  0.1520 -0.0870
48450W        W 4691  22.309   1.270  17.261 -0.0716  0.1253 -0.1928
48451W        W 4692  18.781  19.643   0.538 -0.0197  0.2933 -0.0741
48452W        W 4693  15.006  16.480   0.877  0.0091  0.1310 -0.2457
48453W        W 4694  20.837   8.764   3.101 -0.3213 -0.0564  0.0765
48454W        W 4695   9.220  34.965  21.860 -0.0598  0.6067  0.1260
48455W        W 4696   2.465  13.052   0.273  0.1263 -0.1826 -0.0745
48456W        W 4697  27.552  27.931  22.980  0.0359 -0.1917 -0.2627
48457W        W 4698   6.184  33.764  12.918  0.3303 -0.0282  0.1753
48458W        W 4699  20.243   5.782  16.765  0.0651 -0.0221 -0.0187
48459W        W 4700  21.312  31.079  25.706  0.0906  0.2167 -0.1621
48460W        W 4701  26.419  12.495  22.577  0.1874 -0.0200  0.2909
48461W        W 4702  19.089  28.179   3.885 -0.2077  0.0155 -0.2885
48462W        W 4703  24.903   0.532  15.388 -0.1322 -0.2881 -0.1620
48463W        W 4704  18.882   9.108   8.271  0.0518  0.0399 -0.1084
48464W        W 4705   4.977  11.230   2.435  0.1025  0.1222 -0.1347
48465W        W 4706   1.777  19.100  16.538  0.1434  0.2986  0.0598
48466W        W 4707  20.896  33.316  18.529 -0.0446 -0.0876  0.1654
48467W        W 4708  35.064  27.761  19.734 -0.1851 -0.0116  0.4356
48468W        W 4709  26.558  17.810   5.214 -0.1380 -0.1755 -0.2353
48469W        W 4710  11.492   6.709  14.642  0.3944 -0.2476 -0.3551
48470W        W 4711   2.465  20.667   4.421 -0.0486 -0.0664 -0.2302
48471W        W 4712   8.147  15.598   8.432 -0.2484  0.3751 -0.1300
48472W        W 4713  24.349  10.035  23.461  0.1477  0.1163 -0.1742
48473W        W 4714  28.450  30.837  25.670 -0.0115  0.2009 -0.3886
48474W        W 4715  11.294  12.104  21.602 -0.1126 -0.4335 -0.0364
48475W        W 4716  14.636   2.491  25.465  0.1770  0.0617 -0.1415
48476W        W 4717  13.644  20.644  21.739  0.0175 -0.1525  0.1585
48477W        W 4718  20.065  25.594  26.041 -0.1684 -0.3185  0.4197
48478W        W 4719  33.624  29.966  17.590 -0.0370  0.1252  0.2438
48479W        W 4720  15.222   8.137   6.813 -0.0313  0.2640  0.0993
48480W        W 4721   9.668  23.668   6.166 -0.0388 -0.0558  0.1999
48481W        W 4722  21.044  30.472  25.465 -0.2170  0.0590  0.2998
48482W        W 4723  10.678  24.026  10.552  0.0801  0.1947  0.4164
48483W        W 4724  14.768   1.981   2.214  0.1365  0.2091 -0.0652
48484W        W 4725   4.557  35.230  10.833  0.0622 -0.2372  0.0326
48485W        W 4726   0.880  31.517  24.654 -0.1573 -0.0402 -0.2227
48486W        W 4727   7.180  11.986  23.200 -0.1021  0.1550 -0.4151
48487W        W 4728   0.954  26.138  18.237 -0.0395 -0.0190  0.1904
48488W        W 4729   6.750  32.761   4.429 -0.3710 -0.0200  0.0176
48489W        W 4730  10.372  27.490   2.431  0.0022  0.0172  0.1843
48490W        W 4731   9.836  26.478  12.293  0.3481 -0.0087 -0.0342
48491W        W 4732  16.826  34.074  18.327 -0.0468 -0.0795 -0.1848
48492W        W 4733  23.843   7.439   0.307 -0.3707 -0.1746  0.3136
48493W        W 4734  18.232  28.423   0.927  0.0612  0.0682  0.3631
48494W        W 4735  21.168  17.934  26.088 -0.3641  0.0748 -0.1574
48495W        W 4736  34.419  20.860  24.862  0.1563 -0.0358  0.1701
48496W        W 4737  16.558   9.817   5.544  0.1348 -0.0810  0.1315
48497W        W 4738  16.286  24.885  13.440 -0.2661 -0.0856 -0.3270
48498W        W 4739  31.751  15.670  17.215  0.1372  0.1627 -0.0211
48499W        W 4740   4.045   2.924   5.177 -0.0037  0.0891  0.0354
48500W        W 4741   9.215  15.738  11.824 -0.0421  0.1067 -0.0117
48501W        W 4742  17.856  33.955   0.684 -0.0044 -0.0890 -0.0013
48502W        W 4743  22.457   1.149  19.350 -0.4187  0.2507  0.1128
48503W        W 4744  25.151  29.190  17.670 -0.1265 -0.0440  0.2708
48504W        W 4745  35.085   5.012  16.040 -0.1826  0.0017  0.1328
48505W        W 4746  20.986  30.675  18.071  0.2049  0.0454  0.1211
48506W        W 4747  15.193  14.318  18.943  0.0463 -0.0255  0.3036
48507W        W 4748  29.714  19.069  20.028  0.1354 -0.1670 -0.0841
48508W        W 4749  17.641  16.142   1.361 -0.1446  0.1764  0.4322
48509W        W 4750  23.701  31.908  14.992 -0.0158 -0.0533  0.2372
48510W        W 4751  20.663  13.135  23.486  0.2564  0.3224  0.2028
48511W        W 4752  32.668  31.128  20.878 -0.1227  0.0921  0.0375
48512W        W 4753  10.684  12.015  21.649  0.0680  0.2086 -0.1738
48513W        W 4754   5.544  10.968  23.280 -0.1886  0.2150 -0.1356
48514W        W 4755  17.590  21.345  11.183  0.0338  0.1762 -0.0362
48515W        W 4756  30.196  32.493  13.425 -0.0256  0.1692  0.2377
48516W        W 4757   6.234  15.202  22.742 -0.4012 -0.0067  0.1199
48517W        W 4758  19.267  24.465   7.935 -0.0001 -0.0878 -0.0224
48518W        W 4759  27.801  30.720  21.049 -0.3000  0.0319  0.3536
48519W        W 4760  10.175  21.297   4.805  0.1686  0.2847 -0.0881
48520W        W 4761  23.426  23.341  16.119 -0.0136 -0.3361  0.0216
48521W        W 4762  29.597  24.808  11.967 -0.2629  0.1873  0.1206
48522W        W 4763  11.136  15.406   9.506 -0.0467 -0.0435  0.3165
48523W        W 4764  27.921   2.989  22.548  0.1851  0.1639  0.0048
48524W        W 4765  15.173  33.914  22.715 -0.1187  0.1323 -0.2000
48525W        W 4766  10.165   3.355   3.495 -0.1157 -0.2190 -0.0137
48526W        W 4767   0.692  14.374   0.640  0.1596 -0.0240  0.0865
48527W        W 4768  26.238   3.661  21.570 -0.0093 -0.3267 -0.2800
48528W        W 4769  32.907   4.627  17.630 -0.2949 -0.1010  0.0093
48529W        W 4770  29.055   9.319   8.085 -0.1998 -0.1161  0.2996
48530W        W 4771  22.995  24.682  15.204 -0.0741  0.0398  0.3260
48531W        W 4772   5.096  14.054  21.643 -0.0479 -0.2139 -0.0036
48532W        W 4773  16.754  28.544   2.227 -0.1591  0.4836 -0.1834
48533W        W 4774  30.929  32.320  22.685 -0.5554 -0.1710  0.2216
48534W        W 4775   8.405  14.894  11.509  0.1984 -0.3472 -0.2697
48535W        W 4776   5.235   5.072  20.980 -0.0908 -0.0024 -0.1589
48536W        W 4777   9.506   0.533  23.786 -0.0244  0.0163  0.0195
48537W        W 4778  13.808  10.518   7.696 -0.0570 -0.2804  0.1074
48538W        W 4779  31.722   9.490   8.420  0.2929  0.2432 -0.0705
48539W        W 4780   4.578  31.795  10.015  0.2154 -0.1499 -0.1464
48540W        W 4781   9.514  15.189   3.765  0.1046 -0.0609  0.3517
48541W        W 4782  21.472   3.520  19.357 -0.0975 -0.3391  0.0705
48542W        W 4783  21.693  23.771  21.537 -0.2017  0.1022  0.0227
48543W        W 4784  13.847   3.643  11.031 -0.1382  0.2032  0.0411
48544W        W 4785   5.310   1.470   9.074 -0.1338 -0.1669 -0.0126
48545W        W 4786  17.034   5.852   6.246 -0.1179  0.3312  0.2044
48546W        W 4787  31.956  10.628  16.239  0.3230 -0.0452  0.1325
48547W        W 4788  32.327  14.020  16.735  0.1388 -0.0578 -0.0418
48548W        W 4789  22.663  21.583  20.460  0.0280  0.0275  0.1339
48549W        W 4790  16.047  15.803  23.365 -0.1660 -0.1432 -0.1834
48550W        W 4791  21.818  12.759   2.430 -0.0046 -0.3369  0.2671
48551W        W 4792  20.334   8.050  10.897 -0.5176 -0.0472  0.1151
48552W        W 4793   7.827  33.853  24.874 -0.1302  0.0216 -0.2163
48553W        W 4794  34.454  25.231  23.789 -0.0603  0.0030  0.0098
48554W        W 4795  27.519   1.018  19.659  0.1331  0.0921 -0.2317
48555W        W 4796  19.884   8.431   6.488  0.0890 -0.0906  0.2195
48556W        W 4797  35.021  13.066  20.604  0.1000 -0.1922 -0.0840
48557W        W 4798  19.056   6.837   3.354 -0.1895  0.0191 -0.1039
48558W        W 4799  24.536  12.794  11.813 -0.1926 -0.0348  0.3260
48559W        W 4800  22.487  30.921  12.960 -0.0411 -0.5329  0.0125
48560W        W 4801   9.319  22.369  15.169 -0.0867 -0.0103  0.1084
48561W        W 4802   2.923  24.607  19.927 -0.0295  0.0090 -0.1691
48562W        W 4803  18.847  11.792   5.679  0.1718 -0.1597  0.2067
48563W        W 4804  19.112  25.485   0.649 -0.1114 -0.0189  0.1011
48564W        W 4805  33.891  26.426  12.868  0.1131  0.1222 -0.6026
48565W        W 4806  10.528  30.616  14.779 -0.2266 -0.1349  0.0822
48566W        W 4807  28.297  19.617  10.270  0.2428 -0.2115  0.1375
48567W        W 4808   0.079  24.116  25.887 -0.2215 -0.3266  0.0257
48568W        W 4809  31.135   5.411  23.946 -0.0491  0.0998 -0.0347
48569W        W 4810  15.611  25.287  24.023  0.2032 -0.1455  0.1606
48570W        W 4811   6.719  13.161  17.503  0.1163  0.2336 -0.1823
48571W        W 4812  14.875  30.736   4.897 -0.2537  0.0639 -0.0661
48572W        W 4813   1.112   0.585  18.716  0.2063 -0.1294  0.2796
48573W        W 4814   9.650  21.456  24.371  0.1377  0.1644 -0.1539
48574W        W 4815  33.243   1.398  12.547 -0.1400 -0.0210  0.2906
48575W        W 4816  12.651   4.856  25.567  0.2215 -0.0891 -0.0987
48576W        W 4817  28.281   0.503   5.180 -0.2722  0.0264 -0.0695
48577W        W 4818  29.566  18.224  10.351  0.2440 -0.1498 -0.0865
48578W        W 4819  24.079  35.069  19.220 -0.1882  0.0675  0.2279
48579W        W 4820  23.254  29.311   2.535  0.0776  0.0207 -0.1188
48580W        W 4821  18.780   4.640   7.898 -0.0588 -0.1173  0.2557
48581W        W 4822  30.640  31.989  12.680 -0.1913 -0.3171  0.0441
48582W        W 4823  30.445   5.726  13.482  0.2459  0.1340 -0.2226
48583W        W 4824  26.871  27.825  25.160 -0.3990  0.0848  0.2116
48584W        W 4825  11.229  21.337   1.083  0.2558  0.2819 -0.0226
48585W        W 4826  30.924   4.567  21.821 -0.2589  0.1387 -0.0173
48586W        W 4827   3.925  13.936  19.577 -0.0122 -0.0852  0.0030
48587W        W 4828  30.640   5.905  11.725 -0.1623  0.1427 -0.1591
48588W        W 4829   2.835  17.039  17.605  0.0976 -0.1972  0.1109
48589W        W 4830  24.326  15.834  21.359  0.0203 -0.1035 -0.1380
48590W        W 4831  33.373  12.338   8.774  0.1912  0.0815  0.0740
48591W        W 4832   1.582   1.783  22.228 -0.1917  0.0209 -0.0924
48592W        W 4833  27.597  25.902  18.109 -0.3310 -0.0003 -0.4991
48593W        W 4834  10.394   8.850  20.543 -0.1185  0.1593  0.0570
48594W        W 4835  24.536   4.769  25.018 -0.1908  0.0696 -0.1587
48595W        W 4836  12.971   0.472   2.131  0.3954 -0.3036 -0.0856
48596W        W 4837  19.895   9.629   1.306  0.1454 -0.0517 -0.3362
48597W        W 4838  34.371   1.193  20.947 -0.1326  0.1339 -0.0555
48598W        W 4839   9.558  21.654  23.240 -0.0248  0.2487  0.3068
48599W        W 4840  32.767  27.452  14.057 -0.2311 -0.2045  0.1104
48600W        W 4841   3.095   4.745  24.407 -0.0810 -0.0234  0.1173
48601W        W 4842  34.674  27.967  21.641  0.0394  0.2304 -0.1137
48602W        W 4843  16.120   2.474   3.215 -0.1146  0.1396 -0.0700
48603W        W 4844   6.986  28.055   5.982 -0.0959 -0.3113 -0.1256
48604W        W 4845  16.737  21.882   6.238 -0.2119 -0.0718  0.1740
48605W        W 4846  17.972  34.852  19.358 -0.1298 -0.0526  0.0828
48606W        W 4847  31.729  18.316  11.979  0.2015  0.2607  0.0104
48607W        W 4848  12.495   0.735  25.565  0.0561 -0.0185  0.0701
48608W        W 4849  15.094  20.980  11.897 -0.0277 -0.4334  0.3204
48609W        W 4850  28.640  12.830  22.541 -0.2784  0.0117  0.1301
48610W        W 4851  12.423   6.862  25.577  0.2560 -0.3840  0.1919
48611W        W 4852   6.863   0.084  24.667 -0.4379 -0.0170  0.1155
48612W        W 4853  31.598  11.159  18.862  0.2121 -0.0464 -0.2538
48613W        W 4854  10.608  24.963  12.636 -0.1214  0.0752  0.2791
48614W        W 4855  33.377  28.482   0.012 -0.3056  0.1503  0.0669
48615W        W 4856  24.955  34.267  26.104  0.1658 -0.1435  0.0834
48616W        W 4857  11.930  29.032   3.118 -0.1482  0.0701 -0.1027
48617W        W 4858  11.082  16.508   5.314  0.0724 -0.1336 -0.1120
48618W        W 4859   5.383  11.434  24.061 -0.0312  0.1431 -0.2341
48619W        W 4860   4.206   9.719  22.054 -0.2497  0.5669  0.1319
48620W        W 4861  26.471   2.625  17.885  0.0479 -0.1941 -0.0228
48621W        W 4862  25.290  32.335  24.853  0.0901 -0.1101  0.4094
48622W        W 4863  14.116   4.467  10.714 -0.0419 -0.1497 -0.0740
48623W        W 4864   2.551  33.322  17.448 -0.1952  0.3538 -0.2312
48624W        W 4865  34.732  24.110  14.390 -0.0414 -0.1439 -0.0601
48625W        W 4866   1.325  27.257   0.669 -0.1417  0.2460  0.0557
48626W        W 4867  17.653   0.603  16.232  0.2411  0.1171  0.1630
48627W        W 4868   2.626  28.281  19.225  0.2658  0.0446  0.2450
48628W        W 4869  24.866   1.259  18.949 -0.0182 -0.0598 -0.1004
48629W        W 4870  14.226   0.877   3.438  0.1829  0.0405 -0.2237
48630W        W 4871   8.647  14.598  12.999  0.0191 -0.3349  0.0352
48631W        W 4872  29.167  28.509   2.882  0.1557 -0.0485  0.3255
48632W        W 4873  34.804   3.719  25.330  0.0309  0.3636  0.1129
48633W        W 4874  11.240   4.681  20.462  0.0144  0.3195 -0.3833
48634W        W 4875  12.487  15.857  19.963 -0.0479  0.1243  0.0444
48635W        W 4876  14.086  27.886   5.734 -0.0011  0.2625  0.1201
48636W        W 4877   4.448  19.809  25.113 -0.4149 -0.2756 -0.3642
48637W        W 4878  22.872  29.384   1.228  0.0823 -0.1796 -0.0667
48638W        W 4879  15.062  33.434  10.511 -0.2782  0.0989  0.2172
48639W        W 4880  19.202  17.331   3.171  0.1357  0.1142  0.2807
48640W        W 4881  19.168   1.689   0.350 -0.0439 -0.1027  0.0776
48641W        W 4882  31.863   7.179  24.600  0.0556  0.2310  0.5185
48642W        W 4883  30.638  32.590  21.066 -0.0349  0.0311  0.3089
48643W        W 4884  23.602  23.254  20.037  0.1016 -0.0790 -0.1645
48644W        W 4885   2.721  18.677  15.032 -0.0385 -0.0635 -0.0441
48645W        W 4886   0.670  17.455  13.557  0.1694 -0.0423  0.0217
48646W        W 4887  24.945  22.802  10.310 -0.1013  0.2417  0.1945
48647W        W 4888   7.960  32.033  13.863 -0.0214 -0.2327 -0.3149
48648W        W 4889  18.610  25.447   3.978 -0.2859 -0.3151  0.1363
48649W        W 4890   4.656  18.855   1.986  0.0055 -0.0724 -0.2287
48650W        W 4891   2.420   8.207   0.825 -0.0374  0.3158  0.1599
48651W        W 4892  27.030  15.643  14.462 -0.2736  0.0023  0.1617
48652W        W 4893  12.362   9.111  13.333  0.1493  0.1157 -0.0295
48653W        W 4894  11.109  32.158   6.118 -0.0392 -0.0325  0.1485
48654W        W 4895  23.775  33.423  24.983  0.0071 -0.1027  0.2433
48655W        W 4896  30.904  15.230  23.799 -0.0041 -0.1240 -0.0336
48656W        W 4897   0.713  17.338  14.667  0.1281  0.1919  0.0041
48657W        W 4898  14.794  34.904   4.269  0.1895 -0.1211 -0.0964
48658W        W 4899  24.251   5.824  15.466 -0.0232 -0.0837  0.2248
48659W        W 4900   8.633   5.633  24.160  0.2585  0.1415 -0.1563
48660W        W 4901  33.846  27.463  14.743  0.0183 -0.0624  0.1652
48661W        W 4902  24.223  12.269  14.150 -0.2014  0.0197  0.1247
48662W        W 4903  16.967  20.608  21.779 -0.2944 -0.0330  0.0199
48663W        W 4904   7.050   8.984  21.273 -0.2080 -0.5329  0.0886
48664W        W 4905  34.898  34.862  22.539 -0.0598  0.0208 -0.0925
48665W        W 4906   3.747  19.140  19.305  0.1535  0.0811 -0.3749
48666W        W 4907  11.256  32.176  15.337  0.1115 -0.1834  0.2056
48667W        W 4908   9.444  18.714   4.493 -0.0582  0.0840 -0.0503
48668W        W 4909  12.350   3.679   6.882 -0.0707  0.0581  0.0377
48669W        W 4910  33.293  11.413  12.615  0.0569 -0.1255  0.3344
48670W        W 4911  33.268  33.106   7.409  0.0183 -0.2274  0.1522
48671W        W 4912  11.218  21.169  17.221  0.2017 -0.2716  0.1161
48672W        W 4913   1.123  24.579  19.052 -0.1659  0.1073  0.2721
48673W        W 4914  11.003  16.049  20.904  0.5410  0.0781 -0.2284
48674W        W 4915   2.900  34.090  21.655 -0.3539 -0.0681 -0.3301
48675W        W 4916   2.284  32.593  19.340  0.0166 -0.0550  0.0824
48676W        W 4917  33.247  34.653  23.001 -0.2816  0.0091 -0.3402
48677W        W 4918  27.834  27.849  24.066 -0.3774  0.2668  0.0587
48678W        W 4919  25.617  29.484   3.502 -0.0038 -0.1289 -0.2399
48679W        W 4920  14.918  34.888  11.838 -0.2277 -0.5624 -0.3279
48680W        W 4921  28.229  30.840  13.927  0.0497 -0.2235 -0.0942
48681W        W 4922  16.407  25.845   9.033 -0.0642 -0.2203  0.0386
48682W        W 4923  19.705  34.606  22.569  0.1060  0.0981 -0.0735
48683W        W 4924  34.435   0.045  20.982  0.1112 -0.0258 -0.0957
48684W        W 4925  20.845  21.629  24.701 -0.1920 -0.0103 -0.1502
48685W        W 4926  29.057  12.156  15.283 -0.1191 -0.2158  0.2175
48686W        W 4927  10.820  23.047  14.805  0.2166 -0.1207  0.3353
48687W        W 4928  20.338   2.386  23.991 -0.0659  0.0768 -0.0650
48688W        W 4929  13.973  24.146  16.236  0.0824 -0.1559  0.1795
48689W        W 4930  21.053  22.415  20.213 -0.1040 -0.0615  0.1409
48690W        W 4931  32.463  31.411   2.408  0.0088  0.0368 -0.3134
48691W        W 4932  25.801  17.771   8.627  0.1299 -0.0121 -0.2889
48692W        W 4933  28.102  23.455  17.237  0.1189  0.2416  0.0365
48693W        W 4934  10.601  24.270  13.063 -0.1070 -0.0077  0.0466
48694W        W 4935  22.157  16.283   0.736  0.2304  0.1271  0.0295
48695W        W 4936   0.666  29.061  23.541 -0.2577 -0.3754  0.1851
48696W        W 4937   4.396   7.905   6.602  0.1711  0.3032 -0.0045
48697W        W 4938   0.690  25.020   2.583 -0.0787  0.2526  0.0667
48698W        W 4939   1.312   4.456  22.379 -0.1411 -0.1709  0.1240
48699W        W 4940   6.994  14.892  19.407  0.2619  0.0811 -0.1705
48700W        W 4941   1.217   2.141  14.648 -0.0904  0.0727 -0.2286
48701W        W 4942  15.475  20.960   3.665 -0.2704 -0.0799  0.0094
48702W        W 4943   6.532   6.833  10.857 -0.1012  0.0079 -0.6174
48703W        W 4944  34.561  17.456  22.623 -0.0578 -0.0567 -0.2396
48704W        W 4945  33.722  22.127  24.764 -0.1907 -0.1699  0.2565
48705W        W 4946  29.795   0.117  15.727  0.1872  0.2639 -0.0157
48706W        W 4947  12.331   4.427  21.192 -0.1070 -0.0931  0.4591
48707W        W 4948  31.330  27.549  25.097 -0.1222  0.1570 -0.1333
48708W        W 4949  14.113  26.462  23.863  0.0210  0.0495  0.0408
48709W        W 4950  16.044  23.566   4.048  0.0747  0.2097  0.3649
48710W        W 4951  20.585   5.509  23.448 -0.2364 -0.0868 -0.0363
48711W        W 4952  31.182  26.468  22.268 -0.0833 -0.3693 -0.1019
48712W        W 4953  23.288  27.725  23.129 -0.3377  0.4482 -0.0821
48713W        W 4954  12.472  28.946   1.183 -0.0129  0.2504 -0.1563
48714W        W 4955  15.530  11.783  12.098  0.0140 -0.0291 -0.0361
48715W        W 4956  33.400  11.461   8.329 -0.2035  0.3988  0.1737
48716W        W 4957  10.527  29.372  13.858  0.1026  0.1622  0.1126
48717W        W 4958  33.378  21.017   9.457 -0.1950 -0.0604 -0.2123
48718W        W 4959   1.127  33.626   7.816  0.1295 -0.0070  0.4070
48719W        W 4960   6.016  21.319  22.797  0.2508  0.1404  0.0179
48720W        W 4961  20.216  31.143   6.119  0.0733 -0.0437  0.0014
48721W        W 4962   3.893   5.705  23.513 -0.0525  0.1199  0.0185
48722W        W 4963  21.859  30.977   0.758  0.0667 -0.0805 -0.2507
48723W        W 4964  23.821  26.839  13.821  0.2676  0.3125 -0.3227
48724W        W 4965   8.585   6.227   4.157  0.3487 -0.1548 -0.1351
48725W        W 4966  33.332  27.261  20.138 -0.2073 -0.0699  0.0995
48726W        W 4967  17.444  25.117   2.630 -0.0734 -0.1665 -0.0200
48727W        W 4968   1.505  26.960  17.657  0.3082 -0.0151  0.0580
48728W        W 4969  22.916  18.081  18.599  0.0043 -0.0556  0.1900
48729W        W 4970  32.165   8.179  23.010  0.0947 -0.2752 -0.0409
48730W        W 4971   7.087  31.687  23.048 -0.1030 -0.0864  0.1220
48731W        W 4972   5.871  10.496  20.575  0.2411  0.1026  0.1400
48732W        W 4973  27.553  30.594  11.511  0.2291 -0.0473  0.0726
48733W        W 4974  28.437   0.487  15.210  0.0782  0.1142  0.2135
48734W        W 4975  29.760  24.546  16.787  0.3085 -0.2983 -0.2337
48735W        W 4976   8.744   4.813   7.199  0.1188  0.1463  0.1529
48736W        W 4977  18.152  29.453   1.232 -0.0256 -0.0522 -0.0978
48737W        W 4978  31.300  26.034   0.046  0.0916  0.1932 -0.0807
48738W        W 4979   8.461  20.046   8.282  0.1983  0.0318  0.2411
48739W        W 4980  17.274  18.476   1.120  0.1106  0.3805  0.5352
48740W        W 4981   8.583  10.444   7.707  0.2289  0.0384 -0.0073
48741W        W 4982  16.464   6.274   7.431  0.0863  0.2767  0.0580
48742W        W 4983  18.652  32.304   8.867  0.0216 -0.0783  0.3337
48743W        W 4984  31.774  32.554   2.017 -0.1367  0.0460  0.0770
48744W        W 4985  13.050  16.802  25.409 -0.0528 -0.4614  0.0848
48745W        W 4986   5.657  26.891   1.927  0.0604 -0.1805 -0.2915
48746W        W 4987   5.970   4.079   9.141  0.0729 -0.0958  0.0284
48747W        W 4988  17.850  26.155  10.524  0.0672  0.1874  0.3083
48748W        W 4989   8.614  12.629  18.288  0.2097  0.0386  0.2657
48749W        W 4990   8.503  15.421  23.607  0.3206  0.2295 -0.1391
48750W        W 4991  19.068   1.900   7.049 -0.0045  0.1440 -0.0387
48751W        W 4992  11.797   1.994   5.509 -0.0813  0.1354 -0.2331
48752W        W 4993   7.460  28.043  23.692  0.0785 -0.4067  0.1310
48753W        W 4994  33.925  33.044   1.896  0.1389  0.3031 -0.0737
48754W        W 4995   4.059  16.936   6.093 -0.2832 -0.1601 -0.0977
48755W        W 4996  16.513   9.363  24.283  0.2139 -0.2025  0.4193
48756W        W 4997  28.952   4.726  19.434 -0.0222  0.3169 -0.0629
48757W        W 4998  15.632  30.069  11.357 -0.0211 -0.1032 -0.2057
48758W        W 4999  29.278  31.391   0.474 -0.1582  0.0090 -0.0078
48759W        W 5000  16.757  13.158  24.970  0.0398 -0.1456 -0.2253
48760W        W 5001  15.390  30.485  21.119 -0.3938 -0.0053 -0.2793
48761W        W 5002  15.691  34.028   7.234  0.2122 -0.1098  0.2277
48762W        W 5003   0.381   0.680  19.684 -0.0136 -0.0355  0.5738
48763W        W 5004  23.574   7.041  26.191 -0.1430  0.0891  0.1526
48764W        W 5005   4.006   5.156   9.141 -0.0312  0.0186 -0.2631
48765W        W 5006  18.624   1.500  20.441 -0.4412 -0.1293  0.0129
48766W        W 5007  12.299  16.012   4.914 -0.1249  0.0246  0.1001
48767W        W 5008  17.065  10.279  18.307 -0.0886  0.4789 -0.1907
48768W        W 5009  13.734  10.562  19.969 -0.2311  0.0934  0.0849
48769W        W 5010  21.930   2.999   1.435  0.2342 -0.1506  0.0967
48770W        W 5011  14.156  20.772  21.593 -0.0412 -0.4450 -0.0723
48771W        W 5012  11.491  21.228  10.648  0.1021 -0.3438  0.1316
48772W        W 5013   1.911  22.431   3.492 -0.1838  0.1725  0.0905
48773W        W 5014  32.704  12.642  20.529 -0.0802 -0.3752  0.1402
48774W        W 5015  29.831  27.438  25.409 -0.2341 -0.1695  0.1658
48775W        W 5016   5.723  34.821   5.647  0.0229  0.2970 -0.0902
48776W        W 5017  13.483  14.336  24.833 -0.0477 -0.1739 -0.5194
48777W        W 5018  31.758  21.440  10.940 -0.2144  0.0110  0.2306
48778W        W 5019  19.756  29.411   0.415 -0.4485 -0.0019  0.1774
48779W        W 5020   4.388  25.774   4.931 -0.0974 -0.3705  0.2862
48780W        W 5021   5.471  10.234   0.551 -0.0512 -0.2371 -0.0802
48781W        W 5022   3.038  10.228   2.066 -0.3268 -0.0286  0.2414
48782W        W 5023  26.140  13.933  18.766  0.0809  0.2510 -0.1422
48783W        W 5024  29.113  25.363  12.699  0.0208 -0.0299 -0.1706
48784W        W 5025  21.576  32.187  21.599  0.2195 -0.3228 -0.0633
48785W        W 5026   7.026  26.498   5.276 -0.0609  0.2131 -0.2247
48786W        W 5027  15.173  32.382  11.337 -0.0811 -0.2374 -0.1267
48787W        W 5028   9.561  23.486   4.913  0.0008  0.0086 -0.2291
48788W        W 5029   1.065   3.590  18.082 -0.0955 -0.0072  0.1177
48789W        W 5030   1.768   7.072  16.979 -0.0520  0.1343  0.3314
48790W        W 5031   7.800   6.847   8.062 -0.0446 -0.2519  0.0425
48791W        W 5032  22.295   0.849   2.025  0.1882  0.1676  0.0344
48792W        W 5033  13.539   4.683   1.295  0.0222  0.0363 -0.2729
48793W        W 5034   1.938  22.254  21.298 -0.2030  0.0125  0.0190
48794W        W 5035  18.120  27.662   6.047  0.2318  0.3254  0.2241
48795W        W 5036  26.903  14.201  10.695  0.0454  0.1671  0.1591
48796W        W 5037   0.540  11.027  25.819  0.1645  0.2169 -0.3746
48797W        W 5038  14.886   2.975  19.144  0.3416 -0.0748  0.3834
48798W        W 5039  32.813  12.110  17.259 -0.0265  0.1977 -0.0173
48799W        W 5040  28.530  34.027   5.006  0.0235 -0.0382 -0.0964
48800W        W 5041  13.194  26.563  10.039 -0.0648  0.0955 -0.1812
48801W        W 5042   0.180  21.157   8.261  0.2990  0.2399 -0.0744
48802W        W 5043  31.205  11.110  23.729  0.3057 -0.2033 -0.0736
48803W        W 5044  35.118  12.073  14.712 -0.1880 -0.0928 -0.0075
48804W        W 5045  14.735  29.475   0.450 -0.1589 -0.0047  0.2353
48805W        W 5046  15.364  22.247  23.106 -0.0742 -0.3090  0.0514
48806W        W 5047   0.923  11.401   1.004 -0.0361  0.0548  0.1742
48807W        W 5048   6.558   6.001   3.570  0.0779 -0.2767  0.3617
48808W        W 5049   6.695   7.773  24.745 -0.0352  0.0560 -0.0748
48809W        W 5050   0.624  14.094   0.083  0.0585 -0.1799 -0.0404
48810W        W 5051   9.871  31.973  15.635 -0.4208 -0.0293  0.4423
48811W        W 5052   8.426   0.670   6.889  0.0052 -0.0734 -0.0988
48812W        W 5053  30.165  10.440  15.434 -0.2771  0.1731  0.1920
48813W        W 5054  21.123  25.791  25.388 -0.0376  0.2481 -0.0636
48814W        W 5055  31.119   5.278  15.471  0.0757  0.1820  0.3012
48815W        W 5056   0.324  20.359   9.198  0.0841 -0.2459  0.1682
48816W        W 5057   0.105   4.100   7.278 -0.1993  0.0438  0.0815
48817W        W 5058  26.422   7.195  10.209  0.1139 -0.0075  0.2833
48818W        W 5059  33.604  24.234   9.852  0.2768  0.0523 -0.2461
48819W        W 5060   1.252  35.151   6.552  0.1636  0.0280  0.0894
48820W        W 5061  15.769  33.621  22.204 -0.2393 -0.0044  0.0050
48821W        W 5062  10.495  10.865  10.386 -0.2438  0.0207  0.2786
48822W        W 5063  12.695   0.726  20.998  0.1301  0.0744 -0.0739
48823W        W 5064  29.644   1.172  20.901 -0.3449  0.0465  0.0621
48824W        W 5065  10.761  13.516  22.741  0.2991  0.4241 -0.3998
48825W        W 5066  14.576  32.149  11.038  0.1576 -0.2104 -0.3354
48826W        W 5067  16.245   1.541   0.236 -0.0516 -0.0334  0.3824
48827W        W 5068  31.170  22.773  19.135 -0.3574  0.1409 -0.0016
48828W        W 5069  10.576   5.163  12.251  0.1746  0.3506  0.1956
48829W        W 5070   7.738  11.815  20.151 -0.1746  0.0571 -0.1660
48830W        W 5071  24.145  15.892  21.886 -0.0914  0.2354 -0.2009
48831W        W 5072   5.266  10.502   5.132 -0.3286 -0.1649 -0.3286
48832W        W 5073  10.910  23.613   7.745  0.0794 -0.0091  0.0201
48833W        W 5074  29.618  15.996  11.071  0.0008 -0.0550  0.1492
48834W        W 5075  15.247   8.395   9.125 -0.0761  0.0152  0.0779
48835W        W 5076  12.836  28.440   8.920  0.1247  0.4285  0.0283
48836W        W 5077   5.646  33.605   8.901  0.1466 -0.2915 -0.0554
48837W        W 5078   8.593  26.181   6.234  0.3741  0.2253  0.0861
48838W        W 5079  24.091  35.344   5.879  0.0260  0.1438  0.0417
48839W        W 5080  31.884   0.539  19.847 -0.0476  0.0271 -0.0949
48840W        W 5081  25.548  11.767  22.729 -0.2000 -0.2545  0.0336
48841W        W 5082   3.186   2.791  20.711  0.1633 -0.1372  0.0389
48842W        W 5083  17.101  22.350  10.968  0.0728  0.0746 -0.0863
48843W        W 5084  16.794   0.816   0.552  0.0128  0.1699  0.1327
48844W        W 5085  16.881  34.533  25.835  0.1170 -0.0893 -0.0536
48845W        W 5086  20.271  12.691  24.034  0.0692  0.1918  0.0077
48846W        W 5087  15.865  18.487  11.693  0.0368 -0.0083 -0.0923
48847W        W 5088  34.865   1.607   0.326  0.1080 -0.2461  0.0731
48848W        W 5089  24.969  25.347  18.596  0.2022  0.0164 -0.0717
48849W        W 5090  27.822  12.356  12.234  0.2923  0.0375  0.3424
48850W        W 5091   9.465  30.765   2.933  0.2997  0.0015 -0.1382
48851W        W 5092  29.530   4.533  25.742  0.0140  0.0058 -0.2076
48852W        W 5093   0.963  33.135   9.139  0.1910  0.0743  0.0834
48853W        W 5094  12.796  27.004   0.506 -0.2227  0.0543 -0.0329
48854W        W 5095   5.186   2.063   1.715  0.1552  0.4400  0.0594
48855W        W 5096  29.640  14.632   5.151 -0.0611 -0.0000 -0.1687
48856W        W 5097  21.650  34.985  20.092 -0.1836 -0.0809 -0.1236
48857W        W 5098  34.107  17.538  11.723 -0.1372  0.0997  0.2513
48858W        W 5099  11.438  16.497  12.779 -0.1198  0.0856  0.0398
48859W        W 5100  24.909  15.979  19.542 -0.0616  0.2884 -0.0936
48860W        W 5101  25.705   1.367  12.557  0.0211  0.2498 -0.1696
48861W        W 5102  35.089   5.782   6.048  0.2125  0.0518  0.0488
48862W        W 5103   5.669   3.807  25.594 -0.2551  0.3443  0.0791
48863W        W 5104  11.911  26.109  23.931 -0.1893 -0.2126  0.3714
48864W        W 5105  34.752   0.471   3.909  0.0032  0.0548 -0.3055
48865W        W 5106  20.888  32.440   4.960 -0.1186  0.0792 -0.0635
48866W        W 5107  22.386  17.993   2.479  0.2017  0.2318  0.1102
48867W        W 5108  24.477  34.373   0.419 -0.0420  0.1696  0.3380
48868W        W 5109  16.501  24.840   3.562  0.3741  0.0017 -0.0457
48869W        W 5110   7.603  29.954   1.345 -0.1797 -0.0588  0.0274
48870W        W 5111   9.168   2.369   1.959  0.1970  0.1632  0.0826
48871W        W 5112  20.677   7.170   8.385  0.1890 -0.1662 -0.2131
48872W        W 5113  14.563  34.569   3.873  0.0633  0.1466 -0.1027
48873W        W 5114   9.695  32.658   7.048  0.2963  0.0421  0.0454
48874W        W 5115   8.247  17.324  10.266  0.0279  0.1768  0.1359
48875W        W 5116  28.483  32.661  14.221  0.0133 -0.2646 -0.0207
48876W        W 5117  15.009  27.025   1.294 -0.3079  0.3360  0.0628
48877W        W 5118  10.526   6.411  22.685  0.0608  0.1854 -0.3673
48878W        W 5119  20.564  31.231  19.009  0.1845  0.0899 -0.0400
48879W        W 5120  21.902   0.158  22.408 -0.2279 -0.2821  0.0999
48880W        W 5121  22.864  32.970  16.148 -0.0357  0.0801  0.2265
48881W        W 5122  30.040   5.132  23.893 -0.2360 -0.1807  0.2914
48882W        W 5123  33.897  25.941  15.692 -0.0266 -0.1215 -0.1806
48883W        W 5124  15.505  18.988  13.662  0.0693  0.0979 -0.2257
48884W        W 5125  29.812   2.951   0.980  0.1213 -0.1037 -0.4274
48885W        W 5126  22.948  29.358   5.081  0.0877 -0.1324 -0.0113
48886W        W 5127   8.668  14.067  21.026 -0.0217  0.1644  0.0581
48887W        W 5128  26.956   3.583  17.261 -0.0394  0.4878 -0.0755
48888W        W 5129  11.420  26.498  25.202 -0.0714  0.3833  0.3280
48889W        W 5130   2.574  24.678   4.040  0.1273 -0.0832  0.0602
48890W        W 5131  35.263  13.595  21.379 -0.3717  0.0393 -0.0754
48891W        W 5132   7.119  12.661   6.063  0.1972 -0.0450  0.3211
48892W        W 5133   1.109  20.838   9.167 -0.0317 -0.0586 -0.0973
48893W        W 5134  20.300   5.054  18.880  0.2683 -0.0687 -0.0927
48894W        W 5135  24.484  32.055  13.185  0.0414 -0.0139 -0.2619
48895W        W 5136   6.249  15.893   1.147 -0.3922 -0.1351  0.0155
48896W        W 5137  15.731  22.509   4.995 -0.2933 -0.0482  0.1898
48897W        W 5138  12.808   9.115   3.942  0.3599  0.1972  0.0226
48898W        W 5139  28.959  20.321  21.830  0.0801 -0.3605 -0.1571
48899W        W 5140   2.379  25.152   1.930 -0.0309 -0.1797  0.1407
48900W        W 5141  21.401   8.390   5.138  0.0044 -0.3996  0.0990
48901W        W 5142  30.020  22.801  22.774  0.0628  0.0842 -0.0858
48902W        W 5143  21.183  27.130  18.446 -0.2003  0.0250 -0.1444
48903W        W 5144  23.595  14.044  12.790 -0.0981 -0.0210  0.0649
48904W        W 5145   8.462   6.364  18.952  0.2248 -0.1785  0.0466
48905W        W 5146  24.645  16.195  24.246 -0.0109  0.2140  0.1669
48906W        W 5147  16.843   7.113   9.114 -0.2009 -0.1679  0.1645
48907W        W 5148  18.979  11.265   3.615  0.3367  0.1133 -0.4125
48908W        W 5149  20.898  10.428  18.602 -0.1322 -0.1636  0.2423
48909W        W 5150   5.777  12.672   6.460 -0.0303  0.1306  0.0346
48910W        W 5151   5.030   0.364   7.775  0.2413 -0.0270  0.0445
48911W        W 5152  23.572  25.560   4.457  0.0707  0.0834  0.2090
48912W        W 5153   5.859  20.403  19.953 -0.0766 -0.3539  0.3109
48913W        W 5154   5.365  15.021   6.888  0.4141 -0.2285  0.0180
48914W        W 5155  22.688   8.421  26.162 -0.0438  0.2470 -0.2271
48915W        W 5156  12.199  26.594  11.813  0.4644 -0.0847 -0.1459
48916W        W 5157   1.699  31.124  25.984 -0.1036  0.2082  0.3905
48917W        W 5158  25.424  27.077   3.227  0.0293 -0.0485 -0.0177
48918W        W 5159  30.376   6.356  11.241 -0.3085 -0.1538  0.0677
48919W        W 5160  26.500   2.452  25.982 -0.3695 -0.3514  0.2237
48920W        W 5161  22.464  19.992  24.785  0.1153  0.1347  0.2513
48921W        W 5162  14.170  30.314   3.423 -0.0032 -0.0574 -0.1190
48922W        W 5163  18.409  11.310  19.431  0.2716 -0.0885 -0.2403
48923W        W 5164  12.160  15.288  25.602  0.0313  0.0611 -0.0967
48924W        W 5165  15.777   4.591  25.854 -0.0008  0.0079  0.1106
48925W        W 5166  32.424  18.819   8.951  0.1718 -0.1178  0.1744
48926W        W 5167  31.822  29.897  19.909 -0.1873 -0.0239  0.1442
48927W        W 5168  19.700   4.168  22.552  0.0604  0.0970  0.1182
48928W        W 5169   3.006   7.750  21.363  0.0815 -0.1652  0.0537
48929W        W 5170  10.472  10.517  11.939 -0.0689  0.2705 -0.0450
48930W        W 5171   6.372   3.798   5.104  0.0029  0.0486  0.0303
48931W        W 5172  26.299  14.206   8.432 -0.2293  0.1168 -0.2849
48932W        W 5173  23.862  28.072   4.509 -0.1699  0.1316  0.1206
48933W        W 5174  13.006   6.953  22.969 -0.2309  0.2927 -0.2121
48934W        W 5175  15.952   3.701  21.744  0.0997  0.0942  0.0147
48935W        W 5176   5.331  33.090  25.660 -0.1729 -0.0473 -0.2535
48936W        W 5177   5.087  11.986  15.987 -0.0913 -0.0817  0.1989
48937W        W 5178   6.433  29.919   8.879  0.0604  0.0074  0.1508
48938W        W 5179  24.019  13.782  10.852  0.0454  0.0109  0.3700
48939W        W 5180  19.745  11.396   3.973 -0.0726  0.1570  0.0370
48940W        W 5181  26.821  28.024  11.679 -0.0550 -0.2281  0.1328
48941W        W 5182  10.909  17.153   8.450 -0.1609  0.2682 -0.2039
48942W        W 5183  13.048   0.464   8.174 -0.0346  0.1682 -0.1818
48943W        W 5184   8.461  22.303  15.495  0.0576 -0.1255 -0.2187
48944W        W 5185  24.776   3.001  20.614 -0.0698  0.1709 -0.4491
48945W        W 5186  17.905  31.379   2.277  0.1546 -0.2018  0.0947
48946W        W 5187   3.325  11.390   3.531 -0.2999 -0.0623 -0.2125
48947W        W 5188   2.734  20.825  14.625 -0.0729  0.0325  0.0300
48948W        W 5189   1.408   6.925   2.884 -0.2340  0.0950  0.0735
48949W        W 5190  18.306  19.301  19.372  0.0653  0.1096  0.1635
48950W        W 5191  19.068  15.522   5.930 -0.2114  0.1692 -0.1424
48951W        W 5192   9.101   1.607  20.314  0.0541  0.0181 -0.4556
48952W        W 5193   6.669  33.424  10.100  0.0309 -0.0686 -0.2459
48953W        W 5194  16.180   7.304  20.773  0.1079 -0.0281 -0.1866
48954W        W 5195  32.887  16.800  22.850  0.3082  0.0665 -0.1064
48955W        W 5196   6.725  13.443   6.250  0.1880  0.2005  0.1434
48956W        W 5197  33.902   1.189  15.275  0.0426  0.1633  0.0389
48957W        W 5198   2.916   2.670  16.927 -0.0194 -0.0276  0.0556
48958W        W 5199  20.176   1.993  25.158 -0.0690  0.0235  0.2315
48959W        W 5200  32.140  11.283   6.927 -0.1597  0.0721  0.0982
48960W        W 5201  35.256  30.431   5.166 -0.1107 -0.1019 -0.3279
48961W        W 5202  18.761  18.983  23.615 -0.2826  0.0089  0.0249
48962W        W 5203   7.108  15.857   4.032  0.2625 -0.2338  0.2017
48963W        W 5204  33.636   7.474  23.344  0.1706  0.0058  0.1105
48964W        W 5205  12.185  25.429  23.329  0.2018  0.2104 -0.0393
48965W        W 5206  30.706  15.231  14.814 -0.2315 -0.3230 -0.1274
48966W        W 5207  19.679  32.906   6.027 -0.2530  0.0272 -0.2682
48967W        W 5208  13.936   6.343  25.441 -0.3163 -0.0301  0.1203
48968W        W 5209  30.873  33.053  14.418  0.0702 -0.1035 -0.2464
48969W        W 5210  33.341  30.546  14.717 -0.3064 -0.1417  0.0758
48970W        W 5211   4.907  24.576   2.181  0.1119  0.1773 -0.2178
48971W        W 5212  13.438  22.849   7.190  0.0841 -0.0643  0.4532
48972W        W 5213  12.814   4.203  21.400  0.2470 -0.2559 -0.0385
48973W        W 5214  25.975   8.081  11.168 -0.0332 -0.4012 -0.1900
48974W        W 5215   9.633   2.509   0.641  0.3395  0.2806  0.0063
48975W        W 5216  19.051   1.265  20.450 -0.0328 -0.2647  0.0810
48976W        W 5217  17.684  17.467   0.580  0.0622  0.1656 -0.1955
48977W        W 5218  29.910  13.957   9.630 -0.0919 -0.0221 -0.1082
48978W        W 5219  32.998  14.260  22.256  0.1278  0.0794 -0.2022
48979W        W 5220  20.775   8.168   7.590 -0.1109  0.0134 -0.0969
48980W        W 5221  24.862  19.956  15.464  0.1727  0.1393 -0.2707
48981W        W 5222  23.366  35.067   4.281  0.0732  0.1282 -0.0455
48982W        W 5223  19.860  30.400  21.929 -0.0578  0.1284  0.0659
48983W        W 5224  15.444  32.807  20.696 -0.2326  0.0750  0.1075
48984W        W 5225   0.434  34.083   7.253 -0.0590 -0.2526  0.0400
48985W        W 5226  13.994   0.799   9.813 -0.1671  0.0121 -0.2376
48986W        W 5227  10.666  18.505  24.853  0.1765 -0.2461  0.2563
48987W        W 5228  13.670   8.680  13.668  0.0541  0.2136 -0.0580
48988W        W 5229   4.596  26.268  10.848 -0.1528  0.0238 -0.1494
48989W        W 5230   1.547   5.246  21.241  0.0566  0.0472 -0.1758
48990W        W 5231  17.555   3.253  19.614  0.0720  0.1473 -0.0671
48991W        W 5232  34.163  16.195  15.626  0.1332 -0.1143 -0.0830
48992W        W 5233  17.158  31.218  19.766  0.0196  0.0635  0.1843
48993W        W 5234  27.092   2.547  24.611  0.2647  0.2605 -0.1230
48994W        W 5235  18.997   7.629   8.896 -0.4056 -0.4251  0.1465
48995W        W 5236  34.963  18.858  18.088  0.0263  0.1275  0.2187
48996W        W 5237  30.223  31.569  21.918 -0.0441 -0.2447 -0.0445
48997W        W 5238  19.288   3.499  25.787  0.0386  0.2459 -0.2309
48998W        W 5239  30.034  27.094  20.227  0.1258 -0.1142  0.0877
48999W        W 5240  12.820  27.045  12.582  0.0275  0.0553  0.1502
49000W        W 5241  27.624  27.071   1.412  0.1067  0.0956  0.0626
49001W        W 5242   1.738  22.434  18.781  0.1450  0.0444 -0.4086
49002W        W 5243  15.766  12.331   3.827 -0.1900 -0.0848 -0.3816
49003W        W 5244  30.088  26.137  11.652  0.5157  0.0209  0.1511
49004W        W 5245  11.549  30.266  23.806 -0.0908 -0.1501  0.4456
49005W        W 5246  12.291   4.103  11.687  0.2231 -0.3523 -0.3147
49006W        W 5247  33.549  30.539  24.470  0.2330 -0.1680 -0.1327
49007W        W 5248  13.281  23.426   3.275  0.3165 -0.1588 -0.0647
49008W        W 5249  26.107  15.451  23.897  0.1163  0.0471  0.2222
49009W        W 5250   9.270  27.395  12.303  0.0863 -0.0593  0.2602
49010W        W 5251  12.314  32.535  24.570 -0.0887 -0.0675  0.1921
49011W        W 5252  35.114  15.666  23.269  0.1750 -0.1645  0.1131
49012W        W 5253  20.417  17.493   4.502 -0.0297 -0.0038 -0.1714
49013W        W 5254  18.051   8.363   8.064 -0.0100 -0.0582 -0.0598
49014W        W 5255  26.845  34.611  13.199  0.0482 -0.2875 -0.0202
49015W        W 5256   9.661   0.839   3.152 -0.0602  0.1964  0.1081
49016W        W 5257  18.606  29.410  21.423  0.0300  0.0050  0.0018
49017W        W 5258  10.058  20.126   7.201  0.3276 -0.0625 -0.2433
49018W        W 5259   5.528   7.331   7.343  0.1275 -0.0076  0.1917
49019W        W 5260  30.952  25.354  17.880  0.0469 -0.1526 -0.1220
49020W        W 5261  11.900  28.159   2.088 -0.0230  0.3178 -0.0613
49021W        W 5262  12.339  34.774  10.231  0.2263 -0.0094 -0.1524
49022W        W 5263   9.912  11.998   6.368 -0.5422 -0.2897  0.0802
49023W        W 5264  34.582   3.505   3.152 -0.1652 -0.2257 -0.2112
49024W        W 5265  25.746  30.037  10.657  0.0359 -0.0251 -0.1687
49025W        W 5266   1.679  30.923   1.221 -0.0186 -0.0478 -0.4273
49026W        W 5267  23.160  12.450  23.627 -0.0606  0.2837 -0.0132
49027W        W 5268   4.267  33.474  25.355  0.3068  0.2902  0.4009
49028W        W 5269  20.155   1.070   3.623 -0.1388  0.2255  0.0096
49029W        W 5270   3.192  34.426   8.740 -0.1303  0.2673 -0.0828
49030W        W 5271  33.885   8.959   2.534  0.1212 -0.0380  0.1586
49031W        W 5272   8.962  16.089   4.464 -0.0907  0.3246  0.2304
49032W        W 5273  30.880  28.992   3.273 -0.0921  0.1451 -0.1388
49033W        W 5274  26.547   8.437   0.886  0.0407 -0.2408  0.2027
49034W        W 5275  28.918   6.260   1.221  0.2701 -0.0161  0.1555
49035W        W 5276  13.724  23.563  11.386 -0.1613 -0.1985 -0.2129
49036W        W 5277   6.537  32.402   1.836  0.1678 -0.3312 -0.2549
49037W        W 5278  19.585   9.646  10.120 -0.2538 -0.3488  0.1834
49038W        W 5279  30.756  22.781  15.949  0.1187  0.3317 -0.1476
49039W        W 5280   8.814   2.130  14.407  0.1887  0.2624 -0.1540
49040W        W 5281  14.734  20.717  23.746  0.0490 -0.1059  0.0262
49041W        W 5282  21.536  29.125  19.294 -0.1687  0.0701 -0.1492
49042W        W 5283  23.302  19.339  15.780 -0.0365  0.1271 -0.2414
49043W        W 5284  32.902   4.635   1.404 -0.1100  0.3226 -0.1263
49044W        W 5285   9.225   8.004  12.099 -0.4342  0.4028 -0.0339
49045W        W 5286  13.485  17.647  14.424  0.0611  0.0368 -0.1491
49046W        W 5287  24.363  24.443  11.712 -0.1196  0.0218 -0.1537
49047W        W 5288  10.275  15.614   7.928  0.0999  0.0540  0.1941
49048W        W 5289  16.372  13.348  19.667 -0.0586 -0.0375 -0.1367
49049W        W 5290  11.821   3.812   2.162  0.0749  0.0315  0.1339
49050W        W 5291  27.260   5.015   2.485  0.0679  0.0145  0.0341
49051W        W 5292   7.253   3.350   1.982 -0.2313  0.3588 -0.2260
49052W        W 5293   3.576  13.566  19.571  0.3180  0.0332  0.2116
49053W        W 5294  17.083  31.679  10.065  0.2739 -0.0855  0.0928
49054W        W 5295   7.581   3.332  25.384 -0.1661 -0.0557 -0.0401
49055W        W 5296  10.202  10.675   5.856  0.0539  0.0797  0.0952
49056W        W 5297  14.283  17.954  23.371 -0.2215  0.1960 -0.1489
49057W        W 5298  33.117  16.668  11.195  0.0208 -0.1192 -0.2161
49058W        W 5299  16.978  27.742  26.002 -0.1319 -0.0117  0.2571
49059W        W 5300   3.246  24.304  20.109  0.0189  0.0120 -0.4348
49060W        W 5301  24.838   6.124  15.950 -0.2862  0.0603  0.0326
49061W        W 5302  24.861  20.195  11.718 -0.0393  0.0600 -0.0864
49062W        W 5303   4.959  24.701  24.567 -0.1681 -0.1077 -0.1601
49063W        W 5304  21.448   6.301  16.457  0.0861 -0.0631  0.4152
49064W        W 5305  10.576  20.458  11.225  0.1547 -0.1630  0.1803
49065W        W 5306  31.555  30.051  16.824  0.1707  0.1766  0.2353
49066W        W 5307  21.032  14.755  19.313  0.0802 -0.0878 -0.0602
49067W        W 5308   7.087  31.204  22.958 -0.2197  0.2225  0.3516
49068W        W 5309  25.587   6.839  23.132 -0.1685  0.2416 -0.6153
49069W        W 5310  35.269  30.035  19.868  0.1654  0.1640 -0.1159
49070W        W 5311  24.919   2.952  24.934 -0.1781  0.0156 -0.2907
49071W        W 5312  10.716  11.853   0.778  0.2233  0.3150  0.0047
49072W        W 5313  34.573  12.075  14.651 -0.0917  0.0454  0.2707
49073W        W 5314  32.135  21.687   7.749 -0.2904 -0.2845 -0.2112
49074W        W 5315  28.173  25.621  19.280  0.1416 -0.0801 -0.0758
49075W        W 5316  27.413  13.851  19.508 -0.1900  0.1568 -0.0293
49076W        W 5317  12.599  14.324  19.313  0.2269 -0.2147  0.2507
49077W        W 5318  24.557  29.071  10.461 -0.1690 -0.0321  0.0369
49078W        W 5319  32.581  15.725  10.252 -0.1765  0.0761 -0.2773
49079W        W 5320  28.880   9.749  19.803  0.4341  0.0221 -0.3509
49080W        W 5321   2.356   4.384  19.953 -0.0312  0.2415 -0.0435
49081W        W 5322  26.981  25.137  22.877  0.0401  0.0739  0.2963
49082W        W 5323  28.778  24.390   9.274 -0.0223 -0.1804  0.2512
49083W        W 5324  30.272   6.279  25.896 -0.3184 -0.1882 -0.1432
49084W        W 5325  13.982   2.214   6.430  0.1266  0.0333 -0.3098
49085W        W 5326  27.243  12.134   1.229 -0.1919 -0.0366  0.4713
49086W        W 5327  13.001  26.234  11.301  0.0865  0.1670  0.2631
49087W        W 5328  21.101   5.270  17.988 -0.0591  0.1514  0.1273
49088W        W 5329  14.860  31.557   3.183 -0.0012 -0.0269 -0.1697
49089W        W 5330  26.162   3.436  19.345 -0.2017  0.3746 -0.0685
49090W        W 5331  24.208  34.176  13.551  0.3598 -0.3446  0.3692
49091W        W 5332  30.663  31.170  20.245  0.0737 -0.4529 -0.0156
49092W        W 5333  17.463  29.985  24.084 -0.2696  0.0191 -0.1055
49093W        W 5334  29.584  20.701   9.036  0.1817 -0.1209  0.4690
49094W        W 5335  15.844   7.985   5.407  0.0519  0.1675 -0.1943
49095W        W 5336  17.363  22.254   3.559  0.1577  0.1212 -0.1729
49096W        W 5337  13.674   2.324   0.107  0.0480 -0.1280  0.0053
49097W        W 5338   4.962  12.937   7.945  0.3489  0.3413  0.1407
49098W        W 5339  30.947   8.833  15.910 -0.1021 -0.1029  0.1153
49099W        W 5340  18.481   1.747  22.208  0.1260  0.1375  0.2585
49100W        W 5341  33.470  18.515   5.780  0.0178 -0.1548  0.0411
49101W        W 5342  18.168   6.876  23.800  0.2007  0.2224  0.0598
49102W        W 5343   9.298  15.216   2.213  0.0419  0.1131  0.1672
49103W        W 5344   9.533  29.766   9.681 -0.0691  0.0506 -0.0282
49104W        W 5345  34.405   1.431   0.082 -0.2910  0.1863 -0.2292
49105W        W 5346  29.391  33.740  22.435 -0.3077 -0.1282  0.2172
49106W        W 5347  11.659  24.167  22.609  0.2168  0.2020 -0.2655
49107W        W 5348  17.322  23.347   0.873  0.1428 -0.0313  0.0372
49108W        W 5349  12.143   8.854   1.635 -0.4644 -0.1845  0.1430
49109W        W 5350  19.429  15.996  19.493  0.2941 -0.0398  0.2504
49110W        W 5351  34.143  32.744  15.160 -0.3063  0.0466 -0.1140
49111W        W 5352  10.562  20.463  25.246  0.1557  0.2639  0.3136
49112W        W 5353  21.473  32.731   2.999 -0.0350 -0.1371 -0.1099
49113W        W 5354   9.952  23.650   5.736 -0.0019 -0.2749 -0.2321
49114W        W 5355   7.561  34.464   7.534 -0.0042 -0.0001 -0.1567
49115W        W 5356  13.331  28.468  26.047  0.1528 -0.4308 -0.1114
49116W        W 5357  18.646  25.251   8.537 -0.0540  0.2847  0.1687
49117W        W 5358  31.770  34.129  17.852 -0.3720 -0.1074  0.0464
49118W        W 5359  20.677   8.439  19.823  0.2469  0.4242 -0.1332
49119W        W 5360  34.865  15.364  17.804  0.1659  0.0797  0.0163
49120W        W 5361  13.017  21.818   0.147 -0.0440 -0.1194  0.0319
49121W        W 5362  19.807  23.884   2.867  0.1573 -0.3913 -0.1151
49122W        W 5363  32.175   8.160  16.417  0.3918  0.2427  0.0232
49123W        W 5364  27.472  33.337   1.251  0.1157  0.0383  0.0436
49124W        W 5365  12.014  13.604  12.055 -0.0924  0.1750 -0.1291
49125W        W 5366   9.759   0.070   7.272  0.0347  0.2467  0.0382
49126W        W 5367  18.855  26.443   5.105  0.1649  0.0255 -0.1704
49127W        W 5368  22.898   3.010   8.302  0.0518  0.0366  0.2534
49128W        W 5369  30.647  14.845  12.445  0.1694 -0.2744  0.2653
49129W        W 5370   5.100  22.396  23.821  0.0081  0.2505 -0.3797
49130W        W 5371  26.814  30.014  25.988 -0.0571  0.1442 -0.2094
49131W        W 5372  14.486  20.941  21.241  0.2718  0.1960  0.1054
49132W        W 5373  31.688  15.011  19.302 -0.2282  0.0526 -0.3503
49133W        W 5374   4.725  29.465   0.175  0.0372 -0.3470 -0.0682
49134W        W 5375   8.742   4.842  23.134 -0.1223  0.1025  0.4839
49135W        W 5376  31.609  16.729  19.804 -0.0257  0.0713  0.0505
49136W        W 5377  30.746  32.857   1.233 -0.2206 -0.2982 -0.1936
49137W        W 5378  26.259  28.470  23.997 -0.2883  0.2057  0.1582
49138W        W 5379  29.867  21.542  24.846 -0.2056 -0.3102  0.4758
49139W        W 5380  28.912  14.259  14.197  0.1027 -0.1366  0.1145
49140W        W 5381  23.566  32.069  22.356  0.0209  0.0437  0.0810
49141W        W 5382   6.089  15.093   6.303  0.3521 -0.2350  0.0989
49142W        W 5383   7.743  13.903  20.643  0.1507 -0.1162 -0.2142
49143W        W 5384  15.156  10.131   4.270 -0.0579 -0.0756  0.2262
49144W        W 5385  25.042  10.376   1.934 -0.1497  0.0256 -0.0992
49145W        W 5386   1.029   0.603  25.868  0.0457 -0.1229 -0.0325
49146W        W 5387   2.543  28.434   9.055  0.1106  0.1298  0.1650
49147W        W 5388  15.590  22.165   0.536 -0.0307 -0.0437  0.0410
49148W        W 5389   3.509   8.582   5.760 -0.2410 -0.0459  0.0666
49149W        W 5390   7.991  11.807  19.290 -0.1872 -0.0750  0.0405
49150W        W 5391   0.517  31.258   3.825  0.2583 -0.1090 -0.0456
49151W        W 5392   0.855  13.777  17.631  0.3432 -0.3797 -0.0901
49152W        W 5393  18.690  18.255  11.118 -0.0509 -0.1601  0.0915
49153W        W 5394  22.399   0.687  20.543  0.2032 -0.1066 -0.0948
49154W        W 5395  34.896   8.679  14.276 -0.1579  0.0880  0.1636
49155W        W 5396  13.188  23.026  15.059 -0.0245  0.0899 -0.0204
49156W        W 5397   8.692  24.825  24.859  0.0094 -0.2488  0.0425
49157W        W 5398  33.263  29.012  11.940  0.1517  0.1174  0.1006
49158W        W 5399  23.118   4.912  18.813  0.0312  0.0154  0.0953
49159W        W 5400  24.739  29.052  14.409  0.3490  0.1042  0.1045
49160W        W 5401  32.311   2.665  13.167 -0.1542 -0.0334  0.2202
49161W        W 5402   6.285  11.336   3.201 -0.1514  0.5806 -0.0312
49162W        W 5403  10.891  30.070   3.942  0.1090  0.1458 -0.2177
49163W        W 5404   2.690  24.513   1.278  0.1435 -0.0429 -0.0112
49164W        W 5405  13.993   6.583   4.027 -0.1208  0.0843  0.0013
49165W        W 5406  25.877   0.105  18.582 -0.0609 -0.1674  0.3012
49166W        W 5407  25.271  18.803  20.731 -0.3077  0.0338 -0.1555
49167W        W 5408  23.194  28.883  14.640 -0.0424  0.2026 -0.2111
49168W        W 5409   8.384  27.265  24.008 -0.2909  0.0479 -0.1348
49169W        W 5410  23.426  13.238  20.237  0.2528  0.3922  0.0570
49170W        W 5411  22.893  18.019   2.847  0.0612 -0.0652 -0.1539
49171W        W 5412  27.683   2.565  23.675 -0.0612  0.1651  0.1469
49172W        W 5413  21.429  34.588   2.690 -0.2377  0.0654 -0.1071
49173W        W 5414  32.865  19.154  23.635 -0.1785 -0.2463  0.1556
49174W        W 5415  19.810  19.864  17.852 -0.2567 -0.1932 -0.0088
49175W        W 5416  22.353  26.143   0.764 -0.0949 -0.3270  0.1834
49176W        W 5417   3.773   8.861  21.152 -0.2744 -0.0190 -0.0479
49177W        W 5418  27.345   5.741  20.778  0.1511 -0.0369 -0.0938
49178W        W 5419  16.611  34.325   4.916  0.1406  0.2535  0.2612
49179W        W 5420  27.931  18.841  25.377 -0.4007 -0.1159  0.0513
49180W        W 5421  24.489  18.495  17.570 -0.1919  0.1471 -0.0487
49181W        W 5422  23.015  12.050  13.598 -0.4121 -0.0311  0.0243
49182W        W 5423  10.615  16.002   1.131 -0.0208 -0.1677  0.1427
49183W        W 5424  34.582   3.813   7.390  0.1809  0.0772  0.0403
49184W        W 5425   4.858  19.708   1.584 -0.2598  0.1403  0.1113
49185W        W 5426  22.306  33.791  19.316 -0.2060  0.1948  0.2218
49186W        W 5427  30.109  31.724   1.057 -0.1560 -0.2045  0.2461
49187W        W 5428  23.092  10.949  25.577  0.3562  0.3711  0.2561
49188W        W 5429   0.605  17.310  18.548 -0.0791 -0.0462 -0.1336
49189W        W 5430  31.337   3.442  11.402 -0.1381 -0.1087  0.3429
49190W        W 5431  28.833  19.764  17.393 -0.0540  0.1721  0.5063
49191W        W 5432   5.302  34.225   3.844  0.0000 -0.1109  0.2047
49192W        W 5433  10.956  21.387  16.773  0.1459 -0.0509 -0.0951
49193W        W 5434   5.649   6.420   1.567 -0.1717 -0.3477  0.0303
49194W        W 5435  22.075  19.494  25.378 -0.1336 -0.2199 -0.0398
49195W        W 5436  26.442   6.919  21.704  0.3647 -0.2697  0.2304
49196W        W 5437  13.678   7.033   2.337 -0.1109 -0.4153  0.0416
49197W        W 5438  32.112   0.393  17.363 -0.0589 -0.1251  0.0516
49198W        W 5439   7.731  28.067   2.700  0.1263 -0.1338 -0.1015
49199W        W 5440  26.174   9.780  11.208  0.0034  0.1806 -0.2049
49200W        W 5441  28.140  29.836  12.982  0.0570  0.1887 -0.0334
49201W        W 5442  15.555  33.228   0.915  0.2593  0.2212 -0.2676
49202W        W 5443  21.909  21.849  20.119  0.3932 -0.0457  0.0232
49203W        W 5444  29.038   3.812  12.026 -0.1802 -0.1151 -0.2730
49204W        W 5445  24.636  18.958  24.450  0.1124  0.0871 -0.3588
49205W        W 5446   8.513   0.114  15.491 -0.3469 -0.0423 -0.2033
49206W        W 5447   7.577  28.695   1.448  0.0492 -0.2364 -0.0899
49207W        W 5448   8.851   6.574  20.093  0.2832  0.0022 -0.1684
49208W        W 5449  23.568   0.169  14.670  0.2543  0.0226 -0.0708
49209W        W 5450   3.670   5.481   8.250 -0.0332  0.0620 -0.1592
49210W        W 5451  31.431   7.611   9.932 -0.5982  0.0873  0.3463
49211W        W 5452   0.905  32.886   6.774  0.0386  0.0247  0.0148
49212W        W 5453  35.121  17.272  13.910  0.3560 -0.1290  0.1548
49213W        W 5454  21.370  27.990  23.370 -0.1969  0.0813 -0.3900
49214W        W 5455   3.733   8.341  20.250 -0.3830 -0.2973  0.0108
49215W        W 5456   4.181  13.748   6.566 -0.1667  0.1011  0.0603
49216W        W 5457  23.517  13.537  23.475 -0.0139 -0.1704  0.0676
49217W        W 5458  30.590  19.527  18.272 -0.0111 -0.1266  0.1334
49218W        W 5459  19.930  16.627   2.254 -0.2344 -0.0672  0.2837
49219W        W 5460  16.749  26.447  23.519  0.0345  0.0608 -0.1335
49220W        W 5461  14.339  32.701  10.759 -0.1940 -0.0936  0.0907
49221W        W 5462   0.510  26.086  22.006  0.0031 -0.0247 -0.0801
49222W        W 5463   4.761  14.145   3.170  0.1412  0.0218 -0.0098
49223W        W 5464  14.897  12.906  12.237 -0.1134  0.0088 -0.0694
49224W        W 5465   9.746  13.854   3.267  0.3722  0.1236 -0.0282
49225W        W 5466   4.709  33.094  24.802 -0.1812  0.1045  0.2341
49226W        W 5467  13.799   4.897  19.862  0.2218 -0.0302  0.1538
49227W        W 5468  27.490   8.373  13.700  0.2136  0.3283 -0.0361
49228W        W 5469  12.860  35.093   7.909 -0.3295 -0.3670  0.0505
49229W        W 5470  20.583   1.620  23.732 -0.0647 -0.2509 -0.3801
49230W        W 5471  34.468  33.209   5.219  0.2948  0.0350  0.2573
49231W        W 5472  24.722  22.088  22.552 -0.1588 -0.1298  0.3515
49232W        W 5473  20.770  27.056   2.642  0.2888 -0.2650  0.0324
49233W        W 5474  11.479   4.143  13.513 -0.3281 -0.2384 -0.0289
49234W        W 5475  17.312  29.514  24.673 -0.2085  0.2730 -0.1276
49235W        W 5476  30.161  17.508  23.053  0.0945  0.2550 -0.1511
49236W        W 5477  25.748  18.107  20.698 -0.1407  0.0219 -0.1646
49237W        W 5478   3.716  19.591  22.844  0.3069 -0.0902  0.0552
49238W        W 5479  31.143  16.545  13.235 -0.1353  0.0730 -0.0411
49239W        W 5480  10.760   2.732   1.037  0.3260  0.0234 -0.0496
49240W        W 5481   6.566  34.638   5.773 -0.0958  0.2762  0.2388
49241W        W 5482  14.185  33.298  22.074  0.2844  0.0271  0.0907
49242W        W 5483  32.366   1.588  24.767  0.2946 -0.0142  0.0290
49243W        W 5484  27.357  14.618  20.843  0.0283  0.0618  0.3405
49244W        W 5485  25.064  34.801  23.807  0.0473 -0.2631  0.1456
49245W        W 5486   2.643  20.157   1.046  0.2426  0.1614 -0.2121
49246W        W 5487  22.895   0.686  13.380 -0.0826  0.0510 -0.0985
49247W        W 5488   5.440   4.311  22.063 -0.2110  0.2729  0.0043
49248W        W 5489  12.403   3.296   2.586  0.0253 -0.0786  0.0146
49249W        W 5490   1.193  17.768  16.025  0.0251  0.2622 -0.4984
49250W        W 5491  32.750  20.156  24.027  0.1441  0.1943  0.0777
49251W        W 5492  18.165  15.393   8.423 -0.0202 -0.3023  0.0048
49252W        W 5493  13.065  33.079  24.978  0.0192  0.1924  0.1024
49253W        W 5494   8.166  16.606  25.537 -0.3099 -0.1876 -0.1096
49254W        W 5495  31.358  28.205  17.970 -0.0872 -0.2141 -0.3190
49255W        W 5496  33.332  10.656   1.139 -0.0539 -0.1516 -0.0802
49256W        W 5497  27.309  11.593  18.069 -0.0258  0.4099  0.2467
49257W        W 5498  18.631   7.135   4.749  0.1677  0.0816  0.0613
49258W        W 5499  32.050  30.386  20.535 -0.1307 -0.0612  0.0062
49259W        W 5500  20.851  33.819  18.458  0.1966  0.0348 -0.0449
49260W        W 5501  11.992  30.127  16.183 -0.0671  0.2357  0.0693
49261W        W 5502  19.019  21.940   5.022 -0.0879  0.2147  0.3260
49262W        W 5503  18.054  32.662   1.773 -0.0890  0.1281  0.0450
49263W        W 5504   1.740   7.247  14.744  0.1318 -0.2138  0.1412
49264W        W 5505  24.195   8.647  23.654  0.0658 -0.4681  0.2871
49265W        W 5506  13.348  19.524  25.363 -0.2491 -0.5143  0.1021
49266W        W 5507   8.157  20.427  24.587  0.2047 -0.0727  0.1115
49267W        W 5508   1.643  31.413  24.166 -0.0427 -0.3270  0.0420
49268W        W 5509  23.172   9.633  17.681 -0.3289  0.0006 -0.0151
49269W        W 5510  31.645  25.060  20.991  0.0055 -0.1267  0.0220
49270W        W 5511  14.010  24.082  12.094  0.1980  0.1416 -0.1451
49271W        W 5512   2.286  26.120  22.475 -0.4437  0.2160  0.0104
49272W        W 5513  16.880  27.514  24.757  0.2776  0.1353 -0.3388
49273W        W 5514  16.612   8.108   1.836  0.4023 -0.0665 -0.0279
49274W        W 5515  34.875  14.698  18.810 -0.0598 -0.1530 -0.0818
49275W        W 5516  22.287  31.269  12.596 -0.3813  0.0029 -0.4103
49276W        W 5517   1.506  21.510  11.785  0.0189 -0.0164 -0.0227
49277W        W 5518  12.393  33.218  14.169  0.3563 -0.0248  0.1856
49278W        W 5519  23.981   6.454  21.719 -0.2509 -0.1300 -0.0413
49279W        W 5520  17.977  12.334  18.764 -0.0224 -0.1560  0.1571
49280W        W 5521   6.523  23.152  20.605  0.2571  0.0105  0.0367
49281W        W 5522  33.884  17.780   9.002  0.0640 -0.0592 -0.2953
49282W        W 5523  21.736  22.459  21.841 -0.0535  0.0730 -0.0690
49283W        W 5524   0.407  10.780  11.327 -0.3863  0.0405  0.1446
49284W        W 5525  29.282   3.869  18.228 -0.2494 -0.2079  0.1379
49285W        W 5526   8.454  11.734   3.673 -0.0481 -0.0528  0.1154
49286W        W 5527  29.319  18.059  23.838  0.0602 -0.0049  0.0346
49287W        W 5528  13.011  23.865   4.740  0.0263 -0.1698  0.1480
49288W        W 5529  18.424  15.213   0.461 -0.1554  0.1454  0.0369
49289W        W 5530  26.395  22.985  16.671  0.0758  0.0034  0.1564
49290W        W 5531  32.053  19.194  25.453  0.1006  0.1378  0.2290
49291W        W 5532  16.024  20.792  10.040  0.1591 -0.0007 -0.0318
49292W        W 5533  34.902  26.813  18.681 -0.1884  0.2433  0.1593
49293W        W 5534  12.789  20.860   4.025 -0.4366  0.2886  0.1530
49294W        W 5535  27.703  16.990  18.414 -0.0438 -0.1108 -0.2071
49295W        W 5536  14.777  25.957  26.141 -0.1355 -0.1860 -0.2950
49296W        W 5537  26.813   3.735   1.096 -0.2088  0.1632 -0.1701
49297W        W 5538  10.974  29.224   6.368  0.1161  0.0286  0.1633
49298W        W 5539  35.353  22.626   1.970 -0.2976  0.1022 -0.2413
49299W        W 5540  23.837  32.241  21.557  0.0565 -0.0336  0.1066
49300W        W 5541  23.926  27.039  21.383 -0.1483  0.0084 -0.0447
49301W        W 5542  20.902  28.840   1.117 -0.2450 -0.2019  0.0866
49302W        W 5543  10.023  27.620  14.870  0.0975  0.0764  0.1012
49303W        W 5544  15.044   8.690  20.448  0.3212 -0.2619  0.2372
49304W        W 5545  29.101  10.763  23.820  0.0160 -0.0327  0.0753
49305W        W 5546  19.222   0.721   0.602 -0.1704 -0.0629  0.2379
49306W        W 5547   3.370  10.315   2.628  0.0052  0.0450  0.0151
49307W        W 5548  19.120  19.479   0.211 -0.1830 -0.1942 -0.2150
49308W        W 5549  29.479  19.778  24.154  0.0388 -0.0711 -0.1715
49309W        W 5550   5.989  22.131   4.048 -0.2176  0.1162  0.0359
49310W        W 5551  27.117  33.587  22.735 -0.0407  0.0801  0.2083
49311W        W 5552  14.460   2.962  22.239 -0.0948 -0.0285 -0.1119
49312W        W 5553   5.798  23.617   1.480 -0.4368 -0.0995  0.3924
49313W        W 5554  12.866  25.942   4.016 -0.3071  0.1207 -0.0348
49314W        W 5555   6.372  20.240   1.009 -0.1369 -0.0245 -0.2921
49315W        W 5556  32.675  28.536  18.924 -0.0230  0.1942 -0.2747
49316W        W 5557  20.449  30.127   2.797  0.2568 -0.1889 -0.0412
49317W        W 5558  14.917  18.640  24.518  0.1937 -0.0950  0.3392
49318W        W 5559  16.136  30.210   7.461  0.0752  0.2865 -0.2116
49319W        W 5560  23.642   2.848  12.453  0.4208  0.2899  0.2675
49320W        W 5561   7.477  27.825   1.523  0.0395 -0.1699 -0.2143
49321W        W 5562   9.756  30.974  16.329  0.4004 -0.2947  0.0744
49322W        W 5563  33.352   9.783  19.841  0.2789  0.0610 -0.3467
49323W        W 5564  17.694  19.998   9.558  0.1305 -0.0606  0.1349
49324W        W 5565  33.463  21.285  22.520 -0.2157 -0.4577 -0.0324
49325W        W 5566   8.170  18.832  23.179 -0.1997 -0.1127 -0.1123
49326W        W 5567  13.142  20.408  24.078 -0.2056  0.1068 -0.1258
49327W        W 5568  25.899  10.562  12.753 -0.0582 -0.1038 -0.1886
49328W        W 5569  27.264  29.541  25.069  0.1631  0.0286 -0.0529
49329W        W 5570  18.687   2.705   9.803  0.1981  0.1330 -0.3046
49330W        W 5571  26.993  12.882   9.480 -0.3247 -0.1192 -0.1448
49331W        W 5572  14.054  15.193  12.847 -0.2416 -0.1821  0.2568
49332W        W 5573  24.108  23.328   1.648  0.0512 -0.0514  0.0627
49333W        W 5574  14.492  26.438  15.517 -0.0328  0.0306  0.2281
49334W        W 5575  10.450  35.231  11.375  0.0367 -0.0373  0.0525
49335W        W 5576   2.942  10.960  19.845 -0.0249 -0.4268  0.0848
49336W        W 5577  26.614   7.161   1.455 -0.0067  0.1834  0.1375
49337W        W 5578  19.776   0.902  19.623  0.0112  0.0857  0.1930
49338W        W 5579  23.303  34.679  17.141  0.2883  0.1537  0.1830
49339W        W 5580  10.822  27.810  11.640  0.2904 -0.4021  0.0720
49340W        W 5581  27.217  25.959  25.423  0.3766 -0.1530  0.0964
49341W        W 5582  12.084   5.604  23.676 -0.3931  0.1989 -0.0085
49342W        W 5583  16.968  31.298   2.657 -0.1903  0.0002 -0.0556
49343W        W 5584  12.983   3.596   7.754  0.0308 -0.1669 -0.1503
49344W        W 5585  19.526  19.376  18.568 -0.3077  0.2379 -0.2054
49345W        W 5586   2.833   8.857  19.150 -0.0206 -0.4341  0.0141
49346W        W 5587  18.373  35.160   7.415  0.2035 -0.0427 -0.3064
49347W        W 5588  11.435  11.250   1.313 -0.0211 -0.1023  0.5045
49348W        W 5589  19.692   8.415   0.424 -0.4673 -0.0625 -0.2177
49349W        W 5590  25.695  24.053  16.517  0.1057  0.3150  0.0835
49350W        W 5591  32.045  22.427  18.215  0.2222  0.1318  0.2856
49351W        W 5592  33.647  17.703  21.449 -0.2240  0.0768  0.0166
49352W        W 5593  23.317   0.228  17.031 -0.2560 -0.2367 -0.1665
49353W        W 5594   4.230   5.203  21.521  0.0879  0.2263  0.2284
49354W        W 5595  27.747  34.083  24.045 -0.0870 -0.1326 -0.0575
49355W        W 5596  11.968   7.091   6.621  0.4221 -0.1325 -0.0801
49356W        W 5597  28.019  18.089  14.285  0.1512 -0.2163 -0.2232
49357W        W 5598  25.297  16.586  11.169  0.2373  0.2050  0.0111
49358W        W 5599   7.030  24.036  10.376  0.0407  0.0950 -0.2716
49359W        W 5600  11.648  34.190  22.550  0.5327  0.0339  0.1758
49360W        W 5601   0.827  16.329  25.959 -0.5418  0.0729  0.3008
49361W        W 5602   8.098  10.615  18.437 -0.3371  0.1850 -0.1542
49362W        W 5603   7.658   2.525   9.026  0.0518 -0.0092 -0.1705
49363W        W 5604   0.342  12.315  18.158  0.0008  0.3064  0.1743
49364W        W 5605   2.308  10.854  15.609  0.0605  0.0211  0.3255
49365W        W 5606  30.644  17.124   7.461 -0.1548 -0.1422  0.0247
49366W        W 5607   9.251  28.670   6.865  0.0081 -0.2533  0.1293
49367W        W 5608  34.773   3.622   3.666 -0.4124 -0.1336  0.1941
49368W        W 5609  11.950  14.317   2.859 -0.1348 -0.1339  0.0575
49369W        W 5610   6.994   2.290  14.222 -0.1059  0.3269  0.0116
49370W        W 5611  10.375  27.844  26.000  0.0745  0.2962  0.0224
49371W        W 5612  34.748   0.021   3.667  0.5725  0.0067  0.0107
49372W        W 5613   9.079  18.096  11.877 -0.3339 -0.0059  0.1460
49373W        W 5614  23.928   5.566   0.291 -0.2698 -0.0658 -0.0426
49374W        W 5615  24.508  15.554   1.234 -0.4019 -0.1112  0.0615
49375W        W 5616  13.749  22.679   7.649  0.1252 -0.2327  0.2496
49376W        W 5617   0.078  26.535  19.497 -0.2597 -0.0001  0.2738
49377W        W 5618   0.593  31.161  20.142 -0.3008 -0.0268  0.1505
49378W        W 5619   3.208   3.260   4.839 -0.3377  0.0484  0.1510
49379W        W 5620  26.661   6.312  20.582  0.0522  0.1620 -0.2080
49380W        W 5621  26.889  12.197  25.433 -0.0460  0.5187  0.1828
49381W        W 5622   3.235  13.762  21.405  0.2272  0.1814 -0.2879
49382W        W 5623  12.547  28.492  12.837  0.0841  0.1782  0.3949
49383W        W 5624   9.626   5.607   7.716  0.2033  0.0525 -0.0865
49384W        W 5625  34.717  12.947  12.031 -0.0263  0.3718 -0.1541
49385W        W 5626  11.594  25.926  22.352 -0.0162 -0.3829  0.2316
49386W        W 5627  25.175  24.453  25.783 -0.5154 -0.0770 -0.3822
49387W        W 5628   4.089  33.079   0.987 -0.1277  0.3332 -0.1976
49388W        W 5629  14.916   7.853  11.646  0.1842 -0.0906  0.1380
49389W        W 5630   2.334  31.407  25.428 -0.0243  0.2449  0.0425
49390W        W 5631  23.867   1.081  13.392  0.0189 -0.0121 -0.0402
49391W        W 5632  15.670  30.464   3.127  0.0236  0.0160 -0.0692
49392W        W 5633  33.636   3.698  25.346 -0.1678  0.2548  0.0010
49393W        W 5634  11.114  21.700  17.127  0.0512  0.0644 -0.0243
49394W        W 5635   0.890  20.366  11.778  0.0368  0.2163 -0.0496
49395W        W 5636  33.404  27.224  15.828  0.4304  0.0531  0.0888
49396W        W 5637  12.293  19.470  12.201  0.0248 -0.2033 -0.0386
49397W        W 5638  31.305  27.182  17.859 -0.1160 -0.0783 -0.1690
49398W        W 5639  27.712  12.577  21.496 -0.2907 -0.1441 -0.1539
49399W        W 5640   2.107  14.720  14.064  0.2177  0.2933 -0.1525
49400W        W 5641   4.284   1.312  23.948 -0.2625 -0.1464 -0.0695
49401W        W 5642  20.855  34.395   6.552 -0.0582  0.0875  0.1374
49402W        W 5643  13.764  21.500   2.964 -0.2108  0.0039 -0.2266
49403W        W 5644  11.294  12.348   2.958  0.0619 -0.1040 -0.1848
49404W        W 5645   8.811   0.031  20.542 -0.1327 -0.1005 -0.0524
49405W        W 5646  30.445  29.899   2.374 -0.0660  0.2085  0.3381
49406W        W 5647  30.654  29.181  12.731 -0.3699 -0.0764  0.0525
49407W        W 5648  27.346  15.693  13.058  0.1363 -0.2665  0.1192
49408W        W 5649   4.742  20.763  20.299  0.0370  0.1588  0.1852
49409W        W 5650  27.881  20.769   9.005 -0.2919  0.0713 -0.2508
49410W        W 5651  25.687  28.587  14.711 -0.0588  0.2307  0.0347
49411W        W 5652  17.663  18.268  22.673 -0.1485  0.3506  0.3400
49412W        W 5653   5.629   0.963   0.397 -0.0068  0.1237 -0.1934
49413W        W 5654  11.515   3.287  25.962  0.0506 -0.2652 -0.1098
49414W        W 5655   9.197  13.542  22.586  0.2435  0.1315 -0.0091
49415W        W 5656  18.468   9.521  24.560 -0.1426  0.0760 -0.0502
49416W        W 5657  22.631  26.560  25.986  0.1249 -0.0098 -0.1782
49417W        W 5658  34.585   5.450   0.066  0.2341  0.1618  0.1125
49418W        W 5659   4.482  21.170  20.020 -0.2085 -0.2673 -0.2918
49419W        W 5660  25.994  19.370  12.201 -0.1819  0.2194 -0.5152
49420W        W 5661  18.958   4.932   6.038 -0.0445 -0.1399 -0.1847
49421W        W 5662  26.109  35.016  17.772  0.1879 -0.0888 -0.0129
49422W        W 5663   3.462  22.150   4.321  0.0122 -0.2006 -0.0427
49423W        W 5664  22.641  18.824   0.329  0.2561 -0.0435 -0.1509
49424W        W 5665   5.235  20.711   1.428  0.3105 -0.3465 -0.0010
49425W        W 5666   1.594  24.015   0.686  0.1376  0.0456 -0.2921
49426W        W 5667  34.860  11.932  14.244  0.0697  0.0752 -0.1112
49427W        W 5668  24.695  25.773  25.515  0.3527  0.0721  0.1616
49428W        W 5669  25.298  11.663   9.526 -0.0190 -0.1326 -0.2797
49429W        W 5670  18.443   6.081  19.113  0.1522 -0.1990  0.0096
49430W        W 5671  24.169  31.114  18.429  0.1347  0.2843 -0.0597
49431W        W 5672  35.262   8.146   1.940  0.0850 -0.1243 -0.0591
49432W        W 5673  22.584  25.710  20.633  0.0221 -0.0727  0.2834
49433W        W 5674  11.229  13.238  21.488  0.1598 -0.0790 -0.0302
49434W        W 5675   2.404  10.550   1.452 -0.2406 -0.0099 -0.0477
49435W        W 5676  29.014  30.071   2.916 -0.0583 -0.0246 -0.0710
49436W        W 5677  34.597  33.222   4.496 -0.1093  0.1311  0.2275
49437W        W 5678  20.120  19.159   1.813  0.1930 -0.0875  0.1083
49438W        W 5679   9.893  22.424  16.961  0.1772  0.0704 -0.0474
49439W        W 5680  16.523   0.844  19.431  0.0273 -0.0063 -0.0853
49440W        W 5681  31.076   9.136  25.364 -0.1464 -0.0363  0.0381
49441W        W 5682   3.838  34.190  18.603 -0.0223 -0.0712 -0.2514
49442W        W 5683  12.795   6.658  25.079 -0.1201  0.0716 -0.1246
49443W        W 5684  27.401  23.617   6.134  0.0545  0.1689  0.0298
49444W        W 5685   9.364   6.026   1.028 -0.0559 -0.1169  0.1825
49445W        W 5686  13.383  32.720  15.142  0.0615 -0.1295  0.0203
49446W        W 5687  27.563  22.146   5.652  0.3595 -0.1733  0.2729
49447W        W 5688  20.820   4.556  22.829  0.2417 -0.1555  0.0299
49448W        W 5689  22.198  14.724  17.920  0.0780  0.0650 -0.1470
49449W        W 5690  26.945  18.440  18.698 -0.0796 -0.1336 -0.0772
49450W        W 5691  11.711  34.092  23.125 -0.2571 -0.0998  0.1103
49451W        W 5692   9.488  18.396   7.324  0.0538 -0.0541 -0.0821
49452W        W 5693  13.106  26.201  12.208  0.0804 -0.1207  0.0188
49453W        W 5694  22.757  21.067  17.440  0.0649  0.4003 -0.0472
49454W        W 5695  17.778   1.381   9.002 -0.1759  0.1189  0.1081
49455W        W 5696  33.960  17.140   1.195  0.1250  0.0811  0.0761
49456W        W 5697   8.087   8.246   3.874 -0.4383 -0.0469  0.0694
49457W        W 5698  16.705  26.380   1.643  0.2874 -0.0397 -0.1825
49458W        W 5699  28.519   9.317  22.841 -0.2157  0.1810 -0.0943
49459W        W 5700  27.121   5.896  12.784  0.2502  0.0068  0.2203
49460W        W 5701   0.851   1.793  23.446  0.3178 -0.5532  0.0896
49461W        W 5702  14.988   2.746   9.134 -0.4260 -0.1158  0.0598
49462W        W 5703  14.710  33.827  21.646 -0.3015  0.2290  0.3818
49463W        W 5704  23.282  32.631  24.671  0.2163  0.0051  0.4495
49464W        W 5705   5.857  20.892  21.449 -0.0439  0.2633  0.2885
49465W        W 5706  32.756  26.111  10.525  0.3015 -0.0754 -0.0661
49466W        W 5707  12.920  25.350  21.961  0.3180 -0.0719 -0.1975
49467W        W 5708   2.985  22.354  18.119 -0.1846  0.0336  0.0563
49468W        W 5709  28.164  27.797  22.023 -0.1225 -0.2956  0.0094
49469W        W 5710  19.520  27.632  19.616 -0.0198  0.0502 -0.1261
49470W        W 5711  20.186  34.454   4.333 -0.2596  0.0794 -0.4404
49471W        W 5712  34.400   2.094  24.814  0.0965  0.0312 -0.1869
49472W        W 5713  33.124  12.778  22.857  0.0159  0.4356 -0.0437
49473W        W 5714   7.835  32.108  22.436  0.3850  0.0086  0.1568
49474W        W 5715  26.478   6.549  18.381  0.1057  0.1713  0.1763
49475W        W 5716  33.880   8.795  25.976  0.1599 -0.0904  0.0692
49476W        W 5717  29.153   5.005  12.755  0.2903  0.0702  0.1659
49477W        W 5718   4.984  25.570  11.181 -0.1295 -0.2765 -0.4052
49478W        W 5719  14.101  10.734  24.869  0.2087 -0.1135 -0.5625
49479W        W 5720  13.115   6.251  24.362 -0.1108 -0.0802  0.0442
49480W        W 5721   0.637   6.570  12.973  0.4934 -0.2666  0.0371
49481W        W 5722  27.938  24.156  22.864  0.0086  0.1471 -0.0058
49482W        W 5723  22.296  14.573  15.774 -0.2114  0.1028 -0.0254
49483W        W 5724  14.654   5.895   4.554 -0.0385 -0.0938 -0.2890
49484W        W 5725   7.507  22.233   0.245  0.2597  0.4417 -0.0587
49485W        W 5726  20.077  34.899   6.574 -0.0228 -0.0694 -0.0974
49486W        W 5727   6.226   5.086   5.392 -0.0086 -0.0048 -0.2098
49487W        W 5728  32.012  24.795   0.177  0.1517  0.2383  0.0293
49488W        W 5729  14.839   1.801  17.790  0.2848  0.2304  0.0835
49489W        W 5730  15.412   2.889   2.064 -0.3070 -0.0466  0.3685
49490W        W 5731   9.469  23.797   0.548  0.0754  0.3005 -0.0191
49491W        W 5732  13.003   6.992  13.149 -0.0156  0.4308 -0.1825
49492W        W 5733  17.277  10.974   9.456  0.0548  0.3919 -0.3606
49493W        W 5734  31.753  10.417  12.917  0.1994 -0.0680 -0.0337
49494W        W 5735   2.972  32.417  24.796  0.2305  0.0034  0.2160
49495W        W 5736  34.427  10.182  20.893 -0.0432 -0.2340  0.2546
49496W        W 5737  18.865  30.738   2.548  0.3399  0.0746 -0.0465
49497W        W 5738   2.998   7.072  23.496  0.1206  0.1800  0.0113
49498W        W 5739  30.557  30.687  12.780  0.3219  0.0001  0.3507
49499W        W 5740  21.138  32.556   2.240  0.0208  0.2712  0.1275
49500W        W 5741  17.177  22.396  25.789 -0.0607 -0.1064 -0.1349
49501W        W 5742  30.276  30.621  13.164  0.0862  0.1732 -0.0849
49502W        W 5743   9.901   0.558  10.504 -0.0162 -0.2047  0.2700
49503W        W 5744  13.381   1.816   6.464 -0.2395  0.0353  0.0612
49504W        W 5745  32.353   7.000   3.005 -0.2088 -0.1926 -0.2028
49505W        W 5746  29.131   7.721   0.430 -0.2586 -0.1400  0.3074
49506W        W 5747   6.309  23.519   6.812  0.0038 -0.3456  0.3270
49507W        W 5748  17.535  21.071   5.335 -0.2047 -0.0908 -0.0043
49508W        W 5749  12.619   5.785  13.316  0.2116  0.1282  0.1490
49509W        W 5750  18.229  29.168   2.097 -0.0689  0.1708 -0.2037
49510W        W 5751  16.402  33.632  10.276 -0.0015 -0.2507 -0.2942
49511W        W 5752   0.613   0.511   3.483 -0.0174 -0.0288  0.2342
49512W        W 5753   7.409   4.869   5.600 -0.2202 -0.0767  0.1034
49513W        W 5754  30.339  32.038  23.562 -0.0820 -0.4211 -0.1599
49514W        W 5755  28.352  11.396   9.357  0.2400  0.2518 -0.2723
49515W        W 5756  31.377  16.450  11.830  0.1768 -0.0149  0.0835
49516W        W 5757  30.349  30.604   3.644 -0.2993 -0.1899 -0.0278
49517W        W 5758  14.370   6.199  25.646 -0.2012 -0.1207 -0.2749
49518W        W 5759  21.257  20.717  24.825  0.2767 -0.0828 -0.0965
49519W        W 5760   9.741  14.193   4.975  0.0064  0.1980  0.0531
49520W        W 5761  20.922   0.216   4.282  0.2880 -0.0993  0.2202
49521W        W 5762   1.739  21.060  24.079  0.4915  0.0219  0.4191
49522W        W 5763  28.628  18.800   7.445  0.1205 -0.2449 -0.1883
49523W        W 5764  19.085   7.900  18.767  0.2621  0.3345 -0.1246
49524W        W 5765   0.433  23.698  25.938  0.2565 -0.1370 -0.1217
49525W        W 5766   1.010   6.686  23.854 -0.0377  0.1011 -0.2309
49526W        W 5767  19.495  23.041  19.588 -0.0801  0.1595  0.0773
49527W        W 5768  11.996  24.912  25.610 -0.1125 -0.1235  0.1911
49528W        W 5769  24.379  18.097  10.124  0.0086 -0.0299 -0.2095
49529W        W 5770   3.503  25.904   4.359 -0.2157 -0.0079 -0.1945
49530W        W 5771  24.747  12.923  15.380 -0.1416 -0.6315 -0.1797
49531W        W 5772  11.029  24.113   7.933 -0.0388 -0.0611  0.0650
49532W        W 5773   6.827  20.128   5.215  0.1019  0.4676 -0.0040
49533W        W 5774  26.582  12.157   0.099 -0.0449  0.1162 -0.4129
49534W        W 5775   1.032  27.429   3.367 -0.1021 -0.2116  0.1123
49535W        W 5776  10.799  32.428  10.657  0.2311  0.0282  0.2054
49536W        W 5777  21.615  21.117   1.105 -0.1519 -0.0109 -0.2540
49537W        W 5778  17.039  14.601  20.092  0.2206 -0.1118  0.0044
49538W        W 5779  22.844  30.729   5.461 -0.0200 -0.1483 -0.0119
49539W        W 5780  19.916  24.996  18.912 -0.0170  0.0977  0.0508
49540W        W 5781  20.201   6.669  20.401  0.2091  0.2507 -0.0367
49541W        W 5782  25.146  34.745  15.854 -0.0614 -0.1203  0.3464
49542W        W 5783  12.099   5.165  22.955  0.0304  0.1014 -0.0905
49543W        W 5784  35.314  22.448  25.661  0.0809  0.1633 -0.1135
49544W        W 5785  25.587  20.444  11.138  0.2170 -0.0333 -0.0190
49545W        W 5786   4.654  19.030  23.848 -0.1015  0.2633  0.2498
49546W        W 5787  32.513  21.859  19.229  0.2224 -0.0297  0.0944
49547W        W 5788  22.780  34.232   2.430  0.2723 -0.4366 -0.0412
49548W        W 5789  29.959  34.631  14.042  0.0032  0.2666 -0.2276
49549W        W 5790  29.701  16.229   7.017  0.0538  0.1154 -0.0083
49550W        W 5791  25.224  24.253  14.981 -0.0835  0.0981 -0.0597
49551W        W 5792   3.846  16.382   2.906 -0.0650  0.1557 -0.0446
49552W        W 5793   2.655   5.514  24.432  0.2440 -0.0262  0.0179
49553W        W 5794   2.115  13.906  22.965 -0.2570 -0.3269  0.1550
49554W        W 5795   1.024   0.455  22.728  0.2362  0.0921  0.1229
49555W        W 5796  31.212  32.099   0.755  0.5147  0.3881  0.0481
49556W        W 5797  29.937  29.873  16.563 -0.0485  0.2046  0.1990
49557W        W 5798  17.371  35.292  10.311  0.0289  0.1021  0.0451
49558W        W 5799   8.484  26.430  22.932 -0.0199  0.1029  0.1575
49559W        W 5800  33.026  23.555  13.157 -0.1297 -0.1467 -0.2015
49560W        W 5801  34.482  29.553   3.874 -0.1680  0.3683 -0.0020
49561W        W 5802  20.540  21.293   6.702  0.4200  0.1395  0.1155
49562W        W 5803  28.811   2.302  24.829 -0.0812 -0.1949 -0.1426
49563W        W 5804  11.166   7.617  11.121  0.0817 -0.2476  0.1412
49564W        W 5805   6.616  17.590  19.644 -0.1562 -0.0642  0.0276
49565W        W 5806  30.022  18.485  25.496  0.0707  0.1350  0.0204
49566W        W 5807  24.290   3.250  16.991 -0.2126  0.2592 -0.1194
49567W        W 5808  33.106  16.261  18.663 -0.0804 -0.0713 -0.2456
49568W        W 5809   0.456   3.511  22.565  0.0573  0.0043  0.0255
49569W        W 5810  35.372  30.291   1.134  0.0048 -0.0329 -0.1168
49570W        W 5811  20.628  16.967  21.968  0.0223 -0.0404 -0.2010
49571W        W 5812  25.671  18.718  19.497 -0.0800 -0.0446  0.2848
49572W        W 5813   9.239   0.072  25.506  0.4039  0.1238 -0.1796
49573W        W 5814  14.605  16.268   0.619 -0.0239  0.0472  0.2108
49574W        W 5815   9.636   5.641  19.272 -0.0761 -0.0476 -0.0121
49575W        W 5816  19.876  27.794   4.368  0.1108  0.0564 -0.0899
49576W        W 5817  21.763  35.092   1.385  0.1435 -0.2407 -0.2427
49577W        W 5818  31.759  27.082  14.949  0.0242  0.1488 -0.0271
49578W        W 5819   6.396  23.348   2.070  0.1992  0.3842 -0.2760
49579W        W 5820  16.090   0.480  10.232 -0.3494 -0.0265 -0.0988
49580W        W 5821   6.694  34.635  13.039 -0.2174 -0.0581 -0.0918
49581W        W 5822  16.204   5.412   1.957 -0.1944 -0.0464  0.2641
49582W        W 5823   8.972  19.633   8.518 -0.0981 -0.0278 -0.2158
49583W        W 5824  32.082   9.142  23.685 -0.0941  0.2267 -0.0564
49584W        W 5825  27.436  34.158  18.109 -0.1024  0.1975  0.0331
49585W        W 5826   1.217  35.276   3.537 -0.0139 -0.0362 -0.4439
49586W        W 5827  19.323   9.576  17.945 -0.1839 -0.0350 -0.1541
49587W        W 5828  17.567   3.654   5.581 -0.1348  0.2069  0.0204
49588W        W 5829   2.754   2.086   7.343 -0.0223 -0.0622  0.2299
49589W        W 5830  19.596  10.533   3.703  0.1387 -0.2103  0.0362
49590W        W 5831  29.272   7.899  11.145  0.1538 -0.0373  0.0630
49591W        W 5832  20.306   3.801  22.860 -0.1051  0.0048  0.1290
49592W        W 5833   7.990  27.185  13.701  0.0937 -0.3114 -0.0808
49593W        W 5834   5.095  12.448  25.917 -0.0872 -0.2111  0.3336
49594W        W 5835   9.791   5.627  21.095 -0.2264  0.2987  0.3358
49595W        W 5836   8.908  10.785   7.419  0.2983  0.0566  0.0183
49596W        W 5837  12.162  24.921  26.081  0.0618 -0.0440  0.1171
49597W        W 5838  25.727  19.232  15.878 -0.1471 -0.3998 -0.1252
49598W        W 5839  14.232  12.057   7.219 -0.3335 -0.1255  0.3482
49599W        W 5840  32.748  32.588  17.351  0.0237  0.0289  0.0366
49600W        W 5841   9.432  30.048  10.102  0.1564 -0.1505  0.0900
49601W        W 5842  13.894  28.176  22.961  0.1975 -0.3123 -0.1364
49602W        W 5843  34.419   5.850  21.364 -0.0254  0.0160  0.0146
49603W        W 5844  17.007  11.543  13.038  0.1504 -0.1379 -0.0948
49604W        W 5845   6.274  12.893   3.641 -0.0707  0.1348 -0.0881
49605W        W 5846  20.001  32.870   0.620 -0.1842  0.0632  0.0734
49606W        W 5847  17.577  16.461  21.355  0.0855 -0.0116 -0.2392
49607W        W 5848   2.745  22.270   2.318 -0.0531  0.0391 -0.2601
49608W        W 5849  11.065  19.937  20.923  0.1137  0.1948  0.0903
49609W        W 5850   6.847  14.072   0.031  0.0749 -0.0317 -0.4246
49610W        W 5851  29.736   2.671  11.588 -0.0638  0.1959 -0.2020
49611W        W 5852   7.539   6.196  23.389  0.3357 -0.0373  0.1609
49612W        W 5853   2.882   8.685  15.997 -0.2175  0.2061 -0.0148
49613W        W 5854  18.172  21.995  12.548 -0.3231  0.2084  0.0537
49614W        W 5855  34.683  33.625   1.996 -0.0769 -0.1286 -0.3983
49615W        W 5856  30.151  33.372  25.620 -0.1319  0.3226  0.1459
49616W        W 5857  18.326  33.954   6.996 -0.1734 -0.0132 -0.1038
49617W        W 5858  23.416  26.205   0.420 -0.1426 -0.0634 -0.2113
49618W        W 5859  26.647  31.528  18.621  0.1613 -0.0079 -0.0413
49619W        W 5860   2.414  26.295  21.530 -0.1330 -0.0287 -0.1645
49620W        W 5861   5.640   8.308   6.869  0.2160 -0.2455 -0.0119
49621W        W 5862  33.087   2.572   3.733 -0.2289 -0.1313 -0.1800
49622W        W 5863  28.570  26.798  20.287  0.0094 -0.1710 -0.1417
49623W        W 5864  32.529  17.828  14.515  0.1063  0.0436  0.3422
49624W        W 5865   5.948   1.837  23.720 -0.0371  0.0733 -0.1702
49625W        W 5866   2.630  19.374   9.920  0.0152 -0.2149 -0.1837
49626W        W 5867  25.400  24.408  19.461 -0.1350  0.0001 -0.1621
49627W        W 5868  26.354  30.183  14.808 -0.2489 -0.0705 -0.0526
49628W        W 5869  21.025  18.545  17.451 -0.4421 -0.0394  0.0966
49629W        W 5870   1.390  21.337  13.360  0.2768 -0.1181  0.3496
49630W        W 5871  31.452  30.893  15.425  0.0391 -0.0148  0.3866
49631W        W 5872  14.245  26.014   6.343  0.0447 -0.1003  0.2848
49632W        W 5873  22.835  22.336   2.029 -0.1562  0.0790  0.0208
49633W        W 5874  32.378   5.434  23.710 -0.2963 -0.1636  0.2435
49634W        W 5875  19.894  18.472  24.109 -0.2391 -0.0074  0.2137
49635W        W 5876   2.453  15.231  22.644  0.0528  0.2453 -0.2860
49636W        W 5877   9.839  18.742   3.921 -0.0990 -0.0241 -0.1197
49637W        W 5878  25.015  28.238  19.106 -0.0233 -0.1972  0.3160
49638W        W 5879   1.389  21.813  16.939  0.2651  0.2396  0.2569
49639W        W 5880   9.555  26.908  14.686 -0.3055  0.2157 -0.1470
49640W        W 5881  18.842  10.943   1.855 -0.0758  0.1097  0.1709
49641W        W 5882  12.588  25.839   3.199  0.0638  0.0965  0.0575
49642W        W 5883  22.181  17.460  23.703 -0.1959  0.0397  0.1679
49643W        W 5884   5.900  25.321   1.671  0.0859  0.2683 -0.3919
49644W        W 5885  26.185  23.103  23.407 -0.3882  0.0602 -0.1971
49645W        W 5886  22.722   5.717  15.278  0.4095  0.0239  0.5363
49646W        W 5887  15.555   3.281  16.918 -0.1929  0.0675 -0.2173
49647W        W 5888  29.970  11.412  19.855  0.4950 -0.2030  0.0245
49648W        W 5889  19.511  15.482  20.894 -0.2404  0.3705 -0.3051
49649W        W 5890  26.656  11.423  13.114  0.3461 -0.0538 -0.0326
49650W        W 5891   6.879   7.330  22.808  0.3476 -0.0602 -0.2023
49651W        W 5892  33.352  21.244  21.720 -0.0876 -0.0373 -0.0482
49652W        W 5893   5.292  13.853  24.161  0.0192 -0.0946  0.2272
49653W        W 5894  29.372  31.243  21.680  0.0154 -0.0965 -0.0456
49654W        W 5895   2.370  34.642   6.437  0.0117  0.1047 -0.1149
49655W        W 5896  27.398   1.151  11.858 -0.0046 -0.2010  0.2712
49656W        W 5897   5.567  32.129   7.354  0.0051  0.3168  0.1052
49657W        W 5898  33.746  15.074  19.377 -0.0905 -0.0768  0.1706
49658W        W 5899  23.957   7.900   2.015 -0.1249  0.0914  0.2636
49659W        W 5900   5.132   2.895   4.563 -0.1358 -0.0930  0.0330
49660W        W 5901  21.632   4.036  23.955 -0.1764  0.1663 -0.4474
49661W        W 5902   3.346  27.386  20.553 -0.2726  0.1662 -0.0492
49662W        W 5903  31.528  26.123  21.391  0.1555  0.0423  0.3254
49663W        W 5904   8.725  32.115   3.588  0.1382  0.1933  0.0870
49664W        W 5905   9.885  13.091   4.048  0.1856 -0.0760  0.0386
49665W        W 5906   7.045  24.065   2.178  0.1050  0.1443  0.0037
49666W        W 5907  11.450  24.942   7.641 -0.0112 -0.1991 -0.0822
49667W        W 5908   3.235  33.240  22.064 -0.2108 -0.1753  0.0015
49668W        W 5909   2.344   6.668  25.050 -0.2630  0.0485  0.3075
49669W        W 5910  27.779  32.779   5.591 -0.2683 -0.2810  0.0936
49670W        W 5911   5.957   6.824  24.716 -0.0106  0.1246 -0.3157
49671W        W 5912   7.187  17.304  11.992  0.0862 -0.2691  0.3831
49672W        W 5913  31.152   0.636  11.995  0.1743 -0.0488 -0.0394
49673W        W 5914  22.771  15.721   0.473 -0.3830 -0.1058  0.0189
49674W        W 5915  17.234   8.785  12.859  0.2480 -0.1637 -0.1547
49675W        W 5916  23.060  24.816  21.134  0.0562  0.2453 -0.0940
49676W        W 5917  25.231  15.007  10.748  0.1134  0.2361 -0.1375
49677W        W 5918  16.683  19.773   9.958 -0.0060  0.2441 -0.2297
49678W        W 5919   7.941  20.121   7.464  0.2935 -0.2926  0.0766
49679W        W 5920  25.733  10.640   2.242  0.0574 -0.1062 -0.0187
49680W        W 5921  27.603  28.070  15.762 -0.1166 -0.0167 -0.1113
49681W        W 5922  10.451  17.204  19.317  0.1495 -0.0352  0.0073
49682W        W 5923  33.905  11.510  23.961 -0.0706 -0.3990 -0.0039
49683W        W 5924  32.165  28.720  11.532  0.0842  0.0724  0.3516
49684W        W 5925   4.767  35.305  23.919 -0.1901  0.1372 -0.2971
49685W        W 5926  19.083  34.166  19.154 -0.1816  0.1381  0.0256
49686W        W 5927  11.529  29.139  15.145  0.0159  0.1546 -0.1298
49687W        W 5928   1.363  30.961   1.616  0.3247 -0.1314  0.1368
49688W        W 5929   1.330  29.453  20.966  0.0010 -0.0209 -0.0806
49689W        W 5930  27.070  24.323  25.056  0.3228  0.0545 -0.0325
49690W        W 5931   4.474  13.647  22.825 -0.1586  0.0619  0.0379
49691W        W 5932  16.730  18.015  14.530 -0.1731 -0.1983 -0.0559
49692W        W 5933  11.410  22.445  25.693  0.0851  0.3609 -0.2123
49693W        W 5934  10.342   9.531   5.807  0.1590 -0.1322 -0.1697
49694W        W 5935  29.327  34.787  18.990  0.2113  0.0355 -0.0119
49695W        W 5936  20.191  23.998  21.491  0.0598  0.2556 -0.0194
49696W        W 5937  18.582  19.429  20.169  0.3176  0.3215 -0.0907
49697W        W 5938   1.828  27.864  18.215 -0.1777  0.1018  0.2994
49698W        W 5939   0.354  17.880  19.476  0.0422  0.0278 -0.2331
49699W        W 5940  12.192  11.314   9.097  0.2131  0.1228 -0.4474
49700W        W 5941  27.896  28.527  23.238 -0.0635 -0.0065 -0.1247
49701W        W 5942  15.538   2.397   4.323 -0.1805 -0.1992 -0.0136
49702W        W 5943  22.424  25.956   2.973  0.3966  0.0174 -0.0289
49703W        W 5944   4.301   0.703   9.114  0.0400 -0.2473  0.0238
49704W        W 5945  28.250   4.006   3.705  0.1816 -0.1210  0.3161
49705W        W 5946  12.600   3.406   7.344 -0.0105 -0.0101  0.1548
49706W        W 5947  21.489  22.757   5.451 -0.2825  0.0419  0.2392
49707W        W 5948  19.131  10.764  23.722  0.1908 -0.0139  0.3507
49708W        W 5949  16.571  11.006  12.413 -0.2369 -0.0255 -0.0414
49709W        W 5950  12.963   7.976  12.534 -0.0910 -0.3106 -0.2181
49710W        W 5951  28.698  15.089  17.095 -0.1163 -0.0577 -0.0238
49711W        W 5952  34.100  24.932  17.798 -0.1515 -0.1037 -0.1564
49712W        W 5953  28.957  11.742  25.099 -0.0648 -0.4060  0.2588
49713W        W 5954  29.717  21.891  22.461  0.2783  0.0027 -0.2615
49714W        W 5955  21.162  19.385  21.094 -0.1656  0.1202  0.2278
49715W        W 5956  24.432  16.184   0.412  0.0715  0.0584 -0.1128
49716W        W 5957   7.121  15.228  25.651 -0.0845  0.1418 -0.0622
49717W        W 5958  24.299  16.670  11.909  0.2092 -0.3869  0.2543
49718W        W 5959  15.964  23.503  12.954  0.0042 -0.2651 -0.0697
49719W        W 5960  15.430  35.385   8.051 -0.0828 -0.0988  0.1546
49720W        W 5961   9.165  17.933   2.097 -0.0994  0.1911 -0.0450
49721W        W 5962  24.309  30.042   4.811  0.1147  0.0751 -0.1175
49722W        W 5963  20.321  10.854   3.606  0.0244  0.0403  0.0207
49723W        W 5964  26.625  24.636  13.075 -0.1361  0.1606 -0.0620
49724W        W 5965  29.147  18.144   7.082 -0.0788  0.0810 -0.0034
49725W        W 5966  12.183  12.074   7.954  0.1453 -0.1228 -0.0464
49726W        W 5967  20.275  27.301   5.891 -0.0101 -0.2388  0.3976
49727W        W 5968   6.228   5.498   5.126 -0.0346  0.1453 -0.2957
49728W        W 5969  10.848  30.208  15.741 -0.0741 -0.2134  0.0481
49729W        W 5970  11.981   8.142   3.025  0.3252  0.0986 -0.0768
49730W        W 5971  14.129  19.309  14.442 -0.1959  0.1773  0.1531
49731W        W 5972  14.266  17.203  21.475 -0.0334 -0.0473 -0.2285
49732W        W 5973  11.154   3.497  25.261  0.0532 -0.1339 -0.1544
49733W        W 5974  12.768   0.463  10.065  0.3438 -0.1248 -0.0585
49734W        W 5975   5.953  10.044  26.004 -0.3513 -0.2096 -0.0080
49735W        W 5976  21.262   0.918   3.511 -0.5963 -0.2867  0.3427
49736W        W 5977  11.331  10.090  20.598  0.2255 -0.0603  0.0742
49737W        W 5978  30.250  12.759  26.049  0.0956  0.0799 -0.1836
49738W        W 5979  34.790   5.663   0.428 -0.2055  0.1339  0.1093
49739W        W 5980   8.449  22.940  12.441  0.1796  0.2252 -0.2161
49740W        W 5981   0.981  15.777  10.689  0.1504  0.0607  0.0563
49741W        W 5982  23.190   8.052   0.503 -0.0336 -0.0050 -0.5078
49742W        W 5983  13.021   6.207  21.486  0.1703  0.0151  0.3013
49743W        W 5984  12.661   1.149   0.066  0.1937 -0.3302 -0.2578
49744W        W 5985  16.182  23.690   6.319 -0.1751 -0.1500  0.0307
49745W        W 5986  14.703  23.155  13.067 -0.1712 -0.4212  0.3179
49746W        W 5987  16.681   3.741  12.217 -0.2216  0.0786 -0.0323
49747W        W 5988   1.325   8.691  15.665 -0.0395  0.0498  0.0156
49748W        W 5989  20.891   5.546   3.039  0.0583  0.3341 -0.1211
49749W        W 5990  34.094   9.899   2.778 -0.2055  0.0236 -0.2328
49750W        W 5991   2.490  27.976  10.797 -0.0731  0.1755  0.0770
49751W        W 5992   1.690  31.764   2.662 -0.0873 -0.2311 -0.1732
49752W        W 5993  34.603  15.543  13.432 -0.4224  0.0045  0.2796
49753W        W 5994  11.720  18.934  11.562  0.0513 -0.1119  0.0057
49754W        W 5995  18.971   3.069   1.341  0.1556  0.0425  0.2043
49755W        W 5996   9.690  17.510  20.599  0.3300 -0.3359 -0.2899
49756W        W 5997  25.873   8.844  14.270 -0.0464 -0.1821 -0.0534
49757W        W 5998  17.545  30.604   1.853 -0.2156  0.0626 -0.0443
49758W        W 5999   9.907  11.205   2.967  0.1370  0.0361  0.1774
49759W        W 6000  12.290  31.919  12.939  0.1265 -0.2216 -0.0600
49760W        W 6001  19.146  26.117  20.890  0.0125  0.1882 -0.2249
49761W        W 6002  33.158  24.193  10.600 -0.2381  0.0321  0.0052
49762W        W 6003  11.184  33.869  12.029  0.1626  0.1899  0.3129
49763W        W 6004  15.655  25.096   3.205 -0.1186  0.2969 -0.2323
49764W        W 6005  32.874  11.474  22.221 -0.3669  0.0537 -0.1315
49765W        W 6006  20.611  27.953  16.208  0.1854 -0.0036 -0.0613
49766W        W 6007   4.978  30.100   4.218  0.0118  0.0289 -0.3775
49767W        W 6008  11.172  10.532  25.459 -0.0533 -0.5168  0.0790
49768W        W 6009  32.442  25.807   9.194  0.0353  0.0712 -0.0188
49769W        W 6010  21.638   6.808   1.663 -0.3574  0.1282  0.0936
49770W        W 6011  34.284  26.600  21.501  0.2894  0.1367  0.0503
49771W        W 6012   0.767   3.484   5.956 -0.0861 -0.3292  0.1957
49772W        W 6013  23.167  28.970  25.639 -0.2078  0.1942 -0.1829
49773W        W 6014  24.641  14.751  19.167  0.1462  0.0417 -0.2534
49774W        W 6015   6.790   3.481   7.414 -0.0198 -0.1224 -0.0373
49775W        W 6016  21.088  32.224  16.662  0.1267 -0.0605 -0.2113
49776W        W 6017  34.419  26.698  18.528  0.1291  0.2324  0.1253
49777W        W 6018  13.373  27.547  16.720  0.1655  0.1312  0.5835
49778W        W 6019  21.422   4.676  16.386 -0.1311 -0.3594  0.1510
49779W        W 6020   7.528   2.849  10.993 -0.0401  0.2658 -0.1432
49780W        W 6021  25.641  18.873   0.011 -0.0027  0.1347  0.0878
49781W        W 6022   5.415   4.710   4.078  0.2794 -0.1092  0.1645
49782W        W 6023  30.308  11.250   8.642 -0.0263  0.1692  0.0965
49783W        W 6024  14.159  14.191   1.903 -0.0057  0.2641 -0.0610
49784W        W 6025   4.758  18.395  18.811  0.0156  0.1201 -0.1961
49785W        W 6026   6.783   2.731  20.009 -0.0859 -0.0663 -0.0801
49786W        W 6027  25.432   1.921   1.461 -0.1158  0.1781 -0.0827
49787W        W 6028  31.653  11.728   7.435  0.1838 -0.0045  0.1890
49788W        W 6029   0.299  21.989  17.582  0.0943  0.4021 -0.0183
49789W        W 6030   2.374  22.693  22.717 -0.1039 -0.1713 -0.0342
49790W        W 6031   3.470   4.966   3.338 -0.2121  0.0756 -0.0514
49791W        W 6032  28.136  29.203  23.892 -0.1645 -0.5195 -0.1234
49792W        W 6033  30.265   6.269   2.710  0.0522  0.1416 -0.1414
49793W        W 6034   5.954  24.639   0.559  0.0322 -0.2379 -0.0276
49794W        W 6035   5.356  26.251   7.081 -0.0754  0.0809 -0.1872
49795W        W 6036   1.562   3.561  25.918 -0.0813  0.1131 -0.3890
49796W        W 6037  24.630  17.914  14.162  0.0561 -0.1525 -0.0367
49797W        W 6038   8.916  32.104  22.728 -0.3789  0.0124 -0.1559
49798W        W 6039   2.364   7.674   2.585  0.0991  0.1241 -0.1843
49799W        W 6040  13.486   2.273   6.155  0.0654 -0.1407 -0.2115
49800W        W 6041  20.847  18.601   2.307 -0.1615 -0.2618  0.1552
49801W        W 6042  20.786  25.110  21.229  0.0066  0.2258  0.1977
49802W        W 6043  26.886  15.802  21.683 -0.5202  0.2312  0.0600
49803W        W 6044  32.497  11.210  24.343 -0.0779  0.3597  0.0212
49804W        W 6045   1.985  18.764   9.907  0.1652 -0.4579  0.1080
49805W        W 6046   3.398  32.352  10.132  0.3161 -0.2605  0.1778
49806W        W 6047  26.847   4.024  13.384  0.1999 -0.1234  0.2097
49807W        W 6048   3.314   4.875  25.397  0.0791 -0.2334 -0.0524
49808W        W 6049  17.484  12.635  22.556  0.1277  0.0664  0.1484
49809W        W 6050  21.933  29.791  12.520 -0.3884 -0.0923 -0.0554
49810W        W 6051  22.791  16.060  25.322  0.3227 -0.0660 -0.2601
49811W        W 6052  27.307  18.822  21.424  0.1751  0.4216  0.3150
49812W        W 6053  20.566  11.411  21.229  0.0835  0.0809 -0.1007
49813W        W 6054  31.702  17.737  21.380  0.0618 -0.0830 -0.3553
49814W        W 6055  10.024   4.032   5.486 -0.0908 -0.0541 -0.2000
49815W        W 6056  12.968  29.503  22.511 -0.0186 -0.0409 -0.1305
49816W        W 6057  22.524   1.638  19.465 -0.2360 -0.2411  0.0457
49817W        W 6058  35.362   5.099  12.926 -0.1795 -0.0109 -0.1489
49818W        W 6059  35.082  20.893   9.349  0.0665 -0.0830 -0.0318
49819W        W 6060  10.432   0.005   8.081 -0.0765 -0.2142  0.4783
49820W        W 6061  32.268  21.785  22.112  0.3390  0.2173  0.0796
49821W        W 6062  10.402  35.033  13.462 -0.0262 -0.0808  0.1092
49822W        W 6063   0.220  17.233  23.783  0.0486  0.0833  0.3368
49823W        W 6064   1.296  16.801  12.348  0.0282  0.0909 -0.2771
49824W        W 6065   5.512  28.421  25.236 -0.0851 -0.1918  0.3667
49825W        W 6066   5.095  31.807   5.576  0.2436 -0.0033  0.0685
49826W        W 6067  34.752  11.130  11.572  0.1945 -0.1503  0.4557
49827W        W 6068  21.069   6.983  17.264  0.2564 -0.0062  0.0969
49828W        W 6069  33.447   5.502  14.831  0.1105 -0.0880  0.1579
49829W        W 6070  34.618   2.553   2.892  0.1543  0.1613 -0.2330
49830W        W 6071   2.308   6.095  23.741 -0.0535 -0.1960 -0.1208
49831W        W 6072   6.594  30.265   1.855  0.0147 -0.0604 -0.4069
49832W        W 6073  33.786  20.191  14.408 -0.3011  0.0802  0.0358
49833W        W 6074  35.269  17.154  17.544 -0.0524  0.2528 -0.0026
49834W        W 6075  28.635  26.995  12.099  0.0697 -0.1227 -0.0373
49835W        W 6076  22.442   3.557   4.893 -0.2038  0.2542 -0.3859
49836W        W 6077  32.351  27.723   3.247 -0.1803  0.1577  0.3211
49837W        W 6078   4.792   6.927   3.617  0.1461  0.0668 -0.1627
49838W        W 6079  17.500  18.255  25.381  0.1082  0.3599  0.0674
49839W        W 6080  32.458   1.807   4.173 -0.1868  0.0818 -0.0720
49840W        W 6081   0.095   3.463   5.539 -0.0719 -0.1183  0.1566
49841W        W 6082  14.392  11.640   7.398  0.0591  0.2755  0.0153
49842W        W 6083  21.343   1.796   6.436 -0.1661 -0.3353  0.2347
49843W        W 6084  13.980  33.985  19.893  0.1051 -0.3548  0.0788
49844W        W 6085  33.825  10.806  12.814 -0.0809  0.2903  0.0802
49845W        W 6086  23.458  27.125  16.893 -0.3486 -0.0127 -0.0957
49846W        W 6087  19.557  14.101   8.327 -0.1868 -0.0532  0.1373
49847W        W 6088  26.678  33.602  13.775 -0.1074 -0.0857  0.2307
49848W        W 6089  28.340  33.842   4.501  0.2300 -0.0996 -0.3177
49849W        W 6090   3.694   9.872   1.461  0.0323 -0.2920 -0.3977
49850W        W 6091  28.446   6.493  13.939  0.0153  0.4072 -0.0166
49851W        W 6092   6.914  17.794  22.354  0.5215  0.1943  0.1750
49852W        W 6093  16.986  20.450  25.648 -0.0204  0.1955 -0.1501
49853W        W 6094  23.633  31.990  13.481  0.0711 -0.2846  0.1126
49854W        W 6095  28.284   9.892  25.435 -0.1319 -0.1200 -0.1397
49855W        W 6096  10.246  22.323  10.301  0.1382  0.3817 -0.0892
49856W        W 6097   4.415  13.458  18.291 -0.0853  0.1486  0.1350
49857W        W 6098  24.491   6.951  25.424 -0.1057  0.1200 -0.3016
49858W        W 6099  29.052  13.059  13.996  0.3702 -0.1293 -0.3142
49859W        W 6100  26.545  33.775  22.402  0.1826  0.0056 -0.1446
49860W        W 6101  29.535  22.479  16.358 -0.2494 -0.1594  0.0487
49861W        W 6102  15.539  12.638   8.114  0.2116  0.0752  0.0173
49862W        W 6103  17.413  21.840   9.474  0.1611  0.1134 -0.0884
49863W        W 6104  20.922  19.770   3.772 -0.2989 -0.1173 -0.3115
49864W        W 6105  31.443  22.329  26.233 -0.2812 -0.0814 -0.1328
49865W        W 6106  31.925  20.499  13.636  0.0691 -0.0419 -0.2059
49866W        W 6107  30.167  35.064  22.762  0.3431  0.0338  0.1941
49867W        W 6108  27.353  16.741   6.180  0.0525 -0.0515 -0.0902
49868W        W 6109  28.202  15.449  24.954  0.4019 -0.1018 -0.1097
49869W        W 6110   0.337  10.528  12.805  0.0941  0.2025  0.0494
49870W        W 6111  19.908   8.315   8.397  0.3004  0.2960  0.3635
49871W        W 6112  14.140  32.418  25.439  0.1394  0.1813 -0.1414
49872W        W 6113  14.996  17.292   3.189  0.0739  0.1402 -0.0744
49873W        W 6114  17.102  13.361   8.212  0.2812  0.0089  0.0751
49874W        W 6115  19.433  35.075  16.957 -0.0693 -0.3042 -0.0174
49875W        W 6116  19.414   7.474   1.512  0.0586  0.0303  0.0541
49876W        W 6117  15.663   8.267  12.410 -0.2902  0.1532  0.1474
49877W        W 6118  34.633   9.712  21.002  0.1144 -0.1306  0.0233
49878W        W 6119   0.974  16.558   2.178 -0.1288 -0.1348 -0.2136
49879W        W 6120  34.618  18.270  13.166  0.0333 -0.0489 -0.1278
49880W        W 6121  26.781  33.735  19.953  0.1006 -0.0204  0.2642
49881W        W 6122   2.335  30.787  23.002 -0.2187  0.1578  0.0468
49882W        W 6123   5.440   4.576   7.052 -0.0146  0.2278  0.0829
49883W        W 6124   3.588   3.752  21.438  0.1358  0.1083 -0.0549
49884W        W 6125  19.237  19.198  23.445  0.0669  0.0903 -0.0258
49885W        W 6126  32.409  23.738  19.757 -0.0086  0.0145  0.1111
49886W        W 6127  34.207   1.537  15.171  0.1338 -0.1051  0.1674
49887W        W 6128   8.525  31.363  14.981 -0.0313 -0.0269 -0.0350
49888W        W 6129  24.259  28.630  19.624  0.4171  0.1093 -0.2171
49889W        W 6130  18.998   1.949  15.504  0.2143 -0.0266  0.2692
49890W        W 6131  25.039  30.780  14.356  0.3461 -0.1357 -0.0674
49891W        W 6132   8.002  15.207  20.119 -0.3270  0.2595  0.2058
49892W        W 6133  26.264   6.033   2.091  0.0561 -0.0653 -0.0910
49893W        W 6134   0.118   5.600   6.292  0.0671 -0.0322 -0.1840
49894W        W 6135   3.448  19.466  21.448  0.0755 -0.1577 -0.1913
49895W        W 6136   3.354  27.433  19.071  0.2644  0.1061 -0.2726
49896W        W 6137   2.807   1.723   0.315  0.1101  0.0702  0.1144
49897W        W 6138   9.076  21.835  24.421 -0.0999 -0.0803  0.2759
49898W        W 6139   0.917  11.728  21.198  0.3385  0.1476 -0.2659
49899W        W 6140   3.693  12.988   5.646 -0.1171  0.1168  0.0502
49900W        W 6141  33.519  11.290   1.822 -0.1137  0.0628 -0.1006
49901W        W 6142  14.980  14.673   7.767  0.1659 -0.0639  0.0529
49902W        W 6143   5.242  18.858   3.254 -0.1597  0.2395 -0.2490
49903W        W 6144  25.467   4.011   5.621  0.0707  0.0831 -0.2696
49904W        W 6145  24.323   3.965  13.234 -0.0670  0.1596 -0.4042
49905W        W 6146   2.154  10.939   4.212  0.0507  0.2308  0.0139
49906W        W 6147  26.148  25.155  20.824  0.1162 -0.1641 -0.1199
49907W        W 6148  26.143  20.965  16.258  0.0058 -0.2593 -0.0200
49908W        W 6149  27.552  16.021  13.337  0.0505  0.1221 -0.0122
49909W        W 6150  30.700   9.826  23.413 -0.3412 -0.1094  0.0992
49910W        W 6151  33.760  34.556   4.272 -0.2622 -0.3064  0.0919
49911W        W 6152  21.088   6.377  22.442  0.1333 -0.0359 -0.0280
49912W        W 6153   7.868  11.320   9.958  0.2644  0.1986 -0.1408
49913W        W 6154  35.129   0.697  17.861  0.3789  0.1022  0.1077
49914W        W 6155  10.816   4.690   6.195  0.1050 -0.2479 -0.0502
49915W        W 6156  32.906  17.077  23.628  0.1581 -0.0624  0.2135
49916W        W 6157  26.553  14.272  19.554 -0.0632  0.0576  0.0610
49917W        W 6158   3.437  31.585   6.572 -0.1370 -0.0448  0.1049
49918W        W 6159  31.938   1.500   4.981  0.1233 -0.0499 -0.1557
49919W        W 6160  16.733  29.976  24.154  0.2789 -0.0498 -0.0364
49920W        W 6161  23.904  22.615  16.762 -0.0333 -0.0850 -0.0199
49921W        W 6162  13.720   2.151   3.041 -0.1768 -0.2433  0.1746
49922W        W 6163  16.737  27.618  12.453 -0.0436 -0.2017  0.0621
49923W        W 6164   7.944  31.024   6.878 -0.3960  0.4186 -0.2476
49924W        W 6165  15.363  21.445   3.810 -0.0128  0.1868  0.0765
49925W        W 6166   7.271  19.086  22.786 -0.4507 -0.0230  0.0515
49926W        W 6167  27.331  10.286  13.134 -0.0455 -0.0886 -0.0725
49927W        W 6168  16.775  31.560   5.254 -0.0372 -0.1504 -0.0846
49928W        W 6169  11.849  34.514  25.304  0.1093 -0.1265 -0.1049
49929W        W 6170   0.039  15.820  10.342  0.0102  0.0138  0.1069
49930W        W 6171   2.139  21.628   4.420 -0.0782  0.0208 -0.0790
49931W        W 6172  15.550  32.169   1.893 -0.0122 -0.1545  0.0473
49932W        W 6173   8.270  13.674  10.101  0.2097  0.2552  0.2818
49933W        W 6174   5.632   9.306   3.935 -0.0827  0.0797 -0.2582
49934W        W 6175  14.705  22.137   2.734  0.3297 -0.0328 -0.3732
49935W        W 6176  31.192  18.349   5.632  0.0568 -0.3161  0.2067
49936W        W 6177  27.093  10.320  10.365 -0.2071  0.3768 -0.2843
49937W        W 6178  34.909  25.666  15.617 -0.0709  0.2175 -0.0717
49938W        W 6179  20.610  20.640  21.791 -0.0039 -0.1127 -0.0577
49939W        W 6180   4.095  27.880   3.228  0.1663  0.2273  0.2058
49940W        W 6181   2.813  33.094   9.424 -0.1729 -0.0924 -0.1210
49941W        W 6182  18.189   3.509  24.826  0.0283  0.1873  0.2062
49942W        W 6183   7.204   5.782  25.987 -0.1378  0.0872  0.1175
49943W        W 6184  13.432  22.973  12.354 -0.2699 -0.4965 -0.1106
49944W        W 6185   8.795  11.226  10.013  0.4038  0.1248 -0.0452
49945W        W 6186  23.837  31.263   2.389 -0.1573  0.0825 -0.2900
49946W        W 6187  30.104   6.473  14.164  0.5199  0.2341  0.0959
49947W        W 6188   2.995  33.065  17.356  0.0285 -0.0219 -0.1322
49948W        W 6189   3.986   6.011   7.957 -0.0401  0.1085 -0.2514
49949W        W 6190   0.328  27.878   4.755  0.1478  0.3428  0.0223
49950W        W 6191   7.829  12.637  22.911 -0.2126 -0.0959  0.0161
49951W        W 6192  11.010   8.736   8.763 -0.0417 -0.2552  0.3200
49952W        W 6193  10.628  34.496  14.520  0.2776  0.0637 -0.1139
49953W        W 6194  15.662  21.695  11.483 -0.2396 -0.2315  0.1250
49954W        W 6195  33.471  18.357  21.417 -0.2009  0.1926  0.1473
49955W        W 6196  13.410  30.509  12.088 -0.0999 -0.1112 -0.0654
49956W        W 6197  35.131  25.070  13.996  0.2830 -0.1097  0.0816
49957W        W 6198   5.847   4.908  25.449 -0.0478  0.0456 -0.0401
49958W        W 6199   6.128  10.440   1.140  0.0326 -0.1910  0.2596
49959W        W 6200  34.183  16.249  25.841  0.2475 -0.2544 -0.1070
49960W        W 6201  26.093   1.467  16.301  0.4075 -0.1426  0.0785
49961W        W 6202  25.223  15.327  20.614  0.3420 -0.0533 -0.3155
49962W        W 6203   6.476  12.880   9.098 -0.0969  0.2774 -0.0830
49963W        W 6204   5.683  31.167  23.205 -0.0082 -0.0410 -0.3374
49964W        W 6205  15.638   8.609   1.029  0.2326 -0.2572 -0.0234
49965W        W 6206   8.476  13.660   7.060  0.4565 -0.1081  0.0391
49966W        W 6207   9.974  15.741   8.316 -0.1108  0.2353  0.0001
49967W        W 6208  21.957  10.193   4.271 -0.0251 -0.0802 -0.1452
49968W        W 6209  11.948  31.502  12.669  0.1713 -0.1027  0.0892
49969W        W 6210  19.427  18.442  18.393  0.0267 -0.1033 -0.1783
49970W        W 6211  13.607  10.465   6.897 -0.0422 -0.0468 -0.4936
49971W        W 6212  23.686  18.923  13.945 -0.0611 -0.2317 -0.1677
49972W        W 6213  33.115  26.216  10.905  0.3392 -0.3926 -0.1788
49973W        W 6214  31.035  19.246   0.281 -0.1744  0.1523 -0.1478
49974W        W 6215  17.524  13.066   9.956 -0.1067 -0.2138  0.1813
49975W        W 6216  29.404  17.744  13.742  0.0420  0.2071  0.2004
49976W        W 6217  13.161   5.637   1.834  0.0662 -0.0838  0.0360
49977W        W 6218   8.729  27.796  16.895  0.0926 -0.2705 -0.3162
49978W        W 6219   1.481   2.752  19.695  0.1554  0.1004 -0.2654
49979W        W 6220  27.099  15.611  16.751 -0.0405  0.0602  0.3505
49980W        W 6221  11.951  23.446  17.089 -0.0919 -0.1090 -0.0751
49981W        W 6222   6.789  20.735   8.258 -0.2981 -0.0907  0.1613
49982W        W 6223   8.735  32.546  23.511 -0.4295  0.3568 -0.0153
49983W        W 6224  22.034  22.877  14.815  0.1070 -0.1771 -0.0786
49984W        W 6225  18.506  33.290   6.974 -0.3110 -0.0723 -0.0094
49985W        W 6226   1.302  14.794  19.986 -0.0819  0.0338  0.1030
49986W        W 6227  22.843   8.945   1.632  0.0588  0.2300 -0.1424
49987W        W 6228   6.573  10.430   1.011  0.1138 -0.0001  0.1251
49988W        W 6229  12.424  30.349   8.706  0.2741  0.0864  0.2166
49989W        W 6230  27.341  27.131   9.287 -0.2569  0.2987  0.0212
49990W        W 6231  27.294  30.251  14.941  0.0532 -0.1972  0.0850
49991W        W 6232   0.365  33.756   6.012 -0.0349 -0.2358 -0.1630
49992W        W 6233   9.648  15.546  25.141  0.1081  0.1980 -0.0863
49993W        W 6234  17.596   1.366  22.986  0.2027 -0.2035  0.0176
49994W        W 6235  12.060  24.639  13.597  0.0596 -0.3176  0.2456
49995W        W 6236  30.555   3.204  25.645 -0.0147 -0.0219  0.0216
49996W        W 6237  21.292  25.622   5.655  0.1387  0.0582 -0.2816
49997W        W 6238   4.786  10.779   4.775 -0.0800 -0.1545  0.0949
49998W        W 6239  15.219  13.501   8.182  0.1015 -0.1518  0.1183
49999W        W 6240   1.407  18.374  12.266 -0.1855  0.3204  0.1115
50000W        W 6241   8.357  31.694   3.600 -0.1135 -0.0524  0.1656
50001W        W 6242   0.188   8.073  12.935  0.0509 -0.3275 -0.1465
50002W        W 6243  12.056  16.923  20.831  0.1059  0.1631 -0.3299
50003W        W 6244  19.826  34.254  22.179  0.2100 -0.0018  0.0505
50004W        W 6245   0.397  28.139  17.677  0.2652  0.4071  0.1879
50005W        W 6246  12.148   3.253  20.017  0.1872  0.2414 -0.2970
50006W        W 6247  34.337   3.098  13.879 -0.0909  0.0120  0.1893
50007W        W 6248   5.394  18.017  19.485 -0.3644 -0.0662  0.1682
50008W        W 6249  26.740   8.645  19.369 -0.1497  0.2800 -0.0943
50009W        W 6250  31.554  31.331   0.313  0.0552 -0.1126  0.0476
50010W        W 6251  30.561   7.340   9.983 -0.1482  0.0271 -0.1623
50011W        W 6252  13.603   4.743   2.939 -0.0582 -0.0140 -0.0405
50012W        W 6253  30.405   4.956  11.633  0.2869 -0.2449 -0.2774
50013W        W 6254   9.716  13.886  20.046  0.2663  0.2142 -0.2606
50014W        W 6255  17.137   9.437   4.371 -0.2182 -0.1161  0.0667
50015W        W 6256  32.872  17.115  19.069 -0.3944 -0.2259  0.0178
50016W        W 6257  26.607  34.308   1.884  0.0579  0.3162  0.2252
50017W        W 6258  29.972  30.158  14.871  0.2145  0.3351 -0.0418
50018W        W 6259  19.899  32.953  26.083 -0.0594 -0.1747 -0.2052
50019W        W 6260  18.442  34.246   9.194 -0.0957  0.1715 -0.0697
50020W        W 6261   3.343  31.179   4.789 -0.2497  0.0340 -0.1296
50021W        W 6262  31.285  15.690  21.874  0.1334 -0.4143  0.2335
50022W        W 6263   4.804  21.900  25.713  0.0214  0.0195 -0.3290
50023W        W 6264  21.404  24.353  17.058 -0.1934 -0.0398 -0.2182
50024W        W 6265  35.127  25.622   3.856 -0.0361  0.0530  0.1054
50025W        W 6266  26.918  15.891  11.808 -0.3131  0.0821  0.2326
50026W        W 6267   9.850   9.482   6.276 -0.2722  0.1544 -0.1550
50027W        W 6268   4.542  20.320   1.008 -0.2606 -0.2310  0.0921
50028W        W 6269  28.732  23.428   6.766  0.0312 -0.0396  0.1080
50029W        W 6270  26.581  29.529  23.474 -0.1521  0.3191 -0.1885
50030W        W 6271  15.938  14.539   4.322 -0.2509  0.0024 -0.1630
50031W        W 6272  11.470  23.628   5.843 -0.2648 -0.0672 -0.0950
50032W        W 6273  16.933  21.328  22.566 -0.0576 -0.0310  0.2791
50033W        W 6274  31.262  31.784  16.385 -0.0421  0.3247 -0.0561
50034W        W 6275   4.114  34.997   6.298 -0.0348 -0.0677  0.0901
50035W        W 6276   0.031   4.892  19.338  0.1909  0.3137 -0.0164
50036W        W 6277  34.090   3.828  15.081 -0.0626  0.0565  0.0078
50037W        W 6278  28.077   5.966  17.762 -0.2426 -0.1457  0.1318
50038W        W 6279  20.317   2.510   8.094 -0.1412  0.1039  0.0988
50039W        W 6280   0.591  18.902  24.518 -0.0878  0.0017  0.2203
50040W        W 6281  22.859  32.752  14.691 -0.4859  0.0307 -0.2091
50041W        W 6282  27.438  33.072  24.011 -0.2555  0.1579  0.0192
50042W        W 6283  27.220   5.396   9.624 -0.2275  0.3375  0.1434
50043W        W 6284  24.780  13.607  21.523 -0.0237  0.2506 -0.2763
50044W        W 6285  29.603  24.617  16.303 -0.1814 -0.3934 -0.1415
50045W        W 6286   8.484  14.833   8.987 -0.0175 -0.0810 -0.0954
50046W        W 6287   2.400  18.616  22.662 -0.1712 -0.2206 -0.1253
50047W        W 6288  30.557   0.451   3.142  0.0381  0.2793 -0.0124
50048W        W 6289  17.210   4.615  10.833  0.3606  0.1221  0.0194
50049W        W 6290  13.500   6.580  25.401  0.2596  0.0211 -0.0724
50050W        W 6291  31.886   4.676  15.401 -0.1537  0.1711  0.1084
50051W        W 6292   6.653  32.562  24.190  0.0158  0.3201  0.0631
50052W        W 6293  34.327  34.538  17.435  0.1044 -0.2245 -0.1539
50053W        W 6294  28.890  25.191  20.658 -0.0062 -0.1943 -0.0192
50054W        W 6295  18.618  16.274  10.187  0.1190  0.4371  0.2083
50055W        W 6296  17.980  22.539  12.481  0.0497  0.0156  0.0748
50056W        W 6297  32.331  29.678  23.720 -0.3667 -0.1599  0.0253
50057W        W 6298   4.190   6.036   0.382  0.1052 -0.2304 -0.0868
50058W        W 6299  24.964  26.099   1.564 -0.3670  0.0815  0.0441
50059W        W 6300   0.237   9.922  18.375  0.3723  0.1870 -0.1794
50060W        W 6301  33.654  27.904  18.695  0.0418  0.0020 -0.0764
50061W        W 6302   5.708   8.748  16.972 -0.0606  0.0051  0.0069
50062W        W 6303   2.018  12.822  20.443 -0.1954 -0.2305  0.1022
50063W        W 6304   1.273  22.718  18.025 -0.1644 -0.0416  0.0410
50064W        W 6305  31.628  30.964  21.894 -0.0909  0.0596 -0.0237
50065W        W 6306   3.033   0.429  23.351 -0.0980 -0.0377  0.1224
50066W        W 6307  21.258  32.968  26.044  0.0724 -0.1264 -0.2823
50067W        W 6308  20.852  23.533   0.639 -0.2133  0.0659  0.3155
50068W        W 6309  16.177  13.991  21.440  0.4336 -0.3327  0.1339
50069W        W 6310  30.668  10.684  11.372 -0.1486  0.3418  0.0994
50070W        W 6311  11.117   3.112  25.723 -0.1285  0.1541 -0.3075
50071W        W 6312  15.580  31.684   7.381 -0.3911 -0.1063  0.2614
50072W        W 6313  14.752  25.549   9.462 -0.0577  0.1560  0.0317
50073W        W 6314   1.552  28.875  20.131  0.3524  0.1755 -0.1776
50074W        W 6315   4.964  19.115  22.126 -0.0243 -0.2198  0.2784
50075W        W 6316  23.424  24.275  22.541 -0.1149 -0.1130  0.1548
50076W        W 6317  10.392   5.138   2.155  0.2371 -0.1858  0.0522
50077W        W 6318  22.346  17.092  23.359 -0.0177 -0.1445  0.2348
50078W        W 6319   4.646  13.264   1.784  0.0366  0.0377 -0.2892
50079W        W 6320  28.748  27.971  17.950  0.1966  0.1074 -0.2852
50080W        W 6321  12.825  31.477  14.235 -0.0189  0.0106  0.1811
50081W        W 6322  17.202   2.403  16.535  0.4598 -0.0675  0.0175
50082W        W 6323   2.637  25.388  20.372  0.0839 -0.0286  0.1819
50083W        W 6324  29.799  12.754  23.536 -0.3146  0.0634 -0.4162
50084W        W 6325   4.568   8.102  21.621 -0.2837 -0.0347  0.0603
50085W        W 6326  27.077  29.733  20.443 -0.0642  0.1105  0.3229
50086W        W 6327  10.590  34.401   3.808 -0.3609 -0.1304 -0.1132
50087W        W 6328  28.302   1.822  11.842 -0.1604  0.2539  0.0066
50088W        W 6329   4.048  17.057  21.313  0.1745  0.0635 -0.2766
50089W        W 6330  27.299  21.564  16.188 -0.2135 -0.1531  0.1780
50090W        W 6331  34.755   8.839  20.041  0.0464 -0.0906 -0.0440
50091W        W 6332  28.384  33.671  20.898  0.2261  0.0853 -0.3587
50092W        W 6333   6.107  25.950  11.810 -0.1146  0.1235  0.1237
50093W        W 6334  24.686  28.363  11.482  0.1406  0.1543 -0.2027
50094W        W 6335  21.226   3.985  15.478  0.3209  0.0057 -0.1370
50095W        W 6336   6.918  30.489  23.541 -0.1910 -0.0358  0.1017
50096W        W 6337  17.830  29.807   0.801  0.1892  0.1342 -0.2067
50097W        W 6338  18.799  15.256  24.874  0.0034 -0.0453  0.2063
50098W        W 6339  12.530  26.720   0.889 -0.1182 -0.1128 -0.0701
50099W        W 6340  23.193   4.910  21.265 -0.2075  0.1816 -0.0386
50100W        W 6341  15.601  16.612   7.287  0.1289 -0.2310 -0.0911
50101W        W 6342   6.336  34.109  26.185  0.0050 -0.0223 -0.1441
50102W        W 6343  29.557   7.856  17.809  0.1223  0.2494 -0.2317
50103W        W 6344  13.557   6.825   5.978  0.2818  0.1284 -0.3057
50104W        W 6345  12.819  26.708  16.810  0.0910  0.3401  0.1389
50105W        W 6346   8.647  19.129   2.972 -0.0121  0.0540 -0.2784
50106W        W 6347   0.081  24.340  15.211  0.1381  0.1271 -0.2280
50107W        W 6348  12.200  32.723  15.514  0.1400  0.1943  0.1307
50108W        W 6349  29.443   4.943   1.513  0.0138 -0.1206  0.4273
50109W        W 6350  27.207  11.740  15.202  0.3779  0.2219  0.2751
50110W        W 6351  30.881  16.158  25.682 -0.3689 -0.0217 -0.1325
50111W        W 6352  33.378   4.680  23.952 -0.1813 -0.0483  0.0835
50112W        W 6353  27.946  15.960   5.503 -0.2270 -0.1776  0.3742
50113W        W 6354  11.449  22.573  17.000 -0.0954 -0.1256 -0.3545
50114W        W 6355   5.027  33.752  21.462  0.3098  0.0556 -0.1372
50115W        W 6356  28.793  34.131  24.477 -0.2722 -0.3486  0.2807
50116W        W 6357  26.564  33.238  24.377  0.0870  0.0337 -0.1958
50117W        W 6358   2.622  31.737   2.712  0.2244 -0.2186 -0.4201
50118W        W 6359   2.738  21.279   1.454  0.1585 -0.1073 -0.1286
50119W        W 6360  27.858  19.395  19.779 -0.3339 -0.0650 -0.2365
50120W        W 6361  27.270  27.161   0.514  0.0786  0.1171 -0.1217
50121W        W 6362  31.874   6.461  24.104  0.0205  0.0039 -0.0522
50122W        W 6363  23.761  20.410  21.743 -0.1224  0.0239 -0.0247
50123W        W 6364  28.268  28.435   3.102  0.0913  0.1049 -0.0480
50124W        W 6365  15.159   0.988   1.396 -0.2187 -0.0206 -0.0304
50125W        W 6366  15.870  16.726  23.711  0.2693 -0.0136  0.0300
50126W        W 6367  11.463   8.387   9.011  0.2068  0.0496 -0.1054
50127W        W 6368  18.756  21.097   1.177  0.3037 -0.3532  0.3508
50128W        W 6369  33.645  18.220   8.997  0.0773 -0.0886 -0.0721
50129W        W 6370  33.908   6.914  12.711 -0.2047 -0.2371 -0.0245
50130W        W 6371  13.434  26.616  15.434  0.2460  0.2822  0.0285
50131W        W 6372  10.083   4.701  22.929  0.3378 -0.3137  0.2593
50132W        W 6373  29.331  27.287  25.291 -0.2053 -0.0963  0.1117
50133W        W 6374  21.905  11.858   1.088 -0.0355 -0.2016  0.1636
50134W        W 6375   1.808  33.488   9.272 -0.2290  0.0617  0.0999
50135W        W 6376  28.823  32.267   0.063 -0.0687 -0.3157 -0.0361
50136W        W 6377  20.137   4.987  22.051 -0.3502  0.0507  0.1915
50137W        W 6378  25.977  14.804  12.697 -0.2303 -0.1284 -0.0498
50138W        W 6379  32.050  20.529   9.335  0.0475 -0.1301  0.0788
50139W        W 6380  25.363   3.650   1.316  0.0828 -0.0856  0.0541
50140W        W 6381  25.305  26.768  21.145  0.0491  0.0192  0.0331
50141W        W 6382  17.411   9.261  18.399  0.1595 -0.1181 -0.2902
50142W        W 6383  27.966  22.328   4.828  0.1354  0.0411  0.2537
50143W        W 6384   8.199   3.597  10.332 -0.0215  0.0138 -0.1177
50144W        W 6385  27.101   6.613  20.674 -0.0532  0.0810  0.1994
50145W        W 6386  32.925   3.132  15.070 -0.2902  0.2794 -0.1014
50146W        W 6387  15.552   0.487  22.443  0.0352 -0.0585 -0.1567
50147W        W 6388  23.448  18.108  22.107  0.4441 -0.2989 -0.2211
50148W        W 6389  12.041   1.337  22.954  0.1146  0.0325 -0.1707
50149W        W 6390  14.297   7.863  25.869 -0.2707  0.1922 -0.0803
50150W        W 6391  16.212  30.147  21.467  0.0049  0.1054 -0.0760
50151W        W 6392  16.296  14.112  11.237  0.0085 -0.1416 -0.1644
50152W        W 6393   4.573  17.662   6.342  0.2306 -0.0059  0.3245
50153W        W 6394  24.979  22.961  20.197  0.1308  0.0886 -0.1630
50154W        W 6395   1.108  22.624  11.168  0.2071 -0.1552  0.0307
50155W        W 6396  26.977  34.772   5.595 -0.0834  0.0690 -0.0713
50156W        W 6397  21.421   3.683  20.999 -0.0830  0.1844 -0.1699
50157W        W 6398  32.682  27.282  23.917  0.0423 -0.0168 -0.1948
50158W        W 6399  29.944  26.584  21.903  0.2006 -0.1528 -0.1833
50159W        W 6400  23.615  34.314  21.148  0.1521 -0.4669  0.0497
50160W        W 6401  29.666   7.143  24.669  0.2520 -0.1666 -0.1699
50161W        W 6402   0.461  17.057  21.553 -0.0613 -0.1095  0.3619
50162W        W 6403  19.195  10.711   0.894 -0.0626 -0.1874  0.0043
50163W        W 6404  27.813  12.667   6.984 -0.1982 -0.0484  0.0025
50164W        W 6405   5.452   1.709  22.258 -0.0655  0.2326 -0.2950
50165W        W 6406  13.585  17.105   7.920  0.2372 -0.0999  0.2383
50166W        W 6407  20.633  23.273   2.295  0.0632 -0.0668 -0.2359
50167W        W 6408   9.889  14.675   5.054 -0.0639 -0.0570  0.1756
50168W        W 6409  33.362  23.324  20.499 -0.1013  0.0645  0.0036
50169W        W 6410   6.423  33.674   8.004  0.0925  0.0543  0.0919
50170W        W 6411  34.518   8.154   2.336  0.1719  0.0269  0.1450
50171W        W 6412   9.168   2.284  22.099 -0.1341 -0.0679  0.1313
50172W        W 6413  27.196  17.068  14.377  0.0964 -0.1225  0.2771
50173W        W 6414  14.397  23.916   1.857 -0.1271  0.1409  0.1115
50174W        W 6415   5.162  17.563   3.223  0.1788 -0.3658  0.0622
50175W        W 6416  23.123  16.944  20.370 -0.1366  0.0838 -0.1019
50176W        W 6417  16.547  24.024   6.787  0.1060  0.0189 -0.1960
50177W        W 6418  13.340   6.954  18.420  0.1847  0.2333 -0.0368
50178W        W 6419   5.876   5.715  24.050 -0.2540  0.4129 -0.4558
50179W        W 6420  18.304  25.900  11.360  0.2729  0.2383 -0.4292
50180W        W 6421   4.186  31.348   2.878  0.0290 -0.1473  0.1545
50181W        W 6422   8.407  27.957  23.316  0.0594  0.0341 -0.0791
50182W        W 6423   4.621  23.140  23.393 -0.0642  0.0173  0.1875
50183W        W 6424  22.875  17.392  20.911 -0.0047 -0.0946  0.2269
50184W        W 6425  27.548  20.378  14.550 -0.3000  0.2950  0.1721
50185W        W 6426  14.159   6.003   1.792  0.1590 -0.4549  0.2074
50186W        W 6427  27.718   3.379  21.904 -0.0168 -0.0792 -0.0794
50187W        W 6428  29.903  13.249  17.088  0.1253  0.0369  0.0199
50188W        W 6429   1.311  20.394   9.040 -0.2627 -0.0878  0.2398
50189W        W 6430  18.261   3.335   8.371 -0.0748  0.0024 -0.0496
50190W        W 6431  25.672  30.619  21.036  0.0740 -0.1374  0.1694
50191W        W 6432  23.511   9.367  12.762 -0.1044  0.0593 -0.2387
50192W        W 6433   7.930  12.135   6.112 -0.0613  0.0105  0.1364
50193W        W 6434  10.154  22.000   9.976  0.3727  0.1718 -0.0554
50194W        W 6435  10.745   9.506  22.957 -0.2996 -0.2671  0.0542
50195W        W 6436   9.764  22.849   9.001 -0.2040  0.3449 -0.1817
50196W        W 6437  25.263  23.323  18.484  0.0321 -0.1534 -0.1005
50197W        W 6438  20.688  14.142  17.432 -0.1791  0.0851  0.0493
50198W        W 6439  11.116   5.158  12.306  0.1137 -0.3292  0.0525
50199W        W 6440  18.411  11.456  19.902 -0.0503  0.2744 -0.0652
50200W        W 6441  32.208   2.632  19.843 -0.1828 -0.0894 -0.1481
50201W        W 6442  12.152   5.356  12.979 -0.0380 -0.2893  0.2318
50202W        W 6443  26.440  32.171   3.295 -0.0974 -0.2178 -0.0914
50203W        W 6444  12.057  19.577  24.733 -0.2979 -0.0852  0.0962
50204W        W 6445  15.395  18.364   9.891  0.0670  0.0175 -0.3201
50205W        W 6446   6.711   9.002  18.452 -0.2077 -0.1820 -0.5462
50206W        W 6447  20.539  30.131  22.432  0.1271  0.1240 -0.0475
50207W        W 6448  11.326  23.148  22.435  0.2580  0.0846 -0.3693
50208W        W 6449  24.703   6.662  19.489  0.1227  0.2584 -0.2754
50209W        W 6450  10.521   1.675   2.683 -0.1184  0.3596 -0.0508
50210W        W 6451  31.999   4.304  13.692 -0.0275 -0.2450  0.2863
50211W        W 6452  34.459  11.139  22.726 -0.0020 -0.1557  0.1100
50212W        W 6453   9.224  20.536  21.725  0.1654  0.2650  0.1551
50213W        W 6454   9.824   1.554   9.146 -0.2211  0.2776 -0.0640
50214W        W 6455   1.102  20.698  10.215  0.2848  0.0919 -0.1825
50215W        W 6456   6.850   5.009   8.739 -0.3932  0.2761 -0.0122
50216W        W 6457  12.821   0.209  10.531 -0.3479 -0.0103 -0.0253
50217W        W 6458   5.031  29.889   8.488  0.0283  0.2689 -0.0151
50218W        W 6459  32.997  19.239   8.319  0.1002 -0.2839  0.2819
50219W        W 6460  29.903  10.191  14.521 -0.1491  0.0506 -0.3058
50220W        W 6461  17.014   2.680  16.865  0.1047  0.1196  0.4002
50221W        W 6462   3.489  35.062   4.572 -0.1037  0.1622 -0.0688
50222W        W 6463  26.074  20.306  23.298 -0.0732 -0.2932  0.2257
50223W        W 6464  15.524  34.843   7.368 -0.0893  0.1415  0.3190
50224W        W 6465  18.624  28.310   9.051 -0.0588 -0.0557 -0.0746
50225W        W 6466  34.302  15.781  24.001  0.3169  0.1168  0.0615
50226W        W 6467  28.643   0.559   6.319  0.0685 -0.0755 -0.3402
50227W        W 6468   1.398  15.915  13.012 -0.0253 -0.1062 -0.0874
50228W        W 6469  27.202  28.998  16.627  0.1062  0.0642  0.1162
50229W        W 6470  19.562   5.074  10.352 -0.0571  0.0930 -0.1780
50230W        W 6471  25.539  11.422  25.776 -0.1569  0.0696  0.1020
50231W        W 6472  29.480  15.173  20.602 -0.2289 -0.4420 -0.0361
50232W        W 6473  15.006  19.626  24.146  0.0284 -0.2396  0.3132
50233W        W 6474  28.394  34.753   1.127  0.4297  0.0567 -0.1991
50234W        W 6475  34.716  17.581  10.062  0.0653 -0.1889  0.4899
50235W        W 6476  18.848  24.694   0.212  0.1182  0.2900 -0.0420
50236W        W 6477  33.808  16.021  25.247 -0.2339 -0.0610 -0.0190
50237W        W 6478  16.842  12.757   9.279 -0.1453 -0.3493  0.0408
50238W        W 6479  18.838  23.064   9.200  0.1328  0.1736 -0.0918
50239W        W 6480  33.050   0.368  21.369 -0.2779  0.0336  0.0814
50240W        W 6481  20.907  22.355   6.593  0.1359 -0.1771  0.0643
50241W        W 6482   0.193   3.041  15.936 -0.1915  0.4338 -0.1101
50242W        W 6483  29.221  27.286  23.494  0.0922 -0.0936  0.1603
50243W        W 6484   3.004  31.793   9.479 -0.2337 -0.0504 -0.1299
50244W        W 6485  21.218  29.061   1.643  0.0250 -0.2003 -0.0202
50245W        W 6486   7.725   0.148   2.589 -0.1998 -0.1632  0.1646
50246W        W 6487  30.316  25.593  12.583  0.0693  0.0728 -0.2788
50247W        W 6488  31.816  31.791   4.593  0.1093  0.1155  0.0665
50248W        W 6489  11.254   3.659  10.838 -0.2102 -0.0386  0.1081
50249W        W 6490  12.289  21.143   9.939  0.1707  0.2471  0.0499
50250W        W 6491  25.158  26.640   3.081 -0.1001  0.0817  0.1171
50251W        W 6492   6.434   4.011   9.265 -0.1141 -0.0311 -0.1016
50252W        W 6493  14.022  31.167   1.936  0.1878 -0.1300  0.2343
50253W        W 6494  35.159   3.090   5.528  0.2830  0.1981 -0.0071
50254W        W 6495   9.831   8.324   0.802  0.0467  0.2015 -0.1694
50255W        W 6496  12.368  22.347  17.048 -0.1365 -0.0547 -0.0627
50256W        W 6497  27.800  31.336   0.432  0.0667  0.1031  0.1583
50257W        W 6498   9.931   0.473  21.727 -0.1256 -0.0014  0.2399
50258W        W 6499  34.571  10.849   1.143 -0.0674  0.1793 -0.0187
50259W        W 6500   9.426  26.656   0.491 -0.1375  0.5574 -0.1227
50260W        W 6501  32.870  10.864  25.790  0.0057 -0.3786  0.2178
50261W        W 6502   2.221  12.514  23.050  0.0027  0.3365 -0.0022
50262W        W 6503  13.508  13.903  21.195 -0.0591 -0.0812 -0.0472
50263W        W 6504  25.361  19.546  15.845 -0.4757 -0.0909 -0.4869
50264W        W 6505  31.702   4.073  11.709  0.5022 -0.2198 -0.1931
50265W        W 6506   8.353   2.795   2.431 -0.0010 -0.0389 -0.1780
50266W        W 6507  14.533  28.490   5.997 -0.0865 -0.1363 -0.0146
50267W        W 6508  20.648  12.578   7.649  0.0004  0.0021  0.0699
50268W        W 6509  23.555  12.512  13.961  0.2796 -0.1575  0.4819
50269W        W 6510   7.877  24.881  21.333 -0.0076  0.0693 -0.2354
50270W        W 6511  16.653   2.427  25.174 -0.0008  0.0348  0.1324
50271W        W 6512  30.119  28.684  18.531  0.3100 -0.0342  0.1222
50272W        W 6513  20.226   6.770   1.704  0.0999 -0.1305 -0.5583
50273W        W 6514   4.029  17.167  21.855  0.0827  0.1000 -0.0836
50274W        W 6515  21.670  31.998  20.238 -0.3409 -0.0679  0.1138
50275W        W 6516  17.180   6.902   7.338  0.0657 -0.1172  0.2605
50276W        W 6517  32.017   3.281  15.142  0.2346 -0.0322 -0.1191
50277W        W 6518  17.054  23.085  10.534  0.1205  0.1909  0.2332
50278W        W 6519  22.926  16.266  22.173  0.0754  0.1627  0.0451
50279W        W 6520  32.476  24.416  12.675  0.1000 -0.2720 -0.0812
50280W        W 6521  30.697  14.332  20.980  0.1180 -0.4342  0.0674
50281W        W 6522  34.956  29.241  22.805  0.2971 -0.1788  0.0029
50282W        W 6523  29.889  16.948  17.775 -0.0465 -0.1714  0.0238
50283W        W 6524  25.633  25.316  22.760 -0.2421 -0.3036 -0.2525
50284W        W 6525  16.943  11.762  10.377 -0.0495 -0.0432 -0.1713
50285W        W 6526  17.561   5.042  17.956  0.1212 -0.0369 -0.0108
50286W        W 6527  29.755  22.297   8.301  0.3286 -0.2284  0.3740
50287W        W 6528  30.093   5.626   2.130  0.4040 -0.2059 -0.1912
50288W        W 6529   8.465   0.548   7.730  0.2098 -0.1081  0.1905
50289W        W 6530  16.016  10.354   4.754  0.0088  0.2457 -0.0885
50290W        W 6531  24.600   0.565   0.345 -0.2233 -0.0481  0.0611
50291W        W 6532  24.139  22.790  12.564  0.0922  0.3365 -0.1409
50292W        W 6533  31.087   7.000  23.538 -0.2454 -0.0741  0.3984
50293W        W 6534  17.733   4.765  20.645 -0.1427 -0.2030 -0.0172
50294W        W 6535   6.278  33.870  24.092  0.3234  0.0264  0.0447
50295W        W 6536  22.821  23.230  16.907  0.0214  0.1496 -0.1215
50296W        W 6537   6.424   8.684   1.886  0.0053  0.2629 -0.0531
50297W        W 6538  14.185  24.345  23.554 -0.0253 -0.5818 -0.0728
50298W        W 6539  25.240  25.095  16.022  0.0349  0.3149 -0.0750
50299W        W 6540  23.700  31.111   0.704 -0.0946  0.1607 -0.1316
50300W        W 6541  32.822  18.923   7.953 -0.0328  0.0606 -0.0424
50301W        W 6542  14.038  12.242   0.716  0.0529  0.0220  0.1549
50302W        W 6543   4.312  34.773  20.367  0.0095 -0.4075  0.2425
50303W        W 6544  11.129   8.575  11.383 -0.2760  0.3269 -0.0951
50304W        W 6545  27.273  26.927  18.652 -0.0416  0.2788  0.0241
50305W        W 6546  31.746  33.982  18.320  0.0139 -0.3742  0.0983
50306W        W 6547  30.922  20.763  11.471  0.1079  0.2103 -0.1825
50307W        W 6548  13.718  10.284   4.716  0.1331 -0.0853 -0.2326
50308W        W 6549   6.347  10.613  20.356 -0.0176 -0.0037 -0.2435
50309W        W 6550  20.664  14.800   3.628  0.1822  0.1974  0.3097
50310W        W 6551  24.751  15.281  15.885 -0.2348  0.0186 -0.2248
50311W        W 6552  25.578   8.437  21.837  0.1074 -0.0910  0.0395
50312W        W 6553  15.500   1.478  22.600  0.3073 -0.0577  0.1853
50313W        W 6554   4.090   5.350   0.820 -0.1357  0.1979  0.1093
50314W        W 6555  26.188   0.845  15.778  0.1277 -0.0484  0.0558
50315W        W 6556  13.045  12.213   6.913 -0.1220 -0.1055  0.1595
50316W        W 6557  17.231  16.925  12.435  0.0804 -0.0892 -0.1906
50317W        W 6558  28.367  34.973  14.595  0.3380  0.1697 -0.2113
50318W        W 6559   4.261  25.504  20.037  0.3834  0.2249 -0.0810
50319W        W 6560  28.776   4.382  13.378 -0.0331  0.1116  0.1526
50320W        W 6561  24.779  31.377   0.026  0.1268 -0.0201  0.1306
50321W        W 6562  18.382  14.996  21.146  0.1639  0.1161 -0.2046
50322W        W 6563  23.401   7.251   5.733  0.1439 -0.1155  0.1410
50323W        W 6564  20.280  15.615   1.200 -0.0273  0.0070 -0.0073
50324W        W 6565  13.962  32.087   0.138  0.0240  0.1506 -0.2035
50325W        W 6566  31.021  33.438   5.526  0.1576  0.0219 -0.0958
50326W        W 6567  20.505  33.276   4.695 -0.0001 -0.2877 -0.0136
50327W        W 6568  26.777  20.056  24.995  0.0526 -0.0442 -0.2029
50328W        W 6569  23.513  23.503   0.645 -0.0457  0.0984 -0.5182
50329W        W 6570  26.537  11.373  18.550 -0.3043  0.1446  0.1398
50330W        W 6571  25.434  10.139  12.633 -0.1628 -0.1416 -0.1423
50331W        W 6572  12.633  16.934   7.816  0.0892 -0.2545  0.2165
50332W        W 6573   5.174  29.734  24.120  0.1643  0.4698 -0.0567
50333W        W 6574  11.755   6.991   0.576 -0.3916  0.1775 -0.0793
50334W        W 6575   4.975  32.408  20.539 -0.0991  0.1060 -0.1579
50335W        W 6576  33.359  10.763  17.441 -0.1492 -0.0210  0.4443
50336W        W 6577  26.658  14.190  15.441  0.0824 -0.0080  0.2000
50337W        W 6578  33.259  29.881  12.288  0.3158 -0.0438 -0.3652
50338W        W 6579  29.291  11.716   8.199 -0.0142  0.1157  0.2209
50339W        W 6580  24.717  11.447  25.076 -0.1435 -0.2374  0.0239
50340W        W 6581  20.179   7.571  25.533 -0.0341 -0.2513  0.0323
50341W        W 6582  32.796  24.316  26.123 -0.2336  0.1280  0.2941
50342W        W 6583   7.443  24.256   4.012  0.0657 -0.2225  0.2427
50343W        W 6584   7.352  10.600  21.102 -0.1456 -0.0228  0.0608
50344W        W 6585   5.177  32.612   0.880  0.3415  0.1654 -0.1158
50345W        W 6586  23.220  33.360  22.897 -0.0872 -0.0346  0.0756
50346W        W 6587  28.139  19.718  20.067  0.1764 -0.2458  0.1644
50347W        W 6588  26.214  29.766  22.456 -0.1797 -0.1487 -0.1158
50348W        W 6589  16.106  28.711   6.637  0.5059 -0.0738 -0.0434
50349W        W 6590  35.269   7.456   4.291 -0.1089 -0.1149  0.3117
50350W        W 6591  33.544   8.732  10.094  0.0753  0.2023 -0.2081
50351W        W 6592   3.042  14.053  20.486  0.0362 -0.0537  0.0070
50352W        W 6593  12.489  35.348  19.877 -0.0466 -0.2312 -0.0846
50353W        W 6594  31.771  29.720  18.955 -0.4271 -0.2808  0.0882
50354W        W 6595  31.841  32.104  12.326 -0.1258  0.0811  0.0524
50355W        W 6596   5.646  14.827   0.765  0.0593  0.3331 -0.2037
50356W        W 6597  21.254  23.091   0.540 -0.1142 -0.1066  0.1572
50357W        W 6598   3.993  26.587   6.207  0.0688  0.1671  0.1015
50358W        W 6599  17.378  28.142  22.707  0.2862  0.2009  0.1996
50359W        W 6600  17.006   8.292   5.513  0.2111 -0.2674 -0.3972
50360W        W 6601  25.331  16.117   8.308 -0.0045 -0.0628  0.1883
50361W        W 6602  19.294   1.788  22.040 -0.3114 -0.1204  0.2212
50362W        W 6603  13.159  15.768   7.508  0.0063 -0.0427 -0.0454
50363W        W 6604  27.997  33.851   0.028 -0.1507  0.0753  0.1179
50364W        W 6605   3.795   9.161  17.774 -0.0025  0.0047  0.1414
50365W        W 6606  27.486  29.275  19.213 -0.2602 -0.0646 -0.3446
50366W        W 6607  27.561   3.376  21.006  0.4053  0.3111  0.2315
50367W        W 6608   5.936  30.596   8.610 -0.0643 -0.0142 -0.2868
50368W        W 6609  11.050  31.931  24.252 -0.3261 -0.1368 -0.2261
50369W        W 6610  22.376  11.651  21.325  0.0313  0.1256 -0.1748
50370W        W 6611   4.124  15.471  24.048 -0.1386 -0.2115  0.0217
50371W        W 6612  18.854  19.350   4.757 -0.0008  0.4808  0.0260
50372W        W 6613   6.419  28.854  13.592 -0.3465 -0.0269  0.1220
50373W        W 6614  31.229  22.372  19.697 -0.3472  0.1406 -0.2328
50374W        W 6615  10.370  23.907  12.398  0.0342 -0.2556 -0.2294
50375W        W 6616  11.120  34.577  12.504 -0.5325  0.1068  0.0030
50376W        W 6617   0.814  21.084   8.849 -0.2800 -0.4231  0.1344
50377W        W 6618   0.959  24.735  21.990  0.2953  0.0304 -0.0292
50378W        W 6619  32.051   0.865  24.006 -0.0562  0.1142  0.2241
50379W        W 6620  20.996  18.706  16.503  0.1646  0.0215  0.1743
50380W        W 6621  31.942  23.420  24.666  0.0010 -0.0406 -0.1408
50381W        W 6622  32.971   9.566  10.615  0.0478  0.1226 -0.1077
50382W        W 6623  21.484  26.193  19.030  0.1551 -0.3060  0.0681
50383W        W 6624   7.011  31.639  14.683 -0.2898  0.1003 -0.0330
50384W        W 6625   3.935  17.557  24.405  0.0561  0.0690 -0.0836
50385W        W 6626  26.368  22.042   8.340  0.3576  0.3236  0.1384
50386W        W 6627   6.392  14.545   5.625 -0.0532 -0.3643 -0.1230
50387W        W 6628   6.269  35.347   0.905  0.1270  0.0550  0.1655
50388W        W 6629  10.774  16.865   6.189  0.2427 -0.1566 -0.1113
50389W        W 6630  33.172  20.652  19.241 -0.1727 -0.1892 -0.3707
50390W        W 6631  11.911  32.566  15.930  0.0234  0.2491 -0.3014
50391W        W 6632   4.825   4.543  22.479  0.0923  0.0339 -0.3031
50392W        W 6633  27.344  17.715   9.691 -0.0220 -0.0179 -0.1989
50393W        W 6634  20.691  31.187  20.774  0.2286  0.2031  0.5873
50394W        W 6635  29.216   6.313  14.367  0.1442 -0.0333 -0.2446
50395W        W 6636  33.052  27.484   4.042  0.0730 -0.1289 -0.0565
50396W        W 6637  28.802   6.886  17.187  0.1648 -0.1945 -0.4404
50397W        W 6638   1.044  21.369  18.144 -0.0745  0.1458  0.1285
50398W        W 6639  29.099  33.222  21.116 -0.3585  0.0939 -0.0733
50399W        W 6640  32.875  31.437   2.733  0.2831 -0.2168 -0.0988
50400W        W 6641   6.165   5.999  25.325 -0.3609 -0.2977  0.2566
50401W        W 6642  14.133   9.011  20.327  0.1907  0.0017 -0.2116
50402W        W 6643   6.882   3.236  22.813  0.0267 -0.1063 -0.0060
50403W        W 6644  22.748  17.133  15.097 -0.1845 -0.1571 -0.0010
50404W        W 6645  31.940   1.646   4.083  0.0687 -0.0690 -0.0604
50405W        W 6646  35.341  19.719  15.484  0.0784 -0.1008 -0.1326
50406W        W 6647  16.524   7.451  17.489 -0.1626  0.3103  0.1970
50407W        W 6648  34.397  13.459   8.994 -0.3466  0.0558 -0.2498
50408W        W 6649  27.608  15.401  18.955 -0.2285 -0.1043 -0.0513
50409W        W 6650  30.159  26.364   0.830  0.2103  0.2128  0.2363
50410W        W 6651   8.491  14.630   9.909 -0.2133  0.1874 -0.0399
50411W        W 6652  27.588  32.365  21.564 -0.1773 -0.3591 -0.0015
50412W        W 6653  22.185  31.093  19.384  0.1183 -0.1507  0.0177
50413W        W 6654   0.515  20.153  18.648 -0.1825  0.0119 -0.1686
50414W        W 6655  14.422   0.357   4.138 -0.2442  0.2279  0.1699
50415W        W 6656   8.658  10.383   5.108 -0.1692 -0.1207 -0.2087
50416W        W 6657  11.627  22.440   1.214 -0.0237 -0.1103  0.2169
50417W        W 6658  10.749  31.272  25.671 -0.2313  0.0609  0.3914
50418W        W 6659  29.942  23.871  14.381  0.0364 -0.3640 -0.2324
50419W        W 6660  31.449   7.019  15.312 -0.0798 -0.0205 -0.0411
50420W        W 6661  31.370  10.916   0.202  0.0097 -0.0938  0.2030
50421W        W 6662   1.914  33.497  24.092 -0.1576 -0.2380  0.0072
50422W        W 6663   7.302  31.931   8.633 -0.2475 -0.1687 -0.2076
50423W        W 6664   8.014  26.291   3.544 -0.1471 -0.0214 -0.0481
50424W        W 6665   1.754  26.800   2.400 -0.0960 -0.3401  0.0783
50425W        W 6666  11.796   8.946   7.318 -0.1670 -0.2077  0.1085
50426W        W 6667  18.517  34.665   4.567 -0.1587  0.1331  0.0289
50427W        W 6668  27.272  35.279  23.544  0.0414  0.2628 -0.2592
50428W        W 6669  14.679  26.963   8.647  0.0979 -0.2101 -0.0216
50429W        W 6670   6.258  28.757   4.567  0.2117  0.1912  0.0102
50430W        W 6671   3.346  25.553   3.908 -0.1468  0.0274 -0.0308
50431W        W 6672  25.856  30.969  14.034  0.3702  0.1569  0.1995
50432W        W 6673  31.857  10.470   8.293 -0.2332  0.0289  0.2635
50433W        W 6674   2.773  21.165  14.183 -0.0658  0.3540 -0.1997
50434W        W 6675  21.274  19.604  24.191 -0.0093 -0.2662 -0.1164
50435W        W 6676  20.001   8.078   5.020 -0.1068  0.1509 -0.2468
50436W        W 6677  14.097   0.956   1.121  0.1696 -0.1360  0.2180
50437W        W 6678  23.672  30.330   1.838  0.3075 -0.0872 -0.0348
50438W        W 6679  12.570   6.393  24.727 -0.1557 -0.1314  0.6083
50439W        W 6680  16.059  10.275   0.875  0.1879 -0.1517 -0.2741
50440W        W 6681  25.866  12.811  14.252  0.0711  0.2331 -0.0037
50441W        W 6682   7.529  15.847   8.305 -0.1906 -0.1646  0.1233
50442W        W 6683   5.410  15.288  19.691  0.0243 -0.0399  0.0083
50443W        W 6684  22.146   2.303   7.233 -0.0811  0.2200 -0.0970
50444W        W 6685  23.205  21.098  17.149  0.1644  0.3486  0.0274
50445W        W 6686  24.638  32.969   1.445  0.1082 -0.2662 -0.2610
50446W        W 6687  29.329   2.650  23.776 -0.0816  0.0156 -0.0453
50447W        W 6688  26.010  27.465   1.756 -0.0952  0.0556 -0.1288
50448W        W 6689   8.392  13.948   2.527  0.0525  0.0830 -0.0803
50449W        W 6690  22.804   6.973  25.274  0.0543 -0.0469  0.0418
50450W        W 6691  32.989   9.439  24.414 -0.2597  0.0628  0.2281
50451W        W 6692  17.114  14.840   0.902  0.0190 -0.2108  0.0646
50452W        W 6693  24.592  22.717  25.661  0.2381  0.4543  0.1783
50453W        W 6694  30.391   0.896  14.124  0.2579  0.2124 -0.2887
50454W        W 6695  13.672  15.291   7.576  0.1118  0.0014 -0.0373
50455W        W 6696  20.893  16.558   1.258 -0.1711  0.0541 -0.0445
50456W        W 6697  22.451  18.807  25.763 -0.0419  0.2052 -0.1845
50457W        W 6698  22.769  14.139  15.383  0.2721 -0.1272  0.2620
50458W        W 6699   5.721  16.254   6.965 -0.1364  0.2889 -0.1967
50459W        W 6700  25.762  19.907   0.142 -0.6585 -0.0048  0.1658
50460W        W 6701  20.813   6.752   2.167 -0.0650  0.1277  0.1773
50461W        W 6702   9.075  21.677  25.540  0.2806 -0.0667  0.2200
50462W        W 6703  18.164  21.372   7.704  0.0934 -0.1119 -0.0726
50463W        W 6704  10.890  15.027  25.995 -0.1094 -0.0832  0.1195
50464W        W 6705  34.198   2.941   7.305  0.0761 -0.5330  0.3199
50465W        W 6706  13.916  34.165  23.468 -0.0116 -0.2867 -0.1058
50466W        W 6707  20.317  26.348   0.957  0.4061 -0.1232 -0.0193
50467W        W 6708  11.570  12.816   4.232  0.1403 -0.1375  0.2740
50468W        W 6709  10.809  31.091  26.154  0.2458 -0.1115  0.0315
50469W        W 6710  18.163  10.207   4.364 -0.0394 -0.1410 -0.3521
50470W        W 6711  11.716  26.761   4.235  0.0891 -0.1956  0.0437
50471W        W 6712   9.657   6.799   8.743 -0.1220 -0.1431  0.1334
50472W        W 6713  35.169  25.160  23.334  0.1033 -0.2731 -0.1466
50473W        W 6714  29.829   6.427  15.015  0.0602  0.0338  0.0682
50474W        W 6715   2.622  16.361   2.160  0.4290 -0.4197  0.4517
50475W        W 6716   8.513  22.941   4.386 -0.1119  0.2541  0.4841
50476W        W 6717  27.158  35.362  23.018 -0.2580 -0.1430 -0.2388
50477W        W 6718  19.801  14.869   9.464 -0.1232  0.5841 -0.3033
50478W        W 6719  11.704  18.280   3.982  0.3604 -0.0952 -0.4438
50479W        W 6720  26.241  22.717  18.914 -0.2658  0.1128 -0.1378
50480W        W 6721  20.511   0.312   7.768  0.0157  0.0318 -0.0781
50481W        W 6722  19.611   1.669  21.052  0.0014  0.0881  0.1131
50482W        W 6723  32.768  19.507  25.886  0.1811  0.0775 -0.0028
50483W        W 6724  33.822  20.549  13.199 -0.3425  0.0632  0.0008
50484W        W 6725   7.002   7.403  20.609 -0.0600  0.0079 -0.0575
50485W        W 6726  11.218  22.929   9.949 -0.2480 -0.1631  0.1047
50486W        W 6727   9.634  32.965   3.121  0.0735 -0.0498 -0.0248
50487W        W 6728   8.928  30.724  23.120 -0.2841 -0.0743 -0.2378
50488W        W 6729  10.594  24.771   3.586 -0.0752 -0.0658  0.0708
50489W        W 6730  28.196   3.032   2.126  0.0331  0.0858  0.1145
50490W        W 6731  31.149  15.722  11.260 -0.2367  0.1072 -0.0233
50491W        W 6732   4.170  18.768  18.335  0.0683 -0.0271  0.4110
50492W        W 6733  13.524   9.812   6.356  0.0327 -0.0301  0.1710
50493W        W 6734  22.222   8.483  23.924 -0.1582  0.0617  0.2588
50494W        W 6735  14.068  23.837  13.222  0.2337  0.1000  0.0402
50495W        W 6736   0.787  34.750  20.782 -0.0607  0.0766 -0.1414
50496W        W 6737   3.202  21.611  16.487 -0.0007  0.1080 -0.1235
50497W        W 6738  19.343  25.186  21.727 -0.2467 -0.2732 -0.1362
50498W        W 6739  14.862  27.480   0.602 -0.1543 -0.2513 -0.2485
50499W        W 6740   4.253   6.675   6.679 -0.1007 -0.1844  0.0451
50500W        W 6741  18.989  22.693   5.437 -0.1992 -0.1059  0.2007
50501W        W 6742  25.862   3.729   1.508 -0.1055  0.0564 -0.1425
50502W        W 6743   5.135  19.745  18.384  0.3285 -0.1307  0.5696
50503W        W 6744  25.211  14.577  17.567 -0.1251 -0.0785  0.0861
50504W        W 6745  28.392  14.990  24.311  0.0876 -0.0091 -0.1218
50505W        W 6746   3.496   1.683  24.046 -0.1021  0.0856 -0.1173
50506W        W 6747  13.236  14.616   5.611 -0.0493  0.1165 -0.0791
50507W        W 6748  15.780  26.996  25.891  0.4065 -0.1350  0.0079
50508W        W 6749   8.447  21.359  11.643 -0.0187  0.3164 -0.0770
50509W        W 6750  10.013  10.764   9.444 -0.1024 -0.2140  0.0773
50510W        W 6751  10.214  28.966   5.902 -0.1817 -0.2003 -0.0995
50511W        W 6752   8.356  12.448   6.740  0.1640 -0.3440  0.3707
50512W        W 6753   0.306  16.599  19.971  0.3403  0.0002  0.0537
50513W        W 6754  17.072  18.546  25.239  0.0509 -0.2804 -0.4533
50514W        W 6755  15.169  13.176   2.185 -0.0990  0.0528  0.2079
50515W        W 6756   9.241  23.971  15.836  0.0452 -0.1550  0.1979
50516W        W 6757   8.706   5.642  21.911 -0.0364 -0.0618  0.1367
50517W        W 6758  34.969  10.398  19.079 -0.1531  0.2175  0.2791
50518W        W 6759   0.128  21.463   8.665  0.0779 -0.1085 -0.0994
50519W        W 6760  29.655  14.533  12.932 -0.2008  0.0457 -0.0594
50520W        W 6761  17.029   2.413  20.541 -0.0197  0.2805 -0.0587
50521W        W 6762  33.315  24.884  13.110 -0.0823 -0.2548  0.0964
50522W        W 6763   3.674  32.946  21.069  0.0210  0.0129  0.2392
50523W        W 6764  29.159  14.817  10.379 -0.1239 -0.2161  0.1438
50524W        W 6765  10.887  22.069   5.336  0.1393 -0.2047  0.0972
50525W        W 6766  34.424  19.275  24.966  0.1105  0.1865  0.2555
50526W        W 6767   6.618   4.131  20.273 -0.2541 -0.0174  0.0565
50527W        W 6768   1.073   7.716   2.306 -0.1697  0.2348 -0.0682
50528W        W 6769  12.148   8.759  23.492  0.3634  0.1540  0.0018
50529W        W 6770  23.112  17.561   0.305 -0.2959  0.2814 -0.0355
50530W        W 6771  25.737  24.943  16.383 -0.1502 -0.2684  0.1056
50531W        W 6772   4.172   0.957  21.464 -0.0646 -0.0480  0.0800
50532W        W 6773  28.890   1.123  16.801  0.1234 -0.2599 -0.1768
50533W        W 6774   8.690  25.367   0.449  0.0864 -0.0298 -0.1269
50534W        W 6775  32.273   0.632  23.069  0.0028  0.2707  0.3943
50535W        W 6776  26.644  25.843  14.373  0.1300  0.2984  0.3847
50536W        W 6777  31.492  25.569  14.619 -0.0919 -0.2701 -0.1892
50537W        W 6778   1.588  18.159   1.518 -0.1000  0.1633 -0.0764
50538W        W 6779  24.013   7.673   0.703 -0.3003 -0.1396 -0.2286
50539W        W 6780  32.731  14.172   0.402  0.0702  0.2129  0.1817
50540W        W 6781  33.249  12.242  17.099 -0.4036  0.0149  0.1089
50541W        W 6782   6.604  26.666   1.600  0.0121  0.2684  0.0256
50542W        W 6783   1.922  31.526  18.541 -0.1112 -0.0897 -0.3009
50543W        W 6784  11.101  33.076   3.290  0.0356 -0.0951  0.0382
50544W        W 6785  21.935  35.362   7.243 -0.0111 -0.0377  0.1765
50545W        W 6786   5.462  23.872   5.311  0.2152 -0.0119  0.1638
50546W        W 6787   5.308  23.448   1.318  0.1916  0.0056  0.1511
50547W        W 6788  15.139   9.439   8.963 -0.2313  0.1501 -0.0474
50548W        W 6789  29.371   9.710  12.168 -0.1408 -0.0986 -0.0478
50549W        W 6790   8.607  16.193   1.722 -0.0386 -0.2373  0.0341
50550W        W 6791  23.159  27.097   0.354 -0.1552 -0.2079  0.1408
50551W        W 6792  13.661  29.195  25.024  0.0714  0.1099 -0.1818
50552W        W 6793   2.673   0.450  17.770 -0.1682  0.0156  0.1879
50553W        W 6794  28.625  19.592  18.401  0.1681 -0.1157 -0.0679
50554W        W 6795  27.626   9.944  10.410 -0.1132 -0.1184  0.2175
50555W        W 6796  19.105  27.636  23.473 -0.2386 -0.0322  0.0190
50556W        W 6797  28.962   8.353  11.278  0.2086  0.1669 -0.2533
50557W        W 6798  32.682  31.353  14.609  0.0450  0.1737 -0.0553
50558W        W 6799   0.324  10.321  10.557 -0.0171  0.0665  0.0699
50559W        W 6800   1.132   4.909   5.925  0.0887  0.1137  0.1111
50560W        W 6801  28.424   6.811  11.290 -0.0671 -0.1286  0.0123
50561W        W 6802  34.951  10.591   0.843  0.1013  0.1736  0.2233
50562W        W 6803  30.107  33.359  22.335 -0.0224  0.1420  0.1869
50563W        W 6804  21.154  31.777  23.982 -0.1265 -0.0403 -0.1915
50564W        W 6805  31.720  18.374   5.503  0.2126  0.0968 -0.1258
50565W        W 6806  32.295  31.075  17.766 -0.0465  0.1287  0.1369
50566W        W 6807   7.620  19.041   8.402  0.0302  0.0063  0.0394
50567W        W 6808  33.235   0.678   1.699  0.0187  0.1652 -0.0659
50568W        W 6809  19.781   7.696  16.800 -0.4256  0.1402  0.2863
50569W        W 6810  14.897  20.081  12.387  0.0457  0.5407  0.0162
50570W        W 6811  14.084   8.551   8.516  0.0625  0.0488  0.0876
50571W        W 6812  10.209   2.565   2.986  0.1870  0.2114 -0.1040
50572W        W 6813  19.104  12.361   0.140 -0.1013 -0.2416 -0.0850
50573W        W 6814  31.889  11.762  18.225 -0.1219  0.1309 -0.3354
50574W        W 6815  13.589  15.349   3.690 -0.0426  0.0868  0.2024
50575W        W 6816  17.411  26.217   1.616 -0.0188  0.0165  0.1223
50576W        W 6817  12.586   1.363  22.044 -0.1826 -0.2661  0.2080
50577W        W 6818  26.739   4.477   1.253 -0.0249 -0.3806 -0.1603
50578W        W 6819  34.983  16.174  17.352 -0.0322  0.0176  0.1925
50579W        W 6820   8.731  25.169   2.744  0.1358 -0.0422  0.1598
50580W        W 6821  26.763  32.456  20.522 -0.2029 -0.0810 -0.0211
50581W        W 6822  26.798   7.960   0.919 -0.0092 -0.0551  0.1024
50582W        W 6823   7.067  21.444  23.480  0.1034 -0.2271  0.3636
50583W        W 6824  31.342  16.275   7.604 -0.2396  0.3226  0.0041
50584W        W 6825  15.016  21.885  23.165 -0.0102  0.0865  0.0047
50585W        W 6826   3.078  31.361  11.358 -0.2012  0.1791  0.0645
50586W        W 6827  32.142  33.208  18.822 -0.1322  0.0866 -0.0678
50587W        W 6828  20.540   9.284  17.022  0.0177 -0.0723 -0.0310
50588W        W 6829  24.071  24.569  17.567 -0.0835 -0.3825  0.0984
50589W        W 6830  30.477  32.024  22.636 -0.2756 -0.2551  0.2128
50590W        W 6831  13.787   0.938  24.816 -0.2242 -0.2361 -0.3142
50591W        W 6832  29.679   9.649  16.595  0.1775 -0.1363  0.0841
50592W        W 6833  22.965  17.731  16.557  0.0884  0.1109 -0.2400
50593W        W 6834  20.217  35.200  24.977 -0.0507  0.2956  0.2086
50594W        W 6835  14.312  11.038   6.610 -0.1204  0.2533  0.1375
50595W        W 6836   1.561  10.162   4.174 -0.0022 -0.0128  0.1573
50596W        W 6837   6.312   7.099  11.755 -0.0754  0.0101  0.2380
50597W        W 6838  26.119  34.578   4.014  0.3220 -0.0272 -0.1080
50598W        W 6839  14.338  14.900   0.800 -0.1275  0.1094 -0.1318
50599W        W 6840  28.151  23.324  19.524 -0.2045  0.2134  0.0814
50600W        W 6841  28.101   8.028  15.887 -0.0032  0.0740 -0.5190
50601W        W 6842  14.696  32.483  25.574  0.2963  0.0675 -0.2223
50602W        W 6843  10.214   1.104   1.875 -0.0765 -0.0767 -0.0767
50603W        W 6844   9.318   2.436   9.142  0.1174 -0.0463  0.3502
50604W        W 6845   8.779  12.469   9.474 -0.2128  0.0072  0.0345
50605W        W 6846   6.595  23.520   5.015  0.0935 -0.1457 -0.1768
50606W        W 6847   8.369  33.595   3.097 -0.0660 -0.1266 -0.2021
50607W        W 6848  16.334   6.856  25.277  0.0797 -0.0659 -0.2926
50608W        W 6849  33.076  24.546  14.779  0.1920 -0.1378 -0.2146
50609W        W 6850  21.584  17.245  22.311 -0.2595 -0.1273 -0.2861
50610W        W 6851   6.228  27.523   3.352 -0.2726 -0.1576 -0.0545
50611W        W 6852   2.199  11.000  18.316  0.1355  0.1175  0.0310
50612W        W 6853  14.907  20.237  10.492  0.2147  0.3865 -0.2321
50613W        W 6854   9.062  25.204   0.920  0.1603 -0.1767  0.3990
50614W        W 6855  25.849   9.921  11.837 -0.1545 -0.2154  0.1955
50615W        W 6856  21.905  31.503  20.278  0.0150 -0.1381 -0.4278
50616W        W 6857  12.672  29.594  24.981 -0.1229 -0.3376 -0.0560
50617W        W 6858  11.212   3.222   6.642  0.0123  0.1915  0.2053
50618W        W 6859  25.290   5.465   1.901  0.2578 -0.4723 -0.0089
50619W        W 6860  15.988  28.550   8.559  0.0824 -0.1973 -0.1066
50620W        W 6861   5.845  21.168   5.806 -0.0779  0.1113  0.3527
50621W        W 6862   9.046  13.235  19.705  0.1617  0.1241  0.0285
50622W        W 6863  25.237  30.341  21.517  0.0798  0.2371 -0.0022
50623W        W 6864  17.100  17.770   6.100 -0.0531 -0.0491  0.2808
50624W        W 6865  21.569  32.454   2.607  0.0911  0.0702  0.2423
50625W        W 6866   1.788   1.056   0.946  0.0429 -0.1373 -0.0216
50626W        W 6867  18.255  10.492   2.665 -0.0320 -0.2508  0.1750
50627W        W 6868  25.960  22.944  10.928 -0.2472  0.2642 -0.0425
50628W        W 6869   6.921  31.630   5.848  0.3609 -0.1589 -0.3612
50629W        W 6870  10.642  20.330  13.197  0.0617 -0.0684 -0.0175
50630W        W 6871  18.660   0.867   0.756 -0.2693 -0.2993 -0.2520
50631W        W 6872  31.358  18.330   6.740 -0.3035 -0.1195  0.1807
50632W        W 6873  25.636  18.188  12.627  0.0680  0.0768 -0.3922
50633W        W 6874  27.600  19.647  18.883 -0.1169  0.1992 -0.0136
50634W        W 6875  14.122  25.283   8.138  0.1912 -0.0223 -0.2894
50635W        W 6876   4.491  25.641  23.298 -0.3536  0.2850  0.0738
50636W        W 6877  23.710   3.457   4.533  0.3267  0.0192  0.1306
50637W        W 6878  12.761   3.806  23.784 -0.0888 -0.2695 -0.2697
50638W        W 6879  32.841  15.954  16.436  0.0542 -0.1403  0.4363
50639W        W 6880   1.189  19.529  17.021 -0.0767  0.2843  0.2079
50640W        W 6881  24.720  31.806  16.091 -0.0597  0.1640  0.0285
50641W        W 6882  19.806   6.362   6.163  0.1033 -0.2075 -0.0296
50642W        W 6883   2.313  22.542   2.370  0.1209  0.3010 -0.0301
50643W        W 6884  34.622   2.241  23.020 -0.3415 -0.1020  0.2791
50644W        W 6885  14.730  15.459  12.018 -0.2919  0.3038 -0.0346
50645W        W 6886  30.196   3.452   0.063 -0.0078  0.1434 -0.0485
50646W        W 6887  22.399  30.912   0.760 -0.0371 -0.1549 -0.0523
50647W        W 6888  10.213  16.664   3.740  0.2038  0.0765 -0.2347
50648W        W 6889  13.639   3.275  10.630 -0.1248 -0.1994  0.2539
50649W        W 6890  18.367  17.025   3.375 -0.3552 -0.0256 -0.4429
50650W        W 6891  26.339  15.386  24.569  0.1279 -0.1902  0.0929
50651W        W 6892   7.735   8.970   1.752 -0.1625  0.1471  0.0071
50652W        W 6893  22.128  11.935  17.459 -0.1702  0.0681 -0.0773
50653W        W 6894  22.970  32.581   0.301 -0.1143  0.0913  0.0079
50654W        W 6895  32.079   7.864  19.713  0.1695 -0.1240 -0.1183
50655W        W 6896  35.053  21.934  20.482 -0.0764 -0.0296 -0.1959
50656W        W 6897  28.824  23.744   9.272  0.2525  0.1212  0.0419
50657W        W 6898   6.814  20.388   9.647  0.1148 -0.2328 -0.3155
50658W        W 6899   8.494  33.155   6.523 -0.2232  0.0706  0.1559
50659W        W 6900  26.870  15.289  19.426 -0.1610  0.0764  0.2114
50660W        W 6901  18.761   1.181  23.508  0.0632  0.1603  0.2578
50661W        W 6902  31.215   3.456  23.992 -0.1031 -0.1678 -0.1890
50662W        W 6903  26.700  21.164  21.586 -0.0494  0.0227 -0.1437
50663W        W 6904  25.451  30.347  14.457 -0.1587  0.3800  0.1012
50664W        W 6905  28.661   1.389  20.190 -0.1348 -0.0791  0.2986
50665W        W 6906   8.530  30.517   8.476 -0.0067  0.1723  0.1593
50666W        W 6907  24.200  32.468  19.245  0.2213  0.3273  0.0697
50667W        W 6908  16.398  34.031   1.343 -0.4462 -0.1661 -0.0251
50668W        W 6909  15.401  10.335   3.275 -0.0034 -0.2281 -0.0204
50669W        W 6910   9.408  31.495   0.206  0.0732  0.0453 -0.0620
50670W        W 6911  35.196  28.938  24.628 -0.1485  0.0287  0.2842
50671W        W 6912  18.479   1.687  21.486 -0.2888 -0.0490  0.1240
50672W        W 6913  32.153  31.486   1.599 -0.1960 -0.0523  0.1226
50673W        W 6914  14.348  22.826  13.198  0.2949 -0.3467 -0.1467
50674W        W 6915  31.460  22.839   7.891  0.0700 -0.0404 -0.0959
50675W        W 6916  27.116  11.089  18.749 -0.0156  0.0606 -0.2753
50676W        W 6917  10.432   1.896  23.963  0.2974 -0.1215 -0.0296
50677W        W 6918  12.385  22.930   3.004 -0.0520  0.0935  0.0352
50678W        W 6919   7.324   7.850   7.504  0.2298 -0.3231 -0.3047
50679W        W 6920  14.174  10.574   8.780 -0.0355  0.0855 -0.0030
50680W        W 6921   9.135  34.644  10.702  0.0932  0.1003  0.0684
50681W        W 6922  34.187   4.291  12.533  0.1386  0.1465 -0.0460
50682W        W 6923  14.945   6.340  19.815 -0.0036  0.0277 -0.0332
50683W        W 6924  26.666   0.233   5.495 -0.0658  0.4143 -0.0453
50684W        W 6925   8.458  33.803   5.138  0.1955 -0.3359 -0.1300
50685W        W 6926   0.212  16.033   9.625  0.2119 -0.2672 -0.0795
50686W        W 6927  16.018   8.859   1.281 -0.3120 -0.2354 -0.1417
50687W        W 6928  17.269  26.841  20.689  0.3796 -0.2523 -0.0220
50688W        W 6929  22.820  31.580  22.286  0.0064  0.0508 -0.1347
50689W        W 6930  14.073  27.593   5.125 -0.0201 -0.4139 -0.0390
50690W        W 6931  25.106  15.098  14.541  0.1802 -0.1240 -0.1125
50691W        W 6932   6.894  14.258  18.248  0.3420 -0.2414 -0.0917
50692W        W 6933  15.086   2.401  23.340  0.0687  0.1011  0.0038
50693W        W 6934  33.024   0.019   4.738  0.1029  0.1403 -0.0123
50694W        W 6935   2.235  24.193   2.934 -0.3019  0.0631  0.2323
50695W        W 6936  19.752   9.226  20.982 -0.0668  0.1194  0.0154
50696W        W 6937  29.821  21.190   8.501 -0.0258 -0.0511 -0.0778
50697W        W 6938  23.965  34.632   3.260 -0.1073 -0.1565 -0.1200
50698W        W 6939  29.309  17.560  19.494  0.0239  0.4039  0.2053
50699W        W 6940  13.832   7.340   6.729 -0.1631  0.3578 -0.2181
50700W        W 6941   5.125   8.939  17.399 -0.3962  0.2957  0.1312
50701W        W 6942  22.267  26.388   4.507 -0.1215  0.0815  0.2447
50702W        W 6943   1.347  30.529   6.754  0.1820  0.0244  0.3331
50703W        W 6944   8.313  27.278   0.070  0.2560  0.2075 -0.1753
50704W        W 6945  28.697   4.085  23.960  0.3087  0.1650  0.2096
50705W        W 6946   4.502  34.114   5.667 -0.1154  0.0319 -0.1424
50706W        W 6947  10.640   7.571   7.571 -0.2398 -0.0024  0.0976
50707W        W 6948  15.397  16.567  11.871 -0.0851  0.4297  0.0956
50708W        W 6949  22.227  17.529   1.724  0.2163  0.2434 -0.2873
50709W        W 6950  20.003   8.805  21.309  0.0555  0.1720  0.0559
50710W        W 6951  13.937  29.597  23.264 -0.1202  0.2815 -0.0984
50711W        W 6952  14.191  17.521   6.826  0.2502 -0.0519 -0.3768
50712W        W 6953  34.368  24.466  12.768 -0.1285  0.0847 -0.2977
50713W        W 6954  33.241   6.870  25.553 -0.2432 -0.1118 -0.1816
50714W        W 6955  24.199  10.849  21.736  0.2483  0.2173  0.4487
50715W        W 6956  21.554   8.109   4.179 -0.1341 -0.1011  0.0493
50716W        W 6957   9.474   7.512  25.833  0.1926 -0.1792  0.1704
50717W        W 6958  25.898  23.995  20.737 -0.2674  0.1009 -0.0910
50718W        W 6959  18.744  29.028   8.164 -0.1127 -0.0701  0.0817
50719W        W 6960  14.080  27.257  22.012 -0.1939  0.4844 -0.1080
50720W        W 6961  22.872  31.831   5.486  0.1568 -0.1291  0.0164
50721W        W 6962  34.463  33.219  18.003 -0.1388  0.0117  0.1696
50722W        W 6963  25.453  33.600  18.076 -0.1640 -0.0246  0.2501
50723W        W 6964  16.678   6.161   8.257  0.3260 -0.0333 -0.0778
50724W        W 6965   5.916  26.866  26.152 -0.2140 -0.1580 -0.0524
50725W        W 6966  16.843  18.267   4.931 -0.0351 -0.1573 -0.0549
50726W        W 6967  31.011  23.983  20.495  0.2284 -0.2753  0.1696
50727W        W 6968  35.273  19.681  10.620 -0.1794 -0.1257 -0.1333
50728W        W 6969  32.705   7.557   2.584 -0.0034  0.1415  0.0658
50729W        W 6970  10.659  30.095   7.532 -0.0138  0.0296 -0.1745
50730W        W 6971  25.845   5.788  22.459  0.3545  0.1676  0.0319
50731W        W 6972   2.550  29.816   2.042  0.0910 -0.0901  0.3154
50732W        W 6973  23.549  19.141   0.852 -0.0848 -0.0329  0.1262
50733W        W 6974   4.911  33.364   6.914 -0.2507 -0.1153 -0.1809
50734W        W 6975  29.264  35.051   4.450  0.1206  0.1350 -0.0768
50735W        W 6976  25.398  34.921  20.497  0.0088  0.1577  0.0439
50736W        W 6977  12.047   0.846  25.784 -0.1135 -0.2257 -0.0161
50737W        W 6978  26.646   1.872  15.527  0.3193  0.0256 -0.1793
50738W        W 6979  30.381  28.597  23.641  0.0979 -0.0243  0.2508
50739W        W 6980   7.220   0.445   6.755  0.0611 -0.1946 -0.1180
50740W        W 6981  31.360  28.221  18.746  0.2662  0.2416  0.0055
50741W        W 6982   0.178  24.334  16.703  0.0334  0.0405  0.1251
50742W        W 6983  22.820  28.611   4.888  0.0504  0.0238 -0.0198
50743W        W 6984   6.420  31.125  13.361  0.0643 -0.0794  0.0161
50744W        W 6985   0.323  20.782  20.282 -0.0704 -0.1150  0.1854
50745W        W 6986  16.863   6.666  23.650  0.0585  0.1831 -0.2043
50746W        W 6987  21.609   9.647   0.984  0.0401 -0.1445  0.1852
50747W        W 6988  16.528  29.667   3.379  0.2392 -0.0444  0.0375
50748W        W 6989  30.738  14.302  10.867  0.2336 -0.2025  0.0640
50749W        W 6990  20.985  16.790   0.417  0.4738 -0.0234 -0.0115
50750W        W 6991  15.370  24.581   3.984 -0.1830  0.0547  0.0662
50751W        W 6992   6.657  13.619   0.035  0.1437  0.1473  0.1294
50752W        W 6993  32.210  23.877  25.387  0.1218  0.1053  0.2956
50753W        W 6994  15.208   6.641  24.265  0.0044  0.0230  0.0256
50754W        W 6995  11.966  21.591   6.658  0.0178  0.3509  0.0708
50755W        W 6996  16.864  25.836  11.858 -0.0776 -0.0951 -0.0501
50756W        W 6997  31.415   8.999  15.412 -0.1522  0.0985 -0.0005
50757W        W 6998   1.276   5.422  23.911 -0.0760 -0.2060 -0.1454
50758W        W 6999  25.874  27.373  16.902  0.0532 -0.1598  0.0756
50759W        W 7000  20.690  21.610   6.178 -0.0324  0.1457  0.1121
50760W        W 7001  10.218  31.704   4.099 -0.2995  0.3399 -0.1805
50761W        W 7002  31.316  25.595  23.879  0.0385 -0.1081 -0.0256
50762W        W 7003   2.067   7.901   1.159  0.0400  0.1099  0.0165
50763W        W 7004  10.558  21.479  23.517  0.0545  0.1357 -0.0739
50764W        W 7005   6.752  20.192   8.596 -0.0789 -0.2365 -0.2473
50765W        W 7006  29.331   1.187  11.485  0.0309  0.1474 -0.2142
50766W        W 7007  21.769  10.754  16.057  0.2088 -0.1486  0.0293
50767W        W 7008  20.620   6.423   3.226 -0.0880  0.0041 -0.2776
50768W        W 7009  31.839   1.259  24.199  0.0682 -0.0828 -0.3997
50769W        W 7010  18.118  23.516  21.163  0.2523 -0.2188  0.2637
50770W        W 7011  24.162  20.744  16.636  0.1755 -0.1013  0.0904
50771W        W 7012  10.945  17.454   0.980 -0.0484  0.1925 -0.1440
50772W        W 7013  18.888  29.555  18.645  0.0425 -0.0844 -0.1940
50773W        W 7014  13.956   6.014  21.238 -0.1901  0.0819  0.0601
50774W        W 7015  14.541  18.498   3.232 -0.0491 -0.0917 -0.1199
50775W        W 7016   8.563   0.294  10.553 -0.3316 -0.2612  0.0176
50776W        W 7017   6.012  33.557  11.784 -0.0766 -0.1353  0.0670
50777W        W 7018  14.151  30.557  22.917 -0.1639 -0.1935  0.0269
50778W        W 7019   4.598   0.712   4.511 -0.1919 -0.0605  0.1606
50779W        W 7020  11.458   0.827   5.760 -0.5317 -0.4470 -0.1177
50780W        W 7021   8.919  33.711   9.102  0.0278  0.2744 -0.0542
50781W        W 7022  30.773  18.766  20.292  0.1914 -0.4217 -0.1720
50782W        W 7023  16.265   1.455  25.550 -0.1237  0.0060 -0.2199
50783W        W 7024  28.498  32.107  16.831  0.1555  0.0449  0.0335
50784W        W 7025   1.085  33.380  25.091  0.2821  0.1525 -0.1670
50785W        W 7026   5.094  15.662  24.086 -0.0113  0.0861 -0.1478
50786W        W 7027  23.892  10.243   3.121 -0.3279  0.1241 -0.3625
50787W        W 7028  15.399  28.896  21.761  0.0930 -0.2486 -0.2116
50788W        W 7029  22.203  23.605  19.430  0.0831  0.1665 -0.1075
50789W        W 7030   8.936  13.158  21.725  0.0052 -0.1533 -0.0183
50790W        W 7031  11.982   4.180  13.555  0.0068  0.0858  0.1753
50791W        W 7032  20.048  21.593  18.940 -0.0846  0.0225 -0.1153
50792W        W 7033   5.964  20.658   2.788  0.2739 -0.1057  0.0252
50793W        W 7034  22.188  26.755  14.099  0.5228  0.3185 -0.3649
50794W        W 7035  34.133  16.665  15.351 -0.1122  0.3700 -0.2841
50795W        W 7036   0.488  22.393  18.320  0.1716  0.1562 -0.4749
50796W        W 7037   6.971   8.804   5.752 -0.1647  0.0168  0.0707
50797W        W 7038  22.718   0.839  23.039  0.0533  0.0099  0.1409
50798W        W 7039  12.322   1.572  23.984  0.1883 -0.0225  0.0461
50799W        W 7040  31.391   3.354  12.005 -0.1399 -0.0517 -0.1034
50800W        W 7041  27.609  34.611   3.567  0.3609 -0.0678 -0.1063
50801W        W 7042  31.322  20.727  25.173  0.0556  0.1557  0.2799
50802W        W 7043   4.918  22.405   7.857 -0.1327 -0.4413 -0.0860
50803W        W 7044  14.574  17.874  10.119  0.0805  0.1252 -0.1124
50804W        W 7045  13.035  27.440  22.004  0.2155  0.1293  0.0053
50805W        W 7046   7.567  17.410  19.749 -0.2725  0.3355  0.0528
50806W        W 7047  29.750  27.248   9.890 -0.2744 -0.1671  0.0334
50807W        W 7048  15.606  11.456   0.707 -0.0494 -0.0836 -0.3746
50808W        W 7049  14.457   6.293   2.070 -0.0358 -0.1072  0.0785
50809W        W 7050  24.199  26.240  13.684  0.3520 -0.0372 -0.0635
50810W        W 7051   5.742   4.482   9.432  0.1044 -0.2487 -0.0894
50811W        W 7052  34.027   8.284  13.832  0.4237 -0.0322  0.0910
50812W        W 7053   4.013   2.999   8.687  0.0948  0.0012  0.3860
50813W        W 7054  14.419  11.640  12.009 -0.0143 -0.0673  0.0907
50814W        W 7055   2.698   1.693   5.633  0.0885  0.3867  0.0782
50815W        W 7056  26.303  20.156  18.326 -0.3790 -0.0219  0.2258
50816W        W 7057   5.633  23.424  20.632  0.2310  0.0171 -0.1005
50817W        W 7058  34.626   1.527  18.131 -0.1156 -0.4020  0.0967
50818W        W 7059  14.835  10.469  12.122  0.0286  0.0182  0.0341
50819W        W 7060  16.837  19.771  21.170 -0.0654 -0.2154 -0.3055
50820W        W 7061  26.174  18.782  21.985 -0.1978  0.2333  0.0797
50821W        W 7062  16.443  27.096  21.656  0.3078  0.0666  0.1442
50822W        W 7063  12.916  35.023   9.413  0.1114 -0.2352  0.1207
50823W        W 7064  10.792  12.809   0.971 -0.1203  0.1729  0.1881
50824W        W 7065  24.028  32.045  20.077  0.1516  0.0245 -0.1267
50825W        W 7066  11.914  19.743   6.989  0.0681  0.0238 -0.1849
50826W        W 7067  15.538  16.480  10.008  0.6832  0.2737  0.2036
50827W        W 7068  21.871  12.656  17.740 -0.0649 -0.0344  0.1069
50828W        W 7069  34.410   2.374   0.402  0.2750 -0.1125  0.0872
50829W        W 7070   5.815  22.017   2.662  0.0631  0.1950  0.0588
50830W        W 7071  12.525  21.885  24.003 -0.1657  0.1225  0.3036
50831W        W 7072  17.453  33.885   7.046  0.0755  0.0025 -0.0401
50832W        W 7073   6.279  27.942  21.699  0.4245  0.3293 -0.1012
50833W        W 7074  23.351  21.542  24.874  0.0565  0.1312 -0.0528
50834W        W 7075  12.547  27.086   0.048 -0.1650  0.0768 -0.0672
50835W        W 7076   2.437  27.598  19.352 -0.4076  0.0550 -0.4486
50836W        W 7077   1.140  15.309  16.422 -0.1581 -0.4055  0.2053
50837W        W 7078  32.669   7.361  19.553 -0.0090 -0.1138  0.0288
50838W        W 7079   0.631   7.960  11.827 -0.0570  0.3263  0.0545
50839W        W 7080  15.399  25.421   5.486  0.1552 -0.3631  0.4192
50840W        W 7081   7.644  14.355   8.864 -0.1883  0.2707 -0.0477
50841W        W 7082  31.735  29.174  16.282 -0.1778  0.0664  0.1497
50842W        W 7083   3.760  27.833  24.654  0.2668 -0.0775 -0.0163
50843W        W 7084  23.650  32.913  24.341 -0.1636  0.0082 -0.0745
50844W        W 7085   3.359  23.181  17.411 -0.0875 -0.0911  0.1096
50845W        W 7086  15.063  26.559  14.085  0.2689  0.0464 -0.2146
50846W        W 7087   3.605  10.444  19.994 -0.0272  0.1482 -0.0701
50847W        W 7088  28.959  24.061   7.846 -0.2608 -0.1643 -0.3181
50848W        W 7089  34.406  30.169  15.971 -0.1363 -0.1904  0.0533
50849W        W 7090  32.114   1.884  15.663  0.0512  0.0611  0.0736
50850W        W 7091  27.704  32.157   1.751  0.0647 -0.2040 -0.1685
50851W        W 7092  18.212  18.009  21.427  0.2302  0.0180  0.2373
50852W        W 7093  33.735  16.049   6.662 -0.1796 -0.0324  0.4308
50853W        W 7094  12.739  18.001  20.019  0.1006 -0.0582  0.1797
50854W        W 7095   5.828   2.741   4.067  0.1024  0.0612 -0.2331
50855W        W 7096  20.837  15.297  18.030  0.0649  0.1093  0.1170
50856W        W 7097   2.515  31.271   1.851  0.2735  0.0263  0.1260
50857W        W 7098  19.499  11.616  18.136  0.0782  0.0817  0.1584
50858W        W 7099  32.743  33.337  21.534 -0.0804  0.0480 -0.1897
50859W        W 7100  31.849   7.096   2.939 -0.1676  0.0107  0.0587
50860W        W 7101  12.714  22.629  24.740 -0.1115  0.1796  0.1356
50861W        W 7102  22.400  33.097  16.745 -0.0099  0.3052 -0.0748
50862W        W 7103  18.412  30.050  20.433  0.2699 -0.1661  0.0879
50863W        W 7104   3.260  18.495  16.337  0.0426 -0.3241  0.1894
50864W        W 7105   1.131  33.209  19.739 -0.1196 -0.1694 -0.2318
50865W        W 7106  29.650  18.861  22.659  0.0014 -0.0839 -0.3857
50866W        W 7107   7.007   6.737   1.308  0.0122  0.1375 -0.1918
50867W        W 7108   3.962  34.127   1.347 -0.1066  0.1076 -0.1896
50868W        W 7109  27.138  25.079   8.517  0.0455  0.1006 -0.0841
50869W        W 7110  14.877   2.347  19.731  0.0337  0.0126 -0.1933
50870W        W 7111  12.136   9.553  13.252  0.4227  0.0083 -0.1967
50871W        W 7112   5.017  19.170  22.654 -0.1965 -0.0073 -0.1675
50872W        W 7113   4.812  11.516   3.753 -0.0563 -0.0421 -0.0538
50873W        W 7114   3.059  20.876  25.790 -0.1139  0.3541 -0.0147
50874W        W 7115   1.289  19.327  12.938  0.1324  0.2505 -0.1521
50875W        W 7116   9.165   5.719   3.041  0.1282 -0.3641  0.2063
50876W        W 7117  20.219  14.889  17.205  0.0506 -0.1973 -0.0628
50877W        W 7118  26.472  24.787  13.519 -0.4318  0.0227 -0.1273
50878W        W 7119  18.146  34.957  25.955  0.0416  0.0241  0.0309
50879W        W 7120   7.944  15.472  12.594 -0.1672  0.1642 -0.0840
50880W        W 7121   1.878  14.199  22.541  0.0481  0.0000  0.2559
50881W        W 7122  28.052  19.067  11.519  0.0621  0.2006 -0.2965
50882W        W 7123   0.068   4.939  13.392  0.0194 -0.1327  0.0694
50883W        W 7124  22.261  25.860  22.599 -0.0617  0.1318  0.3102
50884W        W 7125  31.961   4.763  25.245 -0.2435 -0.2746 -0.1216
50885W        W 7126   3.063  17.033   0.048  0.3345  0.0766  0.0517
50886W        W 7127  15.175  16.021   1.004  0.2340 -0.1748  0.2372
50887W        W 7128   6.889   5.084  20.496 -0.1766 -0.0525  0.2811
50888W        W 7129   7.379  10.754   2.858  0.2604 -0.2044  0.1487
50889W        W 7130   0.997  20.261  16.047  0.0888 -0.2513  0.2392
50890W        W 7131  27.859  33.657  13.330 -0.0392 -0.2293  0.0582
50891W        W 7132  17.719   0.249   2.876 -0.0932  0.0930  0.0567
50892W        W 7133  20.115   9.055   5.661  0.0283  0.0387 -0.0065
50893W        W 7134  35.155  16.698  19.311  0.1928  0.2124 -0.0171
50894W        W 7135  13.741   0.814  20.815 -0.0154  0.0534 -0.4651
50895W        W 7136  18.442  19.687   6.367  0.2596  0.0531  0.0575
50896W        W 7137  16.184  20.634  21.781 -0.1418  0.0381 -0.1046
50897W        W 7138  13.408  28.959   3.995 -0.4277  0.0580  0.1080
50898W        W 7139  32.855   6.293  22.331  0.4085 -0.1543 -0.1727
50899W        W 7140   7.169  14.056  19.565 -0.1500  0.1182  0.0789
50900W        W 7141  29.885  31.130   2.679 -0.2932 -0.1769 -0.0181
50901W        W 7142  24.670   2.182   5.832 -0.0208 -0.1201  0.1401
50902W        W 7143   5.937  34.351  26.012  0.1407  0.3469 -0.0881
50903W        W 7144  15.028  33.171   3.076 -0.3905 -0.0895 -0.0387
50904W        W 7145   6.072  19.215   1.278 -0.1601 -0.3055 -0.0463
50905W        W 7146  11.925  16.821   1.738  0.0032 -0.0923  0.1992
50906W        W 7147  35.343   0.042   2.979 -0.2877  0.0232 -0.1941
50907W        W 7148  29.421  17.599  23.608 -0.2376 -0.0525 -0.1531
50908W        W 7149  13.914  14.343  22.061 -0.0790 -0.1540  0.2059
50909W        W 7150  28.862   0.043   3.076  0.2956  0.0960 -0.0769
50910W        W 7151   7.555   5.913  21.725 -0.2258  0.0398 -0.1360
50911W        W 7152  26.372  35.170  15.485 -0.2249 -0.0592 -0.1006
50912W        W 7153  14.779  32.325  12.492  0.0721  0.2419  0.0116
50913W        W 7154  29.246  31.870  20.113  0.0849  0.1765 -0.3509
50914W        W 7155  11.957  18.166  24.696  0.1459 -0.2583  0.1652
50915W        W 7156  10.041  31.914  16.129 -0.3442 -0.2036 -0.0547
50916W        W 7157  22.216  31.062  22.756  0.3493 -0.1727  0.3770
50917W        W 7158  33.194  20.222   0.886 -0.0613 -0.1255  0.4905
50918W        W 7159   2.186   8.540  25.333  0.3086  0.4207  0.1609
50919W        W 7160  20.685  33.388   3.799 -0.0716  0.1079  0.0573
50920W        W 7161  29.993  16.187  25.860  0.2931 -0.0414 -0.1950
50921W        W 7162   9.128   4.511   1.114  0.0817 -0.2788 -0.2392
50922W        W 7163   8.327  12.723  22.875 -0.1210  0.0988 -0.0512
50923W        W 7164   7.453  13.818  23.172 -0.5171  0.0220  0.2779
50924W        W 7165   7.591   0.766   1.731  0.2004  0.0098 -0.0347
50925W        W 7166  28.940  21.272  14.383 -0.3465 -0.4552 -0.2829
50926W        W 7167  14.108   4.226  23.993  0.1732 -0.0995  0.0779
50927W        W 7168   2.000   3.816  22.197  0.3298 -0.3430 -0.1451
50928W        W 7169  31.824   8.984  24.091  0.2297 -0.2187 -0.0644
50929W        W 7170   2.397  20.738  14.971  0.1823 -0.1320 -0.0806
50930W        W 7171  18.879  17.517   6.768  0.0372  0.2094 -0.0301
50931W        W 7172  22.635  12.638   3.842 -0.1931 -0.2835  0.2336
50932W        W 7173  12.448  34.532  14.205 -0.0356 -0.1072  0.1536
50933W        W 7174   6.928  10.462   0.693  0.1967 -0.1846  0.0804
50934W        W 7175  30.819  17.846  17.754 -0.1045 -0.0404  0.1524
50935W        W 7176  15.588  16.655   5.224  0.4088 -0.0456 -0.1387
50936W        W 7177  34.494  24.710  16.918 -0.0987 -0.1680  0.1977
50937W        W 7178  12.849  32.026  10.668  0.0510  0.0685  0.1801
50938W        W 7179  13.808  14.316   0.718 -0.1956 -0.2851  0.0980
50939W        W 7180  13.512  10.151   2.969 -0.0358 -0.2897  0.2545
50940W        W 7181  34.230   7.895  24.372 -0.0029 -0.1639 -0.0646
50941W        W 7182   5.578  11.818   7.450  0.2006 -0.1743 -0.0885
50942W        W 7183  26.252  13.549  21.583 -0.0963  0.0300 -0.1251
50943W        W 7184  11.134   4.690   2.424  0.2014 -0.0632  0.0047
50944W        W 7185  23.590  29.035  17.662  0.0500  0.0938  0.1946
50945W        W 7186   1.133  24.087  17.759 -0.2383  0.4749 -0.2167
50946W        W 7187   0.022   7.569  15.615 -0.0729  0.0624 -0.4233
50947W        W 7188   7.982  14.915  10.524 -0.3959  0.2976 -0.0876
50948W        W 7189  30.983  24.588  12.890 -0.2113 -0.1615 -0.0921
50949W        W 7190  16.506  31.274  20.920 -0.1109 -0.0652  0.1730
50950W        W 7191   8.899  12.141  26.216 -0.0063  0.2417  0.1293
50951W        W 7192  30.681   0.750  19.637  0.1675  0.2347  0.0758
50952W        W 7193  16.377  31.345   8.730 -0.0513  0.0648  0.0308
50953W        W 7194  16.076  10.714  24.322  0.0548 -0.4573 -0.0349
50954W        W 7195  12.139  27.974   5.124 -0.0142  0.0430  0.0455
50955W        W 7196  34.323   2.043   3.728  0.0724 -0.0596 -0.0582
50956W        W 7197  15.807  12.633  11.673  0.0771  0.1109  0.0516
50957W        W 7198   5.660   9.303   9.560  0.5497 -0.1707  0.2940
50958W        W 7199  27.433  22.988   9.043 -0.0329 -0.0417 -0.1894
50959W        W 7200  26.733  15.468  13.585 -0.0734  0.1594 -0.4758
50960W        W 7201  26.683  15.571   7.246 -0.1120  0.1120  0.2616
50961W        W 7202  34.940  32.666  18.576 -0.0773  0.0497 -0.1775
50962W        W 7203  32.784   8.346  12.007 -0.0869 -0.2028 -0.1059
50963W        W 7204   3.314   6.418   7.603  0.2518 -0.0340  0.1268
50964W        W 7205  27.413   3.125   5.777 -0.5516 -0.0762  0.1161
50965W        W 7206   6.947   8.985   6.298  0.0073  0.6563  0.1866
50966W        W 7207   2.571   5.815  18.153  0.0183  0.1566  0.2761
50967W        W 7208  26.819  34.010   2.323  0.0829 -0.1325  0.1664
50968W        W 7209   0.496  30.827   4.903  0.3645  0.5468 -0.4339
50969W        W 7210  28.874  20.498   6.753 -0.1318 -0.2612 -0.1916
50970W        W 7211   4.647  26.430   6.079 -0.1001 -0.3406  0.1870
50971W        W 7212  20.551  23.061  22.884  0.0531  0.2863  0.1098
50972W        W 7213  12.071  12.351  23.272 -0.0311  0.0475 -0.0592
50973W        W 7214   5.035  28.874  13.886  0.2383  0.2852  0.2686
50974W        W 7215   3.608  35.300  25.136 -0.0300 -0.0541 -0.2884
50975W        W 7216  29.378  27.849  14.630 -0.0494 -0.0534  0.0652
50976W        W 7217  30.864  25.043  12.075  0.0637 -0.0092  0.2961
50977W        W 7218  12.580  33.763  20.801  0.2950 -0.0806  0.2436
50978W        W 7219  28.760  30.751  23.795 -0.2648 -0.0351  0.1125
50979W        W 7220  29.562  24.831   9.815 -0.4457  0.1060 -0.2467
50980W        W 7221   3.478  31.028   9.823  0.1505  0.0391  0.1138
50981W        W 7222   6.934  17.210   7.805  0.0555  0.0753  0.0392
50982W        W 7223  22.597  20.765  15.304  0.1167 -0.2050  0.2025
50983W        W 7224  26.795   1.717  24.313  0.0982 -0.0401  0.0743
50984W        W 7225  32.215  13.484   6.629  0.1875 -0.0337 -0.2394
50985W        W 7226  34.502  31.917  14.180  0.0619 -0.1478  0.2130
50986W        W 7227   2.363   6.370  20.411 -0.1657 -0.0335 -0.4776
50987W        W 7228  30.433   8.422   8.251  0.5052 -0.0149  0.0137
50988W        W 7229  33.101   1.995  25.066  0.0650 -0.0814  0.2886
50989W        W 7230  21.983   3.002   0.929  0.1412  0.2017 -0.3203
50990W        W 7231  25.261  33.888  21.368 -0.1272 -0.1048 -0.0890
50991W        W 7232  21.376  13.290  25.033  0.0779 -0.3926 -0.2609
50992W        W 7233  28.327  26.328  20.645  0.0867 -0.1012 -0.1027
50993W        W 7234  31.083   8.670  17.144  0.0502 -0.1838  0.0969
50994W        W 7235  14.093  35.117  20.513 -0.0402  0.2787  0.0016
50995W        W 7236  11.013  18.568   8.634  0.2316 -0.0157  0.1459
50996W        W 7237  24.117   1.240  19.368  0.0658  0.1484 -0.1797
50997W        W 7238  34.781   2.273  23.658  0.0895  0.0001  0.0346
50998W        W 7239   2.940  27.792  23.775  0.1697 -0.1294  0.0343
50999W        W 7240   3.921   6.745  24.862  0.0667 -0.4551 -0.2227
51000W        W 7241  22.824  16.668   0.636 -0.0791 -0.0670  0.1080
51001W        W 7242  32.233   6.571   4.350 -0.1909  0.2051  0.1577
51002W        W 7243  34.531   6.777  17.725 -0.1615 -0.1017  0.1029
51003W        W 7244  26.478  25.269  23.809 -0.2040 -0.1155  0.2649
51004W        W 7245  13.364  26.799  11.305  0.0489  0.1856 -0.0251
51005W        W 7246  11.683  31.190  14.091 -0.2633  0.0048  0.0813
51006W        W 7247  26.324   5.690   3.008  0.0046  0.1026 -0.3608
51007W        W 7248  11.718  13.757   5.154  0.1148 -0.1392  0.2987
51008W        W 7249  28.169  23.089   0.096 -0.1674  0.0511 -0.0451
51009W        W 7250  25.662  32.089   5.120  0.2610  0.1019 -0.2171
51010W        W 7251   2.261   2.398   6.305 -0.3794  0.0718  0.3166
51011W        W 7252  11.809  28.065   4.722 -0.2274  0.2616 -0.0335
51012W        W 7253  18.820   0.153   7.490 -0.2037  0.2192 -0.3664
51013W        W 7254   4.107  31.798  11.346 -0.2348  0.0742  0.1459
51014W        W 7255  25.777  20.574   7.383  0.1493  0.1767 -0.0830
51015W        W 7256  27.929  20.554  20.937 -0.0712  0.0709  0.2841
51016W        W 7257  28.782   0.532  14.531 -0.1917 -0.2569 -0.1124
51017W        W 7258   8.885  13.037  22.239 -0.0132  0.1997  0.2241
51018W        W 7259  20.951  10.976  17.745 -0.0036  0.1233 -0.1180
51019W        W 7260   5.288   6.154   8.954  0.0618 -0.3431 -0.1837
51020W        W 7261   0.874  12.231  20.521 -0.4686  0.1258  0.0107
51021W        W 7262   7.383   7.465   3.182  0.0929 -0.1185 -0.0864
51022W        W 7263   9.963   7.550   3.885  0.1771 -0.0377  0.0890
51023W        W 7264  17.242  11.305  21.801 -0.1239  0.0158 -0.0699
51024W        W 7265   0.718  18.062   8.196  0.0116 -0.1000 -0.4007
51025W        W 7266   8.309  27.727   7.994 -0.0460 -0.2715  0.1853
51026W        W 7267  28.527   5.581  25.480 -0.0306 -0.0164 -0.3955
51027W        W 7268  23.379  26.208  22.449  0.0048 -0.0309 -0.2957
51028W        W 7269   0.919  27.051  23.907 -0.4100  0.0895 -0.3023
51029W        W 7270  17.959   5.129  21.548  0.0720  0.0256 -0.2872
51030W        W 7271  32.738  26.824   0.219 -0.0278 -0.0836  0.0866
51031W        W 7272  27.341  24.209  12.417 -0.2326  0.1666  0.1234
51032W        W 7273  18.828   0.529  18.650 -0.0357  0.1129  0.3989
51033W        W 7274  19.683   5.262  19.523  0.3336 -0.1179 -0.0430
51034W        W 7275  16.411   7.829   8.949  0.3202  0.0915 -0.2238
51035W        W 7276  16.459  17.837   6.816 -0.3305 -0.2381  0.1799
51036W        W 7277   4.548  13.060   4.336 -0.0448  0.2821  0.0163
51037W        W 7278   8.008  10.520   1.547  0.0758  0.4160 -0.0762
51038W        W 7279  14.384  31.678   1.724  0.0807 -0.1070  0.1279
51039W        W 7280  26.189  21.347   8.082  0.0983  0.2722  0.0227
51040W        W 7281  15.279  22.442  13.125  0.3488  0.0298  0.0661
51041W        W 7282  19.159  12.808   8.876 -0.0433 -0.1065  0.0128
51042W        W 7283  15.045  32.299  24.666  0.1489  0.0894  0.0701
51043W        W 7284  25.156  19.560  21.482  0.0158 -0.1180  0.1075
51044W        W 7285   6.731  32.054   1.453 -0.3591  0.1903  0.0498
51045W        W 7286  19.361   1.258   2.448  0.2600 -0.3031  0.0776
51046W        W 7287   1.207  29.497  17.914 -0.0019 -0.3344  0.1939
51047W        W 7288   4.192   4.254  24.614  0.1307 -0.4147 -0.0332
51048W        W 7289  18.935   5.963   1.985 -0.1984  0.0992 -0.2226
51049W        W 7290  17.368  15.861   6.954 -0.3032  0.1397 -0.0257
51050W        W 7291  21.994  31.083   3.051 -0.1179  0.0047  0.0907
51051W        W 7292   9.562  16.924   4.512 -0.3556  0.1460 -0.0384
51052W        W 7293   1.881  25.589  18.634  0.0265  0.1209 -0.0540
51053W        W 7294  27.799  11.296   6.842 -0.2404  0.2722  0.2673
51054W        W 7295   5.360  12.029   4.910  0.0043  0.1910  0.0020
51055W        W 7296   7.081  23.408   5.102 -0.1224  0.0521  0.2895
51056W        W 7297  27.131  19.032  18.700  0.0617  0.0296 -0.0966
51057W        W 7298   0.384  29.978   5.787 -0.1308 -0.1442 -0.2754
51058W        W 7299  13.352  16.844   2.607  0.0388  0.1032 -0.1766
51059W        W 7300  19.900  31.897  18.148  0.0175  0.3286 -0.0132
51060W        W 7301  15.245  34.693   4.219 -0.0092  0.1113  0.3117
51061W        W 7302  13.940   8.812  20.710 -0.0239  0.0444 -0.0268
51062W        W 7303  19.081  23.261  25.599 -0.0545 -0.3928 -0.1317
51063W        W 7304  11.464  32.809   8.807  0.0191 -0.1324 -0.0405
51064W        W 7305  10.997  28.178   7.077 -0.4585 -0.1814  0.1022
51065W        W 7306  20.519  17.070  19.752 -0.0326  0.2027 -0.0286
51066W        W 7307  30.750   4.304  24.078 -0.0370  0.1369  0.1427
51067W        W 7308  22.695   0.133  23.912  0.1019 -0.2667  0.1825
51068W        W 7309   4.255  23.114  25.156 -0.1193  0.0140  0.1433
51069W        W 7310  18.174  31.150  25.765  0.1637 -0.0607  0.2689
51070W        W 7311  32.205  23.175  21.387  0.0038 -0.0159 -0.0545
51071W        W 7312  14.025  27.355  11.164  0.3156 -0.4226 -0.0385
51072W        W 7313  26.466  31.893   0.429 -0.1039 -0.1576  0.0355
51073W        W 7314   5.452   9.284  18.727  0.0573 -0.0871  0.0129
51074W        W 7315  32.107   0.431  21.599  0.1671  0.1099 -0.0262
51075W        W 7316  10.788  32.114  26.228  0.3477  0.1955 -0.2205
51076W        W 7317  25.484   3.278  23.280 -0.2533 -0.0285  0.2332
51077W        W 7318  10.488   1.089   5.195 -0.0293 -0.1857 -0.5179
51078W        W 7319  11.970  24.923   8.833 -0.2434 -0.0729 -0.3510
51079W        W 7320   7.483  18.368  19.523  0.2117 -0.3105 -0.0229
51080W        W 7321   0.642  34.056   8.793  0.0965 -0.3279  0.0285
51081W        W 7322  21.616  30.118   5.866 -0.1326  0.0806 -0.0031
51082W        W 7323  12.314  31.537  16.177 -0.0440  0.0870  0.1660
51083W        W 7324  31.700  17.595   9.024  0.1001 -0.1904  0.2090
51084W        W 7325   2.752   0.107   2.734  0.1182 -0.2472 -0.1878
51085W        W 7326  29.210  11.523  24.532  0.1139  0.2004  0.1516
51086W        W 7327   3.245  29.522  21.156 -0.3261  0.0989 -0.3455
51087W        W 7328   9.695  22.705  11.038  0.0312  0.1033  0.0037
51088W        W 7329   0.752  32.146  19.948 -0.0147  0.0782 -0.3094
51089W        W 7330  28.778  18.847  10.145  0.0785 -0.3940  0.4524
51090W        W 7331   4.860   3.694   2.186  0.0959  0.0764 -0.3662
51091W        W 7332  21.887   8.958  26.016  0.2647 -0.0399 -0.1802
51092W        W 7333   3.182  14.625  22.916  0.1821  0.0773  0.0772
51093W        W 7334  27.626  12.549  24.769 -0.1107 -0.0832  0.0463
51094W        W 7335  30.973   9.995  23.846 -0.0006  0.2257  0.0150
51095W        W 7336  27.292  26.838  18.184  0.1396 -0.0471 -0.0628
51096W        W 7337  24.540  29.454   1.361  0.1962 -0.0073  0.2286
51097W        W 7338  34.374   9.799  10.295 -0.0254  0.2415 -0.0985
51098W        W 7339  24.257  19.343  14.388 -0.2163 -0.1488 -0.0015
51099W        W 7340  15.509   9.172  25.245 -0.3080 -0.2402 -0.0425
51100W        W 7341   7.935   4.738  12.848  0.2219 -0.1420  0.2245
51101W        W 7342  18.177  30.433   2.495  0.1108 -0.2240 -0.1142
51102W        W 7343   8.289  11.605   2.704 -0.3597 -0.0393  0.0962
51103W        W 7344  19.223  28.984   7.075 -0.2768 -0.2218 -0.4060
51104W        W 7345  26.578   5.492  22.228 -0.1068  0.0442  0.0094
51105W        W 7346  12.162  12.563   9.660 -0.0189 -0.0713  0.1110
51106W        W 7347  11.449  33.342  24.489 -0.1955  0.3032 -0.2979
51107W        W 7348  21.981   9.225  15.813 -0.0850  0.2178  0.1597
51108W        W 7349   1.534  17.470  25.895  0.2021 -0.1479  0.2293
51109W        W 7350   6.750   5.479   1.668 -0.0571 -0.2543 -0.0759
51110W        W 7351  32.672  35.303  23.325 -0.2588 -0.0646 -0.0613
51111W        W 7352  21.633  28.002  14.201 -0.0068  0.0048 -0.1957
51112W        W 7353  12.450   4.258   7.770  0.0125  0.3957 -0.0905
51113W        W 7354  17.794  24.418   3.904 -0.0700 -0.1266  0.0104
51114W        W 7355  14.929   7.364  21.503 -0.1149  0.1032  0.2751
51115W        W 7356  34.112   5.593  23.511  0.0563 -0.1787 -0.1115
51116W        W 7357  28.976  24.399  16.813 -0.0091 -0.1015 -0.0181
51117W        W 7358   1.819   9.846   4.485  0.1105 -0.3754 -0.2192
51118W        W 7359  16.796  30.614   3.536  0.0580  0.1217  0.2088
51119W        W 7360  26.275   6.287   4.255 -0.1209 -0.1961 -0.4064
51120W        W 7361   3.570   4.229  22.944  0.0329 -0.2926  0.1928
51121W        W 7362  27.414   8.475  23.803 -0.0296 -0.1108 -0.0308
51122W        W 7363  22.266  32.764  15.512  0.1874  0.0007  0.3944
51123W        W 7364   6.571  25.855  13.280 -0.2111  0.1030 -0.0236
51124W        W 7365  24.169   9.176  25.417 -0.0565 -0.3470 -0.1337
51125W        W 7366  13.480   2.755   3.853  0.2005  0.1908 -0.0397
51126W        W 7367  20.402   3.932  10.376  0.0829 -0.0417  0.0580
51127W        W 7368   7.406  15.802   0.173  0.2132  0.0187 -0.1037
51128W        W 7369   9.341   9.291   7.656  0.4159 -0.0420 -0.0468
51129W        W 7370  34.669  17.331  13.372 -0.1232 -0.0905  0.0361
51130W        W 7371  16.736  15.365   5.594 -0.2150  0.2001  0.1459
51131W        W 7372  35.039  16.086  23.500  0.2881 -0.2915 -0.2451
51132W        W 7373   2.584  20.711  16.772  0.0641 -0.2757  0.1601
51133W        W 7374  26.276  25.118  19.279  0.1402  0.3789  0.0821
51134W        W 7375   4.687  28.670  23.765 -0.1036 -0.2373  0.5181
51135W        W 7376   2.100  17.153  12.339  0.0222 -0.1639  0.3597
51136W        W 7377  11.427  17.027   4.175 -0.1557 -0.1156 -0.0846
51137W        W 7378  12.818  24.424   3.367  0.1954 -0.2625  0.0003
51138W        W 7379   5.853   6.936   0.582 -0.0164  0.1898 -0.2109
51139W        W 7380  23.041   5.631  16.651 -0.0272 -0.3047 -0.1202
51140W        W 7381  34.516   4.483   2.532 -0.1173  0.1018  0.1942
51141W        W 7382  10.855  21.696   5.637 -0.1973 -0.1502  0.0907
51142W        W 7383  31.864  18.291  14.911  0.1422 -0.2692 -0.0838
51143W        W 7384  11.967   7.038  22.279 -0.0419 -0.2171  0.1029
51144W        W 7385  23.360  32.156   4.783  0.1289  0.0168 -0.2322
51145W        W 7386  32.347   1.629   0.573 -0.2844 -0.1748 -0.0599
51146W        W 7387  16.424   2.259   6.081  0.0984 -0.0445 -0.1177
51147W        W 7388   4.380   9.441  19.297 -0.3045 -0.0841 -0.0012
51148W        W 7389  32.258  15.697   9.864  0.0050  0.1803  0.3008
51149W        W 7390  20.419   3.778  16.064  0.0841 -0.2180  0.4965
51150W        W 7391  16.439  13.484   3.496  0.0323  0.3117 -0.0918
51151W        W 7392   9.557   6.724  14.632  0.3335 -0.1826  0.2147
51152W        W 7393  11.125  23.544   9.953  0.1380  0.0344  0.0684
51153W        W 7394   6.355   0.983   6.561  0.0304 -0.0213 -0.0191
51154W        W 7395  32.554  29.978   1.042  0.2875 -0.1949  0.0561
51155W        W 7396  10.542  20.800  11.596 -0.1902  0.0961 -0.1119
51156W        W 7397  20.568  10.663  25.560 -0.0753 -0.3976 -0.1454
51157W        W 7398  11.455  21.440  12.233  0.3380  0.0177 -0.0376
51158W        W 7399  16.533   8.190  22.367 -0.0624  0.1089  0.0462
51159W        W 7400  10.425  14.740   7.677  0.0338 -0.3446 -0.1388
51160W        W 7401  16.757  20.129   6.723  0.2443  0.2557  0.0295
51161W        W 7402  23.374  33.923   5.540  0.0832 -0.1586 -0.1374
51162W        W 7403  15.929   7.582  11.836  0.3181  0.1522  0.2208
51163W        W 7404  22.945  33.176  19.627 -0.0882 -0.3506 -0.5200
51164W        W 7405  27.987  11.419  26.212  0.3497 -0.1891 -0.0732
51165W        W 7406  13.736  27.733   3.006  0.1089  0.1289 -0.3928
51166W        W 7407  16.574  11.259  11.009  0.1307 -0.0674 -0.1411
51167W        W 7408  16.594  29.822  23.693 -0.2623 -0.0311  0.1438
51168W        W 7409  24.386  14.756  23.074  0.0269  0.2200 -0.3551
51169W        W 7410  31.843  19.050   0.003 -0.0187  0.1865  0.1690
51170W        W 7411   0.446   4.643  15.864  0.2792  0.3328  0.3016
51171W        W 7412  17.602   8.410  24.787  0.1596 -0.2872  0.1283
51172W        W 7413   3.295  34.947  22.765 -0.1057 -0.2523  0.2434
51173W        W 7414  30.630  16.837  17.097  0.0950 -0.2456  0.1223
51174W        W 7415  30.197  28.485  20.114 -0.2136 -0.0279  0.0686
51175W        W 7416  27.321  16.626  17.572  0.0719  0.2541  0.0228
51176W        W 7417  26.672  29.443  19.814  0.1509 -0.2177  0.0034
51177W        W 7418  18.353   9.618  26.021 -0.0614 -0.0029 -0.0250
51178W        W 7419   4.838   3.252   3.089 -0.1993  0.1000  0.1354
51179W        W 7420  32.399   6.493  23.486 -0.1467 -0.0084 -0.0032
51180W        W 7421  14.074  21.907  23.749 -0.0821 -0.1831  0.0129
51181W        W 7422   6.717   3.082   7.671 -0.0063 -0.0869  0.2431
51182W        W 7423  30.429  24.780   9.111  0.0012 -0.0979  0.5846
51183W        W 7424  25.402  31.646   3.306 -0.3278  0.3972  0.2236
51184W        W 7425   8.396  25.899   4.333 -0.1990  0.2179  0.2669
51185W        W 7426   4.065   9.178  22.943  0.0048  0.4242 -0.0244
51186W        W 7427  17.275   0.472   8.085  0.1797 -0.2055 -0.1436
51187W        W 7428  27.949  15.897   6.902 -0.2454  0.0954 -0.0165
51188W        W 7429  21.854   5.331   8.398  0.0812 -0.0244 -0.2463
51189W        W 7430  34.410  16.758  16.972 -0.2482 -0.2590 -0.3005
51190W        W 7431   5.345  11.535   9.579 -0.1807 -0.2620 -0.1809
51191W        W 7432  17.281  20.703   3.165 -0.2255 -0.0468  0.1052
51192W        W 7433  29.673  33.127  20.849 -0.0200 -0.0403 -0.1078
51193W        W 7434  30.615  19.721  22.060  0.0098  0.1480 -0.0346
51194W        W 7435   8.552  26.819  21.732  0.0742 -0.3858  0.1731
51195W        W 7436  13.588  26.730   6.038  0.0482  0.0272  0.0888
51196W        W 7437  31.186  17.842   9.838  0.2271 -0.1484  0.1768
51197W        W 7438  28.274  15.127  11.250 -0.0699 -0.1491 -0.1728
51198W        W 7439   0.725  10.149  20.297 -0.3434  0.0654 -0.0246
51199W        W 7440  22.193  28.483   1.960  0.0425 -0.1053 -0.2104
51200W        W 7441  21.600  29.050   1.254  0.1179 -0.0753 -0.0181
51201W        W 7442  28.881   8.658  10.150  0.1128  0.0164  0.0612
51202W        W 7443  30.271   2.059   5.306 -0.1073  0.0038  0.0684
51203W        W 7444  29.986   7.622  16.325 -0.3472 -0.0780 -0.2110
51204W        W 7445  31.654  15.002  12.484 -0.3612 -0.2920  0.1936
51205W        W 7446  32.528  31.081  15.137 -0.1273 -0.0934 -0.0989
51206W        W 7447  11.031  25.214  17.411 -0.0813 -0.2296  0.1687
51207W        W 7448  17.556  10.935   3.768  0.2731  0.1460 -0.3115
51208W        W 7449  28.766   0.533  21.121  0.4956 -0.0917 -0.2787
51209W        W 7450   8.815  10.708  12.306  0.2751  0.0779  0.1174
51210W        W 7451  14.098  14.273   1.434 -0.2214 -0.1062  0.0468
51211W        W 7452  30.512  22.914  11.649  0.1198  0.0018 -0.0179
51212W        W 7453  29.085  25.568  10.138 -0.0927 -0.0524 -0.4205
51213W        W 7454  22.636   5.065   1.081 -0.0170 -0.0878  0.1909
51214W        W 7455  19.591  22.963  18.521  0.2432 -0.1606  0.2905
51215W        W 7456   0.762   2.515  16.180 -0.1440  0.1450 -0.2289
51216W        W 7457  12.944  25.240   4.404  0.2013  0.0574  0.0713
51217W        W 7458  33.696  10.802  23.269  0.0276  0.1798  0.3105
51218W        W 7459   7.934   6.899  24.285 -0.0144  0.2471 -0.1886
51219W        W 7460   1.782  31.612  21.888 -0.2836  0.0042 -0.2276
51220W        W 7461   7.731  27.618  12.036 -0.2517 -0.0227  0.1914
51221W        W 7462   7.771  26.240   4.334 -0.1566  0.3616  0.0139
51222W        W 7463  16.480   3.862  22.626 -0.0049 -0.1232  0.0601
51223W        W 7464  19.119  13.445  25.948  0.1654 -0.1276  0.0975
51224W        W 7465   0.998  29.347   3.355  0.2334 -0.2396  0.0840
51225W        W 7466  32.702  15.319  12.439 -0.1925 -0.0707 -0.0578
51226W        W 7467  25.999  24.000  12.619  0.1408  0.3656 -0.0549
51227W        W 7468   6.210   8.412  23.248  0.1343  0.0756 -0.1361
51228W        W 7469  12.158  24.126   0.119 -0.1029 -0.5368  0.0848
51229W        W 7470   8.053   8.523  18.899  0.0042 -0.2335  0.0961
51230W        W 7471  14.118  20.989   4.430  0.1070  0.1200 -0.0109
51231W        W 7472   9.708  28.679  10.462  0.0450 -0.1417 -0.2177
51232W        W 7473  12.697   5.065  10.645  0.3255 -0.0832  0.1545
51233W        W 7474  15.644   1.130   7.566  0.0878  0.1062 -0.0389
51234W        W 7475  30.482  31.345  18.130  0.1261 -0.0048 -0.1619
51235W        W 7476   0.982  25.476  22.440 -0.1781  0.1317  0.0135
51236W        W 7477   9.375   3.584  20.299 -0.1606  0.1896  0.2473
51237W        W 7478  32.704  12.213  25.631 -0.0731 -0.0102  0.2020
51238W        W 7479  18.097  10.637   8.300  0.1115  0.2225 -0.0942
51239W        W 7480  30.087  25.341  11.304  0.0771  0.2768 -0.0424
51240W        W 7481  34.144   7.063   3.880  0.0747 -0.1030 -0.0239
51241W        W 7482  19.756  32.016   1.169 -0.2453 -0.0539  0.1821
51242W        W 7483  19.730  10.713  22.359  0.0779 -0.1424  0.0144
51243W        W 7484   2.109  27.516  21.752  0.2342 -0.0716  0.1739
51244W        W 7485  25.229   4.914   1.903  0.1904 -0.1012 -0.1068
51245W        W 7486   6.874  31.737   9.589  0.3368  0.0217  0.3281
51246W        W 7487  16.279  22.578   3.732  0.0636  0.0859  0.2056
51247W        W 7488  27.751  35.216   0.170 -0.2510  0.0338  0.1160
51248W        W 7489  26.780  14.322   8.991  0.1931 -0.0763  0.0911
51249W        W 7490  18.083   4.601  22.820 -0.1358  0.2307 -0.3741
51250W        W 7491  33.547  29.806  17.143  0.0150  0.1540 -0.0851
51251W        W 7492   6.550  23.401  23.395 -0.0386  0.2701  0.3597
51252W        W 7493  33.918  34.142   2.850 -0.0953 -0.1923 -0.0301
51253W        W 7494  18.382   3.410  23.187  0.3197 -0.1181 -0.3769
51254W        W 7495  18.551  12.225   3.729 -0.1193  0.0079 -0.0664
51255W        W 7496  11.956  32.768  15.065  0.1023  0.0953 -0.2992
51256W        W 7497   5.019  13.353  24.972  0.0312 -0.1659  0.0485
51257W        W 7498  34.892  27.552  21.510 -0.2890 -0.0754  0.2312
51258W        W 7499  27.881  14.453   8.259 -0.2595 -0.1021  0.0277
51259W        W 7500  34.250  10.109  18.699 -0.1339  0.0001  0.0598
51260W        W 7501   5.557  23.847   1.106 -0.1987 -0.0108  0.1121
51261W        W 7502  29.523  13.251   4.965  0.0413  0.1429  0.0138
51262W        W 7503  15.356  16.898   9.638  0.0908  0.2124 -0.1139
51263W        W 7504  26.606  26.453  20.651  0.0341 -0.0804  0.1139
51264W        W 7505  27.047  34.976  12.717  0.0497  0.3368 -0.0509
51265W        W 7506  27.794  30.059   1.201  0.2293  0.1337  0.1441
51266W        W 7507   5.605  32.707   5.771  0.2712  0.4978 -0.3101
51267W        W 7508   1.934  15.172  15.080  0.0924  0.2273 -0.0280
51268W        W 7509  15.797   6.785   5.450 -0.1598  0.3391  0.0234
51269W        W 7510  27.975  26.643   1.192  0.1282  0.1815 -0.1523
51270W        W 7511  22.427  22.464  25.994  0.1181  0.0856  0.1363
51271W        W 7512  13.530   5.783  20.153 -0.0054 -0.1426  0.0900
51272W        W 7513  20.226  32.616   5.459 -0.2472 -0.1784  0.0294
51273W        W 7514  34.381   3.866  24.223 -0.1947  0.0621 -0.0649
51274W        W 7515   1.940   4.081  23.649 -0.2793  0.1716  0.2436
51275W        W 7516  30.425  22.678  25.583 -0.2141  0.0616  0.4876
51276W        W 7517  11.608   0.904   1.889  0.0032 -0.3149 -0.0043
51277W        W 7518  17.325  21.178   8.085  0.1034 -0.0241 -0.1124
51278W        W 7519  32.318  28.912  26.047 -0.0235  0.0424  0.0815
51279W        W 7520   9.753  12.174  24.965 -0.0896  0.0228 -0.2336
51280W        W 7521  14.148  20.622   0.774 -0.0525  0.2446  0.2189
51281W        W 7522  17.415   5.696  10.070  0.1975  0.0830  0.0379
51282W        W 7523  33.675  17.500  17.942 -0.0861  0.0837  0.2490
51283W        W 7524  34.300  26.388  15.555  0.1224  0.2856  0.1853
51284W        W 7525   5.766   6.325  21.872 -0.1620  0.1883  0.2038
51285W        W 7526  32.914   3.613  20.766  0.1501  0.2952 -0.0469
51286W        W 7527  10.069  10.757   6.320  0.0982 -0.1070 -0.3049
51287W        W 7528   5.406  26.850  21.352 -0.0134  0.3985  0.3537
51288W        W 7529   8.178   6.964  20.758 -0.1669 -0.1444  0.1014
51289W        W 7530  13.528  28.633   7.729 -0.1639  0.1987  0.3046
51290W        W 7531  33.132  26.478  25.076  0.0537 -0.3111 -0.0323
51291W        W 7532  31.797   0.123   5.985 -0.3693  0.4938 -0.0687
51292W        W 7533  19.141   8.126  23.222  0.1352 -0.4164  0.1077
51293W        W 7534  32.740  13.234  25.657 -0.0242  0.3464  0.1960
51294W        W 7535  28.482  34.764   2.578 -0.2417  0.1188  0.1738
51295W        W 7536  28.894   9.625  10.174  0.2040  0.0963 -0.3764
51296W        W 7537  33.054   2.592   5.894  0.1162  0.1120 -0.2575
51297W        W 7538  25.457   2.568  13.513 -0.2130 -0.0465  0.0209
51298W        W 7539   2.363   9.149   1.859  0.1202 -0.0789 -0.1871
51299W        W 7540  15.698  13.009  10.094 -0.0108  0.2229 -0.5157
51300W        W 7541   7.048  32.918   0.356 -0.1013  0.1018 -0.2798
51301W        W 7542   7.746   6.430  25.895 -0.1273  0.1196 -0.0082
51302W        W 7543  11.144  30.402   2.913  0.2411  0.1546 -0.1054
51303W        W 7544  30.183  15.035  26.047  0.2232  0.1059  0.1976
51304W        W 7545  31.861   1.832   0.613 -0.1183  0.2612 -0.1547
51305W        W 7546   0.027  18.072  17.093 -0.2505 -0.0629 -0.2197
51306W        W 7547  33.533   7.881  22.079  0.0960  0.0667 -0.1555
51307W        W 7548  33.173  28.274  13.332 -0.2420 -0.0497  0.3973
51308W        W 7549  21.948  16.070  22.126  0.0588 -0.2775  0.3663
51309W        W 7550   6.575  19.819   6.195  0.2552  0.2033  0.0249
51310W        W 7551   3.824   8.220  23.779  0.1137 -0.0208 -0.1049
51311W        W 7552  16.800  34.506  22.837 -0.0981 -0.2290  0.0853
51312W        W 7553  27.488  19.414  26.091 -0.0785 -0.2263 -0.0506
51313W        W 7554   9.512  28.218  21.108  0.3683  0.0325  0.2895
51314W        W 7555  25.841   0.172  19.128  0.3690 -0.1725 -0.1454
51315W        W 7556  18.985  24.108   1.352  0.1937  0.5290 -0.1050
51316W        W 7557  28.607   2.335  14.059 -0.0476  0.2075  0.2121
51317W        W 7558   4.668  26.627   6.632 -0.1669 -0.1691  0.2358
51318W        W 7559  34.360  14.000  15.921  0.2351 -0.3065 -0.2297
51319W        W 7560   6.312   7.175   2.027  0.1868  0.1615  0.1352
51320W        W 7561   6.617  26.549  24.666  0.4381  0.1656 -0.3993
51321W        W 7562   3.352  30.917   8.461 -0.1315 -0.0811  0.0804
51322W        W 7563  25.909  32.022   2.610 -0.0704 -0.1836  0.1000
51323W        W 7564  21.682  15.675  22.295  0.1775 -0.0604 -0.0024
51324W        W 7565  20.537   1.651  25.102 -0.3664 -0.3261  0.1812
51325W        W 7566  27.511  15.897  17.620  0.0934  0.3497  0.1334
51326W        W 7567  30.869  26.884  19.822  0.0931  0.3955  0.1846
51327W        W 7568  32.571  23.590  24.622  0.0293  0.1407 -0.2017
51328W        W 7569  12.090  33.158  22.202  0.2696  0.1161 -0.0135
51329W        W 7570  18.071   7.044   9.525 -0.0443  0.0482  0.0209
51330W        W 7571   7.159  10.034  25.520  0.0090 -0.0673  0.0312
51331W        W 7572  13.204   8.401   0.626 -0.0407  0.1099 -0.0155
51332W        W 7573  34.511  13.221  21.607 -0.1362 -0.0004 -0.2274
51333W        W 7574  17.597  19.264   2.069 -0.2220 -0.0805  0.0136
51334W        W 7575  32.954  12.416  24.587  0.1725  0.3337  0.1158
51335W        W 7576  18.038  26.860  24.074  0.3110  0.0911  0.1866
51336W        W 7577   0.182   0.141   3.409  0.0686 -0.1182  0.0522
51337W        W 7578   4.032  18.555  24.238 -0.2027  0.0114  0.0918
51338W        W 7579  35.010  24.267  24.061 -0.2604 -0.0438  0.2401
51339W        W 7580  28.278   7.680   9.435 -0.1489 -0.1366  0.1422
51340W        W 7581  14.780  13.650   0.399 -0.0349  0.1969  0.0631
51341W        W 7582   7.728  13.336  19.534  0.2101  0.1698 -0.0471
51342W        W 7583   1.207  31.000   3.365  0.1308 -0.3490 -0.0387
51343W        W 7584  23.909  33.724   2.220  0.0372  0.0448 -0.1293
51344W        W 7585  12.198  21.656  17.171 -0.1151  0.1810  0.2478
51345W        W 7586  26.323  25.430   8.739  0.2460 -0.0853  0.1400
51346W        W 7587  31.361  34.257   5.322  0.0769  0.4993  0.0615
51347W        W 7588  24.809  10.717   0.064  0.0258 -0.1493  0.0412
51348W        W 7589  10.319  18.162   0.104 -0.2184 -0.0575  0.0979
51349W        W 7590   7.347   9.130  19.308  0.0882 -0.1429 -0.1970
51350W        W 7591   8.255   3.130   4.879 -0.2631 -0.2001  0.2707
51351W        W 7592  31.336  26.973   8.879 -0.0821  0.0342 -0.1654
51352W        W 7593  12.396   4.631   5.950  0.0781 -0.0312 -0.1508
51353W        W 7594  23.879  20.443  21.213 -0.0891 -0.3154 -0.2922
51354W        W 7595  27.754  22.368  16.257 -0.4129  0.1547  0.0467
51355W        W 7596  34.085  16.082  22.939 -0.0625  0.1874 -0.1468
51356W        W 7597  19.793   4.281   6.959 -0.1400 -0.1293  0.2635
51357W        W 7598  14.333  12.752  25.218 -0.1427 -0.1757 -0.0257
51358W        W 7599  30.832  13.308  11.177 -0.1113 -0.0377  0.1188
51359W        W 7600  13.842  30.806   7.691  0.1082 -0.0354 -0.2230
51360W        W 7601   5.991   4.645  25.068  0.2172  0.1497 -0.0986
51361W        W 7602  25.357  27.957  22.236  0.0778 -0.3591  0.1967
51362W        W 7603  14.322   9.567   9.457  0.2642  0.2361 -0.2343
51363W        W 7604  14.700  32.247  26.009  0.2031  0.2825  0.2535
51364W        W 7605   0.853   0.166   1.031  0.0537 -0.2395 -0.0029
51365W        W 7606  34.149  11.273  21.024 -0.0652  0.1577  0.2899
51366W        W 7607  28.817   6.162  11.418  0.3234 -0.0910 -0.0400
51367W        W 7608  28.163   1.620  10.997  0.4145  0.0328 -0.1453
51368W        W 7609  22.547   0.876  14.760  0.1827  0.1488 -0.1608
51369W        W 7610  23.076  34.166  23.735  0.1324  0.0542  0.0261
51370W        W 7611  15.292  32.396   7.583  0.1291 -0.0980  0.3075
51371W        W 7612  28.243  11.838  19.850  0.0822 -0.1899 -0.0531
51372W        W 7613  29.727  12.098  21.697  0.5309  0.5843  0.0292
51373W        W 7614   9.386  24.242   9.799 -0.0980  0.0898  0.2465
51374W        W 7615   9.099  18.598   4.874 -0.0530  0.0323  0.0688
51375W        W 7616   3.112  21.201  19.684  0.2490 -0.0024 -0.2002
51376W        W 7617  32.998   5.202  22.550 -0.2053  0.0733 -0.2085
51377W        W 7618   2.848  29.704   5.949  0.2623 -0.1166 -0.1944
51378W        W 7619  20.598   3.354   4.606  0.1962  0.2988  0.2012
51379W        W 7620  31.961  10.593  24.703 -0.1369  0.0372 -0.1580
51380W        W 7621  25.323  12.957  12.710  0.3124  0.2312 -0.0129
51381W        W 7622  32.084  25.052  25.143  0.0225 -0.3268 -0.1787
51382W        W 7623  22.184  15.427  16.357  0.0597 -0.0069  0.0964
51383W        W 7624  11.911  15.598  25.997 -0.1099  0.2076  0.3260
51384W        W 7625  11.153  20.574  12.298  0.1021 -0.0134 -0.1508
51385W        W 7626   2.938  20.195  23.264  0.1087 -0.0871  0.0547
51386W        W 7627  21.126  21.651   3.688  0.2281 -0.2254  0.2060
51387W        W 7628   4.149  18.308   2.581  0.1402  0.0445 -0.0424
51388W        W 7629   0.479  24.694  25.766 -0.0516 -0.3110 -0.1470
51389W        W 7630  27.593  22.013   8.387 -0.0298  0.0123 -0.3693
51390W        W 7631  20.242   7.199   7.063  0.1556 -0.1125  0.0420
51391W        W 7632  21.059  23.767  25.472 -0.0398  0.5547  0.1044
51392W        W 7633   9.538  19.110  25.300 -0.3663 -0.1821  0.1949
51393W        W 7634  27.628   7.640  15.244 -0.2219  0.1052  0.2958
51394W        W 7635  34.301  24.899  12.988 -0.1675  0.1574  0.2064
51395W        W 7636  33.986  31.556   1.918  0.2508 -0.3764 -0.1868
51396W        W 7637  29.282   5.051   0.259  0.1608  0.2073  0.1225
51397W        W 7638  20.919   1.294   3.594  0.1047  0.0076 -0.1067
51398W        W 7639  32.293  20.459   8.758  0.0840  0.0862  0.0069
51399W        W 7640  29.109  28.079  20.828 -0.1600 -0.0756  0.2218
51400W        W 7641  25.167  14.446  17.071 -0.0592  0.0431 -0.0641
51401W        W 7642   5.354  22.683   5.043  0.0050 -0.0865 -0.2037
51402W        W 7643   3.922  21.838  24.543  0.2830  0.2227 -0.0047
51403W        W 7644  12.547  13.220  21.346  0.0281  0.0669 -0.0640
51404W        W 7645  25.682   5.886  24.633 -0.0496  0.2033 -0.0847
51405W        W 7646  18.548  29.726   3.128  0.5078  0.2201 -0.2008
51406W        W 7647   5.933  24.390   3.609 -0.0508  0.0191 -0.1665
51407W        W 7648  19.054  11.900   1.962  0.0017 -0.2015  0.3366
51408W        W 7649   8.857  19.566  22.917 -0.2308  0.1080 -0.1311
51409W        W 7650  25.046   0.535  26.050 -0.3606 -0.0514 -0.0943
51410W        W 7651  22.280  30.293  16.243  0.0814 -0.0586 -0.2738
51411W        W 7652   9.317  29.639  14.207  0.0976  0.1905 -0.0113
51412W        W 7653  27.537  21.811  23.799  0.1083  0.3071 -0.0329
51413W        W 7654  17.747  19.481  13.501  0.2050  0.2761 -0.1257
51414W        W 7655   2.157  10.696   2.862  0.0063 -0.2704  0.0139
51415W        W 7656  28.800   5.584  23.574  0.1787 -0.4413 -0.2976
51416W        W 7657  16.850   3.463   5.202 -0.0089 -0.2943 -0.3513
51417W        W 7658   3.321  28.774  21.459  0.0415 -0.0967  0.2956
51418W        W 7659  12.023  20.798   1.622 -0.0891 -0.2890  0.2375
51419W        W 7660  11.705  28.366  15.998  0.0523 -0.2146 -0.0425
51420W        W 7661   8.188   8.930  25.040 -0.2844 -0.1878  0.2903
51421W        W 7662  10.847  16.189   4.460 -0.0941 -0.2567  0.1399
51422W        W 7663   9.343  29.926  10.869 -0.1356  0.2680  0.1750
51423W        W 7664  32.556  16.638  11.270 -0.0536 -0.0886 -0.0360
51424W        W 7665  24.519  25.048   2.547 -0.0610  0.2049  0.2927
51425W        W 7666   3.576  30.420   5.690  0.6378 -0.1511 -0.3104
51426W        W 7667  34.429  15.939   9.111  0.0309  0.0412 -0.0318
51427W        W 7668  25.075  11.454  18.386  0.2261 -0.1164  0.1978
51428W        W 7669  20.790  34.933  15.699 -0.1859 -0.3275  0.0251
51429W        W 7670  30.300  26.085  15.717  0.1791  0.2908  0.2016
51430W        W 7671  15.866   9.642  12.209  0.0303 -0.2206  0.0196
51431W        W 7672   1.024   1.725  17.807 -0.3927 -0.1885  0.0879
51432W        W 7673  26.174   6.846  16.970 -0.2210  0.0492 -0.0684
51433W        W 7674  23.704  26.523  11.273 -0.0506  0.0951  0.1431
51434W        W 7675   2.034   2.936   4.327 -0.2033  0.0025 -0.2155
51435W        W 7676  11.803  30.671  24.501  0.4287  0.4228  0.1578
51436W        W 7677  11.417  30.703   6.175 -0.0888 -0.0471  0.0954
51437W        W 7678  31.904  33.422   3.697 -0.1339 -0.0325 -0.1787
51438W        W 7679  28.143  32.926  24.732  0.0353 -0.0669  0.1954
51439W        W 7680   2.809  30.176   2.510 -0.0341  0.1320  0.0789
51440W        W 7681  30.747  32.149  25.661  0.2171 -0.1604  0.0491
51441W        W 7682   3.710  14.472   2.102  0.0784 -0.1416 -0.1814
51442W        W 7683  30.383  28.984  20.520 -0.2675  0.0980 -0.0872
51443W        W 7684  32.449  29.725  22.716 -0.0750  0.0739  0.0603
51444W        W 7685  15.114  18.438  11.701 -0.0183  0.1415  0.0651
51445W        W 7686  11.819  13.469  11.214 -0.0846 -0.0725  0.2472
51446W        W 7687  16.926  23.825  14.279  0.2538 -0.0335 -0.0914
51447W        W 7688   6.039   0.890  23.788  0.0731  0.1175  0.3293
51448W        W 7689   1.198  30.012   2.076 -0.0608 -0.0342  0.1640
51449W        W 7690  14.103  16.437   2.591 -0.0537 -0.0101  0.1149
51450W        W 7691  25.159  22.157   0.578 -0.1025 -0.1937  0.0777
51451W        W 7692  30.418  18.983  21.953  0.2884 -0.4926 -0.0010
51452W        W 7693  31.361  20.792  12.750 -0.1052 -0.1963 -0.1479
51453W        W 7694  23.731   5.239  20.564 -0.0352 -0.0048  0.2785
51454W        W 7695  30.961  31.566   5.637 -0.1537  0.1746  0.1202
51455W        W 7696   7.077   4.126  22.915  0.0663 -0.1335 -0.0209
51456W        W 7697  35.252  10.580  25.356  0.0209  0.0892 -0.0191
51457W        W 7698  31.749   5.315  16.054  0.1033  0.0087 -0.1784
51458W        W 7699  23.063  19.731  21.381  0.0872  0.0097 -0.1751
51459W        W 7700   1.273  22.562  18.958 -0.3757 -0.2669  0.0410
51460W        W 7701   0.240  11.179  25.080 -0.2125 -0.0526 -0.3028
51461W        W 7702  11.626  31.011  11.765  0.0845  0.1931 -0.2265
51462W        W 7703   0.313  26.778   3.435  0.3268 -0.1447  0.1054
51463W        W 7704   1.524  29.200  22.346  0.0598  0.2263 -0.1164
51464W        W 7705  23.153   2.016  17.126  0.1064 -0.0265 -0.1291
51465W        W 7706   3.315  32.710  21.304 -0.1480  0.2073  0.4225
51466W        W 7707  17.713   1.837  22.723 -0.2403  0.4480 -0.2289
51467W        W 7708  14.897  25.294  25.331  0.0570  0.3164  0.1442
51468W        W 7709  13.742  14.244  21.542 -0.1208  0.1267  0.0092
51469W        W 7710   2.097  34.724   3.511  0.1409 -0.0049  0.2014
51470W        W 7711  17.701  35.291   6.357  0.0385 -0.1550  0.0624
51471W        W 7712  18.183  17.607  20.583 -0.1096  0.1906  0.0531
51472W        W 7713  15.379  30.216   5.131 -0.2115  0.1188 -0.0974
51473W        W 7714  20.268  10.345  19.191 -0.3042  0.2341  0.1394
51474W        W 7715   2.362  11.419  12.658 -0.1411 -0.1419  0.0996
51475W        W 7716  28.203  16.227  22.798 -0.1290  0.1369 -0.4363
51476W        W 7717  19.356  14.887   3.358 -0.3000  0.3117  0.0432
51477W        W 7718  33.602   8.415  12.272  0.6125 -0.2998 -0.4390
51478W        W 7719  25.509   1.393  22.183  0.0930  0.0894 -0.1960
51479W        W 7720   7.962  22.191  21.034 -0.3149 -0.4336  0.0765
51480W        W 7721   5.054  20.104  23.992  0.2593  0.0430 -0.1359
51481W        W 7722  13.408  30.624  10.878  0.1705 -0.1438  0.0287
51482W        W 7723  14.913  10.323   0.070  0.1929  0.2195 -0.3587
51483W        W 7724  28.044  23.883  23.782 -0.0519  0.1411  0.0652
51484W        W 7725   4.565  14.810  20.971 -0.2298  0.0708 -0.1532
51485W        W 7726  32.708   6.991   2.636  0.1603  0.0550 -0.1020
51486W        W 7727  14.577  26.446   4.111  0.0023  0.1475 -0.0473
51487W        W 7728  16.820  26.618  25.181  0.0412 -0.1647 -0.0698
51488W        W 7729  19.229  14.873  25.687  0.2781  0.0971  0.1159
51489W        W 7730  33.470   4.482  17.644  0.0763  0.1741  0.0852
51490W        W 7731  10.939   1.735  20.892  0.1705  0.0226 -0.1627
51491W        W 7732   3.926  33.961  20.857 -0.1460  0.0050 -0.1237
51492W        W 7733  29.103   3.338  21.695 -0.3764 -0.0426 -0.0928
51493W        W 7734   9.875  10.713   2.742  0.2049 -0.1413  0.1800
51494W        W 7735  22.800  24.398  23.250  0.3224 -0.0323  0.3231
51495W        W 7736  21.743  30.227  24.386  0.2089 -0.0369  0.2254
51496W        W 7737  30.413  26.728  20.007 -0.3554 -0.2350 -0.1752
51497W        W 7738  19.555  33.416  26.227 -0.1574 -0.1543 -0.1919
51498W        W 7739   0.570  16.447  11.477 -0.0971  0.1409 -0.1341
51499W        W 7740   5.297   2.054  11.708  0.0829  0.0593 -0.0011
51500W        W 7741   7.839   4.279  12.448 -0.2647 -0.2346  0.0016
51501W        W 7742  28.749  13.915   5.368 -0.1214  0.1838 -0.3483
51502W        W 7743  34.350  27.732  14.884 -0.4019  0.2026 -0.0607
51503W        W 7744   6.857  31.724  15.754 -0.0758  0.2155  0.0494
51504W        W 7745  20.978  25.124   2.081  0.2482  0.1046  0.1413
51505W        W 7746  25.914  15.493  18.134 -0.2022  0.2374  0.3060
51506W        W 7747  25.810  34.963  12.297  0.0122 -0.1469 -0.2773
51507W        W 7748  26.125   5.674  24.985 -0.0898  0.0405  0.0709
51508W        W 7749   9.935  32.100   3.157  0.0494  0.2812  0.1134
51509W        W 7750  14.186  16.268  23.273  0.1148 -0.1245  0.1490
51510W        W 7751   6.336   3.212   9.969 -0.0771 -0.2412 -0.2321
51511W        W 7752  13.390  27.591  16.144  0.1682  0.0335 -0.2355
51512W        W 7753   9.108  28.158  17.252  0.3246 -0.3229  0.2097
51513W        W 7754   7.805   4.230  20.208 -0.1955 -0.1854 -0.2156
51514W        W 7755  14.007  22.079  22.886 -0.0601 -0.0978 -0.0257
51515W        W 7756  32.580  16.355  22.409  0.0640 -0.1248  0.0966
51516W        W 7757  25.923  30.701  25.769  0.0745 -0.2142  0.1437
51517W        W 7758   2.691  10.829  17.088 -0.0113  0.0969  0.1121
51518W        W 7759  14.631  16.243  22.796 -0.2112 -0.0882 -0.1956
51519W        W 7760   7.225  20.696   3.874 -0.1774  0.0620 -0.1234
51520W        W 7761  21.749  26.891  16.260 -0.1410  0.0553 -0.3230
51521W        W 7762   9.121  18.631  12.695  0.0691 -0.1937  0.1071
51522W        W 7763   8.864   3.943   0.448 -0.0888 -0.0859  0.2806
51523W        W 7764  27.385  21.177  19.705 -0.2106  0.3085 -0.1037
51524W        W 7765  17.969   7.005   0.836 -0.0321 -0.3656 -0.0616
51525W        W 7766   1.231  12.875  13.035 -0.0918  0.0244 -0.0996
51526W        W 7767  22.862  28.589  22.409 -0.0744  0.1834 -0.2297
51527W        W 7768  21.101   1.590  14.870 -0.1429  0.0445  0.1966
51528W        W 7769  27.183  29.028  13.844  0.0946  0.1148 -0.4147
51529W        W 7770   6.535  23.652   1.290  0.0379 -0.0966  0.0685
51530W        W 7771  10.448  29.616   4.575 -0.0921 -0.0736  0.0381
51531W        W 7772  17.248  22.578  22.607 -0.1240 -0.1328  0.0252
51532W        W 7773  32.925  25.906  25.328 -0.2343 -0.1442 -0.1790
51533W        W 7774  32.627   9.334  13.418 -0.1143  0.0022 -0.2111
51534W        W 7775  13.658   7.180  24.992  0.2697 -0.3110 -0.0565
51535W        W 7776   6.279   0.273   7.862 -0.1023  0.0246 -0.3438
51536W        W 7777  23.045  31.343  24.941 -0.2237  0.1502  0.0170
51537W        W 7778  29.590  14.079  24.207 -0.1680 -0.0129 -0.0399
51538W        W 7779  26.652   5.422   0.508  0.2295  0.0425 -0.0816
51539W        W 7780  11.824  10.155   2.691  0.5689 -0.1636  0.1440
51540W        W 7781  29.443  24.359  22.017  0.0392  0.0127 -0.0206
51541W        W 7782   2.089  16.179  21.266 -0.0682  0.1610 -0.0086
51542W        W 7783  33.498  33.678  23.672 -0.3839  0.1002 -0.2512
51543W        W 7784   1.080  26.139   1.483  0.2357 -0.1352  0.1437
51544W        W 7785   6.933  19.671   8.676  0.3089 -0.0723 -0.1820
51545W        W 7786   0.211   6.024  17.868 -0.0429  0.4646  0.0780
51546W        W 7787  20.449  13.613  19.645  0.1697 -0.0561 -0.1654
51547W        W 7788  23.285   6.760   5.735  0.0236 -0.0093 -0.1620
51548W        W 7789  32.016   9.000   8.466  0.2016  0.2146  0.3727
51549W        W 7790  10.938  22.537   3.244 -0.4223  0.2073  0.3087
51550W        W 7791   8.495   3.827  22.410  0.1952  0.0904 -0.3902
51551W        W 7792  23.317  27.777  21.091  0.0682  0.3042  0.2446
51552W        W 7793  10.432   1.242  21.732 -0.2798 -0.1382  0.1048
51553W        W 7794  15.541  25.781  16.166  0.0009  0.2646  0.0679
51554W        W 7795  15.495  31.577   9.754 -0.1760 -0.3412  0.0225
51555W        W 7796  23.033   2.853   3.725  0.3801  0.0060 -0.1138
51556W        W 7797   4.020   0.394  21.863  0.3425  0.0582 -0.2425
51557W        W 7798   2.382  19.294  20.999 -0.1751 -0.3869  0.5175
51558W        W 7799  18.133  32.962   3.147 -0.0607 -0.1023 -0.0691
51559W        W 7800  15.474  24.594  10.977  0.2482  0.0896  0.0353
51560W        W 7801  25.180  15.719  15.250  0.2078 -0.0118 -0.1437
51561W        W 7802  28.101  15.148  18.668  0.1731 -0.1263  0.0382
51562W        W 7803  18.363  20.149  22.947  0.4184  0.0065 -0.0518
51563W        W 7804   9.838  26.400   8.741 -0.2303 -0.0782 -0.0044
51564W        W 7805  22.327  33.152  24.129  0.0115 -0.2963  0.0352
51565W        W 7806  28.088  30.175   2.788  0.2461 -0.4231  0.3415
51566W        W 7807   0.424  19.280  19.193 -0.0259 -0.1439  0.0772
51567W        W 7808  26.102   5.434  14.529  0.4511  0.0435 -0.1027
51568W        W 7809  21.071  14.804  16.059  0.2048 -0.1337 -0.3724
51569W        W 7810   6.420  18.708  25.211  0.0132 -0.2300  0.1624
51570W        W 7811  16.757  23.853   6.358  0.5561 -0.0080 -0.2220
51571W        W 7812  31.012   1.533  21.330  0.0357 -0.0795  0.2386
51572W        W 7813   6.627  34.630  24.792 -0.0391  0.0746  0.1086
51573W        W 7814   1.996  12.091   0.438 -0.1432 -0.0397  0.0038
51574W        W 7815  33.455   6.020  17.490 -0.1858  0.2834  0.0471
51575W        W 7816   7.416  30.306  13.102  0.3538 -0.0455  0.1462
51576W        W 7817  26.218   2.197  25.581  0.2909 -0.1471  0.0740
51577W        W 7818  31.392  10.240  14.329  0.0668  0.1521 -0.1527
51578W        W 7819  27.278   2.022  21.929  0.0186 -0.3616  0.0812
51579W        W 7820  21.043   9.716   0.233 -0.0204  0.0076 -0.0732
51580W        W 7821   8.602  29.411  24.244 -0.0364  0.1638  0.2226
51581W        W 7822  28.796  16.530   6.708 -0.0387 -0.0867 -0.2210
51582W        W 7823  33.705   6.134  14.943  0.0402  0.3059  0.0220
51583W        W 7824  34.752  33.767  20.342  0.3227 -0.1224 -0.0944
51584W        W 7825  26.868   9.028  10.849 -0.0650  0.3979 -0.0171
51585W        W 7826   7.764  34.526   1.442 -0.0134  0.1216  0.0074
51586W        W 7827  10.233   2.475   8.211 -0.1672  0.0443  0.3014
51587W        W 7828   8.244  18.285   1.007  0.1763 -0.1959 -0.0189
51588W        W 7829   2.330  26.800   0.589  0.2076 -0.0462 -0.1932
51589W        W 7830   0.920   8.085  14.662  0.1756 -0.0825  0.0212
51590W        W 7831   0.284  17.245  16.562  0.1059 -0.0248  0.2036
51591W        W 7832  30.694  26.822  10.456 -0.3093  0.1059  0.1705
51592W        W 7833  14.003   5.136   4.680 -0.1197 -0.1153  0.2693
51593W        W 7834  21.438  14.785   3.174  0.1834  0.1031 -0.0995
51594W        W 7835  33.826   7.756  17.226 -0.0008  0.0079 -0.0458
51595W        W 7836   9.217  20.545   4.779  0.1293 -0.0307  0.3745
51596W        W 7837  26.500  24.620  10.632  0.2499 -0.0470  0.1607
51597W        W 7838   7.653  28.329  12.498 -0.0485  0.0160  0.1443
51598W        W 7839   4.987  13.407   5.416  0.1073  0.1298 -0.3537
51599W        W 7840  32.889  33.324  14.711  0.4981  0.2378 -0.0013
51600W        W 7841   5.380  32.707  21.420  0.0772  0.0323  0.1587
51601W        W 7842   6.239  33.788  25.009 -0.2205 -0.4199  0.1584
51602W        W 7843  13.895   0.222  22.142 -0.1702  0.0035 -0.2319
51603W        W 7844   7.596  17.442  23.822  0.1301 -0.2949  0.2081
51604W        W 7845   2.151   7.439  15.964 -0.0771 -0.0543  0.1964
51605W        W 7846   6.502  31.519   8.916 -0.1979  0.2091  0.1795
51606W        W 7847  18.216  21.576   1.485  0.0961  0.1248  0.0337
51607W        W 7848   5.526  26.800  25.848  0.1533 -0.3946 -0.0768
51608W        W 7849  18.242  30.357   9.778  0.0844 -0.1097 -0.0306
51609W        W 7850  30.971  24.336  13.291  0.1091 -0.0773 -0.1445
51610W        W 7851  11.570  10.925  13.846 -0.2799 -0.0892  0.4149
51611W        W 7852  10.802  26.034   9.366 -0.0206  0.1060 -0.0440
51612W        W 7853  10.025  16.525  23.205  0.3256 -0.0202 -0.0367
51613W        W 7854  10.337   4.920   6.544  0.1345 -0.0347 -0.2666
51614W        W 7855  24.616   4.097  20.380 -0.0239  0.1205  0.2204
51615W        W 7856   1.243   1.976  19.700  0.3130  0.0839  0.2695
51616W        W 7857  13.958   9.818   3.084  0.0141 -0.1798  0.0109
51617W        W 7858  33.725  21.691  16.999  0.1749  0.0114 -0.2847
51618W        W 7859  34.810   0.025   4.706  0.1068 -0.1904  0.3320
51619W        W 7860  12.342   3.535   5.899 -0.0079  0.2920  0.3172
51620W        W 7861  29.104  28.902  19.463  0.3643 -0.0055 -0.1424
51621W        W 7862   1.762  21.106  18.997  0.3427  0.2095 -0.0940
51622W        W 7863  21.127   1.142   8.315 -0.0912  0.1903 -0.2518
51623W        W 7864   1.210   5.676   4.309  0.0042  0.3608  0.0400
51624W        W 7865  10.897  25.315  12.907 -0.1338  0.1104  0.1875
51625W        W 7866  14.003  12.124  14.290  0.1416  0.0101 -0.0140
51626W        W 7867  10.655  25.450  16.688 -0.0595  0.1343  0.1257
51627W        W 7868  30.609  28.215  10.245 -0.1413 -0.1910  0.0625
51628W        W 7869  22.564  33.749  16.369  0.3406  0.3562 -0.0909
51629W        W 7870  23.996   9.987   0.970  0.1885  0.0833  0.1873
51630W        W 7871  32.154  25.807   9.632 -0.1203  0.1648 -0.0340
51631W        W 7872  32.043  26.169  15.505  0.0688 -0.1268  0.1748
51632W        W 7873  30.184  30.431  11.061 -0.1113 -0.3315 -0.1454
51633W        W 7874  11.633  16.198   4.029 -0.3045  0.1173 -0.2128
51634W        W 7875  21.861  35.289  18.250  0.2585  0.0360  0.1494
51635W        W 7876  10.970   0.427   6.415  0.0951 -0.0012 -0.3790
51636W        W 7877   5.054  25.563  24.829  0.1574 -0.2702  0.2833
51637W        W 7878  10.718  16.209   5.045  0.0708 -0.1568 -0.1599
51638W        W 7879   6.775   0.692   3.287  0.0078  0.0036  0.1021
51639W        W 7880  29.867  28.214   1.295 -0.3453  0.1551 -0.1921
51640W        W 7881   5.543  19.316  21.443  0.1230  0.5159  0.0094
51641W        W 7882   4.426  31.626  26.081  0.0391  0.0141 -0.2297
51642W        W 7883   8.707  31.079  23.991  0.3826 -0.1831 -0.2275
51643W        W 7884  11.711  22.600   2.996 -0.0761  0.4382 -0.3249
51644W        W 7885  11.896  16.515  25.596  0.0065  0.1939 -0.0224
51645W        W 7886  22.005  18.788  21.497 -0.1184  0.0380  0.0232
51646W        W 7887   7.151  17.148   8.837 -0.1094 -0.0915 -0.0100
51647W        W 7888  26.287  21.353  14.366 -0.1944  0.0218  0.2535
51648W        W 7889   4.393  34.218  12.007  0.0160  0.1677 -0.1541
51649W        W 7890   1.760  14.100   3.409  0.0669  0.2088 -0.1713
51650W        W 7891   3.225  26.785   7.763  0.0577 -0.0648 -0.1346
51651W        W 7892  17.005   7.028   6.894 -0.3367  0.0880 -0.1887
51652W        W 7893  10.427  26.468   8.240 -0.0120  0.3971 -0.1259
51653W        W 7894  14.272   2.532   0.802 -0.0056 -0.1451  0.0276
51654W        W 7895  31.674  19.776  16.404 -0.0779  0.0591 -0.1544
51655W        W 7896  12.314  17.842  12.085  0.2429 -0.0253 -0.1745
51656W        W 7897  23.167   6.535   4.382 -0.2791  0.0894 -0.0029
51657W        W 7898   1.078  11.903   1.271 -0.2148 -0.0750 -0.3095
51658W        W 7899   4.621  33.667  19.671  0.2043 -0.1815  0.0830
51659W        W 7900  32.061   8.413   0.523  0.0807  0.2093  0.0585
51660W        W 7901  16.451  22.442  15.043  0.2658 -0.0438 -0.1361
51661W        W 7902  22.796  14.836  26.107 -0.1889  0.0204 -0.2141
51662W        W 7903  11.684  30.644   3.175  0.0225 -0.2714  0.2549
51663W        W 7904   8.424   1.762  15.554 -0.0086  0.0800 -0.1274
51664W        W 7905  20.245   3.215  23.805 -0.0108 -0.1792  0.0330
51665W        W 7906  12.335  21.834  12.166  0.1083 -0.1753 -0.2484
51666W        W 7907   2.542   9.795  16.993  0.1497  0.1340  0.1160
51667W        W 7908   2.243  33.393   0.018 -0.0852 -0.2928  0.3782
51668W        W 7909  10.645  22.784   0.035  0.0726  0.0900  0.1675
51669W        W 7910  17.411  33.441  19.492 -0.4046 -0.1462  0.0902
51670W        W 7911  30.841   8.216  15.237 -0.1700  0.0152 -0.2244
51671W        W 7912  28.636  13.596   6.692 -0.2719 -0.0580  0.1227
51672W        W 7913  28.661  34.760  24.891  0.5691  0.1469 -0.4343
51673W        W 7914  16.084  35.327  19.541 -0.0589 -0.3424  0.0868
51674W        W 7915  11.526  33.718  24.146 -0.1881 -0.1600 -0.1091
51675W        W 7916   3.815  26.895   5.810  0.1952  0.2451  0.2247
51676W        W 7917  18.910  27.777   6.256 -0.2167  0.0045  0.2441
51677W        W 7918   5.285  29.355  10.503  0.0983  0.0276  0.2137
51678W        W 7919  34.631   7.956   2.795  0.0199 -0.0689 -0.0769
51679W        W 7920  12.631  16.856  22.827  0.0645  0.1297  0.0813
51680W        W 7921  24.286  30.977  13.239  0.2941 -0.1275  0.0183
51681W        W 7922  29.892   2.988   3.601  0.0181 -0.3469  0.1638
51682W        W 7923  23.967  16.337  15.624 -0.0075  0.3865  0.1078
51683W        W 7924  29.265  30.612  13.162 -0.0680  0.0806 -0.2840
51684W        W 7925  33.404  34.978  21.109 -0.0354 -0.0043  0.1472
51685W        W 7926  31.514  17.710  19.408 -0.2608  0.0589  0.0366
51686W        W 7927   4.254  34.235  23.259  0.0069  0.0201 -0.0838
51687W        W 7928  28.964  15.792  17.476  0.4456  0.1463 -0.0403
51688W        W 7929  15.749  21.788  10.965  0.1851  0.1425  0.6133
51689W        W 7930  12.688  10.388  25.305  0.1734  0.2244 -0.1603
51690W        W 7931  17.266   2.478   8.382  0.1645 -0.0310 -0.1673
51691W        W 7932  29.647  30.681  10.146  0.0256  0.0467  0.1648
51692W        W 7933   8.172  24.941  11.393 -0.0063  0.0177  0.0549
51693W        W 7934  26.477  34.289  17.925 -0.3637  0.1030  0.3424
51694W        W 7935  27.212  16.329   6.773  0.1923 -0.2225  0.2913
51695W        W 7936  11.301  23.789   6.773 -0.1426  0.1449  0.1791
51696W        W 7937  11.095   7.416   6.515  0.3034  0.0412 -0.2589
51697W        W 7938  19.998  17.063   6.136 -0.0677 -0.0738  0.0798
51698W        W 7939  19.180  26.394  19.002 -0.0104  0.2734 -0.1837
51699W        W 7940  23.663  26.188  21.420  0.0442 -0.2760  0.0962
51700W        W 7941  21.988  26.596  24.285 -0.1207 -0.0022  0.0209
51701W        W 7942  13.623  24.787   6.777 -0.0716 -0.1194  0.0503
51702W        W 7943  14.159   8.537  22.128 -0.1588 -0.2368  0.0352
51703W        W 7944  12.611   8.255  26.173  0.5000  0.1204 -0.0038
51704W        W 7945   7.115  10.976  20.447 -0.3985  0.1133 -0.1118
51705W        W 7946  16.397  23.760  11.925 -0.2105 -0.1826 -0.0456
51706W        W 7947  21.485  16.798  19.036 -0.1325 -0.1569  0.0177
51707W        W 7948  29.299   2.908  18.699  0.2935 -0.3217  0.1967
51708W        W 7949  34.647   3.184  19.298  0.1864 -0.0387  0.0064
51709W        W 7950  13.352  33.614   3.236 -0.1615  0.3950 -0.1463
51710W        W 7951  24.673  33.211   1.912 -0.2897  0.2400 -0.0628
51711W        W 7952  18.918   1.154  24.029  0.0526 -0.2801  0.2249
51712W        W 7953  21.656   4.353  19.163  0.0678  0.2980 -0.0110
51713W        W 7954  27.115  28.211  21.194 -0.2364  0.1487  0.1496
51714W        W 7955  18.693  19.207  21.195  0.3338 -0.0155 -0.1092
51715W        W 7956   3.529   5.972  24.505  0.1272  0.2093 -0.1658
51716W        W 7957   8.580  35.039   5.932  0.0463  0.0750  0.1529
51717W        W 7958  15.912  12.472  12.801 -0.0317 -0.2079  0.1659
51718W        W 7959  34.474   3.730  19.060 -0.3910  0.0900  0.0322
51719W        W 7960  19.197  13.905   1.864 -0.0064  0.1405  0.3229
51720W        W 7961  17.054  16.265  18.508 -0.0475  0.3222 -0.0330
51721W        W 7962  23.875   2.277  15.677 -0.3626 -0.4955  0.4223
51722W        W 7963  17.988   4.721   3.849 -0.2620  0.2076  0.0704
51723W        W 7964   3.019  14.153  21.932 -0.2249  0.0754  0.0408
51724W        W 7965  14.257  24.798  14.896  0.2972 -0.2046 -0.2449
51725W        W 7966  22.970  23.906  14.393  0.0131  0.0762  0.0515
51726W        W 7967  27.406  10.156   9.947  0.1304  0.0819  0.0537
51727W        W 7968   4.931   5.485   0.879  0.2377 -0.0049  0.1401
51728W        W 7969   7.621  12.457   4.217  0.0252 -0.0796  0.0267
51729W        W 7970  32.932  25.138  25.677 -0.0628 -0.2042  0.1090
51730W        W 7971   3.288  33.003  23.990 -0.2510  0.1510 -0.1969
51731W        W 7972  12.105  22.894   4.630 -0.2494 -0.2277 -0.1446
51732W        W 7973  27.079  32.162  16.058  0.4447 -0.1692  0.2366
51733W        W 7974  18.253  26.373  11.834  0.0266 -0.2176  0.0011
51734W        W 7975  16.086  32.217  22.142 -0.0388  0.0482 -0.3390
51735W        W 7976  17.287  28.038   1.691 -0.1433 -0.0327 -0.0130
51736W        W 7977  25.903  15.473  24.367 -0.1054  0.3690  0.2671
51737W        W 7978   0.218  27.852   4.169  0.1292  0.1783 -0.1506
51738W        W 7979   0.457   5.241  20.505  0.0790  0.1686 -0.0008
51739W        W 7980  26.326  28.104  18.386  0.0116 -0.0906 -0.2434
51740W        W 7981  10.042  10.048  13.272  0.0493 -0.1745  0.0215
51741W        W 7982   8.361  17.737  23.560 -0.0199  0.0902 -0.1005
51742W        W 7983   4.164  28.030  12.416 -0.0480  0.1812  0.0181
51743W        W 7984  16.057  16.437   1.857  0.0739  0.0375  0.1904
51744W        W 7985   1.425  19.820   1.952 -0.1799 -0.3066  0.2584
51745W        W 7986   7.808  32.072   4.901 -0.0288  0.0842  0.1072
51746W        W 7987   7.540  24.270   9.568 -0.1144 -0.4445  0.0121
51747W        W 7988  34.743   2.297  24.177  0.0291  0.1026  0.1779
51748W        W 7989   9.768  11.509   2.027  0.0322  0.0100 -0.1400
51749W        W 7990   5.959   9.561  22.579  0.1099  0.3334 -0.1729
51750W        W 7991  34.269   9.705  20.670  0.2168 -0.0223  0.0765
51751W        W 7992  28.429  24.018  23.497  0.2413  0.1293 -0.4368
51752W        W 7993  13.491  17.955   5.396 -0.1136  0.2353  0.1785
51753W        W 7994  22.447  10.277   4.097  0.2328 -0.1198  0.0504
51754W        W 7995  33.608   5.161  13.902 -0.1163  0.1552 -0.0672
51755W        W 7996   6.074   6.531   5.785  0.0176 -0.1673  0.0716
51756W        W 7997   1.332  24.605  17.831  0.0444 -0.0571 -0.2559
51757W        W 7998  29.178  27.130  19.954  0.0358 -0.0157  0.0214
51758W        W 7999  15.440   6.673  21.771  0.0924 -0.0602 -0.1900
51759W        W 8000  35.320   8.726  25.664 -0.2893  0.1188  0.1270
51760W        W 8001   9.976   0.605  25.562  0.1895 -0.2078 -0.0685
51761W        W 8002  13.997  27.852   6.638  0.1548 -0.1271 -0.2187
51762W        W 8003  12.069  29.758  22.015  0.0187  0.1083 -0.0170
51763W        W 8004   7.947  23.222   6.149 -0.0558 -0.1067 -0.0048
51764W        W 8005   4.713   7.891  23.315  0.0757 -0.1660  0.0123
51765W        W 8006  10.267  12.247   1.517 -0.3969  0.0359  0.0326
51766W        W 8007   9.777  33.344   3.485  0.2430  0.2282 -0.3352
51767W        W 8008  14.705   7.768   1.700 -0.2778 -0.1883  0.2413
51768W        W 8009   0.927  29.538   5.219 -0.3502 -0.0524 -0.1521
51769W        W 8010  19.448  14.890   1.702  0.0783  0.2679 -0.0322
51770W        W 8011  21.103  28.459  23.440  0.0079  0.3269 -0.0318
51771W        W 8012  32.879  24.104   9.640 -0.0873  0.0552  0.1436
51772W        W 8013  17.195  26.460   7.304 -0.0274 -0.2762 -0.1130
51773W        W 8014  15.642  16.491  22.190 -0.0245  0.1296 -0.0640
51774W        W 8015  22.849  12.023  21.441  0.0435  0.2363 -0.0272
51775W        W 8016  16.453  23.823  23.241 -0.0855 -0.1187 -0.1802
51776W        W 8017   9.142  27.134   5.417 -0.0904  0.0632 -0.3292
51777W        W 8018  29.505   2.610   4.944  0.0971  0.1154 -0.0324
51778W        W 8019  15.826  25.156  21.922 -0.2748  0.0203 -0.2123
51779W        W 8020   7.008   3.819   8.601 -0.0266 -0.1365  0.2923
51780W        W 8021  34.211   2.827  14.297  0.0663  0.1932 -0.0829
51781W        W 8022  17.368  21.310   3.318 -0.3533  0.1233 -0.1505
51782W        W 8023   7.127  22.755  23.647  0.1364 -0.3287 -0.1432
51783W        W 8024  27.956  29.630  18.549 -0.3331  0.0858  0.0425
51784W        W 8025   3.740  25.076  22.574  0.1135  0.2670 -0.5124
51785W        W 8026  15.714  20.856   9.622 -0.0860  0.3807 -0.0786
51786W        W 8027  25.047   7.685  20.259  0.1121 -0.2040  0.1391
51787W        W 8028  18.957  30.725   0.087 -0.2643 -0.0683 -0.0342
51788W        W 8029  20.688  30.154  24.093 -0.2689 -0.0216  0.1479
51789W        W 8030   2.230  16.778  19.456 -0.0164  0.2434 -0.2851
51790W        W 8031  15.467  21.128  14.119  0.1957 -0.0143  0.1900
51791W        W 8032  14.081   0.257   8.724  0.1184  0.0366  0.0475
51792W        W 8033  17.511  20.053  22.986 -0.0604 -0.0794 -0.1323
51793W        W 8034   7.798  29.600   5.222 -0.0602  0.0962  0.2435
51794W        W 8035  27.267  10.860  11.994  0.1336 -0.2735  0.1651
51795W        W 8036  21.211   3.987  21.758 -0.0459 -0.1949  0.1043
51796W        W 8037  20.277  31.622  15.268  0.1522  0.1348  0.0891
51797W        W 8038  11.411  25.969  22.868  0.2831 -0.0183 -0.0367
51798W        W 8039   8.975  13.113   6.835 -0.1309 -0.4641 -0.2144
51799W        W 8040  21.354   2.438  21.275  0.1617  0.1386 -0.1723
51800W        W 8041  34.991  25.656   1.669  0.0007 -0.1719  0.1084
51801W        W 8042  16.681   8.035   3.816  0.0007 -0.2900 -0.0649
51802W        W 8043   2.814  17.836   2.322 -0.0913 -0.0722 -0.1164
51803W        W 8044  17.234  11.137  22.987 -0.2495  0.1564 -0.0059
51804W        W 8045  23.205   4.842  16.013 -0.0029  0.1357  0.0161
51805W        W 8046  34.897   2.782  21.364  0.1303 -0.1666 -0.1370
51806W        W 8047   2.731   4.698  19.198  0.2714  0.2072 -0.0077
51807W        W 8048  28.218   0.297  23.482 -0.3058 -0.0823 -0.2315
51808W        W 8049  27.487  23.898  19.464 -0.0262 -0.2132  0.0730
51809W        W 8050   8.424  23.948  21.510 -0.3361  0.4832  0.1012
51810W        W 8051  14.457  31.620  11.612 -0.0292 -0.1870 -0.0575
51811W        W 8052  34.286   0.864   4.444  0.1475 -0.2583 -0.3150
51812W        W 8053   4.475  30.374   7.326  0.1284 -0.2446  0.0053
51813W        W 8054   5.747  23.021   4.870  0.0500  0.0842 -0.0860
51814W        W 8055  15.655  13.190  13.259 -0.2152  0.0193 -0.1532
51815W        W 8056  32.000  15.683   7.350 -0.1751 -0.2067  0.3845
51816W        W 8057  29.259   6.458  12.850  0.1526 -0.0385  0.0977
51817W        W 8058   3.032  27.309   8.861 -0.0876 -0.0923  0.0285
51818W        W 8059   1.461  25.620  25.957 -0.0582 -0.0028  0.2779
51819W        W 8060   1.731   9.074  14.678  0.0086 -0.1490  0.1516
51820W        W 8061  33.840   8.657  25.498 -0.0542 -0.0739 -0.2071
51821W        W 8062  16.108  11.114  19.601 -0.1272 -0.1975 -0.2577
51822W        W 8063   5.292  22.365   1.141 -0.2746 -0.0452 -0.1940
51823W        W 8064  11.716  34.969   6.946 -0.0183 -0.1278  0.0414
51824W        W 8065  21.844   7.972  21.684  0.0233 -0.3013 -0.0836
51825W        W 8066   8.694  22.267  22.073  0.0119  0.1614 -0.2474
51826W        W 8067  18.580  27.722  25.503  0.2636 -0.2376 -0.1215
51827W        W 8068  15.326  10.452   8.204  0.3544 -0.0024 -0.1204
51828W        W 8069   5.093   5.363  20.483 -0.0692  0.4535  0.0385
51829W        W 8070  11.396  21.333   5.167  0.1374 -0.0173  0.2273
51830W        W 8071  20.386  19.641  25.531  0.0110  0.2198  0.0418
51831W        W 8072  29.805  24.155  21.480  0.0135  0.0314  0.0687
51832W        W 8073  31.089  22.003   9.337  0.0530  0.3016 -0.2648
51833W        W 8074  16.573   6.335  18.443  0.0459  0.0944  0.0796
51834W        W 8075  21.397  30.425  22.334  0.0674  0.0381  0.1240
51835W        W 8076  10.588  31.579  14.846 -0.1905 -0.1117  0.0777
51836W        W 8077  14.769   5.446   7.522 -0.0252 -0.1904  0.5361
51837W        W 8078  12.488  13.737  11.924 -0.1376  0.0164 -0.1815
51838W        W 8079  18.768  17.696  24.961 -0.1144  0.1437  0.2311
51839W        W 8080  24.950  10.151  12.773  0.1079 -0.1101  0.1174
51840W        W 8081  28.069  15.874  22.425  0.0159  0.1213 -0.0901
51841W        W 8082  34.512   3.092   0.577 -0.3050  0.0613  0.1468
51842W        W 8083   6.535  11.936  17.291 -0.0578 -0.2608 -0.2696
51843W        W 8084  22.051  32.120  25.239  0.3812  0.5025 -0.0729
51844W        W 8085  17.929  24.753   8.030 -0.0375 -0.0826 -0.0734
51845W        W 8086   9.183  32.761  11.424 -0.0249 -0.3137 -0.0715
51846W        W 8087  34.134   3.455   7.240  0.0164 -0.1025  0.0958
51847W        W 8088  20.954   1.872   1.396 -0.0103  0.0874 -0.0367
51848W        W 8089  17.844  31.076  23.468 -0.0331  0.0096 -0.2361
51849W        W 8090   9.400   2.061   1.223  0.0046 -0.0841  0.3039
51850W        W 8091  27.588  28.794  17.047  0.2156  0.3532  0.0075
51851W        W 8092  26.594  18.965  16.410 -0.3812 -0.2628  0.0764
51852W        W 8093   0.472  20.008   1.768 -0.0955 -0.1908  0.0320
51853W        W 8094  22.182  25.396   2.281 -0.3058 -0.0933  0.3153
51854W        W 8095  22.313   4.334  24.850 -0.2880 -0.0420 -0.0691
51855W        W 8096   0.413  27.017   2.842 -0.2437 -0.0308 -0.1600
51856W        W 8097  10.437  24.745  25.312 -0.1528  0.0625 -0.2067
51857W        W 8098  17.613  28.765   1.852 -0.0477  0.1490 -0.0002
51858W        W 8099  27.798  18.727  19.010 -0.1021 -0.0587 -0.1596
51859W        W 8100  10.903  34.554  20.897  0.2777  0.4113 -0.0294
51860W        W 8101  27.109  14.977  17.615 -0.3457 -0.0388 -0.1259
51861W        W 8102  22.602  25.682  14.144  0.1810 -0.2134  0.0366
51862W        W 8103   7.112   2.953   7.334  0.1419 -0.1067  0.0955
51863W        W 8104  26.397   3.015   2.675 -0.2751  0.2923 -0.1755
51864W        W 8105  32.536  18.168  10.058 -0.1516 -0.1383 -0.1229
51865W        W 8106  26.022  27.618  23.740  0.1835 -0.0030  0.2729
51866W        W 8107  26.309  15.054   7.070 -0.0728 -0.1636 -0.0128
51867W        W 8108  16.347  29.232  11.805  0.0150  0.2619 -0.3249
51868W        W 8109   1.326  19.751  19.119  0.0977 -0.3547 -0.2555
51869W        W 8110  28.795  13.525  14.779  0.2871 -0.0046 -0.0287
51870W        W 8111   8.029  22.289  23.495 -0.0625 -0.1221 -0.2260
51871W        W 8112  30.059  26.042   0.451  0.1949  0.2610  0.2376
51872W        W 8113  32.395  18.544  18.545 -0.1718 -0.1517  0.1327
51873W        W 8114   2.207  34.926   0.831 -0.0129  0.2206  0.0603
51874W        W 8115  27.718   8.579  26.184 -0.1226  0.0538  0.1976
51875W        W 8116   4.235  17.165  15.549 -0.2316 -0.0784  0.0526
51876W        W 8117  14.804  24.974  15.342 -0.2556 -0.0838  0.1236
51877W        W 8118  29.136  25.548  19.097  0.1884 -0.1894 -0.0334
51878W        W 8119  13.113  27.812  23.435  0.0205 -0.2492  0.1247
51879W        W 8120  19.091  34.300   2.130 -0.2702 -0.0314  0.1837
51880W        W 8121  20.155   9.680  20.323  0.0475  0.1236  0.2777
51881W        W 8122  25.842  13.360  24.369 -0.0341 -0.5246  0.1988
51882W        W 8123  30.601  13.473  16.100 -0.1328  0.0241  0.2048
51883W        W 8124  19.203  31.438  20.634 -0.0024 -0.0371  0.0345
51884W        W 8125   5.021   6.012  22.092  0.1941 -0.0291  0.0419
51885W        W 8126  20.307  30.270  25.222  0.1359  0.1279 -0.3592
51886W        W 8127  15.106  21.759   5.801  0.4372 -0.2976  0.1260
51887W        W 8128   1.875   0.446   5.272 -0.2493 -0.0339 -0.0274
51888W        W 8129   8.224  29.465  15.875  0.1678  0.3809  0.0187
51889W        W 8130  17.079  11.005  23.488 -0.0552  0.1005  0.0277
51890W        W 8131   8.770  27.543   1.729 -0.0205 -0.0413  0.1515
51891W        W 8132  34.279  11.413  10.145 -0.2550  0.3577  0.0183
51892W        W 8133  11.687   8.151   5.680  0.1999  0.0107 -0.1125
51893W        W 8134  21.202   9.401  24.291 -0.0532  0.0742  0.0845
51894W        W 8135   3.115  22.473  16.837  0.4377 -0.2445  0.0397
51895W        W 8136  30.620  23.735  12.077  0.3526 -0.0912 -0.3367
51896W        W 8137  10.613  18.760  25.283 -0.2364  0.0791 -0.2037
51897W        W 8138   4.925   8.533   1.555  0.0279 -0.1351 -0.0659
51898W        W 8139  14.689  30.416   5.800  0.0397 -0.1223 -0.1342
51899W        W 8140  27.027  25.876  16.566 -0.0541  0.0607 -0.2081
51900W        W 8141  14.479  28.778  24.009  0.4174  0.0802  0.3642
51901W        W 8142  25.089  24.553  15.374 -0.2034  0.1532  0.1584
51902W        W 8143  30.574   0.842  12.055 -0.1462  0.0372 -0.0101
51903W        W 8144  32.069  11.806  25.383  0.0739  0.1528  0.3441
51904W        W 8145  34.563   8.186  16.842  0.3056 -0.0991 -0.6741
51905W        W 8146  34.855   5.104  23.973  0.1319 -0.0931  0.1230
51906W        W 8147  21.838  28.171  16.160  0.0166 -0.0482  0.0648
51907W        W 8148  17.938  13.358  20.421 -0.2227 -0.1609 -0.1112
51908W        W 8149  15.005  12.131  23.007 -0.2455  0.2202  0.0709
51909W        W 8150  35.027  13.769  14.241 -0.0573 -0.1262  0.2285
51910W        W 8151   8.624  34.271  24.251  0.1673 -0.1142 -0.4742
51911W        W 8152   0.305  23.349  22.605  0.1409  0.2049 -0.1077
51912W        W 8153  35.067  16.801  22.316  0.0807 -0.3105  0.0181
51913W        W 8154  33.569   6.895   0.611  0.1263 -0.1456 -0.2074
51914W        W 8155  32.220   2.465  22.722  0.1825  0.2467  0.0153
51915W        W 8156   2.914   0.220   0.924  0.1117 -0.0305  0.1185
51916W        W 8157  32.347  16.202  20.495  0.2415  0.2495 -0.1574
51917W        W 8158  11.758  32.655   4.295  0.1327  0.0069 -0.1742
51918W        W 8159  15.360  14.988   5.467 -0.2324 -0.2670  0.1018
51919W        W 8160  13.413  29.969  25.949 -0.1186 -0.1184 -0.0276
51920W        W 8161  29.716  25.765  11.948 -0.0796 -0.4994  0.0005
51921W        W 8162  23.016  31.769   0.275 -0.1309 -0.0404  0.0995
51922W        W 8163  23.038  28.787  26.129 -0.0221  0.3799  0.1229
51923W        W 8164  34.365  24.809  19.783 -0.0444 -0.2848 -0.0811
51924W        W 8165  27.401  26.183  23.317  0.1476  0.0570 -0.0515
51925W        W 8166  20.053   9.887   1.667  0.0214  0.0978 -0.3705
51926W        W 8167  29.161   5.409  25.645  0.4123  0.0319  0.0847
51927W        W 8168   7.728  10.082   1.421 -0.0631 -0.3273  0.2034
51928W        W 8169  15.509  23.454  24.754  0.3498 -0.2628 -0.0203
51929W        W 8170  13.180  19.992   4.369  0.1089  0.0416 -0.2172
51930W        W 8171  17.448   2.944   3.085  0.2990  0.1776  0.1435
51931W        W 8172   2.059   9.021   5.548  0.2115 -0.0204 -0.0794
51932W        W 8173  18.904  11.990   5.094 -0.1229  0.2084  0.2876
51933W        W 8174  13.547  13.860  22.656  0.2747 -0.0077 -0.2649
51934W        W 8175  31.015  26.781   9.235 -0.1054 -0.1165 -0.0166
51935W        W 8176  22.050  34.509   7.120 -0.2602 -0.1225  0.0728
51936W        W 8177  18.658  29.537  21.933  0.2961  0.1076 -0.3593
51937W        W 8178   0.704   7.403  23.327 -0.1310  0.3492 -0.3199
51938W        W 8179   7.846  19.392  19.562 -0.0454  0.2736 -0.1558
51939W        W 8180  23.205   2.231  21.766 -0.1266 -0.4553 -0.1247
51940W        W 8181  13.633  12.108  23.504 -0.0900 -0.1901  0.1430
51941W        W 8182  28.463  15.509  16.348 -0.2358  0.1488 -0.2049
51942W        W 8183  13.694  31.395   4.691 -0.4034  0.1764 -0.0080
51943W        W 8184  16.357  26.706  13.366 -0.3389  0.4214  0.0923
51944W        W 8185  20.040   9.302  23.232 -0.1565  0.2806 -0.5445
51945W        W 8186   9.882  33.311  10.733  0.1288  0.0477  0.1042
51946W        W 8187  32.610   7.904  19.665 -0.0356 -0.2543  0.0571
51947W        W 8188   9.600   2.352  20.040  0.1906  0.1494  0.0145
51948W        W 8189  21.800  23.055  23.576 -0.0249 -0.1096  0.3222
51949W        W 8190  33.838  30.176   1.539  0.0251 -0.2852 -0.2356
51950W        W 8191  13.481  29.295   4.439 -0.0305 -0.5013 -0.0439
51951W        W 8192  19.342  22.560  24.909  0.0617 -0.0000 -0.0262
51952W        W 8193  18.069   3.013  18.223 -0.0494 -0.0907 -0.0367
51953W        W 8194  22.238  24.792  22.816  0.1247  0.0883 -0.1843
51954W        W 8195  14.457   0.274  23.472  0.1493  0.1964  0.0833
51955W        W 8196  20.724  18.692  23.630 -0.0052 -0.1303  0.1571
51956W        W 8197  21.696  25.486   2.406  0.0815 -0.3183  0.0349
51957W        W 8198  16.485  11.257   7.895  0.1370  0.1319  0.0502
51958W        W 8199  32.764  18.298  19.270 -0.0409  0.0582  0.0202
51959W        W 8200  12.302  12.819   2.413  0.1159  0.2138  0.1315
51960W        W 8201  30.823  18.857  15.098  0.0130 -0.1154 -0.0257
51961W        W 8202  14.654  18.922   5.915  0.1816 -0.2416 -0.0889
51962W        W 8203  30.744  31.208  10.759  0.0075 -0.1877  0.3693
51963W        W 8204  11.110  25.750  23.701 -0.3395  0.0313 -0.0248
51964W        W 8205   8.862  34.443   6.561  0.1362 -0.0224 -0.0611
51965W        W 8206   3.658  30.116  26.239 -0.0370 -0.1277  0.2169
51966W        W 8207   4.672  15.470  24.002  0.1030 -0.4450 -0.1425
51967W        W 8208  17.581   6.189   6.793  0.1868  0.1931  0.2354
51968W        W 8209  26.023  32.914   2.857  0.2428 -0.0783 -0.1866
51969W        W 8210   4.982   5.314  25.900 -0.1373 -0.2642  0.2835
51970W        W 8211   4.620  11.540   5.235 -0.0266  0.0715 -0.4185
51971W        W 8212  33.104   6.707  12.502  0.1920 -0.1667 -0.0219
51972W        W 8213  15.620  10.865  22.828  0.0152 -0.3139  0.2434
51973W        W 8214  32.211  32.879   4.623  0.0527 -0.0040  0.0219
51974W        W 8215  32.495  20.393   6.235  0.0131 -0.0759 -0.3590
51975W        W 8216  20.508   6.712  18.157 -0.0898 -0.0207 -0.2355
51976W        W 8217   1.124  18.398  17.492 -0.3604 -0.1134 -0.0790
51977W        W 8218   6.393   5.238  23.253  0.2310 -0.3068 -0.0369
51978W        W 8219  33.842  30.045  22.778 -0.2816  0.3007  0.2951
51979W        W 8220   9.870  31.605   8.332 -0.0199 -0.2863 -0.4624
51980W        W 8221  20.732   1.393  23.259  0.3449 -0.1314 -0.0653
51981W        W 8222   7.579  30.748   0.904  0.2185  0.2127 -0.0540
51982W        W 8223   7.319   0.814  21.258  0.1862 -0.5196 -0.0250
51983W        W 8224   7.180  34.851   0.902 -0.1197 -0.3040  0.0766
51984W        W 8225  26.609  17.409  26.070  0.2920 -0.2080  0.0443
51985W        W 8226  15.873  10.250   8.207  0.3247 -0.0444 -0.2224
51986W        W 8227  19.528  11.533   9.695  0.0327 -0.0519 -0.0186
51987W        W 8228  33.314  12.953  20.675 -0.0050 -0.3068  0.1758
51988W        W 8229  11.764  23.417  25.664 -0.2733 -0.2207 -0.1503
51989W        W 8230   2.823  25.124   1.594  0.1839  0.0311  0.0493
51990W        W 8231  31.307  26.320  15.794 -0.1495 -0.2500  0.0200
51991W        W 8232  16.352  28.450  23.570  0.0682  0.1333 -0.0449
51992W        W 8233  24.673   2.871  19.725  0.4580 -0.4407 -0.0576
51993W        W 8234  31.291  19.756   7.247 -0.0559 -0.0472  0.0397
51994W        W 8235  17.349  15.925   8.457  0.0131  0.1750 -0.1092
51995W        W 8236   7.174  30.780  25.849 -0.1969 -0.0842  0.1411
51996W        W 8237   9.336  34.789  14.717  0.0316  0.0799 -0.2048
51997W        W 8238  21.143  26.044  20.991 -0.0495  0.0760 -0.2547
51998W        W 8239  12.029  11.131  25.486 -0.1094  0.0550 -0.0170
51999W        W 8240   3.736   9.764  24.041 -0.0608 -0.2323 -0.3940
52000W        W 8241   6.269  12.318   9.915 -0.0718 -0.3840 -0.1579
52001W        W 8242  18.863  19.524  21.510 -0.1232 -0.1765  0.0317
52002W        W 8243   9.868  12.074   1.957 -0.0357  0.0497 -0.0438
52003W        W 8244  16.426  35.144   3.664  0.2083 -0.0470 -0.0073
52004W        W 8245  13.252  11.163  20.509 -0.1606  0.1757 -0.2981
52005W        W 8246   6.789  24.331   0.816  0.1783 -0.3201  0.1921
52006W        W 8247  23.581  25.738  12.725 -0.1706 -0.1970  0.0422
52007W        W 8248  33.313  27.525  18.700 -0.0718  0.1512 -0.3337
52008W        W 8249  34.002   1.920   5.479 -0.3360  0.0424 -0.1898
52009W        W 8250  35.093   0.153  21.393  0.1050 -0.0723  0.0366
52010W        W 8251   1.218  10.334   2.890  0.1081  0.2099 -0.0931
52011W        W 8252  27.240  13.257  18.563  0.1858 -0.0648 -0.0177
52012W        W 8253   3.426   2.624  22.784 -0.0698  0.1431 -0.0726
52013W        W 8254   6.128   5.184  22.687  0.0671  0.1622 -0.1936
52014W        W 8255   3.577  24.721  22.250 -0.0800 -0.0112 -0.3027
52015W        W 8256  26.238   9.388  21.351 -0.2553  0.1969 -0.0342
52016W        W 8257  14.065  27.096  10.578  0.1755  0.2144 -0.5707
52017W        W 8258   6.532  33.992   8.625  0.0628  0.3582  0.3575
52018W        W 8259  19.519  32.518   1.511  0.2325 -0.0885 -0.1746
52019W        W 8260  12.700  33.633   4.715  0.0000  0.1475  0.4929
52020W        W 8261  16.064   0.927   2.787 -0.0251 -0.0712  0.0318
52021W        W 8262  22.700   0.124  20.066 -0.0337 -0.3348 -0.0649
52022W        W 8263  28.349  27.939  17.415  0.1070  0.0957 -0.0554
52023W        W 8264   7.057   0.006   8.384  0.0510 -0.1144 -0.0743
52024W        W 8265  10.866  20.382   8.807  0.1843  0.0921  0.1248
52025W        W 8266  25.514  34.027   0.453  0.1836 -0.0019  0.2291
52026W        W 8267  28.516  15.930  10.495  0.0925  0.1465 -0.0792
52027W        W 8268  18.527  30.289  24.087 -0.0101 -0.1957 -0.0238
52028W        W 8269  26.890  18.755   6.474 -0.1289 -0.1034  0.0255
52029W        W 8270  12.047   8.237  24.603  0.2019 -0.1894  0.1500
52030W        W 8271  15.316  24.614   0.830  0.1447  0.0172 -0.1492
52031W        W 8272  30.706   1.962   2.730 -0.0012 -0.0811 -0.1337
52032W        W 8273  19.269  30.134  21.191  0.1765 -0.0174  0.2001
52033W        W 8274  14.266   0.473  23.021  0.0544 -0.0496  0.0591
52034W        W 8275  32.788  19.131  10.834 -0.0090 -0.0852  0.1526
52035W        W 8276  10.303   9.003  23.489 -0.0767 -0.2152  0.0832
52036W        W 8277  18.017   4.227   5.027 -0.1054 -0.0491 -0.1183
52037W        W 8278   4.702   1.450  17.795 -0.0206  0.1389  0.0437
52038W        W 8279  26.560   8.343  23.200  0.1455  0.0402 -0.2571
52039W        W 8280  22.093   2.817  22.038 -0.1611 -0.1127 -0.0129
52040W        W 8281   7.246  24.685  12.110  0.0702 -0.0966  0.0336
52041W        W 8282   9.649  33.593  11.137 -0.1885 -0.2124 -0.3286
52042W        W 8283   3.881  24.768   0.665  0.2236  0.0597  0.2671
52043W        W 8284   3.791  34.331   0.172 -0.1126  0.0206  0.0222
52044W        W 8285  21.950   0.263   1.295 -0.0561 -0.0854  0.2031
52045W        W 8286  15.937  22.854  15.706  0.0072 -0.0016  0.2171
52046W        W 8287  29.950  12.682  12.067 -0.4339 -0.0322  0.0086
52047W        W 8288   9.387   7.123   4.253  0.2424  0.0687 -0.0100
52048W        W 8289  16.433  34.584  26.086  0.2126 -0.1806 -0.0659
52049W        W 8290  35.035  21.883  14.386 -0.0467  0.1033 -0.1907
52050W        W 8291  14.375  12.270   6.197 -0.0077 -0.1570 -0.3993
52051W        W 8292  31.791  30.704  16.062  0.0329  0.3872 -0.2613
52052W        W 8293  31.144  30.720   6.525  0.1421 -0.0915  0.1891
52053W        W 8294  25.636  25.428  14.370  0.2426 -0.1426  0.3760
52054W        W 8295  32.259  29.372   0.683 -0.0619 -0.0349 -0.0728
52055W        W 8296   5.314  27.528  13.384  0.2395  0.1106  0.1769
52056W        W 8297  18.764   8.245   9.879 -0.0987  0.1841 -0.0819
52057W        W 8298  13.595  24.686  24.601  0.2039 -0.1081  0.0819
52058W        W 8299   6.367   5.614   0.756  0.1959  0.2151  0.1372
52059W        W 8300  13.483  21.886   7.861  0.1348  0.1287 -0.0042
52060W        W 8301  18.037  10.302   3.555 -0.3778 -0.1024  0.1546
52061W        W 8302  32.925  11.971  21.776 -0.0663  0.0867  0.3304
52062W        W 8303  33.691   9.068  18.619  0.1440  0.2199  0.1398
52063W        W 8304  10.106   8.577  11.961 -0.1867 -0.2071  0.0764
52064W        W 8305  30.215  32.713  19.656  0.2129  0.0257  0.0662
52065W        W 8306   0.375   0.234  23.384 -0.3610 -0.0706 -0.1283
52066W        W 8307  12.040   8.148   8.570 -0.0570 -0.2161  0.0902
52067W        W 8308  16.969   3.447  22.810  0.2611  0.0566 -0.1761
52068W        W 8309  25.096  22.614   9.874  0.0947  0.0006  0.2824
52069W        W 8310   1.050  17.853  11.282 -0.0056 -0.3700 -0.0836
52070W        W 8311  24.260  12.875  20.857  0.3924  0.2348  0.1292
52071W        W 8312  33.329  14.233  21.923 -0.0784  0.2315 -0.0779
52072W        W 8313  24.773  23.191  11.846  0.0457 -0.0044 -0.2065
52073W        W 8314  17.257  25.573  12.142 -0.1931  0.0002 -0.0564
52074W        W 8315  13.967  33.703   6.719 -0.1765 -0.0419 -0.1680
52075W        W 8316  15.066  15.717  22.252 -0.1404 -0.2494  0.0209
52076W        W 8317  18.271   0.400  16.536 -0.2078 -0.1809  0.1190
52077W        W 8318  33.137  16.929  13.234 -0.4343 -0.2882 -0.1103
52078W        W 8319   1.384  16.684  11.710 -0.2100  0.2159  0.2327
52079W        W 8320  19.052  32.276   8.590  0.0567 -0.0785  0.1533
52080W        W 8321  29.805  19.496  23.211 -0.0774 -0.2071  0.1480
52081W        W 8322  15.819  24.711   5.791  0.1318  0.0114 -0.1039
52082W        W 8323  20.907  35.271   4.914  0.0292  0.1916  0.0584
52083W        W 8324  18.378  20.362   5.478 -0.1340 -0.1521  0.3790
52084W        W 8325  28.801  16.974  13.996 -0.1376 -0.1254  0.0195
52085W        W 8326  33.875  15.226  17.502  0.1744  0.1264 -0.2952
52086W        W 8327  21.484   2.794   5.469 -0.0614  0.1370 -0.0798
52087W        W 8328   4.819  22.522   1.132 -0.0312 -0.6180 -0.1360
52088W        W 8329  33.129   0.676   0.360  0.4322  0.0319 -0.0816
52089W        W 8330  26.543  18.292  19.925 -0.1601  0.0036  0.1164
52090W        W 8331  22.309   1.800   4.839  0.1622  0.0017 -0.0189
52091W        W 8332   7.706  25.270   7.191  0.3336 -0.0562 -0.2014
52092W        W 8333  21.299  14.437  24.969  0.0355  0.1204  0.0557
52093W        W 8334   0.881  11.100  17.552 -0.0483 -0.2667  0.2491
52094W        W 8335  15.073  13.993   3.361  0.3236  0.4515  0.3533
52095W        W 8336   1.407  30.074   5.923  0.0127  0.1071 -0.3546
52096W        W 8337  29.291   0.010   1.229 -0.0240  0.1470 -0.2442
52097W        W 8338   7.923   4.078   8.852  0.1492 -0.3309 -0.1685
52098W        W 8339  19.581   0.683   6.523  0.1893  0.2193 -0.1038
52099W        W 8340   8.980  26.242  11.632  0.0307 -0.1723 -0.0087
52100W        W 8341   0.788   0.966  18.927  0.2760  0.0787 -0.1290
52101W        W 8342  19.226  17.307   0.040  0.0100 -0.2241  0.1229
52102W        W 8343  30.109  12.353  10.345 -0.1806 -0.3456  0.1262
52103W        W 8344  24.342  14.836  17.283 -0.2925 -0.2858 -0.0585
52104W        W 8345   6.357  13.053   9.806  0.2371  0.0171  0.3931
52105W        W 8346  25.224  25.805  21.953 -0.2008 -0.2512 -0.2362
52106W        W 8347  30.328   5.555  15.238  0.1872  0.0000 -0.0934
52107W        W 8348  33.798   0.496  22.947 -0.0524  0.0773 -0.1159
52108W        W 8349   7.807  14.240   6.072  0.1246  0.1181  0.2235
52109W        W 8350  26.575  12.289  11.297  0.0977  0.0643  0.0703
52110W        W 8351   3.000   7.261   5.974  0.1042  0.0018 -0.0610
52111W        W 8352   3.212  16.779  25.452  0.0681 -0.0167 -0.2274
52112W        W 8353   1.042  34.631   4.050 -0.2510  0.1575  0.2245
52113W        W 8354  10.003  26.982  25.211 -0.2450  0.2128  0.4012
52114W        W 8355   5.350   3.935  24.831 -0.1827  0.1463 -0.3354
52115W        W 8356  16.232  22.647  16.573  0.0990 -0.1880  0.0525
52116W        W 8357  29.539  31.809   0.348  0.0691  0.5174  0.1037
52117W        W 8358  24.961  17.132  24.723  0.1385 -0.0284 -0.2925
52118W        W 8359  31.575  15.788  18.819 -0.3722  0.0728  0.0700
52119W        W 8360   8.650   8.709  20.510  0.2437 -0.2223  0.1947
52120W        W 8361  18.333  13.062  22.323 -0.3474  0.1036 -0.0001
52121W        W 8362   9.936   5.281  10.947 -0.0302  0.2341 -0.0597
52122W        W 8363  23.886  26.675  12.938 -0.1205 -0.0236  0.0959
52123W        W 8364  18.132  20.961  24.175 -0.0387 -0.0175  0.0895
52124W        W 8365   2.607   2.832  22.985 -0.1845 -0.0331  0.0327
52125W        W 8366  28.556  17.074   5.683  0.1735 -0.0185 -0.1881
52126W        W 8367  22.393  26.352  24.674 -0.2536  0.1229  0.0601
52127W        W 8368  12.510  14.481   6.168  0.2127  0.2733 -0.2249
52128W        W 8369  12.765  27.491   2.218  0.0684 -0.0147 -0.0279
52129W        W 8370   0.046   7.168  14.103  0.3419  0.1315 -0.1069
52130W        W 8371  31.556  23.809  21.480 -0.0172 -0.0952  0.1433
52131W        W 8372  20.064   0.061   7.836 -0.0654  0.1442 -0.1666
52132W        W 8373  25.682  18.150  25.910 -0.1781  0.0847 -0.0509
52133W        W 8374   7.278  17.221  18.250  0.0307  0.3398 -0.0196
52134W        W 8375  20.488   9.329   0.380 -0.1130 -0.0291 -0.1894
52135W        W 8376  12.654  26.986  10.816  0.2225 -0.5862  0.0961
52136W        W 8377  33.532  31.412  19.823 -0.1574  0.1451  0.0635
52137W        W 8378  14.889  10.530  25.884  0.3446  0.0487 -0.0999
52138W        W 8379   0.874  20.393  14.101 -0.2134  0.0691 -0.1925
52139W        W 8380  22.174  17.347   3.108  0.2139 -0.1449  0.2836
52140W        W 8381  30.407  31.726   5.716 -0.2404 -0.0211 -0.1843
52141W        W 8382  33.946  16.746  22.227 -0.0019  0.0784 -0.0586
52142W        W 8383  14.108  14.892  11.676  0.2249  0.0254 -0.0346
52143W        W 8384  33.515  14.762   0.017  0.1009 -0.3144 -0.0988
52144W        W 8385  18.247  23.957  12.343 -0.0865  0.3148  0.0491
52145W        W 8386  13.610  17.363  24.103 -0.1325  0.0110  0.4216
52146W        W 8387   5.918   2.060   4.645  0.3084  0.1378  0.2586
52147W        W 8388  29.459   2.244  11.211  0.0121 -0.0733 -0.2140
52148W        W 8389  32.089   7.057   0.549  0.1041 -0.2588  0.4742
52149W        W 8390  32.638  28.133  11.783  0.1342  0.0581 -0.0608
52150W        W 8391  30.672  32.049   3.473  0.2798  0.1829  0.1808
52151W        W 8392  17.693  34.099  16.296 -0.2036  0.1642 -0.0796
52152W        W 8393  15.282   5.009  25.970 -0.0710 -0.0745 -0.0328
52153W        W 8394   4.834   0.393  24.837  0.2367 -0.2299 -0.3503
52154W        W 8395   8.609  12.928   4.359  0.3179 -0.0165  0.0605
52155W        W 8396  13.415  13.100  26.121 -0.0082  0.1146  0.1414
52156W        W 8397  31.753  23.331  23.132 -0.1913 -0.0308 -0.2597
52157W        W 8398  11.411   0.765  19.799 -0.0219 -0.0914 -0.3215
52158W        W 8399  20.684  22.434  19.229 -0.1785 -0.1907 -0.1187
52159W        W 8400  15.318  30.592  12.725  0.0801  0.1929 -0.0692
52160W        W 8401  26.136   3.959  14.449 -0.1895 -0.2063  0.1936
52161W        W 8402  14.845  18.478   5.794 -0.3007  0.3889 -0.4092
52162W        W 8403  19.043  10.968   9.265 -0.0489 -0.1568 -0.3972
52163W        W 8404  12.094   9.547   8.069 -0.2290  0.1147  0.2039
52164W        W 8405  23.016   9.051  22.932  0.0667 -0.2018 -0.1841
52165W        W 8406  19.963  14.030   9.906  0.2440  0.0204  0.0647
52166W        W 8407   8.854  29.795  12.170  0.0592  0.3202 -0.1991
52167W        W 8408  27.877  30.462  12.274  0.2372  0.1624 -0.1727
52168W        W 8409   8.676  21.566   8.707 -0.3167  0.2556  0.0158
52169W        W 8410   1.143  11.569  17.420 -0.0603 -0.4956  0.2528
52170W        W 8411  17.246  19.191   9.666  0.0592 -0.3529  0.0062
52171W        W 8412  16.848  20.606   8.876 -0.3004  0.2660 -0.1558
52172W        W 8413  25.421  33.357  19.097 -0.0123 -0.1106 -0.0874
52173W        W 8414   7.271  17.963   1.984 -0.2544 -0.3097 -0.1095
52174W        W 8415   3.418  23.972   1.176 -0.0100  0.1156  0.0728
52175W        W 8416   1.215  25.718  20.146  0.2010 -0.0306 -0.1921
52176W        W 8417   0.932  10.028  12.274  0.0563  0.0725 -0.0759
52177W        W 8418  31.888  30.072  18.499  0.0052 -0.0463  0.1086
52178W        W 8419   1.917   0.298  16.776 -0.1041  0.1284  0.1456
52179W        W 8420   7.328  29.647   5.614 -0.1967 -0.0829  0.3271
52180W        W 8421  26.781   0.050   1.285 -0.3015  0.3149  0.2087
52181W        W 8422  20.087  19.054   6.689 -0.4225 -0.0449  0.2258
52182W        W 8423  30.677  19.109  13.360 -0.2970  0.2044 -0.1466
52183W        W 8424  30.705   3.873  17.874 -0.0989 -0.0557 -0.1964
52184W        W 8425  12.431  26.233  24.020  0.1670  0.0290 -0.3151
52185W        W 8426  26.167  19.245  20.720 -0.3765  0.0087  0.0651
52186W        W 8427  27.343  29.538   0.166  0.0190  0.0622  0.0687
52187W        W 8428   7.309  25.312  25.298 -0.3744  0.0505 -0.2200
52188W        W 8429  34.565  30.346  23.102 -0.1752 -0.4497 -0.0634
52189W        W 8430  19.151  23.543   8.380 -0.1169 -0.2139 -0.2663
52190W        W 8431   4.822  32.068  11.671  0.2638 -0.1077  0.0159
52191W        W 8432  18.851  18.054   9.920  0.0694  0.2801  0.0844
52192W        W 8433  16.007   1.322  19.309 -0.0806 -0.3715 -0.1419
52193W        W 8434   6.801  32.014   0.063 -0.0442  0.1013 -0.4252
52194W        W 8435   2.168  26.860   1.932  0.0231 -0.3738 -0.1857
52195W        W 8436  11.414  34.842   7.958 -0.1144 -0.0553 -0.0590
52196W        W 8437  23.952  12.161  17.184  0.1989  0.0546  0.2479
52197W        W 8438  29.543  20.479  23.131 -0.1166 -0.2163 -0.0131
52198W        W 8439  16.159  21.227   4.787  0.1198 -0.4662 -0.2796
52199W        W 8440  14.863   8.259   0.479 -0.0828  0.1561 -0.1474
52200W        W 8441  18.265  30.696  22.254 -0.0230  0.2784  0.0369
52201W        W 8442   0.705   0.809  14.416  0.1288  0.1219 -0.0250
52202W        W 8443  26.029  15.480  18.969  0.0856  0.0005  0.1670
52203W        W 8444  25.102  11.959  22.455  0.1062  0.1956 -0.0878
52204W        W 8445  20.883  27.445   2.976  0.2019 -0.1725 -0.1048
52205W        W 8446  25.336  32.695   0.360 -0.1280 -0.2425 -0.4012
52206W        W 8447   9.903  27.571   2.266 -0.1218 -0.1131 -0.0471
52207W        W 8448  32.136  24.670  21.624 -0.1137  0.2109  0.1611
52208W        W 8449  24.320   6.063   2.680 -0.2672 -0.0742 -0.1819
52209W        W 8450  14.338  31.966   5.145 -0.3761 -0.0205  0.1130
52210W        W 8451   9.461   4.297   0.808  0.1966  0.0892 -0.1580
52211W        W 8452   1.687   4.787  18.808 -0.1072  0.3285  0.0450
52212W        W 8453  23.904  29.221  21.374  0.3196  0.1931 -0.0142
52213W        W 8454  12.447  18.378   7.087  0.0310  0.1824  0.3488
52214W        W 8455   9.749   1.073  25.398  0.1089  0.2711  0.2566
52215W        W 8456  32.354  16.429   5.751 -0.1829 -0.0633 -0.1150
52216W        W 8457   5.624  31.727   5.694 -0.2155  0.0825 -0.2588
52217W        W 8458  25.433   3.705  22.067 -0.1374  0.1851 -0.2694
52218W        W 8459  33.731   2.950  16.030  0.2273  0.0052 -0.0452
52219W        W 8460  27.702  29.310  21.769 -0.0405  0.3049 -0.0023
52220W        W 8461   5.618  15.960   0.262  0.2684 -0.0188  0.2084
52221W        W 8462  27.816  13.109  23.451 -0.2788 -0.2087  0.2464
52222W        W 8463  12.224  16.376  11.983 -0.0684 -0.0829 -0.1491
52223W        W 8464  30.335  31.303  23.883 -0.1743 -0.1309  0.0890
52224W        W 8465  30.634  14.101  15.250 -0.0840  0.0149 -0.1563
52225W        W 8466  32.905  17.312  23.020 -0.2063  0.3310 -0.0888
52226W        W 8467  14.719  23.829   9.263 -0.2117  0.1158 -0.0536
52227W        W 8468   9.813  10.830   5.404  0.0451  0.0790  0.2393
52228W        W 8469  15.054  13.847  13.410  0.1508  0.0882 -0.0474
52229W        W 8470  25.761  28.547  10.669  0.2677  0.0556 -0.4915
52230W        W 8471  15.451  35.244  20.959 -0.1495  0.4778  0.0233
52231W        W 8472   4.670  20.478  24.677 -0.1611 -0.1030  0.1986
52232W        W 8473  18.404  25.009  24.461 -0.0868  0.0104  0.3220
52233W        W 8474  15.028  13.933   4.918 -0.3000 -0.0785 -0.2115
52234W        W 8475   3.871  19.960  20.395  0.3828  0.1015 -0.0972
52235W        W 8476   1.511  34.205  20.696  0.3215  0.2112  0.0779
52236W        W 8477  20.379  18.075  22.605  0.0697 -0.2997  0.0117
52237W        W 8478   0.585  29.401   2.988  0.1652 -0.0535  0.1695
52238W        W 8479  15.148  30.755   0.097 -0.0142  0.0954  0.0590
52239W        W 8480  22.934  22.183  21.076  0.0280 -0.1182  0.0827
52240W        W 8481  30.527   3.081  18.057  0.2584 -0.1715 -0.0544
52241W        W 8482   3.828  23.342  18.713  0.4322 -0.1114  0.1551
52242W        W 8483  16.065   4.708   8.943  0.1584  0.0173  0.0885
52243W        W 8484  31.378  20.746   5.861  0.0468  0.1065 -0.2075
52244W        W 8485   2.289   8.775   3.116 -0.0598  0.3373 -0.0572
52245W        W 8486  18.286  18.350   9.349 -0.2039  0.2198  0.3101
52246W        W 8487  34.782  33.380  15.245  0.2791  0.3877  0.1126
52247W        W 8488   4.570  28.261  21.914  0.0918 -0.1856 -0.4116
52248W        W 8489  11.863  30.473  15.445 -0.2871  0.2560  0.0805
52249W        W 8490  17.242  27.655  10.755 -0.0403 -0.1396 -0.0630
52250W        W 8491  17.969   1.843   3.315 -0.2660 -0.2713  0.1481
52251W        W 8492  12.406  35.342  24.958 -0.0882 -0.1721 -0.2665
52252W        W 8493  35.300  22.446  19.798  0.1209 -0.0213 -0.0055
52253W        W 8494   5.396   4.283   2.694 -0.1232 -0.0344  0.3313
52254W        W 8495  11.683  21.748   9.818  0.0753  0.1900  0.0143
52255W        W 8496  26.830  29.239  12.658 -0.0509  0.1428 -0.3472
52256W        W 8497  24.034  26.847  17.940  0.3267  0.0466 -0.0070
52257W        W 8498  20.001  22.192   8.648 -0.1303  0.1797 -0.2022
52258W        W 8499   1.211  31.961   1.883  0.1762  0.0242  0.2291
52259W        W 8500  23.770   1.270  16.365 -0.1985 -0.2253  0.0776
52260W        W 8501  10.261   6.930   6.023 -0.2268 -0.3049  0.1921
52261W        W 8502   6.282  31.708   9.681  0.1274 -0.1254 -0.0814
52262W        W 8503  15.541   2.407  17.993  0.1534  0.2478 -0.0148
52263W        W 8504  24.784  15.798  11.276  0.0280 -0.1220  0.0698
52264W        W 8505  24.875   2.754   4.859  0.1619 -0.0145 -0.0504
52265W        W 8506  20.514   3.187   6.807  0.1848 -0.0317  0.0552
52266W        W 8507   0.437  32.155  16.033 -0.1761 -0.2226 -0.0635
52267W        W 8508  25.954   5.783  25.895  0.0782 -0.1130 -0.0874
52268W        W 8509  34.964   0.403   4.404 -0.0332  0.1577 -0.1806
52269W        W 8510  30.077  35.099  17.933  0.0268  0.0799 -0.2636
52270W        W 8511  12.463   6.884  18.907  0.3564  0.1376  0.1897
52271W        W 8512  18.158   8.102   2.860 -0.6400 -0.0724 -0.3021
52272W        W 8513  26.746   2.871  18.770  0.2853 -0.3256 -0.1648
52273W        W 8514  19.270  19.850   9.823  0.2706  0.2096 -0.2427
52274W        W 8515   3.177   1.646   6.007  0.0114 -0.0427  0.3325
52275W        W 8516  26.876  20.863   7.640  0.1767  0.0656 -0.1095
52276W        W 8517  33.392  25.952  16.572  0.0738  0.1997 -0.0529
52277W        W 8518  15.187  22.165   8.897 -0.0878  0.0297  0.1306
52278W        W 8519  33.431  21.167  16.380 -0.2573  0.2367 -0.2333
52279W        W 8520  12.664  24.936   4.678  0.2993  0.0649 -0.1288
52280W        W 8521  12.362   7.785   3.965  0.1384 -0.0893  0.0837
52281W        W 8522  19.944  30.489   2.083  0.1075 -0.0307  0.1315
52282W        W 8523  10.931   1.203  24.100  0.0244  0.2222 -0.1142
52283W        W 8524  29.063  24.465  18.833  0.2125  0.1096 -0.0501
52284W        W 8525   8.861  17.859   1.457 -0.2937  0.0929  0.3947
52285W        W 8526  30.029   4.446   0.716  0.0358 -0.0917  0.2992
52286W        W 8527  24.872  33.279  15.989  0.1950  0.3524 -0.0881
52287W        W 8528  21.740  34.138  15.220  0.1739 -0.2573  0.2782
52288W        W 8529  21.519   6.785  25.924 -0.0653 -0.1986 -0.0285
52289W        W 8530  17.026  11.025  26.061 -0.0346 -0.0189 -0.1267
52290W        W 8531  13.435  35.005  11.145  0.0424 -0.2239 -0.1617
52291W        W 8532  11.487  21.536   1.405  0.0301  0.1933 -0.0109
52292W        W 8533  10.876  28.348   8.931 -0.2408 -0.0722  0.0161
52293W        W 8534  28.650   5.392  18.802 -0.1478  0.1355  0.2192
52294W        W 8535   1.676  14.884  22.630  0.0839  0.0837  0.0811
52295W        W 8536   5.270  16.389  19.701 -0.0072 -0.3103  0.3533
52296W        W 8537  31.561   7.670  18.503 -0.3360 -0.0523 -0.1693
52297W        W 8538  16.565   7.722  18.677  0.3608  0.2194 -0.1631
52298W        W 8539   7.984  20.446   5.130  0.0884  0.1187 -0.0444
52299W        W 8540  35.179   7.748  10.903  0.2165 -0.2409 -0.1289
52300W        W 8541   4.494  26.827  21.033 -0.0379  0.0702 -0.3285
52301W        W 8542  22.706   3.421  15.013  0.0342 -0.1316  0.0907
52302W        W 8543  18.466  31.459   4.500 -0.0617 -0.1446  0.0110
52303W        W 8544   1.848  11.154  21.088  0.1635  0.2123 -0.2504
52304W        W 8545  32.066   0.989  14.577 -0.1802 -0.3526  0.3636
52305W        W 8546  20.951  19.365   2.950  0.2929  0.0652  0.3860
52306W        W 8547  21.874  25.410  26.023  0.1669  0.1074  0.2678
52307W        W 8548  14.849  18.643   3.808  0.0478 -0.0436  0.0076
52308W        W 8549  25.897  31.106  18.318  0.2319  0.1501  0.2624
52309W        W 8550   2.133   5.962  22.383  0.1188  0.4238  0.0585
52310W        W 8551  24.876  35.055   0.803  0.0385 -0.0941 -0.1659
52311W        W 8552   8.549  28.133   6.793  0.1160 -0.0512  0.2081
52312W        W 8553  15.613  22.853  10.979 -0.2370 -0.0397  0.1226
52313W        W 8554   9.237  22.310  21.457 -0.1452  0.0204  0.0054
52314W        W 8555  13.855  31.873   5.113  0.1898  0.0009 -0.3092
52315W        W 8556  17.400   4.662   9.657  0.0135  0.1010  0.2085
52316W        W 8557   7.538   2.466   6.284  0.0016 -0.1219 -0.0437
52317W        W 8558  22.107  34.065  20.775  0.0548  0.0853  0.3023
52318W        W 8559  31.597  14.999   6.454  0.2088  0.1365 -0.5181
52319W        W 8560   6.825  20.893   4.006  0.2670 -0.1379 -0.2168
52320W        W 8561  27.493  29.913   4.859 -0.0238  0.2257  0.2222
52321W        W 8562  25.148   5.474   0.925  0.2236 -0.5017  0.0362
52322W        W 8563  21.657  17.941  16.744 -0.1060 -0.1516 -0.0865
52323W        W 8564  30.119   1.806   2.087  0.1845  0.1147 -0.4707
52324W        W 8565  34.071   3.948  22.484 -0.1817 -0.2870 -0.1686
52325W        W 8566  23.721   6.482  19.960  0.0394 -0.0511 -0.0151
52326W        W 8567   8.010  34.873  24.639  0.1854  0.2548 -0.0300
52327W        W 8568  32.698  18.368  23.835  0.2007  0.1449 -0.2676
52328W        W 8569  34.357  13.254  13.841  0.4148  0.0119 -0.0374
52329W        W 8570  24.790   0.210   5.548  0.1012 -0.0845 -0.1109
52330W        W 8571  26.179  20.615  17.093  0.0678  0.2277  0.1841
52331W        W 8572  10.994  18.121  11.051 -0.4786 -0.0449  0.0232
52332W        W 8573   9.954   0.390   0.988 -0.0378 -0.1569  0.1501
52333W        W 8574  30.605  31.635   2.031 -0.1553  0.0781 -0.1116
52334W        W 8575   8.372  26.142  12.726 -0.0146 -0.1581 -0.5687
52335W        W 8576  29.570  14.550  11.180  0.2326  0.1299 -0.0171
52336W        W 8577   1.149  33.207   0.892 -0.0364 -0.0197 -0.3113
52337W        W 8578  32.781  23.609   9.846  0.1583  0.4085 -0.1570
52338W        W 8579  11.043  22.795  12.067 -0.0591  0.0599  0.0217
52339W        W 8580  22.295  18.457  17.680 -0.1045  0.3548 -0.3099
52340W        W 8581  16.422   5.574   7.359  0.2354 -0.0503 -0.2291
52341W        W 8582  16.033  28.656  13.274 -0.1555 -0.3664  0.1129
52342W        W 8583   0.255   5.712  21.303  0.1005 -0.1370  0.0370
52343W        W 8584  11.294   3.059   6.187 -0.2872  0.1182 -0.1500
52344W        W 8585  20.383  18.720  21.769 -0.0340 -0.0486  0.4041
52345W        W 8586  13.601  22.964  24.974  0.1967  0.1356 -0.0607
52346W        W 8587  11.267  33.751   7.402 -0.3951 -0.1641 -0.0054
52347W        W 8588  31.991   8.342  21.715 -0.1703 -0.1789  0.2277
52348W        W 8589  14.869  22.971  23.070  0.0994 -0.1122  0.1300
52349W        W 8590  26.336  32.931  10.852  0.0462 -0.2583  0.0015
52350W        W 8591  30.671   9.354  26.112 -0.0557 -0.2658 -0.1381
52351W        W 8592  28.479  29.279  14.786  0.1452 -0.1684  0.2182
52352W        W 8593  12.732   6.361  21.865  0.3400  0.1166 -0.0444
52353W        W 8594  16.218  20.694  10.516 -0.1102 -0.3164  0.0413
52354W        W 8595  25.673   0.183  19.836  0.1360 -0.0229 -0.0544
52355W        W 8596   6.785  32.365   4.065 -0.2755 -0.2809 -0.0487
52356W        W 8597   9.574   7.592  20.041 -0.0380 -0.2839 -0.1038
52357W        W 8598   6.525  31.934   9.211  0.3279  0.1866  0.0796
52358W        W 8599  18.740   6.226  10.456 -0.0557 -0.1238 -0.1914
52359W        W 8600  13.438  31.930   2.828  0.2039  0.0274  0.0236
52360W        W 8601  10.686  12.254  21.160  0.0301 -0.2215  0.3073
52361W        W 8602   8.979  32.504  11.805 -0.3219 -0.1626  0.1313
52362W        W 8603  28.663  16.419   7.756  0.1939 -0.0357 -0.3214
52363W        W 8604  27.936  13.396   8.123  0.1479 -0.1347  0.0882
52364W        W 8605  16.723  30.000   5.996 -0.0910  0.2138  0.0226
52365W        W 8606  30.444  10.333  19.137 -0.0695  0.1357 -0.1074
52366W        W 8607  25.175  14.640  19.004 -0.0727  0.2094 -0.2061
52367W        W 8608  13.353  19.504   4.341  0.2711 -0.2113 -0.3317
52368W        W 8609  15.123  18.140  11.260  0.0692 -0.2525 -0.0550
52369W        W 8610  30.603  22.490  10.213  0.3368  0.1444 -0.0941
52370W        W 8611  32.207   2.203  24.159 -0.0144  0.0954 -0.1943
52371W        W 8612  19.301  21.381  24.816  0.0046 -0.0956  0.5344
52372W        W 8613  24.966  30.940   0.299 -0.1167  0.0065  0.0073
52373W        W 8614   6.038   5.382   2.818  0.0284 -0.2199 -0.1504
52374W        W 8615   0.865  18.563  12.819  0.0406 -0.0067 -0.1880
52375W        W 8616  33.522  10.566  19.252 -0.0340 -0.0483 -0.0403
52376W        W 8617  25.408  32.478  20.416  0.2118 -0.2656  0.3026
52377W        W 8618  33.857   0.311  15.332  0.1008 -0.2239  0.4452
52378W        W 8619   3.676   6.166  22.820  0.1843 -0.2435 -0.3426
52379W        W 8620   4.124   6.909  20.362 -0.2027 -0.2886  0.0875
52380W        W 8621   7.871  19.845   8.453  0.0750 -0.0100 -0.1631
52381W        W 8622  32.795   7.192  24.691 -0.2022 -0.0563  0.0184
52382W        W 8623  27.740   4.109  19.043 -0.0057 -0.2086  0.0492
52383W        W 8624  33.872  10.237  17.957 -0.0250  0.0079 -0.0033
52384W        W 8625  28.611  15.318   5.149 -0.1152  0.4907 -0.1496
52385W        W 8626  11.517  16.977   1.927 -0.0834  0.1191 -0.1787
52386W        W 8627  13.882  20.657  14.813  0.0812  0.1150 -0.3535
52387W        W 8628  26.001  32.986  20.296  0.1149 -0.1199 -0.0494
52388W        W 8629  27.689  13.369  14.220 -0.0586 -0.0183  0.6350
52389W        W 8630  31.238  14.661  13.931  0.2858 -0.0181  0.0945
52390W        W 8631   6.621  20.783  24.026 -0.0705  0.0069  0.2601
52391W        W 8632  28.862  31.117  19.347 -0.0201  0.1316 -0.0166
52392W        W 8633  33.297   5.974   0.527  0.0673 -0.0796 -0.2279
52393W        W 8634  23.099  27.768  17.257  0.0158 -0.4456 -0.2066
52394W        W 8635   2.391  18.170  18.383  0.0479 -0.0818 -0.0666
52395W        W 8636   0.726   0.506  16.445  0.0297 -0.0212  0.0129
52396W        W 8637  27.170  22.634  13.330 -0.1472 -0.1491  0.2963
52397W        W 8638   3.412   9.697   3.384 -0.0139  0.2152 -0.2071
52398W        W 8639  30.793  18.512  24.933  0.2490  0.2445  0.1201
52399W        W 8640   3.768  24.970  18.181  0.0660 -0.0209  0.0852
52400W        W 8641   7.416  20.299  24.537  0.2432 -0.0043 -0.0893
52401W        W 8642  29.485   4.584  23.537 -0.0021  0.1546  0.1498
52402W        W 8643  10.021   2.808  20.715  0.3187  0.1222  0.1961
52403W        W 8644   8.956  27.447   4.849 -0.0055  0.1154 -0.0274
52404W        W 8645  13.449   2.846  19.224 -0.2552 -0.1275  0.1543
52405W        W 8646  34.668   2.111  21.174  0.0695  0.0513  0.0242
52406W        W 8647   0.312  23.986  14.134  0.1765  0.0758 -0.2938
52407W        W 8648  13.028  33.678   6.887  0.1301 -0.0052  0.0407
52408W        W 8649  33.760  27.319   1.297 -0.0104 -0.1032 -0.0848
52409W        W 8650  29.344   4.738  12.382 -0.0847 -0.0764 -0.0513
52410W        W 8651   1.490   0.557  25.035  0.3771 -0.0876 -0.0769
52411W        W 8652  31.697  33.180  23.727  0.2018  0.1110 -0.0316
52412W        W 8653  29.066  29.494  15.600 -0.1078 -0.0061 -0.1365
52413W        W 8654  21.925   4.396  22.708  0.1468  0.4976 -0.2044
52414W        W 8655   1.372   7.927  17.163  0.0371  0.0058 -0.1015
52415W        W 8656  25.322   9.484  19.453  0.1182  0.0567 -0.0963
52416W        W 8657  29.618   0.409  21.617  0.0602 -0.1750  0.0031
52417W        W 8658  13.210   0.341   9.832  0.0527 -0.0015 -0.0970
52418W        W 8659  26.206  28.417  20.160 -0.3928  0.1356 -0.2272
52419W        W 8660  32.317  22.184  24.393  0.1408  0.2715  0.1480
52420W        W 8661  22.013  16.386  15.196  0.1851  0.2011  0.0216
52421W        W 8662  26.985   0.761  19.077 -0.0823 -0.0914 -0.1049
52422W        W 8663  29.771   1.420  14.472 -0.1713 -0.5205 -0.1865
52423W        W 8664  34.354   8.765  14.726 -0.0374 -0.1164  0.1113
52424W        W 8665  12.591   1.133   3.635 -0.0465 -0.1896  0.0883
52425W        W 8666  33.989  19.582  18.472  0.4669  0.2288  0.2146
52426W        W 8667   1.809  35.222   2.885  0.4822  0.0601  0.0656
52427W        W 8668  18.070  32.859   4.836 -0.0531 -0.2492 -0.1640
52428W        W 8669   0.947  31.648   7.458 -0.2870  0.1208 -0.2628
52429W        W 8670   6.760   7.844   1.624 -0.0459  0.3565  0.2225
52430W        W 8671  26.033  24.678   9.366  0.0612  0.1036  0.0622
52431W        W 8672   8.731  14.508   2.221  0.0243  0.0234 -0.1239
52432W        W 8673  29.936   8.979  25.589 -0.3110 -0.1698 -0.1407
52433W        W 8674   5.366  29.744   3.005 -0.0230  0.2121 -0.0722
52434W        W 8675   3.791  30.840  24.261  0.1002  0.0286 -0.1881
52435W        W 8676  13.659  30.258   2.456  0.0223 -0.0614  0.1663
52436W        W 8677  12.829   3.152   7.973 -0.1264 -0.2665 -0.2455
52437W        W 8678  32.179  16.969  25.574 -0.1238 -0.1024  0.0741
52438W        W 8679  34.884  11.431  22.786  0.1415  0.1186  0.0666
52439W        W 8680  11.606  15.101  21.617 -0.2657 -0.1911 -0.0718
52440W        W 8681  33.850   3.231  19.857  0.0326 -0.0998  0.1192
52441W        W 8682  23.110  19.405  15.280  0.3297  0.0871 -0.0518
52442W        W 8683  15.480  17.398   5.867 -0.1417  0.0501 -0.2262
52443W        W 8684   9.483  10.708  12.159 -0.2264 -0.0109  0.2124
52444W        W 8685   2.438  17.111  26.200  0.2112 -0.1818 -0.3451
52445W        W 8686  26.590  18.613  14.899 -0.0804  0.1560 -0.2000
52446W        W 8687   7.299  18.445   6.493  0.0256 -0.0708  0.2482
52447W        W 8688  18.978  23.680  23.643  0.3442  0.1060  0.1874
52448W        W 8689   4.965  12.622   5.911  0.0423  0.0579  0.3623
52449W        W 8690  18.875  21.248  23.463 -0.0683  0.1050  0.1391
52450W        W 8691   4.938   5.488  18.913 -0.0607 -0.0265 -0.0585
52451W        W 8692  29.212  17.674  21.029 -0.0640  0.1803 -0.2499
52452W        W 8693  15.869   1.569   2.667  0.0094 -0.1428 -0.2011
52453W        W 8694   2.545  31.333   9.221  0.0940 -0.1518  0.1917
52454W        W 8695  18.852   8.219   3.491  0.0491  0.0013  0.0197
52455W        W 8696  32.405   9.799   9.053  0.1995 -0.2519 -0.0846
52456W        W 8697  24.451  17.477  14.381  0.2078 -0.0351 -0.1561
52457W        W 8698  32.932  18.343   8.774  0.0495 -0.0728 -0.0694
52458W        W 8699  26.914   1.219  16.868 -0.3232 -0.2561  0.1695
52459W        W 8700   1.174  17.487  21.830 -0.0247 -0.1628  0.1266
52460W        W 8701  30.449   8.832  19.940  0.0403 -0.2134 -0.1321
52461W        W 8702   1.726  13.962  11.518 -0.1464 -0.1966  0.1572
52462W        W 8703  12.028  21.135  10.524  0.4785 -0.3185  0.0459
52463W        W 8704   4.259  32.160  10.249  0.2196  0.0072  0.4158
52464W        W 8705  23.766  32.671   4.543 -0.3692  0.1135  0.2351
52465W        W 8706  16.918   7.891   1.518  0.0517  0.0943  0.0528
52466W        W 8707   3.402  16.262  23.073 -0.1816 -0.0747  0.1081
52467W        W 8708  17.536  13.563  24.514  0.2780 -0.3104 -0.1859
52468W        W 8709  10.967   8.336   7.614 -0.2786  0.0184 -0.3077
52469W        W 8710  31.970   5.990  24.290 -0.0036 -0.1861  0.1187
52470W        W 8711  15.303   7.139   5.572 -0.2758 -0.1780 -0.0411
52471W        W 8712  29.240  26.721  24.508 -0.0780 -0.1035  0.0503
52472W        W 8713  16.755   8.345  21.974 -0.0447  0.0598 -0.0982
52473W        W 8714  16.461   7.773   7.405 -0.3842  0.0623  0.2896
52474W        W 8715  22.941   8.606   0.777 -0.0403  0.0468 -0.1528
52475W        W 8716  15.110  22.142   0.444  0.1139 -0.1818  0.0677
52476W        W 8717  29.412  28.266  25.923  0.2631  0.0920  0.1436
52477W        W 8718  18.296  25.454  11.155  0.1774  0.0871 -0.4906
52478W        W 8719  11.079  26.694  13.080 -0.0704  0.3449  0.3407
52479W        W 8720  25.804   4.773  23.041  0.1936 -0.2953 -0.2585
52480W        W 8721  27.649   6.277   1.279  0.1001 -0.3294 -0.1710
52481W        W 8722  18.730  19.936   6.689  0.1157  0.1635 -0.0914
52482W        W 8723   4.525  21.670   0.984 -0.4517 -0.2511  0.0522
52483W        W 8724   1.523  24.343   3.964  0.0220  0.1360  0.0934
52484W        W 8725  28.602   8.247  17.468 -0.0674 -0.0509  0.2515
52485W        W 8726  16.449  19.068  14.179 -0.1310 -0.0317 -0.0627
52486W        W 8727  25.031  30.039  13.607 -0.2856 -0.2222 -0.0459
52487W        W 8728  20.474  21.884  23.420 -0.0124 -0.1208 -0.1860
52488W        W 8729  17.786  15.029  12.507 -0.1943  0.1207  0.1133
52489W        W 8730   9.256   9.793  12.848  0.3320 -0.3796 -0.1889
52490W        W 8731  22.813  31.304   5.440 -0.3021 -0.1607  0.1097
52491W        W 8732  22.998  30.079   6.011 -0.0147  0.2444  0.0446
52492W        W 8733   8.718  35.220   9.204  0.2540  0.1095 -0.0199
52493W        W 8734  18.992  32.118   4.922 -0.1662 -0.0214  0.3195
52494W        W 8735   0.198   2.098  23.907  0.2238 -0.3525 -0.2231
52495W        W 8736  18.150  16.979  10.667  0.1555  0.0161  0.2166
52496W        W 8737   9.229   5.182   3.140 -0.2116 -0.0903  0.0973
52497W        W 8738   8.580   5.178  11.439 -0.0756 -0.0149  0.0361
52498W        W 8739   5.586  25.480   9.006  0.1096 -0.0030 -0.0693
52499W        W 8740  27.587  32.022   1.297 -0.1609  0.0233 -0.0234
52500W        W 8741  33.813  23.704   9.202  0.2194  0.1307  0.0560
52501W        W 8742  28.493   1.663   0.813  0.0095  0.2278 -0.0357
52502W        W 8743   9.769  35.173   2.053 -0.5413 -0.1784 -0.0627
52503W        W 8744  11.334  12.091   1.676  0.2756  0.3057 -0.3051
52504W        W 8745   2.098   9.511  19.010 -0.1628 -0.0665  0.0098
52505W        W 8746  35.109  25.014  20.038  0.0601  0.2356  0.2874
52506W        W 8747  26.461  17.425   5.538  0.2793  0.1467 -0.1324
52507W        W 8748  31.240   3.955  15.095 -0.2674  0.0766  0.1467
52508W        W 8749   8.349  23.400  11.009 -0.0363  0.0887 -0.0507
52509W        W 8750  26.350   3.902  12.623  0.0305  0.1379  0.2022
52510W        W 8751  31.904  10.159  16.525 -0.3253  0.4784 -0.1219
52511W        W 8752  29.272  10.949  12.110 -0.1180  0.3903  0.1402
52512W        W 8753  17.365  20.223  25.382 -0.1705  0.3021 -0.1172
52513W        W 8754  23.966  14.258  21.355  0.1176  0.1470  0.0028
52514W        W 8755  10.115  23.033  22.989 -0.1021  0.0784 -0.0799
52515W        W 8756  24.056   2.108   6.447  0.0072 -0.3329 -0.0018
52516W        W 8757   0.519  22.407   0.299 -0.0083  0.2509 -0.0642
52517W        W 8758  16.052  19.204  14.863  0.0621 -0.1249 -0.0824
52518W        W 8759   9.702   3.396  24.664 -0.0275 -0.1328 -0.0068
52519W        W 8760  28.184   4.572  20.549  0.0028  0.2070 -0.2171
52520W        W 8761  27.076  21.282   9.265  0.3490 -0.3160 -0.0760
52521W        W 8762   7.431  24.500   4.469  0.1644 -0.0850 -0.0592
52522W        W 8763   1.020  21.308  12.581  0.1215 -0.0638 -0.0370
52523W        W 8764  25.658  32.948   3.477  0.1117 -0.2061  0.1787
52524W        W 8765  31.230   0.178   1.504 -0.1385  0.2438  0.3683
52525W        W 8766  16.781  18.800  23.713 -0.0676  0.0247 -0.0347
52526W        W 8767  33.454   4.542  19.896 -0.0898  0.0452 -0.0928
52527W        W 8768   1.865  27.357  22.146  0.1911 -0.2406 -0.0819
52528W        W 8769   1.111   9.748  20.611  0.2568 -0.2205 -0.2590
52529W        W 8770  17.786  23.158   1.146 -0.1089  0.1588  0.1882
52530W        W 8771   0.414  33.895   0.420  0.0310  0.1770  0.2552
52531W        W 8772  24.192  14.092  18.146  0.0452 -0.2423 -0.4156
52532W        W 8773  32.505  28.345  25.950 -0.0046  0.1021 -0.0612
52533W        W 8774  14.090   8.216  22.612  0.0296  0.0747  0.0033
52534W        W 8775  17.064   7.371   3.420 -0.0831 -0.0634  0.2632
52535W        W 8776  32.766   4.134  12.745  0.0229 -0.2204 -0.3393
52536W        W 8777  30.858  18.193   8.119 -0.1726 -0.4812  0.4749
52537W        W 8778   9.064   5.159   9.184 -0.0405 -0.1131  0.1425
52538W        W 8779  11.026  22.357   4.327 -0.5166  0.2929  0.4807
52539W        W 8780  10.129  31.363  23.216 -0.1570  0.0643 -0.0659
52540W        W 8781  24.254  10.796   1.145 -0.0472 -0.0567  0.1344
52541W        W 8782  28.871  31.306  12.201  0.0820  0.1634 -0.0447
52542W        W 8783  16.346   9.430   8.456  0.0238 -0.1561  0.3164
52543W        W 8784  15.882   4.486   7.265 -0.1506  0.0294 -0.1338
52544W        W 8785   0.708  31.039  21.753 -0.2279 -0.0923 -0.2314
52545W        W 8786   8.690  18.931  23.292 -0.0003 -0.0651  0.1350
52546W        W 8787  25.046   7.969  16.054  0.0952  0.1439  0.1500
52547W        W 8788  17.559  31.765   5.717 -0.1429  0.3418 -0.0138
52548W        W 8789  29.864   1.556  13.972  0.0364 -0.1850 -0.1190
52549W        W 8790  35.014  18.834  10.302  0.0737  0.1591  0.0071
52550W        W 8791  10.045  32.682   3.145 -0.1897  0.2420  0.1107
52551W        W 8792  20.718  29.351  23.521  0.0610  0.1226 -0.2362
52552W        W 8793   6.434   5.607  19.120 -0.3992 -0.3328  0.2820
52553W        W 8794   7.340  23.042   1.108 -0.1157 -0.1527 -0.0937
52554W        W 8795  18.942  22.945  11.564  0.0222  0.1530 -0.4501
52555W        W 8796   8.374  30.214   0.909 -0.2232 -0.1604 -0.1927
52556W        W 8797  27.813   3.496  24.104  0.2896  0.1176 -0.2592
52557W        W 8798  34.788  29.578   2.865  0.1439 -0.3416  0.0185
52558W        W 8799  26.453  22.718   0.472 -0.1715  0.2526 -0.0530
52559W        W 8800  17.492   2.792   5.054 -0.0778 -0.0938 -0.0827
52560W        W 8801  19.966   3.295  18.813  0.0234  0.1333  0.3936
52561W        W 8802  31.487   1.067  12.815 -0.1053  0.3062  0.0174
52562W        W 8803  17.378   2.069  18.423 -0.1034 -0.0185  0.0753
52563W        W 8804   4.690  32.120   8.991 -0.1434  0.2968  0.0170
52564W        W 8805  21.730  34.597  21.852 -0.4906 -0.0601 -0.1788
52565W        W 8806  27.552  20.922  25.657 -0.1507  0.2275  0.0911
52566W        W 8807  34.072  18.730   0.052  0.2020  0.1118  0.0060
52567W        W 8808  29.074   0.236  19.560  0.0634 -0.1780  0.1739
52568W        W 8809  15.467  18.481  21.155  0.1791 -0.1567 -0.2356
52569W        W 8810  24.635  31.315  14.287  0.0427 -0.1338  0.0522
52570W        W 8811  32.047  34.391  12.822  0.0883  0.2836  0.1932
52571W        W 8812  29.411  29.628  24.883 -0.2136  0.2023  0.2707
52572W        W 8813  31.922  22.981   8.211  0.0634 -0.1638 -0.0396
52573W        W 8814  28.068  33.059   0.069 -0.1316 -0.0712  0.0730
52574W        W 8815   2.172  25.667   4.722 -0.3137 -0.0146  0.1602
52575W        W 8816  25.307  23.433  15.680  0.0362  0.5478  0.0623
52576W        W 8817  31.264  21.457  12.979 -0.0824  0.2945 -0.0248
52577W        W 8818   0.255  35.118   4.688  0.1698 -0.3108  0.1524
52578W        W 8819  27.975  18.933  13.898 -0.2419  0.0624  0.1287
52579W        W 8820  19.703  10.434  25.374 -0.3933 -0.0621  0.2224
52580W        W 8821  16.797  17.447  22.487 -0.2032  0.0181 -0.2894
52581W        W 8822  24.324  15.115  20.208 -0.0070 -0.2019 -0.4043
52582W        W 8823  17.088  34.945  25.249  0.1382  0.0253  0.0992
52583W        W 8824   1.758   3.480  21.352  0.1003 -0.1454 -0.0393
52584W        W 8825  27.352  15.886  22.712 -0.4540 -0.2692  0.2839
52585W        W 8826   6.362   2.255   0.380 -0.1064  0.0514  0.0591
52586W        W 8827  19.991  35.149   2.671  0.0379  0.1353 -0.1460
52587W        W 8828   7.515  18.488   3.509  0.0075  0.3400 -0.0099
52588W        W 8829  27.193  25.873  12.965 -0.2046  0.3027 -0.3844
52589W        W 8830   5.724  18.820   3.455  0.2005  0.3407  0.2565
52590W        W 8831  32.347  12.235  21.433 -0.1143 -0.0294 -0.3739
52591W        W 8832  10.973   3.226   1.978 -0.0518 -0.1396 -0.2267
52592W        W 8833  24.481  24.247  17.427  0.2785  0.1431  0.2764
52593W        W 8834  15.657   2.506   1.411  0.1316  0.0010 -0.1041
52594W        W 8835  12.003  25.395   9.417 -0.1961 -0.4741 -0.2418
52595W        W 8836   1.170  29.344  20.307 -0.0740  0.1995 -0.0144
52596W        W 8837  31.966   2.321  23.709 -0.3280 -0.2202  0.3705
52597W        W 8838  32.710  15.835  24.867 -0.0320 -0.2595 -0.0420
52598W        W 8839  15.204  24.192   6.262 -0.0314 -0.4108  0.1193
52599W        W 8840   1.530  21.482   0.872  0.0288 -0.0509  0.0008
52600W        W 8841   8.732  12.418  20.232 -0.0746  0.1470 -0.3204
52601W        W 8842  13.673  17.835  11.825 -0.2425  0.1988 -0.1827
52602W        W 8843  19.245  15.478   4.338  0.1280  0.0944 -0.0522
52603W        W 8844   0.294   9.911  10.892  0.1642  0.0841 -0.0258
52604W        W 8845   9.782  28.906  12.762 -0.0521  0.2999 -0.0710
52605W        W 8846  32.068  30.479  19.977 -0.0696  0.0694  0.3464
52606W        W 8847   0.684  17.047  17.561 -0.0038  0.3787 -0.0710
52607W        W 8848  23.228  31.817   2.908 -0.1637 -0.2574 -0.0931
52608W        W 8849  15.191   3.972   4.895  0.3118 -0.0321 -0.2942
52609W        W 8850  11.978  22.361  21.748 -0.4124  0.2425 -0.0807
52610W        W 8851  12.003   9.906  12.320 -0.0363  0.1313 -0.2720
52611W        W 8852   0.417   3.641  17.772  0.0131 -0.1426  0.0718
52612W        W 8853  19.153  11.044  21.057  0.0020 -0.3372 -0.3702
52613W        W 8854   7.632  20.341  23.224  0.0878  0.0751  0.1271
52614W        W 8855   1.033  28.203  22.489  0.1373  0.0593  0.3321
52615W        W 8856  19.722  18.434  20.834 -0.0464  0.2016 -0.1507
52616W        W 8857  31.253  19.944  19.449  0.0357 -0.1442 -0.2801
52617W        W 8858  12.716   4.679   7.800  0.1625  0.1101  0.3813
52618W        W 8859  22.844  34.147  12.778 -0.2675  0.0036  0.1552
52619W        W 8860   8.267   6.182   6.855 -0.0168  0.0100  0.1810
52620W        W 8861  34.210  23.995  13.502 -0.0324 -0.0832  0.2360
52621W        W 8862  33.491  25.889  15.977 -0.0973 -0.1751  0.1226
52622W        W 8863  16.118   4.775   2.122 -0.1963 -0.1365  0.1227
52623W        W 8864  22.677  16.850  25.968  0.0037 -0.0320  0.1067
52624W        W 8865  16.998  20.845  22.773  0.1486 -0.1860 -0.2136
52625W        W 8866  24.162   3.551  21.618  0.0302 -0.0631  0.1444
52626W        W 8867   6.065  20.708   0.911 -0.0245  0.1996  0.0781
52627W        W 8868  28.643   1.732   5.663 -0.0758  0.2050  0.0877
52628W        W 8869  31.376   1.650   0.601 -0.1274 -0.1977  0.0092
52629W        W 8870  22.929  33.062   0.535 -0.1259  0.2547 -0.2411
52630W        W 8871  35.380  16.993  11.528 -0.0537  0.0554  0.0094
52631W        W 8872  32.543  34.648   3.097  0.0116  0.3176 -0.0701
52632W        W 8873  34.978  28.672  18.041 -0.0034 -0.2586 -0.0090
52633W        W 8874  19.350  33.709  15.525  0.1375  0.1303 -0.1517
52634W        W 8875  17.977  33.841   4.481 -0.0409  0.0533 -0.1766
52635W        W 8876   5.156   1.785   5.161  0.0063  0.1032 -0.0410
52636W        W 8877  27.515   5.781   1.358  0.1512 -0.1958 -0.2051
52637W        W 8878   7.077  34.880   3.910 -0.2470  0.1613 -0.0855
52638W        W 8879  27.267   8.688  26.034  0.0062 -0.0700 -0.1642
52639W        W 8880  16.189  26.330  23.518 -0.0172 -0.2300 -0.0551
52640W        W 8881  27.587   0.681  23.075  0.2518  0.0831 -0.0323
52641W        W 8882   7.944  11.362  10.462  0.2332 -0.0051 -0.2994
52642W        W 8883  24.220  18.737  22.111 -0.1361  0.1740  0.0754
52643W        W 8884  20.769  16.072  20.716 -0.1941 -0.1139 -0.1365
52644W        W 8885  15.179   3.146  18.080 -0.2982  0.0420  0.0619
52645W        W 8886  13.055  29.096  15.196 -0.1305  0.0949 -0.3713
52646W        W 8887   5.217   1.083   9.401  0.1454  0.1540  0.2049
52647W        W 8888   0.600   2.887  22.196  0.2790  0.2511  0.1468
52648W        W 8889   3.357   2.671   0.018  0.1420  0.0870  0.0667
52649W        W 8890   7.969   5.356   0.295  0.2225 -0.2437  0.1233
52650W        W 8891   4.365  15.407   4.634 -0.2047 -0.0586 -0.0528
52651W        W 8892  12.197   0.195   3.621  0.0576 -0.0869  0.2966
52652W        W 8893   3.318  19.386   2.235 -0.2435  0.1164 -0.0371
52653W        W 8894  34.159  27.538   4.918 -0.1831  0.2338 -0.1714
52654W        W 8895  17.349  28.901   8.641 -0.2890  0.3976 -0.1763
52655W        W 8896  28.036   5.350   3.424 -0.1972  0.0252 -0.1113
52656W        W 8897  25.748  28.606  11.692 -0.1569  0.1374  0.0219
52657W        W 8898  21.816  33.485   4.626  0.1283 -0.2835  0.2740
52658W        W 8899   7.530  32.964  13.337 -0.2325  0.1135 -0.0819
52659W        W 8900   3.445   1.604   6.840 -0.1856  0.0969  0.2727
52660W        W 8901  27.830  26.510  20.029  0.1737 -0.2957 -0.0345
52661W        W 8902   7.040  13.361   4.489  0.1633  0.4911 -0.0459
52662W        W 8903  22.907   7.783  25.389  0.2905  0.0628  0.0018
52663W        W 8904   3.486  27.460  11.111  0.0899 -0.0965 -0.0438
52664W        W 8905  30.340  17.489   4.439 -0.1850 -0.1156  0.1747
52665W        W 8906  25.241  23.429   9.920 -0.0355  0.1993 -0.0654
52666W        W 8907  17.006   8.343  12.174  0.0419 -0.1108  0.1503
52667W        W 8908  34.982   9.103   1.433  0.2121  0.0465  0.0772
52668W        W 8909  29.213  15.679  20.307 -0.0174 -0.0694  0.2359
52669W        W 8910  27.386   9.862  13.888 -0.1035  0.1099 -0.1315
52670W        W 8911   9.551  10.321   6.421  0.0143 -0.1314 -0.2845
52671W        W 8912  17.306   3.653   7.588 -0.1670 -0.2689  0.0961
52672W        W 8913   3.610  24.333   0.756  0.1714  0.0139 -0.1338
52673W        W 8914   6.765  26.930   2.038 -0.2723  0.3060 -0.0194
52674W        W 8915  24.317  33.933  12.656  0.0755 -0.2856  0.0266
52675W        W 8916  13.606   2.105  22.671 -0.0732  0.2084 -0.0031
52676W        W 8917  33.730  28.431  25.868  0.3429 -0.0963 -0.1596
52677W        W 8918  33.503   9.282  22.903 -0.1339 -0.0284 -0.1428
52678W        W 8919  22.420  18.577  16.091  0.0634 -0.1410  0.1438
52679W        W 8920  18.513  10.698  12.309 -0.2097 -0.3247 -0.1054
52680W        W 8921   7.213  16.131  25.504 -0.2031 -0.3789  0.4053
52681W        W 8922   5.183   9.418  19.716  0.0806  0.0515  0.1159
52682W        W 8923  31.841   4.184   5.090  0.2573  0.1226 -0.1472
52683W        W 8924  19.355  24.457   2.669  0.1531  0.0295  0.2428
52684W        W 8925  30.059  24.421  25.533 -0.0594 -0.1444  0.1921
52685W        W 8926  23.893  30.337  25.995 -0.0375 -0.1123 -0.3330
52686W        W 8927  33.085  15.130  16.316  0.0176  0.0522  0.1019
52687W        W 8928  16.608  16.989   4.356  0.1147  0.2055 -0.0027
52688W        W 8929  27.467  21.502   0.080 -0.0215 -0.2683 -0.0880
52689W        W 8930  14.206  17.919  20.994 -0.2549 -0.1417  0.0914
52690W        W 8931  17.263  23.057  21.678  0.2683 -0.0284 -0.0277
52691W        W 8932   5.328  32.842  24.779 -0.0414 -0.0622  0.0164
52692W        W 8933  19.205  34.603   2.594 -0.0313  0.0704  0.1509
52693W        W 8934  16.102   8.102   6.599 -0.1212 -0.0441 -0.0414
52694W        W 8935  30.336  26.891  22.748  0.1509 -0.0652  0.1887
52695W        W 8936  14.020  32.866   8.460 -0.0635 -0.2992  0.1363
52696W        W 8937  22.316  28.042  15.337  0.1114 -0.1542 -0.1514
52697W        W 8938  11.743  16.195   8.762 -0.1033 -0.1003 -0.2364
52698W        W 8939  14.722  14.710  10.965  0.2343 -0.0741 -0.0689
52699W        W 8940  12.170  14.097   1.878  0.0696  0.0950  0.3471
52700W        W 8941  16.353  16.195   9.823  0.0587 -0.3150  0.1305
52701W        W 8942  13.209  25.733  11.406  0.4024 -0.2508  0.3143
52702W        W 8943  34.086  32.777  18.746  0.3552 -0.0366  0.0807
52703W        W 8944  10.758  10.308  12.638 -0.3888 -0.2636 -0.2567
52704W        W 8945   6.435  13.003   1.957 -0.1748  0.0392 -0.0756
52705W        W 8946  27.377  32.861   1.400 -0.3483  0.0751  0.3980
52706W        W 8947  14.973   9.574  12.478 -0.0783  0.0942 -0.1330
52707W        W 8948  30.588  26.555  14.531  0.2155 -0.0369  0.1203
52708W        W 8949  25.027   7.019  18.708 -0.3273  0.1204 -0.0167
52709W        W 8950  20.462  19.218  16.951 -0.0965  0.1334 -0.1740
52710W        W 8951   7.500  13.544   4.658  0.1232  0.0131 -0.1773
52711W        W 8952  19.046   1.260  19.385  0.1335 -0.0670 -0.2288
52712W        W 8953  17.425   9.875  25.758 -0.0579 -0.2791 -0.3326
52713W        W 8954   0.309   7.962  15.418 -0.0729 -0.1692 -0.1027
52714W        W 8955  19.786   5.073  17.694  0.0851 -0.1423  0.0225
52715W        W 8956  20.980  11.788  21.885  0.0853 -0.0658 -0.2412
52716W        W 8957  24.807  18.808  21.402 -0.0215  0.2700 -0.2354
52717W        W 8958  19.593  34.331   2.444  0.2943  0.3486  0.0551
52718W        W 8959  34.803   6.716  18.143 -0.1233  0.3138 -0.1955
52719W        W 8960  35.196   1.671   4.168 -0.0593  0.4715  0.2793
52720W        W 8961  14.965  13.274  12.686  0.2250 -0.0215  0.3381
52721W        W 8962  15.226   4.074  19.976 -0.1703 -0.1260  0.3009
52722W        W 8963  19.029  19.842  18.233  0.0925 -0.1511 -0.3564
52723W        W 8964  22.454  12.478   2.976 -0.1875  0.0026  0.1967
52724W        W 8965  10.304  21.796  25.841  0.1676  0.0218  0.1994
52725W        W 8966   7.662   1.631  23.691 -0.0080 -0.0989 -0.0087
52726W        W 8967  16.961   7.539   8.001 -0.1063 -0.2920  0.1770
52727W        W 8968  14.535   9.307  22.515  0.1610 -0.2094 -0.0195
52728W        W 8969   3.911   2.118   4.470  0.5204  0.1467  0.1469
52729W        W 8970  23.569  10.633   4.319 -0.1439  0.0100 -0.1457
52730W        W 8971  15.360  24.960  13.826  0.2570 -0.0415  0.3059
52731W        W 8972  32.442   1.737   3.683 -0.0114 -0.1155  0.0544
52732W        W 8973  17.129  12.725   7.769  0.1149 -0.1907 -0.3214
52733W        W 8974  13.734   2.510  11.171  0.3440  0.4490 -0.2084
52734W        W 8975  33.797  11.754  24.368 -0.1647  0.0727  0.0141
52735W        W 8976   7.354   4.673  12.105 -0.0800 -0.0204  0.2135
52736W        W 8977  34.859  28.590  16.072 -0.1423  0.2898 -0.1875
52737W        W 8978  24.680   9.578  24.846 -0.0231  0.0788 -0.0104
52738W        W 8979  17.391  22.828   0.895 -0.4781  0.1339  0.0760
52739W        W 8980   1.804  30.615  25.732 -0.0080 -0.0688  0.0859
52740W        W 8981   1.308  18.658  25.727  0.1079 -0.1439  0.1283
52741W        W 8982  29.266  15.171   6.062  0.1016  0.1536  0.1526
52742W        W 8983  29.098  26.148   8.592  0.1819  0.0409 -0.2514
52743W        W 8984   0.503  27.313  16.412 -0.1454  0.0825  0.0418
52744W        W 8985  28.594   4.068   5.588  0.0214  0.0816 -0.1055
52745W        W 8986  33.791  15.166  18.642 -0.1593 -0.2941 -0.2240
52746W        W 8987  32.590  24.357  23.235 -0.1005 -0.2502 -0.3105
52747W        W 8988  23.852   6.745   3.732  0.2214  0.1569 -0.1640
52748W        W 8989  23.830  22.360  14.150  0.1774  0.1952  0.2145
52749W        W 8990   0.973  21.948   9.902  0.1861  0.3831  0.2501
52750W        W 8991  22.307  28.075  14.350  0.0944 -0.2522  0.0755
52751W        W 8992  24.970  16.023  22.242  0.0670  0.2882 -0.2080
52752W        W 8993  27.653   0.416   2.420 -0.1162 -0.0561 -0.0017
52753W        W 8994  32.787  32.489   5.602 -0.0643 -0.2537 -0.2150
52754W        W 8995   8.795   7.857   4.326 -0.0336  0.3782  0.1234
52755W        W 8996  16.156  32.755  23.476  0.1435  0.1503  0.1058
52756W        W 8997   8.466  34.590  14.874  0.1621 -0.0570  0.0829
52757W        W 8998  33.985   5.205  22.755  0.0737  0.0125  0.1265
52758W        W 8999  11.978   1.537   6.636 -0.0361 -0.2376  0.2547
52759W        W 9000  24.799  14.722  17.255  0.2492  0.1623 -0.5276
52760W        W 9001  11.077  24.932  14.707  0.4093 -0.1409 -0.0885
52761W        W 9002   4.620   7.031   6.676  0.0125 -0.1160  0.2484
52762W        W 9003  12.136  21.637   5.938  0.0849 -0.2452 -0.1203
52763W        W 9004  24.415   8.684  21.165 -0.0138  0.4026  0.1635
52764W        W 9005  18.142  28.982  19.460 -0.2028  0.2939 -0.1053
52765W        W 9006   5.352   5.105   5.820  0.2594 -0.0678 -0.1912
52766W        W 9007   5.785  31.046   2.041  0.1600 -0.2881 -0.2214
52767W        W 9008  15.356  28.466   4.517  0.0700 -0.2021  0.0733
52768W        W 9009  16.782   2.284  10.186 -0.1964 -0.1949  0.1487
52769W        W 9010   8.219   4.107   6.222 -0.0970 -0.0635 -0.3212
52770W        W 9011   5.338  18.144  24.426  0.0040  0.1760  0.2441
52771W        W 9012  17.091  33.012  18.965  0.0891  0.1194 -0.0276
52772W        W 9013   8.209  33.138  13.065 -0.3177 -0.1174  0.1631
52773W        W 9014  16.436  26.365   5.532  0.0720 -0.2259 -0.1866
52774W        W 9015   3.885  19.409  15.199 -0.0551 -0.5349  0.0073
52775W        W 9016  27.265   2.413   4.563 -0.0517  0.0659 -0.4393
52776W        W 9017   9.204  31.905   4.312  0.0540 -0.0527  0.3740
52777W        W 9018   1.355  16.778  15.922  0.1993  0.0270  0.2104
52778W        W 9019   4.180  17.314  17.838 -0.1856  0.2852 -0.0987
52779W        W 9020  26.355   0.103  18.687 -0.1494 -0.1295 -0.0272
52780W        W 9021  12.780   9.611   3.120 -0.0435 -0.2916  0.0286
52781W        W 9022  30.022  30.938   0.163  0.1499  0.2110 -0.0500
52782W        W 9023  15.005  30.286   6.290 -0.0910 -0.1860 -0.0955
52783W        W 9024   5.131  18.784  18.735 -0.1550 -0.3271  0.0427
52784W        W 9025  19.187   5.831   4.541 -0.3772 -0.2256 -0.1510
52785W        W 9026   8.897   6.101  19.922 -0.2470 -0.0234  0.0991
52786W        W 9027  29.579  19.118  24.782  0.0228  0.0309 -0.2657
52787W        W 9028   3.721  33.610   0.213  0.0535 -0.1599 -0.1411
52788W        W 9029  13.957  12.853   5.468  0.1209  0.0987  0.3392
52789W        W 9030  32.409  14.526  20.264  0.5025 -0.0434  0.0740
52790W        W 9031  34.125   2.056  15.462  0.2863 -0.0821  0.2698
52791W        W 9032   8.408  28.991   1.896  0.1783  0.1425 -0.1287
52792W        W 9033  29.465   7.478  11.786 -0.1905  0.0810  0.1137
52793W        W 9034  21.459   1.015  16.192  0.3330 -0.0539 -0.1282
52794W        W 9035  18.657   1.268   8.888 -0.0040 -0.0769  0.0491
52795W        W 9036  26.735  24.959  21.231 -0.2871  0.1921 -0.0883
52796W        W 9037  24.058  15.911   0.647  0.1062 -0.1759 -0.1326
52797W        W 9038   0.174  25.266  24.145  0.1013  0.1253  0.2476
52798W        W 9039  19.171  19.178  21.429  0.1474 -0.0094 -0.0705
52799W        W 9040   9.468   4.999   9.749 -0.1680 -0.0318 -0.1401
52800W        W 9041   7.969   4.861  22.431 -0.0307 -0.0079  0.0768
52801W        W 9042  32.004   0.540  12.384  0.2713 -0.1354  0.1912
52802W        W 9043  13.700  12.885   7.326 -0.0093  0.4196  0.0730
52803W        W 9044   7.826  15.926   8.741  0.0187  0.0052  0.2944
52804W        W 9045  19.407  28.027  18.625  0.0824  0.3256 -0.0644
52805W        W 9046  17.959  14.233  22.801  0.0519  0.0418  0.3063
52806W        W 9047  32.279  22.362  11.279 -0.2776  0.0385  0.0290
52807W        W 9048   0.549   7.587   1.478  0.1516  0.0225  0.0330
52808W        W 9049  16.662  22.009  14.487  0.2502 -0.0923 -0.1110
52809W        W 9050  25.872   1.497  25.533  0.0328 -0.1799 -0.4188
52810W        W 9051  21.143  32.119   6.047  0.2514  0.2591  0.0600
52811W        W 9052  29.309  33.549   4.608  0.3722 -0.3668 -0.1359
52812W        W 9053  13.449  25.755   4.743  0.2829 -0.0238 -0.2539
52813W        W 9054  16.004  13.298  13.593  0.2660  0.0308  0.0666
52814W        W 9055   3.225  16.171  20.784 -0.2874 -0.0410 -0.1214
52815W        W 9056  28.959  22.596   7.260  0.0168  0.0266  0.2276
52816W        W 9057  32.837   1.503   0.156  0.1662  0.2556  0.1428
52817W        W 9058  29.594   1.142   5.234  0.1396  0.0421 -0.3014
52818W        W 9059  11.411  14.898  11.469 -0.0334 -0.3040 -0.1433
52819W        W 9060   6.611  20.214   1.882  0.4646  0.1765 -0.0143
52820W        W 9061  10.850   7.562  19.496  0.1473 -0.1537  0.1403
52821W        W 9062  27.155  23.564  13.431  0.1931 -0.1024 -0.0361
52822W        W 9063  15.798  24.238  12.902  0.0059 -0.0697 -0.1504
52823W        W 9064  27.406  34.228   0.578 -0.1196  0.0917 -0.1657
52824W        W 9065  22.080  27.617  24.558 -0.2274 -0.0795 -0.1495
52825W        W 9066  17.146   5.815   0.376 -0.1355 -0.0220 -0.0950
52826W        W 9067   2.903  30.263   8.440  0.1464  0.1139  0.0340
52827W        W 9068  18.120  16.557  22.255  0.0625  0.2382  0.1516
52828W        W 9069  33.266  13.306   7.783  0.1243  0.3938  0.2645
52829W        W 9070   7.693  33.442  20.298 -0.1001 -0.0124  0.0936
52830W        W 9071  11.580  24.822   0.697  0.1433  0.4046  0.0705
52831W        W 9072  32.847   3.617  18.982 -0.1028 -0.2398 -0.0704
52832W        W 9073  26.429   8.916  21.906  0.0546 -0.2311  0.3900
52833W        W 9074  34.008  27.482  24.589 -0.0349 -0.0610  0.0131
52834W        W 9075  31.358  32.337  18.396  0.1953  0.0386 -0.2547
52835W        W 9076  26.734  27.616  19.823  0.2063 -0.1329 -0.0241
52836W        W 9077  18.824  33.710  16.598  0.1982 -0.0634  0.0421
52837W        W 9078  16.484  12.223  21.718  0.0804 -0.0993 -0.0771
52838W        W 9079  18.011  22.508  24.628 -0.1462  0.1548 -0.0403
52839W        W 9080  33.126  10.629  15.683 -0.3207  0.2715 -0.0905
52840W        W 9081   4.401   4.233   6.284 -0.0465  0.0900 -0.2494
52841W        W 9082  24.652  14.266  18.913  0.1219  0.2751  0.5197
52842W        W 9083  14.071  19.291  22.335 -0.4088  0.1673  0.2629
52843W        W 9084  15.158  25.248   8.246 -0.0390  0.3351 -0.1492
52844W        W 9085  15.864  23.344  25.060 -0.3332 -0.0487  0.0786
52845W        W 9086  34.079  12.398   1.356  0.0678  0.1621  0.0116
52846W        W 9087  34.114  18.434  13.984 -0.0248  0.1709 -0.1008
52847W        W 9088  27.952  24.519  13.036 -0.1131 -0.1035 -0.0591
52848W        W 9089   9.248  11.837  21.097 -0.0406  0.1764  0.2941
52849W        W 9090  25.051  24.971  11.312  0.0639 -0.0323 -0.2435
52850W        W 9091  34.837   9.741  19.993 -0.1572  0.2138  0.4533
52851W        W 9092   9.208  27.738  23.974  0.1088  0.1952  0.3694
52852W        W 9093  12.973  18.493  11.696  0.0061  0.3799 -0.0743
52853W        W 9094  11.674  10.235   3.130  0.2134  0.0736  0.1352
52854W        W 9095   2.874   1.724   7.690 -0.2329  0.0511  0.2338
52855W        W 9096  28.356  14.346   9.777  0.0033  0.0450  0.2024
52856W        W 9097  32.669  31.413   3.717  0.0798  0.0937  0.1542
52857W        W 9098  22.129  23.092  17.134  0.1440  0.2265 -0.1590
52858W        W 9099   4.627  18.403  22.682 -0.0029  0.1502 -0.1786
52859W        W 9100  22.969   9.660  24.462  0.3426 -0.1823  0.2088
52860W        W 9101  24.007   4.083  19.620 -0.1377 -0.1106 -0.1513
52861W        W 9102  30.606   2.909   3.490  0.4725  0.0051  0.0297
52862W        W 9103  16.556  21.168   5.312 -0.0849 -0.0861  0.1448
52863W        W 9104  10.483  29.370  24.280 -0.2399  0.4328  0.1914
52864W        W 9105  23.899  34.465  19.574 -0.0935 -0.0076  0.3658
52865W        W 9106   9.000  26.393   0.107  0.0738 -0.1381  0.1003
52866W        W 9107  14.552   1.945  21.044  0.0377 -0.0870 -0.0266
52867W        W 9108  12.282   8.380   9.834 -0.0225 -0.0904 -0.0161
52868W        W 9109  10.772  25.228  25.987  0.0806 -0.1069  0.2611
52869W        W 9110   0.343  10.010  13.714 -0.1882  0.0544 -0.0692
52870W        W 9111  20.669  13.065  18.767  0.0276  0.1583  0.0878
52871W        W 9112  24.752   0.806  17.925  0.0824 -0.2313  0.0493
52872W        W 9113  25.772  30.398  15.794  0.3105 -0.0215 -0.0744
52873W        W 9114  14.409  30.053  10.688  0.0088  0.3559 -0.1168
52874W        W 9115  12.875   6.537   4.851  0.4413  0.3697  0.0914
52875W        W 9116   7.785   3.477  19.209  0.2277 -0.0212  0.3477
52876W        W 9117  23.090  13.767  25.816  0.0195 -0.0869 -0.0183
52877W        W 9118  28.291   8.597  22.393 -0.1142  0.1473  0.5087
52878W        W 9119   7.826   2.714  21.913  0.1016  0.0610  0.0332
52879W        W 9120  15.838  19.476   4.457 -0.0277 -0.0581  0.0531
52880W        W 9121  11.372  14.573   4.146  0.0376 -0.1653  0.0038
52881W        W 9122  22.526   2.610  23.364  0.0742  0.1135  0.1338
52882W        W 9123  17.883   6.224   5.380  0.1434 -0.2803  0.2885
52883W        W 9124   6.633  12.490   6.067 -0.4849 -0.0177  0.1401
52884W        W 9125  27.796  14.840  16.182  0.0807  0.0323 -0.3576
52885W        W 9126  31.355   4.872  21.675 -0.2652 -0.4032 -0.1260
52886W        W 9127   5.493  27.360  23.924 -0.0934 -0.0277 -0.0253
52887W        W 9128  34.301   5.721  19.797  0.4470  0.0866  0.1144
52888W        W 9129  24.948  16.526  23.567  0.0669  0.2403 -0.2174
52889W        W 9130  19.973  31.584  18.553  0.0466  0.3076  0.0301
52890W        W 9131  24.334  30.134  22.497 -0.0523 -0.1013  0.1961
52891W        W 9132  12.537  21.366  16.364 -0.1979  0.5332  0.1121
52892W        W 9133  10.094  12.568   2.877 -0.0909 -0.1983 -0.0839
52893W        W 9134  18.759  33.356  25.438  0.1958 -0.0743  0.2008
52894W        W 9135  20.327   5.514   7.480 -0.0586  0.1642 -0.2623
52895W        W 9136  19.135  23.435   9.380  0.3205 -0.1326 -0.2119
52896W        W 9137  17.911   6.533   6.890 -0.0290 -0.0677  0.0125
52897W        W 9138  19.545   3.755  17.422  0.1756 -0.2309  0.0655
52898W        W 9139  13.450  28.046  23.137  0.2320  0.2271 -0.2151
52899W        W 9140   7.960   2.129   8.485 -0.1610 -0.1225 -0.1812
52900W        W 9141  21.337  26.339   6.105  0.0503 -0.2967  0.0247
52901W        W 9142  35.044  26.503  24.346  0.1669  0.3668  0.2143
52902W        W 9143  12.713  29.631   7.649  0.0288  0.1748  0.3374
52903W        W 9144   3.008  23.906   5.767  0.1964 -0.0559  0.1366
52904W        W 9145  22.494  15.225  17.677 -0.1661  0.6019  0.1359
52905W        W 9146  30.294  14.639  20.927 -0.0760 -0.2294 -0.3701
52906W        W 9147  12.998  22.882   2.341  0.2235  0.2880  0.1228
52907W        W 9148   8.798   5.777   9.054  0.1421 -0.0881  0.0801
52908W        W 9149   5.738  23.334  25.029  0.1824  0.0994  0.2341
52909W        W 9150  31.261  24.836  25.456  0.0129  0.1568 -0.4309
52910W        W 9151  25.460   0.293  17.708  0.2890 -0.0302  0.0631
52911W        W 9152  18.957  17.604  19.351  0.0884 -0.0458  0.0365
52912W        W 9153  34.554   4.899  25.660  0.0078  0.0166 -0.0482
52913W        W 9154  23.036   5.063  17.619  0.1924 -0.1603 -0.3729
52914W        W 9155  25.154  14.021  22.365  0.1023  0.0621  0.0590
52915W        W 9156  18.435  19.525  24.390 -0.2449 -0.2201 -0.2242
52916W        W 9157  20.830  30.773   2.278 -0.2724  0.2192  0.1766
52917W        W 9158  17.860   8.482  11.027  0.0968  0.0921  0.1197
52918W        W 9159  22.029  11.305  17.666  0.1541 -0.2819  0.4019
52919W        W 9160  25.664  26.743  11.429  0.0451  0.1306  0.1549
52920W        W 9161  34.460  11.629  14.242 -0.0409 -0.1135  0.0524
52921W        W 9162  22.594  32.955   0.143  0.2907  0.0945 -0.5153
52922W        W 9163  20.396  10.026   5.679 -0.5827  0.0610 -0.0086
52923W        W 9164  22.833  20.782   3.443  0.2252 -0.4330  0.1006
52924W        W 9165  31.343  22.670   9.245 -0.0307  0.1715  0.0053
52925W        W 9166  18.370  18.450  25.526 -0.4789  0.4435  0.0792
52926W        W 9167  32.332   3.849  24.665 -0.3659  0.2290 -0.0487
52927W        W 9168  25.891  11.865   8.968 -0.0491 -0.1274  0.7503
52928W        W 9169  10.794  27.528   0.837  0.0735  0.0745  0.1665
52929W        W 9170  10.888  29.402  12.141 -0.0715 -0.1160  0.0966
52930W        W 9171  18.158  15.929   7.734 -0.0594 -0.0068 -0.3853
52931W        W 9172  31.075   9.642  22.254  0.2740 -0.0972 -0.0692
52932W        W 9173  15.522   1.092  20.147  0.0007  0.1272  0.0803
52933W        W 9174  33.809   4.716   0.416  0.2044 -0.0680 -0.1792
52934W        W 9175  24.466  25.994  23.275 -0.2881 -0.1506 -0.2938
52935W        W 9176  34.181  15.957   9.520 -0.1687 -0.1926 -0.2537
52936W        W 9177  26.567   8.411  15.760 -0.2871  0.1138 -0.0009
52937W        W 9178  19.392   9.765  24.428 -0.1450  0.2387  0.1487
52938W        W 9179  30.749  30.687  19.428  0.1255 -0.1399  0.0662
52939W        W 9180  27.639  12.477   7.428  0.1054  0.0962  0.2403
52940W        W 9181   1.263  21.412  22.223 -0.4987 -0.0166 -0.0759
52941W        W 9182  27.194  13.688  21.205  0.3613  0.0051 -0.0169
52942W        W 9183  26.372  22.638  14.362  0.1690  0.1014 -0.0067
52943W        W 9184  22.079  18.838   0.478 -0.1962 -0.3205 -0.3319
52944W        W 9185   6.763  35.138   0.891  0.0628 -0.0487 -0.0089
52945W        W 9186   8.579   6.712  20.493 -0.2539 -0.0262  0.0989
52946W        W 9187   3.254  11.159  18.829 -0.3747  0.1020 -0.3362
52947W        W 9188  16.828  12.766  24.059 -0.2764 -0.1100  0.0874
52948W        W 9189  14.733  13.370   0.809  0.0974 -0.1605  0.2514
52949W        W 9190  29.888  17.283  21.704 -0.1139  0.1245  0.3408
52950W        W 9191  11.382  34.448  21.085  0.0086  0.1489 -0.1525
52951W        W 9192  31.578   0.281  16.544 -0.1479  0.2510  0.0477
52952W        W 9193   5.481  10.783  23.965  0.0015  0.0874  0.0906
52953W        W 9194  25.982  19.165   9.707 -0.1307 -0.0318  0.0544
52954W        W 9195  11.336  12.795  19.821  0.3729  0.0899 -0.1031
52955W        W 9196  24.092  22.040  24.808 -0.2340  0.0319 -0.4066
52956W        W 9197  30.708  14.450  12.043 -0.0160  0.0996 -0.0231
52957W        W 9198  30.922  24.775  14.405 -0.1983  0.0816  0.0225
52958W        W 9199   0.266  26.551  24.370 -0.1358  0.0588  0.3680
52959W        W 9200  27.089   0.818  18.576 -0.0533 -0.0118  0.0671
52960W        W 9201  25.856  31.334  22.642  0.1970  0.0247 -0.2461
52961W        W 9202   1.142  15.009  19.166  0.1705 -0.0065  0.3291
52962W        W 9203  12.159  23.055  22.637  0.0255 -0.0358  0.1045
52963W        W 9204  28.444  20.166  24.584  0.1893  0.0227 -0.1127
52964W        W 9205  26.623  16.421   6.796 -0.3204  0.1270  0.0337
52965W        W 9206   2.890  29.800  23.807 -0.2409 -0.0375 -0.0220
52966W        W 9207  17.055   7.203  21.925 -0.2592  0.0565 -0.0791
52967W        W 9208   5.358   6.191   6.671  0.0049  0.1745 -0.0935
52968W        W 9209   1.851  19.460   0.581 -0.2739  0.3320 -0.5173
52969W        W 9210  31.055   4.583  23.374  0.0236  0.1111  0.1194
52970W        W 9211   7.115  23.380  12.706 -0.1851 -0.0711  0.3050
52971W        W 9212  15.191  15.349   1.141 -0.0599  0.3529  0.0743
52972W        W 9213  25.461  12.645  17.608 -0.2859 -0.0477  0.2975
52973W        W 9214   1.916   3.947  14.609  0.2649 -0.2698 -0.1597
52974W        W 9215   4.946  14.304   0.378  0.0977 -0.3972 -0.0210
52975W        W 9216  26.792  13.052  19.379  0.2953 -0.0136 -0.1495
52976W        W 9217  16.681  14.583  21.895 -0.2392  0.0265 -0.0882
52977W        W 9218   6.705  25.439  21.492  0.1091  0.3478  0.2814
52978W        W 9219  19.061  32.163  25.519  0.2915 -0.0036 -0.2486
52979W        W 9220  30.928   7.051   9.677  0.3268 -0.0545  0.0509
52980W        W 9221  12.244  32.301  23.563 -0.1776 -0.0447 -0.1467
52981W        W 9222  29.780   7.588  23.630 -0.0180 -0.2188  0.0102
52982W        W 9223  13.658  27.037  10.984 -0.0357 -0.3544  0.1709
52983W        W 9224  11.512  18.915  25.691  0.0156 -0.2933  0.4805
52984W        W 9225  16.899  18.845  25.620  0.0118  0.0575 -0.0763
52985W        W 9226  21.698  12.268  24.401 -0.2283  0.0305 -0.0020
52986W        W 9227  15.370  22.155  11.756 -0.1721  0.1936  0.0731
52987W        W 9228  31.582  33.380  21.135 -0.0736 -0.0465  0.0473
52988W        W 9229   4.359  24.304   3.648 -0.4130  0.1679  0.3270
52989W        W 9230   0.583  31.182  23.448 -0.0235  0.2089  0.0576
52990W        W 9231   0.291  30.224  17.902  0.3904 -0.1605  0.1025
52991W        W 9232  28.361  14.218   6.207 -0.1575  0.1840 -0.0663
52992W        W 9233   6.763  18.243   9.221  0.3313  0.0601 -0.2477
52993W        W 9234  30.641  21.894  21.097 -0.2134  0.2035 -0.1541
52994W        W 9235  35.307   0.864  20.058 -0.1295  0.2102 -0.1058
52995W        W 9236   9.922  16.375   4.678 -0.2146  0.1371 -0.1296
52996W        W 9237  21.088   8.465  22.153  0.1881  0.0220 -0.1087
52997W        W 9238   4.612   5.841   7.056  0.1000  0.0537 -0.3224
52998W        W 9239  16.512   7.649  20.661  0.1695  0.1251  0.1049
52999W        W 9240   6.818   5.719   0.928 -0.1350  0.0253  0.3016
53000W        W 9241  18.167   6.069  10.484 -0.0080  0.0911  0.2309
53001W        W 9242   5.750  13.980  19.937  0.2137 -0.1067  0.0604
53002W        W 9243  23.762   4.607  16.065  0.2215  0.1072  0.0707
53003W        W 9244  31.598   9.250  20.837  0.1041 -0.1257 -0.1728
53004W        W 9245  24.531  23.537   1.429  0.0743  0.1188 -0.0169
53005W        W 9246  27.813  31.783  18.058  0.3172  0.0831 -0.3130
53006W        W 9247  25.883  13.522  20.892  0.2605  0.1934 -0.2911
53007W        W 9248  19.512   5.047  22.753 -0.0785 -0.0025  0.1852
53008W        W 9249   6.588   1.770  12.400 -0.1236  0.0722  0.2501
53009W        W 9250   3.245   2.128   7.245  0.1798  0.2913  0.0802
53010W        W 9251   4.644  24.245   4.070 -0.0989 -0.1327  0.2903
53011W        W 9252  17.981   9.796  25.715 -0.3660 -0.2295 -0.0408
53012W        W 9253   9.783  30.481   8.890  0.1231  0.4738 -0.3473
53013W        W 9254  24.380   7.735  17.802  0.0311  0.0111  0.1920
53014W        W 9255  11.100  17.612   1.648  0.3105 -0.2929  0.1198
53015W        W 9256   1.201  18.092  23.325 -0.1035 -0.0930 -0.1809
53016W        W 9257  13.701  28.474   7.224 -0.0525 -0.0347  0.1583
53017W        W 9258  34.943  16.355  16.557 -0.0594 -0.2452  0.0508
53018W        W 9259  15.610   1.996   5.854  0.1432  0.4552  0.0422
53019W        W 9260  25.201  24.664  21.092 -0.0440 -0.0276 -0.4540
53020W        W 9261  11.896  23.057  15.252 -0.3263  0.0210  0.1531
53021W        W 9262  15.788  12.268   3.372  0.0498 -0.0192  0.1209
53022W        W 9263   7.590  23.488   7.467 -0.3995 -0.0799 -0.0299
53023W        W 9264  29.471  14.367  18.454  0.0368 -0.0003  0.2819
53024W        W 9265  29.320  15.831  24.235 -0.0965  0.0548  0.0475
53025W        W 9266  30.266   0.276  13.713  0.0687  0.4432  0.0280
53026W        W 9267  14.460  18.335   3.837 -0.0579 -0.1745  0.1292
53027W        W 9268  15.126  20.084   3.954 -0.3657  0.3365 -0.2602
53028W        W 9269  13.619   2.753  24.224 -0.0721  0.1094  0.0360
53029W        W 9270  28.746  14.223   7.625  0.1108  0.0082 -0.1620
53030W        W 9271  28.841  30.362   0.667 -0.0332  0.0590 -0.0619
53031W        W 9272  28.011   0.306  20.043 -0.3280 -0.0056  0.1810
53032W        W 9273  22.046   9.078  17.217  0.0861 -0.4356 -0.2818
53033W        W 9274   6.104  30.507   2.002 -0.2969  0.0709 -0.1821
53034W        W 9275  20.306   1.218  25.099  0.0078  0.0561 -0.3312
53035W        W 9276   9.360  16.651  20.283  0.0247 -0.0734  0.0792
53036W        W 9277   2.469   3.801   1.844  0.0357 -0.1862  0.3508
53037W        W 9278  17.433  15.819   3.726 -0.1333 -0.0673  0.1334
53038W        W 9279  16.939  12.713  23.332 -0.2250  0.1693  0.0649
53039W        W 9280   7.271  15.360  23.263 -0.2826 -0.2114 -0.3666
53040W        W 9281  15.529   9.697  12.967 -0.1470  0.0802  0.0725
53041W        W 9282  32.562  34.714   3.582  0.3703  0.2673 -0.3606
53042W        W 9283  14.774  31.562  25.069 -0.0210  0.0758 -0.3243
53043W        W 9284  32.114   7.041   0.005  0.1519 -0.0743  0.0470
53044W        W 9285  27.829   2.719   1.524  0.0966  0.3041  0.2779
53045W        W 9286  17.988   1.375   3.332  0.0503  0.3883 -0.2284
53046W        W 9287  26.821  34.054   5.193  0.2815 -0.2402  0.1778
53047W        W 9288  21.305  28.975   6.660 -0.1085 -0.1596 -0.0906
53048W        W 9289  18.134   3.993  21.649  0.1112 -0.0552 -0.2510
53049W        W 9290  16.906  18.611  22.771  0.0719 -0.1523  0.0179
53050W        W 9291  16.055  17.705  24.699 -0.1444  0.2054 -0.0383
53051W        W 9292   1.474  35.104  18.549 -0.1847  0.0110 -0.0727
53052W        W 9293   8.532  17.465   1.642  0.1070 -0.0031  0.1004
53053W        W 9294   1.435  30.565  22.140 -0.1402  0.0527  0.2125
53054W        W 9295  11.841  13.543  13.174 -0.2082  0.1296 -0.0425
53055W        W 9296  21.029  30.677   6.691  0.1273 -0.1530  0.0734
53056W        W 9297  17.439   1.338  17.088 -0.0229  0.3390  0.0396
53057W        W 9298  27.780  19.779  17.057 -0.1227 -0.1214  0.1279
53058W        W 9299  13.119  16.031   4.759  0.0839 -0.1518  0.0621
53059W        W 9300  12.394  25.053  12.578 -0.1935  0.0640 -0.1272
53060W        W 9301  17.318  10.177   0.509  0.2036  0.0600 -0.0058
53061W        W 9302  14.547  22.082  10.639 -0.3416 -0.2300 -0.1775
53062W        W 9303   8.046  17.429   1.340 -0.1270 -0.0549  0.0134
53063W        W 9304   7.029  33.199   4.181 -0.0578 -0.1297 -0.0769
53064W        W 9305   9.616  15.440  11.600 -0.0927  0.3523 -0.0325
53065W        W 9306  19.858   3.414  25.578 -0.0626 -0.3133 -0.2303
53066W        W 9307  27.533   0.638  22.395  0.3977  0.3181  0.3867
53067W        W 9308  33.849  27.913   5.067 -0.0574  0.3699  0.0844
53068W        W 9309   2.368  18.635   2.031  0.1794 -0.0458  0.2162
53069W        W 9310   9.363  18.210   4.070 -0.0924 -0.0484  0.0040
53070W        W 9311  10.548  10.146  24.256  0.1385  0.0925  0.3620
53071W        W 9312   8.276  26.991   6.007 -0.0494  0.2371  0.1644
53072W        W 9313  15.994  16.753   5.781 -0.1325 -0.3872 -0.1088
53073W        W 9314  11.009  26.258   8.154 -0.0840  0.0070 -0.2560
53074W        W 9315   4.887   3.413   5.213 -0.0018  0.0249  0.3549
53075W        W 9316  28.563   3.950  13.316 -0.2060 -0.2160  0.1621
53076W        W 9317  21.770   1.782  17.390 -0.1734 -0.0945  0.1466
53077W        W 9318  24.337  18.319  25.149  0.4620  0.1006  0.0305
53078W        W 9319   5.566   7.593   7.749 -0.3512  0.0792 -0.1116
53079W        W 9320  13.703   2.550  25.258  0.0283  0.1117 -0.0337
53080W        W 9321  19.595   0.705  20.693 -0.1745  0.4318  0.0659
53081W        W 9322   9.025  23.797   0.307 -0.3336  0.2179  0.0500
53082W        W 9323  33.275  28.764   6.021 -0.1000 -0.0628  0.0776
53083W        W 9324  24.711  27.715  19.776  0.1561  0.2318 -0.3396
53084W        W 9325  27.084  13.925  26.190 -0.2507  0.1403 -0.1356
53085W        W 9326  20.247   4.285  22.684  0.1030 -0.1614  0.0834
53086W        W 9327  12.761  30.361   0.545  0.1326 -0.1637  0.0365
53087W        W 9328  19.151   2.300   2.706 -0.1823 -0.1986 -0.1972
53088W        W 9329  11.854  26.279  16.058  0.2612 -0.0776  0.1784
53089W        W 9330  31.977   0.543  19.363  0.0036 -0.0703 -0.1361
53090W        W 9331  20.178  10.652  23.818  0.1956  0.1124 -0.1560
53091W        W 9332  15.216  18.817  23.876  0.1071 -0.0267  0.1668
53092W        W 9333  13.217   2.941  22.056 -0.0413 -0.2848  0.3372
53093W        W 9334  10.239  18.261  13.795  0.0876  0.1832  0.1564
53094W        W 9335  34.663  29.668  18.744 -0.2908 -0.0078 -0.4049
53095W        W 9336   0.715  18.445   7.856  0.2854  0.0192  0.1340
53096W        W 9337  12.688   6.136   9.513 -0.0136  0.1244 -0.1366
53097W        W 9338  27.191   8.473  12.861 -0.1188  0.1501  0.2021
53098W        W 9339   4.973   0.694  18.462  0.0443  0.0738 -0.0721
53099W        W 9340  22.796  22.676   2.635  0.1983  0.3043 -0.4095
53100W        W 9341  10.303   4.363   5.242  0.0020 -0.1094  0.0705
53101W        W 9342  27.329  15.856  14.088  0.2488 -0.1225  0.1934
53102W        W 9343  18.480  34.394   0.262  0.2132  0.0040 -0.1135
53103W        W 9344   3.137  22.040  25.390 -0.2828  0.0009 -0.3643
53104W        W 9345  32.353  35.156   2.415  0.2092 -0.1132 -0.1462
53105W        W 9346  35.189  10.895   0.492  0.3035  0.1483 -0.1845
53106W        W 9347  28.930  30.773  12.815 -0.2174  0.1678 -0.2246
53107W        W 9348   8.619  30.074   0.398  0.2016 -0.0379  0.3855
53108W        W 9349  26.927   8.446  16.148 -0.1356 -0.0612 -0.1130
53109W        W 9350  28.034  28.035  14.530 -0.0885 -0.1839  0.0100
53110W        W 9351  34.761  35.180   1.103  0.1373  0.0299  0.0421
53111W        W 9352   1.955  30.124  26.024  0.0809  0.2090  0.0219
53112W        W 9353  33.089  33.560   2.071 -0.3736  0.2382  0.0272
53113W        W 9354  13.820  13.584  25.579 -0.0632 -0.1625  0.0429
53114W        W 9355   9.162  32.360   3.496  0.3097 -0.2130  0.1652
53115W        W 9356  26.079   7.564  26.064 -0.2146  0.1278 -0.5630
53116W        W 9357  29.077   9.630  14.408  0.0954 -0.0045 -0.3070
53117W        W 9358  33.570  31.470  17.648 -0.0272  0.1021  0.2669
53118W        W 9359   4.169  16.426  16.860  0.0594  0.2530 -0.1524
53119W        W 9360  22.471  19.963  20.678  0.0516  0.1399  0.2097
53120W        W 9361  11.496   3.636  20.468  0.0541  0.1035 -0.2912
53121W        W 9362  11.568   3.557  11.221 -0.1539  0.2533 -0.1748
53122W        W 9363  28.875  16.261  12.169  0.0178 -0.0952  0.2585
53123W        W 9364  13.453   2.213   2.124 -0.3375 -0.0524  0.0750
53124W        W 9365  27.473  29.197  25.437 -0.0960 -0.1310  0.0204
53125W        W 9366   2.111   7.103  17.410 -0.2474 -0.0557  0.0179
53126W        W 9367  31.441  32.434  22.645  0.0514  0.2577 -0.2845
53127W        W 9368   6.992  24.150   4.502 -0.0221 -0.2099  0.1103
53128W        W 9369  24.741  21.240  15.848 -0.2344 -0.1349 -0.2108
53129W        W 9370  30.136  33.809   5.524 -0.2179 -0.0279 -0.1537
53130W        W 9371  13.927   5.079  22.440  0.1083  0.0259  0.4684
53131W        W 9372   6.492  35.385  23.025  0.1918 -0.0959  0.3631
53132W        W 9373   6.720  11.854  21.331 -0.0820 -0.1677 -0.1355
53133W        W 9374  29.637  34.740  23.830  0.0570 -0.4129 -0.1993
53134W        W 9375  32.024   1.052  13.540 -0.1494  0.1457  0.1289
53135W        W 9376  15.407   3.332   7.409 -0.2925 -0.0888  0.0275
53136W        W 9377  34.325  26.171  12.936  0.2927  0.1766 -0.0157
53137W        W 9378  20.619   7.731   0.121 -0.3298  0.1092  0.0183
53138W        W 9379  12.547  19.889  12.421 -0.0120 -0.2363 -0.4679
53139W        W 9380   8.567  30.969   3.729  0.1148  0.0486  0.1603
53140W        W 9381  30.892  13.552   5.188 -0.0369  0.2087 -0.1976
53141W        W 9382  21.082  34.411  14.350  0.0454 -0.1580 -0.4089
53142W        W 9383  29.060  31.256  17.407 -0.4920 -0.1840  0.2344
53143W        W 9384  31.036  10.367  22.846  0.0920  0.2645 -0.0434
53144W        W 9385   8.250   1.892   1.980  0.3308 -0.1113 -0.3332
53145W        W 9386  29.056  11.213  23.985 -0.0119 -0.0358 -0.1692
53146W        W 9387  24.475  13.120  14.080 -0.0544  0.1662 -0.0115
53147W        W 9388  26.883  19.499  10.750  0.1479  0.0454 -0.2131
53148W        W 9389  31.644  16.568  25.253  0.2756  0.0232  0.0126
53149W        W 9390  20.415  35.314   4.588 -0.2963 -0.1156 -0.1747
53150W        W 9391   6.648  16.069   2.099 -0.0959 -0.3040  0.0401
53151W        W 9392  33.378   5.566  13.635 -0.2814 -0.0731  0.0937
53152W        W 9393   0.883  22.530  15.740 -0.3062 -0.0732  0.1393
53153W        W 9394  16.818  14.327   2.621 -0.0751 -0.1174  0.1271
53154W        W 9395   8.512  33.241  25.081 -0.0586  0.0010 -0.0719
53155W        W 9396  33.290  17.028  16.966 -0.1512  0.0991 -0.0547
53156W        W 9397   6.463  33.303  24.872  0.1561  0.0324  0.0222
53157W        W 9398   9.046   0.615   9.759  0.0449 -0.0300 -0.3447
53158W        W 9399  22.271   3.582   0.781  0.0479 -0.2622  0.0038
53159W        W 9400  14.665  10.197   5.157 -0.2949  0.2982  0.3455
53160W        W 9401  25.811  29.422  22.284  0.1133  0.1178  0.1490
53161W        W 9402  15.217   3.284   5.630 -0.1190  0.2087  0.1525
53162W        W 9403  20.386  25.141  18.146  0.2153  0.0437  0.0970
53163W        W 9404  14.769   5.399  12.142 -0.1775 -0.0568 -0.2806
53164W        W 9405   3.920   0.252   2.727  0.0092 -0.1830 -0.2699
53165W        W 9406  14.757  11.336  12.438 -0.1637  0.1265 -0.2819
53166W        W 9407  28.609  15.579  17.877  0.2182 -0.3085  0.0384
53167W        W 9408  10.110  31.756   2.839  0.0532 -0.2266 -0.3759
53168W        W 9409  21.859  10.766  17.028  0.2460 -0.0970  0.2164
53169W        W 9410   3.703  16.532  24.660  0.1957 -0.1036  0.0857
53170W        W 9411   5.189   3.648  17.936  0.0209  0.2909  0.1273
53171W        W 9412  13.013   4.009  19.961  0.0050 -0.1796 -0.0530
53172W        W 9413  31.825  23.316   0.239  0.2966  0.0625 -0.0493
53173W        W 9414  34.844  27.441   0.555  0.0492 -0.1963 -0.1284
53174W        W 9415  33.873   5.873  25.198  0.2577  0.3130  0.5555
53175W        W 9416   2.709   3.750  23.073  0.2134 -0.0393 -0.0296
53176W        W 9417  18.862  11.609  22.865  0.1390 -0.0469 -0.2276
53177W        W 9418  31.127  12.453  10.379  0.1393  0.0155 -0.2368
53178W        W 9419  23.584  27.149  15.191  0.0874 -0.1866  0.0309
53179W        W 9420   6.795   8.734   9.782  0.0459 -0.2546 -0.1176
53180W        W 9421  32.785   0.128   6.794  0.1737 -0.1596 -0.0663
53181W        W 9422  14.639  34.256   8.172  0.2984 -0.3000  0.2227
53182W        W 9423  34.927  34.643   7.628 -0.1520  0.2347  0.2999
53183W        W 9424  29.210  11.937  12.430 -0.0459  0.0485 -0.2705
53184W        W 9425  28.773  26.664  19.311 -0.0449  0.0824  0.0218
53185W        W 9426  17.017  14.380   6.918 -0.2804 -0.0710  0.2938
53186W        W 9427  30.014  20.727  19.927  0.2093  0.2155  0.0627
53187W        W 9428  32.312  29.110  19.460 -0.0060 -0.1274 -0.1589
53188W        W 9429  29.610  24.637  25.412  0.0837  0.0658  0.1863
53189W        W 9430   5.092   7.569  24.748  0.2698  0.3106  0.0549
53190W        W 9431  24.600  31.622   0.837  0.0213  0.4312  0.0860
53191W        W 9432  17.367  25.753   1.945 -0.1020  0.1968 -0.2321
53192W        W 9433  18.866  24.515   2.668  0.3474 -0.0995 -0.5131
53193W        W 9434  31.319  33.099   1.316 -0.0868  0.2053  0.1653
53194W        W 9435  32.105   4.712  20.373 -0.2311 -0.0749 -0.1399
53195W        W 9436  19.291   1.035   4.328  0.2065  0.0334 -0.1693
53196W        W 9437  33.017  22.318  17.271 -0.0308 -0.0615 -0.1479
53197W        W 9438   1.211   3.825  24.043 -0.0441 -0.1507  0.0952
53198W        W 9439  29.350  30.268  20.244  0.0252  0.2628  0.0979
53199W        W 9440  23.916   3.214  12.572  0.0065  0.0858  0.1097
53200W        W 9441   8.339  12.792   2.132 -0.2839 -0.2142  0.0682
53201W        W 9442  35.220  14.279  11.161  0.1299  0.0887 -0.0326
53202W        W 9443  27.155  20.825   8.583 -0.0574  0.1308 -0.2624
53203W        W 9444  10.040   3.020  14.648 -0.1078 -0.2500  0.3072
53204W        W 9445  31.893  20.283  22.303  0.1142  0.1162 -0.1363
53205W        W 9446  30.901   5.124   4.866 -0.2756 -0.0220 -0.0891
53206W        W 9447  29.354  16.246  15.545  0.1648 -0.5107  0.2223
53207W        W 9448  34.298  33.614  20.332 -0.0494  0.1447 -0.0655
53208W        W 9449  24.445  18.372  25.632 -0.1159  0.0473  0.0598
53209W        W 9450   1.105  19.483   0.502  0.1647  0.3889 -0.1444
53210W        W 9451   1.479  33.992  23.146  0.4133 -0.1245  0.1245
53211W        W 9452  16.721  32.304  25.534  0.3148  0.1381 -0.1848
53212W        W 9453  34.467   6.154  16.128  0.1023  0.2471  0.0993
53213W        W 9454   0.100  31.475  18.980 -0.0240 -0.1193 -0.1723
53214W        W 9455  17.362  21.761   3.441 -0.0803  0.1295 -0.0064
53215W        W 9456   7.035   5.883  11.382 -0.1401  0.0111  0.1212
53216W        W 9457  27.865  24.462  10.984 -0.0489 -0.2833 -0.5019
53217W        W 9458  30.696   3.888   3.557  0.0061 -0.0061 -0.1453
53218W        W 9459  25.411  20.216   8.786 -0.0623  0.0905 -0.4171
53219W        W 9460  23.819  31.676  13.916 -0.0315 -0.2147 -0.1603
53220W        W 9461  18.181  28.670  22.345 -0.1777  0.1541 -0.4038
53221W        W 9462  21.339  25.332  25.593 -0.3453  0.1647  0.1159
53222W        W 9463  35.256  30.601   1.633  0.1459  0.0396 -0.0753
53223W        W 9464   5.845   7.262   9.846 -0.0689  0.1219 -0.3407
53224W        W 9465   1.591  18.560  19.846  0.0221  0.0602  0.0110
53225W        W 9466  28.558  31.781   2.363  0.3410 -0.0887  0.0178
53226W        W 9467  12.264   4.916  12.327 -0.0347  0.3727  0.0081
53227W        W 9468  26.560  32.869  14.501 -0.2668  0.1933  0.2849
53228W        W 9469   8.606  29.530   2.871  0.3711  0.0036 -0.0244
53229W        W 9470   8.291   0.454   3.390  0.2055  0.0228  0.1008
53230W        W 9471  25.092  29.949  21.796  0.1918 -0.4952 -0.2435
53231W        W 9472  26.472   2.132   2.053  0.0038 -0.1726  0.1116
53232W        W 9473  10.616  19.362  12.910  0.1393 -0.2338 -0.0437
53233W        W 9474  19.072  15.521  18.404 -0.2202  0.2264 -0.0808
53234W        W 9475  10.587  13.734   2.146  0.2532  0.0707  0.2428
53235W        W 9476   0.350  27.918  15.075 -0.1774  0.0514 -0.0203
53236W        W 9477  22.589   3.062  17.684 -0.1190 -0.1932 -0.3099
53237W        W 9478   4.317  20.125   5.743 -0.1502  0.1185 -0.0160
53238W        W 9479   3.604   0.405  25.212  0.1323  0.2934 -0.0735
53239W        W 9480  28.526  21.332  20.453  0.1824  0.0656 -0.1446
53240W        W 9481   4.364   5.438   6.743  0.0876  0.0228 -0.1167
53241W        W 9482   4.074   5.193   2.314 -0.0647  0.1349 -0.1134
53242W        W 9483  27.711  21.860   7.009 -0.3209 -0.1261 -0.0333
53243W        W 9484  26.235  15.869   8.274  0.2193  0.0079  0.1641
53244W        W 9485  12.734  27.257  24.589  0.6174 -0.2225 -0.0951
53245W        W 9486  12.922  28.168  12.604  0.2696  0.0343  0.3690
53246W        W 9487  24.931   7.767   2.467 -0.0992 -0.2548 -0.4244
53247W        W 9488  28.129  27.073   0.110  0.1491 -0.4880 -0.3568
53248W        W 9489  15.940   4.064   5.787  0.0548  0.0585  0.0375
53249W        W 9490  31.001  32.592  14.796 -0.0656 -0.1635  0.1937
53250W        W 9491  24.934  26.985  20.005  0.3152 -0.1642 -0.0711
53251W        W 9492  30.762  14.319  14.703  0.1071 -0.0229 -0.2228
53252W        W 9493  32.608  24.258  25.313  0.2065  0.2601 -0.0281
53253W        W 9494  15.669  12.555   5.351  0.0230 -0.0233  0.5286
53254W        W 9495  30.683  21.294  20.507  0.0905 -0.0726  0.0414
53255W        W 9496  26.919   5.087  25.310 -0.3059 -0.4524 -0.0391
53256W        W 9497  30.262   1.053   1.721 -0.3087 -0.0029 -0.0106
53257W        W 9498   9.014  23.298   6.522 -0.1639 -0.1128 -0.1675
53258W        W 9499  19.403  26.931  23.907 -0.0564  0.2196 -0.2518
53259W        W 9500   6.581  10.449  18.970  0.1382  0.1172  0.0777
53260W        W 9501  27.317   2.505  17.752 -0.0793  0.2834 -0.1882
53261W        W 9502  24.972  13.387  17.055  0.1039  0.1523 -0.1994
53262W        W 9503   9.066   6.526  12.168  0.1999 -0.3700 -0.0673
53263W        W 9504  18.361  15.307   6.535 -0.1634  0.3399 -0.0837
53264W        W 9505  28.111  21.629  10.060  0.2512  0.1906 -0.1452
53265W        W 9506  29.625   0.904  19.286  0.0948  0.0606  0.2397
53266W        W 9507  31.519  13.531   5.975 -0.1912  0.0267  0.1649
53267W        W 9508  15.113   1.553  21.367 -0.1969 -0.0800  0.2485
53268W        W 9509  15.623  15.111   9.358 -0.2412 -0.0409 -0.0858
53269W        W 9510  27.809  11.865  13.058 -0.0737  0.0565 -0.0413
53270W        W 9511  18.437  28.876  25.074  0.2500  0.0488  0.0812
53271W        W 9512  17.240  19.649   0.127  0.0079 -0.3272 -0.0416
53272W        W 9513  33.415   3.476  13.008  0.0226  0.1762  0.3997
53273W        W 9514  25.272  12.906  23.110  0.0511 -0.5499 -0.1383
53274W        W 9515  34.000  23.740  20.844  0.0881 -0.0107 -0.1313
53275W        W 9516  33.393  18.178   7.969  0.2986 -0.2058 -0.0126
53276W        W 9517   7.007  14.393  19.229  0.1152 -0.3965  0.0918
53277W        W 9518  23.316  21.724  12.808 -0.3719  0.5294 -0.0810
53278W        W 9519  32.988  14.171  19.186  0.1661  0.2863 -0.0107
53279W        W 9520  15.109  27.661  14.166  0.2463 -0.2725  0.0460
53280W        W 9521  19.536  25.268  19.738  0.1525  0.0273  0.1167
53281W        W 9522  12.334  12.445  25.797  0.0504 -0.0764 -0.3281
53282W        W 9523  18.032  12.349  22.023  0.2967 -0.1709  0.4472
53283W        W 9524  21.216  26.611  18.316  0.5848  0.3309  0.1013
53284W        W 9525  13.401  17.678  25.045  0.2856  0.0549  0.1823
53285W        W 9526  20.278  24.624  18.783  0.1083  0.0357 -0.0394
53286W        W 9527  10.295  16.013  23.886 -0.1513  0.0674  0.2423
53287W        W 9528  13.067   6.023  22.503 -0.0144  0.1659  0.0134
53288W        W 9529   2.620  32.709  10.696 -0.0379  0.1516 -0.1513
53289W        W 9530  35.204   5.350   3.911 -0.1086 -0.0891 -0.0919
53290W        W 9531  16.349  12.866   6.370 -0.1531  0.1150 -0.0123
53291W        W 9532   9.393   5.627  25.719  0.1344 -0.0034 -0.1403
53292W        W 9533   6.724  28.078   5.465  0.2356  0.1333 -0.0796
53293W        W 9534  23.168   5.525  15.425 -0.1783  0.0501  0.0586
53294W        W 9535  33.722  19.976  26.175  0.3266 -0.5283  0.1755
53295W        W 9536   8.713  18.655   1.085 -0.1639 -0.1037  0.1501
53296W        W 9537   4.902   6.310  20.926  0.1089  0.1303 -0.0223
53297W        W 9538  26.113  21.056   8.562  0.0149  0.0364 -0.2021
53298W        W 9539   3.058  17.320  19.365  0.0074 -0.1383  0.2287
53299W        W 9540  30.640   3.168  20.766  0.0908 -0.0170  0.0164
53300W        W 9541  13.824  18.859   9.581  0.0338  0.0876 -0.3493
53301W        W 9542  15.580   8.471  11.387 -0.2259  0.1174  0.0206
53302W        W 9543  16.063  30.708   6.522  0.0612  0.2319  0.1182
53303W        W 9544  33.876   9.407  20.685  0.0945  0.3427 -0.0658
53304W        W 9545  12.146  25.710  10.007  0.0692 -0.1702 -0.0100
53305W        W 9546  31.645  12.575  16.485  0.0653  0.0355 -0.1531
53306W        W 9547   0.214  28.605   5.481 -0.2362  0.1476 -0.0346
53307W        W 9548  20.918  22.870  24.650  0.0724  0.2012  0.4499
53308W        W 9549  18.966   0.377   6.860  0.0168  0.0257  0.0140
53309W        W 9550   7.136  29.907  15.180  0.2259 -0.0345  0.3769
53310W        W 9551   8.155   8.336   2.394 -0.1232  0.2353 -0.3877
53311W        W 9552  11.050  15.456  10.007  0.2075 -0.3358  0.1775
53312W        W 9553  25.547  12.519  11.274 -0.0347  0.0869  0.0088
53313W        W 9554  34.464   8.889  13.460  0.0714 -0.1607  0.0342
53314W        W 9555  15.481   1.916   7.377 -0.1748 -0.2267  0.0636
53315W        W 9556   7.580  24.752   7.388  0.1706  0.3312 -0.1592
53316W        W 9557  24.214   2.364  21.522  0.0849  0.0666  0.2553
53317W        W 9558   8.459   4.168   8.946  0.0493 -0.0007 -0.0617
53318W        W 9559  34.065  28.405  19.340 -0.2324 -0.2398 -0.2035
53319W        W 9560  33.871  26.291   0.737 -0.3689 -0.1491 -0.2274
53320W        W 9561  13.905   5.438   5.064  0.0678  0.3615 -0.1812
53321W        W 9562   2.386   5.699  15.925 -0.0406  0.2291  0.0871
53322W        W 9563  17.447  12.042   5.132 -0.0548 -0.3973  0.1469
53323W        W 9564   3.231  19.410  23.497  0.1749  0.2821 -0.1939
53324W        W 9565   3.529  21.010  25.578  0.1600 -0.1565  0.2027
53325W        W 9566   8.833  26.104  23.269 -0.0027  0.2851  0.1557
53326W        W 9567  11.255   0.155  13.872 -0.4519  0.0274  0.0706
53327W        W 9568  12.486   3.579   8.720 -0.1082 -0.1452 -0.3265
53328W        W 9569   4.349   4.667   5.928  0.0582  0.0345 -0.0196
53329W        W 9570  19.747  19.488   1.662  0.0863  0.1784 -0.0687
53330W        W 9571  34.327   3.734  12.592  0.1138  0.0993 -0.0240
53331W        W 9572  30.358  26.151  18.422 -0.0073  0.0275  0.2049
53332W        W 9573  11.453  15.667   6.148 -0.1911 -0.0978  0.0235
53333W        W 9574   4.730   4.235  24.220  0.2039 -0.6235  0.0934
53334W        W 9575  32.716   1.088  17.341  0.1378  0.0373 -0.1051
53335W        W 9576   3.143  28.583  26.147 -0.1358  0.1233 -0.1365
53336W        W 9577  30.577  34.014  14.831  0.1718  0.3905 -0.1606
53337W        W 9578   4.825  23.892   9.476  0.1279 -0.4021 -0.1665
53338W        W 9579  15.520  32.406  26.199  0.0814  0.3349  0.1696
53339W        W 9580  13.863  29.792  10.530 -0.0432 -0.0593 -0.2159
53340W        W 9581   4.182  11.242  25.654  0.1384  0.2834  0.0434
53341W        W 9582  24.694  13.526  24.791 -0.0501 -0.0905  0.4759
53342W        W 9583  21.501  18.065  18.491 -0.1956  0.2143 -0.2130
53343W        W 9584  15.028  30.812  10.215  0.1630  0.0398 -0.1976
53344W        W 9585  18.194  22.592  11.508  0.1716  0.2176 -0.0034
53345W        W 9586  17.171  12.302   3.293  0.2186  0.0747  0.2301
53346W        W 9587  30.662   6.938   0.506 -0.1404  0.1519 -0.1043
53347W        W 9588  27.573   2.678   0.956  0.0533 -0.0356  0.0682
53348W        W 9589  28.205   9.228  14.823  0.0400  0.4867 -0.0349
53349W        W 9590  22.139  15.604  25.768  0.0336  0.0987  0.0654
53350W        W 9591   2.814  16.036  23.908 -0.1007  0.0347 -0.2853
53351W        W 9592  19.698  30.702   4.156 -0.2840 -0.0107 -0.4548
53352W        W 9593   9.389  24.912  11.917 -0.0134  0.0622 -0.1586
53353W        W 9594  15.671  29.493  23.461  0.0037  0.0105  0.0488
53354W        W 9595  20.451   8.555  20.599  0.2263 -0.0660 -0.2247
53355W        W 9596  30.191  17.426   5.389  0.1774 -0.0305  0.1096
53356W        W 9597  29.641  20.011  16.700  0.0246  0.0229 -0.0485
53357W        W 9598  32.687  13.311  22.785  0.2121 -0.2616 -0.2834
53358W        W 9599   7.019   2.459  10.264  0.1899  0.0670  0.2910
53359W        W 9600   6.841  18.923  22.972  0.0250  0.2469 -0.0271
53360W        W 9601  33.141  33.039  21.404 -0.2858  0.1458 -0.1029
53361W        W 9602   9.522   5.946  21.391  0.0554 -0.0613 -0.0095
53362W        W 9603  31.687  22.970  11.225  0.0173 -0.0775 -0.1063
53363W        W 9604  26.582   7.504  20.856 -0.1622 -0.3424  0.2254
53364W        W 9605  22.039  35.009  26.021  0.2337 -0.1912 -0.3166
53365W        W 9606   4.749  17.293  21.878 -0.0980  0.2890  0.0079
53366W        W 9607  28.308   3.205  22.925 -0.0084 -0.0552 -0.1601
53367W        W 9608  17.044  12.352   9.719  0.0053  0.1442  0.3032
53368W        W 9609  28.640  14.584  21.999 -0.0849  0.1579  0.1755
53369W        W 9610  15.703  13.173   8.771  0.2002  0.1696 -0.0943
53370W        W 9611   6.529   7.684   5.331  0.1168 -0.0408 -0.0616
53371W        W 9612   3.862  33.515  23.742 -0.0214  0.0971 -0.0202
53372W        W 9613   5.522  31.061   6.256  0.0901 -0.2141  0.0764
53373W        W 9614   5.726  29.940  12.449  0.5073 -0.0203 -0.3495
53374W        W 9615  35.005  20.414  25.557  0.2515  0.0696  0.1953
53375W        W 9616  25.944  31.783  11.654  0.0044  0.0803 -0.0456
53376W        W 9617  32.893  25.640  16.609 -0.1686  0.1133 -0.1290
53377W        W 9618  28.244  31.914  14.294  0.3019  0.0990 -0.1276
53378W        W 9619  25.361   9.255  20.994  0.0456 -0.0541 -0.1268
53379W        W 9620  24.546  20.555  10.903  0.0094 -0.3650  0.0849
53380W        W 9621  16.414  19.211   5.522 -0.2202  0.0058 -0.1392
53381W        W 9622  27.010  23.413  13.951  0.2018  0.1396  0.1162
53382W        W 9623  13.074   6.617   1.947 -0.0320 -0.2092  0.2325
53383W        W 9624  22.976   9.478  16.871 -0.3299 -0.0068  0.2624
53384W        W 9625  25.693   6.226  25.808 -0.0408  0.0231  0.1768
53385W        W 9626   2.764  28.119  17.804 -0.0268 -0.1269  0.1382
53386W        W 9627   0.023  34.183  23.390 -0.3919 -0.0160  0.1324
53387W        W 9628  31.887   2.092  17.440  0.0890 -0.0078  0.1255
53388W        W 9629  24.304   6.778   4.035  0.1238 -0.1759  0.0635
53389W        W 9630  28.556  32.862  10.782 -0.0261  0.1066  0.1892
53390W        W 9631  30.181  17.332  24.510  0.2847 -0.1127 -0.2742
53391W        W 9632  19.897  33.201   6.440  0.1832  0.2961 -0.4693
53392W        W 9633  10.631  18.592   5.707 -0.1848  0.1142  0.2218
53393W        W 9634   2.160  34.424  23.618 -0.1510 -0.0815  0.1656
53394W        W 9635  35.248  28.058  22.788  0.1098 -0.2625 -0.0624
53395W        W 9636  15.048  23.884  16.152 -0.0804 -0.1546  0.3079
53396W        W 9637  12.864  31.454   2.280 -0.2364 -0.1025 -0.4126
53397W        W 9638  31.838  13.688  10.060 -0.0875 -0.1200  0.0039
53398W        W 9639  25.591  14.724   8.984  0.1683  0.3666 -0.0963
53399W        W 9640  19.074  34.049  21.576  0.1581  0.1309  0.0080
53400W        W 9641  15.828   9.248   1.561  0.3406 -0.0069 -0.0323
53401W        W 9642  14.209  18.974   5.735  0.2055  0.2086  0.3315
53402W        W 9643   2.897   5.590   8.360  0.0006  0.0499  0.1136
53403W        W 9644  31.243  24.697  22.303  0.1103  0.0656  0.0099
53404W        W 9645  14.118  34.490   3.557 -0.1432 -0.1724  0.1324
53405W        W 9646  29.460   5.602  13.473 -0.1225  0.0944 -0.0422
53406W        W 9647  24.884  22.927  22.457 -0.0712  0.0230  0.1607
53407W        W 9648  31.918  19.592   9.924  0.1557 -0.1628 -0.2229
53408W        W 9649   3.122  28.721   5.439 -0.0348 -0.0142  0.3059
53409W        W 9650  10.498  12.407  11.289  0.1568  0.1526  0.3484
53410W        W 9651  12.996  16.008   1.769 -0.1781 -0.1273  0.1210
53411W        W 9652  26.318  24.886  20.426 -0.0752  0.2243  0.0122
53412W        W 9653  18.159   2.142  17.861 -0.0671 -0.2276 -0.0096
53413W        W 9654  28.526  32.376   5.264 -0.1639  0.2660 -0.0584
53414W        W 9655  32.926  30.333  23.021  0.0802  0.3026 -0.1570
53415W        W 9656   7.571  15.833  23.425  0.0725  0.0727 -0.1622
53416W        W 9657  22.978  10.706  24.635  0.3695  0.4762  0.0781
53417W        W 9658  33.240   7.100  17.575 -0.1612  0.0608 -0.1098
53418W        W 9659  32.729  32.042  20.781 -0.3088 -0.1004 -0.1216
53419W        W 9660  23.857   7.654  22.810  0.0181  0.0936  0.1164
53420W        W 9661  18.586  17.036   6.117  0.0030 -0.1977 -0.0368
53421W        W 9662  28.570  24.727   0.687 -0.1011 -0.0211 -0.1434
53422W        W 9663   4.794  16.593  23.269 -0.2192  0.2422  0.0350
53423W        W 9664  16.256   4.054   5.102 -0.0640  0.2671  0.1481
53424W        W 9665  33.783   1.705  20.204  0.2483  0.0820  0.2524
53425W        W 9666  12.630   4.393   8.204 -0.1485 -0.2207 -0.2398
53426W        W 9667   2.005   3.124  22.398 -0.3814  0.1683  0.0530
53427W        W 9668  14.479   2.133   4.177 -0.0875 -0.3506  0.0559
53428W        W 9669  11.240  32.402  24.049  0.0468  0.1804  0.2004
53429W        W 9670   2.892  30.825  19.238  0.1204 -0.2083 -0.1470
53430W        W 9671   6.514  16.749   0.573  0.0784 -0.1448  0.1005
53431W        W 9672  34.996   2.790   4.210 -0.3865  0.0400  0.0936
53432W        W 9673  32.713   9.550  21.178  0.1054 -0.1955  0.2446
53433W        W 9674  12.600  25.993  15.823 -0.1119 -0.0723  0.0533
53434W        W 9675   0.449  33.282   8.074  0.3703 -0.0716 -0.0129
53435W        W 9676   8.355  24.611  12.672 -0.0082 -0.3082  0.0712
53436W        W 9677  10.074  30.588   5.516 -0.1634  0.2426 -0.0095
53437W        W 9678  28.956   9.446  15.646 -0.0209 -0.0068 -0.0102
53438W        W 9679  13.022  19.007   5.285  0.0750 -0.1972  0.2072
53439W        W 9680  34.655  34.646  17.004  0.1623 -0.0339 -0.4195
53440W        W 9681  25.645   5.131  20.464  0.0053  0.1059 -0.0236
53441W        W 9682   7.718  18.831   7.896 -0.1425  0.1368 -0.4065
53442W        W 9683  15.038  11.117   2.477 -0.1877  0.0642  0.0702
53443W        W 9684  27.897   3.613  13.268 -0.0555 -0.3039 -0.1900
53444W        W 9685  17.733   9.304   4.480 -0.1343  0.2411  0.1010
53445W        W 9686  26.617   4.729  19.733  0.0891  0.1752  0.2476
53446W        W 9687  27.079  25.705  17.075  0.0716  0.1175 -0.1132
53447W        W 9688  27.703  10.265  20.481  0.0400 -0.0899  0.1626
53448W        W 9689   0.742   5.305  24.882  0.0917 -0.1112 -0.3287
53449W        W 9690  29.228   2.420  25.867 -0.3139 -0.2780 -0.0101
53450W        W 9691   7.770  16.344   3.209  0.1355 -0.0903 -0.0414
53451W        W 9692   1.164  32.500  15.809  0.1560 -0.1831 -0.0098
53452W        W 9693  13.807  22.686   3.201  0.3666  0.0652 -0.0534
53453W        W 9694  35.160  22.205  21.200  0.1100  0.1340 -0.1470
53454W        W 9695  30.011  19.794  20.684  0.3534 -0.1909 -0.0872
53455W        W 9696  20.500  29.878   6.453 -0.0309 -0.0742 -0.2058
53456W        W 9697   6.288  27.545  25.477  0.0110 -0.0684 -0.0348
53457W        W 9698   4.168  34.419   7.090 -0.1025  0.0737  0.0378
53458W        W 9699  21.832  24.761  23.178 -0.2819 -0.0347  0.0509
53459W        W 9700  23.135  21.268  12.555  0.0775 -0.1043 -0.0673
53460W        W 9701   8.130  14.573   1.131  0.1395 -0.1466 -0.1668
53461W        W 9702  21.667   8.145  17.693 -0.0928 -0.0670 -0.0213
53462W        W 9703  29.481  19.658   9.886  0.0294 -0.0339 -0.0114
53463W        W 9704  19.040  27.617  18.692  0.0443 -0.1320 -0.0217
53464W        W 9705   6.440  32.027   3.351 -0.3412  0.0552 -0.1396
53465W        W 9706  29.641  33.311   4.886  0.1990 -0.0336 -0.0075
53466W        W 9707  27.495  30.497  13.700  0.1754  0.0805 -0.0738
53467W        W 9708   3.788  20.941  17.259 -0.2361  0.0615  0.2391
53468W        W 9709  10.686  11.845  24.113 -0.0979  0.4566  0.0075
53469W        W 9710  34.587  10.866  17.891 -0.1633  0.1530 -0.1026
53470W        W 9711  24.136  34.998  16.360  0.0364  0.1932  0.2361
53471W        W 9712   6.373   1.058   4.102  0.0587  0.0603  0.4723
53472W        W 9713  29.669   0.125  22.121  0.1258 -0.0382  0.1015
53473W        W 9714  10.917   7.535   5.317  0.2844  0.1127  0.0899
53474W        W 9715  16.423  34.924   2.495 -0.0526 -0.1272  0.0535
53475W        W 9716  21.826  19.613  21.951  0.0408 -0.1211 -0.1697
53476W        W 9717   8.072  25.667  24.301 -0.0803  0.0012 -0.2479
53477W        W 9718  24.826  25.003  21.137  0.0808 -0.0101 -0.2782
53478W        W 9719  33.759  27.767  17.929  0.1810 -0.0323  0.2701
53479W        W 9720  22.888   2.381   6.558  0.1550  0.0461  0.1803
53480W        W 9721  20.542  34.194  23.143  0.2182 -0.2137 -0.0426
53481W        W 9722  33.906   1.902  13.986  0.0413 -0.0677  0.4634
53482W        W 9723  30.679  17.327  21.180 -0.0111 -0.1371 -0.0625
53483W        W 9724  27.006  32.326   3.180 -0.1306 -0.0357  0.3963
53484W        W 9725   1.145  32.806   8.314 -0.5769 -0.3525  0.1075
53485W        W 9726  31.499  31.437   0.848 -0.0163  0.0260  0.2299
53486W        W 9727   2.469  31.355  21.739 -0.2625 -0.4202  0.0387
53487W        W 9728  23.610  18.757  25.322 -0.1083 -0.0423  0.0339
53488W        W 9729  10.361  29.515  21.259  0.1139  0.1319  0.1889
53489W        W 9730  29.102  30.010  17.590  0.2115  0.0711 -0.1675
53490W        W 9731   8.133  25.301  11.789  0.0510  0.0234  0.1751
53491W        W 9732  17.853   4.902   3.398  0.1402 -0.1311  0.0979
53492W        W 9733  25.664   5.623   0.914  0.0497 -0.0189  0.2436
53493W        W 9734   4.862  31.549  11.773 -0.1296 -0.0579  0.2992
53494W        W 9735   8.105  14.283  25.816 -0.0546  0.1108  0.1694
53495W        W 9736  18.657  21.340   5.556  0.2237 -0.2626  0.2409
53496W        W 9737  15.573  33.281  20.307  0.3290 -0.0421  0.2535
53497W        W 9738  14.512  19.715  24.588  0.2490  0.1968  0.0174
53498W        W 9739  29.217  21.999  22.205 -0.1773  0.1664 -0.0194
53499W        W 9740  29.766  35.318  19.340 -0.3221  0.4552 -0.3016
53500W        W 9741  14.286  14.518  22.355  0.1014  0.1114  0.3745
53501W        W 9742  19.438  14.268  19.140  0.2345 -0.0251  0.1955
53502W        W 9743  30.493  31.901  26.075  0.1669  0.0964 -0.3809
53503W        W 9744  16.178  34.950  10.255  0.0677  0.1766 -0.0336
53504W        W 9745  27.089   7.441   1.501 -0.2439 -0.4113  0.1405
53505W        W 9746  30.627  21.075  19.560 -0.1687  0.0591 -0.2323
53506W        W 9747  26.850   5.296  24.469  0.1099 -0.2096  0.2040
53507W        W 9748   2.020  12.861   0.901 -0.1117 -0.0717  0.2551
53508W        W 9749  34.307   7.309  11.862 -0.3378 -0.3987  0.0019
53509W        W 9750   2.638  26.825   2.140  0.1980  0.1427  0.0186
53510W        W 9751  24.811  33.187  16.541 -0.1095 -0.0270 -0.0295
53511W        W 9752   2.640  15.561  16.600  0.0567  0.3244  0.0889
53512W        W 9753   7.235  25.044   7.509 -0.1658 -0.0602 -0.0001
53513W        W 9754  21.691  22.540  17.572 -0.1882 -0.0161  0.0265
53514W        W 9755  30.848  29.799  21.972  0.0197 -0.0491  0.1291
53515W        W 9756   4.956  26.615   4.974  0.1504 -0.1192  0.2700
53516W        W 9757  10.813  10.941  22.002 -0.0461  0.1495  0.4503
53517W        W 9758   6.078  28.355  20.375  0.2573  0.0539 -0.0194
53518W        W 9759  26.066  28.569   4.405  0.0343 -0.0531 -0.3130
53519W        W 9760  20.538  32.282  19.769 -0.1522  0.0191 -0.0912
53520W        W 9761  12.756  13.471  25.748 -0.1310  0.3046  0.1153
53521W        W 9762  32.914  11.077  12.590 -0.3999  0.0394 -0.1128
53522W        W 9763  31.265   5.691  10.064 -0.1413 -0.1965  0.3214
53523W        W 9764   9.094   5.746  25.334  0.0082 -0.0800 -0.0415
53524W        W 9765  16.305   5.281   6.052  0.1361  0.0440  0.1758
53525W        W 9766  30.628   3.606   4.463 -0.0822  0.0517 -0.2351
53526W        W 9767  19.235  10.272  18.580  0.4010  0.3273 -0.1507
53527W        W 9768  33.401  25.131  22.424 -0.1359  0.1137 -0.0611
53528W        W 9769   1.365   5.185   4.301  0.1420 -0.1304 -0.0262
53529W        W 9770  14.894   0.486  10.225 -0.0479 -0.0790  0.0772
53530W        W 9771  13.514  33.190  21.239  0.1219  0.1997  0.2194
53531W        W 9772  16.168   9.123  24.688  0.0090 -0.1913 -0.1623
53532W        W 9773  15.023  19.532  20.185 -0.3832 -0.0994  0.2822
53533W        W 9774  13.560  21.103   2.528 -0.2077  0.0672 -0.0442
53534W        W 9775  18.313  21.227  11.946  0.0002  0.1196 -0.0304
53535W        W 9776  27.060  22.123  11.978  0.1274 -0.0207  0.3135
53536W        W 9777  11.534  22.903  11.976  0.1171 -0.2192  0.1089
53537W        W 9778  13.676  33.234   1.680  0.1216  0.4087 -0.0438
53538W        W 9779  12.426  17.036   3.956  0.3988 -0.1453 -0.0467
53539W        W 9780   6.991  19.006  20.012  0.0294 -0.1587 -0.4036
53540W        W 9781   7.214  29.016   3.468 -0.4160  0.0980  0.3128
53541W        W 9782  16.205   5.185  25.197  0.2402 -0.1854  0.2319
53542W        W 9783  28.166   0.972  18.906 -0.1964 -0.0131 -0.0601
53543W        W 9784  21.172   5.938  22.211  0.2025 -0.1577 -0.1030
53544W        W 9785   9.687  21.474   3.925  0.2555  0.0055 -0.1809
53545W        W 9786   6.243  34.957  24.917  0.0177  0.3451 -0.0054
53546W        W 9787  34.485   1.360   2.189  0.3621 -0.2033  0.1569
53547W        W 9788  23.771  10.762  16.015 -0.0168  0.2109 -0.1151
53548W        W 9789  22.327  20.691  25.868 -0.0375 -0.1880 -0.0496
53549W        W 9790  29.777  31.055  17.871  0.3488  0.1328  0.2087
53550W        W 9791  10.449  17.737   7.752 -0.0367 -0.3425 -0.1292
53551W        W 9792   0.865  26.845  20.530  0.0604  0.1041 -0.1896
53552W        W 9793  26.273   3.472   1.787 -0.2824 -0.1333  0.1279
53553W        W 9794  10.962  18.385  25.307 -0.1769  0.1941 -0.0017
53554W        W 9795   9.970  23.711   9.374  0.2445  0.1273 -0.1293
53555W        W 9796  15.412  22.243  21.408 -0.3387 -0.0910  0.1185
53556W        W 9797  19.861  14.105  20.432  0.5546 -0.2957  0.3094
53557W        W 9798  23.408  17.989  25.058  0.1253 -0.0176 -0.3068
53558W        W 9799  10.824   9.993  22.269 -0.0981 -0.0031  0.1181
53559W        W 9800  11.260  28.975  14.716  0.0385  0.2139 -0.0911
53560W        W 9801  33.553  24.487  13.376 -0.1040 -0.0447  0.2145
53561W        W 9802  28.320  12.145  24.318  0.0140  0.2085  0.2089
53562W        W 9803  20.894  10.197   1.377 -0.1214  0.1680 -0.0866
53563W        W 9804  30.482  23.428  14.876  0.2112  0.1781 -0.0449
53564W        W 9805   7.681   1.718  18.924 -0.0590 -0.0411 -0.1832
53565W        W 9806  14.211  17.996   0.122 -0.1558 -0.2045 -0.2726
53566W        W 9807  25.681  13.282   9.070  0.0525  0.3332  0.4230
53567W        W 9808  15.306  12.847   5.363  0.2155 -0.1459  0.0695
53568W        W 9809  30.350  23.529   6.560  0.0028  0.0630  0.0331
53569W        W 9810  10.568  11.805  25.795  0.0710  0.3718  0.2076
53570W        W 9811  18.212  15.999   4.118  0.1340  0.0474  0.3389
53571W        W 9812   9.291   3.873  13.372 -0.0355 -0.1136  0.0627
53572W        W 9813  33.745   6.514   1.557 -0.3649  0.1112  0.0973
53573W        W 9814  26.232  24.113  16.494 -0.1780 -0.0023 -0.0832
53574W        W 9815   3.791  19.957  18.364  0.2222  0.1920  0.1596
53575W        W 9816  35.170   5.543   3.120  0.1074  0.1857  0.1149
53576W        W 9817  25.523   9.075   9.498  0.0256 -0.0473 -0.1459
53577W        W 9818  31.998  25.392  16.685  0.0423 -0.1720 -0.1428
53578W        W 9819  18.150  10.086   2.061 -0.0540 -0.2769  0.0588
53579W        W 9820   2.470  31.504   8.142  0.0199 -0.0793 -0.0840
53580W        W 9821  12.370  13.239  12.266 -0.1723 -0.3144  0.0883
53581W        W 9822   7.181   9.477  20.520 -0.3736  0.0252 -0.2057
53582W        W 9823  19.616  16.378  18.466  0.0328  0.2756 -0.1992
53583W        W 9824  13.392  13.398   0.237  0.2433 -0.1402  0.2530
53584W        W 9825   3.027  16.469   0.775  0.4738  0.2859  0.2560
53585W        W 9826  13.296  30.681  13.337  0.2439  0.1001  0.1095
53586W        W 9827   2.926  10.448  21.942  0.0624  0.2523 -0.1267
53587W        W 9828   1.214  26.896   0.155  0.0594  0.0329 -0.1503
53588W        W 9829  31.056  25.691   0.385 -0.0206 -0.0256 -0.1059
53589W        W 9830   3.738  11.699  14.462  0.0749 -0.1195  0.2300
53590W        W 9831  32.937  27.035  20.343 -0.1744 -0.1959 -0.1395
53591W        W 9832  18.959   9.283  18.128  0.1306 -0.1477  0.2369
53592W        W 9833   9.337  11.893  12.557 -0.0219  0.4029 -0.4177
53593W        W 9834   2.202  33.075   0.927 -0.0836 -0.0905  0.1869
53594W        W 9835   4.330  11.398  26.141 -0.1275  0.0305  0.0698
53595W        W 9836  34.189  30.611  16.870 -0.1491  0.0223 -0.0251
53596W        W 9837  31.824  26.702  13.075  0.3954 -0.0851 -0.0681
53597W        W 9838  17.508  33.362  20.335 -0.1481 -0.2904  0.0824
53598W        W 9839   7.279   5.140  21.017 -0.1518 -0.0302 -0.0954
53599W        W 9840  28.104   2.170  25.471 -0.1269  0.2796  0.1370
53600W        W 9841  24.327  12.147  16.773  0.1511  0.0866  0.0672
53601W        W 9842  14.599  19.629  23.862  0.0342 -0.4037  0.0286
53602W        W 9843  26.676  18.836  19.621  0.2085  0.0659  0.0798
53603W        W 9844  13.682  15.363  24.353  0.1010 -0.1842  0.1497
53604W        W 9845  26.497   0.178  11.442  0.2631 -0.0837 -0.3480
53605W        W 9846   0.076  28.627  24.130  0.0113 -0.1004  0.0965
53606W        W 9847   7.498  10.541   1.613  0.0436  0.1952 -0.3948
53607W        W 9848  34.408  23.468  24.152  0.0027 -0.0846 -0.2852
53608W        W 9849  29.674  28.159  21.479 -0.1362 -0.0516  0.1818
53609W        W 9850   9.138  15.292   1.747  0.0501  0.2945 -0.3312
53610W        W 9851  16.761   3.216  19.007 -0.0061 -0.0381 -0.3097
53611W        W 9852  30.027  15.362  13.422  0.0137  0.2203  0.2708
53612W        W 9853  28.996   3.582  24.046 -0.0821 -0.0901 -0.0832
53613W        W 9854  33.129   5.311  25.640  0.0246 -0.0497 -0.0200
53614W        W 9855  26.527  22.656  12.657 -0.1523 -0.1224  0.1745
53615W        W 9856  14.050   8.876   2.108  0.3752  0.2028 -0.2323
53616W        W 9857  10.798  33.404   1.244  0.2287 -0.4078 -0.0222
53617W        W 9858  17.031  24.762   2.305 -0.2967 -0.2176 -0.1298
53618W        W 9859  12.551  26.764  12.960  0.0117 -0.0109  0.0804
53619W        W 9860  23.241  29.035   0.648 -0.2229  0.0096  0.2431
53620W        W 9861  13.807  22.107   5.610  0.0705 -0.0674 -0.2575
53621W        W 9862   5.617   9.872   7.262 -0.1058 -0.0145  0.1268
53622W        W 9863   9.341  28.951   0.738 -0.0907 -0.0506 -0.1217
53623W        W 9864   0.157  10.621  16.022  0.1680  0.1476  0.0806
53624W        W 9865  25.232  14.164   9.677  0.1352 -0.1128  0.2871
53625W        W 9866   3.797   6.547   7.798 -0.1590 -0.0031 -0.2191
53626W        W 9867  15.111  26.961  23.879 -0.1404 -0.2659 -0.1140
53627W        W 9868  15.276   7.194   3.220 -0.2330 -0.4244  0.0138
53628W        W 9869  29.562   0.766  16.352  0.4971  0.0418 -0.2838
53629W        W 9870   2.043  13.400  22.806 -0.1517 -0.1463  0.0432
53630W        W 9871  11.774  34.276   9.559 -0.0688  0.1969  0.0904
53631W        W 9872  22.232   9.440   2.405 -0.1605  0.1365  0.3452
53632W        W 9873  34.552  27.064  14.778  0.2985  0.2299 -0.0939
53633W        W 9874  13.917   2.096   1.104  0.0258  0.0594  0.1043
53634W        W 9875   7.837  29.417  13.296  0.0486 -0.2111 -0.1235
53635W        W 9876  31.047  34.190  16.805 -0.0363 -0.1646  0.0209
53636W        W 9877  33.279   5.707   2.588 -0.1345  0.1127  0.1186
53637W        W 9878  25.362  24.079  18.701  0.1450 -0.0037  0.1928
53638W        W 9879   9.616  10.553  10.234  0.0044  0.0378  0.0635
53639W        W 9880   1.099  12.550  20.824 -0.3014 -0.0234 -0.0229
53640W        W 9881  11.516  15.022   9.121 -0.4612 -0.0449 -0.0521
53641W        W 9882  11.720  21.214  17.165  0.2672  0.0993 -0.4358
53642W        W 9883  30.838  31.192  22.126  0.0162  0.3049 -0.0406
53643W        W 9884  13.648  11.055  19.077  0.0688 -0.1131 -0.3795
53644W        W 9885  12.837  26.026  23.102 -0.1286  0.0704 -0.0811
53645W        W 9886  23.666  30.391   5.620 -0.0687  0.0234 -0.2513
53646W        W 9887  17.635  22.321   1.451  0.2449 -0.1941  0.0126
53647W        W 9888   8.329  32.783   7.942  0.1667 -0.1127  0.3078
53648W        W 9889  20.509   2.780   5.740  0.2688  0.0135 -0.1215
53649W        W 9890  24.438  26.527  20.750  0.1057 -0.0464  0.3344
53650W        W 9891  16.044  15.763  25.283 -0.2324  0.1575 -0.1560
53651W        W 9892  10.139   1.602   1.653 -0.3452  0.0412  0.1663
53652W        W 9893   8.270  14.947  18.096 -0.2880 -0.3556 -0.3044
53653W        W 9894  34.728   5.738  12.805 -0.2689 -0.3328 -0.1671
53654W        W 9895  35.209  25.670  23.288 -0.1488  0.0595  0.2582
53655W        W 9896   3.734  29.016   9.159  0.1676 -0.2023 -0.1250
53656W        W 9897  30.686  31.351  17.644 -0.2416 -0.2719  0.2717
53657W        W 9898  16.159  30.226   0.034  0.0433  0.1012  0.1572
53658W        W 9899  19.112  30.199  21.892 -0.2306  0.1189 -0.1831
53659W        W 9900   4.377  15.824  18.751  0.0991 -0.1977 -0.0505
53660W        W 9901  31.423  30.617   0.737  0.1943 -0.0785  0.3950
53661W        W 9902  15.239  14.991  24.038  0.1147  0.1598 -0.3175
53662W        W 9903   2.167  12.095  25.430 -0.2608 -0.0225  0.1705
53663W        W 9904  34.261  18.556  19.348 -0.0681  0.2454  0.1071
53664W        W 9905   9.435   9.405  20.475  0.0565 -0.0522  0.0258
53665W        W 9906   6.402   1.186  25.745  0.1054 -0.2081  0.1746
53666W        W 9907   0.548  28.185  19.904 -0.0557 -0.0113  0.0443
53667W        W 9908  15.953  13.177   2.725  0.1478 -0.2911 -0.0068
53668W        W 9909  29.125   4.628   4.557  0.0134 -0.0125  0.3511
53669W        W 9910  26.240  30.213  10.921  0.3138 -0.0141 -0.0909
53670W        W 9911  34.449  23.914  15.355 -0.0047  0.1166 -0.1137
53671W        W 9912  18.828  11.501  21.165 -0.1774 -0.0336 -0.0088
53672W        W 9913   4.806  20.500  26.071 -0.1475  0.2215  0.0048
53673W        W 9914  25.893   5.239  25.399 -0.0901 -0.0776  0.0933
53674W        W 9915  34.104  13.294  24.834 -0.2573  0.4124  0.2892
53675W        W 9916  17.128  19.029  25.141 -0.0807  0.3602  0.0985
53676W        W 9917  26.361  14.547  19.155  0.1116 -0.3907 -0.1307
53677W        W 9918  23.822  28.867   0.934  0.1388 -0.0786  0.1138
53678W        W 9919  30.039  24.822  25.814 -0.1910  0.4089 -0.0423
53679W        W 9920  21.365  24.627   2.184  0.0857 -0.4449 -0.0728
53680W        W 9921  31.805   4.668  21.912 -0.2385  0.0544 -0.0289
53681W        W 9922   2.561  11.938  15.440 -0.0076  0.1845 -0.1292
53682W        W 9923   0.714  21.356  19.133  0.1433 -0.2289  0.3925
53683W        W 9924  32.082  16.635  23.696  0.1785 -0.0396 -0.3437
53684W        W 9925  33.647  32.211   5.600 -0.0736  0.1657  0.0610
53685W        W 9926  19.948  26.527  16.819  0.0470  0.0172  0.0734
53686W        W 9927   4.707   6.077   3.065  0.0462 -0.1562 -0.0798
53687W        W 9928  30.833   2.718  11.515 -0.0411  0.1221 -0.2910
53688W        W 9929  14.012   7.891   9.954 -0.1652 -0.2504 -0.0286
53689W        W 9930  15.393  13.240   2.692  0.0951 -0.1579 -0.0851
53690W        W 9931   3.650  27.733  20.483 -0.0739  0.1819 -0.3620
53691W        W 9932   0.484  15.149  17.488 -0.0230  0.0916  0.0223
53692W        W 9933   9.438  19.387   0.951  0.4313 -0.0666  0.0164
53693W        W 9934  10.919  13.905   2.489  0.0591 -0.0619 -0.0802
53694W        W 9935  31.825  13.431  14.270  0.2523  0.0754 -0.0115
53695W        W 9936  18.249   4.902   6.190 -0.3496 -0.2065 -0.0958
53696W        W 9937  19.459   0.080   4.220 -0.0216 -0.1849  0.0538
53697W        W 9938  14.653   8.636  19.673  0.3434 -0.0010  0.0980
53698W        W 9939  20.039   9.905   8.872  0.0516 -0.1667  0.1034
53699W        W 9940  19.947  16.910  22.414 -0.0138  0.0386  0.0631
53700W        W 9941  23.067  31.989  20.477 -0.1172  0.2224 -0.0590
53701W        W 9942   8.591  22.195   3.792 -0.2135 -0.0325 -0.0544
53702W        W 9943  28.274  29.385  11.014  0.1303 -0.3006  0.0979
53703W        W 9944   1.294   0.421  19.198  0.1108 -0.0286 -0.0560
53704W        W 9945   5.611  14.295   4.327 -0.1435  0.1659 -0.1848
53705W        W 9946  31.945  24.571  15.724 -0.4475 -0.0198  0.3599
53706W        W 9947   0.116   7.932  21.929  0.1722 -0.1662 -0.0816
53707W        W 9948  32.376   5.804  21.357 -0.1399  0.0224 -0.1835
53708W        W 9949   3.492  27.929  21.858  0.1724 -0.1877  0.4469
53709W        W 9950  30.149  10.870  15.135  0.1682  0.1401 -0.1227
53710W        W 9951  10.677  16.707   0.099 -0.1205  0.1142  0.5478
53711W        W 9952  29.342  19.725  12.171 -0.1284 -0.0130 -0.1720
53712W        W 9953   5.376  16.852  17.627  0.0334 -0.1064  0.3591
53713W        W 9954  32.730   3.104  20.519  0.0692  0.0520  0.0877
53714W        W 9955   4.133   8.446   5.044 -0.0899  0.1612  0.0416
53715W        W 9956  24.177  23.965  10.602  0.0022  0.0239 -0.3243
53716W        W 9957   6.369  29.759  13.111  0.1788  0.1044  0.1089
53717W        W 9958  14.207  14.288   0.043  0.2208  0.1672  0.0276
53718W        W 9959   5.686   9.807   3.879 -0.3271  0.3566  0.2650
53719W        W 9960  19.512  11.279  24.089  0.0126 -0.1332  0.0363
53720W        W 9961  18.956  34.561   7.414 -0.3115  0.1103  0.2250
53721W        W 9962  24.313  10.420  15.085  0.1695  0.0566  0.0368
53722W        W 9963  33.628  25.050   2.181 -0.1192  0.1148 -0.1045
53723W        W 9964   0.816   2.537  21.107  0.0825 -0.1764  0.1536
53724W        W 9965  15.114   0.398   5.794 -0.2422  0.2762 -0.0522
53725W        W 9966   5.467  10.871   4.891  0.0781 -0.2809  0.1625
53726W        W 9967  34.392  30.409  24.579  0.0736 -0.3221  0.0445
53727W        W 9968  29.440  30.975  12.874 -0.0003 -0.0066 -0.2325
53728W        W 9969   9.515  11.635   4.926  0.0517  0.1168 -0.0607
53729W        W 9970  30.665  25.566  23.148 -0.1262 -0.0613 -0.1699
53730W        W 9971  26.891  26.684  17.375 -0.0122  0.0343 -0.2874
53731W        W 9972  29.959  16.640  14.628  0.2626  0.1039  0.1187
53732W        W 9973  26.635  28.309  21.053  0.0912  0.5102  0.3487
53733W        W 9974  21.334   2.505  17.442 -0.3058 -0.1428 -0.0454
53734W        W 9975  12.599   9.392  21.432  0.2460  0.2014  0.4077
53735W        W 9976  20.583  23.875   8.134 -0.2243  0.0685  0.0664
53736W        W 9977  26.024  32.403  18.816  0.1228  0.0409 -0.1327
53737W        W 9978   2.400  19.570  25.500 -0.4274 -0.2356  0.0534
53738W        W 9979  16.280  34.416  24.558  0.0805 -0.4228  0.1737
53739W        W 9980  13.743   9.273   6.373 -0.3142 -0.2845  0.3934
53740W        W 9981  11.672  22.606   5.517 -0.0903  0.1165  0.0994
53741W        W 9982   8.952  31.181   7.225 -0.1415  0.2996  0.0066
53742W        W 9983  24.528  25.318  19.940 -0.0094 -0.0614 -0.2325
53743W        W 9984  12.448  17.495   7.926  0.0179  0.0642 -0.0984
53744W        W 9985   9.119  34.197   6.187 -0.0253  0.0072 -0.0753
53745W        W 9986   7.508  22.662  15.758 -0.1325 -0.0645  0.0853
53746W        W 9987   6.341  24.179  24.512  0.0146 -0.0393 -0.1026
53747W        W 9988   2.773  25.665  18.565 -0.2022  0.2764  0.1307
53748W        W 9989  29.801  32.685  26.216  0.1055 -0.3228  0.0978
53749W        W 9990  24.103  16.287  20.026  0.1607 -0.2041 -0.2263
53750W        W 9991  11.445   9.489   9.208  0.0636 -0.0695  0.3012
53751W        W 9992   1.617   8.746  22.672 -0.1357 -0.0784  0.0200
53752W        W 9993  26.370  20.639  23.028  0.2249  0.1635 -0.2495
53753W        W 9994  31.081  22.578  21.825 -0.1125  0.0151 -0.1899
53754W        W 9995   2.906  10.223  22.425  0.1317  0.0439 -0.0674
53755W        W 9996  31.506  18.261   0.305  0.0021  0.1726 -0.0463
53756W        W 9997  27.021  19.164  11.172  0.2186 -0.1912 -0.1414
53757W        W 9998  28.755   5.181  24.976  0.0126 -0.3480 -0.2041
53758W        W 9999  16.699  20.462  24.351  0.3692 -0.0698 -0.1855
53759W        W10000  24.074   7.141  26.148 -0.3797  0.1375 -0.0255
53760W        W10001   2.855  17.705   0.119  0.0108 -0.0145  0.1271
53761W        W10002  26.862  12.832  15.376 -0.2946  0.1016  0.2495
53762W        W10003  15.391  15.123   3.191  0.2010 -0.3203  0.0574
53763W        W10004   9.260  20.262   7.758 -0.2957  0.2290  0.1063
53764W        W10005   7.477   2.162   4.418 -0.0409 -0.0338  0.1932
53765W        W10006  24.895  26.225  22.528  0.1861 -0.1003 -0.0224
53766W        W10007   8.416   2.606  25.404  0.1898 -0.0626 -0.0590
53767W        W10008  11.749  16.777   2.309  0.0713  0.0839 -0.1220
53768W        W10009   5.566  20.523  21.585 -0.1506 -0.2317 -0.4060
53769W        W10010   1.381  29.593   0.378 -0.1166  0.0346 -0.0852
53770W        W10011   9.015  13.850  21.337 -0.0728 -0.0822 -0.1202
53771W        W10012  25.632  33.084  23.839 -0.0600 -0.1230  0.2247
53772W        W10013  21.190  25.413  24.126 -0.1514  0.1781  0.1776
53773W        W10014   9.457  28.012  25.244 -0.1929  0.0838 -0.0061
53774W        W10015   2.676   2.490  21.517 -0.3562  0.0471  0.2231
53775W        W10016  12.744   5.163  20.209 -0.0495 -0.1851 -0.0337
53776W        W10017  13.323  29.770  22.713  0.1323  0.1363  0.1160
53777W        W10018  15.296  32.847  26.141  0.0785  0.0242 -0.1521
53778W        W10019   2.108  16.200   0.454 -0.1529  0.2541  0.0203
53779W        W10020  26.785   7.969  14.945  0.1927  0.2862 -0.2138
53780W        W10021  20.738   6.707  19.721  0.3383 -0.0700  0.0769
53781W        W10022  23.078   0.243   0.181 -0.2680  0.0986 -0.1048
53782W        W10023  13.954  27.241  25.065 -0.0440 -0.2153  0.0102
53783W        W10024  32.553  17.086   7.951  0.3978 -0.1009 -0.1036
53784W        W10025  15.375  13.685   9.489 -0.0846  0.1379 -0.0150
53785W        W10026  21.157  19.877  21.140  0.3362 -0.1212  0.2557
53786W        W10027  20.208  23.379   8.784  0.0122 -0.1884  0.3973
53787W        W10028  15.517  26.509  10.473  0.1667  0.0517 -0.2742
53788W        W10029  27.376   5.320  25.284  0.0833 -0.1854 -0.4995
53789W        W10030   0.439   4.577  24.427  0.0837  0.0141  0.1547
53790W        W10031   6.651   0.057  20.515  0.2120  0.0499 -0.0327
53791W        W10032  31.383   2.586   3.970 -0.3129  0.2713  0.1513
53792W        W10033  13.658  14.494  13.156 -0.3183  0.3048  0.0936
53793W        W10034   3.506  12.912  17.254 -0.0907  0.1583 -0.0797
53794W        W10035   7.233  27.856  10.685  0.0566 -0.1813 -0.1557
53795W        W10036  15.245  17.959  23.158  0.0303  0.3206 -0.4030
53796W        W10037   8.912  23.919  24.646 -0.0177 -0.1444 -0.0610
53797W        W10038  17.867  16.036  19.555  0.0749  0.2331 -0.0947
53798W        W10039  34.551  23.364  17.266  0.0450 -0.2208 -0.1374
53799W        W10040  19.329  25.216  24.534  0.2916 -0.0302 -0.1585
53800W        W10041   7.754  15.164   4.393 -0.0166  0.3597 -0.0853
53801W        W10042   4.313  34.859  24.059  0.2073 -0.3362  0.0822
53802W        W10043  26.735  14.740  10.134 -0.1656  0.3834  0.2285
53803W        W10044  16.942   6.288  23.998  0.1893 -0.2684 -0.0578
53804W        W10045   7.927  13.548  23.296  0.3217  0.1698 -0.0690
53805W        W10046  32.822  17.040   8.933 -0.1565  0.1852  0.0165
53806W        W10047  34.613  21.876  25.851 -0.1369 -0.1288 -0.2993
53807W        W10048  24.234  30.809  20.000 -0.0178 -0.1547 -0.2161
53808W        W10049  12.884   7.177   8.413  0.2710 -0.1494 -0.0498
53809W        W10050  34.394  14.278  11.209  0.0093 -0.2206 -0.0677
53810W        W10051   3.971  15.883   2.810 -0.0981 -0.2264 -0.0898
53811W        W10052  16.090   0.921  25.700 -0.3820  0.2265  0.0527
53812W        W10053  32.616   4.381  11.665 -0.2888 -0.3000  0.1280
53813W        W10054   4.919  30.471   2.182 -0.0553 -0.1080  0.1914
53814W        W10055  27.977  27.001  11.868  0.2601  0.0657  0.2214
53815W        W10056  12.762  17.627  21.113  0.1369  0.0452 -0.0645
53816W        W10057  17.675  13.232  26.039  0.0522 -0.1304  0.1028
53817W        W10058  28.774  29.614   2.247  0.0686  0.0359 -0.1846
53818W        W10059  14.855  15.365  24.524  0.0270 -0.1950  0.2084
53819W        W10060  11.471  18.057  24.539 -0.4857 -0.1250  0.0752
53820W        W10061  16.340  27.481  24.614 -0.0552 -0.1903 -0.2014
53821W        W10062  11.160  17.865   1.147  0.2132  0.1796  0.2072
53822W        W10063  16.662   6.239  12.804 -0.0683 -0.0063  0.1075
53823W        W10064   8.726  11.525   7.052 -0.0596  0.0435 -0.1115
53824W        W10065  30.942  20.549  16.394 -0.1883 -0.2071  0.4502
53825W        W10066  12.005  17.384  19.841 -0.2554 -0.0358 -0.0784
53826W        W10067  15.558  11.927   2.982 -0.3156 -0.2440 -0.0339
53827W        W10068   6.001  18.205   7.762  0.2184  0.1258 -0.2024
53828W        W10069   3.454  12.951  18.756  0.1106 -0.1018 -0.0578
53829W        W10070  33.638  15.725   1.279  0.1269  0.2940 -0.0626
53830W        W10071   3.501   4.001   7.450 -0.2358 -0.1005 -0.0118
53831W        W10072  25.386   5.649  21.206 -0.3027 -0.1639 -0.2379
53832W        W10073  13.265  27.804  10.652  0.3122  0.2676  0.0564
53833W        W10074  20.861  33.640   0.140  0.2122 -0.2264  0.1838
53834W        W10075   8.982   3.421   6.826  0.3534 -0.2136  0.1104
53835W        W10076  20.643  15.227  17.042 -0.0329  0.0642  0.0263
53836W        W10077  23.438  14.712  16.007 -0.0520 -0.1107  0.4096
53837W        W10078  18.470  21.962   8.644  0.0902 -0.0974 -0.1444
53838W        W10079  13.379  26.854   3.227  0.2137 -0.0486  0.0262
53839W        W10080  32.553  29.353   3.987  0.3329  0.0599 -0.0868
53840W        W10081  14.530  29.024  15.564  0.0942 -0.4111 -0.0945
53841W        W10082  14.512   1.340   7.322 -0.0298 -0.2200 -0.0203
53842W        W10083  31.811   4.244  26.168 -0.0158 -0.0616  0.1824
53843W        W10084  30.488   2.405   2.865  0.3634 -0.2029 -0.1015
53844W        W10085  14.651   2.638  23.348  0.1084 -0.1031  0.2972
53845W        W10086  27.010  22.723  16.310 -0.0674 -0.1459  0.3610
53846W        W10087  23.728   4.992  21.095 -0.1471  0.0774 -0.0347
53847W        W10088  14.302  29.552   3.934 -0.0282  0.1244 -0.1378
53848W        W10089   9.613  28.825  10.943 -0.1324 -0.0187 -0.0449
53849W        W10090   5.760  26.562  13.341 -0.2598 -0.0879  0.1548
53850W        W10091  11.183  12.925  13.282  0.0248  0.2456 -0.0007
53851W        W10092  30.375  28.441  25.434  0.2054 -0.1337 -0.3624
53852W        W10093   9.804  17.061  19.241  0.2183 -0.2554  0.0078
53853W        W10094  22.065  15.544   3.543  0.0045 -0.0807 -0.0533
53854W        W10095  24.937  24.983  13.822 -0.1657 -0.1324 -0.0055
53855W        W10096  34.239   4.495  18.649 -0.2424 -0.0207  0.1487
53856W        W10097  35.026  35.125  23.613 -0.1127 -0.0761 -0.1392
53857W        W10098  31.477   9.544  16.971  0.2651 -0.0301  0.1903
53858W        W10099  12.483   9.517   6.108  0.2282  0.0796 -0.1485
53859W        W10100  30.472  27.049  16.055 -0.1126  0.0442 -0.4196
53860W        W10101   6.105   3.581   4.102 -0.0399  0.0657  0.0010
53861W        W10102   0.383  29.208   7.280  0.2249  0.4470  0.0477
53862W        W10103  22.419  10.217  24.119 -0.0825  0.1002 -0.1072
53863W        W10104  27.378  20.643  20.796 -0.0345  0.2183 -0.3324
53864W        W10105  14.799  29.651   1.041 -0.0052 -0.0076  0.1654
53865W        W10106  11.917  27.796  24.573  0.0063  0.1227 -0.1851
53866W        W10107  33.450  18.810  21.613  0.1898  0.0893  0.1552
53867W        W10108   1.664  13.708  13.479  0.1616  0.3106  0.0896
53868W        W10109  20.719  20.707  24.745  0.0732  0.1050 -0.1078
53869W        W10110  15.426  13.935   3.811  0.1914  0.2656 -0.2770
53870W        W10111  32.984   0.808  23.705 -0.2361 -0.0186 -0.3197
53871W        W10112  22.876   7.726  25.911 -0.0019  0.3882  0.3627
53872W        W10113  31.659  17.143  12.847  0.0071  0.0414 -0.0425
53873W        W10114  11.991   8.061  24.093 -0.1215 -0.3849  0.3121
53874W        W10115  21.181  24.653   4.685  0.1508  0.4288  0.1182
53875W        W10116   1.757  33.335  20.408  0.0912  0.0254 -0.0883
53876W        W10117  31.324  28.975  26.136 -0.2653 -0.2151  0.1675
53877W        W10118  25.228   0.371  22.336  0.3205 -0.0373  0.0458
53878W        W10119  15.995  19.474  10.449  0.0224 -0.3494  0.3046
53879W        W10120  22.705  30.970   2.539 -0.0377 -0.2439 -0.0283
53880W        W10121  35.072  15.226  15.808  0.1731  0.2229  0.0014
53881W        W10122  18.022  14.780   8.844 -0.3067  0.1335 -0.0625
53882W        W10123  22.284  10.437  17.189  0.0911  0.2484 -0.0187
53883W        W10124  11.221  13.974   0.022 -0.1581 -0.2562 -0.0191
53884W        W10125  32.397  18.257  21.292  0.2156  0.0209 -0.1554
53885W        W10126  28.276  17.028  17.643 -0.0441 -0.3132 -0.2099
53886W        W10127   7.701  16.588  20.148  0.0270  0.1108 -0.0753
53887W        W10128  20.467   3.514   7.247 -0.0927 -0.3099 -0.0367
53888W        W10129   9.059  16.218   3.116  0.0063 -0.2428  0.1446
53889W        W10130  34.771  31.286   8.345 -0.0914  0.2047  0.0874
53890W        W10131  27.291  24.158  15.081 -0.0629 -0.1204  0.3118
53891W        W10132   8.557   5.373   9.028  0.2293 -0.0016 -0.2247
53892W        W10133  13.958  11.190  13.626 -0.0279 -0.0173 -0.0134
53893W        W10134  17.545  25.180   5.125  0.0782 -0.0563  0.1376
53894W        W10135  21.416   9.560  26.125 -0.2655 -0.2211 -0.1439
53895W        W10136   9.117  23.656   8.592 -0.1672  0.0908  0.0690
53896W        W10137  31.878  23.562   9.556  0.5119 -0.2227 -0.1141
53897W        W10138  22.910  10.453  22.432 -0.1443  0.1244  0.0845
53898W        W10139  30.010   0.421   4.697  0.1082 -0.2234  0.1558
53899W        W10140  25.252  22.566  13.851 -0.1421 -0.0632 -0.1195
53900W        W10141   5.357   0.788  18.158 -0.0650 -0.1260 -0.0705
53901W        W10142  18.674  13.495  22.091 -0.0861  0.2256  0.3441
53902W        W10143   4.069  32.991  25.406  0.2067 -0.0613 -0.2170
53903W        W10144  32.498  12.834  16.125 -0.1437 -0.1037 -0.2045
53904W        W10145   8.431  33.509  22.728 -0.0987 -0.1333 -0.1335
53905W        W10146  29.458  15.133  10.700 -0.0399  0.2078  0.3553
53906W        W10147  12.015  31.784  25.728  0.0421  0.3088 -0.0376
53907W        W10148   1.151  15.469  20.488 -0.1508  0.2252  0.4450
53908W        W10149  31.615  10.020  20.075  0.0949 -0.1815 -0.2214
53909W        W10150  13.508  17.430   7.468  0.1629 -0.1935  0.0280
53910W        W10151   1.193  33.292  21.165  0.1425  0.0144  0.4005
53911W        W10152  30.410  12.806  15.809 -0.0417 -0.0557  0.5679
53912W        W10153  26.101  17.267  25.672 -0.0271 -0.1682 -0.0891
53913W        W10154  16.758   9.176   5.686 -0.0877  0.1515  0.1395
53914W        W10155  31.175  32.107   3.407  0.0122  0.0443  0.0282
53915W        W10156  19.252  18.471  22.429 -0.5601  0.0411  0.0379
53916W        W10157  30.853  16.108   6.138  0.2581 -0.0899  0.1466
53917W        W10158  18.025  23.872   7.895 -0.2765  0.0307  0.0522
53918W        W10159  10.470  30.760   8.008  0.2623 -0.4128  0.2091
53919W        W10160  33.749  34.915  20.319  0.2571  0.1519  0.3148
53920W        W10161  12.923  19.239  24.612  0.1315 -0.4247 -0.0369
53921W        W10162  14.013  29.292  20.659  0.2458 -0.0022 -0.2414
53922W        W10163  25.958  24.052   1.000 -0.3851  0.1119 -0.0538
53923W        W10164  24.933  28.074  20.098  0.0105  0.1616 -0.0874
53924W        W10165  27.690  14.302   4.636  0.1927  0.4237  0.0695
53925W        W10166  12.804  20.331  24.810  0.0567 -0.2212 -0.0541
53926W        W10167  15.596  34.520  23.208  0.1086 -0.1264 -0.1283
53927W        W10168  13.455   3.465  25.588  0.0698  0.0295 -0.2162
53928W        W10169  17.896  17.285  10.331  0.2929 -0.0566 -0.0343
53929W        W10170   4.442  30.833  24.002 -0.0491  0.2055 -0.0233
53930W        W10171  20.213   1.224   2.101 -0.2059 -0.1849  0.0644
53931W        W10172   3.798  15.458   4.497 -0.3305 -0.0924  0.1485
53932W        W10173  31.332  19.548   9.355 -0.1290 -0.0101 -0.1456
53933W        W10174   3.551   4.771   9.426 -0.0376 -0.0295 -0.0488
53934W        W10175  23.853   2.740  13.607  0.1221  0.2067 -0.2827
53935W        W10176  30.174  30.935  16.822  0.0021  0.0190  0.0426
53936W        W10177  28.962   1.214  15.552 -0.2024  0.0235 -0.0685
53937W        W10178   8.517  21.483  24.027 -0.2354  0.0631  0.2905
53938W        W10179  13.409  15.384   8.932 -0.2436 -0.2298  0.0895
53939W        W10180  26.732  11.516   9.200 -0.2416 -0.3055 -0.0441
53940W        W10181  30.511  17.717  22.467 -0.6116 -0.0593 -0.0090
53941W        W10182  26.849   9.008  14.952  0.0971  0.1168 -0.1590
53942W        W10183   4.120  16.645  20.519 -0.1897  0.2601 -0.1996
53943W        W10184  10.819   1.814   6.007  0.1771  0.5203  0.1307
53944W        W10185   3.284  28.066  22.358  0.3289  0.0914 -0.0709
53945W        W10186  27.209   6.851  13.518 -0.1167  0.1332  0.0781
53946W        W10187   3.756   6.816   4.827 -0.1755 -0.2000  0.1959
53947W        W10188   9.632  25.728  16.735  0.2541 -0.3464 -0.0624
53948W        W10189   3.738  31.616  19.681  0.1645 -0.1731  0.2075
53949W        W10190  13.097   0.277  19.256  0.1691  0.1108  0.0779
53950W        W10191  32.702   4.816  19.390 -0.1215 -0.1031  0.3558
53951W        W10192  14.119   6.472   7.753 -0.0640 -0.2391 -0.0091
53952W        W10193  14.633  23.584  11.543 -0.1260  0.0031  0.0910
53953W        W10194   5.607  17.425   1.314  0.2745  0.1621 -0.0809
53954W        W10195  26.285  14.230   0.032 -0.0791 -0.0399 -0.2352
53955W        W10196  16.986  30.428   8.529  0.1691 -0.2685 -0.1948
53956W        W10197  21.655  33.922  14.574  0.0013  0.0523 -0.1410
53957W        W10198   9.913   7.676   2.916 -0.1675 -0.1365  0.2204
53958W        W10199  14.493   3.688  20.484 -0.1529  0.0463 -0.0149
53959W        W10200  22.926  25.616  26.237 -0.0289  0.0643  0.2271
53960W        W10201  11.832  19.107   2.145  0.0445 -0.0754  0.1109
53961W        W10202   7.161  32.896  22.539 -0.2703 -0.2878 -0.1040
53962W        W10203   9.387  13.847   5.039  0.0994  0.1725  0.1570
53963W        W10204  34.451  13.319   8.132  0.0650 -0.1968 -0.0613
53964W        W10205  31.837  18.317  21.432  0.1421 -0.1505  0.1111
53965W        W10206  12.509  21.623  24.723 -0.1020  0.0657  0.3227
53966W        W10207  21.951  31.335  18.129  0.1689 -0.0091  0.0993
53967W        W10208  21.515  17.146  17.210 -0.2644 -0.0389 -0.1566
53968W        W10209  34.449   3.600  18.541 -0.0953 -0.0997  0.1891
53969W        W10210  25.252  21.844  25.084  0.0651  0.2564 -0.2118
53970W        W10211  28.379  34.346  17.921 -0.1952 -0.1025  0.3454
53971W        W10212  27.825  31.497  14.484  0.1098 -0.3914  0.0140
53972W        W10213   6.036  13.089   7.698 -0.0820  0.1826 -0.1738
53973W        W10214   6.230  29.545  15.991 -0.0055 -0.1952  0.1130
53974W        W10215   2.460  19.721   2.222  0.0700  0.2129 -0.2053
53975W        W10216  32.768  27.134  23.356  0.1663 -0.0384 -0.3286
53976W        W10217  11.692   7.140  23.177 -0.0238  0.2314 -0.0831
53977W        W10218   4.026  34.808   0.219 -0.1717 -0.0978  0.0943
53978W        W10219  16.631  25.661  24.547 -0.2087  0.0482  0.2774
53979W        W10220  32.982  34.452  17.131 -0.3366  0.0327 -0.1401
53980W        W10221  32.437  15.089   7.700  0.1811 -0.0703 -0.1497
53981W        W10222  22.429  35.201  21.682 -0.1254 -0.1275  0.1336
53982W        W10223  16.575  14.344  19.355 -0.0672  0.2253  0.2303
53983W        W10224  24.590  34.074  23.350  0.2137 -0.2664 -0.3161
53984W        W10225  27.047  22.153  13.310  0.0812 -0.0407 -0.0607
53985W        W10226  19.591   3.674  21.257  0.0678 -0.0946 -0.0847
53986W        W10227  14.666  25.901   4.131 -0.0635 -0.0490 -0.1191
53987W        W10228  24.629  34.689   1.943  0.2318 -0.3511 -0.0976
53988W        W10229   8.381  22.170   8.122 -0.0323  0.2064 -0.0394
53989W        W10230   7.435  25.109  22.545 -0.1323 -0.0268 -0.1165
53990W        W10231   8.155   4.532  22.850 -0.1974  0.0433 -0.0556
53991W        W10232  32.104  13.502   7.330 -0.2112 -0.1061 -0.3740
53992W        W10233   9.147  21.414   3.597  0.0737 -0.2911 -0.0285
53993W        W10234   8.525  21.037   1.604  0.0208  0.4261 -0.2646
53994W        W10235  23.671  16.399  25.805 -0.0044  0.1726  0.0044
53995W        W10236  22.710  34.499  23.701 -0.2757 -0.1671  0.1685
53996W        W10237   0.686   4.288   4.017  0.2010 -0.2516  0.0799
53997W        W10238  27.739  32.148   3.847 -0.1099  0.5382 -0.2482
53998W        W10239  31.829  17.828   9.978  0.1954 -0.0000  0.1299
53999W        W10240  10.446  34.677  22.656 -0.3687  0.0979  0.0183
54000W        W10241  20.860  13.993  20.307 -0.2482  0.0799 -0.2883
54001W        W10242  33.752  22.135  24.163  0.3528  0.1687  0.0563
54002W        W10243   1.178   9.893  19.081  0.3673 -0.1108 -0.0048
54003W        W10244  18.841   0.191  21.402 -0.0900 -0.0579  0.4229
54004W        W10245  32.631  26.781  22.985 -0.2014  0.1672  0.0352
54005W        W10246  33.645   8.186  15.320  0.3725 -0.1576  0.1110
54006W        W10247  25.934  13.546  25.248 -0.0608 -0.2049  0.2397
54007W        W10248  10.633  34.374   5.578 -0.3228 -0.5140  0.1427
54008W        W10249  22.568  12.527  24.222 -0.0010  0.0803  0.3483
54009W        W10250  35.375   4.714  13.804  0.1003  0.1901  0.1585
54010W        W10251  18.768  15.091   6.143  0.2933  0.0723  0.6124
54011W        W10252   8.769  21.107  25.922 -0.0802  0.2178  0.2106
54012W        W10253  14.984   4.977   2.844  0.2762  0.2297  0.0659
54013W        W10254  16.210  29.386  23.156  0.1039  0.1446 -0.0006
54014W        W10255   7.416  32.070  11.201  0.0982 -0.0503 -0.1343
54015W        W10256  34.288   1.421  16.061 -0.1287  0.1577  0.1688
54016W        W10257  10.919   1.536   6.376 -0.3355 -0.0175  0.0882
54017W        W10258  11.238  20.862   0.211 -0.0091  0.1059  0.2266
54018W        W10259   7.523  28.855   3.882 -0.0169 -0.0137 -0.1651
54019W        W10260   5.727  18.519   1.073 -0.1555 -0.5039  0.0989
54020W        W10261  12.109  22.176   5.985  0.0439 -0.0995 -0.2530
54021W        W10262  34.849  30.457  25.828  0.1772 -0.4705 -0.2411
54022W        W10263   0.477  20.298  13.418 -0.0967  0.0554 -0.0379
54023W        W10264  32.556  26.022  25.961 -0.0550 -0.1888 -0.0885
54024W        W10265   0.421   5.904  17.387 -0.0290 -0.0468  0.1090
54025W        W10266  17.209  10.536  19.788 -0.3223 -0.0323  0.1615
54026W        W10267  32.165   3.266   5.030 -0.0119 -0.0104 -0.0593
54027W        W10268   8.986  32.636  13.223 -0.2811 -0.1391  0.2676
54028W        W10269  25.819  14.023  20.751  0.0615  0.4361 -0.0593
54029W        W10270  17.166  13.831  12.752  0.4528  0.0313  0.1993
54030W        W10271  11.207  33.910   6.861  0.2155  0.1916 -0.0220
54031W        W10272  25.529  32.148  15.685 -0.0682  0.1946  0.2473
54032W        W10273  14.691  20.133   9.821  0.2190  0.1598 -0.2560
54033W        W10274   2.422  16.966  13.386 -0.1154 -0.0237 -0.0786
54034W        W10275  33.749  26.258  16.276  0.0983  0.1206 -0.1526
54035W        W10276  26.971  26.208  17.479 -0.1712 -0.3560  0.2663
54036W        W10277  10.954  14.711   5.759  0.0038 -0.4350 -0.3148
54037W        W10278  11.184  13.528   5.935 -0.0836  0.0009  0.1163
54038W        W10279  10.802  15.575   2.154  0.1159  0.4844 -0.1036
54039W        W10280  12.978   8.156  20.808  0.1289  0.0520 -0.0765
54040W        W10281  26.167   6.656  16.005 -0.0712  0.0645 -0.2150
54041W        W10282  31.802  16.647   8.315 -0.1996  0.5430 -0.1997
54042W        W10283  11.916  25.085   6.961 -0.3702  0.0322 -0.2294
54043W        W10284  16.773  13.184   7.786  0.0511  0.0448 -0.1754
54044W        W10285  11.007  10.931  13.888 -0.0983 -0.1270  0.0092
54045W        W10286  21.468  18.465  20.361 -0.0579 -0.0237 -0.1433
54046W        W10287  23.524   0.723   2.092  0.3050 -0.2359  0.0203
54047W        W10288   1.729  10.878  16.112  0.0227 -0.1876 -0.0765
54048W        W10289  12.324  11.438   0.100 -0.1988  0.2580  0.0794
54049W        W10290  27.635  27.158  16.079  0.2362  0.1811  0.1282
54050W        W10291  25.830   0.226  12.936 -0.2631 -0.1060  0.1263
54051W        W10292   7.379  20.071  10.970 -0.5054  0.0146  0.0231
54052W        W10293  35.149  20.068  25.251 -0.0653  0.3137  0.1520
54053W        W10294   6.558   1.865   6.899 -0.2445 -0.0612 -0.1431
54054W        W10295   7.519  25.744  10.611 -0.1991 -0.0568 -0.0003
54055W        W10296   6.057   9.496   1.980  0.0128  0.1830  0.1373
54056W        W10297  21.322  28.609  24.274  0.0610  0.1401  0.1448
54057W        W10298  32.201   4.755   6.421  0.2975  0.0511  0.2056
54058W        W10299   2.824  24.410   0.483 -0.1275 -0.0674 -0.0076
54059W        W10300   1.732   4.001  15.546  0.1084 -0.0973 -0.3244
54060W        W10301  19.357   2.676  20.261  0.3062 -0.1330 -0.1418
54061W        W10302  19.182  33.898   3.241  0.2639  0.0331  0.3242
54062W        W10303  18.883  34.313   3.416 -0.0643  0.0334 -0.1795
54063W        W10304  25.999  16.229  24.342 -0.1464  0.3177  0.0476
54064W        W10305  18.155   7.810  21.426 -0.0074 -0.0991  0.3177
54065W        W10306   9.311   8.070   1.381  0.3703  0.0530 -0.2831
54066W        W10307   8.282  31.648  11.220  0.1194  0.0457  0.1202
54067W        W10308   9.032  21.582  10.757  0.4090 -0.0525  0.0010
54068W        W10309  29.809  28.547  24.689  0.0893 -0.2125  0.1706
54069W        W10310  23.144  11.644  22.712 -0.0165 -0.0755 -0.0102
54070W        W10311  12.422  27.958  12.528 -0.1347 -0.1243  0.5807
54071W        W10312  20.195   4.948  21.012  0.0708  0.0500  0.1318
54072W        W10313   8.517  27.798  25.899 -0.0443 -0.2490 -0.3053
54073W        W10314  18.995  25.869   7.920 -0.1043  0.1562  0.2049
54074W        W10315  27.145   5.431  20.009  0.1127  0.0252  0.1930
54075W        W10316   9.841  34.518   6.053 -0.0061 -0.3308  0.0074
54076W        W10317  34.438  18.513   8.885 -0.0979 -0.0466  0.0019
54077W        W10318  12.014  23.576  25.124 -0.2670 -0.0146  0.0795
54078W        W10319  34.209  16.028   0.045 -0.0852 -0.2116 -0.3694
54079W        W10320  29.479  20.316  20.822 -0.1495  0.2301  0.1210
54080W        W10321   6.492   0.328  21.585  0.0415 -0.1138 -0.0619
54081W        W10322  23.768  18.924   1.495  0.2982 -0.1401  0.0236
54082W        W10323  12.972  15.843  21.603 -0.2958  0.1483 -0.1881
54083W        W10324  27.606   5.041  11.041 -0.1600  0.1862  0.0690
54084W        W10325  28.628  13.138  25.481  0.0914 -0.0783  0.1405
54085W        W10326   7.000  26.560  10.729 -0.0291  0.0665 -0.1315
54086W        W10327  33.248   8.978  16.679  0.1227  0.1364  0.0144
54087W        W10328  21.401  20.832   2.731 -0.0367  0.1963  0.3229
54088W        W10329  14.131   9.818  21.828  0.0988 -0.0224 -0.0225
54089W        W10330  23.618  28.149  12.532  0.3703 -0.1715 -0.0923
54090W        W10331  16.463  17.800  22.791  0.2088  0.0501  0.1687
54091W        W10332   3.260   6.408   8.519  0.0038 -0.1083 -0.2270
54092W        W10333  31.327   1.667  13.137  0.1373  0.1529 -0.2501
54093W        W10334  22.052  33.235  20.572 -0.1014  0.1033  0.4436
54094W        W10335  13.933   6.870   1.428 -0.3072 -0.0875 -0.0185
54095W        W10336  34.807  23.431  12.331  0.0997  0.3933  0.1092
54096W        W10337  34.788  10.872  16.589  0.1529  0.2949 -0.1000
54097W        W10338  26.207  30.549   0.367  0.1560 -0.3229 -0.0921
54098W        W10339  11.774  20.584  21.993 -0.0417  0.0846 -0.1684
54099W        W10340  28.810  11.879   6.954  0.0753 -0.0998  0.3683
54100W        W10341   7.018  26.924  22.595 -0.0972  0.4339 -0.0141
54101W        W10342   9.304   8.058   2.912  0.0230 -0.1263  0.1843
54102W        W10343  26.387   5.400  17.105 -0.2124 -0.3860  0.2634
54103W        W10344   4.837  16.629  19.477 -0.2990 -0.0124 -0.0886
54104W        W10345   4.145  24.850  19.861 -0.1271  0.2564 -0.0008
54105W        W10346  26.894  19.549  14.429  0.0438  0.0468  0.0639
54106W        W10347  32.913  17.966  17.985  0.2309  0.0772  0.1132
54107W        W10348   6.366  25.127  12.800  0.2631 -0.3241 -0.1261
54108W        W10349   7.943  30.867   3.885 -0.0208  0.1579 -0.0970
54109W        W10350  25.488  26.909  22.439  0.2133 -0.1965 -0.0396
54110W        W10351  32.059   3.461   1.739 -0.0197 -0.0379 -0.0161
54111W        W10352  29.137  17.200  12.320 -0.0079  0.1642 -0.0579
54112W        W10353  15.376   3.873  18.708 -0.1081  0.0448  0.0554
54113W        W10354   6.257  26.108   5.404  0.1598 -0.3837  0.4276
54114W        W10355   2.229  21.228  22.679  0.2493  0.2741 -0.0869
54115W        W10356  29.906  31.426  24.132  0.0375 -0.0389  0.2542
54116W        W10357  20.293   5.233  18.053 -0.0780  0.2276 -0.0525
54117W        W10358   8.103   3.185  19.552 -0.2590 -0.3345  0.0722
54118W        W10359   0.607  24.891  15.958  0.1907  0.1191  0.1397
54119W        W10360   9.086  23.175  23.412 -0.0321 -0.1502 -0.2092
54120W        W10361  35.297  31.631   9.158 -0.0305 -0.0686 -0.1521
54121W        W10362  16.018  17.273   5.864  0.2074 -0.0116  0.0129
54122W        W10363  31.713   5.905   2.261  0.0857  0.4517  0.2002
54123W        W10364  10.709  31.102  14.739  0.2164 -0.1186  0.0349
54124W        W10365  24.010  26.306  17.240  0.0082  0.2090 -0.3769
54125W        W10366  25.624  25.753  25.846  0.0985 -0.1704  0.0985
54126W        W10367  10.955  12.158   9.409  0.0682 -0.0082  0.2176
54127W        W10368  14.091  29.276  22.091  0.1513  0.0383 -0.1583
54128W        W10369  10.165   7.228   3.135  0.2639  0.0947  0.1185
54129W        W10370  15.723  27.738   6.465 -0.0282  0.0457 -0.0705
54130W        W10371  34.994  24.536  14.694  0.2617 -0.1481 -0.0849
54131W        W10372  13.839  34.242   1.946  0.2158  0.0059 -0.1057
54132W        W10373  32.656   9.206  15.395  0.2160  0.0126  0.3028
54133W        W10374  25.382  16.416  14.806 -0.0027  0.1361  0.0693
54134W        W10375  12.521  31.100  11.118 -0.0755  0.3075  0.0202
54135W        W10376  12.430  10.713  20.227  0.2799 -0.0368  0.1856
54136W        W10377  12.415   7.199  11.885  0.1521  0.1685 -0.0074
54137W        W10378   4.899  25.640  21.409 -0.0213  0.0358  0.0970
54138W        W10379   0.883  14.364  13.377 -0.1084 -0.1600  0.1859
54139W        W10380   2.611   2.943  16.676  0.1977  0.1057  0.5731
54140W        W10381  18.160  22.769  26.051  0.0461 -0.1907 -0.0890
54141W        W10382   9.589  18.841   1.050  0.1479  0.0182 -0.1744
54142W        W10383  27.269  27.849  13.523 -0.2049 -0.1722 -0.2851
54143W        W10384   9.219   0.386   6.767 -0.0084 -0.2267 -0.0348
54144W        W10385  17.058  16.691   4.441 -0.0017 -0.0144 -0.2817
54145W        W10386  21.311   3.789  23.140  0.0684  0.0601 -0.0532
54146W        W10387  12.295  13.181   5.708  0.4005  0.1023  0.2197
54147W        W10388  15.362  23.982  14.067  0.0896  0.4228  0.2270
54148W        W10389  15.126   7.752  23.366  0.1613  0.0155 -0.3517
54149W        W10390  30.892   0.494  15.830 -0.1576 -0.1030  0.1224
54150W        W10391   7.627  17.812   8.714 -0.0205 -0.2051  0.2049
54151W        W10392  26.686  22.161  13.754 -0.2087  0.1418 -0.0831
54152W        W10393  26.835  27.056   0.286 -0.0063  0.1246  0.1141
54153W        W10394  18.707   8.948  11.097  0.0904  0.1040  0.2647
54154W        W10395  11.126  11.142   3.995 -0.1631 -0.2967  0.2862
54155W        W10396   7.643  22.760   0.110  0.1623 -0.0549  0.2176
54156W        W10397   8.976  13.726  25.723 -0.1477  0.1429  0.4618
54157W        W10398   9.474  31.461  23.954  0.0224 -0.1162  0.4494
54158W        W10399  21.985   7.568  25.267 -0.0908 -0.0059  0.4267
54159W        W10400   2.498   9.758  20.269  0.2732 -0.2618 -0.1593
54160W        W10401  14.461   9.457  22.006 -0.0203 -0.0218 -0.1488
54161W        W10402  15.163  22.327  25.192 -0.3930  0.1328  0.0201
54162W        W10403  22.417  21.991  25.233  0.0057 -0.1276 -0.0949
54163W        W10404   1.198  27.558  19.488  0.2231  0.1484  0.2391
54164W        W10405  23.873  13.983  15.086  0.1238  0.2119  0.0992
54165W        W10406  16.796   0.903  23.053  0.1328 -0.0328 -0.3577
54166W        W10407  19.815   9.609  18.133  0.0170  0.2248 -0.1679
54167W        W10408  10.659  30.198  13.963 -0.0611 -0.2285 -0.1335
54168W        W10409  17.323  35.016  24.560  0.4028 -0.1269 -0.1181
54169W        W10410   1.682  14.584  13.897 -0.2520 -0.2308  0.2093
54170W        W10411  30.663   5.878  15.681 -0.1924  0.2983 -0.0017
54171W        W10412   8.771  34.343   1.383  0.0442  0.2212  0.0903
54172W        W10413  18.753  21.463  23.901  0.2612  0.0169 -0.2310
54173W        W10414  32.669   9.087  23.848  0.2997 -0.0276 -0.1324
54174W        W10415  21.703  19.747  25.120  0.1624 -0.1051  0.0852
54175W        W10416  15.207  28.733  13.380 -0.2106  0.2398  0.3657
54176W        W10417  29.394  20.952  11.765 -0.1132 -0.1241  0.0189
54177W        W10418  10.140   8.405  22.457 -0.1199 -0.1218  0.1520
54178W        W10419  12.836  25.878  16.432  0.0505  0.0577  0.0103
54179W        W10420   5.081   7.518  23.483 -0.1501  0.0774 -0.0091
54180W        W10421   5.121   2.155  26.041  0.1153  0.3625  0.0979
54181W        W10422  24.329  21.043  18.701  0.2450  0.2558  0.2702
54182W        W10423  17.583  16.152   6.180 -0.0378 -0.2209 -0.1941
54183W        W10424   2.130   1.522   6.898  0.0701  0.1445 -0.3207
54184W        W10425   6.711   9.840  25.800 -0.0659  0.0176 -0.1475
54185W        W10426  13.240   9.376  10.310 -0.0941  0.2255  0.1563
54186W        W10427  34.340  25.514  24.617 -0.2183  0.3778  0.0130
54187W        W10428  34.422   2.293  16.972  0.0990 -0.3692 -0.0549
54188W        W10429  28.292   7.583  15.801  0.0082  0.0261  0.0283
54189W        W10430   3.115  34.721   6.768 -0.1193  0.2078  0.0640
54190W        W10431   3.085   1.464   1.533 -0.2179  0.2500 -0.1199
54191W        W10432   8.244  13.036  19.482 -0.0672 -0.0909  0.0573
54192W        W10433  12.185  31.547  24.328 -0.2964  0.2693 -0.0306
54193W        W10434  10.878   5.877   4.729 -0.3733 -0.0228  0.0904
54194W        W10435  27.835  20.794  22.193 -0.1937 -0.0029  0.0623
54195W        W10436  22.570  20.896  25.404  0.0244 -0.2769  0.2116
54196W        W10437   8.490  27.355   5.664  0.0354  0.0242 -0.2105
54197W        W10438   2.503  20.288  19.729  0.1232  0.1702  0.0743
54198W        W10439  14.532   3.670  19.685  0.0448 -0.2145 -0.3276
54199W        W10440   8.364  16.396  18.889 -0.0859  0.1619  0.1947
54200W        W10441   1.187  31.851   2.604  0.0079 -0.1199  0.1160
54201W        W10442  29.993  34.087  14.602 -0.0039 -0.0619 -0.1431
54202W        W10443  17.745  16.412  19.118  0.0999 -0.2481  0.0409
54203W        W10444  29.349  31.528  23.553  0.0832  0.1929 -0.0217
54204W        W10445  34.305   8.416  21.971 -0.0600 -0.1929  0.1492
54205W        W10446   2.550   2.115   8.369  0.0669  0.1553  0.0408
54206W        W10447  13.755  11.697   8.380  0.1534 -0.0130 -0.1189
54207W        W10448  35.099  26.246  14.434 -0.0713 -0.0534  0.0560
54208W        W10449  19.191  13.109   3.413  0.2254  0.0425 -0.2011
54209W        W10450   8.389  24.237   3.895 -0.2027  0.1535 -0.1656
54210W        W10451   7.942  30.154  24.782 -0.1408  0.2358  0.3375
54211W        W10452   6.092  12.291  23.062 -0.1534 -0.0771  0.0094
54212W        W10453  24.225   2.181  13.729 -0.0127  0.0934 -0.2210
54213W        W10454  32.244  20.832  25.864 -0.0386 -0.0872  0.0665
54214W        W10455  19.187  35.372  22.933  0.3438  0.2929 -0.1099
54215W        W10456  27.542  16.160   5.835  0.1561 -0.1127 -0.2385
54216W        W10457  34.069   1.127   0.340 -0.0163 -0.0893 -0.1515
54217W        W10458   7.755  15.595  20.312  0.1015  0.0309  0.0727
54218W        W10459  17.517  17.905  19.230 -0.0897 -0.4485 -0.3641
54219W        W10460  27.867   8.113  13.931  0.2934 -0.2292 -0.0487
54220W        W10461   9.446  14.591   7.470 -0.5805 -0.0962 -0.1802
54221W        W10462   4.173   8.556  18.472  0.3096 -0.1287  0.1078
54222W        W10463  23.926  33.314  18.713  0.1404 -0.0315  0.0364
54223W        W10464   4.708  26.867  12.636 -0.0504  0.1247  0.0057
54224W        W10465   1.061  28.750   1.662 -0.0532  0.2887  0.2184
54225W        W10466  28.807   5.171  20.738  0.0229 -0.0688 -0.2676
54226W        W10467   6.337  21.545   0.463 -0.1557  0.0740  0.0061
54227W        W10468   9.492   4.618  14.414  0.0806 -0.1435  0.0029
54228W        W10469  20.789  19.696  18.971 -0.0025  0.3457  0.0902
54229W        W10470  11.723  12.688   7.514 -0.1030  0.2757 -0.0066
54230W        W10471  28.825  34.360   0.495 -0.1791 -0.0166 -0.1269
54231W        W10472  12.095  28.039   6.161 -0.2181  0.1779  0.1836
54232W        W10473  29.691  31.656  20.384  0.0374  0.1858  0.1667
54233W        W10474  31.760  19.617  15.220 -0.3641 -0.2706  0.1475
54234W        W10475  35.138  16.155  13.397 -0.1504 -0.3476 -0.3116
54235W        W10476  16.796  16.207  23.525 -0.0694 -0.1481  0.3314
54236W        W10477  15.069  35.155   1.878 -0.0654  0.0173  0.1915
54237W        W10478  18.195  15.322   4.576  0.2140 -0.0301 -0.2759
54238W        W10479  27.023  16.107  19.450  0.1195 -0.2331  0.2088
54239W        W10480  14.555  16.346  25.971 -0.1475 -0.1497 -0.0673
54240W        W10481   5.593   7.543   2.775  0.0302 -0.0270  0.2806
54241W        W10482  26.115  34.621  12.590  0.3234  0.3079 -0.0397
54242W        W10483  20.495   0.190  22.384 -0.5399  0.1185  0.0875
54243W        W10484  12.154  23.337   7.222  0.0779  0.1016 -0.2077
54244W        W10485  27.135  12.719  23.530 -0.0494 -0.0770  0.0969
54245W        W10486  26.074  14.143  25.802 -0.3970 -0.0831 -0.1305
54246W        W10487   8.418   5.293  18.942  0.0861 -0.0600 -0.0818
54247W        W10488  21.030  22.819  22.960 -0.0469  0.0920  0.0558
54248W        W10489   8.687   5.662  20.220 -0.0250 -0.1271  0.1386
54249W        W10490  24.702  33.778  25.908 -0.1833  0.0276  0.4371
54250W        W10491  31.382   2.800  13.543  0.0949  0.1814  0.2229
54251W        W10492  23.319  11.287  22.400 -0.1884  0.0131  0.0057
54252W        W10493   2.888   4.930   6.419  0.1490 -0.0481  0.2339
54253W        W10494   6.341   5.787   6.617  0.2795 -0.0582 -0.0856
54254W        W10495  18.506   8.970  21.062 -0.2390 -0.1822 -0.3321
54255W        W10496  29.365  18.550  16.955  0.2171  0.1064  0.3383
54256W        W10497  27.035  28.751   1.927 -0.0698  0.1153 -0.1482
54257W        W10498  26.302  18.274  14.554  0.1986 -0.0451  0.0559
54258W        W10499  33.348  28.500  16.771 -0.1202  0.1574 -0.0036
54259W        W10500   4.396  34.719   9.962 -0.4515  0.3660  0.2102
54260W        W10501   1.129  27.823   0.684  0.0345 -0.0127 -0.0156
54261W        W10502   5.555   5.260  23.833 -0.3769 -0.2335 -0.2042
54262W        W10503   8.398  17.300  12.746  0.1169 -0.1001 -0.2465
54263W        W10504  14.746   0.054   9.883  0.3894  0.4924  0.0904
54264W        W10505   0.553  20.594  12.108  0.2211 -0.1582  0.2571
54265W        W10506  13.728   3.667  22.005  0.0335 -0.0259 -0.0857
54266W        W10507  26.402  11.850  19.571 -0.3252 -0.1730 -0.0545
54267W        W10508   9.033  25.646  11.649 -0.1273  0.1423  0.0679
54268W        W10509  18.904  23.061  21.042  0.1886  0.3893 -0.2965
54269W        W10510  29.230  20.437   9.304  0.1937 -0.2227 -0.4305
54270W        W10511   9.786  34.123   4.054 -0.0628 -0.2860 -0.1867
54271W        W10512   2.915   2.196   6.851 -0.1517  0.0542 -0.2425
54272W        W10513   2.600   8.080  19.507  0.1785 -0.2156  0.1587
54273W        W10514  25.918  23.717  25.553  0.1199 -0.1164  0.2175
54274W        W10515  34.997   6.305  14.280  0.1591 -0.1095 -0.0390
54275W        W10516  10.949   7.910  24.376  0.1929  0.1327  0.2896
54276W        W10517  28.747  19.376  20.978  0.0969  0.1426  0.0627
54277W        W10518  27.216  22.246   5.991  0.0857  0.0914 -0.2009
54278W        W10519  16.299  12.731  21.536  0.3518  0.0883  0.0910
54279W        W10520  25.240  16.767  19.971 -0.0300 -0.0093  0.0191
54280W        W10521  15.502   7.954   4.094  0.0942  0.0575  0.0334
54281W        W10522  28.987  11.818   9.921 -0.1062 -0.0743 -0.3411
54282W        W10523  31.351   2.505  20.962  0.2776  0.2028  0.1875
54283W        W10524   7.576  25.575   2.672 -0.0569  0.1964 -0.2987
54284W        W10525   6.420  18.332  19.347 -0.1311  0.1065  0.3855
54285W        W10526  13.799   2.348  20.891  0.0651  0.1408  0.0834
54286W        W10527  15.882   3.869  20.817 -0.1752 -0.0069 -0.3685
54287W        W10528  34.151  31.486  21.536 -0.1266 -0.4420  0.0075
54288W        W10529   1.813  28.735   2.029  0.1195 -0.0899  0.0124
54289W        W10530  17.195  14.666   3.909  0.1108  0.2886  0.1587
54290W        W10531  23.852  13.858  14.176  0.0363  0.1138  0.1662
54291W        W10532  24.454  30.953  13.958 -0.1057 -0.4223  0.0791
54292W        W10533   8.186  26.851  11.590 -0.2252  0.0193 -0.2217
54293W        W10534  22.085  33.183   4.970  0.0406  0.1711  0.0827
54294W        W10535  24.752  26.070  15.206  0.1987 -0.0155  0.0471
54295W        W10536  10.052  29.321   9.232 -0.0487 -0.1993 -0.2055
54296W        W10537  12.993  23.268   9.334 -0.1095 -0.0572 -0.2116
54297W        W10538  14.482  34.493   4.891 -0.0727  0.2073  0.0497
54298W        W10539  29.981  26.882  11.418  0.0127 -0.2090  0.0787
54299W        W10540  17.854   3.666   8.397 -0.0170 -0.3112  0.1306
54300W        W10541  33.869  32.386  25.038  0.4546 -0.1487 -0.0837
54301W        W10542  15.911  16.707   4.738 -0.2408 -0.0841 -0.3313
54302W        W10543   8.586  11.302   1.835  0.2064 -0.3223 -0.2741
54303W        W10544  21.537   7.416   3.201 -0.1744 -0.0112 -0.0050
54304W        W10545  31.766  19.474  13.517  0.3325 -0.2394  0.0157
54305W        W10546   4.551  29.967  22.263 -0.2938  0.1847  0.0162
54306W        W10547  16.059  22.247  22.569 -0.1427  0.0970  0.3744
54307W        W10548   0.029  33.738   8.004 -0.0651 -0.3624 -0.0661
54308W        W10549  19.900   8.050  25.512  0.1354  0.1881  0.1635
54309W        W10550   8.847  14.042  25.352 -0.0318 -0.0157  0.1026
54310W        W10551  17.819  18.998   6.615 -0.0862 -0.1733  0.0562
54311W        W10552  17.390  16.506   5.476 -0.2001  0.2512 -0.1969
54312W        W10553  24.529   0.035   2.521  0.3211 -0.3437 -0.0641
54313W        W10554  30.226  34.077   2.541 -0.1294  0.4823  0.0058
54314W        W10555  30.165  22.986  17.068 -0.3510 -0.1948  0.1421
54315W        W10556   6.940  27.277   6.139  0.3134 -0.2480 -0.0603
54316W        W10557  24.674  28.392   2.207  0.1918 -0.1940  0.1311
54317W        W10558   9.035  27.328  11.340  0.1741 -0.3935 -0.0448
54318W        W10559  26.871   1.766  12.547  0.1575 -0.5125  0.2234
54319W        W10560   3.027  31.137   9.450 -0.0850 -0.1056  0.0011
54320W        W10561  24.248  16.037  23.907 -0.3059  0.2062  0.0201
54321W        W10562   9.030   2.351  26.185 -0.0085  0.3690 -0.1373
54322W        W10563  25.365   2.136  25.112  0.1118  0.4142 -0.2305
54323W        W10564   2.282  19.394   0.353 -0.2992  0.3441  0.1107
54324W        W10565   1.435  23.963  23.103  0.1551  0.0793 -0.2303
54325W        W10566  18.772   5.673  22.646  0.1407  0.3087  0.0735
54326W        W10567   2.562  18.798  20.860 -0.1098 -0.1081 -0.1286
54327W        W10568  26.615   1.990   3.851  0.1446  0.0511 -0.2577
54328W        W10569  28.283  21.370  15.787  0.1459 -0.0592  0.4431
54329W        W10570  16.122  33.883  21.904  0.0592 -0.3688 -0.4838
54330W        W10571  16.636   5.751   0.592  0.0400 -0.1604  0.1303
54331W        W10572   1.073  17.213  23.249 -0.4388 -0.2691  0.1701
54332W        W10573   7.508   3.957  25.357  0.3660 -0.0428 -0.2472
54333W        W10574  33.553   5.055  25.329 -0.0132  0.4990 -0.2086
54334W        W10575   6.943  13.568   3.507  0.1922 -0.0143  0.1267
54335W        W10576  28.843  15.800  20.730 -0.2089  0.0401 -0.0201
54336W        W10577  32.906   9.059   1.814  0.1474  0.0142 -0.1798
54337W        W10578   1.758  25.186  18.901 -0.0307  0.0427  0.0460
54338W        W10579  12.805  26.764   4.340 -0.1204 -0.0351 -0.2095
54339W        W10580   5.380  14.354   7.623  0.0691  0.0717  0.3179
54340W        W10581  10.111   0.040  23.937  0.1196 -0.0672 -0.2615
54341W        W10582   1.095  27.534  24.092 -0.0861 -0.0520  0.0364
54342W        W10583  14.534   0.383   4.717  0.0599 -0.0329  0.1499
54343W        W10584  21.610  20.115  16.054  0.0225  0.0258  0.0644
54344W        W10585  25.441  26.859  18.960 -0.1126  0.0694  0.0901
54345W        W10586  13.345  16.354   1.883 -0.2587 -0.1613 -0.3136
54346W        W10587  25.614   5.918  24.109  0.0721 -0.1876 -0.1915
54347W        W10588  33.393  18.521  16.629 -0.2287  0.1158 -0.0390
54348W        W10589  17.630  17.272  25.949 -0.1254 -0.0827  0.1385
54349W        W10590  30.252  20.989  11.992  0.0298 -0.1601 -0.1674
54350W        W10591  31.829  24.989  22.586  0.2143 -0.1415  0.0448
54351W        W10592  27.307   8.243  24.257  0.0425  0.4077  0.1193
54352W        W10593  29.138  30.160  15.517  0.2753  0.1116 -0.0080
54353W        W10594  25.570  27.382  22.650 -0.1446 -0.0694  0.1661
54354W        W10595   2.324  19.531   0.815  0.1545  0.1155 -0.1485
54355W        W10596  17.426   6.430  11.604  0.0883 -0.2591  0.0658
54356W        W10597  24.828  25.686  17.753  0.2789  0.0668 -0.1100
54357W        W10598  26.445   6.467  22.105  0.0296 -0.0276  0.0970
54358W        W10599  13.371  17.689  11.329  0.1239  0.1297 -0.0153
54359W        W10600  11.487   9.226  22.133  0.0627  0.1046  0.1275
54360W        W10601  20.247  27.002   3.939 -0.2916  0.0500 -0.0858
54361W        W10602  12.810  10.577  24.826 -0.0237 -0.1003  0.2548
54362W        W10603   3.004  12.776  17.664 -0.2133  0.0087 -0.0049
54363W        W10604  12.236  20.099  16.029  0.2322 -0.3062 -0.2719
54364W        W10605  32.425  34.479  23.787  0.0808 -0.2066  0.2108
54365W        W10606  18.257  24.615   7.673 -0.3240 -0.0595  0.4638
54366W        W10607  14.444  15.314   7.128 -0.0922  0.0492  0.1062
54367W        W10608  26.208   5.199   0.348  0.2674  0.1535 -0.0365
54368W        W10609  25.911  29.447  14.338 -0.0238  0.1878 -0.0086
54369W        W10610   8.444  30.319  11.476 -0.0464 -0.2252  0.0097
54370W        W10611  31.532  15.606  11.649 -0.0101  0.2334  0.2141
54371W        W10612  23.759  12.935  20.042  0.3456 -0.0920  0.0384
54372W        W10613  24.821  20.419   1.025  0.0029  0.3776 -0.0801
54373W        W10614   5.000   9.538   6.951 -0.3097  0.0903  0.0546
54374W        W10615  29.594   0.382  19.454  0.2657  0.1087  0.1335
54375W        W10616   2.268  25.904   2.004 -0.0159 -0.0670  0.0348
54376W        W10617  30.023  21.144   9.859 -0.1951 -0.0406  0.0913
54377W        W10618  28.860  34.876   1.366 -0.2148  0.0740  0.0610
54378W        W10619  11.561  22.022  23.921 -0.3945 -0.2171 -0.1891
54379W        W10620  29.864  32.515  12.345 -0.2049 -0.0052  0.0607
54380W        W10621   0.049  21.077  25.466  0.0369 -0.0925  0.1626
54381W        W10622  27.902  26.402   9.511  0.4476 -0.3655 -0.2819
54382W        W10623   7.643  31.080  16.125 -0.0786 -0.2007  0.0300
54383W        W10624   7.486  11.730  21.268 -0.0078 -0.0054 -0.1769
54384W        W10625   8.452   5.767  24.595 -0.1189 -0.2492 -0.0130
54385W        W10626  20.535  24.015  23.581 -0.0277 -0.1904 -0.2094
54386W        W10627  33.658   3.582   5.038  0.3269  0.0670 -0.0826
54387W        W10628   1.203   4.874  20.424  0.0724 -0.3255 -0.0232
54388W        W10629  33.707  27.416   2.906  0.0078 -0.0672  0.3385
54389W        W10630   6.437  32.001  11.139  0.3037  0.3145 -0.2174
54390W        W10631  12.499  30.068  26.036  0.0757  0.3076 -0.0406
54391W        W10632  18.590  24.156  24.156  0.1412 -0.1418  0.0130
54392W        W10633  30.245  17.081  21.291  0.0700 -0.1522  0.0635
54393W        W10634   4.103   4.000  18.609 -0.1755  0.1526 -0.0978
54394W        W10635   0.487  23.430   2.232 -0.0832  0.2044 -0.0006
54395W        W10636   2.720  31.837   7.774 -0.0182  0.2517 -0.0695
54396W        W10637   5.553  33.717  22.489  0.2469  0.1897 -0.3263
54397W        W10638   3.492   5.338   0.979 -0.0499  0.3222  0.2092
54398W        W10639  17.630  24.421   8.315 -0.2654 -0.1190 -0.2066
54399W        W10640   2.064  34.889  26.082 -0.1538  0.1855  0.0262
54400W        W10641  11.654   3.969   2.718  0.0082  0.2381  0.2937
54401W        W10642  10.045   7.361  21.340  0.1996 -0.3236 -0.1041
54402W        W10643  30.723  29.184  14.376 -0.0733 -0.0877 -0.2657
54403W        W10644  12.859  11.930   9.978  0.2443  0.3243  0.2919
54404W        W10645   7.708  15.445  11.712 -0.1099 -0.2726 -0.1810
54405W        W10646  32.987  30.697  23.381  0.1089  0.2681 -0.1162
54406W        W10647   2.465  14.176  25.439 -0.0061  0.4485 -0.0815
54407W        W10648   2.401  13.120  16.093 -0.3144 -0.2798  0.0303
54408W        W10649  26.596  33.147  13.559  0.4529 -0.1259 -0.3250
54409W        W10650   6.995   2.872  23.219  0.1476  0.3543 -0.0245
54410W        W10651  28.026  28.054   0.477  0.3083 -0.0501 -0.0434
54411W        W10652   1.719  33.306  20.959 -0.0922 -0.0629 -0.3326
54412W        W10653  15.390  28.376   6.062  0.2430 -0.0672  0.0959
54413W        W10654  14.059  11.673   7.963 -0.1184 -0.3545  0.0773
54414W        W10655   5.549   9.576   9.132  0.3258 -0.0980  0.0438
54415W        W10656  20.024  12.782   0.050 -0.1659  0.0841  0.3071
54416W        W10657   0.691  27.198  23.419 -0.1367  0.1023  0.0092
54417W        W10658  34.389  19.687  23.240  0.1057 -0.1496 -0.1706
54418W        W10659   0.142  18.964   0.822  0.3935  0.3990 -0.1416
54419W        W10660  23.583  25.487   1.106 -0.0111 -0.0173  0.3126
54420W        W10661  11.970  22.250  12.498  0.0642 -0.1691 -0.0775
54421W        W10662  17.312  27.412  23.501 -0.0028 -0.3831  0.1732
54422W        W10663  12.198  14.243   1.158  0.2274 -0.0529  0.0563
54423W        W10664  12.666  25.587   5.211  0.1524 -0.3982 -0.3308
54424W        W10665  33.921  15.028  24.398  0.1047 -0.1116  0.1394
54425W        W10666  34.284  10.712  12.525 -0.0849 -0.3352 -0.0236
54426W        W10667  16.110  13.622   0.289 -0.1308  0.0097  0.3043
54427W        W10668  16.594  18.111  20.794 -0.1807 -0.0425 -0.0861
54428W        W10669   6.327  12.662   9.531 -0.4370 -0.0608 -0.0284
54429W        W10670   5.445  26.993  10.089 -0.2369  0.0134 -0.2239
54430W        W10671  20.073  28.503   5.630 -0.2664 -0.0347 -0.2263
54431W        W10672   8.243  18.428  19.815 -0.1283  0.0633 -0.1557
54432W        W10673   9.941  32.964  14.706 -0.1830  0.1264  0.0252
54433W        W10674  15.930  29.004  25.254 -0.3218 -0.1357  0.0199
54434W        W10675   0.041   7.693  20.781  0.1384  0.0714 -0.1300
54435W        W10676   6.306  15.157   8.155 -0.1428  0.0467  0.0314
54436W        W10677  11.980   6.220   7.810 -0.0683  0.0441  0.2507
54437W        W10678  28.904  29.846   1.348  0.0840 -0.2012  0.1551
54438W        W10679   4.430  32.892  19.899 -0.1342 -0.0062 -0.2844
54439W        W10680  17.376   2.986  10.110 -0.3554  0.1505 -0.4419
54440W        W10681  13.266  16.808   2.087 -0.1449 -0.1221  0.0503
54441W        W10682  13.619  16.427  10.175  0.1304 -0.1974 -0.2287
54442W        W10683   1.523  20.694  24.486  0.3531  0.0689 -0.1516
54443W        W10684  24.467  26.530  15.151  0.1981 -0.0981  0.3276
54444W        W10685  26.677  16.831  21.845  0.1196  0.1907 -0.1442
54445W        W10686   9.921  29.948  25.165  0.2257 -0.1537  0.0554
54446W        W10687  18.931  18.835   9.241 -0.1905 -0.1162  0.0840
54447W        W10688   2.768   1.893  23.755 -0.0478  0.2518  0.1028
54448W        W10689  11.110  20.173  24.432 -0.1928 -0.1883 -0.1152
54449W        W10690  21.621  31.992   0.579  0.2565 -0.0899 -0.0759
54450W        W10691   7.468  17.571   7.258  0.0577  0.1382 -0.3818
54451W        W10692  17.449   5.816  23.442 -0.0924  0.1332  0.0332
54452W        W10693   6.055   2.110  26.245 -0.2861 -0.3541 -0.0301
54453W        W10694  28.493   1.552   0.303 -0.2213  0.2116 -0.1849
54454W        W10695  23.798  28.994  21.886 -0.4001 -0.2365  0.3903
54455W        W10696  21.240  12.795  15.340  0.0266 -0.0123  0.0259
54456W        W10697  14.481  22.183   5.114 -0.2322  0.2164 -0.1664
54457W        W10698  31.041  34.570   4.455  0.2591 -0.1145 -0.1711
54458W        W10699  31.135  29.444   3.396  0.2177  0.2262 -0.1175
54459W        W10700  26.153  17.000   6.881  0.1967 -0.3337  0.0585
54460W        W10701  31.069   2.199  23.373  0.0806 -0.1998  0.0101
54461W        W10702  10.835   4.973  22.377 -0.1019 -0.2495  0.1184
54462W        W10703  28.013  30.430   5.223  0.3325 -0.1541  0.4929
54463W        W10704   8.073  32.061   7.163 -0.1923 -0.0396  0.0098
54464W        W10705   4.634  25.192  21.755 -0.0483 -0.0451  0.0393
54465W        W10706  19.333  23.564   4.163 -0.0817 -0.1051  0.0649
54466W        W10707  34.622   5.513  13.611 -0.0584 -0.3893  0.0065
54467W        W10708  12.848  27.175  13.887 -0.0287 -0.5330  0.0880
54468W        W10709  22.887  10.887   2.528 -0.1581  0.1426 -0.0187
54469W        W10710  27.252  32.555  10.650 -0.0528 -0.0224 -0.0109
54470W        W10711  28.849   3.461  16.095 -0.0567 -0.1513 -0.2190
54471W        W10712  24.147  10.146   2.236  0.1095 -0.1076  0.1158
54472W        W10713  16.735  31.369   1.026 -0.1575  0.1393 -0.0816
54473W        W10714  24.197  13.204  14.907  0.0956  0.2662 -0.0045
54474W        W10715  14.327   2.567  26.039  0.0519  0.2675 -0.2968
54475W        W10716   8.312  16.893  11.449  0.1354 -0.1697 -0.3215
54476W        W10717  30.299   4.560   4.783  0.1194  0.1464 -0.4731
54477W        W10718   8.351  14.177  22.151 -0.0727 -0.0189 -0.1580
54478W        W10719   7.139   1.146   5.892  0.1040 -0.2895 -0.0731
54479W        W10720   8.780  15.951  18.966 -0.0217 -0.2705 -0.1129
54480W        W10721  25.451  18.276  21.837  0.0642  0.0375  0.1987
54481W        W10722  24.623  28.405  15.838 -0.3720  0.0709 -0.0401
54482W        W10723  17.728   3.535  11.699  0.3257 -0.1201  0.1492
54483W        W10724  34.300  31.351  14.003  0.2869  0.0792 -0.3758
54484W        W10725   1.417  15.278  23.705 -0.1125  0.1877 -0.1777
54485W        W10726  11.438   9.145  23.239  0.2923 -0.3166  0.2876
54486W        W10727  22.530  10.717  20.848  0.0019  0.1298 -0.2890
54487W        W10728  27.011  10.386  16.602  0.0073 -0.1594  0.4346
54488W        W10729  22.667  31.558  16.495  0.4062  0.0463  0.2072
54489W        W10730  29.657   5.595  21.135  0.0982 -0.0037 -0.1077
54490W        W10731  17.561  30.676   5.168  0.3723  0.1294  0.1064
54491W        W10732  30.736   9.565  20.293  0.2875  0.4179  0.1910
54492W        W10733  23.268   5.236  13.427 -0.0917 -0.1158  0.2468
54493W        W10734   8.244   8.784   8.892  0.4421  0.0507 -0.1494
54494W        W10735  19.669  25.637  24.537 -0.0030 -0.0874 -0.0124
54495W        W10736  29.695  33.757   5.042  0.2513  0.2139 -0.2674
54496W        W10737  26.125   3.929  26.235  0.1499  0.2413 -0.2882
54497W        W10738  27.736  28.846   2.447  0.0773  0.0217  0.0173
54498W        W10739   9.469  16.384  21.821  0.3733  0.2434 -0.0280
54499W        W10740  15.568  17.890  22.362 -0.0412 -0.0976  0.1597
54500W        W10741   7.714  28.390  11.074  0.1891 -0.0952  0.0674
54501W        W10742  29.415  21.546  21.500  0.0628 -0.2018 -0.0708
54502W        W10743  15.035  15.982   4.601 -0.2167 -0.1275  0.2538
54503W        W10744  32.692   1.271   6.602 -0.0005 -0.0956 -0.0539
54504W        W10745  14.366  34.386  20.642  0.2331 -0.1532  0.1316
54505W        W10746  33.146  31.199  23.098  0.1287 -0.0731 -0.2625
54506W        W10747  34.183   2.900  16.305  0.3942 -0.0680  0.1067
54507W        W10748   1.616  31.792   3.281 -0.0047 -0.0483  0.0174
54508W        W10749  12.469  18.288  12.453  0.3173 -0.1623  0.0598
54509W        W10750  28.157  25.394  19.954 -0.0546  0.1493  0.3601
54510W        W10751  13.192  23.188  14.185 -0.1102 -0.0773 -0.1873
54511W        W10752   8.902  12.349  19.567 -0.3677 -0.2170  0.2148
54512W        W10753  23.861  27.696  12.761  0.2532 -0.0798  0.3308
54513W        W10754  20.704   5.639  16.935  0.0368  0.0863  0.0623
54514W        W10755  35.022   0.740  15.037  0.0482 -0.3840  0.1485
54515W        W10756   6.430  27.179  10.261  0.0425  0.0492  0.0549
54516W        W10757  12.522  19.399  15.009 -0.0616  0.0260  0.1211
54517W        W10758   5.153  23.021   3.181  0.0877  0.1652 -0.2322
54518W        W10759  19.924  33.722  17.496  0.2643  0.2895 -0.1040
54519W        W10760  12.040  31.687   2.368  0.0111  0.1714 -0.1385
54520W        W10761  14.133  29.037   3.308  0.2641  0.0017  0.2388
54521W        W10762   9.516  20.871   6.855 -0.1495 -0.0969 -0.0286
54522W        W10763   9.314   2.975   0.490 -0.1890 -0.2967  0.4033
54523W        W10764   0.548  33.905   2.083  0.1904  0.1684 -0.1422
54524W        W10765   6.597   2.899  20.813  0.0853  0.0598  0.0129
54525W        W10766   8.667   3.912  24.064  0.1924  0.1612  0.0304
54526W        W10767   0.486  27.780   1.624  0.1683  0.2500 -0.1312
54527W        W10768  20.931  25.506  18.249  0.1758  0.1189 -0.2467
54528W        W10769  15.988  23.163  12.095 -0.0591  0.1521  0.1678
54529W        W10770  32.009  19.197  18.104 -0.0109 -0.0959  0.1410
54530W        W10771   9.281  27.173   0.317  0.0546 -0.0182 -0.2589
54531W        W10772  20.697  34.453  24.970  0.1327  0.4023  0.1478
54532W        W10773  21.380   4.993   8.384  0.0762  0.1054 -0.3484
54533W        W10774  33.780   5.689   6.593  0.2082  0.0911 -0.0614
54534W        W10775  24.376   4.495  21.946 -0.1788 -0.3411 -0.1314
54535W        W10776  10.470   7.631  18.832  0.3926  0.0144 -0.1814
54536W        W10777  22.551  12.163  18.887 -0.2456  0.0170  0.0331
54537W        W10778  29.902  25.450  13.709 -0.0622  0.0595 -0.0061
54538W        W10779  25.949  32.149  25.560 -0.0895  0.1202  0.0370
54539W        W10780  24.316   0.997   2.390  0.1419 -0.2074 -0.1390
54540W        W10781  16.676  21.717   5.313  0.0804  0.2654  0.2515
54541W        W10782  31.108  11.118  25.884 -0.2676 -0.2990  0.0839
54542W        W10783   1.245   3.250  25.677 -0.0996  0.1099 -0.0525
54543W        W10784   5.127  32.216  23.340  0.1401  0.2743 -0.0414
54544W        W10785  19.986  14.418  25.248 -0.0999  0.0448  0.2527
54545W        W10786   9.153   3.455   0.648  0.2212  0.1036  0.3119
54546W        W10787  34.325  10.577   1.488 -0.5833 -0.3316 -0.1528
54547W        W10788  30.038  30.642  15.020  0.1869  0.2806  0.3852
54548W        W10789   6.669  25.804  11.081 -0.0127 -0.0776  0.1428
54549W        W10790   8.367   9.382  23.940  0.0038 -0.0308 -0.1694
54550W        W10791  27.525  30.897  20.705 -0.3020  0.2932  0.0726
54551W        W10792   8.168   4.291   4.408  0.2857  0.1396  0.1977
54552W        W10793  26.071  13.315   9.474 -0.0413 -0.1575  0.2734
54553W        W10794  16.163  23.010  24.827 -0.0338  0.0919  0.0215
54554W        W10795   6.778  10.944  25.749 -0.0580  0.0536  0.0396
54555W        W10796  24.552   3.571  20.015 -0.0225 -0.0099 -0.1339
54556W        W10797  22.423   2.891   1.308 -0.0618 -0.1565 -0.2106
54557W        W10798   1.563   0.764   1.506  0.0507  0.0154  0.0033
54558W        W10799   7.125  19.078  23.277  0.1070 -0.4979 -0.2668
54559W        W10800  32.627   9.277  14.417  0.2795  0.0236 -0.1060
54560W        W10801  25.011  11.818  16.256  0.2010 -0.2362 -0.0486
54561W        W10802   6.164  15.766   9.126  0.1241 -0.4093  0.2591
54562W        W10803  14.739   4.563  26.002 -0.4170 -0.1485  0.1787
54563W        W10804   0.529  15.922  18.337 -0.0580  0.0909  0.2020
54564W        W10805   6.017  31.436  12.428 -0.1760  0.2093 -0.1823
54565W        W10806   4.895  24.664   8.989 -0.1270 -0.0282 -0.2426
54566W        W10807  15.672  13.645  12.097  0.1855  0.0048 -0.0254
54567W        W10808  34.478  11.819   9.401 -0.0095 -0.2059  0.0506
54568W        W10809  26.014  26.963  23.642  0.0535 -0.2297 -0.0386
54569W        W10810  20.939  25.583  16.230  0.0042  0.2030 -0.1233
54570W        W10811   7.113  33.792   0.671 -0.0254  0.2899  0.3032
54571W        W10812  23.518  27.933  26.020 -0.1007 -0.0024  0.2035
54572W        W10813   1.269  22.923  12.167 -0.1233  0.3379 -0.1104
54573W        W10814  20.075  20.663   7.309  0.0611  0.1490  0.0420
54574W        W10815  33.154  14.756  14.904  0.2112  0.1682  0.3569
54575W        W10816  28.625   2.628   2.098 -0.0427  0.1078 -0.0957
54576W        W10817  31.690  31.965  25.383  0.1008  0.0103 -0.2176
54577W        W10818  14.720  12.446  12.485  0.1872  0.0401  0.3231
54578W        W10819  32.063   8.006  24.668  0.1385 -0.0741  0.1727
54579W        W10820  22.844  14.393  25.881 -0.1506  0.1146  0.0680
54580W        W10821  22.636  32.876  12.099 -0.2504 -0.2486  0.0370
54581W        W10822  26.621  29.693   3.343  0.3412 -0.1028  0.2901
54582W        W10823   1.691   5.386  17.322  0.1938 -0.1047 -0.4401
54583W        W10824   7.156   8.781  18.503  0.0445 -0.1459  0.1099
54584W        W10825   7.076  32.404  14.028 -0.0529  0.0978 -0.0063
54585W        W10826  34.938   2.480  19.823  0.0952  0.0998  0.2117
54586W        W10827   2.360  26.371  25.815  0.3110 -0.0786 -0.0192
54587W        W10828  20.775  21.860   0.099  0.1942 -0.1637  0.0082
54588W        W10829  13.227  18.198  24.081 -0.1193  0.1714 -0.2359
54589W        W10830  15.284  11.393   6.599 -0.2380 -0.1942  0.2463
54590W        W10831  15.991  35.039   1.384 -0.0336  0.3544  0.4495
54591W        W10832  17.067  17.656  11.372 -0.0019 -0.0404 -0.1510
54592W        W10833  28.749   9.923  18.257 -0.1567 -0.1045 -0.0362
54593W        W10834  34.280  13.059  17.777 -0.1760  0.1752 -0.0041
54594W        W10835  29.373  35.145   6.550  0.2303  0.1352  0.0628
54595W        W10836   2.497  21.998   3.854  0.2188  0.0946 -0.0270
54596W        W10837   9.943  25.194   2.720 -0.1101 -0.0281  0.1928
54597W        W10838  33.261   8.694  11.519 -0.1131  0.0417 -0.0901
54598W        W10839  32.169  10.059  26.184  0.0029  0.0670 -0.1054
54599W        W10840  29.223  25.175  14.293  0.1219  0.2397 -0.1020
54600W        W10841   0.699  23.710  21.023  0.3374 -0.1604 -0.0549
54601W        W10842   1.310  15.409  18.772  0.3776  0.1258  0.5317
54602W        W10843  30.339  27.415  21.200 -0.1305 -0.2546 -0.1309
54603W        W10844  17.579  28.511   4.860  0.0069 -0.1401  0.1003
54604W        W10845  17.630  17.521   2.382  0.1518 -0.0920 -0.1449
54605W        W10846  17.279  27.852   4.431  0.0745 -0.2001  0.1679
54606W        W10847  12.524  30.461  10.501 -0.4400  0.2858 -0.0661
54607W        W10848  21.870  10.851  18.334 -0.1471 -0.1422  0.0122
54608W        W10849  25.956   1.895  12.459 -0.1561 -0.0595  0.0752
54609W        W10850  34.607   1.813  25.388 -0.2634 -0.2211  0.2238
54610W        W10851  27.431  33.502   2.158 -0.0266  0.1733 -0.1151
54611W        W10852  34.948  22.758  20.098 -0.0721 -0.0118  0.2619
54612W        W10853  19.527   0.876  22.014 -0.5527 -0.0240 -0.3278
54613W        W10854  25.543  13.406  17.073 -0.3199  0.0119  0.2731
54614W        W10855   6.843   9.196   4.655  0.1336  0.0334 -0.3372
54615W        W10856   7.321  22.811   1.983  0.0700  0.2915 -0.0057
54616W        W10857   3.212   2.299  17.796 -0.0431  0.0916  0.1350
54617W        W10858   6.647  28.167  12.975 -0.0775  0.1294  0.0245
54618W        W10859   0.683   2.281  20.163  0.1747  0.1426  0.2919
54619W        W10860  24.073  34.709  25.056  0.0133 -0.1408 -0.2673
54620W        W10861   3.338  14.162   2.881 -0.0782 -0.2211 -0.0419
54621W        W10862  26.684  24.463  20.585  0.3643  0.3053  0.0242
54622W        W10863  22.498  11.094  24.492 -0.2058  0.1708  0.3373
54623W        W10864   8.674   8.632   1.584 -0.0062 -0.1079 -0.2760
54624W        W10865  28.451  13.735  19.132  0.0211 -0.0245 -0.1413
54625W        W10866  28.522  10.778  19.618  0.1820  0.2094 -0.2337
54626W        W10867  20.919  10.493   0.907  0.1595 -0.2595  0.0911
54627W        W10868  25.395  32.338  17.753 -0.0834 -0.1140  0.1081
54628W        W10869  34.480  19.628   0.327  0.0605 -0.1479 -0.3643
54629W        W10870  33.054   4.197   1.003  0.0096  0.2705 -0.0203
54630W        W10871   7.050  20.860  24.770  0.0338  0.2473  0.0929
54631W        W10872  10.348  12.827   6.787  0.1418 -0.2454  0.0317
54632W        W10873  19.393  16.023   1.071 -0.2275  0.0276 -0.1791
54633W        W10874  33.853  27.194  12.655  0.0959 -0.2042  0.1908
54634W        W10875   6.804  34.096  12.743 -0.0138  0.3357 -0.1331
54635W        W10876  32.241  24.233  19.802  0.1322 -0.2671  0.2724
54636W        W10877  24.241   3.690  23.413 -0.1161 -0.0600  0.1480
54637W        W10878  31.112  34.291  25.560  0.1745  0.2011 -0.4489
54638W        W10879  10.347  27.646  11.581 -0.0555  0.3221 -0.1804
54639W        W10880  14.096   9.681   6.512  0.2835 -0.3623 -0.0762
54640W        W10881  10.503  34.619  13.122 -0.2271  0.2950  0.2069
54641W        W10882  21.652  19.853  19.999 -0.0218 -0.0349  0.0840
54642W        W10883  11.764  13.661   8.562 -0.2822  0.0878  0.0460
54643W        W10884  14.173   6.230  23.716  0.2411 -0.1232  0.2660
54644W        W10885   4.258  25.892   9.397  0.0093  0.0836  0.1625
54645W        W10886  14.896  34.831   5.116 -0.0874 -0.2009 -0.0757
54646W        W10887  17.461  21.868   5.650 -0.0218 -0.1590  0.0630
54647W        W10888  34.778  13.885  22.180 -0.0165 -0.1645  0.1250
54648W        W10889  15.682  15.366   6.830 -0.1538  0.1518 -0.3971
54649W        W10890   3.929   8.373  16.793  0.0109  0.1354 -0.0642
54650W        W10891   1.551   2.309  24.626 -0.1330  0.4536  0.3728
54651W        W10892   6.411  16.313  26.175 -0.0677  0.0400  0.0846
54652W        W10893  19.373  22.113  21.862  0.0159  0.0023 -0.1058
54653W        W10894  30.429   7.100  10.617 -0.0268 -0.0176 -0.0475
54654W        W10895  14.875   2.644  17.412  0.1964 -0.0375 -0.0734
54655W        W10896  19.196  18.236   2.323 -0.0098  0.1156  0.1614
54656W        W10897  14.426  14.021   9.290  0.1935 -0.1730 -0.0201
54657W        W10898  18.968  16.355   4.214  0.1572  0.3669 -0.0210
54658W        W10899  34.875   0.137  23.089 -0.0737 -0.1420 -0.0667
54659W        W10900  32.026  16.548  20.187 -0.2568 -0.3263 -0.1051
54660W        W10901   7.613   6.510  19.675  0.3496  0.0405  0.0497
54661W        W10902  29.182  30.414  11.008 -0.1919  0.1609  0.2059
54662W        W10903   0.400   7.183  21.416  0.0433  0.1282 -0.0067
54663W        W10904  14.538  19.486   8.244 -0.0116 -0.1522 -0.0271
54664W        W10905   5.742  18.335  19.614 -0.2822  0.1176 -0.0539
54665W        W10906   0.973  29.807  24.087  0.2263 -0.3000 -0.0285
54666W        W10907  33.452  23.310   9.271  0.0420 -0.0130 -0.1186
54667W        W10908  27.418  14.332   8.489 -0.4488  0.2345 -0.0430
54668W        W10909  33.760  18.739  16.357 -0.1254 -0.0990  0.1293
54669W        W10910   6.536   6.101  10.212 -0.1476 -0.2608 -0.1629
54670W        W10911   7.409  33.842  20.540 -0.0140  0.1311  0.1341
54671W        W10912  24.604   8.016  15.667  0.2494  0.1174  0.0197
54672W        W10913   9.783  12.623  19.945 -0.1341  0.1263  0.3774
54673W        W10914  11.943   8.405   1.793  0.1142 -0.3311  0.1335
54674W        W10915  16.339   7.378  22.593 -0.1104 -0.2016 -0.5712
54675W        W10916   9.158   3.746  19.824 -0.0315  0.0166 -0.1711
54676W        W10917  25.710  18.498   0.598 -0.0648  0.0643 -0.2272
54677W        W10918  12.650  18.408   9.131 -0.3710 -0.3871  0.2990
54678W        W10919  34.335   6.061  24.616 -0.1022  0.0101  0.0655
54679W        W10920   3.478  24.356   3.486  0.1365  0.0603  0.1094
54680W        W10921   9.017  20.269   5.233 -0.4681 -0.0966  0.5049
54681W        W10922   9.785  20.064   2.265 -0.0062  0.2023 -0.1372
54682W        W10923   7.254   2.822  23.860 -0.3169  0.0274  0.4786
54683W        W10924   8.880   8.319  11.820 -0.0841 -0.0803 -0.2333
54684W        W10925  33.100  31.159  13.566  0.1464  0.1465 -0.6315
54685W        W10926   6.767  32.284   4.999 -0.2189  0.0095  0.1532
54686W        W10927  18.600  32.670   1.357 -0.1243 -0.0324  0.1173
54687W        W10928   1.878  28.270   9.175 -0.0601  0.1835  0.0002
54688W        W10929  31.197   1.084   5.931  0.2018 -0.1497  0.0600
54689W        W10930  20.884   2.592   1.974 -0.0620 -0.2394  0.0541
54690W        W10931   2.864  24.645  24.481 -0.3483  0.1878 -0.3061
54691W        W10932  14.238  30.711  15.513  0.0846  0.1361 -0.0916
54692W        W10933  22.722  32.174   6.323  0.3942  0.0303  0.0162
54693W        W10934  24.504  30.096   0.798  0.0436  0.0529  0.1039
54694W        W10935   4.540  17.427  20.536  0.1583 -0.0093  0.0208
54695W        W10936  25.267  30.641  16.223  0.1969  0.3065 -0.1570
54696W        W10937  23.924  33.265   4.654 -0.1653  0.1331  0.0511
54697W        W10938  26.809   1.794   3.263  0.0438  0.3619 -0.2762
54698W        W10939   3.226  29.878  22.441 -0.1104  0.1486  0.0981
54699W        W10940  10.448   7.365  22.784 -0.1235 -0.1663 -0.1686
54700W        W10941   7.201  19.302  24.773 -0.3063  0.0705  0.0814
54701W        W10942  31.275   3.843   3.592 -0.2717 -0.1240  0.3757
54702W        W10943  34.322   9.855  21.611  0.2724  0.1573  0.1402
54703W        W10944  15.132  16.034  22.663 -0.2730  0.1197 -0.1503
54704W        W10945  35.059  11.902  17.802 -0.1252 -0.2450 -0.2781
54705W        W10946  27.867  20.528  18.802  0.1076 -0.0795 -0.0272
54706W        W10947  13.062   2.373  23.381  0.0185 -0.0940  0.1177
54707W        W10948  19.587   7.700   3.298 -0.0477 -0.1607  0.0929
54708W        W10949  23.999  31.784  26.218 -0.0632  0.2562 -0.0606
54709W        W10950  12.116  19.550  13.349 -0.0399 -0.0934  0.3174
54710W        W10951  32.007  28.974  21.118 -0.1725  0.1083  0.1145
54711W        W10952   8.513  11.009   0.792 -0.0393  0.1621  0.0588
54712W        W10953  12.139  15.034   2.464 -0.1655 -0.1023  0.3562
54713W        W10954  33.443  21.429   8.506  0.0122 -0.1611  0.3306
54714W        W10955  26.550   2.519   4.223  0.2879  0.1152 -0.3049
54715W        W10956  17.285   2.285   0.747  0.0539 -0.1194 -0.0859
54716W        W10957  25.802  21.990  15.210  0.1748  0.0161  0.1913
54717W        W10958  24.705   6.073   4.795 -0.1395  0.2208 -0.0979
54718W        W10959  16.591  26.062   0.225  0.3042 -0.1940  0.0053
54719W        W10960  14.929   2.118  17.443 -0.1310  0.0034 -0.0211
54720W        W10961   0.056   1.773  20.499 -0.1747 -0.0758  0.0804
54721W        W10962   2.467  21.094  24.013 -0.1683  0.2599 -0.0530
54722W        W10963   7.970   2.473   0.816 -0.1138 -0.0987 -0.1224
54723W        W10964  27.201  33.248  16.062 -0.0068 -0.0490 -0.1770
54724W        W10965  19.278   1.568  19.057  0.0779 -0.2005 -0.1997
54725W        W10966  26.605   0.676  22.211 -0.0415  0.1822  0.1648
54726W        W10967  18.905   5.772  23.255 -0.0448 -0.1855 -0.0963
54727W        W10968  27.726  12.065  15.996 -0.2588  0.0111 -0.0647
54728W        W10969   3.412  33.183  21.555 -0.2153  0.1673 -0.3360
54729W        W10970   8.213  14.385  10.760 -0.2770  0.2505  0.0844
54730W        W10971   1.478  27.701  23.315  0.0473  0.0582 -0.1087
54731W        W10972  18.158   3.361   5.091  0.0921 -0.2988 -0.3533
54732W        W10973  20.687  32.063  15.317 -0.2857 -0.0591 -0.0017
54733W        W10974  35.047  29.411  15.044  0.1496 -0.0848  0.0300
54734W        W10975  14.019  21.713  15.457 -0.3016  0.2510 -0.1173
54735W        W10976   9.457  28.177   9.760 -0.0362 -0.0303  0.0508
54736W        W10977   0.979  26.255  22.018 -0.0682 -0.0739 -0.0065
54737W        W10978  24.542   4.995  20.582  0.2986 -0.3545  0.1030
54738W        W10979   3.042   6.849  23.018 -0.2527 -0.0970  0.0951
54739W        W10980  19.863  28.717   5.147 -0.1296 -0.0357  0.1198
54740W        W10981  29.876  21.093  22.170 -0.0996  0.2135  0.1017
54741W        W10982  28.893   6.290  19.840  0.3106 -0.0447 -0.0728
54742W        W10983  31.212   0.786   0.142  0.1008  0.0526 -0.0820
54743W        W10984   6.822  30.483  22.647 -0.1020 -0.1421 -0.1508
54744W        W10985   3.468  28.232   9.926 -0.1248 -0.0093 -0.0738
54745W        W10986  11.013  30.549   9.555  0.3248  0.1628  0.0347
54746W        W10987  17.631   6.722   9.445 -0.0691 -0.3957 -0.1263
54747W        W10988   9.338  33.561   1.199 -0.2764  0.1624  0.2052
54748W        W10989  32.777   7.380  10.989  0.2414 -0.0675 -0.1135
54749W        W10990   1.523   2.548   8.270  0.0326  0.2088 -0.1298
54750W        W10991  13.802  28.053   0.920  0.2353 -0.0659 -0.3239
54751W        W10992  21.106  30.172   0.895 -0.1316 -0.0504 -0.1159
54752W        W10993  20.788   8.583  18.421  0.1050 -0.0454 -0.1235
54753W        W10994  30.908  25.702  23.597 -0.2891 -0.0806 -0.0577
54754W        W10995  28.316   3.489  14.863 -0.2074  0.0490 -0.1451
54755W        W10996   9.740   1.340   1.959  0.0768  0.0939 -0.1797
54756W        W10997  31.218  34.979  21.417 -0.1136  0.0707  0.1087
54757W        W10998  29.243  26.205  23.517  0.1287 -0.2848  0.0910
54758W        W10999  16.558   3.859   8.756  0.0266  0.0511 -0.0735
54759W        W11000  20.042   2.526  19.179 -0.1290  0.1997  0.0661
54760W        W11001  14.219   3.703   0.591  0.2375  0.1727  0.0043
54761W        W11002  11.914  21.636  22.222 -0.1623 -0.0688  0.1286
54762W        W11003  18.532   6.831  22.350 -0.3313  0.1696  0.0061
54763W        W11004  21.357  27.516  21.024  0.2521 -0.0807  0.2305
54764W        W11005  30.900   0.907  20.628 -0.0344  0.2258  0.2144
54765W        W11006  10.772  29.220  22.559  0.0751  0.0672  0.0660
54766W        W11007  27.586   4.525  18.169  0.0335  0.2285 -0.1230
54767W        W11008  30.590   1.539   4.502 -0.4303 -0.0808 -0.0099
54768W        W11009  20.849   8.707   9.513 -0.0668  0.2591  0.0842
54769W        W11010   8.962   2.414   4.808  0.0252  0.2763 -0.1583
54770W        W11011  20.580  25.297   4.654 -0.0121 -0.0774  0.1196
54771W        W11012  28.721  15.355  18.415  0.1038 -0.0540  0.0809
54772W        W11013   8.161  28.204   5.871  0.1674  0.0654 -0.0521
54773W        W11014  27.715   8.340  18.608  0.1469  0.0121 -0.1832
54774W        W11015  24.996  13.437  17.930 -0.1680  0.0997  0.2411
54775W        W11016  21.932  31.701  15.695  0.1881  0.0361  0.3807
54776W        W11017  25.961  10.046   0.945 -0.1319 -0.0909  0.1628
54777W        W11018  30.734  29.486  25.107 -0.2650  0.0777 -0.2294
54778W        W11019   4.979   3.564   4.733  0.0168  0.0758  0.1959
54779W        W11020  13.152  21.222   3.918 -0.0993  0.0927  0.0692
54780W        W11021  35.141  27.864  21.148 -0.2916 -0.0587  0.2383
54781W        W11022   8.634  34.364   8.076 -0.0091 -0.1522 -0.3159
54782W        W11023  32.669   6.309   4.310 -0.1924  0.4565  0.0919
54783W        W11024   1.347  21.367  23.813  0.0442 -0.0618  0.0589
54784W        W11025  11.014  33.590  22.565 -0.1870 -0.0901  0.2683
54785W        W11026  19.968  17.193  19.531  0.0660  0.2756  0.1160
54786W        W11027  21.357   7.697  22.984 -0.1807  0.1443  0.1363
54787W        W11028  24.117  33.842  13.079  0.1160  0.4966 -0.1036
54788W        W11029  18.871   1.535   2.475  0.3190 -0.1300  0.0748
54789W        W11030   9.521   9.399   3.601  0.4498  0.0019  0.0592
54790W        W11031   6.363  27.997   3.590 -0.0316  0.3770  0.2454
54791W        W11032  11.075  18.912  11.870  0.1009  0.0584  0.0834
54792W        W11033  33.582  33.769   6.140 -0.0763  0.0390  0.0765
54793W        W11034  14.699  19.959   4.209 -0.1919  0.0400 -0.1439
54794W        W11035  17.527  19.866   6.059  0.0842  0.0634  0.2170
54795W        W11036  29.442  16.030   8.269  0.1229  0.0558  0.1176
54796W        W11037  21.571  16.331  19.301 -0.1140  0.1654  0.0220
54797W        W11038  28.063   2.090  22.187 -0.1529  0.2127 -0.0736
54798W        W11039  23.055   5.283  25.460 -0.1142  0.2944  0.2361
54799W        W11040  19.078  32.053   2.279  0.2943 -0.0739  0.1008
54800W        W11041  33.477   4.999  14.399  0.2306  0.0011 -0.1156
54801W        W11042  21.106   8.571   2.738  0.1541 -0.1992 -0.3241
54802W        W11043   5.078  11.699   2.240 -0.2380  0.3661 -0.2072
54803W        W11044  10.626  33.691   4.118  0.1842  0.2306 -0.1781
54804W        W11045  32.544   7.980  21.109 -0.1453 -0.0641  0.0591
54805W        W11046  23.666  33.250   2.218  0.1194 -0.0163  0.0815
54806W        W11047   2.792  25.596   0.805 -0.1145  0.0094  0.3470
54807W        W11048   7.112  33.370   9.778  0.1830  0.2710  0.2302
54808W        W11049  22.660  30.442   3.079 -0.2431 -0.1285  0.1238
54809W        W11050  23.160  21.205  16.063  0.0109 -0.0271 -0.5338
54810W        W11051   2.828   1.966   0.877  0.0815 -0.1633  0.1343
54811W        W11052  28.790   2.939  12.694  0.3731 -0.0399  0.0711
54812W        W11053   9.015   0.775   1.249 -0.1418 -0.0403 -0.0957
54813W        W11054  24.996  32.696   1.841  0.0006  0.0022 -0.0036
54814W        W11055  21.631   0.201   3.842 -0.0537 -0.3369  0.0809
54815W        W11056  11.496  25.308   9.815  0.1563 -0.2188  0.1757
54816W        W11057   8.220   7.562   8.406 -0.0404  0.2600 -0.0205
54817W        W11058  16.255   1.854   9.171 -0.3037  0.0406 -0.1365
54818W        W11059  27.849  31.057   3.945 -0.2645 -0.3733  0.0863
54819W        W11060  24.331  11.435  19.631 -0.0290  0.1852 -0.0979
54820W        W11061  29.247  12.157  24.598 -0.1593  0.2549  0.4740
54821W        W11062  27.819  27.029   1.894  0.1897  0.1961  0.3140
54822W        W11063  25.493  30.810  13.250  0.3098  0.0505 -0.2884
54823W        W11064  33.618   5.447  21.995 -0.3539 -0.0710  0.2495
54824W        W11065  24.814  34.066  15.108  0.0923 -0.0280  0.1702
54825W        W11066  17.182  32.609  21.229 -0.2130  0.1123 -0.0981
54826W        W11067  11.262  19.692  24.241  0.4105  0.2043 -0.0434
54827W        W11068   5.075  27.948  23.931 -0.4031  0.2593  0.1009
54828W        W11069  26.201  25.219  18.824  0.3377  0.1716 -0.1040
54829W        W11070  19.866  15.862  20.856 -0.0493 -0.0168 -0.1381
54830W        W11071   2.238  34.689   7.164 -0.0710  0.2692  0.1343
54831W        W11072  25.682   2.688   1.633  0.1456  0.0867  0.1356
54832W        W11073   0.171  35.052   2.481 -0.0652 -0.0859  0.0068
54833W        W11074   3.735  24.662   2.262  0.0542  0.2685  0.2889
54834W        W11075   6.540  26.576   5.329 -0.2138 -0.0854 -0.1147
54835W        W11076   2.965   7.564  20.751  0.1648 -0.0052  0.0096
54836W        W11077  29.615  19.982  12.955 -0.0585 -0.0846 -0.1263
54837W        W11078   7.789  14.273  10.959  0.1559  0.0501 -0.0764
54838W        W11079  16.204  16.070  24.244  0.1043 -0.1243  0.0745
54839W        W11080   8.111  11.140  11.724 -0.0712 -0.0239 -0.0227
54840W        W11081   5.804  25.060   7.214 -0.1109  0.2536 -0.1672
54841W        W11082  11.845  34.501  13.507  0.0680  0.0777  0.2074
54842W        W11083  35.001   6.979   2.456 -0.2442 -0.0177 -0.3302
54843W        W11084  11.393  23.830  14.407  0.0516  0.2563  0.0401
54844W        W11085  29.090   1.769  14.409 -0.0335 -0.4443 -0.2756
54845W        W11086  23.767   4.390  23.838  0.0270  0.1575  0.2972
54846W        W11087   3.710  11.243  25.494 -0.0996  0.1186 -0.1824
54847W        W11088  21.038  27.620  24.485  0.2366  0.1673 -0.2909
54848W        W11089  11.174  24.029   0.393  0.1181 -0.3351  0.0139
54849W        W11090  31.019   6.428  23.733 -0.1898  0.2770  0.1086
54850W        W11091   1.542  23.488  19.859  0.1375  0.0574 -0.0423
54851W        W11092  29.937  18.963  25.593 -0.2292 -0.1671  0.1129
54852W        W11093  15.238  25.707   4.931  0.0344  0.0183  0.2920
54853W        W11094  20.701   6.947   4.202  0.1282  0.1357 -0.2440
54854W        W11095  11.810  34.139   6.238  0.1085 -0.1114  0.1494
54855W        W11096  11.833  28.246  23.606 -0.0378 -0.0039 -0.1253
54856W        W11097  24.202  35.149   3.086 -0.2018  0.1108  0.2843
54857W        W11098  28.379  31.880  14.763 -0.0158 -0.0756 -0.2155
54858W        W11099  20.297  33.041   6.793 -0.1376  0.0005 -0.2028
54859W        W11100  30.809  31.536  20.729 -0.0101 -0.1474 -0.2649
54860W        W11101  14.463  33.736   3.858  0.2100  0.0480  0.1371
54861W        W11102   5.629   6.817  20.574  0.3242 -0.0511  0.1813
54862W        W11103  23.194  31.511   3.591  0.1709 -0.2229  0.1687
54863W        W11104  32.663   2.336  16.699 -0.0185  0.2136 -0.1456
54864W        W11105  19.890  16.707  17.512 -0.1193  0.1706 -0.0580
54865W        W11106  23.786   2.506   3.426  0.3615  0.1532  0.1008
54866W        W11107  28.773  25.996  19.920 -0.5400  0.1181  0.1982
54867W        W11108   9.231  17.445  19.458 -0.1688 -0.1562  0.0220
54868W        W11109   2.412   6.359  19.921  0.1060 -0.3335  0.0347
54869W        W11110   6.019   6.890   6.193  0.0890  0.2578  0.3536
54870W        W11111  22.083  28.051   4.946  0.2153  0.4616 -0.0325
54871W        W11112  20.163  28.409  16.924  0.2949  0.0693 -0.1263
54872W        W11113   2.152   4.298  22.178 -0.1763  0.1993  0.0397
54873W        W11114  25.221  11.731  11.714 -0.0568 -0.2064 -0.0407
54874W        W11115  29.258  22.700  13.246  0.1182  0.3301 -0.0718
54875W        W11116  18.922  33.187   8.558 -0.2219  0.0879  0.0338
54876W        W11117  28.817   0.174  18.125 -0.1066 -0.0076 -0.1313
54877W        W11118  11.040   0.912   2.711 -0.1530  0.2347 -0.1405
54878W        W11119  22.479   6.785   5.317  0.0514  0.0302  0.0956
54879W        W11120  27.148  17.271  25.776  0.0623  0.2675 -0.1596
54880W        W11121  25.772   5.816  19.984 -0.2016  0.0220  0.0664
54881W        W11122  18.517   2.979   3.075  0.0837  0.1083 -0.1077
54882W        W11123  18.256   7.195  21.182 -0.1479 -0.0184 -0.1271
54883W        W11124  26.882  33.554   2.413 -0.0322 -0.1162  0.1474
54884W        W11125  24.458   8.339   4.143  0.1645  0.0669  0.2433
54885W        W11126   2.553   7.860  14.829  0.0232  0.2347 -0.1949
54886W        W11127   5.766   8.417  18.591  0.0203 -0.0486  0.0036
54887W        W11128  19.541  16.116  18.933  0.0182 -0.2001 -0.0540
54888W        W11129  29.611  29.260   2.848  0.0063 -0.0330 -0.2610
54889W        W11130  11.857  33.961   8.090  0.0123 -0.1063 -0.2728
54890W        W11131   0.589  21.301  14.970 -0.0790 -0.0286 -0.0422
54891W        W11132  33.202   5.536  15.908  0.3621  0.1381 -0.1322
54892W        W11133  14.436   3.394  23.855  0.1496 -0.1504  0.3756
54893W        W11134  17.282  25.099   3.783  0.0444  0.0223  0.0680
54894W        W11135   5.644  14.198  18.025  0.2211  0.1547 -0.0527
54895W        W11136  33.731  30.558  22.999  0.0783 -0.2016  0.0469
54896W        W11137  12.782  20.429  22.067 -0.0267  0.0093 -0.0782
54897W        W11138   6.263  14.677   8.158  0.2983  0.0394 -0.0682
54898W        W11139   5.089  32.941   7.953  0.2503  0.2673 -0.2513
54899W        W11140  28.645   6.196  25.237  0.2050 -0.1222 -0.1751
54900W        W11141   2.199  21.298  23.150 -0.0495 -0.0813  0.2266
54901W        W11142  32.603  21.140  24.401 -0.0747 -0.1449  0.1000
54902W        W11143  22.682  12.081  16.646 -0.1266 -0.3833 -0.0072
54903W        W11144   1.469   9.061   2.168 -0.2249 -0.0164  0.1554
54904W        W11145   0.801   6.739   6.246 -0.1300 -0.0023  0.2076
54905W        W11146  12.521  19.008   0.711 -0.1467  0.4510 -0.0307
54906W        W11147   7.923  23.393   3.822 -0.0026  0.1484  0.3928
54907W        W11148  16.984  12.968  10.810  0.2134  0.0457  0.2010
54908W        W11149   9.527  20.210  13.176  0.0722  0.3955 -0.0945
54909W        W11150  31.404  32.672  25.799 -0.0755 -0.1658  0.1126
54910W        W11151   8.362   6.646  12.722  0.0145  0.0734  0.0161
54911W        W11152  18.521  10.916  11.454  0.0943 -0.3269  0.1362
54912W        W11153  11.667  16.922   8.899 -0.2022 -0.1999  0.1209
54913W        W11154  19.712  23.953  20.196  0.1901 -0.1311 -0.1431
54914W        W11155  25.397  33.805  23.293  0.1291 -0.1098 -0.2225
54915W        W11156  30.290  14.461  10.675  0.2584 -0.2594 -0.1925
54916W        W11157  11.005  13.884  13.710 -0.1285 -0.0577 -0.1344
54917W        W11158   2.898  15.915  21.078 -0.1649 -0.2668  0.0620
54918W        W11159   1.573  32.236  16.463 -0.0097 -0.2405 -0.0741
54919W        W11160  33.432   6.898  15.817 -0.1278 -0.2549 -0.3096
54920W        W11161  27.577  25.206   9.371 -0.2382  0.2122  0.2642
54921W        W11162  33.965  35.283   2.874 -0.4088  0.2775  0.0287
54922W        W11163  31.405  19.409   7.663  0.1702  0.0731  0.5016
54923W        W11164  18.554  15.049   9.627 -0.0040  0.2800 -0.0960
54924W        W11165  22.170  30.272   5.861  0.0543 -0.0506  0.3225
54925W        W11166   7.059   2.191  22.452  0.0512 -0.4805  0.3320
54926W        W11167  32.497  21.406   9.726  0.2209 -0.3154  0.0170
54927W        W11168   4.320  30.973  19.487 -0.2261  0.2769  0.0035
54928W        W11169   1.419  32.556   6.150  0.0662 -0.0159  0.1530
54929W        W11170  18.651  18.935   2.861  0.0226 -0.0991  0.0070
54930W        W11171  30.148   3.435  17.931 -0.0484  0.3991  0.0756
54931W        W11172   8.986   8.126  25.910 -0.0416 -0.2531  0.1148
54932W        W11173   0.796   4.603  26.134  0.0005 -0.2545 -0.1480
54933W        W11174   0.007  16.037  10.829 -0.0293  0.0874  0.0500
54934W        W11175  11.360  26.480  23.074  0.0342 -0.0877  0.1508
54935W        W11176  26.523  34.438  22.416  0.1860 -0.0487 -0.0784
54936W        W11177   0.888  16.752  17.946  0.0659  0.1756 -0.1502
54937W        W11178  20.718  21.378  21.102  0.0435 -0.1567 -0.2039
54938W        W11179  33.756   0.848  24.118 -0.2302  0.2132  0.1387
54939W        W11180   1.363   9.616  22.514  0.1974  0.1360  0.2705
54940W        W11181  20.908  25.275  24.534 -0.0069  0.0935 -0.3433
54941W        W11182  24.990  22.995  12.288 -0.0657  0.2463  0.2247
54942W        W11183  31.909  13.424  23.241 -0.0962 -0.0419 -0.0112
54943W        W11184   9.582  30.328   7.459  0.1224  0.1786  0.0476
54944W        W11185  25.046  11.005  22.865 -0.2437 -0.1014 -0.0409
54945W        W11186  24.051  20.047  20.016  0.0675 -0.0673 -0.0844
54946W        W11187  31.483   3.396   3.500 -0.0926  0.0117 -0.2185
54947W        W11188  21.315  19.453   3.762 -0.0835  0.1962  0.2511
54948W        W11189   6.918  28.812  26.196 -0.0430  0.3055  0.1663
54949W        W11190  11.382   6.441  11.242 -0.5112  0.0894 -0.5252
54950W        W11191  24.584  34.780   4.211  0.2325 -0.4301 -0.0763
54951W        W11192   8.572   8.747  21.065  0.2418  0.1880 -0.0024
54952W        W11193  10.383  13.397  10.273 -0.0873  0.3004  0.1559
54953W        W11194   9.053   8.691  20.947  0.3217 -0.0014 -0.1265
54954W        W11195  12.158  30.922  23.459  0.3784 -0.0018 -0.1400
54955W        W11196  21.403  28.258  21.280  0.0825 -0.2370 -0.0161
54956W        W11197  21.603  24.131  19.160 -0.1247 -0.1198  0.1263
54957W        W11198   6.676   4.483   9.019 -0.1597  0.1184  0.1274
54958W        W11199   3.176  13.164  16.833  0.3177 -0.1701 -0.0068
54959W        W11200  23.422  33.023  21.289  0.4183 -0.0579 -0.1731
54960W        W11201  22.286   6.547  25.495 -0.0186 -0.1623  0.1689
54961W        W11202   5.361  33.908  12.551 -0.0960 -0.0453  0.1035
54962W        W11203  26.883  16.700  13.999 -0.1505  0.0632  0.0788
54963W        W11204  33.100  24.410  22.659  0.2575  0.0367 -0.2032
54964W        W11205   2.233   7.863   6.286 -0.0690  0.2727 -0.1308
54965W        W11206  16.514  24.022   2.697  0.0031  0.1867 -0.0723
54966W        W11207  11.894   9.737   2.954 -0.0415  0.3293 -0.1111
54967W        W11208  14.859  14.522  20.859 -0.2479 -0.2633 -0.2336
54968W        W11209   9.384  20.726   7.903 -0.1264 -0.1434  0.0403
54969W        W11210   1.939  34.456  19.134  0.0586  0.1033  0.0761
54970W        W11211   8.637   5.937   3.049  0.1709  0.6068  0.0339
54971W        W11212  14.541  35.226  11.003 -0.1709  0.1037 -0.0171
54972W        W11213  33.175  33.450  15.193 -0.1176  0.0041  0.2061
54973W        W11214   1.512   0.575   3.585  0.0251 -0.1582  0.0381
54974W        W11215  10.666  23.829   8.130 -0.2723 -0.1338  0.0673
54975W        W11216  32.288  13.477  20.716 -0.1336  0.1505 -0.2930
54976W        W11217   4.850  22.741  21.602 -0.3117 -0.1273 -0.0615
54977W        W11218  18.069  31.120   2.703 -0.2754 -0.3597 -0.2968
54978W        W11219  29.299  33.371  25.024  0.3598  0.0714 -0.1239
54979W        W11220  13.974   3.919   4.161 -0.0773  0.1559  0.0851
54980W        W11221   4.047  17.178  20.659 -0.5301 -0.1014  0.1218
54981W        W11222  14.046   3.412  24.340 -0.1302 -0.1662 -0.2107
54982W        W11223   4.305   8.998  17.822 -0.2037 -0.1596  0.2146
54983W        W11224  21.765  10.265  23.073  0.1988 -0.1709  0.2098
54984W        W11225  16.813  24.107  10.984  0.1487  0.1286 -0.2181
54985W        W11226  16.068  25.804  13.463 -0.2710  0.0809  0.1733
54986W        W11227   8.215   7.789   9.756 -0.2625  0.2551 -0.1466
54987W        W11228  34.919   0.310  13.836 -0.2761  0.2257 -0.0126
54988W        W11229  14.826  28.542  16.147 -0.1180 -0.0379  0.1653
54989W        W11230   1.889  21.446  19.728 -0.1473  0.3041  0.1204
54990W        W11231   3.065  18.928  18.879  0.1403  0.0726  0.1080
54991W        W11232  20.320  29.810  22.756  0.1665 -0.0291 -0.0369
54992W        W11233  19.965  26.772  20.478 -0.0465 -0.0590  0.0229
54993W        W11234  34.815   3.402  20.700 -0.3531 -0.0456  0.3321
54994W        W11235  12.887  12.066  24.107 -0.3324  0.0319 -0.0279
54995W        W11236  14.360  17.313  13.815  0.0685  0.2116 -0.1850
54996W        W11237  23.921  24.207  25.647  0.0632 -0.0269 -0.0002
54997W        W11238  14.543   9.266  20.344  0.2136 -0.0472  0.1911
54998W        W11239   1.833  34.800  23.523  0.3039  0.0025 -0.0663
54999W        W11240  15.936  15.201  13.037  0.5460 -0.0959 -0.1496
55000W        W11241  26.001  12.348  11.168 -0.0121  0.1005 -0.0069
55001W        W11242  26.262  35.319   5.470  0.2684 -0.1260 -0.0893
55002W        W11243  16.117   5.688   0.313  0.1149 -0.1165  0.4848
55003W        W11244   7.120  25.860   6.199 -0.1635  0.2057 -0.0299
55004W        W11245  22.050   1.129   6.757  0.2600  0.0714  0.0242
55005W        W11246  25.816   4.881  16.645  0.0112  0.3166  0.1628
55006W        W11247  13.452  19.885  15.780 -0.0792 -0.0781 -0.2494
55007W        W11248  12.286  18.811   2.024  0.0037 -0.2109  0.2199
55008W        W11249  34.138  15.560  24.445 -0.0119  0.2099 -0.0916
55009W        W11250   1.161   0.505   9.386 -0.0260 -0.1991 -0.2437
55010W        W11251   8.736   9.820   5.739  0.0857 -0.0388 -0.0755
55011W        W11252  28.569  22.528  18.806  0.3511  0.0621 -0.2455
55012W        W11253   0.804  17.687  10.807 -0.0626  0.1824 -0.1684
55013W        W11254   6.795  33.282   7.986 -0.2724 -0.0431 -0.0470
55014W        W11255   8.863  27.583   7.594 -0.2475  0.1749  0.2144
55015W        W11256  31.764   2.652  16.607  0.0632  0.3809 -0.1984
55016W        W11257  18.674   3.969  11.874 -0.2165  0.2617 -0.0905
55017W        W11258  11.365   0.539  14.685 -0.1178  0.0932 -0.2700
55018W        W11259   0.046  27.033  26.181 -0.0810  0.2294 -0.0489
55019W        W11260  20.300   6.807   3.313  0.0746 -0.3873  0.1409
55020W        W11261  16.912  15.561  12.252 -0.1063 -0.1051  0.0252
55021W        W11262   6.401   1.954   0.759  0.0073  0.0076  0.0580
55022W        W11263   8.625  19.940   0.597  0.2475 -0.1299  0.0458
55023W        W11264   2.963   8.157  17.551 -0.2486  0.2053 -0.0283
55024W        W11265  30.503   6.540  14.936  0.2611 -0.1530  0.0718
55025W        W11266  28.621  22.910   7.452 -0.0666  0.0043 -0.0380
55026W        W11267  23.414   0.694  23.519 -0.1083  0.0480  0.2778
55027W        W11268  12.878  29.316  25.351 -0.1348 -0.2260 -0.3802
55028W        W11269  27.136  35.258   3.571  0.2432 -0.0102 -0.2143
55029W        W11270  12.201  34.847  26.096  0.1526 -0.2024 -0.1403
55030W        W11271  33.901  15.790  18.276  0.1347 -0.0314 -0.0495
55031W        W11272  18.114   2.091  19.211  0.1254  0.0993 -0.0475
55032W        W11273   6.161  22.208   7.175  0.1679 -0.1756 -0.3253
55033W        W11274  21.617  32.551   0.535  0.1175  0.3901 -0.0869
55034W        W11275  17.108   0.474  22.858  0.2039  0.0233  0.0909
55035W        W11276  32.609   4.222  24.868 -0.2266 -0.2600  0.3549
55036W        W11277  19.308  30.932   5.611 -0.3130  0.2932  0.2295
55037W        W11278  16.919   2.394   7.135  0.1795 -0.2509  0.3084
55038W        W11279  22.780   1.549  21.009 -0.3109 -0.1073  0.0478
55039W        W11280  35.349  21.349  18.278 -0.2575  0.0619  0.1047
55040W        W11281   5.678   5.968  17.627 -0.1766 -0.0228 -0.0789
55041W        W11282  13.117   8.864  13.207 -0.0320 -0.1418 -0.0396
55042W        W11283  34.608  18.943  17.146 -0.1058  0.1239 -0.0800
55043W        W11284  13.588  15.716   6.739 -0.1998  0.0795  0.1538
55044W        W11285  13.787  18.450   2.571 -0.0454  0.2801 -0.5257
55045W        W11286  23.448   5.288  21.519 -0.5303 -0.1418 -0.2415
55046W        W11287   4.181   7.045   0.965  0.0184 -0.0284 -0.0781
55047W        W11288  18.418  22.374   6.202 -0.0122 -0.0468 -0.1035
55048W        W11289  33.343  15.268   8.998 -0.1599 -0.2499  0.1841
55049W        W11290  27.514  30.911   4.378  0.0399  0.1439 -0.0119
55050W        W11291  29.750  29.314   0.349 -0.3794  0.0119  0.0329
55051W        W11292  17.427   7.075  20.200  0.1211  0.2351 -0.0020
55052W        W11293  14.137  22.129  10.266  0.1938  0.2257 -0.1492
55053W        W11294  28.199  28.209  22.775 -0.2264 -0.3192 -0.0242
55054W        W11295   1.482   9.415  14.419 -0.0585 -0.1402 -0.0482
55055W        W11296   4.948   2.480  21.200 -0.1959 -0.3193 -0.3596
55056W        W11297  34.597   2.927  24.234  0.2476  0.0359 -0.0190
55057W        W11298   2.769   3.657  17.431 -0.1057  0.1132  0.3658
55058W        W11299  18.782  20.472   0.300 -0.0599  0.2316  0.3322
55059W        W11300  13.505  14.905   1.028 -0.2184  0.1114  0.0787
55060W        W11301  14.884   6.143   6.801 -0.0612 -0.0344 -0.1936
55061W        W11302  31.599  32.962  21.386 -0.1321 -0.3642  0.6318
55062W        W11303  20.078   8.986   2.669  0.3939  0.3435 -0.1856
55063W        W11304   2.352  27.442   2.037  0.1558 -0.1460 -0.0597
55064W        W11305  21.696  30.173  21.020 -0.3640  0.2265 -0.2705
55065W        W11306  17.674   9.346  12.936  0.1723 -0.1780  0.2014
55066W        W11307  27.070  32.630  11.268 -0.1535  0.1289  0.3878
55067W        W11308  16.130  15.138   8.028 -0.1112  0.1977 -0.0986
55068W        W11309  24.134  19.211  12.035 -0.2757  0.3437  0.1197
55069W        W11310   1.613   6.176   3.291  0.1719  0.1034  0.2533
55070W        W11311  11.241  20.785   1.698  0.0687  0.1152  0.2108
55071W        W11312  12.855  24.456  10.990 -0.0986  0.1815 -0.0070
55072W        W11313   1.374  28.811   6.889 -0.0206  0.0043 -0.2119
55073W        W11314  33.650  21.937  17.657 -0.1037  0.0701  0.1432
55074W        W11315  10.040  34.643  10.229 -0.1180  0.0906  0.1839
55075W        W11316  12.030  23.169  11.889 -0.2630 -0.0840  0.3788
55076W        W11317   1.442   2.489  13.821  0.0003  0.1179  0.3098
55077W        W11318   1.090  17.275  14.359 -0.1920  0.1052 -0.1364
55078W        W11319  27.063  22.312  22.904  0.0189  0.2296 -0.2297
55079W        W11320  31.549  20.730  13.419  0.0378 -0.1008  0.4041
55080W        W11321  18.895  11.742   4.401 -0.2179 -0.0364  0.0194
55081W        W11322  19.626  32.121  19.736 -0.1742  0.0540  0.0162
55082W        W11323   3.163  30.503   7.566  0.0827  0.0957 -0.0420
55083W        W11324  20.163  16.976   2.565  0.2685  0.2151  0.1119
55084W        W11325  13.276  22.911   5.980 -0.1208 -0.0088  0.3431
55085W        W11326  19.410   5.900  17.165 -0.0712  0.1292 -0.0549
55086W        W11327   5.265   6.144   2.458 -0.3812 -0.0295  0.1491
55087W        W11328  13.323  34.897   7.786 -0.0057  0.2655 -0.0497
55088W        W11329  11.540   1.912  11.590  0.3312  0.2057  0.0312
55089W        W11330  10.199  34.218  26.079  0.0579 -0.3068 -0.1074
55090W        W11331  28.544  24.444  19.683  0.3370 -0.2672 -0.0467
55091W        W11332  18.357  26.356   5.857 -0.0334 -0.0048 -0.0627
55092W        W11333  20.325   1.113  22.957  0.2784 -0.1824  0.3585
55093W        W11334  13.082  22.043   6.241 -0.0879 -0.1414 -0.2407
55094W        W11335  13.620  13.818   0.833 -0.1285  0.0351 -0.0074
55095W        W11336  11.184  25.383   8.810 -0.3773 -0.4608  0.4461
55096W        W11337  14.857  30.123   1.229 -0.4349  0.1254 -0.0528
55097W        W11338   7.650   2.557   4.216 -0.0033 -0.0211  0.2254
55098W        W11339  32.600  17.999   5.896 -0.0088 -0.1432 -0.1199
55099W        W11340  23.425  12.284  19.387 -0.1817  0.0001  0.1012
55100W        W11341   3.170  10.624   5.748  0.0363  0.0902 -0.0302
55101W        W11342   7.376  10.393  25.930  0.0321 -0.0520 -0.0373
55102W        W11343  26.397   9.249  15.192 -0.3787  0.2447  0.0171
55103W        W11344  10.589  11.681   6.755  0.0775  0.0591 -0.4152
55104W        W11345   0.486  12.137  14.118  0.1837  0.2507  0.1483
55105W        W11346   1.955   0.917   1.994  0.0971 -0.0734 -0.1360
55106W        W11347  27.097  18.159  24.043  0.0182 -0.2040 -0.0772
55107W        W11348   8.647  19.663   7.964 -0.0928 -0.1233  0.2417
55108W        W11349  32.774  29.481  18.713 -0.0771  0.2383 -0.5673
55109W        W11350  33.498  33.217   6.917  0.1884 -0.3503  0.1182
55110W        W11351   6.526  17.647  20.565 -0.2139 -0.0404 -0.1139
55111W        W11352  15.348  30.482   1.115  0.1638  0.1847  0.3637
55112W        W11353  22.986   6.444  14.195 -0.1065  0.3242 -0.0754
55113W        W11354  23.382  26.527  13.092  0.0304 -0.1192 -0.1672
55114W        W11355   2.993  21.900  14.650 -0.1460 -0.3032  0.0596
55115W        W11356  14.251   9.613   5.525  0.1698  0.0237  0.0595
55116W        W11357  21.521  24.324  22.310  0.2430 -0.0796  0.1382
55117W        W11358  33.104  28.892  22.453 -0.1086  0.0977 -0.0867
55118W        W11359  34.507  17.428  15.918 -0.2796 -0.3391  0.0120
55119W        W11360  28.383  27.094  15.826  0.3394 -0.1203  0.3261
55120W        W11361   4.519  33.833  21.509 -0.0926 -0.1172  0.2634
55121W        W11362   5.854   8.315  10.060  0.0601 -0.0125 -0.0136
55122W        W11363  33.356  34.185  19.339  0.0354  0.1263  0.0057
55123W        W11364  21.885  34.258   6.345  0.0182 -0.1925  0.0810
55124W        W11365  11.133  27.190  14.493 -0.1233 -0.0075  0.2027
55125W        W11366   0.619   8.480  15.114  0.0290 -0.0424  0.1321
55126W        W11367  28.383   3.066  15.742  0.0996 -0.1348  0.1665
55127W        W11368   7.411  10.154  24.468  0.1243 -0.0704 -0.1469
55128W        W11369  24.836  19.086  25.568  0.0934 -0.0503  0.0402
55129W        W11370   1.901  32.178  22.897 -0.1094  0.1158  0.1187
55130W        W11371  26.840  11.227  17.722 -0.0676 -0.1857  0.0470
55131W        W11372   9.128  11.421  23.398 -0.0724 -0.0901  0.1548
55132W        W11373   0.831  35.325  22.687  0.0169  0.1787  0.0183
55133W        W11374   7.415  11.177   0.896  0.1275 -0.2085 -0.0336
55134W        W11375  14.224  24.439  10.144 -0.0400  0.1632  0.2082
55135W        W11376   9.019  28.530   6.394 -0.2531  0.0354  0.2279
55136W        W11377  25.381  10.290  19.440  0.2545 -0.0202  0.1054
55137W        W11378  28.589  15.456  23.056  0.2092  0.0702 -0.0066
55138W        W11379   6.166   7.189   6.628  0.3282  0.3206  0.0554
55139W        W11380   2.361   0.826   9.306 -0.0803 -0.0858 -0.1770
55140W        W11381   0.324  33.765  22.588 -0.0766  0.3884 -0.1476
55141W        W11382   1.765  10.047  14.852  0.1148 -0.4583 -0.1983
55142W        W11383  14.968   6.917   6.007 -0.0787  0.0449  0.1388
55143W        W11384  31.435  30.412  13.820  0.0346  0.1381 -0.1795
55144W        W11385  16.673  29.008   9.617  0.0009 -0.1047  0.0820
55145W        W11386  19.230  23.879   6.708  0.1056  0.0644  0.0736
55146W        W11387  15.155  14.374  14.006 -0.0977 -0.1945 -0.1261
55147W        W11388  14.833   2.850  11.037 -0.4033  0.1272 -0.3446
55148W        W11389  15.320  29.914  23.702  0.1387 -0.0912  0.2881
55149W        W11390  33.908  29.407  17.059  0.1812  0.2845  0.5647
55150W        W11391   5.339  12.870   3.915  0.2053 -0.0389  0.2480
55151W        W11392  28.882  28.592   3.980  0.1253  0.0900  0.0279
55152W        W11393  33.792   8.017  11.993 -0.0983  0.0594  0.0782
55153W        W11394   7.486  24.373  22.265  0.1870 -0.2625  0.0627
55154W        W11395  21.603  11.043   4.833 -0.0412 -0.0004  0.3163
55155W        W11396  13.371   1.473  13.077  0.2244 -0.1309  0.1079
55156W        W11397  27.361  24.796   9.108 -0.0971  0.2639  0.4551
55157W        W11398   8.243  16.457  18.113 -0.3373 -0.0006  0.2328
55158W        W11399  11.933  31.813   7.222 -0.1299 -0.2076 -0.0682
55159W        W11400   7.082  13.299   5.551  0.0680  0.0410 -0.3669
55160W        W11401  29.633   0.766   0.693 -0.0157  0.0791  0.0675
55161W        W11402  14.876  27.921  23.637 -0.4876  0.1336  0.0502
55162W        W11403   6.897  12.742  11.556  0.3938 -0.2587  0.0020
55163W        W11404   9.358  30.513  24.050  0.0527 -0.4787  0.0191
55164W        W11405  23.191  21.654  14.285 -0.2644  0.2158  0.1442
55165W        W11406  10.729  28.458  14.940 -0.0939 -0.2533 -0.1734
55166W        W11407  21.209  20.592  22.517  0.1177  0.1396  0.0131
55167W        W11408  31.969  22.086  10.282  0.0717 -0.2236  0.2973
55168W        W11409  28.948  28.671   9.431 -0.2027  0.0150 -0.0454
55169W        W11410  13.830   4.309  11.526  0.1687 -0.1109 -0.0956
55170W        W11411  19.274  16.688   9.687  0.3198 -0.0438  0.0934
55171W        W11412  23.421   1.365   3.776  0.1615 -0.1421  0.1190
55172W        W11413   4.263  19.130  20.334 -0.0468 -0.0618 -0.1520
55173W        W11414  25.118  14.583  23.828 -0.0332 -0.1157  0.0583
55174W        W11415  11.159  21.980  22.444 -0.0608  0.1237  0.0670
55175W        W11416  28.399  14.688  23.873 -0.0896  0.0426  0.1995
55176W        W11417   7.759  25.994  24.669 -0.1133  0.0341  0.1110
55177W        W11418  33.278  33.769   5.694 -0.0186  0.0680 -0.3631
55178W        W11419  19.531  12.780   0.921 -0.0902 -0.0835  0.2025
55179W        W11420  27.480   9.040  24.716  0.0669 -0.0131 -0.0960
55180W        W11421   7.387  16.889   2.661  0.0078  0.0130 -0.3183
55181W        W11422  18.713   0.195  24.843  0.0050 -0.1881 -0.2512
55182W        W11423  24.523  13.799   8.956 -0.2715 -0.2941  0.1553
55183W        W11424   1.388  22.852  24.593 -0.0805  0.1519  0.1028
55184W        W11425   3.641  21.188   4.147 -0.0821  0.2004 -0.1692
55185W        W11426   4.674   0.280  19.881  0.1384 -0.0057 -0.4302
55186W        W11427   3.934  10.049   5.620 -0.2479  0.0322 -0.1747
55187W        W11428   3.173  14.497  24.384  0.3548  0.3779 -0.3482
55188W        W11429  25.281  10.082  14.456 -0.2980 -0.3200  0.1216
55189W        W11430   1.167  15.128   2.483  0.2439  0.2044 -0.0216
55190W        W11431   0.007  19.963  23.399 -0.0454  0.1488  0.1391
55191W        W11432  15.434  22.265  26.220 -0.1160  0.0459  0.2253
55192W        W11433  19.437  12.724  22.278 -0.4065 -0.3279  0.1054
55193W        W11434  12.810  17.504  20.139 -0.2571  0.0521  0.2792
55194W        W11435   8.141   0.037   4.936 -0.1653  0.1528  0.1568
55195W        W11436  35.145  12.291  18.105  0.1501 -0.0855 -0.2222
55196W        W11437  16.883  26.298  22.618 -0.0755  0.0016 -0.0097
55197W        W11438  21.388  11.297   6.885 -0.1292  0.1156  0.1000
55198W        W11439  21.613   5.002  25.804  0.1771  0.0649 -0.2329
55199W        W11440  20.378  18.865  18.669 -0.1698 -0.3736  0.0434
55200W        W11441  14.810  31.329   7.467 -0.0207  0.1418 -0.1795
55201W        W11442  34.397  22.294   0.391 -0.0631  0.0446 -0.2498
55202W        W11443  26.201   3.126  16.725 -0.1655  0.1160  0.0325
55203W        W11444  28.047  21.865  25.124 -0.1403 -0.0091  0.0033
55204W        W11445  34.920  15.637  21.776 -0.0923  0.2036 -0.1146
55205W        W11446  30.075   4.481  18.128 -0.0371 -0.0455 -0.0691
55206W        W11447  32.736   0.733   3.221 -0.0583 -0.1049  0.1127
55207W        W11448  20.946  25.181  17.027  0.0162 -0.2391 -0.3058
55208W        W11449  11.177  35.219   0.103 -0.0596 -0.1612 -0.1395
55209W        W11450   0.272  13.838  16.855 -0.5148 -0.2741  0.0152
55210W        W11451  20.881  28.707  20.637  0.0845  0.1622  0.1351
55211W        W11452  11.833   7.716   9.437 -0.1103 -0.1994 -0.2388
55212W        W11453  15.149   6.700  24.856 -0.1553 -0.0209 -0.2019
55213W        W11454   9.364  11.318   6.607  0.0674  0.1361  0.3533
55214W        W11455  19.479   2.154   3.092  0.1372  0.1992  0.0183
55215W        W11456  35.048   7.209   2.995 -0.3637  0.2857  0.1291
55216W        W11457  17.463  31.508  24.438  0.0696 -0.0275 -0.0218
55217W        W11458   7.118   3.189  25.592  0.0307 -0.1930 -0.2263
55218W        W11459  13.801  18.437  14.131  0.0153 -0.1734  0.1586
55219W        W11460  27.060  28.332  18.225 -0.2899 -0.1671  0.0005
55220W        W11461  33.562  20.950  20.397  0.2412 -0.0437 -0.3613
55221W        W11462   4.527  12.421   1.657 -0.4737  0.1565  0.1989
55222W        W11463  25.821  32.149  18.427  0.0667 -0.0430  0.0946
55223W        W11464  13.627  25.733  25.442 -0.3479 -0.1244 -0.1935
55224W        W11465  20.018  11.739   1.526 -0.0762  0.0870  0.3400
55225W        W11466   3.267  21.504  17.995 -0.2026 -0.1909 -0.1200
55226W        W11467   1.147   2.387  17.096 -0.0485 -0.2367 -0.3630
55227W        W11468  19.998  24.623  20.246 -0.0212  0.2971 -0.0193
55228W        W11469  14.140  12.701  20.683 -0.0881  0.1577  0.0900
55229W        W11470  21.599  33.287  19.504  0.0151  0.1572  0.3095
55230W        W11471  19.191  25.656  20.063  0.0680  0.0721  0.1148
55231W        W11472   6.835  10.121   6.852 -0.2608 -0.1424  0.0296
55232W        W11473  25.539  14.572   9.543 -0.5094  0.0099  0.1016
55233W        W11474   1.931   2.567  25.793  0.2176  0.2413 -0.1464
55234W        W11475   8.517  25.562  22.675  0.0931 -0.1764  0.0751
55235W        W11476  12.681   7.602  19.874  0.0945 -0.0830 -0.0809
55236W        W11477  14.358   3.858  24.199  0.4013  0.0668  0.0588
55237W        W11478  25.805   7.553   2.111  0.0796 -0.0005 -0.1264
55238W        W11479  20.627   8.943  20.927 -0.1565  0.0647 -0.1627
55239W        W11480  27.167  34.777   3.533  0.2596 -0.1287 -0.0524
55240W        W11481  15.684   0.891   1.242  0.0426 -0.2081 -0.1884
55241W        W11482  32.198   0.503  16.032  0.0536  0.1541  0.5886
55242W        W11483  12.765  34.331  25.518 -0.1062 -0.2338 -0.1213
55243W        W11484  27.977  33.140   4.240  0.0962 -0.2241 -0.0819
55244W        W11485  18.444  19.232  20.734 -0.0717 -0.1553 -0.3273
55245W        W11486  34.161  30.589  21.066  0.1007  0.2016 -0.2189
55246W        W11487   1.529  21.438  21.102  0.0651  0.3209  0.0476
55247W        W11488  10.679  12.741  24.915 -0.2830  0.0656  0.0314
55248W        W11489  35.303   2.139   6.657 -0.0471 -0.2540 -0.0766
55249W        W11490   0.617  18.773  16.296 -0.0152 -0.1222  0.1677
55250W        W11491   2.354  12.633  24.356  0.0751 -0.0698  0.0282
55251W        W11492   7.804  10.384   2.489 -0.2624  0.1852 -0.1851
55252W        W11493   2.185   6.335   6.762 -0.1653  0.3300  0.0723
55253W        W11494  15.776  14.324  23.538  0.0051  0.0030  0.0710
55254W        W11495  13.452   1.346  21.542 -0.0719 -0.0044  0.1251
55255W        W11496  24.468  14.813  16.796 -0.1005 -0.1209  0.1204
55256W        W11497  29.927  34.951  11.610 -0.0713 -0.1392 -0.1540
55257W        W11498   8.466  21.434   9.444  0.0439  0.0949 -0.2929
55258W        W11499  11.104   5.533  19.262 -0.4196  0.1590 -0.1507
55259W        W11500  30.058   4.416   1.627  0.0167  0.4339 -0.1486
55260W        W11501   8.987   5.591   6.616  0.0400  0.0450 -0.1016
55261W        W11502   9.124  18.811  13.693 -0.0743 -0.1021 -0.0163
55262W        W11503  12.595  23.288   0.226 -0.0210 -0.2720  0.1354
55263W        W11504   2.998  30.340  19.574 -0.2490  0.2102  0.0069
55264W        W11505   0.795  11.409  25.833 -0.0187 -0.0071 -0.0138
55265W        W11506  26.382  21.815   7.876 -0.2327  0.1182 -0.1542
55266W        W11507   0.504  11.870  12.547 -0.4713  0.0746  0.0707
55267W        W11508   9.901   2.499  24.499  0.3031  0.1470 -0.1764
55268W        W11509   6.794  13.133  11.090  0.3005 -0.3782 -0.1078
55269W        W11510  17.413   4.135  24.535 -0.0125 -0.0935  0.1159
55270W        W11511  29.005  15.330  11.588  0.1062  0.4781  0.0796
55271W        W11512  18.059  19.142   6.147  0.0708 -0.3162 -0.1989
55272W        W11513  30.604   5.358   2.005 -0.0283 -0.1147 -0.3014
55273W        W11514  27.832   1.581  23.450  0.3734  0.4177 -0.1489
55274W        W11515  25.682   0.935  22.886  0.0296  0.1037  0.0024
55275W        W11516  35.372  30.084  23.054  0.1641 -0.1480 -0.2552
55276W        W11517  14.714  22.963  15.169  0.3167  0.2208 -0.2186
55277W        W11518   5.813   2.832   1.131  0.0138  0.0260 -0.3516
55278W        W11519   4.004  31.915   3.215  0.1067  0.1116 -0.0802
55279W        W11520  17.586   1.050  24.540 -0.1652 -0.3127  0.0287
55280W        W11521  15.095  22.889  16.282  0.2091 -0.2815  0.4443
55281W        W11522  14.850   2.999  26.048  0.0223 -0.0011  0.1458
55282W        W11523  29.866  18.006  18.781 -0.1342 -0.4242  0.0158
55283W        W11524  19.279  15.784   2.058  0.0052  0.1781 -0.3189
55284W        W11525  15.253   6.869  11.438 -0.2746 -0.0444 -0.1794
55285W        W11526   5.264  11.246  21.987  0.2908 -0.0235  0.1460
55286W        W11527   9.388  20.640  12.786 -0.1141 -0.2898  0.1760
55287W        W11528  30.183   0.460  20.129 -0.0238  0.2710  0.2371
55288W        W11529  19.860  17.199  17.170 -0.0591  0.2729  0.0171
55289W        W11530  25.082   2.923  15.410 -0.2278 -0.0630  0.0396
55290W        W11531  31.198   9.908  18.247 -0.1228  0.0178 -0.1382
55291W        W11532  15.442   0.871   5.906 -0.1864 -0.0366  0.0172
55292W        W11533  14.063  21.962   5.213 -0.2678  0.0383  0.0613
55293W        W11534   9.067  31.322  15.372  0.1206 -0.1499 -0.2014
55294W        W11535  10.019   5.224   5.878  0.0721 -0.3289  0.1347
55295W        W11536  17.282  31.275   9.022  0.2391 -0.3492  0.1634
55296W        W11537  34.911  26.019  24.180  0.1660  0.0404 -0.3608
55297W        W11538  33.378   9.455  23.384  0.3673 -0.1494 -0.0845
55298W        W11539  12.475   8.659   3.216  0.0701 -0.1830 -0.0570
55299W        W11540  12.820  22.186   9.441 -0.0174 -0.1525 -0.0112
55300W        W11541  16.728   4.477  10.915 -0.3073 -0.1307 -0.2525
55301W        W11542  14.116   1.469   9.838 -0.1538  0.1577 -0.0105
55302W        W11543  23.856  34.438  13.186  0.0126  0.0692  0.0547
55303W        W11544  16.010   9.418  10.447  0.1356 -0.2097 -0.2394
55304W        W11545  10.641   5.062   0.064 -0.3381 -0.0450 -0.0491
55305W        W11546  13.083   0.967  23.748 -0.0571  0.0158  0.2837
55306W        W11547  26.981  24.925  13.342  0.1728 -0.1391  0.1437
55307W        W11548   6.416  17.846   8.010  0.1763 -0.3978  0.0141
55308W        W11549  32.332  18.665  17.615 -0.1410 -0.1857 -0.2169
55309W        W11550  31.188  29.499  12.839  0.0819  0.0215 -0.1803
55310W        W11551   9.266  22.264  22.000  0.1712 -0.1669 -0.1912
55311W        W11552  14.612   2.910   7.597 -0.0351 -0.2555  0.1638
55312W        W11553  22.294   7.006   6.619 -0.0464 -0.1269  0.4249
55313W        W11554  18.171  29.747   2.362 -0.0723 -0.0012 -0.5256
55314W        W11555   1.264  34.466  16.625 -0.1495  0.2629  0.1904
55315W        W11556   7.333  21.521   4.011  0.0122  0.0489 -0.1816
55316W        W11557   3.129  16.478  20.300  0.2434  0.0532  0.3259
55317W        W11558  23.224  35.231  23.585 -0.2564  0.0884 -0.3776
55318W        W11559  20.293  21.665   2.646 -0.0534 -0.1204  0.0059
55319W        W11560  19.034   2.190  23.902 -0.0800  0.2133  0.1210
55320W        W11561  17.924   1.658   9.412 -0.0724 -0.3753 -0.1023
55321W        W11562  16.428  13.634  24.193  0.0140 -0.4374  0.2905
55322W        W11563  12.534  35.308   3.162  0.0097 -0.1662 -0.4933
55323W        W11564  25.295   2.733   3.501 -0.2070  0.0297 -0.1477
55324W        W11565  23.139   7.489  20.247  0.0488  0.0182 -0.1438
55325W        W11566  11.846  35.242   1.383  0.1309  0.1081 -0.1399
55326W        W11567  30.398  16.518  25.753 -0.0742 -0.0278  0.0042
55327W        W11568  12.322  10.853  21.163  0.1586 -0.3882 -0.0421
55328W        W11569  17.914  10.812  10.026  0.1170  0.0767 -0.2223
55329W        W11570  10.459  24.994  14.594  0.0427  0.1595  0.0198
55330W        W11571  10.878  34.084  13.668  0.1446 -0.1403 -0.3092
55331W        W11572  13.385  17.830  22.262  0.3375  0.0160  0.3470
55332W        W11573  29.004  23.330  15.337  0.0875  0.2580 -0.2623
55333W        W11574   8.042   3.531  22.073 -0.0511 -0.0787  0.0872
55334W        W11575  14.897   4.002   2.608  0.0460  0.1564  0.0640
55335W        W11576  14.441   8.113  10.819 -0.0589  0.0258  0.2199
55336W        W11577   1.900  26.207  18.763 -0.2390  0.0868  0.0420
55337W        W11578   4.861  16.914  24.642  0.1487 -0.0149 -0.1441
55338W        W11579   7.029  27.321  13.305 -0.0242 -0.2473 -0.0965
55339W        W11580  30.319   2.761  20.400  0.1151 -0.2196 -0.1677
55340W        W11581  17.340  15.316   1.615 -0.0104 -0.0734  0.0201
55341W        W11582  10.889  28.083   6.509  0.1985  0.1253 -0.0588
55342W        W11583  19.969   3.660  21.589 -0.2492  0.0229  0.2047
55343W        W11584  30.363   9.591  11.876 -0.1597  0.2123 -0.2319
55344W        W11585   1.493  16.698  11.239 -0.0698  0.2253 -0.0792
55345W        W11586  29.949   1.873  22.813 -0.5319  0.2135  0.0653
55346W        W11587  23.632   2.593  18.864 -0.1487  0.0229 -0.0729
55347W        W11588  15.361  35.017  21.886  0.0608  0.1758 -0.0427
55348W        W11589  28.766  17.514   8.739  0.0188  0.1175 -0.2198
55349W        W11590   7.333  10.448   6.032  0.2182 -0.1908  0.0264
55350W        W11591  16.959   8.225  11.212 -0.0263 -0.1049  0.0390
55351W        W11592  19.583  32.500  20.015 -0.3089  0.3472 -0.3112
55352W        W11593   2.780   1.059  17.280 -0.1799 -0.0422  0.0218
55353W        W11594  26.190  22.826  24.046 -0.0912 -0.1019  0.0516
55354W        W11595  24.969  15.915  23.105 -0.1486 -0.0247  0.2941
55355W        W11596  19.671  10.835  23.813  0.1272 -0.1361  0.1933
55356W        W11597  17.474  14.822  20.707  0.1312 -0.2286  0.0196
55357W        W11598  32.772   5.031   2.118 -0.1651 -0.2103  0.1609
55358W        W11599   7.191   3.672  22.764  0.1517 -0.0507  0.2130
55359W        W11600  13.533  25.075   3.756 -0.1368 -0.0556  0.0726
55360W        W11601  28.182   7.073  10.409 -0.0303 -0.0084  0.3323
55361W        W11602   5.683  11.438  17.622  0.2213  0.0294  0.0715
55362W        W11603  29.921  16.345  13.478 -0.1367  0.5231  0.3222
55363W        W11604  30.100   9.812  26.099 -0.1186 -0.1013 -0.3022
55364W        W11605  27.171  20.277  13.441 -0.2206  0.0418 -0.0477
55365W        W11606  33.703   1.601  23.388 -0.3635  0.1412  0.2493
55366W        W11607  28.359  24.408  17.525  0.0491  0.0562  0.1329
55367W        W11608  11.130  25.997  13.645  0.2732 -0.0098  0.1643
55368W        W11609  20.391  16.959  21.537  0.0859  0.1225  0.3990
55369W        W11610  16.411  21.271  25.244 -0.1469  0.0074  0.2432
55370W        W11611  17.359  11.866   6.688  0.2099 -0.0082  0.2437
55371W        W11612  17.196  32.381  25.360 -0.0788  0.1850  0.0051
55372W        W11613  22.460  17.310  15.451 -0.0648  0.2336 -0.2664
55373W        W11614  14.116   4.263  18.838  0.1258  0.2072  0.1186
55374W        W11615  15.081  12.034  10.719  0.0372 -0.1325  0.0800
55375W        W11616  14.838  27.685   9.955 -0.0156  0.1992  0.1409
55376W        W11617  24.920  23.838  20.311  0.3808  0.4577 -0.0925
55377W        W11618   8.808  15.909   0.860 -0.1670  0.3679  0.1587
55378W        W11619  13.509  23.598   9.615 -0.1092 -0.0057 -0.3121
55379W        W11620  19.393   0.418   2.440 -0.4104  0.0953  0.1007
55380W        W11621   6.890   5.470  20.815 -0.1614 -0.1405  0.3261
55381W        W11622  27.074  26.847  10.562 -0.0178 -0.3837 -0.3585
55382W        W11623  24.898   0.048   6.645 -0.0297 -0.0854 -0.2501
55383W        W11624  21.910  10.519   5.296 -0.0914  0.0632 -0.2337
55384W        W11625   3.847  12.572  21.261  0.0431 -0.0209  0.0803
55385W        W11626  22.074  26.626  16.577 -0.1490 -0.0399  0.0157
55386W        W11627  33.849  16.155  18.605 -0.2564  0.2153  0.1105
55387W        W11628  24.411  23.530  10.331  0.3989  0.3326 -0.1443
55388W        W11629  13.983  32.190   0.635  0.2270  0.1753  0.1464
55389W        W11630   2.635   5.966  22.181  0.0585  0.3800 -0.0713
55390W        W11631  33.865   0.339   1.028  0.1413 -0.0143  0.2332
55391W        W11632  33.251  26.052  17.285  0.3116  0.4656 -0.0219
55392W        W11633  35.187  31.931   3.580  0.1966  0.0390  0.1642
55393W        W11634  15.519  27.202  23.361 -0.1208 -0.0489  0.2472
55394W        W11635  17.489  12.589  25.341  0.1609  0.2812  0.1201
55395W        W11636   9.866   3.860   0.405 -0.1844  0.0406 -0.0931
55396W        W11637   6.373  32.841  14.015  0.1306  0.1110 -0.0744
55397W        W11638  10.512  10.578   2.735  0.0254  0.2340 -0.1143
55398W        W11639  23.354  25.319  17.697  0.2233 -0.0252  0.2232
55399W        W11640  12.776   2.174  24.359  0.1554 -0.0432  0.2574
55400W        W11641   8.117   7.566   6.959  0.1811  0.3796 -0.1748
55401W        W11642  18.653  15.802  20.304  0.2297 -0.2488  0.2144
55402W        W11643   9.700  21.070  25.381 -0.0621  0.0643 -0.0196
55403W        W11644  12.360  26.657   7.010 -0.2183  0.3011  0.0277
55404W        W11645   5.496  17.904   3.589  0.0127  0.0783  0.1624
55405W        W11646  13.861  14.100  18.349  0.1982 -0.0536 -0.1825
55406W        W11647  13.869  21.441  23.673  0.4032  0.0359 -0.0521
55407W        W11648   8.473  31.239  22.596  0.2361  0.1242 -0.2376
55408W        W11649  23.524   0.681  20.627 -0.0972 -0.0330 -0.0153
55409W        W11650   1.256  18.613  19.490 -0.3613 -0.2426  0.0328
55410W        W11651   5.970  12.238   0.737  0.2334 -0.1437  0.1598
55411W        W11652   4.106   1.386   0.892  0.1559  0.2448 -0.0068
55412W        W11653  20.716   6.744   5.049  0.0141  0.1567  0.0389
55413W        W11654   1.874  26.544  25.872 -0.0978  0.0548  0.2092
55414W        W11655  32.002  21.202  11.826 -0.1777 -0.0853 -0.1773
55415W        W11656  32.261  19.419  20.242  0.0119 -0.1061 -0.0717
55416W        W11657  21.882  26.386  25.658  0.0952 -0.0847 -0.3181
55417W        W11658  21.290  10.986  24.118  0.0767 -0.3837  0.1805
55418W        W11659  28.688  25.541  25.192 -0.2214  0.2744 -0.0413
55419W        W11660  20.493  17.545  20.739 -0.0375  0.0471  0.0097
55420W        W11661  10.654  12.763   8.440  0.2161 -0.0042  0.1807
55421W        W11662  12.021   3.296  25.965  0.0346 -0.2431  0.0188
55422W        W11663   2.047   9.374  19.525 -0.1147  0.1655  0.3299
55423W        W11664  34.278  25.063   0.724  0.0820  0.0956  0.0813
55424W        W11665  33.256  24.161  26.034 -0.0026 -0.3126  0.2087
55425W        W11666   3.829   4.422   3.980  0.1173 -0.1680 -0.1165
55426W        W11667  16.831   7.832   5.388 -0.1400  0.2977 -0.2493
55427W        W11668  28.186  15.441  20.289  0.0530 -0.1140 -0.0921
55428W        W11669  17.656   8.280   3.928  0.0044  0.1058 -0.1099
55429W        W11670  19.765  14.878  23.353 -0.0062  0.0632 -0.1340
55430W        W11671   8.845  27.770   2.185 -0.0092  0.2013 -0.3554
55431W        W11672  30.437   6.159  13.938  0.2456  0.0749 -0.2575
55432W        W11673  15.171   1.638  23.702 -0.0284  0.2491  0.0050
55433W        W11674   9.236   7.204   1.179  0.3675 -0.1851 -0.0841
55434W        W11675   4.110   2.009  21.805 -0.1706  0.2882 -0.0936
55435W        W11676  30.102   1.345  20.147  0.0772 -0.1320 -0.2145
55436W        W11677   9.691  23.104  11.612  0.0379  0.0618  0.0951
55437W        W11678  10.387   6.665   1.060  0.0316  0.3408  0.0126
55438W        W11679  32.638  19.545  18.530  0.3098 -0.1774  0.5351
55439W        W11680  13.314  21.995   9.217  0.1459 -0.0190  0.0746
55440W        W11681  12.768  33.178   2.874  0.0710  0.0741  0.0513
55441W        W11682   3.313   6.789  18.773 -0.0268  0.1179 -0.0782
55442W        W11683  17.606   4.616   3.072  0.2908  0.0171  0.0068
55443W        W11684  10.921  21.886   9.002  0.2314 -0.2241 -0.1031
55444W        W11685   4.667   3.628  26.006 -0.4472  0.3182  0.0128
55445W        W11686  18.552  19.005  22.658  0.0586  0.1688  0.2387
55446W        W11687  29.879   5.834  17.349 -0.1461 -0.1738  0.0006
55447W        W11688  21.134  34.630  19.308 -0.0759  0.0906 -0.0995
55448W        W11689   2.300  35.329   8.385  0.0846 -0.2283 -0.1922
55449W        W11690   6.048  27.579  22.607  0.0752  0.1244  0.2726
55450W        W11691   6.412   5.215  10.097  0.0834  0.3303 -0.0726
55451W        W11692  23.017   1.899  23.652  0.2629  0.0438 -0.0204
55452W        W11693  22.893  30.771  25.276  0.0359  0.3303 -0.0346
55453W        W11694   1.925   5.697  19.021 -0.1811 -0.0362 -0.0540
55454W        W11695  24.919  31.086  24.257 -0.0934  0.0204 -0.0060
55455W        W11696  25.460  13.375  13.039  0.4068 -0.1646  0.0551
55456W        W11697   0.998   4.760   2.170 -0.0979  0.1515 -0.2161
55457W        W11698  26.756  33.457   3.545 -0.1622 -0.0522  0.0788
55458W        W11699  16.170   4.519  20.923  0.1875  0.1185  0.0942
55459W        W11700  14.844  33.228  11.912  0.1550  0.3361 -0.3736
55460W        W11701  30.575  23.959  15.713 -0.2688 -0.1927  0.1869
55461W        W11702   1.851   2.512  21.607  0.3347  0.1831 -0.1329
55462W        W11703  25.650  20.147   7.095  0.1949 -0.0994 -0.3363
55463W        W11704  24.599  33.970  18.616  0.0061 -0.0263 -0.0951
55464W        W11705  26.581   7.829  25.145 -0.0211 -0.2177  0.1800
55465W        W11706  16.388  22.299   1.862 -0.1535  0.0147  0.0694
55466W        W11707  33.910   4.937  23.690 -0.1468  0.0435  0.0200
55467W        W11708  20.415  21.265   3.478 -0.1375  0.0528 -0.4188
55468W        W11709  14.130   2.399   9.048  0.0241  0.1333  0.0672
55469W        W11710  31.238   6.949  22.317  0.0837  0.4881 -0.2076
55470W        W11711   5.142  14.165   4.168 -0.2597  0.1953  0.1916
55471W        W11712   6.506  11.286   1.397 -0.1912 -0.3374 -0.1399
55472W        W11713  26.180  11.135  24.515 -0.1455  0.3064  0.0266
55473W        W11714  24.854   8.309   2.840 -0.1521  0.0558 -0.0169
55474W        W11715  29.647  10.041  10.172 -0.2191 -0.2138  0.0450
55475W        W11716   7.189  21.401  11.156 -0.1610  0.1248  0.2075
55476W        W11717  31.779   3.725  26.146 -0.2950  0.1031 -0.2008
55477W        W11718  19.823   3.682   0.657 -0.0029 -0.1125 -0.1241
55478W        W11719   6.263  23.883  11.808 -0.0111 -0.1633  0.0990
55479W        W11720  18.717   3.710  10.546  0.2008  0.0640  0.1506
55480W        W11721  28.385  10.064   7.974  0.0463 -0.1515  0.0740
55481W        W11722   9.620  19.643  22.120  0.0771  0.1510  0.2592
55482W        W11723   3.400  29.612   9.513 -0.2135  0.0146 -0.0801
55483W        W11724  18.284  27.259  23.954 -0.0275 -0.2470  0.1372
55484W        W11725  16.813   5.796   9.468 -0.2584 -0.0505 -0.2199
55485W        W11726  25.913  16.695  22.366 -0.0776  0.2614  0.1905
55486W        W11727   3.136  31.021   7.601  0.1320  0.0672 -0.4310
55487W        W11728   9.428  33.369   5.301  0.0940 -0.0256 -0.2429
55488W        W11729  10.067  15.261  12.061  0.0324 -0.0458  0.3827
55489W        W11730  11.128   3.205   3.860 -0.2266  0.2967  0.0185
55490W        W11731  28.020  19.299  23.530 -0.0773 -0.0168  0.0818
55491W        W11732  24.678  26.203  20.305  0.1302  0.0722 -0.0854
55492W        W11733   9.515  28.604  14.397  0.0714 -0.0344 -0.1324
55493W        W11734  27.504  26.710  13.163 -0.0774 -0.1016 -0.1026
55494W        W11735  20.375   5.678   9.296  0.2386  0.0433  0.1904
55495W        W11736  35.337  34.883   3.009  0.1156 -0.0630  0.3320
55496W        W11737   7.997  19.760   5.745 -0.1961  0.0132 -0.0317
55497W        W11738  12.345   8.248  21.878 -0.1485  0.0449 -0.0622
55498W        W11739  30.836  27.315  21.300  0.2110 -0.0816 -0.0375
55499W        W11740  30.123  17.509  10.205 -0.0514 -0.0283 -0.2815
55500W        W11741  25.742   0.607  24.276  0.1538 -0.1542  0.0280
55501W        W11742   4.803  24.899  25.152  0.1968 -0.1600  0.0824
55502W        W11743   1.620  14.768  21.367 -0.0068  0.1719  0.0670
55503W        W11744  26.809  11.598  14.023  0.1753  0.0278 -0.3156
55504W        W11745  17.065  15.081   4.654  0.0469  0.1559 -0.0045
55505W        W11746  22.362  21.094  19.133 -0.2007 -0.1938  0.3836
55506W        W11747   2.278   7.593   3.049  0.0289  0.1123  0.1941
55507W        W11748   7.508   9.432   7.201  0.3016 -0.2741  0.0533
55508W        W11749  10.004  18.095  12.907 -0.1007 -0.0087 -0.0052
55509W        W11750  15.692  24.672  14.743  0.1135  0.1891 -0.4492
55510W        W11751   8.372  20.853   7.792 -0.0880 -0.1371 -0.2746
55511W        W11752   0.831  17.946  11.698 -0.1065  0.0482 -0.0091
55512W        W11753  30.640  11.137  12.912  0.0127 -0.4463  0.1474
55513W        W11754  19.667  24.150   8.566  0.0310  0.0239 -0.0857
55514W        W11755  15.893  31.148   4.578  0.4851 -0.0024 -0.1116
55515W        W11756   9.949  17.211  10.953 -0.0606 -0.3315  0.1337
55516W        W11757   4.673   4.095   4.068  0.0366 -0.1027  0.2158
55517W        W11758  10.629  30.050   6.125  0.2403 -0.1218 -0.2747
55518W        W11759  11.277   6.667  24.014  0.1775 -0.3509 -0.0458
55519W        W11760   1.707   0.971   8.785  0.0060 -0.0433  0.3733
55520W        W11761  14.092  29.626  24.311  0.0269 -0.1845  0.3587
55521W        W11762  16.938   7.367   7.557 -0.1236 -0.0885  0.5791
55522W        W11763  26.235   1.364  10.720 -0.1680  0.4057  0.3924
55523W        W11764  11.637  20.165  16.217  0.1907 -0.1324 -0.2828
55524W        W11765  11.085   8.361   9.979 -0.0191 -0.0430 -0.4375
55525W        W11766  31.499  31.026  14.479  0.1073 -0.0043  0.1670
55526W        W11767  18.778   4.794  16.644  0.0748  0.0145  0.6009
55527W        W11768  27.380  26.955  11.332 -0.1373 -0.1768 -0.0002
55528W        W11769  24.006  25.960  21.149 -0.0880 -0.1308  0.1556
55529W        W11770  10.698  32.148   6.407 -0.1112  0.2279 -0.0248
55530W        W11771  25.633  28.835  12.559  0.0508 -0.2165 -0.0762
55531W        W11772   2.814  32.293   1.623  0.0043 -0.1428  0.0415
55532W        W11773   4.260  32.185  19.128 -0.1772 -0.0527  0.0773
55533W        W11774   3.141   8.593   3.249 -0.2525  0.1712 -0.1466
55534W        W11775  30.765  34.003   4.922  0.1624  0.1777  0.0716
55535W        W11776   8.896   5.311  25.973  0.1754  0.1360 -0.0228
55536W        W11777   4.080  31.294  24.356 -0.0507  0.1765 -0.2336
55537W        W11778   9.033  16.813   0.034  0.0180  0.1434 -0.0822
55538W        W11779  17.352   1.517  20.351 -0.0209  0.1800 -0.0331
55539W        W11780  22.799  10.152  25.445  0.1066 -0.1406 -0.0125
55540W        W11781   8.294  21.019  26.029  0.2266 -0.3637 -0.2517
55541W        W11782   7.756  35.088   6.946 -0.1668  0.1397  0.1149
55542W        W11783   7.997  18.849  11.369  0.2158  0.3621 -0.0043
55543W        W11784  21.444  18.147  25.303  0.2858  0.0742  0.0639
55544W        W11785  12.377   1.386  21.544  0.1634 -0.1527 -0.2388
55545W        W11786  14.109   6.897  20.242 -0.3335 -0.2765  0.1336
55546W        W11787  35.045  23.771  10.245  0.0075 -0.1452 -0.1993
55547W        W11788  34.003  20.746   9.973 -0.1756 -0.1381 -0.1973
55548W        W11789  18.668  11.200  10.480  0.0429  0.2281  0.1813
55549W        W11790  30.380  11.181  23.068 -0.1202 -0.1238 -0.1300
55550W        W11791  25.763   1.011  16.011  0.1357 -0.3025 -0.2492
55551W        W11792  23.683  34.644  18.751 -0.1561 -0.2801 -0.1722
55552W        W11793   6.778  21.149   0.501 -0.3520 -0.1387  0.1420
55553W        W11794  12.233   0.494   0.800  0.0718 -0.0299 -0.1117
55554W        W11795   9.137   1.005   8.932 -0.3033 -0.0174 -0.3070
55555W        W11796   5.716  24.347   8.959 -0.0820 -0.3865 -0.2995
55556W        W11797   6.878   5.229  19.205 -0.0020 -0.2267  0.0392
55557W        W11798   5.493  19.859  21.677  0.0210 -0.1800 -0.0414
55558W        W11799  19.164  30.159   6.244 -0.0230  0.0248  0.1272
55559W        W11800  30.774   4.359  15.940 -0.3514 -0.1815 -0.1809
55560W        W11801  15.292  23.256  10.868  0.0649  0.1873 -0.3724
55561W        W11802  29.846  15.077  14.985  0.0932 -0.1072  0.2368
55562W        W11803   5.527  16.517   4.853 -0.0523  0.1393 -0.0677
55563W        W11804   7.708  22.337  14.287  0.3372 -0.1666 -0.2931
55564W        W11805  23.632  26.210  23.606 -0.3804 -0.1197 -0.0497
55565W        W11806   5.906  34.914   2.371  0.0945 -0.4220 -0.0912
55566W        W11807  14.487  26.962  14.668 -0.0449  0.1899  0.0959
55567W        W11808   4.577  25.600  19.321  0.0257  0.0250 -0.4245
55568W        W11809   6.532  23.823  22.181  0.1100 -0.0065  0.2672
55569W        W11810  24.964  26.574  23.623  0.3084  0.3274  0.0342
55570W        W11811  13.495   3.193   0.257 -0.4094  0.0097  0.1466
55571W        W11812  33.323  34.530   3.168  0.3421  0.0333  0.0640
55572W        W11813  24.056  12.235  12.528  0.1546  0.1238  0.0153
55573W        W11814  29.127   5.830   1.695 -0.1410  0.1324  0.1638
55574W        W11815  24.283  29.850  11.309  0.1956 -0.4434 -0.0875
55575W        W11816  34.662  16.160  11.587  0.1788  0.2040  0.0533
55576W        W11817   9.306  12.223  19.031  0.0553 -0.5499  0.1831
55577W        W11818  16.241   0.812   5.234  0.0623  0.2280  0.2619
55578W        W11819   1.933   9.070  22.436 -0.0852  0.0445 -0.0053
55579W        W11820   0.837  10.756   2.554 -0.1974  0.0861  0.0532
55580W        W11821  29.034  15.539  12.917 -0.0019 -0.0444 -0.0850
55581W        W11822  24.637  33.383   2.909  0.1514 -0.0439 -0.1657
55582W        W11823  19.940  11.010   8.020  0.0139 -0.0141  0.3055
55583W        W11824  32.768  15.452  19.420  0.2946 -0.0425  0.1685
55584W        W11825   2.400  26.944   5.487  0.1895 -0.0640 -0.0441
55585W        W11826   1.813  35.251   5.115 -0.0919  0.1040  0.1037
55586W        W11827  16.663   8.068  20.032 -0.0118 -0.0295 -0.1235
55587W        W11828  20.028   6.956  21.591 -0.0947 -0.3902  0.1729
55588W        W11829  34.945  30.965   5.301 -0.0473 -0.0092  0.1124
55589W        W11830  23.415  23.402  16.769 -0.0847  0.2528  0.2101
55590W        W11831   3.282  15.862  24.042  0.1099  0.1332 -0.0001
55591W        W11832  26.875  25.610  22.890 -0.1985  0.1343  0.1001
55592W        W11833   7.273  24.882  16.300  0.0665 -0.0779 -0.1716
55593W        W11834  25.597  22.741  11.614 -0.3355  0.0457  0.3203
55594W        W11835   4.006  21.233  18.754 -0.2447  0.2437  0.1566
55595W        W11836  14.377  23.112   0.849  0.0087 -0.0664  0.0213
55596W        W11837  27.622   5.893  10.388 -0.1675  0.2655 -0.0593
55597W        W11838  23.085  21.864   1.730  0.2930 -0.2550  0.1235
55598W        W11839  26.827   8.855  14.432 -0.0359 -0.2741  0.0867
55599W        W11840  28.205  31.736  12.319 -0.0249  0.0427 -0.3702
55600W        W11841   2.858  34.783   7.189 -0.0849  0.1539 -0.1092
55601W        W11842  19.771  20.995  26.252  0.1916  0.0138 -0.0000
55602W        W11843  31.874  16.647   8.835  0.0554  0.1500  0.0134
55603W        W11844   2.813   7.611   5.600  0.0830  0.0701 -0.2307
55604W        W11845  24.114  15.512  25.157 -0.3245 -0.0298 -0.0565
55605W        W11846   8.731   3.505  14.939  0.0904  0.0743 -0.0186
55606W        W11847  34.922  33.901   2.319  0.1322 -0.3681  0.2802
55607W        W11848  21.957  19.429  15.933  0.0196 -0.1482  0.1057
55608W        W11849   7.699  33.237  24.812 -0.0635  0.0762  0.0148
55609W        W11850  18.162  15.289  24.887  0.2415  0.2617  0.3344
55610W        W11851   9.284  30.649  11.947 -0.1228 -0.0930  0.3782
55611W        W11852  30.403  29.904  17.467  0.3712 -0.1171  0.2292
55612W        W11853   5.607  29.689  10.625 -0.2209 -0.3010 -0.2953
55613W        W11854  21.667  26.677  25.292  0.0985  0.3474  0.2116
55614W        W11855  10.874   7.858  12.478 -0.1622  0.1742  0.0334
55615W        W11856   9.355  31.907   7.524  0.0825  0.2272 -0.2082
55616W        W11857  33.060  12.964  19.776  0.1228 -0.0813  0.1100
55617W        W11858  22.569  28.305  21.265 -0.2773 -0.2753  0.1152
55618W        W11859   3.776  28.154  25.710  0.0726  0.1429 -0.2003
55619W        W11860  12.265  29.716  21.565 -0.0977 -0.1615  0.1601
55620W        W11861  10.269   9.156   1.349  0.1198  0.3815  0.0659
55621W        W11862  17.171  24.004   7.381  0.0249 -0.1394  0.0178
55622W        W11863  11.289  26.084   9.398 -0.1146 -0.2269 -0.0178
55623W        W11864  17.343  13.119  13.255 -0.1848 -0.0498  0.0860
55624W        W11865  18.397  18.222  11.497  0.1729 -0.2470 -0.3434
55625W        W11866  18.169  19.081  26.190  0.1148  0.0044 -0.0092
55626W        W11867   0.526  18.462  12.326  0.0023  0.1908 -0.0176
55627W        W11868  11.925  27.830  14.727 -0.1861  0.1607  0.0891
55628W        W11869   4.345  32.699  19.411  0.3230  0.0688 -0.3648
55629W        W11870   3.696  24.837  19.639 -0.0102 -0.1254 -0.0103
55630W        W11871  24.534   4.096  21.557  0.0806  0.1012  0.1121
55631W        W11872  15.532  23.166   5.672  0.2889 -0.0330  0.2197
55632W        W11873  14.982   9.897  21.420  0.0432  0.1179  0.3200
55633W        W11874  13.845  30.671   2.617  0.1775 -0.2819  0.1847
55634W        W11875   7.325   8.539  12.178 -0.1494 -0.2828  0.1125
55635W        W11876  11.621  27.174   5.436  0.0269  0.0226 -0.0635
55636W        W11877  19.899   1.444   8.417  0.0463  0.1255  0.5317
55637W        W11878  24.653   4.198  24.483 -0.0891 -0.0938  0.0300
55638W        W11879  31.921  14.934  24.086 -0.1907  0.0664  0.1484
55639W        W11880  23.728   5.951   4.243  0.3337 -0.3200  0.0944
55640W        W11881  19.509   6.677   0.524 -0.0736 -0.3070 -0.1082
55641W        W11882  20.912  30.020  21.358 -0.1945 -0.1669 -0.5229
55642W        W11883  23.918  12.538  16.530  0.2888 -0.1980  0.0074
55643W        W11884  21.742  23.785  22.376  0.1130  0.3948 -0.1591
55644W        W11885  28.029  23.210  15.317  0.0814  0.2416  0.3793
55645W        W11886  30.370   8.076   9.290 -0.0137 -0.1170 -0.1781
55646W        W11887   9.098   4.683  24.862  0.1013 -0.4392  0.1337
55647W        W11888  23.075   4.633  22.141 -0.1037 -0.3719  0.1813
55648W        W11889  25.763   6.510  10.299  0.4049 -0.0349 -0.1633
55649W        W11890  20.900  22.336   8.967  0.0988  0.1662 -0.1521
55650W        W11891   6.366  30.199  11.542 -0.0217 -0.0417 -0.1271
55651W        W11892  21.981   5.096   0.368 -0.0943 -0.2884  0.3685
55652W        W11893   0.187   0.016   6.083  0.2106  0.0162 -0.1963
55653W        W11894   0.537  21.758  13.368  0.0649  0.1221  0.1804
55654W        W11895   5.982  14.683  23.404 -0.0261  0.0482 -0.3034
55655W        W11896  27.351  29.815   4.169  0.2827 -0.1194  0.2076
55656W        W11897  33.889  13.727   9.146 -0.5069  0.1478  0.0314
55657W        W11898  13.015  24.285  22.067  0.1195  0.2141 -0.3728
55658W        W11899   9.271   6.591   0.286  0.0182  0.0883 -0.1335
55659W        W11900   0.733  33.219  21.455 -0.3483 -0.3609  0.0137
55660W        W11901  33.351  23.121   8.705  0.1212  0.0035  0.1628
55661W        W11902  18.889  15.796   9.177  0.0304  0.0953 -0.2014
55662W        W11903   8.334  26.199   6.701 -0.0910 -0.6202  0.0260
55663W        W11904  15.604  26.649  11.433 -0.1146 -0.0070  0.1525
55664W        W11905  11.538   6.778  10.856  0.0600 -0.0809 -0.1994
55665W        W11906  24.948  35.373  22.588 -0.4150  0.1339  0.0877
55666W        W11907  24.044  17.997  16.413  0.1988 -0.3324  0.1215
55667W        W11908  10.325  23.510   0.239 -0.0786  0.3858  0.0359
55668W        W11909  24.404  33.173  20.913 -0.1219 -0.0119 -0.1826
55669W        W11910  14.664  23.013   9.830  0.1459 -0.1433  0.0491
55670W        W11911   3.460  18.878  16.693  0.2024 -0.0464 -0.1018
55671W        W11912   9.449  22.177  14.122 -0.0967 -0.2137  0.1989
55672W        W11913  28.383   9.394  19.767 -0.0631 -0.1031  0.0670
55673W        W11914  26.853  10.443   1.569 -0.0949 -0.3617  0.1397
55674W        W11915  34.443  15.006   9.600 -0.1772  0.0881  0.1059
55675W        W11916   8.034  33.820  23.656  0.0092 -0.2958 -0.1651
55676W        W11917  22.654  31.373  19.136  0.2402 -0.0539 -0.1073
55677W        W11918   4.451  14.722   2.688 -0.1216 -0.1487 -0.1912
55678W        W11919  34.420  21.097  17.287  0.0854  0.1794  0.3513
55679W        W11920  23.467  15.525  23.764 -0.1581 -0.1427  0.0427
55680W        W11921   5.728   4.392  19.063  0.0855  0.4188  0.3480
55681W        W11922  16.627  21.525  13.580  0.3040 -0.0404  0.0258
55682W        W11923  11.423  21.785   3.877 -0.0015 -0.0896  0.1639
55683W        W11924  26.561   5.029   3.649 -0.0238 -0.1942 -0.3334
55684W        W11925  31.236  32.875   5.310 -0.5688 -0.1172 -0.1331
55685W        W11926  23.808  13.250  19.156  0.2121 -0.2728  0.2013
55686W        W11927   1.342  21.944  21.346  0.0098  0.1124  0.0839
55687W        W11928  32.909  24.761   1.170 -0.1580  0.1034  0.2490
55688W        W11929   6.338  26.358  12.086  0.2352  0.0544 -0.0024
55689W        W11930   4.960   0.424   2.111 -0.3905 -0.0872 -0.2642
55690W        W11931  23.900   1.650   7.175 -0.2029  0.0952  0.0296
55691W        W11932  27.020   6.967   1.155  0.1209 -0.4194  0.1191
55692W        W11933  14.933  13.612   1.288 -0.1204 -0.0648 -0.0426
55693W        W11934  34.105   4.928  20.231 -0.0549 -0.1352 -0.1052
55694W        W11935   2.286  13.399  16.763  0.2666  0.0486  0.1442
55695W        W11936  11.536  30.287  21.810  0.0602 -0.0187  0.0006
55696W        W11937  18.951  26.558   4.569 -0.1316  0.3254 -0.3376
55697W        W11938   9.968  21.897  13.954  0.3996  0.1652 -0.2575
55698W        W11939   6.993  14.682   9.394 -0.0326  0.1158  0.3833
55699W        W11940  28.549  19.358  20.115 -0.1205  0.1772  0.1581
55700W        W11941  16.055  29.487   5.914 -0.4096  0.0233 -0.1305
55701W        W11942   9.818  23.819  21.599 -0.1062  0.0940  0.0826
55702W        W11943  10.447  15.472   0.666  0.0503 -0.1140 -0.3903
55703W        W11944  15.840  17.895  13.976  0.0828 -0.1633  0.1813
55704W        W11945  22.827  15.061   1.784  0.0802 -0.2397  0.0213
55705W        W11946   0.357   8.133   0.414  0.1809  0.0384  0.3211
55706W        W11947  11.344  28.301  25.365 -0.2852 -0.2358 -0.1768
55707W        W11948   4.037  33.821   8.589  0.0288  0.0304  0.2695
55708W        W11949   8.810  34.114  14.549 -0.0610 -0.1834 -0.2221
55709W        W11950   4.568  30.297  26.252 -0.0482 -0.0477  0.1455
55710W        W11951  24.963  13.811  13.765 -0.2879  0.1749  0.2947
55711W        W11952  22.088  15.858  20.100  0.0069 -0.1870 -0.0192
55712W        W11953  22.480   3.767   5.772  0.3830  0.1146  0.0157
55713W        W11954   4.544   4.736   1.082 -0.1001  0.0345  0.1783
55714W        W11955  27.581  27.944  16.725 -0.2495  0.0326  0.3999
55715W        W11956  24.745  14.680   9.983  0.0953 -0.0893 -0.1476
55716W        W11957  22.186   6.875   6.163  0.2428 -0.2425  0.1450
55717W        W11958   9.955  21.743   3.431 -0.2080  0.4327  0.0419
55718W        W11959   9.512  10.580  23.686  0.1598 -0.2544  0.0532
55719W        W11960  19.572  23.267  25.471  0.2691  0.3047 -0.3910
55720W        W11961  24.517  19.651  10.641 -0.1639  0.1634  0.0747
55721W        W11962  32.089   8.034  21.203  0.0250  0.4338  0.1664
55722W        W11963  13.136  25.472   8.921  0.2685  0.1393  0.2556
55723W        W11964  27.600  25.843  15.795 -0.0257  0.0432 -0.0188
55724W        W11965  13.920  25.336   6.007 -0.1901  0.1442 -0.0240
55725W        W11966  33.187   5.072  13.549 -0.1470 -0.0522 -0.0747
55726W        W11967   5.492  23.027  25.356  0.0698  0.1374  0.2110
55727W        W11968  30.365   5.903  25.060 -0.1912  0.0871 -0.2958
55728W        W11969  13.389  18.454  21.322  0.0967 -0.0471 -0.0649
55729W        W11970   7.594  24.090  22.659  0.0003 -0.1599 -0.3929
55730W        W11971  33.683   4.974  21.705  0.0071  0.1666  0.2422
55731W        W11972  18.614  23.526  21.016 -0.2677 -0.1507  0.2302
55732W        W11973  11.911  19.334  12.537 -0.1408 -0.2076 -0.4073
55733W        W11974   6.694   0.601   5.293  0.2349 -0.1990 -0.0392
55734W        W11975  11.610  27.337  24.521 -0.0309 -0.0380  0.3043
55735W        W11976  15.955   8.700  21.994 -0.0485  0.0037 -0.1327
55736W        W11977  31.280   0.943  21.558  0.2120 -0.1016 -0.0558
55737W        W11978  16.887  33.178  25.390 -0.0401 -0.3101  0.0261
55738W        W11979  13.886   0.240  22.882  0.1196 -0.3332  0.0304
55739W        W11980  26.476   2.297  20.250  0.2259  0.1270 -0.1813
55740W        W11981  14.880  27.492  16.424 -0.1896  0.0309  0.0289
55741W        W11982  13.713  16.798  26.056 -0.0557  0.1908 -0.1300
55742W        W11983  32.445  31.015  24.581 -0.1515  0.2180 -0.1428
55743W        W11984  17.342  33.008  17.133 -0.3076 -0.2078  0.2351
55744W        W11985   6.310  18.613  18.015 -0.1282  0.1766 -0.0747
55745W        W11986  34.607  16.849  13.095  0.2326  0.3683 -0.3062
55746W        W11987  21.495   2.495  22.197  0.1170 -0.3140  0.1456
55747W        W11988   7.366  14.592  19.550  0.2998 -0.0318  0.0285
55748W        W11989   4.072  29.046   6.275  0.2251  0.1822 -0.0004
55749W        W11990  16.757  21.412  11.001  0.0704 -0.0090  0.0851
55750W        W11991  34.108  11.186  17.210 -0.2521 -0.3338  0.0509
55751W        W11992   6.795   5.095   7.188  0.0236  0.1761  0.1108
55752W        W11993  21.791  27.764   5.343 -0.0452  0.3309  0.6165
55753W        W11994  11.696  13.390  12.456  0.1087  0.0202 -0.3224
55754W        W11995  29.777  33.983   6.337 -0.2419  0.2144 -0.2663
55755W        W11996  24.328  30.412  20.921 -0.2050 -0.1955  0.2100
55756W        W11997  22.877  21.416  19.963  0.1923 -0.0137 -0.2876
55757W        W11998   6.444  31.231  14.719 -0.2086  0.1826 -0.0557
55758W        W11999  24.012  19.923  12.293 -0.0586  0.1290 -0.0709
55759W        W12000  30.017  16.220  23.617  0.2531  0.1879  0.1044
55760W        W12001  22.517   4.004   4.951  0.2668  0.1165  0.0630
55761W        W12002   2.487  15.452  13.658  0.0719  0.0170 -0.3367
55762W        W12003  32.141  17.536  26.179 -0.0712 -0.3281 -0.1525
55763W        W12004   7.043  13.003  19.728 -0.3721  0.0845 -0.5196
55764W        W12005   7.624  18.621  23.309  0.1931  0.1403 -0.1745
55765W        W12006  24.802   5.775   2.812  0.2694 -0.1211  0.0839
55766W        W12007  12.064   8.038  19.041  0.1366 -0.1334 -0.3101
55767W        W12008   9.483  14.812   0.827 -0.1535  0.2052  0.1987
55768W        W12009   2.143   0.825   8.174  0.1377  0.0805 -0.2111
55769W        W12010  34.056  19.660  10.026  0.2067  0.1353  0.1199
55770W        W12011   7.634  19.041   9.500 -0.2056  0.0999 -0.0081
55771W        W12012  25.489   9.842  21.835  0.0129 -0.1942  0.0566
55772W        W12013  29.656   0.915  24.917 -0.0207 -0.0140  0.0674
55773W        W12014  13.732  31.326   4.086 -0.0218  0.0857  0.0694
55774W        W12015   9.774  29.376  15.360 -0.1719 -0.3344 -0.2145
55775W        W12016  13.883  24.780  12.684 -0.0932 -0.0563  0.1766
55776W        W12017  23.270  27.989  12.145  0.0285 -0.1289  0.0064
55777W        W12018  26.077  27.061  18.182  0.3141  0.0127 -0.2607
55778W        W12019   7.716   3.665  20.780  0.1581  0.1961 -0.4504
55779W        W12020   2.837  14.565  16.936 -0.0280 -0.0857 -0.2004
55780W        W12021  11.802   7.226  13.163 -0.1406 -0.1072 -0.0948
55781W        W12022  12.845   2.484   8.439  0.1004  0.1170 -0.1560
55782W        W12023  33.845  19.201  18.772 -0.1005 -0.2736 -0.0437
55783W        W12024  33.715   1.294   0.607  0.0181  0.1597  0.1647
55784W        W12025   9.561  27.412  21.764 -0.1450  0.2024  0.1822
55785W        W12026   1.586  14.010  14.947  0.0005  0.0761  0.3516
55786W        W12027  15.004  18.775   3.364  0.2678  0.0026 -0.0600
55787W        W12028   7.262  27.541   4.397  0.0091 -0.0060  0.0916
55788W        W12029  12.889  28.301  14.912 -0.3354 -0.2793  0.0619
55789W        W12030   6.239  24.401   6.476 -0.1224 -0.1928  0.3103
55790W        W12031  33.830  16.250  16.320 -0.1443 -0.1447  0.0697
55791W        W12032  30.273   3.467  23.189  0.0610 -0.1467 -0.2276
55792W        W12033  19.659   1.897  15.150  0.1258 -0.3360  0.1812
55793W        W12034  21.334  26.019  18.483  0.2039 -0.1450 -0.1750
55794W        W12035  13.237  35.104   9.784 -0.2326 -0.0350 -0.5223
55795W        W12036  27.512  15.456   7.996  0.1063  0.0739 -0.0477
55796W        W12037  11.049  19.615  14.493 -0.2657  0.0226  0.0225
55797W        W12038  12.414  12.241   1.627  0.1735  0.3050  0.1258
55798W        W12039  32.440   7.412  11.927 -0.0046  0.1402 -0.0631
55799W        W12040   8.296   7.276  14.023  0.3398  0.0424  0.0726
55800W        W12041   7.861  24.303   9.124 -0.1987  0.3179 -0.0115
55801W        W12042  30.250  17.671  12.323 -0.1947 -0.0184  0.0131
55802W        W12043   8.701  29.636  15.843 -0.2305 -0.1540 -0.1734
55803W        W12044  26.516  31.099   3.770  0.2822 -0.0863  0.0855
55804W        W12045   6.070  24.899  21.522 -0.6104 -0.1134  0.0666
55805W        W12046  12.908  30.396  15.384  0.0049  0.2036 -0.0364
55806W        W12047  16.467  33.461  24.507  0.2164 -0.2137 -0.0058
55807W        W12048  29.776  21.140  16.381 -0.0604 -0.0908 -0.0298
55808W        W12049  32.877  33.326   4.189  0.1027 -0.4987  0.0065
55809W        W12050  21.340  10.024   9.273  0.0662 -0.3772  0.0700
55810W        W12051  21.596  32.752   6.714  0.2708 -0.0194 -0.1106
55811W        W12052  33.590  13.269  17.722 -0.0843  0.1976 -0.0117
55812W        W12053  33.788   9.477   2.819 -0.3568  0.3036  0.1861
55813W        W12054  16.802  30.219  22.382  0.0292  0.0264 -0.1807
55814W        W12055  21.423   9.248  25.129  0.0050  0.1067  0.0453
55815W        W12056   4.075  23.723   3.233  0.1065 -0.0850 -0.0640
55816W        W12057  27.348  15.780  23.256 -0.3340  0.0637  0.0158
55817W        W12058  34.706  22.830   9.849 -0.3360  0.2998  0.1061
55818W        W12059  27.188   8.545  15.576 -0.3374  0.0500  0.0141
55819W        W12060  11.698   8.184  20.388  0.0041  0.1985 -0.1296
55820W        W12061  33.105  12.939  22.207  0.1185  0.2000 -0.0348
55821W        W12062  13.820   0.834  23.006 -0.0450  0.1362  0.0697
55822W        W12063  32.011   6.115  14.056  0.1009  0.2862 -0.1256
55823W        W12064  29.582  17.310  13.523 -0.1986 -0.0449  0.1567
55824W        W12065  27.275  30.640   1.869 -0.0723  0.1219 -0.1392
55825W        W12066   1.022   0.782   3.445  0.1228 -0.1216 -0.0845
55826W        W12067  28.565  29.634  24.363  0.0355 -0.3455 -0.4192
55827W        W12068  27.755  21.828  13.680  0.1281  0.1102 -0.0320
55828W        W12069  28.139  33.499  11.169  0.1879 -0.0803 -0.0190
55829W        W12070  18.015   5.711  18.293  0.3026  0.1359 -0.3645
55830W        W12071  15.676  21.542  25.605 -0.0037 -0.1915  0.1840
55831W        W12072  19.627   2.701  20.798 -0.1653 -0.2175  0.4490
55832W        W12073   5.952  24.633  24.482 -0.0343  0.1531  0.0026
55833W        W12074  35.079  21.836  19.175 -0.0892 -0.5791  0.2561
55834W        W12075  16.820   9.823   3.994 -0.0443 -0.2169 -0.0011
55835W        W12076  32.345  19.344  22.172 -0.1829  0.1259 -0.2907
55836W        W12077  15.762  29.341   4.018 -0.0113  0.2053  0.0498
55837W        W12078  27.502  11.328  26.017  0.3230 -0.1260  0.0758
55838W        W12079  17.963  20.772   7.102  0.0872 -0.0918  0.1547
55839W        W12080  28.723  28.690   0.199  0.0110 -0.1168 -0.2370
55840W        W12081   9.027  12.498   9.919 -0.3291 -0.0023  0.2875
55841W        W12082   0.043  13.998  26.220 -0.0025 -0.1968 -0.0703
55842W        W12083  14.749  16.795  22.085 -0.1842 -0.4012 -0.1109
55843W        W12084  29.422  19.524  17.111 -0.2372  0.1458 -0.0051
55844W        W12085  29.077  26.664   1.147  0.2203  0.2430 -0.3767
55845W        W12086   1.637  33.226  17.915 -0.1089 -0.1054 -0.1073
55846W        W12087   0.391  15.604  12.233 -0.0327 -0.1890  0.0266
55847W        W12088  14.828  17.624  12.452  0.1804  0.1923  0.3432
55848W        W12089  27.042   1.288   6.118  0.1296  0.3383 -0.0296
55849W        W12090  21.175  33.430   3.478 -0.0741  0.0677 -0.1093
55850W        W12091  13.019   4.290   6.357  0.2968  0.2190 -0.0659
55851W        W12092  22.267  25.191   2.811  0.4001 -0.1389 -0.0258
55852W        W12093  33.934  26.430   0.225 -0.2551  0.2814  0.1918
55853W        W12094   9.232  33.372   5.952 -0.3452 -0.2348 -0.1578
55854W        W12095   0.880   6.845   3.048 -0.2164 -0.2764  0.0721
55855W        W12096  10.715  30.454  16.787 -0.0046 -0.1707  0.0497
55856W        W12097  26.612  21.327  12.949  0.3976 -0.0889  0.0153
55857W        W12098  29.234  17.430  20.611 -0.1252 -0.0899 -0.3499
55858W        W12099  17.222  15.153   7.038  0.0262 -0.2830  0.1442
55859W        W12100   8.125  26.996   9.356 -0.0268 -0.0258  0.1139
55860W        W12101   2.156   0.581   0.897  0.0444  0.0734  0.2916
55861W        W12102  17.642  15.422   6.929 -0.1820 -0.0280 -0.2874
55862W        W12103  12.894  19.950  10.366  0.0701 -0.2176  0.1797
55863W        W12104  15.488   5.674  22.500  0.1236 -0.4089  0.0833
55864W        W12105  17.247  20.495  23.657  0.0568  0.0413  0.0293
55865W        W12106  24.226   7.868   4.109  0.3453  0.0207  0.0529
55866W        W12107  25.843  19.242  17.145 -0.0072  0.2477 -0.0347
55867W        W12108   7.997   9.797   1.865  0.0124 -0.1284  0.0559
55868W        W12109  10.567   5.211  10.490  0.4033  0.0650 -0.0196
55869W        W12110  32.591  32.414  13.638  0.1810  0.0326  0.0732
55870W        W12111  32.823  17.198  10.551 -0.1407 -0.1004  0.0061
55871W        W12112  31.257  22.471  18.685 -0.0203  0.2585  0.0673
55872W        W12113  26.219  19.488  15.212 -0.0038 -0.1338  0.2261
55873W        W12114  32.368  29.788   4.360  0.3472 -0.0241 -0.3206
55874W        W12115  25.966   3.538  15.768 -0.0781 -0.0052 -0.1210
55875W        W12116  34.040   5.776  25.840 -0.0171 -0.0862 -0.1006
55876W        W12117  10.074  13.500   2.123 -0.2480  0.1632 -0.3076
55877W        W12118  13.284  25.639  10.524  0.0997 -0.3044 -0.1418
55878W        W12119   9.136   0.048   9.040 -0.0694  0.1365 -0.2631
55879W        W12120  26.586  27.950  12.891  0.1477 -0.1564  0.3349
55880W        W12121   4.546  30.913   8.848 -0.0517 -0.5083  0.3268
55881W        W12122   5.265   1.409   1.772 -0.2286  0.1438 -0.1476
55882W        W12123  33.362  29.668   1.689  0.0613  0.1891 -0.0810
55883W        W12124  34.311  25.512   0.517  0.0348 -0.2465 -0.4991
55884W        W12125  16.173   0.669   3.552 -0.3673 -0.2286 -0.2115
55885W        W12126  33.281  21.644  24.689 -0.1912  0.0012 -0.0887
55886W        W12127  21.129  31.219  18.920  0.0167  0.1804  0.0618
55887W        W12128  11.683  21.501  25.316  0.3796  0.1502 -0.1807
55888W        W12129   1.976  34.279   8.042 -0.0456  0.2135 -0.0085
55889W        W12130  17.353   3.104  22.007  0.1300  0.1527  0.0092
55890W        W12131  25.982  10.268  11.458 -0.0359 -0.0231  0.0108
55891W        W12132  19.312  19.291   7.199  0.2943 -0.1026  0.0771
55892W        W12133  30.920  34.070   0.325 -0.2355  0.2499 -0.3022
55893W        W12134   8.278  28.874   9.566 -0.2584  0.0230 -0.1377
55894W        W12135  33.671  32.217  15.970  0.0206 -0.0055  0.1809
55895W        W12136  14.479  26.398   9.191 -0.0264  0.1532  0.1308
55896W        W12137   8.827  23.546   1.224 -0.2346  0.1390 -0.1871
55897W        W12138  20.606  21.593  24.117  0.2808 -0.2043 -0.1114
55898W        W12139  18.506   5.347   5.552  0.0706 -0.0268  0.1412
55899W        W12140  20.589   0.119  21.834  0.0078 -0.4951 -0.3706
55900W        W12141  31.206  12.670   9.395  0.2090  0.0425 -0.1196
55901W        W12142  12.699  28.517  25.434 -0.3711  0.1053  0.2445
55902W        W12143  29.313  13.852  20.694  0.1528 -0.3288  0.0015
55903W        W12144  25.583  16.364   9.182 -0.0606 -0.1560  0.1083
55904W        W12145  25.232   0.766  24.912 -0.1228 -0.0321  0.1005
55905W        W12146  23.462   9.796  23.386  0.0650 -0.1785 -0.1573
55906W        W12147  16.469   0.362  19.660 -0.1155  0.2467 -0.0496
55907W        W12148   2.375  23.109  17.713 -0.3365 -0.0033  0.0655
55908W        W12149  29.371  14.634  18.017 -0.0460 -0.3175  0.1387
55909W        W12150  13.594   3.981   3.577  0.2854 -0.2028  0.0990
55910W        W12151  10.386  10.100  12.935 -0.1762  0.0437 -0.0499
55911W        W12152  22.884  23.908   2.369  0.3063 -0.4362 -0.0337
55912W        W12153   1.668   2.280   0.065 -0.0302 -0.0102 -0.1601
55913W        W12154  14.244  23.351  16.718  0.1144 -0.2346 -0.0888
55914W        W12155   7.640  28.513   9.017  0.0435  0.2664  0.0415
55915W        W12156  21.604   8.810   2.090  0.1115 -0.0159  0.0814
55916W        W12157  18.426  26.114  21.518  0.0464 -0.2239 -0.1420
55917W        W12158  33.491  12.909  15.056  0.1251  0.2403  0.1059
55918W        W12159  26.927   6.222  14.641 -0.2425 -0.2847  0.2860
55919W        W12160  20.908  27.255  20.228 -0.4129 -0.0844  0.2462
55920W        W12161  10.565  33.097   7.740 -0.1277  0.1620  0.0370
55921W        W12162   6.312  21.008   4.199 -0.3052 -0.1104  0.0944
55922W        W12163  17.175  11.727  22.076 -0.2100 -0.2914  0.0011
55923W        W12164  17.918  26.572   5.885 -0.0166 -0.0703  0.0353
55924W        W12165  23.194   3.733   3.268  0.1262 -0.1941 -0.1012
55925W        W12166  34.916  17.595  12.195  0.1466  0.2440  0.1620
55926W        W12167  18.429  13.780  21.144 -0.1500 -0.2523 -0.0558
55927W        W12168  11.655  11.890   3.716 -0.0214  0.1441 -0.2925
55928W        W12169  25.994  31.139  11.636  0.3994  0.1010 -0.1261
55929W        W12170  33.998  18.874  12.439 -0.0413 -0.2297 -0.0213
55930W        W12171  27.597  16.012  21.246 -0.4270 -0.3434 -0.1589
55931W        W12172  26.325  16.796  24.815 -0.0573 -0.1028  0.0232
55932W        W12173  28.782  18.463   6.969  0.1792  0.1606  0.1262
55933W        W12174  13.291  18.219  20.826 -0.0238  0.0404 -0.2232
55934W        W12175  31.928  14.483   5.617 -0.2571 -0.0722 -0.2538
55935W        W12176  28.239  31.361  14.992  0.1572 -0.2819 -0.3823
55936W        W12177  12.298   9.964  10.309 -0.0897 -0.0975 -0.3798
55937W        W12178  17.084   6.090   4.045  0.1217 -0.0443 -0.0132
55938W        W12179  30.009  18.653  12.331  0.1173  0.0764  0.0341
55939W        W12180  19.313   5.117   9.283  0.3663  0.5122  0.0577
55940W        W12181   6.615   4.279  22.882  0.0762 -0.0996 -0.0601
55941W        W12182  33.313  11.775  10.314  0.0564  0.1851 -0.0333
55942W        W12183   3.765  25.511   8.166  0.4522 -0.0400 -0.0051
55943W        W12184   0.311  24.258  17.344  0.3221 -0.0475 -0.2506
55944W        W12185  16.626   7.277   7.186 -0.3992 -0.1552 -0.2163
55945W        W12186   6.625   5.339  12.036  0.1578  0.0980  0.3024
55946W        W12187   1.091  20.981  17.241  0.1454  0.0164  0.2766
55947W        W12188  20.137   1.704  22.471 -0.1667 -0.2803  0.1990
55948W        W12189   9.893  28.049  16.813  0.2275 -0.0793 -0.0315
55949W        W12190  31.332  12.486  23.754 -0.1775 -0.0179 -0.2196
55950W        W12191   9.397  24.689   6.674 -0.0494 -0.3566 -0.1609
55951W        W12192  17.094  20.283  23.126 -0.1642  0.1360 -0.0685
55952W        W12193   7.634  10.335  20.258 -0.0121 -0.0759  0.1079
55953W        W12194  20.673  15.820   1.936 -0.2984 -0.0778  0.0295
55954W        W12195  34.925   3.213   4.504 -0.1451 -0.0963 -0.1850
55955W        W12196  11.767   2.802   9.180 -0.1694  0.1936 -0.1027
55956W        W12197  33.515   0.546  12.553  0.1693  0.3189 -0.0614
55957W        W12198  17.410  32.746   2.610  0.2498 -0.1240 -0.2400
55958W        W12199  12.092  23.720   9.451 -0.1392  0.1698  0.0912
55959W        W12200   2.121  15.005  13.666 -0.2755  0.0843 -0.1437
55960W        W12201  25.850  14.295   9.192 -0.3627 -0.0055 -0.2278
55961W        W12202  25.083  15.446  23.010 -0.0261 -0.1402 -0.0610
55962W        W12203  21.274   5.110   1.671  0.0567 -0.0883  0.6280
55963W        W12204  13.995  11.982   3.430 -0.2496  0.2659  0.0239
55964W        W12205  32.676  12.660   6.497 -0.0543  0.2249 -0.3659
55965W        W12206  25.214   2.907   4.468 -0.1050  0.1459  0.2502
55966W        W12207   4.780  10.045  25.090 -0.3988 -0.2593 -0.1045
55967W        W12208   2.141  35.358  25.971 -0.0590  0.0186 -0.0577
55968W        W12209   9.456  30.230  24.623  0.0410 -0.1313  0.2146
55969W        W12210   2.499  17.427  11.613  0.0205  0.2961 -0.0195
55970W        W12211  22.035  13.434   0.777 -0.0416 -0.0208 -0.0945
55971W        W12212  10.447   4.557   0.208  0.2144 -0.0523  0.0790
55972W        W12213  10.627  13.241  24.516 -0.3392  0.4804  0.1615
55973W        W12214  31.617  19.803  10.287  0.0032  0.1701  0.1345
55974W        W12215  22.282  13.208  25.622 -0.0830  0.0168 -0.0291
55975W        W12216  13.728  10.722   8.729 -0.0772 -0.1637 -0.0818
55976W        W12217   4.285  18.947  21.488  0.1838 -0.0746 -0.0147
55977W        W12218  17.120   8.338  18.965 -0.1111 -0.2037 -0.0134
55978W        W12219   3.355  11.810   2.278  0.0980  0.0878 -0.1805
55979W        W12220  31.563  16.950  14.410  0.0030  0.0658  0.6103
55980W        W12221  28.502  34.563  24.404  0.0684 -0.0942  0.0119
55981W        W12222   2.406  17.862  14.800 -0.0646 -0.1568 -0.1457
55982W        W12223  12.793  30.350  24.514 -0.2217 -0.1385  0.0708
55983W        W12224   0.714  25.209   1.795 -0.1138  0.2124 -0.1894
55984W        W12225  31.043   5.880  18.762 -0.0448 -0.1004 -0.4084
55985W        W12226  13.089   2.685   7.490  0.0466  0.0161  0.0353
55986W        W12227  29.962   3.295  16.524  0.1053  0.0394  0.1444
55987W        W12228   9.035  25.353   7.139  0.0582  0.2165  0.0456
55988W        W12229  30.769   6.677   3.069  0.1172 -0.1350 -0.0295
55989W        W12230  18.530  26.124  26.242 -0.1539  0.0592 -0.1556
55990W        W12231  14.052  13.896  12.771 -0.0960  0.1426  0.4181
55991W        W12232  10.466   0.904   6.539  0.1950  0.0456 -0.2104
55992W        W12233  11.074   6.893  22.408 -0.0432 -0.2909 -0.3451
55993W        W12234  29.692  21.487  20.597 -0.4847  0.3496 -0.1149
55994W        W12235   5.187  25.284  21.601 -0.0454 -0.0898 -0.0236
55995W        W12236   1.477  33.277   1.285  0.0454 -0.0210 -0.2189
55996W        W12237  19.999   5.803  25.154  0.3579 -0.2426  0.2735
55997W        W12238  14.636  11.640   2.020 -0.0492  0.0043 -0.0572
55998W        W12239  15.377  27.057  15.614  0.1182  0.2751  0.0539
55999W        W12240  24.044   2.075   3.536 -0.0406 -0.0336  0.0578
56000W        W12241  15.727   2.424   0.880 -0.0909 -0.1229  0.1156
56001W        W12242   7.840   7.935  11.395 -0.0558 -0.2100 -0.1110
56002W        W12243  10.498  26.469  25.325 -0.1427 -0.2488 -0.2906
56003W        W12244  26.698  11.415  25.928  0.1201 -0.3071 -0.3360
56004W        W12245  31.838  30.518  15.601 -0.0029  0.2627 -0.1139
56005W        W12246  12.255  25.599   3.582 -0.1332  0.2530  0.3587
56006W        W12247  18.152   5.829   2.316 -0.0320  0.3593  0.1806
56007W        W12248  10.986   8.729  10.810  0.0558 -0.2424  0.1550
56008W        W12249  29.487  29.041  10.228  0.1549 -0.1965 -0.2196
56009W        W12250  30.766  19.400  22.889 -0.0162 -0.1906  0.0801
56010W        W12251  21.194  26.270   7.421 -0.1723 -0.0232  0.0778
56011W        W12252  14.923   5.820  21.815 -0.0366 -0.0149  0.1636
56012W        W12253   8.243  30.360  12.564 -0.1716 -0.1709  0.0440
56013W        W12254  22.349  20.762  24.424 -0.2024  0.1063  0.0896
56014W        W12255  29.791  24.926  17.166  0.1638  0.5307 -0.2431
56015W        W12256   9.745  16.127   0.328  0.1591  0.0261 -0.2130
56016W        W12257  20.034  34.102  20.633  0.1884 -0.1147 -0.2104
56017W        W12258   0.752   3.200  25.706 -0.2243 -0.0679 -0.0992
56018W        W12259   0.422   4.782   4.022  0.0863  0.3349 -0.0078
56019W        W12260  21.902   7.875  24.219 -0.2458  0.0763  0.0008
56020W        W12261  12.258  27.219  22.718 -0.1079 -0.2119  0.0147
56021W        W12262  17.974  35.035   9.219 -0.1320 -0.1677  0.1983
56022W        W12263  14.664   4.111  23.226 -0.2808 -0.0459 -0.2438
56023W        W12264  32.589  13.444  21.907 -0.2741 -0.0154  0.1390
56024W        W12265  31.512   2.967  16.192  0.3272 -0.0524 -0.1133
56025W        W12266  10.272  32.584  11.196 -0.1229 -0.2427  0.1410
56026W        W12267  16.683  25.489   1.509 -0.1997 -0.2367 -0.2670
56027W        W12268  20.722  19.382  22.974 -0.4056 -0.0156 -0.0850
56028W        W12269  21.442   0.554  24.881 -0.1452  0.3022  0.1930
56029W        W12270  26.708  16.029   8.226 -0.1069 -0.1294 -0.1751
56030W        W12271  30.756  20.530  18.159 -0.2258  0.2875 -0.0971
56031W        W12272  26.107  16.403   9.012 -0.0388  0.0579 -0.1152
56032W        W12273  15.174   7.405  19.314  0.1945  0.2507  0.0328
56033W        W12274   7.306   7.018   5.121  0.0865 -0.0435  0.0703
56034W        W12275   0.839  32.159   2.410 -0.0432  0.1891 -0.0040
56035W        W12276  22.840   3.082   1.991  0.1967  0.2162 -0.1120
56036W        W12277  24.003  12.481  25.905 -0.0190 -0.2424  0.0169
56037W        W12278  32.710  22.445  15.928 -0.0730 -0.2827 -0.1485
56038W        W12279  19.861  30.270  17.625  0.0589  0.3194  0.4188
56039W        W12280  33.209  21.015   8.683 -0.2314  0.0004 -0.0288
56040W        W12281   5.295  27.791  20.960 -0.0190  0.3043 -0.1675
56041W        W12282  33.686  17.058   7.074  0.0676  0.2120 -0.1363
56042W        W12283  12.878  18.297  24.972 -0.0919  0.0857 -0.0190
56043W        W12284   2.687  22.653   3.749 -0.2316 -0.2076 -0.3420
56044W        W12285  23.847  32.382  15.236 -0.1367 -0.0085 -0.2594
56045W        W12286  10.194  20.392  15.310  0.0905  0.3479 -0.4839
56046W        W12287  17.127   8.785   3.188 -0.0865 -0.1497  0.1231
56047W        W12288  25.756  31.937  14.167  0.1593 -0.1045  0.1211
56048W        W12289  16.994   8.348  10.713 -0.0390  0.0117  0.3712
56049W        W12290   3.461  29.687   4.264  0.5628  0.1707  0.1210
56050W        W12291   4.568   8.561   8.355  0.1241 -0.0591 -0.1674
56051W        W12292  12.543   0.484  24.497  0.2250 -0.0294 -0.2697
56052W        W12293   6.443  18.165   4.009  0.1231 -0.0330 -0.0213
56053W        W12294  12.662  12.778   9.524  0.3544 -0.2568  0.2374
56054W        W12295  27.001  34.890   2.498  0.4734 -0.2207 -0.0646
56055W        W12296  15.633   8.675  23.568 -0.0413 -0.0720  0.0694
56056W        W12297  34.658  16.765  17.809 -0.0297 -0.1631 -0.1386
56057W        W12298  29.991  21.957  24.426  0.3945 -0.2224 -0.0042
56058W        W12299  32.241  17.883   6.202  0.0513 -0.0318  0.0977
56059W        W12300  11.417  31.762  14.951 -0.1085 -0.1153 -0.0258
56060W        W12301  18.466   1.111   7.404 -0.1144 -0.2992 -0.2121
56061W        W12302  33.265  32.187   1.093  0.1615  0.1795  0.1073
56062W        W12303  18.062  31.300   3.754  0.0846  0.0056  0.0755
56063W        W12304  13.136  17.123  24.024 -0.2524 -0.0196  0.0369
56064W        W12305  34.125  28.419  17.442  0.1440 -0.0448  0.0198
56065W        W12306  25.185   6.927  14.529  0.0123 -0.2286 -0.0156
56066W        W12307  28.390  34.240  17.339  0.3808 -0.3760 -0.1469
56067W        W12308  31.197   3.701  16.181 -0.2656  0.1969  0.0141
56068W        W12309   1.742  21.561  20.561  0.3275  0.1082 -0.2034
56069W        W12310  25.973  26.307  17.084  0.0832  0.0593 -0.0515
56070W        W12311  11.401  20.472   0.608 -0.1287  0.2066 -0.2095
56071W        W12312  18.103  27.704   3.563 -0.0445 -0.3739 -0.0319
56072W        W12313   6.336  20.164  19.615  0.0792  0.0785 -0.1704
56073W        W12314   6.410  16.830   0.072  0.1088  0.0705  0.0184
56074W        W12315   5.461  13.100   2.028  0.1582  0.2877  0.2335
56075W        W12316  33.227   5.867  23.616 -0.0360 -0.1472  0.0495
56076W        W12317  15.959  20.962  13.999 -0.2505  0.1682 -0.0484
56077W        W12318   0.371  13.738  17.354 -0.3242  0.1727 -0.2481
56078W        W12319  35.202  10.140  17.783  0.2271  0.0678  0.0339
56079W        W12320  34.775  23.590  15.678  0.1733 -0.0046  0.2655
56080W        W12321  19.645   6.879   5.034  0.1572 -0.0324 -0.1747
56081W        W12322   8.728  26.196  16.282  0.0325  0.2383  0.2252
56082W        W12323  32.738   4.225  23.850 -0.0397 -0.0470 -0.2178
56083W        W12324  31.439  10.668  26.041  0.0032 -0.1071  0.0018
56084W        W12325  28.030  18.705  16.309 -0.1580  0.1020  0.0198
56085W        W12326  17.254   5.156  10.851 -0.0942 -0.0913  0.2020
56086W        W12327  11.419  26.974  16.408  0.1921  0.2674  0.0924
56087W        W12328  32.164  21.929  14.661 -0.0232 -0.1077  0.0518
56088W        W12329  23.490  16.287  16.342  0.2753 -0.1268  0.2153
56089W        W12330   3.517  17.111  25.302  0.3940 -0.0067  0.3539
56090W        W12331  13.083  29.216  22.163 -0.0799  0.1472  0.0119
56091W        W12332  33.264  21.562  11.782  0.0883 -0.0113  0.1298
56092W        W12333  22.359  13.398  18.035 -0.3869 -0.1698 -0.0056
56093W        W12334  21.709  11.261  24.293 -0.1101  0.5111 -0.2196
56094W        W12335  31.823  24.697  11.177  0.0035 -0.1420  0.1687
56095W        W12336   6.604  12.165  23.193  0.5274 -0.0721  0.0354
56096W        W12337   7.563  32.457  22.713 -0.1550 -0.0664 -0.0322
56097W        W12338  26.018  30.986   4.862  0.3714 -0.0306  0.2719
56098W        W12339  29.148   0.833   3.728  0.2012 -0.1035 -0.1931
56099W        W12340   4.017   3.348  19.286 -0.0416 -0.1704 -0.0105
56100W        W12341  30.428  13.241  25.848 -0.2563  0.1244 -0.1513
56101W        W12342  13.310  32.600   1.472  0.5332  0.0672 -0.2033
56102W        W12343  24.319   7.461  15.764 -0.1315 -0.1720  0.0660
56103W        W12344  31.430  34.344  18.275 -0.2305 -0.1938 -0.0631
56104W        W12345   9.571   5.789  20.415  0.2300 -0.0147 -0.2027
56105W        W12346  19.423  17.368   6.962 -0.2239  0.1816  0.2426
56106W        W12347  26.748  30.688   3.178 -0.2148 -0.1978  0.0585
56107W        W12348   5.584  12.670   7.314 -0.1691 -0.3880 -0.0105
56108W        W12349   1.486  12.562   2.541  0.2655 -0.0701 -0.0230
56109W        W12350  30.410  13.302  22.830 -0.1264 -0.2623 -0.0528
56110W        W12351  28.390  26.638  22.146  0.0391  0.0028  0.1608
56111W        W12352  12.813  31.518   3.582 -0.1100  0.0110  0.3503
56112W        W12353  14.842   7.339   8.331  0.2637 -0.2257 -0.0733
56113W        W12354  28.646  32.981  17.851  0.1302 -0.4270  0.3515
56114W        W12355  12.340  13.197   2.695  0.1419 -0.2504 -0.0731
56115W        W12356   0.525   2.255  14.268 -0.0971  0.0842  0.0617
56116W        W12357  25.960  33.794  20.454  0.0021 -0.1482 -0.0513
56117W        W12358  17.210  23.781   8.376 -0.2013 -0.1971  0.0663
56118W        W12359   6.142  19.401   8.904  0.0101 -0.2620  0.0661
56119W        W12360  10.300   3.972  25.244  0.4253 -0.0795 -0.0197
56120W        W12361  14.852  11.854  13.321 -0.0127 -0.1471 -0.1098
56121W        W12362   7.229  15.589   1.491 -0.1699 -0.0482 -0.0094
56122W        W12363  20.645  12.346  17.016 -0.0696  0.0425  0.0426
56123W        W12364  27.782  16.218  16.282  0.1407  0.1293 -0.0988
56124W        W12365   7.854  10.205   6.142 -0.1449 -0.1909 -0.1045
56125W        W12366  12.210  31.794  15.012  0.1832 -0.2606  0.0548
56126W        W12367   0.883  13.883  24.150 -0.0274 -0.4190  0.3559
56127W        W12368   0.466   3.518   2.774  0.0410 -0.1525  0.1781
56128W        W12369   2.494   6.138  15.668 -0.1487 -0.0035 -0.0311
56129W        W12370   9.516   5.688  21.858  0.3758 -0.4532 -0.0983
56130W        W12371  28.087  10.281  23.487 -0.1548  0.0088  0.1613
56131W        W12372  16.359  11.559   9.288  0.3692  0.0880 -0.1954
56132W        W12373   6.928  10.826   8.907  0.1683  0.1848 -0.1378
56133W        W12374  18.199   8.675   0.309  0.2896 -0.0083 -0.1025
56134W        W12375   6.998  32.093   0.527  0.2286  0.1196  0.0399
56135W        W12376  19.630  10.295  24.831  0.0971  0.0369  0.0785
56136W        W12377  24.244   0.660   5.403  0.1132 -0.1755  0.1438
56137W        W12378  18.809  32.094   9.341 -0.2525  0.0982 -0.2006
56138W        W12379   3.285  14.507  22.178  0.1500 -0.0739 -0.1328
56139W        W12380  18.672  16.253   9.207  0.1835  0.0990 -0.1296
56140W        W12381  10.536  15.217  10.788 -0.2492  0.1028 -0.1800
56141W        W12382  27.712   8.094  23.864  0.0971 -0.2083  0.3461
56142W        W12383   7.260  16.811   6.130 -0.2903 -0.1590  0.2052
56143W        W12384  13.473  17.165   1.710 -0.2707  0.0648  0.1719
56144W        W12385  32.676  31.813   2.238  0.3263  0.2616  0.0442
56145W        W12386  30.349  17.678  11.827  0.2316  0.0518 -0.1241
56146W        W12387  22.937   3.501   6.617  0.0336  0.0855  0.0690
56147W        W12388  12.496  15.678  12.583 -0.2296 -0.1463  0.0705
56148W        W12389  24.205  15.420  15.689 -0.0366  0.2705 -0.0700
56149W        W12390  30.393  19.906  25.712  0.0004 -0.1613  0.3619
56150W        W12391  24.379  13.828  22.881 -0.0484  0.0936  0.1474
56151W        W12392  25.335  15.272  17.400  0.3623 -0.1154 -0.2335
56152W        W12393  20.380  32.413   4.750  0.2250 -0.3492  0.2163
56153W        W12394  27.909   8.997  10.580  0.2585 -0.2416  0.0250
56154W        W12395  20.959   6.098  17.061  0.1330  0.0945  0.3949
56155W        W12396   8.155   8.305   5.778 -0.2484 -0.3125  0.0691
56156W        W12397  10.465  21.050  12.701  0.1928  0.1310  0.0253
56157W        W12398  24.152   7.969  16.579 -0.1659  0.3709  0.3661
56158W        W12399  33.909  17.155  18.272  0.3659 -0.1458  0.1276
56159W        W12400  18.889  26.589   3.265  0.0567  0.1728 -0.1028
56160W        W12401  14.791  32.841  10.453  0.0625  0.0270  0.2821
56161W        W12402  29.431   9.610   9.457  0.1248  0.1430  0.0390
56162W        W12403  15.863  21.063   8.739 -0.0506 -0.2328 -0.0020
56163W        W12404   7.190   1.505  23.586 -0.1101 -0.0024  0.0598
56164W        W12405  22.324  21.505   3.047 -0.0908 -0.1914  0.0150
56165W        W12406  16.605   5.047  10.233  0.3442  0.1280 -0.2664
56166W        W12407  20.902  33.790   2.457  0.0167 -0.0427 -0.2263
56167W        W12408   5.182   7.243   6.476 -0.0255  0.4744  0.1606
56168W        W12409  19.757  31.478   0.527  0.0587 -0.1573  0.0112
56169W        W12410  33.267  33.060  22.882  0.0371 -0.0598  0.0616
56170W        W12411  27.931   5.835  15.512 -0.2708  0.1998 -0.0479
56171W        W12412  24.519  33.334  13.950 -0.1650 -0.1093  0.1078
56172W        W12413  24.422  35.099  20.081  0.0564  0.0329 -0.2342
56173W        W12414  32.380  33.873  25.854 -0.0680 -0.1781 -0.0211
56174W        W12415  33.379  25.898  13.826  0.1512 -0.0400 -0.1810
56175W        W12416  33.919  19.123  20.948 -0.3310 -0.1058 -0.0854
56176W        W12417   7.912  20.875   4.161 -0.2719  0.0530 -0.2646
56177W        W12418  22.085  32.226   0.483 -0.2802 -0.2550 -0.1415
56178W        W12419  19.936  18.894   4.851  0.0343 -0.1850  0.5044
56179W        W12420  31.968  33.178   3.097  0.1069  0.0636  0.1511
56180W        W12421  10.835  23.529  13.176  0.1059 -0.0140 -0.2812
56181W        W12422   1.567   2.009  24.153  0.0226 -0.1023  0.2622
56182W        W12423   5.305  13.402  16.821 -0.1178  0.1251  0.4644
56183W        W12424  31.606   0.063  14.428  0.1186  0.1972 -0.3959
56184W        W12425  29.036  13.419  20.654  0.0107 -0.4085 -0.0752
56185W        W12426   9.669  28.525  26.177 -0.2753 -0.1093  0.0703
56186W        W12427   8.522  34.514  12.814 -0.2933 -0.3292 -0.0286
56187W        W12428  22.207  24.107  14.910 -0.0840 -0.0314  0.1834
56188W        W12429  12.738  14.577  25.165  0.0541  0.2174  0.0802
56189W        W12430  31.411  20.806   9.471 -0.0797 -0.0720 -0.1992
56190W        W12431  24.610  30.291  26.206  0.1251  0.1537 -0.1443
56191W        W12432  12.896   5.556  18.408 -0.0403 -0.2175  0.0318
56192W        W12433   5.484   8.720  22.835  0.0032  0.1180 -0.1281
56193W        W12434   8.981  21.233  13.354 -0.3072 -0.1443  0.2772
56194W        W12435  31.540  27.343  25.555  0.2882  0.0385  0.1549
56195W        W12436   7.257  23.602  12.184  0.1161  0.0539  0.4478
56196W        W12437  13.897   1.058   4.218 -0.2325 -0.0517  0.0185
56197W        W12438  30.619   0.037   3.605 -0.3943 -0.0329  0.1873
56198W        W12439  25.021   2.389   0.746 -0.0686  0.0151  0.0468
56199W        W12440   6.317  30.063  12.701 -0.2748  0.1774 -0.0661
56200W        W12441  19.821  11.030   3.576  0.2716  0.0409 -0.3311
56201W        W12442  10.655  34.804  14.096 -0.3806 -0.0400  0.2829
56202W        W12443  22.484  27.951  19.128 -0.4608 -0.1865 -0.1657
56203W        W12444   0.160  17.554  20.343  0.1357  0.0104  0.1991
56204W        W12445   7.070  25.591   6.686  0.0537 -0.0844  0.1160
56205W        W12446  11.329  26.922  16.888 -0.0687  0.3732  0.1371
56206W        W12447  28.967  24.690   0.381  0.1014  0.0504  0.2549
56207W        W12448   7.396  25.047  12.426  0.1716  0.0877 -0.0006
56208W        W12449   1.353  29.968   2.662 -0.0741  0.2759 -0.1962
56209W        W12450  20.370   7.125  25.452 -0.2227 -0.0499 -0.1763
56210W        W12451  29.019  33.812  24.879 -0.1818 -0.3721  0.1455
56211W        W12452  11.513  33.916   3.607 -0.0851 -0.0836 -0.0076
56212W        W12453  34.450   0.974  20.429 -0.3205  0.1581  0.0705
56213W        W12454  12.539  10.086  12.192 -0.0531  0.1872  0.2339
56214W        W12455  16.991  16.854   1.769  0.0930 -0.0840  0.1497
56215W        W12456  13.630  22.198  12.384 -0.0600 -0.5892  0.4727
56216W        W12457  31.394   4.930  21.141  0.1303 -0.2247 -0.0685
56217W        W12458  20.913  11.854  23.826  0.2307  0.0416  0.1244
56218W        W12459   9.761  29.514   2.022 -0.1032 -0.2365 -0.0292
56219W        W12460   2.591  17.427  24.100 -0.0237 -0.3281 -0.1036
56220W        W12461  10.348   5.595   8.878 -0.0668  0.0389 -0.0576
56221W        W12462  22.967   8.517   3.690 -0.0971 -0.0601  0.1439
56222W        W12463  28.056  29.481  24.637  0.3115 -0.2410 -0.4123
56223W        W12464  15.539  30.599   2.298  0.1916 -0.1160 -0.2449
56224W        W12465  21.619  28.418  20.337 -0.2235 -0.1346 -0.0108
56225W        W12466  25.399  28.139  14.015 -0.0776  0.2717  0.1959
56226W        W12467  17.021  35.119   9.422  0.0395 -0.1819 -0.3135
56227W        W12468  13.918  31.744   5.981  0.2996  0.2660 -0.2623
56228W        W12469   9.212  22.302   1.907 -0.2656  0.2028 -0.0465
56229W        W12470  30.563  27.333  24.330  0.1642  0.0121 -0.2680
56230W        W12471   3.377   0.984  19.502  0.0502 -0.2098  0.1002
56231W        W12472  21.713   4.467   3.614 -0.1959  0.1759  0.0935
56232W        W12473  29.746   2.404  24.673 -0.1167  0.2005 -0.0749
56233W        W12474  15.315   4.676  22.477  0.2688 -0.1488 -0.3731
56234W        W12475  19.654  21.656  24.346  0.2102  0.0185 -0.0501
56235W        W12476  12.795  15.233   8.177  0.0933 -0.5256 -0.2135
56236W        W12477   3.404  14.135  19.946  0.1078  0.1889 -0.2883
56237W        W12478  23.515  18.820  20.725 -0.2273 -0.0181 -0.1205
56238W        W12479  26.808   3.537  16.690  0.0402 -0.1175  0.2058
56239W        W12480  23.611  16.210  11.191 -0.0244  0.0613 -0.0029
56240W        W12481   2.656   6.097  20.705 -0.0571 -0.1224 -0.0970
56241W        W12482  31.366  20.892   7.332 -0.2377  0.0976  0.1588
56242W        W12483   5.335  25.346   0.809 -0.0564  0.1503 -0.1019
56243W        W12484  31.043  14.471  23.562  0.0329  0.1946 -0.1779
56244W        W12485  31.401  31.075  18.783 -0.1411 -0.1419 -0.1987
56245W        W12486  23.571  23.382   2.249  0.1078 -0.2497  0.0947
56246W        W12487  13.705   3.775  10.613  0.0769  0.2071  0.2147
56247W        W12488  17.893   8.332  18.285  0.5091 -0.3125  0.1218
56248W        W12489  29.257   7.834  17.419  0.1591 -0.2663 -0.4280
56249W        W12490  13.035   7.073  20.965  0.2937 -0.0965 -0.0394
56250W        W12491  31.089   9.364  20.649 -0.0581 -0.2798  0.1916
56251W        W12492   4.175   4.751   8.512 -0.0084  0.4019  0.0176
56252W        W12493  15.262   1.469  18.091  0.1205 -0.0666 -0.1520
56253W        W12494  25.058   9.937  25.230  0.1173 -0.1440  0.2247
56254W        W12495  19.102  11.809   6.840  0.1545 -0.3692 -0.2675
56255W        W12496   6.300  27.638   4.319 -0.1387 -0.1548  0.0209
56256W        W12497  16.477  33.581  20.554  0.1534 -0.0527  0.2125
56257W        W12498  32.765  31.105   4.445 -0.3499  0.2258 -0.1293
56258W        W12499   2.405  14.533   2.297  0.0633 -0.1299 -0.1578
56259W        W12500   4.724   3.123  17.785  0.0457 -0.1055  0.2020
56260W        W12501  10.310   1.856   9.438  0.0705  0.1242  0.2536
56261W        W12502  15.972   3.744  22.358  0.2302 -0.4648 -0.2750
56262W        W12503   3.589   3.071   1.787 -0.0850  0.3668 -0.1379
56263W        W12504  19.119  26.149  20.259 -0.1434  0.2233  0.1119
56264W        W12505  12.296   4.003  19.392  0.1202  0.1666  0.0710
56265W        W12506   3.336  31.007  23.980  0.1042  0.1112  0.0259
56266W        W12507  28.615   2.946   1.233 -0.1157 -0.1062  0.0293
56267W        W12508   6.266   1.767   0.300 -0.1522  0.1443  0.1301
56268W        W12509  25.970   2.184   5.945 -0.4766 -0.2102  0.2429
56269W        W12510  22.831   4.745   5.494 -0.0997  0.0129 -0.1413
56270W        W12511   8.010  32.252   0.579 -0.2211 -0.0977  0.1098
56271W        W12512  23.854  32.758  23.150  0.3203  0.1871  0.0592
56272W        W12513  27.139  11.789   9.524 -0.1707 -0.2175 -0.2808
56273W        W12514  30.922   2.410  12.371  0.0143 -0.3783  0.2186
56274W        W12515  22.752  24.001   4.722 -0.0853 -0.3695  0.2534
56275W        W12516  17.969   3.317  20.437 -0.1742 -0.1905  0.0762
56276W        W12517  14.607  20.778  22.404  0.1640  0.1526  0.0351
56277W        W12518  23.091   2.368  12.091  0.3285  0.2585 -0.0143
56278W        W12519  20.913  26.160   6.208 -0.0749  0.0739 -0.3935
56279W        W12520   6.971  19.770   3.183 -0.1518  0.0022  0.2289
56280W        W12521  21.558  17.579  18.854  0.0081 -0.0097 -0.1494
56281W        W12522  31.372  19.770  14.929 -0.2364 -0.1193  0.1573
56282W        W12523  14.893  17.669   7.246  0.0180 -0.0688  0.0087
56283W        W12524   3.385   9.706  24.581  0.1239  0.1455  0.1832
56284W        W12525  27.054  18.561   8.003 -0.2754 -0.1903 -0.0243
56285W        W12526  22.552  31.839   0.672  0.0095  0.0062 -0.1741
56286W        W12527  31.191  17.502   5.278  0.0701  0.0672  0.0418
56287W        W12528  20.649  29.678  19.067 -0.0809  0.2106  0.0733
56288W        W12529  32.396   8.718  24.132  0.3144  0.0023  0.3599
56289W        W12530   5.079  31.363   0.612  0.0924  0.0445 -0.1034
56290W        W12531   8.327   2.555   1.889 -0.1553 -0.1080  0.1947
56291W        W12532  14.329   7.438  12.528  0.3009  0.2153 -0.0155
56292W        W12533  14.682   0.527  22.749  0.0703  0.0477 -0.2256
56293W        W12534   6.546   8.160  18.476  0.0004  0.2460 -0.4082
56294W        W12535   0.270   5.457   1.330  0.0178 -0.1519 -0.0191
56295W        W12536   5.086  18.539  23.085  0.2604  0.4398  0.0863
56296W        W12537  10.491  14.195  12.479  0.2540  0.0090  0.2519
56297W        W12538  18.245  34.091  16.973 -0.2238 -0.0185  0.2915
56298W        W12539   5.741  30.277   3.782  0.0046  0.5585  0.0360
56299W        W12540  24.894  11.582  14.191  0.0768 -0.2550 -0.0626
56300W        W12541  28.289  18.784   8.465  0.0672  0.3186 -0.0375
56301W        W12542  32.253  12.117   8.536  0.3265  0.1946 -0.0707
56302W        W12543  18.477   7.797  25.648  0.1119  0.1528  0.3061
56303W        W12544  22.373   5.773   3.047  0.3296  0.2434 -0.0707
56304W        W12545  20.570  27.848   7.298 -0.0264  0.2724 -0.1164
56305W        W12546   9.065   2.083  12.824 -0.0118 -0.1739 -0.0723
56306W        W12547  30.210  12.306  25.349 -0.0436  0.0748 -0.1185
56307W        W12548  33.494  30.944  20.556 -0.0299 -0.0102 -0.2193
56308W        W12549  32.110  14.082  14.209 -0.0576 -0.2681 -0.0977
56309W        W12550   6.808  19.967   1.092 -0.0303  0.0365  0.1606
56310W        W12551  32.324   9.644  14.571 -0.0264 -0.1152  0.0119
56311W        W12552  19.938  14.933  17.602  0.2762 -0.0269 -0.0323
56312W        W12553  18.702  15.384  24.004  0.0651 -0.2541  0.0428
56313W        W12554  27.879   2.698  19.029  0.0084 -0.1076 -0.1827
56314W        W12555  13.828   3.936  20.259 -0.0156  0.0077  0.0445
56315W        W12556  30.053  30.563  25.935  0.3095  0.0683 -0.2099
56316W        W12557  14.629   7.529  26.038 -0.1164 -0.2029 -0.2328
56317W        W12558  28.481   8.713  22.911 -0.1890 -0.1518  0.1568
56318W        W12559  10.280   0.628  11.967 -0.0130  0.0957 -0.0517
56319W        W12560   2.128   1.912  19.912  0.0947  0.3539 -0.2843
56320W        W12561  20.043  21.392  20.328 -0.1028  0.1273  0.2072
56321W        W12562  26.247   7.448  25.231  0.2101 -0.5145  0.1582
56322W        W12563  33.826  17.649  21.951  0.3896 -0.1161  0.1080
56323W        W12564   2.551  13.275  13.137  0.1017  0.1697  0.0010
56324W        W12565   7.781   7.109  22.179 -0.0341 -0.1118  0.2091
56325W        W12566  13.696  25.404  15.376  0.0622  0.3470 -0.1231
56326W        W12567   7.005   4.577   6.486  0.0060  0.0927 -0.2080
56327W        W12568   8.010   9.886   3.932 -0.0671 -0.1918  0.2037
56328W        W12569  34.018  19.226   9.656 -0.3206 -0.2624 -0.2590
56329W        W12570   9.119   9.271   4.351 -0.0867 -0.0377 -0.1796
56330W        W12571  10.575  22.106   4.376 -0.3113  0.0962  0.4079
56331W        W12572  12.603  21.096   0.395 -0.3385 -0.1097 -0.1800
56332W        W12573  25.592  26.820  17.599 -0.0084  0.1015 -0.1854
56333W        W12574  29.247   0.778   5.095 -0.1710 -0.1541  0.1717
56334W        W12575   7.671  18.618   2.967  0.4422 -0.1644 -0.2276
56335W        W12576   9.420  11.106   2.803 -0.2938 -0.3361 -0.2321
56336W        W12577   1.089   9.524  18.811 -0.0559 -0.2477 -0.1087
56337W        W12578  30.533   9.931  19.902  0.0929 -0.0808  0.1235
56338W        W12579  21.341  19.938  19.577 -0.4273  0.0612  0.0892
56339W        W12580  18.633   3.759   3.238  0.2369 -0.0349  0.1197
56340W        W12581  31.384  21.944   7.713 -0.0221  0.0648  0.2394
56341W        W12582  28.239   2.607   3.994  0.2848  0.0177  0.0997
56342W        W12583   5.384  13.302   4.764  0.4552 -0.0569  0.2871
56343W        W12584  16.911  17.453   1.467  0.0071 -0.1022  0.1290
56344W        W12585  32.480  16.577  12.770 -0.0734  0.3087 -0.0650
56345W        W12586  23.785  26.226   3.184 -0.1968  0.0183  0.3096
56346W        W12587   6.935   1.150   3.470 -0.3278 -0.0331 -0.1391
56347W        W12588  18.175  21.009   1.967 -0.2780  0.0308 -0.1753
56348W        W12589   6.666  25.349  10.740  0.2364 -0.1293  0.2671
56349W        W12590  17.132   1.991  10.423 -0.1413 -0.1875 -0.0936
56350W        W12591  23.964  21.183  17.473  0.1106  0.1887 -0.0807
56351W        W12592  18.996  12.729  23.098 -0.0490  0.1425  0.1511
56352W        W12593  33.758  29.003   1.443 -0.0977 -0.3881 -0.1435
56353W        W12594  17.304  25.292  21.602 -0.0625  0.1428  0.1517
56354W        W12595  29.865  22.878  25.649 -0.1836 -0.0732  0.1063
56355W        W12596  13.326  25.856  11.878 -0.2211 -0.0600 -0.0136
56356W        W12597  12.319  24.526  23.000  0.1482 -0.0252  0.2182
56357W        W12598  20.919  24.269  21.030  0.2665  0.2543 -0.2261
56358W        W12599  10.912  14.573  25.829 -0.0407  0.1905 -0.0342
56359W        W12600   3.824  33.421  19.536 -0.0110 -0.1184  0.2954
56360W        W12601  26.648  11.570  15.984 -0.2637 -0.1421 -0.0184
56361W        W12602   8.675  18.975  21.128  0.1595  0.1513  0.0125
56362W        W12603  12.550  15.803  19.472  0.3339  0.0015 -0.2663
56363W        W12604  19.287   0.959  15.310 -0.0403 -0.1360  0.2229
56364W        W12605  34.576  11.170  24.852 -0.1148  0.1273  0.0327
56365W        W12606   5.947  25.402   3.340  0.1103  0.0031 -0.0898
56366W        W12607  14.351  19.310   1.548 -0.2167 -0.1851 -0.1510
56367W        W12608   3.973  14.412  15.866 -0.2848  0.3723  0.4036
56368W        W12609  31.444  14.938  15.949 -0.0450 -0.0092  0.0058
56369W        W12610  33.594   2.223  14.167 -0.1220  0.0970  0.2572
56370W        W12611  16.529  31.418  22.619 -0.0013 -0.2120 -0.1701
56371W        W12612  27.480   3.892   4.719 -0.2278 -0.2070  0.1435
56372W        W12613  34.193   8.605  10.792 -0.0965  0.1049  0.1072
56373W        W12614  22.236  10.524   2.236 -0.1196  0.0497  0.4091
56374W        W12615  21.383  27.150  19.906 -0.0255 -0.1743 -0.0688
56375W        W12616  13.593  28.025   7.793  0.2174  0.2026 -0.0114
56376W        W12617   8.370  21.637  12.072  0.2764  0.1603 -0.1390
56377W        W12618  26.287  14.352  11.449 -0.1734  0.2532  0.0125
56378W        W12619   3.583   2.533  23.314  0.2042 -0.4222  0.1990
56379W        W12620  13.623  35.107   2.422 -0.0113  0.0120 -0.0659
56380W        W12621   1.678   5.547  20.781 -0.2595 -0.0959  0.1305
56381W        W12622  33.040  26.758  22.122  0.0685 -0.2723 -0.1530
56382W        W12623  13.017   3.564  10.009  0.0230  0.1367  0.0119
56383W        W12624  10.659  28.664  13.215 -0.2633 -0.3157 -0.1369
56384W        W12625  13.496  19.188  11.722  0.1433 -0.2250 -0.0559
56385W        W12626  23.207  33.353  12.931 -0.0619 -0.2534  0.0507
56386W        W12627   3.690   0.437  18.672 -0.0733 -0.2412  0.1586
56387W        W12628  22.854  26.933   4.312 -0.0169  0.3223 -0.0035
56388W        W12629   3.648  31.817  22.808  0.0772 -0.1310  0.1689
56389W        W12630  23.921  17.841  20.897  0.2142  0.0523  0.0347
56390W        W12631   1.549  13.916  25.744  0.1407  0.1320 -0.3524
56391W        W12632   7.332   6.685   6.446 -0.1344  0.2334 -0.0997
56392W        W12633  13.969   8.444   2.521  0.1118 -0.4071  0.2340
56393W        W12634  20.270  29.804  17.434  0.0639  0.1669  0.0436
56394W        W12635  22.880  29.249  26.103 -0.0828  0.2811  0.2363
56395W        W12636   7.166  15.693   3.382  0.1077 -0.0469  0.1755
56396W        W12637  12.527   8.527  20.919 -0.2449 -0.0754 -0.0607
56397W        W12638  22.547   9.526   5.258 -0.3371 -0.3023 -0.2477
56398W        W12639  33.791  13.859  25.339 -0.0628  0.0408 -0.0496
56399W        W12640   6.345  11.669   2.406  0.0577 -0.3189  0.0770
56400W        W12641   1.666  11.136   1.160 -0.0786  0.3126  0.0775
56401W        W12642  21.970   2.074   3.257 -0.0374  0.1741  0.1162
56402W        W12643  19.219  24.077   8.358 -0.0225  0.1048 -0.2064
56403W        W12644   7.303  27.156   1.716 -0.1855  0.0500 -0.1100
56404W        W12645  10.682  28.735  25.634  0.0401 -0.1135 -0.0488
56405W        W12646   0.033  20.864  24.192 -0.3433 -0.0331  0.2362
56406W        W12647  22.548   9.262   4.724  0.1545  0.1024 -0.0225
56407W        W12648  12.307   7.914   0.186  0.1652  0.4028 -0.1304
56408W        W12649   7.974   9.359   8.655  0.1537 -0.0926  0.0939
56409W        W12650  21.676  14.858   0.110  0.1694 -0.2155  0.0240
56410W        W12651  31.005  21.987  12.059  0.0918  0.0524 -0.2574
56411W        W12652  18.428  10.755  22.312  0.1558 -0.1080 -0.0981
56412W        W12653  24.426  24.067   1.510 -0.0435 -0.0094  0.0112
56413W        W12654  10.686  10.884  20.682  0.1382 -0.0675  0.3060
56414W        W12655  14.464   3.870   4.406  0.1876 -0.0107  0.1537
56415W        W12656  29.636   1.064  22.354  0.1313 -0.0339  0.0232
56416W        W12657  27.828  11.470  17.733  0.1859  0.1368 -0.0355
56417W        W12658  27.215  18.636  12.002 -0.1806  0.0503  0.1378
56418W        W12659  34.885  22.399   7.893 -0.0603  0.0983  0.1558
56419W        W12660  24.936  20.555  19.938  0.1558  0.3446  0.2990
56420W        W12661  32.585  29.678  23.195 -0.1744  0.0387 -0.0174
56421W        W12662  33.891  25.676  24.474  0.0077 -0.0538  0.0425
56422W        W12663   0.210  33.038  15.342 -0.1940 -0.1529 -0.1564
56423W        W12664  32.821   6.535  19.628  0.1814  0.3096 -0.0093
56424W        W12665   7.852   3.484   1.768 -0.0480  0.2380 -0.2595
56425W        W12666  10.687   2.381   4.623 -0.1068 -0.3354  0.2044
56426W        W12667  28.244  26.374   1.469 -0.1270  0.1140 -0.3992
56427W        W12668   0.340   0.954   3.495 -0.0351  0.1130  0.0058
56428W        W12669  15.945  17.441  25.144 -0.0984 -0.1517  0.0978
56429W        W12670   5.312  26.404   8.281  0.3608  0.0989 -0.1474
56430W        W12671  28.506   5.618  10.671  0.0338  0.1903 -0.1859
56431W        W12672  15.755  27.601  13.649 -0.0101 -0.0880  0.2544
56432W        W12673  13.602  20.507   5.174  0.0968 -0.1634 -0.1825
56433W        W12674   9.931   6.502  11.897  0.0868  0.0809 -0.0356
56434W        W12675  14.673   3.681   0.879  0.1549  0.0621 -0.0056
56435W        W12676  33.805  23.335   0.456  0.1174 -0.0247 -0.3905
56436W        W12677  21.932  10.184   3.465  0.2216  0.2129  0.2417
56437W        W12678   0.197  22.412  22.264  0.0814  0.4975  0.0713
56438W        W12679  17.355  17.740   5.704 -0.1275  0.1412  0.1883
56439W        W12680  26.653   9.494  10.631 -0.0902 -0.0576  0.0414
56440W        W12681  10.166  22.111   6.755  0.2060  0.1535 -0.0124
56441W        W12682   7.322  34.068   5.883 -0.0064  0.3376 -0.2095
56442W        W12683   3.160  22.928   4.508  0.0152 -0.1416 -0.1188
56443W        W12684  22.467  18.312  24.610  0.3268  0.2059  0.1175
56444W        W12685  26.544  32.189  12.562 -0.0618 -0.1596 -0.2754
56445W        W12686  29.799  24.415   7.270  0.1987  0.1760 -0.1427
56446W        W12687  12.713   2.367   7.689 -0.0679  0.1988 -0.1631
56447W        W12688  13.893  31.575   1.751  0.0497 -0.0774 -0.0064
56448W        W12689   1.360   3.876  26.216 -0.2722  0.2996 -0.2094
56449W        W12690  27.742  13.896  18.553  0.2992 -0.2220  0.0957
56450W        W12691  25.999   2.064  20.491  0.0509  0.5331 -0.0068
56451W        W12692  28.277   6.727  10.034  0.0609  0.2557 -0.0568
56452W        W12693   8.134   6.108   1.001 -0.3074  0.0197 -0.0740
56453W        W12694  28.107  10.322  18.800 -0.0638  0.0944  0.2461
56454W        W12695  32.381   8.423  14.403  0.0902 -0.0949 -0.3290
56455W        W12696  10.682  18.924   2.312 -0.0348  0.0895  0.2555
56456W        W12697   1.182  30.284  17.667  0.2787  0.2420  0.2143
56457W        W12698  33.743  18.675  25.627 -0.3518 -0.0665  0.1885
56458W        W12699  27.558   6.497  15.845 -0.2395  0.0794 -0.1829
56459W        W12700  13.096  31.993  21.436 -0.3075  0.2731  0.3019
56460W        W12701  10.663   8.937  26.178  0.1586  0.1885 -0.1170
56461W        W12702  12.132  18.909  21.739  0.0622  0.2516 -0.1402
56462W        W12703   1.131   2.784   7.038 -0.1258 -0.3664  0.1653
56463W        W12704   6.419   7.655  10.381 -0.2286 -0.2469 -0.4656
56464W        W12705   5.219   7.452   3.459  0.0736 -0.0151 -0.0620
56465W        W12706  24.403  31.294  20.050 -0.3665  0.2349  0.2017
56466W        W12707   3.394  29.174  20.608  0.0480  0.1299  0.0706
56467W        W12708  21.919  33.376  18.112 -0.1158 -0.2459  0.2723
56468W        W12709  10.746  35.307  15.667  0.1078 -0.0124 -0.3477
56469W        W12710   7.454   2.509  22.445  0.0634 -0.0873  0.0420
56470W        W12711  27.590   3.688  20.133 -0.2918 -0.1483 -0.0365
56471W        W12712  10.811   6.555  13.293 -0.4288 -0.1765  0.2247
56472W        W12713  25.949  30.288  18.075 -0.1262 -0.0715 -0.4263
56473W        W12714   9.542   3.075  14.456  0.1188  0.0018  0.0888
56474W        W12715  24.842   9.901  16.480 -0.1663  0.0150  0.0572
56475W        W12716  29.945   1.892   6.850 -0.1285 -0.0152 -0.0080
56476W        W12717  34.785   2.769  23.261  0.0202 -0.2463 -0.1678
56477W        W12718  28.434  23.713  18.238  0.1338 -0.3312 -0.4231
56478W        W12719  29.969   7.404   8.605  0.1385  0.0406  0.0305
56479W        W12720  21.777  16.300  22.484 -0.1741 -0.3015  0.4746
56480W        W12721  13.984   7.973  19.857 -0.1227 -0.2915  0.0852
56481W        W12722  13.785  23.302   5.250  0.1979 -0.0157 -0.2309
56482W        W12723  23.888  11.420  24.541 -0.3413 -0.0914 -0.2616
56483W        W12724  15.277   3.104   9.738  0.1594 -0.0798 -0.0028
56484W        W12725   2.213   0.214  20.574  0.2739  0.1645  0.2504
56485W        W12726  29.244  22.417   5.653 -0.0624  0.1787  0.0603
56486W        W12727   8.213  28.167  22.898 -0.0987 -0.1822  0.1258
56487W        W12728  16.591   5.008   4.848  0.3212 -0.0786 -0.0557
56488W        W12729  31.882  34.929   6.391 -0.1777 -0.1247 -0.0085
56489W        W12730   6.183   8.544  23.756 -0.1895 -0.0827  0.0337
56490W        W12731   3.281   1.000  21.932 -0.0436  0.3302 -0.0335
56491W        W12732  33.396  31.759   2.888  0.2372  0.2848  0.1865
56492W        W12733   0.175  23.462  19.752  0.2203 -0.2430  0.2172
56493W        W12734  16.314  12.621  12.509 -0.3663 -0.0457  0.1369
56494W        W12735  19.930  31.334  22.002  0.1091 -0.1133  0.0274
56495W        W12736  23.875  35.054  18.574  0.2002 -0.1911 -0.0904
56496W        W12737   1.503  28.283  18.442 -0.0213  0.0928  0.1639
56497W        W12738  15.701   9.826  13.842  0.2027 -0.0315  0.1585
56498W        W12739   8.850  24.567   2.126 -0.1350 -0.2059 -0.2632
56499W        W12740  29.676   7.275  24.131  0.2454  0.1087 -0.2362
56500W        W12741   8.367  26.703  22.528  0.0956  0.0970 -0.0658
56501W        W12742   5.058  17.861  17.119 -0.1799 -0.2769 -0.1247
56502W        W12743  33.520  19.999  15.994 -0.0593  0.0061  0.1339
56503W        W12744  33.193   2.605  13.362  0.0640  0.0364 -0.2288
56504W        W12745  13.542  15.483  10.115  0.1198  0.1787  0.2774
56505W        W12746  18.555  10.043   1.775  0.0275 -0.1472 -0.0394
56506W        W12747  11.436  20.095   1.321  0.1023  0.0621  0.1353
56507W        W12748  18.946  22.544   9.026  0.3032 -0.2095 -0.2154
56508W        W12749   5.892  30.272  11.880  0.1700  0.0402  0.1642
56509W        W12750  15.589  17.542   5.117 -0.0687 -0.1204 -0.1040
56510W        W12751  12.553  25.089   5.134  0.0966  0.6174  0.5638
56511W        W12752   7.831  16.744  21.878 -0.0418 -0.0866  0.2220
56512W        W12753  33.334  20.507  21.332  0.0929  0.0871 -0.1782
56513W        W12754  11.574  35.063   0.563  0.1433 -0.2196  0.2769
56514W        W12755  23.908   3.558  17.103 -0.1280 -0.0222 -0.1569
56515W        W12756  17.182  21.680   2.094  0.3770 -0.0907  0.1759
56516W        W12757  29.294  14.439  15.891 -0.3582  0.1501 -0.3981
56517W        W12758  23.490  27.977  13.377 -0.1657  0.1561 -0.1989
56518W        W12759  17.379  25.860  21.637 -0.4169  0.1370  0.3044
56519W        W12760  23.289  16.554  21.892 -0.4066  0.3297 -0.0589
56520W        W12761  11.650  13.303  22.519 -0.0379 -0.2105  0.0309
56521W        W12762  30.082  21.835  16.885  0.0419  0.1092  0.1212
56522W        W12763  12.259  18.027  21.123  0.0316 -0.0559  0.2747
56523W        W12764  25.344   3.136   6.647  0.1098  0.3397 -0.1839
56524W        W12765  18.465  20.641  19.359  0.0638 -0.3910  0.1801
56525W        W12766  21.047  10.251  15.704 -0.0324  0.1790 -0.0227
56526W        W12767  22.132   9.238   2.827 -0.1403  0.2605  0.2836
56527W        W12768   6.907   4.916   1.248  0.0894  0.1639 -0.1044
56528W        W12769  27.095  15.268  13.325 -0.1002  0.0243  0.0998
56529W        W12770   6.602  27.744  22.620 -0.0574  0.1667 -0.0191
56530W        W12771  31.932  23.333  10.026 -0.0146 -0.1111 -0.0630
56531W        W12772  29.954  22.487  25.374  0.1137 -0.2355 -0.1152
56532W        W12773  17.159   3.050  25.641  0.1003  0.0918 -0.2316
56533W        W12774   0.969  30.076   8.752  0.0132 -0.0028 -0.1223
56534W        W12775   6.683   9.499  24.740  0.3555 -0.0287  0.1247
56535W        W12776   4.569   4.075  18.294 -0.0718 -0.2049  0.2454
56536W        W12777  34.014  16.160   9.997 -0.0138  0.4672 -0.0416
56537W        W12778  33.504  29.232   4.362 -0.0700 -0.1916 -0.0985
56538W        W12779  10.723  13.078   2.304  0.0293  0.1070  0.0192
56539W        W12780  17.904  15.893   2.728  0.0805 -0.1051 -0.1360
56540W        W12781  25.556  11.131  25.119 -0.1133  0.0509  0.1270
56541W        W12782   8.581  32.647  14.124 -0.3972 -0.0011  0.2317
56542W        W12783   8.154  28.210   3.359  0.1902 -0.2460  0.0260
56543W        W12784  22.436  30.362  13.735 -0.3083 -0.3562 -0.1528
56544W        W12785  23.891   6.716   0.097 -0.1790 -0.2860  0.3990
56545W        W12786  33.409   7.452   0.530  0.0209  0.0449  0.2305
56546W        W12787  20.154   8.843  22.908 -0.1083  0.0944  0.0931
56547W        W12788   8.001  27.843   7.613 -0.0293  0.3742  0.1914
56548W        W12789   9.359  13.334   9.682  0.0189  0.0225 -0.0799
56549W        W12790  12.752  23.238   5.383 -0.0035  0.0788  0.0627
56550W        W12791  11.738  32.867   3.824 -0.0177 -0.1000  0.2843
56551W        W12792   1.092  27.210  17.654 -0.3782 -0.0574  0.0070
56552W        W12793  14.371  32.244  21.218  0.0373  0.0627  0.0909
56553W        W12794  22.809  22.910  15.653 -0.0474 -0.0029  0.2319
56554W        W12795  25.033  13.456  11.342 -0.4070  0.1158  0.0752
56555W        W12796   2.701  35.101   5.070 -0.1639 -0.1343  0.0396
56556W        W12797  30.819  26.698   0.394 -0.1353 -0.3558 -0.1964
56557W        W12798  18.345   5.804  25.517  0.4647 -0.0525  0.2008
56558W        W12799  16.314  30.405  22.621 -0.3442  0.1087 -0.1208
56559W        W12800  25.026   9.387  25.155 -0.1910  0.0715  0.1939
56560W        W12801  10.924   3.709   7.210  0.0484  0.1065  0.1773
56561W        W12802  24.612  13.354  14.557  0.1658 -0.1019 -0.1613
56562W        W12803   8.795  34.767  21.731 -0.1319  0.2269 -0.0740
56563W        W12804  25.113  13.288  25.171 -0.0497 -0.0362 -0.0580
56564W        W12805  13.363  11.259   9.131 -0.1839 -0.2873  0.1331
56565W        W12806   8.116   3.870   9.390 -0.1223 -0.0999  0.1447
56566W        W12807   5.351  34.851  11.493  0.2111  0.3051 -0.2155
56567W        W12808  12.344   5.415   2.367  0.1006  0.2132 -0.1987
56568W        W12809  26.079  34.762   5.420 -0.1411 -0.4732 -0.0449
56569W        W12810  29.949  20.266  13.572 -0.1339 -0.0686  0.1060
56570W        W12811  29.019  21.398   9.517  0.0134 -0.3959  0.0873
56571W        W12812  27.635  14.281  18.024 -0.0474  0.0198  0.0555
56572W        W12813  29.253  25.764  11.756  0.3384  0.2337  0.1368
56573W        W12814  34.979  12.683  22.637 -0.1165 -0.0090  0.0752
56574W        W12815  12.483  15.289   9.367 -0.1295  0.3746  0.1751
56575W        W12816   3.730   4.054   4.957  0.3557  0.0600  0.0131
56576W        W12817  16.460   4.322   7.025  0.0596  0.0628 -0.1868
56577W        W12818   9.100  30.575  23.599 -0.0089 -0.0811  0.0517
56578W        W12819  19.075  35.203  15.696 -0.1083 -0.3672  0.1362
56579W        W12820  28.649  11.814  17.287  0.2107  0.0109 -0.2333
56580W        W12821  32.115  16.864   6.439 -0.0316  0.1656  0.0724
56581W        W12822  19.278  32.644   5.781  0.0401  0.2492  0.0544
56582W        W12823  32.209  15.076  21.591  0.0280 -0.3994  0.0473
56583W        W12824   2.577  26.649  22.852  0.2317 -0.1713  0.0775
56584W        W12825  20.101  18.551  19.024  0.2061 -0.3170 -0.1903
56585W        W12826  28.695   7.117  16.710 -0.1572 -0.2423  0.0251
56586W        W12827  29.143  31.010   3.435  0.2342 -0.0903  0.0268
56587W        W12828  24.049   7.139  23.740  0.1387  0.1939 -0.1897
56588W        W12829  22.697   3.460  18.510 -0.0657 -0.3795 -0.0164
56589W        W12830   3.931  24.929  20.517  0.1559  0.1045 -0.0755
56590W        W12831  26.312  12.343  13.330 -0.0083 -0.0433  0.0845
56591W        W12832  27.017  22.336  18.576  0.0362 -0.1381  0.0247
56592W        W12833  10.972  25.348  17.974  0.0903  0.3400  0.1382
56593W        W12834  15.510  31.868   6.862  0.1985  0.2263 -0.2267
56594W        W12835  14.190  19.269  24.764  0.5158  0.0496  0.0534
56595W        W12836  10.427  33.205   4.140  0.3355 -0.0989  0.0585
56596W        W12837   5.927  26.629  23.507 -0.0822  0.0991 -0.3126
56597W        W12838  12.611  16.004  25.282  0.0766 -0.3023 -0.3336
56598W        W12839  14.192  17.820  13.565  0.0639  0.2022  0.0306
56599W        W12840  29.488  31.312   1.254 -0.1004 -0.3219  0.1109
56600W        W12841   6.769  32.523  20.839  0.0383  0.0968  0.1813
56601W        W12842  17.913  21.296  22.682 -0.1134 -0.3144  0.1406
56602W        W12843  24.176  21.032  22.960  0.0119  0.0836  0.0277
56603W        W12844   9.086  12.587  20.553  0.0620  0.3837  0.1581
56604W        W12845  16.599  32.193  11.908 -0.2515  0.1626 -0.2434
56605W        W12846   4.942   2.941   0.956  0.1051  0.1262  0.2972
56606W        W12847   7.175  23.895  24.329  0.1990 -0.0069 -0.0033
56607W        W12848  21.131  29.467  23.226  0.0784  0.1023 -0.1991
56608W        W12849  13.221  14.384   6.223 -0.0559 -0.0787  0.5297
56609W        W12850  16.044  35.197   0.907  0.1214 -0.2021 -0.1318
56610W        W12851  10.154   3.261  25.770  0.1238 -0.0859 -0.1659
56611W        W12852   3.666  33.039   6.907 -0.1596 -0.1148  0.0209
56612W        W12853  29.725   4.784  13.353 -0.1567 -0.0190 -0.1214
56613W        W12854  33.219   9.701  25.005 -0.1455  0.0897 -0.0838
56614W        W12855  25.827  33.069  23.308 -0.3218 -0.0218  0.1458
56615W        W12856   1.288  10.901  13.609 -0.1008 -0.1168 -0.0705
56616W        W12857  21.812  20.597   1.995 -0.2632 -0.1573  0.0486
56617W        W12858  28.108  11.455   1.252 -0.1780  0.0645 -0.0232
56618W        W12859   0.919  34.865  23.849 -0.3782  0.3350  0.0977
56619W        W12860   7.598  14.286  25.620 -0.1830 -0.2119 -0.1111
56620W        W12861  35.023  32.834  17.243 -0.1142 -0.1936 -0.3077
56621W        W12862  22.035  21.879   2.150  0.0862  0.2759  0.1290
56622W        W12863  20.104   6.872  22.708  0.2718 -0.0556  0.0949
56623W        W12864  13.935  30.039  21.274 -0.1434  0.3221  0.0590
56624W        W12865  15.400   1.603  11.887  0.1444  0.0228 -0.3105
56625W        W12866  13.882  27.694   6.187 -0.0131 -0.3139 -0.0451
56626W        W12867  27.647  10.398   0.649 -0.0328  0.1030 -0.0856
56627W        W12868   7.977  16.250   3.857  0.2854  0.2834 -0.1589
56628W        W12869   9.873   1.253  24.339  0.0192 -0.1692  0.2307
56629W        W12870  13.963  14.767  21.287 -0.1048 -0.0545 -0.0124
56630W        W12871  30.391  13.995   9.907  0.2227  0.1597 -0.0873
56631W        W12872  17.934  21.736   8.577 -0.1301 -0.2797  0.0803
56632W        W12873  13.258   1.718   3.009 -0.0942  0.0750  0.1079
56633W        W12874  19.709  24.624   5.396  0.0002 -0.0757  0.0669
56634W        W12875  32.988  10.489   9.141  0.1336  0.1135  0.2757
56635W        W12876  15.770  11.812  13.583  0.0382 -0.1080  0.0494
56636W        W12877   8.444  11.083  19.289 -0.1060 -0.0406 -0.0841
56637W        W12878  28.489  30.888   2.077 -0.3593  0.0219  0.2088
56638W        W12879   8.292   1.921   5.269  0.2292  0.0243 -0.0890
56639W        W12880   6.632   8.845  19.005 -0.0365  0.1313 -0.0102
56640W        W12881   2.403   5.979   4.325  0.0477 -0.0723 -0.2341
56641W        W12882  32.237   5.640  18.128 -0.1165  0.1699  0.0020
56642W        W12883  24.628  23.754   3.136 -0.0601 -0.0535  0.0219
56643W        W12884  22.802  31.031  23.263  0.1637 -0.1278  0.0813
56644W        W12885  19.882  16.045   0.334 -0.0036  0.3124  0.0940
56645W        W12886  28.741   9.636  23.694 -0.1676  0.3675  0.2842
56646W        W12887  33.684  26.426   1.649  0.2548 -0.2755 -0.2218
56647W        W12888   8.572  22.566   4.746  0.1388  0.2662 -0.1350
56648W        W12889  34.237  20.894  26.231  0.2396  0.1953  0.0952
56649W        W12890  10.346   1.847   1.280  0.0377 -0.1149 -0.2085
56650W        W12891  34.832  15.840   1.095 -0.0279 -0.1995 -0.0634
56651W        W12892  21.370  29.410   3.687  0.2782 -0.0831 -0.1668
56652W        W12893   2.364  25.153  20.028  0.2377 -0.0237  0.5140
56653W        W12894  28.304  29.931  23.182  0.0901 -0.1687 -0.0653
56654W        W12895  18.760  27.836   7.975  0.2558 -0.4198 -0.1287
56655W        W12896  16.416   7.555  23.843 -0.1309  0.0284 -0.2699
56656W        W12897   4.510  16.931  22.663  0.0135 -0.2221  0.0666
56657W        W12898  20.963  11.641  17.613  0.0874 -0.0973 -0.1261
56658W        W12899   2.256  31.713  24.609  0.2164 -0.0730 -0.1600
56659W        W12900   9.901  30.348   3.903 -0.1552  0.1631  0.1648
56660W        W12901  13.445  31.299   2.106 -0.0176 -0.0343 -0.0332
56661W        W12902  15.519   5.267  23.013 -0.1058  0.0778  0.1733
56662W        W12903  11.915  27.992   5.630 -0.0425 -0.1594  0.0875
56663W        W12904  11.227   5.450  23.341 -0.2694 -0.1153  0.0567
56664W        W12905  12.942   9.785   6.209 -0.2801  0.0319 -0.2059
56665W        W12906  23.660  19.038  16.541 -0.1633  0.0848  0.1265
56666W        W12907  33.065   6.338  24.661 -0.0032 -0.3325  0.0824
56667W        W12908  33.281   5.048  22.193  0.0675 -0.1603 -0.1294
56668W        W12909  25.334  12.100  25.792  0.1389  0.0830 -0.0198
56669W        W12910   9.126  30.610   1.280  0.1692  0.0656 -0.1513
56670W        W12911  14.327  18.924   3.268  0.0598  0.4200  0.0025
56671W        W12912  33.805  26.071  13.733  0.3250 -0.3756 -0.3448
56672W        W12913  19.546  31.052  23.708  0.0530 -0.1622 -0.3114
56673W        W12914   3.789  20.758   3.906 -0.1265 -0.1793  0.0978
56674W        W12915  29.391  24.959   0.154 -0.0338 -0.1134  0.1355
56675W        W12916  29.942  29.637  17.952  0.0748 -0.2668 -0.0763
56676W        W12917   1.173  18.860   8.656 -0.1848  0.1004 -0.1136
56677W        W12918  10.690  18.200  14.014  0.1202  0.1163 -0.3000
56678W        W12919  28.032  11.744  13.986 -0.2115  0.1142 -0.5136
56679W        W12920   3.833  15.921  19.915  0.1673  0.1223 -0.0128
56680W        W12921  35.112  20.100  18.816 -0.3295 -0.1700 -0.3335
56681W        W12922  15.786  12.213   7.206 -0.2044  0.1313  0.1334
56682W        W12923  28.655  33.538  25.662  0.0219  0.1167  0.1023
56683W        W12924   5.618  24.615   5.343 -0.2423  0.0484 -0.1908
56684W        W12925   6.301  11.300  23.212  0.1393  0.1118  0.0181
56685W        W12926  19.101   4.683  16.305  0.0074 -0.2833 -0.0619
56686W        W12927  25.955  16.219  22.089  0.1509 -0.0916  0.0466
56687W        W12928  20.447  25.826   0.667  0.0029  0.1015  0.1722
56688W        W12929  15.830  13.405  18.561  0.0893 -0.0517  0.0982
56689W        W12930  11.480  13.370  24.056  0.2125 -0.1420  0.2171
56690W        W12931  28.376  20.744  23.971  0.3670  0.1795  0.2575
56691W        W12932  16.064  26.815  22.835  0.0694  0.2276  0.0158
56692W        W12933   3.820  23.803   0.351 -0.0538 -0.2087 -0.0843
56693W        W12934   3.815   6.623  22.129  0.0111  0.0093  0.0250
56694W        W12935  17.695   1.484   3.868  0.1445 -0.0464  0.1471
56695W        W12936  23.996  31.117  12.459 -0.1938 -0.0148 -0.1476
56696W        W12937  18.079  10.945   2.994  0.0838  0.1650 -0.1790
56697W        W12938  22.562  29.820  26.209  0.2464 -0.0180  0.1663
56698W        W12939  28.174   0.180   4.684 -0.1171  0.1362  0.1103
56699W        W12940  19.342  13.559   2.601  0.1735 -0.0172  0.1573
56700W        W12941  25.501   0.598  16.182  0.4207 -0.1144  0.3020
56701W        W12942  14.140  26.101  10.218 -0.0905  0.1177 -0.0384
56702W        W12943  28.611   6.915   2.321 -0.2120 -0.0948  0.0649
56703W        W12944  30.143  20.240  22.360  0.4142  0.3612 -0.3135
56704W        W12945  29.721   8.114  21.490  0.0745  0.2434 -0.0753
56705W        W12946  23.496  22.064   1.450 -0.0286 -0.2399  0.0838
56706W        W12947  18.897   4.494  22.937  0.0288 -0.0016 -0.3081
56707W        W12948  34.511  20.467   8.760  0.1574  0.1127 -0.0319
56708W        W12949  15.849   0.476   0.969  0.0806  0.1886  0.2075
56709W        W12950  12.323  30.242   9.540 -0.1151  0.1385 -0.0767
56710W        W12951  31.424   4.494  13.048  0.0617 -0.1129  0.0764
56711W        W12952  22.539   9.581   2.913 -0.0341 -0.1429  0.2293
56712W        W12953  23.633   3.950   4.622  0.0279 -0.0986 -0.0048
56713W        W12954  21.106  14.610   2.758  0.0967  0.2404 -0.2780
56714W        W12955   5.748  20.975   1.438 -0.1198  0.0971 -0.0280
56715W        W12956  13.368  24.357  23.808  0.1966  0.2759 -0.1717
56716W        W12957  18.894  19.039   0.636  0.0288  0.1505 -0.1129
56717W        W12958  30.963  19.380  11.192  0.2530  0.4630  0.1236
56718W        W12959  31.916  10.572  21.906 -0.3967  0.0664  0.1563
56719W        W12960  30.957   9.779   0.593 -0.1053  0.3151 -0.1122
56720W        W12961  15.579   1.213  23.423 -0.3118 -0.3309 -0.2132
56721W        W12962  10.024  23.570  10.833  0.0527 -0.0266  0.0880
56722W        W12963  19.676  33.701   4.222  0.0984 -0.1467 -0.3314
56723W        W12964  23.723  16.457  16.751 -0.0132  0.1653 -0.1850
56724W        W12965  29.933  18.983  17.740 -0.0374  0.1175  0.1588
56725W        W12966  29.797  11.378   6.780  0.1795  0.0438  0.2087
56726W        W12967  31.156  17.818   4.826 -0.1858  0.0199  0.3653
56727W        W12968  27.612   9.211   8.555 -0.0981  0.1279 -0.0422
56728W        W12969  32.485  30.648  20.282 -0.2349  0.1798 -0.0720
56729W        W12970   4.810   5.555   5.064 -0.3474  0.0264  0.0842
56730W        W12971  20.203  21.573   4.697  0.0567  0.1300 -0.1010
56731W        W12972   1.147  10.796  19.019 -0.2392 -0.0276  0.0880
56732W        W12973  29.887   8.094  26.228  0.3917 -0.2660  0.2640
56733W        W12974  11.150  24.892  17.921  0.0217  0.1784 -0.1649
56734W        W12975   4.962  16.723  20.882 -0.1149  0.0407  0.3231
56735W        W12976  15.031  24.924  10.051  0.2080 -0.2259 -0.1630
56736W        W12977  21.223   0.585  18.264 -0.0584  0.1913 -0.1239
56737W        W12978   5.911  29.930  21.266  0.2387  0.0735  0.0438
56738W        W12979  12.866  14.256   9.497 -0.2904  0.0025  0.3231
56739W        W12980   1.833  18.553  13.020 -0.1379  0.0756 -0.0948
56740W        W12981  16.707   5.710   2.643  0.0423 -0.2879 -0.2837
56741W        W12982  25.280   5.035  17.949  0.2023 -0.2400 -0.1554
56742W        W12983  15.237  25.134  13.328  0.1957 -0.0179 -0.2624
56743W        W12984  12.780   5.278   7.061 -0.1398 -0.2818 -0.1843
56744W        W12985  26.249  25.020  14.139  0.1700 -0.0393 -0.1456
56745W        W12986   2.175  28.580  24.712 -0.0907  0.2662  0.0948
56746W        W12987  21.222   2.964   1.912 -0.0711  0.0588 -0.0458
56747W        W12988  12.461  29.946  24.711  0.0370 -0.1758  0.1078
56748W        W12989  27.344  17.745   8.062 -0.0587 -0.2911  0.2951
56749W        W12990  14.880  16.179   5.568 -0.1252 -0.1505  0.1128
56750W        W12991  24.655  30.911  25.519  0.1742  0.2078 -0.1620
56751W        W12992  34.776  22.220  22.497  0.2083  0.0875 -0.2291
56752W        W12993  31.251   9.762   8.776  0.2143  0.0014 -0.1850
56753W        W12994   7.073   5.344  25.148 -0.3329  0.0902 -0.0277
56754W        W12995   7.367  25.853   4.541  0.1071 -0.0142 -0.3978
56755W        W12996  17.999   9.915  10.603  0.0112  0.1382  0.4609
56756W        W12997  30.153  24.807  24.499 -0.1626  0.2703 -0.0849
56757W        W12998  32.160  17.843   7.595  0.0351  0.1107  0.0531
56758W        W12999   2.746  16.255  20.521 -0.1335 -0.1787  0.1431
56759W        W13000  10.244  15.590   1.580  0.1333  0.1965  0.1178
56760W        W13001  20.797   0.488  21.572  0.0327 -0.0275 -0.3739
56761W        W13002  14.228  14.126   2.377  0.1257 -0.0682 -0.1276
56762W        W13003   5.999   7.127  22.452 -0.3512  0.1379 -0.0301
56763W        W13004  29.782   0.792  18.530 -0.2264 -0.1516  0.0727
56764W        W13005  13.027  31.213   3.916  0.0534  0.0178 -0.2161
56765W        W13006  33.821  16.670  20.028  0.0743  0.0685 -0.2499
56766W        W13007  30.579  13.932  22.185  0.2019 -0.1565 -0.1602
56767W        W13008  24.890  21.012  18.618  0.0299  0.1418  0.0889
56768W        W13009  17.014   1.398   0.521  0.0626  0.2043  0.0500
56769W        W13010  16.988   7.147  26.021 -0.3029 -0.1728  0.0477
56770W        W13011   8.981  18.306  13.074 -0.2524  0.1689 -0.0749
56771W        W13012   1.815  25.495  18.106 -0.3189  0.1090  0.4024
56772W        W13013   9.574   1.489  14.129  0.0275 -0.0479  0.1748
56773W        W13014   5.831   1.845  24.441  0.2518 -0.1020 -0.0790
56774W        W13015  21.283  10.491  22.726 -0.2452  0.1283  0.0423
56775W        W13016   7.141  11.029  19.904 -0.0897 -0.0675  0.1830
56776W        W13017  10.594  18.049   5.499  0.1313 -0.0277 -0.0806
56777W        W13018  27.571  11.101  19.344  0.0357 -0.0900 -0.0635
56778W        W13019   6.661   5.669  23.617 -0.1791 -0.0201  0.2993
56779W        W13020   7.850   3.592  13.104 -0.1926  0.4228  0.2605
56780W        W13021  29.679  15.338  14.562 -0.0232  0.3216  0.0136
56781W        W13022   6.044   7.978  18.765 -0.0482 -0.0806 -0.3141
56782W        W13023  14.113  14.534   6.106  0.2061 -0.1985  0.4198
56783W        W13024  17.311  21.636  22.495 -0.0254 -0.0949  0.0203
56784W        W13025  23.482  11.603  24.286 -0.0535 -0.0309 -0.2918
56785W        W13026  27.301  10.796  16.470  0.2150 -0.2158 -0.1432
56786W        W13027   2.001  20.200  11.475 -0.1937  0.3144  0.1582
56787W        W13028  21.026  16.442  19.302  0.0084 -0.4465  0.0093
56788W        W13029  20.963   2.043  18.467 -0.1584 -0.0190 -0.0950
56789W        W13030  14.737  33.755   9.168  0.0513  0.0009 -0.0825
56790W        W13031  10.076  30.058  24.274  0.5152 -0.0038 -0.0407
56791W        W13032  10.320   2.485  23.232  0.0686 -0.0854  0.0920
56792W        W13033  26.906   6.299  21.037 -0.0469  0.4167 -0.2258
56793W        W13034  24.698  30.244  18.583  0.2771  0.0037  0.1741
56794W        W13035  20.549   0.580  22.045  0.1988 -0.0299 -0.1614
56795W        W13036  23.768  31.300  25.369  0.1510 -0.0857  0.3621
56796W        W13037  21.599  27.668  25.081  0.1036 -0.1975  0.0595
56797W        W13038   8.565   6.947  23.932 -0.1145 -0.0246  0.1216
56798W        W13039   3.861  15.973  25.939 -0.1198  0.2025  0.0745
56799W        W13040  20.848  25.759   5.862 -0.2821 -0.4539  0.0769
56800W        W13041  21.395  34.553   5.489 -0.0638  0.0042 -0.0667
56801W        W13042  18.441  16.862  20.437 -0.2807  0.0524 -0.4352
56802W        W13043   0.285   1.667  24.300 -0.1472 -0.1587  0.0952
56803W        W13044  29.194  13.761  15.307 -0.0517 -0.1564 -0.3908
56804W        W13045   5.645  11.324   7.497  0.2664  0.2177 -0.1500
56805W        W13046   3.957   5.110  20.271 -0.2058 -0.1823 -0.0150
56806W        W13047  10.464  27.685  13.874 -0.1143 -0.0875 -0.1911
56807W        W13048  28.941   8.413  11.816  0.1551  0.2071 -0.1729
56808W        W13049   7.498  24.914   6.914 -0.1047 -0.0219  0.0081
56809W        W13050   8.802  25.251  15.784 -0.0710 -0.2752 -0.2423
56810W        W13051   9.066  14.580  13.481 -0.0927  0.0137 -0.1470
56811W        W13052   0.265  14.653   0.976 -0.0746  0.0090 -0.0265
56812W        W13053   6.914  15.433  21.386 -0.2841 -0.0175 -0.1118
56813W        W13054   5.039  34.967   7.291 -0.2264  0.1120  0.0430
56814W        W13055  33.800   2.354   6.235 -0.1195 -0.2218  0.1510
56815W        W13056  32.642   4.403  15.342 -0.4978  0.3428  0.0396
56816W        W13057   7.194  12.143  21.324 -0.3800  0.0189 -0.0393
56817W        W13058   5.589   2.139  25.811 -0.2616  0.2866 -0.1657
56818W        W13059  27.814   0.524  14.063  0.2105  0.3924  0.0011
56819W        W13060  18.338  17.129  22.408 -0.0525 -0.1400 -0.0774
56820W        W13061  23.093  33.405  26.038 -0.2660 -0.1261 -0.1182
56821W        W13062  22.301  25.204  14.069 -0.0481  0.1816 -0.0023
56822W        W13063  26.730  23.534  24.805 -0.2064  0.0733 -0.0265
56823W        W13064  34.980  34.829   5.923 -0.2551 -0.0053 -0.3596
56824W        W13065  33.721  16.154   9.525 -0.1683 -0.1349  0.4392
56825W        W13066   6.274  25.600  12.949  0.0113  0.0114 -0.2545
56826W        W13067   4.903   1.206   7.134 -0.0558 -0.1615 -0.2493
56827W        W13068  24.797  17.199  25.192 -0.0442 -0.1288 -0.0090
56828W        W13069  19.497  33.502  15.963 -0.0778 -0.0831 -0.3419
56829W        W13070  14.208  19.883   2.315  0.1005  0.2277 -0.1968
56830W        W13071  21.102   4.692  15.154  0.1801 -0.0375 -0.2748
56831W        W13072   7.301   6.793  11.912 -0.0803 -0.0816  0.1904
56832W        W13073   6.381   0.915   7.119  0.0024 -0.2600 -0.1342
56833W        W13074  30.719  15.671  22.874  0.0920  0.0339  0.0619
56834W        W13075  24.103   6.766  19.719  0.0659 -0.1266  0.0356
56835W        W13076  17.123  18.028  12.232  0.1778  0.1752  0.1754
56836W        W13077  28.503  34.806   5.237 -0.0301 -0.1895  0.1551
56837W        W13078  22.622  13.927  22.752  0.1201 -0.2356  0.1660
56838W        W13079  30.909  17.570   7.321 -0.0814  0.2618  0.1882
56839W        W13080  28.006  28.558  18.755 -0.1147 -0.0939 -0.0259
56840W        W13081  26.693  10.843  13.090 -0.1567  0.0285  0.0132
56841W        W13082  16.461   9.493   1.358  0.1133 -0.1441  0.1190
56842W        W13083  27.158   3.315   2.631  0.0580  0.1545 -0.0720
56843W        W13084  30.889  25.879  17.167  0.2330  0.0723  0.2052
56844W        W13085  19.274  33.632   5.815  0.3346  0.2662  0.0120
56845W        W13086  30.509  10.471  15.816  0.0725  0.2782  0.1317
56846W        W13087  17.609  14.928  21.873 -0.1116  0.4305 -0.0160
56847W        W13088  25.347  17.794  19.244 -0.0002 -0.1977  0.2350
56848W        W13089   9.921  17.029   1.243  0.2618 -0.0121  0.2172
56849W        W13090   7.871   1.961  13.047 -0.1551 -0.0259 -0.3258
56850W        W13091  28.340  10.017  21.755 -0.2929 -0.0752  0.3009
56851W        W13092  27.938   7.384  24.589 -0.1262  0.4778  0.2258
56852W        W13093   2.012  17.471   0.771  0.0884  0.4130 -0.1895
56853W        W13094  30.097  23.011  10.548  0.2366 -0.2946 -0.0306
56854W        W13095  30.986  12.787  13.507 -0.0570  0.1883  0.1782
56855W        W13096   3.705   9.669  23.536 -0.0997  0.1909 -0.0041
56856W        W13097  32.002  28.249   3.506 -0.0583  0.3198  0.1222
56857W        W13098  18.471  33.106  25.090 -0.1372 -0.1796  0.0671
56858W        W13099   5.200   3.966  19.748 -0.3183 -0.1758  0.1532
56859W        W13100  20.378  31.442  15.788 -0.1348  0.2236 -0.1712
56860W        W13101   0.237  33.286  19.409 -0.1863  0.0215  0.0681
56861W        W13102  30.886   5.468  14.348  0.0582 -0.2216  0.2993
56862W        W13103   9.917   3.369   9.513 -0.0358 -0.2072  0.2042
56863W        W13104  12.517  23.739  11.675  0.0675 -0.0709 -0.0139
56864W        W13105  14.249  26.733  25.794  0.1725  0.4565 -0.0550
56865W        W13106  31.468  17.407  16.404  0.0657  0.0498 -0.3285
56866W        W13107  28.095  14.719  16.590 -0.1839  0.1534  0.1594
56867W        W13108  34.794  19.440  23.221 -0.2573 -0.1871 -0.1860
56868W        W13109  16.616  17.898  10.026  0.1383 -0.0158  0.1133
56869W        W13110   9.528  30.396   5.157 -0.2327  0.0347 -0.1773
56870W        W13111  28.504  11.080  21.980  0.4066  0.0932  0.2191
56871W        W13112  34.961  20.504  18.199 -0.1271  0.0253  0.2156
56872W        W13113  18.782   7.217  22.769  0.2322 -0.2567 -0.1744
56873W        W13114   2.925  32.851   3.946  0.1100  0.2510  0.2950
56874W        W13115  10.740   4.762  13.113  0.0684  0.1212  0.2302
56875W        W13116  33.969  30.622  21.780 -0.1046  0.1254  0.1235
56876W        W13117  11.216   7.459  24.253 -0.1094 -0.0456 -0.0898
56877W        W13118  20.676   5.871   8.960 -0.1320 -0.1559 -0.1923
56878W        W13119  25.901  18.427  15.510  0.0983 -0.4360  0.1724
56879W        W13120  25.960  23.026  14.295 -0.1749  0.1875 -0.0306
56880W        W13121  32.407  35.305   3.456  0.1823 -0.1303  0.0491
56881W        W13122   3.522   5.939   2.195  0.2135  0.1358  0.0242
56882W        W13123  20.839  26.462  19.685 -0.3847 -0.1663 -0.3030
56883W        W13124  20.439  25.739   2.552 -0.1301 -0.2102  0.0881
56884W        W13125  16.315  15.274  19.076 -0.3174 -0.0144  0.1583
56885W        W13126  13.245  26.184   6.952  0.0295  0.2470 -0.1779
56886W        W13127  24.493   0.267  17.155  0.2759 -0.1148 -0.2971
56887W        W13128  33.304   5.625  10.718  0.3322  0.0148 -0.2000
56888W        W13129  28.051  30.914  14.964  0.0147  0.4454 -0.5842
56889W        W13130   9.908  16.354  23.808  0.0331 -0.0500 -0.2691
56890W        W13131  16.161  22.130   9.722  0.0888  0.2684 -0.3081
56891W        W13132  11.836   9.129   9.205  0.0719  0.1832 -0.1255
56892W        W13133  23.023  15.262  13.833 -0.2014  0.0841 -0.1532
56893W        W13134  14.540   3.377   0.372  0.1151  0.1860 -0.1638
56894W        W13135  28.595   5.968  21.171 -0.3650  0.1220 -0.2793
56895W        W13136  21.270  26.016  19.531  0.0752  0.0264  0.0358
56896W        W13137  28.597   7.645  15.213  0.0975  0.2013  0.2649
56897W        W13138  33.494  12.431  10.927 -0.0740 -0.0304 -0.1114
56898W        W13139  28.430   6.970   1.324 -0.2886 -0.0146 -0.1353
56899W        W13140  16.769  11.425  25.339  0.0386  0.0585  0.0101
56900W        W13141  12.972  18.841   9.007 -0.0614 -0.0859  0.0626
56901W        W13142   3.287  27.041   3.102 -0.4880 -0.2158 -0.0989
56902W        W13143   5.758  21.907   4.986  0.3175 -0.0463 -0.0369
56903W        W13144  24.797  21.784  16.071  0.0245  0.2075 -0.1025
56904W        W13145  34.013  21.674  10.651 -0.1049  0.0639  0.0596
56905W        W13146   3.540   8.321  19.753  0.1681  0.2287 -0.1973
56906W        W13147  17.104   5.256   7.972  0.0635 -0.1105 -0.2009
56907W        W13148  20.993   6.846  18.186  0.1095  0.0640  0.1472
56908W        W13149  12.544  22.407   3.793  0.0077  0.0693 -0.0287
56909W        W13150   2.962   6.150   6.008 -0.1635 -0.2952  0.0407
56910W        W13151   8.384  13.052   7.997  0.3162 -0.2539  0.1684
56911W        W13152  24.234  17.784  22.147 -0.0782  0.0159 -0.3116
56912W        W13153  18.274  20.576   2.733  0.2278 -0.0513 -0.0558
56913W        W13154  21.121  33.183   3.072 -0.2226  0.3431 -0.0435
56914W        W13155  17.554   2.775  16.629 -0.1448 -0.0080  0.2061
56915W        W13156  28.431  13.698   0.590  0.2017  0.0123 -0.3576
56916W        W13157  35.181   5.273   1.898 -0.1777  0.2564  0.0384
56917W        W13158   6.374  12.702  11.452 -0.0446  0.1366 -0.1055
56918W        W13159  16.581   1.958   0.221  0.1050  0.1706  0.0404
56919W        W13160  31.966  26.463   8.435 -0.0383  0.4286  0.2854
56920W        W13161  32.388   4.168   4.921  0.0828 -0.0412  0.2773
56921W        W13162  24.629  33.716  17.120 -0.2101  0.0811  0.2330
56922W        W13163   6.063  31.810  12.177  0.0476  0.3982 -0.1527
56923W        W13164   0.610  27.667  20.126  0.1074 -0.0324  0.1407
56924W        W13165  19.452  24.136  25.811  0.0175 -0.4162  0.1793
56925W        W13166   4.321   6.504   2.592  0.0457 -0.2062 -0.1333
56926W        W13167  26.656  27.027  25.734  0.0315  0.1013 -0.1471
56927W        W13168  27.573  18.326  10.405 -0.0863  0.0969  0.0061
56928W        W13169   8.368  23.061   9.653  0.0294 -0.0378  0.1901
56929W        W13170  29.063  29.874  14.681 -0.1194  0.1288 -0.2158
56930W        W13171   1.237  12.625  25.181  0.2483 -0.0817 -0.0887
56931W        W13172  26.781   7.810  13.579 -0.3858 -0.0338 -0.0721
56932W        W13173   4.755   5.925   7.536 -0.0655  0.2133  0.0557
56933W        W13174  13.306  34.598  11.406 -0.1833  0.3763  0.2560
56934W        W13175   2.168  33.840   9.250 -0.2194  0.1840 -0.3262
56935W        W13176  10.161  12.438   6.555 -0.3302  0.0759  0.0586
56936W        W13177  23.865  17.131  25.701 -0.0409  0.3041 -0.2565
56937W        W13178  32.896   1.219   6.176  0.2104 -0.2157 -0.0373
56938W        W13179   1.251  11.937   1.770  0.1089 -0.0476 -0.0637
56939W        W13180  24.137  30.971   0.392 -0.1222  0.1654 -0.3056
56940W        W13181  17.379  14.850  22.489  0.2196 -0.2788 -0.3481
56941W        W13182  16.109   6.599  20.107 -0.0617  0.0895 -0.0552
56942W        W13183   6.216  33.503   3.862  0.2063 -0.0767 -0.1942
56943W        W13184  24.937  31.935  14.195  0.2997 -0.0948 -0.1276
56944W        W13185  18.102  30.504  22.741 -0.1042  0.0672  0.0809
56945W        W13186  12.034  28.108  15.320 -0.3484  0.2625  0.0779
56946W        W13187  12.696  21.710  11.802 -0.4621 -0.1854  0.0097
56947W        W13188  16.943   9.720   9.195 -0.0768 -0.0874  0.4434
56948W        W13189  24.379   1.773  18.045 -0.0998  0.1281  0.0411
56949W        W13190  26.996  19.688  24.808  0.0550  0.1369 -0.1488
56950W        W13191   9.159  32.333   2.684 -0.1080 -0.0102  0.0837
56951W        W13192   4.559  28.088  12.031  0.1218  0.0380  0.0344
56952W        W13193  30.006  13.460  18.689  0.0224  0.0408  0.1935
56953W        W13194  24.395  28.224   2.716 -0.2815 -0.1835 -0.2911
56954W        W13195   6.094  10.029  21.306 -0.1060  0.4882  0.0173
56955W        W13196  16.624  17.239   9.092  0.2331  0.2433  0.0131
56956W        W13197  33.254  11.833  14.233  0.0587  0.3146 -0.1970
56957W        W13198  20.963  28.931  17.496  0.3434  0.1323  0.2889
56958W        W13199  30.581  22.436   6.610  0.5282  0.3058  0.1289
56959W        W13200  31.531   6.370  10.147 -0.0678 -0.1668 -0.0317
56960W        W13201  10.313  31.479  25.829 -0.0286  0.2958  0.1114
56961W        W13202  34.582  17.004   6.826  0.0580 -0.0816 -0.3113
56962W        W13203  12.318  17.015  12.793 -0.2404  0.0453  0.1400
56963W        W13204  12.898   2.055   3.372 -0.5414 -0.0773  0.1415
56964W        W13205  32.724  29.939   2.485  0.1366 -0.1500 -0.1584
56965W        W13206  26.253  13.176  23.268  0.0844 -0.0445  0.0770
56966W        W13207  10.075  28.150   1.733 -0.0220 -0.1260  0.4802
56967W        W13208  25.950   4.540   5.736 -0.1775  0.1226 -0.0563
56968W        W13209  35.369  30.541   2.492 -0.1996  0.1942 -0.1104
56969W        W13210  13.942   0.742  18.848 -0.1105  0.4341  0.1403
56970W        W13211  32.816   3.916  26.181  0.0389  0.0658 -0.0471
56971W        W13212  28.011  14.831  17.563 -0.2516 -0.0381 -0.0883
56972W        W13213  13.781  35.069  21.066  0.0520 -0.1348 -0.4303
56973W        W13214  10.193  22.390  11.474 -0.0141  0.1551 -0.0792
56974W        W13215  32.375  21.437  18.854 -0.0581  0.1313 -0.4293
56975W        W13216  27.136  34.254  17.290  0.3446  0.2878  0.2281
56976W        W13217  28.227  34.136  21.218  0.1713 -0.1250 -0.2124
56977W        W13218   8.874  11.229   6.647 -0.0149  0.1278 -0.0467
56978W        W13219   4.806  10.495  25.445 -0.0636  0.0285  0.3610
56979W        W13220  18.167   1.194  20.698 -0.0475  0.0487 -0.3322
56980W        W13221   7.147  29.219   9.220 -0.3085  0.0037  0.2677
56981W        W13222  12.297  27.079  13.844  0.2214 -0.0529 -0.0027
56982W        W13223  13.445  14.800  21.120 -0.0025 -0.1978  0.1926
56983W        W13224   0.194  14.878   8.228 -0.0394  0.1733  0.2151
56984W        W13225  27.671  32.566   3.588  0.1444 -0.5163 -0.3790
56985W        W13226  20.482   1.351  21.568 -0.1593 -0.1502  0.0979
56986W        W13227  17.860  14.278   5.623 -0.0089 -0.1377  0.1806
56987W        W13228   6.077  29.192  23.004 -0.0203  0.1903  0.1574
56988W        W13229  31.560  16.597   9.940  0.2463 -0.1037 -0.2942
56989W        W13230  19.590   3.752  17.924 -0.0037 -0.0160  0.1705
56990W        W13231   9.190   8.097   7.681  0.0356  0.3780 -0.4491
56991W        W13232  13.132  31.140  10.249  0.3402  0.1449  0.0514
56992W        W13233  13.111  13.654   3.139 -0.0940 -0.1049  0.4793
56993W        W13234   7.045   9.671   6.873  0.0136  0.1258  0.0443
56994W        W13235   1.974   0.444   1.445 -0.0821 -0.1826 -0.0831
56995W        W13236  12.064   6.295  12.879 -0.2578 -0.3335 -0.0660
56996W        W13237  25.858   4.125  19.716 -0.1574 -0.2545  0.0424
56997W        W13238  32.166  16.413  14.319  0.0548  0.0294  0.0288
56998W        W13239  12.092  31.197   3.446  0.0641  0.4805 -0.0025
56999W        W13240  11.457  28.706   9.832 -0.0499  0.1773 -0.0600
57000W        W13241  33.277  21.990  19.833 -0.0887 -0.2312 -0.1589
57001W        W13242  27.350  30.463  17.434 -0.3721  0.1004  0.0769
57002W        W13243  17.124  30.435   1.532 -0.1283 -0.2649  0.1339
57003W        W13244  19.020  17.831  23.224 -0.0078 -0.1075  0.1033
57004W        W13245  14.113   4.610   3.833  0.1682  0.0877 -0.0244
57005W        W13246  23.962   0.202  22.622  0.0035 -0.2195 -0.1295
57006W        W13247  21.859  33.752  22.953 -0.1014 -0.1334 -0.0568
57007W        W13248  12.044   4.448  13.120 -0.2003 -0.1251  0.0627
57008W        W13249   9.842  11.471   8.439  0.0738 -0.4291 -0.1610
57009W        W13250   7.728  15.473   0.262 -0.1220  0.1711 -0.3354
57010W        W13251  21.697   0.910   6.461  0.1843 -0.0310 -0.1439
57011W        W13252  29.448  25.857  10.365  0.0821 -0.1426  0.0140
57012W        W13253  12.836   1.850  11.780  0.3571  0.0275  0.0829
57013W        W13254   6.254  32.057  25.813  0.3509  0.0905 -0.0852
57014W        W13255   7.413  12.591  25.457 -0.1142 -0.1260  0.1353
57015W        W13256   1.340  31.466   2.980  0.1238  0.1975  0.0597
57016W        W13257  30.988  21.371  13.443 -0.3361 -0.1783  0.0700
57017W        W13258   4.019   1.919   7.576 -0.1775  0.0392  0.2869
57018W        W13259  14.543  24.989  11.435 -0.1853  0.2207  0.0051
57019W        W13260  31.948  28.091  14.050  0.0834  0.2088 -0.0476
57020W        W13261  28.733  11.009  16.894 -0.0600  0.6021 -0.1395
57021W        W13262  26.457  12.894  15.638 -0.2947  0.2141 -0.1137
57022W        W13263   6.967  31.895   8.998 -0.1293 -0.2983  0.3135
57023W        W13264  20.387  27.403   0.349 -0.0455 -0.3146  0.0178
57024W        W13265   9.890  30.775  15.618  0.1572  0.0685 -0.2067
57025W        W13266   0.384  21.054  25.810  0.1248 -0.0292  0.0422
57026W        W13267  15.541   0.039   2.792 -0.0530 -0.1508 -0.3041
57027W        W13268  28.695  28.729   2.869 -0.1591 -0.4300  0.0651
57028W        W13269  33.989  21.456  18.480  0.1578  0.0969 -0.1765
57029W        W13270   3.331   9.468  24.079  0.0771 -0.1412 -0.3756
57030W        W13271   0.418  18.975  22.094 -0.2037 -0.1899 -0.0958
57031W        W13272   1.615  16.367   1.216  0.0274 -0.2403  0.0299
57032W        W13273   0.920   9.574  18.341  0.0524  0.0029  0.3106
57033W        W13274  11.662  14.076  10.457 -0.3161 -0.2092  0.1153
57034W        W13275  34.257  29.655  21.713  0.0984  0.0475 -0.1514
57035W        W13276   2.005  28.604   6.620 -0.0616  0.2129  0.0619
57036W        W13277  30.194   0.443  13.264  0.0609  0.3390  0.0399
57037W        W13278  35.298   3.838  25.271  0.1692  0.0913  0.4359
57038W        W13279   4.584  14.107   0.696  0.1696 -0.0233  0.0705
57039W        W13280  13.493  30.593   5.363  0.1085 -0.3055  0.0367
57040W        W13281  24.545  13.815   0.953 -0.1959 -0.2762  0.0314
57041W        W13282  14.822   8.718  25.563  0.0869  0.2192  0.3582
57042W        W13283  12.276   8.434   0.411  0.0403  0.1295  0.0483
57043W        W13284  22.901  32.423   2.729 -0.3486 -0.1058 -0.1270
57044W        W13285   7.545   4.776  13.186 -0.0933  0.2949  0.0684
57045W        W13286   1.318  32.400   4.595  0.0626 -0.0304  0.0782
57046W        W13287  20.215  23.701  23.807 -0.3367  0.1711  0.0385
57047W        W13288  31.568  11.840  19.998 -0.0692  0.2190  0.1199
57048W        W13289  25.343  35.373   6.445 -0.0650 -0.2602 -0.0229
57049W        W13290   4.587  27.980   7.928  0.3165 -0.2439  0.1053
57050W        W13291  25.332  30.880   2.194  0.1519 -0.1251 -0.2876
57051W        W13292  14.746  26.539   0.689 -0.2043  0.2243  0.3881
57052W        W13293   2.595  26.064   7.308  0.1564 -0.1144  0.1164
57053W        W13294  10.917   6.370   0.808 -0.0526 -0.1133 -0.1606
57054W        W13295   8.636   2.848  12.642  0.0947 -0.1037  0.0166
57055W        W13296   5.669   4.796   6.695  0.0350  0.0170 -0.2032
57056W        W13297  18.876  25.365  12.414  0.3902  0.0467 -0.1416
57057W        W13298  30.737  26.223  23.636  0.1958  0.1120 -0.5116
57058W        W13299  21.987   7.863  20.030  0.1106  0.4823 -0.3431
57059W        W13300   5.876   3.211   8.987 -0.0768  0.1892  0.1038
57060W        W13301  12.880   7.579   6.867 -0.1601  0.1851  0.0233
57061W        W13302  17.224  10.464   7.102  0.0288 -0.1537 -0.1389
57062W        W13303  28.364  25.800  20.750 -0.1130 -0.0027 -0.0194
57063W        W13304  19.949  20.311  21.100  0.0506  0.0370  0.4271
57064W        W13305  14.532   8.561  21.461 -0.2645 -0.1022  0.0384
57065W        W13306  31.441  30.739   4.463 -0.2847 -0.1935 -0.1908
57066W        W13307  26.496   9.251  20.882  0.1356 -0.2781 -0.1216
57067W        W13308  19.559  26.804  17.634 -0.0671 -0.0863 -0.1611
57068W        W13309   7.353  16.688   0.005  0.2519  0.2985 -0.1130
57069W        W13310   9.676   8.308   2.263 -0.1135 -0.0165 -0.0547
57070W        W13311   0.882   9.512  22.414 -0.3686 -0.0440 -0.1574
57071W        W13312   4.235  27.031  10.649 -0.1784  0.0229  0.0696
57072W        W13313  25.505  19.200  25.044  0.2626 -0.0047  0.0858
57073W        W13314  15.989   4.889   1.365 -0.0665  0.2257 -0.3533
57074W        W13315  26.948  22.939  11.930 -0.0232  0.1531 -0.0583
57075W        W13316  12.330   0.103  14.454 -0.1441 -0.0467  0.0322
57076W        W13317  16.848   9.616   6.761 -0.0730 -0.0282 -0.0405
57077W        W13318  18.739  34.436   2.543  0.3247  0.0793  0.0097
57078W        W13319  18.391  30.291   0.227 -0.2214  0.0534 -0.1920
57079W        W13320   1.224  21.559   1.239  0.0911  0.1242  0.1882
57080W        W13321  29.072  31.129  23.684 -0.1237 -0.5140 -0.1862
57081W        W13322  23.563  30.574  17.046  0.0852  0.2237  0.0467
57082W        W13323  16.635  25.862  26.065  0.0539 -0.1111 -0.0481
57083W        W13324  17.075  18.569   0.648 -0.2222  0.1872  0.0119
57084W        W13325  28.393   7.936  17.795  0.4297 -0.2452  0.0754
57085W        W13326  26.117  15.983  17.714 -0.0339 -0.0066  0.1554
57086W        W13327   1.988   0.131   6.578 -0.0372  0.2384 -0.2731
57087W        W13328   4.892  13.724   2.590  0.0651  0.3126  0.1623
57088W        W13329  32.758  23.118  17.730  0.2266 -0.0583 -0.0334
57089W        W13330   6.460  35.034   7.643 -0.0818  0.0251 -0.2372
57090W        W13331   8.505  19.485  13.893 -0.0934  0.1177 -0.1152
57091W        W13332  31.752   9.249  15.218 -0.0858 -0.1811 -0.1249
57092W        W13333  26.777   4.775  22.241 -0.1147 -0.1399  0.1489
57093W        W13334  21.750   0.409   1.882  0.1448 -0.1412  0.2307
57094W        W13335  10.901  22.935  11.243  0.1803  0.0507 -0.2126
57095W        W13336   6.171  19.226   2.950 -0.2325 -0.2957 -0.6543
57096W        W13337  18.693   5.511  19.959 -0.1730  0.0311 -0.2362
57097W        W13338  16.953  14.003  18.877  0.0831 -0.0387 -0.0519
57098W        W13339  30.021   7.407  22.288 -0.0556 -0.0893  0.1578
57099W        W13340  21.188  20.329  21.996 -0.1926  0.4749 -0.0275
57100W        W13341   4.844  24.154  20.743  0.0235 -0.1227 -0.2858
57101W        W13342  21.815   3.179  25.342  0.1685  0.1146  0.3019
57102W        W13343   3.152   7.211  25.140 -0.0299  0.1022  0.4750
57103W        W13344  32.250  33.111   3.563 -0.0067 -0.0625 -0.0189
57104W        W13345   4.891  18.299   5.608  0.0991 -0.1256 -0.0804
57105W        W13346  11.023  16.622  14.044  0.0449 -0.0902  0.0397
57106W        W13347  11.508  19.217   4.709  0.1620  0.0544  0.1483
57107W        W13348  10.438   7.242   6.882 -0.0201  0.0759 -0.2467
57108W        W13349  27.803  14.132   9.784 -0.2034 -0.2254  0.3781
57109W        W13350  32.861  15.892  19.668  0.2262 -0.0370 -0.0747
57110W        W13351   3.876  23.252  24.796 -0.1921  0.0988  0.3043
57111W        W13352  22.982  19.101  14.770 -0.1665  0.0082 -0.0498
57112W        W13353  33.233  16.618  21.799  0.1496  0.0422 -0.0377
57113W        W13354   4.150  29.624   6.445 -0.1884  0.1195 -0.1134
57114W        W13355  32.862  21.093  10.983  0.0886 -0.0289  0.3515
57115W        W13356  26.540   7.514   1.818 -0.0904  0.0164 -0.4005
57116W        W13357   8.916  29.509  10.525  0.0208 -0.0831 -0.0391
57117W        W13358  31.207  15.851   5.354 -0.0322 -0.1114  0.1557
57118W        W13359  25.982  13.838  24.365  0.1771 -0.0229  0.0247
57119W        W13360  13.862   1.673  11.106 -0.1948  0.3033 -0.1242
57120W        W13361  29.415  33.695  11.805 -0.1095  0.0729 -0.2225
57121W        W13362  22.286  31.482  14.477  0.0704 -0.5424 -0.0253
57122W        W13363  35.275  31.590   1.383 -0.1809  0.5440 -0.0005
57123W        W13364  26.936  26.780  12.054 -0.1090 -0.2051  0.0391
57124W        W13365   7.513  27.965   7.459  0.1547  0.0929 -0.1566
57125W        W13366  29.076  22.874  25.299 -0.0677  0.0249 -0.0704
57126W        W13367  13.439  29.092   7.609  0.0680  0.1621 -0.1711
57127W        W13368  16.573  20.550  23.048  0.1667 -0.0687  0.0890
57128W        W13369  32.469  29.201  25.082  0.0871 -0.3778  0.0258
57129W        W13370  35.040   7.496  13.230 -0.4300  0.3672  0.0423
57130W        W13371   8.540   1.495  22.545 -0.0518  0.2178  0.0242
57131W        W13372   0.263   2.893  15.419 -0.1061  0.2839 -0.2538
57132W        W13373   2.137  20.937  16.584  0.0983 -0.1279  0.1516
57133W        W13374  33.424  25.600  23.101  0.1935  0.0479 -0.1682
57134W        W13375   9.942  30.708   8.024 -0.1924 -0.0009  0.0498
57135W        W13376  31.003  20.708  15.937 -0.2620  0.1447  0.2305
57136W        W13377  27.792  28.927  13.257  0.1145  0.0132  0.2293
57137W        W13378  30.469  13.420  10.498 -0.0167  0.0706  0.0837
57138W        W13379   0.476   1.424  23.533 -0.0522  0.3292 -0.1209
57139W        W13380  29.302  16.761   5.897  0.1752 -0.1947 -0.0796
57140W        W13381   2.260  34.340   7.559  0.0376 -0.0815  0.1781
57141W        W13382  18.566  10.772  23.682  0.0624 -0.2621  0.1041
57142W        W13383  29.139  30.079  23.549 -0.0190  0.0798  0.4151
57143W        W13384  20.762  34.993  21.739 -0.0569  0.0539  0.1640
57144W        W13385  18.289  32.572   8.662  0.2449 -0.1511 -0.0498
57145W        W13386   9.785  25.804   3.518  0.0508 -0.0250 -0.1945
57146W        W13387  29.239  28.165  10.928  0.0776  0.4564  0.3464
57147W        W13388   7.593  16.044   3.615 -0.1343 -0.0136 -0.3405
57148W        W13389   1.802   6.189  17.060  0.0877 -0.0836  0.0984
57149W        W13390  15.489   7.264  26.095  0.0027 -0.1480 -0.2987
57150W        W13391  11.345   3.897  12.345  0.0928  0.0049 -0.2539
57151W        W13392  31.906  26.621  17.288  0.4035 -0.0349 -0.0852
57152W        W13393  21.593  18.430  19.888 -0.1588 -0.1239 -0.0036
57153W        W13394  21.342  21.109   5.896  0.1634 -0.0140  0.0767
57154W        W13395  31.650  30.506   1.168 -0.0375  0.4622 -0.1344
57155W        W13396  32.713  19.878  13.455  0.1601  0.1024  0.0130
57156W        W13397  16.340   4.263   8.920 -0.1154 -0.0890 -0.0427
57157W        W13398  22.120  11.144  24.026  0.1307 -0.0770 -0.3246
57158W        W13399  19.053   9.017  23.556  0.0670 -0.2473 -0.2235
57159W        W13400   2.805  10.216   6.438 -0.1884  0.2312 -0.2720
57160W        W13401  18.591  29.991  25.660 -0.0293 -0.0246  0.0428
57161W        W13402   7.825   7.511  20.583 -0.1059  0.2011  0.1920
57162W        W13403   7.730  28.305   4.725  0.3094  0.0523 -0.1799
57163W        W13404  30.182  16.066  21.280  0.2756  0.1228  0.0205
57164W        W13405  20.493   4.679  24.077 -0.1801  0.0723  0.0848
57165W        W13406  25.020  34.817  20.028  0.1224 -0.1254 -0.0741
57166W        W13407   1.168  18.625  15.032 -0.5004 -0.1500 -0.2280
57167W        W13408  32.403   0.504  16.823  0.0266 -0.1920 -0.0386
57168W        W13409  33.871  12.545  15.232  0.4101 -0.1170  0.0730
57169W        W13410  34.276  27.344   0.085  0.2657  0.0264 -0.1972
57170W        W13411  33.021  20.507  13.767 -0.2328 -0.2121  0.3967
57171W        W13412   0.173  20.261  25.541 -0.0531  0.2900 -0.0365
57172W        W13413   0.007  29.991   2.544  0.1109  0.3669 -0.2223
57173W        W13414   7.638  31.060   5.663  0.1197  0.0486 -0.3064
57174W        W13415   8.287   5.543   2.864 -0.2351 -0.2950 -0.0749
57175W        W13416  30.110  24.603  16.407  0.2402 -0.2594  0.2200
57176W        W13417  23.359   9.647  14.026 -0.0899 -0.2488  0.3062
57177W        W13418   1.824  30.313   9.878 -0.1329 -0.1372 -0.1649
57178W        W13419   5.968  29.978  24.565 -0.1686  0.1242  0.2179
57179W        W13420  22.326  19.052  22.888  0.0010 -0.1058  0.1582
57180W        W13421   2.690  29.501  20.055  0.0576 -0.0118 -0.1869
57181W        W13422  20.795  28.509  17.725 -0.1155  0.2543 -0.2757
57182W        W13423  20.920  13.766  22.895 -0.2169  0.0054 -0.3702
57183W        W13424  15.204  33.895  21.429  0.5140 -0.1615  0.0759
57184W        W13425  18.878   1.342   7.977 -0.3784  0.3256  0.0973
57185W        W13426  34.233  13.568  24.335 -0.1091 -0.1874 -0.0314
57186W        W13427  34.711  13.466  17.137 -0.2048 -0.0598  0.1284
57187W        W13428  18.393  15.522  18.101 -0.0566  0.1499  0.3128
57188W        W13429   2.391  15.853  24.811  0.1329 -0.0216 -0.0664
57189W        W13430  14.304  33.902  20.373 -0.1323  0.1327  0.0650
57190W        W13431  27.084  13.187  22.680 -0.0739  0.2096  0.3090
57191W        W13432   5.099   2.819  25.531  0.0091  0.1334 -0.1001
57192W        W13433  26.242  25.050  12.696  0.0217 -0.5123 -0.4930
57193W        W13434   4.604  31.889  22.937  0.1263  0.1549 -0.1435
57194W        W13435   5.676  27.509   7.943 -0.4185 -0.2765 -0.0339
57195W        W13436   4.904   3.212  23.049  0.0802 -0.1303 -0.3446
57196W        W13437  10.137  20.798   9.735  0.1430 -0.0153 -0.0228
57197W        W13438  13.656   6.235  10.733 -0.2499  0.0760  0.2538
57198W        W13439   8.519  35.285  13.722  0.0501 -0.1325  0.1109
57199W        W13440  28.217   3.332   1.151  0.1798  0.1138  0.4371
57200W        W13441  11.267  31.109   4.718  0.1985  0.4335  0.0393
57201W        W13442  26.684   0.863   3.162  0.2055  0.1666  0.0732
57202W        W13443   5.959  33.678  23.699  0.0201 -0.2599 -0.0687
57203W        W13444  28.896   4.127   3.889  0.2298  0.0152 -0.0515
57204W        W13445  27.944  12.076  18.486  0.0033  0.1971  0.1538
57205W        W13446   8.813   1.439  10.340 -0.0115  0.3543  0.1344
57206W        W13447  29.154  16.480  25.167 -0.2707 -0.0189  0.0859
57207W        W13448   0.554  24.883  23.707 -0.1931 -0.0726 -0.1632
57208W        W13449  30.776   6.255  24.167  0.0808 -0.2290  0.0335
57209W        W13450   3.683   6.113   3.768 -0.0043 -0.2998 -0.0278
57210W        W13451  23.593  29.300  12.832  0.0079  0.1308 -0.1396
57211W        W13452  32.228  28.609  12.021  0.0505  0.2133  0.4179
57212W        W13453  17.789   4.369   3.475  0.0475 -0.0678 -0.2684
57213W        W13454  29.741  15.187  11.124 -0.3295 -0.1555  0.0141
57214W        W13455  18.195   2.074   5.216 -0.3459 -0.0645  0.1052
57215W        W13456  29.383  22.817   6.303 -0.3175 -0.1486 -0.1119
57216W        W13457  10.983   1.654  14.121 -0.0838  0.0793 -0.0379
57217W        W13458   4.430   9.405  15.334 -0.0417  0.0887 -0.0737
57218W        W13459   8.582  28.045   1.837 -0.4118 -0.1991 -0.1283
57219W        W13460  12.955  31.336  13.216 -0.2693  0.0646 -0.0050
57220W        W13461  32.511  22.185  15.428 -0.1260 -0.0865 -0.1970
57221W        W13462  17.894  16.211  22.551  0.1421 -0.2829 -0.1581
57222W        W13463  16.400  30.381   8.719  0.0191 -0.2180 -0.0761
57223W        W13464  12.518  22.853  11.916  0.1194  0.1470  0.0988
57224W        W13465  34.700  15.014  13.439 -0.1657 -0.1100  0.0870
57225W        W13466  31.087  16.448  21.243  0.1767 -0.2026 -0.0668
57226W        W13467  16.471  22.089   7.843  0.0589  0.1410 -0.2339
57227W        W13468   4.529   1.656  10.781  0.2878 -0.0104 -0.2771
57228W        W13469   3.883  18.604  17.614  0.1450 -0.1321 -0.3803
57229W        W13470  22.679   9.228  15.354  0.4749 -0.0266 -0.0880
57230W        W13471  27.832  17.469   6.068 -0.1628 -0.0642  0.0272
57231W        W13472  11.774  20.336  10.275  0.2430  0.7372  0.2050
57232W        W13473  18.485  17.651  21.646  0.2930 -0.1222  0.2674
57233W        W13474  27.318  14.712  14.680  0.3483  0.0423  0.2004
57234W        W13475  26.598  19.064  14.641  0.3017  0.0450  0.4489
57235W        W13476  28.085  22.118  16.519  0.2872  0.0506  0.2868
57236W        W13477  11.662   3.742  13.660  0.0211 -0.1819 -0.1393
57237W        W13478  30.171   0.004  14.181 -0.1438  0.1684 -0.2867
57238W        W13479  34.375  29.174   0.383  0.0656 -0.2553  0.3277
57239W        W13480  13.575  28.160   6.842 -0.0460 -0.1020 -0.0767
57240W        W13481   8.257  26.085  16.240 -0.1429 -0.1952  0.0283
57241W        W13482  14.261  19.287   2.908 -0.1652  0.3118  0.0801
57242W        W13483  11.631  16.608   6.968  0.2594 -0.2217  0.1440
57243W        W13484  33.312  16.586  14.925  0.2979  0.0875 -0.2135
57244W        W13485  24.768  19.116  19.476 -0.0630  0.0377 -0.0294
57245W        W13486  24.789   6.979   2.951  0.0196  0.1424 -0.2585
57246W        W13487  31.441   7.655  15.947  0.1471  0.0111  0.1935
57247W        W13488  34.562  32.717  17.984  0.0081  0.2635  0.2307
57248W        W13489  26.407   3.201  17.951 -0.1034  0.0461 -0.0726
57249W        W13490  19.497   6.225   0.894  0.2551 -0.0298  0.2123
57250W        W13491  31.444  26.982  17.243 -0.0543 -0.1306 -0.0733
57251W        W13492   6.155   3.277  22.399 -0.0108 -0.0275 -0.2244
57252W        W13493  18.082  31.101   7.602  0.0761  0.3325 -0.1678
57253W        W13494  14.829  32.892   3.553 -0.2216  0.0683 -0.1328
57254W        W13495   5.835  32.149  13.641  0.1565  0.2699  0.1349
57255W        W13496   7.321  31.636  23.506 -0.0547  0.1456  0.1955
57256W        W13497  34.332   7.652   0.101 -0.0453 -0.2759  0.2685
57257W        W13498  11.191  32.825   3.726  0.1403 -0.1200 -0.1665
57258W        W13499  34.297  13.924  15.046 -0.1126  0.1211  0.0456
57259W        W13500  19.028  11.751  23.419 -0.0022 -0.3528 -0.1446
57260W        W13501  28.094  30.281  21.561 -0.1984 -0.3314  0.1684
57261W        W13502   9.551  31.125   1.574  0.0682 -0.0322  0.1979
57262W        W13503  32.534  21.044  26.205  0.0556  0.1992  0.1593
57263W        W13504   2.648  23.910  19.420  0.2584 -0.1041 -0.0180
57264W        W13505  27.083  16.254   9.390 -0.0316  0.3436 -0.3562
57265W        W13506  29.506  25.337  10.278 -0.0480 -0.0485  0.2511
57266W        W13507   2.651  30.846  24.457  0.4467 -0.0632 -0.4657
57267W        W13508  15.258   0.530   7.023 -0.1125 -0.1448 -0.2427
57268W        W13509   2.447   2.463  16.706  0.3076 -0.0224  0.0549
57269W        W13510  16.729   6.903   1.166  0.1417  0.1070  0.1577
57270W        W13511  30.109   8.476   1.254 -0.0200  0.1358  0.2732
57271W        W13512  12.422  14.182   2.661  0.2875  0.0011  0.1303
57272W        W13513   1.456  15.417  22.320  0.0483 -0.1737  0.0269
57273W        W13514  27.995  13.405  25.011 -0.1349  0.0208  0.1666
57274W        W13515  17.074  23.580  21.568 -0.0310 -0.1715  0.1209
57275W        W13516  28.354  32.420  20.321 -0.2583 -0.0317 -0.0817
57276W        W13517  12.002  18.392  12.574  0.1900 -0.1388 -0.2318
57277W        W13518  24.328  15.256  24.404 -0.0967 -0.1580 -0.2128
57278W        W13519  24.815  10.643  17.747  0.1286  0.1876 -0.2254
57279W        W13520  10.000  30.146  23.195  0.2794  0.1638  0.1729
57280W        W13521   5.474  24.512   7.606 -0.3200 -0.0774 -0.1173
57281W        W13522  26.127  10.511  16.509 -0.0180 -0.1092  0.2122
57282W        W13523  29.049   7.971   0.935 -0.2157 -0.1704  0.1456
57283W        W13524  24.287   8.734  18.124 -0.2831 -0.0035  0.1055
57284W        W13525  28.115   2.199  11.199  0.4974 -0.0354  0.1040
57285W        W13526  28.008  29.647   0.967  0.1880 -0.0278  0.1907
57286W        W13527  10.785  34.710   0.102 -0.1311 -0.2082  0.0747
57287W        W13528  28.215   0.636  17.043  0.0667 -0.2199 -0.0811
57288W        W13529   1.337  14.410  15.517  0.3142  0.1299 -0.1492
57289W        W13530  10.664   6.400  21.793  0.1672 -0.1671 -0.2259
57290W        W13531  18.628  29.249   8.948  0.2499  0.1134  0.2469
57291W        W13532  34.346  18.001   0.846  0.3393 -0.2554  0.2179
57292W        W13533  24.168  25.708  17.273  0.3255 -0.1788 -0.2396
57293W        W13534  18.131  31.135  17.806 -0.2850 -0.1696  0.1512
57294W        W13535  14.071  25.236  16.131  0.5431 -0.0739  0.2112
57295W        W13536  25.815   6.420  21.489 -0.5528  0.2164 -0.1317
57296W        W13537   6.075  27.122  22.100 -0.3200  0.0059 -0.3280
57297W        W13538  26.886   1.531  15.885 -0.1233  0.0019  0.5971
57298W        W13539  33.541   5.219  17.249  0.1395 -0.0158  0.3181
57299W        W13540  33.990  33.776   3.184 -0.1592  0.1937  0.4101
57300W        W13541  24.124  10.766  22.564  0.2315  0.0336  0.1107
57301W        W13542  19.813   8.659   2.185  0.2062  0.2129  0.4078
57302W        W13543   0.352  33.014   3.568 -0.0105 -0.2964  0.2991
57303W        W13544  29.392  30.979  25.337 -0.2198 -0.4063  0.1197
57304W        W13545   0.428   4.881  24.856 -0.0093 -0.1504  0.0315
57305W        W13546  20.147  12.615   6.603 -0.0926 -0.2632 -0.1069
57306W        W13547   9.292  33.882  14.506  0.0137  0.0415  0.1548
57307W        W13548  22.787  30.248  21.343 -0.2682  0.0709  0.2799
57308W        W13549   2.707  13.407  22.371  0.3706  0.0728 -0.0365
57309W        W13550   1.176  24.942  19.368 -0.2446 -0.2727 -0.1175
57310W        W13551  25.789  33.570  23.756 -0.0458  0.1858 -0.2231
57311W        W13552  12.933  16.663   9.147  0.1726 -0.2170 -0.3057
57312W        W13553  25.546  34.990  16.068 -0.1576 -0.1824 -0.0494
57313W        W13554  14.732  23.398  10.670  0.1050  0.1394 -0.0169
57314W        W13555  26.360   4.229  18.849  0.3071  0.1435 -0.2022
57315W        W13556  22.635  20.937  16.128  0.2850  0.1653  0.0910
57316W        W13557  33.355   7.307   4.150 -0.0261 -0.1177  0.3548
57317W        W13558   7.426   4.279   3.225  0.1479  0.2628  0.1088
57318W        W13559  21.576   6.898   4.729  0.2068 -0.1837  0.1802
57319W        W13560   4.153   4.288  23.677  0.5419 -0.2005  0.0871
57320W        W13561  19.007  20.262  18.889  0.2067  0.3917 -0.0802
57321W        W13562  31.444  19.520  12.643 -0.1918  0.0328 -0.2034
57322W        W13563  15.108   2.792   7.732  0.2156  0.1058  0.2273
57323W        W13564   8.036  13.303   3.307  0.0781 -0.0276  0.1764
57324W        W13565  32.464   5.657  14.684  0.3201  0.0320 -0.1762
57325W        W13566  13.765   0.086   8.305 -0.0880 -0.0717 -0.0064
57326W        W13567  19.828  10.057  24.436  0.2762  0.0015 -0.2695
57327W        W13568  25.016   0.576  14.914 -0.1847 -0.1149  0.1284
57328W        W13569  30.395  29.173   3.001 -0.1582 -0.2966  0.0127
57329W        W13570  35.277  11.287   1.244  0.0094  0.0148 -0.2137
57330W        W13571   0.512   2.735   2.142  0.0050  0.0069  0.0235
57331W        W13572  11.762  15.874   0.117  0.0534 -0.1811 -0.1173
57332W        W13573  35.010  17.569  21.310 -0.4169  0.1200  0.1568
57333W        W13574  34.619  27.076  14.155  0.0644 -0.5156 -0.0615
57334W        W13575  30.241  17.566   9.618 -0.3169 -0.4987 -0.1518
57335W        W13576  12.321   9.747  11.850  0.0064 -0.0623 -0.1246
57336W        W13577  22.495  28.211   4.108 -0.1490 -0.2314 -0.3850
57337W        W13578   9.637   9.270  22.544  0.1143 -0.2661  0.1044
57338W        W13579  17.078  15.785  19.219 -0.1683  0.0231 -0.0175
57339W        W13580  20.943   3.368  18.301 -0.1350  0.1413  0.5127
57340W        W13581  16.513   8.496  25.697 -0.2712 -0.1273  0.3331
57341W        W13582  10.015  34.449  22.287 -0.0766 -0.1908  0.0857
57342W        W13583  13.298  24.474   3.151  0.1285  0.2521 -0.1343
57343W        W13584  13.907  15.010   5.924  0.1897 -0.1437 -0.2113
57344W        W13585  27.957  31.032  19.647 -0.0899  0.1293  0.0231
57345W        W13586   8.792  19.781  15.262  0.0802 -0.0603 -0.0103
57346W        W13587  27.575  33.241  21.810 -0.3196  0.1633  0.2562
57347W        W13588  11.948  20.414  26.136  0.0423  0.0732  0.1061
57348W        W13589  29.253  15.307   9.067 -0.2043  0.0391 -0.2686
57349W        W13590   6.540  15.815  26.049 -0.3154  0.4780 -0.4414
57350W        W13591  33.716  24.052  12.008 -0.0286 -0.3025 -0.0791
57351W        W13592  27.530   5.839  19.263 -0.0145  0.1881 -0.1128
57352W        W13593   6.165   5.187  24.652  0.1118 -0.1501  0.1364
57353W        W13594  30.913   5.927  25.257  0.2037  0.3727  0.0868
57354W        W13595  27.183  23.723   7.848 -0.2599  0.1271 -0.0416
57355W        W13596  28.985  18.504  21.025 -0.0476 -0.0720  0.0194
57356W        W13597   1.703  24.866  20.606 -0.0678 -0.0330 -0.0783
57357W        W13598   9.915  21.554  10.089 -0.0806  0.5712 -0.3327
57358W        W13599  31.129  33.660   6.420 -0.0624 -0.2001  0.0851
57359W        W13600  13.434   6.509  14.206 -0.3522 -0.3109 -0.0642
57360W        W13601  16.631  29.391   9.991 -0.2885 -0.1110  0.0333
57361W        W13602  22.021  22.725   1.573 -0.1331  0.2289 -0.1362
57362W        W13603  35.020   1.045   2.848  0.0486  0.3338 -0.2125
57363W        W13604  20.754   1.782  17.193 -0.1667 -0.0889  0.0361
57364W        W13605  16.873  35.049   0.507  0.0153  0.1487  0.2501
57365W        W13606  32.262  32.603   3.784 -0.0561 -0.0359  0.1238
57366W        W13607  11.647  11.309  14.534 -0.3873  0.2035 -0.1579
57367W        W13608  32.081  17.142  22.524 -0.2292  0.1578  0.1010
57368W        W13609  30.801  27.397   1.104  0.0476 -0.0932 -0.0823
57369W        W13610   5.461  33.740  23.328  0.2050 -0.2480  0.1204
57370W        W13611   0.071  34.022   1.444 -0.0946 -0.1222 -0.3597
57371W        W13612   0.971  15.504   0.025 -0.2353 -0.1392 -0.0584
57372W        W13613  20.405  15.342  18.738 -0.2883 -0.0176  0.1199
57373W        W13614  30.795  27.780  17.143  0.1045 -0.1032  0.1920
57374W        W13615  28.320  13.237  21.218 -0.0144  0.1445 -0.1452
57375W        W13616  30.704   7.539  11.444  0.0333 -0.2058 -0.0360
57376W        W13617  30.899  33.345  24.668 -0.1280 -0.0349  0.3557
57377W        W13618  25.703  17.037  20.182 -0.0701 -0.0921 -0.4223
57378W        W13619  30.469   5.249  17.588 -0.2417 -0.0728  0.1863
57379W        W13620   4.969  15.505   4.070 -0.0942 -0.0935  0.0564
57380W        W13621   8.267  18.894  12.489  0.2005 -0.1312  0.1408
57381W        W13622  18.063  19.103  13.624 -0.1897  0.0975 -0.0663
57382W        W13623  34.254  32.039   3.667  0.2884  0.2616 -0.0104
57383W        W13624  34.767  27.153   0.096  0.1888 -0.1183 -0.0608
57384W        W13625   5.206   9.846   2.595  0.1055  0.3922  0.2906
57385W        W13626  24.472  19.628  15.369  0.1140  0.0315 -0.1464
57386W        W13627   9.103  12.240  11.649 -0.0863  0.3702  0.2774
57387W        W13628   1.202  13.524  12.202 -0.2994 -0.2539 -0.1895
57388W        W13629  33.350   4.460   4.245 -0.1041  0.0198 -0.0445
57389W        W13630  30.754  25.036  18.695 -0.0672 -0.3045 -0.0404
57390W        W13631  13.049  30.001   8.901  0.0738  0.2712 -0.2752
57391W        W13632  11.825  22.013  12.933 -0.2399  0.0666 -0.1687
57392W        W13633  25.521  10.147  19.902  0.1107  0.0629 -0.2555
57393W        W13634  16.956  29.282  26.024  0.2882 -0.0631 -0.1238
57394W        W13635   7.523  17.404   2.640 -0.1757  0.0765 -0.1319
57395W        W13636  24.170  23.484  14.971  0.1649  0.2881  0.0063
57396W        W13637   9.879  10.617   0.836  0.2421  0.0094 -0.1722
57397W        W13638   0.399   1.170  15.079  0.0534  0.1487  0.0180
57398W        W13639  22.889   6.577  22.644  0.0625  0.0005  0.0366
57399W        W13640  12.144  18.578  10.693  0.2601  0.0005  0.0918
57400W        W13641   0.788  11.705   1.889 -0.0114  0.1424 -0.1879
57401W        W13642  11.240  11.027  12.489 -0.2049  0.0163  0.1510
57402W        W13643  31.548  21.172  11.471  0.0479 -0.0068  0.1194
57403W        W13644   2.090  13.764  13.903 -0.1301  0.1498 -0.0974
57404W        W13645  32.027  23.012  15.600  0.2475  0.1808 -0.1055
57405W        W13646  27.264   0.326  23.412 -0.1737 -0.0547 -0.1708
57406W        W13647   2.394  11.830  14.801  0.0128 -0.0447  0.3981
57407W        W13648  34.093  18.160   8.674 -0.1786  0.3767  0.1312
57408W        W13649  16.419  13.840   4.803 -0.1204 -0.1085  0.2888
57409W        W13650  14.562  18.720  21.161  0.1473  0.1713  0.0320
57410W        W13651  12.811  23.198  17.189 -0.0256 -0.0255 -0.0244
57411W        W13652  10.316   1.559  10.304 -0.0571 -0.0620  0.3094
57412W        W13653  21.773  28.571  14.969 -0.1101  0.0907  0.1053
57413W        W13654   4.472  16.304  18.657 -0.0901 -0.0352  0.0510
57414W        W13655   8.063  15.774   3.888  0.0480  0.1769 -0.2769
57415W        W13656  15.142  35.326   3.590  0.0207  0.1328 -0.2204
57416W        W13657  25.796  21.471  15.034  0.0785  0.0722 -0.0102
57417W        W13658  11.969  29.855  14.376  0.2448 -0.1342  0.1621
57418W        W13659   5.983   0.821  20.835 -0.1832 -0.2640 -0.2911
57419W        W13660  32.614  23.095  10.964 -0.1849 -0.1350  0.1576
57420W        W13661  18.517   1.880  16.588  0.0522 -0.0119  0.1585
57421W        W13662  25.141  26.967  25.290 -0.1243  0.2235 -0.0676
57422W        W13663   5.416  28.220   2.957 -0.1441 -0.0650  0.0013
57423W        W13664   8.758  33.980  24.667 -0.2446 -0.0595  0.2670
57424W        W13665  29.931   0.178  17.845  0.0356 -0.1113  0.2285
57425W        W13666   8.312  30.448   8.008  0.5223 -0.1016  0.3445
57426W        W13667  32.351  34.888  14.904  0.2753 -0.1304  0.0459
57427W        W13668   4.897  12.602   3.307  0.2415  0.1010 -0.1003
57428W        W13669   8.790  23.115   1.579  0.1248  0.0289 -0.1301
57429W        W13670  21.857  18.633  24.011  0.1294  0.2501 -0.0161
57430W        W13671  13.825   7.533   2.095 -0.0327  0.0537  0.1130
57431W        W13672  23.716  24.760  13.079  0.0199 -0.1056  0.1091
57432W        W13673  26.672  17.041   4.686  0.1543  0.0550  0.0343
57433W        W13674  32.119   7.889  21.859  0.0590 -0.1450  0.1772
57434W        W13675   4.532  24.568  23.043  0.1660  0.1281  0.1385
57435W        W13676  13.907   6.100   9.384 -0.0957  0.2529  0.0336
57436W        W13677  33.436  16.158  16.576 -0.6327 -0.1117 -0.0584
57437W        W13678  24.645  32.499   0.169 -0.3536 -0.1548 -0.0932
57438W        W13679   7.226  15.747  25.146 -0.2011 -0.0201  0.0026
57439W        W13680  33.179   6.339  16.428 -0.0169 -0.2407  0.0464
57440W        W13681  17.881  17.473   1.379 -0.1157 -0.0429 -0.0768
57441W        W13682   5.357  10.041   3.558 -0.0192 -0.2208  0.0068
57442W        W13683   9.932  15.184   9.545  0.0964 -0.0253  0.0585
57443W        W13684  12.009  28.664   2.167  0.1807  0.0882  0.0196
57444W        W13685  11.678  29.742   4.983  0.0023  0.3239 -0.0576
57445W        W13686   7.436   3.772   7.510  0.2801  0.0322  0.0231
57446W        W13687  25.118  25.490  11.325  0.3472  0.2319 -0.0047
57447W        W13688   3.448  19.243   0.519  0.2589 -0.2627 -0.2712
57448W        W13689  19.956  11.525   3.499 -0.1858 -0.0613 -0.1888
57449W        W13690  13.081  10.902   0.218 -0.0227 -0.0600 -0.0523
57450W        W13691  17.725  23.406   1.588  0.1962  0.0022 -0.1690
57451W        W13692  30.699  11.422  25.050 -0.2820 -0.5277 -0.0229
57452W        W13693   6.740  31.240   1.386 -0.0843  0.4248 -0.1029
57453W        W13694   2.829  11.215  19.041 -0.0162 -0.6225  0.0408
57454W        W13695   6.436  32.320  26.223 -0.1496  0.3198 -0.0887
57455W        W13696   8.692  33.740  10.701 -0.1234 -0.1615 -0.1537
57456W        W13697  28.002  16.795  21.375 -0.5373  0.2564  0.2198
57457W        W13698  35.042   6.533  14.747  0.3452  0.0389  0.2700
57458W        W13699  27.802  23.318  13.508 -0.0724  0.0718  0.2147
57459W        W13700  35.095  24.834  19.103 -0.0878 -0.0729  0.0026
57460W        W13701  12.248   2.053  19.168  0.0766  0.2188 -0.0926
57461W        W13702  29.916  28.809  12.617  0.0978 -0.1106 -0.0718
57462W        W13703  26.907  34.876  16.502 -0.1867  0.0641 -0.0857
57463W        W13704  34.887  34.580  18.939  0.1533  0.1279 -0.4331
57464W        W13705  24.520   6.234   5.372  0.1830 -0.2507 -0.0099
57465W        W13706  22.993  13.660   1.840  0.0816  0.3130  0.0995
57466W        W13707  26.392  20.730  21.626  0.3445 -0.1478  0.0541
57467W        W13708  34.860  33.311  24.978  0.0153 -0.3226  0.3399
57468W        W13709  23.686  13.763   0.496 -0.0201  0.1344 -0.0578
57469W        W13710  11.665  24.616   5.021  0.1832 -0.3888 -0.1672
57470W        W13711  32.255  14.211  10.769  0.1704  0.1128 -0.1919
57471W        W13712  13.007  23.331   6.536 -0.3966 -0.3080  0.1030
57472W        W13713  33.310  21.448  21.092 -0.0736  0.0950  0.0055
57473W        W13714  18.279  32.626  18.698  0.0474 -0.0717  0.1028
57474W        W13715  10.458  17.015  23.788 -0.1203  0.4792 -0.2244
57475W        W13716  26.040  32.406  20.089 -0.2293 -0.1313  0.1184
57476W        W13717  13.034   4.311   5.446 -0.2005 -0.2607  0.0812
57477W        W13718  29.626  17.714  21.323  0.2358  0.1435 -0.0592
57478W        W13719  30.248  31.498  16.324  0.2166 -0.0119  0.1563
57479W        W13720  17.815  30.470   0.240  0.1839 -0.2092 -0.3060
57480W        W13721  11.148   2.560   4.690  0.0373  0.5291 -0.7597
57481W        W13722  34.732  30.516   5.332 -0.2903  0.1901  0.0609
57482W        W13723  30.162   1.695  21.793 -0.1275  0.0603  0.4738
57483W        W13724  10.989  31.228   1.201  0.0818  0.2445 -0.0896
57484W        W13725  14.977  28.219   4.630  0.0447  0.2825 -0.2105
57485W        W13726  29.559   2.156  25.516 -0.1858  0.1383  0.1854
57486W        W13727  22.068  22.360   1.948 -0.2553  0.4239 -0.1218
57487W        W13728  28.802  23.581  15.723  0.0913  0.0996 -0.0373
57488W        W13729  34.097  17.904  14.313 -0.0894 -0.0090  0.2744
57489W        W13730  33.446   4.833  19.415  0.0755  0.0437 -0.2333
57490W        W13731  19.841   7.571   7.754  0.0525  0.0082  0.0916
57491W        W13732  23.231  23.680  16.370  0.3111 -0.2367  0.1090
57492W        W13733   2.098  15.556  21.000  0.1193 -0.1928  0.2402
57493W        W13734   4.829  13.236  15.630  0.1245 -0.1040 -0.1605
57494W        W13735  17.343  18.718   9.109 -0.0269 -0.0981 -0.2014
57495W        W13736   5.563  12.235   2.406 -0.0857  0.3098  0.2740
57496W        W13737  28.486   0.193  17.155 -0.0015  0.2152  0.1902
57497W        W13738  20.532   7.452  18.523 -0.0298 -0.1585  0.2513
57498W        W13739  27.646  34.899  12.610 -0.0364 -0.0880  0.3026
57499W        W13740   1.998  18.898  14.042 -0.0058  0.0682  0.2322
57500W        W13741  26.506   6.216  19.344 -0.0814  0.0324  0.2864
57501W        W13742  31.267  10.987  19.227 -0.3637 -0.0443  0.0025
57502W        W13743  14.835   8.271  25.303 -0.2419 -0.2129  0.0976
57503W        W13744   7.735   1.139  21.341 -0.0176 -0.3227 -0.4879
57504W        W13745  26.628  12.136  11.760 -0.0012  0.1447 -0.0695
57505W        W13746  29.684   5.240   0.595  0.0149 -0.0841  0.3950
57506W        W13747   0.204  19.074  23.631  0.1870 -0.0847  0.0246
57507W        W13748  34.558  34.435  17.952 -0.2920 -0.0693  0.1376
57508W        W13749  19.892  12.321  26.148  0.1992  0.0146 -0.0491
57509W        W13750  27.183   0.753  14.773 -0.2089 -0.1323  0.0161
57510W        W13751   7.767  15.802  26.009 -0.0314 -0.2512 -0.1998
57511W        W13752  17.906  16.928   3.957  0.2431  0.0361 -0.0978
57512W        W13753  33.478  21.005   7.296  0.2600  0.2789  0.0988
57513W        W13754   7.733  31.150  21.559 -0.2444  0.2534 -0.0292
57514W        W13755  27.075   3.963  14.513 -0.0172 -0.1147 -0.0212
57515W        W13756  29.105  30.965  22.442  0.2972 -0.0508  0.2409
57516W        W13757   0.198   2.434  14.657 -0.2308 -0.0878 -0.0032
57517W        W13758  15.983  11.521   7.821 -0.0406  0.1056  0.0334
57518W        W13759   1.984   7.371  19.111 -0.2103 -0.3440  0.0441
57519W        W13760  25.295  14.260   9.166 -0.0193 -0.1588  0.0017
57520W        W13761  24.495   3.422   2.400 -0.0227 -0.0736 -0.1077
57521W        W13762  27.633  22.297  24.673 -0.1949  0.1334  0.2385
57522W        W13763  34.605   1.705  22.153 -0.0062 -0.0874  0.1972
57523W        W13764  16.947   1.955   4.527 -0.1687 -0.1595  0.2024
57524W        W13765  21.395  34.789  24.609  0.3164 -0.0715 -0.1689
57525W        W13766   0.365  29.519   4.175 -0.1081  0.0141 -0.0152
57526W        W13767  10.057  32.896  13.104  0.1911  0.3529  0.0635
57527W        W13768  12.055  34.821  13.927  0.3069 -0.2390 -0.0506
57528W        W13769   9.301  35.310   0.574 -0.0024  0.0803  0.0446
57529W        W13770  12.047   6.350  20.086  0.0145 -0.1057 -0.0571
57530W        W13771  15.756  18.372   7.410 -0.0999  0.0656 -0.1624
57531W        W13772  24.329   1.080  22.624 -0.0059  0.0900 -0.1523
57532W        W13773   9.601   6.517  25.215 -0.4128  0.0137 -0.4030
57533W        W13774  18.188  12.278   7.585  0.0065  0.1600 -0.2856
57534W        W13775  20.655  16.481  25.049 -0.0846  0.1505 -0.1641
57535W        W13776   9.029   6.567   7.520 -0.0609 -0.2056  0.0019
57536W        W13777  18.671  14.800  24.029  0.0787  0.1120  0.0669
57537W        W13778  22.758  24.586  25.919  0.0313 -0.2192 -0.1677
57538W        W13779  16.795  25.030   0.678  0.0455 -0.0052 -0.2007
57539W        W13780   4.469  24.010  25.214  0.1223  0.0486 -0.0998
57540W        W13781  26.302   9.357  25.192  0.1312  0.0663  0.0219
57541W        W13782  29.534   4.342  24.684  0.0775  0.1168 -0.1564
57542W        W13783  28.058   6.267  19.442 -0.8623 -0.3248  0.1912
57543W        W13784  10.567  20.344   3.461  0.1920 -0.0376 -0.4157
57544W        W13785  28.459  15.850  15.821 -0.1847  0.0722 -0.0951
57545W        W13786  34.346   5.131  20.730  0.1447  0.0510  0.0373
57546W        W13787  18.060  27.337  20.801  0.0835  0.2043 -0.1908
57547W        W13788  19.520   0.905   7.941  0.1533  0.0314  0.2721
57548W        W13789  14.707  26.101   8.160  0.2071  0.0074 -0.1088
57549W        W13790   6.010  31.372  13.344  0.3606 -0.1245 -0.0343
57550W        W13791  22.822  24.442   0.992 -0.2725 -0.1279 -0.0395
57551W        W13792  15.896  13.953  10.952  0.2001 -0.0486  0.1508
57552W        W13793  10.788  23.192  12.352 -0.2537 -0.2745 -0.5152
57553W        W13794  29.419  23.617  25.077  0.2056  0.2379  0.1575
57554W        W13795  31.143   5.931   2.719 -0.1679  0.1620  0.1144
57555W        W13796  24.667   6.440  18.015  0.1822  0.0386 -0.2720
57556W        W13797  27.525  19.382   7.122 -0.0651 -0.0617 -0.2956
57557W        W13798   2.878  13.622  18.613 -0.0340 -0.1331 -0.0809
57558W        W13799   1.432   3.796  18.337 -0.2972 -0.0834 -0.1046
57559W        W13800  14.991  27.344  15.193 -0.0174  0.2582 -0.0777
57560W        W13801  16.985  34.401   7.775 -0.1455  0.2307 -0.2090
57561W        W13802  16.126   4.075   0.574  0.3464 -0.1390 -0.3065
57562W        W13803  34.475   0.105   6.719 -0.2457  0.1872  0.1208
57563W        W13804  28.398  16.618  16.707 -0.2486  0.1802  0.0601
57564W        W13805  27.658  28.358   2.407  0.0261 -0.2236  0.0478
57565W        W13806  25.548  14.409  12.135  0.0306 -0.2634  0.0673
57566W        W13807  13.990  21.747   9.990 -0.0297 -0.0663  0.1820
57567W        W13808  27.205  15.059   7.991  0.4037 -0.2253  0.4669
57568W        W13809   2.115  16.153  23.034  0.0125 -0.4244 -0.0705
57569W        W13810  32.357  27.626  25.425 -0.0133 -0.0681  0.0832
57570W        W13811  28.460  23.676   0.656  0.2321 -0.1832  0.1354
57571W        W13812  25.249  16.080   9.867 -0.2189  0.1796  0.1737
57572W        W13813  30.147   9.367   0.049  0.0271 -0.4280 -0.0577
57573W        W13814  26.805  22.986  10.410  0.4993  0.2805 -0.0426
57574W        W13815  31.016  29.778  20.333  0.0600 -0.1286 -0.1146
57575W        W13816  24.013  26.266  15.037  0.1759  0.2384  0.1984
57576W        W13817  16.943  28.342   1.186 -0.0233 -0.1719  0.0164
57577W        W13818   6.720  30.896   7.931  0.1332 -0.1907  0.2015
57578W        W13819   4.877  34.384   8.093  0.2090  0.2095  0.0369
57579W        W13820  24.685  23.677  16.454 -0.0876  0.1013  0.2277
57580W        W13821  27.734  11.408   0.759  0.0727 -0.2433  0.1367
57581W        W13822  12.127   2.246   2.165  0.0439  0.1275  0.2562
57582W        W13823  19.065   7.805  11.527 -0.1344  0.0787  0.0625
57583W        W13824   4.795   8.040  19.277 -0.1177  0.0156 -0.1274
57584W        W13825   0.217   2.772  25.070 -0.0024 -0.1443  0.1727
57585W        W13826  27.001   2.306   6.545  0.1527  0.2535 -0.0759
57586W        W13827  24.882  22.401  18.520  0.0425 -0.3421 -0.1322
57587W        W13828  12.991  20.201  15.123  0.0674  0.2753  0.1498
57588W        W13829  26.866  20.943   6.690 -0.2142 -0.0147  0.0497
57589W        W13830  29.532  13.235  19.929 -0.0811 -0.0070  0.0291
57590W        W13831  33.129  29.405  19.131 -0.1974  0.2584 -0.0982
57591W        W13832   0.309   7.399  20.522  0.0794  0.1604  0.0404
57592W        W13833  28.061   5.115  22.768 -0.0104  0.1109  0.0932
57593W        W13834  22.376  24.040   0.204  0.4357 -0.2341  0.1041
57594W        W13835   6.342  10.268  25.853 -0.0204 -0.0510  0.2801
57595W        W13836   7.284  18.104   3.560  0.1615 -0.1664  0.0500
57596W        W13837  23.178  24.856  15.619  0.0453 -0.0748  0.2657
57597W        W13838  12.181  34.324  10.513 -0.0135 -0.2062  0.1056
57598W        W13839  13.618  28.383   8.623  0.2455 -0.0284  0.0068
57599W        W13840   9.356   1.071   4.814  0.3998  0.2331 -0.0745
57600W        W13841   8.153   6.621  24.690 -0.1426 -0.2237  0.2955
57601W        W13842  35.231  21.870  18.343 -0.0788 -0.3231  0.1121
57602W        W13843   2.912   3.398   3.343  0.0074  0.1235  0.1458
57603W        W13844  18.866  30.908  21.862 -0.2114 -0.1450 -0.1007
57604W        W13845   2.835  11.163  14.073  0.0860 -0.1787  0.2030
57605W        W13846   0.150   2.496  22.080 -0.2788  0.1369  0.0703
57606W        W13847  31.594  30.206  18.837 -0.3218 -0.2305  0.0544
57607W        W13848   7.540  16.752   9.899 -0.0106  0.0070  0.0334
57608W        W13849   7.218  28.382   7.609  0.2068  0.2359 -0.1033
57609W        W13850  20.934   9.297  23.382 -0.3766  0.0583  0.1617
57610W        W13851  14.073   2.733   4.679 -0.1740  0.0051  0.1252
57611W        W13852  30.436   3.244  22.312 -0.0328  0.1193 -0.0191
57612W        W13853  12.363  14.575   0.080  0.1171 -0.0121 -0.0214
57613W        W13854  11.048  33.780   7.927 -0.0612 -0.0162 -0.0394
57614W        W13855  11.458  21.382  16.811 -0.0399  0.0672 -0.5028
57615W        W13856  15.999  17.320  25.685 -0.3448 -0.3285  0.0718
57616W        W13857   3.612  27.098   0.200  0.1586  0.2339 -0.1294
57617W        W13858  27.188  29.031  18.311 -0.0945  0.1910 -0.1028
57618W        W13859  10.260   0.677  22.517  0.1041  0.0738  0.2729
57619W        W13860   6.238   7.689   3.577  0.1621 -0.1220 -0.3069
57620W        W13861   7.215  25.278  11.409  0.1231  0.4226 -0.1095
57621W        W13862  21.807   4.137  21.834 -0.0193  0.2438 -0.0183
57622W        W13863   8.456  26.507   5.425 -0.0273 -0.1886  0.0907
57623W        W13864  27.985   5.510  24.435  0.0082 -0.0065 -0.2450
57624W        W13865  32.334  23.922  20.986  0.2621  0.1668 -0.2247
57625W        W13866  27.108   8.723   1.137  0.1059 -0.1700  0.0310
57626W        W13867  23.416   8.300  19.561 -0.3367 -0.2981 -0.0718
57627W        W13868  35.074  30.409  17.894 -0.0211  0.2893  0.1046
57628W        W13869  32.177   3.053  25.486 -0.2236 -0.0833 -0.1639
57629W        W13870   5.407  10.402  22.413  0.2629 -0.3165 -0.3290
57630W        W13871  27.554  25.801   0.615  0.0151 -0.0792  0.0555
57631W        W13872  30.246  26.504  15.449 -0.2342  0.3155 -0.0013
57632W        W13873  14.488  12.123   6.642  0.3318  0.0542 -0.0420
57633W        W13874  13.551  27.920  12.694 -0.0516 -0.2632 -0.1362
57634W        W13875  27.128  17.354  24.632  0.3153 -0.1174 -0.2674
57635W        W13876  34.485  27.113  18.187  0.0479  0.0209  0.2268
57636W        W13877   4.004  24.847   1.420  0.1570 -0.0524 -0.0042
57637W        W13878  25.095  28.670   2.316  0.0758  0.2246 -0.2380
57638W        W13879  24.384   0.724  22.168  0.1473  0.2490  0.3701
57639W        W13880  16.051  25.514   4.023 -0.2819  0.0460 -0.0115
57640W        W13881  32.405  33.621   1.809  0.0686  0.0287  0.0109
57641W        W13882  26.187   7.226   0.274  0.1422  0.3764  0.2121
57642W        W13883   1.199  12.228  22.412 -0.2445  0.0023  0.0473
57643W        W13884   2.464   0.218   7.968 -0.4959 -0.0799  0.1846
57644W        W13885  27.357  12.412  16.991 -0.2366  0.2647  0.2926
57645W        W13886  33.671   3.543   2.557  0.2073  0.1312  0.3443
57646W        W13887  13.595   9.995   6.982 -0.0519 -0.0279  0.2035
57647W        W13888   4.855  10.779   2.216  0.1397  0.0755  0.1944
57648W        W13889  29.971  11.450  22.946  0.1239  0.0723  0.1231
57649W        W13890  21.653  30.458  21.850  0.2629 -0.2853  0.1447
57650W        W13891  26.223  24.273  15.944 -0.0352  0.2667 -0.2441
57651W        W13892   4.975  31.683  12.649 -0.0265  0.1815 -0.3083
57652W        W13893  19.338  33.364   0.994 -0.2168  0.1234  0.2136
57653W        W13894  22.527  30.224  24.101  0.2358 -0.0457 -0.1761
57654W        W13895  17.564   4.522   7.416  0.0519  0.3486  0.3763
57655W        W13896  24.074  26.299  23.154  0.4782 -0.0841 -0.0711
57656W        W13897  32.490   7.376  18.474 -0.1548  0.0259  0.0266
57657W        W13898  19.398  11.998   1.031  0.0422  0.0348 -0.0887
57658W        W13899  17.515  28.846  20.961  0.1548 -0.0861  0.1277
57659W        W13900   2.154   0.236   2.767 -0.0252 -0.1073 -0.2559
57660W        W13901  25.836  24.482   1.387 -0.0698 -0.0553 -0.3066
57661W        W13902   9.811  30.159  14.870  0.0215  0.2107  0.0898
57662W        W13903  32.570  12.752  16.599 -0.3454  0.0483 -0.3592
57663W        W13904  28.344  26.089  19.151 -0.0186  0.2619 -0.0148
57664W        W13905  16.535  20.897   9.822  0.1187 -0.0377  0.0287
57665W        W13906  18.888  10.644   2.844  0.3614  0.1205 -0.1486
57666W        W13907  10.229  26.743  12.082 -0.0498 -0.0539  0.1090
57667W        W13908   2.782  26.231  18.629  0.0121 -0.1215  0.0280
57668W        W13909  26.364  23.914  14.850 -0.3205 -0.0835  0.0502
57669W        W13910  31.259  13.732  18.472  0.0869 -0.3925 -0.1247
57670W        W13911  24.117  22.879  16.323  0.0666 -0.1766 -0.1252
57671W        W13912  10.686  31.512  24.764 -0.1315  0.0104 -0.1107
57672W        W13913  24.214  26.107  11.508 -0.0302 -0.2889  0.2580
57673W        W13914   7.713  34.366   1.938 -0.3044 -0.0466  0.0643
57674W        W13915  20.098   6.133  11.064  0.1036 -0.2218  0.1242
57675W        W13916  24.040  16.633  19.664  0.1668 -0.1199 -0.1618
57676W        W13917  16.538  21.997   9.977  0.2241  0.0876  0.0953
57677W        W13918   4.314   1.071   7.844 -0.0306 -0.2291 -0.0146
57678W        W13919   8.286  29.067  23.474  0.0999 -0.1609  0.0835
57679W        W13920   5.273  33.176  20.682  0.0282 -0.0426 -0.2206
57680W        W13921   3.494  11.616  25.766 -0.0388  0.1713 -0.0661
57681W        W13922  13.293  25.646  15.302 -0.0959  0.0024 -0.2679
57682W        W13923   9.468  28.061   6.395  0.3037  0.1474 -0.0267
57683W        W13924  10.915   1.987   3.004  0.3144  0.1208 -0.1206
57684W        W13925  17.813   1.579  26.227 -0.0383 -0.1512 -0.1062
57685W        W13926  27.682  10.474  10.229 -0.0229  0.1561  0.2193
57686W        W13927  24.720   0.392  22.285 -0.2053  0.2678  0.3549
57687W        W13928  34.382  19.964   8.925 -0.2058 -0.0092 -0.0000
57688W        W13929  13.599  22.026  10.018 -0.0312  0.0716 -0.3053
57689W        W13930  31.721  31.331  20.213 -0.2299  0.0837  0.2495
57690W        W13931  10.449   8.136   6.790  0.0624  0.1975 -0.1823
57691W        W13932   2.392  15.229  21.273 -0.0502  0.2192 -0.0115
57692W        W13933  26.187  24.383  22.693 -0.0289 -0.0466 -0.1724
57693W        W13934  15.116  25.593  24.000 -0.0523 -0.1402  0.0364
57694W        W13935  30.095  13.798  15.787 -0.2914 -0.3230 -0.2033
57695W        W13936   3.229   3.184  23.463  0.0263 -0.0690 -0.2581
57696W        W13937  21.105   7.409   3.928 -0.1224 -0.1490 -0.1005
57697W        W13938  26.936   0.383  20.656 -0.0172  0.1260 -0.0387
57698W        W13939  26.895  19.167  17.392 -0.2092  0.3240 -0.0114
57699W        W13940  24.539  23.905  12.858 -0.1026  0.0181  0.1798
57700W        W13941  32.346  30.216  18.446  0.1302 -0.1753 -0.1685
57701W        W13942  28.951  18.358  17.924  0.3469  0.0678 -0.1496
57702W        W13943  22.239   4.098   6.981 -0.2259  0.2247  0.0365
57703W        W13944   8.386  18.363  24.889  0.1100 -0.1273 -0.1609
57704W        W13945   8.054   4.202  26.235  0.2454 -0.2229  0.0921
57705W        W13946  33.919  23.828  15.031 -0.3359 -0.3434  0.0591
57706W        W13947   8.385  32.947  22.882  0.0805 -0.1309  0.2434
57707W        W13948   6.064  16.350   1.213  0.2853  0.1914 -0.1411
57708W        W13949  20.488  22.167   2.374 -0.0089  0.0065 -0.0518
57709W        W13950  12.268   7.755  24.407  0.1120 -0.0531 -0.1730
57710W        W13951  22.436   1.773   0.353 -0.0024 -0.1750 -0.0347
57711W        W13952  10.029  13.635  19.101 -0.1108 -0.2756  0.3411
57712W        W13953   9.787  22.040   9.626  0.0794 -0.1113  0.0622
57713W        W13954  33.027  15.901  11.758 -0.0962 -0.2179 -0.0666
57714W        W13955  17.864  10.198  20.603  0.0368 -0.0878  0.2297
57715W        W13956  28.764  23.211   6.274 -0.0780  0.2458 -0.0470
57716W        W13957   1.537  22.977  19.782 -0.3286  0.2620 -0.0843
57717W        W13958  26.435  20.041  25.520 -0.2187 -0.1017  0.1768
57718W        W13959   2.935   5.192  15.927 -0.0963  0.0219  0.1071
57719W        W13960  29.389  17.295  25.688 -0.1628  0.0445  0.1429
57720W        W13961  19.428  10.616   0.002  0.2132  0.3135 -0.0269
57721W        W13962  14.311  11.494   9.074 -0.0406  0.3708 -0.0428
57722W        W13963  27.488   0.422   1.318 -0.0095 -0.4136 -0.4986
57723W        W13964   9.244  12.452  20.039 -0.0795  0.2969 -0.0135
57724W        W13965  33.942   7.001  23.606  0.0052  0.0268 -0.0326
57725W        W13966  25.962  20.634  10.743  0.3747  0.3335  0.4134
57726W        W13967  34.713  34.176   3.404  0.2304  0.1495  0.1525
57727W        W13968  28.422  12.863  10.331 -0.1058  0.1599  0.0479
57728W        W13969   4.284  33.202   6.386 -0.0853  0.1107  0.1075
57729W        W13970  26.893   5.804  14.208 -0.1095 -0.1178  0.0453
57730W        W13971  31.164  19.846  23.719 -0.1901 -0.0903  0.3346
57731W        W13972   9.677   8.806  11.649  0.1116  0.0455  0.3673
57732W        W13973  19.742  34.779   5.200  0.1154 -0.2216 -0.0820
57733W        W13974   4.745  34.133   5.053  0.0967 -0.1266  0.4227
57734W        W13975  32.128  21.348  25.437  0.3932  0.3430 -0.2273
57735W        W13976   9.297   2.821   2.972  0.0102 -0.0701  0.1032
57736W        W13977  25.207   0.850  20.152  0.0076  0.0664 -0.3379
57737W        W13978  27.756   7.925  10.443 -0.0643  0.0226  0.0954
57738W        W13979  27.667  12.060  21.441 -0.3351  0.2678 -0.3525
57739W        W13980   4.441  31.708  11.732  0.0372 -0.0872  0.1552
57740W        W13981  10.242  32.919   5.455  0.1579 -0.2747 -0.1551
57741W        W13982   8.954  13.205   7.608 -0.3471 -0.0811  0.1896
57742W        W13983  12.990  22.437  15.928  0.1079 -0.0928 -0.2114
57743W        W13984  11.605  25.401  13.943  0.2661  0.1856  0.0415
57744W        W13985  28.565  32.171  21.277 -0.3763  0.2478 -0.0418
57745W        W13986  17.583  18.599   2.100  0.1082  0.2098 -0.0803
57746W        W13987  26.540   6.477  11.306 -0.2771  0.0219  0.1255
57747W        W13988  24.573  17.663  14.793  0.0794 -0.2082 -0.1351
57748W        W13989  30.635  14.352  18.642 -0.1831  0.0264  0.0195
57749W        W13990  17.556   0.970   2.508 -0.4266  0.0546 -0.1840
57750W        W13991  15.456  26.410   9.990  0.0867  0.0960  0.1670
57751W        W13992  27.623  32.036  24.771 -0.1233  0.2325 -0.3252
57752W        W13993   4.641  16.286   4.913  0.2166 -0.1278  0.1535
57753W        W13994   9.788  25.395   8.770  0.1094  0.0382  0.1164
57754W        W13995   1.401  12.262  23.646  0.5969 -0.0902 -0.1465
57755W        W13996  34.301  19.163  11.313 -0.0104 -0.0232 -0.3713
57756W        W13997  12.230   0.604  22.179  0.2110  0.0655 -0.1222
57757W        W13998   4.863   5.161  21.752  0.2902 -0.1041 -0.0877
57758W        W13999  26.064  24.187  14.522 -0.2956 -0.1849  0.3194
57759W        W14000  25.485   4.507  22.249 -0.5048  0.2121 -0.0610
57760W        W14001  26.161  17.877  10.935  0.2085 -0.2139 -0.2658
57761W        W14002  18.051  16.186  11.117  0.0028 -0.0337 -0.0720
57762W        W14003  27.469  29.682  24.582  0.1230  0.2280  0.0191
57763W        W14004  28.232   2.590  15.835 -0.0691 -0.2396 -0.0051
57764W        W14005  15.525  22.089   7.983  0.1693 -0.1412  0.1450
57765W        W14006   0.870  17.535  17.748  0.3845 -0.1771  0.2473
57766W        W14007  23.745   5.460   4.046  0.1209 -0.0100  0.3956
57767W        W14008   7.118  32.650  14.567 -0.0004  0.1296  0.3151
57768W        W14009  12.896  12.562  25.537 -0.1396  0.0332 -0.0550
57769W        W14010   8.297   5.472  23.670 -0.2159  0.0339  0.0208
57770W        W14011  31.329   6.849  19.562  0.0077  0.0934  0.0360
57771W        W14012  25.830  29.366  18.516  0.1559 -0.1542  0.0676
57772W        W14013  14.040  23.671   4.910 -0.1096 -0.1425  0.0340
57773W        W14014  23.609   1.054  23.232  0.0580 -0.3069  0.1086
57774W        W14015  29.712  24.465  17.282  0.2822 -0.0449  0.0684
57775W        W14016   5.075  27.785   8.593  0.0213 -0.0055 -0.0913
57776W        W14017  30.856   6.955   2.600  0.2077 -0.0224  0.1193
57777W        W14018  21.989  13.672   0.309 -0.3560  0.1107  0.3398
57778W        W14019  13.005  24.658   6.113 -0.0286  0.1526  0.0716
57779W        W14020   5.440  17.850   4.593  0.0139 -0.1595 -0.1627
57780W        W14021  22.043   3.178   2.152  0.0046  0.1581  0.2311
57781W        W14022  30.083  34.008  20.886 -0.3348 -0.0711  0.1226
57782W        W14023  26.364  28.215  11.776 -0.1433 -0.0441  0.0292
57783W        W14024  13.828  33.643  20.401 -0.0691 -0.4393 -0.3127
57784W        W14025  19.379  16.377   4.521 -0.0656 -0.2717  0.3531
57785W        W14026  19.521  17.038  23.371 -0.0978 -0.1529 -0.0524
57786W        W14027  16.953  34.873  21.911  0.2035 -0.0436 -0.2190
57787W        W14028  28.352  15.319  23.938  0.0740  0.2617 -0.2426
57788W        W14029   1.566   1.781  25.545 -0.0488  0.0747  0.3104
57789W        W14030   6.693  29.988   8.454  0.1605  0.1514  0.2622
57790W        W14031  31.698   7.196  25.510 -0.2478 -0.0227 -0.0824
57791W        W14032   3.936   9.924  15.402  0.2182 -0.3123  0.0039
57792W        W14033   6.307  16.095   4.041 -0.0203  0.1657  0.1378
57793W        W14034  11.064  26.188  12.333 -0.0462 -0.2211 -0.2423
57794W        W14035  14.205   8.684  11.496 -0.1318  0.3109  0.0371
57795W        W14036  27.230  21.704   8.565  0.2163 -0.0234 -0.3100
57796W        W14037   7.558  24.912  24.498  0.1062  0.0601 -0.2072
57797W        W14038  31.021   2.692  16.536  0.0602 -0.2249  0.1197
57798W        W14039   3.304  25.714   5.352 -0.0206 -0.2099  0.3014
57799W        W14040   6.496  26.999   0.798  0.1504  0.1506 -0.0312
57800W        W14041  18.544   9.154  25.993  0.0988 -0.2777 -0.4082
57801W        W14042  18.568  20.696   0.855  0.0003  0.0731  0.0117
57802W        W14043  20.824  14.091  19.767  0.0022 -0.4580 -0.0010
57803W        W14044  32.827  21.111   8.356 -0.0052 -0.0287  0.0204
57804W        W14045  31.597  31.016  14.953 -0.1223 -0.0846 -0.1070
57805W        W14046  11.403  10.882   9.839 -0.3406 -0.3765 -0.1451
57806W        W14047  11.584   1.485  22.092  0.0584 -0.0357 -0.0481
57807W        W14048  33.622  11.460  14.065 -0.1503  0.0605  0.3292
57808W        W14049  21.420  23.524   1.418  0.2308 -0.0366  0.0765
57809W        W14050  26.423  17.405  10.008  0.2340  0.1528  0.2989
57810W        W14051  19.360  31.912  20.527 -0.0953 -0.0906 -0.0313
57811W        W14052  14.547  20.864  11.108  0.1815 -0.4798 -0.0858
57812W        W14053  26.841  29.588   1.660  0.2855  0.1048  0.0542
57813W        W14054  16.109  34.745   4.070  0.1516 -0.0360  0.0808
57814W        W14055  24.684  21.741  25.730 -0.1377 -0.0575 -0.0344
57815W        W14056  30.400  22.762  16.631  0.0104 -0.3670  0.1222
57816W        W14057   8.597  11.176   3.437 -0.0526 -0.0042  0.0776
57817W        W14058  20.003  19.518  25.850  0.4626 -0.2518  0.0862
57818W        W14059  32.401  22.996  26.163 -0.1195 -0.0124 -0.0890
57819W        W14060  32.227   4.759  13.594  0.1690  0.0003 -0.1482
57820W        W14061  22.192   6.259  17.228 -0.0393  0.1148 -0.0905
57821W        W14062  33.399  23.365  15.158 -0.0326  0.1039  0.4205
57822W        W14063  34.015   5.222  17.396 -0.1068  0.1231 -0.0259
57823W        W14064  31.477  33.308   6.260 -0.0600 -0.0196 -0.0464
57824W        W14065  17.407  34.727  17.032 -0.1056  0.0401  0.0009
57825W        W14066  27.685  25.073   0.399 -0.0029  0.0568 -0.1254
57826W        W14067  17.088  32.203  21.582 -0.0115 -0.1257  0.1946
57827W        W14068  33.247  26.918  24.294  0.2907  0.1777 -0.1736
57828W        W14069   8.082  12.485  23.281  0.0040  0.0423  0.1596
57829W        W14070  10.292   5.007  23.720 -0.1243  0.1729 -0.1647
57830W        W14071  19.746  11.756   6.561  0.2351 -0.1953  0.0658
57831W        W14072   9.695   3.487  10.721  0.4001 -0.0598  0.0020
57832W        W14073  18.918  20.528  26.083 -0.2308  0.1488 -0.3517
57833W        W14074  25.542  25.793  20.383 -0.0164  0.3207 -0.0971
57834W        W14075   5.130  14.879  20.123  0.3161 -0.0377  0.0754
57835W        W14076  31.911  13.247  22.378 -0.1573  0.2616  0.0517
57836W        W14077  19.952  32.631  20.377  0.0859  0.2712 -0.0737
57837W        W14078  26.276  14.307  25.168  0.0055  0.0233  0.2916
57838W        W14079   1.149  29.391  18.830  0.2163  0.2768 -0.1800
57839W        W14080  30.778  13.589  17.124  0.1400 -0.0781  0.1057
57840W        W14081  23.253  10.973   4.309 -0.0144 -0.0010  0.0702
57841W        W14082   7.616  16.274  12.093 -0.0888 -0.2527  0.4372
57842W        W14083  20.003   9.128   1.272 -0.2171 -0.0488 -0.1163
57843W        W14084   0.286   1.939   2.327  0.0012  0.1212  0.1334
57844W        W14085  18.485  22.701   5.075  0.1175  0.1304  0.0171
57845W        W14086  29.134  28.174  25.161  0.1313  0.0655  0.0750
57846W        W14087  32.579  22.074  20.280  0.2035  0.1563  0.0394
57847W        W14088  21.455  21.489  25.583 -0.2781  0.0166  0.1244
57848W        W14089   0.366  16.254  16.087  0.2378  0.0103 -0.3020
57849W        W14090  22.972   3.687  23.317  0.0722  0.2190  0.0239
57850W        W14091   6.371   3.958  10.155 -0.0518  0.2469  0.2036
57851W        W14092  25.149  33.357   0.220  0.1238 -0.2458  0.0239
57852W        W14093  17.690   7.992  21.309 -0.3434  0.2660 -0.0883
57853W        W14094  29.922  11.701  12.914  0.0129 -0.1413  0.1852
57854W        W14095  12.810   4.467   0.654 -0.0558  0.1651  0.1003
57855W        W14096  22.842  22.799  22.258 -0.0594  0.1558  0.2564
57856W        W14097  29.997  28.301  18.849  0.0254 -0.1894 -0.1607
57857W        W14098   0.651  20.053  22.062  0.0473 -0.2898  0.3976
57858W        W14099   7.930  24.240   2.380 -0.0817  0.0706  0.1143
57859W        W14100  29.297   2.234  10.711  0.0997 -0.0064  0.1493
57860W        W14101   2.081  14.219  20.493  0.2943  0.0816 -0.1494
57861W        W14102   8.551  11.551  25.265 -0.1559  0.2808  0.0519
57862W        W14103  33.129  29.029  20.647 -0.2258  0.3723  0.2560
57863W        W14104   5.138  24.432   2.602  0.0078 -0.0759 -0.1263
57864W        W14105  16.565  10.961   0.693  0.0575  0.1197 -0.0055
57865W        W14106   6.135  21.265   2.994 -0.1204 -0.0438 -0.0299
57866W        W14107  19.310  22.688   7.580  0.1289  0.0526 -0.0645
57867W        W14108  24.774   0.578  17.418 -0.2056 -0.1144 -0.1491
57868W        W14109  16.805  13.716   6.362  0.1210  0.2802 -0.0293
57869W        W14110  12.121   5.255   7.581  0.0462  0.0992  0.2496
57870W        W14111  12.616  21.848  17.369 -0.4452 -0.3467  0.0573
57871W        W14112  20.148   1.566   6.453 -0.0168 -0.1985 -0.0250
57872W        W14113   1.404  23.909   2.612 -0.1329 -0.2076 -0.0497
57873W        W14114  19.665  34.661  15.323  0.3030  0.5061  0.3068
57874W        W14115  17.235  28.182  20.051  0.1587 -0.1067  0.1115
57875W        W14116  33.679  25.521  10.300 -0.0661 -0.0913 -0.0873
57876W        W14117  20.467  35.136  22.176 -0.0629  0.0731  0.0865
57877W        W14118  18.217  33.645  16.507 -0.3970 -0.0234 -0.4212
57878W        W14119  20.958  13.879   3.720  0.1463 -0.1522 -0.2026
57879W        W14120   2.864  32.832   6.499  0.0132 -0.1320  0.1439
57880W        W14121   5.901  26.058   9.873  0.1192 -0.2069  0.1142
57881W        W14122  15.009  19.969  10.997 -0.0022 -0.2632 -0.0546
57882W        W14123  24.874  12.093  20.738 -0.1598 -0.0379  0.0213
57883W        W14124  31.592  21.011  10.574 -0.2070 -0.0885  0.2741
57884W        W14125   7.340  29.033   0.125  0.0335 -0.1305  0.2373
57885W        W14126  30.990  22.804   6.903 -0.0534  0.0991 -0.0121
57886W        W14127  13.542   0.167   6.290  0.4206 -0.3062  0.1460
57887W        W14128  21.946   3.855  26.163  0.0048  0.0665 -0.0651
57888W        W14129  33.520  34.021   3.137 -0.1324  0.1008  0.0495
57889W        W14130  20.557  32.149  21.119 -0.0248 -0.1092  0.0532
57890W        W14131  25.441  28.958  11.438 -0.0983 -0.2407  0.2520
57891W        W14132  27.325   9.444   9.506  0.1526 -0.0228  0.3013
57892W        W14133  16.747   7.368   6.543 -0.1378 -0.1777 -0.0878
57893W        W14134  12.483   9.625  23.817 -0.3313  0.0878 -0.1841
57894W        W14135   5.110  34.873   4.334  0.0654 -0.1935  0.3778
57895W        W14136  15.841  19.047  25.057  0.0224  0.0328  0.2453
57896W        W14137  26.643   5.894  18.004 -0.0621  0.2099  0.0621
57897W        W14138  16.275   3.646   5.895  0.1200 -0.1341 -0.0513
57898W        W14139   5.233   6.874  24.105 -0.0624 -0.2142  0.1788
57899W        W14140   9.656  14.096   7.712  0.1386 -0.0468 -0.2132
57900W        W14141  20.569  26.421  17.761 -0.0388  0.2887  0.0949
57901W        W14142  24.745  31.300  10.751  0.1660  0.0577 -0.1074
57902W        W14143  11.738  24.387   5.501  0.3277 -0.3163 -0.0873
57903W        W14144  10.636   7.046   7.560 -0.5433  0.1320 -0.1989
57904W        W14145  16.610   4.123   8.095 -0.3361 -0.3271 -0.3009
57905W        W14146  19.052   2.124  22.980  0.2651  0.1123  0.0875
57906W        W14147  33.297  25.819  17.788 -0.3000  0.0202 -0.2665
57907W        W14148  29.967  25.137  16.255  0.1035  0.1316  0.0251
57908W        W14149   5.728   4.658   6.092 -0.2226  0.0174  0.1729
57909W        W14150   8.684  26.652   6.124 -0.1430 -0.0899 -0.0388
57910W        W14151  34.049  18.149  23.550 -0.1205  0.0001 -0.0691
57911W        W14152  32.728   9.103  18.756 -0.2189  0.4980  0.0318
57912W        W14153   0.535  30.750   1.788  0.0670 -0.2690  0.3210
57913W        W14154  22.420   8.074  19.972 -0.0955 -0.1906  0.1951
57914W        W14155  27.547  31.851  17.594 -0.2531  0.0623 -0.1792
57915W        W14156  30.583   0.508   0.690 -0.3661  0.0771  0.2341
57916W        W14157   3.649  31.540  20.482  0.1571  0.1831 -0.1564
57917W        W14158  13.333  23.715  17.532 -0.2887  0.1399  0.1446
57918W        W14159  24.455   0.897   1.405 -0.0673 -0.4640  0.1842
57919W        W14160  27.752  13.407  18.450 -0.1212 -0.0104  0.2544
57920W        W14161  34.397  14.889  18.064 -0.0462  0.0414 -0.1701
57921W        W14162   0.501  31.170   6.921  0.2439 -0.0674  0.2789
57922W        W14163   4.724  26.211  11.999 -0.2231  0.3870 -0.2519
57923W        W14164   1.932  11.971   1.174 -0.1736  0.2167 -0.0123
57924W        W14165  14.808  30.152  23.675 -0.1511 -0.1359  0.0074
57925W        W14166   7.381  30.222   2.668 -0.1558  0.1338 -0.0898
57926W        W14167  10.731  34.653  13.646 -0.1395 -0.2732 -0.0343
57927W        W14168   1.574  24.208  17.437  0.1053 -0.1083 -0.1043
57928W        W14169  28.436  25.774  23.446  0.1201 -0.3319 -0.2768
57929W        W14170  25.626  12.987  21.694 -0.0762  0.1416 -0.3994
57930W        W14171   2.224   2.619   3.818  0.1983 -0.2589  0.1249
57931W        W14172  19.266  19.977   2.704 -0.0023 -0.1397 -0.0816
57932W        W14173  24.930  17.936  21.124  0.0573 -0.2272  0.0983
57933W        W14174   5.689  33.272  10.601 -0.0015 -0.1017  0.2493
57934W        W14175  26.527  22.225  10.834  0.0442  0.0568 -0.0960
57935W        W14176  31.286  28.576   3.385 -0.1463 -0.1975 -0.3432
57936W        W14177  31.157   3.864  11.159  0.0075  0.3557 -0.0282
57937W        W14178  22.818   4.622   1.607 -0.2782 -0.1004 -0.0362
57938W        W14179  26.751  26.232  12.113  0.0826  0.1423  0.1011
57939W        W14180  24.018  17.661  25.179  0.0988 -0.1172  0.3427
57940W        W14181  24.621  22.542  13.212 -0.2513 -0.0250 -0.0994
57941W        W14182  13.547  32.395   7.006  0.0454  0.1578 -0.2252
57942W        W14183  14.432  11.807   3.677 -0.1754 -0.3980  0.0014
57943W        W14184  12.949   9.875  22.342  0.0862 -0.0325  0.0299
57944W        W14185  29.436   2.193  13.469  0.0278  0.0458  0.0524
57945W        W14186  12.255  30.376  25.783 -0.0716 -0.2636 -0.3645
57946W        W14187   4.686  29.662   9.946 -0.0626 -0.0444  0.2704
57947W        W14188  25.442   6.021  16.841  0.1018  0.0364 -0.1247
57948W        W14189   4.154  30.305  22.286 -0.1479  0.2115  0.0546
57949W        W14190  24.802  15.780  12.294  0.2949 -0.2338 -0.4853
57950W        W14191   0.644  25.660  16.830 -0.2388  0.0268 -0.1628
57951W        W14192  12.483   0.928  23.002  0.2794  0.0600 -0.0741
57952W        W14193  30.174   5.338  10.987 -0.1539 -0.2343 -0.0070
57953W        W14194  19.606  29.339  18.050 -0.0430 -0.2751  0.0609
57954W        W14195  12.651  24.374  22.551  0.2054 -0.1937 -0.2437
57955W        W14196   0.518  33.817  25.160 -0.0208 -0.1693 -0.1314
57956W        W14197   1.794  10.107   3.710  0.0192  0.1308 -0.0185
57957W        W14198  25.742  21.494  23.621 -0.0212 -0.2057  0.0277
57958W        W14199  15.054  25.729  24.460  0.0414  0.0774 -0.2635
57959W        W14200  17.093   5.815  23.826 -0.2936 -0.1344 -0.1902
57960W        W14201   2.891  33.208   1.071 -0.0118  0.2438  0.0155
57961W        W14202  11.431  29.119   8.187  0.2497 -0.2786  0.1514
57962W        W14203  10.564   3.837  21.792  0.1269 -0.3307  0.2371
57963W        W14204  29.167  18.230  20.215 -0.1550  0.0200  0.0608
57964W        W14205  31.438  22.070   6.649  0.1920  0.2381  0.1451
57965W        W14206  18.824  18.309   1.483 -0.2005 -0.1962  0.1248
57966W        W14207  29.761  21.458  15.562  0.2852 -0.3405 -0.3226
57967W        W14208  24.402  33.116  11.161  0.2324 -0.0999 -0.1916
57968W        W14209   5.180  28.288  11.529 -0.2111 -0.1358  0.1797
57969W        W14210   1.758  16.974  13.149 -0.1219 -0.2971  0.0734
57970W        W14211  32.600  28.536  18.418  0.2804  0.2058 -0.0324
57971W        W14212  13.868  32.762  13.687  0.0573  0.4115 -0.2044
57972W        W14213  14.700  17.714  14.740 -0.1228 -0.0408  0.1620
57973W        W14214   7.442  13.626   2.832 -0.0612 -0.1433 -0.1746
57974W        W14215   4.227  16.112   5.281  0.0786  0.0533  0.1338
57975W        W14216  27.263  31.569  17.238 -0.2411  0.2305  0.1507
57976W        W14217   3.272  10.415   0.267  0.0702 -0.2005  0.2899
57977W        W14218  32.505  29.624  15.919  0.2154  0.0263 -0.1650
57978W        W14219  14.568   4.662   7.470 -0.1851  0.0412  0.3942
57979W        W14220  10.724   1.318   7.315  0.0033 -0.2163  0.2263
57980W        W14221  26.590  17.464  19.872 -0.0234  0.0911 -0.1608
57981W        W14222  22.618   1.016  13.055  0.1310 -0.3257 -0.0365
57982W        W14223  34.652  15.631  18.953 -0.1404 -0.1013 -0.0833
57983W        W14224  11.063  22.483  11.577  0.0516  0.1428  0.2863
57984W        W14225  25.207  21.603  17.035 -0.1256  0.0359 -0.0658
57985W        W14226   2.031   0.181   4.760  0.1543  0.0031  0.2206
57986W        W14227   9.524  30.423  12.358 -0.0301 -0.1464 -0.1594
57987W        W14228  26.677  32.432  17.259  0.2445  0.1984 -0.1051
57988W        W14229   2.349   0.475   7.140  0.0257  0.1790  0.0009
57989W        W14230  23.232  30.062   3.433 -0.1473 -0.0221 -0.1788
57990W        W14231   8.868  31.606   4.575 -0.1295 -0.1337 -0.0488
57991W        W14232  31.532   4.055   0.283  0.0357  0.0520  0.0916
57992W        W14233  30.868   4.148  22.081 -0.2902  0.1393  0.1160
57993W        W14234  12.859  19.277  14.645 -0.0739 -0.2022  0.2480
57994W        W14235  22.064   5.115  15.906 -0.3010  0.2273 -0.2070
57995W        W14236  34.461  21.215  14.838  0.0090 -0.2644  0.1652
57996W        W14237  30.343  18.050  15.773 -0.3914  0.0272  0.2160
57997W        W14238   4.873  14.056  20.494 -0.1511 -0.3757 -0.2578
57998W        W14239  23.893  28.510  20.985  0.0471 -0.0617 -0.0999
57999W        W14240   9.034  19.814  12.346  0.0717  0.0494 -0.0987
58000W        W14241  25.956  22.191  21.284 -0.0195  0.3107  0.1234
58001W        W14242  16.462  27.527   7.073 -0.0586  0.0004 -0.1760
58002W        W14243  31.573  20.129  11.934  0.2000  0.0862 -0.1337
58003W        W14244  24.822   0.448  25.087  0.1524  0.1121 -0.2659
58004W        W14245   2.091  30.559  24.256  0.1454  0.0514  0.0939
58005W        W14246  12.647   5.406   8.680  0.2810  0.3434 -0.3013
58006W        W14247   7.151  18.704   7.766 -0.0325  0.0515  0.0601
58007W        W14248  30.393  28.874   2.475 -0.0122 -0.3230 -0.2243
58008W        W14249  33.045   2.617   4.204 -0.2472  0.2249 -0.0008
58009W        W14250   9.894   4.006  10.685  0.2617  0.1481  0.0145
58010W        W14251   8.536  14.443  20.343  0.0125 -0.3526 -0.0199
58011W        W14252  12.573  30.506  21.741  0.0368 -0.0715  0.1145
58012W        W14253   2.881   9.215   1.575 -0.0822  0.1281 -0.1003
58013W        W14254  27.481  20.522  19.130 -0.0613  0.0960 -0.0972
58014W        W14255  22.499  35.006  17.961 -0.3759  0.1840  0.0219
58015W        W14256  16.175   3.266   3.415 -0.1982  0.0539  0.1811
58016W        W14257  33.938  13.514  18.903 -0.1586 -0.0332  0.1320
58017W        W14258  31.286  27.517  10.367 -0.3189 -0.1546  0.0568
58018W        W14259  23.606  31.299   5.890 -0.1406 -0.1324 -0.0905
58019W        W14260   0.871   9.710   1.286 -0.2086 -0.0719  0.1594
58020W        W14261  24.567  16.718   0.609 -0.1404  0.1956 -0.0199
58021W        W14262  19.290   8.767  23.232 -0.1394  0.0927  0.1635
58022W        W14263   2.254  27.053  25.266 -0.1475  0.0165 -0.3680
58023W        W14264   0.555   7.117   6.016  0.1280  0.1645  0.1678
58024W        W14265  12.333   4.144  23.610 -0.0281 -0.2729  0.0610
58025W        W14266  34.276   2.525  15.374 -0.2879  0.0444  0.0262
58026W        W14267  12.992   4.503   2.128  0.3343 -0.1868 -0.1643
58027W        W14268  35.150   1.810  15.321  0.0298  0.0301 -0.0353
58028W        W14269   3.024  34.981  25.795  0.2745  0.2120  0.3161
58029W        W14270  31.403  15.472  23.582 -0.2126  0.2220 -0.1261
58030W        W14271  19.433   0.902  24.816  0.0592  0.1232  0.3072
58031W        W14272  19.977  34.929   3.603 -0.1072 -0.0550 -0.1750
58032W        W14273  28.397   2.854  20.318  0.1189  0.1736 -0.0454
58033W        W14274   7.088   1.902   2.235 -0.0212 -0.2135 -0.1607
58034W        W14275  14.852  30.025  25.908  0.1750 -0.0089 -0.3838
58035W        W14276  19.355  26.594   3.337 -0.2803  0.2338  0.2514
58036W        W14277  28.864  31.726   1.935  0.0184 -0.0885 -0.2966
58037W        W14278  13.467   5.299  22.569  0.1988 -0.0017  0.1752
58038W        W14279   0.700  11.513  16.311 -0.1413  0.1224 -0.1107
58039W        W14280  16.627  19.023  11.632  0.1421 -0.1020 -0.1379
58040W        W14281  31.206   2.107   3.768 -0.1594 -0.0915  0.0941
58041W        W14282  14.428  26.355   3.493  0.1956  0.0225 -0.0545
58042W        W14283  15.102  34.533  25.857 -0.0152  0.1957 -0.0792
58043W        W14284  19.770   4.639  22.311 -0.0100 -0.2339 -0.0186
58044W        W14285  31.038  28.170   3.526 -0.2366 -0.0783  0.1945
58045W        W14286   6.426  25.657  24.955 -0.1486  0.1059  0.0298
58046W        W14287   3.009  20.700  22.488  0.3147  0.3211 -0.2176
58047W        W14288  25.681  12.115  21.527  0.1055 -0.0620 -0.2984
58048W        W14289  11.581  33.083   6.074 -0.0092 -0.0007  0.2449
58049W        W14290  21.014  23.626  17.672  0.0766  0.0635 -0.3079
58050W        W14291  20.347  14.769  22.274 -0.0592  0.3753  0.5142
58051W        W14292  31.533  21.054   8.407  0.1093 -0.0586 -0.4006
58052W        W14293  21.409  14.085  24.553  0.2024 -0.1282  0.1925
58053W        W14294   7.123  27.839  13.331  0.3019  0.0087  0.0373
58054W        W14295  24.823  14.175  14.141  0.0828 -0.0804  0.0930
58055W        W14296  24.439  30.481   3.087 -0.1438  0.6582 -0.1368
58056W        W14297  23.686  34.223   6.441  0.2162 -0.3709 -0.1152
58057W        W14298  28.779   0.880  15.149  0.1608 -0.3183  0.1386
58058W        W14299  11.047  34.378   0.377  0.0948  0.2744 -0.0751
58059W        W14300  24.775   1.890   6.774 -0.0605 -0.0268  0.0136
58060W        W14301  23.251  30.423  17.706  0.1497 -0.2196  0.0929
58061W        W14302  20.861   9.874  16.613  0.3245  0.0769  0.3055
58062W        W14303  15.428  11.722  25.546 -0.2532  0.0180  0.0350
58063W        W14304  27.932  15.805  14.269 -0.2435 -0.0621 -0.0762
58064W        W14305  33.181  18.917   6.514  0.2378  0.2243 -0.0825
58065W        W14306  10.749  25.020   4.999  0.1454 -0.1636 -0.1089
58066W        W14307  18.419  14.062  19.445  0.4310  0.2455  0.0571
58067W        W14308  23.027  10.553  19.157 -0.0255  0.1198  0.1012
58068W        W14309   7.255   3.901   7.937 -0.1332  0.1874 -0.2601
58069W        W14310  27.568  18.423  17.387  0.1804 -0.0444 -0.0596
58070W        W14311  17.662  26.507  21.172 -0.1566  0.4422 -0.2475
58071W        W14312  17.584  14.987  25.515  0.0142 -0.1596  0.0110
58072W        W14313  16.974   8.438   9.706  0.1701  0.2003  0.2895
58073W        W14314  29.934  22.251   9.442 -0.0233 -0.2010  0.3467
58074W        W14315  30.027  12.360   7.136  0.1176 -0.0837  0.0694
58075W        W14316  28.386   2.045   1.984  0.0922  0.2510  0.0264
58076W        W14317   7.909  11.747   7.259  0.2766  0.0900 -0.0150
58077W        W14318  11.213   3.384  11.607 -0.0930  0.1929 -0.1039
58078W        W14319  24.011  13.628  23.158 -0.2444 -0.4526 -0.0556
58079W        W14320   0.423   9.911  22.683  0.0336  0.1075  0.2643
58080W        W14321   1.774  20.181  24.907  0.3565 -0.1741  0.0401
58081W        W14322  32.922  19.708   8.268 -0.0269 -0.2688 -0.1060
58082W        W14323   8.868  24.975   9.435 -0.0345  0.0448 -0.1206
58083W        W14324  33.989   6.636   2.059 -0.0697 -0.0397  0.1699
58084W        W14325  18.456   8.873   4.664 -0.1371  0.0772  0.1279
58085W        W14326  11.718  31.829   9.061 -0.1446 -0.0185 -0.1605
58086W        W14327  25.509  19.545  11.893 -0.1418  0.2095  0.0784
58087W        W14328  30.501  17.564   5.984  0.0669 -0.0762  0.0378
58088W        W14329  19.612  21.819   8.164  0.0157 -0.3610  0.2686
58089W        W14330  11.999  33.827   6.607 -0.1348 -0.2161  0.0616
58090W        W14331   8.900  10.967  18.547  0.2366 -0.0731 -0.2241
58091W        W14332  34.357  30.846   5.559 -0.2050 -0.1920 -0.0990
58092W        W14333   7.074   7.512   9.065 -0.2539 -0.2063  0.1370
58093W        W14334   7.481  14.083   2.583 -0.0667  0.1504 -0.0329
58094W        W14335   2.767  23.929  22.124 -0.1426 -0.3428  0.1584
58095W        W14336  27.346  33.831  21.831 -0.1098  0.0707  0.0784
58096W        W14337   0.479  20.996  24.260 -0.0239 -0.3777 -0.0417
58097W        W14338  16.923   3.297  22.155 -0.0737  0.1072  0.3360
58098W        W14339  27.603  16.311  18.907 -0.2092  0.1199 -0.1146
58099W        W14340   1.012  11.263  19.439 -0.1953 -0.0625 -0.3177
58100W        W14341  18.762  30.977   8.134  0.0422  0.3165  0.3587
58101W        W14342  22.316  23.400  20.981 -0.3313  0.1151  0.2023
58102W        W14343   8.225   1.026   9.397  0.1144  0.0721  0.0471
58103W        W14344  23.942   0.846  23.553 -0.1538  0.2530 -0.0840
58104W        W14345   9.819  33.589  23.408  0.1868  0.0093 -0.1741
58105W        W14346  29.876  23.280  22.573 -0.1184 -0.1225  0.1322
58106W        W14347  26.909  24.584   9.781  0.3061  0.0723 -0.1755
58107W        W14348   8.867  12.391  24.244 -0.0987 -0.2275  0.3043
58108W        W14349  19.845   9.804   8.361 -0.0039  0.0692  0.1508
58109W        W14350  10.143  13.417  25.288 -0.0533  0.2381  0.0463
58110W        W14351  24.222  17.351  12.684  0.0611  0.1286 -0.1161
58111W        W14352   7.319  11.813   1.803  0.0064  0.1107  0.1609
58112W        W14353  11.891   2.681   3.954  0.2211 -0.2503  0.0099
58113W        W14354  25.274   4.948   3.191 -0.2178  0.0232  0.1557
58114W        W14355  25.601   8.551  10.294  0.4033  0.1307 -0.1133
58115W        W14356  35.002  35.055  15.395 -0.0654 -0.1705 -0.0812
58116W        W14357  31.878   0.829  12.995  0.0275  0.2427 -0.1093
58117W        W14358  18.264   4.375  22.032  0.3007  0.2062 -0.0417
58118W        W14359   3.444  18.443  22.587 -0.0023  0.2371 -0.2806
58119W        W14360  34.156  30.336  14.953 -0.1613  0.2547  0.1836
58120W        W14361   7.693   6.516  22.423  0.1094  0.0664  0.0848
58121W        W14362  22.741   0.298   2.089  0.0053  0.1300 -0.0444
58122W        W14363  19.541  10.380  17.632  0.3065 -0.0232 -0.3478
58123W        W14364  14.513  33.153  24.715 -0.1532  0.1152  0.2088
58124W        W14365   3.937  19.971  24.309  0.1666  0.1822 -0.1108
58125W        W14366  22.470   8.704   0.942  0.0769 -0.2809  0.3151
58126W        W14367  31.526  27.841  12.306  0.1491  0.3499 -0.1442
58127W        W14368  23.620  30.969   2.899 -0.1562 -0.1202  0.2590
58128W        W14369   0.761   7.370   2.401  0.0504  0.3996 -0.6219
58129W        W14370   0.651  28.788  20.050  0.1249  0.1123  0.1053
58130W        W14371  28.058  34.963   5.366  0.0487 -0.1853 -0.1532
58131W        W14372  23.964  11.964   0.493 -0.0985  0.0124  0.1459
58132W        W14373  24.057  31.588  17.672 -0.2987 -0.1744 -0.2018
58133W        W14374  31.466   6.504  22.106  0.0758 -0.1485 -0.2266
58134W        W14375  26.240  18.280   6.062  0.0874  0.1985 -0.0918
58135W        W14376   4.440   0.215   9.058 -0.2030 -0.1071 -0.4294
58136W        W14377   3.687  30.013  21.140 -0.1088  0.2502 -0.0471
58137W        W14378  33.183   9.093  14.718 -0.3435  0.0591 -0.0523
58138W        W14379   9.564   8.802   5.783 -0.0826  0.1078 -0.2553
58139W        W14380  11.177  17.059  11.723 -0.3887 -0.0048 -0.1903
58140W        W14381  27.522  28.398   1.156 -0.2622  0.0318  0.2198
58141W        W14382  27.303   7.122  19.365  0.1154  0.0400  0.0467
58142W        W14383   5.035  10.037   5.157 -0.2941 -0.0259  0.1304
58143W        W14384  11.616   2.906  22.160 -0.1529  0.2354 -0.2157
58144W        W14385  23.394  21.640  15.967  0.1283  0.3022  0.0562
58145W        W14386  15.034  33.798   8.678  0.1504 -0.0748  0.1701
58146W        W14387  13.724  34.987  20.114 -0.2949  0.1092  0.5645
58147W        W14388  10.076   2.494   2.085  0.1683 -0.1031  0.0233
58148W        W14389  16.651  24.638   3.111  0.1232 -0.0826  0.0448
58149W        W14390   3.031   5.164   5.518  0.3459  0.0004  0.0165
58150W        W14391   7.492  29.578  11.056  0.0208 -0.2377  0.1076
58151W        W14392   2.469   0.672   1.353 -0.1264 -0.3678  0.4609
58152W        W14393  12.537   8.907  25.209 -0.1991 -0.3439  0.0119
58153W        W14394  25.709  17.889  21.838  0.1329 -0.0726  0.5570
58154W        W14395  26.869  34.194  12.166  0.0304 -0.3063  0.2516
58155W        W14396  31.194  17.561  14.660 -0.0843  0.0364 -0.0112
58156W        W14397  25.239  19.694  14.194 -0.0650  0.0347  0.1609
58157W        W14398   1.649  34.497   0.478  0.2774 -0.3579  0.0705
58158W        W14399  29.803  26.944   8.667  0.2047 -0.1512 -0.0688
58159W        W14400  22.585  24.531   0.188 -0.0287 -0.0813  0.3210
58160W        W14401  16.137   4.570  21.850 -0.0889 -0.0342  0.1294
58161W        W14402  30.182  21.423  10.628  0.1188 -0.0097 -0.0898
58162W        W14403  13.401  12.544  10.133 -0.0337 -0.3242 -0.0002
58163W        W14404  15.627  22.945  24.844 -0.0128  0.3419 -0.4422
58164W        W14405  24.155  28.249  14.395  0.1397 -0.0376  0.0802
58165W        W14406   5.616   0.570  10.460  0.1198  0.0590 -0.1039
58166W        W14407  27.535  12.300   9.429 -0.0594  0.0535 -0.0061
58167W        W14408  16.215  34.168   7.242  0.1316  0.0392  0.0605
58168W        W14409  27.076  21.221  22.515  0.1873 -0.0374 -0.2174
58169W        W14410  18.149  14.189  24.584  0.1515 -0.0617  0.0546
58170W        W14411  17.170  34.140  23.520  0.0012  0.2573 -0.1247
58171W        W14412  16.865  32.069  20.020  0.0038 -0.3531 -0.2624
58172W        W14413  17.518  14.819  11.306 -0.4121  0.1109 -0.0165
58173W        W14414  23.127   2.091   7.418 -0.0449 -0.0014 -0.0524
58174W        W14415  23.973  14.696  15.463 -0.1464 -0.2701 -0.2415
58175W        W14416   2.116  12.532  16.517  0.0476  0.0324  0.0495
58176W        W14417  11.388  12.305  25.596 -0.3120  0.1583 -0.0231
58177W        W14418  26.328   9.941  19.557  0.2978  0.0707 -0.0084
58178W        W14419  21.476  28.207  15.112 -0.3013 -0.2527 -0.3051
58179W        W14420  28.228  30.242  16.757  0.1897 -0.3037 -0.2529
58180W        W14421  10.768  30.997  16.052 -0.0694 -0.0663  0.1014
58181W        W14422  15.789  16.994  11.138  0.1240  0.3496  0.0801
58182W        W14423  30.465  12.708  21.585  0.1696  0.1085 -0.2697
58183W        W14424  10.336  15.408  19.739  0.0714  0.0381  0.0630
58184W        W14425  21.664  34.334  23.670 -0.1865 -0.1486  0.2179
58185W        W14426  26.328  27.119   2.866  0.0020 -0.4262 -0.1618
58186W        W14427  20.370  25.499   5.509 -0.4113  0.1280  0.1001
58187W        W14428  16.093  10.736  26.146 -0.1793 -0.1619  0.1489
58188W        W14429  34.707  19.784  17.769  0.0107  0.1745 -0.1013
58189W        W14430  14.193   0.151   9.223 -0.0082  0.1351 -0.0518
58190W        W14431   6.096  29.479   9.498 -0.3540  0.1963 -0.0867
58191W        W14432  29.008  21.970   4.901 -0.1772 -0.0824  0.1240
58192W        W14433  21.851  34.659  20.408  0.0151 -0.3387 -0.2916
58193W        W14434  31.822  31.661  26.251  0.0749 -0.0376  0.1396
58194W        W14435   4.446  25.970   7.243  0.2177  0.0239  0.0669
58195W        W14436   4.764   8.320  22.025  0.0813 -0.0994  0.1480
58196W        W14437  25.739  32.849  18.930 -0.2235  0.1340 -0.0280
58197W        W14438   7.496  15.079   2.562  0.0109  0.1831 -0.0606
58198W        W14439  11.582  18.953  26.202 -0.1772 -0.0033 -0.1386
58199W        W14440  24.683   2.696   5.889  0.1515  0.4256 -0.0906
58200W        W14441  14.800  21.644  12.564 -0.0264  0.0224 -0.0814
58201W        W14442   9.121  20.954  21.428  0.3199 -0.0479 -0.1202
58202W        W14443  21.247   5.308   6.186  0.1214  0.1704 -0.0196
58203W        W14444  33.978  31.307   3.742  0.0911  0.2679  0.1704
58204W        W14445  27.674  16.279  20.669  0.1160 -0.1245 -0.1480
58205W        W14446  31.044  17.259  20.840  0.0877 -0.1342  0.2583
58206W        W14447  18.676  25.971  25.311  0.2444 -0.0317  0.0192
58207W        W14448   0.012   1.197   3.840 -0.1139  0.0568 -0.1645
58208W        W14449  35.228  20.421  22.909 -0.2124  0.0386  0.1499
58209W        W14450  27.098  19.836  13.123  0.2152 -0.2249 -0.0502
58210W        W14451  30.967   1.346  21.756  0.0893  0.1378  0.0065
58211W        W14452  21.078   4.159   5.156 -0.1995 -0.1822  0.1681
58212W        W14453  19.453   3.214  25.403 -0.1152  0.2338  0.1330
58213W        W14454  20.640  26.778  17.456 -0.1059  0.1438  0.0807
58214W        W14455  35.239  24.490  11.040 -0.2729  0.1006 -0.0204
58215W        W14456  11.136  20.440  13.533 -0.3576  0.2118 -0.0960
58216W        W14457  15.130  22.105  12.658 -0.0354 -0.0672  0.0712
58217W        W14458   4.215  29.549   0.413  0.4545 -0.0935 -0.0036
58218W        W14459   1.422  27.975  24.623 -0.0593  0.0974  0.2694
58219W        W14460   4.026   9.239  25.242  0.0602  0.0941 -0.1292
58220W        W14461  20.388  21.383   1.223 -0.0465 -0.1411  0.0477
58221W        W14462  18.610  22.438   6.741 -0.1909 -0.0624  0.0307
58222W        W14463  22.728   7.476  17.911 -0.0434  0.0195  0.0702
58223W        W14464  31.508   0.163   3.621 -0.0673  0.4454  0.1960
58224W        W14465  27.526  11.899  20.986  0.3672 -0.0906  0.0677
58225W        W14466  32.600  25.696  20.788 -0.3613  0.5462  0.0026
58226W        W14467  33.850  11.509   7.803 -0.0386 -0.3051  0.0126
58227W        W14468  25.912  19.227  13.710 -0.1036  0.0068 -0.1238
58228W        W14469  13.048  22.698   1.847  0.0061  0.4771  0.0858
58229W        W14470  22.524  20.387  22.957  0.0139  0.2983  0.0782
58230W        W14471  10.673   2.770   7.771 -0.1212 -0.1617 -0.0291
58231W        W14472  15.238  28.453   0.957 -0.0025 -0.2461 -0.1480
58232W        W14473   0.161  24.547  23.375  0.2511  0.0120 -0.0575
58233W        W14474  12.851   3.285  11.896  0.1857  0.1634  0.0225
58234W        W14475  30.398  24.906  21.897  0.1932  0.0766  0.1353
58235W        W14476   3.188  31.452   2.614 -0.2818  0.0592  0.0452
58236W        W14477  16.445  20.409  24.909  0.1223  0.0173 -0.0293
58237W        W14478  33.295  32.616  25.733  0.1568 -0.1009  0.1226
58238W        W14479  23.537  18.529  17.751 -0.2238 -0.2185  0.4663
58239W        W14480  11.773   0.544   1.085 -0.0298 -0.0699 -0.1122
58240W        W14481  28.297  20.060  17.394  0.1944 -0.2141 -0.3195
58241W        W14482  35.127   8.447  22.648  0.3572 -0.0587  0.1602
58242W        W14483  25.388  14.669  12.610 -0.0234  0.0723  0.0982
58243W        W14484  23.612   5.406  23.030 -0.0688  0.0299  0.2963
58244W        W14485  24.163  16.031   1.180  0.2688  0.1520  0.3209
58245W        W14486   9.255  12.658  22.918  0.0043  0.2606  0.1650
58246W        W14487  21.656   9.763   1.864 -0.0325  0.1771 -0.0020
58247W        W14488  18.903   5.622   2.972  0.1894  0.1156  0.1126
58248W        W14489  10.495   9.737  23.328  0.0455 -0.0887 -0.1194
58249W        W14490  29.518   0.231  16.174 -0.1809  0.0879  0.0568
58250W        W14491  22.749  16.113  20.777  0.1224  0.0888  0.2727
58251W        W14492   5.968  13.616  22.924  0.1518 -0.0701 -0.2327
58252W        W14493  27.012  19.602  12.646  0.4194 -0.2971  0.0622
58253W        W14494   6.064   8.051  11.843 -0.2345 -0.0705 -0.1977
58254W        W14495  20.255  17.599  22.427  0.4538 -0.0503 -0.0514
58255W        W14496   3.595  20.540  19.035  0.1153  0.2690  0.0315
58256W        W14497  24.470   3.566   6.647  0.3477 -0.2373 -0.0193
58257W        W14498  32.352  33.998  20.979 -0.1256 -0.2277 -0.2086
58258W        W14499  16.912  25.503   6.559  0.0379  0.2766 -0.3765
58259W        W14500  18.851  28.332  25.730 -0.0181  0.2451 -0.0689
58260W        W14501  27.009  10.433  21.857 -0.0661  0.0753 -0.1151
58261W        W14502  22.265  31.628  18.572  0.1835 -0.3524 -0.0671
58262W        W14503  13.391   6.834   1.486  0.1419 -0.2482 -0.1595
58263W        W14504  14.707  33.166  20.353  0.2542  0.3289  0.0732
58264W        W14505  34.975  24.920  15.542  0.1257  0.2451 -0.0619
58265W        W14506  32.221   9.510  21.186 -0.0851  0.1755  0.1195
58266W        W14507  13.775  27.482   8.026 -0.0703 -0.2036  0.0734
58267W        W14508  22.999  19.554  17.567 -0.2352 -0.0457 -0.1706
58268W        W14509  30.218   7.903  13.968 -0.0472 -0.0886 -0.2073
58269W        W14510  22.448  29.536   2.146 -0.0116 -0.3747  0.1800
58270W        W14511  11.293  32.042   9.484  0.1511  0.2260  0.0010
58271W        W14512  12.867  24.199  22.968  0.1358  0.1654  0.0770
58272W        W14513  21.389   6.433   4.572  0.4785 -0.1192  0.0057
58273W        W14514  26.182  33.562  14.037  0.0101 -0.2766  0.1062
58274W        W14515  34.341  17.896  15.742 -0.1374  0.0765 -0.1010
58275W        W14516  24.509  17.058  12.222 -0.2427 -0.4864  0.2319
58276W        W14517  19.962   4.154  19.071 -0.2547  0.0668  0.0195
58277W        W14518  32.507  12.320  17.604  0.5722 -0.1523 -0.1778
58278W        W14519  33.326  12.100  26.198 -0.0455 -0.3536  0.1694
58279W        W14520  24.632  26.292  16.215 -0.0389 -0.2099  0.0451
58280W        W14521  21.107  13.680  20.622 -0.0022  0.0550  0.2032
58281W        W14522  24.260  24.223  22.756  0.1114  0.2388  0.0284
58282W        W14523  14.511  23.433  12.517  0.0057 -0.1894 -0.0208
58283W        W14524  34.642  15.439   8.947  0.0230 -0.0129 -0.0956
58284W        W14525   2.634  13.236  19.934 -0.1411  0.0909 -0.0101
58285W        W14526   8.132  31.973  20.650  0.2076 -0.1531 -0.0403
58286W        W14527  15.985  10.195   6.852  0.0264 -0.2808 -0.0787
58287W        W14528  21.211  17.785  22.960  0.2690 -0.0363 -0.2304
58288W        W14529   3.357  35.349  17.299  0.1398 -0.0151  0.1633
58289W        W14530  24.421  31.447   3.939  0.0719  0.1347 -0.0220
58290W        W14531  11.427   6.099   9.864 -0.0798  0.0569 -0.0238
58291W        W14532  10.428   1.969   2.281  0.2083 -0.0574 -0.0048
58292W        W14533  17.404   0.248   6.169  0.4713  0.0354  0.2793
58293W        W14534  24.101   6.570   2.209 -0.0214 -0.2140  0.0162
58294W        W14535   0.267  32.836  25.379  0.2165  0.0594  0.0997
58295W        W14536  16.156  12.643   1.266  0.0248  0.0615  0.0511
58296W        W14537  21.591   9.370  24.698  0.0004  0.1055  0.2332
58297W        W14538  14.341   4.218   5.945  0.2007  0.0301 -0.3945
58298W        W14539  27.745  16.348  20.158 -0.2653 -0.2537 -0.2834
58299W        W14540  30.797  32.282  23.622 -0.0711  0.1306 -0.2442
58300W        W14541   7.774   1.507  19.495 -0.1756 -0.0124 -0.1408
58301W        W14542   2.656  19.509  25.041 -0.1342 -0.4332 -0.4567
58302W        W14543   9.061  17.399  24.513 -0.2215  0.2720  0.0484
58303W        W14544  12.272  13.318  25.812  0.2861 -0.1025 -0.3188
58304W        W14545  21.776  27.233  23.634  0.0463 -0.4076  0.0153
58305W        W14546   0.716  18.634   8.859  0.1480  0.1219  0.2142
58306W        W14547  27.574   8.320  14.941  0.3168  0.1047  0.0984
58307W        W14548  19.881  32.626  25.232 -0.4732  0.0386  0.3589
58308W        W14549   5.738   9.112  22.432 -0.2371  0.1025  0.1031
58309W        W14550  34.316   3.731  13.110  0.1400 -0.0596  0.0216
58310W        W14551  13.344  28.876   0.874  0.2205 -0.2526  0.1280
58311W        W14552   7.782  32.607   5.704  0.0392 -0.2094  0.0161
58312W        W14553  19.993  26.835  22.424 -0.4550  0.1582 -0.3034
58313W        W14554  27.713   6.662  25.027 -0.1042  0.3197 -0.2196
58314W        W14555  16.260  21.508   8.679 -0.1909 -0.1705 -0.0007
58315W        W14556   4.034   6.872   2.660  0.2049  0.0033 -0.3203
58316W        W14557  27.850  18.068  21.147 -0.2830 -0.1155 -0.0168
58317W        W14558  26.869   1.094  23.715 -0.2274 -0.1130 -0.0498
58318W        W14559  15.209  27.684   7.629  0.1031  0.0321 -0.2299
58319W        W14560  12.844  20.120  25.968  0.1941 -0.1664  0.5752
58320W        W14561  22.170   6.102   2.258 -0.3223  0.1319 -0.1187
58321W        W14562  32.746  28.313  15.637  0.0431 -0.2115  0.3280
58322W        W14563  10.805   6.879   8.680  0.1162 -0.2295  0.0888
58323W        W14564   8.991  14.157   0.828  0.2780  0.1563  0.1378
58324W        W14565  30.920  10.817  17.126 -0.3792  0.0669 -0.0311
58325W        W14566  19.752   1.339   7.400  0.2195 -0.5183 -0.0012
58326W        W14567  31.631   2.083  13.023  0.0593 -0.1412  0.0149
58327W        W14568  31.842   4.778   0.894 -0.0307 -0.2295  0.1518
58328W        W14569  29.558   6.064   8.963  0.0160 -0.0565  0.0389
58329W        W14570  34.709   0.249   2.934 -0.1797  0.0234 -0.0440
58330W        W14571   5.976  27.157   7.817 -0.2099  0.0065 -0.0648
58331W        W14572  12.065  18.986  25.408  0.0687 -0.0381 -0.0467
58332W        W14573  16.839   4.467   6.174 -0.1949 -0.0354 -0.3739
58333W        W14574  28.641  25.271   9.990  0.0547  0.1086  0.5339
58334W        W14575  10.617   6.244   1.212  0.1207  0.0587 -0.0170
58335W        W14576   3.279  15.325  19.597  0.4003 -0.1383  0.0735
58336W        W14577   6.911   8.354  22.514 -0.1079 -0.1652 -0.0117
58337W        W14578  32.904  30.353  17.161 -0.1625 -0.0616  0.0172
58338W        W14579  24.047  13.354  22.713 -0.2006  0.1157 -0.2532
58339W        W14580  21.991  32.610  16.454  0.1936  0.1930 -0.3418
58340W        W14581  26.643   8.875  16.496 -0.1825  0.2430  0.0519
58341W        W14582  28.786   5.118  14.055  0.2034  0.1322 -0.2710
58342W        W14583  34.920  12.940  21.724 -0.0681  0.2188 -0.2718
58343W        W14584  14.861  19.902   9.404 -0.0296  0.1997 -0.2464
58344W        W14585   7.698  18.428   1.014 -0.1838 -0.2005  0.2499
58345W        W14586  28.780  13.452  16.522  0.0295  0.3139 -0.1106
58346W        W14587   7.561  17.387   4.530 -0.0302 -0.0060 -0.2197
58347W        W14588  10.222   9.157   7.926 -0.0524  0.0101  0.2040
58348W        W14589  22.749  27.379  21.691 -0.0884 -0.2238  0.0480
58349W        W14590   5.588   3.164  18.527  0.0035 -0.0611  0.1279
58350W        W14591  13.009  30.833  11.176 -0.1786  0.1699  0.0552
58351W        W14592  21.009  26.715  17.852  0.0308 -0.0145 -0.1081
58352W        W14593  14.131  21.419   1.077 -0.1040 -0.3482 -0.1997
58353W        W14594   0.062  14.144   1.377 -0.0540  0.0079 -0.1926
58354W        W14595  34.671  11.205  15.092 -0.1826 -0.0958  0.1758
58355W        W14596  10.084  29.916  23.603 -0.3180 -0.1273  0.1239
58356W        W14597  18.131  14.910   5.350  0.0421  0.3437  0.0248
58357W        W14598  33.221   9.270  18.503 -0.1334  0.0358  0.1328
58358W        W14599  16.555  29.626   1.055 -0.0295 -0.1038 -0.2344
58359W        W14600  25.045  10.925  25.087 -0.0778  0.1717 -0.3772
58360W        W14601  26.183  35.178   3.808  0.2279  0.2768  0.1009
58361W        W14602   4.162  21.956  22.908  0.0280  0.0965  0.0484
58362W        W14603   5.353   0.162   8.694 -0.1020 -0.0756  0.0979
58363W        W14604  15.170  26.165   1.718 -0.0565  0.1099  0.1580
58364W        W14605   8.850   3.372  24.131 -0.0846  0.2077  0.0994
58365W        W14606  24.053  28.567  17.531  0.1950  0.1994 -0.0154
58366W        W14607  13.122  33.413   5.739  0.1276  0.0681  0.0866
58367W        W14608   9.480  34.074  20.937  0.0858 -0.1364  0.3212
58368W        W14609  34.696  22.311  12.902 -0.2559  0.1748 -0.3390
58369W        W14610   2.997  31.998  17.663 -0.3147  0.2518 -0.0556
58370W        W14611  15.055  35.065   8.199 -0.2876 -0.1942 -0.0360
58371W        W14612  11.355  30.984  12.649 -0.1422 -0.1578  0.0405
58372W        W14613   3.159   9.842   4.371 -0.1891 -0.1197  0.0614
58373W        W14614  19.131  20.984  10.569  0.2297 -0.0263  0.1553
58374W        W14615  23.507  29.630  16.889  0.0231 -0.0293  0.1858
58375W        W14616  31.433   1.163  19.111  0.1210 -0.0243  0.0392
58376W        W14617   6.992  26.200   5.898 -0.2719  0.1181 -0.4029
58377W        W14618  25.260   8.719   0.462 -0.0297 -0.2398 -0.2849
58378W        W14619   5.964  30.490  22.853  0.1100 -0.0143  0.3252
58379W        W14620  14.167  24.342  15.806  0.1906 -0.1581 -0.2221
58380W        W14621  31.975  33.681  19.512 -0.0629 -0.0273 -0.0324
58381W        W14622  20.567  27.344   0.816  0.3958 -0.4310  0.0679
58382W        W14623  13.759  25.061   5.595 -0.0121 -0.1559  0.1367
58383W        W14624  22.956   7.081   5.015  0.1041  0.1836 -0.0432
58384W        W14625  10.320   2.456  10.669 -0.0543 -0.2960 -0.1370
58385W        W14626   3.988  29.411   8.940  0.0942  0.1305  0.0754
58386W        W14627  17.944   2.813   4.299 -0.2957 -0.2720  0.1939
58387W        W14628  27.600  28.222  11.124  0.2755  0.0929 -0.6139
58388W        W14629  27.156   0.879  18.077  0.0968  0.1113  0.0241
58389W        W14630  24.006   9.309   2.829  0.2772 -0.0439 -0.1867
58390W        W14631  27.390  32.953  19.996 -0.0990 -0.0699  0.2222
58391W        W14632  12.822  27.773  13.904 -0.4565  0.0138 -0.1069
58392W        W14633  28.456  18.516  12.549  0.1917  0.0024  0.1490
58393W        W14634  14.641  29.603  23.574  0.0732  0.2398 -0.2588
58394W        W14635  27.043   0.634  11.931  0.0348 -0.1837 -0.0625
58395W        W14636  10.073  26.258   9.820  0.2841  0.1851 -0.1651
58396W        W14637  32.876  15.028  21.028 -0.2986  0.0887  0.1869
58397W        W14638  29.155  13.007  11.059 -0.1845  0.0899  0.0462
58398W        W14639  10.108   6.836  20.100 -0.0008  0.0945  0.1229
58399W        W14640  30.266  20.614   6.076  0.0885  0.2574  0.0677
58400W        W14641  35.213   1.211  19.023 -0.1284 -0.0085 -0.0887
58401W        W14642   9.687  15.707   3.804  0.1882  0.1672  0.2759
58402W        W14643  17.574   0.173  18.877 -0.0243 -0.0676 -0.1740
58403W        W14644  20.211  26.740  23.399 -0.1609 -0.1491  0.0725
58404W        W14645  28.905  26.497   2.885  0.0595 -0.1893 -0.3499
58405W        W14646  10.143  19.473   4.392 -0.1305  0.1403 -0.0704
58406W        W14647  14.210  19.951  10.527  0.0168  0.1189 -0.1667
58407W        W14648   9.840  29.203   2.490  0.2113  0.0192  0.1326
58408W        W14649  16.221  15.987  13.421 -0.1613  0.1816  0.1487
58409W        W14650  20.372  33.021  25.977  0.1323  0.1372 -0.3451
58410W        W14651  18.628  29.442  24.314  0.0104  0.1445  0.0104
58411W        W14652  24.469  18.545  20.703  0.2088 -0.2756 -0.2721
58412W        W14653  14.318  30.434  21.159 -0.0558 -0.0838 -0.1498
58413W        W14654  24.456  22.527  11.462 -0.0343 -0.0055  0.1389
58414W        W14655  25.209   1.065  19.431  0.2999  0.0198  0.1326
58415W        W14656  18.789   7.549  20.101 -0.1128  0.1699  0.0576
58416W        W14657  18.042  30.696   5.011  0.1155 -0.1700 -0.3521
58417W        W14658  24.422  19.683   1.270 -0.1093  0.0131 -0.1214
58418W        W14659   2.928  33.141  26.156 -0.0029 -0.0068  0.2538
58419W        W14660  13.425  33.780   6.576 -0.2511 -0.1580  0.2153
58420W        W14661  20.020  27.224  18.081  0.1592  0.0242 -0.0824
58421W        W14662  19.930  34.542  20.803  0.2621  0.0749  0.2613
58422W        W14663   2.698  32.301  18.987  0.0986 -0.1798  0.0644
58423W        W14664   1.139  17.620  23.645  0.2029  0.4403  0.1689
58424W        W14665   3.449   5.557   9.199  0.1509 -0.1585  0.2605
58425W        W14666   2.832   0.870  20.149 -0.2798 -0.0215 -0.1083
58426W        W14667  18.362   9.527  10.806  0.0498 -0.2767 -0.2053
58427W        W14668   3.152  28.456   1.622 -0.2190 -0.1615  0.0531
58428W        W14669  15.824  15.174   6.325  0.5186  0.4076  0.0376
58429W        W14670  16.919   5.399  22.297 -0.2137  0.1852  0.0147
58430W        W14671   1.145  28.921  19.146 -0.1985 -0.1792 -0.0441
58431W        W14672  27.414  27.531  10.111 -0.1414  0.0470 -0.1093
58432W        W14673   8.171  32.045  23.901 -0.0788 -0.1305 -0.2339
58433W        W14674  11.251  32.098  25.336  0.0764  0.1793 -0.3875
58434W        W14675  23.416  30.728   0.996  0.1745 -0.1680 -0.1647
58435W        W14676   0.525  16.889  16.837  0.1988 -0.0283 -0.3448
58436W        W14677  28.949  20.520  23.365  0.1382  0.1171  0.0482
58437W        W14678  33.240  10.098  22.767 -0.2602 -0.2251 -0.1052
58438W        W14679  26.606   4.011  21.476  0.2420  0.1491  0.0125
58439W        W14680  16.756   7.302   4.359 -0.0462 -0.0427 -0.0770
58440W        W14681  23.176  13.509  14.625  0.0916  0.1382 -0.6211
58441W        W14682   9.216  31.355  21.978 -0.0404  0.1721 -0.0037
58442W        W14683  10.144  23.988  26.022 -0.3018  0.0879 -0.0953
58443W        W14684  18.115  18.197   7.136  0.1139  0.2667 -0.2770
58444W        W14685   7.367   5.539   4.556 -0.0392  0.1563 -0.0052
58445W        W14686   2.144   7.592  17.401 -0.1503 -0.4407 -0.0106
58446W        W14687  17.413  25.308  10.702  0.0803  0.2616  0.0447
58447W        W14688  25.129  31.044  12.911 -0.1575  0.1847 -0.1925
58448W        W14689  22.261   8.140  21.003 -0.0857  0.1840  0.1703
58449W        W14690  20.530   0.395   2.323  0.1245  0.2188 -0.1423
58450W        W14691  17.566  29.431  23.274  0.3562 -0.2534 -0.0943
58451W        W14692  17.937  14.632  11.498 -0.1564 -0.0375  0.2357
58452W        W14693  17.679  13.489  21.826 -0.2148 -0.1000  0.1000
58453W        W14694  31.251  13.631  13.656  0.0807  0.0815  0.1490
58454W        W14695  30.751  14.468  21.763 -0.2265 -0.0894 -0.0341
58455W        W14696  31.785   4.882  13.844 -0.0501 -0.2366 -0.2127
58456W        W14697  12.401  30.739   9.596  0.0293  0.0518 -0.0672
58457W        W14698  27.497  14.727  19.573  0.2688 -0.1235  0.1380
58458W        W14699  25.409  24.324  16.808  0.0423  0.1163 -0.1278
58459W        W14700  11.772  10.448  19.722 -0.0028 -0.0630  0.1583
58460W        W14701   8.586  13.140  19.842  0.1459  0.0749 -0.0088
58461W        W14702  24.950  19.285  17.184 -0.3148  0.0884  0.2219
58462W        W14703  30.115   9.580  19.684 -0.1601 -0.0700 -0.4741
58463W        W14704   4.169   0.257   7.852 -0.1970  0.0331 -0.0370
58464W        W14705   0.391  32.507   0.959 -0.1935  0.0393  0.0425
58465W        W14706  16.281  22.654  22.556  0.0341 -0.1232  0.2764
58466W        W14707  25.146   9.757  13.310  0.0078  0.2339  0.1343
58467W        W14708   2.897  18.780  23.988  0.1130  0.1922  0.1209
58468W        W14709  11.562  17.869  13.240  0.2750  0.1220  0.0370
58469W        W14710   2.633  10.967  15.253 -0.0778 -0.0241  0.2711
58470W        W14711  34.487  25.210  24.258  0.0315  0.0062  0.0912
58471W        W14712   1.401  33.520  23.288 -0.0803 -0.1180  0.0893
58472W        W14713  15.410  34.826  22.836  0.0744  0.0545 -0.1218
58473W        W14714   0.210   7.849  14.476  0.1580 -0.1362  0.0189
58474W        W14715  34.502  11.834  16.714  0.1292 -0.1974  0.2216
58475W        W14716   4.000  14.235  23.862  0.0651  0.0368 -0.0191
58476W        W14717  14.908  16.358  20.431 -0.0196 -0.0623  0.1627
58477W        W14718  28.774  17.447  11.366  0.1746  0.2157  0.2745
58478W        W14719  28.113  12.140  10.652  0.1647 -0.1663 -0.0645
58479W        W14720  15.205  20.795   9.458  0.1806 -0.2667 -0.0921
58480W        W14721  24.364  23.800  17.271 -0.0129 -0.0631  0.1955
58481W        W14722   5.458   7.286  18.305 -0.0642 -0.0157  0.1986
58482W        W14723   4.609   7.670   4.084  0.0502  0.1228  0.0232
58483W        W14724  32.079  20.430  22.789 -0.2130  0.1947  0.0472
58484W        W14725  11.589  12.759   8.064  0.1503 -0.1019 -0.0043
58485W        W14726  24.546  24.126  21.578 -0.0872 -0.0016 -0.0128
58486W        W14727   8.768  27.227  25.268  0.2831  0.1677  0.0389
58487W        W14728  32.097  13.910   6.487 -0.2279  0.0155 -0.2483
58488W        W14729  35.008  14.887  20.032  0.2191  0.0682  0.1344
58489W        W14730   8.719  23.259  12.760  0.2290 -0.1998  0.1057
58490W        W14731   1.097  30.576  18.316  0.0844 -0.0721 -0.0457
58491W        W14732  11.951   0.795  11.763 -0.1530  0.0837 -0.1024
58492W        W14733  24.529  28.806  18.359  0.0371  0.0250  0.2295
58493W        W14734  14.863  32.755  20.638 -0.0800 -0.3398 -0.1809
58494W        W14735  30.505  31.217  12.095 -0.1991 -0.2714 -0.2459
58495W        W14736  14.666   0.249   9.438 -0.0461 -0.0022 -0.0058
58496W        W14737  34.112  28.802  22.359 -0.3224 -0.2531 -0.0476
58497W        W14738  17.659  12.962   2.709  0.2237  0.1026  0.0105
58498W        W14739   0.266  12.934  19.217 -0.1092  0.1049 -0.2555
58499W        W14740   7.239  16.395   6.599  0.2158  0.0788 -0.3624
58500W        W14741  29.741  24.719  18.224 -0.0438 -0.0547  0.1567
58501W        W14742  31.789  10.269  22.333 -0.0518 -0.0197 -0.0314
58502W        W14743   6.325   8.386   4.685  0.1808  0.1637 -0.0424
58503W        W14744  11.778  31.943  23.476  0.1580  0.3162  0.0864
58504W        W14745   0.563   7.585  12.185  0.0633  0.1745 -0.0687
58505W        W14746  28.020   2.480  25.033 -0.0570  0.0028 -0.0165
58506W        W14747  30.874  29.482   1.041  0.0195 -0.1407  0.2008
58507W        W14748  27.967   9.940  23.848 -0.0016  0.0714  0.2689
58508W        W14749  13.003   6.145   9.935 -0.1284  0.0985 -0.1158
58509W        W14750  27.602  21.255  20.985  0.1935  0.0509 -0.1170
58510W        W14751   7.004  31.116   4.260 -0.5691 -0.3738  0.0144
58511W        W14752   8.589  29.374  10.173 -0.3078  0.0716 -0.2952
58512W        W14753  34.831  32.728  19.759 -0.0902 -0.3019 -0.0346
58513W        W14754  14.381  34.031   9.520 -0.3926  0.0622 -0.4049
58514W        W14755  20.424  14.935  16.704  0.2983 -0.1868 -0.0062
58515W        W14756  24.957  24.844  17.825 -0.0160 -0.0467  0.0626
58516W        W14757  33.490   3.785  22.353  0.3253  0.0897 -0.1387
58517W        W14758  11.486  19.540   4.062 -0.2183 -0.1928 -0.1796
58518W        W14759   6.290   2.114  10.384 -0.0031  0.0512 -0.1884
58519W        W14760  25.469  16.579  23.384  0.0699 -0.1891 -0.2021
58520W        W14761  32.773  32.860   0.798  0.0684 -0.4185  0.1591
58521W        W14762  24.115  14.155  25.575  0.0156  0.2358 -0.1148
58522W        W14763  15.786   8.027  11.066  0.1387  0.3649  0.2262
58523W        W14764  26.866  15.239  20.445  0.0372  0.3972 -0.2048
58524W        W14765   4.179   4.865  18.012  0.3688 -0.1068 -0.0737
58525W        W14766  35.076  10.881  11.181  0.2312 -0.1294 -0.1321
58526W        W14767   6.520  30.172   5.585  0.0497 -0.0850 -0.3562
58527W        W14768  12.533  33.899   4.009  0.1580  0.1624  0.1377
58528W        W14769  26.231  26.015  11.406  0.0172 -0.1105 -0.0539
58529W        W14770  24.239   2.622  13.967  0.1708  0.1735  0.1039
58530W        W14771   2.774   7.936  15.311  0.0037 -0.0244 -0.0079
58531W        W14772  25.915  17.950   9.067 -0.1544  0.0391 -0.1993
58532W        W14773   7.147  24.136   6.348  0.0857  0.3911 -0.3210
58533W        W14774  23.981  33.395   2.678  0.0248 -0.3960  0.3025
58534W        W14775  14.924   7.037   9.892 -0.3142  0.1993 -0.4995
58535W        W14776   8.046  17.478  18.789  0.2631  0.2010 -0.2309
58536W        W14777  12.276  19.124   1.614 -0.0642 -0.1462 -0.2272
58537W        W14778  21.618  26.178  15.255 -0.1294  0.2029  0.0877
58538W        W14779   3.906   1.598   4.011 -0.1330 -0.0773 -0.1242
58539W        W14780  28.665   9.916  19.320 -0.1621 -0.3867 -0.0180
58540W        W14781  32.592  27.002   0.629  0.0941 -0.2576  0.0491
58541W        W14782  33.793  10.755   2.215  0.2678 -0.2078 -0.0086
58542W        W14783  28.424  20.349  11.920 -0.2406 -0.2007  0.1377
58543W        W14784  10.697   3.852   7.676  0.0883 -0.1661  0.2975
58544W        W14785  16.863  11.813   2.444 -0.1743  0.1058  0.2173
58545W        W14786   9.485  23.838   9.541 -0.0518  0.0680  0.2946
58546W        W14787   0.864  33.595  15.986 -0.2823 -0.0942  0.1870
58547W        W14788  19.513   7.961   1.320  0.2619 -0.2225 -0.0420
58548W        W14789  10.406  26.696   6.285 -0.4607 -0.3092  0.2094
58549W        W14790  26.014  31.593  21.859  0.1002  0.1380  0.0438
58550W        W14791  32.083   3.419   0.251 -0.1989 -0.0691  0.1638
58551W        W14792  21.091  24.956  19.490  0.3832  0.4207  0.1046
58552W        W14793   6.110  26.429  24.507  0.0422  0.4142  0.0979
58553W        W14794   6.378  23.115  26.018 -0.0408 -0.1346  0.3031
58554W        W14795  11.090  22.740   4.642 -0.1131  0.0992 -0.3798
58555W        W14796  16.324  15.394   9.133 -0.2485 -0.0016  0.0164
58556W        W14797  20.831  23.801  18.215  0.0754  0.1177  0.4007
58557W        W14798   9.939  18.870   4.440  0.0655 -0.1847  0.0289
58558W        W14799  21.923  26.911  17.651 -0.0098  0.2120  0.0815
58559W        W14800  25.780   0.349  20.783 -0.0019 -0.0277  0.0854
58560W        W14801  21.479  21.340   2.534 -0.0172 -0.2041  0.3427
58561W        W14802   0.313  24.754  20.762  0.0304  0.1465  0.0857
58562W        W14803  13.881   9.048  11.160  0.0792  0.3277  0.0129
58563W        W14804  27.236  29.276  16.175 -0.0253 -0.4998  0.2155
58564W        W14805   4.722  19.873   3.520  0.2630  0.0122  0.2533
58565W        W14806   7.328   9.420  25.575 -0.0096 -0.0483 -0.1509
58566W        W14807   7.768  26.317  13.523 -0.0587 -0.0102  0.0460
58567W        W14808  30.132  15.006   8.944  0.3406 -0.0137 -0.2963
58568W        W14809  18.298  16.483   3.234  0.4080 -0.2064  0.1055
58569W        W14810  28.056  11.466   6.312 -0.3038 -0.2087 -0.0228
58570W        W14811   5.831  23.987   4.994 -0.4339 -0.2031 -0.0384
58571W        W14812  28.431  14.842   4.946  0.0250  0.4262  0.0382
58572W        W14813  27.001  22.469  11.622  0.2980  0.1293  0.1880
58573W        W14814  10.772  13.369   2.728  0.6611  0.3515 -0.0063
58574W        W14815   8.492   0.092   8.746 -0.2338 -0.1417 -0.1510
58575W        W14816   5.536  32.744  20.241  0.1253  0.0417 -0.1715
58576W        W14817  32.878  14.102  15.451  0.1539 -0.1516 -0.0613
58577W        W14818  26.958   0.672  22.572 -0.0632 -0.0537 -0.2143
58578W        W14819   0.901   1.544  19.430  0.1876  0.0245  0.0073
58579W        W14820   0.119  28.508  22.312  0.1130  0.1070  0.1261
58580W        W14821  19.014  17.924  10.367  0.0661  0.0427  0.0627
58581W        W14822   5.367  20.420  26.035  0.4945 -0.0405  0.0014
58582W        W14823   1.308  29.619   6.138  0.1107 -0.0591 -0.1513
58583W        W14824  12.731  18.177  25.458  0.3271  0.1425 -0.2837
58584W        W14825  22.221  15.580  23.967  0.0835 -0.0710 -0.2226
58585W        W14826  12.822  30.876  23.350  0.1936 -0.0419  0.4848
58586W        W14827   5.721  30.304   6.827 -0.2073  0.0320 -0.1194
58587W        W14828  12.945  11.574  25.247  0.0281 -0.1477  0.2017
58588W        W14829   1.337  14.481   0.661  0.2641  0.0767  0.0101
58589W        W14830  33.151  19.270  21.989  0.0943 -0.1916 -0.0375
58590W        W14831  11.264   0.134   3.348  0.1271  0.0661 -0.1237
58591W        W14832  11.489  28.316  24.439 -0.0202 -0.3176  0.3258
58592W        W14833  31.340  31.116  25.008  0.0033 -0.1491  0.0357
58593W        W14834  28.421  31.204  10.041 -0.0372  0.0158  0.0739
58594W        W14835  34.382  22.972  10.779  0.1655 -0.1771  0.0842
58595W        W14836  22.377   5.985  23.004 -0.1069  0.1252 -0.0660
58596W        W14837  11.561   8.543  24.480  0.1022 -0.2185  0.1562
58597W        W14838  27.528  17.469   4.853  0.3464 -0.3340 -0.1537
58598W        W14839  14.280  10.806  18.911 -0.1979  0.1558 -0.2360
58599W        W14840  16.392  22.237   4.702  0.2083 -0.0524  0.0426
58600W        W14841  21.466   4.057  22.185  0.0598 -0.0899  0.0096
58601W        W14842  16.962  24.550  23.262 -0.0105 -0.1360  0.0998
58602W        W14843  19.941  13.007  21.063 -0.2514  0.2505  0.0478
58603W        W14844  31.569  11.686  22.219 -0.3394  0.2277  0.0531
58604W        W14845  18.615   5.265  18.798  0.2721 -0.5349  0.0500
58605W        W14846   2.017  15.074  11.421  0.0847  0.2112 -0.1766
58606W        W14847  14.019   6.929  19.483  0.0230 -0.0977  0.2482
58607W        W14848  15.329  29.786   9.194 -0.1689 -0.2794  0.2815
58608W        W14849  27.400   0.626  12.401  0.2723 -0.2777  0.0047
58609W        W14850  28.730  31.093   4.219 -0.0291 -0.2093 -0.3405
58610W        W14851  32.517  19.296   9.204 -0.0235 -0.0428 -0.1174
58611W        W14852  14.480  24.277  12.217  0.2512  0.0242  0.0280
58612W        W14853   6.842   2.706   9.227 -0.0406 -0.4127 -0.0728
58613W        W14854  31.430   2.988  16.703 -0.2787 -0.2969 -0.0096
58614W        W14855  15.049  33.935   3.392 -0.2554 -0.0252 -0.1630
58615W        W14856   0.980  20.876   0.607  0.2135 -0.0715  0.3055
58616W        W14857  34.308  18.560  16.379  0.0945  0.2001  0.0584
58617W        W14858  20.815  11.638   1.149 -0.2440 -0.0186 -0.0628
58618W        W14859   2.857   6.592  20.669 -0.1192 -0.0767  0.1892
58619W        W14860  33.363   5.041  16.747  0.1217 -0.0466 -0.2268
58620W        W14861  17.889  19.877   4.938  0.1150  0.0291  0.0554
58621W        W14862  15.950   2.352   8.984 -0.4303 -0.1473 -0.1658
58622W        W14863   1.744   8.806   3.871  0.0018  0.1161  0.0539
58623W        W14864   1.096   4.081  19.920 -0.1302 -0.3222 -0.0805
58624W        W14865   5.798  21.071  20.584 -0.1336  0.2293 -0.0897
58625W        W14866  23.130  21.844   2.851  0.0125  0.0925 -0.2908
58626W        W14867  16.117  20.961   5.381  0.1561 -0.2221  0.0081
58627W        W14868  27.305  11.481   0.544 -0.0372 -0.1795 -0.1076
58628W        W14869  21.405  13.004   6.315  0.1496 -0.0147  0.0715
58629W        W14870  18.102  32.526  20.671 -0.1020 -0.0695 -0.3437
58630W        W14871  27.090  14.518  14.072  0.1897  0.2584 -0.2342
58631W        W14872  19.600  25.900  19.856 -0.3905 -0.0361 -0.1161
58632W        W14873  20.475  20.828   3.238  0.0198  0.1026  0.0519
58633W        W14874  21.163  31.828   1.686  0.0531 -0.1197  0.1360
58634W        W14875  25.937   3.826   4.197  0.0205  0.1660  0.2669
58635W        W14876  23.075  10.522   0.677  0.0965 -0.1580 -0.2527
58636W        W14877  25.229  27.554  20.892  0.0947  0.2760  0.0160
58637W        W14878  27.477  23.806   8.648  0.3359  0.2108 -0.2516
58638W        W14879  10.058  30.267   3.363  0.0108  0.0686  0.0932
58639W        W14880   7.086  28.043  14.949  0.1868 -0.1099  0.5107
58640W        W14881   0.489  28.920  25.162 -0.1050 -0.2916  0.1439
58641W        W14882  11.821  34.215  21.025  0.0639 -0.3003  0.1078
58642W        W14883   6.126  33.062   6.473  0.0427  0.0077  0.3663
58643W        W14884  12.525  11.496   5.389 -0.0887 -0.1558  0.1941
58644W        W14885   5.899  15.192  20.560  0.1195 -0.3075  0.3085
58645W        W14886  25.047   6.175   5.491 -0.0267  0.0258 -0.3047
58646W        W14887   8.297  15.067  21.127 -0.3634  0.1022  0.0831
58647W        W14888  22.784   0.617  19.981 -0.0055 -0.0060 -0.0378
58648W        W14889  25.316  35.256  18.708  0.1440 -0.1853 -0.0764
58649W        W14890  12.284   9.300   1.841 -0.1449  0.0598 -0.2723
58650W        W14891  28.411  34.248   2.744  0.0489 -0.1782  0.0433
58651W        W14892  20.275  26.727   4.322 -0.0839  0.1426  0.0576
58652W        W14893  34.002  30.535   5.845 -0.2482 -0.1179  0.1329
58653W        W14894  32.751  19.724   5.207  0.2106  0.0430 -0.5717
58654W        W14895  34.489  17.858  11.256  0.0652 -0.1552 -0.0539
58655W        W14896   4.045  30.881  20.047  0.0562 -0.0496  0.3332
58656W        W14897  16.013  11.730   0.885 -0.1603  0.3164  0.1497
58657W        W14898  13.335  19.049   8.114  0.0812  0.0685 -0.1486
58658W        W14899   4.825  16.794  25.138  0.1145  0.1752 -0.0976
58659W        W14900  23.655  27.637  15.108 -0.1291 -0.0259 -0.0954
58660W        W14901  33.777  11.007   9.523 -0.1520 -0.0517 -0.1473
58661W        W14902  16.473   4.016   4.627  0.2219  0.1616  0.0903
58662W        W14903   4.973   2.437   3.366  0.3257 -0.1956 -0.0200
58663W        W14904   6.314  22.609  10.150  0.1724 -0.1450 -0.0889
58664W        W14905  16.534  30.980   9.694  0.0458 -0.0823  0.0392
58665W        W14906  14.537  16.336   7.245 -0.2501  0.0753 -0.1490
58666W        W14907  27.488  22.830  16.117 -0.0127 -0.1402  0.4081
58667W        W14908  20.847  25.075   8.258 -0.1797  0.3443 -0.1453
58668W        W14909  17.632  18.460   2.965 -0.0166 -0.0541 -0.1953
58669W        W14910   4.422   1.781  23.829  0.1778 -0.4211  0.0771
58670W        W14911  33.118  24.877  11.003 -0.1716  0.1753 -0.0146
58671W        W14912  21.396  28.419  14.107 -0.3671  0.0457  0.2393
58672W        W14913   1.473  13.537  17.750 -0.3055 -0.1137  0.0456
58673W        W14914  13.411  25.207   4.663 -0.2712  0.2422 -0.2271
58674W        W14915  17.771  32.883  16.877 -0.0319  0.1555 -0.1536
58675W        W14916   7.663  27.078  26.221 -0.0519 -0.2815 -0.0835
58676W        W14917   4.497  21.296  22.561  0.0394 -0.1949  0.0016
58677W        W14918   9.607   8.096   5.508 -0.2763 -0.0950  0.0672
58678W        W14919  33.586  34.907  18.893 -0.3114 -0.0027  0.0258
58679W        W14920   0.973  15.138  15.426 -0.0645 -0.0991  0.0062
58680W        W14921   3.509   5.493  19.204 -0.2497 -0.0053  0.0674
58681W        W14922  21.070  31.101   2.909  0.0326 -0.2677  0.1278
58682W        W14923   3.881  19.140   2.320  0.0386  0.0362  0.1033
58683W        W14924  33.661  24.716  22.628  0.0618 -0.0199 -0.0304
58684W        W14925  27.293  26.333  15.623  0.3256 -0.0270 -0.0775
58685W        W14926   1.578  29.856  20.171 -0.3385  0.2504 -0.0703
58686W        W14927  10.303  27.741  12.135 -0.2989 -0.0190 -0.1179
58687W        W14928  17.133   7.116  19.701 -0.1214 -0.1170 -0.3076
58688W        W14929  28.525  32.683   3.822  0.0896 -0.1765  0.1872
58689W        W14930  25.654  15.761  25.094  0.1319 -0.1879  0.0641
58690W        W14931  16.209  23.025  13.010 -0.1611  0.1787 -0.2337
58691W        W14932   9.009   5.018  22.086 -0.3142  0.0474  0.1720
58692W        W14933  13.328  23.111  10.826  0.0523 -0.0253  0.0771
58693W        W14934   1.259  31.873  22.550  0.0343 -0.1707  0.0285
58694W        W14935   5.350  24.330  20.534 -0.0419 -0.0382  0.0289
58695W        W14936  14.433  29.624  11.961 -0.1995  0.3129  0.0489
58696W        W14937   0.721  22.120  20.170  0.2495 -0.2010 -0.2965
58697W        W14938  10.184  14.767   8.197 -0.2285 -0.1354  0.0460
58698W        W14939   1.613   2.258   8.820 -0.3950  0.1955 -0.0628
58699W        W14940  31.827  15.955  20.679 -0.0986  0.0966 -0.1534
58700W        W14941  18.256  11.685   1.547 -0.3399 -0.1567 -0.0028
58701W        W14942  15.117  10.711   2.042  0.5351 -0.0580 -0.3281
58702W        W14943   8.945  18.518  23.507 -0.0811  0.0752 -0.2002
58703W        W14944   5.548  12.411   0.518 -0.0693  0.0272 -0.1219
58704W        W14945   8.355  29.582   7.263  0.3858  0.0451 -0.3520
58705W        W14946   5.871  12.676   4.360 -0.2751  0.0231  0.3230
58706W        W14947  24.985  26.107  13.911 -0.1175 -0.0874  0.0665
58707W        W14948   7.920  29.682   4.623 -0.5301  0.0894  0.3905
58708W        W14949  21.014  17.204  17.138 -0.2195  0.1650 -0.0396
58709W        W14950   4.615   7.535   0.904  0.3049 -0.3195  0.1460
58710W        W14951  30.410  25.517  16.983  0.5321  0.0807  0.0435
58711W        W14952  30.723  11.403   7.269 -0.0911 -0.1797  0.1492
58712W        W14953  24.786  22.380  17.052  0.0415  0.0792  0.0409
58713W        W14954  31.401  18.504   5.089  0.2049  0.0114  0.1222
58714W        W14955  27.252   6.761   0.809  0.3097  0.2777  0.0603
58715W        W14956  32.161  28.175   0.118  0.0030 -0.1403  0.1270
58716W        W14957   4.164  13.318   4.297 -0.3170 -0.0590  0.2333
58717W        W14958   4.590   0.590  21.261  0.2692  0.0375 -0.0385
58718W        W14959  19.812  17.726  19.549  0.1417 -0.1988 -0.0239
58719W        W14960   8.680  15.112  10.079  0.0967  0.3046  0.0051
58720W        W14961  26.086  14.808  13.174 -0.0412  0.1508  0.3016
58721W        W14962  11.074  16.772  22.341 -0.0488  0.3566 -0.1925
58722W        W14963   7.362  13.245  23.562 -0.0621  0.1529  0.2236
58723W        W14964   7.017  27.555  14.673 -0.0669  0.3619 -0.0207
58724W        W14965  21.971   7.728   0.083 -0.1482  0.2066  0.1998
58725W        W14966  29.553  34.296  18.195 -0.0521 -0.0389  0.0602
58726W        W14967  19.805  29.983   4.524  0.0955 -0.0060 -0.0495
58727W        W14968  31.911   0.721   0.448 -0.0179  0.1906 -0.2625
58728W        W14969  12.833  12.708  10.042  0.0029 -0.1232 -0.0966
58729W        W14970  12.218  27.823  13.848  0.0860 -0.0320  0.1387
58730W        W14971  25.792  25.413  17.891  0.0607 -0.0307 -0.0154
58731W        W14972  13.349  34.361   2.849  0.3258  0.3940 -0.0135
58732W        W14973  21.302  22.826  21.981  0.0486 -0.0292 -0.1034
58733W        W14974  28.129   0.028  19.311  0.1189  0.3666 -0.1020
58734W        W14975   5.448   9.678  20.809  0.0786  0.2765 -0.1478
58735W        W14976  28.820  33.953  18.808  0.1608  0.3883  0.1227
58736W        W14977   5.964   4.708   5.151  0.4247  0.0728 -0.0428
58737W        W14978  18.910  35.185   5.689 -0.3273 -0.0938 -0.0074
58738W        W14979  34.693  12.497  12.346 -0.0725 -0.1663 -0.1206
58739W        W14980   7.077  31.445   6.773  0.1046  0.0560 -0.0895
58740W        W14981   0.938   4.729  25.113 -0.0432 -0.1853  0.3527
58741W        W14982  24.581  27.757  11.584  0.1226  0.0541  0.0496
58742W        W14983   2.736  10.552  17.488 -0.0709  0.2050 -0.0413
58743W        W14984  30.342  10.791  17.880  0.1067 -0.0427  0.3670
58744W        W14985   1.513   6.660  24.985 -0.1490  0.0800 -0.2259
58745W        W14986  11.125   3.924  24.967 -0.1051  0.0619 -0.1455
58746W        W14987  35.063  17.096   0.460 -0.1128 -0.0720  0.2191
58747W        W14988  17.301  34.691   0.181 -0.1542  0.1432  0.0045
58748W        W14989  30.460  26.331  20.390  0.0446  0.1112 -0.1324
58749W        W14990  18.780  30.992   5.392  0.0693  0.0388  0.0452
58750W        W14991  14.923  10.941  22.066 -0.0988 -0.1210 -0.0693
58751W        W14992  19.112  21.328   4.425 -0.1077  0.1786  0.0716
58752W        W14993   4.159  20.436   2.531  0.2808  0.1136  0.1158
58753W        W14994  33.706  28.878   6.420 -0.0082 -0.3038 -0.3980
58754W        W14995  27.972  29.173  19.031 -0.1514  0.2678 -0.1585
58755W        W14996  10.476  11.816  23.171 -0.2935  0.1494  0.0166
58756W        W14997  30.598  35.383  22.835  0.1730 -0.1276 -0.0497
58757W        W14998   3.964  25.898   4.655  0.1272 -0.3222  0.2503
58758W        W14999   7.889  11.994  24.530  0.0878  0.1655  0.2430
58759W        W15000   7.665   8.429   1.396  0.1394 -0.0732 -0.2624
58760W        W15001  32.094  32.758   5.469 -0.0509  0.1960  0.2815
58761W        W15002   6.279   0.617   3.108 -0.3201  0.0663 -0.0123
58762W        W15003   2.862  19.153  15.243 -0.3635  0.1238  0.0525
58763W        W15004  24.805   5.040  18.196 -0.2304 -0.0252 -0.0071
58764W        W15005  32.676  26.704  12.968 -0.1020  0.0356  0.0253
58765W        W15006  35.244  19.693  20.356 -0.2632  0.0600  0.0867
58766W        W15007  17.878  12.140   6.082 -0.0344 -0.0335 -0.1817
58767W        W15008  10.741  17.294  23.416  0.1412  0.0601 -0.0608
58768W        W15009  18.023  17.136   1.772 -0.0237 -0.0130  0.1284
58769W        W15010   5.314   8.471  19.144 -0.1356  0.0780  0.1626
58770W        W15011  10.710  27.113  17.036 -0.1133  0.0869 -0.2429
58771W        W15012  31.451  31.636  25.004  0.2142  0.1777  0.0060
58772W        W15013  11.010  32.193  25.770  0.2441  0.0382 -0.2510
58773W        W15014   8.510  27.024   0.918 -0.0294  0.0492 -0.1779
58774W        W15015  29.769   6.014  20.067  0.0553  0.2681  0.1641
58775W        W15016  29.682  21.396  16.936 -0.1045  0.1513 -0.1922
58776W        W15017  22.401  33.283  16.203 -0.2048 -0.4460  0.4540
58777W        W15018  20.755   9.124  20.479 -0.2059  0.2696  0.3146
58778W        W15019  14.717  24.870   5.932 -0.2923  0.0034 -0.0674
58779W        W15020  14.471  11.919   0.774 -0.2438  0.0471 -0.0518
58780W        W15021   9.922  24.750   6.636 -0.3436  0.2857 -0.1948
58781W        W15022   8.873   1.670  14.203 -0.2365  0.0503  0.0852
58782W        W15023   1.516  11.435  20.198  0.0463 -0.0076  0.0104
58783W        W15024  14.415  21.887  24.890  0.0136  0.1513 -0.0090
58784W        W15025  12.862  13.530   1.505 -0.1122  0.0795 -0.1207
58785W        W15026  14.749   8.955   2.661 -0.4962  0.0923 -0.1730
58786W        W15027   3.564   7.157  22.348  0.1265 -0.1074 -0.2163
58787W        W15028  13.867  28.882  24.715  0.2716  0.2155  0.3511
58788W        W15029  26.545  23.943  21.488  0.1157 -0.1895 -0.3613
58789W        W15030  24.998  13.916  23.245 -0.0252  0.0089 -0.0519
58790W        W15031  22.564  33.016  23.260  0.0814  0.1334 -0.0038
58791W        W15032  16.945  20.543   2.784 -0.2931  0.2194 -0.1759
58792W        W15033  25.010   7.749  14.597  0.3132  0.0152 -0.0760
58793W        W15034   7.159   4.732  20.701  0.1892 -0.1021  0.0774
58794W        W15035  10.991  34.746  10.454  0.1188  0.0265 -0.1426
58795W        W15036   8.543   5.845   8.641  0.1253 -0.4051 -0.1772
58796W        W15037   1.215  26.638  25.263  0.0714  0.0070 -0.1134
58797W        W15038  34.707  16.788   6.005 -0.0402  0.0345 -0.3102
58798W        W15039  20.889  18.196  19.281  0.2114 -0.1218 -0.1067
58799W        W15040  28.303  17.970  19.929  0.0967  0.0713 -0.1511
58800W        W15041  16.716  28.054  21.760 -0.0900  0.0633 -0.2077
58801W        W15042  29.446  12.194   8.287 -0.0097 -0.0553  0.3160
58802W        W15043  18.380  22.884   6.066  0.0521 -0.0745  0.2253
58803W        W15044  13.565  23.029   0.059 -0.0074  0.3085 -0.2555
58804W        W15045   1.609  25.396   1.095  0.1835  0.0600 -0.1896
58805W        W15046  33.302  32.706   1.977 -0.3635  0.1540 -0.0088
58806W        W15047  23.304  22.528  21.053 -0.1537  0.0552 -0.0365
58807W        W15048  13.855  13.184   6.661  0.3042  0.1608 -0.4465
58808W        W15049  34.909  32.639  15.685  0.1164  0.1753 -0.1942
58809W        W15050  14.152  33.011  13.312  0.0443 -0.0669  0.1036
58810W        W15051  26.240   8.459  14.454 -0.1653 -0.2437 -0.4776
58811W        W15052  23.175  25.336   0.696 -0.0083 -0.1690 -0.0423
58812W        W15053  34.623  15.679  24.483  0.2424 -0.0172 -0.1754
58813W        W15054  23.861  21.226  12.366 -0.1953 -0.1072  0.1435
58814W        W15055  28.927   7.948  23.087 -0.0188  0.1238 -0.0682
58815W        W15056   4.487  22.296  20.820 -0.4791 -0.0909  0.1142
58816W        W15057  25.047   5.545  20.886 -0.1536  0.3324 -0.0012
58817W        W15058  20.944  12.432  24.863  0.0289 -0.0620  0.1757
58818W        W15059  27.703   8.704  20.109 -0.3686 -0.2596  0.1329
58819W        W15060  20.665   4.820   9.404 -0.0252  0.1285  0.1018
58820W        W15061  10.122  11.775   5.563 -0.0952  0.3228  0.1203
58821W        W15062  10.276   0.590   7.017 -0.1844  0.1241 -0.1993
58822W        W15063   9.112   8.529  20.320  0.0067  0.0416 -0.0808
58823W        W15064  25.910  21.153  23.949 -0.1116  0.1136  0.1707
58824W        W15065  28.170   6.401  12.520  0.1368 -0.1276 -0.0339
58825W        W15066   4.667   4.718   6.266 -0.0968  0.1695  0.0944
58826W        W15067  34.086   1.569   1.935 -0.1669 -0.1604 -0.0761
58827W        W15068   6.624  22.345   4.762 -0.3731  0.0268 -0.4022
58828W        W15069  23.489  20.165  13.947  0.1722 -0.0779 -0.1148
58829W        W15070  17.756  34.921   1.920 -0.0051 -0.0090 -0.0036
58830W        W15071  34.294  19.716   9.562  0.0130  0.1772  0.0666
58831W        W15072  26.716   9.996  22.838 -0.1446 -0.1187 -0.2639
58832W        W15073  14.010  10.491  23.132  0.1408 -0.0122  0.4832
58833W        W15074   9.761  34.305   1.622 -0.0909 -0.1126  0.2284
58834W        W15075  33.913  15.078   0.033  0.0025 -0.3035  0.3283
58835W        W15076  25.328  33.829  19.345  0.2767  0.2791 -0.1755
58836W        W15077   6.183  15.902   6.114  0.0562 -0.0891  0.1717
58837W        W15078   4.338  20.500  18.458  0.0285  0.0435  0.2412
58838W        W15079  16.552  11.250  21.422  0.1339  0.1959 -0.1802
58839W        W15080   7.336  15.238  22.734 -0.0145 -0.0587  0.1734
58840W        W15081  16.888   1.086   5.872  0.2663  0.0846 -0.1403
58841W        W15082   2.440  32.727   5.159 -0.0199 -0.0133 -0.1487
58842W        W15083  14.442   4.691   8.057 -0.0802  0.2741  0.1109
58843W        W15084   0.632  22.270  21.900  0.1835 -0.0273 -0.1783
58844W        W15085  28.242   8.843  16.081  0.0003 -0.0321 -0.2396
58845W        W15086  11.201   5.929  21.272  0.0282  0.2253  0.0150
58846W        W15087  27.368  16.576   7.164 -0.2473 -0.1922  0.1321
58847W        W15088   7.960  21.879   2.647 -0.1834 -0.0010 -0.2465
58848W        W15089  14.053  13.996  20.239 -0.1050  0.1916  0.3654
58849W        W15090  34.260  17.762  25.624 -0.0935  0.3688 -0.0656
58850W        W15091  22.641  16.508  20.439 -0.1789  0.0297  0.3403
58851W        W15092  14.949  19.255  23.813  0.1219 -0.0268 -0.1043
58852W        W15093  10.605  33.189   5.748  0.0009 -0.3208 -0.0453
58853W        W15094   7.935   2.061  13.998  0.0431 -0.0543  0.1759
58854W        W15095   9.318  24.748  13.989 -0.0969 -0.4238 -0.1981
58855W        W15096  14.028   6.681  18.630 -0.0550  0.2075 -0.1073
58856W        W15097  18.119  33.028   0.444  0.0844 -0.2465 -0.0734
58857W        W15098  13.822   9.532   6.917  0.0064  0.1250  0.6645
58858W        W15099  12.387  15.812  24.865  0.0613 -0.1001 -0.3669
58859W        W15100  33.278  26.999  10.381  0.1580  0.1470  0.2078
58860W        W15101   4.828  11.660  14.653  0.3320 -0.1164 -0.2823
58861W        W15102   2.284   2.563   0.451 -0.1220  0.4059  0.1872
58862W        W15103  29.536  17.192   4.330  0.3866 -0.0481 -0.0663
58863W        W15104  28.283  20.024   6.322 -0.1905  0.1640 -0.0168
58864W        W15105  31.590  27.268  11.092  0.1608  0.3618  0.0372
58865W        W15106   6.186   8.082   3.903  0.2837 -0.1036  0.1836
58866W        W15107  10.389  29.342  12.015 -0.1398  0.2131 -0.2740
58867W        W15108   5.178   3.102  18.048  0.0464  0.2190  0.2196
58868W        W15109   2.486   8.972  14.918 -0.1559  0.0820  0.1638
58869W        W15110  23.056  11.079  15.394 -0.1563 -0.0522 -0.2397
58870W        W15111  24.173   8.285  20.025 -0.1739 -0.0949  0.3443
58871W        W15112   5.707   0.847   5.747  0.2287 -0.0037 -0.4057
58872W        W15113  29.465  10.046  15.224  0.3617 -0.0268  0.0489
58873W        W15114  10.649  25.377  11.447  0.0545 -0.1359  0.1476
58874W        W15115  12.583  27.736  10.690  0.0602  0.1286 -0.0670
58875W        W15116  27.646   2.164   5.755 -0.0899  0.0717  0.0844
58876W        W15117  32.378   2.241   2.567 -0.1268  0.3705  0.0129
58877W        W15118  19.862  25.269   8.000 -0.0187 -0.1245 -0.1369
58878W        W15119  28.082   0.051  10.890 -0.0063  0.1362 -0.0501
58879W        W15120  24.852   3.790  25.346 -0.4270 -0.2244 -0.3128
58880W        W15121   1.829   6.840  24.292 -0.1804  0.0462 -0.0540
58881W        W15122   0.099  21.680   9.657 -0.2251  0.1335 -0.1537
58882W        W15123   8.791  19.941  23.658 -0.3361 -0.0944  0.0902
58883W        W15124  12.014  16.206  24.818  0.2503  0.0936  0.2111
58884W        W15125   7.462   5.006   9.178 -0.2156 -0.3796 -0.2288
58885W        W15126  18.358  12.793   6.438  0.2109  0.1066 -0.0813
58886W        W15127  30.338  12.907   5.369  0.1945 -0.2540  0.0054
58887W        W15128  26.037   0.454   2.013  0.3773 -0.0730  0.1018
58888W        W15129  31.237   6.888  16.675 -0.1031  0.0538  0.2801
58889W        W15130  30.079  22.606  13.640 -0.3193 -0.0069  0.0359
58890W        W15131  22.870  26.924  23.548 -0.0143 -0.0679  0.0540
58891W        W15132  32.228   1.850   1.662  0.2286  0.1731  0.1081
58892W        W15133   7.733  20.641  10.167  0.0704 -0.0023  0.0587
58893W        W15134  11.770  22.202   2.732 -0.1294  0.1448  0.0300
58894W        W15135  21.821   7.292   7.791 -0.1581 -0.0302 -0.0657
58895W        W15136  14.133   4.076  20.638 -0.2566 -0.1838 -0.0127
58896W        W15137   4.227  24.846   4.807  0.0506 -0.0815  0.2459
58897W        W15138   9.750   7.700   8.550 -0.4769 -0.3431  0.1865
58898W        W15139  25.931   9.574  23.500 -0.2304 -0.2113 -0.0223
58899W        W15140  26.377  14.572   8.836 -0.0959  0.0052  0.1690
58900W        W15141  19.829  18.335   4.854  0.1697  0.0027 -0.1304
58901W        W15142  19.036   8.699   9.836  0.0767  0.1098 -0.2334
58902W        W15143  21.812  19.266  24.412 -0.0827 -0.1113 -0.1062
58903W        W15144  32.898  21.332  24.768  0.1336  0.1894  0.0304
58904W        W15145  24.994  23.131   0.698 -0.0392  0.0219  0.0080
58905W        W15146   9.303  12.531  24.941  0.4044  0.1144 -0.0507
58906W        W15147   4.571  17.288  24.850 -0.0811 -0.2464  0.0480
58907W        W15148  23.760  33.676  14.833  0.0898  0.0083 -0.1219
58908W        W15149  16.235  34.420  21.741  0.0209 -0.0193 -0.0110
58909W        W15150  19.507  23.312   6.059  0.0422 -0.0675 -0.2174
58910W        W15151  34.980  30.565  22.268  0.0820 -0.1780  0.1743
58911W        W15152   4.146  27.224   6.621 -0.2936 -0.1583  0.0552
58912W        W15153   1.448  32.771  19.109  0.1007  0.2046  0.0054
58913W        W15154   8.788  33.645   3.422  0.0795  0.3120 -0.1348
58914W        W15155   2.475  30.908   2.285 -0.2370 -0.0506 -0.0071
58915W        W15156  20.979  23.082   3.145 -0.1048 -0.1080  0.0554
58916W        W15157  11.932  35.218  10.233 -0.0815 -0.0528 -0.1592
58917W        W15158   3.451   7.506  24.736  0.2778  0.1403  0.1474
58918W        W15159   6.095   4.211  23.032 -0.2781 -0.2639  0.0497
58919W        W15160  25.124  15.921  19.985 -0.3159  0.1296 -0.2327
58920W        W15161  21.336  27.702  16.894 -0.2616  0.1952  0.2949
58921W        W15162  31.636  31.104  21.375 -0.0729  0.4617  0.1456
58922W        W15163  11.816  24.462  11.465  0.1618 -0.1413  0.1696
58923W        W15164  21.410   5.702  23.097  0.0743  0.0343 -0.2075
58924W        W15165  21.208  31.673   0.785  0.1027  0.0220 -0.1010
58925W        W15166   0.291   7.630   0.118  0.1950  0.0699 -0.3269
58926W        W15167  15.166  30.487   1.969  0.0900  0.1097  0.0432
58927W        W15168  11.245  19.230   0.345  0.0802  0.1077 -0.0933
58928W        W15169  26.061   5.214  12.637 -0.2296 -0.1233 -0.0653
58929W        W15170   6.739   5.328  21.379  0.1753 -0.6546  0.1889
58930W        W15171  16.754   1.817   0.718  0.0811 -0.0649  0.1688
58931W        W15172  28.468   2.617  18.225  0.2749  0.0555  0.0170
58932W        W15173  25.584  33.175  17.625  0.0866 -0.0939 -0.0117
58933W        W15174  20.927   5.526  21.996  0.0605  0.0871  0.6052
58934W        W15175   8.563  31.162  24.931  0.1236 -0.1668 -0.2726
58935W        W15176   7.553  31.419  13.262  0.2363  0.0853 -0.0088
58936W        W15177  14.264  23.464   3.066  0.1094 -0.1778 -0.0391
58937W        W15178  18.700  24.638  22.553  0.4325  0.0735 -0.1594
58938W        W15179   0.755  17.957  19.759 -0.1348  0.4005  0.2000
58939W        W15180  12.682  26.249  17.044 -0.2016 -0.1880  0.0032
58940W        W15181  10.227  17.921  22.210  0.1074 -0.0131  0.1554
58941W        W15182  11.311  12.764  13.702  0.0902 -0.3468 -0.0148
58942W        W15183  34.643  25.983  15.301  0.0585  0.0807  0.3563
58943W        W15184  16.729  31.364   3.103 -0.1178  0.0786 -0.0675
58944W        W15185   0.774   9.817  24.007  0.2351 -0.0530  0.1923
58945W        W15186  28.213  11.613   8.879  0.2327  0.0647 -0.3877
58946W        W15187  21.862   8.834  19.205  0.0889  0.1573 -0.1743
58947W        W15188  28.012  13.422  20.668 -0.0980 -0.1399  0.2040
58948W        W15189  28.605   9.964  17.803 -0.0179  0.0210  0.2505
58949W        W15190  17.631  30.366   2.255  0.1441 -0.1477  0.2070
58950W        W15191  31.453  17.485   5.751  0.0764  0.0169 -0.2739
58951W        W15192  21.296   5.982  25.895  0.0337  0.0050 -0.0856
58952W        W15193  29.226  32.682   5.622 -0.0853 -0.5015  0.0976
58953W        W15194   5.620  20.020   2.944 -0.1556 -0.0613  0.0192
58954W        W15195  34.594  11.210  14.540 -0.0597 -0.0419 -0.2083
58955W        W15196  29.452  20.025  11.204 -0.2487 -0.3427 -0.0843
58956W        W15197  18.278  24.587   0.352 -0.1392 -0.0800  0.1535
58957W        W15198  13.710  30.787  11.796  0.3787 -0.0119  0.3174
58958W        W15199   3.767  17.396  16.637  0.0488 -0.2337  0.0236
58959W        W15200  33.979  33.261  21.718  0.0510 -0.0783 -0.0503
58960W        W15201  27.261  33.747  16.365 -0.0317 -0.2574 -0.0082
58961W        W15202  26.184  13.790  17.525  0.1616  0.1862  0.0767
58962W        W15203  26.645  19.883  26.187  0.1125 -0.2728  0.1480
58963W        W15204  24.652  12.210   1.225 -0.0757  0.1106  0.0155
58964W        W15205   9.315  11.313   3.909 -0.0061  0.0706 -0.2405
58965W        W15206   6.453  29.789  11.826  0.2007 -0.2398 -0.2080
58966W        W15207  18.982   5.275  25.798 -0.1795 -0.1588 -0.0638
58967W        W15208   4.337   4.725   9.049 -0.0992  0.0095  0.3617
58968W        W15209   7.994  32.511  21.435  0.1175 -0.0099  0.1276
58969W        W15210  16.131   2.471  10.565  0.1942  0.0978 -0.0798
58970W        W15211   1.895   3.767   8.001  0.0716  0.2216 -0.0692
58971W        W15212   2.182   6.409   1.486  0.1280 -0.1122  0.1804
58972W        W15213  34.056  14.470  10.075  0.2022  0.0709 -0.1070
58973W        W15214  34.716   4.930  12.810  0.2746  0.0192  0.0960
58974W        W15215  31.837   2.180   1.623 -0.2676 -0.0359  0.1635
58975W        W15216  11.129  21.410   2.440 -0.2677  0.0994  0.0776
58976W        W15217   9.005   3.583  10.114 -0.0347  0.2056  0.0918
58977W        W15218  17.524  15.676  20.615 -0.2445 -0.0267  0.3321
58978W        W15219  13.115   8.888   1.512  0.1207  0.2121 -0.2812
58979W        W15220  12.297  11.298  21.379 -0.0301 -0.0439 -0.1933
58980W        W15221  10.062  20.344  25.087  0.0276  0.0572 -0.4222
58981W        W15222   3.485   5.514   3.011  0.2268 -0.0603 -0.1422
58982W        W15223  11.444  21.180  14.012  0.1437 -0.2101  0.0775
58983W        W15224   0.695  16.903   1.990 -0.0848 -0.1971 -0.0506
58984W        W15225  33.942   2.111   7.193  0.0491  0.1962  0.1397
58985W        W15226  11.082  17.547  21.347  0.0298 -0.3141 -0.1726
58986W        W15227   3.596  20.110  22.793  0.0720  0.2118  0.0212
58987W        W15228   4.777   5.878  23.021 -0.1257  0.1387  0.1857
58988W        W15229  24.865  25.237   1.686 -0.2119  0.0182 -0.0760
58989W        W15230   6.699  25.514  13.688  0.2749 -0.0884 -0.1782
58990W        W15231  16.243  18.955  24.425  0.3075  0.0077  0.0053
58991W        W15232  14.127   8.109   7.543  0.0888 -0.2131  0.0046
58992W        W15233   5.589  28.727   9.245 -0.2730 -0.1059  0.2661
58993W        W15234  25.670  21.843  16.593 -0.0650  0.0399 -0.1249
58994W        W15235  21.782  16.364  26.085 -0.0872  0.0982  0.0225
58995W        W15236  30.713  20.886  13.379 -0.0069  0.0187 -0.0186
58996W        W15237  28.184  28.863  13.958  0.3155  0.0234  0.2272
58997W        W15238  34.644  33.330   3.182 -0.4367  0.0598  0.0134
58998W        W15239  34.906  15.016  21.128 -0.3591 -0.2008  0.1172
58999W        W15240  18.831  15.182   6.731  0.2477 -0.0851 -0.4126
59000W        W15241  14.531   9.198   2.280  0.1276 -0.4788 -0.0011
59001W        W15242  22.277  31.076  14.959 -0.2525  0.0995  0.2859
59002W        W15243  10.362  25.952   0.744  0.2537 -0.1749 -0.3168
59003W        W15244   5.752  29.624  20.689 -0.1289 -0.0773 -0.4893
59004W        W15245  22.334  23.033   2.556  0.0788 -0.0137 -0.1952
59005W        W15246  20.873  11.859  16.175 -0.2539  0.2747 -0.0666
59006W        W15247  35.237  34.986  20.644  0.1899  0.1306  0.2692
59007W        W15248  18.032  34.720   8.375  0.1526  0.1657  0.1342
59008W        W15249  24.243  25.830   2.125 -0.0855  0.2242 -0.2776
59009W        W15250  20.281   5.331  16.981  0.2166 -0.0609 -0.2869
59010W        W15251  32.773  22.603  23.451  0.1802 -0.3859  0.3241
59011W        W15252  30.859  30.823   5.607 -0.3985 -0.5079  0.0227
59012W        W15253  21.847  13.491   2.090 -0.1819  0.2614 -0.1320
59013W        W15254  32.323  30.874  23.679 -0.1453 -0.3385 -0.0993
59014W        W15255   9.050  14.038  22.800  0.0140  0.0769  0.1861
59015W        W15256  30.304   6.218  15.547 -0.0187  0.3256  0.0872
59016W        W15257  34.565   8.046  13.030 -0.1223 -0.1247 -0.0045
59017W        W15258   9.561  11.010   0.904 -0.1065  0.0473  0.0992
59018W        W15259  33.363  18.387   7.403 -0.0225 -0.0149  0.0627
59019W        W15260  21.176  17.467  22.571  0.1123  0.0405  0.0250
59020W        W15261  22.158  31.268  15.829  0.2441 -0.5082  0.0581
59021W        W15262   4.450   2.898   4.933  0.2336  0.0106 -0.0884
59022W        W15263   3.418   5.445  15.912  0.1565 -0.1999 -0.0489
59023W        W15264  11.491  17.907   3.688 -0.2873 -0.4052  0.1051
59024W        W15265  35.337  15.285  22.910 -0.1542 -0.2832  0.0519
59025W        W15266  28.496  23.657   6.261 -0.2049 -0.3979  0.0672
59026W        W15267  17.737  26.167   9.013 -0.0294 -0.0351 -0.0532
59027W        W15268   1.052  18.568   0.946 -0.0715 -0.0033  0.1157
59028W        W15269   0.481   8.648   4.480  0.2313 -0.0527 -0.2086
59029W        W15270  30.166   1.060  15.386 -0.3102 -0.1093  0.0996
59030W        W15271   6.612  14.798   4.619 -0.0184  0.3817  0.1123
59031W        W15272  24.870  21.434  26.152 -0.2038  0.2623  0.2233
59032W        W15273  27.540  10.762  16.015 -0.1981  0.0688 -0.3013
59033W        W15274  32.196  20.001   7.064  0.0834 -0.5353 -0.1343
59034W        W15275  14.472  28.868  10.599  0.1709 -0.1542  0.0396
59035W        W15276  16.158  24.161  10.043  0.2996 -0.1594  0.0300
59036W        W15277  23.995  20.604  19.125 -0.3113 -0.2612  0.0429
59037W        W15278  34.308   0.242  18.842  0.2740 -0.0402 -0.0532
59038W        W15279  19.282   5.567   2.028  0.0390 -0.0463 -0.0103
59039W        W15280  34.743  27.795  15.263 -0.1072 -0.0917  0.1490
59040W        W15281   8.004  28.780   4.690 -0.1014 -0.0007 -0.1445
59041W        W15282  15.454  26.375   9.020 -0.0469 -0.1626 -0.2319
59042W        W15283  22.908  29.046   0.275  0.3930 -0.2877  0.1464
59043W        W15284  33.781  10.532  17.348  0.1286  0.0147  0.0143
59044W        W15285  26.653  17.128  14.160  0.1382  0.1056 -0.1406
59045W        W15286   4.151  23.914   5.576  0.3940  0.3643 -0.5282
59046W        W15287  23.563   1.274  21.917 -0.1202  0.4298  0.1084
59047W        W15288   8.329  20.936  15.098  0.4129  0.0436  0.0776
59048W        W15289  25.639  30.280  13.983 -0.1812  0.3157  0.0630
59049W        W15290   0.082   7.045  15.936  0.1955 -0.1967 -0.2299
59050W        W15291  34.058   2.380  25.759  0.4004 -0.0705 -0.0303
59051W        W15292   5.181  26.390  11.764 -0.1555 -0.6269  0.0245
59052W        W15293  13.248   4.380  11.328  0.0941  0.1583 -0.1383
59053W        W15294   6.947  16.267   6.196 -0.2814  0.0892 -0.0233
59054W        W15295   6.276  30.202   8.399  0.0051  0.2223  0.2779
59055W        W15296   0.224  24.568  25.346  0.1159  0.1605  0.0203
59056W        W15297  32.573  15.817  12.564 -0.2854  0.0080  0.1679
59057W        W15298  16.084  24.112  11.996  0.0768  0.2944 -0.0862
59058W        W15299  32.979  35.232  21.334  0.1369 -0.0643 -0.0555
59059W        W15300  21.960   8.004  16.817 -0.1235 -0.1232  0.0800
59060W        W15301  28.076   4.858  20.103 -0.2849  0.2188 -0.0977
59061W        W15302  14.487  16.883  25.994  0.1631  0.3017  0.0159
59062W        W15303   7.666  24.014  13.362 -0.1477 -0.3561  0.4005
59063W        W15304  22.867  12.610  26.251  0.4364  0.1251 -0.0717
59064W        W15305  33.115  18.196  23.294  0.2991 -0.0695  0.2972
59065W        W15306  35.125  34.109   3.646 -0.0419 -0.1157  0.1295
59066W        W15307  16.111  27.865   0.787 -0.0064  0.0224  0.1975
59067W        W15308  24.959  17.124  14.610  0.1876  0.1464  0.0578
59068W        W15309  30.268  26.097  24.867  0.0549 -0.2378  0.0516
59069W        W15310  23.634  32.495   4.057  0.0767 -0.1047  0.2468
59070W        W15311   5.490  30.358   6.017 -0.2079 -0.1870 -0.2872
59071W        W15312   5.298  22.211  22.308  0.0596 -0.2986 -0.2166
59072W        W15313  34.341  18.392  14.494 -0.1381  0.0550 -0.3335
59073W        W15314   5.948   7.437  20.090 -0.0312  0.1436  0.2269
59074W        W15315  26.897  29.597  18.907  0.2776  0.2268  0.0317
59075W        W15316  18.725   1.136  20.798  0.2346 -0.3679  0.1671
59076W        W15317  19.627  11.946  25.390 -0.0920  0.1758  0.3506
59077W        W15318  19.712  11.120   9.009  0.2740  0.0903 -0.1439
59078W        W15319   7.608   6.849   0.915  0.0716  0.2917 -0.0280
59079W        W15320  27.690  31.897  17.122 -0.0508 -0.1527  0.2691
59080W        W15321  33.291   9.580   9.223 -0.0801  0.1450  0.0003
59081W        W15322  17.307   6.140   7.776 -0.0920  0.0970  0.0065
59082W        W15323  35.133  32.353   8.579  0.0164 -0.2473 -0.1268
59083W        W15324  14.233  33.067   9.364  0.1817 -0.0746  0.3265
59084W        W15325   0.496  12.213  13.403 -0.1180 -0.2027  0.0556
59085W        W15326  13.498   3.802   9.762  0.0746  0.0235 -0.2811
59086W        W15327  17.078  26.855  11.980 -0.0865  0.2017  0.0600
59087W        W15328  28.199   8.144   9.191  0.0771  0.1049 -0.3390
59088W        W15329  24.736  27.314  17.599 -0.0664 -0.1979  0.0847
59089W        W15330  19.236   2.417  20.710 -0.0187 -0.1554  0.0838
59090W        W15331   7.506  10.801  19.040 -0.2619  0.1543 -0.1052
59091W        W15332  30.727  11.286  15.066  0.2685 -0.0084 -0.4893
59092W        W15333  12.910   5.632  25.217 -0.3342 -0.3946  0.1280
59093W        W15334  25.294   8.380  25.374  0.0984  0.1304 -0.2472
59094W        W15335   7.945  25.508   3.006 -0.5460  0.1065  0.0844
59095W        W15336  13.914  17.752  24.272 -0.3141 -0.0754 -0.1881
59096W        W15337  15.009  20.596   4.847  0.0887  0.2773 -0.1131
59097W        W15338  32.315   4.798  21.950  0.0670  0.2905 -0.0861
59098W        W15339  25.381   5.623  13.997  0.2306 -0.0304 -0.1644
59099W        W15340  10.598  15.777   3.589 -0.0771  0.0112  0.3231
59100W        W15341  17.253   1.111  21.843 -0.0197 -0.0530  0.1430
59101W        W15342  30.184  29.465  10.589  0.0308  0.1832 -0.0131
59102W        W15343  18.586  16.987  24.988 -0.1077  0.0987  0.2233
59103W        W15344  15.135   1.632  25.046  0.3052  0.3166  0.3020
59104W        W15345  35.157   5.519  16.918  0.0425 -0.3197 -0.0369
59105W        W15346   8.199  20.625  14.493 -0.0461  0.3649  0.0484
59106W        W15347  21.319  21.802  16.584 -0.0443 -0.0009  0.3511
59107W        W15348  31.518  21.376  18.809  0.1577 -0.0942 -0.0272
59108W        W15349  16.757  16.080  13.752 -0.0138  0.1419  0.1417
59109W        W15350   5.310   1.182  21.170  0.1253  0.0402  0.1109
59110W        W15351  17.512   1.191  20.727  0.1843  0.1493  0.1673
59111W        W15352  24.148  11.767   2.129 -0.1391  0.5662 -0.2807
59112W        W15353  10.097  25.157  24.958 -0.1041  0.0288 -0.2532
59113W        W15354   3.125  26.966  20.583  0.2392  0.2639  0.1026
59114W        W15355   6.971  31.317  25.739  0.4194  0.1658  0.0425
59115W        W15356  14.376  17.170   5.388 -0.1258 -0.0895  0.2306
59116W        W15357   3.708  26.934   3.360  0.0490  0.4002 -0.0690
59117W        W15358  18.473  21.578   2.410  0.3106  0.0713 -0.0253
59118W        W15359  11.164  24.136  16.755  0.2443  0.1962 -0.1600
59119W        W15360  11.533  13.475   4.755 -0.2441 -0.2000  0.2356
59120W        W15361  14.928   0.290  21.772 -0.0721  0.1830  0.4071
59121W        W15362   6.335  17.327  24.638 -0.1849  0.3880 -0.1154
59122W        W15363  14.129   1.930   9.935 -0.0754 -0.1233 -0.1068
59123W        W15364  34.073  31.744  25.274 -0.2870  0.0786  0.1216
59124W        W15365  33.148   6.229   2.803  0.0785  0.1243  0.0145
59125W        W15366  34.551  20.129  25.231 -0.0137 -0.1224 -0.0637
59126W        W15367  16.274  11.420  11.426  0.0920  0.1435  0.0681
59127W        W15368  28.820   6.231  14.665 -0.0750 -0.2794  0.1506
59128W        W15369  22.287  29.763  20.236  0.0538 -0.0949  0.0698
59129W        W15370  30.595  20.521  26.021 -0.2738  0.1249 -0.1657
59130W        W15371  26.977  25.938  23.753  0.1527 -0.0769 -0.4067
59131W        W15372  23.615  10.204   1.324 -0.3622 -0.1727 -0.1351
59132W        W15373  16.444  14.242  20.475 -0.1156  0.0041 -0.2008
59133W        W15374   6.866  28.415   4.547  0.0170  0.2355  0.2389
59134W        W15375  17.842  16.112   0.043 -0.2209  0.0809 -0.0795
59135W        W15376  16.767  34.210  26.212  0.3478 -0.0250 -0.2957
59136W        W15377  29.906  29.644  24.010  0.2536 -0.0737  0.0230
59137W        W15378  31.735  30.310   0.261 -0.2865 -0.1446  0.1637
59138W        W15379  26.453  15.144   8.914 -0.1613 -0.0777 -0.0252
59139W        W15380   8.973  29.781   5.916 -0.0119 -0.0626  0.0481
59140W        W15381   4.613  28.819  23.270  0.1238  0.3793 -0.0895
59141W        W15382   0.929   8.025  21.461  0.0225 -0.1222 -0.1582
59142W        W15383  13.303  11.890  23.819  0.2568 -0.2021 -0.0547
59143W        W15384   5.450   8.804   0.336  0.1288  0.2808  0.2969
59144W        W15385   5.855  23.448  20.155  0.0157 -0.3245  0.3033
59145W        W15386  16.968  11.630  24.895  0.2858 -0.2259 -0.0157
59146W        W15387  27.953  35.246  22.180  0.1581  0.1323  0.1933
59147W        W15388  18.692   0.762   8.765 -0.1427 -0.3730  0.0921
59148W        W15389  11.625   0.837  13.273 -0.1339 -0.2928 -0.0705
59149W        W15390  28.102  19.550  16.179  0.3954  0.1034 -0.1594
59150W        W15391  32.288  16.793  16.736  0.4643  0.0162 -0.5668
59151W        W15392  32.203  12.216   9.866  0.2782 -0.2524 -0.1681
59152W        W15393  32.081  28.119  25.729  0.0603  0.0396 -0.3763
59153W        W15394  29.386  10.294  23.310 -0.1464 -0.1355 -0.1263
59154W        W15395   8.675  23.871   4.054  0.0981 -0.1569  0.1199
59155W        W15396   9.217   7.336   3.844 -0.3013 -0.1862 -0.0644
59156W        W15397  25.230   1.997  23.307  0.3278  0.1309  0.0958
59157W        W15398  14.952   0.214  21.130 -0.1625 -0.0076  0.0199
59158W        W15399  28.675  32.959  15.302  0.3047 -0.0873 -0.2244
59159W        W15400  12.150  27.265   0.431  0.1347 -0.2015  0.2216
59160W        W15401   9.508   0.302  22.941 -0.0983 -0.0788 -0.0144
59161W        W15402  27.030  34.811  19.647  0.5214  0.0038  0.1513
59162W        W15403  17.797  21.982   2.620  0.4467  0.1616  0.0281
59163W        W15404   4.486  17.030   0.365 -0.1147  0.2756 -0.0105
59164W        W15405  30.793  32.220   6.101  0.2131  0.1421 -0.3011
59165W        W15406   1.298  11.483  21.300 -0.0350 -0.2513  0.1473
59166W        W15407   6.557  26.605   2.828  0.1970 -0.1992 -0.1659
59167W        W15408  26.348  13.694  21.123 -0.0457  0.1237  0.1646
59168W        W15409  33.807   3.899   1.444  0.0790  0.0837  0.1948
59169W        W15410   6.011  23.694   4.358  0.0160  0.2826 -0.1179
59170W        W15411  14.443   0.342  10.881 -0.1352  0.2413  0.1500
59171W        W15412   8.698  10.342  21.584 -0.1678 -0.1387 -0.1545
59172W        W15413   3.581  16.537  14.388 -0.1767  0.0522 -0.1048
59173W        W15414   5.835  16.949  25.737  0.0040  0.2402  0.0139
59174W        W15415  10.509  34.319   4.534  0.0291  0.2497  0.0337
59175W        W15416  29.518  29.791  15.505  0.2892 -0.0987 -0.2325
59176W        W15417   3.069  22.028  20.182 -0.2081  0.1846  0.1208
59177W        W15418  28.498  10.978  25.761 -0.1996 -0.2136 -0.0507
59178W        W15419  12.101  27.115   1.764  0.1551  0.0302  0.1905
59179W        W15420  31.828  15.387  22.335 -0.0313 -0.1526 -0.1947
59180W        W15421  31.064   7.648  16.439 -0.1139  0.0772  0.1208
59181W        W15422  11.268   1.631   8.770 -0.1874  0.0289  0.0899
59182W        W15423  15.211  14.083   6.666  0.0805  0.3945  0.1126
59183W        W15424   9.439  15.679   2.027 -0.0549 -0.1786 -0.1330
59184W        W15425  12.444  14.113   3.575 -0.0341 -0.1786 -0.0974
59185W        W15426   4.474  21.022  18.544 -0.2465  0.2040  0.0115
59186W        W15427   4.699  32.631  23.411  0.0827  0.0284 -0.0207
59187W        W15428  26.161   8.091  25.838  0.0617 -0.3598 -0.0938
59188W        W15429   7.994   0.827   4.945  0.0699 -0.1478 -0.0942
59189W        W15430   8.743   9.206  12.482  0.3165  0.0398 -0.1792
59190W        W15431  35.162  17.909  21.731 -0.0874 -0.5188 -0.0841
59191W        W15432  29.935   3.944  22.763 -0.0446 -0.0348 -0.0555
59192W        W15433  10.587  12.553  23.369 -0.1965 -0.0774  0.2588
59193W        W15434  13.037  29.955   7.886  0.0393  0.1613  0.0301
59194W        W15435  13.700   1.625  21.888  0.2171 -0.1418  0.0630
59195W        W15436   4.630  23.364  24.188 -0.1675 -0.1114  0.6101
59196W        W15437  23.384   8.425  20.461  0.1252 -0.1959 -0.0020
59197W        W15438   5.851   6.550  23.048  0.0582  0.1464  0.0890
59198W        W15439  18.527  33.484  19.036 -0.0503 -0.2665 -0.0077
59199W        W15440  29.244  21.383  17.866 -0.3524 -0.1335  0.2318
59200W        W15441   6.615  26.621   9.460 -0.0190 -0.2649  0.1806
59201W        W15442  13.200   1.859  22.133  0.0033 -0.2389  0.1931
59202W        W15443  14.662  20.967  25.125 -0.0424  0.0012 -0.0745
59203W        W15444   0.223   6.987  13.019 -0.1485  0.0363  0.0239
59204W        W15445   0.088  24.102  17.945 -0.2119 -0.0503  0.2826
59205W        W15446  17.610   8.971   9.883 -0.2005  0.0002 -0.2346
59206W        W15447  25.554  18.112   8.281  0.0048  0.4984  0.1176
59207W        W15448   6.379  34.051   9.955 -0.0090 -0.1088 -0.0248
59208W        W15449  30.806  11.185  11.518 -0.2376 -0.0134  0.0737
59209W        W15450  10.867  24.444   8.846 -0.0801 -0.0011 -0.0441
59210W        W15451  20.197  12.877  20.242 -0.1838  0.0104  0.1069
59211W        W15452   7.867  27.626  10.049  0.1837 -0.1208  0.0852
59212W        W15453  17.035   9.400  18.677  0.4408 -0.1605  0.0789
59213W        W15454  33.194   2.158  22.922 -0.0278 -0.0773 -0.0663
59214W        W15455  22.871  34.210  20.408 -0.0343 -0.4082 -0.2764
59215W        W15456  12.549   3.882  25.869 -0.1905 -0.2428  0.2371
59216W        W15457  29.722   4.189  16.917 -0.0089  0.2785  0.0721
59217W        W15458   9.968   1.947   0.871 -0.0113 -0.1381 -0.4141
59218W        W15459   5.640   7.745  22.563  0.2212  0.1045 -0.0592
59219W        W15460  27.929  30.994  22.118  0.1241  0.1095 -0.0745
59220W        W15461  13.648  13.482  22.201 -0.1632 -0.0334 -0.1694
59221W        W15462   0.158  27.445  19.839  0.0519  0.2037 -0.0138
59222W        W15463  20.460  23.115  24.783  0.0212 -0.0736 -0.2385
59223W        W15464  12.332  20.266  24.164  0.4877  0.0907  0.1191
59224W        W15465  17.640  31.002   2.959 -0.2235  0.0412  0.2419
59225W        W15466  20.995  12.992  21.203  0.0623  0.1578 -0.3168
59226W        W15467  31.922   1.481  22.205  0.0336 -0.2709 -0.0616
59227W        W15468  18.486  28.826  22.704  0.1909 -0.0815  0.1968
59228W        W15469  31.237  12.673  19.498  0.0947  0.0287 -0.2319
59229W        W15470  34.301  14.384  17.196 -0.0211  0.2957 -0.0806
59230W        W15471  21.345   8.713  18.565  0.0911  0.0011  0.1050
59231W        W15472   8.545  35.319   1.245  0.2221 -0.1591  0.0484
59232W        W15473   3.862  27.634   9.405  0.0283 -0.1786 -0.0511
59233W        W15474  10.203  30.355   2.854 -0.1680 -0.2510  0.5564
59234W        W15475   1.938   7.815  18.194 -0.0360 -0.0137 -0.2768
59235W        W15476  12.294  23.424  24.703  0.0214 -0.0519  0.2333
59236W        W15477  15.567  24.512   9.554 -0.3389  0.3557  0.1096
59237W        W15478  11.368  26.967   5.053  0.0515 -0.1792 -0.0472
59238W        W15479  28.860   3.677  10.685 -0.0514 -0.0722  0.3650
59239W        W15480  29.919  35.081  24.120  0.2015 -0.0180  0.1775
59240W        W15481  24.783  24.550  17.061 -0.1077 -0.1440  0.0050
59241W        W15482   7.581  24.146  12.895 -0.0003 -0.2558  0.0656
59242W        W15483  13.414  31.868  23.305  0.3826 -0.0955 -0.0183
59243W        W15484  35.122  16.665  19.858 -0.0544 -0.2401  0.3341
59244W        W15485  26.558  21.602   8.513  0.1742  0.4219  0.3353
59245W        W15486  11.206  31.594  15.403 -0.0119  0.3442  0.0584
59246W        W15487  33.459  25.419  14.520 -0.1272 -0.2308  0.5078
59247W        W15488  16.315   8.353  10.400 -0.0240 -0.2348 -0.1550
59248W        W15489   9.626   3.175   3.471  0.1756 -0.0084 -0.0386
59249W        W15490  32.512   2.034  25.000  0.1445 -0.0153  0.0029
59250W        W15491  22.602   0.741   4.494 -0.3345  0.1931 -0.0628
59251W        W15492  27.234  11.435  10.097 -0.3863 -0.1414  0.0233
59252W        W15493   2.990  13.591  15.672  0.1844  0.0135  0.3547
59253W        W15494  11.356  33.432   0.449  0.2154 -0.2663  0.1445
59254W        W15495  24.125  28.201  15.161 -0.2899  0.0183  0.0837
59255W        W15496   1.481   6.194  21.579  0.0515 -0.1160 -0.0367
59256W        W15497  25.297  26.282   0.396 -0.1672 -0.1414 -0.2600
59257W        W15498  15.633  11.025  10.184 -0.0096  0.1580  0.0475
59258W        W15499  19.875  28.262   5.980 -0.2208 -0.0832 -0.0698
59259W        W15500   0.495  26.682   3.969 -0.0410 -0.1119  0.4123
59260W        W15501   6.807   4.279  24.803 -0.1077 -0.1013  0.1359
59261W        W15502  29.903  30.571   3.981 -0.0144  0.2059 -0.1313
59262W        W15503   9.829  15.477  19.520 -0.1965 -0.0702 -0.1005
59263W        W15504  25.409   2.601  23.201 -0.0855 -0.1148 -0.1595
59264W        W15505  20.955  33.843   3.674  0.1525  0.0857 -0.1278
59265W        W15506  33.170  14.027   9.772  0.2016 -0.4539 -0.0924
59266W        W15507  34.996  32.184  25.004  0.2879 -0.0122  0.1007
59267W        W15508  24.658  14.274  12.450  0.0389  0.2619 -0.1883
59268W        W15509   7.190  30.817  21.408  0.2003 -0.3679 -0.1243
59269W        W15510  29.467  22.665  17.447  0.4140  0.0642 -0.0525
59270W        W15511  33.326   6.398  15.439 -0.0569 -0.3302  0.2103
59271W        W15512  34.969   8.262  16.564  0.0351  0.1597 -0.2261
59272W        W15513   4.042   9.038   7.958  0.2821 -0.2832 -0.0774
59273W        W15514  11.749   1.968  22.127 -0.0972 -0.0478  0.0106
59274W        W15515  13.505  33.657  24.770  0.1137 -0.0521  0.1607
59275W        W15516  18.337  11.055   4.477  0.1756  0.1161  0.0296
59276W        W15517   7.076  15.791   2.890  0.2925 -0.2205  0.1415
59277W        W15518  28.977  32.939  21.485 -0.1573 -0.2682  0.0839
59278W        W15519  11.750   5.690  24.706 -0.0103 -0.0783 -0.0582
59279W        W15520  30.011  10.367  18.750 -0.2132 -0.1211  0.1867
59280W        W15521   1.340  11.393   2.008 -0.0099  0.2961 -0.1433
59281W        W15522  34.425  21.783  23.598 -0.1174 -0.2614 -0.2911
59282W        W15523   7.127   7.220  21.876 -0.1214  0.0070 -0.0802
59283W        W15524  22.651   3.327  14.463 -0.3226 -0.3611  0.1117
59284W        W15525  26.009   2.059  12.943 -0.0633 -0.1335 -0.1422
59285W        W15526  11.982   9.636  14.539 -0.3040 -0.0378 -0.1645
59286W        W15527   7.623  28.154  15.704  0.0384  0.1059 -0.2341
59287W        W15528   3.500   9.111  19.472 -0.3076  0.2810  0.0118
59288W        W15529   7.971  18.591  12.787 -0.1463  0.0529 -0.2559
59289W        W15530  32.835  17.548  14.215  0.1965  0.0732  0.2265
59290W        W15531  20.244   8.812   3.917  0.4068 -0.1448  0.2639
59291W        W15532  13.188   9.197   3.130 -0.2865 -0.0618 -0.1609
59292W        W15533  12.867   2.345  11.695  0.3058  0.0645 -0.0201
59293W        W15534  35.230   0.892   8.771 -0.3339  0.0461  0.0934
59294W        W15535  10.603  21.422  13.387 -0.0094  0.1111 -0.0024
59295W        W15536  25.532   4.493  18.410  0.4587 -0.0139  0.0664
59296W        W15537  21.083  16.131  21.541  0.1417 -0.2334  0.2504
59297W        W15538  15.809  29.876   9.008  0.0465  0.1238 -0.3506
59298W        W15539  10.181  20.771   7.532 -0.0115  0.2109  0.0422
59299W        W15540  11.937  15.845  21.832 -0.1297  0.2930 -0.1373
59300W        W15541   9.410   9.991  10.685  0.1326 -0.1613 -0.1214
59301W        W15542  19.482   7.691   1.940 -0.1659  0.1290 -0.0949
59302W        W15543  26.467  18.252  23.270  0.0705 -0.2112 -0.3184
59303W        W15544  28.767  11.352  24.401 -0.2444  0.0432 -0.1033
59304W        W15545  24.060  19.682  11.828 -0.0918 -0.0092  0.0701
59305W        W15546  14.553  13.773   4.237  0.2393  0.1964  0.1459
59306W        W15547   2.456  33.170  21.289  0.0730  0.2375 -0.3346
59307W        W15548   4.093   5.080   3.706  0.1054 -0.0577 -0.1003
59308W        W15549   8.421  24.102   6.021 -0.1307 -0.0206 -0.1036
59309W        W15550  22.213   1.857  16.541 -0.3862 -0.1223 -0.0033
59310W        W15551  18.984  10.809   6.443  0.0825 -0.1806  0.1626
59311W        W15552   8.602  28.073  15.503 -0.2458  0.1486  0.0531
59312W        W15553  18.103  12.751   5.407 -0.0831  0.0473  0.1918
59313W        W15554  27.319  18.504  24.644  0.1142  0.2076  0.3930
59314W        W15555  13.207   4.478   2.703  0.3177 -0.1643  0.1541
59315W        W15556   5.930   5.840   9.371 -0.1083 -0.1479 -0.3059
59316W        W15557  26.451  21.116  23.053  0.2346  0.0649  0.0355
59317W        W15558  19.467  19.176  19.887  0.1059  0.2453  0.3208
59318W        W15559  21.756  18.687   3.066  0.2248  0.2168 -0.2599
59319W        W15560  25.274  28.313  13.289 -0.4743 -0.2606  0.1211
59320W        W15561  14.996  14.928  22.076 -0.3419  0.1996  0.2952
59321W        W15562  32.177  19.084  15.447  0.0149 -0.0117 -0.3908
59322W        W15563  14.985  24.596   2.608  0.0230 -0.0674  0.0007
59323W        W15564   0.698  26.580   1.978  0.0104  0.0022 -0.2094
59324W        W15565  13.496   1.570   6.012 -0.1487  0.5140 -0.0266
59325W        W15566   7.405  32.982   9.844  0.4772  0.2735  0.1564
59326W        W15567  29.386  32.897   5.148  0.2853  0.2879 -0.2295
59327W        W15568   0.187  23.448  16.063 -0.0673 -0.1674  0.1778
59328W        W15569  16.668   0.696  24.096  0.2542  0.0207 -0.3054
59329W        W15570  21.542  30.275  23.482 -0.0613 -0.3663 -0.1034
59330W        W15571  28.837   1.590  23.403  0.1625 -0.1056 -0.3783
59331W        W15572  18.788   2.085   2.295  0.0107 -0.0733 -0.0203
59332W        W15573  29.339  34.358  12.984  0.1285 -0.2492  0.1822
59333W        W15574  31.870  21.098  23.259  0.2703  0.0958  0.1324
59334W        W15575  28.451  33.434   2.054 -0.0142  0.0328 -0.3510
59335W        W15576  27.287  33.402  22.301  0.1095 -0.1468 -0.1827
59336W        W15577  18.793  26.506   1.205 -0.2126 -0.1754 -0.1640
59337W        W15578   9.046   6.875  11.032  0.0012 -0.0573 -0.0180
59338W        W15579  11.771   9.012   4.733 -0.2168 -0.1046 -0.0769
59339W        W15580   7.103  16.476  11.402  0.0781  0.1079 -0.1731
59340W        W15581  22.596  31.383  16.024 -0.0871  0.4226  0.3653
59341W        W15582   0.606  33.607   8.403  0.0317  0.2268 -0.0752
59342W        W15583  23.907  21.973  23.728  0.0174  0.0168 -0.0398
59343W        W15584  30.364   2.770  21.937 -0.1931 -0.3644 -0.3145
59344W        W15585  10.006   6.812  24.782  0.1307 -0.4391 -0.2291
59345W        W15586   0.235  32.371   5.482 -0.1559 -0.2681  0.0373
59346W        W15587  24.630   0.393  23.895 -0.1639  0.1295 -0.1107
59347W        W15588  17.453  10.978  20.025  0.0492 -0.3557  0.1420
59348W        W15589   8.651  30.036   9.473  0.0279  0.1135  0.1343
59349W        W15590   6.603  33.222  11.340  0.1257  0.2520 -0.0241
59350W        W15591  34.040  32.875   6.660  0.2026 -0.3133 -0.0304
59351W        W15592   3.095  34.415  19.759 -0.1769  0.3559 -0.1184
59352W        W15593  34.591  13.826   1.745  0.0838 -0.0159  0.0416
59353W        W15594  32.811  26.681  16.606 -0.1895  0.1352  0.2139
59354W        W15595  19.864   6.553   0.830  0.1626  0.4572 -0.1282
59355W        W15596  14.736  28.970   6.272  0.2191 -0.2001 -0.0740
59356W        W15597  13.691   9.520  13.021 -0.1179  0.1047  0.0570
59357W        W15598   7.721  13.984  22.239 -0.0790 -0.1996  0.0014
59358W        W15599   4.207   7.504   0.087 -0.2612 -0.1631  0.0629
59359W        W15600   8.835   6.545  11.646 -0.0523  0.1491  0.1511
59360W        W15601  35.164   8.459   3.808  0.1430  0.0092 -0.0038
59361W        W15602   6.857  34.322   8.410  0.2129  0.2308  0.1336
59362W        W15603  16.863   0.697   2.333  0.0715  0.2401 -0.2702
59363W        W15604  28.750  26.425  17.189 -0.3025 -0.3486 -0.0857
59364W        W15605  34.501  34.356   5.722  0.0828  0.4075 -0.2431
59365W        W15606   0.341  11.353  23.398  0.3698  0.1333  0.0257
59366W        W15607  13.510  23.209  15.461 -0.0728  0.1686 -0.1843
59367W        W15608  29.133  16.697  12.448  0.1083  0.1827  0.1304
59368W        W15609  34.883  16.324  20.445  0.0203 -0.0735  0.1936
59369W        W15610  18.353   4.021  25.937  0.0565 -0.1254 -0.0663
59370W        W15611  29.795  21.013  24.176 -0.0383 -0.1999 -0.0688
59371W        W15612  18.090   4.629   7.190  0.0148  0.0194 -0.1513
59372W        W15613  35.051  26.739  16.182  0.0585  0.1223 -0.0344
59373W        W15614  31.926  31.278  19.760 -0.1100  0.0304  0.2276
59374W        W15615  11.924  29.966  15.354 -0.1171 -0.0143  0.2170
59375W        W15616   9.906  23.154  13.417  0.0125 -0.0303 -0.0734
59376W        W15617  34.004  14.621  11.314  0.0116 -0.4742  0.1129
59377W        W15618  12.466  21.480   1.225  0.0181  0.2546  0.0001
59378W        W15619  21.248  15.206  20.929  0.0902 -0.2570 -0.1383
59379W        W15620   0.903  32.627   9.181  0.0857  0.3123  0.0882
59380W        W15621  32.426  22.578   5.822  0.0786  0.3176 -0.0591
59381W        W15622  10.407  16.872   0.503 -0.0388  0.0865  0.2685
59382W        W15623  23.594   1.775  21.044 -0.2012 -0.2129  0.0812
59383W        W15624   6.164  28.412   9.437 -0.3500  0.2627 -0.0106
59384W        W15625  17.654  24.681  22.853 -0.0222  0.0175  0.0922
59385W        W15626  22.976   2.342   1.276  0.0141 -0.0350 -0.0623
59386W        W15627  30.239  29.394  12.136 -0.0984  0.2482  0.0909
59387W        W15628  24.680  30.307  10.610  0.2289 -0.3504  0.0107
59388W        W15629  27.900  31.556   3.734 -0.2421  0.1317  0.1726
59389W        W15630  18.379  17.441   8.860 -0.0390 -0.0784  0.0336
59390W        W15631   7.986  27.124  25.812  0.0479  0.2570 -0.0634
59391W        W15632   9.727  30.698  23.688  0.1559 -0.0415 -0.0136
59392W        W15633   6.532  28.683  10.158 -0.1526  0.1704 -0.0123
59393W        W15634  32.664  26.179  13.957 -0.3694  0.0873 -0.0565
59394W        W15635  28.303   4.912  12.672  0.1892  0.1217 -0.1148
59395W        W15636  19.560  31.469   4.547  0.3626 -0.1475 -0.1032
59396W        W15637  34.702   5.850  20.897 -0.0273 -0.3750 -0.2467
59397W        W15638  13.085  28.321  24.532  0.0761  0.0329  0.1480
59398W        W15639  30.035  12.871   0.244 -0.1022  0.1773  0.1598
59399W        W15640  11.817   9.721   8.957 -0.1108  0.2779  0.2693
59400W        W15641  34.878  18.888  16.257  0.2007 -0.1008 -0.1569
59401W        W15642  14.772   7.053  11.851  0.0564 -0.0745  0.1725
59402W        W15643  28.378   5.675  23.346 -0.0609  0.2049 -0.1265
59403W        W15644  28.251  14.846  13.779 -0.0124 -0.1852  0.0603
59404W        W15645  15.422   8.179   1.717  0.1558  0.1860 -0.2570
59405W        W15646  24.823   0.159  25.860 -0.3249 -0.0753 -0.1891
59406W        W15647  20.403  30.984  16.516 -0.1540  0.4165  0.0480
59407W        W15648  25.234  33.487   1.098  0.1916 -0.1651  0.2591
59408W        W15649  16.057   4.352   3.119  0.1037 -0.2957 -0.1361
59409W        W15650   5.486   7.994  24.130  0.2098 -0.1658  0.4426
59410W        W15651  12.322   9.393  12.369 -0.0027 -0.1647  0.3403
59411W        W15652   9.194  32.681   8.098  0.0544 -0.0559  0.0106
59412W        W15653  17.170  28.725   6.845  0.1803 -0.0105 -0.3396
59413W        W15654  26.419  33.125   6.125  0.4676  0.2494 -0.4941
59414W        W15655   5.674  14.724  17.687 -0.1386  0.3660  0.2226
59415W        W15656  30.507  20.563  19.895 -0.0651 -0.3802  0.2499
59416W        W15657  23.807  32.255  11.890 -0.0773  0.3492  0.1619
59417W        W15658  25.849  15.042   9.618  0.1938  0.0317 -0.1516
59418W        W15659  22.094   7.706   7.717  0.3568 -0.0237  0.1097
59419W        W15660  20.589   5.025  22.647  0.2247  0.0933  0.0875
59420W        W15661  35.037  32.951   2.719  0.3059  0.1146 -0.3443
59421W        W15662  28.757   3.836  10.112 -0.2372 -0.0380  0.2716
59422W        W15663  12.142  31.895   6.269 -0.0246 -0.0223  0.1873
59423W        W15664   2.628  28.937  25.696 -0.0612 -0.1569 -0.0708
59424W        W15665  20.946  23.507   1.574 -0.0903 -0.2670  0.2247
59425W        W15666  19.368  21.464   5.251 -0.0075 -0.1472 -0.1654
59426W        W15667   9.338   4.553  12.097 -0.0453 -0.1190  0.2121
59427W        W15668  34.053  23.440  10.968 -0.2702  0.0531 -0.2459
59428W        W15669  30.443  28.814  23.110 -0.1954  0.2237 -0.1295
59429W        W15670   4.063  13.636  14.839 -0.2718 -0.0460  0.0733
59430W        W15671  18.041  25.041  12.903 -0.4006  0.2448  0.1788
59431W        W15672   8.626  13.792  19.255 -0.0016 -0.1110  0.0366
59432W        W15673  20.245  16.706   7.097  0.1054 -0.0853  0.1872
59433W        W15674  14.538  35.010   2.873  0.2886 -0.2374 -0.1024
59434W        W15675   4.634   0.629   0.673 -0.1602 -0.0952  0.2072
59435W        W15676   5.839  31.339  24.972 -0.0686  0.1262 -0.1784
59436W        W15677   1.531  11.235  23.539  0.0675  0.3388  0.0408
59437W        W15678  26.836  21.499  19.125  0.2313  0.2869 -0.3646
59438W        W15679   8.884  12.763  25.958  0.2555 -0.1344 -0.3069
59439W        W15680  26.843   4.599   3.803  0.3171 -0.1583  0.0202
59440W        W15681  12.489  11.821   9.558 -0.1633 -0.1535 -0.2034
59441W        W15682  34.602  26.872  25.128 -0.1953 -0.1454 -0.0871
59442W        W15683   1.132  18.459  23.005 -0.0654 -0.0545  0.1027
59443W        W15684   8.731   9.801  23.679  0.1559 -0.2083  0.0970
59444W        W15685   8.115  27.216   4.893  0.1033  0.0442  0.0648
59445W        W15686  19.414  23.770  21.316  0.0221 -0.1626  0.3890
59446W        W15687  26.023  26.143   0.817 -0.0940 -0.0152  0.3462
59447W        W15688  16.733  10.977   3.355 -0.1529 -0.0601  0.1349
59448W        W15689   5.782  27.536  22.079  0.2640 -0.1111 -0.0245
59449W        W15690  18.385   7.121  11.957 -0.2259  0.0078  0.2494
59450W        W15691   1.940  27.822   3.933  0.1666 -0.1735 -0.2764
59451W        W15692  16.190   0.777   1.256 -0.0459 -0.2355  0.2426
59452W        W15693  16.922  29.272   2.230 -0.1093  0.1933 -0.0934
59453W        W15694  17.768   8.441  22.148 -0.1603 -0.0454  0.1602
59454W        W15695  14.498  18.684   7.875  0.3745  0.1253 -0.1454
59455W        W15696   3.862  29.534  25.263  0.2156 -0.2459 -0.4854
59456W        W15697  19.484  11.598  26.119 -0.1015  0.0443 -0.1415
59457W        W15698  25.173  19.826  25.796  0.0465 -0.0023  0.1924
59458W        W15699   6.080  30.436   1.519  0.1666  0.0002  0.0198
59459W        W15700  24.418  20.760  15.051 -0.0285 -0.0613  0.0093
59460W        W15701  11.087   4.897  23.192 -0.0985 -0.0307 -0.3741
59461W        W15702   8.527   0.439  20.423 -0.3211  0.1563 -0.1468
59462W        W15703  15.219  25.883  10.541 -0.0952 -0.3724 -0.0477
59463W        W15704  14.514  10.640  21.349  0.0016 -0.0986 -0.0688
59464W        W15705   8.834  14.264   1.746  0.0428  0.1514 -0.1693
59465W        W15706   7.797  20.170   4.746 -0.1721 -0.1589 -0.2194
59466W        W15707   6.545  13.348   3.728 -0.0306  0.0257 -0.1217
59467W        W15708   0.478  16.287  10.970 -0.2560  0.0940 -0.2607
59468W        W15709  18.916  16.712   8.594  0.1371  0.0257 -0.2865
59469W        W15710  35.181  34.902   6.902 -0.1126  0.2410 -0.0978
59470W        W15711  30.494  24.824   8.290 -0.1608 -0.4720 -0.0265
59471W        W15712  21.195  20.862  24.291 -0.0121 -0.0597  0.2905
59472W        W15713   7.104  24.501   6.654  0.0016 -0.0316 -0.2835
59473W        W15714  17.479  12.018  22.341 -0.2157  0.1037 -0.1507
59474W        W15715   8.023  14.360  12.801 -0.3874  0.5007  0.1465
59475W        W15716  22.328  35.125   5.347 -0.2750  0.0852 -0.1124
59476W        W15717   3.825  15.843  23.885  0.0701  0.2224  0.0231
59477W        W15718   4.284  30.379   8.270 -0.0376  0.2151  0.1412
59478W        W15719  28.785  16.223  10.779 -0.0771 -0.0791  0.1429
59479W        W15720   9.839  34.216   1.034 -0.0088  0.1529 -0.0350
59480W        W15721  15.028  25.775   6.296 -0.4301  0.1515  0.1384
59481W        W15722  30.612  17.052  19.340  0.0575  0.0151  0.3942
59482W        W15723  23.686  13.857  25.820 -0.3328 -0.2196  0.0314
59483W        W15724  33.630  16.485  20.415  0.1895  0.0668  0.0969
59484W        W15725  23.075  26.497  14.929 -0.0498 -0.0650 -0.0438
59485W        W15726  28.811   6.788  13.480  0.1060  0.1434  0.1353
59486W        W15727  27.685  32.476  23.274  0.2704  0.2276 -0.1279
59487W        W15728  27.145  17.860  15.459  0.1191 -0.0996  0.3010
59488W        W15729   6.576  20.901  24.595  0.0224  0.1547 -0.0966
59489W        W15730   8.542  35.203  14.979  0.1121  0.0557  0.0850
59490W        W15731  17.910  20.948  20.913 -0.1729 -0.1038 -0.1231
59491W        W15732  27.092   4.219  18.121  0.3102 -0.1270 -0.0966
59492W        W15733  18.119  12.325  18.298  0.2231 -0.1158 -0.1987
59493W        W15734  26.864  15.744   6.534  0.1404 -0.3555  0.1689
59494W        W15735   6.262  33.522   2.472  0.2018  0.0783 -0.1324
59495W        W15736  24.626  14.261   1.166  0.0537 -0.1854 -0.1383
59496W        W15737  11.899   8.701   2.589  0.1252 -0.1450  0.1053
59497W        W15738  30.397   1.358  13.936  0.0982 -0.1603  0.4358
59498W        W15739  16.105  32.535  26.079 -0.1084  0.1009 -0.4152
59499W        W15740  17.726   6.502   8.446 -0.2163 -0.0851 -0.1466
59500W        W15741  29.886  34.747  26.103  0.3095 -0.3178 -0.1267
59501W        W15742  13.761  23.396  12.552 -0.0393  0.0075  0.3242
59502W        W15743   5.613  10.456  24.367 -0.1481  0.1210  0.2856
59503W        W15744   4.619   1.846   3.573 -0.1988  0.0485 -0.1121
59504W        W15745   8.572  21.407   2.664  0.0942 -0.2543 -0.0238
59505W        W15746  28.834  30.574  19.336  0.0534  0.0203 -0.0279
59506W        W15747  29.748  17.940  18.301 -0.2055 -0.1290  0.3776
59507W        W15748  18.301   2.589   7.186  0.4688 -0.1591  0.0240
59508W        W15749  25.138  22.928  18.118  0.3123  0.1600 -0.4150
59509W        W15750   9.900   4.925  24.293 -0.1271  0.0551 -0.1518
59510W        W15751  22.625  34.075  24.091  0.1848  0.1004  0.1112
59511W        W15752  28.007  25.342   8.714 -0.0171 -0.0171  0.0826
59512W        W15753  14.127   9.994   9.304  0.0506  0.0893  0.3707
59513W        W15754  32.266   2.207  25.889  0.0412 -0.2971  0.2071
59514W        W15755  22.683  14.257   0.594 -0.0154 -0.1895  0.2659
59515W        W15756  34.784  23.613  25.177 -0.1098  0.0602 -0.0300
59516W        W15757   2.262   7.964  16.162  0.1949  0.3146  0.1183
59517W        W15758  16.606  32.770  25.261  0.1091 -0.1749 -0.0986
59518W        W15759   9.362  25.945   0.105  0.1724 -0.1424  0.0032
59519W        W15760  27.032  22.791   5.731 -0.2234  0.1214  0.1902
59520W        W15761  26.414  25.267   7.479  0.0154  0.0462  0.1343
59521W        W15762   7.300  13.349  23.036  0.1161 -0.2199  0.1690
59522W        W15763  22.986   2.311  24.073 -0.0617 -0.2759 -0.0166
59523W        W15764  18.145   8.303  24.808 -0.2067  0.0854 -0.1143
59524W        W15765   5.075  33.770   3.866 -0.5287  0.0070  0.1202
59525W        W15766  26.225  12.987   7.904 -0.0224 -0.1186  0.1403
59526W        W15767   3.243  14.139   1.091  0.3800 -0.0544  0.1329
59527W        W15768   7.295  23.423   7.048  0.0071  0.1115  0.0059
59528W        W15769  17.641  20.151  11.448 -0.1992  0.1919 -0.1187
59529W        W15770  32.537  31.250  21.365 -0.2941  0.0713 -0.1309
59530W        W15771  24.230  14.505  19.039  0.0810 -0.0296  0.0168
59531W        W15772  18.205  35.180  23.314 -0.0088 -0.0399  0.0082
59532W        W15773  25.879   3.808   5.312  0.1406 -0.1396  0.2461
59533W        W15774  18.115  30.283   3.767  0.1009  0.0051 -0.0061
59534W        W15775   2.340  30.417   8.285  0.1220 -0.1332 -0.0320
59535W        W15776  27.233  10.357  13.734  0.1338  0.2924 -0.0524
59536W        W15777   2.289  23.164  18.640 -0.2670 -0.1630 -0.3316
59537W        W15778  18.268  20.883   1.198 -0.1997  0.1856  0.0673
59538W        W15779  27.938   9.220  25.492  0.1570  0.2377  0.2478
59539W        W15780   2.041  28.032   7.090 -0.2036 -0.2975  0.2205
59540W        W15781  21.133  14.444   1.265  0.1833 -0.1117  0.4101
59541W        W15782  11.554  12.343  25.043 -0.0104 -0.0168  0.1157
59542W        W15783  14.059  25.126  12.256  0.0341  0.0317  0.1315
59543W        W15784  34.417  26.763   3.926  0.1586  0.1746  0.0388
59544W        W15785  15.321  12.500  10.813 -0.3538  0.1494 -0.1079
59545W        W15786  23.040   8.070  20.794 -0.1186  0.2175  0.3535
59546W        W15787  30.395  34.764   7.409 -0.2160 -0.1669  0.2355
59547W        W15788   0.152  30.484  22.681  0.0341 -0.2109  0.0095
59548W        W15789  32.718   7.179  17.723 -0.0108 -0.0727  0.2245
59549W        W15790   2.955   9.592  16.290 -0.1739  0.0555  0.0282
59550W        W15791  23.417   2.850   2.322  0.0514 -0.3467  0.1057
59551W        W15792  13.145   2.460   9.394 -0.1515  0.3040  0.2727
59552W        W15793  14.074  11.421  21.543  0.0784  0.0953 -0.0029
59553W        W15794   9.962   6.859  21.464 -0.0982  0.4177  0.3937
59554W        W15795  24.513  30.129  23.018 -0.2253  0.1296  0.2200
59555W        W15796  30.343  31.177  24.401  0.0611 -0.1567 -0.4346
59556W        W15797  20.662  16.947   3.394  0.2032  0.2016  0.0603
59557W        W15798   8.279   5.384  19.972 -0.0562 -0.3485  0.2956
59558W        W15799  10.024  15.685  11.769  0.0254  0.1973 -0.0866
59559W        W15800   3.552  18.746  17.223  0.0713  0.0096 -0.2538
59560W        W15801  30.306  30.006   0.361 -0.1359 -0.0769 -0.0779
59561W        W15802  34.017  31.948  26.036  0.0608  0.3171 -0.1526
59562W        W15803  33.386   1.714  14.839  0.1090  0.0373 -0.0730
59563W        W15804   1.994  20.453  21.662 -0.4053 -0.0167 -0.0015
59564W        W15805  16.139  15.473  13.479 -0.0815 -0.0480 -0.0990
59565W        W15806  23.118   4.556  17.850 -0.2329 -0.0105 -0.0796
59566W        W15807  34.421  32.647  19.409 -0.3502  0.1270 -0.2957
59567W        W15808  27.579  14.733   7.910  0.2573  0.0816  0.1465
59568W        W15809  22.241  34.798  14.809 -0.0621 -0.3286  0.0119
59569W        W15810  30.037   7.779  24.949  0.1330  0.3540 -0.0607
59570W        W15811  18.158  18.560   5.594 -0.3151  0.1188 -0.1486
59571W        W15812  11.052  19.308   3.738 -0.1994  0.0834  0.0349
59572W        W15813  26.623   7.921  26.128  0.1019  0.1584  0.3309
59573W        W15814  25.790  19.668  25.866  0.0763 -0.0693 -0.0138
59574W        W15815  19.428   7.105   7.133  0.0171  0.0607  0.3847
59575W        W15816  19.963  32.396   0.794  0.3387  0.1195 -0.2199
59576W        W15817  25.382  13.957   0.346 -0.3563  0.4847  0.0673
59577W        W15818  14.338  11.245  14.445  0.1084  0.1487 -0.0085
59578W        W15819  11.384  33.326  13.606  0.4216  0.0465 -0.0137
59579W        W15820   0.336  34.093  17.954 -0.3602  0.0341 -0.0341
59580W        W15821  32.612  25.336   0.622 -0.0984  0.1576 -0.2503
59581W        W15822  10.872  28.931  17.459 -0.0431 -0.1442 -0.0362
59582W        W15823  35.101  34.753  19.789 -0.0110  0.3374 -0.0479
59583W        W15824  13.358   3.518   5.978  0.2300  0.2059  0.1399
59584W        W15825  18.298   5.046   0.779 -0.0628  0.0521  0.1981
59585W        W15826  26.873  28.281  25.372 -0.4012 -0.0765 -0.1773
59586W        W15827  32.061  30.740  19.507 -0.0704 -0.0372 -0.0222
59587W        W15828   9.552  20.990   8.399  0.0482  0.0516  0.0065
59588W        W15829  24.385  18.366  18.440  0.1719 -0.3100 -0.0777
59589W        W15830   7.175  19.567   6.363 -0.0678 -0.1906  0.0746
59590W        W15831   4.830  24.630   0.570  0.1849  0.1000 -0.3629
59591W        W15832  18.499  10.797  12.921 -0.0571  0.1075 -0.0538
59592W        W15833  13.564  30.654  13.773  0.1180 -0.3178 -0.1210
59593W        W15834  24.543   0.331  16.380  0.2592 -0.0714 -0.1803
59594W        W15835   3.532   4.232   0.555 -0.0157  0.2368 -0.4329
59595W        W15836  24.791   4.420   1.532 -0.0792  0.2015 -0.1599
59596W        W15837   8.131  31.123  21.226  0.2568 -0.2638 -0.0567
59597W        W15838  22.624  20.171  25.189 -0.2219 -0.0107 -0.1133
59598W        W15839  10.781  23.652  22.430  0.1113  0.3719  0.6079
59599W        W15840  28.264   5.178  15.888 -0.1510 -0.3889 -0.3720
59600W        W15841   8.440   1.066   0.268 -0.1925 -0.1037  0.0752
59601W        W15842  33.001  27.936  13.778  0.3762  0.1716 -0.3280
59602W        W15843  30.314  28.095  22.528 -0.1379 -0.0556 -0.1522
59603W        W15844   7.503   7.988  12.797  0.1068  0.3014 -0.3105
59604W        W15845  34.776   5.131   7.683  0.1485 -0.0142  0.0414
59605W        W15846   5.377  31.646  13.039 -0.0800 -0.2254  0.1946
59606W        W15847  31.218  23.296  15.432 -0.2152 -0.0322 -0.1802
59607W        W15848  10.987  24.448  10.076 -0.1178  0.2051 -0.0784
59608W        W15849  28.596  32.356  14.890  0.1000 -0.0508  0.2426
59609W        W15850  24.908   0.729  15.908  0.0688 -0.1171  0.0873
59610W        W15851  16.802  34.000   2.828  0.1299 -0.2812 -0.3030
59611W        W15852   9.454  12.889  23.923  0.1538 -0.1528 -0.1698
59612W        W15853   9.964   1.447   7.284  0.1566  0.0949 -0.0197
59613W        W15854   1.583   2.971   4.840 -0.2512 -0.0651  0.1322
59614W        W15855  16.575  20.232   1.831 -0.0389 -0.1360  0.1516
59615W        W15856  23.966  31.722   4.089  0.1951 -0.0365 -0.2443
59616W        W15857  23.707  30.977  13.330 -0.0510 -0.2666  0.1512
59617W        W15858  33.779   5.202   3.062  0.1035  0.0923  0.0539
59618W        W15859   5.802  32.308   3.078  0.3876 -0.1258 -0.1811
59619W        W15860   8.380  30.235  25.350 -0.0659 -0.1072  0.1430
59620W        W15861  31.024   9.613  19.814 -0.1606 -0.3916  0.1255
59621W        W15862  17.065  20.989   3.522 -0.2465 -0.2395  0.0434
59622W        W15863  27.630  21.404  17.998  0.1716 -0.2557 -0.2761
59623W        W15864  19.513  26.393  19.752 -0.4189  0.0382 -0.3391
59624W        W15865  22.041  32.024   7.227  0.0111  0.0190  0.1936
59625W        W15866  24.484  32.623  24.254 -0.0657  0.0879  0.1392
59626W        W15867  29.934  33.043   5.232  0.0261 -0.1535 -0.2116
59627W        W15868  22.230  33.006  13.217 -0.0431 -0.0017  0.0590
59628W        W15869  32.778  30.269  12.664 -0.1290  0.0315 -0.0598
59629W        W15870  16.076  28.279  24.801  0.0680 -0.0790 -0.0014
59630W        W15871  19.660  19.987  23.387 -0.2008 -0.2490 -0.0455
59631W        W15872  26.633  23.417   9.745 -0.0483 -0.2139 -0.1313
59632W        W15873  33.919  13.943  22.688 -0.5315  0.4130 -0.0991
59633W        W15874  13.805  15.158  22.548 -0.3784 -0.0729  0.0244
59634W        W15875  34.543  24.643  17.924 -0.1321  0.0214  0.0417
59635W        W15876  27.319  19.644  10.158 -0.2385  0.0795  0.1353
59636W        W15877  25.791   7.248  17.657  0.1543 -0.3357  0.1983
59637W        W15878  12.054  34.802   2.607 -0.0888  0.2843  0.3171
59638W        W15879  31.564  14.255   9.719  0.1477 -0.2223  0.4103
59639W        W15880  15.084   8.639   4.775  0.0068  0.1020  0.2531
59640W        W15881  31.111   0.390   1.066 -0.1054 -0.0997  0.2818
59641W        W15882  22.297   6.655  17.059 -0.4767  0.1775  0.3532
59642W        W15883   2.455  22.590  20.423  0.0301  0.0585 -0.1131
59643W        W15884  31.548  14.137  24.202  0.0918  0.2438  0.0244
59644W        W15885  28.661   3.950   1.194  0.2310  0.0806  0.0968
59645W        W15886  14.608   4.266  24.243 -0.0488 -0.0829 -0.1041
59646W        W15887  33.160  10.887  21.039  0.1829 -0.3190  0.3341
59647W        W15888  11.003  26.401  24.313 -0.0458  0.1112  0.1047
59648W        W15889  33.907  10.204  19.104  0.0469  0.0518  0.0065
59649W        W15890  31.524  11.909  12.698 -0.0772 -0.0583 -0.1386
59650W        W15891  19.869  31.082   1.292  0.0646  0.0992 -0.2096
59651W        W15892  34.547  18.808  19.661 -0.2762  0.0146 -0.0638
59652W        W15893  11.355  12.100  26.215 -0.3262 -0.3518 -0.3043
59653W        W15894  14.730   2.445   3.053 -0.3130  0.2863 -0.1287
59654W        W15895  35.215   8.557  16.157 -0.0613  0.1958 -0.0314
59655W        W15896   5.692  32.346   6.344  0.3408 -0.0307 -0.0848
59656W        W15897   8.416  29.978   7.596 -0.1960  0.1166  0.2820
59657W        W15898  24.514  14.986  21.832  0.0637  0.0492 -0.3743
59658W        W15899  11.872  23.217  13.735 -0.0979 -0.0194  0.3468
59659W        W15900  19.790  12.174  18.907  0.0432  0.1720  0.3170
59660W        W15901  31.316  29.222   1.551  0.0391 -0.1705  0.2219
59661W        W15902  10.967   8.153   0.512  0.1247  0.1775  0.0813
59662W        W15903  30.636  34.525  24.349  0.0785  0.2063 -0.1699
59663W        W15904  11.266  34.665  13.487 -0.0759 -0.2927  0.1874
59664W        W15905   5.221  13.207  20.044 -0.2481 -0.0832  0.1859
59665W        W15906  20.858   3.869  15.793 -0.1597 -0.0970 -0.0097
59666W        W15907  28.138   3.895  10.277 -0.1538  0.2513  0.1850
59667W        W15908  31.810  33.434  15.922 -0.3055  0.1309  0.3731
59668W        W15909  25.273  31.231  20.439  0.4879 -0.2068  0.2269
59669W        W15910  14.028   4.535  20.840  0.2070  0.0238  0.2026
59670W        W15911  16.631  10.900  20.363 -0.2212 -0.0097  0.1561
59671W        W15912  27.630  12.584  13.813  0.4265  0.2034 -0.2117
59672W        W15913  13.993  22.202  24.148 -0.0487  0.0076  0.0552
59673W        W15914   9.731  10.727  22.274  0.0229 -0.1036  0.1837
59674W        W15915  15.755   1.422  11.481  0.1393 -0.0389  0.1754
59675W        W15916  14.617  14.033   7.319 -0.2694 -0.2914  0.0130
59676W        W15917   5.527  25.604  23.351 -0.1752 -0.2206 -0.2197
59677W        W15918   8.257  16.656  23.710 -0.3128 -0.4715  0.0718
59678W        W15919  13.022  20.930   2.324 -0.1928  0.3829 -0.2047
59679W        W15920  17.781  21.336  23.358 -0.2340 -0.2756  0.2494
59680W        W15921  29.943  28.773  22.851 -0.0394  0.2054  0.0588
59681W        W15922  18.113  19.387   8.520  0.1009  0.1352 -0.3409
59682W        W15923  25.993  30.666  20.577 -0.0050 -0.0060  0.2246
59683W        W15924  18.664  31.277   1.809  0.0225 -0.1302 -0.3245
59684W        W15925   9.241  27.896   9.343 -0.0567 -0.1310 -0.1138
59685W        W15926   8.883   7.242   6.429 -0.5689 -0.1082 -0.3674
59686W        W15927  23.050   3.427  13.650 -0.2160 -0.0170 -0.2463
59687W        W15928  16.075   6.677  12.155 -0.0948 -0.1451 -0.0489
59688W        W15929  26.276  29.625  18.305 -0.2666  0.1769 -0.0032
59689W        W15930   5.528  32.894  23.791  0.1057  0.3369 -0.0184
59690W        W15931  15.625  35.246  19.708  0.0927 -0.0158 -0.0819
59691W        W15932   3.986  30.397   9.198  0.0674  0.1314 -0.4731
59692W        W15933  29.979  33.986  23.817 -0.3146  0.2036  0.2393
59693W        W15934  28.737   0.200  15.534  0.0183  0.0151 -0.0101
59694W        W15935  22.286   2.879  20.421 -0.4558  0.1363 -0.0771
59695W        W15936  25.153   8.184  17.200  0.4796 -0.0753 -0.2995
59696W        W15937  10.261   9.820  19.760 -0.2729  0.0363 -0.1573
59697W        W15938  11.373  34.743   6.156  0.0330  0.1697 -0.1480
59698W        W15939  19.989   6.845  25.086  0.0085  0.1325  0.2096
59699W        W15940   4.435  26.934  23.889 -0.1165  0.0885 -0.0605
59700W        W15941   4.092  11.665  15.121  0.3441 -0.2708 -0.1183
59701W        W15942  30.548  29.847  13.376  0.0220 -0.1260  0.1498
59702W        W15943   1.626   0.046  20.748 -0.3820  0.0936 -0.1013
59703W        W15944   8.893  32.734   0.813 -0.0148 -0.0155 -0.0705
59704W        W15945  20.097  19.846   6.348  0.1259 -0.0531  0.1183
59705W        W15946  10.337  20.186   0.256  0.2933  0.1164  0.2289
59706W        W15947   1.249  14.593  20.984 -0.0534  0.0508 -0.0059
59707W        W15948  33.597   8.191   2.054 -0.0945  0.0984 -0.1143
59708W        W15949   3.541  10.438  23.027  0.0657 -0.2360  0.0598
59709W        W15950  27.812  32.545  10.581 -0.1011 -0.0418 -0.0100
59710W        W15951  19.652   7.989  23.879 -0.1537  0.0102 -0.1694
59711W        W15952  28.846   7.592  14.755 -0.2902  0.2109  0.2058
59712W        W15953  22.647  31.817  17.800 -0.1594 -0.3718  0.3439
59713W        W15954   0.478  17.701  20.752 -0.0693  0.0815 -0.1283
59714W        W15955  22.489   2.272  15.708  0.1672 -0.0977 -0.1645
59715W        W15956  15.524  11.173   4.708 -0.3754 -0.0760 -0.4412
59716W        W15957   4.649  32.517  20.170  0.1038  0.2614 -0.0000
59717W        W15958  26.334  31.567   0.966 -0.1371 -0.0127 -0.0103
59718W        W15959  11.657  32.263   1.040  0.0574  0.2046 -0.1097
59719W        W15960  30.416   5.798  21.665 -0.3524 -0.2497 -0.0732
59720W        W15961  28.343  21.590  23.649 -0.1053 -0.0575 -0.3788
59721W        W15962  31.623  25.951   2.733  0.0839  0.1621  0.0983
59722W        W15963  29.037  25.207  21.501 -0.3013  0.0678  0.2975
59723W        W15964   7.576   9.121  18.382  0.4398 -0.1252  0.1305
59724W        W15965  33.588   0.544   0.056  0.1093  0.2299  0.1397
59725W        W15966  25.009  32.146  15.809 -0.0460 -0.2164 -0.3001
59726W        W15967  33.398  10.533   8.810  0.1979  0.1808 -0.0886
59727W        W15968   3.004  33.588   9.359 -0.1377  0.0512  0.0115
59728W        W15969   8.851  10.613   8.838 -0.0927  0.1872 -0.1261
59729W        W15970  20.262  28.810  26.118  0.0638 -0.0384 -0.2825
59730W        W15971  19.953  27.634   6.092  0.1877 -0.1888  0.0225
59731W        W15972  19.777  16.096  24.098  0.1941  0.0284  0.0311
59732W        W15973  15.612  15.057  11.116  0.0501 -0.2119 -0.2769
59733W        W15974  24.657  28.422  25.059 -0.0608  0.1673 -0.1966
59734W        W15975  29.750  30.748  25.550 -0.1712 -0.0550  0.0326
59735W        W15976  28.250  13.828  10.406 -0.3336  0.0907  0.6301
59736W        W15977  16.014   7.891  12.198  0.1858  0.1497  0.1009
59737W        W15978   1.592   8.033  21.039  0.1476  0.2454  0.1625
59738W        W15979   0.085  18.084  20.792  0.1400 -0.0450  0.1886
59739W        W15980  31.968  11.440  20.934 -0.3771 -0.0470 -0.3432
59740W        W15981  26.104  18.348  14.047  0.3334 -0.1578 -0.2704
59741W        W15982   0.052   3.378  17.535  0.1273 -0.0084  0.4074
59742W        W15983  14.584  16.629   8.199  0.1743  0.0285 -0.2652
59743W        W15984  32.572   7.613  24.807  0.0547  0.0006  0.1574
59744W        W15985  13.141  19.302   2.869  0.0133 -0.0842 -0.0190
59745W        W15986   3.406  30.372   8.540  0.2687  0.1186 -0.0041
59746W        W15987  35.042  31.671   0.271  0.0222  0.0527 -0.0485
59747W        W15988  28.173   7.123  21.314 -0.2388  0.4713 -0.0821
59748W        W15989   1.327  14.626  13.517 -0.1045  0.2516  0.0649
59749W        W15990   7.795  10.509  13.342 -0.1794  0.0063  0.2685
59750W        W15991   2.882  11.385  19.507  0.3959  0.1076  0.0144
59751W        W15992  25.008   4.897  19.214 -0.1352 -0.2017 -0.2283
59752W        W15993  14.238  18.346   5.175  0.1102  0.2405  0.4842
59753W        W15994   4.830  23.772   1.871  0.2095  0.4136 -0.4010
59754W        W15995  19.676  17.625  22.342  0.0707 -0.0185  0.0880
59755W        W15996  19.940  25.009   7.071 -0.0710 -0.2512 -0.3864
59756W        W15997  26.142   4.168  17.865 -0.0693  0.2265 -0.0054
59757W        W15998  30.909  27.491  17.958 -0.2551  0.1183  0.0795
59758W        W15999  23.928  23.018  22.079  0.1571 -0.0658 -0.0757
59759W        W16000   5.805  12.469  17.584 -0.0864  0.3088  0.0449
59760W        W16001  29.974  16.695  18.201  0.0481 -0.2642  0.1311
59761W        W16002  10.858  26.161  10.398  0.0793  0.1772  0.0726
59762W        W16003  31.335   4.717  24.601 -0.2536  0.2762 -0.2704
59763W        W16004  14.323  28.634  16.205 -0.2687 -0.0551  0.2833
59764W        W16005  27.097  11.241  15.194 -0.1068  0.2552 -0.1211
59765W        W16006  30.057  18.213  19.740  0.0894  0.1929  0.2909
59766W        W16007  24.001  13.221  15.671 -0.0051  0.0176  0.1668
59767W        W16008  13.973  31.453   9.409  0.0643 -0.0882  0.0975
59768W        W16009  18.485   0.246  21.064  0.1470  0.0801 -0.2150
59769W        W16010  17.650   4.182   6.976  0.1918  0.1223  0.0381
59770W        W16011  11.865  32.981   2.645  0.0678 -0.1028  0.3203
59771W        W16012  20.360   0.332   8.294 -0.0768  0.0700  0.2134
59772W        W16013   2.461  29.491   6.126  0.4266  0.3156 -0.1583
59773W        W16014  15.830   2.671   8.485 -0.2167  0.1646  0.3459
59774W        W16015  12.256   3.187   4.743 -0.0063  0.1485 -0.1718
59775W        W16016  15.153  14.759   8.669  0.3734  0.1365 -0.3556
59776W        W16017   0.004  34.161  17.529 -0.0485 -0.1391 -0.0919
59777W        W16018  12.339   4.026  20.789 -0.2433 -0.1555  0.1347
59778W        W16019  14.707   4.749  22.815 -0.2640 -0.5196 -0.0930
59779W        W16020  25.657  29.811  23.687 -0.1079 -0.0374 -0.1852
59780W        W16021   3.936   8.016   6.303 -0.0532 -0.2296  0.0432
59781W        W16022   2.889  34.819  25.343  0.1146  0.2237 -0.3125
59782W        W16023  29.463  18.762  14.894  0.2352  0.0059 -0.1138
59783W        W16024   6.769   9.607  18.642 -0.2879  0.2475  0.0429
59784W        W16025  23.880   6.192  23.854  0.2083 -0.1521  0.0761
59785W        W16026  10.919   1.755  10.651  0.3859 -0.2645 -0.1186
59786W        W16027  13.744  29.980  23.023 -0.1244  0.0314 -0.0869
59787W        W16028  35.364  26.040   3.768 -0.0342  0.1136  0.1294
59788W        W16029  14.285   8.771  11.971  0.1212 -0.1549  0.3161
59789W        W16030  32.492  33.358   6.746 -0.2815  0.0107  0.3620
59790W        W16031  31.757   6.295   4.403 -0.1675  0.3086 -0.1281
59791W        W16032   0.488  25.610  22.341  0.2473 -0.0919 -0.2614
59792W        W16033  29.156  21.797  18.309 -0.0431 -0.0839  0.1315
59793W        W16034  12.485   8.067   5.773  0.0066 -0.2037  0.1941
59794W        W16035  19.129   3.734  24.661 -0.2660  0.1092 -0.3926
59795W        W16036  13.259  16.677  23.715  0.2846 -0.0393 -0.0070
59796W        W16037  10.349  33.266  13.961  0.0063  0.0050 -0.1521
59797W        W16038  26.810   8.190  19.135  0.1711  0.0249  0.3990
59798W        W16039   1.647  28.530   0.030  0.0419  0.2240 -0.4710
59799W        W16040  32.370  11.806  22.276 -0.1729  0.0153 -0.2279
59800W        W16041  24.055  11.149  25.609 -0.2118 -0.0091 -0.0808
59801W        W16042  34.605  21.379   7.818 -0.0370 -0.1456 -0.1892
59802W        W16043  14.234  26.031   4.902  0.1575  0.1313  0.0293
59803W        W16044   8.609  14.999  20.651  0.0578  0.0573  0.0313
59804W        W16045  16.500  12.998  24.621 -0.2397 -0.0048  0.1380
59805W        W16046   3.403   5.327  25.789  0.3288  0.2821  0.1019
59806W        W16047  28.968  14.797   5.835  0.3117  0.1244  0.1677
59807W        W16048  24.139  29.598  23.778 -0.1339  0.0548 -0.0665
59808W        W16049  33.802  19.960  13.968  0.3728  0.0882 -0.3376
59809W        W16050  27.093   2.208  12.614 -0.0273 -0.0629  0.2702
59810W        W16051  28.439   1.545   4.962  0.3060 -0.0247  0.0581
59811W        W16052  21.996  16.285  17.127  0.0851  0.2153 -0.1927
59812W        W16053  33.791  22.493  23.293  0.0291  0.2149 -0.1258
59813W        W16054  31.391  32.327   5.300  0.0645 -0.0962 -0.0505
59814W        W16055  30.114   7.819  22.697 -0.2347  0.0768  0.0457
59815W        W16056  34.300  25.144  14.889 -0.3142  0.2277 -0.1134
59816W        W16057  10.694  21.910  13.344 -0.0513  0.2368 -0.0529
59817W        W16058  20.003  23.807  19.752 -0.0449  0.0668  0.0036
59818W        W16059  30.856  15.632  20.016 -0.0139 -0.1136  0.1178
59819W        W16060  17.176   3.796  10.602 -0.3557  0.0973 -0.2349
59820W        W16061   3.358  20.277   3.849  0.2112 -0.0372 -0.0177
59821W        W16062  16.025  18.689  23.669 -0.1529 -0.0118  0.0324
59822W        W16063  33.457   6.723  12.839 -0.3324 -0.0876  0.2903
59823W        W16064  28.352   1.053  14.378 -0.2277 -0.1013  0.1694
59824W        W16065  11.275   9.646   1.654  0.2324  0.4424 -0.0640
59825W        W16066   3.772  12.226  19.230 -0.1511  0.0950 -0.3289
59826W        W16067   3.503  21.774   3.364  0.0169  0.2809 -0.1278
59827W        W16068   1.156   7.341   3.103 -0.2643  0.2122 -0.0787
59828W        W16069  32.792  18.181  21.015  0.0691 -0.0340  0.2676
59829W        W16070  15.630   9.270   9.058  0.2914  0.3583  0.0579
59830W        W16071  33.034  17.798  19.361 -0.2394 -0.3350 -0.0095
59831W        W16072   3.520  22.311  20.381  0.1037  0.1304 -0.4881
59832W        W16073  31.294   8.982   1.021 -0.2664 -0.1692  0.1272
59833W        W16074  34.179  14.595  10.772 -0.0353 -0.2328  0.0896
59834W        W16075  30.482  25.801   8.158 -0.2116  0.0308  0.0164
59835W        W16076   8.206  31.259  15.466  0.0455  0.0276 -0.0869
59836W        W16077  32.156  16.881   0.529  0.2843  0.1211  0.0383
59837W        W16078  10.126  10.208   7.708 -0.0615 -0.0628  0.0689
59838W        W16079   9.863  11.284  19.763  0.3529  0.0252  0.5442
59839W        W16080  15.326   2.662   1.096  0.1300  0.2275 -0.1832
59840W        W16081   1.490   0.844   0.531 -0.1040  0.2414  0.1543
59841W        W16082  23.757  16.793   0.457  0.1078  0.0033  0.1462
59842W        W16083  11.503  18.990   1.743  0.2322 -0.2238 -0.3858
59843W        W16084   1.178  34.033  16.951 -0.0467 -0.2056 -0.1655
59844W        W16085  27.150  29.688  23.707  0.1223  0.0026  0.2585
59845W        W16086   3.796  20.404  18.559  0.2529  0.0810  0.2642
59846W        W16087  34.917   5.722  18.143  0.0293 -0.1180 -0.0167
59847W        W16088  28.450  12.202  11.037 -0.1320 -0.2717  0.0447
59848W        W16089  10.836  31.859   1.855  0.0503  0.2790 -0.0270
59849W        W16090  13.104   3.913  25.555  0.0928  0.0929 -0.1930
59850W        W16091  28.020  24.612  16.134  0.3525  0.0383 -0.0276
59851W        W16092  26.454  28.139  10.773 -0.0209 -0.0900  0.2705
59852W        W16093  11.749  28.106  11.858  0.0322 -0.2789  0.1786
59853W        W16094  27.568  23.481  20.223 -0.2329  0.1561 -0.0661
59854W        W16095  28.627   2.147  16.570  0.0236  0.0646 -0.1503
59855W        W16096   3.270  19.840   4.161 -0.0849 -0.2388 -0.3046
59856W        W16097  22.617   7.506  21.886 -0.0075  0.1231  0.0295
59857W        W16098  31.174  34.728  25.296 -0.1795  0.2356  0.1306
59858W        W16099  32.163   2.143  21.256  0.0983 -0.2244 -0.1792
59859W        W16100   7.251  13.939   4.740  0.1373  0.0020 -0.0405
59860W        W16101  29.604  32.170  24.107  0.1441 -0.0782 -0.1384
59861W        W16102  22.364  10.800  22.060  0.0021 -0.0090 -0.2465
59862W        W16103   6.959  14.671   2.078 -0.0256  0.3940 -0.0130
59863W        W16104  19.726  32.681  21.293  0.1676  0.1222 -0.0051
59864W        W16105   6.149   1.991   5.079 -0.1098 -0.2599  0.1425
59865W        W16106   7.181  34.453   3.661 -0.2294 -0.2472 -0.2895
59866W        W16107   2.306  28.066  23.225 -0.0285  0.0203 -0.0330
59867W        W16108   9.977   8.266  11.543  0.0954 -0.2484  0.3363
59868W        W16109  26.334  34.962  21.308 -0.1251  0.0734 -0.1351
59869W        W16110  33.729  21.214  15.495  0.0338  0.0060  0.0312
59870W        W16111   0.279   6.734  18.740  0.1043  0.0711  0.0218
59871W        W16112  34.550  10.433   0.279 -0.0422 -0.0861 -0.2800
59872W        W16113  26.878   0.038  11.143 -0.1414 -0.1844  0.0864
59873W        W16114  18.833  12.426  21.769  0.1952 -0.2678  0.0201
59874W        W16115  13.173  32.995   9.655  0.1911  0.1425  0.1544
59875W        W16116  35.368  19.741  25.625 -0.1283  0.0221 -0.0047
59876W        W16117  24.075  34.906  19.745 -0.0563 -0.1652 -0.1078
59877W        W16118  12.385  32.052  10.942 -0.0704 -0.1138 -0.0131
59878W        W16119  19.023  30.802  25.849 -0.1773  0.1190  0.4522
59879W        W16120   5.441  28.886  14.665 -0.0514  0.3040  0.0730
59880W        W16121  32.339  13.257  25.992  0.0165 -0.4662 -0.0994
59881W        W16122  24.217   4.996  12.830  0.0992  0.3988  0.1212
59882W        W16123   6.116  21.625  25.854 -0.3202  0.3442 -0.1526
59883W        W16124  19.470   1.549   4.398 -0.0492 -0.0555  0.1089
59884W        W16125  14.446  22.987   3.860 -0.2164 -0.2119  0.0074
59885W        W16126  33.913   3.508   4.549  0.3034 -0.0263 -0.3339
59886W        W16127   1.642  31.833  18.265  0.3115  0.0485 -0.1606
59887W        W16128  28.664  32.094  23.713  0.0353 -0.1089 -0.0978
59888W        W16129   9.774  12.336   5.053 -0.1426 -0.1106 -0.1260
59889W        W16130  27.206   5.858   4.598  0.2052  0.0846 -0.2878
59890W        W16131  31.732  26.297  22.664  0.0578  0.1264  0.2113
59891W        W16132  25.170   0.780   6.333  0.1308  0.3683 -0.1323
59892W        W16133   6.761   2.479   2.675 -0.0295  0.0167  0.0809
59893W        W16134   9.489  30.989   5.142 -0.2265  0.0956  0.4356
59894W        W16135  29.285   9.798   9.898 -0.1402  0.0355  0.3100
59895W        W16136   7.645   5.485   1.593  0.2034 -0.0264 -0.0660
59896W        W16137  23.241  16.127  25.656  0.1220 -0.2134 -0.2011
59897W        W16138  10.699  21.941  22.670  0.1568  0.1780 -0.0597
59898W        W16139  24.392  29.676  22.236 -0.0379  0.1120  0.1654
59899W        W16140  20.248  15.073   1.935  0.0924 -0.0159  0.3230
59900W        W16141  32.014   1.676  24.000 -0.0154  0.1007  0.0901
59901W        W16142  29.025  28.066   2.487 -0.0594 -0.0284 -0.2161
59902W        W16143  32.295  21.186   0.407 -0.0029  0.4341 -0.0934
59903W        W16144  30.666  29.523  14.784 -0.1023 -0.0135 -0.1384
59904W        W16145  16.759   7.728  26.187 -0.0084 -0.0183 -0.0357
59905W        W16146   0.930  18.860  16.651  0.0970  0.1960  0.2288
59906W        W16147  29.489  26.997  13.343 -0.2387 -0.1966 -0.0724
59907W        W16148  13.882  10.253  12.453 -0.0209 -0.0232  0.1967
59908W        W16149  31.695  10.571  12.401  0.1670 -0.0362  0.0823
59909W        W16150  17.761  24.703  12.335  0.2626  0.1797 -0.2543
59910W        W16151  15.889  15.039   3.191  0.0076  0.1238  0.2677
59911W        W16152  18.059  15.637  11.532 -0.2600  0.1760  0.0998
59912W        W16153   3.863  11.901   5.440  0.1376 -0.2234  0.1716
59913W        W16154  21.435  23.002  15.923 -0.0747 -0.1611  0.1734
59914W        W16155   3.577   9.070   5.768 -0.1188  0.0391 -0.1181
59915W        W16156  26.840   2.441  22.153  0.0593  0.0137 -0.1586
59916W        W16157  23.943  32.498  20.486 -0.0444 -0.0968 -0.0651
59917W        W16158   4.679  19.384  23.491 -0.2400  0.1953 -0.2038
59918W        W16159  17.884  24.175   4.358  0.1201  0.0026  0.0651
59919W        W16160  24.221   5.797  19.459  0.0639  0.0519  0.4706
59920W        W16161  14.457  24.432  17.456  0.0932 -0.1152  0.1207
59921W        W16162  19.689   7.124  19.054 -0.0801 -0.2195  0.1323
59922W        W16163  21.619   5.981   3.738 -0.3131 -0.5104 -0.3260
59923W        W16164  28.396  15.974  18.804 -0.0587 -0.0219 -0.1921
59924W        W16165  19.446   7.502  24.051  0.1785  0.0773  0.3827
59925W        W16166   6.845   6.358  22.168 -0.0396 -0.2865  0.1697
59926W        W16167   3.173  29.863   8.667  0.1089  0.1589  0.2906
59927W        W16168  26.008   7.761  13.219 -0.2415 -0.1185  0.2342
59928W        W16169  25.773   5.378  14.906  0.2206 -0.0268 -0.0395
59929W        W16170  29.448  20.055   9.605 -0.1256  0.0429  0.1252
59930W        W16171   4.415  34.172  12.501 -0.3900  0.1613  0.0200
59931W        W16172  20.524  22.597   0.644  0.0745 -0.0861 -0.2241
59932W        W16173  14.683  12.171  24.150  0.3522  0.1456  0.0699
59933W        W16174  26.841  17.622   9.533  0.0042  0.0281  0.1141
59934W        W16175  18.416   8.617   5.963 -0.0034 -0.0404 -0.4298
59935W        W16176  12.498   8.085   3.135  0.0949  0.0596 -0.2745
59936W        W16177   5.859  10.821   8.737 -0.1844  0.1874  0.1444
59937W        W16178  11.050   2.721  21.165 -0.2451  0.0949  0.2824
59938W        W16179  22.233  10.403  16.685 -0.1920  0.2510 -0.0196
59939W        W16180  27.167  35.093  16.902 -0.0347 -0.1614  0.0020
59940W        W16181  15.419  14.494   0.391 -0.0283  0.2125  0.3393
59941W        W16182  17.837   0.880  17.324  0.2525 -0.0133 -0.2565
59942W        W16183  27.195  34.516  22.394  0.3017  0.0482  0.3286
59943W        W16184  24.398   1.294  20.829 -0.2867 -0.1271  0.0670
59944W        W16185  25.956  13.959  18.032 -0.0312  0.0455  0.1277
59945W        W16186  22.542  25.153  19.471 -0.1575  0.2543 -0.0623
59946W        W16187  16.324  16.147  20.567 -0.2240 -0.2634  0.0778
59947W        W16188   6.668   7.346   9.613 -0.2894  0.0712  0.0752
59948W        W16189  14.452   4.502   1.357 -0.1557  0.1227 -0.1592
59949W        W16190   9.704  24.730  10.351  0.1088  0.0321 -0.0628
59950W        W16191   8.265  26.845  21.317 -0.0029  0.1241 -0.0391
59951W        W16192  23.448  22.602  25.795  0.0639  0.0629 -0.0014
59952W        W16193  14.296  28.054   7.059 -0.1762 -0.2992 -0.0986
59953W        W16194  25.609  34.680  15.653 -0.2474 -0.0001 -0.1758
59954W        W16195  35.200   5.722  13.761 -0.1640 -0.1606  0.0564
59955W        W16196  18.250  31.247   1.483  0.0880 -0.2155 -0.2738
59956W        W16197   4.555  33.409   1.912  0.0626 -0.2290 -0.1268
59957W        W16198  32.328  11.892  25.846  0.1985  0.1571  0.2312
59958W        W16199  30.234   8.255  11.293  0.0486  0.1661 -0.2442
59959W        W16200  11.457  26.247   4.960  0.0374 -0.1319 -0.0239
59960W        W16201  12.903  11.390  12.072  0.2004  0.1910 -0.3455
59961W        W16202  21.832   4.293   0.056  0.0416 -0.1425 -0.0828
59962W        W16203  15.490  32.970   6.187 -0.1113  0.2783 -0.2706
59963W        W16204  13.720  18.290   5.133 -0.0911 -0.1272 -0.1047
59964W        W16205  28.699  17.735  20.686  0.1440 -0.1896  0.0027
59965W        W16206   9.323  27.661   0.168  0.1117  0.1167  0.0413
59966W        W16207  29.275  32.279  15.269  0.2141  0.0834 -0.0673
59967W        W16208  24.336  17.461  17.539 -0.2309 -0.3255 -0.3888
59968W        W16209  13.945   4.893   3.355 -0.1444 -0.1959  0.1497
59969W        W16210  16.926   8.869   1.857  0.0656 -0.0088  0.0895
59970W        W16211   6.727  17.539  22.712  0.1131 -0.2395 -0.2421
59971W        W16212  33.802  14.510  11.878 -0.0523  0.0227  0.0511
59972W        W16213  25.096  33.692  14.861  0.4653 -0.2775 -0.0373
59973W        W16214  14.066  16.362   8.832  0.0669  0.0826  0.0417
59974W        W16215   2.253   2.938   2.881 -0.0965 -0.0218  0.1574
59975W        W16216   6.187  16.084  22.912  0.1200 -0.2351  0.4109
59976W        W16217  18.769  24.675  10.064 -0.2061 -0.1813  0.2574
59977W        W16218  13.053   5.769   5.852  0.1072 -0.1287  0.1605
59978W        W16219   4.667   6.289  19.640 -0.0991 -0.0135  0.1371
59979W        W16220  27.028  10.431  12.298 -0.0869  0.2096 -0.0214
59980W        W16221   6.323   2.152  24.570 -0.3298 -0.1198 -0.1321
59981W        W16222  32.629   4.831  15.616 -0.0309 -0.1204  0.3645
59982W        W16223  26.537  16.315  13.852  0.3601  0.2610 -0.0989
59983W        W16224  34.751  26.030  21.022  0.0293  0.0686 -0.0253
59984W        W16225  19.277  28.190   5.110 -0.0867  0.0285  0.0259
59985W        W16226  14.289   2.210  11.494 -0.1069 -0.0631 -0.2322
59986W        W16227   1.202  20.904  19.773  0.0330  0.1612  0.1418
59987W        W16228   4.876  27.858  13.624 -0.0048  0.0509  0.1225
59988W        W16229  18.543   2.144  21.072 -0.0857  0.0595  0.0505
59989W        W16230  22.765  34.016   4.013 -0.0024 -0.0971 -0.3185
59990W        W16231  25.653  34.606  11.567 -0.0778 -0.0945  0.0271
59991W        W16232  14.766  34.170  25.659  0.3569 -0.1222 -0.0524
59992W        W16233   6.812  30.392  12.791 -0.0018 -0.0582  0.1393
59993W        W16234  19.635   2.576   6.946 -0.0560 -0.2267 -0.2826
59994W        W16235   9.545  29.392   4.781 -0.1784 -0.1434 -0.0066
59995W        W16236  18.751  34.174  26.061 -0.1251 -0.1050  0.1614
59996W        W16237   9.809  27.579   6.386 -0.0298 -0.1870 -0.3168
59997W        W16238  23.332  29.960  15.108  0.1449  0.0867  0.1163
59998W        W16239  19.022  33.308  26.243 -0.2907 -0.0305 -0.1630
59999W        W16240  17.019  15.185  22.681 -0.0929  0.1101 -0.0078
60000W        W16241  10.989  31.609  13.034  0.1536 -0.3440 -0.3743
60001W        W16242   8.538  26.238   1.987  0.0990 -0.0237  0.2772
60002W        W16243  17.059  34.332  25.279  0.0417 -0.0212  0.1421
60003W        W16244  21.223  13.306   4.493 -0.2526 -0.2940  0.0321
60004W        W16245  10.897  32.860   8.702  0.0582 -0.1472  0.0795
60005W        W16246   8.517  16.337   1.159 -0.2071 -0.0713 -0.1959
60006W        W16247  10.424   1.032   3.512  0.3795  0.1126 -0.0929
60007W        W16248  11.995   2.825   2.357 -0.3765 -0.0249 -0.0902
60008W        W16249  23.766  27.967  16.844 -0.0339 -0.1558  0.0386
60009W        W16250   8.127  35.381   5.921 -0.2260 -0.2084 -0.3934
60010W        W16251  32.584  23.973   0.176  0.2759 -0.1113  0.2605
60011W        W16252  27.342  30.646  16.535  0.0196 -0.0118 -0.4417
60012W        W16253   9.938  29.114  22.316 -0.0027 -0.0652 -0.0873
60013W        W16254  19.254  21.286  22.981 -0.1473 -0.3084  0.0598
60014W        W16255  16.427  13.709   5.368 -0.0175  0.0098  0.0308
60015W        W16256  14.096   9.238  12.173 -0.1135  0.1145 -0.0830
60016W        W16257  19.362  19.394  25.986 -0.0326  0.0844 -0.3717
60017W        W16258  17.044  17.140   3.523 -0.3849 -0.3529 -0.1496
60018W        W16259   5.056   5.497  25.444  0.0887  0.2181 -0.1155
60019W        W16260  28.658  22.980  22.766  0.0460 -0.0118  0.2848
60020W        W16261  31.034  18.364  15.172 -0.1012  0.1356 -0.0355
60021W        W16262  13.055  10.681  22.173 -0.1863 -0.1235 -0.0938
60022W        W16263  31.109   4.187  13.771  0.2087  0.2272 -0.2033
60023W        W16264  18.904  31.742   8.420  0.1401  0.2059 -0.2684
60024W        W16265  31.283  12.018  17.659  0.3714 -0.0530 -0.1586
60025W        W16266  16.718  34.562   0.330 -0.0989  0.1213 -0.2028
60026W        W16267  14.638  12.583  19.441  0.1780 -0.1373  0.1978
60027W        W16268   3.077   8.157  19.534 -0.2721  0.1823 -0.0753
60028W        W16269  17.125  17.796   7.760 -0.0972  0.0880 -0.2229
60029W        W16270  27.143  32.850  16.793 -0.1095  0.1660  0.0055
60030W        W16271   1.759  12.561  18.562  0.1655  0.0479 -0.2122
60031W        W16272   6.597  15.287   5.554 -0.0131  0.2961  0.0289
60032W        W16273  19.860  23.238   7.139 -0.1280 -0.3188 -0.4508
60033W        W16274   1.204  21.184  16.323 -0.2586  0.1683  0.1541
60034W        W16275  31.055  17.627  23.876  0.0499  0.1720 -0.2613
60035W        W16276  31.387  11.344  24.422  0.3385 -0.0831  0.0180
60036W        W16277  17.802  28.808   9.268 -0.0099 -0.2212  0.0867
60037W        W16278  18.494   9.796  19.093 -0.3156  0.1090 -0.1300
60038W        W16279  23.898  25.351  12.282  0.0080  0.1194  0.2312
60039W        W16280  23.412  23.691  18.151  0.0452 -0.1134 -0.0255
60040W        W16281   7.853   5.296  20.677  0.1773 -0.2393 -0.4617
60041W        W16282  28.649  10.937  23.394  0.1515  0.1749 -0.1230
60042W        W16283  10.647  12.855  22.757 -0.2641 -0.1139 -0.0949
60043W        W16284   6.736   2.716  11.145  0.2483  0.0625  0.0901
60044W        W16285  22.401  14.826  19.732 -0.1572  0.1103 -0.1871
60045W        W16286   7.139  29.483   2.271  0.0679  0.0797 -0.0293
60046W        W16287  24.049  20.445  17.062  0.2699 -0.1094  0.0571
60047W        W16288  17.277  25.132  11.165 -0.2909  0.4197 -0.0516
60048W        W16289  13.025  12.775   9.109 -0.2035  0.2626 -0.0308
60049W        W16290  16.542  18.411   2.389 -0.0842 -0.0427 -0.2389
60050W        W16291  17.553  18.157  24.461  0.0503 -0.0203 -0.1807
60051W        W16292  16.093   1.235   1.063 -0.0640  0.0986  0.1198
60052W        W16293  27.130  30.963  15.365  0.1952  0.0586  0.2360
60053W        W16294  31.237  17.740   9.347  0.1238  0.1534 -0.3130
60054W        W16295  15.494  29.934  13.965  0.2122  0.4366 -0.0044
60055W        W16296   1.359   8.445  12.148  0.1846  0.2007  0.2203
60056W        W16297   7.464  12.049   9.543  0.1329 -0.0564 -0.0837
60057W        W16298  17.281  30.875   8.649 -0.0429  0.0201  0.2867
60058W        W16299  13.403  19.869   1.489  0.0374  0.0048 -0.2795
60059W        W16300  29.712   4.827  10.465  0.4915  0.1047 -0.0018
60060W        W16301  28.108   7.708   1.103 -0.1433 -0.0929 -0.0133
60061W        W16302   6.403  15.376   0.096 -0.1341  0.0394  0.0105
60062W        W16303  34.392  12.563  17.632 -0.3437 -0.0855 -0.0292
60063W        W16304  30.294  13.606  16.988 -0.1762 -0.1877 -0.1669
60064W        W16305  24.679  35.252  23.875 -0.1194 -0.0118  0.0672
60065W        W16306  23.208  34.290  21.849  0.2577  0.0172  0.3240
60066W        W16307  32.245  22.947  14.726  0.0915 -0.2571 -0.1429
60067W        W16308  24.464  19.328  13.732 -0.1876  0.1083 -0.0840
60068W        W16309   2.190  29.721  18.842  0.0427 -0.1346 -0.0524
60069W        W16310  26.997  13.993   6.019 -0.1840  0.2192  0.0326
60070W        W16311   1.685  15.746  11.749  0.0198  0.0612  0.3164
60071W        W16312   2.489  23.866  22.891 -0.2805 -0.0361  0.1857
60072W        W16313  18.396   0.067  15.338  0.0757  0.0956 -0.3433
60073W        W16314  24.403  21.794  20.429  0.1691 -0.1710  0.1550
60074W        W16315   7.451  30.826  14.979 -0.0651  0.3392  0.0309
60075W        W16316  16.165   8.991   7.320 -0.1254 -0.0972 -0.1606
60076W        W16317  30.703  12.863  10.336  0.0415 -0.1695 -0.2331
60077W        W16318  19.750  32.805   1.161  0.2211  0.0891  0.1059
60078W        W16319  27.504   4.282  20.327 -0.3904  0.0881  0.2634
60079W        W16320  22.693   2.518  24.512 -0.0994  0.1859 -0.1070
60080W        W16321   2.475  26.218  20.964  0.2272  0.0611  0.1638
60081W        W16322  22.015  14.960  17.546  0.1009 -0.0114 -0.1928
60082W        W16323  29.182   0.502   5.585 -0.0972 -0.1707 -0.2733
60083W        W16324  30.140   6.366  20.889  0.2248 -0.1299  0.2599
60084W        W16325  34.735  23.815  20.597  0.0946 -0.1175  0.2549
60085W        W16326  26.419   7.948  14.529 -0.3955  0.1576  0.2509
60086W        W16327  14.750  16.300   4.883 -0.1354 -0.2256 -0.0146
60087W        W16328  19.915  26.917   6.112  0.3277 -0.0533  0.0171
60088W        W16329  26.447   4.131  23.374  0.1282 -0.1676 -0.2700
60089W        W16330  11.714  27.023  11.251  0.1541 -0.0445 -0.2619
60090W        W16331  21.587  32.609  19.424 -0.2272 -0.3050  0.1713
60091W        W16332   9.754  25.001  13.862 -0.2968 -0.2894 -0.1887
60092W        W16333  32.113   1.813  20.743  0.0264 -0.0602 -0.1706
60093W        W16334   5.111  19.213  23.771  0.2525 -0.1602  0.0307
60094W        W16335  19.606  13.055   8.851  0.3348  0.0215  0.0218
60095W        W16336  22.390  34.890  22.632  0.2348 -0.2348 -0.4796
60096W        W16337   5.038  32.022  21.161 -0.0684  0.0315 -0.1760
60097W        W16338  18.651   0.995   5.946 -0.1006  0.0303  0.0551
60098W        W16339  33.240  13.635  10.319 -0.0667 -0.2895  0.2440
60099W        W16340  18.344  27.976  25.059 -0.2203  0.1010  0.1308
60100W        W16341  14.496  26.983   9.202  0.2107  0.1443  0.2085
60101W        W16342   1.441  14.916  13.072 -0.3812  0.4623 -0.5366
60102W        W16343   1.586  26.239  21.595 -0.0112  0.3233  0.3154
60103W        W16344  30.601   4.989  19.730 -0.0946  0.0602 -0.0299
60104W        W16345   0.751  12.985  12.753  0.1854 -0.2980  0.1297
60105W        W16346  11.078  23.150  24.117 -0.0763 -0.2043  0.0715
60106W        W16347  19.574  33.712  25.776  0.1160 -0.1363 -0.0582
60107W        W16348  19.561   9.071  19.439 -0.1801  0.0677 -0.0862
60108W        W16349   8.920   7.445   5.926 -0.0257  0.0785  0.1563
60109W        W16350  22.093  34.497  23.505 -0.1523  0.1290 -0.1343
60110W        W16351  10.808  16.612  20.247 -0.0887 -0.1675 -0.1210
60111W        W16352   8.449  14.412   4.217 -0.1771  0.0044 -0.1343
60112W        W16353  22.146  27.030   4.846  0.0363 -0.1683 -0.0379
60113W        W16354  32.215   3.583  16.701 -0.0637 -0.0255  0.1303
60114W        W16355  13.132  20.797   5.844  0.1837  0.0542 -0.2649
60115W        W16356   8.071  28.921   4.119  0.0160  0.0569  0.1265
60116W        W16357   3.808  21.938  17.163  0.0312 -0.1448  0.2581
60117W        W16358  16.718   1.939   7.119 -0.0666 -0.4151  0.2126
60118W        W16359  34.461  21.460  12.516 -0.2180 -0.0014  0.0566
60119W        W16360   9.140  30.472  13.909 -0.0316  0.0024  0.1397
60120W        W16361   9.009   1.120  12.397  0.1801 -0.0545  0.1522
60121W        W16362  31.539  18.088  12.389 -0.2104 -0.1369  0.1809
60122W        W16363   4.429  33.582  24.758  0.1365  0.5260 -0.0076
60123W        W16364  32.037  19.085  13.172 -0.1553  0.2548  0.2740
60124W        W16365   7.480   9.077   2.904  0.0567 -0.0864  0.1211
60125W        W16366   5.478  29.998  11.932 -0.1089  0.0303  0.0783
60126W        W16367  16.143  27.940  24.429  0.2568 -0.2806  0.4944
60127W        W16368   5.865  10.251  23.475  0.1879  0.0127 -0.1815
60128W        W16369  24.903  15.206  21.465 -0.1599 -0.4074 -0.1852
60129W        W16370  31.053  33.855  23.877  0.1104  0.2428 -0.0407
60130W        W16371  18.525  23.117   4.274 -0.0011  0.1598  0.2575
60131W        W16372   9.105  31.791   2.876  0.1023 -0.0115 -0.1243
60132W        W16373  18.699  34.486   0.836  0.1721  0.2151  0.0775
60133W        W16374   9.098  14.791  21.588 -0.0492 -0.0445  0.0641
60134W        W16375  34.489  10.255   2.636 -0.0406  0.1918  0.0505
60135W        W16376  26.252  25.854  18.730 -0.1865 -0.1548  0.5751
60136W        W16377   5.177  12.605   0.154 -0.0933  0.0865 -0.1921
60137W        W16378   6.815   8.148   9.646  0.4571 -0.0126  0.1820
60138W        W16379   8.882  22.103  12.544  0.2306  0.0469 -0.2412
60139W        W16380  19.318  31.084   1.254 -0.0112  0.1030  0.0897
60140W        W16381  11.455  19.782   9.437 -0.0077  0.1614 -0.1147
60141W        W16382  23.194  18.050  20.414  0.1008 -0.0319  0.1026
60142W        W16383   5.024  29.519  22.191 -0.0710 -0.2344  0.3044
60143W        W16384  33.270  20.590  15.374  0.2460 -0.0515  0.1038
60144W        W16385  32.205  12.053  10.401 -0.1850 -0.1260  0.2207
60145W        W16386  32.353  20.861  19.902  0.2377  0.0733  0.1681
60146W        W16387  31.749   5.985  21.846  0.0863 -0.0358  0.0055
60147W        W16388  13.025  19.161  13.954 -0.4979  0.2108 -0.1269
60148W        W16389  31.884  19.142  22.169  0.1473 -0.1093  0.0708
60149W        W16390   3.420  11.266  18.349  0.0914  0.3955 -0.0457
60150W        W16391  20.858  23.356   4.371  0.0307 -0.0184 -0.0383
60151W        W16392   2.712  31.353  10.220  0.2892 -0.2560 -0.0508
60152W        W16393  10.122   5.010  21.324 -0.0950 -0.1004  0.4076
60153W        W16394  29.076   5.844   9.552 -0.2396 -0.0963 -0.1036
60154W        W16395  22.842   0.958   4.957 -0.0086  0.0509  0.0462
60155W        W16396  24.401  18.020  20.761 -0.0954  0.0135 -0.0165
60156W        W16397  11.296  32.354   0.574  0.1570  0.0991  0.2849
60157W        W16398   0.605  28.498  22.471 -0.5832  0.1197 -0.0830
60158W        W16399  28.976  25.101  17.049 -0.0622  0.0287  0.0228
60159W        W16400   6.406  28.035  11.750 -0.0145 -0.4133 -0.0524
60160W        W16401   5.242  23.085   0.004 -0.1850  0.1645  0.1169
60161W        W16402  25.033   2.922  17.486  0.2464  0.1654  0.3217
60162W        W16403  23.286   2.903   6.033 -0.1925 -0.0504 -0.1542
60163W        W16404  26.983   5.205  22.330  0.2275 -0.3218 -0.0740
60164W        W16405  18.373  29.290   3.834  0.1079 -0.4004 -0.0642
60165W        W16406   9.612   4.593   9.427 -0.2893  0.1315  0.0730
60166W        W16407  10.800  34.845  22.917 -0.3449 -0.2683 -0.1128
60167W        W16408  18.988   9.752   4.576  0.0674  0.0680 -0.0117
60168W        W16409  23.775   4.179   1.172 -0.3607  0.2319  0.0091
60169W        W16410   1.550  24.684  25.506  0.3596  0.0828  0.0005
60170W        W16411  13.255   3.011   1.697  0.0960 -0.0571  0.2543
60171W        W16412   4.371  32.843   5.988  0.0803  0.1103 -0.2014
60172W        W16413  26.424   5.286  25.332 -0.2351  0.1459 -0.1397
60173W        W16414   7.854  22.628  24.882 -0.1618 -0.0552  0.0795
60174W        W16415   3.150  35.084  11.080  0.1227  0.1913  0.0952
60175W        W16416   8.187  30.215   5.861 -0.4853  0.0462  0.0555
60176W        W16417  19.691  10.138  10.145 -0.2467  0.3163 -0.0667
60177W        W16418  17.849   3.418   3.750  0.0711 -0.0901  0.0742
60178W        W16419  19.886   2.353   2.894 -0.2611 -0.5980 -0.0225
60179W        W16420  27.141   4.975   4.671  0.5078 -0.1470  0.1917
60180W        W16421  27.300   6.624  18.232  0.4278 -0.4157 -0.2546
60181W        W16422  21.842  20.118   1.933 -0.0732  0.0488  0.1772
60182W        W16423  11.729  31.126  12.927  0.3698 -0.1824  0.0028
60183W        W16424   7.162   0.622   1.894  0.1455 -0.0730 -0.0112
60184W        W16425  34.473   0.484  13.770  0.0854 -0.0292 -0.3663
60185W        W16426  18.755  20.219  24.406 -0.3126 -0.1615  0.3121
60186W        W16427  22.104   2.502  23.789 -0.0556  0.2397 -0.0842
60187W        W16428  20.451   4.954   7.214  0.0651  0.5364  0.1560
60188W        W16429  12.920  23.797   7.448 -0.1702 -0.3048  0.1734
60189W        W16430   9.844  10.517  24.683 -0.2690 -0.0665  0.1631
60190W        W16431   7.243  25.748  25.020  0.0405  0.0971  0.2127
60191W        W16432  29.418   8.826   0.922  0.0343  0.0391  0.0672
60192W        W16433   3.414  17.742  19.142 -0.1197  0.0383  0.1297
60193W        W16434  15.976  11.389  21.517  0.0688 -0.1246 -0.1470
60194W        W16435  24.863  32.932  23.285  0.0705 -0.1190  0.0760
60195W        W16436  26.665  12.572  19.345 -0.0541  0.2007 -0.2864
60196W        W16437  28.072   4.266  11.239 -0.0097  0.0294 -0.0240
60197W        W16438  33.475  12.762  11.461  0.2455 -0.0740  0.0888
60198W        W16439  34.266   2.811   0.253  0.1485  0.1636  0.0058
60199W        W16440  16.861  16.096  12.210 -0.0933 -0.3081 -0.0887
60200W        W16441  18.784  19.304  26.160  0.2169  0.2538  0.1660
60201W        W16442  21.266   1.954  18.909  0.0848  0.1604 -0.0719
60202W        W16443  14.734  25.777  12.421 -0.0184 -0.1947 -0.0448
60203W        W16444   0.433  10.775  17.734 -0.0852 -0.0807 -0.1335
60204W        W16445  33.639  12.098   1.017 -0.0168 -0.3473 -0.1645
60205W        W16446  13.600  21.374   4.091 -0.1252  0.1229 -0.1583
60206W        W16447  26.073  18.600   0.248 -0.0364  0.2819  0.0493
60207W        W16448  15.496  23.561   4.017  0.3888 -0.0872  0.0372
60208W        W16449   2.104   6.545   7.231 -0.0158  0.3886 -0.0057
60209W        W16450  25.511  33.226  25.366  0.0190  0.0912 -0.0334
60210W        W16451  35.249  17.494  23.547 -0.0115  0.1524 -0.1198
60211W        W16452   2.378   5.735   0.379  0.2086 -0.0092  0.0536
60212W        W16453  32.367   3.963  15.522  0.0937 -0.2333 -0.5041
60213W        W16454  14.733  19.786   5.953  0.4641 -0.2078 -0.1109
60214W        W16455   4.948  29.470   8.826  0.2116 -0.1460  0.0726
60215W        W16456  29.897  29.110   0.767 -0.3294  0.0229  0.2292
60216W        W16457  20.782   3.861   7.357 -0.5381  0.1443  0.1640
60217W        W16458  33.387  22.251  22.890 -0.0681  0.2160  0.3660
60218W        W16459  16.539  33.899  24.702  0.0163 -0.2073 -0.1211
60219W        W16460  13.363   7.549  19.104  0.1659  0.0691 -0.0925
60220W        W16461  30.617  25.700  18.419  0.1579  0.1816  0.0547
60221W        W16462  18.759  32.962  17.074 -0.1855  0.1209 -0.2955
60222W        W16463  30.788   7.343   2.301  0.0925 -0.1222  0.1865
60223W        W16464  19.298  30.187   0.149 -0.0729 -0.1419  0.0036
60224W        W16465  28.470  22.710  13.901  0.4188  0.0163 -0.3312
60225W        W16466  26.445  18.526   6.599 -0.1010 -0.0103 -0.1271
60226W        W16467  34.149  33.696   7.383 -0.0678 -0.0886  0.0260
60227W        W16468  16.537  23.673   3.927 -0.4169 -0.1140  0.0685
60228W        W16469  33.927  31.783  17.382 -0.2964  0.1574 -0.1365
60229W        W16470  15.928   3.126  16.507 -0.2179 -0.2460  0.2470
60230W        W16471   6.331  22.680   2.482  0.4510  0.3026  0.0865
60231W        W16472   7.973   4.281   0.845 -0.0207 -0.2096 -0.0930
60232W        W16473  25.854  10.713  23.319  0.0263 -0.1266  0.1927
60233W        W16474   5.849   4.469   2.655  0.0171 -0.1393 -0.0405
60234W        W16475  12.388   2.276   0.835  0.0182  0.0924  0.3761
60235W        W16476  26.147  19.025   6.441  0.2499 -0.1915 -0.0634
60236W        W16477   9.501   9.233  23.555 -0.1125 -0.0803  0.3097
60237W        W16478  10.166   6.001  11.701 -0.1681 -0.2188  0.2130
60238W        W16479  33.076  17.119   9.969 -0.1038  0.0530  0.2089
60239W        W16480  26.364  19.331  17.501  0.0850  0.0995  0.2005
60240W        W16481  27.045  18.294  20.073  0.1108 -0.1447 -0.0808
60241W        W16482  13.952  14.063   7.324 -0.5374 -0.0882  0.0278
60242W        W16483  27.934  23.083  21.779 -0.0596 -0.1889 -0.0184
60243W        W16484   7.310  26.443   4.236  0.5007 -0.0095  0.1750
60244W        W16485  34.216  23.134  16.336  0.4239  0.1617  0.2002
60245W        W16486  11.303  35.058  10.275 -0.2154  0.0453 -0.1543
60246W        W16487  31.540  16.547  17.457  0.1878 -0.1477  0.3312
60247W        W16488  13.685  25.411  12.575 -0.0763 -0.3283  0.2492
60248W        W16489   7.881   4.986  22.923  0.2348  0.3778  0.1072
60249W        W16490  17.543  18.377   1.539  0.1993  0.0516  0.2193
60250W        W16491  28.401   8.450  15.773  0.1990  0.1255  0.3604
60251W        W16492  13.163  14.837  20.125 -0.0434  0.0168  0.0757
60252W        W16493  27.721  14.073  25.588 -0.0652  0.1935 -0.0945
60253W        W16494   7.536   7.926   6.363  0.0454 -0.3314 -0.2625
60254W        W16495  34.565   4.193  25.355 -0.1105 -0.0555 -0.1502
60255W        W16496  16.914  26.492   9.194 -0.1184  0.0801  0.0822
60256W        W16497   1.126   6.019  14.787 -0.0338  0.4264  0.1250
60257W        W16498  16.446  15.914  12.503  0.0445 -0.0587 -0.0184
60258W        W16499   5.683   9.347  10.090  0.0704 -0.0477  0.1078
60259W        W16500  11.786  14.823  24.179  0.1305 -0.1249 -0.0535
60260W        W16501   3.414   5.890  19.567 -0.1444  0.0381  0.3228
60261W        W16502  31.693  25.474   1.205 -0.3159  0.0496  0.1027
60262W        W16503  28.691  21.922  23.866  0.1059 -0.2431  0.0278
60263W        W16504  19.302  15.179   3.902  0.2358 -0.1204  0.0961
60264W        W16505   7.005  13.512  19.641  0.0774  0.1111 -0.1389
60265W        W16506   2.449  30.117  18.751  0.3676 -0.2769 -0.0534
60266W        W16507   0.367   4.467   7.498  0.1970  0.1788 -0.0646
60267W        W16508  34.580  21.892  13.127 -0.0705 -0.1009  0.1563
60268W        W16509  33.762   0.753   6.177 -0.1735  0.0713 -0.2128
60269W        W16510  22.095  30.454  22.076  0.0259 -0.1908 -0.2855
60270W        W16511  16.701  28.648   6.988 -0.0886 -0.1109 -0.2528
60271W        W16512   7.550   6.701  23.666 -0.1587 -0.1983 -0.1081
60272W        W16513   0.929   8.446  14.090 -0.1244 -0.1528  0.1236
60273W        W16514  16.842  28.600   4.614 -0.1648  0.1578  0.0055
60274W        W16515  13.452  20.156  11.419 -0.0533 -0.1891 -0.3318
60275W        W16516   4.803  35.271   6.940  0.0852 -0.0020  0.2420
60276W        W16517  19.888  12.530   6.145 -0.0893 -0.0846 -0.0187
60277W        W16518  10.654  21.126   5.013  0.2534  0.0884  0.0364
60278W        W16519  17.601   7.079   5.510 -0.3835  0.3594  0.1330
60279W        W16520  18.561  29.491  23.446 -0.0836 -0.2781 -0.4164
60280W        W16521  29.004   4.859   1.802  0.1077 -0.4849  0.4436
60281W        W16522   3.831  31.428  24.841 -0.0611 -0.0428 -0.1806
60282W        W16523  21.440  31.365  25.049  0.1065  0.3944 -0.1339
60283W        W16524  20.968   4.002  22.215 -0.1753  0.1448 -0.1762
60284W        W16525  33.351   4.278  16.168 -0.0210 -0.1308 -0.0368
60285W        W16526  12.552  10.548  10.206 -0.0275 -0.0203  0.0851
60286W        W16527   1.543  24.471   3.460  0.0669  0.1005 -0.1909
60287W        W16528   6.193  17.405   0.068  0.0831  0.2055 -0.1159
60288W        W16529  30.851   1.543  18.542 -0.3725  0.0401  0.2365
60289W        W16530  28.551  33.141   4.047 -0.0712 -0.0627 -0.1869
60290W        W16531  34.154  16.337  11.505  0.4454  0.2752  0.2390
60291W        W16532  17.999  18.776   2.252  0.1014  0.1878  0.2856
60292W        W16533  11.382  22.663  26.143 -0.1593 -0.0318 -0.2184
60293W        W16534  24.599  24.853  17.456 -0.1978 -0.1040  0.3693
60294W        W16535  17.126  26.490   2.861 -0.3609  0.3739  0.2358
60295W        W16536  13.337   7.607   1.069 -0.0355 -0.0100  0.0586
60296W        W16537   2.098  22.806  16.256  0.1614  0.2811  0.0747
60297W        W16538  11.142  23.688   8.215 -0.0947  0.2189  0.1507
60298W        W16539  24.174  31.802  24.020  0.3740  0.2497 -0.1270
60299W        W16540  24.841  16.048  15.407 -0.3109  0.0379 -0.1439
60300W        W16541   1.656   5.807  24.785 -0.0928 -0.4423  0.1417
60301W        W16542  22.928   1.798  22.748 -0.1002  0.1648 -0.0623
60302W        W16543   5.097  13.897  21.167 -0.0446  0.2254 -0.2295
60303W        W16544   7.853   9.528  23.210 -0.0334  0.1775  0.0842
60304W        W16545  31.769   7.649  14.072 -0.0234 -0.4300  0.2360
60305W        W16546  25.724  24.049   0.021 -0.0156  0.1040 -0.2331
60306W        W16547  24.134  32.492  17.235  0.0368  0.2008 -0.0259
60307W        W16548  31.549   8.839   1.683 -0.0156 -0.1002 -0.3951
60308W        W16549   9.773  26.313   1.289  0.1900  0.1987 -0.0859
60309W        W16550   6.812  24.629  11.848 -0.2937 -0.1411 -0.0125
60310W        W16551   7.773  14.181   7.450 -0.2243 -0.1631  0.0448
60311W        W16552   9.205  31.616   6.634 -0.2160  0.2018  0.0792
60312W        W16553  28.783  23.282  24.305 -0.1723 -0.2582  0.1388
60313W        W16554   9.141   8.541   3.227  0.1106  0.0505  0.0709
60314W        W16555  21.523   1.906   7.037 -0.1553 -0.0499 -0.2890
60315W        W16556  11.625  28.796  24.413 -0.0179  0.0011 -0.4924
60316W        W16557  12.398  16.737   2.658 -0.1323 -0.3017  0.1818
60317W        W16558  33.811  31.772   3.746  0.0092  0.3043 -0.0558
60318W        W16559  10.501   5.129   4.587 -0.2920  0.5983 -0.0106
60319W        W16560   5.291  29.119   9.468 -0.3911 -0.0096  0.1444
60320W        W16561  30.944   0.148  17.073  0.0578 -0.1594  0.1683
60321W        W16562  21.800  11.276   2.259 -0.1430  0.0268  0.2159
60322W        W16563  31.145  14.706  16.345  0.0963  0.1819  0.0742
60323W        W16564  21.475  22.717   5.938 -0.1232 -0.1540 -0.0889
60324W        W16565   0.704   6.185  18.115  0.1861  0.1339  0.1831
60325W        W16566  20.919   1.755  20.038  0.0404 -0.1688 -0.0599
60326W        W16567  11.319   2.316   7.196  0.0692 -0.3004  0.0422
60327W        W16568  22.705  20.436   2.108 -0.0153  0.1607  0.0689
60328W        W16569  33.067  33.098   2.240  0.3605 -0.0394  0.3230
60329W        W16570   0.092  33.711  24.849 -0.2761  0.2117  0.1205
60330W        W16571  18.822  12.787  10.875  0.0268 -0.2483  0.4899
60331W        W16572   2.496   2.945   5.406 -0.2699  0.1752 -0.0151
60332W        W16573   1.408  13.803  23.520  0.2876 -0.3247  0.0127
60333W        W16574  10.841   1.085   7.835 -0.1697 -0.0158  0.0180
60334W        W16575  16.819  16.772   6.084  0.0997 -0.1114  0.1552
60335W        W16576  34.265  20.561   7.309  0.1021 -0.0884  0.0681
60336W        W16577  10.491  21.121  11.973 -0.0072  0.3144  0.0795
60337W        W16578  12.166  17.627  22.034  0.2606  0.2672  0.0031
60338W        W16579   0.887  30.564   3.520 -0.0317  0.1154  0.0031
60339W        W16580  17.964   0.134   4.043  0.1491  0.4412  0.4345
60340W        W16581   8.531  20.393   3.698 -0.0204 -0.0990  0.1873
60341W        W16582  24.985   5.493  25.634  0.2464 -0.4965 -0.3765
60342W        W16583  15.978   6.219  23.132  0.2034 -0.2298  0.1414
60343W        W16584   2.705  26.387   4.752 -0.0899  0.0654 -0.1253
60344W        W16585   0.201  13.875  20.127  0.4086  0.2516  0.4708
60345W        W16586   4.759  16.381   3.172 -0.3235 -0.2810  0.1358
60346W        W16587  30.910   3.440  17.930 -0.0693 -0.0332 -0.3086
60347W        W16588  26.285  33.840  25.138 -0.1100 -0.0966  0.2238
60348W        W16589  24.074  18.738  25.054  0.3038  0.0455  0.0354
60349W        W16590   1.448  14.124   0.313 -0.1023 -0.0555 -0.1368
60350W        W16591  23.628  24.734  15.412 -0.0889  0.0626  0.2720
60351W        W16592  15.644  13.604   0.573  0.0251 -0.0277 -0.3098
60352W        W16593   4.407  30.760   2.726 -0.0783  0.0956 -0.0492
60353W        W16594  24.795  28.535  24.229  0.2390 -0.0122  0.3635
60354W        W16595  29.553  14.270  15.369 -0.2463 -0.0644 -0.1296
60355W        W16596   8.322  26.134   1.098  0.0494  0.0680 -0.3579
60356W        W16597  18.734   8.728  25.691  0.1797 -0.2436  0.0403
60357W        W16598  20.476  18.179  18.943  0.4759  0.2870  0.0580
60358W        W16599   0.412  10.454   2.397 -0.0574 -0.0625 -0.1060
60359W        W16600  17.400   7.508  23.781  0.1452  0.0327 -0.0958
60360W        W16601   7.726   0.497   5.273  0.1613  0.1100  0.2612
60361W        W16602  19.627  17.027  20.890 -0.3414  0.1433 -0.1615
60362W        W16603   8.330  28.901   1.147  0.0493  0.0816 -0.0502
60363W        W16604  17.403  24.527   5.600 -0.3267  0.0549  0.0255
60364W        W16605  24.073  14.941  12.389 -0.0807  0.0825  0.0569
60365W        W16606  21.491  26.377   0.590  0.0020 -0.0831  0.1572
60366W        W16607  20.807  24.081  23.065 -0.0621  0.0826 -0.2319
60367W        W16608  12.097  16.350  23.823 -0.0778 -0.0431 -0.4188
60368W        W16609   5.425  20.061  23.604 -0.0781 -0.2644 -0.1493
60369W        W16610  10.778  24.310  25.558  0.1088 -0.1808 -0.1651
60370W        W16611   6.960  12.992  23.283 -0.1198 -0.2256 -0.1935
60371W        W16612  12.889  30.541  13.717 -0.1729 -0.1367  0.3045
60372W        W16613  17.424  31.920   0.718 -0.2003 -0.0148  0.1378
60373W        W16614  13.400  28.882   7.173  0.0384 -0.1449  0.0824
60374W        W16615   3.919  21.383  20.834  0.2438 -0.1831  0.1773
60375W        W16616   7.598   6.783  12.504  0.0641 -0.2014  0.1051
60376W        W16617  29.101  25.000   8.821  0.1558  0.2995 -0.0099
60377W        W16618   6.930  15.537  20.584 -0.4250  0.1062  0.3471
60378W        W16619   2.370  34.221  21.966 -0.1400  0.0711  0.0712
60379W        W16620  29.305  32.757  13.955  0.2202 -0.1733  0.1432
60380W        W16621   7.208   0.134   0.222 -0.0530 -0.1314 -0.0808
60381W        W16622  22.218  13.449  23.981 -0.0345 -0.2236 -0.0743
60382W        W16623  25.494  14.435  10.439  0.1644  0.1130 -0.1889
60383W        W16624   9.782  22.896  16.672 -0.0259 -0.0042  0.0455
60384W        W16625  13.320  18.889   0.527 -0.0933  0.0935 -0.1896
60385W        W16626  10.707  27.269  25.644 -0.0109 -0.0516 -0.0559
60386W        W16627  34.535   1.034  17.290  0.4010  0.0914  0.0908
60387W        W16628   8.630   3.479   5.786  0.0591 -0.2378 -0.0334
60388W        W16629   5.640  15.199  17.212  0.0055 -0.0214  0.1477
60389W        W16630  34.933  34.968   4.526 -0.1699 -0.1532 -0.0994
60390W        W16631  22.869  28.677  20.777  0.1309 -0.2473  0.2221
60391W        W16632  22.384   1.008   1.439 -0.1773  0.7505  0.3258
60392W        W16633   5.868  21.847   4.381  0.2434 -0.1187  0.0750
60393W        W16634   3.137  31.123  20.164  0.0955 -0.3109 -0.0114
60394W        W16635  18.703  13.116  25.823  0.0777 -0.1921  0.2256
60395W        W16636   0.213  27.119  14.979 -0.0785  0.1288  0.1278
60396W        W16637   0.430  21.796  21.764  0.0521  0.1454  0.1770
60397W        W16638   0.494   8.023  14.939 -0.5161  0.0543 -0.2747
60398W        W16639  12.856  31.527  16.175  0.0934  0.0574  0.0130
60399W        W16640  32.920  26.452  20.436  0.4352 -0.1891 -0.1396
60400W        W16641  18.446  17.943   7.504  0.1313 -0.0128 -0.2046
60401W        W16642  25.406  20.896  11.672 -0.0404  0.4698 -0.0249
60402W        W16643  27.209  35.324  16.461 -0.0555  0.1999 -0.1568
60403W        W16644   3.461   4.756  20.851  0.1929  0.1493  0.1676
60404W        W16645  21.960   6.803  24.559 -0.3200 -0.0468  0.1046
60405W        W16646  22.071   0.225   6.075 -0.0798  0.3911 -0.0284
60406W        W16647   2.538  15.254  19.506 -0.1964 -0.0114  0.0077
60407W        W16648  33.983  31.776  18.991 -0.0606 -0.0268  0.2361
60408W        W16649  27.148   9.809  24.858  0.0710 -0.1839 -0.1892
60409W        W16650   3.653   1.194  19.838 -0.0520 -0.2087 -0.3329
60410W        W16651  33.495  15.326   0.129  0.0090  0.1858  0.0067
60411W        W16652   3.186  25.048  23.681 -0.0448  0.2779  0.1095
60412W        W16653  28.482   5.072  23.629 -0.0860 -0.1254 -0.1694
60413W        W16654   8.199   8.829   7.994 -0.3046  0.1197  0.1097
60414W        W16655  20.891  24.105  17.791  0.5617 -0.0032 -0.0827
60415W        W16656  33.855  34.307  17.162  0.1875 -0.0630  0.0182
60416W        W16657  30.759  29.209   3.693  0.2151  0.1433  0.1120
60417W        W16658  31.064  16.518  10.857 -0.1202 -0.0008 -0.3480
60418W        W16659  15.130  30.217  10.961  0.0531  0.2041 -0.2051
60419W        W16660  22.208  16.441  21.385  0.1020  0.0579 -0.2264
60420W        W16661   9.178  27.985   1.074 -0.0809 -0.0331 -0.0392
60421W        W16662   8.733  17.061   1.689 -0.1059  0.2261  0.1352
60422W        W16663  26.249  10.111  22.892 -0.0576  0.0069 -0.0032
60423W        W16664  33.260  18.639  17.612 -0.1353  0.0800  0.2693
60424W        W16665   7.578   1.084  23.741  0.0745  0.2031  0.0228
60425W        W16666  22.473  27.408   6.134 -0.0419  0.0800  0.0296
60426W        W16667  16.163  14.004  22.887  0.0000  0.0537  0.1979
60427W        W16668  13.471  25.340   6.530 -0.0691  0.2781  0.2645
60428W        W16669   5.408   4.113  10.345  0.0375 -0.2763  0.1474
60429W        W16670   7.251  35.173  10.104  0.2637 -0.1887 -0.1278
60430W        W16671  22.243   6.112   4.603 -0.0849 -0.0332 -0.5994
60431W        W16672  20.842  11.662  17.106  0.2381  0.1340 -0.1791
60432W        W16673  30.754   5.680  20.494  0.0010  0.2187 -0.1790
60433W        W16674   4.915   7.023   1.889  0.2751 -0.3792 -0.1150
60434W        W16675   2.467   3.588  24.375 -0.1731  0.3120  0.2041
60435W        W16676   9.971  33.488  24.719  0.1273  0.2380  0.1218
60436W        W16677  13.565  30.592  10.320  0.2018 -0.2373 -0.0952
60437W        W16678   4.148  10.609  24.826 -0.2493  0.2658  0.1556
60438W        W16679  20.009  21.193  23.464 -0.2797 -0.2799  0.2177
60439W        W16680  15.383   6.927   8.843  0.0613 -0.1303  0.2723
60440W        W16681   6.813  30.232   7.286  0.0788 -0.0365 -0.0225
60441W        W16682   6.378  33.845  22.645 -0.1716 -0.2939 -0.3051
60442W        W16683   7.858  24.914  26.106 -0.1299 -0.2162  0.0243
60443W        W16684  29.591  32.693   1.364 -0.3071 -0.0353 -0.0075
60444W        W16685  23.053  16.423  17.153 -0.2272  0.3270 -0.1639
60445W        W16686   8.753   3.270   1.617  0.4548  0.2835  0.0225
60446W        W16687  21.359  25.118   2.461 -0.2535  0.1014  0.1878
60447W        W16688  12.422  22.261   0.726  0.0422  0.0591  0.0399
60448W        W16689   8.815  27.835  10.796 -0.1568 -0.2104 -0.0051
60449W        W16690  30.888  17.514  14.213  0.3181 -0.0920  0.2130
60450W        W16691  13.167  24.872  24.822 -0.0966  0.1234  0.0222
60451W        W16692   1.911  10.637   3.849  0.2799 -0.3597  0.1668
60452W        W16693   0.272  29.206   4.740  0.1554 -0.0982  0.2456
60453W        W16694  26.269   4.659  17.971  0.0023 -0.0559  0.0648
60454W        W16695  16.425   3.507  10.170 -0.0212  0.1376 -0.0412
60455W        W16696  17.656   0.102   4.417  0.0349 -0.0401  0.0168
60456W        W16697   9.561  11.356   3.297 -0.0622 -0.3211  0.1341
60457W        W16698  23.836  27.775  13.715  0.0161  0.1559  0.3596
60458W        W16699  23.811   9.291   3.312  0.1864  0.0666 -0.3413
60459W        W16700  11.448  19.929  26.160 -0.2977  0.3145  0.1393
60460W        W16701  33.030  10.266  19.266  0.0341  0.2241  0.1078
60461W        W16702  15.594   2.620  24.894  0.0799  0.0825 -0.1279
60462W        W16703  25.155  10.969  19.393  0.3503 -0.2058  0.0738
60463W        W16704   6.947  20.676  25.896  0.0372 -0.2936  0.2677
60464W        W16705  16.258  17.051   5.442 -0.2012  0.2752  0.0926
60465W        W16706  13.261   4.477  13.062 -0.3230 -0.1853  0.1293
60466W        W16707  32.234  30.873   6.947 -0.4167  0.0276 -0.0192
60467W        W16708  11.681  33.020   8.214 -0.3463  0.0407  0.2959
60468W        W16709  21.216  27.451  19.342 -0.2497  0.0022 -0.0448
60469W        W16710  32.796   6.016   3.942  0.1462 -0.3218 -0.1896
60470W        W16711  14.777  11.182  12.995 -0.0994 -0.2222  0.0456
60471W        W16712   7.238  34.563   1.483  0.0459  0.0169  0.2385
60472W        W16713  20.348  11.952   8.138 -0.0966  0.0676 -0.0307
60473W        W16714  25.882  15.169   0.434  0.1355 -0.0306  0.0509
60474W        W16715  27.496  14.199  17.516  0.2225  0.3288 -0.1345
60475W        W16716   5.433  12.689  17.294  0.1267 -0.1040 -0.0744
60476W        W16717  35.321  10.148  18.712 -0.1282  0.0862 -0.1580
60477W        W16718  16.428  13.428   7.235  0.1020 -0.1870  0.0180
60478W        W16719   3.530   6.937   0.207 -0.2091 -0.1436 -0.1960
60479W        W16720   7.616  29.722  12.546  0.0893 -0.5284 -0.1155
60480W        W16721  24.460  21.306  23.376  0.2142 -0.3490  0.1220
60481W        W16722  12.581   5.781  18.738 -0.2325 -0.1334  0.0853
60482W        W16723   7.269   3.425   8.722  0.1716  0.0211 -0.0017
60483W        W16724  18.815  12.440  25.321  0.2359  0.0410 -0.0107
60484W        W16725  31.549  24.774  14.933  0.0668  0.0627  0.1657
60485W        W16726  32.524  12.013   7.605 -0.0958 -0.0386  0.0140
60486W        W16727  25.022  26.564  11.681 -0.1446 -0.0871  0.1304
60487W        W16728  15.481  14.044  13.701 -0.0481  0.0935 -0.1400
60488W        W16729   1.870  28.041  18.697 -0.0843 -0.0355 -0.1537
60489W        W16730  18.962  24.259  23.355 -0.5968 -0.2068  0.0350
60490W        W16731  24.021  16.314  18.029 -0.2281  0.0641 -0.1437
60491W        W16732   8.566   2.764   6.442  0.4968  0.2784  0.0574
60492W        W16733   4.232   1.477   9.335 -0.0954 -0.4310 -0.2840
60493W        W16734   9.096  17.121   0.402  0.1981 -0.2727  0.2418
60494W        W16735  28.165   8.140  10.187  0.3272 -0.1509  0.0738
60495W        W16736  23.888   0.874  14.388 -0.0992 -0.0912  0.2532
60496W        W16737  15.718   4.150   1.612 -0.0871 -0.0796 -0.0787
60497W        W16738  23.296  32.861  25.178 -0.0593  0.0413  0.0205
60498W        W16739  15.089  25.380  15.753  0.0373 -0.2710 -0.0248
60499W        W16740  34.759  16.525  25.987  0.0460  0.0533 -0.1868
60500W        W16741  20.259   0.723  15.909 -0.0555 -0.0613 -0.0590
60501W        W16742  23.665  33.448  17.659  0.1973 -0.0907 -0.0433
60502W        W16743  13.795   7.933  20.317  0.2141 -0.1910 -0.0219
60503W        W16744  17.013  11.994  20.847  0.1082 -0.1572 -0.0246
60504W        W16745  26.834   1.774  13.231  0.2325 -0.1798 -0.0717
60505W        W16746  25.471  22.742   0.407 -0.3327 -0.1527 -0.1009
60506W        W16747  18.214  26.158   4.468 -0.0818 -0.3093  0.0778
60507W        W16748  13.648   7.517   0.647  0.2108  0.1373 -0.2642
60508W        W16749  17.652  19.048  11.126 -0.0081  0.0400 -0.1431
60509W        W16750  10.151  11.917  14.203 -0.1314  0.1379  0.1678
60510W        W16751  15.165  34.923  20.622  0.1776 -0.4215 -0.1214
60511W        W16752  30.141  15.080  22.190 -0.0184  0.0615  0.2518
60512W        W16753  26.961  24.581  19.814 -0.1540 -0.3396  0.1101
60513W        W16754  32.071  34.561   2.012  0.2443  0.1721  0.0215
60514W        W16755  21.550  22.875   4.039  0.1123 -0.0556 -0.0357
60515W        W16756   0.227   5.287  25.997  0.1144  0.2613 -0.0705
60516W        W16757  27.887  17.676  20.179  0.1338  0.0942 -0.0191
60517W        W16758  14.927  29.214  20.091 -0.1853 -0.0220 -0.0543
60518W        W16759  10.353  15.328  24.513 -0.3916  0.1091  0.1996
60519W        W16760   0.460  32.423  22.670  0.3137 -0.0200 -0.2558
60520W        W16761  11.300  16.260   5.714  0.3650  0.0189  0.0866
60521W        W16762   6.733  21.322   4.171 -0.0179  0.0025  0.2238
60522W        W16763   3.505  29.531  22.158  0.0009 -0.3200 -0.0123
60523W        W16764  21.146   3.474  14.523 -0.0048  0.0437 -0.1547
60524W        W16765  33.090   9.012  10.825  0.4200  0.1806  0.1361
60525W        W16766  31.932  20.923  19.575 -0.1234  0.3706 -0.1639
60526W        W16767   6.442   5.901  25.712 -0.0557 -0.1632 -0.2550
60527W        W16768  13.099  22.898   5.459  0.1563  0.0627 -0.2264
60528W        W16769  11.453   3.019   2.271 -0.1086 -0.0471 -0.0299
60529W        W16770  26.277  31.571  18.944 -0.2880  0.2043 -0.0871
60530W        W16771   7.955  11.346   5.370 -0.1696  0.3660  0.0013
60531W        W16772  20.864  10.087   5.511  0.1872 -0.3225  0.1655
60532W        W16773   6.125   2.501   8.250 -0.1715  0.0387 -0.2489
60533W        W16774  32.249   9.827  15.676 -0.0137  0.2602 -0.0050
60534W        W16775   2.895  30.538   5.958 -0.0276 -0.0401 -0.3299
60535W        W16776   5.176  33.419  24.819 -0.0847 -0.1854 -0.1037
60536W        W16777  29.558  12.431  10.249 -0.1311  0.1328  0.0892
60537W        W16778  25.024  21.137  11.376  0.2308 -0.2468  0.1546
60538W        W16779   7.414  17.217  11.045 -0.0654 -0.0865  0.0044
60539W        W16780  21.786  14.250  23.637  0.2356 -0.1455  0.3359
60540W        W16781  32.293  34.532  23.081  0.0066  0.1133 -0.0417
60541W        W16782  15.383  20.632   2.681 -0.0143 -0.4579  0.3107
60542W        W16783  20.899  14.136  16.195  0.0221 -0.0744  0.0274
60543W        W16784  12.286  16.080   6.384 -0.0369  0.0357 -0.0555
60544W        W16785  17.609  28.985  19.637 -0.1157  0.0827 -0.0557
60545W        W16786  17.221  26.861   9.176 -0.2637  0.1665 -0.4001
60546W        W16787   5.777   6.902   1.981 -0.1155  0.1975  0.0665
60547W        W16788   9.170  32.102  21.299 -0.1119 -0.1484 -0.0574
60548W        W16789  27.282   6.458  23.447  0.0764 -0.0707  0.3608
60549W        W16790  27.131  24.835   1.792 -0.2797  0.1895 -0.0978
60550W        W16791   5.471  18.336   1.801  0.2742  0.6652 -0.0508
60551W        W16792  21.645   1.041  16.819 -0.0321  0.1553 -0.1099
60552W        W16793  10.705  27.117  26.163  0.1884  0.0620 -0.0423
60553W        W16794  18.052  14.769  17.299  0.0289 -0.0486  0.0440
60554W        W16795  25.927  33.189  19.178  0.1481 -0.2887  0.0532
60555W        W16796  23.251  15.192  19.843 -0.3335 -0.1001 -0.1165
60556W        W16797  22.626  19.935   2.198  0.0395 -0.2879  0.0052
60557W        W16798  16.630  10.760  11.969 -0.0415  0.0110  0.2362
60558W        W16799  32.328  33.801  12.505 -0.0997  0.2168 -0.1464
60559W        W16800  12.508  34.516  24.638  0.2876 -0.0789 -0.2972
60560W        W16801   3.553   3.669  17.434 -0.3998 -0.1963 -0.0943
60561W        W16802  32.705  29.656  19.172 -0.0426  0.0346 -0.2805
60562W        W16803  17.559  15.426   8.555 -0.0885 -0.1023  0.1032
60563W        W16804  19.284  11.053   8.771 -0.0210  0.0151 -0.0299
60564W        W16805  20.901  14.268   4.448 -0.2429  0.1472 -0.1443
60565W        W16806  13.606  22.364  16.507  0.0666 -0.3431 -0.3672
60566W        W16807   6.792  32.684   9.654 -0.0696  0.2520 -0.4192
60567W        W16808   7.904   4.059  24.509 -0.0882 -0.0487  0.2016
60568W        W16809  25.537   0.457   0.105  0.0377  0.2084 -0.2146
60569W        W16810  24.150  28.687   3.453  0.3068  0.0918  0.1138
60570W        W16811  27.127   8.781  10.188  0.1419  0.2976  0.3738
60571W        W16812  10.610  29.724  23.923 -0.1785 -0.0259 -0.2148
60572W        W16813  33.024  18.073  25.974  0.1013 -0.1408 -0.0605
60573W        W16814  24.189  24.716   3.188  0.0364 -0.0366  0.0200
60574W        W16815  34.096   0.638  16.591 -0.2335 -0.1244 -0.0533
60575W        W16816   9.264  19.943   0.063  0.1503  0.0148  0.1565
60576W        W16817   7.039  18.495   3.721  0.4095 -0.0277  0.0952
60577W        W16818   6.127  27.644  25.946  0.2567 -0.0796  0.0467
60578W        W16819  32.697  23.486  14.949  0.2474  0.0444  0.0088
60579W        W16820  21.506  33.290  16.882 -0.0462  0.1808 -0.0553
60580W        W16821  21.108  29.641  20.991  0.2698 -0.0058  0.0838
60581W        W16822  21.667   6.875   4.245  0.0797  0.0407 -0.4644
60582W        W16823  20.380  32.917   3.279  0.0310  0.2468 -0.1473
60583W        W16824   8.932  20.926   4.349  0.0229  0.3831  0.0870
60584W        W16825  18.641   3.571   4.349 -0.0836  0.0654  0.2236
60585W        W16826  28.843  23.308  17.299 -0.0337  0.0924  0.0612
60586W        W16827  22.190  17.276  21.840 -0.0256  0.1048  0.0211
60587W        W16828  16.312  33.419  22.801 -0.3412 -0.0063 -0.0953
60588W        W16829  13.362  34.518   8.443 -0.0217  0.1998  0.2404
60589W        W16830   4.754  14.522  25.840 -0.1633 -0.0301  0.0199
60590W        W16831   6.305  30.373  14.737 -0.3198 -0.1621  0.1432
60591W        W16832   9.734  22.765  25.425 -0.2312  0.2051 -0.0732
60592W        W16833   2.044   1.701   7.473  0.0201  0.1050 -0.1137
60593W        W16834   4.644  11.855  17.214  0.1110 -0.0834 -0.1670
60594W        W16835   7.310  18.624  20.003 -0.2019  0.2037 -0.1801
60595W        W16836   2.677  11.855   0.827 -0.2262  0.1262 -0.3663
60596W        W16837  21.537  32.937   6.007  0.1477  0.2551  0.1008
60597W        W16838  23.474   0.330   4.164  0.0602  0.1421  0.0471
60598W        W16839  15.278  13.763   0.305 -0.0166  0.1842 -0.1435
60599W        W16840  16.595  10.425  23.523  0.2050  0.0026  0.0984
60600W        W16841  29.782  32.730  16.397 -0.1642  0.0970  0.0122
60601W        W16842  29.557  34.809   4.018 -0.1643  0.0092  0.1091
60602W        W16843   9.598   4.448  12.721 -0.3523  0.0029  0.0972
60603W        W16844   6.500  22.131   3.408  0.1099  0.1128  0.0437
60604W        W16845  24.917   1.994  22.295 -0.3763 -0.2694  0.1064
60605W        W16846  22.381   2.359   1.804 -0.1729  0.2073  0.1207
60606W        W16847   3.153   5.079  17.624 -0.0207  0.2450  0.4674
60607W        W16848  32.335  20.582   9.852  0.0241  0.2253 -0.1317
60608W        W16849  17.940   9.469  19.087 -0.0591  0.0348  0.1391
60609W        W16850  10.495  23.895  25.579 -0.0696  0.1483  0.2235
60610W        W16851  31.128   7.500   9.199  0.0213  0.0847  0.2160
60611W        W16852   7.659  27.075  14.894 -0.0812 -0.0675 -0.0676
60612W        W16853   7.731   9.884   9.389 -0.1472  0.1908  0.0832
60613W        W16854  17.509  14.179  24.444 -0.0699 -0.0181  0.0940
60614W        W16855  19.030  16.073  20.623 -0.2306  0.1146 -0.4289
60615W        W16856   8.151  29.253   9.958  0.2174 -0.0219 -0.1437
60616W        W16857  11.232  10.946  23.881  0.0488  0.0046 -0.0649
60617W        W16858   9.992   3.034  23.261 -0.1660 -0.0892 -0.0522
60618W        W16859  11.723   4.248  24.940  0.1165 -0.0444  0.0100
60619W        W16860   6.594  17.079  25.075 -0.1097 -0.4797 -0.1553
60620W        W16861  11.014  34.380   6.465 -0.2966 -0.0885  0.1239
60621W        W16862   4.972   1.419   6.667  0.2061  0.0455  0.0943
60622W        W16863  12.061  32.838  24.060  0.1791  0.1399  0.0832
60623W        W16864  21.596   7.903  16.472  0.0499 -0.2912  0.0626
60624W        W16865  24.036  33.468  21.230  0.1880  0.1010  0.1369
60625W        W16866  30.228  31.178  13.344  0.0481  0.0200  0.1035
60626W        W16867  10.228   5.148  13.303  0.0437 -0.1836  0.1443
60627W        W16868  15.018  12.216   9.873 -0.1842  0.0587 -0.1942
60628W        W16869  20.726  31.665   4.109 -0.2623  0.3811 -0.4544
60629W        W16870  33.849  16.682  18.408 -0.2655  0.0075 -0.0930
60630W        W16871  18.261  19.410   7.694 -0.2398  0.0446  0.0993
60631W        W16872   1.978  18.969  10.995  0.0216  0.3503 -0.3899
60632W        W16873  30.484  32.309  11.102 -0.3067 -0.1739  0.1649
60633W        W16874  28.695  32.108  22.109 -0.0453  0.0874  0.0285
60634W        W16875  25.817  34.306  12.908 -0.1182  0.2673  0.1434
60635W        W16876   8.089  22.146   9.984 -0.0940 -0.0201 -0.1242
60636W        W16877  28.017   4.565  17.269  0.3536  0.1061  0.0597
60637W        W16878  29.569  21.812  17.341  0.1022 -0.2320  0.1644
60638W        W16879  22.641   8.515  16.770  0.1110  0.0566  0.2275
60639W        W16880  25.879  13.182   0.154 -0.2819  0.1357  0.2644
60640W        W16881  21.229   3.574  22.051 -0.0049  0.1262 -0.0605
60641W        W16882   2.816  34.360   9.574 -0.0731  0.0205  0.2234
60642W        W16883  30.154  32.542  16.044  0.0288  0.0420  0.1796
60643W        W16884  27.804   2.405  16.970 -0.2095 -0.1024 -0.1776
60644W        W16885  31.251  15.772   8.917 -0.1328  0.0086 -0.2545
60645W        W16886  12.786  26.837  14.891  0.3219  0.1605  0.0147
60646W        W16887  13.941  25.986   6.742 -0.1143 -0.1819 -0.0378
60647W        W16888  18.508  30.786   1.651 -0.0207 -0.1187  0.0251
60648W        W16889  32.661  25.057   1.585 -0.1193 -0.0285 -0.3878
60649W        W16890  11.976  11.416   2.115  0.1360 -0.1376 -0.1288
60650W        W16891  13.334   3.337  22.353  0.0251 -0.0178 -0.2936
60651W        W16892   8.097  34.739  14.045  0.2558 -0.0026  0.4731
60652W        W16893   8.591   7.159   9.052 -0.2472 -0.1751 -0.1301
60653W        W16894  20.151  21.099   5.600  0.2918  0.2973  0.1522
60654W        W16895  35.372  11.339  24.596 -0.1350  0.2296  0.1108
60655W        W16896  31.974  27.447  26.226 -0.3046  0.0966  0.0943
60656W        W16897  31.485  11.597  21.677  0.0351 -0.0102 -0.3936
60657W        W16898   8.298  34.359  10.097 -0.0382  0.1844  0.1627
60658W        W16899  31.390   6.553   3.081 -0.5835  0.0683 -0.2441
60659W        W16900   4.785  29.822  21.844 -0.2617  0.2124  0.2647
60660W        W16901  23.795   7.683  24.574  0.2509  0.0509  0.4702
60661W        W16902   5.508  29.474  12.317  0.3123  0.1861  0.1199
60662W        W16903  28.331  29.907   3.152 -0.0512  0.0721  0.1253
60663W        W16904  11.839  21.873   4.193 -0.3410 -0.2358 -0.1199
60664W        W16905  19.105  22.765   3.084  0.1276 -0.1489  0.0359
60665W        W16906  15.712  12.590   9.487  0.1896  0.1314 -0.1285
60666W        W16907  27.302  17.942   5.295  0.0535  0.0139 -0.0501
60667W        W16908  21.696  32.666   7.203  0.1065  0.0537 -0.1192
60668W        W16909  23.274  17.749  18.271 -0.2229 -0.0651 -0.2364
60669W        W16910   8.557  26.379  24.202 -0.0921 -0.0150 -0.1120
60670W        W16911  30.390  30.896  14.267 -0.2508  0.2370 -0.0283
60671W        W16912  11.057  26.223   8.953  0.0414 -0.0630  0.1019
60672W        W16913  33.687   9.446  21.152  0.0259  0.2063 -0.1634
60673W        W16914  32.518   0.128  21.524  0.1809 -0.0001 -0.0577
60674W        W16915  21.462  19.141  17.048  0.5036 -0.0434 -0.3023
60675W        W16916   0.455  24.149   0.017 -0.2349 -0.2339  0.0133
60676W        W16917   1.870  17.678  17.525  0.0625 -0.2749 -0.2713
60677W        W16918   1.158  18.018   0.764 -0.0133  0.0093 -0.1726
60678W        W16919   7.349  14.416   4.717  0.0246 -0.2578  0.1677
60679W        W16920   9.036   0.242  23.081  0.1686 -0.0391 -0.1766
60680W        W16921  24.523   1.230  17.968 -0.1959 -0.2937 -0.2930
60681W        W16922  27.676  17.415   7.779  0.1028  0.0113 -0.1598
60682W        W16923  27.058  18.126   4.975  0.0293 -0.0325  0.2387
60683W        W16924   9.196  20.719   2.014 -0.1555  0.0462  0.1264
60684W        W16925  19.493   9.234  18.259 -0.1808 -0.0545 -0.3374
60685W        W16926   7.113  16.765   4.022 -0.0802 -0.0485 -0.3104
60686W        W16927   1.713   2.661  23.229  0.1548 -0.0161 -0.2162
60687W        W16928   4.084  35.165   3.602  0.1551 -0.1398 -0.1399
60688W        W16929  30.130  25.171   0.057 -0.0809  0.1552 -0.0811
60689W        W16930  16.761   3.925  10.964  0.0678  0.1831 -0.0940
60690W        W16931  19.971  25.925  21.885  0.1076  0.1499 -0.0592
60691W        W16932  14.555  21.682   9.055  0.1114 -0.0436 -0.0408
60692W        W16933  32.207   4.539  15.817 -0.2730  0.0433 -0.2796
60693W        W16934   3.700  32.013  20.701 -0.0418  0.0217  0.1419
60694W        W16935  28.868  34.477   2.393  0.1741  0.1977  0.2612
60695W        W16936  17.754  18.909   1.765  0.1794 -0.0988 -0.1719
60696W        W16937   2.316  24.224  20.784  0.2700 -0.1720  0.2444
60697W        W16938  13.031  19.555   9.409  0.0073  0.0369  0.0635
60698W        W16939   7.628  29.406   8.428 -0.0355 -0.0436 -0.2730
60699W        W16940   1.440   1.154  14.835  0.1690 -0.4349  0.0522
60700W        W16941  28.849  24.245  19.313  0.0141  0.3466 -0.2372
60701W        W16942  26.170   1.784   2.144  0.3605 -0.0241  0.0293
60702W        W16943   5.099  11.207   9.290 -0.1086  0.0842  0.0017
60703W        W16944   5.101  34.190   0.563  0.1398  0.0830  0.2265
60704W        W16945   9.937  29.397  10.853 -0.1421 -0.0089  0.2695
60705W        W16946  23.343  19.487  18.633  0.1987 -0.1847  0.2574
60706W        W16947  16.446  12.735  23.158  0.0455  0.0027 -0.4929
60707W        W16948   4.105   8.046   1.322  0.0168 -0.0955  0.1400
60708W        W16949  11.052   2.253  21.603 -0.0281  0.1169  0.2698
60709W        W16950   7.986  11.553  17.728 -0.1563  0.0109  0.1577
60710W        W16951   0.192  14.849  16.098 -0.0017  0.1000 -0.1120
60711W        W16952   8.213  34.483  25.566  0.2978  0.1868 -0.0803
60712W        W16953  24.937  10.804  14.490  0.0129 -0.2905  0.1793
60713W        W16954  14.215  34.277   7.820 -0.0476  0.0523 -0.0613
60714W        W16955  22.475  34.448  23.116  0.1517 -0.0838  0.0237
60715W        W16956  21.342  32.088   2.138 -0.2138 -0.1128  0.0786
60716W        W16957  32.711  31.894   4.538 -0.0864  0.0658  0.3287
60717W        W16958   6.975  25.205   1.844 -0.5099 -0.2992 -0.0674
60718W        W16959   2.552  14.690  19.393 -0.0810 -0.1354  0.0207
60719W        W16960  25.347   3.048   0.839  0.3186 -0.2202 -0.0405
60720W        W16961  13.497   0.714  22.137 -0.1329 -0.0950 -0.0801
60721W        W16962  23.948   5.869  15.885 -0.0110  0.0559  0.0584
60722W        W16963   8.171  25.087   7.312 -0.0643  0.0580  0.1582
60723W        W16964   8.958   2.029  21.663  0.2278  0.0019  0.1701
60724W        W16965  32.828  12.366  18.911 -0.2202 -0.3385  0.1799
60725W        W16966   4.976  33.094   4.009  0.2317  0.1989 -0.1009
60726W        W16967  23.169  16.525  25.285 -0.0294 -0.1883 -0.2422
60727W        W16968  13.989   0.448  10.974 -0.1563 -0.0190 -0.0432
60728W        W16969  29.535  15.520  18.155 -0.2143  0.0432 -0.0489
60729W        W16970  12.347   9.894  14.188 -0.0426  0.1639 -0.2373
60730W        W16971  28.714  28.695  22.570 -0.0016  0.1864  0.1647
60731W        W16972   8.398  30.060   4.837  0.0907  0.2369  0.4389
60732W        W16973   5.141  11.944  16.484  0.1012  0.2660  0.0971
60733W        W16974  33.451  21.886  20.343  0.0759  0.0641  0.1544
60734W        W16975   7.862  28.115   0.755 -0.0675 -0.0957  0.1510
60735W        W16976  14.657   4.177   8.187  0.1309  0.0510 -0.0707
60736W        W16977  30.246  21.659   5.291  0.0151  0.0913 -0.0526
60737W        W16978  12.069  14.075   5.126 -0.0447  0.1540  0.1134
60738W        W16979   1.516  17.366  11.791 -0.1082  0.2926 -0.0166
60739W        W16980  12.185  22.107   5.051 -0.2214  0.0381 -0.1582
60740W        W16981   5.344   6.704   1.210  0.2058  0.0737  0.0358
60741W        W16982  19.472  20.465   9.011  0.0701 -0.0517  0.0909
60742W        W16983  16.604  21.550  10.508 -0.0560  0.2015 -0.3661
60743W        W16984  16.035  16.566   1.304  0.1287 -0.0395  0.0861
60744W        W16985  23.651   7.600   2.944  0.0255 -0.1119 -0.2869
60745W        W16986   7.295  21.962  25.289 -0.0746 -0.0178 -0.1794
60746W        W16987  23.418   3.977  13.013 -0.1276  0.0948  0.0048
60747W        W16988  10.989  16.459   1.233 -0.0377 -0.1404 -0.2140
60748W        W16989   0.887  19.709  23.876 -0.1942  0.0290  0.0362
60749W        W16990   0.948  14.174   1.065  0.1133 -0.1290 -0.0935
60750W        W16991  25.678   2.461  14.886 -0.1051 -0.1157 -0.2829
60751W        W16992  27.686   3.398  19.699  0.1790 -0.0317 -0.0043
60752W        W16993  13.592   7.656   8.171  0.1116 -0.0987 -0.3086
60753W        W16994  13.340  31.961  13.815  0.0139  0.1101 -0.1153
60754W        W16995  13.689   4.465   3.427  0.1065 -0.3871 -0.0507
60755W        W16996  19.246  14.354  25.429 -0.0057  0.0347 -0.3257
60756W        W16997   4.196   3.542  21.109 -0.2942  0.0149  0.2667
60757W        W16998  32.918  15.148  19.873  0.0313  0.1458  0.1016
60758W        W16999  20.445   6.784   8.699 -0.0977 -0.3018  0.2016
60759W        W17000  23.035  28.799   3.659 -0.1466 -0.0722  0.1618
60760W        W17001   0.881   5.902  19.065  0.2462  0.1397 -0.1954
60761W        W17002  12.811  18.000   0.115 -0.0492  0.0791 -0.1184
60762W        W17003   2.853  23.927   0.434 -0.0265 -0.0072 -0.1683
60763W        W17004  12.915  22.798   4.952 -0.1143  0.0825  0.0355
60764W        W17005   3.935   9.515  25.702  0.3834  0.1074 -0.0550
60765W        W17006  20.839  26.015  18.036 -0.0365  0.2258  0.1446
60766W        W17007  20.100   0.266   4.841  0.1599  0.1257  0.1263
60767W        W17008   7.475  20.479   7.279  0.0259 -0.3070  0.0030
60768W        W17009  13.221  24.586  15.783 -0.0122  0.0809  0.1443
60769W        W17010  27.521   5.275  10.562  0.0396  0.1824  0.1901
60770W        W17011  12.755   1.828   7.788  0.0336  0.1523  0.0251
60771W        W17012   2.496  12.819  21.734  0.1079 -0.0099  0.0509
60772W        W17013  29.766  30.052  13.552  0.0346 -0.1158 -0.1787
60773W        W17014  17.947   7.476  18.146 -0.3130 -0.0367  0.1308
60774W        W17015  21.904  33.125  16.437  0.2403  0.1263  0.1455
60775W        W17016  14.861   0.766  21.542 -0.1565 -0.0444  0.1480
60776W        W17017  16.144  20.519  14.057  0.0246 -0.0865  0.1553
60777W        W17018  28.382  22.003  22.626  0.0522  0.3776 -0.0360
60778W        W17019  16.384  34.931  19.544 -0.3322 -0.2182  0.2288
60779W        W17020   2.074  34.685  17.659  0.1383  0.0534  0.3775
60780W        W17021  30.189  21.271  22.549  0.2074 -0.0823 -0.2317
60781W        W17022  20.287   4.573  19.373  0.0871  0.0565 -0.0548
60782W        W17023  13.524  34.675  24.996 -0.1638 -0.1169  0.1230
60783W        W17024  21.713   4.299   6.935  0.2286  0.0007  0.0276
60784W        W17025   1.041  26.485  21.558  0.3319 -0.0394 -0.1141
60785W        W17026   0.427  18.371   8.504 -0.0626 -0.1574 -0.1203
60786W        W17027   8.412  33.063   3.093  0.0077  0.0577  0.3171
60787W        W17028  25.339  25.870  19.321  0.0944 -0.2312  0.2147
60788W        W17029  26.821   5.134  21.483 -0.0078 -0.1142  0.2824
60789W        W17030  12.236  30.211  14.565  0.1438 -0.2468 -0.0648
60790W        W17031  21.657   2.163   3.602 -0.1278  0.1887  0.1919
60791W        W17032  27.700  24.040  18.487 -0.2721 -0.0547  0.1900
60792W        W17033  31.263  19.068   9.065 -0.0622 -0.2221 -0.2625
60793W        W17034   8.577   9.016  18.648  0.4345 -0.2851 -0.3655
60794W        W17035   2.166  27.114  23.073  0.0076 -0.2293 -0.3713
60795W        W17036  27.236   8.467  19.940 -0.0035 -0.3192 -0.2052
60796W        W17037  10.028  30.727  13.837 -0.3013  0.1438  0.1359
60797W        W17038   6.609  29.525  14.035 -0.0479  0.3938  0.1172
60798W        W17039  15.339  26.186   6.228  0.0958 -0.0108  0.2462
60799W        W17040  32.929  12.498  25.984  0.0522 -0.3178  0.3185
60800W        W17041   5.116   7.531   9.177  0.5592 -0.0617 -0.0948
60801W        W17042  16.027  35.262   4.108  0.1172  0.2414 -0.1267
60802W        W17043  26.914  22.534  12.116 -0.0403  0.0826  0.1410
60803W        W17044  26.206   3.370  23.941 -0.1716 -0.0178  0.1672
60804W        W17045  11.414  10.613  20.108 -0.1181 -0.2546  0.2897
60805W        W17046  32.777   0.809  23.235  0.2036  0.1535 -0.1626
60806W        W17047   7.929  23.891   7.607  0.0365  0.1242  0.3245
60807W        W17048   2.124  17.278  19.321 -0.0392  0.2171  0.1783
60808W        W17049  13.543   7.822  13.413  0.1485 -0.2145 -0.2956
60809W        W17050  30.128  23.029  14.092  0.2234  0.0678  0.2339
60810W        W17051   5.039  35.132   9.457 -0.0240  0.0278 -0.0326
60811W        W17052  11.983  17.899  12.486  0.2302  0.2101 -0.1139
60812W        W17053  26.215  20.419  10.269 -0.0644 -0.3487 -0.1275
60813W        W17054   1.956  24.769   3.636  0.4295  0.2066  0.0024
60814W        W17055  15.430   2.185   3.803  0.1812  0.0170  0.1334
60815W        W17056  32.547   2.135  15.472  0.0789 -0.0789  0.3863
60816W        W17057   0.093  20.868  19.802 -0.1050  0.4848  0.1228
60817W        W17058  19.262  19.394   8.274  0.2863  0.1708  0.1413
60818W        W17059  33.421  26.225  25.987 -0.1605 -0.3316 -0.2114
60819W        W17060  14.640  10.467  20.142 -0.1059 -0.0436 -0.2397
60820W        W17061   5.308  20.856  25.324  0.2269  0.0166 -0.0893
60821W        W17062  29.480  16.282  10.268 -0.0449  0.3642  0.3948
60822W        W17063  25.570  23.621  18.769  0.0762  0.0110 -0.2307
60823W        W17064  21.859  34.608  16.743  0.2802 -0.0451 -0.0004
60824W        W17065   4.121  25.578  25.939  0.0477  0.2074 -0.0255
60825W        W17066  14.687   4.404  18.778 -0.1778  0.2314  0.4458
60826W        W17067  24.694  19.340  17.719 -0.0740 -0.3033 -0.1200
60827W        W17068   8.338   5.951   7.404 -0.3062 -0.1838 -0.2582
60828W        W17069  17.353   4.910   1.188  0.0728 -0.1564  0.0268
60829W        W17070  16.867   3.742   0.702  0.1236 -0.0373 -0.0218
60830W        W17071  19.534  20.448   1.283  0.2519  0.0981  0.0296
60831W        W17072  30.269  31.239   1.930 -0.0963 -0.1129  0.0732
60832W        W17073  35.166  11.978  15.473  0.2732 -0.0565 -0.3108
60833W        W17074  21.162  12.280   0.038 -0.0362  0.1893  0.1078
60834W        W17075   9.020  25.233  23.004 -0.0185 -0.1336 -0.0434
60835W        W17076  14.080  32.595  22.200  0.1046 -0.3031  0.1414
60836W        W17077  10.988  28.120  10.995 -0.2675  0.2106 -0.1953
60837W        W17078  23.720  23.857  14.885 -0.0525 -0.0206  0.0735
60838W        W17079  23.021  15.250  20.984  0.1631  0.0638 -0.0962
60839W        W17080  32.921  15.481  22.772  0.0137 -0.1106  0.3250
60840W        W17081  10.739  23.610  25.228  0.1654  0.2393 -0.1881
60841W        W17082  30.692   8.269  11.025  0.0154  0.0357 -0.4900
60842W        W17083  14.155  11.296   9.532 -0.1207 -0.1866  0.0006
60843W        W17084  31.776  29.759  18.099  0.0963  0.2205 -0.0429
60844W        W17085   8.429  12.186   0.263 -0.2368  0.3805  0.1205
60845W        W17086  16.164  33.323   4.229  0.0452  0.2225 -0.2915
60846W        W17087  16.653  17.307   6.619 -0.1795  0.1073  0.0934
60847W        W17088  18.792  30.008  23.673  0.0396  0.1468 -0.1698
60848W        W17089  23.540  23.842  12.170  0.0670 -0.4298 -0.0603
60849W        W17090  33.945  31.436  16.948 -0.0784 -0.1161  0.1907
60850W        W17091  34.477  20.912  16.781  0.0116 -0.2982 -0.2529
60851W        W17092  19.835  25.793  18.087 -0.0017 -0.0128 -0.0110
60852W        W17093  24.068   6.278  21.235  0.1830  0.1083 -0.0069
60853W        W17094  32.823  31.401  16.223 -0.0890 -0.1288 -0.2476
60854W        W17095   2.402  34.675   3.086  0.1944 -0.1390  0.1371
60855W        W17096   4.126  26.603  24.124  0.0499 -0.0066 -0.1122
60856W        W17097  21.778  31.966  19.524  0.0546 -0.4216  0.3737
60857W        W17098  29.020   4.541  13.942  0.2063  0.1274 -0.0025
60858W        W17099   9.154  28.657   9.381  0.1233  0.1663  0.0660
60859W        W17100  14.269  31.133  20.549  0.1823  0.1309  0.0449
60860W        W17101  17.474  15.782   1.785  0.1279  0.0639  0.1720
60861W        W17102  31.450  16.852  16.817  0.1818 -0.1992 -0.0374
60862W        W17103  33.797  27.438   3.728  0.0532  0.1289 -0.0034
60863W        W17104  24.824   2.078   6.342  0.0048 -0.0513  0.1848
60864W        W17105  27.059  22.313   5.538 -0.2218 -0.3154  0.1060
60865W        W17106  12.590   0.073  12.720  0.1895  0.0919 -0.1423
60866W        W17107  29.903  26.142  23.190 -0.1570 -0.1584 -0.2328
60867W        W17108  15.317  24.318   7.138  0.0635 -0.0587  0.0053
60868W        W17109  19.293   3.035   1.790 -0.0633  0.1293 -0.1490
60869W        W17110  30.836  22.457  23.615  0.0167 -0.2415 -0.1670
60870W        W17111  22.369  16.664   0.403  0.4664 -0.2355  0.2518
60871W        W17112  15.340  30.438   3.659  0.0561  0.0208  0.1266
60872W        W17113  16.390   0.463   2.818 -0.2541  0.2207  0.2113
60873W        W17114  13.434  15.720  12.932  0.0323  0.3000 -0.1840
60874W        W17115  20.897  34.716  25.411  0.1766 -0.2322  0.2713
60875W        W17116  13.260   6.838  19.772  0.1170  0.0578 -0.3599
60876W        W17117  15.834   7.825  12.722 -0.0169 -0.1277 -0.0848
60877W        W17118  26.232  11.478   0.824 -0.0995 -0.0449 -0.0821
60878W        W17119  21.001  19.051  19.989 -0.0559  0.2565  0.1371
60879W        W17120  22.257  18.557   1.189 -0.3030 -0.0377  0.0595
60880W        W17121  26.169  19.922  15.538  0.1095  0.2027  0.1025
60881W        W17122  27.209  31.252  11.104 -0.0612 -0.1677 -0.1505
60882W        W17123   0.844   8.654   3.579 -0.0722  0.1691 -0.0537
60883W        W17124   2.115  20.829  25.209  0.0320 -0.1144 -0.0371
60884W        W17125   9.601   5.388   6.129  0.0119 -0.1053  0.1119
60885W        W17126   6.707  19.068  24.870 -0.0419  0.3573  0.0467
60886W        W17127  11.479  19.539   7.753 -0.4500  0.0104 -0.1848
60887W        W17128  29.047  18.043  24.630 -0.0243 -0.1132  0.1646
60888W        W17129  19.658  26.162   2.236 -0.1242  0.1623  0.1005
60889W        W17130  15.430  17.235  23.394  0.0862  0.0771  0.1202
60890W        W17131   6.392   3.279  22.849 -0.1983  0.1748 -0.0180
60891W        W17132  19.219   7.072  22.970 -0.2134  0.1187 -0.1710
60892W        W17133   0.837  29.588  21.146  0.0987  0.0595  0.0080
60893W        W17134  24.938   1.659  18.227  0.0205  0.2663 -0.0262
60894W        W17135  31.796  21.860  16.222 -0.0328  0.4141 -0.0724
60895W        W17136  12.025   7.788  13.942  0.1765 -0.1245 -0.1068
60896W        W17137  35.263  23.457   0.356 -0.0282  0.1074  0.4050
60897W        W17138   8.166  12.998  20.708  0.0777 -0.1159 -0.1763
60898W        W17139   1.897  23.687   2.431 -0.3632 -0.0290  0.0143
60899W        W17140  12.956   4.916  24.503  0.0261  0.0351 -0.0086
60900W        W17141   6.374  16.546   5.579 -0.2763  0.2304 -0.1843
60901W        W17142   9.546  10.106   5.189 -0.0265  0.0295  0.0073
60902W        W17143   7.063  22.915  22.149 -0.4549  0.1713  0.2930
60903W        W17144  13.347  19.170   3.883  0.5584 -0.0283 -0.0192
60904W        W17145  27.693   8.180   9.943 -0.0099 -0.0348 -0.2018
60905W        W17146  34.580  25.397  25.079  0.1499 -0.0454 -0.2219
60906W        W17147  19.164  19.076  20.954  0.2309 -0.0045 -0.1111
60907W        W17148   0.682  11.570   0.035  0.0504  0.0113  0.3683
60908W        W17149   5.367  21.909   2.190  0.3482 -0.0643  0.5472
60909W        W17150   3.658  21.327  16.549  0.0051  0.4798  0.0057
60910W        W17151   1.399  13.444  25.550 -0.1837  0.1142  0.1456
60911W        W17152  14.078  19.251  24.251 -0.2466  0.3998 -0.2345
60912W        W17153   9.654  29.675  15.848  0.1158 -0.0818 -0.2347
60913W        W17154  15.384  32.385  12.651  0.2727 -0.1004 -0.0570
60914W        W17155  16.003   5.564  10.465 -0.0385 -0.0597  0.2108
60915W        W17156   0.115  31.502   4.544 -0.0005  0.2708 -0.0659
60916W        W17157   6.972  18.173  18.483 -0.0988 -0.0206 -0.0895
60917W        W17158  29.222  14.968   8.648 -0.0791  0.2117 -0.2599
60918W        W17159  11.500  13.223   8.809 -0.3673 -0.2523 -0.0946
60919W        W17160  15.605  26.161  20.955  0.2391  0.2185  0.1486
60920W        W17161   6.164  26.848   1.329 -0.1811  0.3753 -0.1741
60921W        W17162  33.049   6.185  23.260  0.1102  0.1441  0.2306
60922W        W17163   1.204  15.298  18.223 -0.0917  0.1413  0.0729
60923W        W17164  18.987   0.677   6.049  0.0744 -0.0647 -0.3442
60924W        W17165  14.537   8.486  20.485 -0.0134 -0.0682  0.2027
60925W        W17166  23.699   8.153  15.836  0.0696  0.5857  0.0217
60926W        W17167   6.591  23.749   4.574  0.2232 -0.0379 -0.0869
60927W        W17168  14.089  14.974   8.372  0.4346  0.0602 -0.1737
60928W        W17169  23.687   0.026   5.411 -0.1593  0.1457  0.2349
60929W        W17170   7.704  29.532   7.896  0.0281  0.2245 -0.2520
60930W        W17171  30.706  31.284  13.464 -0.1365 -0.1550  0.0446
60931W        W17172  34.173   6.192  26.081  0.3591  0.1368  0.0002
60932W        W17173  23.277  33.449  25.096  0.0126  0.1432 -0.5234
60933W        W17174  28.497  10.522  23.134  0.0135 -0.1860 -0.2186
60934W        W17175  19.627  24.792  20.572  0.1328  0.1266  0.4457
60935W        W17176  25.958   0.629  19.902 -0.0922  0.1067  0.1724
60936W        W17177  29.621  12.814  17.260  0.0878 -0.1910 -0.3359
60937W        W17178  31.594   2.669  25.973  0.2383  0.1471  0.1753
60938W        W17179  27.803  18.354   6.369 -0.0015 -0.0347  0.1547
60939W        W17180  34.431  10.796  15.017 -0.0788 -0.1092  0.0747
60940W        W17181  21.541  34.005   2.913 -0.3168 -0.0737 -0.0447
60941W        W17182   8.227  15.086   8.373  0.1573 -0.1967 -0.2527
60942W        W17183   1.844   7.137  22.659 -0.2015  0.1389 -0.2342
60943W        W17184  28.989  24.663  14.242 -0.0182  0.2390  0.4854
60944W        W17185  30.391   2.767  22.426 -0.1408  0.0603  0.0048
60945W        W17186  31.104  26.180  25.081 -0.0394 -0.1427  0.2995
60946W        W17187  32.254  15.170  21.059  0.1716 -0.1433 -0.0841
60947W        W17188  16.530  10.437  18.539  0.0394 -0.1617  0.0071
60948W        W17189  22.429  21.161   2.071  0.1010  0.1218  0.0900
60949W        W17190   3.656   1.769   2.190 -0.2713 -0.2734 -0.0045
60950W        W17191   0.838  12.933  11.332 -0.0330 -0.1396 -0.0342
60951W        W17192  16.283  20.645   2.000  0.0439 -0.3138 -0.0257
60952W        W17193  10.554  11.903   3.546 -0.1348  0.0788 -0.0444
60953W        W17194  27.685   1.369  21.405 -0.0315  0.1311  0.2273
60954W        W17195  34.965  23.522   9.298 -0.0442  0.3699  0.2477
60955W        W17196  29.705   7.106  20.973 -0.2249 -0.0629  0.0729
60956W        W17197  33.527  27.578   4.260 -0.1376  0.3091 -0.0723
60957W        W17198  15.391  13.065   7.260  0.1637  0.1938  0.2764
60958W        W17199  33.088  28.826   0.622  0.0489 -0.0237  0.1931
60959W        W17200  23.426  16.150  22.119 -0.1523 -0.4772 -0.0006
60960W        W17201  21.286  16.922  16.726  0.0626 -0.2302 -0.2421
60961W        W17202   0.313   6.010   0.507  0.3860 -0.2300 -0.0814
60962W        W17203   2.524  28.516  23.317 -0.0806 -0.1075 -0.1829
60963W        W17204  30.508  32.472   3.199 -0.0822 -0.0340  0.1017
60964W        W17205  27.829  10.949  26.087 -0.1208 -0.1398 -0.2536
60965W        W17206  28.802   1.791  23.872  0.2667  0.1121 -0.0976
60966W        W17207  27.899   3.597  14.652  0.3788 -0.0432  0.0155
60967W        W17208  20.779  23.276   5.584  0.1090  0.3096  0.1358
60968W        W17209  14.447  20.368  10.228 -0.0180 -0.0997 -0.0446
60969W        W17210  18.043   7.659   8.876 -0.1525 -0.2817  0.0280
60970W        W17211  24.335   5.892   5.111 -0.3016  0.1034 -0.0424
60971W        W17212   4.433  33.872  11.019 -0.1887 -0.0900  0.0171
60972W        W17213  19.876   6.894  19.465 -0.1882  0.1050  0.0091
60973W        W17214   6.450  33.297   1.981  0.1352 -0.3101 -0.0769
60974W        W17215  12.064  11.146   7.794 -0.1136 -0.0969  0.1557
60975W        W17216   5.085  18.884   6.465  0.0885  0.3034 -0.0474
60976W        W17217  33.537  22.485   0.364 -0.3547 -0.0649 -0.0959
60977W        W17218  23.476  34.321  20.285  0.0677  0.2414  0.3445
60978W        W17219  21.415   4.194   8.605  0.1176 -0.0080  0.0537
60979W        W17220  10.291   9.925  11.887 -0.3984 -0.1479 -0.2969
60980W        W17221  35.147  33.240   5.442  0.0946 -0.1316  0.0501
60981W        W17222   9.130  17.261  21.338 -0.0758 -0.3047  0.2636
60982W        W17223  11.158  18.429   9.145 -0.2805 -0.1077  0.2546
60983W        W17224  23.388  12.070  22.676 -0.0886  0.0086 -0.1729
60984W        W17225  26.246  31.252   0.115  0.1446  0.1470  0.1439
60985W        W17226   0.058  15.036  11.543  0.0518  0.0017  0.0101
60986W        W17227  11.231  24.615  16.487  0.0131 -0.0280  0.0836
60987W        W17228  13.684  29.375   8.037 -0.1435  0.1061 -0.3616
60988W        W17229  23.594  19.744  13.635  0.4018 -0.2696  0.0054
60989W        W17230  13.512  19.553  13.910  0.1645 -0.2814  0.0999
60990W        W17231   9.521  28.073   6.938  0.1160 -0.4849  0.0719
60991W        W17232  34.821  28.369  22.882  0.0414  0.7622 -0.0873
60992W        W17233   1.252   7.981  13.011 -0.0236  0.1366 -0.0221
60993W        W17234   4.181  27.124  23.505 -0.0640  0.2398 -0.1136
60994W        W17235  15.933  13.838   5.659 -0.1874  0.3970  0.1028
60995W        W17236   3.246  18.156  18.154 -0.0120 -0.1743 -0.2448
60996W        W17237  26.797  20.272   8.335  0.0360 -0.1008  0.0286
60997W        W17238  31.782  11.596  14.199 -0.1170 -0.1074  0.1065
60998W        W17239  14.861  27.166   5.870  0.1515  0.1785  0.3664
60999W        W17240   2.243   3.284  21.317 -0.0148 -0.0306  0.3113
61000W        W17241  20.656  14.277   3.761  0.1591 -0.3958 -0.0479
61001W        W17242  25.213   4.250  14.927 -0.1016 -0.0911 -0.3384
61002W        W17243  21.936  28.200  18.203  0.1613 -0.1073  0.1474
61003W        W17244  27.664  16.252  17.971 -0.0949 -0.0515 -0.0861
61004W        W17245  31.191   3.107   1.345  0.2272  0.3399 -0.1847
61005W        W17246  12.337  27.836  22.478  0.1351  0.1127  0.1990
61006W        W17247  19.012   0.152   8.094  0.3280  0.1336 -0.0424
61007W        W17248  14.943  29.288  21.726 -0.2854  0.1801  0.2454
61008W        W17249  23.202  34.593  20.582 -0.2853 -0.0247  0.2475
61009W        W17250  22.565  31.519   5.098  0.2742  0.0792  0.0092
61010W        W17251  33.857  23.427  23.936 -0.0887 -0.1039  0.0304
61011W        W17252  35.220   0.321  14.746  0.0938 -0.2216 -0.0422
61012W        W17253  18.220  13.064   0.236  0.2019  0.1866  0.0935
61013W        W17254  24.654  11.504  10.987  0.1803 -0.2608 -0.1906
61014W        W17255  25.964   1.400  13.344  0.1295  0.0277 -0.1819
61015W        W17256  17.325   9.011   4.857 -0.0397 -0.1051 -0.0699
61016W        W17257   1.783   3.281  17.822 -0.0501  0.0139  0.2069
61017W        W17258   9.203   8.937  18.626 -0.0984  0.0807  0.1402
61018W        W17259  21.183   5.184  21.692  0.3317 -0.0528  0.4432
61019W        W17260  28.450   5.405   4.290  0.1680 -0.0987 -0.0378
61020W        W17261  35.197  17.155  17.010 -0.1757  0.0198  0.1834
61021W        W17262   3.516  27.815   2.328  0.2447 -0.0067 -0.1956
61022W        W17263  22.548  26.556  19.402 -0.1050 -0.1028 -0.0483
61023W        W17264  19.105  29.654  19.234 -0.0835  0.0916 -0.2498
61024W        W17265  13.406  17.488  26.051 -0.2193  0.2052  0.3426
61025W        W17266  14.693   4.276   8.870 -0.0997 -0.0614 -0.1836
61026W        W17267  31.520  33.339  22.453 -0.0657 -0.0544 -0.3195
61027W        W17268  28.731   8.282   1.696  0.2966  0.1089  0.0162
61028W        W17269  27.246   7.286  12.283 -0.1676 -0.0047  0.3802
61029W        W17270  27.308  14.079  20.789  0.0477 -0.2259  0.1535
61030W        W17271  18.832  21.181  11.156  0.2064 -0.2107  0.1323
61031W        W17272  10.426  27.799  22.647 -0.2062  0.1277  0.4169
61032W        W17273  13.612   5.142  12.594 -0.2805  0.2260  0.0844
61033W        W17274   7.852  13.406  26.049 -0.0137 -0.0899  0.3030
61034W        W17275  30.270  11.516  22.079 -0.2337  0.0668  0.1488
61035W        W17276  13.322   6.475   6.449 -0.2882  0.0552  0.1254
61036W        W17277  32.161  14.100   1.025  0.0705 -0.2790 -0.0785
61037W        W17278   1.608   8.089  24.859 -0.0805 -0.1745  0.0471
61038W        W17279  24.921  21.765  23.843  0.1411  0.3948  0.0669
61039W        W17280  19.337  30.548   4.598 -0.1224 -0.2633  0.0410
61040W        W17281   1.877   3.014  18.692 -0.1268 -0.2777 -0.2637
61041W        W17282  27.852  18.803  24.371  0.1475  0.2321 -0.0206
61042W        W17283  22.086   3.292  18.432  0.3499 -0.0728 -0.2080
61043W        W17284  16.910  20.874   7.964 -0.4765 -0.2866 -0.1828
61044W        W17285  30.150  11.717  12.414  0.0430  0.1436 -0.0491
61045W        W17286  30.693  29.126  16.967 -0.0034  0.1837 -0.1267
61046W        W17287  27.407  11.747  10.444  0.1796  0.0960  0.0913
61047W        W17288  17.201  20.717  12.579  0.0940  0.3071  0.0798
61048W        W17289   9.941  16.048  24.859 -0.0014  0.1407  0.1337
61049W        W17290  33.513  14.135   1.665 -0.0667  0.2204 -0.0519
61050W        W17291  15.299  21.455  22.717  0.2195  0.0973  0.0645
61051W        W17292  18.606  22.134  25.908  0.3180 -0.0748  0.0336
61052W        W17293  14.171  24.059  25.359 -0.0610 -0.1019 -0.0901
61053W        W17294  29.709  20.047  22.618 -0.0521  0.0615 -0.0678
61054W        W17295  21.083  20.858  21.716  0.1192  0.1659 -0.1861
61055W        W17296  17.673  18.080   4.417  0.0102 -0.1035 -0.1814
61056W        W17297  21.179  25.441   1.700 -0.3058  0.0743  0.1413
61057W        W17298  19.100  20.371  20.973 -0.2731  0.0435  0.0933
61058W        W17299  19.173  19.351  21.914 -0.2604 -0.1168  0.1774
61059W        W17300   7.243  21.794   8.180 -0.0028 -0.0802 -0.1256
61060W        W17301   2.940  17.642   1.237 -0.0986  0.2524  0.1564
61061W        W17302  14.436   9.875  18.990 -0.0449 -0.0217 -0.1628
61062W        W17303  20.905  32.896  21.544  0.2471 -0.2960  0.0641
61063W        W17304   9.871  25.738  11.748  0.0045 -0.1067  0.0945
61064W        W17305  21.149   8.897   6.759  0.0510 -0.1460 -0.0684
61065W        W17306  34.315  29.760   3.298  0.1230 -0.2232  0.0634
61066W        W17307   2.984  28.337   4.233 -0.1712  0.1072 -0.3424
61067W        W17308  10.700  33.337   3.191  0.0560 -0.0308 -0.2229
61068W        W17309  17.573   2.319  21.459 -0.2594 -0.1557 -0.1368
61069W        W17310  13.670  18.043  10.595  0.0529  0.1131 -0.1282
61070W        W17311  16.965  14.728   8.606 -0.0977  0.1160  0.0159
61071W        W17312  23.121  11.464  25.804  0.3063 -0.2209 -0.2444
61072W        W17313  19.329  30.034   0.592  0.1487 -0.2020  0.1258
61073W        W17314  33.447  22.641  13.570  0.0899 -0.0064 -0.0578
61074W        W17315  25.860   5.062  19.197  0.1583 -0.0912 -0.0477
61075W        W17316  12.927   2.422  25.221  0.3230  0.3499 -0.2400
61076W        W17317  17.550  17.131   3.648  0.2008 -0.1885  0.2444
61077W        W17318  29.698  15.013   6.104 -0.1861  0.0323 -0.0941
61078W        W17319  27.583  22.094  16.676  0.1127 -0.2540 -0.0750
61079W        W17320  29.649  15.462   7.838 -0.3880 -0.0719 -0.2424
61080W        W17321   4.161  22.675   3.021  0.1423  0.0878  0.2460
61081W        W17322  16.063  31.438  19.221 -0.1036 -0.1856  0.1253
61082W        W17323  24.276  20.828  25.611  0.3617 -0.0339 -0.2416
61083W        W17324  19.898  18.073   7.989  0.0666 -0.0670  0.2360
61084W        W17325  20.516  32.072  22.440  0.0727 -0.3370  0.1094
61085W        W17326   3.854  29.345  21.844  0.3195 -0.1137  0.2872
61086W        W17327  16.698   2.416  17.719 -0.2284  0.0292  0.1420
61087W        W17328   4.729  32.719   3.133  0.3114  0.1247 -0.2027
61088W        W17329  27.983   0.512  17.829  0.0007  0.1113 -0.1523
61089W        W17330   9.113  17.457   1.862  0.3065 -0.0759 -0.1470
61090W        W17331  11.760  28.183  16.585 -0.1649  0.0224 -0.1471
61091W        W17332   0.117   0.576  22.752 -0.4067 -0.1183  0.0921
61092W        W17333   4.031  28.077   4.075 -0.0244 -0.0737 -0.3070
61093W        W17334  27.103  18.072  11.488  0.1859  0.1625 -0.0655
61094W        W17335  19.618  32.270   7.652  0.0924  0.0264 -0.1337
61095W        W17336  31.477   3.420  25.882 -0.0221 -0.2965  0.0584
61096W        W17337  32.563  10.904  26.148  0.0538  0.1249 -0.1259
61097W        W17338   9.259  21.306  14.930 -0.2328 -0.0278  0.0697
61098W        W17339   9.711   1.756  11.079 -0.0286 -0.1252 -0.1897
61099W        W17340  19.980  10.005   4.396  0.0740 -0.0896  0.0900
61100W        W17341  31.408  24.072  16.122  0.2817  0.0443 -0.0146
61101W        W17342   7.101  24.311  22.615  0.0005 -0.0749  0.0196
61102W        W17343  14.250   7.319  21.846 -0.0618 -0.3342 -0.0681
61103W        W17344  23.311   7.363  16.070 -0.2238 -0.1746 -0.0594
61104W        W17345   7.170  22.774  13.509  0.1419  0.1975  0.3204
61105W        W17346   3.309  15.887   4.177 -0.0037 -0.1001  0.0438
61106W        W17347  25.382   6.094  17.802  0.2378  0.2148 -0.0419
61107W        W17348  27.230   2.226   5.440  0.2631 -0.1155 -0.1268
61108W        W17349  27.311  26.943   1.784 -0.1353  0.0640  0.0219
61109W        W17350   7.074  13.177   7.552 -0.4391 -0.1471  0.0233
61110W        W17351  14.890   6.347  13.489  0.0818  0.0632 -0.1810
61111W        W17352  31.470  21.873  23.197 -0.1494  0.2264 -0.2467
61112W        W17353   7.440  27.539  15.180 -0.2225 -0.0914 -0.1945
61113W        W17354  26.426  27.653  24.103  0.1218  0.1031 -0.2352
61114W        W17355  26.548  27.857  23.596  0.1527  0.2082  0.0419
61115W        W17356  20.733   7.878  17.764  0.0156 -0.3403  0.1426
61116W        W17357  16.888  13.606   6.864  0.0887 -0.4225 -0.1028
61117W        W17358  23.617  30.163  19.578 -0.0987  0.2490 -0.1969
61118W        W17359   0.041   7.098   6.931 -0.1541 -0.3388 -0.2267
61119W        W17360   7.998   7.602   9.248  0.2602  0.1062  0.2534
61120W        W17361   8.753  31.906  21.521  0.0330  0.0620  0.2863
61121W        W17362   1.117  32.470   6.535  0.1244  0.0510  0.0423
61122W        W17363  27.358  10.539  11.587 -0.2855  0.1497 -0.3003
61123W        W17364   3.022  34.179   4.196  0.1419  0.2412  0.0755
61124W        W17365  16.522   7.701  24.767 -0.2956  0.0202 -0.1414
61125W        W17366  31.029  10.300  18.515 -0.3197  0.1110  0.2690
61126W        W17367  21.373  23.117  24.600  0.1232 -0.3697  0.0670
61127W        W17368  17.578   6.345  25.068  0.2527  0.2258 -0.1972
61128W        W17369  23.947  24.915  16.701 -0.0081  0.0160 -0.3102
61129W        W17370  19.346  20.303  22.534  0.1820 -0.0572  0.0578
61130W        W17371  17.625   0.853  19.177  0.0237 -0.1673  0.1426
61131W        W17372   9.597  13.263  11.816  0.1274 -0.1026  0.0014
61132W        W17373  26.109  21.981  10.634 -0.5165 -0.2821  0.0306
61133W        W17374  34.547  16.495  24.615 -0.2475 -0.3566  0.1100
61134W        W17375  30.522  21.082  17.498  0.0169  0.0216 -0.1797
61135W        W17376  13.150   7.975  10.709  0.2734  0.0752 -0.1585
61136W        W17377  11.629  10.502   3.655 -0.0989 -0.0262  0.0469
61137W        W17378   9.261  32.996   8.438  0.1492 -0.2634 -0.1972
61138W        W17379   1.704  19.479  17.247 -0.0447  0.1937  0.3396
61139W        W17380   1.602   1.518  16.453 -0.0171  0.2677 -0.0439
61140W        W17381  26.329  11.499  14.044 -0.0897 -0.0373 -0.3419
61141W        W17382   2.936  15.983   0.447 -0.2020 -0.0106 -0.1661
61142W        W17383  30.546   3.147   0.381 -0.5398  0.0547  0.0170
61143W        W17384   7.380  24.676   7.834 -0.3449  0.0071 -0.1130
61144W        W17385  30.924  34.633  23.059  0.0347 -0.1916  0.1634
61145W        W17386  17.575   9.513  11.258 -0.1151  0.0180  0.0154
61146W        W17387  15.120  10.794  23.764  0.1154 -0.2998  0.1107
61147W        W17388  30.514  26.511   9.995 -0.3446 -0.0639  0.3629
61148W        W17389   7.867   9.338   8.183  0.0083 -0.2280 -0.0797
61149W        W17390  24.207   3.001   2.643  0.0053  0.1571 -0.0704
61150W        W17391   9.604  24.864   1.230  0.1080  0.1055 -0.2277
61151W        W17392   2.168  32.953  24.020  0.1523 -0.2745  0.0344
61152W        W17393   6.384  10.251   2.003 -0.4093  0.2599 -0.0332
61153W        W17394  22.359  11.094  14.688 -0.0867 -0.2382 -0.3388
61154W        W17395  23.356  23.057   1.384 -0.0820 -0.0639 -0.1676
61155W        W17396  15.621  19.229   1.382  0.0099 -0.3768 -0.0830
61156W        W17397   6.098  33.950   8.235 -0.1825 -0.1939  0.0065
61157W        W17398   9.518  25.192  15.594 -0.0100  0.0556  0.0408
61158W        W17399  24.403  20.463  12.442  0.2329 -0.0343  0.0632
61159W        W17400  33.278  21.940  24.265 -0.2781 -0.0865 -0.3355
61160W        W17401  16.509  30.322  11.753  0.0865  0.0704 -0.3415
61161W        W17402  17.717  10.626   1.476 -0.1736 -0.0425  0.1552
61162W        W17403  32.738  25.068  10.626  0.2139  0.1648 -0.1589
61163W        W17404  20.643   2.126   4.688  0.0456  0.0820 -0.3364
61164W        W17405  15.978  29.759  20.451 -0.4731 -0.1052 -0.0369
61165W        W17406   7.568  34.234  10.274 -0.0836  0.0999 -0.1965
61166W        W17407   3.358  22.079   0.922  0.0958 -0.1138  0.2042
61167W        W17408   5.017  30.379   0.329  0.2718 -0.3504 -0.0436
61168W        W17409   2.848   7.839  23.949 -0.0002  0.0574  0.0893
61169W        W17410  25.960  25.406   8.409 -0.1961 -0.2813 -0.0801
61170W        W17411  18.267  24.173  22.344  0.1412  0.0527 -0.3474
61171W        W17412  25.111  31.292  23.817 -0.1036 -0.4661  0.2903
61172W        W17413   0.471  20.889  22.638  0.3210  0.3098  0.1691
61173W        W17414   2.824   3.523  22.088 -0.0297 -0.2859  0.0903
61174W        W17415  14.793   7.747   6.842  0.2863  0.2278 -0.0434
61175W        W17416  22.020  29.831  15.206 -0.0239  0.0764 -0.0477
61176W        W17417   0.480  35.077  19.408  0.0892  0.2466 -0.0299
61177W        W17418  34.537  32.998  18.568 -0.0067  0.2790  0.3284
61178W        W17419   5.616  20.451   6.777  0.1115 -0.4014  0.2633
61179W        W17420  21.386   5.509   8.432  0.2487  0.1744 -0.0719
61180W        W17421   0.755   2.393  25.840  0.3764  0.1970 -0.0516
61181W        W17422  25.444  34.932  11.894  0.1753 -0.1081  0.0801
61182W        W17423   9.000  18.354   4.429  0.0394  0.0952 -0.1575
61183W        W17424  33.030  30.906  25.138 -0.1264 -0.2132 -0.0191
61184W        W17425  34.677  28.171  24.249 -0.1124  0.1249  0.0552
61185W        W17426  29.872  14.700  21.480 -0.1014  0.2860  0.1570
61186W        W17427   1.181   8.434  23.241 -0.2191  0.1281 -0.0580
61187W        W17428   0.872   4.287  22.215  0.0805  0.1411 -0.0525
61188W        W17429  29.959   8.606  22.271  0.0779 -0.1975 -0.2039
61189W        W17430  23.162  16.774   2.363  0.1334 -0.2470  0.0150
61190W        W17431   6.389   6.978  25.845 -0.0605 -0.1407  0.0965
61191W        W17432   2.440  34.711  19.443 -0.1359  0.0189  0.0105
61192W        W17433  25.647  15.634  13.520  0.0840 -0.2277 -0.0688
61193W        W17434   3.036  30.765  18.639  0.1569  0.1599 -0.0884
61194W        W17435   1.414  35.226   9.079 -0.0482  0.0541  0.3525
61195W        W17436  24.073  15.376  12.658 -0.0020 -0.2672  0.0443
61196W        W17437  28.124   5.809  10.342  0.0307 -0.0958  0.1778
61197W        W17438  11.019  21.304   8.798  0.3545 -0.0603  0.2224
61198W        W17439  26.639  34.864  14.211  0.1316 -0.2246 -0.3376
61199W        W17440  32.448  14.089  11.293 -0.0016 -0.1979 -0.0658
61200W        W17441  32.784   2.299  13.318  0.0671 -0.1912 -0.3894
61201W        W17442  21.070   3.249   6.773  0.1285  0.0870  0.0756
61202W        W17443  15.886  29.823   1.775 -0.0153  0.1915 -0.2441
61203W        W17444  10.042  29.596  13.956 -0.3529  0.1195  0.0438
61204W        W17445  29.994  10.246  23.952  0.1045  0.3343 -0.1659
61205W        W17446   4.712   6.750  21.881  0.0639 -0.1716  0.0621
61206W        W17447   2.578  15.580   1.256 -0.2892 -0.1785 -0.0413
61207W        W17448   3.794   0.007   0.537 -0.4217 -0.0502 -0.1779
61208W        W17449   6.727   6.353   0.457  0.2426  0.3026  0.2282
61209W        W17450   0.598  15.016  15.766  0.0637 -0.0185  0.2426
61210W        W17451  22.420  33.336   5.302 -0.1776  0.3011  0.1874
61211W        W17452  14.052  27.984   1.801 -0.3083 -0.2191  0.0800
61212W        W17453   4.055  11.122   3.214 -0.0800  0.0672  0.0811
61213W        W17454  10.346   5.499  19.771  0.1362 -0.1325 -0.0783
61214W        W17455  23.629   8.914   3.531  0.0870 -0.1154 -0.0810
61215W        W17456  32.353   2.077  16.953 -0.2176  0.2834 -0.0144
61216W        W17457  15.973   8.777   9.621 -0.0164 -0.1650 -0.1325
61217W        W17458  21.775  30.343  14.816  0.1465  0.0630 -0.0931
61218W        W17459  10.764  27.111   2.530 -0.0333  0.2289  0.1720
61219W        W17460  14.540   8.235   5.705  0.0375 -0.1118 -0.0914
61220W        W17461  31.949   5.649  21.105 -0.0440 -0.3112  0.0774
61221W        W17462  11.574  29.394  14.654  0.0267  0.2837  0.0926
61222W        W17463  30.540  11.102  22.266  0.4099  0.3477  0.1777
61223W        W17464  25.158  24.750  16.815  0.1719  0.1660 -0.1977
61224W        W17465  34.640  31.660  15.720 -0.0162  0.0516  0.1458
61225W        W17466  30.840  22.427  12.387  0.0871  0.1197  0.1645
61226W        W17467  18.848   9.520   7.797  0.0884 -0.4283 -0.0133
61227W        W17468  20.108  12.032   6.380 -0.0280 -0.0668  0.3714
61228W        W17469  12.079  28.957  15.583  0.3436 -0.1182 -0.5394
61229W        W17470  31.339   6.458  24.284  0.1719  0.0405 -0.3964
61230W        W17471   5.930  28.737  14.697  0.1723 -0.1872 -0.1991
61231W        W17472  18.388  10.828  18.763 -0.1152  0.2015 -0.0671
61232W        W17473   9.182  32.706   3.983 -0.2633  0.1299  0.2950
61233W        W17474  30.324  27.754  26.227  0.3869 -0.0143 -0.0542
61234W        W17475  18.785   1.941   2.792 -0.3114 -0.0365  0.1668
61235W        W17476   0.343   1.100   4.720 -0.1510 -0.2146 -0.4990
61236W        W17477  10.978  22.628   7.931  0.3888 -0.2154 -0.2397
61237W        W17478  27.331  10.131   0.358  0.1965  0.0290 -0.2041
61238W        W17479   9.237   5.386   2.375  0.0183  0.4186  0.1959
61239W        W17480   5.679  22.344   3.678  0.1450  0.0447 -0.3725
61240W        W17481  28.899  10.313  16.582  0.3340  0.0318  0.0722
61241W        W17482   8.787  18.681  25.256  0.0416  0.2200 -0.2926
61242W        W17483  33.401  26.138  20.667  0.1186  0.2412 -0.1873
61243W        W17484  13.682  30.510  21.264 -0.0896  0.1097  0.1534
61244W        W17485  21.319  10.592  16.918  0.1770  0.2499  0.3269
61245W        W17486  10.125  14.472   2.682  0.1787  0.0215 -0.1748
61246W        W17487   0.200  15.514  26.034 -0.2379 -0.0290  0.1552
61247W        W17488  33.501  23.801  14.845 -0.0783  0.3035 -0.2973
61248W        W17489  25.908  17.316   6.583 -0.1177 -0.2727  0.1948
61249W        W17490  14.686  15.274   2.096  0.3770 -0.1070  0.0199
61250W        W17491  11.660  14.840  17.956 -0.4426 -0.2204 -0.2961
61251W        W17492  18.355   4.020  18.091  0.1943  0.1633 -0.2285
61252W        W17493  14.067  12.297  21.052  0.0307  0.1004 -0.0165
61253W        W17494  13.212  34.071   1.939  0.1262 -0.1955  0.0529
61254W        W17495  33.023  15.933  13.436 -0.1862 -0.0817  0.1863
61255W        W17496  32.909  18.963  19.806  0.1197 -0.0798  0.0465
61256W        W17497  18.790  16.142   2.857  0.0266  0.1969 -0.2072
61257W        W17498   9.215   0.697   5.176 -0.0471  0.0499  0.1663
61258W        W17499  10.436  26.869   9.379  0.0406  0.1290 -0.2101
61259W        W17500  20.025  31.693   3.570  0.2361  0.1325  0.0838
61260W        W17501   6.431   5.531   1.250  0.1646 -0.2765  0.0276
61261W        W17502  12.466  15.722  13.099  0.2850 -0.1730 -0.0484
61262W        W17503  18.201  11.429  22.033 -0.1779 -0.1417  0.0499
61263W        W17504  13.920  17.340  25.031  0.0533 -0.0576  0.0035
61264W        W17505  28.143   4.087  12.100  0.0347  0.0040  0.1467
61265W        W17506   2.951   0.694   3.802  0.1427 -0.1506  0.2988
61266W        W17507  13.777  30.594   3.587  0.0369 -0.0764 -0.0002
61267W        W17508  16.533   3.341   5.626 -0.4983 -0.0455  0.0579
61268W        W17509  23.475  28.912  15.366  0.1143 -0.2062  0.0342
61269W        W17510  29.118   7.141   2.693 -0.0104  0.1291 -0.2637
61270W        W17511  32.166  27.615  22.525 -0.0464  0.1196 -0.0329
61271W        W17512   7.974  10.415  10.823 -0.0874  0.0962 -0.0138
61272W        W17513   3.314  25.082  25.110  0.1543  0.1518  0.1381
61273W        W17514  30.032  29.470  13.872  0.0521 -0.3157  0.3536
61274W        W17515   1.428   1.526   7.477  0.0933  0.1617  0.0726
61275W        W17516  16.174  24.761   7.250  0.2183 -0.2842  0.2244
61276W        W17517  12.333   6.951   9.084 -0.0931  0.0336 -0.0933
61277W        W17518   3.954  30.005  23.101  0.0807 -0.0455  0.0846
61278W        W17519  24.766   3.078  18.257 -0.1516  0.2130 -0.2320
61279W        W17520   3.216   5.283   4.790 -0.1522 -0.1815 -0.1040
61280W        W17521  35.056  13.310   1.123  0.1193  0.4379 -0.2192
61281W        W17522  16.714   9.109   0.093  0.1796  0.0678 -0.1707
61282W        W17523  10.867  19.356   6.493 -0.2708 -0.3011  0.0890
61283W        W17524  24.299  13.299  21.676  0.1617 -0.0796 -0.2263
61284W        W17525  23.354  16.115  23.458 -0.0890  0.0294 -0.0224
61285W        W17526  35.071  21.456  20.536  0.0772 -0.0042 -0.0412
61286W        W17527   9.976  29.652  11.915  0.1709  0.0702 -0.0628
61287W        W17528  18.934   1.301   3.386  0.0281  0.0441 -0.1276
61288W        W17529  34.548  26.680  23.533 -0.4391  0.2564 -0.0570
61289W        W17530  16.410  23.619   1.850 -0.2135 -0.2707 -0.1991
61290W        W17531  32.507  28.273  19.434  0.1086  0.2013 -0.0561
61291W        W17532  22.635   6.155  17.050  0.0921 -0.0810 -0.0305
61292W        W17533   0.658  31.841  23.335 -0.1122 -0.0578  0.2287
61293W        W17534  10.079  29.907   3.766 -0.1085 -0.0930  0.1327
61294W        W17535  29.082  31.856  10.317  0.0515 -0.0216 -0.0032
61295W        W17536  17.464  25.850  24.540 -0.3280  0.3108 -0.1011
61296W        W17537  12.390  30.668   2.454 -0.1494 -0.1789  0.0206
61297W        W17538  11.608   9.023   5.199 -0.1055 -0.0041  0.2070
61298W        W17539   0.505   7.755  16.420  0.0022 -0.0687  0.2488
61299W        W17540  23.000  32.379   5.113 -0.1251  0.0518 -0.2458
61300W        W17541  20.522  18.006   1.024 -0.0264 -0.1906  0.0679
61301W        W17542  17.759   4.529  23.239 -0.0698 -0.1155  0.2387
61302W        W17543  18.478  26.740   9.211 -0.1051 -0.0910 -0.1728
61303W        W17544   8.358   2.612  10.089 -0.4198 -0.1770 -0.1466
61304W        W17545  29.314  22.928  23.236 -0.2299  0.1471 -0.0614
61305W        W17546  34.910   7.298  14.219 -0.0962  0.0554 -0.1417
61306W        W17547   7.720  25.140   2.398 -0.1269 -0.1770 -0.0768
61307W        W17548  10.258  25.719  11.348  0.2027 -0.2531  0.3266
61308W        W17549  14.607  19.012  11.383  0.0502 -0.6833 -0.3368
61309W        W17550  11.730  20.317  13.631 -0.0697  0.2760  0.2384
61310W        W17551  32.835  26.157  16.402 -0.0166 -0.1587 -0.1521
61311W        W17552  33.262   0.719  23.029  0.0559 -0.3469  0.1915
61312W        W17553  34.121  18.827  14.377  0.0875  0.2387  0.0954
61313W        W17554  28.942  27.938  17.504 -0.0720  0.0640  0.0963
61314W        W17555  17.439  10.705   5.877  0.2820 -0.3063 -0.3989
61315W        W17556  30.672  27.794   1.438  0.1375 -0.0214  0.1983
61316W        W17557  14.889  24.883  10.480 -0.0527  0.3175 -0.0102
61317W        W17558  13.588  28.175  11.769 -0.1779 -0.0516 -0.1478
61318W        W17559  31.602  30.056  22.580  0.1179 -0.1852  0.2716
61319W        W17560  23.936  17.517  20.136 -0.0193 -0.1546  0.1361
61320W        W17561  34.032  10.855  18.031  0.0152 -0.1096 -0.2065
61321W        W17562  22.073   3.929  23.710 -0.1932  0.1502 -0.2669
61322W        W17563  16.478  23.814   1.025  0.2938  0.0227  0.0242
61323W        W17564  23.852  18.647  22.803 -0.0621  0.1048 -0.3174
61324W        W17565  24.673  21.503  15.042  0.1805  0.1736  0.1248
61325W        W17566   8.922  25.913  14.378 -0.4627  0.0876  0.0630
61326W        W17567  12.547  31.904   3.130 -0.1372 -0.2754  0.3612
61327W        W17568   8.899  18.917  10.398  0.1026  0.1819  0.1237
61328W        W17569  35.169   8.275  21.770  0.2227  0.0230  0.0725
61329W        W17570  17.763   1.119   8.547  0.0423 -0.0479  0.0416
61330W        W17571  17.566  13.085  23.753 -0.0003 -0.0029 -0.4016
61331W        W17572  21.198  22.764   3.496 -0.0190 -0.1524 -0.3191
61332W        W17573  18.690  19.144  24.611 -0.1390 -0.0424 -0.0704
61333W        W17574  11.237  27.363  13.519 -0.1508  0.0295  0.0084
61334W        W17575  23.498   1.028  17.115  0.2505  0.0507  0.0189
61335W        W17576  17.807  35.027  20.609 -0.1044 -0.2261 -0.1997
61336W        W17577  10.726  18.454  10.789  0.0838 -0.1312 -0.0277
61337W        W17578   1.017   9.496  12.023  0.0937 -0.1390  0.1318
61338W        W17579   2.372  23.714  19.066 -0.2229  0.0081  0.1398
61339W        W17580  23.676  17.920  22.916 -0.2616  0.2843 -0.2211
61340W        W17581  20.222  20.609  18.085 -0.1942 -0.2242 -0.2132
61341W        W17582  33.366  14.247  24.127 -0.2462 -0.2080  0.0665
61342W        W17583  28.823  15.432  23.551 -0.0607 -0.0533  0.0904
61343W        W17584  32.202   1.043  16.044 -0.0009 -0.2777  0.2149
61344W        W17585  25.508  16.930   9.797  0.3065 -0.0137 -0.1635
61345W        W17586  18.187  10.523   4.776  0.2150  0.2723  0.0084
61346W        W17587  20.153  28.591  22.032  0.2202  0.0108 -0.0284
61347W        W17588  33.027  31.150  18.410  0.0634  0.0026  0.2469
61348W        W17589  13.169  25.182  15.215 -0.0071 -0.0378 -0.0145
61349W        W17590   1.072  24.388  20.297 -0.1643 -0.0078  0.1465
61350W        W17591   8.573  11.001  22.810  0.1675 -0.4763  0.0535
61351W        W17592  16.535  13.332   8.647  0.0719 -0.2125 -0.0153
61352W        W17593  10.965  25.410  22.644  0.0617 -0.0222  0.0085
61353W        W17594  33.975  33.244  17.747 -0.0145  0.0246  0.3745
61354W        W17595  23.575  28.723  23.300  0.1803  0.1721  0.1988
61355W        W17596  23.289  30.226  18.571 -0.2950  0.1752 -0.1702
61356W        W17597   2.350  15.816  23.812  0.0657  0.3708  0.1571
61357W        W17598  19.639  10.775  21.070 -0.1959 -0.1371  0.1636
61358W        W17599  24.222  24.654  15.827  0.1305  0.1239  0.1858
61359W        W17600  25.660   5.885   3.251 -0.2804  0.1451 -0.2261
61360W        W17601  10.616  12.465  20.180 -0.4554  0.1291 -0.0882
61361W        W17602  33.848  22.500  22.788  0.1558 -0.1172 -0.3321
61362W        W17603   2.909  27.722  18.170 -0.2420 -0.0748 -0.1267
61363W        W17604   9.106  10.690  10.896  0.0677 -0.1334  0.1841
61364W        W17605  14.667  30.455  26.059 -0.0529  0.3692 -0.1375
61365W        W17606  20.342  29.454   6.630 -0.1066  0.3440 -0.1257
61366W        W17607  25.356  34.582  15.058 -0.0649  0.0984  0.1912
61367W        W17608  14.787  15.580   6.800 -0.2502  0.3312 -0.1664
61368W        W17609   6.976   2.963   0.265 -0.1252 -0.1163 -0.1136
61369W        W17610   7.508  17.747   9.669  0.1136  0.0351  0.1926
61370W        W17611  13.618   6.326   2.072 -0.0684 -0.2608 -0.2561
61371W        W17612  33.001  10.045  19.675 -0.0044  0.0633 -0.1426
61372W        W17613   6.795  11.268  21.804 -0.0415  0.3402  0.0962
61373W        W17614   8.683  25.953   2.955  0.2341 -0.0674  0.0073
61374W        W17615   5.562  19.043  21.835  0.3973 -0.1225  0.2332
61375W        W17616   8.029  26.921   4.375  0.0803  0.1729 -0.0259
61376W        W17617  29.864  10.108  15.548 -0.1096 -0.1324  0.1185
61377W        W17618  23.937  27.321   4.194  0.1192  0.0237 -0.0565
61378W        W17619  20.197   7.697   7.059  0.1522 -0.1299  0.0252
61379W        W17620  29.883   2.839  21.192  0.0067  0.2069  0.2046
61380W        W17621   6.235   8.788   2.908  0.2519  0.1850  0.1152
61381W        W17622  16.257  17.308   4.168 -0.2201  0.1867 -0.0404
61382W        W17623  19.906  34.054  23.199  0.0693 -0.0053 -0.0599
61383W        W17624  24.459  10.030   1.168  0.0183  0.0668 -0.1834
61384W        W17625   5.542  12.139  17.313 -0.2591  0.0322  0.0898
61385W        W17626  25.597  30.338  11.033  0.1897  0.0913 -0.0358
61386W        W17627   6.011  13.137   4.525 -0.1450 -0.1604  0.1604
61387W        W17628  27.085  30.605   2.333 -0.2331 -0.2432  0.2263
61388W        W17629  11.408  28.419   8.883  0.1516  0.0005  0.1127
61389W        W17630  32.943   2.448   7.027  0.1279  0.1558  0.0140
61390W        W17631  14.915  12.417   3.083 -0.1079  0.0780  0.0393
61391W        W17632  27.222   3.106   2.083  0.0743 -0.4048 -0.0941
61392W        W17633  25.112  27.578   1.165  0.1597 -0.0361 -0.1684
61393W        W17634  25.560  11.971  15.420 -0.0025  0.0263  0.3200
61394W        W17635  25.917   0.229   0.971  0.0410 -0.1556 -0.0883
61395W        W17636   7.286  33.455  14.823  0.0255  0.0034  0.1996
61396W        W17637  26.356  31.262  22.849  0.1470 -0.0275 -0.0052
61397W        W17638   8.703  17.947   2.531  0.0952 -0.0230 -0.1659
61398W        W17639  19.903   9.672  20.751  0.2326  0.1613 -0.2161
61399W        W17640  25.926  10.905  19.630 -0.0800  0.2113  0.0932
61400W        W17641   9.152   1.441  24.736  0.1394 -0.2546  0.0319
61401W        W17642  23.645  31.391  12.075  0.1386  0.1264  0.1948
61402W        W17643  16.997  14.704  23.896  0.2208  0.4624  0.3100
61403W        W17644  14.657   3.232   6.828  0.1296  0.2400  0.1022
61404W        W17645  14.025   6.215   2.344  0.0878 -0.0830 -0.0604
61405W        W17646  13.706   5.004  23.375  0.3049  0.1839  0.0278
61406W        W17647  34.671  32.792   3.085 -0.1927 -0.1196  0.0861
61407W        W17648  30.325  24.984  10.004 -0.0258  0.0645  0.3263
61408W        W17649   3.811  26.768   2.030  0.0931 -0.2951 -0.1112
61409W        W17650  29.019   5.357  17.697 -0.0148  0.0333 -0.1160
61410W        W17651  28.778  12.392  14.833 -0.2687  0.0264  0.0675
61411W        W17652  19.731   5.044   1.245 -0.0633 -0.2245  0.0940
61412W        W17653  33.393  10.824  15.323 -0.1731  0.3244 -0.1388
61413W        W17654  16.595  17.730   1.922 -0.0915  0.2636  0.0582
61414W        W17655  34.665  34.488   3.819 -0.2481  0.0209  0.1901
61415W        W17656  25.222   2.171  16.613  0.1868  0.1655  0.1978
61416W        W17657  22.502  26.763   2.491  0.4323 -0.0237 -0.1855
61417W        W17658   1.647   1.723  23.769  0.2577  0.1347  0.1052
61418W        W17659  27.483   4.700  24.160  0.2092  0.3540  0.2476
61419W        W17660  17.077   4.773  23.952  0.0020  0.0693  0.0100
61420W        W17661  18.909  15.240   0.070  0.0021  0.0277 -0.1292
61421W        W17662   7.905   2.518  10.934 -0.3471  0.2793  0.4093
61422W        W17663  16.159  21.477   5.208 -0.2272  0.4270  0.1685
61423W        W17664  27.387  33.770  15.360 -0.0287 -0.0751 -0.0525
61424W        W17665  11.949  23.022  17.342  0.0062 -0.3577 -0.1265
61425W        W17666   2.768  22.918   2.954 -0.0087 -0.0262 -0.1233
61426W        W17667   4.517  22.954   3.135 -0.1191 -0.0787 -0.1057
61427W        W17668  26.255  11.887   9.823  0.0382  0.1975 -0.2627
61428W        W17669  20.442   1.083  18.385  0.1255 -0.3159 -0.0918
61429W        W17670   7.875   3.697  25.123 -0.1277  0.1757  0.2031
61430W        W17671  12.924  22.247  14.428  0.0113 -0.1305  0.2487
61431W        W17672  26.071  16.283  18.141  0.2974  0.0731 -0.0860
61432W        W17673   1.759  28.632  19.187  0.1714 -0.0826  0.1074
61433W        W17674  33.189  22.326  21.551  0.1059 -0.1086 -0.2281
61434W        W17675  30.813   5.199  25.256 -0.1837  0.0280  0.0866
61435W        W17676  11.348   3.988   0.151 -0.0738 -0.0244  0.2734
61436W        W17677  19.071  11.457  21.887 -0.0494  0.0528  0.3349
61437W        W17678  24.471  15.454   9.016  0.2951  0.0640  0.0915
61438W        W17679  35.158   1.874  16.339  0.1255  0.1638  0.1021
61439W        W17680  16.740  34.914  20.321  0.4097 -0.2733 -0.0208
61440W        W17681  29.166   8.640  25.199  0.0668 -0.2346 -0.0833
61441W        W17682   3.464  22.604  18.290 -0.1632 -0.4641 -0.1585
61442W        W17683  27.072   8.111  15.752 -0.0367  0.0434 -0.2335
61443W        W17684  30.807  14.434  25.659 -0.2150  0.0539  0.0975
61444W        W17685  20.813  12.572   2.223 -0.0640 -0.0099 -0.2949
61445W        W17686  13.135  21.308  12.585 -0.1328 -0.1491 -0.0088
61446W        W17687  32.123   5.279  25.067 -0.0035 -0.1874 -0.4099
61447W        W17688  21.243  19.535  18.726  0.0335 -0.1482 -0.0273
61448W        W17689  29.997  25.238  12.869  0.1058 -0.0441 -0.1926
61449W        W17690  24.629   4.377  17.163  0.1197  0.0345 -0.0106
61450W        W17691  11.025  14.253  19.985 -0.2526 -0.0678  0.0234
61451W        W17692  28.741  30.909   3.716 -0.1473 -0.3253 -0.2090
61452W        W17693  22.208  16.613  16.262 -0.0709 -0.1410 -0.2140
61453W        W17694  15.070  22.964  14.354 -0.0558 -0.0795 -0.1027
61454W        W17695   3.753  32.287  24.634  0.1822 -0.0461  0.1820
61455W        W17696  10.826  25.345   6.727  0.0481  0.0588  0.1560
61456W        W17697  34.533  34.075  22.119  0.0710 -0.1320  0.0721
61457W        W17698   2.052  27.842   8.413 -0.3011 -0.2164 -0.0845
61458W        W17699  13.016  10.612   3.101  0.1371  0.1218 -0.2027
61459W        W17700  25.843  17.316   0.277 -0.4355 -0.0250  0.0678
61460W        W17701   3.427  15.613  16.047  0.0293 -0.0344  0.0830
61461W        W17702  27.168  24.669  21.135 -0.3625  0.0292  0.2392
61462W        W17703  28.153   6.782  18.483 -0.1355 -0.1967 -0.0032
61463W        W17704  21.926  23.385  23.146 -0.1654 -0.1284  0.1072
61464W        W17705   9.770  24.709   0.665 -0.2373 -0.1203  0.2524
61465W        W17706  29.588  26.827  20.096 -0.1551 -0.4984 -0.1203
61466W        W17707   7.714  12.634   6.678  0.1045 -0.0448 -0.0175
61467W        W17708  29.106  29.807  26.199 -0.0160 -0.1637 -0.0058
61468W        W17709   9.035  10.237   6.472  0.0257  0.0702  0.0905
61469W        W17710  15.769  21.367  23.530  0.0766 -0.1865 -0.0885
61470W        W17711  18.156  18.457  20.251 -0.0253 -0.0744  0.0406
61471W        W17712  15.295   5.393   8.557 -0.0645 -0.0310 -0.1337
61472W        W17713  20.306  19.769  24.546 -0.2894  0.2692  0.4678
61473W        W17714  29.094  10.992  20.337  0.5574 -0.2829 -0.2393
61474W        W17715  26.918   0.647   0.609  0.2824 -0.2498  0.1935
61475W        W17716  10.169   9.089   2.872  0.1276 -0.0354 -0.0371
61476W        W17717   5.194  10.533   4.506  0.0472 -0.2554  0.0869
61477W        W17718   5.525  34.478  22.676 -0.1422 -0.1132  0.2673
61478W        W17719  33.259  16.290  19.511 -0.1904 -0.1756 -0.2732
61479W        W17720   3.640  27.923   2.840 -0.0675  0.0241 -0.2889
61480W        W17721  24.761  10.862   1.891  0.4303  0.1447  0.0049
61481W        W17722  34.307  14.176  15.461  0.1377 -0.1073 -0.0055
61482W        W17723   5.623   1.792  11.389 -0.2334  0.1542  0.0574
61483W        W17724  14.651  33.274   9.001 -0.2762 -0.4197 -0.3579
61484W        W17725  27.926  30.321   9.758  0.0452 -0.0470 -0.0826
61485W        W17726  25.636  17.065  18.577  0.1375 -0.0346  0.0249
61486W        W17727  10.375  14.946   5.015  0.1666  0.2080  0.0964
61487W        W17728   0.996  14.160  20.957 -0.0757  0.1093 -0.0080
61488W        W17729   6.601  24.859  25.603 -0.0741  0.3158 -0.1752
61489W        W17730  20.062  28.283  21.286  0.3128  0.0435 -0.0613
61490W        W17731  27.416  17.093   7.558  0.0515  0.2025 -0.0249
61491W        W17732  17.322   2.192   4.772  0.2493 -0.1173  0.0513
61492W        W17733   4.983   9.553  16.744  0.1445  0.4366 -0.1674
61493W        W17734   2.360  25.108  22.699  0.0194  0.2289  0.1684
61494W        W17735  34.406   8.021  25.958  0.2069 -0.2489  0.3059
61495W        W17736  17.565  28.488   3.059  0.1035 -0.2471  0.3230
61496W        W17737  27.404  24.346   8.913 -0.2364  0.1222 -0.1001
61497W        W17738  29.960   0.887   3.838 -0.1891  0.3578 -0.0335
61498W        W17739  16.683  30.460  10.545  0.1619  0.0139 -0.2132
61499W        W17740   1.361  25.637   1.439  0.3378  0.0490 -0.1166
61500W        W17741   2.104  11.454   1.092 -0.0924  0.0907 -0.1920
61501W        W17742   4.373   0.602   4.964  0.1797  0.1182  0.0193
61502W        W17743  12.037  34.582   4.863 -0.2808 -0.1046 -0.0543
61503W        W17744  17.804   8.411  22.662 -0.2322  0.0666 -0.3362
61504W        W17745  11.240  19.607  22.708 -0.0478 -0.0321 -0.0613
61505W        W17746  32.592   5.426   5.201  0.0163  0.0182 -0.1355
61506W        W17747   9.772  18.219  26.174  0.1698  0.2334 -0.2557
61507W        W17748  34.637  20.554   9.493  0.1259 -0.0448 -0.1189
61508W        W17749   1.353  29.534  19.326 -0.2324  0.2496 -0.0818
61509W        W17750  19.421  16.110  21.909 -0.1191 -0.2108 -0.1946
61510W        W17751  32.926   6.118  12.954 -0.1390  0.2792  0.3346
61511W        W17752  12.430  16.707  10.564  0.1355  0.1709 -0.0256
61512W        W17753   4.750  24.336  22.125  0.2127  0.0251  0.2237
61513W        W17754  34.388   0.934   3.211  0.0686 -0.0328 -0.0299
61514W        W17755   1.650   8.845  21.499  0.2201 -0.1048  0.1212
61515W        W17756   1.719   0.247  25.367  0.2982 -0.0007  0.0396
61516W        W17757  25.847  19.870  11.838 -0.0192 -0.0125 -0.1027
61517W        W17758  27.848  14.574  13.919  0.0370  0.1076  0.0582
61518W        W17759  20.000  32.784   5.034 -0.0644 -0.1806  0.1094
61519W        W17760   5.637  31.446  11.062  0.0169 -0.1591  0.2650
61520W        W17761  24.437   3.422  14.262 -0.1652  0.1131 -0.0702
61521W        W17762  35.355   0.201  23.013  0.0962  0.0371  0.2315
61522W        W17763  21.976  10.197  19.550  0.0274  0.0814  0.0737
61523W        W17764   8.862  34.993   6.374  0.0388 -0.0073 -0.1170
61524W        W17765   2.962   2.498   7.594 -0.0393  0.1790  0.1113
61525W        W17766  18.240  33.841   2.992  0.1395  0.2951 -0.0769
61526W        W17767  13.497  15.968  11.485  0.3124 -0.0720 -0.1567
61527W        W17768  28.950   0.019  12.007 -0.0379 -0.1595  0.3365
61528W        W17769   2.588  19.724   0.173 -0.0720  0.0182  0.2782
61529W        W17770  26.193  24.130  24.821  0.0914 -0.0068 -0.2101
61530W        W17771  33.088  30.537   5.629 -0.3902  0.0647 -0.1333
61531W        W17772  32.145   8.213  14.771  0.0384  0.0076  0.0223
61532W        W17773  34.556   6.964  22.633 -0.0708 -0.1893  0.1017
61533W        W17774  16.480  10.418   1.046 -0.1903 -0.2981  0.1424
61534W        W17775  14.711  11.676  25.242  0.1075 -0.1676  0.0333
61535W        W17776  30.818  28.868  19.443 -0.2145 -0.0892 -0.0565
61536W        W17777   8.159  25.335  25.113 -0.0090 -0.0168 -0.2477
61537W        W17778  21.195  34.309  19.677 -0.0660  0.0647 -0.1456
61538W        W17779  22.737   1.641   6.617 -0.1173 -0.0912 -0.0666
61539W        W17780  22.903  31.154   1.739  0.0542  0.0840  0.1263
61540W        W17781  13.038  19.468  11.754  0.2763  0.1036 -0.1877
61541W        W17782  12.874   6.235  23.495 -0.1873  0.1674 -0.0220
61542W        W17783   2.815  13.967   1.443  0.1748 -0.0788 -0.1663
61543W        W17784  21.488   6.173  20.256  0.0639  0.3525 -0.0694
61544W        W17785  14.201  11.718   0.351 -0.1473  0.2315 -0.3792
61545W        W17786  28.782  31.655  17.177 -0.2392  0.3861  0.2692
61546W        W17787  33.845  33.140  15.225  0.4709  0.3440 -0.0003
61547W        W17788  15.394   7.255  25.450 -0.1230 -0.0183  0.2638
61548W        W17789  28.314   1.372  14.898  0.1254  0.6237  0.1104
61549W        W17790  34.273  13.742  12.150 -0.0384  0.0097  0.1262
61550W        W17791  17.751  19.905  20.791 -0.0414 -0.0439  0.1910
61551W        W17792  28.995  25.548  25.602  0.0416 -0.3524 -0.1479
61552W        W17793  18.649  27.220  20.081 -0.1223 -0.0167 -0.1817
61553W        W17794  15.709  14.594  12.236 -0.3941  0.0184 -0.0949
61554W        W17795   7.354  20.424   4.831  0.0525 -0.2016 -0.0122
61555W        W17796   1.029  21.106   1.262  0.0957  0.1212 -0.0821
61556W        W17797   4.114  22.557   0.075 -0.2007  0.0913 -0.0173
61557W        W17798   9.869   6.813   1.141 -0.0886 -0.2820  0.2290
61558W        W17799  18.115  10.134   0.775  0.1265  0.1098  0.3598
61559W        W17800  14.776  17.173   0.899 -0.0864 -0.2156 -0.3181
61560W        W17801  34.190   7.152   2.162  0.2355 -0.0163 -0.1710
61561W        W17802  16.488  31.798   3.364 -0.1942 -0.2225 -0.0628
61562W        W17803  17.433  15.055   3.039  0.0625 -0.2338 -0.1946
61563W        W17804   9.707  13.837   9.531 -0.3697 -0.1311 -0.1781
61564W        W17805  21.475  25.192  22.513 -0.3084 -0.0877 -0.1092
61565W        W17806   8.509  24.081  23.332 -0.0696  0.1541  0.0252
61566W        W17807  28.826  25.577  22.776  0.0418  0.0348 -0.0731
61567W        W17808   8.729   8.346   5.774  0.1767 -0.1156 -0.0062
61568W        W17809  34.550   6.002  23.372 -0.0458 -0.1508 -0.1571
61569W        W17810  31.710   3.802  15.913  0.2594 -0.0791  0.3556
61570W        W17811  31.324  10.543  19.434  0.1126 -0.1136  0.1092
61571W        W17812  25.264  30.501  17.954 -0.0792  0.0225  0.3082
61572W        W17813   3.837   7.835   0.908 -0.0786  0.0402  0.2336
61573W        W17814  17.222  10.453  22.246  0.1339 -0.1643  0.1231
61574W        W17815   8.425  25.306  13.268 -0.1516  0.0386 -0.0363
61575W        W17816  12.664  11.597   4.891  0.1638 -0.2971 -0.0006
61576W        W17817  22.041  26.976   1.686 -0.0921  0.2163 -0.0188
61577W        W17818  32.379   9.276  17.938  0.2422  0.0877 -0.0458
61578W        W17819  31.085  13.772  17.935  0.0872  0.2508 -0.0873
61579W        W17820  29.009  15.224  10.607  0.2591 -0.1117 -0.4701
61580W        W17821   5.694  30.587  23.235  0.1040 -0.2354 -0.1051
61581W        W17822  31.772  31.204  12.485 -0.2639 -0.1827  0.0729
61582W        W17823  13.156  32.154  12.026  0.0342 -0.1701  0.0312
61583W        W17824  16.922   2.430  18.592  0.2183  0.0907  0.0724
61584W        W17825   8.920  25.593   4.972 -0.0029 -0.2168 -0.2446
61585W        W17826  17.243  16.369  23.262 -0.0591 -0.2924  0.1496
61586W        W17827   0.391  11.054  18.696  0.1098  0.1244  0.1936
61587W        W17828   8.967   7.467   3.442  0.2578  0.0201  0.1695
61588W        W17829  31.712  12.911  15.594  0.0222 -0.0142 -0.0025
61589W        W17830  12.637  16.168   9.384  0.0925 -0.1693  0.1369
61590W        W17831  30.980   5.210  21.153 -0.1379 -0.0373  0.0204
61591W        W17832  23.961  19.995  24.803  0.1106 -0.0284 -0.0306
61592W        W17833  11.700  28.454   5.397  0.0535 -0.0037 -0.1074
61593W        W17834   9.156  13.831  20.076  0.3066 -0.0014 -0.0152
61594W        W17835  17.670  33.837  18.618 -0.3153  0.3632  0.2557
61595W        W17836  10.468  33.902   5.428  0.0815 -0.2638  0.0746
61596W        W17837  20.599  20.130   3.734 -0.0381  0.1893 -0.1885
61597W        W17838  20.484  30.690  25.419 -0.0595 -0.1416  0.1705
61598W        W17839  30.345  24.726  20.344 -0.2952 -0.1893  0.0237
61599W        W17840  11.034  29.436   2.078 -0.0446 -0.1487 -0.1458
61600W        W17841  24.020  18.754  26.220 -0.0765 -0.2559  0.4728
61601W        W17842  25.924   0.087  12.277  0.0909 -0.2590  0.0371
61602W        W17843  21.605  10.495  16.524 -0.1955  0.2599  0.0342
61603W        W17844   0.242   1.422  20.921  0.1765  0.2484  0.2439
61604W        W17845  20.237   5.058  21.519  0.2242 -0.2049  0.1324
61605W        W17846  18.997   6.596   9.733  0.1137  0.0102  0.1978
61606W        W17847  12.120   0.701   5.299  0.2791  0.0368  0.1720
61607W        W17848   6.073  13.893  10.162 -0.3117  0.0531 -0.0233
61608W        W17849  25.786  23.140  23.149  0.0928 -0.0340  0.0121
61609W        W17850  25.783   5.218  11.387  0.2180  0.1387 -0.2755
61610W        W17851   9.209   9.993  21.055 -0.2677  0.2272 -0.5814
61611W        W17852  26.319   7.026  16.462 -0.0230 -0.1576 -0.1670
61612W        W17853   0.274  26.389  25.577  0.1545 -0.0289 -0.3243
61613W        W17854  24.305   5.588   2.624 -0.1925  0.2900  0.2750
61614W        W17855  21.075  35.221  16.598  0.1312 -0.1938  0.2689
61615W        W17856  33.970  29.697   6.364 -0.0832 -0.2894  0.0228
61616W        W17857  14.067   5.625   0.504  0.0672 -0.0850  0.1894
61617W        W17858   8.007  10.713  24.648 -0.0930 -0.0376  0.4668
61618W        W17859  33.119   8.916  15.370 -0.0520  0.0437  0.3941
61619W        W17860  26.173  28.470  10.995  0.0138  0.2771 -0.0370
61620W        W17861  21.674  23.731  18.788 -0.0139 -0.0793 -0.0831
61621W        W17862  13.224  29.101  23.950  0.1245  0.1099 -0.2649
61622W        W17863   3.435  16.771   3.241  0.3805  0.0629 -0.2654
61623W        W17864   2.518  33.725   7.286  0.1603  0.0710 -0.2070
61624W        W17865  11.036  13.541  25.647  0.0630  0.0516  0.2389
61625W        W17866  29.077  28.253  10.388  0.1427  0.1183 -0.0323
61626W        W17867  32.059  20.877   8.965  0.3785  0.1020  0.0682
61627W        W17868  34.928   1.961  19.588  0.3308 -0.0648  0.1101
61628W        W17869  30.710   0.856   0.332 -0.1983 -0.1770  0.1118
61629W        W17870  19.933  31.717   1.979  0.0122  0.0514 -0.0961
61630W        W17871   4.457   4.178   0.514  0.0656  0.0052 -0.1665
61631W        W17872   7.282  30.702   2.654  0.2699 -0.0704  0.0468
61632W        W17873  13.921   0.158   7.574 -0.0521 -0.1539  0.2645
61633W        W17874   6.963   2.437  25.848  0.1528 -0.0494  0.0240
61634W        W17875  31.745  29.551  14.173  0.2123 -0.3217 -0.3504
61635W        W17876  28.834   4.922   3.381 -0.1903 -0.3368  0.0166
61636W        W17877  28.899   4.949   2.793  0.0394 -0.1255  0.1184
61637W        W17878   9.157   2.531   0.511 -0.0620  0.1290 -0.2996
61638W        W17879   2.392   1.765   0.625 -0.1092  0.1457  0.3221
61639W        W17880   7.517  27.600   6.627 -0.0470 -0.0292 -0.1080
61640W        W17881  26.900   3.518  10.781 -0.2073  0.1387  0.0390
61641W        W17882  31.426  27.418  18.312 -0.0342  0.0959 -0.2100
61642W        W17883  14.454   1.900  17.432  0.1763  0.1628  0.2378
61643W        W17884  21.595  11.123  23.765  0.2062 -0.1172 -0.1732
61644W        W17885   2.180  17.658  20.419 -0.1510 -0.1043 -0.1061
61645W        W17886  32.614  15.898  15.998 -0.0759 -0.0067 -0.1572
61646W        W17887  32.160   0.231   5.126  0.0640  0.1930 -0.2920
61647W        W17888  18.290  14.942   8.126  0.1847 -0.2359  0.3802
61648W        W17889  28.529  32.787  26.228  0.0087 -0.0771  0.1153
61649W        W17890   7.468  30.611  15.457 -0.3163 -0.0253 -0.0395
61650W        W17891   8.227   1.065   3.801 -0.0195 -0.2302 -0.0145
61651W        W17892  34.848   1.972  22.638 -0.1719 -0.2890  0.0553
61652W        W17893  10.610  11.763  12.411 -0.2145 -0.1622  0.0952
61653W        W17894  19.994  26.697  24.099  0.1427  0.1025  0.1631
61654W        W17895  11.383  25.225  13.035  0.1200 -0.3689 -0.0211
61655W        W17896  17.783  33.355  22.888 -0.1296  0.1302  0.0555
61656W        W17897  14.770   1.366  18.086 -0.1506  0.0198  0.1233
61657W        W17898   2.570  23.274   1.264  0.2483 -0.1744  0.0471
61658W        W17899  30.422  17.295  15.569  0.1607  0.1339  0.1762
61659W        W17900  31.343  18.658  22.705  0.1063 -0.0840  0.0381
61660W        W17901  12.245  33.680   5.656 -0.0612 -0.0667  0.2398
61661W        W17902  17.303   7.303   1.365 -0.3060 -0.2356  0.2146
61662W        W17903  28.778  35.006  22.892 -0.0607  0.1270 -0.2683
61663W        W17904  32.301  31.832   6.338 -0.6200  0.0513  0.2132
61664W        W17905  11.342  32.609  25.886 -0.2259 -0.2386  0.1101
61665W        W17906   3.022  35.136   8.389 -0.2263 -0.0574  0.4021
61666W        W17907  29.560  11.374  21.299  0.1754  0.1751 -0.0513
61667W        W17908   2.818  21.561  15.658  0.1285 -0.2841  0.2332
61668W        W17909  13.496  28.402   0.714 -0.1663 -0.0713 -0.0498
61669W        W17910   2.091   8.266  15.807  0.2627 -0.1973  0.2925
61670W        W17911  15.985  16.459   2.932 -0.2028  0.0921  0.0362
61671W        W17912  32.947  21.191  12.040 -0.1785  0.0591 -0.0735
61672W        W17913  13.015  30.722   3.783  0.1410 -0.5193 -0.0813
61673W        W17914  15.116  26.867  12.289  0.1626 -0.3635  0.2752
61674W        W17915  20.484  17.367   1.653  0.2232  0.2044  0.1472
61675W        W17916   4.661  19.049   3.223 -0.0523 -0.0586 -0.3048
61676W        W17917   4.939  27.479   4.493  0.2966 -0.0974  0.2414
61677W        W17918  35.222  33.464  16.172  0.0831 -0.1490  0.1804
61678W        W17919  12.704  33.817  24.829 -0.1398  0.0048 -0.1457
61679W        W17920  11.819  19.933  14.689  0.1424  0.2141  0.0598
61680W        W17921   9.812  20.768   4.098 -0.0092 -0.0462 -0.0810
61681W        W17922  11.117  18.987   8.386 -0.1013  0.0423  0.1560
61682W        W17923  22.565   3.499   6.214  0.1288 -0.0097  0.1322
61683W        W17924  33.077  34.161   0.943 -0.0476  0.1295 -0.0498
61684W        W17925   4.565  13.277   0.200  0.2686  0.4257  0.1102
61685W        W17926   3.698   1.705   0.339  0.0807 -0.0634 -0.0408
61686W        W17927  28.170  31.835  16.517  0.2864  0.2140 -0.1715
61687W        W17928   4.306  25.744   2.824  0.0957  0.2886  0.0746
61688W        W17929  14.824  21.570  14.768 -0.2705  0.1454 -0.0059
61689W        W17930  21.305  24.654  23.459  0.0840 -0.5958  0.1678
61690W        W17931  23.737   5.417  18.765  0.1736 -0.3022  0.2748
61691W        W17932  23.387  20.602  18.303 -0.0763  0.2417 -0.0478
61692W        W17933  30.406  24.238   0.052 -0.2033  0.0843 -0.0414
61693W        W17934   9.485  23.991   2.757 -0.0337 -0.3186 -0.0436
61694W        W17935  34.062  30.378   7.473  0.2219  0.1191 -0.1021
61695W        W17936  22.545  18.733  14.902 -0.2343 -0.0904 -0.3852
61696W        W17937  31.302  21.201   9.684 -0.2286 -0.2672  0.0497
61697W        W17938  13.007  10.765  12.464 -0.2346  0.2005  0.2255
61698W        W17939  33.983   7.868   2.405 -0.0906 -0.1369 -0.0654
61699W        W17940   5.386  14.328  21.138 -0.3793 -0.2864  0.2090
61700W        W17941  33.954   6.009  17.943  0.2949 -0.2100  0.0516
61701W        W17942  16.191   2.734  24.291 -0.3669  0.0292 -0.0913
61702W        W17943  25.057  21.703  11.680 -0.1143 -0.0456  0.2011
61703W        W17944  30.093  21.030  24.850  0.6962  0.2218  0.0170
61704W        W17945  27.241  12.647  15.696 -0.1210  0.0295 -0.2397
61705W        W17946  30.663  10.288  23.157 -0.0568 -0.2652 -0.2592
61706W        W17947  26.336  33.312  20.576  0.1058  0.0739  0.2522
61707W        W17948   7.792  10.343   0.636 -0.1244  0.0473 -0.0350
61708W        W17949  26.565  18.840  22.753  0.0079  0.3978  0.3709
61709W        W17950   3.302  23.513  19.352  0.2708 -0.0105 -0.3987
61710W        W17951  30.466  34.761  12.050  0.1216  0.3519 -0.0301
61711W        W17952  27.634  33.832  20.087 -0.0236  0.3058 -0.1370
61712W        W17953  20.719  27.569   1.255  0.2256 -0.0598  0.0988
61713W        W17954  20.926  23.357   6.084  0.1510  0.0750 -0.0819
61714W        W17955   2.872   8.390  25.884  0.1367 -0.1653 -0.0885
61715W        W17956  27.990  14.072  20.153 -0.0861  0.0177  0.0591
61716W        W17957   6.567  25.441   7.654  0.0232 -0.2212  0.3778
61717W        W17958  17.374  32.709   9.395 -0.3195  0.1074  0.1202
61718W        W17959  34.446  16.654  25.580  0.4664 -0.1852 -0.2922
61719W        W17960   4.307  15.548   7.559  0.0513  0.1345 -0.1222
61720W        W17961   9.995  11.423   1.599  0.0758 -0.1103 -0.2558
61721W        W17962  24.488   9.330  24.378 -0.1107  0.0844 -0.2186
61722W        W17963  29.593  10.142  20.072 -0.1387  0.1401  0.1561
61723W        W17964  15.630  15.043  10.580 -0.0243 -0.2717  0.0148
61724W        W17965  33.948  33.992   2.297 -0.0087 -0.1404  0.1523
61725W        W17966   4.083  29.142  25.431 -0.0718 -0.1337  0.1035
61726W        W17967  14.254  28.226   0.931 -0.2365 -0.0782  0.1220
61727W        W17968  14.110  31.196   0.863 -0.0259 -0.0953 -0.0232
61728W        W17969  24.172  28.897  16.903 -0.2150 -0.4478 -0.2257
61729W        W17970   8.022  16.625   5.481 -0.0417 -0.1715  0.1281
61730W        W17971  15.325  14.760  26.156  0.1148 -0.0756 -0.0239
61731W        W17972  24.391  25.817  16.331 -0.1124 -0.2202  0.1948
61732W        W17973   9.369  12.942  10.628  0.3278  0.1274 -0.0096
61733W        W17974  29.592   9.792  14.384 -0.0696  0.0760  0.2607
61734W        W17975  21.367  14.466  22.177 -0.1740  0.1533  0.1260
61735W        W17976   0.103  27.832   2.268  0.1373 -0.1504 -0.1956
61736W        W17977   6.296  14.040   7.459 -0.1344  0.2380 -0.0741
61737W        W17978   1.871  32.841  16.980  0.0758  0.0819  0.1222
61738W        W17979   7.440  10.241   8.203  0.0362  0.2128  0.3282
61739W        W17980  26.213  15.691  21.197 -0.1929 -0.0692  0.0863
61740W        W17981  25.143  13.412  21.249  0.0158 -0.2467 -0.2611
61741W        W17982   4.636  22.395   0.292  0.2036 -0.1074 -0.2961
61742W        W17983  30.438   4.842  17.982  0.3685  0.0397  0.1820
61743W        W17984  12.268  15.725  10.318  0.0545  0.2775  0.1913
61744W        W17985   4.029  14.848   3.010 -0.1788 -0.1674  0.0449
61745W        W17986  19.738   6.346  16.487  0.2482  0.2243 -0.1879
61746W        W17987  31.555  19.326  25.656  0.0659 -0.0124 -0.2232
61747W        W17988  25.512   7.641  11.602  0.1750 -0.0387 -0.1056
61748W        W17989  31.538  11.798  14.661 -0.2245  0.1145  0.0995
61749W        W17990  19.450  27.743  25.242 -0.1242  0.0104 -0.2476
61750W        W17991  25.398   2.124   0.991 -0.1085  0.1396 -0.2229
61751W        W17992  21.431  22.320  22.253 -0.3101 -0.0812 -0.0570
61752W        W17993   8.211   2.125  12.663  0.0814 -0.0888  0.0241
61753W        W17994  19.283   1.180  17.288 -0.0776 -0.0497 -0.0657
61754W        W17995  18.082   4.924   9.068 -0.2408 -0.4980 -0.3077
61755W        W17996  12.524  15.530  23.684 -0.1310 -0.1599 -0.1333
61756W        W17997   6.178  30.994  25.845 -0.1045  0.0852  0.1314
61757W        W17998  18.900   5.585  17.675  0.1619  0.1115  0.2246
61758W        W17999  19.428  20.306   6.778  0.2338  0.0185  0.1351
61759W        W18000   2.803  26.634   7.508  0.1350 -0.2290  0.1148
61760W        W18001   0.206  30.775  15.603 -0.2953 -0.0734  0.0107
61761W        W18002  15.418   1.221   3.728  0.0460  0.5318 -0.0775
61762W        W18003  12.988   5.263  25.806 -0.0688 -0.0538 -0.0320
61763W        W18004   3.565   3.103   8.599 -0.0002 -0.0733  0.1702
61764W        W18005  16.091  18.386   3.802  0.1493  0.0870 -0.2717
61765W        W18006   0.944  22.577  19.773  0.2028 -0.1839 -0.4403
61766W        W18007   3.882  28.430  10.381  0.1070  0.2878 -0.3578
61767W        W18008  18.516  17.367  24.695 -0.2561  0.0279 -0.2329
61768W        W18009   0.747   3.895  18.471  0.1988  0.1664 -0.2892
61769W        W18010   0.268   3.956  24.361 -0.2072 -0.1146  0.0492
61770W        W18011  26.459  31.898  23.794 -0.0789 -0.0456  0.2079
61771W        W18012  30.119  20.987   5.174 -0.0426 -0.2292  0.1711
61772W        W18013   2.691  34.620   5.142  0.0844 -0.5284  0.1371
61773W        W18014   1.304  34.430   7.321  0.3207  0.2289 -0.0620
61774W        W18015  11.665   8.906  14.028 -0.0253 -0.1817 -0.1858
61775W        W18016   1.546   5.722   6.275  0.2982  0.1901  0.0207
61776W        W18017  14.600  21.700  15.402  0.0496 -0.5606 -0.3165
61777W        W18018  35.203  11.438  18.186  0.0510 -0.0674  0.0221
61778W        W18019  11.209   5.818  11.123 -0.2151 -0.2408  0.1555
61779W        W18020  30.781  32.652  24.381  0.1494 -0.2448  0.0051
61780W        W18021  11.008   9.196   0.867 -0.1910  0.0427 -0.1885
61781W        W18022  34.889  26.680   0.541  0.1651  0.3839  0.2211
61782W        W18023   7.375  30.788  14.140  0.1301 -0.0272  0.0975
61783W        W18024  17.302  11.325  23.874  0.4088 -0.0414 -0.0046
61784W        W18025  35.218  24.171  22.451 -0.1721 -0.1535 -0.3071
61785W        W18026   9.646  20.166  21.746 -0.2816 -0.0363 -0.2881
61786W        W18027  23.293  33.108  22.394 -0.1698 -0.0185  0.1501
61787W        W18028  21.842  30.523  20.115 -0.2645  0.2520 -0.0074
61788W        W18029   4.956   5.932   5.444  0.3862  0.3178  0.3512
61789W        W18030  10.598   5.182  21.425 -0.3151 -0.1682 -0.5911
61790W        W18031  14.703   5.691   6.058 -0.4613  0.1481 -0.0944
61791W        W18032  17.568  11.541   4.134  0.1626 -0.0884 -0.0480
61792W        W18033   9.637  12.361  23.136 -0.3366  0.2764  0.2309
61793W        W18034   3.228  27.674   9.720 -0.0746 -0.2961  0.0206
61794W        W18035  24.235  24.882  21.963  0.0350 -0.1752  0.1715
61795W        W18036   0.161  17.388   8.389 -0.2471 -0.0002  0.1203
61796W        W18037   8.951  27.490   3.913  0.0638  0.0541  0.0155
61797W        W18038  29.816  19.711   8.683  0.0974 -0.2690 -0.1324
61798W        W18039  18.143   3.733  23.695 -0.4099 -0.3591 -0.2649
61799W        W18040   4.055   1.140  18.473 -0.0397 -0.1290  0.0005
61800W        W18041   5.504   3.748   8.211 -0.4069  0.0851  0.0927
61801W        W18042   7.944   2.129   5.520  0.0918  0.2692  0.0828
61802W        W18043  30.089  21.632  26.025  0.3676 -0.0183  0.2307
61803W        W18044  30.048   6.823  11.808 -0.0973 -0.1049 -0.1525
61804W        W18045   8.642   9.034  13.352  0.4210  0.0540  0.0965
61805W        W18046   8.354  26.207  22.524  0.1129 -0.0972  0.0469
61806W        W18047  21.689   8.727   8.922  0.2322  0.0843 -0.2316
61807W        W18048   7.695   0.628  13.907 -0.0838  0.1701  0.3331
61808W        W18049  23.713  31.691  24.962  0.0122  0.0891 -0.1365
61809W        W18050  10.834   0.244   5.954 -0.3959 -0.2666  0.0014
61810W        W18051  26.496  30.714   0.825 -0.0170  0.0760 -0.0468
61811W        W18052   5.547   1.517  23.898  0.1125 -0.2348  0.0840
61812W        W18053   8.354  10.979  13.618  0.0018 -0.0061  0.0277
61813W        W18054  12.438   0.589  11.793  0.2640  0.2474  0.3160
61814W        W18055   2.465  19.346   1.264  0.0709  0.0744  0.3109
61815W        W18056  27.591  19.855   8.665 -0.0425 -0.3095  0.2621
61816W        W18057  21.157  17.375  22.053  0.2256 -0.0642  0.2284
61817W        W18058  21.817  29.432   0.443  0.0957  0.1383 -0.2773
61818W        W18059   8.778  10.396   4.107  0.3090  0.0348  0.1155
61819W        W18060  31.079  31.585   6.853 -0.0184 -0.0361 -0.2619
61820W        W18061  27.217   3.156  21.233 -0.1045 -0.0633 -0.0496
61821W        W18062   6.454  15.500  24.964  0.1099 -0.3602 -0.1484
61822W        W18063  17.521  13.555   7.958 -0.0172 -0.0800 -0.2592
61823W        W18064  17.299   3.339  10.441  0.0707  0.0787  0.0628
61824W        W18065   9.356  20.601  11.068  0.0202 -0.0003 -0.0375
61825W        W18066  16.393   4.025  23.288  0.0575 -0.2392  0.0678
61826W        W18067  30.693  22.768  25.951 -0.2207  0.0411  0.2348
61827W        W18068  17.939  14.389   3.456  0.2889  0.1931  0.0826
61828W        W18069  32.511  32.955  17.018  0.0762  0.0195 -0.1042
61829W        W18070  32.438   7.246  10.274 -0.0359 -0.1887  0.0261
61830W        W18071  11.963  19.131  15.126  0.0194 -0.4046  0.0731
61831W        W18072  27.632   8.910  25.754 -0.0243  0.3713  0.0414
61832W        W18073  32.830   1.809  16.812  0.1655 -0.3160 -0.1432
61833W        W18074  23.689  30.663  24.729 -0.1206 -0.3089  0.0295
61834W        W18075  17.359  24.917  10.400 -0.0840  0.1746  0.4759
61835W        W18076  22.599  30.076  13.333 -0.1938 -0.0944 -0.0044
61836W        W18077  28.287  25.817  12.630  0.1121 -0.0248  0.1229
61837W        W18078  32.925  21.239  12.667  0.0232 -0.1072  0.0502
61838W        W18079   7.391  12.291   1.881  0.1278  0.0507  0.1329
61839W        W18080   7.660  30.003  11.352 -0.0814  0.1616 -0.3004
61840W        W18081  26.146  27.242  24.047  0.1906 -0.0590 -0.2164
61841W        W18082  25.511  23.341  14.382 -0.0659  0.2201 -0.0719
61842W        W18083  23.107  24.994   2.158 -0.0358  0.1423 -0.1112
61843W        W18084  12.184  12.007  11.068  0.3297  0.2261  0.0937
61844W        W18085  30.558  17.566  11.383  0.1579 -0.1728 -0.2413
61845W        W18086  16.259  13.445  20.330  0.2814 -0.1499 -0.1403
61846W        W18087  11.745  22.159  18.236  0.0912  0.3527 -0.0368
61847W        W18088  11.109   3.468   1.588 -0.0903  0.2436  0.0228
61848W        W18089  13.587  16.274  11.982  0.1450 -0.0281  0.2461
61849W        W18090  29.504  31.357   3.529  0.2405 -0.3174  0.2540
61850W        W18091   8.337  15.816   9.517 -0.3071  0.2409 -0.1442
61851W        W18092  13.445  11.442  24.074 -0.1708 -0.1022  0.0517
61852W        W18093  33.205   1.785  21.414  0.2717 -0.0658  0.0480
61853W        W18094  34.205  11.087  23.969  0.1363  0.0388  0.1614
61854W        W18095  23.122   9.517   2.074  0.2105  0.1639 -0.2933
61855W        W18096  30.033  26.605  24.058 -0.1558 -0.0482 -0.3312
61856W        W18097  24.709   8.700  25.062  0.1495 -0.0559  0.1237
61857W        W18098  21.414  16.122  24.652  0.0533  0.2204  0.1703
61858W        W18099  12.317  27.648  12.078 -0.1917  0.1811 -0.3304
61859W        W18100  24.535  20.247  24.978  0.0928  0.0867  0.0124
61860W        W18101  31.508  26.829  10.659  0.2154 -0.2834  0.1418
61861W        W18102  14.032  29.895   5.648 -0.0401 -0.1062  0.5387
61862W        W18103   0.930  15.054  20.152  0.1127  0.0822  0.1826
61863W        W18104  26.271  18.260  20.642  0.0041  0.0699  0.0595
61864W        W18105   9.459   7.560   0.815 -0.1427 -0.0464 -0.0463
61865W        W18106   4.773   8.895   4.950 -0.0864  0.2271 -0.0235
61866W        W18107  24.659  34.416  14.404  0.3277  0.0808 -0.0696
61867W        W18108  28.017  22.574  19.823  0.2590 -0.2478 -0.0818
61868W        W18109  26.661  10.724   8.077  0.3156 -0.0153  0.0706
61869W        W18110  17.653   7.364  26.053 -0.1688 -0.2275 -0.0938
61870W        W18111  29.870  29.028  26.109  0.0729 -0.2497  0.0630
61871W        W18112  14.450  29.283   1.267  0.0043  0.2892  0.1285
61872W        W18113  30.375   9.806  10.535 -0.0706 -0.1802  0.0113
61873W        W18114  33.851  25.145   1.020  0.2088  0.2115  0.1434
61874W        W18115  11.636  28.126  24.884  0.1853 -0.0044 -0.1458
61875W        W18116  18.344   7.592   2.732 -0.1275  0.0726 -0.0365
61876W        W18117  34.495   8.241   4.180 -0.0406  0.2307 -0.1167
61877W        W18118  17.132  29.314   4.023  0.0758 -0.0802 -0.0077
61878W        W18119   4.006  15.345  25.923  0.2543  0.3018  0.0493
61879W        W18120  12.983  21.065  23.450  0.2671 -0.2466 -0.3423
61880W        W18121  13.949  28.851   7.522 -0.0793 -0.1057  0.3486
61881W        W18122  33.480  29.132  23.421 -0.0630 -0.1256 -0.0611
61882W        W18123  20.048   5.452   1.417 -0.0540  0.2052 -0.3008
61883W        W18124  27.774   1.730  14.192  0.2502 -0.0600  0.0758
61884W        W18125  10.066   7.008   2.449 -0.0127 -0.0706 -0.2643
61885W        W18126  13.699  32.250  11.940  0.4331 -0.1360 -0.4107
61886W        W18127   7.668  16.950   8.672 -0.0282 -0.0843  0.1014
61887W        W18128  35.302  26.885  25.644  0.1596 -0.3136 -0.1355
61888W        W18129  30.964   4.160  16.572  0.0210 -0.4678 -0.0336
61889W        W18130   2.194   9.364  20.149  0.3388  0.1663 -0.3232
61890W        W18131  17.124  11.883   9.360 -0.0308 -0.0181 -0.1207
61891W        W18132  26.412  31.968  13.183  0.1694  0.2021 -0.1461
61892W        W18133  23.842  12.996  16.824 -0.0767 -0.1771 -0.1551
61893W        W18134  13.595  14.630   5.932  0.2993 -0.3280  0.1133
61894W        W18135  23.234  30.566  14.414 -0.2062  0.0292  0.0564
61895W        W18136  24.810  26.232  24.307  0.0085  0.0208  0.3057
61896W        W18137   9.857  21.545   5.355  0.0273  0.0467  0.0470
61897W        W18138   6.165  34.481  10.698 -0.2120 -0.0057  0.0015
61898W        W18139  12.198  30.105   6.419 -0.1253 -0.0324 -0.2218
61899W        W18140  28.702  13.608   9.697 -0.1166  0.2951 -0.2453
61900W        W18141  23.284   6.650   0.243  0.1208 -0.0272 -0.0794
61901W        W18142  31.374  11.338  14.493  0.1310  0.0925 -0.0044
61902W        W18143   4.430   2.556  18.412 -0.2492  0.1070  0.2105
61903W        W18144  24.747  15.859  10.219  0.1381  0.2608 -0.0037
61904W        W18145  19.770   1.165  17.859 -0.2317  0.1514 -0.4359
61905W        W18146   1.315  25.893  17.491 -0.3006 -0.2777 -0.1725
61906W        W18147  28.544   8.871  10.457  0.1922  0.5011  0.1118
61907W        W18148  23.551  19.539  16.793  0.2636 -0.1212  0.0187
61908W        W18149   3.116  30.859  22.790  0.0352  0.1180  0.0136
61909W        W18150   1.095   6.856  14.289  0.1969  0.4924 -0.0740
61910W        W18151  32.097  24.270  25.128 -0.0551  0.0756  0.3115
61911W        W18152  30.662   2.103  23.062 -0.0251 -0.3590 -0.3106
61912W        W18153  33.818  19.778  24.858 -0.1607 -0.3421 -0.0300
61913W        W18154  20.853  11.089  17.273  0.0982  0.1411  0.0101
61914W        W18155  23.205  22.913  18.994 -0.0525  0.3563  0.1629
61915W        W18156  20.779   4.641  20.214  0.0100 -0.1373  0.0926
61916W        W18157  31.402  24.281  24.498  0.2452 -0.2957  0.0131
61917W        W18158   2.878   0.018   5.495 -0.1756 -0.2780 -0.3909
61918W        W18159  10.488  28.902   2.728 -0.2224 -0.3241  0.3056
61919W        W18160  31.054  33.847  25.859  0.2504  0.0331 -0.3971
61920W        W18161  20.175  16.442  23.243  0.0817 -0.1472  0.3693
61921W        W18162  23.561  20.454  14.628  0.1998 -0.0404  0.2819
61922W        W18163  17.135   8.023   6.216 -0.0391  0.4525 -0.0186
61923W        W18164  16.832  26.798  22.403  0.0684 -0.0356 -0.0429
61924W        W18165   2.890  18.973  17.657 -0.1822  0.1253 -0.1536
61925W        W18166  25.927  33.842  21.933  0.1935 -0.2868 -0.1585
61926W        W18167  15.164  16.033   3.038  0.0394  0.2926  0.2077
61927W        W18168   7.038   4.743  19.269  0.0087  0.0323 -0.1209
61928W        W18169  22.458   6.826  24.879 -0.2657  0.1992 -0.3074
61929W        W18170  13.741  13.273   9.016 -0.0232 -0.3187 -0.1988
61930W        W18171  17.723  19.451   6.350  0.1017  0.0885  0.0418
61931W        W18172  24.210   6.298  19.139  0.0960 -0.0407 -0.1028
61932W        W18173   8.703  24.101  22.887  0.2853  0.1087  0.1783
61933W        W18174  30.761  20.171  10.548  0.1794  0.1369 -0.0225
61934W        W18175  24.198  13.654  22.379  0.1509  0.0856 -0.1579
61935W        W18176  18.759  27.752   7.004 -0.1043 -0.0601  0.1531
61936W        W18177  30.366   1.632  22.253 -0.1305  0.0915 -0.0786
61937W        W18178  17.006  18.355  11.160  0.0708  0.0372  0.3653
61938W        W18179  14.053  30.237   8.011 -0.0052  0.0332 -0.1766
61939W        W18180  29.218  10.338   0.394 -0.0064  0.4799 -0.0626
61940W        W18181  30.823  22.566  16.933 -0.2933 -0.1670  0.1740
61941W        W18182  35.178  32.729   5.291  0.2015 -0.1689  0.0968
61942W        W18183  19.177  19.210   9.464  0.0940 -0.1692  0.0717
61943W        W18184   9.182  12.750   2.615  0.0805  0.2666 -0.1130
61944W        W18185  21.846  26.512  22.447 -0.0985  0.2269 -0.2437
61945W        W18186  21.674  32.124  15.079 -0.1855  0.3111 -0.1326
61946W        W18187  21.696  35.346  17.773  0.2705 -0.1851 -0.3309
61947W        W18188  15.125   2.802  24.996 -0.0281 -0.0529 -0.0027
61948W        W18189  18.748  30.069   5.553  0.1065  0.1474 -0.3181
61949W        W18190  28.442  16.698  15.406 -0.2209  0.0204  0.0761
61950W        W18191  27.653  25.450  14.298 -0.1328 -0.1958 -0.0849
61951W        W18192  14.488  11.341   3.621  0.3653  0.0487 -0.0960
61952W        W18193   4.801  34.676  10.852 -0.0762 -0.3071  0.4631
61953W        W18194  32.578  17.687  26.028 -0.2934  0.0055 -0.0625
61954W        W18195   8.733  10.274   3.355  0.2983  0.1297 -0.3095
61955W        W18196  31.981  20.818  25.437 -0.1221  0.1161  0.1773
61956W        W18197  23.234  19.677  23.432  0.0167  0.1293 -0.2003
61957W        W18198  12.284  29.949  12.788  0.1155 -0.0180  0.1662
61958W        W18199  28.361  30.249  18.019 -0.0667 -0.0461  0.0322
61959W        W18200   9.792  28.508   2.053  0.2256 -0.1370 -0.0846
61960W        W18201  30.003   5.184  21.987 -0.2749 -0.3018 -0.0028
61961W        W18202  31.001  27.350  26.019  0.1355  0.2362 -0.4823
61962W        W18203   6.544  29.052  25.933  0.1578 -0.0724  0.4026
61963W        W18204  34.547   0.477  21.205  0.2208  0.2003  0.1852
61964W        W18205  16.663   3.897   7.515 -0.0562 -0.1841 -0.0801
61965W        W18206  21.690   1.896  25.698  0.0224 -0.2349 -0.0470
61966W        W18207  12.813  21.208  10.681  0.0032 -0.2223  0.1996
61967W        W18208   9.034  17.831  13.593  0.0437  0.2083 -0.0222
61968W        W18209   0.938  13.801  15.095  0.0368  0.0552  0.1079
61969W        W18210  18.749  34.363   9.629 -0.0226 -0.2120  0.0880
61970W        W18211   6.398  34.990   0.499  0.0476  0.0662  0.0250
61971W        W18212  11.032  21.161   3.284  0.1117  0.3143  0.0070
61972W        W18213   4.795  32.180   8.494 -0.0463  0.1261  0.4046
61973W        W18214  14.926  11.066  21.001 -0.0061 -0.0832 -0.2746
61974W        W18215  21.354  26.742   3.911  0.0887  0.1592  0.1466
61975W        W18216  11.554  21.010  15.684 -0.2166  0.2958  0.0494
61976W        W18217  30.336  14.324  16.481 -0.0409  0.1497  0.0549
61977W        W18218   0.769  19.009  17.105 -0.0842 -0.0217  0.1578
61978W        W18219  34.787  21.794  14.879  0.1407 -0.2719 -0.0423
61979W        W18220  12.368   2.162  11.815  0.0145  0.0117 -0.1250
61980W        W18221  30.710   5.523  13.875 -0.2660  0.1909 -0.0818
61981W        W18222  14.728  23.642   5.475  0.1521 -0.0676  0.0313
61982W        W18223  13.369  22.643   8.582  0.1373  0.0614 -0.0173
61983W        W18224  25.476  32.081   5.607 -0.0171  0.2395  0.2067
61984W        W18225   9.992  24.849   7.537  0.1078  0.1110  0.0711
61985W        W18226   1.706   6.092  19.221  0.0228 -0.0551 -0.3413
61986W        W18227  18.102  28.666   2.150  0.0103  0.0027  0.0028
61987W        W18228   5.301  15.969  26.028 -0.0196  0.3052 -0.0136
61988W        W18229   5.129  16.089   3.317 -0.0464 -0.2561 -0.0220
61989W        W18230  33.809   3.689  18.941 -0.1379  0.1243  0.0897
61990W        W18231   6.553  32.780  11.532  0.0717 -0.0367  0.4266
61991W        W18232  32.710   2.383   0.840  0.1773 -0.0256  0.4062
61992W        W18233   5.555   9.662  19.429  0.1729  0.0886  0.0542
61993W        W18234  15.550  25.942  24.150  0.1927 -0.1234 -0.1420
61994W        W18235  17.499  27.646   8.397  0.2654  0.0487 -0.2895
61995W        W18236  31.451  10.059   9.665  0.2184 -0.0847 -0.0654
61996W        W18237  32.821  25.593  11.380  0.1149  0.0848  0.1579
61997W        W18238  28.190  11.368  25.628  0.0802  0.2126 -0.1802
61998W        W18239   1.770   8.244   2.677  0.3170  0.0069 -0.2968
61999W        W18240  34.104  21.200  14.076 -0.0747  0.3009 -0.1614
62000W        W18241   8.563   8.126   6.657  0.2363  0.0640 -0.2366
62001W        W18242  14.758  24.208   5.145  0.1122 -0.0180 -0.0119
62002W        W18243  23.495  15.210  14.492  0.0410  0.1114 -0.0098
62003W        W18244  34.085  19.949  21.148 -0.1789 -0.0107 -0.2162
62004W        W18245  24.390  19.687  26.173 -0.4030 -0.1073 -0.1252
62005W        W18246  18.942  10.519  19.200 -0.3735  0.0650  0.1021
62006W        W18247   7.341   5.458   4.066  0.0079  0.2374  0.0433
62007W        W18248  34.258   3.064  18.266 -0.1659  0.3527 -0.1760
62008W        W18249  16.961   6.857  24.182  0.0988  0.4867 -0.0665
62009W        W18250  26.105  34.312   6.407  0.3616  0.0820 -0.1131
62010W        W18251  33.157  32.929  12.620 -0.2673 -0.3613 -0.0026
62011W        W18252  15.039  24.272  21.406  0.1592  0.3877  0.1604
62012W        W18253  22.461   7.753  18.215  0.1442  0.0362 -0.0728
62013W        W18254  26.080  17.756  12.226  0.5284  0.0296 -0.2363
62014W        W18255  26.195  17.371  20.851  0.3539  0.3921  0.0533
62015W        W18256  10.153  11.113   8.235 -0.0580  0.2313  0.1554
62016W        W18257  10.007   7.064  23.082 -0.1188 -0.0930  0.1085
62017W        W18258  13.190  30.760   7.707 -0.3940 -0.0163  0.5363
62018W        W18259  10.999  22.778   9.424 -0.0146 -0.2300  0.1041
62019W        W18260  27.705  23.727   7.165  0.2595 -0.0531 -0.3722
62020W        W18261  19.873  28.614   4.527 -0.1982  0.0904  0.1308
62021W        W18262  22.580   7.121  19.671 -0.0827  0.3832 -0.3164
62022W        W18263  21.258   3.261  22.982  0.2917 -0.0055 -0.0269
62023W        W18264   1.192  14.015  25.414  0.1202  0.0958  0.4142
62024W        W18265  25.999  33.526  26.158 -0.2328 -0.3168  0.3177
62025W        W18266  19.308  33.306  19.741 -0.1940 -0.0135 -0.1266
62026W        W18267  12.974  13.947  18.669  0.3952  0.2243 -0.1405
62027W        W18268  31.126  20.918  13.729  0.0192 -0.1114  0.2356
62028W        W18269  30.960   1.608  18.053  0.0961  0.3550 -0.1390
62029W        W18270  12.935  17.667  21.759  0.0126  0.2823  0.0196
62030W        W18271  11.997  21.529  24.591  0.2758 -0.1633  0.0340
62031W        W18272   5.510  33.222  25.229  0.4828 -0.0065  0.0613
62032W        W18273  26.720  21.766  24.393 -0.0235 -0.0597  0.2640
62033W        W18274   2.719  27.923  24.266  0.0919  0.0699  0.0558
62034W        W18275  10.038   2.033   9.049  0.1615 -0.1379  0.1280
62035W        W18276  12.669  20.477   5.469  0.0561 -0.0732  0.1450
62036W        W18277  11.282  22.823  24.449  0.0304  0.0362  0.1117
62037W        W18278   4.642   2.418  21.667 -0.1730  0.0153  0.0886
62038W        W18279  26.910   7.684  25.690  0.0318 -0.0187  0.1341
62039W        W18280   6.684  26.839  25.586  0.1246 -0.2219  0.1951
62040W        W18281   0.355   7.500  14.824 -0.0143  0.1358 -0.2283
62041W        W18282   4.848  15.086   2.758  0.2040 -0.2972  0.0248
62042W        W18283  19.096   5.431   7.407 -0.2806  0.2208  0.1771
62043W        W18284   9.347  17.100   2.698  0.0182  0.1492 -0.4581
62044W        W18285   4.292  21.299  25.259 -0.1531  0.0761  0.3782
62045W        W18286   2.823  11.808  20.011 -0.1433  0.0037  0.1148
62046W        W18287  25.005  18.605  14.932  0.0414  0.3231  0.2196
62047W        W18288   7.167  28.513   3.344 -0.0913 -0.0572 -0.2391
62048W        W18289   6.622   7.768   2.154 -0.2490 -0.1224 -0.1425
62049W        W18290  10.813   6.288  10.796  0.0342 -0.1115  0.2150
62050W        W18291  13.740   3.074  22.615  0.2370 -0.0649 -0.2595
62051W        W18292  15.597  11.373  10.718 -0.1535  0.1348 -0.2626
62052W        W18293   7.082   4.221   9.081  0.2194 -0.0180  0.0951
62053W        W18294  31.255   1.369  14.515  0.1700 -0.3477  0.1154
62054W        W18295  20.837   9.962   4.110  0.0589 -0.1401  0.1947
62055W        W18296  15.833   7.089  18.490  0.2096  0.1087 -0.2683
62056W        W18297  34.343  32.639  24.338  0.3226  0.3130 -0.1477
62057W        W18298  30.499  11.033   0.263 -0.0153 -0.0217 -0.2331
62058W        W18299  16.739  20.153   5.570 -0.1062  0.1457 -0.0422
62059W        W18300  17.654  22.167   4.990  0.4871  0.2170  0.1865
62060W        W18301  30.995  15.537   5.047  0.0367 -0.3730 -0.2158
62061W        W18302   4.141  11.689  15.935 -0.0955  0.1811  0.1252
62062W        W18303  19.363  14.194   7.380  0.0618  0.1350  0.0506
62063W        W18304  28.148  20.621  20.444 -0.0005  0.3585 -0.2109
62064W        W18305  23.039  27.400   4.250 -0.0591 -0.0695 -0.4385
62065W        W18306  19.490  24.503   3.889  0.0746 -0.5695  0.0478
62066W        W18307   5.686  13.325  16.561  0.0762 -0.0398  0.1013
62067W        W18308  25.351  33.973  24.330  0.2243 -0.0085 -0.5376
62068W        W18309  15.914  29.380   1.416  0.0477  0.0773  0.0734
62069W        W18310  24.288  12.451  19.656 -0.3141  0.5446  0.0377
62070W        W18311  24.859  16.604  21.006  0.0309  0.0430  0.1668
62071W        W18312   8.227   5.920  18.537  0.0442  0.3789 -0.2283
62072W        W18313   6.716  14.134   7.690 -0.2575 -0.1681 -0.0095
62073W        W18314   1.039  27.777   7.006 -0.0142 -0.1432  0.0892
62074W        W18315   8.525   4.114   8.196 -0.2124 -0.1946  0.3225
62075W        W18316  17.593  27.968  24.592  0.1390  0.0251  0.1785
62076W        W18317  16.434  24.210   6.300  0.1653  0.1453 -0.1363
62077W        W18318  13.568  27.309  11.465 -0.0195 -0.3153 -0.0148
62078W        W18319  11.325  13.045   2.416  0.1346 -0.0227 -0.1980
62079W        W18320  26.464  24.065  15.357  0.3892 -0.0303  0.2979
62080W        W18321   1.426   4.798  23.332 -0.1459  0.0361 -0.0998
62081W        W18322  16.325   6.537  11.698 -0.1015 -0.0774  0.1500
62082W        W18323  17.878  28.774   4.533  0.0203 -0.2336 -0.1731
62083W        W18324   4.862  20.665   1.764 -0.0559 -0.2268 -0.2434
62084W        W18325  29.520  19.964   3.820 -0.1467  0.0840 -0.0647
62085W        W18326  13.750   4.860  22.899  0.1935  0.0113 -0.0288
62086W        W18327  18.792  17.484   6.207  0.3007  0.1514 -0.2761
62087W        W18328   5.576  34.304   2.945  0.1318 -0.2390  0.1610
62088W        W18329  21.904  21.161  23.403 -0.3483 -0.1061  0.0635
62089W        W18330  16.787  14.023  13.059 -0.2658  0.1161 -0.2019
62090W        W18331  10.294  12.214   9.920 -0.1816  0.0848  0.2242
62091W        W18332  28.784  22.298  21.035  0.0509  0.1003  0.0440
62092W        W18333   1.256  29.250   1.029  0.1005  0.3232 -0.2398
62093W        W18334  21.403   0.320  22.423  0.3145  0.1674  0.0608
62094W        W18335   1.550   7.003  22.251  0.0360  0.1343  0.1828
62095W        W18336  10.809   7.341  24.611  0.2033 -0.0276 -0.3070
62096W        W18337  21.656   6.454  23.508 -0.0383  0.0097  0.1307
62097W        W18338  29.889   0.007   5.742 -0.1183 -0.0172  0.2643
62098W        W18339  11.479  21.783  23.441  0.0159  0.2677 -0.1329
62099W        W18340   0.964  19.115  11.005  0.1769 -0.0512  0.1029
62100W        W18341   1.653  19.300   1.226  0.4361  0.2233  0.2136
62101W        W18342  16.268   5.665  19.940  0.1197 -0.0336  0.2799
62102W        W18343   9.462  32.963  13.863  0.4231  0.2403  0.1229
62103W        W18344   1.637  26.749  19.965  0.2729  0.1327 -0.0546
62104W        W18345  18.679  12.274   2.950 -0.0852 -0.1263  0.1656
62105W        W18346   1.221  34.095  18.296  0.2297  0.1133 -0.0113
62106W        W18347  25.518   4.963  11.743 -0.2174  0.2059 -0.0855
62107W        W18348   7.314  22.538   7.583 -0.0547 -0.0098 -0.1487
62108W        W18349   3.746  33.978  22.135 -0.0158  0.1826  0.0634
62109W        W18350  35.291   4.823  14.288  0.1968  0.1537 -0.0816
62110W        W18351  29.771   8.603  11.125 -0.0204 -0.1452  0.1527
62111W        W18352  32.730  12.879   9.494  0.2102  0.1239 -0.0730
62112W        W18353   3.221   0.769  25.171  0.0500  0.1429 -0.1932
62113W        W18354  26.391  33.125  21.977 -0.2103 -0.2549 -0.1099
62114W        W18355   9.163  14.109   3.839  0.2396  0.0774 -0.2512
62115W        W18356  18.612   8.682  22.865  0.2342  0.1457 -0.0745
62116W        W18357  16.578   1.259   4.342  0.3847 -0.0607 -0.0335
62117W        W18358  16.246   8.825   8.321 -0.0963  0.1267  0.0920
62118W        W18359   6.043  13.697  19.203  0.1334  0.1758  0.2807
62119W        W18360   7.480  10.023   8.956 -0.4706 -0.1156  0.1818
62120W        W18361  30.712  15.082  20.908  0.0893 -0.0930 -0.1391
62121W        W18362  11.436  15.760   8.607 -0.2154  0.0663  0.1209
62122W        W18363  32.714  17.919  10.736 -0.0770 -0.0292 -0.2039
62123W        W18364   3.071   1.031  20.545  0.1125  0.0067 -0.2544
62124W        W18365   5.767  27.359   9.764 -0.0546  0.0105 -0.2532
62125W        W18366   5.135  21.511   2.304 -0.0492  0.3512  0.1827
62126W        W18367  23.792  19.846  20.490  0.0416  0.2344  0.3245
62127W        W18368  22.883   9.333  14.700 -0.1036  0.2275 -0.0650
62128W        W18369  11.326  24.201  11.865 -0.1202  0.3465 -0.0394
62129W        W18370  16.566   3.176  18.453 -0.0652 -0.1252  0.1130
62130W        W18371  10.847  23.715   5.256 -0.0262  0.0312 -0.3781
62131W        W18372   3.289  17.650  19.653 -0.2173 -0.0711 -0.1738
62132W        W18373  15.935  14.163  20.558 -0.0058 -0.2123  0.2278
62133W        W18374   6.114   7.119   1.038  0.0212 -0.4972 -0.2121
62134W        W18375  12.906  26.841   5.441 -0.0065  0.0223 -0.0738
62135W        W18376   1.598  25.794  15.691  0.0644  0.3271  0.0819
62136W        W18377  24.248  14.090  11.229  0.4187 -0.1299 -0.1542
62137W        W18378  14.083   3.724  21.055  0.1314 -0.1034  0.0061
62138W        W18379   3.985  31.088  26.089 -0.2875 -0.3692 -0.2409
62139W        W18380   3.099  16.208  15.395 -0.0689 -0.0114  0.1871
62140W        W18381   1.758  11.692  23.345 -0.1050 -0.0622  0.1100
62141W        W18382  32.363   6.732  13.796 -0.1537 -0.4704  0.0615
62142W        W18383   0.596  17.837  13.097 -0.1358 -0.3171 -0.2783
62143W        W18384  12.633  18.143  11.898 -0.1256 -0.2970  0.2190
62144W        W18385  15.849  19.667   1.570  0.0017 -0.0264  0.1093
62145W        W18386  12.445   3.449  18.618 -0.0351 -0.0826  0.3662
62146W        W18387  21.370  33.514  14.731 -0.2325 -0.0855  0.0848
62147W        W18388  30.860  27.675  25.056  0.1013  0.0698  0.1179
62148W        W18389   5.634   2.201  18.507 -0.0614 -0.1063 -0.0046
62149W        W18390  22.131   0.364  18.396 -0.0242  0.1992  0.0070
62150W        W18391  23.748  10.342  17.917  0.2695  0.0241 -0.0294
62151W        W18392  32.218   7.196  23.162  0.3130 -0.0280  0.4168
62152W        W18393  30.078  27.846  21.287 -0.2187 -0.0901 -0.1430
62153W        W18394   7.828  34.476   2.917  0.3626 -0.4039  0.1754
62154W        W18395  34.456  26.422   3.548 -0.4114 -0.1328  0.4339
62155W        W18396  12.810   7.592   2.539 -0.0757 -0.0566 -0.0908
62156W        W18397  14.504  19.215  13.632  0.1275 -0.1312 -0.1978
62157W        W18398  33.038  17.936   5.621  0.0739 -0.0943 -0.0006
62158W        W18399   9.227  14.599  25.272  0.1562 -0.1651 -0.1417
62159W        W18400   6.382  31.612   7.245  0.0243 -0.0814 -0.1887
62160W        W18401  12.299  12.111  12.460  0.1245 -0.0754  0.2378
62161W        W18402  19.558  20.981  21.408  0.0892  0.2933 -0.0414
62162W        W18403   2.736  27.333   3.778  0.0545 -0.0223  0.6302
62163W        W18404  35.254   6.857  21.182  0.0967  0.4552  0.3238
62164W        W18405  13.467   3.041  24.649 -0.1393  0.0002 -0.0140
62165W        W18406  23.134  30.936  20.547 -0.3019 -0.3631 -0.1859
62166W        W18407   7.522   2.395   8.433 -0.0635  0.0963 -0.1692
62167W        W18408  16.063  15.166  20.838 -0.2520  0.0451  0.0141
62168W        W18409  10.135  35.384   4.732 -0.0230 -0.1023  0.1105
62169W        W18410  12.598  32.681  10.378 -0.2081 -0.1096 -0.1420
62170W        W18411  26.567   4.223  24.086  0.2063 -0.2287 -0.1701
62171W        W18412  29.638  21.912  25.877  0.3872  0.0789  0.0008
62172W        W18413  23.801   8.842   0.524  0.4324  0.1470 -0.1223
62173W        W18414  17.460   4.240  22.811 -0.0837  0.5073  0.1379
62174W        W18415  23.231  28.436   5.064  0.2343 -0.1658  0.3140
62175W        W18416  24.075  22.081  19.571 -0.3228  0.1636  0.1581
62176W        W18417   7.005  34.074  23.109 -0.2358 -0.0918 -0.1301
62177W        W18418  34.880  22.224  20.099  0.0588  0.0456  0.1537
62178W        W18419   0.680  32.983   9.554  0.1643 -0.1672 -0.3168
62179W        W18420  22.664   6.844  20.635  0.1401  0.4135 -0.1435
62180W        W18421  10.916  18.576   7.195  0.1143 -0.1073  0.0999
62181W        W18422   5.729  17.473   8.183  0.1069 -0.2727 -0.1933
62182W        W18423  27.509   2.863   0.323 -0.0124  0.3447 -0.2858
62183W        W18424   8.894  30.646  24.273 -0.2217 -0.0640  0.3669
62184W        W18425  16.414   9.125  25.562 -0.1368  0.0187  0.0288
62185W        W18426   9.897  30.285   6.923 -0.1556 -0.0508  0.0548
62186W        W18427  27.887  32.660   5.066 -0.0273 -0.0833  0.1857
62187W        W18428  11.925  21.227   8.664 -0.0624 -0.1766 -0.0648
62188W        W18429   2.234   4.123   2.676  0.0469  0.3023 -0.2738
62189W        W18430   7.956  26.501   5.515 -0.2048 -0.3709  0.1817
62190W        W18431  17.649   9.911  18.969  0.1550 -0.1196 -0.0537
62191W        W18432   8.212   9.805  18.886  0.1513  0.2695  0.2659
62192W        W18433  29.926   2.283  19.593 -0.2443 -0.0523  0.2439
62193W        W18434   0.478  28.167   3.140  0.2243 -0.0536 -0.2493
62194W        W18435  15.089  21.247  24.891 -0.2852 -0.2924  0.0040
62195W        W18436  20.614  26.839   0.480  0.0881  0.1489  0.1815
62196W        W18437   6.514  15.000   3.207  0.1580 -0.0208 -0.0763
62197W        W18438  20.056  25.036  25.983 -0.1465 -0.1893 -0.0641
62198W        W18439  35.183   4.848   3.841 -0.1841 -0.0140 -0.2694
62199W        W18440  11.907  10.653  25.111 -0.0589 -0.0038 -0.1865
62200W        W18441  29.133  18.215  10.716 -0.3017  0.1460  0.0615
62201W        W18442   0.411  12.869  15.299  0.0516  0.0752  0.0648
62202W        W18443  16.479  14.029   8.052  0.0148 -0.2052  0.1271
62203W        W18444   6.938   8.497   1.654 -0.0438  0.1491 -0.0049
62204W        W18445   3.104  17.705  20.848  0.1970 -0.0263  0.0074
62205W        W18446  13.783  22.276  15.254 -0.2636 -0.0824  0.0479
62206W        W18447   0.311  28.263   2.078  0.0675 -0.1761  0.0588
62207W        W18448  11.035   3.371  13.364 -0.0113 -0.0292  0.0695
62208W        W18449  30.652  20.759  14.561 -0.4081 -0.2510  0.1180
62209W        W18450  26.669  23.422  10.213 -0.2021  0.2149 -0.0111
62210W        W18451  19.742  14.775   0.958  0.0258 -0.0421  0.0639
62211W        W18452   5.217  10.449  18.922  0.2127  0.1262  0.0159
62212W        W18453  11.165  10.929   2.155 -0.1104  0.0812  0.3208
62213W        W18454   2.079   0.403  22.939 -0.0302 -0.0452  0.1757
62214W        W18455  32.346  20.048   7.572  0.0530 -0.1079 -0.2526
62215W        W18456  29.076  35.096  23.676 -0.0523 -0.1129  0.0746
62216W        W18457   8.282  18.475   8.873  0.3095 -0.1791  0.2396
62217W        W18458  17.164   2.010   7.449 -0.1117  0.0866  0.0523
62218W        W18459  11.984   4.813   0.500  0.0327 -0.0684  0.1000
62219W        W18460  22.247  14.771  22.310 -0.0956  0.0027  0.0084
62220W        W18461   3.624   2.221   0.064  0.2632 -0.1078  0.0292
62221W        W18462  28.187  33.014  11.505  0.1688  0.1410  0.0677
62222W        W18463  20.544  13.391  17.003 -0.0651 -0.2233  0.0215
62223W        W18464  23.105   9.279  17.304 -0.0159  0.0222  0.1956
62224W        W18465   1.944   8.536  21.226 -0.0166 -0.0094  0.1075
62225W        W18466  33.472  14.612  19.424  0.0409 -0.1586  0.2625
62226W        W18467  22.055  34.706  19.946 -0.1757 -0.1555  0.2833
62227W        W18468   7.716  26.084   2.501 -0.0768 -0.0107  0.1589
62228W        W18469  14.851  29.865   7.272  0.0820 -0.2026  0.2505
62229W        W18470   4.160  24.564  20.242  0.2937  0.0365 -0.0655
62230W        W18471   2.218  30.976  18.252 -0.2104  0.0506  0.1849
62231W        W18472  24.664  17.013  10.580 -0.0676  0.0054  0.2866
62232W        W18473  16.177  26.908  12.028  0.2759  0.0239 -0.0771
62233W        W18474  17.855  28.030   3.824 -0.1482 -0.0741 -0.0993
62234W        W18475  30.097  22.016   5.627  0.0712 -0.1487 -0.0352
62235W        W18476  34.123   8.281  12.952 -0.0650  0.0443 -0.2203
62236W        W18477   0.345  23.648   0.132  0.1900  0.2055  0.0016
62237W        W18478  13.120  28.238  22.223 -0.1458 -0.0258  0.2893
62238W        W18479  33.970  30.657  20.540  0.1302 -0.1894 -0.1332
62239W        W18480   8.838   6.985   0.264 -0.1744 -0.3335  0.3230
62240W        W18481  18.048  20.648  20.346  0.0646 -0.0028  0.1535
62241W        W18482  18.776   2.498   3.220  0.1207  0.1340 -0.0489
62242W        W18483  23.472   5.961  21.148 -0.0071  0.2204  0.1000
62243W        W18484  35.223  27.875  15.181 -0.2811  0.0470  0.0406
62244W        W18485  32.807  11.972   0.225  0.1913  0.0965  0.0712
62245W        W18486   7.734  29.097  14.293  0.0593 -0.0544 -0.1195
62246W        W18487  14.038   0.450   2.035 -0.1812 -0.0889 -0.0454
62247W        W18488  19.859  16.765  25.421  0.1072  0.0420  0.4376
62248W        W18489  27.535  25.080  18.888 -0.1753  0.3490  0.0592
62249W        W18490  17.126   7.641  24.542 -0.2589 -0.2839 -0.0559
62250W        W18491  14.636  13.592  10.668 -0.0008 -0.2259  0.0197
62251W        W18492  28.832  31.202  14.385  0.1485 -0.0488  0.3618
62252W        W18493   5.189  19.655  24.693 -0.4122 -0.0470 -0.1559
62253W        W18494  28.428   4.686  14.743 -0.0913  0.3942  0.0003
62254W        W18495  16.636  13.533  12.899 -0.0870  0.2023  0.0699
62255W        W18496  18.603  21.585  21.573 -0.2577  0.0314 -0.2415
62256W        W18497  15.386  22.187  13.533  0.1963 -0.1380  0.0011
62257W        W18498  32.843  15.556  21.835 -0.0487 -0.0038 -0.1737
62258W        W18499  32.123  19.971  24.203  0.0312 -0.0496 -0.0380
62259W        W18500   4.946  34.078  12.726  0.0439 -0.3538  0.1487
62260W        W18501   5.138   7.439  23.006 -0.3604 -0.0927  0.1761
62261W        W18502  10.597   1.775   1.750  0.1242  0.0154 -0.4570
62262W        W18503  24.480  23.098  12.310  0.3574 -0.1911  0.3117
62263W        W18504  26.699  10.093  14.581  0.0134 -0.1157  0.1341
62264W        W18505  33.123  25.201   1.339 -0.1395  0.3200 -0.1236
62265W        W18506  15.249  16.781  13.890  0.1265 -0.1610 -0.3594
62266W        W18507  12.728   9.965  24.248 -0.2680 -0.1712  0.1414
62267W        W18508  17.845   2.270  21.863 -0.2734 -0.3760  0.0076
62268W        W18509  12.957  33.188  23.687 -0.1003 -0.1032  0.0643
62269W        W18510  32.877   0.536  16.663  0.1553  0.0833  0.1222
62270W        W18511  18.627   0.896   3.773 -0.1700  0.1654  0.2918
62271W        W18512  28.199   8.648   0.184  0.0501 -0.0158 -0.0399
62272W        W18513  11.834  30.293  22.698 -0.3770 -0.1324  0.1989
62273W        W18514  19.048  30.549   3.545  0.1578 -0.3144 -0.1134
62274W        W18515  13.868  23.226  23.962 -0.1151 -0.1488 -0.3140
62275W        W18516  23.842   1.411  16.906  0.1023  0.4549 -0.2227
62276W        W18517  10.689  33.620  23.147  0.0003 -0.0885  0.1838
62277W        W18518  29.074  30.343  20.616  0.0081  0.4237  0.2831
62278W        W18519  16.170  11.599   6.245 -0.0817 -0.0491 -0.2319
62279W        W18520   1.643   1.034  24.298 -0.2457 -0.1774  0.1069
62280W        W18521   8.975  18.579  20.966  0.0937  0.0964 -0.5668
62281W        W18522  11.775  28.588  25.221  0.1420  0.1771 -0.2775
62282W        W18523   3.274   2.139   2.546  0.2574 -0.4549  0.2503
62283W        W18524  19.776   9.830   3.022 -0.0221 -0.0584 -0.0561
62284W        W18525  26.914  21.171  19.549  0.0707  0.3259  0.0051
62285W        W18526  23.135  15.612  25.378  0.4294 -0.0326  0.1379
62286W        W18527  16.610   8.029   8.197  0.0406  0.0352 -0.4346
62287W        W18528  29.776   8.751  20.767 -0.0117  0.2471  0.0782
62288W        W18529  23.367   9.667  24.807 -0.4017 -0.0625  0.1675
62289W        W18530  13.352   7.333  11.963  0.3902 -0.0075 -0.0963
62290W        W18531  25.956  21.262  21.011 -0.3888 -0.1754 -0.3569
62291W        W18532  30.481   6.063  24.558 -0.2782 -0.1246 -0.2856
62292W        W18533   4.987   5.759   2.721 -0.0840  0.0439 -0.0065
62293W        W18534   9.825  20.132   6.256  0.1822  0.1253 -0.2260
62294W        W18535   7.990  10.884  19.997  0.1146  0.0229 -0.0274
62295W        W18536   8.709  22.506  13.683 -0.3620  0.2764 -0.0696
62296W        W18537  30.910  13.608  14.067 -0.2565  0.1154  0.1750
62297W        W18538  25.166  35.283  23.911 -0.1390  0.1058 -0.3218
62298W        W18539   9.197  33.004   5.589 -0.0620 -0.0225 -0.2148
62299W        W18540   0.818  28.166  20.400  0.0482  0.0082  0.3248
62300W        W18541  19.550   2.528  19.271 -0.0247 -0.0330  0.2328
62301W        W18542  23.885   9.585  24.963 -0.0491 -0.1721  0.1075
62302W        W18543  35.113  33.808  24.314 -0.0608 -0.0918  0.0974
62303W        W18544   6.552   8.379   5.615 -0.1670  0.1607 -0.2351
62304W        W18545  27.998  13.782  16.457  0.1689 -0.2262  0.0791
62305W        W18546  16.441  32.851   4.141 -0.1057  0.0237  0.0328
62306W        W18547   4.981  17.952  18.748 -0.0808  0.1308  0.1133
62307W        W18548  11.738   2.340   6.173 -0.0594 -0.2147 -0.0832
62308W        W18549  14.731  25.273  23.728  0.2039  0.0733 -0.1590
62309W        W18550  16.459  23.400  22.156 -0.1522  0.1062 -0.2148
62310W        W18551  34.260   8.527  21.057  0.1915 -0.1615 -0.3770
62311W        W18552  16.074  26.374   0.241 -0.0603  0.0215 -0.0195
62312W        W18553   1.873  25.595  22.649 -0.0951 -0.0270  0.1211
62313W        W18554   8.025  16.362  11.564 -0.1236 -0.0050  0.1328
62314W        W18555  12.753  25.344   2.694 -0.0114 -0.0392  0.2484
62315W        W18556  26.466  10.501   9.443  0.0041  0.1727 -0.1587
62316W        W18557  28.987  32.073  11.679 -0.0263 -0.0497 -0.0397
62317W        W18558   0.579   1.029   1.065  0.2064  0.2032 -0.1875
62318W        W18559  33.238  31.193   2.957 -0.0853 -0.0234  0.0585
62319W        W18560  25.917  16.251  12.924  0.0067 -0.1527  0.0119
62320W        W18561  21.381   1.650   4.857 -0.0871  0.0149  0.0576
62321W        W18562  21.932  31.551   2.915 -0.1469  0.0211  0.1568
62322W        W18563   3.742   7.507  16.036  0.0355  0.1394 -0.2101
62323W        W18564   8.715   4.403   5.941 -0.0336  0.0266 -0.5699
62324W        W18565  15.738  24.342  24.009 -0.0438 -0.2067  0.2226
62325W        W18566  29.428   5.931  21.636 -0.1771  0.1974  0.3743
62326W        W18567   5.118   5.108  24.062 -0.4479 -0.3119  0.2992
62327W        W18568  17.630  20.499   7.389 -0.1425 -0.1150  0.1259
62328W        W18569  24.137  35.018   2.456 -0.3310 -0.3032 -0.4132
62329W        W18570  27.792  13.553  10.208  0.2606  0.0264 -0.1859
62330W        W18571   1.618  15.046  10.479 -0.0033 -0.4436  0.0597
62331W        W18572  23.271  30.090  12.719 -0.2119 -0.1804  0.2993
62332W        W18573  34.442  12.892  21.214  0.0627  0.0898 -0.0887
62333W        W18574  22.654  16.095  15.609 -0.3315  0.0805 -0.0799
62334W        W18575  17.293  16.094  23.655  0.0688 -0.0140 -0.0801
62335W        W18576  33.866  21.854  21.879 -0.1654  0.0573  0.2679
62336W        W18577  27.679  25.775  12.844  0.0497  0.2923  0.0031
62337W        W18578  19.532  32.700  14.180  0.2016  0.0396 -0.0207
62338W        W18579  33.216  14.109  13.133  0.2363  0.2493 -0.0579
62339W        W18580  26.481   6.364   1.758 -0.1251 -0.2599 -0.0357
62340W        W18581  20.840  27.134  19.566  0.3024 -0.3849  0.1798
62341W        W18582  31.249  28.408   1.175 -0.3336  0.0504  0.2360
62342W        W18583   8.885   1.579   7.111 -0.2664 -0.0745  0.1631
62343W        W18584   8.250  10.890   9.707 -0.1387 -0.3944 -0.1017
62344W        W18585  23.377  28.607  20.880 -0.1426  0.2792 -0.4236
62345W        W18586  12.574  34.099   1.168 -0.1524 -0.1379 -0.0890
62346W        W18587   9.043  26.423  16.575  0.0101 -0.0568 -0.2077
62347W        W18588  19.048  33.951   3.744 -0.0091  0.1303 -0.1789
62348W        W18589  21.455   4.730   2.022  0.1417 -0.0007  0.1288
62349W        W18590   0.707  21.555  10.331 -0.1092  0.0916 -0.0602
62350W        W18591  12.304   5.386  18.975  0.1414 -0.2044 -0.1073
62351W        W18592  27.796  27.989   0.962  0.2301  0.2288  0.1883
62352W        W18593   6.633   1.611  10.496  0.0518 -0.1232 -0.3699
62353W        W18594  14.432  31.459  13.879 -0.0119  0.1711  0.1214
62354W        W18595   6.877  20.859   4.558 -0.0266  0.1380 -0.4008
62355W        W18596  31.336  13.930  14.152 -0.3097 -0.2485  0.0358
62356W        W18597  26.713  12.434  23.428 -0.1302 -0.1643  0.2575
62357W        W18598  24.192   9.660   3.159 -0.0165 -0.2468  0.1260
62358W        W18599   5.032  31.982  20.228  0.0662 -0.0737 -0.0140
62359W        W18600  33.653  16.564   9.800 -0.2224 -0.0583 -0.0345
62360W        W18601   2.802  18.822   2.074  0.0227  0.0492 -0.1218
62361W        W18602   9.626  27.591   6.900 -0.0840 -0.0543  0.2523
62362W        W18603  10.096  22.283   4.339 -0.0213  0.1341 -0.1744
62363W        W18604  30.725  17.816  16.221  0.0865  0.4348 -0.0570
62364W        W18605   6.503  22.205   2.342  0.1585 -0.1755  0.2272
62365W        W18606  34.787  23.155  16.205  0.0656 -0.1239  0.2199
62366W        W18607   5.711  35.339  22.441 -0.1075 -0.2591  0.0567
62367W        W18608  11.332  28.869  21.666 -0.0698  0.1282  0.1453
62368W        W18609  21.463  22.667   2.249  0.1725  0.2809 -0.0465
62369W        W18610   8.118   6.338  21.502 -0.0496 -0.2142 -0.0107
62370W        W18611  24.322  19.193  23.239  0.0510 -0.0308  0.0883
62371W        W18612  29.113  16.216  23.558 -0.1204  0.1329 -0.2124
62372W        W18613  30.545   5.259   2.477  0.1166  0.1249  0.1105
62373W        W18614   9.249  27.838   7.342 -0.1598 -0.0142 -0.4413
62374W        W18615  16.066  25.470   2.327 -0.0811 -0.1582 -0.0783
62375W        W18616   6.878   2.935  26.001  0.0014  0.1893  0.3939
62376W        W18617  33.836  12.934  25.916 -0.0703 -0.0144 -0.0826
62377W        W18618  27.757  28.456  16.083  0.1812 -0.0245 -0.2679
62378W        W18619  12.873  18.666   6.988  0.2757 -0.0534  0.0444
62379W        W18620  34.343  12.761  15.302 -0.1090 -0.2493 -0.1308
62380W        W18621  14.734  23.235   6.133  0.0133 -0.0657  0.0985
62381W        W18622  21.748   2.882   7.301  0.2558 -0.1303 -0.0491
62382W        W18623   3.680  22.533   2.739 -0.2951  0.0129 -0.1468
62383W        W18624  23.198  23.467  24.300 -0.0959  0.2438 -0.1582
62384W        W18625  22.665  12.811  16.068 -0.2560 -0.0127 -0.2060
62385W        W18626   3.574   5.640  16.322 -0.0624  0.0562 -0.1460
62386W        W18627  25.365   4.619  13.630  0.0687 -0.0824  0.0198
62387W        W18628  15.115  22.034  21.895  0.1705 -0.1820  0.0821
62388W        W18629  14.476  22.598  14.459  0.1580  0.2936  0.0488
62389W        W18630   8.227   5.427   5.699  0.2123 -0.2626 -0.1273
62390W        W18631  20.999  17.159   3.068  0.2217 -0.1706  0.1479
62391W        W18632  22.598  29.778  19.830  0.1621  0.1515 -0.5020
62392W        W18633  21.476   9.080  22.832  0.0475  0.1203  0.1816
62393W        W18634  19.216   3.908  22.234 -0.2390  0.1954  0.0302
62394W        W18635  22.230  23.311  14.254 -0.1615  0.0900  0.0124
62395W        W18636  19.759  35.014   0.357  0.1915 -0.2234  0.2993
62396W        W18637  13.631  19.029   6.238 -0.0726 -0.3875 -0.1905
62397W        W18638   7.768  27.006   5.277 -0.0126  0.0303 -0.1901
62398W        W18639  30.230   5.086  22.445 -0.0228 -0.1885  0.0324
62399W        W18640   2.801  13.007  21.151  0.0066 -0.3375  0.0399
62400W        W18641  21.040  25.863  23.543 -0.0418 -0.0856  0.2863
62401W        W18642   1.569   3.966  20.549 -0.0034  0.1514  0.0755
62402W        W18643  20.197  35.150  25.767  0.2437  0.0910 -0.1026
62403W        W18644  29.674   2.682  12.641 -0.2278  0.0584  0.2627
62404W        W18645   8.479  32.640  14.695 -0.3255  0.2438 -0.0968
62405W        W18646  16.381  29.067  20.875  0.1626 -0.0364  0.3498
62406W        W18647  34.231   3.841  22.918 -0.0491 -0.1501 -0.2850
62407W        W18648  30.962  29.421  23.722 -0.0681  0.0453 -0.0231
62408W        W18649   6.265  13.842  19.664 -0.3185  0.0601  0.3094
62409W        W18650  16.341   4.698  25.371 -0.0201  0.1625  0.0310
62410W        W18651  14.381  20.556   9.713 -0.1604  0.1086  0.0514
62411W        W18652  10.969  30.750   2.112  0.2131  0.0639  0.0548
62412W        W18653  12.440  10.448  22.321 -0.1442 -0.0407  0.0129
62413W        W18654  18.950   5.625   3.472 -0.1184  0.0383  0.3424
62414W        W18655   1.844  25.197  17.005  0.1769  0.4151 -0.1626
62415W        W18656   9.463  11.668   1.519  0.0773 -0.1968  0.1593
62416W        W18657  21.370  11.493  23.527  0.2619 -0.0685  0.0821
62417W        W18658  28.251   2.282  18.556  0.1562  0.4525 -0.0289
62418W        W18659   7.183   0.085  23.480 -0.0375 -0.1374 -0.0705
62419W        W18660  31.401  16.290   9.080  0.3433 -0.0420  0.0289
62420W        W18661  32.683   6.813  13.196 -0.0427 -0.0076  0.0728
62421W        W18662   2.667   4.646   4.464 -0.2736 -0.0579  0.1174
62422W        W18663  24.194  30.049  23.403 -0.0751  0.0108 -0.0117
62423W        W18664  27.683  31.369   2.175 -0.1999 -0.1812  0.1317
62424W        W18665  34.266  23.783  11.513  0.1582  0.0522 -0.0240
62425W        W18666  17.456  19.236  11.747  0.1490  0.2724 -0.1768
62426W        W18667   3.208  15.849  17.758  0.1678 -0.2074  0.1033
62427W        W18668  27.347  26.738  22.369  0.0120  0.2597 -0.2426
62428W        W18669   8.161  12.759   1.655  0.0924  0.0204 -0.0822
62429W        W18670  12.923  11.319  24.737 -0.4311  0.0968  0.1316
62430W        W18671   5.180  32.873  22.578  0.0939  0.5499  0.0473
62431W        W18672   2.496  21.876   3.041  0.2318  0.0110  0.0182
62432W        W18673   5.100   7.712   7.318  0.2368  0.3080 -0.1980
62433W        W18674  15.252  18.725   5.913  0.0731 -0.1417  0.1505
62434W        W18675  31.392  27.819  14.614  0.1505  0.0322  0.2453
62435W        W18676  12.013  11.670   7.281  0.1120 -0.3632 -0.0160
62436W        W18677  17.586  33.111   5.740 -0.0639  0.0024 -0.2939
62437W        W18678  15.790  18.289   9.393  0.3199  0.1383 -0.0497
62438W        W18679  20.934   0.224  24.596 -0.4696 -0.1399  0.0250
62439W        W18680  22.166  18.270   0.724  0.0511  0.4658  0.3803
62440W        W18681   3.234   3.777  18.920  0.2353 -0.3167 -0.0357
62441W        W18682  16.860  24.356   6.544  0.0086  0.2346 -0.1116
62442W        W18683  21.222  27.172   6.279  0.3705  0.2251  0.1681
62443W        W18684  19.611  10.293  25.882 -0.0619  0.1404  0.2048
62444W        W18685   1.536   8.490   0.724 -0.0912  0.1778 -0.0249
62445W        W18686   8.311   8.781  23.532  0.0588  0.0419  0.0113
62446W        W18687  28.727  26.984   8.488  0.1822  0.1023  0.2595
62447W        W18688   6.032   1.735   4.253  0.0019 -0.0802 -0.1052
62448W        W18689  18.400  25.096  11.471 -0.2677  0.1506 -0.1407
62449W        W18690   4.299  22.151  21.647 -0.0928  0.1595  0.1154
62450W        W18691   5.019  26.666  11.306  0.0059  0.2001 -0.0854
62451W        W18692  29.369  23.412  12.480  0.3034  0.2246 -0.0755
62452W        W18693  23.121   4.567  25.229 -0.1168  0.0675 -0.2593
62453W        W18694  16.332  10.857  21.664  0.1673 -0.4284  0.2043
62454W        W18695   9.775  19.341  22.973  0.0592 -0.0282 -0.0525
62455W        W18696  31.271  34.770   1.171 -0.0485 -0.0084  0.2878
62456W        W18697   2.320  34.107  10.550 -0.3088 -0.0316  0.0814
62457W        W18698  23.328  26.084  24.184  0.0627  0.1832  0.0230
62458W        W18699  30.530  15.328  10.531  0.2141  0.2746 -0.0068
62459W        W18700  19.308   0.496   5.171  0.2000 -0.1828  0.0351
62460W        W18701  29.767   2.427   1.743  0.0052 -0.0143 -0.0248
62461W        W18702  27.681  21.479  19.352 -0.0396  0.0456 -0.0272
62462W        W18703   6.087  30.526   4.034  0.1996  0.5259  0.1390
62463W        W18704   8.239  25.903   1.608 -0.2651  0.1282  0.0220
62464W        W18705  32.127  20.595   6.445 -0.0019  0.2819  0.0113
62465W        W18706  10.113   1.315  21.336  0.1839  0.1078  0.2601
62466W        W18707  26.294  32.930  21.516 -0.2141 -0.2950  0.1503
62467W        W18708  24.031   8.669  25.475  0.0766 -0.4522 -0.1771
62468W        W18709  30.625   8.434  16.088 -0.1005  0.1732  0.2514
62469W        W18710   5.570  12.030  25.301 -0.0225 -0.1519  0.1434
62470W        W18711   2.406  10.633   3.932  0.0090  0.3124 -0.0027
62471W        W18712  33.426   1.169   6.150 -0.0642 -0.2015  0.1582
62472W        W18713  12.963  16.207   8.956  0.2782 -0.1626 -0.1234
62473W        W18714  33.420   4.919  24.885  0.1789  0.0471  0.1587
62474W        W18715   6.875  31.306  11.202 -0.1933 -0.0788  0.1455
62475W        W18716  16.482  26.978  24.715  0.3164 -0.2213  0.0171
62476W        W18717  25.458  22.037   9.995  0.1929  0.3008 -0.0472
62477W        W18718   3.042  30.100   5.028 -0.1567  0.5590  0.0187
62478W        W18719  32.081   5.665  12.820 -0.3195  0.2701  0.0245
62479W        W18720   4.573   0.677  24.475 -0.1713 -0.1333  0.1602
62480W        W18721   3.802  19.278   2.879  0.0101 -0.0136  0.0026
62481W        W18722  19.673   2.406   3.456  0.1860  0.1675 -0.0336
62482W        W18723   0.404  26.015  17.785  0.5395 -0.0287 -0.3156
62483W        W18724  16.006  15.757  10.355  0.1364  0.0888  0.0605
62484W        W18725  35.340  25.598  26.089 -0.1367  0.1179  0.0549
62485W        W18726   4.030   1.981   8.492  0.0744  0.0435  0.1363
62486W        W18727  28.905  28.635  18.874 -0.0392  0.1405 -0.0312
62487W        W18728   9.469  32.261   4.015  0.3803  0.2568  0.3029
62488W        W18729  10.877  21.805   7.167 -0.0068  0.2109 -0.1157
62489W        W18730  13.773  23.052  13.956  0.0389  0.1026  0.1164
62490W        W18731  20.270  22.914   7.307  0.3486  0.1029 -0.1436
62491W        W18732  34.529  25.465  12.130 -0.2603  0.0122  0.2748
62492W        W18733  13.360   8.035   8.899 -0.0294  0.0396 -0.1102
62493W        W18734   3.150   6.186  22.064 -0.1018  0.0423  0.0819
62494W        W18735  14.655  13.480  13.131  0.1045 -0.2135  0.2328
62495W        W18736   3.526   2.740  22.025  0.0075  0.2986 -0.2852
62496W        W18737  25.299   6.824  25.203  0.2302 -0.0717  0.3074
62497W        W18738  19.105  24.174  22.859 -0.0620  0.0112 -0.2485
62498W        W18739  23.588  34.330   4.153  0.2506 -0.0789 -0.0393
62499W        W18740  23.831   1.148  14.906 -0.0225 -0.2310  0.2784
62500W        W18741  17.704  21.867   2.106  0.1892 -0.0248  0.1287
62501W        W18742   6.589  32.333  10.785  0.1106 -0.0238 -0.0053
62502W        W18743  22.165  34.380   3.355 -0.2019  0.0566  0.0888
62503W        W18744  13.398  13.926   8.680 -0.0586  0.0381  0.2496
62504W        W18745  13.450  31.121   8.108 -0.0481 -0.0560 -0.3143
62505W        W18746  15.267   1.994   6.335  0.0688  0.0127 -0.0600
62506W        W18747  11.778  27.233   1.396 -0.2095 -0.0323 -0.1420
62507W        W18748  29.395  29.756  25.739 -0.1123  0.1495 -0.3212
62508W        W18749  27.779   6.004  10.885  0.1542 -0.1322 -0.0609
62509W        W18750  15.811   9.467  21.113  0.0723  0.3014  0.0337
62510W        W18751  28.865  11.357  21.265 -0.0180  0.0354  0.0866
62511W        W18752   4.282  26.274  20.857  0.4634  0.0201 -0.1423
62512W        W18753  15.648  29.535  13.656  0.0348 -0.1077 -0.2895
62513W        W18754  24.494   1.746  13.596 -0.1007  0.0185  0.0749
62514W        W18755   8.472  11.749  19.044  0.0722 -0.4064 -0.0528
62515W        W18756   3.942   7.720  17.121 -0.0249 -0.0018  0.3533
62516W        W18757  13.349   9.261   9.847  0.0931  0.0557  0.0062
62517W        W18758  27.642  34.260  19.784  0.2094 -0.0307  0.0604
62518W        W18759   7.008   1.913   7.315 -0.3315  0.1395 -0.0148
62519W        W18760   5.656  15.822   9.385  0.2300 -0.3155  0.1444
62520W        W18761   0.963  32.415   8.064  0.0476 -0.1803 -0.0017
62521W        W18762   7.952  25.843  15.821  0.2293  0.1749  0.1971
62522W        W18763  30.390  20.692   4.810 -0.0215 -0.0346  0.0932
62523W        W18764  29.966  29.388  16.890  0.2845 -0.0825  0.3124
62524W        W18765  13.164  28.960  23.079  0.0631 -0.0848 -0.3663
62525W        W18766   0.561  35.130   6.896  0.3184  0.0913 -0.0292
62526W        W18767  20.224  29.633   2.621 -0.0189 -0.3802  0.4125
62527W        W18768  14.170  32.224   4.677 -0.1585  0.0170 -0.0518
62528W        W18769   5.414  30.952  21.120 -0.0463  0.1375  0.3595
62529W        W18770  23.115  33.946   4.767  0.0384 -0.3148  0.0455
62530W        W18771  29.248  20.690   8.678  0.0764  0.1597 -0.1167
62531W        W18772  23.454   2.990  16.733  0.1767 -0.1282  0.3629
62532W        W18773   1.303  34.226   0.852 -0.2811  0.0609 -0.1276
62533W        W18774  18.568   6.355   1.681 -0.1639 -0.1006  0.0094
62534W        W18775  13.745   0.576  21.640  0.0555  0.0336  0.0416
62535W        W18776   8.983  24.669  25.889 -0.2223  0.1464 -0.1387
62536W        W18777   2.268   7.711   7.027 -0.3975  0.0931  0.0259
62537W        W18778   7.705  18.093   9.360 -0.0255  0.1177 -0.2723
62538W        W18779  20.165  19.574   4.329  0.1033 -0.0172 -0.2309
62539W        W18780  18.788  25.649   7.019  0.0425  0.2093 -0.2251
62540W        W18781  32.913   0.246   0.572 -0.1183  0.0064 -0.1935
62541W        W18782  30.677   4.867  18.724 -0.0540 -0.0178 -0.2606
62542W        W18783   0.518  29.847  20.835 -0.2469  0.2557 -0.0273
62543W        W18784  29.731   1.874   5.440  0.2852 -0.0297  0.1936
62544W        W18785  21.778  10.296  16.929 -0.1282 -0.1567 -0.0287
62545W        W18786  32.017  33.081  16.911 -0.1109  0.1507  0.0183
62546W        W18787   8.703   4.901  10.129  0.4029  0.2358  0.1519
62547W        W18788  12.679  16.088   8.572  0.1046 -0.1060 -0.1050
62548W        W18789  34.362  35.128   3.114 -0.1409  0.3120 -0.0038
62549W        W18790   7.556  33.226   5.629 -0.2163  0.2588  0.2984
62550W        W18791  10.842  23.213   9.144 -0.1613 -0.0220  0.0075
62551W        W18792  35.008  19.266  15.280  0.1949  0.0947  0.0349
62552W        W18793  34.684  34.045  20.825 -0.1347 -0.2365 -0.1562
62553W        W18794   8.942  30.167   9.851  0.1268 -0.0827 -0.0480
62554W        W18795  25.990  12.760  26.161  0.1723 -0.0375  0.1948
62555W        W18796  29.743  25.194  17.538 -0.0862 -0.0201 -0.1193
62556W        W18797   9.645   4.172  21.808 -0.0909  0.2833 -0.2260
62557W        W18798   5.839  23.557  22.610  0.1172 -0.0021  0.1919
62558W        W18799  31.113  20.960  14.407 -0.1603 -0.0335  0.0896
62559W        W18800   9.696  28.463  25.236 -0.2977 -0.0488  0.0149
62560W        W18801  24.958  10.595  24.694  0.1360  0.1035 -0.0437
62561W        W18802   7.201  23.530  21.530  0.0905  0.3954 -0.2692
62562W        W18803   3.934  25.455   1.528  0.0132 -0.0605 -0.2637
62563W        W18804   0.116   9.524  14.164 -0.1737  0.1354  0.1124
62564W        W18805  33.708  33.574  17.858 -0.1264  0.1247  0.0265
62565W        W18806  12.700  30.595  16.288 -0.1577  0.3010  0.0128
62566W        W18807  10.319  30.619  21.981 -0.0513  0.0676 -0.2027
62567W        W18808   1.502  21.254  19.451  0.2639  0.0325  0.0220
62568W        W18809  19.729  13.281  21.926  0.0778 -0.2129 -0.1641
62569W        W18810  19.041   2.409   9.103  0.1541  0.2975  0.1969
62570W        W18811  14.154  18.918   7.376 -0.1888 -0.2168 -0.1090
62571W        W18812  32.745  22.956   0.805  0.3239 -0.2156  0.2256
62572W        W18813   2.643  30.925  21.461  0.2442  0.1736  0.5436
62573W        W18814   3.511   4.852   5.566 -0.1321 -0.1607 -0.0799
62574W        W18815   8.995  19.624   5.935 -0.1643  0.1757  0.3169
62575W        W18816   0.648  16.455  15.681  0.0107 -0.0750 -0.2590
62576W        W18817  12.944  21.233   5.093  0.0252  0.1445  0.0661
62577W        W18818  24.046  30.862  14.568  0.0744  0.1173  0.0512
62578W        W18819  19.309  21.939  20.865  0.3149 -0.1686  0.2993
62579W        W18820  18.520   5.773   0.755 -0.2662 -0.0353 -0.3527
62580W        W18821  24.677  31.877  23.816 -0.1861  0.3308  0.0872
62581W        W18822  32.834  18.947  21.522 -0.0592  0.0306 -0.1157
62582W        W18823   2.596   7.089  18.323 -0.0676 -0.3248  0.3324
62583W        W18824  32.948  14.115  16.111  0.3700 -0.0762  0.0599
62584W        W18825   3.154   7.786  24.310 -0.0903 -0.3284  0.1264
62585W        W18826  21.563  34.288  17.067 -0.0311  0.0696  0.0570
62586W        W18827  22.329  17.097  25.221 -0.1606  0.1254 -0.0846
62587W        W18828  25.971   5.475   3.260  0.2039  0.0914 -0.1073
62588W        W18829  15.815   9.003  21.499 -0.1326 -0.0407 -0.0979
62589W        W18830   8.540   0.285   2.977  0.2652 -0.1624 -0.3522
62590W        W18831  16.015  18.668   0.221  0.2895 -0.2688  0.0996
62591W        W18832   0.171   8.438   4.987 -0.2983  0.0386 -0.0157
62592W        W18833   1.618  14.505  11.755  0.0671  0.1925 -0.1898
62593W        W18834  23.433   1.089   4.625 -0.0712  0.0253  0.2841
62594W        W18835  32.425   5.057   4.864  0.2344 -0.0044  0.1044
62595W        W18836  34.548  27.580  14.322  0.1816 -0.0056 -0.0808
62596W        W18837  31.948  32.462  20.434  0.1423 -0.2669  0.0285
62597W        W18838   6.796  11.063  11.053 -0.0569 -0.4031  0.0431
62598W        W18839  16.708  21.339  21.348  0.0642 -0.0465 -0.0057
62599W        W18840  16.776  13.353  11.972  0.2224  0.0783  0.1109
62600W        W18841  17.493  10.798  18.801 -0.0330  0.2052 -0.0215
62601W        W18842  16.981  12.795   3.233 -0.0544  0.2682 -0.2397
62602W        W18843  12.953  10.139  20.961  0.0179  0.0941 -0.0478
62603W        W18844  11.613  10.152  20.151 -0.0067  0.1469  0.0165
62604W        W18845  19.812  26.966  23.120 -0.2238  0.0256  0.0616
62605W        W18846  17.348   3.193  25.119 -0.0727  0.2908 -0.0819
62606W        W18847   5.585  20.852   6.057 -0.1936 -0.1977 -0.2123
62607W        W18848  14.393  26.359  25.507 -0.0380 -0.0700 -0.1065
62608W        W18849   6.070  10.538   2.323 -0.1122 -0.0477  0.1283
62609W        W18850  13.543  32.256   0.015  0.1048 -0.0400 -0.0382
62610W        W18851  17.109  24.993  24.605 -0.0699  0.1524  0.2563
62611W        W18852  17.488  30.318   8.678  0.0989  0.1425 -0.1114
62612W        W18853  23.732  17.267  25.237  0.0330  0.1519 -0.1421
62613W        W18854   2.025  10.845  14.581  0.0845 -0.0491 -0.0032
62614W        W18855  20.581  34.208  16.747  0.4616  0.1704  0.0295
62615W        W18856  10.342  21.802   5.532  0.0495  0.0667 -0.2471
62616W        W18857  11.719  26.763  10.833 -0.0315 -0.1626 -0.1613
62617W        W18858   3.350  20.502  13.608  0.0217 -0.2606  0.2059
62618W        W18859  34.182  30.988   6.489  0.0754  0.0289 -0.3095
62619W        W18860  24.936   1.617  17.735  0.1398 -0.0012  0.2592
62620W        W18861  12.986  26.247  14.033  0.0916 -0.0256 -0.3932
62621W        W18862  11.539   9.482   4.958 -0.4117 -0.0496 -0.3288
62622W        W18863   8.933   1.764   6.324 -0.1411 -0.0177  0.0232
62623W        W18864   1.178  18.165  25.353  0.0292 -0.1245 -0.2195
62624W        W18865  22.002  16.108  19.172  0.0130  0.0631  0.2759
62625W        W18866   2.176  21.527  17.758 -0.3309 -0.0262  0.1936
62626W        W18867   4.404  19.169  25.666  0.0384  0.0636  0.1613
62627W        W18868   9.602   7.940   5.992  0.1540 -0.2300 -0.1744
62628W        W18869   8.888  34.610   8.973  0.0229  0.1408 -0.1012
62629W        W18870   0.707  31.944  18.704 -0.1500 -0.2378 -0.0856
62630W        W18871   1.268  32.789  23.630  0.2912  0.1058  0.1881
62631W        W18872   8.677  32.243  26.230 -0.1444 -0.1054  0.2388
62632W        W18873  12.922   1.203   3.256 -0.2989  0.0469  0.0722
62633W        W18874  32.675  33.115  16.000  0.3410  0.0963  0.2008
62634W        W18875  28.021   5.788   1.190  0.0173 -0.0826  0.1734
62635W        W18876  32.635  31.551  15.242 -0.2353  0.0491 -0.1648
62636W        W18877   8.617  18.132  12.675 -0.2003  0.0128 -0.0208
62637W        W18878  16.279   5.930   8.772  0.1505  0.4794 -0.1405
62638W        W18879   5.638  12.097  23.944 -0.2778  0.0607 -0.1931
62639W        W18880  15.475  12.322   8.812  0.1787 -0.0827 -0.1894
62640W        W18881   6.497  29.456   9.834 -0.2572 -0.2861 -0.1013
62641W        W18882   7.706  16.932   3.129 -0.1000 -0.0153 -0.1827
62642W        W18883  29.500  10.361  20.855 -0.0588  0.1857 -0.1128
62643W        W18884  30.965   6.066  12.929  0.1878 -0.1125  0.1424
62644W        W18885   9.697  17.069  13.247 -0.1575  0.1729  0.2496
62645W        W18886  16.163  32.663  10.351 -0.1980 -0.2516  0.1679
62646W        W18887  13.498  31.501   0.726  0.0610  0.0672 -0.0382
62647W        W18888  11.808  13.474  25.901 -0.1107  0.2037  0.0150
62648W        W18889  16.516   4.087  21.057  0.3336  0.1101 -0.1322
62649W        W18890  34.976  16.195   7.322  0.2172  0.5813 -0.0369
62650W        W18891  27.228  32.660  22.436 -0.2396 -0.2577  0.0750
62651W        W18892  23.649   3.742  14.796  0.1560 -0.3671  0.1514
62652W        W18893  26.016  14.489  21.261  0.0124 -0.0507  0.0814
62653W        W18894  30.709  30.911  21.643  0.2394 -0.0305  0.0222
62654W        W18895   2.052  31.131   7.945 -0.0745 -0.1129  0.1763
62655W        W18896  23.742   6.368  23.071 -0.0746 -0.2433 -0.2955
62656W        W18897  18.251   1.522  24.994  0.0849 -0.2994  0.0214
62657W        W18898   6.028   8.103  24.136 -0.1624  0.0716 -0.3159
62658W        W18899  19.427  32.342   1.018 -0.1981 -0.0383 -0.3739
62659W        W18900  30.261  10.943  11.594 -0.0378 -0.1421  0.2083
62660W        W18901   6.975   8.633  25.796  0.0683 -0.1798  0.0881
62661W        W18902   3.209  30.245   3.357 -0.1479 -0.0364  0.0078
62662W        W18903  15.568  28.599   6.578  0.0312  0.2778  0.3054
62663W        W18904   9.372  19.146   9.581 -0.3135 -0.2368 -0.0759
62664W        W18905   7.134  12.704  12.617 -0.1885 -0.1208 -0.1556
62665W        W18906   9.767  10.100  25.357  0.1583  0.0333  0.0895
62666W        W18907   3.101  13.368   2.488 -0.0613  0.1850 -0.0368
62667W        W18908   0.438  35.026   7.404 -0.2359 -0.3971 -0.1096
62668W        W18909   7.667  25.708   2.178 -0.0416 -0.2566  0.1435
62669W        W18910  24.842   8.131  22.328 -0.1715 -0.1666  0.0037
62670W        W18911  22.405  30.871  17.170 -0.2348  0.2029  0.5091
62671W        W18912   6.960   9.008  11.387  0.1450 -0.0641  0.0042
62672W        W18913  27.913  30.519  22.437 -0.0806  0.3136  0.3305
62673W        W18914   4.106   7.111  22.845 -0.0631  0.1085 -0.1414
62674W        W18915  18.098  24.717   4.301 -0.1564 -0.0581 -0.0440
62675W        W18916   5.643  25.805   5.332 -0.0343  0.0632 -0.0076
62676W        W18917  18.301   7.908   8.320 -0.1659 -0.0339  0.0859
62677W        W18918   9.253  29.892   8.577 -0.2024 -0.1120  0.1427
62678W        W18919  19.355   3.372  22.066  0.2040 -0.0281 -0.1919
62679W        W18920   6.808  14.509  22.254  0.1729  0.3554 -0.2632
62680W        W18921  34.825  12.978  10.193 -0.1242  0.4224  0.2355
62681W        W18922   4.927   9.045   7.266  0.0625  0.2920 -0.0472
62682W        W18923  19.896  22.399   3.791 -0.0642 -0.2196 -0.1485
62683W        W18924  12.372   5.286   6.262 -0.0204  0.1352 -0.0913
62684W        W18925   7.884   6.304  23.766 -0.1432 -0.2086  0.1596
62685W        W18926  33.076  12.245   6.518  0.0324  0.3482 -0.1317
62686W        W18927  16.816   3.482   2.785 -0.1807  0.1320 -0.0206
62687W        W18928  13.393  31.529  22.209 -0.1281  0.0404  0.1802
62688W        W18929  10.099  28.443  23.142 -0.1618  0.1279 -0.0368
62689W        W18930  34.810  32.719  16.239  0.2384  0.0985 -0.1171
62690W        W18931  15.084  29.504  24.597  0.1919  0.2949  0.1181
62691W        W18932  11.162  21.808   8.560  0.3524  0.0640  0.1218
62692W        W18933  14.866   0.638   9.182 -0.3867 -0.1969  0.3574
62693W        W18934  24.771   1.041   6.527 -0.0344  0.0252 -0.0792
62694W        W18935  14.335  18.144  11.363  0.0629 -0.2455 -0.0435
62695W        W18936  25.270  27.905   1.558  0.1383 -0.0280 -0.0698
62696W        W18937   6.152  18.126   6.548  0.1746 -0.2509 -0.3357
62697W        W18938  20.186  14.304   5.953  0.0177  0.2999  0.1802
62698W        W18939  13.124  17.108   8.609  0.1974 -0.0371  0.0021
62699W        W18940  26.123  30.151  12.600  0.1183 -0.0015 -0.2210
62700W        W18941   9.025  12.747   4.227 -0.1042 -0.0393  0.0307
62701W        W18942  26.163   5.538   0.700 -0.2063  0.1597  0.0283
62702W        W18943  19.124  33.280  23.875 -0.0895 -0.1790  0.1657
62703W        W18944  30.446  13.813   5.144  0.3476 -0.1459 -0.1315
62704W        W18945   4.208  28.596   7.453  0.3054  0.1780 -0.1019
62705W        W18946   6.356  22.694  23.379 -0.0362 -0.3524 -0.2374
62706W        W18947  10.548  16.554  10.808 -0.1526  0.0790 -0.1053
62707W        W18948  22.648  28.258   1.469 -0.1338 -0.0438 -0.0909
62708W        W18949  30.853   7.418  13.797 -0.1667  0.1657 -0.1210
62709W        W18950   4.952  23.564  22.323 -0.3493  0.0019  0.0896
62710W        W18951   6.032   7.039   8.433 -0.1448  0.0363 -0.0571
62711W        W18952  14.593  31.160  21.199 -0.0551 -0.1498 -0.0935
62712W        W18953  16.901  27.208   0.942 -0.0933  0.0655  0.4388
62713W        W18954  25.379  31.228   1.881 -0.0354 -0.2450  0.1352
62714W        W18955  18.921  33.698  25.812  0.1423 -0.0327  0.3066
62715W        W18956  15.531  20.570  12.134 -0.2772  0.0181  0.6265
62716W        W18957   7.514  19.687   2.359  0.0081 -0.2040  0.0606
62717W        W18958  11.591  26.920  12.569 -0.0567  0.0583 -0.3839
62718W        W18959  25.613   3.038   0.370  0.0920 -0.1598 -0.1635
62719W        W18960  15.601  24.608  24.802 -0.0493 -0.0496  0.1264
62720W        W18961  14.151   5.204  19.610  0.1687 -0.3318 -0.1590
62721W        W18962  11.764  10.814  22.403  0.2905 -0.0420 -0.0493
62722W        W18963   2.406   3.135  21.989  0.1941  0.1387 -0.3688
62723W        W18964  12.245  28.227   2.558  0.0820 -0.3788  0.0858
62724W        W18965  17.550  27.660   3.727 -0.2456 -0.0131 -0.1118
62725W        W18966   6.030   2.712  19.664  0.2787  0.1373 -0.1203
62726W        W18967  13.065  25.132  23.053 -0.0339 -0.1377  0.2424
62727W        W18968   7.534  32.886  11.710  0.4898 -0.2322  0.3659
62728W        W18969  28.059  29.138  18.494 -0.1513  0.2070  0.0104
62729W        W18970   8.803  15.066  21.907  0.2957 -0.0850  0.3077
62730W        W18971  20.065  35.134  13.353 -0.2108 -0.0681  0.1066
62731W        W18972   6.817   3.219  20.362  0.1891  0.3136 -0.2049
62732W        W18973  33.485  17.645  20.686  0.0206 -0.0343  0.0924
62733W        W18974  26.741  24.400  21.067  0.1911 -0.2336  0.2786
62734W        W18975  19.265   7.996  24.251 -0.1451 -0.2791 -0.1747
62735W        W18976  10.890  14.492  10.262 -0.1437 -0.1222 -0.0292
62736W        W18977  35.287  17.257  20.691 -0.1695  0.1776  0.0158
62737W        W18978   3.342  20.745  17.220  0.0056  0.0792 -0.3460
62738W        W18979  17.987  34.458  23.775  0.1854  0.1921  0.1243
62739W        W18980  16.268  28.243   8.252  0.1216  0.1547  0.1481
62740W        W18981   6.617  26.916  26.152 -0.0348  0.3321  0.0706
62741W        W18982  33.625  12.971  17.298 -0.0686  0.2398 -0.1115
62742W        W18983  13.472  14.439   4.080  0.1049  0.0106 -0.2555
62743W        W18984  28.002   1.175   5.796 -0.2105 -0.2567  0.1450
62744W        W18985  31.054  10.478  15.446 -0.2209 -0.0973  0.4056
62745W        W18986  27.593  19.689   8.065 -0.4916 -0.0236  0.1692
62746W        W18987  26.122  12.919  10.681 -0.3602 -0.0874  0.1710
62747W        W18988  10.817  29.417  21.375  0.0706 -0.0648 -0.3649
62748W        W18989  30.741   2.615  25.098  0.3827 -0.0864 -0.0127
62749W        W18990   1.820  23.693   1.474  0.2779 -0.1174  0.3065
62750W        W18991  13.586  19.936   3.426  0.1770 -0.1090  0.1406
62751W        W18992   0.829  12.378  10.131  0.1214  0.0698 -0.2476
62752W        W18993  30.176  17.476  24.010 -0.1264  0.1097  0.3020
62753W        W18994  18.072  19.269   2.146 -0.1861  0.3921 -0.2497
62754W        W18995   7.932  26.216  25.681 -0.0842  0.0781  0.2013
62755W        W18996   5.636  18.682   2.908 -0.1402  0.0472  0.2884
62756W        W18997   0.113  28.588  20.118  0.0553 -0.0609  0.2799
62757W        W18998  31.481  34.582  21.647  0.4622  0.1174  0.1584
62758W        W18999  10.892  32.396   4.317 -0.1213 -0.2069 -0.2690
62759W        W19000  18.171  26.532  19.899 -0.3946 -0.3009  0.1251
62760W        W19001   0.641   2.209  18.986 -0.0607  0.1199  0.0057
62761W        W19002  16.994   9.192   1.025  0.5066  0.3226  0.0263
62762W        W19003  11.834  17.010  11.999  0.0558  0.0015 -0.4743
62763W        W19004  30.752   6.153  21.757  0.0958 -0.0224  0.2268
62764W        W19005  19.886  35.032  17.897 -0.3325  0.1181  0.1247
62765W        W19006  34.191  17.099  14.653 -0.0063 -0.0121  0.1346
62766W        W19007   9.262  15.006  22.757  0.2183  0.1384  0.1528
62767W        W19008  26.064   9.299  14.307 -0.1880 -0.2937  0.4645
62768W        W19009   0.726   7.243  16.612 -0.0608  0.1581 -0.1026
62769W        W19010   1.512  24.231  25.627 -0.1328  0.1411  0.0378
62770W        W19011  20.093  17.212  26.086  0.1824  0.0972  0.0057
62771W        W19012  30.269  32.849   2.538  0.0034 -0.2918 -0.4948
62772W        W19013  14.444  15.428  13.460  0.1378 -0.0844  0.0320
62773W        W19014   4.559  28.472  25.971 -0.6412 -0.3920  0.2272
62774W        W19015  18.604  30.960   2.919 -0.0647 -0.0976  0.1311
62775W        W19016  15.391   0.177  21.898  0.2404 -0.1098  0.0248
62776W        W19017  11.512  12.384  24.054 -0.0353 -0.0106  0.1230
62777W        W19018  28.462  20.047  25.793 -0.0140  0.2040 -0.4568
62778W        W19019  24.911  31.031  14.950 -0.4522  0.0434  0.0520
62779W        W19020  21.178  19.623   1.211  0.0256  0.0935 -0.0903
62780W        W19021  19.440  18.757   9.154  0.0171  0.2184 -0.0915
62781W        W19022   2.191  13.920  15.929 -0.0944  0.1498 -0.0517
62782W        W19023   4.063  31.848   0.702 -0.0709  0.0243  0.3791
62783W        W19024   7.812  29.199   7.533 -0.3073  0.2118 -0.2042
62784W        W19025  10.127  17.513  24.429  0.0283 -0.0949 -0.0162
62785W        W19026  13.769  25.353  25.727 -0.2999 -0.2286  0.2790
62786W        W19027  26.070   7.458  22.878 -0.1443 -0.1798  0.0689
62787W        W19028  23.535   1.251  23.676 -0.0985  0.0046 -0.1131
62788W        W19029  27.653   5.796  16.324  0.0488  0.2171 -0.0646
62789W        W19030   3.165  27.922   8.151  0.1032 -0.0653  0.0352
62790W        W19031  31.188  33.577   1.668  0.5383 -0.2312  0.1764
62791W        W19032  30.553  26.250   8.604 -0.0780 -0.1624  0.5526
62792W        W19033  27.428  32.164   3.378  0.0899  0.0204  0.0586
62793W        W19034   1.983  19.845   2.183  0.1302  0.0127  0.0484
62794W        W19035  22.637  29.801  24.518 -0.1946 -0.0552  0.0902
62795W        W19036  14.490  32.820   4.115  0.2166  0.0661  0.2407
62796W        W19037  17.528   1.653   7.294 -0.3221  0.0020  0.0099
62797W        W19038  15.496  27.376   3.020  0.3874  0.6445 -0.2572
62798W        W19039  11.469  17.890  25.978  0.1097  0.0487 -0.0024
62799W        W19040  28.593  12.029  22.460 -0.0447 -0.0588  0.1718
62800W        W19041  19.230   7.811  10.179  0.0098 -0.1574  0.4720
62801W        W19042  13.281  14.186  24.339 -0.2576 -0.1248 -0.0671
62802W        W19043  34.818  24.952  19.524 -0.1436 -0.3220 -0.3709
62803W        W19044  10.498   6.698   5.307  0.0798 -0.2435 -0.1250
62804W        W19045   4.841   0.935  21.467 -0.2317 -0.1752  0.2725
62805W        W19046  23.905  20.897  23.534  0.1864 -0.2343  0.0547
62806W        W19047   3.049  15.099   4.005  0.1795 -0.2666  0.0195
62807W        W19048  19.536  19.531   3.572 -0.1136  0.1782 -0.0355
62808W        W19049  12.516  15.868  24.393  0.0522 -0.2628 -0.1296
62809W        W19050  12.913  11.057   1.401 -0.3907  0.1340  0.0180
62810W        W19051  34.859  21.991  18.719 -0.0976  0.2346 -0.0835
62811W        W19052  11.606  17.057   4.695 -0.0084  0.0453  0.0756
62812W        W19053   8.602   0.857   9.665 -0.0997 -0.3820 -0.0848
62813W        W19054   3.688   8.301   5.284 -0.2332  0.0008 -0.1064
62814W        W19055  10.657  19.620   5.197  0.1805  0.3164  0.1275
62815W        W19056  32.763  25.291   8.836 -0.1540 -0.0904  0.2789
62816W        W19057  32.239  33.504  21.390 -0.2671 -0.2762  0.1279
62817W        W19058  10.165   7.795  22.034 -0.2473  0.0331  0.0479
62818W        W19059  23.753   6.994  17.824 -0.0095  0.0763 -0.1183
62819W        W19060  30.847  31.767  22.878  0.1296  0.0809 -0.4203
62820W        W19061  20.318   9.661   1.030  0.1619 -0.1247 -0.3367
62821W        W19062  22.957  24.384  17.681  0.0828  0.0523 -0.1382
62822W        W19063  33.489   5.272  11.639 -0.4118  0.1251 -0.2516
62823W        W19064  21.497   2.677  25.917  0.0364 -0.0891  0.0623
62824W        W19065  22.333   8.215   1.856  0.0124  0.2357  0.0350
62825W        W19066  14.514  29.896   5.801  0.1522 -0.1881 -0.3104
62826W        W19067  13.859   5.186  18.676 -0.0340  0.3035  0.1905
62827W        W19068  26.119  14.981  24.200  0.2697  0.1604  0.2274
62828W        W19069  12.846  11.388  26.232 -0.3643 -0.0040 -0.3409
62829W        W19070  21.977  22.584  23.463  0.2210  0.0122 -0.1347
62830W        W19071   6.985   7.837  22.672 -0.0521  0.0655 -0.0447
62831W        W19072   5.286   1.123   7.425 -0.1211  0.2246 -0.2849
62832W        W19073  24.684   2.952   1.660  0.2202 -0.0503 -0.2839
62833W        W19074   4.871  33.259   2.247 -0.2871  0.1221  0.3955
62834W        W19075  10.398  21.957  12.553  0.1061  0.1865 -0.0261
62835W        W19076  32.908  24.819  19.756 -0.3021 -0.0334 -0.3155
62836W        W19077  13.246  12.398  13.325 -0.0891  0.2172  0.1698
62837W        W19078  16.608   9.949  18.234 -0.0019 -0.0900 -0.2909
62838W        W19079  18.738   6.149  25.535  0.0475 -0.2559  0.1103
62839W        W19080  22.688  20.151  16.227 -0.2551  0.1472 -0.0503
62840W        W19081  28.690   0.301  18.596 -0.0350 -0.0153  0.0771
62841W        W19082  25.360  13.033  11.303 -0.0188  0.2026 -0.0621
62842W        W19083   9.343   4.753   2.809  0.2590 -0.2351 -0.3269
62843W        W19084   2.937  32.997  19.760 -0.2682 -0.1901  0.3180
62844W        W19085   0.478   0.123   9.141 -0.0878 -0.1753 -0.4571
62845W        W19086  23.069  33.106   6.304 -0.2284  0.1382  0.0364
62846W        W19087  24.258  33.668   3.060 -0.1090  0.1549 -0.0420
62847W        W19088  10.642  30.754   5.462  0.3701  0.0700 -0.3169
62848W        W19089  17.377  11.113   2.251  0.0069  0.0379  0.4765
62849W        W19090  11.119  15.873  25.658  0.0081 -0.0355 -0.1498
62850W        W19091  26.089   6.619   1.991 -0.0312  0.0481 -0.2687
62851W        W19092  22.252  15.404   1.605 -0.2138 -0.1797 -0.1898
62852W        W19093  17.257  15.288   3.562  0.1365  0.3010 -0.2517
62853W        W19094   8.933  30.250  16.197 -0.2517 -0.0293 -0.2906
62854W        W19095  15.544  28.619   3.389 -0.2708 -0.0491 -0.1195
62855W        W19096   2.598  12.459  13.579  0.0172 -0.1190  0.1888
62856W        W19097  13.546   6.344  21.018  0.0188  0.2017 -0.2844
62857W        W19098  27.334  24.362  24.580 -0.2337 -0.1519  0.1050
62858W        W19099   6.543  19.952   5.640  0.0832  0.0097 -0.3869
62859W        W19100  32.711  13.920  19.957  0.2414  0.2253  0.2287
62860W        W19101  19.554   6.887  19.868  0.0394 -0.0602 -0.0795
62861W        W19102  24.606  21.877  13.272  0.1405 -0.1021  0.4183
62862W        W19103   7.524  27.034   5.750 -0.1008 -0.3471  0.0593
62863W        W19104  23.506  24.327   3.322 -0.3104 -0.0222 -0.1152
62864W        W19105   6.144  31.891  13.269  0.2800  0.3244 -0.0811
62865W        W19106   5.223   5.627   3.819  0.0414  0.0055 -0.1930
62866W        W19107  12.942   6.661  14.080 -0.1303  0.0291 -0.1407
62867W        W19108   8.898   0.220   2.225  0.1142  0.3171 -0.2342
62868W        W19109  31.273  13.460  19.781 -0.1152  0.0853  0.3082
62869W        W19110  11.490  16.620  11.799 -0.1367 -0.2501 -0.3181
62870W        W19111  20.526  29.179  21.500 -0.0151  0.3028 -0.0503
62871W        W19112  10.964  18.879   5.437 -0.1427 -0.1667 -0.1816
62872W        W19113  14.460  27.740  10.437  0.0307 -0.3830 -0.4507
62873W        W19114  33.333  26.197  23.456  0.1932 -0.1800  0.0656
62874W        W19115  32.387  32.236  24.902 -0.1139  0.1040 -0.0760
62875W        W19116  34.582  22.335   0.859  0.1000  0.4070 -0.2913
62876W        W19117   8.333  32.560  23.829  0.0472 -0.0634  0.0687
62877W        W19118   0.099   9.009   0.302  0.2024 -0.0043  0.0466
62878W        W19119   9.302  24.234   7.839 -0.0091 -0.2880 -0.4418
62879W        W19120   2.663  21.027  22.891 -0.3877  0.0139 -0.4088
62880W        W19121   6.957  13.919   7.106  0.1745 -0.3352  0.0059
62881W        W19122  31.388  12.091  15.092 -0.0522  0.0652  0.0001
62882W        W19123  26.301  31.474  21.489 -0.1893 -0.0937  0.0107
62883W        W19124  31.419   3.451   0.102 -0.1994 -0.0774 -0.1934
62884W        W19125  17.445  28.186  25.417 -0.1411 -0.1515  0.0746
62885W        W19126   6.715  12.934   0.629 -0.1651  0.0327 -0.2139
62886W        W19127  30.479  15.450  13.664 -0.4501  0.2482 -0.0912
62887W        W19128  21.438   0.931   8.011 -0.0535  0.1422  0.0925
62888W        W19129   6.329   7.399  20.800  0.0089 -0.3146 -0.0122
62889W        W19130  18.201   2.811  19.818  0.0928  0.1808  0.0878
62890W        W19131   9.880   9.742  13.688  0.0260 -0.2805 -0.0040
62891W        W19132  33.967  10.915   0.954 -0.2468  0.0003 -0.0822
62892W        W19133  15.056  17.718  10.930 -0.0530 -0.4255  0.0507
62893W        W19134  21.910  29.730  16.724 -0.2467 -0.0567  0.0221
62894W        W19135  27.174  18.271   6.372  0.0413 -0.0131  0.2393
62895W        W19136  11.539  10.366   0.396  0.1245 -0.1751 -0.1211
62896W        W19137  33.194  22.989   1.073  0.1540 -0.1558 -0.1204
62897W        W19138   1.167  19.526   1.030 -0.1598  0.1271  0.4122
62898W        W19139  26.570   3.593  14.484 -0.0409 -0.0063 -0.0840
62899W        W19140  15.928  30.751   0.075 -0.1879 -0.1141 -0.1719
62900W        W19141  18.890  32.921   7.372  0.0470  0.1131 -0.0136
62901W        W19142  18.206   1.359   8.755  0.0451 -0.0682 -0.1628
62902W        W19143   0.555  34.489   1.779 -0.2609  0.3343 -0.1089
62903W        W19144  17.005  27.799  22.749  0.1048  0.1585  0.1163
62904W        W19145   9.209  11.687  25.467  0.1183  0.0952 -0.3520
62905W        W19146  10.910  17.394  10.624 -0.0685 -0.2564  0.1322
62906W        W19147  31.042  14.573  21.396  0.0312 -0.1732  0.1405
62907W        W19148  12.587   2.030   1.944 -0.1744 -0.3809  0.0856
62908W        W19149  20.518  17.677   7.058  0.0912  0.2396  0.0974
62909W        W19150  34.594  18.196   1.406 -0.0179  0.1338  0.2317
62910W        W19151  19.427  12.159   2.213  0.2403  0.1925  0.2286
62911W        W19152  16.948  14.299  25.732  0.0124 -0.2381  0.0316
62912W        W19153  28.390  28.045  24.020  0.1018  0.0262 -0.0966
62913W        W19154   4.008  14.355   3.528 -0.3979 -0.0654  0.3248
62914W        W19155  22.786  16.413  21.660 -0.0862 -0.1927  0.2499
62915W        W19156  31.305  12.872  14.403  0.1412 -0.0993 -0.2463
62916W        W19157   7.793   2.400  14.907 -0.1517  0.0527  0.0227
62917W        W19158   8.825  18.231   0.075 -0.1433  0.0606  0.2600
62918W        W19159  25.144  11.382  25.415  0.2450 -0.0261 -0.2027
62919W        W19160  17.054  13.660  21.027  0.1093 -0.0696 -0.2780
62920W        W19161  33.218   2.117   5.761  0.2411 -0.1215  0.1695
62921W        W19162   3.114  17.054  23.208  0.0137  0.0207 -0.1238
62922W        W19163  33.985  19.397  12.688 -0.0798 -0.0075  0.0200
62923W        W19164  22.346  31.873  16.802  0.3935 -0.0344 -0.1016
62924W        W19165  34.669  14.111   9.961  0.1134  0.0345  0.1885
62925W        W19166  11.907  33.763   7.557  0.0945 -0.1137  0.0630
62926W        W19167  29.187  26.618  21.457  0.1501  0.2978 -0.2766
62927W        W19168  27.172  21.799  21.743  0.4514 -0.1149  0.2385
62928W        W19169   6.072  24.067  21.047 -0.1606  0.0421  0.1435
62929W        W19170  23.392  20.181  15.612 -0.0229 -0.0394  0.0335
62930W        W19171  23.049  19.776  15.656 -0.1347 -0.1422  0.1108
62931W        W19172   6.460   2.975  19.554 -0.1366  0.0175 -0.0214
62932W        W19173  16.482  17.048   3.423 -0.2251  0.1279  0.1280
62933W        W19174   4.985  24.369   4.713  0.2285  0.1763  0.1683
62934W        W19175  29.475   6.161  22.324  0.3605  0.0512  0.1089
62935W        W19176  22.278   7.109  18.471 -0.0021  0.0326  0.0301
62936W        W19177  22.691  17.876  25.799  0.1445  0.0475 -0.0163
62937W        W19178   8.760  24.604   8.689  0.0955 -0.0636  0.0671
62938W        W19179  14.953  34.229   7.801 -0.2764 -0.0905 -0.1106
62939W        W19180   5.476  34.587   2.576 -0.3647  0.3378  0.0096
62940W        W19181  16.372  14.246  19.839 -0.0283  0.3354 -0.0199
62941W        W19182  28.748   7.561  17.505 -0.1258 -0.2089  0.0353
62942W        W19183  18.969  34.339   7.886  0.0511 -0.2837 -0.3962
62943W        W19184   5.450  35.263  11.025  0.3044 -0.0865  0.2172
62944W        W19185   1.053  14.353  19.739  0.0144 -0.0520 -0.1358
62945W        W19186  29.802   8.853   1.312 -0.1891 -0.0704  0.0135
62946W        W19187  25.953  15.616   0.260 -0.3658 -0.0124 -0.1652
62947W        W19188   2.872  10.364  14.979  0.0547  0.3599 -0.0567
62948W        W19189  32.920  32.058  18.631  0.3218 -0.1068  0.1056
62949W        W19190   9.474  15.497   1.477  0.1882  0.0097 -0.0749
62950W        W19191  15.940   3.423   6.202 -0.0464 -0.0584 -0.2430
62951W        W19192  21.800   4.975   1.682 -0.0467 -0.1352 -0.1858
62952W        W19193  24.629  23.213  23.387  0.0841 -0.3771 -0.2858
62953W        W19194   6.341  23.332   4.478  0.1489 -0.3989  0.4359
62954W        W19195   2.224  18.433  14.175  0.0235  0.2120  0.1397
62955W        W19196  14.692  15.454  23.194 -0.3247 -0.3263 -0.1486
62956W        W19197  18.791  12.764   9.354  0.0579 -0.0737 -0.0480
62957W        W19198  18.889   0.902   7.084 -0.1283 -0.0689 -0.1855
62958W        W19199  15.680  20.035  11.329 -0.0922  0.0654  0.3072
62959W        W19200  21.356   0.140  19.626  0.0495  0.3094  0.1364
62960W        W19201  17.790  16.642  26.221  0.2649  0.0277  0.1653
62961W        W19202   3.353  26.822  19.658 -0.0449  0.0784  0.2643
62962W        W19203  16.323  32.032   9.309  0.2969 -0.0573 -0.0513
62963W        W19204  25.408  32.380  20.946 -0.1021  0.0047 -0.1580
62964W        W19205  19.377   5.145   6.926  0.0316 -0.0729 -0.1825
62965W        W19206   6.431   0.104   3.977 -0.0507 -0.1373 -0.0894
62966W        W19207  11.886  15.305   5.975  0.1565 -0.1078  0.2494
62967W        W19208  14.409  15.336  12.484  0.0965  0.0959  0.0065
62968W        W19209   5.741  26.220   4.694  0.1413  0.2072  0.1923
62969W        W19210   7.416   4.683  21.205  0.1492  0.2677  0.3093
62970W        W19211  14.021   1.271  22.240 -0.3512  0.0430 -0.1370
62971W        W19212   4.623  26.173   9.700  0.1171  0.0143  0.2695
62972W        W19213   0.724  19.159  18.825 -0.0467 -0.2041  0.1322
62973W        W19214  32.804   2.477  17.646 -0.1278  0.2466  0.0992
62974W        W19215  31.613   8.147  12.906  0.1363 -0.0032 -0.0774
62975W        W19216   9.001  29.129   2.239  0.0658 -0.1133 -0.0082
62976W        W19217  14.403  24.072  25.927  0.0702  0.0212 -0.0968
62977W        W19218  17.188  11.831  13.587  0.0038  0.1580 -0.2217
62978W        W19219  26.914  21.857  16.138  0.0936 -0.0167  0.1647
62979W        W19220  19.700  10.078  23.530  0.0670  0.0670  0.2339
62980W        W19221  18.148  17.245   6.250 -0.2654  0.3418  0.2011
62981W        W19222   6.907   5.575  19.601 -0.1140 -0.1104  0.4650
62982W        W19223  35.050  35.269   6.028  0.0052  0.2229  0.0983
62983W        W19224   8.372  30.597   1.316  0.0713  0.2002  0.2808
62984W        W19225  33.474   6.975  22.015  0.2370  0.2212 -0.0774
62985W        W19226  19.046  27.836  21.728 -0.0609 -0.0801 -0.0488
62986W        W19227  18.106   4.800  24.232  0.1161  0.1553 -0.3701
62987W        W19228   0.063   6.432  20.024 -0.1228  0.2695 -0.1355
62988W        W19229   9.023  30.589  14.375 -0.0764 -0.0005 -0.2084
62989W        W19230   8.976  23.168   6.046 -0.3260 -0.1513  0.0142
62990W        W19231  10.343  30.072   4.876  0.0096 -0.1874 -0.1453
62991W        W19232   5.026  32.111   7.411  0.0791 -0.3648  0.0576
62992W        W19233   9.917  34.293   9.476 -0.0889  0.1459  0.1914
62993W        W19234  20.776  16.515  26.101 -0.1222  0.1570  0.0310
62994W        W19235  20.923   0.233   0.705 -0.0844 -0.3575 -0.3501
62995W        W19236  22.857  34.057   2.929  0.0146  0.2247 -0.0182
62996W        W19237  30.317  10.184   8.151  0.0305  0.0507  0.0195
62997W        W19238  27.571   3.234   4.728 -0.2246 -0.3018 -0.2177
62998W        W19239  11.363  11.908   3.191  0.3754 -0.1237 -0.3437
62999W        W19240  33.580  21.852  11.442 -0.2987  0.0483 -0.0795
63000W        W19241   7.439  34.203  25.468 -0.1517 -0.2919 -0.0565
63001W        W19242  11.980   4.529  18.839 -0.1506  0.2720 -0.0546
63002W        W19243   2.344  23.620   1.929  0.0036  0.2192  0.1973
63003W        W19244  10.919  29.068  25.915  0.3198 -0.0565 -0.0039
63004W        W19245  29.292  11.376  21.727 -0.1831  0.1583  0.0865
63005W        W19246   0.685  17.019  25.158  0.1487  0.3552  0.1111
63006W        W19247   1.769  29.399  20.342  0.0417  0.0423  0.0449
63007W        W19248  27.325   6.124  10.841 -0.0347  0.0995  0.1312
63008W        W19249   5.553  15.518  19.287  0.0514 -0.0033  0.1559
63009W        W19250   2.451   1.761   3.569 -0.3278  0.0183  0.0344
63010W        W19251  11.365  20.434  13.934 -0.1857  0.1094 -0.3989
63011W        W19252  29.125   2.520  20.653 -0.0003 -0.1123 -0.3943
63012W        W19253   0.710  20.185  24.016  0.0453  0.0553 -0.0111
63013W        W19254  19.929  29.050  19.638 -0.0044 -0.0028 -0.2295
63014W        W19255  17.390  28.069   0.999  0.0094  0.0164 -0.1367
63015W        W19256  31.457   9.899  24.311  0.2132  0.0018 -0.0081
63016W        W19257  13.444  21.430   5.159  0.2247 -0.0352 -0.2249
63017W        W19258  28.525   0.821   3.739 -0.2837  0.0605 -0.1357
63018W        W19259  34.536  30.439   2.068  0.1004  0.2104 -0.0334
63019W        W19260   6.875  18.045   7.253 -0.2222  0.1068  0.1765
63020W        W19261  32.613  29.127   1.837 -0.1457 -0.1391  0.2156
63021W        W19262  22.415  13.997  18.149  0.1030  0.2040  0.1095
63022W        W19263  33.363  29.554  13.828  0.0016  0.4123  0.0987
63023W        W19264  33.620  35.190  22.457 -0.1239 -0.0697  0.1324
63024W        W19265  32.755  22.912  13.939 -0.0524  0.2349  0.0761
63025W        W19266   7.124  32.368  25.355  0.0574  0.1552 -0.1442
63026W        W19267  30.501   4.207   2.743  0.1800  0.0395  0.5946
63027W        W19268  29.990  25.267  10.772 -0.1218  0.2070 -0.0489
63028W        W19269  25.753  29.861  15.744  0.0997 -0.1165  0.4766
63029W        W19270   7.915  10.128   2.882  0.0275  0.3028 -0.1148
63030W        W19271   1.933  32.665  22.665  0.0889 -0.0580 -0.2754
63031W        W19272  23.564  22.652  24.040 -0.0673 -0.1659 -0.0233
63032W        W19273  28.663   0.789   0.865 -0.0543 -0.1977  0.0776
63033W        W19274  22.033  16.764  15.473  0.1229 -0.1664 -0.1601
63034W        W19275   0.470   6.099  13.038  0.0815  0.1472 -0.0265
63035W        W19276   2.268  27.253  23.559  0.1718  0.1374 -0.2635
63036W        W19277  16.669  33.315   9.091  0.0782 -0.0243  0.5704
63037W        W19278  17.724  16.586  10.867 -0.0802 -0.2041 -0.1109
63038W        W19279  15.751  18.064   4.866  0.0011  0.1001 -0.0480
63039W        W19280  12.384  27.901  25.799 -0.2121 -0.0970 -0.0867
63040W        W19281  32.791  17.862  16.586 -0.1220  0.5409  0.1453
63041W        W19282   0.722  29.933  23.634  0.2585 -0.1168  0.1714
63042W        W19283  19.895  14.795   3.145 -0.0448  0.1261 -0.0982
63043W        W19284  26.053  28.789  25.468 -0.0648 -0.0358 -0.0147
63044W        W19285  12.659  24.368   7.439  0.4964  0.1394 -0.2204
63045W        W19286  14.259  20.262   6.549 -0.1703  0.0275  0.0568
63046W        W19287  32.077  32.135  20.105 -0.0546 -0.0372  0.0577
63047W        W19288   4.281  27.102   4.982 -0.2903  0.1135 -0.1493
63048W        W19289  27.095  31.866   4.622 -0.0312 -0.3030  0.2718
63049W        W19290  33.895  28.284   0.094  0.1392  0.1323 -0.1099
63050W        W19291  25.239  30.519  13.683 -0.2203 -0.0966  0.0934
63051W        W19292  28.029  21.487  20.492 -0.1830 -0.2004 -0.2839
63052W        W19293   4.964  10.204  20.694  0.1747  0.1768  0.2229
63053W        W19294  22.372  20.327  19.750 -0.1086  0.0880 -0.5280
63054W        W19295   0.338  26.102  22.484  0.0017 -0.2210  0.0713
63055W        W19296  13.699  22.453  17.658 -0.1118 -0.0348 -0.1183
63056W        W19297   1.042  22.427  10.262 -0.0766 -0.2977  0.3448
63057W        W19298  22.937  29.069  16.358  0.1489 -0.4046  0.0336
63058W        W19299  28.549  29.969  21.560 -0.1898 -0.0882  0.2087
63059W        W19300   3.499   7.277  20.064  0.0148 -0.0251 -0.2734
63060W        W19301  10.871  26.480  11.411 -0.1743 -0.5871 -0.0577
63061W        W19302  16.961   7.546   6.115  0.1593 -0.2186 -0.0216
63062W        W19303  14.454  32.566  13.531  0.3699  0.0050 -0.0759
63063W        W19304  11.000   0.709  20.218 -0.3085  0.0983  0.1361
63064W        W19305  20.395  31.970  18.674  0.2530 -0.1572  0.1806
63065W        W19306  23.920  34.217   1.300  0.1547 -0.0343  0.1513
63066W        W19307  17.308  16.856  24.666 -0.2064  0.0147  0.0060
63067W        W19308  27.917  23.786  22.206  0.2200  0.2446 -0.3106
63068W        W19309  33.678  26.828  19.215 -0.1531 -0.0300  0.0390
63069W        W19310  10.000  30.515   6.037  0.1305 -0.1045  0.0645
63070W        W19311  23.593   3.007  22.541  0.1835  0.0386 -0.1402
63071W        W19312  33.884  28.265   3.176 -0.3050 -0.1790  0.1188
63072W        W19313   3.582   6.335   5.603 -0.2584 -0.0222 -0.0809
63073W        W19314  30.678  34.980  14.699  0.4526  0.2037 -0.0235
63074W        W19315  20.395  28.734   5.290 -0.2079 -0.2350  0.0024
63075W        W19316   6.992  32.455   0.148  0.0040  0.1428  0.4073
63076W        W19317  16.707  20.999   5.844 -0.2129  0.0460  0.0309
63077W        W19318  27.740   0.845   1.570 -0.0135 -0.1555 -0.0713
63078W        W19319  14.333  21.597   8.531 -0.1131  0.0307 -0.2889
63079W        W19320  17.882  15.986  22.060  0.0998 -0.4789 -0.0083
63080W        W19321   9.936   5.562  14.035 -0.0699 -0.2249  0.0230
63081W        W19322   3.182  31.963   4.368 -0.0315  0.0010 -0.3199
63082W        W19323  27.744   0.950  17.980 -0.4156  0.3477  0.0621
63083W        W19324  14.105   8.069   8.360  0.1063  0.0117  0.1037
63084W        W19325   7.076  18.593  11.114  0.2400  0.0845 -0.0798
63085W        W19326   8.501   2.026  24.557 -0.0703 -0.1928 -0.0324
63086W        W19327  20.856  15.320  20.218  0.1877  0.0175  0.0142
63087W        W19328  11.901  25.952   1.127  0.0209 -0.3066 -0.0150
63088W        W19329   1.214   9.011  23.666  0.1323 -0.2946 -0.2798
63089W        W19330  12.688   6.970   0.758 -0.0622  0.1269  0.1522
63090W        W19331  15.962  20.473   2.516  0.1372  0.0380  0.1101
63091W        W19332  32.844  33.070  15.141 -0.1417 -0.1465 -0.2287
63092W        W19333  33.015   3.670   4.355  0.3644  0.1896 -0.0464
63093W        W19334  25.807  26.395   0.318 -0.0733  0.0585 -0.0025
63094W        W19335   4.183   7.533   1.179 -0.0228 -0.3059 -0.2882
63095W        W19336  27.176  10.658  14.162 -0.3352  0.0521  0.2547
63096W        W19337  30.528  12.539  21.049  0.0462 -0.2552  0.1650
63097W        W19338   7.016  21.471   1.663  0.1497 -0.0099 -0.2728
63098W        W19339  16.665  20.729   3.651  0.1390 -0.0504  0.0933
63099W        W19340   8.896  22.932   4.045 -0.2276 -0.2270  0.2709
63100W        W19341  30.343  33.419   1.235  0.1128 -0.1109  0.3088
63101W        W19342  18.053   7.665   1.334  0.2818  0.3269  0.1251
63102W        W19343  30.902  30.834  25.148 -0.0322  0.2130  0.2674
63103W        W19344  32.140   2.314   2.999  0.1949  0.1460 -0.1169
63104W        W19345  15.999   6.753  26.219  0.2713 -0.0824  0.0400
63105W        W19346  16.031  21.014   9.231 -0.1007  0.0476  0.1894
63106W        W19347  20.469  23.863  19.095  0.2457 -0.2679  0.1520
63107W        W19348  23.539   6.815   1.362 -0.0185 -0.1766  0.0704
63108W        W19349   8.718  33.993   4.725  0.1665 -0.0509 -0.1625
63109W        W19350  14.521   1.652  11.444  0.1492  0.2615  0.1434
63110W        W19351  32.916  19.790  20.857  0.0031  0.3457 -0.1052
63111W        W19352   6.424   6.308   7.518 -0.1006 -0.1107 -0.2345
63112W        W19353  32.863  17.803  22.127  0.2992  0.5105 -0.1366
63113W        W19354  22.924  29.503  15.923  0.0285 -0.2575 -0.0309
63114W        W19355  11.444  16.076  12.439  0.0792 -0.1669  0.1960
63115W        W19356  31.375   4.112  12.748  0.0434  0.0876 -0.0114
63116W        W19357  14.097   6.131  21.721  0.0191  0.0184 -0.0678
63117W        W19358  23.757  21.265   1.318  0.0823 -0.0211  0.0146
63118W        W19359   0.734  17.764   2.000 -0.0367 -0.1862 -0.0728
63119W        W19360   8.481  21.136  13.113 -0.1789  0.0241  0.1909
63120W        W19361  14.130   5.618   9.590  0.1613  0.3738  0.1866
63121W        W19362  13.077  10.078   3.209  0.2633 -0.0918 -0.3225
63122W        W19363  28.536  23.136  13.489  0.1954 -0.2522  0.0756
63123W        W19364  27.886   2.369   4.562 -0.1319 -0.1905 -0.2470
63124W        W19365   0.174  26.134  15.201  0.0346 -0.3990 -0.1264
63125W        W19366  10.360   3.711  20.895  0.0417  0.1602 -0.0191
63126W        W19367  17.395  17.419  10.534 -0.0343  0.4586  0.2459
63127W        W19368  16.324   1.693   1.022 -0.0918 -0.4058  0.0765
63128W        W19369   5.712  26.050   3.158 -0.2587  0.0662 -0.1313
63129W        W19370   9.937  22.247   0.104 -0.1215  0.1031 -0.1586
63130W        W19371   6.780  31.030  22.584  0.0958 -0.0367 -0.0986
63131W        W19372  19.964  20.333  20.595  0.1093  0.1528  0.0228
63132W        W19373  34.342   6.886  18.641 -0.0193  0.2258  0.0448
63133W        W19374  23.855   5.970  20.027 -0.0038 -0.1195 -0.1034
63134W        W19375  32.986  28.433   5.291 -0.0080 -0.1262  0.1224
63135W        W19376  27.212  18.649   9.156  0.2000  0.0003 -0.3661
63136W        W19377  32.123  28.511  22.062 -0.3288  0.0784  0.0596
63137W        W19378  21.312   3.057  23.406 -0.2812  0.0736  0.1610
63138W        W19379  32.286  21.101  21.608 -0.1118  0.1502  0.0041
63139W        W19380  31.742   3.386  18.525 -0.2002 -0.2452 -0.0654
63140W        W19381  33.501   7.920   1.325 -0.1967 -0.1085  0.2490
63141W        W19382  34.079  32.692  22.354 -0.1790 -0.0235 -0.0396
63142W        W19383  31.827  12.053   8.856  0.0295  0.5770  0.0307
63143W        W19384  31.162  19.229  21.158 -0.0698 -0.2607 -0.2425
63144W        W19385  22.934   7.333  17.504 -0.2643 -0.0812 -0.2296
63145W        W19386  26.945   3.037   0.990  0.1069 -0.2420  0.2868
63146W        W19387  30.043   7.901  17.794 -0.1927 -0.0999  0.0140
63147W        W19388  13.107  20.584  25.756 -0.0207  0.0891 -0.0541
63148W        W19389  28.653  10.988  15.053 -0.2330 -0.1256  0.2412
63149W        W19390  17.164  17.089  11.965  0.1882  0.0312 -0.0864
63150W        W19391  29.620  22.463  15.595  0.0749 -0.1478  0.0465
63151W        W19392  15.826  16.764  12.419 -0.0635  0.1372 -0.0240
63152W        W19393  13.204  19.847   7.411  0.0597  0.0468 -0.0527
63153W        W19394  27.371   5.467  24.441  0.3121  0.2105  0.0361
63154W        W19395  29.651   3.873  24.705 -0.1880 -0.0489 -0.2351
63155W        W19396  16.663   1.247  24.161 -0.0234 -0.0205 -0.1292
63156W        W19397   8.691  26.341   9.564 -0.5807 -0.1128 -0.0696
63157W        W19398   9.439  31.138  10.752 -0.0793 -0.0076 -0.0258
63158W        W19399  32.010  10.499  21.312  0.1486 -0.1917  0.4328
63159W        W19400  20.696  31.929  16.788 -0.0709  0.1085 -0.2272
63160W        W19401  10.671   2.186  20.697 -0.0539 -0.0841 -0.1314
63161W        W19402  28.406  18.621   6.674 -0.3220  0.1015 -0.0883
63162W        W19403  20.580   3.204  18.678 -0.3373  0.1965 -0.2430
63163W        W19404  24.276  33.590   4.493  0.1416  0.3823 -0.0855
63164W        W19405  11.793  10.440  24.686  0.1864  0.0149  0.1819
63165W        W19406  32.428   5.646  24.550 -0.1905 -0.2511  0.1672
63166W        W19407  16.938   2.052   2.775  0.4498 -0.0968  0.1059
63167W        W19408   7.994  12.249  23.693 -0.1854 -0.0240  0.0685
63168W        W19409  24.973  33.873  11.865  0.0242  0.3178 -0.0899
63169W        W19410  32.499   4.611  23.679 -0.1356 -0.0783 -0.1389
63170W        W19411  34.522   2.479  20.822 -0.0069  0.0395 -0.0097
63171W        W19412  24.843  15.197  18.193  0.1517 -0.0268 -0.0642
63172W        W19413  35.020  30.111  20.798  0.0447 -0.1300 -0.0508
63173W        W19414   8.698  32.516  22.879 -0.2113  0.2375 -0.0153
63174W        W19415  17.177  29.468   9.939  0.2836  0.2154 -0.1933
63175W        W19416  27.768   5.572  22.247  0.1903  0.0831 -0.1253
63176W        W19417   4.260  29.318   1.774  0.1253  0.0863  0.1729
63177W        W19418  15.841   5.420   3.021 -0.3640  0.0290  0.1565
63178W        W19419  34.101  30.208   2.066 -0.0176 -0.0062 -0.0080
63179W        W19420  15.399  27.933  23.757  0.0861 -0.1856  0.1273
63180W        W19421  26.438  19.044  22.299 -0.0148 -0.2570 -0.1313
63181W        W19422  13.528  27.236  22.881 -0.0191  0.0735 -0.0800
63182W        W19423  15.705   7.880  26.238  0.0067 -0.1655  0.0600
63183W        W19424   6.029   4.650  23.347 -0.1634  0.0766 -0.1980
63184W        W19425  22.701  16.443  16.766  0.1391 -0.1867 -0.0095
63185W        W19426  18.673   1.930  25.147  0.0418  0.1070 -0.0982
63186W        W19427  13.479  26.424   2.391  0.2204 -0.0412 -0.0491
63187W        W19428  22.411   6.123  21.682  0.1847  0.1107 -0.0950
63188W        W19429   8.863  26.358  17.240  0.1785 -0.1574  0.1033
63189W        W19430  18.991  12.638   4.462 -0.2237 -0.0463 -0.1729
63190W        W19431   6.890  27.852  24.121 -0.1245 -0.1539 -0.0798
63191W        W19432   9.910  33.501  22.468  0.0995  0.0258  0.1278
63192W        W19433  33.931  27.523   0.434 -0.2446  0.1361  0.0510
63193W        W19434  31.262   6.529  16.269 -0.2824  0.0511 -0.0630
63194W        W19435  25.761  29.210  22.762 -0.0455  0.3518 -0.0836
63195W        W19436   0.136  26.381  18.583 -0.1712 -0.1934 -0.0406
63196W        W19437   5.292  12.032   2.861 -0.0425 -0.3213  0.1461
63197W        W19438  30.828  15.604   6.462  0.2560 -0.0980  0.3909
63198W        W19439  13.946   8.982   8.948 -0.1360 -0.1944 -0.1622
63199W        W19440   5.797   2.194   2.286 -0.0293 -0.2975 -0.2694
63200W        W19441  19.739  13.432  25.134  0.0503  0.0721 -0.1746
63201W        W19442   3.195  19.864  19.984  0.0378  0.1640 -0.0062
63202W        W19443   9.285  12.086  24.630 -0.2951  0.0466  0.0091
63203W        W19444  19.201   8.087  22.271 -0.0764 -0.2482  0.0090
63204W        W19445   6.376  13.547  17.773 -0.1422  0.0621  0.2425
63205W        W19446   5.520  20.314  25.527  0.1255 -0.0925  0.0329
63206W        W19447   1.891   2.080   7.027 -0.0710  0.0126 -0.4657
63207W        W19448  13.744  17.350  22.114 -0.0527  0.0437 -0.0844
63208W        W19449   0.641  25.081  17.684  0.0430 -0.1275 -0.3060
63209W        W19450   9.389  27.732  14.886  0.0773  0.2956  0.3148
63210W        W19451  24.156   4.637  21.396  0.1906  0.0605  0.3537
63211W        W19452   2.105   0.964  20.251 -0.1370  0.3428 -0.3538
63212W        W19453  23.322  35.336   5.800  0.0590 -0.0565  0.0560
63213W        W19454  33.089  30.945  15.833  0.1189 -0.2204 -0.1829
63214W        W19455  11.951  22.082  11.583  0.1327  0.1228  0.0481
63215W        W19456  29.871  10.888  16.207 -0.2907 -0.1010 -0.2498
63216W        W19457  24.572  24.664  13.574 -0.1136  0.1508 -0.1927
63217W        W19458   0.183   9.892  23.329 -0.1372  0.0072 -0.0924
63218W        W19459   9.387   4.643   6.501  0.2540  0.0012 -0.0358
63219W        W19460  14.674   5.824   2.458 -0.1593  0.3208 -0.3227
63220W        W19461  22.893   8.383   5.093 -0.1595 -0.2323  0.1367
63221W        W19462  33.230  30.681  22.117 -0.2367  0.0339 -0.3785
63222W        W19463  22.206  23.266  15.444 -0.0862 -0.2917  0.3777
63223W        W19464  19.134  35.302   6.557 -0.0682 -0.0687 -0.0498
63224W        W19465  21.207  24.945  21.024 -0.2621 -0.0057 -0.1119
63225W        W19466  14.711  34.680   7.628 -0.2580 -0.2621  0.2294
63226W        W19467   5.635  14.277  23.128  0.1952  0.1781 -0.4909
63227W        W19468  20.496  12.955   4.636 -0.1040  0.3314  0.3221
63228W        W19469  34.643   9.762  24.961 -0.1933  0.0036 -0.5488
63229W        W19470  19.786  19.342   8.029  0.4006  0.1478  0.1457
63230W        W19471  14.359  13.192   8.832  0.4220  0.0312  0.0897
63231W        W19472  18.020   4.183   6.682 -0.3199  0.0684  0.4918
63232W        W19473  32.517   2.013   0.288 -0.0255  0.1024  0.0135
63233W        W19474  26.865  30.638  17.288  0.2047 -0.2333  0.0220
63234W        W19475  26.094   7.886  19.001 -0.0877  0.2334  0.3139
63235W        W19476  25.514   6.243   2.931 -0.0961 -0.2143  0.0359
63236W        W19477  32.438  12.946   8.502 -0.1694 -0.0106  0.2580
63237W        W19478   2.698  27.196   6.075  0.1889  0.0573  0.1524
63238W        W19479  32.265   2.144  14.994  0.0173 -0.0417 -0.0322
63239W        W19480  30.109  11.224  18.044 -0.0256  0.0416 -0.1796
63240W        W19481  12.520  29.114   8.379  0.0673  0.0971 -0.0001
63241W        W19482  10.764  14.954  24.394  0.0454 -0.1341 -0.3024
63242W        W19483  15.021  29.543  11.094 -0.2178 -0.3553  0.0926
63243W        W19484   9.129  28.291   3.324 -0.0671 -0.2480 -0.0240
63244W        W19485  30.724  30.236  26.245 -0.1041  0.1703 -0.1405
63245W        W19486  21.002  15.079   5.740 -0.1496 -0.0498 -0.0646
63246W        W19487  28.384  21.133  22.750 -0.1153 -0.0529 -0.0579
63247W        W19488  30.270  18.527  15.790 -0.0661 -0.0257  0.2521
63248W        W19489  10.928  31.024   1.632 -0.0041  0.0002 -0.3086
63249W        W19490   5.366  25.440   7.034 -0.0345 -0.0626 -0.0425
63250W        W19491  19.345  20.148   9.427 -0.0141  0.2663  0.0490
63251W        W19492   5.056  24.789  22.950 -0.0922  0.1977 -0.0230
63252W        W19493  27.696  19.911   9.904 -0.2249 -0.2116 -0.3605
63253W        W19494  29.291  22.210  17.240 -0.2900 -0.1247  0.0742
63254W        W19495  12.879  12.036   5.006  0.3076 -0.1770  0.0245
63255W        W19496  11.775   1.784  24.048 -0.0995 -0.2152  0.1793
63256W        W19497  12.390  28.937   6.882 -0.1766  0.0777 -0.3634
63257W        W19498  11.243   9.178   5.920 -0.0193  0.1069 -0.1009
63258W        W19499  10.770   1.863   6.768 -0.0975 -0.1673  0.3480
63259W        W19500  30.944   2.400   6.966  0.2986 -0.1964  0.0130
63260W        W19501  32.346  32.621  16.106 -0.2650 -0.0612  0.1725
63261W        W19502  33.508  22.344  12.566 -0.1235  0.1240 -0.2175
63262W        W19503  30.675  19.856  10.083 -0.2075 -0.0516  0.0609
63263W        W19504  34.798   9.136  13.101  0.1618  0.1026 -0.1031
63264W        W19505  30.926  27.740   2.058  0.0061  0.2071 -0.0834
63265W        W19506   0.663   1.108  22.151  0.0462 -0.1458 -0.2345
63266W        W19507   0.771  29.713  19.578 -0.2564 -0.0495 -0.1143
63267W        W19508  16.241  13.986   8.685  0.0177  0.0299 -0.1413
63268W        W19509  12.701  19.756   8.427 -0.0758 -0.0558  0.1872
63269W        W19510  31.183  19.455  20.217  0.2718 -0.1689 -0.4706
63270W        W19511  15.951  25.017   0.195  0.0160 -0.1676  0.0475
63271W        W19512  10.456  34.548  21.146 -0.0202  0.0652  0.0101
63272W        W19513  20.568  21.260  25.662  0.1641  0.1538 -0.2022
63273W        W19514  20.811   8.325  23.915 -0.1356 -0.2851  0.3278
63274W        W19515  10.346  24.021   2.630  0.0086 -0.0107  0.1547
63275W        W19516   8.546   0.105  12.355  0.2697  0.2689  0.2890
63276W        W19517  20.964  21.478   0.410  0.3164  0.3328  0.2809
63277W        W19518  17.306   7.589  19.622  0.0193  0.0339 -0.0909
63278W        W19519  32.364   1.991  22.836  0.2121  0.0743  0.0661
63279W        W19520  21.124  13.452   1.389  0.0357 -0.0894 -0.0745
63280W        W19521   1.350  22.333  18.410  0.0211 -0.2399 -0.1032
63281W        W19522  29.290  16.729  23.292  0.0797 -0.6096 -0.1329
63282W        W19523  31.053   8.257  22.840  0.0783 -0.4053 -0.1862
63283W        W19524  11.203   1.255  23.072 -0.1621 -0.2298 -0.0369
63284W        W19525   5.842  33.122   0.700  0.1830 -0.0821  0.2085
63285W        W19526  15.858  10.388  23.983 -0.0934 -0.2449 -0.0889
63286W        W19527  22.191  25.041  24.344  0.0161 -0.1413  0.0864
63287W        W19528  33.302   1.765   3.430 -0.1106 -0.1059  0.1443
63288W        W19529  12.250  12.253  19.726 -0.1376 -0.0284 -0.0546
63289W        W19530  26.487   5.083  23.499  0.1767 -0.3386  0.1757
63290W        W19531  32.733  33.233  13.310 -0.1629 -0.3506 -0.0069
63291W        W19532  20.891  23.353  24.652  0.3837  0.1897  0.1121
63292W        W19533  11.128  15.687  25.013  0.2530 -0.1091 -0.1255
63293W        W19534   8.943  25.132  10.787  0.0723  0.2317  0.2310
63294W        W19535  23.752  19.502  25.637 -0.2292 -0.2306 -0.1681
63295W        W19536   8.986   4.385   0.655  0.0487 -0.1399  0.0574
63296W        W19537  31.571   7.087   1.814  0.0365 -0.3662 -0.1771
63297W        W19538   2.634   1.240   4.034  0.0450  0.0154 -0.3560
63298W        W19539   6.679   0.862  24.298 -0.2801  0.0814 -0.1817
63299W        W19540   1.518  13.042   0.470  0.0396  0.4874 -0.2619
63300W        W19541  29.390  31.517  26.196  0.0898  0.1397  0.0718
63301W        W19542   6.387  27.700   1.554  0.0625 -0.3325  0.0066
63302W        W19543  27.013   6.026  23.297  0.2777  0.1877 -0.2657
63303W        W19544  33.586  11.938  19.120 -0.1528 -0.0253 -0.3096
63304W        W19545  23.720  16.370  25.332 -0.3528 -0.2441  0.2364
63305W        W19546  29.592   6.772  21.822 -0.2221 -0.0815  0.1806
63306W        W19547  13.302  28.662   5.674  0.1518 -0.0906 -0.0166
63307W        W19548   1.835   0.862   3.379 -0.0503 -0.1590  0.3537
63308W        W19549  18.841  32.644  25.480 -0.0549  0.0315  0.0596
63309W        W19550   0.963   2.499  19.662  0.3679 -0.1450  0.3708
63310W        W19551   3.449  22.561   4.713 -0.1675  0.0820  0.1643
63311W        W19552  15.528  14.435   8.259  0.0572 -0.1344  0.0506
63312W        W19553  24.414  32.039  10.374  0.0712  0.2686  0.2102
63313W        W19554  12.103  10.932   0.131  0.0853  0.0607  0.1213
63314W        W19555  14.482   6.824   5.784 -0.1167 -0.1468  0.1377
63315W        W19556  12.892  15.857  23.447  0.3505 -0.1464  0.3175
63316W        W19557  27.007  29.416  26.073  0.0751 -0.1122 -0.1567
63317W        W19558   7.046   2.773  10.730 -0.1654 -0.3706  0.0898
63318W        W19559   9.856   0.429  13.471 -0.1150  0.2388  0.0954
63319W        W19560   3.180  15.962  20.194  0.2365 -0.2671  0.0073
63320W        W19561  17.310   1.097  17.471 -0.0642  0.0710 -0.2685
63321W        W19562   8.339   1.384   7.972  0.0179  0.3167 -0.1491
63322W        W19563   4.404  25.066  23.143  0.0571 -0.1216 -0.2852
63323W        W19564   8.497  10.775   4.200  0.1808 -0.1100  0.0810
63324W        W19565  12.847  29.641  15.898 -0.3005 -0.0298 -0.1139
63325W        W19566  10.649  17.947   6.423 -0.2097 -0.0704 -0.0607
63326W        W19567  26.908  32.838  14.913 -0.0900 -0.2589 -0.1412
63327W        W19568  15.330  17.199  20.563  0.0052  0.0133  0.0614
63328W        W19569   0.701   3.306  20.720  0.2607 -0.0845 -0.0408
63329W        W19570  12.521  11.517   6.479 -0.0904  0.1530 -0.1452
63330W        W19571   3.010  21.925  22.670  0.2072  0.2121  0.0583
63331W        W19572  21.071  22.230   4.348  0.0241  0.0684  0.4486
63332W        W19573   4.579  17.958   5.910  0.4912 -0.2396 -0.0573
63333W        W19574   7.880  27.753  16.036  0.1689  0.6103 -0.4139
63334W        W19575   0.272   3.150  18.896  0.0894 -0.0963 -0.1558
63335W        W19576  31.462   6.195  16.941 -0.0361  0.0321 -0.2769
63336W        W19577   2.928  24.562  21.576  0.3056  0.1978  0.0131
63337W        W19578   8.956   8.033   7.194 -0.0719 -0.1267  0.0449
63338W        W19579  13.817  34.426   4.661 -0.0769  0.0656  0.2090
63339W        W19580  22.525  26.214  25.198  0.0203 -0.1008  0.0938
63340W        W19581  17.691  14.362   9.003  0.2130 -0.0708  0.3185
63341W        W19582   9.974  24.450   0.213  0.2035  0.0196  0.0799
63342W        W19583  17.285  18.277  12.639 -0.1410 -0.1911 -0.0947
63343W        W19584   3.079   7.158   0.325 -0.1225  0.2898  0.2599
63344W        W19585   9.565  14.446   8.730  0.0516  0.0322 -0.0630
63345W        W19586  32.253  25.572  18.091  0.3017 -0.1797 -0.2984
63346W        W19587  24.024  27.492  22.491 -0.0487  0.2244 -0.0329
63347W        W19588  16.238  28.367  22.719  0.1131  0.0781  0.2005
63348W        W19589   1.753  26.769   5.057  0.2074  0.1835  0.1147
63349W        W19590  12.420  20.645   7.932  0.0622  0.3442 -0.3342
63350W        W19591  23.184  11.729   1.645  0.0411 -0.1623  0.1163
63351W        W19592  13.840   7.085  10.579  0.1230  0.1703 -0.0960
63352W        W19593   2.353  23.752  24.042  0.0929 -0.1976 -0.1236
63353W        W19594  31.659  27.938  11.356  0.1437  0.0335 -0.1133
63354W        W19595  22.249  21.478  23.810  0.2036  0.4297  0.2229
63355W        W19596   9.373   6.244  14.525  0.0101 -0.1454  0.3492
63356W        W19597  19.049  24.455   9.326  0.4434 -0.1986  0.2349
63357W        W19598   9.756  14.450  19.860  0.0336 -0.2626 -0.0952
63358W        W19599  12.032  27.551   5.805 -0.0692  0.2186  0.1006
63359W        W19600  20.139   8.498  22.017 -0.1413 -0.2867  0.1685
63360W        W19601  24.149  24.327  23.655 -0.1625 -0.4093  0.0547
63361W        W19602  26.694  17.969  24.064  0.0907  0.1754  0.0394
63362W        W19603  11.685   9.161  12.978 -0.0057 -0.0942 -0.0649
63363W        W19604  20.687  30.819  16.891  0.0229  0.0962  0.1055
63364W        W19605  12.365  12.911  25.549  0.1561 -0.1327  0.0886
63365W        W19606  23.179  30.510   5.732 -0.2322 -0.1428 -0.3063
63366W        W19607  28.874  17.158   9.518 -0.1620 -0.2478 -0.3323
63367W        W19608  34.967   1.508   8.325 -0.0858 -0.1502  0.1074
63368W        W19609  34.672  17.798  14.402  0.0720  0.2243 -0.1162
63369W        W19610  27.268  16.533   5.762 -0.2611  0.1413  0.1938
63370W        W19611  16.472  14.120   3.601  0.0182 -0.1295  0.3836
63371W        W19612   5.435  28.724   2.080  0.0153  0.0026  0.0311
63372W        W19613  19.567  26.150  24.648  0.4086  0.1068 -0.2177
63373W        W19614   6.882  11.947   2.637  0.0651 -0.1195 -0.1882
63374W        W19615  12.468  32.396  10.034  0.1676  0.2484 -0.2663
63375W        W19616  13.871   6.627  20.670  0.1035 -0.2886  0.2618
63376W        W19617   6.251  25.729  23.969  0.0920  0.3072 -0.3223
63377W        W19618  15.352  27.056  11.805  0.2987  0.1497  0.1191
63378W        W19619   9.860  16.309  20.280 -0.4070 -0.0770  0.2074
63379W        W19620  17.217  24.254  24.993  0.0775  0.3317  0.2851
63380W        W19621  26.085  14.647  10.513  0.1599  0.1195  0.1211
63381W        W19622  31.483   8.006  11.541 -0.0665 -0.0198 -0.0077
63382W        W19623  34.043   8.208  19.546 -0.0839 -0.0235  0.0259
63383W        W19624  10.623  24.302  13.800  0.0462  0.2091  0.3423
63384W        W19625  18.751  13.997  22.523 -0.0562  0.1332 -0.0937
63385W        W19626   1.449  27.441   6.964 -0.2481 -0.2512 -0.1689
63386W        W19627  27.470  26.421  11.474 -0.0406 -0.0108 -0.1308
63387W        W19628  29.283  12.672  11.465  0.1704 -0.0053  0.1124
63388W        W19629  13.142  25.731   0.373  0.0333  0.1552 -0.2562
63389W        W19630  27.061   9.079   8.559 -0.2150  0.0212 -0.2144
63390W        W19631  21.869  26.115   2.805 -0.3215 -0.0796  0.1586
63391W        W19632  22.395  25.710   1.976 -0.0523 -0.2617 -0.0656
63392W        W19633  30.797  25.615  10.855 -0.2249  0.0195  0.0353
63393W        W19634  16.798  15.100  19.898 -0.0049  0.0068 -0.0045
63394W        W19635  26.668  30.134  15.560  0.1470 -0.0417  0.0757
63395W        W19636  34.511   3.880  19.522 -0.4279  0.2238 -0.0519
63396W        W19637   8.102   1.307   7.541  0.2229  0.0259  0.0304
63397W        W19638  21.244  23.093  25.977  0.0455  0.0271  0.1640
63398W        W19639   6.691  22.797   4.941  0.1210  0.0050 -0.1591
63399W        W19640  12.521  11.418  23.463 -0.0709 -0.0608 -0.3333
63400W        W19641  18.704   5.871  24.680  0.1238 -0.1107 -0.1484
63401W        W19642   6.283   9.552  18.332  0.0173  0.0193 -0.2687
63402W        W19643  31.195   7.567  11.484  0.0031 -0.0120 -0.0715
63403W        W19644  26.199   4.934  14.082 -0.0708  0.3964 -0.0968
63404W        W19645  19.598  34.619  17.861  0.1851 -0.3487  0.3652
63405W        W19646  24.232  28.115  11.588  0.1412  0.0575 -0.0770
63406W        W19647  17.743  26.244   4.708 -0.1449  0.4498  0.3017
63407W        W19648  32.606  18.551  19.767  0.1373  0.2289  0.3092
63408W        W19649  14.174  21.926  11.795 -0.0079  0.0074 -0.1936
63409W        W19650   1.936   2.493   6.741  0.0282 -0.2100  0.1333
63410W        W19651  30.981  20.724  16.919  0.0328  0.0816  0.1461
63411W        W19652  13.386  30.180  15.229  0.3866 -0.0825  0.0338
63412W        W19653   8.602   7.058   7.888  0.4340 -0.2410 -0.4099
63413W        W19654   7.661  27.973  24.319 -0.0267  0.0647 -0.0418
63414W        W19655  21.159  16.199   3.371  0.2539  0.0656 -0.1062
63415W        W19656  32.310  21.350  23.137 -0.2043 -0.0183 -0.1288
63416W        W19657  25.136   2.973  19.570 -0.2958  0.0520  0.1593
63417W        W19658   4.973  18.976  17.742  0.0863  0.0085  0.2497
63418W        W19659   4.319  26.045  25.882 -0.1310  0.0805 -0.1639
63419W        W19660  21.513  12.955  21.960 -0.0617 -0.0348  0.0040
63420W        W19661  14.930  33.602  11.550  0.3402  0.0680  0.0391
63421W        W19662  28.156  20.943  24.406 -0.2393  0.0669  0.0108
63422W        W19663  13.444  17.974   0.802  0.1935  0.2714 -0.1770
63423W        W19664  13.570  19.088  12.221  0.2525  0.2006 -0.1102
63424W        W19665  11.038   2.059  25.657  0.1193  0.0818  0.2178
63425W        W19666  34.903   2.192  16.849 -0.0267 -0.1230  0.1092
63426W        W19667   7.935  14.806  20.870  0.1859  0.1979 -0.0289
63427W        W19668  12.286  28.036  23.570 -0.0898 -0.3020  0.1270
63428W        W19669  16.090  17.558  24.029 -0.1346 -0.3184 -0.0561
63429W        W19670  16.456  31.188  11.482 -0.0213 -0.0749  0.2816
63430W        W19671  25.930  12.123  18.345  0.0459  0.1073  0.1039
63431W        W19672  13.815  26.133  23.194 -0.0646 -0.2167 -0.0883
63432W        W19673  27.036   1.466  11.436 -0.0259  0.1100 -0.1968
63433W        W19674  34.867   1.276  14.185  0.2475 -0.0430  0.1206
63434W        W19675  14.206   8.413   4.883 -0.0531  0.0874  0.1544
63435W        W19676   1.666  12.113   1.619 -0.0533  0.1485 -0.0152
63436W        W19677  28.106   9.182  23.170 -0.0264  0.1786  0.0550
63437W        W19678  34.905  32.208   1.814  0.2529  0.1751  0.2230
63438W        W19679   5.291  16.750  23.793 -0.0815 -0.1271  0.0837
63439W        W19680  25.714  25.143  15.262 -0.0568  0.0641 -0.0638
63440W        W19681  19.993  19.317  24.469 -0.2409  0.2594  0.0736
63441W        W19682  14.611   6.171  10.567 -0.1115  0.0741 -0.3747
63442W        W19683  22.741  16.058  26.094 -0.0504 -0.0691 -0.0657
63443W        W19684   0.081  18.518  12.536 -0.3240 -0.1464 -0.1051
63444W        W19685   2.213  25.984  19.272 -0.1865 -0.0365 -0.0380
63445W        W19686  10.291  19.271   3.215 -0.1420  0.1652  0.0671
63446W        W19687   0.382  12.183   1.213  0.2437 -0.0709 -0.2054
63447W        W19688  24.372  26.887  16.484 -0.2586 -0.4368 -0.3556
63448W        W19689  18.921   4.072  24.266 -0.3090  0.0573  0.0121
63449W        W19690   0.334  16.926  25.547  0.2486 -0.1331  0.0652
63450W        W19691  15.157   2.208  18.853 -0.0323 -0.1660  0.0283
63451W        W19692   1.266  20.633  18.290  0.2996 -0.1518  0.3958
63452W        W19693   9.816   1.155  12.516  0.1944  0.0250  0.0778
63453W        W19694  34.345  17.689  24.179  0.2021  0.1527  0.3765
63454W        W19695   3.835  18.171  19.923  0.0704  0.1362  0.1016
63455W        W19696   0.095  27.253   5.464 -0.0754  0.2770 -0.0637
63456W        W19697  28.029  34.058   1.410 -0.0934  0.2307 -0.2486
63457W        W19698  29.088   7.533  15.202  0.1565  0.0736 -0.3012
63458W        W19699  14.656  21.896   4.473 -0.0229 -0.2047  0.1653
63459W        W19700  34.603  10.128  14.329 -0.1747  0.0143 -0.0243
63460W        W19701  20.663  17.204  24.349  0.2138  0.2350 -0.2545
63461W        W19702  28.378  27.721  16.354  0.0888  0.2188  0.0637
63462W        W19703  27.467  23.070  18.280 -0.0447 -0.1023  0.1992
63463W        W19704  30.897  11.306   7.924  0.2641 -0.1153  0.2306
63464W        W19705  17.797  22.482  22.048  0.2489  0.0917 -0.2694
63465W        W19706  20.935   9.769  23.081  0.1296 -0.1374 -0.0926
63466W        W19707   4.006   7.191   6.851 -0.1001  0.1953 -0.1761
63467W        W19708  27.025  24.489   9.313  0.2785 -0.0917 -0.1148
63468W        W19709   0.558  20.254  10.837  0.1769  0.2951 -0.4010
63469W        W19710  33.067  32.505   3.909 -0.0352 -0.1184 -0.2736
63470W        W19711   5.694  17.346  21.718  0.1014  0.1927  0.0496
63471W        W19712  26.103  31.545   4.739  0.1407 -0.0164 -0.0013
63472W        W19713  18.589  20.757  20.248 -0.1846 -0.1116 -0.1764
63473W        W19714  15.147   1.589  20.493 -0.2008 -0.0281 -0.1733
63474W        W19715  12.440  33.532  12.507  0.1605 -0.3569  0.0333
63475W        W19716  23.486   0.470  15.148 -0.0941 -0.0825 -0.1159
63476W        W19717  11.330   2.784  20.168  0.0789 -0.1166 -0.0533
63477W        W19718  20.651  27.749  25.336 -0.0765 -0.0001  0.0232
63478W        W19719   6.398  27.265   8.638 -0.0595 -0.2487  0.1128
63479W        W19720  32.766  33.576   5.545  0.1180 -0.2219 -0.0651
63480W        W19721  35.044  13.609  18.084  0.2277  0.2667  0.0854
63481W        W19722  13.781  17.685   0.065  0.1898 -0.1792  0.0574
63482W        W19723  13.401   5.797  21.736 -0.1330  0.4308 -0.0556
63483W        W19724   9.274   3.236   1.636 -0.1646 -0.2147 -0.0912
63484W        W19725  24.491   3.412  16.055 -0.0624 -0.1314 -0.0239
63485W        W19726  12.789  29.670  12.923  0.0651  0.2706 -0.1170
63486W        W19727  27.051   9.021  18.081 -0.1418  0.1038  0.1151
63487W        W19728  21.349  20.970  22.216  0.0413  0.1567 -0.1599
63488W        W19729   5.560  34.083  10.383  0.1632 -0.2359 -0.4845
63489W        W19730  23.433  33.967  22.196  0.0386 -0.1796 -0.0648
63490W        W19731  13.759   2.824  21.228 -0.0877 -0.0462  0.1660
63491W        W19732  33.025  19.528   9.214  0.2588  0.2895 -0.3324
63492W        W19733  22.111  29.075  25.984 -0.0666  0.0415  0.3179
63493W        W19734  27.686   7.285  19.036 -0.0304 -0.0045 -0.0037
63494W        W19735  14.038  34.478  10.552  0.0888 -0.0110  0.3924
63495W        W19736  15.763  16.727   1.630 -0.0116  0.3701 -0.3360
63496W        W19737   3.689  16.034  24.937 -0.2379  0.1447 -0.2128
63497W        W19738  17.331  31.034  24.606 -0.3231 -0.1066 -0.1345
63498W        W19739  32.926   6.990  13.594 -0.1264 -0.0377  0.3555
63499W        W19740  12.278  19.519   1.972  0.0866 -0.4922  0.0539
63500W        W19741  19.067   2.371   6.961 -0.0407  0.0413  0.1544
63501W        W19742  22.378  28.525  23.384  0.0028 -0.1060 -0.2506
63502W        W19743  21.958  14.698  21.079  0.0761  0.1879 -0.1670
63503W        W19744  28.410   1.004  22.138 -0.1873  0.0553 -0.0944
63504W        W19745   9.762  22.526   6.046 -0.1523 -0.0470  0.0821
63505W        W19746  32.982   7.954   0.142  0.1974 -0.2602  0.2536
63506W        W19747  18.075  34.816  21.492  0.0104 -0.2627  0.0864
63507W        W19748  30.490  15.809   9.463  0.0844 -0.0239  0.0979
63508W        W19749  33.426   7.072  19.098 -0.2316 -0.2187 -0.0019
63509W        W19750  20.948  22.828  23.500 -0.2843 -0.2775 -0.3451
63510W        W19751  14.489  24.904  10.103  0.3076  0.0385 -0.0951
63511W        W19752  21.095  23.372   0.117  0.1093 -0.0404  0.0445
63512W        W19753  12.570   8.090  10.112  0.0337 -0.1612  0.0302
63513W        W19754   5.793  17.662  25.247 -0.2080  0.0927  0.1459
63514W        W19755   0.647  23.187  24.447  0.0418 -0.2083 -0.0831
63515W        W19756  12.302   7.291   4.055  0.0012 -0.0355  0.2738
63516W        W19757  29.058  20.939  21.854 -0.1208  0.2150  0.1922
63517W        W19758  26.864  14.365  20.951 -0.0309  0.1752  0.1585
63518W        W19759   2.944  28.993  24.638 -0.0988 -0.4238  0.1486
63519W        W19760  33.016  20.004  17.919  0.2575  0.1513 -0.5160
63520W        W19761  13.250  13.484  25.587  0.3257  0.1174 -0.1372
63521W        W19762  23.796  12.750  13.581 -0.1044 -0.0361  0.1725
63522W        W19763  27.891   2.171  14.547  0.2294  0.2561  0.1907
63523W        W19764  14.208   4.233  25.020 -0.3659 -0.2565 -0.1205
63524W        W19765   9.214   2.746   5.658 -0.1036  0.2926 -0.1308
63525W        W19766   8.871  13.302  12.782 -0.2702  0.2749  0.0842
63526W        W19767   1.064   4.149  22.814  0.0726  0.2070 -0.0258
63527W        W19768  31.823  24.479  15.277  0.1142 -0.0619  0.0617
63528W        W19769  21.029  12.470  17.566  0.0395  0.0412  0.0841
63529W        W19770  17.216  22.402  22.111 -0.0442  0.2733 -0.1964
63530W        W19771  16.098  31.778  10.104 -0.3134 -0.0313 -0.0527
63531W        W19772  15.664  29.980  23.278  0.1935  0.0298  0.2100
63532W        W19773  17.325  20.237   0.926  0.0455  0.1349 -0.1278
63533W        W19774   3.541   8.919  25.671  0.2913 -0.1029  0.1092
63534W        W19775  16.619  18.606   7.871 -0.1111 -0.2080 -0.0787
63535W        W19776  15.538  16.479   8.492  0.0822 -0.0819  0.2604
63536W        W19777   7.171   8.158   2.761 -0.1282  0.2330  0.0617
63537W        W19778  13.043  27.754  15.803 -0.0986 -0.2058  0.0193
63538W        W19779  16.110  26.062  23.048 -0.0678  0.2352 -0.0391
63539W        W19780  11.746  27.430   0.744  0.0929  0.0969 -0.0473
63540W        W19781   8.178  24.333   0.988 -0.1968 -0.4078  0.0848
63541W        W19782  33.083   0.064  19.224  0.2056  0.0733 -0.4715
63542W        W19783   9.217  17.561  10.650  0.0506  0.1628 -0.0573
63543W        W19784  13.960   4.131   4.604 -0.0314 -0.0593  0.3735
63544W        W19785  29.193  26.324  20.911  0.0066  0.3060  0.0283
63545W        W19786   0.548  23.980   0.559 -0.0927  0.1198  0.1343
63546W        W19787  16.793  28.986   5.573  0.0771  0.2324  0.1162
63547W        W19788  16.456  12.105  22.672 -0.3245  0.0455  0.1113
63548W        W19789  24.048  30.424   3.762  0.3265 -0.3653  0.1501
63549W        W19790   1.778   4.737   4.829  0.2168  0.2292  0.1184
63550W        W19791  34.073  31.485   6.149  0.0957  0.2798 -0.2419
63551W        W19792  29.891  13.871   9.148  0.2142  0.0428 -0.1156
63552W        W19793   7.626   8.223   6.799 -0.1913  0.1042 -0.1245
63553W        W19794   3.950  13.680  15.318 -0.3938 -0.2871 -0.1779
63554W        W19795  15.906  16.869   6.277 -0.4030  0.1894  0.1417
63555W        W19796  30.764  33.860  22.542 -0.2508 -0.0030 -0.1452
63556W        W19797  18.794  23.752  25.240  0.2680  0.0731 -0.1802
63557W        W19798  14.319  15.931   3.169  0.1957  0.0165 -0.0259
63558W        W19799  32.140   6.917   4.657 -0.0482 -0.0833 -0.3456
63559W        W19800  20.171   2.563  25.255 -0.0602 -0.0762 -0.0825
63560W        W19801  28.560  33.670  23.776  0.3643 -0.0475  0.0616
63561W        W19802  11.117  11.692  10.794  0.1881 -0.2239  0.3464
63562W        W19803   7.593  25.476  16.030 -0.2972 -0.0092  0.1304
63563W        W19804  27.944  18.542  12.993  0.0503 -0.1600  0.1116
63564W        W19805  33.493   9.694  11.867  0.1847 -0.4685 -0.2443
63565W        W19806  20.252   0.434  23.615 -0.1218 -0.0159  0.4636
63566W        W19807  12.040   0.112   1.843 -0.0802 -0.1187  0.0502
63567W        W19808  22.381  34.204   6.816  0.1004 -0.0417  0.0364
63568W        W19809   4.242   9.242  15.820  0.0547 -0.3225 -0.1314
63569W        W19810  26.825  27.921  15.194  0.2564 -0.3524  0.0122
63570W        W19811  26.345  29.035  21.647  0.1002  0.4804  0.3745
63571W        W19812  32.541   1.262   5.803  0.3410 -0.0534 -0.0734
63572W        W19813  33.130  33.413  17.370  0.2217 -0.1648 -0.1453
63573W        W19814   4.529  34.467  24.387 -0.2045  0.1167  0.2444
63574W        W19815   7.318  11.949  19.964  0.1107  0.1750  0.1333
63575W        W19816   4.502  34.993   0.295  0.2161  0.1726 -0.1990
63576W        W19817  21.822  31.917  25.920 -0.0977 -0.0163  0.0573
63577W        W19818  11.519   4.102  21.427 -0.3782  0.1915  0.3584
63578W        W19819  11.199  14.330  10.584 -0.0852 -0.1931  0.4644
63579W        W19820  13.772  16.733   9.404  0.2266  0.2506  0.0028
63580W        W19821   7.249  35.057   5.080  0.2602 -0.0275 -0.2204
63581W        W19822  29.097   6.826  11.890  0.1947 -0.3264 -0.1630
63582W        W19823   3.082  30.566  23.990 -0.1412 -0.1201 -0.3435
63583W        W19824  11.986  22.717   9.844  0.1635  0.0939  0.0666
63584W        W19825  22.992  28.721  18.853 -0.2882 -0.1373 -0.1890
63585W        W19826  30.313  12.449  23.716  0.0753 -0.0792 -0.0012
63586W        W19827  11.539   2.614  24.533  0.0619 -0.1421 -0.0300
63587W        W19828  14.319   7.492   9.917 -0.2672  0.0705  0.0177
63588W        W19829  12.098  30.328   0.008 -0.0655  0.1027 -0.2235
63589W        W19830  16.746   9.170  19.052  0.1243 -0.0568 -0.2065
63590W        W19831  21.493  32.460  22.615  0.4087  0.2221  0.0813
63591W        W19832  29.954   8.521  11.658 -0.0879  0.0991 -0.0257
63592W        W19833  25.122  20.647  10.130 -0.1400 -0.0773 -0.2824
63593W        W19834  22.269  10.803  17.967 -0.3960 -0.1662  0.0860
63594W        W19835  13.813  18.670  21.424 -0.0407  0.1786 -0.1398
63595W        W19836  24.577   8.909  20.666  0.2052  0.3147  0.4020
63596W        W19837  20.478   8.727  21.582 -0.0638  0.3673 -0.0294
63597W        W19838  28.491   4.630  15.292 -0.0304  0.2144 -0.2155
63598W        W19839  35.183   7.366  23.909  0.2136 -0.0928  0.2279
63599W        W19840  14.739   1.076   0.002  0.3986 -0.0719 -0.4507
63600W        W19841  20.979  18.888  22.656  0.0131  0.0477 -0.0666
63601W        W19842  26.195  12.468  11.640  0.0512  0.0668 -0.2518
63602W        W19843  29.787  25.461   9.328 -0.0304 -0.1385  0.0914
63603W        W19844  20.796  32.041   3.049 -0.0339 -0.1509 -0.0371
63604W        W19845  15.737   3.566  18.908  0.1362 -0.3271 -0.0057
63605W        W19846   5.803   9.178  17.210  0.0275 -0.1493  0.0035
63606W        W19847  31.532  12.924  12.388 -0.1520 -0.3713 -0.2126
63607W        W19848  30.597  20.200  14.712 -0.4782 -0.0295 -0.0425
63608W        W19849   6.073  27.824  10.666  0.3462  0.2483 -0.0533
63609W        W19850  16.141  11.877   7.079  0.7713 -0.0316 -0.0616
63610W        W19851  12.325  20.564  24.611  0.1011  0.1588  0.0260
63611W        W19852  20.082  16.641  24.030 -0.2014  0.1308  0.2553
63612W        W19853   4.244  32.597   5.008  0.1004 -0.3548  0.1055
63613W        W19854  19.211  30.378  25.967  0.0794 -0.2363 -0.1900
63614W        W19855  12.606   7.203   3.207  0.1193 -0.2664 -0.2166
63615W        W19856   3.077  34.715   5.443 -0.0622  0.3241  0.0831
63616W        W19857  21.863  32.716   5.692  0.0742 -0.0331 -0.2451
63617W        W19858  33.634  13.059  24.836  0.1074  0.0269  0.2911
63618W        W19859  24.932  24.726  14.908 -0.0256 -0.0710  0.0090
63619W        W19860  13.303  32.886  10.237  0.0241  0.4238  0.0591
63620W        W19861   5.678   9.130   1.351  0.1995 -0.0855 -0.2782
63621W        W19862   3.872  33.115   7.709 -0.1489 -0.0402 -0.1418
63622W        W19863  33.050  34.996  17.514 -0.0752 -0.2409  0.0365
63623W        W19864  31.130  17.404  24.370  0.0571  0.4598  0.1942
63624W        W19865  34.241   4.257  19.825 -0.0156 -0.0510 -0.1680
63625W        W19866  31.979   3.817  21.223  0.0051 -0.1989 -0.1875
63626W        W19867   9.521   3.634  13.828 -0.1278 -0.0120  0.0467
63627W        W19868  10.290  28.578  11.048 -0.0070 -0.0266  0.0082
63628W        W19869   5.822  22.464  20.841 -0.2293  0.3461  0.1760
63629W        W19870  18.912  18.929   6.078 -0.2088 -0.0041 -0.1245
63630W        W19871   7.825  32.558  11.084 -0.0138 -0.0174  0.3513
63631W        W19872   9.945  34.460   5.587  0.2140  0.0556  0.0306
63632W        W19873  18.441   9.467  17.959  0.3048  0.1197 -0.2159
63633W        W19874  29.391  26.140  18.313 -0.3764  0.0595  0.3124
63634W        W19875   8.066  30.974  24.269 -0.1665 -0.2038  0.1213
63635W        W19876   8.669  22.713   1.853 -0.0007 -0.3030  0.1456
63636W        W19877  11.982  26.553  11.315  0.0055  0.0420 -0.1024
63637W        W19878   7.400  13.449  18.685 -0.1237 -0.0912 -0.0795
63638W        W19879  22.842  27.469   0.258 -0.2283 -0.2258  0.0349
63639W        W19880  16.288  17.696  20.080 -0.1392 -0.0795  0.2999
63640W        W19881  23.845  33.957  22.716  0.3097 -0.2624 -0.1841
63641W        W19882  28.419  31.420  13.051 -0.0278 -0.0338  0.1359
63642W        W19883  23.832  26.157   0.667  0.3669 -0.0806 -0.1791
63643W        W19884  32.305  22.304  22.222 -0.0733  0.1030 -0.1297
63644W        W19885  35.291  15.735  23.785 -0.0463 -0.1013  0.1118
63645W        W19886   4.804   8.294   2.389  0.1317  0.3815  0.3499
63646W        W19887  15.652  33.890   2.035  0.1958  0.0887 -0.3524
63647W        W19888  11.940   2.029  22.647  0.0015 -0.1181 -0.0863
63648W        W19889   2.911   9.852   5.179  0.0358  0.0291  0.2771
63649W        W19890  33.885   5.277   0.815 -0.0899  0.1586  0.2530
63650W        W19891   3.977   0.948   6.365  0.1694 -0.2897 -0.2750
63651W        W19892  10.765  10.998  23.726 -0.1731 -0.0439  0.1914
63652W        W19893  12.222   0.811  13.123  0.0898 -0.0355  0.0650
63653W        W19894  30.234  18.890  13.261 -0.2538 -0.3772  0.0940
63654W        W19895  24.215   8.395   1.913  0.1990  0.0138  0.0289
63655W        W19896   2.333  12.135  22.190  0.0869 -0.0077 -0.2634
63656W        W19897  24.472  27.569  11.160  0.0843 -0.4229  0.0074
63657W        W19898   0.689  15.429  24.125 -0.1115  0.0588 -0.0157
63658W        W19899  24.695   1.515   2.025 -0.1818 -0.0412  0.0353
63659W        W19900  10.492   7.726  24.463  0.2893  0.2804  0.1271
63660W        W19901  31.610  31.851   2.925  0.0538  0.1066 -0.1661
63661W        W19902   0.477  34.681   2.789  0.0413  0.1927 -0.4162
63662W        W19903  32.850   1.756  18.973  0.2062  0.2410  0.0822
63663W        W19904   2.755  27.052   7.082  0.0533  0.1482 -0.0596
63664W        W19905  26.314  32.264  14.393  0.2896  0.3547  0.2026
63665W        W19906  27.132  30.845  10.163 -0.1152  0.1497 -0.1210
63666W        W19907  17.979  28.088  21.634  0.1127  0.0435  0.0733
63667W        W19908   8.303  10.002  23.152  0.1583  0.0084  0.1982
63668W        W19909   5.056  30.303   5.790  0.3441  0.1381  0.2340
63669W        W19910  31.249  29.583   5.327  0.0673  0.0542 -0.1131
63670W        W19911   2.607  30.033  25.833 -0.1564 -0.1947 -0.2943
63671W        W19912  31.752  13.972   4.712  0.1876 -0.1695 -0.1015
63672W        W19913   9.059  13.036   4.628 -0.1604 -0.0420 -0.2035
63673W        W19914   8.727  22.980  25.943 -0.0447  0.0252 -0.4158
63674W        W19915   0.476  22.879   0.833  0.1476 -0.0912 -0.1756
63675W        W19916   0.339  14.225  22.006 -0.0311 -0.3617 -0.1252
63676W        W19917  13.707   4.476   7.463  0.1844  0.0240  0.0239
63677W        W19918  18.763   2.796   7.287 -0.1366 -0.1115  0.2972
63678W        W19919  17.295  23.272   2.162  0.1766  0.0857  0.3729
63679W        W19920  15.718  21.757   5.265  0.0080 -0.3231  0.0297
63680W        W19921  10.434  28.533  12.783 -0.0551 -0.3267 -0.1126
63681W        W19922   1.089   3.156  22.080  0.0805 -0.1190 -0.1012
63682W        W19923   7.128  10.805   4.479  0.2187 -0.0654 -0.3373
63683W        W19924  25.321  10.474  21.325 -0.2319  0.1622 -0.0418
63684W        W19925   2.095  32.745   3.105  0.1372 -0.2310  0.1871
63685W        W19926  25.105  32.868   1.380  0.0238  0.1528  0.0051
63686W        W19927   7.987  18.537   5.338 -0.0409  0.2848 -0.0243
63687W        W19928  23.270   3.814   7.397  0.0875 -0.1156  0.0778
63688W        W19929   4.046  34.154   6.684  0.0056  0.1919  0.4299
63689W        W19930  22.595  18.557  23.235 -0.1467  0.2346 -0.0946
63690W        W19931  34.114   7.300  20.678  0.1349  0.0257 -0.1559
63691W        W19932   6.512  17.962  20.968  0.1021  0.0436  0.1604
63692W        W19933  34.881  32.536   1.411  0.0609  0.2301 -0.2531
63693W        W19934   1.369  18.755  13.191 -0.4533 -0.1982 -0.1781
63694W        W19935  28.431  12.015   7.924  0.4731 -0.1680 -0.0559
63695W        W19936  21.787  10.613   1.520  0.3209 -0.2688 -0.0459
63696W        W19937  28.091  21.576   6.865  0.0200  0.2227  0.1198
63697W        W19938   3.668   2.764   3.067 -0.1950  0.1654  0.0311
63698W        W19939  12.344  12.334  18.519 -0.0879 -0.2482  0.1682
63699W        W19940  19.368   1.942  25.728  0.0962  0.1477  0.2970
63700W        W19941  29.625  17.324  16.915  0.0919 -0.1566 -0.0732
63701W        W19942   2.682   8.622  20.188  0.1554  0.2953  0.2089
63702W        W19943   8.729  27.272  25.942  0.0974 -0.2895  0.0275
63703W        W19944  25.575  17.357  19.434  0.1877 -0.1134  0.1503
63704W        W19945  27.230  31.949  13.913 -0.0401  0.3529 -0.0259
63705W        W19946  22.480  34.773   3.490 -0.5085 -0.1222  0.0624
63706W        W19947  23.904  32.440  23.626  0.1338 -0.1318 -0.4736
63707W        W19948  26.729  29.823  12.112  0.0147 -0.1067 -0.0533
63708W        W19949  33.255   9.457   1.988  0.1666  0.1556  0.0596
63709W        W19950  31.947  13.286   9.801 -0.3362 -0.1108  0.3014
63710W        W19951  13.729  33.378  13.634  0.1573  0.1078 -0.1361
63711W        W19952   1.970  23.395  15.873 -0.5638 -0.4324  0.1335
63712W        W19953   8.526  19.774   6.684 -0.1915 -0.1846 -0.0940
63713W        W19954  13.877  31.178   8.948 -0.0477  0.3054 -0.0759
63714W        W19955  11.098  18.460  24.584  0.2535 -0.1598  0.1046
63715W        W19956   9.153   7.209  24.955 -0.1886  0.2829  0.0600
63716W        W19957  21.506   1.967  14.747  0.0188 -0.3722 -0.0140
63717W        W19958  16.490  21.754  23.742 -0.0898  0.1427  0.0821
63718W        W19959  31.601  14.277   6.395 -0.1553 -0.1817  0.0652
63719W        W19960  23.220  12.008  12.176 -0.1715  0.1937  0.0646
63720W        W19961  20.670  13.110  17.425  0.0355 -0.1122 -0.0005
63721W        W19962  20.881  24.362   4.321 -0.0771 -0.1484  0.0553
63722W        W19963  16.564  28.034  13.381 -0.1211 -0.0543 -0.0296
63723W        W19964  13.013  33.441  24.590  0.0612  0.1424 -0.0695
63724W        W19965  30.591   7.048  13.516 -0.1285  0.4767 -0.0868
63725W        W19966   5.332  15.207   4.282  0.1049 -0.2515 -0.2813
63726W        W19967  15.012  26.851  23.341  0.0062  0.0792 -0.1489
63727W        W19968  14.343  15.675   3.789 -0.1637  0.0833 -0.0541
63728W        W19969  35.021  30.187   3.480  0.0226  0.0759 -0.0601
63729W        W19970  19.118  30.761   4.137 -0.0366  0.1243 -0.1315
63730W        W19971  18.576   6.983  25.659 -0.0233 -0.0888  0.1666
63731W        W19972  32.817  13.685  15.860 -0.3094 -0.2274 -0.0896
63732W        W19973  30.988   1.069   2.970  0.0784 -0.1534 -0.2832
63733W        W19974  18.153  11.560   9.596 -0.0580  0.2122  0.3729
63734W        W19975   9.630  16.481  22.833  0.2692  0.2795  0.0168
63735W        W19976  16.203  11.961  24.345  0.1640  0.2884  0.1047
63736W        W19977  17.042  20.195  24.085  0.3371 -0.0373 -0.1499
63737W        W19978  25.488  33.432  21.259 -0.2230  0.2802  0.0408
63738W        W19979  12.698   6.002  19.638  0.0036  0.0449 -0.1469
63739W        W19980  24.153   0.523  20.843 -0.0844  0.1575 -0.2504
63740W        W19981  15.546   7.769  17.765  0.0882 -0.1545  0.1844
63741W        W19982  17.765  29.223  26.018 -0.1801 -0.1882  0.0346
63742W        W19983   3.705  35.134  20.079 -0.5480 -0.2744  0.1157
63743W        W19984  21.153  27.206  17.595  0.1106 -0.3431  0.0482
63744W        W19985  10.184  30.385   1.607  0.3664 -0.2162 -0.0983
63745W        W19986   6.053   5.913   2.681 -0.1204 -0.1322  0.1492
63746W        W19987  20.173  24.849   8.978 -0.1898  0.1027 -0.0723
63747W        W19988  28.113  15.320  25.542 -0.1175 -0.0509  0.2114
63748W        W19989  20.273   8.560   2.446  0.1865 -0.2284  0.0650
63749W        W19990  20.100  27.629   0.750 -0.1745  0.0533 -0.0275
63750W        W19991  24.012  25.120  25.432  0.0089  0.2233 -0.1630
63751W        W19992  35.106  11.991  25.119  0.0818  0.2296  0.3682
63752W        W19993  33.383  16.802  25.257  0.4752 -0.0358  0.3652
63753W        W19994  20.820  17.498  24.706  0.1480  0.2749 -0.3232
63754W        W19995  19.246  28.691  25.519  0.1472  0.0686 -0.1063
63755W        W19996  14.436   5.675   1.412  0.4336  0.2205  0.0492
63756W        W19997  14.201   0.271   8.203  0.0726  0.1698  0.0437
63757W        W19998   5.010   9.714  20.548 -0.2461  0.0495  0.0519
63758W        W19999  17.387  31.756   7.074 -0.2333 -0.0620  0.1839
63759W        W20000  16.634  24.016  25.833 -0.2033 -0.2642  0.3277
63760W        W20001  32.518   4.030  20.769  0.5107 -0.0910  0.2861
63761W        W20002  12.929  16.077   7.850 -0.2812 -0.3014  0.0716
63762W        W20003  26.881  17.875  18.846 -0.2562  0.2232  0.0698
63763W        W20004   7.263  16.910   9.461  0.1718 -0.1108  0.0400
63764W        W20005  10.550  30.656   7.449  0.1583 -0.1806  0.1748
63765W        W20006  34.264  30.391  19.837  0.2074 -0.0857 -0.1743
63766W        W20007  11.254  14.704  22.331 -0.0029  0.0188  0.1592
63767W        W20008  29.922   6.891  12.352  0.0291 -0.2723  0.0306
63768W        W20009  27.130  31.187  22.021 -0.1860  0.2435  0.0074
63769W        W20010   2.700  31.465   6.881 -0.0252  0.0654  0.1621
63770W        W20011  11.613  22.896  16.658  0.2454  0.0489  0.0288
63771W        W20012   6.256  27.224  22.960 -0.0443  0.3048  0.3047
63772W        W20013   7.571  29.019   9.192 -0.2793  0.2695  0.1488
63773W        W20014   7.752  12.340  17.689  0.0562 -0.0233 -0.1950
63774W        W20015  23.715  35.331  19.674  0.1518  0.0443  0.0861
63775W        W20016  20.297  28.543  23.651  0.1471  0.1019  0.2337
63776W        W20017   5.686  27.499  23.056  0.2188  0.3655  0.2989
63777W        W20018  15.116  21.919  10.619  0.0544  0.0923  0.1977
63778W        W20019  25.577   8.888   1.247 -0.0648  0.1542  0.0793
63779W        W20020  26.435  25.357  17.227  0.1233  0.0634  0.0211
63780W        W20021   1.704  16.404  25.573 -0.0342 -0.1356  0.0638
63781W        W20022  19.606  33.871   7.925 -0.2687 -0.2763 -0.0986
63782W        W20023  26.294   6.550   2.963  0.0849  0.0678  0.0950
63783W        W20024  31.837  10.821   9.969 -0.0965 -0.1552  0.0357
63784W        W20025  31.925   5.104   1.739 -0.0807 -0.1778 -0.1150
63785W        W20026   7.395   8.310  19.287 -0.0324  0.2138  0.1397
63786W        W20027  35.011  10.350  20.216 -0.0323  0.2291  0.1148
63787W        W20028  25.574   2.890  21.252  0.0101 -0.1120 -0.2768
63788W        W20029  18.545  27.387   6.144 -0.1464  0.1994 -0.1244
63789W        W20030  15.529  22.812   8.202 -0.2854  0.0850  0.0785
63790W        W20031  32.085  10.842   1.410 -0.3172  0.1015 -0.0887
63791W        W20032  18.767   4.003  22.479  0.3179  0.1742 -0.1084
63792W        W20033   3.137  31.786  23.540 -0.0503 -0.1980  0.0094
63793W        W20034  19.306  12.157  24.635 -0.3398  0.2369 -0.0611
63794W        W20035  26.626   2.144  17.058 -0.3179 -0.3090 -0.1332
63795W        W20036  16.797  21.651   1.585  0.1141  0.0509 -0.1856
63796W        W20037  11.642  31.945  21.505  0.2316 -0.0476  0.2687
63797W        W20038  27.024  22.243  11.140  0.4149  0.0922 -0.2319
63798W        W20039   2.161  21.153  22.187 -0.1435  0.0162  0.2728
63799W        W20040   1.011   1.803  20.171 -0.3461  0.1148 -0.1489
63800W        W20041   9.527  25.362  24.856 -0.0629  0.1254  0.2110
63801W        W20042  18.933   2.659  18.462  0.3342  0.1092  0.0845
63802W        W20043  23.318  11.686   2.624 -0.1583 -0.2502 -0.0430
63803W        W20044  23.736  15.803  23.440  0.2266 -0.1015 -0.1859
63804W        W20045  19.093   9.213  20.056 -0.0928 -0.4425 -0.2448
63805W        W20046  35.138   0.136  19.374 -0.0307 -0.0990  0.2890
63806W        W20047  33.849   5.393  21.525  0.3951  0.0321 -0.2307
63807W        W20048  13.892  24.947  15.726  0.0272  0.1020 -0.0014
63808W        W20049   5.490  31.942  19.993  0.2335  0.2429  0.1184
63809W        W20050  10.587  31.919  23.938  0.1826  0.1133 -0.0595
63810W        W20051  18.752  11.047  22.016 -0.1035 -0.0999  0.2709
63811W        W20052  32.555  14.138   7.718  0.2001  0.0894 -0.1708
63812W        W20053  27.741  12.109   7.095 -0.2020 -0.2066  0.0535
63813W        W20054  10.017  25.747   6.498  0.1494  0.0079  0.0133
63814W        W20055  19.424  28.829  18.922  0.1798  0.2936  0.2822
63815W        W20056   3.836   4.126  21.743  0.0873 -0.2804 -0.0719
63816W        W20057  19.016  34.606  24.644  0.2642  0.0045  0.0773
63817W        W20058  30.222  32.939  13.166 -0.0741  0.0569 -0.0661
63818W        W20059   7.892  16.614  19.633 -0.1513 -0.0431  0.0462
63819W        W20060  17.736  27.215   9.226 -0.4203  0.1671 -0.0309
63820W        W20061  15.614   8.731  10.837 -0.1423  0.1553  0.3181
63821W        W20062  29.061   0.165  20.125 -0.1490 -0.1369  0.0725
63822W        W20063  29.808  24.893   0.465 -0.3716  0.2686 -0.0347
63823W        W20064   8.640  12.502   1.862 -0.1136 -0.1042  0.4892
63824W        W20065  25.388  16.577  10.176 -0.1299  0.3029 -0.0635
63825W        W20066  15.123  11.280  25.422 -0.2508 -0.1583 -0.2421
63826W        W20067  19.773  23.101   6.590 -0.1361  0.2169 -0.2116
63827W        W20068  17.842  28.584  19.745 -0.3028  0.2985 -0.0973
63828W        W20069   2.753  13.934  14.619 -0.2781  0.2198  0.0548
63829W        W20070  28.911  25.517  14.450 -0.0266 -0.0202 -0.3676
63830W        W20071  15.813  13.279  11.112  0.1224 -0.1210  0.1725
63831W        W20072   1.883  29.281  25.420 -0.0092 -0.0563  0.0838
63832W        W20073  13.361  15.476  11.497  0.0734 -0.1774  0.2946
63833W        W20074  17.322  22.811   0.127 -0.1010  0.0043  0.2391
63834W        W20075  16.014  16.199   7.071 -0.2189  0.1149 -0.0988
63835W        W20076  33.954  21.221  25.149 -0.0611 -0.3471  0.1902
63836W        W20077  10.161  18.333   6.635 -0.2235  0.0477 -0.1451
63837W        W20078  27.235   8.702  22.201 -0.0546  0.0354 -0.0059
63838W        W20079  29.263  24.869  22.098 -0.0950 -0.1458  0.0502
63839W        W20080  19.183  32.237  17.700  0.0093  0.1209 -0.2224
63840W        W20081  28.620  16.187   8.282  0.0148 -0.0991  0.3571
63841W        W20082  24.001  22.240  18.712  0.2225  0.0974  0.1654
63842W        W20083  16.165  12.128   1.147 -0.2051 -0.0698  0.0309
63843W        W20084  21.565   8.849   2.625 -0.0283  0.2384  0.1382
63844W        W20085   1.632   9.006   1.309  0.0421 -0.0101  0.1784
63845W        W20086  26.591  11.996  20.117  0.0008 -0.3050  0.2254
63846W        W20087  12.597  10.976  11.331  0.2560  0.1526  0.2667
63847W        W20088  17.128  25.779   5.676  0.0161  0.1400 -0.0470
63848W        W20089  21.585  30.876  16.968 -0.1098 -0.1774  0.3582
63849W        W20090   3.756   5.994  18.388 -0.1918  0.0328  0.0187
63850W        W20091  13.747  15.497   4.973 -0.2452  0.2359  0.3450
63851W        W20092  23.593   4.807  22.385 -0.0021  0.2185  0.1053
63852W        W20093   8.996  18.603  21.608 -0.2280  0.3522 -0.0464
63853W        W20094   4.912   4.880  25.553 -0.5361 -0.1032 -0.1638
63854W        W20095  32.664  20.364  17.761  0.1108  0.0308  0.1698
63855W        W20096  33.787  21.198  15.023 -0.2570  0.0152 -0.2411
63856W        W20097  24.551  31.818  15.577 -0.1312  0.0734  0.2384
63857W        W20098  27.238   1.581  21.102  0.0834 -0.0552 -0.3364
63858W        W20099   6.820  15.210  23.455 -0.2282  0.0730  0.1063
63859W        W20100   0.289   5.111  18.278  0.3160  0.0892  0.0333
63860W        W20101  31.141  20.685   5.420 -0.0754  0.1325  0.2376
63861W        W20102  19.751   5.849  21.342 -0.3995 -0.0871  0.2781
63862W        W20103  13.637  26.060  22.252  0.3378  0.3097  0.3122
63863W        W20104  11.461   2.034  21.318 -0.0934 -0.0142 -0.0290
63864W        W20105   6.055   1.727  20.391  0.1796 -0.0042 -0.1423
63865W        W20106  31.337  15.017   7.087  0.1916  0.1554  0.0974
63866W        W20107   4.922  13.658  20.224 -0.3025  0.2320 -0.1489
63867W        W20108  15.642   5.062  19.658 -0.0146 -0.1975  0.0740
63868W        W20109   0.307   4.095   1.163  0.2522  0.0815  0.1462
63869W        W20110  28.660  12.001  21.907  0.0703 -0.0073 -0.1320
63870W        W20111  21.236  26.415  25.489 -0.1495 -0.0524  0.1864
63871W        W20112  30.729   6.550  25.725  0.2243  0.0897 -0.0176
63872W        W20113   2.063  23.557  20.197  0.1299  0.0937 -0.0667
63873W        W20114   4.434  23.064   1.201 -0.3321  0.1250  0.1294
63874W        W20115   2.544   5.028   8.170 -0.1437 -0.0502  0.4210
63875W        W20116  11.404  20.283   9.554 -0.2535  0.0178 -0.2375
63876W        W20117  13.259   6.081  20.456  0.3131 -0.2908  0.0849
63877W        W20118  27.596  21.417  16.558 -0.1556  0.3665 -0.2225
63878W        W20119  15.711   9.444  22.471  0.0352  0.2261  0.1642
63879W        W20120  27.762  23.975  10.921 -0.5302 -0.0322 -0.0815
63880W        W20121  26.417   0.980  21.908 -0.0172  0.0133 -0.0316
63881W        W20122   5.141  35.236  22.245 -0.1719  0.0018 -0.0245
63882W        W20123  14.909   9.833   6.494 -0.2883 -0.0898  0.1439
63883W        W20124  30.572  14.512  20.498 -0.0733  0.2257  0.0188
63884W        W20125  17.245  10.150  23.389 -0.3301 -0.2501  0.1214
63885W        W20126   1.722  31.809   1.754 -0.1500  0.0126 -0.0551
63886W        W20127  32.665  27.959  25.684 -0.3040 -0.1257  0.2254
63887W        W20128  34.398   0.023  19.635  0.1799  0.0489 -0.2844
63888W        W20129  33.684  22.617  22.311 -0.0967  0.3864  0.0452
63889W        W20130  10.303  26.720  26.131 -0.0793 -0.0035  0.1492
63890W        W20131  30.962  26.892  12.480  0.0271  0.0395  0.2477
63891W        W20132  26.360   3.467  20.743  0.0802 -0.1718 -0.1410
63892W        W20133  19.326  10.779   9.716 -0.1057  0.0281  0.2234
63893W        W20134  16.831  28.256   1.787  0.0897 -0.2462 -0.0207
63894W        W20135  10.375   6.525   4.307 -0.3083 -0.2439  0.0379
63895W        W20136   9.661  13.841   6.745 -0.2053 -0.1888  0.1233
63896W        W20137  10.902  34.521   6.939  0.0974  0.0365  0.1073
63897W        W20138  34.820  20.294  21.201 -0.3846  0.1549 -0.1044
63898W        W20139   5.789  23.856  23.100  0.0298  0.1080  0.1013
63899W        W20140  27.867   0.303  21.584 -0.2145 -0.0502 -0.0166
63900W        W20141   1.824  32.610  19.875 -0.1237  0.1249 -0.1304
63901W        W20142  30.584  33.031  19.588 -0.1746 -0.0583 -0.0746
63902W        W20143   4.238  19.243  17.160 -0.0013  0.2816 -0.1960
63903W        W20144  15.781   4.072   5.308 -0.0349  0.0424 -0.0779
63904W        W20145   1.594  22.041  15.332 -0.1014  0.2353  0.0654
63905W        W20146   7.180   9.510  25.101  0.0852  0.1051  0.2471
63906W        W20147  28.085  30.772   0.397 -0.3002 -0.1246 -0.0827
63907W        W20148  31.890  35.245   2.650  0.0824  0.1148 -0.2335
63908W        W20149   8.851  30.976  11.322  0.0575 -0.0505  0.1189
63909W        W20150   8.434  17.968  19.616  0.0977  0.2892 -0.0002
63910W        W20151  30.020  24.127   0.787  0.0105  0.0175 -0.2336
63911W        W20152  30.598  10.526  16.796 -0.0125  0.1808  0.1038
63912W        W20153   6.961  13.913  18.933  0.6581  0.1606  0.0555
63913W        W20154  32.176  33.708  13.783 -0.0446  0.1852 -0.1954
63914W        W20155  25.349  17.830  20.653 -0.0686  0.1517 -0.3366
63915W        W20156   5.740   5.347   8.271 -0.1454 -0.1074  0.0820
63916W        W20157   8.456  24.067   0.592 -0.3208 -0.1896  0.2851
63917W        W20158  26.923  22.378  12.857  0.2409 -0.0053  0.0707
63918W        W20159  22.866  11.269  22.647 -0.1478 -0.1607 -0.1777
63919W        W20160  16.625  30.954  20.554 -0.0907 -0.0930  0.0523
63920W        W20161  18.733  24.885  20.679  0.2265 -0.2583  0.0174
63921W        W20162  24.788   3.561  16.607  0.2532  0.3727  0.3565
63922W        W20163   4.435   8.332  23.772  0.0691  0.0990 -0.2198
63923W        W20164   4.753  33.081  20.676  0.0022  0.1622  0.0096
63924W        W20165  10.148   4.486  18.718 -0.1100 -0.2299 -0.3517
63925W        W20166   0.778  22.083  17.157 -0.1381  0.2827 -0.0343
63926W        W20167  10.971  24.918  11.435 -0.0575 -0.1666  0.0005
63927W        W20168  29.998   1.113   3.423 -0.2803  0.1497 -0.0961
63928W        W20169  35.209  30.517  19.958 -0.0507  0.0707  0.0765
63929W        W20170   0.565  13.171  25.298 -0.1696  0.0032 -0.0711
63930W        W20171  29.975  21.549  11.262 -0.3855  0.0363 -0.1702
63931W        W20172   7.598   7.959  10.779 -0.2576  0.2439  0.0301
63932W        W20173   8.789  14.222   6.689 -0.1057  0.0466 -0.1805
63933W        W20174   4.216  18.608   2.172 -0.0157 -0.0022 -0.0274
63934W        W20175  25.099  25.611  16.252 -0.0423 -0.0023  0.2163
63935W        W20176  18.622  10.716  22.783  0.0073 -0.1514 -0.1518
63936W        W20177  34.022  33.045   6.163 -0.0198  0.2073 -0.1206
63937W        W20178   0.979  27.774  17.094  0.1538 -0.0938  0.1899
63938W        W20179  29.971  24.582   9.056  0.0862 -0.0604  0.1602
63939W        W20180  35.085   1.693  22.300 -0.2163  0.0825  0.2403
63940W        W20181  16.737  16.134   8.116  0.3934  0.1647  0.0339
63941W        W20182  30.972  34.320  23.469 -0.1630  0.0053 -0.1049
63942W        W20183  27.344   8.455  23.128 -0.4374  0.3611  0.0455
63943W        W20184  33.059  31.197  25.842  0.1004  0.0002 -0.1378
63944W        W20185  31.652  16.966  22.241 -0.1665 -0.3259 -0.2555
63945W        W20186  30.277  27.624  19.555 -0.1923  0.1105 -0.2783
63946W        W20187  28.943   2.240  21.515  0.2287 -0.0348 -0.2970
63947W        W20188  20.561  32.115  19.294  0.0491  0.2809  0.4216
63948W        W20189  15.571  30.710  24.089  0.0915 -0.1513  0.0252
63949W        W20190  31.473   3.269  14.715  0.1267 -0.0072  0.0156
63950W        W20191  15.824  15.288  25.025 -0.1022 -0.0916 -0.1487
63951W        W20192  29.020   3.733  16.474 -0.0727  0.1316 -0.0513
63952W        W20193  28.460  26.754  26.209 -0.0978 -0.0396 -0.1005
63953W        W20194  13.213  16.713  12.962 -0.1196  0.0145 -0.0435
63954W        W20195  15.896  24.497  11.722  0.2929 -0.1388  0.0221
63955W        W20196  24.902  26.065  11.429 -0.1509 -0.2441 -0.2122
63956W        W20197  26.105   1.402   4.331 -0.3246 -0.5555  0.0164
63957W        W20198  22.305  34.126   4.183  0.0567  0.1384  0.1704
63958W        W20199   3.078   4.986  19.767 -0.2586 -0.0592  0.0295
63959W        W20200  30.243  12.964  21.961  0.0178  0.0391  0.0316
63960W        W20201  17.174  22.664   9.833  0.1246  0.1627  0.3266
63961W        W20202  20.993   1.210  22.435 -0.0228 -0.1088 -0.0496
63962W        W20203  27.506  21.538  22.447 -0.0313 -0.0162  0.1594
63963W        W20204  29.360  25.162  17.985  0.1156  0.0487  0.0235
63964W        W20205   1.936  20.498  22.239 -0.2267  0.0726  0.2193
63965W        W20206  22.205   3.230  23.102  0.1644  0.2847  0.3752
63966W        W20207  10.273  28.900  24.044  0.1325 -0.2335 -0.5513
63967W        W20208  24.339  31.706  20.295  0.1826  0.1423  0.3074
63968W        W20209  33.892  29.481  15.495 -0.0823  0.2444  0.0876
63969W        W20210  29.429  23.560  15.093  0.1459  0.2459  0.2664
63970W        W20211  30.980  18.166   6.462 -0.0656  0.0245  0.0305
63971W        W20212   1.147   1.137   1.641  0.0545  0.0328 -0.1717
63972W        W20213  27.225  19.505  11.970  0.3802 -0.1221  0.0364
63973W        W20214  10.094  17.931   2.672 -0.1533  0.0278 -0.1336
63974W        W20215  30.082   0.664  21.425 -0.0259 -0.2347  0.1779
63975W        W20216  33.849  33.625   2.637 -0.4185 -0.0924  0.2610
63976W        W20217   3.832  34.522  21.149  0.0226  0.1544 -0.2285
63977W        W20218  24.362  31.071  21.657  0.2840  0.1451  0.0504
63978W        W20219  19.001  33.731  18.833  0.4111  0.0397 -0.1914
63979W        W20220  21.720  22.184   1.338  0.1830 -0.2969 -0.2908
63980W        W20221   8.627  20.977  23.052 -0.1801 -0.2088 -0.2206
63981W        W20222   1.355  30.366   4.150 -0.0333  0.0100  0.4555
63982W        W20223  16.741  18.296   9.651  0.0431  0.2718  0.3882
63983W        W20224  20.016  17.666  21.997 -0.0559 -0.1863 -0.2048
63984W        W20225  23.515  31.006  22.628 -0.4171  0.1070  0.2973
63985W        W20226  26.470  31.595  20.557 -0.1044  0.2408 -0.0099
63986W        W20227  14.251   9.213   6.480 -0.3481 -0.0842 -0.0951
63987W        W20228  26.953  12.785  12.120  0.1866 -0.0687 -0.0271
63988W        W20229  12.230   1.149   9.884  0.1160  0.1072  0.1475
63989W        W20230  23.521   8.219   1.171  0.2175  0.1812 -0.0291
63990W        W20231  24.311  32.890   4.688 -0.0358 -0.1746  0.4398
63991W        W20232  30.779  28.195   1.249  0.0835  0.1355 -0.5395
63992W        W20233  12.487   8.286   1.840  0.1122 -0.1660 -0.0843
63993W        W20234   6.185   5.050   8.156 -0.0868  0.0458  0.1698
63994W        W20235  15.449   8.753   7.355  0.0704 -0.1704  0.1679
63995W        W20236  34.894  11.031  10.720 -0.4088 -0.0373 -0.3999
63996W        W20237  28.475   0.087  12.143  0.1264 -0.3327  0.3349
63997W        W20238  12.772  17.699   1.211 -0.3034 -0.0232  0.0272
63998W        W20239   8.499  20.847   2.745  0.1529 -0.1036  0.0323
63999W        W20240  15.572  17.091  13.018  0.0901  0.0529  0.3018
64000W        W20241  11.110  33.211  12.555  0.3397  0.0620 -0.1913
64001W        W20242  24.287   2.559  23.821 -0.5026 -0.0500  0.0262
64002W        W20243  27.420  21.288  23.763 -0.0412 -0.0892 -0.1507
64003W        W20244  29.873   3.835  16.322 -0.0787  0.2329  0.0008
64004W        W20245  15.479  25.063   5.884 -0.0016  0.0529 -0.3124
64005W        W20246  29.649  34.637  24.380  0.0628 -0.2229  0.1124
64006W        W20247  32.287  17.070  12.926 -0.2139 -0.0858 -0.2258
64007W        W20248  17.910   2.384  19.924  0.1156  0.3750  0.0979
64008W        W20249  15.278  17.522  19.648  0.2183  0.0009  0.2974
64009W        W20250  25.993   5.157  21.828 -0.0550  0.2202 -0.1658
64010W        W20251  17.167  13.788  20.559 -0.0848 -0.1306 -0.0026
64011W        W20252  31.982  26.466   0.906  0.1021 -0.2212 -0.1746
64012W        W20253  16.491  21.244  26.050 -0.1547 -0.0131  0.2983
64013W        W20254   1.784  25.303   4.537 -0.2432 -0.2247  0.2174
64014W        W20255  21.073  32.868   2.664  0.0898  0.2785 -0.1486
64015W        W20256  33.152  14.925  11.695 -0.2128 -0.0733  0.1207
64016W        W20257  27.859  15.973  24.210 -0.1232  0.0915 -0.3941
64017W        W20258  27.144   7.729  10.443 -0.2549 -0.2530  0.0764
64018W        W20259  32.741  28.823  22.844  0.2224  0.0869 -0.0304
64019W        W20260  33.024  15.781   0.078 -0.0693  0.0659 -0.2671
64020W        W20261  17.932  23.765  20.747  0.3716  0.1457 -0.1316
64021W        W20262  24.496  25.347  13.664  0.0994 -0.1524  0.2227
64022W        W20263  24.951  27.105  16.066 -0.0309 -0.1018  0.1920
64023W        W20264   1.519   9.275  23.989 -0.1851 -0.2298 -0.0063
64024W        W20265  14.120   7.770  11.600  0.0997  0.0254  0.0463
64025W        W20266  26.058  13.382   0.594  0.0880  0.0185 -0.2379
64026W        W20267  10.156   1.704   5.302 -0.0320  0.3367  0.2952
64027W        W20268   9.975  25.205  15.747 -0.1661 -0.0705 -0.0281
64028W        W20269  23.071  17.489  23.909  0.1485  0.0186  0.1359
64029W        W20270   9.675   6.426   3.725  0.0278  0.1913 -0.1680
64030W        W20271   2.927  25.430  25.097 -0.0223  0.1247  0.1188
64031W        W20272   1.182  20.605  21.713  0.1601  0.3182 -0.0615
64032W        W20273  29.673  13.227  10.898 -0.0256  0.0980  0.1037
64033W        W20274  18.835  34.048  15.438 -0.1827 -0.0540  0.4544
64034W        W20275   1.056  34.077  15.979 -0.0158  0.3335 -0.0947
64035W        W20276  30.756  31.865   0.794 -0.1752 -0.1374  0.0474
64036W        W20277  13.579  19.477   5.200  0.0737  0.0672  0.1802
64037W        W20278  25.227  21.512  18.559 -0.0759 -0.0036 -0.1963
64038W        W20279  10.180  27.604  12.559  0.1135  0.1826 -0.1656
64039W        W20280  11.912  14.334   7.078 -0.1197  0.0956 -0.1200
64040W        W20281   4.215  29.025  21.987 -0.1449 -0.0712 -0.2555
64041W        W20282   9.145  28.446  23.814  0.0923  0.0406 -0.0151
64042W        W20283  17.797  11.338   2.263  0.0198  0.0735 -0.1032
64043W        W20284  27.695   7.191  24.979 -0.1359 -0.1488 -0.2540
64044W        W20285  12.404   3.207   7.767  0.2875 -0.0321  0.1371
64045W        W20286  10.719  24.256   0.775  0.0968  0.2476  0.0963
64046W        W20287  32.054  14.165  20.484  0.2318 -0.2781  0.0197
64047W        W20288  20.496  16.367   2.003 -0.1356  0.3694  0.1170
64048W        W20289  18.194  12.806  18.409  0.1684 -0.0783 -0.4652
64049W        W20290  31.143  10.152  25.287  0.2932 -0.0438  0.1382
64050W        W20291   0.207  16.685  18.572  0.2432  0.1767 -0.0081
64051W        W20292   1.646   9.637  23.179  0.1026  0.1054  0.1735
64052W        W20293  13.824  14.126   9.700 -0.2368 -0.0425  0.2890
64053W        W20294   5.462  26.521  25.444  0.2183 -0.2311  0.0168
64054W        W20295  27.351  18.230  22.751 -0.2407  0.1385 -0.0195
64055W        W20296  18.334   6.156  17.424 -0.3412  0.1000  0.2820
64056W        W20297   6.014  24.452  12.452 -0.0750 -0.1260  0.1114
64057W        W20298   1.190  33.546   2.390  0.1294  0.1208  0.1820
64058W        W20299  13.882  24.497  16.641 -0.3943  0.0440 -0.3914
64059W        W20300   8.928  22.410   8.242 -0.2356 -0.1646  0.1884
64060W        W20301  19.041  16.151   3.705  0.1115 -0.2780 -0.0186
64061W        W20302  33.483   9.446  12.329  0.2380 -0.3692 -0.4107
64062W        W20303   8.128  21.605  25.109 -0.1869  0.1271 -0.0386
64063W        W20304  31.288  22.820  21.425  0.0593 -0.3795 -0.0985
64064W        W20305  19.632  21.804   0.321  0.0147  0.0665 -0.0499
64065W        W20306  22.062  21.664  25.410  0.1319 -0.1132  0.2371
64066W        W20307   6.176   4.815   9.924 -0.0855 -0.2849 -0.1975
64067W        W20308  14.100  32.666   1.628 -0.1589  0.1315  0.1109
64068W        W20309   1.317  13.814  16.663 -0.1311 -0.1320  0.2599
64069W        W20310  18.220   7.018   6.154 -0.2491 -0.1012  0.0851
64070W        W20311  29.317  32.371   1.066  0.1858  0.0635  0.1213
64071W        W20312  28.492   4.127  11.750 -0.1842 -0.1320  0.0968
64072W        W20313  15.759  10.546   2.879  0.0862  0.0589  0.1065
64073W        W20314  14.080  29.420   4.955  0.1937  0.0867 -0.0623
64074W        W20315  11.731  22.949   6.960 -0.2126  0.0429 -0.1131
64075W        W20316  33.983  20.938  11.248  0.0041 -0.3727 -0.1876
64076W        W20317  34.220   3.848  17.684 -0.2576 -0.0577 -0.0757
64077W        W20318   4.348   9.233  22.151 -0.0721  0.1023 -0.0045
64078W        W20319  19.102   4.080   0.127  0.2730 -0.1794 -0.0249
64079W        W20320  17.451  18.792   2.696  0.0174 -0.3644 -0.1592
64080W        W20321  17.195  20.317   8.552  0.0782  0.0173 -0.1729
64081W        W20322   6.820  14.492   0.818  0.0311 -0.1864 -0.1589
64082W        W20323   7.542  15.668  20.778  0.1269 -0.1462 -0.0659
64083W        W20324  32.171   1.894  25.459 -0.3299 -0.2041  0.2225
64084W        W20325  10.301  33.892   2.812 -0.1717  0.0901  0.1116
64085W        W20326  28.904  14.244  11.888  0.3944 -0.0927  0.1957
64086W        W20327  18.008  21.563  12.755 -0.1401  0.1006 -0.0374
64087W        W20328  19.361   5.268   0.510  0.0235  0.2280 -0.0744
64088W        W20329   9.417  16.182  20.055  0.2230  0.5318 -0.0925
64089W        W20330  14.351  19.511  23.453  0.1199 -0.0391 -0.2398
64090W        W20331  29.757  34.100  17.708  0.0064 -0.4347 -0.1114
64091W        W20332  22.072  34.756   1.572 -0.2130  0.2031 -0.0955
64092W        W20333  35.091  21.943  13.059  0.3076  0.1226 -0.0641
64093W        W20334  21.119   2.254   4.682  0.2078 -0.2078  0.0696
64094W        W20335  24.835   8.448  25.630  0.2512  0.1863 -0.0714
64095W        W20336  32.870  17.781   8.117  0.3355  0.2511  0.3412
64096W        W20337   3.435  32.019  10.723 -0.2681  0.0970 -0.0231
64097W        W20338   3.032   0.125  17.656  0.0070 -0.0453  0.1773
64098W        W20339  18.822   4.282  16.741  0.0724 -0.0001  0.1620
64099W        W20340  13.031  19.677   0.991  0.0473 -0.2272  0.0122
64100W        W20341  18.660  28.387   8.091  0.3363 -0.0212  0.2495
64101W        W20342   7.131  19.112  11.153 -0.6242 -0.1717 -0.0370
64102W        W20343  15.757   2.136   2.055 -0.2648 -0.1206  0.3871
64103W        W20344  33.285   6.484  23.620  0.3164 -0.0543  0.2029
64104W        W20345  21.317   4.510   3.884  0.0797 -0.1329  0.0920
64105W        W20346  20.872  25.502   0.938  0.0248 -0.1833  0.0839
64106W        W20347   5.085  29.340  23.202  0.2077 -0.0459  0.2272
64107W        W20348  23.094  19.093   0.379  0.2816 -0.1647  0.1419
64108W        W20349  33.442  16.313  21.462  0.3946 -0.4641 -0.2607
64109W        W20350  33.805  16.745  14.281 -0.5065  0.1025 -0.0490
64110W        W20351  26.827   4.994  14.897 -0.2049  0.1625 -0.0736
64111W        W20352   1.979  12.013   2.166  0.0141 -0.3107  0.1841
64112W        W20353   6.838  34.590  14.512 -0.1430  0.1985  0.0047
64113W        W20354  26.816   5.660   2.890 -0.0256  0.4340 -0.0620
64114W        W20355  33.236  17.792  18.647  0.2376 -0.1010 -0.1153
64115W        W20356  13.662   9.607  11.332  0.0671  0.2377  0.1960
64116W        W20357  18.828  24.296  21.815  0.0176  0.2191  0.0323
64117W        W20358  24.614  16.099  12.664 -0.1076 -0.2694  0.0715
64118W        W20359  26.503   2.837   3.470 -0.1253 -0.1971  0.2325
64119W        W20360  27.002  30.461  12.758 -0.0621  0.0042 -0.0816
64120W        W20361   6.318  34.518  22.556 -0.3142 -0.0181  0.1370
64121W        W20362  15.260  32.676  24.432  0.3292  0.0914 -0.0588
64122W        W20363  31.874  21.082  21.902  0.0323 -0.0659  0.1577
64123W        W20364  28.069   0.049   2.498 -0.1966 -0.3015 -0.0583
64124W        W20365   7.599  16.686  21.433  0.1655 -0.1076  0.1084
64125W        W20366  32.161   9.085  24.487 -0.1908 -0.1942 -0.0003
64126W        W20367   9.345   4.348   1.727 -0.0353  0.2492  0.2265
64127W        W20368  12.932  22.894  26.149  0.2818 -0.0026  0.5221
64128W        W20369  29.064  14.891  20.353  0.0439  0.1653  0.0054
64129W        W20370  32.967  11.911  23.776 -0.1226  0.2508 -0.1957
64130W        W20371  29.646   6.467  18.667 -0.2648 -0.0905 -0.2213
64131W        W20372   5.595  29.624  13.300  0.1728  0.1006  0.0164
64132W        W20373  10.624  20.678  10.600  0.0981  0.2750 -0.0579
64133W        W20374  24.383  25.794  15.081 -0.0646 -0.0716 -0.2026
64134W        W20375  28.053  17.851   0.086  0.0868  0.1089 -0.2498
64135W        W20376  22.274   5.296  19.977 -0.2857  0.0499 -0.1506
64136W        W20377  21.592  34.549   1.472  0.2112  0.2414 -0.2398
64137W        W20378  33.874  22.513  15.297  0.1763  0.2166  0.3733
64138W        W20379  31.680  14.822  14.073  0.1078  0.2133 -0.3287
64139W        W20380  34.125  19.953  22.237 -0.2574  0.1840  0.1848
64140W        W20381  27.095   7.409  12.785  0.0575 -0.1620  0.0355
64141W        W20382  15.218  29.751   9.709 -0.3716 -0.1851  0.1171
64142W        W20383  11.612   8.810  25.354  0.1721 -0.1001 -0.0421
64143W        W20384  21.931  24.656  21.950 -0.0970 -0.2537 -0.2341
64144W        W20385  24.335  12.967  19.873 -0.2195  0.0869  0.0750
64145W        W20386  31.439   9.366   1.911 -0.1275  0.1530  0.2918
64146W        W20387  34.733  30.895   4.389 -0.2345 -0.1767 -0.0081
64147W        W20388  18.322  29.058  24.583 -0.2788 -0.0582  0.3499
64148W        W20389  31.995   7.086   3.397 -0.1441  0.2380 -0.0263
64149W        W20390   1.746   2.921  15.534  0.0938  0.3246 -0.0481
64150W        W20391  29.388   6.432  21.433 -0.0926 -0.0361  0.1587
64151W        W20392  10.991  23.135  14.329  0.1415 -0.0178 -0.0741
64152W        W20393   6.676  23.334   7.809 -0.1093 -0.1099  0.0195
64153W        W20394  20.912   2.333  23.177  0.2924  0.0396 -0.0310
64154W        W20395  29.386  10.609  12.847  0.1348 -0.1026  0.1319
64155W        W20396  27.233   9.501   8.404  0.4366  0.1463  0.2715
64156W        W20397  15.659   8.513   4.074 -0.0448 -0.0389  0.0398
64157W        W20398  22.744   2.601  16.431  0.0793 -0.2146  0.1115
64158W        W20399   8.928  29.954   1.889 -0.0039  0.0071  0.1049
64159W        W20400  28.460  29.342  16.993  0.2322 -0.2227  0.2245
64160W        W20401  10.930   7.361  10.289 -0.1350  0.0031 -0.2420
64161W        W20402  11.514  29.656  15.392  0.3443 -0.4343 -0.1604
64162W        W20403  17.023   9.591   5.423  0.1562 -0.1972  0.2365
64163W        W20404   4.343  16.407  22.751 -0.0307  0.1805  0.2841
64164W        W20405  28.543   0.343   5.610 -0.0361 -0.1242  0.3723
64165W        W20406  34.210  26.776  12.619  0.1221 -0.2124  0.0134
64166W        W20407  24.225  21.400  16.078  0.1266  0.3337  0.2697
64167W        W20408  31.479   0.071  25.839  0.1316 -0.1351  0.1409
64168W        W20409   9.912   4.398  25.994  0.2737  0.1485 -0.4037
64169W        W20410   9.026  27.524   1.230  0.2217 -0.0627 -0.3070
64170W        W20411  26.412  18.536  18.346  0.4407  0.0530  0.0454
64171W        W20412  17.490   8.885   9.037 -0.2059  0.0240  0.0885
64172W        W20413  29.137  10.050  11.181  0.1582  0.3997 -0.2854
64173W        W20414  18.573   6.584   4.872 -0.1738  0.1381 -0.4836
64174W        W20415  32.749   9.007  20.502 -0.0731  0.0770 -0.2507
64175W        W20416  14.586  11.417  25.631  0.3777 -0.1774  0.0070
64176W        W20417   9.592  14.191  24.502 -0.0175  0.2146  0.2206
64177W        W20418  14.338  17.039   9.844 -0.0988 -0.0702  0.1598
64178W        W20419  35.152  25.245  19.625 -0.2238  0.2076  0.1260
64179W        W20420  10.627  35.133  22.398  0.0416 -0.1375  0.0534
64180W        W20421  17.254   2.128   6.917  0.0735  0.1969 -0.1865
64181W        W20422  13.431  24.916  14.275 -0.1050 -0.0725  0.2680
64182W        W20423  29.747   1.890   0.899 -0.0264  0.2640 -0.2981
64183W        W20424  11.043  21.886  16.579 -0.2726 -0.2106  0.1391
64184W        W20425   0.946   7.362  22.881  0.1812 -0.1449 -0.0458
64185W        W20426   0.790   4.567  14.389  0.0397 -0.0497 -0.0652
64186W        W20427  11.531  16.078  11.000 -0.2400  0.3480 -0.0794
64187W        W20428  28.479  13.271  18.905  0.1869 -0.0699 -0.1745
64188W        W20429  33.008  33.654  23.929  0.0695 -0.0556 -0.2023
64189W        W20430  33.155  33.527  16.457 -0.0741 -0.0278 -0.2978
64190W        W20431  28.989  17.124  23.550  0.4658 -0.1182 -0.0056
64191W        W20432  14.654  11.816  23.313 -0.3349  0.0612 -0.0959
64192W        W20433  16.098  30.504   5.181  0.0486 -0.2599  0.0088
64193W        W20434  23.264  16.674   0.317 -0.1988  0.4603 -0.2594
64194W        W20435  24.979  34.830  24.695 -0.1072 -0.0454 -0.1817
64195W        W20436  25.475  32.790  25.613  0.2860  0.4016  0.0982
64196W        W20437  29.312  27.491  16.441 -0.1607 -0.0036  0.2229
64197W        W20438   3.525  22.599  16.493 -0.3251  0.2556  0.0244
64198W        W20439  11.907  27.933   0.275  0.1025  0.0453 -0.1881
64199W        W20440  30.801   0.615  18.840 -0.1050  0.2801 -0.0213
64200W        W20441  19.070  29.393  19.711  0.1332 -0.0475  0.0061
64201W        W20442  28.167   2.773  22.989 -0.0970 -0.2175 -0.0656
64202W        W20443  26.976  19.324  10.250 -0.2300  0.2527  0.1312
64203W        W20444  20.082   7.316  20.391 -0.2736 -0.0480 -0.0471
64204W        W20445  17.991  24.228  10.210  0.0611 -0.1166  0.0640
64205W        W20446  22.142  13.905   2.843 -0.1070  0.1265  0.2209
64206W        W20447   1.101   2.547  18.095 -0.0274  0.2513  0.1560
64207W        W20448   9.485  30.322   3.537  0.0555  0.1471 -0.3416
64208W        W20449   6.585  17.215   0.321  0.0969 -0.0799  0.2820
64209W        W20450  26.906  15.938  25.091  0.0796  0.1833  0.0604
64210W        W20451  27.800  24.335  12.549  0.2042 -0.1381 -0.2694
64211W        W20452  21.945  30.708   5.475  0.0400  0.0163 -0.0825
64212W        W20453   5.402   0.808   1.156  0.1557  0.0228 -0.0178
64213W        W20454   9.506   2.975   6.922  0.0290  0.0116 -0.1228
64214W        W20455   8.329   0.600   8.960  0.2214  0.2768 -0.2915
64215W        W20456   1.642  20.159  14.642 -0.1271  0.2027 -0.0735
64216W        W20457  20.634   5.137  22.113  0.2008 -0.2410  0.1537
64217W        W20458   0.512   6.913  24.580  0.3299 -0.3744 -0.2335
64218W        W20459  26.429  30.004  17.716 -0.0355  0.0599  0.0140
64219W        W20460  18.103  33.743  22.783 -0.0470 -0.2231 -0.3395
64220W        W20461  29.137   2.254   3.883  0.1095 -0.2463  0.0655
64221W        W20462   9.070   8.183  18.403  0.0238  0.2032  0.0127
64222W        W20463  31.732  12.494  24.957  0.2119 -0.0613  0.3330
64223W        W20464  32.624   8.449  21.139 -0.2023 -0.0125 -0.2666
64224W        W20465  35.173  27.904   0.590  0.0369 -0.0899  0.0656
64225W        W20466   2.497  31.733  10.567 -0.0798  0.1622  0.2398
64226W        W20467  10.215   4.152  12.281 -0.2102  0.0343 -0.2164
64227W        W20468   4.087  30.422  22.779 -0.0006 -0.1006  0.0775
64228W        W20469   7.928  11.904  11.172 -0.1589 -0.2593  0.0162
64229W        W20470  29.504   4.084  22.379  0.4933  0.3711 -0.2965
64230W        W20471  21.197  23.993   4.370  0.4201 -0.0262  0.1134
64231W        W20472  32.268  13.597   0.235  0.0136 -0.0325 -0.1645
64232W        W20473  16.289  24.436   0.175 -0.2449  0.0995 -0.0380
64233W        W20474  18.894   5.338   6.919  0.2879 -0.2200  0.3052
64234W        W20475   3.475  15.847  22.441  0.0165 -0.0839 -0.1152
64235W        W20476  24.546  12.868  21.881 -0.0999 -0.1127 -0.3432
64236W        W20477  19.508  25.627   7.784 -0.1371 -0.1227 -0.1089
64237W        W20478   1.051   2.653  22.061  0.1811  0.0536  0.2049
64238W        W20479  24.737  17.506  12.443  0.3649  0.2226 -0.2391
64239W        W20480  10.511  17.260   7.749 -0.2185  0.1194 -0.0761
64240W        W20481  16.879  10.457  25.067 -0.4422  0.0057  0.0317
64241W        W20482  31.309   7.366  22.710 -0.1743  0.1219 -0.1421
64242W        W20483   5.029   4.480  25.196  0.1484  0.2081 -0.0258
64243W        W20484  34.024  34.927   4.161  0.1123  0.0975 -0.0097
64244W        W20485   9.263  30.811   7.295  0.0244  0.1056  0.0986
64245W        W20486  15.795   6.166   8.548 -0.1102 -0.1481 -0.0134
64246W        W20487   0.035  30.098  17.087  0.2039 -0.0812 -0.1422
64247W        W20488  17.616  27.318   2.235 -0.0334 -0.0841  0.0152
64248W        W20489   0.747  16.196   0.792 -0.2977 -0.1296  0.1437
64249W        W20490   1.223  15.223  24.329 -0.1665  0.0595  0.2597
64250W        W20491  25.025  30.362  12.423  0.3357 -0.1552  0.1394
64251W        W20492  14.512   4.022   1.208  0.2503 -0.0350 -0.3554
64252W        W20493  12.598  30.091  10.878 -0.3127  0.1486  0.1086
64253W        W20494  14.830  31.223   9.967 -0.0755 -0.3797 -0.1483
64254W        W20495  18.221  31.579  23.875  0.1784 -0.0064  0.1133
64255W        W20496  27.392  11.892  13.338 -0.1384 -0.4970  0.2222
64256W        W20497  34.378  12.869  19.310  0.1466 -0.2007 -0.2117
64257W        W20498   9.189  20.805  25.938 -0.1139  0.1972 -0.4202
64258W        W20499  14.698   5.049  17.833  0.5092  0.2538  0.0799
64259W        W20500  14.938  16.955  25.815  0.0747 -0.1095  0.3072
64260W        W20501   6.560  10.833   0.535 -0.0809 -0.0698 -0.1200
64261W        W20502  32.745   2.082  21.374  0.2312 -0.4070  0.4157
64262W        W20503  29.638   5.140  12.604  0.1164 -0.1251 -0.2389
64263W        W20504  13.262  25.893   5.571 -0.0833 -0.1822  0.1145
64264W        W20505  22.906  10.002   2.754  0.0476 -0.1675  0.0589
64265W        W20506  26.110   5.397  17.559 -0.0601  0.1776 -0.2524
64266W        W20507  15.181   6.008  24.087 -0.3913  0.0043  0.1652
64267W        W20508  12.333   6.755   1.716 -0.1023  0.0242 -0.1072
64268W        W20509   1.125   9.011   2.771 -0.0387  0.0809 -0.0735
64269W        W20510  21.550   7.857   4.992  0.0983 -0.1772  0.1671
64270W        W20511   8.558  29.699  14.053  0.0144 -0.1758 -0.2240
64271W        W20512  14.941  14.981  11.860  0.0333 -0.0817  0.3307
64272W        W20513  17.753  20.794  13.200  0.0690 -0.1132 -0.0306
64273W        W20514  17.561   9.351  22.687  0.1237 -0.0226 -0.2121
64274W        W20515  34.574   6.443  14.586 -0.2330 -0.0874  0.0705
64275W        W20516  23.520  15.360  11.738  0.3249  0.1737 -0.1989
64276W        W20517   3.533  11.180   3.001 -0.0081 -0.1766 -0.2882
64277W        W20518  31.607  14.321  13.247 -0.0255 -0.0896 -0.1481
64278W        W20519   6.124  20.698  20.703 -0.0439  0.2967 -0.3261
64279W        W20520   7.708  12.901  12.588  0.0934 -0.0949 -0.0877
64280W        W20521  11.072  19.685  10.715 -0.2155  0.0112  0.0436
64281W        W20522  25.822  31.296  18.788 -0.0918  0.1168 -0.2922
64282W        W20523  20.207  24.563  19.695 -0.0226 -0.1496 -0.0815
64283W        W20524  18.762  34.614   2.021  0.1479 -0.1879 -0.1163
64284W        W20525  29.088  13.289  24.051 -0.0066 -0.1742 -0.1519
64285W        W20526  32.162   2.673  24.053  0.1074 -0.0318  0.0666
64286W        W20527   2.903  33.791   7.749  0.0520 -0.0746  0.2548
64287W        W20528  12.236  15.012  19.756 -0.0837 -0.0398  0.0533
64288W        W20529  11.980  13.810   2.735  0.4401 -0.1426  0.3988
64289W        W20530  29.040  24.215  20.276  0.1810  0.0572 -0.3624
64290W        W20531  15.984   4.922  20.376  0.0304 -0.0226 -0.1245
64291W        W20532   1.370   3.327  21.598 -0.0175 -0.0314  0.1377
64292W        W20533  24.119   0.888  26.217 -0.1506  0.1549  0.0554
64293W        W20534  30.857   2.850  18.820  0.0635  0.4234  0.2180
64294W        W20535  32.306  34.375  26.153  0.2100 -0.3566 -0.2531
64295W        W20536   0.172  33.950   3.888  0.1447 -0.1552  0.0616
64296W        W20537   5.940  10.048   0.760 -0.0506  0.2015  0.0996
64297W        W20538   1.035  19.909  19.513  0.0560 -0.1999  0.0788
64298W        W20539   1.485   2.409   6.977 -0.2300  0.4737  0.0241
64299W        W20540  10.105   0.856  21.496 -0.1394  0.0068  0.3606
64300W        W20541   5.976  19.019  21.533  0.0475  0.1912 -0.2675
64301W        W20542  34.083  27.279  24.146  0.0474 -0.1713  0.2995
64302W        W20543  18.676  16.097   8.220  0.0315  0.0778  0.1359
64303W        W20544  25.485  35.118  25.799 -0.1367 -0.0101  0.1432
64304W        W20545  13.629  13.198   3.861  0.0739  0.0197 -0.1026
64305W        W20546  16.744  16.319  21.253  0.2301  0.1368  0.0379
64306W        W20547   2.494  23.808   3.120 -0.1629 -0.0381 -0.1043
64307W        W20548  17.751  13.830   6.278  0.3692  0.1587 -0.1548
64308W        W20549   2.072  31.930   8.594  0.1959 -0.1494  0.1560
64309W        W20550   7.571  32.877  23.479 -0.0992  0.2584  0.2066
64310W        W20551  32.892  15.954  14.148 -0.2163 -0.0618  0.1349
64311W        W20552  33.069  24.997  11.948 -0.0111 -0.0005 -0.0719
64312W        W20553   8.171  33.996   6.669 -0.0210  0.0996  0.0721
64313W        W20554  34.066  32.440   0.839  0.1054 -0.0035 -0.1622
64314W        W20555   7.851   3.232  23.524 -0.1126  0.1407  0.1424
64315W        W20556  16.850  17.697  24.401  0.3315  0.0548  0.0868
64316W        W20557   8.847  19.117  21.830 -0.1185 -0.1346  0.1369
64317W        W20558  16.237  29.354  10.263 -0.0796 -0.2504  0.0589
64318W        W20559   7.274   7.870  20.589  0.2189  0.2992  0.1808
64319W        W20560  27.389  15.764  18.081 -0.1240 -0.1422 -0.0872
64320W        W20561  21.615  26.372  16.631  0.3237 -0.0649  0.2590
64321W        W20562   6.028   2.561  12.997 -0.2459  0.0123 -0.0540
64322W        W20563  27.875   4.528  16.812 -0.0821  0.0388 -0.0766
64323W        W20564  19.143  23.126   5.648 -0.4373 -0.1413 -0.1709
64324W        W20565  15.123   5.134   3.899  0.0895 -0.3131 -0.0280
64325W        W20566  19.699  24.623   7.614 -0.4952  0.0183  0.1507
64326W        W20567  33.562   2.308  25.835 -0.2086  0.0589 -0.0295
64327W        W20568  15.145  24.181  10.072  0.1399  0.1825  0.1710
64328W        W20569   0.171  27.380   4.955 -0.3904 -0.0839 -0.1436
64329W        W20570  26.400  32.154  15.407 -0.0300 -0.2713 -0.3765
64330W        W20571  16.996   4.408   8.040 -0.0222  0.1110  0.0178
64331W        W20572  26.832  27.059   0.908 -0.3018  0.0782  0.2311
64332W        W20573  12.896  32.075   2.122 -0.1422  0.3473 -0.1746
64333W        W20574  13.598  24.253   8.472  0.0273  0.1265  0.0518
64334W        W20575   1.451  26.748  21.528  0.2085  0.2617  0.1878
64335W        W20576   6.318   7.626   6.716  0.0676 -0.1827  0.0578
64336W        W20577  26.322   0.180   5.026 -0.1751 -0.4289 -0.1748
64337W        W20578  33.605  34.955  21.659  0.4306 -0.5121  0.0485
64338W        W20579  34.428  24.364  25.562  0.4260  0.3050  0.3140
64339W        W20580   2.761  22.378  15.946  0.0746 -0.0372  0.0755
64340W        W20581  21.870  26.523  17.264  0.0225 -0.0870 -0.0744
64341W        W20582  21.596  20.581  19.468  0.0203 -0.0516 -0.3242
64342W        W20583  16.423  19.700   9.279 -0.0537  0.1477 -0.1352
64343W        W20584  10.467  14.053   5.204 -0.2529 -0.0930 -0.0914
64344W        W20585   9.184  33.301   8.853 -0.2357 -0.1419 -0.0318
64345W        W20586  24.309  23.713   0.357 -0.1126 -0.0065 -0.2502
64346W        W20587  15.600   2.918  19.607  0.1761 -0.1751  0.1089
64347W        W20588   1.594  27.200   0.261  0.1708 -0.1897  0.1751
64348W        W20589  18.291  18.984  21.313 -0.3462  0.2736 -0.0071
64349W        W20590   5.790  17.166  17.625 -0.0343  0.3853 -0.1259
64350W        W20591  21.201  17.914  23.839 -0.0304  0.0692 -0.0314
64351W        W20592   5.171  13.530  26.024  0.1769  0.3015  0.0088
64352W        W20593  32.873   0.852   2.050 -0.0002  0.0792 -0.0558
64353W        W20594  31.543  10.510  13.873  0.3232  0.2116  0.2160
64354W        W20595  27.330   5.339  23.559 -0.0145  0.2015 -0.0250
64355W        W20596  31.467  27.998  24.882 -0.2282 -0.1820  0.1528
64356W        W20597  31.431  14.880  20.386 -0.2200 -0.2736  0.0932
64357W        W20598  16.206  15.335   0.191 -0.0874  0.0282  0.0098
64358W        W20599  23.141  20.653  16.892 -0.0240 -0.2391  0.1671
64359W        W20600  23.611  15.476  24.372 -0.1268  0.1357  0.0951
64360W        W20601   6.312  33.708   7.471  0.2985 -0.1284  0.0539
64361W        W20602  14.712  30.386   9.463 -0.1501  0.0492 -0.2444
64362W        W20603  14.505  32.713   4.681 -0.1789  0.1123  0.0771
64363W        W20604  25.619   9.868  18.587 -0.2255 -0.5013 -0.0568
64364W        W20605  14.757  32.025  11.558  0.3671  0.1106  0.2285
64365W        W20606  21.940  18.942   1.307 -0.0754 -0.1096  0.1163
64366W        W20607  21.007  20.964   1.928 -0.0675 -0.0856 -0.0776
64367W        W20608  33.148   3.597  16.521 -0.0665 -0.1885  0.0882
64368W        W20609  14.640  12.984  23.208  0.3800 -0.0556 -0.2455
64369W        W20610   2.565  26.894  23.877  0.1466 -0.0674 -0.0515
64370W        W20611  23.441   1.444   8.032  0.1342 -0.2250  0.1235
64371W        W20612  21.868   7.555  22.657  0.0766 -0.1655 -0.1872
64372W        W20613   6.035  20.526  19.398  0.2725  0.0265 -0.0065
64373W        W20614  25.384  30.711  15.736  0.2538 -0.1406 -0.0778
64374W        W20615  15.020   6.942  13.272 -0.2018 -0.0349 -0.1346
64375W        W20616  16.371  26.448   7.881  0.1588  0.2399  0.1717
64376W        W20617  20.495  33.877   7.874  0.0090 -0.1444 -0.1339
64377W        W20618  18.356   1.953   5.678 -0.0445 -0.0476  0.0784
64378W        W20619   9.830   6.097  24.148 -0.2417 -0.2604 -0.1606
64379W        W20620  19.720  18.421  21.520 -0.1041  0.0366 -0.1104
64380W        W20621  32.009  11.962   6.339  0.0057 -0.3445 -0.1365
64381W        W20622  13.781  23.926  15.811  0.0201 -0.0679  0.1160
64382W        W20623  20.118  33.827   6.958 -0.0852  0.2452 -0.2282
64383W        W20624  28.809   1.829   3.758  0.0474 -0.2836  0.0089
64384W        W20625  33.182  21.212  23.105 -0.0835 -0.0449  0.0094
64385W        W20626  29.055  30.583  17.368 -0.1192  0.0232 -0.2249
64386W        W20627  20.653  11.011   3.174 -0.0407 -0.0754 -0.0418
64387W        W20628  27.278  34.001  24.116 -0.0957  0.1783  0.0840
64388W        W20629  33.578  14.690  16.495  0.1119 -0.0953 -0.3812
64389W        W20630  32.303  10.958  16.510  0.1164  0.1737  0.0892
64390W        W20631  14.841  19.667  11.397 -0.4578  0.4553 -0.1561
64391W        W20632  22.883  18.360  24.856 -0.3551  0.1199 -0.1426
64392W        W20633  29.251  17.788  15.715 -0.0919  0.0070  0.2048
64393W        W20634  22.438  31.674  20.152 -0.1003  0.0078  0.0469
64394W        W20635  14.199  26.445   6.586  0.2635  0.1257  0.1274
64395W        W20636  23.451  29.407  17.359 -0.0018 -0.1151  0.3185
64396W        W20637   1.138  31.361  19.434  0.0561  0.1327 -0.1617
64397W        W20638  10.229  14.502   0.317  0.3517  0.3811 -0.0061
64398W        W20639  16.623  20.463   4.654  0.1613 -0.3417 -0.0705
64399W        W20640   2.050  22.339   3.956  0.1861  0.0473 -0.0325
64400W        W20641  28.775   0.147   5.997  0.0583  0.2450 -0.2396
64401W        W20642  26.001  24.297   9.963 -0.2589 -0.0522  0.0398
64402W        W20643  23.123  22.345   3.077 -0.0408  0.0000 -0.2230
64403W        W20644  15.588  20.975   5.679  0.2925  0.3389  0.1125
64404W        W20645  25.933   6.871  11.261  0.2566 -0.2434 -0.0230
64405W        W20646  30.581   2.775  19.971 -0.0404 -0.3161  0.0080
64406W        W20647   6.054  28.715  23.250 -0.1216 -0.1649 -0.0317
64407W        W20648  21.392  15.539  15.953  0.0296 -0.0977  0.1294
64408W        W20649  16.210  16.863  22.833  0.1822  0.2696 -0.1450
64409W        W20650  12.573  10.242  19.540 -0.0964  0.2023  0.0090
64410W        W20651  33.943  21.298   8.498  0.1270 -0.4609  0.1461
64411W        W20652  14.474  21.509  22.482  0.3243 -0.1643  0.0762
64412W        W20653  14.669   2.421   1.105 -0.3479 -0.0243 -0.1853
64413W        W20654  30.523  31.807  15.362 -0.2243  0.0662 -0.0996
64414W        W20655   8.873  18.586  24.790  0.3740  0.2355  0.0965
64415W        W20656  30.959  33.450  13.440  0.1871  0.0430 -0.2221
64416W        W20657   5.447   4.595   5.097  0.2171  0.2376 -0.0652
64417W        W20658  22.046  26.276  22.041  0.1766 -0.1164  0.2836
64418W        W20659  24.482  20.462  23.620  0.1100 -0.3345 -0.0684
64419W        W20660   1.717  35.356   5.697 -0.0636  0.3272  0.0988
64420W        W20661  29.742  17.756  23.257 -0.0713  0.1214 -0.0926
64421W        W20662  19.826  32.957   6.914 -0.0831  0.0681  0.4159
64422W        W20663  26.108  20.327   6.567  0.0407  0.2680 -0.1270
64423W        W20664   5.010  34.675   9.978  0.2094 -0.2568  0.1628
64424W        W20665  25.769  26.329  15.911  0.0452 -0.0509 -0.4040
64425W        W20666  22.686   9.496  25.279 -0.0781 -0.1255  0.0490
64426W        W20667   5.058  17.750   0.061  0.0854  0.2488  0.0044
64427W        W20668  23.460  28.242   4.273 -0.0089  0.1412  0.1078
64428W        W20669   6.599  11.086   9.864 -0.0223  0.2372  0.0129
64429W        W20670   0.144  33.762  15.893  0.0357 -0.0799 -0.0669
64430W        W20671  18.011  32.866  18.273  0.2860 -0.2934 -0.1270
64431W        W20672  29.263   8.648  22.880 -0.2372 -0.2002 -0.0626
64432W        W20673   8.925  34.906  15.152  0.1188 -0.0237  0.0574
64433W        W20674  32.250   4.990   1.426  0.3777 -0.4931 -0.1098
64434W        W20675  19.728   4.608  26.095 -0.1867 -0.0244  0.1447
64435W        W20676   4.985  30.284  10.383  0.2987 -0.1741 -0.0978
64436W        W20677  15.797   1.636  17.704  0.1407  0.1789  0.0863
64437W        W20678  16.187  21.748   7.619  0.0583  0.1291  0.3154
64438W        W20679  15.238  32.794   0.929 -0.2840 -0.2355  0.0798
64439W        W20680  18.876   4.770   4.226 -0.0802 -0.3218  0.2589
64440W        W20681  12.603  32.884   0.091 -0.1499 -0.0227 -0.1345
64441W        W20682  29.784   1.624   2.910 -0.0771  0.1572 -0.0460
64442W        W20683  27.104  25.362   8.149 -0.1840 -0.2277  0.1603
64443W        W20684  24.476  10.937  18.738 -0.3350 -0.2090  0.2229
64444W        W20685  14.337  16.470  24.682  0.1354 -0.0663 -0.4463
64445W        W20686   8.270   1.342   6.013  0.2067  0.2149  0.2046
64446W        W20687  28.109  22.320  18.967  0.1934  0.0750  0.3002
64447W        W20688   5.078  24.676   1.060 -0.1911  0.0943  0.1507
64448W        W20689  21.428  20.142   0.350 -0.3122  0.3056 -0.0771
64449W        W20690   9.410   1.159   9.954 -0.0924 -0.0225 -0.1855
64450W        W20691  12.601   9.468  13.100  0.0727 -0.0182 -0.1571
64451W        W20692  21.144  22.008  17.065 -0.2690  0.0321  0.0403
64452W        W20693  34.005  17.208  22.047  0.0441  0.3311 -0.2354
64453W        W20694  24.825  18.346  16.192  0.3259 -0.0081 -0.0179
64454W        W20695   2.027  14.450  16.802  0.0978 -0.3570 -0.0124
64455W        W20696   3.575  34.039   5.729 -0.1463  0.0461 -0.1146
64456W        W20697   7.747   6.938   6.552  0.2716  0.0287 -0.1099
64457W        W20698   4.682  12.741  21.632  0.1825 -0.2940  0.1922
64458W        W20699  32.775  10.210  13.971 -0.0249 -0.0458  0.3041
64459W        W20700  28.997   2.698   4.836  0.2033 -0.0856 -0.1258
64460W        W20701   2.881  32.458  10.196  0.1044  0.2376 -0.1424
64461W        W20702  16.614   5.579   5.732 -0.0351 -0.0637  0.1079
64462W        W20703  18.389  10.548  11.811  0.1126  0.1374 -0.1381
64463W        W20704  16.332  26.911  25.186  0.0096 -0.4035 -0.0540
64464W        W20705  29.748  18.904  23.471 -0.1887  0.2039 -0.0190
64465W        W20706  12.147   6.153  22.336 -0.3574 -0.1416 -0.3070
64466W        W20707   9.560  29.001  21.689  0.0727  0.0087  0.0439
64467W        W20708  30.491   7.067  11.569  0.1100 -0.1063  0.2310
64468W        W20709  19.490  12.604  26.119 -0.1726  0.0686  0.2454
64469W        W20710   4.818  32.128   0.262  0.0452 -0.1437 -0.1100
64470W        W20711  26.794  25.511  18.018 -0.2119  0.0404 -0.0602
64471W        W20712  16.904  30.652   9.534  0.0767 -0.1985  0.0854
64472W        W20713   9.577   1.333  14.657 -0.1934  0.2382  0.1094
64473W        W20714  22.653   3.182  15.579  0.1613  0.0539  0.0125
64474W        W20715  18.944  11.682  11.270  0.1335  0.0224  0.1260
64475W        W20716  24.272  13.371  20.655 -0.0098  0.0925  0.1920
64476W        W20717  23.635  18.490  15.187 -0.0328 -0.1351 -0.2303
64477W        W20718  30.378  21.643  19.903  0.3310 -0.2287  0.0611
64478W        W20719   5.132   1.561  19.472 -0.0065 -0.2421 -0.4453
64479W        W20720  15.528  30.910   4.187 -0.0238  0.1294 -0.1536
64480W        W20721   7.820   3.297   5.328 -0.3820  0.2317  0.0620
64481W        W20722  11.384  27.580  15.856 -0.2278 -0.0673  0.1873
64482W        W20723  12.501  33.312  26.051  0.0966  0.0222 -0.0701
64483W        W20724  28.379   7.986   1.939  0.3085 -0.0295 -0.3410
64484W        W20725  22.586  23.667  15.235  0.0568 -0.1253 -0.2188
64485W        W20726  21.323   5.280   4.767 -0.0041  0.1106 -0.0261
64486W        W20727   9.041  31.503   1.525  0.2754  0.0800  0.0801
64487W        W20728  30.758  29.659   4.515 -0.0651 -0.3041  0.0740
64488W        W20729  23.023  15.284  21.916 -0.0903 -0.2313  0.2516
64489W        W20730  14.232  17.532  20.673 -0.1042  0.4552  0.0143
64490W        W20731   1.993  26.172   1.028  0.0875  0.0049  0.3405
64491W        W20732  21.988  12.109   1.525 -0.2842  0.0767  0.1451
64492W        W20733  29.715   9.846  19.620 -0.1749  0.1266 -0.0649
64493W        W20734  25.595  28.560  10.162 -0.0152 -0.1052  0.1249
64494W        W20735  16.902  11.772   0.302 -0.2346  0.3311 -0.1406
64495W        W20736  26.225  24.694  24.676  0.0899  0.1843 -0.0338
64496W        W20737   8.186   9.242  23.459 -0.2700 -0.1974 -0.0615
64497W        W20738  20.356  13.547  18.245 -0.3037  0.2136 -0.0370
64498W        W20739  31.639  32.717   1.543 -0.2815 -0.0255 -0.1301
64499W        W20740   0.516   0.928  22.608  0.1054  0.0291 -0.1713
64500W        W20741  29.177   0.296  16.585  0.0570  0.0885  0.1604
64501W        W20742  14.675  31.058   0.096 -0.3170  0.0715 -0.1546
64502W        W20743  23.774  23.792  25.235 -0.0771 -0.2130 -0.2480
64503W        W20744  17.126  27.966   3.983  0.1210 -0.3091 -0.2038
64504W        W20745  33.342  10.994  25.474 -0.0983 -0.1408  0.0295
64505W        W20746  27.950  16.023  19.163  0.4287 -0.0088  0.1623
64506W        W20747   3.158  32.443  10.646 -0.0325 -0.2974  0.6009
64507W        W20748   2.498   9.719  16.067 -0.4465 -0.0484  0.1557
64508W        W20749   6.313   4.274  19.150  0.1631 -0.1990  0.0358
64509W        W20750  24.411  26.988  14.813  0.1366  0.1181 -0.0282
64510W        W20751   2.651  35.091   7.985 -0.3350  0.0200 -0.3109
64511W        W20752   2.794  31.759   1.703 -0.2552 -0.0208  0.2988
64512W        W20753   4.480   0.814  18.585 -0.2842 -0.4382 -0.1736
64513W        W20754  32.964  26.479  25.987  0.3091  0.4539 -0.0046
64514W        W20755  20.842  15.976   4.385  0.1311 -0.2323  0.2231
64515W        W20756  10.183  29.836  24.691  0.1425 -0.0043 -0.1632
64516W        W20757  13.530  18.715  24.882  0.0873  0.0779 -0.0703
64517W        W20758  17.703  27.116  22.720 -0.0405 -0.0829 -0.1425
64518W        W20759  31.325  30.819   5.290  0.1721  0.1454  0.1070
64519W        W20760  18.510  30.565   6.019 -0.1524  0.3683  0.0221
64520W        W20761  33.446  13.057  12.178  0.1626 -0.0120 -0.0003
64521W        W20762  27.791   5.031  21.423 -0.0082  0.1688  0.0171
64522W        W20763  28.943  13.572  22.108  0.1944  0.2074 -0.2654
64523W        W20764  17.627   8.082  23.006 -0.2249 -0.0585 -0.1442
64524W        W20765  30.859  13.032   6.712 -0.0860 -0.3014  0.1705
64525W        W20766  16.507  14.645  24.047  0.1878  0.1403 -0.0036
64526W        W20767   8.832  31.071  14.712 -0.0421 -0.1862 -0.0078
64527W        W20768  13.798   7.629  18.869  0.0693 -0.1016  0.0664
64528W        W20769   8.317  23.434   0.260 -0.0354  0.1505  0.1878
64529W        W20770  15.030  35.275   9.513 -0.1841 -0.1162 -0.0448
64530W        W20771  25.816  30.669  23.813  0.1539 -0.0105  0.1379
64531W        W20772  21.073   4.541   0.495  0.1399 -0.2380 -0.1882
64532W        W20773   5.440  10.870  26.211  0.0241 -0.0045  0.0050
64533W        W20774  24.480  15.413  23.923  0.0028 -0.2043  0.1226
64534W        W20775  32.861  11.091  10.765 -0.2024  0.2784  0.2825
64535W        W20776  21.750  18.345  22.351  0.1573  0.1540  0.1083
64536W        W20777  29.714   0.489  18.950 -0.1687  0.3348  0.2632
64537W        W20778  26.670  13.838  18.595  0.0717 -0.0895 -0.1157
64538W        W20779  23.420  23.851  24.445  0.0468  0.0687  0.1478
64539W        W20780  25.255  22.918  26.042  0.1408  0.3682  0.3639
64540W        W20781  26.735   1.831  21.801  0.0770  0.0794  0.4346
64541W        W20782  15.815  24.584  26.197  0.0213  0.3560  0.0930
64542ION    NA+20783   6.151  18.434  25.526 -0.2006 -0.1515 -0.0261
64543ION    NA+20784  27.357  29.212  20.255  0.2184  0.0216 -0.1633
64544ION    NA+20785  14.061  20.139   4.377  0.2630 -0.0682 -0.0369
64545ION    NA+20786  15.993  24.784  10.729  0.0977 -0.3389  0.1021
64546ION    NA+20787  19.907  21.650   9.925 -0.0067  0.2533  0.0415
64547ION    NA+20788  25.566  16.246  22.408 -0.1052 -0.2518 -0.1463
64548ION    NA+20789  34.290   7.356  24.401 -0.2232  0.0779 -0.1619
64549ION    NA+20790   0.919  24.730   1.722 -0.4612  0.1304 -0.2963
64550ION    NA+20791  22.645  14.225  13.628 -0.1037  0.1217 -0.1153
64551ION    NA+20792   0.454  30.619   8.839 -0.0399  0.1554  0.1865
64552ION    NA+20793  26.294  24.081   8.594 -0.1479 -0.2128  0.1000
64553ION    NA+20794  25.554  17.822  15.228  0.4340  0.1035  0.3198
64554ION    NA+20795  12.095  18.622  15.396  0.0543  0.3082 -0.0533
64555ION    NA+20796  19.964   5.899   9.199  0.1060 -0.2781 -0.0363
64556ION    NA+20797  32.287  29.953  20.946  0.0503 -0.4693 -0.1639
64557ION    NA+20798  25.216  20.268  17.266  0.1821 -0.1045 -0.1197
64558ION    NA+20799  17.565  23.622  21.032 -0.1303  0.2390  0.1976
64559ION    NA+20800  10.061  29.292   0.735  0.1606 -0.0584 -0.2035
64560ION    NA+20801  27.277  22.820  14.198 -0.1398 -0.2001 -0.0742
64561ION    NA+20802  14.663  25.323   9.901 -0.2311 -0.0106  0.1730
64562ION    NA+20803  16.716  12.955  11.584  0.0336 -0.0220  0.0589
64563ION    NA+20804  35.161  18.900   0.469 -0.2362 -0.1331  0.0715
64564ION    NA+20805  32.916   4.149   0.432  0.2252 -0.1051 -0.1012
64565ION    NA+20806  25.864  16.972  19.415  0.0245 -0.0514  0.0136
64566ION    NA+20807   4.761  18.127  25.391  0.0055  0.2035 -0.2522
64567ION    NA+20808  13.162   4.221   1.383  0.0615 -0.4759 -0.1668
64568ION    NA+20809  13.867  17.824  24.837  0.1089  0.0286 -0.0045
64569ION    NA+20810  15.077  16.555   6.830  0.2999  0.1839 -0.0360
64570ION    NA+20811   6.004  16.286   3.678 -0.0191  0.2158 -0.1396
64571ION    NA+20812  11.217  35.253  25.290 -0.1183 -0.2092 -0.0390
64572ION    NA+20813  21.607   1.072   8.486 -0.0446 -0.2228  0.0482
64573ION    NA+20814  21.914  21.169  25.525  0.1115 -0.1682  0.3616
64574ION    NA+20815   1.700  21.868  12.161  0.1258 -0.2791 -0.1236
64575ION    NA+20816  32.065  23.577  18.974  0.0670  0.2291  0.0249
64576ION    NA+20817  28.393  24.476  10.820 -0.2388 -0.2303 -0.0419
64577ION    NA+20818  34.802  28.152   2.481  0.1335  0.0236  0.1449
64578ION    NA+20819  20.712  19.026  24.924  0.0822  0.2728  0.2956
64579ION    NA+20820   6.220   2.106   1.901 -0.0703  0.1433  0.3274
64580ION    NA+20821  17.463  30.267   5.395  0.1669 -0.2263 -0.3883
64581ION    NA+20822  14.397  12.545   5.608  0.3355 -0.1315 -0.1687
64582ION    NA+20823   9.834   0.257   2.457  0.1576 -0.3358  0.0610
64583ION    NA+20824   7.617   0.049  20.148  0.0123  0.0038 -0.1401
64584ION    NA+20825  21.754  32.762   3.459 -0.0124  0.1323  0.0286
64585ION    NA+20826   2.885  18.068  18.625  0.3129  0.2786 -0.0814
64586ION    NA+20827  32.307  11.856  20.761 -0.5721 -0.0489  0.0288
64587ION    NA+20828  20.943  20.483  26.183 -0.0942  0.0941 -0.3008
64588ION    NA+20829  34.181   0.312   3.158  0.2107 -0.0579  0.0846
64589ION    NA+20830   3.943  27.600  24.006 -0.0086 -0.1341 -0.1958
64590ION    NA+20831  12.395  33.268  22.667 -0.1712 -0.0494  0.0305
64591ION    NA+20832  16.075  26.522   5.197  0.0995  0.3198 -0.4668
64592ION    NA+20833   4.504  32.852  22.056 -0.2158 -0.0944 -0.0962
64593ION    NA+20834  15.973  23.583   0.297  0.1853  0.4278  0.0066
64594ION    NA+20835  32.350   0.805  18.903 -0.0991 -0.1172  0.0983
64595ION    NA+20836   8.292  20.142  24.167 -0.1504 -0.0437 -0.1234
64596ION    NA+20837  31.344   1.839  21.715 -0.0488 -0.0249  0.1446
64597ION    NA+20838  23.349  14.197  17.723 -0.1708  0.3644 -0.2088
64598ION    NA+20839  31.043  18.379   4.357 -0.0258  0.0321  0.0584
64599ION    NA+20840  31.853  34.198  20.870 -0.2645 -0.1433 -0.2031
64600ION    NA+20841  10.233   3.547  19.473  0.0515 -0.3209 -0.0642
64601ION    NA+20842   2.324  10.304  13.663 -0.0954 -0.4413 -0.2653
64602ION    NA+20843   6.418  28.422   2.020 -0.2915  0.1118  0.1603
64603ION    NA+20844  27.023   1.989  23.488  0.0961 -0.2827  0.0665
64604ION    NA+20845  16.034  20.587  22.262 -0.4020  0.0290 -0.4124
64605ION    NA+20846  16.780  14.750   8.043 -0.0842 -0.2400  0.2713
64606ION    NA+20847   7.383  29.563   0.818  0.3536  0.0037 -0.2046
64607ION    NA+20848  17.547  26.980   5.880  0.0346 -0.0639 -0.0890
64608ION    NA+20849   1.198  24.082  25.142  0.0955  0.0255 -0.1620
64609ION    NA+20850  15.605  29.517  14.191 -0.1611  0.2355 -0.2091
64610ION    NA+20851  19.896  21.447   1.130  0.0105  0.0895  0.1896
64611ION    NA+20852  23.992   5.350  24.908  0.0572 -0.1533  0.1693
64612ION    NA+20853  35.261   3.897  23.219  0.0118 -0.0052  0.0763
64613ION    NA+20854  21.660  15.929  15.325 -0.0130 -0.0220  0.0474
64614ION    NA+20855  28.648  10.412   0.615  0.2900  0.1996 -0.2414
64615ION    NA+20856  26.751  23.055   6.259  0.1461 -0.3981 -0.1914
64616ION    NA+20857   6.279  20.941  19.319  0.0774 -0.0511  0.0597
64617ION    NA+20858  18.252  12.218  12.755  0.1799 -0.2536 -0.1490
64618ION    NA+20859   5.010   3.913  18.418  0.0099 -0.0249 -0.1874
64619ION    NA+20860  16.049  29.645  24.468  0.1186 -0.3312 -0.1296
64620ION    NA+20861   1.372  29.969  22.899 -0.1393  0.0800 -0.0048
64621ION    NA+20862   2.522  16.850  17.244  0.2742 -0.0917 -0.1033
64622ION    NA+20863  33.021  23.894  18.648 -0.0485  0.1391 -0.1585
64623ION    NA+20864  17.345  19.960   1.368 -0.0716 -0.4585 -0.1394
64624ION    NA+20865  32.180  32.355  11.917  0.1539 -0.1143 -0.1359
64625ION    NA+20866  25.466   9.199   2.595 -0.2204  0.0418 -0.2552
64626ION    NA+20867  20.026  32.042  22.537  0.0326 -0.2155 -0.4120
64627ION    NA+20868  15.113  27.735   2.460  0.1406  0.0891 -0.1454
64628ION    NA+20869  21.647  25.638  22.037 -0.1644  0.0135  0.2334
64629ION    NA+20870  24.800  27.641  23.000  0.0613 -0.1599 -0.2925
64630ION    NA+20871  30.230  32.031  25.614  0.3660 -0.1094 -0.0733
64631ION    NA+20872   5.099  17.866   5.602 -0.0579  0.0512  0.2579
64632ION    NA+20873   7.987  26.431  16.034 -0.1969 -0.1416  0.2340
64633ION    NA+20874   1.576   8.110  26.087  0.1877  0.0135  0.0802
64634ION    NA+20875  34.583  17.954  10.749 -0.1998  0.0242 -0.0882
64635ION    NA+20876   9.271   4.115   7.771 -0.0564 -0.1681  0.2590
64636ION    NA+20877  30.253  22.423   4.592 -0.0580 -0.2705  0.0725
64637ION    NA+20878  11.999  19.121  25.875  0.1768 -0.1589  0.0151
64638ION    NA+20879   9.206  32.266  21.736  0.0814 -0.0866  0.0643
64639ION    NA+20880  23.782  13.049  20.626  0.0036 -0.1549 -0.1228
64640ION    NA+20881   4.740  29.407  25.039 -0.3290 -0.0698 -0.0672
64641ION    NA+20882  17.560   8.840   5.804  0.1326  0.3844 -0.1857
64642ION    NA+20883   9.084  27.686   6.820  0.0323  0.2530  0.0716
64643ION    NA+20884  17.135  12.691   2.472  0.1358  0.1741  0.0260
64644ION    NA+20885   6.111  19.582   8.158 -0.2638  0.2404  0.0071
64645ION    NA+20886  20.750  11.908  21.467  0.1271  0.0171  0.0323
64646ION    NA+20887  12.354  25.548  18.033 -0.0689  0.1250 -0.0172
64647ION    NA+20888  11.567  33.794   8.829 -0.1796 -0.0165 -0.0478
64648ION    NA+20889  33.920  22.020  20.423 -0.0753  0.0253  0.1219
64649ION    NA+20890  25.253  23.344  25.788  0.2339  0.1995 -0.1581
64650ION    NA+20891  12.668  25.792  24.032  0.2263 -0.2352 -0.1984
64651ION    NA+20892  34.186  30.277  13.910  0.0080  0.1333 -0.0386
64652ION    NA+20893  13.585  24.593  13.452 -0.1242  0.0135  0.0218
64653ION    NA+20894  25.160  24.346  11.983 -0.4025  0.1234  0.0212
64654ION    NA+20895  29.598  15.082  17.895  0.1147  0.1460  0.0080
64655ION    NA+20896  28.568  29.961  16.321 -0.0578 -0.2773 -0.3061
64656ION    NA+20897   4.385  33.235  18.521  0.0629 -0.0757  0.0821
64657ION    NA+20898   9.487  12.818  11.687 -0.0640 -0.0247  0.2771
64658ION    NA+20899  34.661  34.307  15.603 -0.0511 -0.0565 -0.1065
64659ION    NA+20900  26.933   8.201   8.587 -0.0607  0.1175  0.0693
64660ION    NA+20901   9.816   7.393   3.445  0.0898 -0.0215 -0.0111
64661ION    NA+20902  26.537   0.780  20.890 -0.0550  0.2216  0.2691
64662ION    NA+20903  25.109  29.916   0.732  0.2528 -0.0841  0.0705
64663ION    NA+20904   9.159   3.810   3.024 -0.1215  0.1009  0.3454
64664ION    NA+20905  17.510   1.679   9.969  0.1585  0.5134  0.1829
64665ION    NA+20906  28.607  34.755  22.482 -0.0707  0.0249  0.3738
64666ION    NA+20907  33.545  13.469  10.715  0.3223 -0.0947  0.2501
64667ION    NA+20908  34.855  21.467  19.531 -0.1073 -0.0263  0.0620
64668ION    NA+20909  13.442  15.289  19.388 -0.2934 -0.2671  0.1369
64669ION    NA+20910  11.347  17.363  19.306 -0.3259  0.0457 -0.0197
64670ION    NA+20911  28.634  14.412  12.447 -0.0231  0.1338 -0.1270
64671ION    NA+20912  17.935  10.536   5.729 -0.2907 -0.3232 -0.1920
64672ION    NA+20913   8.358  21.412   3.993  0.1554 -0.2438 -0.0574
64673ION    NA+20914  12.420  19.824   8.034  0.0567 -0.0133  0.2354
64674ION    NA+20915  19.280   5.922  11.879  0.1347 -0.2910 -0.0674
64675ION    NA+20916   6.583   3.986  18.817  0.3441  0.1357  0.0038
64676ION    NA+20917  29.979  20.647   9.806 -0.4571  0.1131 -0.0013
64677ION    NA+20918   6.459  12.840  21.146 -0.1216 -0.1534 -0.0582
64678ION    NA+20919  17.353   7.158   1.850 -0.1866  0.1447  0.2768
64679ION    NA+20920   1.528  13.206  22.834  0.0355 -0.2504 -0.0618
64680ION    NA+20921   7.992  15.627   6.630 -0.0438 -0.0737  0.1374
64681ION    NA+20922  33.778  35.332  21.338  0.1315  0.1184 -0.1484
64682ION    NA+20923   4.020   6.988   5.823  0.2635 -0.0498  0.3652
64683ION    NA+20924  27.429  14.020  22.237  0.1462 -0.1289 -0.0391
64684ION    NA+20925  32.485  17.187   6.439 -0.1160  0.0052  0.0008
64685ION    NA+20926  31.412   2.395  24.523 -0.0088 -0.3890 -0.1903
64686ION    NA+20927  11.216   8.125   3.185  0.0803  0.3209  0.0611
64687ION    NA+20928  24.415  19.615   1.784  0.3600 -0.2784 -0.0374
64688ION    NA+20929   7.553  19.612  11.737  0.1806 -0.2467 -0.0205
64689ION    NA+20930   2.081  33.960  22.865  0.1101  0.3535 -0.1540
64690ION    NA+20931  33.534   0.343  17.484  0.0348  0.3060 -0.0725
64691ION    NA+20932   7.650   1.478  14.662  0.0724  0.0285 -0.1603
64692ION    NA+20933  20.716  27.152  17.958  0.1358  0.1839 -0.0006
64693ION    NA+20934  30.992   6.376  22.246 -0.0185  0.0800 -0.0054
64694ION    NA+20935   5.798  20.639   4.565  0.1744  0.4041  0.1582
64695ION    NA+20936   2.977  25.943   4.516  0.0655 -0.0997  0.1598
64696ION    NA+20937  26.534   1.837  25.864  0.3865 -0.0087  0.0494
64697ION    NA+20938  31.253   2.417  15.674  0.1142 -0.1342  0.1856
64698ION    NA+20939  27.692  34.537  12.284  0.0796 -0.0164 -0.1917
64699ION    NA+20940  10.784  25.983   7.450  0.1108  0.2527 -0.2549
64700ION    NA+20941  33.951   3.130   7.671  0.1044 -0.0045 -0.1249
64701ION    NA+20942  23.959  20.108  19.046  0.1920  0.1525 -0.0388
64702ION    NA+20943  29.552  29.037   3.725  0.1095  0.0712 -0.1505
64703ION    NA+20944  19.394   8.588  22.453 -0.3143 -0.0963  0.1169
64704ION    NA+20945   3.958   8.545   8.208 -0.0377  0.2309  0.2928
64705ION    NA+20946  16.402  19.628   8.633  0.0277 -0.2555  0.1130
64706ION    NA+20947  27.808   5.617  23.405  0.0741 -0.1421  0.2255
64707ION    NA+20948  14.889  12.360  21.179 -0.1763 -0.0833 -0.1563
64708ION    NA+20949  32.855  22.035  17.643 -0.1059  0.0958  0.0102
64709ION    NA+20950   7.661  12.911   0.800  0.0505 -0.1692  0.0159
64710ION    NA+20951   4.196  14.765  17.809 -0.2370  0.0314  0.1722
64711ION    NA+20952  32.277  24.390   0.518 -0.0336 -0.0428  0.1633
64712ION    NA+20953   8.522  24.612   2.941 -0.1856  0.0727 -0.0859
64713ION    NA+20954   8.514   8.360   7.157  0.3905  0.2095 -0.0268
64714ION    NA+20955  35.191  21.546  11.924 -0.2645  0.1654  0.2977
64715ION    NA+20956   6.500   1.333  13.480 -0.3117  0.0259 -0.1204
64716ION    NA+20957   9.243   1.954   5.911 -0.2410 -0.0439  0.1560
64717ION    NA+20958  18.473  17.675  12.354 -0.3499  0.0135 -0.1853
64718ION    NA+20959  31.325  11.099   7.736  0.0069 -0.1141  0.1619
64719ION    NA+20960  14.724   4.722   2.205  0.1403  0.1793 -0.1255
64720ION    NA+20961  31.787  33.116  25.964 -0.1265 -0.1263  0.3309
64721ION    NA+20962  14.265  10.150  13.894  0.2515 -0.2380 -0.1274
64722ION    NA+20963  15.626  12.183   8.338 -0.2012 -0.0545 -0.0423
64723ION    NA+20964   6.380   3.064   9.060 -0.2023  0.0684  0.1548
64724ION    NA+20965  29.627  16.496  26.141  0.0075  0.1282 -0.1850
64725ION    NA+20966  26.939  21.646  13.198 -0.0347 -0.1392  0.2262
64726ION    NA+20967  12.481  24.483   2.970 -0.1765 -0.3273 -0.1909
64727ION    NA+20968  18.610  29.839  24.714  0.1511 -0.2636 -0.3994
64728ION    NA+20969   1.584  32.282  19.599 -0.1994  0.0446 -0.0612
64729ION    NA+20970  29.708   7.117   0.216 -0.2040  0.0209 -0.0820
64730ION    NA+20971  30.812  29.850   0.257  0.0893  0.0315  0.0358
64731ION    NA+20972   8.760  13.016   3.900 -0.2718 -0.0737 -0.0230
64732ION    NA+20973  16.554   6.639   5.048 -0.4842 -0.1713 -0.1421
64733ION    NA+20974  14.903   5.869  13.276  0.0654  0.3247 -0.2017
64734ION    NA+20975   7.093  17.752  24.677 -0.1831  0.1461 -0.1239
64735ION    NA+20976   7.522  21.357  21.358  0.1241 -0.1155 -0.0134
64736ION    NA+20977  32.435  34.273  17.190 -0.0297 -0.0116  0.0368
64737ION    NA+20978  19.315  25.635   9.488  0.3436 -0.2320  0.2343
64738ION    NA+20979  28.249  30.526  15.262  0.3029 -0.2654 -0.0843
64739ION    NA+20980   0.822   4.114  20.806 -0.4574 -0.1819  0.2064
64740ION    NA+20981  12.123   7.491  25.422  0.1438 -0.0754 -0.2149
64741ION    NA+20982   6.707  21.322   7.562  0.2587  0.0962 -0.0749
64742ION    NA+20983  28.053  32.605  12.315 -0.4638 -0.0291  0.2413
64743ION    NA+20984   2.962  31.838   6.596 -0.0392  0.7137  0.2309
64744ION    NA+20985  20.167   7.533   9.273  0.2396 -0.0261  0.0609
64745ION    NA+20986   2.420   2.952  20.691  0.0993 -0.1836 -0.2344
64746ION    NA+20987  20.390  17.705   2.036 -0.0670  0.0780  0.0424
64747ION    NA+20988   7.519  29.666  13.618  0.0233 -0.0450  0.0589
64748ION    NA+20989  11.193  18.338   0.755 -0.1119 -0.2062 -0.4306
64749ION    NA+20990  35.210  33.597  22.671  0.3796  0.1117 -0.0662
64750ION    NA+20991   7.555   1.167   3.458 -0.0273  0.0129 -0.2985
64751ION    NA+20992  12.187  27.247  17.779  0.1658  0.0414 -0.0268
64752ION    NA+20993   3.864  17.405  17.158  0.1495 -0.1462 -0.4167
64753ION    NA+20994  24.183  13.598  14.453 -0.2954 -0.0405 -0.3257
64754ION    NA+20995   4.279  12.978   3.947 -0.1906 -0.1630 -0.1223
64755ION    NA+20996  10.697  16.052   6.384 -0.0898 -0.2459 -0.1041
64756ION    NA+20997  14.164  15.677  22.331  0.0328  0.2101 -0.2305
64757ION    NA+20998  16.849  15.383   9.844 -0.4215  0.0059  0.2749
64758ION    NA+20999  15.231  18.439  25.758 -0.3362  0.0597  0.2152
64759ION    NA+21000   5.394   8.359  21.980  0.0724  0.0851 -0.2199
64760ION    NA+21001  29.203  20.551  10.284 -0.0922 -0.0703 -0.4036
64761ION    NA+21002  35.009  11.885  21.382 -0.3873 -0.1721 -0.1684
64762ION    NA+21003  14.838  14.904   8.290 -0.0990  0.0327 -0.0309
64763ION    NA+21004   0.185  24.470  18.358 -0.0094 -0.0830 -0.1870
64764ION    NA+21005   3.088  16.768   4.123  0.0826  0.3461 -0.1882
64765ION    NA+21006  33.145  27.271  11.928  0.0388  0.1028 -0.0354
64766ION    NA+21007  33.263  15.483  25.404  0.2026  0.1431 -0.0174
64767ION    NA+21008  13.596   2.828   9.382 -0.1411  0.2678  0.1207
64768ION    NA+21009  26.834  13.882  16.940 -0.0864  0.0196  0.2139
64769ION    NA+21010  16.381   3.618   9.177  0.1729 -0.1518  0.0148
64770ION    NA+21011   0.098   1.909  19.571  0.1263  0.1439 -0.1168
64771ION    NA+21012  32.904  11.824   6.834  0.0585  0.0812  0.3097
64772ION    NA+21013  23.813  25.605   3.062 -0.0500  0.1474  0.2883
64773ION    NA+21014  28.165  15.482   4.051 -0.0891  0.1214  0.4102
64774ION    NA+21015  19.177  23.015   1.230  0.2407 -0.1750  0.0614
64775ION    NA+21016   8.233  10.443  13.599  0.0403 -0.1049 -0.3219
64776ION    NA+21017  16.072   6.454  21.303  0.2824 -0.1594 -0.1430
64777ION    NA+21018   2.063  31.118   9.361  0.2473  0.1628 -0.0267
64778ION    NA+21019  28.447   9.367  10.507 -0.0627 -0.0644 -0.0006
64779ION    NA+21020  30.339  34.064   3.065  0.0885 -0.1769  0.1303
64780ION    NA+21021  32.608  21.944  11.479  0.1406 -0.3716  0.0483
64781ION    NA+21022  32.630   4.784   6.111  0.3460  0.1809  0.1360
64782ION    NA+21023  16.913  26.772  20.350  0.0550  0.0108  0.2244
64783ION    NA+21024  18.224  11.909   9.969  0.1167 -0.3386 -0.2247
64784ION    NA+21025  24.599  15.250  16.587  0.1828  0.2264 -0.3455
64785ION    NA+21026   7.726   7.644  25.510 -0.0437  0.2898  0.1638
64786ION    NA+21027  35.353  28.108   7.190  0.1359  0.1689 -0.1191
64787ION    NA+21028  26.812   3.560   1.578  0.1103 -0.2620  0.0685
64788ION    NA+21029  25.372  15.566  11.284  0.0913 -0.1291  0.3001
64789ION    NA+21030   6.315  31.323  21.256 -0.0482 -0.2060 -0.0416
64790ION    NA+21031  25.927  31.840  17.589 -0.2850 -0.0865 -0.1568
64791ION    NA+21032   6.508   9.771  21.571  0.3942 -0.0277  0.2414
64792ION    NA+21033  28.950   8.617  19.332  0.3248  0.0654 -0.2261
64793ION    NA+21034   4.321  15.227  23.301 -0.1778  0.2230 -0.1032
64794ION    NA+21035   5.618  31.545   1.741 -0.3140  0.0956  0.3115
64795ION    NA+21036   6.919  26.011  26.156  0.0065  0.2292 -0.1228
64796ION    NA+21037  13.246  14.601   0.011  0.2681  0.3523 -0.1429
64797ION    NA+21038  24.497  26.641   2.408 -0.0286 -0.0993 -0.2496
64798ION    NA+21039  26.968  31.855  24.100  0.0963 -0.0422  0.4304
64799ION    NA+21040  17.969  13.426  18.127  0.6598  0.3720  0.1953
64800ION    NA+21041  22.672  10.815   4.863  0.1822 -0.0887 -0.0013
64801ION    NA+21042   2.752  32.584  12.113 -0.0643 -0.0315  0.0619
64802ION    NA+21043  19.296  22.748  11.873 -0.1557 -0.0321  0.0056
64803ION    NA+21044   5.458  30.135  10.362 -0.1129 -0.0551 -0.1430
64804ION    NA+21045  11.689  24.926  14.758 -0.0691  0.0175  0.1078
64805ION    NA+21046  30.235  28.101  19.250  0.0869  0.1358 -0.1476
64806ION    NA+21047   7.165  26.706  24.679  0.1222 -0.2025 -0.0374
64807ION    NA+21048   7.575  27.492   7.792  0.1298 -0.2662  0.3027
64808ION    NA+21049  32.270  30.419  24.686  0.2992 -0.2173 -0.0528
64809ION    NA+21050   2.460  32.774  11.181 -0.1930  0.1737  0.0002
64810ION    NA+21051  20.335  33.978  19.682  0.2574  0.2370 -0.0809
64811ION    NA+21052  12.421  30.996  25.183 -0.0373  0.0336  0.0086
64812ION    NA+21053  32.094  35.331   0.040  0.1492 -0.2500 -0.1703
64813ION    NA+21054   4.535  19.818  19.690  0.1981  0.1271 -0.3035
64814ION    NA+21055   0.356  27.480   7.454 -0.0652  0.1320 -0.0689
64815ION    NA+21056  23.601  25.616  13.217 -0.0312  0.2749  0.2088
64816ION    NA+21057  33.951  29.407  22.236 -0.0360  0.2008 -0.4105
64817ION    NA+21058  24.322  31.136  22.828 -0.0681  0.0029 -0.1400
64818ION    NA+21059   7.363   4.613   4.568 -0.0618 -0.2266  0.1230
64819ION    NA+21060   3.876   8.174  23.095 -0.2108 -0.5550 -0.0316
64820ION    NA+21061  34.409  11.208   2.423  0.0157  0.2278 -0.2443
64821ION    NA+21062  28.250  21.780   9.074 -0.1979  0.1415 -0.0115
64822ION    NA+21063  24.479  14.703   9.486  0.0083 -0.1356  0.0131
64823ION    NA+21064  30.893  21.139   5.588  0.2959  0.1669 -0.0358
64824ION    NA+21065  19.967   0.028  19.196 -0.0871  0.0215  0.4166
64825ION    NA+21066   9.761  19.784   0.616  0.3770  0.2158 -0.1166
64826ION    NA+21067  14.520  35.244  12.582 -0.2563  0.0013  0.0557
64827ION    NA+21068   8.757  14.052   2.945  0.3798  0.1182 -0.2837
64828ION    NA+21069  31.895  33.746  14.334  0.1433  0.0391 -0.0678
64829ION    NA+21070   9.967   8.832  23.201  0.3234 -0.1309 -0.1214
64830ION    NA+21071  27.979  26.485   7.920  0.0773 -0.0217  0.2483
64831ION    NA+21072  32.411  30.331  16.820 -0.0676  0.1061 -0.2190
64832ION    NA+21073  28.337   1.303  23.427  0.1253  0.0064 -0.0516
64833ION    NA+21074   8.262  18.071   0.041 -0.1938  0.0268 -0.0571
64834ION    NA+21075  21.305  11.149   8.886 -0.1924 -0.0555 -0.0809
64835ION    NA+21076   7.398   8.949   7.281 -0.0697 -0.0000 -0.5399
64836ION    NA+21077  27.378  26.636   1.243  0.0284  0.1744  0.4831
64837ION    NA+21078  32.223   2.906  21.142  0.0544 -0.1908  0.0849
64838ION    NA+21079   5.230   7.359  19.934 -0.1671 -0.2897 -0.2255
64839ION    NA+21080  25.042  22.482  15.322 -0.0913 -0.0214 -0.1368
64840ION    NA+21081   9.271  24.515  15.632  0.3858 -0.1439  0.2006
64841ION    NA+21082  14.082  17.386  11.864  0.1006 -0.1001 -0.0416
64842ION    NA+21083   4.620  18.592  26.056  0.0857 -0.3453 -0.1134
64843ION    NA+21084  18.693   4.458  11.078 -0.3062 -0.1256  0.1178
64844ION    NA+21085  30.891  18.369  13.875  0.1266 -0.2638 -0.1470
64845ION    NA+21086  11.119   7.296   9.214  0.0858 -0.0445  0.0559
64846ION    NA+21087  25.147  16.075  12.721  0.1732 -0.1891 -0.1361
64847ION    NA+21088   1.901  18.702  19.425 -0.0095 -0.0022  0.1331
64848ION    NA+21089  13.908  19.248   4.766  0.0970 -0.2220 -0.0361
64849ION    NA+21090   8.013  23.606  13.767  0.4449  0.1775 -0.0635
64850ION    NA+21091  33.941  23.617  13.011  0.1989  0.0310 -0.0301
64851ION    NA+21092  26.213  16.612   0.127  0.1637 -0.1235  0.1136
64852ION    NA+21093  29.499  24.086   0.830 -0.5012  0.1678 -0.4536
64853ION    NA+21094  25.763  10.350  17.622 -0.3755  0.0126  0.2119
64854ION    NA+21095  27.575  13.535  18.934  0.3054 -0.1410  0.0944
64855ION    NA+21096  24.276  12.023  26.120  0.1338  0.3165 -0.0355
64856ION    NA+21097   5.793  10.990  20.537  0.0547 -0.2197  0.2542
64857ION    NA+21098   0.896  20.306   9.248 -0.1384 -0.0422  0.0763
64858ION    NA+21099  16.461  28.716  21.877  0.0356  0.0111  0.1105
64859ION    NA+21100  25.184  10.223  15.398  0.0006 -0.2339 -0.1428
64860ION    NA+21101  31.325  23.561  25.275  0.1043  0.0232  0.0230
64861ION    NA+21102   7.433  28.872  16.384 -0.2233 -0.0856  0.2233
64862ION    NA+21103   6.965   8.826  17.477 -0.1338 -0.2894 -0.2066
64863ION    NA+21104  26.667  25.022   1.732 -0.0097 -0.0424  0.1579
64864ION    NA+21105  24.964  32.277   4.453  0.1039  0.0926  0.1009
64865ION    NA+21106  10.192  25.981  10.248  0.0159 -0.1201 -0.2066
64866ION    NA+21107  18.471  16.789  12.131  0.2041 -0.0400 -0.0946
64867ION    NA+21108  17.321  27.688   4.913  0.0548 -0.1157  0.2710
64868ION    NA+21109   6.103  13.341  25.616  0.3649  0.0656 -0.1017
64869ION    NA+21110  19.384   8.816   6.568  0.0606  0.0431  0.0721
64870ION    NA+21111  30.810   9.282   1.667  0.1748  0.0731  0.1851
64871ION    NA+21112  34.284  18.341  21.479  0.0182  0.0161 -0.1385
64872ION    NA+21113   8.044  27.605  13.300  0.1764 -0.1303  0.1355
64873ION    NA+21114  23.819  30.033  15.150  0.2001 -0.4372 -0.1170
64874ION    NA+21115  13.602  17.911   3.361  0.2223 -0.1209 -0.0422
64875ION    NA+21116  30.202  26.438  16.920 -0.1264  0.2072 -0.3375
64876ION    NA+21117  13.635  21.291  12.775 -0.0701  0.2458 -0.1007
64877ION    NA+21118  20.755   0.366  14.613  0.2835 -0.1429 -0.2378
64878ION    NA+21119  20.444  28.979  19.581 -0.0578 -0.1981  0.2072
64879ION    NA+21120  14.626  22.948  12.541 -0.3822 -0.0818  0.2351
64880ION    NA+21121   6.658  25.856  14.515  0.3459  0.0888  0.0809
64881ION    NA+21122  17.891  31.968   5.021  0.0789  0.3635 -0.1138
64882ION    NA+21123  26.963  17.213  22.697 -0.1496  0.0739 -0.1003
64883ION    NA+21124  25.522   3.948  16.136  0.0145  0.1584 -0.1074
64884ION    NA+21125  33.701  30.024   4.632 -0.0176  0.2906 -0.1757
64885ION    NA+21126  30.807  28.680   4.164 -0.2804 -0.0376 -0.0866
64886ION    NA+21127   8.270  20.244  10.101 -0.0686 -0.0122 -0.2275
64887ION    NA+21128  19.004  28.894  19.368  0.0870  0.4596 -0.3081
64888ION    NA+21129  25.884  11.280   1.486 -0.5897 -0.0022  0.0149
64889ION    NA+21130  21.592  30.191   7.242 -0.1309 -0.2209  0.2418
64890ION    NA+21131  18.900  10.546   0.121  0.1258  0.0734  0.0596
64891ION    NA+21132  10.486  11.334  24.018 -0.0155 -0.0898  0.1579
64892ION    NA+21133  15.742  26.761  16.351 -0.0252 -0.2688 -0.1857
64893ION    NA+21134   3.185   6.902   8.385 -0.0332 -0.2022 -0.4804
64894ION    NA+21135   4.155  29.794   5.281  0.0221 -0.2694  0.0451
64895ION    NA+21136   9.823   7.619   7.310  0.1113 -0.0685 -0.0357
64896ION    NA+21137  20.835  23.056   1.917 -0.1657  0.2410 -0.1104
64897ION    NA+21138   3.016  18.083  25.087 -0.3012  0.0613  0.1010
64898ION    NA+21139  14.434   6.375  26.094  0.1018  0.0811 -0.0545
64899ION    NA+21140  25.384   3.365   1.783  0.0965  0.0175  0.0134
64900ION    NA+21141  23.027  16.570  16.414 -0.1347 -0.1445 -0.1218
64901ION    NA+21142   5.850   8.902   6.987 -0.2057  0.2643 -0.3845
64902ION    NA+21143  30.381  25.823   1.616 -0.1655  0.0649  0.2713
64903ION    NA+21144  24.672  17.913  23.006  0.1478  0.3548 -0.1104
64904ION    NA+21145  23.912   0.214  15.555  0.0678 -0.1240  0.1287
64905ION    NA+21146  25.273   1.192  13.404 -0.0048  0.0699 -0.1519
64906ION    NA+21147   6.502   9.610  10.186 -0.1084 -0.0971 -0.2835
64907ION    NA+21148  18.199   6.089   4.969  0.2438 -0.2511  0.1140
64908ION    NA+21149  20.425  20.581   7.640 -0.2007 -0.0420 -0.0305
64909ION    NA+21150   2.801  16.568  23.843 -0.1026 -0.1053  0.2695
64910ION    NA+21151  23.930  13.305  16.433  0.0412  0.0068  0.1537
64911ION    NA+21152  14.290   4.553   9.745  0.2617 -0.2832 -0.3641
64912ION    NA+21153   3.224   9.033   0.049  0.0680  0.1251  0.2821
64913ION    NA+21154  23.362   9.636   4.676  0.0965 -0.0902  0.0524
64914ION    NA+21155   3.743  23.633  18.274 -0.0605  0.0975 -0.2716
64915ION    NA+21156   5.952   8.201   0.952 -0.0656 -0.3159  0.0239
64916ION    NA+21157  13.921   9.240  24.284  0.0420 -0.1341 -0.2696
64917ION    NA+21158  17.798  27.256  23.868  0.1153  0.3995 -0.0735
64918ION    NA+21159  25.157  12.840   2.186  0.1698 -0.2492 -0.3307
64919ION    NA+21160   7.267  32.919  25.760  0.4820  0.1843  0.1073
64920ION    NA+21161  29.892  30.187  20.372 -0.2539 -0.1443 -0.4946
64921ION    NA+21162  14.444  17.956   7.316 -0.0862 -0.1074 -0.1433
64922ION    NA+21163  23.903  28.267   0.417  0.0373  0.3947  0.0978
64923ION    NA+21164  15.964  19.013   9.582  0.1447 -0.1199 -0.2516
64924ION    NA+21165  22.290  18.650  23.667  0.0583 -0.1113 -0.0600
64925ION    NA+21166  32.331   2.618   0.993 -0.1662 -0.1376  0.1587
64926ION    NA+21167  19.925  14.878  16.820  0.0407  0.1353  0.2573
64927ION    NA+21168   2.162  22.506  12.339  0.1284  0.1247 -0.3044
64928ION    NA+21169  22.993   7.495   2.119  0.0238  0.1477  0.3851
64929ION    NA+21170  31.868   7.819   9.785  0.2655  0.2405  0.1375
64930ION    NA+21171   2.068   0.446  25.029  0.2639 -0.1939  0.1087
64931ION    NA+21172  32.361   2.248  17.601  0.3706  0.0331  0.1131
64932ION    NA+21173   4.184  28.193  19.476  0.2952 -0.2672 -0.3058
64933ION    NA+21174   4.301  31.644  25.174 -0.0157 -0.1269 -0.0280
64934ION    NA+21175   1.436  14.611  10.765  0.3108 -0.2863 -0.1677
64935ION    NA+21176  10.482  30.385   2.070  0.0302  0.0480 -0.1307
64936ION    NA+21177  32.922  11.434  12.996 -0.0220 -0.0026 -0.0211
64937ION    NA+21178  17.484  19.540   7.100  0.2542  0.1420  0.0046
64938ION    NA+21179  13.710  18.856  15.566 -0.1730  0.1662  0.1524
64939ION    NA+21180  29.613   1.549   4.932 -0.1835 -0.0567  0.0196
64940ION    NA+21181  12.148  32.126   2.600  0.0059 -0.2170 -0.1471
64941ION    NA+21182  19.776  19.894   5.160 -0.0813 -0.2509 -0.1883
64942ION    NA+21183  20.238  15.507   7.726 -0.0424 -0.1772  0.1639
64943ION    NA+21184  27.663  17.329  24.458 -0.0205  0.3251  0.1064
64944ION    NA+21185  30.417  24.809  20.862  0.0646  0.0629  0.1408
64945ION    NA+21186  32.552  14.347  20.709 -0.1240  0.0459 -0.2242
64946ION    NA+21187  12.142  29.759  17.284  0.4022 -0.1386 -0.1660
64947ION    NA+21188  16.557  25.228  20.835  0.0544  0.1584 -0.0358
64948ION    NA+21189  31.501  20.330  20.317 -0.0300 -0.3910  0.1085
64949ION    NA+21190   0.658   6.727  21.748  0.1519  0.2014 -0.3120
64950ION    NA+21191  12.772  16.279   6.158  0.1118 -0.2603  0.2182
64951ION    NA+21192  30.811  28.765  20.066 -0.2373 -0.1008  0.1174
64952ION    NA+21193  26.294  11.979   8.648 -0.0160 -0.2656  0.3991
64953ION    NA+21194  31.045  18.717  24.534 -0.0522 -0.3117 -0.0460
64954ION    NA+21195  20.602  34.090   0.047 -0.0630  0.0840  0.0092
64955ION    NA+21196  25.267  26.028  22.944  0.2051  0.1329  0.2019
64956ION    NA+21197  27.656  34.255  11.429 -0.0258  0.0380  0.0612
64957ION    NA+21198  28.059  25.665   1.701  0.3404  0.3130 -0.0383
64958ION    NA+21199  22.853   1.705   2.627  0.0716  0.0652  0.0870
64959ION    NA+21200  24.195  11.241  25.121 -0.0858  0.0425  0.0910
64960ION    NA+21201  14.763  26.003  17.334 -0.3064  0.1187 -0.3088
64961ION    NA+21202  27.244   1.543  13.350  0.1480  0.0412  0.1993
64962ION    NA+21203  11.432  25.912  12.603 -0.0022  0.1465 -0.0118
64963ION    NA+21204   1.993  25.119   1.061 -0.0913  0.0797 -0.1523
64964ION    NA+21205  15.843  17.574  23.370 -0.1260  0.1204  0.0494
64965ION    NA+21206   6.085   3.941   4.617  0.4886  0.2709  0.0710
64966ION    NA+21207  32.343  29.736  18.637  0.2055  0.1169  0.0883
64967ION    NA+21208   6.305  20.910   8.496 -0.0726 -0.0395 -0.3220
64968ION    NA+21209  29.885  19.580  16.920  0.4061  0.4073 -0.1387
64969ION    NA+21210  23.564   2.953  23.077 -0.1573  0.0311  0.1104
64970ION    NA+21211   6.941  12.289  22.247 -0.1447  0.1174 -0.4479
64971ION    NA+21212  28.009   9.764   6.261 -0.0452 -0.3010  0.0846
64972ION    NA+21213  29.013  15.820  23.844  0.0164 -0.1139  0.2035
64973ION    NA+21214   6.025  17.788   5.866 -0.0489  0.1304  0.1811
64974ION    NA+21215  26.291  12.280  16.941  0.1330 -0.2499  0.0137
64975ION    NA+21216   7.446  16.818   1.824  0.2589  0.2395  0.0177
64976ION    NA+21217  12.220   2.674  23.819  0.0942  0.0068  0.1435
64977ION    NA+21218  31.350  17.450  10.123 -0.1379  0.0226 -0.0779
64978ION    NA+21219  25.970  12.389  15.249 -0.0930 -0.1284  0.6502
64979ION    NA+21220  15.451  19.451  10.103  0.1366  0.3812 -0.1622
64980ION    NA+21221  17.689  33.921   5.557 -0.1653 -0.0058 -0.0065
64981ION    NA+21222  10.444  18.273  11.131  0.1621  0.0746 -0.1316
64982ION    NA+21223  14.963  14.982  20.520  0.1449  0.0404 -0.0514
64983ION    NA+21224  10.143   1.328   9.508 -0.1928 -0.1172 -0.0285
64984ION    NA+21225   7.775  24.155  14.251 -0.2616  0.2384  0.1611
64985ION    NA+21226  10.068   7.856   2.133 -0.0684  0.1544 -0.2255
64986ION    NA+21227  19.447  16.906   0.548 -0.2253 -0.0093 -0.0780
64987ION    NA+21228  21.670  23.170   2.230 -0.0457 -0.0505 -0.0201
64988ION    NA+21229  35.139  27.308  14.455 -0.0496 -0.3147  0.0530
64989ION    NA+21230  10.592   7.703   5.662  0.1323 -0.0983 -0.0317
64990ION    NA+21231  32.407  14.361   0.728  0.0308 -0.0904 -0.4725
64991ION    NA+21232  24.220  23.196  24.261 -0.3032 -0.2816 -0.0784
64992ION    NA+21233  25.652  27.115  15.495  0.1197 -0.6481  0.1430
64993ION    NA+21234   0.401  31.309   9.174 -0.0855 -0.2649 -0.2623
64994ION    NA+21235   6.454  20.414  24.289  0.1310  0.2442  0.1254
64995ION    NA+21236  32.307   1.513  22.518 -0.0390 -0.0457  0.0304
64996ION    NA+21237   3.012  26.142   9.093 -0.0796  0.0354 -0.0388
64997ION    NA+21238  16.246  10.272   0.294  0.0431 -0.0437  0.1632
64998ION    NA+21239   9.576   0.751   9.701 -0.1180 -0.0363 -0.0879
64999ION    NA+21240   0.901  20.078  22.668 -0.1718  0.0847 -0.1856
65000ION    NA+21241   6.314  16.501   9.242  0.2189 -0.1338  0.1362
65001ION    NA+21242   7.506  26.033  14.912 -0.1236  0.0775 -0.3389
65002ION    NA+21243  19.015   7.929  17.443 -0.2600 -0.0146 -0.0385
65003ION    NA+21244  21.119   9.914  18.623 -0.0013 -0.2942 -0.1182
65004ION    NA+21245  12.550  34.971  13.959 -0.1572 -0.2963  0.3490
65005ION    NA+21246  15.966  19.532   0.751 -0.0758  0.0601 -0.1430
65006ION    NA+21247  22.703   6.191  25.970 -0.1055  0.0297  0.0367
65007ION    NA+21248  16.286   8.904  18.809 -0.0633 -0.1979  0.1029
65008ION    NA+21249   2.800   9.663   1.320  0.2613 -0.0085 -0.3756
65009ION    NA+21250  33.430   5.733  21.593 -0.1784  0.2644  0.0540
65010ION    NA+21251  22.127  34.468  22.649  0.1392  0.2034 -0.0999
65011ION    NA+21252  23.368  32.981  14.748  0.0647  0.0413 -0.0034
65012ION    NA+21253  33.789  22.296  19.125 -0.1661 -0.3376 -0.0218
65013ION    NA+21254  18.631  21.831  12.688  0.1908  0.0213  0.1646
65014ION    NA+21255  21.829  32.625   6.264  0.0540 -0.1445 -0.3895
65015ION    NA+21256   5.862  17.288  24.865 -0.3051 -0.6258 -0.2806
65016ION    NA+21257  34.085  26.983  24.641  0.0014  0.3812 -0.0727
65017ION    NA+21258   2.193  20.823  15.451  0.0822 -0.3759 -0.0690
65018ION    NA+21259  28.475   8.326  20.295  0.0999 -0.1508 -0.2532
65019ION    NA+21260  23.640  33.736   6.932 -0.0872 -0.1423  0.0028
65020ION    NA+21261  11.540  12.166   2.201 -0.2067  0.2097  0.0114
65021ION    NA+21262  31.377  24.941   8.496  0.1495 -0.0839 -0.1259
65022ION    NA+21263   4.903  13.664  21.932  0.2498 -0.1214  0.0516
65023ION    NA+21264   3.539  30.554  23.836 -0.1862  0.1927  0.0014
65024ION    NA+21265   8.994  21.243  25.068 -0.0141  0.2749 -0.0366
65025ION    NA+21266  18.980  14.900   9.192 -0.3148  0.4592 -0.0800
65026ION    NA+21267  14.128   7.471  13.764 -0.0741 -0.3078  0.3643
65027ION    NA+21268   7.870  16.226  10.202  0.0785  0.0137 -0.0003
65028ION    NA+21269   8.231   9.425  25.063  0.0090 -0.0405 -0.0122
65029ION    NA+21270  21.769  27.303  14.555  0.5542  0.3045 -0.0059
65030ION    NA+21271  11.356   8.576  10.335 -0.1282 -0.2126  0.3412
65031ION    NA+21272   0.252   3.839  15.145  0.2008 -0.1137  0.0337
65032ION    NA+21273  11.817   5.853  14.556 -0.2043 -0.1535  0.1055
65033ION    NA+21274  27.802  27.902   3.862 -0.0074 -0.3433  0.0489
65034ION    NA+21275   1.613   9.622  11.990 -0.0625 -0.0504  0.0668
65035ION    NA+21276  11.225  30.645   1.642 -0.1087 -0.1176  0.2183
65036ION    NA+21277  25.996  12.353   7.392 -0.2103  0.1047  0.2111
65037ION    NA+21278  34.945  23.379  18.660  0.1696  0.2348 -0.2351
65038ION    NA+21279  15.414   7.601  11.679  0.2000  0.0718  0.1083
65039ION    NA+21280  16.654  19.862   0.325  0.3248 -0.1751 -0.1493
65040ION    NA+21281   9.990  14.684  22.576  0.0919 -0.1167  0.2415
65041ION    NA+21282  33.867  25.981  12.604 -0.2520 -0.0497 -0.0098
65042ION    NA+21283  11.516  34.396  24.711 -0.1513 -0.1751  0.2784
65043ION    NA+21284   1.776  31.897   6.721  0.0984  0.0528 -0.2052
65044ION    NA+21285  13.794  34.424   8.225  0.1419  0.1514 -0.1290
65045ION    NA+21286  10.915  13.746  21.452 -0.0959 -0.0670 -0.1054
65046ION    NA+21287  28.526   8.244  14.427  0.0503  0.2351 -0.0722
65047ION    NA+21288   7.297  15.042   4.106 -0.4126 -0.2001 -0.2738
65048ION    NA+21289  22.667  31.087  21.292  0.2406 -0.2447  0.1452
65049ION    NA+21290  11.412  30.826  14.303 -0.1840  0.2934 -0.0209
65050ION    NA+21291  34.713  27.992  21.029 -0.5077  0.1524  0.2534
65051ION    NA+21292  20.376  19.333   5.324  0.1053  0.1010  0.0117
65052ION    NA+21293  34.584  31.276   8.834 -0.0595  0.0577 -0.0729
65053ION    NA+21294  15.123  27.241  16.776 -0.0293 -0.0766  0.2492
65054ION    NA+21295  25.539   1.795  22.869 -0.1349  0.3344  0.0809
65055ION    NA+21296  10.144  34.275  14.778  0.2513 -0.1171  0.0229
65056ION    NA+21297  12.476   4.512  13.679  0.0452  0.1041  0.0614
65057ION    NA+21298  14.047  16.338  10.473  0.0559 -0.0791  0.1992
65058ION    NA+21299  21.955  28.726   1.106 -0.0982 -0.3393  0.3524
65059ION    NA+21300   1.933  16.757  24.543 -0.2385  0.0905 -0.2558
65060ION    NA+21301   4.075   3.315  23.089  0.0049 -0.0325  0.1811
65061ION    NA+21302  24.714  32.254  12.690  0.2413 -0.0481  0.0448
65062ION    NA+21303   5.711   5.721  10.387  0.3139  0.2815 -0.1388
65063ION    NA+21304  29.488  27.267  20.316 -0.3437 -0.1863  0.0048
65064ION    NA+21305  33.761  18.399   0.303  0.0866 -0.0591 -0.2316
65065ION    NA+21306  28.696  11.628   6.023 -0.1629  0.1402 -0.2383
65066ION    NA+21307  12.067  10.282   3.565  0.1284 -0.1592  0.3152
65067ION    NA+21308  33.716  21.423  20.322 -0.1201  0.3404  0.4599
65068ION    NA+21309  28.441  13.225  22.809  0.0637 -0.4237 -0.1081
65069ION    NA+21310  18.355  19.260   8.971 -0.0159 -0.1393  0.0391
65070ION    NA+21311  21.618   0.051  25.360 -0.0731  0.1736 -0.0294
65071ION    NA+21312  16.183  24.437  16.498  0.0006  0.4113 -0.0693
65072ION    NA+21313  15.123  20.941   3.325  0.1490 -0.0270 -0.1721
65073ION    NA+21314  33.952   4.796   5.496 -0.0675 -0.2430 -0.1619
65074ION    NA+21315   5.199  33.093   6.145  0.0605  0.0541 -0.0619
65075ION    NA+21316   3.185   3.433  22.539 -0.0756 -0.2739  0.0726
65076ION    NA+21317   1.544  23.904  21.540 -0.1198 -0.0665  0.4295
65077ION    NA+21318  21.005   8.568  17.992 -0.0863  0.0022 -0.0158
65078ION    NA+21319  22.622  27.468  13.512 -0.2488  0.0261 -0.0398
65079ION    NA+21320   0.028   3.615   7.131 -0.1652 -0.0891 -0.2216
65080ION    NA+21321  13.314  13.912  21.650  0.2166 -0.2966  0.2903
65081ION    NA+21322   2.105  14.685  21.287 -0.3160  0.0037  0.0370
65082ION    NA+21323  29.294  23.135  17.368  0.2677 -0.1826  0.2000
65083ION    NA+21324  12.010  25.034  13.979  0.1315  0.1689  0.1484
65084ION    NA+21325  34.323  23.206   0.331 -0.0912  0.1597 -0.0156
65085ION    NA+21326  30.703  27.197   3.475  0.1909 -0.2239 -0.0676
65086ION    NA+21327   7.620  12.454   5.921  0.3503  0.0713 -0.0002
65087ION    NA+21328  22.278  11.630  17.980  0.0191  0.1017  0.0495
65088ION    NA+21329  29.298  12.316  13.201 -0.0551  0.1455  0.0308
65089ION    NA+21330  31.437  33.700   4.173 -0.0673  0.0383  0.0913
65090ION    NA+21331   2.626  33.866   5.401  0.1076 -0.0339 -0.3132
65091ION    NA+21332   2.198  23.750  20.734 -0.0263 -0.0820 -0.3070
65092ION    NA+21333  10.534  29.166  17.153  0.1194 -0.2477  0.2439
65093ION    NA+21334  20.408  15.945   0.373  0.3582  0.1637 -0.1974
65094ION    NA+21335  15.145   2.642   9.580  0.0409 -0.1563 -0.0781
65095ION    NA+21336  24.598  10.087  18.343  0.2110 -0.0976  0.0702
65096ION    NA+21337  31.008   5.894   4.272  0.2048  0.1591 -0.4135
65097ION    NA+21338  17.129  16.194  17.939  0.2027  0.3462 -0.0057
65098ION    NA+21339   3.168   4.961   6.855 -0.0116 -0.4295 -0.0840
65099ION    NA+21340  34.871   7.012   3.487  0.0450  0.1301 -0.1956
65100ION    NA+21341  19.577  14.291  24.103  0.0213 -0.0454  0.2240
65101ION    NA+21342  12.368  28.480   5.325 -0.1849  0.3003 -0.1605
65102ION    NA+21343   8.565   7.251  18.778 -0.1318  0.0116  0.0986
65103ION    NA+21344   5.107  15.613  23.582  0.0266 -0.3434 -0.0798
65104ION    NA+21345  28.228   0.443   4.193 -0.1964 -0.2000  0.2346
65105ION    NA+21346  11.643   8.252   2.273  0.0673 -0.3457 -0.1225
65106ION    NA+21347  29.390  27.054  12.224  0.3580 -0.4750  0.0205
65107ION    NA+21348  20.849   4.889   1.419  0.1547 -0.0396  0.1105
65108ION    NA+21349  27.869   9.200   9.697 -0.0957  0.0796 -0.0181
65109ION    NA+21350  24.526  33.956   0.698 -0.2200 -0.0106  0.0287
65110ION    NA+21351  29.787   5.127   0.088  0.1675 -0.2855 -0.1458
65111ION    NA+21352  34.582  21.147  15.750 -0.1720  0.0608 -0.1284
65112ION    NA+21353  33.505  24.458   0.361  0.3366  0.2951 -0.0051
65113ION    NA+21354   1.448   7.091  13.732  0.1104 -0.0902 -0.1314
65114ION    NA+21355  10.554  19.897  11.028 -0.5686  0.1919  0.3513
65115ION    NA+21356   3.732   7.271  25.684 -0.0532 -0.1182  0.0436
65116ION    NA+21357  13.477   4.844  24.324 -0.1126  0.1698  0.1064
65117ION    NA+21358  34.687  18.378  22.926  0.1412 -0.0302  0.2179
65118ION    NA+21359  33.940  30.884  16.511  0.0276 -0.3277  0.0550
65119ION    NA+21360  23.031  28.387  19.901 -0.0062  0.2820 -0.1400
65120ION    NA+21361  16.379   4.472   2.625  0.0174  0.0056 -0.2138
65121ION    NA+21362  15.210  28.169  16.237 -0.1552 -0.1354  0.2159
65122ION    NA+21363  33.966  33.847  17.009  0.2054  0.3077  0.1621
65123ION    NA+21364  31.645  13.958  12.454 -0.0340 -0.3482 -0.0525
65124ION    NA+21365  28.414  30.543  17.171 -0.0520  0.0205 -0.0637
65125ION    NA+21366  26.566   1.668  17.013  0.0945 -0.0011  0.1599
65126ION    NA+21367  24.540   7.865  25.022  0.1077  0.1463  0.1809
65127ION    NA+21368  16.271  16.057  19.511  0.0074 -0.0701 -0.1247
65128ION    NA+21369   1.059  31.977   8.352 -0.0270 -0.1439  0.2068
65129ION    NA+21370  22.567  27.779  24.046 -0.2837  0.1641  0.0821
65130ION    NA+21371  18.386  11.307   6.264 -0.1362 -0.0657  0.3608
65131ION    NA+21372  24.258  24.752  17.099  0.1105 -0.0808 -0.1722
65132ION    NA+21373  11.090  14.257   0.461 -0.0059 -0.3793  0.1717
65133ION    NA+21374  10.950  35.084  24.896  0.2568  0.1948  0.1359
65134ION    NA+21375  13.031  30.720  16.671  0.0578 -0.0317 -0.2400
65135ION    NA+21376  13.319  25.583  25.810 -0.0845 -0.2094 -0.0356
65136ION    NA+21377  24.853  29.499  12.647 -0.2542  0.1564  0.0490
65137ION    NA+21378  33.324  17.684  13.976 -0.0060 -0.0054 -0.0740
65138ION    NA+21379  11.397  32.851  13.426 -0.0535  0.0352 -0.3070
65139ION    NA+21380  20.076  23.388  20.778 -0.0930  0.2970 -0.0816
65140ION    NA+21381   5.792   7.647  12.107 -0.0247  0.2710  0.1904
65141ION    NA+21382   2.174  19.694  15.619  0.2260 -0.0882  0.2010
65142ION    NA+21383  14.333  15.492  18.927 -0.2175 -0.2396  0.2239
65143ION    NA+21384  19.549   2.497  25.385  0.3108  0.1337 -0.1611
65144ION    NA+21385   9.356  10.139   7.374 -0.2082 -0.1497  0.1658
65145ION    NA+21386  31.506   6.662  14.877 -0.1852  0.0449  0.0352
65146ION    NA+21387  14.476   3.396  21.393  0.3341  0.0736  0.0855
65147ION    NA+21388  17.330  21.511  24.127 -0.0655  0.0908  0.2799
65148ION    NA+21389  35.081   3.283   3.235  0.0374 -0.1382 -0.4011
65149ION    NA+21390  23.624  34.431  23.942  0.0226 -0.4770  0.1348
65150ION    NA+21391  28.205   7.033  19.784  0.0871 -0.2007 -0.1600
65151ION    NA+21392  18.418  13.841  11.547  0.1833  0.3211  0.3365
65152ION    NA+21393   3.073   3.564   5.583  0.0236 -0.1365  0.0178
65153ION    NA+21394  21.273   2.960  14.464  0.0176  0.2346  0.1523
65154ION    NA+21395  22.796  10.329  25.895 -0.1530 -0.3961  0.0273
65155ION    NA+21396  22.559   3.860   7.836 -0.3171  0.0047 -0.0377
65156ION    NA+21397   0.045  24.002   2.043  0.1223  0.1210 -0.2848
65157ION    NA+21398  19.510  13.689  20.384 -0.0352 -0.0124 -0.2827
65158ION    NA+21399   6.007   1.278   8.324 -0.0142  0.0012 -0.1917
65159ION    NA+21400  16.672  33.520   4.306  0.0208 -0.1828 -0.0617
65160ION    NA+21401  17.517   9.430   3.640 -0.0033  0.1557  0.1525
65161ION    NA+21402  16.418  26.117  24.528 -0.1376  0.0930  0.0831
65162ION    NA+21403  15.114   9.613   9.997 -0.2013 -0.2829 -0.0269
65163ION    NA+21404  34.092   7.343   1.552 -0.2068  0.0436 -0.0350
65164ION    NA+21405  18.293  35.229   9.657  0.1395  0.2388  0.2439
65165ION    NA+21406   4.015  34.709  23.698 -0.0578  0.2545 -0.0420
65166ION    NA+21407  27.171  24.924  23.824  0.0366  0.3099 -0.1597
65167ION    NA+21408  21.513  13.403   5.400 -0.1482  0.1313  0.1322
65168ION    NA+21409  28.472  33.082  25.841  0.0512 -0.0873  0.1424
65169ION    NA+21410  15.208  30.806  22.145 -0.3050  0.0064 -0.3923
65170ION    NA+21411  24.516  19.847  11.530 -0.0970  0.0228  0.0578
65171ION    NA+21412   4.639  16.748   7.305 -0.0794  0.2603 -0.2145
65172ION    NA+21413   8.615  30.639   9.687 -0.2114  0.1608 -0.2942
65173ION    NA+21414  13.973  10.001  25.730 -0.0544  0.0298  0.4278
65174ION    NA+21415   7.014   6.602  26.172  0.1937 -0.2715 -0.1693
65175ION    NA+21416  22.101  17.636  14.491 -0.1704 -0.1597 -0.1587
65176ION    NA+21417  19.203  33.858  15.070  0.0017 -0.1226 -0.1756
65177ION    NA+21418  33.354   2.371   2.435 -0.1827 -0.0350  0.4557
65178ION    NA+21419  20.392  29.826  23.606  0.3399  0.0961 -0.0340
65179ION    NA+21420  27.562  23.012  10.591 -0.1994  0.0159  0.5426
65180ION    NA+21421  14.440   8.213   2.534  0.1111 -0.3044  0.0121
65181ION    NA+21422   2.904  28.538   1.229  0.1216 -0.2193 -0.1961
65182ION    NA+21423  22.113  28.590  20.377  0.0232 -0.2488 -0.0597
65183ION    NA+21424  32.099  30.966   5.090  0.1546 -0.0716 -0.0417
65184ION    NA+21425  33.925  18.631  18.041  0.0524  0.0154 -0.2522
65185ION    NA+21426   3.368   7.654   0.998 -0.1421 -0.1031  0.0707
65186ION    NA+21427  34.457   1.190   6.071 -0.1499 -0.0369 -0.1422
65187ION    NA+21428   8.317  18.923   0.868 -0.0989  0.2257 -0.2280
65188ION    NA+21429  25.079   7.626   4.403 -0.0837  0.1297 -0.4281
65189ION    NA+21430  23.947  32.308  21.069 -0.1564 -0.2183  0.0293
65190ION    NA+21431   4.731  21.309   6.209  0.0549 -0.0919 -0.2628
65191ION    NA+21432  26.788  30.899  14.958 -0.1699 -0.2062  0.1632
65192ION    NA+21433  13.794   7.481  25.898 -0.0740  0.2642 -0.0062
65193ION    NA+21434  26.029   2.863   1.305  0.2657  0.3193  0.2298
65194ION    NA+21435  22.349  24.231  13.887 -0.2421  0.1103 -0.3462
65195ION    NA+21436  35.196   3.516   0.298  0.1606 -0.0959  0.3110
65196ION    NA+21437  30.357  22.515  16.158  0.0723 -0.1262  0.0304
65197ION    NA+21438  27.000  13.208   5.904 -0.0590  0.0422  0.1384
65198ION    NA+21439  32.368  23.343  24.244 -0.2040  0.0276 -0.0472
65199ION    NA+21440  33.775  32.014  23.901  0.2895 -0.2854 -0.1188
65200ION    NA+21441   4.908  10.542  21.055 -0.2915  0.1029 -0.1326
65201ION    NA+21442  33.782  11.798  26.212  0.3013  0.1358 -0.2485
65202ION    NA+21443   2.642  31.135  11.248  0.4392  0.0739  0.0987
65203ION    NA+21444  17.647  17.253  12.227  0.2855 -0.1328  0.2667
65204ION    NA+21445  10.395  21.926   8.999  0.1196 -0.0471  0.0689
65205ION    NA+21446  18.635  27.913  23.341 -0.0569 -0.0318 -0.3961
65206ION    NA+21447  30.896  12.175  10.721 -0.2522 -0.7622  0.0039
65207ION    NA+21448   9.422  26.713   1.966 -0.0872  0.1466  0.2959
65208ION    NA+21449  14.410   3.924   5.516  0.2477 -0.0048  0.1680
65209ION    NA+21450  18.960  32.093  15.861  0.2517  0.1540 -0.1654
65210ION    NA+21451   5.811   0.914  22.317  0.1642 -0.0405 -0.4740
65211ION    NA+21452  11.089  16.603  26.083 -0.0301  0.1626  0.3357
65212ION    NA+21453   7.197   3.323   3.030 -0.0526 -0.4697  0.3252
65213ION    NA+21454  22.895  33.056  20.170  0.1562  0.1414  0.0850
65214ION    CL-21455  22.707   7.224  23.317 -0.2303 -0.1483  0.3987
65215ION    CL-21456  26.284   4.423  13.999 -0.1148  0.0017  0.0707
65216ION    CL-21457  21.851   2.259  16.539 -0.1524 -0.0387 -0.4514
65217ION    CL-21458  21.210  32.534   6.384 -0.3630  0.3244  0.0405
65218ION    CL-21459   1.941  32.251   6.356 -0.0043  0.1732  0.0817
65219ION    CL-21460  23.384  24.762  14.900 -0.0595  0.1286  0.2549
65220ION    CL-21461  11.196  26.109  11.251  0.1350  0.3817 -0.2134
65221ION    CL-21462   3.087  34.037   5.534  0.1878  0.1500  0.2525
65222ION    CL-21463  30.749   6.895   2.003  0.0842 -0.3766 -0.1773
65223ION    CL-21464   6.042  31.614  24.623  0.0036  0.0603  0.3068
65224ION    CL-21465  20.147   0.112   1.263 -0.0636 -0.0412  0.0349
65225ION    CL-21466  29.055  35.226  15.362 -0.2792 -0.3993  0.0734
65226ION    CL-21467   8.519  11.262   5.706  0.0312 -0.0756  0.2476
65227ION    CL-21468  25.071  31.894  13.180 -0.1403 -0.3698  0.0324
65228ION    CL-21469   7.999  20.645   1.807  0.0009  0.0231 -0.0616
65229ION    CL-21470  15.520  24.657  23.530 -0.1333  0.1905 -0.0611
65230ION    CL-21471  13.707   4.539  24.625 -0.1827  0.0985  0.1948
65231ION    CL-21472  25.697  25.072  15.788  0.0225  0.1471  0.2218
65232ION    CL-21473  22.216  15.827  21.442 -0.1114  0.0984  0.0704
65233ION    CL-21474   6.658   4.070  22.348 -0.2999  0.2773 -0.0345
65234ION    CL-21475  29.153  30.358  18.649 -0.4054 -0.0016 -0.0632
65235ION    CL-21476  35.046   5.979  25.920 -0.0643 -0.0517  0.0233
65236ION    CL-21477  15.745   6.006   6.250  0.0572 -0.1831 -0.0055
65237ION    CL-21478  16.722  34.018  10.222 -0.0014  0.1431  0.0669
65238ION    CL-21479   5.249  26.529  13.236 -0.2010 -0.0595  0.1031
65239ION    CL-21480   5.051  31.216  11.197 -0.0431 -0.2458  0.3798
65240ION    CL-21481  10.073  14.656   1.777  0.0724  0.0724  0.2835
65241ION    CL-21482  25.055  30.784  20.276  0.1467 -0.0432  0.1228
65242ION    CL-21483  15.861   7.338  19.766  0.0476 -0.0874 -0.1098
65243ION    CL-21484  29.448  17.904  11.624  0.1895 -0.2958  0.0540
65244ION    CL-21485   4.076  10.893  18.221  0.5057 -0.1224 -0.0528
65245ION    CL-21486  33.097  34.509   5.049 -0.2259  0.4401 -0.3628
65246ION    CL-21487   1.645   9.579  21.578 -0.1447  0.0889  0.0212
65247ION    CL-21488   8.225   6.045  19.303  0.4345 -0.3375 -0.1705
65248ION    CL-21489   1.073  19.138  21.032  0.0155  0.1555 -0.0254
65249ION    CL-21490  24.094   2.722  12.668 -0.1907  0.1000  0.1748
65250ION    CL-21491   4.802  15.848  18.494  0.1158 -0.1128 -0.0640
65251ION    CL-21492   0.457   0.316  24.021  0.1454 -0.0355  0.1720
65252ION    CL-21493  34.858  33.105   0.511  0.3789 -0.1406  0.1887
65253ION    CL-21494  14.851  20.176   5.630  0.0596 -0.0140 -0.0303
65254ION    CL-21495  15.242   8.309   6.089  0.0361 -0.0645 -0.3338
65255ION    CL-21496  25.198   5.693   4.150  0.3822  0.4542 -0.2221
65256ION    CL-21497  26.292  29.348  26.044  0.0940  0.1883  0.0487
65257ION    CL-21498  32.343   8.606  11.262  0.0994 -0.2258 -0.2972
65258ION    CL-21499  34.761  12.545   9.015 -0.0027  0.0092  0.0089
65259ION    CL-21500  15.961   9.602  13.280  0.2008 -0.1362  0.0485
65260ION    CL-21501  20.252   0.080  19.645  0.0681 -0.1174  0.2555
65261ION    CL-21502  11.451  11.769   7.372  0.4338 -0.1694  0.1828
65262ION    CL-21503   6.125   4.730  19.001 -0.2177 -0.0940  0.0005
65263ION    CL-21504   4.749  14.115  26.169 -0.2356 -0.0522 -0.2710
65264ION    CL-21505  25.770  16.177  10.000 -0.0330  0.5570  0.1081
65265ION    CL-21506  23.953  14.794  20.512 -0.4204 -0.0226 -0.0499
65266ION    CL-21507  13.225  34.879  26.087 -0.1359  0.4284 -0.0755
65267ION    CL-21508  24.239  19.601  20.678  0.1992  0.1039 -0.2736
65268ION    CL-21509   3.075   5.765  20.010 -0.1641  0.0405 -0.1503
65269ION    CL-21510  16.108  31.750  22.459  0.1282 -0.0145 -0.1901
65270ION    CL-21511  30.076  29.024  10.951 -0.2885 -0.2019 -0.0836
65271ION    CL-21512  25.652  24.833  16.876  0.2431 -0.1480 -0.1437
65272ION    CL-21513  15.869  24.253  10.862  0.2167  0.0588  0.3035
65273ION    CL-21514  21.849   8.380  20.030  0.2139 -0.2710  0.1291
65274ION    CL-21515  34.054  20.700  22.677  0.2287  0.1632  0.0809
65275ION    CL-21516  15.783  11.921   8.862 -0.4024 -0.0093  0.0121
65276ION    CL-21517  17.423  29.611   3.445 -0.2693 -0.2643  0.1805
65277ION    CL-21518  19.948  24.416   6.256  0.2019 -0.2163  0.0036
65278ION    CL-21519   4.939  16.337  22.154  0.1016 -0.0537  0.0193
65279ION    CL-21520  27.198  31.231   0.691  0.0483 -0.0083  0.2431
65280ION    CL-21521   0.040  15.852  16.691  0.0057 -0.1738  0.1829
65281ION    CL-21522   3.400  32.014  11.785  0.3421  0.1933  0.0851
65282ION    CL-21523  27.899  30.553  17.177 -0.1635 -0.0755 -0.1726
65283ION    CL-21524   5.184   8.893  19.417  0.3483 -0.0171  0.4489
65284ION    CL-21525  13.205  18.130   4.979 -0.2874 -0.0182  0.2392
65285ION    CL-21526  21.665  17.231  20.208  0.1812  0.3007  0.0031
65286ION    CL-21527  23.974  31.675  16.164 -0.3266 -0.1085 -0.2371
65287ION    CL-21528  26.674  12.558  16.935  0.1174  0.1473 -0.5010
65288ION    CL-21529   6.124   7.999  21.615 -0.1479 -0.0931  0.1928
65289ION    CL-21530  23.376  26.403  25.415  0.3608 -0.0136 -0.1845
65290ION    CL-21531   4.506  18.934   0.109  0.2450 -0.1466 -0.0046
65291ION    CL-21532  29.947   3.043  23.290  0.2169 -0.3451 -0.0701
65292ION    CL-21533  24.178  22.097  14.543  0.1388  0.2663 -0.0445
65293ION    CL-21534  21.359  17.009   1.921  0.0807 -0.4162 -0.5744
65294ION    CL-21535  24.137   2.101   0.272 -0.1409  0.3139  0.2168
65295ION    CL-21536  10.734  20.057  12.253 -0.4955 -0.1948  0.2945
65296ION    CL-21537  20.688  17.820   4.736 -0.0438 -0.3331  0.1270
65297ION    CL-21538  11.180  12.682   8.388  0.0413  0.0762  0.0223
65298ION    CL-21539  22.008   2.063   0.373 -0.3236  0.1073  0.0757
65299ION    CL-21540  15.850  27.966  26.134  0.1710  0.4267  0.0503
65300ION    CL-21541   0.024  16.738  17.175 -0.3571  0.2298  0.3891
65301ION    CL-21542   7.753  30.749   7.840  0.0313  0.1607  0.2771
65302ION    CL-21543  33.875  32.750  24.615  0.1721 -0.0494 -0.1570
65303ION    CL-21544  29.344  20.986  10.549 -0.2630 -0.2495 -0.0237
65304ION    CL-21545  17.472  22.711  13.356 -0.1160  0.2660 -0.0633
65305ION    CL-21546  22.373  10.006   0.488  0.1158  0.0229  0.0303
65306ION    CL-21547  18.868   3.628   9.568 -0.2337  0.1424 -0.0245
65307ION    CL-21548  29.070  16.235  22.539  0.2059  0.2397  0.0751
65308ION    CL-21549   2.166  15.955  19.114 -0.1291  0.1128  0.2310
65309ION    CL-21550  33.370  21.416  18.513  0.0129  0.0147 -0.1858
65310ION    CL-21551  13.553   4.022   1.623 -0.4567 -0.0634 -0.1022
65311ION    CL-21552  17.756   1.580  21.190 -0.0681 -0.1417  0.1117
65312ION    CL-21553  17.406  31.061  24.054 -0.1570 -0.1982 -0.1567
65313ION    CL-21554  12.519  31.827   2.339  0.0871 -0.1248 -0.1630
65314ION    CL-21555  18.762  13.942   9.612 -0.0194  0.0142  0.0857
65315ION    CL-21556  24.132  25.922   2.892  0.0435  0.1229  0.2738
65316ION    CL-21557  34.310  32.651   1.740  0.1138 -0.1855  0.1248
65317ION    CL-21558   4.151   1.655   2.219  0.1645  0.1850 -0.0984
65318ION    CL-21559  15.313  14.887   8.172  0.2193  0.0751  0.0582
65319ION    CL-21560  30.541  28.032   4.241  0.1260 -0.0227 -0.0183
65320ION    CL-21561   3.774   4.711   5.033 -0.0031  0.1301 -0.1896
65321ION    CL-21562  26.137  17.983  15.313  0.4175  0.2728 -0.3178
65322ION    CL-21563  28.381   9.349   0.152 -0.2448  0.0346  0.1650
65323ION    CL-21564   6.288  24.617   5.985  0.0580  0.2676  0.1225
65324ION    CL-21565   1.228  16.237  22.263 -0.0198 -0.1787 -0.1285
65325ION    CL-21566  14.327  20.588  23.468 -0.1631 -0.0990  0.2653
65326ION    CL-21567  26.097   9.604  13.071  0.0122  0.0793 -0.2533
65327ION    CL-21568  34.937  17.446   8.558 -0.0399  0.1576 -0.3281
65328ION    CL-21569  11.390  20.463   8.594 -0.0454 -0.2025 -0.1862
65329ION    CL-21570  10.790  29.948   9.229 -0.3451 -0.4005  0.1212
65330ION    CL-21571   6.752  33.274  20.585 -0.3521  0.1770  0.1411
65331ION    CL-21572  19.518   9.656   3.482  0.1153 -0.3684  0.0885
65332ION    CL-21573  25.255  15.523   7.150 -0.2698  0.0324  0.2713
65333ION    CL-21574  12.097  16.096   2.933  0.3296  0.2907 -0.4375
65334ION    CL-21575  32.022  16.882  21.911 -0.0240  0.0534  0.1194
65335ION    CL-21576  10.579  28.169  13.651 -0.1399 -0.1000 -0.0892
65336ION    CL-21577  29.027  16.100  18.416 -0.0354 -0.2625 -0.0454
65337ION    CL-21578  23.617  32.033   3.791 -0.3511 -0.2906  0.1539
65338ION    CL-21579  26.710  24.996   9.596  0.0171  0.1340  0.3237
65339ION    CL-21580  15.068  24.577   9.600  0.0559 -0.2207 -0.1417
65340ION    CL-21581  27.555  20.212  13.058 -0.2005 -0.1093  0.3370
65341ION    CL-21582  28.534  26.406  13.863  0.1650  0.1191 -0.1392
65342ION    CL-21583   3.772  14.397  26.237 -0.0625  0.0275  0.3322
65343ION    CL-21584  23.024   8.136   0.962  0.0777 -0.0525 -0.1453
65344ION    CL-21585   9.929  22.291   9.103 -0.1192  0.1855 -0.1809
65345ION    CL-21586  20.021   9.700  23.478 -0.0231  0.0003  0.1609
65346ION    CL-21587  34.584  21.320  14.031  0.3441  0.3786 -0.1989
65347ION    CL-21588   0.986  23.906  25.590  0.1242 -0.1093 -0.1578
65348ION    CL-21589   1.919  23.689  15.248  0.2517 -0.0171 -0.0127
65349ION    CL-21590   6.507   7.612  11.297 -0.1330 -0.0807 -0.0651
65350ION    CL-21591  14.052  16.475   9.852  0.2305 -0.2145 -0.0360
65351ION    CL-21592  34.259  19.544  16.257 -0.3518 -0.0640  0.2046
65352ION    CL-21593  33.197  16.799  11.628 -0.1455 -0.1924  0.1912
65353ION    CL-21594   9.120  19.136   5.749  0.0659 -0.0868 -0.1471
65354ION    CL-21595   5.666  13.549   0.067 -0.2486  0.2414 -0.2415
65355ION    CL-21596  30.384   2.256  18.611  0.0156  0.2383  0.2829
65356ION    CL-21597   3.897  33.109  11.686 -0.0780  0.0332  0.1114
65357ION    CL-21598  16.747  27.602  21.250 -0.0297  0.1793 -0.1208
65358ION    CL-21599  22.043  24.154  19.419  0.3137 -0.0822 -0.3597
65359ION    CL-21600  24.079  31.399  24.853  0.1892  0.0945 -0.1859
65360ION    CL-21601   3.515  15.039  23.507  0.0100 -0.0652  0.2952
65361ION    CL-21602  30.191  34.007  16.446 -0.0502  0.0829  0.1425
65362ION    CL-21603  21.583  19.060  23.947 -0.0041  0.0354 -0.3189
65363ION    CL-21604  19.744   3.482  24.071  0.0182 -0.0266 -0.0496
65364ION    CL-21605   2.822  31.299  21.024  0.0369  0.0947 -0.2047
65365ION    CL-21606  30.915  13.250   8.273  0.1164 -0.0676  0.1639
65366ION    CL-21607   7.033  26.425  22.791 -0.0337 -0.3080 -0.4352
65367ION    CL-21608  19.569  30.603   8.491  0.0521  0.1533 -0.2465
65368ION    CL-21609   0.565   4.037   5.329  0.2197  0.1328 -0.0359
65369ION    CL-21610  25.423   5.730  25.910 -0.1742 -0.0146  0.3522
65370ION    CL-21611   6.824  31.117   8.488  0.2167 -0.1621 -0.0429
65371ION    CL-21612  29.427   7.373  23.001  0.2773 -0.0683 -0.0752
65372ION    CL-21613   4.695  32.537   1.113  0.2598  0.0532 -0.1301
65373ION    CL-21614  30.781  17.265   4.677 -0.2436 -0.1435 -0.0996
65374ION    CL-21615  11.584  34.262  26.124  0.0061  0.2957 -0.1271
65375ION    CL-21616  21.291  33.981   7.327 -0.0294 -0.2365  0.2317
65376ION    CL-21617  28.132  24.823  23.443  0.0618 -0.1407 -0.1648
65377ION    CL-21618  29.227  31.446  13.297 -0.3464  0.2237 -0.0261
65378ION    CL-21619   2.778   3.778   5.956  0.1599 -0.1384  0.0809
65379ION    CL-21620  32.454  18.776  23.686 -0.0444 -0.1975 -0.0264
65380ION    CL-21621  16.021  29.182  26.164  0.2437  0.0263  0.1478
65381ION    CL-21622  28.955  35.330   4.181 -0.0448 -0.5149 -0.0231
65382ION    CL-21623  13.916  14.065  23.058  0.1168  0.0412 -0.0012
65383ION    CL-21624  33.244  10.516  14.010 -0.0493  0.0768  0.2655
65384ION    CL-21625  16.078  29.163  22.327  0.2840  0.2439  0.0585
65385ION    CL-21626   6.048  14.318   2.512  0.0818  0.0452  0.0780
65386ION    CL-21627  14.250  20.703   5.721  0.1220 -0.2698  0.0856
65387ION    CL-21628  26.453   7.282  23.845 -0.1500 -0.0661  0.1376
65388ION    CL-21629   8.558  19.820  23.209 -0.2319  0.0915  0.1133
65389ION    CL-21630  16.381  26.750   8.562 -0.1071 -0.1909 -0.3120
65390ION    CL-21631   6.458   1.964   1.468 -0.0334  0.1042  0.0146
65391ION    CL-21632   0.562   5.156  15.603 -0.0700 -0.1231  0.0973
65392ION    CL-21633  31.102  24.200  17.876  0.0189  0.1605 -0.0498
65393ION    CL-21634  21.193  19.754  16.930 -0.3170 -0.1931  0.0272
65394ION    CL-21635   7.519   2.120  21.622 -0.1184 -0.0894 -0.1884
65395ION    CL-21636   4.175  11.514  22.115  0.1321  0.2857  0.3260
65396ION    CL-21637   4.943   4.428  18.381  0.1420 -0.0183  0.0473
65397ION    CL-21638   8.910  21.635  14.819 -0.2471  0.2025 -0.2022
65398ION    CL-21639  13.423  29.879   9.653  0.0504 -0.0374  0.1468
65399ION    CL-21640  24.161  18.109  22.981  0.3035 -0.3403 -0.0874
65400ION    CL-21641  12.436   7.888  25.473  0.0153 -0.1536 -0.0005
65401ION    CL-21642  20.786  11.183   0.369  0.1029  0.1098 -0.0403
65402ION    CL-21643  13.782   4.479   6.802 -0.1675  0.0066  0.1608
65403ION    CL-21644  27.893  20.758   9.877  0.0676  0.0006  0.0532
65404ION    CL-21645  33.920  13.570  14.983  0.2630  0.1934 -0.1545
65405ION    CL-21646  14.546  27.910   0.703  0.0155 -0.3105 -0.1287
65406ION    CL-21647   6.656   1.502  22.657  0.0759  0.1552 -0.0207
65407ION    CL-21648  10.644  22.806   3.668 -0.0368 -0.0733  0.2837
65408ION    CL-21649  32.248  34.427  24.484 -0.0704 -0.0866  0.1656
65409ION    CL-21650   1.820  23.572  21.226 -0.1144  0.1578 -0.2087
65410ION    CL-21651  11.445   4.973   9.420 -0.0323 -0.2265  0.1429
65411ION    CL-21652   4.772   7.703   3.596 -0.0947 -0.2621 -0.0537
65412ION    CL-21653   9.445  13.479  25.536 -0.3110 -0.0102 -0.0626
65413ION    CL-21654   7.976  17.325   6.115 -0.1647  0.0385  0.1835
65414ION    CL-21655   7.649  34.183   9.397 -0.1245 -0.2032  0.2149
65415ION    CL-21656  20.348  32.746  24.054 -0.1144 -0.0126 -0.1006
65416ION    CL-21657  32.074  11.898  21.163 -0.1589  0.1851  0.0446
65417ION    CL-21658  20.155  20.580   4.690 -0.2028  0.3010  0.0968
65418ION    CL-21659  24.480  29.662  12.922  0.0112 -0.2414 -0.1689
65419ION    CL-21660  15.949   8.149  23.573  0.6437  0.1667  0.0500
65420ION    CL-21661  11.077  27.972   5.367 -0.0160 -0.2794  0.0959
65421ION    CL-21662  13.896  14.596  20.128  0.0866 -0.2943  0.0300
65422ION    CL-21663  32.938  13.673  19.183  0.1041  0.0077 -0.2359
65423ION    CL-21664  26.835   5.776  22.889  0.0585 -0.2340 -0.1260
65424ION    CL-21665   8.363   1.795   6.310 -0.0012 -0.1189  0.1745
65425ION    CL-21666  34.899  17.057  11.785 -0.0325  0.3058 -0.0770
65426ION    CL-21667  24.110  25.700  13.590  0.2318  0.0704 -0.0901
65427ION    CL-21668  26.661  17.133  23.077 -0.0760  0.2676  0.0780
65428ION    CL-21669  18.258  13.038   5.028 -0.2356 -0.0368  0.1722
65429ION    CL-21670  17.409  24.162   7.916 -0.0618  0.1473 -0.1158
65430ION    CL-21671  32.254  22.443   6.386  0.0946  0.1165  0.1340
65431ION    CL-21672  23.619  32.613  20.894 -0.1328 -0.1217 -0.1304
65432ION    CL-21673  16.638  20.647  22.161 -0.0306  0.0648  0.0019
65433ION    CL-21674  13.040   0.640   6.302 -0.2507 -0.2124 -0.0385
65434ION    CL-21675  33.051  22.092  15.379 -0.1342  0.6059 -0.0069
65435ION    CL-21676  20.847  15.753   2.453 -0.0837 -0.2895  0.0289
65436ION    CL-21677  32.012  20.522  18.007  0.0330  0.1221 -0.1970
65437ION    CL-21678  12.624  15.388  10.269 -0.0427 -0.0162  0.1201
65438ION    CL-21679   2.852  30.527  10.237 -0.1365  0.0995 -0.0767
65439ION    CL-21680  21.532  22.277  22.777  0.1027  0.1576  0.0798
65440ION    CL-21681  34.029  16.306  21.923 -0.1586 -0.1649  0.1758
65441ION    CL-21682  33.516  17.913  13.579  0.0367  0.0267 -0.2228
65442ION    CL-21683   2.459  20.657  15.873 -0.0850  0.0380 -0.1905
65443ION    CL-21684  15.573  28.048   2.326 -0.0363  0.0382 -0.2992
65444ION    CL-21685  29.650   9.631   8.514 -0.1903  0.2770  0.2578
65445ION    CL-21686  31.081  16.877   8.270  0.0345 -0.0093 -0.2636
65446ION    CL-21687  10.372  30.062  11.271  0.3651 -0.1260 -0.3691
65447ION    CL-21688  16.071  29.314   7.096 -0.2091  0.1705  0.0117
65448ION    CL-21689  22.802   2.075   2.241 -0.1621 -0.1397  0.1319
65449ION    CL-21690  10.560   9.208   4.053 -0.2995  0.0906  0.0256
65450ION    CL-21691  13.112  32.186   1.653 -0.1846 -0.0899 -0.0557
65451ION    CL-21692  10.429  17.970   6.859 -0.1125  0.0055  0.0395
65452ION    CL-21693  20.051  30.348   5.772  0.0821 -0.3342  0.2082
65453ION    CL-21694   8.242  18.396  11.499 -0.2353 -0.1750  0.1423
65454ION    CL-21695  29.048   6.951  10.968 -0.0425  0.0593  0.0488
65455ION    CL-21696  15.989   1.489  22.366 -0.1050  0.1010  0.0145
65456ION    CL-21697   9.508  32.042  22.077  0.0381  0.2726  0.3295
65457ION    CL-21698  34.256   0.650   4.914 -0.2839 -0.0061  0.0472
65458ION    CL-21699  19.126  20.121   5.796  0.1542 -0.0609 -0.2446
65459ION    CL-21700   5.446  14.250  23.936 -0.4422 -0.2027 -0.0674
65460ION    CL-21701  28.576  17.457  21.621  0.3228 -0.0322 -0.1578
65461ION    CL-21702   8.500  17.375   4.950 -0.3050  0.0649  0.0360
65462ION    CL-21703  23.984  15.931  14.943 -0.1664 -0.1836  0.1148
65463ION    CL-21704   6.770  29.819   2.067 -0.2111 -0.1224  0.1802
65464ION    CL-21705   6.843  14.700   2.634  0.0227  0.3006 -0.1142
65465ION    CL-21706  23.705  25.118  19.301  0.1200  0.0702 -0.2197
65466ION    CL-21707  11.936  31.660   3.296  0.2411  0.2751  0.1409
65467ION    CL-21708  11.064   0.205  22.465 -0.1021 -0.1840 -0.2124
65468ION    CL-21709  29.878  21.807   8.272 -0.0483 -0.1887 -0.3113
65469ION    CL-21710  14.825  19.929  13.980 -0.1264  0.0997 -0.0231
65470ION    CL-21711  20.242   2.543  22.688  0.2040 -0.5040  0.2235
65471ION    CL-21712  14.580  28.084  13.441  0.0028  0.0366 -0.3514
65472ION    CL-21713  25.907  28.113  11.624 -0.0052  0.3767  0.3436
65473ION    CL-21714   3.141  33.436   4.781 -0.1787  0.1367 -0.3295
65474ION    CL-21715  10.733  17.622  13.368 -0.2195  0.2019 -0.1575
65475ION    CL-21716   9.648  30.063  11.953  0.1647 -0.2217 -0.1533
65476ION    CL-21717  30.157  14.338   5.049  0.1614  0.2966  0.1097
65477ION    CL-21718  12.564  12.037  18.883 -0.0569 -0.0384 -0.0210
65478ION    CL-21719   3.643  22.013  25.422 -0.2248 -0.3139 -0.1232
65479ION    CL-21720   6.970   1.797  19.842 -0.0514 -0.0594  0.0472
65480ION    CL-21721  29.434  30.262  22.982  0.0388 -0.1417 -0.2406
65481ION    CL-21722  16.306   7.659   7.938  0.0268  0.0542  0.1771
65482ION    CL-21723  22.369  16.355  24.535 -0.3275  0.0063  0.2840
65483ION    CL-21724  22.201  21.639  15.518  0.2043 -0.3409 -0.1798
65484ION    CL-21725  33.187  33.127  23.791 -0.0532 -0.0650  0.0512
65485ION    CL-21726   8.064  15.956  12.601 -0.0812 -0.0107  0.3401
65486ION    CL-21727  22.866   8.926  15.023  0.1024  0.1274  0.1821
65487ION    CL-21728  14.990  12.443  21.660 -0.0422 -0.0015  0.4234
65488ION    CL-21729  17.867  33.569  21.868 -0.2073  0.1306 -0.1153
65489ION    CL-21730   8.704   8.069   9.828  0.1025  0.0215  0.3681
65490ION    CL-21731   0.137   6.168  19.324  0.0043  0.3575  0.0041
65491ION    CL-21732  13.376  21.543  14.770 -0.4253  0.0197  0.0534
65492ION    CL-21733  23.558  18.156  25.569 -0.0693 -0.1190 -0.0867
65493ION    CL-21734  12.987  33.279   0.030  0.3156 -0.2959  0.0174
65494ION    CL-21735   3.368   8.511   0.297 -0.3459  0.0510 -0.0081
65495ION    CL-21736  21.987  33.448  13.172 -0.0923  0.0599 -0.2648
65496ION    CL-21737  26.310  27.607  16.165 -0.0990 -0.1090  0.0443
65497ION    CL-21738   9.351  25.467   4.723 -0.1646 -0.1299  0.1102
65498ION    CL-21739  27.712  13.189   0.095  0.5352 -0.0297 -0.1367
65499ION    CL-21740  26.714  30.600  23.936  0.0948  0.1969 -0.0677
65500ION    CL-21741  26.224  34.161  14.273  0.1749  0.1274  0.0758
65501ION    CL-21742   9.543  22.297   3.701  0.0985  0.1222  0.0058
65502ION    CL-21743   9.969  30.658   9.899  0.0018 -0.2764 -0.0600
65503ION    CL-21744  29.383   2.763   0.443 -0.0037 -0.2260 -0.0729
65504ION    CL-21745  33.305  28.339   4.007 -0.0450  0.0898 -0.3626
65505ION    CL-21746  28.829  10.752  16.393  0.2768  0.3046 -0.0072
65506ION    CL-21747  21.076  19.474  21.883 -0.1725  0.3299 -0.0183
65507ION    CL-21748  11.051  33.770   8.916  0.3407  0.3868  0.2579
65508ION    CL-21749  15.180  27.505  13.702 -0.1256 -0.0578  0.1413
65509ION    CL-21750  12.003  10.198  14.319 -0.2501 -0.0979  0.0825
65510ION    CL-21751  10.979  32.113  23.711 -0.0287  0.2291  0.0339
65511ION    CL-21752  11.449   7.256   6.857 -0.4030  0.0773 -0.3811
65512ION    CL-21753   9.111  34.343  23.524 -0.0343  0.0071  0.0339
65513ION    CL-21754  19.118   2.426  22.088  0.0298 -0.1347 -0.0884
65514ION    CL-21755   6.593   1.042  13.084  0.2611 -0.1495 -0.1910
65515ION    CL-21756  35.341  34.825   6.336 -0.3229 -0.1536  0.0821
65516ION    CL-21757   6.960  15.243   4.453 -0.2896 -0.2050  0.0962
65517ION    CL-21758  28.189  35.116  20.782  0.0294 -0.2077  0.0412
65518ION    CL-21759  33.460  33.204  17.041 -0.0514 -0.0529  0.0721
65519ION    CL-21760  25.940   8.873   1.580  0.0592 -0.0254 -0.0360
65520ION    CL-21761  33.271  28.210  17.207 -0.0576 -0.0605  0.0633
65521ION    CL-21762  23.456  26.348  18.679 -0.3419 -0.0359  0.1107
65522ION    CL-21763  24.632  28.233  25.515  0.0087 -0.1744 -0.2023
65523ION    CL-21764   5.806   3.431  24.067 -0.2157 -0.2137 -0.0446
65524ION    CL-21765   1.463   6.623  22.606  0.1836 -0.3734 -0.0010
65525ION    CL-21766   9.007  30.503   9.454  0.2197 -0.0214 -0.2560
65526ION    CL-21767   2.176  25.891  25.523  0.0193 -0.1901  0.0703
65527ION    CL-21768   1.701  19.619  16.212 -0.3242 -0.1784  0.0278
65528ION    CL-21769  28.555  29.568  22.900 -0.0520  0.1159 -0.0675
65529ION    CL-21770   2.000  22.777  15.793  0.1305 -0.0111 -0.0210
65530ION    CL-21771  32.630  15.513  17.516  0.0477  0.0600  0.6794
65531ION    CL-21772   8.631   2.793   1.552  0.0248  0.0064 -0.0972
65532ION    CL-21773  18.280  21.662  25.304 -0.0770  0.1898 -0.1371
65533ION    CL-21774   3.513  30.332  21.527 -0.0132 -0.0966  0.3483
65534ION    CL-21775  13.278  34.331   7.962 -0.1289 -0.0486 -0.0693
65535ION    CL-21776   4.357   3.318  22.013 -0.2238  0.1502 -0.3239
65536ION    CL-21777   8.042  28.302  10.667  0.2517  0.2454  0.2257
65537ION    CL-21778   4.992  32.697  10.711 -0.1046 -0.0740  0.2318
65538ION    CL-21779   7.889  26.374  12.576  0.0096 -0.1588 -0.2323
65539ION    CL-21780   9.296  20.034   3.591  0.5427  0.0702  0.0952
65540ION    CL-21781  14.790   2.014   1.662 -0.0535  0.0626 -0.0468
65541ION    CL-21782  33.691  17.104  24.972 -0.3255 -0.1059  0.1843
65542ION    CL-21783  32.425  20.017  17.432  0.1702 -0.1470 -0.1752
65543ION    CL-21784  31.924   7.144  16.206  0.0907  0.0868 -0.0735
65544ION    CL-21785   4.395  22.940   2.668 -0.0567 -0.1543  0.1848
65545ION    CL-21786  32.562  28.374  12.265  0.0227  0.0250 -0.1638
65546ION    CL-21787   7.474  34.118   1.428  0.2259 -0.1463 -0.3222
65547ION    CL-21788   9.765  13.077   6.105 -0.3021 -0.2044  0.1799
65548ION    CL-21789  13.615  20.595  15.796  0.0139  0.4055  0.0210
65549ION    CL-21790  32.795   1.293   5.383 -0.0628  0.0654  0.0704
65550ION    CL-21791  19.105  32.118   3.420 -0.1705  0.0907 -0.4280
65551ION    CL-21792  23.000  16.279  16.010 -0.1060 -0.0579 -0.1335
65552ION    CL-21793  33.748  20.113   7.862  0.2249 -0.0702 -0.0006
65553ION    CL-21794  15.374  17.184   1.457  0.0592  0.3433  0.0165
65554ION    CL-21795  30.245  27.463  16.789  0.0095 -0.0839 -0.1932
65555ION    CL-21796   8.401  23.195  25.650  0.1591 -0.1907 -0.0878
65556ION    CL-21797   6.738  28.196  21.803  0.0710 -0.2973  0.1318
65557ION    CL-21798   9.068  17.469  26.133  0.0896 -0.1178 -0.0120
65558ION    CL-21799  25.956  30.442   1.062  0.2082  0.0968 -0.2519
65559ION    CL-21800   9.002  11.262   0.140  0.0328 -0.0644  0.1024
65560ION    CL-21801  32.550  34.851  17.193 -0.1480  0.0158 -0.1393
65561ION    CL-21802  26.267   5.803  13.520  0.0681 -0.0622  0.1337
65562ION    CL-21803   6.821  31.278  14.394  0.3654 -0.0706 -0.0203
65563ION    CL-21804  21.143  17.484   2.792  0.0500 -0.1247  0.0237
65564ION    CL-21805   3.177   1.613   0.783  0.0680  0.3385 -0.1388
65565ION    CL-21806   4.024   2.141   0.311  0.4255 -0.3382 -0.0901
65566ION    CL-21807  25.377  15.860  14.001  0.2781  0.1537  0.1520
65567ION    CL-21808   0.787   8.204  15.586  0.2425  0.4075 -0.0078
65568ION    CL-21809  14.842  17.559   2.136  0.1266  0.1117 -0.2665
65569ION    CL-21810  28.683  17.196  11.800  0.1100 -0.2073 -0.1618
65570ION    CL-21811  13.923  24.856   3.520 -0.1189 -0.1887  0.1255
65571ION    CL-21812  30.755  14.957  25.910  0.1104 -0.1462  0.0504
65572ION    CL-21813  18.489  12.096   5.380  0.2734  0.1259 -0.1328
65573ION    CL-21814  33.529   0.125   2.770  0.2349  0.1746 -0.1967
65574ION    CL-21815  27.212  17.114  24.205 -0.0949 -0.0441 -0.2349
65575ION    CL-21816  21.781  25.991  21.642  0.2566 -0.0121  0.2613
65576ION    CL-21817  18.445   3.839   6.879  0.0594  0.1780 -0.0508
65577ION    CL-21818  30.286  31.524  25.776  0.0765 -0.1137 -0.3892
65578ION    CL-21819  17.243   5.927   4.836  0.0236 -0.0424  0.1080
65579ION    CL-21820  16.588   0.406   2.072  0.0447 -0.2684 -0.0174
65580ION    CL-21821   7.656  22.636   4.965 -0.1747 -0.0431  0.3243
65581ION    CL-21822  14.789  17.111  12.322  0.1636 -0.2263  0.0661
65582ION    CL-21823  17.520  21.743   7.029  0.1307  0.0001 -0.1558
65583ION    CL-21824   8.484  11.871   4.722 -0.0205 -0.0252 -0.1850
65584ION    CL-21825  13.036  13.694  13.510 -0.2224  0.2179  0.2612
65585ION    CL-21826   2.309   4.961  23.190 -0.1074  0.4424 -0.2792
65586ION    CL-21827   4.212  13.577  16.181  0.1399 -0.2112 -0.0220
65587ION    CL-21828  32.725  30.225   4.775  0.2587 -0.0289  0.1151
65588ION    CL-21829   8.145  21.671   0.770 -0.3148  0.2211  0.0464
65589ION    CL-21830  12.264  24.285  15.984 -0.3536  0.2492  0.3816
65590ION    CL-21831   6.697  17.612   4.117 -0.1802  0.2938  0.1325
65591ION    CL-21832  33.564  14.837  18.942  0.0505 -0.0647  0.0746
65592ION    CL-21833  25.322   9.805  15.101 -0.3104 -0.0187 -0.2243
65593ION    CL-21834  18.620   0.822   2.234 -0.0010 -0.0946 -0.0330
65594ION    CL-21835  19.825   8.977  25.491  0.1074  0.0024 -0.0168
65595ION    CL-21836  18.835  24.542   5.867 -0.2570 -0.0840  0.1443
65596ION    CL-21837  27.896  25.337  15.220 -0.1592 -0.3642  0.2348
65597ION    CL-21838  17.812  29.223   3.126 -0.1209 -0.0485 -0.1913
65598ION    CL-21839   5.141  26.873   7.293 -0.3464 -0.2354 -0.0412
65599ION    CL-21840  24.858  15.670  25.725  0.3293  0.3535  0.2027
65600ION    CL-21841  22.937  17.584  19.624 -0.1304  0.0839 -0.2406
65601ION    CL-21842  30.373  28.008  18.767  0.1732  0.2586 -0.0011
65602ION    CL-21843  21.671  34.644  15.431  0.0311 -0.3758 -0.1083
65603ION    CL-21844   5.156  34.674  10.493 -0.1690 -0.0425  0.0384
65604ION    CL-21845  16.347  34.475   7.624  0.1188 -0.0042 -0.2691
65605ION    CL-21846   0.952  33.221   8.101 -0.1532  0.1670  0.0012
65606ION    CL-21847   7.528  12.105  22.858 -0.0907 -0.0711  0.1250
65607ION    CL-21848  24.735  17.676  17.388  0.0769 -0.1975 -0.1370
65608ION    CL-21849  35.255  26.419  21.675 -0.0007  0.0207 -0.2784
65609ION    CL-21850  11.634   0.421   4.722 -0.1512 -0.3033  0.0966
65610ION    CL-21851   3.447  28.180   1.324  0.1260 -0.0212 -0.1832
65611ION    CL-21852  33.799  17.584  15.170 -0.1738  0.2772 -0.2061
65612ION    CL-21853  28.916  19.743   7.477 -0.1128  0.0674 -0.1201
65613ION    CL-21854   2.910  30.806  10.992  0.2099  0.1555  0.0635
65614ION    CL-21855  12.444  15.772   6.847  0.0985 -0.1501  0.2995
65615ION    CL-21856   5.966  15.770   8.555 -0.3561  0.0861  0.1672
65616ION    CL-21857   2.022   3.966   4.478 -0.0386 -0.2007  0.1455
65617ION    CL-21858   0.887  15.463  16.965 -0.2443  0.1178  0.0733
65618ION    CL-21859  25.897  32.765  10.673 -0.4931 -0.3101  0.0394
65619ION    CL-21860   6.290  26.075   9.212  0.1548 -0.2001  0.0593
65620ION    CL-21861   7.552  11.925  17.448  0.1733 -0.2141  0.1793
65621ION    CL-21862  12.483  28.655   2.416 -0.0148 -0.1272  0.2793
65622ION    CL-21863   9.992  27.441  10.811  0.1493  0.2445  0.0960
65623ION    CL-21864  11.683  13.766  20.214 -0.0328 -0.2925 -0.2363
65624ION    CL-21865   1.602  13.347  12.931 -0.0876  0.2340  0.0135
65625ION    CL-21866  30.984  21.970  21.468  0.0921  0.2066 -0.2041
65626ION    CL-21867   2.195   3.499   0.789 -0.1372 -0.0999 -0.1694
65627ION    CL-21868  16.602   8.033   2.363  0.0845 -0.1656  0.0849
65628ION    CL-21869  21.218   5.967   4.815  0.2049 -0.2181 -0.3483
65629ION    CL-21870   9.969  32.007  12.350 -0.1051  0.3452  0.0522
65630ION    CL-21871  11.050  34.796  25.373  0.1907  0.2640  0.2315
65631ION    CL-21872  17.066  24.368  21.300 -0.0685 -0.0946 -0.2260
65632ION    CL-21873  22.180  21.579  18.435  0.3611  0.0054  0.2030
65633ION    CL-21874   5.529  27.579  22.543 -0.2072 -0.0795  0.0498
65634ION    CL-21875  21.305  26.584   1.741 -0.4173  0.1341  0.1517
65635ION    CL-21876  26.352  29.234  20.793 -0.0648 -0.2042  0.1234
65636ION    CL-21877  27.651   4.633  17.629 -0.4061  0.3021  0.2746
65637ION    CL-21878   3.812   0.449   6.338  0.2240  0.0504  0.2488
65638ION    CL-21879  11.715  19.598   3.368 -0.0718  0.0664  0.0946
65639ION    CL-21880   7.424   9.537  19.562 -0.2137 -0.2122  0.3504
65640ION    CL-21881  28.599  29.049  12.654  0.0031 -0.2333  0.0106
65641ION    CL-21882   9.774  10.342   7.352 -0.1466 -0.0163  0.2255
65642ION    CL-21883   1.398   1.872   6.103 -0.1548 -0.0019 -0.1600
65643ION    CL-21884  27.587  22.186  18.790 -0.1230  0.0218  0.0710
65644ION    CL-21885  12.278  19.678   2.807  0.1508 -0.1503  0.0236
65645ION    CL-21886  17.758  34.343  19.037  0.3957 -0.0728  0.2730
65646ION    CL-21887   3.130  27.163   9.399  0.0741  0.0003 -0.3113
65647ION    CL-21888  17.397  24.688  26.229 -0.1059  0.3301 -0.0063
65648ION    CL-21889  23.745  21.069  21.161  0.1071  0.3233  0.1586
65649ION    CL-21890  25.563  14.777  19.731 -0.2096  0.0151 -0.3871
65650ION    CL-21891  25.852  32.637  23.743  0.1664  0.1113  0.0510
65651ION    CL-21892   2.149   1.219  25.522 -0.1770 -0.0450  0.2562
65652ION    CL-21893   0.854   0.181  23.180  0.0775 -0.1563 -0.1195
65653ION    CL-21894  29.639   1.954  24.524  0.0664  0.0385  0.2398
65654ION    CL-21895   7.573  21.839  21.599 -0.0401  0.3142 -0.0447
65655ION    CL-21896  25.143  23.495   0.081 -0.2424 -0.0629 -0.0388
65656ION    CL-21897  26.500  18.636  15.953 -0.0749 -0.2846  0.2106
65657ION    CL-21898  15.404  13.359  19.504  0.0596 -0.2176  0.1916
65658ION    CL-21899  16.836   5.253   6.248 -0.0707  0.4111  0.2313
65659ION    CL-21900  17.666   0.283  20.795 -0.0756  0.0644  0.2923
65660ION    CL-21901  31.081  33.985   1.914 -0.1914  0.4045  0.0264
65661ION    CL-21902  24.758   1.300  13.451  0.0188  0.1286 -0.0456
65662ION    CL-21903  16.257  18.731  24.884  0.0875  0.1659 -0.1391
65663ION    CL-21904   2.298  31.898  23.016 -0.0415 -0.0421 -0.1086
65664ION    CL-21905   0.471  30.496  23.116 -0.0985  0.0818  0.0775
65665ION    CL-21906  25.389  30.068   0.342 -0.0937 -0.2424 -0.1321
65666ION    CL-21907   6.821  34.637  22.417  0.1808  0.2271  0.3178
65667ION    CL-21908  14.049  19.696   4.538 -0.0783 -0.0959  0.0869
65668ION    CL-21909  27.341  35.049  21.535  0.1754 -0.1718  0.0731
65669ION    CL-21910   8.755   8.549   8.812 -0.0991  0.3835 -0.4315
65670ION    CL-21911   7.187  23.576   6.389  0.4491  0.0686 -0.3802
65671ION    CL-21912  18.906  14.706  19.366 -0.2966  0.0177  0.3347
65672ION    CL-21913   5.248  24.084   7.416  0.0031  0.1367  0.0457
65673ION    CL-21914  26.703   8.900  13.118 -0.1048 -0.0651 -0.0209
65674ION    CL-21915   0.518  18.029  18.538 -0.0516  0.2372  0.1846
65675ION    CL-21916  23.057  12.674  19.619 -0.0796 -0.2041  0.0500
65676ION    CL-21917  25.791  33.644  12.056  0.1573 -0.1038  0.0543
65677ION    CL-21918  17.868  20.894   6.480  0.0650 -0.0093 -0.1970
65678ION    CL-21919  25.937  23.554   9.350 -0.2136 -0.0600 -0.0480
65679ION    CL-21920   8.677   3.357  12.569 -0.1507  0.0234 -0.0986
65680ION    CL-21921  12.996  21.717  24.946  0.2982 -0.4479 -0.0992
65681ION    CL-21922  31.859   1.597  17.609 -0.3292 -0.1353  0.0159
65682ION    CL-21923  20.144  30.379  18.056  0.3144 -0.0904  0.0141
65683ION    CL-21924   3.335  17.477  26.130 -0.1477 -0.1855 -0.1351
65684ION    CL-21925   6.776  29.033   4.634  0.1535 -0.1294 -0.0254
65685ION    CL-21926  12.502  25.354   7.568  0.2162 -0.1610  0.0262
65686ION    CL-21927  27.189  19.001   7.452  0.0217  0.2221  0.2618
65687ION    CL-21928  21.541  25.132  23.481  0.3863 -0.1470 -0.4251
65688ION    CL-21929  12.368   7.633  20.240 -0.1174 -0.1164 -0.0154
65689ION    CL-21930  14.898  27.125  24.291  0.0932  0.1930  0.0272
65690ION    CL-21931  14.855  33.257   0.002  0.6018 -0.0834  0.1130
65691DPPC   NC321932   1.399  18.583   9.023 -0.3107  0.0221 -0.0405
65691DPPC   PO421933   1.329  18.101   9.001 -0.1081  0.2753  0.1271
65691DPPC   GL121934   1.724  18.147   9.003 -0.2463  0.1249 -0.0153
65691DPPC   GL221935   1.896  18.404   9.046  0.0599 -0.1318  0.1462
65691DPPC   C1A21936   2.103  17.887   9.087  0.0374  0.0143  0.0624
65691DPPC   C2A21937   2.495  17.780   9.016 -0.0454  0.0097  0.0504
65691DPPC   C3A21938   2.752  17.613   8.755 -0.3097  0.2920 -0.2469
65691DPPC   C4A21939   2.978  17.294   8.625 -0.0323 -0.3119 -0.1080
65691DPPC   C1B21940   2.196  18.360   8.762 -0.1295 -0.0218 -0.2051
65691DPPC   C2B21941   2.610  18.520   8.566 -0.0984 -0.0189 -0.1072
65691DPPC   C3B21942   3.002  18.650   8.728 -0.2020 -0.2214  0.0303
65691DPPC   C4B21943   3.297  18.600   9.171 -0.2004  0.3283 -0.0941
65692DPPC   NC321944   6.570  16.654  17.861 -0.1631 -0.2086  0.0375
65692DPPC   PO421945   6.295  16.843  17.603  0.0134  0.1246  0.1506
65692DPPC   GL121946   6.441  17.041  17.236  0.1334  0.2817 -0.0543
65692DPPC   GL221947   6.528  17.463  17.167  0.3434  0.1066  0.4283
65692DPPC   C1A21948   6.364  17.201  16.784  0.0713  0.3235  0.0797
65692DPPC   C2A21949   6.193  17.512  16.585 -0.3051  0.1315 -0.2160
65692DPPC   C3A21950   6.433  17.933  16.357  0.0259  0.0394  0.0348
65692DPPC   C4A21951   6.703  18.140  16.104  0.0347  0.0461 -0.0567
65692DPPC   C1B21952   6.682  17.733  16.745  0.0742 -0.3519 -0.1020
65692DPPC   C2B21953   6.881  17.869  16.468  0.0798  0.1370 -0.1845
65692DPPC   C3B21954   7.132  17.883  16.144  0.1582 -0.4062  0.3988
65692DPPC   C4B21955   7.162  17.744  15.750 -0.0562 -0.0386 -0.0670
65693DPPC   NC321956  34.367  25.717  12.542 -0.1934 -0.0488 -0.2241
65693DPPC   PO421957  34.740  25.981  12.765 -0.0443  0.1493 -0.0050
65693DPPC   GL121958  34.814  26.336  12.638 -0.0871  0.1684 -0.0705
65693DPPC   GL221959  34.900  26.346  12.321  0.2063 -0.0990  0.2629
65693DPPC   C1A21960  35.118  26.787  12.519  0.3295  0.0056 -0.1099
65693DPPC   C2A21961   0.127  27.057  12.460 -0.1090  0.0965  0.0752
65693DPPC   C3A21962   0.481  27.220  12.158 -0.2305  0.1851  0.4039
65693DPPC   C4A21963   0.644  26.997  11.788 -0.0427 -0.0658 -0.1683
65693DPPC   C1B21964  35.346  26.469  12.206  0.1900  0.1419  0.0706
65693DPPC   C2B21965   0.346  26.742  12.113  0.4537 -0.0695  0.0466
65693DPPC   C3B21966   0.793  26.729  12.233 -0.1187  0.0470 -0.0097
65693DPPC   C4B21967   1.071  26.669  11.876 -0.0709 -0.0554  0.0744
65694DPPC   NC321968   2.791   4.346  15.441  0.0556  0.0865  0.1362
65694DPPC   PO421969   3.149   4.614  15.382 -0.1953  0.0803  0.3842
65694DPPC   GL121970   3.642   4.721  15.400  0.1155  0.0917 -0.1503
65694DPPC   GL221971   3.840   4.659  15.481 -0.2056 -0.2438 -0.0036
65694DPPC   C1A21972   4.005   5.065  15.275 -0.0450  0.0841  0.0233
65694DPPC   C2A21973   4.419   5.042  15.087 -0.0422  0.0956 -0.0692
65694DPPC   C3A21974   4.797   4.750  14.975 -0.1299 -0.1935 -0.0096
65694DPPC   C4A21975   5.078   4.738  14.595  0.1794  0.4576 -0.0982
65694DPPC   C1B21976   4.095   4.632  15.130  0.1736  0.3097 -0.3052
65694DPPC   C2B21977   4.375   4.604  14.812 -0.1263 -0.0682 -0.0784
65694DPPC   C3B21978   4.613   4.597  14.420  0.3083  0.2133  0.1059
65694DPPC   C4B21979   4.657   4.381  14.076  0.1836 -0.0612  0.0752
65695DPPC   NC321980  27.911   2.004  10.740 -0.0153 -0.1214  0.0282
65695DPPC   PO421981  27.906   1.699  10.570 -0.1168 -0.2252 -0.0030
65695DPPC   GL121982  27.718   1.766  10.157  0.1413 -0.1662  0.1654
65695DPPC   GL221983  27.494   1.615  10.004  0.0463 -0.1939 -0.2972
65695DPPC   C1A21984  27.751   1.879   9.763 -0.0170  0.0341 -0.1859
65695DPPC   C2A21985  27.601   1.828   9.371 -0.1383  0.0876  0.2494
65695DPPC   C3A21986  27.427   1.594   9.185 -0.2199 -0.0551 -0.5166
65695DPPC   C4A21987  27.327   1.428   8.904  0.2078 -0.1993 -0.0490
65695DPPC   C1B21988  27.341   1.418   9.661 -0.0238 -0.0724 -0.2388
65695DPPC   C2B21989  27.157   1.264   9.371  0.1585  0.1846 -0.2843
65695DPPC   C3B21990  27.153   0.982   9.018  0.0629  0.0943  0.1107
65695DPPC   C4B21991  27.347   0.671   8.764 -0.2525 -0.1126 -0.0033
65696DPPC   NC321992   8.718   4.003  19.892  0.3590 -0.1185  0.1290
65696DPPC   PO421993   8.637   4.041  19.410  0.4266 -0.0713  0.2535
65696DPPC   GL121994   8.549   4.164  19.014 -0.1492  0.0415  0.2835
65696DPPC   GL221995   8.335   4.354  18.796  0.2587 -0.3796 -0.0559
65696DPPC   C1A21996   8.547   3.945  18.552 -0.0652  0.2565  0.0122
65696DPPC   C2A21997   8.482   3.837  18.095 -0.1243 -0.0788 -0.1303
65696DPPC   C3A21998   8.517   3.692  17.685 -0.1800 -0.0956 -0.0540
65696DPPC   C4A21999   8.317   3.684  17.323 -0.1333 -0.3008  0.1129
65696DPPC   C1B22000   8.339   4.319  18.263 -0.0320  0.4101  0.3457
65696DPPC   C2B22001   8.071   4.093  17.984  0.2062 -0.0372 -0.0678
65696DPPC   C3B22002   7.945   3.959  17.536 -0.1066 -0.1284 -0.1189
65696DPPC   C4B22003   7.868   3.771  17.096 -0.1146 -0.2602  0.0091
65697DPPC   NC322004  25.204   6.348  11.384  0.3046 -0.1277  0.3283
65697DPPC   PO422005  25.319   6.032  11.026  0.1561  0.2012 -0.2564
65697DPPC   GL122006  25.188   5.918  10.658  0.0378 -0.1086 -0.0061
65697DPPC   GL222007  25.355   6.114  10.361 -0.1395  0.0143  0.3279
65697DPPC   C1A22008  24.965   5.780  10.330  0.1825 -0.3377  0.0741
65697DPPC   C2A22009  24.691   5.890  10.015  0.3140 -0.1716  0.0538
65697DPPC   C3A22010  24.292   5.872   9.684 -0.2175 -0.0371  0.1244
65697DPPC   C4A22011  23.880   5.740   9.538  0.0403  0.0140 -0.2012
65697DPPC   C1B22012  25.082   6.134   9.947  0.2880  0.2155  0.0762
65697DPPC   C2B22013  24.827   6.077   9.616  0.3765  0.2613 -0.3451
65697DPPC   C3B22014  24.477   6.119   9.332  0.0944  0.4418 -0.2519
65697DPPC   C4B22015  24.246   6.164   8.957  0.1037  0.0017 -0.1315
65698DPPC   NC322016  34.313  29.464  14.173  0.1213 -0.1475  0.2031
65698DPPC   PO422017  34.454  29.563  14.479  0.0257 -0.3638 -0.0379
65698DPPC   GL122018  34.862  29.768  14.442  0.0342 -0.0433  0.3023
65698DPPC   GL222019  34.972  29.634  14.187 -0.2270 -0.1057 -0.3800
65698DPPC   C1A22020  35.242  30.091  14.386  0.2088 -0.1426 -0.1041
65698DPPC   C2A22021   0.305  30.162  14.389 -0.1025  0.1488 -0.1458
65698DPPC   C3A22022   0.721  29.931  14.250  0.0924 -0.3517 -0.0263
65698DPPC   C4A22023   1.201  29.866  14.193 -0.0988  0.1837  0.0579
65698DPPC   C1B22024  35.277  29.287  14.040  0.0515  0.5829  0.1027
65698DPPC   C2B22025   0.332  29.315  14.034  0.1308  0.0470  0.2810
65698DPPC   C3B22026   0.680  29.535  14.001  0.2096 -0.2539  0.1514
65698DPPC   C4B22027   1.045  29.528  13.844 -0.0327 -0.0642 -0.0484
65699DPPC   NC322028  35.015  28.509  14.689  0.2877  0.0142 -0.0396
65699DPPC   PO422029  35.016  28.264  14.362 -0.0027  0.1783  0.1829
65699DPPC   GL122030  35.291  28.140  13.952 -0.3505 -0.3487 -0.0170
65699DPPC   GL222031   0.024  27.896  13.848  0.0787  0.0174  0.3133
65699DPPC   C1A22032   0.388  28.183  13.831  0.0585 -0.0079  0.0840
65699DPPC   C2A22033   0.669  28.042  13.579  0.0729 -0.0692  0.1613
65699DPPC   C3A22034   0.877  27.751  13.302 -0.2485 -0.3085 -0.0414
65699DPPC   C4A22035   0.823  27.433  13.057 -0.2812  0.2270  0.0072
65699DPPC   C1B22036   0.162  27.815  13.492 -0.2518  0.0715 -0.0246
65699DPPC   C2B22037   0.414  27.864  13.094  0.1449  0.0764 -0.1179
65699DPPC   C3B22038   0.817  27.880  12.831  0.2841 -0.1409  0.3756
65699DPPC   C4B22039   0.904  27.624  12.489  0.2689 -0.0881  0.1404
65700DPPC   NC322040  25.861  34.699  10.755  0.1694  0.0857  0.3454
65700DPPC   PO422041  25.830  34.286  10.632  0.0390  0.1291  0.1992
65700DPPC   GL122042  25.596  34.228  10.327  0.0777 -0.3336  0.2857
65700DPPC   GL222043  25.294  34.443  10.261  0.0053  0.3220  0.1510
65700DPPC   C1A22044  25.451  34.293   9.804  0.3191  0.2561 -0.2503
65700DPPC   C2A22045  25.197  34.353   9.405  0.0141 -0.0754 -0.4688
65700DPPC   C3A22046  25.129  34.631   9.141  0.0215 -0.2482 -0.1315
65700DPPC   C4A22047  24.915  34.996   9.247 -0.3864  0.0833  0.0017
65700DPPC   C1B22048  25.058  34.489   9.942  0.4423 -0.1445 -0.0436
65700DPPC   C2B22049  24.784  34.576   9.537 -0.2044 -0.1226 -0.0539
65700DPPC   C3B22050  24.336  34.426   9.401  0.1715  0.1295  0.1188
65700DPPC   C4B22051  24.170  34.205   9.058 -0.0137  0.4477 -0.1012
65701DPPC   NC322052  23.480  23.116  12.129  0.1432 -0.0046  0.1556
65701DPPC   PO422053  23.594  22.749  11.855 -0.0498  0.1243  0.2665
65701DPPC   GL122054  23.197  22.707  11.772 -0.3013 -0.0270  0.0872
65701DPPC   GL222055  23.134  23.065  11.654  0.2153  0.2455  0.1227
65701DPPC   C1A22056  22.955  22.464  11.565  0.1122 -0.0738  0.1536
65701DPPC   C2A22057  22.612  22.414  11.470  0.1469 -0.0942 -0.3271
65701DPPC   C3A22058  22.276  22.380  11.175 -0.1795  0.2211  0.0861
65701DPPC   C4A22059  22.155  22.183  10.716 -0.1357 -0.1121  0.0799
65701DPPC   C1B22060  22.800  23.230  11.643 -0.3221 -0.2119  0.0018
65701DPPC   C2B22061  22.345  23.291  11.526  0.1524 -0.3560 -0.2152
65701DPPC   C3B22062  21.921  23.160  11.604 -0.2065 -0.0665  0.0946
65701DPPC   C4B22063  21.538  23.165  11.495  0.0013 -0.2265 -0.2310
65702DPPC   NC322064   5.471  19.360  18.385  0.2544 -0.0709 -0.0176
65702DPPC   PO422065   5.179  19.348  18.022 -0.2714  0.3643  0.0318
65702DPPC   GL122066   5.596  19.469  17.748 -0.1210  0.3987  0.1920
65702DPPC   GL222067   5.625  19.469  17.360 -0.1882 -0.2584 -0.0130
65702DPPC   C1A22068   6.042  19.521  17.555  0.2303 -0.0998 -0.0664
65702DPPC   C2A22069   6.408  19.478  17.377  0.3292 -0.1288 -0.0039
65702DPPC   C3A22070   6.707  19.662  17.290  0.2318 -0.0417  0.1534
65702DPPC   C4A22071   6.905  19.668  17.018 -0.4548  0.0513  0.2160
65702DPPC   C1B22072   6.002  19.562  17.070  0.0566 -0.2610  0.3709
65702DPPC   C2B22073   6.376  19.706  16.743 -0.1662 -0.0892 -0.1005
65702DPPC   C3B22074   6.686  19.922  16.572 -0.0026  0.2843 -0.0782
65702DPPC   C4B22075   6.844  20.232  16.350 -0.1879  0.1673 -0.2069
65703DPPC   NC322076  19.387  14.182  16.903  0.0801  0.0970 -0.1011
65703DPPC   PO422077  19.038  14.418  16.955 -0.2902 -0.2383 -0.2584
65703DPPC   GL122078  18.835  14.676  16.762  0.0593 -0.1969  0.2416
65703DPPC   GL222079  18.735  14.913  16.872  0.0794 -0.2004 -0.0451
65703DPPC   C1A22080  18.706  14.727  16.361  0.1039  0.3705 -0.0351
65703DPPC   C2A22081  18.420  14.810  16.068 -0.0370 -0.0906 -0.0438
65703DPPC   C3A22082  18.427  15.079  15.766  0.1410 -0.0695  0.2821
65703DPPC   C4A22083  18.703  15.114  15.390 -0.3188 -0.2513 -0.2064
65703DPPC   C1B22084  18.411  14.868  16.672  0.2057  0.0407 -0.0407
65703DPPC   C2B22085  18.234  15.105  16.385  0.3817 -0.1449  0.0317
65703DPPC   C3B22086  18.257  15.438  16.059 -0.0390 -0.1565  0.2243
65703DPPC   C4B22087  18.342  15.524  15.632 -0.2645  0.1394 -0.0288
65704DPPC   NC322088  27.501  23.604   6.634  0.0750 -0.1405  0.2309
65704DPPC   PO422089  27.165  23.653   6.845  0.0777 -0.3033 -0.1924
65704DPPC   GL122090  26.955  23.759   6.331  0.0722 -0.1196 -0.0790
65704DPPC   GL222091  26.869  23.520   6.115 -0.1331  0.1271  0.1006
65704DPPC   C1A22092  26.496  23.951   6.207 -0.0648 -0.0358  0.0520
65704DPPC   C2A22093  26.335  24.135   5.917  0.0286 -0.0964 -0.1966
65704DPPC   C3A22094  26.226  24.330   5.575  0.0719  0.1306  0.1066
65704DPPC   C4A22095  26.102  24.448   5.182  0.0204 -0.0344  0.2780
65704DPPC   C1B22096  26.600  23.661   5.789  0.4274 -0.0586 -0.1582
65704DPPC   C2B22097  26.460  23.820   5.522 -0.1386 -0.0699 -0.4124
65704DPPC   C3B22098  26.359  24.039   5.157 -0.2032  0.1498 -0.0085
65704DPPC   C4B22099  26.336  24.239   4.809  0.0370  0.0894 -0.0939
65705DPPC   NC322100  33.512   6.297  11.070 -0.1362 -0.1085  0.0878
65705DPPC   PO422101  33.678   5.805  11.013  0.3191  0.0298  0.2484
65705DPPC   GL122102  33.877   5.655  10.751  0.0649  0.3545  0.3261
65705DPPC   GL222103  33.965   5.426  10.589  0.0946  0.1153 -0.0551
65705DPPC   C1A22104  34.021   5.835  10.335  0.1973 -0.1328  0.1008
65705DPPC   C2A22105  34.203   5.715   9.970 -0.0911 -0.0594  0.2658
65705DPPC   C3A22106  34.333   5.599   9.520 -0.0931  0.1424  0.0361
65705DPPC   C4A22107  34.698   5.463   9.257  0.1506  0.0533  0.0882
65705DPPC   C1B22108  34.017   5.349  10.211  0.0522  0.0569 -0.0100
65705DPPC   C2B22109  34.337   5.262   9.841 -0.1437  0.1657  0.2015
65705DPPC   C3B22110  34.426   5.105   9.450  0.3654  0.1065  0.0308
65705DPPC   C4B22111  34.222   4.866   9.119 -0.3096 -0.4241  0.2821
65706DPPC   NC322112  31.449  13.660   5.074 -0.1548 -0.2161  0.2113
65706DPPC   PO422113  31.180  13.657   4.781 -0.2335  0.1755 -0.2952
65706DPPC   GL122114  31.161  13.893   4.421  0.0303 -0.1603 -0.1721
65706DPPC   GL222115  30.859  13.842   4.215  0.2424  0.1761 -0.0193
65706DPPC   C1A22116  31.288  13.818   3.956  0.0594  0.1715  0.2410
65706DPPC   C2A22117  31.560  13.863   3.520  0.2042  0.1775  0.2043
65706DPPC   C3A22118  31.820  13.856   3.190 -0.0169  0.1601  0.1270
65706DPPC   C4A22119  32.043  13.946   2.858  0.2006  0.0059  0.5875
65706DPPC   C1B22120  30.905  13.573   3.837 -0.0695 -0.0610  0.2621
65706DPPC   C2B22121  31.118  13.584   3.497 -0.1259 -0.2961  0.1974
65706DPPC   C3B22122  31.266  13.603   3.164  0.0990 -0.1729  0.1397
65706DPPC   C4B22123  31.388  13.504   2.743 -0.2232 -0.3068  0.0466
65707DPPC   NC322124  12.750   1.228  18.819  0.1718  0.0036 -0.1757
65707DPPC   PO422125  12.731   1.541  18.510  0.0097  0.0333  0.3062
65707DPPC   GL122126  12.621   1.721  18.180  0.0852  0.0953 -0.1505
65707DPPC   GL222127  12.901   1.724  17.962  0.0338 -0.0608  0.2512
65707DPPC   C1A22128  12.373   1.577  17.792  0.1414 -0.4640  0.0490
65707DPPC   C2A22129  12.300   1.295  17.461 -0.3638 -0.2015 -0.2033
65707DPPC   C3A22130  12.137   1.406  17.021 -0.0586  0.2601  0.2239
65707DPPC   C4A22131  11.693   1.305  17.157  0.1853 -0.0697  0.1440
65707DPPC   C1B22132  12.839   1.382  17.693 -0.0201  0.3328  0.2040
65707DPPC   C2B22133  12.733   1.093  17.382 -0.0637 -0.0180  0.0322
65707DPPC   C3B22134  12.680   0.944  16.967  0.0138  0.1076 -0.3496
65707DPPC   C4B22135  12.545   1.196  16.693 -0.1835 -0.0086  0.2452
65708DPPC   NC322136   3.151  21.039  14.459 -0.0514 -0.4312 -0.1041
65708DPPC   PO422137   3.450  21.425  14.518  0.2847 -0.5423  0.1331
65708DPPC   GL122138   3.781  21.611  14.384 -0.2186  0.0011 -0.0260
65708DPPC   GL222139   3.709  21.496  14.048 -0.1271 -0.1778 -0.1057
65708DPPC   C1A22140   4.138  21.929  14.360  0.0327  0.0530 -0.4255
65708DPPC   C2A22141   4.588  22.087  14.279  0.1692 -0.0541 -0.1519
65708DPPC   C3A22142   5.008  22.126  14.267 -0.4010  0.0257  0.0511
65708DPPC   C4A22143   5.311  22.394  14.147 -0.2274  0.0592 -0.0297
65708DPPC   C1B22144   3.998  21.522  13.879 -0.1812 -0.2055 -0.2253
65708DPPC   C2B22145   4.400  21.553  13.828 -0.2267 -0.1764 -0.3504
65708DPPC   C3B22146   4.742  21.541  13.711 -0.0194  0.0996  0.1985
65708DPPC   C4B22147   5.207  21.732  13.792  0.3745  0.1131 -0.0705
65709DPPC   NC322148   3.831  35.019  17.818 -0.3323  0.0656  0.0313
65709DPPC   PO422149   3.413  34.946  17.599  0.1304 -0.0583 -0.2328
65709DPPC   GL122150   3.686  34.928  17.337 -0.3786  0.1744 -0.4813
65709DPPC   GL222151   3.977  34.672  17.355  0.1647 -0.2525  0.0885
65709DPPC   C1A22152   3.988  35.146  17.106 -0.0448  0.0852  0.0615
65709DPPC   C2A22153   4.362  35.280  16.859  0.1497 -0.0934  0.0906
65709DPPC   C3A22154   4.720  35.208  16.567 -0.0807  0.2038 -0.0836
65709DPPC   C4A22155   4.972  35.072  16.334 -0.0663 -0.0004 -0.0070
65709DPPC   C1B22156   4.277  34.710  17.086  0.1224 -0.1248 -0.0430
65709DPPC   C2B22157   4.575  34.795  16.819  0.0913  0.0300  0.1631
65709DPPC   C3B22158   4.771  34.674  16.486 -0.0951 -0.2797  0.0874
65709DPPC   C4B22159   5.153  34.501  16.375  0.1548 -0.2082 -0.0227
65710DPPC   NC322160  19.922  26.237  18.377 -0.2514 -0.0287  0.1648
65710DPPC   PO422161  19.493  26.159  18.294 -0.1146  0.0481 -0.0159
65710DPPC   GL122162  19.192  25.924  18.007 -0.0054 -0.0817  0.1114
65710DPPC   GL222163  19.012  25.668  18.144  0.0601  0.1276  0.2173
65710DPPC   C1A22164  19.218  25.768  17.614 -0.2223 -0.0124 -0.0076
65710DPPC   C2A22165  18.781  25.901  17.448  0.1783  0.3465 -0.1607
65710DPPC   C3A22166  18.484  25.815  17.056 -0.0035 -0.0002  0.1361
65710DPPC   C4A22167  18.175  25.525  16.817 -0.1019 -0.0017 -0.0733
65710DPPC   C1B22168  18.610  25.350  18.218 -0.2570  0.2366  0.1219
65710DPPC   C2B22169  18.162  25.350  18.070 -0.0533  0.0571 -0.0540
65710DPPC   C3B22170  17.914  25.170  17.898  0.0013  0.0871  0.0884
65710DPPC   C4B22171  17.939  24.788  17.850 -0.0082 -0.0735  0.1265
65711DPPC   NC322172   4.436  16.983  15.999 -0.3478  0.0109 -0.1277
65711DPPC   PO422173   4.760  17.044  16.292  0.1903  0.0728  0.0227
65711DPPC   GL122174   5.032  17.318  16.489 -0.1629 -0.1248 -0.0934
65711DPPC   GL222175   5.091  17.615  16.589 -0.2162  0.2638  0.0909
65711DPPC   C1A22176   5.508  17.352  16.422 -0.2279  0.2718  0.1850
65711DPPC   C2A22177   5.849  17.402  16.202  0.3055  0.1606  0.0443
65711DPPC   C3A22178   6.126  17.587  16.089  0.1649  0.4492 -0.3119
65711DPPC   C4A22179   6.459  17.681  15.864  0.0285  0.0136 -0.0752
65711DPPC   C1B22180   5.296  17.997  16.624  0.0331  0.0955  0.1864
65711DPPC   C2B22181   5.627  18.291  16.560 -0.3474 -0.3230  0.0571
65711DPPC   C3B22182   5.961  18.240  16.244 -0.4144  0.0034  0.1791
65711DPPC   C4B22183   6.327  18.472  16.101  0.3044  0.1961  0.2163
65712DPPC   NC322184  12.736  26.270  22.504  0.3786 -0.0387 -0.2454
65712DPPC   PO422185  12.759  26.492  22.187  0.1410  0.1710 -0.1039
65712DPPC   GL122186  12.929  26.442  21.664  0.2783 -0.3449  0.0800
65712DPPC   GL222187  13.089  26.100  21.654 -0.1270 -0.0766 -0.1393
65712DPPC   C1A22188  13.204  26.491  21.281 -0.0644 -0.2835 -0.4076
65712DPPC   C2A22189  13.212  26.565  20.816  0.1490  0.0989  0.0867
65712DPPC   C3A22190  13.032  26.917  20.615 -0.0005  0.1475 -0.1214
65712DPPC   C4A22191  12.972  27.305  20.501 -0.0417  0.1766 -0.0511
65712DPPC   C1B22192  13.224  26.041  21.125  0.2134 -0.0053  0.1661
65712DPPC   C2B22193  13.169  26.122  20.652 -0.3465 -0.2517 -0.1084
65712DPPC   C3B22194  13.111  26.441  20.316 -0.1541 -0.0338  0.0786
65712DPPC   C4B22195  13.353  26.721  20.298  0.2133 -0.0199 -0.2502
65713DPPC   NC322196  35.037   1.658  13.569 -0.1430 -0.0246  0.0272
65713DPPC   PO422197  34.747   1.698  13.269 -0.2046  0.0441  0.0313
65713DPPC   GL122198  35.065   1.931  13.069  0.0018  0.1400 -0.0222
65713DPPC   GL222199  35.385   1.757  13.112 -0.1786 -0.0479  0.1206
65713DPPC   C1A22200  35.072   2.056  12.639  0.1964  0.2748  0.1667
65713DPPC   C2A22201  35.290   1.910  12.262 -0.0314 -0.1370 -0.0475
65713DPPC   C3A22202   0.181   1.729  11.928 -0.0422  0.2107 -0.0306
65713DPPC   C4A22203   0.124   1.537  11.608 -0.4002 -0.1813 -0.1563
65713DPPC   C1B22204   0.156   1.884  12.737  0.1213  0.1938 -0.0820
65713DPPC   C2B22205   0.438   1.721  12.444 -0.0947 -0.2580  0.0034
65713DPPC   C3B22206   0.663   1.609  12.096 -0.1971 -0.1209 -0.0358
65713DPPC   C4B22207   0.852   1.758  11.713  0.0908  0.2868 -0.3815
65714DPPC   NC322208   7.943  15.461  17.675  0.1544  0.0951 -0.0826
65714DPPC   PO422209   8.142  15.110  17.641  0.1298  0.0865 -0.1070
65714DPPC   GL122210   8.258  15.376  17.289 -0.0693 -0.5725  0.0297
65714DPPC   GL222211   8.015  15.438  17.087 -0.1534  0.5535  0.1984
65714DPPC   C1A22212   8.532  15.386  16.974 -0.0175 -0.0211  0.0679
65714DPPC   C2A22213   8.714  15.455  16.609  0.0648  0.0073  0.0912
65714DPPC   C3A22214   8.946  15.557  16.204  0.3903  0.1494 -0.4071
65714DPPC   C4A22215   9.287  15.507  15.965  0.0945 -0.4334  0.4583
65714DPPC   C1B22216   8.165  15.704  16.917  0.1103 -0.1438 -0.3186
65714DPPC   C2B22217   8.333  15.807  16.584 -0.0668 -0.0772 -0.2433
65714DPPC   C3B22218   8.449  15.913  16.194  0.1878 -0.0725  0.0579
65714DPPC   C4B22219   8.529  15.604  15.847 -0.2250 -0.1055  0.1918
65715DPPC   NC322220   1.222  33.516  16.423 -0.2458 -0.2189  0.2013
65715DPPC   PO422221   1.381  33.744  16.096 -0.0546 -0.1953  0.0497
65715DPPC   GL122222   1.395  33.751  15.641  0.2784  0.2173  0.0234
65715DPPC   GL222223   1.518  34.053  15.581 -0.1880 -0.0988 -0.1376
65715DPPC   C1A22224   1.489  33.541  15.284  0.0830 -0.3232 -0.1540
65715DPPC   C2A22225   1.756  33.450  15.055 -0.0419 -0.2178  0.1909
65715DPPC   C3A22226   2.096  33.434  14.707 -0.4284  0.3270 -0.0495
65715DPPC   C4A22227   2.468  33.484  14.523 -0.2712  0.0149 -0.0970
65715DPPC   C1B22228   1.816  33.982  15.299  0.1490 -0.0907  0.1542
65715DPPC   C2B22229   2.041  33.982  14.936 -0.1138  0.1870 -0.2208
65715DPPC   C3B22230   2.513  33.822  14.864  0.2214  0.0952  0.0029
65715DPPC   C4B22231   2.866  33.589  14.805  0.1179 -0.3249  0.2838
65716DPPC   NC322232  13.780   0.044  19.583  0.0464  0.4300  0.1578
65716DPPC   PO422233  13.523  35.344  19.240  0.2026  0.1302 -0.0441
65716DPPC   GL122234  13.583  35.249  18.798 -0.0474  0.0679  0.3947
65716DPPC   GL222235  13.899   0.069  18.725 -0.0117  0.0755 -0.2538
65716DPPC   C1A22236  13.728  34.754  18.718  0.1397  0.0652 -0.0961
65716DPPC   C2A22237  13.657  34.500  18.361  0.3284 -0.2462  0.0302
65716DPPC   C3A22238  13.481  34.212  18.193 -0.0580 -0.0757  0.0761
65716DPPC   C4A22239  13.389  33.733  18.091 -0.1269  0.2413  0.1901
65716DPPC   C1B22240  13.753  35.144  18.255 -0.1487 -0.2426 -0.1110
65716DPPC   C2B22241  13.503  34.808  18.043 -0.1285 -0.1296  0.2525
65716DPPC   C3B22242  13.183  34.489  17.895  0.4419  0.0387  0.0709
65716DPPC   C4B22243  12.748  34.463  17.880  0.3465  0.0817 -0.0782
65717DPPC   NC322244  16.369   7.850  17.788 -0.2364 -0.3059  0.3310
65717DPPC   PO422245  16.636   8.192  17.899  0.1566  0.2448  0.1761
65717DPPC   GL122246  16.445   8.266  17.545 -0.0670  0.2273  0.0537
65717DPPC   GL222247  16.446   8.011  17.328 -0.3086 -0.3272 -0.1410
65717DPPC   C1A22248  16.097   8.379  17.469  0.1632 -0.0993  0.0997
65717DPPC   C2A22249  15.951   8.523  17.129 -0.1694 -0.1022  0.0042
65717DPPC   C3A22250  15.731   8.590  16.573 -0.0138 -0.0435  0.0406
65717DPPC   C4A22251  15.568   8.313  16.277 -0.1169  0.0616 -0.1042
65717DPPC   C1B22252  16.389   8.347  17.052  0.0253 -0.1296  0.1185
65717DPPC   C2B22253  16.219   8.396  16.639 -0.0121  0.1213 -0.1517
65717DPPC   C3B22254  16.218   8.660  16.286 -0.0273 -0.0329  0.1306
65717DPPC   C4B22255  16.239   8.546  15.783  0.4642  0.3257 -0.0752
65718DPPC   NC322256  33.198   1.013  12.253 -0.1818  0.1379 -0.0668
65718DPPC   PO422257  33.587   1.233  12.163  0.1900  0.2014 -0.1109
65718DPPC   GL122258  33.439   1.343  11.773 -0.0394  0.1925  0.3539
65718DPPC   GL222259  33.275   1.671  11.739 -0.1788 -0.0011 -0.1773
65718DPPC   C1A22260  33.627   1.263  11.352  0.4567 -0.0299  0.0044
65718DPPC   C2A22261  33.779   1.314  10.879  0.0738 -0.0006  0.0796
65718DPPC   C3A22262  33.878   1.153  10.505  0.1041 -0.0979  0.0564
65718DPPC   C4A22263  33.973   1.307  10.127  0.1576 -0.1708 -0.0059
65718DPPC   C1B22264  33.509   1.706  11.317  0.0080  0.1039 -0.0673
65718DPPC   C2B22265  33.660   1.792  10.903  0.0455 -0.0892 -0.0434
65718DPPC   C3B22266  33.957   1.688  10.591 -0.0716 -0.1414  0.1443
65718DPPC   C4B22267  34.251   1.810  10.229  0.0443  0.1681 -0.1297
65719DPPC   NC322268  34.730  24.560  10.307  0.2051  0.0103  0.2811
65719DPPC   PO422269  34.970  24.267  10.524 -0.3011  0.0944  0.0107
65719DPPC   GL122270   0.094  24.484  10.575  0.1231  0.1340  0.0224
65719DPPC   GL222271   0.159  24.811  10.772  0.0609  0.0843 -0.1143
65719DPPC   C1A22272   0.481  24.422  10.557  0.1323  0.2285 -0.0864
65719DPPC   C2A22273   0.857  24.658  10.451  0.4341  0.1477 -0.0073
65719DPPC   C3A22274   0.929  25.073  10.235  0.0536 -0.2527 -0.3780
65719DPPC   C4A22275   0.714  25.432  10.202 -0.0420 -0.0330  0.2773
65719DPPC   C1B22276   0.347  25.001  10.419 -0.0456 -0.0725 -0.1189
65719DPPC   C2B22277   0.494  24.979   9.997 -0.5397 -0.1186 -0.0385
65719DPPC   C3B22278   0.820  25.241   9.739  0.3282  0.1498 -0.0875
65719DPPC   C4B22279   1.189  25.226   9.563 -0.2563  0.2129 -0.2656
65720DPPC   NC322280  22.337  15.809  14.413 -0.2549 -0.0185 -0.1075
65720DPPC   PO422281  22.008  15.645  14.357 -0.2353  0.0496 -0.0519
65720DPPC   GL122282  21.901  15.783  13.959 -0.0162  0.0846 -0.0422
65720DPPC   GL222283  21.784  16.038  13.922  0.1258  0.3092 -0.1135
65720DPPC   C1A22284  21.627  15.788  13.490 -0.0255 -0.0739 -0.0577
65720DPPC   C2A22285  21.358  15.979  13.251  0.0135 -0.0590 -0.0434
65720DPPC   C3A22286  21.100  16.106  12.894 -0.1166  0.1503  0.0018
65720DPPC   C4A22287  21.126  16.345  12.500  0.0224 -0.2824 -0.0131
65720DPPC   C1B22288  21.522  16.264  13.682 -0.1091 -0.1960 -0.0683
65720DPPC   C2B22289  21.401  16.561  13.354  0.1992 -0.1779  0.0372
65720DPPC   C3B22290  21.165  16.614  12.963  0.1432 -0.0789  0.1229
65720DPPC   C4B22291  20.799  16.738  12.684 -0.3225 -0.0569 -0.2567
65721DPPC   NC322292  27.151  14.774   5.653  0.3962 -0.3533  0.2199
65721DPPC   PO422293  27.107  14.595   5.226  0.0311  0.0497 -0.2391
65721DPPC   GL122294  27.175  14.435   4.802 -0.0044  0.2694 -0.1393
65721DPPC   GL222295  27.038  14.601   4.572 -0.2365 -0.2529  0.0865
65721DPPC   C1A22296  27.150  14.172   4.433  0.0505 -0.0489 -0.2553
65721DPPC   C2A22297  26.928  14.220   3.957 -0.0219 -0.0092 -0.0848
65721DPPC   C3A22298  26.728  13.934   3.702  0.0788  0.2851  0.1731
65721DPPC   C4A22299  26.373  13.932   3.569  0.5316  0.1572 -0.0219
65721DPPC   C1B22300  26.697  14.526   4.321  0.1622  0.0535 -0.1828
65721DPPC   C2B22301  26.457  14.607   4.082  0.1397 -0.2576 -0.1189
65721DPPC   C3B22302  26.404  14.433   3.764  0.2921  0.1166  0.0192
65721DPPC   C4B22303  26.452  14.567   3.360  0.0995  0.1241 -0.1556
65722DPPC   NC322304  30.514  17.025   4.230 -0.2604 -0.0180  0.1921
65722DPPC   PO422305  30.097  16.767   4.102  0.3019  0.1698 -0.0873
65722DPPC   GL122306  30.448  16.579   3.911  0.2552  0.2671 -0.1627
65722DPPC   GL222307  30.798  16.584   3.971  0.1231  0.5261 -0.2047
65722DPPC   C1A22308  30.477  16.444   3.501  0.0908  0.2789  0.0644
65722DPPC   C2A22309  30.482  16.334   3.090  0.0405  0.0204 -0.0153
65722DPPC   C3A22310  30.421  16.130   2.724  0.3421 -0.3036  0.0168
65722DPPC   C4A22311  30.398  16.121   2.244 -0.2450 -0.1397 -0.0314
65722DPPC   C1B22312  30.971  16.512   3.623  0.1526  0.1029  0.2977
65722DPPC   C2B22313  30.931  16.340   3.285  0.1771  0.1134 -0.1335
65722DPPC   C3B22314  30.914  16.193   2.863  0.0050 -0.1931  0.1476
65722DPPC   C4B22315  31.124  16.052   2.459  0.0332 -0.0389  0.0161
65723DPPC   NC322316  13.293  33.158  20.236 -0.1333 -0.1342  0.1303
65723DPPC   PO422317  13.521  32.876  19.977 -0.1254  0.0916  0.0850
65723DPPC   GL122318  13.257  32.861  19.731  0.0318 -0.0558  0.2099
65723DPPC   GL222319  12.868  33.008  19.739  0.0162  0.1772  0.1481
65723DPPC   C1A22320  13.356  32.917  19.289 -0.1954  0.0545  0.2895
65723DPPC   C2A22321  13.448  32.873  18.835 -0.2335 -0.0510  0.3177
65723DPPC   C3A22322  13.427  33.001  18.433 -0.1350 -0.1607  0.0859
65723DPPC   C4A22323  13.566  33.113  18.022  0.0326 -0.0422  0.1424
65723DPPC   C1B22324  12.753  33.038  19.381 -0.1978 -0.1539  0.2375
65723DPPC   C2B22325  12.529  33.018  18.886  0.0386  0.0709 -0.1482
65723DPPC   C3B22326  12.473  32.932  18.511  0.0884 -0.1946  0.0234
65723DPPC   C4B22327  12.358  32.614  18.190 -0.3876  0.0704  0.0526
65724DPPC   NC322328  30.161  15.647   4.545  0.0852 -0.0970  0.1302
65724DPPC   PO422329  30.239  16.106   4.290 -0.4646  0.1037 -0.1203
65724DPPC   GL122330  30.236  16.136   3.808 -0.0663  0.1523 -0.3514
65724DPPC   GL222331  29.992  16.456   3.687 -0.1298  0.1349  0.1258
65724DPPC   C1A22332  30.342  15.897   3.334  0.0274  0.0489 -0.3405
65724DPPC   C2A22333  30.773  15.885   3.207 -0.0749  0.2278 -0.1002
65724DPPC   C3A22334  31.029  15.706   2.897  0.0521  0.2645  0.1067
65724DPPC   C4A22335  31.420  15.804   2.806 -0.1874  0.1197 -0.2000
65724DPPC   C1B22336  30.018  16.451   3.256  0.0787 -0.0980 -0.1083
65724DPPC   C2B22337  30.079  16.469   2.805  0.1807 -0.0352  0.1118
65724DPPC   C3B22338  30.068  16.504   2.387 -0.3447  0.2709  0.0398
65724DPPC   C4B22339  30.039  16.716   2.012 -0.1698  0.0311  0.3399
65725DPPC   NC322340  25.861  35.239  10.894 -0.1331 -0.2227  0.1375
65725DPPC   PO422341  25.492  34.867  10.977 -0.1538  0.0338 -0.4248
65725DPPC   GL122342  25.366  34.937  10.571 -0.2224 -0.0511 -0.0945
65725DPPC   GL222343  25.412  35.312  10.584 -0.0595 -0.0813 -0.1280
65725DPPC   C1A22344  25.159  35.050  10.259 -0.0251 -0.2171  0.0243
65725DPPC   C2A22345  25.220  35.320   9.842  0.0409  0.0828  0.1053
65725DPPC   C3A22346  25.093   0.109   9.607  0.0777  0.4737  0.0378
65725DPPC   C4A22347  24.911   0.459   9.497  0.2106 -0.1644  0.0552
65725DPPC   C1B22348  25.398   0.186  10.221  0.1022  0.3276 -0.0988
65725DPPC   C2B22349  25.527   0.382   9.873  0.0767 -0.1955  0.0782
65725DPPC   C3B22350  25.538   0.427   9.464 -0.0385 -0.0431  0.0344
65725DPPC   C4B22351  25.702   0.509   9.117  0.0024 -0.0074  0.2127
65726DPPC   NC322352   7.371  24.929  21.537 -0.2531  0.1019 -0.0486
65726DPPC   PO422353   7.522  24.605  21.189  0.1696 -0.1018 -0.0574
65726DPPC   GL122354   7.484  24.860  20.929  0.0722  0.0825  0.3614
65726DPPC   GL222355   7.408  25.045  20.600 -0.2692  0.1443 -0.2419
65726DPPC   C1A22356   7.639  24.633  20.461  0.1448  0.0383  0.1200
65726DPPC   C2A22357   7.732  24.475  20.097  0.0450 -0.0108 -0.1609
65726DPPC   C3A22358   7.900  24.689  19.631  0.1742  0.3488  0.0559
65726DPPC   C4A22359   7.837  24.591  19.244  0.1003 -0.0332  0.1466
65726DPPC   C1B22360   7.544  25.092  20.120  0.1484  0.1851  0.0460
65726DPPC   C2B22361   7.437  25.100  19.766 -0.4394 -0.2953 -0.0636
65726DPPC   C3B22362   7.535  25.011  19.373  0.0200  0.0161  0.1495
65726DPPC   C4B22363   7.586  25.051  18.910 -0.1837  0.1202  0.3977
65727DPPC   NC322364  20.950  15.812  15.784 -0.2209 -0.4353 -0.0309
65727DPPC   PO422365  21.178  16.005  15.370  0.4162  0.0712 -0.2363
65727DPPC   GL122366  20.876  16.165  15.082 -0.1950  0.0441 -0.3031
65727DPPC   GL222367  21.027  16.537  14.986 -0.1737  0.1855  0.1141
65727DPPC   C1A22368  20.650  16.382  14.680 -0.1199 -0.1472 -0.0636
65727DPPC   C2A22369  20.472  16.346  14.405 -0.0528 -0.0468 -0.1653
65727DPPC   C3A22370  20.236  16.556  14.191  0.1048 -0.0860  0.0757
65727DPPC   C4A22371  20.036  16.335  13.934 -0.1541 -0.1382  0.0569
65727DPPC   C1B22372  20.868  16.796  14.811  0.4056  0.0921 -0.1090
65727DPPC   C2B22373  20.549  16.872  14.426 -0.0558 -0.0465  0.0419
65727DPPC   C3B22374  20.380  17.067  14.081  0.2305 -0.0920 -0.2954
65727DPPC   C4B22375  19.991  17.050  13.948  0.3109  0.0085 -0.1782
65728DPPC   NC322376  33.803   2.503  12.585  0.1924  0.0453  0.2805
65728DPPC   PO422377  33.905   2.882  12.805  0.2713  0.0060  0.0110
65728DPPC   GL122378  34.375   2.785  12.589 -0.2257  0.1181  0.1790
65728DPPC   GL222379  34.724   2.823  12.683  0.2194  0.1829  0.2380
65728DPPC   C1A22380  34.588   2.760  12.213  0.0113  0.1856  0.0229
65728DPPC   C2A22381  34.647   2.503  11.804  0.1240  0.1506 -0.2299
65728DPPC   C3A22382  34.908   2.369  11.530  0.0359  0.0198 -0.0131
65728DPPC   C4A22383  35.104   2.432  11.159  0.0114 -0.0637  0.2672
65728DPPC   C1B22384  35.059   2.510  12.495 -0.0256 -0.1889  0.3966
65728DPPC   C2B22385  35.178   2.438  12.117 -0.0148 -0.1805  0.4107
65728DPPC   C3B22386  35.337   2.193  11.819 -0.2493  0.1157  0.2606
65728DPPC   C4B22387   0.277   2.077  11.570  0.2062  0.0360  0.0547
65729DPPC   NC322388  16.547  25.018  21.354  0.4445  0.2081 -0.0938
65729DPPC   PO422389  16.201  24.813  21.127  0.0578  0.2164  0.3602
65729DPPC   GL122390  15.912  24.868  20.794  0.3383  0.2047  0.0989
65729DPPC   GL222391  16.132  24.790  20.535  0.0800 -0.2528 -0.1903
65729DPPC   C1A22392  15.702  24.957  20.403  0.1463 -0.0197 -0.0696
65729DPPC   C2A22393  15.548  25.194  20.011 -0.0485  0.0815  0.0961
65729DPPC   C3A22394  15.594  25.533  19.823  0.3759  0.0394 -0.2214
65729DPPC   C4A22395  15.756  25.591  19.467 -0.1561  0.4160  0.0826
65729DPPC   C1B22396  15.943  24.699  20.030 -0.0698  0.2700  0.1461
65729DPPC   C2B22397  15.581  24.675  19.733 -0.1983 -0.1237  0.1623
65729DPPC   C3B22398  15.181  24.822  19.564 -0.0878 -0.3261  0.3894
65729DPPC   C4B22399  14.850  25.063  19.323 -0.1991 -0.2725 -0.0697
65730DPPC   NC322400  20.254   2.900  15.615  0.3700  0.2835 -0.2891
65730DPPC   PO422401  20.049   2.884  15.185 -0.1879  0.1556  0.0734
65730DPPC   GL122402  19.895   2.935  14.838  0.5310  0.1474 -0.0321
65730DPPC   GL222403  19.639   3.129  14.838 -0.0114  0.1508  0.2562
65730DPPC   C1A22404  19.930   2.953  14.373 -0.0451  0.6376 -0.3258
65730DPPC   C2A22405  19.830   3.212  14.002 -0.0472 -0.0965 -0.2725
65730DPPC   C3A22406  19.680   3.562  13.813  0.1798 -0.1032 -0.1452
65730DPPC   C4A22407  19.859   4.070  13.658 -0.3876  0.1916 -0.0696
65730DPPC   C1B22408  19.467   3.173  14.508  0.0115  0.3605 -0.1705
65730DPPC   C2B22409  19.308   3.407  14.120 -0.2649 -0.1300 -0.1726
65730DPPC   C3B22410  19.054   3.454  13.768  0.0334 -0.3360  0.0637
65730DPPC   C4B22411  19.035   3.617  13.362  0.5196  0.1583 -0.3823
65731DPPC   NC322412  23.513  33.329  11.861 -0.0189  0.2847  0.1876
65731DPPC   PO422413  23.579  33.578  11.504  0.0296  0.0599  0.0295
65731DPPC   GL122414  23.524  33.330  11.131 -0.0876 -0.1386  0.1334
65731DPPC   GL222415  23.815  33.238  10.972  0.2079 -0.1843  0.2754
65731DPPC   C1A22416  23.335  33.317  10.779  0.0539  0.1676  0.3811
65731DPPC   C2A22417  23.190  33.335  10.361  0.2021 -0.1459  0.0069
65731DPPC   C3A22418  22.905  33.302  10.047  0.3090  0.1071  0.3133
65731DPPC   C4A22419  22.728  33.151   9.643  0.1070  0.2910  0.2356
65731DPPC   C1B22420  23.777  33.297  10.552 -0.0478  0.0412  0.4534
65731DPPC   C2B22421  23.675  33.385  10.159 -0.2656 -0.0624 -0.0859
65731DPPC   C3B22422  23.418  33.400   9.898 -0.0519 -0.3878 -0.1816
65731DPPC   C4B22423  23.227  33.264   9.621 -0.2666 -0.3540 -0.2250
65732DPPC   NC322424  12.978  30.497  21.437  0.4433 -0.2087  0.2462
65732DPPC   PO422425  12.623  30.665  21.121  0.0551  0.1358 -0.1746
65732DPPC   GL122426  12.340  30.628  20.860  0.2106 -0.1965 -0.2597
65732DPPC   GL222427  12.087  30.533  21.022 -0.1212  0.0097 -0.1406
65732DPPC   C1A22428  12.224  30.671  20.371  0.1309 -0.0537  0.3211
65732DPPC   C2A22429  12.085  30.562  20.010 -0.1519 -0.1804  0.1069
65732DPPC   C3A22430  12.108  30.367  19.628  0.1363  0.2660 -0.2551
65732DPPC   C4A22431  12.009  30.311  19.205 -0.0872  0.1185 -0.0140
65732DPPC   C1B22432  12.040  30.299  20.647 -0.0616 -0.1379  0.2850
65732DPPC   C2B22433  12.209  30.181  20.308 -0.2206 -0.3575 -0.1266
65732DPPC   C3B22434  12.659  29.923  20.162 -0.1059  0.2799  0.0157
65732DPPC   C4B22435  13.068  30.022  20.034 -0.0727  0.0147 -0.2314
65733DPPC   NC322436   6.396   6.787  17.521  0.0393  0.1039  0.0173
65733DPPC   PO422437   6.509   7.202  17.593  0.0970  0.1610  0.2859
65733DPPC   GL122438   6.819   7.360  17.366 -0.1500  0.1635 -0.2267
65733DPPC   GL222439   7.173   7.433  17.387 -0.2258 -0.4579  0.0530
65733DPPC   C1A22440   6.918   7.324  16.930  0.2398  0.1861  0.0769
65733DPPC   C2A22441   7.106   7.081  16.722 -0.1509  0.0249  0.2990
65733DPPC   C3A22442   7.157   6.594  16.710  0.3074  0.0873 -0.0354
65733DPPC   C4A22443   7.053   6.130  16.916 -0.0067 -0.0122  0.1065
65733DPPC   C1B22444   7.164   7.753  17.064 -0.0165  0.1594 -0.1715
65733DPPC   C2B22445   7.170   7.578  16.586  0.0512  0.0548 -0.2018
65733DPPC   C3B22446   7.037   7.561  16.196  0.0878  0.3853  0.0219
65733DPPC   C4B22447   6.854   7.840  15.884 -0.1312 -0.1563 -0.0136
65734DPPC   NC322448  30.881  20.435   4.430 -0.0616 -0.4509  0.0557
65734DPPC   PO422449  30.831  20.798   4.152 -0.0830 -0.3530 -0.2565
65734DPPC   GL122450  30.951  20.728   3.737 -0.0787 -0.1952  0.1949
65734DPPC   GL222451  31.216  20.873   3.524  0.1529  0.2333  0.4130
65734DPPC   C1A22452  31.007  20.661   3.168 -0.0168  0.0009  0.1174
65734DPPC   C2A22453  31.105  20.687   2.744  0.0922  0.0945  0.1611
65734DPPC   C3A22454  31.081  20.600   2.386  0.3303 -0.0648  0.1804
65734DPPC   C4A22455  30.791  20.394   2.124  0.0462 -0.1265 -0.1266
65734DPPC   C1B22456  31.375  20.990   3.047 -0.0373  0.3274 -0.1646
65734DPPC   C2B22457  31.448  21.038   2.632 -0.1294 -0.4258  0.2238
65734DPPC   C3B22458  31.719  21.148   2.328  0.3590  0.0596  0.0073
65734DPPC   C4B22459  32.144  21.200   2.202 -0.0732 -0.0704 -0.0410
65735DPPC   NC322460  27.532  16.839   4.818 -0.0115 -0.0902  0.1429
65735DPPC   PO422461  27.229  16.798   4.463  0.0195  0.1124  0.1566
65735DPPC   GL122462  26.979  16.934   4.127 -0.1039  0.0674  0.0559
65735DPPC   GL222463  26.958  17.231   4.139 -0.0362  0.3304  0.0549
65735DPPC   C1A22464  26.748  17.058   3.715  0.1386  0.2114 -0.0537
65735DPPC   C2A22465  26.637  17.043   3.260 -0.1915  0.0575  0.3392
65735DPPC   C3A22466  26.379  17.283   3.095  0.1812 -0.2718  0.0787
65735DPPC   C4A22467  26.344  17.733   2.877  0.2069  0.2577 -0.0308
65735DPPC   C1B22468  26.507  17.055   4.193 -0.2156  0.0954 -0.2528
65735DPPC   C2B22469  26.282  16.969   3.884  0.3128 -0.3863 -0.0596
65735DPPC   C3B22470  26.163  16.983   3.450 -0.0819  0.2571  0.1096
65735DPPC   C4B22471  25.977  16.962   3.054  0.1026  0.2291 -0.0961
65736DPPC   NC322472   6.750   3.430  19.341 -0.1352 -0.0232 -0.2147
65736DPPC   PO422473   6.772   3.491  18.961 -0.0140  0.0372 -0.1082
65736DPPC   GL122474   6.957   3.571  18.582  0.1566  0.1821 -0.1113
65736DPPC   GL222475   7.090   3.295  18.444 -0.1825  0.0296  0.3652
65736DPPC   C1A22476   7.091   3.956  18.210 -0.0254  0.0932 -0.0026
65736DPPC   C2A22477   7.401   4.244  18.054 -0.1455  0.1613 -0.0434
65736DPPC   C3A22478   7.553   4.249  17.647 -0.0395 -0.2232  0.4702
65736DPPC   C4A22479   7.700   4.296  17.208 -0.0335 -0.1502  0.0651
65736DPPC   C1B22480   7.076   3.250  18.082 -0.0749 -0.1942  0.1228
65736DPPC   C2B22481   7.290   3.247  17.716 -0.2612  0.3902  0.0946
65736DPPC   C3B22482   7.575   3.092  17.337  0.1020 -0.0516 -0.1246
65736DPPC   C4B22483   7.805   2.759  17.092 -0.1950 -0.0344  0.0269
65737DPPC   NC322484   7.910  27.262  21.130 -0.2394  0.3302  0.1097
65737DPPC   PO422485   7.543  26.956  21.024  0.0663  0.4046 -0.0820
65737DPPC   GL122486   7.747  26.738  20.731 -0.1042 -0.0273  0.3036
65737DPPC   GL222487   8.066  26.848  20.781 -0.1750 -0.0965 -0.1280
65737DPPC   C1A22488   7.665  26.698  20.360  0.0174  0.0258 -0.0104
65737DPPC   C2A22489   7.436  26.652  19.915 -0.0634  0.0851  0.0782
65737DPPC   C3A22490   7.259  26.982  19.654  0.1831 -0.0442 -0.2763
65737DPPC   C4A22491   7.141  27.372  19.622 -0.2633 -0.1400  0.0974
65737DPPC   C1B22492   8.086  26.969  20.441  0.0685 -0.0393 -0.1256
65737DPPC   C2B22493   8.327  27.114  20.138 -0.0808  0.2607 -0.2963
65737DPPC   C3B22494   8.230  26.990  19.691 -0.1623  0.0474  0.1662
65737DPPC   C4B22495   8.571  26.990  19.298 -0.1474  0.0823 -0.1703
65738DPPC   NC322496   0.144  19.251   7.559  0.1357  0.1622 -0.1053
65738DPPC   PO422497   0.569  19.440   7.669 -0.4933 -0.0511 -0.1350
65738DPPC   GL122498   0.791  19.663   7.405  0.2230  0.1384 -0.1115
65738DPPC   GL222499   0.695  19.941   7.304 -0.0080  0.0118 -0.3060
65738DPPC   C1A22500   1.145  19.512   7.208  0.2966  0.0619  0.4073
65738DPPC   C2A22501   1.320  19.756   6.979 -0.2012 -0.0844 -0.0516
65738DPPC   C3A22502   1.550  19.792   6.629  0.1678 -0.1206  0.0315
65738DPPC   C4A22503   1.546  19.733   6.151  0.1522  0.1147  0.0205
65738DPPC   C1B22504   0.994  20.130   7.047 -0.1237  0.1046 -0.2975
65738DPPC   C2B22505   1.259  20.225   6.781  0.1867 -0.1889  0.0816
65738DPPC   C3B22506   1.687  20.232   6.649 -0.1335  0.0627  0.2644
65738DPPC   C4B22507   2.075  20.398   6.669 -0.2230 -0.1821  0.1165
65739POPC   NC322508  20.891  29.690  14.472 -0.2022  0.1453 -0.0677
65739POPC   PO422509  20.775  29.567  14.238  0.3052  0.3277  0.0312
65739POPC   GL122510  20.484  29.318  14.010 -0.1749 -0.2355 -0.0638
65739POPC   GL222511  20.224  29.185  14.191  0.0508  0.0169  0.2189
65739POPC   C1A22512  20.206  29.070  13.707  0.0445 -0.2290 -0.2460
65739POPC   D2A22513  19.873  28.839  13.637  0.0417  0.1574 -0.1034
65739POPC   C3A22514  19.399  28.696  13.527 -0.0260  0.4879 -0.0694
65739POPC   C4A22515  18.993  28.617  13.459 -0.1208 -0.0665  0.1227
65739POPC   C1B22516  19.798  29.055  14.129 -0.0898  0.2850  0.0701
65739POPC   C2B22517  19.370  28.876  14.011  0.2374 -0.2269 -0.3612
65739POPC   C3B22518  19.050  28.685  13.944  0.4304 -0.0390  0.0596
65739POPC   C4B22519  18.790  28.432  13.879  0.2770  0.0469 -0.0729
65740POPC   NC322520  32.342   9.403   8.225  0.2596  0.1046  0.2010
65740POPC   PO422521  32.018   9.529   7.979 -0.1481  0.1938  0.0455
65740POPC   GL122522  31.888   9.080   7.945  0.1517  0.0066 -0.0264
65740POPC   GL222523  31.610   9.058   7.793  0.1341 -0.0463  0.3738
65740POPC   C1A22524  31.838   8.697   8.081 -0.3160  0.1448 -0.2108
65740POPC   D2A22525  31.692   8.391   7.886 -0.1651 -0.0276 -0.0588
65740POPC   C3A22526  31.740   7.954   7.829 -0.3070 -0.1428 -0.0591
65740POPC   C4A22527  32.095   7.652   7.901 -0.0456  0.0154 -0.1579
65740POPC   C1B22528  31.832   8.749   7.565  0.1609  0.2886  0.0043
65740POPC   C2B22529  31.969   8.547   7.387  0.0616 -0.0453  0.0664
65740POPC   C3B22530  32.106   8.128   7.492  0.1015 -0.0661 -0.1667
65740POPC   C4B22531  32.378   7.780   7.423 -0.2333  0.0118 -0.2356
65741POPC   NC322532  21.698  12.387  14.538 -0.2726  0.0472 -0.2014
65741POPC   PO422533  21.249  12.296  14.713  0.0381 -0.0738 -0.0648
65741POPC   GL122534  21.095  12.497  14.473 -0.0754  0.0205 -0.1470
65741POPC   GL222535  21.357  12.744  14.458  0.0858  0.0444  0.1236
65741POPC   C1A22536  20.648  12.468  14.326 -0.1817  0.2410  0.0670
65741POPC   D2A22537  20.223  12.513  14.103  0.0049  0.1359 -0.4063
65741POPC   C3A22538  19.843  12.475  14.299 -0.1994  0.1262 -0.0601
65741POPC   C4A22539  19.462  12.634  14.378  0.0597 -0.0561 -0.1609
65741POPC   C1B22540  21.304  12.728  14.077  0.2007  0.2503 -0.1284
65741POPC   C2B22541  21.008  12.431  14.004 -0.1890 -0.0743  0.1354
65741POPC   C3B22542  20.652  12.401  13.741 -0.0322  0.1097  0.0567
65741POPC   C4B22543  20.249  12.245  13.632  0.3315 -0.1267  0.0972
65742POPC   NC322544  23.348  13.273  12.283 -0.2730 -0.0226  0.1250
65742POPC   PO422545  23.472  12.947  11.992  0.0451  0.2247  0.2356
65742POPC   GL122546  23.149  12.946  11.790  0.0724 -0.1452 -0.2697
65742POPC   GL222547  22.888  13.072  11.862 -0.1356  0.1485 -0.0931
65742POPC   C1A22548  23.114  12.856  11.422 -0.0249 -0.1688 -0.0271
65742POPC   D2A22549  22.929  12.523  11.206 -0.0960 -0.1224  0.0689
65742POPC   C3A22550  22.537  12.617  10.988  0.1651  0.0355 -0.1352
65742POPC   C4A22551  22.260  12.416  10.626  0.1909  0.2334  0.1864
65742POPC   C1B22552  22.627  12.884  11.538 -0.0948  0.0349 -0.0653
65742POPC   C2B22553  22.292  12.606  11.423  0.3096 -0.1750 -0.1812
65742POPC   C3B22554  22.050  12.462  11.135 -0.2923  0.1062 -0.2822
65742POPC   C4B22555  21.792  12.570  10.757 -0.0616  0.2658 -0.0169
65743POPC   NC322556  12.754  12.508  18.756 -0.2243  0.3908  0.0814
65743POPC   PO422557  12.514  12.795  18.453 -0.1037 -0.1339  0.1085
65743POPC   GL122558  12.694  12.687  18.151  0.1698 -0.3057  0.4087
65743POPC   GL222559  12.545  12.470  18.026 -0.0452  0.1808 -0.1158
65743POPC   C1A22560  12.799  12.728  17.681 -0.0249  0.0721  0.0628
65743POPC   D2A22561  12.816  12.561  17.309  0.0594  0.1485 -0.2079
65743POPC   C3A22562  13.176  12.616  17.028  0.4420  0.2064 -0.1610
65743POPC   C4A22563  13.629  12.784  16.730 -0.0909 -0.2465 -0.2861
65743POPC   C1B22564  12.414  12.235  17.638  0.0270 -0.1913 -0.1502
65743POPC   C2B22565  12.383  12.355  17.162  0.2153  0.3658 -0.5497
65743POPC   C3B22566  12.646  12.693  16.787  0.4088 -0.1617  0.0680
65743POPC   C4B22567  12.937  12.664  16.493  0.1058  0.0146 -0.2117
65744POPC   NC322568  22.745  10.830  13.718  0.1126 -0.0268 -0.1046
65744POPC   PO422569  22.689  11.262  13.651  0.1270 -0.0305 -0.0157
65744POPC   GL122570  22.288  11.061  13.769 -0.0483 -0.3138  0.1068
65744POPC   GL222571  22.276  10.696  13.673 -0.1081 -0.1196  0.2290
65744POPC   C1A22572  21.932  11.035  13.419 -0.1223  0.2999 -0.1172
65744POPC   D2A22573  21.788  11.082  13.049 -0.0297  0.0328 -0.2187
65744POPC   C3A22574  21.625  10.908  12.736  0.0809 -0.0232 -0.3159
65744POPC   C4A22575  21.389  10.608  12.495  0.1473 -0.0231  0.0334
65744POPC   C1B22576  21.948  10.473  13.432 -0.0856 -0.0574 -0.1129
65744POPC   C2B22577  21.906  10.597  13.058 -0.0395 -0.0459 -0.1743
65744POPC   C3B22578  21.762  10.398  12.692 -0.4121  0.0145 -0.1909
65744POPC   C4B22579  21.741  10.399  12.253 -0.0688 -0.3260  0.0748
65745POPC   NC322580  22.625   2.794  13.693  0.0552 -0.0263 -0.1068
65745POPC   PO422581  22.294   2.810  13.413 -0.1733 -0.1940  0.0126
65745POPC   GL122582  22.185   2.758  13.089 -0.3990  0.0786 -0.0125
65745POPC   GL222583  22.540   2.824  12.898 -0.3832  0.1170  0.4702
65745POPC   C1A22584  21.836   2.836  12.596  0.0834  0.0267 -0.1319
65745POPC   D2A22585  21.595   3.051  12.303  0.2641 -0.1336 -0.2266
65745POPC   C3A22586  21.138   3.095  12.205 -0.2629  0.3444 -0.1568
65745POPC   C4A22587  20.787   3.005  12.015  0.3144  0.1850  0.1752
65745POPC   C1B22588  22.336   2.863  12.540 -0.1344 -0.0734  0.0136
65745POPC   C2B22589  22.044   2.943  12.135 -0.2961 -0.0409 -0.1305
65745POPC   C3B22590  21.735   3.208  11.830 -0.4058 -0.2373 -0.1536
65745POPC   C4B22591  21.327   3.233  11.810  0.1303 -0.1455  0.0186
65746POPC   NC322592  26.260   2.277  10.871 -0.1136  0.3012 -0.1227
65746POPC   PO422593  26.470   1.845  10.923 -0.0519 -0.2820 -0.1301
65746POPC   GL122594  26.164   1.905  10.479  0.0400  0.0816  0.0386
65746POPC   GL222595  25.890   1.861  10.660 -0.0522  0.1754 -0.1225
65746POPC   C1A22596  25.883   1.918  10.149 -0.1002  0.0461 -0.0381
65746POPC   D2A22597  25.773   1.858   9.818  0.0493  0.0950 -0.2395
65746POPC   C3A22598  25.813   1.756   9.439 -0.1370  0.2135 -0.1275
65746POPC   C4A22599  25.777   1.649   9.045 -0.0663 -0.0629  0.0867
65746POPC   C1B22600  25.479   1.876  10.480  0.0049  0.1949 -0.0166
65746POPC   C2B22601  25.245   1.825  10.192 -0.6258  0.0659  0.0313
65746POPC   C3B22602  25.226   1.815   9.792  0.1751 -0.0840  0.1515
65746POPC   C4B22603  25.109   1.706   9.342  0.0496  0.0182  0.2226
65747POPC   NC322604   6.736  13.208  16.719 -0.2357 -0.0441  0.2485
65747POPC   PO422605   6.775  12.952  17.001 -0.2649 -0.0879  0.2697
65747POPC   GL122606   6.975  12.707  16.764 -0.1423 -0.1455  0.2859
65747POPC   GL222607   6.997  12.813  16.399  0.3249  0.0732 -0.0039
65747POPC   C1A22608   7.206  12.385  16.803 -0.1417 -0.0982  0.1920
65747POPC   D2A22609   7.439  12.104  16.931 -0.1280  0.0020  0.0906
65747POPC   C3A22610   7.869  11.950  16.753 -0.0233 -0.4914  0.1581
65747POPC   C4A22611   8.140  11.603  16.832 -0.1176 -0.2690  0.0774
65747POPC   C1B22612   7.084  12.645  16.008  0.1424 -0.2412 -0.1508
65747POPC   C2B22613   7.386  12.731  15.615  0.0851 -0.0375  0.0618
65747POPC   C3B22614   7.585  12.813  15.249  0.0320 -0.1493 -0.0844
65747POPC   C4B22615   8.033  13.011  15.215  0.3461 -0.0489  0.0920
65748POPC   NC322616  33.004   3.881  11.983  0.2543  0.1105 -0.0957
65748POPC   PO422617  32.658   3.862  11.810 -0.0447  0.1062  0.0492
65748POPC   GL122618  33.017   3.809  11.368  0.1439  0.1861 -0.1708
65748POPC   GL222619  33.034   3.772  11.018  0.0328  0.0972 -0.1270
65748POPC   C1A22620  33.525   3.812  11.223 -0.3781 -0.2294 -0.2998
65748POPC   D2A22621  33.993   3.749  11.304 -0.4734 -0.0040  0.0980
65748POPC   C3A22622  34.294   3.678  10.953 -0.1686  0.1306 -0.0250
65748POPC   C4A22623  34.596   3.482  10.783  0.1180 -0.1176  0.1135
65748POPC   C1B22624  33.367   3.463  10.854 -0.0837  0.0381  0.3990
65748POPC   C2B22625  33.530   3.313  10.465  0.2503  0.0381 -0.2376
65748POPC   C3B22626  33.365   3.010  10.073  0.0119 -0.2756 -0.1075
65748POPC   C4B22627  33.301   2.710   9.855  0.0399  0.1752 -0.2320
65749POPC   NC322628  28.507  29.339   9.952 -0.1547 -0.1417  0.0539
65749POPC   PO422629  28.945  29.437   9.784 -0.1768  0.0851  0.0492
65749POPC   GL122630  29.001  29.588   9.303  0.1728  0.0309 -0.2418
65749POPC   GL222631  29.220  29.362   9.221  0.0948 -0.0829  0.0303
65749POPC   C1A22632  29.014  29.928   9.220  0.2390  0.1883 -0.1605
65749POPC   D2A22633  29.047  30.242   8.903 -0.3204  0.0491 -0.2180
65749POPC   C3A22634  28.874  30.045   8.649 -0.1292 -0.1064 -0.0757
65749POPC   C4A22635  29.058  30.026   8.232 -0.1354  0.3634  0.0324
65749POPC   C1B22636  29.050  29.407   8.791 -0.1064 -0.1081  0.2546
65749POPC   C2B22637  29.094  29.554   8.387  0.0701 -0.0154 -0.0619
65749POPC   C3B22638  28.996  29.554   7.972 -0.2739 -0.1609  0.0566
65749POPC   C4B22639  29.201  29.803   7.737  0.0698  0.2237 -0.0643
65750POPC   NC322640  24.786  27.625   9.204  0.2652  0.1103 -0.2465
65750POPC   PO422641  25.096  27.401   9.434 -0.0618  0.0293 -0.0350
65750POPC   GL122642  24.787  27.101   9.217  0.5904  0.0110  0.1331
65750POPC   GL222643  24.497  27.218   9.311  0.1261  0.3732  0.1744
65750POPC   C1A22644  24.412  27.042   8.849 -0.3055  0.0759  0.1266
65750POPC   D2A22645  24.081  27.086   8.613 -0.2521 -0.0147 -0.2917
65750POPC   C3A22646  23.855  27.113   8.156  0.1666 -0.0523 -0.1612
65750POPC   C4A22647  23.607  26.918   7.891  0.0078 -0.2479 -0.1571
65750POPC   C1B22648  24.132  27.224   9.179  0.3753  0.0248 -0.5023
65750POPC   C2B22649  23.872  27.343   9.448  0.1027  0.3017 -0.2199
65750POPC   C3B22650  23.377  27.324   9.393 -0.0590 -0.1755  0.3579
65750POPC   C4B22651  23.081  27.270   9.094 -0.0071  0.0513  0.1956
65751POPC   NC322652  20.595  11.778  16.605 -0.2951 -0.3278 -0.1455
65751POPC   PO422653  20.381  11.408  16.373 -0.0715  0.1272  0.0441
65751POPC   GL122654  20.018  11.330  16.060  0.2387  0.0741 -0.2250
65751POPC   GL222655  20.171  10.988  15.805 -0.7497 -0.0029  0.2251
65751POPC   C1A22656  19.642  11.454  15.749 -0.0367 -0.1132  0.1905
65751POPC   D2A22657  19.287  11.624  15.424  0.1464 -0.1665  0.1543
65751POPC   C3A22658  19.167  11.433  15.179  0.2687 -0.2976  0.3156
65751POPC   C4A22659  18.788  11.367  15.046  0.0137  0.0121 -0.0906
65751POPC   C1B22660  19.971  11.108  15.549 -0.0671 -0.1095 -0.0652
65751POPC   C2B22661  19.649  11.213  15.290 -0.0299 -0.3356 -0.1911
65751POPC   C3B22662  19.440  10.985  14.985  0.3003 -0.0375 -0.2911
65751POPC   C4B22663  19.423  10.832  14.602 -0.0493  0.2128  0.0463
65752POPC   NC322664   2.823  24.858  17.434 -0.2013 -0.1619 -0.2416
65752POPC   PO422665   3.000  24.965  17.168 -0.0648 -0.2408  0.1531
65752POPC   GL122666   3.206  25.258  17.163 -0.1954  0.0109  0.1047
65752POPC   GL222667   3.472  25.216  17.352 -0.3154  0.3000  0.0759
65752POPC   C1A22668   3.555  25.491  16.994 -0.1066 -0.0955 -0.1278
65752POPC   D2A22669   4.016  25.650  16.934 -0.0525 -0.2040  0.3379
65752POPC   C3A22670   4.097  25.823  16.448  0.1740  0.0086 -0.1345
65752POPC   C4A22671   4.364  26.058  16.266  0.2089  0.1844  0.0381
65752POPC   C1B22672   3.910  25.271  17.268 -0.2145 -0.0648  0.3028
65752POPC   C2B22673   4.322  25.275  17.142  0.0216 -0.2891  0.1518
65752POPC   C3B22674   4.504  25.596  16.842 -0.0567 -0.0895  0.1596
65752POPC   C4B22675   4.625  25.664  16.456  0.0676  0.1862 -0.0874
65753POPC   NC322676  27.298   0.702  10.606 -0.0323  0.2701  0.0389
65753POPC   PO422677  26.967   0.867  10.925  0.1437 -0.1140 -0.0742
65753POPC   GL122678  26.865   1.115  10.508  0.0560 -0.3263 -0.2143
65753POPC   GL222679  26.787   1.381  10.529 -0.1167 -0.1525  0.0166
65753POPC   C1A22680  26.728   0.971  10.181 -0.0846  0.0940  0.1679
65753POPC   D2A22681  26.753   1.066   9.746 -0.0375  0.4134  0.0783
65753POPC   C3A22682  26.976   0.829   9.511  0.0752 -0.3388 -0.4870
65753POPC   C4A22683  27.121   0.566   9.242 -0.0231 -0.2222 -0.0240
65753POPC   C1B22684  26.517   1.539  10.384  0.0553 -0.0516 -0.4067
65753POPC   C2B22685  26.303   1.371  10.112 -0.2702 -0.0981 -0.0528
65753POPC   C3B22686  26.199   1.389   9.590 -0.0165 -0.1044  0.4833
65753POPC   C4B22687  25.880   1.214   9.438  0.0490 -0.0090 -0.3148
65754POPC   NC322688  21.215  26.866  16.584 -0.1027  0.3642  0.1625
65754POPC   PO422689  20.700  26.679  16.351 -0.1140  0.1380 -0.2309
65754POPC   GL122690  20.350  26.817  16.223  0.0310  0.2340 -0.3263
65754POPC   GL222691  20.143  26.833  16.478  0.1575 -0.2604  0.1383
65754POPC   C1A22692  20.026  26.632  15.950  0.1425 -0.0423 -0.1454
65754POPC   D2A22693  19.627  26.564  15.776  0.0816  0.1642 -0.1810
65754POPC   C3A22694  19.462  26.254  15.642 -0.2289 -0.3293 -0.2107
65754POPC   C4A22695  19.133  26.052  15.450  0.2934  0.1819 -0.0462
65754POPC   C1B22696  19.734  26.604  16.321 -0.3306 -0.0373 -0.1854
65754POPC   C2B22697  19.245  26.661  16.312  0.0781  0.1100 -0.1138
65754POPC   C3B22698  18.827  26.684  16.471 -0.3082  0.1238 -0.1036
65754POPC   C4B22699  18.778  26.660  16.850 -0.1067 -0.0931 -0.1224
65755POPC   NC322700  32.259  16.756   5.341  0.0188 -0.0423 -0.0728
65755POPC   PO422701  32.610  16.778   5.024  0.0075  0.0154 -0.1245
65755POPC   GL122702  32.829  16.952   4.803 -0.0770  0.1287 -0.1258
65755POPC   GL222703  33.147  16.904   4.819  0.1761  0.0034  0.4772
65755POPC   C1A22704  33.044  16.897   4.328  0.0726 -0.0009 -0.0272
65755POPC   D2A22705  33.113  16.830   3.913  0.0190 -0.0117 -0.2874
65755POPC   C3A22706  33.169  16.641   3.501 -0.2156  0.1506 -0.4266
65755POPC   C4A22707  33.506  16.640   3.154  0.1809 -0.1575 -0.0865
65755POPC   C1B22708  33.482  16.828   4.647 -0.0282  0.2314  0.0375
65755POPC   C2B22709  33.600  16.785   4.273  0.0165  0.0792 -0.0950
65755POPC   C3B22710  33.807  16.659   3.871 -0.0254 -0.2986 -0.1282
65755POPC   C4B22711  34.208  16.335   3.855 -0.0072 -0.0206  0.1078
65756POPC   NC322712   9.735  11.363  18.569  0.0004 -0.3681  0.3211
65756POPC   PO422713   9.977  11.112  18.317  0.5362  0.3208  0.0047
65756POPC   GL122714   9.899  11.212  17.856 -0.1002  0.0786  0.0872
65756POPC   GL222715  10.239  11.382  17.936 -0.0502  0.1571  0.1734
65756POPC   C1A22716   9.966  11.206  17.530 -0.3725 -0.1530  0.1572
65756POPC   D2A22717  10.096  11.005  17.103  0.0622  0.1552 -0.0847
65756POPC   C3A22718  10.229  11.225  16.801 -0.3055 -0.3004 -0.0713
65756POPC   C4A22719  10.127  11.453  16.384 -0.0833 -0.1609  0.1035
65756POPC   C1B22720  10.473  11.292  17.629 -0.0991  0.3029  0.0083
65756POPC   C2B22721  10.566  10.917  17.300  0.1043  0.0729 -0.1789
65756POPC   C3B22722  10.580  10.821  16.933 -0.3608  0.0386  0.2173
65756POPC   C4B22723  10.989  10.943  16.604 -0.1711 -0.0478  0.2494
65757POPC   NC322724  19.253  29.538  17.721 -0.0030  0.0409 -0.0024
65757POPC   PO422725  18.801  29.482  17.713 -0.0808  0.0426 -0.2802
65757POPC   GL122726  18.453  29.370  17.441 -0.1331 -0.0723  0.1775
65757POPC   GL222727  18.605  29.360  17.124 -0.1630  0.2767  0.0793
65757POPC   C1A22728  18.024  29.392  17.348 -0.0769 -0.3092  0.3018
65757POPC   D2A22729  17.744  29.736  17.416  0.1978  0.1433 -0.0004
65757POPC   C3A22730  17.791  30.170  17.446  0.0462  0.0597 -0.0383
65757POPC   C4A22731  17.920  30.495  17.008  0.0842  0.1787 -0.1759
65757POPC   C1B22732  18.726  29.049  16.779  0.0468 -0.0104  0.1769
65757POPC   C2B22733  18.385  28.862  16.554  0.0524  0.0640 -0.5094
65757POPC   C3B22734  18.006  28.620  16.665 -0.1552 -0.0248  0.1158
65757POPC   C4B22735  17.639  28.644  16.783  0.3541  0.2118  0.0335
65758POPC   NC322736  10.287  30.067  21.437  0.0099 -0.3598  0.1171
65758POPC   PO422737  10.554  30.288  21.527 -0.3414 -0.2346  0.4775
65758POPC   GL122738  10.464  30.228  21.056  0.2756 -0.2964  0.1670
65758POPC   GL222739  10.309  29.944  20.871  0.0514  0.0847  0.2308
65758POPC   C1A22740  10.532  30.318  20.580  0.0998  0.0976 -0.2308
65758POPC   D2A22741  10.647  30.259  20.094  0.2405  0.0237  0.0483
65758POPC   C3A22742  10.559  29.948  19.822 -0.1140  0.5087 -0.0379
65758POPC   C4A22743  10.274  29.783  19.594  0.3079 -0.0921  0.1774
65758POPC   C1B22744  10.400  29.875  20.453 -0.2318  0.1583 -0.0704
65758POPC   C2B22745  10.207  29.701  20.128  0.3327  0.1837  0.1378
65758POPC   C3B22746   9.910  29.476  19.900  0.0154  0.1982  0.1003
65758POPC   C4B22747   9.716  29.573  19.547 -0.0609  0.0041  0.0314
65759POPC   NC322748   1.032  12.300  10.978  0.1245  0.1045 -0.0174
65759POPC   PO422749   1.108  12.713  10.925 -0.3374  0.1525 -0.0173
65759POPC   GL122750   1.453  12.478  10.766 -0.0951 -0.1366  0.1572
65759POPC   GL222751   1.310  12.394  10.513 -0.1418 -0.0572  0.2033
65759POPC   C1A22752   1.750  12.424  10.351 -0.3308  0.0281 -0.2323
65759POPC   D2A22753   2.166  12.351  10.127  0.1899 -0.1739  0.1434
65759POPC   C3A22754   2.318  12.294   9.755  0.2232  0.2224 -0.0910
65759POPC   C4A22755   2.296  12.259   9.395 -0.2217 -0.0770 -0.1610
65759POPC   C1B22756   1.309  12.172  10.047  0.0162 -0.3560 -0.0612
65759POPC   C2B22757   1.744  12.095   9.910 -0.2156  0.0922 -0.3736
65759POPC   C3B22758   2.070  11.895   9.782 -0.0465 -0.2769 -0.2551
65759POPC   C4B22759   2.403  11.572   9.805 -0.0029 -0.1442  0.0565
65760POPC   NC322760   7.443  20.377  21.020  0.2202 -0.0454  0.1052
65760POPC   PO422761   7.839  20.414  20.819 -0.0097  0.0903  0.0713
65760POPC   GL122762   7.845  20.778  20.529  0.1231  0.0563  0.3301
65760POPC   GL222763   7.607  20.677  20.274  0.0977 -0.1005  0.1502
65760POPC   C1A22764   8.023  21.165  20.398  0.1769 -0.0310 -0.1718
65760POPC   D2A22765   8.254  21.495  20.246 -0.1131 -0.0588  0.1188
65760POPC   C3A22766   8.311  21.636  19.820 -0.2883 -0.1703 -0.0185
65760POPC   C4A22767   8.693  21.936  19.607 -0.1969  0.3317 -0.0566
65760POPC   C1B22768   7.839  20.901  19.951  0.0639  0.1059  0.0762
65760POPC   C2B22769   8.018  21.228  19.937  0.2961 -0.0451 -0.1013
65760POPC   C3B22770   8.279  21.323  19.448 -0.0775 -0.0414 -0.1530
65760POPC   C4B22771   8.488  21.577  19.177 -0.0064  0.3324  0.0401
65761POPC   NC322772  24.687  15.950   8.149  0.0579 -0.0598 -0.0465
65761POPC   PO422773  24.762  15.577   7.874  0.2448  0.0471 -0.0888
65761POPC   GL122774  24.243  15.519   8.063  0.0791 -0.2110 -0.1418
65761POPC   GL222775  24.156  15.175   7.999 -0.1239 -0.1832  0.1632
65761POPC   C1A22776  23.774  15.505   7.886  0.2682  0.1101 -0.1583
65761POPC   D2A22777  23.376  15.518   7.774  0.0510  0.1505  0.0951
65761POPC   C3A22778  23.113  15.253   7.645  0.2685 -0.0639  0.2671
65761POPC   C4A22779  22.996  14.823   7.618  0.1833  0.2875  0.1923
65761POPC   C1B22780  23.780  15.028   7.838  0.3292  0.1036  0.2842
65761POPC   C2B22781  23.505  15.020   7.489  0.0366 -0.0192 -0.0247
65761POPC   C3B22782  23.163  15.004   7.156 -0.0323 -0.0603  0.2206
65761POPC   C4B22783  22.913  14.883   6.810 -0.0941  0.1317 -0.0485
65762POPC   NC322784  19.528  21.872  18.391 -0.2013 -0.3376  0.0623
65762POPC   PO422785  19.347  21.812  18.027 -0.2682 -0.3015  0.0821
65762POPC   GL122786  19.107  21.598  17.850  0.0780 -0.1485  0.2417
65762POPC   GL222787  18.888  21.753  18.005  0.0123 -0.2655  0.0355
65762POPC   C1A22788  18.785  21.406  17.611  0.0526  0.0263  0.1053
65762POPC   D2A22789  18.627  21.291  17.276 -0.0371  0.1768 -0.1830
65762POPC   C3A22790  18.267  21.290  17.173  0.0707  0.3059  0.1105
65762POPC   C4A22791  18.125  21.131  16.805 -0.2380  0.0990 -0.1373
65762POPC   C1B22792  18.524  21.791  17.773 -0.1554  0.0010 -0.1596
65762POPC   C2B22793  18.344  21.969  17.452  0.4383 -0.1284  0.3210
65762POPC   C3B22794  18.289  22.297  17.180 -0.1019 -0.3494  0.0428
65762POPC   C4B22795  18.370  22.737  17.320  0.0216  0.2046 -0.1011
65763POPC   NC322796  34.148  24.969   9.797  0.2314 -0.1694  0.0063
65763POPC   PO422797  34.573  24.883   9.982 -0.3108  0.1046 -0.0004
65763POPC   GL122798  34.949  25.025  10.238  0.0278  0.1063 -0.0296
65763POPC   GL222799  35.166  24.777  10.301 -0.0772  0.0468  0.1333
65763POPC   C1A22800  35.357  25.299  10.303 -0.0441 -0.0992  0.0069
65763POPC   D2A22801   0.212  25.485  10.068 -0.0279 -0.3201 -0.0192
65763POPC   C3A22802   0.158  25.944  10.065 -0.4475 -0.3848  0.2084
65763POPC   C4A22803   0.476  26.339  10.038  0.0211 -0.0012 -0.2518
65763POPC   C1B22804   0.069  24.735  10.086  0.0861  0.0486 -0.4159
65763POPC   C2B22805   0.149  24.670   9.673  0.2787 -0.0802 -0.0436
65763POPC   C3B22806   0.519  24.805   9.521 -0.1788  0.0392  0.1676
65763POPC   C4B22807   0.976  24.874   9.352  0.1154 -0.0563  0.0939
65764POPC   NC322808  20.654   2.813  14.921  0.0252  0.1253 -0.0686
65764POPC   PO422809  20.822   3.191  14.867 -0.0503  0.3117 -0.1619
65764POPC   GL122810  20.702   3.572  14.728  0.0363  0.2066  0.2957
65764POPC   GL222811  20.450   3.566  14.821 -0.2696 -0.3501  0.3409
65764POPC   C1A22812  20.735   3.816  14.332  0.0448 -0.0499  0.2011
65764POPC   D2A22813  20.734   3.760  14.009 -0.0352 -0.2923 -0.2116
65764POPC   C3A22814  20.977   3.948  13.671 -0.0896 -0.0394 -0.3591
65764POPC   C4A22815  21.298   4.196  13.486 -0.2122 -0.0399 -0.0372
65764POPC   C1B22816  19.966   3.448  14.679 -0.0162  0.1519  0.0588
65764POPC   C2B22817  19.800   3.663  14.326 -0.3274  0.3074  0.2003
65764POPC   C3B22818  19.664   3.986  14.252 -0.0764 -0.1182  0.0795
65764POPC   C4B22819  19.498   4.333  13.846  0.0346  0.2401 -0.0001
65765POPC   NC322820  34.886  24.346  11.472  0.3161 -0.1731 -0.0962
65765POPC   PO422821  35.249  24.145  11.621  0.1443 -0.0360 -0.2767
65765POPC   GL122822   0.217  24.398  11.624  0.0801 -0.0028  0.2290
65765POPC   GL222823   0.417  24.430  11.975 -0.0995 -0.2774  0.1116
65765POPC   C1A22824   0.404  24.834  11.634  0.2404  0.2259 -0.1218
65765POPC   D2A22825   0.776  25.122  11.642 -0.1730 -0.2261  0.2547
65765POPC   C3A22826   1.060  25.461  11.730 -0.0287 -0.2914 -0.1349
65765POPC   C4A22827   1.451  25.611  11.864 -0.2698  0.1772 -0.0955
65765POPC   C1B22828   0.784  24.552  11.910 -0.3059  0.1414  0.0322
65765POPC   C2B22829   1.030  24.581  12.077 -0.1030 -0.0534  0.0373
65765POPC   C3B22830   1.402  24.665  12.411 -0.3761 -0.1136 -0.1200
65765POPC   C4B22831   1.697  24.627  12.697 -0.0217 -0.2057 -0.1161
65766POPC   NC322832   1.672  23.368  13.335 -0.4260  0.3507  0.0866
65766POPC   PO422833   1.981  23.052  13.105 -0.2063  0.4517  0.1437
65766POPC   GL122834   2.355  23.298  13.049 -0.1431 -0.0170 -0.0071
65766POPC   GL222835   2.671  23.098  13.156 -0.1506 -0.0544  0.2435
65766POPC   C1A22836   2.450  23.663  12.975  0.2992  0.2446  0.3601
65766POPC   D2A22837   2.540  24.020  13.115  0.1546 -0.1406  0.1239
65766POPC   C3A22838   2.505  24.436  13.052 -0.1053  0.2251  0.1792
65766POPC   C4A22839   2.565  24.964  13.057 -0.0969  0.0771  0.1853
65766POPC   C1B22840   2.821  23.490  13.203  0.1110  0.1901  0.2038
65766POPC   C2B22841   3.005  23.901  12.986 -0.2085 -0.0135  0.1698
65766POPC   C3B22842   2.891  24.339  12.787 -0.1205  0.0278 -0.0429
65766POPC   C4B22843   2.989  24.706  12.823  0.2460  0.0737  0.1590
65767POPC   NC322844  12.319  29.263  21.735  0.1346  0.0269  0.3580
65767POPC   PO422845  11.836  29.159  21.684  0.1817  0.1796 -0.0786
65767POPC   GL122846  11.687  28.845  21.311 -0.1929 -0.3690  0.0011
65767POPC   GL222847  11.620  28.573  21.347 -0.0777  0.0886 -0.0220
65767POPC   C1A22848  11.912  28.787  20.972 -0.1401 -0.1451 -0.2266
65767POPC   D2A22849  11.975  28.503  20.643 -0.1846 -0.0179 -0.3413
65767POPC   C3A22850  12.167  28.543  20.324 -0.1091  0.0665  0.0942
65767POPC   C4A22851  12.149  28.750  20.021  0.0371  0.1207 -0.0940
65767POPC   C1B22852  11.620  28.424  20.948  0.1147 -0.1149  0.0657
65767POPC   C2B22853  11.537  28.278  20.506 -0.1976 -0.1391  0.0808
65767POPC   C3B22854  11.403  28.078  20.188  0.3318 -0.2623  0.0195
65767POPC   C4B22855  11.283  27.618  19.942 -0.1294 -0.4788  0.1109
65768POPC   NC322856   2.432  22.397  11.764  0.2065  0.1851 -0.2275
65768POPC   PO422857   2.238  22.732  11.889  0.2735 -0.2963 -0.0248
65768POPC   GL122858   2.419  23.088  11.846  0.1817  0.0286 -0.5667
65768POPC   GL222859   2.245  23.338  11.917 -0.1095 -0.3344  0.2744
65768POPC   C1A22860   2.707  23.443  11.781  0.0086 -0.0953  0.0899
65768POPC   D2A22861   2.807  23.914  11.858 -0.4286 -0.0242  0.2445
65768POPC   C3A22862   3.179  24.077  11.800 -0.0299  0.1163 -0.0259
65768POPC   C4A22863   3.469  24.495  11.921  0.1720 -0.3246  0.2009
65768POPC   C1B22864   2.309  23.735  11.870 -0.0019 -0.0764 -0.1411
65768POPC   C2B22865   2.347  24.200  11.890 -0.0723  0.1742  0.2443
65768POPC   C3B22866   2.624  24.528  11.830  0.0687 -0.0794 -0.1603
65768POPC   C4B22867   2.835  24.652  11.473 -0.1666  0.2267  0.2830
65769POPC   NC322868  28.258  31.387  10.557  0.2706  0.0626  0.0456
65769POPC   PO422869  28.346  31.717  10.242  0.1376  0.2866  0.0229
65769POPC   GL122870  28.283  31.666   9.795 -0.0368 -0.1246  0.1802
65769POPC   GL222871  28.049  31.881   9.779  0.0490  0.0303 -0.1345
65769POPC   C1A22872  28.528  31.651   9.464  0.1201 -0.2073 -0.2348
65769POPC   D2A22873  28.607  31.557   9.060  0.1161 -0.0274  0.1351
65769POPC   C3A22874  28.969  31.343   8.968 -0.0323 -0.1935  0.0384
65769POPC   C4A22875  29.221  31.233   9.147  0.1831 -0.0920  0.3205
65769POPC   C1B22876  28.001  31.667   9.335 -0.4311 -0.0794 -0.3277
65769POPC   C2B22877  28.147  31.548   8.945  0.0627  0.0266  0.0910
65769POPC   C3B22878  28.212  31.629   8.533  0.0599  0.1511 -0.3183
65769POPC   C4B22879  28.408  31.619   8.275  0.1326  0.2966 -0.1117
65770DOPC   NC322880  32.379  11.635   6.189  0.0692  0.3196 -0.3981
65770DOPC   PO422881  32.477  12.012   6.035 -0.1125 -0.2525 -0.0485
65770DOPC   GL122882  32.816  11.969   5.815 -0.2513 -0.1851  0.4712
65770DOPC   GL222883  32.986  12.157   5.616  0.2485 -0.0236 -0.1284
65770DOPC   C1A22884  32.970  11.585   5.558  0.0026  0.0993  0.4619
65770DOPC   D2A22885  33.279  11.482   5.269  0.0491  0.1886  0.1728
65770DOPC   C3A22886  33.483  11.360   4.979 -0.0118 -0.0133  0.1919
65770DOPC   C4A22887  33.744  11.255   4.746 -0.1799 -0.1695 -0.0678
65770DOPC   C1B22888  33.155  12.028   5.345 -0.0355  0.1521 -0.2060
65770DOPC   D2B22889  33.379  12.004   4.952 -0.0588  0.1386  0.2384
65770DOPC   C3B22890  33.747  11.768   4.795  0.3311 -0.3181  0.2570
65770DOPC   C4B22891  34.041  11.675   4.524  0.0550 -0.1185  0.3731
65771DOPC   NC322892  14.091  31.397  20.176 -0.0497  0.0805  0.1467
65771DOPC   PO422893  14.015  31.644  20.495  0.1651 -0.1503  0.2950
65771DOPC   GL122894  14.045  31.881  20.132 -0.1504  0.1054  0.1128
65771DOPC   GL222895  14.047  31.719  19.772  0.3237 -0.1379  0.0514
65771DOPC   C1A22896  13.811  32.206  19.791 -0.0103  0.2359  0.0424
65771DOPC   D2A22897  13.597  32.482  19.590  0.3066  0.0127  0.0182
65771DOPC   C3A22898  13.555  32.480  19.146  0.1577  0.0494  0.0782
65771DOPC   C4A22899  13.416  32.100  18.971 -0.3829  0.1731  0.2061
65771DOPC   C1B22900  14.292  31.927  19.471  0.0870 -0.1421 -0.0264
65771DOPC   D2B22901  14.579  31.936  19.196  0.2846  0.0488 -0.0541
65771DOPC   C3B22902  14.441  31.887  18.782  0.1236 -0.0167  0.0791
65771DOPC   C4B22903  14.142  31.697  18.562 -0.1394  0.3374  0.5501
65772DOPC   NC322904   0.543  13.136   9.557  0.0858 -0.2960 -0.0387
65772DOPC   PO422905   0.483  13.636   9.606  0.0839  0.0098 -0.0839
65772DOPC   GL122906   0.795  13.516   9.341  0.1539  0.3640  0.0605
65772DOPC   GL222907   0.728  13.365   9.070  0.0796 -0.1635  0.0071
65772DOPC   C1A22908   1.215  13.387   9.488 -0.0032  0.0554 -0.0403
65772DOPC   D2A22909   1.576  13.189   9.712  0.4309 -0.5156  0.0664
65772DOPC   C3A22910   1.983  13.088   9.531  0.3328  0.2227 -0.2750
65772DOPC   C4A22911   2.383  12.866   9.476 -0.0088  0.2800  0.1697
65772DOPC   C1B22912   1.233  13.420   9.007  0.1764 -0.0612 -0.1529
65772DOPC   D2B22913   1.598  13.289   9.183  0.1867  0.1559 -0.2549
65772DOPC   C3B22914   1.930  13.192   8.955  0.0645 -0.0165  0.1025
65772DOPC   C4B22915   2.264  13.041   8.987  0.1718  0.1174 -0.2079
65773DOPC   NC322916   0.664  27.512  15.715  0.2274  0.0343  0.3337
65773DOPC   PO422917   0.853  27.215  15.944  0.0852 -0.0187  0.0647
65773DOPC   GL122918   1.348  27.278  15.826  0.1817  0.0895  0.4005
65773DOPC   GL222919   1.425  27.013  15.838 -0.1097 -0.2332  0.1798
65773DOPC   C1A22920   1.721  27.225  15.573  0.0748  0.0865  0.0471
65773DOPC   D2A22921   2.048  27.407  15.300 -0.1253 -0.0682 -0.1284
65773DOPC   C3A22922   2.121  27.821  15.158 -0.1731  0.0979 -0.0560
65773DOPC   C4A22923   2.391  28.159  14.883  0.2604 -0.5055  0.1734
65773DOPC   C1B22924   1.371  26.754  15.508 -0.1418 -0.0963 -0.2703
65773DOPC   D2B22925   1.386  26.531  15.205  0.2124  0.1537 -0.0521
65773DOPC   C3B22926   1.361  26.737  14.823  0.2018 -0.1366 -0.0143
65773DOPC   C4B22927   1.148  26.795  14.566  0.0429  0.2040  0.0439
65774DOPC   NC322928  25.484  11.431   9.077  0.1652  0.3089 -0.1545
65774DOPC   PO422929  25.535  11.561   8.659  0.0776  0.0537 -0.1868
65774DOPC   GL122930  25.242  11.575   8.341 -0.1055 -0.0856 -0.0398
65774DOPC   GL222931  25.295  11.457   7.946 -0.2065  0.0335  0.0498
65774DOPC   C1A22932  24.746  11.540   8.149  0.1542 -0.0245 -0.1720
65774DOPC   D2A22933  24.396  11.370   8.144 -0.1223 -0.0125  0.0665
65774DOPC   C3A22934  24.108  11.187   7.818 -0.2097  0.2208  0.1004
65774DOPC   C4A22935  24.027  10.888   7.529  0.0736  0.1004 -0.0876
65774DOPC   C1B22936  24.944  11.511   7.652  0.0072 -0.0362  0.1739
65774DOPC   D2B22937  24.499  11.441   7.642 -0.0019 -0.2416 -0.0757
65774DOPC   C3B22938  24.283  11.357   7.339  0.1780 -0.3046 -0.0505
65774DOPC   C4B22939  23.988  11.041   7.055  0.0981  0.0013 -0.4635
65775DOPC   NC322940   7.008  15.689  17.255 -0.1576 -0.0760  0.0055
65775DOPC   PO422941   6.962  16.200  17.197 -0.2688  0.0668 -0.1322
65775DOPC   GL122942   6.772  16.397  16.824 -0.1591  0.0248 -0.1792
65775DOPC   GL222943   6.620  16.764  16.795 -0.1031  0.2178  0.1820
65775DOPC   C1A22944   6.933  16.354  16.466  0.0757 -0.0134  0.1023
65775DOPC   D2A22945   6.950  16.333  16.069  0.0239 -0.0960 -0.0746
65775DOPC   C3A22946   7.189  16.537  15.720 -0.0770  0.0541 -0.1691
65775DOPC   C4A22947   7.521  16.873  15.682  0.0931  0.0561 -0.4310
65775DOPC   C1B22948   6.762  16.870  16.385 -0.0534  0.2572 -0.3170
65775DOPC   D2B22949   7.094  16.814  16.192 -0.1646 -0.3209  0.3480
65775DOPC   C3B22950   7.060  17.040  15.875 -0.0957  0.0493 -0.3339
65775DOPC   C4B22951   7.141  17.119  15.481  0.2202  0.4910  0.2261
65776DOPC   NC322952  28.320  27.773   8.781 -0.0932  0.2033 -0.4003
65776DOPC   PO422953  28.210  28.084   8.955  0.2382  0.1586 -0.0118
65776DOPC   GL122954  28.432  28.271   8.570  0.0430 -0.1276  0.2270
65776DOPC   GL222955  28.741  28.427   8.570 -0.0883  0.0904  0.0607
65776DOPC   C1A22956  28.386  28.355   8.117 -0.2495  0.0594 -0.3223
65776DOPC   D2A22957  28.514  28.706   7.859 -0.0601 -0.1369  0.0117
65776DOPC   C3A22958  28.254  28.789   7.530  0.0373 -0.0906 -0.3506
65776DOPC   C4A22959  28.010  29.037   7.238  0.0499  0.2585 -0.1537
65776DOPC   C1B22960  28.895  28.491   8.159 -0.0220 -0.0030 -0.0556
65776DOPC   D2B22961  29.303  28.709   8.027 -0.0459  0.1049  0.0943
65776DOPC   C3B22962  29.218  28.895   7.650 -0.2717 -0.2071 -0.4398
65776DOPC   C4B22963  29.081  29.168   7.450  0.0141 -0.2395 -0.1925
65777DOPC   NC322964  14.333  24.937  21.679 -0.2288 -0.1892  0.0225
65777DOPC   PO422965  13.980  25.180  21.851 -0.2387  0.2498 -0.0475
65777DOPC   GL122966  13.773  25.093  21.412  0.0783 -0.1343 -0.0634
65777DOPC   GL222967  13.920  25.293  21.341  0.0129  0.1832  0.2342
65777DOPC   C1A22968  13.698  24.923  21.038 -0.1403  0.3010  0.2316
65777DOPC   D2A22969  13.489  24.670  20.653 -0.2909  0.1414  0.3010
65777DOPC   C3A22970  13.118  24.521  20.862 -0.1140 -0.1645  0.1072
65777DOPC   C4A22971  12.860  24.755  21.171 -0.4846  0.1228 -0.1634
65777DOPC   C1B22972  13.756  25.446  20.967 -0.1334  0.2752 -0.4662
65777DOPC   D2B22973  13.614  25.181  20.565 -0.0822 -0.0352 -0.0790
65777DOPC   C3B22974  13.302  25.387  20.368  0.0943 -0.1066 -0.1168
65777DOPC   C4B22975  12.966  25.349  20.275 -0.0439 -0.1998  0.3878
65778DOPC   NC322976   1.755  14.903  12.193  0.0690  0.1573  0.2998
65778DOPC   PO422977   2.056  14.691  11.916 -0.1876  0.0187  0.2386
65778DOPC   GL122978   2.160  14.186  11.813 -0.0240 -0.0665 -0.1903
65778DOPC   GL222979   2.242  14.107  11.505 -0.0016 -0.1453 -0.1019
65778DOPC   C1A22980   2.497  13.874  11.879  0.2713 -0.1994  0.0972
65778DOPC   D2A22981   2.951  13.748  11.699 -0.2240 -0.0044  0.0937
65778DOPC   C3A22982   3.320  13.574  11.770 -0.0567  0.2023  0.0162
65778DOPC   C4A22983   3.800  13.467  11.885 -0.0101  0.1278  0.1224
65778DOPC   C1B22984   2.709  14.118  11.533  0.1142 -0.1351 -0.0072
65778DOPC   D2B22985   3.052  14.388  11.348 -0.0918  0.4392 -0.0707
65778DOPC   C3B22986   3.223  14.303  10.984 -0.3876  0.0162  0.0263
65778DOPC   C4B22987   3.344  14.091  10.724 -0.2687 -0.0207  0.0508
65779DOPC   NC322988  23.623   2.659  12.915 -0.0270 -0.3085  0.0782
65779DOPC   PO422989  23.511   3.096  12.920 -0.1296 -0.2660  0.1742
65779DOPC   GL122990  23.135   3.178  12.762 -0.4176  0.1242 -0.4349
65779DOPC   GL222991  23.111   3.008  12.543  0.1861  0.0814  0.0658
65779DOPC   C1A22992  22.668   3.348  12.565 -0.0251  0.1434  0.2595
65779DOPC   D2A22993  22.285   3.426  12.448  0.0179 -0.0206 -0.1906
65779DOPC   C3A22994  22.095   3.594  12.204 -0.1421  0.0264 -0.2690
65779DOPC   C4A22995  21.667   3.698  12.267  0.2864  0.0037  0.1770
65779DOPC   C1B22996  22.817   2.768  12.447  0.3299 -0.3364  0.3532
65779DOPC   D2B22997  22.503   2.531  12.142 -0.3546 -0.0511 -0.2307
65779DOPC   C3B22998  22.267   2.541  11.783  0.0859  0.0525  0.1450
65779DOPC   C4B22999  22.137   2.981  11.633  0.2213 -0.2733  0.2471
65780DOPC   NC323000  18.540  20.235  18.955  0.1081  0.3002 -0.1738
65780DOPC   PO423001  18.139  20.137  19.078 -0.1278  0.1221  0.2691
65780DOPC   GL123002  18.072  19.899  18.693 -0.1316 -0.2536  0.1185
65780DOPC   GL223003  17.741  19.992  18.695 -0.0635  0.2445 -0.0862
65780DOPC   C1A23004  18.032  20.145  18.300 -0.2611  0.3952  0.2426
65780DOPC   D2A23005  17.984  20.314  17.979  0.2991 -0.1848  0.2729
65780DOPC   C3A23006  17.521  20.437  17.800 -0.1965  0.5167  0.1508
65780DOPC   C4A23007  17.233  20.159  17.512 -0.1217  0.0097  0.3416
65780DOPC   C1B23008  17.426  20.263  18.321 -0.2676 -0.1523  0.0381
65780DOPC   D2B23009  17.019  20.502  18.174 -0.0657  0.0242 -0.0496
65780DOPC   C3B23010  16.965  20.926  17.990 -0.0508  0.2156 -0.1929
65780DOPC   C4B23011  17.047  21.316  18.010 -0.0978  0.0258  0.2938
65781DOPC   NC323012   8.227  19.959  20.819  0.1868 -0.1412 -0.1282
65781DOPC   PO423013   8.736  19.986  20.839  0.0180  0.0960  0.0169
65781DOPC   GL123014   8.657  19.988  20.350 -0.0875 -0.2134  0.2549
65781DOPC   GL223015   8.942  19.792  20.168  0.1129 -0.2087 -0.0270
65781DOPC   C1A23016   8.814  20.250  20.032  0.0684 -0.0706 -0.1471
65781DOPC   D2A23017   9.131  20.439  19.732  0.3207  0.1273 -0.0637
65781DOPC   C3A23018   9.225  20.864  19.604 -0.0062  0.3038 -0.0942
65781DOPC   C4A23019   9.458  21.166  19.496 -0.3011 -0.2509  0.0067
65781DOPC   C1B23020   9.130  19.577  19.725  0.0901  0.2731  0.0534
65781DOPC   D2B23021   9.426  19.682  19.470  0.1172 -0.1361 -0.1625
65781DOPC   C3B23022   9.382  19.759  19.080 -0.0581 -0.1183 -0.2620
65781DOPC   C4B23023   9.338  20.090  18.833  0.1355 -0.0651 -0.0662
65782DOPC   NC323024  14.749  20.642  20.913  0.3078  0.0657 -0.0974
65782DOPC   PO423025  15.101  20.389  20.963  0.1503 -0.0855  0.0396
65782DOPC   GL123026  15.031  20.254  20.648 -0.1311 -0.1067  0.1588
65782DOPC   GL223027  14.888  20.449  20.399  0.2856  0.3593  0.3197
65782DOPC   C1A23028  14.892  19.960  20.323  0.3537 -0.2258  0.1568
65782DOPC   D2A23029  14.835  19.853  19.880 -0.1036 -0.0832  0.1896
65782DOPC   C3A23030  14.656  20.139  19.601  0.2760 -0.1386  0.1002
65782DOPC   C4A23031  14.231  20.223  19.457 -0.1364 -0.0701  0.0431
65782DOPC   C1B23032  14.841  20.463  19.915  0.2327 -0.1088 -0.1313
65782DOPC   D2B23033  14.769  20.785  19.590  0.0760 -0.1956 -0.1684
65782DOPC   C3B23034  14.491  20.661  19.333 -0.0200  0.1085  0.0607
65782DOPC   C4B23035  14.076  20.720  19.381  0.2485  0.0548 -0.3178
65783DOPC   NC323036  18.786  23.078  18.477  0.0130  0.2398  0.1681
65783DOPC   PO423037  19.185  23.110  18.214  0.0050  0.3104 -0.0809
65783DOPC   GL123038  18.791  23.153  17.979 -0.0774  0.0046  0.2520
65783DOPC   GL223039  18.718  22.891  17.764 -0.0402  0.0811 -0.0004
65783DOPC   C1A23040  18.405  23.488  17.979 -0.0430 -0.2100  0.3033
65783DOPC   D2A23041  18.096  23.685  18.180 -0.1007  0.2382  0.2444
65783DOPC   C3A23042  18.323  24.026  18.215  0.2686 -0.4363 -0.1108
65783DOPC   C4A23043  18.592  24.333  18.246 -0.2799 -0.1433  0.2736
65783DOPC   C1B23044  18.283  23.049  17.690  0.0746 -0.1293 -0.0174
65783DOPC   D2B23045  18.036  23.334  17.688 -0.0898  0.2755 -0.0014
65783DOPC   C3B23046  18.121  23.816  17.725 -0.2756 -0.0650  0.2027
65783DOPC   C4B23047  18.290  24.114  17.489 -0.0746  0.2016 -0.1904
65784DOPC   NC323048   0.533  11.314  10.713  0.1171  0.2211 -0.1419
65784DOPC   PO423049   0.770  11.072  11.038  0.0354  0.3566 -0.3071
65784DOPC   GL123050   1.210  11.058  10.921 -0.0610  0.0210 -0.0683
65784DOPC   GL223051   1.369  11.425  10.994  0.1570  0.1665 -0.1014
65784DOPC   C1A23052   1.557  10.810  10.664 -0.0124 -0.0991  0.0045
65784DOPC   D2A23053   1.579  10.427  10.451 -0.2037 -0.0091  0.1828
65784DOPC   C3A23054   1.710  10.082  10.582 -0.1165  0.0295 -0.2364
65784DOPC   C4A23055   1.875   9.687  10.351  0.1277 -0.3022 -0.0139
65784DOPC   C1B23056   1.681  11.331  10.658  0.1201  0.3751  0.0893
65784DOPC   D2B23057   1.804  11.156  10.226 -0.0520  0.0001 -0.1687
65784DOPC   C3B23058   1.984  10.729  10.253 -0.0329  0.1572  0.0024
65784DOPC   C4B23059   2.047  10.460  10.558  0.0491 -0.0668  0.4749
65785DOPC   NC323060  12.156  26.089  22.185 -0.0434 -0.0138  0.0209
65785DOPC   PO423061  12.027  25.633  22.344 -0.0765  0.2103  0.0827
65785DOPC   GL123062  11.720  25.678  21.932 -0.1791 -0.0113 -0.0112
65785DOPC   GL223063  11.955  25.625  21.733  0.1071 -0.0066  0.1194
65785DOPC   C1A23064  11.465  25.392  21.739  0.0061 -0.3384  0.0976
65785DOPC   D2A23065  11.464  25.281  21.359  0.0025  0.0433  0.1998
65785DOPC   C3A23066  11.752  25.249  21.096  0.2281  0.1275  0.2420
65785DOPC   C4A23067  12.186  25.377  21.118  0.0795  0.0597  0.3230
65785DOPC   C1B23068  11.933  25.306  21.546  0.0958  0.1897 -0.0231
65785DOPC   D2B23069  11.870  24.838  21.235  0.0984  0.1104  0.2217
65785DOPC   C3B23070  11.992  24.838  20.870 -0.2319  0.0446  0.0166
65785DOPC   C4B23071  12.101  25.215  20.642 -0.3031 -0.0618  0.0614
65786DOPC   NC323072   7.556  17.605  18.182 -0.3547 -0.2373  0.0742
65786DOPC   PO423073   7.699  17.258  17.970 -0.3203  0.1208  0.0352
65786DOPC   GL123074   7.921  17.312  17.640 -0.1120 -0.1138  0.2240
65786DOPC   GL223075   7.671  17.464  17.396 -0.3187  0.5427 -0.0303
65786DOPC   C1A23076   8.046  17.738  17.391  0.1067  0.0737  0.2536
65786DOPC   D2A23077   8.182  18.036  17.031  0.0008 -0.3441 -0.1339
65786DOPC   C3A23078   8.114  18.402  16.831  0.0292 -0.0778 -0.2671
65786DOPC   C4A23079   8.499  18.666  16.830  0.0240  0.1025 -0.0544
65786DOPC   C1B23080   7.604  17.849  17.170  0.4873 -0.0504  0.1613
65786DOPC   D2B23081   7.671  18.195  16.918  0.1591 -0.0934  0.1709
65786DOPC   C3B23082   7.658  18.596  16.969  0.3160  0.0634  0.1378
65786DOPC   C4B23083   7.699  18.992  17.073 -0.2471  0.1768  0.0224
65787DOPC   NC323084   3.537  18.639  15.656 -0.0511 -0.2042 -0.1900
65787DOPC   PO423085   3.655  18.580  15.195 -0.0869  0.0101 -0.2126
65787DOPC   GL123086   3.954  18.572  14.853  0.3321 -0.1206 -0.1612
65787DOPC   GL223087   3.994  18.295  14.776  0.2426 -0.0758 -0.2909
65787DOPC   C1A23088   4.127  18.809  14.417  0.2528  0.0551  0.3784
65787DOPC   D2A23089   4.336  19.034  14.083 -0.1489  0.1937  0.0514
65787DOPC   C3A23090   4.775  18.955  13.957  0.3084  0.1747 -0.0162
65787DOPC   C4A23091   5.204  19.092  14.158 -0.2582 -0.3746  0.2259
65787DOPC   C1B23092   4.375  18.369  14.503 -0.0852 -0.1393 -0.2410
65787DOPC   D2B23093   4.680  18.735  14.386  0.4769  0.4336  0.0078
65787DOPC   C3B23094   4.959  18.968  14.737  0.3555  0.2490  0.2729
65787DOPC   C4B23095   5.427  18.978  14.737 -0.0143 -0.0741 -0.1046
65788DOPC   NC323096  14.848  24.939  21.878  0.1793 -0.0798 -0.0985
65788DOPC   PO423097  14.732  24.706  21.465 -0.0278 -0.0426 -0.2231
65788DOPC   GL123098  14.881  24.616  21.030  0.3051 -0.0243  0.1780
65788DOPC   GL223099  14.620  24.757  20.879 -0.2129 -0.4256 -0.0596
65788DOPC   C1A23100  14.953  24.437  20.679  0.0375 -0.2361  0.1340
65788DOPC   D2A23101  14.843  24.494  20.235  0.1192 -0.1570 -0.1169
65788DOPC   C3A23102  14.771  24.802  19.986  0.1410 -0.0643  0.1667
65788DOPC   C4A23103  14.464  24.870  19.646  0.1761  0.2329 -0.1686
65788DOPC   C1B23104  14.514  24.773  20.470 -0.2953  0.3957  0.0999
65788DOPC   D2B23105  14.322  24.649  20.129 -0.0393 -0.1941  0.2156
65788DOPC   C3B23106  14.534  24.370  19.806  0.0827  0.0067 -0.1753
65788DOPC   C4B23107  14.820  24.014  19.836  0.1261 -0.1272  0.3159
65789DOPC   NC323108  22.692   7.641  14.879 -0.0560  0.0660 -0.1991
65789DOPC   PO423109  22.560   7.605  14.469  0.0824 -0.0102 -0.2805
65789DOPC   GL123110  22.347   7.877  14.136  0.2788  0.2007  0.0845
65789DOPC   GL223111  22.585   7.795  13.929  0.1742  0.0149 -0.1986
65789DOPC   C1A23112  22.006   8.153  14.121 -0.0531  0.3211  0.1225
65789DOPC   D2A23113  21.775   8.221  13.751 -0.1935 -0.0205  0.0356
65789DOPC   C3A23114  21.616   8.190  13.399  0.0743 -0.0997 -0.0611
65789DOPC   C4A23115  21.360   8.042  13.079 -0.0278 -0.1777  0.0467
65789DOPC   C1B23116  22.239   7.496  13.840  0.1024  0.0890  0.0964
65789DOPC   D2B23117  21.959   7.216  13.773  0.1435  0.2636 -0.1326
65789DOPC   C3B23118  21.785   7.279  13.352  0.1324  0.4057 -0.1934
65789DOPC   C4B23119  21.668   7.047  13.027  0.0381 -0.1807 -0.0987
65790DOPC   NC323120  11.666   2.859  19.301  0.1389  0.1739 -0.1150
65790DOPC   PO423121  11.692   2.532  19.000 -0.0666  0.0267  0.3915
65790DOPC   GL123122  11.589   2.440  18.671  0.4694 -0.1621  0.1374
65790DOPC   GL223123  11.278   2.456  18.588 -0.1799  0.0041  0.1028
65790DOPC   C1A23124  11.643   2.034  18.455  0.0226  0.2502 -0.3363
65790DOPC   D2A23125  11.952   1.821  18.052 -0.1630 -0.1338  0.0882
65790DOPC   C3A23126  11.794   1.641  17.675  0.1144  0.3445 -0.1453
65790DOPC   C4A23127  11.514   1.754  17.272  0.2892 -0.0364  0.3653
65790DOPC   C1B23128  11.224   2.296  18.298  0.0349 -0.0500  0.3397
65790DOPC   D2B23129  10.936   2.060  18.019  0.0444  0.2633 -0.0016
65790DOPC   C3B23130  11.053   1.534  17.999  0.0257  0.0413  0.1445
65790DOPC   C4B23131  10.973   1.092  17.809 -0.2045  0.4508  0.0082
65791DOPC   NC323132   4.281  34.569  18.510 -0.1781  0.0590  0.2737
65791DOPC   PO423133   4.627  34.473  18.412 -0.0177 -0.1036  0.1194
65791DOPC   GL123134   4.957  34.533  18.074  0.1146  0.2178 -0.0173
65791DOPC   GL223135   5.147  34.301  18.363 -0.3783  0.1385 -0.0734
65791DOPC   C1A23136   5.224  34.515  17.834 -0.0797  0.0493  0.0755
65791DOPC   D2A23137   5.466  34.162  17.575  0.2862  0.1596 -0.5148
65791DOPC   C3A23138   5.904  33.940  17.584  0.0809 -0.1254  0.1418
65791DOPC   C4A23139   5.979  33.521  17.770  0.1625  0.2153  0.1085
65791DOPC   C1B23140   5.179  34.041  17.967  0.1073  0.2686 -0.0463
65791DOPC   D2B23141   5.502  33.678  17.857 -0.0132  0.1001  0.1194
65791DOPC   C3B23142   5.540  33.565  17.491 -0.2051  0.2880  0.0879
65791DOPC   C4B23143   5.605  33.214  17.135 -0.2101 -0.3569  0.1202
65792DOPC   NC323144  31.884  31.366  11.961  0.0182 -0.0541  0.2367
65792DOPC   PO423145  32.025  31.823  11.813 -0.1738  0.3928 -0.0147
65792DOPC   GL123146  32.260  31.966  11.474  0.0282 -0.2347 -0.1395
65792DOPC   GL223147  32.085  32.083  11.298 -0.2697  0.0633 -0.2224
65792DOPC   C1A23148  32.489  31.794  11.127  0.1945  0.2824 -0.2439
65792DOPC   D2A23149  32.737  31.540  10.934  0.1608  0.4649  0.1153
65792DOPC   C3A23150  32.786  31.695  10.549 -0.3072  0.1841  0.1741
65792DOPC   C4A23151  32.880  31.866  10.268 -0.0663 -0.1660  0.0561
65792DOPC   C1B23152  32.102  32.113  10.889  0.0070 -0.3996  0.2059
65792DOPC   D2B23153  31.946  32.370  10.605  0.2073 -0.0481  0.4782
65792DOPC   C3B23154  31.996  32.377  10.081 -0.1677 -0.0503 -0.0012
65792DOPC   C4B23155  32.072  32.314   9.702 -0.0465 -0.1019  0.2505
65793DOPC   NC323156   3.601  13.681  14.608  0.2163 -0.1299  0.2110
65793DOPC   PO423157   3.139  13.679  14.381 -0.0303 -0.2712  0.2426
65793DOPC   GL123158   3.496  13.589  14.093 -0.0727  0.0437  0.0618
65793DOPC   GL223159   3.832  13.621  14.129  0.2710  0.0537  0.4069
65793DOPC   C1A23160   3.459  13.259  13.660  0.1407  0.0165  0.4079
65793DOPC   D2A23161   3.585  13.282  13.249 -0.2042  0.1695 -0.1600
65793DOPC   C3A23162   3.932  13.266  13.026  0.0478 -0.0741  0.3726
65793DOPC   C4A23163   4.219  13.412  12.779 -0.1187 -0.1990  0.0067
65793DOPC   C1B23164   4.110  13.861  13.910  0.3623  0.0080  0.2195
65793DOPC   D2B23165   4.089  14.133  13.514 -0.1774 -0.0955  0.2201
65793DOPC   C3B23166   4.550  14.272  13.300 -0.2224  0.0385 -0.0404
65793DOPC   C4B23167   4.832  14.054  13.258 -0.1469  0.5105 -0.1223
65794DOPC   NC323168   5.498  17.951  17.521 -0.2024 -0.0655  0.0128
65794DOPC   PO423169   5.722  17.706  17.739  0.0175  0.1147  0.0719
65794DOPC   GL123170   5.999  17.800  17.481  0.0096  0.0632  0.2232
65794DOPC   GL223171   6.104  17.486  17.454  0.1064 -0.0948 -0.1205
65794DOPC   C1A23172   6.139  17.853  17.093  0.0744  0.1146  0.1069
65794DOPC   D2A23173   6.027  17.961  16.633  0.3260 -0.3120 -0.1217
65794DOPC   C3A23174   5.766  17.799  16.506 -0.1396  0.1152 -0.1546
65794DOPC   C4A23175   5.562  17.609  16.807 -0.3351  0.0451  0.0474
65794DOPC   C1B23176   5.901  17.298  17.050  0.3189 -0.0577 -0.0541
65794DOPC   D2B23177   5.885  17.095  16.602  0.3833  0.1254 -0.0969
65794DOPC   C3B23178   6.244  17.033  16.280  0.0695  0.3211 -0.1257
65794DOPC   C4B23179   6.605  17.341  16.238 -0.1729  0.0204  0.1191
65795DOPC   NC323180   3.414  27.550  18.103 -0.1934 -0.1588 -0.0027
65795DOPC   PO423181   3.680  27.444  18.467  0.2122 -0.1373  0.0398
65795DOPC   GL123182   3.884  27.408  18.091  0.2151 -0.2091 -0.0562
65795DOPC   GL223183   3.980  27.530  17.868 -0.1714 -0.0621 -0.1878
65795DOPC   C1A23184   4.095  27.038  17.835 -0.0636  0.3156  0.2564
65795DOPC   D2A23185   4.436  26.802  17.778 -0.2011 -0.1767  0.2517
65795DOPC   C3A23186   4.656  26.608  17.425 -0.2434  0.0373 -0.2692
65795DOPC   C4A23187   5.116  26.397  17.276  0.3044  0.1110  0.0341
65795DOPC   C1B23188   4.279  27.594  17.648  0.0429 -0.1323  0.0038
65795DOPC   D2B23189   4.411  27.578  17.168  0.0351  0.0235 -0.2752
65795DOPC   C3B23190   4.719  27.210  17.139  0.0462 -0.1567 -0.0575
65795DOPC   C4B23191   4.876  26.801  17.022 -0.2496  0.2211  0.3492
65796DOPC   NC323192  11.406   2.283  19.271  0.3272 -0.1888  0.2138
65796DOPC   PO423193  11.082   2.060  19.577  0.0782  0.2781 -0.0947
65796DOPC   GL123194  11.076   1.845  19.124  0.0732  0.2885 -0.1716
65796DOPC   GL223195  11.197   2.038  18.864 -0.0421  0.0726  0.5755
65796DOPC   C1A23196  11.064   1.455  18.845 -0.1572  0.0343 -0.1608
65796DOPC   D2A23197  10.956   1.253  18.498  0.1641 -0.0361 -0.0523
65796DOPC   C3A23198  11.217   1.068  18.292  0.0384 -0.1680  0.0449
65796DOPC   C4A23199  11.661   0.910  18.219 -0.0042  0.1921  0.0325
65796DOPC   C1B23200  11.166   1.837  18.423  0.0347 -0.0609  0.2897
65796DOPC   D2B23201  11.475   1.966  17.993  0.0144  0.2579 -0.1085
65796DOPC   C3B23202  11.266   1.882  17.694  0.3094 -0.0070  0.0702
65796DOPC   C4B23203  10.801   1.906  17.542  0.1273  0.1057  0.0352
65797DOPC   NC323204   1.977  24.623  16.343  0.0762  0.3087  0.0152
65797DOPC   PO423205   2.067  24.770  15.898  0.1784 -0.1706 -0.2728
65797DOPC   GL123206   2.057  25.104  15.741  0.1407  0.1964  0.3496
65797DOPC   GL223207   2.374  25.132  15.659 -0.0098  0.0882  0.2547
65797DOPC   C1A23208   2.003  25.489  15.446 -0.0708  0.0771 -0.0523
65797DOPC   D2A23209   1.986  25.859  15.363 -0.1895  0.0621 -0.1523
65797DOPC   C3A23210   2.187  26.178  15.184  0.1178  0.0647  0.2944
65797DOPC   C4A23211   2.217  26.557  14.963  0.2381  0.2521 -0.3065
65797DOPC   C1B23212   2.471  25.491  15.477 -0.0591 -0.1918  0.0571
65797DOPC   D2B23213   2.458  25.790  15.247 -0.0120 -0.1465 -0.1274
65797DOPC   C3B23214   2.821  25.949  15.131 -0.4647 -0.0235  0.1148
65797DOPC   C4B23215   3.132  26.154  15.036 -0.0919 -0.0653  0.3011
65798DOPC   NC323216  30.471  15.221   4.917  0.2100  0.2016 -0.2106
65798DOPC   PO423217  30.427  15.208   4.438  0.3797 -0.2080  0.1574
65798DOPC   GL123218  30.507  15.186   4.046 -0.0060 -0.0807  0.0868
65798DOPC   GL223219  30.216  15.209   3.913 -0.1633 -0.1377  0.1191
65798DOPC   C1A23220  30.676  15.058   3.680 -0.2981  0.3177 -0.0632
65798DOPC   D2A23221  30.852  14.727   3.400  0.0376 -0.1614  0.0520
65798DOPC   C3A23222  31.114  14.704   3.152 -0.0872 -0.1863 -0.0092
65798DOPC   C4A23223  31.379  14.490   2.865  0.1539  0.2501 -0.4904
65798DOPC   C1B23224  30.210  14.987   3.527  0.1418 -0.0887  0.0192
65798DOPC   D2B23225  30.318  14.839   3.158 -0.0993  0.2584  0.1836
65798DOPC   C3B23226  30.249  15.100   2.794  0.0680  0.1884 -0.1257
65798DOPC   C4B23227  29.932  15.390   2.679 -0.0699 -0.3004  0.0854
65799DOPC   NC323228  22.837   5.259  14.642 -0.3737 -0.0037 -0.2723
65799DOPC   PO423229  22.563   4.914  14.898 -0.2567 -0.0444  0.1224
65799DOPC   GL123230  22.380   5.106  14.473 -0.0804  0.0176 -0.2554
65799DOPC   GL223231  22.461   5.374  14.296  0.0509 -0.0615  0.0368
65799DOPC   C1A23232  21.991   5.050  14.201 -0.0374 -0.0736 -0.2577
65799DOPC   D2A23233  21.736   4.865  14.007  0.0293 -0.0679  0.2604
65799DOPC   C3A23234  21.800   4.907  13.575  0.0004 -0.1818  0.1004
65799DOPC   C4A23235  21.924   4.868  13.225 -0.3401 -0.3671  0.0575
65799DOPC   C1B23236  22.427   5.105  13.981 -0.2659  0.1308  0.1904
65799DOPC   D2B23237  22.210   4.813  13.850  0.2274 -0.2218  0.2429
65799DOPC   C3B23238  22.264   4.371  13.670 -0.2945  0.2029 -0.1649
65799DOPC   C4B23239  22.520   4.044  13.906  0.0900 -0.0820 -0.1273
65800DOPC   NC323240   4.947   1.806  18.089  0.0377 -0.4151  0.0503
65800DOPC   PO423241   4.966   2.074  17.763  0.1204  0.0357 -0.2005
65800DOPC   GL123242   5.160   1.899  17.526  0.0615  0.0022  0.2351
65800DOPC   GL223243   5.239   1.577  17.671  0.1287  0.0255  0.0851
65800DOPC   C1A23244   5.533   2.073  17.211  0.3849 -0.0741 -0.0714
65800DOPC   D2A23245   5.732   2.254  16.878 -0.1623 -0.0129 -0.0826
65800DOPC   C3A23246   5.770   2.660  16.799 -0.0288  0.0894  0.3283
65800DOPC   C4A23247   5.858   3.187  16.653  0.0032 -0.0966  0.0074
65800DOPC   C1B23248   5.367   1.540  17.217  0.0824 -0.0208 -0.1138
65800DOPC   D2B23249   5.223   1.354  16.933 -0.0993 -0.2936 -0.2781
65800DOPC   C3B23250   5.324   1.221  16.418 -0.1167  0.1574 -0.2539
65800DOPC   C4B23251   5.493   1.489  16.111  0.0068  0.1817 -0.2303
65801DOPC   NC323252  21.299  21.247  16.504 -0.1246  0.3049  0.4044
65801DOPC   PO423253  20.961  21.027  16.345  0.0124 -0.0941  0.1403
65801DOPC   GL123254  20.797  21.077  15.910 -0.0029 -0.1260 -0.1452
65801DOPC   GL223255  20.974  20.857  15.682  0.1640  0.0524 -0.0207
65801DOPC   C1A23256  20.387  21.197  15.722 -0.2535  0.2852  0.0174
65801DOPC   D2A23257  19.927  21.136  15.492  0.0084 -0.1539  0.3312
65801DOPC   C3A23258  19.693  21.264  15.093 -0.1876  0.0622 -0.1229
65801DOPC   C4A23259  19.471  21.437  14.758  0.0302 -0.1133 -0.1769
65801DOPC   C1B23260  20.570  20.544  15.569  0.0562  0.2398  0.2164
65801DOPC   D2B23261  20.159  20.597  15.269  0.3105 -0.2924  0.2397
65801DOPC   C3B23262  19.917  20.858  15.018 -0.1684  0.0019 -0.0161
65801DOPC   C4B23263  19.992  21.129  14.692 -0.1101  0.1362 -0.2185
65802DOPC   NC323264   0.204   1.371  14.010 -0.2693  0.2254  0.0658
65802DOPC   PO423265   0.354   1.031  14.196 -0.2861 -0.0049  0.2256
65802DOPC   GL123266   0.648   1.010  13.887 -0.0507 -0.1861 -0.2069
65802DOPC   GL223267   0.746   1.303  13.813 -0.0251 -0.0499  0.2580
65802DOPC   C1A23268   0.836   0.913  13.505  0.0595 -0.0787 -0.0836
65802DOPC   D2A23269   1.205   0.941  13.317 -0.0154  0.0312  0.0408
65802DOPC   C3A23270   1.293   0.705  13.006  0.2441  0.0271  0.0472
65802DOPC   C4A23271   1.470   0.209  12.889 -0.0694  0.0214  0.0845
65802DOPC   C1B23272   1.179   1.101  13.798 -0.0983  0.0937  0.0185
65802DOPC   D2B23273   1.263   0.661  13.854  0.1539  0.0141  0.0339
65802DOPC   C3B23274   1.428   0.537  13.457 -0.1965  0.2524 -0.0252
65802DOPC   C4B23275   1.795   0.391  13.261  0.2576 -0.0835  0.1784
65803DOPC   NC323276  33.278   5.524  11.259  0.4281 -0.3167  0.3582
65803DOPC   PO423277  33.177   5.176  11.148 -0.0301  0.0063 -0.0436
65803DOPC   GL123278  33.048   4.869  10.753 -0.1960  0.3170  0.0072
65803DOPC   GL223279  32.720   4.670  10.737  0.1506  0.0112  0.1174
65803DOPC   C1A23280  33.151   4.639  10.414 -0.0643 -0.1761  0.0058
65803DOPC   D2A23281  33.437   4.524  10.198  0.3367 -0.1305 -0.1842
65803DOPC   C3A23282  33.329   4.308   9.734  0.0761 -0.0480  0.2105
65803DOPC   C4A23283  33.342   4.030   9.433 -0.1318  0.0429  0.0922
65803DOPC   C1B23284  32.589   4.604  10.350  0.0704 -0.1310  0.0689
65803DOPC   D2B23285  32.314   4.729  10.060  0.3857 -0.0206  0.3232
65803DOPC   C3B23286  32.512   4.610   9.610  0.0429  0.0559  0.4191
65803DOPC   C4B23287  32.590   4.484   9.071  0.2962  0.3496 -0.0760
65804DOPC   NC323288  17.012  32.556  18.537  0.3057  0.0805 -0.0240
65804DOPC   PO423289  16.626  32.279  18.576 -0.2515 -0.1838  0.2254
65804DOPC   GL123290  16.214  32.310  18.419  0.0721 -0.0562  0.3265
65804DOPC   GL223291  16.189  31.908  18.452  0.1356 -0.1587 -0.0617
65804DOPC   C1A23292  15.732  32.122  18.416 -0.0924  0.2315  0.0322
65804DOPC   D2A23293  15.386  32.364  18.467  0.0473  0.0884  0.0179
65804DOPC   C3A23294  15.331  32.825  18.507  0.1135 -0.0682 -0.2147
65804DOPC   C4A23295  15.638  33.140  18.318 -0.1932 -0.2765 -0.0780
65804DOPC   C1B23296  15.890  31.634  18.252 -0.0076  0.0590 -0.3112
65804DOPC   D2B23297  15.744  31.252  18.491 -0.1047  0.0525 -0.0267
65804DOPC   C3B23298  15.526  31.019  18.234  0.0899 -0.2926  0.1049
65804DOPC   C4B23299  15.401  30.866  17.952 -0.2631  0.2726 -0.0019
65805DOPC   NC323300   5.732  19.806  19.166  0.1354  0.0431 -0.2357
65805DOPC   PO423301   5.655  19.658  18.725 -0.1915 -0.3227 -0.0626
65805DOPC   GL123302   6.027  19.841  18.579  0.0721 -0.0727 -0.0152
65805DOPC   GL223303   5.901  20.111  18.770  0.0936 -0.1735 -0.0233
65805DOPC   C1A23304   6.227  19.973  18.269  0.3140 -0.1407  0.0397
65805DOPC   D2A23305   6.484  20.271  18.098  0.1586 -0.1682 -0.0159
65805DOPC   C3A23306   6.502  20.576  18.357 -0.0112  0.1768  0.2894
65805DOPC   C4A23307   6.511  20.825  18.632  0.2040 -0.3535  0.0203
65805DOPC   C1B23308   6.064  20.598  18.774 -0.0294  0.1283 -0.0608
65805DOPC   D2B23309   6.167  21.085  18.877 -0.1052 -0.0610 -0.1806
65805DOPC   C3B23310   6.113  21.418  18.551 -0.1250  0.0523  0.0829
65805DOPC   C4B23311   6.426  21.605  18.198 -0.0751 -0.2477 -0.0058
65806DOPC   NC323312  17.517  34.724  16.386 -0.1229 -0.0280 -0.1860
65806DOPC   PO423313  17.138  34.973  16.374 -0.1665  0.1395  0.0232
65806DOPC   GL123314  17.008  34.558  16.179  0.0923  0.0704 -0.0169
65806DOPC   GL223315  16.828  34.389  16.351  0.1954  0.2324 -0.2392
65806DOPC   C1A23316  17.033  34.204  15.856 -0.0552 -0.3168  0.1386
65806DOPC   D2A23317  16.790  33.961  15.701 -0.2124 -0.0991  0.1740
65806DOPC   C3A23318  16.636  33.708  15.376  0.2022 -0.0467  0.3042
65806DOPC   C4A23319  16.796  33.873  14.989 -0.2478 -0.0037 -0.2067
65806DOPC   C1B23320  16.454  34.177  16.080 -0.0796  0.0239  0.0332
65806DOPC   D2B23321  16.087  33.989  16.193  0.0392  0.1046  0.0025
65806DOPC   C3B23322  15.552  34.057  16.201 -0.0062  0.0972  0.0938
65806DOPC   C4B23323  15.144  33.852  16.003 -0.2087  0.2616 -0.0548
65807DOPC   NC323324   0.480  23.016  10.563 -0.1441  0.0434 -0.0965
65807DOPC   PO423325   0.687  22.761  10.109  0.1624  0.1875 -0.2757
65807DOPC   GL123326   1.162  22.837   9.961  0.1286  0.0510  0.0558
65807DOPC   GL223327   1.455  22.775  10.217  0.0681 -0.0751 -0.0544
65807DOPC   C1A23328   1.239  23.227   9.618 -0.0252  0.2593  0.0651
65807DOPC   D2A23329   1.634  23.534   9.568 -0.1592  0.0472 -0.1049
65807DOPC   C3A23330   1.872  23.906   9.577 -0.4092 -0.1621  0.0451
65807DOPC   C4A23331   1.913  24.422   9.441 -0.0624 -0.1370  0.3881
65807DOPC   C1B23332   1.488  23.209  10.118 -0.3196  0.2974 -0.2162
65807DOPC   D2B23333   1.814  23.478  10.004  0.0546  0.2451 -0.1618
65807DOPC   C3B23334   2.013  23.911  10.029 -0.1954 -0.0052 -0.1648
65807DOPC   C4B23335   2.160  24.340  10.120  0.1024  0.0611  0.3141
65808DOPC   NC323336  34.702  10.987   8.628  0.1130 -0.1119  0.2239
65808DOPC   PO423337  34.827  10.984   9.040  0.1819 -0.3239  0.1134
65808DOPC   GL123338  35.050  10.658   8.731 -0.0091  0.2559  0.3120
65808DOPC   GL223339  35.149  10.396   8.811 -0.1903  0.0013 -0.1782
65808DOPC   C1A23340  35.298  10.571   8.324  0.2266  0.1429  0.2212
65808DOPC   D2A23341   0.191  10.294   8.035 -0.0673  0.1398  0.1652
65808DOPC   C3A23342   0.234  10.147   7.591 -0.0317  0.1984  0.1110
65808DOPC   C4A23343   0.214   9.872   7.303 -0.2022 -0.2404  0.0380
65808DOPC   C1B23344   0.046  10.115   8.666  0.0020  0.0515  0.0973
65808DOPC   D2B23345   0.370  10.019   8.442  0.2933  0.1400 -0.1380
65808DOPC   C3B23346   0.668  10.220   8.175 -0.3116 -0.1119  0.1013
65808DOPC   C4B23347   0.859  10.298   7.740 -0.1635 -0.0586 -0.2356
65809DOPC   NC323348  16.158  14.252  18.643 -0.0582  0.1824 -0.0348
65809DOPC   PO423349  15.882  13.916  18.716  0.3632  0.0024  0.1713
65809DOPC   GL123350  15.807  13.845  18.342 -0.1651  0.0824 -0.2244
65809DOPC   GL223351  16.171  13.962  18.170 -0.2025  0.0216 -0.2640
65809DOPC   C1A23352  15.809  13.603  17.914  0.2145  0.0224  0.3081
65809DOPC   D2A23353  15.515  13.468  17.516 -0.3041 -0.1937  0.2038
65809DOPC   C3A23354  15.470  13.141  17.160  0.3154  0.3705 -0.1862
65809DOPC   C4A23355  15.332  12.770  17.093 -0.0628  0.2683  0.2508
65809DOPC   C1B23356  16.046  14.167  17.901  0.4204  0.0346 -0.2892
65809DOPC   D2B23357  15.740  14.249  17.751  0.1696  0.0366 -0.0684
65809DOPC   C3B23358  15.538  13.973  17.407 -0.1705  0.0268 -0.0822
65809DOPC   C4B23359  15.435  13.884  17.067 -0.0138 -0.1803 -0.1725
65810DOPC   NC323360   0.198   1.906  14.523 -0.0381 -0.0675  0.0123
65810DOPC   PO423361   0.394   1.799  14.111  0.0282 -0.0128  0.1177
65810DOPC   GL123362   0.783   1.867  14.033 -0.1270 -0.1047 -0.0340
65810DOPC   GL223363   1.097   2.020  14.092 -0.2913  0.2653 -0.2191
65810DOPC   C1A23364   1.210   1.537  14.083  0.0666  0.0619 -0.0238
65810DOPC   D2A23365   1.565   1.510  13.881 -0.1461  0.0958  0.1480
65810DOPC   C3A23366   1.696   1.230  13.636 -0.1245 -0.0723  0.5120
65810DOPC   C4A23367   1.719   0.863  13.622  0.1584 -0.7382 -0.2230
65810DOPC   C1B23368   1.256   2.045  13.758  0.0251 -0.2124  0.1683
65810DOPC   D2B23369   1.302   2.001  13.420  0.1641 -0.1952  0.0427
65810DOPC   C3B23370   1.449   2.352  13.073 -0.2315 -0.2174  0.0961
65810DOPC   C4B23371   1.310   2.420  12.614  0.0506 -0.1345 -0.2537
65811DOPC   NC323372  17.857  21.111  19.793  0.1431 -0.1858  0.0619
65811DOPC   PO423373  17.885  20.839  19.411  0.0059  0.2404 -0.0216
65811DOPC   GL123374  17.632  20.606  19.056  0.0754 -0.3781 -0.1081
65811DOPC   GL223375  17.471  20.377  18.929  0.1127 -0.0309 -0.0533
65811DOPC   C1A23376  17.182  20.820  19.178  0.1108  0.3979  0.1994
65811DOPC   D2A23377  17.047  21.089  19.010 -0.1683 -0.3898  0.2070
65811DOPC   C3A23378  16.545  21.189  18.903 -0.0961  0.0416  0.0038
65811DOPC   C4A23379  16.222  21.170  18.683 -0.1033  0.0866  0.1557
65811DOPC   C1B23380  17.239  20.582  18.687 -0.2306  0.1233 -0.0366
65811DOPC   D2B23381  17.089  20.937  18.498  0.1798 -0.1641  0.0913
65811DOPC   C3B23382  17.358  21.343  18.382  0.0997  0.0912 -0.3300
65811DOPC   C4B23383  17.622  21.445  18.058  0.1282  0.0077  0.0243
65812DOPC   NC323384   6.108  18.785  18.420 -0.2702 -0.0290  0.4056
65812DOPC   PO423385   5.765  19.058  18.135  0.3378 -0.0319 -0.1962
65812DOPC   GL123386   6.189  19.126  18.000 -0.2082 -0.0687 -0.2277
65812DOPC   GL223387   6.244  18.925  17.634  0.0297  0.0385  0.2180
65812DOPC   C1A23388   6.420  19.592  17.886  0.0312  0.1024 -0.1675
65812DOPC   D2A23389   6.749  19.873  17.783 -0.3501  0.1450 -0.3329
65812DOPC   C3A23390   6.778  20.203  17.621  0.1659 -0.1888  0.1747
65812DOPC   C4A23391   6.955  20.570  17.905 -0.5226 -0.0392 -0.2133
65812DOPC   C1B23392   6.608  19.041  17.364  0.0276 -0.2739 -0.1708
65812DOPC   D2B23393   6.941  19.177  17.162  0.2927 -0.2146 -0.2111
65812DOPC   C3B23394   7.297  19.299  17.151  0.1049  0.1435  0.3723
65812DOPC   C4B23395   7.539  19.436  17.460 -0.4209 -0.2592  0.3413
65813DOPC   NC323396  15.844  29.208  20.616  0.0975 -0.1496  0.3077
65813DOPC   PO423397  15.376  29.229  20.427 -0.0092 -0.1525 -0.0572
65813DOPC   GL123398  15.429  29.087  19.948 -0.0968 -0.0845  0.0719
65813DOPC   GL223399  15.604  28.989  19.674 -0.1100 -0.1388  0.1844
65813DOPC   C1A23400  15.165  29.250  19.608 -0.0460 -0.1665  0.4212
65813DOPC   D2A23401  15.109  29.055  19.184 -0.0346  0.3999  0.2410
65813DOPC   C3A23402  14.856  28.784  19.108  0.1095  0.0026 -0.0746
65813DOPC   C4A23403  14.512  28.771  18.972 -0.3036  0.0044  0.1334
65813DOPC   C1B23404  15.588  29.120  19.338  0.0133 -0.2925 -0.1325
65813DOPC   D2B23405  15.570  29.119  18.823 -0.0254 -0.1223  0.4012
65813DOPC   C3B23406  15.826  29.331  18.515  0.2398 -0.1171 -0.1302
65813DOPC   C4B23407  15.767  29.175  18.147  0.0133  0.0812  0.1732
65814DOPC   NC323408  25.432  21.496   8.963  0.0425  0.2042  0.1494
65814DOPC   PO423409  25.104  21.512   8.793 -0.1782 -0.0615 -0.2300
65814DOPC   GL123410  24.603  21.373   8.550 -0.1105 -0.0703  0.3564
65814DOPC   GL223411  24.324  21.317   8.759 -0.0304 -0.2536  0.4026
65814DOPC   C1A23412  24.372  21.704   8.345  0.1607 -0.0797  0.0733
65814DOPC   D2A23413  24.273  21.849   7.965  0.1878 -0.2814 -0.3489
65814DOPC   C3A23414  23.972  21.961   7.694 -0.0818 -0.1476  0.2271
65814DOPC   C4A23415  23.606  22.127   7.481 -0.1898  0.1838 -0.1038
65814DOPC   C1B23416  23.970  21.489   8.543  0.1166 -0.0104  0.1125
65814DOPC   D2B23417  23.494  21.456   8.353  0.0855  0.0352 -0.0269
65814DOPC   C3B23418  23.050  21.276   8.446  0.1693  0.0289 -0.1619
65814DOPC   C4B23419  22.797  21.064   8.160 -0.0239  0.0447 -0.0125
65815DOPC   NC323420  30.150   4.027  10.926 -0.2902 -0.0004 -0.1087
65815DOPC   PO423421  30.463   4.445  10.868  0.0662 -0.0158  0.1125
65815DOPC   GL123422  30.258   4.331  10.486 -0.3637  0.0586 -0.3208
65815DOPC   GL223423  29.956   4.411  10.263  0.0291 -0.0043  0.0080
65815DOPC   C1A23424  30.310   4.039  10.120 -0.0939  0.0125 -0.3709
65815DOPC   D2A23425  30.377   3.907   9.681 -0.3039 -0.1332 -0.1290
65815DOPC   C3A23426  30.404   3.591   9.363  0.1335  0.1873  0.0724
65815DOPC   C4A23427  30.247   3.132   9.384  0.3580 -0.2725  0.1640
65815DOPC   C1B23428  29.734   4.174   9.935  0.0706  0.2626 -0.6786
65815DOPC   D2B23429  29.618   3.794   9.787  0.0004 -0.1032  0.0993
65815DOPC   C3B23430  29.947   3.736   9.556  0.0751 -0.0304  0.1923
65815DOPC   C4B23431  29.998   3.511   9.118  0.1099  0.1974  0.2702
65816DOPC   NC323432  24.492  17.208   8.454 -0.1328 -0.1291  0.1718
65816DOPC   PO423433  24.446  17.429   8.179  0.2497  0.0592 -0.1178
65816DOPC   GL123434  23.990  17.448   8.222 -0.0504  0.0496  0.2630
65816DOPC   GL223435  23.899  17.713   8.058  0.1471  0.0342  0.4536
65816DOPC   C1A23436  23.577  17.268   8.188 -0.1057 -0.1281 -0.2638
65816DOPC   D2A23437  23.210  17.370   8.194  0.1688  0.0188  0.0097
65816DOPC   C3A23438  22.781  17.276   8.151 -0.3849 -0.0618  0.0420
65816DOPC   C4A23439  22.387  17.136   7.914 -0.0796  0.0827 -0.0639
65816DOPC   C1B23440  23.379  17.817   8.114  0.0928  0.1707  0.0647
65816DOPC   D2B23441  22.979  17.888   8.074  0.0621  0.1030  0.0539
65816DOPC   C3B23442  22.674  18.198   8.197 -0.1020  0.2274 -0.1671
65816DOPC   C4B23443  22.496  18.451   8.069  0.0951  0.2950  0.1774
65817DOPC   NC323444  20.098  28.618  16.470 -0.0381 -0.1517 -0.0222
65817DOPC   PO423445  20.353  28.333  16.451  0.1979  0.0039  0.0478
65817DOPC   GL123446  20.027  28.047  16.304 -0.0012  0.2504 -0.1542
65817DOPC   GL223447  19.758  28.182  16.282  0.5142 -0.2068 -0.1209
65817DOPC   C1A23448  19.742  27.661  16.396 -0.0326  0.1557 -0.2245
65817DOPC   D2A23449  19.823  27.227  16.677  0.1996  0.1468 -0.0269
65817DOPC   C3A23450  19.559  26.981  16.573 -0.0278  0.0621 -0.2439
65817DOPC   C4A23451  19.336  26.690  16.776 -0.1861  0.2999  0.0961
65817DOPC   C1B23452  19.327  27.953  16.251  0.2762  0.0087 -0.1016
65817DOPC   D2B23453  18.920  27.700  16.125 -0.1424  0.2914  0.4001
65817DOPC   C3B23454  18.750  27.376  16.400  0.4473  0.3229 -0.0201
65817DOPC   C4B23455  18.903  27.152  16.696 -0.2811 -0.1000 -0.2397
65818DOPC   NC323456  33.446   8.041  10.747  0.0167  0.0315 -0.0417
65818DOPC   PO423457  33.483   8.205  10.304  0.3889 -0.0806 -0.0094
65818DOPC   GL123458  33.721   8.184   9.953  0.0511  0.1054  0.2079
65818DOPC   GL223459  33.594   8.250   9.676  0.0029 -0.1191 -0.2381
65818DOPC   C1A23460  33.882   7.842   9.629  0.0263 -0.0725  0.2390
65818DOPC   D2A23461  34.132   7.599   9.377 -0.1202  0.0392 -0.1378
65818DOPC   C3A23462  34.251   7.500   8.979 -0.1303  0.2979  0.0794
65818DOPC   C4A23463  34.508   7.159   8.684  0.2138 -0.0025  0.2548
65818DOPC   C1B23464  33.987   8.251   9.344 -0.1277  0.0272  0.1113
65818DOPC   D2B23465  34.071   8.027   9.058  0.2412 -0.0829  0.2451
65818DOPC   C3B23466  34.307   7.996   8.772  0.3498 -0.3273  0.0716
65818DOPC   C4B23467  34.718   8.084   8.705  0.2994  0.3265 -0.1324
65819DOPC   NC323468  15.451  27.642  21.001  0.1779  0.2298  0.1403
65819DOPC   PO423469  15.810  27.371  21.095 -0.1453 -0.0081 -0.3049
65819DOPC   GL123470  15.679  27.026  20.797  0.1345 -0.5664 -0.1696
65819DOPC   GL223471  15.294  27.052  20.666 -0.0490 -0.0409  0.0217
65819DOPC   C1A23472  15.843  26.865  20.351 -0.3709 -0.3216 -0.0829
65819DOPC   D2A23473  15.780  26.634  19.963  0.1035  0.1066 -0.1007
65819DOPC   C3A23474  15.498  26.650  19.707  0.0735  0.1697 -0.0908
65819DOPC   C4A23475  15.321  26.532  19.379 -0.0679 -0.1126  0.0047
65819DOPC   C1B23476  15.125  27.293  20.356  0.0198  0.0510 -0.0877
65819DOPC   D2B23477  14.976  27.687  20.300 -0.1902 -0.1631  0.0167
65819DOPC   C3B23478  14.794  27.863  19.897  0.0962 -0.1107  0.0409
65819DOPC   C4B23479  14.866  27.688  19.479  0.1605 -0.0812  0.0356
65820DOPC   NC323480   0.571  12.045  10.802 -0.2334 -0.2264  0.0720
65820DOPC   PO423481   0.880  12.036  10.607  0.4559  0.2506  0.4595
65820DOPC   GL123482   1.149  11.670  10.441 -0.1864  0.3687 -0.2618
65820DOPC   GL223483   1.027  11.427  10.582 -0.1463  0.0844  0.0941
65820DOPC   C1A23484   1.452  11.587  10.185 -0.1515  0.0813 -0.1879
65820DOPC   D2A23485   1.736  11.610   9.974 -0.0388  0.1392  0.0960
65820DOPC   C3A23486   2.005  11.285   9.835  0.0809  0.0964 -0.0683
65820DOPC   C4A23487   2.253  10.931   9.938  0.1621 -0.2379 -0.0972
65820DOPC   C1B23488   1.284  11.148  10.317 -0.1541  0.1991 -0.3406
65820DOPC   D2B23489   1.385  10.751  10.195 -0.1633  0.3282  0.0991
65820DOPC   C3B23490   1.567  10.529   9.913  0.2290  0.0599  0.1391
65820DOPC   C4B23491   1.827  10.276  10.039  0.0881 -0.0048 -0.0901
65821DOPC   NC323492  11.985   7.066  18.680 -0.0229 -0.0492 -0.0626
65821DOPC   PO423493  12.035   7.462  18.926  0.0877 -0.0622 -0.0829
65821DOPC   GL123494  11.923   7.774  18.665  0.0245 -0.0373  0.0222
65821DOPC   GL223495  12.032   7.682  18.367 -0.2547  0.3609  0.1266
65821DOPC   C1A23496  12.066   8.132  18.525 -0.2784  0.2390 -0.2500
65821DOPC   D2A23497  11.682   8.350  18.287  0.0695 -0.0158  0.3608
65821DOPC   C3A23498  11.502   8.346  17.868 -0.0675  0.2262 -0.1503
65821DOPC   C4A23499  11.338   8.416  17.436 -0.1362 -0.2350 -0.0267
65821DOPC   C1B23500  12.234   7.587  17.986 -0.3912  0.1575  0.1047
65821DOPC   D2B23501  12.343   7.672  17.572  0.0547  0.1040  0.0328
65821DOPC   C3B23502  12.054   7.384  17.375  0.0946 -0.0757 -0.1222
65821DOPC   C4B23503  11.739   7.223  17.154  0.0635 -0.2690 -0.0116
65822DOPC   NC323504  18.207   4.090  16.153 -0.0078  0.1766 -0.1089
65822DOPC   PO423505  18.507   4.449  16.392 -0.1503 -0.1782  0.0791
65822DOPC   GL123506  18.416   4.599  16.029 -0.1049 -0.0141  0.0499
65822DOPC   GL223507  18.233   4.854  15.968 -0.1533  0.1274 -0.1541
65822DOPC   C1A23508  18.388   4.473  15.604 -0.1278 -0.0099  0.1254
65822DOPC   D2A23509  18.283   4.470  15.276 -0.0544 -0.1777  0.1230
65822DOPC   C3A23510  18.283   4.718  15.042 -0.1136  0.0113  0.3164
65822DOPC   C4A23511  18.606   4.902  14.808  0.1275 -0.0031  0.0552
65822DOPC   C1B23512  18.207   4.906  15.473  0.0678  0.0626 -0.2790
65822DOPC   D2B23513  18.064   5.206  15.125 -0.2835 -0.0344  0.0392
65822DOPC   C3B23514  17.940   5.596  15.237 -0.0056  0.2226  0.0380
65822DOPC   C4B23515  17.941   5.969  15.005  0.0924  0.0715  0.0228
65823DOPC   NC323516  22.021   4.831  15.007  0.2103 -0.0789 -0.2616
65823DOPC   PO423517  21.591   4.751  15.053  0.0650 -0.0716  0.0256
65823DOPC   GL123518  21.325   4.921  14.781 -0.1107 -0.1642 -0.0660
65823DOPC   GL223519  21.215   5.193  14.775  0.0280  0.1041 -0.2075
65823DOPC   C1A23520  20.906   4.855  14.602  0.2117 -0.2325 -0.2003
65823DOPC   D2A23521  20.683   5.032  14.516  0.3482  0.0860  0.1902
65823DOPC   C3A23522  20.508   4.917  14.086  0.4165  0.0285 -0.2309
65823DOPC   C4A23523  20.371   4.894  13.668 -0.2664  0.0335 -0.0968
65823DOPC   C1B23524  21.101   5.393  14.471  0.0553  0.0480  0.0281
65823DOPC   D2B23525  20.869   5.370  14.149  0.1154 -0.1331  0.1191
65823DOPC   C3B23526  20.951   5.551  13.740 -0.1696  0.0618 -0.0970
65823DOPC   C4B23527  20.962   5.837  13.430 -0.3450 -0.2749  0.1045
65824DOPC   NC323528  34.901   6.296  11.360 -0.1149 -0.2651  0.3644
65824DOPC   PO423529  34.807   5.817  11.515 -0.1171  0.1429  0.1521
65824DOPC   GL123530  34.833   5.648  11.042 -0.4825  0.2231 -0.0508
65824DOPC   GL223531  34.920   5.945  10.816  0.0722 -0.1806  0.2958
65824DOPC   C1A23532  35.068   5.492  10.722 -0.2116 -0.0577  0.1855
65824DOPC   D2A23533  35.310   5.317  10.383 -0.0149  0.2142  0.0688
65824DOPC   C3A23534   0.210   5.056  10.134 -0.1807  0.0854 -0.2513
65824DOPC   C4A23535   0.310   5.142   9.847  0.1632 -0.1305  0.1315
65824DOPC   C1B23536  35.005   5.942  10.437  0.2642  0.3739  0.3332
65824DOPC   D2B23537  35.189   5.752  10.068  0.0684 -0.0274 -0.0283
65824DOPC   C3B23538  34.947   5.658   9.629 -0.0897 -0.0209  0.1734
65824DOPC   C4B23539  34.820   5.953   9.439  0.0153 -0.1866  0.0143
65825DOPC   NC323540   3.651   6.122  16.387 -0.0916  0.1676  0.2665
65825DOPC   PO423541   4.008   5.834  16.415 -0.1947  0.1455 -0.1954
65825DOPC   GL123542   4.302   5.765  16.184 -0.1824 -0.1685 -0.1193
65825DOPC   GL223543   4.663   5.624  16.320  0.0643 -0.3804  0.1130
65825DOPC   C1A23544   4.602   5.728  15.860  0.2028  0.5536 -0.0915
65825DOPC   D2A23545   4.899   5.591  15.710 -0.3313 -0.0747  0.2068
65825DOPC   C3A23546   5.064   5.665  15.390  0.0162  0.0083  0.0868
65825DOPC   C4A23547   5.130   5.947  15.023  0.0902 -0.0849  0.1179
65825DOPC   C1B23548   4.991   5.935  16.163  0.0018 -0.0055 -0.2632
65825DOPC   D2B23549   5.305   5.881  15.759 -0.1260 -0.1287 -0.1521
65825DOPC   C3B23550   5.741   5.781  15.721 -0.3484 -0.2118 -0.1231
65825DOPC   C4B23551   6.151   5.607  15.612 -0.1070  0.1090 -0.0693
65826DOPC   NC323552  15.537  17.819  19.389  0.2590 -0.2442 -0.1732
65826DOPC   PO423553  15.879  18.145  19.499  0.3962 -0.0188  0.0441
65826DOPC   GL123554  15.747  18.196  19.138  0.2329 -0.0254 -0.0497
65826DOPC   GL223555  15.778  18.015  18.927 -0.1052  0.1131  0.2623
65826DOPC   C1A23556  15.480  18.430  18.857  0.4623  0.2319  0.0350
65826DOPC   D2A23557  15.466  18.721  18.701 -0.1611 -0.0044  0.0687
65826DOPC   C3A23558  15.254  18.767  18.276  0.1991  0.1948  0.0355
65826DOPC   C4A23559  15.300  18.392  17.845 -0.0599 -0.0051 -0.0107
65826DOPC   C1B23560  15.682  18.145  18.542  0.4399  0.0590  0.0908
65826DOPC   D2B23561  15.359  18.278  18.319  0.3272 -0.1836 -0.1809
65826DOPC   C3B23562  15.191  17.917  18.350 -0.0546  0.1616  0.0688
65826DOPC   C4B23563  14.736  17.986  18.265 -0.1761  0.1786  0.0821
65827DOPC   NC323564  29.023  13.272   4.610  0.1053  0.1044  0.0318
65827DOPC   PO423565  29.069  12.958   4.328  0.0786  0.0315  0.2313
65827DOPC   GL123566  29.145  13.093   3.854  0.0245  0.1072  0.0818
65827DOPC   GL223567  29.508  13.075   3.848 -0.0721  0.3630  0.0320
65827DOPC   C1A23568  28.920  13.004   3.486  0.2190 -0.0843  0.2668
65827DOPC   D2A23569  28.831  12.919   3.103 -0.1562  0.1045  0.1152
65827DOPC   C3A23570  28.511  13.111   2.878 -0.1279 -0.0638 -0.3480
65827DOPC   C4A23571  28.302  13.575   2.879 -0.2254 -0.0171  0.0929
65827DOPC   C1B23572  29.647  12.881   3.436 -0.2876 -0.1491 -0.0786
65827DOPC   D2B23573  29.558  12.835   3.029  0.0864  0.1222  0.1381
65827DOPC   C3B23574  29.176  12.882   2.759 -0.0036 -0.2482 -0.2685
65827DOPC   C4B23575  29.022  12.952   2.359 -0.4020  0.1531 -0.3392
65828DOPC   NC323576  10.636   3.767  18.849 -0.1904  0.2295  0.2047
65828DOPC   PO423577  10.626   3.409  19.183 -0.0992  0.0414 -0.0294
65828DOPC   GL123578  10.538   3.310  18.704  0.3452  0.1523  0.0444
65828DOPC   GL223579  10.242   3.229  18.599 -0.0420 -0.1130 -0.0692
65828DOPC   C1A23580  10.770   2.867  18.561 -0.3175  0.0180 -0.0951
65828DOPC   D2A23581  10.895   2.678  18.218  0.0903 -0.1349 -0.1801
65828DOPC   C3A23582  10.760   2.517  17.812 -0.0140 -0.1444 -0.0919
65828DOPC   C4A23583  10.468   2.413  17.600  0.2955 -0.2344  0.1107
65828DOPC   C1B23584  10.508   3.122  18.196  0.1286 -0.0644  0.1323
65828DOPC   D2B23585  10.649   3.065  17.924  0.2624 -0.1984 -0.0674
65828DOPC   C3B23586  10.482   2.903  17.674 -0.2651 -0.1744  0.0280
65828DOPC   C4B23587  10.129   2.795  17.455 -0.0277 -0.1031  0.1203
65829DOPC   NC323588  13.299  22.408  22.329 -0.1457  0.1347 -0.1292
65829DOPC   PO423589  13.355  22.894  22.037 -0.0476 -0.2112  0.1115
65829DOPC   GL123590  13.646  23.044  21.728 -0.0603  0.2142  0.0128
65829DOPC   GL223591  13.926  23.122  21.739 -0.2725  0.3446  0.2282
65829DOPC   C1A23592  13.538  23.023  21.289 -0.2907 -0.1097 -0.3707
65829DOPC   D2A23593  13.500  22.879  20.739  0.0087  0.1253 -0.0080
65829DOPC   C3A23594  13.397  22.743  20.329 -0.0086  0.2531 -0.3922
65829DOPC   C4A23595  13.534  22.709  19.955  0.0103 -0.2842  0.0984
65829DOPC   C1B23596  14.072  23.038  21.322  0.0141 -0.1454 -0.1716
65829DOPC   D2B23597  13.975  22.883  20.881  0.2455 -0.0432  0.3164
65829DOPC   C3B23598  14.170  22.528  20.585  0.1707 -0.1742 -0.0580
65829DOPC   C4B23599  14.621  22.448  20.508  0.1258  0.1540 -0.0684
65830DOPC   NC323600  29.596  17.438   3.860  0.0551 -0.0764  0.0296
65830DOPC   PO423601  29.300  17.194   3.841 -0.0779 -0.2498 -0.2294
65830DOPC   GL123602  29.255  17.361   3.501 -0.3153  0.0087  0.2878
65830DOPC   GL223603  29.448  17.458   3.314 -0.2856  0.0721  0.0260
65830DOPC   C1A23604  29.042  17.471   3.082 -0.2494 -0.2292  0.0124
65830DOPC   D2A23605  28.754  17.510   2.798  0.2593 -0.0206  0.0249
65830DOPC   C3A23606  28.741  17.568   2.355  0.0965 -0.0313 -0.0103
65830DOPC   C4A23607  28.499  17.449   1.950 -0.0874  0.1082 -0.2375
65830DOPC   C1B23608  29.487  17.516   2.886 -0.0445  0.0176 -0.0979
65830DOPC   D2B23609  29.180  17.458   2.557  0.1276  0.2101 -0.0690
65830DOPC   C3B23610  29.284  17.162   2.194  0.0887 -0.2266  0.1730
65830DOPC   C4B23611  29.659  16.990   1.931 -0.1088  0.3255  0.2002
65831DOPC   NC323612  28.132  18.145   4.308  0.1963 -0.0472 -0.1567
65831DOPC   PO423613  28.389  18.219   3.945  0.0142 -0.0088  0.0112
65831DOPC   GL123614  28.484  18.486   3.619 -0.0911 -0.2951 -0.1511
65831DOPC   GL223615  28.742  18.716   3.596 -0.0369 -0.0351  0.1067
65831DOPC   C1A23616  28.730  18.390   3.237  0.0196 -0.2161 -0.0801
65831DOPC   D2A23617  28.634  18.514   2.920 -0.0060 -0.0520  0.3241
65831DOPC   C3A23618  28.641  18.521   2.488 -0.0508  0.0745 -0.2271
65831DOPC   C4A23619  28.509  18.551   2.143 -0.1699 -0.3052 -0.0921
65831DOPC   C1B23620  28.520  18.860   3.295  0.2154 -0.1966 -0.1593
65831DOPC   D2B23621  28.308  18.858   2.873 -0.1036 -0.0508 -0.0714
65831DOPC   C3B23622  28.205  18.843   2.414 -0.1771  0.3628 -0.0811
65831DOPC   C4B23623  27.936  18.710   2.098 -0.0556  0.2137  0.3726
65832DOPC   NC323624  14.881  29.142  20.631 -0.1845 -0.0683 -0.2091
65832DOPC   PO423625  14.637  28.861  20.853 -0.0436 -0.5316  0.1306
65832DOPC   GL123626  14.289  28.857  20.620  0.4301 -0.1912  0.0752
65832DOPC   GL223627  14.174  28.569  20.456  0.2114  0.2472  0.2120
65832DOPC   C1A23628  14.173  28.921  20.183 -0.1978 -0.2919 -0.1716
65832DOPC   D2A23629  14.091  28.801  19.814 -0.2027  0.1195  0.1372
65832DOPC   C3A23630  14.174  28.849  19.382 -0.3036  0.1211 -0.2320
65832DOPC   C4A23631  14.141  28.484  19.126  0.0132  0.3959 -0.4507
65832DOPC   C1B23632  14.330  28.440  20.128  0.1402 -0.0235 -0.1565
65832DOPC   D2B23633  14.627  28.323  19.940 -0.2077  0.0178  0.1016
65832DOPC   C3B23634  14.541  28.074  19.521 -0.3054  0.2424  0.0024
65832DOPC   C4B23635  14.184  27.949  19.364  0.2785 -0.0443  0.2420
65833DOPC   NC323636  22.267  19.172  14.950 -0.0527  0.2064 -0.4012
65833DOPC   PO423637  22.250  19.643  14.663  0.2030 -0.0954  0.2338
65833DOPC   GL123638  21.875  19.751  14.414 -0.1262  0.1249  0.0984
65833DOPC   GL223639  21.914  19.768  14.118 -0.1113 -0.0836 -0.1208
65833DOPC   C1A23640  21.418  19.682  14.383 -0.2943 -0.2095 -0.0400
65833DOPC   D2A23641  21.085  19.705  14.469  0.1770 -0.2610 -0.1466
65833DOPC   C3A23642  20.757  19.707  14.165 -0.1811  0.2880  0.2674
65833DOPC   C4A23643  20.538  19.786  13.811  0.0272 -0.0265  0.3186
65833DOPC   C1B23644  21.522  19.659  13.802  0.2232 -0.0774  0.0115
65833DOPC   D2B23645  21.221  19.822  13.902 -0.2448  0.0419 -0.2753
65833DOPC   C3B23646  20.968  19.844  13.608  0.1501 -0.0331 -0.1085
65833DOPC   C4B23647  20.956  20.133  13.351 -0.0279  0.1596  0.2895
65834DOPC   NC323648  29.962   2.243  11.321 -0.0614 -0.0549 -0.2018
65834DOPC   PO423649  30.005   1.776  11.375  0.0729  0.0035  0.0897
65834DOPC   GL123650  30.227   1.800  10.950  0.1081 -0.2249  0.2287
65834DOPC   GL223651  30.403   2.103  10.930 -0.3536  0.4900  0.0216
65834DOPC   C1A23652  30.550   1.627  10.734  0.1288 -0.0976 -0.1727
65834DOPC   D2A23653  30.852   1.800  10.570 -0.1174  0.0373 -0.0130
65834DOPC   C3A23654  30.921   1.861  10.155  0.1138  0.2197 -0.1115
65834DOPC   C4A23655  31.231   2.062   9.995  0.5979 -0.1361 -0.0996
65834DOPC   C1B23656  30.585   2.192  10.556  0.2726  0.0318  0.0501
65834DOPC   D2B23657  30.726   2.323  10.186  0.0633 -0.0011 -0.1472
65834DOPC   C3B23658  30.379   2.648   9.925  0.2884  0.1672 -0.0029
65834DOPC   C4B23659  30.148   3.140   9.903  0.0557  0.0154 -0.0376
65835DOPC   NC323660  18.889  21.074  18.713 -0.3131  0.1222 -0.1625
65835DOPC   PO423661  18.957  21.431  18.833  0.2432  0.0936  0.1676
65835DOPC   GL123662  18.677  21.564  18.564 -0.2260  0.2200  0.3512
65835DOPC   GL223663  18.765  21.852  18.450 -0.1519  0.2650  0.0258
65835DOPC   C1A23664  18.436  21.547  18.206  0.0520 -0.0670  0.1338
65835DOPC   D2A23665  18.088  21.515  18.138  0.1298 -0.0208 -0.2282
65835DOPC   C3A23666  17.927  21.365  18.438  0.0638 -0.2245  0.1561
65835DOPC   C4A23667  17.937  21.363  18.911  0.0272  0.0677 -0.0622
65835DOPC   C1B23668  18.519  22.153  18.200  0.0024 -0.0643 -0.0282
65835DOPC   D2B23669  18.252  22.255  17.931 -0.0945  0.1810 -0.0773
65835DOPC   C3B23670  18.570  22.445  17.742 -0.0392 -0.3437  0.1303
65835DOPC   C4B23671  18.877  22.522  17.302  0.1217  0.0041 -0.1281
65836DOPC   NC323672  20.791  23.108  17.038 -0.0079  0.0686 -0.2762
65836DOPC   PO423673  20.701  22.670  16.987  0.1031 -0.0682  0.0632
65836DOPC   GL123674  20.527  22.478  16.542  0.3398 -0.1027 -0.0014
65836DOPC   GL223675  20.666  22.442  16.173 -0.0095  0.0688  0.0721
65836DOPC   C1A23676  20.093  22.344  16.380 -0.1064  0.0295 -0.0844
65836DOPC   D2A23677  19.903  22.017  16.236 -0.2468 -0.1462 -0.1445
65836DOPC   C3A23678  19.638  21.974  15.915 -0.0581 -0.2375 -0.1202
65836DOPC   C4A23679  19.417  21.609  15.853 -0.2507  0.3178  0.1223
65836DOPC   C1B23680  20.353  22.217  15.963 -0.0123 -0.1236  0.3851
65836DOPC   D2B23681  19.975  22.081  15.573  0.1209 -0.1880 -0.1894
65836DOPC   C3B23682  19.759  21.671  15.417 -0.0686  0.2324 -0.0205
65836DOPC   C4B23683  20.029  21.676  14.981  0.2797 -0.0109  0.1059
65837DOPC   NC323684  21.963  26.330  14.325  0.0303  0.0658 -0.1378
65837DOPC   PO423685  21.808  25.892  14.405 -0.0000  0.0015  0.2535
65837DOPC   GL123686  21.588  25.505  14.342  0.1071  0.0420  0.0807
65837DOPC   GL223687  21.818  25.297  14.343  0.0826 -0.4276  0.1607
65837DOPC   C1A23688  21.214  25.334  14.155  0.1926  0.0110 -0.0475
65837DOPC   D2A23689  21.111  25.038  13.805  0.1872 -0.0977 -0.2538
65837DOPC   C3A23690  20.960  24.610  13.808 -0.1414 -0.2370  0.0604
65837DOPC   C4A23691  20.751  24.347  13.542  0.0139  0.0665 -0.1351
65837DOPC   C1B23692  21.535  24.974  14.099  0.0716  0.0907 -0.1594
65837DOPC   D2B23693  21.481  24.691  14.036  0.2340 -0.0140  0.1515
65837DOPC   C3B23694  21.231  24.364  14.229 -0.4591  0.1892  0.2491
65837DOPC   C4B23695  20.954  24.164  14.301  0.2416  0.3810 -0.0135
65838DOPC   NC323696   6.679   5.949  18.045  0.0692 -0.3214 -0.1056
65838DOPC   PO423697   7.033   6.107  18.159 -0.1027  0.1982 -0.0398
65838DOPC   GL123698   7.245   6.106  17.701 -0.0173 -0.2249 -0.0084
65838DOPC   GL223699   7.582   6.003  17.695 -0.1605 -0.1831 -0.0589
65838DOPC   C1A23700   7.376   6.276  17.277  0.2355 -0.1977 -0.1068
65838DOPC   D2A23701   7.518   6.245  16.817  0.2047  0.1397  0.1285
65838DOPC   C3A23702   7.413   5.818  16.710  0.0085 -0.0676  0.2805
65838DOPC   C4A23703   7.190   5.549  16.819  0.1255  0.0097 -0.1419
65838DOPC   C1B23704   7.887   6.084  17.398 -0.0981 -0.0903 -0.0592
65838DOPC   D2B23705   7.866   5.893  16.948  0.1345  0.2217  0.1184
65838DOPC   C3B23706   7.659   5.481  16.914 -0.2010 -0.1558  0.0747
65838DOPC   C4B23707   7.808   5.073  16.932  0.1834 -0.0368 -0.0763
65839DOPC   NC323708  20.585  23.999  17.341  0.0795 -0.0205  0.0220
65839DOPC   PO423709  20.412  24.404  17.315  0.0339 -0.3282  0.1764
65839DOPC   GL123710  20.053  24.533  17.105 -0.2306  0.1955  0.1370
65839DOPC   GL223711  20.261  24.602  16.811 -0.0257 -0.4102  0.1308
65839DOPC   C1A23712  19.715  24.707  16.825 -0.1876  0.0956  0.3509
65839DOPC   D2A23713  19.414  24.849  16.694 -0.2500  0.2851  0.0240
65839DOPC   C3A23714  19.194  24.871  16.366 -0.1993  0.3164  0.0047
65839DOPC   C4A23715  19.172  24.774  15.957  0.0937  0.4236 -0.0449
65839DOPC   C1B23716  19.901  24.540  16.408 -0.1803 -0.1782  0.2808
65839DOPC   D2B23717  19.600  24.623  16.095 -0.0532  0.2381  0.1428
65839DOPC   C3B23718  19.719  24.372  15.777  0.0801  0.0560 -0.2152
65839DOPC   C4B23719  19.645  24.332  15.287 -0.0986  0.1472 -0.0287
65840DOPC   NC323720  31.235  10.603   6.497 -0.5142  0.1501 -0.0127
65840DOPC   PO423721  31.589  10.835   6.488  0.0195 -0.1599 -0.0273
65840DOPC   GL123722  31.509  10.602   6.019  0.2307 -0.2764  0.2413
65840DOPC   GL223723  31.376  10.613   5.751 -0.1148 -0.0965 -0.2148
65840DOPC   C1A23724  31.802  10.261   5.893 -0.2533 -0.1804  0.0596
65840DOPC   D2A23725  31.997  10.073   5.548 -0.1034  0.2989 -0.0703
65840DOPC   C3A23726  32.262   9.811   5.255  0.0749 -0.1176  0.0684
65840DOPC   C4A23727  32.292   9.504   4.937  0.0202 -0.2655  0.0502
65840DOPC   C1B23728  31.444  10.484   5.453  0.0235  0.2309  0.1698
65840DOPC   D2B23729  31.704  10.241   5.154 -0.0268  0.2621 -0.2004
65840DOPC   C3B23730  31.823  10.109   4.803 -0.0946  0.2464 -0.0684
65840DOPC   C4B23731  32.190   9.971   4.640  0.2085 -0.4508  0.1523
65841DOPC   NC323732  31.564  31.561  11.696  0.0254  0.0295  0.1454
65841DOPC   PO423733  31.635  31.074  11.569  0.0365  0.3313 -0.1343
65841DOPC   GL123734  31.923  31.222  11.354  0.0217 -0.0745 -0.1004
65841DOPC   GL223735  32.142  31.457  11.458 -0.0047 -0.2071 -0.1563
65841DOPC   C1A23736  32.254  31.133  11.046  0.2391 -0.2424  0.0359
65841DOPC   D2A23737  32.277  31.011  10.603 -0.0428  0.0796  0.1369
65841DOPC   C3A23738  32.637  31.196  10.401 -0.3642 -0.1311 -0.1370
65841DOPC   C4A23739  33.057  31.317  10.310  0.0261  0.1999  0.1164
65841DOPC   C1B23740  32.558  31.475  11.517  0.2401  0.0011  0.0344
65841DOPC   D2B23741  32.913  31.551  11.793 -0.0878  0.0071 -0.0704
65841DOPC   C3B23742  33.400  31.541  11.655  0.1248  0.1506  0.2695
65841DOPC   C4B23743  33.841  31.549  11.362  0.1427 -0.2070  0.0232
65842DOPC   NC323744   3.334  21.287  15.064  0.2053  0.1819  0.0554
65842DOPC   PO423745   3.646  21.023  15.192 -0.2106  0.1569  0.2390
65842DOPC   GL123746   4.145  20.947  15.303  0.0734  0.2270 -0.0528
65842DOPC   GL223747   4.149  21.205  15.340  0.1135 -0.0482 -0.1224
65842DOPC   C1A23748   4.344  20.664  15.127 -0.0325  0.0455 -0.1342
65842DOPC   D2A23749   4.538  20.549  14.732  0.1480 -0.1035 -0.1289
65842DOPC   C3A23750   4.657  20.218  14.635 -0.2032  0.2553  0.2399
65842DOPC   C4A23751   4.551  19.864  14.419  0.0061 -0.2006  0.1766
65842DOPC   C1B23752   4.401  21.150  14.984  0.1402 -0.0256  0.1377
65842DOPC   D2B23753   4.771  21.282  14.669 -0.1642  0.0715  0.0854
65842DOPC   C3B23754   5.239  21.243  14.667 -0.2566 -0.2271 -0.0242
65842DOPC   C4B23755   5.633  21.399  14.581  0.2365  0.3964 -0.1180
65843DOPC   NC323756  18.471   7.638  18.211 -0.1246 -0.1167 -0.2990
65843DOPC   PO423757  18.229   7.587  17.757 -0.2093 -0.0309  0.0990
65843DOPC   GL123758  18.295   7.693  17.320 -0.1679 -0.0757 -0.1029
65843DOPC   GL223759  18.524   7.973  17.224  0.0983  0.1221 -0.0092
65843DOPC   C1A23760  18.181   7.693  16.970  0.1469 -0.3969  0.0550
65843DOPC   D2A23761  18.387   7.908  16.635  0.3117 -0.2347  0.0482
65843DOPC   C3A23762  18.260   8.034  16.158 -0.0608  0.2422  0.0783
65843DOPC   C4A23763  18.106   7.961  15.723  0.1499 -0.1169 -0.1278
65843DOPC   C1B23764  18.666   7.544  16.938  0.1008 -0.0488  0.0377
65843DOPC   D2B23765  18.389   7.370  16.598 -0.1326  0.1018 -0.0108
65843DOPC   C3B23766  18.198   7.536  16.332  0.1038 -0.1704 -0.1989
65843DOPC   C4B23767  18.077   7.632  16.050  0.1665 -0.0659 -0.1588
65844DOPC   NC323768  11.399   3.535  19.626 -0.1945  0.0710 -0.1296
65844DOPC   PO423769  11.509   3.298  19.282  0.0955 -0.3716  0.1650
65844DOPC   GL123770  11.483   3.313  18.926  0.0811 -0.0235  0.1120
65844DOPC   GL223771  11.607   2.991  18.806  0.3113 -0.2493 -0.1533
65844DOPC   C1A23772  11.671   3.372  18.488  0.1210 -0.1592 -0.3719
65844DOPC   D2A23773  11.896   3.536  18.179  0.1124 -0.1048  0.3855
65844DOPC   C3A23774  11.783   3.605  17.766  0.4837 -0.0512  0.0568
65844DOPC   C4A23775  11.651   3.655  17.329 -0.0340  0.2035  0.3032
65844DOPC   C1B23776  11.346   3.021  18.434  0.3425 -0.0844 -0.2485
65844DOPC   D2B23777  11.341   2.805  18.118 -0.2165  0.0564 -0.0704
65844DOPC   C3B23778  11.169   2.958  17.882 -0.4112  0.2893 -0.2341
65844DOPC   C4B23779  10.985   3.115  17.561 -0.0945 -0.0386 -0.2609
65845DOPC   NC323780  23.028   3.496  14.157  0.1181  0.0910 -0.3620
65845DOPC   PO423781  22.772   3.205  14.007  0.0869 -0.0152  0.1204
65845DOPC   GL123782  22.555   3.331  13.701  0.1665 -0.1836  0.0340
65845DOPC   GL223783  22.202   3.202  13.715 -0.4294 -0.3059  0.0103
65845DOPC   C1A23784  22.465   3.656  13.516 -0.3509  0.0170 -0.1964
65845DOPC   D2A23785  22.217   3.929  13.386  0.0225  0.5458 -0.1108
65845DOPC   C3A23786  21.979   3.817  13.025  0.2182  0.2280 -0.1648
65845DOPC   C4A23787  21.983   3.909  12.558 -0.1050 -0.0891  0.1003
65845DOPC   C1B23788  22.144   3.394  13.282  0.0596  0.0681 -0.0438
65845DOPC   D2B23789  22.065   3.196  12.841  0.2174 -0.2223 -0.2792
65845DOPC   C3B23790  21.762   3.499  12.658  0.0559 -0.2302 -0.2131
65845DOPC   C4B23791  21.374   3.815  12.649 -0.0948 -0.2124  0.0325
65846DOPC   NC323792  24.138  35.333  11.396 -0.1109  0.0183 -0.1516
65846DOPC   PO423793  24.103  34.859  11.474  0.1506  0.0277 -0.2907
65846DOPC   GL123794  23.992  34.561  11.126  0.0738 -0.0953  0.0685
65846DOPC   GL223795  24.177  34.654  11.024 -0.1302  0.1096  0.2441
65846DOPC   C1A23796  23.941  34.240  10.833 -0.1007 -0.0492  0.0460
65846DOPC   D2A23797  23.870  34.381  10.386  0.0389  0.1762  0.2677
65846DOPC   C3A23798  24.110  34.639  10.083 -0.1715 -0.0633 -0.2073
65846DOPC   C4A23799  24.141  34.747   9.758  0.0575 -0.2096  0.0476
65846DOPC   C1B23800  24.207  34.740  10.628 -0.1671  0.1900 -0.2806
65846DOPC   D2B23801  24.486  34.819  10.391  0.3384  0.0619  0.0256
65846DOPC   C3B23802  24.680  34.848  10.037  0.0132 -0.0744  0.1407
65846DOPC   C4B23803  24.865  35.004   9.775  0.1761  0.2781  0.0925
65847DOPC   NC323804   9.840  28.766  21.330 -0.0276  0.1372  0.0009
65847DOPC   PO423805   9.365  28.598  21.371  0.0397 -0.1850 -0.0425
65847DOPC   GL123806   9.025  28.536  20.917 -0.0962 -0.2093  0.1719
65847DOPC   GL223807   9.343  28.725  20.800 -0.0169  0.4175  0.0202
65847DOPC   C1A23808   8.986  28.586  20.523  0.0339  0.1333  0.0361
65847DOPC   D2A23809   9.273  28.709  20.129  0.2415 -0.2603 -0.2139
65847DOPC   C3A23810   9.632  28.515  20.065  0.0920  0.1950  0.0043
65847DOPC   C4A23811   9.886  28.132  19.998 -0.0751  0.1778  0.1978
65847DOPC   C1B23812   9.588  28.424  20.571  0.0271  0.2201  0.1514
65847DOPC   D2B23813   9.923  28.149  20.494 -0.0452  0.2264  0.1073
65847DOPC   C3B23814  10.321  28.027  20.260  0.1799 -0.1072 -0.1405
65847DOPC   C4B23815  10.538  27.987  19.926 -0.0107  0.2112  0.0908
65848DOPC   NC323816  11.165  13.937  17.703  0.0170  0.0318 -0.2615
65848DOPC   PO423817  10.758  13.716  17.879  0.2152  0.1115 -0.2921
65848DOPC   GL123818  10.727  13.822  17.451  0.1170 -0.1317  0.2538
65848DOPC   GL223819  10.416  13.658  17.484  0.4551 -0.0904 -0.1009
65848DOPC   C1A23820  10.922  13.764  17.143 -0.2526  0.1106 -0.0614
65848DOPC   D2A23821  11.094  13.868  16.822 -0.0948 -0.0915  0.2347
65848DOPC   C3A23822  11.044  13.822  16.437  0.0045  0.1425 -0.1054
65848DOPC   C4A23823  11.286  13.573  16.218  0.2226 -0.0454  0.1182
65848DOPC   C1B23824  10.395  13.811  17.077  0.0081  0.0127 -0.1478
65848DOPC   D2B23825  10.608  13.751  16.748 -0.0186  0.1025  0.1875
65848DOPC   C3B23826  10.475  13.606  16.410  0.1598 -0.2519 -0.0023
65848DOPC   C4B23827  10.729  13.562  15.989 -0.3345  0.1767 -0.0714
65849DOPC   NC323828  13.587  13.542  19.135  0.1193  0.2213 -0.1205
65849DOPC   PO423829  13.528  13.629  18.615 -0.0418  0.0505  0.0663
65849DOPC   GL123830  13.168  13.614  18.280  0.1067  0.0668 -0.0142
65849DOPC   GL223831  13.238  13.785  18.026  0.0420 -0.3159  0.0530
65849DOPC   C1A23832  13.029  13.275  17.955 -0.3617  0.0824  0.1424
65849DOPC   D2A23833  13.222  13.032  17.630  0.0621 -0.0278 -0.0300
65849DOPC   C3A23834  13.420  13.058  17.147 -0.3750  0.0836  0.1467
65849DOPC   C4A23835  13.643  13.367  16.855  0.3019  0.0612  0.0721
65849DOPC   C1B23836  13.392  13.942  17.724 -0.2680  0.0765 -0.3181
65849DOPC   D2B23837  13.470  14.179  17.535 -0.2006 -0.0665 -0.1246
65849DOPC   C3B23838  13.519  14.098  17.101 -0.1775 -0.0625 -0.0784
65849DOPC   C4B23839  13.774  14.326  16.783  0.1961  0.0491 -0.3377
65850DOPC   NC323840  28.798  14.114   4.418 -0.0649  0.0796 -0.1363
65850DOPC   PO423841  28.340  13.951   4.359  0.0395 -0.0772 -0.1680
65850DOPC   GL123842  28.492  14.094   3.960 -0.1739  0.2080 -0.1860
65850DOPC   GL223843  28.802  14.122   3.906 -0.2454  0.0163  0.1627
65850DOPC   C1A23844  28.464  14.057   3.545  0.0566 -0.1327 -0.2195
65850DOPC   D2A23845  28.138  14.085   3.218 -0.1589 -0.0983 -0.2731
65850DOPC   C3A23846  28.085  14.172   2.728  0.2227  0.0643  0.0409
65850DOPC   C4A23847  27.843  14.512   2.579  0.0389  0.0097 -0.0949
65850DOPC   C1B23848  28.922  14.094   3.610 -0.3535 -0.1528  0.0597
65850DOPC   D2B23849  29.127  14.101   3.379  0.0132  0.0397  0.1886
65850DOPC   C3B23850  29.119  14.265   3.025 -0.0580  0.2070  0.1660
65850DOPC   C4B23851  29.224  14.366   2.670  0.1000 -0.1223 -0.0149
65851DOPC   NC323852   4.746  34.137  18.786 -0.0071  0.2927 -0.2527
65851DOPC   PO423853   5.097  34.244  19.140  0.1026 -0.1511 -0.3334
65851DOPC   GL123854   5.397  34.141  18.860  0.0866  0.0367 -0.0646
65851DOPC   GL223855   5.529  33.841  18.881 -0.2621 -0.0700  0.0898
65851DOPC   C1A23856   5.658  34.377  18.571 -0.3585  0.0203  0.3070
65851DOPC   D2A23857   5.598  34.495  18.190 -0.0865  0.1006 -0.1309
65851DOPC   C3A23858   5.820  34.479  17.742  0.0782 -0.0085 -0.0965
65851DOPC   C4A23859   5.911  34.357  17.294 -0.2012 -0.1732  0.2544
65851DOPC   C1B23860   5.894  33.939  18.751 -0.2806 -0.1687 -0.1616
65851DOPC   D2B23861   6.226  33.978  18.586 -0.3847 -0.2247 -0.3220
65851DOPC   C3B23862   6.469  34.127  18.286  0.2066  0.1689  0.0152
65851DOPC   C4B23863   6.817  34.143  17.973 -0.0261 -0.2273  0.2243
65852DOPC   NC323864  15.351  21.319  21.181  0.1379 -0.1002 -0.0063
65852DOPC   PO423865  14.916  21.114  20.957 -0.1217  0.2164 -0.0524
65852DOPC   GL123866  15.025  21.257  20.632  0.0542 -0.2800 -0.1648
65852DOPC   GL223867  15.036  21.584  20.569 -0.0051 -0.0794  0.1578
65852DOPC   C1A23868  15.319  21.257  20.310  0.0392  0.0162 -0.0161
65852DOPC   D2A23869  15.530  21.140  19.947  0.2772  0.1568  0.1534
65852DOPC   C3A23870  15.464  21.460  19.555 -0.3469 -0.0168  0.1230
65852DOPC   C4A23871  15.620  21.463  19.111  0.5493 -0.1921  0.1871
65852DOPC   C1B23872  14.854  21.608  20.176 -0.3697 -0.0464  0.1467
65852DOPC   D2B23873  14.576  21.861  19.893 -0.0849  0.2772  0.1804
65852DOPC   C3B23874  14.423  22.264  20.061 -0.5252  0.2519 -0.0445
65852DOPC   C4B23875  14.448  22.729  19.908  0.0657 -0.3062 -0.2828
65853DOPC   NC323876  18.178  15.146  17.655 -0.0063 -0.2941  0.0189
65853DOPC   PO423877  17.863  15.438  17.595  0.0545  0.1501  0.1333
65853DOPC   GL123878  17.693  15.105  17.414  0.0203  0.4245 -0.0410
65853DOPC   GL223879  17.455  15.032  17.552  0.2659  0.0242 -0.1115
65853DOPC   C1A23880  17.530  15.006  17.069 -0.1943  0.1321  0.2097
65853DOPC   D2A23881  17.334  14.966  16.644  0.1607 -0.1821 -0.1227
65853DOPC   C3A23882  17.327  15.205  16.458  0.2221 -0.1242 -0.1684
65853DOPC   C4A23883  17.491  15.193  16.015 -0.1842 -0.2201 -0.0413
65853DOPC   C1B23884  17.020  14.973  17.264  0.1433  0.1451 -0.0492
65853DOPC   D2B23885  16.713  14.987  16.901  0.0730  0.0785  0.0774
65853DOPC   C3B23886  16.797  14.971  16.417  0.4242 -0.4035 -0.1468
65853DOPC   C4B23887  16.812  15.299  16.159 -0.0660 -0.1278 -0.2062
65854DOPC   NC323888  23.086  12.446  12.494 -0.0045 -0.0004 -0.0854
65854DOPC   PO423889  23.059  12.868  12.317 -0.1766 -0.0174 -0.2687
65854DOPC   GL123890  22.767  12.620  12.097 -0.1619  0.2371 -0.0623
65854DOPC   GL223891  22.886  12.340  11.971  0.2639  0.2909 -0.0464
65854DOPC   C1A23892  22.367  12.528  11.920  0.0676  0.0918 -0.0535
65854DOPC   D2A23893  21.973  12.454  11.809 -0.1800 -0.4111  0.2343
65854DOPC   C3A23894  21.521  12.507  11.586  0.0261  0.0165  0.0106
65854DOPC   C4A23895  21.164  12.703  11.381  0.2919 -0.1641  0.1642
65854DOPC   C1B23896  22.692  12.325  11.626 -0.1873 -0.0079  0.0432
65854DOPC   D2B23897  22.530  12.163  11.166 -0.1656 -0.1299  0.1564
65854DOPC   C3B23898  22.706  12.085  10.781 -0.0468  0.1163 -0.2961
65854DOPC   C4B23899  22.610  12.129  10.398  0.2418  0.3175 -0.1936
65855DOPC   NC323900  13.885  13.979  19.738  0.3165  0.2228 -0.1052
65855DOPC   PO423901  13.927  13.968  19.287  0.1687 -0.1695 -0.0646
65855DOPC   GL123902  13.989  13.788  18.815 -0.3668  0.1447 -0.0260
65855DOPC   GL223903  14.011  13.459  18.898 -0.1708 -0.1177 -0.2225
65855DOPC   C1A23904  14.187  13.734  18.479 -0.0498  0.0771 -0.2850
65855DOPC   D2A23905  14.273  13.597  18.175  0.1661 -0.1183  0.0153
65855DOPC   C3A23906  14.468  13.196  18.364  0.1460 -0.1240 -0.2412
65855DOPC   C4A23907  14.588  12.792  18.519 -0.1761 -0.1308  0.0815
65855DOPC   C1B23908  14.426  13.434  18.802 -0.1094  0.2412 -0.1066
65855DOPC   D2B23909  14.818  13.475  18.701 -0.1491  0.1058  0.1347
65855DOPC   C3B23910  14.917  13.118  18.506 -0.1966 -0.3337  0.0142
65855DOPC   C4B23911  15.156  12.796  18.222 -0.0685 -0.3325  0.0560
65856DOPC   NC323912   8.424   9.800  18.426  0.0789  0.1862  0.0015
65856DOPC   PO423913   8.145   9.693  18.021  0.2327  0.2644  0.1814
65856DOPC   GL123914   8.209   9.567  17.689  0.1829 -0.2367 -0.1898
65856DOPC   GL223915   8.341   9.944  17.534 -0.0157 -0.0862  0.0721
65856DOPC   C1A23916   8.283   9.328  17.282  0.1937  0.1825  0.0757
65856DOPC   D2A23917   8.432   9.179  16.785 -0.1164  0.1149 -0.1370
65856DOPC   C3A23918   8.314   8.876  16.629  0.2136  0.1237  0.2643
65856DOPC   C4A23919   8.051   8.840  16.361 -0.1703 -0.1495 -0.1210
65856DOPC   C1B23920   8.511   9.842  17.286 -0.1155 -0.3280 -0.0022
65856DOPC   D2B23921   8.574   9.795  16.875 -0.1608  0.2389  0.2537
65856DOPC   C3B23922   8.779  10.196  16.702  0.0055 -0.0998  0.2363
65856DOPC   C4B23923   9.260  10.208  16.474 -0.1274  0.0531 -0.3772
65857DOPC   NC323924  17.739  28.155  19.275 -0.0025  0.3866 -0.0786
65857DOPC   PO423925  18.000  28.007  18.996  0.2393 -0.1521 -0.1825
65857DOPC   GL123926  17.871  27.825  18.587  0.2062 -0.3743  0.4749
65857DOPC   GL223927  18.178  28.061  18.396  0.2359  0.1260 -0.0376
65857DOPC   C1A23928  17.652  27.622  18.384 -0.1233 -0.0190  0.1089
65857DOPC   D2A23929  17.685  27.379  18.058  0.0324  0.0939  0.3402
65857DOPC   C3A23930  17.508  27.067  18.207 -0.2831  0.5339  0.0500
65857DOPC   C4A23931  17.325  26.975  18.472  0.0541  0.1923  0.2126
65857DOPC   C1B23932  17.904  27.927  18.111  0.2807 -0.0539 -0.1364
65857DOPC   D2B23933  17.598  27.825  17.735 -0.3261 -0.0456 -0.0318
65857DOPC   C3B23934  17.249  27.931  17.602  0.0680 -0.1151 -0.2597
65857DOPC   C4B23935  17.107  27.567  17.447 -0.1705 -0.1056 -0.1199
65858DOPC   NC323936   3.287  19.478  14.566  0.2023  0.0770 -0.0394
65858DOPC   PO423937   3.529  19.305  14.160 -0.3521 -0.0323 -0.4981
65858DOPC   GL123938   3.943  19.295  14.405  0.1949  0.1519  0.2081
65858DOPC   GL223939   3.904  19.564  14.683  0.1441  0.2363 -0.2169
65858DOPC   C1A23940   4.275  19.509  14.229  0.1170 -0.0567 -0.1109
65858DOPC   D2A23941   4.443  19.810  13.876  0.2210 -0.0863 -0.0154
65858DOPC   C3A23942   4.845  19.907  13.975 -0.1919 -0.1278  0.0082
65858DOPC   C4A23943   5.011  20.138  14.310  0.1428 -0.0871 -0.0033
65858DOPC   C1B23944   4.228  19.688  14.796  0.1021  0.0028  0.1904
65858DOPC   D2B23945   4.575  19.759  14.934  0.0350  0.0842  0.0818
65858DOPC   C3B23946   4.944  19.641  14.659  0.0919 -0.0192 -0.2872
65858DOPC   C4B23947   5.266  19.425  14.590 -0.0454  0.3212  0.1772
65859DOPC   NC323948  30.965   4.259  10.798  0.1192  0.2224 -0.0589
65859DOPC   PO423949  30.671   3.962  10.910  0.0595 -0.0998 -0.0219
65859DOPC   GL123950  30.593   3.946  10.530 -0.1511 -0.3345  0.0164
65859DOPC   GL223951  30.544   3.719  10.432  0.0154 -0.0243  0.0506
65859DOPC   C1A23952  30.756   3.872  10.011  0.0998  0.2099  0.0720
65859DOPC   D2A23953  30.867   3.843   9.589 -0.5157  0.0111 -0.0837
65859DOPC   C3A23954  30.957   3.476   9.354  0.0712 -0.2408  0.1786
65859DOPC   C4A23955  30.816   3.083   9.120 -0.0167  0.2318 -0.1011
65859DOPC   C1B23956  30.379   3.572  10.076  0.0647 -0.0557 -0.1133
65859DOPC   D2B23957  30.594   3.361   9.745  0.2584  0.1462 -0.0032
65859DOPC   C3B23958  30.670   2.923   9.581  0.1415 -0.3775 -0.1900
65859DOPC   C4B23959  30.989   2.704   9.402  0.2096 -0.0519  0.2677
65860DOPC   NC323960   1.074  31.683  16.649  0.0655  0.0202  0.0854
65860DOPC   PO423961   1.329  31.629  16.200 -0.0813 -0.2482 -0.0186
65860DOPC   GL123962   1.612  31.436  16.129 -0.0894  0.2154  0.1172
65860DOPC   GL223963   1.643  31.121  15.945  0.1954 -0.2804 -0.0264
65860DOPC   C1A23964   2.063  31.307  16.123 -0.0262  0.1628  0.0734
65860DOPC   D2A23965   2.093  30.879  15.892  0.0992 -0.0307 -0.0749
65860DOPC   C3A23966   2.321  30.964  15.563 -0.0581 -0.3308  0.0441
65860DOPC   C4A23967   2.325  31.169  15.234  0.1353 -0.3961 -0.0260
65860DOPC   C1B23968   1.841  31.345  15.544 -0.0137 -0.1310 -0.0758
65860DOPC   D2B23969   1.866  31.612  15.296  0.2246  0.1591  0.1215
65860DOPC   C3B23970   1.838  31.432  14.882 -0.0061  0.0850  0.1865
65860DOPC   C4B23971   1.785  31.053  14.752  0.0347 -0.4316 -0.0418
65861DOPC   NC323972  22.974  20.455  12.999  0.1432  0.0156  0.1818
65861DOPC   PO423973  23.109  20.816  12.796  0.0050  0.0944 -0.0854
65861DOPC   GL123974  22.716  20.845  12.778 -0.0281  0.2498 -0.0509
65861DOPC   GL223975  22.594  21.051  12.526  0.3713 -0.2707 -0.2817
65861DOPC   C1A23976  22.283  21.018  12.952  0.1825 -0.2392  0.1950
65861DOPC   D2A23977  21.791  21.014  12.928 -0.0563  0.1927  0.1003
65861DOPC   C3A23978  21.330  21.022  13.188  0.1508 -0.3456  0.0166
65861DOPC   C4A23979  20.981  21.391  13.351  0.2651 -0.0472  0.1663
65861DOPC   C1B23980  22.160  21.083  12.399 -0.3067 -0.1156 -0.3139
65861DOPC   D2B23981  21.720  21.108  12.374 -0.1453 -0.0471 -0.0175
65861DOPC   C3B23982  21.395  20.947  12.677 -0.0493  0.2268  0.0248
65861DOPC   C4B23983  21.147  20.702  12.873  0.0887 -0.1014 -0.1537
65862DOPC   NC323984  24.297  25.051  11.895  0.0816  0.0126  0.2151
65862DOPC   PO423985  23.984  24.770  11.714  0.1680 -0.0359 -0.1787
65862DOPC   GL123986  23.563  24.716  11.546 -0.0002  0.0962  0.2533
65862DOPC   GL223987  23.260  24.945  11.716 -0.1681  0.0450  0.0986
65862DOPC   C1A23988  23.162  24.870  11.168  0.1367  0.0050 -0.0022
65862DOPC   D2A23989  22.828  24.533  11.090 -0.2667 -0.0169  0.1917
65862DOPC   C3A23990  22.379  24.599  11.152  0.0962  0.1254  0.3328
65862DOPC   C4A23991  22.097  24.905  11.218 -0.2130  0.3320 -0.0318
65862DOPC   C1B23992  22.889  24.823  11.611  0.2853 -0.0853  0.2382
65862DOPC   D2B23993  22.451  24.804  11.716 -0.0394 -0.6989  0.1039
65862DOPC   C3B23994  22.106  24.528  11.654 -0.2683  0.0838 -0.0496
65862DOPC   C4B23995  21.688  24.424  11.578 -0.0263 -0.1029 -0.1635
65863DOPC   NC323996   3.215  17.129  13.838  0.1611 -0.2181  0.2962
65863DOPC   PO423997   3.357  17.360  13.455 -0.0857  0.1499 -0.1639
65863DOPC   GL123998   3.669  17.050  13.362 -0.1340  0.0015  0.1581
65863DOPC   GL223999   3.759  16.895  13.619  0.0147 -0.3524  0.0110
65863DOPC   C1A24000   4.021  16.897  13.250  0.1218  0.0353  0.1312
65863DOPC   D2A24001   4.281  16.724  13.059 -0.0483 -0.0777  0.1872
65863DOPC   C3A24002   4.479  16.601  12.712 -0.0692  0.3174  0.0567
65863DOPC   C4A24003   4.903  16.723  12.562 -0.1440 -0.3128 -0.2580
65863DOPC   C1B24004   3.974  16.494  13.513 -0.2206  0.4356 -0.1558
65863DOPC   D2B24005   4.139  16.220  13.344  0.1163  0.1153  0.2659
65863DOPC   C3B24006   4.445  16.236  13.222  0.1139  0.4625  0.0228
65863DOPC   C4B24007   4.800  16.201  12.980 -0.0294 -0.1478 -0.2769
65864DOPC   NC324008  34.687  25.513  13.474 -0.0716  0.2483 -0.1238
65864DOPC   PO424009  34.955  25.604  13.175 -0.0247  0.3147 -0.1702
65864DOPC   GL124010  35.220  25.742  13.202  0.5580  0.1931  0.1465
65864DOPC   GL224011  35.241  25.889  12.868 -0.1281  0.1134  0.1713
65864DOPC   C1A24012   0.192  25.597  13.421 -0.2546  0.0318  0.0197
65864DOPC   D2A24013   0.430  25.473  13.656 -0.1929  0.0494  0.2207
65864DOPC   C3A24014   0.816  25.421  13.536 -0.1006 -0.3216  0.0106
65864DOPC   C4A24015   1.067  25.129  13.170 -0.1837  0.2320  0.0513
65864DOPC   C1B24016   0.353  26.032  12.995  0.3794 -0.1686  0.1312
65864DOPC   D2B24017   0.720  26.066  12.690 -0.0628 -0.1688 -0.0370
65864DOPC   C3B24018   1.204  25.840  12.808 -0.0021 -0.3663  0.0085
65864DOPC   C4B24019   1.291  25.539  13.085 -0.2025 -0.1093  0.1162
65865DOPC   NC324020   5.908  15.104  16.773  0.1616  0.0091  0.1065
65865DOPC   PO424021   6.144  15.252  17.027  0.1405 -0.1262 -0.0742
65865DOPC   GL124022   6.384  15.082  16.604  0.2278 -0.0195 -0.0215
65865DOPC   GL224023   6.115  14.916  16.346  0.0366  0.0482 -0.0822
65865DOPC   C1A24024   6.574  15.153  16.260 -0.2184 -0.1030 -0.1055
65865DOPC   D2A24025   6.774  15.251  15.824  0.2432 -0.3239  0.0648
65865DOPC   C3A24026   6.565  15.158  15.568 -0.1986 -0.2062 -0.1654
65865DOPC   C4A24027   6.527  15.144  15.216 -0.0872  0.1465  0.0942
65865DOPC   C1B24028   6.216  15.051  15.889  0.2110  0.2054  0.2676
65865DOPC   D2B24029   6.348  14.742  15.509  0.1483  0.4817  0.0995
65865DOPC   C3B24030   6.236  14.721  15.032 -0.2502  0.1207 -0.0521
65865DOPC   C4B24031   5.960  14.680  14.675 -0.0090 -0.0739  0.0480
65866DOPC   NC324032   0.127  23.746  11.472  0.3650  0.1825  0.1015
65866DOPC   PO424033   0.462  23.427  11.448  0.2447  0.1475  0.0087
65866DOPC   GL124034   0.849  23.612  11.491 -0.1070  0.1396  0.1037
65866DOPC   GL224035   0.904  23.711  11.211  0.2021  0.0102 -0.4608
65866DOPC   C1A24036   1.276  23.705  11.636  0.1363  0.3271  0.0071
65866DOPC   D2A24037   1.578  24.004  11.498  0.2900 -0.2020  0.1272
65866DOPC   C3A24038   1.883  24.336  11.528  0.1465 -0.4141 -0.0061
65866DOPC   C4A24039   2.133  24.596  11.568 -0.0981  0.2141  0.0111
65866DOPC   C1B24040   1.171  24.071  11.211  0.1398 -0.1762  0.2384
65866DOPC   D2B24041   1.505  24.413  11.160  0.0307  0.1083  0.1366
65866DOPC   C3B24042   1.608  24.772  11.404 -0.1888 -0.1218  0.0827
65866DOPC   C4B24043   1.608  25.163  11.670  0.0293  0.0916  0.0404
65867DOPC   NC324044  34.282  29.740  13.291 -0.1985  0.1536  0.1850
65867DOPC   PO424045  34.211  29.808  13.711 -0.0632 -0.0082 -0.0513
65867DOPC   GL124046  34.673  29.647  13.638  0.1816  0.2939  0.1260
65867DOPC   GL224047  34.832  29.463  13.684 -0.1242  0.1530 -0.0649
65867DOPC   C1A24048  35.126  29.706  13.397  0.1111  0.0363 -0.0720
65867DOPC   D2A24049   0.169  29.753  13.261 -0.0442  0.0221 -0.0788
65867DOPC   C3A24050   0.530  29.767  13.455 -0.0503  0.2503  0.0449
65867DOPC   C4A24051   0.847  29.984  13.694  0.0225  0.0616 -0.0154
65867DOPC   C1B24052  35.149  29.096  13.616 -0.0474  0.1366 -0.0418
65867DOPC   D2B24053  35.227  28.790  13.334 -0.2895  0.2581 -0.1669
65867DOPC   C3B24054   0.116  28.793  13.080 -0.6209 -0.1611 -0.1496
65867DOPC   C4B24055   0.483  28.552  12.905 -0.0657  0.1740 -0.0434
65868DOPC   NC324056  33.060  16.153   5.753 -0.0143 -0.3858  0.0518
65868DOPC   PO424057  33.174  16.126   5.366  0.1407  0.0173  0.1737
65868DOPC   GL124058  33.263  15.971   4.928 -0.1156 -0.3428 -0.1107
65868DOPC   GL224059  32.941  15.896   4.921  0.3184 -0.1759 -0.0668
65868DOPC   C1A24060  33.479  15.956   4.583 -0.1053 -0.2463 -0.0188
65868DOPC   D2A24061  33.582  15.943   4.177  0.0534  0.3581  0.0697
65868DOPC   C3A24062  33.719  15.520   3.985 -0.2592  0.3536 -0.0823
65868DOPC   C4A24063  33.581  15.049   3.993  0.0192 -0.1682  0.0873
65868DOPC   C1B24064  32.998  15.781   4.453 -0.1045  0.2057  0.1917
65868DOPC   D2B24065  33.132  15.740   4.093 -0.0687 -0.3694  0.0631
65868DOPC   C3B24066  33.190  15.902   3.771  0.1127 -0.0176  0.0683
65868DOPC   C4B24067  33.185  16.172   3.435  0.2024 -0.0672  0.0594
65869DOPC   NC324068  33.051  35.311  12.955  0.0859  0.1288 -0.3708
65869DOPC   PO424069  33.099  35.042  12.631 -0.1237 -0.0088  0.0376
65869DOPC   GL124070  33.126  34.937  12.133 -0.0777  0.1411 -0.0862
65869DOPC   GL224071  32.877  34.946  11.918  0.0234 -0.3535 -0.1793
65869DOPC   C1A24072  33.346  34.832  11.752 -0.2744  0.2450 -0.1218
65869DOPC   D2A24073  33.391  34.920  11.389  0.1052  0.1569 -0.2463
65869DOPC   C3A24074  33.456  34.731  11.022  0.0423 -0.0662 -0.0245
65869DOPC   C4A24075  33.291  35.008  10.680 -0.2452 -0.0353  0.0223
65869DOPC   C1B24076  32.947  35.185  11.509 -0.1673 -0.2983 -0.1517
65869DOPC   D2B24077  32.957  35.189  11.102  0.1122 -0.0672 -0.0511
65869DOPC   C3B24078  32.977   0.047  10.740  0.3777  0.0004  0.1328
65869DOPC   C4B24079  33.107  35.214  10.297 -0.1211 -0.1218  0.0282
65870DOPC   NC324080  15.390   6.883  18.346 -0.0544  0.2177 -0.3963
65870DOPC   PO424081  15.568   7.218  18.008  0.1006 -0.0447 -0.1862
65870DOPC   GL124082  15.341   7.345  17.663 -0.1355 -0.2426 -0.1603
65870DOPC   GL224083  15.607   7.144  17.541 -0.1236 -0.1348 -0.4518
65870DOPC   C1A24084  15.221   7.581  17.396 -0.1708  0.1312  0.2827
65870DOPC   D2A24085  14.976   7.589  17.134  0.1218 -0.1167  0.1151
65870DOPC   C3A24086  15.077   7.352  16.842  0.0139 -0.0341  0.0314
65870DOPC   C4A24087  15.389   7.085  16.634  0.0530 -0.2523  0.1659
65870DOPC   C1B24088  15.553   7.366  17.062  0.1174  0.2514  0.0237
65870DOPC   D2B24089  15.610   7.520  16.727 -0.1563 -0.3126  0.1628
65870DOPC   C3B24090  15.327   7.483  16.334 -0.4582  0.0796  0.2088
65870DOPC   C4B24091  15.091   7.614  16.022  0.0636  0.3257 -0.0408
65871PAPC   NC324092  25.242   8.920  11.284  0.1884 -0.1405 -0.0011
65871PAPC   PO424093  25.185   8.413  11.198  0.2758  0.0757  0.1027
65871PAPC   GL124094  24.827   8.674  11.042  0.1571  0.3080 -0.1507
65871PAPC   GL224095  24.794   8.897  10.819  0.0134  0.0289  0.1140
65871PAPC   D1A24096  24.427   8.863  11.244 -0.2864 -0.0862  0.1824
65871PAPC   D2A24097  24.402   8.752  11.743  0.0066 -0.2981 -0.0986
65871PAPC   D3A24098  24.130   8.548  11.494 -0.1354  0.0989 -0.0848
65871PAPC   D4A24099  23.893   8.301  11.627 -0.1766 -0.0436  0.0394
65871PAPC   C5A24100  23.822   7.977  11.876 -0.3052  0.0889 -0.0159
65871PAPC   C1B24101  24.364   8.920  10.709 -0.1165  0.0896  0.3485
65871PAPC   C2B24102  23.978   8.960  10.622 -0.2966  0.0449 -0.2124
65871PAPC   C3B24103  23.511   8.985  10.692  0.0531  0.2199 -0.0169
65871PAPC   C4B24104  23.042   8.845  10.776 -0.0129 -0.2010  0.0088
65872PAPC   NC324105   4.383   4.006  17.699 -0.0670  0.0711 -0.3465
65872PAPC   PO424106   4.363   3.988  17.315  0.0107  0.0352 -0.0320
65872PAPC   GL124107   4.807   3.779  17.189  0.0355  0.2069  0.0383
65872PAPC   GL224108   4.913   3.839  17.559 -0.0362 -0.0510 -0.2225
65872PAPC   D1A24109   4.999   3.399  17.270 -0.0571  0.2877  0.1673
65872PAPC   D2A24110   5.270   3.347  16.954 -0.0094  0.0756 -0.2343
65872PAPC   D3A24111   5.380   3.751  17.031  0.4722 -0.3998 -0.1611
65872PAPC   D4A24112   5.098   4.085  16.839  0.2238  0.0247  0.3111
65872PAPC   C5A24113   5.201   4.462  16.797 -0.0913  0.0060  0.1212
65872PAPC   C1B24114   5.186   4.179  17.396  0.1175  0.3401  0.0203
65872PAPC   C2B24115   5.587   4.211  17.039  0.0339  0.2687  0.0914
65872PAPC   C3B24116   5.580   4.146  16.658  0.2357  0.3716  0.3825
65872PAPC   C4B24117   5.460   4.088  16.200 -0.1654  0.1298  0.2126
65873PAPC   NC324118  10.856  29.066  21.789  0.1178  0.1492 -0.0109
65873PAPC   PO424119  10.877  28.907  21.438  0.0839 -0.1327 -0.0484
65873PAPC   GL124120  10.800  28.590  21.374 -0.0772  0.0243  0.2906
65873PAPC   GL224121  11.088  28.371  21.340 -0.0169 -0.1695 -0.2502
65873PAPC   D1A24122  10.369  28.554  21.179 -0.2077 -0.3546  0.0889
65873PAPC   D2A24123   9.960  28.356  20.958 -0.0812 -0.1432  0.2712
65873PAPC   D3A24124  10.361  28.221  20.774  0.0146  0.1405  0.3113
65873PAPC   D4A24125  10.633  27.892  20.581 -0.0902 -0.1491 -0.0072
65873PAPC   C5A24126  10.792  27.615  20.259  0.1763 -0.1634  0.0993
65873PAPC   C1B24127  11.141  28.395  20.876 -0.1834 -0.2938 -0.0080
65873PAPC   C2B24128  11.026  28.152  20.584 -0.4548  0.3132 -0.1786
65873PAPC   C3B24129  10.927  28.083  20.153  0.0836 -0.1330  0.0895
65873PAPC   C4B24130  11.080  28.043  19.808  0.1298  0.2010  0.0610
65874PAPC   NC324131   3.577  16.355  15.454 -0.2414  0.0078  0.0503
65874PAPC   PO424132   3.890  16.456  15.163 -0.0225  0.0207  0.1657
65874PAPC   GL124133   4.162  16.848  15.066  0.1860  0.1571  0.1893
65874PAPC   GL224134   4.110  17.132  15.052 -0.1719  0.0112 -0.3100
65874PAPC   D1A24135   4.584  16.944  14.815  0.0691  0.1941  0.2417
65874PAPC   D2A24136   4.645  16.521  14.893  0.0074 -0.0396 -0.1901
65874PAPC   D3A24137   4.658  16.242  14.557  0.0734  0.2014  0.2551
65874PAPC   D4A24138   4.549  16.405  14.151  0.1724  0.2397  0.0544
65874PAPC   C5A24139   4.863  16.470  13.854 -0.2884 -0.0241 -0.1985
65874PAPC   C1B24140   4.200  17.086  14.587 -0.2857 -0.1745  0.2105
65874PAPC   C2B24141   4.450  16.878  14.235 -0.0912 -0.1810  0.1771
65874PAPC   C3B24142   4.781  17.078  14.103  0.1772  0.0240 -0.1965
65874PAPC   C4B24143   5.047  16.941  13.683 -0.1180 -0.2044  0.0448
65875PAPC   NC324144  25.639  30.955  10.431 -0.0443  0.2684  0.2204
65875PAPC   PO424145  25.740  30.714  10.132 -0.0127 -0.1413 -0.0344
65875PAPC   GL124146  25.990  30.718   9.806 -0.0332 -0.1904 -0.2319
65875PAPC   GL224147  26.171  30.493   9.589  0.0893  0.0641 -0.1848
65875PAPC   D1A24148  26.324  30.962   9.587 -0.0716  0.0431 -0.1275
65875PAPC   D2A24149  26.334  30.962   9.248 -0.0385 -0.1346 -0.1376
65875PAPC   D3A24150  26.787  30.979   9.287  0.0665  0.0507 -0.0452
65875PAPC   D4A24151  26.718  30.852   8.946  0.1657  0.0992  0.1933
65875PAPC   C5A24152  26.677  30.881   8.517  0.1435  0.0860 -0.3202
65875PAPC   C1B24153  25.896  30.636   9.240 -0.2144  0.2166 -0.1622
65875PAPC   C2B24154  25.849  30.692   8.784  0.0953  0.1925 -0.1075
65875PAPC   C3B24155  25.562  30.702   8.414 -0.0497  0.1794 -0.0354
65875PAPC   C4B24156  25.405  30.725   7.993 -0.0665  0.1069  0.2461
65876PAPC   NC324157  24.252  10.803  12.830  0.0560 -0.1339  0.0664
65876PAPC   PO424158  23.870  11.021  12.927 -0.0446  0.0825 -0.1212
65876PAPC   GL124159  23.488  11.008  12.740 -0.2404 -0.3969 -0.1027
65876PAPC   GL224160  23.203  10.964  12.973 -0.0251 -0.0151  0.1339
65876PAPC   D1A24161  23.291  10.768  12.527 -0.0849  0.1904 -0.4075
65876PAPC   D2A24162  23.339  10.396  12.418  0.1019 -0.0176 -0.0122
65876PAPC   D3A24163  23.655  10.235  12.137 -0.0377 -0.0709  0.2385
65876PAPC   D4A24164  23.721  10.410  11.711 -0.1353  0.3326  0.1572
65876PAPC   C5A24165  23.454  10.546  11.449  0.0088 -0.1769  0.3834
65876PAPC   C1B24166  22.816  10.956  12.693  0.2324  0.2542 -0.0656
65876PAPC   C2B24167  22.615  11.269  12.463  0.0330 -0.0569  0.0554
65876PAPC   C3B24168  22.304  11.356  12.349  0.1554 -0.3492  0.3897
65876PAPC   C4B24169  22.137  11.619  12.230 -0.0386 -0.0792 -0.0641
65877PAPC   NC324170  17.481  25.082  20.857 -0.0356  0.0307 -0.1755
65877PAPC   PO424171  17.582  24.792  20.487 -0.3305 -0.0877 -0.0726
65877PAPC   GL124172  17.585  25.109  20.291 -0.3207 -0.0197 -0.1039
65877PAPC   GL224173  17.512  25.097  19.966 -0.0524 -0.0810  0.0456
65877PAPC   D1A24174  17.403  25.548  20.210  0.4674 -0.2560  0.3337
65877PAPC   D2A24175  16.945  25.470  20.093 -0.0338 -0.3686 -0.1575
65877PAPC   D3A24176  17.116  25.344  19.844 -0.0473 -0.2878 -0.0175
65877PAPC   D4A24177  17.385  25.593  19.744 -0.1052  0.0299  0.1285
65877PAPC   C5A24178  17.573  25.517  19.334  0.1924  0.2183  0.2200
65877PAPC   C1B24179  17.397  24.981  19.594 -0.2936 -0.0785  0.3112
65877PAPC   C2B24180  17.082  25.123  19.270 -0.2740  0.1764  0.1731
65877PAPC   C3B24181  17.016  25.474  19.096 -0.0324  0.3672  0.1042
65877PAPC   C4B24182  17.122  25.821  19.322  0.0088 -0.0887  0.4816
65878PAPC   NC324183  24.445  24.166  11.278  0.1684  0.5992  0.0312
65878PAPC   PO424184  24.255  24.448  10.897  0.1317 -0.0933 -0.0390
65878PAPC   GL124185  23.923  24.698  10.648  0.2215 -0.1493 -0.0332
65878PAPC   GL224186  23.650  24.673  10.844 -0.0248  0.0323 -0.1796
65878PAPC   D1A24187  24.025  24.929  10.290 -0.1327  0.3208 -0.2027
65878PAPC   D2A24188  23.951  25.296  10.459  0.0663 -0.0838  0.3185
65878PAPC   D3A24189  23.511  25.135  10.716 -0.4145  0.0138  0.1844
65878PAPC   D4A24190  23.369  25.020  10.366  0.1340 -0.0181 -0.1766
65878PAPC   C5A24191  23.119  25.084  10.095  0.0196  0.0345 -0.0931
65878PAPC   C1B24192  23.290  24.644  10.715  0.4138  0.0547  0.0653
65878PAPC   C2B24193  23.008  24.842  10.578  0.0646 -0.2761 -0.1866
65878PAPC   C3B24194  22.671  25.110  10.368 -0.0087  0.0192  0.1932
65878PAPC   C4B24195  22.289  25.286  10.256 -0.0297 -0.1254 -0.0751
65879DAPC   NC324196  30.580   2.851  11.136  0.1950  0.2351  0.2642
65879DAPC   PO424197  30.148   2.628  11.064  0.3291 -0.0533 -0.2645
65879DAPC   GL124198  30.357   2.675  10.715 -0.1172 -0.2420 -0.1598
65879DAPC   GL224199  30.228   2.608  10.435  0.2006 -0.4334 -0.0436
65879DAPC   D1A24200  30.789   2.631  10.587  0.1063  0.0580  0.0888
65879DAPC   D2A24201  30.980   2.758  10.991 -0.1678  0.0027  0.0728
65879DAPC   D3A24202  30.752   2.385  11.135 -0.3658  0.2378  0.1583
65879DAPC   D4A24203  31.158   2.185  11.026  0.2304  0.0367  0.0543
65879DAPC   C5A24204  31.102   2.241  10.589  0.2999  0.0704 -0.4320
65879DAPC   D1B24205  29.850   2.871  10.581 -0.0925 -0.0018  0.1646
65879DAPC   D2B24206  29.706   2.907  10.206  0.1744 -0.3992 -0.0092
65879DAPC   D3B24207  29.240   2.826   9.992 -0.4891 -0.3298 -0.2498
65879DAPC   D4B24208  29.536   2.712   9.620  0.3355 -0.1253 -0.0991
65879DAPC   C5B24209  29.463   2.705   9.147  0.1479 -0.0267 -0.0565
65880DAPC   NC324210  24.193  20.830  12.203  0.1974  0.1325  0.2303
65880DAPC   PO424211  23.967  20.410  12.042 -0.0981  0.0621 -0.0355
65880DAPC   GL124212  23.953  20.663  11.671 -0.4527  0.0860  0.1040
65880DAPC   GL224213  23.857  20.952  11.810 -0.1070  0.1056  0.0599
65880DAPC   D1A24214  23.766  20.897  11.342 -0.1044 -0.1537  0.0076
65880DAPC   D2A24215  23.475  21.109  10.995  0.4057  0.1819 -0.3828
65880DAPC   D3A24216  23.610  21.406  11.404  0.0820 -0.0273 -0.0511
65880DAPC   D4A24217  23.144  21.379  11.391 -0.0444  0.3059 -0.0544
65880DAPC   C5A24218  22.739  21.543  11.525 -0.0300 -0.0330  0.5328
65880DAPC   D1B24219  23.402  21.132  11.751  0.2242 -0.1102  0.2038
65880DAPC   D2B24220  23.343  21.146  12.125 -0.2814  0.3491 -0.2309
65880DAPC   D3B24221  23.070  20.829  12.138 -0.1088 -0.1456  0.0444
65880DAPC   D4B24222  22.763  21.065  12.114 -0.0814 -0.1846 -0.2360
65880DAPC   C5B24223  22.477  21.105  11.843 -0.0524 -0.0824 -0.1260
65881DAPC   NC324224   4.228  22.088  18.676 -0.2959 -0.0776  0.1181
65881DAPC   PO424225   4.415  22.409  18.383 -0.2413 -0.0560 -0.3570
65881DAPC   GL124226   4.631  22.480  17.972 -0.1196  0.1368  0.2185
65881DAPC   GL224227   4.627  22.303  17.673 -0.1184 -0.1254 -0.1099
65881DAPC   D1A24228   4.628  22.772  17.737 -0.0967  0.2775 -0.0541
65881DAPC   D2A24229   4.758  23.174  17.993 -0.1804 -0.3161  0.2565
65881DAPC   D3A24230   4.590  23.206  18.377  0.3387 -0.0764  0.0430
65881DAPC   D4A24231   4.999  23.438  18.465 -0.3815  0.0447  0.0416
65881DAPC   C5A24232   5.195  23.613  18.834 -0.2208 -0.0554  0.4331
65881DAPC   D1B24233   4.977  22.408  17.435  0.1024  0.0224 -0.0206
65881DAPC   D2B24234   4.716  22.080  17.126 -0.2740  0.3399  0.0545
65881DAPC   D3B24235   5.020  22.015  16.838 -0.1531 -0.1485 -0.1212
65881DAPC   D4B24236   5.135  21.774  17.226 -0.1661  0.2922  0.4150
65881DAPC   C5B24237   4.908  21.905  17.539  0.1260 -0.1268  0.4016
65882DAPC   NC324238  22.513   9.604  15.070 -0.2528  0.5317 -0.2093
65882DAPC   PO424239  22.143   9.767  15.036  0.0061  0.3160 -0.0713
65882DAPC   GL124240  21.796  10.285  14.977 -0.2834 -0.2115  0.0695
65882DAPC   GL224241  21.520  10.269  14.707  0.3185  0.0672  0.2641
65882DAPC   D1A24242  21.344  10.431  15.218  0.0222  0.1693  0.0706
65882DAPC   D2A24243  20.927  10.156  15.098  0.3710  0.2964 -0.2474
65882DAPC   D3A24244  21.027   9.969  14.681 -0.2488  0.0994  0.0848
65882DAPC   D4A24245  20.915   9.729  14.299  0.1560 -0.1839  0.0001
65882DAPC   C5A24246  20.575   9.605  14.301 -0.0334  0.0639  0.1099
65882DAPC   D1B24247  21.085  10.513  14.733 -0.1811  0.2026 -0.0572
65882DAPC   D2B24248  20.622  10.432  14.812  0.1736 -0.2001  0.1809
65882DAPC   D3B24249  20.679  10.212  14.408  0.1198  0.0669  0.1825
65882DAPC   D4B24250  20.850  10.402  14.028 -0.1296  0.0805 -0.0067
65882DAPC   C5B24251  21.098  10.402  13.722  0.2234 -0.2062  0.0036
65883DAPC   NC324252  35.353  32.624  15.262 -0.2333 -0.3215  0.1284
65883DAPC   PO424253  34.979  32.337  15.179  0.3672  0.0733  0.0951
65883DAPC   GL124254  35.230  32.456  14.803 -0.5235  0.0500 -0.2566
65883DAPC   GL224255   0.099  32.460  14.809 -0.1449 -0.2128  0.1552
65883DAPC   D1A24256  35.384  32.691  14.385 -0.2490  0.1440 -0.0945
65883DAPC   D2A24257  35.077  32.839  14.027 -0.1142  0.0712  0.1469
65883DAPC   D3A24258   0.105  32.993  13.946  0.3817 -0.2963 -0.1159
65883DAPC   D4A24259   0.203  33.335  13.594 -0.1572 -0.0369  0.0469
65883DAPC   C5A24260   0.563  33.104  13.350  0.3307  0.1612  0.1379
65883DAPC   D1B24261   0.296  32.877  14.849 -0.2112 -0.3611  0.0916
65883DAPC   D2B24262   0.154  33.145  14.422 -0.1757 -0.2729  0.2512
65883DAPC   D3B24263  35.149  33.197  14.320  0.3206 -0.0732  0.1346
65883DAPC   D4B24264  35.053  33.467  14.053  0.2107 -0.2071 -0.2437
65883DAPC   C5B24265  35.133  33.382  13.759 -0.0735  0.1550  0.1745
65884DAPC   NC324266  19.487  17.452  17.423  0.0032  0.3717 -0.2341
65884DAPC   PO424267  19.415  16.999  17.451  0.0887  0.0506 -0.0037
65884DAPC   GL124268  19.221  17.089  17.051 -0.1112  0.0795  0.2571
65884DAPC   GL224269  19.133  17.283  17.057  0.0302  0.2147 -0.0911
65884DAPC   D1A24270  18.840  17.093  16.749 -0.2345 -0.1699 -0.3245
65884DAPC   D2A24271  18.600  17.221  16.421 -0.2067 -0.0552  0.1554
65884DAPC   D3A24272  18.261  17.246  16.077 -0.0215  0.1227 -0.0989
65884DAPC   D4A24273  18.479  17.421  15.769 -0.1956  0.1066 -0.2722
65884DAPC   C5A24274  18.719  17.561  16.065 -0.4260  0.0972 -0.1149
65884DAPC   D1B24275  19.513  17.471  16.859 -0.1521  0.1382  0.1269
65884DAPC   D2B24276  19.345  17.827  17.072  0.0909 -0.1490  0.2986
65884DAPC   D3B24277  19.093  18.055  16.806 -0.0378 -0.0917  0.0357
65884DAPC   D4B24278  19.394  18.211  16.591 -0.0932  0.0129 -0.0790
65884DAPC   C5B24279  19.744  18.158  16.847  0.3181 -0.0761  0.2282
65885DAPC   NC324280   9.443   0.708  20.205  0.3077  0.0468 -0.1220
65885DAPC   PO424281   9.627   0.392  20.324  0.0875 -0.0569 -0.1940
65885DAPC   GL124282   9.399   0.047  19.994 -0.3776  0.1662 -0.0688
65885DAPC   GL224283   9.209   0.242  19.938  0.0954 -0.2339  0.0333
65885DAPC   D1A24284   9.201  35.172  19.766  0.0437  0.0799 -0.3943
65885DAPC   D2A24285   9.443  35.052  19.384  0.0638 -0.1872  0.3958
65885DAPC   D3A24286   9.413  35.201  18.994  0.0129 -0.1957 -0.1034
65885DAPC   D4A24287   9.121  34.808  19.038 -0.0935 -0.1509  0.3190
65885DAPC   C5A24288   9.066  34.820  19.479  0.2059  0.0540 -0.1819
65885DAPC   D1B24289   8.813   0.106  19.671  0.0717 -0.0791  0.0855
65885DAPC   D2B24290   8.494   0.415  19.715  0.1290 -0.0467 -0.0223
65885DAPC   D3B24291   8.731   0.603  19.476 -0.0689 -0.1161  0.0182
65885DAPC   D4B24292   9.001   0.417  19.183  0.3159 -0.2143 -0.3927
65885DAPC   C5B24293   9.284   0.159  19.434  0.1579  0.1522 -0.2114
65886POPE   NH324294  30.554  27.711   9.974  0.0676  0.0404 -0.1737
65886POPE   PO424295  30.985  27.880   9.968  0.1380  0.1343 -0.0998
65886POPE   GL124296  31.267  28.091   9.677  0.0367 -0.0186 -0.0857
65886POPE   GL224297  31.100  27.989   9.378 -0.2072 -0.0672  0.0743
65886POPE   C1A24298  31.591  28.252   9.390  0.0278 -0.1199 -0.0494
65886POPE   D2A24299  31.695  28.294   8.986  0.0215  0.0220 -0.0757
65886POPE   C3A24300  31.936  28.538   8.938 -0.1056  0.1969  0.3186
65886POPE   C4A24301  32.204  28.757   8.919 -0.0488 -0.1138  0.0053
65886POPE   C1B24302  31.192  28.299   8.965 -0.3758  0.2602  0.0862
65886POPE   C2B24303  31.400  28.476   8.617 -0.0426 -0.0564  0.3475
65886POPE   C3B24304  31.696  28.459   8.302 -0.1541 -0.1200 -0.1579
65886POPE   C4B24305  31.604  28.362   7.830  0.0990 -0.0401  0.1626
65887POPE   NH324306  26.392  20.909   5.415 -0.0975 -0.0419  0.1402
65887POPE   PO424307  26.589  21.332   5.453 -0.3072 -0.0138 -0.0120
65887POPE   GL124308  26.150  21.356   5.511  0.1185 -0.0623 -0.2401
65887POPE   GL224309  25.958  21.193   5.308 -0.4433  0.0334 -0.1648
65887POPE   C1A24310  25.908  21.730   5.542 -0.0763 -0.1351 -0.0594
65887POPE   D2A24311  25.520  21.870   5.453 -0.0067  0.0252 -0.0149
65887POPE   C3A24312  25.215  21.723   5.099  0.1262  0.1922  0.1793
65887POPE   C4A24313  24.879  21.536   4.899 -0.0082 -0.0114  0.0245
65887POPE   C1B24314  25.586  21.324   5.139 -0.1021 -0.0696 -0.0050
65887POPE   C2B24315  25.325  21.199   4.993  0.1144  0.2468  0.0812
65887POPE   C3B24316  25.139  21.173   4.613  0.1502  0.1901  0.0145
65887POPE   C4B24317  24.978  21.036   4.243  0.0006  0.2365 -0.0081
65888POPE   NH324318  28.819  32.276  10.245 -0.1380  0.1025 -0.2133
65888POPE   PO424319  29.134  32.311  10.108 -0.0189 -0.1117 -0.3170
65888POPE   GL124320  29.349  32.156   9.866 -0.0151  0.0453  0.0951
65888POPE   GL224321  29.289  31.750   9.807 -0.0207 -0.1529 -0.1092
65888POPE   C1A24322  29.450  32.137   9.511 -0.0552  0.2407 -0.0738
65888POPE   D2A24323  29.695  32.143   9.157  0.0165  0.1013 -0.1081
65888POPE   C3A24324  29.791  31.989   8.782  0.0769 -0.1753  0.2822
65888POPE   C4A24325  29.947  32.231   8.426  0.0976 -0.2406  0.0004
65888POPE   C1B24326  29.418  31.656   9.323  0.0929  0.0607  0.2600
65888POPE   C2B24327  29.414  31.650   8.832  0.2098  0.0006  0.0564
65888POPE   C3B24328  29.049  31.617   8.619  0.1148  0.2389  0.0481
65888POPE   C4B24329  28.947  31.299   8.338 -0.1123  0.0663  0.0384
65889POPE   NH324330  17.357  12.846  17.955 -0.3312  0.0102  0.3032
65889POPE   PO424331  17.716  12.572  18.163  0.0268 -0.1151 -0.0072
65889POPE   GL124332  17.553  12.476  17.706 -0.0988  0.0218  0.2815
65889POPE   GL224333  17.656  12.780  17.381 -0.5609 -0.3120 -0.2730
65889POPE   C1A24334  17.309  12.440  17.374  0.0068  0.3659 -0.1997
65889POPE   D2A24335  17.029  12.496  16.960 -0.0415  0.0729  0.1600
65889POPE   C3A24336  16.674  12.329  16.651  0.1641 -0.3004 -0.2042
65889POPE   C4A24337  16.470  12.004  16.479 -0.0916 -0.3402 -0.0077
65889POPE   C1B24338  17.356  12.877  16.998  0.3103 -0.2558 -0.0110
65889POPE   C2B24339  17.025  12.918  16.613 -0.0004  0.0934 -0.1092
65889POPE   C3B24340  16.743  13.020  16.376 -0.1224 -0.3879  0.1300
65889POPE   C4B24341  16.564  13.050  16.030  0.2023 -0.2405 -0.2981
65890POPE   NH324342  27.826  25.687   7.038  0.0482  0.0365 -0.1906
65890POPE   PO424343  27.500  25.390   6.970 -0.0522 -0.1955 -0.0211
65890POPE   GL124344  27.546  25.580   6.587 -0.1104 -0.7078  0.2226
65890POPE   GL224345  27.796  25.443   6.453  0.0914  0.0648 -0.4714
65890POPE   C1A24346  27.352  25.994   6.275 -0.3786 -0.0310 -0.0830
65890POPE   D2A24347  27.182  26.223   5.911 -0.0402 -0.0865 -0.0366
65890POPE   C3A24348  26.830  26.434   5.685  0.1557  0.1682  0.1279
65890POPE   C4A24349  26.719  26.406   5.309  0.0618  0.0339 -0.1224
65890POPE   C1B24350  27.693  25.715   6.084  0.1985  0.0854  0.1204
65890POPE   C2B24351  27.713  25.921   5.616 -0.2627  0.4026 -0.1515
65890POPE   C3B24352  27.507  26.033   5.254  0.1448 -0.1410 -0.0610
65890POPE   C4B24353  27.151  25.825   5.015  0.2678 -0.3498  0.5350
65891POPE   NH324354  31.049  29.394  10.358 -0.0625  0.1946  0.4703
65891POPE   PO424355  30.615  29.587  10.392  0.0773  0.3175  0.2805
65891POPE   GL124356  30.729  29.682  10.060 -0.2582 -0.1209 -0.0373
65891POPE   GL224357  30.807  29.379   9.873 -0.0134  0.3136 -0.3045
65891POPE   C1A24358  31.040  29.926   9.821 -0.0205 -0.1656 -0.1779
65891POPE   D2A24359  31.330  29.720   9.614  0.0833 -0.2085  0.2166
65891POPE   C3A24360  31.472  29.781   9.170 -0.1430  0.2482  0.0597
65891POPE   C4A24361  31.484  30.142   9.109 -0.0476  0.3066 -0.0687
65891POPE   C1B24362  31.129  29.219   9.583  0.1091  0.2423 -0.1207
65891POPE   C2B24363  31.362  29.325   9.187  0.0133 -0.2070 -0.3511
65891POPE   C3B24364  31.734  29.448   8.883 -0.0657  0.0183  0.0910
65891POPE   C4B24365  31.827  29.517   8.408 -0.1170  0.2921 -0.2122
65892POPE   NH324366  11.085  24.931  22.201 -0.2679 -0.3582  0.0782
65892POPE   PO424367  10.780  24.936  21.824 -0.4655 -0.0297 -0.2096
65892POPE   GL124368  10.989  25.282  21.578 -0.0925  0.0773  0.4055
65892POPE   GL224369  10.786  25.648  21.559  0.0463 -0.1558 -0.1595
65892POPE   C1A24370  10.968  25.293  21.153 -0.1239  0.4812  0.3338
65892POPE   D2A24371  11.301  25.433  20.916 -0.1906 -0.1522 -0.1710
65892POPE   C3A24372  11.315  25.851  20.644  0.4311  0.3594 -0.0537
65892POPE   C4A24373  11.523  25.840  20.334  0.1770 -0.1534  0.2066
65892POPE   C1B24374  10.711  25.731  21.151 -0.0560 -0.1222 -0.0231
65892POPE   C2B24375  10.864  25.646  20.747 -0.0527 -0.0268 -0.0285
65892POPE   C3B24376  10.851  25.903  20.386  0.0034 -0.0099  0.0774
65892POPE   C4B24377  10.771  25.724  20.001 -0.1420 -0.1292  0.0839
65893POPE   NH324378  28.284  32.226  10.029 -0.0661 -0.1521  0.0436
65893POPE   PO424379  27.997  32.580  10.073 -0.1466 -0.1005  0.1209
65893POPE   GL124380  28.125  32.401   9.626  0.1019  0.4631 -0.1872
65893POPE   GL224381  28.354  32.160   9.538  0.2466 -0.1338 -0.0247
65893POPE   C1A24382  28.243  32.483   9.162  0.0709  0.0559 -0.2607
65893POPE   D2A24383  28.247  32.525   8.727 -0.2635 -0.0323 -0.0119
65893POPE   C3A24384  28.548  32.633   8.433 -0.0063 -0.0368  0.0280
65893POPE   C4A24385  28.636  32.574   7.940 -0.1084 -0.3599  0.0558
65893POPE   C1B24386  28.435  32.045   9.231 -0.1276 -0.1162 -0.0154
65893POPE   C2B24387  28.532  31.987   8.778 -0.2312 -0.1669 -0.1527
65893POPE   C3B24388  28.552  32.168   8.339  0.1002 -0.1405 -0.2203
65893POPE   C4B24389  28.885  32.009   8.148 -0.2839  0.1429 -0.1373
65894POPE   NH324390   4.276  21.671  16.939 -0.0359  0.1231  0.1032
65894POPE   PO424391   4.109  21.484  16.530  0.4302  0.0468  0.3192
65894POPE   GL124392   4.466  21.653  16.458  0.1082 -0.0551  0.2898
65894POPE   GL224393   4.564  21.945  16.636 -0.4057 -0.0375  0.0347
65894POPE   C1A24394   4.694  21.450  16.206  0.0840 -0.0308 -0.0597
65894POPE   D2A24395   5.145  21.485  16.116 -0.1203 -0.0605 -0.0017
65894POPE   C3A24396   5.493  21.680  16.013 -0.0321 -0.0212 -0.0864
65894POPE   C4A24397   5.737  21.963  15.959 -0.0241  0.0321  0.0072
65894POPE   C1B24398   4.844  21.914  16.273  0.0741  0.3409  0.5597
65894POPE   C2B24399   5.240  22.046  16.110  0.1855  0.0734  0.0896
65894POPE   C3B24400   5.569  22.281  16.258  0.1125 -0.0670 -0.5093
65894POPE   C4B24401   6.024  22.314  16.241 -0.2177  0.0489 -0.2772
65895POPE   NH324402  22.100  22.512  16.037 -0.0459  0.0990 -0.0827
65895POPE   PO424403  21.944  22.857  15.762 -0.3987 -0.0218  0.0021
65895POPE   GL124404  21.810  22.896  15.309  0.1866  0.1453 -0.0535
65895POPE   GL224405  21.494  23.108  15.377 -0.1836 -0.2651  0.1386
65895POPE   C1A24406  21.511  22.743  15.018 -0.0394  0.0609  0.0362
65895POPE   D2A24407  21.326  22.735  14.594 -0.1011 -0.0192  0.1432
65895POPE   C3A24408  21.069  23.023  14.429  0.0225 -0.1215  0.5791
65895POPE   C4A24409  20.793  23.323  14.505  0.3046 -0.2946 -0.0768
65895POPE   C1B24410  21.151  23.089  14.977  0.3337 -0.0891 -0.0585
65895POPE   C2B24411  20.806  22.976  14.863 -0.0493  0.1532  0.0191
65895POPE   C3B24412  20.383  23.157  14.740 -0.2316 -0.1350 -0.1817
65895POPE   C4B24413  19.908  23.239  14.718  0.1103  0.3079 -0.1967
65896POPE   NH324414   2.187  21.842  11.136  0.1839  0.2582  0.0441
65896POPE   PO424415   2.504  22.026  11.057 -0.2685 -0.0313  0.0359
65896POPE   GL124416   2.637  22.365  11.093  0.2677  0.0286  0.0087
65896POPE   GL224417   2.532  22.565  10.912 -0.0285 -0.0762 -0.1415
65896POPE   C1A24418   3.061  22.633  11.049  0.1967 -0.0079  0.1194
65896POPE   D2A24419   3.440  22.888  10.957  0.1014  0.0081  0.3427
65896POPE   C3A24420   3.782  22.772  10.703  0.0565 -0.1607 -0.1504
65896POPE   C4A24421   3.997  22.958  10.390 -0.2254  0.1418 -0.0586
65896POPE   C1B24422   2.798  22.847  10.678  0.1983 -0.0224  0.2706
65896POPE   C2B24423   2.971  23.196  10.457 -0.0729 -0.0346  0.1547
65896POPE   C3B24424   2.877  23.615  10.210 -0.0409  0.0509 -0.1970
65896POPE   C4B24425   2.663  23.883   9.855 -0.0885  0.0963  0.2048
65897POPE   NH324426  15.552   2.381  16.869 -0.1008 -0.1964 -0.1882
65897POPE   PO424427  15.581   2.749  16.606  0.0860 -0.1429 -0.1284
65897POPE   GL124428  15.355   3.056  16.362 -0.0077 -0.1062 -0.1344
65897POPE   GL224429  15.508   3.393  16.367  0.3036 -0.0799  0.0355
65897POPE   C1A24430  15.164   3.032  15.993 -0.2665 -0.5690 -0.1121
65897POPE   D2A24431  15.178   3.070  15.485  0.1564 -0.2258 -0.2577
65897POPE   C3A24432  14.829   2.923  15.210  0.2165  0.3556 -0.0765
65897POPE   C4A24433  14.822   2.991  14.746 -0.0637  0.0576  0.1139
65897POPE   C1B24434  15.590   3.395  15.980  0.1787  0.0072  0.0767
65897POPE   C2B24435  15.524   3.834  15.749 -0.0941  0.0202 -0.0338
65897POPE   C3B24436  15.563   3.894  15.275 -0.3983 -0.0075 -0.0659
65897POPE   C4B24437  15.463   3.618  14.997  0.3003 -0.2109 -0.0080
65898POPE   NH324438  33.998  29.079  12.700  0.1454  0.0046 -0.2727
65898POPE   PO424439  34.117  29.300  13.113 -0.3980  0.0350 -0.0650
65898POPE   GL124440  34.362  29.395  12.755  0.0562  0.0850  0.2397
65898POPE   GL224441  34.137  29.519  12.387  0.0760  0.0069 -0.3824
65898POPE   C1A24442  34.787  29.463  12.607 -0.1683  0.0108 -0.0620
65898POPE   D2A24443  34.988  29.763  12.443  0.1611  0.0359 -0.1982
65898POPE   C3A24444  35.365  29.560  12.344 -0.0459  0.3456  0.1161
65898POPE   C4A24445   0.110  29.212  12.153 -0.2468 -0.1416  0.2353
65898POPE   C1B24446  34.476  29.745  12.292 -0.2820 -0.1590 -0.1998
65898POPE   C2B24447  34.761  29.918  12.031  0.1280 -0.0955  0.0773
65898POPE   C3B24448  35.013  29.960  11.714  0.3453 -0.2534 -0.0659
65898POPE   C4B24449  35.371  30.221  11.600 -0.2116 -0.0438 -0.1846
65899POPE   NH324450  24.180  19.443   9.759  0.0359  0.1849 -0.2387
65899POPE   PO424451  24.262  19.066   9.796 -0.0107 -0.0517 -0.1112
65899POPE   GL124452  24.052  19.030   9.424  0.0121 -0.0885  0.1489
65899POPE   GL224453  23.956  18.712   9.291 -0.1399  0.1171 -0.0634
65899POPE   C1A24454  23.713  19.125   9.129  0.1807 -0.1423 -0.2093
65899POPE   D2A24455  23.315  19.033   8.948 -0.0389 -0.2019 -0.4229
65899POPE   C3A24456  22.903  19.098   9.040 -0.2565 -0.2915 -0.1304
65899POPE   C4A24457  22.400  19.179   8.904  0.0386 -0.1430 -0.0854
65899POPE   C1B24458  23.687  18.644   9.041  0.1393 -0.2159 -0.2948
65899POPE   C2B24459  23.237  18.349   9.169 -0.3054  0.1375  0.1859
65899POPE   C3B24460  22.922  18.219   8.893 -0.0989 -0.2933 -0.2601
65899POPE   C4B24461  22.553  18.267   8.702 -0.0043  0.2362  0.0132
65900POPE   NH324462  29.189   0.302  10.659  0.1860  0.1744  0.0591
65900POPE   PO424463  28.940  35.262  10.817 -0.2965  0.0300  0.0532
65900POPE   GL124464  29.154  35.270  10.349 -0.0798  0.3402  0.5596
65900POPE   GL224465  29.215  34.820  10.241 -0.1963 -0.0629  0.2070
65900POPE   C1A24466  29.183  35.307   9.951 -0.0145  0.1711  0.3035
65900POPE   D2A24467  29.149  35.241   9.534  0.0237  0.2055 -0.2796
65900POPE   C3A24468  29.531  35.282   9.411 -0.2655  0.0047  0.0489
65900POPE   C4A24469  29.763  35.340   9.052  0.0774  0.0155  0.2995
65900POPE   C1B24470  29.239  34.834   9.861 -0.0406 -0.0744  0.2085
65900POPE   C2B24471  29.540  34.864   9.623 -0.0135 -0.0515  0.0196
65900POPE   C3B24472  29.816  34.718   9.368 -0.2138 -0.0876  0.1794
65900POPE   C4B24473  29.968  34.760   9.021 -0.1860 -0.1789  0.0921
65901POPE   NH324474  33.929  10.952   7.612  0.0847  0.0612  0.1091
65901POPE   PO424475  33.654  10.702   7.879 -0.1152  0.1005 -0.1634
65901POPE   GL124476  33.975  10.383   7.586 -0.0568  0.2580 -0.3317
65901POPE   GL224477  33.687  10.323   7.532 -0.0099  0.2182  0.1700
65901POPE   C1A24478  34.320  10.031   7.459 -0.1499  0.0892 -0.3075
65901POPE   D2A24479  34.587   9.752   7.368  0.0140  0.0513 -0.2630
65901POPE   C3A24480  34.573   9.347   7.347  0.2443 -0.0904 -0.2091
65901POPE   C4A24481  34.842   9.087   7.275 -0.2397 -0.1341 -0.0462
65901POPE   C1B24482  33.837  10.095   7.241  0.4020 -0.0576 -0.1790
65901POPE   C2B24483  34.098   9.996   6.954  0.1396 -0.0982 -0.4058
65901POPE   C3B24484  34.358   9.961   6.400  0.0031  0.0807  0.0136
65901POPE   C4B24485  34.379   9.994   5.978  0.3517 -0.1693 -0.3111
65902POPE   NH324486  15.569   6.127  17.369  0.0320 -0.1044  0.0263
65902POPE   PO424487  15.887   5.900  17.244 -0.3027  0.0571 -0.1045
65902POPE   GL124488  15.654   5.975  16.861 -0.1329 -0.2228 -0.1192
65902POPE   GL224489  15.594   6.251  16.898 -0.0979 -0.4036 -0.1898
65902POPE   C1A24490  15.421   6.070  16.466 -0.2256 -0.4248  0.0426
65902POPE   D2A24491  15.394   6.335  16.142  0.0245  0.0586 -0.1187
65902POPE   C3A24492  15.003   6.264  15.890  0.1053  0.4160 -0.1856
65902POPE   C4A24493  14.574   6.069  15.935 -0.1092 -0.2459 -0.0915
65902POPE   C1B24494  15.434   6.573  16.577 -0.0069 -0.2044 -0.0725
65902POPE   C2B24495  15.487   6.817  16.258  0.2015  0.3551  0.3017
65902POPE   C3B24496  15.622   7.004  15.839  0.2763  0.1305 -0.5405
65902POPE   C4B24497  15.733   6.826  15.479  0.0233 -0.0954  0.0348
65903POPE   NH324498  16.135   9.949  18.465 -0.0456 -0.1720  0.4358
65903POPE   PO424499  15.849   9.640  18.158  0.1887  0.2773 -0.2845
65903POPE   GL124500  15.724   9.884  17.768 -0.1275  0.2241  0.3112
65903POPE   GL224501  15.710  10.232  17.749  0.0434  0.2584  0.0839
65903POPE   C1A24502  15.671   9.955  17.353 -0.0380  0.0461 -0.0203
65903POPE   D2A24503  15.486  10.032  17.051 -0.0781 -0.1226 -0.2247
65903POPE   C3A24504  15.698   9.980  16.773  0.2967 -0.2863 -0.0236
65903POPE   C4A24505  15.597  10.238  16.385 -0.1526  0.2575  0.2421
65903POPE   C1B24506  15.944  10.379  17.530  0.2689  0.3382 -0.3178
65903POPE   C2B24507  16.107  10.564  17.203  0.0371 -0.1696 -0.0944
65903POPE   C3B24508  15.961  10.863  17.019 -0.0379 -0.1187  0.3622
65903POPE   C4B24509  15.644  10.992  16.927 -0.1126  0.2656 -0.1678
65904POPE   NH324510  24.194  17.777   7.689  0.0039  0.0587  0.1731
65904POPE   PO424511  24.474  18.097   7.542  0.0309 -0.0151 -0.0975
65904POPE   GL124512  24.067  18.093   7.293 -0.3270 -0.2571  0.1770
65904POPE   GL224513  24.142  18.327   7.158  0.1803  0.0281  0.1472
65904POPE   C1A24514  23.600  18.201   7.206 -0.1684 -0.0297  0.1374
65904POPE   D2A24515  23.392  18.553   7.353 -0.1432  0.3216  0.0987
65904POPE   C3A24516  22.996  18.564   7.192 -0.0725 -0.1436  0.2060
65904POPE   C4A24517  22.691  18.558   6.924  0.0543 -0.0415  0.1935
65904POPE   C1B24518  23.862  18.484   6.877 -0.0798  0.0064 -0.0057
65904POPE   C2B24519  23.298  18.560   6.823  0.1205  0.0978 -0.3192
65904POPE   C3B24520  23.085  18.624   6.545 -0.3682 -0.1184 -0.0461
65904POPE   C4B24521  22.813  18.529   6.219 -0.0731 -0.3863 -0.1339
65905POPE   NH324522   7.997   7.836  18.321 -0.0445 -0.1808  0.1658
65905POPE   PO424523   8.242   7.416  18.330 -0.2663 -0.0466  0.2205
65905POPE   GL124524   8.474   7.609  18.017 -0.2481  0.1735  0.1115
65905POPE   GL224525   8.652   7.825  17.938 -0.2271  0.1242 -0.2003
65905POPE   C1A24526   8.406   7.597  17.590  0.2070 -0.0870  0.2804
65905POPE   D2A24527   8.466   7.584  17.208 -0.0186  0.1219  0.2046
65905POPE   C3A24528   8.351   7.912  16.951 -0.1754  0.2195 -0.4710
65905POPE   C4A24529   8.452   8.058  16.608  0.0807 -0.0058  0.0796
65905POPE   C1B24530   8.727   8.042  17.548  0.0864  0.1314  0.1534
65905POPE   C2B24531   8.820   7.949  17.168 -0.3558 -0.0709 -0.0537
65905POPE   C3B24532   8.883   8.063  16.815  0.1834  0.3200  0.0605
65905POPE   C4B24533   8.861   8.147  16.385  0.0404  0.1534 -0.3458
65906POPE   NH324534  19.201  15.002  17.449 -0.1417  0.2629  0.1280
65906POPE   PO424535  18.877  15.274  17.275 -0.2783  0.3021  0.2351
65906POPE   GL124536  18.858  15.451  16.954  0.3048 -0.0208  0.2474
65906POPE   GL224537  18.520  15.405  16.953 -0.0386 -0.1387 -0.1796
65906POPE   C1A24538  18.930  15.343  16.568  0.5446  0.0554 -0.0132
65906POPE   D2A24539  18.692  15.278  16.164  0.3360 -0.0416 -0.0484
65906POPE   C3A24540  18.929  15.407  15.783 -0.2147  0.0633  0.0570
65906POPE   C4A24541  18.876  15.605  15.402  0.0608 -0.1661  0.1691
65906POPE   C1B24542  18.429  15.545  16.560  0.0941  0.0518  0.0711
65906POPE   C2B24543  18.213  15.857  16.418  0.1450  0.1124 -0.0624
65906POPE   C3B24544  18.086  16.116  16.158 -0.2680  0.0395 -0.0989
65906POPE   C4B24545  18.186  15.971  15.846  0.1693  0.0163  0.1295
65907POPE   NH324546  14.259   5.145  18.170  0.2933 -0.1528 -0.2213
65907POPE   PO424547  14.033   4.840  17.863 -0.0694 -0.1120  0.0731
65907POPE   GL124548  13.990   4.840  17.447  0.1062 -0.0787  0.0788
65907POPE   GL224549  13.731   4.674  17.284 -0.0595  0.0664  0.1397
65907POPE   C1A24550  13.954   4.905  16.947 -0.1938  0.1141 -0.0009
65907POPE   D2A24551  13.929   4.888  16.529  0.1163  0.2804  0.0395
65907POPE   C3A24552  13.762   4.720  16.325 -0.1377 -0.0336 -0.0910
65907POPE   C4A24553  13.589   4.771  15.939  0.4191  0.0754  0.2759
65907POPE   C1B24554  13.506   4.973  17.234 -0.1498 -0.1003  0.0861
65907POPE   C2B24555  13.193   5.165  17.133 -0.0731 -0.1780 -0.0134
65907POPE   C3B24556  12.832   5.179  16.807  0.1135  0.2443  0.0209
65907POPE   C4B24557  12.553   4.869  16.481  0.0671  0.0053 -0.1201
65908POPE   NH324558  32.833   0.678  12.448 -0.0177 -0.0920 -0.0377
65908POPE   PO424559  33.133   0.529  12.175 -0.0659  0.3102 -0.0563
65908POPE   GL124560  33.491   0.403  12.076  0.1566 -0.0049 -0.1490
65908POPE   GL224561  33.660   0.747  12.114 -0.0370  0.0231  0.0361
65908POPE   C1A24562  33.714   0.268  11.758  0.1788 -0.1727  0.4411
65908POPE   D2A24563  33.834   0.190  11.337 -0.1685  0.2479  0.2972
65908POPE   C3A24564  33.945   0.389  10.918 -0.1550 -0.1269 -0.1032
65908POPE   C4A24565  33.744   0.572  10.615  0.2054  0.0746  0.3662
65908POPE   C1B24566  34.046   0.607  11.800 -0.1841 -0.0154 -0.1079
65908POPE   C2B24567  34.236   0.544  11.394  0.1724  0.0779  0.0710
65908POPE   C3B24568  34.460   0.223  11.246 -0.1221  0.4252  0.3268
65908POPE   C4B24569  34.631  35.234  11.050  0.2254  0.4533  0.0798
65909POPE   NH324570  13.414   5.521  18.319  0.0605 -0.2753  0.4421
65909POPE   PO424571  13.433   5.908  18.220 -0.0524  0.3167  0.2746
65909POPE   GL124572  13.223   6.237  18.049 -0.0128 -0.1152  0.0419
65909POPE   GL224573  13.556   6.296  17.865  0.0880 -0.0566  0.1065
65909POPE   C1A24574  12.929   6.492  17.793 -0.2441 -0.3163 -0.0951
65909POPE   D2A24575  12.549   6.661  17.837 -0.1256 -0.1741  0.1511
65909POPE   C3A24576  12.270   6.502  17.602  0.1181 -0.0484 -0.4915
65909POPE   C4A24577  11.809   6.376  17.625  0.1583  0.0506  0.0961
65909POPE   C1B24578  13.503   6.490  17.416  0.0394 -0.1022 -0.4078
65909POPE   C2B24579  13.306   6.581  17.082  0.3619  0.1518 -0.0787
65909POPE   C3B24580  12.830   6.701  16.918  0.1753  0.0210 -0.3790
65909POPE   C4B24581  12.767   7.183  16.780 -0.0233 -0.0329 -0.2154
65910POPE   NH324582  12.225  31.988  20.862  0.0657 -0.2934 -0.3396
65910POPE   PO424583  12.331  31.559  20.664  0.1152  0.0888 -0.0430
65910POPE   GL124584  12.511  31.263  20.311 -0.2277 -0.0633  0.0413
65910POPE   GL224585  12.879  31.203  20.302  0.2474  0.3500  0.1897
65910POPE   C1A24586  12.472  30.976  20.032  0.0160 -0.2202 -0.0662
65910POPE   D2A24587  12.357  30.824  19.643 -0.0449  0.1050  0.1340
65910POPE   C3A24588  12.415  31.175  19.398 -0.1880  0.0481  0.2320
65910POPE   C4A24589  12.181  31.532  19.119 -0.5046  0.3468 -0.2828
65910POPE   C1B24590  12.962  31.031  19.908  0.1407  0.1302  0.3989
65910POPE   C2B24591  12.833  30.848  19.687 -0.1510 -0.2390 -0.0870
65910POPE   C3B24592  12.711  30.532  19.423 -0.1794 -0.4656  0.1849
65910POPE   C4B24593  12.385  30.667  19.086 -0.3705 -0.1900  0.3971
65911POPE   NH324594  30.266  29.417  10.068  0.0641  0.1819  0.0861
65911POPE   PO424595  30.480  28.948   9.989 -0.1033  0.1970  0.0655
65911POPE   GL124596  30.438  28.839   9.662 -0.3659  0.0435  0.0746
65911POPE   GL224597  30.739  28.933   9.573  0.2123  0.0614  0.0091
65911POPE   C1A24598  30.415  28.916   9.204  0.1494  0.3642  0.0950
65911POPE   D2A24599  30.553  29.102   8.780  0.2343 -0.1022 -0.3635
65911POPE   C3A24600  30.672  29.332   8.448 -0.2194  0.0994 -0.1869
65911POPE   C4A24601  31.067  29.493   8.221  0.0671 -0.0030  0.2222
65911POPE   C1B24602  30.809  29.218   9.214 -0.0230 -0.1505 -0.0878
65911POPE   C2B24603  31.001  29.416   8.876 -0.1051 -0.0922 -0.0133
65911POPE   C3B24604  31.318  29.485   8.642  0.1293 -0.0524  0.2366
65911POPE   C4B24605  31.519  29.846   8.506  0.0319 -0.0139 -0.0311
65912POPE   NH324606  24.915  29.608   9.970  0.1641 -0.1444 -0.0809
65912POPE   PO424607  24.738  30.039   9.864 -0.0367  0.0002 -0.5758
65912POPE   GL124608  24.776  30.420   9.695 -0.0938 -0.1216  0.1335
65912POPE   GL224609  24.554  30.577   9.688 -0.3404  0.2960  0.2797
65912POPE   C1A24610  24.991  30.620   9.383 -0.0276 -0.0069 -0.1164
65912POPE   D2A24611  25.316  30.676   9.158 -0.0354 -0.0520  0.3074
65912POPE   C3A24612  25.195  30.624   8.708 -0.2262  0.2037 -0.1164
65912POPE   C4A24613  24.926  30.797   8.322  0.0035  0.1513  0.2718
65912POPE   C1B24614  24.458  30.723   9.344 -0.3139 -0.0217  0.1935
65912POPE   C2B24615  24.765  30.807   8.947 -0.0979  0.1689  0.0896
65912POPE   C3B24616  24.630  31.018   8.673  0.2799 -0.0663 -0.3690
65912POPE   C4B24617  24.145  31.227   8.593  0.2665 -0.0608 -0.1989
65913POPE   NH324618  17.585   8.788  18.333 -0.0267  0.1929  0.4383
65913POPE   PO424619  18.020   8.782  18.061  0.2592 -0.2135  0.0401
65913POPE   GL124620  18.200   9.035  17.844  0.6713  0.1208 -0.1100
65913POPE   GL224621  18.031   9.330  17.686 -0.1772 -0.0393 -0.0319
65913POPE   C1A24622  18.508   9.255  17.467  0.1105 -0.2989  0.1138
65913POPE   D2A24623  18.450   9.473  17.034 -0.4632 -0.0041  0.3814
65913POPE   C3A24624  18.183   9.283  16.761 -0.2469 -0.0045  0.0235
65913POPE   C4A24625  18.171   8.893  16.528 -0.0637 -0.0016 -0.0898
65913POPE   C1B24626  17.967   9.388  17.209 -0.4327  0.1327  0.2956
65913POPE   C2B24627  17.659   9.500  16.918 -0.3190 -0.0213 -0.1524
65913POPE   C3B24628  17.706   9.384  16.444 -0.3479 -0.1688 -0.0158
65913POPE   C4B24629  17.367   9.281  16.133  0.0963 -0.0760  0.1158
65914POPE   NH324630  24.027   2.737  12.146 -0.2753 -0.2056  0.3343
65914POPE   PO424631  23.822   3.065  12.020 -0.0246 -0.2498 -0.0547
65914POPE   GL124632  23.538   3.221  12.070  0.3244  0.2177 -0.2334
65914POPE   GL224633  23.467   3.317  12.433 -0.0352 -0.1917  0.1050
65914POPE   C1A24634  23.253   3.352  11.723 -0.1593 -0.0498  0.1600
65914POPE   D2A24635  22.796   3.374  11.561  0.1451  0.1659  0.0186
65914POPE   C3A24636  22.471   3.151  11.233  0.2760 -0.2465 -0.3281
65914POPE   C4A24637  22.345   2.996  10.872 -0.2404  0.0866  0.0180
65914POPE   C1B24638  23.065   3.323  12.146  0.0699 -0.1077  0.2755
65914POPE   C2B24639  22.636   3.310  12.041  0.0127 -0.2118  0.0576
65914POPE   C3B24640  22.350   3.520  11.738 -0.0123 -0.2239 -0.1650
65914POPE   C4B24641  21.914   3.716  11.770  0.0194  0.0158 -0.1556
65915POPE   NH324642  21.323  22.210  16.266 -0.1314  0.0184 -0.2676
65915POPE   PO424643  21.773  22.115  16.299  0.0209  0.0370  0.0150
65915POPE   GL124644  21.617  22.217  15.831 -0.2036 -0.0860  0.0286
65915POPE   GL224645  21.499  22.564  15.680  0.1082  0.0622 -0.1409
65915POPE   C1A24646  21.263  22.158  15.541 -0.2820  0.3612 -0.3186
65915POPE   D2A24647  20.821  22.269  15.477  0.1296 -0.4524  0.1581
65915POPE   C3A24648  20.465  22.064  15.484 -0.1274 -0.1269  0.1757
65915POPE   C4A24649  20.290  21.643  15.499  0.0306  0.0194 -0.2465
65915POPE   C1B24650  21.141  22.711  15.455  0.2151  0.0440  0.1877
65915POPE   C2B24651  20.767  22.692  15.217  0.0499  0.5870 -0.2144
65915POPE   C3B24652  20.430  22.686  15.008  0.0330 -0.0709 -0.0311
65915POPE   C4B24653  19.955  22.716  14.891  0.1173  0.4017  0.1405
65916DOPE   NH324654  10.666  23.643  21.942 -0.0576  0.0491  0.1578
65916DOPE   PO424655  10.432  23.306  22.164  0.0406  0.2303 -0.2360
65916DOPE   GL124656  10.444  23.283  21.748  0.0221 -0.1993 -0.2853
65916DOPE   GL224657  10.263  23.578  21.661  0.0112 -0.0088  0.3689
65916DOPE   C1A24658  10.301  23.086  21.346 -0.0709  0.3624 -0.0334
65916DOPE   D2A24659  10.348  22.720  21.185  0.3256  0.1637 -0.0201
65916DOPE   C3A24660  10.858  22.584  21.212  0.0982 -0.0099  0.0426
65916DOPE   C4A24661  11.289  22.449  21.151  0.0290  0.0511  0.2819
65916DOPE   C1B24662  10.521  23.544  21.251 -0.0659  0.3291  0.0196
65916DOPE   D2B24663  10.695  23.548  20.808  0.2975  0.0319 -0.0427
65916DOPE   C3B24664  10.744  23.160  20.512 -0.3642 -0.2960  0.0723
65916DOPE   C4B24665  10.733  22.745  20.248  0.2315  0.4122  0.1219
65917DOPE   NH324666  26.446  27.867   9.464 -0.1425 -0.0130  0.3674
65917DOPE   PO424667  26.436  28.209   9.257 -0.1459 -0.0929  0.1973
65917DOPE   GL124668  26.206  28.497   9.010  0.0654 -0.3517  0.1018
65917DOPE   GL224669  25.977  28.490   9.197 -0.0778 -0.1903  0.2280
65917DOPE   C1A24670  26.327  28.882   8.935  0.0069  0.1771 -0.1328
65917DOPE   D2A24671  26.328  29.249   8.697 -0.0035 -0.4745  0.3179
65917DOPE   C3A24672  26.254  29.245   8.256 -0.0579  0.1305  0.1538
65917DOPE   C4A24673  26.283  29.351   7.824  0.0259  0.0248 -0.0027
65917DOPE   C1B24674  25.817  28.753   8.809 -0.0341 -0.2354  0.1077
65917DOPE   D2B24675  25.780  29.043   8.385  0.1090  0.3870  0.0852
65917DOPE   C3B24676  25.903  28.966   7.984  0.2825  0.2235  0.2035
65917DOPE   C4B24677  25.949  28.859   7.538 -0.2890  0.0788  0.0591
65918DOPE   NH324678  20.890  26.167  16.194 -0.1190 -0.0757  0.2653
65918DOPE   PO424679  20.657  26.058  16.608  0.1319  0.0770  0.2378
65918DOPE   GL124680  20.403  25.911  16.365  0.3799 -0.3797 -0.1520
65918DOPE   GL224681  20.427  25.727  16.208  0.1090  0.0748  0.2092
65918DOPE   C1A24682  19.985  26.138  16.310  0.0091 -0.0009  0.1631
65918DOPE   D2A24683  19.622  26.073  16.167  0.1672 -0.0202 -0.1659
65918DOPE   C3A24684  19.226  26.238  16.077 -0.1606 -0.2441  0.0229
65918DOPE   C4A24685  18.775  26.257  16.110  0.0528  0.2791 -0.0454
65918DOPE   C1B24686  20.221  25.502  15.858 -0.0933  0.1196 -0.0039
65918DOPE   D2B24687  20.244  25.108  15.588 -0.1196  0.0303  0.0865
65918DOPE   C3B24688  20.043  25.086  15.259  0.0444  0.1417 -0.1039
65918DOPE   C4B24689  19.641  25.131  15.153  0.4049 -0.1244  0.1319
65919DOPE   NH324690  22.124   1.864  13.516  0.0085  0.1370  0.1425
65919DOPE   PO424691  22.083   1.699  13.181  0.2818 -0.0231 -0.1048
65919DOPE   GL124692  21.805   2.008  13.103  0.1494 -0.3847 -0.2203
65919DOPE   GL224693  21.448   1.831  13.050  0.0437  0.0976  0.0225
65919DOPE   C1A24694  21.594   2.362  12.833 -0.1083  0.0824 -0.2923
65919DOPE   D2A24695  21.392   2.662  12.452 -0.1750  0.3301  0.0684
65919DOPE   C3A24696  21.163   2.612  12.160 -0.2275 -0.0061  0.2168
65919DOPE   C4A24697  20.903   2.364  12.258 -0.2547  0.0544  0.0812
65919DOPE   C1B24698  21.679   1.840  12.649 -0.2159  0.1121 -0.0074
65919DOPE   D2B24699  21.472   1.599  12.369 -0.0862 -0.0767  0.1470
65919DOPE   C3B24700  21.273   1.812  11.971  0.1302  0.1809  0.0215
65919DOPE   C4B24701  21.464   2.207  11.804  0.0214  0.1276  0.1584
65920DOPE   NH324702   4.372  13.587  15.683  0.1486  0.2433 -0.0434
65920DOPE   PO424703   4.390  13.292  15.402 -0.0145  0.1367 -0.0013
65920DOPE   GL124704   4.781  13.304  15.086 -0.2495 -0.0078 -0.1188
65920DOPE   GL224705   5.092  13.197  15.202 -0.0467 -0.0036  0.1708
65920DOPE   C1A24706   5.187  13.436  14.799 -0.0787  0.0110  0.0602
65920DOPE   D2A24707   5.547  13.640  14.744  0.1058 -0.1289  0.1733
65920DOPE   C3A24708   5.614  13.570  14.347  0.3157  0.1088  0.0347
65920DOPE   C4A24709   5.737  13.388  13.974 -0.2387  0.0871  0.1292
65920DOPE   C1B24710   5.229  13.632  15.198 -0.2796  0.1492  0.0751
65920DOPE   D2B24711   5.546  13.949  15.154  0.1378 -0.2086 -0.3006
65920DOPE   C3B24712   5.488  14.320  15.005 -0.0901  0.0216 -0.1744
65920DOPE   C4B24713   5.392  14.814  15.134 -0.1286  0.1685 -0.1852
65921DOPE   NH324714  32.015  18.176   4.599 -0.1563  0.1027 -0.4229
65921DOPE   PO424715  32.062  17.856   4.533 -0.1071  0.0147 -0.1557
65921DOPE   GL124716  31.913  17.852   4.225 -0.1921 -0.0743 -0.0885
65921DOPE   GL224717  31.755  18.210   4.159 -0.1755  0.2796 -0.0124
65921DOPE   C1A24718  32.082  17.752   3.918  0.1666 -0.3186 -0.1084
65921DOPE   D2A24719  32.075  17.745   3.466  0.2926  0.0838  0.0563
65921DOPE   C3A24720  32.287  17.453   3.298 -0.1419 -0.3507 -0.1078
65921DOPE   C4A24721  32.636  17.331   3.154  0.1769 -0.1355  0.1585
65921DOPE   C1B24722  31.950  18.198   3.821 -0.1405 -0.2665 -0.3324
65921DOPE   D2B24723  32.018  18.235   3.449  0.0268 -0.0399 -0.0811
65921DOPE   C3B24724  32.170  18.078   3.013 -0.0125 -0.0569 -0.0405
65921DOPE   C4B24725  32.172  18.133   2.566  0.0296 -0.0426  0.1827
65922DOPE   NH324726  13.664  23.352  22.150  0.0019 -0.1636 -0.0661
65922DOPE   PO424727  13.292  23.370  21.932 -0.0566  0.1042 -0.0020
65922DOPE   GL124728  13.150  23.345  21.456 -0.0057 -0.0123  0.4177
65922DOPE   GL224729  13.102  22.992  21.493  0.0771  0.2681 -0.1492
65922DOPE   C1A24730  13.302  23.299  21.005  0.0277 -0.3234 -0.1671
65922DOPE   D2A24731  13.393  23.302  20.513  0.0687  0.1926  0.0188
65922DOPE   C3A24732  13.436  23.779  20.361 -0.5118 -0.0407  0.0818
65922DOPE   C4A24733  13.501  24.163  20.541 -0.0743  0.0943 -0.2248
65922DOPE   C1B24734  13.010  22.868  21.040  0.4418 -0.0535  0.0838
65922DOPE   D2B24735  12.964  23.039  20.655  0.1144 -0.0030 -0.0741
65922DOPE   C3B24736  12.961  23.524  20.651  0.0047  0.0997 -0.0968
65922DOPE   C4B24737  13.050  24.038  20.657  0.1638 -0.0562 -0.1822
65923DOPE   NH324738  32.916   7.067  10.549 -0.0264 -0.2837  0.2630
65923DOPE   PO424739  32.932   6.903  11.062  0.0609 -0.3245  0.2705
65923DOPE   GL124740  33.016   6.565  10.712  0.1030  0.2955  0.0475
65923DOPE   GL224741  33.284   6.719  10.553 -0.1939 -0.0347  0.1199
65923DOPE   C1A24742  33.107   6.149  10.509 -0.0937 -0.0106  0.0544
65923DOPE   D2A24743  33.080   6.015  10.120 -0.0076  0.0419 -0.2354
65923DOPE   C3A24744  32.818   6.143   9.737 -0.0782 -0.1760  0.1315
65923DOPE   C4A24745  32.608   6.273   9.475  0.0840 -0.2859 -0.0387
65923DOPE   C1B24746  33.182   6.509  10.165 -0.0996 -0.2655 -0.2954
65923DOPE   D2B24747  33.273   6.287   9.795  0.1071  0.2786  0.1166
65923DOPE   C3B24748  33.273   5.884   9.664  0.0916  0.1891  0.1992
65923DOPE   C4B24749  33.438   5.592   9.430 -0.3815  0.1109  0.2537
65924DOPE   NH324750   4.638  20.787  16.540  0.0111  0.0998  0.2669
65924DOPE   PO424751   4.515  20.357  16.734  0.0137  0.0238  0.2747
65924DOPE   GL124752   4.915  20.318  16.665  0.2210  0.1021 -0.0565
65924DOPE   GL224753   5.113  20.610  16.698 -0.0206  0.1897 -0.2045
65924DOPE   C1A24754   5.101  20.022  16.489  0.4723  0.1903  0.1639
65924DOPE   D2A24755   5.088  19.757  16.079 -0.0527 -0.1671 -0.0062
65924DOPE   C3A24756   5.406  19.750  15.926 -0.0926  0.2751 -0.1479
65924DOPE   C4A24757   5.670  19.617  16.168  0.2095 -0.0192  0.0146
65924DOPE   C1B24758   5.475  20.736  16.440  0.0769  0.0306 -0.2582
65924DOPE   D2B24759   5.501  20.988  16.018  0.2106 -0.0759 -0.0932
65924DOPE   C3B24760   5.558  20.869  15.613  0.2393 -0.0381 -0.0735
65924DOPE   C4B24761   5.308  21.079  15.210 -0.0882  0.0812 -0.0865
65925DOPE   NH324762   0.560  16.154   8.724  0.2423 -0.0627 -0.1155
65925DOPE   PO424763   0.822  16.373   8.933 -0.0470 -0.2078 -0.2030
65925DOPE   GL124764   1.186  16.372   9.024 -0.2302  0.3542  0.0277
65925DOPE   GL224765   1.244  16.635   9.136 -0.1015  0.4125  0.2777
65925DOPE   C1A24766   1.575  16.211   9.034  0.0224 -0.0571  0.1466
65925DOPE   D2A24767   1.883  16.302   9.111  0.4305 -0.0707  0.0148
65925DOPE   C3A24768   2.141  16.665   8.929  0.2455  0.0167 -0.2288
65925DOPE   C4A24769   2.227  16.998   8.931  0.1599  0.3293 -0.1106
65925DOPE   C1B24770   1.741  16.807   9.216  0.0865  0.1272 -0.0392
65925DOPE   D2B24771   2.161  16.809   9.420 -0.1182  0.2597 -0.3033
65925DOPE   C3B24772   2.563  16.798   9.268  0.1647  0.0576  0.4306
65925DOPE   C4B24773   2.885  16.616   9.159  0.2060 -0.2678 -0.5400
65926DOPE   NH324774   5.713  10.159  16.696 -0.2621 -0.0906  0.1109
65926DOPE   PO424775   6.095  10.187  16.953 -0.0666 -0.0490 -0.2608
65926DOPE   GL124776   6.141   9.886  16.617  0.0816  0.0891  0.3232
65926DOPE   GL224777   6.400   9.777  16.774 -0.4317  0.0355  0.1213
65926DOPE   C1A24778   6.187   9.833  16.154  0.3246  0.4702 -0.2417
65926DOPE   D2A24779   6.010   9.573  15.730 -0.1146 -0.3828 -0.0009
65926DOPE   C3A24780   6.182   9.267  15.545  0.0135 -0.2004 -0.1509
65926DOPE   C4A24781   6.344   8.998  15.269  0.4894  0.0006 -0.0437
65926DOPE   C1B24782   6.663   9.878  16.498 -0.2025  0.1898  0.2715
65926DOPE   D2B24783   6.908   9.907  16.205  0.1892  0.1287 -0.0153
65926DOPE   C3B24784   7.411  10.127  16.219 -0.0356  0.0169  0.2777
65926DOPE   C4B24785   7.936  10.114  16.119 -0.0237 -0.1900  0.1185
65927DOPE   NH324786  27.409   6.551   9.570 -0.0073 -0.3468  0.2755
65927DOPE   PO424787  27.707   6.526   9.282 -0.2497  0.0632  0.1079
65927DOPE   GL124788  27.559   6.351   8.933 -0.0880 -0.0170 -0.1304
65927DOPE   GL224789  27.364   6.009   8.927  0.2328 -0.2759  0.4130
65927DOPE   C1A24790  27.309   6.196   8.478  0.1004  0.2359  0.0741
65927DOPE   D2A24791  27.320   6.106   8.174 -0.0911 -0.1176  0.1191
65927DOPE   C3A24792  27.231   5.768   7.897 -0.2139 -0.0029 -0.1680
65927DOPE   C4A24793  26.952   5.517   7.485 -0.2042  0.1356 -0.2931
65927DOPE   C1B24794  27.269   5.692   8.678 -0.0821  0.1072  0.2330
65927DOPE   D2B24795  27.251   5.401   8.299  0.1027 -0.1453 -0.1893
65927DOPE   C3B24796  26.929   5.373   7.920  0.0417  0.0093  0.2080
65927DOPE   C4B24797  26.655   5.241   7.764  0.2957 -0.1065  0.0418
65928DOPE   NH324798  17.902   8.229  17.771 -0.0991  0.2183  0.0604
65928DOPE   PO424799  17.565   8.531  17.844  0.1378 -0.2246  0.0573
65928DOPE   GL124800  17.364   8.627  17.425  0.1978 -0.1356  0.2743
65928DOPE   GL224801  17.546   8.408  17.307  0.0493 -0.0935  0.1373
65928DOPE   C1A24802  17.206   8.677  16.996  0.3238  0.3034  0.0524
65928DOPE   D2A24803  17.105   8.925  16.661 -0.1199 -0.1040  0.0604
65928DOPE   C3A24804  17.280   9.294  16.628  0.0178  0.0068  0.0613
65928DOPE   C4A24805  17.411   9.803  16.595  0.0945  0.1904 -0.0515
65928DOPE   C1B24806  17.537   8.384  16.790  0.3101 -0.1603  0.2524
65928DOPE   D2B24807  17.561   8.451  16.398 -0.0887 -0.1923  0.1217
65928DOPE   C3B24808  17.985   8.498  16.216 -0.2841  0.0800  0.0325
65928DOPE   C4B24809  18.284   8.756  16.081 -0.2032  0.2036 -0.0948
65929DOPE   NH324810  13.588  28.124  21.741  0.1835 -0.3038  0.0230
65929DOPE   PO424811  13.666  28.355  21.401 -0.0721  0.1198  0.2615
65929DOPE   GL124812  13.767  28.150  21.048  0.3030  0.0426  0.0876
65929DOPE   GL224813  13.889  27.768  20.906  0.1953  0.3226  0.1763
65929DOPE   C1A24814  13.859  28.137  20.575  0.0348  0.0371  0.1656
65929DOPE   D2A24815  13.996  28.002  20.099 -0.1814 -0.2805  0.1780
65929DOPE   C3A24816  13.731  27.928  19.731 -0.0384 -0.1722  0.3836
65929DOPE   C4A24817  13.470  28.178  19.519  0.1128  0.2026  0.2380
65929DOPE   C1B24818  13.659  27.689  20.528 -0.0331 -0.2088  0.1965
65929DOPE   D2B24819  13.880  27.314  20.350 -0.3177 -0.2013 -0.0726
65929DOPE   C3B24820  14.042  27.483  19.922  0.1537 -0.1599  0.0496
65929DOPE   C4B24821  14.308  27.680  19.769 -0.0066 -0.1981  0.2451
65930DOPE   NH324822  32.391  27.276  11.278 -0.3403  0.0524 -0.0917
65930DOPE   PO424823  32.502  27.442  10.904 -0.0401  0.1727  0.3159
65930DOPE   GL124824  32.732  27.577  10.610 -0.1311  0.0806  0.2436
65930DOPE   GL224825  32.532  27.606  10.318  0.1298 -0.0934 -0.0507
65930DOPE   C1A24826  33.180  27.502  10.486 -0.0715 -0.0466  0.2009
65930DOPE   D2A24827  33.405  27.398  10.116 -0.2419  0.1425 -0.2034
65930DOPE   C3A24828  33.520  27.704   9.645  0.0957 -0.1584  0.1584
65930DOPE   C4A24829  33.581  27.891   9.237 -0.0364  0.0830  0.3332
65930DOPE   C1B24830  32.484  27.929  10.017 -0.2198  0.2291 -0.0343
65930DOPE   D2B24831  32.579  28.143   9.717 -0.0525  0.0587 -0.1443
65930DOPE   C3B24832  32.907  28.184   9.360 -0.2121  0.0018  0.1325
65930DOPE   C4B24833  33.177  28.132   9.111  0.1662  0.0318  0.1141
65931DOPE   NH324834  35.313  20.829   7.365  0.4286  0.0838  0.0712
65931DOPE   PO424835   0.220  20.510   7.516  0.2732  0.2390  0.3379
65931DOPE   GL124836   0.673  20.421   7.311  0.1078 -0.0054  0.0303
65931DOPE   GL224837   1.012  20.480   7.465  0.0968 -0.1803 -0.1007
65931DOPE   C1A24838   1.010  20.664   7.020  0.1958 -0.1183  0.0821
65931DOPE   D2A24839   1.305  20.758   6.798  0.2002  0.1507  0.0186
65931DOPE   C3A24840   1.743  20.754   6.863  0.0879  0.1112 -0.3060
65931DOPE   C4A24841   2.011  20.745   7.175  0.1244 -0.0271 -0.0561
65931DOPE   C1B24842   1.281  20.756   7.477  0.0315 -0.1248 -0.0321
65931DOPE   D2B24843   1.542  21.027   7.238  0.0450 -0.0247 -0.2168
65931DOPE   C3B24844   1.760  21.303   7.078  0.3788 -0.0589 -0.0723
65931DOPE   C4B24845   2.083  21.177   6.907  0.1710 -0.0444  0.0990
65932DOPE   NH324846  25.617  12.609   8.351  0.1558 -0.0035  0.0699
65932DOPE   PO424847  25.385  12.887   8.275  0.0275 -0.1243  0.0433
65932DOPE   GL124848  24.908  12.925   8.147  0.0198 -0.0311  0.1550
65932DOPE   GL224849  24.753  12.744   8.288 -0.3683  0.2962  0.2779
65932DOPE   C1A24850  24.555  13.001   7.855 -0.1826  0.0879 -0.1261
65932DOPE   D2A24851  24.166  12.936   7.888  0.0667 -0.1806 -0.3832
65932DOPE   C3A24852  23.849  12.787   7.670 -0.0602  0.1322 -0.0292
65932DOPE   C4A24853  23.508  12.783   7.441  0.0099 -0.1137  0.0200
65932DOPE   C1B24854  24.436  12.559   8.213 -0.1153 -0.1196 -0.3527
65932DOPE   D2B24855  23.958  12.495   8.171  0.0743 -0.0855 -0.1576
65932DOPE   C3B24856  23.657  12.218   7.985  0.1507  0.4471  0.0626
65932DOPE   C4B24857  23.349  11.919   8.013  0.0087 -0.1355  0.2128
65933DOPE   NH324858  23.712  34.543  11.605 -0.0659  0.0150 -0.1365
65933DOPE   PO424859  23.322  34.733  11.724  0.2023  0.0359 -0.0910
65933DOPE   GL124860  23.072  34.957  11.424 -0.1085  0.3564 -0.0845
65933DOPE   GL224861  23.181  35.307  11.544  0.2033 -0.0735 -0.0496
65933DOPE   C1A24862  22.861  34.966  10.986 -0.0519 -0.0219 -0.0835
65933DOPE   D2A24863  22.604  34.994  10.611  0.1107  0.3146  0.2295
65933DOPE   C3A24864  22.508  35.004  10.296  0.1284  0.1890 -0.0896
65933DOPE   C4A24865  22.677  35.081   9.906  0.2381  0.2176  0.0134
65933DOPE   C1B24866  22.986   0.037  11.222 -0.1184 -0.1264 -0.0560
65933DOPE   D2B24867  22.894  35.373  10.751 -0.1738 -0.0139 -0.0189
65933DOPE   C3B24868  22.837   0.356  10.550 -0.0351 -0.0366  0.0378
65933DOPE   C4B24869  22.724   0.739  10.545  0.0540  0.2017  0.0467
65934DOPE   NH324870  14.856  31.040  19.984  0.2463  0.2169 -0.1106
65934DOPE   PO424871  14.384  30.993  20.022  0.2068  0.4915  0.1768
65934DOPE   GL124872  14.173  30.933  19.570  0.2711 -0.1716 -0.2991
65934DOPE   GL224873  13.954  31.243  19.610  0.2917 -0.0443  0.1701
65934DOPE   C1A24874  13.904  30.890  19.156  0.0584  0.2307  0.0276
65934DOPE   D2A24875  13.770  30.766  18.795 -0.2338  0.2049  0.4956
65934DOPE   C3A24876  13.342  30.695  18.711 -0.1733  0.2430  0.1873
65934DOPE   C4A24877  13.030  30.787  18.459  0.0459 -0.0872 -0.0655
65934DOPE   C1B24878  13.759  31.403  19.331 -0.0141  0.1205  0.0955
65934DOPE   D2B24879  13.514  31.190  18.971  0.1124 -0.1148  0.0222
65934DOPE   C3B24880  13.596  31.270  18.589  0.0128 -0.1555 -0.1580
65934DOPE   C4B24881  13.842  31.419  18.283  0.2396  0.1048  0.2656
65935DOPE   NH324882   2.277   1.231  16.029 -0.0731  0.1923  0.2032
65935DOPE   PO424883   2.479   1.075  16.355 -0.2123  0.2664 -0.2793
65935DOPE   GL124884   2.487   0.722  16.197  0.2526  0.1987 -0.0682
65935DOPE   GL224885   2.441   0.759  15.809  0.6189  0.2017  0.2961
65935DOPE   C1A24886   2.766   0.375  15.919  0.0441  0.0955 -0.1906
65935DOPE   D2A24887   3.026   0.215  15.440  0.0147  0.0329  0.0088
65935DOPE   C3A24888   3.415  35.377  15.623 -0.2216  0.1426 -0.1068
65935DOPE   C4A24889   3.773  35.361  15.521  0.0116  0.2298  0.4963
65935DOPE   C1B24890   2.602   0.488  15.401 -0.2065  0.0293  0.0764
65935DOPE   D2B24891   2.835   0.424  14.981  0.1943  0.0579  0.0147
65935DOPE   C3B24892   2.737   0.089  14.922  0.1782 -0.0694  0.0950
65935DOPE   C4B24893   2.893   0.088  14.498 -0.2530 -0.0199  0.4264
65936DOPE   NH324894  30.145  26.359   8.366  0.2120 -0.0230 -0.3464
65936DOPE   PO424895  30.291  26.819   8.211 -0.0924  0.0470  0.1735
65936DOPE   GL124896  30.211  26.862   7.770 -0.0985  0.0014 -0.1611
65936DOPE   GL224897  30.073  27.172   7.819  0.2798 -0.3186 -0.3074
65936DOPE   C1A24898  30.309  26.997   7.337  0.0035 -0.3892 -0.2564
65936DOPE   D2A24899  30.549  27.178   6.956  0.2602 -0.0931  0.0184
65936DOPE   C3A24900  30.650  27.577   6.801 -0.0592 -0.0388  0.0665
65936DOPE   C4A24901  30.578  27.983   6.749 -0.0015 -0.3694 -0.0668
65936DOPE   C1B24902  30.208  27.529   7.590  0.0863  0.2927 -0.1936
65936DOPE   D2B24903  30.442  27.717   7.192 -0.0663  0.1674  0.2075
65936DOPE   C3B24904  30.290  28.120   7.169 -0.0152 -0.1470 -0.0160
65936DOPE   C4B24905  29.899  28.496   7.198  0.1740  0.0513  0.0865
65937DOPE   NH324906   6.392  28.824  20.692  0.1191 -0.0562  0.3706
65937DOPE   PO424907   6.493  28.397  20.655  0.2041 -0.0032 -0.4952
65937DOPE   GL124908   6.567  28.369  20.265 -0.0216 -0.2483  0.2223
65937DOPE   GL224909   6.866  28.370  20.267 -0.4454  0.1032  0.0559
65937DOPE   C1A24910   6.479  28.537  19.838 -0.2197 -0.1162 -0.4623
65937DOPE   D2A24911   6.408  28.335  19.417  0.0139 -0.0497  0.3229
65937DOPE   C3A24912   6.438  27.906  19.155  0.0287 -0.2983 -0.3242
65937DOPE   C4A24913   6.686  27.541  19.228  0.0669 -0.1618  0.1118
65937DOPE   C1B24914   7.053  28.424  19.872  0.1295 -0.2931  0.3560
65937DOPE   D2B24915   7.356  28.346  19.529  0.2673  0.0769  0.2366
65937DOPE   C3B24916   7.685  28.217  19.245 -0.2897 -0.2486  0.3012
65937DOPE   C4B24917   7.832  28.326  18.840  0.2013 -0.1199  0.2915
65938DOPE   NH324918  18.405  31.398  16.139 -0.0309  0.2844  0.3177
65938DOPE   PO424919  18.730  31.104  16.228 -0.0376 -0.3259  0.0002
65938DOPE   GL124920  18.258  30.894  16.125  0.2282 -0.1308  0.2502
65938DOPE   GL224921  17.929  31.064  16.168 -0.1830 -0.1103  0.0760
65938DOPE   C1A24922  17.925  30.597  15.989  0.0286  0.3211  0.2008
65938DOPE   D2A24923  17.614  30.466  15.697  0.0880  0.0329  0.1888
65938DOPE   C3A24924  17.214  30.301  15.565  0.0401  0.1048  0.1894
65938DOPE   C4A24925  16.843  30.357  15.350 -0.2105  0.0666 -0.0832
65938DOPE   C1B24926  17.588  31.032  16.020 -0.0837 -0.0056 -0.1373
65938DOPE   D2B24927  17.218  30.878  15.735  0.0747 -0.2396 -0.0611
65938DOPE   C3B24928  17.055  30.560  16.006 -0.0620  0.2093 -0.0879
65938DOPE   C4B24929  16.799  30.187  15.918  0.0080 -0.0952 -0.0538
65939DOPE   NH324930  18.041   0.403  14.987 -0.1964 -0.1629 -0.1319
65939DOPE   PO424931  17.816   0.158  15.340 -0.0263  0.1651 -0.0024
65939DOPE   GL124932  17.520  35.228  15.207  0.2531  0.2156  0.0696
65939DOPE   GL224933  17.578  35.020  15.245 -0.1700  0.0506 -0.3230
65939DOPE   C1A24934  17.145  35.287  14.965  0.1729  0.1070  0.1907
65939DOPE   D2A24935  16.842  35.223  14.576  0.1478 -0.1452  0.0686
65939DOPE   C3A24936  16.563  34.999  14.260  0.3469  0.0854  0.2011
65939DOPE   C4A24937  16.416  34.888  13.824 -0.0059 -0.0914 -0.0318
65939DOPE   C1B24938  17.233  34.786  14.930  0.0029  0.3564 -0.2044
65939DOPE   D2B24939  17.000  34.735  14.602 -0.0523  0.2355 -0.1257
65939DOPE   C3B24940  16.606  34.498  14.480 -0.0323 -0.1736  0.0520
65939DOPE   C4B24941  16.349  34.212  14.571  0.0295  0.3733  0.1122
65940DOPE   NH324942   6.877  24.752  20.745 -0.1353  0.1040 -0.2848
65940DOPE   PO424943   6.530  24.941  20.765 -0.0293  0.1694  0.1196
65940DOPE   GL124944   6.694  25.168  20.518 -0.0251  0.0251 -0.0083
65940DOPE   GL224945   6.614  25.482  20.422 -0.0008  0.1708 -0.1555
65940DOPE   C1A24946   6.984  25.204  20.165 -0.0562 -0.0120 -0.3030
65940DOPE   D2A24947   6.978  25.159  19.580  0.1065 -0.1737  0.1627
65940DOPE   C3A24948   7.157  25.511  19.488 -0.2173  0.2896 -0.2472
65940DOPE   C4A24949   7.358  25.951  19.281  0.0195  0.2598 -0.1061
65940DOPE   C1B24950   7.053  25.558  20.518  0.0573  0.0018 -0.1601
65940DOPE   D2B24951   7.567  25.471  20.376  0.0918  0.1454 -0.1386
65940DOPE   C3B24952   7.698  25.571  19.929  0.0984 -0.2099 -0.0363
65940DOPE   C4B24953   7.677  25.543  19.516 -0.0025 -0.1089  0.0849
65941DOPE   NH324954   9.452  27.896  21.502  0.0346  0.1583 -0.3121
65941DOPE   PO424955   9.875  27.643  21.455  0.0432  0.3805  0.1968
65941DOPE   GL124956   9.922  27.235  21.131  0.1880 -0.1655  0.2735
65941DOPE   GL224957  10.110  26.972  21.135 -0.1142 -0.1294  0.2698
65941DOPE   C1A24958   9.878  27.236  20.754  0.0356  0.1040  0.2233
65941DOPE   D2A24959   9.923  26.912  20.451  0.0478 -0.2502  0.1268
65941DOPE   C3A24960  10.090  26.945  20.123  0.1378  0.2302 -0.3491
65941DOPE   C4A24961  10.040  27.196  19.768 -0.1228  0.0808 -0.4132
65941DOPE   C1B24962  10.137  26.754  20.852 -0.1063  0.2439  0.0206
65941DOPE   D2B24963  10.158  26.281  20.647  0.2567 -0.2825 -0.2209
65941DOPE   C3B24964  10.461  26.248  20.409  0.1054 -0.0488 -0.0123
65941DOPE   C4B24965  10.648  26.213  20.067 -0.0020  0.0276  0.1180
65942DOPE   NH324966  29.113   6.185   9.168 -0.1212 -0.1040  0.1427
65942DOPE   PO424967  29.240   6.476   8.893 -0.3018  0.2058  0.4954
65942DOPE   GL124968  29.174   6.139   8.655  0.2462 -0.3462 -0.1910
65942DOPE   GL224969  29.203   5.737   8.699  0.1656  0.2796 -0.0497
65942DOPE   C1A24970  29.188   6.022   8.294 -0.0055  0.0975 -0.2311
65942DOPE   D2A24971  29.139   6.213   7.946  0.2771  0.1536 -0.2939
65942DOPE   C3A24972  29.236   5.987   7.447  0.1492 -0.2368  0.0197
65942DOPE   C4A24973  29.475   5.934   7.165  0.1344 -0.0332 -0.3427
65942DOPE   C1B24974  29.279   5.511   8.298 -0.0969 -0.1082 -0.1017
65942DOPE   D2B24975  29.233   5.679   7.824  0.1069 -0.0154  0.2264
65942DOPE   C3B24976  29.321   5.497   7.440  0.1096 -0.0899 -0.0859
65942DOPE   C4B24977  29.311   5.452   7.052 -0.2709  0.4552  0.0801
65943DOPE   NH324978   0.651   3.173  13.396  0.3184  0.1587  0.1930
65943DOPE   PO424979   0.362   3.264  13.139  0.0409  0.0787 -0.1418
65943DOPE   GL124980   0.527   2.872  12.983 -0.1261  0.0787 -0.1801
65943DOPE   GL224981   0.800   2.766  13.095  0.1328 -0.1124 -0.1452
65943DOPE   C1A24982   0.402   2.637  12.616 -0.0820 -0.1586  0.2565
65943DOPE   D2A24983   0.241   2.307  12.418 -0.0038 -0.0778  0.0895
65943DOPE   C3A24984   0.369   2.185  12.117 -0.1182  0.1081 -0.0934
65943DOPE   C4A24985   0.758   2.167  11.893 -0.2878 -0.0445  0.0428
65943DOPE   C1B24986   0.880   2.564  12.746 -0.0626 -0.0559 -0.1196
65943DOPE   D2B24987   0.792   2.543  12.315 -0.2386  0.1599 -0.0442
65943DOPE   C3B24988   1.099   2.433  12.085  0.3226  0.1120  0.1172
65943DOPE   C4B24989   1.537   2.378  12.099  0.0205  0.2293  0.2220
65944DOPE   NH324990  15.059  20.028  21.307  0.3057 -0.2348  0.0103
65944DOPE   PO424991  14.645  20.140  21.027 -0.1302  0.0955 -0.1172
65944DOPE   GL124992  14.473  20.029  20.599  0.1312  0.2093 -0.3442
65944DOPE   GL224993  14.166  20.112  20.725 -0.0617  0.0589  0.0153
65944DOPE   C1A24994  14.459  19.739  20.291 -0.1258  0.1558  0.1411
65944DOPE   D2A24995  14.150  19.529  20.034  0.1386  0.0526 -0.2530
65944DOPE   C3A24996  13.814  19.551  20.048  0.0919  0.0428 -0.1215
65944DOPE   C4A24997  13.502  19.528  20.331 -0.1276  0.2372 -0.0896
65944DOPE   C1B24998  13.920  19.981  20.291  0.2331  0.1141 -0.1910
65944DOPE   D2B24999  13.538  19.947  20.064 -0.0320 -0.0375 -0.0546
65944DOPE   C3B25000  13.410  19.722  19.741  0.0489  0.0004 -0.0894
65944DOPE   C4B25001  13.500  19.550  19.390 -0.0072 -0.3920 -0.0586
65945DOPE   NH325002  23.590  10.794  13.323  0.2548 -0.2526 -0.0114
65945DOPE   PO425003  23.106  10.585  13.314  0.0306 -0.1392  0.1384
65945DOPE   GL125004  22.887  10.500  12.954  0.2365  0.2055  0.2022
65945DOPE   GL225005  23.045  10.345  12.773 -0.2700  0.1029 -0.1990
65945DOPE   C1A25006  22.503  10.431  12.773  0.0157  0.1281  0.0803
65945DOPE   D2A25007  22.238  10.400  12.447  0.0697  0.0713  0.0597
65945DOPE   C3A25008  22.194  10.332  12.011 -0.0175 -0.3693 -0.0071
65945DOPE   C4A25009  21.986  10.320  11.572 -0.0796 -0.1630  0.2179
65945DOPE   C1B25010  22.839  10.454  12.385 -0.0755 -0.1206 -0.1766
65945DOPE   D2B25011  22.688  10.347  12.104 -0.2103  0.1434 -0.0875
65945DOPE   C3B25012  22.791  10.065  11.868  0.1503  0.1909  0.4722
65945DOPE   C4B25013  22.768   9.965  11.530 -0.0694 -0.1126 -0.1522
65946PAPE   NH325014  23.036  29.519  11.175 -0.1834 -0.0550  0.1557
65946PAPE   PO425015  23.000  29.174  10.983 -0.1760  0.0628 -0.3129
65946PAPE   GL125016  22.678  29.023  10.937 -0.0866  0.0461 -0.0304
65946PAPE   GL225017  22.611  29.013  10.576  0.1916  0.2175 -0.4099
65946PAPE   D1A25018  22.288  28.928  11.066  0.4033  0.0109 -0.0176
65946PAPE   D2A25019  21.850  28.959  10.829 -0.1886 -0.4344  0.2151
65946PAPE   D3A25020  21.641  28.761  11.104  0.0851  0.0491 -0.1053
65946PAPE   D4A25021  21.940  28.491  11.112  0.3341  0.3740 -0.0214
65946PAPE   C5A25022  22.007  28.149  10.779  0.1257 -0.1429  0.0546
65946PAPE   C1B25023  22.263  29.089  10.402 -0.0857 -0.0742  0.6613
65946PAPE   C2B25024  21.796  28.945  10.312  0.2925 -0.0416 -0.1398
65946PAPE   C3B25025  21.449  29.090  10.452  0.0466  0.1797  0.0186
65946PAPE   C4B25026  21.080  29.137  10.703  0.0996  0.0116 -0.0521
65947PAPE   NH325027  18.653  11.513  18.040  0.1838 -0.0667 -0.1517
65947PAPE   PO425028  18.285  11.300  17.813  0.1509 -0.2640  0.2844
65947PAPE   GL125029  18.020  11.675  17.679  0.1279 -0.2115  0.2409
65947PAPE   GL225030  18.098  11.746  17.425 -0.1395 -0.0028 -0.0886
65947PAPE   D1A25031  17.644  11.475  17.563 -0.2721  0.0957  0.1996
65947PAPE   D2A25032  17.544  11.696  17.927 -0.0800  0.0252 -0.1851
65947PAPE   D3A25033  17.096  11.727  18.014  0.1219  0.0934 -0.1514
65947PAPE   D4A25034  17.120  11.351  17.774 -0.0509  0.1605  0.0579
65947PAPE   C5A25035  17.189  11.426  17.374  0.1328 -0.1059  0.1077
65947PAPE   C1B25036  17.875  11.669  17.132 -0.2002 -0.0575  0.1067
65947PAPE   C2B25037  17.451  11.742  17.060  0.1874  0.3083 -0.2237
65947PAPE   C3B25038  17.215  11.969  16.785  0.3967 -0.2579  0.0365
65947PAPE   C4B25039  16.961  11.815  16.436 -0.1597  0.0140  0.0985
65948PAPE   NH325040  12.320  33.495  20.459  0.1662  0.0603 -0.1371
65948PAPE   PO425041  11.981  33.313  20.621 -0.0840  0.0624 -0.3758
65948PAPE   GL125042  12.124  33.205  20.164 -0.3098 -0.3588 -0.0389
65948PAPE   GL225043  12.055  33.574  20.067 -0.1269 -0.1511  0.1240
65948PAPE   D1A25044  11.999  32.891  19.815 -0.0396 -0.0635  0.0096
65948PAPE   D2A25045  11.722  32.625  19.960  0.0349  0.1277  0.0388
65948PAPE   D3A25046  11.549  32.350  19.661  0.2373  0.1675 -0.3713
65948PAPE   D4A25047  11.726  32.000  19.605 -0.0287  0.1945  0.2416
65948PAPE   C5A25048  11.813  31.856  19.293  0.1538  0.1487 -0.0768
65948PAPE   C1B25049  12.091  33.726  19.654 -0.0945 -0.2482  0.4644
65948PAPE   C2B25050  11.995  33.667  19.321 -0.2201 -0.2180 -0.0776
65948PAPE   C3B25051  12.079  33.700  18.898 -0.3049 -0.0753  0.0610
65948PAPE   C4B25052  12.330  34.030  18.844  0.1775  0.1055  0.2668
65949PAPE   NH325053   2.476  12.855  13.852  0.1019  0.0228  0.3977
65949PAPE   PO425054   2.577  13.269  13.627  0.0309 -0.1586 -0.1070
65949PAPE   GL125055   2.933  13.192  13.518 -0.2654 -0.2015 -0.2512
65949PAPE   GL225056   2.937  12.789  13.531 -0.1790  0.6370 -0.1912
65949PAPE   D1A25057   3.109  13.428  13.287 -0.0497 -0.1610 -0.4365
65949PAPE   D2A25058   2.948  13.714  13.518  0.3461 -0.0284 -0.0060
65949PAPE   D3A25059   2.791  13.762  13.136 -0.0508  0.1348  0.1670
65949PAPE   D4A25060   2.772  13.577  12.704 -0.2050  0.1574 -0.0873
65949PAPE   C5A25061   2.598  13.297  12.679  0.0208  0.3103  0.1313
65949PAPE   C1B25062   3.299  12.803  13.328  0.2888 -0.0644 -0.2483
65949PAPE   C2B25063   3.673  12.726  13.081 -0.1008 -0.1809 -0.2927
65949PAPE   C3B25064   3.829  12.859  12.717 -0.0021 -0.0273 -0.2104
65949PAPE   C4B25065   4.190  12.802  12.481 -0.0821  0.0467 -0.0193
65950PAPE   NH325066  11.532  33.425  21.431  0.1151 -0.1070  0.0128
65950PAPE   PO425067  11.711  33.153  21.039  0.2211 -0.0320  0.1490
65950PAPE   GL125068  11.418  33.234  20.623  0.2777  0.0028 -0.0587
65950PAPE   GL225069  11.675  33.223  20.306  0.1164  0.1537 -0.0877
65950PAPE   D1A25070  11.203  33.119  20.285 -0.1507 -0.2394 -0.0283
65950PAPE   D2A25071  10.863  32.836  20.181 -0.5408  0.1639 -0.3728
65950PAPE   D3A25072  10.867  32.723  19.745  0.0447  0.1163  0.1079
65950PAPE   D4A25073  11.220  32.757  19.868  0.0928 -0.0893  0.1356
65950PAPE   C5A25074  11.149  33.233  19.780 -0.1250 -0.1491  0.1236
65950PAPE   C1B25075  11.723  33.235  19.788  0.2660  0.3768  0.1634
65950PAPE   C2B25076  11.566  32.881  19.501  0.0850  0.0388  0.5503
65950PAPE   C3B25077  11.258  32.670  19.374 -0.0201  0.3089  0.0915
65950PAPE   C4B25078  10.920  32.836  19.134 -0.3044  0.2816  0.0731
65951PAPE   NH325079  16.675  26.418  21.220  0.0473 -0.1563  0.1883
65951PAPE   PO425080  16.315  26.622  21.317  0.0051 -0.0372 -0.0784
65951PAPE   GL125081  16.056  26.396  21.131 -0.2047  0.1869 -0.0631
65951PAPE   GL225082  15.917  26.580  20.824 -0.1744 -0.2482 -0.1506
65951PAPE   D1A25083  16.065  26.102  20.836 -0.2232  0.2699 -0.1588
65951PAPE   D2A25084  16.295  26.081  20.461 -0.0190  0.1657  0.3772
65951PAPE   D3A25085  16.271  26.435  20.322 -0.1006  0.0013  0.1408
65951PAPE   D4A25086  15.793  26.276  20.279 -0.2691 -0.1704  0.1602
65951PAPE   C5A25087  15.515  25.963  20.133  0.1395  0.0738  0.0281
65951PAPE   C1B25088  15.486  26.516  20.592  0.0198  0.1569 -0.5465
65951PAPE   C2B25089  15.331  26.422  20.126 -0.5259 -0.0332 -0.0306
65951PAPE   C3B25090  15.035  26.373  19.786 -0.1851 -0.2096  0.2973
65951PAPE   C4B25091  14.986  26.148  19.267 -0.0839 -0.1081  0.0744
65952PAPE   NH325092  23.064  25.626  13.926  0.0778  0.0727 -0.4672
65952PAPE   PO425093  22.678  25.596  13.654 -0.1208  0.0901  0.1580
65952PAPE   GL125094  22.295  25.566  13.691 -0.1070  0.0561 -0.0271
65952PAPE   GL225095  22.168  25.393  13.501 -0.0166 -0.1417 -0.0829
65952PAPE   D1A25096  21.891  25.586  13.858  0.0967  0.0678  0.2665
65952PAPE   D2A25097  21.639  25.985  13.683 -0.2875  0.1016 -0.0959
65952PAPE   D3A25098  21.447  26.033  14.123  0.1474 -0.2516 -0.0805
65952PAPE   D4A25099  21.201  25.788  14.413 -0.1590  0.0000  0.1446
65952PAPE   C5A25100  20.828  25.917  14.620 -0.1170 -0.1409  0.0860
65952PAPE   C1B25101  21.843  25.532  13.374  0.0949 -0.0913  0.0114
65952PAPE   C2B25102  21.572  25.747  13.031  0.0795  0.0487  0.2477
65952PAPE   C3B25103  21.172  25.735  12.742  0.2511 -0.0387 -0.0532
65952PAPE   C4B25104  20.957  25.579  12.329 -0.1341 -0.0884 -0.3281
65953PAPE   NH325105  17.061   6.769  17.748 -0.0554  0.2127 -0.3284
65953PAPE   PO425106  17.360   7.090  17.579  0.1089 -0.0141 -0.0368
65953PAPE   GL125107  17.394   7.068  17.152  0.0702  0.1252 -0.2208
65953PAPE   GL225108  17.533   7.137  16.968 -0.2240  0.1870  0.0950
65953PAPE   D1A25109  17.019   6.898  17.021 -0.1841  0.1756 -0.0284
65953PAPE   D2A25110  16.825   6.683  16.638  0.1182  0.0180  0.0643
65953PAPE   D3A25111  16.404   6.840  16.804  0.2622  0.2041 -0.0097
65953PAPE   D4A25112  16.416   6.879  16.407 -0.1063 -0.0187  0.2057
65953PAPE   C5A25113  16.829   6.921  16.137 -0.0296  0.1183  0.1020
65953PAPE   C1B25114  17.280   7.022  16.648  0.0716 -0.2324  0.0790
65953PAPE   C2B25115  17.244   7.223  16.317  0.0490 -0.1371 -0.1312
65953PAPE   C3B25116  17.041   7.251  15.858  0.0214 -0.0164  0.0876
65953PAPE   C4B25117  17.043   7.222  15.415  0.1281 -0.0887 -0.3500
65954DGPE   NH325118  24.483  27.233  10.194 -0.1403  0.0398  0.1493
65954DGPE   PO425119  24.027  27.095  10.108 -0.1405  0.0678  0.0269
65954DGPE   GL125120  24.057  26.837   9.785 -0.1497 -0.0289 -0.2681
65954DGPE   GL225121  24.242  26.513   9.742  0.0404  0.0377  0.0478
65954DGPE   C1A25122  23.726  26.918   9.439 -0.0828  0.1223  0.2934
65954DGPE   C2A25123  23.610  27.105   9.003 -0.0107 -0.0474  0.2545
65954DGPE   D3A25124  23.403  26.971   8.719  0.2297 -0.4981  0.2827
65954DGPE   C4A25125  23.007  26.987   8.631  0.1486  0.0184  0.0491
65954DGPE   C5A25126  22.824  27.337   8.662  0.1387  0.2130 -0.1925
65954DGPE   C1B25127  23.878  26.400   9.604 -0.0738  0.0318 -0.0232
65954DGPE   C2B25128  23.515  26.488   9.505 -0.0120 -0.2331 -0.2926
65954DGPE   D3B25129  23.275  26.750   9.176 -0.0160 -0.1020 -0.0093
65954DGPE   C4B25130  22.850  26.859   9.153  0.1361 -0.1547  0.2007
65954DGPE   C5B25131  22.487  27.045   8.918 -0.0555  0.0517  0.2757
65955DGPE   NH325132  35.069  22.805   8.871  0.1822 -0.1002  0.0816
65955DGPE   PO425133  35.237  23.149   9.106 -0.2736 -0.0992 -0.1089
65955DGPE   GL125134  35.128  23.380   8.798 -0.2310  0.0666 -0.0624
65955DGPE   GL225135   0.063  23.477   8.701 -0.3251  0.1717 -0.1974
65955DGPE   C1A25136  35.076  23.912   8.834  0.0089  0.2159  0.1404
65955DGPE   C2A25137   0.028  24.260   8.702 -0.1765  0.0811 -0.2386
65955DGPE   D3A25138   0.198  24.601   8.613 -0.2020 -0.0218 -0.1524
65955DGPE   C4A25139   0.223  24.807   8.261  0.1609  0.1451  0.0334
65955DGPE   C5A25140   0.218  24.992   7.844  0.1817 -0.0373  0.2655
65955DGPE   C1B25141   0.279  23.824   8.662  0.0908  0.2256  0.1844
65955DGPE   C2B25142   0.559  24.210   8.520 -0.0800  0.1661  0.2642
65955DGPE   D3B25143   0.667  24.635   8.352  0.1158 -0.1211 -0.1379
65955DGPE   C4B25144   0.754  24.830   7.911 -0.1648 -0.2817  0.1565
65955DGPE   C5B25145   0.733  25.208   7.701 -0.1985 -0.3196 -0.1026
65956DGPE   NH325146  22.387  26.525  13.678  0.1201  0.1225 -0.0111
65956DGPE   PO425147  22.118  26.805  13.517 -0.2504  0.0620  0.1084
65956DGPE   GL125148  21.793  26.508  13.293  0.1364 -0.1467  0.2499
65956DGPE   GL225149  21.608  26.556  12.953  0.2741  0.0931  0.2030
65956DGPE   C1A25150  21.485  26.191  13.205  0.2331 -0.2089  0.1724
65956DGPE   C2A25151  21.152  25.861  13.275  0.1156  0.2782 -0.4376
65956DGPE   D3A25152  20.795  25.722  13.083 -0.2106 -0.3398 -0.3822
65956DGPE   C4A25153  20.788  25.359  12.834  0.2466 -0.0893 -0.2255
65956DGPE   C5A25154  20.661  25.040  12.534 -0.1938 -0.2188 -0.0797
65956DGPE   C1B25155  21.382  26.278  12.733  0.0021  0.0650  0.2271
65956DGPE   C2B25156  21.137  26.066  12.373  0.1273 -0.2877 -0.3872
65956DGPE   D3B25157  20.837  26.027  12.038 -0.2388  0.0715 -0.3026
65956DGPE   C4B25158  20.443  26.288  12.032  0.0358  0.2611 -0.0174
65956DGPE   C5B25159  20.215  26.520  11.624  0.2519  0.1035  0.0680
65957DGPE   NH325160   4.479  29.423  19.981 -0.0158  0.1666  0.1678
65957DGPE   PO425161   4.983  29.404  19.999  0.0949  0.2397 -0.1972
65957DGPE   GL125162   5.094  29.234  19.614 -0.1521  0.2690 -0.2576
65957DGPE   GL225163   5.294  29.058  19.413  0.0966  0.2962  0.0141
65957DGPE   C1A25164   5.180  29.538  19.301 -0.2097  0.1508  0.2266
65957DGPE   C2A25165   5.345  29.617  18.995  0.2070  0.1245  0.4032
65957DGPE   D3A25166   5.605  30.034  18.904  0.4936 -0.2109  0.1911
65957DGPE   C4A25167   5.540  30.330  18.580  0.1245 -0.0377  0.2146
65957DGPE   C5A25168   5.465  30.645  18.350 -0.1298  0.1146  0.2608
65957DGPE   C1B25169   5.743  28.933  19.196 -0.1122 -0.0829  0.3742
65957DGPE   C2B25170   6.109  28.958  19.076 -0.0349  0.0300  0.2113
65957DGPE   D3B25171   6.277  28.963  18.678  0.1804 -0.0320 -0.0561
65957DGPE   C4B25172   6.415  28.602  18.336 -0.4488 -0.1720 -0.2495
65957DGPE   C5B25173   6.541  28.240  18.140 -0.1471  0.1819  0.3817
65958DGPE   NH325174  24.835   0.397  11.494  0.1039  0.0381 -0.0608
65958DGPE   PO425175  25.301   0.525  11.605 -0.4457  0.2392  0.0762
65958DGPE   GL125176  25.323   0.649  11.167  0.3407  0.0394  0.1476
65958DGPE   GL225177  25.514   0.872  11.028 -0.2462  0.1394 -0.2158
65958DGPE   C1A25178  25.036   0.850  10.876 -0.2000  0.0423 -0.0302
65958DGPE   C2A25179  24.639   0.870  10.815  0.0070  0.2239  0.0364
65958DGPE   D3A25180  24.562   0.905  10.451  0.4360 -0.0825  0.1182
65958DGPE   C4A25181  24.551   1.253  10.314  0.1811 -0.2752  0.1156
65958DGPE   C5A25182  24.733   1.612  10.241 -0.2852  0.2972  0.0377
65958DGPE   C1B25183  25.524   0.818  10.506  0.0013 -0.3669 -0.1722
65958DGPE   C2B25184  25.383   0.740  10.148  0.2590 -0.2424  0.0097
65958DGPE   D3B25185  25.303   0.825   9.701  0.1701  0.1842  0.0974
65958DGPE   C4B25186  25.236   0.756   9.219  0.1706  0.1502  0.3220
65958DGPE   C5B25187  24.916   0.573   8.924 -0.1197  0.1000  0.1446
65959DGPE   NH325188  24.621  31.554  10.339  0.0503 -0.0424 -0.3570
65959DGPE   PO425189  24.769  31.214  10.256  0.0644  0.1337 -0.4411
65959DGPE   GL125190  24.801  31.398   9.823 -0.1205  0.2916  0.1591
65959DGPE   GL225191  24.587  31.582   9.794 -0.2718  0.0638  0.3327
65959DGPE   C1A25192  24.577  31.199   9.449  0.2651  0.1689 -0.1696
65959DGPE   C2A25193  24.357  31.107   9.028 -0.0857 -0.3187  0.1596
65959DGPE   D3A25194  24.236  30.741   8.780 -0.1526 -0.0657  0.1439
65959DGPE   C4A25195  24.065  30.658   8.320 -0.3220 -0.2132 -0.2487
65959DGPE   C5A25196  24.145  30.602   7.881  0.0365  0.4697  0.0387
65959DGPE   C1B25197  24.420  31.684   9.308 -0.1018  0.1882 -0.1210
65959DGPE   C2B25198  24.124  32.013   9.130 -0.1231 -0.4478  0.1089
65959DGPE   D3B25199  23.865  31.943   8.864 -0.0786  0.0570  0.0575
65959DGPE   C4B25200  23.995  31.724   8.488 -0.1949  0.1732 -0.1703
65959DGPE   C5B25201  24.319  31.561   8.250  0.0693 -0.2061 -0.0895
65960DGPE   NH325202  14.231   2.005  17.012  0.2523  0.1968  0.1383
65960DGPE   PO425203  14.594   1.854  16.945 -0.2069  0.6207  0.1174
65960DGPE   GL125204  14.483   1.680  16.583  0.2235  0.0638  0.0547
65960DGPE   GL225205  14.245   1.870  16.541 -0.1219  0.0718 -0.1550
65960DGPE   C1A25206  14.414   1.376  16.166 -0.1334 -0.2692 -0.1530
65960DGPE   C2A25207  14.503   1.244  15.863  0.2512  0.1619  0.1789
65960DGPE   D3A25208  14.300   1.098  15.551  0.1325 -0.0605 -0.0408
65960DGPE   C4A25209  13.784   1.011  15.640  0.1975 -0.2039 -0.0081
65960DGPE   C5A25210  13.440   1.220  15.583 -0.0644  0.1783  0.0043
65960DGPE   C1B25211  14.175   1.786  16.194  0.0570 -0.0220  0.0736
65960DGPE   C2B25212  14.000   1.931  15.817  0.3809  0.3677 -0.1884
65960DGPE   D3B25213  13.962   2.108  15.446  0.2762 -0.0191 -0.2883
65960DGPE   C4B25214  13.561   2.278  15.442 -0.1487 -0.1155 -0.3126
65960DGPE   C5B25215  13.270   2.660  15.523  0.0342  0.0455 -0.0621
65961DGPE   NH325216  17.669   0.345  15.813 -0.0594  0.0010  0.0493
65961DGPE   PO425217  17.285   0.285  15.521 -0.3529 -0.0761  0.0705
65961DGPE   GL125218  17.106  35.286  15.558 -0.0516  0.2020  0.1954
65961DGPE   GL225219  17.080  35.008  15.357  0.1848  0.0751  0.1387
65961DGPE   C1A25220  16.646  35.199  15.523  0.0663  0.0430 -0.4120
65961DGPE   C2A25221  16.435  34.729  15.407  0.3100  0.1045  0.0511
65961DGPE   D3A25222  16.127  34.400  15.402 -0.1666 -0.4008  0.3114
65961DGPE   C4A25223  16.061  34.436  14.955 -0.0060 -0.1080  0.0552
65961DGPE   C5A25224  15.729  34.603  14.721 -0.1547 -0.0998  0.0148
65961DGPE   C1B25225  16.780  34.930  15.054  0.0371 -0.0151  0.1183
65961DGPE   C2B25226  16.402  34.746  14.873 -0.0681 -0.4632 -0.2323
65961DGPE   D3B25227  16.200  34.822  14.535 -0.3278 -0.1666 -0.0155
65961DGPE   C4B25228  16.136  34.619  14.220 -0.0163 -0.2374  0.0715
65961DGPE   C5B25229  16.351  34.379  13.964  0.2324  0.4093  0.1048
65962DGPE   NH325230  10.815   5.643  18.807 -0.0930 -0.2632  0.2976
65962DGPE   PO425231  10.564   5.360  19.055 -0.1164 -0.2517 -0.1145
65962DGPE   GL125232  10.533   5.151  18.613 -0.0379  0.1476 -0.0489
65962DGPE   GL225233  10.752   4.995  18.480  0.1361  0.0518 -0.1747
65962DGPE   C1A25234  10.444   5.319  18.178  0.4155 -0.0765  0.0130
65962DGPE   C2A25235  10.257   5.468  17.826  0.0788  0.1523  0.1103
65962DGPE   D3A25236  10.146   5.682  17.424  0.1527  0.1193 -0.0661
65962DGPE   C4A25237  10.414   5.792  17.036  0.1219  0.0843 -0.0317
65962DGPE   C5A25238  10.602   5.767  16.702  0.0664  0.1755  0.1360
65962DGPE   C1B25239  10.676   4.852  17.983 -0.2187  0.2355  0.1901
65962DGPE   C2B25240  10.661   4.878  17.532  0.0111  0.0812  0.1756
65962DGPE   D3B25241  10.673   4.883  17.141  0.0590  0.2179 -0.0040
65962DGPE   C4B25242  10.552   5.290  16.879  0.2635 -0.2813  0.2157
65962DGPE   C5B25243  10.408   5.277  16.473  0.1469  0.0223 -0.2517
65963DGPE   NH325244   6.311  16.328  17.054  0.1118 -0.3566  0.0325
65963DGPE   PO425245   6.057  15.984  16.803  0.0840 -0.2482  0.0311
65963DGPE   GL125246   6.143  16.183  16.481  0.2564  0.1010  0.2515
65963DGPE   GL225247   6.348  16.377  16.499 -0.2837  0.0073 -0.3709
65963DGPE   C1A25248   6.036  16.231  16.114  0.3326 -0.2025 -0.1205
65963DGPE   C2A25249   6.277  16.246  15.770  0.0158 -0.0263  0.0428
65963DGPE   D3A25250   6.597  16.381  15.649 -0.0062 -0.0255 -0.3059
65963DGPE   C4A25251   6.743  16.718  15.447  0.0431  0.0342 -0.1180
65963DGPE   C5A25252   6.680  17.055  15.254 -0.0605 -0.0698 -0.2029
65963DGPE   C1B25253   6.444  16.490  16.141 -0.1516  0.2703  0.1687
65963DGPE   C2B25254   6.620  16.726  15.957  0.0304  0.0194  0.3460
65963DGPE   D3B25255   6.448  17.161  15.784 -0.0027 -0.2537  0.1406
65963DGPE   C4B25256   6.766  17.341  15.685 -0.0758 -0.1204  0.1401
65963DGPE   C5B25257   6.742  17.669  15.306  0.1441  0.2697  0.0131
65964DGPE   NH325258  33.845  15.684   5.600 -0.0596 -0.1537 -0.1461
65964DGPE   PO425259  33.578  15.318   5.555  0.0110  0.0900  0.0069
65964DGPE   GL125260  33.743  15.351   5.201  0.4665 -0.3372  0.0654
65964DGPE   GL225261  34.000  15.330   5.289  0.1697 -0.0631 -0.0167
65964DGPE   C1A25262  33.744  15.199   4.864 -0.1567  0.4640 -0.1051
65964DGPE   C2A25263  33.956  15.133   4.427  0.2217  0.3609 -0.2825
65964DGPE   D3A25264  34.167  15.247   4.052  0.1710  0.0838  0.2764
65964DGPE   C4A25265  34.403  14.992   3.933 -0.0836 -0.2263  0.2567
65964DGPE   C5A25266  34.576  14.818   3.665 -0.1257 -0.3220 -0.2561
65964DGPE   C1B25267  34.243  15.284   4.890  0.3119 -0.0277 -0.0113
65964DGPE   C2B25268  34.316  15.350   4.562 -0.1913 -0.2654  0.0698
65964DGPE   D3B25269  34.493  15.572   4.204  0.2152 -0.0467 -0.2363
65964DGPE   C4B25270  34.737  15.347   3.930  0.1879 -0.0835  0.3262
65964DGPE   C5B25271  35.085  15.176   3.828 -0.2235 -0.2044  0.0704
65965DGPE   NH325272   3.801  20.790  15.671  0.0246  0.2444  0.3835
65965DGPE   PO425273   4.216  20.909  15.770 -0.1925 -0.0748  0.0106
65965DGPE   GL125274   4.635  20.689  15.876 -0.0456 -0.0583  0.0259
65965DGPE   GL225275   4.804  21.040  15.990 -0.3516  0.0272  0.2641
65965DGPE   C1A25276   5.003  20.668  15.698 -0.1366  0.0329 -0.1073
65965DGPE   C2A25277   5.212  20.479  15.301 -0.2084  0.0976 -0.0868
65965DGPE   D3A25278   5.550  20.203  15.188 -0.3764 -0.1451  0.1950
65965DGPE   C4A25279   5.673  19.915  15.444 -0.3026  0.0972  0.2746
65965DGPE   C5A25280   5.983  19.515  15.297  0.1292  0.1958 -0.1310
65965DGPE   C1B25281   5.054  21.254  15.673 -0.2305 -0.1084  0.0502
65965DGPE   C2B25282   5.407  21.358  15.590 -0.0987 -0.2730  0.0507
65965DGPE   D3B25283   5.579  21.808  15.519 -0.0357  0.1723 -0.0637
65965DGPE   C4B25284   5.565  21.934  15.218  0.3043  0.0260 -0.4404
65965DGPE   C5B25285   5.591  21.842  14.825 -0.1123 -0.1666 -0.2409
65966DAPE   NH325286   4.697  26.393  20.545  0.0329 -0.1768  0.3152
65966DAPE   PO425287   4.860  25.913  20.502  0.2254  0.1537 -0.0310
65966DAPE   GL125288   5.122  26.048  20.279 -0.0222  0.2553 -0.2402
65966DAPE   GL225289   5.017  26.095  20.029  0.1231 -0.2457 -0.1102
65966DAPE   D1A25290   5.512  25.902  20.034 -0.1456  0.0019 -0.0350
65966DAPE   D2A25291   5.476  26.366  20.026  0.0646 -0.2048 -0.2055
65966DAPE   D3A25292   5.895  26.370  20.181 -0.0783 -0.0453  0.0095
65966DAPE   D4A25293   6.002  26.058  19.956 -0.0927  0.0483  0.2099
65966DAPE   C5A25294   6.305  26.003  19.658 -0.4131 -0.0760 -0.2146
65966DAPE   D1B25295   5.264  26.261  19.594  0.0908  0.1363 -0.0535
65966DAPE   D2B25296   5.733  26.178  19.572  0.0488  0.2617 -0.1231
65966DAPE   D3B25297   5.885  26.072  19.187 -0.0675  0.2946 -0.0331
65966DAPE   D4B25298   6.302  26.230  19.230  0.0085  0.0029  0.0519
65966DAPE   C5B25299   6.544  26.035  18.966 -0.1618  0.4977 -0.1827
65967DAPE   NH325300  21.846  11.110  14.613  0.0588 -0.2784  0.2844
65967DAPE   PO425301  22.021  10.705  14.747  0.1110  0.0693  0.1853
65967DAPE   GL125302  21.810  10.457  14.346  0.0927  0.1582  0.1417
65967DAPE   GL225303  21.549  10.484  14.144 -0.1958  0.0267  0.1994
65967DAPE   D1A25304  21.907  10.170  13.987 -0.1786 -0.5269  0.1391
65967DAPE   D2A25305  21.554  10.205  13.769 -0.1074  0.1085  0.1544
65967DAPE   D3A25306  21.492  10.343  13.354  0.0228  0.0699  0.0944
65967DAPE   D4A25307  21.332  10.392  12.969  0.2240  0.0894 -0.5571
65967DAPE   C5A25308  20.970  10.202  12.803 -0.2710  0.1322  0.1614
65967DAPE   D1B25309  21.227  10.290  14.295  0.0399  0.4708 -0.2382
65967DAPE   D2B25310  21.455   9.904  14.228 -0.0543  0.2104  0.2287
65967DAPE   D3B25311  21.070   9.966  13.943 -0.2193  0.0161 -0.1086
65967DAPE   D4B25312  20.889   9.578  13.854 -0.1525 -0.0657  0.0978
65967DAPE   C5B25313  21.089   9.274  13.565 -0.1845  0.0799 -0.0918
65968DAPE   NH325314  15.921  34.386  18.566 -0.3584 -0.2454  0.0915
65968DAPE   PO425315  15.992  34.046  18.197 -0.0879  0.0225  0.1594
65968DAPE   GL125316  15.816  33.748  17.918 -0.0625 -0.0781 -0.0625
65968DAPE   GL225317  15.953  33.618  17.530 -0.0070  0.1808  0.1332
65968DAPE   D1A25318  15.582  33.436  17.815 -0.4453  0.0096  0.3969
65968DAPE   D2A25319  15.262  33.510  18.068 -0.1445 -0.1101 -0.1523
65968DAPE   D3A25320  14.974  33.402  17.766  0.0214 -0.0329  0.0152
65968DAPE   D4A25321  15.295  32.968  17.660  0.3852 -0.1454  0.1765
65968DAPE   C5A25322  15.174  32.680  17.383  0.0254 -0.3029  0.1013
65968DAPE   D1B25323  15.881  33.309  17.430 -0.1314 -0.1740  0.3893
65968DAPE   D2B25324  15.448  33.207  17.229 -0.1562 -0.0480  0.0922
65968DAPE   D3B25325  15.469  33.651  17.341  0.0302 -0.0893 -0.1443
65968DAPE   D4B25326  15.345  33.670  16.906  0.1256  0.1917  0.0756
65968DAPE   C5B25327  14.997  33.450  16.741  0.0746  0.0530  0.1464
65969DAPE   NH325328  19.978   6.159  16.925  0.3338 -0.0412 -0.1382
65969DAPE   PO425329  19.583   6.349  16.966  0.2084  0.2620  0.0339
65969DAPE   GL125330  19.245   6.281  16.688  0.1137  0.0323 -0.0692
65969DAPE   GL225331  18.984   6.157  16.663  0.0703 -0.3999 -0.2263
65969DAPE   D1A25332  19.302   6.400  16.306 -0.2244  0.1431  0.3109
65969DAPE   D2A25333  19.500   6.086  16.109 -0.4105 -0.0239 -0.3268
65969DAPE   D3A25334  19.647   6.211  15.670  0.1125  0.0583  0.0319
65969DAPE   D4A25335  19.370   6.170  15.383  0.0001  0.4210  0.1412
65969DAPE   C5A25336  19.226   6.063  15.035  0.2154 -0.0960  0.0103
65969DAPE   D1B25337  19.128   5.931  16.408  0.0236  0.4059 -0.0176
65969DAPE   D2B25338  18.796   6.228  16.210  0.3732  0.1104  0.5509
65969DAPE   D3B25339  18.684   6.543  15.991  0.1534 -0.0484  0.0431
65969DAPE   D4B25340  18.670   6.433  15.556 -0.1194 -0.0146  0.0397
65969DAPE   C5B25341  19.050   6.568  15.404  0.1288  0.1502 -0.0344
65970DAPE   NH325342   5.369   7.886  17.871  0.3716 -0.1933  0.0293
65970DAPE   PO425343   5.233   7.510  17.646 -0.1066  0.0669  0.1314
65970DAPE   GL125344   5.469   7.478  17.215  0.0995  0.0523  0.1205
65970DAPE   GL225345   5.808   7.383  17.144 -0.0211 -0.1547 -0.1786
65970DAPE   D1A25346   5.287   7.518  16.811  0.2083 -0.0695  0.1186
65970DAPE   D2A25347   5.241   7.951  16.848  0.0682 -0.0478  0.2685
65970DAPE   D3A25348   5.096   7.804  16.431 -0.1537 -0.0652  0.1423
65970DAPE   D4A25349   5.285   7.842  16.122  0.1848  0.0902  0.2077
65970DAPE   C5A25350   5.491   7.694  15.738  0.0162 -0.3265 -0.1869
65970DAPE   D1B25351   5.799   7.870  17.024  0.2217  0.1259  0.1232
65970DAPE   D2B25352   6.234   7.793  16.923  0.0378 -0.0178  0.2204
65970DAPE   D3B25353   6.427   7.525  17.099 -0.5047 -0.2189  0.0968
65970DAPE   D4B25354   6.392   7.150  17.037 -0.2329 -0.1654  0.3694
65970DAPE   C5B25355   6.108   7.025  16.838  0.3999  0.0985  0.2149
65971DAPE   NH325356  11.410  19.249  20.615 -0.1443 -0.0561 -0.1825
65971DAPE   PO425357  11.770  19.431  20.861 -0.2729 -0.0790  0.0113
65971DAPE   GL125358  11.498  19.729  20.685  0.0272 -0.0193 -0.0319
65971DAPE   GL225359  11.757  19.989  20.831 -0.1730  0.0457  0.0847
65971DAPE   D1A25360  11.205  19.991  20.435 -0.0284  0.2250  0.1704
65971DAPE   D2A25361  10.750  19.808  20.436  0.0099 -0.2855  0.1478
65971DAPE   D3A25362  10.693  20.089  20.670  0.0192 -0.1237  0.1858
65971DAPE   D4A25363  10.885  20.373  20.274 -0.0206  0.0758 -0.0827
65971DAPE   C5A25364  11.215  20.253  19.909  0.0130 -0.0195  0.2758
65971DAPE   D1B25365  12.055  20.131  20.988 -0.1791 -0.0041  0.1919
65971DAPE   D2B25366  12.537  19.955  21.055 -0.2145 -0.1720  0.0169
65971DAPE   D3B25367  12.569  19.739  20.699 -0.1591 -0.0107  0.1972
65971DAPE   D4B25368  12.184  19.730  20.695  0.2495  0.1428  0.1025
65971DAPE   C5B25369  11.883  19.806  20.347  0.0383 -0.1126 -0.0799
65972DAPE   NH325370  16.582  23.379  21.482  0.0507 -0.1051  0.1906
65972DAPE   PO425371  16.630  23.777  21.332  0.0784 -0.3213 -0.2079
65972DAPE   GL125372  16.620  23.859  20.891 -0.3120  0.4683 -0.0609
65972DAPE   GL225373  16.285  23.897  20.878  0.0631 -0.0389 -0.0034
65972DAPE   D1A25374  16.516  24.086  20.522  0.1831  0.0563 -0.0417
65972DAPE   D2A25375  16.330  23.787  20.293 -0.0778  0.0587 -0.2228
65972DAPE   D3A25376  16.195  23.715  19.946  0.1173  0.2732  0.0499
65972DAPE   D4A25377  16.063  23.406  19.853 -0.0616 -0.0187  0.0101
65972DAPE   C5A25378  15.961  23.405  19.449 -0.0653  0.0065  0.0737
65972DAPE   D1B25379  15.852  23.808  20.739 -0.1646 -0.1364 -0.0154
65972DAPE   D2B25380  15.901  23.944  20.333  0.1078 -0.1136 -0.0785
65972DAPE   D3B25381  15.640  23.727  20.110 -0.1272 -0.5536 -0.0878
65972DAPE   D4B25382  15.701  23.687  19.743  0.3289 -0.0525  0.0438
65972DAPE   C5B25383  15.971  23.939  19.437  0.0777 -0.1961  0.1665
65973DAPE   NH325384   0.338  34.262  15.471  0.0566 -0.2947 -0.0316
65973DAPE   PO425385   0.131  34.345  15.143  0.0926  0.0571 -0.3529
65973DAPE   GL125386   0.359  33.936  15.095 -0.2537  0.0265 -0.0729
65973DAPE   GL225387   0.534  33.859  14.851 -0.2226  0.2049  0.1590
65973DAPE   D1A25388   0.457  33.590  15.280  0.0297  0.2883 -0.2892
65973DAPE   D2A25389   0.670  33.356  14.964 -0.0835  0.1455  0.2651
65973DAPE   D3A25390   0.550  33.468  14.404 -0.0681  0.1329  0.1639
65973DAPE   D4A25391   0.868  33.727  14.489 -0.4409  0.0210  0.1149
65973DAPE   C5A25392   1.162  33.609  14.141 -0.4662 -0.1020 -0.1721
65973DAPE   D1B25393   0.414  34.290  14.573  0.2892  0.1320 -0.1522
65973DAPE   D2B25394   0.391  33.894  14.362 -0.2082 -0.1335  0.3369
65973DAPE   D3B25395   0.077  33.623  14.446  0.0506 -0.3482  0.2289
65973DAPE   D4B25396   0.180  33.498  14.059  0.1356 -0.0755 -0.0430
65973DAPE   C5B25397   0.538  33.718  13.826 -0.0297  0.1855  0.2046
65974DAPE   NH325398   3.209  14.828  15.184 -0.1220  0.0130  0.1053
65974DAPE   PO425399   3.365  15.194  15.039  0.4104 -0.1814  0.2227
65974DAPE   GL125400   3.697  15.002  14.684  0.1499  0.2355 -0.3926
65974DAPE   GL225401   3.761  14.951  14.414 -0.2445 -0.0674 -0.3521
65974DAPE   D1A25402   4.078  14.904  14.767  0.1559 -0.1172 -0.2792
65974DAPE   D2A25403   4.016  15.318  14.867  0.1284  0.0066  0.2215
65974DAPE   D3A25404   4.114  15.278  14.389  0.5321  0.0876  0.2028
65974DAPE   D4A25405   4.358  14.917  14.315 -0.3471  0.2152 -0.3045
65974DAPE   C5A25406   4.794  14.919  14.146  0.1599  0.2579  0.0413
65974DAPE   D1B25407   3.629  15.245  14.197 -0.2462  0.1800 -0.0279
65974DAPE   D2B25408   3.842  15.695  14.332 -0.0937  0.2026 -0.2860
65974DAPE   D3B25409   4.226  15.732  14.239 -0.0185  0.0339  0.3936
65974DAPE   D4B25410   4.196  16.091  14.352  0.0613 -0.0096 -0.0351
65974DAPE   C5B25411   4.260  16.549  14.598  0.0554  0.1169 -0.1630
65975DAPE   NH325412  10.165  10.858  19.115 -0.2194  0.1529 -0.1284
65975DAPE   PO425413  10.006  11.108  18.870 -0.3732 -0.1300  0.0649
65975DAPE   GL125414  10.306  10.885  18.608  0.0892  0.2379 -0.1466
65975DAPE   GL225415  10.174  10.641  18.430  0.1729  0.0276 -0.2053
65975DAPE   D1A25416  10.711  10.919  18.494  0.0353  0.0897 -0.0195
65975DAPE   D2A25417  11.078  10.840  18.681  0.2172  0.1063  0.0197
65975DAPE   D3A25418  10.976  10.514  18.287 -0.1531  0.0835  0.0406
65975DAPE   D4A25419  11.104  10.465  18.012  0.1991 -0.3363 -0.0948
65975DAPE   C5A25420  10.789  10.390  17.701 -0.2370 -0.2654 -0.2509
65975DAPE   D1B25421  10.032  10.574  18.121  0.3586  0.1014  0.3632
65975DAPE   D2B25422  10.123  10.271  17.782  0.0482  0.0417 -0.2553
65975DAPE   D3B25423   9.992   9.846  18.009 -0.2381  0.0791 -0.1042
65975DAPE   D4B25424   9.909   9.750  17.653 -0.2079  0.2483 -0.2286
65975DAPE   C5B25425   9.811  10.122  17.441  0.2367 -0.0568  0.4857
65976DAPE   NH325426  11.308  34.910  20.385 -0.0113 -0.0212 -0.0192
65976DAPE   PO425427  10.866  34.923  20.474  0.2006  0.1862 -0.1215
65976DAPE   GL125428  10.544  34.974  20.199  0.1503 -0.1528  0.3585
65976DAPE   GL225429  10.561  35.067  19.814  0.3428  0.4335 -0.1438
65976DAPE   D1A25430  10.082  34.892  20.055 -0.3068 -0.2612 -0.1646
65976DAPE   D2A25431   9.873  34.815  20.404  0.0849  0.2630 -0.3336
65976DAPE   D3A25432   9.737  34.449  20.154  0.1348 -0.0518 -0.3799
65976DAPE   D4A25433   9.978  34.431  19.799 -0.0004 -0.2586 -0.0585
65976DAPE   C5A25434  10.047  34.040  19.625 -0.0348 -0.0758 -0.0199
65976DAPE   D1B25435  10.661  34.969  19.431 -0.1257 -0.1445  0.3175
65976DAPE   D2B25436  10.626  35.345  19.314 -0.0246  0.0973  0.2409
65976DAPE   D3B25437  10.411  35.224  18.987 -0.0022 -0.2633 -0.2408
65976DAPE   D4B25438  10.389  34.799  18.871 -0.1925  0.1568 -0.1098
65976DAPE   C5B25439  10.512  34.599  18.456  0.0109  0.0107  0.1990
65977DAPE   NH325440  25.123  18.883   7.687 -0.3481  0.0930 -0.1985
65977DAPE   PO425441  25.418  19.199   7.621 -0.0513  0.0476  0.3262
65977DAPE   GL125442  25.080  19.300   7.889 -0.1742 -0.0148 -0.1935
65977DAPE   GL225443  25.067  19.305   8.176 -0.2480 -0.4030  0.0667
65977DAPE   D1A25444  24.674  19.215   7.836  0.2602  0.3930 -0.2971
65977DAPE   D2A25445  24.598  19.033   8.274 -0.0343 -0.0449 -0.2279
65977DAPE   D3A25446  24.338  18.783   8.363  0.3757 -0.2919 -0.2914
65977DAPE   D4A25447  23.935  18.693   8.146 -0.1484 -0.1319 -0.0171
65977DAPE   C5A25448  23.508  18.708   8.259 -0.0503 -0.3069  0.0246
65977DAPE   D1B25449  24.648  19.485   8.238 -0.0613 -0.2075  0.2079
65977DAPE   D2B25450  24.799  19.746   7.950 -0.3222 -0.1780 -0.1930
65977DAPE   D3B25451  24.873  19.630   7.549  0.0357  0.1047 -0.0149
65977DAPE   D4B25452  24.401  19.764   7.513  0.0560 -0.2383 -0.0471
65977DAPE   C5B25453  24.032  20.060   7.573  0.3718  0.0286  0.0537
65978DAPE   NH325454   8.226   1.194  20.352 -0.4150  0.3578 -0.2660
65978DAPE   PO425455   8.358   0.926  20.033  0.1176 -0.0710  0.1958
65978DAPE   GL125456   8.104   0.870  19.638 -0.1875  0.1906  0.1156
65978DAPE   GL225457   8.186   1.091  19.299  0.0365 -0.1229  0.2380
65978DAPE   D1A25458   8.243   0.575  19.285  0.4395 -0.3947  0.5132
65978DAPE   D2A25459   7.947   0.697  18.943  0.1561 -0.4014 -0.3681
65978DAPE   D3A25460   8.220   0.568  18.548  0.1062 -0.0510  0.0695
65978DAPE   D4A25461   8.423   0.277  18.733 -0.0463  0.0386  0.1288
65978DAPE   C5A25462   8.203  35.257  18.825  0.0645  0.0582 -0.0960
65978DAPE   D1B25463   7.817   1.174  19.010 -0.1263 -0.1418 -0.0465
65978DAPE   D2B25464   7.750   0.958  18.588 -0.1974  0.0471 -0.1399
65978DAPE   D3B25465   7.502   1.293  18.554 -0.2292 -0.1699 -0.2145
65978DAPE   D4B25466   7.469   1.099  18.169 -0.1335  0.0905 -0.1651
65978DAPE   C5B25467   7.332   1.223  17.685 -0.4422  0.2961 -0.1375
65979DAPE   NH325468  13.799  25.610  21.680 -0.4057  0.2114 -0.1956
65979DAPE   PO425469  13.631  25.959  21.768  0.0551  0.0257 -0.1253
65979DAPE   GL125470  13.615  25.788  21.219  0.0254 -0.2197 -0.3770
65979DAPE   GL225471  13.926  25.920  21.068 -0.1948  0.1807 -0.0108
65979DAPE   D1A25472  13.339  25.667  20.826  0.3653 -0.0978  0.1762
65979DAPE   D2A25473  13.679  25.731  20.614  0.1520  0.0375  0.1085
65979DAPE   D3A25474  13.465  25.869  20.334 -0.0515  0.0103 -0.1392
65979DAPE   D4A25475  13.365  25.695  19.908  0.2834  0.0533 -0.3686
65979DAPE   C5A25476  13.649  25.532  19.665  0.1407  0.2943  0.0923
65979DAPE   D1B25477  14.234  26.350  21.161 -0.0343 -0.2150  0.1430
65979DAPE   D2B25478  14.639  26.368  20.912  0.1010  0.0581  0.1410
65979DAPE   D3B25479  14.433  26.428  20.573 -0.1626  0.3463  0.1178
65979DAPE   D4B25480  14.370  26.670  20.205 -0.0225  0.0824 -0.0154
65979DAPE   C5B25481  14.690  26.814  20.121  0.0263 -0.3054  0.1701
65980DAPE   NH325482  11.907   6.262  19.074  0.1487  0.1859  0.1278
65980DAPE   PO425483  11.971   6.623  19.000  0.2922  0.0312  0.0740
65980DAPE   GL125484  12.103   6.646  18.589 -0.1004  0.3368 -0.0980
65980DAPE   GL225485  11.925   6.369  18.510 -0.1051  0.2785 -0.0826
65980DAPE   D1A25486  12.574   6.630  18.321 -0.0221  0.1358  0.1002
65980DAPE   D2A25487  12.943   6.884  18.097 -0.1155 -0.3350  0.2099
65980DAPE   D3A25488  13.318   6.801  17.763  0.1620 -0.1846  0.1306
65980DAPE   D4A25489  13.572   6.757  18.060  0.5474 -0.1361  0.1546
65980DAPE   C5A25490  14.029   7.024  18.076  0.1924  0.0669  0.3351
65980DAPE   D1B25491  12.151   6.444  18.109  0.3173  0.1154  0.2221
65980DAPE   D2B25492  12.239   6.091  17.859 -0.0696  0.1557 -0.1079
65980DAPE   D3B25493  12.597   6.085  17.594  0.5872  0.0472 -0.1743
65980DAPE   D4B25494  12.702   6.509  17.363  0.3775  0.2499 -0.0228
65980DAPE   C5B25495  12.972   6.866  17.412  0.0655 -0.0110 -0.1178
65981DAPE   NH325496   9.513   6.626  19.226 -0.0947  0.1240 -0.0986
65981DAPE   PO425497   9.438   6.200  19.063  0.2227 -0.0066 -0.0766
65981DAPE   GL125498   9.806   6.196  18.888  0.2919 -0.2139 -0.1219
65981DAPE   GL225499   9.988   6.397  18.836 -0.0612 -0.0740  0.4810
65981DAPE   D1A25500   9.820   6.121  18.413 -0.1711 -0.1207 -0.0845
65981DAPE   D2A25501   9.582   5.790  18.263 -0.1178 -0.0268 -0.0446
65981DAPE   D3A25502   9.481   6.131  17.920  0.4362 -0.2469  0.1279
65981DAPE   D4A25503   9.348   5.916  17.740 -0.2256  0.0678  0.3511
65981DAPE   C5A25504   9.058   6.100  17.335 -0.1580  0.4891  0.0187
65981DAPE   D1B25505   9.805   6.635  18.640 -0.1629  0.4140 -0.0375
65981DAPE   D2B25506  10.030   6.953  18.347  0.0490 -0.3349 -0.0221
65981DAPE   D3B25507   9.676   6.877  18.077  0.0445  0.0393 -0.0747
65981DAPE   D4B25508   9.542   6.859  17.667  0.1365 -0.0368  0.3831
65981DAPE   C5B25509   9.261   6.482  17.667 -0.2715 -0.2321  0.0564
65982DAPE   NH325510  21.462  25.646  16.267  0.2143 -0.2676  0.0295
65982DAPE   PO425511  21.405  26.047  16.207 -0.0496 -0.1509 -0.0209
65982DAPE   GL125512  21.162  25.852  15.888  0.1676  0.0534 -0.1406
65982DAPE   GL225513  21.163  26.051  15.640  0.0052  0.1365 -0.3011
65982DAPE   D1A25514  20.697  25.888  15.730 -0.1153  0.1852 -0.0531
65982DAPE   D2A25515  20.480  25.705  15.434  0.2265 -0.0692  0.1975
65982DAPE   D3A25516  20.955  25.507  15.503  0.1642 -0.1696 -0.0486
65982DAPE   D4A25517  20.764  25.282  15.839  0.5424  0.2602 -0.3682
65982DAPE   C5A25518  20.592  24.854  15.813 -0.0111  0.0649  0.1887
65982DAPE   D1B25519  20.925  26.074  15.265 -0.0637  0.1383  0.1181
65982DAPE   D2B25520  21.066  25.845  15.053  0.2405  0.0016  0.0844
65982DAPE   D3B25521  21.381  25.705  15.303 -0.1175  0.2133 -0.0827
65982DAPE   D4B25522  21.299  25.288  15.242  0.3710  0.0241 -0.1092
65982DAPE   C5B25523  21.170  24.865  15.546 -0.0067 -0.2267 -0.2593
65983DAPE   NH325524  23.988   9.638  12.757  0.1309  0.1817  0.0679
65983DAPE   PO425525  24.309   9.428  12.851  0.0278  0.1534  0.1010
65983DAPE   GL125526  24.168   9.192  12.569  0.4045 -0.1930 -0.0519
65983DAPE   GL225527  23.864   9.082  12.495 -0.0211 -0.0804 -0.2899
65983DAPE   D1A25528  24.381   8.962  12.272  0.0796 -0.1722 -0.0459
65983DAPE   D2A25529  24.209   8.585  12.439  0.0417 -0.0679  0.2486
65983DAPE   D3A25530  24.018   8.560  12.060 -0.3159  0.0016  0.4057
65983DAPE   D4A25531  23.720   8.799  11.970 -0.2415  0.0566  0.1612
65983DAPE   C5A25532  23.228   8.708  11.681  0.0391  0.0429  0.0102
65983DAPE   D1B25533  23.767   8.555  12.543 -0.0229  0.0868  0.2349
65983DAPE   D2B25534  23.413   8.819  12.398 -0.0385  0.0225  0.0009
65983DAPE   D3B25535  23.176   8.573  12.188  0.0942  0.2680  0.3795
65983DAPE   D4B25536  23.518   8.354  12.014  0.0170  0.0462 -0.3016
65983DAPE   C5B25537  23.424   8.217  11.540 -0.1676 -0.0510  0.0237
65984DAPE   NH325538  18.835  27.007  19.511  0.1805  0.0583  0.1772
65984DAPE   PO425539  18.945  26.892  19.105 -0.0333  0.2593 -0.2792
65984DAPE   GL125540  18.682  26.531  19.190 -0.1251 -0.0033  0.0109
65984DAPE   GL225541  18.584  26.569  19.468 -0.0496 -0.4667  0.0072
65984DAPE   D1A25542  18.361  26.154  19.103 -0.1425  0.1241 -0.2112
65984DAPE   D2A25543  18.358  25.807  19.066  0.0325  0.1287 -0.0362
65984DAPE   D3A25544  17.907  25.861  19.151 -0.0729  0.3254 -0.0276
65984DAPE   D4A25545  17.615  26.066  19.372  0.0013 -0.1288 -0.0927
65984DAPE   C5A25546  17.380  26.185  19.087  0.2043  0.1382  0.0633
65984DAPE   D1B25547  18.199  26.750  19.233 -0.3198 -0.0473 -0.0945
65984DAPE   D2B25548  17.846  26.816  19.432 -0.0167 -0.3297  0.1231
65984DAPE   D3B25549  17.564  26.580  19.353  0.3337  0.0986 -0.0199
65984DAPE   D4B25550  17.744  26.416  18.963 -0.1568 -0.1515  0.1248
65984DAPE   C5B25551  17.596  26.112  18.645  0.0451  0.0317 -0.1654
65985DAPE   NH325552  28.613  28.357   9.087  0.1471  0.1021 -0.5051
65985DAPE   PO425553  29.113  28.182   9.153  0.2635  0.2369  0.1827
65985DAPE   GL125554  29.175  28.477   8.926 -0.1625  0.2923  0.0185
65985DAPE   GL225555  29.092  28.826   8.976  0.2300 -0.0515  0.0222
65985DAPE   D1A25556  29.170  28.761   8.514 -0.1814 -0.3489 -0.1253
65985DAPE   D2A25557  29.381  29.111   8.546  0.0896  0.2858 -0.1082
65985DAPE   D3A25558  29.540  29.317   8.844 -0.3467  0.0517 -0.0809
65985DAPE   D4A25559  29.636  29.492   8.387 -0.0568  0.2624  0.2141
65985DAPE   C5A25560  29.478  29.710   8.159 -0.0110  0.2482  0.1833
65985DAPE   D1B25561  28.701  28.866   8.876  0.0056  0.2871 -0.1451
65985DAPE   D2B25562  28.847  29.117   8.423  0.1224  0.0449  0.2222
65985DAPE   D3B25563  28.873  28.980   7.995  0.0652 -0.0224  0.1426
65985DAPE   D4B25564  28.562  29.204   7.648 -0.2093  0.0551 -0.0409
65985DAPE   C5B25565  28.736  29.517   7.435 -0.1011 -0.2052 -0.0473
65986DAPE   NH325566   8.961  21.557  22.550 -0.0822  0.2067 -0.1988
65986DAPE   PO425567   9.228  21.329  22.261 -0.0851 -0.0590  0.0049
65986DAPE   GL125568   9.512  21.508  21.922  0.2920 -0.1984 -0.2156
65986DAPE   GL225569   9.499  21.857  21.959  0.0270  0.0651  0.1992
65986DAPE   D1A25570   9.541  21.716  21.465 -0.0778 -0.1328  0.0015
65986DAPE   D2A25571   9.953  21.805  21.696  0.1837  0.0105  0.2704
65986DAPE   D3A25572  10.117  22.162  21.527 -0.3098  0.2028 -0.1553
65986DAPE   D4A25573   9.728  22.228  21.226 -0.1248  0.0039 -0.1730
65986DAPE   C5A25574   9.524  22.647  21.224  0.1025  0.0104 -0.1445
65986DAPE   D1B25575   9.708  22.294  21.744 -0.0031  0.0916  0.1431
65986DAPE   D2B25576  10.045  22.433  21.973 -0.2061 -0.0185  0.1483
65986DAPE   D3B25577  10.151  22.962  21.853  0.1053  0.1068  0.2238
65986DAPE   D4B25578   9.985  22.755  21.493  0.1265  0.0900  0.0637
65986DAPE   C5B25579   9.914  22.922  21.052  0.4459 -0.2313  0.2517
65987DAPE   NH325580   1.776  13.794  12.902 -0.0298 -0.2220 -0.0914
65987DAPE   PO425581   1.995  14.013  13.230  0.1816 -0.2398 -0.0372
65987DAPE   GL125582   2.342  14.259  13.281 -0.0128  0.1789 -0.1187
65987DAPE   GL225583   2.548  14.217  12.994  0.0390 -0.2300  0.1809
65987DAPE   D1A25584   2.716  14.184  13.568  0.0774 -0.2083 -0.1459
65987DAPE   D2A25585   2.972  14.482  13.538  0.2241  0.1147 -0.3170
65987DAPE   D3A25586   3.204  14.140  13.278  0.0341 -0.0930  0.0032
65987DAPE   D4A25587   3.213  14.386  12.926 -0.0265  0.0191 -0.2295
65987DAPE   C5A25588   3.021  14.887  12.930 -0.0008 -0.2934  0.0343
65987DAPE   D1B25589   2.755  14.551  13.109 -0.3083  0.0620  0.0771
65987DAPE   D2B25590   2.807  14.473  12.625 -0.3480 -0.4464 -0.1662
65987DAPE   D3B25591   3.194  14.290  12.337  0.2461 -0.3344  0.0567
65987DAPE   D4B25592   3.031  13.954  12.667  0.0605  0.1718 -0.0663
65987DAPE   C5B25593   3.341  13.753  13.000 -0.1838 -0.2638  0.1947
65988DPSM   NC325594  31.189  25.148   7.447  0.1212 -0.1248 -0.1623
65988DPSM   PO425595  30.800  25.346   7.247  0.1013  0.0652  0.3312
65988DPSM   AM125596  30.828  25.562   6.916 -0.0792 -0.0029  0.0050
65988DPSM   AM225597  30.711  25.401   6.770  0.0311  0.0110 -0.1138
65988DPSM   T1A25598  30.716  25.918   6.858  0.0331 -0.0390  0.1350
65988DPSM   C2A25599  30.775  26.223   6.663  0.2085 -0.2511  0.0940
65988DPSM   C3A25600  30.573  26.532   6.413 -0.1807 -0.0300 -0.1085
65988DPSM   C1B25601  30.891  25.722   6.470 -0.3106  0.0964 -0.2001
65988DPSM   C2B25602  30.995  26.035   6.239 -0.2387  0.1139 -0.0036
65988DPSM   C3B25603  31.293  26.107   5.922 -0.2663  0.0365  0.0779
65988DPSM   C4B25604  31.529  26.451   5.798  0.0402  0.1284  0.4295
65989DPSM   NC325605   1.274   2.930  14.115 -0.1413  0.0987 -0.1319
65989DPSM   PO425606   1.269   3.375  14.195 -0.4328  0.0016  0.1796
65989DPSM   AM125607   1.610   3.563  13.942 -0.1140  0.1889  0.0379
65989DPSM   AM225608   1.459   3.846  13.839 -0.1503 -0.1181 -0.0285
65989DPSM   T1A25609   1.993   3.361  13.752 -0.1552  0.1464 -0.0538
65989DPSM   C2A25610   2.195   3.148  13.432  0.0225 -0.3653 -0.1440
65989DPSM   C3A25611   2.461   2.863  13.118  0.1420  0.2498  0.1415
65989DPSM   C1B25612   1.767   3.859  13.499  0.1979  0.0007  0.0186
65989DPSM   C2B25613   2.131   3.667  13.334  0.3373 -0.2267 -0.1873
65989DPSM   C3B25614   2.396   3.521  13.127 -0.0147  0.0158  0.1146
65989DPSM   C4B25615   2.694   3.330  12.954  0.0855  0.0567  0.2915
65990DPSM   NC325616  24.511  23.127  11.298  0.0577 -0.1639 -0.1940
65990DPSM   PO425617  24.339  22.822  11.005  0.0598  0.0733 -0.0397
65990DPSM   AM125618  24.205  22.926  10.606  0.2039  0.0015 -0.0326
65990DPSM   AM225619  24.090  22.544  10.545  0.1826  0.0524 -0.2959
65990DPSM   T1A25620  23.932  23.000  10.315  0.0894  0.0932  0.0582
65990DPSM   C2A25621  23.651  22.955  10.067  0.1364  0.1855  0.1670
65990DPSM   C3A25622  23.200  22.893   9.923 -0.0569  0.0683  0.2495
65990DPSM   C1B25623  23.758  22.500  10.262 -0.1064 -0.1185  0.1378
65990DPSM   C2B25624  23.372  22.477  10.096 -0.1928  0.1244 -0.2774
65990DPSM   C3B25625  22.976  22.335  10.146  0.1530  0.3121 -0.1025
65990DPSM   C4B25626  22.548  22.328   9.807  0.2048 -0.2260  0.1511
65991DPSM   NC325627  34.647   6.858  11.312  0.0115  0.1122 -0.3974
65991DPSM   PO425628  34.270   6.553  11.273 -0.1546  0.0098  0.1667
65991DPSM   AM125629  34.471   6.486  10.895  0.5280 -0.0685  0.1930
65991DPSM   AM225630  34.826   6.511  10.883 -0.2922 -0.0951 -0.1210
65991DPSM   T1A25631  34.444   6.169  10.570  0.1539  0.0879  0.1171
65991DPSM   C2A25632  34.518   5.998  10.236 -0.1579 -0.2606 -0.2147
65991DPSM   C3A25633  34.678   5.934   9.927 -0.2139  0.1063  0.0057
65991DPSM   C1B25634  34.849   6.405  10.398  0.1037 -0.0536  0.4874
65991DPSM   C2B25635  34.530   6.404   9.963  0.0826  0.1110 -0.2752
65991DPSM   C3B25636  34.247   6.137   9.666  0.1333 -0.2243  0.4447
65991DPSM   C4B25637  34.242   6.005   9.245 -0.0258  0.1325  0.1345
65992DPSM   NC325638  35.359  14.508   8.517 -0.1801  0.2572  0.0981
65992DPSM   PO425639   0.289  14.338   8.837 -0.0442 -0.0585  0.0816
65992DPSM   AM125640   0.575  14.073   8.674 -0.2795 -0.1034  0.0141
65992DPSM   AM225641   0.495  13.756   8.723 -0.1001  0.0915 -0.3205
65992DPSM   T1A25642   0.826  13.852   8.323  0.1323 -0.1607  0.0003
65992DPSM   C2A25643   1.171  13.680   8.098 -0.0118  0.0042 -0.4012
65992DPSM   C3A25644   1.452  13.671   7.873  0.0838 -0.0191 -0.0841
65992DPSM   C1B25645   0.783  13.405   8.563 -0.0768  0.1524  0.0915
65992DPSM   C2B25646   1.127  13.239   8.311  0.0115 -0.0017 -0.1376
65992DPSM   C3B25647   1.501  13.194   8.006  0.1482  0.0069  0.4130
65992DPSM   C4B25648   1.815  12.954   7.863  0.0901  0.0290 -0.3479
65993DPSM   NC325649  29.692  25.626   7.643 -0.0813  0.1314  0.0218
65993DPSM   PO425650  29.884  25.300   7.386 -0.0581  0.0495 -0.2149
65993DPSM   AM125651  29.868  25.681   7.096  0.1890 -0.0088  0.1742
65993DPSM   AM225652  29.661  25.947   7.097 -0.0238 -0.0103 -0.1793
65993DPSM   T1A25653  29.815  25.873   6.631 -0.0765  0.0123 -0.1984
65993DPSM   C2A25654  29.627  26.154   6.370 -0.0904 -0.3885  0.0754
65993DPSM   C3A25655  29.623  26.364   6.067  0.2368  0.0040  0.0005
65993DPSM   C1B25656  29.646  26.320   6.842  0.1916  0.3412  0.6060
65993DPSM   C2B25657  29.735  26.670   6.513 -0.0249 -0.1411 -0.1884
65993DPSM   C3B25658  29.757  26.845   6.193  0.1796 -0.0955  0.3927
65993DPSM   C4B25659  29.387  26.900   5.816  0.0840 -0.2457  0.4220
65994DPSM   NC325660  24.995  25.567   9.664  0.0606 -0.0614 -0.2704
65994DPSM   PO425661  25.139  25.313   9.325  0.2770 -0.0156 -0.0489
65994DPSM   AM125662  24.939  25.373   8.982  0.1274 -0.0664 -0.1475
65994DPSM   AM225663  24.962  25.467   8.671 -0.1585 -0.0967 -0.1067
65994DPSM   T1A25664  24.466  25.325   8.839  0.0147 -0.2637  0.0256
65994DPSM   C2A25665  24.076  25.500   8.621 -0.1336  0.0957  0.0209
65994DPSM   C3A25666  23.742  25.658   8.383  0.0674  0.0230  0.1254
65994DPSM   C1B25667  24.678  25.571   8.455 -0.1295 -0.3126  0.2149
65994DPSM   C2B25668  24.350  25.721   8.299  0.0300 -0.2995 -0.1379
65994DPSM   C3B25669  24.024  25.946   8.060 -0.0802 -0.1590 -0.1828
65994DPSM   C4B25670  23.785  26.047   7.642  0.3204  0.3560 -0.4894
65995DPSM   NC325671  32.086  15.489   5.564  0.1867 -0.2137  0.3464
65995DPSM   PO425672  32.547  15.407   5.354  0.3763 -0.0300 -0.1208
65995DPSM   AM125673  33.013  15.366   5.346  0.1486  0.0146 -0.2748
65995DPSM   AM225674  33.220  15.516   5.235 -0.0560  0.2042  0.0800
65995DPSM   T1A25675  33.259  15.037   5.226 -0.0971  0.1424  0.0630
65995DPSM   C2A25676  33.481  14.707   5.156  0.0508 -0.3816  0.1804
65995DPSM   C3A25677  33.809  14.679   4.757 -0.2178 -0.2304  0.1843
65995DPSM   C1B25678  33.341  15.504   4.892  0.3185  0.3625 -0.2945
65995DPSM   C2B25679  33.447  15.497   4.399 -0.1063  0.2077 -0.2244
65995DPSM   C3B25680  33.125  15.239   4.176 -0.1853  0.0907 -0.1134
65995DPSM   C4B25681  32.850  15.077   3.806 -0.0046  0.1491  0.2461
65996DPSM   NC325682   2.146  35.271  16.642  0.4069  0.0336  0.0774
65996DPSM   PO425683   2.126  34.894  16.715 -0.0125  0.2492  0.1688
65996DPSM   AM125684   2.208  34.873  16.248  0.2193  0.0420 -0.2200
65996DPSM   AM225685   2.059  34.958  15.969  0.1001 -0.2296 -0.0628
65996DPSM   T1A25686   2.522  34.558  16.225  0.2966  0.0211  0.0607
65996DPSM   C2A25687   2.770  34.389  15.880  0.0466 -0.1493  0.1531
65996DPSM   C3A25688   3.092  34.383  15.537 -0.2714 -0.0952  0.0675
65996DPSM   C1B25689   2.363  34.728  15.693 -0.3073 -0.0075 -0.1138
65996DPSM   C2B25690   2.733  34.634  15.359 -0.0631 -0.2926 -0.0359
65996DPSM   C3B25691   3.109  34.638  15.099 -0.2154  0.1001 -0.1812
65996DPSM   C4B25692   3.453  34.448  14.800  0.1463 -0.1727 -0.0616
65997DPSM   NC325693   8.544  17.192  19.268  0.0634 -0.1199 -0.0956
65997DPSM   PO425694   8.571  17.313  18.859  0.0831 -0.0420  0.0234
65997DPSM   AM125695   8.524  17.640  18.561  0.1311 -0.1027 -0.0237
65997DPSM   AM225696   8.666  17.860  18.725 -0.0182  0.0908  0.2440
65997DPSM   T1A25697   8.655  17.889  18.130 -0.1573  0.2706  0.1518
65997DPSM   C2A25698   8.836  17.964  17.833  0.3509 -0.1622  0.2017
65997DPSM   C3A25699   8.961  18.128  17.433 -0.1996  0.1723  0.5458
65997DPSM   C1B25700   8.707  18.203  18.499 -0.0367  0.0932  0.0883
65997DPSM   C2B25701   8.834  18.395  18.110 -0.0926 -0.0519 -0.0675
65997DPSM   C3B25702   8.901  18.504  17.724  0.2758 -0.0814 -0.3857
65997DPSM   C4B25703   8.871  18.833  17.588  0.2227  0.2194 -0.0122
65998DPSM   NC325704  34.140  10.516   9.229 -0.0884 -0.0097 -0.1142
65998DPSM   PO425705  33.974  10.142   9.472 -0.0665 -0.2677 -0.0262
65998DPSM   AM125706  34.236   9.997   9.137 -0.0048 -0.1427  0.1696
65998DPSM   AM225707  34.385  10.109   8.904 -0.3392  0.0288  0.1258
65998DPSM   T1A25708  34.385   9.599   8.891  0.0595  0.1914  0.1926
65998DPSM   C2A25709  34.612   9.257   8.748  0.0316  0.2109 -0.0707
65998DPSM   C3A25710  34.785   8.901   8.881  0.0705  0.0774 -0.0623
65998DPSM   C1B25711  34.824   9.911   8.709 -0.1270 -0.2669 -0.0122
65998DPSM   C2B25712  35.131   9.705   8.628  0.0093 -0.3413  0.2093
65998DPSM   C3B25713   0.094   9.591   8.428 -0.1837 -0.2204  0.0182
65998DPSM   C4B25714   0.354   9.492   8.256 -0.0155  0.0107 -0.0631
65999DPSM   NC325715  25.273   9.182  12.674  0.0054 -0.1486 -0.2876
65999DPSM   PO425716  25.185   9.420  12.205 -0.0310  0.1285 -0.3368
65999DPSM   AM125717  24.809   9.486  11.896  0.0800  0.2052 -0.1195
65999DPSM   AM225718  24.556   9.707  12.064  0.1389  0.3749  0.0802
65999DPSM   T1A25719  24.500   9.297  11.786  0.1023  0.0677 -0.3261
65999DPSM   C2A25720  24.131   9.207  11.558 -0.0179 -0.1433  0.0542
65999DPSM   C3A25721  23.935   8.990  11.155  0.1798 -0.2259 -0.2044
65999DPSM   C1B25722  24.110   9.517  12.070 -0.1035 -0.1146 -0.0555
65999DPSM   C2B25723  23.773   9.352  11.832  0.0372  0.0304  0.0551
65999DPSM   C3B25724  23.548   9.098  11.646 -0.0675 -0.1188  0.0059
65999DPSM   C4B25725  23.657   8.701  11.469 -0.1358 -0.0081  0.0714
66000DPSM   NC325726  28.227  25.348   7.690 -0.1134 -0.3011 -0.0618
66000DPSM   PO425727  27.980  25.725   7.504  0.3220 -0.1944 -0.1115
66000DPSM   AM125728  27.781  26.041   7.358 -0.0050 -0.2797  0.2616
66000DPSM   AM225729  28.027  26.195   7.346 -0.0879  0.1901 -0.1240
66000DPSM   T1A25730  27.517  26.320   7.156 -0.0790 -0.0254 -0.0510
66000DPSM   C2A25731  27.346  26.665   6.856  0.1174 -0.1392 -0.0912
66000DPSM   C3A25732  27.189  26.921   6.619  0.1502 -0.0246 -0.0859
66000DPSM   C1B25733  28.194  26.347   7.003  0.1115  0.0047  0.2029
66000DPSM   C2B25734  28.152  26.505   6.681  0.1555  0.2873  0.2350
66000DPSM   C3B25735  28.179  26.712   6.371  0.2022  0.0653 -0.1270
66000DPSM   C4B25736  28.037  26.896   5.947 -0.1393 -0.0898 -0.0663
66001DPSM   NC325737  24.524   6.301  12.253  0.0655  0.2924  0.0105
66001DPSM   PO425738  24.455   5.887  12.196  0.1708  0.0260  0.2302
66001DPSM   AM125739  24.281   5.923  11.835 -0.0367  0.1419 -0.2207
66001DPSM   AM225740  24.430   6.240  11.774  0.1620 -0.2092 -0.1945
66001DPSM   T1A25741  23.932   5.857  11.510  0.3693  0.3027 -0.0285
66001DPSM   C2A25742  23.574   5.853  11.361 -0.1305  0.0921 -0.2858
66001DPSM   C3A25743  23.468   5.860  10.997  0.0522 -0.0628  0.0473
66001DPSM   C1B25744  24.048   6.430  11.548  0.1349 -0.2750  0.1326
66001DPSM   C2B25745  23.710   6.554  11.357 -0.3057 -0.0207  0.2220
66001DPSM   C3B25746  23.413   6.342  11.126  0.3969 -0.1945  0.2753
66001DPSM   C4B25747  23.063   6.129  10.837 -0.2211  0.1579 -0.3064
66002POSM   NC325748  33.517  20.438   6.130  0.0054  0.2080 -0.2526
66002POSM   PO425749  33.852  20.467   5.941  0.0178 -0.1385  0.2065
66002POSM   AM125750  34.223  20.405   6.074 -0.0951 -0.1400  0.1098
66002POSM   AM225751  34.196  20.037   6.023 -0.1082  0.2524 -0.1051
66002POSM   T1A25752  34.632  20.625   6.093  0.1100 -0.0217 -0.1263
66002POSM   C2A25753  35.027  20.760   6.000  0.2551  0.2436  0.0169
66002POSM   C3A25754  35.266  20.979   6.009  0.1958  0.1098  0.1216
66002POSM   C1B25755  34.618  19.865   5.936 -0.1086 -0.2886  0.0439
66002POSM   D2B25756  34.854  19.573   5.711  0.0222 -0.1644  0.2571
66002POSM   C3B25757  35.160  19.793   5.518 -0.0562 -0.3282  0.0819
66002POSM   C4B25758   0.058  19.848   5.059  0.0659 -0.0678 -0.3469
66003POSM   NC325759   3.615   7.949  16.676  0.2051  0.1448 -0.0338
66003POSM   PO425760   3.823   7.500  16.590 -0.0416  0.1948  0.2519
66003POSM   AM125761   4.234   7.334  16.472 -0.0750 -0.0526 -0.0720
66003POSM   AM225762   4.421   7.089  16.613  0.0273  0.2915  0.0331
66003POSM   T1A25763   4.526   7.203  15.996 -0.2315 -0.0204 -0.1393
66003POSM   C2A25764   4.648   7.306  15.586  0.0057 -0.0875 -0.0406
66003POSM   C3A25765   4.504   7.359  15.169  0.2061 -0.0649  0.1180
66003POSM   C1B25766   4.807   6.890  16.389  0.1272 -0.3220 -0.0142
66003POSM   D2B25767   5.287   6.865  16.219  0.1220 -0.0467  0.0021
66003POSM   C3B25768   5.636   6.703  16.288 -0.3781  0.0437 -0.0987
66003POSM   C4B25769   5.949   6.603  16.036 -0.2781 -0.3372  0.0996
66004POSM   NC325770  29.505  14.366   4.753 -0.0414  0.1090  0.1738
66004POSM   PO425771  29.332  14.248   4.383 -0.0063 -0.1383 -0.2983
66004POSM   AM125772  29.297  14.109   3.925 -0.2308  0.0760  0.1572
66004POSM   AM225773  29.558  14.183   3.903 -0.3595 -0.1358 -0.0339
66004POSM   T1A25774  29.390  13.728   3.675  0.0910 -0.1198  0.0087
66004POSM   C2A25775  29.282  13.419   3.543  0.2041  0.2298  0.2237
66004POSM   C3A25776  29.199  13.199   3.109 -0.2078  0.1617  0.0579
66004POSM   C1B25777  29.619  14.150   3.485 -0.0353  0.1016 -0.2652
66004POSM   D2B25778  29.536  14.092   3.090 -0.0293  0.0127  0.0213
66004POSM   C3B25779  29.781  13.946   2.684  0.2365  0.0586 -0.0076
66004POSM   C4B25780  29.536  13.997   2.388 -0.1377  0.0652  0.0692
66005POSM   NC325781  14.310  19.672  20.930  0.2067  0.1621 -0.3404
66005POSM   PO425782  13.980  19.241  20.963 -0.3689 -0.0864  0.0749
66005POSM   AM125783  13.766  19.190  20.562 -0.1767 -0.0376 -0.1667
66005POSM   AM225784  13.503  19.070  20.646 -0.1735  0.2944  0.0954
66005POSM   T1A25785  13.664  19.106  20.154 -0.0257 -0.0410  0.0527
66005POSM   C2A25786  13.316  19.185  19.762 -0.1390  0.1024 -0.2729
66005POSM   C3A25787  12.960  19.382  19.575 -0.0303  0.2506  0.1344
66005POSM   C1B25788  13.388  19.433  20.786  0.3650 -0.0180 -0.0165
66005POSM   D2B25789  13.059  19.745  20.952  0.1432 -0.1939  0.3282
66005POSM   C3B25790  12.833  20.145  20.720  0.4026  0.0024 -0.2715
66005POSM   C4B25791  12.622  20.509  20.712 -0.0728  0.0218  0.0764
66006POSM   NC325792  26.313  16.591   6.054 -0.0651  0.0408  0.1020
66006POSM   PO425793  26.440  16.872   5.678  0.0572 -0.1608  0.0395
66006POSM   AM125794  26.223  17.027   5.332 -0.3048 -0.0130 -0.0420
66006POSM   AM225795  26.314  17.277   5.070 -0.0446 -0.1282  0.0779
66006POSM   T1A25796  25.897  16.985   5.106  0.1695  0.0012 -0.0680
66006POSM   C2A25797  25.679  17.209   4.760  0.0688 -0.2870 -0.0271
66006POSM   C3A25798  25.558  17.289   4.384  0.2199  0.3400 -0.1655
66006POSM   C1B25799  26.148  17.131   4.620  0.2488  0.2774 -0.1658
66006POSM   D2B25800  26.034  17.322   4.300  0.5054  0.0604 -0.1562
66006POSM   C3B25801  25.842  17.209   3.873 -0.1876 -0.0789  0.0908
66006POSM   C4B25802  25.727  17.217   3.434  0.1009  0.3547 -0.1312
66007POSM   NC325803  27.315  27.164   8.344 -0.2420 -0.1609  0.1831
66007POSM   PO425804  27.340  26.776   8.411 -0.0530  0.2142 -0.1500
66007POSM   AM125805  27.082  26.812   8.069  0.1419 -0.1366  0.3010
66007POSM   AM225806  26.706  26.727   8.057  0.0318  0.1881  0.2021
66007POSM   T1A25807  27.156  27.064   7.707 -0.0603 -0.2788 -0.3637
66007POSM   C2A25808  27.195  27.379   7.411  0.0623  0.1123  0.2241
66007POSM   C3A25809  27.073  27.608   7.062  0.0342 -0.4168  0.1376
66007POSM   C1B25810  26.638  26.961   7.762  0.2029  0.0145  0.0439
66007POSM   D2B25811  26.369  27.187   7.411  0.0605  0.2475 -0.1894
66007POSM   C3B25812  26.346  27.543   7.127 -0.4169  0.2202  0.1339
66007POSM   C4B25813  26.359  27.487   6.656 -0.1224  0.0447 -0.0898
66008POSM   NC325814  33.414   9.678   8.763  0.1018 -0.0420  0.0843
66008POSM   PO425815  33.139   9.441   8.769  0.1721  0.1782 -0.2332
66008POSM   AM125816  32.979   9.053   8.588 -0.0179 -0.2283  0.0820
66008POSM   AM225817  32.884   8.882   8.813  0.1340 -0.1299 -0.1691
66008POSM   T1A25818  33.223   8.873   8.180 -0.1799 -0.1052 -0.0059
66008POSM   C2A25819  33.435   8.690   7.842  0.1018 -0.1112 -0.1798
66008POSM   C3A25820  33.653   8.632   7.544 -0.0321  0.1591  0.1769
66008POSM   C1B25821  33.303   8.658   8.641  0.2000 -0.2829 -0.0437
66008POSM   D2B25822  33.556   8.412   8.353 -0.0758  0.1673  0.0456
66008POSM   C3B25823  33.494   8.234   7.945 -0.0331 -0.2245  0.0250
66008POSM   C4B25824  33.339   8.025   7.646  0.1256  0.0820 -0.1710
66009POSM   NC325825   3.811  32.338  18.926  0.0401  0.1736  0.2602
66009POSM   PO425826   4.077  32.575  18.732 -0.1937  0.0465 -0.0440
66009POSM   AM125827   4.396  32.744  18.444 -0.0518  0.1813 -0.1606
66009POSM   AM225828   4.274  32.968  18.050  0.1835  0.0410  0.2293
66009POSM   T1A25829   4.603  32.561  18.150  0.3218 -0.4649 -0.1468
66009POSM   C2A25830   4.871  32.419  17.807 -0.0861  0.0700 -0.2186
66009POSM   C3A25831   5.208  32.497  17.467  0.2829  0.2075 -0.2921
66009POSM   C1B25832   4.506  32.775  17.694 -0.0188 -0.0132 -0.3201
66009POSM   D2B25833   4.653  32.687  17.233  0.0517  0.0025 -0.1618
66009POSM   C3B25834   4.689  33.058  16.938  0.1211  0.1258  0.3332
66009POSM   C4B25835   5.036  33.244  16.790  0.2606  0.0936  0.0530
66010POSM   NC325836  20.221  23.131  17.642  0.0357 -0.1892  0.0235
66010POSM   PO425837  20.730  23.206  17.578  0.1315 -0.2087 -0.1729
66010POSM   AM125838  20.523  23.477  17.275 -0.2423 -0.1077 -0.1977
66010POSM   AM225839  20.253  23.507  17.266  0.1251  0.1930 -0.0071
66010POSM   T1A25840  20.408  23.444  16.773  0.0994 -0.2735  0.2346
66010POSM   C2A25841  20.336  23.567  16.408 -0.1090 -0.1849  0.0400
66010POSM   C3A25842  19.947  23.552  16.052  0.2288 -0.0998  0.0535
66010POSM   C1B25843  20.069  23.867  17.008 -0.1101  0.0666  0.2477
66010POSM   D2B25844  19.753  24.200  16.759  0.3172  0.0893 -0.1264
66010POSM   C3B25845  19.464  24.392  16.481  0.2390 -0.1310 -0.0643
66010POSM   C4B25846  19.182  24.209  16.131 -0.1303 -0.2128  0.1040
66011POSM   NC325847   2.017   0.793  16.052 -0.0312  0.0792  0.0004
66011POSM   PO425848   1.627   0.804  16.017 -0.0037  0.2464  0.0242
66011POSM   AM125849   1.821   0.469  15.763  0.3821 -0.0862  0.0475
66011POSM   AM225850   1.562   0.323  15.456  0.3229  0.1077 -0.0609
66011POSM   T1A25851   2.098   0.393  15.377  0.1828 -0.0617 -0.0802
66011POSM   C2A25852   2.295   0.351  14.957  0.0014  0.0986 -0.0276
66011POSM   C3A25853   2.507   0.423  14.470  0.0225 -0.2013 -0.2277
66011POSM   C1B25854   1.769   0.129  15.087 -0.0664  0.1815 -0.0576
66011POSM   D2B25855   1.892  35.217  14.792  0.1224  0.3803  0.1896
66011POSM   C3B25856   2.111  35.366  14.668 -0.2746  0.1404 -0.1571
66011POSM   C4B25857   2.374  35.266  14.359  0.0204  0.0664  0.1097
66012POSM   NC325858  31.001   9.291   7.943 -0.0143  0.0260 -0.2980
66012POSM   PO425859  31.023   9.378   7.558 -0.1878  0.0814 -0.1520
66012POSM   AM125860  31.089   9.136   7.318 -0.0734  0.0901  0.3471
66012POSM   AM225861  31.441   9.070   7.302  0.1287  0.0089  0.2881
66012POSM   T1A25862  31.170   8.788   7.034  0.3714 -0.1907 -0.0904
66012POSM   C2A25863  31.262   8.600   6.580  0.0730 -0.4381  0.1581
66012POSM   C3A25864  31.260   8.246   6.275 -0.3414 -0.1583 -0.3012
66012POSM   C1B25865  31.668   8.830   7.047 -0.3071 -0.0573 -0.1007
66012POSM   D2B25866  31.651   8.431   6.914  0.1978  0.0268  0.0119
66012POSM   C3B25867  32.031   8.052   6.529  0.4021  0.1703  0.1717
66012POSM   C4B25868  32.133   7.688   6.458  0.0059  0.0992  0.1066
66013PNSM   NC325869   0.898  11.274  11.895  0.1511 -0.0942 -0.1619
66013PNSM   PO425870   1.264  11.115  11.801 -0.2324  0.1543  0.2189
66013PNSM   AM125871   1.471  10.836  11.645  0.2855 -0.1687 -0.2139
66013PNSM   AM225872   1.615  10.794  11.844  0.1501 -0.2909 -0.0108
66013PNSM   T1A25873   1.569  10.586  11.290  0.1734  0.3034 -0.0981
66013PNSM   C2A25874   1.436  10.422  10.933 -0.1357  0.1083 -0.3183
66013PNSM   C3A25875   1.119  10.543  10.561 -0.2713  0.2141 -0.0640
66013PNSM   C1B25876   2.018  11.035  11.764 -0.0799  0.3304 -0.1603
66013PNSM   C2B25877   2.443  11.095  11.733  0.1083 -0.0736  0.3695
66013PNSM   C3B25878   2.857  11.188  11.508  0.0385 -0.0981  0.2166
66013PNSM   D4B25879   2.973  11.484  11.170 -0.1429 -0.0311  0.1778
66013PNSM   C5B25880   3.237  11.373  10.831 -0.0201  0.3887 -0.1336
66013PNSM   C6B25881   3.206  11.080  10.436 -0.2341  0.1457 -0.0270
66014PNSM   NC325882  23.710   7.303  13.533 -0.1414  0.0691  0.0873
66014PNSM   PO425883  23.566   7.087  13.827  0.0540 -0.1510 -0.0439
66014PNSM   AM125884  23.174   6.989  13.549 -0.3749  0.1960  0.2753
66014PNSM   AM225885  23.188   6.639  13.630 -0.2227  0.1702  0.3861
66014PNSM   T1A25886  22.835   6.895  13.397 -0.1050  0.0074  0.1724
66014PNSM   C2A25887  22.530   7.010  13.096 -0.0012  0.2356 -0.2173
66014PNSM   C3A25888  22.321   7.086  12.629  0.2817 -0.0757 -0.0123
66014PNSM   C1B25889  22.937   6.364  13.381  0.0366  0.3808 -0.3186
66014PNSM   C2B25890  22.587   6.052  13.499  0.4874 -0.1521  0.0551
66014PNSM   C3B25891  22.369   5.823  13.451 -0.1463 -0.2074 -0.0007
66014PNSM   D4B25892  22.124   5.628  13.184  0.0611 -0.1081 -0.0789
66014PNSM   C5B25893  21.714   5.355  13.259 -0.0573 -0.1284  0.4524
66014PNSM   C6B25894  21.525   5.092  13.024  0.3007 -0.1982  0.1134
66015PNSM   NC325895   3.436  20.398  14.367  0.0245 -0.1079  0.2324
66015PNSM   PO425896   3.549  20.835  14.197  0.0557 -0.0061 -0.3610
66015PNSM   AM125897   3.735  21.052  14.418  0.0665 -0.0027  0.0230
66015PNSM   AM225898   3.592  20.899  14.706 -0.3057  0.0946 -0.1804
66015PNSM   T1A25899   4.066  21.267  14.521 -0.1204  0.3279  0.3092
66015PNSM   C2A25900   4.380  21.441  14.309  0.1245  0.1130  0.0563
66015PNSM   C3A25901   4.745  21.621  14.186 -0.0586 -0.2346 -0.3761
66015PNSM   C1B25902   4.009  20.803  14.755 -0.0973 -0.1612 -0.2651
66015PNSM   C2B25903   4.434  20.940  14.459  0.0500 -0.0675 -0.1970
66015PNSM   C3B25904   4.861  21.056  14.257  0.0284 -0.0510  0.2475
66015PNSM   D4B25905   5.209  21.206  14.134  0.4280  0.2299 -0.0393
66015PNSM   C5B25906   5.443  21.026  13.923 -0.0564  0.0199  0.1645
66015PNSM   C6B25907   5.889  21.107  13.688  0.2758  0.0840 -0.2657
66016PNSM   NC325908  27.978  30.493  10.234 -0.0246  0.1603 -0.3221
66016PNSM   PO425909  28.100  30.970  10.316 -0.1699  0.1226  0.2243
66016PNSM   AM125910  28.032  30.817   9.894 -0.0793 -0.2895  0.2382
66016PNSM   AM225911  27.684  30.769   9.899  0.1782  0.0208 -0.0264
66016PNSM   T1A25912  28.375  30.751   9.439 -0.1102  0.2781 -0.1751
66016PNSM   C2A25913  28.644  31.000   9.092  0.1302  0.2831 -0.1042
66016PNSM   C3A25914  28.691  31.079   8.656 -0.0134 -0.0761  0.1774
66016PNSM   C1B25915  27.814  30.748   9.429  0.1016 -0.1705 -0.1178
66016PNSM   C2B25916  27.784  30.733   9.013 -0.1917 -0.2623  0.0333
66016PNSM   C3B25917  27.820  30.769   8.614  0.1645 -0.1049 -0.1192
66016PNSM   D4B25918  27.679  31.106   8.375  0.1826  0.1922  0.1440
66016PNSM   C5B25919  27.882  31.417   8.196  0.1790  0.0236 -0.0549
66016PNSM   C6B25920  27.997  31.830   8.062  0.1186 -0.0537 -0.1912
66017PNSM   NC325921  17.058   5.223  17.833 -0.3831  0.0278 -0.1762
66017PNSM   PO425922  17.065   5.345  17.433  0.0279  0.0056  0.0798
66017PNSM   AM125923  16.903   5.328  17.023  0.4419  0.1010  0.2308
66017PNSM   AM225924  16.760   5.039  16.926  0.2051  0.0646 -0.0342
66017PNSM   T1A25925  16.832   5.430  16.614 -0.0198  0.1491 -0.0080
66017PNSM   C2A25926  16.594   5.592  16.205 -0.2924  0.0864 -0.2720
66017PNSM   C3A25927  16.490   5.759  15.791 -0.0799 -0.1522 -0.0619
66017PNSM   C1B25928  16.685   4.927  16.575  0.0360 -0.0254 -0.3131
66017PNSM   C2B25929  16.566   5.088  16.168  0.4143  0.1016 -0.1723
66017PNSM   C3B25930  16.506   5.254  15.811 -0.2457 -0.0521 -0.1427
66017PNSM   D4B25931  16.467   5.259  15.355  0.1483  0.2758 -0.1816
66017PNSM   C5B25932  16.592   5.670  15.247  0.1396 -0.2143  0.1066
66017PNSM   C6B25933  16.313   6.011  15.297  0.0429 -0.0194 -0.0143
66018PNSM   NC325934  16.147  12.027  19.159  0.0844 -0.1980 -0.4400
66018PNSM   PO425935  16.493  11.821  19.182 -0.0256  0.0010 -0.0666
66018PNSM   AM125936  16.552  11.939  18.743  0.2913  0.1233  0.2339
66018PNSM   AM225937  16.778  11.853  18.523  0.2153  0.0308  0.0502
66018PNSM   T1A25938  16.202  11.798  18.413  0.1364  0.0788  0.2684
66018PNSM   C2A25939  15.879  11.577  18.199  0.2316 -0.0031  0.2218
66018PNSM   C3A25940  16.012  11.431  17.812  0.2865 -0.1896 -0.1908
66018PNSM   C1B25941  16.621  11.888  18.130  0.0511  0.2180  0.0147
66018PNSM   C2B25942  16.175  12.065  17.987  0.0361  0.1181 -0.2737
66018PNSM   C3B25943  15.982  12.137  17.654  0.0651  0.1846  0.0160
66018PNSM   D4B25944  15.512  12.421  17.744  0.0029  0.0333 -0.1752
66018PNSM   C5B25945  15.254  12.149  17.482 -0.1772  0.1693 -0.0475
66018PNSM   C6B25946  15.332  11.836  17.103  0.3191 -0.0329  0.1072
66019DPGS    C125947  25.379   3.291  10.923 -0.0037 -0.0129 -0.1743
66019DPGS    C225948  25.644   3.360  11.045  0.0102 -0.1452 -0.1291
66019DPGS    C325949  25.549   3.076  11.044 -0.1023 -0.1075 -0.2041
66019DPGS   AM125950  25.119   2.948  10.694  0.2519  0.4755 -0.1776
66019DPGS   AM225951  24.909   3.069  10.796 -0.0508  0.1398  0.1615
66019DPGS   D1A25952  25.151   2.847  10.441  0.1624 -0.2860 -0.0366
66019DPGS   C2A25953  25.085   2.733  10.076 -0.0838 -0.1618 -0.0391
66019DPGS   C3A25954  24.901   2.590   9.638 -0.3579 -0.1756 -0.1864
66019DPGS   C4A25955  25.057   2.452   9.228 -0.1608  0.0164 -0.0647
66019DPGS   C1B25956  24.621   3.213  10.622 -0.2205  0.0175  0.4916
66019DPGS   C2B25957  24.333   3.218  10.281  0.2324 -0.0587 -0.1177
66019DPGS   C3B25958  23.991   3.108   9.981 -0.2184  0.2042 -0.0708
66019DPGS   C4B25959  23.901   3.205   9.528 -0.1283  0.3932  0.2454
66020DPGS    C125960  31.333  11.522   5.435  0.1550  0.1812 -0.1229
66020DPGS    C225961  31.296  11.672   5.692  0.0326 -0.1814  0.0754
66020DPGS    C325962  31.563  11.552   5.624  0.0252 -0.2144  0.1047
66020DPGS   AM125963  31.488  11.024   5.386 -0.6100  0.0336 -0.3720
66020DPGS   AM225964  31.232  10.968   5.471 -0.1565 -0.1902 -0.1003
66020DPGS   D1A25965  31.579  10.828   5.194 -0.2413 -0.0650 -0.4554
66020DPGS   C2A25966  31.792  10.637   4.855 -0.0991  0.0566  0.0094
66020DPGS   C3A25967  32.104  10.529   4.545  0.2720  0.0019 -0.1594
66020DPGS   C4A25968  32.472  10.386   4.465  0.1229 -0.0077  0.3277
66020DPGS   C1B25969  31.050  10.707   5.298 -0.0992 -0.1110  0.0624
66020DPGS   C2B25970  31.158  10.470   5.043  0.1210 -0.0774  0.1514
66020DPGS   C3B25971  31.326  10.319   4.721  0.2096 -0.6409 -0.2143
66020DPGS   C4B25972  31.561  10.214   4.284 -0.5119 -0.0761  0.1484
66021DPGS    C125973  17.642   3.073  15.931  0.1457  0.0609  0.0318
66021DPGS    C225974  17.546   3.035  16.212  0.0740 -0.0809 -0.0116
66021DPGS    C325975  17.502   3.297  16.073  0.1292 -0.0030  0.1167
66021DPGS   AM125976  17.694   3.427  15.575 -0.0724  0.2653  0.1057
66021DPGS   AM225977  17.942   3.452  15.684  0.2601 -0.0662  0.0284
66021DPGS   D1A25978  17.556   3.596  15.401 -0.2183 -0.1962  0.1940
66021DPGS   C2A25979  17.502   3.781  15.036 -0.0649 -0.0519 -0.1078
66021DPGS   C3A25980  17.622   3.844  14.572  0.0466 -0.0593 -0.2700
66021DPGS   C4A25981  17.777   4.114  14.246 -0.1454  0.1828 -0.0439
66021DPGS   C1B25982  18.209   3.616  15.488 -0.0789 -0.1474 -0.0407
66021DPGS   C2B25983  18.432   3.836  15.156  0.1583  0.1605  0.5929
66021DPGS   C3B25984  18.344   4.132  14.954 -0.3199  0.0385 -0.3475
66021DPGS   C4B25985  18.138   4.319  14.543  0.2294 -0.2425 -0.2168
66022DPGS    C125986  25.239  14.038   7.237 -0.1697 -0.2310 -0.1540
66022DPGS    C225987  25.334  13.938   7.503 -0.0435  0.1205 -0.0652
66022DPGS    C325988  25.043  13.922   7.432 -0.0533 -0.1241  0.0276
66022DPGS   AM125989  24.889  14.255   7.022  0.0791 -0.2100  0.4130
66022DPGS   AM225990  24.950  14.450   7.197 -0.2824  0.1572 -0.2240
66022DPGS   D1A25991  24.598  14.276   6.975  0.4161  0.0291 -0.2738
66022DPGS   C2A25992  24.206  14.300   7.051 -0.1347 -0.2297  0.1428
66022DPGS   C3A25993  23.910  14.197   6.801 -0.0415  0.1404  0.1284
66022DPGS   C4A25994  23.517  14.200   6.643 -0.2386  0.0034  0.2919
66022DPGS   C1B25995  24.684  14.623   7.397 -0.0224  0.0103  0.0032
66022DPGS   C2B25996  24.261  14.644   7.460  0.0705  0.0825 -0.3341
66022DPGS   C3B25997  23.965  14.689   7.249  0.2433  0.1517 -0.1128
66022DPGS   C4B25998  23.636  14.543   7.014  0.0482 -0.0055 -0.1578
66023DPGS    C125999  29.649  15.149   4.306 -0.2781  0.1289 -0.0507
66023DPGS    C226000  29.940  15.078   4.286 -0.3290 -0.2102  0.3407
66023DPGS    C326001  29.855  15.366   4.284 -0.0074 -0.1141  0.0581
66023DPGS   AM126002  29.645  15.086   3.825  0.0838  0.0701  0.1004
66023DPGS   AM226003  29.395  15.156   3.869 -0.0530  0.3755  0.1217
66023DPGS   D1A26004  29.755  15.097   3.555  0.0489  0.3740 -0.1111
66023DPGS   C2A26005  29.776  15.013   3.125 -0.0034 -0.0048 -0.0003
66023DPGS   C3A26006  29.704  14.969   2.688 -0.2840  0.4879  0.1403
66023DPGS   C4A26007  29.654  15.230   2.232 -0.3420 -0.0889 -0.1757
66023DPGS   C1B26008  29.150  15.166   3.578  0.0540  0.0330  0.0699
66023DPGS   C2B26009  29.028  15.383   3.214 -0.1129 -0.0411  0.1201
66023DPGS   C3B26010  28.709  15.482   2.932 -0.2366 -0.1434 -0.0049
66023DPGS   C4B26011  28.764  15.502   2.580 -0.4006  0.1685 -0.1715
66024DPGS    C126012  24.068  31.235  10.544 -0.1167 -0.2196  0.1304
66024DPGS    C226013  24.124  31.035  10.327  0.0381  0.0042 -0.0385
66024DPGS    C326014  24.343  31.120  10.514 -0.0235  0.0271  0.0236
66024DPGS   AM126015  24.084  31.510  10.170  0.0910 -0.0501  0.1542
66024DPGS   AM226016  23.848  31.398  10.145 -0.1419 -0.3885 -0.3831
66024DPGS   D1A26017  24.177  31.730  10.041  0.1200  0.0700 -0.1470
66024DPGS   C2A26018  24.114  32.025   9.632  0.2483  0.2322 -0.2147
66024DPGS   C3A26019  23.752  32.257   9.398  0.2935  0.1471 -0.0221
66024DPGS   C4A26020  23.661  32.563   9.072  0.1718 -0.1205  0.0254
66024DPGS   C1B26021  23.645  31.241   9.888  0.1946 -0.0349 -0.0031
66024DPGS   C2B26022  23.427  31.158   9.535 -0.0422 -0.1530 -0.0380
66024DPGS   C3B26023  23.327  31.192   9.145  0.0647 -0.0426 -0.0270
66024DPGS   C4B26024  23.184  31.093   8.730  0.1007  0.0296 -0.4689
66025DPGS    C126025  29.346  15.608   4.108  0.0700 -0.0721 -0.1943
66025DPGS    C226026  29.068  15.610   3.996  0.0355 -0.1864 -0.1124
66025DPGS    C326027  29.223  15.866   4.018  0.0804 -0.1762 -0.5106
66025DPGS   AM126028  29.545  15.566   3.651  0.1032  0.0281 -0.1790
66025DPGS   AM226029  29.764  15.550   3.771 -0.3007 -0.0561 -0.1131
66025DPGS   D1A26030  29.460  15.486   3.403  0.2692  0.0620  0.1828
66025DPGS   C2A26031  29.495  15.399   3.040  0.3644  0.0378 -0.1934
66025DPGS   C3A26032  29.366  15.485   2.657 -0.2089  0.3863 -0.1518
66025DPGS   C4A26033  29.243  15.599   2.296  0.2895 -0.1329  0.0529
66025DPGS   C1B26034  30.067  15.504   3.595  0.0652 -0.1426  0.4077
66025DPGS   C2B26035  30.167  15.485   3.175 -0.3182  0.2417  0.0081
66025DPGS   C3B26036  30.463  15.577   2.806 -0.1727 -0.1822 -0.2455
66025DPGS   C4B26037  30.226  15.666   2.389  0.1773  0.2600 -0.0451
66026DPGS    C126038  32.890  22.148   5.656 -0.0033 -0.0425  0.1037
66026DPGS    C226039  32.910  21.937   5.869 -0.0710 -0.4044 -0.2414
66026DPGS    C326040  33.147  21.998   5.694  0.1088  0.1684  0.1850
66026DPGS   AM126041  33.092  22.243   5.181 -0.0323  0.1685 -0.1585
66026DPGS   AM226042  33.187  22.028   5.047  0.3498 -0.1631 -0.1691
66026DPGS   D1A26043  33.158  22.499   5.034  0.2442  0.3306 -0.0394
66026DPGS   C2A26044  33.436  22.623   4.797 -0.1122  0.1516 -0.1217
66026DPGS   C3A26045  33.696  22.707   4.449  0.0909 -0.0817 -0.2213
66026DPGS   C4A26046  33.919  22.633   4.236  0.3383  0.1597 -0.2218
66026DPGS   C1B26047  33.396  22.069   4.746 -0.2367 -0.1878  0.1756
66026DPGS   C2B26048  33.744  22.122   4.460 -0.1248  0.0143  0.1942
66026DPGS   C3B26049  34.066  22.072   4.136  0.0011  0.0704  0.1728
66026DPGS   C4B26050  34.298  22.394   4.061 -0.1234  0.0055  0.0494
66027DPGS    C126051  24.058  27.606  10.152  0.1542 -0.0592  0.0432
66027DPGS    C226052  24.065  27.747  10.417  0.0255  0.1654 -0.0707
66027DPGS    C326053  23.888  27.508  10.379  0.0948  0.0920  0.0647
66027DPGS   AM126054  23.657  27.407   9.874 -0.1031 -0.3172 -0.1784
66027DPGS   AM226055  23.745  27.653   9.763  0.0780  0.0170 -0.1083
66027DPGS   D1A26056  23.628  27.131   9.871  0.0054 -0.1162 -0.1259
66027DPGS   C2A26057  23.358  26.872   9.753 -0.1377 -0.1198  0.0031
66027DPGS   C3A26058  23.002  26.669   9.594 -0.0005 -0.1707 -0.1136
66027DPGS   C4A26059  22.782  26.304   9.615  0.0229 -0.1924  0.2712
66027DPGS   C1B26060  23.593  27.874   9.512 -0.1221 -0.0481  0.0113
66027DPGS   C2B26061  23.227  27.918   9.155 -0.1798  0.3072 -0.0435
66027DPGS   C3B26062  22.818  27.798   8.932  0.0396  0.1198 -0.1783
66027DPGS   C4B26063  22.387  27.662   8.848  0.4409  0.1527 -0.0871
66028DPGS    C126064   5.185   9.890  16.410  0.0138 -0.0439 -0.3093
66028DPGS    C226065   4.912   9.866  16.289 -0.0103  0.0209 -0.2680
66028DPGS    C326066   5.154   9.873  16.113 -0.0282 -0.1370 -0.2997
66028DPGS   AM126067   5.680   9.771  16.321 -0.2508  0.0329  0.3219
66028DPGS   AM226068   5.658  10.017  16.179  0.1298  0.2106  0.1254
66028DPGS   D1A26069   5.774   9.501  16.292  0.0763  0.0250 -0.3344
66028DPGS   C2A26070   6.013   9.274  16.101 -0.1168  0.2287  0.1587
66028DPGS   C3A26071   6.353   9.011  16.041  0.3455 -0.2605  0.0027
66028DPGS   C4A26072   6.638   9.068  15.816 -0.2888 -0.1283  0.2477
66028DPGS   C1B26073   5.888  10.143  15.921 -0.2288  0.0505  0.1276
66028DPGS   C2B26074   6.312  10.226  15.695 -0.2910  0.2187  0.1420
66028DPGS   C3B26075   6.510  10.466  15.376 -0.1656  0.1776 -0.0955
66028DPGS   C4B26076   6.665  10.691  15.018 -0.1397  0.1910  0.0162
66029DPGS    C126077  10.959  17.069  18.969 -0.1670 -0.1773  0.0565
66029DPGS    C226078  10.805  16.886  18.789 -0.3829 -0.0549  0.1146
66029DPGS    C326079  10.692  17.153  18.862 -0.1070  0.0681  0.0974
66029DPGS   AM126080  11.152  17.332  18.578  0.0278 -0.2576 -0.0308
66029DPGS   AM226081  11.277  17.457  18.802  0.3438  0.0336  0.1164
66029DPGS   D1A26082  11.208  17.432  18.324  0.2092  0.0611 -0.0137
66029DPGS   C2A26083  11.345  17.766  18.163 -0.1572  0.1609  0.0708
66029DPGS   C3A26084  11.374  17.936  17.754 -0.3100 -0.2003  0.2123
66029DPGS   C4A26085  11.737  18.060  17.616 -0.2082  0.1272 -0.1752
66029DPGS   C1B26086  11.454  17.758  18.720 -0.1945  0.1129  0.2143
66029DPGS   C2B26087  11.759  18.032  18.495 -0.3562  0.1623  0.3215
66029DPGS   C3B26088  11.877  18.311  18.402  0.4670  0.2932 -0.0873
66029DPGS   C4B26089  11.894  18.648  18.200 -0.0247  0.1064  0.0302
66030DPGS    C126090  26.247   8.753   8.571 -0.0168 -0.0343 -0.0629
66030DPGS    C226091  26.381   9.019   8.539  0.0131 -0.0516 -0.0816
66030DPGS    C326092  26.369   8.888   8.809 -0.2752  0.1130 -0.0121
66030DPGS   AM126093  25.802   8.903   8.730 -0.0170  0.1508  0.1401
66030DPGS   AM226094  25.826   9.075   8.541  0.2873 -0.0284 -0.0398
66030DPGS   D1A26095  25.588   8.816   8.893 -0.1596 -0.3431 -0.1606
66030DPGS   C2A26096  25.121   8.662   8.754  0.2958  0.0102 -0.3113
66030DPGS   C3A26097  24.769   8.529   8.625 -0.3508 -0.1171  0.0736
66030DPGS   C4A26098  24.566   8.397   8.282  0.0430 -0.3267  0.0190
66030DPGS   C1B26099  25.826   8.966   8.182  0.1732  0.1193 -0.1753
66030DPGS   C2B26100  25.541   8.871   7.796  0.2512 -0.0592 -0.0731
66030DPGS   C3B26101  25.404   8.729   7.455  0.1314 -0.0687 -0.3005
66030DPGS   C4B26102  25.107   8.643   7.177 -0.2333  0.1773 -0.0118
66031DPGS    C126103  28.058  18.903   4.115 -0.2905 -0.0058 -0.0773
66031DPGS    C226104  28.068  18.611   4.043  0.0975 -0.0170  0.0118
66031DPGS    C326105  28.034  18.695   4.329 -0.0712  0.0260 -0.0204
66031DPGS   AM126106  27.621  18.801   3.941 -0.1000 -0.4118 -0.3368
66031DPGS   AM226107  27.485  18.983   4.055 -0.1497 -0.4144 -0.1144
66031DPGS   D1A26108  27.662  18.674   3.669 -0.1191 -0.2996  0.0821
66031DPGS   C2A26109  27.413  18.736   3.221  0.3100  0.0847  0.3107
66031DPGS   C3A26110  27.202  18.735   2.910 -0.2578 -0.2464 -0.1632
66031DPGS   C4A26111  27.013  18.878   2.542 -0.2517  0.3012 -0.1452
66031DPGS   C1B26112  27.191  19.170   3.908  0.2139 -0.0573 -0.2428
66031DPGS   C2B26113  27.134  19.093   3.574 -0.1643 -0.3581 -0.4051
66031DPGS   C3B26114  27.017  19.038   3.244  0.2559  0.1089  0.0816
66031DPGS   C4B26115  26.855  19.183   2.944  0.2551 -0.3984 -0.2430
66032DPGS    C126116  11.125  15.686  18.491  0.0883 -0.0048  0.0281
66032DPGS    C226117  11.278  15.715  18.747  0.1063  0.0930  0.0062
66032DPGS    C326118  11.390  15.550  18.523  0.0579 -0.0501  0.0872
66032DPGS   AM126119  11.295  15.911  18.069 -0.0948  0.0776  0.1463
66032DPGS   AM226120  11.044  15.868  18.050  0.4345 -0.1166  0.1056
66032DPGS   D1A26121  11.489  16.089  17.948 -0.1546  0.1951  0.2883
66032DPGS   C2A26122  11.553  16.341  17.503  0.0329  0.1560  0.4555
66032DPGS   C3A26123  11.700  16.418  17.079  0.2331 -0.2213 -0.2217
66032DPGS   C4A26124  11.620  16.411  16.623 -0.1932 -0.0402 -0.2416
66032DPGS   C1B26125  10.905  15.678  17.758  0.3309  0.1094 -0.0072
66032DPGS   C2B26126  10.816  15.863  17.270  0.1092 -0.1832  0.1352
66032DPGS   C3B26127  10.923  15.904  16.868  0.1312  0.3392  0.1131
66032DPGS   C4B26128  10.893  15.887  16.437 -0.1622  0.4901 -0.0187
66033DPGS    C126129  30.790  16.799   4.599  0.2551 -0.1742 -0.1243
66033DPGS    C226130  30.798  16.538   4.747  0.3623 -0.1032 -0.0047
66033DPGS    C326131  30.903  16.787   4.876  0.0665  0.0411 -0.0372
66033DPGS   AM126132  31.170  16.530   4.434  0.2244  0.1800  0.1221
66033DPGS   AM226133  31.213  16.332   4.622  0.0959 -0.2072 -0.0669
66033DPGS   D1A26134  31.215  16.587   4.162  0.0093  0.4064  0.0874
66033DPGS   C2A26135  31.406  16.430   3.795  0.2449 -0.0649  0.0340
66033DPGS   C3A26136  31.476  16.324   3.449  0.0702 -0.0194 -0.1617
66033DPGS   C4A26137  31.351  16.216   3.086  0.1392 -0.0507 -0.0622
66033DPGS   C1B26138  31.292  15.982   4.539  0.1791  0.3228 -0.1056
66033DPGS   C2B26139  31.511  15.680   4.341  0.1487  0.1181  0.3105
66033DPGS   C3B26140  31.495  15.475   3.920 -0.0996 -0.3784 -0.0469
66033DPGS   C4B26141  31.730  15.420   3.595  0.2560  0.1966  0.0810
66034DPGS    C126142  29.775  10.833   5.667  0.2610  0.0620 -0.1415
66034DPGS    C226143  29.736  11.033   5.447  0.0909 -0.0325 -0.1984
66034DPGS    C326144  29.892  11.108   5.692  0.0005  0.1799 -0.2044
66034DPGS   AM126145  30.095  10.700   5.304  0.3305  0.3754  0.1051
66034DPGS   AM226146  30.047  10.480   5.419 -0.2736 -0.0415  0.0741
66034DPGS   D1A26147  30.262  10.660   5.057 -0.3154 -0.0105  0.3777
66034DPGS   C2A26148  30.340  10.372   4.728 -0.2661 -0.1522 -0.2103
66034DPGS   C3A26149  30.382  10.212   4.346  0.0314  0.0243  0.0296
66034DPGS   C4A26150  30.576  10.099   3.993 -0.0967  0.0325  0.0990
66034DPGS   C1B26151  30.167  10.189   5.270  0.1634 -0.1400 -0.0140
66034DPGS   C2B26152  30.267  10.011   5.015  0.0086 -0.0295  0.0343
66034DPGS   C3B26153  30.299   9.813   4.604  0.0605  0.3904  0.0971
66034DPGS   C4B26154  30.539   9.591   4.251 -0.1432  0.0627  0.3139
66035DPGS    C126155  24.969  17.507   6.570  0.2309 -0.1053  0.0412
66035DPGS    C226156  25.156  17.738   6.617 -0.0272  0.0792  0.1730
66035DPGS    C326157  24.926  17.767   6.426  0.0180 -0.1136  0.0884
66035DPGS   AM126158  24.437  17.469   6.516  0.0570 -0.2823 -0.0031
66035DPGS   AM226159  24.575  17.294   6.379  0.0774 -0.0349  0.1457
66035DPGS   D1A26160  24.155  17.535   6.516  0.1892  0.1803 -0.2744
66035DPGS   C2A26161  23.754  17.556   6.370  0.0411 -0.1489  0.1728
66035DPGS   C3A26162  23.293  17.668   6.295  0.3309 -0.0417  0.0943
66035DPGS   C4A26163  22.968  17.648   6.019 -0.2985 -0.0271  0.1430
66035DPGS   C1B26164  24.446  16.993   6.185  0.0396  0.0832 -0.0115
66035DPGS   C2B26165  24.122  16.922   5.960  0.1483  0.3439  0.0463
66035DPGS   C3B26166  23.763  16.817   5.882 -0.0738 -0.0650 -0.1792
66035DPGS   C4B26167  23.431  16.946   5.845 -0.0614 -0.0948  0.4625
66036DPGS    C126168  35.130  16.064   6.838  0.0109 -0.1113  0.1459
66036DPGS    C226169  35.385  16.079   6.995 -0.0796 -0.0609  0.2899
66036DPGS    C326170  35.255  16.330   6.895  0.1351 -0.1103 -0.1247
66036DPGS   AM126171  35.331  16.083   6.413 -0.4315  0.1945  0.1997
66036DPGS   AM226172   0.136  15.928   6.504 -0.2093  0.0775  0.1438
66036DPGS   D1A26173  35.265  16.197   6.176  0.1259 -0.0978  0.2735
66036DPGS   C2A26174   0.191  16.144   5.903 -0.0508  0.0800 -0.4586
66036DPGS   C3A26175   0.515  16.069   5.658 -0.0858 -0.0494  0.1757
66036DPGS   C4A26176   0.938  15.847   5.491 -0.0407  0.0795 -0.1456
66036DPGS   C1B26177   0.412  15.800   6.276 -0.2904  0.2408 -0.0843
66036DPGS   C2B26178   0.783  15.686   6.032  0.0360 -0.1179  0.1248
66036DPGS   C3B26179   1.143  15.454   5.952  0.0404 -0.1935  0.0400
66036DPGS   C4B26180   1.534  15.382   5.900  0.1891 -0.3696 -0.1335
66037DPGS    C126181   0.773  34.062  15.280  0.0602  0.0889  0.2923
66037DPGS    C226182   0.866  34.342  15.331  0.0711  0.1299  0.0548
66037DPGS    C326183   0.967  34.117  15.502  0.4202  0.2074 -0.0454
66037DPGS   AM126184   1.161  33.909  15.007  0.1751  0.0649  0.0877
66037DPGS   AM226185   1.006  33.686  14.997 -0.1256  0.0629  0.2942
66037DPGS   D1A26186   1.435  33.874  14.887  0.1296  0.2327 -0.2078
66037DPGS   C2A26187   1.622  33.717  14.526 -0.1049 -0.1941 -0.0053
66037DPGS   C3A26188   1.753  33.535  14.236 -0.2011 -0.1335 -0.1408
66037DPGS   C4A26189   1.526  33.292  13.902 -0.0441 -0.2623  0.0371
66037DPGS   C1B26190   1.176  33.400  14.806  0.2439 -0.4136  0.3473
66037DPGS   C2B26191   1.142  33.158  14.416  0.2091 -0.0689  0.0284
66037DPGS   C3B26192   1.288  32.923  14.116 -0.1777  0.2645 -0.3125
66037DPGS   C4B26193   1.246  32.872  13.740  0.4135 -0.0831  0.0640
66038DPGS    C126194   1.796   5.788  13.088  0.0150  0.2172  0.1264
66038DPGS    C226195   1.965   5.915  13.301  0.1132  0.0065  0.1746
66038DPGS    C326196   1.817   5.660  13.358  0.3514 -0.1938 -0.0897
66038DPGS   AM126197   1.929   5.353  12.909  0.1975 -0.0765  0.0791
66038DPGS   AM226198   1.772   5.436  12.715 -0.1987  0.0605 -0.0691
66038DPGS   D1A26199   2.148   5.178  12.852  0.1502  0.2335  0.0020
66038DPGS   C2A26200   2.467   5.019  12.698 -0.0221  0.0266 -0.2841
66038DPGS   C3A26201   2.727   4.836  12.454  0.2319 -0.1244  0.1650
66038DPGS   C4A26202   3.132   4.738  12.348 -0.0255  0.2302  0.1093
66038DPGS   C1B26203   1.760   5.247  12.412 -0.2407  0.1474  0.3062
66038DPGS   C2B26204   1.835   5.054  12.025 -0.1240 -0.1833  0.2928
66038DPGS   C3B26205   2.118   4.877  11.856  0.1246  0.0614  0.1088
66038DPGS   C4B26206   2.278   4.609  11.529  0.4486 -0.2049 -0.0483
66039DPGS    C126207  25.820  22.545   7.251 -0.1387  0.0346 -0.1431
66039DPGS    C226208  26.021  22.330   7.306  0.1756  0.4198  0.2472
66039DPGS    C326209  26.052  22.505   7.065  0.0073  0.1356  0.0157
66039DPGS   AM126210  25.536  22.437   6.842 -0.1088  0.2522 -0.1087
66039DPGS   AM226211  25.456  22.262   7.025  0.1063 -0.3193 -0.0523
66039DPGS   D1A26212  25.347  22.439   6.606  0.0943  0.0965 -0.2201
66039DPGS   C2A26213  25.151  22.471   6.297  0.2728 -0.0114 -0.3393
66039DPGS   C3A26214  24.792  22.665   6.063 -0.1153  0.0276 -0.1208
66039DPGS   C4A26215  24.492  22.959   5.804 -0.1169 -0.0912 -0.1090
66039DPGS   C1B26216  25.121  22.101   7.032  0.1294  0.1644  0.1573
66039DPGS   C2B26217  24.684  21.876   7.026  0.0387  0.0179  0.0674
66039DPGS   C3B26218  24.436  21.571   6.871 -0.0150  0.1665 -0.2493
66039DPGS   C4B26219  24.193  21.468   7.108 -0.1647  0.1008 -0.2879
66040DPGS    C126220   8.101  28.945  20.740 -0.0246 -0.0796  0.1304
66040DPGS    C226221   8.044  29.032  21.021 -0.1471 -0.0052  0.0829
66040DPGS    C326222   8.305  29.103  20.892 -0.2111  0.2182  0.0745
66040DPGS   AM126223   8.511  28.685  20.553 -0.0527  0.1074  0.4120
66040DPGS   AM226224   8.524  28.431  20.626 -0.2086 -0.1449 -0.0350
66040DPGS   D1A26225   8.528  28.720  20.263  0.1971 -0.5323 -0.1242
66040DPGS   C2A26226   8.768  28.537  20.036  0.0887  0.3743  0.0712
66040DPGS   C3A26227   8.884  28.361  19.709  0.0299 -0.1975  0.2145
66040DPGS   C4A26228   9.079  28.293  19.290 -0.1685 -0.1416  0.1499
66040DPGS   C1B26229   8.688  28.148  20.471  0.0265 -0.0237 -0.0908
66040DPGS   C2B26230   8.823  28.021  20.051  0.5144 -0.0279  0.0456
66040DPGS   C3B26231   8.958  27.825  19.668  0.1285  0.0835  0.0396
66040DPGS   C4B26232   8.905  27.861  19.308 -0.2555 -0.0842 -0.1514
66041DPGS    C126233  32.891  26.022   9.682 -0.0834  0.2214 -0.0522
66041DPGS    C226234  32.878  25.732   9.608  0.0670  0.1741  0.1031
66041DPGS    C326235  32.644  25.863   9.743 -0.0051  0.1279  0.0234
66041DPGS   AM126236  32.624  26.289   9.382 -0.2853 -0.1624  0.5707
66041DPGS   AM226237  32.744  26.494   9.530 -0.0038  0.1094  0.1159
66041DPGS   D1A26238  32.634  26.296   9.092 -0.3024 -0.2811  0.1585
66041DPGS   C2A26239  32.873  26.481   8.790  0.0623  0.1574  0.2149
66041DPGS   C3A26240  33.052  26.573   8.510  0.0458  0.1173 -0.0140
66041DPGS   C4A26241  33.019  26.835   8.164  0.1035  0.2299 -0.0015
66041DPGS   C1B26242  33.089  26.629   9.518 -0.1233  0.0241 -0.1442
66041DPGS   C2B26243  33.422  26.807   9.413 -0.2052 -0.1296 -0.0767
66041DPGS   C3B26244  33.622  26.916   9.113 -0.1491 -0.0111 -0.3125
66041DPGS   C4B26245  33.833  26.927   8.793  0.1302  0.0403  0.3714
66042DPGS    C126246  16.138   0.860  16.455 -0.3055 -0.2447 -0.1421
66042DPGS    C226247  16.150   0.970  16.734 -0.2382 -0.1266 -0.1910
66042DPGS    C326248  16.035   1.136  16.512 -0.0140 -0.1031 -0.2906
66042DPGS   AM126249  16.076   0.892  15.985  0.2027  0.0221 -0.2324
66042DPGS   AM226250  16.255   1.099  15.986 -0.1776  0.0022 -0.3331
66042DPGS   D1A26251  15.846   0.763  15.853  0.1399  0.0535  0.5795
66042DPGS   C2A26252  15.656   0.532  15.499  0.0292 -0.1572 -0.3945
66042DPGS   C3A26253  15.455   0.505  15.085 -0.0280  0.1856 -0.1647
66042DPGS   C4A26254  15.253   0.456  14.719 -0.0584  0.1687 -0.2417
66042DPGS   C1B26255  16.310   1.297  15.661 -0.1342  0.2027 -0.2102
66042DPGS   C2B26256  15.995   1.394  15.371 -0.0640 -0.1172 -0.1647
66042DPGS   C3B26257  15.766   1.425  14.945  0.0238  0.1490 -0.0240
66042DPGS   C4B26258  15.689   1.298  14.652 -0.0130  0.3891  0.2107
66043DPGS    C126259  21.639  18.740  14.916  0.0191 -0.1196 -0.4586
66043DPGS    C226260  21.881  18.562  14.908  0.0133 -0.1629  0.1378
66043DPGS    C326261  21.908  18.854  14.846  0.1670 -0.2191 -0.0640
66043DPGS   AM126262  21.427  19.099  14.624 -0.1900 -0.2471  0.0805
66043DPGS   AM226263  21.546  18.919  14.439  0.3737 -0.1784 -0.2620
66043DPGS   D1A26264  21.199  19.212  14.490 -0.1686  0.0370  0.0483
66043DPGS   C2A26265  20.745  19.166  14.298  0.0394 -0.1052  0.0592
66043DPGS   C3A26266  20.404  19.312  14.242 -0.1169  0.1347  0.2207
66043DPGS   C4A26267  20.110  19.664  14.027 -0.0414 -0.2056  0.1288
66043DPGS   C1B26268  21.357  18.746  14.176  0.1689 -0.1200  0.1060
66043DPGS   C2B26269  21.012  18.824  14.020 -0.0607 -0.2855  0.1956
66043DPGS   C3B26270  20.563  18.970  13.884 -0.0914  0.0544 -0.0521
66043DPGS   C4B26271  20.348  19.247  13.630  0.1335  0.2380 -0.1176
66044DPGS    C126272  22.374  21.660  14.600 -0.1443 -0.0199 -0.0587
66044DPGS    C226273  22.174  21.517  14.772 -0.1124 -0.1210 -0.1051
66044DPGS    C326274  22.263  21.395  14.513  0.0127 -0.0784 -0.0825
66044DPGS   AM126275  22.015  21.894  14.393 -0.1562  0.3462  0.1208
66044DPGS   AM226276  21.970  21.957  14.652  0.1309  0.0223  0.1946
66044DPGS   D1A26277  21.855  21.963  14.183 -0.1818 -0.6530 -0.0270
66044DPGS   C2A26278  21.606  21.959  13.855 -0.0780  0.0089 -0.0417
66044DPGS   C3A26279  21.296  21.819  13.622 -0.0457 -0.0072  0.2813
66044DPGS   C4A26280  21.256  21.752  13.262 -0.1346 -0.1502 -0.0163
66044DPGS   C1B26281  21.648  21.874  14.781 -0.3028  0.2451 -0.1730
66044DPGS   C2B26282  21.206  21.738  14.872  0.0401 -0.1789  0.0689
66044DPGS   C3B26283  20.780  21.804  14.769  0.2218 -0.3187  0.2378
66044DPGS   C4B26284  20.519  21.737  15.025  0.0606 -0.0584 -0.0589
66045DPGS    C126285  29.152  25.127   6.664 -0.0433  0.0370 -0.1391
66045DPGS    C226286  29.230  25.010   6.929 -0.3057 -0.1529 -0.1434
66045DPGS    C326287  29.402  24.963   6.688 -0.0743  0.0074 -0.0120
66045DPGS   AM126288  29.404  25.396   6.308  0.2350 -0.0647  0.0652
66045DPGS   AM226289  29.204  25.250   6.202 -0.1659 -0.1795 -0.1507
66045DPGS   D1A26290  29.353  25.682   6.255 -0.0871  0.4786  0.1217
66045DPGS   C2A26291  29.435  25.920   5.879 -0.0507 -0.0277 -0.1793
66045DPGS   C3A26292  29.571  26.005   5.489  0.1105 -0.2236 -0.2676
66045DPGS   C4A26293  29.800  26.203   5.217 -0.1324  0.1184 -0.1622
66045DPGS   C1B26294  29.108  25.344   5.871 -0.3774  0.2152 -0.0041
66045DPGS   C2B26295  29.279  25.480   5.497 -0.2567  0.1520  0.0218
66045DPGS   C3B26296  29.455  25.610   5.162 -0.1679  0.0957 -0.1313
66045DPGS   C4B26297  29.696  25.806   4.984 -0.0908  0.3523  0.2559
66046DPGS    C126298   9.876  17.616  19.015 -0.0802 -0.1776  0.0584
66046DPGS    C226299   9.582  17.650  19.067 -0.1117  0.0087 -0.2299
66046DPGS    C326300   9.763  17.890  19.062  0.0078 -0.0815 -0.2715
66046DPGS   AM126301   9.627  17.608  18.572  0.1921  0.1108 -0.2117
66046DPGS   AM226302   9.863  17.758  18.581 -0.0045 -0.0265 -0.2882
66046DPGS   D1A26303   9.547  17.601  18.297  0.3136 -0.1657  0.1809
66046DPGS   C2A26304   9.726  17.661  17.881 -0.0277  0.0539  0.2747
66046DPGS   C3A26305   9.820  17.858  17.493  0.1822  0.3296 -0.0417
66046DPGS   C4A26306   9.951  18.047  17.173  0.2361  0.1000 -0.1498
66046DPGS   C1B26307   9.956  17.938  18.287 -0.1896 -0.0732 -0.0634
66046DPGS   C2B26308  10.044  18.228  17.964  0.0447 -0.0762  0.2266
66046DPGS   C3B26309   9.953  18.360  17.650  0.2815 -0.1046 -0.1024
66046DPGS   C4B26310   9.950  18.638  17.290  0.1310  0.0916 -0.1245
66047DPGS    C126311  23.973  16.329   9.625 -0.0433  0.1481  0.0177
66047DPGS    C226312  24.105  16.424   9.373  0.2480  0.1416  0.1650
66047DPGS    C326313  24.221  16.193   9.524 -0.4210 -0.4265 -0.1603
66047DPGS   AM126314  23.716  15.936   9.510 -0.2114  0.2907 -0.2422
66047DPGS   AM226315  23.674  15.906   9.782  0.0118 -0.2031  0.1079
66047DPGS   D1A26316  23.556  15.777   9.314 -0.2843 -0.1009 -0.2383
66047DPGS   C2A26317  23.143  15.745   9.286 -0.1431  0.1366  0.3509
66047DPGS   C3A26318  22.775  15.714   9.199  0.0945 -0.1005  0.2669
66047DPGS   C4A26319  22.358  15.719   9.251 -0.0478 -0.0887  0.0951
66047DPGS   C1B26320  23.327  15.855   9.868 -0.4376 -0.0166 -0.0013
66047DPGS   C2B26321  23.033  15.707   9.794 -0.0870  0.1481  0.0232
66047DPGS   C3B26322  22.638  15.669   9.845 -0.0260  0.4859 -0.1217
66047DPGS   C4B26323  22.237  15.626   9.765 -0.0358  0.0747 -0.4179
66048DPGS    C126324  26.191   4.430  10.578  0.1138 -0.0676  0.0948
66048DPGS    C226325  26.228   4.619  10.348  0.2252  0.0841  0.2362
66048DPGS    C326326  26.426   4.398  10.394 -0.0932 -0.2882 -0.1365
66048DPGS   AM126327  25.895   4.271  10.209 -0.3401  0.1395  0.0655
66048DPGS   AM226328  25.892   4.049  10.404 -0.1149 -0.0710  0.1151
66048DPGS   D1A26329  25.797   4.185   9.941 -0.5076 -0.2649 -0.0862
66048DPGS   C2A26330  25.546   4.239   9.516 -0.0535  0.1093  0.0330
66048DPGS   C3A26331  25.660   4.472   9.229  0.6382  0.0750 -0.1542
66048DPGS   C4A26332  25.861   4.523   8.877 -0.0523  0.3274 -0.2074
66048DPGS   C1B26333  25.892   3.690  10.305 -0.1297 -0.2744  0.5132
66048DPGS   C2B26334  25.862   3.395   9.979  0.0509 -0.0586  0.0856
66048DPGS   C3B26335  25.736   3.260   9.579  0.3214  0.5967 -0.1914
66048DPGS   C4B26336  25.305   3.280   9.295  0.3416  0.0244 -0.1203
66049DPGS    C126337  28.130  16.963   4.154  0.2143 -0.1623 -0.0419
66049DPGS    C226338  28.430  16.963   4.145  0.2122  0.0694 -0.1324
66049DPGS    C326339  28.284  17.195   4.266  0.0738 -0.1386  0.1016
66049DPGS   AM126340  28.189  17.166   3.704  0.0133 -0.0907  0.1189
66049DPGS   AM226341  28.241  16.895   3.695 -0.0687  0.0255 -0.0866
66049DPGS   D1A26342  28.011  17.313   3.545 -0.1737 -0.1469 -0.0780
66049DPGS   C2A26343  27.725  17.293   3.245 -0.2160  0.1518  0.0485
66049DPGS   C3A26344  27.601  17.348   2.762  0.2254  0.3756  0.2341
66049DPGS   C4A26345  27.682  17.029   2.408  0.0189  0.0215 -0.1253
66049DPGS   C1B26346  28.293  16.810   3.351  0.1579  0.1849  0.1190
66049DPGS   C2B26347  27.979  16.911   3.170  0.0903 -0.2010 -0.1231
66049DPGS   C3B26348  27.738  16.899   2.949  0.1861  0.0106 -0.0692
66049DPGS   C4B26349  27.382  16.669   2.662 -0.0360  0.2093  0.1757
66050DPGS    C126350  25.227  20.309   8.304  0.0162  0.1246 -0.0271
66050DPGS    C226351  25.475  20.466   8.240  0.1557 -0.0768  0.0177
66050DPGS    C326352  25.346  20.295   8.029  0.0765 -0.0017  0.0052
66050DPGS   AM126353  25.117  20.785   8.244 -0.0793  0.2152  0.1910
66050DPGS   AM226354  24.905  20.639   8.160  0.1357  0.0832 -0.0216
66050DPGS   D1A26355  25.188  21.059   8.129  0.1586 -0.1943 -0.0654
66050DPGS   C2A26356  25.533  21.243   8.030 -0.6599 -0.2261 -0.1226
66050DPGS   C3A26357  25.648  21.366   7.687  0.1064  0.4179  0.0764
66050DPGS   C4A26358  25.718  21.335   7.292  0.0849 -0.2211 -0.0330
66050DPGS   C1B26359  24.660  20.706   7.873  0.0418 -0.3444 -0.2491
66050DPGS   C2B26360  24.433  21.023   7.702 -0.1553 -0.2054  0.3341
66050DPGS   C3B26361  24.226  21.381   7.577 -0.2363  0.0117 -0.2050
66050DPGS   C4B26362  23.822  21.534   7.486  0.1802  0.0812  0.1334
66051DPGS    C126363  29.397  21.816   4.126 -0.0168  0.0147  0.1097
66051DPGS    C226364  29.449  21.652   4.372 -0.0335 -0.1636 -0.0054
66051DPGS    C326365  29.202  21.822   4.355  0.1665  0.1596  0.2638
66051DPGS   AM126366  29.003  21.910   3.826  0.1125  0.3084  0.2952
66051DPGS   AM226367  29.031  22.122   3.997 -0.2656 -0.1055 -0.2273
66051DPGS   D1A26368  29.149  21.869   3.589 -0.2793 -0.0226  0.2691
66051DPGS   C2A26369  29.045  22.041   3.172 -0.1099 -0.0568  0.1051
66051DPGS   C3A26370  28.889  22.076   2.763  0.3095  0.1027  0.1578
66051DPGS   C4A26371  28.543  22.178   2.383 -0.2185 -0.0571 -0.1080
66051DPGS   C1B26372  28.985  22.485   3.886 -0.1123 -0.0969 -0.0842
66051DPGS   C2B26373  28.871  22.587   3.475  0.0240  0.1017  0.3072
66051DPGS   C3B26374  28.878  22.573   2.931 -0.1173  0.1336 -0.1195
66051DPGS   C4B26375  28.730  22.618   2.680 -0.0443 -0.0110  0.0873
66052DPGS    C126376   1.608  20.991   9.200 -0.0522  0.3096 -0.2972
66052DPGS    C226377   1.834  21.016   9.395 -0.0744 -0.0309 -0.2245
66052DPGS    C326378   1.567  21.138   9.459 -0.1051 -0.2104 -0.0040
66052DPGS   AM126379   1.649  21.415   8.956 -0.0148 -0.0743 -0.4440
66052DPGS   AM226380   1.784  21.478   9.161  0.0051 -0.1664  0.0825
66052DPGS   D1A26381   1.634  21.442   8.682  0.0935 -0.0423 -0.0657
66052DPGS   C2A26382   1.807  21.689   8.372  0.0135  0.0413 -0.0503
66052DPGS   C3A26383   2.117  21.934   8.102  0.2234 -0.0859  0.0064
66052DPGS   C4A26384   2.302  22.161   7.807  0.1175 -0.0555 -0.0296
66052DPGS   C1B26385   1.892  21.800   9.216 -0.1863  0.0583 -0.0855
66052DPGS   C2B26386   2.119  22.074   8.998  0.1313  0.0278 -0.0470
66052DPGS   C3B26387   2.371  22.239   8.743 -0.1508 -0.2067  0.1353
66052DPGS   C4B26388   2.637  22.539   8.597 -0.0283  0.0205  0.0862
66053DPGS    C126389  18.885  32.768  14.674  0.0737 -0.2081  0.0928
66053DPGS    C226390  19.183  32.729  14.676  0.1198  0.1221  0.0149
66053DPGS    C326391  19.061  32.957  14.828 -0.1003 -0.0531  0.1029
66053DPGS   AM126392  18.880  33.110  14.306  0.2653 -0.1447 -0.2958
66053DPGS   AM226393  19.102  32.979  14.210  0.1219  0.1425  0.0023
66053DPGS   D1A26394  18.653  33.121  14.141  0.1990 -0.0795  0.0101
66053DPGS   C2A26395  18.408  33.041  13.836 -0.0163 -0.1352  0.2170
66053DPGS   C3A26396  18.090  32.858  13.592  0.1220 -0.0377  0.0735
66053DPGS   C4A26397  17.751  32.842  13.240 -0.3160 -0.0962  0.2003
66053DPGS   C1B26398  19.128  32.770  13.921  0.0168  0.0782  0.1333
66053DPGS   C2B26399  18.851  32.844  13.586  0.4517 -0.2076 -0.1189
66053DPGS   C3B26400  18.666  32.765  13.302  0.2419 -0.0344  0.1201
66053DPGS   C4B26401  18.208  32.637  13.150 -0.0311 -0.0005  0.0785
66054DPGS    C126402  34.744  14.844   7.038  0.0775 -0.1414  0.2297
66054DPGS    C226403  34.876  15.107   7.093 -0.1744 -0.0493  0.4046
66054DPGS    C326404  35.025  14.852   7.144  0.1712  0.0584 -0.0282
66054DPGS   AM126405  34.917  15.041   6.608  0.0720  0.2029 -0.2067
66054DPGS   AM226406  34.833  14.797   6.544 -0.1401  0.1083  0.0405
66054DPGS   D1A26407  35.041  15.208   6.420  0.0106 -0.0141  0.0825
66054DPGS   C2A26408   0.003  15.099   6.089  0.0717 -0.1185  0.0171
66054DPGS   C3A26409   0.299  15.024   5.754  0.0079  0.0979 -0.0539
66054DPGS   C4A26410   0.676  14.857   5.549 -0.1477  0.1190  0.1297
66054DPGS   C1B26411  35.053  14.623   6.298 -0.0743  0.0838  0.1407
66054DPGS   C2B26412   0.052  14.463   6.088  0.0863 -0.0211  0.1646
66054DPGS   C3B26413   0.370  14.461   5.801 -0.1664  0.0709 -0.1063
66054DPGS   C4B26414   0.540  14.367   5.451  0.1714 -0.1728  0.1695
66055DPGS    C126415  18.586   2.635  15.674 -0.0908  0.1450  0.1582
66055DPGS    C226416  18.678   2.353  15.629 -0.1815  0.1159  0.1537
66055DPGS    C326417  18.403   2.406  15.736 -0.2063  0.2061  0.0456
66055DPGS   AM126418  18.488   2.556  15.171 -0.3150 -0.2172 -0.3743
66055DPGS   AM226419  18.248   2.636  15.261  0.2157 -0.3607 -0.0372
66055DPGS   D1A26420  18.552   2.608  14.909  0.1205  0.2305  0.2243
66055DPGS   C2A26421  18.442   2.679  14.604  0.2272  0.0845  0.2147
66055DPGS   C3A26422  18.352   2.709  14.164 -0.1237  0.1825 -0.0180
66055DPGS   C4A26423  18.167   2.975  13.981 -0.1246 -0.0690 -0.1876
66055DPGS   C1B26424  18.030   2.825  15.040  0.1817 -0.0195 -0.2115
66055DPGS   C2B26425  18.027   2.887  14.648  0.1368  0.0684 -0.2678
66055DPGS   C3B26426  17.826   2.931  14.316 -0.0270 -0.0756 -0.2599
66055DPGS   C4B26427  17.506   2.877  14.016  0.1980  0.2935  0.0353
66056DPGS    C126428  21.832  14.404  13.926  0.0182 -0.1725  0.0014
66056DPGS    C226429  22.022  14.201  13.813  0.0451 -0.2080  0.1100
66056DPGS    C326430  21.805  14.316  13.640  0.0362 -0.3213  0.0452
66056DPGS   AM126431  21.374  14.483  13.911 -0.1715  0.1704  0.0619
66056DPGS   AM226432  21.382  14.205  13.923  0.0874 -0.1919 -0.0939
66056DPGS   D1A26433  21.191  14.716  13.948 -0.0181  0.2787  0.1324
66056DPGS   C2A26434  20.854  14.975  13.975 -0.0603  0.0416 -0.1224
66056DPGS   C3A26435  20.639  15.191  13.814 -0.0285 -0.0359 -0.2161
66056DPGS   C4A26436  20.462  15.335  13.533  0.0920  0.0034 -0.2233
66056DPGS   C1B26437  21.105  13.969  13.851 -0.0874 -0.0692  0.2033
66056DPGS   C2B26438  20.769  13.827  13.452  0.0222 -0.2723  0.0735
66056DPGS   C3B26439  20.392  13.632  13.233 -0.0455  0.0790 -0.2395
66056DPGS   C4B26440  20.029  13.615  13.290 -0.0932 -0.3395 -0.2392
66057DPGS    C126441  21.611  17.612  14.564 -0.1965  0.0903  0.1635
66057DPGS    C226442  21.495  17.353  14.662  0.1988 -0.0969  0.1478
66057DPGS    C326443  21.491  17.418  14.369  0.2774 -0.1760  0.1291
66057DPGS   AM126444  21.274  17.930  14.497 -0.1500  0.1361 -0.3451
66057DPGS   AM226445  21.109  17.732  14.608  0.0456 -0.1805 -0.0877
66057DPGS   D1A26446  21.268  18.185  14.364  0.0273  0.1651 -0.0067
66057DPGS   C2A26447  20.943  18.309  14.177 -0.1270  0.2160  0.4577
66057DPGS   C3A26448  20.624  18.471  13.905  0.2521 -0.0499  0.0560
66057DPGS   C4A26449  20.204  18.601  13.819  0.2659 -0.0238 -0.2085
66057DPGS   C1B26450  20.842  17.560  14.431 -0.2231  0.1294  0.0327
66057DPGS   C2B26451  20.559  17.575  14.117  0.1311 -0.0606 -0.0022
66057DPGS   C3B26452  20.190  17.577  13.902 -0.1884  0.1557  0.3128
66057DPGS   C4B26453  19.999  17.550  13.589 -0.1481  0.2192  0.0740
66058DPGS    C126454  23.772  16.420  10.548  0.0401  0.0114  0.0027
66058DPGS    C226455  23.905  16.340  10.804 -0.0119 -0.0349  0.0151
66058DPGS    C326456  24.071  16.429  10.571  0.0247  0.2251  0.1377
66058DPGS   AM126457  23.768  16.778  10.232  0.0833  0.2413  0.0006
66058DPGS   AM226458  23.831  16.632  10.024  0.1716 -0.1834  0.1679
66058DPGS   D1A26459  23.526  16.929  10.166  0.2110 -0.0457  0.1238
66058DPGS   C2A26460  23.062  16.858  10.081  0.0354 -0.1043 -0.2282
66058DPGS   C3A26461  22.570  16.805  10.063  0.1968 -0.0966  0.1748
66058DPGS   C4A26462  22.218  17.018   9.805 -0.0567  0.0651  0.0430
66058DPGS   C1B26463  23.583  16.565   9.753  0.2521  0.1789  0.1967
66058DPGS   C2B26464  23.384  16.275   9.572  0.0821 -0.4843 -0.3865
66058DPGS   C3B26465  23.030  16.131   9.509 -0.0853 -0.2582  0.1598
66058DPGS   C4B26466  22.617  16.132   9.527  0.0832 -0.0159  0.1379
66059DPGS    C126467   2.404  33.056  16.829 -0.0063  0.0344  0.1569
66059DPGS    C226468   2.629  33.146  17.005  0.0303 -0.0360  0.1467
66059DPGS    C326469   2.485  33.345  16.833  0.2202 -0.0258 -0.0019
66059DPGS   AM126470   2.558  32.989  16.400  0.2067 -0.1958  0.0356
66059DPGS   AM226471   2.721  32.809  16.519  0.1268 -0.1690 -0.4431
66059DPGS   D1A26472   2.670  33.083  16.140  0.3257  0.2922  0.3900
66059DPGS   C2A26473   3.006  33.005  15.949 -0.3670 -0.1030  0.2360
66059DPGS   C3A26474   3.294  32.868  15.636 -0.1324  0.0573  0.0458
66059DPGS   C4A26475   3.276  32.518  15.502 -0.3553  0.1962  0.0428
66059DPGS   C1B26476   3.028  32.675  16.347 -0.0754 -0.0640  0.1495
66059DPGS   C2B26477   3.279  32.585  16.047 -0.1747  0.0600 -0.2753
66059DPGS   C3B26478   3.661  32.580  15.800  0.2137 -0.0471  0.0280
66059DPGS   C4B26479   4.062  32.489  15.745  0.0292 -0.1411  0.0768
66060DPGS    C126480  31.834  24.287   6.487  0.0167  0.0888 -0.4592
66060DPGS    C226481  32.074  24.457   6.427 -0.0345  0.2897 -0.1125
66060DPGS    C326482  31.833  24.579   6.557 -0.0929 -0.0362  0.0920
66060DPGS   AM126483  31.514  24.468   6.102  0.1378  0.1893  0.0117
66060DPGS   AM226484  31.777  24.471   5.999  0.0336  0.1032  0.1571
66060DPGS   D1A26485  31.269  24.579   6.013  0.1473  0.1904  0.1836
66060DPGS   C2A26486  31.340  24.920   5.703 -0.0094 -0.0066 -0.0262
66060DPGS   C3A26487  31.402  25.135   5.367 -0.0343  0.1944 -0.1022
66060DPGS   C4A26488  31.469  25.306   5.006  0.1715 -0.5656  0.1499
66060DPGS   C1B26489  31.848  24.742   5.770 -0.1488  0.2614 -0.1580
66060DPGS   C2B26490  31.977  24.995   5.470 -0.0901 -0.1738  0.1105
66060DPGS   C3B26491  31.920  25.243   5.173 -0.1765 -0.0772  0.0052
66060DPGS   C4B26492  31.911  25.247   4.687  0.0022 -0.2282 -0.1295
66061DPGS    C126493  19.986  28.588  15.996  0.1239  0.3631  0.1887
66061DPGS    C226494  20.235  28.424  15.969 -0.1287  0.0121 -0.0592
66061DPGS    C326495  20.209  28.683  15.821  0.1652  0.1477  0.1225
66061DPGS   AM126496  19.880  28.237  15.642 -0.1338 -0.2453  0.0445
66061DPGS   AM226497  19.883  28.050  15.832  0.1734 -0.2957  0.1566
66061DPGS   D1A26498  19.665  28.165  15.427 -0.0327 -0.1439  0.0238
66061DPGS   C2A26499  19.403  27.808  15.336  0.0745  0.0875  0.0331
66061DPGS   C3A26500  19.047  27.465  15.266  0.0744 -0.0982  0.2607
66061DPGS   C4A26501  18.535  27.391  15.189  0.1837 -0.2230  0.0890
66061DPGS   C1B26502  19.652  27.778  15.891 -0.0161 -0.0039 -0.1770
66061DPGS   C2B26503  19.232  27.521  15.809  0.0356 -0.2023  0.1846
66061DPGS   C3B26504  18.860  27.384  15.668  0.0736 -0.3867 -0.0785
66061DPGS   C4B26505  18.424  27.276  15.683 -0.0421 -0.0438  0.2976
66062DPGS    C126506  30.464  19.278   4.086 -0.0357 -0.1509  0.2144
66062DPGS    C226507  30.283  19.514   4.050  0.0095 -0.1608 -0.0894
66062DPGS    C326508  30.460  19.496   4.292  0.0496  0.1449 -0.0939
66062DPGS   AM126509  30.702  19.611   3.787 -0.3314 -0.1863  0.1578
66062DPGS   AM226510  30.830  19.379   3.689  0.0528  0.1187  0.1908
66062DPGS   D1A26511  30.728  19.779   3.535 -0.2642 -0.0520  0.4135
66062DPGS   C2A26512  30.934  19.792   3.161 -0.0864 -0.0063  0.1343
66062DPGS   C3A26513  31.026  19.862   2.838  0.2832  0.0649  0.1875
66062DPGS   C4A26514  31.179  19.710   2.566 -0.1738  0.2842  0.3042
66062DPGS   C1B26515  31.143  19.366   3.472 -0.1502 -0.1130  0.0411
66062DPGS   C2B26516  31.235  19.250   3.073 -0.1698  0.0048 -0.3879
66062DPGS   C3B26517  31.319  19.189   2.622  0.1080  0.1158  0.0741
66062DPGS   C4B26518  31.382  19.061   2.120 -0.3300 -0.0917 -0.0539
66063DPGS    C126519  25.315  18.223   6.043 -0.0986 -0.0532 -0.1867
66063DPGS    C226520  25.244  17.933   6.076  0.1176 -0.0955 -0.0802
66063DPGS    C326521  25.414  18.070   6.281  0.1628  0.0609 -0.2207
66063DPGS   AM126522  24.860  18.207   6.187  0.1718 -0.3004 -0.0386
66063DPGS   AM226523  24.807  18.461   6.237  0.2497  0.3920 -0.3351
66063DPGS   D1A26524  24.690  18.103   5.964  0.0416 -0.1461  0.1989
66063DPGS   C2A26525  24.433  18.083   5.687 -0.1049 -0.2958  0.0122
66063DPGS   C3A26526  24.110  17.886   5.483  0.0577 -0.0652 -0.1516
66063DPGS   C4A26527  23.673  17.918   5.509 -0.1633 -0.0099  0.0033
66063DPGS   C1B26528  24.623  18.714   6.017 -0.4319  0.0218  0.0707
66063DPGS   C2B26529  24.353  18.859   5.783  0.0946  0.1098 -0.1741
66063DPGS   C3B26530  24.056  18.817   5.502 -0.2633  0.2507  0.0424
66063DPGS   C4B26531  23.803  18.755   5.151  0.3028 -0.2774  0.1735
66064DPGS    C126532   3.482   0.545  16.889  0.1950 -0.2980 -0.2640
66064DPGS    C226533   3.339   0.283  16.923 -0.2155 -0.0424  0.0278
66064DPGS    C326534   3.314   0.435  16.666 -0.0168 -0.2622 -0.1240
66064DPGS   AM126535   3.800   0.676  16.516 -0.0720 -0.0337  0.2864
66064DPGS   AM226536   3.928   0.751  16.743 -0.3389  0.1536 -0.0098
66064DPGS   D1A26537   3.942   0.773  16.289  0.4303 -0.0064 -0.6830
66064DPGS   C2A26538   4.238   0.748  16.058  0.2825  0.0553 -0.1608
66064DPGS   C3A26539   4.608   0.795  16.001  0.1158 -0.0544  0.1751
66064DPGS   C4A26540   4.994   0.949  16.219  0.1111 -0.1187 -0.1263
66064DPGS   C1B26541   4.266   0.909  16.719  0.3177  0.0855 -0.0409
66064DPGS   C2B26542   4.551   0.661  16.481 -0.2400  0.1221 -0.0637
66064DPGS   C3B26543   4.917   0.496  16.313  0.2375  0.0042  0.2604
66064DPGS   C4B26544   5.237   0.205  16.418  0.1509 -0.2954 -0.2314
66065DPGS    C126545  17.573   0.818  15.174 -0.0095  0.2391 -0.1469
66065DPGS    C226546  17.775   0.674  15.344 -0.1063  0.0364 -0.2021
66065DPGS    C326547  17.502   0.734  15.454 -0.0480  0.2277 -0.1602
66065DPGS   AM126548  17.391   0.367  15.050  0.3402  0.1068  0.2981
66065DPGS   AM226549  17.180   0.492  15.067  0.0775 -0.1075 -0.0965
66065DPGS   D1A26550  17.464   0.220  14.800  0.0741 -0.2499 -0.0365
66065DPGS   C2A26551  17.153   0.144  14.418 -0.4197 -0.0648 -0.2422
66065DPGS   C3A26552  16.894   0.065  14.098  0.0277 -0.2148  0.1188
66065DPGS   C4A26553  16.822  35.169  13.738 -0.2531 -0.0442 -0.1679
66065DPGS   C1B26554  16.898   0.423  14.850  0.2025 -0.1017 -0.3157
66065DPGS   C2B26555  16.576   0.325  14.474 -0.1697  0.0835 -0.2418
66065DPGS   C3B26556  16.388   0.099  14.217 -0.1404  0.3252 -0.1654
66065DPGS   C4B26557  16.092  35.190  14.040 -0.1144  0.0299  0.1456
66066DPGS    C126558  28.836  19.681   3.948  0.1067 -0.1345 -0.0131
66066DPGS    C226559  28.768  19.660   4.239 -0.3462  0.0032 -0.1049
66066DPGS    C326560  28.895  19.910   4.133  0.1791 -0.1967  0.0403
66066DPGS   AM126561  29.112  19.930   3.590  0.1293 -0.0586  0.3148
66066DPGS   AM226562  29.199  19.648   3.579 -0.1851 -0.0208  0.0042
66066DPGS   D1A26563  29.283  20.088   3.408  0.1320  0.1103  0.0277
66066DPGS   C2A26564  29.300  20.035   3.036 -0.0910 -0.1940  0.0851
66066DPGS   C3A26565  29.447  19.987   2.682 -0.0852  0.0321 -0.1379
66066DPGS   C4A26566  29.606  19.995   2.193 -0.1569  0.1149 -0.1908
66066DPGS   C1B26567  29.399  19.451   3.362 -0.1710  0.4218  0.2886
66066DPGS   C2B26568  29.475  19.498   2.933  0.0443 -0.0495 -0.1149
66066DPGS   C3B26569  29.465  19.513   2.455  0.0629  0.0656 -0.5242
66066DPGS   C4B26570  29.539  19.391   2.079 -0.2754 -0.2779 -0.1520
66067DPGS    C126571  25.819  25.085   7.963  0.1433 -0.0926 -0.0687
66067DPGS    C226572  26.087  25.217   7.937  0.0258  0.1012 -0.3141
66067DPGS    C326573  25.836  25.381   7.918 -0.1076  0.0053  0.4365
66067DPGS   AM126574  25.387  25.062   7.762 -0.2150  0.1403 -0.0044
66067DPGS   AM226575  25.547  25.163   7.544  0.1526 -0.1385 -0.2300
66067DPGS   D1A26576  25.081  25.049   7.712 -0.3216 -0.0016 -0.2752
66067DPGS   C2A26577  24.720  25.179   7.411  0.0773  0.0866  0.1348
66067DPGS   C3A26578  24.363  25.327   7.174 -0.0042 -0.1224 -0.1926
66067DPGS   C4A26579  24.305  25.285   6.781 -0.2063  0.0491 -0.2497
66067DPGS   C1B26580  25.481  25.419   7.291  0.1036 -0.2282 -0.1364
66067DPGS   C2B26581  25.225  25.789   7.050  0.1108  0.2655  0.3487
66067DPGS   C3B26582  24.915  25.805   6.797 -0.1542  0.1654  0.0920
66067DPGS   C4B26583  24.617  25.822   6.526  0.2052  0.0155  0.0672
66068DPGS    C126584  10.982  34.187  20.404  0.2708 -0.0560  0.0219
66068DPGS    C226585  11.108  34.458  20.426  0.1166  0.0349 -0.1954
66068DPGS    C326586  10.851  34.424  20.276  0.1332 -0.2317 -0.1660
66068DPGS   AM126587  11.125  34.073  19.926 -0.1199  0.1728  0.5688
66068DPGS   AM226588  11.299  33.930  20.064  0.0906  0.2919 -0.0486
66068DPGS   D1A26589  11.202  34.107  19.640  0.1372  0.1166  0.0594
66068DPGS   C2A26590  11.182  34.090  19.207 -0.2767  0.1717  0.2454
66068DPGS   C3A26591  11.324  34.014  18.863  0.0636 -0.2949  0.0280
66068DPGS   C4A26592  11.288  33.874  18.505  0.0378 -0.1811  0.0684
66068DPGS   C1B26593  11.460  33.632  19.967 -0.1100 -0.3093  0.3904
66068DPGS   C2B26594  11.523  33.558  19.497  0.2580 -0.1161 -0.2971
66068DPGS   C3B26595  11.507  33.640  19.124 -0.0736  0.1594 -0.0892
66068DPGS   C4B26596  11.598  33.454  18.742  0.0944  0.0188 -0.2151
66069DPGS    C126597   4.709  21.700  18.186  0.3011 -0.0695 -0.0043
66069DPGS    C226598   4.633  21.942  18.346  0.0512 -0.2004  0.0777
66069DPGS    C326599   4.689  21.968  18.052 -0.2375 -0.0861  0.0309
66069DPGS   AM126600   5.127  21.643  17.930  0.1754  0.2224 -0.0576
66069DPGS   AM226601   5.200  21.712  18.170 -0.1217 -0.1260  0.2192
66069DPGS   D1A26602   5.298  21.575  17.698 -0.1846 -0.2034 -0.2139
66069DPGS   C2A26603   5.579  21.681  17.445  0.2485 -0.1122 -0.0390
66069DPGS   C3A26604   5.827  21.858  17.181  0.0496 -0.0140  0.3659
66069DPGS   C4A26605   5.905  22.319  16.941 -0.2579  0.4413  0.2359
66069DPGS   C1B26606   5.513  21.885  18.270 -0.2137 -0.3819 -0.0695
66069DPGS   C2B26607   5.574  22.221  18.442 -0.2229 -0.1495 -0.0706
66069DPGS   C3B26608   5.337  22.622  18.265 -0.0480  0.0429 -0.0333
66069DPGS   C4B26609   5.148  22.662  17.938  0.1728  0.0294 -0.1482
66070DPGS    C126610  28.233  28.818   9.581 -0.0382 -0.0317  0.1861
66070DPGS    C226611  28.447  28.734   9.388 -0.3754  0.2357 -0.3149
66070DPGS    C326612  28.215  28.552   9.444 -0.1251  0.0315  0.0737
66070DPGS   AM126613  28.141  29.029   9.153 -0.1159  0.1498 -0.1959
66070DPGS   AM226614  27.912  28.896   9.166  0.2479  0.1481 -0.1702
66070DPGS   D1A26615  28.352  29.196   9.007  0.2239  0.1833  0.2120
66070DPGS   C2A26616  28.436  29.372   8.618  0.0739 -0.3870 -0.1253
66070DPGS   C3A26617  28.617  29.639   8.347 -0.0198 -0.0829  0.0143
66070DPGS   C4A26618  28.620  29.861   8.038 -0.0233 -0.0430 -0.2893
66070DPGS   C1B26619  27.753  28.811   8.848 -0.1565  0.2500 -0.5227
66070DPGS   C2B26620  27.747  28.914   8.500 -0.0954 -0.0945 -0.0680
66070DPGS   C3B26621  27.705  29.146   8.153 -0.2266 -0.0107 -0.0492
66070DPGS   C4B26622  27.669  29.485   7.964  0.1447 -0.0809  0.0226
66071DPGS    C126623   0.194  15.817   7.511  0.0144  0.1761  0.0768
66071DPGS    C226624   0.116  15.557   7.384 -0.1645  0.2042  0.1283
66071DPGS    C326625  35.321  15.796   7.361 -0.0688  0.2842  0.2038
66071DPGS   AM126626   0.451  15.806   7.107  0.1304  0.2405  0.0870
66071DPGS   AM226627   0.601  15.967   7.237  0.1406 -0.4625 -0.1053
66071DPGS   D1A26628   0.489  15.751   6.848  0.1508  0.5489  0.2206
66071DPGS   C2A26629   0.756  15.592   6.566 -0.3187  0.1000  0.0642
66071DPGS   C3A26630   1.109  15.552   6.410  0.0599  0.1182  0.0381
66071DPGS   C4A26631   1.442  15.288   6.386  0.0101 -0.0859  0.0242
66071DPGS   C1B26632   0.951  15.961   7.127 -0.1532 -0.1739  0.1092
66071DPGS   C2B26633   1.180  15.816   6.852 -0.1502  0.4490 -0.1470
66071DPGS   C3B26634   1.465  15.797   6.636  0.1073  0.1184  0.3051
66071DPGS   C4B26635   1.609  15.793   6.287 -0.1599 -0.3252  0.3398
66072DPGS    C126636  25.647  13.983   6.252  0.1606  0.0666 -0.0875
66072DPGS    C226637  25.360  13.927   6.319  0.2566 -0.1707  0.1377
66072DPGS    C326638  25.439  14.194   6.206 -0.1086 -0.2408 -0.2978
66072DPGS   AM126639  25.460  13.784   5.812  0.2277  0.2324  0.0949
66072DPGS   AM226640  25.699  13.897   5.771  0.0697 -0.3713 -0.2639
66072DPGS   D1A26641  25.245  13.750   5.614  0.1476  0.0302 -0.1071
66072DPGS   C2A26642  24.918  13.673   5.396  0.0863 -0.2128  0.0131
66072DPGS   C3A26643  24.824  13.321   5.123  0.0864  0.0496  0.0544
66072DPGS   C4A26644  24.683  13.188   4.742  0.1381 -0.0455 -0.1537
66072DPGS   C1B26645  25.898  13.867   5.482 -0.0759  0.2950  0.2539
66072DPGS   C2B26646  25.810  13.746   5.193  0.0785 -0.0611  0.2883
66072DPGS   C3B26647  25.576  13.529   4.935  0.2660  0.0251 -0.0947
66072DPGS   C4B26648  25.206  13.256   4.774 -0.1200  0.0694  0.2330
66073DPGS    C126649  27.067  19.065   4.457  0.0844  0.0480  0.0296
66073DPGS    C226650  26.967  19.334   4.546 -0.3087 -0.0243 -0.1812
66073DPGS    C326651  26.960  19.101   4.735  0.2447  0.1605  0.0773
66073DPGS   AM126652  26.590  19.124   4.295  0.1257  0.0932  0.2235
66073DPGS   AM226653  26.785  19.166   4.120  0.0525 -0.0635 -0.0515
66073DPGS   D1A26654  26.306  19.090   4.195  0.0011  0.1378 -0.1470
66073DPGS   C2A26655  26.136  19.076   3.732  0.1934 -0.1185 -0.1057
66073DPGS   C3A26656  25.929  19.129   3.354 -0.0439 -0.4222  0.3219
66073DPGS   C4A26657  25.906  18.841   3.128 -0.2368  0.1814  0.4457
66073DPGS   C1B26658  26.681  19.108   3.752  0.2940 -0.1721 -0.3589
66073DPGS   C2B26659  26.567  19.102   3.399  0.3271  0.0075  0.0342
66073DPGS   C3B26660  26.336  19.256   3.117  0.3240  0.0748  0.1310
66073DPGS   C4B26661  26.385  18.982   2.684  0.1973  0.2143  0.0173
66074DPGS    C126662   8.176  24.397  21.512  0.1466  0.0149 -0.1037
66074DPGS    C226663   8.290  24.661  21.598 -0.1271  0.0963  0.0163
66074DPGS    C326664   8.457  24.470  21.438  0.1485  0.2451  0.1237
66074DPGS   AM126665   7.987  24.441  21.091  0.0729  0.2042 -0.2578
66074DPGS   AM226666   8.007  24.178  21.132  0.0762  0.1137 -0.2015
66074DPGS   D1A26667   8.027  24.504  20.808  0.2733 -0.1127  0.1090
66074DPGS   C2A26668   8.187  24.441  20.345 -0.0721  0.0357  0.0252
66074DPGS   C3A26669   8.174  24.376  19.897  0.0075  0.0898  0.1265
66074DPGS   C4A26670   8.214  24.334  19.510 -0.0996 -0.1423 -0.0241
66074DPGS   C1B26671   8.136  23.947  20.886  0.1375 -0.0792  0.0843
66074DPGS   C2B26672   8.357  23.887  20.512  0.0965  0.3187 -0.4565
66074DPGS   C3B26673   8.476  23.988  20.087 -0.1997  0.0059 -0.2236
66074DPGS   C4B26674   8.676  24.249  19.741  0.0841 -0.1690  0.0752
66075DPGS    C126675  26.575   7.851   8.721  0.1544  0.2981 -0.0498
66075DPGS    C226676  26.388   7.835   8.954  0.0950 -0.1821 -0.1249
66075DPGS    C326677  26.684   7.845   9.000  0.0684  0.1832 -0.0184
66075DPGS   AM126678  26.674   7.382   8.720 -0.1884 -0.1745  0.0984
66075DPGS   AM226679  26.417   7.338   8.696  0.1885 -0.2726 -0.0289
66075DPGS   D1A26680  26.853   7.193   8.622  0.0445 -0.1090 -0.1120
66075DPGS   C2A26681  26.649   6.930   8.246  0.0611  0.0227 -0.1668
66075DPGS   C3A26682  26.441   6.624   7.965 -0.0355  0.1192 -0.1945
66075DPGS   C4A26683  26.333   6.396   7.719 -0.1475  0.0657 -0.1560
66075DPGS   C1B26684  26.241   7.249   8.378 -0.0488  0.2331 -0.2207
66075DPGS   C2B26685  26.068   6.981   8.142 -0.0979 -0.0514 -0.2554
66075DPGS   C3B26686  25.787   6.902   7.697  0.1060  0.0097  0.2365
66075DPGS   C4B26687  25.773   6.577   7.488  0.0352 -0.0845  0.0427
66076DPGS    C126688  30.479  26.419   7.696  0.1686 -0.0087 -0.3278
66076DPGS    C226689  30.275  26.254   7.842  0.2792  0.3495  0.2453
66076DPGS    C326690  30.540  26.134   7.767 -0.0403 -0.0437 -0.2855
66076DPGS   AM126691  30.562  26.348   7.238 -0.2990  0.1093  0.1357
66076DPGS   AM226692  30.420  26.117   7.203  0.0764 -0.0597 -0.0976
66076DPGS   D1A26693  30.592  26.481   6.978 -0.2143 -0.0088 -0.0166
66076DPGS   C2A26694  30.806  26.810   6.713  0.1911  0.1521 -0.2032
66076DPGS   C3A26695  30.986  26.914   6.468  0.0286 -0.1779 -0.1638
66076DPGS   C4A26696  30.731  26.881   6.078 -0.1289  0.0713  0.0659
66076DPGS   C1B26697  30.255  26.075   6.865 -0.2672 -0.3349 -0.2367
66076DPGS   C2B26698  30.096  26.301   6.608  0.1237  0.0629  0.4998
66076DPGS   C3B26699  30.069  26.419   6.216 -0.0086 -0.0785  0.0335
66076DPGS   C4B26700  30.260  26.790   6.135 -0.2706 -0.2515  0.0789
66077DPGS    C126701  25.662  18.800   5.932 -0.2194 -0.1823 -0.0590
66077DPGS    C226702  25.908  18.728   6.088 -0.1348 -0.2078 -0.2033
66077DPGS    C326703  25.697  18.521   6.037 -0.1746 -0.1923 -0.1007
66077DPGS   AM126704  25.144  18.699   5.957  0.1863 -0.0151 -0.0117
66077DPGS   AM226705  25.188  18.939   6.023 -0.1285  0.1435 -0.3657
66077DPGS   D1A26706  25.013  18.516   5.770 -0.0103  0.4293  0.3675
66077DPGS   C2A26707  24.607  18.514   5.549  0.0474 -0.0156  0.2502
66077DPGS   C3A26708  24.284  18.483   5.291 -0.1438  0.4246 -0.1755
66077DPGS   C4A26709  24.029  18.224   5.029 -0.0103  0.0820  0.1289
66077DPGS   C1B26710  25.096  19.267   5.888 -0.0906  0.1711 -0.0544
66077DPGS   C2B26711  24.851  19.497   5.587  0.2194  0.3469 -0.2362
66077DPGS   C3B26712  24.434  19.616   5.450  0.4452  0.2363 -0.0492
66077DPGS   C4B26713  24.043  19.901   5.332 -0.0206 -0.3619  0.3522
66078DPGS    C126714  30.653  11.228   5.171  0.1266  0.1022  0.0141
66078DPGS    C226715  30.696  11.001   5.362 -0.1473 -0.0138 -0.0588
66078DPGS    C326716  30.445  11.163   5.378  0.0501  0.2900 -0.0036
66078DPGS   AM126717  30.294  11.090   4.817  0.2440 -0.0643 -0.0851
66078DPGS   AM226718  30.294  11.348   4.799  0.0208  0.2519  0.0808
66078DPGS   D1A26719  30.354  10.946   4.572  0.2684  0.2198  0.3209
66078DPGS   C2A26720  30.449  10.710   4.281  0.2624  0.0535  0.2704
66078DPGS   C3A26721  30.455  10.592   3.980 -0.1644 -0.1494  0.0725
66078DPGS   C4A26722  30.504  10.468   3.532  0.2189  0.1224 -0.0153
66078DPGS   C1B26723  30.313  11.543   4.503  0.0774 -0.0450  0.1390
66078DPGS   C2B26724  30.363  11.261   4.196  0.0835  0.0527  0.0519
66078DPGS   C3B26725  30.473  11.034   3.857  0.0333 -0.3386  0.2016
66078DPGS   C4B26726  30.267  10.846   3.567 -0.2886 -0.0543 -0.2721
66079DPGS    C126727   3.059  34.665  17.342  0.0370  0.1002 -0.0600
66079DPGS    C226728   2.836  34.769  17.170  0.2411  0.1374 -0.3026
66079DPGS    C326729   3.034  34.959  17.292  0.0827  0.1128 -0.0042
66079DPGS   AM126730   3.194  34.552  16.888  0.1253 -0.1083  0.0068
66079DPGS   AM226731   3.421  34.542  17.029 -0.0828  0.0940 -0.1539
66079DPGS   D1A26732   3.261  34.644  16.618  0.0955 -0.2257  0.1875
66079DPGS   C2A26733   3.485  34.844  16.468  0.3078  0.0370  0.0934
66079DPGS   C3A26734   3.772  34.690  16.217  0.0303  0.1784 -0.3278
66079DPGS   C4A26735   4.123  34.744  16.014  0.0360 -0.0089 -0.1969
66079DPGS   C1B26736   3.740  34.682  16.878 -0.2380 -0.0782 -0.1087
66079DPGS   C2B26737   3.956  34.867  16.656  0.0775  0.2731  0.0804
66079DPGS   C3B26738   4.309  34.939  16.408  0.0603 -0.0165 -0.1402
66079DPGS   C4B26739   4.560  34.941  16.082  0.2769  0.3490  0.0914
66080DPGS    C126740   1.079   5.527  12.485  0.0803  0.0837  0.0819
66080DPGS    C226741   1.240   5.397  12.702  0.2211 -0.0052 -0.0755
66080DPGS    C326742   1.205   5.259  12.438 -0.1032  0.0189 -0.0470
66080DPGS   AM126743   1.473   5.713  12.248  0.0515 -0.0396  0.1791
66080DPGS   AM226744   1.257   5.777  12.057 -0.1205  0.1990  0.0836
66080DPGS   D1A26745   1.728   5.692  12.150  0.1912  0.0158 -0.1612
66080DPGS   C2A26746   2.050   5.493  11.998  0.1375 -0.0605 -0.2410
66080DPGS   C3A26747   2.204   5.301  11.639 -0.0332  0.0175 -0.1626
66080DPGS   C4A26748   2.351   5.097  11.385 -0.2058 -0.1498 -0.4259
66080DPGS   C1B26749   1.275   5.863  11.708 -0.1536 -0.1537  0.0057
66080DPGS   C2B26750   1.227   5.800  11.370 -0.0686  0.1102  0.3469
66080DPGS   C3B26751   1.337   5.496  11.054  0.0160 -0.1017 -0.2301
66080DPGS   C4B26752   1.417   5.568  10.668 -0.1521 -0.0823  0.0104
66081DPGS    C126753  18.598   0.173  14.225 -0.0402 -0.1196  0.0508
66081DPGS    C226754  18.878   0.250  14.301 -0.0994  0.0274  0.1228
66081DPGS    C326755  18.832   0.032  14.100  0.0663 -0.0174  0.1323
66081DPGS   AM126756  18.312  35.184  14.148 -0.3365 -0.0116 -0.2200
66081DPGS   AM226757  18.207  35.276  14.384 -0.0489 -0.1259 -0.0370
66081DPGS   D1A26758  18.104  35.083  13.954 -0.2626  0.0982  0.1281
66081DPGS   C2A26759  17.840  35.185  13.701  0.0103 -0.0569  0.2455
66081DPGS   C3A26760  17.707  35.247  13.374 -0.0905 -0.0976 -0.0570
66081DPGS   C4A26761  17.454   0.080  13.055  0.0571 -0.2877 -0.0125
66081DPGS   C1B26762  17.875   0.015  14.432  0.1575 -0.3252 -0.5381
66081DPGS   C2B26763  17.642  35.312  14.088  0.2083  0.0381 -0.0934
66081DPGS   C3B26764  17.353  35.308  13.890 -0.1285 -0.1886 -0.1001
66081DPGS   C4B26765  17.203  35.141  13.473 -0.1115  0.1201  0.0013
66082DPGS    C126766  22.654  12.936  13.258  0.1546 -0.0793 -0.1917
66082DPGS    C226767  22.744  12.672  13.368 -0.1273 -0.1080 -0.0261
66082DPGS    C326768  22.721  12.909  13.550 -0.0812 -0.0224 -0.1318
66082DPGS   AM126769  22.208  13.038  13.335  0.1045 -0.0406  0.0956
66082DPGS   AM226770  22.302  13.280  13.297  0.0915 -0.0033  0.4483
66082DPGS   D1A26771  21.956  12.990  13.202  0.1573  0.0820  0.0876
66082DPGS   C2A26772  21.693  12.999  12.931 -0.0124  0.1007  0.2498
66082DPGS   C3A26773  21.336  12.982  12.651 -0.1288 -0.2318 -0.0932
66082DPGS   C4A26774  21.051  13.185  12.480  0.0902 -0.0626 -0.1775
66082DPGS   C1B26775  22.166  13.547  13.075 -0.0670 -0.0137  0.0761
66082DPGS   C2B26776  21.773  13.463  12.693 -0.0545  0.2026  0.1408
66082DPGS   C3B26777  21.475  13.405  12.398 -0.1535  0.0865  0.1844
66082DPGS   C4B26778  21.337  13.372  12.074 -0.1122 -0.0883 -0.0926
66083DPGS    C126779  24.003  22.417  11.025 -0.0710 -0.3225  0.0868
66083DPGS    C226780  24.268  22.315  10.929  0.0899 -0.0388  0.2216
66083DPGS    C326781  24.159  22.225  11.194  0.1754  0.0471  0.2858
66083DPGS   AM126782  23.598  22.307  11.224 -0.0996 -0.1876  0.1204
66083DPGS   AM226783  23.574  22.594  11.250 -0.2645 -0.0666 -0.3044
66083DPGS   D1A26784  23.368  22.215  11.073  0.2040 -0.1788  0.1661
66083DPGS   C2A26785  23.003  22.303  11.059 -0.0428  0.2193 -0.0137
66083DPGS   C3A26786  22.731  22.515  10.917  0.0692  0.1127  0.0370
66083DPGS   C4A26787  22.415  22.734  10.728 -0.1430  0.1796  0.1381
66083DPGS   C1B26788  23.259  22.810  11.183 -0.1415  0.3730 -0.0037
66083DPGS   C2B26789  22.801  22.886  11.261  0.1101  0.1919 -0.2838
66083DPGS   C3B26790  22.414  22.999  11.112  0.0956 -0.0796 -0.0394
66083DPGS   C4B26791  22.032  22.813  11.092 -0.1599 -0.2197 -0.4966
66084DPGS    C126792  26.283  21.941   6.529 -0.0421  0.0264  0.0499
66084DPGS    C226793  26.417  21.882   6.791 -0.2679  0.2832  0.2254
66084DPGS    C326794  26.488  22.131   6.639 -0.1866  0.1687  0.0757
66084DPGS   AM126795  25.936  22.092   6.837 -0.1200 -0.0630 -0.3128
66084DPGS   AM226796  25.920  22.245   6.638 -0.0756 -0.1114  0.0508
66084DPGS   D1A26797  25.837  21.922   7.038  0.0412  0.0183 -0.2155
66084DPGS   C2A26798  25.561  21.796   7.151 -0.1125 -0.0528 -0.0146
66084DPGS   C3A26799  25.278  21.714   7.269 -0.3819  0.0899 -0.0881
66084DPGS   C4A26800  25.138  21.552   7.606  0.1258  0.0415  0.1020
66084DPGS   C1B26801  25.823  22.343   6.287  0.1234  0.2346 -0.1833
66084DPGS   C2B26802  25.600  22.551   6.061 -0.0751 -0.1715 -0.0126
66084DPGS   C3B26803  25.263  22.668   5.822 -0.0307 -0.1423 -0.1088
66084DPGS   C4B26804  24.952  22.858   5.603  0.0696  0.1255  0.1877
66085DPGS    C126805   3.570  22.923  15.293  0.0342  0.1575 -0.0819
66085DPGS    C226806   3.597  22.638  15.202  0.0578  0.0914  0.1282
66085DPGS    C326807   3.568  22.858  15.000  0.2079 -0.0414 -0.0400
66085DPGS   AM126808   4.036  22.761  15.312  0.0623  0.3153  0.1936
66085DPGS   AM226809   4.085  23.031  15.338  0.1393  0.1678  0.1537
66085DPGS   D1A26810   4.261  22.569  15.365 -0.0076  0.1990  0.3943
66085DPGS   C2A26811   4.521  22.249  15.169  0.1638 -0.0995 -0.0105
66085DPGS   C3A26812   4.839  22.033  15.149 -0.0617 -0.0661 -0.1371
66085DPGS   C4A26813   5.189  22.108  14.954 -0.3132 -0.0980  0.2414
66085DPGS   C1B26814   4.365  23.155  15.118  0.0112 -0.2923  0.0231
66085DPGS   C2B26815   4.747  23.415  14.950  0.0188 -0.0425  0.0649
66085DPGS   C3B26816   5.162  23.543  15.018  0.0335 -0.1989 -0.0836
66085DPGS   C4B26817   5.457  23.900  15.097 -0.0576 -0.1118 -0.1704
66086DPGS    C126818   4.808  12.070  15.583 -0.0261  0.2662 -0.0822
66086DPGS    C226819   4.811  12.368  15.619 -0.0586  0.2629 -0.0526
66086DPGS    C326820   4.660  12.246  15.391 -0.4032  0.2443  0.1821
66086DPGS   AM126821   4.997  11.893  15.109  0.1336 -0.0788 -0.1241
66086DPGS   AM226822   5.148  12.129  15.178  0.1525 -0.2363 -0.0889
66086DPGS   D1A26823   5.135  11.681  14.991  0.0269 -0.0884 -0.1693
66086DPGS   C2A26824   5.426  11.551  14.703 -0.1609 -0.0573  0.0159
66086DPGS   C3A26825   5.628  11.565  14.366 -0.2007  0.2951  0.1316
66086DPGS   C4A26826   5.880  11.787  14.030  0.1583  0.2113 -0.0917
66086DPGS   C1B26827   5.342  12.391  15.005  0.0419 -0.0015  0.1682
66086DPGS   C2B26828   5.490  12.630  14.689 -0.0291 -0.3616  0.3425
66086DPGS   C3B26829   5.739  12.832  14.195  0.1655  0.2655  0.0736
66086DPGS   C4B26830   5.919  12.669  13.872  0.1697  0.1713 -0.1175
66087DPGS    C126831  32.067  34.165  11.956 -0.0762 -0.0843 -0.1603
66087DPGS    C226832  31.847  33.962  11.951 -0.1551 -0.0055  0.0405
66087DPGS    C326833  31.791  34.246  11.874 -0.0681 -0.0371 -0.1405
66087DPGS   AM126834  32.254  34.455  11.649  0.2494 -0.0067  0.2059
66087DPGS   AM226835  32.086  34.680  11.735  0.0824  0.0188 -0.3618
66087DPGS   D1A26836  32.339  34.457  11.369  0.0377  0.0029 -0.2735
66087DPGS   C2A26837  32.560  34.293  11.064 -0.0172  0.2167  0.2856
66087DPGS   C3A26838  32.636  34.280  10.687  0.0423 -0.0658  0.1526
66087DPGS   C4A26839  32.946  34.199  10.336  0.0524  0.0398  0.0842
66087DPGS   C1B26840  31.984  34.843  11.422 -0.0677 -0.0457 -0.2393
66087DPGS   C2B26841  31.937  35.146  11.114  0.0907  0.0814 -0.0291
66087DPGS   C3B26842  31.996  35.186  10.732 -0.1210  0.0094 -0.2771
66087DPGS   C4B26843  32.216  35.109  10.373  0.0734  0.0800 -0.0391
66088DPGS    C126844   0.284  12.697   9.489  0.0280  0.0651 -0.3494
66088DPGS    C226845  35.382  12.663   9.410 -0.0238  0.1138 -0.1829
66088DPGS    C326846   0.095  12.551   9.670  0.1230  0.0413 -0.2690
66088DPGS   AM126847   0.346  12.290   9.234  0.0821 -0.1301  0.2835
66088DPGS   AM226848   0.366  12.470   8.999  0.2479  0.3116 -0.0075
66088DPGS   D1A26849   0.548  12.082   9.165  0.1302 -0.0748 -0.3853
66088DPGS   C2A26850   0.850  12.006   8.788  0.0818 -0.0410 -0.1055
66088DPGS   C3A26851   1.109  11.978   8.440  0.0362  0.1070  0.1777
66088DPGS   C4A26852   1.342  11.719   8.097 -0.0483 -0.0231 -0.1173
66088DPGS   C1B26853   0.584  12.411   8.710  0.0785 -0.1842 -0.1942
66088DPGS   C2B26854   1.013  12.471   8.535  0.2114 -0.0138  0.1435
66088DPGS   C3B26855   1.398  12.415   8.418  0.0226  0.0061  0.0479
66088DPGS   C4B26856   1.650  12.104   8.148  0.0334 -0.1191  0.1526
66089DPGS    C126857  35.377  15.610   6.908  0.0742 -0.4455 -0.1448
66089DPGS    C226858  35.158  15.578   6.706 -0.0010 -0.0609 -0.1284
66089DPGS    C326859  35.099  15.545   6.998 -0.0601  0.1422 -0.1169
66089DPGS   AM126860   0.186  15.203   7.029  0.2390  0.1892  0.2366
66089DPGS   AM226861  35.364  15.107   6.884  0.0178 -0.0318 -0.0812
66089DPGS   D1A26862   0.458  15.212   6.982  0.3300  0.1305 -0.0790
66089DPGS   C2A26863   0.734  15.123   6.780 -0.0464 -0.2262  0.1349
66089DPGS   C3A26864   1.059  14.976   6.591 -0.3310 -0.0689 -0.1500
66089DPGS   C4A26865   1.512  14.830   6.283 -0.1109 -0.3102  0.2334
66089DPGS   C1B26866   0.033  14.907   6.576  0.3010  0.2514 -0.1083
66089DPGS   C2B26867   0.356  14.760   6.243 -0.0267 -0.4593  0.4180
66089DPGS   C3B26868   0.734  14.547   6.095 -0.0316 -0.4285 -0.2218
66089DPGS   C4B26869   1.004  14.430   5.800  0.3514 -0.1136  0.4040
66090DPGS    C126870  28.128  20.709   4.153  0.0247 -0.1098 -0.0894
66090DPGS    C226871  28.388  20.769   4.289 -0.0998 -0.3239  0.2486
66090DPGS    C326872  28.378  20.743   3.990  0.1886  0.0844  0.1983
66090DPGS   AM126873  27.945  20.668   3.634  0.2166  0.0449 -0.1184
66090DPGS   AM226874  27.791  20.510   3.763 -0.0241 -0.2964  0.1343
66090DPGS   D1A26875  27.803  20.642   3.362 -0.0140  0.1148 -0.1330
66090DPGS   C2A26876  27.758  20.520   3.016  0.2063  0.2412  0.3090
66090DPGS   C3A26877  27.776  20.660   2.609 -0.2197  0.1388 -0.2249
66090DPGS   C4A26878  27.686  20.909   2.303 -0.2819  0.2328  0.0166
66090DPGS   C1B26879  27.593  20.220   3.626 -0.0302  0.0631  0.2226
66090DPGS   C2B26880  27.508  20.088   3.251  0.0965  0.0143 -0.2262
66090DPGS   C3B26881  27.414  20.178   2.888  0.1162 -0.2098  0.3253
66090DPGS   C4B26882  27.599  20.208   2.504  0.0238  0.0863 -0.1585
66091DPGS    C126883  25.662  17.753   5.853 -0.1353  0.0336 -0.0231
66091DPGS    C226884  25.792  18.023   5.837 -0.1119  0.0207 -0.0488
66091DPGS    C326885  25.726  17.873   5.585 -0.1265  0.0032 -0.0346
66091DPGS   AM126886  25.200  17.665   5.684  0.1389 -0.2390 -0.2563
66091DPGS   AM226887  25.375  17.502   5.561  0.1142  0.1334  0.2366
66091DPGS   D1A26888  24.933  17.698   5.762  0.2205 -0.0043 -0.0369
66091DPGS   C2A26889  24.627  17.682   5.442  0.0256  0.3904 -0.0787
66091DPGS   C3A26890  24.295  17.582   5.128 -0.2305 -0.0047 -0.0703
66091DPGS   C4A26891  24.178  17.822   4.801  0.0884  0.3378  0.2598
66091DPGS   C1B26892  25.417  17.353   5.218  0.0449 -0.1672 -0.0870
66091DPGS   C2B26893  25.153  17.147   4.941 -0.0222  0.1971  0.0602
66091DPGS   C3B26894  25.096  17.128   4.440  0.2385  0.1876  0.0440
66091DPGS   C4B26895  25.181  17.294   3.975  0.0168 -0.2065  0.3157
66092DBGS    C126896  18.083  33.399  15.309 -0.1156  0.0746  0.0551
66092DBGS    C226897  18.272  33.187  15.408 -0.1524  0.0640  0.1027
66092DBGS    C326898  18.052  33.288  15.586 -0.1246  0.1548  0.0861
66092DBGS   AM126899  17.740  33.699  15.373  0.0890 -0.1965 -0.1142
66092DBGS   AM226900  17.922  33.908  15.382  0.0353 -0.0766 -0.3853
66092DBGS   T1A26901  17.647  33.738  15.092 -0.0569  0.3525  0.1047
66092DBGS   C2A26902  17.391  33.639  14.839  0.1460  0.0034 -0.0074
66092DBGS   C3A26903  17.108  33.633  14.624 -0.1679 -0.2180 -0.0830
66092DBGS   C4A26904  16.768  33.649  14.299  0.1019  0.2277  0.0791
66092DBGS   C5A26905  16.474  33.490  13.902 -0.0826 -0.1435 -0.0571
66092DBGS   C1B26906  17.969  34.125  15.097 -0.1593 -0.1623  0.2490
66092DBGS   C2B26907  17.902  34.011  14.688 -0.0044  0.0172  0.0432
66092DBGS   C3B26908  17.645  33.912  14.477 -0.2055 -0.1119 -0.2305
66092DBGS   C4B26909  17.309  33.906  14.285  0.0417  0.1045 -0.1488
66092DBGS   C5B26910  17.126  33.890  13.918  0.0822  0.0323 -0.4155
66093DBGS    C126911  34.463  13.426   6.861  0.0111  0.0039 -0.1314
66093DBGS    C226912  34.295  13.179   6.827 -0.1683  0.0875  0.1334
66093DBGS    C326913  34.164  13.449   6.842  0.0181  0.1878 -0.0232
66093DBGS   AM126914  34.461  13.339   6.362 -0.0896  0.0505 -0.0122
66093DBGS   AM226915  34.572  13.597   6.368 -0.0014 -0.0484 -0.0147
66093DBGS   T1A26916  34.585  13.159   6.185 -0.2150  0.1064 -0.1525
66093DBGS   C2A26917  34.877  13.067   5.815  0.3424  0.0645 -0.1328
66093DBGS   C3A26918  35.148  13.045   5.551 -0.2362 -0.0421 -0.1711
66093DBGS   C4A26919   0.200  13.259   5.212  0.0368  0.0354  0.0844
66093DBGS   C5A26920   0.389  13.432   4.923  0.1886  0.2047 -0.2085
66093DBGS   C1B26921  34.712  13.769   6.066 -0.0730 -0.0898  0.2819
66093DBGS   C2B26922  34.997  13.608   5.716 -0.0627  0.0289 -0.1268
66093DBGS   C3B26923  35.257  13.711   5.341 -0.0403 -0.0795  0.0034
66093DBGS   C4B26924   0.000  13.715   4.904 -0.0125  0.1543 -0.2176
66093DBGS   C5B26925   0.126  13.724   4.532 -0.0453  0.2286  0.0216
66094DBGS    C126926  29.435   8.111   7.467 -0.1173  0.0554 -0.0868
66094DBGS    C226927  29.226   8.325   7.480 -0.2124 -0.0138 -0.4154
66094DBGS    C326928  29.498   8.387   7.369 -0.0596  0.0723 -0.0027
66094DBGS   AM126929  29.639   7.977   7.006 -0.0185  0.2378  0.0004
66094DBGS   AM226930  29.837   7.905   7.174  0.0699 -0.0539 -0.1972
66094DBGS   T1A26931  29.514   7.839   6.792 -0.1843  0.0134 -0.2398
66094DBGS   C2A26932  29.326   7.715   6.522  0.2603  0.2074  0.2273
66094DBGS   C3A26933  29.331   7.507   6.248  0.0552 -0.1849 -0.1116
66094DBGS   C4A26934  29.290   7.349   5.814 -0.2752 -0.3858 -0.0989
66094DBGS   C5A26935  29.234   7.206   5.423 -0.3460  0.0248 -0.2453
66094DBGS   C1B26936  30.041   7.596   7.148 -0.2037  0.1434 -0.0460
66094DBGS   C2B26937  30.324   7.473   6.818  0.2747 -0.1559  0.0521
66094DBGS   C3B26938  30.490   7.084   6.753  0.0416  0.0103  0.0121
66094DBGS   C4B26939  30.761   6.881   6.474  0.0585  0.0825  0.1401
66094DBGS   C5B26940  31.098   6.862   6.149  0.0996  0.0409  0.0485
66095DBGS    C126941   1.642  10.456  12.315 -0.3279  0.0441 -0.2600
66095DBGS    C226942   1.532  10.413  12.590  0.2443 -0.1652 -0.0568
66095DBGS    C326943   1.480  10.210  12.375 -0.0196 -0.1099 -0.0474
66095DBGS   AM126944   1.969  10.174  12.066 -0.0772 -0.0839 -0.0396
66095DBGS   AM226945   1.844  10.288  11.881  0.0543 -0.2106  0.1274
66095DBGS   T1A26946   2.196  10.025  12.005  0.5130  0.1904  0.1161
66095DBGS   C2A26947   2.542   9.928  11.827  0.4033  0.1669 -0.0433
66095DBGS   C3A26948   2.931   9.896  11.486  0.0841 -0.2007  0.1063
66095DBGS   C4A26949   3.283   9.811  11.297 -0.2171  0.2711 -0.3807
66095DBGS   C5A26950   3.498   9.486  11.223  0.0440  0.0338 -0.0070
66095DBGS   C1B26951   1.935  10.477  11.574 -0.1492 -0.1775 -0.1462
66095DBGS   C2B26952   2.204  10.710  11.425  0.0644 -0.1153  0.0959
66095DBGS   C3B26953   2.635  10.779  11.207  0.1108  0.1632 -0.0175
66095DBGS   C4B26954   2.847  10.707  10.802 -0.0894 -0.0867 -0.3208
66095DBGS   C5B26955   3.038  10.557  10.311 -0.1006 -0.1920 -0.2732
66096DBGS    C126956  19.590  28.995  16.243  0.0021  0.2530  0.0613
66096DBGS    C226957  19.494  28.713  16.282 -0.0926  0.2834  0.0481
66096DBGS    C326958  19.615  28.863  16.512  0.1811  0.1480 -0.0064
66096DBGS   AM126959  19.066  28.904  16.292 -0.0971  0.2554 -0.0748
66096DBGS   AM226960  19.120  29.176  16.323  0.4461 -0.3196 -0.0168
66096DBGS   T1A26961  18.810  28.762  16.310  0.2434 -0.3818 -0.0030
66096DBGS   C2A26962  18.449  28.620  16.117 -0.2075 -0.1055 -0.0093
66096DBGS   C3A26963  18.025  28.551  16.084  0.3257  0.0892  0.0164
66096DBGS   C4A26964  17.720  28.499  16.254 -0.0343 -0.1428 -0.1574
66096DBGS   C5A26965  17.244  28.560  16.368 -0.2154  0.2841 -0.3375
66096DBGS   C1B26966  18.879  29.438  16.376  0.3629  0.0095 -0.0975
66096DBGS   C2B26967  18.488  29.459  16.644  0.0118 -0.0586  0.0140
66096DBGS   C3B26968  18.138  29.355  16.758  0.2066  0.1692 -0.0912
66096DBGS   C4B26969  17.676  29.416  16.858  0.0240 -0.4530  0.0750
66096DBGS   C5B26970  17.268  29.437  17.035  0.0493  0.0374  0.2215
66097DBGS    C126971  27.115  31.623  10.087 -0.0458 -0.0624  0.0944
66097DBGS    C226972  27.053  31.332  10.124  0.3071 -0.1314  0.1633
66097DBGS    C326973  27.275  31.416   9.941 -0.1261  0.1196 -0.2577
66097DBGS   AM126974  26.971  31.793   9.629  0.1960  0.0479  0.2712
66097DBGS   AM226975  26.808  31.590   9.683 -0.0130 -0.0499  0.0774
66097DBGS   T1A26976  26.978  31.903   9.355  0.3116  0.1682 -0.3953
66097DBGS   C2A26977  27.015  31.818   8.944  0.1254 -0.2199 -0.1296
66097DBGS   C3A26978  27.130  31.860   8.481  0.0190  0.0237  0.1829
66097DBGS   C4A26979  27.060  32.217   8.179 -0.3304  0.0412 -0.4095
66097DBGS   C5A26980  27.081  32.488   7.901  0.1477 -0.1684 -0.1077
66097DBGS   C1B26981  26.588  31.433   9.463 -0.0230  0.2251  0.0410
66097DBGS   C2B26982  26.582  31.427   9.008 -0.3548  0.0482 -0.1772
66097DBGS   C3B26983  26.517  31.350   8.573 -0.1180  0.0708 -0.1645
66097DBGS   C4B26984  26.406  31.128   8.239  0.1303 -0.1820 -0.0037
66097DBGS   C5B26985  26.145  31.050   7.874 -0.1171  0.0593 -0.1735
66098DBGS    C126986  26.213  23.094   6.677 -0.0273 -0.2039 -0.1314
66098DBGS    C226987  26.506  23.092   6.744 -0.0474  0.2875 -0.0128
66098DBGS    C326988  26.307  22.972   6.935  0.0775 -0.0956 -0.1182
66098DBGS   AM126989  25.736  22.920   6.825 -0.0296 -0.0096  0.0192
66098DBGS   AM226990  25.694  23.161   6.907 -0.1872  0.0568  0.1271
66098DBGS   T1A26991  25.627  22.835   6.574  0.3058  0.1707  0.1550
66098DBGS   C2A26992  25.209  22.963   6.299 -0.0436 -0.0359 -0.2354
66098DBGS   C3A26993  24.785  23.127   6.176 -0.2929  0.1718  0.1591
66098DBGS   C4A26994  24.329  23.203   6.250  0.1248  0.1176  0.1045
66098DBGS   C5A26995  24.170  23.150   6.690 -0.0318  0.2977 -0.1958
66098DBGS   C1B26996  25.415  23.367   6.734  0.0907  0.1283 -0.1095
66098DBGS   C2B26997  24.993  23.327   6.557 -0.0300  0.0818  0.1959
66098DBGS   C3B26998  24.618  23.302   6.594 -0.0296  0.3139  0.1382
66098DBGS   C4B26999  24.291  23.572   6.553  0.1070  0.0528  0.1802
66098DBGS   C5B27000  23.981  23.597   6.525 -0.0553  0.2539  0.0413
66099DBGS    C127001  24.410  21.807  10.881 -0.1490 -0.0915 -0.2100
66099DBGS    C227002  24.416  21.513  10.937  0.0055 -0.0979 -0.2612
66099DBGS    C327003  24.272  21.697  11.124  0.2477 -0.1581 -0.0107
66099DBGS   AM127004  23.990  21.707  10.625 -0.1774  0.0590 -0.2446
66099DBGS   AM227005  23.997  21.974  10.695  0.1312 -0.0048  0.5632
66099DBGS   T1A27006  23.794  21.565  10.505 -0.0728  0.0029 -0.1128
66099DBGS   C2A27007  23.351  21.678  10.397  0.1611 -0.1764 -0.0966
66099DBGS   C3A27008  23.020  21.743  10.310 -0.0845  0.1130  0.0425
66099DBGS   C4A27009  22.656  21.824  10.115 -0.1371 -0.0920  0.0149
66099DBGS   C5A27010  22.411  21.838   9.708  0.0627  0.1164 -0.0390
66099DBGS   C1B27011  23.716  22.227  10.703 -0.0058  0.1367  0.1534
66099DBGS   C2B27012  23.351  22.172  10.521  0.1287 -0.1134  0.1099
66099DBGS   C3B27013  22.956  22.157  10.597  0.1070 -0.1661 -0.0555
66099DBGS   C4B27014  22.569  22.368  10.482 -0.1414  0.0499 -0.0462
66099DBGS   C5B27015  22.257  22.181  10.188 -0.2568  0.0830  0.1324
66100DBGS    C127016   0.381   4.469  12.366 -0.1510 -0.0519  0.0392
66100DBGS    C227017   0.301   4.747  12.445 -0.0353 -0.0208  0.0467
66100DBGS    C327018   0.583   4.654  12.487 -0.1413 -0.2313  0.2994
66100DBGS   AM127019   0.448   4.664  11.925  0.0815  0.0548 -0.0548
66100DBGS   AM227020   0.657   4.467  11.917 -0.3134  0.2759 -0.3188
66100DBGS   T1A27021   0.291   4.786  11.719 -0.2936 -0.0059 -0.2875
66100DBGS   C2A27022   0.152   4.693  11.361 -0.0818  0.2959 -0.3400
66100DBGS   C3A27023   0.144   4.446  11.044  0.0504  0.1491 -0.1554
66100DBGS   C4A27024   0.373   4.426  10.627  0.0243 -0.1310 -0.0275
66100DBGS   C5A27025   0.577   4.607  10.275 -0.1254  0.0238 -0.1875
66100DBGS   C1B27026   0.802   4.263  11.638 -0.1748  0.0926 -0.1563
66100DBGS   C2B27027   0.790   3.950  11.312  0.0758  0.0259  0.1361
66100DBGS   C3B27028   0.788   3.623  11.023 -0.1508 -0.0009  0.3808
66100DBGS   C4B27029   0.698   3.192  10.809 -0.0699  0.0601 -0.3060
66100DBGS   C5B27030   0.651   2.772  10.767  0.4654  0.3225 -0.0866
66101DBGS    C127031  17.180  12.418  18.211 -0.1827 -0.0512 -0.0630
66101DBGS    C227032  17.366  12.183  18.231 -0.1814 -0.0435  0.0137
66101DBGS    C327033  17.076  12.140  18.167 -0.1848 -0.0678  0.0443
66101DBGS   AM127034  16.991  12.525  17.784  0.2657 -0.2328 -0.0016
66101DBGS   AM227035  16.865  12.734  17.921  0.0742 -0.0102 -0.1524
66101DBGS   T1A27036  16.866  12.496  17.522 -0.0716 -0.0178  0.0648
66101DBGS   C2A27037  16.678  12.216  17.150  0.1553 -0.1797  0.0774
66101DBGS   C3A27038  16.760  11.830  16.960  0.0287  0.0534  0.1579
66101DBGS   C4A27039  16.534  11.567  17.207  0.1941 -0.1630  0.2386
66101DBGS   C5A27040  16.546  11.471  17.665  0.2095  0.3907  0.0712
66101DBGS   C1B27041  16.585  12.959  17.874 -0.0451  0.0078 -0.0701
66101DBGS   C2B27042  16.347  13.010  17.524  0.0532 -0.0969  0.2640
66101DBGS   C3B27043  15.979  13.087  17.394 -0.2399  0.2196  0.0386
66101DBGS   C4B27044  15.848  12.847  16.961 -0.2005  0.1507 -0.1550
66101DBGS   C5B27045  15.669  12.532  16.671  0.1566 -0.2495 -0.1643
66102DBGS    C127046  33.457  34.898  12.963 -0.1853  0.0928  0.2130
66102DBGS    C227047  33.586  34.842  13.228 -0.0488  0.0277  0.1330
66102DBGS    C327048  33.500  35.121  13.160  0.1757  0.0985  0.1329
66102DBGS   AM127049  33.540  35.230  12.593 -0.0457  0.2439 -0.1049
66102DBGS   AM227050  33.791  35.118  12.661 -0.0787 -0.2707 -0.1457
66102DBGS   T1A27051  33.438  35.323  12.338  0.1311  0.4239 -0.2555
66102DBGS   C2A27052  33.448  35.292  11.991  0.1500  0.1615  0.1922
66102DBGS   C3A27053  33.686  35.220  11.608 -0.0588 -0.3432  0.3581
66102DBGS   C4A27054  33.906  34.910  11.326  0.0025  0.0332 -0.0258
66102DBGS   C5A27055  34.040  34.516  11.190  0.3966  0.1460 -0.0968
66102DBGS   C1B27056  34.117  35.304  12.658  0.1119 -0.1364  0.0880
66102DBGS   C2B27057  34.356  35.094  12.381  0.1094  0.1656 -0.0742
66102DBGS   C3B27058  34.551  35.009  12.023 -0.0736  0.0718  0.0893
66102DBGS   C4B27059  34.769  34.914  11.654 -0.1200  0.0967  0.1015
66102DBGS   C5B27060  35.169  34.884  11.735 -0.4061  0.1640 -0.2689
66103DBGS    C127061  25.032  13.295   7.785 -0.0337  0.4124 -0.3834
66103DBGS    C227062  25.256  13.486   7.730  0.3169  0.0052 -0.3895
66103DBGS    C327063  25.316  13.207   7.824 -0.2107  0.1186  0.3215
66103DBGS   AM127064  24.984  12.912   7.487  0.1445 -0.2545  0.0946
66103DBGS   AM227065  25.025  12.769   7.702 -0.0691 -0.0131  0.0226
66103DBGS   T1A27066  24.730  12.918   7.383 -0.1170  0.2515 -0.0751
66103DBGS   C2A27067  24.298  12.878   7.421 -0.2280 -0.2763  0.0421
66103DBGS   C3A27068  23.926  12.656   7.153  0.0207 -0.3908  0.0217
66103DBGS   C4A27069  23.786  12.607   6.803  0.0885  0.1493  0.2073
66103DBGS   C5A27070  23.569  12.737   6.430  0.4576  0.2905  0.0922
66103DBGS   C1B27071  24.777  12.521   7.801  0.0970  0.1479 -0.0807
66103DBGS   C2B27072  24.358  12.474   7.732  0.1525 -0.1342  0.2277
66103DBGS   C3B27073  23.931  12.322   7.594  0.0300  0.1505 -0.1874
66103DBGS   C4B27074  23.753  12.077   7.215 -0.1799  0.2832 -0.0368
66103DBGS   C5B27075  23.451  11.787   6.993  0.2897 -0.0161  0.1175
66104DBGS    C127076  19.776  28.968  15.781  0.2475  0.1528  0.1205
66104DBGS    C227077  19.698  28.722  15.629 -0.0409  0.2449  0.1158
66104DBGS    C327078  19.868  28.932  15.498 -0.3358  0.3512 -0.1022
66104DBGS   AM127079  19.324  29.052  15.583 -0.0659 -0.2720 -0.1425
66104DBGS   AM227080  19.306  28.940  15.830  0.3331  0.3731 -0.2371
66104DBGS   T1A27081  19.086  29.026  15.412  0.1063  0.1287  0.3385
66104DBGS   C2A27082  18.722  28.963  15.315 -0.2143  0.1038 -0.0065
66104DBGS   C3A27083  18.371  28.838  15.173 -0.3639 -0.0604  0.3736
66104DBGS   C4A27084  18.147  28.578  14.791  0.2210 -0.1758  0.4481
66104DBGS   C5A27085  17.999  28.253  14.539  0.1917  0.2231 -0.1625
66104DBGS   C1B27086  19.052  28.698  15.840  0.1953 -0.0788  0.0083
66104DBGS   C2B27087  18.747  28.587  15.727  0.2475 -0.1627 -0.2792
66104DBGS   C3B27088  18.376  28.426  15.649  0.1317  0.0030  0.1124
66104DBGS   C4B27089  17.960  28.485  15.534  0.0305 -0.4229  0.0736
66104DBGS   C5B27090  17.572  28.336  15.460  0.0272  0.2555 -0.1843
66105DBGS    C127091  23.490  17.265  12.026  0.0814  0.0290 -0.1502
66105DBGS    C227092  23.550  17.084  11.795  0.2167 -0.0862 -0.0266
66105DBGS    C327093  23.486  17.373  11.747 -0.0585 -0.1782 -0.2295
66105DBGS   AM127094  23.048  17.049  11.883 -0.1798  0.1312  0.1086
66105DBGS   AM227095  23.103  16.811  11.971  0.0683  0.0312  0.0382
66105DBGS   T1A27096  22.799  17.028  11.699 -0.2298 -0.0331  0.0141
66105DBGS   C2A27097  22.385  17.037  11.505 -0.3365 -0.0428  0.1391
66105DBGS   C3A27098  22.212  17.318  11.192 -0.1100 -0.3278  0.0884
66105DBGS   C4A27099  22.408  17.665  11.006  0.1764 -0.0533  0.2257
66105DBGS   C5A27100  22.273  17.776  10.637  0.2144 -0.1648  0.1914
66105DBGS   C1B27101  22.984  16.525  11.786 -0.3262  0.1669  0.0577
66105DBGS   C2B27102  22.558  16.534  11.492 -0.0497 -0.0343  0.1294
66105DBGS   C3B27103  22.058  16.696  11.528  0.1178  0.2683 -0.0705
66105DBGS   C4B27104  21.806  17.018  11.324 -0.5478  0.2586 -0.1515
66105DBGS   C5B27105  21.751  17.216  11.037  0.3267  0.0486 -0.2008
66106DBGS    C127106  28.377   9.526   6.507  0.3893  0.0457 -0.1336
66106DBGS    C227107  28.218   9.603   6.749  0.2443 -0.0178 -0.2084
66106DBGS    C327108  28.331   9.326   6.725  0.3783  0.0311 -0.1492
66106DBGS   AM127109  28.090   9.269   6.213 -0.1737  0.1280 -0.0337
66106DBGS   AM227110  27.932   9.282   6.419  0.0846 -0.2260  0.3854
66106DBGS   T1A27111  28.114   9.101   5.985 -0.4615  0.1358  0.0162
66106DBGS   C2A27112  28.050   8.863   5.542 -0.1256 -0.1890  0.0663
66106DBGS   C3A27113  27.775   8.762   5.200 -0.3721  0.2305  0.0629
66106DBGS   C4A27114  27.829   8.522   4.874  0.1834 -0.0873 -0.0350
66106DBGS   C5A27115  28.124   8.117   4.744  0.0332 -0.1270  0.0313
66106DBGS   C1B27116  27.564   9.293   6.414 -0.0997 -0.1700 -0.1719
66106DBGS   C2B27117  27.373   9.056   6.040  0.1285 -0.0548 -0.2468
66106DBGS   C3B27118  27.162   8.862   5.739  0.0797 -0.0957  0.2379
66106DBGS   C4B27119  26.892   8.730   5.553 -0.1439 -0.0552  0.1219
66106DBGS   C5B27120  26.775   8.392   5.241  0.1952 -0.0793  0.0242
66107DBGS    C127121  28.953  11.486   5.085  0.0674  0.0760  0.1308
66107DBGS    C227122  29.167  11.632   5.235  0.0270  0.3271 -0.0536
66107DBGS    C327123  28.933  11.783   5.122  0.0423  0.1370 -0.3420
66107DBGS   AM127124  29.004  11.577   4.598 -0.0249 -0.2532 -0.0483
66107DBGS   AM227125  29.239  11.507   4.705 -0.0201  0.0003  0.0209
66107DBGS   T1A27126  28.872  11.604   4.331 -0.0489 -0.1197 -0.2437
66107DBGS   C2A27127  28.961  11.664   3.919  0.0589 -0.3089 -0.2341
66107DBGS   C3A27128  28.813  11.424   3.530 -0.2257  0.0372  0.1305
66107DBGS   C4A27129  28.717  11.678   3.227 -0.0973  0.1318 -0.0225
66107DBGS   C5A27130  28.815  11.781   2.749  0.3574 -0.0177 -0.0859
66107DBGS   C1B27131  29.434  11.216   4.596  0.0935  0.0451  0.0137
66107DBGS   C2B27132  29.526  11.012   4.227  0.1847  0.2126 -0.1305
66107DBGS   C3B27133  29.629  11.160   3.812  0.0622 -0.1594  0.1013
66107DBGS   C4B27134  29.871  11.027   3.290 -0.0901 -0.4683 -0.4044
66107DBGS   C5B27135  29.765  10.874   2.884 -0.1276 -0.0688  0.2352
66108DBGS    C127136  12.945  14.606  18.477 -0.1839 -0.2185  0.0803
66108DBGS    C227137  13.093  14.464  18.697  0.0485 -0.1462 -0.0280
66108DBGS    C327138  13.129  14.760  18.658  0.0051 -0.1581 -0.1611
66108DBGS   AM127139  13.234  14.763  18.102 -0.0191 -0.3000 -0.0362
66108DBGS   AM227140  13.350  14.539  18.146 -0.2201  0.0645 -0.2476
66108DBGS   T1A27141  13.270  15.002  17.907 -0.1383  0.2823  0.0014
66108DBGS   C2A27142  13.347  15.195  17.472 -0.0269 -0.0174  0.4429
66108DBGS   C3A27143  13.389  15.525  17.202  0.1366  0.2151 -0.2006
66108DBGS   C4A27144  13.340  15.736  16.804  0.0839  0.1872  0.0473
66108DBGS   C5A27145  13.025  15.833  16.671  0.2805  0.0483 -0.0815
66108DBGS   C1B27146  13.644  14.351  18.011  0.1897 -0.2144  0.2310
66108DBGS   C2B27147  13.841  14.368  17.761  0.2170 -0.0023 -0.0149
66108DBGS   C3B27148  13.805  14.441  17.305 -0.2301  0.2839 -0.1757
66108DBGS   C4B27149  13.947  14.793  17.052 -0.0575 -0.3496 -0.2086
66108DBGS   C5B27150  13.838  14.888  16.576 -0.0851 -0.0997  0.0542
66109DBGS    C127151  25.805  23.069   7.539  0.1711 -0.4150  0.0999
66109DBGS    C227152  26.061  23.218   7.490 -0.0800 -0.0115  0.0007
66109DBGS    C327153  25.985  22.988   7.313  0.2038 -0.1206  0.0189
66109DBGS   AM127154  25.419  22.949   7.252 -0.1440 -0.0256 -0.1446
66109DBGS   AM227155  25.384  22.715   7.397 -0.0803  0.2017 -0.2353
66109DBGS   T1A27156  25.168  23.118   7.279 -0.0172 -0.0061 -0.3631
66109DBGS   C2A27157  24.799  23.268   7.048  0.1237  0.4408 -0.3330
66109DBGS   C3A27158  24.427  23.583   7.093 -0.0653 -0.1669 -0.1071
66109DBGS   C4A27159  24.152  23.896   6.976 -0.0666  0.1408  0.1729
66109DBGS   C5A27160  24.015  24.380   7.154  0.0462  0.3422  0.0526
66109DBGS   C1B27161  25.095  22.527   7.288  0.0524 -0.0695  0.0218
66109DBGS   C2B27162  24.706  22.395   7.130  0.1345  0.0417  0.0546
66109DBGS   C3B27163  24.344  22.248   6.901  0.1025 -0.0328 -0.0293
66109DBGS   C4B27164  24.095  22.312   6.556 -0.1109 -0.0397  0.0592
66109DBGS   C5B27165  23.715  22.384   6.399  0.2220 -0.1416 -0.0534
66110DBGS    C127166  30.878  17.924   4.363  0.1960 -0.0666  0.0205
66110DBGS    C227167  30.582  17.964   4.388  0.2461  0.2331  0.1590
66110DBGS    C327168  30.730  17.812   4.599  0.1870  0.0575  0.0745
66110DBGS   AM127169  30.840  17.514   4.122 -0.0569  0.1466 -0.2350
66110DBGS   AM227170  30.586  17.615   4.040 -0.1826  0.0829  0.4449
66110DBGS   T1A27171  31.045  17.575   3.923 -0.1943  0.1343 -0.1322
66110DBGS   C2A27172  31.161  17.469   3.500  0.1287  0.1307  0.0252
66110DBGS   C3A27173  31.219  17.378   3.109 -0.2497  0.1221  0.3386
66110DBGS   C4A27174  31.332  17.266   2.714 -0.1169  0.0853  0.1633
66110DBGS   C5A27175  31.474  16.914   2.478 -0.0325 -0.1178  0.0505
66110DBGS   C1B27176  30.438  17.666   3.721  0.0314 -0.0586  0.3672
66110DBGS   C2B27177  30.549  17.501   3.383 -0.3732 -0.1939 -0.1143
66110DBGS   C3B27178  30.745  17.346   2.926 -0.2509 -0.2270  0.1050
66110DBGS   C4B27179  30.806  17.208   2.647  0.0779  0.1458 -0.1550
66110DBGS   C5B27180  30.982  17.021   2.357  0.0447  0.1345  0.1782
66111DBGS    C127181  10.954  13.028  18.168  0.2013 -0.1018  0.0733
66111DBGS    C227182  10.903  12.735  18.206  0.0462 -0.1085 -0.1774
66111DBGS    C327183  10.785  12.933  18.397  0.1763 -0.2109  0.0100
66111DBGS   AM127184  10.645  12.912  17.826  0.4005 -0.0763  0.2136
66111DBGS   AM227185  10.640  13.180  17.782  0.1881  0.2231 -0.0383
66111DBGS   T1A27186  10.824  12.730  17.648  0.1887 -0.0172  0.1502
66111DBGS   C2A27187  10.869  12.498  17.329  0.0006  0.0379 -0.1383
66111DBGS   C3A27188  10.982  12.460  16.874  0.1182 -0.1022 -0.5610
66111DBGS   C4A27189  11.147  12.284  16.397 -0.1319 -0.1819  0.1100
66111DBGS   C5A27190  10.825  12.124  16.019  0.0142  0.2238  0.0427
66111DBGS   C1B27191  10.736  13.288  17.408 -0.0498  0.0050 -0.0588
66111DBGS   C2B27192  10.788  13.283  16.966  0.1053  0.0465 -0.0898
66111DBGS   C3B27193  10.892  13.330  16.492  0.2459 -0.1262  0.0365
66111DBGS   C4B27194  11.121  13.096  16.113  0.1079  0.3696  0.1908
66111DBGS   C5B27195  11.150  12.668  16.081 -0.2297 -0.4928  0.4537
66112DBGS    C127196  34.926  16.903   6.441 -0.1806  0.0824  0.1654
66112DBGS    C227197  35.074  16.724   6.631 -0.2045  0.1015  0.2015
66112DBGS    C327198  34.853  16.613   6.461  0.1839 -0.0417 -0.2202
66112DBGS   AM127199  35.280  16.749   6.126 -0.1562  0.0318 -0.2366
66112DBGS   AM227200  35.145  16.904   5.931 -0.2031  0.1714  0.0832
66112DBGS   T1A27201   0.145  16.631   6.046 -0.1348  0.2067  0.1370
66112DBGS   C2A27202   0.527  16.622   5.680 -0.0226 -0.0113  0.0488
66112DBGS   C3A27203   0.873  16.742   5.408 -0.1807 -0.2426  0.0987
66112DBGS   C4A27204   1.321  16.882   5.419  0.0127  0.4190 -0.1243
66112DBGS   C5A27205   1.718  16.846   5.284 -0.1962 -0.3423  0.0148
66112DBGS   C1B27206  35.278  16.918   5.597 -0.1778 -0.0126  0.3041
66112DBGS   C2B27207   0.040  17.093   5.204 -0.1402 -0.0464 -0.5274
66112DBGS   C3B27208   0.270  17.125   4.782 -0.0636  0.1853  0.1809
66112DBGS   C4B27209   0.692  16.976   4.609 -0.1369  0.2425  0.4376
66112DBGS   C5B27210   0.610  16.643   4.474  0.1194 -0.1244  0.5388
66113DBGS    C127211  25.319  23.161   7.734 -0.0420 -0.0150 -0.0476
66113DBGS    C227212  25.462  23.279   7.970 -0.1637  0.0003  0.0185
66113DBGS    C327213  25.433  22.981   7.944 -0.0032 -0.0088 -0.0632
66113DBGS   AM127214  24.896  23.177   8.021  0.2230  0.2249 -0.0105
66113DBGS   AM227215  25.000  23.406   8.094 -0.2558 -0.0823 -0.0893
66113DBGS   T1A27216  24.635  23.043   7.972  0.0949 -0.1438 -0.0385
66113DBGS   C2A27217  24.193  23.087   7.823  0.2022  0.1768  0.0972
66113DBGS   C3A27218  23.769  23.013   7.589 -0.3022  0.0262  0.2302
66113DBGS   C4A27219  23.444  23.163   7.286 -0.0501  0.2553  0.0344
66113DBGS   C5A27220  23.360  22.943   6.999 -0.0380  0.3051  0.1196
66113DBGS   C1B27221  24.805  23.702   8.019  0.0500 -0.0609  0.1863
66113DBGS   C2B27222  24.387  23.752   7.781  0.0069 -0.3037  0.0803
66113DBGS   C3B27223  24.010  23.911   7.559  0.2261 -0.2702 -0.0904
66113DBGS   C4B27224  23.698  24.149   7.584 -0.1987 -0.2234  0.0976
66113DBGS   C5B27225  23.460  24.342   7.268  0.1782  0.0633 -0.2235
66114DBGS    C127226  30.032  14.516   4.585  0.2098  0.1587 -0.1493
66114DBGS    C227227  29.856  14.734   4.691 -0.0134 -0.1467  0.1189
66114DBGS    C327228  30.152  14.776   4.674 -0.0585  0.1926  0.1265
66114DBGS   AM127229  30.120  14.644   4.121  0.0280  0.0249  0.0168
66114DBGS   AM227230  30.018  14.394   4.114 -0.2653 -0.0140  0.1113
66114DBGS   T1A27231  30.269  14.696   3.865  0.1231  0.0567  0.0919
66114DBGS   C2A27232  30.407  14.484   3.495 -0.1625 -0.4218  0.0160
66114DBGS   C3A27233  30.565  14.364   3.123 -0.0838 -0.0653 -0.1936
66114DBGS   C4A27234  30.399  14.521   2.782  0.3377  0.0813  0.1802
66114DBGS   C5A27235  30.170  14.567   2.350  0.2396 -0.0063 -0.1362
66114DBGS   C1B27236  30.054  14.108   3.884  0.0661 -0.2956 -0.2248
66114DBGS   C2B27237  30.128  14.028   3.510  0.0920  0.0787  0.1638
66114DBGS   C3B27238  30.055  13.938   3.091  0.0613 -0.3258 -0.0300
66114DBGS   C4B27239  30.268  14.017   2.712 -0.1151  0.3061 -0.0547
66114DBGS   C5B27240  30.606  14.179   2.487 -0.1598  0.0469  0.0039
66115DBGS    C127241  11.352  16.868  18.690  0.0108  0.2075  0.0085
66115DBGS    C227242  11.435  16.973  18.958 -0.3878  0.0401  0.2032
66115DBGS    C327243  11.377  16.681  18.923  0.0797 -0.0139 -0.1742
66115DBGS   AM127244  11.720  16.595  18.505  0.4262  0.0032 -0.2753
66115DBGS   AM227245  11.564  16.494  18.353  0.2992  0.0119  0.1198
66115DBGS   T1A27246  11.848  16.836  18.461  0.0254 -0.0095 -0.1078
66115DBGS   C2A27247  11.888  17.054  18.147  0.0880  0.1701  0.0598
66115DBGS   C3A27248  12.085  17.391  17.911 -0.2826 -0.2560 -0.0038
66115DBGS   C4A27249  12.216  17.576  17.629  0.3312 -0.1536  0.0587
66115DBGS   C5A27250  12.367  17.560  17.156 -0.0414 -0.0957 -0.5609
66115DBGS   C1B27251  11.613  16.608  17.993  0.2814 -0.3994 -0.0746
66115DBGS   C2B27252  11.773  16.803  17.660  0.0863 -0.0539  0.3434
66115DBGS   C3B27253  11.726  16.973  17.202  0.1311 -0.0912  0.1472
66115DBGS   C4B27254  11.459  16.932  16.906 -0.0118 -0.4307  0.0519
66115DBGS   C5B27255  11.301  17.227  16.694  0.0048  0.0524  0.0155
66116DBGS    C127256  20.951  18.529  15.725 -0.1691 -0.0647  0.1474
66116DBGS    C227257  21.082  18.269  15.653 -0.1335  0.0524 -0.2198
66116DBGS    C327258  21.239  18.524  15.643 -0.0737  0.0512  0.4713
66116DBGS   AM127259  20.880  18.602  15.234  0.2065 -0.1064  0.1822
66116DBGS   AM227260  21.027  18.384  15.130  0.0881 -0.0363  0.0800
66116DBGS   T1A27261  20.638  18.738  15.154  0.4377 -0.1076  0.0490
66116DBGS   C2A27262  20.289  18.723  14.905 -0.2719 -0.0079  0.3203
66116DBGS   C3A27263  19.934  18.774  14.700  0.1237  0.1642 -0.1142
66116DBGS   C4A27264  19.757  18.657  14.329  0.2167  0.1450  0.1455
66116DBGS   C5A27265  19.645  18.755  13.886 -0.0153 -0.1272  0.3018
66116DBGS   C1B27266  20.966  18.115  14.861  0.3900 -0.0531  0.1009
66116DBGS   C2B27267  20.672  18.011  14.466 -0.0039  0.0178 -0.0107
66116DBGS   C3B27268  20.476  18.089  14.105 -0.1266  0.1383 -0.3409
66116DBGS   C4B27269  20.224  18.074  13.727 -0.0539 -0.1328 -0.0101
66116DBGS   C5B27270  20.067  18.163  13.261 -0.3623 -0.1952 -0.2285
66117DBGS    C127271  25.995  19.996   5.671 -0.1634 -0.1781  0.1440
66117DBGS    C227272  25.847  19.793   5.508 -0.2226 -0.0452  0.0307
66117DBGS    C327273  25.790  19.820   5.801 -0.2338 -0.1732  0.0408
66117DBGS   AM127274  25.639  20.216   5.396 -0.0173 -0.1266  0.3249
66117DBGS   AM227275  25.676  20.386   5.620  0.0048  0.0432 -0.1314
66117DBGS   T1A27276  25.405  20.258   5.249 -0.1860  0.3489  0.0531
66117DBGS   C2A27277  25.018  20.481   5.138  0.0310  0.0432 -0.1880
66117DBGS   C3A27278  24.861  20.707   4.878  0.4096 -0.0500  0.2534
66117DBGS   C4A27279  24.596  21.072   4.793 -0.0360  0.4109 -0.5136
66117DBGS   C5A27280  24.643  21.384   4.517  0.3069  0.0369 -0.1768
66117DBGS   C1B27281  25.414  20.615   5.724  0.2787 -0.0139  0.1158
66117DBGS   C2B27282  25.091  20.830   5.871 -0.1746  0.1661 -0.0133
66117DBGS   C3B27283  24.637  21.016   5.889  0.0186 -0.2906  0.3002
66117DBGS   C4B27284  24.202  21.179   5.965  0.0874  0.1638  0.0104
66117DBGS   C5B27285  23.933  21.563   5.931 -0.1625 -0.1478 -0.3526
66118DBGS    C127286  21.200  13.646  14.513  0.2914 -0.1253 -0.1696
66118DBGS    C227287  21.442  13.811  14.576  0.0825  0.0355  0.2293
66118DBGS    C327288  21.271  13.879  14.339  0.2212  0.1450  0.1598
66118DBGS   AM127289  20.999  13.434  14.108 -0.2922  0.1335  0.0750
66118DBGS   AM227290  21.091  13.220  14.242 -0.5241 -0.2382 -0.1728
66118DBGS   T1A27291  20.845  13.452  13.858 -0.0040  0.0058 -0.2419
66118DBGS   C2A27292  20.523  13.358  13.662  0.3699 -0.0544  0.2647
66118DBGS   C3A27293  20.057  13.279  13.634 -0.0678  0.0623 -0.0042
66118DBGS   C4A27294  19.729  13.104  13.398 -0.2490 -0.1575  0.1536
66118DBGS   C5A27295  19.518  12.951  13.004  0.0395 -0.0150  0.0322
66118DBGS   C1B27296  20.876  12.927  14.233 -0.1762  0.2144  0.0150
66118DBGS   C2B27297  20.424  12.943  13.961  0.1521 -0.0738 -0.2223
66118DBGS   C3B27298  19.945  12.880  14.022  0.0848  0.1298  0.0939
66118DBGS   C4B27299  19.662  13.072  14.235  0.0982  0.0623  0.1032
66118DBGS   C5B27300  19.369  13.135  14.638  0.0337  0.1524  0.2279
66119PNGS    C127301  22.768  17.126  12.636  0.0062 -0.0986  0.2015
66119PNGS    C227302  23.000  17.037  12.467  0.0293  0.2264  0.0581
66119PNGS    C327303  23.011  17.300  12.610 -0.2626  0.2575  0.0273
66119PNGS   AM127304  22.655  17.216  12.177  0.1062  0.0510 -0.2038
66119PNGS   AM227305  22.609  16.947  12.169  0.0108  0.1906 -0.0050
66119PNGS   T1A27306  22.510  17.389  12.004 -0.0529  0.1535  0.1331
66119PNGS   C2A27307  22.352  17.552  11.649  0.1393  0.0945  0.0303
66119PNGS   C3A27308  22.263  17.793  11.437  0.0798  0.2603 -0.0505
66119PNGS   C4A27309  21.921  17.681  11.018  0.2194 -0.3442 -0.1392
66119PNGS   C1B27310  22.508  16.695  11.949  0.3399  0.1458 -0.2848
66119PNGS   C2B27311  22.220  16.347  11.864  0.0607 -0.0021 -0.1067
66119PNGS   C3B27312  21.792  16.274  11.895  0.1090 -0.1701 -0.1701
66119PNGS   D4B27313  21.544  16.034  11.660  0.2169 -0.0464  0.3776
66119PNGS   C5B27314  21.267  16.014  11.341 -0.1491 -0.1353  0.0681
66119PNGS   C6B27315  21.014  16.238  11.306  0.4154 -0.0376 -0.1455
66120PNGS    C127316  25.376  23.740   8.053 -0.3303 -0.2988 -0.0905
66120PNGS    C227317  25.297  23.874   8.309  0.1277 -0.0794 -0.0595
66120PNGS    C327318  25.228  24.002   8.047  0.0837 -0.0589 -0.0382
66120PNGS   AM127319  25.143  23.602   7.628  0.2369  0.1502 -0.3366
66120PNGS   AM227320  25.132  23.865   7.580  0.1219  0.0338  0.1461
66120PNGS   T1A27321  24.916  23.409   7.567  0.1595  0.1125 -0.1455
66120PNGS   C2A27322  24.545  23.405   7.510 -0.0928  0.0464  0.1231
66120PNGS   C3A27323  24.109  23.438   7.415 -0.1578  0.0735 -0.2865
66120PNGS   C4A27324  23.940  23.470   7.031 -0.0877  0.1001 -0.0507
66120PNGS   C1B27325  24.814  24.038   7.523  0.3196 -0.3130 -0.1587
66120PNGS   C2B27326  24.498  24.152   7.271  0.1328 -0.2566 -0.0764
66120PNGS   C3B27327  24.411  24.320   6.839 -0.0030  0.1150 -0.2286
66120PNGS   D4B27328  23.977  24.463   6.689 -0.0105  0.0058 -0.0346
66120PNGS   C5B27329  23.799  24.766   6.521  0.0832 -0.0656 -0.1540
66120PNGS   C6B27330  23.702  25.066   6.288  0.1394  0.1691 -0.1282
66121PNGS    C127331  27.962  34.382  10.325  0.0320 -0.0503  0.0245
66121PNGS    C227332  28.192  34.194  10.363  0.0612 -0.0038  0.0820
66121PNGS    C327333  27.918  34.118  10.460  0.0559 -0.0511  0.0311
66121PNGS   AM127334  28.058  34.135   9.900 -0.1992 -0.1855  0.3325
66121PNGS   AM227335  27.833  34.231   9.821 -0.1871  0.1384  0.0131
66121PNGS   T1A27336  28.191  33.969   9.697  0.0852  0.2134 -0.1624
66121PNGS   C2A27337  28.230  34.060   9.349  0.2328  0.1059 -0.0162
66121PNGS   C3A27338  28.244  34.165   8.872  0.0698  0.3386 -0.0085
66121PNGS   C4A27339  28.527  34.156   8.502 -0.0264  0.1899 -0.1016
66121PNGS   C1B27340  27.779  34.274   9.483  0.1190  0.2458 -0.0931
66121PNGS   C2B27341  27.828  34.370   9.093  0.2209 -0.0771 -0.2206
66121PNGS   C3B27342  27.711  34.399   8.683 -0.3107 -0.2405  0.2429
66121PNGS   D4B27343  28.140  34.484   8.457  0.0095 -0.0499 -0.1127
66121PNGS   C5B27344  28.261  34.418   8.063  0.2911 -0.1303 -0.3632
66121PNGS   C6B27345  28.485  34.524   7.776 -0.1906 -0.1418  0.0755
66122PNGS    C127346   0.602   5.618  12.141  0.2635  0.0803 -0.0630
66122PNGS    C227347   0.506   5.900  12.176 -0.0093  0.0016 -0.1671
66122PNGS    C327348   0.787   5.827  12.253 -0.0206  0.2413  0.1114
66122PNGS   AM127349   0.926   5.566  11.764 -0.0167 -0.0146 -0.0460
66122PNGS   AM227350   0.998   5.363  11.954  0.1806  0.0272 -0.0372
66122PNGS   T1A27351   0.822   5.461  11.508 -0.2214  0.0987  0.0962
66122PNGS   C2A27352   0.825   5.247  11.160 -0.1201  0.0970 -0.1046
66122PNGS   C3A27353   1.032   5.222  10.720 -0.2928 -0.0718  0.0972
66122PNGS   C4A27354   1.341   5.113  10.605 -0.2555  0.0148  0.2283
66122PNGS   C1B27355   1.353   5.254  11.961 -0.0698 -0.1766  0.0657
66122PNGS   C2B27356   1.639   4.994  11.609 -0.0134 -0.3018  0.2406
66122PNGS   C3B27357   1.809   4.748  11.409  0.0243  0.0798 -0.1279
66122PNGS   D4B27358   1.741   4.390  11.156  0.3313 -0.1606  0.1779
66122PNGS   C5B27359   1.972   4.181  10.824  0.0885  0.0813  0.3394
66122PNGS   C6B27360   2.221   3.963  10.487  0.0470  0.1378 -0.1699
66123PNGS    C127361   2.895  30.220  18.212  0.4446 -0.1102 -0.1334
66123PNGS    C227362   2.918  30.020  18.435  0.1429  0.0376  0.0336
66123PNGS    C327363   2.994  30.306  18.482 -0.0377  0.0949 -0.0151
66123PNGS   AM127364   3.320  30.098  18.056 -0.0295  0.1355 -0.3125
66123PNGS   AM227365   3.287  29.809  18.073 -0.3645  0.0423  0.0275
66123PNGS   T1A27366   3.450  30.148  17.799  0.2476  0.0646  0.1441
66123PNGS   C2A27367   3.815  30.232  17.552 -0.1586 -0.0079  0.1859
66123PNGS   C3A27368   4.090  30.162  17.278 -0.1588 -0.1168  0.3871
66123PNGS   C4A27369   4.544  30.124  17.177  0.2887  0.0245  0.1176
66123PNGS   C1B27370   3.362  29.586  17.796 -0.0962 -0.0287 -0.2818
66123PNGS   C2B27371   3.636  29.762  17.569  0.3063 -0.3298  0.0354
66123PNGS   C3B27372   3.892  29.702  17.258  0.1010 -0.2337  0.0654
66123PNGS   D4B27373   4.354  29.623  17.056 -0.1911 -0.1318  0.0389
66123PNGS   C5B27374   4.285  29.569  16.578 -0.0969  0.1287  0.0798
66123PNGS   C6B27375   3.882  29.322  16.493  0.1538 -0.0493  0.1844
66124PNGS    C127376  26.070  17.949   5.143  0.0267  0.1790 -0.0346
66124PNGS    C227377  26.235  18.177   5.039  0.1017  0.1264 -0.0322
66124PNGS    C327378  26.090  17.998   4.848  0.1067  0.1282 -0.0378
66124PNGS   AM127379  25.566  17.947   5.063  0.1192  0.2128 -0.0148
66124PNGS   AM227380  25.623  17.689   4.975 -0.0577 -0.0405  0.1149
66124PNGS   T1A27381  25.316  18.070   5.004  0.2311  0.1436 -0.1958
66124PNGS   C2A27382  25.006  18.117   4.902  0.3700  0.1412  0.4006
66124PNGS   C3A27383  24.868  18.014   4.525 -0.1470  0.4042  0.0706
66124PNGS   C4A27384  24.473  18.082   4.264  0.0472  0.3060 -0.1473
66124PNGS   C1B27385  25.357  17.575   4.722 -0.2772  0.2203 -0.0649
66124PNGS   C2B27386  25.208  17.652   4.344  0.2340 -0.0870 -0.0214
66124PNGS   C3B27387  24.890  17.675   4.111  0.1133  0.1237  0.2333
66124PNGS   D4B27388  25.008  17.801   3.748  0.1089  0.0336  0.3475
66124PNGS   C5B27389  24.791  17.871   3.403  0.5263 -0.0433 -0.2463
66124PNGS   C6B27390  24.772  18.002   2.961 -0.0852  0.1481 -0.1786
66125PNGS    C127391  34.145  10.646   8.064  0.0019  0.1254 -0.0602
66125PNGS    C227392  34.258  10.914   7.992  0.1823  0.0959  0.1107
66125PNGS    C327393  34.364  10.765   8.231 -0.1465  0.0211  0.2129
66125PNGS   AM127394  34.484  10.500   7.741  0.2611  0.0034 -0.1162
66125PNGS   AM227395  34.425  10.286   7.884  0.0145 -0.2342 -0.0590
66125PNGS   T1A27396  34.563  10.506   7.474 -0.0073 -0.1280  0.2356
66125PNGS   C2A27397  34.678  10.205   7.188  0.0240 -0.5007 -0.1524
66125PNGS   C3A27398  34.968   9.801   6.954 -0.2204  0.6565 -0.1065
66125PNGS   C4A27399  35.255   9.944   6.635 -0.0652 -0.2776 -0.0103
66125PNGS   C1B27400  34.550   9.942   7.863 -0.0927  0.2738 -0.3748
66125PNGS   C2B27401  34.727   9.601   7.870  0.2929  0.0300 -0.1925
66125PNGS   C3B27402  34.904   9.255   7.754  0.1807 -0.1519  0.0089
66125PNGS   D4B27403  35.335   9.088   7.746 -0.0364  0.1396  0.1094
66125PNGS   C5B27404   0.079   9.107   8.169 -0.3309 -0.0445  0.1774
66125PNGS   C6B27405   0.329   9.118   8.529  0.0914  0.0164  0.1907
66126PNGS    C127406   1.373   9.185  12.030  0.0350 -0.0607 -0.0497
66126PNGS    C227407   1.617   9.180  12.204  0.0983 -0.0836 -0.1388
66126PNGS    C327408   1.488   8.923  12.118  0.0065 -0.0705 -0.0416
66126PNGS   AM127409   1.793   9.217  11.716  0.1277  0.0215  0.0031
66126PNGS   AM227410   1.590   9.094  11.587 -0.1326  0.0468 -0.0545
66126PNGS   T1A27411   2.048   9.288  11.630 -0.2574  0.0965 -0.1334
66126PNGS   C2A27412   2.252   9.296  11.336  0.5063 -0.2645 -0.0394
66126PNGS   C3A27413   2.555   9.279  11.037 -0.0894 -0.1576 -0.3985
66126PNGS   C4A27414   2.584   9.519  10.697  0.3395  0.0926 -0.3102
66126PNGS   C1B27415   1.639   8.868  11.308  0.3217  0.3753  0.0619
66126PNGS   C2B27416   1.908   8.866  10.992 -0.1291  0.3561 -0.0322
66126PNGS   C3B27417   2.039   8.516  10.609 -0.1614  0.2640  0.2580
66126PNGS   D4B27418   2.120   8.318  10.251 -0.1947  0.0938  0.0188
66126PNGS   C5B27419   1.714   8.255   9.992  0.0364 -0.1854 -0.1855
66126PNGS   C6B27420   1.722   8.290   9.536  0.1580  0.0855  0.0370
66127PNGS    C127421  19.250  31.027  15.169 -0.0286  0.0729 -0.0217
66127PNGS    C227422  19.263  30.794  14.979  0.1785  0.2485 -0.2264
66127PNGS    C327423  19.183  30.751  15.265  0.0274 -0.0439 -0.3113
66127PNGS   AM127424  18.809  31.146  15.036  0.1821 -0.0628 -0.1231
66127PNGS   AM227425  18.755  31.029  15.265 -0.1293 -0.5761  0.2265
66127PNGS   T1A27426  18.641  31.174  14.806  0.2280 -0.2148  0.1059
66127PNGS   C2A27427  18.305  31.172  14.538 -0.2831  0.2360  0.1609
66127PNGS   C3A27428  17.910  31.005  14.314  0.0563 -0.1573  0.0240
66127PNGS   C4A27429  17.688  30.741  14.213  0.2057  0.1731 -0.1872
66127PNGS   C1B27430  18.493  30.791  15.237 -0.0254 -0.0644  0.0346
66127PNGS   C2B27431  18.132  30.633  15.085 -0.0265 -0.1824  0.0916
66127PNGS   C3B27432  17.745  30.471  14.933  0.0348  0.0196  0.1780
66127PNGS   D4B27433  17.203  30.312  14.969 -0.1064 -0.0850 -0.1369
66127PNGS   C5B27434  17.097  29.889  15.193  0.1060 -0.2707 -0.0509
66127PNGS   C6B27435  16.935  29.761  15.581  0.2375  0.1203  0.1615
66128PNGS    C127436  27.466   4.825   9.884 -0.1286 -0.1271 -0.0478
66128PNGS    C227437  27.486   4.972  10.145 -0.1219 -0.1574 -0.0312
66128PNGS    C327438  27.555   5.111   9.888 -0.3130 -0.0691 -0.0361
66128PNGS   AM127439  27.177   4.931   9.489 -0.1520 -0.3387 -0.0736
66128PNGS   AM227440  27.429   4.872   9.411 -0.1585  0.1204 -0.2599
66128PNGS   T1A27441  26.965   4.876   9.317  0.2432  0.0782 -0.3173
66128PNGS   C2A27442  26.858   4.692   8.895 -0.0549 -0.1202 -0.1434
66128PNGS   C3A27443  26.824   4.539   8.528  0.1929 -0.0011 -0.2833
66128PNGS   C4A27444  26.769   4.510   8.093  0.0463 -0.2104  0.2185
66128PNGS   C1B27445  27.537   4.848   9.074  0.3100  0.1279 -0.1370
66128PNGS   C2B27446  27.426   4.509   8.691 -0.0915  0.0357  0.2529
66128PNGS   C3B27447  27.253   4.400   8.383  0.0844  0.0745  0.2033
66128PNGS   D4B27448  27.324   4.492   7.977 -0.1821  0.3247 -0.2069
66128PNGS   C5B27449  27.631   4.234   7.844  0.0977 -0.2816  0.0164
66128PNGS   C6B27450  27.871   4.090   7.639 -0.1898  0.1741  0.0678
66129PNGS    C127451  27.317   8.527   7.580 -0.0367  0.1600  0.0304
66129PNGS    C227452  27.446   8.705   7.784  0.0337 -0.0825  0.1995
66129PNGS    C327453  27.218   8.527   7.863 -0.0031 -0.1066  0.0432
66129PNGS   AM127454  27.175   8.048   7.557 -0.0271 -0.0833 -0.2771
66129PNGS   AM227455  26.913   8.124   7.598 -0.1611 -0.0957  0.0422
66129PNGS   T1A27456  27.194   7.821   7.347  0.1520  0.0851 -0.1281
66129PNGS   C2A27457  27.061   7.565   7.036 -0.0903  0.1117  0.3918
66129PNGS   C3A27458  26.873   7.357   6.666 -0.0457 -0.1984  0.1148
66129PNGS   C4A27459  26.801   7.308   6.265  0.1229  0.0422 -0.0543
66129PNGS   C1B27460  26.723   7.951   7.357 -0.1486 -0.0550 -0.2102
66129PNGS   C2B27461  26.534   7.810   7.084 -0.1220 -0.1978 -0.1548
66129PNGS   C3B27462  26.446   7.627   6.833 -0.1622 -0.0605  0.0297
66129PNGS   D4B27463  26.416   7.282   6.547  0.2775 -0.0493 -0.2182
66129PNGS   C5B27464  26.306   6.861   6.619 -0.2683  0.2784 -0.1885
66129PNGS   C6B27465  26.118   6.435   6.595  0.0407  0.1590 -0.1857
66130PNGS    C127466  26.641  14.807   4.849 -0.1518 -0.1263  0.0000
66130PNGS    C227467  26.385  14.922   4.742  0.0414  0.4658  0.1542
66130PNGS    C327468  26.625  14.899   4.564 -0.1009 -0.0567  0.0196
66130PNGS   AM127469  26.411  14.418   4.771 -0.2333  0.0685  0.1274
66130PNGS   AM227470  26.623  14.266   4.687 -0.0709 -0.4032 -0.2471
66130PNGS   T1A27471  26.187  14.373   4.579 -0.0625  0.1415 -0.2970
66130PNGS   C2A27472  25.813  14.349   4.406  0.3653  0.0276 -0.2778
66130PNGS   C3A27473  25.498  14.120   4.211  0.2157  0.2761  0.1356
66130PNGS   C4A27474  25.174  13.931   4.056 -0.1525 -0.1953  0.0378
66130PNGS   C1B27475  26.662  14.053   4.395 -0.0444  0.0736  0.0164
66130PNGS   C2B27476  26.482  14.032   4.082 -0.0861 -0.1245  0.0718
66130PNGS   C3B27477  26.029  14.209   4.008  0.1132 -0.2509  0.1784
66130PNGS   D4B27478  25.575  14.187   3.753  0.0233 -0.3335 -0.3695
66130PNGS   C5B27479  25.433  13.799   3.568 -0.3150 -0.0010 -0.0528
66130PNGS   C6B27480  25.546  13.448   3.612 -0.0561 -0.0310 -0.3333
66131PNGS    C127481   0.699  17.530   8.249 -0.0535  0.0415 -0.1258
66131PNGS    C227482   0.538  17.341   8.080  0.1135 -0.0185 -0.2194
66131PNGS    C327483   0.816  17.267   8.164  0.0306  0.0097  0.0864
66131PNGS   AM127484   1.083  17.731   7.976 -0.3231  0.1871 -0.0652
66131PNGS   AM227485   1.002  17.680   7.719 -0.3331  0.2697 -0.0339
66131PNGS   T1A27486   1.362  17.818   8.000 -0.1301 -0.3552  0.1164
66131PNGS   C2A27487   1.706  17.879   8.001 -0.1741 -0.0690  0.1580
66131PNGS   C3A27488   2.123  17.861   7.900 -0.0526 -0.2144  0.0629
66131PNGS   C4A27489   2.430  17.825   7.716 -0.0897 -0.1595 -0.1443
66131PNGS   C1B27490   1.192  17.582   7.434 -0.0921  0.0478  0.0295
66131PNGS   C2B27491   1.557  17.424   7.249 -0.1274 -0.2380  0.1892
66131PNGS   C3B27492   1.870  17.331   6.927  0.2778 -0.1411 -0.2385
66131PNGS   D4B27493   2.274  17.055   6.675 -0.4393 -0.3157  0.3604
66131PNGS   C5B27494   2.417  16.731   6.820 -0.0004 -0.1412 -0.0888
66131PNGS   C6B27495   2.748  16.561   6.962 -0.1160  0.0938  0.0720
66132PNGS    C127496  25.579  13.459   7.366 -0.0194 -0.0634 -0.0361
66132PNGS    C227497  25.847  13.500   7.238 -0.0287  0.4678  0.1016
66132PNGS    C327498  25.602  13.621   7.114 -0.1970  0.0532  0.0216
66132PNGS   AM127499  25.106  13.395   7.291  0.3733 -0.0896  0.0393
66132PNGS   AM227500  25.171  13.314   7.036 -0.2061  0.0394  0.0988
66132PNGS   T1A27501  24.831  13.429   7.357 -0.0596 -0.2042 -0.2906
66132PNGS   C2A27502  24.479  13.292   7.116  0.2848  0.3530  0.1088
66132PNGS   C3A27503  24.050  13.159   6.978  0.1006 -0.0303 -0.0966
66132PNGS   C4A27504  23.748  13.082   6.816 -0.1850  0.0838  0.0459
66132PNGS   C1B27505  24.893  13.264   6.777 -0.0529 -0.0283 -0.0654
66132PNGS   C2B27506  24.429  13.302   6.644 -0.1294 -0.0702  0.4355
66132PNGS   C3B27507  24.048  13.312   6.458 -0.1154  0.0854 -0.0756
66132PNGS   D4B27508  23.652  13.228   6.340  0.0195  0.3007 -0.3534
66132PNGS   C5B27509  23.292  13.358   6.507 -0.1909  0.0974 -0.0443
66132PNGS   C6B27510  23.067  13.416   6.869  0.0869 -0.2467  0.1657
66133PNGS    C127511  27.060  11.616   6.338 -0.1165 -0.1104  0.1427
66133PNGS    C227512  26.934  11.888   6.362  0.0426 -0.0157 -0.0792
66133PNGS    C327513  26.817  11.684   6.175 -0.0656 -0.0945  0.0740
66133PNGS   AM127514  26.935  11.112   6.130  0.0489 -0.0359 -0.0760
66133PNGS   AM227515  27.193  11.103   6.165 -0.1323 -0.1382 -0.0110
66133PNGS   T1A27516  26.795  10.940   5.958  0.1015  0.0946 -0.3616
66133PNGS   C2A27517  26.623  10.695   5.642  0.1219  0.2149 -0.1479
66133PNGS   C3A27518  26.374  10.553   5.374  0.1610  0.3606  0.0106
66133PNGS   C4A27519  26.484  10.413   5.019  0.3929  0.0343 -0.0724
66133PNGS   C1B27520  27.396  11.012   5.877  0.0243  0.0960 -0.0431
66133PNGS   C2B27521  27.522  10.778   5.526  0.1522 -0.1989 -0.1546
66133PNGS   C3B27522  27.435  10.485   5.146 -0.0555  0.0872  0.2593
66133PNGS   D4B27523  27.341  10.358   4.677  0.1315 -0.3175 -0.0816
66133PNGS   C5B27524  26.875  10.605   4.342 -0.1706  0.5074 -0.0924
66133PNGS   C6B27525  26.475  10.778   4.187  0.0399 -0.0715  0.1604
66134PNGS    C127526   9.535  18.549  20.165 -0.1960 -0.0881 -0.1509
66134PNGS    C227527   9.828  18.522  20.103 -0.1065 -0.2316  0.3154
66134PNGS    C327528   9.647  18.283  20.085 -0.2168 -0.1219 -0.0698
66134PNGS   AM127529   9.492  18.694  19.715 -0.1017  0.2839 -0.1538
66134PNGS   AM227530   9.244  18.763  19.809  0.2393 -0.0683 -0.1240
66134PNGS   T1A27531   9.647  18.833  19.499  0.2405  0.2769  0.0075
66134PNGS   C2A27532   9.646  19.173  19.240  0.0001  0.1989  0.1141
66134PNGS   C3A27533   9.734  19.349  18.969 -0.2000  0.3436  0.1250
66134PNGS   C4A27534   9.652  19.611  18.521 -0.0847 -0.0536 -0.0779
66134PNGS   C1B27535   9.071  19.014  19.590 -0.0030 -0.2239 -0.2411
66134PNGS   C2B27536   9.147  19.288  19.233  0.0538 -0.1112 -0.1750
66134PNGS   C3B27537   9.223  19.308  18.810 -0.1904 -0.1077  0.1249
66134PNGS   D4B27538   9.151  19.590  18.527 -0.0709  0.0352 -0.2762
66134PNGS   C5B27539   8.867  19.605  18.308  0.1430 -0.0690 -0.0814
66134PNGS   C6B27540   8.809  19.778  17.919  0.1474  0.2194  0.0420
66135PNGS    C127541   1.976  19.766   9.647 -0.0895  0.0199  0.1273
66135PNGS    C227542   2.215  19.776   9.829  0.0155  0.1509 -0.0173
66135PNGS    C327543   2.104  20.030   9.712 -0.1101  0.0770 -0.0598
66135PNGS   AM127544   2.329  19.642   9.370  0.3738  0.0246  0.0576
66135PNGS   AM227545   2.412  19.399   9.482  0.0201  0.0777  0.2876
66135PNGS   T1A27546   2.493  19.735   9.146  0.3573 -0.4144  0.1857
66135PNGS   C2A27547   2.807  19.754   8.897 -0.0488 -0.2665  0.1133
66135PNGS   C3A27548   3.148  19.671   8.617 -0.5079 -0.1657  0.3917
66135PNGS   C4A27549   3.398  19.336   8.342  0.4274 -0.2173  0.2176
66135PNGS   C1B27550   2.705  19.197   9.337  0.0686 -0.0098 -0.1079
66135PNGS   C2B27551   3.094  19.069   9.065  0.1699  0.2964  0.0674
66135PNGS   C3B27552   3.402  18.997   8.777  0.1664 -0.1156  0.0038
66135PNGS   D4B27553   3.571  18.817   8.438  0.1881  0.1271  0.0011
66135PNGS   C5B27554   3.535  18.931   8.036 -0.1909 -0.0952 -0.1627
66135PNGS   C6B27555   3.415  19.110   7.569  0.2483  0.2753  0.1581
66136PNGS    C127556   0.136   7.947  11.553  0.2980 -0.0213 -0.0288
66136PNGS    C227557  35.317   7.919  11.335 -0.0448 -0.1457  0.3028
66136PNGS    C327558   0.037   8.190  11.407  0.1209 -0.1109 -0.0594
66136PNGS   AM127559   0.398   7.807  11.167  0.3398 -0.0340  0.1667
66136PNGS   AM227560   0.581   7.799  11.394  0.1499 -0.0106  0.1325
66136PNGS   T1A27561   0.304   7.724  10.899 -0.3206 -0.5764  0.1991
66136PNGS   C2A27562   0.457   7.799  10.539 -0.1386  0.0928 -0.1438
66136PNGS   C3A27563   0.646   7.662  10.329  0.1006 -0.0516  0.5147
66136PNGS   C4A27564   0.823   7.395  10.017  0.1463 -0.0761 -0.5648
66136PNGS   C1B27565   0.850   8.010  11.374  0.0286 -0.1650  0.0701
66136PNGS   C2B27566   1.165   8.022  11.107 -0.2251  0.0888  0.1234
66136PNGS   C3B27567   1.463   7.995  10.823  0.5264  0.3051  0.1979
66136PNGS   D4B27568   1.767   8.085  10.584 -0.2170  0.2355  0.2515
66136PNGS   C5B27569   1.810   7.827  10.307 -0.2135  0.0049  0.0203
66136PNGS   C6B27570   1.852   7.330  10.161  0.2170 -0.2260  0.0466
66137PNGS    C127571  27.075  10.316   6.689 -0.0795  0.1546  0.1900
66137PNGS    C227572  27.239  10.071   6.744 -0.1467  0.0358 -0.1311
66137PNGS    C327573  26.978  10.112   6.886  0.0114  0.0728  0.1508
66137PNGS   AM127574  26.682   9.997   6.398 -0.1033  0.0340 -0.4455
66137PNGS   AM227575  26.602  10.187   6.555  0.0967  0.0845 -0.1876
66137PNGS   T1A27576  26.522   9.899   6.171 -0.0488 -0.1292 -0.0777
66137PNGS   C2A27577  26.353   9.659   5.900  0.1038  0.0097 -0.0014
66137PNGS   C3A27578  26.020   9.431   5.809  0.4003  0.3916  0.0263
66137PNGS   C4A27579  25.609   9.306   5.810 -0.0990  0.1210 -0.2831
66137PNGS   C1B27580  26.222  10.240   6.531  0.2174  0.0433  0.1658
66137PNGS   C2B27581  25.802  10.129   6.243 -0.0100  0.4541  0.0088
66137PNGS   C3B27582  25.817   9.863   5.891 -0.0265  0.1319 -0.2032
66137PNGS   D4B27583  25.878   9.823   5.485  0.1899  0.0632 -0.0909
66137PNGS   C5B27584  25.774   9.397   5.336 -0.1183 -0.0336  0.0539
66137PNGS   C6B27585  26.043   9.062   5.427  0.1898  0.0211 -0.2544
66138PNGS    C127586  28.418  12.402   5.096  0.0035 -0.1099 -0.1517
66138PNGS    C227587  28.592  12.162   5.142  0.0263 -0.0695 -0.0258
66138PNGS    C327588  28.647  12.345   4.911 -0.0623 -0.2495 -0.1908
66138PNGS   AM127589  28.133  12.369   4.668 -0.0475  0.3156  0.2711
66138PNGS   AM227590  28.087  12.140   4.812  0.0463 -0.0241 -0.0731
66138PNGS   T1A27591  28.026  12.310   4.388 -0.0277  0.0904 -0.1112
66138PNGS   C2A27592  27.910  12.118   4.082  0.2772 -0.1108  0.2310
66138PNGS   C3A27593  27.972  11.936   3.727 -0.2866 -0.0474 -0.0330
66138PNGS   C4A27594  27.787  11.609   3.428 -0.2211  0.1822  0.0409
66138PNGS   C1B27595  27.822  11.892   4.771  0.1910 -0.0238  0.0800
66138PNGS   C2B27596  27.616  11.755   4.443  0.0082 -0.0482  0.0214
66138PNGS   C3B27597  27.467  11.720   3.979 -0.0300  0.0232 -0.2585
66138PNGS   D4B27598  27.427  11.372   3.638 -0.0983 -0.1839  0.0531
66138PNGS   C5B27599  27.281  11.075   3.728 -0.0603  0.1725 -0.0838
66138PNGS   C6B27600  26.897  10.765   3.592 -0.3208  0.1042 -0.2957
66139PNGS    C127601  21.572  20.451  15.562 -0.0660  0.0774 -0.0069
66139PNGS    C227602  21.421  20.203  15.638 -0.2153  0.1444 -0.0830
66139PNGS    C327603  21.389  20.453  15.800 -0.1082  0.1306 -0.0401
66139PNGS   AM127604  21.278  20.775  15.329 -0.2577  0.0328 -0.3213
66139PNGS   AM227605  21.475  20.933  15.416  0.1554 -0.0351  0.0372
66139PNGS   T1A27606  21.027  20.746  15.178 -0.0235  0.0488 -0.3404
66139PNGS   C2A27607  20.653  20.715  14.949 -0.0972  0.0132  0.0510
66139PNGS   C3A27608  20.342  20.668  14.768  0.0747 -0.0648  0.0259
66139PNGS   C4A27609  20.097  20.675  14.367  0.1332 -0.0432  0.1829
66139PNGS   C1B27610  21.443  21.296  15.437  0.0195 -0.2620  0.1713
66139PNGS   C2B27611  21.357  21.658  15.312 -0.2419 -0.2974  0.0281
66139PNGS   C3B27612  20.954  21.915  15.234  0.0654  0.5124  0.1860
66139PNGS   D4B27613  20.650  22.240  15.026  0.1525 -0.1299 -0.0856
66139PNGS   C5B27614  20.182  22.218  15.107  0.2522  0.0982  0.1350
66139PNGS   C6B27615  19.830  22.191  15.027 -0.1703 -0.3556  0.2469
66140PNGS    C127616  23.236  32.536  11.479  0.1027  0.2062 -0.0005
66140PNGS    C227617  23.387  32.376  11.682 -0.0886 -0.1132 -0.1059
66140PNGS    C327618  23.203  32.596  11.771  0.1957  0.0700  0.0382
66140PNGS   AM127619  22.780  32.686  11.404  0.1060 -0.4278  0.1477
66140PNGS   AM227620  22.905  32.936  11.408 -0.0742  0.0672 -0.1744
66140PNGS   T1A27621  22.562  32.568  11.252 -0.1940  0.0839 -0.0946
66140PNGS   C2A27622  22.352  32.558  10.897 -0.0637  0.0169  0.3395
66140PNGS   C3A27623  22.322  32.624  10.463 -0.3737 -0.0780  0.0473
66140PNGS   C4A27624  22.127  32.699  10.142  0.1366 -0.3151 -0.1993
66140PNGS   C1B27625  22.945  33.207  11.162 -0.1941  0.1370  0.2463
66140PNGS   C2B27626  22.815  33.334  10.808  0.1425  0.0459 -0.2369
66140PNGS   C3B27627  22.651  33.417  10.480  0.0688  0.2647 -0.1663
66140PNGS   D4B27628  22.488  33.519  10.209 -0.1738 -0.0398 -0.3576
66140PNGS   C5B27629  22.304  33.359   9.793  0.0885 -0.0104 -0.0995
66140PNGS   C6B27630  22.140  33.029   9.646  0.2486  0.2907 -0.0953
66141PNGS    C127631  20.505   1.691  14.117 -0.1855 -0.0052  0.2990
66141PNGS    C227632  20.708   1.653  14.334  0.1454  0.0901  0.0108
66141PNGS    C327633  20.675   1.444  14.121 -0.1951 -0.0145  0.1625
66141PNGS   AM127634  20.379   1.644  13.657  0.1716  0.0529  0.3278
66141PNGS   AM227635  20.181   1.518  13.733 -0.1123 -0.0431  0.2314
66141PNGS   T1A27636  20.518   1.733  13.413  0.0562  0.1435  0.0016
66141PNGS   C2A27637  20.316   1.959  13.035  0.2264 -0.0533 -0.0082
66141PNGS   C3A27638  20.102   2.182  12.793  0.1989 -0.1293  0.1227
66141PNGS   C4A27639  19.878   2.083  12.566 -0.0440  0.1153  0.1361
66141PNGS   C1B27640  19.835   1.517  13.619  0.1263 -0.0937  0.3399
66141PNGS   C2B27641  19.648   1.506  13.334  0.1705  0.0795 -0.0070
66141PNGS   C3B27642  19.443   1.390  12.912  0.4531  0.0013 -0.0088
66141PNGS   D4B27643  19.200   1.349  12.490  0.0077 -0.2659 -0.0068
66141PNGS   C5B27644  19.149   1.736  12.238  0.3317 -0.4294 -0.1856
66141PNGS   C6B27645  19.184   2.117  11.994 -0.0371 -0.1990 -0.2141
66142PNGS    C127646  17.251   0.643  15.858  0.0489  0.1354  0.0511
66142PNGS    C227647  17.266   0.910  15.995 -0.0816  0.0393  0.2549
66142PNGS    C327648  17.103   0.688  16.115  0.1522 -0.1823  0.1684
66142PNGS   AM127649  16.844   0.475  15.660  0.2000  0.0922 -0.1687
66142PNGS   AM227650  16.871   0.641  15.447 -0.1902 -0.0354 -0.1239
66142PNGS   T1A27651  16.580   0.352  15.661  0.1636 -0.2026 -0.0766
66142PNGS   C2A27652  16.415   0.246  15.441 -0.0196  0.1745 -0.2325
66142PNGS   C3A27653  16.095   0.252  15.273 -0.0183  0.0374 -0.0710
66142PNGS   C4A27654  15.776   0.219  14.928 -0.2116 -0.0262  0.1256
66142PNGS   C1B27655  16.584   0.666  15.193  0.2263  0.0646 -0.1742
66142PNGS   C2B27656  16.365   0.566  14.865  0.1764  0.0556 -0.0811
66142PNGS   C3B27657  16.088   0.410  14.597  0.0974 -0.0574  0.0205
66142PNGS   D4B27658  15.645   0.431  14.397 -0.1673 -0.3058  0.0170
66142PNGS   C5B27659  15.413   0.019  14.637 -0.0388 -0.1086 -0.0963
66142PNGS   C6B27660  15.237  35.017  14.666  0.1973 -0.1245  0.0111
66143PNGS    C127661  18.422  33.941  14.906  0.1461  0.0408  0.1856
66143PNGS    C227662  18.377  33.762  15.142 -0.0978 -0.1131  0.0255
66143PNGS    C327663  18.653  33.794  15.029 -0.0084 -0.1742  0.2228
66143PNGS   AM127664  18.423  33.623  14.537  0.1014  0.1448 -0.1522
66143PNGS   AM227665  18.272  33.838  14.429 -0.1557  0.0704  0.3786
66143PNGS   T1A27666  18.333  33.351  14.448 -0.0439  0.1516  0.0955
66143PNGS   C2A27667  18.001  33.280  14.235  0.2243 -0.2607 -0.1344
66143PNGS   C3A27668  17.690  33.043  13.900 -0.4094 -0.2290  0.0142
66143PNGS   C4A27669  17.326  32.907  13.701  0.0407 -0.3264 -0.1150
66143PNGS   C1B27670  18.007  33.775  14.190  0.4556 -0.2109 -0.3334
66143PNGS   C2B27671  17.658  33.579  13.923 -0.4116 -0.3824  0.0639
66143PNGS   C3B27672  17.433  33.466  13.653  0.1322 -0.2092 -0.0745
66143PNGS   D4B27673  17.127  33.565  13.611  0.0721 -0.0293 -0.1634
66143PNGS   C5B27674  16.749  33.229  13.516  0.1605 -0.3354 -0.0460
66143PNGS   C6B27675  16.846  32.831  13.520  0.0796 -0.2536 -0.0517
66144PNGS    C127676   3.364  24.831  17.633  0.2162 -0.0163  0.2349
66144PNGS    C227677   3.287  24.542  17.659 -0.1438  0.0737  0.1851
66144PNGS    C327678   3.331  24.662  17.387  0.3577 -0.0221  0.2193
66144PNGS   AM127679   3.818  24.614  17.629  0.2390  0.3017  0.0919
66144PNGS   AM227680   3.834  24.771  17.392  0.1079  0.1879 -0.2021
66144PNGS   T1A27681   3.974  24.554  17.871 -0.1415 -0.0287 -0.0438
66144PNGS   C2A27682   4.270  24.560  18.016  0.1915 -0.0711  0.2301
66144PNGS   C3A27683   4.565  24.935  18.208  0.0757 -0.0507  0.1956
66144PNGS   C4A27684   4.929  25.241  18.127  0.1988  0.2862  0.2057
66144PNGS   C1B27685   4.064  24.674  17.107  0.0788  0.0090 -0.0778
66144PNGS   C2B27686   4.375  24.742  16.975  0.3362 -0.0752  0.3987
66144PNGS   C3B27687   4.749  24.960  16.869  0.2236  0.2195 -0.1388
66144PNGS   D4B27688   4.893  25.349  17.025 -0.1066 -0.0230 -0.0213
66144PNGS   C5B27689   5.232  25.516  17.050 -0.0303  0.0916 -0.1100
66144PNGS   C6B27690   5.654  25.651  17.281 -0.3362 -0.2546 -0.1412
66145PNGS    C127691  29.252  10.896   5.576 -0.0867  0.0008 -0.1927
66145PNGS    C227692  29.362  11.110   5.756 -0.0098 -0.1082 -0.1097
66145PNGS    C327693  29.252  11.182   5.486  0.1755  0.0144 -0.1531
66145PNGS   AM127694  29.405  10.778   5.128  0.0742  0.1952  0.0533
66145PNGS   AM227695  29.600  10.598   5.206 -0.0411  0.3203  0.4352
66145PNGS   T1A27696  29.356  10.791   4.850  0.0880 -0.0112 -0.0179
66145PNGS   C2A27697  29.242  10.603   4.498  0.3147  0.2702 -0.1244
66145PNGS   C3A27698  29.213  10.530   4.108 -0.0381  0.2451  0.0714
66145PNGS   C4A27699  29.046  10.268   3.746  0.0301  0.2498 -0.0299
66145PNGS   C1B27700  29.768  10.366   4.974 -0.2514  0.0377 -0.0954
66145PNGS   C2B27701  29.913  10.089   4.666 -0.1060 -0.4006  0.1414
66145PNGS   C3B27702  29.948   9.933   4.215 -0.1326 -0.0392 -0.2210
66145PNGS   D4B27703  30.173   9.751   3.819  0.0788 -0.2643  0.1383
66145PNGS   C5B27704  30.753   9.659   3.769 -0.2481  0.1876  0.1567
66145PNGS   C6B27705  31.194   9.474   3.770  0.0874  0.1101 -0.0957
66146DPG1   GM127706  25.001  23.151   8.544  0.1124 -0.1000  0.0887
66146DPG1   GM227707  25.280  22.956   8.701  0.1955 -0.1659 -0.1398
66146DPG1   GM327708  25.321  23.223   8.504 -0.0040  0.2382 -0.2605
66146DPG1   GM427709  25.621  23.059   8.572  0.0046  0.0665  0.1181
66146DPG1   GM527710  25.591  23.409   8.388  0.0981 -0.0318 -0.0852
66146DPG1   GM627711  25.798  23.181   8.417 -0.0571  0.0496  0.0346
66146DPG1   GM727712  25.911  23.016   8.157  0.1931 -0.1755  0.0044
66146DPG1   GM827713  25.867  23.527   8.066  0.0696 -0.2270 -0.2307
66146DPG1   GM927714  26.002  23.260   7.967 -0.2954 -0.3124  0.0471
66146DPG1  GM1027715  26.298  23.059   7.901 -0.1691 -0.0596 -0.1639
66146DPG1  GM1127716  26.368  23.414   8.059  0.0766 -0.1285 -0.1155
66146DPG1  GM1227717  26.435  23.273   7.817 -0.2174 -0.0136 -0.1249
66146DPG1  GM1327718  26.152  23.090   8.437 -0.0371 -0.1685  0.3240
66146DPG1  GM1427719  26.046  23.120   8.769 -0.3319  0.2489  0.1958
66146DPG1  GM1527720  26.005  23.419   8.560 -0.0813  0.0117 -0.1991
66146DPG1  GM1627721  26.160  23.415   8.903  0.2667  0.0786  0.0988
66146DPG1  GM1727722  26.186  23.608   8.482 -0.0324  0.1667  0.2393
66146DPG1   AM127723  24.674  22.907   8.756  0.0815 -0.1031  0.0961
66146DPG1   AM227724  24.597  22.828   8.401 -0.2364  0.1041 -0.1827
66146DPG1   T1A27725  24.252  22.977   8.692  0.1658 -0.0527 -0.1225
66146DPG1   C2A27726  23.804  23.147   8.653 -0.0533 -0.0522  0.0908
66146DPG1   C3A27727  23.496  23.370   8.462  0.1332  0.1434  0.2057
66146DPG1   C1B27728  24.311  22.756   8.207 -0.0911  0.0668  0.3120
66146DPG1   C2B27729  23.796  22.839   8.109 -0.3209 -0.0808  0.0218
66146DPG1   C3B27730  23.471  23.143   7.971 -0.0421  0.0471 -0.3308
66146DPG1   C4B27731  23.157  23.518   7.860 -0.2257 -0.1592  0.2678
66147DPG1   GM127732  18.625  32.531  15.296 -0.0022 -0.1522  0.4729
66147DPG1   GM227733  18.955  32.380  15.390  0.2090  0.0382  0.0521
66147DPG1   GM327734  18.914  32.671  15.221 -0.3269  0.1925 -0.1828
66147DPG1   GM427735  19.255  32.673  15.219  0.3419 -0.1047 -0.1411
66147DPG1   GM527736  19.055  33.001  15.315  0.1399 -0.2026 -0.2240
66147DPG1   GM627737  19.345  32.921  15.245 -0.0139  0.0538 -0.3806
66147DPG1   GM727738  19.526  33.014  15.014  0.1539  0.0777 -0.0460
66147DPG1   GM827739  19.174  33.356  15.188  0.0605 -0.0963  0.1077
66147DPG1   GM927740  19.439  33.345  15.006 -0.0432 -0.1011 -0.2084
66147DPG1  GM1027741  19.790  33.366  14.911 -0.0323  0.0608 -0.1341
66147DPG1  GM1127742  19.711  33.683  15.132  0.1976  0.0513 -0.0361
66147DPG1  GM1227743  19.775  33.620  14.829 -0.0233  0.0341 -0.2201
66147DPG1  GM1327744  19.706  32.863  15.264 -0.0934 -0.2195  0.0941
66147DPG1  GM1427745  19.619  32.711  15.567 -0.3110 -0.0514  0.1180
66147DPG1  GM1527746  19.516  33.061  15.529  0.0485  0.0441  0.0012
66147DPG1  GM1627747  19.695  32.932  15.825  0.0492 -0.1142 -0.1000
66147DPG1  GM1727748  19.637  33.302  15.471 -0.0008 -0.3080 -0.0350
66147DPG1   AM127749  18.267  32.385  15.588  0.1526 -0.1394  0.1548
66147DPG1   AM227750  18.139  32.718  15.500  0.0309  0.0679  0.1198
66147DPG1   T1A27751  17.812  32.295  15.519  0.0764  0.4201 -0.1497
66147DPG1   C2A27752  17.314  32.232  15.307 -0.0830 -0.1012 -0.1591
66147DPG1   C3A27753  16.901  32.253  15.474  0.4085  0.2049  0.0352
66147DPG1   C1B27754  17.836  32.794  15.373  0.2000 -0.1783  0.0322
66147DPG1   C2B27755  17.458  32.757  15.210 -0.2069 -0.0396 -0.1716
66147DPG1   C3B27756  17.028  32.738  14.954 -0.2853  0.2524 -0.0692
66147DPG1   C4B27757  16.819  32.618  14.595 -0.1715 -0.0251  0.2626
66148DPG1   GM127758  26.550  24.792   7.292 -0.1849 -0.1824 -0.0688
66148DPG1   GM227759  26.571  24.433   7.187 -0.2245 -0.1899 -0.0514
66148DPG1   GM327760  26.601  24.534   7.491  0.2382 -0.1169 -0.0860
66148DPG1   GM427761  26.705  24.207   7.556 -0.0917 -0.0482 -0.0972
66148DPG1   GM527762  26.490  24.439   7.794  0.0412  0.1114 -0.1317
66148DPG1   GM627763  26.630  24.148   7.803  0.1110 -0.0024 -0.0236
66148DPG1   GM727764  26.884  24.091   7.946  0.0184 -0.2277 -0.1145
66148DPG1   GM827765  26.522  24.346   8.220  0.1476  0.2243 -0.3596
66148DPG1   GM927766  26.826  24.244   8.259 -0.1140 -0.0195  0.2048
66148DPG1  GM1027767  27.104  24.024   8.343 -0.0403 -0.0078 -0.0067
66148DPG1  GM1127768  26.853  24.130   8.629  0.0626  0.0149  0.0756
66148DPG1  GM1227769  27.097  24.159   8.574 -0.1565 -0.0879  0.0371
66148DPG1  GM1327770  26.656  23.801   7.851  0.0121  0.2097 -0.0693
66148DPG1  GM1427771  26.450  23.740   7.574 -0.0600 -0.2594  0.0821
66148DPG1  GM1527772  26.293  23.917   7.855 -0.0245  0.0976 -0.1200
66148DPG1  GM1627773  26.152  23.677   7.649  0.1306 -0.0355 -0.0092
66148DPG1  GM1727774  26.240  23.927   8.104  0.0974 -0.2531 -0.2234
66148DPG1   AM127775  26.583  24.970   6.852 -0.0676  0.2760  0.0065
66148DPG1   AM227776  26.302  25.110   7.016 -0.0121 -0.1508 -0.2438
66148DPG1   T1A27777  26.390  25.035   6.376  0.0137  0.1532 -0.2157
66148DPG1   C2A27778  26.110  25.142   6.074  0.1917  0.0133  0.1714
66148DPG1   C3A27779  25.819  25.256   5.836  0.0913 -0.1005  0.1415
66148DPG1   C1B27780  26.068  25.231   6.755 -0.3092  0.0689 -0.0027
66148DPG1   C2B27781  25.869  25.475   6.460  0.0030  0.0675 -0.2143
66148DPG1   C3B27782  25.665  25.638   6.151 -0.1891  0.0289  0.0989
66148DPG1   C4B27783  25.493  26.046   6.085  0.0798  0.3389 -0.1482
66149DPG1   GM127784  30.050  12.396   4.652  0.3924  0.1843 -0.1493
66149DPG1   GM227785  30.091  12.027   4.596 -0.1882  0.0505  0.2644
66149DPG1   GM327786  30.002  12.136   4.848 -0.0284  0.0195 -0.4638
66149DPG1   GM427787  30.047  11.785   4.921 -0.2872 -0.2769 -0.0303
66149DPG1   GM527788  29.837  12.025   5.155  0.0758 -0.1359  0.1544
66149DPG1   GM627789  29.959  11.733   5.165  0.0206  0.2477  0.2007
66149DPG1   GM727790  30.176  11.621   5.347  0.1156  0.0392  0.1802
66149DPG1   GM827791  29.893  11.992   5.579 -0.0775  0.1670 -0.2538
66149DPG1   GM927792  30.129  11.791   5.648 -0.2603  0.0252  0.0433
66149DPG1  GM1027793  30.252  11.459   5.733  0.0351  0.1143 -0.0301
66149DPG1  GM1127794  29.888  11.583   5.821  0.0175  0.1092 -0.0938
66149DPG1  GM1227795  30.122  11.471   5.967  0.0416  0.1899 -0.0301
66149DPG1  GM1327796  29.989  11.381   5.197 -0.0544  0.0887 -0.1241
66149DPG1  GM1427797  29.774  11.330   4.926 -0.0077  0.1956 -0.1819
66149DPG1  GM1527798  29.635  11.520   5.207 -0.1352 -0.1243 -0.0265
66149DPG1  GM1627799  29.475  11.289   5.050 -0.0929 -0.2062  0.2593
66149DPG1  GM1727800  29.580  11.582   5.469 -0.0348  0.0177  0.1819
66149DPG1   AM127801  29.909  12.569   4.252 -0.2533  0.2811 -0.1299
66149DPG1   AM227802  30.133  12.273   4.120 -0.3033 -0.2144  0.2935
66149DPG1   T1A27803  29.872  12.616   3.765  0.2883  0.2946 -0.1919
66149DPG1   C2A27804  29.921  12.457   3.373 -0.0175 -0.0996  0.2691
66149DPG1   C3A27805  30.007  12.568   2.957  0.0047  0.0227 -0.0367
66149DPG1   C1B27806  30.202  12.134   3.799 -0.1325  0.0052  0.2191
66149DPG1   C2B27807  29.943  11.973   3.490 -0.1276  0.0217 -0.0281
66149DPG1   C3B27808  29.666  11.934   3.088 -0.1435  0.1696 -0.1763
66149DPG1   C4B27809  29.210  11.956   3.054  0.1296  0.0783  0.1727
66150DPG1   GM127810  28.126  11.511   5.572  0.0589 -0.0204 -0.1885
66150DPG1   GM227811  28.023  11.768   5.826  0.3185  0.3173 -0.4204
66150DPG1   GM327812  28.325  11.733   5.713 -0.2350  0.0648  0.0984
66150DPG1   GM427813  28.336  12.020   5.912 -0.0658 -0.1539  0.0322
66150DPG1   GM527814  28.553  11.925   5.595 -0.0280  0.2549 -0.0676
66150DPG1   GM627815  28.568  12.130   5.847 -0.1855  0.1145  0.0511
66150DPG1   GM727816  28.811  12.112   6.052 -0.3255 -0.2538  0.0201
66150DPG1   GM827817  28.950  12.062   5.553 -0.1949  0.0497  0.0246
66150DPG1   GM927818  29.069  12.136   5.844 -0.1588  0.1852  0.0025
66150DPG1  GM1027819  29.102  12.401   6.092 -0.2093  0.2117 -0.0191
66150DPG1  GM1127820  29.260  12.427   5.730  0.0040 -0.0049  0.0574
66150DPG1  GM1227821  29.352  12.431   5.999 -0.1100  0.1075  0.2101
66150DPG1  GM1327822  28.579  12.448   6.038  0.0190  0.0951  0.0720
66150DPG1  GM1427823  28.264  12.471   5.887 -0.0990 -0.1733  0.2741
66150DPG1  GM1527824  28.551  12.478   5.659 -0.2647 -0.2976  0.0589
66150DPG1  GM1627825  28.317  12.641   5.602  0.0104 -0.1561  0.3520
66150DPG1  GM1727826  28.792  12.534   5.610  0.1035 -0.1443 -0.1062
66150DPG1   AM127827  27.713  11.582   5.419  0.4359  0.1159 -0.0959
66150DPG1   AM227828  27.504  11.260   5.437  0.0936 -0.3735  0.0269
66150DPG1   T1A27829  27.569  11.508   4.968  0.3792 -0.2524  0.3823
66150DPG1   C2A27830  27.557  11.250   4.598 -0.3490 -0.1898  0.0812
66150DPG1   C3A27831  27.568  11.211   4.114 -0.4712  0.1420 -0.1051
66150DPG1   C1B27832  27.433  11.082   5.145  0.1370  0.3812 -0.0776
66150DPG1   C2B27833  27.323  10.866   4.816  0.1308 -0.0797  0.0577
66150DPG1   C3B27834  27.276  10.874   4.392 -0.1904  0.1013 -0.1298
66150DPG1   C4B27835  27.306  10.565   3.948 -0.2711 -0.3659 -0.1189
66151DPG1   GM127836  25.206  12.030   8.510 -0.0525  0.2898 -0.1553
66151DPG1   GM227837  25.515  12.171   8.670  0.0821  0.0830 -0.2323
66151DPG1   GM327838  25.504  12.048   8.369  0.1410 -0.2962  0.1646
66151DPG1   GM427839  25.849  12.070   8.428  0.3474  0.1266  0.1488
66151DPG1   GM527840  25.660  12.097   8.081 -0.0925  0.0654  0.3789
66151DPG1   GM627841  25.943  12.095   8.181 -0.2070  0.1450 -0.0677
66151DPG1   GM727842  26.169  11.884   8.102  0.1106  0.2242 -0.0229
66151DPG1   GM827843  25.853  11.984   7.699  0.0683  0.2237  0.0101
66151DPG1   GM927844  26.110  11.834   7.781 -0.1910 -0.2132  0.1716
66151DPG1  GM1027845  26.454  11.788   7.892 -0.0722 -0.0449 -0.1221
66151DPG1  GM1127846  26.438  12.132   7.698 -0.1768  0.1626  0.2485
66151DPG1  GM1227847  26.510  11.863   7.641  0.0170 -0.0191 -0.0945
66151DPG1  GM1327848  26.280  12.205   8.244  0.1617  0.0205 -0.0641
66151DPG1  GM1427849  26.140  12.428   8.473  0.2542 -0.0180  0.0305
66151DPG1  GM1527850  26.054  12.486   8.121 -0.1612 -0.1630  0.1050
66151DPG1  GM1627851  26.169  12.718   8.340  0.1904  0.0227 -0.0077
66151DPG1  GM1727852  26.097  12.491   7.841 -0.1444 -0.0490 -0.3404
66151DPG1   AM127853  25.054  11.748   8.892  0.2130 -0.1538  0.0182
66151DPG1   AM227854  24.792  11.721   8.619  0.2003  0.3571 -0.2760
66151DPG1   T1A27855  24.985  11.372   9.145 -0.1942  0.0628 -0.1389
66151DPG1   C2A27856  24.558  11.066   9.214  0.1363 -0.0320  0.1004
66151DPG1   C3A27857  24.302  10.775   9.074 -0.0047  0.0670  0.3483
66151DPG1   C1B27858  24.436  11.655   8.571 -0.0795  0.1702  0.0187
66151DPG1   C2B27859  24.057  11.463   8.483 -0.1750 -0.0788  0.2294
66151DPG1   C3B27860  23.785  11.396   8.139 -0.2190  0.1756  0.1016
66151DPG1   C4B27861  23.376  11.432   7.853 -0.2781 -0.2214 -0.0161
66152DPG1   GM127862  20.309  29.734  14.300 -0.2010 -0.3012 -0.1641
66152DPG1   GM227863  20.083  29.814  14.588 -0.1383  0.0214 -0.2029
66152DPG1   GM327864  20.367  29.634  14.609  0.2083  0.1265 -0.0970
66152DPG1   GM427865  20.206  29.626  14.925  0.0753 -0.0827 -0.2231
66152DPG1   GM527866  20.594  29.575  14.863  0.0944  0.1786 -0.3277
66152DPG1   GM627867  20.393  29.552  15.098  0.2264  0.1284 -0.2936
66152DPG1   GM727868  20.304  29.281  15.269  0.1032  0.2149  0.2923
66152DPG1   GM827869  20.819  29.343  15.218  0.0895  0.2084  0.1434
66152DPG1   GM927870  20.616  29.182  15.349  0.1378 -0.1030  0.0133
66152DPG1  GM1027871  20.340  29.110  15.575  0.1645  0.0050  0.0808
66152DPG1  GM1127872  20.645  29.320  15.711  0.0679  0.0973  0.1554
66152DPG1  GM1227873  20.517  29.071  15.772  0.3676  0.1917 -0.0617
66152DPG1  GM1327874  20.279  29.639  15.434 -0.1333  0.0147 -0.0330
66152DPG1  GM1427875  20.257  29.957  15.289 -0.0180 -0.1121 -0.3327
66152DPG1  GM1527876  20.596  29.824  15.333 -0.0433 -0.0116  0.1977
66152DPG1  GM1627877  20.510  30.178  15.388  0.1393 -0.0578 -0.0222
66152DPG1  GM1727878  20.789  29.744  15.507  0.1825  0.0680 -0.2095
66152DPG1   AM127879  20.197  30.169  14.146  0.1012 -0.0517 -0.1231
66152DPG1   AM227880  19.852  30.022  14.226 -0.1946  0.2070 -0.1783
66152DPG1   T1A27881  19.995  30.136  13.740 -0.1138  0.1935  0.0804
66152DPG1   C2A27882  19.665  29.998  13.462  0.2053 -0.0176 -0.0510
66152DPG1   C3A27883  19.367  29.864  13.173  0.1983 -0.3295  0.1079
66152DPG1   C1B27884  19.568  30.004  14.000  0.0187 -0.1514  0.1246
66152DPG1   C2B27885  19.289  29.761  13.801  0.0544  0.0972 -0.2559
66152DPG1   C3B27886  18.931  29.740  13.576  0.4156 -0.1891  0.0560
66152DPG1   C4B27887  18.717  29.499  13.287  0.2228  0.0106 -0.1746
66153DPG1   GM127888  25.326  17.412   6.223 -0.1385 -0.0946 -0.0290
66153DPG1   GM227889  25.686  17.352   6.138 -0.2116 -0.0895 -0.3521
66153DPG1   GM327890  25.575  17.605   6.320 -0.0494 -0.2679  0.0892
66153DPG1   GM427891  25.892  17.744   6.287 -0.0398  0.0072  0.0972
66153DPG1   GM527892  25.628  17.764   6.581  0.0297  0.0954  0.1538
66153DPG1   GM627893  25.884  17.915   6.489 -0.0417  0.0299  0.0780
66153DPG1   GM727894  25.927  18.197   6.413 -0.0201  0.2410  0.2419
66153DPG1   GM827895  25.583  18.090   6.788 -0.3384 -0.0874 -0.1394
66153DPG1   GM927896  25.681  18.316   6.642  0.0893  0.0779  0.3014
66153DPG1  GM1027897  25.927  18.565   6.541  0.1148 -0.0807 -0.0355
66153DPG1  GM1127898  25.932  18.564   6.936  0.2329 -0.0558 -0.0369
66153DPG1  GM1227899  25.820  18.741   6.713  0.2594 -0.4480  0.4428
66153DPG1  GM1327900  26.228  18.027   6.528  0.2764  0.2101  0.2457
66153DPG1  GM1427901  26.269  17.684   6.579 -0.0251  0.0857 -0.3032
66153DPG1  GM1527902  26.038  17.853   6.808 -0.0737 -0.1272 -0.1938
66153DPG1  GM1627903  26.304  17.645   6.893 -0.0283 -0.0412 -0.0737
66153DPG1  GM1727904  26.022  18.033   7.018  0.0082 -0.1692 -0.2200
66153DPG1   AM127905  25.227  17.143   5.862  0.0961  0.1626  0.0830
66153DPG1   AM227906  24.906  17.258   5.982 -0.0024  0.1344  0.1705
66153DPG1   T1A27907  24.956  17.300   5.477 -0.4544 -0.0270 -0.3132
66153DPG1   C2A27908  24.611  17.204   5.224 -0.0414  0.0519  0.0685
66153DPG1   C3A27909  24.404  16.890   4.933 -0.2210 -0.1076 -0.0448
66153DPG1   C1B27910  24.587  17.253   5.773  0.2387  0.3055 -0.2904
66153DPG1   C2B27911  24.107  17.268   5.508 -0.0543 -0.2800 -0.2117
66153DPG1   C3B27912  24.006  17.130   5.083  0.1871  0.4718 -0.1994
66153DPG1   C4B27913  24.132  17.305   4.769 -0.1783 -0.0430 -0.1930
66154DPG1   GM127914  20.199  31.041  14.123 -0.0905  0.0537  0.3897
66154DPG1   GM227915  20.132  30.672  14.118  0.5933 -0.0733 -0.0589
66154DPG1   GM327916  20.324  30.817  14.330 -0.0714 -0.1800  0.1289
66154DPG1   GM427917  20.486  30.517  14.334 -0.0778 -0.1373  0.2347
66154DPG1   GM527918  20.557  30.806  14.595 -0.2008  0.2598 -0.1655
66154DPG1   GM627919  20.693  30.544  14.497 -0.1833 -0.0767  0.3601
66154DPG1   GM727920  20.994  30.561  14.400  0.1570  0.2600  0.0560
66154DPG1   GM827921  20.863  30.920  14.754 -0.0140  0.2498  0.0036
66154DPG1   GM927922  21.125  30.814  14.589  0.1218  0.3549  0.1096
66154DPG1  GM1027923  21.409  30.641  14.442 -0.1057  0.1627 -0.1067
66154DPG1  GM1127924  21.475  30.786  14.803 -0.1239  0.1573 -0.1012
66154DPG1  GM1227925  21.548  30.856  14.518 -0.1071  0.0665  0.1721
66154DPG1  GM1327926  20.838  30.192  14.496  0.0524 -0.1690  0.0470
66154DPG1  GM1427927  20.512  30.090  14.572 -0.0111 -0.0132 -0.0145
66154DPG1  GM1527928  20.673  30.305  14.821 -0.0724  0.1701 -0.1322
66154DPG1  GM1627929  20.514  30.047  14.906 -0.2534 -0.0532 -0.3669
66154DPG1  GM1727930  20.882  30.430  14.925 -0.1070  0.1676 -0.0240
66154DPG1   AM127931  19.840  31.008  13.893  0.0508  0.2867 -0.0085
66154DPG1   AM227932  20.019  31.357  13.757  0.1274  0.1216 -0.3058
66154DPG1   T1A27933  19.512  30.947  13.561 -0.1819  0.0296 -0.0946
66154DPG1   C2A27934  19.125  30.714  13.251 -0.0591  0.1286 -0.1823
66154DPG1   C3A27935  18.825  30.487  13.107 -0.2092  0.3056  0.0184
66154DPG1   C1B27936  19.892  31.605  13.525 -0.1530  0.1402 -0.0308
66154DPG1   C2B27937  19.488  31.490  13.256 -0.0184  0.4129  0.2352
66154DPG1   C3B27938  19.127  31.215  13.036  0.0013  0.0194 -0.3646
66154DPG1   C4B27939  18.944  31.213  12.731  0.0657 -0.0770 -0.1938
66155DPG1   GM127940  19.915  28.569  15.169 -0.0699  0.1952 -0.0620
66155DPG1   GM227941  20.216  28.783  15.104 -0.0634  0.2650  0.1924
66155DPG1   GM327942  20.186  28.585  15.357  0.0530 -0.3683 -0.1833
66155DPG1   GM427943  20.496  28.752  15.396  0.2956 -0.1489 -0.0291
66155DPG1   GM527944  20.454  28.379  15.522  0.1387 -0.0365  0.2543
66155DPG1   GM627945  20.673  28.595  15.515  0.1558 -0.2626  0.0305
66155DPG1   GM727946  20.783  28.670  15.803  0.1114 -0.0168  0.0309
66155DPG1   GM827947  20.653  28.168  15.753  0.0975 -0.0357  0.2547
66155DPG1   GM927948  20.725  28.365  15.977 -0.0930  0.2651  0.1961
66155DPG1  GM1027949  20.972  28.509  16.203  0.1278  0.0223  0.1115
66155DPG1  GM1127950  21.061  28.156  16.049  0.0736  0.1838 -0.2960
66155DPG1  GM1227951  20.978  28.273  16.331  0.0873 -0.0721 -0.0587
66155DPG1  GM1327952  20.955  28.823  15.520  0.0555 -0.3022  0.0226
66155DPG1  GM1427953  20.914  28.849  15.174 -0.0617  0.0359  0.0598
66155DPG1  GM1527954  20.995  28.514  15.301  0.1234 -0.0613 -0.3073
66155DPG1  GM1627955  21.170  28.657  15.045  0.0713 -0.1990  0.1479
66155DPG1  GM1727956  21.030  28.316  15.477  0.1498  0.3352 -0.2872
66155DPG1   AM127957  19.510  28.832  15.082 -0.0374  0.0036 -0.2467
66155DPG1   AM227958  19.353  28.595  15.323  0.0255  0.0320  0.0361
66155DPG1   T1A27959  19.120  28.844  14.920  0.0947 -0.0627 -0.0846
66155DPG1   C2A27960  18.776  28.567  14.750  0.2286  0.1277 -0.0449
66155DPG1   C3A27961  18.444  28.124  14.735 -0.3689 -0.0290  0.2126
66155DPG1   C1B27962  18.991  28.519  15.324 -0.3091 -0.1109 -0.2234
66155DPG1   C2B27963  18.594  28.348  15.218  0.2919 -0.0064 -0.1042
66155DPG1   C3B27964  18.095  28.227  15.144  0.1812 -0.3060  0.1244
66155DPG1   C4B27965  17.848  27.957  15.313 -0.2606  0.1089  0.2476
66156DPG1   GM127966  31.791  11.290   6.101 -0.0233 -0.0365 -0.0127
66156DPG1   GM227967  31.564  11.090   5.879  0.1019 -0.0815 -0.1009
66156DPG1   GM327968  31.463  11.303   6.066 -0.0501 -0.2883  0.1340
66156DPG1   GM427969  31.156  11.233   5.899  0.1198  0.0767 -0.1366
66156DPG1   GM527970  31.231  11.541   6.137 -0.1005 -0.1002  0.1653
66156DPG1   GM627971  30.978  11.390   6.015  0.1030  0.1059 -0.2020
66156DPG1   GM727972  30.749  11.205   6.153  0.0370 -0.0664  0.1507
66156DPG1   GM827973  30.864  11.623   6.442 -0.1603  0.2069 -0.1625
66156DPG1   GM927974  30.698  11.354   6.471  0.1155 -0.1579 -0.0268
66156DPG1  GM1027975  30.385  11.172   6.434 -0.0122  0.0400  0.0655
66156DPG1  GM1127976  30.314  11.560   6.415 -0.2554 -0.0128 -0.1330
66156DPG1  GM1227977  30.292  11.344   6.617  0.1800  0.1342  0.0758
66156DPG1  GM1327978  30.725  11.271   5.804  0.1878  0.0377  0.1199
66156DPG1  GM1427979  30.847  11.467   5.541  0.1030 -0.0509  0.0143
66156DPG1  GM1527980  30.687  11.650   5.816 -0.1969  0.0128 -0.1991
66156DPG1  GM1627981  30.656  11.712   5.487 -0.3989  0.0652  0.3455
66156DPG1  GM1727982  30.598  11.692   6.040  0.2869 -0.0860 -0.0666
66156DPG1   AM127983  32.140  11.139   5.830  0.0254 -0.2136 -0.0252
66156DPG1   AM227984  31.965  11.239   5.537  0.2802  0.4007  0.0368
66156DPG1   T1A27985  32.398  10.840   5.539  0.2809  0.2929 -0.0590
66156DPG1   C2A27986  32.666  10.755   5.266  0.1621 -0.0470 -0.3842
66156DPG1   C3A27987  32.706  10.656   4.816 -0.0221 -0.0826 -0.4860
66156DPG1   C1B27988  32.005  11.064   5.206  0.0447  0.1220 -0.0390
66156DPG1   C2B27989  32.300  10.963   4.900  0.0405  0.0001  0.1950
66156DPG1   C3B27990  32.442  10.974   4.497 -0.0195 -0.2390 -0.0976
66156DPG1   C4B27991  32.761  11.082   4.206  0.1531 -0.1478 -0.1265
66157DPG1   GM127992  25.484  15.243   6.657 -0.3955  0.0759 -0.2154
66157DPG1   GM227993  25.192  15.113   6.854  0.0014 -0.1963  0.2054
66157DPG1   GM327994  25.493  15.043   6.920 -0.1047  0.3477 -0.0138
66157DPG1   GM427995  25.292  14.838   7.130 -0.1887  0.1756 -0.0130
66157DPG1   GM527996  25.661  14.976   7.172 -0.1679  0.0280  0.3080
66157DPG1   GM627997  25.500  14.738   7.260 -0.0037  0.1262 -0.3425
66157DPG1   GM727998  25.522  14.455   7.145 -0.0130 -0.3043  0.0694
66157DPG1   GM827999  25.972  14.702   7.235 -0.1785  0.0213  0.0103
66157DPG1   GM928000  25.845  14.413   7.139 -0.1919  0.0376 -0.1840
66157DPG1  GM1028001  25.713  14.081   7.210  0.3565 -0.1398  0.0297
66157DPG1  GM1128002  25.819  14.273   7.539  0.2616  0.0384 -0.0434
66157DPG1  GM1228003  25.937  14.069   7.357  0.3719  0.1390  0.0311
66157DPG1  GM1328004  25.364  14.467   7.471 -0.1108 -0.0923  0.0509
66157DPG1  GM1428005  25.164  14.724   7.602  0.1324  0.0453  0.1565
66157DPG1  GM1528006  25.527  14.775   7.627  0.1825 -0.2402  0.0398
66157DPG1  GM1628007  25.273  14.738   7.917  0.2928  0.2280  0.1976
66157DPG1  GM1728008  25.761  14.713   7.701  0.1111  0.1716  0.0286
66157DPG1   AM128009  25.309  15.056   6.225  0.0037 -0.0656  0.3627
66157DPG1   AM228010  25.019  15.172   6.396 -0.1341 -0.1453 -0.0538
66157DPG1   T1A28011  25.105  14.913   5.833 -0.0256 -0.0267 -0.1585
66157DPG1   C2A28012  24.735  14.857   5.661 -0.0056 -0.0797  0.2923
66157DPG1   C3A28013  24.538  14.881   5.293 -0.1326  0.1165 -0.0755
66157DPG1   C1B28014  24.748  15.419   6.342  0.0574 -0.1772  0.0838
66157DPG1   C2B28015  24.331  15.476   6.112  0.1272  0.2024 -0.1854
66157DPG1   C3B28016  24.035  15.430   5.821  0.0525 -0.1284  0.4133
66157DPG1   C4B28017  23.870  15.439   5.520  0.0619  0.2649  0.0467
66158DPG1   GM128018  26.300  27.376   8.523 -0.1328 -0.3125 -0.0340
66158DPG1   GM228019  26.303  27.638   8.792  0.3154 -0.0333 -0.3018
66158DPG1   GM328020  26.328  27.335   8.849 -0.1847 -0.2937 -0.0272
66158DPG1   GM428021  26.400  27.488   9.161  0.1704  0.0855 -0.1102
66158DPG1   GM528022  26.380  27.095   9.117 -0.0511  0.0825  0.0133
66158DPG1   GM628023  26.274  27.309   9.310 -0.2672  0.3960 -0.0965
66158DPG1   GM728024  25.980  27.351   9.329 -0.0457 -0.0594 -0.3676
66158DPG1   GM828025  26.086  26.852   9.225  0.1458 -0.0908 -0.0287
66158DPG1   GM928026  25.847  27.027   9.289  0.1524 -0.0932 -0.3992
66158DPG1  GM1028027  25.632  27.229   9.502  0.2362 -0.0063 -0.3963
66158DPG1  GM1128028  25.698  26.846   9.572  0.2708  0.0646 -0.0271
66158DPG1  GM1228029  25.479  27.014   9.548 -0.1065  0.2767 -0.1778
66158DPG1  GM1328030  26.198  27.460   9.607 -0.0077  0.0970 -0.2862
66158DPG1  GM1428031  26.543  27.429   9.653 -0.0501  0.0903  0.0373
66158DPG1  GM1528032  26.353  27.116   9.653 -0.0884  0.1132  0.1258
66158DPG1  GM1628033  26.651  27.178   9.862 -0.1027 -0.1659 -0.3696
66158DPG1  GM1728034  26.160  26.982   9.773 -0.1063  0.0684  0.2212
66158DPG1   AM128035  26.066  27.718   8.229 -0.1292  0.2411  0.2025
66158DPG1   AM228036  26.390  27.666   8.065  0.1334 -0.0675  0.2882
66158DPG1   T1A28037  26.131  28.029   7.882 -0.0044  0.0024  0.0100
66158DPG1   C2A28038  26.151  28.397   7.613 -0.2236  0.1701 -0.1724
66158DPG1   C3A28039  26.442  28.679   7.356 -0.2459  0.2178  0.1257
66158DPG1   C1B28040  26.607  27.943   7.931  0.1184 -0.2277  0.1634
66158DPG1   C2B28041  26.621  28.233   7.578 -0.2552  0.4333 -0.0651
66158DPG1   C3B28042  26.763  28.381   7.175 -0.0607  0.2356  0.0740
66158DPG1   C4B28043  27.142  28.576   6.988 -0.1776 -0.2003  0.0312
66159DPG1   GM128044   2.940  24.579  16.345  0.4621 -0.1834  0.0011
66159DPG1   GM228045   2.738  24.269  16.408  0.3965 -0.1235  0.0862
66159DPG1   GM328046   2.913  24.323  16.139  0.1021 -0.0779 -0.0867
66159DPG1   GM428047   2.753  24.026  16.030 -0.0074  0.1805 -0.0614
66159DPG1   GM528048   3.093  24.144  15.866  0.1708  0.0431  0.2050
66159DPG1   GM628049   2.824  23.981  15.779  0.0431 -0.0685 -0.0042
66159DPG1   GM728050   2.569  24.091  15.574 -0.2434  0.1141 -0.0850
66159DPG1   GM828051   3.025  24.144  15.328 -0.1895  0.0231 -0.0053
66159DPG1   GM928052   2.734  24.148  15.285  0.1620 -0.3627  0.0043
66159DPG1  GM1028053   2.407  23.994  15.243  0.0002 -0.0281  0.0293
66159DPG1  GM1128054   2.664  23.893  14.960 -0.0145  0.1125 -0.0355
66159DPG1  GM1228055   2.420  24.074  14.987 -0.0909 -0.0129  0.0294
66159DPG1  GM1328056   2.566  23.720  15.748  0.1096 -0.0002 -0.1286
66159DPG1  GM1428057   2.769  23.517  15.949 -0.1306 -0.1754 -0.0600
66159DPG1  GM1528058   2.916  23.625  15.630  0.2259  0.0458  0.1758
66159DPG1  GM1628059   2.935  23.323  15.767 -0.1944  0.1842 -0.1824
66159DPG1  GM1728060   2.836  23.658  15.353 -0.3185  0.2651 -0.2513
66159DPG1   AM128061   2.741  24.889  16.679  0.2656  0.1178  0.2324
66159DPG1   AM228062   3.091  24.958  16.674  0.3375 -0.2270  0.0423
66159DPG1   T1A28063   2.867  25.328  16.839  0.1271 -0.2901 -0.0705
66159DPG1   C2A28064   3.077  25.673  16.668  0.1825  0.0030  0.0977
66159DPG1   C3A28065   3.163  25.784  16.210 -0.1310  0.1051 -0.3018
66159DPG1   C1B28066   3.312  25.245  16.530 -0.1358 -0.0813 -0.0067
66159DPG1   C2B28067   3.647  25.539  16.428 -0.2155 -0.2193 -0.0611
66159DPG1   C3B28068   3.654  25.936  16.299 -0.2170 -0.0557  0.1325
66159DPG1   C4B28069   3.375  26.130  15.918  0.3961  0.1235  0.0229
66160DPG1   GM128070  31.776  12.797   5.103 -0.0871  0.0139 -0.2462
66160DPG1   GM228071  31.677  12.448   5.006  0.1879 -0.1435  0.0308
66160DPG1   GM328072  31.525  12.619   5.224  0.0065 -0.0166 -0.0955
66160DPG1   GM428073  31.309  12.344   5.232  0.3895  0.0410  0.1006
66160DPG1   GM528074  31.229  12.664   5.450  0.2086  0.0096  0.0814
66160DPG1   GM628075  31.128  12.369   5.423 -0.1584 -0.5200 -0.3194
66160DPG1   GM728076  31.146  12.139   5.646  0.0452 -0.0474 -0.0041
66160DPG1   GM828077  31.135  12.637   5.801  0.3263  0.0123 -0.1723
66160DPG1   GM928078  31.132  12.338   5.915 -0.0976 -0.0408 -0.0345
66160DPG1  GM1028079  30.964  12.015   5.897 -0.1484 -0.0165  0.0006
66160DPG1  GM1128080  30.926  12.260   6.205  0.1867 -0.2167  0.2044
66160DPG1  GM1228081  30.994  11.980   6.161  0.2715  0.2530 -0.0074
66160DPG1  GM1328082  30.870  12.133   5.366  0.0990 -0.0273  0.1326
66160DPG1  GM1428083  30.816  12.304   5.065  0.3136 -0.1157  0.0433
66160DPG1  GM1528084  30.741  12.492   5.371  0.4660  0.1096 -0.0561
66160DPG1  GM1628085  30.575  12.566   5.045 -0.1953  0.0524  0.1708
66160DPG1  GM1728086  30.679  12.536   5.644  0.0263 -0.0014 -0.2846
66160DPG1   AM128087  32.200  12.695   4.994 -0.1014  0.2677  0.0893
66160DPG1   AM228088  32.014  12.822   4.705 -0.1137 -0.1507 -0.1381
66160DPG1   T1A28089  32.371  12.501   4.590 -0.0068  0.0855 -0.1617
66160DPG1   C2A28090  32.558  12.509   4.206  0.0692 -0.3470 -0.3630
66160DPG1   C3A28091  32.696  12.764   3.844 -0.1513 -0.0542 -0.1581
66160DPG1   C1B28092  32.056  12.808   4.347 -0.0049 -0.0249  0.2734
66160DPG1   C2B28093  32.234  12.840   3.999  0.1081  0.0515 -0.0416
66160DPG1   C3B28094  32.125  12.899   3.609 -0.1161 -0.0899  0.0332
66160DPG1   C4B28095  32.033  13.038   3.112  0.1688 -0.0192 -0.1501
66161DPG1   GM128096  26.203  13.163   6.020 -0.2697 -0.1270  0.0980
66161DPG1   GM228097  26.320  12.866   6.216  0.3597 -0.0066 -0.0841
66161DPG1   GM328098  26.129  13.110   6.337  0.0958  0.0421  0.2150
66161DPG1   GM428099  26.165  12.966   6.655  0.0105  0.4720 -0.2722
66161DPG1   GM528100  25.800  12.936   6.505  0.0056 -0.2074 -0.1399
66161DPG1   GM628101  25.958  12.877   6.794  0.0479  0.2515 -0.3558
66161DPG1   GM728102  25.918  13.030   7.059 -0.0430  0.1267 -0.0160
66161DPG1   GM828103  25.485  12.895   6.802  0.0991  0.2704 -0.3334
66161DPG1   GM928104  25.589  13.013   7.066 -0.1427 -0.2863  0.0283
66161DPG1  GM1028105  25.721  12.971   7.403 -0.0374  0.1232  0.0407
66161DPG1  GM1128106  25.430  12.743   7.264 -0.0771  0.2118 -0.0233
66161DPG1  GM1228107  25.468  12.944   7.485  0.0028  0.2214  0.1999
66161DPG1  GM1328108  26.109  12.746   7.096  0.3315 -0.1489  0.1956
66161DPG1  GM1428109  26.289  12.534   6.883  0.1206 -0.1759  0.0429
66161DPG1  GM1528110  25.926  12.483   6.891  0.0903  0.0493  0.1550
66161DPG1  GM1628111  26.131  12.239   6.857  0.1371  0.2879 -0.0043
66161DPG1  GM1728112  25.702  12.475   6.975 -0.1594 -0.1109  0.2668
66161DPG1   AM128113  26.587  13.037   5.723 -0.0100  0.0587  0.0342
66161DPG1   AM228114  26.463  13.332   5.597 -0.0037 -0.0181  0.0628
66161DPG1   T1A28115  26.417  12.904   5.311  0.2162  0.1008  0.0461
66161DPG1   C2A28116  26.219  12.907   4.965 -0.0943 -0.1664  0.0410
66161DPG1   C3A28117  25.940  12.848   4.603 -0.0124  0.0292 -0.0341
66161DPG1   C1B28118  26.306  13.435   5.282 -0.1963 -0.1443 -0.2792
66161DPG1   C2B28119  26.064  13.387   4.903 -0.2767  0.2359 -0.2994
66161DPG1   C3B28120  25.898  13.324   4.596  0.1188  0.1047  0.0668
66161DPG1   C4B28121  25.622  13.156   4.391  0.0990  0.3976  0.0345
66162DPG1   GM128122  13.339  16.964  19.466  0.2525 -0.0730  0.0357
66162DPG1   GM228123  13.293  16.769  19.783 -0.1052 -0.1728 -0.0752
66162DPG1   GM328124  13.255  16.649  19.514  0.1340 -0.0693 -0.1429
66162DPG1   GM428125  13.163  16.391  19.748  0.0082 -0.1002 -0.1277
66162DPG1   GM528126  13.417  16.282  19.465 -0.2822 -0.4703 -0.2514
66162DPG1   GM628127  13.249  16.147  19.692  0.1535 -0.0735 -0.0244
66162DPG1   GM728128  12.983  15.946  19.748 -0.0749 -0.0085  0.0366
66162DPG1   GM828129  13.286  15.776  19.360  0.0786  0.0034  0.1511
66162DPG1   GM928130  13.094  15.673  19.588 -0.1090  0.2535 -0.1035
66162DPG1  GM1028131  12.979  15.512  19.893  0.0650  0.1324 -0.1007
66162DPG1  GM1128132  13.367  15.457  19.845  0.0190 -0.0868 -0.2269
66162DPG1  GM1228133  13.107  15.288  19.822 -0.0413  0.0252  0.0423
66162DPG1  GM1328134  13.252  15.926  19.987 -0.0945  0.0319  0.0381
66162DPG1  GM1428135  13.427  16.212  20.088  0.0275  0.0242 -0.1491
66162DPG1  GM1528136  13.592  16.005  19.833 -0.0493 -0.2266  0.0033
66162DPG1  GM1628137  13.763  16.193  20.061 -0.3767  0.0104  0.0085
66162DPG1  GM1728138  13.686  15.793  19.713 -0.1490 -0.1019  0.0502
66162DPG1   AM128139  13.457  17.383  19.650  0.1781 -0.2405  0.2277
66162DPG1   AM228140  13.516  17.413  19.292 -0.3463  0.1878  0.0988
66162DPG1   T1A28141  13.458  17.827  19.555  0.2395 -0.0093  0.1138
66162DPG1   C2A28142  13.565  18.052  19.156 -0.0189 -0.2257 -0.1684
66162DPG1   C3A28143  13.489  18.090  18.769 -0.2646  0.0081  0.0533
66162DPG1   C1B28144  13.790  17.568  19.106  0.4232 -0.2252 -0.0906
66162DPG1   C2B28145  13.938  17.661  18.689 -0.0831 -0.2122 -0.0631
66162DPG1   C3B28146  13.757  17.854  18.406 -0.2685  0.0201 -0.3079
66162DPG1   C4B28147  13.576  17.974  18.018  0.2425  0.3327 -0.1665
66163DPG1   GM128148  19.762   1.518  14.636 -0.0303 -0.1824 -0.1515
66163DPG1   GM228149  19.459   1.424  14.436 -0.1291 -0.1311 -0.0272
66163DPG1   GM328150  19.581   1.244  14.666 -0.0805 -0.0861  0.4958
66163DPG1   GM428151  19.335   1.020  14.542  0.1329  0.0858  0.0668
66163DPG1   GM528152  19.546   0.932  14.865 -0.3223  0.0832  0.3677
66163DPG1   GM628153  19.340   0.801  14.690  0.0418  0.0235 -0.0219
66163DPG1   GM728154  19.408   0.566  14.520  0.1516  0.2034  0.0593
66163DPG1   GM828155  19.580   0.542  15.011 -0.2210 -0.2187  0.1726
66163DPG1   GM928156  19.543   0.374  14.770  0.4544 -0.0816 -0.2883
66163DPG1  GM1028157  19.332   0.217  14.519  0.0144 -0.0243  0.0407
66163DPG1  GM1128158  19.272   0.120  14.897  0.0901 -0.3340 -0.0254
66163DPG1  GM1228159  19.411  35.368  14.623  0.0594  0.0192  0.1045
66163DPG1  GM1328160  19.069   0.597  14.599 -0.2245 -0.0418  0.0712
66163DPG1  GM1428161  18.886   0.896  14.603 -0.1241  0.0210 -0.0138
66163DPG1  GM1528162  18.984   0.764  14.931 -0.0446  0.1576  0.0180
66163DPG1  GM1628163  18.734   0.950  14.878  0.0104 -0.0504  0.1087
66163DPG1  GM1728164  19.024   0.581  15.110 -0.1526  0.3962  0.0485
66163DPG1   AM128165  19.476   1.886  14.687  0.1404  0.2159  0.0053
66163DPG1   AM228166  19.660   1.963  14.381 -0.0029 -0.1317  0.1855
66163DPG1   T1A28167  19.105   2.185  14.580  0.1167  0.0282  0.1697
66163DPG1   C2A28168  18.902   2.460  14.386  0.0275  0.0865 -0.0306
66163DPG1   C3A28169  18.777   2.562  13.982  0.1251 -0.0705 -0.2162
66163DPG1   C1B28170  19.517   2.199  14.120 -0.1271 -0.0445  0.0251
66163DPG1   C2B28171  19.274   2.413  13.834  0.4097  0.0011  0.0850
66163DPG1   C3B28172  19.001   2.589  13.515 -0.0926  0.1164 -0.1764
66163DPG1   C4B28173  18.935   2.940  13.333 -0.6316 -0.0215 -0.0513
66164DPG3   GM128174  31.949  17.181   4.686  0.1535 -0.1024 -0.0134
66164DPG3   GM228175  31.929  17.100   5.051  0.1015 -0.3899 -0.0794
66164DPG3   GM328176  32.137  17.323   4.917  0.0244 -0.0851  0.0814
66164DPG3   GM428177  32.196  17.412   5.253 -0.0254  0.1675  0.0385
66164DPG3   GM528178  32.074  17.655   4.965 -0.0454 -0.0191 -0.1114
66164DPG3   GM628179  32.239  17.672   5.231 -0.2818  0.2146  0.0883
66164DPG3  GM1328180  32.327  17.790   5.579  0.0600 -0.1010 -0.0097
66164DPG3  GM1428181  32.014  17.665   5.672  0.0122 -0.0032 -0.0367
66164DPG3  GM1528182  32.011  17.951   5.441  0.1230 -0.0429 -0.0880
66164DPG3  GM1628183  31.771  17.921   5.696  0.0298  0.0437 -0.0823
66164DPG3  GM1728184  32.119  18.146   5.305  0.1951  0.1617  0.1721
66164DPG3   AM128185  32.136  16.858   4.408  0.1410 -0.0322  0.0970
66164DPG3   AM228186  32.423  17.069   4.552  0.3911  0.1954 -0.0962
66164DPG3   T1A28187  32.319  16.831   3.993 -0.0375 -0.3089 -0.3225
66164DPG3   C2A28188  32.322  16.654   3.493 -0.1034  0.5232 -0.1008
66164DPG3   C3A28189  32.285  16.620   2.940  0.1054  0.0723  0.2061
66164DPG3   C1B28190  32.611  17.259   4.308  0.1173  0.4723  0.1208
66164DPG3   C2B28191  32.705  17.186   4.001 -0.0023  0.0697 -0.1451
66164DPG3   C3B28192  32.606  16.984   3.633 -0.1754  0.1020  0.1445
66164DPG3   C4B28193  32.698  16.806   3.109 -0.2661  0.0041 -0.1267
66165DPG3   GM128194  27.573  24.099   6.435  0.0864  0.1191  0.3347
66165DPG3   GM228195  27.243  24.112   6.613 -0.0820 -0.1004  0.0436
66165DPG3   GM328196  27.521  24.106   6.761 -0.3813  0.0468  0.2658
66165DPG3   GM428197  27.302  24.086   7.028  0.2165  0.0819 -0.2793
66165DPG3   GM528198  27.667  24.240   7.020  0.2188  0.0825 -0.1716
66165DPG3   GM628199  27.438  24.184   7.234  0.1252  0.1246 -0.2390
66165DPG3  GM1328200  27.206  24.179   7.510 -0.0037  0.0479  0.1791
66165DPG3  GM1428201  27.030  24.350   7.260  0.1779 -0.0562 -0.0206
66165DPG3  GM1528202  27.315  24.529   7.406  0.2105 -0.0848 -0.0479
66165DPG3  GM1628203  27.042  24.680   7.322 -0.1336 -0.3860 -0.0951
66165DPG3  GM1728204  27.511  24.577   7.614 -0.1582 -0.2202  0.0325
66165DPG3   AM128205  27.507  24.310   6.015  0.1388  0.0251 -0.0379
66165DPG3   AM228206  27.183  24.128   6.050  0.1973  0.1338  0.3381
66165DPG3   T1A28207  27.223  24.472   5.667 -0.0313  0.0452  0.2238
66165DPG3   C2A28208  27.047  24.626   5.348  0.1774  0.0654 -0.2281
66165DPG3   C3A28209  26.963  24.860   5.097 -0.0558  0.0142 -0.1315
66165DPG3   C1B28210  26.874  24.066   5.854  0.1362 -0.1967 -0.2649
66165DPG3   C2B28211  26.741  24.258   5.507 -0.1800  0.3160  0.1424
66165DPG3   C3B28212  26.594  24.513   5.199 -0.0895 -0.0403  0.0376
66165DPG3   C4B28213  26.454  24.875   5.164 -0.1497 -0.1442 -0.4145
66166DPG3   GM128214  17.491   1.312  15.373 -0.2199 -0.0429 -0.0470
66166DPG3   GM228215  17.852   1.215  15.339 -0.2289 -0.1223  0.0805
66166DPG3   GM328216  17.692   1.208  15.613 -0.1227  0.1772 -0.0322
66166DPG3   GM428217  18.026   1.133  15.684  0.3833 -0.0896 -0.0963
66166DPG3   GM528218  17.744   0.954  15.896  0.2391  0.1865 -0.0515
66166DPG3   GM628219  18.044   1.002  15.913 -0.2773 -0.0180  0.0040
66166DPG3  GM1328220  18.392   0.892  15.885  0.0893 -0.2153 -0.0391
66166DPG3  GM1428221  18.307   0.822  15.553 -0.0660 -0.2366  0.0050
66166DPG3  GM1528222  18.149   0.609  15.807  0.0205 -0.1933  0.0953
66166DPG3  GM1628223  18.243   0.498  15.535 -0.0925  0.0753 -0.0532
66166DPG3  GM1728224  18.119   0.482  16.048  0.0850 -0.0362 -0.0552
66166DPG3   AM128225  17.345   1.228  14.928 -0.1455 -0.1438  0.0171
66166DPG3   AM228226  17.060   1.019  15.060 -0.0669  0.1317  0.3497
66166DPG3   T1A28227  17.071   1.275  14.551 -0.0599  0.1575  0.1516
66166DPG3   C2A28228  16.896   1.390  14.168  0.1975  0.1702  0.0210
66166DPG3   C3A28229  16.725   1.488  13.773  0.4513  0.0541 -0.1208
66166DPG3   C1B28230  16.840   0.909  14.784 -0.1129 -0.1990  0.0060
66166DPG3   C2B28231  16.535   0.900  14.478  0.1448 -0.3857 -0.0437
66166DPG3   C3B28232  16.341   0.647  14.180 -0.1504  0.0308 -0.0703
66166DPG3   C4B28233  15.969   0.778  13.776  0.0460  0.1721 -0.1394
66167DPG3   GM128234  18.408  35.280  14.838 -0.2451  0.0835 -0.3514
66167DPG3   GM228235  18.501  34.948  14.689 -0.0036 -0.0103 -0.0005
66167DPG3   GM328236  18.632  35.222  14.602 -0.0722  0.0502 -0.1804
66167DPG3   GM428237  18.750  34.973  14.375  0.1581 -0.1937  0.0640
66167DPG3   GM528238  18.960  35.203  14.619 -0.0599 -0.0015  0.0722
66167DPG3   GM628239  19.005  35.039  14.348  0.1675 -0.2125  0.1058
66167DPG3  GM1328240  19.106  34.792  14.136 -0.2997  0.1536  0.1259
66167DPG3  GM1428241  19.020  34.571  14.394 -0.1388 -0.0379  0.0170
66167DPG3  GM1528242  19.318  34.777  14.452 -0.1520 -0.0195  0.0193
66167DPG3  GM1628243  19.299  34.471  14.537  0.2485  0.1471 -0.1180
66167DPG3  GM1728244  19.546  34.884  14.423  0.0059 -0.1173  0.1951
66167DPG3   AM128245  17.926  35.218  14.909  0.0581 -0.3363 -0.1695
66167DPG3   AM228246  18.053  34.889  14.894  0.0916  0.4739  0.0243
66167DPG3   T1A28247  17.526  35.063  14.684  0.0091 -0.2697 -0.1721
66167DPG3   C2A28248  17.323  35.033  14.387  0.0656  0.0263  0.0453
66167DPG3   C3A28249  17.091  34.962  14.149  0.2365  0.0144  0.0099
66167DPG3   C1B28250  17.869  34.580  14.803  0.2073 -0.0095  0.0910
66167DPG3   C2B28251  17.487  34.601  14.471 -0.1510  0.0028 -0.1525
66167DPG3   C3B28252  17.151  34.461  14.137 -0.1742  0.2942  0.1472
66167DPG3   C4B28253  16.829  34.611  13.916  0.0443 -0.2197  0.0311
66168DPG3   GM128254  25.534  19.312   5.544 -0.0826  0.2851 -0.0235
66168DPG3   GM228255  25.560  19.307   5.918  0.2070  0.3105 -0.0419
66168DPG3   GM328256  25.804  19.247   5.721 -0.2685 -0.2658  0.0665
66168DPG3   GM428257  25.924  19.232   6.058  0.0478 -0.0297 -0.2765
66168DPG3   GM528258  26.070  19.419   5.740 -0.3241  0.3988 -0.1997
66168DPG3   GM628259  26.165  19.342   6.034  0.0119  0.0732 -0.1641
66168DPG3  GM1328260  26.231  19.489   6.363  0.1418  0.0238  0.0325
66168DPG3  GM1428261  25.940  19.666   6.281  0.0667 -0.1333 -0.0441
66168DPG3  GM1528262  26.232  19.730   6.067  0.0484 -0.0808 -0.0537
66168DPG3  GM1628263  26.014  19.975   6.188  0.1004  0.0379 -0.1480
66168DPG3  GM1728264  26.443  19.746   5.980 -0.1609 -0.0524 -0.0515
66168DPG3   AM128265  25.333  19.751   5.463 -0.0818 -0.0244 -0.3963
66168DPG3   AM228266  25.280  19.713   5.819 -0.0303 -0.1122 -0.1448
66168DPG3   T1A28267  24.940  19.920   5.336 -0.0333 -0.0753  0.0043
66168DPG3   C2A28268  24.545  20.084   5.211  0.2656 -0.1010 -0.0751
66168DPG3   C3A28269  24.310  20.378   5.196  0.3016  0.2849 -0.0688
66168DPG3   C1B28270  24.977  19.793   6.005 -0.1724  0.0633 -0.0079
66168DPG3   C2B28271  24.717  19.915   5.766  0.0064 -0.1413 -0.0666
66168DPG3   C3B28272  24.329  20.194   5.647 -0.5025 -0.1260 -0.2817
66168DPG3   C4B28273  23.926  20.371   5.529 -0.1000  0.0567 -0.3586
66169DPG3   GM128274  25.303  26.729   8.716  0.0754 -0.0897  0.0016
66169DPG3   GM228275  25.230  26.369   8.793 -0.2716 -0.0056  0.0713
66169DPG3   GM328276  25.515  26.531   8.873 -0.1560 -0.0836  0.3250
66169DPG3   GM428277  25.595  26.225   8.990  0.2939 -0.1022 -0.1686
66169DPG3   GM528278  25.701  26.585   9.115  0.0302 -0.1104  0.0834
66169DPG3   GM628279  25.817  26.293   9.118  0.0269  0.3204  0.0791
66169DPG3  GM1328280  25.942  26.024   9.301  0.2354  0.1597  0.0954
66169DPG3  GM1428281  25.649  26.023   9.491  0.0522  0.1108 -0.1848
66169DPG3  GM1528282  25.853  26.327   9.515  0.1270  0.0305  0.2337
66169DPG3  GM1628283  25.702  26.206   9.757 -0.1721  0.1299  0.4823
66169DPG3  GM1728284  26.081  26.518   9.562  0.0271 -0.0837 -0.1400
66169DPG3   AM128285  24.921  26.935   8.760  0.1092 -0.0042 -0.0421
66169DPG3   AM228286  25.017  27.121   8.469 -0.0002 -0.0348 -0.0834
66169DPG3   T1A28287  24.741  27.390   8.806  0.1624 -0.1073 -0.3747
66169DPG3   C2A28288  24.272  27.530   8.758  0.1502  0.2501 -0.2229
66169DPG3   C3A28289  23.961  27.711   8.519  0.4459  0.1394 -0.0386
66169DPG3   C1B28290  24.771  27.260   8.235 -0.2101 -0.0705  0.0998
66169DPG3   C2B28291  24.335  27.470   8.279 -0.2384  0.0222  0.3166
66169DPG3   C3B28292  24.010  27.547   7.983 -0.1427 -0.3749 -0.0702
66169DPG3   C4B28293  23.835  27.642   7.581 -0.2732  0.2535  0.2442
66170DPG3   GM128294  26.562  18.624   4.605  0.0320  0.0833  0.0634
66170DPG3   GM228295  26.644  18.463   4.933 -0.1080 -0.1559 -0.0175
66170DPG3   GM328296  26.674  18.765   4.881  0.2853 -0.3619  0.1932
66170DPG3   GM428297  26.777  18.731   5.209  0.0926  0.1778 -0.1361
66170DPG3   GM528298  26.601  19.072   5.114  0.2189  0.1636 -0.4276
66170DPG3   GM628299  26.764  18.956   5.348  0.0108  0.0410  0.0805
66170DPG3  GM1328300  26.792  18.853   5.695 -0.0794 -0.1674  0.0910
66170DPG3  GM1428301  26.474  18.734   5.608 -0.0118 -0.1340 -0.2055
66170DPG3  GM1528302  26.508  19.099   5.631 -0.0880 -0.1505  0.1935
66170DPG3  GM1628303  26.216  18.913   5.739  0.0382  0.0435  0.1212
66170DPG3  GM1728304  26.613  19.336   5.705 -0.2578  0.0408  0.1480
66170DPG3   AM128305  26.157  18.408   4.587 -0.3011 -0.2273  0.2059
66170DPG3   AM228306  26.100  18.696   4.322 -0.4406  0.1242  0.0178
66170DPG3   T1A28307  25.929  18.214   4.242 -0.1152  0.2688 -0.1375
66170DPG3   C2A28308  25.572  18.266   3.925  0.0344  0.1807 -0.4117
66170DPG3   C3A28309  25.322  18.206   3.654  0.3305  0.2177  0.1991
66170DPG3   C1B28310  25.970  18.701   3.984  0.1237 -0.4368 -0.5797
66170DPG3   C2B28311  25.736  18.671   3.696  0.2917  0.2820  0.1924
66170DPG3   C3B28312  25.442  18.692   3.335 -0.0694  0.1854  0.2313
66170DPG3   C4B28313  25.208  18.433   3.115 -0.0060 -0.0060  0.2306
66171DPG3   GM128314   0.671  14.990   8.438  0.3818  0.0116  0.3063
66171DPG3   GM228315   0.672  15.275   8.682  0.0606  0.0900  0.2185
66171DPG3   GM328316   0.447  15.231   8.465 -0.0624 -0.3438 -0.1265
66171DPG3   GM428317   0.399  15.562   8.589  0.2740  0.1813  0.2660
66171DPG3   GM528318   0.095  15.328   8.490  0.3759  0.1912 -0.0740
66171DPG3   GM628319   0.149  15.630   8.533  0.1469 -0.2794  0.2524
66171DPG3  GM1328320   0.123  15.949   8.692 -0.0817 -0.1361  0.0043
66171DPG3  GM1428321   0.250  15.797   8.981  0.0611 -0.1137 -0.0467
66171DPG3  GM1528322  35.304  15.682   8.872 -0.0006 -0.1098  0.1357
66171DPG3  GM1628323   0.036  15.770   9.218 -0.1737  0.1673  0.0945
66171DPG3  GM1728324  35.017  15.730   8.780 -0.0223 -0.0271  0.2015
66171DPG3   AM128325   0.723  14.601   8.655  0.1532  0.1065  0.3794
66171DPG3   AM228326   0.482  14.520   8.419  0.0706  0.3245 -0.0159
66171DPG3   T1A28327   1.008  14.308   8.461 -0.0291  0.1214 -0.0417
66171DPG3   C2A28328   1.313  14.109   8.278 -0.2250  0.0436  0.0011
66171DPG3   C3A28329   1.662  14.022   8.102 -0.3089 -0.1754  0.1474
66171DPG3   C1B28330   0.536  14.305   8.148 -0.1969  0.4768 -0.0843
66171DPG3   C2B28331   0.895  14.258   7.967 -0.2633 -0.0911 -0.3876
66171DPG3   C3B28332   1.262  14.079   7.709 -0.2453 -0.0607 -0.2318
66171DPG3   C4B28333   1.637  13.983   7.577 -0.1967 -0.0957 -0.0987
66172DPG3   GM128334   2.738  22.561  13.169  0.1559  0.0656 -0.1842
66172DPG3   GM228335   3.048  22.357  13.111  0.0988 -0.1084  0.1098
66172DPG3   GM328336   2.889  22.378  13.399 -0.0205 -0.0634 -0.1702
66172DPG3   GM428337   3.133  22.175  13.509 -0.0044 -0.0731  0.1746
66172DPG3   GM528338   2.747  22.092  13.541 -0.0308 -0.0064  0.0322
66172DPG3   GM628339   3.008  22.014  13.679  0.2802  0.1203  0.5761
66172DPG3  GM1328340   3.234  21.804  13.861 -0.0341 -0.1765  0.0118
66172DPG3  GM1428341   3.315  21.712  13.532  0.1404 -0.1370  0.0434
66172DPG3  GM1528342   2.979  21.618  13.647 -0.0963  0.2631 -0.3041
66172DPG3  GM1628343   3.142  21.444  13.529 -0.1215 -0.0463 -0.2126
66172DPG3  GM1728344   2.770  21.609  13.816 -0.2375  0.1034 -0.4782
66172DPG3   AM128345   2.878  22.807  12.780  0.2229 -0.1279 -0.3024
66172DPG3   AM228346   3.180  22.815  12.977  0.1021  0.0973 -0.0387
66172DPG3   T1A28347   3.172  22.945  12.480 -0.1100 -0.0171  0.2118
66172DPG3   C2A28348   3.591  23.145  12.354  0.2476 -0.1635  0.0669
66172DPG3   C3A28349   4.077  23.132  12.196 -0.3306 -0.0150  0.1195
66172DPG3   C1B28350   3.536  22.932  12.956 -0.4444 -0.3857 -0.1806
66172DPG3   C2B28351   3.809  23.141  12.860  0.0771  0.1520  0.1568
66172DPG3   C3B28352   4.184  23.092  12.710  0.0751  0.1310  0.2293
66172DPG3   C4B28353   4.577  23.319  12.511  0.2465  0.0184  0.0824
66173DPG3   GM128354  27.770  22.940   5.270  0.1064  0.0841  0.0102
66173DPG3   GM228355  27.818  22.668   5.523  0.1919  0.1716  0.0889
66173DPG3   GM328356  27.928  22.654   5.230  0.0336  0.0918 -0.3470
66173DPG3   GM428357  28.025  22.324   5.337 -0.2220  0.1576 -0.1561
66173DPG3   GM528358  28.311  22.571   5.217  0.0669 -0.1138 -0.0353
66173DPG3   GM628359  28.272  22.268   5.257 -0.1798  0.0780  0.0283
66173DPG3  GM1328360  28.369  21.978   5.468  0.1210 -0.2772 -0.0218
66173DPG3  GM1428361  28.367  22.224   5.716 -0.2320 -0.1677 -0.1309
66173DPG3  GM1528362  28.622  22.263   5.456 -0.0307 -0.1378  0.0691
66173DPG3  GM1628363  28.664  22.307   5.800 -0.0207 -0.2229 -0.0382
66173DPG3  GM1728364  28.848  22.141   5.349 -0.0605 -0.0016  0.0724
66173DPG3   AM128365  27.357  23.056   5.530 -0.5706  0.2821  0.2641
66173DPG3   AM228366  27.314  22.733   5.303 -0.2449  0.1141 -0.2179
66173DPG3   T1A28367  27.021  23.150   5.196 -0.1162 -0.3274 -0.1785
66173DPG3   C2A28368  26.758  23.308   4.854  0.2070 -0.2170  0.1583
66173DPG3   C3A28369  26.657  23.353   4.451 -0.1737  0.3289 -0.0334
66173DPG3   C1B28370  27.087  22.706   5.021 -0.1818  0.0927 -0.0493
66173DPG3   C2B28371  26.984  22.883   4.626  0.0703  0.2056  0.1420
66173DPG3   C3B28372  26.853  22.942   4.203  0.0711 -0.0192 -0.1859
66173DPG3   C4B28373  26.665  23.059   3.810  0.0823  0.2283  0.1661
66174DPG3   GM128374  24.633  16.013   7.550 -0.0526  0.0899 -0.2734
66174DPG3   GM228375  24.855  16.144   7.277  0.1496  0.3449  0.0098
66174DPG3   GM328376  24.724  16.329   7.523  0.4942 -0.0210  0.1771
66174DPG3   GM428377  24.892  16.575   7.350  0.3083  0.0970  0.0742
66174DPG3   GM528378  24.902  16.503   7.740  0.0369  0.1400  0.0904
66174DPG3   GM628379  24.913  16.747   7.551  0.0685  0.0962  0.1017
66174DPG3  GM1328380  25.066  17.068   7.412  0.1760  0.0558  0.2066
66174DPG3  GM1428381  25.283  16.814   7.306  0.1020  0.0943 -0.0397
66174DPG3  GM1528382  25.256  16.861   7.670 -0.0297 -0.3779  0.0138
66174DPG3  GM1628383  25.520  16.802   7.533  0.1214 -0.2187  0.1042
66174DPG3  GM1728384  25.194  16.987   7.911  0.0183  0.0618 -0.1834
66174DPG3   AM128385  24.379  15.586   7.582  0.2004 -0.2041  0.1781
66174DPG3   AM228386  24.239  15.793   7.315  0.1183 -0.0002 -0.2680
66174DPG3   T1A28387  24.079  15.227   7.534  0.1430 -0.0157  0.0674
66174DPG3   C2A28388  23.793  15.446   7.408 -0.2063  0.0743  0.3323
66174DPG3   C3A28389  23.325  15.438   7.239  0.1880 -0.1028 -0.1998
66174DPG3   C1B28390  24.010  15.778   7.059 -0.1429  0.1680  0.2448
66174DPG3   C2B28391  23.558  15.763   6.958  0.0084  0.0409  0.2751
66174DPG3   C3B28392  23.107  15.851   7.001 -0.0226 -0.0925  0.0070
66174DPG3   C4B28393  22.731  15.970   6.744 -0.2025 -0.3060  0.3981
66175DPG3   GM128394  23.689  27.216  10.723  0.3255  0.0228  0.2275
66175DPG3   GM228395  23.332  27.319  10.774  0.2080 -0.2265 -0.0711
66175DPG3   GM328396  23.571  27.504  10.832 -0.0804 -0.1329  0.2080
66175DPG3   GM428397  23.312  27.765  10.896  0.0642  0.2473 -0.3908
66175DPG3   GM528398  23.703  27.811  10.853  0.1117  0.1906 -0.0366
66175DPG3   GM628399  23.454  27.963  11.001  0.1102 -0.0738  0.1749
66175DPG3  GM1328400  23.227  28.234  11.042 -0.1431  0.2452 -0.1421
66175DPG3  GM1428401  23.162  28.190  10.700 -0.3020  0.1775 -0.1038
66175DPG3  GM1528402  23.489  28.335  10.785 -0.0057 -0.3870 -0.2585
66175DPG3  GM1628403  23.325  28.426  10.588  0.0590 -0.1427  0.1612
66175DPG3  GM1728404  23.711  28.432  10.957 -0.0828 -0.0968 -0.1825
66175DPG3   AM128405  23.633  26.907  10.354 -0.1980  0.1473 -0.1473
66175DPG3   AM228406  23.456  27.230  10.271  0.1506  0.1856  0.0329
66175DPG3   T1A28407  23.321  26.629  10.153 -0.0907 -0.3464  0.2714
66175DPG3   C2A28408  22.910  26.368  10.126 -0.1087  0.1624 -0.1516
66175DPG3   C3A28409  22.500  26.232  10.105  0.2981  0.0127 -0.2059
66175DPG3   C1B28410  23.187  27.334  10.023 -0.2473 -0.2330 -0.1140
66175DPG3   C2B28411  22.934  27.173   9.654 -0.0273  0.0220 -0.3248
66175DPG3   C3B28412  22.581  27.013   9.542  0.0634 -0.3705  0.2903
66175DPG3   C4B28413  22.434  26.561   9.227 -0.3921  0.3963  0.2148
66176DPG3   GM128414  24.793  19.008   6.987  0.0106 -0.0347 -0.1621
66176DPG3   GM228415  25.013  19.084   7.281 -0.0330  0.1518 -0.1767
66176DPG3   GM328416  25.123  19.017   6.992  0.0052  0.1470 -0.0961
66176DPG3   GM428417  25.422  19.045   7.177  0.0438  0.0015 -0.1102
66176DPG3   GM528418  25.322  19.177   6.818 -0.0280  0.0304 -0.0794
66176DPG3   GM628419  25.566  19.085   6.958  0.1347  0.0720 -0.0377
66176DPG3  GM1328420  25.908  19.126   7.082  0.0448  0.0257  0.1160
66176DPG3  GM1428421  25.790  19.376   7.297 -0.2799 -0.0750  0.0576
66176DPG3  GM1528422  25.773  19.452   6.938 -0.2043 -0.1057  0.0474
66176DPG3  GM1628423  25.862  19.665   7.155 -0.1669  0.0395  0.1336
66176DPG3  GM1728424  25.861  19.410   6.685  0.1118  0.1806 -0.1968
66176DPG3   AM128425  24.437  19.022   7.268 -0.1336  0.1000 -0.0681
66176DPG3   AM228426  24.336  18.848   6.967 -0.0783  0.1550 -0.1300
66176DPG3   T1A28427  24.085  19.290   7.381 -0.1773  0.0967 -0.2795
66176DPG3   C2A28428  23.680  19.662   7.373 -0.1187  0.4273 -0.2312
66176DPG3   C3A28429  23.203  19.694   7.196  0.2276  0.2398  0.1412
66176DPG3   C1B28430  24.057  18.885   6.728  0.1729 -0.0792  0.1738
66176DPG3   C2B28431  23.641  18.887   6.566 -0.1769  0.1412 -0.0488
66176DPG3   C3B28432  23.295  19.040   6.332  0.0529 -0.0425 -0.1272
66176DPG3   C4B28433  22.942  19.158   6.528 -0.0301  0.0002  0.1068
66177DPG3   GM128434  24.610  17.667   6.910 -0.1045 -0.0179 -0.0146
66177DPG3   GM228435  24.504  18.006   7.029 -0.1956 -0.0549  0.0120
66177DPG3   GM328436  24.822  17.898   7.013 -0.1433 -0.0333  0.1017
66177DPG3   GM428437  24.878  18.197   7.205 -0.1602 -0.2986  0.1883
66177DPG3   GM528438  25.153  17.957   7.052  0.0068  0.0003  0.0129
66177DPG3   GM628439  25.131  18.171   7.278 -0.0388  0.2408 -0.0167
66177DPG3  GM1328440  25.220  18.490   7.416  0.1873 -0.1900 -0.0576
66177DPG3  GM1428441  25.109  18.598   7.102  0.1858  0.2136  0.0799
66177DPG3  GM1528442  25.414  18.394   7.102  0.0889  0.0675 -0.1985
66177DPG3  GM1628443  25.370  18.607   6.953  0.1575  0.1874 -0.0992
66177DPG3  GM1728444  25.654  18.305   7.252  0.0740  0.3680 -0.1451
66177DPG3   AM128445  24.216  17.383   6.960  0.0321  0.2191  0.1465
66177DPG3   AM228446  24.031  17.594   7.195 -0.1783  0.0805  0.1613
66177DPG3   T1A28447  23.772  17.346   6.796 -0.0545  0.1431  0.3824
66177DPG3   C2A28448  23.385  17.355   6.685 -0.1240 -0.0914 -0.0529
66177DPG3   C3A28449  22.979  17.503   6.754 -0.2099  0.1618  0.0372
66177DPG3   C1B28450  23.676  17.692   7.168 -0.2457  0.3940  0.0153
66177DPG3   C2B28451  23.241  17.772   7.157  0.1645 -0.3688 -0.1939
66177DPG3   C3B28452  22.977  18.029   7.177 -0.1216  0.3920 -0.1622
66177DPG3   C4B28453  22.538  18.045   7.089  0.0814  0.1579  0.1340
66178DPG3   GM128454   3.555  12.047  13.872  0.0811 -0.0551 -0.0472
66178DPG3   GM228455   3.363  11.794  14.072  0.1366  0.1537  0.2754
66178DPG3   GM328456   3.234  12.046  13.948  0.1048 -0.2196  0.0551
66178DPG3   GM428457   2.983  11.974  14.177 -0.2637  0.0192 -0.0037
66178DPG3   GM528458   2.930  12.077  13.799 -0.1427 -0.0840 -0.0492
66178DPG3   GM628459   2.762  12.075  14.071 -0.0494  0.0960 -0.3837
66178DPG3  GM1328460   2.483  11.986  14.295 -0.1479 -0.0230 -0.2243
66178DPG3  GM1428461   2.560  11.647  14.255 -0.0079 -0.0227  0.0346
66178DPG3  GM1528462   2.434  11.818  13.956  0.0518 -0.2687 -0.1335
66178DPG3  GM1628463   2.352  11.534  14.005 -0.0105 -0.3425  0.1095
66178DPG3  GM1728464   2.324  12.021  13.810  0.1487  0.2331 -0.2102
66178DPG3   AM128465   3.748  11.618  13.963  0.0637  0.3187  0.1784
66178DPG3   AM228466   4.061  11.825  13.879 -0.1435  0.1409  0.1229
66178DPG3   T1A28467   3.905  11.400  13.577 -0.0248 -0.0055  0.2049
66178DPG3   C2A28468   3.971  11.415  13.064  0.2997  0.1010  0.0891
66178DPG3   C3A28469   4.234  11.345  12.680 -0.0094  0.1249  0.1563
66178DPG3   C1B28470   4.215  11.784  13.551  0.4049  0.1506 -0.0399
66178DPG3   C2B28471   4.340  11.779  13.120 -0.1228  0.1068  0.3534
66178DPG3   C3B28472   4.508  11.813  12.708 -0.1580  0.2041  0.2177
66178DPG3   C4B28473   4.712  11.780  12.331 -0.0531  0.2273  0.3298
66179DPG3   GM128474   4.047   1.196  17.074 -0.2430  0.2009 -0.2943
66179DPG3   GM228475   3.854   1.494  16.953 -0.0779  0.3067 -0.2988
66179DPG3   GM328476   3.778   1.320  17.218 -0.0729  0.1300  0.0914
66179DPG3   GM428477   3.531   1.569  17.224 -0.1046 -0.0285  0.1615
66179DPG3   GM528478   3.643   1.333  17.521 -0.1525  0.2113  0.3723
66179DPG3   GM628479   3.407   1.533  17.455 -0.0613  0.0490  0.1967
66179DPG3  GM1328480   3.233   1.860  17.481  0.1121 -0.2097 -0.1452
66179DPG3  GM1428481   3.551   1.981  17.401  0.0418 -0.0082 -0.1220
66179DPG3  GM1528482   3.527   1.789  17.713  0.0588  0.3442  0.0999
66179DPG3  GM1628483   3.676   2.047  17.691  0.0157 -0.1200 -0.0714
66179DPG3  GM1728484   3.409   1.743  17.948  0.1866  0.1446  0.1533
66179DPG3   AM128485   4.500   1.290  16.965  0.1330 -0.1238  0.0492
66179DPG3   AM228486   4.584   1.261  17.284 -0.2491  0.4659 -0.1444
66179DPG3   T1A28487   4.817   1.310  16.643  0.1109 -0.0310 -0.3264
66179DPG3   C2A28488   4.769   1.348  16.284  0.1613 -0.1650 -0.1866
66179DPG3   C3A28489   4.799   1.317  15.823  0.0627  0.0646 -0.0049
66179DPG3   C1B28490   4.944   1.285  17.377 -0.1731 -0.0196 -0.0006
66179DPG3   C2B28491   5.441   0.948  17.234  0.1321  0.0569 -0.2672
66179DPG3   C3B28492   5.785   0.763  16.998 -0.1830  0.1163  0.0809
66179DPG3   C4B28493   5.824   0.363  16.892  0.1865 -0.2933 -0.1870
66180DPG3   GM128494  24.300  15.195   9.511 -0.0619  0.0183  0.1378
66180DPG3   GM228495  24.127  15.049   9.809 -0.1038  0.0278  0.1181
66180DPG3   GM328496  24.438  15.149   9.807  0.1043 -0.1017  0.0429
66180DPG3   GM428497  24.462  15.059  10.139 -0.0563 -0.1325  0.1844
66180DPG3   GM528498  24.630  15.399  10.024 -0.0566 -0.3313 -0.4176
66180DPG3   GM628499  24.668  15.176  10.258  0.2310 -0.1531 -0.2798
66180DPG3  GM1328500  24.702  15.051  10.586 -0.1958 -0.0776  0.1645
66180DPG3  GM1428501  24.400  15.218  10.644 -0.1606  0.0019  0.1177
66180DPG3  GM1528502  24.682  15.429  10.539 -0.1306 -0.0936  0.0055
66180DPG3  GM1628503  24.469  15.503  10.790  0.1848 -0.3394  0.1608
66180DPG3  GM1728504  24.941  15.474  10.482 -0.0570  0.1359 -0.0404
66180DPG3   AM128505  23.915  15.038   9.275 -0.0411  0.3833 -0.1669
66180DPG3   AM228506  23.971  14.675   9.449  0.4763 -0.0136 -0.1137
66180DPG3   T1A28507  23.462  14.899   9.241  0.1435  0.3493  0.1487
66180DPG3   C2A28508  23.026  14.841   9.090 -0.2472  0.0425  0.1264
66180DPG3   C3A28509  22.640  15.074   9.066  0.1710  0.0508 -0.2115
66180DPG3   C1B28510  23.693  14.422   9.525 -0.3638 -0.0503 -0.1325
66180DPG3   C2B28511  23.249  14.269   9.458 -0.0771  0.0432  0.0376
66180DPG3   C3B28512  22.791  14.306   9.267 -0.0897 -0.0593 -0.0058
66180DPG3   C4B28513  22.528  14.622   8.957  0.0731  0.1108  0.2643
66181DPG3   GM128514  12.717   9.118  18.971  0.0446 -0.2789  0.0500
66181DPG3   GM228515  12.938   9.374  18.808 -0.1025 -0.2440 -0.0961
66181DPG3   GM328516  13.047   9.133  18.979  0.0449 -0.1311 -0.1841
66181DPG3   GM428517  13.365   9.234  18.860  0.2311  0.1521 -0.0196
66181DPG3   GM528518  13.304   8.864  18.986  0.0970  0.0790 -0.2967
66181DPG3   GM628519  13.539   9.066  18.969  0.0311 -0.0893 -0.0682
66181DPG3  GM1328520  13.862   9.187  18.902 -0.0396 -0.1177 -0.0817
66181DPG3  GM1428521  13.723   9.193  18.581  0.1010  0.0730 -0.1397
66181DPG3  GM1528522  13.752   8.862  18.737 -0.0249 -0.0132 -0.2983
66181DPG3  GM1628523  13.788   8.897  18.445  0.1204 -0.1754  0.3667
66181DPG3  GM1728524  13.886   8.694  18.898  0.3592 -0.0227  0.5209
66181DPG3   AM128525  12.395   9.039  18.663  0.1080  0.1540  0.0718
66181DPG3   AM228526  12.532   8.727  18.532  0.1695  0.0298 -0.0828
66181DPG3   T1A28527  12.056   9.231  18.404  0.0072 -0.0399 -0.0015
66181DPG3   C2A28528  12.044   9.702  18.399  0.1663 -0.1345  0.1153
66181DPG3   C3A28529  12.240   9.988  18.650 -0.2351  0.0868 -0.1708
66181DPG3   C1B28530  12.498   8.467  18.278 -0.0477  0.1230  0.1410
66181DPG3   C2B28531  12.594   8.168  17.773  0.1057 -0.1914 -0.2437
66181DPG3   C3B28532  12.369   8.264  17.321  0.0894 -0.2510  0.2576
66181DPG3   C4B28533  12.426   8.016  17.059  0.2081 -0.2125  0.0491
66182PXSU    S128534  24.850  23.461   9.513 -0.0902  0.1289 -0.3123
66182PXSU    C128535  24.700  23.962   9.286 -0.2492 -0.0435 -0.1363
66182PXSU    C228536  24.770  23.689   9.390 -0.1534  0.0987  0.1757
66182PXSU    C328537  24.490  23.748   9.303 -0.1981 -0.0705  0.2033
66182PXSU   AM128538  24.358  23.686   9.706 -0.2771  0.1083 -0.0167
66182PXSU   AM228539  24.376  23.339   9.732  0.3150 -0.1712 -0.1788
66182PXSU   T1A28540  23.922  23.698   9.618 -0.0321  0.2008 -0.1057
66182PXSU   C2A28541  23.506  23.731   9.421 -0.0310 -0.0189 -0.2407
66182PXSU   C3A28542  23.070  23.579   9.428 -0.0801  0.0716  0.2139
66182PXSU   C1B28543  23.982  23.380  10.056  0.2655  0.0265  0.1015
66182PXSU   C2B28544  23.653  23.462  10.023 -0.0156 -0.0429 -0.2501
66182PXSU   C3B28545  23.346  23.379   9.831 -0.1095 -0.0247 -0.3467
66182PXSU   C4B28546  22.806  23.224   9.724  0.2637 -0.1145  0.1284
66182PXSU   C5B28547  22.600  23.439   9.345 -0.3533  0.0175  0.0661
66182PXSU   C6B28548  22.319  23.776   9.208 -0.1537 -0.1030  0.1578
66183PXSU    S128549  24.435  16.431   7.951 -0.4772 -0.0192  0.0110
66183PXSU    C128550  24.457  16.905   7.644  0.1499  0.2051  0.0571
66183PXSU    C228551  24.402  16.642   7.778  0.1227  0.2739  0.1802
66183PXSU    C328552  24.387  16.664   7.479  0.1102  0.1391  0.1707
66183PXSU   AM128553  24.244  16.299   7.300 -0.0363 -0.0109  0.0651
66183PXSU   AM228554  24.455  16.409   7.078 -0.2420 -0.1414 -0.3291
66183PXSU   T1A28555  23.831  16.221   7.176 -0.0018 -0.1362 -0.1566
66183PXSU   C2A28556  23.460  16.266   7.013 -0.0715 -0.2009 -0.0948
66183PXSU   C3A28557  22.993  16.400   6.780  0.0010  0.2096 -0.0657
66183PXSU   C1B28558  24.197  16.204   6.817 -0.0564  0.0315  0.0554
66183PXSU   C2B28559  23.796  16.113   6.628  0.1176 -0.1182 -0.0629
66183PXSU   C3B28560  23.381  16.330   6.538  0.0878 -0.1622  0.3726
66183PXSU   C4B28561  23.136  16.679   6.350  0.4525 -0.1113  0.1078
66183PXSU   C5B28562  22.987  16.751   6.002  0.0132 -0.0277  0.0419
66183PXSU   C6B28563  22.769  17.032   5.997 -0.1668 -0.2806 -0.2918
66184PXSU    S128564  30.706  10.324   6.524  0.2066  0.4222  0.1651
66184PXSU    C128565  30.354  10.298   6.090 -0.1493 -0.1748  0.0332
66184PXSU    C228566  30.535  10.262   6.327  0.1608  0.1332 -0.1523
66184PXSU    C328567  30.270  10.122   6.319  0.3278 -0.2131  0.1858
66184PXSU   AM128568  30.409   9.730   6.205 -0.3508  0.0250  0.1735
66184PXSU   AM228569  30.110   9.784   6.008  0.0577 -0.1586  0.1753
66184PXSU   T1A28570  30.779   9.828   6.406 -0.0035 -0.2010  0.4714
66184PXSU   C2A28571  31.096   9.683   6.270  0.1770  0.0464 -0.1612
66184PXSU   C3A28572  31.359   9.477   6.011  0.0373 -0.0030  0.1516
66184PXSU   C1B28573  30.482   9.601   5.726 -0.0872  0.2913  0.2472
66184PXSU   C2B28574  30.567   9.362   5.389  0.2518 -0.0576  0.0077
66184PXSU   C3B28575  30.730   9.116   5.084 -0.0314  0.2277 -0.0227
66184PXSU   C4B28576  30.702   8.982   4.759  0.2681  0.1548  0.0899
66184PXSU   C5B28577  30.535   8.684   4.516  0.0435  0.4376 -0.0528
66184PXSU   C6B28578  30.248   8.478   4.351 -0.0339 -0.2315  0.2495
66185PXSU    S128579  26.983  19.789   4.751  0.0069 -0.1277 -0.0255
66185PXSU    C128580  26.638  19.545   5.086  0.0889  0.2017  0.0281
66185PXSU    C228581  26.794  19.645   4.850  0.0448  0.0546 -0.0636
66185PXSU    C328582  26.555  19.468   4.808  0.0542  0.0036  0.0924
66185PXSU   AM128583  26.494  19.653   4.418  0.0266  0.1130 -0.1507
66185PXSU   AM228584  26.171  19.505   4.451  0.0799 -0.1899  0.0279
66185PXSU   T1A28585  26.489  19.541   3.990 -0.1640 -0.0238  0.5932
66185PXSU   C2A28586  26.356  19.510   3.558 -0.2592  0.0133 -0.1633
66185PXSU   C3A28587  26.125  19.689   3.200  0.1093  0.0110 -0.2474
66185PXSU   C1B28588  25.960  19.463   4.062  0.0153  0.2466  0.1226
66185PXSU   C2B28589  25.870  19.510   3.719 -0.1946 -0.0068  0.2951
66185PXSU   C3B28590  25.788  19.813   3.543 -0.0733 -0.1883 -0.0532
66185PXSU   C4B28591  25.797  20.186   3.229 -0.1143  0.2852 -0.1247
66185PXSU   C5B28592  25.806  20.502   2.989  0.0787 -0.0955  0.2066
66185PXSU   C6B28593  25.904  20.810   2.652  0.0562 -0.2851 -0.0940
66186PXSU    S128594  28.274  22.692   5.701 -0.0518 -0.2666  0.0044
66186PXSU    C128595  28.729  22.739   5.479 -0.1699 -0.1088 -0.2061
66186PXSU    C228596  28.478  22.828   5.616 -0.0510 -0.0058 -0.0534
66186PXSU    C328597  28.595  22.994   5.396 -0.2511 -0.1797 -0.2950
66186PXSU   AM128598  28.203  23.151   5.309 -0.2492 -0.1674 -0.2423
66186PXSU   AM228599  28.393  23.254   5.070 -0.1851  0.0612 -0.0268
66186PXSU   T1A28600  27.907  23.391   4.945  0.0676 -0.2003 -0.1965
66186PXSU   C2A28601  27.785  23.615   4.690  0.0523  0.1021 -0.1236
66186PXSU   C3A28602  27.687  23.860   4.349 -0.3108 -0.0822  0.4411
66186PXSU   C1B28603  28.350  23.435   4.661  0.2398 -0.1589  0.1033
66186PXSU   C2B28604  28.203  23.576   4.267 -0.1700 -0.0501 -0.1415
66186PXSU   C3B28605  28.009  23.806   3.940 -0.0072 -0.0043  0.3034
66186PXSU   C4B28606  27.872  24.118   3.666  0.3223  0.0669 -0.3859
66186PXSU   C5B28607  27.573  24.444   3.559  0.1980  0.2384  0.0006
66186PXSU   C6B28608  27.110  24.441   3.647 -0.0554  0.0256 -0.2286
66187PXSU    S128609  25.863  16.695   6.615 -0.0544  0.0231 -0.5064
66187PXSU    C128610  25.508  16.976   6.428  0.0610 -0.0745  0.1104
66187PXSU    C228611  25.647  16.715   6.476 -0.3994 -0.3107  0.1869
66187PXSU    C328612  25.528  16.774   6.207 -0.1058 -0.0841  0.1036
66187PXSU   AM128613  25.463  16.666   5.805 -0.1313  0.1273  0.0102
66187PXSU   AM228614  25.379  16.313   5.665 -0.0173  0.1377 -0.1671
66187PXSU   T1A28615  25.203  16.859   5.481 -0.0890  0.0798  0.2874
66187PXSU   C2A28616  24.875  16.803   5.131  0.2990  0.1280 -0.0029
66187PXSU   C3A28617  24.815  16.788   4.626 -0.4750 -0.2468 -0.0632
66187PXSU   C1B28618  25.125  16.386   5.235 -0.1029  0.2485  0.0262
66187PXSU   C2B28619  25.103  16.261   4.855 -0.1296  0.0778 -0.0005
66187PXSU   C3B28620  24.879  16.138   4.506  0.0248  0.3256  0.5511
66187PXSU   C4B28621  24.727  16.214   4.104  0.1765 -0.0485  0.3985
66187PXSU   C5B28622  24.481  16.187   3.817 -0.0014  0.0465  0.0171
66187PXSU   C6B28623  24.260  16.357   3.432  0.3540  0.1327  0.0927
66188PXSU    S128624  18.086   2.166  15.301  0.1961 -0.0394  0.0569
66188PXSU    C128625  18.467   1.889  15.553 -0.1598  0.0108  0.2073
66188PXSU    C228626  18.305   2.055  15.363 -0.0781 -0.2732 -0.1158
66188PXSU    C328627  18.572   1.947  15.278 -0.0354 -0.3946  0.1653
66188PXSU   AM128628  18.372   1.808  14.931  0.0638 -0.2049  0.0745
66188PXSU   AM228629  18.720   1.873  14.816 -0.2850 -0.0760  0.1245
66188PXSU   T1A28630  18.094   1.890  14.599 -0.0257  0.1541  0.0984
66188PXSU   C2A28631  18.047   1.779  14.177  0.1130  0.1287 -0.1988
66188PXSU   C3A28632  17.844   1.924  13.814  0.0643  0.2962 -0.0952
66188PXSU   C1B28633  18.537   2.148  14.459 -0.1818 -0.1360  0.0926
66188PXSU   C2B28634  18.329   2.191  14.027  0.2243  0.0822 -0.2338
66188PXSU   C3B28635  18.176   2.440  13.788 -0.0477  0.1278 -0.2650
66188PXSU   C4B28636  18.303   2.390  13.445 -0.1498  0.1349 -0.2690
66188PXSU   C5B28637  18.632   2.555  13.154  0.2071 -0.2413 -0.1322
66188PXSU   C6B28638  18.569   2.496  12.732 -0.0678  0.2257  0.2490
66189PXSU    S128639  24.319  15.998  10.523 -0.1425  0.2491  0.0870
66189PXSU    C128640  24.247  15.494  10.298  0.3179  0.0134  0.0819
66189PXSU    C228641  24.250  15.773  10.406 -0.2366  0.1255 -0.1799
66189PXSU    C328642  24.020  15.590  10.468 -0.0024 -0.1876 -0.2245
66189PXSU   AM128643  23.655  15.698  10.319 -0.0236  0.1961 -0.1811
66189PXSU   AM228644  23.704  15.931  10.541  0.1326 -0.0332  0.0303
66189PXSU   T1A28645  23.161  15.761  10.343 -0.3914  0.1528 -0.0586
66189PXSU   C2A28646  22.734  15.772  10.316 -0.3514 -0.3719 -0.3378
66189PXSU   C3A28647  22.339  15.955  10.442 -0.1494 -0.2973 -0.0139
66189PXSU   C1B28648  23.339  16.162  10.615 -0.0620  0.2555  0.3107
66189PXSU   C2B28649  23.188  16.349  10.975 -0.0622 -0.1346  0.0594
66189PXSU   C3B28650  22.784  16.301  11.135  0.2947 -0.0819 -0.1196
66189PXSU   C4B28651  22.346  16.540  11.045  0.1665 -0.1863  0.1949
66189PXSU   C5B28652  22.087  16.221  10.838 -0.2485  0.0622  0.1593
66189PXSU   C6B28653  21.728  16.036  10.929 -0.3006  0.0434  0.3381
66190PXSU    S128654  21.404  14.324  14.933  0.2767  0.0570  0.1161
66190PXSU    C128655  21.721  14.328  14.487  0.0113 -0.3916 -0.0778
66190PXSU    C228656  21.508  14.345  14.697  0.2116 -0.1609  0.1108
66190PXSU    C328657  21.461  14.466  14.426  0.1330 -0.0412  0.1773
66190PXSU   AM128658  21.227  14.831  14.420  0.0098  0.3274 -0.0461
66190PXSU   AM228659  21.018  14.658  14.641  0.0308 -0.1699 -0.0603
66190PXSU   T1A28660  21.121  15.167  14.328 -0.4847 -0.3115 -0.2634
66190PXSU   C2A28661  20.887  15.494  14.279  0.1028  0.0066  0.2229
66190PXSU   C3A28662  20.568  15.696  13.955  0.4572  0.2754  0.0011
66190PXSU   C1B28663  20.747  14.742  14.373 -0.1681  0.0358 -0.0907
66190PXSU   C2B28664  20.429  14.753  14.052 -0.0772  0.2339  0.1498
66190PXSU   C3B28665  20.263  14.874  13.661  0.0467 -0.0501 -0.0215
66190PXSU   C4B28666  20.010  15.130  13.407 -0.2177  0.2232 -0.1453
66190PXSU   C5B28667  20.212  15.378  13.026  0.1317  0.0851  0.1629
66190PXSU   C6B28668  20.518  15.532  12.722 -0.0743 -0.1703 -0.1137
66191PXSU    S128669  26.778  12.754   6.042 -0.0208  0.0466  0.0281
66191PXSU    C128670  26.654  12.257   6.149 -0.0390 -0.1443 -0.0502
66191PXSU    C228671  26.643  12.544   6.063  0.0283  0.0082  0.4353
66191PXSU    C328672  26.420  12.357   5.991  0.0572  0.1418 -0.0141
66191PXSU   AM128673  26.252  12.606   5.674  0.2205 -0.0352 -0.0067
66191PXSU   AM228674  25.936  12.707   5.927 -0.1073  0.0467 -0.1928
66191PXSU   T1A28675  26.057  12.500   5.346 -0.2773 -0.1486  0.0816
66191PXSU   C2A28676  25.788  12.402   4.972  0.1004  0.0364  0.3339
66191PXSU   C3A28677  25.575  12.017   4.790  0.0952 -0.0247  0.0788
66191PXSU   C1B28678  25.587  12.599   5.559 -0.3024  0.2196 -0.0415
66191PXSU   C2B28679  25.351  12.491   5.374  0.1549  0.0041 -0.0360
66191PXSU   C3B28680  25.231  12.262   5.020 -0.3101 -0.1457 -0.0748
66191PXSU   C4B28681  25.110  12.285   4.629 -0.2877 -0.2043  0.2455
66191PXSU   C5B28682  25.372  12.142   4.340  0.1451 -0.2400 -0.0245
66191PXSU   C6B28683  25.635  12.186   3.919 -0.0127  0.0663 -0.2880
66192PXSU    S128684  28.283   8.862   7.521 -0.0601 -0.0821 -0.1893
66192PXSU    C128685  27.805   8.870   7.563 -0.0131  0.0533  0.2246
66192PXSU    C228686  28.054   8.787   7.418 -0.0240  0.0507  0.2070
66192PXSU    C328687  27.788   8.768   7.281 -0.0135  0.2289  0.1609
66192PXSU   AM128688  27.962   8.827   6.909 -0.1515 -0.1558 -0.1395
66192PXSU   AM228689  27.628   8.925   6.800 -0.1993  0.1449  0.0092
66192PXSU   T1A28690  27.943   8.809   6.479 -0.0723  0.0948 -0.1422
66192PXSU   C2A28691  27.772   8.766   6.008 -0.2240  0.1254 -0.0366
66192PXSU   C3A28692  27.661   8.492   5.651  0.0654 -0.2660  0.1135
66192PXSU   C1B28693  27.436   8.714   6.394 -0.2725 -0.1769 -0.0899
66192PXSU   C2B28694  27.405   8.448   6.057 -0.3605 -0.0104  0.1805
66192PXSU   C3B28695  27.231   8.346   5.731  0.1629  0.4400  0.0055
66192PXSU   C4B28696  27.208   8.072   5.511 -0.2148 -0.1761 -0.2821
66192PXSU   C5B28697  27.117   7.947   5.092  0.1009  0.0323 -0.0529
66192PXSU   C6B28698  27.052   7.668   4.819  0.2255 -0.1051 -0.1771
66193PXSU    S128699  21.688   2.818  14.179 -0.1808 -0.2607 -0.0673
66193PXSU    C128700  22.182   2.774  13.959 -0.1522  0.2004  0.1928
66193PXSU    C228701  21.891   2.816  14.018 -0.2054  0.1315 -0.0141
66193PXSU    C328702  21.975   2.700  13.755  0.0171  0.2731 -0.0068
66193PXSU   AM128703  21.586   2.639  13.592 -0.0664 -0.1554 -0.2375
66193PXSU   AM228704  21.767   2.546  13.264 -0.1066 -0.3537 -0.1577
66193PXSU   T1A28705  21.322   2.880  13.448  0.3547 -0.1422 -0.3290
66193PXSU   C2A28706  21.094   3.089  13.176 -0.0059  0.0211 -0.0535
66193PXSU   C3A28707  20.824   3.437  13.019 -0.3368 -0.1598  0.1088
66193PXSU   C1B28708  21.555   2.857  13.021 -0.2702 -0.2947 -0.2058
66193PXSU   C2B28709  21.532   3.176  12.931 -0.3019 -0.0660 -0.1363
66193PXSU   C3B28710  21.247   3.332  12.669  0.1680 -0.0722  0.1718
66193PXSU   C4B28711  20.774   3.342  12.508 -0.0983 -0.1561 -0.0247
66193PXSU   C5B28712  20.475   3.039  12.724  0.0401 -0.2740  0.0797
66193PXSU   C6B28713  20.010   2.999  12.738 -0.2150  0.0575  0.0340
66194PXSU    S128714  27.056   6.250   9.380 -0.2123  0.1285 -0.0498
66194PXSU    C128715  26.744   6.582   9.636  0.0767  0.0354 -0.0297
66194PXSU    C228716  26.921   6.349   9.571  0.1094  0.0600 -0.0296
66194PXSU    C328717  26.623   6.316   9.566  0.1152 -0.0175  0.1036
66194PXSU   AM128718  26.628   6.004   9.269 -0.2134  0.0041 -0.2387
66194PXSU   AM228719  26.282   6.081   9.287 -0.0864  0.2861 -0.0178
66194PXSU   T1A28720  26.553   5.880   8.892 -0.0576 -0.2293  0.0475
66194PXSU   C2A28721  26.314   5.642   8.622  0.0887  0.1077  0.0849
66194PXSU   C3A28722  26.003   5.403   8.378  0.0740 -0.2007  0.0891
66194PXSU   C1B28723  26.078   6.030   8.835 -0.1410 -0.0912  0.0313
66194PXSU   C2B28724  25.840   5.839   8.495 -0.1613  0.1055 -0.0365
66194PXSU   C3B28725  25.411   5.577   8.420 -0.1726 -0.3789  0.0399
66194PXSU   C4B28726  25.126   5.699   8.128 -0.1537 -0.5441  0.0973
66194PXSU   C5B28727  25.179   6.043   7.766  0.1808 -0.0371  0.0252
66194PXSU   C6B28728  25.516   6.102   7.481 -0.0518  0.0675 -0.1418
66195PXSU    S128729  23.228   0.545  12.590  0.1425  0.0352  0.0679
66195PXSU    C128730  23.602   0.230  12.373 -0.0815 -0.0003 -0.0584
66195PXSU    C228731  23.348   0.377  12.433 -0.1584 -0.0488 -0.2621
66195PXSU    C328732  23.341   0.123  12.272 -0.0083 -0.1894 -0.0497
66195PXSU   AM128733  23.031   0.078  11.975  0.2049 -0.1651  0.1104
66195PXSU   AM228734  22.756   0.113  12.050  0.4060 -0.2849  0.0307
66195PXSU   T1A28735  22.946   0.350  11.673  0.1153  0.2127  0.1155
66195PXSU   C2A28736  22.802   0.440  11.398  0.1093  0.0693  0.1338
66195PXSU   C3A28737  22.777   0.459  11.021 -0.0582  0.0909 -0.0250
66195PXSU   C1B28738  22.667  35.338  11.632  0.0452  0.1454 -0.3250
66195PXSU   C2B28739  22.516   0.019  11.231 -0.4250  0.1399 -0.2372
66195PXSU   C3B28740  22.427   0.182  10.815 -0.1243 -0.3623  0.0045
66195PXSU   C4B28741  22.496   0.111  10.308  0.2488 -0.0574 -0.0316
66195PXSU   C5B28742  22.385   0.142   9.940 -0.1212  0.0275  0.1430
66195PXSU   C6B28743  22.207  35.193   9.662  0.1222  0.1389 -0.0523
66196PNSU    S128744  29.360  17.922   3.831  0.2132 -0.0871 -0.0544
66196PNSU    C128745  29.441  18.404   3.975  0.2321 -0.1128 -0.2287
66196PNSU    C228746  29.402  18.176   3.784 -0.1713 -0.0511 -0.2240
66196PNSU    C328747  29.338  18.456   3.698  0.0203  0.0237 -0.1256
66196PNSU   AM128748  29.519  18.383   3.319  0.1023 -0.1053 -0.0619
66196PNSU   AM228749  29.258  18.549   3.532 -0.2929 -0.3883  0.2530
66196PNSU   T1A28750  29.513  18.326   2.892  0.2105  0.2124  0.1080
66196PNSU   C2A28751  29.527  18.233   2.473 -0.0169 -0.0143 -0.0050
66196PNSU   C3A28752  29.401  18.137   2.127  0.1812  0.0485  0.1731
66196PNSU   C1B28753  29.159  18.602   3.065 -0.0067  0.2154  0.3949
66196PNSU   C2B28754  29.120  18.649   2.574  0.0841 -0.2417  0.3525
66196PNSU   C3B28755  29.012  18.436   2.204  0.0136 -0.0167 -0.0300
66196PNSU   D4B28756  28.921  18.600   1.837  0.1069  0.3532 -0.2508
66196PNSU   C5B28757  29.247  18.950   1.627  0.1135 -0.1953 -0.3134
66196PNSU   C6B28758  29.406  19.323   1.626 -0.2219 -0.1506  0.1863
66197PNSU    S128759  19.414  33.150  14.535 -0.1047  0.0893  0.3694
66197PNSU    C128760  19.881  33.429  14.412 -0.1045 -0.0523  0.1187
66197PNSU    C228761  19.619  33.286  14.444  0.0460 -0.3531  0.0335
66197PNSU    C328762  19.689  33.415  14.182 -0.0575 -0.1862  0.0870
66197PNSU   AM128763  19.453  33.190  13.907 -0.2176 -0.0966  0.1504
66197PNSU   AM228764  19.644  33.537  13.937 -0.3991  0.0526  0.1009
66197PNSU   T1A28765  19.249  33.151  13.483  0.1262 -0.0380  0.1284
66197PNSU   C2A28766  18.950  33.261  13.174 -0.1398  0.0526 -0.1375
66197PNSU   C3A28767  18.858  33.407  12.770 -0.1833  0.1811 -0.3060
66197PNSU   C1B28768  19.338  33.616  13.656  0.0376 -0.0620 -0.2331
66197PNSU   C2B28769  19.021  33.741  13.368 -0.3896 -0.0045  0.1414
66197PNSU   C3B28770  18.788  33.831  12.994  0.1240 -0.1289 -0.0298
66197PNSU   D4B28771  18.661  33.817  12.557 -0.0910  0.1663  0.2009
66197PNSU   C5B28772  18.609  34.262  12.399  0.2222  0.0332 -0.1447
66197PNSU   C6B28773  18.739  34.580  12.491  0.2917  0.3031 -0.0706
66198PNSU    S128774  31.588  11.938   6.037  0.0174  0.1318 -0.1085
66198PNSU    C128775  31.615  12.398   5.737  0.1402 -0.0271 -0.2481
66198PNSU    C228776  31.611  12.121   5.851  0.4457 -0.0173 -0.2080
66198PNSU    C328777  31.661  12.162   5.558 -0.0162 -0.0252 -0.2917
66198PNSU   AM128778  31.940  11.875   5.413 -0.2005 -0.2570 -0.1913
66198PNSU   AM228779  31.681  12.055   5.363 -0.2192 -0.0407  0.1971
66198PNSU   T1A28780  32.162  11.660   5.160  0.0405  0.1847 -0.1379
66198PNSU   C2A28781  32.293  11.474   4.764 -0.0903  0.1147  0.0086
66198PNSU   C3A28782  32.494  11.466   4.449  0.2727 -0.3946 -0.0020
66198PNSU   C1B28783  32.096  12.163   5.045 -0.2677  0.1862 -0.3431
66198PNSU   C2B28784  32.304  12.049   4.707  0.0760 -0.2512 -0.1822
66198PNSU   C3B28785  32.524  11.965   4.377  0.1346 -0.2823  0.2624
66198PNSU   D4B28786  32.491  11.656   4.001  0.0019 -0.1017 -0.1051
66198PNSU   C5B28787  32.385  11.254   3.953 -0.2852 -0.0084 -0.0645
66198PNSU   C6B28788  32.371  10.754   3.985  0.1438  0.1249  0.0369
66199PNSU    S128789  25.754  18.823   5.427 -0.2824 -0.0481 -0.1635
66199PNSU    C128790  26.113  18.411   5.491  0.0483  0.2608 -0.0694
66199PNSU    C228791  25.907  18.628   5.510 -0.0567  0.1631 -0.0802
66199PNSU    C328792  25.827  18.355   5.417  0.0804  0.1272 -0.0935
66199PNSU   AM128793  25.469  18.429   5.635  0.0591  0.2118 -0.1573
66199PNSU   AM228794  25.316  18.136   5.549  0.2020 -0.4608  0.1097
66199PNSU   T1A28795  25.118  18.469   5.284 -0.1553  0.2338  0.1618
66199PNSU   C2A28796  24.745  18.574   5.042 -0.0872  0.1200  0.1507
66199PNSU   C3A28797  24.253  18.729   4.867 -0.0255 -0.0899  0.2786
66199PNSU   C1B28798  24.897  18.090   5.483  0.1487 -0.1476 -0.1929
66199PNSU   C2B28799  24.553  18.127   5.170  0.0444  0.1162 -0.1316
66199PNSU   C3B28800  24.504  18.210   4.782  0.1220 -0.0232  0.0984
66199PNSU   D4B28801  24.147  18.263   4.544  0.1974 -0.2204 -0.2175
66199PNSU   C5B28802  23.794  18.493   4.698 -0.0484 -0.1916 -0.0460
66199PNSU   C6B28803  23.740  18.957   4.616 -0.3154  0.0145 -0.2206
66200PNSU    S128804  19.646  29.826  16.001  0.1102  0.0757 -0.0518
66200PNSU    C128805  19.809  29.880  15.532 -0.0376  0.2307 -0.3159
66200PNSU    C228806  19.603  29.887  15.750  0.1540 -0.1587 -0.1165
66200PNSU    C328807  19.521  29.829  15.467 -0.0270 -0.1881 -0.0585
66200PNSU   AM128808  19.203  29.548  15.497 -0.1249 -0.0827 -0.1013
66200PNSU   AM228809  19.389  29.751  15.287  0.0682  0.1283 -0.2180
66200PNSU   T1A28810  18.777  29.499  15.468  0.3878 -0.1859  0.3303
66200PNSU   C2A28811  18.378  29.304  15.266  0.1697 -0.0909  0.1765
66200PNSU   C3A28812  18.076  29.231  15.172  0.1598 -0.2121 -0.2808
66200PNSU   C1B28813  19.003  29.859  15.207  0.2608 -0.1818  0.0682
66200PNSU   C2B28814  18.650  29.795  14.994 -0.1262  0.1572  0.3355
66200PNSU   C3B28815  18.302  29.666  14.875  0.2134 -0.3161 -0.1720
66200PNSU   D4B28816  17.904  29.357  14.733  0.0543 -0.1461  0.1775
66200PNSU   C5B28817  17.636  29.052  15.006  0.0054 -0.2110  0.0206
66200PNSU   C6B28818  17.748  28.743  15.180 -0.1919  0.1072  0.1416
66201PNSU    S128819   2.169   9.375  13.535  0.1429  0.2470  0.2304
66201PNSU    C128820   2.457   9.033  13.796  0.0923  0.1011  0.2478
66201PNSU    C228821   2.384   9.234  13.585 -0.0681 -0.1396  0.0705
66201PNSU    C328822   2.669   9.144  13.615 -0.0261 -0.0197  0.0317
66201PNSU   AM128823   2.807   9.187  13.214 -0.0814 -0.0296  0.0117
66201PNSU   AM228824   2.881   9.216  13.559 -0.0863  0.2749 -0.2405
66201PNSU   T1A28825   3.197   9.217  13.004 -0.1012 -0.3074  0.1623
66201PNSU   C2A28826   3.563   9.078  12.769 -0.1290  0.1445 -0.0266
66201PNSU   C3A28827   3.906   8.949  12.476 -0.0469 -0.4671 -0.3849
66201PNSU   C1B28828   3.298   9.111  13.491  0.1126  0.2103 -0.0195
66201PNSU   C2B28829   3.544   8.637  13.462  0.0162 -0.0039 -0.2595
66201PNSU   C3B28830   3.884   8.574  13.156 -0.1620  0.1833  0.1465
66201PNSU   D4B28831   4.233   8.496  12.942 -0.0197 -0.2110 -0.2638
66201PNSU   C5B28832   4.414   8.736  12.727 -0.1686 -0.0998  0.3385
66201PNSU   C6B28833   4.562   9.092  12.795 -0.2386  0.3053 -0.1246
66202PNSU    S128834   1.873   6.488  13.394 -0.1143 -0.0164 -0.0423
66202PNSU    C128835   2.280   6.472  13.747 -0.0459 -0.0474  0.0514
66202PNSU    C228836   2.084   6.409  13.528  0.0346  0.2603 -0.1112
66202PNSU    C328837   2.377   6.431  13.466  0.1052 -0.0474  0.1034
66202PNSU   AM128838   2.400   6.120  13.176 -0.3280 -0.0047  0.0205
66202PNSU   AM228839   2.359   6.480  13.150  0.3027  0.2595 -0.1004
66202PNSU   T1A28840   2.821   6.001  12.955 -0.3588 -0.1249 -0.1145
66202PNSU   C2A28841   3.192   5.791  12.658 -0.0057  0.3523  0.0209
66202PNSU   C3A28842   3.457   5.476  12.402 -0.1053 -0.1976 -0.3469
66202PNSU   C1B28843   2.638   6.488  12.802  0.3817  0.0005  0.1021
66202PNSU   C2B28844   3.041   6.463  12.715  0.0226 -0.0612  0.1829
66202PNSU   C3B28845   3.217   6.263  12.450  0.1417  0.0079  0.0083
66202PNSU   D4B28846   3.564   6.103  12.436 -0.0217  0.0627 -0.3699
66202PNSU   C5B28847   3.869   6.286  12.653 -0.1280 -0.0000  0.0240
66202PNSU   C6B28848   4.135   6.537  12.520  0.0705 -0.0600  0.1398
66203PNSU    S128849  26.078  19.561   4.924  0.0410 -0.1219 -0.2782
66203PNSU    C128850  26.130  19.179   5.320 -0.1817  0.1426 -0.0638
66203PNSU    C228851  26.090  19.418   5.143 -0.2185  0.0958 -0.1191
66203PNSU    C328852  25.879  19.205   5.157 -0.3960  0.2932  0.2848
66203PNSU   AM128853  25.507  19.366   5.026 -0.3113  0.2087 -0.0644
66203PNSU   AM228854  25.641  19.080   4.911  0.0406 -0.1638 -0.2382
66203PNSU   T1A28855  25.105  19.355   5.158  0.1787  0.1911  0.3357
66203PNSU   C2A28856  24.735  19.492   5.052  0.1281 -0.2400 -0.1570
66203PNSU   C3A28857  24.439  19.739   4.829 -0.1553 -0.0083  0.0399
66203PNSU   C1B28858  25.311  19.006   4.533 -0.2388 -0.0892  0.0051
66203PNSU   C2B28859  25.018  19.141   4.211  0.2530  0.0208 -0.0033
66203PNSU   C3B28860  24.659  19.240   4.118  0.3450  0.2450  0.0966
66203PNSU   D4B28861  24.223  19.166   4.029  0.2807  0.2149 -0.0757
66203PNSU   C5B28862  24.019  18.774   3.792 -0.1264  0.1134  0.1743
66203PNSU   C6B28863  23.653  18.581   3.743 -0.1321 -0.0750  0.1520
66204PNSU    S128864  25.641  24.801   8.962  0.4262  0.1326 -0.0191
66204PNSU    C128865  25.369  25.236   8.826  0.2192 -0.1777  0.0375
66204PNSU    C228866  25.440  24.951   8.886  0.2895 -0.2747 -0.4860
66204PNSU    C328867  25.184  25.015   8.744  0.0211 -0.0335  0.0922
66204PNSU   AM128868  24.939  24.708   8.909 -0.1857  0.1049  0.0445
66204PNSU   AM228869  25.027  24.948   8.655  0.1832  0.2171 -0.1306
66204PNSU   T1A28870  24.451  24.727   8.860  0.1250  0.1936  0.1504
66204PNSU   C2A28871  24.085  24.969   8.668 -0.2908  0.1990 -0.4445
66204PNSU   C3A28872  23.790  25.169   8.435  0.0393  0.1814  0.0142
66204PNSU   C1B28873  24.689  25.012   8.523 -0.0211 -0.1057  0.1888
66204PNSU   C2B28874  24.324  25.205   8.281 -0.1233  0.2004  0.1234
66204PNSU   C3B28875  24.039  25.389   8.048  0.1422 -0.3100 -0.5059
66204PNSU   D4B28876  23.771  25.618   7.853 -0.1269 -0.2121 -0.0539
66204PNSU   C5B28877  23.536  25.626   7.452  0.1323  0.2039 -0.3109
66204PNSU   C6B28878  23.334  26.005   7.275  0.0355  0.0633  0.0269
66205PNSU    S128879  18.883  33.425  14.667  0.1165  0.0731 -0.0566
66205PNSU    C128880  19.376  33.680  14.580  0.0357  0.2293 -0.0572
66205PNSU    C228881  19.110  33.548  14.623  0.0456  0.2511  0.0692
66205PNSU    C328882  19.209  33.600  14.345  0.1185 -0.1641  0.0139
66205PNSU   AM128883  18.810  33.587  14.194  0.1014 -0.0087  0.0434
66205PNSU   AM228884  19.161  33.521  14.127  0.0135 -0.1657  0.3143
66205PNSU   T1A28885  18.434  33.533  14.015 -0.0287  0.1265  0.0964
66205PNSU   C2A28886  18.097  33.531  13.721  0.1886  0.2100  0.0792
66205PNSU   C3A28887  17.962  33.386  13.287  0.0900 -0.0264  0.2125
66205PNSU   C1B28888  18.857  33.342  13.763  0.0843  0.1718 -0.0608
66205PNSU   C2B28889  18.542  33.281  13.455 -0.0933  0.1370  0.4136
66205PNSU   C3B28890  18.339  33.163  13.064  0.1723 -0.1227  0.4124
66205PNSU   D4B28891  18.274  32.943  12.754  0.1489  0.0483  0.0859
66205PNSU   C5B28892  18.607  33.038  12.497  0.2694  0.0253 -0.1836
66205PNSU   C6B28893  18.792  33.342  12.255  0.4119  0.4099 -0.1720
66206PNSU    S128894  33.381  19.035   5.657 -0.3730  0.1453  0.0624
66206PNSU    C128895  33.113  18.860   5.222  0.2110 -0.2010 -0.0850
66206PNSU    C228896  33.321  18.964   5.412 -0.0428  0.2656 -0.0559
66206PNSU    C328897  33.404  18.848   5.148  0.2818  0.0345  0.1434
66206PNSU   AM128898  33.724  18.959   4.890 -0.0247  0.1900 -0.1745
66206PNSU   AM228899  33.468  18.758   4.922  0.0572 -0.2315  0.3289
66206PNSU   T1A28900  33.811  19.001   4.517  0.1732  0.1020  0.0364
66206PNSU   C2A28901  34.032  18.980   4.209  0.4756  0.0063 -0.1159
66206PNSU   C3A28902  34.074  18.987   3.851  0.0428 -0.0301  0.2750
66206PNSU   C1B28903  33.600  18.573   4.594 -0.3448 -0.1005 -0.3322
66206PNSU   C2B28904  33.762  18.551   4.249  0.3065  0.3144 -0.0864
66206PNSU   C3B28905  33.901  18.526   3.790  0.0087  0.1372  0.0678
66206PNSU   D4B28906  33.940  18.581   3.376 -0.2429 -0.0033  0.0641
66206PNSU   C5B28907  34.075  18.237   3.123  0.3716 -0.3360 -0.1252
66206PNSU   C6B28908  34.405  18.118   2.969  0.0496  0.1857 -0.1746
66207PNSU    S128909  29.603  12.265   4.514  0.3353 -0.0872  0.1534
66207PNSU    C128910  29.461  11.887   4.892  0.3278  0.2259  0.1705
66207PNSU    C228911  29.502  12.071   4.658 -0.1737 -0.0535 -0.1459
66207PNSU    C328912  29.631  11.800   4.661  0.2136  0.1289  0.1225
66207PNSU   AM128913  29.811  11.871   4.281  0.2225 -0.0311  0.0959
66207PNSU   AM228914  29.752  11.698   4.508  0.0964  0.0446 -0.3918
66207PNSU   T1A28915  29.978  11.516   4.003 -0.1808 -0.1889 -0.0712
66207PNSU   C2A28916  30.105  11.350   3.586  0.4184 -0.1652 -0.0798
66207PNSU   C3A28917  30.262  11.226   3.123  0.1841  0.0981 -0.3473
66207PNSU   C1B28918  29.852  11.319   4.402 -0.0072 -0.2132  0.0295
66207PNSU   C2B28919  30.027  10.935   4.004 -0.0872  0.3792 -0.1230
66207PNSU   C3B28920  29.811  10.632   3.695 -0.1389 -0.2509  0.1769
66207PNSU   D4B28921  29.417  10.673   3.509 -0.0254 -0.1240  0.0561
66207PNSU   C5B28922  29.299  10.816   3.115 -0.0125  0.2619  0.4700
66207PNSU   C6B28923  29.248  10.502   2.799  0.0576 -0.3226 -0.1240
66208PNSU    S128924  25.682  23.531   7.621  0.0769 -0.0468 -0.0278
66208PNSU    C128925  25.765  23.971   7.856  0.0298 -0.0196  0.0188
66208PNSU    C228926  25.653  23.790   7.646  0.2609 -0.0179 -0.1079
66208PNSU    C328927  25.585  24.082   7.644  0.0242 -0.0707 -0.0033
66208PNSU   AM128928  25.674  24.096   7.228  0.1246 -0.0328  0.0193
66208PNSU   AM228929  25.522  24.229   7.457  0.0695 -0.1504 -0.0586
66208PNSU   T1A28930  25.428  24.031   6.952  0.0136 -0.0335  0.2829
66208PNSU   C2A28931  25.134  24.258   6.711  0.0290 -0.3967 -0.0529
66208PNSU   C3A28932  24.895  24.288   6.253 -0.0716  0.1342  0.4138
66208PNSU   C1B28933  25.134  24.314   7.243 -0.0829  0.3115  0.0801
66208PNSU   C2B28934  24.787  24.564   6.959 -0.0336 -0.2781 -0.0017
66208PNSU   C3B28935  24.415  24.799   6.679 -0.0531 -0.0801  0.4143
66208PNSU   D4B28936  24.254  25.029   6.318  0.0495 -0.2638  0.3574
66208PNSU   C5B28937  24.460  25.096   5.910 -0.1689  0.0882  0.1489
66208PNSU   C6B28938  24.365  25.007   5.468  0.0403  0.0150  0.1555
66209PNSU    S128939  19.135   1.784  15.011 -0.0527 -0.0595 -0.4543
66209PNSU    C128940  19.139   1.277  14.990  0.0940 -0.0448  0.2753
66209PNSU    C228941  19.218   1.556  14.912  0.1823 -0.1575 -0.0447
66209PNSU    C328942  19.061   1.385  14.721  0.0016 -0.2765  0.2080
66209PNSU   AM128943  19.057   1.697  14.431 -0.1299 -0.2635  0.2234
66209PNSU   AM228944  18.990   1.419  14.478  0.2982 -0.0893 -0.3372
66209PNSU   T1A28945  19.285   1.726  14.049  0.0382 -0.1010 -0.0515
66209PNSU   C2A28946  19.399   1.853  13.656  0.0669 -0.1581 -0.2002
66209PNSU   C3A28947  19.313   2.175  13.392  0.1307 -0.0156  0.0762
66209PNSU   C1B28948  18.899   1.380  14.015  0.1781  0.1432 -0.0735
66209PNSU   C2B28949  18.723   1.390  13.591 -0.1555  0.2412  0.0377
66209PNSU   C3B28950  18.633   1.479  13.134  0.0157 -0.1579 -0.1514
66209PNSU   D4B28951  18.674   1.550  12.590  0.1255  0.0291  0.1913
66209PNSU   C5B28952  18.405   1.169  12.329  0.1383 -0.1946 -0.1827
66209PNSU   C6B28953  18.199   0.894  12.628  0.0361 -0.0806  0.2257
66210PNSU    S128954   3.423   1.517  16.719  0.0304 -0.0124 -0.1114
66210PNSU    C128955   3.298   1.989  16.971  0.0989  0.3792 -0.2133
66210PNSU    C228956   3.397   1.765  16.798  0.1132 -0.1917  0.5073
66210PNSU    C328957   3.585   1.982  16.884  0.0999  0.1107 -0.1914
66210PNSU   AM128958   3.836   1.847  16.567  0.3606  0.0071  0.0571
66210PNSU   AM228959   3.800   2.010  16.863 -0.3410  0.0596 -0.0911
66210PNSU   T1A28960   4.016   1.901  16.221  0.1033 -0.1022 -0.0326
66210PNSU   C2A28961   3.993   1.923  15.795  0.2117  0.3972 -0.4222
66210PNSU   C3A28962   4.198   1.775  15.422  0.3235  0.0697 -0.2364
66210PNSU   C1B28963   4.165   2.184  16.619  0.3799 -0.1679 -0.1482
66210PNSU   C2B28964   4.436   2.072  16.450  0.0251 -0.5943 -0.0429
66210PNSU   C3B28965   4.763   2.243  16.202  0.0428  0.2507 -0.3839
66210PNSU   D4B28966   5.138   2.299  16.012  0.3597 -0.1244 -0.0700
66210PNSU   C5B28967   5.075   2.115  15.629 -0.2815  0.0740  0.3443
66210PNSU   C6B28968   5.168   1.831  15.236 -0.2452 -0.1201 -0.1515
66211PNSU    S128969  26.617  10.166   7.887  0.0083  0.1827  0.1201
66211PNSU    C128970  26.263  10.568   7.834 -0.1446 -0.1157  0.2060
66211PNSU    C228971  26.464  10.351   7.782 -0.0149  0.0650 -0.0561
66211PNSU    C328972  26.208  10.359   7.626 -0.1077 -0.0113  0.0909
66211PNSU   AM128973  26.158  10.105   7.287  0.0315 -0.1086  0.1433
66211PNSU   AM228974  26.196   9.969   7.585  0.1882 -0.1551 -0.3899
66211PNSU   T1A28975  25.887  10.091   6.876  0.2685 -0.2226 -0.0823
66211PNSU   C2A28976  25.558   9.939   6.726 -0.1319 -0.4736  0.3423
66211PNSU   C3A28977  25.195   9.886   6.612 -0.3640  0.0074 -0.0419
66211PNSU   C1B28978  26.059   9.621   7.191 -0.0414 -0.0251  0.2269
66211PNSU   C2B28979  25.776   9.432   7.107  0.0087 -0.0452  0.1566
66211PNSU   C3B28980  25.608   9.430   6.818  0.1185  0.0501  0.1742
66211PNSU   D4B28981  25.192   9.348   6.632  0.2599  0.0094  0.3038
66211PNSU   C5B28982  24.854   9.558   6.412 -0.1961  0.1259  0.2128
66211PNSU   C6B28983  24.480   9.914   6.322 -0.2143  0.3061 -0.1532
66212PNSU    S128984   4.109  12.818  14.762  0.2646 -0.2251  0.0217
66212PNSU    C128985   4.376  12.368  14.729  0.1714 -0.1035 -0.0393
66212PNSU    C228986   4.144  12.559  14.743  0.0490 -0.2693  0.2148
66212PNSU    C328987   4.266  12.491  14.478 -0.2391 -0.2342  0.0717
66212PNSU   AM128988   3.999  12.641  14.181 -0.3643 -0.2024  0.2002
66212PNSU   AM228989   4.255  12.504  14.182  0.0228  0.2246  0.0393
66212PNSU   T1A28990   4.282  12.725  13.758  0.0902 -0.0684  0.1013
66212PNSU   C2A28991   4.572  12.746  13.420 -0.0070 -0.2765 -0.0397
66212PNSU   C3A28992   4.958  12.626  13.176 -0.3118  0.0626 -0.2850
66212PNSU   C1B28993   4.671  12.525  13.985 -0.2019 -0.0442 -0.1866
66212PNSU   C2B28994   5.098  12.624  13.694  0.0807 -0.1079  0.2160
66212PNSU   C3B28995   5.496  12.738  13.674  0.0487  0.3615  0.6699
66212PNSU   D4B28996   5.865  12.933  13.415  0.1567 -0.2494 -0.0027
66212PNSU   C5B28997   6.183  13.225  13.526 -0.0964 -0.1993 -0.3145
66212PNSU   C6B28998   6.145  13.621  13.745  0.2067  0.2102 -0.1731
66213PNSU    S128999  25.512  12.440   7.647 -0.1276 -0.0380 -0.1722
66213PNSU    C129000  25.209  12.436   8.116  0.2076 -0.1552  0.1745
66213PNSU    C229001  25.343  12.442   7.848  0.3662 -0.0440  0.2550
66213PNSU    C329002  25.230  12.185   7.954 -0.3256  0.0462 -0.2231
66213PNSU   AM129003  25.301  11.876   7.669 -0.0403 -0.0259 -0.0763
66213PNSU   AM229004  25.196  11.959   7.979 -0.2202 -0.1271 -0.1955
66213PNSU   T1A29005  24.966  11.824   7.310 -0.2037  0.3349  0.0655
66213PNSU   C2A29006  24.574  11.664   7.058 -0.0845 -0.1307  0.2693
66213PNSU   C3A29007  24.239  11.746   6.821 -0.3232 -0.2707  0.2502
66213PNSU   C1B29008  24.800  12.004   7.778  0.1302  0.3014  0.1770
66213PNSU   C2B29009  24.549  11.955   7.560  0.1760 -0.3433  0.1813
66213PNSU   C3B29010  24.163  11.818   7.314 -0.2884 -0.1815  0.1581
66213PNSU   D4B29011  23.834  11.528   7.214 -0.0860  0.1175 -0.0707
66213PNSU   C5B29012  23.634  11.203   7.464  0.2714 -0.0928  0.2611
66213PNSU   C6B29013  23.621  10.998   7.790 -0.0456 -0.0538 -0.1463
66214PNSU    S129014  18.542   0.583  15.120  0.0808 -0.0531 -0.1455
66214PNSU    C129015  18.798   0.223  14.853  0.0294 -0.0698  0.0562
66214PNSU    C229016  18.585   0.341  15.028  0.0306 -0.1657  0.1224
66214PNSU    C329017  18.629   0.449  14.752 -0.1872 -0.2261  0.0631
66214PNSU   AM129018  18.267   0.362  14.545 -0.2119  0.1608 -0.0610
66214PNSU   AM229019  18.543   0.578  14.499 -0.2331 -0.1125  0.2388
66214PNSU   T1A29020  18.134   0.354  14.079 -0.2034  0.1991  0.2469
66214PNSU   C2A29021  17.809   0.295  13.721 -0.3697  0.1708 -0.0682
66214PNSU   C3A29022  17.641   0.362  13.396 -0.1857 -0.2680 -0.0307
66214PNSU   C1B29023  18.576   0.635  14.081  0.0550  0.1210 -0.1870
66214PNSU   C2B29024  18.436   0.644  13.765  0.2492  0.0979 -0.0437
66214PNSU   C3B29025  18.167   0.701  13.408 -0.2447 -0.0812  0.0209
66214PNSU   D4B29026  17.781   0.753  13.138  0.2546 -0.0570 -0.3114
66214PNSU   C5B29027  17.704   0.660  12.798 -0.1497  0.2146  0.0358
66214PNSU   C6B29028  17.582   0.695  12.395 -0.3019 -0.0826  0.3491
66215PNSU    S129029  25.592  19.085   6.364 -0.0826 -0.0292 -0.2287
66215PNSU    C129030  25.387  18.576   6.387  0.0954  0.1288 -0.3076
66215PNSU    C229031  25.464  18.863   6.422 -0.2431  0.1668  0.1844
66215PNSU    C329032  25.190  18.771   6.502 -0.1902 -0.2659 -0.1133
66215PNSU   AM129033  24.991  19.142   6.440 -0.0116 -0.0844  0.3742
66215PNSU   AM229034  24.969  18.790   6.579  0.3930 -0.2643 -0.1321
66215PNSU   T1A29035  24.756  19.166   6.187  0.0728 -0.0411 -0.2219
66215PNSU   C2A29036  24.477  19.360   5.866  0.2532 -0.0885  0.0468
66215PNSU   C3A29037  24.060  19.349   5.648  0.0820  0.3073  0.0969
66215PNSU   C1B29038  24.481  18.782   6.487  0.0344 -0.4235 -0.3347
66215PNSU   C2B29039  24.083  18.834   6.228  0.0444 -0.0890  0.1197
66215PNSU   C3B29040  23.731  18.928   5.969  0.0159  0.1155 -0.0708
66215PNSU   D4B29041  23.619  19.053   5.571 -0.2614 -0.1841 -0.0951
66215PNSU   C5B29042  23.233  18.952   5.346  0.0337  0.3272  0.2617
66215PNSU   C6B29043  22.832  18.871   5.214 -0.0844 -0.0138  0.3322
66216PNSU    S129044   7.942  28.179  21.273 -0.3180  0.1051 -0.0925
66216PNSU    C129045   8.424  28.169  21.101 -0.0811  0.1983 -0.1206
66216PNSU    C229046   8.125  28.142  21.090 -0.0731 -0.0423  0.1788
66216PNSU    C329047   8.297  27.998  20.890 -0.1506 -0.0026  0.0823
66216PNSU   AM129048   8.041  27.669  20.802 -0.0539  0.0747 -0.5075
66216PNSU   AM229049   8.292  27.825  20.726  0.0655 -0.0999 -0.0298
66216PNSU   T1A29050   8.153  27.549  20.309  0.1395 -0.0187  0.0614
66216PNSU   C2A29051   8.228  27.506  19.841  0.1238  0.3950 -0.0538
66216PNSU   C3A29052   8.533  27.566  19.445 -0.0185  0.0888 -0.2059
66216PNSU   C1B29053   8.568  27.712  20.483  0.1959  0.0149  0.0182
66216PNSU   C2B29054   8.681  27.554  20.018 -0.3737 -0.2270  0.1105
66216PNSU   C3B29055   8.722  27.176  19.770  0.3197  0.1377 -0.0346
66216PNSU   D4B29056   8.932  26.783  19.602 -0.0380  0.2002  0.0744
66216PNSU   C5B29057   9.272  26.594  19.531 -0.0090  0.1625 -0.1723
66216PNSU   C6B29058   9.657  26.580  19.230  0.1192 -0.1591  0.0321
66217PNSU    S129059  26.326  24.006   7.136  0.0361  0.0938  0.1654
66217PNSU    C129060  26.022  24.224   7.534 -0.1679 -0.1291 -0.1421
66217PNSU    C229061  26.239  24.132   7.349  0.2775  0.1669  0.2218
66217PNSU    C329062  26.090  24.385   7.290  0.1361  0.0465  0.0554
66217PNSU   AM129063  25.979  24.273   6.894  0.2840 -0.2195  0.0882
66217PNSU   AM229064  26.052  24.612   7.106 -0.0561 -0.0646  0.0351
66217PNSU   T1A29065  25.698  24.334   6.575  0.0269 -0.0882  0.1133
66217PNSU   C2A29066  25.442  24.310   6.181 -0.2638  0.0495  0.2523
66217PNSU   C3A29067  25.238  24.318   5.739  0.1094  0.1081 -0.0894
66217PNSU   C1B29068  25.946  24.769   6.741  0.0740 -0.2230 -0.0389
66217PNSU   C2B29069  25.824  24.962   6.427 -0.2566  0.0966  0.1487
66217PNSU   C3B29070  25.480  25.142   6.171 -0.0199  0.1259  0.0032
66217PNSU   D4B29071  25.338  25.406   5.876  0.3334  0.2162  0.0460
66217PNSU   C5B29072  25.602  25.727   5.647 -0.0666  0.2105  0.3603
66217PNSU   C6B29073  25.473  25.942   5.314  0.2096 -0.1123  0.1163
66218PNSU    S129074  26.135  11.845   7.276  0.3595  0.2541  0.3430
66218PNSU    C129075  26.296  11.419   7.509 -0.0182  0.1761  0.2151
66218PNSU    C229076  26.112  11.596   7.352  0.1117  0.1946  0.0816
66218PNSU    C329077  26.000  11.405   7.555 -0.0785 -0.0065 -0.2098
66218PNSU   AM129078  25.747  11.185   7.292 -0.1462  0.1695 -0.2928
66218PNSU   AM229079  25.693  11.494   7.588 -0.1846 -0.1404 -0.2322
66218PNSU   T1A29080  25.622  10.900   7.002 -0.2787  0.0474  0.1297
66218PNSU   C2A29081  25.349  10.847   6.733  0.3876  0.0088 -0.1374
66218PNSU   C3A29082  25.062  10.842   6.377  0.0578 -0.0845  0.0544
66218PNSU   C1B29083  25.284  11.351   7.284  0.2318 -0.1582 -0.1684
66218PNSU   C2B29084  24.962  11.263   7.051  0.1958 -0.1733  0.0259
66218PNSU   C3B29085  24.891  10.981   6.800  0.0209  0.1335  0.0442
66218PNSU   D4B29086  24.552  10.893   6.480  0.0298  0.1052 -0.2742
66218PNSU   C5B29087  24.077  10.717   6.640  0.0335  0.0190  0.1461
66218PNSU   C6B29088  23.699  10.724   6.596  0.1274 -0.2133 -0.1626
66219PNSU    S129089  33.301  17.899   5.146 -0.0192 -0.1376 -0.0630
66219PNSU    C129090  33.428  18.396   5.333 -0.0515 -0.0583  0.0692
66219PNSU    C229091  33.382  18.102   5.290 -0.1029 -0.0139 -0.1899
66219PNSU    C329092  33.536  18.261   5.087  0.2868  0.0546  0.1524
66219PNSU   AM129093  33.549  18.029   4.730 -0.1228  0.2867 -0.0172
66219PNSU   AM229094  33.651  18.231   4.934 -0.0588  0.1350  0.3270
66219PNSU   T1A29095  33.447  18.178   4.352  0.0527  0.0536  0.1420
66219PNSU   C2A29096  33.491  18.009   3.895 -0.1442  0.0040  0.0749
66219PNSU   C3A29097  33.617  18.168   3.575 -0.1371  0.0716  0.4189
66219PNSU   C1B29098  33.935  18.064   4.524  0.1768 -0.2134  0.1705
66219PNSU   C2B29099  33.936  18.070   4.100  0.1820 -0.0611  0.1965
66219PNSU   C3B29100  34.033  18.018   3.720 -0.1555  0.0339 -0.0482
66219PNSU   D4B29101  33.996  17.788   3.342  0.0518 -0.3024  0.4408
66219PNSU   C5B29102  33.689  17.942   3.032 -0.0192 -0.0998  0.1052
66219PNSU   C6B29103  33.301  17.905   2.978  0.0418  0.1022 -0.3766
66220PNSU    S129104  30.328  12.180   5.251 -0.0436 -0.0443  0.3781
66220PNSU    C129105  30.504  11.732   5.018 -0.1180  0.0640  0.0090
66220PNSU    C229106  30.446  12.020   5.080 -0.1366  0.0062  0.2662
66220PNSU    C329107  30.527  11.940   4.803 -0.1283  0.2594  0.1941
66220PNSU   AM129108  30.829  12.101   4.549 -0.0377  0.0768  0.1852
66220PNSU   AM229109  30.552  12.341   4.560  0.4072 -0.0506  0.4151
66220PNSU   T1A29110  31.009  12.038   4.068 -0.1618  0.0368  0.6127
66220PNSU   C2A29111  31.158  11.866   3.708  0.0733  0.1414 -0.0439
66220PNSU   C3A29112  31.186  11.510   3.326  0.1822  0.1227  0.1635
66220PNSU   C1B29113  30.664  12.377   4.051 -0.1793  0.0712 -0.1153
66220PNSU   C2B29114  30.783  12.192   3.654 -0.0803 -0.0431 -0.1058
66220PNSU   C3B29115  30.809  12.114   3.193  0.1221 -0.0192  0.1085
66220PNSU   D4B29116  30.840  12.147   2.822  0.2893  0.4662 -0.1370
66220PNSU   C5B29117  30.470  12.237   2.747  0.0161 -0.0596  0.0299
66220PNSU   C6B29118  30.119  12.092   2.642 -0.0187  0.1201 -0.1970
66221CHOL   ROH29119  25.851  19.121   4.432  0.1939 -0.4754 -0.0974
66221CHOL    R129120  25.684  19.038   4.218  0.0914 -0.1686 -0.1384
66221CHOL    R229121  25.502  19.207   4.097  0.3101  0.1187 -0.0677
66221CHOL    R329122  25.633  19.133   3.871  0.2189  0.0509 -0.0989
66221CHOL    R429123  25.394  19.273   3.776  0.2764  0.1944 -0.0412
66221CHOL    R529124  25.458  19.073   3.718  0.1490  0.1568 -0.0629
66221CHOL    C129125  25.453  19.242   3.376  0.1713  0.1749 -0.0551
66221CHOL    C229126  25.514  19.104   3.075  0.1600  0.1938 -0.0162
66222CHOL   ROH29127   6.491   3.767  18.383 -0.0191 -0.0065 -0.1654
66222CHOL    R129128   6.674   3.702  18.178 -0.0193  0.0245 -0.1755
66222CHOL    R229129   6.620   3.510  17.987  0.0801 -0.1176 -0.0617
66222CHOL    R329130   6.677   3.712  17.814 -0.1163 -0.1643 -0.1814
66222CHOL    R429131   6.816   3.479  17.703  0.0029 -0.1237 -0.1141
66222CHOL    R529132   6.904   3.673  17.749 -0.1126 -0.0418 -0.2409
66222CHOL    C129133   6.983   3.650  17.376 -0.2264 -0.1710 -0.2576
66222CHOL    C229134   6.931   3.756  17.056 -0.0162 -0.1374 -0.1882
66223CHOL   ROH29135  32.558  16.574   4.557  0.0560 -0.3706 -0.0471
66223CHOL    R129136  32.661  16.623   4.298  0.0061 -0.2359 -0.0418
66223CHOL    R229137  32.826  16.444   4.167 -0.0247 -0.1708 -0.1698
66223CHOL    R329138  32.640  16.466   3.970 -0.0628 -0.0611 -0.1221
66223CHOL    R429139  32.869  16.337   3.841 -0.1011 -0.0259 -0.2279
66223CHOL    R529140  32.766  16.517   3.773 -0.0969  0.0166 -0.1243
66223CHOL    C129141  32.719  16.295   3.467 -0.1805  0.1620 -0.2169
66223CHOL    C229142  32.186  16.216   3.320  0.2383  0.0048  0.2931
66224CHOL   ROH29143  23.356   5.792   9.550  0.2310 -0.0011  0.0213
66224CHOL    R129144  23.459   6.007   9.702  0.2268  0.0154  0.0008
66224CHOL    R229145  23.472   6.002   9.978  0.1019  0.0961  0.0096
66224CHOL    R329146  23.734   6.060   9.934  0.1392  0.0044  0.1076
66224CHOL    R429147  23.687   6.134  10.214  0.0811 -0.0479  0.1101
66224CHOL    R529148  23.772   6.261  10.058  0.1801 -0.0422  0.1697
66224CHOL    C129149  24.058   6.266  10.310  0.1036 -0.2178  0.2607
66224CHOL    C229150  24.280   6.474  10.480  0.2540 -0.2045  0.1042
66225CHOL   ROH29151  20.889  29.483  12.554  0.0455 -0.0990 -0.1265
66225CHOL    R129152  20.637  29.356  12.532 -0.0605  0.1148 -0.1632
66225CHOL    R229153  20.448  29.432  12.346  0.0948  0.1690 -0.2996
66225CHOL    R329154  20.457  29.169  12.278 -0.1111  0.1172 -0.1291
66225CHOL    R429155  20.242  29.282  12.112  0.1116  0.2222 -0.3486
66225CHOL    R529156  20.227  29.109  12.244 -0.1469  0.3180 -0.2498
66225CHOL    C129157  20.130  28.948  11.912 -0.0722  0.2041 -0.2168
66225CHOL    C229158  20.004  29.038  11.580  0.0249 -0.2404 -0.0746
66226CHOL   ROH29159  19.181  18.513  12.427 -0.1043 -0.0062  0.2899
66226CHOL    R129160  19.429  18.425  12.530 -0.0401  0.0845  0.2118
66226CHOL    R229161  19.670  18.493  12.414 -0.1020  0.1529  0.1221
66226CHOL    R329162  19.730  18.581  12.665 -0.0436  0.1944  0.0938
66226CHOL    R429163  19.982  18.471  12.563 -0.1259 -0.0444  0.1443
66226CHOL    R529164  19.883  18.418  12.750 -0.1780  0.1009  0.1587
66226CHOL    C129165  20.219  18.541  12.884 -0.0848 -0.1200  0.1306
66226CHOL    C229166  20.621  18.533  12.798  0.0448 -0.1223 -0.3177
66227CHOL   ROH29167  20.403  16.276  15.245 -0.0654 -0.1844  0.0010
66227CHOL    R129168  20.305  16.357  14.992  0.1451 -0.2562 -0.1051
66227CHOL    R229169  20.217  16.177  14.802 -0.0174 -0.2961  0.0039
66227CHOL    R329170  19.992  16.329  14.808  0.1800  0.0111 -0.2070
66227CHOL    R429171  20.008  16.230  14.532  0.0862 -0.3437 -0.0862
66227CHOL    R529172  19.988  16.438  14.595  0.3517 -0.2396 -0.3405
66227CHOL    C129173  19.675  16.404  14.381  0.3320 -0.0831 -0.3366
66227CHOL    C229174  19.580  16.103  14.177 -0.5074  0.3152  0.1616
66228CHOL   ROH29175  21.662  17.486  13.339  0.1181 -0.2134 -0.2819
66228CHOL    R129176  21.517  17.631  13.144  0.1291 -0.0278 -0.1535
66228CHOL    R229177  21.606  17.872  13.041  0.2880 -0.0844 -0.1459
66228CHOL    R329178  21.575  17.745  12.803  0.0194  0.0067 -0.1607
66228CHOL    R429179  21.524  18.027  12.744  0.1217  0.0547 -0.0282
66228CHOL    R529180  21.392  17.860  12.698 -0.0084  0.1390  0.0285
66228CHOL    C129181  21.446  17.999  12.347 -0.2274  0.2211  0.0266
66228CHOL    C229182  21.478  17.989  11.977  0.1316  0.0658  0.2217
66229CHOL   ROH29183  11.311  13.021  15.522  0.1167 -0.1420  0.0555
66229CHOL    R129184  11.321  13.280  15.636 -0.0269 -0.1493  0.0850
66229CHOL    R229185  11.486  13.342  15.849 -0.0658 -0.0838  0.0957
66229CHOL    R329186  11.573  13.539  15.683 -0.1691 -0.0168  0.1204
66229CHOL    R429187  11.696  13.600  15.943 -0.1173 -0.0442  0.1030
66229CHOL    R529188  11.576  13.735  15.821 -0.1908 -0.0497  0.1683
66229CHOL    C129189  11.900  13.935  15.841 -0.2446  0.0416  0.1303
66229CHOL    C229190  11.933  14.324  16.032  0.0068  0.2077 -0.1964
66230CHOL   ROH29191   0.261  27.265  14.526  0.2438 -0.0755  0.1946
66230CHOL    R129192   0.503  27.347  14.404  0.2117  0.0648  0.2220
66230CHOL    R229193   0.749  27.316  14.526  0.2428 -0.0135  0.1505
66230CHOL    R329194   0.811  27.187  14.295  0.2102  0.1990  0.0237
66230CHOL    R429195   1.068  27.222  14.432  0.2010 -0.1095  0.1057
66230CHOL    R529196   1.020  27.283  14.228  0.2791  0.1398  0.1657
66230CHOL    C129197   1.312  27.047  14.160  0.1461  0.0346 -0.0395
66230CHOL    C229198   1.583  27.388  14.145  0.0599 -0.1115 -0.1558
66231CHOL   ROH29199   1.843  24.603  14.514 -0.1993  0.2646 -0.0843
66231CHOL    R129200   2.030  24.613  14.302 -0.1360  0.2222 -0.0309
66231CHOL    R229201   2.074  24.842  14.154  0.0028  0.2302  0.0218
66231CHOL    R329202   2.333  24.800  14.226 -0.0347  0.1068  0.0858
66231CHOL    R429203   2.347  25.000  14.011  0.1181  0.0572  0.0498
66231CHOL    R529204   2.455  24.810  14.020  0.0156  0.0013  0.1102
66231CHOL    C129205   2.749  25.052  13.995  0.1500 -0.1600  0.1262
66231CHOL    C229206   3.026  25.293  13.849  0.0855  0.1843 -0.0991
66232CHOL   ROH29207  23.806  17.513   7.627  0.1059 -0.0500  0.0104
66232CHOL    R129208  23.539  17.521   7.721  0.1123 -0.3122  0.0550
66232CHOL    R229209  23.342  17.671   7.597  0.0864 -0.0195  0.4408
66232CHOL    R329210  23.210  17.433   7.591  0.1117 -0.0262 -0.1425
66232CHOL    R429211  22.998  17.636   7.600  0.0912 -0.0641  0.4306
66232CHOL    R529212  23.022  17.466   7.735  0.1408 -0.4168 -0.0082
66232CHOL    C129213  22.674  17.393   7.596  0.1174 -0.0960 -0.1230
66232CHOL    C229214  22.386  17.194   7.385  0.0568  0.1751 -0.2140
66233CHOL   ROH29215  19.568  21.638  17.610 -0.1807  0.0838  0.2003
66233CHOL    R129216  19.444  21.610  17.357 -0.1381 -0.0221  0.1909
66233CHOL    R229217  19.174  21.559  17.328 -0.1487  0.0486  0.1654
66233CHOL    R329218  19.183  21.780  17.170 -0.0451 -0.0447  0.0394
66233CHOL    R429219  19.016  21.589  17.023 -0.0509 -0.0870  0.1003
66233CHOL    R529220  19.192  21.693  16.947 -0.0021 -0.1766  0.0919
66233CHOL    C129221  18.931  21.814  16.696  0.1029 -0.2540 -0.0552
66233CHOL    C229222  19.051  21.745  16.266  0.0508  0.0380 -0.2179
66234CHOL   ROH29223   1.907  28.694  10.943 -0.3633  0.2585 -0.2428
66234CHOL    R129224   1.648  28.641  11.045 -0.2996  0.0370 -0.1934
66234CHOL    R229225   1.530  28.392  11.029 -0.0490 -0.0914 -0.0785
66234CHOL    R329226   1.503  28.422  11.298 -0.0505 -0.0088 -0.0879
66234CHOL    R429227   1.250  28.302  11.210 -0.0433 -0.0538 -0.0511
66234CHOL    R529228   1.274  28.485  11.328 -0.0552 -0.0149 -0.1081
66234CHOL    C129229   1.061  28.279  11.569 -0.0414  0.0460 -0.0441
66234CHOL    C229230   0.726  28.275  11.687  0.1469  0.2154 -0.1808
66235CHOL   ROH29231  10.982  16.917  18.332 -0.0456  0.2007 -0.0621
66235CHOL    R129232  10.995  16.991  18.059  0.1717  0.1995 -0.0530
66235CHOL    R229233  10.819  17.171  17.946  0.0243 -0.0830 -0.2807
66235CHOL    R329234  11.048  17.298  17.871 -0.0790  0.2704 -0.0089
66235CHOL    R429235  10.844  17.395  17.684  0.0550 -0.2874 -0.4541
66235CHOL    R529236  11.036  17.306  17.632  0.3156  0.0168 -0.0401
66235CHOL    C129237  11.072  17.645  17.461 -0.0237 -0.0747 -0.3000
66235CHOL    C229238  10.807  17.993  17.333  0.2519  0.0504 -0.0934
66236CHOL   ROH29239  31.676  11.545   5.084  0.0192 -0.1113  0.1259
66236CHOL    R129240  31.829  11.400   4.895  0.0832  0.0416  0.0602
66236CHOL    R229241  31.749  11.155   4.795  0.2325  0.0114  0.0135
66236CHOL    R329242  31.782  11.278   4.555  0.1025  0.0957  0.0380
66236CHOL    R429243  31.863  11.000   4.508  0.0963  0.1162 -0.0979
66236CHOL    R529244  31.980  11.179   4.464  0.0629  0.1384 -0.0969
66236CHOL    C129245  31.961  11.026   4.115 -0.1051  0.2562 -0.1397
66236CHOL    C229246  31.976  11.071   3.720 -0.2897 -0.1605  0.0465
66237CHOL   ROH29247  18.799  24.382  13.097 -0.0663 -0.0030  0.0127
66237CHOL    R129248  19.021  24.476  13.245  0.0124 -0.0814 -0.0542
66237CHOL    R229249  18.994  24.638  13.467  0.1508  0.1871 -0.2291
66237CHOL    R329250  19.143  24.445  13.587 -0.0749  0.1511 -0.0011
66237CHOL    R429251  19.260  24.697  13.680  0.0500  0.1213 -0.0845
66237CHOL    R529252  19.366  24.532  13.585 -0.0078 -0.0191  0.0954
66237CHOL    C129253  19.555  24.550  13.916 -0.2206  0.0496  0.2137
66237CHOL    C229254  19.697  24.725  14.331  0.0508 -0.4591 -0.1283
66238CHOL   ROH29255  25.046  12.760   6.970 -0.1574  0.4927 -0.0269
66238CHOL    R129256  24.786  12.669   6.905 -0.0834  0.2500  0.0103
66238CHOL    R229257  24.567  12.838   6.896 -0.2452  0.0457  0.0507
66238CHOL    R329258  24.540  12.736   6.646 -0.1876  0.0286  0.0514
66238CHOL    R429259  24.269  12.818   6.723 -0.2056  0.0292 -0.0154
66238CHOL    R529260  24.329  12.622   6.651 -0.1865  0.0259  0.0114
66238CHOL    C129261  24.069  12.712   6.387 -0.1285  0.0035 -0.0533
66238CHOL    C229262  23.904  12.923   6.084 -0.0031  0.1181  0.2520
66239CHOL   ROH29263  22.946  27.386  10.456  0.0885 -0.1346 -0.2934
66239CHOL    R129264  22.719  27.301  10.310  0.0071 -0.0107 -0.2399
66239CHOL    R229265  22.508  27.168  10.428  0.0486 -0.0639 -0.2249
66239CHOL    R329266  22.361  27.367  10.315  0.0171  0.0297 -0.0214
66239CHOL    R429267  22.166  27.156  10.374  0.0446 -0.0479 -0.2045
66239CHOL    R529268  22.199  27.253  10.181  0.0164  0.1398 -0.1158
66239CHOL    C129269  21.830  27.336  10.236  0.0130  0.0493 -0.0017
66239CHOL    C229270  21.581  27.504  10.090  0.2699 -0.0475  0.0483
66240CHOL   ROH29271  11.867  29.979  21.164  0.2659 -0.0439 -0.0627
66240CHOL    R129272  12.001  29.919  20.921  0.1134 -0.0444 -0.1472
66240CHOL    R229273  12.006  29.665  20.813  0.1841 -0.0788 -0.0653
66240CHOL    R329274  11.909  29.791  20.593 -0.0664 -0.2125 -0.0324
66240CHOL    R429275  11.942  29.511  20.511  0.4335 -0.1421 -0.0877
66240CHOL    R529276  12.023  29.687  20.410  0.1072  0.0267 -0.0626
66240CHOL    C129277  11.812  29.540  20.128  0.3434 -0.3041 -0.0700
66240CHOL    C229278  11.835  29.557  19.765  0.0148  0.0617 -0.3023
66241CHOL   ROH29279  27.883  26.142   2.838  0.0484 -0.1841 -0.0042
66241CHOL    R129280  27.810  26.048   3.095  0.0946  0.0063  0.0793
66241CHOL    R229281  27.727  25.789   3.141 -0.3544  0.1673  0.2048
66241CHOL    R329282  27.926  25.792   3.325 -0.1839 -0.1657  0.0296
66241CHOL    R429283  27.730  25.601   3.430 -0.4614  0.2354  0.2501
66241CHOL    R529284  27.813  25.773   3.535 -0.0381  0.1066  0.1346
66241CHOL    C129285  27.919  25.493   3.772 -0.3635 -0.0380  0.1119
66241CHOL    C229286  28.054  25.261   4.062 -0.1742  0.2641  0.0561
66242CHOL   ROH29287  29.693  32.612   9.494 -0.0711  0.0371 -0.0299
66242CHOL    R129288  29.817  32.749   9.280 -0.0652  0.0851  0.0035
66242CHOL    R229289  29.895  32.622   9.047 -0.0097  0.1254 -0.0017
66242CHOL    R329290  29.743  32.815   8.930 -0.0279  0.1119  0.0009
66242CHOL    R429291  29.974  32.784   8.752 -0.0017  0.1720  0.0267
66242CHOL    R529292  29.902  32.970   8.840 -0.0444  0.1492  0.0381
66242CHOL    C129293  29.877  33.059   8.470 -0.0146  0.1873  0.0458
66242CHOL    C229294  29.930  32.931   8.133  0.2198 -0.0273 -0.1985
66243CHOL   ROH29295   1.586  18.583   3.331 -0.1731 -0.0080 -0.2400
66243CHOL    R129296   1.356  18.670   3.472 -0.1343 -0.0448 -0.1524
66243CHOL    R229297   1.109  18.549   3.444 -0.1431 -0.0395 -0.1131
66243CHOL    R329298   1.125  18.529   3.714 -0.0638 -0.1085 -0.1229
66243CHOL    R429299   0.838  18.509   3.655 -0.1043  0.1827 -0.0199
66243CHOL    R529300   0.932  18.647   3.794  0.0817  0.0628 -0.0273
66243CHOL    C129301   0.695  18.467   4.032 -0.0072  0.2481  0.0251
66243CHOL    C229302   0.357  18.344   4.214 -0.0463  0.1420  0.0084
66244CHOL   ROH29303  25.292  27.445   8.139 -0.1948  0.3746  0.0867
66244CHOL    R129304  25.167  27.348   7.905  0.0954  0.1291  0.0308
66244CHOL    R229305  24.934  27.457   7.804 -0.0606 -0.3037 -0.0861
66244CHOL    R329306  25.080  27.479   7.576  0.0097 -0.0467 -0.0178
66244CHOL    R429307  24.805  27.535   7.493 -0.0557 -0.5283 -0.1455
66244CHOL    R529308  24.939  27.387   7.406  0.2460 -0.2956 -0.0843
66244CHOL    C129309  24.867  27.601   7.098  0.0129 -0.4181 -0.1159
66244CHOL    C229310  24.574  27.405   6.912  0.0317  0.1107 -0.2098
66245CHOL   ROH29311   7.137  33.888  19.431 -0.0143  0.1516  0.0229
66245CHOL    R129312   7.130  34.053  19.202 -0.1151  0.0969 -0.0134
66245CHOL    R229313   7.358  34.159  19.087 -0.1875  0.2934  0.0225
66245CHOL    R329314   7.261  34.040  18.862 -0.0166  0.1528  0.0226
66245CHOL    R429315   7.473  34.219  18.767 -0.0051  0.1621  0.0629
66245CHOL    R529316   7.267  34.214  18.697  0.0394  0.0710 -0.0620
66245CHOL    C129317   7.450  34.143  18.370  0.2618 -0.0459  0.0867
66245CHOL    C229318   7.458  34.274  18.001  0.1329 -0.0384 -0.0053
66246CHOL   ROH29319   6.649  33.558  15.849 -0.0273 -0.0632  0.1360
66246CHOL    R129320   6.398  33.535  15.977 -0.1275  0.2022 -0.0072
66246CHOL    R229321   6.371  33.447  16.237 -0.3862 -0.0138 -0.1031
66246CHOL    R329322   6.235  33.680  16.268 -0.0374  0.1735  0.0579
66246CHOL    R429323   6.181  33.530  16.514 -0.5319 -0.0656 -0.1877
66246CHOL    R529324   6.033  33.616  16.380 -0.2582  0.3540 -0.2298
66246CHOL    C129325   5.942  33.797  16.704 -0.2892  0.0811 -0.0854
66246CHOL    C229326   5.925  33.584  17.011 -0.0658  0.0587 -0.1997
66247CHOL   ROH29327   0.790   3.280  12.859 -0.0620  0.0263 -0.1119
66247CHOL    R129328   0.890   3.084  12.682 -0.0654 -0.0213 -0.0616
66247CHOL    R229329   0.921   3.129  12.411  0.0118 -0.0644 -0.0608
66247CHOL    R329330   1.176   3.049  12.460 -0.0192 -0.1183  0.0130
66247CHOL    R429331   1.144   3.022  12.170  0.1578  0.1782 -0.0353
66247CHOL    R529332   1.212   2.868  12.308  0.0703  0.0360 -0.1513
66247CHOL    C129333   1.513   2.884  12.075  0.2137  0.2688  0.0489
66247CHOL    C229334   1.411   2.798  11.807  0.0375  0.0636 -0.0676
66248CHOL   ROH29335  18.003  33.563  14.875 -0.3109  0.0635  0.0675
66248CHOL    R129336  17.904  33.432  14.645 -0.0689  0.1575 -0.0924
66248CHOL    R229337  17.669  33.287  14.646  0.1094 -0.1369 -0.3105
66248CHOL    R329338  17.605  33.450  14.438 -0.0222 -0.0173 -0.1771
66248CHOL    R429339  17.388  33.253  14.448  0.2340 -0.3227 -0.4580
66248CHOL    R529340  17.510  33.304  14.274  0.2419  0.0114 -0.3608
66248CHOL    C129341  17.164  33.387  14.138  0.1831 -0.3187 -0.4190
66248CHOL    C229342  16.915  33.224  13.974  0.1368 -0.2113 -0.0753
66249CHOL   ROH29343  33.634  25.221   4.173 -0.1629  0.2290  0.0292
66249CHOL    R129344  33.446  25.185   4.382 -0.0607  0.1381  0.1063
66249CHOL    R229345  33.493  25.019   4.598  0.0842  0.1172  0.0581
66249CHOL    R329346  33.434  25.243   4.741  0.0788  0.0754  0.1217
66249CHOL    R429347  33.329  25.022   4.902  0.1633  0.0177  0.1017
66249CHOL    R529348  33.219  25.198   4.835  0.1110  0.0120  0.1681
66249CHOL    C129349  33.178  25.233   5.213  0.2035 -0.0796  0.1868
66249CHOL    C229350  32.910  25.030   5.437  0.0704 -0.1388  0.4686
66250CHOL   ROH29351  27.037  31.292   6.187  0.0395  0.0487  0.0336
66250CHOL    R129352  27.079  31.235   6.461  0.1028  0.0547  0.0253
66250CHOL    R229353  27.244  31.032   6.547  0.0361 -0.0140 -0.0114
66250CHOL    R329354  27.361  31.231   6.690  0.1774 -0.0556 -0.0666
66250CHOL    R429355  27.403  30.989   6.851 -0.2022 -0.0072  0.1149
66250CHOL    R529356  27.312  31.176   6.918 -0.0303  0.1429 -0.0597
66250CHOL    C129357  27.604  31.151   7.163 -0.2083 -0.0423  0.1365
66250CHOL    C229358  27.635  31.045   7.566  0.1149 -0.1022 -0.1402
66251CHOL   ROH29359  20.084  16.594  15.296  0.1432  0.0886 -0.2169
66251CHOL    R129360  19.873  16.723  15.159  0.1131  0.0814 -0.1773
66251CHOL    R229361  19.865  16.744  14.883 -0.0233 -0.0650 -0.1855
66251CHOL    R329362  19.620  16.630  14.915 -0.0436  0.0290  0.0044
66251CHOL    R429363  19.601  16.780  14.663 -0.0872 -0.2071 -0.1328
66251CHOL    R529364  19.467  16.796  14.834 -0.0263 -0.0078 -0.1033
66251CHOL    C129365  19.217  16.694  14.564 -0.1435 -0.2017  0.0764
66251CHOL    C229366  19.187  16.956  14.344 -0.0102 -0.0917 -0.0860
66252CHOL   ROH29367  25.155  11.229   8.712  0.0792  0.1182 -0.1978
66252CHOL    R129368  24.913  11.084   8.681  0.1049  0.0587 -0.1167
66252CHOL    R229369  24.665  11.199   8.723  0.0838  0.0503 -0.2234
66252CHOL    R329370  24.616  11.107   8.472  0.1212 -0.1397 -0.1621
66252CHOL    R429371  24.373  11.043   8.623  0.0999 -0.0306 -0.1462
66252CHOL    R529372  24.493  10.904   8.506  0.1202 -0.1178 -0.0257
66252CHOL    C129373  24.157  10.866   8.330  0.1444 -0.2565 -0.0439
66252CHOL    C229374  23.849  10.848   8.272  0.1548  0.0495  0.1753
66253CHOL   ROH29375   1.247  10.161   5.863  0.1088 -0.0860  0.2832
66253CHOL    R129376   1.092  10.267   6.075  0.0413 -0.1510  0.2672
66253CHOL    R229377   0.828  10.341   6.044  0.0877 -0.0193  0.1718
66253CHOL    R329378   0.790  10.174   6.255 -0.0946 -0.1345  0.0484
66253CHOL    R429379   0.599  10.393   6.298  0.2429  0.1174  0.2851
66253CHOL    R529380   0.748  10.320   6.440  0.1816 -0.2198  0.1807
66253CHOL    C129381   0.429  10.266   6.643  0.1622  0.0889  0.2351
66253CHOL    C229382   0.213  10.153   6.910  0.1646  0.3612  0.1410
66254CHOL   ROH29383  12.831  19.326  17.933 -0.3193 -0.1179 -0.5102
66254CHOL    R129384  13.092  19.234  17.993 -0.3272 -0.0080 -0.3050
66254CHOL    R229385  13.150  18.967  18.037 -0.2596  0.0231 -0.2051
66254CHOL    R329386  13.335  19.009  17.841 -0.1358  0.0472 -0.0842
66254CHOL    R429387  13.423  18.764  17.976 -0.2979 -0.0463 -0.1457
66254CHOL    R529388  13.542  18.943  17.941 -0.2139 -0.0715  0.0021
66254CHOL    C129389  13.755  18.684  17.758 -0.2039 -0.0642  0.0024
66254CHOL    C229390  13.993  18.379  17.724  0.2266 -0.1153 -0.1884
66255CHOL   ROH29391  20.636  31.106  13.077  0.0257  0.1304 -0.0805
66255CHOL    R129392  20.375  31.095  12.967  0.0565  0.1015 -0.1510
66255CHOL    R229393  20.304  31.234  12.739  0.0943  0.1172 -0.1532
66255CHOL    R329394  20.225  30.989  12.652  0.1571  0.1149 -0.2034
66255CHOL    R429395  20.059  31.178  12.502 -0.0725  0.0959  0.0227
66255CHOL    R529396  19.988  31.010  12.621  0.1186  0.0002  0.0029
66255CHOL    C129397  19.843  30.916  12.282 -0.1109  0.0813  0.0779
66255CHOL    C229398  19.628  30.733  11.977 -0.0642 -0.1056 -0.1889
66256CHOL   ROH29399  26.070  26.873   5.708 -0.0490  0.2172 -0.0071
66256CHOL    R129400  25.989  27.031   5.929 -0.0601  0.3252 -0.0886
66256CHOL    R229401  25.842  27.263   5.899 -0.3086  0.1560 -0.1918
66256CHOL    R329402  25.674  27.141   6.074 -0.0745  0.1378  0.0238
66256CHOL    R429403  25.662  27.425   6.146 -0.4484  0.2178 -0.3336
66256CHOL    R529404  25.706  27.259   6.280 -0.1652  0.4467 -0.1355
66256CHOL    C129405  25.399  27.404   6.453 -0.3105  0.2364 -0.2136
66256CHOL    C229406  25.249  27.370   6.895  0.0844 -0.0072 -0.1858
66257CHOL   ROH29407   0.254  22.384   2.939 -0.0079 -0.1144  0.0481
66257CHOL    R129408   0.186  22.205   3.146 -0.0386 -0.1183  0.0349
66257CHOL    R229409   0.172  22.281   3.411  0.1778 -0.1833  0.0682
66257CHOL    R329410  35.307  22.176   3.395  0.0799  0.0311  0.1780
66257CHOL    R429411  35.358  22.203   3.683  0.2396 -0.0458  0.1534
66257CHOL    R529412  35.295  22.022   3.578  0.0355  0.0204  0.1643
66257CHOL    C129413  35.008  22.058   3.826  0.1840  0.2353  0.3060
66257CHOL    C229414  34.981  22.180   4.153 -0.1175  0.1781  0.0147
66258CHOL   ROH29415  19.882  22.049  11.424  0.1295  0.1443 -0.1049
66258CHOL    R129416  20.151  21.983  11.367  0.0551 -0.1364 -0.1395
66258CHOL    R229417  20.358  22.033  11.543  0.2037  0.1720 -0.3955
66258CHOL    R329418  20.408  21.768  11.510  0.0368  0.0591  0.1938
66258CHOL    R429419  20.669  21.885  11.571  0.1499  0.0765 -0.2937
66258CHOL    R529420  20.620  21.761  11.399 -0.0526 -0.3120  0.0360
66258CHOL    C129421  20.897  21.551  11.556 -0.0383 -0.0853  0.3188
66258CHOL    C229422  21.205  21.385  11.251 -0.1948  0.0310 -0.0363
66259CHOL   ROH29423   0.475  18.189   6.708 -0.2861  0.1407 -0.1557
66259CHOL    R129424   0.674  18.338   6.574 -0.1961  0.1362 -0.0291
66259CHOL    R229425   0.873  18.219   6.423 -0.1110  0.1319  0.0825
66259CHOL    R329426   0.781  18.386   6.229  0.0125  0.1460  0.0365
66259CHOL    R429427   1.048  18.307   6.138 -0.0337 -0.0458  0.0751
66259CHOL    R529428   0.974  18.511   6.161  0.0964  0.0065  0.0219
66259CHOL    C129429   1.065  18.515   5.791  0.1273 -0.1350  0.0278
66259CHOL    C229430   1.369  18.433   5.664 -0.1868 -0.0741  0.2684
66260CHOL   ROH29431  23.472   5.150  12.846 -0.0575  0.0268  0.0460
66260CHOL    R129432  23.391   5.249  12.593 -0.0336  0.0049  0.0299
66260CHOL    R229433  23.318   5.082  12.386  0.0932 -0.0156  0.0027
66260CHOL    R329434  23.092   5.232  12.387  0.0272 -0.1134 -0.0500
66260CHOL    R429435  23.137   5.168  12.104  0.2014  0.0226 -0.0559
66260CHOL    R529436  23.109   5.367  12.189  0.0725 -0.0234  0.0135
66260CHOL    C129437  22.818   5.359  11.941  0.2028 -0.0469 -0.1397
66260CHOL    C229438  22.744   5.494  11.578  0.4226 -0.0007 -0.1337
66261CHOL   ROH29439  20.848   3.869   9.840 -0.1711 -0.1304  0.0447
66261CHOL    R129440  21.056   3.831  10.028 -0.1465 -0.0557  0.0321
66261CHOL    R229441  21.020   3.865  10.299 -0.1396 -0.0568  0.0326
66261CHOL    R329442  21.120   3.612  10.312 -0.0566 -0.0243  0.0367
66261CHOL    R429443  21.202   3.738  10.564 -0.2970 -0.0644  0.1383
66261CHOL    R529444  21.332   3.638  10.420 -0.1480  0.0239  0.2084
66261CHOL    C129445  21.402   3.427  10.730 -0.3108 -0.0382  0.2035
66261CHOL    C229446  21.679   3.330  10.902 -0.0466 -0.0224 -0.1944
66262CHOL   ROH29447  18.828  25.089  13.589 -0.1511 -0.0761  0.0550
66262CHOL    R129448  18.975  25.061  13.829 -0.1938 -0.0597  0.0836
66262CHOL    R229449  19.230  25.165  13.860 -0.0795 -0.3121  0.0198
66262CHOL    R329450  19.119  25.284  14.078  0.0353 -0.0294 -0.0745
66262CHOL    R429451  19.408  25.294  14.127  0.0380 -0.3847 -0.0240
66262CHOL    R529452  19.257  25.213  14.261 -0.0963 -0.0996 -0.0038
66262CHOL    C129453  19.408  25.481  14.486  0.2149 -0.1615 -0.1380
66262CHOL    C229454  19.596  25.419  14.730 -0.1202  0.1678 -0.1488
66263CHOL   ROH29455  20.509  16.548   7.979  0.0552 -0.2765 -0.0095
66263CHOL    R129456  20.782  16.483   8.019  0.0702 -0.2829 -0.1207
66263CHOL    R229457  20.973  16.518   7.823  0.0432 -0.0098 -0.0990
66263CHOL    R329458  21.099  16.660   8.018  0.0416 -0.2303  0.0641
66263CHOL    R429459  21.316  16.551   7.853  0.0437 -0.0631 -0.0450
66263CHOL    R529460  21.294  16.530   8.069  0.0313 -0.2989 -0.0675
66263CHOL    C129461  21.634  16.703   8.053  0.0424 -0.3013  0.1396
66263CHOL    C229462  21.983  16.915   8.149  0.3217  0.0974  0.0977
66264CHOL   ROH29463  28.222  25.308   2.184 -0.1174 -0.0990  0.0050
66264CHOL    R129464  28.372  25.234   2.413  0.0198 -0.2792 -0.1417
66264CHOL    R229465  28.308  25.319   2.667  0.4901 -0.0324 -0.0999
66264CHOL    R329466  28.310  25.053   2.723  0.0451 -0.0160  0.0184
66264CHOL    R429467  28.314  25.184   2.985  0.6783  0.1070 -0.0437
66264CHOL    R529468  28.455  25.034   2.913  0.2827 -0.2068 -0.1780
66264CHOL    C129469  28.321  24.855   3.222  0.3698  0.2040  0.1001
66264CHOL    C229470  28.533  24.774   3.471  0.2124  0.1393  0.1742
66265CHOL   ROH29471   6.203  22.779  12.547  0.0583  0.0592  0.0911
66265CHOL    R129472   5.978  22.685  12.691 -0.0381  0.1902  0.0275
66265CHOL    R229473   5.999  22.497  12.893 -0.2437 -0.0817 -0.2004
66265CHOL    R329474   5.866  22.685  13.038  0.0418 -0.0727  0.0553
66265CHOL    R429475   5.794  22.430  13.163 -0.2290 -0.1263 -0.2004
66265CHOL    R529476   5.656  22.583  13.090 -0.0682  0.1287  0.0159
66265CHOL    C129477   5.550  22.568  13.456  0.0477 -0.1436  0.0400
66265CHOL    C229478   5.448  22.756  13.772  0.0011 -0.3165 -0.4113
66266CHOL   ROH29479  26.380  25.627   7.131 -0.0815 -0.4726 -0.1979
66266CHOL    R129480  26.177  25.705   6.950 -0.2104 -0.1625  0.0752
66266CHOL    R229481  26.071  25.960   6.947  0.3041  0.0583  0.0992
66266CHOL    R329482  26.140  25.950   6.684 -0.1232 -0.2386 -0.0072
66266CHOL    R429483  25.912  26.135   6.694  0.2264  0.1888  0.2378
66266CHOL    R529484  25.931  25.958   6.567 -0.2966  0.0692  0.3155
66266CHOL    C129485  25.884  26.227   6.301 -0.2202 -0.0137  0.2185
66266CHOL    C229486  25.803  26.603   6.177  0.1876 -0.1952  0.3956
66267CHOL   ROH29487   3.334  11.849   7.768 -0.0762 -0.1631 -0.0029
66267CHOL    R129488   3.138  11.803   7.966  0.0041  0.1056  0.1407
66267CHOL    R229489   3.103  11.971   8.182  0.0198  0.4595 -0.1299
66267CHOL    R329490   2.846  11.977   8.095 -0.0120  0.2260 -0.0569
66267CHOL    R429491   2.827  12.024   8.383  0.0341  0.2654 -0.0578
66267CHOL    R529492   2.721  11.872   8.269  0.1283  0.1526  0.0017
66267CHOL    C129493   2.424  12.061   8.418  0.0126 -0.0668  0.0528
66267CHOL    C229494   2.053  12.244   8.494  0.0776  0.1610 -0.2292
66268CHOL   ROH29495   7.994  29.950  20.301 -0.1666  0.3622 -0.1495
66268CHOL    R129496   8.128  29.840  20.077 -0.1055  0.0982  0.0145
66268CHOL    R229497   8.091  29.579  19.994 -0.3944  0.1213  0.0651
66268CHOL    R329498   8.035  29.698  19.756 -0.0012  0.1261 -0.0283
66268CHOL    R429499   8.081  29.416  19.690 -0.2817  0.0511  0.0992
66268CHOL    R529500   8.179  29.588  19.599  0.0259 -0.0956  0.1514
66268CHOL    C129501   8.023  29.432  19.289  0.1528  0.0147  0.0313
66268CHOL    C229502   7.909  29.089  19.083  0.0385  0.1059 -0.1149
66269CHOL   ROH29503  25.395  27.991   5.077 -0.0205 -0.0196 -0.0090
66269CHOL    R129504  25.457  27.847   5.313 -0.1663  0.0114  0.0489
66269CHOL    R229505  25.704  27.733   5.356 -0.2277 -0.0755  0.1697
66269CHOL    R329506  25.695  27.877   5.586 -0.2583 -0.0185  0.1328
66269CHOL    R429507  25.896  27.669   5.637 -0.1987  0.0479  0.1779
66269CHOL    R529508  25.722  27.715   5.760 -0.2066  0.0326  0.1737
66269CHOL    C129509  25.999  27.768   6.016 -0.2100  0.1736  0.1480
66269CHOL    C229510  26.017  27.768   6.442 -0.2098 -0.3367  0.0376
66270CHOL   ROH29511  23.577  15.458  10.788 -0.0480  0.0071  0.0025
66270CHOL    R129512  23.371  15.340  10.633 -0.0538  0.0819 -0.0473
66270CHOL    R229513  23.154  15.212  10.747 -0.0234 -0.0184 -0.1013
66270CHOL    R329514  23.012  15.385  10.593 -0.0645  0.0650  0.0283
66270CHOL    R429515  22.811  15.206  10.708 -0.0383  0.0291  0.0176
66270CHOL    R529516  22.839  15.251  10.496 -0.1099  0.1241  0.0278
66270CHOL    C129517  22.478  15.365  10.539 -0.0855  0.1349  0.2087
66270CHOL    C229518  22.119  15.506  10.331 -0.0758 -0.0084  0.0743
66271CHOL   ROH29519   4.355  24.218  18.505 -0.0054 -0.1551 -0.1642
66271CHOL    R129520   4.563  24.241  18.314 -0.0834  0.0542 -0.2266
66271CHOL    R229521   4.717  24.468  18.288  0.0389  0.0123  0.0989
66271CHOL    R329522   4.923  24.294  18.320 -0.0480 -0.1705 -0.3023
66271CHOL    R429523   5.050  24.545  18.237  0.0644 -0.0811  0.1247
66271CHOL    R529524   5.076  24.349  18.144 -0.0805  0.0751 -0.2556
66271CHOL    C129525   5.437  24.426  18.237 -0.0023 -0.3071 -0.2367
66271CHOL    C229526   5.555  24.571  17.922 -0.0633 -0.0584  0.2576
66272CHOL   ROH29527   4.752  14.309   9.000  0.2534  0.3139  0.2331
66272CHOL    R129528   4.474  14.255   9.006  0.2803  0.1297 -0.1033
66272CHOL    R229529   4.311  14.337   9.213  0.0423 -0.3075 -0.1159
66272CHOL    R329530   4.167  14.451   9.013  0.1508 -0.0726 -0.0624
66272CHOL    R429531   3.991  14.465   9.247  0.0036 -0.3940 -0.1479
66272CHOL    R529532   3.942  14.379   9.053  0.1342 -0.1563 -0.2897
66272CHOL    C129533   3.670  14.646   9.079  0.0831 -0.2238 -0.1162
66272CHOL    C229534   3.413  14.812   8.928 -0.0259  0.0999  0.1700
66273CHOL   ROH29535  21.662  31.142   7.796 -0.1098 -0.1972  0.2240
66273CHOL    R129536  21.821  31.016   7.993 -0.0774 -0.0910  0.2672
66273CHOL    R229537  22.095  31.047   8.006 -0.0615 -0.1582  0.1487
66273CHOL    R329538  22.042  31.121   8.262  0.0448  0.0554  0.1089
66273CHOL    R429539  22.318  31.021   8.269 -0.0795 -0.2758  0.1520
66273CHOL    R529540  22.153  30.956   8.396 -0.1495  0.0002  0.1991
66273CHOL    C129541  22.398  31.076   8.662  0.0103 -0.1433  0.1165
66273CHOL    C229542  22.601  31.017   8.914 -0.2010 -0.0223  0.1405
66274CHOL   ROH29543   6.021  21.969  19.270  0.0530  0.3381  0.0724
66274CHOL    R129544   6.215  22.166  19.209  0.1891  0.1898  0.0259
66274CHOL    R229545   6.485  22.107  19.188  0.1259 -0.0414 -0.1630
66274CHOL    R329546   6.458  22.223  18.943  0.0762  0.0736 -0.1034
66274CHOL    R429547   6.744  22.161  18.965  0.0652 -0.0244 -0.2300
66274CHOL    R529548   6.656  22.355  18.918  0.1083  0.0233 -0.1148
66274CHOL    C129549   6.869  22.302  18.607 -0.0169  0.0935 -0.2127
66274CHOL    C229550   7.188  22.191  18.634 -0.1004  0.1333  0.2054
66275CHOL   ROH29551   7.816  17.833  17.848 -0.0818  0.0647 -0.1137
66275CHOL    R129552   7.996  18.047  17.810 -0.0977  0.0849 -0.0727
66275CHOL    R229553   8.269  18.010  17.783 -0.0802  0.1218  0.0538
66275CHOL    R329554   8.233  18.151  17.553 -0.0008  0.0759  0.0130
66275CHOL    R429555   8.501  18.227  17.646 -0.0142  0.0599  0.0671
66275CHOL    R529556   8.337  18.362  17.597  0.0169  0.0715 -0.0057
66275CHOL    C129557   8.602  18.486  17.351  0.0988 -0.0191  0.0373
66275CHOL    C229558   8.948  18.558  17.192 -0.0150  0.1622  0.1158
66276CHOL   ROH29559  31.511  28.893   5.633 -0.0485  0.2005 -0.0052
66276CHOL    R129560  31.330  28.691   5.714 -0.0683  0.1215 -0.2434
66276CHOL    R229561  31.366  28.425   5.652  0.2165  0.1147 -0.0603
66276CHOL    R329562  31.342  28.392   5.921 -0.2484  0.2222 -0.0855
66276CHOL    R429563  31.317  28.122   5.810  0.0954  0.1595 -0.0122
66276CHOL    R529564  31.177  28.220   5.945 -0.2018  0.1453 -0.3057
66276CHOL    C129565  31.265  27.914   6.154 -0.4121  0.2868 -0.0077
66276CHOL    C229566  31.029  27.889   6.443  0.2182  0.2079 -0.0976
66277CHOL   ROH29567   0.613   9.742   9.868 -0.0713 -0.0514  0.0441
66277CHOL    R129568   0.809   9.640   9.691 -0.1046 -0.1213  0.0472
66277CHOL    R229569   1.079   9.691   9.721 -0.1045 -0.0591 -0.0573
66277CHOL    R329570   1.097   9.420   9.713 -0.0621 -0.0612  0.0926
66277CHOL    R429571   1.361   9.515   9.626 -0.1445 -0.0650 -0.1654
66277CHOL    R529572   1.231   9.375   9.520 -0.2007 -0.1534  0.0166
66277CHOL    C129573   1.542   9.158   9.563 -0.1280 -0.0704 -0.0879
66277CHOL    C229574   1.849   9.085   9.333 -0.2920  0.3332 -0.4990
66278CHOL   ROH29575  33.134   0.315  11.658  0.0641  0.1199  0.1042
66278CHOL    R129576  33.303   0.295  11.433 -0.0324  0.1377  0.0298
66278CHOL    R229577  33.365   0.054  11.314  0.1388  0.1183  0.1555
66278CHOL    R329578  33.274   0.178  11.089 -0.0974 -0.1141  0.1201
66278CHOL    R429579  33.482  35.379  10.994  0.1125  0.1060  0.1480
66278CHOL    R529580  33.470   0.208  10.954 -0.1797  0.0727  0.0405
66278CHOL    C129581  33.464   0.075  10.597 -0.1257 -0.1189  0.1102
66278CHOL    C229582  33.880   0.035  10.525  0.0223  0.1631  0.0019
66279CHOL   ROH29583  19.583  24.513  11.425 -0.1273  0.0614  0.2603
66279CHOL    R129584  19.835  24.451  11.538 -0.0118  0.0313 -0.0100
66279CHOL    R229585  20.072  24.551  11.437 -0.1307  0.2506 -0.0777
66279CHOL    R329586  20.108  24.635  11.693  0.0310 -0.0382 -0.0042
66279CHOL    R429587  20.351  24.720  11.553 -0.3040  0.6239 -0.1953
66279CHOL    R529588  20.341  24.600  11.735  0.1534  0.3479 -0.3468
66279CHOL    C129589  20.547  24.896  11.860 -0.2533  0.5697 -0.1948
66279CHOL    C229590  20.739  25.232  12.048  0.0337 -0.0260  0.1541
66280CHOL   ROH29591   1.532  28.553  16.504 -0.1083 -0.0145 -0.0352
66280CHOL    R129592   1.712  28.618  16.295 -0.0112 -0.1404  0.0095
66280CHOL    R229593   1.797  28.432  16.109 -0.1802 -0.1741 -0.0335
66280CHOL    R329594   1.706  28.617  15.932  0.0387 -0.0252  0.0081
66280CHOL    R429595   1.930  28.485  15.795 -0.2024 -0.3576 -0.0741
66280CHOL    R529596   1.905  28.699  15.826  0.1314 -0.3183 -0.0524
66280CHOL    C129597   1.923  28.689  15.445 -0.0099 -0.3251 -0.0592
66280CHOL    C229598   2.250  28.783  15.103  0.4498  0.3962 -0.1411
66281CHOL   ROH29599  34.882  16.108   3.288  0.0123 -0.0406  0.2072
66281CHOL    R129600  34.946  16.330   3.452  0.1740  0.0496  0.0233
66281CHOL    R229601  35.103  16.539   3.363  0.0291  0.0374 -0.2713
66281CHOL    R329602  34.892  16.690   3.443  0.0976  0.0356 -0.0824
66281CHOL    R429603  35.111  16.882   3.410  0.1011  0.0187 -0.1454
66281CHOL    R529604  34.987  16.855   3.587  0.2079 -0.0319 -0.0785
66281CHOL    C129605  34.917  17.223   3.512  0.2078  0.0063  0.1052
66281CHOL    C229606  34.761  17.560   3.800 -0.0454 -0.1155  0.0645
66282CHOL   ROH29607   2.277  13.338   5.637  0.0347 -0.1309 -0.1435
66282CHOL    R129608   2.041  13.212   5.727  0.0384 -0.0654 -0.0414
66282CHOL    R229609   2.018  13.102   5.980  0.0494  0.1168  0.0393
66282CHOL    R329610   1.799  13.263   5.995  0.0500  0.1280 -0.0667
66282CHOL    R429611   1.810  13.127   6.255 -0.1511  0.0372 -0.1040
66282CHOL    R529612   1.639  13.134   6.119 -0.0515  0.0968 -0.2280
66282CHOL    C129613   1.483  13.292   6.429 -0.2672  0.0016 -0.2871
66282CHOL    C229614   1.230  13.143   6.618  0.2287 -0.0582  0.1739
66283CHOL   ROH29615   6.566   6.368  13.846 -0.0172 -0.1923  0.0532
66283CHOL    R129616   6.359   6.188  13.915 -0.0110 -0.1480  0.1904
66283CHOL    R229617   6.235   6.191  14.161 -0.1225  0.1420  0.1337
66283CHOL    R329618   6.009   6.212  14.012 -0.0596 -0.0937  0.0031
66283CHOL    R429619   5.917   6.109  14.271 -0.1498  0.1758  0.0793
66283CHOL    R529620   5.878   6.022  14.075 -0.0337 -0.0599  0.1597
66283CHOL    C129621   5.520   6.081  14.193 -0.1067 -0.0259 -0.0749
66283CHOL    C229622   5.424   6.458  14.185  0.1646  0.0540 -0.2733
66284CHOL   ROH29623  21.874  31.080  11.286 -0.2541 -0.2271  0.0247
66284CHOL    R129624  21.850  31.203  11.032 -0.0732 -0.2150  0.0130
66284CHOL    R229625  21.764  31.066  10.808  0.0462 -0.1937 -0.0464
66284CHOL    R329626  21.583  31.268  10.793  0.0878 -0.1639 -0.1547
66284CHOL    R429627  21.641  31.200  10.514  0.2550 -0.1629 -0.1203
66284CHOL    R529628  21.654  31.398  10.605  0.2291 -0.1680 -0.1049
66284CHOL    C129629  21.399  31.468  10.329  0.4155 -0.1163 -0.2645
66284CHOL    C229630  21.579  31.500   9.945  0.0302 -0.3031 -0.0357
66285CHOL   ROH29631   7.611  13.871  16.890 -0.0280 -0.0690 -0.0516
66285CHOL    R129632   7.736  13.981  16.661  0.0650 -0.0411  0.0120
66285CHOL    R229633   8.008  13.962  16.616  0.0633 -0.1621  0.0478
66285CHOL    R329634   7.928  13.856  16.378  0.0461 -0.0272 -0.0070
66285CHOL    R429635   8.187  13.982  16.321  0.1707 -0.2312  0.1081
66285CHOL    R529636   7.999  14.016  16.215  0.2325 -0.0417  0.0597
66285CHOL    C129637   8.216  13.894  15.926  0.2170 -0.1449  0.0920
66285CHOL    C229638   8.180  13.854  15.615 -0.1720 -0.3258 -0.0541
66286CHOL   ROH29639   4.384  14.674   7.920  0.0902 -0.1661  0.0097
66286CHOL    R129640   4.107  14.720   7.961  0.1169 -0.0051  0.0137
66286CHOL    R229641   3.921  14.516   7.962 -0.0101  0.1077 -0.0359
66286CHOL    R329642   3.855  14.621   8.204  0.0513  0.0949 -0.0137
66286CHOL    R429643   3.628  14.450   8.133  0.2257 -0.2461  0.2415
66286CHOL    R529644   3.620  14.661   8.190 -0.0189 -0.2386  0.1778
66286CHOL    C129645   3.395  14.511   8.460  0.4208 -0.4643  0.4235
66286CHOL    C229646   3.070  14.487   8.681 -0.1320 -0.1954 -0.1550
66287CHOL   ROH29647  27.211   0.300   8.125  0.0491 -0.1027 -0.1046
66287CHOL    R129648  27.274   0.026   8.094  0.1804 -0.0615 -0.2091
66287CHOL    R229649  27.511  35.325   7.982  0.3254  0.0937 -0.0260
66287CHOL    R329650  27.532  35.184   8.213  0.1446 -0.0391 -0.0894
66287CHOL    R429651  27.693  35.033   8.020  0.4065  0.1453 -0.0171
66287CHOL    R529652  27.532  34.955   8.144  0.3101  0.0031 -0.2302
66287CHOL    C129653  27.819  34.732   8.260  0.2839  0.0506 -0.0713
66287CHOL    C229654  27.734  34.168   8.239  0.3877 -0.0116 -0.1909
66288CHOL   ROH29655   5.416  25.240  13.105 -0.1808  0.1039 -0.1815
66288CHOL    R129656   5.154  25.175  13.020 -0.1952 -0.0675 -0.0119
66288CHOL    R229657   5.036  24.930  13.070 -0.0843 -0.0671  0.2548
66288CHOL    R329658   4.839  25.083  13.178 -0.0937 -0.0443  0.2060
66288CHOL    R429659   4.703  24.841  13.083 -0.0941 -0.0402  0.1947
66288CHOL    R529660   4.651  25.047  13.034 -0.0683 -0.0393  0.1712
66288CHOL    C129661   4.323  24.932  13.192 -0.1086 -0.0035  0.1142
66288CHOL    C229662   4.228  24.699  12.971 -0.0710 -0.1873 -0.3183
66289CHOL   ROH29663  13.991  12.720  15.042 -0.1122  0.2765  0.0537
66289CHOL    R129664  14.032  12.629  15.307 -0.2337  0.2386  0.0593
66289CHOL    R229665  14.281  12.560  15.404 -0.3146 -0.0181  0.0856
66289CHOL    R329666  14.219  12.739  15.599 -0.1482  0.0498  0.0772
66289CHOL    R429667  14.412  12.558  15.724 -0.2487 -0.0719  0.0585
66289CHOL    R529668  14.214  12.610  15.800 -0.1976  0.0761  0.0940
66289CHOL    C129669  14.430  12.725  16.093 -0.0541 -0.0396  0.0348
66289CHOL    C229670  14.400  12.466  16.300  0.2948 -0.4087 -0.2671
66290CHOL   ROH29671   4.882   9.674  15.022 -0.0814 -0.1938  0.1405
66290CHOL    R129672   5.108   9.526  15.108 -0.0297 -0.1412  0.0957
66290CHOL    R229673   5.087   9.275  15.219  0.0423 -0.1006  0.2005
66290CHOL    R329674   5.264   9.208  15.023 -0.0393 -0.1596  0.1464
66290CHOL    R429675   5.237   8.965  15.185  0.0807 -0.0901  0.2737
66290CHOL    R529676   5.423   9.067  15.132  0.0383 -0.0805  0.1375
66290CHOL    C129677   5.491   8.723  14.981  0.0265 -0.1393  0.2652
66290CHOL    C229678   5.377   8.324  14.824  0.0178 -0.0975 -0.1570
66291CHOL   ROH29679  20.719  17.992   8.453 -0.1166  0.1543  0.0648
66291CHOL    R129680  20.956  17.890   8.570 -0.1757  0.0666  0.1085
66291CHOL    R229681  21.167  18.052   8.645 -0.0694 -0.0256  0.0128
66291CHOL    R329682  21.134  17.928   8.885 -0.1376  0.1232  0.0798
66291CHOL    R429683  21.412  18.022   8.887 -0.0793 -0.0528  0.0197
66291CHOL    R529684  21.343  17.818   8.924 -0.2064  0.0113  0.1307
66291CHOL    C129685  21.523  17.889   9.253 -0.1495  0.0708  0.0867
66291CHOL    C229686  21.410  17.998   9.594 -0.0283  0.2466  0.1865
66292CHOL   ROH29687  14.527  31.404  19.677  0.1617 -0.2602 -0.0023
66292CHOL    R129688  14.344  31.427  19.463  0.1997 -0.1492 -0.0229
66292CHOL    R229689  14.425  31.456  19.200  0.2480 -0.2824 -0.0228
66292CHOL    R329690  14.266  31.240  19.161  0.0589 -0.1516  0.0147
66292CHOL    R429691  14.300  31.358  18.894  0.2051 -0.2562 -0.0139
66292CHOL    R529692  14.110  31.311  18.992  0.1472 -0.0593 -0.0282
66292CHOL    C129693  14.077  31.097  18.678  0.0028 -0.1184  0.0266
66292CHOL    C229694  14.000  30.900  18.396 -0.0314  0.0556  0.1802
66293CHOL   ROH29695   4.621  12.886  14.699 -0.0618 -0.0763 -0.1595
66293CHOL    R129696   4.735  12.740  14.484  0.0774  0.1683 -0.2531
66293CHOL    R229697   4.957  12.829  14.346  0.2261  0.2828  0.0533
66293CHOL    R329698   5.056  12.585  14.412  0.0921  0.1643 -0.1792
66293CHOL    R429699   5.226  12.677  14.191  0.2451  0.3538  0.0166
66293CHOL    R529700   5.118  12.487  14.202  0.1621  0.3833 -0.2609
66293CHOL    C129701   5.475  12.359  14.162  0.1304  0.2841 -0.2235
66293CHOL    C229702   5.617  12.260  13.844  0.1387  0.0062 -0.3874
66294CHOL   ROH29703   1.155  19.127   7.501 -0.0077  0.1529 -0.0750
66294CHOL    R129704   1.370  19.090   7.320 -0.0048  0.0219 -0.0447
66294CHOL    R229705   1.332  19.005   7.060 -0.0294  0.1399 -0.0795
66294CHOL    R329706   1.473  19.229   7.000  0.1820  0.0349  0.0206
66294CHOL    R429707   1.534  19.043   6.782 -0.0871  0.1141 -0.1252
66294CHOL    R529708   1.679  19.147   6.908  0.0661 -0.1173 -0.1050
66294CHOL    C129709   1.785  19.275   6.564  0.0777  0.0004 -0.0579
66294CHOL    C229710   2.138  19.211   6.524 -0.1951  0.2171  0.0204
66295CHOL   ROH29711   2.390   3.591  13.902 -0.0268 -0.0781  0.1515
66295CHOL    R129712   2.499   3.466  13.673  0.0140  0.0213  0.1165
66295CHOL    R229713   2.762   3.503  13.594  0.0468  0.0037  0.2162
66295CHOL    R329714   2.769   3.232  13.602 -0.0189 -0.0026  0.0707
66295CHOL    R429715   2.972   3.305  13.404  0.0655  0.0589  0.1796
66295CHOL    R529716   2.807   3.166  13.375  0.0432  0.1126  0.0477
66295CHOL    C129717   3.101   2.935  13.302  0.0149  0.0850  0.0217
66295CHOL    C229718   3.367   2.752  13.154 -0.2291 -0.0341 -0.0732
66296CHOL   ROH29719   3.559   1.429  11.641  0.1010  0.2391 -0.0038
66296CHOL    R129720   3.412   1.608  11.804  0.0825  0.1807  0.0439
66296CHOL    R229721   3.150   1.560  11.877  0.0321  0.2169 -0.1094
66296CHOL    R329722   3.248   1.595  12.128 -0.0735  0.0213 -0.0405
66296CHOL    R429723   2.973   1.699  12.140 -0.0018  0.2223 -0.1351
66296CHOL    R529724   3.155   1.804  12.200  0.0468  0.0569  0.0119
66296CHOL    C129725   2.962   1.812  12.529 -0.1206  0.0418 -0.0852
66296CHOL    C229726   2.930   1.942  12.887 -0.1110  0.3884 -0.0325
66297CHOL   ROH29727  22.369  29.087   9.943  0.2193 -0.4110 -0.0447
66297CHOL    R129728  22.281  28.970   9.700  0.1036 -0.1671 -0.1220
66297CHOL    R229729  22.120  29.104   9.521  0.0543  0.0314  0.0667
66297CHOL    R329730  22.317  29.040   9.345 -0.0253  0.1635 -0.0718
66297CHOL    R429731  22.147  29.229   9.200 -0.2148  0.1024  0.0708
66297CHOL    R529732  22.207  29.031   9.133 -0.1562  0.1459 -0.0030
66297CHOL    C129733  22.348  29.242   8.848 -0.4460  0.2681 -0.0569
66297CHOL    C229734  22.564  29.435   8.707  0.2629  0.0779  0.1589
66298CHOL   ROH29735  14.067  20.450  17.104 -0.5446 -0.2761 -0.0479
66298CHOL    R129736  14.160  20.446  17.372 -0.2420 -0.1913 -0.1505
66298CHOL    R229737  13.992  20.479  17.588  0.0091 -0.0738  0.0289
66298CHOL    R329738  14.103  20.245  17.669  0.0535 -0.0648 -0.0058
66298CHOL    R429739  13.983  20.358  17.912  0.1252 -0.0706  0.0338
66298CHOL    R529740  14.189  20.292  17.888  0.1225 -0.0559 -0.0345
66298CHOL    C129741  14.081  20.067  18.176  0.2343 -0.0603  0.0036
66298CHOL    C229742  14.433  20.042  18.355 -0.0124 -0.2478 -0.1137
66299CHOL   ROH29743  19.390  11.156  16.130 -0.0777 -0.0839  0.1346
66299CHOL    R129744  19.222  11.203  15.908  0.0084 -0.0356  0.0796
66299CHOL    R229745  19.286  11.121  15.652  0.0714 -0.0475  0.0995
66299CHOL    R329746  19.043  11.001  15.664  0.0356  0.0165  0.0161
66299CHOL    R429747  19.103  11.018  15.378  0.1974 -0.1175  0.0411
66299CHOL    R529748  18.923  11.090  15.477  0.1600 -0.0324 -0.0875
66299CHOL    C129749  18.768  10.845  15.229  0.2375 -0.0984 -0.0710
66299CHOL    C229750  18.691  10.863  14.881  0.0247  0.0105 -0.3148
66300CHOL   ROH29751  14.447   0.551  17.568 -0.0928  0.2731  0.2015
66300CHOL    R129752  14.188   0.438  17.569 -0.1300  0.3505 -0.1005
66300CHOL    R229753  14.027   0.433  17.344  0.2619  0.0890 -0.3850
66300CHOL    R329754  14.017   0.167  17.397  0.0980  0.1628 -0.0323
66300CHOL    R429755  13.818   0.208  17.185  0.3034 -0.0362 -0.2617
66300CHOL    R529756  13.785   0.111  17.378  0.0916  0.2385 -0.1595
66300CHOL    C129757  13.687  35.212  17.143  0.1736 -0.0397  0.1410
66300CHOL    C229758  13.286  35.170  17.166 -0.2866 -0.0293 -0.1607
66301CHOL   ROH29759  34.247   0.399  12.741 -0.1249 -0.0690  0.1003
66301CHOL    R129760  34.335   0.306  12.488 -0.1186 -0.2210  0.1580
66301CHOL    R229761  34.546   0.422  12.352 -0.3234 -0.0902 -0.0535
66301CHOL    R329762  34.641   0.167  12.349  0.0014  0.0237  0.1711
66301CHOL    R429763  34.797   0.307  12.144 -0.4883 -0.0588 -0.2703
66301CHOL    R529764  34.684   0.122  12.117 -0.2934 -0.2489  0.1645
66301CHOL    C129765  35.032   0.001  12.019 -0.2787  0.0663 -0.1858
66301CHOL    C229766   0.037  35.350  11.994  0.2365 -0.0740  0.0879
66302CHOL   ROH29767  12.993   2.066  17.131  0.2323  0.0848 -0.1056
66302CHOL    R129768  12.746   2.043  16.994  0.1839 -0.0026 -0.0038
66302CHOL    R229769  12.728   1.945  16.736  0.1084 -0.0405  0.0171
66302CHOL    R329770  12.549   1.774  16.848  0.2003 -0.0771  0.1094
66302CHOL    R429771  12.488   1.769  16.561 -0.0921  0.0829  0.1657
66302CHOL    R529772  12.348   1.809  16.724  0.0765  0.0155  0.3313
66302CHOL    C129773  12.180   1.505  16.565 -0.1227  0.1204  0.3388
66302CHOL    C229774  12.223   1.327  16.382 -0.0834 -0.1293  0.3601
66303CHOL   ROH29775   3.853  20.221  12.854  0.1296  0.0698 -0.1610
66303CHOL    R129776   4.115  20.329  12.853  0.1556  0.0137  0.1043
66303CHOL    R229777   4.270  20.346  13.080  0.1368 -0.5303  0.1629
66303CHOL    R329778   4.450  20.209  12.929  0.1200 -0.2390 -0.1254
66303CHOL    R429779   4.613  20.379  13.104  0.1426 -0.6681  0.2837
66303CHOL    R529780   4.624  20.368  12.886  0.1663 -0.1814  0.2536
66303CHOL    C129781   4.982  20.270  12.975  0.1302 -0.4752  0.0831
66303CHOL    C229782   5.281  20.354  13.249  0.0076  0.2827 -0.2107
66304CHOL   ROH29783   6.330  23.809  13.374  0.0763 -0.2427  0.2115
66304CHOL    R129784   6.168  23.893  13.591  0.0015 -0.1333  0.1141
66304CHOL    R229785   5.898  23.839  13.604  0.0136 -0.1978  0.0868
66304CHOL    R329786   5.964  23.732  13.845 -0.0158 -0.0094  0.1791
66304CHOL    R429787   5.670  23.743  13.846 -0.0205 -0.0929  0.0966
66304CHOL    R529788   5.804  23.826  13.997 -0.0817  0.0528  0.0729
66304CHOL    C129789   5.600  23.587  14.213 -0.0679  0.1453  0.1890
66304CHOL    C229790   5.295  23.367  14.311 -0.2048  0.0027 -0.0101
66305CHOL   ROH29791   9.188  28.139  20.681  0.1414 -0.1696  0.1019
66305CHOL    R129792   9.183  28.057  20.410  0.0757 -0.2035  0.1127
66305CHOL    R229793   9.208  28.235  20.200 -0.1109 -0.2127  0.0812
66305CHOL    R329794   9.410  28.069  20.125 -0.0479 -0.1071  0.0184
66305CHOL    R429795   9.315  28.188  19.875 -0.2964 -0.2832  0.0301
66305CHOL    R529796   9.337  27.975  19.918 -0.1225 -0.2489  0.1091
66305CHOL    C129797   9.567  28.006  19.615 -0.3452 -0.2253 -0.0590
66305CHOL    C229798   9.819  27.921  19.318  0.1806 -0.1479  0.0070
66306CHOL   ROH29799   8.159  23.655  17.517  0.0398 -0.1171  0.1178
66306CHOL    R129800   7.958  23.779  17.672  0.0594  0.0202  0.0338
66306CHOL    R229801   7.693  23.701  17.663  0.0277  0.1310  0.0030
66306CHOL    R329802   7.724  23.678  17.932 -0.0401  0.2068  0.0171
66306CHOL    R429803   7.436  23.721  17.893 -0.0436  0.1059 -0.0734
66306CHOL    R529804   7.568  23.836  18.023 -0.1162  0.1797 -0.0647
66306CHOL    C129805   7.316  23.712  18.280 -0.1487  0.1620 -0.1053
66306CHOL    C229806   6.981  23.789  18.338  0.1582 -0.0539 -0.1042
66307CHOL   ROH29807   7.714   0.693  19.401  0.5639  0.1736 -0.2473
66307CHOL    R129808   7.660   0.420  19.346  0.2876  0.1766 -0.0065
66307CHOL    R229809   7.495   0.340  19.140  0.1378  0.1623  0.1168
66307CHOL    R329810   7.711   0.192  19.067 -0.0255 -0.0999  0.1593
66307CHOL    R429811   7.495   0.101  18.890 -0.1219  0.0959  0.1780
66307CHOL    R529812   7.621  35.361  19.017 -0.2659 -0.0124  0.2123
66307CHOL    C129813   7.699  35.208  18.676 -0.4263 -0.1884  0.2537
66307CHOL    C229814   7.908  34.889  18.547  0.1411 -0.0943  0.0640
66308CHOL   ROH29815  17.047  14.501  17.788  0.0512 -0.1160 -0.0401
66308CHOL    R129816  17.023  14.431  17.514  0.0034  0.0274 -0.0736
66308CHOL    R229817  17.095  14.183  17.418  0.1519  0.1351 -0.2474
66308CHOL    R329818  16.841  14.183  17.320  0.1154  0.0074 -0.1525
66308CHOL    R429819  16.998  14.039  17.119  0.1715  0.3697 -0.3675
66308CHOL    R529820  16.868  14.210  17.084  0.0008  0.2883 -0.1329
66308CHOL    C129821  16.704  13.955  16.853  0.1486  0.3869 -0.3480
66308CHOL    C229822  16.878  14.025  16.623 -0.2970  0.1251  0.6154
66309CHOL   ROH29823  28.294  21.547   3.374 -0.1432  0.2746  0.1399
66309CHOL    R129824  28.199  21.596   3.112 -0.0820 -0.0746  0.0499
66309CHOL    R229825  27.943  21.531   3.032 -0.1541  0.0667  0.1583
66309CHOL    R329826  27.933  21.793   2.959  0.1371 -0.0439 -0.2956
66309CHOL    R429827  27.709  21.667   2.817 -0.4969  0.0963  0.5421
66309CHOL    R529828  27.869  21.787   2.728 -0.5037 -0.3557 -0.1199
66309CHOL    C129829  27.565  21.992   2.623 -0.4231  0.0096  0.3395
66309CHOL    C229830  27.352  22.122   2.305 -0.0907  0.1537  0.0458
66310CHOL   ROH29831   6.783  27.806  20.248  0.2049  0.1923  0.1405
66310CHOL    R129832   6.913  27.910  20.019  0.2625 -0.2697 -0.0404
66310CHOL    R229833   6.932  27.768  19.782 -0.5891 -0.3469 -0.0762
66310CHOL    R329834   6.819  27.992  19.677  0.0653  0.0793  0.0941
66310CHOL    R429835   6.961  27.867  19.452 -0.8358 -0.5465 -0.1595
66310CHOL    R529836   6.982  28.073  19.521  0.0985 -0.5915 -0.2409
66310CHOL    C129837   6.872  28.134  19.161 -0.3651 -0.2620 -0.0483
66310CHOL    C229838   7.249  28.273  19.014  0.1779 -0.0834  0.1277
66311CHOL   ROH29839   4.976   1.734  13.327  0.0637  0.0186  0.1146
66311CHOL    R129840   4.783   1.852  13.496  0.0980  0.1085  0.0916
66311CHOL    R229841   4.811   2.106  13.600  0.0557  0.2171 -0.1583
66311CHOL    R329842   4.567   2.145  13.488 -0.0091  0.0253 -0.0865
66311CHOL    R429843   4.585   2.348  13.698  0.0010  0.2086 -0.2626
66311CHOL    R529844   4.425   2.202  13.672  0.0473  0.1217 -0.0726
66311CHOL    C129845   4.224   2.526  13.649 -0.0916  0.0235 -0.2564
66311CHOL    C229846   3.839   2.710  13.518  0.0178  0.0216  0.0522
66312CHOL   ROH29847  11.890  11.420  18.177  0.1556 -0.2046  0.1143
66312CHOL    R129848  12.055  11.418  17.946 -0.1674 -0.1396 -0.1209
66312CHOL    R229849  12.314  11.322  17.949  0.0723  0.4714 -0.3482
66312CHOL    R329850  12.224  11.168  17.744  0.1330 -0.0325 -0.0034
66312CHOL    R429851  12.512  11.196  17.696  0.0192  0.4983 -0.4032
66312CHOL    R529852  12.352  11.241  17.555 -0.2544 -0.0516 -0.2764
66312CHOL    C129853  12.544  10.978  17.356  0.0452  0.0408 -0.1111
66312CHOL    C229854  12.807  10.935  17.068  0.3993 -0.2733  0.0968
66313CHOL   ROH29855  23.956  21.703   3.190  0.1443 -0.0291 -0.2088
66313CHOL    R129856  24.150  21.722   3.395  0.1333 -0.0357 -0.1974
66313CHOL    R229857  24.322  21.514   3.457  0.0002 -0.1092 -0.0644
66313CHOL    R329858  24.513  21.704   3.419  0.1198 -0.2467 -0.1492
66313CHOL    R429859  24.647  21.491   3.571 -0.0055 -0.2752 -0.0816
66313CHOL    R529860  24.639  21.703   3.623  0.1350 -0.2510 -0.1598
66313CHOL    C129861  25.016  21.656   3.601  0.1037 -0.5011 -0.1712
66313CHOL    C229862  25.145  21.303   3.691 -0.0991 -0.1228  0.2188
66314CHOL   ROH29863   2.678  24.975  15.229  0.1997  0.0958  0.1950
66314CHOL    R129864   2.882  24.928  15.039  0.1391  0.1249  0.1219
66314CHOL    R229865   2.918  25.088  14.817  0.0858  0.1766  0.1489
66314CHOL    R329866   3.172  25.108  14.913  0.1156  0.1321  0.0788
66314CHOL    R429867   3.181  25.239  14.650  0.0562  0.1698  0.0968
66314CHOL    R529868   3.311  25.078  14.720  0.0569  0.1448  0.0354
66314CHOL    C129869   3.572  25.346  14.644  0.0671  0.1242  0.0006
66314CHOL    C229870   3.876  25.216  14.404  0.3647  0.2218 -0.3416
66315CHOL   ROH29871  25.650  18.660   4.531  0.1584 -0.3464 -0.1567
66315CHOL    R129872  25.541  18.605   4.275 -0.1465 -0.2058 -0.0592
66315CHOL    R229873  25.269  18.601   4.227 -0.1983  0.1277  0.1924
66315CHOL    R329874  25.333  18.781   4.033 -0.1590  0.0565  0.1394
66315CHOL    R429875  25.074  18.671   3.950 -0.1213 -0.0065  0.1038
66315CHOL    R529876  25.256  18.679   3.830 -0.0854 -0.0343  0.1565
66315CHOL    C129877  25.021  18.880   3.607 -0.0398 -0.1516  0.0026
66315CHOL    C229878  24.982  19.153   3.380 -0.1152  0.2242 -0.0495
66316CHOL   ROH29879  20.480   3.700  10.996  0.1340  0.0261  0.0111
66316CHOL    R129880  20.511   3.565  11.242  0.0544  0.0599  0.0401
66316CHOL    R229881  20.756   3.470  11.330  0.0015 -0.0547  0.0660
66316CHOL    R329882  20.698   3.617  11.551  0.0754  0.0232  0.0335
66316CHOL    R429883  20.906   3.431  11.638 -0.1183 -0.1581  0.1117
66316CHOL    R529884  20.712   3.461  11.732 -0.1167  0.0301  0.0550
66316CHOL    C129885  20.939   3.546  12.025 -0.1184 -0.1453  0.1078
66316CHOL    C229886  21.170   3.564  12.218 -0.1161 -0.0306 -0.1028
66317CHOL   ROH29887  27.322  15.758   1.371 -0.1335  0.0410 -0.0447
66317CHOL    R129888  27.447  15.908   1.576 -0.1366  0.1753 -0.1402
66317CHOL    R229889  27.619  15.795   1.760 -0.4334  0.2187  0.1727
66317CHOL    R329890  27.788  15.990   1.674 -0.1233 -0.1002  0.0471
66317CHOL    R429891  27.863  15.945   1.954 -0.5070  0.2846  0.2136
66317CHOL    R529892  27.811  16.136   1.863 -0.1966  0.1900 -0.1676
66317CHOL    C129893  28.163  16.216   1.986 -0.2586  0.0237  0.1196
66317CHOL    C229894  28.590  16.295   2.027  0.0067 -0.3443 -0.1398
66318CHOL   ROH29895  11.121  19.494  20.257  0.2341  0.3215  0.3450
66318CHOL    R129896  11.209  19.664  20.049  0.1518  0.2327  0.2373
66318CHOL    R229897  11.437  19.819  20.069  0.2453  0.1257  0.0222
66318CHOL    R329898  11.505  19.693  19.838 -0.0009  0.0420 -0.0055
66318CHOL    R429899  11.654  19.946  19.832  0.3279 -0.1505 -0.0526
66318CHOL    R529900  11.520  19.869  19.677  0.1721  0.0265 -0.0067
66318CHOL    C129901  11.843  19.901  19.476  0.1449 -0.3903 -0.1217
66318CHOL    C229902  12.156  20.034  19.357  0.0619  0.1757 -0.0928
66319CHOL   ROH29903  21.727  12.413   7.602  0.0785 -0.0335  0.1207
66319CHOL    R129904  21.974  12.505   7.500  0.1038 -0.0475  0.1679
66319CHOL    R229905  22.031  12.773   7.465  0.0472 -0.0575 -0.0185
66319CHOL    R329906  22.248  12.714   7.618 -0.0115  0.1219  0.1362
66319CHOL    R429907  22.347  12.906   7.419  0.0776 -0.1532 -0.0874
66319CHOL    R529908  22.430  12.709   7.462  0.0416 -0.1058  0.2044
66319CHOL    C129909  22.734  12.928   7.535  0.0396 -0.0403  0.0178
66319CHOL    C229910  23.031  12.773   7.759 -0.0179 -0.2461 -0.2154
66320CHOL   ROH29911  27.109  10.120   6.225 -0.2307  0.1001 -0.0777
66320CHOL    R129912  27.009  10.087   5.963 -0.0956  0.0148 -0.1187
66320CHOL    R229913  27.085   9.877   5.800 -0.1848 -0.1652  0.0729
66320CHOL    R329914  26.817   9.835   5.783 -0.2140  0.0692 -0.0697
66320CHOL    R429915  26.924   9.734   5.529 -0.1015 -0.4669  0.1794
66320CHOL    R529916  26.764   9.881   5.554  0.0172 -0.2634 -0.1948
66320CHOL    C129917  26.578   9.613   5.356 -0.0807 -0.4224  0.1074
66320CHOL    C229918  26.267   9.622   5.270 -0.0715  0.0826 -0.0155
66321CHOL   ROH29919  14.573  27.220  17.528  0.0316 -0.2878  0.1451
66321CHOL    R129920  14.680  27.321  17.771  0.0601 -0.1825  0.0895
66321CHOL    R229921  14.642  27.581  17.854  0.0986 -0.1355 -0.0344
66321CHOL    R329922  14.549  27.461  18.079  0.0974 -0.0147  0.0292
66321CHOL    R429923  14.681  27.706  18.174  0.4418 -0.1656 -0.0631
66321CHOL    R529924  14.719  27.503  18.243  0.2462 -0.2064 -0.0778
66321CHOL    C129925  14.617  27.666  18.572  0.6407 -0.0696 -0.0207
66321CHOL    C229926  14.803  27.710  18.879  0.1325 -0.0598  0.0198
66322CHOL   ROH29927  23.282  21.584   4.580  0.1400  0.0112 -0.0797
66322CHOL    R129928  23.452  21.695   4.777  0.0793  0.1007 -0.0769
66322CHOL    R229929  23.726  21.660   4.773  0.0880  0.1611 -0.0172
66322CHOL    R329930  23.729  21.931   4.784  0.0251  0.1648 -0.0870
66322CHOL    R429931  23.978  21.849   4.916  0.0097  0.2533 -0.0011
66322CHOL    R529932  23.825  21.981   4.998 -0.0410  0.2415 -0.0750
66322CHOL    C129933  24.127  22.214   5.009 -0.0948  0.3109 -0.0575
66322CHOL    C229934  24.506  22.276   5.100  0.1946 -0.1052  0.0418
66323CHOL   ROH29935  13.410   7.442  18.571  0.2463 -0.0737  0.0634
66323CHOL    R129936  13.422   7.484  18.291  0.2725 -0.1608  0.0515
66323CHOL    R229937  13.486   7.283  18.113 -0.0984 -0.3150  0.0877
66323CHOL    R329938  13.252   7.356  17.996  0.0027  0.0572  0.1099
66323CHOL    R429939  13.425   7.277  17.773 -0.1526 -0.2568  0.0965
66323CHOL    R529940  13.318   7.465  17.793  0.1589 -0.0749  0.0872
66323CHOL    C129941  13.169   7.341  17.465 -0.0894  0.1266  0.1222
66323CHOL    C229942  13.170   7.168  17.118 -0.2393  0.0324  0.1294
66324CHOL   ROH29943   9.336  20.648  16.735  0.0642 -0.2826 -0.0678
66324CHOL    R129944   9.152  20.477  16.866  0.0206 -0.1989 -0.0198
66324CHOL    R229945   9.228  20.303  17.067 -0.0380 -0.1067  0.0828
66324CHOL    R329946   9.032  20.429  17.206 -0.0546 -0.0174 -0.0201
66324CHOL    R429947   9.065  20.170  17.341 -0.1719  0.0076  0.0591
66324CHOL    R529948   8.879  20.254  17.264 -0.1224  0.0383 -0.0298
66324CHOL    C129949   8.786  20.211  17.632 -0.2655  0.1582 -0.0517
66324CHOL    C229950   8.923  20.329  17.926 -0.5273  0.0590 -0.2622
66325CHOL   ROH29951  19.911  19.360  16.461 -0.3634  0.3858  0.0025
66325CHOL    R129952  19.817  19.145  16.303  0.0591  0.3292 -0.1770
66325CHOL    R229953  19.563  19.040  16.330  0.2935 -0.2602 -0.1945
66325CHOL    R329954  19.549  19.091  16.063  0.0966 -0.0280 -0.1419
66325CHOL    R429955  19.288  18.975  16.131  0.1875 -0.1987 -0.0700
66325CHOL    R529956  19.424  18.907  15.974  0.1152 -0.0036 -0.2223
66325CHOL    C129957  19.115  18.984  15.764 -0.0585  0.0555  0.0515
66325CHOL    C229958  18.794  18.938  15.583  0.2077  0.2008  0.1359
66326CHOL   ROH29959  13.119  27.136  21.530 -0.1874 -0.2167 -0.1813
66326CHOL    R129960  13.008  26.905  21.409 -0.2050 -0.2296 -0.1400
66326CHOL    R229961  12.742  26.889  21.336 -0.1661 -0.1562 -0.2986
66326CHOL    R329962  12.846  26.824  21.093 -0.0402 -0.3154 -0.2037
66326CHOL    R429963  12.561  26.759  21.072 -0.0421 -0.2705 -0.3281
66326CHOL    R529964  12.728  26.626  21.030 -0.0434 -0.3288 -0.1572
66326CHOL    C129965  12.553  26.622  20.691  0.1485 -0.4861 -0.2561
66326CHOL    C229966  12.612  26.413  20.402  0.0333  0.0699 -0.1957
66327CHOL   ROH29967   4.360   8.196  15.866  0.0915  0.0690 -0.1820
66327CHOL    R129968   4.586   8.106  15.722  0.0641  0.1516 -0.2768
66327CHOL    R229969   4.709   7.864  15.772  0.4031  0.3603 -0.0730
66327CHOL    R329970   4.667   7.824  15.506  0.1974 -0.0342  0.0149
66327CHOL    R429971   4.922   7.690  15.563  0.3284  0.2031 -0.0187
66327CHOL    R529972   4.886   7.840  15.409  0.1029 -0.0323 -0.1973
66327CHOL    C129973   5.008   7.551  15.192  0.0919 -0.2589  0.0953
66327CHOL    C229974   5.350   7.467  14.948  0.2140 -0.0488 -0.0659
66328CHOL   ROH29975   2.125  27.056  10.380  0.0431 -0.2468 -0.0495
66328CHOL    R129976   1.958  26.828  10.390 -0.0350 -0.1884 -0.0174
66328CHOL    R229977   1.948  26.661  10.610  0.0010 -0.2247 -0.0417
66328CHOL    R329978   1.681  26.712  10.596  0.0131 -0.1248  0.0836
66328CHOL    R429979   1.705  26.495  10.792  0.0199 -0.1570  0.0455
66328CHOL    R529980   1.578  26.496  10.615 -0.0585 -0.0883  0.1024
66328CHOL    C129981   1.313  26.446  10.884  0.0423 -0.0236  0.2138
66328CHOL    C229982   0.979  26.418  11.032  0.1891 -0.0443 -0.0469
66329CHOL   ROH29983  22.296  21.471   6.530  0.0837 -0.0036 -0.1112
66329CHOL    R129984  22.439  21.576   6.751 -0.0414 -0.1793  0.0551
66329CHOL    R229985  22.649  21.443   6.869  0.1164 -0.1216 -0.1512
66329CHOL    R329986  22.782  21.675   6.821 -0.1555  0.1117  0.2067
66329CHOL    R429987  22.958  21.525   7.001  0.1427 -0.0759 -0.2422
66329CHOL    R529988  22.886  21.728   7.030 -0.0376 -0.2045  0.2289
66329CHOL    C129989  23.262  21.791   7.032 -0.0968  0.1700  0.0408
66329CHOL    C229990  23.603  21.734   7.120 -0.0700 -0.1525  0.0034
66330CHOL   ROH29991   8.102  21.453  16.612  0.1178 -0.4007 -0.0325
66330CHOL    R129992   7.962  21.261  16.767  0.1996 -0.3309  0.1293
66330CHOL    R229993   7.975  21.254  17.043  0.1444 -0.0477  0.1405
66330CHOL    R329994   7.704  21.265  17.023  0.1416 -0.2292  0.0698
66330CHOL    R429995   7.754  21.121  17.273  0.1723 -0.2632  0.0439
66330CHOL    R529996   7.629  21.053  17.108  0.2637 -0.3040 -0.0086
66330CHOL    C129997   7.372  21.053  17.389  0.1860 -0.5593 -0.0789
66330CHOL    C229998   7.035  21.043  17.749 -0.0110 -0.0012 -0.1242
66331CHOL   ROH29999   9.883   3.527  18.485 -0.3626  0.0280 -0.1619
66331CHOL    R130000   9.984   3.522  18.220 -0.2872  0.1028 -0.1347
66331CHOL    R230001  10.079   3.291  18.102  0.0645  0.2023 -0.0537
66331CHOL    R330002   9.900   3.356  17.908  0.0224 -0.0941 -0.1162
66331CHOL    R430003  10.124   3.234  17.764  0.1340 -0.0158 -0.0082
66331CHOL    R530004  10.035   3.429  17.724 -0.0266 -0.1199 -0.1623
66331CHOL    C130005   9.982   3.261  17.385  0.1351 -0.4212 -0.0408
66331CHOL    C230006   9.811   3.124  17.056  0.1364  0.0170 -0.2869
66332CHOL   ROH30007  23.712  33.735  10.938  0.0814  0.0778 -0.0453
66332CHOL    R130008  23.564  33.777  10.700  0.0851  0.1930 -0.0276
66332CHOL    R230009  23.614  33.989  10.530  0.3156  0.0838 -0.0983
66332CHOL    R330010  23.636  33.792  10.343  0.0335  0.0012 -0.0467
66332CHOL    R430011  23.580  34.034  10.189  0.2090  0.0095 -0.0976
66332CHOL    R530012  23.471  33.846  10.179  0.0139  0.1156  0.0107
66332CHOL    C130013  23.581  33.876   9.815 -0.1181 -0.1115 -0.0492
66332CHOL    C230014  23.266  33.838   9.574 -0.4606  0.0562 -0.0901
66333CHOL   ROH30015  33.256  19.972   1.401 -0.2142  0.0605  0.0386
66333CHOL    R130016  33.271  19.848   1.655 -0.1614  0.0483  0.0295
66333CHOL    R230017  33.476  19.898   1.833 -0.0478 -0.0658 -0.0681
66333CHOL    R330018  33.271  19.955   2.002  0.0644  0.0436  0.0321
66333CHOL    R430019  33.490  19.869   2.177  0.0595 -0.2144 -0.0842
66333CHOL    R530020  33.287  19.789   2.174 -0.0122 -0.0401 -0.0399
66333CHOL    C130021  33.306  19.907   2.537  0.2271 -0.1979  0.0005
66333CHOL    C230022  33.153  19.838   2.869 -0.1413 -0.0191  0.1018
66334CHOL   ROH30023  24.562   7.271   5.252  0.1176  0.0972 -0.0389
66334CHOL    R130024  24.731   7.246   5.477  0.0017  0.1024  0.0487
66334CHOL    R230025  24.976   7.120   5.466 -0.0402  0.0059  0.2031
66334CHOL    R330026  25.066   7.355   5.570 -0.0003  0.0042  0.1731
66334CHOL    R430027  25.278   7.161   5.629  0.0389  0.0104  0.0571
66334CHOL    R530028  25.177   7.291   5.773  0.1026 -0.0028  0.1151
66334CHOL    C130029  25.537   7.405   5.823  0.1224  0.0116 -0.0560
66334CHOL    C230030  25.793   7.531   6.014  0.0606 -0.0677 -0.0870
66335CHOL   ROH30031  31.132  32.167  10.893 -0.3683  0.1895 -0.1689
66335CHOL    R130032  31.206  32.199  10.622 -0.2934  0.0435 -0.1659
66335CHOL    R230033  31.462  32.269  10.545 -0.2915  0.0787 -0.1292
66335CHOL    R330034  31.443  32.045  10.393 -0.1712 -0.0232  0.0045
66335CHOL    R430035  31.592  32.236  10.227 -0.0746 -0.1228 -0.0206
66335CHOL    R530036  31.412  32.128  10.170 -0.0271 -0.1732 -0.0716
66335CHOL    C130037  31.650  32.006   9.898  0.1654 -0.3367  0.1681
66335CHOL    C230038  31.700  32.001   9.627 -0.2773  0.2811 -0.1627
66336CHOL   ROH30039  30.553  29.631   6.121  0.0972 -0.0977  0.1694
66336CHOL    R130040  30.313  29.501   6.196 -0.0553  0.2113  0.2237
66336CHOL    R230041  30.308  29.245   6.300 -0.3859  0.0848 -0.0966
66336CHOL    R330042  30.169  29.365   6.501 -0.0031  0.0659  0.1843
66336CHOL    R430043  30.110  29.079   6.529 -0.2142  0.0944  0.0607
66336CHOL    R530044  29.964  29.241   6.514 -0.0969  0.2357  0.3784
66336CHOL    C130045  29.864  29.094   6.851  0.2455  0.0828  0.4160
66336CHOL    C230046  29.588  28.970   6.975 -0.0567 -0.2360  0.1041
66337CHOL   ROH30047  26.841   0.547  10.461  0.1672  0.0406 -0.0288
66337CHOL    R130048  26.797   0.411  10.216  0.0324 -0.0211  0.0287
66337CHOL    R230049  26.573   0.454  10.061  0.0793  0.1439  0.0054
66337CHOL    R330050  26.757   0.503   9.867  0.1364 -0.1306 -0.0124
66337CHOL    R430051  26.505   0.461   9.722  0.1448 -0.1742 -0.0153
66337CHOL    R530052  26.694   0.358   9.687  0.1091 -0.2890  0.1245
66337CHOL    C130053  26.638   0.511   9.342  0.2367 -0.6171 -0.0442
66337CHOL    C230054  26.558   0.402   9.041 -0.0062  0.1511  0.0947
66338CHOL   ROH30055   4.328   6.745  16.188  0.0713 -0.3419 -0.2594
66338CHOL    R130056   4.551   6.667  16.033  0.0400 -0.2012 -0.3763
66338CHOL    R230057   4.593   6.758  15.776  0.1273  0.2433 -0.2076
66338CHOL    R330058   4.835   6.831  15.875  0.1644 -0.0904 -0.0422
66338CHOL    R430059   4.894   6.726  15.608  0.1067  0.4823 -0.2913
66338CHOL    R530060   4.986   6.664  15.795  0.0848  0.0147 -0.4279
66338CHOL    C130061   5.296   6.778  15.604  0.1295  0.3083 -0.1849
66338CHOL    C230062   5.520   6.651  15.391 -0.0979 -0.0121 -0.1908
66339CHOL   ROH30063  23.937   4.439   7.764  0.2705  0.1846 -0.0431
66339CHOL    R130064  23.916   4.521   8.034  0.1688 -0.1450  0.0506
66339CHOL    R230065  24.107   4.460   8.223  0.2952 -0.0373 -0.0415
66339CHOL    R330066  24.107   4.729   8.264 -0.1441 -0.0768  0.2522
66339CHOL    R430067  24.204   4.615   8.516  0.6733 -0.1757 -0.0906
66339CHOL    R530068  24.038   4.754   8.492  0.3323 -0.4698  0.4502
66339CHOL    C130069  24.260   4.958   8.725  0.4810 -0.2933  0.1565
66339CHOL    C230070  24.206   5.133   9.027 -0.1221 -0.0243 -0.0346
66340CHOL   ROH30071  26.828  24.300   6.371 -0.2284 -0.0274 -0.0640
66340CHOL    R130072  26.738  24.524   6.223 -0.0072 -0.0092 -0.1746
66340CHOL    R230073  26.760  24.540   5.949 -0.1482 -0.2438 -0.2025
66340CHOL    R330074  26.493  24.587   5.962 -0.0782  0.1346 -0.0730
66340CHOL    R430075  26.569  24.670   5.691 -0.1455 -0.2550 -0.2099
66340CHOL    R530076  26.461  24.790   5.838  0.1141  0.0473 -0.2642
66340CHOL    C130077  26.206  24.789   5.554 -0.0784  0.0938 -0.0927
66340CHOL    C230078  26.111  25.157   5.445  0.1598 -0.0026 -0.2802
66341CHOL   ROH30079   6.535  12.122  15.494 -0.0891 -0.2363 -0.2921
66341CHOL    R130080   6.663  12.002  15.272  0.0849 -0.2246 -0.1991
66341CHOL    R230081   6.841  12.138  15.111 -0.1239 -0.0839 -0.3142
66341CHOL    R330082   7.005  11.930  15.171  0.1936  0.2074 -0.1494
66341CHOL    R430083   7.063  11.992  14.890 -0.2328 -0.2130 -0.3383
66341CHOL    R530084   7.008  11.797  14.971  0.0929 -0.1410  0.0753
66341CHOL    C130085   7.346  11.711  14.817  0.0019 -0.0151 -0.1979
66341CHOL    C230086   7.271  11.405  14.647  0.0191 -0.0859  0.3062
66342CHOL   ROH30087  17.283   2.332  15.173  0.1328  0.0719  0.1593
66342CHOL    R130088  17.095   2.259  14.974  0.1036 -0.1160  0.2558
66342CHOL    R230089  16.838   2.360  14.969  0.0984 -0.1330  0.2070
66342CHOL    R330090  16.905   2.428  14.714  0.0525 -0.3590  0.1327
66342CHOL    R430091  16.620   2.359  14.700 -0.0595  0.0386  0.3329
66342CHOL    R530092  16.780   2.276  14.577 -0.2445 -0.2547  0.2816
66342CHOL    C130093  16.557   2.423  14.305 -0.1943 -0.0737  0.3365
66342CHOL    C230094  16.489   2.560  14.029  0.0623  0.1804 -0.0619
66343CHOL   ROH30095  26.172   8.176   8.007 -0.1144 -0.1480  0.0604
66343CHOL    R130096  26.076   7.992   7.815  0.0666 -0.0986 -0.0796
66343CHOL    R230097  25.810   7.978   7.742  0.0747 -0.3239 -0.0657
66343CHOL    R330098  25.910   8.008   7.492  0.0210 -0.0160 -0.0527
66343CHOL    R430099  25.632   7.923   7.451  0.0475 -0.0921 -0.0943
66343CHOL    R530100  25.810   7.830   7.366  0.0748  0.0718 -0.2238
66343CHOL    C130101  25.623   7.919   7.046 -0.0190  0.3320 -0.0989
66343CHOL    C230102  25.490   7.963   6.778  0.1590  0.0996 -0.3370
66344CHOL   ROH30103  25.411  25.966   7.729  0.0246  0.3438  0.2524
66344CHOL    R130104  25.224  25.983   7.518  0.1053  0.1387  0.1620
66344CHOL    R230105  24.957  26.041   7.560  0.0482  0.0010  0.0199
66344CHOL    R330106  25.005  26.238   7.379  0.0157 -0.0510 -0.0445
66344CHOL    R430107  24.713  26.228   7.403  0.0336  0.0887  0.1473
66344CHOL    R530108  24.828  26.216   7.218 -0.0969  0.0059  0.0760
66344CHOL    C130109  24.615  26.523   7.142 -0.0050  0.0909  0.1610
66344CHOL    C230110  24.528  26.780   6.926  0.1237  0.0266 -0.2105
66345CHOL   ROH30111  34.115   2.681   8.595  0.1604 -0.1983  0.0582
66345CHOL    R130112  34.149   2.832   8.832 -0.0408 -0.0798  0.0128
66345CHOL    R230113  33.946   2.985   8.941 -0.2000 -0.1953 -0.1162
66345CHOL    R330114  34.001   2.840   9.164 -0.1634 -0.0680 -0.0421
66345CHOL    R430115  33.816   3.049   9.255 -0.0965  0.0217 -0.1169
66345CHOL    R530116  34.012   3.002   9.340 -0.0820  0.0371 -0.1451
66345CHOL    C130117  33.793   2.950   9.647 -0.0013  0.2677 -0.0476
66345CHOL    C230118  33.954   3.044  10.019 -0.2849  0.2324 -0.2339
66346CHOL   ROH30119  25.246  31.980   6.426  0.1208  0.0301 -0.0608
66346CHOL    R130120  25.224  31.855   6.679  0.1329  0.0334 -0.0578
66346CHOL    R230121  25.314  31.973   6.912  0.0603  0.0775 -0.0506
66346CHOL    R330122  25.060  31.927   6.996  0.0657 -0.0110 -0.0830
66346CHOL    R430123  25.222  31.911   7.239  0.0578 -0.1083 -0.0862
66346CHOL    R530124  25.082  31.761   7.166  0.0875 -0.0944 -0.1685
66346CHOL    C130125  24.930  31.832   7.509  0.0617 -0.2994 -0.1372
66346CHOL    C230126  24.938  31.626   7.873 -0.0491  0.1616 -0.0876
66347CHOL   ROH30127  19.972  27.891   9.258 -0.1118  0.2421  0.1058
66347CHOL    R130128  20.233  27.974   9.330 -0.1591  0.3256  0.1811
66347CHOL    R230129  20.298  28.054   9.586 -0.1838  0.0443  0.2766
66347CHOL    R330130  20.491  27.864   9.562 -0.0595  0.2031  0.0127
66347CHOL    R430131  20.605  28.065   9.743 -0.2285 -0.0174  0.3696
66347CHOL    R530132  20.696  27.988   9.560 -0.1354  0.3374  0.2641
66347CHOL    C130133  20.966  27.893   9.811 -0.1381  0.0954  0.1759
66347CHOL    C230134  21.034  28.009  10.210 -0.1968 -0.1095  0.0181
66348CHOL   ROH30135  27.673   5.991   4.987 -0.1598 -0.1947  0.0751
66348CHOL    R130136  27.500   6.058   5.201 -0.0561 -0.0253  0.1068
66348CHOL    R230137  27.590   6.178   5.433  0.0703  0.0782  0.0048
66348CHOL    R330138  27.398   6.362   5.374  0.1003  0.1013 -0.0214
66348CHOL    R430139  27.417   6.365   5.666  0.0134  0.0504 -0.0149
66348CHOL    R530140  27.236   6.336   5.548  0.0465  0.0826 -0.0739
66348CHOL    C130141  27.136   6.646   5.747  0.0083  0.0559 -0.0511
66348CHOL    C230142  27.045   6.955   5.945 -0.0298  0.0780 -0.1730
66349CHOL   ROH30143   7.510  19.417  14.873 -0.0594 -0.1999  0.0890
66349CHOL    R130144   7.389  19.220  15.036 -0.1307 -0.1169  0.1369
66349CHOL    R230145   7.531  19.071  15.219 -0.1838 -0.1261  0.1705
66349CHOL    R330146   7.343  19.164  15.392 -0.1481 -0.0163  0.1509
66349CHOL    R430147   7.429  18.907  15.506 -0.3657 -0.1055  0.1184
66349CHOL    R530148   7.224  18.967  15.462 -0.3119  0.0597  0.0887
66349CHOL    C130149   7.193  18.899  15.836 -0.4381  0.0092  0.0693
66349CHOL    C230150   7.386  18.731  16.168 -0.0997 -0.4109  0.0553
66350CHOL   ROH30151   3.188  24.636  15.920 -0.2419 -0.0329  0.0794
66350CHOL    R130152   3.370  24.757  15.740 -0.2699 -0.0154  0.0626
66350CHOL    R230153   3.461  25.016  15.771 -0.1550 -0.0664  0.1530
66350CHOL    R330154   3.706  24.898  15.758 -0.2067 -0.1563 -0.0077
66350CHOL    R430155   3.750  25.172  15.664 -0.1036 -0.0734  0.2809
66350CHOL    R530156   3.804  24.989  15.559 -0.1962  0.0149  0.0757
66350CHOL    C130157   4.148  25.153  15.589 -0.1224 -0.1618  0.2042
66350CHOL    C230158   4.486  25.241  15.577  0.0316 -0.0926  0.0108
66351CHOL   ROH30159  34.795  24.177   2.884  0.1792  0.0533  0.1730
66351CHOL    R130160  34.663  24.000   3.062  0.3105 -0.0387  0.1800
66351CHOL    R230161  34.771  23.925   3.304  0.2942  0.1822  0.2565
66351CHOL    R330162  34.534  24.015   3.402  0.1418 -0.0642  0.1177
66351CHOL    R430163  34.602  23.786   3.572  0.3403  0.0753  0.2305
66351CHOL    R530164  34.416  23.816   3.463  0.3506 -0.1856  0.1351
66351CHOL    C130165  34.281  23.790   3.819  0.2234 -0.2179  0.0851
66351CHOL    C230166  34.090  23.603   4.114 -0.1584  0.2865  0.1410
66352CHOL   ROH30167   7.167  15.607  13.237  0.0432  0.4366  0.0383
66352CHOL    R130168   7.072  15.732  13.472  0.0370  0.2975  0.1112
66352CHOL    R230169   6.808  15.716  13.554  0.0185  0.3030  0.0609
66352CHOL    R330170   6.919  15.627  13.785 -0.0352  0.1159  0.0150
66352CHOL    R430171   6.684  15.780  13.870  0.1441  0.3397  0.1029
66352CHOL    R530172   6.889  15.808  13.939  0.1848  0.1013  0.0752
66352CHOL    C130173   6.716  15.734  14.271  0.1668  0.1854  0.0840
66352CHOL    C230174   6.641  16.015  14.422  0.0455 -0.3213  0.0947
66353CHOL   ROH30175  29.148   9.437   5.771  0.0235 -0.0629 -0.0150
66353CHOL    R130176  29.050   9.353   5.519  0.0229 -0.0204 -0.0292
66353CHOL    R230177  29.196   9.191   5.349  0.0030 -0.0326 -0.0366
66353CHOL    R330178  28.973   9.036   5.358 -0.0270  0.0096 -0.0635
66353CHOL    R430179  29.099   8.970   5.102  0.1059 -0.1759  0.0507
66353CHOL    R530180  28.893   9.034   5.132  0.0998 -0.1226 -0.1069
66353CHOL    C130181  28.834   8.696   4.966  0.1376 -0.2197  0.0763
66353CHOL    C230182  28.703   8.683   4.618  0.0580  0.0905  0.0167
66354CHOL   ROH30183  11.732  34.041  19.910  0.2394 -0.0520  0.0100
66354CHOL    R130184  11.696  34.156  19.654  0.2693  0.0900  0.0690
66354CHOL    R230185  11.901  34.175  19.470  0.2265 -0.0443  0.0081
66354CHOL    R330186  11.725  34.046  19.309  0.0382  0.2018  0.0130
66354CHOL    R430187  11.920  34.165  19.125  0.2459 -0.1328  0.0113
66354CHOL    R530188  11.703  34.189  19.117  0.2807  0.2056 -0.0137
66354CHOL    C130189  11.765  34.038  18.773  0.0806  0.0482  0.0183
66354CHOL    C230190  11.979  34.165  18.475 -0.0069  0.0450 -0.2188
66355CHOL   ROH30191  26.909  15.063   3.956 -0.0304 -0.3384  0.0409
66355CHOL    R130192  26.925  15.095   3.675 -0.0635 -0.2408  0.0500
66355CHOL    R230193  26.793  14.928   3.498 -0.1807 -0.1072  0.0101
66355CHOL    R330194  26.692  15.161   3.403 -0.0782 -0.0190  0.1154
66355CHOL    R430195  26.644  14.966   3.189 -0.1991  0.0879  0.0427
66355CHOL    R530196  26.746  15.158   3.170 -0.1076  0.0469  0.1072
66355CHOL    C130197  26.462  15.208   2.920 -0.1137  0.2843  0.1607
66355CHOL    C230198  26.209  15.090   2.644  0.0037 -0.0042 -0.2088
66356CHOL   ROH30199  16.613  23.547  16.566  0.0624  0.0120  0.0435
66356CHOL    R130200  16.877  23.498  16.654 -0.0010 -0.0322  0.2119
66356CHOL    R230201  17.076  23.689  16.641  0.1186 -0.1637  0.0433
66356CHOL    R330202  17.102  23.634  16.906 -0.0220  0.1614  0.1267
66356CHOL    R430203  17.376  23.678  16.812  0.0662 -0.3790  0.1232
66356CHOL    R530204  17.302  23.504  16.920 -0.2193 -0.1213  0.3487
66356CHOL    C130205  17.575  23.620  17.160 -0.0972 -0.1993  0.2473
66356CHOL    C230206  17.866  23.582  17.292  0.3933 -0.1396  0.2426
66357CHOL   ROH30207   6.535  20.680  10.972 -0.1394  0.1128 -0.2258
66357CHOL    R130208   6.313  20.547  11.085  0.0559  0.0065  0.0366
66357CHOL    R230209   6.285  20.511  11.358  0.1484  0.4364  0.1065
66357CHOL    R330210   6.044  20.631  11.316 -0.0216  0.0435 -0.0670
66357CHOL    R430211   5.992  20.429  11.523  0.2411  0.2008  0.1560
66357CHOL    R530212   5.885  20.452  11.334  0.2319 -0.1682  0.1120
66357CHOL    C130213   5.596  20.494  11.580  0.1355 -0.3051  0.0222
66357CHOL    C230214   5.472  20.236  11.842 -0.2585 -0.0717  0.1772
66358CHOL   ROH30215  33.752  30.795   8.528 -0.0064 -0.1412  0.0929
66358CHOL    R130216  33.630  30.927   8.746 -0.0290 -0.0496  0.0254
66358CHOL    R230217  33.392  30.842   8.857  0.0138 -0.0664  0.1044
66358CHOL    R330218  33.536  30.842   9.087  0.0397  0.1269  0.0887
66358CHOL    R430219  33.264  30.914   9.170 -0.0225 -0.1211  0.1022
66358CHOL    R530220  33.447  31.025   9.214 -0.1251  0.0681  0.0575
66358CHOL    C130221  33.326  30.955   9.569 -0.0188  0.0282  0.0862
66358CHOL    C230222  33.046  31.099   9.852 -0.0191 -0.0298 -0.0688
66359CHOL   ROH30223  21.095  23.491   9.012 -0.1276  0.0237 -0.1827
66359CHOL    R130224  21.370  23.427   8.991 -0.0982  0.1228 -0.1024
66359CHOL    R230225  21.569  23.597   9.081 -0.1952  0.0603  0.2331
66359CHOL    R330226  21.648  23.377   9.220 -0.2202 -0.0993 -0.0018
66359CHOL    R430227  21.893  23.535   9.185 -0.2123 -0.0589  0.2158
66359CHOL    R530228  21.865  23.325   9.132 -0.2058 -0.0006 -0.0264
66359CHOL    C130229  22.155  23.292   9.377 -0.2458 -0.2783 -0.0147
66359CHOL    C230230  22.325  23.161   9.732 -0.1339 -0.0110 -0.0214
66360CHOL   ROH30231   8.897  10.749  17.591  0.4223  0.2204  0.1794
66360CHOL    R130232   9.026  10.738  17.339  0.2614  0.0460  0.1034
66360CHOL    R230233   9.023  10.512  17.180 -0.0860  0.0285  0.1305
66360CHOL    R330234   8.926  10.684  16.993 -0.0059  0.1152  0.1682
66360CHOL    R430235   9.122  10.519  16.849 -0.1167  0.0241  0.1213
66360CHOL    R530236   9.117  10.737  16.857  0.0109  0.0263  0.1568
66360CHOL    C130237   9.088  10.684  16.480 -0.0595  0.1031  0.1511
66360CHOL    C230238   9.170  10.781  16.036 -0.0229 -0.0229 -0.1662
66361CHOL   ROH30239  15.050  31.809  17.789  0.1160 -0.2186 -0.0781
66361CHOL    R130240  14.769  31.782  17.800  0.1163 -0.0799  0.3719
66361CHOL    R230241  14.628  31.620  17.626 -0.3081  0.5108  0.1505
66361CHOL    R330242  14.532  31.511  17.855  0.0663 -0.1087  0.0258
66361CHOL    R430243  14.336  31.438  17.650 -0.2563  0.4251  0.1335
66361CHOL    R530244  14.294  31.538  17.839  0.0349 -0.0755  0.4763
66361CHOL    C130245  14.075  31.229  17.880  0.1254 -0.2060  0.0063
66361CHOL    C230246  13.698  31.343  17.810 -0.1579 -0.1515  0.0039
66362CHOL   ROH30247  18.807  30.641  14.887  0.0295  0.2482  0.1466
66362CHOL    R130248  18.535  30.668  14.814  0.0639  0.2726  0.0267
66362CHOL    R230249  18.452  30.680  14.551  0.1722  0.1878 -0.0114
66362CHOL    R330250  18.292  30.474  14.626  0.1020  0.2473  0.0031
66362CHOL    R430251  18.172  30.575  14.378  0.4093 -0.0353 -0.2659
66362CHOL    R530252  18.071  30.547  14.569  0.1638  0.1587 -0.3646
66362CHOL    C130253  17.858  30.321  14.347  0.4817 -0.1091 -0.4006
66362CHOL    C230254  17.698  30.247  14.007 -0.2854  0.0352 -0.0794
66363CHOL   ROH30255  20.299  20.086  10.534  0.1447  0.1286  0.1798
66363CHOL    R130256  20.499  20.037  10.728  0.1060 -0.0521  0.1750
66363CHOL    R230257  20.559  19.784  10.819  0.1432 -0.1472 -0.1083
66363CHOL    R330258  20.812  19.852  10.744  0.1460  0.0029  0.0358
66363CHOL    R430259  20.846  19.698  10.992  0.1131 -0.1947 -0.0815
66363CHOL    R530260  20.925  19.897  10.950  0.0593 -0.1328  0.1139
66363CHOL    C130261  21.250  19.712  11.022  0.0983 -0.0818  0.0693
66363CHOL    C230262  21.181  19.555  11.439 -0.3110 -0.0737 -0.2891
66364CHOL   ROH30263  30.746  10.729   4.916  0.0318  0.0002  0.1526
66364CHOL    R130264  30.765  10.682   4.638 -0.0334  0.0053  0.1473
66364CHOL    R230265  31.005  10.634   4.511 -0.0614  0.0236  0.0878
66364CHOL    R330266  30.877  10.412   4.421 -0.0680  0.0160  0.1160
66364CHOL    R430267  31.104  10.445   4.239 -0.1413  0.0634  0.0308
66364CHOL    R530268  30.894  10.425   4.183 -0.1616  0.0422  0.1098
66364CHOL    C130269  31.041  10.126   3.997 -0.1942  0.0792  0.0241
66364CHOL    C230270  30.931  10.127   3.681 -0.0907  0.2556  0.1072
66365CHOL   ROH30271  23.839   1.345  11.111  0.2858 -0.1195  0.0373
66365CHOL    R130272  23.744   1.521  10.911  0.3061 -0.0190  0.1162
66365CHOL    R230273  23.824   1.505  10.648  0.1680 -0.0233  0.0740
66365CHOL    R330274  23.557   1.493  10.600  0.1368  0.1626  0.2005
66365CHOL    R430275  23.672   1.596  10.351  0.1148 -0.1275  0.0689
66365CHOL    R530276  23.511   1.687  10.467  0.2407  0.0976  0.0690
66365CHOL    C130277  23.332   1.638  10.134  0.0549 -0.0137  0.1843
66365CHOL    C230278  23.251   1.451   9.764  0.0988  0.0717 -0.0616
66366CHOL   ROH30279  30.505  14.280   4.019  0.1321 -0.2172  0.0035
66366CHOL    R130280  30.729  14.317   3.850  0.1564 -0.2134  0.0362
66366CHOL    R230281  30.899  14.111   3.781  0.0201 -0.2652 -0.1493
66366CHOL    R330282  30.841  14.190   3.528  0.0708  0.0009 -0.0786
66366CHOL    R430283  31.107  14.070   3.509 -0.0225 -0.1904 -0.1934
66366CHOL    R530284  31.050  14.269   3.441  0.1289 -0.0854 -0.0181
66366CHOL    C130285  31.174  14.121   3.112  0.0004  0.1031 -0.1526
66366CHOL    C230286  31.502  13.984   2.814 -0.3028  0.1644  0.0360
66367CHOL   ROH30287  19.549  33.990  13.326 -0.0593  0.1680  0.0216
66367CHOL    R130288  19.334  34.038  13.148 -0.0416  0.1575 -0.0021
66367CHOL    R230289  19.306  34.275  13.009 -0.0043  0.1332 -0.0512
66367CHOL    R330290  19.295  34.109  12.794 -0.0102  0.0918 -0.0191
66367CHOL    R430291  19.164  34.356  12.705 -0.0292  0.0679 -0.0574
66367CHOL    R530292  19.081  34.155  12.695 -0.0193  0.0618 -0.0134
66367CHOL    C130293  19.071  34.249  12.325 -0.0493 -0.0094 -0.0305
66367CHOL    C230294  19.136  34.611  12.157  0.2293  0.1622  0.0042
66368CHOL   ROH30295   3.849   1.296  16.474 -0.2600 -0.0207 -0.1196
66368CHOL    R130296   3.997   1.393  16.254 -0.0729  0.0361  0.0296
66368CHOL    R230297   4.213   1.258  16.148 -0.0271  0.0269  0.1316
66368CHOL    R330298   4.073   1.281  15.916  0.1477  0.1585  0.0384
66368CHOL    R430299   4.352   1.247  15.832  0.1742 -0.0737  0.2230
66368CHOL    R530300   4.217   1.408  15.773  0.3509  0.0439  0.1406
66368CHOL    C130301   4.302   1.263  15.430  0.4556 -0.0087  0.1887
66368CHOL    C230302   4.424   1.421  15.069  0.0584  0.1190  0.1719
66369CHOL   ROH30303  24.827  20.015   6.929 -0.0060 -0.0739 -0.2307
66369CHOL    R130304  24.637  19.957   6.728 -0.0507  0.0553 -0.2264
66369CHOL    R230305  24.437  19.769   6.762 -0.0356  0.0247 -0.3076
66369CHOL    R330306  24.275  19.975   6.694 -0.0596  0.0657 -0.1303
66369CHOL    R430307  24.113  19.735   6.647 -0.0154  0.0824 -0.3808
66369CHOL    R530308  24.153  19.895   6.504 -0.0227  0.2270 -0.2239
66369CHOL    C130309  23.772  19.909   6.516 -0.0267  0.1548 -0.2570
66369CHOL    C230310  23.501  20.081   6.451  0.1384  0.1467 -0.0019
66370CHOL   ROH30311  19.314   3.099  11.371  0.3294  0.2879  0.0085
66370CHOL    R130312  19.508   3.011  11.557  0.2337  0.0668  0.0050
66370CHOL    R230313  19.584   3.162  11.775  0.3196 -0.0735  0.0724
66370CHOL    R330314  19.518   2.938  11.913  0.1238 -0.0742 -0.0204
66370CHOL    R430315  19.607   3.128  12.118  0.1818 -0.1973  0.0700
66370CHOL    R530316  19.682   2.925  12.088  0.0576 -0.2380  0.0313
66370CHOL    C130317  19.559   2.897  12.448 -0.0827 -0.2700 -0.0187
66370CHOL    C230318  19.493   3.037  12.712  0.1739 -0.0176 -0.0816
66371CHOL   ROH30319  28.401   9.180   2.010 -0.0790 -0.0196 -0.0296
66371CHOL    R130320  28.381   9.306   2.263 -0.3176 -0.0256 -0.0450
66371CHOL    R230321  28.579   9.469   2.365 -0.2911 -0.2476  0.2637
66371CHOL    R330322  28.376   9.647   2.389 -0.1402 -0.0322 -0.0177
66371CHOL    R430323  28.614   9.793   2.481 -0.0877 -0.2410  0.1875
66371CHOL    R530324  28.426   9.768   2.590 -0.2331 -0.0146 -0.0038
66371CHOL    C130325  28.442  10.149   2.571  0.1720 -0.0348 -0.1209
66371CHOL    C230326  28.332  10.431   2.746  0.1762  0.0583  0.0997
66372CHOL   ROH30327  32.777  16.179   1.394  0.0575 -0.2295  0.2426
66372CHOL    R130328  32.577  16.254   1.579  0.0221 -0.0803  0.1459
66372CHOL    R230329  32.566  16.152   1.836 -0.1478 -0.0319  0.1617
66372CHOL    R330330  32.565  16.415   1.906 -0.0195 -0.0189  0.1132
66372CHOL    R430331  32.530  16.270   2.158  0.1564  0.0454  0.1688
66372CHOL    R530332  32.402  16.429   2.080  0.1339  0.0610  0.2474
66372CHOL    C130333  32.507  16.586   2.412  0.4530  0.1026  0.1275
66372CHOL    C230334  32.663  16.753   2.541  0.1720 -0.0011  0.2848
66373CHOL   ROH30335  10.611  14.315  17.335 -0.1083  0.1292 -0.1341
66373CHOL    R130336  10.639  14.200  17.078 -0.1250  0.0419 -0.0973
66373CHOL    R230337  10.548  14.325  16.849 -0.2061 -0.0693 -0.1272
66373CHOL    R330338  10.805  14.288  16.766 -0.2114 -0.0254 -0.1625
66373CHOL    R430339  10.661  14.376  16.526 -0.2470  0.0002 -0.1303
66373CHOL    R530340  10.784  14.197  16.545 -0.2247  0.0115 -0.1759
66373CHOL    C130341  10.967  14.371  16.260 -0.2761  0.0821 -0.1654
66373CHOL    C230342  11.007  14.307  15.944 -0.0847  0.0428 -0.2297
66374CHOL   ROH30343  13.521  27.844  17.627 -0.4166  0.0582  0.1705
66374CHOL    R130344  13.719  27.989  17.767 -0.2238  0.0631 -0.1043
66374CHOL    R230345  13.662  28.213  17.918 -0.0065  0.1125 -0.0940
66374CHOL    R330346  13.789  28.074  18.114  0.2054  0.1450 -0.2075
66374CHOL    R430347  13.696  28.320  18.245 -0.1226 -0.0750 -0.0195
66374CHOL    R530348  13.900  28.243  18.244 -0.0138  0.2073 -0.0971
66374CHOL    C130349  13.836  28.252  18.620  0.0085 -0.1533 -0.0823
66374CHOL    C230350  13.732  28.460  18.759 -0.1266 -0.1912  0.1971
66375CHOL   ROH30351  11.198  29.220  17.802 -0.1353  0.0920 -0.0416
66375CHOL    R130352  11.263  29.043  18.014 -0.2082  0.0271 -0.0731
66375CHOL    R230353  11.415  29.121  18.230  0.0002 -0.1314 -0.1615
66375CHOL    R330354  11.203  29.027  18.372 -0.0239  0.1046 -0.0379
66375CHOL    R430355  11.414  29.068  18.572  0.1834 -0.2487 -0.1787
66375CHOL    R530356  11.301  28.884  18.538 -0.0907 -0.0868 -0.1612
66375CHOL    C130357  11.215  28.948  18.904  0.2674 -0.0959 -0.0728
66375CHOL    C230358  11.329  28.669  19.150  0.4288 -0.1242 -0.1620
66376CHOL   ROH30359  34.832  15.430   5.914  0.2619  0.0610  0.0759
66376CHOL    R130360  34.953  15.291   5.699  0.0374  0.0902 -0.0701
66376CHOL    R230361  35.086  15.421   5.495  0.0685  0.1023 -0.0424
66376CHOL    R330362  35.289  15.254   5.564 -0.0559 -0.1341 -0.2428
66376CHOL    R430363  35.375  15.375   5.311  0.0899  0.2046 -0.0347
66376CHOL    R530364  35.363  15.162   5.356 -0.0565  0.1398 -0.3666
66376CHOL    C130365   0.349  15.191   5.270 -0.0142  0.0421 -0.2184
66376CHOL    C230366   0.586  15.177   4.999  0.0549 -0.2156 -0.1685
66377CHOL   ROH30367  27.441  32.282   6.235 -0.3017 -0.0642 -0.0856
66377CHOL    R130368  27.573  32.251   6.484 -0.2035  0.0347 -0.1247
66377CHOL    R230369  27.510  32.403   6.705 -0.2029  0.0357 -0.1246
66377CHOL    R330370  27.478  32.160   6.823 -0.0465  0.0360 -0.0806
66377CHOL    R430371  27.483  32.352   7.046 -0.3910  0.0999 -0.1292
66377CHOL    R530372  27.608  32.175   7.024 -0.2018  0.2182  0.0071
66377CHOL    C130373  27.437  32.094   7.355 -0.3537  0.1392 -0.0906
66377CHOL    C230374  27.509  31.955   7.731 -0.0468 -0.3337 -0.1443
66378CHOL   ROH30375  18.927  24.085  13.453  0.1547 -0.0240 -0.0651
66378CHOL    R130376  19.143  23.997  13.615  0.1019 -0.0671 -0.0178
66378CHOL    R230377  19.403  24.079  13.573  0.1313 -0.1344  0.0262
66378CHOL    R330378  19.388  24.150  13.835  0.0982 -0.1127  0.0183
66378CHOL    R430379  19.676  24.129  13.780  0.1028 -0.1949  0.0788
66378CHOL    R530380  19.566  24.029  13.940  0.0433 -0.1539  0.0630
66378CHOL    C130381  19.820  24.225  14.146  0.0548 -0.2097  0.1018
66378CHOL    C230382  20.155  24.089  14.209 -0.0789  0.0405  0.1917
66379CHOL   ROH30383   8.121  21.089  16.294  0.0713  0.1378  0.1563
66379CHOL    R130384   7.944  20.905  16.417  0.0728  0.1350  0.1547
66379CHOL    R230385   8.022  20.741  16.625  0.0949  0.0809  0.1036
66379CHOL    R330386   7.808  20.852  16.750  0.1358  0.0827  0.1725
66379CHOL    R430387   7.844  20.592  16.882  0.0867  0.0174  0.0610
66379CHOL    R530388   7.661  20.667  16.791  0.0949  0.1007  0.1114
66379CHOL    C130389   7.539  20.610  17.148  0.1205 -0.0183  0.1009
66379CHOL    C230390   7.374  20.439  17.267 -0.2419 -0.2436  0.1518
66380CHOL   ROH30391   1.120  19.998   7.631  0.2682 -0.1153  0.1260
66380CHOL    R130392   1.312  20.005   7.424  0.2958 -0.3191  0.1435
66380CHOL    R230393   1.416  20.241   7.325  0.0628 -0.3979 -0.3031
66380CHOL    R330394   1.654  20.124   7.384  0.1777 -0.0331 -0.0285
66380CHOL    R430395   1.716  20.315   7.170  0.0025 -0.4229 -0.4316
66380CHOL    R530396   1.763  20.102   7.173  0.2187 -0.3738  0.0265
66380CHOL    C130397   2.114  20.248   7.135  0.0753 -0.0941 -0.2487
66380CHOL    C230398   2.541  20.187   7.246 -0.0848  0.3089 -0.5086
66381CHOL   ROH30399  30.776   8.040   7.557  0.1080 -0.2525  0.1718
66381CHOL    R130400  31.009   7.908   7.465  0.1158 -0.1646  0.0647
66381CHOL    R230401  31.008   7.645   7.381  0.1738 -0.1617  0.0508
66381CHOL    R330402  31.119   7.750   7.156  0.0390 -0.1083  0.0088
66381CHOL    R430403  31.213   7.472   7.163  0.2403 -0.0386  0.0164
66381CHOL    R530404  31.337   7.651   7.146  0.1072  0.0475 -0.0378
66381CHOL    C130405  31.438   7.470   6.826  0.1530  0.0828 -0.0432
66381CHOL    C230406  31.686   7.479   6.644 -0.2482  0.1033  0.0143
66382CHOL   ROH30407  15.684  31.932  14.078 -0.2637  0.1553  0.0445
66382CHOL    R130408  15.933  31.938  14.214 -0.2643  0.2188  0.0423
66382CHOL    R230409  16.167  31.847  14.098 -0.2739  0.1207  0.1028
66382CHOL    R330410  16.257  32.095  14.164 -0.2478  0.1546 -0.0573
66382CHOL    R430411  16.492  31.956  14.058 -0.2483  0.0395  0.0844
66382CHOL    R530412  16.477  32.057  14.250 -0.2689  0.1804  0.0113
66382CHOL    C130413  16.767  32.252  14.096 -0.2091  0.0231 -0.0767
66382CHOL    C230414  17.124  32.097  13.957 -0.0229 -0.2148 -0.1276
66383CHOL   ROH30415  15.826  21.533  16.960 -0.1618 -0.1691  0.2189
66383CHOL    R130416  16.082  21.600  17.059 -0.0896 -0.1646  0.0296
66383CHOL    R230417  16.144  21.594  17.328  0.0856 -0.0844 -0.0098
66383CHOL    R330418  16.346  21.431  17.244  0.0158 -0.1318 -0.0884
66383CHOL    R430419  16.468  21.604  17.447  0.1474 -0.1242 -0.1709
66383CHOL    R530420  16.539  21.573  17.243  0.0408 -0.1648 -0.2031
66383CHOL    C130421  16.847  21.458  17.439  0.1174 -0.1921 -0.3385
66383CHOL    C230422  16.985  21.678  17.678 -0.1636  0.1014 -0.0456
66384CHOL   ROH30423  18.958  25.390  13.270 -0.0275 -0.2175  0.1360
66384CHOL    R130424  19.239  25.401  13.300 -0.0282 -0.1493  0.1201
66384CHOL    R230425  19.372  25.631  13.377 -0.0759 -0.1060  0.0726
66384CHOL    R330426  19.475  25.468  13.569 -0.0296 -0.0487  0.0965
66384CHOL    R430427  19.609  25.726  13.610 -0.1783  0.0256  0.1241
66384CHOL    R530428  19.705  25.531  13.584 -0.0664  0.0771  0.1466
66384CHOL    C130429  19.844  25.628  13.926 -0.1943  0.1557  0.1766
66384CHOL    C230430  19.824  25.750  14.197 -0.1965  0.1099  0.0498
66385CHOL   ROH30431  28.604   7.961   6.779  0.0339  0.2907 -0.1933
66385CHOL    R130432  28.713   7.938   6.519  0.2207  0.0195 -0.0938
66385CHOL    R230433  28.840   7.709   6.430 -0.1773 -0.2657  0.0593
66385CHOL    R330434  28.659   7.727   6.227  0.0352  0.0802 -0.1041
66385CHOL    R430435  28.832   7.501   6.155 -0.3263 -0.2491  0.0504
66385CHOL    R530436  28.786   7.674   6.031  0.1146 -0.1577  0.0091
66385CHOL    C130437  28.658   7.396   5.804 -0.2134  0.0855 -0.1082
66385CHOL    C230438  28.782   7.016   5.839  0.2876  0.0976 -0.2596
66386CHOL   ROH30439  24.818   9.194  11.303  0.0135 -0.4626 -0.2206
66386CHOL    R130440  24.615   9.364  11.202  0.1268 -0.1982 -0.0104
66386CHOL    R230441  24.493   9.320  10.958  0.0284  0.1324 -0.0212
66386CHOL    R330442  24.266   9.331  11.107  0.0735  0.1816  0.0454
66386CHOL    R430443  24.175   9.364  10.830 -0.0128  0.0669  0.0576
66386CHOL    R530444  24.131   9.496  10.998  0.0330  0.1330  0.0196
66386CHOL    C130445  23.776   9.399  10.895  0.0062  0.0752  0.1661
66386CHOL    C230446  23.617   9.503  10.567 -0.4624 -0.0813 -0.0911
66387CHOL   ROH30447  19.423  31.891  13.975  0.1503 -0.0633 -0.0920
66387CHOL    R130448  19.232  31.900  13.767  0.0338  0.1062  0.0200
66387CHOL    R230449  19.266  31.764  13.529 -0.0173  0.4355 -0.1797
66387CHOL    R330450  19.022  31.661  13.591  0.0724  0.2195 -0.1816
66387CHOL    R430451  19.034  31.654  13.298  0.0019  0.4118 -0.1877
66387CHOL    R530452  18.877  31.744  13.419 -0.0324  0.2216 -0.0910
66387CHOL    C130453  18.669  31.493  13.221  0.0979  0.1951 -0.1943
66387CHOL    C230454  18.479  31.443  12.809  0.2921  0.0351  0.2626
66388CHOL   ROH30455   6.566  22.082  11.944  0.0529  0.0109 -0.3320
66388CHOL    R130456   6.320  22.087  12.084  0.1551  0.0565 -0.1529
66388CHOL    R230457   6.104  22.236  11.999  0.1255  0.1031  0.0096
66388CHOL    R330458   5.975  21.997  12.014  0.0839  0.1301  0.0964
66388CHOL    R430459   5.770  22.188  11.925  0.1118  0.1419  0.0441
66388CHOL    R530460   5.756  22.053  12.096  0.0975  0.1993  0.0917
66388CHOL    C130461   5.454  21.935  11.895  0.0648  0.1899  0.1455
66388CHOL    C230462   5.134  22.006  11.684  0.0645 -0.1450  0.0577
66389CHOL   ROH30463   0.421   7.320  11.168  0.0032 -0.1312  0.0815
66389CHOL    R130464   0.537   7.185  10.948 -0.0185 -0.0747  0.0349
66389CHOL    R230465   0.585   7.308  10.706  0.0627  0.0194  0.0980
66389CHOL    R330466   0.838   7.218  10.746  0.0226 -0.0970  0.0922
66389CHOL    R430467   0.793   7.187  10.458  0.0234 -0.0184  0.0835
66389CHOL    R530468   0.860   7.032  10.597 -0.0492 -0.0755  0.0549
66389CHOL    C130469   1.153   7.032  10.352 -0.0371 -0.1495  0.0696
66389CHOL    C230470   1.079   6.943  10.018  0.1824  0.0757  0.1439
66390CHOL   ROH30471  15.943   5.530  16.923  0.1104 -0.1782 -0.0194
66390CHOL    R130472  15.889   5.444  16.659  0.1240  0.0369 -0.0933
66390CHOL    R230473  15.702   5.248  16.602  0.3324 -0.1213 -0.2373
66390CHOL    R330474  15.600   5.438  16.437  0.0560 -0.0634 -0.0028
66390CHOL    R430475  15.449   5.195  16.373  0.2965 -0.1692 -0.1863
66390CHOL    R530476  15.556   5.322  16.232  0.1013  0.0945 -0.1038
66390CHOL    C130477  15.205   5.343  16.085  0.0158 -0.1426  0.0631
66390CHOL    C230478  15.143   5.288  15.624  0.0136  0.0055  0.2950
66391CHOL   ROH30479  23.371  26.169  10.354 -0.1984  0.1075 -0.1715
66391CHOL    R130480  23.223  25.935  10.298 -0.1644  0.0628 -0.0718
66391CHOL    R230481  22.984  25.876  10.424 -0.1801  0.1109 -0.0875
66391CHOL    R330482  22.891  25.857  10.170 -0.1320 -0.0423 -0.0954
66391CHOL    R430483  22.665  25.778  10.338 -0.3254  0.5424 -0.0567
66391CHOL    R530484  22.749  25.664  10.172 -0.4610  0.1928  0.1032
66391CHOL    C130485  22.391  25.703  10.048 -0.3645  0.6505 -0.0460
66391CHOL    C230486  22.135  25.953   9.952 -0.1021 -0.0208 -0.1623
66392CHOL   ROH30487   6.027   4.408  17.152 -0.0933 -0.0473 -0.0745
66392CHOL    R130488   6.030   4.389  16.869  0.0872 -0.0937 -0.0704
66392CHOL    R230489   6.259   4.332  16.726  0.1335 -0.3460  0.1005
66392CHOL    R330490   6.106   4.132  16.623  0.0059 -0.2099  0.0248
66392CHOL    R430491   6.230   4.260  16.389 -0.1278 -0.0282  0.0538
66392CHOL    R530492   6.017   4.225  16.421 -0.1151  0.0003  0.1736
66392CHOL    C130493   6.069   4.032  16.096 -0.3998  0.2844 -0.0444
66392CHOL    C230494   6.170   4.110  15.788  0.1104  0.0310  0.2378
66393CHOL   ROH30495   3.674   7.997   9.215  0.2252  0.0360  0.2390
66393CHOL    R130496   3.415   8.053   9.315  0.1415  0.0468  0.0196
66393CHOL    R230497   3.309   7.920   9.533 -0.0251  0.0937 -0.0337
66393CHOL    R330498   3.273   8.172   9.628 -0.1154  0.1146 -0.1215
66393CHOL    R430499   3.020   8.035   9.685 -0.1033  0.0724 -0.1644
66393CHOL    R530500   3.044   8.223   9.578 -0.1112  0.0462 -0.2136
66393CHOL    C130501   2.819   8.338   9.864 -0.2337  0.0796 -0.3230
66393CHOL    C230502   2.552   8.570   9.996  0.1624 -0.0348  0.2577
66394CHOL   ROH30503  13.399   3.543  13.708 -0.2668  0.1263 -0.0389
66394CHOL    R130504  13.295   3.607  13.964 -0.1112  0.1743  0.0123
66394CHOL    R230505  13.387   3.488  14.195 -0.0420  0.1432 -0.0331
66394CHOL    R330506  13.425   3.745  14.275  0.1020  0.1299 -0.0555
66394CHOL    R430507  13.471   3.585  14.516 -0.2286  0.1382  0.0179
66394CHOL    R530508  13.333   3.753  14.496 -0.0768  0.2482 -0.1315
66394CHOL    C130509  13.555   3.883  14.778 -0.2018  0.1229  0.0264
66394CHOL    C230510  13.778   3.907  15.059  0.0260  0.1089  0.2121
66395CHOL   ROH30511   1.319   9.159  11.114 -0.0978  0.0810 -0.2153
66395CHOL    R130512   1.366   9.030  10.866 -0.2167  0.0099 -0.2010
66395CHOL    R230513   1.165   8.985  10.682 -0.2294  0.3260 -0.2674
66395CHOL    R330514   1.334   9.115  10.514  0.0326  0.0658 -0.2112
66395CHOL    R430515   1.196   8.920  10.344 -0.2145  0.2758 -0.2566
66395CHOL    R530516   1.412   8.945  10.364 -0.1786 -0.0577 -0.1834
66395CHOL    C130517   1.373   9.005   9.989  0.0401  0.0022 -0.1975
66395CHOL    C230518   1.469   8.701   9.788  0.0493 -0.1988 -0.1310
66396CHOL   ROH30519   3.136  25.606  10.069  0.2417 -0.2680 -0.0469
66396CHOL    R130520   2.896  25.473   9.999  0.3184 -0.3531 -0.1502
66396CHOL    R230521   2.884  25.200   9.960  0.3496 -0.4131  0.2381
66396CHOL    R330522   2.685  25.215  10.144  0.1179 -0.1221 -0.0286
66396CHOL    R430523   2.617  24.982   9.980  0.3041 -0.3588  0.2234
66396CHOL    R530524   2.487  25.152  10.024  0.2615 -0.2787 -0.1862
66396CHOL    C130525   2.274  24.869  10.165  0.0601 -0.0545 -0.0356
66396CHOL    C230526   1.820  24.737  10.173 -0.1273 -0.1513 -0.0886
66397CHOL   ROH30527   5.793  13.012  11.521  0.0300  0.0073  0.1503
66397CHOL    R130528   5.637  12.925  11.741  0.0420 -0.0710  0.1280
66397CHOL    R230529   5.360  12.929  11.738  0.0420 -0.0717  0.1435
66397CHOL    R330530   5.388  12.667  11.803  0.0469 -0.0948  0.0501
66397CHOL    R430531   5.113  12.734  11.880  0.0111 -0.1550 -0.0228
66397CHOL    R530532   5.265  12.643  12.007 -0.0247 -0.1887 -0.0034
66397CHOL    C130533   4.995  12.374  12.025 -0.0022 -0.2251 -0.2074
66397CHOL    C230534   4.670  12.077  11.959 -0.4467  0.0111  0.2367
66398CHOL   ROH30535   4.698   0.824  16.891  0.0346 -0.1736  0.3353
66398CHOL    R130536   4.923   0.820  16.720 -0.1256 -0.0946  0.1217
66398CHOL    R230537   5.180   0.864  16.810 -0.0622  0.0676 -0.1335
66398CHOL    R330538   5.229   0.626  16.689 -0.0474  0.0637 -0.1203
66398CHOL    R430539   5.469   0.787  16.636  0.0648 -0.0211  0.1137
66398CHOL    R530540   5.346   0.684  16.488  0.1554  0.0456 -0.0101
66398CHOL    C130541   5.683   0.518  16.421  0.1527 -0.0765  0.2699
66398CHOL    C230542   5.697   0.297  16.138 -0.1549 -0.0915 -0.3502
66399CHOL   ROH30543  33.204  29.520   7.207 -0.1575  0.3247  0.2385
66399CHOL    R130544  33.123  29.506   7.478 -0.2907  0.2878  0.1972
66399CHOL    R230545  32.858  29.518   7.555 -0.3498 -0.0125  0.0481
66399CHOL    R330546  32.918  29.285   7.682 -0.1397  0.0855  0.1317
66399CHOL    R430547  32.717  29.414   7.853 -0.5714 -0.2274 -0.1307
66399CHOL    R530548  32.913  29.341   7.915 -0.5318  0.0883  0.1263
66399CHOL    C130549  32.691  29.134   8.145 -0.5031 -0.2608 -0.1561
66399CHOL    C230550  32.469  28.945   8.388  0.3774  0.1579 -0.2320
66400CHOL   ROH30551   2.028   6.980  12.376 -0.0511 -0.3301 -0.0679
66400CHOL    R130552   2.158   6.929  12.130  0.0660 -0.3504 -0.0020
66400CHOL    R230553   2.318   7.116  12.005 -0.1142 -0.2539 -0.0892
66400CHOL    R330554   2.502   6.916  12.011  0.1114 -0.0448  0.0912
66400CHOL    R430555   2.593   7.094  11.796 -0.0521 -0.1012 -0.0246
66400CHOL    R530556   2.557   6.879  11.781  0.1919 -0.1538  0.1277
66400CHOL    C130557   2.925   6.893  11.680  0.1957  0.1840  0.1824
66400CHOL    C230558   3.103   6.739  11.404  0.0548  0.1595 -0.1984
66401CHOL   ROH30559  16.167  26.957  16.554 -0.0482 -0.1447 -0.2888
66401CHOL    R130560  16.412  27.099  16.562 -0.1205 -0.0267 -0.1350
66401CHOL    R230561  16.484  27.260  16.775 -0.2217 -0.1869  0.0221
66401CHOL    R330562  16.707  27.105  16.775 -0.1429 -0.0740 -0.1028
66401CHOL    R430563  16.752  27.300  16.989 -0.2230 -0.1959  0.0250
66401CHOL    R530564  16.885  27.258  16.822 -0.2163 -0.0156 -0.0156
66401CHOL    C130565  17.118  27.178  17.114 -0.1499 -0.0956 -0.0901
66401CHOL    C230566  17.540  27.358  17.190  0.1447 -0.0837  0.0060
66402CHOL   ROH30567  20.460   2.184  13.849 -0.0262  0.0806  0.2610
66402CHOL    R130568  20.257   2.337  13.725 -0.1133 -0.0525  0.2382
66402CHOL    R230569  20.312   2.533  13.537 -0.2122  0.0572  0.3245
66402CHOL    R330570  20.137   2.391  13.385 -0.0359 -0.0431  0.2117
66402CHOL    R430571  20.157   2.652  13.252 -0.2161  0.0254  0.3131
66402CHOL    R530572  19.974   2.553  13.317 -0.1539 -0.1594  0.2138
66402CHOL    C130573  19.902   2.588  12.944 -0.0530 -0.0873  0.2005
66402CHOL    C230574  19.619   2.537  12.793 -0.0262  0.0717  0.1954
66403CHOL   ROH30575   2.412  22.336   6.771 -0.1334  0.0194 -0.0849
66403CHOL    R130576   2.543  22.412   7.010 -0.0561 -0.0496 -0.1046
66403CHOL    R230577   2.481  22.644   7.146  0.1260  0.0118 -0.1240
66403CHOL    R330578   2.446  22.475   7.355  0.0196  0.0592 -0.1033
66403CHOL    R430579   2.410  22.743   7.469  0.1410  0.0923 -0.1450
66403CHOL    R530580   2.546  22.588   7.541  0.0564  0.0343 -0.1089
66403CHOL    C130581   2.336  22.641   7.855  0.0499  0.1828 -0.1376
66403CHOL    C230582   2.554  22.716   8.110  0.1955  0.0265 -0.3306
66404CHOL   ROH30583   9.955  23.485  21.254  0.2562 -0.0723  0.2699
66404CHOL    R130584   9.983  23.419  20.981  0.1496  0.0734  0.2230
66404CHOL    R230585  10.207  23.485  20.834  0.2045 -0.0749  0.2388
66404CHOL    R330586  10.211  23.219  20.779 -0.0919 -0.0450  0.0657
66404CHOL    R430587  10.279  23.349  20.524  0.3289  0.0385  0.2167
66404CHOL    R530588  10.120  23.203  20.558  0.1027  0.2224 -0.0368
66404CHOL    C130589  10.323  23.019  20.293  0.1235  0.1324  0.0417
66404CHOL    C230590  10.219  22.699  19.992 -0.0077 -0.0390  0.1159
66405CHOL   ROH30591   9.978  17.365  18.222  0.0655 -0.0302  0.3260
66405CHOL    R130592  10.200  17.486  18.095 -0.0250 -0.1663  0.0330
66405CHOL    R230593  10.195  17.569  17.832 -0.3818  0.0045  0.0913
66405CHOL    R330594  10.275  17.806  17.939  0.0239 -0.1382  0.1133
66405CHOL    R430595  10.298  17.844  17.649 -0.2716 -0.0298  0.1022
66405CHOL    R530596  10.454  17.877  17.797 -0.0556 -0.2836 -0.0628
66405CHOL    C130597  10.434  18.226  17.643  0.1735 -0.1840  0.1290
66405CHOL    C230598  10.424  18.351  17.252 -0.3786  0.3199  0.1875
66406CHOL   ROH30599  35.106  28.801   8.893  0.0222 -0.0341  0.1162
66406CHOL    R130600  35.119  28.730   9.167 -0.0069 -0.0172  0.1220
66406CHOL    R230601  35.043  28.903   9.369 -0.0127  0.0014  0.1038
66406CHOL    R330602  34.883  28.696   9.442 -0.0333  0.0176  0.1034
66406CHOL    R430603  34.912  28.857   9.685 -0.0076  0.0076  0.1069
66406CHOL    R530604  34.952  28.644   9.666 -0.0320  0.0036  0.0998
66406CHOL    C130605  34.685  28.636   9.938 -0.0240  0.0264  0.1083
66406CHOL    C230606  34.244  28.791   9.990  0.1720 -0.1607  0.0572
66407CHOL   ROH30607  28.364   1.332   9.604 -0.0568 -0.0855  0.1166
66407CHOL    R130608  28.487   1.442   9.373 -0.0338 -0.0058  0.1667
66407CHOL    R230609  28.494   1.309   9.131  0.0866  0.0309  0.1506
66407CHOL    R330610  28.381   1.538   9.039  0.0241  0.0005  0.1501
66407CHOL    R430611  28.473   1.398   8.798  0.2663  0.1275  0.1648
66407CHOL    R530612  28.521   1.603   8.855  0.1162  0.1365  0.2659
66407CHOL    C130613  28.356   1.666   8.517  0.3126  0.1553  0.1726
66407CHOL    C230614  28.439   1.970   8.371  0.3415 -0.0938  0.0760
66408CHOL   ROH30615  21.338   2.221  13.314 -0.1217 -0.0784 -0.1431
66408CHOL    R130616  21.137   2.323  13.143 -0.1034  0.0481 -0.0901
66408CHOL    R230617  21.072   2.591  13.133 -0.0116  0.0747  0.0043
66408CHOL    R330618  21.120   2.560  12.868 -0.0477  0.1452 -0.0103
66408CHOL    R430619  20.898   2.751  12.882  0.1390  0.3568  0.0773
66408CHOL    R530620  20.902   2.565  12.768 -0.0454  0.4023 -0.0041
66408CHOL    C130621  20.840   2.815  12.486  0.1924  0.5873  0.1064
66408CHOL    C230622  20.519   2.705  12.332  0.1539  0.1471  0.5128
66409CHOL   ROH30623  23.931  14.153   9.989  0.0865 -0.2881  0.0444
66409CHOL    R130624  23.733  14.022   9.835 -0.0149 -0.1760  0.0783
66409CHOL    R230625  23.556  13.840   9.944 -0.1430 -0.0260  0.1213
66409CHOL    R330626  23.370  14.003   9.832 -0.0295  0.0865  0.0954
66409CHOL    R430627  23.229  13.750   9.877 -0.2079  0.1923  0.1410
66409CHOL    R530628  23.243  13.859   9.688 -0.1331  0.1506  0.1218
66409CHOL    C130629  22.864  13.850   9.732 -0.1395  0.4250  0.1281
66409CHOL    C230630  22.612  13.833   9.367  0.2800 -0.1893  0.0359
66410CHOL   ROH30631   3.946  22.589  14.809 -0.0646 -0.0758 -0.1397
66410CHOL    R130632   4.177  22.752  14.816 -0.0976 -0.0248 -0.2457
66410CHOL    R230633   4.426  22.654  14.887 -0.1019  0.0982 -0.0625
66410CHOL    R330634   4.500  22.760  14.648 -0.0469 -0.1474 -0.1558
66410CHOL    R430635   4.720  22.826  14.830 -0.2160  0.2825 -0.1004
66410CHOL    R530636   4.608  22.966  14.705 -0.2625  0.0244 -0.3534
66410CHOL    C130637   4.961  23.026  14.573 -0.2307  0.1591 -0.2102
66410CHOL    C230638   5.239  23.126  14.781 -0.2791 -0.1745  0.1965
66411CHOL   ROH30639  16.979   3.309  16.108  0.0493 -0.2985 -0.1019
66411CHOL    R130640  16.957   3.525  15.927  0.0309 -0.2138  0.0014
66411CHOL    R230641  17.162   3.598  15.756  0.0168 -0.1291  0.0202
66411CHOL    R330642  16.969   3.571  15.566  0.0032 -0.0436  0.0219
66411CHOL    R430643  17.132   3.798  15.476  0.1080 -0.1217  0.0156
66411CHOL    R530644  16.916   3.796  15.504  0.1074 -0.0202  0.0169
66411CHOL    C130645  16.934   3.889  15.134  0.1478 -0.0371  0.0146
66411CHOL    C230646  16.770   3.913  14.840  0.1777 -0.0954  0.0900
66412CHOL   ROH30647  23.095  16.125  12.210 -0.0343  0.1725 -0.1501
66412CHOL    R130648  23.021  16.078  11.941 -0.0362  0.2319 -0.1601
66412CHOL    R230649  22.827  15.895  11.871  0.1858  0.0174 -0.2192
66412CHOL    R330650  22.718  16.108  11.741 -0.1249 -0.0475 -0.0698
66412CHOL    R430651  22.591  15.874  11.619  0.1253 -0.1428 -0.1494
66412CHOL    R530652  22.695  16.034  11.515 -0.1099  0.0439 -0.1010
66412CHOL    C130653  22.351  16.061  11.352 -0.2017 -0.2971  0.0312
66412CHOL    C230654  22.078  16.209  11.387 -0.0313 -0.0159 -0.3155
66413CHOL   ROH30655  33.078  24.172   7.053 -0.1400 -0.1328 -0.2687
66413CHOL    R130656  33.127  24.378   6.865 -0.0847 -0.0626 -0.1776
66413CHOL    R230657  33.264  24.608   6.930 -0.1025 -0.0880 -0.0516
66413CHOL    R330658  33.419  24.537   6.718 -0.0411 -0.0080 -0.0340
66413CHOL    R430659  33.487  24.818   6.770  0.0313 -0.0610  0.1690
66413CHOL    R530660  33.423  24.733   6.580  0.0786  0.0778  0.0889
66413CHOL    C130661  33.763  24.874   6.478  0.1673  0.0299  0.3140
66413CHOL    C230662  33.759  25.138   6.358 -0.1909 -0.0128  0.0814
66414CHOL   ROH30663  12.206  24.302  21.753 -0.0183  0.3216 -0.1260
66414CHOL    R130664  12.115  24.203  21.504 -0.0391  0.1883 -0.0662
66414CHOL    R230665  12.054  24.369  21.292 -0.1668  0.0826 -0.1134
66414CHOL    R330666  12.230  24.210  21.159 -0.1304  0.1103 -0.0985
66414CHOL    R430667  12.129  24.396  20.955 -0.0127  0.2050 -0.0694
66414CHOL    R530668  12.130  24.178  20.943 -0.0388  0.2096 -0.1558
66414CHOL    C130669  12.338  24.262  20.635  0.1112  0.3023 -0.0305
66414CHOL    C230670  12.597  24.303  20.458 -0.0519 -0.0813  0.0474
66415CHOL   ROH30671   2.697  32.430  12.829 -0.1157 -0.1740  0.0909
66415CHOL    R130672   2.755  32.489  13.100  0.0449  0.0118  0.0175
66415CHOL    R230673   2.558  32.542  13.286  0.1651  0.3455  0.0531
66415CHOL    R330674   2.680  32.342  13.424  0.0469  0.3582  0.1776
66415CHOL    R430675   2.522  32.485  13.625 -0.1743  0.3426  0.0181
66415CHOL    R530676   2.735  32.440  13.635 -0.1776  0.3654  0.2350
66415CHOL    C130677   2.615  32.265  13.952 -0.4828  0.3527  0.1150
66415CHOL    C230678   2.735  32.170  14.263  0.1658  0.0494 -0.0807
66416CHOL   ROH30679  34.346  14.934   2.161 -0.1033 -0.1484  0.0342
66416CHOL    R130680  34.356  14.778   2.396 -0.0443 -0.1077  0.0589
66416CHOL    R230681  34.487  14.862   2.625  0.0406 -0.0816  0.0019
66416CHOL    R330682  34.247  14.813   2.742  0.0730 -0.0331  0.0886
66416CHOL    R430683  34.420  14.900   2.961  0.1587 -0.0341  0.0199
66416CHOL    R530684  34.302  14.717   2.954  0.1297 -0.0170  0.0804
66416CHOL    C130685  34.155  14.877   3.268  0.2580  0.0390  0.1119
66416CHOL    C230686  33.999  14.889   3.644 -0.1878 -0.4698 -0.1828
66417CHOL   ROH30687  17.704   1.642  14.510  0.3642  0.1146 -0.2434
66417CHOL    R130688  17.463   1.693  14.370  0.2596  0.1245 -0.0600
66417CHOL    R230689  17.451   1.855  14.147  0.0893  0.1579 -0.0273
66417CHOL    R330690  17.335   1.637  14.034  0.0168  0.1697  0.0243
66417CHOL    R430691  17.306   1.849  13.834  0.0107  0.1552  0.0090
66417CHOL    R530692  17.146   1.725  13.916  0.0051  0.1962  0.0616
66417CHOL    C130693  17.112   1.641  13.545 -0.1032  0.1648  0.0785
66417CHOL    C230694  16.754   1.893  13.430 -0.0161  0.0715 -0.3885
66418CHOL   ROH30695   4.481   9.309  14.871 -0.2427  0.0638 -0.1514
66418CHOL    R130696   4.748   9.229  14.825 -0.1991  0.1182  0.0025
66418CHOL    R230697   4.849   8.988  14.913 -0.1904  0.1533  0.0907
66418CHOL    R330698   4.917   8.957  14.652 -0.0445  0.1320  0.1306
66418CHOL    R430699   5.108   8.789  14.798 -0.1966  0.0561  0.2425
66418CHOL    R530700   5.156   8.945  14.653 -0.0496  0.0398  0.2740
66418CHOL    C130701   5.321   8.645  14.485 -0.0633 -0.0208  0.3686
66418CHOL    C230702   5.647   8.601  14.373 -0.0127  0.0396 -0.1985
66419CHOL   ROH30703  21.034   8.435  15.221 -0.1630 -0.0077 -0.1625
66419CHOL    R130704  20.944   8.541  14.975 -0.2571 -0.0479 -0.1453
66419CHOL    R230705  20.676   8.565  14.913 -0.2870  0.2859  0.1041
66419CHOL    R330706  20.744   8.824  14.867  0.0334  0.1632 -0.1368
66419CHOL    R430707  20.497   8.783  14.713 -0.2110  0.4149  0.1763
66419CHOL    R530708  20.686   8.861  14.637 -0.1835  0.0976 -0.0955
66419CHOL    C130709  20.457   9.154  14.554  0.1341  0.3750 -0.0081
66419CHOL    C230710  20.124   9.244  14.310 -0.0692 -0.3937 -0.0309
66420CHOL   ROH30711  16.685   9.690  17.677 -0.0571 -0.1797 -0.0135
66420CHOL    R130712  16.605   9.824  17.441  0.1083  0.0443  0.0555
66420CHOL    R230713  16.773   9.992  17.301  0.3732 -0.2198  0.0522
66420CHOL    R330714  16.708   9.830  17.092  0.0027 -0.0380  0.0224
66420CHOL    R430715  16.893  10.027  16.978  0.3197 -0.3336  0.0196
66420CHOL    R530716  16.694   9.978  16.904  0.2001  0.0495  0.0757
66420CHOL    C130717  16.902   9.895  16.595 -0.0593 -0.2293 -0.0273
66420CHOL    C230718  17.004   9.666  16.375  0.0160  0.1745 -0.2073
66421CHOL   ROH30719  23.470  11.770  11.833  0.1140  0.1776 -0.1530
66421CHOL    R130720  23.194  11.710  11.817  0.1348  0.0725 -0.1225
66421CHOL    R230721  23.009  11.888  11.715  0.0502  0.0176 -0.0651
66421CHOL    R330722  22.945  11.678  11.553  0.1085  0.0198 -0.0911
66421CHOL    R430723  22.705  11.846  11.556  0.0740 -0.0292 -0.0981
66421CHOL    R530724  22.715  11.634  11.602  0.1127 -0.0315 -0.1174
66421CHOL    C130725  22.468  11.625  11.312  0.1422 -0.0545 -0.1417
66421CHOL    C230726  22.396  11.369  10.936  0.2205  0.0154 -0.1274
66422CHOL   ROH30727  21.627  19.292  14.148  0.1160 -0.2396 -0.1981
66422CHOL    R130728  21.394  19.208  14.012 -0.0185 -0.0645 -0.0783
66422CHOL    R230729  21.152  19.340  14.035  0.1224  0.1959 -0.0568
66422CHOL    R330730  21.167  19.348  13.764  0.0409  0.0528 -0.0656
66422CHOL    R430731  20.881  19.371  13.823  0.0566  0.0443  0.0043
66422CHOL    R530732  20.974  19.226  13.690  0.0370 -0.0130  0.0548
66422CHOL    C130733  20.737  19.397  13.445 -0.0580 -0.1782  0.0314
66422CHOL    C230734  20.683  19.758  13.238  0.6231 -0.2312  0.1732
66423CHOL   ROH30735  30.785  28.412   9.240 -0.0689  0.1189 -0.1812
66423CHOL    R130736  30.780  28.642   9.074 -0.0256  0.1896 -0.0850
66423CHOL    R230737  30.992  28.818   9.057  0.0683  0.0720 -0.1297
66423CHOL    R330738  30.970  28.768   8.791 -0.1071  0.1931 -0.1384
66423CHOL    R430739  31.171  28.980   8.810  0.1574 -0.0515 -0.1471
66423CHOL    R530740  30.990  28.983   8.688  0.1057  0.2079 -0.0690
66423CHOL    C130741  31.254  29.028   8.416  0.0443 -0.0101 -0.1657
66423CHOL    C230742  31.490  29.126   8.304  0.0348  0.0499  0.0826
66424CHOL   ROH30743   4.106  14.903  12.276  0.0323 -0.0117  0.0924
66424CHOL    R130744   4.036  14.647  12.375  0.1739 -0.0017  0.2205
66424CHOL    R230745   4.053  14.418  12.222 -0.1236 -0.0053  0.1900
66424CHOL    R330746   4.204  14.329  12.429  0.2327 -0.0220 -0.0709
66424CHOL    R430747   4.160  14.092  12.262 -0.2124 -0.0489  0.0761
66424CHOL    R530748   4.118  14.110  12.475  0.2057  0.0345  0.1561
66424CHOL    C130749   4.364  13.818  12.480  0.0705 -0.0901 -0.2352
66424CHOL    C230750   4.427  13.448  12.291 -0.1270 -0.0901  0.2407
66425CHOL   ROH30751   7.486  27.897  17.303  0.0164  0.1112  0.0201
66425CHOL    R130752   7.381  28.104  17.465 -0.2363 -0.0067  0.0090
66425CHOL    R230753   7.143  28.079  17.603 -0.1160 -0.3574  0.1592
66425CHOL    R330754   7.296  28.149  17.816 -0.1036 -0.0268  0.0431
66425CHOL    R430755   7.025  28.125  17.924 -0.0292 -0.2609  0.1770
66425CHOL    R530756   7.157  28.297  17.943 -0.2187 -0.0940 -0.0048
66425CHOL    C130757   7.100  28.219  18.311  0.0331  0.1064  0.0789
66425CHOL    C230758   7.388  28.325  18.585  0.0963 -0.1220 -0.2146
66426CHOL   ROH30759   2.303  22.624   9.888 -0.2172  0.1358 -0.4249
66426CHOL    R130760   2.511  22.629   9.697  0.1179 -0.0309 -0.0709
66426CHOL    R230761   2.557  22.845   9.532  0.1438 -0.3281 -0.4617
66426CHOL    R330762   2.808  22.830   9.634 -0.0120  0.1917  0.0240
66426CHOL    R430763   2.826  23.033   9.424  0.1550 -0.3893 -0.5404
66426CHOL    R530764   2.951  22.856   9.444  0.2903 -0.2260  0.1861
66426CHOL    C130765   3.218  23.128   9.457  0.0154  0.0630 -0.1299
66426CHOL    C230766   3.496  23.404   9.474 -0.1636  0.0493 -0.2861
66427CHOL   ROH30767   0.034  23.669   9.210  0.0130 -0.0641  0.1432
66427CHOL    R130768   0.097  23.929   9.117  0.0346 -0.1053  0.0422
66427CHOL    R230769   0.242  24.109   9.268  0.0103 -0.0416 -0.0092
66427CHOL    R330770   0.401  24.118   9.048  0.0508 -0.1413  0.0161
66427CHOL    R430771   0.429  24.382   9.170 -0.0263 -0.0626 -0.1379
66427CHOL    R530772   0.374  24.340   8.964  0.0220 -0.1974 -0.1230
66427CHOL    C130773   0.688  24.549   8.906 -0.0096 -0.1682 -0.1890
66427CHOL    C230774   0.649  24.832   8.945  0.1988  0.1114 -0.4271
66428CHOL   ROH30775  28.572  11.599   1.347  0.0070 -0.1941 -0.1007
66428CHOL    R130776  28.449  11.631   1.599 -0.0786 -0.1711 -0.1454
66428CHOL    R230777  28.357  11.418   1.748  0.0063 -0.1689 -0.0907
66428CHOL    R330778  28.515  11.526   1.941 -0.1073 -0.0051 -0.0877
66428CHOL    R430779  28.352  11.326   2.081  0.1909 -0.2740 -0.1159
66428CHOL    R530780  28.374  11.536   2.134 -0.0908 -0.2565 -0.0592
66428CHOL    C130781  28.497  11.374   2.457  0.1908 -0.1816 -0.1278
66428CHOL    C230782  28.599  11.370   2.808  0.1383  0.0127 -0.0567
66429CHOL   ROH30783  17.593  11.117  14.144  0.2155  0.3393  0.1043
66429CHOL    R130784  17.541  11.199  14.410  0.1802  0.3012  0.1093
66429CHOL    R230785  17.692  11.111  14.624  0.0411  0.1317  0.1388
66429CHOL    R330786  17.722  11.377  14.671  0.2172  0.0980  0.2238
66429CHOL    R430787  17.853  11.247  14.898  0.0534 -0.0597  0.2274
66429CHOL    R530788  17.697  11.399  14.908  0.1593  0.0486  0.2220
66429CHOL    C130789  17.974  11.576  15.102  0.2251 -0.2029  0.3587
66429CHOL    C230790  18.087  11.869  15.415  0.1879  0.0819  0.2763
66430CHOL   ROH30791  18.494  17.415  17.593 -0.1831 -0.2659 -0.0042
66430CHOL    R130792  18.320  17.439  17.372 -0.1366 -0.1087 -0.0248
66430CHOL    R230793  18.080  17.303  17.355 -0.0942 -0.1643 -0.2103
66430CHOL    R330794  17.979  17.552  17.314 -0.1556 -0.1540 -0.0000
66430CHOL    R430795  17.770  17.369  17.219 -0.0612 -0.1228 -0.2657
66430CHOL    R530796  17.859  17.534  17.107 -0.0687  0.0174 -0.0650
66430CHOL    C130797  17.493  17.641  17.101 -0.0989 -0.0891 -0.1006
66430CHOL    C230798  17.212  17.635  16.829 -0.1891 -0.2278  0.0946
66431CHOL   ROH30799  22.171  20.100  13.806 -0.0411  0.3030  0.0071
66431CHOL    R130800  21.949  19.980  13.678  0.0727  0.1724 -0.0678
66431CHOL    R230801  21.704  20.106  13.654 -0.0815 -0.0881  0.1135
66431CHOL    R330802  21.738  20.052  13.390 -0.0731  0.2202  0.0497
66431CHOL    R430803  21.455  19.998  13.441 -0.0084 -0.1385  0.0527
66431CHOL    R530804  21.599  19.862  13.349  0.1228  0.1085 -0.1170
66431CHOL    C130805  21.341  19.884  13.068  0.0420  0.1221 -0.0427
66431CHOL    C230806  21.075  19.670  12.923 -0.4907  0.3647  0.3577
66432CHOL   ROH30807  12.644  23.481  18.539  0.0539 -0.1856 -0.1302
66432CHOL    R130808  12.617  23.462  18.820  0.0847  0.0315 -0.1118
66432CHOL    R230809  12.665  23.228  18.959 -0.1040  0.0818  0.0405
66432CHOL    R330810  12.834  23.385  19.102  0.0643  0.0271 -0.0974
66432CHOL    R430811  12.848  23.123  19.232  0.0597  0.0317 -0.0881
66432CHOL    R530812  12.805  23.313  19.328  0.2056  0.0561 -0.0692
66432CHOL    C130813  13.115  23.209  19.525  0.3132 -0.0489 -0.2926
66432CHOL    C230814  13.371  23.044  19.645 -0.4116  0.2523 -0.0992
66433CHOL   ROH30815  25.318  11.712   6.845  0.0922 -0.3645 -0.0224
66433CHOL    R130816  25.042  11.654   6.821  0.0549 -0.2290  0.0723
66433CHOL    R230817  24.883  11.762   6.622  0.0227 -0.0908  0.1722
66433CHOL    R330818  24.824  11.501   6.573 -0.1183 -0.0478  0.1121
66433CHOL    R430819  24.647  11.653   6.395  0.2287  0.0803 -0.1277
66433CHOL    R530820  24.587  11.500   6.538 -0.0771  0.1354 -0.1942
66433CHOL    C130821  24.454  11.345   6.216  0.2166  0.2204 -0.3585
66433CHOL    C230822  24.134  11.105   6.177 -0.5052  0.0852 -0.0090
66434CHOL   ROH30823  33.188  16.312   1.564  0.2271 -0.2952  0.0520
66434CHOL    R130824  33.173  16.317   1.846  0.0317  0.0383  0.0374
66434CHOL    R230825  32.997  16.481   1.982 -0.3212 -0.0648 -0.2874
66434CHOL    R330826  32.920  16.247   2.099 -0.0274 -0.0442 -0.0435
66434CHOL    R430827  32.944  16.437   2.321 -0.2487  0.2188 -0.2379
66434CHOL    R530828  33.040  16.242   2.306 -0.0076  0.3183 -0.0412
66434CHOL    C130829  32.840  16.193   2.627  0.0684  0.4036  0.0199
66434CHOL    C230830  32.598  16.205   2.953  0.2261 -0.0268 -0.0074
66435CHOL   ROH30831  19.049  20.049  12.983 -0.2125 -0.1490  0.1342
66435CHOL    R130832  19.259  19.901  13.103 -0.0462 -0.0603 -0.0448
66435CHOL    R230833  19.525  19.970  13.075 -0.1234  0.2566  0.0154
66435CHOL    R330834  19.521  19.964  13.347 -0.0989 -0.0532  0.0108
66435CHOL    R430835  19.806  19.970  13.276 -0.1060  0.4749 -0.0068
66435CHOL    R530836  19.707  19.825  13.406  0.1278  0.1705 -0.1600
66435CHOL    C130837  19.966  19.964  13.648 -0.0732  0.3112 -0.0239
66435CHOL    C230838  20.200  20.133  13.872 -0.0194  0.3243 -0.1855
66436CHOL   ROH30839  18.923  16.172  12.520  0.0998  0.2881  0.3961
66436CHOL    R130840  19.129  16.140  12.712  0.2335  0.1749  0.2353
66436CHOL    R230841  19.128  15.937  12.899  0.1914  0.2616  0.3303
66436CHOL    R330842  19.374  15.885  12.796  0.0550 -0.0287  0.1414
66436CHOL    R430843  19.393  15.808  13.079  0.3258  0.4254  0.2506
66436CHOL    R530844  19.525  15.945  12.972  0.2796  0.1867 -0.1213
66436CHOL    C130845  19.779  15.684  13.087  0.2761  0.2481  0.0268
66436CHOL    C230846  19.757  15.597  13.349 -0.1562  0.0609  0.0022
66437CHOL   ROH30847  31.825   8.903   2.617  0.3122  0.0965 -0.0045
66437CHOL    R130848  31.889   9.028   2.863  0.1444  0.1809 -0.0025
66437CHOL    R230849  31.912   9.302   2.888  0.0502  0.1945 -0.0627
66437CHOL    R330850  31.731   9.266   3.088 -0.0462  0.1943 -0.1495
66437CHOL    R430851  31.796   9.552   3.097  0.0784  0.1629 -0.0087
66437CHOL    R530852  31.806   9.411   3.263 -0.0507  0.0905 -0.0607
66437CHOL    C130853  31.558   9.664   3.405  0.0047  0.1442 -0.0588
66437CHOL    C230854  31.367   9.954   3.561  0.1353  0.2041 -0.2076
66438CHOL   ROH30855   6.627  34.044  19.130 -0.2538  0.0326  0.0541
66438CHOL    R130856   6.651  33.976  18.856 -0.1795 -0.1263  0.0994
66438CHOL    R230857   6.844  34.087  18.691 -0.4495  0.1580 -0.0292
66438CHOL    R330858   6.904  33.826  18.641  0.0877  0.2407  0.1519
66438CHOL    R430859   7.026  33.975  18.420 -0.5363  0.3204 -0.1547
66438CHOL    R530860   6.888  33.807  18.403 -0.1763 -0.0221  0.1860
66438CHOL    C130861   7.189  33.666  18.214 -0.0825  0.4923 -0.0585
66438CHOL    C230862   7.224  33.226  18.181 -0.0787  0.2403  0.1288
66439CHOL   ROH30863   5.727   1.767  17.678 -0.0384  0.1181 -0.0665
66439CHOL    R130864   5.935   1.788  17.488 -0.0977  0.1029 -0.1333
66439CHOL    R230865   5.940   1.640  17.255 -0.1440  0.0465 -0.0986
66439CHOL    R330866   5.965   1.884  17.138 -0.2156  0.0218 -0.1653
66439CHOL    R430867   6.030   1.692  16.926 -0.0978 -0.0154 -0.0961
66439CHOL    R530868   6.153   1.860  16.991 -0.1766  0.0517 -0.1204
66439CHOL    C130869   6.106   1.951  16.624 -0.1382 -0.0746 -0.1574
66439CHOL    C230870   5.842   2.001  16.395  0.0525 -0.0958 -0.2926
66440CHOL   ROH30871   4.398  15.179   7.907 -0.0069  0.1546  0.1788
66440CHOL    R130872   4.163  15.232   8.056 -0.1238  0.1297  0.0036
66440CHOL    R230873   3.911  15.222   7.944 -0.0590 -0.1738 -0.1193
66440CHOL    R330874   3.861  15.049   8.147 -0.0346 -0.0045  0.0320
66440CHOL    R430875   3.617  15.209   8.125 -0.0883 -0.1090 -0.1617
66440CHOL    R530876   3.735  15.177   8.305 -0.1092  0.0983 -0.1088
66440CHOL    C130877   3.400  15.039   8.422 -0.0826  0.0875 -0.0443
66440CHOL    C230878   3.021  15.008   8.605  0.0955 -0.1242 -0.0194
66441CHOL   ROH30879  22.194  24.244  10.467 -0.2452 -0.0560 -0.0185
66441CHOL    R130880  22.280  24.344  10.217 -0.0372 -0.1497  0.0143
66441CHOL    R230881  22.203  24.591  10.121 -0.0122 -0.2141 -0.1712
66441CHOL    R330882  22.471  24.630  10.097  0.0013 -0.1563  0.0598
66441CHOL    R430883  22.351  24.866   9.973  0.0532 -0.2125 -0.1039
66441CHOL    R530884  22.498  24.733   9.883  0.1675 -0.2001  0.0576
66441CHOL    C130885  22.689  25.062   9.864  0.1039 -0.1572  0.1522
66441CHOL    C230886  22.562  25.258   9.825  0.0874 -0.1342 -0.1930
66442CHOL   ROH30887  32.294  24.656   3.088  0.0024 -0.0959  0.0460
66442CHOL    R130888  32.124  24.541   3.283  0.0641 -0.2222  0.0253
66442CHOL    R230889  31.850  24.572   3.279  0.0698 -0.1412  0.1840
66442CHOL    R330890  31.851  24.301   3.287 -0.0013 -0.1501 -0.0586
66442CHOL    R430891  31.571  24.375   3.331  0.0423 -0.1095  0.1566
66442CHOL    R530892  31.692  24.246   3.458  0.0738 -0.2573 -0.0223
66442CHOL    C130893  31.409  24.006   3.370 -0.0403 -0.0996 -0.0871
66442CHOL    C230894  31.125  23.900   3.511  0.1135  0.2599  0.1070
66443CHOL   ROH30895   0.772   5.000  11.666 -0.1868  0.0271 -0.1043
66443CHOL    R130896   0.833   4.754  11.540  0.0688  0.0678 -0.0617
66443CHOL    R230897   0.656   4.625  11.372  0.1141 -0.2569  0.1384
66443CHOL    R330898   0.865   4.633  11.198 -0.0427 -0.0153 -0.0436
66443CHOL    R430899   0.674   4.447  11.076  0.0182 -0.1609  0.0741
66443CHOL    R530900   0.884   4.408  11.118  0.0947  0.0214 -0.1202
66443CHOL    C130901   0.880   4.350  10.741 -0.1848  0.1217 -0.1342
66443CHOL    C230902   0.987   4.021  10.761 -0.0884 -0.0899 -0.2391
66444CHOL   ROH30903  34.334  16.700   1.498  0.0048 -0.0632  0.1096
66444CHOL    R130904  34.276  16.680   1.774  0.0610 -0.0206  0.1245
66444CHOL    R230905  34.269  16.901   1.941  0.0504  0.0097  0.0828
66444CHOL    R330906  34.021  16.806   2.001  0.0800 -0.0264  0.1495
66444CHOL    R430907  34.122  16.916   2.253  0.2792 -0.3414  0.2110
66444CHOL    R530908  34.044  16.715   2.221  0.2281 -0.2937  0.0264
66444CHOL    C130909  33.804  16.837   2.491  0.4406 -0.5802  0.3483
66444CHOL    C230910  33.727  16.913   2.785 -0.0346  0.3649 -0.1197
66445CHOL   ROH30911   7.726  22.739  16.591  0.0166 -0.1562  0.1211
66445CHOL    R130912   7.481  22.806  16.716  0.0838 -0.0526  0.1993
66445CHOL    R230913   7.240  22.693  16.640 -0.0179  0.2022  0.1360
66445CHOL    R330914   7.224  22.631  16.904 -0.0390  0.0091  0.0897
66445CHOL    R430915   6.945  22.660  16.817 -0.0353 -0.0359  0.0637
66445CHOL    R530916   7.040  22.762  16.985 -0.1028 -0.1181  0.1518
66445CHOL    C130917   6.758  22.582  17.168 -0.0653 -0.3557 -0.0220
66445CHOL    C230918   6.434  22.603  17.368  0.3039 -0.0930  0.0069
66446CHOL   ROH30919  30.176  24.196   5.575 -0.0127  0.0388  0.0152
66446CHOL    R130920  30.019  24.267   5.351 -0.0587  0.0839  0.0616
66446CHOL    R230921  29.993  24.527   5.264  0.1012  0.0747 -0.0127
66446CHOL    R330922  30.075  24.422   5.027 -0.0838 -0.0660 -0.0156
66446CHOL    R430923  29.943  24.674   4.955  0.2548  0.1163 -0.0183
66446CHOL    R530924  29.899  24.476   4.873 -0.0362  0.1665  0.0085
66446CHOL    C130925  29.990  24.661   4.552  0.1708  0.0081 -0.0244
66446CHOL    C230926  29.937  24.824   4.146  0.0517  0.0091 -0.1074
66447CHOL   ROH30927   9.954   3.548  15.157 -0.3786  0.0776 -0.0207
66447CHOL    R130928   9.843   3.482  15.409 -0.1921  0.0975  0.0677
66447CHOL    R230929   9.950   3.288  15.573 -0.0786  0.1018 -0.0038
66447CHOL    R330930   9.951   3.489  15.756  0.0703  0.1106 -0.0131
66447CHOL    R430931  10.049   3.254  15.903  0.2317  0.1244 -0.0927
66447CHOL    R530932   9.883   3.383  15.960  0.2695  0.1106  0.0559
66447CHOL    C130933  10.108   3.423  16.267  0.5518  0.1459 -0.1531
66447CHOL    C230934  10.028   3.303  16.640 -0.1077 -0.1252 -0.1753
66448CHOL   ROH30935  14.776   2.178  16.662 -0.1849  0.1717  0.0265
66448CHOL    R130936  14.568   2.205  16.472 -0.1605  0.2151  0.0061
66448CHOL    R230937  14.567   2.405  16.281  0.0755  0.0075 -0.2145
66448CHOL    R330938  14.538   2.195  16.110 -0.1872 -0.1503  0.0164
66448CHOL    R430939  14.480   2.432  15.947  0.1948 -0.2457 -0.2681
66448CHOL    R530940  14.353   2.256  15.971 -0.0673 -0.0383 -0.0957
66448CHOL    C130941  14.403   2.252  15.592  0.0178 -0.5412 -0.0820
66448CHOL    C230942  14.516   2.025  15.108 -0.0122  0.0276 -0.3028
66449CHOL   ROH30943  21.903   6.660  15.020  0.0179  0.0322 -0.0863
66449CHOL    R130944  21.693   6.790  14.881  0.0330  0.0113 -0.1293
66449CHOL    R230945  21.646   6.751  14.611  0.0300 -0.0700 -0.1184
66449CHOL    R330946  21.395   6.690  14.697  0.0233 -0.0153 -0.0986
66449CHOL    R430947  21.362   6.764  14.415  0.0187 -0.0268 -0.0991
66449CHOL    R530948  21.254   6.848  14.585  0.0469  0.0043 -0.0984
66449CHOL    C130949  20.961   6.714  14.381  0.0062  0.0497 -0.0693
66449CHOL    C230950  20.683   6.890  14.139  0.5776  0.3873 -0.0297
66450CHOL   ROH30951  13.732  32.421  15.933 -0.0322 -0.0605  0.0460
66450CHOL    R130952  13.992  32.486  16.026 -0.0396  0.0046  0.0212
66450CHOL    R230953  14.189  32.585  15.860 -0.0567 -0.0200 -0.0130
66450CHOL    R330954  14.199  32.785  16.044 -0.0807  0.0394 -0.0757
66450CHOL    R430955  14.458  32.797  15.905  0.0712 -0.2205  0.1776
66450CHOL    R530956  14.426  32.783  16.121 -0.1574 -0.1167  0.1530
66450CHOL    C130957  14.624  33.109  16.104  0.1232 -0.2814  0.2298
66450CHOL    C230958  14.811  33.436  16.277 -0.0321  0.1410  0.0832
66451CHOL   ROH30959   3.447  15.161  13.743  0.1309 -0.0765 -0.1227
66451CHOL    R130960   3.719  15.126  13.673  0.1042 -0.2673 -0.1319
66451CHOL    R230961   3.798  14.992  13.445 -0.0081  0.0380 -0.3529
66451CHOL    R330962   3.936  15.221  13.397  0.2645 -0.0317  0.0727
66451CHOL    R430963   4.077  15.016  13.242  0.0276  0.0806 -0.2989
66451CHOL    R530964   4.165  15.152  13.387  0.1844 -0.2870 -0.0431
66451CHOL    C130965   4.369  15.244  13.078  0.3042  0.0399  0.1321
66451CHOL    C230966   4.738  15.140  13.122  0.0148 -0.1248 -0.4398
66452CHOL   ROH30967  20.485  28.314  14.092 -0.0233 -0.0246  0.1285
66452CHOL    R130968  20.323  28.102  13.996 -0.0147  0.0410 -0.0329
66452CHOL    R230969  20.115  27.996  14.143  0.0755 -0.1697 -0.0561
66452CHOL    R330970  19.971  28.053  13.919 -0.0371  0.0422  0.0677
66452CHOL    R430971  19.825  27.834  14.049  0.1923 -0.2871 -0.2168
66452CHOL    R530972  19.895  27.839  13.843  0.1312  0.0866 -0.2328
66452CHOL    C130973  19.521  27.792  13.784  0.1545 -0.1563 -0.1941
66452CHOL    C230974  19.299  27.429  13.869 -0.1230 -0.1614  0.1331
66453CHOL   ROH30975  19.541   8.093  12.268 -0.0319 -0.2284  0.0470
66453CHOL    R130976  19.720   7.950  12.433  0.0612 -0.1094  0.0504
66453CHOL    R230977  19.992   7.941  12.386  0.0501 -0.0442 -0.0265
66453CHOL    R330978  20.007   8.028  12.643  0.0993  0.0605 -0.0644
66453CHOL    R430979  20.273   7.918  12.586  0.0093 -0.2010  0.0132
66453CHOL    R530980  20.144   7.865  12.753 -0.0563 -0.0106  0.0247
66453CHOL    C130981  20.451   7.986  12.944  0.0322 -0.1940  0.0007
66453CHOL    C230982  20.814   8.057  12.956  0.0760 -0.2419  0.3677
66454CHOL   ROH30983  23.033  26.226  11.317 -0.1043  0.1948 -0.0180
66454CHOL    R130984  22.752  26.198  11.306 -0.1047  0.2300 -0.1069
66454CHOL    R230985  22.602  26.290  11.093 -0.0035  0.0535 -0.2579
66454CHOL    R330986  22.511  26.034  11.088 -0.0407  0.0620 -0.0512
66454CHOL    R430987  22.315  26.185  10.930  0.0349 -0.0566 -0.2548
66454CHOL    R530988  22.272  26.055  11.100 -0.0404  0.1072 -0.1494
66454CHOL    C130989  22.063  25.883  10.831  0.0227 -0.1128 -0.0588
66454CHOL    C230990  21.870  25.774  10.991  0.0881 -0.0266 -0.2673
66455CHOL   ROH30991   6.285  15.032  12.554  0.0639 -0.2040  0.1905
66455CHOL    R130992   6.008  15.067  12.600  0.0912  0.0487  0.1716
66455CHOL    R230993   5.845  14.862  12.689 -0.1398  0.1417 -0.0353
66455CHOL    R330994   5.781  15.041  12.883  0.0139  0.0410  0.1098
66455CHOL    R430995   5.566  14.841  12.892 -0.0983  0.1548  0.0239
66455CHOL    R530996   5.543  15.057  12.873  0.0191  0.1840  0.1835
66455CHOL    C130997   5.344  14.997  13.193  0.0703  0.0679  0.1946
66455CHOL    C230998   5.093  15.373  13.426 -0.0256  0.4001 -0.1306
66456CHOL   ROH30999  23.965  10.449   4.625  0.2518  0.3088 -0.1017
66456CHOL    R131000  23.960  10.498   4.904  0.0957  0.4511 -0.1287
66456CHOL    R231001  24.123  10.362   5.082 -0.3057  0.2362  0.0796
66456CHOL    R331002  24.196  10.613   5.156  0.0886  0.1419  0.0217
66456CHOL    R431003  24.329  10.437   5.349 -0.2428 -0.0248  0.1049
66456CHOL    R531004  24.200  10.605   5.396  0.0198  0.2046  0.0258
66456CHOL    C131005  24.518  10.715   5.574  0.1640 -0.2651  0.0653
66456CHOL    C231006  24.531  10.793   5.974  0.0702  0.0908 -0.4813
66457CHOL   ROH31007   8.972  26.312  17.867 -0.0162  0.2895 -0.0836
66457CHOL    R131008   8.962  26.255  18.144 -0.0957  0.1299 -0.1192
66457CHOL    R231009   9.039  26.437  18.336 -0.0497 -0.0184  0.0037
66457CHOL    R331010   8.790  26.389  18.435 -0.0912  0.0356 -0.0729
66457CHOL    R431011   8.927  26.540  18.646 -0.0591 -0.1534  0.0454
66457CHOL    R531012   8.827  26.348  18.669 -0.1527 -0.1219 -0.0896
66457CHOL    C131013   8.628  26.555  18.920 -0.1037 -0.1811 -0.0020
66457CHOL    C231014   8.480  26.283  19.130  0.2317  0.0994 -0.0156
66458CHOL   ROH31015  13.766  33.102  15.063  0.0760 -0.0167  0.0398
66458CHOL    R131016  13.929  33.330  15.102  0.1551 -0.0671  0.0017
66458CHOL    R231017  13.978  33.437  15.352  0.1429 -0.0053 -0.0217
66458CHOL    R331018  14.238  33.407  15.279  0.1467 -0.1295  0.0434
66458CHOL    R431019  14.242  33.622  15.478  0.1849 -0.0469 -0.0490
66458CHOL    R531020  14.326  33.629  15.277  0.2277 -0.1625 -0.0346
66458CHOL    C131021  14.639  33.701  15.483  0.2131 -0.1873 -0.0040
66458CHOL    C231022  14.843  33.957  15.416  0.1396 -0.2132 -0.2850
66459CHOL   ROH31023  13.947   2.381  13.444 -0.2434  0.0703 -0.0144
66459CHOL    R131024  14.089   2.435  13.683 -0.2384  0.0826 -0.0200
66459CHOL    R231025  13.965   2.525  13.912 -0.2636 -0.1106  0.0425
66459CHOL    R331026  14.089   2.311  14.025 -0.0721 -0.0605 -0.0711
66459CHOL    R431027  14.055   2.502  14.245 -0.1515 -0.1633  0.0084
66459CHOL    R531028  14.241   2.407  14.183 -0.0978 -0.0033 -0.0800
66459CHOL    C131029  14.224   2.288  14.545  0.0935 -0.1470 -0.1178
66459CHOL    C231030  14.444   2.561  14.797 -0.1118  0.0663 -0.1907
66460CHOL   ROH31031   2.298   5.337   8.513  0.1310 -0.0428 -0.0062
66460CHOL    R131032   2.141   5.465   8.710  0.0616 -0.0337 -0.0674
66460CHOL    R231033   1.882   5.387   8.768  0.0655 -0.0754 -0.1065
66460CHOL    R331034   1.978   5.371   9.022  0.0143 -0.0009 -0.0822
66460CHOL    R431035   1.688   5.344   9.051  0.0261 -0.2138 -0.1541
66460CHOL    R531036   1.816   5.487   9.154 -0.1040 -0.1177 -0.1242
66460CHOL    C131037   1.665   5.304   9.453 -0.0448 -0.2245 -0.1591
66460CHOL    C231038   1.276   5.417   9.628  0.1280 -0.0708  0.4978
66461CHOL   ROH31039   1.205  29.606  15.532  0.2513  0.1064  0.1972
66461CHOL    R131040   1.379  29.749  15.361  0.2458 -0.1245 -0.0057
66461CHOL    R231041   1.470  29.647  15.121 -0.2212 -0.2231 -0.1461
66461CHOL    R331042   1.368  29.879  15.021 -0.0080 -0.0511  0.0296
66461CHOL    R431043   1.529  29.767  14.803 -0.3406 -0.1812 -0.1529
66461CHOL    R531044   1.545  29.968  14.887 -0.0063 -0.2314 -0.0893
66461CHOL    C131045   1.469  30.054  14.523 -0.2099  0.0048  0.0082
66461CHOL    C231046   1.767  30.015  14.298 -0.0515  0.2575 -0.2717
66462CHOL   ROH31047  23.861   0.424   9.529  0.0128 -0.0814  0.0435
66462CHOL    R131048  23.624   0.328   9.408  0.1329 -0.1782 -0.1168
66462CHOL    R231049  23.602   0.072   9.306  0.1965 -0.3027  0.1758
66462CHOL    R331050  23.385   0.060   9.469  0.0006 -0.0478 -0.0617
66462CHOL    R431051  23.374  35.198   9.313  0.1869 -0.2911  0.3056
66462CHOL    R531052  23.215  35.345   9.334  0.1606 -0.2544 -0.1111
66462CHOL    C131053  23.037  35.035   9.470 -0.0023 -0.0453  0.1582
66462CHOL    C231054  22.736  34.886   9.513 -0.2263  0.4230 -0.0704
66463CHOL   ROH31055   1.926  18.061   9.620 -0.0134 -0.1538 -0.0673
66463CHOL    R131056   2.202  18.052   9.557 -0.0542 -0.1265 -0.2557
66463CHOL    R231057   2.389  17.938   9.726  0.1216  0.2150 -0.2137
66463CHOL    R331058   2.453  17.794   9.504  0.0201 -0.0984 -0.0406
66463CHOL    R431059   2.698  17.797   9.665  0.1267  0.2254 -0.2099
66463CHOL    R531060   2.679  17.856   9.456 -0.0337 -0.0959 -0.2879
66463CHOL    C131061   2.938  17.579   9.421  0.0345 -0.0625 -0.0454
66463CHOL    C231062   3.138  17.631   9.113  0.0168 -0.2057 -0.2402
66464CHOL   ROH31063   6.538  15.985  16.711  0.0389 -0.1230 -0.0167
66464CHOL    R131064   6.539  15.868  16.453 -0.0300 -0.2392  0.0349
66464CHOL    R231065   6.574  16.017  16.223 -0.4037 -0.2966 -0.0645
66464CHOL    R331066   6.774  15.839  16.177 -0.2184 -0.0701 -0.1449
66464CHOL    R431067   6.705  15.943  15.912 -0.3456 -0.0469 -0.1005
66464CHOL    R531068   6.713  15.733  15.971 -0.1204 -0.0595 -0.1783
66464CHOL    C131069   6.969  15.732  15.688 -0.1376  0.3113 -0.1971
66464CHOL    C231070   6.966  16.102  15.496  0.2483 -0.2638 -0.1284
66465CHOL   ROH31071  14.430   7.205  14.549 -0.1705 -0.1738  0.0285
66465CHOL    R131072  14.618   7.201  14.760 -0.0437 -0.1630 -0.0843
66465CHOL    R231073  14.547   7.154  15.022  0.0870  0.0389 -0.0124
66465CHOL    R331074  14.736   6.959  15.005 -0.0426 -0.0884 -0.0108
66465CHOL    R431075  14.722   7.024  15.291  0.1123  0.0376 -0.0294
66465CHOL    R531076  14.901   7.023  15.167  0.0628 -0.1263 -0.1021
66465CHOL    C131077  15.001   6.766  15.431  0.0055 -0.0829 -0.0378
66465CHOL    C231078  15.215   6.705  15.777 -0.0713 -0.3957 -0.0782
66466CHOL   ROH31079  22.541  13.822  12.643 -0.0265  0.2194 -0.0769
66466CHOL    R131080  22.404  13.672  12.446  0.0284  0.2862 -0.1663
66466CHOL    R231081  22.193  13.505  12.507  0.2127  0.0234 -0.2369
66466CHOL    R331082  22.065  13.652  12.317 -0.0120  0.0937 -0.0331
66466CHOL    R431083  22.035  13.374  12.228 -0.0406  0.1319 -0.1460
66466CHOL    R531084  22.114  13.540  12.111 -0.1949  0.2095 -0.1421
66466CHOL    C131085  21.823  13.435  11.888 -0.3988  0.2608  0.0983
66466CHOL    C231086  21.634  13.281  11.713  0.0839 -0.0088  0.2285
66467CHOL   ROH31087   6.303  25.889  16.135 -0.1496  0.1413  0.0854
66467CHOL    R131088   6.167  25.642  16.155 -0.0364  0.0854  0.1650
66467CHOL    R231089   5.934  25.611  16.300 -0.1453  0.0811 -0.0126
66467CHOL    R331090   5.839  25.513  16.065  0.1079 -0.1597 -0.0171
66467CHOL    R431091   5.619  25.476  16.255 -0.1629  0.1970 -0.2499
66467CHOL    R531092   5.708  25.322  16.129 -0.0776 -0.0114  0.0542
66467CHOL    C131093   5.346  25.305  16.009  0.0644  0.0384 -0.3917
66467CHOL    C231094   5.000  25.440  15.729  0.0300 -0.0801 -0.0584
66468CHOL   ROH31095   2.415   0.519  11.442 -0.1001 -0.0128 -0.0126
66468CHOL    R131096   2.243   0.645  11.628 -0.1948 -0.1448 -0.0099
66468CHOL    R231097   2.074   0.504  11.794  0.1419 -0.2919  0.2123
66468CHOL    R331098   2.198   0.646  11.989  0.0304  0.0770  0.0187
66468CHOL    R431099   1.963   0.530  12.121  0.3635 -0.3069  0.2890
66468CHOL    R531100   2.019   0.741  12.117 -0.0511 -0.1936  0.1085
66468CHOL    C131101   2.016   0.679  12.494  0.3879  0.0307  0.1522
66468CHOL    C231102   1.760   0.600  12.771  0.1443  0.0963  0.1386
66469CHOL   ROH31103   2.904  28.865  13.232  0.1827  0.1455  0.0479
66469CHOL    R131104   2.630  28.923  13.272  0.1647  0.0570  0.0548
66469CHOL    R231105   2.481  28.806  13.473  0.2333  0.0870  0.1243
66469CHOL    R331106   2.425  29.064  13.538  0.1423  0.0945  0.0175
66469CHOL    R431107   2.200  28.911  13.645  0.1834  0.0643  0.0565
66469CHOL    R531108   2.188  29.083  13.511  0.1394  0.0071 -0.0118
66469CHOL    C131109   1.984  29.214  13.806  0.0690  0.0577 -0.0834
66469CHOL    C231110   1.972  29.580  14.038  0.2121 -0.2430  0.2478
66470CHOL   ROH31111   3.507   3.276  10.470  0.1289  0.0391  0.1458
66470CHOL    R131112   3.401   3.366  10.717  0.1013  0.1351  0.0994
66470CHOL    R231113   3.394   3.633  10.787  0.1352  0.1581  0.0142
66470CHOL    R331114   3.130   3.582  10.825  0.1197  0.2167 -0.0151
66470CHOL    R431115   3.176   3.841  10.955  0.2530  0.0190  0.3440
66470CHOL    R531116   3.085   3.665  11.046  0.1920 -0.0723  0.1112
66470CHOL    C131117   2.800   3.915  11.089  0.3071 -0.0070  0.5084
66470CHOL    C231118   2.591   3.833  11.346  0.0732 -0.1549 -0.2265
66471CHOL   ROH31119   8.920   9.343  15.997 -0.0303  0.1287  0.0046
66471CHOL    R131120   9.113   9.183  16.129 -0.0819  0.1142  0.0628
66471CHOL    R231121   9.303   9.036  15.992 -0.0049  0.1578  0.1215
66471CHOL    R331122   9.476   9.171  16.152 -0.0920  0.1359  0.2353
66471CHOL    R431123   9.597   8.906  16.120 -0.1347  0.1015  0.3662
66471CHOL    R531124   9.554   9.007  16.308 -0.2527  0.1389  0.3185
66471CHOL    C131125   9.930   8.957  16.344 -0.2920  0.0480  0.6147
66471CHOL    C231126  10.005   8.761  16.673  0.0741  0.0749  0.0339
66472CHOL   ROH31127  17.054  25.866  14.677 -0.0972 -0.2351  0.0376
66472CHOL    R131128  17.287  25.849  14.837 -0.0099 -0.1278 -0.0769
66472CHOL    R231129  17.486  26.040  14.830 -0.1881  0.0613 -0.0384
66472CHOL    R331130  17.444  26.048  15.099 -0.0782 -0.1577 -0.0135
66472CHOL    R431131  17.703  26.180  15.060 -0.1926  0.0626 -0.0344
66472CHOL    R531132  17.661  26.013  15.194 -0.0105 -0.0631 -0.1319
66472CHOL    C131133  17.789  26.269  15.447 -0.0927 -0.1427 -0.0087
66472CHOL    C231134  18.181  26.389  15.611 -0.2894 -0.4168 -0.2733
66473CHOL   ROH31135   0.048  24.130  10.183  0.2644 -0.3665  0.0868
66473CHOL    R131136   0.321  24.183  10.131  0.1982 -0.3189 -0.2284
66473CHOL    R231137   0.413  24.263   9.884 -0.1735  0.2003 -0.2052
66473CHOL    R331138   0.520  24.469  10.026  0.0948 -0.1304  0.0798
66473CHOL    R431139   0.684  24.453   9.783 -0.4313  0.5047 -0.3332
66473CHOL    R531140   0.756  24.450   9.988  0.0230  0.0025 -0.4883
66473CHOL    C131141   0.942  24.756   9.857 -0.3295  0.3718 -0.1401
66473CHOL    C231142   1.306  24.814  10.022  0.1445 -0.0194 -0.1371
66474CHOL   ROH31143  16.099   8.402  14.403  0.2186 -0.3797 -0.2118
66474CHOL    R131144  16.274   8.268  14.581  0.1337 -0.2497 -0.0283
66474CHOL    R231145  16.441   8.403  14.755  0.1285 -0.1199 -0.1229
66474CHOL    R331146  16.320   8.247  14.941  0.0343  0.1074  0.0072
66474CHOL    R431147  16.575   8.324  15.063  0.2052 -0.1734 -0.1698
66474CHOL    R531148  16.499   8.121  15.039 -0.0700 -0.0856 -0.0484
66474CHOL    C131149  16.539   8.131  15.418  0.1617  0.0089 -0.0750
66474CHOL    C231150  16.504   8.052  15.749 -0.1004 -0.0116  0.2788
66475CHOL   ROH31151   9.042   9.268  14.792  0.1010  0.0962  0.0018
66475CHOL    R131152   9.157   9.114  15.000  0.1350  0.0476 -0.0525
66475CHOL    R231153   9.173   9.205  15.261  0.1075 -0.0442 -0.0182
66475CHOL    R331154   9.045   8.972  15.316  0.1641 -0.0962 -0.1069
66475CHOL    R431155   9.108   9.085  15.579 -0.0038 -0.1030 -0.0626
66475CHOL    R531156   9.158   8.885  15.508  0.1019 -0.0770 -0.0615
66475CHOL    C131157   8.950   8.797  15.815 -0.0152 -0.1859 -0.1719
66475CHOL    C231158   8.812   8.559  16.040 -0.0727 -0.1096  0.0555
66476CHOL   ROH31159  23.447   2.715   8.189 -0.0761 -0.1940  0.0661
66476CHOL    R131160  23.509   2.794   8.454 -0.1577 -0.1299  0.0667
66476CHOL    R231161  23.372   2.699   8.674 -0.1227 -0.1989  0.0600
66476CHOL    R331162  23.621   2.631   8.759 -0.0884 -0.0311  0.0939
66476CHOL    R431163  23.456   2.628   9.002 -0.1076 -0.0996  0.0777
66476CHOL    R531164  23.642   2.738   8.973 -0.1745  0.0119  0.0799
66476CHOL    C131165  23.738   2.523   9.273 -0.0666  0.1158  0.1199
66476CHOL    C231166  23.791   2.270   9.598  0.0090  0.0740  0.2727
66477CHOL   ROH31167  22.737   7.054   8.033  0.0852  0.1001  0.2033
66477CHOL    R131168  23.003   7.103   8.117  0.1217  0.0300  0.1308
66477CHOL    R231169  23.206   6.919   8.083  0.1077  0.0540 -0.1028
66477CHOL    R331170  23.330   7.128   7.960  0.0550  0.1528  0.0108
66477CHOL    R431171  23.548   6.973   8.080  0.0938  0.1406 -0.0815
66477CHOL    R531172  23.510   7.186   8.107  0.0433  0.1152  0.0378
66477CHOL    C131173  23.863   7.199   7.963  0.0366  0.2837  0.0377
66477CHOL    C231174  24.212   7.336   7.959 -0.4254 -0.3007  0.3088
66478CHOL   ROH31175  19.479  27.954  16.688 -0.0189 -0.0141 -0.0854
66478CHOL    R131176  19.213  27.902  16.770 -0.0546  0.1070 -0.1230
66478CHOL    R231177  19.000  28.061  16.695  0.0135  0.1454 -0.2376
66478CHOL    R331178  18.896  27.826  16.609 -0.0433  0.1429 -0.1623
66478CHOL    R431179  18.685  28.023  16.559 -0.0977  0.1303  0.0206
66478CHOL    R531180  18.665  27.837  16.671  0.0067  0.1245  0.0292
66478CHOL    C131181  18.403  27.779  16.399 -0.2149  0.1189  0.2417
66478CHOL    C231182  18.420  27.627  16.025 -0.2077  0.2740 -0.0887
66479CHOL   ROH31183  21.895  30.118  12.080  0.0337 -0.1611 -0.0719
66479CHOL    R131184  21.665  30.241  11.971  0.1225 -0.0156 -0.0951
66479CHOL    R231185  21.538  30.145  11.746  0.0604  0.0408 -0.0836
66479CHOL    R331186  21.319  30.147  11.908  0.0568  0.2173 -0.0895
66479CHOL    R431187  21.210  30.146  11.636  0.0626 -0.1741 -0.0951
66479CHOL    R531188  21.162  30.288  11.795  0.0313  0.0336 -0.2866
66479CHOL    C131189  20.814  30.148  11.724  0.0615 -0.1335 -0.1074
66479CHOL    C231190  20.428  30.174  11.543 -0.1827  0.2462 -0.0304
66480CHOL   ROH31191   3.922  20.480  14.335  0.0379 -0.0974  0.0024
66480CHOL    R131192   4.197  20.543  14.323  0.0198 -0.0128  0.0358
66480CHOL    R231193   4.387  20.366  14.229  0.0960  0.0144  0.1388
66480CHOL    R331194   4.451  20.572  14.064  0.0640 -0.0246  0.0772
66480CHOL    R431195   4.695  20.410  14.078  0.1201  0.0668  0.2027
66480CHOL    R531196   4.679  20.623  14.119  0.0323  0.0774  0.1178
66480CHOL    C131197   4.934  20.629  13.835  0.1039  0.0604  0.1817
66480CHOL    C231198   5.300  20.574  13.734  0.0828 -0.0015  0.0535
66481CHOL   ROH31199  35.243  31.221  14.254  0.0502 -0.0813 -0.0782
66481CHOL    R131200   0.037  31.148  14.049  0.1706  0.0467 -0.0188
66481CHOL    R231201  35.341  31.104  13.788  0.2650 -0.1496 -0.0150
66481CHOL    R331202   0.147  31.288  13.731  0.0622  0.0515 -0.0549
66481CHOL    R431203   0.095  31.154  13.476  0.1888 -0.0463 -0.0326
66481CHOL    R531204   0.289  31.179  13.572  0.1705  0.1791 -0.0483
66481CHOL    C131205   0.356  31.356  13.241 -0.0450  0.2028 -0.0803
66481CHOL    C231206   0.783  31.524  13.103 -0.0893  0.0184 -0.1509
66482CHOL   ROH31207   1.329  17.092   9.052  0.0456 -0.1220 -0.0431
66482CHOL    R131208   1.459  17.047   8.805  0.0683  0.0095 -0.0553
66482CHOL    R231209   1.681  17.190   8.725  0.2484 -0.1413  0.1688
66482CHOL    R331210   1.791  16.943   8.695 -0.0103 -0.2304 -0.0708
66482CHOL    R431211   1.962  17.120   8.536  0.2693 -0.2228  0.2296
66482CHOL    R531212   1.864  16.938   8.467  0.1005 -0.0351 -0.0418
66482CHOL    C131213   2.228  16.847   8.398  0.0388 -0.3537  0.0403
66482CHOL    C231214   2.509  16.570   8.279  0.1315 -0.0988  0.1014
66483CHOL   ROH31215   2.215  13.163  11.085  0.0728 -0.0918 -0.0834
66483CHOL    R131216   2.438  13.002  11.019  0.0231 -0.1101 -0.2107
66483CHOL    R231217   2.550  12.998  10.767  0.0470  0.0856 -0.2053
66483CHOL    R331218   2.778  13.057  10.901  0.0537 -0.1187 -0.1260
66483CHOL    R431219   2.865  13.004  10.626  0.0674  0.0801 -0.1591
66483CHOL    R531220   2.942  12.909  10.807  0.0073 -0.1034 -0.2294
66483CHOL    C131221   3.264  13.063  10.671  0.0855 -0.1146 -0.0576
66483CHOL    C231222   3.491  12.981  10.473 -0.1386 -0.2613 -0.1976
66484CHOL   ROH31223   1.233  33.117  15.198  0.0149  0.1570 -0.0986
66484CHOL    R131224   1.448  33.024  15.039  0.0567  0.2293 -0.0842
66484CHOL    R231225   1.411  32.874  14.810  0.1281  0.1014 -0.0108
66484CHOL    R331226   1.562  33.069  14.697 -0.0167  0.1512 -0.1196
66484CHOL    R431227   1.580  32.843  14.511  0.1994  0.0347  0.0361
66484CHOL    R531228   1.747  32.952  14.599  0.0971  0.2361 -0.0103
66484CHOL    C131229   1.821  33.008  14.229  0.1050  0.0426 -0.0386
66484CHOL    C231230   2.014  33.163  13.979 -0.3888  0.0577  0.0842
66485CHOL   ROH31231  24.064  11.353   4.231  0.0469 -0.2794  0.0958
66485CHOL    R131232  24.322  11.337   4.345  0.0378 -0.1254  0.1395
66485CHOL    R231233  24.551  11.316   4.191  0.0607 -0.1961  0.1827
66485CHOL    R331234  24.628  11.534   4.333 -0.0083 -0.0604  0.0151
66485CHOL    R431235  24.879  11.415   4.237  0.0387 -0.1547  0.2511
66485CHOL    R531236  24.829  11.464   4.444 -0.0629  0.0422  0.1810
66485CHOL    C131237  25.142  11.677   4.399 -0.0391 -0.0032  0.1334
66485CHOL    C231238  25.374  11.604   4.198  0.0053 -0.1417 -0.0317
66486CHOL   ROH31239  29.588  18.885   3.428 -0.2948 -0.4758  0.0601
66486CHOL    R131240  29.667  18.943   3.162 -0.1467 -0.1539  0.1719
66486CHOL    R231241  29.738  18.747   2.982  0.1191  0.0757  0.0226
66486CHOL    R331242  29.547  18.864   2.828  0.1457  0.0963  0.0056
66486CHOL    R431243  29.730  18.738   2.637  0.0782 -0.0340  0.0260
66486CHOL    R531244  29.667  18.947   2.638  0.1560 -0.0101 -0.0346
66486CHOL    C131245  29.547  18.843   2.291  0.0800 -0.0788  0.0120
66486CHOL    C231246  29.427  18.596   1.930  0.1407  0.0119  0.0418
66487CHOL   ROH31247  21.248  26.438  14.946 -0.0590 -0.0140  0.6937
66487CHOL    R131248  20.981  26.360  14.893 -0.0462  0.0593  0.5169
66487CHOL    R231249  20.764  26.513  14.968 -0.0486  0.2284  0.1754
66487CHOL    R331250  20.699  26.492  14.704  0.1875  0.0177  0.1320
66487CHOL    R431251  20.449  26.438  14.847  0.0301  0.2527 -0.0480
66487CHOL    R531252  20.542  26.312  14.696  0.1194  0.0753  0.1516
66487CHOL    C131253  20.205  26.375  14.529  0.2980  0.0695 -0.2184
66487CHOL    C231254  19.898  26.259  14.299 -0.1332  0.1403  0.0891
66488CHOL   ROH31255  24.708  16.519   6.310 -0.1532  0.2891 -0.1781
66488CHOL    R131256  24.568  16.518   6.065 -0.1125  0.0813 -0.2013
66488CHOL    R231257  24.433  16.295   5.971 -0.2431  0.0547  0.0488
66488CHOL    R331258  24.224  16.468   5.957 -0.1275  0.1771 -0.1973
66488CHOL    R431259  24.149  16.247   5.780 -0.3109 -0.0698  0.1795
66488CHOL    R531260  24.154  16.459   5.728 -0.1745 -0.1547 -0.1721
66488CHOL    C131261  23.787  16.381   5.655 -0.2417 -0.0276  0.0245
66488CHOL    C231262  23.394  16.552   5.560  0.0494 -0.0521  0.1204
66489CHOL   ROH31263   6.973  14.666  12.999 -0.1045 -0.0524 -0.0726
66489CHOL    R131264   6.827  14.585  13.227 -0.1164  0.0024 -0.0607
66489CHOL    R231265   6.681  14.762  13.381 -0.1103  0.0420 -0.1014
66489CHOL    R331266   6.479  14.587  13.334 -0.1196  0.0445 -0.0717
66489CHOL    R431267   6.390  14.743  13.566 -0.0448 -0.0123 -0.0031
66489CHOL    R531268   6.401  14.525  13.552 -0.0403 -0.0093 -0.0578
66489CHOL    C131269   6.030  14.567  13.629 -0.0153 -0.0415  0.0822
66489CHOL    C231270   5.849  14.683  13.948  0.4508  0.3410 -0.0897
66490CHOL   ROH31271  24.670  28.740   5.854  0.0846 -0.0227 -0.2426
66490CHOL    R131272  24.545  28.671   6.098  0.0065 -0.0439 -0.2882
66490CHOL    R231273  24.686  28.639   6.333 -0.0444 -0.2422 -0.2840
66490CHOL    R331274  24.508  28.821   6.428  0.0678 -0.1612 -0.2280
66490CHOL    R431275  24.616  28.691   6.668  0.0053 -0.2850 -0.2668
66490CHOL    R531276  24.405  28.712   6.615  0.0147 -0.1480 -0.2497
66490CHOL    C131277  24.407  28.892   6.951  0.1394 -0.2339 -0.2042
66490CHOL    C231278  24.413  28.923   7.428 -0.2886  0.2180  0.2921
66491CHOL   ROH31279  21.705  24.203  15.275 -0.0837 -0.0195  0.0372
66491CHOL    R131280  21.433  24.174  15.350 -0.0784  0.0414  0.0800
66491CHOL    R231281  21.262  24.390  15.371 -0.0419  0.0742  0.0516
66491CHOL    R331282  21.109  24.244  15.200 -0.0864  0.0568  0.1060
66491CHOL    R431283  20.935  24.464  15.284  0.0225  0.2113 -0.0753
66491CHOL    R531284  20.889  24.251  15.295 -0.1057  0.2449  0.0468
66491CHOL    C131285  20.602  24.370  15.074  0.0176  0.2744 -0.0982
66491CHOL    C231286  20.346  24.217  14.994  0.0426 -0.0856  0.2022
66492CHOL   ROH31287  28.755  21.170   3.290  0.1644 -0.0301 -0.0616
66492CHOL    R131288  28.960  21.193   3.096  0.1255 -0.1802 -0.1222
66492CHOL    R231289  29.011  20.997   2.909 -0.1692 -0.1574 -0.2314
66492CHOL    R331290  28.980  21.201   2.732  0.0062 -0.0395 -0.1262
66492CHOL    R431291  29.058  20.972   2.567 -0.1268 -0.0040 -0.2368
66492CHOL    R531292  29.154  21.167   2.571  0.0101 -0.0738 -0.1136
66492CHOL    C131293  29.057  21.149   2.203  0.0621  0.1963 -0.1412
66492CHOL    C231294  28.916  21.398   1.862 -0.0986  0.0212 -0.2623
66493CHOL   ROH31295  12.894   7.414  18.260  0.1140  0.0564 -0.0743
66493CHOL    R131296  12.727   7.394  18.033  0.1278 -0.0569 -0.0744
66493CHOL    R231297  12.827   7.362  17.777  0.1450 -0.1250 -0.0588
66493CHOL    R331298  12.661   7.146  17.774  0.1893 -0.1602  0.0083
66493CHOL    R431299  12.666   7.239  17.496 -0.0161 -0.1023  0.0225
66493CHOL    R531300  12.489   7.205  17.618  0.0721 -0.1653  0.1347
66493CHOL    C131301  12.417   6.966  17.330 -0.0687 -0.1220  0.1331
66493CHOL    C231302  12.312   7.005  16.990  0.0872  0.2146  0.2256
66494CHOL   ROH31303   3.224  22.304  12.653 -0.0988  0.0824 -0.1257
66494CHOL    R131304   3.356  22.494  12.491  0.0792  0.1093  0.0490
66494CHOL    R231305   3.586  22.625  12.571  0.2317 -0.2174  0.1498
66494CHOL    R331306   3.685  22.528  12.337  0.0933 -0.0837  0.0350
66494CHOL    R431307   3.898  22.700  12.442  0.1634 -0.1575  0.0186
66494CHOL    R531308   3.807  22.711  12.244  0.0511 -0.0340  0.0751
66494CHOL    C131309   4.172  22.653  12.147 -0.0062  0.0023 -0.1653
66494CHOL    C231310   4.450  22.561  11.781 -0.0809 -0.3918 -0.0518
66495CHOL   ROH31311  13.038  30.383  17.106  0.2713 -0.0170 -0.0142
66495CHOL    R131312  12.916  30.374  17.362  0.2723  0.1652 -0.0065
66495CHOL    R231313  12.855  30.136  17.489 -0.1792  0.2525 -0.0505
66495CHOL    R331314  13.002  30.244  17.690  0.0495 -0.0720 -0.0408
66495CHOL    R431315  12.739  30.193  17.809  0.0700  0.0916  0.0704
66495CHOL    R531316  12.847  30.382  17.810  0.2606 -0.0185  0.1738
66495CHOL    C131317  12.809  30.327  18.185  0.4300 -0.3064  0.1497
66495CHOL    C231318  12.628  30.392  18.405  0.0761  0.2028  0.1006
66496CHOL   ROH31319   6.281  26.422  20.515 -0.0808  0.0625 -0.1436
66496CHOL    R131320   6.409  26.438  20.263  0.0640  0.0872 -0.0690
66496CHOL    R231321   6.670  26.354  20.223  0.0418 -0.0398  0.0406
66496CHOL    R331322   6.558  26.204  20.027  0.0645  0.0945 -0.0757
66496CHOL    R431323   6.847  26.178  19.984  0.0692  0.0469 -0.0027
66496CHOL    R531324   6.699  26.240  19.836  0.1295  0.1633 -0.0135
66496CHOL    C131325   6.844  25.934  19.661  0.1066  0.2234 -0.1370
66496CHOL    C231326   6.893  26.057  19.348 -0.0253  0.2600  0.1020
66497CHOL   ROH31327   3.802  32.044  13.323  0.1057  0.0738 -0.0152
66497CHOL    R131328   3.656  32.113  13.555  0.0636 -0.0149 -0.0150
66497CHOL    R231329   3.726  32.023  13.807  0.1144  0.0205 -0.0158
66497CHOL    R331330   3.723  32.288  13.867 -0.0398  0.0182 -0.0113
66497CHOL    R431331   3.684  32.153  14.125  0.1767 -0.0126  0.0062
66497CHOL    R531332   3.557  32.308  14.039  0.0278 -0.0988  0.0684
66497CHOL    C131333   3.656  32.477  14.366  0.0683 -0.0337  0.0229
66497CHOL    C231334   3.992  32.502  14.658 -0.4273 -0.1388 -0.0748
66498CHOL   ROH31335  21.408  12.116   9.116 -0.0114 -0.0893 -0.2182
66498CHOL    R131336  21.506  12.382   9.129 -0.0305 -0.0948  0.0448
66498CHOL    R231337  21.640  12.480   9.350  0.1539 -0.3701  0.0556
66498CHOL    R331338  21.830  12.543   9.165 -0.0167 -0.1053 -0.0318
66498CHOL    R431339  21.903  12.697   9.404  0.2445 -0.5022  0.1511
66498CHOL    R531340  21.873  12.776   9.203  0.0587 -0.1698  0.3033
66498CHOL    C131341  22.235  12.884   9.262  0.1373 -0.3305  0.1246
66498CHOL    C231342  22.404  13.191   9.263  0.1885  0.1143  0.1577
66499CHOL   ROH31343   5.706  23.275  10.594  0.0094  0.0070 -0.0321
66499CHOL    R131344   5.468  23.129  10.642  0.0334 -0.0463 -0.0740
66499CHOL    R231345   5.467  22.858  10.693  0.0960 -0.0251  0.0421
66499CHOL    R331346   5.329  22.933  10.915 -0.0247  0.0274 -0.0503
66499CHOL    R431347   5.259  22.651  10.875  0.0048  0.0149 -0.0163
66499CHOL    R531348   5.120  22.817  10.896 -0.0117  0.0164 -0.1328
66499CHOL    C131349   5.008  22.600  11.189 -0.1616  0.0874 -0.1372
66499CHOL    C231350   4.947  22.461  11.507 -0.1376  0.1832 -0.1308
66500CHOL   ROH31351  25.927  13.403   5.776 -0.0751  0.2273 -0.0273
66500CHOL    R131352  25.651  13.387   5.716 -0.0633 -0.0065 -0.0222
66500CHOL    R231353  25.553  13.403   5.458 -0.0919  0.0521 -0.0074
66500CHOL    R331354  25.434  13.167   5.523  0.1402 -0.1035 -0.1416
66500CHOL    R431355  25.324  13.237   5.260 -0.1854  0.1144  0.0471
66500CHOL    R531356  25.210  13.189   5.439  0.0355 -0.1644  0.1171
66500CHOL    C131357  25.080  12.918   5.204 -0.0222  0.0048 -0.0471
66500CHOL    C231358  24.945  12.822   4.878 -0.2093 -0.1578  0.0162
66501CHOL   ROH31359   1.279  23.387   6.566  0.1029 -0.0515 -0.0523
66501CHOL    R131360   1.138  23.243   6.765  0.0655 -0.0723 -0.0937
66501CHOL    R231361   1.048  22.985   6.725  0.0985 -0.0796 -0.1272
66501CHOL    R331362   1.187  22.936   6.954  0.0457 -0.0758 -0.0944
66501CHOL    R431363   1.029  22.693   6.909 -0.0848 -0.0036 -0.0240
66501CHOL    R531364   1.034  22.813   7.091 -0.0380  0.0587 -0.0668
66501CHOL    C131365   1.148  22.477   7.230 -0.2409  0.0443  0.0669
66501CHOL    C231366   0.838  22.199   7.269 -0.0461 -0.1414 -0.2636
66502CHOL   ROH31367  32.968  13.502   4.558 -0.1867  0.0819 -0.0299
66502CHOL    R131368  32.960  13.654   4.320 -0.0168  0.0320 -0.0675
66502CHOL    R231369  33.189  13.738   4.190  0.0764 -0.1875 -0.0451
66502CHOL    R331370  33.075  13.614   3.977  0.0136 -0.1432 -0.0374
66502CHOL    R431371  33.307  13.754   3.865  0.0843 -0.2647 -0.0462
66502CHOL    R531372  33.101  13.769   3.796  0.0912 -0.1659 -0.0465
66502CHOL    C131373  33.268  13.647   3.476  0.0301 -0.2682 -0.0396
66502CHOL    C231374  33.442  13.665   3.194  0.1924 -0.1036 -0.3110
66503CHOL   ROH31375  23.726  20.222  10.017  0.0511 -0.1410  0.1313
66503CHOL    R131376  23.471  20.340  10.046  0.0237 -0.1953  0.1097
66503CHOL    R231377  23.303  20.385   9.832  0.1149 -0.0465  0.0690
66503CHOL    R331378  23.126  20.243   9.982  0.0639 -0.1877 -0.1230
66503CHOL    R431379  22.959  20.390   9.790  0.1137  0.1659  0.1005
66503CHOL    R531380  22.938  20.389  10.007  0.1305 -0.1396  0.1039
66503CHOL    C131381  22.594  20.259   9.906  0.0649  0.1574 -0.0614
66503CHOL    C231382  22.378  20.290   9.605  0.2530  0.1753 -0.1010
66504CHOL   ROH31383  30.217  33.469  10.209 -0.2258  0.3333 -0.1612
66504CHOL    R131384  30.431  33.407  10.034 -0.2102  0.4208 -0.1718
66504CHOL    R231385  30.461  33.159   9.918  0.0791  0.3231  0.1067
66504CHOL    R331386  30.468  33.303   9.688 -0.2043  0.0667 -0.0677
66504CHOL    R431387  30.628  33.064   9.630  0.0950  0.2045  0.1546
66504CHOL    R531388  30.691  33.271   9.604 -0.1900  0.2636 -0.1135
66504CHOL    C131389  30.732  33.144   9.247 -0.1623 -0.1058  0.0186
66504CHOL    C231390  30.939  33.440   8.985  0.1979 -0.1820 -0.2597
66505CHOL   ROH31391  18.233  26.998  14.356  0.1094 -0.0733  0.2505
66505CHOL    R131392  18.499  27.092  14.377  0.1015 -0.0160  0.1063
66505CHOL    R231393  18.713  26.924  14.425  0.1539  0.0395  0.0721
66505CHOL    R331394  18.814  27.040  14.201  0.0367 -0.0164 -0.0097
66505CHOL    R431395  19.029  26.865  14.298  0.0187 -0.1362 -0.1853
66505CHOL    R531396  19.044  27.078  14.252  0.1007 -0.1450 -0.1969
66505CHOL    C131397  19.307  26.940  14.013 -0.1698 -0.2908 -0.4119
66505CHOL    C231398  19.634  26.720  14.076 -0.1067  0.0153 -0.0296
66506CHOL   ROH31399   8.658  22.705  19.694  0.0732 -0.0388  0.0787
66506CHOL    R131400   8.701  22.606  19.432 -0.2175  0.0559 -0.0071
66506CHOL    R231401   8.796  22.351  19.383  0.0513  0.1887 -0.1929
66506CHOL    R331402   8.573  22.333  19.229 -0.1813 -0.0911  0.1664
66506CHOL    R431403   8.754  22.126  19.125  0.0729  0.3857 -0.3696
66506CHOL    R531404   8.657  22.284  19.010 -0.4500  0.3229 -0.0353
66506CHOL    C131405   8.520  21.977  18.829 -0.1328  0.2372 -0.1347
66506CHOL    C231406   8.574  21.977  18.446 -0.2723  0.3209 -0.1654
66507CHOL   ROH31407   3.895  21.955   6.609 -0.0493  0.0998  0.1886
66507CHOL    R131408   3.665  21.935   6.773 -0.1066 -0.0269  0.0933
66507CHOL    R231409   3.677  21.941   7.048 -0.2267  0.0146  0.0980
66507CHOL    R331410   3.498  22.143   7.020 -0.3444 -0.1025 -0.0019
66507CHOL    R431411   3.432  22.021   7.279 -0.0754  0.1778  0.2036
66507CHOL    R531412   3.295  22.056   7.113 -0.2289 -0.0875  0.2709
66507CHOL    C131413   3.121  22.258   7.386 -0.0977  0.1630  0.1713
66507CHOL    C231414   2.882  22.254   7.715 -0.0865  0.0669 -0.1056
66508CHOL   ROH31415  35.122  11.651   7.193  0.0227 -0.1456 -0.1607
66508CHOL    R131416  35.294  11.543   6.996  0.1865  0.1326 -0.1730
66508CHOL    R231417   0.152  11.657   6.932  0.3345  0.1118  0.3333
66508CHOL    R331418   0.247  11.408   6.985  0.1175 -0.0527 -0.0389
66508CHOL    R431419   0.458  11.535   6.827  0.3193  0.0780  0.3288
66508CHOL    R531420   0.362  11.344   6.785  0.2083  0.2172 -0.0746
66508CHOL    C131421   0.725  11.230   6.815  0.1068 -0.0965 -0.0231
66508CHOL    C231422   0.903  11.212   6.502  0.1052 -0.2560  0.1146
66509CHOL   ROH31423   8.285  19.641  19.486 -0.1287 -0.0208  0.0284
66509CHOL    R131424   8.243  19.869  19.325 -0.2116 -0.0977 -0.0586
66509CHOL    R231425   8.440  19.975  19.163 -0.1671  0.0712  0.1059
66509CHOL    R331426   8.251  19.947  18.969  0.0438 -0.1631 -0.0679
66509CHOL    R431427   8.466  20.101  18.842 -0.2051  0.4669  0.2554
66509CHOL    R531428   8.255  20.155  18.851 -0.3430 -0.0269  0.1535
66509CHOL    C131429   8.304  20.148  18.473 -0.0293  0.4773  0.1792
66509CHOL    C231430   8.415  19.974  18.185  0.2990  0.2336 -0.2022
66510CHOL   ROH31431  23.927   5.918   6.687  0.1312 -0.0618  0.1479
66510CHOL    R131432  24.082   6.152   6.721 -0.1026  0.0762  0.2811
66510CHOL    R231433  24.163   6.243   6.969 -0.0029 -0.1096  0.3197
66510CHOL    R331434  24.410   6.235   6.856 -0.0845  0.2891  0.1069
66510CHOL    R431435  24.442   6.404   7.093 -0.0147 -0.1730  0.4282
66510CHOL    R531436  24.497   6.456   6.889 -0.2094  0.2833  0.4875
66510CHOL    C131437  24.837   6.491   7.060 -0.0981  0.1645  0.2916
66510CHOL    C231438  25.172   6.417   7.312  0.1303 -0.1663  0.1710
66511CHOL   ROH31439  31.907  32.371   7.720 -0.0661 -0.1661  0.0790
66511CHOL    R131440  31.647  32.384   7.831 -0.1677  0.1648 -0.1900
66511CHOL    R231441  31.598  32.353   8.101 -0.5365 -0.3086 -0.3044
66511CHOL    R331442  31.472  32.592   8.073  0.0178  0.0356  0.0568
66511CHOL    R431443  31.415  32.509   8.348 -0.3267 -0.3448 -0.1249
66511CHOL    R531444  31.269  32.567   8.197 -0.1141  0.2651 -0.1095
66511CHOL    C131445  31.190  32.825   8.467  0.3159 -0.0427  0.3188
66511CHOL    C231446  30.992  33.043   8.649  0.4076  0.0813 -0.0185
66512CHOL   ROH31447  22.686  25.769  12.152  0.0095  0.1027 -0.0115
66512CHOL    R131448  22.486  25.677  11.974 -0.0418 -0.0074  0.1024
66512CHOL    R231449  22.515  25.448  11.823  0.0154  0.0319  0.0566
66512CHOL    R331450  22.279  25.380  11.939  0.1313 -0.1405  0.1947
66512CHOL    R431451  22.261  25.275  11.666 -0.0828  0.1392  0.0957
66512CHOL    R531452  22.117  25.406  11.764 -0.0275  0.0076  0.3602
66512CHOL    C131453  21.891  25.110  11.684 -0.0307  0.0397  0.2480
66512CHOL    C231454  21.621  24.985  11.493 -0.1193 -0.1969 -0.0793
66513CHOL   ROH31455  26.324   3.937  10.207  0.0112 -0.3010 -0.0566
66513CHOL    R131456  26.307   3.893   9.928  0.1143 -0.0474 -0.1041
66513CHOL    R231457  26.084   3.784   9.807  0.2964 -0.2737 -0.2392
66513CHOL    R331458  26.096   4.008   9.654 -0.0305 -0.0969 -0.0140
66513CHOL    R431459  25.943   3.816   9.493  0.2129 -0.1485 -0.1893
66513CHOL    R531460  26.121   3.925   9.430  0.0568  0.1625 -0.1023
66513CHOL    C131461  25.873   4.045   9.166 -0.1427  0.0903  0.0513
66513CHOL    C231462  25.939   3.979   8.767 -0.0556  0.0722 -0.2756
66514CHOL   ROH31463  17.077  32.388  11.733 -0.2508 -0.1327  0.4256
66514CHOL    R131464  17.025  32.589  11.925 -0.1238  0.0431  0.2789
66514CHOL    R231465  16.951  32.530  12.185 -0.2209  0.2810  0.3065
66514CHOL    R331466  17.163  32.689  12.247 -0.1022  0.1516  0.2360
66514CHOL    R431467  17.058  32.601  12.506 -0.1043  0.2609  0.2725
66514CHOL    R531468  17.093  32.807  12.444  0.0177  0.2277  0.2330
66514CHOL    C131469  17.318  32.791  12.751  0.0747  0.1282  0.1863
66514CHOL    C231470  17.324  32.499  13.136 -0.0340  0.0107  0.1121
66515CHOL   ROH31471  30.833  11.611   4.593 -0.0417  0.1153 -0.0079
66515CHOL    R131472  30.824  11.615   4.311 -0.0593  0.0328 -0.0088
66515CHOL    R231473  31.032  11.523   4.154 -0.0213  0.0935  0.0054
66515CHOL    R331474  30.837  11.370   4.042  0.0486 -0.0353  0.0580
66515CHOL    R431475  31.037  11.401   3.830  0.0402 -0.0258  0.0512
66515CHOL    R531476  30.824  11.446   3.815  0.0202 -0.1260  0.0290
66515CHOL    C131477  30.857  11.187   3.537  0.1423 -0.2165  0.1272
66515CHOL    C231478  30.774  10.949   3.444 -0.0429  0.2982  0.0176
66516CHOL   ROH31479  12.657  31.546  17.062  0.0847 -0.1960  0.0184
66516CHOL    R131480  12.668  31.726  17.279 -0.0319 -0.1755  0.0078
66516CHOL    R231481  12.627  31.648  17.541  0.1567 -0.2141  0.0242
66516CHOL    R331482  12.869  31.765  17.580  0.0423  0.0578 -0.0696
66516CHOL    R431483  12.740  31.771  17.843  0.2123 -0.2750  0.0288
66516CHOL    R531484  12.825  31.941  17.737 -0.0691 -0.0969  0.0774
66516CHOL    C131485  13.032  31.953  18.057  0.1371 -0.0557 -0.0566
66516CHOL    C231486  13.231  32.086  18.388  0.1759 -0.0113 -0.1361
66517CHOL   ROH31487  28.922   0.074   6.874 -0.0204 -0.4404 -0.1976
66517CHOL    R131488  28.739   0.109   7.086 -0.0347 -0.1576 -0.2543
66517CHOL    R231489  28.510  35.341   7.111 -0.0018 -0.1730 -0.0285
66517CHOL    R331490  28.609  35.292   7.360  0.0036  0.2279  0.0525
66517CHOL    R431491  28.328  35.206   7.372  0.1328 -0.2029  0.0497
66517CHOL    R531492  28.428  35.345   7.507 -0.1268  0.0893 -0.0561
66517CHOL    C131493  28.316  35.080   7.757  0.2164  0.1554  0.1713
66517CHOL    C231494  28.191  35.010   8.040  0.3085 -0.1625 -0.0276
66518CHOL   ROH31495  17.354  31.035  13.055 -0.2836 -0.0041  0.1994
66518CHOL    R131496  17.245  31.245  13.209 -0.1610  0.0990  0.1471
66518CHOL    R231497  17.359  31.330  13.446  0.0288  0.2587 -0.0013
66518CHOL    R331498  17.353  31.573  13.324 -0.0711  0.1778 -0.1591
66518CHOL    R431499  17.384  31.634  13.609 -0.1711  0.3765 -0.1886
66518CHOL    R531500  17.231  31.713  13.475 -0.1820  0.2104 -0.2768
66518CHOL    C131501  17.393  32.039  13.589 -0.3808  0.3700 -0.4458
66518CHOL    C231502  17.216  32.388  13.590  0.1008 -0.1214  0.1314
66519CHOL   ROH31503  17.207  15.445  17.441 -0.0228 -0.3149  0.1810
66519CHOL    R131504  17.125  15.531  17.184  0.2029 -0.4441  0.0639
66519CHOL    R231505  17.062  15.355  16.981 -0.2108 -0.5602  0.2885
66519CHOL    R331506  16.829  15.495  16.975  0.1220  0.0018  0.0960
66519CHOL    R431507  16.866  15.401  16.700 -0.0692 -0.4243  0.2110
66519CHOL    R531508  16.832  15.607  16.763  0.4198 -0.2575 -0.0408
66519CHOL    C131509  16.533  15.559  16.531  0.3254  0.1824 -0.0150
66519CHOL    C231510  16.357  15.333  16.357 -0.2277 -0.1366 -0.1181
66520CHOL   ROH31511  25.108  33.960  10.429 -0.0256  0.2269 -0.0161
66520CHOL    R131512  25.061  34.025  10.157 -0.0431  0.2102 -0.0171
66520CHOL    R231513  25.125  33.855   9.950  0.0112  0.2279 -0.0147
66520CHOL    R331514  24.864  33.890   9.883  0.0008  0.1473 -0.0173
66520CHOL    R431515  24.991  33.788   9.639 -0.0059  0.0034  0.0401
66520CHOL    R531516  24.871  33.969   9.657 -0.0296 -0.0015 -0.0705
66520CHOL    C131517  24.668  33.781   9.394 -0.0258 -0.2035  0.0694
66520CHOL    C231518  24.352  33.718   9.165 -0.0573  0.0938  0.2239
66521CHOL   ROH31519  13.121  17.884  15.763  0.1046  0.0696  0.2259
66521CHOL    R131520  12.947  17.681  15.857  0.1262 -0.0021  0.1108
66521CHOL    R231521  13.033  17.422  15.902  0.1841  0.0133  0.0893
66521CHOL    R331522  12.927  17.464  16.149  0.0706 -0.0713  0.0553
66521CHOL    R431523  12.922  17.173  16.114  0.0280 -0.0565 -0.0721
66521CHOL    R531524  12.753  17.300  16.168  0.0275 -0.0446 -0.1011
66521CHOL    C131525  12.758  17.068  16.470 -0.1694 -0.1763 -0.1980
66521CHOL    C231526  12.467  16.750  16.584  0.1728  0.0420 -0.0578
66522CHOL   ROH31527  16.618   3.414  16.358  0.2053 -0.2046  0.1050
66522CHOL    R131528  16.467   3.463  16.125  0.1722  0.0512  0.1781
66522CHOL    R231529  16.459   3.710  16.001  0.3594  0.1210  0.3022
66522CHOL    R331530  16.534   3.567  15.782  0.1559  0.1578  0.2074
66522CHOL    R431531  16.444   3.824  15.675  0.0145  0.1579  0.3300
66522CHOL    R531532  16.374   3.627  15.614 -0.0225  0.1575  0.3759
66522CHOL    C131533  16.505   3.756  15.280 -0.3772  0.2138  0.2568
66522CHOL    C231534  16.305   3.723  14.922  0.0948  0.3187  0.0511
66523CHOL   ROH31535  18.223  12.609  16.876  0.2058  0.2157  0.1054
66523CHOL    R131536  18.045  12.459  16.716  0.3469  0.0315  0.1198
66523CHOL    R231537  17.902  12.571  16.507 -0.0034 -0.0469  0.3146
66523CHOL    R331538  18.017  12.370  16.364  0.2430  0.2624  0.0678
66523CHOL    R431539  17.778  12.445  16.210  0.0092 -0.0032  0.2905
66523CHOL    R531540  17.831  12.245  16.279  0.3927  0.0212  0.0881
66523CHOL    C131541  17.813  12.183  15.903  0.2473  0.3124  0.0450
66523CHOL    C231542  17.597  11.953  15.628 -0.1131  0.2278  0.4280
66524CHOL   ROH31543  27.058   8.268   3.020  0.0632  0.0422 -0.0840
66524CHOL    R131544  27.206   8.468   3.154  0.0914 -0.0211 -0.0185
66524CHOL    R231545  27.110   8.600   3.377  0.0189  0.0724 -0.0998
66524CHOL    R331546  27.344   8.517   3.487 -0.1020 -0.0496  0.0647
66524CHOL    R431547  27.267   8.753   3.644  0.1268  0.2344 -0.2553
66524CHOL    R531548  27.458   8.720   3.544  0.1131 -0.1078 -0.1653
66524CHOL    C131549  27.578   8.763   3.903  0.0760  0.2142 -0.1914
66524CHOL    C231550  27.612   8.852   4.298 -0.0777  0.2741  0.0867
66525CHOL   ROH31551  25.673  27.117   4.651 -0.0804 -0.0276  0.0801
66525CHOL    R131552  25.852  26.929   4.762  0.0376  0.0521  0.0245
66525CHOL    R231553  25.773  26.736   4.943  0.2029  0.0918  0.1405
66525CHOL    R331554  25.888  26.566   4.763  0.1258  0.0608  0.1207
66525CHOL    R431555  25.978  26.470   5.025  0.1848  0.0664  0.1027
66525CHOL    R531556  26.104  26.521   4.855  0.1444  0.0341  0.0632
66525CHOL    C131557  26.205  26.156   4.905  0.1021  0.0223  0.0621
66525CHOL    C231558  26.175  25.798   4.800  0.1765  0.0410  0.1862
66526CHOL   ROH31559  31.010   2.032   7.256 -0.0702 -0.2160 -0.0179
66526CHOL    R131560  30.972   1.933   7.519 -0.2226 -0.1236 -0.0047
66526CHOL    R231561  31.104   2.037   7.738 -0.1131 -0.2526 -0.0108
66526CHOL    R331562  30.852   2.064   7.836 -0.0906  0.0824 -0.0382
66526CHOL    R431563  31.028   2.109   8.067 -0.0525 -0.2938  0.0126
66526CHOL    R531564  30.863   1.966   8.055 -0.2697 -0.0414 -0.0819
66526CHOL    C131565  30.747   2.176   8.351  0.0044 -0.0034  0.0006
66526CHOL    C231566  30.730   2.439   8.621 -0.1735 -0.0821 -0.0489
66527CHOL   ROH31567   0.561  21.356   7.833  0.2385 -0.0351 -0.0317
66527CHOL    R131568   0.718  21.420   7.606  0.2284 -0.0143 -0.0334
66527CHOL    R231569   0.608  21.517   7.372  0.1942 -0.1835 -0.0899
66527CHOL    R331570   0.789  21.717   7.408  0.0481 -0.0417 -0.1390
66527CHOL    R431571   0.820  21.637   7.127  0.1586 -0.1354 -0.0971
66527CHOL    R531572   0.978  21.650   7.277  0.1203  0.0374 -0.0731
66527CHOL    C131573   1.113  21.895   7.018  0.0008  0.0249 -0.1475
66527CHOL    C231574   1.360  22.082   6.814 -0.1621  0.2210 -0.1625
66528CHOL   ROH31575  25.031  26.584   8.416  0.0619 -0.2839  0.0846
66528CHOL    R131576  24.753  26.598   8.366  0.0935 -0.2422 -0.0830
66528CHOL    R231577  24.615  26.837   8.359  0.0845 -0.2402  0.1063
66528CHOL    R331578  24.537  26.747   8.115  0.2509  0.0405 -0.0526
66528CHOL    R431579  24.364  26.978   8.167  0.1047 -0.1190  0.1679
66528CHOL    R531580  24.299  26.777   8.113  0.2363 -0.0828 -0.1290
66528CHOL    C131581  24.145  26.975   7.826  0.2734  0.2146  0.0548
66528CHOL    C231582  23.991  27.185   7.609  0.0654 -0.2913  0.2888
66529CHOL   ROH31583  12.369  27.843  21.392 -0.1031 -0.1323 -0.0639
66529CHOL    R131584  12.395  27.889  21.114  0.0409 -0.0124 -0.0305
66529CHOL    R231585  12.633  27.850  20.979  0.0370 -0.2224  0.0258
66529CHOL    R331586  12.479  27.692  20.820 -0.1012  0.0471 -0.1123
66529CHOL    R431587  12.703  27.775  20.649  0.0383 -0.0919 -0.0038
66529CHOL    R531588  12.490  27.796  20.604  0.0701  0.1732 -0.0450
66529CHOL    C131589  12.599  27.583  20.307 -0.0904  0.2366 -0.1508
66529CHOL    C231590  12.778  27.451  20.070  0.0456  0.1499 -0.3258
66530CHOL   ROH31591  17.944  23.410  19.402  0.1704 -0.1301 -0.1407
66530CHOL    R131592  17.797  23.441  19.162  0.1240 -0.2989 -0.1350
66530CHOL    R231593  17.628  23.245  19.065 -0.1183 -0.2556  0.1879
66530CHOL    R331594  17.446  23.446  19.066  0.0955 -0.0566 -0.0227
66530CHOL    R431595  17.310  23.223  18.933 -0.2022 -0.1141  0.3651
66530CHOL    R531596  17.333  23.426  18.856 -0.0204 -0.2481  0.0555
66530CHOL    C131597  16.953  23.400  18.857 -0.0500  0.1555  0.2703
66530CHOL    C231598  16.599  23.440  18.559  0.0184  0.2635  0.1554
66531CHOL   ROH31599  33.625   3.480   7.908 -0.0734  0.0007  0.0173
66531CHOL    R131600  33.578   3.539   8.181  0.1953  0.1526  0.0331
66531CHOL    R231601  33.557   3.797   8.276 -0.0921  0.2028 -0.1563
66531CHOL    R331602  33.320   3.706   8.375  0.1793 -0.0993  0.2310
66531CHOL    R431603  33.367   3.960   8.514 -0.1282  0.1806 -0.1701
66531CHOL    R531604  33.325   3.767   8.607  0.3277  0.2271  0.1438
66531CHOL    C131605  33.034   3.971   8.745  0.1053 -0.1159  0.1856
66531CHOL    C231606  32.829   3.998   9.003 -0.0205 -0.1056 -0.3507
66532CHOL   ROH31607   4.178   3.738  15.846  0.0661 -0.2658  0.2362
66532CHOL    R131608   4.431   3.857  15.805 -0.0487 -0.1018 -0.0016
66532CHOL    R231609   4.656   3.711  15.742  0.0172  0.0288 -0.0685
66532CHOL    R331610   4.670   3.882  15.531 -0.2495 -0.0793 -0.1770
66532CHOL    R431611   4.919   3.728  15.517  0.0935  0.4353  0.0473
66532CHOL    R531612   4.901   3.945  15.521 -0.3714  0.4060 -0.1060
66532CHOL    C131613   5.085   3.899  15.190 -0.1124  0.5704  0.0130
66532CHOL    C231614   5.470   3.927  15.235 -0.0542 -0.1762 -0.0271
66533CHOL   ROH31615  32.801   5.316  10.599  0.0378  0.1757 -0.1824
66533CHOL    R131616  32.786   5.087  10.433  0.1804  0.0531 -0.0273
66533CHOL    R231617  32.675   5.093  10.180  0.0599 -0.2160  0.0170
66533CHOL    R331618  32.915   4.988  10.108  0.1286 -0.0354 -0.0205
66533CHOL    R431619  32.737   4.929   9.883  0.0748 -0.3771  0.1083
66533CHOL    R531620  32.858   4.786   9.992  0.2697 -0.1776  0.1568
66533CHOL    C131621  32.998   4.734   9.641  0.1483 -0.3015  0.1261
66533CHOL    C231622  33.075   4.527   9.284 -0.2720  0.0120 -0.1046
66534CHOL   ROH31623  30.247  19.756   3.566  0.0216  0.0460 -0.0791
66534CHOL    R131624  30.247  19.810   3.289  0.0292  0.0631 -0.0755
66534CHOL    R231625  30.480  19.830   3.141  0.0276 -0.0728 -0.0949
66534CHOL    R331626  30.360  19.641   2.987 -0.1041  0.0118 -0.0976
66534CHOL    R431627  30.532  19.791   2.802 -0.2325  0.0929 -0.1554
66534CHOL    R531628  30.319  19.753   2.779 -0.2548  0.1198 -0.0119
66534CHOL    C131629  30.450  19.591   2.459 -0.5076  0.2687 -0.1933
66534CHOL    C231630  30.753  19.763   2.325 -0.1291  0.0823  0.4717
66535CHOL   ROH31631  29.365  29.207   7.978  0.0650  0.1428  0.1599
66535CHOL    R131632  29.633  29.197   7.885  0.0479  0.0931  0.1162
66535CHOL    R231633  29.782  29.424   7.836  0.0973  0.0645  0.1362
66535CHOL    R331634  29.959  29.305   8.006  0.0945 -0.0122  0.0859
66535CHOL    R431635  30.120  29.385   7.774  0.0664 -0.0677  0.0466
66535CHOL    R531636  30.108  29.186   7.861  0.0093 -0.0668  0.0422
66535CHOL    C131637  30.482  29.252   7.897  0.0454 -0.2167 -0.0529
66535CHOL    C231638  30.670  29.009   8.038  0.0400 -0.1022  0.1561
66536CHOL   ROH31639  32.752   1.361   7.922 -0.1389  0.4677  0.1816
66536CHOL    R131640  32.781   1.384   8.203 -0.1770  0.0284  0.2245
66536CHOL    R231641  32.758   1.625   8.336  0.2619 -0.1011  0.5454
66536CHOL    R331642  32.573   1.490   8.482 -0.0525  0.0616  0.3042
66536CHOL    R431643  32.645   1.722   8.647  0.2960 -0.2529  0.6052
66536CHOL    R531644  32.649   1.512   8.709 -0.1125 -0.3368  0.3678
66536CHOL    C131645  32.405   1.652   8.967  0.0196 -0.1885  0.4138
66536CHOL    C231646  32.175   1.623   9.335  0.1493 -0.0010 -0.1022
66537CHOL   ROH31647  18.067  15.253  17.108  0.0965  0.2339  0.0418
66537CHOL    R131648  18.052  15.308  16.831  0.0435  0.1741  0.0328
66537CHOL    R231649  17.821  15.271  16.684  0.0317  0.0871  0.0730
66537CHOL    R331650  17.862  15.531  16.615 -0.0423  0.0835  0.0144
66537CHOL    R431651  17.724  15.413  16.385 -0.0593  0.0056  0.0635
66537CHOL    R531652  17.913  15.523  16.381 -0.0856  0.0496  0.0059
66537CHOL    C131653  17.706  15.740  16.145 -0.1828 -0.0452  0.0028
66537CHOL    C231654  17.853  15.608  15.787  0.3205  0.2099  0.0165
66538CHOL   ROH31655  11.719   8.920  18.530  0.4021 -0.0345 -0.0355
66538CHOL    R131656  11.583   8.991  18.292  0.2320 -0.0830  0.0462
66538CHOL    R231657  11.711   9.108  18.077  0.0600 -0.0343 -0.0317
66538CHOL    R331658  11.602   8.901  17.940  0.0534 -0.0742  0.0343
66538CHOL    R431659  11.671   9.098  17.734 -0.1390 -0.0508 -0.0082
66538CHOL    R531660  11.476   9.005  17.764 -0.0875 -0.1205  0.1074
66538CHOL    C131661  11.545   8.897  17.405 -0.2609 -0.0977  0.0670
66538CHOL    C231662  11.822   9.043  17.114 -0.1215 -0.1350  0.0456
66539CHOL   ROH31663  25.156  12.325   7.352  0.0992 -0.1443  0.0767
66539CHOL    R131664  24.878  12.278   7.369  0.1122 -0.2618 -0.0262
66539CHOL    R231665  24.691  12.457   7.273  0.0648 -0.1513  0.2658
66539CHOL    R331666  24.601  12.240   7.136  0.1436  0.0539 -0.1179
66539CHOL    R431667  24.405  12.450   7.079  0.0471  0.0762  0.2821
66539CHOL    R531668  24.363  12.251   7.156  0.1410 -0.0854 -0.0716
66539CHOL    C131669  24.154  12.242   6.837  0.1111  0.4013 -0.0687
66539CHOL    C231670  23.868  12.110   6.742  0.3092 -0.1425 -0.1704
66540CHOL   ROH31671  27.520  31.724   9.622 -0.0277  0.2412 -0.0582
66540CHOL    R131672  27.456  31.664   9.353 -0.1078  0.3078 -0.0539
66540CHOL    R231673  27.423  31.860   9.161  0.2310  0.3383 -0.0835
66540CHOL    R331674  27.610  31.715   9.027  0.0030  0.0066 -0.0508
66540CHOL    R431675  27.491  31.889   8.823  0.4951  0.3864 -0.0276
66540CHOL    R531676  27.510  31.672   8.813  0.0330  0.3424 -0.1363
66540CHOL    C131677  27.706  31.771   8.501  0.4351  0.1030  0.0358
66540CHOL    C231678  27.500  31.780   8.199  0.0607 -0.2489 -0.5164
66541CHOL   ROH31679  25.561  14.581   5.145  0.0526 -0.1163  0.0778
66541CHOL    R131680  25.345  14.515   4.975  0.0734  0.0223 -0.0033
66541CHOL    R231681  25.381  14.429   4.715  0.1087  0.1576 -0.0432
66541CHOL    R331682  25.230  14.219   4.796  0.0482  0.1438 -0.1898
66541CHOL    R431683  25.124  14.289   4.532  0.1640  0.2655 -0.2048
66541CHOL    R531684  25.010  14.270   4.717  0.0868  0.2051 -0.2584
66541CHOL    C131685  24.832  14.009   4.502  0.1391  0.3155 -0.4367
66541CHOL    C231686  24.583  13.686   4.508 -0.0723 -0.2981 -0.0417
66542CHOL   ROH31687  18.210  24.292  14.061  0.0641  0.2101 -0.2101
66542CHOL    R131688  18.416  24.440  14.185  0.0362  0.1719 -0.1177
66542CHOL    R231689  18.401  24.525  14.448 -0.0312  0.1069 -0.0999
66542CHOL    R331690  18.639  24.395  14.470 -0.0419  0.0924 -0.0690
66542CHOL    R431691  18.654  24.614  14.665  0.0050  0.1812 -0.1723
66542CHOL    R531692  18.798  24.570  14.507 -0.0189  0.0929 -0.1697
66542CHOL    C131693  19.026  24.544  14.812  0.0159  0.2107 -0.1855
66542CHOL    C231694  19.196  24.239  15.067 -0.2553  0.0856  0.0524
66543CHOL   ROH31695  20.501  32.510   8.768  0.1014  0.2057  0.1923
66543CHOL    R131696  20.750  32.466   8.897 -0.0988  0.1068  0.5523
66543CHOL    R231697  20.769  32.351   9.147 -0.4753 -0.5322  0.3008
66543CHOL    R331698  20.936  32.178   9.019 -0.0703 -0.0464  0.1566
66543CHOL    R431699  21.014  32.162   9.301 -0.5272 -0.6332  0.2602
66543CHOL    R531700  21.145  32.203   9.132 -0.2838 -0.0816  0.5700
66543CHOL    C131701  21.313  31.890   9.272 -0.1776 -0.2367  0.1011
66543CHOL    C231702  21.414  31.900   9.654  0.0074  0.2588 -0.0003
66544CHOL   ROH31703   0.019   3.231   8.532 -0.0889  0.1748 -0.1114
66544CHOL    R131704  35.304   3.411   8.726  0.1026  0.2531 -0.0841
66544CHOL    R231705  35.243   3.333   8.984  0.0627  0.2883 -0.0849
66544CHOL    R331706   0.025   3.537   9.051  0.2599  0.1299 -0.0866
66544CHOL    R431707  35.210   3.532   9.265  0.1900  0.3871 -0.1390
66544CHOL    R531708  35.266   3.704   9.143  0.4051  0.3033 -0.1653
66544CHOL    C131709  35.348   3.839   9.491  0.4485  0.2958 -0.1721
66544CHOL    C231710  35.014   4.080   9.522 -0.2874 -0.0964 -0.0214
66545CHOL   ROH31711   2.746  19.877   9.683 -0.1828 -0.2601  0.0029
66545CHOL    R131712   2.953  19.707   9.593  0.0398 -0.0555  0.1231
66545CHOL    R231713   2.964  19.609   9.335  0.1355 -0.2699  0.2062
66545CHOL    R331714   3.213  19.718   9.338 -0.0132  0.0786  0.0754
66545CHOL    R431715   3.205  19.556   9.093  0.1059  0.0219  0.1118
66545CHOL    R531716   3.355  19.545   9.252  0.1920  0.2607  0.0473
66545CHOL    C131717   3.579  19.628   8.955 -0.0510  0.5190 -0.0660
66545CHOL    C231718   3.673  19.821   8.661 -0.0275 -0.0575  0.0043
66546CHOL   ROH31719  14.785  15.759  15.884 -0.1203  0.2988  0.2056
66546CHOL    R131720  15.005  15.905  15.986 -0.0121  0.0856  0.2797
66546CHOL    R231721  15.147  15.823  16.208  0.0208 -0.2084  0.1523
66546CHOL    R331722  15.360  15.846  16.041 -0.0233 -0.1487  0.1041
66546CHOL    R431723  15.472  15.886  16.309  0.0227 -0.0954  0.0769
66546CHOL    R531724  15.494  16.019  16.138 -0.0588 -0.0986  0.0639
66546CHOL    C131725  15.861  15.943  16.209 -0.0179  0.0263 -0.0121
66546CHOL    C231726  16.194  15.838  16.161 -0.1916  0.2157  0.2268
66547CHOL   ROH31727  31.314  35.261  10.832 -0.2581 -0.0419 -0.2269
66547CHOL    R131728  31.536  35.275  10.656 -0.1669  0.0160 -0.1084
66547CHOL    R231729  31.539  35.146  10.411  0.0072 -0.0008 -0.0977
66547CHOL    R331730  31.597   0.009  10.317 -0.0216  0.0110 -0.0839
66547CHOL    R431731  31.703  35.211  10.114  0.2851  0.0252  0.0590
66547CHOL    R531732  31.812  35.370  10.215  0.0984  0.1007  0.1443
66547CHOL    C131733  31.852   0.097   9.852  0.4198  0.0513  0.1631
66547CHOL    C231734  32.117  35.185   9.723 -0.4288 -0.0422 -0.1010
66548CHOL   ROH31735  22.569  31.918   7.189  0.1761  0.3839  0.0294
66548CHOL    R131736  22.553  31.826   7.456  0.1083  0.3286  0.0061
66548CHOL    R231737  22.772  31.727   7.593  0.0453  0.1828 -0.0017
66548CHOL    R331738  22.703  31.915   7.776  0.1302  0.1744  0.0399
66548CHOL    R431739  22.850  31.713   7.929 -0.1785 -0.0559  0.0420
66548CHOL    R531740  22.651  31.790   7.973 -0.1272  0.1364 -0.0485
66548CHOL    C131741  22.830  31.882   8.297 -0.2287 -0.2030  0.1067
66548CHOL    C231742  23.099  31.666   8.495 -0.0083 -0.0668  0.2551
66549CHOL   ROH31743  30.964  11.243   1.456 -0.0907  0.0914 -0.1179
66549CHOL    R131744  30.909  11.359   1.709 -0.1392  0.1637 -0.1614
66549CHOL    R231745  30.668  11.481   1.767 -0.2954 -0.1587 -0.1192
66549CHOL    R331746  30.667  11.307   1.976  0.0663 -0.0347 -0.0116
66549CHOL    R431747  30.427  11.471   2.014 -0.1757 -0.3835 -0.0105
66549CHOL    R531748  30.585  11.436   2.160 -0.0561 -0.0480 -0.0559
66549CHOL    C131749  30.286  11.302   2.355  0.2339 -0.3979  0.1538
66549CHOL    C231750  30.075  11.107   2.656 -0.0427 -0.3082 -0.0509
66550CHOL   ROH31751  26.616  19.997   3.909  0.0071 -0.1877 -0.1092
66550CHOL    R131752  26.534  20.141   3.680 -0.0574 -0.2281 -0.1109
66550CHOL    R231753  26.621  20.079   3.426 -0.0033 -0.1703 -0.1049
66550CHOL    R331754  26.355  20.067   3.372  0.0072 -0.3193 -0.1272
66550CHOL    R431755  26.482  20.117   3.112 -0.0284  0.2275 -0.0474
66550CHOL    R531756  26.322  20.234   3.203 -0.1369 -0.0648  0.1471
66550CHOL    C131757  26.151  20.129   2.878 -0.0330  0.3193 -0.0349
66550CHOL    C231758  26.222  20.405   2.640 -0.3657  0.2639  0.1183
66551CHOL   ROH31759  27.313  15.901   3.934  0.0003 -0.0474  0.1619
66551CHOL    R131760  27.075  15.925   3.782 -0.0303 -0.2295  0.1795
66551CHOL    R231761  27.015  16.151   3.635 -0.2709 -0.2259  0.2802
66551CHOL    R331762  26.989  15.972   3.432 -0.0884 -0.1654  0.2022
66551CHOL    R431763  26.834  16.206   3.345 -0.2703 -0.2579  0.2742
66551CHOL    R531764  26.763  16.000   3.356 -0.1005 -0.3233  0.1783
66551CHOL    C131765  26.704  16.069   2.986 -0.0991 -0.2199  0.1974
66551CHOL    C231766  26.389  16.384   2.840 -0.0529  0.2164 -0.0680
66552CHOL   ROH31767   3.747   8.737   8.681  0.0470  0.0387  0.0484
66552CHOL    R131768   3.491   8.858   8.694  0.0258  0.0010 -0.0169
66552CHOL    R231769   3.257   8.711   8.693  0.0531 -0.0442  0.1360
66552CHOL    R331770   3.207   8.852   8.920  0.0581  0.1345  0.0278
66552CHOL    R431771   2.943   8.766   8.826  0.0601  0.0192  0.1266
66552CHOL    R531772   3.003   8.970   8.873  0.0362  0.0672 -0.0464
66552CHOL    C131773   2.712   8.929   9.116  0.0688  0.2239  0.0192
66552CHOL    C231774   2.387   8.921   9.164 -0.4073  0.3403  0.2466
66553CHOL   ROH31775   9.946  17.666  14.737 -0.0432 -0.2316 -0.0743
66553CHOL    R131776   9.987  17.468  14.936  0.0510  0.0498  0.1890
66553CHOL    R231777   9.967  17.523  15.206 -0.4509  0.2934  0.1090
66553CHOL    R331778   9.791  17.316  15.202 -0.0482 -0.0564  0.0563
66553CHOL    R431779   9.917  17.302  15.467 -0.1939  0.2777  0.1473
66553CHOL    R531780   9.903  17.141  15.321  0.2186  0.1980  0.1891
66553CHOL    C131781   9.721  16.979  15.615  0.3338 -0.0592  0.1202
66553CHOL    C231782   9.562  16.858  15.942 -0.1082 -0.1918 -0.0904
66554CHOL   ROH31783  25.463   8.258   9.184  0.2350  0.2462 -0.0861
66554CHOL    R131784  25.258   8.090   9.084  0.3805  0.0777 -0.1043
66554CHOL    R231785  24.999   8.178   9.046  0.2635 -0.1892  0.0612
66554CHOL    R331786  25.038   8.085   8.794  0.2626  0.0139 -0.0142
66554CHOL    R431787  24.748   8.067   8.836  0.2880 -0.2378  0.0579
66554CHOL    R531788  24.880   7.906   8.771  0.3941 -0.0924 -0.0910
66554CHOL    C131789  24.639   7.915   8.476  0.3012 -0.0754 -0.0148
66554CHOL    C231790  24.371   7.846   8.165 -0.2487 -0.0076 -0.1561
66555CHOL   ROH31791   8.737  20.470  20.533 -0.0178  0.0825 -0.2242
66555CHOL    R131792   8.918  20.677  20.466  0.0701  0.0406 -0.1175
66555CHOL    R231793   9.095  20.657  20.255 -0.0555  0.1430 -0.2333
66555CHOL    R331794   8.980  20.892  20.179  0.0426  0.2879  0.0604
66555CHOL    R431795   9.257  20.911  20.086 -0.0559  0.1163 -0.2726
66555CHOL    R531796   9.152  21.055  20.211  0.2191  0.1249 -0.0481
66555CHOL    C131797   9.244  21.279  19.917  0.0360  0.2372 -0.0200
66555CHOL    C231798   9.149  21.628  19.893 -0.3798  0.0808 -0.0621
66556CHOL   ROH31799  18.079  22.652  14.573  0.0206 -0.0760  0.0637
66556CHOL    R131800  18.171  22.634  14.840  0.0498  0.1017  0.0660
66556CHOL    R231801  18.297  22.409  14.940 -0.1641  0.0704  0.2717
66556CHOL    R331802  18.491  22.588  15.007  0.0326 -0.0577  0.0546
66556CHOL    R431803  18.551  22.348  15.166 -0.1808  0.0362  0.2812
66556CHOL    R531804  18.526  22.551  15.242  0.0416  0.1400  0.0847
66556CHOL    C131805  18.881  22.480  15.361 -0.0057 -0.1043  0.0829
66556CHOL    C231806  18.880  22.331  15.709 -0.2246  0.1008  0.0455
66557CHOL   ROH31807   6.560  13.674  12.879  0.1401 -0.1910 -0.3210
66557CHOL    R131808   6.586  13.675  13.161  0.2546 -0.0296 -0.3315
66557CHOL    R231809   6.527  13.454  13.317  0.0301  0.1524 -0.1558
66557CHOL    R331810   6.780  13.493  13.409  0.1192 -0.1108 -0.2845
66557CHOL    R431811   6.624  13.419  13.647  0.1062  0.2987 -0.1618
66557CHOL    R531812   6.750  13.596  13.623  0.3383  0.1116 -0.3582
66557CHOL    C131813   6.917  13.435  13.926  0.2342  0.1369 -0.2865
66557CHOL    C231814   6.954  13.429  14.277 -0.1715 -0.1593 -0.0803
66558CHOL   ROH31815  16.594  34.845  16.475 -0.3074  0.2982  0.2261
66558CHOL    R131816  16.497  34.834  16.209 -0.1999  0.1423  0.1921
66558CHOL    R231817  16.353  34.619  16.112 -0.0053  0.0038  0.2051
66558CHOL    R331818  16.172  34.811  16.047 -0.1225 -0.1498  0.0760
66558CHOL    R431819  16.124  34.595  15.854  0.1947 -0.1907  0.0439
66558CHOL    R531820  16.161  34.805  15.808  0.0504 -0.1602  0.0690
66558CHOL    C131821  15.820  34.761  15.644  0.2013 -0.4488 -0.1716
66558CHOL    C231822  15.678  34.525  15.433  0.0172 -0.3510  0.0073
66559CHOL   ROH31823  25.419  23.620   7.210 -0.1144 -0.1038  0.0145
66559CHOL    R131824  25.163  23.620   7.089 -0.1347 -0.1133  0.0572
66559CHOL    R231825  24.989  23.833   7.111 -0.1083 -0.0889  0.0223
66559CHOL    R331826  24.989  23.819   6.839 -0.1558 -0.1705  0.0262
66559CHOL    R431827  24.736  23.952   6.906 -0.2104 -0.2771  0.0378
66559CHOL    R531828  24.760  23.775   6.782 -0.1461 -0.3035  0.0859
66559CHOL    C131829  24.589  24.008   6.533 -0.3146 -0.4634  0.0505
66559CHOL    C231830  24.220  24.049   6.404  0.0158  0.2180  0.2014
66560CHOL   ROH31831  33.972  28.769   7.631  0.0460 -0.3211  0.1372
66560CHOL    R131832  33.710  28.749   7.738  0.0069 -0.2918  0.0483
66560CHOL    R231833  33.593  28.507   7.801  0.0081 -0.2721  0.1312
66560CHOL    R331834  33.558  28.624   8.044 -0.0953 -0.1470  0.0571
66560CHOL    R431835  33.385  28.387   8.050 -0.0439 -0.1808  0.1317
66560CHOL    R531836  33.326  28.593   8.093 -0.1034 -0.1717  0.0011
66560CHOL    C131837  33.232  28.427   8.423 -0.1709 -0.0109  0.0627
66560CHOL    C231838  33.189  28.542   8.807  0.1116 -0.0919 -0.0939
66561CHOL   ROH31839  23.514  32.801  11.123 -0.1310  0.0691  0.4254
66561CHOL    R131840  23.314  32.713  10.943  0.0690  0.0622  0.2041
66561CHOL    R231841  23.047  32.779  10.974 -0.0133 -0.2170  0.0963
66561CHOL    R331842  23.074  32.869  10.718  0.0718  0.0656  0.2029
66561CHOL    R431843  22.785  32.837  10.756  0.0814 -0.3967 -0.0679
66561CHOL    R531844  22.905  32.751  10.596  0.3452 -0.0690 -0.0520
66561CHOL    C131845  22.657  32.955  10.390  0.2165 -0.2353 -0.0635
66561CHOL    C231846  22.538  32.993  10.112 -0.1319 -0.0618 -0.2009
66562CHOL   ROH31847  31.363  17.961   3.998 -0.3062  0.2667  0.0822
66562CHOL    R131848  31.391  18.072   3.739 -0.2687  0.1583  0.0396
66562CHOL    R231849  31.592  17.997   3.565 -0.1660  0.1797  0.1497
66562CHOL    R331850  31.384  17.950   3.396 -0.0798 -0.0074  0.0939
66562CHOL    R431851  31.624  17.916   3.230 -0.0008  0.1335  0.1760
66562CHOL    R531852  31.454  18.046   3.188 -0.0839  0.0015  0.0959
66562CHOL    C131853  31.447  17.826   2.877  0.1763 -0.0687  0.1388
66562CHOL    C231854  31.717  17.959   2.676  0.0230 -0.3198  0.1509
66563CHOL   ROH31855  14.579  22.119  17.924 -0.0612  0.0274  0.1417
66563CHOL    R131856  14.573  21.988  18.175 -0.0550 -0.0874  0.0824
66563CHOL    R231857  14.799  21.877  18.290 -0.0314 -0.0491  0.0734
66563CHOL    R331858  14.729  22.034  18.500 -0.1321 -0.1707  0.1315
66563CHOL    R431859  14.927  21.846  18.609  0.1003  0.0118  0.0263
66563CHOL    R531860  14.727  21.884  18.688  0.0834 -0.2174  0.0978
66563CHOL    C131861  14.937  21.976  18.993  0.0822 -0.0668  0.0540
66563CHOL    C231862  15.238  21.788  19.183  0.1658 -0.0863 -0.4129
66564CHOL   ROH31863  21.788   8.215  14.638  0.1906  0.4331 -0.0977
66564CHOL    R131864  21.559   8.229  14.472  0.0807  0.1359  0.0260
66564CHOL    R231865  21.546   8.394  14.250 -0.2976  0.2102  0.1015
66564CHOL    R331866  21.482   8.163  14.122  0.0080  0.1589  0.0378
66564CHOL    R431867  21.335   8.371  13.977 -0.1511  0.0250  0.0026
66564CHOL    R531868  21.251   8.189  14.063  0.0042 -0.0794 -0.0623
66564CHOL    C131869  21.153   8.141  13.698  0.2212 -0.1311 -0.1148
66564CHOL    C231870  21.109   8.314  13.364  0.3896  0.0782 -0.0516
66565CHOL   ROH31871  16.504  13.612  17.991 -0.2336  0.1448  0.0330
66565CHOL    R131872  16.279  13.634  17.821 -0.1848 -0.0065 -0.0517
66565CHOL    R231873  16.287  13.768  17.580 -0.1935  0.0291 -0.0312
66565CHOL    R331874  16.192  13.533  17.482  0.0229 -0.0314 -0.0985
66565CHOL    R431875  16.077  13.738  17.307 -0.2064 -0.0800 -0.0093
66565CHOL    R531876  15.968  13.582  17.414 -0.0381 -0.2269 -0.0460
66565CHOL    C131877  15.866  13.499  17.056 -0.0106 -0.2004 -0.0601
66565CHOL    C231878  15.720  13.349  16.755 -0.0631  0.0305 -0.2545
66566CHOL   ROH31879   4.312  15.866   9.621  0.1034  0.0922 -0.0513
66566CHOL    R131880   4.076  15.807   9.476  0.1334  0.1326 -0.1170
66566CHOL    R231881   3.842  15.729   9.599  0.1606 -0.0847 -0.1997
66566CHOL    R331882   3.737  15.937   9.459  0.0793  0.0074 -0.0035
66566CHOL    R431883   3.507  15.765   9.520  0.1445 -0.1352 -0.1531
66566CHOL    R531884   3.567  15.837   9.323  0.1110  0.0697 -0.0896
66566CHOL    C131885   3.214  15.981   9.343  0.0587 -0.0780  0.0583
66566CHOL    C231886   2.846  16.006   9.262  0.2033 -0.2635 -0.2744
66567CHOL   ROH31887  21.015  15.648  14.952  0.0295 -0.0437  0.0556
66567CHOL    R131888  20.797  15.657  14.772  0.0000 -0.0857  0.0891
66567CHOL    R231889  20.540  15.716  14.853  0.0028 -0.1215  0.1266
66567CHOL    R331890  20.557  15.906  14.659 -0.0559 -0.1278  0.1153
66567CHOL    R431891  20.318  15.750  14.589 -0.0786 -0.1258  0.1945
66567CHOL    R531892  20.488  15.793  14.459 -0.1194 -0.1320  0.1404
66567CHOL    C131893  20.206  15.948  14.254 -0.1810 -0.1341  0.2229
66567CHOL    C231894  19.925  15.759  14.236  0.3121  0.3011 -0.1592
66568CHOL   ROH31895  10.749  26.973  17.962  0.0506  0.1224 -0.0080
66568CHOL    R131896  10.557  27.129  18.099  0.0198  0.0484  0.0332
66568CHOL    R231897  10.317  27.024  18.188  0.0610 -0.0331  0.0457
66568CHOL    R331898  10.398  27.126  18.426  0.0560 -0.0395  0.0505
66568CHOL    R431899  10.109  27.088  18.456  0.0296  0.0978 -0.0093
66568CHOL    R531900  10.221  27.272  18.493  0.1075  0.0523 -0.0088
66568CHOL    C131901  10.064  27.220  18.837  0.0063  0.1680 -0.0369
66568CHOL    C231902   9.829  26.984  19.041 -0.2282  0.2562  0.1856
66569CHOL   ROH31903   0.555   7.076   7.188  0.1308  0.4896 -0.1632
66569CHOL    R131904   0.576   7.329   7.313 -0.0738  0.4553 -0.0561
66569CHOL    R231905   0.395   7.418   7.501 -0.0167  0.1323  0.1545
66569CHOL    R331906   0.618   7.453   7.653  0.0781  0.3359 -0.0304
66569CHOL    R431907   0.450   7.686   7.713 -0.1945  0.0635  0.2891
66569CHOL    R531908   0.658   7.689   7.646 -0.2579  0.3988  0.0952
66569CHOL    C131909   0.691   7.875   7.978 -0.2090  0.2144  0.1940
66569CHOL    C231910   1.001   7.994   8.328  0.2012 -0.1239 -0.0433
66570CHOL   ROH31911   5.967  19.965  17.812  0.1905 -0.0020  0.0813
66570CHOL    R131912   6.191  20.069  17.675  0.1839 -0.0126  0.0622
66570CHOL    R231913   6.314  19.935  17.467  0.1633 -0.0215  0.0562
66570CHOL    R331914   6.270  20.168  17.334  0.1617 -0.0226  0.0542
66570CHOL    R431915   6.368  19.983  17.129 -0.0768 -0.0973  0.0061
66570CHOL    R531916   6.449  20.180  17.175  0.0447 -0.1244 -0.0860
66570CHOL    C131917   6.359  20.230  16.807 -0.2183 -0.1421 -0.0252
66570CHOL    C231918   6.311  20.270  16.410 -0.0573 -0.1454 -0.1448
66571CHOL   ROH31919   5.869  25.164  19.821  0.3236  0.0652  0.2589
66571CHOL    R131920   6.112  25.101  19.690  0.1421 -0.0864 -0.0092
66571CHOL    R231921   6.122  24.938  19.467 -0.2063 -0.0785 -0.0350
66571CHOL    R331922   6.254  25.150  19.358 -0.1833 -0.1569 -0.1609
66571CHOL    R431923   6.336  24.920  19.196  0.1369 -0.3372  0.2476
66571CHOL    R531924   6.468  25.062  19.296 -0.0594 -0.1326  0.2201
66571CHOL    C131925   6.583  25.108  18.936  0.3581 -0.5614  0.2941
66571CHOL    C231926   6.747  24.846  18.698 -0.0061  0.1650 -0.0550
66572CHOL   ROH31927   1.559  32.779  11.104 -0.0441  0.1085  0.0491
66572CHOL    R131928   1.323  32.699  11.238  0.0298 -0.0446  0.0883
66572CHOL    R231929   1.216  32.843  11.448  0.0083 -0.1505  0.1478
66572CHOL    R331930   0.991  32.837  11.295 -0.0288 -0.2295  0.2040
66572CHOL    R431931   0.894  32.886  11.567  0.0530  0.0977  0.1807
66572CHOL    R531932   0.828  32.728  11.432 -0.0383 -0.0237  0.3615
66572CHOL    C131933   0.496  32.906  11.493  0.0442  0.1690  0.2526
66572CHOL    C231934   0.041  32.930  11.358  0.1148  0.0315  0.1343
66573CHOL   ROH31935   5.401  21.503   8.207  0.0110  0.0700  0.2071
66573CHOL    R131936   5.291  21.307   8.378 -0.0787  0.0002  0.0710
66573CHOL    R231937   5.345  21.298   8.649  0.0783 -0.3318  0.0325
66573CHOL    R331938   5.075  21.302   8.671  0.0934 -0.0857  0.1976
66573CHOL    R431939   5.169  21.209   8.932  0.1572 -0.5304  0.0195
66573CHOL    R531940   5.023  21.110   8.804 -0.0207 -0.2125 -0.0277
66573CHOL    C131941   4.812  21.160   9.118  0.2173 -0.4147  0.1669
66573CHOL    C231942   4.635  21.272   9.451 -0.3377 -0.0044 -0.0836
66574CHOL   ROH31943  23.181  27.724   9.805  0.0024 -0.2800 -0.0934
66574CHOL    R131944  22.970  27.764   9.620 -0.2087 -0.0669  0.1886
66574CHOL    R231945  22.933  27.602   9.400 -0.3194  0.3195 -0.0811
66574CHOL    R331946  22.682  27.576   9.502 -0.2037 -0.0335  0.1219
66574CHOL    R431947  22.667  27.453   9.236 -0.2979  0.1442  0.0422
66574CHOL    R531948  22.537  27.610   9.314 -0.4065 -0.0542  0.2721
66574CHOL    C131949  22.277  27.342   9.238 -0.1770 -0.2889  0.3046
66574CHOL    C231950  22.008  27.035   9.197 -0.0876  0.1615 -0.0321
66575CHOL   ROH31951   0.432  23.466   9.120  0.1543  0.0805  0.1149
66575CHOL    R131952   0.567  23.715   9.108  0.1890  0.0612  0.1048
66575CHOL    R231953   0.842  23.735   9.099  0.1846  0.0151 -0.1154
66575CHOL    R331954   0.791  23.884   8.877  0.0277  0.1153 -0.0136
66575CHOL    R431955   1.024  24.012   9.000  0.2663 -0.0843 -0.2458
66575CHOL    R531956   0.837  24.109   8.944  0.2657  0.0647  0.0012
66575CHOL    C131957   1.083  24.312   8.734  0.1666 -0.0480 -0.2264
66575CHOL    C231958   1.192  24.569   8.411 -0.0356  0.0903  0.0821
66576CHOL   ROH31959   3.500   9.148  14.297  0.1581  0.2390  0.0203
66576CHOL    R131960   3.775   9.180  14.238  0.1284  0.1786 -0.1534
66576CHOL    R231961   3.963   8.984  14.293  0.1827  0.3011  0.1133
66576CHOL    R331962   4.022   9.013  14.029  0.0641 -0.1549  0.0340
66576CHOL    R431963   4.257   8.880  14.144  0.2647  0.3638  0.2309
66576CHOL    R531964   4.256   9.063  14.025  0.0018  0.1287 -0.1386
66576CHOL    C131965   4.483   8.846  13.809  0.2012 -0.0279  0.2250
66576CHOL    C231966   4.814   8.971  13.811 -0.1032 -0.0642  0.2058
66577CHOL   ROH31967  11.170  35.044  19.496 -0.0125 -0.0223 -0.0503
66577CHOL    R131968  11.123  35.076  19.219  0.0246 -0.0805 -0.0629
66577CHOL    R231969  11.027  34.871  19.060 -0.2319 -0.0303  0.0262
66577CHOL    R331970  10.836  35.053  18.996 -0.0072  0.1817 -0.0509
66577CHOL    R431971  10.884  34.905  18.748 -0.3768 -0.1648  0.0771
66577CHOL    R531972  10.891  35.122  18.773 -0.0437 -0.1427 -0.1627
66577CHOL    C131973  10.621  35.096  18.506 -0.2500 -0.0440  0.0344
66577CHOL    C231974  10.368  35.133  18.192 -0.1320 -0.0523 -0.0085
66578CHOL   ROH31975   3.741  13.002   7.727 -0.0019  0.0484  0.1126
66578CHOL    R131976   3.475  13.087   7.774 -0.0405 -0.0386  0.0537
66578CHOL    R231977   3.282  12.921   7.880  0.0411 -0.0447  0.1925
66578CHOL    R331978   3.255  13.122   8.062 -0.0464  0.0875  0.0341
66578CHOL    R431979   3.028  12.944   8.114  0.1925 -0.1266  0.3668
66578CHOL    R531980   3.019  13.159   8.075 -0.0795 -0.1686  0.1816
66578CHOL    C131981   2.855  13.146   8.419  0.1986 -0.0501  0.3197
66578CHOL    C231982   2.638  12.937   8.577  0.0131 -0.0690  0.1105
66579CHOL   ROH31983  19.447  17.473  11.511 -0.0947  0.3388  0.0776
66579CHOL    R131984  19.634  17.649  11.629 -0.0467  0.0523  0.4361
66579CHOL    R231985  19.758  17.595  11.870  0.2580 -0.6706  0.1300
66579CHOL    R331986  19.985  17.637  11.726  0.0735 -0.0968 -0.0061
66579CHOL    R431987  20.065  17.679  12.005  0.2819 -0.5590  0.0071
66579CHOL    R531988  20.095  17.817  11.840 -0.0469 -0.1842  0.2535
66579CHOL    C131989  20.457  17.767  11.949  0.1228  0.0445 -0.1918
66579CHOL    C231990  20.621  18.191  11.921 -0.3624  0.0980  0.1359
66580CHOL   ROH31991  20.756  15.654   9.454  0.1959 -0.2193  0.2162
66580CHOL    R131992  21.010  15.655   9.331  0.1608 -0.0711  0.1446
66580CHOL    R231993  21.155  15.887   9.290  0.0574  0.0017  0.1921
66580CHOL    R331994  21.349  15.751   9.423  0.1497  0.0276  0.0851
66580CHOL    R431995  21.494  15.925   9.238  0.0278  0.1705  0.1221
66580CHOL    R531996  21.517  15.709   9.258  0.1259  0.1707  0.0242
66580CHOL    C131997  21.874  15.820   9.332  0.0971  0.2930 -0.0189
66580CHOL    C231998  22.131  16.085   9.519 -0.1025 -0.1346 -0.1569
66581CHOL   ROH31999   6.134   8.326  17.116  0.3136  0.2565 -0.0511
66581CHOL    R132000   6.215   8.331  16.844  0.2351  0.2163 -0.0769
66581CHOL    R232001   6.435   8.472  16.757  0.1987  0.2289 -0.1694
66581CHOL    R332002   6.508   8.231  16.654  0.1923  0.2152 -0.1384
66581CHOL    R432003   6.720   8.416  16.569  0.3029  0.1421  0.0145
66581CHOL    R532004   6.603   8.285  16.440  0.3511  0.1926 -0.0685
66581CHOL    C132005   6.954   8.157  16.362  0.3577  0.0789  0.1508
66581CHOL    C232006   7.273   8.020  16.239  0.0158  0.0008  0.1025
66582CHOL   ROH32007  13.011   4.014  13.793 -0.0423 -0.2893  0.0480
66582CHOL    R132008  13.148   3.991  14.039 -0.0035 -0.1589  0.0389
66582CHOL    R232009  13.382   4.128  14.093 -0.0305 -0.0801 -0.0462
66582CHOL    R332010  13.243   4.214  14.311 -0.0217 -0.0291 -0.0605
66582CHOL    R432011  13.520   4.293  14.363 -0.0248  0.0162 -0.1076
66582CHOL    R532012  13.392   4.176  14.495 -0.0018  0.0417 -0.0615
66582CHOL    C132013  13.471   4.470  14.725 -0.0131  0.1200 -0.1571
66582CHOL    C232014  13.520   4.381  15.102 -0.0123 -0.1766 -0.0499
66583CHOL   ROH32015  31.027  26.096   7.327 -0.0346  0.0886 -0.0977
66583CHOL    R132016  31.043  26.251   7.091 -0.0706  0.0505 -0.1258
66583CHOL    R232017  31.143  26.508   7.088 -0.1971  0.1014 -0.1595
66583CHOL    R332018  31.306  26.409   6.895 -0.1142  0.1421 -0.1099
66583CHOL    R432019  31.258  26.687   6.815 -0.1783  0.1190 -0.1396
66583CHOL    R532020  31.227  26.509   6.692 -0.0891  0.1043 -0.1366
66583CHOL    C132021  31.478  26.697   6.475 -0.0891  0.1676 -0.0814
66583CHOL    C232022  31.577  27.028   6.426  0.0043 -0.0985  0.0419
66584CHOL   ROH32023  25.839  33.381   9.925  0.0945  0.0700  0.0067
66584CHOL    R132024  25.947  33.419   9.666  0.0668  0.1011 -0.0001
66584CHOL    R232025  25.810  33.355   9.436  0.0444  0.1257  0.0081
66584CHOL    R332026  25.863  33.613   9.370  0.0329  0.1340  0.0299
66584CHOL    R432027  25.776  33.489   9.119 -0.1410  0.1961  0.0568
66584CHOL    R532028  25.961  33.600   9.151 -0.1060  0.1682 -0.0358
66584CHOL    C132029  25.806  33.809   8.873 -0.2595  0.2447  0.1060
66584CHOL    C232030  25.513  33.747   8.658  0.1092 -0.0570 -0.2880
66585CHOL   ROH32031   2.424  19.793   8.628  0.2136 -0.0497  0.1301
66585CHOL    R132032   2.531  19.595   8.455  0.1439 -0.0441  0.0807
66585CHOL    R232033   2.580  19.642   8.188  0.1605  0.0061  0.0934
66585CHOL    R332034   2.830  19.556   8.251  0.1304 -0.0989  0.0710
66585CHOL    R432035   2.842  19.616   7.964  0.2495  0.3189  0.1587
66585CHOL    R532036   2.899  19.429   8.060  0.2007  0.1736 -0.0894
66585CHOL    C132037   3.230  19.520   7.894  0.2732  0.4020  0.1754
66585CHOL    C232038   3.665  19.407   7.903  0.4067 -0.0682 -0.0034
66586CHOL   ROH32039   1.292   7.075  11.595 -0.0453  0.1570  0.0701
66586CHOL    R132040   1.428   7.102  11.348 -0.0777  0.0348  0.0384
66586CHOL    R232041   1.691   7.186  11.332 -0.0958  0.0765 -0.0403
66586CHOL    R332042   1.721   6.956  11.190 -0.0661 -0.0034  0.0949
66586CHOL    R432043   1.973   7.101  11.150 -0.0950  0.0176 -0.0120
66586CHOL    R532044   1.842   7.022  10.994 -0.0932 -0.0989  0.0454
66586CHOL    C132045   2.165   6.836  10.911 -0.0666 -0.0917  0.1316
66586CHOL    C232046   2.495   6.870  10.735 -0.0342 -0.0701  0.0138
66587CHOL   ROH32047   5.468  30.363  15.568  0.0214 -0.1874  0.0405
66587CHOL    R132048   5.299  30.425  15.786  0.0515 -0.0875  0.0356
66587CHOL    R232049   5.031  30.484  15.754  0.0656 -0.0226  0.0373
66587CHOL    R332050   4.998  30.284  15.935  0.0225  0.0312  0.0892
66587CHOL    R432051   4.742  30.428  15.936  0.0936  0.1564  0.1383
66587CHOL    R532052   4.867  30.383  16.109  0.1245  0.1316  0.1093
66587CHOL    C132053   4.543  30.208  16.212  0.0694  0.3114  0.2457
66587CHOL    C232054   4.186  30.132  16.385 -0.0978 -0.0632  0.5468
66588CHOL   ROH32055  29.395  12.586   4.101 -0.0281 -0.1489 -0.1383
66588CHOL    R132056  29.362  12.625   3.822  0.0677 -0.2392 -0.1624
66588CHOL    R232057  29.410  12.426   3.638 -0.0518 -0.3573 -0.0672
66588CHOL    R332058  29.157  12.482   3.558  0.0123 -0.1842 -0.1490
66588CHOL    R432059  29.291  12.383   3.316  0.0360 -0.2281 -0.1174
66588CHOL    R532060  29.183  12.572   3.337  0.1472 -0.1633 -0.1251
66588CHOL    C132061  28.983  12.412   3.054  0.1472  0.0097 -0.2235
66588CHOL    C232062  28.700  12.168   2.956 -0.1846  0.1292  0.0138
66589CHOL   ROH32063  32.841  26.929   9.202  0.1075  0.1067  0.1279
66589CHOL    R132064  33.049  27.042   9.047  0.0172  0.1825  0.0617
66589CHOL    R232065  33.207  26.891   8.878  0.2420  0.1786  0.2702
66589CHOL    R332066  33.128  27.074   8.694  0.0742 -0.1152  0.0453
66589CHOL    R432067  33.381  26.969   8.590  0.3265  0.2047  0.3286
66589CHOL    R532068  33.332  27.179   8.623 -0.0435  0.1558  0.1034
66589CHOL    C132069  33.408  27.186   8.249  0.2188 -0.0559  0.1516
66589CHOL    C232070  33.374  27.061   7.911  0.0484  0.0622 -0.2288
66590CHOL   ROH32071  33.083  17.504   3.176  0.0764  0.3051 -0.0337
66590CHOL    R132072  33.323  17.359   3.138 -0.0454  0.0793  0.0533
66590CHOL    R232073  33.543  17.465   3.010  0.0257 -0.2028 -0.0645
66590CHOL    R332074  33.671  17.392   3.239 -0.0049 -0.1194 -0.0207
66590CHOL    R432075  33.884  17.412   3.037  0.0031 -0.3298 -0.0346
66590CHOL    R532076  33.842  17.240   3.165 -0.0687 -0.2357  0.0693
66590CHOL    C132077  34.202  17.312   3.267 -0.0378 -0.3257  0.0239
66590CHOL    C232078  34.557  17.501   3.292  0.2773 -0.1194 -0.0609
66591CHOL   ROH32079  13.607   1.189  17.766  0.0529  0.3718 -0.0492
66591CHOL    R132080  13.430   1.022  17.621 -0.0882  0.2904  0.2142
66591CHOL    R232081  13.267   1.117  17.420 -0.1543  0.1455  0.2002
66591CHOL    R332082  13.386   0.921  17.274 -0.3090 -0.0528  0.3393
66591CHOL    R432083  13.129   0.967  17.141 -0.1061  0.3422  0.0683
66591CHOL    R532084  13.206   0.775  17.213 -0.4767  0.2232  0.1652
66591CHOL    C132085  13.160   0.694  16.843 -0.2230  0.2706  0.1221
66591CHOL    C232086  12.819   0.585  16.682  0.1606 -0.0692 -0.0198
66592CHOL   ROH32087   4.753  34.592  14.218 -0.0791  0.0913 -0.0353
66592CHOL    R132088   4.641  34.800  14.374  0.2683  0.2007  0.0740
66592CHOL    R232089   4.392  34.780  14.492  0.0370  0.7187 -0.3053
66592CHOL    R332090   4.530  34.843  14.718 -0.0983  0.0500 -0.0238
66592CHOL    R432091   4.249  34.835  14.801 -0.2436  0.6729 -0.4253
66592CHOL    R532092   4.389  35.000  14.831  0.1562  0.2708 -0.0088
66592CHOL    C132093   4.294  34.926  15.194 -0.5341  0.0188 -0.2309
66592CHOL    C232094   4.059  34.941  15.430  0.1190  0.0070 -0.2680
66593CHOL   ROH32095  26.377   8.659   8.121 -0.0277 -0.1376  0.1718
66593CHOL    R132096  26.134   8.608   7.985 -0.0088 -0.0678  0.1111
66593CHOL    R232097  26.063   8.740   7.753  0.0627 -0.0087  0.1222
66593CHOL    R332098  26.035   8.487   7.657  0.0379  0.0152  0.0661
66593CHOL    R432099  25.915   8.658   7.451  0.2491  0.0889  0.0039
66593CHOL    R532100  25.821   8.488   7.548  0.1158  0.1096 -0.0880
66593CHOL    C132101  25.803   8.374   7.185  0.3354  0.1682 -0.1176
66593CHOL    C232102  25.495   8.374   7.117  0.2762  0.1072  0.2728
66594CHOL   ROH32103   2.594  30.711  17.061  0.0847 -0.0611 -0.0091
66594CHOL    R132104   2.780  30.756  16.853  0.0556  0.0538 -0.0103
66594CHOL    R232105   2.777  30.612  16.617  0.1867  0.0016  0.0188
66594CHOL    R332106   2.768  30.860  16.504 -0.0186 -0.0285 -0.0322
66594CHOL    R432107   2.972  30.716  16.351  0.1385  0.1266  0.0317
66594CHOL    R532108   2.996  30.909  16.450 -0.0536  0.1680 -0.0032
66594CHOL    C132109   3.077  31.009  16.091 -0.0822  0.1711 -0.0086
66594CHOL    C232110   3.232  31.161  15.728 -0.0023  0.0131  0.0363
66595CHOL   ROH32111   2.977   9.995  12.536 -0.0099  0.1501 -0.2635
66595CHOL    R132112   3.135   9.929  12.311 -0.0262 -0.1347 -0.1939
66595CHOL    R232113   3.394  10.019  12.280 -0.0901 -0.0239 -0.4094
66595CHOL    R332114   3.448   9.754  12.249  0.0676 -0.0467  0.0254
66595CHOL    R432115   3.701   9.889  12.188 -0.1318  0.0455 -0.6495
66595CHOL    R532116   3.597   9.745  12.062 -0.2265 -0.2914 -0.2033
66595CHOL    C132117   3.930   9.565  12.105 -0.0080  0.0642 -0.3812
66595CHOL    C232118   4.276   9.681  12.083 -0.0034 -0.2364 -0.1929
66596CHOL   ROH32119   1.899  28.714  16.758  0.3853 -0.0805  0.2147
66596CHOL    R132120   2.117  28.720  16.577  0.3336 -0.1209  0.1503
66596CHOL    R232121   2.165  28.518  16.395  0.1471 -0.0518  0.0227
66596CHOL    R332122   2.161  28.723  16.216  0.2223  0.0510  0.1380
66596CHOL    R432123   2.291  28.502  16.074  0.0340  0.0460 -0.0271
66596CHOL    R532124   2.369  28.704  16.100  0.1729 -0.0189  0.0612
66596CHOL    C132125   2.361  28.685  15.719  0.0388  0.1989  0.0528
66596CHOL    C232126   2.488  28.942  15.522 -0.1770  0.1513 -0.1731
66597CHOL   ROH32127  14.274   0.818  13.179 -0.0301 -0.0563  0.1030
66597CHOL    R132128  14.393   0.765  13.431  0.1978  0.0328  0.0149
66597CHOL    R232129  14.632   0.878  13.509  0.0485  0.4084 -0.0657
66597CHOL    R332130  14.487   0.958  13.724  0.0269  0.0640  0.0500
66597CHOL    R432131  14.767   0.994  13.805  0.0138  0.5197 -0.0925
66597CHOL    R532132  14.614   0.881  13.913  0.2682  0.2043 -0.0530
66597CHOL    C132133  14.710   1.135  14.181 -0.0268  0.2611  0.0003
66597CHOL    C232134  14.982   1.245  14.440 -0.0992 -0.1456  0.1192
66598CHOL   ROH32135  16.935  29.761  18.950  0.0158  0.2018 -0.2996
66598CHOL    R132136  16.675  29.732  18.842  0.0294  0.2579 -0.3489
66598CHOL    R232137  16.581  29.888  18.635  0.1762  0.1382 -0.5091
66598CHOL    R332138  16.530  29.647  18.519  0.0768  0.0680 -0.3208
66598CHOL    R432139  16.356  29.836  18.378 -0.0004 -0.0101 -0.3262
66598CHOL    R532140  16.295  29.651  18.475  0.0477  0.0587 -0.1663
66598CHOL    C132141  16.178  29.580  18.119 -0.1972 -0.1631 -0.0430
66598CHOL    C232142  15.827  29.701  18.157  0.0419 -0.0903 -0.1043
66599CHOL   ROH32143  17.995   7.575  13.496 -0.0129 -0.0299  0.0572
66599CHOL    R132144  18.107   7.626  13.751  0.0319  0.0711  0.0173
66599CHOL    R232145  17.953   7.666  13.976  0.0760 -0.0778  0.0726
66599CHOL    R332146  18.106   7.466  14.077  0.3015  0.0636  0.0160
66599CHOL    R432147  17.973   7.583  14.311  0.0174 -0.2697  0.0297
66599CHOL    R532148  18.188   7.552  14.285  0.0765  0.0421  0.1163
66599CHOL    C132149  18.129   7.347  14.601  0.1949 -0.2486 -0.0485
66599CHOL    C232150  18.019   7.425  14.876  0.2267 -0.1463  0.2345
66600CHOL   ROH32151   5.736  15.598  11.651 -0.1608 -0.0581  0.0727
66600CHOL    R132152   5.456  15.591  11.694 -0.1411 -0.2964  0.1737
66600CHOL    R232153   5.341  15.447  11.899  0.0949 -0.0067  0.5192
66600CHOL    R332154   5.227  15.686  11.961 -0.1635 -0.0021  0.0519
66600CHOL    R432155   5.060  15.487  12.097  0.2047  0.0897  0.6561
66600CHOL    R532156   4.992  15.642  11.960 -0.1106 -0.3140  0.3435
66600CHOL    C132157   4.791  15.735  12.270  0.0261  0.1503  0.2969
66600CHOL    C232158   4.393  15.776  12.146  0.4609  0.4270 -0.0879
66601CHOL   ROH32159  26.752  21.741   2.101  0.0517  0.1523  0.2170
66601CHOL    R132160  26.950  21.683   2.295  0.0919 -0.0122  0.1273
66601CHOL    R232161  27.078  21.438   2.308  0.1197 -0.0134 -0.1280
66601CHOL    R332162  27.302  21.591   2.293  0.1010  0.0243 -0.0233
66601CHOL    R432163  27.401  21.317   2.326  0.1331  0.0317 -0.0688
66601CHOL    R532164  27.453  21.489   2.449  0.0721  0.0067 -0.0080
66601CHOL    C132165  27.799  21.389   2.323  0.1235  0.0936  0.0640
66601CHOL    C232166  28.090  21.273   2.575 -0.2344  0.0051  0.1558
66602CHOL   ROH32167   8.534   0.840  16.173  0.1526 -0.0974 -0.0197
66602CHOL    R132168   8.307   0.851  16.343  0.1867 -0.3288  0.0441
66602CHOL    R232169   8.312   0.761  16.604  0.4606  0.0084  0.1620
66602CHOL    R332170   8.222   1.011  16.658 -0.0129 -0.0937 -0.1278
66602CHOL    R432171   8.154   0.853  16.897  0.5375  0.1139  0.1698
66602CHOL    R532172   8.017   0.975  16.778  0.1701 -0.3453  0.1125
66602CHOL    C132173   7.977   1.143  17.119  0.1373  0.0794 -0.0972
66602CHOL    C232174   7.732   1.222  17.368 -0.1847 -0.2994  0.2092
66603CHOL   ROH32175  12.212  26.002  21.593  0.0588 -0.1581  0.1821
66603CHOL    R132176  12.229  25.843  21.360 -0.0044 -0.0286  0.0883
66603CHOL    R232177  12.097  25.907  21.125 -0.0092  0.1401  0.1375
66603CHOL    R332178  12.346  25.886  21.018 -0.0250  0.1365  0.1014
66603CHOL    R432179  12.167  25.905  20.787 -0.0862 -0.1335  0.1228
66603CHOL    R532180  12.316  25.750  20.823 -0.0200 -0.0479  0.2277
66603CHOL    C132181  12.441  25.884  20.489 -0.1458 -0.2963  0.0801
66603CHOL    C232182  12.443  25.695  20.222 -0.2245  0.1444  0.0452
66604CHOL   ROH32183  17.146  26.281  19.775  0.0308 -0.1633  0.0448
66604CHOL    R132184  17.090  26.270  19.498  0.1163 -0.0660  0.0235
66604CHOL    R232185  16.851  26.360  19.391  0.0953 -0.1503 -0.0031
66604CHOL    R332186  17.015  26.509  19.234  0.0566  0.0155  0.1136
66604CHOL    R432187  16.745  26.572  19.140  0.0624 -0.3380 -0.1484
66604CHOL    R532188  16.912  26.504  19.018  0.2600 -0.1614  0.0196
66604CHOL    C132189  16.836  26.836  18.846  0.0071 -0.2916 -0.1236
66604CHOL    C232190  16.836  26.805  18.507 -0.1232  0.1324 -0.1542
66605CHOL   ROH32191  26.108   6.821   4.227 -0.2139 -0.1677  0.2037
66605CHOL    R132192  26.025   6.975   4.450  0.1509 -0.1007  0.2979
66605CHOL    R232193  26.184   7.014   4.672  0.5700  0.0746 -0.0271
66605CHOL    R332194  26.136   7.277   4.619  0.3524  0.0293 -0.0601
66605CHOL    R432195  26.208   7.269   4.904  0.1541  0.0983 -0.0071
66605CHOL    R532196  26.029   7.358   4.817  0.1291 -0.0755 -0.1369
66605CHOL    C132197  26.177   7.664   4.990 -0.2921  0.0694 -0.0265
66605CHOL    C232198  25.909   7.854   5.156  0.0205  0.1055  0.1832
66606CHOL   ROH32199  33.215   6.273   6.047 -0.1654  0.1947 -0.1545
66606CHOL    R132200  33.057   6.333   6.274 -0.0835  0.1434 -0.0839
66606CHOL    R232201  33.161   6.456   6.499  0.0196  0.0040 -0.0534
66606CHOL    R332202  32.958   6.633   6.456  0.0690  0.0937  0.0818
66606CHOL    R432203  32.995   6.631   6.747  0.0660 -0.1411  0.0808
66606CHOL    R532204  32.809   6.597   6.640  0.0580 -0.0066  0.0534
66606CHOL    C132205  32.709   6.899   6.851  0.1395 -0.1414  0.2860
66606CHOL    C232206  32.552   7.149   7.068 -0.1660 -0.1785 -0.0281
66607CHOL   ROH32207   6.042  22.890  19.448  0.0838  0.0648  0.0787
66607CHOL    R132208   6.118  23.063  19.236  0.0078 -0.1410 -0.1177
66607CHOL    R232209   6.349  23.213  19.243 -0.1748  0.1464 -0.1834
66607CHOL    R332210   6.397  23.090  19.005  0.1189 -0.1331  0.0164
66607CHOL    R432211   6.601  23.300  19.023 -0.2647  0.2722 -0.2369
66607CHOL    R532212   6.462  23.268  18.858 -0.1611 -0.2337 -0.2346
66607CHOL    C132213   6.793  23.236  18.672 -0.0413  0.0833 -0.0806
66607CHOL    C232214   7.150  23.337  18.560 -0.0246  0.0529 -0.0715
66608CHOL   ROH32215  22.193  28.538   6.922  0.0004 -0.1268  0.0306
66608CHOL    R132216  22.288  28.672   7.152 -0.0525 -0.2710  0.1369
66608CHOL    R232217  22.406  28.539   7.364  0.1761 -0.3721 -0.0517
66608CHOL    R332218  22.608  28.716   7.320 -0.0316 -0.1062  0.0545
66608CHOL    R432219  22.694  28.561   7.554  0.2277 -0.2636 -0.1420
66608CHOL    R532220  22.680  28.779   7.540 -0.0135 -0.2602  0.0927
66608CHOL    C132221  23.050  28.741   7.625  0.0632  0.0494 -0.0949
66608CHOL    C232222  23.334  28.723   7.941 -0.0718 -0.1095  0.2767
66609CHOL   ROH32223  12.755  24.410  18.551 -0.0994  0.0541 -0.1271
66609CHOL    R132224  12.631  24.409  18.805 -0.1039  0.1837 -0.1284
66609CHOL    R232225  12.746  24.289  19.026 -0.3084 -0.0846 -0.1657
66609CHOL    R332226  12.710  24.534  19.138  0.1092 -0.0552 -0.0876
66609CHOL    R432227  12.613  24.344  19.340 -0.4204  0.0504 -0.2361
66609CHOL    R532228  12.504  24.514  19.258 -0.0195  0.3113 -0.2430
66609CHOL    C132229  12.502  24.607  19.629 -0.0936  0.1566 -0.2044
66609CHOL    C232230  12.544  24.375  19.943  0.1064  0.4034  0.2586
66610CHOL   ROH32231   7.063  23.250  15.384  0.0799  0.2525 -0.3831
66610CHOL    R132232   6.797  23.159  15.355  0.1225  0.0820 -0.2540
66610CHOL    R232233   6.591  23.326  15.274 -0.0597 -0.0022  0.0279
66610CHOL    R332234   6.555  23.134  15.084 -0.0613  0.1177 -0.0943
66610CHOL    R432235   6.284  23.215  15.161 -0.0630 -0.0570  0.0900
66610CHOL    R532236   6.363  23.012  15.159  0.0268 -0.0219 -0.0931
66610CHOL    C132237   6.070  22.971  14.918 -0.0664  0.0238  0.0115
66610CHOL    C232238   5.744  23.095  14.750  0.3830 -0.4069 -0.2559
66611CHOL   ROH32239  31.576   2.774  10.955  0.3911  0.2523 -0.0363
66611CHOL    R132240  31.498   2.636  10.720  0.1732 -0.0243  0.1951
66611CHOL    R232241  31.641   2.651  10.484 -0.1305 -0.1720 -0.0014
66611CHOL    R332242  31.639   2.380  10.504  0.0489 -0.1553  0.2689
66611CHOL    R432243  31.729   2.433  10.230 -0.0675 -0.3693  0.1879
66611CHOL    R532244  31.563   2.305  10.290  0.0326 -0.4179  0.3648
66611CHOL    C132245  31.778   2.052  10.101  0.1385 -0.4684  0.5519
66611CHOL    C232246  32.130   1.930   9.938  0.1210  0.0123  0.0030
66612CHOL   ROH32247   4.158  11.128  11.210 -0.1084 -0.2635 -0.0457
66612CHOL    R132248   3.886  11.091  11.143 -0.0981 -0.2247 -0.1093
66612CHOL    R232249   3.800  11.055  10.883 -0.0306 -0.3131 -0.1192
66612CHOL    R332250   3.686  10.831  10.985 -0.1160 -0.2421 -0.0583
66612CHOL    R432251   3.567  10.861  10.718  0.0223 -0.3641 -0.1346
66612CHOL    R532252   3.459  10.839  10.907 -0.0760 -0.2481 -0.1767
66612CHOL    C132253   3.323  10.537  10.719 -0.0270 -0.3269 -0.0864
66612CHOL    C232254   3.149  10.256  10.737  0.1086  0.1955  0.2691
66613CHOL   ROH32255   2.940  17.402  11.829  0.0638  0.1087 -0.1478
66613CHOL    R132256   3.180  17.316  11.705  0.1206 -0.0973  0.1016
66613CHOL    R232257   3.250  17.050  11.687 -0.2243 -0.1803 -0.0677
66613CHOL    R332258   3.270  17.107  11.422  0.2252  0.0646  0.0148
66613CHOL    R432259   3.429  16.863  11.458 -0.2328 -0.2443 -0.0216
66613CHOL    R532260   3.496  17.049  11.366  0.2063 -0.2573  0.2582
66613CHOL    C132261   3.553  16.808  11.076  0.1841 -0.0526  0.0826
66613CHOL    C232262   3.820  16.623  10.773  0.2837 -0.1462  0.0700
66614CHOL   ROH32263  27.462  13.856   4.617  0.2509 -0.0968  0.0398
66614CHOL    R132264  27.361  13.660   4.439  0.3128 -0.1008  0.0090
66614CHOL    R232265  27.144  13.706   4.275  0.1293 -0.2347  0.2116
66614CHOL    R332266  27.316  13.629   4.079  0.0543  0.0599  0.0266
66614CHOL    R432267  27.059  13.666   3.942 -0.1076 -0.1718  0.2636
66614CHOL    R532268  27.184  13.488   3.937  0.0971 -0.0243  0.0709
66614CHOL    C132269  27.171  13.570   3.565 -0.3159  0.1416  0.1202
66614CHOL    C232270  27.349  13.740   3.222  0.0714  0.1451  0.1953
66615CHOL   ROH32271  24.013  35.114  10.946  0.2027  0.4071 -0.0745
66615CHOL    R132272  23.821  34.985  10.784  0.2455  0.1640  0.0662
66615CHOL    R232273  23.680  35.116  10.586 -0.1004  0.0000  0.1980
66615CHOL    R332274  23.777  34.917  10.429  0.0478  0.1535  0.0922
66615CHOL    R432275  23.590  35.062  10.257 -0.0866  0.0828  0.1802
66615CHOL    R532276  23.589  34.848  10.298  0.0917  0.0633  0.0772
66615CHOL    C132277  23.628  34.843   9.918  0.0607  0.2762  0.0707
66615CHOL    C232278  23.575  34.832   9.645 -0.0024  0.0592  0.4442
66616CHOL   ROH32279  31.907  28.083   9.708  0.0857 -0.1270  0.1851
66616CHOL    R132280  32.119  28.124   9.525 -0.1007 -0.1131 -0.0297
66616CHOL    R232281  32.076  28.188   9.260 -0.3711  0.1148  0.0664
66616CHOL    R332282  32.239  28.398   9.317 -0.1812 -0.0241  0.0396
66616CHOL    R432283  32.351  28.281   9.073 -0.3426 -0.0986  0.0017
66616CHOL    R532284  32.458  28.321   9.259 -0.2605 -0.2014 -0.0237
66616CHOL    C132285  32.665  28.532   9.018 -0.1470 -0.3540 -0.0609
66616CHOL    C232286  32.722  28.526   8.625 -0.0275 -0.1374 -0.3728
66617CHOL   ROH32287   5.768   6.892  12.678  0.0063  0.1346 -0.1841
66617CHOL    R132288   5.511   7.003  12.721 -0.0325  0.0268 -0.1373
66617CHOL    R232289   5.278   6.872  12.650  0.0062 -0.1096 -0.0138
66617CHOL    R332290   5.213   6.914  12.911  0.0730 -0.0497 -0.0066
66617CHOL    R432291   4.962   6.830  12.784  0.0371 -0.0643  0.0741
66617CHOL    R532292   4.994   7.011  12.902  0.0758 -0.0403  0.0271
66617CHOL    C132293   4.717   6.846  13.106  0.1180  0.0183  0.1321
66617CHOL    C232294   4.294   6.881  12.939  0.0198  0.1055 -0.0747
66618CHOL   ROH32295  12.761  15.287  17.727 -0.2238  0.1818  0.1243
66618CHOL    R132296  12.856  15.417  17.495  0.0734  0.0491  0.1694
66618CHOL    R232297  12.700  15.591  17.348  0.1527 -0.2692 -0.3056
66618CHOL    R332298  12.910  15.760  17.387 -0.1044  0.0016 -0.0753
66618CHOL    R432299  12.789  15.848  17.134  0.2525 -0.3630 -0.3769
66618CHOL    R532300  12.999  15.797  17.168  0.2546 -0.0999  0.0507
66618CHOL    C132301  13.038  16.156  17.047  0.0695 -0.1635 -0.2027
66618CHOL    C232302  13.246  16.335  16.785  0.0343  0.2410 -0.2667
66619CHOL   ROH32303  34.444   5.666  10.635 -0.1790  0.0491 -0.0281
66619CHOL    R132304  34.559   5.460  10.479 -0.2014  0.0537 -0.0511
66619CHOL    R232305  34.567   5.468  10.203  0.0018  0.1909 -0.0428
66619CHOL    R332306  34.833   5.430  10.242 -0.0502 -0.0012  0.1297
66619CHOL    R432307  34.791   5.377   9.956  0.1167  0.1426  0.0784
66619CHOL    R532308  34.888   5.245  10.100 -0.0721  0.0204  0.0935
66619CHOL    C132309  35.171   5.288   9.849  0.1346 -0.0659  0.3111
66619CHOL    C232310   0.005   5.468   9.616 -0.2244 -0.2461 -0.1954
66620CHOL   ROH32311   9.142   6.544  14.956  0.0204 -0.3552 -0.0991
66620CHOL    R132312   9.196   6.425  15.207  0.0131 -0.1679 -0.0070
66620CHOL    R232313   9.303   6.565  15.419 -0.2621  0.0600 -0.0174
66620CHOL    R332314   9.085   6.469  15.551 -0.2304 -0.1146 -0.0914
66620CHOL    R432315   9.280   6.527  15.762 -0.1945 -0.3509 -0.0563
66620CHOL    R532316   9.177   6.338  15.729 -0.1861 -0.3215 -0.2633
66620CHOL    C132317   9.063   6.415  16.085 -0.1256 -0.7539 -0.1482
66620CHOL    C232318   9.149   6.657  16.339  0.0081 -0.1899 -0.0362
66621CHOL   ROH32319   3.203  11.484   7.464  0.1929 -0.1158 -0.0060
66621CHOL    R132320   2.989  11.656   7.533  0.2148 -0.0745 -0.0411
66621CHOL    R232321   2.725  11.574   7.528  0.1858  0.0292 -0.2584
66621CHOL    R332322   2.726  11.663   7.784  0.0563 -0.1238 -0.2036
66621CHOL    R432323   2.443  11.626   7.720  0.0837 -0.0078 -0.3974
66621CHOL    R532324   2.535  11.807   7.798  0.0874 -0.0792 -0.2337
66621CHOL    C132325   2.279  11.740   8.073 -0.0974 -0.1728 -0.4270
66621CHOL    C232326   1.944  11.639   8.168  0.0047 -0.1261  0.0032
66622CHOL   ROH32327  19.849  13.454  15.700  0.0674  0.0034  0.0139
66622CHOL    R132328  19.713  13.576  15.485  0.1118  0.0558  0.0158
66622CHOL    R232329  19.696  13.460  15.235 -0.0010  0.0271  0.0375
66622CHOL    R332330  19.429  13.497  15.272  0.0275  0.2030  0.0727
66622CHOL    R432331  19.466  13.507  14.981 -0.0521 -0.1760  0.0450
66622CHOL    R532332  19.367  13.657  15.105  0.0574  0.0278 -0.1097
66622CHOL    C132333  19.082  13.570  14.868 -0.0554 -0.1289  0.0826
66622CHOL    C232334  19.053  13.523  14.598  0.0678  0.0334  0.2119
66623CHOL   ROH32335  26.946  19.742   4.211 -0.1292 -0.2530  0.0863
66623CHOL    R132336  26.987  19.754   3.931 -0.0597 -0.1648  0.0999
66623CHOL    R232337  26.933  19.542   3.764  0.0419 -0.1339  0.0265
66623CHOL    R332338  26.782  19.725   3.632  0.0257 -0.1391  0.0389
66623CHOL    R432339  26.832  19.514   3.434  0.1196 -0.0771 -0.0021
66623CHOL    R532340  26.871  19.727   3.410  0.0725 -0.0624  0.0590
66623CHOL    C132341  26.630  19.670   3.119  0.1492 -0.0491 -0.0072
66623CHOL    C232342  26.599  19.812   2.763  0.1946 -0.0694  0.2568
66624CHOL   ROH32343  15.778   0.515  16.458 -0.0766  0.1137 -0.0847
66624CHOL    R132344  15.643   0.353  16.269 -0.0133  0.0866 -0.1062
66624CHOL    R232345  15.384   0.403  16.188 -0.0138  0.0269 -0.1384
66624CHOL    R332346  15.494   0.398  15.940  0.0186  0.0592 -0.1247
66624CHOL    R432347  15.233   0.269  15.907  0.0590 -0.0179 -0.1563
66624CHOL    R532348  15.426   0.187  15.849  0.0914  0.0384 -0.1328
66624CHOL    C132349  15.249   0.187  15.511  0.1320 -0.0137 -0.1544
66624CHOL    C232350  15.025  35.213  15.489  0.1527 -0.2413 -0.2024
66625CHOL   ROH32351   0.697   6.324  11.331  0.3150  0.2326 -0.1949
66625CHOL    R132352   0.861   6.134  11.199  0.3330  0.0935  0.0243
66625CHOL    R232353   0.913   6.146  10.928  0.2631 -0.2653 -0.0071
66625CHOL    R332354   1.172   6.140  11.011  0.2852 -0.0820 -0.0612
66625CHOL    R432355   1.186   6.111  10.719  0.2448 -0.0762 -0.0639
66625CHOL    R532356   1.276   5.979  10.868  0.3689 -0.0110 -0.0808
66625CHOL    C132357   1.588   6.085  10.675  0.2549  0.2060 -0.1476
66625CHOL    C232358   1.660   6.175  10.271 -0.2032 -0.0977  0.1759
66626CHOL   ROH32359  35.141  19.222   2.030  0.0915  0.1653  0.0827
66626CHOL    R132360  34.928  19.122   2.187  0.0397  0.0751 -0.0445
66626CHOL    R232361  34.953  19.071   2.457 -0.0554 -0.0591 -0.0605
66626CHOL    R332362  34.737  19.234   2.475 -0.0713 -0.0791 -0.0571
66626CHOL    R432363  34.745  19.092   2.732 -0.0046 -0.0160 -0.0249
66626CHOL    R532364  34.575  19.105   2.595 -0.0332 -0.0683  0.0056
66626CHOL    C132365  34.420  19.257   2.909  0.0104 -0.0103 -0.0010
66626CHOL    C232366  34.124  19.430   2.961 -0.1369  0.4129 -0.2731
66627CHOL   ROH32367  27.294  11.958   4.937 -0.0769 -0.1283 -0.0485
66627CHOL    R132368  27.138  11.762   4.805 -0.1467 -0.0624 -0.0639
66627CHOL    R232369  27.047  11.794   4.546  0.0112 -0.0846 -0.1227
66627CHOL    R332370  27.170  11.555   4.507 -0.1370 -0.1852  0.0221
66627CHOL    R432371  26.973  11.574   4.290  0.0345 -0.0884 -0.1261
66627CHOL    R532372  26.995  11.410   4.432 -0.1907 -0.0724 -0.0723
66627CHOL    C132373  27.046  11.221   4.105 -0.0912 -0.1851  0.0080
66627CHOL    C232374  26.767  11.183   3.891  0.3004 -0.1455  0.2670
66628CHOL   ROH32375  29.546  26.703   2.936 -0.0776 -0.1587  0.1000
66628CHOL    R132376  29.448  26.631   3.192 -0.0832 -0.0956  0.1159
66628CHOL    R232377  29.262  26.430   3.228 -0.1288 -0.0470  0.1560
66628CHOL    R332378  29.449  26.333   3.401 -0.1434 -0.0630  0.1627
66628CHOL    R432379  29.196  26.216   3.491 -0.1362 -0.1495  0.0707
66628CHOL    R532380  29.337  26.328   3.613 -0.1869 -0.1585  0.1380
66628CHOL    C132381  29.332  26.000   3.806 -0.1541 -0.2239  0.0274
66628CHOL    C232382  29.309  25.592   3.988  0.1734  0.0255 -0.0113
66629CHOL   ROH32383   5.850  29.231  16.137 -0.1041  0.0515 -0.1672
66629CHOL    R132384   5.808  29.251  16.416 -0.1363  0.0069 -0.1686
66629CHOL    R232385   5.808  29.493  16.550 -0.0642 -0.0216 -0.1157
66629CHOL    R332386   5.565  29.409  16.636 -0.1082  0.0512 -0.1694
66629CHOL    R432387   5.703  29.499  16.879 -0.0599 -0.1770 -0.1114
66629CHOL    R532388   5.609  29.305  16.847 -0.1626 -0.1078 -0.2361
66629CHOL    C132389   5.413  29.424  17.152 -0.0989 -0.1989 -0.1591
66629CHOL    C232390   5.271  29.514  17.527  0.1143  0.0017 -0.0339
66630CHOL   ROH32391  34.983  19.014   6.073 -0.2163  0.2194 -0.1413
66630CHOL    R132392  35.082  19.156   5.849 -0.0885  0.3155 -0.0249
66630CHOL    R232393  35.267  19.359   5.873  0.1075  0.1216  0.1404
66630CHOL    R332394   0.020  19.210   5.692 -0.0419  0.1402  0.0109
66630CHOL    R432395   0.140  19.477   5.675  0.1791  0.0511  0.1924
66630CHOL    R532396   0.060  19.360   5.510  0.0588  0.2413  0.1168
66630CHOL    C132397   0.420  19.406   5.391  0.0810  0.0277  0.1010
66630CHOL    C232398   0.527  19.715   5.219  0.2029  0.0360 -0.4183
66631CHOL   ROH32399  35.362  34.325  14.307  0.1156 -0.1771  0.0216
66631CHOL    R132400   0.022  34.139  14.099  0.1535 -0.0992 -0.0401
66631CHOL    R232401  35.202  34.009  13.969  0.1830 -0.1570 -0.0292
66631CHOL    R332402  35.322  34.110  13.746  0.0869 -0.0406 -0.0289
66631CHOL    R432403  35.338  33.819  13.714  0.1411 -0.0256 -0.1506
66631CHOL    R532404   0.118  33.960  13.704  0.1069  0.0156 -0.1490
66631CHOL    C132405   0.144  33.803  13.357  0.0275  0.1599 -0.2209
66631CHOL    C232406   0.531  33.577  13.259  0.0102  0.1017  0.0242
66632CHOL   ROH32407  15.482  16.864  18.373 -0.3029 -0.0589  0.1010
66632CHOL    R132408  15.300  16.857  18.157 -0.1825 -0.0151 -0.0021
66632CHOL    R232409  15.078  17.021  18.144 -0.2166 -0.0640 -0.0571
66632CHOL    R332410  15.183  17.091  17.903 -0.0997  0.0601  0.0290
66632CHOL    R432411  14.918  17.216  17.907 -0.1686 -0.0820 -0.1041
66632CHOL    R532412  14.997  17.084  17.753 -0.0003  0.0040 -0.0916
66632CHOL    C132413  14.923  17.394  17.543 -0.0310  0.0243 -0.0504
66632CHOL    C232414  14.879  17.489  17.193 -0.3292 -0.1881  0.0503
66633CHOL   ROH32415  35.307   6.495  10.814 -0.0117  0.0964  0.0530
66633CHOL    R132416  35.349   6.455  10.537 -0.1316  0.0692  0.0386
66633CHOL    R232417   0.210   6.385  10.433 -0.1572  0.1373 -0.0697
66633CHOL    R332418   0.068   6.180  10.323 -0.1409  0.0725  0.0297
66633CHOL    R432419   0.255   6.263  10.112 -0.2248  0.0584 -0.0494
66633CHOL    R532420   0.038   6.244  10.094 -0.2255  0.0011  0.0208
66633CHOL    C132421   0.149   6.000   9.822 -0.2488 -0.0483  0.0559
66633CHOL    C232422   0.083   6.009   9.454 -0.2566  0.1151  0.2339
66634CHOL   ROH32423   7.339   0.969  15.644 -0.0642 -0.0207  0.0002
66634CHOL    R132424   7.118   1.073  15.786 -0.0666  0.0874 -0.0818
66634CHOL    R232425   7.022   0.957  16.018 -0.2009  0.1417 -0.1095
66634CHOL    R332426   7.057   1.207  16.119 -0.1213  0.1306 -0.1093
66634CHOL    R432427   6.814   1.107  16.250  0.0294  0.0838  0.1362
66634CHOL    R532428   6.834   1.294  16.140 -0.1096  0.1022  0.1413
66634CHOL    C132429   6.726   1.429  16.480  0.2382  0.0397  0.2788
66634CHOL    C232430   6.373   1.410  16.670  0.1999 -0.2082  0.1077
66635CHOL   ROH32431  22.453   3.149   8.486 -0.0348 -0.0410  0.1802
66635CHOL    R132432  22.630   3.250   8.682  0.0948 -0.0191  0.0521
66635CHOL    R232433  22.866   3.378   8.617  0.0130  0.0438 -0.1195
66635CHOL    R332434  22.765   3.576   8.773  0.0890  0.0035 -0.0191
66635CHOL    R432435  23.055   3.588   8.816  0.1089 -0.0248 -0.1377
66635CHOL    R532436  22.902   3.571   8.970  0.1724 -0.0618 -0.0775
66635CHOL    C132437  23.070   3.896   9.079  0.2361 -0.1025 -0.0537
66635CHOL    C232438  23.322   4.037   9.285  0.0455 -0.0077  0.1249
66636CHOL   ROH32439   6.888  24.021  15.974  0.0437 -0.0644  0.1100
66636CHOL    R132440   6.673  23.842  15.934  0.0208 -0.0343  0.0972
66636CHOL    R232441   6.472  23.808  16.120 -0.0480  0.0667  0.0419
66636CHOL    R332442   6.311  23.865  15.908  0.0337  0.0303 -0.0304
66636CHOL    R432443   6.126  23.811  16.130 -0.0552 -0.0729 -0.1284
66636CHOL    R532444   6.125  23.716  15.934  0.0802 -0.0479 -0.1423
66636CHOL    C132445   5.774  23.867  15.937  0.0175 -0.1884 -0.2956
66636CHOL    C232446   5.472  23.700  16.087  0.0856  0.0244 -0.4350
66637CHOL   ROH32447  24.316  15.344   7.148 -0.2419  0.1572  0.1186
66637CHOL    R132448  24.114  15.268   6.966 -0.1785  0.1312  0.0588
66637CHOL    R232449  23.900  15.109   7.038 -0.0319 -0.1279 -0.0728
66637CHOL    R332450  23.754  15.315   6.936 -0.2232 -0.1709  0.1105
66637CHOL    R432451  23.575  15.083   6.924  0.0069 -0.3402 -0.1363
66637CHOL    R532452  23.627  15.215   6.759 -0.1036 -0.1253 -0.0022
66637CHOL    C132453  23.248  15.260   6.761 -0.1504 -0.5039 -0.0011
66637CHOL    C232454  23.133  15.121   6.402 -0.0474 -0.2560  0.3191
66638CHOL   ROH32455   0.797  30.278   9.788  0.0000 -0.0500  0.1169
66638CHOL    R132456   0.620  30.130   9.951 -0.0261 -0.0193  0.1163
66638CHOL    R232457   0.534  30.221  10.197 -0.1303  0.0643  0.0495
66638CHOL    R332458   0.287  30.177  10.091 -0.0846 -0.0301 -0.0184
66638CHOL    R432459   0.235  30.278  10.361 -0.1968 -0.1564  0.0080
66638CHOL    R532460   0.157  30.094  10.274 -0.0791 -0.1675 -0.0758
66638CHOL    C132461  35.215  30.271  10.357 -0.1930 -0.3739 -0.0799
66638CHOL    C232462  34.883  30.414  10.443  0.3096 -0.0886  0.1171
66639CHOL   ROH32463  20.709  13.650   9.656  0.0073  0.0477  0.1201
66639CHOL    R132464  20.985  13.646   9.717  0.0368  0.0492 -0.0095
66639CHOL    R232465  21.119  13.866   9.818  0.0763  0.0400 -0.0350
66639CHOL    R332466  21.191  13.691  10.014  0.1717  0.0095 -0.0974
66639CHOL    R432467  21.395  13.901  10.023 -0.0065  0.1718  0.0543
66639CHOL    R532468  21.430  13.687  10.005  0.1764  0.2114 -0.0360
66639CHOL    C132469  21.623  13.759  10.326  0.0350  0.2200  0.0473
66639CHOL    C232470  21.876  13.839  10.611  0.0480  0.0576  0.0473
66640CHOL   ROH32471   2.805  34.210  12.478  0.0749 -0.1149 -0.0203
66640CHOL    R132472   2.690  34.365  12.684  0.1648 -0.0866  0.0090
66640CHOL    R232473   2.417  34.384  12.722  0.1745  0.0649  0.0130
66640CHOL    R332474   2.478  34.305  12.974  0.1298 -0.0194 -0.0027
66640CHOL    R432475   2.207  34.414  12.995  0.2442  0.2548  0.0458
66640CHOL    R532476   2.380  34.472  13.115  0.3196  0.0698  0.0257
66640CHOL    C132477   2.142  34.358  13.391  0.2427  0.2871  0.0504
66640CHOL    C232478   1.877  34.260  13.574  0.0234  0.3893 -0.1164
66641CHOL   ROH32479   2.058   6.085  12.126 -0.0432  0.1848 -0.0809
66641CHOL    R132480   2.320   6.023  12.039 -0.0670  0.2778 -0.2218
66641CHOL    R232481   2.440   5.779  12.091  0.1946  0.4632  0.0585
66641CHOL    R332482   2.474   5.775  11.822 -0.0518  0.0649  0.0299
66641CHOL    R432483   2.616   5.537  11.919  0.4711  0.4829  0.3103
66641CHOL    R532484   2.698   5.694  11.792  0.0688  0.4186 -0.0380
66641CHOL    C132485   2.752   5.392  11.566  0.4009  0.1205  0.4299
66641CHOL    C232486   2.869   5.206  11.210  0.1560 -0.1088 -0.1000
66642DPPC   NC332487  17.601  16.706  12.688 -0.2690 -0.0686 -0.1105
66642DPPC   PO432488  17.867  16.444  12.580 -0.2606  0.0939  0.0627
66642DPPC   GL132489  18.193  16.049  12.713 -0.0412  0.2253 -0.0700
66642DPPC   GL232490  18.118  15.792  12.797 -0.0121  0.0610 -0.1214
66642DPPC   C1A32491  18.647  15.872  12.849 -0.3390  0.1722 -0.2634
66642DPPC   C2A32492  18.840  15.655  13.169 -0.0905 -0.1194 -0.1043
66642DPPC   C3A32493  19.030  15.420  13.394  0.2194 -0.4708  0.0576
66642DPPC   C4A32494  19.016  15.210  13.807  0.3226  0.1529  0.3218
66642DPPC   C1B32495  18.294  15.901  13.177  0.1450  0.2792 -0.0633
66642DPPC   C2B32496  18.526  15.776  13.499  0.2003  0.2543  0.0980
66642DPPC   C3B32497  18.611  15.497  13.694 -0.2082  0.1037 -0.1079
66642DPPC   C4B32498  18.648  15.521  14.182 -0.2875 -0.0635  0.5077
66643DPPC   NC332499   5.726  14.514  10.502 -0.0854 -0.1561  0.1556
66643DPPC   PO432500   5.722  14.721  10.833  0.1998  0.2091  0.0989
66643DPPC   GL132501   5.317  14.509  10.847  0.1761  0.1104  0.2154
66643DPPC   GL232502   5.270  14.386  10.599  0.1725  0.1958  0.0523
66643DPPC   C1A32503   5.154  14.324  11.120  0.2835 -0.2461  0.2134
66643DPPC   C2A32504   4.827  14.121  11.265 -0.0145 -0.2322 -0.3283
66643DPPC   C3A32505   4.515  13.832  11.503 -0.1584  0.2684 -0.2134
66643DPPC   C4A32506   4.295  13.719  11.893  0.1346  0.0976 -0.2032
66643DPPC   C1B32507   4.938  14.069  10.737 -0.0960  0.0460  0.3180
66643DPPC   C2B32508   4.523  14.001  10.866  0.3985  0.0009  0.1576
66643DPPC   C3B32509   4.218  13.774  11.130  0.2435  0.1564  0.0191
66643DPPC   C4B32510   4.035  13.759  11.451 -0.1770 -0.0371 -0.1622
66644DPPC   NC332511   2.517  20.399   3.874  0.2866 -0.0536 -0.0207
66644DPPC   PO432512   2.125  20.238   3.988 -0.0069  0.0873 -0.1208
66644DPPC   GL132513   2.054  20.036   4.330  0.0239  0.0608  0.0552
66644DPPC   GL232514   2.184  19.787   4.515  0.2084  0.0411  0.0047
66644DPPC   C1A32515   1.692  19.821   4.562  0.0928 -0.0417 -0.0546
66644DPPC   C2A32516   1.562  19.693   4.944 -0.0377  0.1004 -0.2560
66644DPPC   C3A32517   1.167  19.741   5.343  0.0064 -0.0496 -0.2138
66644DPPC   C4A32518   1.163  19.932   5.654  0.1091  0.2915  0.0789
66644DPPC   C1B32519   2.007  19.577   4.801  0.0725 -0.3733  0.1105
66644DPPC   C2B32520   1.872  19.160   4.950  0.0676  0.2826 -0.1389
66644DPPC   C3B32521   1.794  18.792   5.156 -0.0123 -0.1412 -0.1188
66644DPPC   C4B32522   1.640  18.468   5.203 -0.3121  0.1050 -0.0938
66645DPPC   NC332523  10.244  30.594  17.106  0.1630  0.3493  0.2947
66645DPPC   PO432524  10.548  30.358  17.409  0.0728 -0.0633  0.0638
66645DPPC   GL132525  10.439  30.332  17.811 -0.0219 -0.0111 -0.2556
66645DPPC   GL232526  10.783  30.313  17.990 -0.0497  0.0675  0.0969
66645DPPC   C1A32527  10.416  30.562  18.183  0.1313 -0.3847 -0.0728
66645DPPC   C2A32528  10.316  30.692  18.552  0.0344  0.0496  0.2234
66645DPPC   C3A32529   9.962  30.690  18.861  0.0002 -0.0637  0.1085
66645DPPC   C4A32530   9.844  30.658  19.388  0.2609  0.1980 -0.3614
66645DPPC   C1B32531  10.912  30.046  18.358 -0.3332 -0.2905 -0.2311
66645DPPC   C2B32532  10.963  29.876  18.714 -0.1379 -0.1868  0.2962
66645DPPC   C3B32533  11.198  29.959  19.070  0.0306 -0.1690  0.1226
66645DPPC   C4B32534  11.242  30.054  19.489  0.0215  0.2326 -0.0299
66646DPPC   NC332535   9.826   7.808  14.464  0.0078  0.1044 -0.1453
66646DPPC   PO432536   9.373   8.113  14.399  0.0063 -0.0713 -0.2708
66646DPPC   GL132537   9.526   8.000  14.832 -0.0106  0.0229  0.0926
66646DPPC   GL232538   9.820   7.694  14.990  0.0974  0.0048  0.0558
66646DPPC   C1A32539   9.357   7.906  15.206 -0.0423  0.1271  0.0740
66646DPPC   C2A32540   9.299   7.960  15.533 -0.0143  0.3843  0.0805
66646DPPC   C3A32541   8.939   7.896  15.877 -0.1208  0.0168  0.0698
66646DPPC   C4A32542   8.500   8.122  16.051 -0.0108  0.1146  0.1390
66646DPPC   C1B32543   9.422   7.412  15.269 -0.1709  0.1431 -0.0806
66646DPPC   C2B32544   9.310   7.420  15.624  0.0909  0.1910  0.0971
66646DPPC   C3B32545   9.022   7.446  15.982 -0.1972  0.0373  0.1415
66646DPPC   C4B32546   8.690   7.632  16.249 -0.1913 -0.3211  0.1372
66647DPPC   NC332547  28.941  26.590   1.667 -0.1006 -0.0917  0.1653
66647DPPC   PO432548  28.745  26.194   1.902  0.3371 -0.4163 -0.1680
66647DPPC   GL132549  28.785  25.982   2.256  0.0633 -0.0399 -0.1234
66647DPPC   GL232550  28.993  26.151   2.430 -0.0641 -0.0137 -0.1488
66647DPPC   C1A32551  28.593  25.699   2.538 -0.0261  0.1168  0.2090
66647DPPC   C2A32552  28.721  25.538   3.003  0.0757  0.0226  0.1194
66647DPPC   C3A32553  28.748  25.228   3.269  0.2979 -0.0129 -0.0676
66647DPPC   C4A32554  29.015  25.068   3.476 -0.2133 -0.0077  0.0875
66647DPPC   C1B32555  28.998  25.964   2.920  0.1516  0.1459  0.3527
66647DPPC   C2B32556  28.952  25.798   3.391 -0.3082  0.0633  0.0510
66647DPPC   C3B32557  28.854  25.568   3.781 -0.0663  0.4391  0.3752
66647DPPC   C4B32558  28.918  25.355   4.173 -0.3128  0.2845 -0.3795
66648DPPC   NC332559   8.128  23.589  16.551 -0.0667 -0.1663  0.0696
66648DPPC   PO432560   8.261  23.199  16.719 -0.0390  0.2293  0.2913
66648DPPC   GL132561   7.835  23.285  16.848  0.0043  0.3385 -0.0120
66648DPPC   GL232562   7.587  23.322  16.651  0.0487 -0.0448  0.1146
66648DPPC   C1A32563   7.367  23.196  17.045 -0.1259  0.1403  0.0823
66648DPPC   C2A32564   7.043  23.241  17.244 -0.0363 -0.0406 -0.0430
66648DPPC   C3A32565   6.730  23.080  17.436 -0.0041  0.1037 -0.1976
66648DPPC   C4A32566   6.297  22.998  17.647  0.0263 -0.2165 -0.0671
66648DPPC   C1B32567   7.137  23.265  16.620  0.0384  0.2352  0.2289
66648DPPC   C2B32568   6.884  23.141  16.770  0.1942 -0.0297  0.1250
66648DPPC   C3B32569   6.564  23.022  16.994  0.3400  0.1390 -0.1779
66648DPPC   C4B32570   6.116  22.946  17.126  0.1701  0.1309 -0.0278
66649DPPC   NC332571   7.045  15.103  12.056  0.0517  0.0688  0.3486
66649DPPC   PO432572   6.699  15.332  11.880 -0.1696 -0.0620  0.2936
66649DPPC   GL132573   6.261  15.349  12.009 -0.0159 -0.1294  0.1410
66649DPPC   GL232574   6.192  15.558  12.300 -0.1309 -0.2200  0.0062
66649DPPC   C1A32575   5.868  15.235  12.097 -0.0750  0.0175  0.5275
66649DPPC   C2A32576   5.511  15.242  12.442 -0.0083  0.1296 -0.2191
66649DPPC   C3A32577   5.041  15.266  12.523  0.1252  0.0651 -0.1293
66649DPPC   C4A32578   4.748  15.495  12.737  0.2602  0.0193 -0.2294
66649DPPC   C1B32579   5.883  15.582  12.588  0.0780  0.0321  0.2881
66649DPPC   C2B32580   5.610  15.687  12.775  0.0860  0.0161  0.2629
66649DPPC   C3B32581   5.274  15.506  12.905 -0.0451  0.2677  0.3524
66649DPPC   C4B32582   5.023  15.745  13.105  0.1118  0.2820 -0.0550
66650DPPC   NC332583  12.914  32.126  16.268 -0.0264 -0.0219 -0.1208
66650DPPC   PO432584  13.330  32.185  16.149 -0.0353 -0.1199  0.0356
66650DPPC   GL132585  13.638  32.367  16.390 -0.2369  0.0689 -0.1431
66650DPPC   GL232586  13.554  32.544  16.475  0.0812  0.0673 -0.0984
66650DPPC   C1A32587  14.028  32.589  16.495  0.0240 -0.1377  0.1599
66650DPPC   C2A32588  14.172  32.854  16.789 -0.3711 -0.0650 -0.0003
66650DPPC   C3A32589  14.640  32.927  17.000 -0.1332  0.2309  0.2845
66650DPPC   C4A32590  15.035  32.911  16.913 -0.1196  0.0816 -0.0153
66650DPPC   C1B32591  13.752  32.586  16.881  0.3504 -0.1222 -0.3934
66650DPPC   C2B32592  13.863  32.767  17.262  0.0629  0.1331  0.0712
66650DPPC   C3B32593  14.220  33.053  17.258  0.0648  0.0960 -0.1869
66650DPPC   C4B32594  14.483  33.406  17.172  0.2935 -0.1760  0.3589
66651DPPC   NC332595   7.232  15.993  12.829  0.1290 -0.0661  0.4904
66651DPPC   PO432596   7.360  15.971  12.389  0.0551 -0.1851 -0.0083
66651DPPC   GL132597   6.804  16.019  12.413 -0.1917  0.2362 -0.1283
66651DPPC   GL232598   6.641  15.800  12.415 -0.1171 -0.1948  0.1651
66651DPPC   C1A32599   6.624  16.261  12.749 -0.1796 -0.0469  0.0588
66651DPPC   C2A32600   6.281  16.305  13.037  0.1417  0.0564 -0.0910
66651DPPC   C3A32601   6.027  16.442  13.328 -0.2341  0.1575 -0.3503
66651DPPC   C4A32602   5.770  16.739  13.531  0.0375  0.0742 -0.0504
66651DPPC   C1B32603   6.311  15.809  12.808  0.3996 -0.0069 -0.0177
66651DPPC   C2B32604   5.895  15.977  13.121 -0.1441 -0.2431  0.2049
66651DPPC   C3B32605   5.541  16.234  13.421 -0.0944 -0.1629  0.2460
66651DPPC   C4B32606   5.332  16.474  13.675  0.2242 -0.0642  0.2962
66652DPPC   NC332607   8.038   5.378  14.098  0.2823 -0.3692  0.6056
66652DPPC   PO432608   8.198   5.068  14.258 -0.0560  0.0432  0.0410
66652DPPC   GL132609   8.049   5.072  14.671 -0.0692 -0.1346  0.1978
66652DPPC   GL232610   8.243   4.885  14.859  0.1510 -0.0205 -0.0123
66652DPPC   C1A32611   7.866   5.089  15.096 -0.0614 -0.0063  0.1958
66652DPPC   C2A32612   7.705   5.230  15.501  0.2838  0.3390 -0.4729
66652DPPC   C3A32613   7.424   5.315  15.929  0.1326  0.1442  0.0083
66652DPPC   C4A32614   7.294   5.420  16.305 -0.1827 -0.1921 -0.0692
66652DPPC   C1B32615   8.295   5.272  15.018  0.2709  0.0547 -0.1978
66652DPPC   C2B32616   8.215   5.415  15.405 -0.0401 -0.2900  0.1694
66652DPPC   C3B32617   8.145   5.468  15.746 -0.0290  0.0822  0.3426
66652DPPC   C4B32618   8.276   5.457  16.141 -0.1958  0.0621 -0.1461
66653DPPC   NC332619  31.287   1.048   6.453 -0.0089  0.2518  0.2399
66653DPPC   PO432620  31.587   1.451   6.593  0.2290 -0.1608  0.0269
66653DPPC   GL132621  31.338   1.605   6.984  0.0142  0.1033 -0.1234
66653DPPC   GL232622  31.379   1.682   7.213  0.0008 -0.0788 -0.3102
66653DPPC   C1A32623  31.109   1.273   7.287  0.2038 -0.0760 -0.1375
66653DPPC   C2A32624  30.980   1.312   7.701 -0.0061  0.2152  0.2528
66653DPPC   C3A32625  30.873   1.322   8.176 -0.2981  0.0243 -0.1459
66653DPPC   C4A32626  30.957   1.313   8.624  0.1298  0.2801 -0.2999
66653DPPC   C1B32627  31.407   1.571   7.573 -0.2511 -0.1994 -0.3277
66653DPPC   C2B32628  31.254   1.603   7.945  0.1298 -0.0251  0.2597
66653DPPC   C3B32629  31.086   1.733   8.452  0.1496  0.0244 -0.3001
66653DPPC   C4B32630  31.040   2.011   8.703  0.0712 -0.0199 -0.0406
66654DPPC   NC332631  26.554  15.827   0.237  0.0856  0.0185 -0.1343
66654DPPC   PO432632  26.390  16.266   0.439 -0.0900  0.0814  0.4142
66654DPPC   GL132633  26.876  16.472   0.591  0.2206 -0.0319  0.1501
66654DPPC   GL232634  26.547  16.662   0.624 -0.0137  0.1221 -0.2597
66654DPPC   C1A32635  27.057  16.575   0.965  0.0823 -0.0429 -0.3216
66654DPPC   C2A32636  26.944  16.703   1.326  0.1638 -0.1634  0.1697
66654DPPC   C3A32637  27.201  16.813   1.724  0.1442  0.1667  0.0287
66654DPPC   C4A32638  27.233  16.777   2.181 -0.0961 -0.1769 -0.0566
66654DPPC   C1B32639  26.683  16.885   0.941  0.2084 -0.2064  0.1818
66654DPPC   C2B32640  26.654  17.181   1.246 -0.1052  0.0604 -0.0251
66654DPPC   C3B32641  26.632  17.568   1.425  0.0329 -0.1628 -0.1969
66654DPPC   C4B32642  26.937  17.769   1.740  0.0000  0.0726 -0.0923
66655DPPC   NC332643  21.978   6.585   9.049  0.1183 -0.1027  0.0320
66655DPPC   PO432644  22.364   6.532   8.864  0.0202 -0.1565  0.1236
66655DPPC   GL132645  22.576   6.791   8.976 -0.3609 -0.1522 -0.1461
66655DPPC   GL232646  22.451   7.121   9.011 -0.1733 -0.1161 -0.2327
66655DPPC   C1A32647  23.088   6.722   9.068 -0.0288  0.1244  0.0869
66655DPPC   C2A32648  23.340   6.479   9.263  0.0041 -0.1273  0.2032
66655DPPC   C3A32649  23.595   6.460   9.613 -0.1581 -0.1772  0.3503
66655DPPC   C4A32650  23.691   6.738   9.933  0.1885 -0.0849 -0.1696
66655DPPC   C1B32651  22.897   7.148   8.988  0.1904  0.0697 -0.1857
66655DPPC   C2B32652  23.335   7.178   8.940  0.0114 -0.1061 -0.2799
66655DPPC   C3B32653  23.712   6.974   8.936  0.0054  0.0153 -0.0822
66655DPPC   C4B32654  23.913   6.626   9.119  0.0856 -0.0649  0.2417
66656DPPC   NC332655  23.122   4.278   7.291  0.3540 -0.4878 -0.0530
66656DPPC   PO432656  23.542   4.226   7.545  0.3478 -0.3416 -0.0230
66656DPPC   GL132657  23.832   3.940   7.905 -0.0094 -0.1183 -0.2087
66656DPPC   GL232658  24.135   3.956   7.912 -0.0733 -0.0499 -0.1409
66656DPPC   C1A32659  23.748   3.515   8.146  0.0211  0.2125 -0.1032
66656DPPC   C2A32660  23.864   3.629   8.548  0.0750  0.0279 -0.3731
66656DPPC   C3A32661  24.038   3.753   8.900  0.2365  0.1300 -0.7020
66656DPPC   C4A32662  23.834   4.010   9.213  0.0063  0.3957 -0.0525
66656DPPC   C1B32663  24.229   3.991   8.269 -0.2207 -0.0094 -0.0454
66656DPPC   C2B32664  24.444   4.099   8.638 -0.3970  0.2265  0.1409
66656DPPC   C3B32665  24.593   4.448   8.888 -0.0826 -0.1598 -0.1336
66656DPPC   C4B32666  24.611   4.781   9.061  0.1714  0.0510 -0.0653
66657DPPC   NC332667  16.188  25.374  15.196  0.0892 -0.0622 -0.3723
66657DPPC   PO432668  16.500  25.272  15.519 -0.3537  0.0501 -0.1750
66657DPPC   GL132669  16.945  25.284  15.582 -0.0476 -0.1772  0.1731
66657DPPC   GL232670  16.984  24.949  15.719  0.1030 -0.0500  0.0612
66657DPPC   C1A32671  17.252  25.440  15.819 -0.3109  0.1125  0.2008
66657DPPC   C2A32672  17.546  25.689  15.618 -0.3273  0.1832 -0.2650
66657DPPC   C3A32673  17.977  25.876  15.737 -0.0332  0.3983 -0.0858
66657DPPC   C4A32674  18.290  26.047  15.979 -0.0818  0.0101  0.2353
66657DPPC   C1B32675  17.053  25.119  16.122  0.1247 -0.2668 -0.1425
66657DPPC   C2B32676  17.426  25.340  16.291  0.0465 -0.0598 -0.0734
66657DPPC   C3B32677  17.786  25.553  16.100  0.1607  0.0059 -0.3079
66657DPPC   C4B32678  18.176  25.707  16.361  0.1163 -0.1752  0.0159
66658DPPC   NC332679  33.225  30.751   7.544  0.0970 -0.1388  0.4067
66658DPPC   PO432680  32.877  30.953   7.522  0.3419 -0.3260  0.3546
66658DPPC   GL132681  32.901  30.882   7.964  0.2005 -0.0887  0.2160
66658DPPC   GL232682  33.142  30.619   8.010 -0.3184 -0.0985 -0.1341
66658DPPC   C1A32683  32.454  30.887   8.056  0.1092 -0.0055  0.1021
66658DPPC   C2A32684  32.285  30.835   8.535 -0.0456  0.3163 -0.5402
66658DPPC   C3A32685  31.971  30.817   8.803 -0.0881 -0.1133  0.1444
66658DPPC   C4A32686  31.552  30.654   8.771 -0.0209  0.2026  0.1971
66658DPPC   C1B32687  33.315  30.720   8.351  0.1462 -0.1151  0.1410
66658DPPC   C2B32688  33.419  30.382   8.682 -0.1365 -0.0939  0.0955
66658DPPC   C3B32689  33.419  30.390   9.127 -0.1255  0.2120 -0.2960
66658DPPC   C4B32690  33.176  30.483   9.462  0.2403  0.0853 -0.1971
66659DPPC   NC332691   8.073  21.782  15.063 -0.0672 -0.0148 -0.2287
66659DPPC   PO432692   7.949  22.085  14.744 -0.1551  0.2538  0.0958
66659DPPC   GL132693   7.531  22.174  14.761 -0.0971  0.1519  0.2313
66659DPPC   GL232694   7.272  22.157  14.542 -0.1259  0.0385  0.1781
66659DPPC   C1A32695   7.197  21.917  14.935  0.0422  0.0000  0.2711
66659DPPC   C2A32696   6.851  21.871  15.167  0.1278 -0.1546  0.1582
66659DPPC   C3A32697   6.417  21.906  15.217 -0.3602  0.0179  0.0363
66659DPPC   C4A32698   5.970  22.153  15.333  0.0096 -0.1732 -0.1364
66659DPPC   C1B32699   6.898  22.290  14.809  0.2112 -0.1544 -0.0151
66659DPPC   C2B32700   6.438  22.199  14.818 -0.3281 -0.2353 -0.0870
66659DPPC   C3B32701   5.983  22.199  14.689  0.0222  0.0616 -0.2504
66659DPPC   C4B32702   5.578  22.264  14.563  0.1695 -0.1305 -0.2312
66660DPPC   NC332703  11.451  31.006  16.549 -0.2564 -0.1382 -0.1587
66660DPPC   PO432704  11.181  31.331  16.719  0.1506  0.0076 -0.2053
66660DPPC   GL132705  11.283  31.433  17.147 -0.5589 -0.0300  0.1065
66660DPPC   GL232706  11.272  31.123  17.291  0.1847  0.0248  0.1908
66660DPPC   C1A32707  11.360  31.641  17.493 -0.0291 -0.0045 -0.1509
66660DPPC   C2A32708  11.408  31.820  17.951  0.0684 -0.2064 -0.0352
66660DPPC   C3A32709  11.554  31.919  18.282 -0.0036 -0.4030  0.3738
66660DPPC   C4A32710  11.676  32.087  18.700  0.0087 -0.1752  0.4107
66660DPPC   C1B32711  11.633  31.256  17.541 -0.0251  0.0697  0.0880
66660DPPC   C2B32712  11.611  31.337  17.949  0.1565  0.3690 -0.3149
66660DPPC   C3B32713  11.646  31.386  18.452  0.2753 -0.2065  0.3390
66660DPPC   C4B32714  11.620  31.581  18.823 -0.3815  0.1929 -0.0890
66661DPPC   NC332715  17.605  25.474  13.464  0.1283 -0.0140  0.0907
66661DPPC   PO432716  17.899  25.166  13.398  0.2266  0.0365  0.1370
66661DPPC   GL132717  18.349  25.216  13.481  0.1553  0.2045  0.1008
66661DPPC   GL232718  18.497  25.269  13.169  0.0228  0.2458  0.2187
66661DPPC   C1A32719  18.538  25.501  13.670 -0.1239  0.2604  0.1277
66661DPPC   C2A32720  18.965  25.631  13.689 -0.0794  0.1009  0.2617
66661DPPC   C3A32721  19.309  25.733  13.967  0.1154 -0.0984 -0.0745
66661DPPC   C4A32722  19.467  26.009  14.397 -0.1219 -0.1082 -0.0110
66661DPPC   C1B32723  18.628  25.753  13.299 -0.0972  0.0329  0.1552
66661DPPC   C2B32724  19.001  25.935  13.328 -0.1440  0.0050  0.0568
66661DPPC   C3B32725  19.228  26.147  13.547  0.1865 -0.0910  0.1155
66661DPPC   C4B32726  19.619  26.206  13.894  0.3421  0.1730  0.1802
66662DPPC   NC332727  14.121  26.530  17.246  0.0950  0.1608  0.1731
66662DPPC   PO432728  13.780  26.838  17.375  0.0745 -0.0654 -0.2167
66662DPPC   GL132729  13.943  26.912  17.763  0.3350 -0.0401 -0.1175
66662DPPC   GL232730  14.270  26.819  17.737  0.0461 -0.2277  0.1164
66662DPPC   C1A32731  14.072  27.154  18.176  0.1696  0.0643 -0.0519
66662DPPC   C2A32732  14.351  27.231  18.538  0.1346  0.2049  0.1794
66662DPPC   C3A32733  14.331  27.459  18.938 -0.2067 -0.3157 -0.0766
66662DPPC   C4A32734  14.505  27.425  19.244  0.3452  0.2851  0.0405
66662DPPC   C1B32735  14.488  26.939  18.094 -0.0485  0.0089  0.0451
66662DPPC   C2B32736  14.786  27.024  18.407  0.0140 -0.4295  0.2705
66662DPPC   C3B32737  15.133  27.324  18.599 -0.0453  0.0746 -0.0760
66662DPPC   C4B32738  15.465  27.485  18.878 -0.1992  0.1492  0.2913
66663DPPC   NC332739  11.316   6.920  15.235  0.1387  0.2758  0.0040
66663DPPC   PO432740  11.239   7.118  14.794 -0.1647  0.1586 -0.2130
66663DPPC   GL132741  10.896   7.182  15.219  0.1490  0.0667 -0.1196
66663DPPC   GL232742  10.783   6.999  15.404  0.2301  0.0017 -0.2081
66663DPPC   C1A32743  10.565   7.367  15.575 -0.1407 -0.0808  0.2143
66663DPPC   C2A32744  10.503   7.529  15.932 -0.3024  0.0166  0.0008
66663DPPC   C3A32745  10.355   7.565  16.217 -0.0314 -0.2159  0.0353
66663DPPC   C4A32746  10.541   7.595  16.571  0.0520 -0.0187 -0.0713
66663DPPC   C1B32747  10.630   6.963  15.816 -0.0320  0.1804 -0.2084
66663DPPC   C2B32748  10.702   7.145  16.220  0.0068  0.2208  0.0159
66663DPPC   C3B32749  10.589   7.096  16.571  0.0165  0.0094 -0.2327
66663DPPC   C4B32750  10.260   7.088  16.881 -0.1647 -0.1891  0.1309
66664DPPC   NC332751   2.668   4.720   8.526  0.0890  0.0655  0.0267
66664DPPC   PO432752   2.787   5.101   8.627  0.3794 -0.2202 -0.2996
66664DPPC   GL132753   2.441   5.008   8.892 -0.2503 -0.1412 -0.0215
66664DPPC   GL232754   2.181   4.811   8.585  0.3686 -0.1442  0.1498
66664DPPC   C1A32755   2.314   5.074   9.388 -0.2850  0.0568 -0.4029
66664DPPC   C2A32756   2.069   5.026   9.842 -0.0589  0.1161  0.1490
66664DPPC   C3A32757   1.972   5.032  10.317 -0.1577 -0.2795  0.2314
66664DPPC   C4A32758   2.227   5.130  10.567  0.0087  0.1264 -0.0280
66664DPPC   C1B32759   1.920   4.843   8.926 -0.2633  0.0257 -0.1491
66664DPPC   C2B32760   1.758   4.798   9.348 -0.0352  0.0072 -0.2482
66664DPPC   C3B32761   1.552   4.920   9.854  0.0298 -0.1433  0.1015
66664DPPC   C4B32762   1.583   5.282  10.170 -0.1427 -0.0167  0.1218
66665DPPC   NC332763  12.299  21.000  17.321  0.0332 -0.0572 -0.2530
66665DPPC   PO432764  11.971  20.763  17.134 -0.2278 -0.0832 -0.1457
66665DPPC   GL132765  11.821  20.484  17.448 -0.0950  0.3847 -0.3588
66665DPPC   GL232766  11.988  20.699  17.614  0.2603  0.1464  0.0734
66665DPPC   C1A32767  11.731  20.138  17.735  0.0076 -0.1985  0.0083
66665DPPC   C2A32768  11.555  19.754  17.887 -0.0001  0.1372 -0.1016
66665DPPC   C3A32769  11.507  19.343  18.167  0.1638  0.1109 -0.0178
66665DPPC   C4A32770  11.215  19.193  17.990 -0.0412 -0.1628 -0.1405
66665DPPC   C1B32771  12.014  20.471  18.037  0.1346  0.2334 -0.2081
66665DPPC   C2B32772  11.949  20.033  18.206  0.1446  0.0767 -0.2568
66665DPPC   C3B32773  11.988  19.612  18.128 -0.0402 -0.1808 -0.1389
66665DPPC   C4B32774  12.352  19.395  17.971  0.0765  0.4116 -0.4228
66666DPPC   NC332775   9.956  20.883  16.576 -0.1059 -0.1751  0.1122
66666DPPC   PO432776   9.745  20.596  16.234 -0.2189 -0.0402 -0.1658
66666DPPC   GL132777   9.528  20.258  16.433 -0.2943  0.0749 -0.2258
66666DPPC   GL232778   9.696  20.061  16.344  0.1716  0.1750 -0.0450
66666DPPC   C1A32779   9.351  20.029  16.664  0.2558  0.0667 -0.4269
66666DPPC   C2A32780   9.094  19.798  16.923 -0.0192 -0.1866 -0.0326
66666DPPC   C3A32781   9.092  19.366  17.096  0.0632  0.0553 -0.0056
66666DPPC   C4A32782   9.251  18.933  17.154 -0.2339 -0.0735 -0.0346
66666DPPC   C1B32783   9.777  19.840  16.593  0.2204  0.2316  0.2361
66666DPPC   C2B32784   9.624  19.555  16.860 -0.1695 -0.0446 -0.2157
66666DPPC   C3B32785   9.557  19.299  17.208  0.1535  0.0511 -0.0444
66666DPPC   C4B32786   9.358  19.232  17.556  0.4420  0.1406  0.0025
66667DPPC   NC332787  20.435  23.894   9.605 -0.1466 -0.1161 -0.2301
66667DPPC   PO432788  20.182  24.135   9.914 -0.0715  0.1730 -0.0885
66667DPPC   GL132789  20.356  24.057  10.353  0.0367 -0.3753  0.0340
66667DPPC   GL232790  20.266  24.263  10.661 -0.5282 -0.2512  0.0826
66667DPPC   C1A32791  20.691  23.972  10.705  0.0388  0.0236 -0.0311
66667DPPC   C2A32792  21.134  23.869  10.917 -0.0648  0.1397  0.2846
66667DPPC   C3A32793  21.460  23.754  10.835  0.0738  0.0601 -0.0512
66667DPPC   C4A32794  21.718  23.468  10.597  0.1748  0.1957 -0.0558
66667DPPC   C1B32795  20.520  24.400  10.974  0.0727 -0.2150 -0.2722
66667DPPC   C2B32796  20.993  24.373  11.072  0.0030  0.0578 -0.0110
66667DPPC   C3B32797  21.207  24.317  11.287 -0.0001 -0.0773 -0.2983
66667DPPC   C4B32798  21.424  23.988  11.564 -0.2059  0.1347  0.2610
66668DPPC   NC332799   4.467  29.530  13.201  0.2645  0.2740  0.1355
66668DPPC   PO432800   4.231  29.623  13.623 -0.1254 -0.0909  0.3199
66668DPPC   GL132801   4.023  29.621  14.048  0.0546  0.1739  0.0448
66668DPPC   GL232802   4.347  29.477  14.182 -0.0048 -0.1691 -0.0495
66668DPPC   C1A32803   3.682  29.756  14.212  0.2443  0.0945 -0.6025
66668DPPC   C2A32804   3.274  29.817  14.460  0.0028  0.0044  0.0900
66668DPPC   C3A32805   3.087  29.645  14.736 -0.2087 -0.1342  0.2939
66668DPPC   C4A32806   2.787  29.621  15.026  0.3304  0.3732  0.1535
66668DPPC   C1B32807   4.121  29.114  14.321  0.0237  0.1883 -0.0263
66668DPPC   C2B32808   3.672  28.928  14.503  0.0437  0.0656  0.0212
66668DPPC   C3B32809   3.337  28.582  14.598  0.0736 -0.1102 -0.0971
66668DPPC   C4B32810   2.912  28.606  14.358  0.3213  0.0571  0.3616
66669DPPC   NC332811  16.610  10.130  13.735  0.2085  0.0758  0.0725
66669DPPC   PO432812  16.432  10.035  14.096 -0.0591  0.1139 -0.1209
66669DPPC   GL132813  16.378  10.140  14.550  0.0926  0.1979 -0.1265
66669DPPC   GL232814  16.518  10.526  14.518 -0.4219  0.2776 -0.0106
66669DPPC   C1A32815  16.290  10.048  15.006  0.2144 -0.2507  0.0113
66669DPPC   C2A32816  16.521   9.917  15.371 -0.0744  0.2894 -0.2117
66669DPPC   C3A32817  16.664   9.906  15.729  0.0944 -0.2100 -0.0110
66669DPPC   C4A32818  16.681  10.035  16.184  0.3109 -0.1851  0.0210
66669DPPC   C1B32819  16.649  10.373  14.933  0.3722  0.1066 -0.1114
66669DPPC   C2B32820  16.919  10.331  15.267  0.1929 -0.0004 -0.3503
66669DPPC   C3B32821  17.105  10.154  15.644  0.0070 -0.4502  0.0119
66669DPPC   C4B32822  17.165   9.712  15.886  0.2268 -0.0498  0.0555
66670DPPC   NC332823  21.597  10.721   6.762 -0.1460 -0.1619 -0.0106
66670DPPC   PO432824  21.736  10.194   6.576 -0.1291  0.2124  0.2158
66670DPPC   GL132825  22.120  10.056   6.868 -0.1104  0.0426  0.5186
66670DPPC   GL232826  22.213   9.717   7.020 -0.1097 -0.2840 -0.0020
66670DPPC   C1A32827  22.587  10.047   6.814  0.0177  0.0329 -0.1028
66670DPPC   C2A32828  22.852  10.121   7.054 -0.0402  0.3621 -0.0595
66670DPPC   C3A32829  23.114  10.441   7.302 -0.0222  0.1208  0.1025
66670DPPC   C4A32830  23.304  10.712   7.569 -0.2047  0.2148  0.1650
66670DPPC   C1B32831  22.410   9.876   7.346 -0.3982  0.0645 -0.0908
66670DPPC   C2B32832  22.781  10.070   7.587  0.3352  0.1779 -0.1771
66670DPPC   C3B32833  23.175  10.131   7.847 -0.2416 -0.1512  0.0814
66670DPPC   C4B32834  23.485  10.027   7.988  0.1162 -0.0120  0.1683
66671DPPC   NC332835  19.787   4.613  11.344 -0.0569 -0.0353 -0.2729
66671DPPC   PO432836  20.070   4.955  11.550 -0.0739  0.1756 -0.1348
66671DPPC   GL132837  20.246   4.907  11.873  0.0780 -0.1994  0.2050
66671DPPC   GL232838  20.191   5.116  12.044  0.2188 -0.3887  0.0867
66671DPPC   C1A32839  20.561   4.717  12.091  0.1692  0.6981 -0.0291
66671DPPC   C2A32840  20.864   4.564  12.436  0.2886 -0.0525 -0.1850
66671DPPC   C3A32841  21.061   4.252  12.677 -0.5613 -0.1823 -0.2023
66671DPPC   C4A32842  21.476   4.190  12.975 -0.3353  0.2343  0.0331
66671DPPC   C1B32843  20.456   5.119  12.428 -0.1026  0.2618 -0.1403
66671DPPC   C2B32844  20.727   5.102  12.772 -0.0940 -0.0412  0.0521
66671DPPC   C3B32845  21.026   5.019  12.613  0.2855 -0.0691  0.0600
66671DPPC   C4B32846  21.325   4.681  12.735  0.1266 -0.0756 -0.1943
66672DPPC   NC332847  11.454   5.830  14.208 -0.2615  0.1501 -0.0807
66672DPPC   PO432848  11.601   5.421  14.307 -0.0471  0.2734 -0.0391
66672DPPC   GL132849  11.738   5.262  14.709 -0.1251 -0.2307 -0.1424
66672DPPC   GL232850  11.774   5.508  14.944 -0.2309  0.1883  0.0611
66672DPPC   C1A32851  11.556   5.047  15.103 -0.1123 -0.0801 -0.1078
66672DPPC   C2A32852  11.626   5.082  15.550  0.0990  0.2261  0.3669
66672DPPC   C3A32853  11.871   5.059  15.800 -0.3289 -0.4468 -0.2924
66672DPPC   C4A32854  12.140   5.297  15.781 -0.2339  0.1297 -0.0441
66672DPPC   C1B32855  11.823   5.559  15.370  0.2004  0.1712  0.4411
66672DPPC   C2B32856  11.747   5.598  15.640 -0.1901 -0.2404  0.0336
66672DPPC   C3B32857  11.795   5.518  15.999 -0.1967  0.0638 -0.1341
66672DPPC   C4B32858  12.071   5.164  16.231  0.0545 -0.1722  0.0077
66673POPC   NC332859  32.934  29.941   6.337  0.3307  0.0638  0.1025
66673POPC   PO432860  32.626  30.290   6.435 -0.1221 -0.1959 -0.0416
66673POPC   GL132861  32.687  30.106   6.829  0.0292 -0.0551 -0.1003
66673POPC   GL232862  32.367  29.988   7.013  0.0350  0.2623 -0.0250
66673POPC   C1A32863  32.831  29.765   7.055 -0.0814  0.0803  0.2480
66673POPC   D2A32864  32.743  29.353   7.025  0.0386  0.1241  0.0328
66673POPC   C3A32865  32.734  29.127   6.685  0.0520 -0.2808 -0.1378
66673POPC   C4A32866  32.445  28.894   6.394  0.0538  0.0469  0.1511
66673POPC   C1B32867  32.403  29.585   7.319  0.0631 -0.2472 -0.0115
66673POPC   C2B32868  32.521  29.170   7.449 -0.2930  0.0430 -0.1002
66673POPC   C3B32869  32.440  28.830   7.366 -0.0524  0.1197 -0.0083
66673POPC   C4B32870  32.305  28.454   7.575 -0.1144  0.1854  0.0239
66674POPC   NC332871  33.907  17.846   0.880 -0.0659 -0.2105 -0.1798
66674POPC   PO432872  33.881  18.331   0.774 -0.0422  0.0470 -0.0442
66674POPC   GL132873  33.801  18.236   1.183 -0.1847 -0.0754 -0.3876
66674POPC   GL232874  34.034  18.095   1.257 -0.1254 -0.2130 -0.1113
66674POPC   C1A32875  33.681  18.463   1.549  0.0940 -0.0146  0.0356
66674POPC   D2A32876  33.503  18.630   1.816 -0.0961 -0.0671 -0.2119
66674POPC   C3A32877  33.288  18.561   2.173 -0.0191 -0.0124  0.0501
66674POPC   C4A32878  32.874  18.374   2.267  0.0040  0.0645  0.0572
66674POPC   C1B32879  34.072  18.155   1.632  0.1436  0.1773  0.0824
66674POPC   C2B32880  34.008  18.304   1.978 -0.0434 -0.0662  0.1608
66674POPC   C3B32881  33.816  18.436   2.238  0.0724 -0.1799  0.0026
66674POPC   C4B32882  33.640  18.724   2.515 -0.2051  0.1333  0.1180
66675POPC   NC332883   4.898  31.850  14.050 -0.0895  0.4135 -0.0517
66675POPC   PO432884   4.826  31.463  13.905 -0.0334  0.0752 -0.1685
66675POPC   GL132885   4.665  31.526  14.404 -0.0991 -0.0622  0.3324
66675POPC   GL232886   4.793  31.287  14.629 -0.2607 -0.0983  0.2348
66675POPC   C1A32887   4.495  31.769  14.627 -0.1369  0.0636 -0.0022
66675POPC   D2A32888   4.267  32.008  14.934 -0.1047 -0.2024  0.0499
66675POPC   C3A32889   4.458  32.208  15.203 -0.0507  0.3034  0.0513
66675POPC   C4A32890   4.439  32.586  15.308 -0.1696 -0.2683  0.0892
66675POPC   C1B32891   4.606  31.397  15.001 -0.0797  0.0449  0.3991
66675POPC   C2B32892   4.275  31.700  15.313 -0.0914 -0.0608  0.0900
66675POPC   C3B32893   3.937  31.945  15.336  0.1616  0.2186 -0.1927
66675POPC   C4B32894   3.778  32.352  15.382  0.0600 -0.1609  0.0397
66676POPC   NC332895  26.692   2.463   6.117  0.1630 -0.0852  0.0231
66676POPC   PO432896  27.089   2.757   6.251  0.0522 -0.2140  0.2656
66676POPC   GL132897  27.443   3.091   6.272  0.0958 -0.2135  0.1861
66676POPC   GL232898  27.773   2.977   6.332 -0.0085  0.1433 -0.1835
66676POPC   C1A32899  27.478   3.317   6.602 -0.1774  0.1118  0.0247
66676POPC   D2A32900  27.555   3.436   6.989 -0.2087  0.1156  0.0369
66676POPC   C3A32901  27.823   3.685   7.213  0.3065  0.1670 -0.1390
66676POPC   C4A32902  28.079   3.633   7.544 -0.0963  0.0382 -0.0551
66676POPC   C1B32903  27.789   2.973   6.778 -0.1978  0.0214  0.1622
66676POPC   C2B32904  27.865   3.067   7.190  0.1185 -0.1160 -0.0462
66676POPC   C3B32905  28.021   3.112   7.570 -0.2140  0.2336 -0.2370
66676POPC   C4B32906  28.123   2.779   7.871  0.1549 -0.0665  0.0198
66677POPC   NC332907  34.049   9.944   2.289 -0.1003  0.0795 -0.3113
66677POPC   PO432908  34.101  10.347   2.372  0.0341  0.2497 -0.2747
66677POPC   GL132909  33.936  10.757   2.693  0.1304 -0.1219 -0.1422
66677POPC   GL232910  33.896  11.065   2.572  0.1335 -0.2523  0.1034
66677POPC   C1A32911  33.484  10.730   2.963 -0.2260  0.0931  0.1741
66677POPC   D2A32912  33.008  10.755   2.912  0.1241  0.2169  0.3446
66677POPC   C3A32913  32.914  10.886   3.356  0.1918 -0.0215  0.3222
66677POPC   C4A32914  32.499  10.931   3.539 -0.1281 -0.0848 -0.3266
66677POPC   C1B32915  33.803  11.141   3.067  0.0134  0.0280  0.1880
66677POPC   C2B32916  33.401  10.955   3.410 -0.0810  0.3927  0.1840
66677POPC   C3B32917  33.179  10.984   3.812  0.2638 -0.2159  0.0432
66677POPC   C4B32918  33.251  11.397   4.034 -0.1616  0.0067  0.4547
66678POPC   NC332919   1.537  18.018   2.476 -0.1616  0.1062 -0.0684
66678POPC   PO432920   1.459  18.488   2.359  0.0818 -0.2592 -0.1608
66678POPC   GL132921   1.167  18.276   2.728 -0.6656 -0.2140  0.0614
66678POPC   GL232922   1.386  18.190   3.031 -0.3373  0.0444  0.2472
66678POPC   C1A32923   0.983  17.867   2.831  0.2253  0.0387  0.0565
66678POPC   D2A32924   1.069  17.620   3.153  0.1550 -0.2058  0.0436
66678POPC   C3A32925   0.701  17.726   3.317  0.0613 -0.1104 -0.0658
66678POPC   C4A32926   0.293  17.757   3.531  0.4089 -0.2786 -0.1632
66678POPC   C1B32927   1.070  18.048   3.412 -0.0856  0.0253 -0.0815
66678POPC   C2B32928   0.946  17.971   3.763  0.0983  0.2878 -0.1757
66678POPC   C3B32929   0.577  17.929   4.090  0.3263 -0.0746  0.0850
66678POPC   C4B32930   0.203  18.022   3.886  0.0344 -0.0659 -0.1453
66679POPC   NC332931  17.124  11.042  13.274  0.2948  0.0953  0.1550
66679POPC   PO432932  16.930  10.916  13.660  0.2115  0.0383 -0.0723
66679POPC   GL132933  17.160  10.809  14.026  0.0448  0.2498 -0.3548
66679POPC   GL232934  17.355  10.721  13.863 -0.1510 -0.2823 -0.0750
66679POPC   C1A32935  17.320  10.761  14.376  0.0083 -0.1386  0.0189
66679POPC   D2A32936  17.524  10.663  14.739  0.1785 -0.0002 -0.0024
66679POPC   C3A32937  17.547  10.886  15.092 -0.3693 -0.3063 -0.0216
66679POPC   C4A32938  17.635  10.979  15.522 -0.0171  0.0912 -0.3062
66679POPC   C1B32939  17.705  10.614  13.988  0.3006 -0.2755 -0.0062
66679POPC   C2B32940  17.855  10.714  14.406  0.4225 -0.1863 -0.1494
66679POPC   C3B32941  17.992  10.765  14.892  0.1906 -0.0884 -0.1593
66679POPC   C4B32942  18.080  10.824  15.312 -0.1679 -0.1297 -0.1823
66680POPC   NC332943  22.776  21.206   3.871  0.3194 -0.2523 -0.1651
66680POPC   PO432944  22.737  21.250   4.270  0.1642  0.2029 -0.2071
66680POPC   GL132945  22.935  21.060   4.584 -0.0611 -0.2051  0.0262
66680POPC   GL232946  22.879  20.925   4.959  0.1079  0.0426 -0.0125
66680POPC   C1A32947  23.348  20.873   4.670 -0.0367 -0.3841 -0.0528
66680POPC   D2A32948  23.803  20.708   4.706  0.0404  0.1381 -0.0128
66680POPC   C3A32949  24.181  21.023   4.515 -0.2723  0.0890  0.0494
66680POPC   C4A32950  24.504  20.870   4.111  0.0249 -0.3073 -0.1935
66680POPC   C1B32951  23.242  20.762   5.164  0.0449 -0.3841  0.4551
66680POPC   C2B32952  23.432  20.605   5.518 -0.1469 -0.2072 -0.2745
66680POPC   C3B32953  23.703  20.788   5.826  0.0307  0.0069  0.1716
66680POPC   C4B32954  24.170  20.710   5.880  0.0979  0.1322  0.2169
66681POPC   NC332955  30.828  25.271   0.702  0.1396 -0.1925 -0.0674
66681POPC   PO432956  30.859  24.828   0.868 -0.1746  0.0325  0.2420
66681POPC   GL132957  30.899  24.667   1.207  0.0538 -0.2320 -0.0713
66681POPC   GL232958  30.541  24.707   1.292 -0.2357 -0.1020 -0.5135
66681POPC   C1A32959  30.849  24.285   1.454 -0.1516 -0.1758  0.2531
66681POPC   D2A32960  31.035  24.250   1.846  0.0485 -0.0826  0.0406
66681POPC   C3A32961  31.150  23.810   2.006 -0.1405 -0.2589 -0.1654
66681POPC   C4A32962  31.320  23.517   1.935 -0.1693 -0.1208  0.3189
66681POPC   C1B32963  30.311  24.504   1.510  0.1462  0.0941 -0.0041
66681POPC   C2B32964  30.407  24.423   1.870  0.2276 -0.2286 -0.0464
66681POPC   C3B32965  30.424  24.560   2.030 -0.1557 -0.0735  0.1055
66681POPC   C4B32966  30.348  24.652   2.345 -0.1810  0.2013  0.1322
66682POPC   NC332967  18.243  19.578  11.976 -0.0173 -0.0496 -0.0467
66682POPC   PO432968  18.611  19.376  12.133 -0.2230 -0.4380 -0.0930
66682POPC   GL132969  18.790  19.397  12.514  0.3560  0.0379  0.0867
66682POPC   GL232970  18.976  19.614  12.653  0.0244  0.3969 -0.0838
66682POPC   C1A32971  18.840  19.032  12.660  0.2368  0.2653  0.5194
66682POPC   D2A32972  19.170  18.739  12.877  0.0613 -0.0904  0.2210
66682POPC   C3A32973  19.139  18.277  12.899 -0.2872  0.0548 -0.1218
66682POPC   C4A32974  19.224  18.002  13.116  0.0606  0.3042  0.0840
66682POPC   C1B32975  19.263  19.431  12.948 -0.1920 -0.2755 -0.2513
66682POPC   C2B32976  19.635  19.383  13.205  0.5093 -0.2547  0.0628
66682POPC   C3B32977  19.854  19.384  13.585 -0.0055  0.2113 -0.2402
66682POPC   C4B32978  19.718  19.354  14.061  0.5457  0.0730  0.0056
66683POPC   NC332979  29.323  16.792  25.795  0.0410 -0.0211 -0.1425
66683POPC   PO432980  29.671  17.057  26.069  0.0618 -0.0322  0.2414
66683POPC   GL132981  29.435  16.876   0.196 -0.1470 -0.0908  0.1056
66683POPC   GL232982  29.667  16.606   0.436 -0.0332 -0.0371  0.0035
66683POPC   C1A32983  29.100  16.769   0.530  0.1993 -0.0867  0.0647
66683POPC   D2A32984  28.775  16.476   0.798 -0.0483  0.0576 -0.0965
66683POPC   C3A32985  28.634  16.544   1.230  0.1893  0.1802  0.1480
66683POPC   C4A32986  28.479  16.260   1.556  0.0987  0.0055  0.2327
66683POPC   C1B32987  29.608  16.805   0.794 -0.0006 -0.1208  0.0967
66683POPC   C2B32988  29.549  16.930   1.129  0.4398  0.0441 -0.0257
66683POPC   C3B32989  29.561  17.131   1.519  0.0022  0.2216  0.3339
66683POPC   C4B32990  29.575  17.458   1.903 -0.0941  0.3052  0.0489
66684POPC   NC332991   1.755   3.290   7.861 -0.0953 -0.0496  0.1882
66684POPC   PO432992   1.838   3.451   8.399 -0.5544 -0.0038  0.1621
66684POPC   GL132993   1.861   3.583   8.861 -0.0312  0.1075 -0.0542
66684POPC   GL232994   2.181   3.483   9.029 -0.4111  0.3264  0.0330
66684POPC   C1A32995   1.535   3.846   9.210 -0.4275 -0.1740 -0.2958
66684POPC   D2A32996   1.286   3.964   9.453  0.0412  0.1614  0.0664
66684POPC   C3A32997   1.238   4.012   9.968 -0.0444 -0.1320  0.2152
66684POPC   C4A32998   1.195   4.362  10.286  0.0838 -0.0857  0.0356
66684POPC   C1B32999   2.043   3.690   9.392  0.0436  0.1818  0.0171
66684POPC   C2B33000   1.836   3.859   9.694  0.3208 -0.4101  0.1684
66684POPC   C3B33001   1.677   4.054  10.021 -0.1578 -0.3895 -0.0785
66684POPC   C4B33002   1.647   4.182  10.385 -0.0122  0.0158 -0.2998
66685POPC   NC333003  34.487   5.162   7.285 -0.0560 -0.2763 -0.1613
66685POPC   PO433004  34.303   4.679   7.419  0.1866 -0.1176  0.3582
66685POPC   GL133005  34.266   4.940   7.666  0.1570  0.3402 -0.2150
66685POPC   GL233006  34.048   5.142   7.573  0.1649 -0.0238  0.2888
66685POPC   C1A33007  33.949   4.802   7.993 -0.5017 -0.3403  0.1245
66685POPC   D2A33008  33.635   4.859   8.330 -0.2321  0.1580 -0.0502
66685POPC   C3A33009  33.424   5.137   8.612 -0.1328  0.0516 -0.0822
66685POPC   C4A33010  32.992   5.342   8.567 -0.2803  0.3540  0.1779
66685POPC   C1B33011  33.750   5.277   7.819 -0.3518  0.0907  0.0356
66685POPC   C2B33012  33.845   5.301   8.208 -0.1924  0.0654 -0.1844
66685POPC   C3B33013  33.826   5.369   8.642  0.2415 -0.0180 -0.2035
66685POPC   C4B33014  33.805   5.613   8.992 -0.1184  0.2535  0.4666
66686POPC   NC333015   7.412  20.620  11.994 -0.3676 -0.4546  0.1324
66686POPC   PO433016   7.502  20.283  12.006 -0.1203 -0.0433  0.2077
66686POPC   GL133017   7.106  20.105  12.139 -0.2063  0.1875  0.1482
66686POPC   GL233018   6.996  20.221  12.378  0.1029 -0.0722  0.2523
66686POPC   C1A33019   6.683  19.783  12.159 -0.2809 -0.1353  0.2378
66686POPC   D2A33020   6.152  19.700  12.175 -0.4001  0.3548  0.0098
66686POPC   C3A33021   5.894  20.017  11.979 -0.0094  0.0628 -0.4258
66686POPC   C4A33022   5.748  19.964  11.547 -0.0124 -0.0842  0.1394
66686POPC   C1B33023   6.527  20.253  12.255  0.2424 -0.0988 -0.2664
66686POPC   C2B33024   6.048  20.203  12.445 -0.3444 -0.1671  0.1229
66686POPC   C3B33025   5.679  20.262  12.361  0.3373 -0.0883  0.0247
66686POPC   C4B33026   5.330  20.477  12.261  0.0240 -0.0002 -0.0323
66687POPC   NC333027  11.319  34.063  15.687 -0.0250 -0.2076 -0.0402
66687POPC   PO433028  11.211  33.711  15.848 -0.3291  0.0677  0.1265
66687POPC   GL133029  11.500  33.773  16.321 -0.2245 -0.0368 -0.2569
66687POPC   GL233030  11.466  33.572  16.642  0.0709 -0.1392  0.1996
66687POPC   C1A33031  11.595  34.116  16.637 -0.3110  0.1493 -0.2109
66687POPC   D2A33032  11.730  34.328  16.996 -0.0647 -0.3157 -0.0209
66687POPC   C3A33033  12.073  34.607  17.101  0.0021  0.2102 -0.0826
66687POPC   C4A33034  12.324  34.749  17.484  0.1262 -0.1882  0.2380
66687POPC   C1B33035  11.572  33.767  17.073  0.0180 -0.0079  0.1582
66687POPC   C2B33036  11.598  34.060  17.374 -0.1092 -0.1524 -0.0214
66687POPC   C3B33037  11.730  34.242  17.706 -0.1469  0.0997  0.1113
66687POPC   C4B33038  11.946  33.989  17.981 -0.1804  0.0155 -0.0876
66688POPC   NC333039   9.228  13.683  12.878  0.0168  0.4119 -0.2278
66688POPC   PO433040   9.221  13.836  13.396  0.4289 -0.1025  0.1327
66688POPC   GL133041   9.080  14.114  13.768 -0.3316 -0.1629 -0.1100
66688POPC   GL233042   9.050  14.443  14.023 -0.0163 -0.2709  0.1434
66688POPC   C1A33043   9.085  13.844  14.102  0.2406  0.1969 -0.2731
66688POPC   D2A33044   8.939  13.725  14.506  0.2019 -0.0474  0.1532
66688POPC   C3A33045   8.718  14.020  14.703 -0.0034 -0.1143 -0.0334
66688POPC   C4A33046   8.358  14.171  14.944 -0.2319 -0.1667  0.0154
66688POPC   C1B33047   8.808  14.264  14.266  0.2159  0.1129  0.0775
66688POPC   C2B33048   8.550  14.480  14.518 -0.4198 -0.0763  0.1217
66688POPC   C3B33049   8.329  14.683  14.855 -0.0402 -0.0130 -0.2199
66688POPC   C4B33050   8.383  15.056  15.008  0.0239  0.1183  0.1164
66689POPC   NC333051  19.269  26.780   9.569 -0.1951 -0.1214 -0.0004
66689POPC   PO433052  19.623  26.437   9.520 -0.1972  0.2843  0.0938
66689POPC   GL133053  20.027  26.418   9.714  0.2598  0.3328 -0.0856
66689POPC   GL233054  20.096  26.162   9.823 -0.0702 -0.0458  0.0832
66689POPC   C1A33055  20.182  26.573  10.102 -0.1706 -0.0783  0.0981
66689POPC   D2A33056  20.379  26.724  10.497  0.1987 -0.1744  0.0308
66689POPC   C3A33057  20.736  26.737  10.614 -0.3231 -0.0677  0.0048
66689POPC   C4A33058  21.179  26.823  10.617  0.1698  0.3615  0.1308
66689POPC   C1B33059  20.522  26.169   9.961 -0.0764 -0.0202 -0.0738
66689POPC   C2B33060  20.682  26.261  10.384  0.1897 -0.0597 -0.0539
66689POPC   C3B33061  20.864  26.229  10.747 -0.1062 -0.1616  0.0460
66689POPC   C4B33062  21.316  26.370  10.853  0.0280  0.0721  0.1759
66690POPC   NC333063  27.794  25.388   0.787 -0.1220  0.1548 -0.1193
66690POPC   PO433064  27.836  25.200   1.226  0.2029 -0.2387 -0.1863
66690POPC   GL133065  27.807  24.978   1.634 -0.1800 -0.2490 -0.0438
66690POPC   GL233066  27.850  25.180   1.845  0.1349  0.0985 -0.3118
66690POPC   C1A33067  27.589  24.796   2.015 -0.1929  0.0995  0.0827
66690POPC   D2A33068  27.746  24.391   2.181  0.0884  0.1156  0.3222
66690POPC   C3A33069  27.526  24.034   2.482 -0.0574  0.1041  0.0281
66690POPC   C4A33070  27.268  23.908   2.817  0.1254  0.1120  0.0529
66690POPC   C1B33071  28.036  24.899   2.072 -0.1193  0.0431  0.0924
66690POPC   C2B33072  28.012  24.764   2.495  0.1591  0.0419  0.0574
66690POPC   C3B33073  28.225  24.560   2.852 -0.1096  0.0284 -0.3133
66690POPC   C4B33074  28.552  24.412   3.093  0.0163 -0.1436  0.1477
66691POPC   NC333075   0.109   2.844   8.284  0.0341  0.0242  0.3152
66691POPC   PO433076  35.359   2.520   8.692  0.1702 -0.1065  0.0106
66691POPC   GL133077  35.340   2.747   8.910 -0.0547 -0.2120 -0.1189
66691POPC   GL233078  35.005   2.886   8.728 -0.2338 -0.1930  0.3791
66691POPC   C1A33079  35.228   2.942   9.286 -0.0070  0.1979 -0.0263
66691POPC   D2A33080  34.932   3.243   9.519 -0.2228 -0.1889  0.0299
66691POPC   C3A33081  34.960   3.583   9.717 -0.0116 -0.0980 -0.3919
66691POPC   C4A33082  35.175   3.831  10.022  0.1044 -0.2634 -0.1258
66691POPC   C1B33083  34.696   2.946   9.077  0.0794  0.0945 -0.1594
66691POPC   C2B33084  34.503   3.081   9.384 -0.2192  0.0718  0.4378
66691POPC   C3B33085  34.600   3.108   9.887 -0.0940 -0.1929  0.1852
66691POPC   C4B33086  34.783   2.948  10.326 -0.4218 -0.0774 -0.5255
66692POPC   NC333087  20.592  23.735   8.763  0.1687  0.1066  0.1904
66692POPC   PO433088  20.462  23.910   9.006 -0.1000 -0.2381  0.3395
66692POPC   GL133089  20.787  24.149   9.190 -0.4377  0.1367  0.2510
66692POPC   GL233090  20.979  24.114   9.418 -0.1034  0.2022  0.3593
66692POPC   C1A33091  21.154  24.426   9.047 -0.0783  0.2928 -0.2658
66692POPC   D2A33092  21.516  24.588   8.951 -0.4605 -0.1744 -0.1753
66692POPC   C3A33093  21.835  24.642   9.209 -0.1145 -0.0156  0.0599
66692POPC   C4A33094  22.182  24.617   9.503 -0.1952 -0.1130 -0.2685
66692POPC   C1B33095  21.291  23.834   9.457  0.3388 -0.2027 -0.0318
66692POPC   C2B33096  21.699  23.769   9.557 -0.1841  0.1424  0.0826
66692POPC   C3B33097  22.002  23.731   9.709 -0.1640  0.2361 -0.2093
66692POPC   C4B33098  22.379  23.680   9.709  0.0362 -0.0282 -0.0252
66693POPC   NC333099   0.520  18.936   1.673 -0.1971 -0.0159 -0.0709
66693POPC   PO433100   0.235  19.119   1.695  0.0268 -0.0372  0.1710
66693POPC   GL133101   0.259  19.075   2.126  0.0392  0.1278 -0.2259
66693POPC   GL233102   0.339  19.401   2.244  0.0377  0.0159  0.0028
66693POPC   C1A33103  35.381  18.881   2.358  0.3780  0.0423  0.1325
66693POPC   D2A33104  35.190  18.715   2.693 -0.0845  0.0386 -0.0851
66693POPC   C3A33105  34.798  18.671   2.960  0.0743 -0.2696  0.2797
66693POPC   C4A33106  34.409  18.735   3.194 -0.1412  0.1456 -0.0228
66693POPC   C1B33107   0.119  19.295   2.613  0.3264  0.1308 -0.0539
66693POPC   C2B33108  35.186  19.284   2.805 -0.0878  0.0323 -0.0053
66693POPC   C3B33109  34.860  19.563   2.920  0.1382 -0.0649  0.2493
66693POPC   C4B33110  34.430  19.832   3.003 -0.3186 -0.1159  0.3690
66694DOPC   NC333111  14.919   0.582  11.964 -0.0265 -0.1775  0.1588
66694DOPC   PO433112  14.967   0.686  12.353  0.0705 -0.1795  0.1276
66694DOPC   GL133113  15.240   0.557  12.682 -0.1469  0.0965 -0.4074
66694DOPC   GL233114  15.525   0.391  12.664  0.1407  0.1610  0.1724
66694DOPC   C1A33115  15.247   0.158  13.008  0.1690  0.0702  0.0424
66694DOPC   D2A33116  15.415  35.122  13.248  0.1638  0.0214  0.0341
66694DOPC   C3A33117  15.261  34.986  13.665  0.1410 -0.0242  0.2007
66694DOPC   C4A33118  15.587  34.848  13.946  0.2250 -0.0789  0.0866
66694DOPC   C1B33119  15.865   0.457  12.952 -0.1217  0.0516  0.2141
66694DOPC   D2B33120  16.133   0.479  13.311 -0.0108  0.0101  0.0228
66694DOPC   C3B33121  16.168   0.103  13.677  0.1383  0.1440  0.0459
66694DOPC   C4B33122  15.967   0.297  14.062  0.3704 -0.3915 -0.0111
66695DOPC   NC333123   5.841   9.101  10.561 -0.0248 -0.4181  0.0963
66695DOPC   PO433124   5.917   8.825  10.949  0.3162  0.0555  0.2108
66695DOPC   GL133125   5.620   8.472  11.091  0.0907 -0.2720 -0.1126
66695DOPC   GL233126   5.584   8.659  11.321  0.0875 -0.0738 -0.0615
66695DOPC   C1A33127   5.793   8.239  11.515  0.2293  0.2167 -0.1108
66695DOPC   D2A33128   5.514   8.202  11.845  0.3855  0.0936  0.0619
66695DOPC   C3A33129   5.418   8.271  12.290 -0.3323  0.1837  0.1884
66695DOPC   C4A33130   5.327   8.556  12.693  0.0328  0.1965  0.1737
66695DOPC   C1B33131   5.404   8.695  11.613  0.2585  0.1513  0.0748
66695DOPC   D2B33132   5.115   8.459  11.952  0.2703 -0.1381 -0.1228
66695DOPC   C3B33133   4.966   8.665  12.375  0.0483  0.1152  0.0511
66695DOPC   C4B33134   4.959   8.830  12.856  0.0519 -0.0780  0.1247
66696DOPC   NC333135   1.564  28.458   8.775 -0.1551  0.1079  0.0590
66696DOPC   PO433136   1.378  28.472   9.199 -0.0598  0.1869  0.0920
66696DOPC   GL133137   1.246  28.235   9.625  0.1703 -0.1249 -0.0927
66696DOPC   GL233138   1.109  28.572   9.759 -0.1777  0.3030  0.1302
66696DOPC   C1A33139   1.044  28.045   9.965 -0.0856 -0.3883 -0.0769
66696DOPC   D2A33140   0.962  27.525  10.054  0.0186  0.0079  0.1087
66696DOPC   C3A33141   0.992  27.339  10.439 -0.3941  0.1432 -0.2251
66696DOPC   C4A33142   1.323  27.400  10.679  0.0531 -0.1036 -0.1258
66696DOPC   C1B33143   0.711  28.390   9.936 -0.0769  0.3538  0.5217
66696DOPC   D2B33144   0.334  28.330  10.227 -0.0621 -0.1888 -0.3363
66696DOPC   C3B33145  35.318  28.253  10.096  0.2447  0.0237 -0.0164
66696DOPC   C4B33146  34.912  28.245  10.272  0.2254  0.3991  0.2012
66697DOPC   NC333147  15.013   5.320  13.017  0.0500  0.0901  0.1059
66697DOPC   PO433148  15.362   5.178  12.993 -0.0889 -0.2103  0.1480
66697DOPC   GL133149  15.560   4.934  13.385 -0.2252 -0.0131  0.2256
66697DOPC   GL233150  15.745   4.710  13.407  0.2889  0.1586 -0.3104
66697DOPC   C1A33151  15.722   4.989  13.856  0.0531  0.0296 -0.2511
66697DOPC   D2A33152  15.761   5.163  14.218 -0.0304 -0.0036  0.0748
66697DOPC   C3A33153  16.154   5.280  14.351  0.0060 -0.0654  0.2345
66697DOPC   C4A33154  16.307   5.105  14.737  0.0711  0.0163  0.0260
66697DOPC   C1B33155  15.878   4.424  13.734 -0.0307 -0.1738 -0.0758
66697DOPC   D2B33156  16.060   4.277  14.122 -0.2178  0.3267  0.0011
66697DOPC   C3B33157  15.821   3.880  13.994  0.0015  0.3327  0.2046
66697DOPC   C4B33158  15.917   3.495  14.135 -0.3591  0.1715  0.3232
66698DOPC   NC333159  34.172  30.237   7.963  0.0091  0.1171  0.1268
66698DOPC   PO433160  33.790  30.065   7.758  0.1577  0.0829  0.0308
66698DOPC   GL133161  33.586  29.768   7.836 -0.1703  0.1800  0.0608
66698DOPC   GL233162  33.726  29.459   7.644  0.0907  0.2659  0.0207
66698DOPC   C1A33163  33.291  29.683   8.125  0.3368 -0.2599 -0.0671
66698DOPC   D2A33164  32.908  29.554   8.428 -0.1336 -0.1299 -0.0190
66698DOPC   C3A33165  32.681  29.716   8.674 -0.1287  0.1780 -0.1571
66698DOPC   C4A33166  32.502  30.018   8.978  0.0716 -0.0722  0.0558
66698DOPC   C1B33167  33.445  29.285   7.909  0.3612  0.2327  0.0279
66698DOPC   D2B33168  33.207  29.106   8.329 -0.2268 -0.3241  0.1607
66698DOPC   C3B33169  32.956  29.018   8.538 -0.1249 -0.0681  0.0421
66698DOPC   C4B33170  32.652  29.225   8.747 -0.1050  0.2952  0.0539
66699DOPC   NC333171   7.833  20.091  13.581  0.2714  0.1105  0.0307
66699DOPC   PO433172   7.588  20.476  13.878 -0.0208  0.3247  0.1211
66699DOPC   GL133173   7.221  20.354  14.120 -0.0698  0.0594  0.4297
66699DOPC   GL233174   7.128  20.656  14.202  0.0712 -0.0538 -0.2429
66699DOPC   C1A33175   6.973  20.101  14.288  0.2480  0.1892 -0.3532
66699DOPC   D2A33176   6.668  20.087  14.369 -0.1548  0.0062  0.0125
66699DOPC   C3A33177   6.493  19.917  14.407  0.1017  0.0739 -0.1120
66699DOPC   C4A33178   6.583  19.525  14.578 -0.0608 -0.0773 -0.0555
66699DOPC   C1B33179   6.858  20.568  14.478 -0.1575  0.0396  0.1771
66699DOPC   D2B33180   6.501  20.553  14.529  0.0443  0.2097 -0.0171
66699DOPC   C3B33181   6.278  20.283  14.712 -0.1805 -0.0507  0.3843
66699DOPC   C4B33182   6.036  20.154  15.066  0.0827 -0.0939  0.2259
66700DOPC   NC333183  29.804  22.491   0.187  0.0389 -0.0310  0.2263
66700DOPC   PO433184  29.616  22.814  26.174 -0.1283 -0.0515 -0.1207
66700DOPC   GL133185  29.646  22.945   0.426  0.1099 -0.0055 -0.0737
66700DOPC   GL233186  29.787  22.784   0.544 -0.2189  0.0784  0.0522
66700DOPC   C1A33187  29.369  22.643   0.827  0.2659 -0.0261  0.4093
66700DOPC   D2A33188  29.369  22.437   1.281  0.4796 -0.1353  0.1826
66700DOPC   C3A33189  29.148  22.048   1.380 -0.2009 -0.1067  0.0065
66700DOPC   C4A33190  28.839  21.824   1.521  0.3287 -0.1980  0.0048
66700DOPC   C1B33191  29.875  22.728   0.990 -0.1229  0.0425 -0.2028
66700DOPC   D2B33192  29.918  22.527   1.354 -0.2178 -0.1666 -0.1390
66700DOPC   C3B33193  29.818  22.221   1.582  0.3329  0.0101 -0.2501
66700DOPC   C4B33194  29.470  22.205   1.727 -0.2418  0.1705 -0.2104
66701DOPC   NC333195  35.080  12.505   1.879 -0.0085 -0.0898 -0.1191
66701DOPC   PO433196  34.625  12.555   2.032 -0.2146 -0.1511 -0.1408
66701DOPC   GL133197  34.412  12.491   2.413  0.0672  0.0379 -0.1959
66701DOPC   GL233198  34.456  12.164   2.538 -0.1153  0.0312  0.2034
66701DOPC   C1A33199  34.056  12.487   2.721 -0.1503 -0.2248 -0.0519
66701DOPC   D2A33200  33.804  12.589   3.002 -0.1664 -0.1978  0.1532
66701DOPC   C3A33201  33.732  12.958   2.931 -0.2249  0.3161 -0.1875
66701DOPC   C4A33202  33.558  13.136   2.541  0.0485 -0.1499 -0.4507
66701DOPC   C1B33203  34.622  12.380   2.813 -0.0236  0.2662 -0.0362
66701DOPC   D2B33204  34.705  12.772   3.069  0.1991  0.1364 -0.0938
66701DOPC   C3B33205  34.582  12.857   3.484 -0.2173 -0.1610  0.1904
66701DOPC   C4B33206  34.403  12.624   3.726  0.0065  0.0736  0.1172
66702DOPC   NC333207  30.608   2.838   6.573 -0.0346 -0.2986 -0.0614
66702DOPC   PO433208  30.921   2.779   6.702  0.1244 -0.1577  0.2342
66702DOPC   GL133209  30.778   3.221   6.904 -0.1192  0.0617  0.2052
66702DOPC   GL233210  30.432   3.062   6.976 -0.0517  0.4601 -0.0634
66702DOPC   C1A33211  30.659   3.429   7.266  0.3071 -0.3194  0.0994
66702DOPC   D2A33212  30.338   3.542   7.534 -0.0596 -0.2490  0.2079
66702DOPC   C3A33213  30.264   3.281   7.829 -0.0276  0.0891  0.0864
66702DOPC   C4A33214  30.128   3.294   8.287 -0.2583 -0.0477 -0.0907
66702DOPC   C1B33215  30.637   2.816   7.301  0.3648 -0.0870 -0.1571
66702DOPC   D2B33216  30.657   2.950   7.695  0.1604  0.1391  0.1259
66702DOPC   C3B33217  30.655   3.148   8.077  0.1366  0.1445 -0.0528
66702DOPC   C4B33218  30.645   3.427   8.390 -0.3219  0.3155  0.3583
66703DOPC   NC333219  18.556  30.740  10.004 -0.0069  0.0258  0.0177
66703DOPC   PO433220  18.523  31.183  10.042  0.0458  0.0491  0.0852
66703DOPC   GL133221  18.727  31.347  10.397  0.0594  0.0234 -0.0278
66703DOPC   GL233222  18.729  31.000  10.457 -0.1120  0.1227 -0.1638
66703DOPC   C1A33223  19.080  31.666  10.548  0.0608  0.2602 -0.4419
66703DOPC   D2A33224  19.344  31.821  10.829 -0.0435  0.1893 -0.1617
66703DOPC   C3A33225  19.397  31.820  11.205 -0.0806 -0.0379  0.1224
66703DOPC   C4A33226  19.700  31.591  11.513 -0.1226  0.3718  0.1031
66703DOPC   C1B33227  19.004  30.926  10.724  0.1581  0.1459  0.3503
66703DOPC   D2B33228  19.249  30.891  11.048 -0.0786 -0.0531  0.3974
66703DOPC   C3B33229  19.394  30.515  10.981 -0.0831  0.0268 -0.2086
66703DOPC   C4B33230  19.661  30.291  11.110 -0.1377 -0.2859 -0.0770
66704DOPC   NC333231   3.901  27.335  11.880 -0.0838 -0.1843  0.1133
66704DOPC   PO433232   4.016  27.105  12.179 -0.0492 -0.2201  0.1580
66704DOPC   GL133233   3.583  26.969  12.325  0.0207  0.1360 -0.2132
66704DOPC   GL233234   3.390  27.036  12.628 -0.1271 -0.0149  0.0689
66704DOPC   C1A33235   3.289  26.603  12.374 -0.1126  0.1694  0.2344
66704DOPC   D2A33236   3.027  26.346  12.281  0.3166  0.1532 -0.0437
66704DOPC   C3A33237   2.762  26.078  12.514 -0.3396  0.2381  0.2130
66704DOPC   C4A33238   2.753  25.747  12.453  0.0935 -0.0088 -0.3434
66704DOPC   C1B33239   3.177  26.745  12.817 -0.1561 -0.1257  0.1397
66704DOPC   D2B33240   3.100  26.379  12.766 -0.0427  0.0972 -0.1163
66704DOPC   C3B33241   2.877  26.118  13.000 -0.2820 -0.1956 -0.0150
66704DOPC   C4B33242   3.033  25.884  13.317  0.1077  0.0851  0.0299
66705DOPC   NC333243  18.205  33.590   9.479  0.1256  0.2094  0.1779
66705DOPC   PO433244  18.291  33.872   9.838 -0.2737 -0.3718 -0.1419
66705DOPC   GL133245  18.613  34.079  10.046  0.0463 -0.0609  0.1150
66705DOPC   GL233246  18.432  34.311  10.139  0.1573 -0.3287  0.5167
66705DOPC   C1A33247  18.905  34.039  10.364 -0.1006 -0.1480  0.0888
66705DOPC   D2A33248  19.169  34.067  10.776  0.1119  0.2130  0.2399
66705DOPC   C3A33249  19.325  34.138  11.052  0.1413  0.3019  0.0662
66705DOPC   C4A33250  19.648  34.093  11.275 -0.3573 -0.0266 -0.1685
66705DOPC   C1B33251  18.504  34.587  10.545  0.1082  0.0317  0.0674
66705DOPC   D2B33252  18.765  34.927  10.697  0.0950  0.0491 -0.1566
66705DOPC   C3B33253  19.199  34.923  10.477 -0.0545  0.0535 -0.2143
66705DOPC   C4B33254  19.486  34.755  10.518 -0.3274  0.2450 -0.2207
66706DOPC   NC333255   9.174   5.021  14.718 -0.0402  0.1086 -0.0933
66706DOPC   PO433256   9.307   4.675  14.963 -0.3135 -0.1593 -0.1282
66706DOPC   GL133257   9.059   4.868  15.269 -0.2253 -0.3055  0.2048
66706DOPC   GL233258   9.181   5.123  15.259 -0.0461 -0.3797 -0.0354
66706DOPC   C1A33259   8.881   4.994  15.666  0.0222 -0.2176  0.1900
66706DOPC   D2A33260   8.703   5.148  16.007  0.0324 -0.1529  0.0336
66706DOPC   C3A33261   8.744   5.237  16.357  0.0080  0.2098 -0.0121
66706DOPC   C4A33262   8.799   5.215  16.796 -0.1224  0.0631 -0.0783
66706DOPC   C1B33263   9.424   4.983  15.661 -0.0579  0.0608 -0.2266
66706DOPC   D2B33264   9.619   5.013  16.079  0.1360 -0.0496 -0.0429
66706DOPC   C3B33265   9.641   4.794  16.408  0.3371  0.1406  0.1030
66706DOPC   C4B33266   9.511   4.505  16.508  0.0029 -0.1093  0.1653
66707DOPC   NC333267  11.128  27.953  17.322  0.1475 -0.1349 -0.3187
66707DOPC   PO433268  10.977  28.011  17.622  0.1609 -0.0979 -0.0639
66707DOPC   GL133269  10.921  28.400  17.768  0.0220 -0.0726 -0.3167
66707DOPC   GL233270  10.601  28.511  17.678  0.2597 -0.1373  0.1151
66707DOPC   C1A33271  11.026  28.589  18.191 -0.0500 -0.0815 -0.0610
66707DOPC   D2A33272  11.157  28.411  18.510  0.1414 -0.3821 -0.1264
66707DOPC   C3A33273  10.889  28.530  18.857  0.3066 -0.0427  0.2268
66707DOPC   C4A33274  10.804  28.700  19.233 -0.4110  0.2271 -0.0887
66707DOPC   C1B33275  10.549  28.662  18.074 -0.2161  0.1659  0.0119
66707DOPC   D2B33276  10.522  28.606  18.520 -0.2178 -0.0965 -0.1890
66707DOPC   C3B33277  10.336  28.562  18.920  0.1209  0.2009  0.1931
66707DOPC   C4B33278  10.070  28.253  19.043 -0.2345  0.0147 -0.0402
66708DOPC   NC333279  13.371  25.932  17.653 -0.3118 -0.2589 -0.1746
66708DOPC   PO433280  13.614  25.693  17.823 -0.0694  0.0451 -0.1480
66708DOPC   GL133281  13.766  25.857  18.195 -0.3202  0.0583  0.4159
66708DOPC   GL233282  14.025  26.104  18.182  0.0386  0.1947  0.0641
66708DOPC   C1A33283  13.801  26.068  18.621 -0.1743  0.2487  0.0310
66708DOPC   D2A33284  13.733  26.356  18.964  0.1809  0.0986 -0.2204
66708DOPC   C3A33285  13.641  26.437  19.415 -0.1543  0.3308 -0.1704
66708DOPC   C4A33286  13.444  26.801  19.552 -0.0767  0.0540  0.1762
66708DOPC   C1B33287  14.288  26.174  18.510 -0.0158 -0.0392  0.1026
66708DOPC   D2B33288  14.430  26.396  18.857 -0.0249 -0.0463  0.1687
66708DOPC   C3B33289  14.561  26.750  18.757  0.3027  0.1542 -0.1450
66708DOPC   C4B33290  14.694  27.073  18.905  0.0112  0.1060  0.1227
66709DOPC   NC333291  19.192   9.224  12.305  0.0825 -0.2950 -0.0663
66709DOPC   PO433292  19.390   9.590  12.190 -0.4665 -0.1777  0.2640
66709DOPC   GL133293  19.778   9.613  12.138  0.0622 -0.1065 -0.0953
66709DOPC   GL233294  19.861   9.517  11.917  0.2737  0.0158  0.1712
66709DOPC   C1A33295  20.104   9.923  12.249  0.1880 -0.2192  0.0263
66709DOPC   D2A33296  20.345  10.028  12.639  0.0030  0.1978 -0.2361
66709DOPC   C3A33297  20.451  10.241  12.948  0.0216  0.0367 -0.0949
66709DOPC   C4A33298  20.737  10.209  13.323 -0.0525 -0.0288  0.1953
66709DOPC   C1B33299  20.180   9.362  12.140  0.2005 -0.2129 -0.0433
66709DOPC   D2B33300  20.365   9.322  12.534 -0.1644 -0.1463 -0.2426
66709DOPC   C3B33301  20.435   9.575  12.746  0.0264 -0.0596  0.0908
66709DOPC   C4B33302  20.595   9.783  13.032  0.1873  0.0889  0.0367
66710DOPC   NC333303  16.243  27.673  14.158 -0.5216 -0.1285 -0.0669
66710DOPC   PO433304  15.972  27.897  14.469  0.2326 -0.0717  0.0931
66710DOPC   GL133305  16.380  28.112  14.710 -0.2611 -0.3192  0.0887
66710DOPC   GL233306  16.347  28.243  15.060  0.0718  0.0190  0.3545
66710DOPC   C1A33307  16.722  28.365  14.826 -0.0895 -0.1005  0.0899
66710DOPC   D2A33308  17.079  28.474  14.926  0.0793  0.1143  0.2105
66710DOPC   C3A33309  17.197  28.729  15.192 -0.1172 -0.3771 -0.0884
66710DOPC   C4A33310  17.304  28.927  15.505 -0.3365 -0.3291 -0.0386
66710DOPC   C1B33311  16.310  28.294  15.504 -0.0285 -0.2427 -0.1514
66710DOPC   D2B33312  16.168  28.324  15.816  0.1619 -0.0738  0.3190
66710DOPC   C3B33313  16.469  28.736  15.841  0.1643 -0.0642  0.2190
66710DOPC   C4B33314  16.681  29.043  15.944 -0.0335  0.0410  0.2488
66711DOPC   NC333315  22.337   6.245   7.284 -0.2471  0.1914  0.3617
66711DOPC   PO433316  22.470   6.681   7.438 -0.1957 -0.1316 -0.1174
66711DOPC   GL133317  22.799   6.529   7.234  0.2603 -0.0787 -0.0141
66711DOPC   GL233318  22.896   6.781   7.149  0.0117 -0.2577  0.0285
66711DOPC   C1A33319  23.262   6.349   7.315  0.1890  0.1117  0.0583
66711DOPC   D2A33320  23.351   6.140   7.689  0.0705 -0.0011  0.1124
66711DOPC   C3A33321  23.637   6.172   7.997  0.5748 -0.0047 -0.2751
66711DOPC   C4A33322  23.950   5.998   8.139  0.2324 -0.3459  0.0981
66711DOPC   C1B33323  23.323   6.844   7.112 -0.1597  0.2746 -0.3056
66711DOPC   D2B33324  23.743   6.932   7.087  0.2629 -0.0455  0.1699
66711DOPC   C3B33325  24.045   7.068   7.391  0.0483 -0.0385  0.0056
66711DOPC   C4B33326  24.351   6.916   7.751  0.0400 -0.2414 -0.0450
66712DOPC   NC333327  32.366  17.794   0.303 -0.0641  0.1380 -0.2090
66712DOPC   PO433328  32.589  17.959   0.690 -0.1175 -0.0225 -0.2727
66712DOPC   GL133329  32.657  17.608   0.835  0.3826 -0.3758  0.3408
66712DOPC   GL233330  32.302  17.508   0.754 -0.2769  0.0577  0.0552
66712DOPC   C1A33331  32.656  17.378   1.147 -0.0369 -0.2394 -0.2882
66712DOPC   D2A33332  32.829  17.101   1.321  0.1790 -0.1389 -0.2084
66712DOPC   C3A33333  32.811  16.804   1.632 -0.0888  0.3014 -0.3070
66712DOPC   C4A33334  32.742  16.863   2.076 -0.1339 -0.1238  0.1387
66712DOPC   C1B33335  32.122  17.573   1.120  0.0437  0.1437 -0.0686
66712DOPC   D2B33336  31.837  17.662   1.265  0.0372 -0.1823 -0.0092
66712DOPC   C3B33337  31.802  17.708   1.568 -0.1055  0.0149 -0.1504
66712DOPC   C4B33338  31.614  17.740   1.868  0.2386  0.0934  0.1077
66713DOPC   NC333339  13.235  24.971  18.014  0.0610 -0.1054 -0.0013
66713DOPC   PO433340  12.913  24.667  17.998 -0.0482 -0.2656  0.0247
66713DOPC   GL133341  12.946  24.804  18.415 -0.3364 -0.1389  0.0486
66713DOPC   GL233342  12.653  24.878  18.473  0.1600  0.0815 -0.2955
66713DOPC   C1A33343  12.943  24.825  18.864 -0.0313 -0.2143  0.0216
66713DOPC   D2A33344  13.011  24.809  19.359 -0.0143 -0.0397  0.2000
66713DOPC   C3A33345  12.986  24.722  19.878 -0.2324  0.0075  0.1769
66713DOPC   C4A33346  13.142  24.486  20.278 -0.2472 -0.1553 -0.3788
66713DOPC   C1B33347  12.462  25.026  18.808 -0.1638  0.2185  0.1471
66713DOPC   D2B33348  12.487  25.001  19.236  0.0970 -0.1233 -0.2291
66713DOPC   C3B33349  12.676  25.118  19.601 -0.1340  0.1255 -0.2241
66713DOPC   C4B33350  12.612  25.215  20.024  0.3126  0.3512  0.2596
66714DOPC   NC333351  18.582   7.346  12.788  0.1279  0.4437 -0.1909
66714DOPC   PO433352  18.922   7.051  12.672 -0.1312  0.0879  0.0827
66714DOPC   GL133353  19.008   7.004  13.110  0.1954  0.0941 -0.2394
66714DOPC   GL233354  18.787   7.017  13.372  0.1198 -0.2928  0.2990
66714DOPC   C1A33355  19.251   6.968  13.463  0.0305  0.2065 -0.1995
66714DOPC   D2A33356  19.507   6.820  13.760  0.2019  0.0037 -0.1659
66714DOPC   C3A33357  19.822   7.015  13.967 -0.0457  0.1430  0.0300
66714DOPC   C4A33358  20.133   7.305  14.046  0.1485  0.1158 -0.0726
66714DOPC   C1B33359  18.947   7.168  13.784  0.3086  0.0527  0.0605
66714DOPC   D2B33360  19.191   6.997  14.088 -0.0038  0.4223  0.1012
66714DOPC   C3B33361  19.358   7.085  14.566  0.1416  0.0677 -0.0895
66714DOPC   C4B33362  19.481   7.303  14.855 -0.0561 -0.2797 -0.3219
66715DOPC   NC333363  18.918  34.038   9.116 -0.0200 -0.0609  0.1473
66715DOPC   PO433364  18.898  34.506   9.060  0.2173  0.1012  0.2319
66715DOPC   GL133365  19.328  34.455   9.340 -0.0208 -0.2228  0.0997
66715DOPC   GL233366  19.467  34.084   9.304 -0.3513 -0.1348  0.0269
66715DOPC   C1A33367  19.655  34.558   9.650  0.4633 -0.0795  0.1025
66715DOPC   D2A33368  19.958  34.363   9.978  0.2927  0.2695  0.0811
66715DOPC   C3A33369  20.321  34.594  10.159 -0.0725 -0.1163  0.1437
66715DOPC   C4A33370  20.835  34.814  10.154  0.1672  0.1686  0.1046
66715DOPC   C1B33371  19.960  34.123   9.476  0.1635  0.1300  0.3862
66715DOPC   D2B33372  20.244  33.767   9.640  0.2143  0.1486 -0.1725
66715DOPC   C3B33373  20.295  33.642  10.097  0.0381  0.1802  0.1600
66715DOPC   C4B33374  20.093  33.893  10.340  0.0953 -0.2529 -0.6737
66716DOPC   NC333375  21.030  28.095   7.320 -0.0601  0.2169  0.2605
66716DOPC   PO433376  21.146  27.918   7.636 -0.1761  0.2747 -0.0639
66716DOPC   GL133377  21.517  27.820   7.866  0.5439 -0.2147  0.0132
66716DOPC   GL233378  21.593  27.519   7.763 -0.0592 -0.4026  0.1890
66716DOPC   C1A33379  21.904  27.898   8.094 -0.0775  0.0602  0.1292
66716DOPC   D2A33380  22.276  28.227   7.855 -0.2329 -0.2917 -0.0248
66716DOPC   C3A33381  22.676  28.496   8.034 -0.1273  0.2764 -0.0394
66716DOPC   C4A33382  22.878  28.883   8.149 -0.2978  0.0769 -0.1438
66716DOPC   C1B33383  21.935  27.351   7.957  0.1269  0.2512 -0.1237
66716DOPC   D2B33384  22.239  27.484   8.216 -0.5518 -0.2013 -0.2980
66716DOPC   C3B33385  22.694  27.415   8.149  0.1871  0.0329 -0.2091
66716DOPC   C4B33386  23.028  27.380   7.839 -0.1263  0.2076 -0.2236
66717DOPC   NC333387  22.966  28.099   5.509 -0.0787 -0.2562 -0.1453
66717DOPC   PO433388  23.314  28.163   5.660  0.0668 -0.4235 -0.1628
66717DOPC   GL133389  23.352  27.939   5.964 -0.0776  0.2061  0.4158
66717DOPC   GL233390  23.545  28.090   6.130 -0.0404  0.3078  0.1627
66717DOPC   C1A33391  23.363  27.720   6.360  0.0005  0.1451  0.0351
66717DOPC   D2A33392  23.261  27.525   6.732 -0.0337 -0.5107  0.0784
66717DOPC   C3A33393  23.546  27.681   6.892 -0.1515 -0.2369  0.1286
66717DOPC   C4A33394  23.543  27.926   7.183 -0.2149  0.1473  0.0649
66717DOPC   C1B33395  23.623  28.114   6.547 -0.2265 -0.1062 -0.1865
66717DOPC   D2B33396  23.933  27.992   6.818 -0.4589  0.1047  0.0118
66717DOPC   C3B33397  24.058  27.955   7.199 -0.2383 -0.1210  0.0032
66717DOPC   C4B33398  23.836  28.151   7.551 -0.0547  0.0977  0.2181
66718DOPC   NC333399   2.579   6.755   7.930 -0.2361 -0.2218  0.2178
66718DOPC   PO433400   2.887   6.532   8.099 -0.0373  0.0209  0.3722
66718DOPC   GL133401   2.670   6.640   8.430 -0.3177 -0.0996  0.0681
66718DOPC   GL233402   2.693   7.011   8.473  0.0035 -0.1948  0.1176
66718DOPC   C1A33403   2.493   6.476   8.809 -0.0455  0.0381 -0.0163
66718DOPC   D2A33404   2.232   6.507   9.198 -0.1727  0.0496  0.0979
66718DOPC   C3A33405   2.134   6.462   9.633 -0.0801  0.0698  0.1542
66718DOPC   C4A33406   2.021   6.345   9.996  0.2015  0.0274 -0.1689
66718DOPC   C1B33407   2.398   6.953   8.720 -0.2382 -0.2582 -0.3883
66718DOPC   D2B33408   2.210   7.014   9.069 -0.0479 -0.2573  0.0743
66718DOPC   C3B33409   1.952   7.390   9.271  0.2074 -0.2001 -0.1636
66718DOPC   C4B33410   1.811   7.360   9.670 -0.1935  0.0067 -0.2127
66719DOPC   NC333411  31.456   5.208   5.118  0.0334 -0.0135  0.2180
66719DOPC   PO433412  31.735   5.445   4.859 -0.0123 -0.0420 -0.1548
66719DOPC   GL133413  31.369   5.693   5.023  0.2194 -0.0159 -0.1135
66719DOPC   GL233414  31.033   5.489   5.176  0.0957 -0.0928  0.0356
66719DOPC   C1A33415  31.259   6.024   5.174 -0.2463 -0.2159  0.1236
66719DOPC   D2A33416  31.074   6.397   5.405  0.0732  0.1843 -0.3429
66719DOPC   C3A33417  31.302   6.570   5.788  0.0219 -0.2998 -0.0286
66719DOPC   C4A33418  31.385   6.512   6.156 -0.2439  0.2435  0.0487
66719DOPC   C1B33419  30.725   5.507   5.444 -0.1252 -0.0275 -0.1652
66719DOPC   D2B33420  30.344   5.632   5.655  0.3573  0.1398 -0.0007
66719DOPC   C3B33421  29.968   5.928   5.807 -0.0635  0.0398 -0.0516
66719DOPC   C4B33422  29.685   6.146   5.890 -0.0655 -0.1376  0.1434
66720DOPC   NC333423  11.180   4.695  14.447 -0.0335  0.1981 -0.0185
66720DOPC   PO433424  11.412   4.383  14.353  0.0884 -0.1768  0.2018
66720DOPC   GL133425  11.503   4.128  14.694  0.1177 -0.1926 -0.1069
66720DOPC   GL233426  11.227   3.930  14.801  0.1686 -0.0443 -0.1261
66720DOPC   C1A33427  11.632   3.953  15.107  0.0708 -0.2701 -0.2746
66720DOPC   D2A33428  11.838   4.105  15.454  0.3767 -0.0152 -0.1218
66720DOPC   C3A33429  12.070   3.987  15.683  0.3724 -0.3940 -0.3353
66720DOPC   C4A33430  12.187   3.510  15.788 -0.0999 -0.0417 -0.4521
66720DOPC   C1B33431  11.151   3.864  15.164  0.0047 -0.1980  0.1755
66720DOPC   D2B33432  11.345   3.656  15.591 -0.0757 -0.0803  0.0754
66720DOPC   C3B33433  11.747   3.606  15.658 -0.4436  0.1116 -0.2276
66720DOPC   C4B33434  11.825   3.239  15.913 -0.2423 -0.2090  0.0628
66721DOPC   NC333435   4.407  14.802   5.716 -0.2578  0.0791 -0.1818
66721DOPC   PO433436   4.061  14.555   5.632 -0.1432  0.0546  0.2299
66721DOPC   GL133437   3.868  14.855   5.925  0.0813 -0.0560  0.2822
66721DOPC   GL233438   3.840  15.154   6.006 -0.1743  0.1024  0.0962
66721DOPC   C1A33439   3.453  14.867   6.197 -0.0269  0.1361 -0.1205
66721DOPC   D2A33440   3.087  15.175   6.352 -0.1603  0.2134  0.0544
66721DOPC   C3A33441   2.776  15.067   6.480  0.2722 -0.1827 -0.1730
66721DOPC   C4A33442   2.414  15.193   6.710  0.1797  0.0911  0.0287
66721DOPC   C1B33443   3.378  15.287   5.935 -0.1141  0.0482  0.1657
66721DOPC   D2B33444   3.090  15.639   6.064  0.0889  0.2626 -0.0818
66721DOPC   C3B33445   2.906  15.612   6.375  0.0158 -0.1859  0.0358
66721DOPC   C4B33446   2.496  15.659   6.464 -0.1296 -0.0436  0.4243
66722DOPC   NC333447  30.024  27.843   3.996 -0.0769  0.0589 -0.0906
66722DOPC   PO433448  29.912  28.238   3.808  0.0976 -0.0266  0.0535
66722DOPC   GL133449  29.792  28.272   4.292 -0.1881  0.1117 -0.0574
66722DOPC   GL233450  30.005  28.165   4.425 -0.0394 -0.0640  0.1783
66722DOPC   C1A33451  29.578  28.370   4.664  0.0505 -0.0874 -0.0478
66722DOPC   D2A33452  29.509  28.618   4.929  0.1960 -0.2759 -0.1405
66722DOPC   C3A33453  29.576  28.884   5.208 -0.0027 -0.3034 -0.1270
66722DOPC   C4A33454  29.850  29.083   5.456  0.2228 -0.1894  0.2769
66722DOPC   C1B33455  30.212  27.775   4.667  0.1626  0.3762  0.0324
66722DOPC   D2B33456  29.928  27.421   4.887 -0.1009 -0.2890 -0.3177
66722DOPC   C3B33457  29.722  27.484   5.142  0.0465  0.0733 -0.3128
66722DOPC   C4B33458  29.636  27.671   5.554  0.0471  0.3068  0.0856
66723DOPC   NC333459  27.291   9.234   1.977 -0.4783  0.1305 -0.0331
66723DOPC   PO433460  27.693   9.039   1.890  0.3098 -0.0538 -0.1164
66723DOPC   GL133461  27.848   9.105   2.237  0.1546  0.3364  0.1367
66723DOPC   GL233462  27.542   9.183   2.393 -0.0244 -0.1788 -0.0530
66723DOPC   C1A33463  27.984   9.347   2.555 -0.0420  0.2056 -0.2580
66723DOPC   D2A33464  28.036   9.588   2.860 -0.0572 -0.1166  0.2360
66723DOPC   C3A33465  27.753   9.851   2.911  0.0682 -0.3264 -0.1712
66723DOPC   C4A33466  27.479  10.281   2.911 -0.1048 -0.1572  0.0533
66723DOPC   C1B33467  27.511   9.388   2.812  0.0331  0.1052  0.1167
66723DOPC   D2B33468  27.359   9.635   3.167 -0.0126 -0.2314  0.1904
66723DOPC   C3B33469  27.813   9.731   3.411 -0.0326  0.1017 -0.2288
66723DOPC   C4B33470  28.139  10.045   3.616  0.0765 -0.3827  0.2698
66724DOPC   NC333471   7.646  20.536  14.368 -0.1083  0.3168  0.2352
66724DOPC   PO433472   7.775  20.442  14.764  0.2050  0.2959 -0.0587
66724DOPC   GL133473   7.518  20.365  15.143  0.0037 -0.1067  0.2171
66724DOPC   GL233474   7.347  20.103  15.156  0.0281 -0.0227 -0.3152
66724DOPC   C1A33475   7.235  20.552  15.453  0.1452 -0.1655 -0.1936
66724DOPC   D2A33476   6.786  20.534  15.769  0.1309  0.1562  0.1563
66724DOPC   C3A33477   6.702  20.199  15.891 -0.0972 -0.1398 -0.1522
66724DOPC   C4A33478   6.397  19.895  16.025  0.1332 -0.1989  0.1932
66724DOPC   C1B33479   7.257  19.701  15.275  0.0572 -0.1144  0.2299
66724DOPC   D2B33480   7.202  19.533  15.702  0.0411 -0.0549 -0.2679
66724DOPC   C3B33481   6.898  19.240  15.655  0.0748 -0.2658 -0.0643
66724DOPC   C4B33482   6.621  18.872  15.818 -0.0683 -0.0135 -0.0352
66725DOPC   NC333483  28.931  13.261  26.011  0.1633  0.1883  0.0827
66725DOPC   PO433484  28.742  13.200   0.229 -0.0968 -0.0520 -0.1399
66725DOPC   GL133485  28.781  13.271   0.693 -0.0980 -0.0348  0.0418
66725DOPC   GL233486  29.062  13.253   0.809 -0.3099 -0.0697 -0.0941
66725DOPC   C1A33487  28.486  13.356   1.059 -0.0069 -0.1924 -0.1411
66725DOPC   D2A33488  28.531  13.647   1.487 -0.2594 -0.1653  0.1898
66725DOPC   C3A33489  28.575  13.753   1.936  0.1202 -0.2677 -0.1056
66725DOPC   C4A33490  28.725  14.128   2.214  0.0286  0.1126  0.0366
66725DOPC   C1B33491  29.332  13.422   1.112 -0.4107 -0.1488 -0.1930
66725DOPC   D2B33492  29.487  13.506   1.530  0.1584 -0.1956  0.0791
66725DOPC   C3B33493  29.310  13.635   1.916 -0.2519  0.0387 -0.0502
66725DOPC   C4B33494  29.203  13.639   2.381 -0.1194 -0.0741 -0.0589
66726DOPC   NC333495   7.252  31.376  15.881  0.2059  0.0899  0.0444
66726DOPC   PO433496   7.193  31.246  16.262  0.3757 -0.1336  0.0404
66726DOPC   GL133497   6.833  31.320  16.513  0.2048 -0.0218 -0.1061
66726DOPC   GL233498   6.559  31.399  16.421  0.2074 -0.1064 -0.2894
66726DOPC   C1A33499   6.631  31.131  16.891 -0.1667 -0.1293 -0.0970
66726DOPC   D2A33500   6.366  31.310  17.258 -0.3415 -0.1504 -0.1637
66726DOPC   C3A33501   6.168  31.643  17.205 -0.1791  0.3458 -0.0927
66726DOPC   C4A33502   5.981  31.809  17.492  0.0376  0.2121 -0.2764
66726DOPC   C1B33503   6.297  31.485  16.757  0.3084 -0.2509  0.1093
66726DOPC   D2B33504   5.892  31.747  16.700  0.0732  0.1632 -0.0614
66726DOPC   C3B33505   5.453  31.512  16.776  0.3431 -0.0826 -0.3076
66726DOPC   C4B33506   5.366  31.094  16.805 -0.1707 -0.0133  0.1602
66727DOPC   NC333507  19.747  23.880   9.884  0.0918  0.1624  0.0278
66727DOPC   PO433508  20.066  23.615   9.766 -0.1077  0.4067 -0.0410
66727DOPC   GL133509  20.448  23.633  10.016  0.2633 -0.0514  0.0875
66727DOPC   GL233510  20.456  23.581  10.326  0.1176 -0.0059 -0.1870
66727DOPC   C1A33511  20.776  23.942  10.208  0.1123 -0.2266 -0.0892
66727DOPC   D2A33512  21.143  23.968  10.417  0.0369  0.2522 -0.2082
66727DOPC   C3A33513  21.463  24.206  10.220  0.0084  0.1226 -0.4795
66727DOPC   C4A33514  21.864  24.151   9.994 -0.5058 -0.1053 -0.1280
66727DOPC   C1B33515  20.848  23.451  10.444  0.2739 -0.2053  0.0688
66727DOPC   D2B33516  21.230  23.303  10.705 -0.0051  0.1464  0.2166
66727DOPC   C3B33517  21.233  23.387  11.095  0.0085 -0.1886  0.1474
66727DOPC   C4B33518  21.163  23.566  11.535  0.0990 -0.0011  0.1894
66728DOPC   NC333519  14.533  31.419  13.423  0.0230 -0.0818  0.3325
66728DOPC   PO433520  14.778  31.711  13.304  0.3848  0.1021  0.1270
66728DOPC   GL133521  15.163  31.914  13.316 -0.0565 -0.1075  0.0751
66728DOPC   GL233522  15.211  32.079  13.620 -0.0960  0.0362  0.0670
66728DOPC   C1A33523  15.472  32.216  13.117  0.0815  0.0848  0.1457
66728DOPC   D2A33524  15.937  32.277  13.300  0.1188 -0.0212 -0.1745
66728DOPC   C3A33525  16.049  32.617  13.514  0.0533  0.1397 -0.1242
66728DOPC   C4A33526  15.958  32.842  13.886  0.1183  0.1469  0.3627
66728DOPC   C1B33527  15.605  32.083  13.618  0.1014  0.0796 -0.1697
66728DOPC   D2B33528  15.946  31.769  13.657 -0.0376 -0.3467  0.0159
66728DOPC   C3B33529  16.270  31.971  13.631 -0.1288 -0.1071 -0.1552
66728DOPC   C4B33530  16.519  32.399  13.684  0.2108  0.0043  0.0066
66729DOPC   NC333531  13.166  23.161  17.597  0.1231 -0.1360 -0.2013
66729DOPC   PO433532  13.223  23.359  17.923  0.1167 -0.1285 -0.3922
66729DOPC   GL133533  12.960  23.045  18.069  0.4422  0.1919 -0.1670
66729DOPC   GL233534  12.698  22.970  18.213 -0.1009 -0.0668 -0.1729
66729DOPC   C1A33535  13.167  22.658  18.356 -0.2790  0.2042 -0.0796
66729DOPC   D2A33536  13.181  22.268  18.548  0.1791 -0.0582 -0.2673
66729DOPC   C3A33537  13.192  22.358  18.932 -0.3043  0.0843 -0.0434
66729DOPC   C4A33538  12.902  22.174  19.351  0.2396  0.0852  0.3045
66729DOPC   C1B33539  12.912  23.018  18.642  0.0535  0.1413  0.0793
66729DOPC   D2B33540  13.158  22.816  18.876  0.0560  0.0253  0.2006
66729DOPC   C3B33541  13.288  22.779  19.203  0.3797 -0.2329 -0.2055
66729DOPC   C4B33542  13.328  22.457  19.475 -0.0098 -0.2302  0.1002
66730DOPC   NC333543  34.077   1.446   8.290 -0.0631 -0.2311  0.1127
66730DOPC   PO433544  33.595   1.363   8.212  0.2054  0.2623 -0.0198
66730DOPC   GL133545  33.616   1.400   8.653  0.0275  0.0283  0.2412
66730DOPC   GL233546  33.895   1.386   8.763  0.1474  0.0991 -0.0349
66730DOPC   C1A33547  33.411   1.447   9.031 -0.0501 -0.3264 -0.0934
66730DOPC   D2A33548  33.362   1.537   9.454 -0.0017 -0.0173  0.3055
66730DOPC   C3A33549  33.019   1.732   9.604 -0.1305 -0.1805  0.1016
66730DOPC   C4A33550  32.716   1.764   9.942  0.3301 -0.0101 -0.0545
66730DOPC   C1B33551  33.888   1.340   9.205  0.3589 -0.1106 -0.1697
66730DOPC   D2B33552  33.784   1.283   9.626  0.1303 -0.1832 -0.4627
66730DOPC   C3B33553  33.599   1.028   9.719 -0.3912 -0.0464  0.4995
66730DOPC   C4B33554  33.380   0.763   9.976 -0.2998 -0.3056 -0.0032
66731DOPC   NC333555  21.171   6.889  10.273  0.2595  0.0175 -0.0669
66731DOPC   PO433556  21.143   6.804  10.713 -0.1062 -0.0423 -0.2093
66731DOPC   GL133557  21.592   6.957  10.630  0.0411 -0.2361 -0.0685
66731DOPC   GL233558  21.755   7.157  10.742 -0.2336 -0.0990  0.0280
66731DOPC   C1A33559  22.122   6.842  10.599 -0.0112 -0.2011 -0.1016
66731DOPC   D2A33560  22.578   6.907  10.545 -0.0612 -0.2815  0.1122
66731DOPC   C3A33561  22.917   7.227  10.572 -0.0641  0.0138  0.0369
66731DOPC   C4A33562  23.285   7.521  10.624  0.2015  0.0376  0.1562
66731DOPC   C1B33563  21.937   7.062  11.150  0.2641 -0.0564 -0.0539
66731DOPC   D2B33564  22.155   6.921  11.445  0.2429  0.1618  0.0988
66731DOPC   C3B33565  22.255   6.999  11.801 -0.0389 -0.2677 -0.0284
66731DOPC   C4B33566  22.498   7.399  12.003  0.0366  0.0780 -0.0648
66732DOPC   NC333567  26.927   3.247   6.178 -0.2350  0.1089  0.0393
66732DOPC   PO433568  26.832   3.646   5.990 -0.3756  0.3179  0.4100
66732DOPC   GL133569  26.787   3.996   6.228 -0.3047 -0.0201  0.0714
66732DOPC   GL233570  26.663   3.967   6.534  0.1034  0.1595  0.1603
66732DOPC   C1A33571  26.814   4.418   6.296 -0.2711  0.2310 -0.0940
66732DOPC   D2A33572  26.608   4.658   6.405  0.0471  0.2712 -0.0469
66732DOPC   C3A33573  26.836   4.721   6.753  0.3102 -0.0032  0.2807
66732DOPC   C4A33574  26.981   4.875   7.033  0.2990 -0.0910  0.0306
66732DOPC   C1B33575  26.624   4.253   6.895  0.0335  0.1051  0.5410
66732DOPC   D2B33576  26.733   4.333   7.332  0.1448  0.1227  0.1917
66732DOPC   C3B33577  26.930   4.595   7.595  0.0856 -0.1111  0.1883
66732DOPC   C4B33578  27.024   4.933   7.569  0.0537 -0.0067  0.1267
66733DOPC   NC333579   2.977   9.751   6.485  0.1177  0.0078 -0.1217
66733DOPC   PO433580   2.780   9.715   6.830  0.0680  0.3420 -0.1924
66733DOPC   GL133581   2.462   9.728   7.042  0.0232 -0.1608  0.0925
66733DOPC   GL233582   2.397   9.458   7.188  0.0182  0.2808 -0.3529
66733DOPC   C1A33583   1.969   9.729   6.866 -0.0652  0.0579 -0.2071
66733DOPC   D2A33584   1.565   9.767   6.752  0.0461  0.4258 -0.2683
66733DOPC   C3A33585   1.231   9.915   6.978 -0.1966  0.0487  0.0129
66733DOPC   C4A33586   1.039  10.056   7.323  0.1573  0.0507  0.0150
66733DOPC   C1B33587   2.092   9.552   7.437 -0.0515  0.2211  0.3756
66733DOPC   D2B33588   1.837   9.487   7.719  0.1983  0.0887 -0.0365
66733DOPC   C3B33589   1.683   9.889   7.958 -0.0311 -0.1269 -0.0664
66733DOPC   C4B33590   1.434  10.173   7.879  0.0310  0.2260  0.0877
66734DOPC   NC333591  17.235  28.397  11.786 -0.0460 -0.1632 -0.1076
66734DOPC   PO433592  17.234  28.213  12.280  0.0976  0.3894  0.1116
66734DOPC   GL133593  17.572  28.459  12.223 -0.4082 -0.0768  0.0147
66734DOPC   GL233594  17.459  28.853  12.339  0.1280 -0.0440 -0.0320
66734DOPC   C1A33595  17.770  28.762  11.947  0.1742 -0.1808 -0.1181
66734DOPC   D2A33596  18.163  29.013  11.807 -0.2662 -0.2738 -0.2144
66734DOPC   C3A33597  18.319  28.901  12.183  0.0691  0.2383  0.1671
66734DOPC   C4A33598  18.152  28.640  12.538 -0.0670  0.0893 -0.0603
66734DOPC   C1B33599  17.820  28.984  12.418 -0.1465  0.0023  0.0266
66734DOPC   D2B33600  18.218  29.138  12.624 -0.1510 -0.2868 -0.0616
66734DOPC   C3B33601  18.621  29.020  12.588 -0.0466  0.1682  0.1397
66734DOPC   C4B33602  18.910  28.933  12.918  0.0967  0.0482 -0.1242
66735DOPC   NC333603   8.497   8.044  14.183  0.1079  0.2298  0.3108
66735DOPC   PO433604   8.441   7.616  14.324 -0.2801 -0.1498  0.3412
66735DOPC   GL133605   8.451   7.578  14.690 -0.1234 -0.0630 -0.1742
66735DOPC   GL233606   8.531   7.257  14.764  0.0353 -0.0227 -0.3807
66735DOPC   C1A33607   8.220   7.725  15.184 -0.2342  0.3706 -0.2523
66735DOPC   D2A33608   7.930   7.909  15.485 -0.4899  0.0085  0.3165
66735DOPC   C3A33609   8.040   8.094  15.832  0.0687  0.1686  0.2591
66735DOPC   C4A33610   7.968   8.311  16.252 -0.1259  0.0968  0.0667
66735DOPC   C1B33611   8.230   7.241  15.108 -0.2587 -0.1687  0.2307
66735DOPC   D2B33612   8.015   7.393  15.486 -0.0050 -0.1912  0.2892
66735DOPC   C3B33613   7.664   7.581  15.602  0.0043  0.0493  0.1222
66735DOPC   C4B33614   7.492   7.865  15.822 -0.1596  0.3758 -0.1106
66736DOPC   NC333615   6.398  24.333  12.108  0.2086  0.1929 -0.1595
66736DOPC   PO433616   6.112  24.346  11.927  0.2335  0.0798 -0.1188
66736DOPC   GL133617   5.806  24.067  11.814 -0.1130  0.1511 -0.0309
66736DOPC   GL233618   5.758  23.748  11.636 -0.1605  0.0362 -0.1186
66736DOPC   C1A33619   5.364  23.999  11.787 -0.1866 -0.0292 -0.1972
66736DOPC   D2A33620   5.010  23.898  11.912  0.1101  0.1339  0.0378
66736DOPC   C3A33621   4.878  23.915  12.308  0.0731  0.0338  0.1342
66736DOPC   C4A33622   4.505  23.840  12.673  0.0473 -0.0180  0.1863
66736DOPC   C1B33623   5.340  23.548  11.530 -0.3139  0.0553  0.0003
66736DOPC   D2B33624   4.980  23.315  11.836  0.0737 -0.0379 -0.0760
66736DOPC   C3B33625   4.603  23.581  12.058  0.1156 -0.2098 -0.3398
66736DOPC   C4B33626   4.231  23.872  12.221 -0.6145  0.0405 -0.0161
66737DOPC   NC333627  20.889   7.550  10.158  0.1140 -0.1360  0.3166
66737DOPC   PO433628  21.157   7.320  10.034 -0.0279  0.0118 -0.1188
66737DOPC   GL133629  21.570   7.345  10.036 -0.1308 -0.2855 -0.0467
66737DOPC   GL233630  21.495   7.738  10.096  0.3160 -0.1482  0.1005
66737DOPC   C1A33631  22.004   7.264  10.262  0.2169  0.1368 -0.2264
66737DOPC   D2A33632  22.317   7.351  10.532  0.0448  0.5296 -0.2335
66737DOPC   C3A33633  22.735   7.557  10.320  0.0667 -0.0468 -0.1800
66737DOPC   C4A33634  22.976   7.441   9.976 -0.0017 -0.0905 -0.3017
66737DOPC   C1B33635  21.789   7.713  10.469 -0.1072  0.0544  0.0196
66737DOPC   D2B33636  21.975   7.537  10.866 -0.1092 -0.2017  0.0077
66737DOPC   C3B33637  22.281   7.806  11.113  0.0174 -0.2097  0.3112
66737DOPC   C4B33638  22.535   7.759  11.530 -0.0256  0.0414  0.0995
66738DOPC   NC333639  23.006   0.737   7.697  0.3539 -0.0593 -0.1228
66738DOPC   PO433640  23.336   1.050   7.684 -0.1278 -0.0093  0.0298
66738DOPC   GL133641  23.625   0.991   7.988  0.0656  0.1550 -0.2073
66738DOPC   GL233642  23.950   0.960   7.908  0.0908  0.1024 -0.1928
66738DOPC   C1A33643  23.571   0.743   8.414 -0.1615 -0.0047 -0.0497
66738DOPC   D2A33644  23.778   0.552   8.723 -0.2077  0.1749 -0.0340
66738DOPC   C3A33645  23.960   0.446   9.047 -0.1400  0.1286  0.3302
66738DOPC   C4A33646  24.114   0.120   9.249  0.0047 -0.1652  0.2071
66738DOPC   C1B33647  24.043   0.963   8.399  0.0668 -0.0802  0.0967
66738DOPC   D2B33648  24.164   0.839   8.870 -0.1994 -0.1792 -0.2502
66738DOPC   C3B33649  24.413   0.655   9.171 -0.1140 -0.1311 -0.1763
66738DOPC   C4B33650  24.334   0.487   9.569 -0.0747 -0.2529  0.3650
66739DOPC   NC333651  33.512   9.023   2.135 -0.0710  0.4355  0.3913
66739DOPC   PO433652  33.041   9.153   2.268  0.1213 -0.2065 -0.0463
66739DOPC   GL133653  32.742   9.071   2.581 -0.0746 -0.1541 -0.2641
66739DOPC   GL233654  32.403   9.004   2.708  0.0264  0.1471  0.0928
66739DOPC   C1A33655  32.580   9.493   2.897  0.0899 -0.0683 -0.0110
66739DOPC   D2A33656  32.612   9.731   3.213 -0.1185  0.1050  0.0108
66739DOPC   C3A33657  32.508   9.913   3.610 -0.0133  0.0241 -0.1953
66739DOPC   C4A33658  32.253   9.686   3.988  0.1263 -0.0512 -0.1588
66739DOPC   C1B33659  32.302   9.185   3.169  0.1415 -0.1006 -0.4557
66739DOPC   D2B33660  32.239   9.482   3.556  0.1017  0.1312  0.0703
66739DOPC   C3B33661  32.011   9.793   3.534  0.0478 -0.2402  0.4057
66739DOPC   C4B33662  31.818  10.048   3.848 -0.0017  0.0562  0.3321
66740DOPC   NC333663  34.865  17.359   1.486 -0.0150  0.2430  0.1612
66740DOPC   PO433664  34.636  17.088   1.193  0.0843 -0.1508 -0.0051
66740DOPC   GL133665  34.363  17.195   1.591 -0.1461  0.0339 -0.0564
66740DOPC   GL233666  34.057  17.451   1.604  0.0253 -0.1214  0.1901
66740DOPC   C1A33667  34.350  17.428   2.077 -0.1509 -0.1230 -0.1251
66740DOPC   D2A33668  34.552  17.434   2.425  0.0110  0.2231  0.3109
66740DOPC   C3A33669  34.727  17.253   2.761  0.5721  0.0968  0.1935
66740DOPC   C4A33670  34.695  17.074   3.127  0.1330 -0.1295  0.1765
66740DOPC   C1B33671  34.060  17.779   1.919  0.1202  0.0654 -0.1108
66740DOPC   D2B33672  33.813  17.850   2.345  0.0262  0.1907 -0.1121
66740DOPC   C3B33673  33.590  17.655   2.536 -0.1901 -0.0395  0.1306
66740DOPC   C4B33674  33.473  17.228   2.520 -0.1367 -0.2114 -0.3116
66741DOPC   NC333675  12.716  17.328  14.630  0.0691 -0.1210  0.2838
66741DOPC   PO433676  13.089  17.583  14.831 -0.1115 -0.0009  0.1904
66741DOPC   GL133677  13.103  17.347  15.176  0.0184  0.1941 -0.2032
66741DOPC   GL233678  12.888  17.461  15.375 -0.0501  0.2735 -0.0817
66741DOPC   C1A33679  13.149  17.049  15.520  0.2119  0.1593 -0.1360
66741DOPC   D2A33680  13.009  16.769  15.733 -0.5034  0.1480 -0.1250
66741DOPC   C3A33681  13.029  16.586  16.043 -0.3610  0.2836  0.3280
66741DOPC   C4A33682  12.832  16.423  16.348  0.2025 -0.0219  0.0000
66741DOPC   C1B33683  12.662  17.113  15.670  0.0364 -0.0065  0.1199
66741DOPC   D2B33684  12.592  16.821  16.047 -0.3134 -0.1367  0.0665
66741DOPC   C3B33685  12.606  16.447  15.860  0.2339  0.1435 -0.1616
66741DOPC   C4B33686  12.587  16.225  15.576 -0.2086  0.1626  0.0256
66742DOPC   NC333687  15.884  26.240  15.505  0.2341  0.0087  0.0565
66742DOPC   PO433688  15.905  26.405  15.928  0.0501 -0.2174 -0.2059
66742DOPC   GL133689  16.174  26.709  16.088 -0.0718  0.1817 -0.0682
66742DOPC   GL233690  16.195  26.480  16.366 -0.2403  0.1717  0.1481
66742DOPC   C1A33691  16.628  26.885  16.194  0.0221  0.1259 -0.3134
66742DOPC   D2A33692  17.075  26.986  16.446 -0.2388  0.1470  0.1129
66742DOPC   C3A33693  17.350  27.399  16.531 -0.0325 -0.0335  0.0439
66742DOPC   C4A33694  17.379  27.773  16.349  0.2399  0.1263 -0.0115
66742DOPC   C1B33695  16.522  26.550  16.586  0.2717  0.0628 -0.1498
66742DOPC   D2B33696  16.849  26.629  16.693 -0.0529  0.1912  0.0459
66742DOPC   C3B33697  17.008  26.670  16.980  0.0711  0.1044 -0.1102
66742DOPC   C4B33698  17.319  26.470  17.303 -0.3578 -0.1758  0.1741
66743DOPC   NC333699   7.399  24.993  14.694  0.2144  0.0144  0.1833
66743DOPC   PO433700   7.246  24.665  14.964  0.4368 -0.1550  0.1269
66743DOPC   GL133701   6.917  24.529  14.987 -0.1301 -0.1207 -0.3047
66743DOPC   GL233702   6.801  24.385  15.174  0.1891 -0.0259 -0.0914
66743DOPC   C1A33703   6.475  24.855  14.855 -0.1431  0.1073 -0.2042
66743DOPC   D2A33704   6.102  25.121  14.979  0.0177 -0.0802  0.0773
66743DOPC   C3A33705   6.127  25.235  15.377  0.0201  0.0090  0.0456
66743DOPC   C4A33706   6.094  25.146  15.828 -0.0590 -0.1029  0.1389
66743DOPC   C1B33707   6.470  24.298  15.130  0.0619  0.0494 -0.2501
66743DOPC   D2B33708   6.031  24.238  15.040 -0.1574  0.1736  0.2624
66743DOPC   C3B33709   5.879  23.891  14.856  0.0493 -0.2360 -0.1899
66743DOPC   C4B33710   5.678  23.610  14.751  0.0385  0.1006  0.2126
66744DOPC   NC333711   6.841  27.018  15.924 -0.0564  0.1972 -0.0760
66744DOPC   PO433712   6.596  26.701  15.895 -0.0378 -0.0368  0.2925
66744DOPC   GL133713   6.257  26.389  16.022  0.0067  0.0672 -0.1862
66744DOPC   GL233714   6.344  26.413  16.254  0.1146 -0.0121 -0.1127
66744DOPC   C1A33715   5.898  26.266  16.240  0.2272  0.2996 -0.0038
66744DOPC   D2A33716   5.597  25.988  16.282  0.0348 -0.5644 -0.0502
66744DOPC   C3A33717   5.177  26.143  16.330  0.0259 -0.2745 -0.3030
66744DOPC   C4A33718   4.771  26.383  16.296  0.0857  0.1053 -0.2033
66744DOPC   C1B33719   6.242  26.097  16.584  0.0141  0.2759 -0.0710
66744DOPC   D2B33720   6.018  25.897  16.871  0.3963  0.2815  0.2974
66744DOPC   C3B33721   5.666  25.715  16.793 -0.2697 -0.4199 -0.4014
66744DOPC   C4B33722   5.344  25.724  16.620  0.2462 -0.3079 -0.0061
66745DOPC   NC333723  34.030  20.503   0.805  0.0576 -0.0245 -0.0795
66745DOPC   PO433724  34.033  20.630   1.189 -0.1034 -0.3376 -0.1696
66745DOPC   GL133725  33.768  20.465   1.538  0.1927 -0.4191 -0.0822
66745DOPC   GL233726  33.522  20.391   1.493 -0.1818 -0.1134  0.3414
66745DOPC   C1A33727  33.566  20.372   1.938 -0.2463  0.0790 -0.1015
66745DOPC   D2A33728  33.186  20.395   2.216  0.3141  0.1205 -0.0066
66745DOPC   C3A33729  33.131  20.772   2.497  0.1406 -0.0094 -0.1559
66745DOPC   C4A33730  32.840  20.947   2.534  0.1322  0.0207 -0.1201
66745DOPC   C1B33731  33.104  20.349   1.661  0.1221  0.0662 -0.0728
66745DOPC   D2B33732  32.812  20.181   1.823 -0.1237  0.0381  0.0315
66745DOPC   C3B33733  32.447  20.091   1.864 -0.2476 -0.0271  0.1524
66745DOPC   C4B33734  31.975  20.196   1.917 -0.1814  0.2287 -0.2561
66746DOPC   NC333735  15.830  15.771  13.777  0.0839 -0.0582  0.0196
66746DOPC   PO433736  15.963  16.120  13.800  0.4639 -0.1149 -0.0556
66746DOPC   GL133737  16.047  16.111  14.191  0.2439  0.1817 -0.1322
66746DOPC   GL233738  15.844  16.352  14.301 -0.0682  0.1188 -0.1187
66746DOPC   C1A33739  16.183  15.722  14.449  0.0694 -0.2192 -0.0223
66746DOPC   D2A33740  15.950  15.439  14.622 -0.3435  0.1829  0.2442
66746DOPC   C3A33741  15.943  15.483  15.033 -0.2554  0.1053  0.0590
66746DOPC   C4A33742  16.203  15.360  15.432  0.0961  0.2114 -0.1330
66746DOPC   C1B33743  15.881  16.118  14.652 -0.0238 -0.3699 -0.0112
66746DOPC   D2B33744  16.039  15.979  15.100 -0.0225  0.2436 -0.0367
66746DOPC   C3B33745  16.098  15.871  15.339  0.2600  0.0007  0.2164
66746DOPC   C4B33746  15.997  15.731  15.748 -0.1894 -0.1985 -0.1223
66747DOPC   NC333747   9.571  10.847  13.609  0.0299 -0.0128  0.0509
66747DOPC   PO433748   9.497  10.610  14.074  0.3111 -0.1462  0.0316
66747DOPC   GL133749   9.375  10.535  14.495 -0.1726 -0.0034  0.0364
66747DOPC   GL233750   9.631  10.691  14.663 -0.5435  0.1477 -0.2863
66747DOPC   C1A33751   9.161  10.510  14.917 -0.0127  0.2408 -0.4539
66747DOPC   D2A33752   9.034  10.550  15.261  0.1768 -0.1369  0.0937
66747DOPC   C3A33753   9.357  10.617  15.592  0.1700 -0.0166  0.1716
66747DOPC   C4A33754   9.741  10.415  15.659  0.2458  0.1023  0.1237
66747DOPC   C1B33755   9.307  10.977  14.864  0.0434  0.0265 -0.2000
66747DOPC   D2B33756   9.243  11.061  15.243  0.0735  0.1822  0.0908
66747DOPC   C3B33757   8.936  11.369  15.284  0.0218  0.1879  0.3002
66747DOPC   C4B33758   8.587  11.375  15.505 -0.2262  0.0246  0.1133
66748DOPC   NC333759   2.410  33.306  10.004 -0.1433 -0.0465  0.1311
66748DOPC   PO433760   2.217  33.281  10.471  0.0862  0.0045 -0.0088
66748DOPC   GL133761   1.833  33.378  10.646  0.1262 -0.0083  0.0216
66748DOPC   GL233762   1.689  33.212  10.932 -0.1570  0.1414 -0.0942
66748DOPC   C1A33763   1.536  33.343  10.311  0.0997  0.1171 -0.4888
66748DOPC   D2A33764   1.093  33.408  10.102 -0.2197 -0.1755  0.2281
66748DOPC   C3A33765   0.707  33.372  10.333 -0.4297 -0.0442 -0.0424
66748DOPC   C4A33766   0.319  33.323  10.462 -0.4587 -0.0521 -0.0882
66748DOPC   C1B33767   1.411  33.329  11.323 -0.2543  0.0405 -0.1227
66748DOPC   D2B33768   0.991  33.404  11.473  0.2391  0.0753  0.0160
66748DOPC   C3B33769   0.653  33.526  11.210  0.2244 -0.0297  0.2641
66748DOPC   C4B33770   0.311  33.517  10.967  0.2409 -0.1250  0.0594
66749DOPC   NC333771  23.043  22.842   3.185 -0.3791  0.1291  0.0893
66749DOPC   PO433772  23.301  23.080   3.435 -0.3797  0.1586 -0.1452
66749DOPC   GL133773  23.613  23.018   3.747 -0.0455 -0.2824  0.0197
66749DOPC   GL233774  23.734  22.646   3.652  0.0202 -0.1654  0.2510
66749DOPC   C1A33775  23.988  23.045   4.048 -0.3482 -0.1285  0.0702
66749DOPC   D2A33776  24.204  22.777   4.309 -0.0540  0.4546  0.1920
66749DOPC   C3A33777  24.292  22.655   4.774 -0.0426  0.0807  0.0348
66749DOPC   C4A33778  24.752  22.685   5.092 -0.4743  0.1642 -0.1493
66749DOPC   C1B33779  24.097  22.508   3.922  0.0085 -0.0834 -0.1739
66749DOPC   D2B33780  24.112  22.292   4.319  0.0272 -0.3481  0.0506
66749DOPC   C3B33781  24.133  21.874   4.426  0.2073  0.4313 -0.0052
66749DOPC   C4B33782  24.139  21.515   4.528  0.3114  0.2693 -0.0026
66750DOPC   NC333783  10.097  34.018  16.742 -0.3354  0.3772  0.2287
66750DOPC   PO433784  10.479  34.097  16.425  0.4705  0.0388 -0.1130
66750DOPC   GL133785  10.565  34.483  16.690  0.0896  0.0505 -0.0544
66750DOPC   GL233786  10.356  34.355  16.926 -0.0177 -0.0781 -0.1324
66750DOPC   C1A33787  10.830  34.713  17.011 -0.1803  0.1049  0.0761
66750DOPC   D2A33788  11.107  34.883  17.299 -0.2269 -0.1602  0.0218
66750DOPC   C3A33789  11.003  34.909  17.700 -0.0472 -0.2255 -0.1020
66750DOPC   C4A33790  10.778  34.889  18.040 -0.0294  0.0594  0.0472
66750DOPC   C1B33791  10.429  34.543  17.268  0.1101  0.0246 -0.1341
66750DOPC   D2B33792  10.609  34.618  17.625 -0.3548  0.0366  0.3007
66750DOPC   C3B33793  10.734  34.423  18.048 -0.0492  0.1907 -0.2064
66750DOPC   C4B33794  11.046  34.237  18.214  0.0542  0.1316  0.0312
66751DOPC   NC333795  30.949  28.147   4.505 -0.1358  0.1635 -0.1057
66751DOPC   PO433796  31.194  27.842   4.276 -0.2420  0.0375  0.1574
66751DOPC   GL133797  31.284  27.566   4.593 -0.0957  0.2532 -0.2715
66751DOPC   GL233798  31.216  27.811   4.877  0.0174  0.3426  0.3454
66751DOPC   C1A33799  31.049  27.164   4.668  0.0736  0.2847  0.2618
66751DOPC   D2A33800  31.066  26.995   4.992  0.2428  0.0207 -0.1158
66751DOPC   C3A33801  30.727  26.687   5.111 -0.0093  0.0563 -0.0753
66751DOPC   C4A33802  30.531  26.226   5.336 -0.1640  0.2143 -0.2528
66751DOPC   C1B33803  30.898  27.742   5.223 -0.2864  0.2906 -0.0009
66751DOPC   D2B33804  30.573  27.601   5.422 -0.1009 -0.1137 -0.2861
66751DOPC   C3B33805  30.665  27.228   5.722  0.2867 -0.1652  0.1697
66751DOPC   C4B33806  30.360  26.971   5.658  0.0508 -0.4917  0.0927
66752DOPC   NC333807  32.836  33.751   6.789  0.0831  0.4011 -0.0251
66752DOPC   PO433808  32.643  33.726   7.164 -0.1297  0.1691  0.0217
66752DOPC   GL133809  32.433  33.905   7.412  0.1038  0.0490  0.0192
66752DOPC   GL233810  32.556  33.979   7.660  0.1103 -0.0835 -0.0130
66752DOPC   C1A33811  32.007  34.048   7.548  0.1575 -0.1778 -0.2134
66752DOPC   D2A33812  31.708  34.228   7.931  0.0838  0.2782  0.3254
66752DOPC   C3A33813  31.550  34.665   8.037 -0.2623 -0.1015 -0.2890
66752DOPC   C4A33814  31.275  34.918   8.104  0.0059  0.2275 -0.0275
66752DOPC   C1B33815  32.438  34.299   7.896  0.1359 -0.1026 -0.1005
66752DOPC   D2B33816  32.199  34.524   8.109  0.0585 -0.0756  0.0740
66752DOPC   C3B33817  31.884  34.493   8.376  0.1563 -0.1383 -0.1031
66752DOPC   C4B33818  31.553  34.246   8.400  0.0202  0.0855 -0.3506
66753DOPC   NC333819  11.776   8.288  14.663 -0.0684  0.3332  0.1267
66753DOPC   PO433820  12.154   8.126  14.938 -0.0347  0.1316  0.1640
66753DOPC   GL133821  12.039   8.126  15.320 -0.2324  0.0213 -0.2790
66753DOPC   GL233822  11.949   7.898  15.454  0.3622 -0.1953  0.2462
66753DOPC   C1A33823  12.119   8.359  15.652  0.2086 -0.0428 -0.0923
66753DOPC   D2A33824  12.235   8.588  15.934 -0.0766  0.0414 -0.0133
66753DOPC   C3A33825  11.927   8.798  16.140  0.2528 -0.3184  0.1501
66753DOPC   C4A33826  11.804   8.776  16.561  0.1843  0.2110  0.0789
66753DOPC   C1B33827  11.916   7.855  15.897 -0.0876  0.3055  0.1097
66753DOPC   D2B33828  11.957   7.734  16.304 -0.0617 -0.1838 -0.0432
66753DOPC   C3B33829  11.932   8.025  16.665 -0.2180 -0.0625 -0.0403
66753DOPC   C4B33830  11.470   8.045  16.971  0.0422  0.2463  0.3606
66754DOPC   NC333831  13.943  20.722  16.163 -0.0810 -0.0119 -0.1020
66754DOPC   PO433832  14.314  20.378  16.086  0.0388  0.0984 -0.0124
66754DOPC   GL133833  14.608  20.173  16.399  0.2810  0.1029 -0.2447
66754DOPC   GL233834  14.799  20.442  16.544 -0.2708 -0.0872  0.1197
66754DOPC   C1A33835  14.693  19.836  16.723 -0.0096 -0.3551  0.2140
66754DOPC   D2A33836  14.864  19.571  17.055  0.0865  0.0979  0.0255
66754DOPC   C3A33837  15.200  19.488  17.232 -0.2053 -0.0720 -0.1846
66754DOPC   C4A33838  15.527  19.777  17.333 -0.3198 -0.1245  0.1601
66754DOPC   C1B33839  14.850  20.367  16.894  0.5797 -0.3627  0.3767
66754DOPC   D2B33840  14.983  20.302  17.298 -0.0366  0.0322 -0.4051
66754DOPC   C3B33841  15.059  19.951  17.324 -0.2170  0.3493 -0.0025
66754DOPC   C4B33842  15.127  19.675  17.720 -0.0269 -0.2036 -0.4002
66755DOPC   NC333843  34.921  28.089   6.417  0.0089  0.1845 -0.1172
66755DOPC   PO433844  34.459  28.132   6.299 -0.1578  0.0035 -0.0255
66755DOPC   GL133845  34.370  27.856   6.600 -0.2380  0.1183  0.1046
66755DOPC   GL233846  34.117  27.946   6.678  0.2429  0.2523  0.3622
66755DOPC   C1A33847  34.190  27.428   6.952  0.2452 -0.2068  0.0707
66755DOPC   D2A33848  33.845  27.342   7.223 -0.1683 -0.4884  0.3832
66755DOPC   C3A33849  33.849  27.090   7.526 -0.1598 -0.2480 -0.2467
66755DOPC   C4A33850  33.541  26.769   7.570  0.1505  0.1142 -0.1429
66755DOPC   C1B33851  33.833  27.728   6.819 -0.0958  0.0842  0.2932
66755DOPC   D2B33852  33.511  27.381   6.866  0.1683 -0.1367  0.0894
66755DOPC   C3B33853  33.011  27.388   6.837 -0.0655  0.2164  0.0696
66755DOPC   C4B33854  32.843  27.653   7.046 -0.0509 -0.1831 -0.1140
66756DOPC   NC333855   9.330  26.066  16.981  0.0719  0.3513 -0.1681
66756DOPC   PO433856   9.421  26.300  17.314 -0.0496 -0.0469  0.2509
66756DOPC   GL133857   9.469  26.259  17.737  0.2634 -0.1762 -0.2949
66756DOPC   GL233858   9.359  25.982  17.819 -0.1560 -0.3695 -0.0722
66756DOPC   C1A33859   9.524  26.373  18.188 -0.2502 -0.2384  0.0461
66756DOPC   D2A33860   9.576  26.500  18.599  0.2569 -0.2227  0.0108
66756DOPC   C3A33861   9.375  26.354  18.830 -0.2743 -0.0523 -0.2915
66756DOPC   C4A33862   9.099  26.422  19.093  0.0815 -0.0626 -0.2723
66756DOPC   C1B33863   9.329  25.832  18.207  0.1301 -0.5779  0.3431
66756DOPC   D2B33864   9.271  26.033  18.476  0.1059  0.1954 -0.2953
66756DOPC   C3B33865   9.289  25.857  18.795  0.0470  0.3712 -0.0427
66756DOPC   C4B33866   9.378  25.962  19.184  0.2129  0.0462 -0.0015
66757DOPC   NC333867  34.234  21.874   1.483 -0.0472  0.2035 -0.0931
66757DOPC   PO433868  34.173  21.602   1.140  0.0049 -0.3007  0.1705
66757DOPC   GL133869  34.216  21.380   1.562  0.0766  0.1610 -0.3831
66757DOPC   GL233870  34.157  20.994   1.661 -0.1808  0.4120 -0.2662
66757DOPC   C1A33871  33.956  21.351   2.107  0.0159  0.1763  0.1646
66757DOPC   D2A33872  33.910  21.580   2.450  0.0655 -0.0171  0.0157
66757DOPC   C3A33873  33.603  21.597   2.674 -0.1550  0.2718  0.0601
66757DOPC   C4A33874  33.154  21.766   2.781  0.1471  0.0336 -0.0336
66757DOPC   C1B33875  33.871  20.799   1.910 -0.0456  0.0297  0.1199
66757DOPC   D2B33876  33.682  20.794   2.310  0.0944 -0.2063  0.0106
66757DOPC   C3B33877  33.853  21.060   2.561  0.1216 -0.1145  0.0043
66757DOPC   C4B33878  33.632  21.095   2.967  0.1327 -0.0927 -0.2401
66758DOPC   NC333879  31.619  29.968   6.012  0.1472 -0.0182  0.3179
66758DOPC   PO433880  32.094  29.950   6.168  0.1866  0.1276 -0.1625
66758DOPC   GL133881  31.862  29.744   6.587  0.3560 -0.0088 -0.1596
66758DOPC   GL233882  31.557  29.927   6.563  0.2942 -0.1345  0.0247
66758DOPC   C1A33883  31.730  29.384   6.911  0.0424 -0.3000  0.3214
66758DOPC   D2A33884  31.632  28.987   7.172 -0.1361  0.0662 -0.0930
66758DOPC   C3A33885  31.539  29.057   7.471  0.0417 -0.0260  0.0440
66758DOPC   C4A33886  31.496  29.311   7.805 -0.4131 -0.0713  0.2331
66758DOPC   C1B33887  31.467  29.780   6.952 -0.2324 -0.3031 -0.0935
66758DOPC   D2B33888  31.500  29.590   7.348 -0.2363 -0.0292  0.2841
66758DOPC   C3B33889  31.249  29.827   7.700  0.0526 -0.3862 -0.0221
66758DOPC   C4B33890  31.212  30.012   8.144  0.3185  0.1060 -0.1107
66759DOPC   NC333891   0.703  33.566   9.073  0.4048  0.1961 -0.0960
66759DOPC   PO433892   0.281  33.446   9.281  0.0453 -0.0995 -0.0408
66759DOPC   GL133893   0.271  33.488   9.734 -0.0941  0.1981  0.1968
66759DOPC   GL233894   0.428  33.258   9.855  0.0951 -0.1428 -0.0293
66759DOPC   C1A33895   0.022  33.457  10.007 -0.1880  0.1411 -0.1744
66759DOPC   D2A33896  35.211  33.366  10.453  0.0226  0.0620  0.0737
66759DOPC   C3A33897  34.958  33.075  10.383  0.2854  0.0704  0.2588
66759DOPC   C4A33898  34.658  32.822  10.348  0.0707  0.2463  0.1171
66759DOPC   C1B33899   0.369  32.906  10.087 -0.1515  0.0051  0.1732
66759DOPC   D2B33900   0.446  32.482   9.954  0.0832  0.1940 -0.1906
66759DOPC   C3B33901   0.072  32.135   9.936  0.3820  0.1172  0.3415
66759DOPC   C4B33902  35.121  31.947  10.230 -0.1177  0.0444 -0.0574
66760DOPC   NC333903   2.333  15.129   3.387  0.0378 -0.0302  0.0363
66760DOPC   PO433904   2.535  15.081   3.807 -0.2176 -0.1523 -0.0425
66760DOPC   GL133905   2.096  15.258   3.907 -0.2789  0.1812  0.1089
66760DOPC   GL233906   1.995  15.161   4.133 -0.0042 -0.1084 -0.0730
66760DOPC   C1A33907   1.772  15.666   4.077 -0.1252 -0.0009 -0.1654
66760DOPC   D2A33908   1.422  15.844   4.253 -0.0792 -0.1270 -0.0437
66760DOPC   C3A33909   1.187  15.941   4.584  0.0165  0.3234 -0.3567
66760DOPC   C4A33910   0.923  16.083   4.970 -0.0246 -0.0159  0.2147
66760DOPC   C1B33911   1.942  15.438   4.474 -0.3578 -0.1627  0.4473
66760DOPC   D2B33912   1.649  15.760   4.725  0.1774 -0.1224  0.0616
66760DOPC   C3B33913   1.736  15.771   5.152  0.4351  0.1510  0.0044
66760DOPC   C4B33914   1.752  16.096   5.453 -0.0015 -0.2866 -0.0298
66761DOPC   NC333915   0.579  23.774   2.589 -0.2580  0.1360 -0.0717
66761DOPC   PO433916   0.405  23.392   2.726  0.2719 -0.2339 -0.1647
66761DOPC   GL133917   0.353  23.094   3.014 -0.1210 -0.1487  0.1579
66761DOPC   GL233918   0.275  22.880   2.849  0.0223 -0.1040  0.0567
66761DOPC   C1A33919   0.213  22.756   3.363 -0.1917 -0.2196 -0.1044
66761DOPC   D2A33920   0.031  22.687   3.797  0.0289 -0.0300 -0.3648
66761DOPC   C3A33921  35.228  22.578   4.123 -0.2087  0.0646  0.0698
66761DOPC   C4A33922   0.069  22.543   4.528 -0.4889  0.0438  0.0852
66761DOPC   C1B33923  35.246  22.660   3.039 -0.2668 -0.0247  0.1319
66761DOPC   D2B33924  35.174  22.615   3.368  0.1579 -0.0534  0.0313
66761DOPC   C3B33925  34.906  22.524   3.678  0.0367  0.1300  0.1764
66761DOPC   C4B33926  34.720  22.605   4.009 -0.2522  0.2229  0.3102
66762PAPC   NC333927  16.258  28.597  12.614  0.4763  0.0714  0.1746
66762PAPC   PO433928  16.235  29.012  12.397 -0.0985 -0.0629 -0.0018
66762PAPC   GL133929  16.554  29.075  12.671 -0.0587  0.0096 -0.0581
66762PAPC   GL233930  16.762  29.260  12.578 -0.0132  0.0150  0.0963
66762PAPC   D1A33931  16.729  29.083  13.158  0.0014  0.1731  0.0584
66762PAPC   D2A33932  16.769  29.262  13.569  0.0276 -0.0600  0.1312
66762PAPC   D3A33933  17.138  29.417  13.440 -0.1758  0.3854  0.3410
66762PAPC   D4A33934  17.148  29.526  13.860 -0.0020  0.4452  0.0681
66762PAPC   C5A33935  17.417  29.843  14.080 -0.0293  0.0083  0.0102
66762PAPC   C1B33936  17.084  29.480  12.904 -0.1333  0.2274  0.4968
66762PAPC   C2B33937  17.472  29.734  13.049  0.2717 -0.0834 -0.3936
66762PAPC   C3B33938  17.814  30.022  13.118 -0.2403  0.0382  0.4159
66762PAPC   C4B33939  17.963  30.391  13.052  0.1148  0.1473 -0.1214
66763PAPC   NC333940   5.335   3.330  11.652  0.1761  0.4669 -0.1956
66763PAPC   PO433941   5.654   3.429  11.936  0.1527  0.3566  0.0798
66763PAPC   GL133942   5.322   3.151  12.150 -0.0092 -0.0233  0.0547
66763PAPC   GL233943   5.064   2.900  12.282  0.2550  0.2151  0.2266
66763PAPC   D1A33944   5.118   3.322  12.583 -0.1654 -0.3221 -0.0959
66763PAPC   D2A33945   4.675   3.394  12.681 -0.0715 -0.1362 -0.2057
66763PAPC   D3A33946   4.872   3.772  12.733  0.0801 -0.0196  0.1466
66763PAPC   D4A33947   4.994   3.586  13.044 -0.0963  0.1063  0.2077
66763PAPC   C5A33948   4.883   3.724  13.364  0.1914 -0.1262  0.2225
66763PAPC   C1B33949   4.667   2.908  12.519 -0.0614  0.1727 -0.2163
66763PAPC   C2B33950   4.288   3.077  12.776  0.0927  0.3669  0.0520
66763PAPC   C3B33951   4.015   3.223  13.187 -0.1554 -0.0009 -0.0713
66763PAPC   C4B33952   4.149   3.615  13.415 -0.1491 -0.0843  0.2263
66764PAPC   NC333953   6.337   7.615  11.730 -0.1144  0.1335 -0.2389
66764PAPC   PO433954   5.952   7.586  11.632  0.0417  0.1601  0.0549
66764PAPC   GL133955   5.451   7.558  11.642 -0.0285 -0.0029  0.2311
66764PAPC   GL233956   5.444   7.424  11.887  0.4155 -0.1875 -0.0314
66764PAPC   D1A33957   5.155   7.470  11.392 -0.1865  0.1773 -0.0546
66764PAPC   D2A33958   5.252   7.307  10.974 -0.0632  0.0550  0.0414
66764PAPC   D3A33959   4.968   7.042  11.127  0.0433 -0.0156  0.2322
66764PAPC   D4A33960   4.753   7.371  11.132 -0.4452  0.5095 -0.1389
66764PAPC   C5A33961   4.668   7.509  11.523 -0.1530 -0.3501 -0.1238
66764PAPC   C1B33962   4.996   7.450  11.916  0.1099 -0.1666  0.1562
66764PAPC   C2B33963   4.647   7.442  12.039  0.0050 -0.0825 -0.4050
66764PAPC   C3B33964   4.305   7.730  12.032  0.0627  0.1576 -0.0428
66764PAPC   C4B33965   4.090   8.055  12.237 -0.0383  0.2246 -0.0079
66765PAPC   NC333966  32.796  23.904   0.730  0.1683  0.3011 -0.2942
66765PAPC   PO433967  32.353  23.805   0.636  0.1329  0.0682  0.0606
66765PAPC   GL133968  32.356  23.423   0.695 -0.3001  0.0260  0.0036
66765PAPC   GL233969  32.466  23.407   1.009 -0.0618 -0.3083 -0.1649
66765PAPC   D1A33970  32.280  22.968   0.737  0.1745 -0.1217  0.0112
66765PAPC   D2A33971  31.925  23.267   0.893  0.2428 -0.1238  0.2847
66765PAPC   D3A33972  31.674  22.848   0.824 -0.0730  0.2187 -0.1936
66765PAPC   D4A33973  31.478  23.180   0.564  0.0477 -0.1663  0.0285
66765PAPC   C5A33974  31.471  23.546   0.673  0.3719  0.0609  0.1557
66765PAPC   C1B33975  32.320  22.983   1.198  0.1716 -0.2746  0.1291
66765PAPC   C2B33976  32.118  22.897   1.625  0.0124  0.1460  0.0060
66765PAPC   C3B33977  32.034  22.750   2.007 -0.1096  0.0247 -0.0518
66765PAPC   C4B33978  31.821  22.811   2.267 -0.1703  0.2463 -0.1504
66766PAPC   NC333979  15.465  22.317  16.133  0.0510 -0.2483 -0.4309
66766PAPC   PO433980  15.902  22.317  15.923  0.0264 -0.4259 -0.3330
66766PAPC   GL133981  16.160  22.251  16.249 -0.1655  0.0938 -0.1811
66766PAPC   GL233982  16.175  21.863  16.408 -0.3093  0.0540  0.0128
66766PAPC   D1A33983  16.492  22.209  16.603 -0.1226  0.1381 -0.0465
66766PAPC   D2A33984  16.771  21.938  16.869 -0.0746  0.1138 -0.1028
66766PAPC   D3A33985  16.575  21.659  16.596 -0.0619  0.0131  0.1720
66766PAPC   D4A33986  16.543  21.305  16.774 -0.2747 -0.0768  0.1271
66766PAPC   C5A33987  16.159  21.215  16.782 -0.0942 -0.1811 -0.2162
66766PAPC   C1B33988  16.259  21.313  16.301 -0.1675 -0.2865  0.0629
66766PAPC   C2B33989  16.378  21.000  16.353  0.0782 -0.2627 -0.0421
66766PAPC   C3B33990  16.555  20.720  16.639 -0.0387  0.0846 -0.0888
66766PAPC   C4B33991  16.758  20.373  16.907  0.0219  0.3742 -0.3194
66767PAPC   NC333992   6.362   6.659  11.411 -0.2156  0.0735  0.0119
66767PAPC   PO433993   6.066   6.642  11.784 -0.0785  0.1929 -0.0731
66767PAPC   GL133994   5.764   6.418  12.050  0.0988 -0.1903  0.0083
66767PAPC   GL233995   5.576   6.640  12.232 -0.0324 -0.0937 -0.1196
66767PAPC   D1A33996   5.478   6.109  12.102  0.0807 -0.0918  0.0903
66767PAPC   D2A33997   5.764   5.779  12.238 -0.0421  0.0837  0.1847
66767PAPC   D3A33998   5.938   5.804  12.607 -0.0119 -0.5959 -0.1725
66767PAPC   D4A33999   5.473   5.940  12.674  0.1590  0.0831  0.0235
66767PAPC   C5A34000   5.380   5.770  12.977 -0.1410 -0.0099 -0.1254
66767PAPC   C1B34001   5.141   6.788  12.217  0.0430  0.3208 -0.1239
66767PAPC   C2B34002   4.667   6.815  12.361 -0.2114  0.0197  0.0078
66767PAPC   C3B34003   4.635   6.427  12.628  0.1943 -0.2426  0.1607
66767PAPC   C4B34004   4.436   6.006  12.652 -0.0062  0.1227 -0.1491
66768DAPC   NC334005  33.565  21.386   0.587  0.1874 -0.3305  0.1826
66768DAPC   PO434006  33.694  21.757   0.799  0.2385 -0.2663 -0.2416
66768DAPC   GL134007  33.281  21.708   0.950  0.1526 -0.0753  0.2138
66768DAPC   GL234008  33.082  21.556   0.727  0.0476  0.1870 -0.0868
66768DAPC   D1A34009  32.906  21.855   1.083 -0.0801  0.2775 -0.1733
66768DAPC   D2A34010  32.705  21.701   1.466 -0.3436  0.1801  0.1115
66768DAPC   D3A34011  32.846  22.196   1.662 -0.2254  0.3879  0.3693
66768DAPC   D4A34012  32.738  22.010   1.993  0.0190 -0.0151  0.0147
66768DAPC   C5A34013  32.489  21.686   1.911 -0.2005 -0.1068  0.0402
66768DAPC   D1B34014  32.752  21.323   0.973 -0.0233 -0.1111 -0.2787
66768DAPC   D2B34015  32.360  21.469   1.132  0.0520 -0.1491  0.3747
66768DAPC   D3B34016  32.069  21.540   0.884 -0.0561  0.1668  0.1493
66768DAPC   D4B34017  31.865  21.438   1.190 -0.0992 -0.1583 -0.2579
66768DAPC   C5B34018  31.588  21.547   1.427 -0.0230  0.0585 -0.0956
66769DAPC   NC334019   6.487  11.343  10.805 -0.1000  0.1424 -0.3600
66769DAPC   PO434020   6.687  11.613  11.065 -0.0473  0.1285 -0.0914
66769DAPC   GL134021   6.712  11.467  11.344  0.1428  0.2727 -0.4021
66769DAPC   GL234022   6.538  11.501  11.559 -0.0363  0.2094  0.0044
66769DAPC   D1A34023   6.664  11.036  11.562 -0.3463  0.0419  0.1167
66769DAPC   D2A34024   6.226  11.184  11.792  0.0926  0.2868  0.3543
66769DAPC   D3A34025   5.963  10.964  11.515 -0.0979  0.4802 -0.0227
66769DAPC   D4A34026   5.711  10.969  11.778  0.0816  0.1991 -0.0084
66769DAPC   C5A34027   5.823  11.002  12.104  0.2232 -0.2050 -0.0756
66769DAPC   D1B34028   6.454  11.932  11.377 -0.1079 -0.0209 -0.1148
66769DAPC   D2B34029   6.332  12.198  11.739 -0.3492  0.4766 -0.1707
66769DAPC   D3B34030   6.397  12.080  12.172 -0.5712 -0.0279  0.0505
66769DAPC   D4B34031   6.314  11.713  11.981  0.0004  0.0503 -0.0124
66769DAPC   C5B34032   5.999  11.498  12.101  0.0932 -0.0534 -0.1096
66770DAPC   NC334033  27.585  28.800   4.199 -0.0947  0.0234 -0.0165
66770DAPC   PO434034  27.512  28.424   3.765  0.1552  0.0874  0.0275
66770DAPC   GL134035  27.321  28.310   4.147 -0.2640 -0.1790 -0.0985
66770DAPC   GL234036  26.991  28.259   4.161 -0.1418 -0.2435 -0.0263
66770DAPC   D1A34037  27.374  28.377   4.640 -0.0842 -0.1918 -0.0208
66770DAPC   D2A34038  27.411  28.095   4.927 -0.1647 -0.1962 -0.1168
66770DAPC   D3A34039  27.128  27.673   4.870  0.1244 -0.0829 -0.0705
66770DAPC   D4A34040  27.254  27.289   4.793  0.0621 -0.2691 -0.3154
66770DAPC   C5A34041  27.367  27.009   5.134  0.0862 -0.2921  0.2915
66770DAPC   D1B34042  27.025  27.950   4.407 -0.1040 -0.0860  0.0624
66770DAPC   D2B34043  27.046  27.560   4.369  0.3171  0.0194  0.0161
66770DAPC   D3B34044  26.627  27.319   4.239 -0.2840 -0.3567 -0.3334
66770DAPC   D4B34045  26.819  26.838   4.119 -0.1836 -0.2853  0.3729
66770DAPC   C5B34046  26.885  26.506   4.438  0.2840  0.2147  0.0010
66771DAPC   NC334047  10.374  26.003  17.496 -0.0816 -0.1401 -0.0633
66771DAPC   PO434048  10.103  25.673  17.488 -0.0369  0.2667  0.1375
66771DAPC   GL134049  10.222  25.670  17.859  0.3799 -0.0461 -0.2226
66771DAPC   GL234050  10.280  25.381  18.061  0.0356  0.1000  0.0817
66771DAPC   D1A34051  10.358  26.015  18.011 -0.0966 -0.0101  0.0781
66771DAPC   D2A34052  10.352  25.894  18.484 -0.0114 -0.0879 -0.3397
66771DAPC   D3A34053  10.282  25.656  18.868  0.1687 -0.0310 -0.5048
66771DAPC   D4A34054  10.466  25.845  19.158 -0.1345  0.0722  0.0825
66771DAPC   C5A34055  10.308  25.782  19.600  0.1118 -0.3405 -0.3824
66771DAPC   D1B34056  10.630  25.675  18.119 -0.1371 -0.0904  0.1175
66771DAPC   D2B34057  10.999  25.756  18.419  0.2562 -0.0489  0.0763
66771DAPC   D3B34058  10.796  25.600  18.784  0.0226  0.1580 -0.3254
66771DAPC   D4B34059  10.926  25.820  19.139  0.0120 -0.2568  0.0396
66771DAPC   C5B34060  10.733  26.161  19.433  0.2712 -0.2059 -0.1155
66772DAPC   NC334061   6.399  17.460   9.052  0.2389 -0.1643  0.0668
66772DAPC   PO434062   6.326  17.006   9.131  0.0962  0.2072  0.1551
66772DAPC   GL134063   5.951  17.150   9.157  0.0075  0.2004  0.3530
66772DAPC   GL234064   5.892  17.512   9.108 -0.0328  0.3433 -0.0029
66772DAPC   D1A34065   5.744  17.283   9.556 -0.0663 -0.0119 -0.0094
66772DAPC   D2A34066   5.319  17.277   9.770  0.1900 -0.3059  0.1045
66772DAPC   D3A34067   5.155  17.262   9.358 -0.1671  0.1099 -0.0901
66772DAPC   D4A34068   4.895  17.542   9.565  0.0300  0.0963  0.0254
66772DAPC   C5A34069   4.983  17.966   9.453  0.0403 -0.2123  0.3066
66772DAPC   D1B34070   5.660  17.301   8.743  0.1599  0.1070 -0.0412
66772DAPC   D2B34071   5.198  17.243   8.838 -0.0153 -0.0439  0.0282
66772DAPC   D3B34072   4.995  17.663   8.661  0.1399 -0.0978 -0.0027
66772DAPC   D4B34073   4.897  17.567   9.077  0.0172 -0.1828 -0.0713
66772DAPC   C5B34074   4.563  17.859   9.281 -0.2143  0.1655 -0.0532
66773POPE   NH334075  34.863  16.684   1.459 -0.1197 -0.0628 -0.0396
66773POPE   PO434076  35.267  16.775   1.562 -0.2714 -0.2577  0.2816
66773POPE   GL134077  35.064  17.101   1.831  0.2499  0.0713  0.1889
66773POPE   GL234078  34.743  16.945   1.871  0.2505 -0.1826  0.1398
66773POPE   C1A34079  35.056  17.093   2.224  0.1842  0.4764  0.1045
66773POPE   D2A34080  35.175  17.030   2.685  0.0091 -0.1843 -0.1654
66773POPE   C3A34081  35.225  16.616   2.820  0.0739  0.2536  0.0752
66773POPE   C4A34082   0.074  16.271   2.990 -0.2901  0.3380 -0.1867
66773POPE   C1B34083  34.569  16.930   2.340  0.1775  0.1714  0.1402
66773POPE   C2B34084  34.303  16.777   2.713  0.1971 -0.0221  0.2733
66773POPE   C3B34085  34.238  16.868   3.078  0.0156  0.0455 -0.2566
66773POPE   C4B34086  33.940  16.725   3.373 -0.0385  0.2457  0.2118
66774POPE   NH334087   9.808  27.394  17.349  0.1796  0.0065 -0.0557
66774POPE   PO434088   9.915  27.737  17.203 -0.2811  0.3616  0.1156
66774POPE   GL134089   9.884  27.819  17.624 -0.3027 -0.1984  0.1926
66774POPE   GL234090  10.091  28.078  17.607 -0.1628 -0.1045 -0.2489
66774POPE   C1A34091   9.842  27.913  17.997  0.1537  0.0230  0.0046
66774POPE   D2A34092   9.943  28.081  18.301 -0.0755 -0.2294 -0.1115
66774POPE   C3A34093   9.744  27.994  18.730  0.1880 -0.2713 -0.0905
66774POPE   C4A34094   9.426  28.004  19.081 -0.0214 -0.0282  0.2012
66774POPE   C1B34095  10.102  28.483  17.918 -0.0474 -0.0722  0.3471
66774POPE   C2B34096  10.045  28.563  18.392 -0.2244  0.4266 -0.3323
66774POPE   C3B34097   9.860  28.540  18.703  0.0209  0.0611 -0.1273
66774POPE   C4B34098   9.643  28.500  19.044  0.0445 -0.1378  0.1123
66775POPE   NH334099  22.563   3.002   7.922  0.2635  0.1421  0.0843
66775POPE   PO434100  22.694   3.419   8.019 -0.1534  0.1732  0.0863
66775POPE   GL134101  23.101   3.446   8.172 -0.1906  0.0314 -0.0299
66775POPE   GL234102  23.350   3.212   8.136 -0.2208  0.0580  0.1361
66775POPE   C1A34103  23.316   3.766   8.395  0.1905 -0.0464  0.0482
66775POPE   D2A34104  23.539   3.846   8.823  0.4529 -0.0602  0.1983
66775POPE   C3A34105  23.569   3.613   9.176  0.2124  0.0166  0.3047
66775POPE   C4A34106  23.615   3.788   9.624 -0.1824 -0.0484  0.3582
66775POPE   C1B34107  23.379   3.265   8.534 -0.2714 -0.1382  0.0458
66775POPE   C2B34108  23.226   3.116   8.911  0.4291  0.1811 -0.1720
66775POPE   C3B34109  23.425   3.034   9.333 -0.0766 -0.2495 -0.0969
66775POPE   C4B34110  23.406   3.260   9.735 -0.3586 -0.2621  0.1835
66776POPE   NH334111   8.052   7.736  13.993  0.0300 -0.1790  0.0861
66776POPE   PO434112   8.057   8.207  14.035 -0.1934  0.2595  0.1585
66776POPE   GL134113   8.087   8.211  14.439 -0.2933 -0.3056 -0.2671
66776POPE   GL234114   8.074   7.903  14.529  0.0797 -0.1965  0.0954
66776POPE   C1A34115   7.949   8.574  14.823  0.0121 -0.0467 -0.0353
66776POPE   D2A34116   7.650   8.713  15.100  0.0207 -0.1765 -0.1715
66776POPE   C3A34117   7.732   8.797  15.547  0.2329 -0.0944 -0.2140
66776POPE   C4A34118   8.004   9.032  15.874 -0.1498  0.3204 -0.0601
66776POPE   C1B34119   7.935   8.084  14.980  0.3335  0.3227  0.3639
66776POPE   C2B34120   7.692   8.307  15.352 -0.1166  0.0430  0.1649
66776POPE   C3B34121   7.597   8.398  15.756  0.3369  0.2253 -0.2691
66776POPE   C4B34122   7.170   8.443  15.991  0.1738  0.1503 -0.1854
66777POPE   NH334123   6.092  14.575  11.287  0.4314 -0.0568  0.1070
66777POPE   PO434124   6.130  14.971  11.496 -0.5499 -0.3697  0.0693
66777POPE   GL134125   5.781  15.121  11.608  0.1875  0.1026 -0.3255
66777POPE   GL234126   5.565  14.958  11.763  0.1006 -0.0619 -0.2009
66777POPE   C1A34127   5.350  15.224  11.412 -0.0386  0.1929  0.1452
66777POPE   D2A34128   4.996  15.239  11.641  0.1768  0.1913 -0.2091
66777POPE   C3A34129   4.491  15.177  11.605 -0.2614 -0.2879 -0.2506
66777POPE   C4A34130   4.062  15.276  11.534  0.3622 -0.3316 -0.2052
66777POPE   C1B34131   5.177  14.988  12.054  0.1099  0.2213  0.0793
66777POPE   C2B34132   4.728  15.097  12.103 -0.1632  0.1048 -0.1528
66777POPE   C3B34133   4.417  15.317  12.056 -0.1336 -0.1054 -0.0530
66777POPE   C4B34134   3.950  15.450  11.988 -0.2580  0.0453 -0.1506
66778POPE   NH334135  11.212   3.852  14.320 -0.2133 -0.0012  0.1705
66778POPE   PO434136  10.820   3.711  14.589 -0.1242 -0.1955 -0.0233
66778POPE   GL134137  10.705   3.933  14.941 -0.1202  0.2570 -0.0021
66778POPE   GL234138  10.448   3.766  15.018  0.3036 -0.1122 -0.1156
66778POPE   C1A34139  10.693   4.098  15.279  0.3217  0.0217 -0.1426
66778POPE   D2A34140  10.643   4.239  15.769  0.0365 -0.1297  0.1698
66778POPE   C3A34141  10.837   4.484  15.941 -0.0624  0.0246  0.1380
66778POPE   C4A34142  11.189   4.476  16.154  0.0519 -0.2976  0.0787
66778POPE   C1B34143  10.364   3.393  15.336  0.0417 -0.1932 -0.1291
66778POPE   C2B34144  10.522   3.354  15.793 -0.0460 -0.0895  0.4269
66778POPE   C3B34145  10.772   3.473  16.136  0.1139 -0.1708  0.2651
66778POPE   C4B34146  10.881   3.201  16.556  0.1895 -0.3469  0.1249
66779POPE   NH334147  34.722  24.327   1.905  0.0421 -0.2281 -0.0598
66779POPE   PO434148  34.925  23.960   2.008  0.0322 -0.0711 -0.3449
66779POPE   GL134149  34.820  23.680   2.438  0.1843  0.0042 -0.1207
66779POPE   GL234150  35.020  23.472   2.593 -0.2694 -0.1100 -0.0749
66779POPE   C1A34151  34.491  23.765   2.692  0.0921 -0.2987  0.0118
66779POPE   D2A34152  34.385  23.605   3.045  0.3156  0.1193 -0.4119
66779POPE   C3A34153  34.009  23.598   3.331 -0.1789  0.4696 -0.1761
66779POPE   C4A34154  33.567  23.613   3.240 -0.1703 -0.1749 -0.0587
66779POPE   C1B34155  34.824  23.390   3.001 -0.0573  0.0555  0.0519
66779POPE   C2B34156  34.716  23.384   3.377 -0.1038 -0.0785 -0.2800
66779POPE   C3B34157  34.346  23.330   3.634 -0.2370  0.1495 -0.0456
66779POPE   C4B34158  33.919  23.329   3.749 -0.0230 -0.1381 -0.0923
66780POPE   NH334159  23.690  22.892   2.499 -0.1067  0.1071  0.1584
66780POPE   PO434160  23.881  22.982   2.805 -0.0037  0.0310  0.0651
66780POPE   GL134161  24.242  22.861   3.006  0.1887  0.2552  0.0956
66780POPE   GL234162  24.523  22.825   2.688 -0.0250 -0.0175  0.1645
66780POPE   C1A34163  24.483  22.772   3.351  0.0076  0.0980  0.0953
66780POPE   D2A34164  24.695  22.498   3.755  0.1782 -0.0215 -0.2311
66780POPE   C3A34165  24.581  22.409   4.093  0.0065  0.0337  0.1240
66780POPE   C4A34166  24.576  22.307   4.505 -0.1010  0.0404  0.0489
66780POPE   C1B34167  24.771  22.634   2.940  0.0709  0.0880 -0.2403
66780POPE   C2B34168  25.115  22.542   3.208  0.4104 -0.0078  0.0006
66780POPE   C3B34169  25.189  22.456   3.674 -0.1115 -0.2050  0.3240
66780POPE   C4B34170  24.965  22.001   3.924  0.0113 -0.0537 -0.0512
66781POPE   NH334171  10.181  19.884  15.402 -0.1126  0.1951  0.0317
66781POPE   PO434172   9.988  19.921  15.708 -0.1567 -0.0179 -0.2028
66781POPE   GL134173   9.732  19.714  16.010 -0.1215  0.1402  0.0278
66781POPE   GL234174   9.479  19.582  15.894 -0.3066 -0.2511  0.1686
66781POPE   C1A34175   9.504  19.506  16.419 -0.0856  0.0139  0.2542
66781POPE   D2A34176   9.350  19.196  16.657 -0.2126 -0.2164 -0.0741
66781POPE   C3A34177   9.681  18.861  16.847  0.1977  0.1928 -0.0819
66781POPE   C4A34178  10.059  18.758  16.651 -0.2381 -0.2772 -0.1377
66781POPE   C1B34179   9.202  19.247  16.018 -0.0974 -0.3692 -0.1391
66781POPE   C2B34180   8.916  19.044  16.330  0.3274 -0.0463 -0.0338
66781POPE   C3B34181   8.948  18.945  16.707  0.2519  0.1258 -0.2263
66781POPE   C4B34182   8.617  19.119  17.020  0.3859 -0.0255 -0.0347
66782POPE   NH334183   8.925  30.915  16.737 -0.0677  0.1177  0.0817
66782POPE   PO434184   8.504  30.962  16.551 -0.1825 -0.0257  0.0854
66782POPE   GL134185   8.417  31.118  16.948  0.2538 -0.1376  0.1823
66782POPE   GL234186   8.023  30.970  16.962 -0.0353  0.1326 -0.2691
66782POPE   C1A34187   8.216  31.089  17.375  0.1561 -0.1330  0.0020
66782POPE   D2A34188   7.933  31.227  17.749  0.1642  0.1087  0.0609
66782POPE   C3A34189   7.679  31.118  18.068 -0.1929  0.1321  0.0751
66782POPE   C4A34190   7.490  31.289  18.391 -0.4137  0.1111  0.0092
66782POPE   C1B34191   7.664  31.074  17.231 -0.1002  0.2792 -0.0437
66782POPE   C2B34192   7.387  31.119  17.643  0.0724 -0.0015 -0.0197
66782POPE   C3B34193   7.218  31.313  17.973  0.0524 -0.2720 -0.0130
66782POPE   C4B34194   7.079  31.625  18.323 -0.1780 -0.2477 -0.1176
66783POPE   NH334195  16.518  19.878  14.594  0.1240 -0.0588 -0.2270
66783POPE   PO434196  16.332  19.523  14.506  0.4498  0.0610  0.2087
66783POPE   GL134197  16.552  19.435  14.841 -0.0072  0.1546  0.0786
66783POPE   GL234198  16.976  19.538  14.789 -0.1416 -0.0632 -0.0374
66783POPE   C1A34199  16.757  19.564  15.301  0.0947  0.1036 -0.1635
66783POPE   D2A34200  17.030  19.518  15.529 -0.0147  0.1578  0.1904
66783POPE   C3A34201  17.230  19.312  15.911  0.1488  0.0331 -0.2549
66783POPE   C4A34202  17.348  19.300  16.299 -0.0428  0.0832  0.0743
66783POPE   C1B34203  17.222  19.360  15.111 -0.1561 -0.2337  0.2950
66783POPE   C2B34204  17.416  19.208  15.442  0.2995 -0.2795 -0.2101
66783POPE   C3B34205  17.637  18.961  15.793  0.2050  0.1332  0.0628
66783POPE   C4B34206  17.594  18.789  16.206  0.1374 -0.0675  0.0969
66784POPE   NH334207  34.415   7.279   5.176  0.1272 -0.0749  0.2017
66784POPE   PO434208  34.085   7.048   5.386  0.1596 -0.0501  0.2117
66784POPE   GL134209  33.768   7.327   5.467 -0.0593 -0.1429  0.0625
66784POPE   GL234210  33.912   7.341   5.794  0.2563  0.0928  0.0306
66784POPE   C1A34211  33.540   7.634   5.587 -0.3467 -0.0285 -0.1171
66784POPE   D2A34212  33.163   7.729   5.661 -0.1581 -0.2456  0.3572
66784POPE   C3A34213  33.111   8.117   5.560 -0.3932 -0.0027  0.2312
66784POPE   C4A34214  33.303   8.386   5.858  0.1570  0.1815 -0.0439
66784POPE   C1B34215  33.721   7.671   6.078  0.0321  0.0856  0.1360
66784POPE   C2B34216  33.410   7.900   6.210 -0.0680  0.0040 -0.0790
66784POPE   C3B34217  33.055   8.197   6.300  0.2539  0.0626  0.0221
66784POPE   C4B34218  32.814   8.507   6.208 -0.2168  0.0429  0.1383
66785POPE   NH334219  34.124   5.421   6.858  0.2865  0.0059  0.1985
66785POPE   PO434220  34.261   5.856   6.712 -0.0490  0.0289  0.0406
66785POPE   GL134221  34.276   6.003   7.104 -0.0038  0.2422  0.1818
66785POPE   GL234222  34.331   6.279   7.029 -0.0520 -0.1812  0.0293
66785POPE   C1A34223  34.331   6.119   7.514 -0.2075 -0.0030  0.0228
66785POPE   D2A34224  34.191   6.314   7.843  0.0684  0.0579  0.0116
66785POPE   C3A34225  34.225   6.246   8.228  0.1351  0.0731  0.1612
66785POPE   C4A34226  33.903   6.373   8.484 -0.3602 -0.1272  0.0048
66785POPE   C1B34227  34.092   6.532   7.400 -0.1692 -0.0239  0.2860
66785POPE   C2B34228  33.740   6.894   7.567 -0.0178  0.0427 -0.3032
66785POPE   C3B34229  33.536   7.207   7.770  0.1911 -0.3250  0.3158
66785POPE   C4B34230  33.320   7.094   7.994 -0.0571  0.1893 -0.1086
66786POPE   NH334231   8.283  28.728  16.814  0.0569  0.2577 -0.0440
66786POPE   PO434232   8.301  29.182  16.596 -0.1163  0.1689 -0.2019
66786POPE   GL134233   8.133  29.130  17.054 -0.2464  0.0470 -0.1151
66786POPE   GL234234   7.806  29.322  17.205  0.0789  0.0881  0.2818
66786POPE   C1A34235   8.158  29.135  17.570  0.0168 -0.3169 -0.3465
66786POPE   D2A34236   8.015  28.920  17.953  0.0777 -0.1509 -0.0907
66786POPE   C3A34237   7.815  29.198  18.278  0.1324  0.2269  0.2161
66786POPE   C4A34238   7.760  29.274  18.692 -0.0360 -0.4176  0.1891
66786POPE   C1B34239   7.660  29.172  17.656 -0.0262 -0.4346 -0.2151
66786POPE   C2B34240   7.310  29.123  17.996 -0.0589 -0.0716  0.3606
66786POPE   C3B34241   7.302  29.042  18.443  0.0857 -0.0284  0.0981
66786POPE   C4B34242   7.244  29.266  18.881  0.1486  0.1090  0.1413
66787POPE   NH334243  19.111  15.743  11.102 -0.0154  0.1730 -0.0744
66787POPE   PO434244  19.204  16.189  11.057 -0.3949 -0.0454  0.1313
66787POPE   GL134245  19.514  15.939  11.344  0.1182  0.2645  0.0488
66787POPE   GL234246  19.371  16.048  11.609  0.0091  0.0798 -0.0254
66787POPE   C1A34247  19.865  15.921  11.488 -0.1163  0.1367 -0.0411
66787POPE   D2A34248  20.182  15.872  11.779 -0.1504  0.1117  0.1193
66787POPE   C3A34249  20.481  15.983  12.065 -0.2221 -0.3963 -0.3687
66787POPE   C4A34250  20.774  16.386  12.164 -0.0414  0.0666  0.1833
66787POPE   C1B34251  19.800  16.154  12.013 -0.0622 -0.1383  0.1082
66787POPE   C2B34252  20.226  16.351  12.166 -0.0990  0.1407 -0.0804
66787POPE   C3B34253  20.321  16.663  12.163 -0.0129 -0.1332 -0.0656
66787POPE   C4B34254  20.776  16.886  12.157  0.0981  0.1430  0.0235
66788POPE   NH334255   3.579  29.874  13.072 -0.2548  0.0219  0.1031
66788POPE   PO434256   3.214  30.165  12.856  0.1351  0.0855 -0.1055
66788POPE   GL134257   2.934  30.006  13.129 -0.2690  0.0203 -0.0438
66788POPE   GL234258   2.922  29.694  13.158 -0.1116 -0.0441  0.1421
66788POPE   C1A34259   2.535  29.951  13.403 -0.0965 -0.2328  0.2032
66788POPE   D2A34260   2.156  30.038  13.726 -0.1906  0.0867  0.0351
66788POPE   C3A34261   1.796  30.143  13.795  0.4307  0.2188 -0.1371
66788POPE   C4A34262   1.443  30.285  13.821  0.1695  0.0094 -0.0634
66788POPE   C1B34263   2.509  29.490  13.227  0.1854  0.3884  0.1058
66788POPE   C2B34264   2.133  29.557  13.486  0.2166 -0.1728  0.1158
66788POPE   C3B34265   1.611  29.614  13.674  0.1304  0.0524  0.0973
66788POPE   C4B34266   1.312  29.832  13.510  0.1027  0.4734  0.1472
66789POPE   NH334267   6.113  27.391  15.845 -0.1950 -0.0332  0.0439
66789POPE   PO434268   5.982  27.494  15.404  0.0808 -0.0612 -0.0867
66789POPE   GL134269   5.601  27.571  15.659  0.0788  0.0533  0.0095
66789POPE   GL234270   5.411  27.837  15.647  0.0668 -0.2769 -0.1021
66789POPE   C1A34271   5.335  27.287  15.963 -0.0236  0.0853  0.1534
66789POPE   D2A34272   4.873  27.317  16.034  0.1106 -0.0953  0.1003
66789POPE   C3A34273   4.582  27.172  16.152 -0.0203  0.0835 -0.0235
66789POPE   C4A34274   4.158  27.168  16.409  0.2523  0.2659 -0.3465
66789POPE   C1B34275   5.106  27.762  15.821  0.1249  0.0841 -0.0726
66789POPE   C2B34276   4.681  27.842  16.074 -0.1798  0.0628 -0.2056
66789POPE   C3B34277   4.321  27.595  16.272  0.0718 -0.1825  0.0751
66789POPE   C4B34278   4.564  27.423  16.660 -0.1309 -0.1641 -0.2528
66790POPE   NH334279   9.151  32.060  16.408 -0.2919  0.0161 -0.0566
66790POPE   PO434280   9.539  32.242  16.447 -0.0712 -0.1651 -0.1032
66790POPE   GL134281   9.416  32.518  16.766 -0.0100 -0.1293 -0.0325
66790POPE   GL234282   9.026  32.445  16.759  0.1618 -0.0126 -0.0629
66790POPE   C1A34283   9.532  32.490  17.239  0.2503 -0.0840 -0.1198
66790POPE   D2A34284   9.574  32.448  17.701  0.1016  0.0493 -0.0388
66790POPE   C3A34285   9.226  32.510  18.143 -0.2887  0.1178  0.0410
66790POPE   C4A34286   8.960  32.466  18.552 -0.1380  0.1627  0.0641
66790POPE   C1B34287   9.058  32.408  17.232 -0.1437 -0.1287 -0.1262
66790POPE   C2B34288   9.047  32.533  17.631  0.2064  0.2428 -0.0237
66790POPE   C3B34289   8.758  32.751  17.934 -0.2034 -0.3077 -0.1828
66790POPE   C4B34290   8.825  32.815  18.256 -0.4029  0.5114 -0.0132
66791POPE   NH334291   8.714   4.095  14.823 -0.1262  0.1922  0.1919
66791POPE   PO434292   9.179   3.840  14.917 -0.0133 -0.1130 -0.2951
66791POPE   GL134293   9.063   4.023  15.332  0.0127  0.1757  0.1319
66791POPE   GL234294   8.984   4.317  15.166 -0.1145 -0.2195 -0.2217
66791POPE   C1A34295   9.167   3.940  15.838  0.1963 -0.0859  0.0029
66791POPE   D2A34296   9.266   4.104  16.248  0.2654 -0.4092 -0.1965
66791POPE   C3A34297   9.195   3.873  16.530  0.1389 -0.1668  0.4110
66791POPE   C4A34298   9.140   3.488  16.561 -0.0513  0.0884 -0.3165
66791POPE   C1B34299   8.755   4.461  15.620  0.1191 -0.2716  0.0669
66791POPE   C2B34300   8.584   4.642  16.030  0.1798 -0.3745  0.2029
66791POPE   C3B34301   8.499   4.740  16.341 -0.3193 -0.0847  0.1911
66791POPE   C4B34302   8.219   4.944  16.648 -0.0413 -0.0477  0.2038
66792POPE   NH334303  20.586  25.358   9.154  0.7509  0.0027  0.0796
66792POPE   PO434304  20.699  24.979   9.042  0.3316  0.0079 -0.0137
66792POPE   GL134305  21.074  25.271   9.170  0.1034 -0.0058  0.0139
66792POPE   GL234306  21.170  25.473   8.846  0.0327  0.3533 -0.2749
66792POPE   C1A34307  21.262  25.490   9.443  0.0852 -0.0248  0.2765
66792POPE   D2A34308  21.434  25.745   9.625 -0.2602 -0.0236 -0.1862
66792POPE   C3A34309  21.830  25.892   9.422  0.4702  0.0214  0.0691
66792POPE   C4A34310  22.277  25.658   9.450 -0.0448  0.0815  0.2200
66792POPE   C1B34311  21.585  25.607   9.099 -0.4957  0.0308  0.0602
66792POPE   C2B34312  21.950  25.366   9.209 -0.0099  0.0590  0.0735
66792POPE   C3B34313  22.186  25.148   9.514 -0.0334  0.0975  0.1400
66792POPE   C4B34314  22.557  25.002   9.415  0.0774 -0.2887 -0.1719
66793POPE   NH334315   7.524  21.373  14.463 -0.5698 -0.1207 -0.0740
66793POPE   PO434316   7.478  20.932  14.623  0.3162  0.0896 -0.2263
66793POPE   GL134317   7.139  21.079  14.532  0.1976  0.2990  0.0509
66793POPE   GL234318   7.078  21.124  14.291 -0.0019 -0.1668  0.2613
66793POPE   C1A34319   6.723  20.944  14.733  0.0917  0.1070 -0.0979
66793POPE   D2A34320   6.362  20.767  14.960  0.2747  0.0605  0.1077
66793POPE   C3A34321   5.905  20.644  14.926  0.1058 -0.1145 -0.2159
66793POPE   C4A34322   5.520  20.591  14.789  0.1338  0.0668  0.0449
66793POPE   C1B34323   6.620  21.364  14.508  0.2067 -0.3497  0.3513
66793POPE   C2B34324   6.263  21.192  14.704 -0.2454  0.0309  0.1254
66793POPE   C3B34325   5.931  21.140  14.879  0.1710 -0.1753  0.2247
66793POPE   C4B34326   5.663  21.402  15.102  0.1209  0.2511 -0.0673
66794POPE   NH334327  11.970   5.061  14.212 -0.1349  0.0389 -0.1519
66794POPE   PO434328  11.640   4.829  14.345 -0.3080  0.2523  0.0773
66794POPE   GL134329  11.617   4.701  14.758 -0.0319 -0.2853  0.0702
66794POPE   GL234330  11.367   4.635  14.893 -0.5646 -0.2937  0.1842
66794POPE   C1A34331  11.919   4.475  14.944  0.0677 -0.0504 -0.0011
66794POPE   D2A34332  12.197   4.402  15.344  0.0294 -0.2647  0.1883
66794POPE   C3A34333  12.445   4.396  15.659 -0.1064 -0.1509  0.4327
66794POPE   C4A34334  12.777   4.403  15.897  0.1854  0.1952 -0.1653
66794POPE   C1B34335  11.632   4.603  15.333  0.0817  0.0187 -0.0451
66794POPE   C2B34336  11.903   4.545  15.716  0.2523 -0.0622 -0.3797
66794POPE   C3B34337  12.054   4.614  16.010  0.0397  0.1887 -0.0576
66794POPE   C4B34338  12.399   4.554  16.183  0.1428  0.0969  0.0371
66795POPE   NH334339  19.641  16.565   9.991 -0.0315  0.2781 -0.2903
66795POPE   PO434340  19.717  16.126  10.075 -0.2480 -0.0287  0.0503
66795POPE   GL134341  20.175  16.116  10.100  0.1340  0.2391  0.2357
66795POPE   GL234342  20.373  16.030   9.872 -0.1667  0.3571  0.1126
66795POPE   C1A34343  20.606  16.057  10.337 -0.1872  0.0605  0.1363
66795POPE   D2A34344  21.010  15.964  10.425  0.0106 -0.0423  0.0469
66795POPE   C3A34345  21.205  15.731  10.725  0.3405  0.2746  0.0224
66795POPE   C4A34346  21.539  15.403  10.665 -0.0196  0.1450  0.2314
66795POPE   C1B34347  20.707  15.747   9.962  0.0989 -0.2847  0.1552
66795POPE   C2B34348  20.834  15.539  10.230  0.3328 -0.1248 -0.1094
66795POPE   C3B34349  21.130  15.428  10.355 -0.0713 -0.0763  0.3471
66795POPE   C4B34350  21.575  15.455  10.160  0.0259 -0.0209 -0.0155
66796POPE   NH334351  12.978  33.072  15.138 -0.1421 -0.1007  0.1946
66796POPE   PO434352  13.204  33.052  14.813 -0.1668  0.1198  0.1366
66796POPE   GL134353  13.369  33.416  14.985  0.0556 -0.0004  0.1017
66796POPE   GL234354  13.383  33.403  15.299  0.0967 -0.0465 -0.2050
66796POPE   C1A34355  13.698  33.776  15.186 -0.0431  0.2963 -0.1537
66796POPE   D2A34356  13.917  34.078  15.282  0.2124  0.1386  0.0496
66796POPE   C3A34357  14.013  34.499  15.231 -0.1118  0.0785 -0.0940
66796POPE   C4A34358  14.177  34.799  15.472 -0.0758 -0.0437 -0.1059
66796POPE   C1B34359  13.634  33.604  15.669 -0.2024  0.2068  0.2943
66796POPE   C2B34360  13.887  33.741  15.821 -0.2404  0.3487 -0.0463
66796POPE   C3B34361  14.138  33.966  16.077 -0.0281  0.2496  0.0372
66796POPE   C4B34362  14.380  34.230  16.274  0.1056  0.1106  0.1550
66797POPE   NH334363  11.826  33.430  16.167 -0.0978  0.2149  0.4036
66797POPE   PO434364  12.191  33.329  16.207 -0.1716  0.1161 -0.2662
66797POPE   GL134365  12.348  33.287  16.540  0.3623 -0.0197 -0.2201
66797POPE   GL234366  12.548  33.032  16.439  0.0930  0.0245 -0.3342
66797POPE   C1A34367  12.326  33.569  16.797  0.0875 -0.0007 -0.1597
66797POPE   D2A34368  12.521  33.630  17.128  0.0030  0.1584  0.1834
66797POPE   C3A34369  12.828  33.872  17.345 -0.0105 -0.0443 -0.0069
66797POPE   C4A34370  13.076  34.057  17.690 -0.6590  0.0833 -0.0371
66797POPE   C1B34371  12.782  33.008  16.808  0.5050  0.0824  0.1582
66797POPE   C2B34372  12.864  33.279  17.159 -0.0118  0.2287  0.0580
66797POPE   C3B34373  13.159  33.373  17.592 -0.0444 -0.1236  0.0883
66797POPE   C4B34374  12.961  33.575  17.880  0.1068  0.1027  0.5433
66798POPE   NH334375  10.132   3.565  14.665 -0.1731 -0.0909  0.0978
66798POPE   PO434376  10.022   3.956  14.837 -0.1831  0.3153 -0.2163
66798POPE   GL134377  10.080   4.074  15.251  0.0323 -0.1264  0.1365
66798POPE   GL234378  10.295   3.825  15.513 -0.0723 -0.1198  0.0817
66798POPE   C1A34379  10.181   4.334  15.598  0.2838  0.1495  0.1161
66798POPE   D2A34380  10.187   4.354  16.050 -0.0500  0.1485  0.1313
66798POPE   C3A34381  10.551   4.318  16.399 -0.2540 -0.1310  0.0670
66798POPE   C4A34382  10.917   4.383  16.522  0.0156  0.0512  0.0277
66798POPE   C1B34383  10.324   3.776  15.943  0.0566  0.0549 -0.5123
66798POPE   C2B34384  10.402   3.792  16.288  0.1343  0.0020  0.0958
66798POPE   C3B34385  10.492   3.541  16.556 -0.0522 -0.1253 -0.0686
66798POPE   C4B34386  10.676   3.409  16.969 -0.0098  0.3042  0.3245
66799POPE   NH334387   7.514  25.943  16.887 -0.1090  0.0037 -0.2477
66799POPE   PO434388   7.919  25.857  17.151  0.1269 -0.1658  0.1737
66799POPE   GL134389   7.692  25.832  17.473 -0.2507 -0.3255  0.1391
66799POPE   GL234390   7.628  26.145  17.366  0.0493 -0.1602  0.2014
66799POPE   C1A34391   7.457  25.698  17.777 -0.2958  0.0769 -0.2485
66799POPE   D2A34392   7.154  25.573  18.171  0.1288  0.3946  0.1206
66799POPE   C3A34393   6.958  25.943  18.485  0.1502 -0.0424  0.2638
66799POPE   C4A34394   7.009  26.047  18.863 -0.1590 -0.3413 -0.3044
66799POPE   C1B34395   7.382  26.198  17.766 -0.2977 -0.2214 -0.0971
66799POPE   C2B34396   7.435  26.029  18.132  0.2826 -0.1131 -0.0073
66799POPE   C3B34397   7.424  25.812  18.521  0.0791 -0.2222 -0.0008
66799POPE   C4B34398   7.576  25.552  18.956  0.1711  0.3039 -0.0766
66800POPE   NH334399  25.381   0.486   6.644 -0.2927  0.0016 -0.0348
66800POPE   PO434400  25.639   0.776   6.499  0.1087 -0.0247  0.2258
66800POPE   GL134401  25.798   0.702   6.866 -0.1880 -0.2308 -0.0279
66800POPE   GL234402  25.674   0.410   7.064 -0.0657 -0.1713  0.2168
66800POPE   C1A34403  26.237   0.761   7.238  0.0858 -0.1164 -0.0281
66800POPE   D2A34404  26.392   0.705   7.521  0.1080 -0.0479  0.1112
66800POPE   C3A34405  26.482   0.979   7.890 -0.1654 -0.3272 -0.0289
66800POPE   C4A34406  26.485   1.347   8.088  0.1140  0.1389 -0.0859
66800POPE   C1B34407  25.810   0.505   7.495  0.1395 -0.1355 -0.0463
66800POPE   C2B34408  26.042   0.413   7.913 -0.3657  0.2419 -0.4172
66800POPE   C3B34409  26.218   0.284   8.214 -0.1540  0.0119  0.0790
66800POPE   C4B34410  26.446   0.352   8.551 -0.0787  0.2458 -0.2493
66801POPE   NH334411  23.469  19.436   2.204 -0.0335  0.3318 -0.1275
66801POPE   PO434412  23.853  19.300   2.006  0.3514 -0.1811 -0.2425
66801POPE   GL134413  23.775  19.067   2.366  0.0144 -0.0884 -0.0638
66801POPE   GL234414  23.580  19.141   2.565 -0.1321 -0.1190 -0.2585
66801POPE   C1A34415  23.890  18.646   2.346 -0.3779 -0.0814 -0.0506
66801POPE   D2A34416  24.171  18.362   2.342  0.2267 -0.1730  0.2375
66801POPE   C3A34417  24.413  18.150   2.594  0.2673  0.0777  0.1144
66801POPE   C4A34418  24.860  18.439   2.823 -0.0857 -0.0086 -0.2302
66801POPE   C1B34419  24.029  19.228   2.810  0.0020  0.3417  0.0002
66801POPE   C2B34420  24.325  19.125   3.071 -0.2707 -0.3000  0.1037
66801POPE   C3B34421  24.378  19.062   3.563 -0.1243 -0.1668 -0.0616
66801POPE   C4B34422  24.602  18.850   3.833 -0.1903  0.2204 -0.0027
66802POPE   NH334423  16.299  17.840  14.238  0.1669  0.1226  0.1214
66802POPE   PO434424  16.011  17.714  14.460 -0.1203 -0.1508  0.2365
66802POPE   GL134425  15.891  17.528  14.845 -0.0244  0.2203  0.1602
66802POPE   GL234426  15.642  17.582  14.875  0.3337 -0.0869  0.1903
66802POPE   C1A34427  16.065  17.278  15.089  0.2978  0.0618  0.2259
66802POPE   D2A34428  16.313  17.012  15.039  0.2073  0.1888  0.0725
66802POPE   C3A34429  16.424  16.897  15.476 -0.3374  0.2427 -0.1428
66802POPE   C4A34430  16.380  16.829  15.942 -0.1715  0.1949 -0.1495
66802POPE   C1B34431  15.493  17.341  15.139  0.0595  0.0188  0.0290
66802POPE   C2B34432  15.351  17.230  15.405 -0.1610 -0.3007  0.3788
66802POPE   C3B34433  15.615  17.088  15.744 -0.0618 -0.2966  0.1354
66802POPE   C4B34434  15.647  17.051  16.177  0.3004 -0.1842 -0.0899
66803POPE   NH334435   9.937  23.060  17.730  0.0349  0.0399  0.1524
66803POPE   PO434436   9.500  23.254  17.763  0.1866  0.0861  0.1982
66803POPE   GL134437   9.413  23.284  18.178  0.2651 -0.2061 -0.2456
66803POPE   GL234438   9.046  23.401  18.164  0.0287 -0.3163  0.1260
66803POPE   C1A34439   9.318  23.345  18.670  0.0273 -0.0271  0.2110
66803POPE   D2A34440   9.236  23.330  19.079 -0.0669  0.0406 -0.1288
66803POPE   C3A34441   8.970  22.968  19.155 -0.2912 -0.1510  0.3773
66803POPE   C4A34442   8.630  22.757  18.980  0.0072  0.0297  0.0204
66803POPE   C1B34443   8.801  23.260  18.521  0.1333  0.0152  0.0577
66803POPE   C2B34444   8.615  23.277  18.914  0.1303  0.2420  0.0377
66803POPE   C3B34445   8.712  23.415  19.301  0.0036  0.2762  0.3060
66803POPE   C4B34446   9.138  23.468  19.507  0.1943  0.0591  0.0920
66804POPE   NH334447  28.474   7.434   3.120  0.0883  0.0912  0.0079
66804POPE   PO434448  28.557   7.691   2.827 -0.0084  0.0852  0.2622
66804POPE   GL134449  28.617   7.961   3.145  0.1872 -0.3130  0.2251
66804POPE   GL234450  28.773   8.177   2.983 -0.2629  0.3433  0.0099
66804POPE   C1A34451  28.736   8.069   3.569  0.1247 -0.0802 -0.0637
66804POPE   D2A34452  28.905   8.087   3.916  0.1131 -0.0010 -0.2871
66804POPE   C3A34453  28.846   8.394   4.151  0.3136  0.1171  0.1779
66804POPE   C4A34454  28.916   8.834   4.113 -0.4036  0.0327 -0.1171
66804POPE   C1B34455  28.751   8.504   3.378 -0.0801  0.1220 -0.1113
66804POPE   C2B34456  28.765   8.751   3.662  0.2379  0.0225 -0.3457
66804POPE   C3B34457  28.546   9.125   3.875 -0.1374  0.1508  0.0661
66804POPE   C4B34458  28.678   9.392   4.195  0.2425 -0.1632  0.0740
66805POPE   NH334459  12.475   9.649  14.633  0.1021 -0.0744 -0.1596
66805POPE   PO434460  12.653   9.272  14.770 -0.0743 -0.1590  0.0200
66805POPE   GL134461  12.817   9.231  15.208 -0.0142  0.3603  0.0262
66805POPE   GL234462  13.143   9.385  15.177 -0.0155  0.1954  0.1056
66805POPE   C1A34463  13.141   8.963  15.432  0.0983  0.3352 -0.1434
66805POPE   D2A34464  13.212   8.568  15.676 -0.0863  0.0467 -0.0155
66805POPE   C3A34465  13.300   8.508  16.118  0.1086 -0.0927 -0.0298
66805POPE   C4A34466  13.549   8.744  16.381 -0.1562  0.0794  0.1542
66805POPE   C1B34467  13.316   9.345  15.619 -0.0355  0.2313  0.1451
66805POPE   C2B34468  13.523   9.386  16.047  0.2982 -0.0567 -0.0314
66805POPE   C3B34469  13.653   9.679  16.276 -0.2369  0.1256 -0.3866
66805POPE   C4B34470  13.956   9.626  16.502 -0.2231  0.2460  0.0474
66806POPE   NH334471  18.426  26.151  10.931 -0.0857  0.2112  0.1020
66806POPE   PO434472  18.355  26.558  10.948 -0.0811  0.1076 -0.1177
66806POPE   GL134473  18.675  26.864  10.960 -0.1850  0.2811  0.3202
66806POPE   GL234474  18.669  27.027  11.200  0.1469 -0.0312 -0.0652
66806POPE   C1A34475  19.069  27.144  10.971 -0.2261  0.1140 -0.1193
66806POPE   D2A34476  19.282  27.266  11.281  0.0833  0.1160 -0.1421
66806POPE   C3A34477  19.587  27.460  11.279  0.2458  0.0642  0.2042
66806POPE   C4A34478  19.952  27.872  11.157  0.1101  0.0061 -0.1997
66806POPE   C1B34479  18.767  27.164  11.578  0.2240 -0.3926  0.4316
66806POPE   C2B34480  19.187  27.241  11.829  0.0063 -0.0861 -0.1943
66806POPE   C3B34481  19.650  27.247  11.764  0.1198 -0.1120  0.1498
66806POPE   C4B34482  20.053  27.484  11.689 -0.1520  0.0244 -0.0021
66807POPE   NH334483  16.709  32.102  11.397  0.1854 -0.2688 -0.2921
66807POPE   PO434484  16.693  32.516  11.241  0.2450  0.2671  0.0380
66807POPE   GL134485  17.096  32.779  11.433 -0.1085 -0.0875 -0.0106
66807POPE   GL234486  16.994  32.988  11.547 -0.0987 -0.3119  0.0037
66807POPE   C1A34487  17.488  32.947  11.555  0.0757  0.0768 -0.3428
66807POPE   D2A34488  17.568  32.828  11.919  0.0488 -0.2525  0.1234
66807POPE   C3A34489  17.697  33.059  12.370  0.1105 -0.2183 -0.0178
66807POPE   C4A34490  17.814  32.772  12.710  0.3154 -0.1619 -0.0354
66807POPE   C1B34491  17.134  33.047  11.875 -0.2911  0.0581 -0.1019
66807POPE   C2B34492  17.209  33.283  12.213 -0.1144 -0.0754  0.0795
66807POPE   C3B34493  17.411  33.313  12.693  0.2934 -0.3725 -0.1142
66807POPE   C4B34494  17.520  33.509  13.055  0.3838 -0.2169  0.2349
66808POPE   NH334495  16.765  20.573  14.184 -0.1149  0.0578  0.3732
66808POPE   PO434496  16.989  20.267  14.434 -0.3168  0.2389 -0.1747
66808POPE   GL134497  17.383  20.332  14.642  0.0598 -0.0910  0.1370
66808POPE   GL234498  17.422  20.621  14.635  0.1877  0.1282  0.1341
66808POPE   C1A34499  17.680  20.161  14.844 -0.1827 -0.0805 -0.1494
66808POPE   D2A34500  17.985  20.112  15.161  0.3622 -0.1323 -0.0565
66808POPE   C3A34501  18.301  19.804  15.178 -0.1265  0.1029 -0.1598
66808POPE   C4A34502  18.751  19.674  15.198  0.2648  0.0437  0.0038
66808POPE   C1B34503  17.790  20.727  14.910 -0.0166  0.5555  0.1474
66808POPE   C2B34504  18.049  20.620  15.264  0.2724 -0.1154 -0.2109
66808POPE   C3B34505  18.240  20.320  15.535  0.0712 -0.0551  0.0998
66808POPE   C4B34506  18.059  19.985  15.654 -0.2802  0.1627  0.2468
66809POPE   NH334507  13.824  28.666  17.071 -0.1410 -0.0872 -0.0433
66809POPE   PO434508  13.543  28.449  17.369 -0.1418  0.1041  0.0396
66809POPE   GL134509  13.710  28.729  17.621 -0.2958 -0.2524  0.0482
66809POPE   GL234510  13.819  28.947  17.526  0.0497  0.0546 -0.0876
66809POPE   C1A34511  13.718  28.760  18.060  0.1215  0.1519 -0.3845
66809POPE   D2A34512  13.798  28.861  18.489  0.0044 -0.2222 -0.1437
66809POPE   C3A34513  14.096  28.716  18.555 -0.1502 -0.2956  0.0777
66809POPE   C4A34514  14.328  28.537  18.624  0.1851 -0.0752 -0.1714
66809POPE   C1B34515  14.140  29.001  17.871  0.0342 -0.0446  0.1453
66809POPE   C2B34516  14.228  29.065  18.265 -0.2062  0.2704 -0.0721
66809POPE   C3B34517  14.548  29.035  18.521 -0.1988  0.0561  0.0616
66809POPE   C4B34518  14.813  28.717  18.625 -0.0547 -0.0314 -0.1107
66810POPE   NH334519  17.531   8.683  13.781  0.0702 -0.0454  0.2300
66810POPE   PO434520  17.336   8.346  13.812 -0.0696  0.3923  0.1467
66810POPE   GL134521  17.413   8.024  14.143  0.0993 -0.2958 -0.4055
66810POPE   GL234522  17.516   7.691  14.169  0.1930  0.1134 -0.0624
66810POPE   C1A34523  17.537   7.968  14.674  0.0118  0.1345  0.0382
66810POPE   D2A34524  17.685   7.744  15.025 -0.0466 -0.1804 -0.2011
66810POPE   C3A34525  18.063   7.934  15.116  0.0425 -0.0174 -0.0686
66810POPE   C4A34526  18.334   8.213  15.235  0.1667 -0.0080 -0.2736
66810POPE   C1B34527  17.571   7.487  14.609  0.2217  0.1805 -0.1456
66810POPE   C2B34528  17.682   7.092  14.689 -0.3615  0.0777  0.1759
66810POPE   C3B34529  17.711   6.758  14.840  0.1335 -0.0480  0.0718
66810POPE   C4B34530  17.991   6.437  14.787 -0.1120  0.0329 -0.1805
66811POPE   NH334531  15.352   0.353  12.198  0.0308  0.1057 -0.0761
66811POPE   PO434532  15.453   0.880  12.331  0.2006  0.2214 -0.0343
66811POPE   GL134533  15.621   0.918  12.709 -0.0774 -0.0855 -0.1854
66811POPE   GL234534  15.649   1.216  12.935  0.1536  0.2444 -0.1602
66811POPE   C1A34535  16.015   0.889  13.011 -0.2567 -0.0642  0.1744
66811POPE   D2A34536  16.369   0.955  13.292 -0.0249 -0.0209  0.1653
66811POPE   C3A34537  16.560   0.615  13.500  0.0169  0.0224 -0.1396
66811POPE   C4A34538  16.603   0.347  13.828  0.0486 -0.1480  0.1895
66811POPE   C1B34539  15.776   1.153  13.362 -0.0524 -0.3069  0.4329
66811POPE   C2B34540  16.051   1.383  13.551 -0.0370  0.1984 -0.0857
66811POPE   C3B34541  16.299   1.739  13.702 -0.2076  0.0031 -0.0039
66811POPE   C4B34542  16.374   2.165  13.808  0.1153  0.1784 -0.1590
66812POPE   NH334543   9.965  13.059  13.917 -0.3751  0.0466  0.2532
66812POPE   PO434544   9.627  13.241  13.870  0.2846 -0.0451 -0.0163
66812POPE   GL134545   9.650  13.436  14.246  0.1335 -0.0306 -0.0458
66812POPE   GL234546   9.918  13.359  14.464  0.2072  0.0498 -0.1271
66812POPE   C1A34547   9.420  13.512  14.452 -0.2527  0.3758 -0.4887
66812POPE   D2A34548   9.211  13.560  14.868 -0.0338  0.4109  0.0091
66812POPE   C3A34549   8.833  13.562  14.953  0.3910  0.2109 -0.2804
66812POPE   C4A34550   8.569  13.798  15.214  0.0583 -0.2153 -0.1543
66812POPE   C1B34551   9.836  13.331  14.882 -0.2436  0.2081 -0.0567
66812POPE   C2B34552   9.976  13.184  15.316  0.2172  0.1404 -0.0123
66812POPE   C3B34553   9.858  13.439  15.707  0.2980 -0.0865  0.0972
66812POPE   C4B34554   9.655  13.914  15.708  0.2260 -0.1822 -0.4269
66813POPE   NH334555  20.204  24.627   9.839  0.1430  0.0482 -0.1069
66813POPE   PO434556  20.427  24.359   9.469  0.0988 -0.1450 -0.2107
66813POPE   GL134557  20.695  24.244   9.817  0.0144 -0.1339 -0.1511
66813POPE   GL234558  20.847  24.478   9.861  0.2579 -0.0440 -0.2321
66813POPE   C1A34559  21.203  24.099   9.857 -0.1754  0.2249  0.0132
66813POPE   D2A34560  21.502  24.338   9.602  0.1069  0.2410  0.1182
66813POPE   C3A34561  21.822  24.656   9.831  0.1206  0.1762  0.3165
66813POPE   C4A34562  21.866  25.011  10.025  0.1455 -0.0691  0.1626
66813POPE   C1B34563  21.301  24.647   9.955 -0.2185 -0.1068  0.2926
66813POPE   C2B34564  21.696  24.611  10.325  0.0272 -0.1576 -0.1393
66813POPE   C3B34565  22.041  24.891  10.487  0.0031  0.0294  0.2135
66813POPE   C4B34566  22.471  24.644  10.614  0.0151 -0.3469  0.0621
66814POPE   NH334567   8.491  23.744  17.077 -0.1779 -0.0210  0.1334
66814POPE   PO434568   8.932  23.699  17.155 -0.0629  0.5226 -0.2591
66814POPE   GL134569   8.668  23.886  17.507  0.2627 -0.1866  0.0764
66814POPE   GL234570   8.855  24.093  17.598 -0.0093 -0.0088  0.2934
66814POPE   C1A34571   8.367  23.919  17.869 -0.1492  0.0437  0.0631
66814POPE   D2A34572   8.001  24.069  18.107  0.0450 -0.1139  0.0601
66814POPE   C3A34573   7.816  23.847  18.456  0.1489 -0.1419 -0.3325
66814POPE   C4A34574   7.604  23.613  18.743  0.1040  0.0346  0.1491
66814POPE   C1B34575   8.734  24.301  17.930  0.1825 -0.0133 -0.2225
66814POPE   C2B34576   8.371  24.357  18.303 -0.0007 -0.0285  0.0150
66814POPE   C3B34577   8.039  24.361  18.475 -0.2650 -0.2262 -0.1739
66814POPE   C4B34578   7.735  24.342  18.833 -0.3315  0.1362 -0.3815
66815POPE   NH334579   2.990  31.724  12.220 -0.1374 -0.1093 -0.1330
66815POPE   PO434580   2.780  32.159  12.383 -0.0338 -0.2460 -0.0932
66815POPE   GL134581   2.493  31.987  12.579 -0.0088  0.0893 -0.1421
66815POPE   GL234582   2.683  31.873  12.753  0.1389 -0.0131 -0.1986
66815POPE   C1A34583   2.139  31.844  12.571  0.0812  0.1228  0.1839
66815POPE   D2A34584   1.893  31.994  12.896 -0.1084  0.0059  0.3757
66815POPE   C3A34585   1.520  31.830  12.994  0.2909 -0.3844  0.1665
66815POPE   C4A34586   1.097  31.920  13.071  0.3480 -0.5857 -0.0037
66815POPE   C1B34587   2.353  32.144  13.024  0.0159  0.0394  0.0393
66815POPE   C2B34588   2.116  32.278  13.351 -0.2495  0.0114 -0.1755
66815POPE   C3B34589   1.902  32.650  13.544 -0.0755  0.0494 -0.1367
66815POPE   C4B34590   1.689  32.757  13.825  0.3239  0.1160 -0.3607
66816POPE   NH334591  12.838  29.758  16.857  0.0627 -0.1278  0.1092
66816POPE   PO434592  12.527  30.019  17.092 -0.1394 -0.1819 -0.0094
66816POPE   GL134593  12.415  30.405  17.405  0.1933 -0.0202  0.1011
66816POPE   GL234594  12.288  30.257  17.625  0.2888 -0.0608  0.0137
66816POPE   C1A34595  12.539  30.748  17.741 -0.0780  0.0959 -0.1099
66816POPE   D2A34596  12.541  30.911  18.239  0.2638  0.0681  0.0174
66816POPE   C3A34597  12.601  31.075  18.631 -0.0170  0.0639 -0.0126
66816POPE   C4A34598  12.641  31.353  18.926 -0.0189  0.0317  0.1881
66816POPE   C1B34599  12.317  30.435  18.040  0.2554 -0.2196  0.1058
66816POPE   C2B34600  12.101  30.227  18.327 -0.1173 -0.1140 -0.1112
66816POPE   C3B34601  12.206  30.154  18.765 -0.2885 -0.0518  0.0992
66816POPE   C4B34602  12.492  30.134  19.172  0.1042 -0.2480 -0.1417
66817POPE   NH334603  33.411  14.575   1.436  0.1433  0.1275  0.0361
66817POPE   PO434604  33.303  14.936   1.661  0.1757  0.0774  0.2076
66817POPE   GL134605  32.944  14.942   1.987 -0.1559  0.0317  0.1800
66817POPE   GL234606  32.937  15.298   1.874  0.1767  0.1526 -0.2623
66817POPE   C1A34607  32.783  14.842   2.459 -0.0567 -0.0001 -0.2183
66817POPE   D2A34608  32.660  14.723   2.825  0.0812  0.1805 -0.0122
66817POPE   C3A34609  32.884  14.894   3.046 -0.5438  0.3272  0.1032
66817POPE   C4A34610  32.910  15.174   3.361 -0.1671  0.2113  0.0342
66817POPE   C1B34611  32.936  15.322   2.345  0.0661  0.2363  0.0766
66817POPE   C2B34612  32.717  15.402   2.699  0.1207 -0.0065 -0.1510
66817POPE   C3B34613  32.825  15.682   3.016  0.0990  0.0065 -0.0341
66817POPE   C4B34614  32.579  15.806   3.290 -0.0502 -0.0037  0.1003
66818POPE   NH334615   7.312  16.891  12.859 -0.1592 -0.2594 -0.0134
66818POPE   PO434616   7.428  17.302  12.925  0.2399  0.2985  0.2234
66818POPE   GL134617   7.520  17.180  13.308  0.1393  0.2262  0.0817
66818POPE   GL234618   7.556  16.847  13.460  0.4289  0.2127 -0.1490
66818POPE   C1A34619   7.345  17.245  13.757 -0.2828  0.0820 -0.0214
66818POPE   D2A34620   7.165  17.368  14.231  0.0040  0.0419 -0.0290
66818POPE   C3A34621   6.909  17.191  14.500  0.1347  0.0099 -0.0338
66818POPE   C4A34622   6.699  16.866  14.647 -0.1939  0.3118  0.1810
66818POPE   C1B34623   7.371  16.512  13.699  0.0569  0.1355  0.1548
66818POPE   C2B34624   7.115  16.502  14.021 -0.2406  0.1081 -0.3368
66818POPE   C3B34625   7.021  16.390  14.363  0.2437 -0.0935  0.1414
66818POPE   C4B34626   6.707  16.400  14.749  0.0014 -0.2132  0.3469
66819POPE   NH334627  11.172  14.677  13.952  0.0043  0.0529  0.0564
66819POPE   PO434628  11.530  14.581  14.032  0.2146 -0.1604  0.0039
66819POPE   GL134629  11.777  14.503  14.395  0.1183 -0.0319 -0.3081
66819POPE   GL234630  11.885  14.169  14.588 -0.0523 -0.1577  0.0316
66819POPE   C1A34631  11.668  14.554  14.830  0.1442  0.1529 -0.3889
66819POPE   D2A34632  11.793  14.534  15.167 -0.0700 -0.0588 -0.0658
66819POPE   C3A34633  11.716  14.275  15.543 -0.0611 -0.1704  0.1372
66819POPE   C4A34634  11.450  14.216  15.779 -0.4743 -0.0984  0.0483
66819POPE   C1B34635  11.823  14.073  15.107  0.1241  0.2020 -0.1393
66819POPE   C2B34636  11.884  13.788  15.310  0.0862 -0.3324  0.1367
66819POPE   C3B34637  12.022  13.450  15.518  0.0196  0.2056 -0.4906
66819POPE   C4B34638  12.039  13.095  15.937 -0.0308  0.1577  0.0120
66820POPE   NH334639  10.540   9.441  14.855 -0.2749 -0.1731  0.0928
66820POPE   PO434640  10.467   9.835  14.954  0.0630  0.1189  0.1087
66820POPE   GL134641  10.247   9.684  15.272 -0.3776  0.1827 -0.1036
66820POPE   GL234642  10.441   9.472  15.384  0.1002 -0.1240  0.1832
66820POPE   C1A34643   9.910   9.538  15.478  0.1331 -0.0986  0.2318
66820POPE   D2A34644   9.526   9.393  15.660 -0.1915  0.1514  0.0796
66820POPE   C3A34645   9.336   9.676  15.982  0.1002 -0.0397  0.5898
66820POPE   C4A34646   9.348   9.520  16.439 -0.0757 -0.3260 -0.3275
66820POPE   C1B34647  10.276   9.553  15.785  0.0362 -0.0232 -0.1387
66820POPE   C2B34648  10.213   9.892  16.137 -0.0037 -0.2721  0.1794
66820POPE   C3B34649  10.442   9.979  16.536 -0.2286  0.6299 -0.1257
66820POPE   C4B34650  10.433   9.720  16.982  0.1688 -0.0655 -0.0261
66821POPE   NH334651  23.769   6.142   6.028  0.1676 -0.3562  0.1365
66821POPE   PO434652  23.692   6.405   5.732  0.0943  0.0101 -0.2488
66821POPE   GL134653  23.859   6.675   6.121 -0.2980  0.4273 -0.0976
66821POPE   GL234654  23.997   6.510   6.339 -0.0961  0.1608  0.3189
66821POPE   C1A34655  24.074   7.001   6.108 -0.2573 -0.2304 -0.0784
66821POPE   D2A34656  24.286   7.220   6.530 -0.1731  0.1101 -0.2993
66821POPE   C3A34657  24.622   7.483   6.661  0.2753  0.0677 -0.0566
66821POPE   C4A34658  25.062   7.592   6.677 -0.0951  0.2329  0.3253
66821POPE   C1B34659  24.148   6.680   6.679  0.0160  0.1949 -0.3650
66821POPE   C2B34660  24.261   6.889   6.947  0.2613 -0.2209  0.0009
66821POPE   C3B34661  24.533   6.947   7.232  0.1913  0.3272 -0.3736
66821POPE   C4B34662  24.695   7.248   7.532 -0.2945  0.0353  0.0747
66822POPE   NH334663  33.576   4.117   6.953 -0.1653  0.2735  0.1668
66822POPE   PO434664  33.271   3.908   6.965  0.2392 -0.0635 -0.0112
66822POPE   GL134665  33.027   4.237   7.096 -0.0321 -0.0674 -0.2390
66822POPE   GL234666  33.295   4.338   7.344  0.3058 -0.1298 -0.0959
66822POPE   C1A34667  32.673   4.306   7.357  0.0840  0.2793  0.0039
66822POPE   D2A34668  32.277   4.514   7.482  0.0654 -0.0048  0.0652
66822POPE   C3A34669  32.061   4.325   7.639 -0.0486  0.6397  0.1507
66822POPE   C4A34670  32.146   4.325   7.968  0.0249  0.1624  0.4331
66822POPE   C1B34671  33.012   4.307   7.709  0.0700 -0.1687 -0.0305
66822POPE   C2B34672  32.617   4.454   7.902 -0.1558 -0.1437  0.1133
66822POPE   C3B34673  32.339   4.764   8.073 -0.0157 -0.0719  0.2259
66822POPE   C4B34674  32.027   5.005   8.097  0.0785  0.2154 -0.2952
66823POPE   NH334675  26.324  10.019   2.299  0.0604  0.0942  0.1410
66823POPE   PO434676  25.999  10.263   2.468  0.1183  0.1756 -0.0123
66823POPE   GL134677  26.265  10.645   2.559  0.0815 -0.2804 -0.1379
66823POPE   GL234678  26.534  10.518   2.370  0.1292 -0.0223 -0.1752
66823POPE   C1A34679  26.360  10.994   2.856 -0.2023  0.1392 -0.0292
66823POPE   D2A34680  26.648  11.256   3.086  0.0436 -0.1099  0.0091
66823POPE   C3A34681  26.860  11.346   3.465 -0.0012  0.1128 -0.1283
66823POPE   C4A34682  27.018  11.630   3.707  0.2521  0.1024 -0.3613
66823POPE   C1B34683  26.742  10.667   2.732 -0.1269  0.0581  0.1937
66823POPE   C2B34684  26.942  10.456   3.143 -0.0094 -0.1169 -0.3248
66823POPE   C3B34685  27.309  10.436   3.388 -0.0792  0.1920 -0.1396
66823POPE   C4B34686  27.541  10.687   3.434  0.0035 -0.1644  0.0925
66824POPE   NH334687   5.177   1.418  12.958 -0.2384 -0.1552 -0.0499
66824POPE   PO434688   5.418   1.683  13.078  0.1552  0.0977 -0.0189
66824POPE   GL134689   5.284   2.179  13.058  0.2709  0.0842  0.1303
66824POPE   GL234690   5.507   2.367  12.877  0.0465 -0.3164  0.0470
66824POPE   C1A34691   5.021   2.404  13.212 -0.1288 -0.2138 -0.0245
66824POPE   D2A34692   4.915   2.630  13.531  0.4776  0.0630  0.0521
66824POPE   C3A34693   4.536   2.873  13.592 -0.0791  0.1536 -0.1106
66824POPE   C4A34694   4.175   3.104  13.622 -0.0512 -0.3442  0.1776
66824POPE   C1B34695   5.514   2.591  13.304 -0.0155 -0.2025  0.0542
66824POPE   C2B34696   5.381   2.805  13.615  0.0730  0.1748 -0.2618
66824POPE   C3B34697   4.981   3.142  13.807 -0.0959  0.0625  0.1082
66824POPE   C4B34698   4.643   3.353  14.076 -0.0557  0.5118 -0.0387
66825POPE   NH334699  17.236  15.656  13.533  0.0020  0.0346 -0.1001
66825POPE   PO434700  17.272  15.253  13.353 -0.0595  0.5230 -0.3979
66825POPE   GL134701  17.333  15.133  13.710  0.1466  0.0394 -0.0515
66825POPE   GL234702  17.563  15.371  13.777  0.0987  0.3032  0.2417
66825POPE   C1A34703  17.362  14.986  14.108 -0.0056  0.0716 -0.3233
66825POPE   D2A34704  17.669  14.896  14.497 -0.1681  0.1419  0.2172
66825POPE   C3A34705  17.965  15.184  14.669  0.1500 -0.0060  0.0120
66825POPE   C4A34706  17.972  15.417  14.961  0.1091  0.3144  0.2223
66825POPE   C1B34707  17.800  15.316  14.037 -0.0888  0.0650 -0.2888
66825POPE   C2B34708  18.147  15.366  14.247 -0.1034  0.0696 -0.0471
66825POPE   C3B34709  18.394  15.491  14.645 -0.0405 -0.2290 -0.4020
66825POPE   C4B34710  18.426  15.503  15.136  0.0257  0.0039  0.1091
66826POPE   NH334711   7.645  20.326  12.942 -0.0096 -0.1450 -0.3406
66826POPE   PO434712   7.358  20.121  12.762 -0.0148 -0.1046  0.0478
66826POPE   GL134713   6.928  20.331  12.916  0.0160 -0.0729  0.1500
66826POPE   GL234714   6.873  20.517  13.237 -0.0475 -0.1088 -0.1169
66826POPE   C1A34715   6.505  20.381  12.725 -0.2233 -0.0289 -0.2661
66826POPE   D2A34716   6.101  20.462  12.951  0.5574 -0.2030 -0.1992
66826POPE   C3A34717   5.778  20.258  12.879  0.2583  0.1757 -0.2659
66826POPE   C4A34718   5.415  19.969  12.803  0.4845  0.1464 -0.1564
66826POPE   C1B34719   6.493  20.441  13.281 -0.1819  0.3951 -0.1435
66826POPE   C2B34720   6.097  20.242  13.459  0.0234 -0.0653  0.0203
66826POPE   C3B34721   5.798  20.217  13.750  0.1045 -0.0945 -0.2629
66826POPE   C4B34722   5.604  20.280  14.102  0.0744 -0.1284  0.4065
66827POPE   NH334723  19.971   5.944  11.516 -0.1174 -0.1915 -0.4672
66827POPE   PO434724  19.691   6.179  11.837  0.0468  0.1153 -0.0426
66827POPE   GL134725  19.861   5.975  12.070  0.0476  0.2744 -0.2294
66827POPE   GL234726  19.717   5.621  12.016 -0.2470  0.0325  0.2169
66827POPE   C1A34727  20.173   6.020  12.454  0.0409  0.0352 -0.1197
66827POPE   D2A34728  20.457   6.077  12.722  0.0113  0.0945  0.0723
66827POPE   C3A34729  20.498   5.832  13.011 -0.0276  0.2233  0.1026
66827POPE   C4A34730  20.404   5.837  13.401 -0.1032 -0.2960 -0.1714
66827POPE   C1B34731  20.005   5.573  12.314 -0.1369  0.1176  0.0936
66827POPE   C2B34732  20.111   5.581  12.732 -0.1637  0.1240 -0.0461
66827POPE   C3B34733  20.376   5.336  12.936 -0.1750 -0.0541 -0.0220
66827POPE   C4B34734  20.435   4.975  13.160  0.1174 -0.1465  0.3209
66828POPE   NH334735  18.870  22.688  12.800 -0.2231  0.1430 -0.0910
66828POPE   PO434736  18.877  22.258  12.827  0.1780 -0.3258  0.0641
66828POPE   GL134737  19.271  22.417  12.954 -0.1155 -0.0062  0.0959
66828POPE   GL234738  19.312  22.487  12.580 -0.1625  0.0424 -0.0348
66828POPE   C1A34739  19.458  22.294  13.224 -0.0983  0.0339  0.2325
66828POPE   D2A34740  19.771  22.194  13.437 -0.1570  0.2802  0.4794
66828POPE   C3A34741  19.608  22.050  13.771  0.1291  0.1689  0.1252
66828POPE   C4A34742  19.941  21.986  14.099 -0.1007  0.3870  0.1859
66828POPE   C1B34743  19.762  22.419  12.853 -0.0645  0.2861  0.2717
66828POPE   C2B34744  20.130  22.466  12.967 -0.1321  0.0058  0.0306
66828POPE   C3B34745  20.543  22.643  13.058 -0.0149 -0.1230 -0.0606
66828POPE   C4B34746  20.920  22.918  13.054  0.2172 -0.0652  0.0281
66829POPE   NH334747   3.217  34.631  12.389  0.0240 -0.0988  0.2500
66829POPE   PO434748   3.577  34.820  12.284  0.0399  0.0589 -0.0536
66829POPE   GL134749   3.307  35.126  12.565 -0.0310  0.1546  0.0431
66829POPE   GL234750   2.990  35.222  12.362  0.0439 -0.0748  0.0826
66829POPE   C1A34751   3.272   0.083  12.874 -0.1635 -0.1852  0.0814
66829POPE   D2A34752   3.165   0.157  13.310 -0.0840 -0.0619 -0.0012
66829POPE   C3A34753   3.022   0.455  13.498  0.1232  0.2772  0.0930
66829POPE   C4A34754   3.116   0.640  13.828 -0.2196  0.3441  0.0875
66829POPE   C1B34755   2.763   0.111  12.574  0.1795 -0.1920  0.0051
66829POPE   C2B34756   2.935   0.443  12.891 -0.1366 -0.0684 -0.1114
66829POPE   C3B34757   3.287   0.596  13.031  0.3199 -0.0984 -0.1822
66829POPE   C4B34758   3.488   0.575  13.442  0.1319  0.0443 -0.1792
66830POPE   NH334759  11.506  32.008  16.246  0.2201  0.2265 -0.0705
66830POPE   PO434760  11.920  31.822  16.454  0.1995 -0.1159 -0.0471
66830POPE   GL134761  11.834  32.005  16.810 -0.0712  0.0224  0.2261
66830POPE   GL234762  12.137  32.245  16.798 -0.2082 -0.1093 -0.0798
66830POPE   C1A34763  11.600  31.973  17.188  0.0018 -0.2037  0.3142
66830POPE   D2A34764  11.593  32.124  17.552 -0.0753 -0.2028 -0.0296
66830POPE   C3A34765  11.467  32.318  18.002 -0.2957  0.0638 -0.3338
66830POPE   C4A34766  11.248  32.277  18.423 -0.0682  0.4168  0.0192
66830POPE   C1B34767  12.307  32.387  17.185  0.0739  0.1210  0.2266
66830POPE   C2B34768  12.384  32.623  17.521 -0.0386 -0.1298 -0.0094
66830POPE   C3B34769  12.132  32.879  17.800  0.1879 -0.2001 -0.0850
66830POPE   C4B34770  12.107  33.020  18.203  0.3226  0.0958  0.1250
66831POPE   NH334771  20.183  14.839   9.746 -0.0341 -0.1708  0.1302
66831POPE   PO434772  20.149  14.420   9.567  0.0013  0.1392 -0.2529
66831POPE   GL134773  20.441  14.376   9.853 -0.3713  0.2457 -0.0043
66831POPE   GL234774  20.727  14.158   9.741 -0.1968 -0.1885  0.0849
66831POPE   C1A34775  20.709  14.506  10.135 -0.2579 -0.2599 -0.0126
66831POPE   D2A34776  21.107  14.514  10.359  0.1867 -0.1861 -0.1217
66831POPE   C3A34777  21.516  14.273  10.279 -0.0429  0.0751  0.1544
66831POPE   C4A34778  21.887  14.090  10.137  0.0877  0.0426  0.1459
66831POPE   C1B34779  21.169  14.313   9.908  0.1423 -0.2003  0.2820
66831POPE   C2B34780  21.527  14.414   9.834 -0.0029 -0.3328 -0.1511
66831POPE   C3B34781  21.913  14.654  10.040  0.1252 -0.1649 -0.2627
66831POPE   C4B34782  22.327  14.710  10.027 -0.1362 -0.1150 -0.3234
66832POPE   NH334783  15.290  22.767  17.110 -0.0560  0.1988  0.0459
66832POPE   PO434784  15.625  23.088  17.130  0.0421  0.0860  0.1006
66832POPE   GL134785  15.779  22.945  17.398  0.0349 -0.1213  0.0941
66832POPE   GL234786  15.655  22.712  17.472  0.2454 -0.0991  0.0969
66832POPE   C1A34787  16.064  22.913  17.635 -0.0585  0.1699  0.2532
66832POPE   D2A34788  16.208  22.820  17.950  0.0873 -0.1089  0.0410
66832POPE   C3A34789  16.353  22.669  18.341 -0.3499 -0.1365 -0.2187
66832POPE   C4A34790  16.310  22.346  18.659 -0.1474 -0.0642 -0.0189
66832POPE   C1B34791  15.930  22.476  17.778 -0.1407 -0.0509  0.0273
66832POPE   C2B34792  16.172  22.287  18.052  0.0907  0.4333 -0.2675
66832POPE   C3B34793  16.180  21.914  18.363  0.0057  0.0543  0.1420
66832POPE   C4B34794  16.273  21.469  18.294 -0.1600  0.0188 -0.0516
66833POPE   NH334795  26.395   1.674   6.286 -0.1512  0.2599 -0.0528
66833POPE   PO434796  26.573   2.025   6.455  0.1554 -0.2687  0.0242
66833POPE   GL134797  26.728   2.080   6.849 -0.1210  0.0382  0.0196
66833POPE   GL234798  26.898   2.299   7.054  0.1006 -0.1012  0.1981
66833POPE   C1A34799  27.015   1.875   7.176 -0.1883  0.1708 -0.1353
66833POPE   D2A34800  27.155   1.874   7.655 -0.0494 -0.2176  0.0789
66833POPE   C3A34801  26.846   1.802   7.970  0.2264  0.1322  0.0474
66833POPE   C4A34802  26.758   1.692   8.338  0.0073  0.2366 -0.1101
66833POPE   C1B34803  26.753   2.299   7.404 -0.1148 -0.1548 -0.2216
66833POPE   C2B34804  26.966   2.355   7.847  0.0980 -0.1419  0.2238
66833POPE   C3B34805  27.133   2.472   8.359 -0.4274 -0.0179 -0.1848
66833POPE   C4B34806  27.365   2.322   8.567  0.1782  0.1068 -0.0951
66834POPE   NH334807   9.921   9.327  13.989 -0.1454  0.2678 -0.0086
66834POPE   PO434808   9.899   9.315  14.489  0.3069  0.3325  0.1658
66834POPE   GL134809  10.025   9.315  14.971 -0.0162 -0.1821  0.0232
66834POPE   GL234810  10.168   9.047  15.069  0.2345  0.0770  0.2101
66834POPE   C1A34811   9.673   9.096  15.245 -0.0121 -0.1540  0.0110
66834POPE   D2A34812   9.622   8.905  15.576  0.3127  0.1156 -0.0147
66834POPE   C3A34813   9.501   8.558  15.749  0.0538  0.1629 -0.1182
66834POPE   C4A34814   9.244   8.353  16.012 -0.0428  0.0500  0.3088
66834POPE   C1B34815  10.165   9.094  15.452  0.2092 -0.2807 -0.2059
66834POPE   C2B34816   9.943   9.156  15.857 -0.3936  0.3244 -0.0392
66834POPE   C3B34817   9.942   9.468  16.154 -0.2954 -0.1364 -0.1950
66834POPE   C4B34818  10.017   9.701  16.530 -0.1867 -0.1579 -0.2148
66835POPE   NH334819   0.711  34.539   9.625  0.2691  0.1686  0.0963
66835POPE   PO434820   0.293  34.688   9.583  0.1227 -0.0585  0.3675
66835POPE   GL134821  35.274  34.698   9.612 -0.0737 -0.0606  0.1461
66835POPE   GL234822  35.261  34.544   9.887 -0.2294  0.2291  0.2051
66835POPE   C1A34823  34.949  34.905   9.818 -0.1625 -0.0410  0.0514
66835POPE   D2A34824  34.689  35.094  10.273  0.1144 -0.1764  0.1376
66835POPE   C3A34825  34.307   0.006  10.230  0.1577  0.3723 -0.0110
66835POPE   C4A34826  34.008   0.013  10.070 -0.0285 -0.4073  0.2699
66835POPE   C1B34827  35.181  34.173  10.031  0.2353 -0.1596  0.4215
66835POPE   C2B34828  34.958  34.201  10.469 -0.1704  0.2336 -0.5684
66835POPE   C3B34829  35.069  34.493  10.748  0.0134  0.0004  0.0034
66835POPE   C4B34830  34.904  34.649  11.124  0.0378  0.0419 -0.2075
66836POPE   NH334831  18.247  33.440   9.992 -0.1012 -0.1575 -0.0053
66836POPE   PO434832  18.092  33.006   9.931 -0.0288  0.0608  0.2806
66836POPE   GL134833  18.252  33.125  10.383 -0.0814  0.0527  0.0079
66836POPE   GL234834  18.289  32.796  10.399  0.4183 -0.0274 -0.1853
66836POPE   C1A34835  18.444  33.222  10.747  0.3627  0.0287 -0.1258
66836POPE   D2A34836  18.799  33.201  11.017 -0.3474 -0.1057  0.0354
66836POPE   C3A34837  18.993  32.800  11.210  0.0068 -0.1860 -0.0505
66836POPE   C4A34838  18.893  32.699  11.681 -0.1198 -0.0712  0.1642
66836POPE   C1B34839  18.595  32.729  10.747 -0.0724  0.0428  0.2908
66836POPE   C2B34840  18.982  32.491  10.854  0.2863 -0.1821 -0.1205
66836POPE   C3B34841  19.467  32.300  10.916  0.2290 -0.0815 -0.1300
66836POPE   C4B34842  19.878  32.581  10.977 -0.0226  0.0923  0.1175
66837POPE   NH334843  25.625  30.189   5.844  0.4323  0.0832  0.3212
66837POPE   PO434844  25.273  29.800   5.741 -0.0097  0.0106  0.1336
66837POPE   GL134845  25.510  29.572   5.997  0.0325 -0.2068  0.2749
66837POPE   GL234846  25.755  29.599   6.012  0.0157 -0.0938  0.0133
66837POPE   C1A34847  25.458  29.126   6.240  0.0437  0.0836  0.5099
66837POPE   D2A34848  25.569  29.188   6.669 -0.2208  0.0221 -0.0540
66837POPE   C3A34849  25.478  28.796   7.084  0.3126  0.0628 -0.2069
66837POPE   C4A34850  25.320  28.390   7.373 -0.1920 -0.1372 -0.0006
66837POPE   C1B34851  26.252  29.388   6.062 -0.4165 -0.0317 -0.0149
66837POPE   C2B34852  26.526  29.380   6.424 -0.1270 -0.2339  0.0411
66837POPE   C3B34853  26.949  29.365   6.784  0.2192 -0.0495 -0.1100
66837POPE   C4B34854  27.167  29.465   7.113  0.0991 -0.1173  0.1563
66838POPE   NH334855   3.270  20.793   5.242 -0.0549  0.1649 -0.1033
66838POPE   PO434856   3.061  21.026   5.066 -0.1316 -0.2018  0.2785
66838POPE   GL134857   2.865  20.670   4.945  0.3605 -0.0968 -0.3726
66838POPE   GL234858   2.926  20.416   5.096 -0.0884 -0.3136 -0.1276
66838POPE   C1A34859   2.377  20.639   4.879 -0.0359 -0.0094  0.3881
66838POPE   D2A34860   2.157  20.350   4.713  0.4703 -0.1230  0.1392
66838POPE   C3A34861   1.859  20.147   4.945  0.2801  0.2143  0.0999
66838POPE   C4A34862   1.533  20.090   5.275  0.1431  0.1141  0.0161
66838POPE   C1B34863   2.558  20.382   5.362  0.0813  0.0869 -0.1196
66838POPE   C2B34864   2.273  20.426   5.375  0.0603  0.0057  0.0698
66838POPE   C3B34865   1.930  20.264   5.644  0.0307  0.1704  0.2032
66838POPE   C4B34866   1.551  20.265   5.779 -0.3122  0.0333 -0.0419
66839POPE   NH334867  25.815  28.392   4.797 -0.0919 -0.4896  0.1602
66839POPE   PO434868  25.672  28.124   4.549 -0.0217  0.1579  0.1596
66839POPE   GL134869  25.695  27.758   4.727 -0.0207 -0.1136 -0.2082
66839POPE   GL234870  25.446  27.570   4.746 -0.1416  0.0604  0.0856
66839POPE   C1A34871  25.981  27.513   4.921 -0.2378  0.3267 -0.0813
66839POPE   D2A34872  26.269  27.226   4.930 -0.1249 -0.3663  0.1918
66839POPE   C3A34873  26.238  26.896   5.220 -0.0649 -0.1798 -0.0220
66839POPE   C4A34874  26.257  26.553   5.422 -0.0673 -0.2459  0.0463
66839POPE   C1B34875  25.627  27.284   5.157  0.2003 -0.0101 -0.0070
66839POPE   C2B34876  26.003  27.276   5.374  0.1825  0.2645  0.0016
66839POPE   C3B34877  26.310  27.372   5.845  0.2465  0.1464 -0.1205
66839POPE   C4B34878  26.206  27.276   6.249 -0.1237 -0.1045  0.2526
66840POPE   NH334879  15.744  17.171  14.472  0.2905  0.1615 -0.1105
66840POPE   PO434880  15.993  16.896  14.237 -0.3164  0.0389 -0.0590
66840POPE   GL134881  15.960  16.743  14.784 -0.2115 -0.2061 -0.0886
66840POPE   GL234882  15.612  16.940  14.873  0.3186  0.1238 -0.0292
66840POPE   C1A34883  16.129  16.539  15.157  0.1175  0.2150  0.1281
66840POPE   D2A34884  16.338  16.380  15.514  0.2817 -0.1866  0.0945
66840POPE   C3A34885  16.435  16.056  15.665  0.2350  0.3362  0.0925
66840POPE   C4A34886  16.461  15.575  15.847  0.2901  0.2387  0.1711
66840POPE   C1B34887  15.777  16.870  15.269 -0.1985  0.1113  0.0077
66840POPE   C2B34888  15.970  16.689  15.596  0.0229  0.2241  0.1823
66840POPE   C3B34889  15.898  16.678  15.893 -0.2815  0.2368 -0.3383
66840POPE   C4B34890  15.658  16.532  16.178  0.2251  0.0154  0.2791
66841POPE   NH334891  20.073  15.722   8.562 -0.0539  0.2826 -0.1809
66841POPE   PO434892  20.133  15.260   8.609  0.2142  0.2243  0.0057
66841POPE   GL134893  20.507  15.068   8.897  0.1561  0.2305 -0.1566
66841POPE   GL234894  20.624  15.240   9.147  0.0208  0.1581 -0.0562
66841POPE   C1A34895  20.917  14.985   8.757 -0.2885 -0.0198 -0.0431
66841POPE   D2A34896  21.358  15.031   8.800 -0.0553 -0.1008 -0.0152
66841POPE   C3A34897  21.702  14.937   8.682  0.2960  0.0900  0.3938
66841POPE   C4A34898  22.111  14.881   8.584 -0.2342 -0.0469  0.0518
66841POPE   C1B34899  21.032  15.149   9.289 -0.2102  0.2224  0.0297
66841POPE   C2B34900  21.411  15.233   9.323  0.0155  0.0965  0.1680
66841POPE   C3B34901  21.740  15.268   9.189 -0.0964  0.0043 -0.1823
66841POPE   C4B34902  22.120  15.315   9.088  0.0904 -0.2758  0.1006
66842POPE   NH334903  30.094   0.066   6.612 -0.1795  0.1538  0.1893
66842POPE   PO434904  30.214  35.002   6.773  0.0040  0.0037 -0.2158
66842POPE   GL134905  29.953  34.727   7.041  0.0783  0.0397 -0.0349
66842POPE   GL234906  29.902  34.493   6.840 -0.1242  0.0591  0.0890
66842POPE   C1A34907  29.989  34.511   7.413  0.0514 -0.0449  0.1198
66842POPE   D2A34908  29.775  34.328   7.721  0.0213 -0.3458  0.2438
66842POPE   C3A34909  30.009  34.225   8.073  0.1398  0.0251 -0.2384
66842POPE   C4A34910  30.192  33.973   8.221  0.1488 -0.0292  0.4929
66842POPE   C1B34911  29.568  34.367   7.216 -0.3146 -0.3115  0.3704
66842POPE   C2B34912  29.324  34.069   7.602 -0.0929 -0.2056 -0.2625
66842POPE   C3B34913  29.201  34.150   7.964 -0.3453 -0.1455 -0.0427
66842POPE   C4B34914  29.015  34.091   8.380  0.1314 -0.1800 -0.1541
66843POPE   NH334915   6.593  20.704   9.328  0.0300 -0.0826 -0.0394
66843POPE   PO434916   6.657  20.293   9.144  0.1424  0.0362  0.0479
66843POPE   GL134917   6.293  20.262   9.378  0.2038  0.0492 -0.2040
66843POPE   GL234918   6.301  20.425   9.584 -0.0667 -0.0451  0.1804
66843POPE   C1A34919   5.866  20.147   9.391  0.1805  0.1651  0.2109
66843POPE   D2A34920   5.494  20.294   9.591  0.0860 -0.2568 -0.0530
66843POPE   C3A34921   5.483  20.303   9.976 -0.1827 -0.0316  0.0250
66843POPE   C4A34922   5.658  20.462  10.282 -0.0984 -0.0203  0.0872
66843POPE   C1B34923   5.994  20.223   9.960  0.1263  0.0872  0.0421
66843POPE   C2B34924   5.717  20.016  10.334  0.2989  0.2034  0.2336
66843POPE   C3B34925   5.401  19.656  10.531 -0.4839 -0.3360  0.0062
66843POPE   C4B34926   5.363  19.334  10.825 -0.0220 -0.2321 -0.1151
66844POPE   NH334927  14.203   1.863  12.542 -0.2993  0.1604 -0.2337
66844POPE   PO434928  14.213   1.446  12.716 -0.0270  0.0824 -0.1008
66844POPE   GL134929  14.200   1.316  13.100 -0.0043 -0.0967 -0.0171
66844POPE   GL234930  13.903   1.191  13.069  0.1163  0.3188  0.2451
66844POPE   C1A34931  14.457   1.346  13.393  0.0512 -0.0620  0.1204
66844POPE   D2A34932  14.615   1.445  13.852  0.0099 -0.2302  0.2310
66844POPE   C3A34933  15.112   1.382  13.934  0.2005 -0.1173  0.0794
66844POPE   C4A34934  15.428   1.399  14.222  0.1477 -0.1620  0.2067
66844POPE   C1B34935  14.021   1.140  13.501  0.0737 -0.0574  0.1739
66844POPE   C2B34936  14.103   1.269  13.828 -0.2659  0.2498 -0.3325
66844POPE   C3B34937  14.294   1.294  14.360  0.2831  0.0221 -0.0868
66844POPE   C4B34938  14.501   1.704  14.715  0.3287 -0.2715  0.2412
66845DOPE   NH334939  24.045  34.981   6.965  0.1099 -0.0701  0.1135
66845DOPE   PO434940  24.368  34.703   6.967 -0.0161  0.1484  0.0257
66845DOPE   GL134941  24.566  34.823   7.317  0.0522  0.3703  0.0929
66845DOPE   GL234942  24.872  34.782   7.453 -0.3109  0.3016 -0.0344
66845DOPE   C1A34943  24.469  35.023   7.679 -0.1844 -0.0840 -0.4835
66845DOPE   D2A34944  24.485  34.961   8.197  0.2620 -0.2199  0.1684
66845DOPE   C3A34945  24.396  34.606   8.479  0.0528  0.3513  0.2806
66845DOPE   C4A34946  24.507  34.503   8.817 -0.0398  0.2085  0.2009
66845DOPE   C1B34947  24.844  34.790   7.879 -0.1597  0.0568  0.0488
66845DOPE   D2B34948  24.865  34.605   8.193  0.0353  0.0760 -0.2065
66845DOPE   C3B34949  25.227  34.704   8.465 -0.2085  0.0686  0.2380
66845DOPE   C4B34950  25.534  34.361   8.527  0.2579 -0.3314  0.2418
66846DOPE   NH334951   3.505  13.395   5.975 -0.0620 -0.1301 -0.0024
66846DOPE   PO434952   3.440  13.247   6.397 -0.0672 -0.1212 -0.0401
66846DOPE   GL134953   3.164  13.268   6.716 -0.1362 -0.0215 -0.0565
66846DOPE   GL234954   2.964  13.226   6.520 -0.1171  0.0553 -0.0265
66846DOPE   C1A34955   2.874  13.520   6.967 -0.0907  0.1606 -0.1077
66846DOPE   D2A34956   2.638  13.633   7.217 -0.0069  0.1329  0.0282
66846DOPE   C3A34957   2.458  13.951   7.188 -0.0554 -0.1204 -0.2717
66846DOPE   C4A34958   2.038  14.010   7.214  0.0972  0.1029 -0.0595
66846DOPE   C1B34959   2.602  13.267   6.178  0.1466 -0.0159  0.4194
66846DOPE   D2B34960   2.306  13.501   6.084 -0.1099 -0.1121  0.3317
66846DOPE   C3B34961   2.171  13.400   6.395 -0.0860  0.0231  0.1371
66846DOPE   C4B34962   1.878  13.163   6.778  0.2871 -0.1617 -0.0413
66847DOPE   NH334963  10.031   5.957  14.898  0.2862  0.3097 -0.0892
66847DOPE   PO434964  10.486   5.910  14.877  0.1702  0.1980 -0.0353
66847DOPE   GL134965  10.324   5.984  15.366  0.1123  0.0739 -0.0250
66847DOPE   GL234966  10.033   5.840  15.377  0.2348  0.0178  0.2421
66847DOPE   C1A34967  10.236   5.765  15.839  0.0932  0.0314 -0.5222
66847DOPE   D2A34968  10.199   5.712  16.336  0.2467  0.2344  0.1238
66847DOPE   C3A34969  10.226   6.051  16.624  0.1443  0.1812 -0.1681
66847DOPE   C4A34970  10.370   6.255  16.938  0.0944 -0.0995  0.0845
66847DOPE   C1B34971   9.825   6.063  15.802  0.2695 -0.2321 -0.1239
66847DOPE   D2B34972   9.889   6.036  16.164 -0.1205  0.1611 -0.2795
66847DOPE   C3B34973   9.825   5.855  16.590  0.1330 -0.0846 -0.4086
66847DOPE   C4B34974   9.878   5.887  17.015  0.0097  0.2201 -0.1512
66848DOPE   NH334975   3.193  13.352   5.153  0.2928  0.1883  0.1172
66848DOPE   PO434976   3.232  13.183   5.528 -0.1787  0.1578 -0.0807
66848DOPE   GL134977   2.750  13.228   5.470 -0.1326  0.2118 -0.0393
66848DOPE   GL234978   2.693  13.324   5.143  0.0607 -0.2271  0.3704
66848DOPE   C1A34979   2.413  12.881   5.395 -0.1855  0.3042  0.2393
66848DOPE   D2A34980   2.037  12.759   5.543 -0.2244 -0.1463 -0.0096
66848DOPE   C3A34981   1.706  12.662   5.879 -0.1542 -0.0700 -0.2028
66848DOPE   C4A34982   1.447  12.612   6.168  0.2419 -0.1354  0.0469
66848DOPE   C1B34983   2.263  13.267   5.060 -0.0924  0.0909  0.0295
66848DOPE   D2B34984   1.921  13.122   5.195 -0.1517 -0.0226 -0.0499
66848DOPE   C3B34985   1.632  13.075   5.560 -0.0254 -0.0022 -0.2352
66848DOPE   C4B34986   1.245  12.965   5.784 -0.0296 -0.2534 -0.2704
66849DOPE   NH334987  11.436  25.414  17.789 -0.1107  0.0553 -0.2332
66849DOPE   PO434988  11.389  25.670  18.111 -0.1653  0.3282 -0.0588
66849DOPE   GL134989  11.540  25.500  18.618  0.1440  0.1049  0.0333
66849DOPE   GL234990  11.785  25.696  18.683 -0.0624  0.0775 -0.1772
66849DOPE   C1A34991  11.217  25.487  18.924 -0.1494 -0.2317 -0.1522
66849DOPE   D2A34992  11.296  25.459  19.323  0.0794 -0.1154  0.0066
66849DOPE   C3A34993  11.006  25.090  19.548 -0.0067  0.1080  0.0694
66849DOPE   C4A34994  10.698  24.830  19.727 -0.2277  0.1095 -0.1195
66849DOPE   C1B34995  11.489  25.894  18.962 -0.0929 -0.2367  0.0008
66849DOPE   D2B34996  11.293  26.173  19.191 -0.1426  0.1555  0.0382
66849DOPE   C3B34997  11.181  26.282  19.579 -0.2619 -0.0610  0.0646
66849DOPE   C4B34998  11.100  26.101  19.966  0.2439  0.1177  0.1622
66850DOPE   NH334999  28.193  27.090   3.428  0.0699 -0.2798  0.2515
66850DOPE   PO435000  27.860  27.414   3.576  0.4181  0.3275  0.1590
66850DOPE   GL135001  27.868  27.285   3.982  0.1197  0.2174  0.0524
66850DOPE   GL235002  27.836  27.496   4.238  0.2313  0.0315  0.1965
66850DOPE   C1A35003  27.869  26.987   4.331  0.3070  0.0826 -0.1908
66850DOPE   D2A35004  27.606  26.978   4.720 -0.1300 -0.1650 -0.0215
66850DOPE   C3A35005  27.177  26.680   4.767 -0.2306  0.4449 -0.0218
66850DOPE   C4A35006  26.873  26.331   4.879  0.2924 -0.2140  0.0297
66850DOPE   C1B35007  27.445  27.256   4.290  0.1882  0.4989 -0.2762
66850DOPE   D2B35008  27.145  27.010   4.400  0.0907 -0.2169 -0.2329
66850DOPE   C3B35009  26.832  27.003   4.554  0.1881  0.1052  0.0358
66850DOPE   C4B35010  26.587  26.705   4.850  0.0523 -0.1187 -0.0348
66851DOPE   NH335011  21.115   7.733  10.590 -0.0019 -0.0647 -0.2501
66851DOPE   PO435012  20.830   7.807  10.832 -0.3423  0.1592  0.1400
66851DOPE   GL135013  21.201   7.999  11.049 -0.1623 -0.0208  0.0930
66851DOPE   GL235014  21.176   8.073  11.296  0.0740  0.0304 -0.1097
66851DOPE   C1A35015  21.670   7.975  11.108 -0.5325  0.0996 -0.0431
66851DOPE   D2A35016  22.024   7.945  11.474 -0.1300 -0.1031  0.0406
66851DOPE   C3A35017  22.353   8.219  11.571 -0.1595 -0.0653 -0.2389
66851DOPE   C4A35018  22.784   8.455  11.489  0.0683  0.1326 -0.1051
66851DOPE   C1B35019  21.511   7.962  11.606  0.0023  0.0415  0.1852
66851DOPE   D2B35020  21.758   7.951  11.935 -0.0626  0.0714 -0.0226
66851DOPE   C3B35021  21.648   8.021  12.371  0.2454 -0.0638 -0.4022
66851DOPE   C4B35022  21.342   8.123  12.625 -0.2827 -0.1800 -0.2077
66852DOPE   NH335023  33.090   7.315   4.618 -0.1942 -0.1440  0.2020
66852DOPE   PO435024  33.073   6.905   4.837 -0.0215  0.1859 -0.2912
66852DOPE   GL135025  32.830   7.173   5.037  0.0836 -0.0852  0.0102
66852DOPE   GL235026  32.645   7.024   5.199  0.1339  0.3930 -0.2038
66852DOPE   C1A35027  32.600   7.552   5.076 -0.2274 -0.0447 -0.4147
66852DOPE   D2A35028  32.639   7.975   5.069 -0.0658  0.1439 -0.3043
66852DOPE   C3A35029  32.247   8.228   5.105 -0.0974  0.2209 -0.1893
66852DOPE   C4A35030  31.935   8.141   5.499 -0.2592 -0.2477 -0.1869
66852DOPE   C1B35031  32.405   7.086   5.519  0.0306 -0.1979  0.0731
66852DOPE   D2B35032  32.050   7.019   5.813  0.2759 -0.2746 -0.1116
66852DOPE   C3B35033  32.081   6.857   6.161 -0.2878 -0.2371 -0.4920
66852DOPE   C4B35034  31.678   7.012   6.416 -0.0278 -0.0369  0.0548
66853DOPE   NH335035   4.608  13.204   8.178 -0.0204 -0.0035 -0.2666
66853DOPE   PO435036   4.643  13.287   8.524  0.1433 -0.2208 -0.0195
66853DOPE   GL135037   4.177  13.059   8.393 -0.0950  0.1548  0.1869
66853DOPE   GL235038   4.181  12.934   8.016 -0.1357 -0.2076  0.1973
66853DOPE   C1A35039   3.761  13.068   8.619  0.0466  0.1314 -0.0044
66853DOPE   D2A35040   3.682  13.186   8.958  0.0662  0.0437 -0.4061
66853DOPE   C3A35041   3.413  13.257   9.227 -0.1282  0.0501  0.1353
66853DOPE   C4A35042   3.230  13.369   9.624 -0.2594 -0.1645  0.2126
66853DOPE   C1B35043   3.681  12.828   8.203 -0.0525  0.2897  0.0099
66853DOPE   D2B35044   3.386  12.777   8.552 -0.0405 -0.1778 -0.2652
66853DOPE   C3B35045   3.158  12.998   8.805  0.0017  0.0588  0.2933
66853DOPE   C4B35046   2.924  12.985   9.150  0.0314  0.0102  0.2360
66854DOPE   NH335047  13.540  17.647  14.908  0.2074 -0.1570 -0.1130
66854DOPE   PO435048  13.673  17.298  14.959 -0.2755 -0.3762  0.0794
66854DOPE   GL135049  13.589  17.340  15.302 -0.1228 -0.0774 -0.3184
66854DOPE   GL235050  13.461  17.665  15.454 -0.1392 -0.1015 -0.2439
66854DOPE   C1A35051  13.922  17.282  15.621 -0.2223  0.0625  0.1455
66854DOPE   D2A35052  13.945  17.088  15.968 -0.0807 -0.2717 -0.1573
66854DOPE   C3A35053  13.860  17.025  16.350  0.0826  0.0264  0.4253
66854DOPE   C4A35054  13.580  17.001  16.777  0.1446 -0.0540  0.0362
66854DOPE   C1B35055  13.503  17.570  15.772 -0.2875 -0.2978 -0.3308
66854DOPE   D2B35056  13.446  17.181  15.912  0.0675  0.0965  0.2388
66854DOPE   C3B35057  13.356  17.129  16.328 -0.2783 -0.0468 -0.1556
66854DOPE   C4B35058  13.264  16.751  16.492 -0.1083  0.2555  0.2504
66855DOPE   NH335059  27.788  26.749   2.763  0.1902 -0.0904 -0.0027
66855DOPE   PO435060  27.787  27.015   3.122 -0.0790 -0.0763 -0.3030
66855DOPE   GL135061  27.863  26.660   3.398  0.0246  0.1570  0.0172
66855DOPE   GL235062  28.150  26.536   3.176 -0.0844 -0.0317  0.1400
66855DOPE   C1A35063  27.697  26.242   3.652  0.0989  0.1456 -0.1369
66855DOPE   D2A35064  27.681  26.087   3.957  0.1693 -0.2050 -0.4143
66855DOPE   C3A35065  27.546  25.739   3.959  0.0640 -0.4019 -0.2389
66855DOPE   C4A35066  27.428  25.409   3.868 -0.2388  0.1049  0.0258
66855DOPE   C1B35067  28.194  26.241   3.450  0.0581 -0.3272 -0.2988
66855DOPE   D2B35068  28.185  26.126   3.870  0.1218 -0.1283  0.1457
66855DOPE   C3B35069  28.560  25.944   3.849 -0.0064 -0.3054  0.3137
66855DOPE   C4B35070  28.943  25.938   4.127  0.0842 -0.3808  0.1351
66856DOPE   NH335071  31.901  17.271   0.573 -0.3029 -0.1283  0.0999
66856DOPE   PO435072  31.870  17.601   0.332  0.0529 -0.0813 -0.3234
66856DOPE   GL135073  31.922  17.821   0.738 -0.2681 -0.1442 -0.0733
66856DOPE   GL235074  32.119  18.034   0.786 -0.2729  0.3460  0.1531
66856DOPE   C1A35075  31.629  18.071   0.886  0.3541 -0.0172 -0.2537
66856DOPE   D2A35076  31.537  18.254   1.346  0.2263  0.0876  0.2026
66856DOPE   C3A35077  31.261  18.196   1.661 -0.1763 -0.0109 -0.2469
66856DOPE   C4A35078  31.242  18.033   2.045 -0.2069  0.1389 -0.0771
66856DOPE   C1B35079  32.053  18.134   1.166 -0.1018 -0.0907 -0.1866
66856DOPE   D2B35080  31.957  18.235   1.602 -0.1209 -0.0943 -0.2293
66856DOPE   C3B35081  31.679  18.455   1.759 -0.0157  0.0643 -0.0699
66856DOPE   C4B35082  31.264  18.603   1.927  0.4090 -0.1566 -0.2347
66857DOPE   NH335083  30.329  16.984  25.944  0.0303  0.1754  0.0160
66857DOPE   PO435084  30.473  17.368  26.056 -0.2191  0.2156 -0.3157
66857DOPE   GL135085  30.352  17.423   0.202  0.2380  0.1481 -0.2358
66857DOPE   GL235086  30.093  17.568   0.340 -0.3771 -0.2300 -0.2996
66857DOPE   C1A35087  30.290  17.166   0.528  0.1352  0.0587  0.0707
66857DOPE   D2A35088  30.141  16.767   0.683 -0.0581 -0.0060 -0.1759
66857DOPE   C3A35089  30.024  16.820   1.061 -0.2498  0.0805 -0.1164
66857DOPE   C4A35090  30.037  16.814   1.437  0.0110  0.5154 -0.0461
66857DOPE   C1B35091  30.032  17.770   0.690 -0.1152 -0.2479 -0.0237
66857DOPE   D2B35092  30.211  17.954   0.983  0.1392 -0.2471  0.0788
66857DOPE   C3B35093  30.411  17.736   1.366  0.2657 -0.0770 -0.1171
66857DOPE   C4B35094  30.387  17.640   1.858 -0.0099  0.1679  0.1510
66858DOPE   NH335095   4.840  26.832  13.293 -0.3363 -0.0092  0.1410
66858DOPE   PO435096   4.598  27.167  13.053 -0.2057  0.0595  0.2695
66858DOPE   GL135097   4.287  27.042  13.391 -0.0894 -0.1458  0.1806
66858DOPE   GL235098   4.393  27.114  13.580 -0.1906  0.2769  0.0799
66858DOPE   C1A35099   3.907  26.827  13.480 -0.1233 -0.2586 -0.1559
66858DOPE   D2A35100   3.545  26.691  13.794 -0.4323  0.2792  0.3401
66858DOPE   C3A35101   3.326  26.245  13.803  0.0646 -0.0552  0.2816
66858DOPE   C4A35102   3.002  25.775  13.896  0.0765  0.1857  0.1248
66858DOPE   C1B35103   4.092  26.998  13.969  0.0302 -0.2493 -0.2254
66858DOPE   D2B35104   3.702  26.812  14.236 -0.0320 -0.1369 -0.0031
66858DOPE   C3B35105   3.432  26.441  14.261  0.1397 -0.1661  0.2092
66858DOPE   C4B35106   3.209  26.065  14.273  0.0324 -0.3817 -0.0758
66859DOPE   NH335107  19.089   8.324  12.339 -0.3169 -0.1465 -0.3022
66859DOPE   PO435108  18.832   8.311  12.699  0.1149 -0.1114  0.0768
66859DOPE   GL135109  19.109   8.590  12.873 -0.1893  0.0651 -0.1317
66859DOPE   GL235110  19.343   8.655  12.675  0.0041  0.2155  0.0783
66859DOPE   C1A35111  19.404   8.519  13.179  0.1237 -0.2544  0.0748
66859DOPE   D2A35112  19.597   8.541  13.467  0.0992 -0.1448 -0.1054
66859DOPE   C3A35113  19.875   8.267  13.667 -0.1587  0.0319  0.0897
66859DOPE   C4A35114  20.251   8.260  13.965  0.2142 -0.1361 -0.1715
66859DOPE   C1B35115  19.712   8.905  12.928 -0.0153  0.4045 -0.1948
66859DOPE   D2B35116  20.046   9.234  12.924  0.0645 -0.0373 -0.4614
66859DOPE   C3B35117  20.339   9.429  13.260  0.1650  0.0070 -0.0094
66859DOPE   C4B35118  20.573   9.593  13.508 -0.1174  0.2164  0.0735
66860DOPE   NH335119  35.245   4.446   7.569  0.0840  0.3745  0.0547
66860DOPE   PO435120   0.163   4.103   7.779  0.0461  0.3564  0.0078
66860DOPE   GL135121   0.151   4.473   8.000  0.0966 -0.1882  0.2672
66860DOPE   GL235122   0.400   4.297   8.194  0.0721 -0.1643  0.0774
66860DOPE   C1A35123   0.277   4.860   8.285  0.0641  0.1828 -0.3475
66860DOPE   D2A35124   0.129   5.037   8.684  0.0996 -0.0288  0.2372
66860DOPE   C3A35125   0.165   5.447   8.861  0.0854 -0.2083 -0.1764
66860DOPE   C4A35126   0.390   5.804   9.078  0.0093 -0.1751 -0.0134
66860DOPE   C1B35127   0.288   4.080   8.501  0.0327 -0.2493 -0.2605
66860DOPE   D2B35128  35.359   3.956   8.674  0.1130  0.1498  0.3105
66860DOPE   C3B35129  35.223   4.243   8.961 -0.2882  0.1459 -0.0781
66860DOPE   C4B35130  35.152   4.683   8.951  0.1752  0.1296  0.0430
66861DOPE   NH335131  11.998  28.060  17.465  0.2231 -0.2170 -0.0570
66861DOPE   PO435132  11.880  27.702  17.688  0.2727 -0.3622 -0.1146
66861DOPE   GL135133  12.224  27.605  18.142 -0.1145 -0.1160 -0.1965
66861DOPE   GL235134  12.091  27.313  18.269  0.4200  0.1792 -0.0213
66861DOPE   C1A35135  12.177  27.846  18.519 -0.1111 -0.0639  0.3057
66861DOPE   D2A35136  12.492  27.983  18.799  0.0938  0.0245 -0.0050
66861DOPE   C3A35137  12.490  27.868  19.251 -0.1340  0.0425 -0.1639
66861DOPE   C4A35138  12.688  27.744  19.661  0.0101  0.0910  0.1381
66861DOPE   C1B35139  12.124  27.225  18.621  0.1452 -0.1332 -0.0517
66861DOPE   D2B35140  12.342  27.024  18.919  0.2461 -0.0543 -0.2792
66861DOPE   C3B35141  12.395  26.865  19.333  0.0087 -0.2456 -0.4190
66861DOPE   C4B35142  12.623  27.138  19.697  0.0506 -0.1464  0.0016
66862DOPE   NH335143  35.138  35.223   8.761 -0.1051 -0.0836 -0.1143
66862DOPE   PO435144  34.672   0.059   8.813  0.2686  0.4339 -0.2271
66862DOPE   GL135145  34.282  35.340   8.984 -0.0754  0.1926  0.1160
66862DOPE   GL235146  34.366  35.187   9.293  0.0850  0.3011 -0.1704
66862DOPE   C1A35147  33.912   0.105   9.083 -0.0547  0.0863 -0.0511
66862DOPE   D2A35148  33.661   0.210   9.520  0.1449  0.0827 -0.1004
66862DOPE   C3A35149  33.701   0.546   9.669  0.1815 -0.0822  0.0171
66862DOPE   C4A35150  33.869   0.742  10.068 -0.2077  0.2335  0.1399
66862DOPE   C1B35151  34.039  35.202   9.582 -0.1446  0.2948 -0.1237
66862DOPE   D2B35152  33.714  35.045   9.790 -0.2662 -0.1433 -0.1968
66862DOPE   C3B35153  33.533   0.028   9.989 -0.1349  0.2118 -0.0020
66862DOPE   C4B35154  33.518   0.397  10.235  0.2598  0.1718 -0.0485
66863DOPE   NH335155   7.655  23.155  15.737  0.0701  0.1765 -0.0677
66863DOPE   PO435156   7.593  23.407  16.024  0.2219  0.3794 -0.3847
66863DOPE   GL135157   7.224  23.347  15.917 -0.1300  0.0079 -0.2685
66863DOPE   GL235158   7.053  23.594  15.788 -0.1717 -0.0452  0.2757
66863DOPE   C1A35159   6.918  23.010  15.813  0.2649  0.3183  0.2462
66863DOPE   D2A35160   6.590  22.782  15.504  0.6535  0.5848 -0.0633
66863DOPE   C3A35161   6.104  22.658  15.704  0.3164  0.1226 -0.2579
66863DOPE   C4A35162   5.828  22.763  16.000  0.1694  0.2469  0.0895
66863DOPE   C1B35163   6.653  23.404  15.758  0.2849  0.1922  0.3634
66863DOPE   D2B35164   6.332  23.113  15.748  0.2099  0.4556 -0.0100
66863DOPE   C3B35165   6.443  22.841  16.005  0.1646 -0.0057  0.1543
66863DOPE   C4B35166   6.563  22.414  15.949 -0.2082  0.2857 -0.1240
66864DOPE   NH335167   8.486  22.791  16.963  0.3278  0.0896  0.2180
66864DOPE   PO435168   8.922  22.562  16.925  0.0168 -0.0200  0.1894
66864DOPE   GL135169   8.632  22.340  17.225  0.0769 -0.0618  0.2146
66864DOPE   GL235170   8.797  22.345  17.586 -0.0333 -0.2570  0.0471
66864DOPE   C1A35171   8.316  22.283  17.482 -0.2469  0.0633  0.0043
66864DOPE   D2A35172   7.985  22.070  17.769  0.3671  0.1430 -0.2106
66864DOPE   C3A35173   7.782  21.648  18.010  0.2529  0.0315  0.0467
66864DOPE   C4A35174   7.714  21.435  18.374  0.0793 -0.1275 -0.0309
66864DOPE   C1B35175   8.584  22.238  17.975  0.3799  0.1322  0.1347
66864DOPE   D2B35176   8.174  22.144  18.197  0.2447  0.0339 -0.0273
66864DOPE   C3B35177   8.103  21.765  18.556  0.2434  0.2951  0.3792
66864DOPE   C4B35178   8.045  21.625  18.953  0.0447 -0.0174 -0.0216
66865DOPE   NH335179  31.016   3.587   6.344 -0.0567  0.0562  0.1575
66865DOPE   PO435180  31.378   3.804   6.351  0.2743  0.0607  0.2246
66865DOPE   GL135181  31.187   3.848   6.808 -0.0309  0.1158 -0.0962
66865DOPE   GL235182  31.021   3.607   6.996  0.2421  0.2845  0.0599
66865DOPE   C1A35183  31.069   4.111   7.292 -0.0623 -0.1225  0.1322
66865DOPE   D2A35184  31.022   4.046   7.712 -0.0574 -0.2771  0.1009
66865DOPE   C3A35185  31.176   3.776   7.907  0.6408  0.1194 -0.1528
66865DOPE   C4A35186  31.514   3.747   8.066  0.2949  0.0001  0.2976
66865DOPE   C1B35187  31.082   3.557   7.447 -0.1491 -0.1951  0.1565
66865DOPE   D2B35188  30.734   3.540   7.806  0.3254  0.4182  0.0708
66865DOPE   C3B35189  30.308   3.713   8.079  0.1969 -0.1870 -0.2518
66865DOPE   C4B35190  29.956   3.834   8.175  0.0322  0.0541 -0.2400
66866DOPE   NH335191  34.314   4.204   7.515  0.2524 -0.2551 -0.0749
66866DOPE   PO435192  34.824   4.203   7.668  0.0348 -0.1769 -0.0285
66866DOPE   GL135193  35.065   4.174   8.079 -0.0384  0.1425  0.2266
66866DOPE   GL235194  34.958   3.861   8.181 -0.2574 -0.0693  0.0945
66866DOPE   C1A35195  35.245   4.368   8.453 -0.1431  0.0243  0.0791
66866DOPE   D2A35196   0.208   4.464   8.754 -0.1789  0.0755 -0.2241
66866DOPE   C3A35197   0.228   4.718   9.118 -0.3687 -0.1873 -0.1329
66866DOPE   C4A35198  35.356   5.045   9.379 -0.1763  0.0185 -0.0928
66866DOPE   C1B35199  34.855   3.935   8.679  0.2478  0.2515  0.3088
66866DOPE   D2B35200  34.771   4.040   9.071 -0.2161  0.2376 -0.3868
66866DOPE   C3B35201  34.388   3.953   9.350  0.0280  0.4825 -0.1191
66866DOPE   C4B35202  34.168   3.992   9.686 -0.0740 -0.1775  0.2025
66867DOPE   NH335203   0.363  35.178   9.579  0.2157 -0.0471 -0.0714
66867DOPE   PO435204   0.737   0.181   9.634 -0.2130  0.0519  0.3564
66867DOPE   GL135205   0.342   0.221   9.872  0.2511  0.1194 -0.0652
66867DOPE   GL235206   0.177   0.535   9.836  0.3738 -0.0345  0.2053
66867DOPE   C1A35207   0.134   0.213  10.294 -0.0323 -0.2822  0.1343
66867DOPE   D2A35208  35.208   0.250  10.674 -0.0910 -0.0693  0.1481
66867DOPE   C3A35209  34.796   0.103  10.666 -0.2252 -0.4432  0.0191
66867DOPE   C4A35210  34.373   0.105  10.728 -0.3633 -0.0335  0.1036
66867DOPE   C1B35211  35.323   0.658  10.258 -0.0092 -0.0351  0.0124
66867DOPE   D2B35212  35.091   0.769  10.632  0.0589  0.3123  0.1460
66867DOPE   C3B35213  34.948   0.594  10.954 -0.1979 -0.0796  0.1889
66867DOPE   C4B35214  35.017   0.254  11.123 -0.0131  0.1422  0.0988
66868DOPE   NH335215  16.180  33.369  11.402 -0.0992 -0.0354  0.3893
66868DOPE   PO435216  15.932  33.588  11.111  0.1601  0.0272  0.2794
66868DOPE   GL135217  16.114  33.897  11.406  0.0912  0.0206 -0.0591
66868DOPE   GL235218  16.038  34.229  11.460 -0.1159  0.2423 -0.0458
66868DOPE   C1A35219  16.593  34.090  11.434 -0.0698  0.0251 -0.2188
66868DOPE   D2A35220  16.815  33.856  11.493 -0.0912  0.2615  0.1330
66868DOPE   C3A35221  17.056  33.857  11.127 -0.0669  0.0502  0.0092
66868DOPE   C4A35222  17.375  34.036  10.965  0.1456  0.2443 -0.1172
66868DOPE   C1B35223  16.257  34.310  11.728 -0.1124 -0.0704  0.3528
66868DOPE   D2B35224  16.595  34.426  11.829 -0.0126  0.0228  0.0099
66868DOPE   C3B35225  17.060  34.228  11.785 -0.0743 -0.1065 -0.0963
66868DOPE   C4B35226  17.271  33.883  11.598 -0.0893  0.2741  0.0236
66869DOPE   NH335227  25.689  34.598   6.488  0.0190 -0.0943  0.0556
66869DOPE   PO435228  25.159  34.567   6.439 -0.2970  0.1112 -0.0810
66869DOPE   GL135229  25.356  34.463   6.912 -0.1692  0.1373  0.0039
66869DOPE   GL235230  25.598  34.347   6.949  0.0455 -0.2195  0.1413
66869DOPE   C1A35231  25.266  34.534   7.331 -0.0588  0.0244  0.3411
66869DOPE   D2A35232  25.116  34.404   7.802  0.3274 -0.0330  0.3076
66869DOPE   C3A35233  25.397  34.462   8.020  0.0774  0.4095  0.1582
66869DOPE   C4A35234  25.882  34.596   8.253  0.2541 -0.0515 -0.1687
66869DOPE   C1B35235  25.999  34.070   6.891  0.1104 -0.2710  0.0022
66869DOPE   D2B35236  26.097  33.894   7.184  0.1404  0.0919 -0.2421
66869DOPE   C3B35237  26.161  34.023   7.583 -0.0659  0.0426  0.0340
66869DOPE   C4B35238  26.428  33.968   7.981  0.0110 -0.0241  0.0054
66870DOPE   NH335239   9.713  18.510  14.587  0.1715  0.2480 -0.1303
66870DOPE   PO435240  10.081  18.697  14.756  0.0449  0.0119 -0.1807
66870DOPE   GL135241  10.372  18.503  15.033  0.1465 -0.5446  0.5050
66870DOPE   GL235242  10.443  18.454  15.342  0.0937  0.4920  0.0222
66870DOPE   C1A35243  10.257  17.986  15.133  0.0129 -0.4715 -0.1591
66870DOPE   D2A35244  10.341  17.797  15.429 -0.1658 -0.0083  0.0399
66870DOPE   C3A35245  10.301  17.513  15.780  0.1803 -0.1149 -0.1999
66870DOPE   C4A35246  10.153  17.519  16.226 -0.1894  0.4399 -0.1980
66870DOPE   C1B35247  10.214  18.224  15.688  0.1442 -0.3598 -0.0227
66870DOPE   D2B35248   9.983  17.913  15.932  0.0849 -0.1334 -0.0954
66870DOPE   C3B35249   9.891  17.961  16.342  0.0759 -0.2121  0.1809
66870DOPE   C4B35250  10.061  17.791  16.709  0.1313 -0.1957  0.0554
66871DOPE   NH335251  14.808  31.796  13.855 -0.1836  0.0494 -0.0928
66871DOPE   PO435252  15.161  31.779  14.090 -0.4030 -0.3531  0.2623
66871DOPE   GL135253  15.268  31.961  14.449  0.1095 -0.0952 -0.0141
66871DOPE   GL235254  15.083  31.744  14.675 -0.3495  0.0582  0.2933
66871DOPE   C1A35255  15.523  32.173  14.699  0.0639 -0.2968 -0.0363
66871DOPE   D2A35256  15.898  32.262  14.901 -0.0045  0.1427 -0.0282
66871DOPE   C3A35257  15.906  31.973  15.145 -0.1580 -0.1161  0.0391
66871DOPE   C4A35258  15.951  31.829  15.636 -0.1882 -0.0300  0.0081
66871DOPE   C1B35259  15.478  31.729  14.916  0.0565 -0.3280 -0.3357
66871DOPE   D2B35260  15.722  31.508  15.242 -0.1219 -0.4407 -0.0078
66871DOPE   C3B35261  16.013  31.344  15.224  0.0946 -0.2723 -0.0144
66871DOPE   C4B35262  16.316  31.128  15.385  0.0782  0.2340  0.1328
66872DOPE   NH335263  33.579  10.277   2.311  0.1422  0.0825 -0.1549
66872DOPE   PO435264  33.590   9.844   2.537  0.0363 -0.0136 -0.0865
66872DOPE   GL135265  33.437   9.787   2.940 -0.0261  0.0811  0.0997
66872DOPE   GL235266  33.728   9.870   3.109 -0.0267  0.0429 -0.2628
66872DOPE   C1A35267  33.128   9.854   3.219 -0.1461 -0.0722  0.1343
66872DOPE   D2A35268  32.931  10.055   3.450  0.0173 -0.1331  0.1448
66872DOPE   C3A35269  33.060  10.128   3.887  0.2342  0.2100 -0.0585
66872DOPE   C4A35270  33.096  10.210   4.358  0.1269  0.0535  0.2493
66872DOPE   C1B35271  33.502  10.086   3.420 -0.3114  0.0339 -0.3004
66872DOPE   D2B35272  33.552  10.246   3.834  0.1845  0.0617  0.0967
66872DOPE   C3B35273  33.328  10.561   4.071 -0.2550 -0.1926  0.0413
66872DOPE   C4B35274  32.834  10.631   4.275 -0.0438  0.3725 -0.3018
66873DOPE   NH335275   8.488  29.663  16.616  0.1818  0.3804  0.1295
66873DOPE   PO435276   8.842  29.974  16.708 -0.1290  0.1335 -0.0521
66873DOPE   GL135277   8.747  30.029  17.150  0.1706  0.2898 -0.2011
66873DOPE   GL235278   8.809  29.725  17.303  0.0051  0.4745  0.2184
66873DOPE   C1A35279   8.493  30.067  17.476 -0.0090 -0.2786  0.1709
66873DOPE   D2A35280   8.387  30.083  17.843  0.0911 -0.0971  0.2957
66873DOPE   C3A35281   7.950  30.222  17.824 -0.0797 -0.2270 -0.1874
66873DOPE   C4A35282   7.716  29.966  17.961  0.3166  0.1412  0.0351
66873DOPE   C1B35283   8.572  29.627  17.783  0.2822 -0.2222 -0.0349
66873DOPE   D2B35284   8.528  29.744  18.178  0.0180 -0.0589  0.2469
66873DOPE   C3B35285   8.394  29.499  18.501  0.0449 -0.2958 -0.0048
66873DOPE   C4B35286   8.276  29.231  18.800 -0.1247 -0.1398 -0.0362
66874DOPE   NH335287  25.299  24.369   2.046 -0.1193 -0.1629  0.1902
66874DOPE   PO435288  25.185  23.972   2.185  0.0633 -0.0111  0.0391
66874DOPE   GL135289  25.597  23.967   2.060  0.0873  0.1838 -0.3064
66874DOPE   GL235290  25.805  24.014   1.673  0.0209  0.0966  0.0702
66874DOPE   C1A35291  25.983  23.942   2.170 -0.2272 -0.1760 -0.1793
66874DOPE   D2A35292  26.430  23.695   2.335  0.0418 -0.0285  0.1809
66874DOPE   C3A35293  26.786  23.800   2.054  0.1087 -0.4257  0.0400
66874DOPE   C4A35294  27.151  23.875   2.200 -0.2237  0.1148  0.1009
66874DOPE   C1B35295  25.850  23.613   1.859 -0.0645 -0.1244 -0.0389
66874DOPE   D2B35296  25.765  23.171   1.856  0.1638 -0.0097  0.1172
66874DOPE   C3B35297  26.077  22.905   1.987  0.1852  0.2767  0.0369
66874DOPE   C4B35298  26.470  22.721   1.967  0.2886  0.0651  0.0636
66875DOPE   NH335299  10.957  33.435  16.727 -0.0594 -0.0324  0.1846
66875DOPE   PO435300  10.545  33.504  16.654 -0.1019 -0.2340 -0.1197
66875DOPE   GL135301  10.466  33.458  17.196  0.0040 -0.2884  0.4013
66875DOPE   GL235302  10.192  33.640  17.174 -0.2458 -0.0997  0.1895
66875DOPE   C1A35303  10.513  33.649  17.590  0.0193 -0.1090  0.1660
66875DOPE   D2A35304  10.703  33.858  17.930  0.1665 -0.1647 -0.1595
66875DOPE   C3A35305  10.802  33.617  18.346 -0.0358 -0.0674 -0.4494
66875DOPE   C4A35306  10.738  33.178  18.427 -0.0896 -0.1761  0.2271
66875DOPE   C1B35307  10.032  33.745  17.597  0.2093  0.1426  0.1690
66875DOPE   D2B35308  10.096  33.828  17.957 -0.3034  0.0065 -0.1992
66875DOPE   C3B35309   9.833  33.698  18.271 -0.0313  0.0932 -0.0228
66875DOPE   C4B35310   9.684  33.923  18.643 -0.1333  0.3774 -0.1461
66876DOPE   NH335311   7.990  25.451  16.762 -0.2521  0.0494  0.1956
66876DOPE   PO435312   8.061  25.111  16.959 -0.0020  0.0474  0.0018
66876DOPE   GL135313   7.691  24.999  17.204  0.0754 -0.2059  0.0251
66876DOPE   GL235314   7.643  24.693  17.281  0.1222  0.1411  0.0796
66876DOPE   C1A35315   7.336  25.236  17.435 -0.1289 -0.0857  0.1370
66876DOPE   D2A35316   7.188  25.210  17.832 -0.0562  0.1157  0.0078
66876DOPE   C3A35317   6.737  25.380  17.939 -0.3837 -0.2546 -0.0755
66876DOPE   C4A35318   6.318  25.441  17.846 -0.0745  0.1176  0.1986
66876DOPE   C1B35319   7.448  24.754  17.722  0.1177  0.0009 -0.1889
66876DOPE   D2B35320   7.258  24.759  18.080 -0.0891 -0.0757 -0.0350
66876DOPE   C3B35321   6.871  24.932  18.114  0.1617 -0.0313 -0.0984
66876DOPE   C4B35322   6.432  25.053  18.197  0.4455 -0.0704 -0.0792
66877DOPE   NH335323   4.965  23.637   7.460  0.1281  0.0318  0.1735
66877DOPE   PO435324   4.809  23.462   7.802 -0.0704 -0.2030  0.0203
66877DOPE   GL135325   4.579  23.239   7.583  0.1073  0.0501 -0.2998
66877DOPE   GL235326   4.440  22.907   7.658  0.0381  0.0086 -0.0397
66877DOPE   C1A35327   4.261  23.116   7.231 -0.0267 -0.1916  0.1667
66877DOPE   D2A35328   3.921  22.953   7.013  0.0745 -0.0786  0.1007
66877DOPE   C3A35329   3.536  23.045   6.978  0.1423  0.0739  0.3249
66877DOPE   C4A35330   3.298  22.682   6.875 -0.0939  0.0860 -0.2125
66877DOPE   C1B35331   3.991  22.806   7.591 -0.0795 -0.0274  0.0840
66877DOPE   D2B35332   3.705  22.646   7.784 -0.0848  0.0880 -0.2021
66877DOPE   C3B35333   3.479  22.215   7.724 -0.0167  0.0794 -0.1920
66877DOPE   C4B35334   3.407  21.852   7.995  0.1698  0.0362 -0.1262
66878DOPE   NH335335  29.935  27.388   3.259  0.0684  0.2911  0.2165
66878DOPE   PO435336  30.233  27.124   3.365  0.0039  0.0114 -0.0286
66878DOPE   GL135337  30.428  26.794   3.605  0.0042  0.1513 -0.1744
66878DOPE   GL235338  30.344  26.404   3.502 -0.0688 -0.4243 -0.2337
66878DOPE   C1A35339  30.522  26.646   3.964  0.1517 -0.2326 -0.2564
66878DOPE   D2A35340  30.565  26.482   4.331  0.2195 -0.1553 -0.2146
66878DOPE   C3A35341  30.611  25.991   4.491 -0.3059 -0.1449  0.0982
66878DOPE   C4A35342  30.860  25.625   4.466  0.2200  0.1036 -0.0321
66878DOPE   C1B35343  30.284  26.195   3.857  0.0338 -0.2046 -0.1912
66878DOPE   D2B35344  30.171  26.037   4.215 -0.2498  0.2610  0.0037
66878DOPE   C3B35345  30.349  25.609   4.313 -0.0120  0.0532 -0.0577
66878DOPE   C4B35346  30.663  25.278   4.181  0.3517 -0.1071  0.3134
66879DOPE   NH335347  18.002  24.819  13.709 -0.1019  0.0709 -0.3681
66879DOPE   PO435348  17.762  24.688  14.056  0.1703 -0.1392 -0.4964
66879DOPE   GL135349  18.139  24.923  14.263  0.4217  0.1238  0.1389
66879DOPE   GL235350  18.382  24.877  14.042  0.0571 -0.0983  0.0589
66879DOPE   C1A35351  18.390  24.991  14.570 -0.1183  0.1538 -0.1167
66879DOPE   D2A35352  18.587  24.951  15.035 -0.1705 -0.2744 -0.1014
66879DOPE   C3A35353  18.608  25.316  15.183  0.2672 -0.1684  0.0575
66879DOPE   C4A35354  18.818  25.570  15.405 -0.0766  0.0372  0.0516
66879DOPE   C1B35355  18.729  25.018  14.272  0.2624  0.0581  0.0326
66879DOPE   D2B35356  18.854  25.311  14.708 -0.1748 -0.1084 -0.0544
66879DOPE   C3B35357  19.083  25.079  15.054  0.3392  0.2181  0.2135
66879DOPE   C4B35358  19.305  24.756  15.331 -0.0920  0.2091 -0.0488
66880DOPE   NH335359  13.815  13.694  14.795  0.0079  0.3302 -0.2383
66880DOPE   PO435360  14.321  13.590  14.860  0.0986 -0.0918 -0.0304
66880DOPE   GL135361  14.202  13.898  15.124  0.1671  0.0058  0.1279
66880DOPE   GL235362  14.455  14.061  15.277 -0.0753 -0.1698  0.0904
66880DOPE   C1A35363  14.093  13.850  15.514  0.1889  0.1692  0.0326
66880DOPE   D2A35364  14.058  13.985  15.871 -0.1594  0.0957  0.1846
66880DOPE   C3A35365  14.141  13.986  16.194  0.2019 -0.0738  0.2965
66880DOPE   C4A35366  14.310  14.048  16.509 -0.2838  0.2452 -0.2314
66880DOPE   C1B35367  14.496  14.144  15.663  0.3157  0.2095 -0.1440
66880DOPE   D2B35368  14.609  14.112  16.085  0.0871 -0.1468 -0.1314
66880DOPE   C3B35369  14.794  13.927  16.481  0.3628  0.1013  0.2185
66880DOPE   C4B35370  14.899  13.769  16.877  0.3681 -0.2134 -0.0962
66881DOPE   NH335371  13.648  16.679  14.853  0.2700  0.0436 -0.0554
66881DOPE   PO435372  13.255  16.494  14.721  0.1498 -0.0472  0.2630
66881DOPE   GL135373  13.349  16.203  15.048 -0.1385 -0.0253  0.1586
66881DOPE   GL235374  13.652  16.302  15.261 -0.3011  0.0622  0.3287
66881DOPE   C1A35375  13.397  15.928  15.388 -0.1353 -0.2921 -0.0258
66881DOPE   D2A35376  13.262  15.563  15.487 -0.1374 -0.1837 -0.1565
66881DOPE   C3A35377  13.425  15.250  15.413  0.0671  0.2664  0.3085
66881DOPE   C4A35378  13.733  14.940  15.602  0.1337  0.3019  0.1434
66881DOPE   C1B35379  13.947  16.255  15.566 -0.2883  0.0380  0.2024
66881DOPE   D2B35380  13.886  16.171  16.005  0.1554 -0.1205  0.1684
66881DOPE   C3B35381  13.838  15.774  16.180 -0.1076  0.1594 -0.3108
66881DOPE   C4B35382  13.916  15.377  16.416 -0.1904  0.2483  0.2079
66882DOPE   NH335383  16.495  18.469  14.419 -0.1258  0.0672  0.2685
66882DOPE   PO435384  16.878  18.325  14.137 -0.3035  0.0469  0.0236
66882DOPE   GL135385  17.060  18.426  14.579  0.0156 -0.0219 -0.0944
66882DOPE   GL235386  16.843  18.558  14.775  0.2583 -0.0069 -0.2800
66882DOPE   C1A35387  17.431  18.314  14.783  0.1507  0.0388 -0.1744
66882DOPE   D2A35388  17.695  18.237  15.068 -0.0847 -0.2473  0.2354
66882DOPE   C3A35389  17.689  18.050  15.473 -0.2047  0.2730 -0.0365
66882DOPE   C4A35390  17.904  18.039  15.880 -0.3208 -0.1019  0.2666
66882DOPE   C1B35391  16.976  18.173  15.008  0.2005 -0.1542 -0.4499
66882DOPE   D2B35392  17.275  18.038  15.223 -0.0001 -0.3143 -0.1551
66882DOPE   C3B35393  17.075  17.882  15.494 -0.1312  0.3299  0.4015
66882DOPE   C4B35394  16.924  17.662  15.874 -0.2824 -0.3616  0.1062
66883DOPE   NH335395   8.066  20.984  15.546  0.2531  0.0505 -0.1124
66883DOPE   PO435396   7.878  21.312  15.243 -0.0178  0.0174  0.0630
66883DOPE   GL135397   7.593  21.192  15.558 -0.1095  0.0167  0.2155
66883DOPE   GL235398   7.615  21.408  15.815 -0.2754 -0.0291 -0.1327
66883DOPE   C1A35399   7.271  20.926  15.745 -0.0599  0.1592  0.2177
66883DOPE   D2A35400   6.911  20.994  16.017  0.0363  0.0560  0.1889
66883DOPE   C3A35401   6.665  21.368  16.118  0.0140  0.0313 -0.2541
66883DOPE   C4A35402   6.407  21.369  16.521  0.0516  0.3224 -0.2497
66883DOPE   C1B35403   7.231  21.418  16.110  0.1286 -0.1622 -0.1673
66883DOPE   D2B35404   6.978  21.322  16.485 -0.1529 -0.0612 -0.0412
66883DOPE   C3B35405   6.784  21.005  16.571 -0.0556  0.4011  0.0409
66883DOPE   C4B35406   6.664  20.637  16.771  0.1445  0.4674 -0.0803
66884DOPE   NH335407  18.029  25.536  13.058 -0.3978 -0.1835 -0.1515
66884DOPE   PO435408  18.041  25.485  12.583 -0.0964 -0.2274  0.2887
66884DOPE   GL135409  18.413  25.653  12.749 -0.0056 -0.1120 -0.0834
66884DOPE   GL235410  18.620  25.857  12.535  0.1309  0.2532 -0.4461
66884DOPE   C1A35411  18.854  25.544  12.832  0.1759  0.1414  0.2891
66884DOPE   D2A35412  19.222  25.768  12.791 -0.1331  0.0965  0.1106
66884DOPE   C3A35413  19.495  26.003  13.060  0.1655 -0.0830  0.1259
66884DOPE   C4A35414  19.800  26.066  13.359  0.1582 -0.1950 -0.0612
66884DOPE   C1B35415  18.576  26.225  12.335 -0.0571  0.0721  0.3446
66884DOPE   D2B35416  18.863  26.474  12.288  0.1050 -0.0682  0.1123
66884DOPE   C3B35417  18.886  26.706  12.522  0.2744 -0.4894 -0.0546
66884DOPE   C4B35418  19.001  26.893  12.825 -0.0263 -0.4344 -0.0665
66885DOPE   NH335419  13.950   9.994  14.688 -0.1875  0.2962  0.0686
66885DOPE   PO435420  14.263   9.972  14.378  0.0805  0.0885  0.0237
66885DOPE   GL135421  14.247   9.621  14.765  0.0506 -0.1933  0.1349
66885DOPE   GL235422  14.027   9.423  14.873  0.1644  0.0850 -0.0405
66885DOPE   C1A35423  14.506   9.524  15.148  0.0011 -0.0708 -0.1452
66885DOPE   D2A35424  14.746   9.547  15.535  0.0684  0.3189 -0.3349
66885DOPE   C3A35425  14.819   9.311  15.860  0.0758  0.0073  0.2127
66885DOPE   C4A35426  14.703   9.369  16.267  0.3958 -0.0851 -0.1891
66885DOPE   C1B35427  14.098   9.207  15.238 -0.1919 -0.0187 -0.0323
66885DOPE   D2B35428  14.305   9.340  15.591 -0.0395  0.1238  0.1934
66885DOPE   C3B35429  14.338   9.173  15.966 -0.1164  0.3179  0.0613
66885DOPE   C4B35430  14.225   9.313  16.312  0.0510 -0.3295 -0.1129
66886DOPE   NH335431   8.925  23.116  17.718 -0.0295  0.1450  0.0039
66886DOPE   PO435432   8.918  23.518  17.713 -0.1161 -0.0314  0.0140
66886DOPE   GL135433   8.565  23.463  17.853 -0.2597  0.2287 -0.0505
66886DOPE   GL235434   8.570  23.218  18.083  0.0344  0.0013 -0.1141
66886DOPE   C1A35435   8.168  23.519  18.091  0.1125 -0.4358 -0.0047
66886DOPE   D2A35436   8.060  23.301  18.424 -0.0389 -0.1008  0.3120
66886DOPE   C3A35437   8.097  23.339  18.840  0.3143 -0.0540 -0.0809
66886DOPE   C4A35438   8.258  23.524  19.265 -0.1562  0.0254 -0.0014
66886DOPE   C1B35439   8.597  22.890  18.306 -0.1755  0.0200 -0.1168
66886DOPE   D2B35440   8.377  22.955  18.592  0.1017  0.0759  0.2950
66886DOPE   C3B35441   8.139  22.802  18.936  0.0035  0.1492  0.3011
66886DOPE   C4B35442   7.893  22.951  19.234  0.0331  0.1160 -0.0046
66887DOPE   NH335443   4.437  27.566  13.358  0.0660 -0.1291  0.0233
66887DOPE   PO435444   4.334  27.788  13.664  0.0595  0.0796 -0.3212
66887DOPE   GL135445   4.220  27.580  14.080 -0.0136 -0.1279 -0.3008
66887DOPE   GL235446   4.137  27.755  14.406 -0.0597 -0.1232 -0.0889
66887DOPE   C1A35447   3.910  27.257  14.355  0.2000  0.2402  0.0974
66887DOPE   D2A35448   3.574  27.213  14.534  0.1005  0.0720 -0.1544
66887DOPE   C3A35449   3.303  26.859  14.495  0.1200 -0.1988 -0.2689
66887DOPE   C4A35450   3.236  26.723  14.868  0.2235  0.1570 -0.3855
66887DOPE   C1B35451   3.893  27.576  14.699 -0.1671 -0.0064 -0.1047
66887DOPE   D2B35452   3.730  27.576  14.991 -0.0605  0.4276  0.1390
66887DOPE   C3B35453   3.352  27.432  14.998  0.0296  0.0976  0.2007
66887DOPE   C4B35454   2.961  27.537  15.201 -0.1057  0.1277 -0.1147
66888DOPE   NH335455  11.172  29.591  17.468  0.2183 -0.0381 -0.1844
66888DOPE   PO435456  10.779  29.432  17.535  0.0860  0.0203  0.2001
66888DOPE   GL135457  10.821  29.593  17.909 -0.2538 -0.0780 -0.3723
66888DOPE   GL235458  11.151  29.773  17.975  0.1550 -0.2082 -0.2752
66888DOPE   C1A35459  10.645  29.565  18.495 -0.0028 -0.1313  0.1466
66888DOPE   D2A35460  10.586  29.593  18.916 -0.0695  0.1506  0.3692
66888DOPE   C3A35461  10.909  29.549  19.141 -0.1408  0.1273  0.0695
66888DOPE   C4A35462  11.010  29.161  19.355  0.0335 -0.0859  0.0785
66888DOPE   C1B35463  11.125  29.519  18.240 -0.2440  0.2191 -0.0990
66888DOPE   D2B35464  11.065  29.386  18.708  0.4192  0.0074 -0.0700
66888DOPE   C3B35465  11.350  29.435  19.064 -0.0100  0.2712  0.2286
66888DOPE   C4B35466  11.370  29.509  19.432  0.1381  0.2853 -0.0418
66889DOPE   NH335467  17.417  26.132  12.772  0.0409 -0.0672  0.1730
66889DOPE   PO435468  17.434  26.519  12.542 -0.2852 -0.2971 -0.0460
66889DOPE   GL135469  17.740  26.722  12.813  0.0283 -0.1161 -0.2902
66889DOPE   GL235470  17.873  26.436  12.926  0.0921  0.2026 -0.2708
66889DOPE   C1A35471  17.950  27.034  12.748 -0.0259 -0.1733 -0.1406
66889DOPE   D2A35472  18.278  27.146  12.619 -0.0397 -0.2413  0.4414
66889DOPE   C3A35473  18.571  27.230  12.899 -0.0650  0.0596  0.4131
66889DOPE   C4A35474  18.844  27.599  12.784 -0.2360 -0.0007 -0.1615
66889DOPE   C1B35475  18.146  26.822  13.149 -0.1857 -0.1901 -0.1506
66889DOPE   D2B35476  18.414  27.022  13.418  0.2896 -0.2313 -0.1888
66889DOPE   C3B35477  18.792  26.983  13.243  0.0088  0.0488  0.2205
66889DOPE   C4B35478  19.016  27.317  13.122  0.1433  0.2256 -0.2243
66890DOPE   NH335479   8.426   9.838  13.823  0.3822  0.1939 -0.1015
66890DOPE   PO435480   8.668   9.595  14.075  0.1713  0.3474  0.0773
66890DOPE   GL135481   8.772   9.625  14.507  0.0625  0.0878  0.1447
66890DOPE   GL235482   8.597   9.310  14.464  0.1565 -0.1544  0.0947
66890DOPE   C1A35483   8.605   9.931  14.792  0.0874 -0.0551  0.0273
66890DOPE   D2A35484   8.447   9.958  15.180 -0.1940 -0.1297  0.0391
66890DOPE   C3A35485   8.194   9.644  15.210 -0.0802 -0.0625 -0.0492
66890DOPE   C4A35486   8.034   9.371  14.855  0.1323  0.1417  0.1008
66890DOPE   C1B35487   8.494   9.403  14.916 -0.1054  0.2933 -0.1244
66890DOPE   D2B35488   8.498   9.257  15.300 -0.0124  0.0810 -0.1615
66890DOPE   C3B35489   8.417   9.599  15.726  0.0019  0.2379  0.5360
66890DOPE   C4B35490   8.483   9.546  16.072  0.1149  0.0100  0.1103
66891DOPE   NH335491  17.732   7.077  13.306 -0.0094  0.0659  0.1625
66891DOPE   PO435492  17.837   6.646  13.094 -0.0922 -0.0515 -0.7152
66891DOPE   GL135493  17.924   6.644  13.570  0.1006  0.0271 -0.1468
66891DOPE   GL235494  17.626   6.504  13.665 -0.0895 -0.0625  0.2940
66891DOPE   C1A35495  18.010   6.502  13.993  0.1331  0.1686 -0.1178
66891DOPE   D2A35496  18.331   6.406  14.300 -0.2980 -0.0324 -0.4935
66891DOPE   C3A35497  18.493   6.492  14.703 -0.1800 -0.3270 -0.0409
66891DOPE   C4A35498  18.620   6.673  15.121 -0.1961 -0.1584  0.2408
66891DOPE   C1B35499  17.503   6.344  13.955  0.0242  0.0157 -0.0462
66891DOPE   D2B35500  17.700   6.275  14.260 -0.1551 -0.0404  0.1468
66891DOPE   C3B35501  17.887   5.902  14.527 -0.1177 -0.1074  0.0665
66891DOPE   C4B35502  18.123   5.594  14.780 -0.0400 -0.2758 -0.2931
66892DOPE   NH335503   1.661  22.009   3.676 -0.0026  0.1843  0.0443
66892DOPE   PO435504   2.034  21.832   3.939 -0.0376 -0.3685  0.0634
66892DOPE   GL135505   1.660  21.657   4.160 -0.0955  0.1042 -0.3046
66892DOPE   GL235506   1.483  21.372   4.031 -0.1397 -0.4100  0.3014
66892DOPE   C1A35507   1.613  21.594   4.544 -0.1808 -0.0047  0.0942
66892DOPE   D2A35508   1.398  21.415   4.921  0.2960  0.1476  0.0001
66892DOPE   C3A35509   1.070  21.544   5.030  0.1227  0.1095 -0.4457
66892DOPE   C4A35510   0.820  21.758   5.228  0.3167  0.2402 -0.1048
66892DOPE   C1B35511   1.225  21.269   4.366  0.2210  0.4038  0.1619
66892DOPE   D2B35512   0.941  21.100   4.742 -0.3622 -0.1182  0.1575
66892DOPE   C3B35513   0.582  20.835   4.709 -0.0074  0.0346  0.1732
66892DOPE   C4B35514   0.491  20.434   4.790  0.3172  0.1635 -0.4175
66893DOPE   NH335515   4.652   8.855   9.166  0.1322  0.0130  0.1260
66893DOPE   PO435516   4.647   9.326   9.097 -0.1207 -0.2422  0.0007
66893DOPE   GL135517   4.240   9.137   9.177 -0.0115  0.0370 -0.2306
66893DOPE   GL235518   4.271   9.152   9.537  0.2766 -0.1682 -0.1366
66893DOPE   C1A35519   3.878   9.402   9.237  0.0897 -0.1554  0.1458
66893DOPE   D2A35520   3.624   9.726   9.351  0.0945  0.1240  0.3133
66893DOPE   C3A35521   3.384   9.581   9.631  0.1430  0.0060 -0.0074
66893DOPE   C4A35522   3.050   9.663   9.958  0.2023  0.0745  0.1402
66893DOPE   C1B35523   3.940   9.188   9.861  0.1238  0.1072 -0.0264
66893DOPE   D2B35524   3.585   9.264  10.108  0.0590 -0.1454  0.0833
66893DOPE   C3B35525   3.196   9.190  10.034  0.2463 -0.0755  0.1959
66893DOPE   C4B35526   2.931   9.321  10.321 -0.3225  0.3901  0.0547
66894DOPE   NH335527   8.652  34.238  16.249 -0.0019 -0.0314 -0.1119
66894DOPE   PO435528   8.327  34.345  16.011 -0.0538  0.1091 -0.0294
66894DOPE   GL135529   8.170  34.197  16.363 -0.1275 -0.0167 -0.0296
66894DOPE   GL235530   7.941  33.991  16.379  0.1101 -0.0358  0.0089
66894DOPE   C1A35531   8.112  34.262  16.730 -0.1568  0.0439 -0.2518
66894DOPE   D2A35532   8.179  34.376  17.095 -0.2306  0.0651 -0.0460
66894DOPE   C3A35533   8.083  34.405  17.478 -0.5688 -0.0674 -0.2120
66894DOPE   C4A35534   7.901  34.301  17.773 -0.0318  0.1037  0.0531
66894DOPE   C1B35535   7.704  33.825  16.696  0.0745 -0.2043 -0.0142
66894DOPE   D2B35536   7.537  33.796  16.981  0.2385  0.4706  0.1534
66894DOPE   C3B35537   7.307  34.038  17.255  0.1555 -0.1700  0.1854
66894DOPE   C4B35538   7.225  34.047  17.620  0.0907 -0.3764 -0.1321
66895DOPE   NH335539   6.381  27.871  16.158  0.1628 -0.4934  0.1540
66895DOPE   PO435540   6.647  27.450  16.116  0.0768 -0.0539  0.1231
66895DOPE   GL135541   6.357  27.360  16.375 -0.2407 -0.1700  0.1922
66895DOPE   GL235542   6.422  27.527  16.603 -0.1310 -0.0613  0.4572
66895DOPE   C1A35543   5.993  27.045  16.660  0.2644  0.0750  0.1207
66895DOPE   D2A35544   5.554  26.827  16.736  0.2014 -0.1472  0.2223
66895DOPE   C3A35545   5.427  26.775  17.098 -0.0471  0.4426 -0.3226
66895DOPE   C4A35546   5.384  26.732  17.572 -0.1072 -0.1473 -0.0040
66895DOPE   C1B35547   6.343  27.610  17.058 -0.3032  0.1060 -0.0512
66895DOPE   D2B35548   6.149  27.450  17.315  0.0646 -0.1526 -0.2436
66895DOPE   C3B35549   6.054  27.551  17.599 -0.3442  0.1482 -0.2315
66895DOPE   C4B35550   5.855  27.384  17.901  0.1391 -0.1309 -0.0045
66896DOPE   NH335551  28.128   8.791   1.973  0.2507 -0.0469 -0.0429
66896DOPE   PO435552  28.475   8.573   2.100 -0.1625  0.0978 -0.0786
66896DOPE   GL135553  28.774   8.957   2.258  0.2399  0.1749 -0.1418
66896DOPE   GL235554  29.031   8.902   2.402 -0.0060 -0.2250 -0.0259
66896DOPE   C1A35555  29.049   9.377   2.245 -0.1963 -0.3347 -0.3119
66896DOPE   D2A35556  29.142   9.789   2.458 -0.1565 -0.0304 -0.3138
66896DOPE   C3A35557  29.014  10.085   2.674  0.0767 -0.0505 -0.3495
66896DOPE   C4A35558  28.708  10.372   2.950 -0.0026 -0.2707 -0.0508
66896DOPE   C1B35559  29.197   9.350   2.738  0.2265  0.2205 -0.0272
66896DOPE   D2B35560  29.121   9.696   3.119  0.3546 -0.3358 -0.0266
66896DOPE   C3B35561  29.495   9.698   3.248 -0.0501  0.2261  0.4293
66896DOPE   C4B35562  29.845   9.891   3.409 -0.1227  0.1021 -0.5232
66897DOPE   NH335563  15.081  27.890  16.761 -0.0716 -0.0706 -0.2463
66897DOPE   PO435564  14.940  28.319  16.628  0.0102  0.2137  0.1575
66897DOPE   GL135565  14.902  28.533  16.955 -0.4856  0.1174 -0.0281
66897DOPE   GL235566  15.107  28.258  17.125 -0.0750  0.1817  0.2006
66897DOPE   C1A35567  15.026  28.834  17.200 -0.0468  0.3122  0.0136
66897DOPE   D2A35568  15.328  28.950  17.507  0.0435 -0.1007 -0.2798
66897DOPE   C3A35569  15.313  28.889  17.936  0.0445 -0.0839 -0.0340
66897DOPE   C4A35570  15.364  28.973  18.406  0.0408 -0.1258 -0.1061
66897DOPE   C1B35571  15.489  28.529  17.194  0.0611 -0.0792  0.0196
66897DOPE   D2B35572  15.731  28.665  17.543  0.1230 -0.2453  0.0562
66897DOPE   C3B35573  16.121  28.694  17.376 -0.0200 -0.0528 -0.0999
66897DOPE   C4B35574  16.456  28.963  17.512 -0.0731  0.3146  0.3497
66898DOPE   NH335575   8.025   9.664  13.414 -0.2494  0.2956  0.0875
66898DOPE   PO435576   7.938  10.058  13.543 -0.1154  0.0169 -0.3170
66898DOPE   GL135577   7.899  10.354  13.959 -0.0965  0.1501  0.3454
66898DOPE   GL235578   8.125  10.198  14.072  0.0750 -0.2736 -0.4059
66898DOPE   C1A35579   7.720  10.565  14.213  0.3012 -0.2079  0.1479
66898DOPE   D2A35580   7.523  10.715  14.558 -0.0909  0.1604  0.0409
66898DOPE   C3A35581   7.659  10.662  14.884 -0.0659 -0.0396 -0.4848
66898DOPE   C4A35582   7.794  10.743  15.251  0.0505  0.2067  0.0424
66898DOPE   C1B35583   8.203  10.215  14.347 -0.1752 -0.2460  0.4034
66898DOPE   D2B35584   8.018  10.500  14.645 -0.0593 -0.0270  0.3571
66898DOPE   C3B35585   8.110  10.873  14.866  0.2102 -0.0008  0.1718
66898DOPE   C4B35586   8.114  11.238  15.166  0.2670  0.1376 -0.0133
66899DOPE   NH335587  20.670  20.753   9.376  0.1232  0.0571 -0.0174
66899DOPE   PO435588  20.588  21.137   9.527 -0.0684  0.0292 -0.0225
66899DOPE   GL135589  21.023  21.081   9.777 -0.0541  0.0397  0.0472
66899DOPE   GL235590  21.057  20.875   9.667  0.2452 -0.0696  0.0685
66899DOPE   C1A35591  21.173  20.955  10.156  0.0110 -0.1410 -0.0160
66899DOPE   D2A35592  21.495  20.959  10.435  0.2657 -0.2648 -0.0849
66899DOPE   C3A35593  21.611  21.124  10.795 -0.0190  0.0530 -0.1464
66899DOPE   C4A35594  21.808  21.315  11.198  0.2298 -0.1251 -0.2177
66899DOPE   C1B35595  21.537  20.893   9.831  0.1996 -0.0616  0.3802
66899DOPE   D2B35596  21.912  20.913  10.013  0.2291 -0.0539  0.1203
66899DOPE   C3B35597  22.053  20.737   9.692 -0.0367 -0.1876 -0.1334
66899DOPE   C4B35598  22.100  20.641   9.289  0.1982 -0.0245  0.1135
66900DOPE   NH335599  15.870  12.888  14.331  0.0512 -0.0015 -0.0586
66900DOPE   PO435600  16.161  12.669  14.144 -0.0235 -0.1043  0.2707
66900DOPE   GL135601  16.485  12.684  14.484  0.1487  0.0465  0.0555
66900DOPE   GL235602  16.697  13.008  14.371  0.2494 -0.0886 -0.0337
66900DOPE   C1A35603  16.800  12.642  14.776  0.2006  0.0116  0.0963
66900DOPE   D2A35604  17.080  12.756  15.099  0.0761  0.1096 -0.0149
66900DOPE   C3A35605  17.394  12.664  15.418  0.0134 -0.0119  0.1017
66900DOPE   C4A35606  17.561  12.652  15.799  0.0410 -0.1320 -0.1822
66900DOPE   C1B35607  16.937  13.100  14.596  0.0316  0.2126 -0.1474
66900DOPE   D2B35608  17.309  13.089  14.760  0.0215  0.0265 -0.1054
66900DOPE   C3B35609  17.656  12.800  15.031  0.1873  0.0132  0.0266
66900DOPE   C4B35610  17.954  12.705  15.339 -0.1002  0.3748  0.1870
66901DOPE   NH335611  19.144  23.393  12.916  0.0474 -0.3506 -0.1415
66901DOPE   PO435612  19.224  23.077  12.796 -0.1339  0.3744  0.0448
66901DOPE   GL135613  19.330  22.965  13.111 -0.1568 -0.1602 -0.0770
66901DOPE   GL235614  19.170  23.065  13.353  0.3150  0.1417 -0.2545
66901DOPE   C1A35615  19.705  22.702  13.301  0.0964 -0.0075 -0.1665
66901DOPE   D2A35616  20.184  22.674  13.411 -0.1398 -0.0544  0.2421
66901DOPE   C3A35617  20.375  22.325  13.498 -0.0726 -0.0481  0.0090
66901DOPE   C4A35618  20.512  22.008  13.779  0.2086  0.0046 -0.0227
66901DOPE   C1B35619  19.508  23.140  13.590  0.0869 -0.1264  0.0740
66901DOPE   D2B35620  19.641  23.083  13.892  0.1446 -0.1965 -0.0682
66901DOPE   C3B35621  19.938  22.703  13.875  0.3018 -0.3114 -0.1715
66901DOPE   C4B35622  20.072  22.375  13.888  0.4164  0.1412  0.1261
66902DOPE   NH335623   7.040   4.401  13.879 -0.0561 -0.0121  0.0277
66902DOPE   PO435624   7.107   3.968  14.128  0.1747 -0.2469  0.3370
66902DOPE   GL135625   6.778   3.845  13.996  0.0335  0.0780  0.1431
66902DOPE   GL235626   6.669   4.046  13.761  0.3962 -0.3530  0.0298
66902DOPE   C1A35627   6.421   3.982  14.211 -0.1742  0.0607  0.3427
66902DOPE   D2A35628   5.976   4.056  14.247 -0.2703  0.1029 -0.1438
66902DOPE   C3A35629   5.748   4.082  14.693  0.3099  0.0915  0.1224
66902DOPE   C4A35630   5.305   4.021  14.706 -0.1635 -0.1364 -0.1670
66902DOPE   C1B35631   6.269   3.880  13.758  0.0606  0.0133  0.2170
66902DOPE   D2B35632   5.825   3.910  13.783 -0.0555 -0.0975  0.2336
66902DOPE   C3B35633   5.473   3.624  13.732  0.0764  0.2200  0.2100
66902DOPE   C4B35634   5.028   3.648  13.849  0.5111 -0.1091  0.1706
66903DOPE   NH335635  24.625  32.425   6.278 -0.3611 -0.1467 -0.1796
66903DOPE   PO435636  24.278  32.226   6.289  0.0482 -0.2725 -0.2076
66903DOPE   GL135637  24.360  32.496   6.729  0.0254 -0.0602 -0.0487
66903DOPE   GL235638  24.098  32.458   6.805 -0.0973  0.3026  0.1223
66903DOPE   C1A35639  24.605  32.331   7.099  0.0069  0.2969  0.4199
66903DOPE   D2A35640  24.784  32.324   7.422 -0.0084  0.2010 -0.5485
66903DOPE   C3A35641  25.126  32.401   7.582  0.4060 -0.2879  0.1179
66903DOPE   C4A35642  25.386  32.541   7.876 -0.2665 -0.3192 -0.3082
66903DOPE   C1B35643  24.075  32.386   7.198  0.0374 -0.2602  0.0258
66903DOPE   D2B35644  23.876  32.415   7.594 -0.1752  0.0806 -0.0303
66903DOPE   C3B35645  24.106  32.427   7.947  0.3911 -0.1239 -0.4055
66903DOPE   C4B35646  24.418  32.438   8.203 -0.1120 -0.0625  0.1607
66904DOPE   NH335647   2.134  33.309  11.174 -0.1225 -0.0182  0.3398
66904DOPE   PO435648   2.379  33.202  11.492 -0.0932 -0.0410  0.1561
66904DOPE   GL135649   2.105  33.230  11.756 -0.1395  0.1542  0.1344
66904DOPE   GL235650   2.080  33.033  11.949  0.2537 -0.0525 -0.2063
66904DOPE   C1A35651   1.748  33.398  11.704  0.0305 -0.1632  0.0464
66904DOPE   D2A35652   1.484  33.676  11.945 -0.2243  0.0814 -0.1309
66904DOPE   C3A35653   1.110  33.622  11.932 -0.1787  0.1236  0.0342
66904DOPE   C4A35654   0.743  33.764  11.766 -0.0087 -0.2184 -0.0399
66904DOPE   C1B35655   1.674  33.282  12.208 -0.0088  0.2474 -0.0287
66904DOPE   D2B35656   1.256  33.308  12.329  0.1791  0.3537 -0.2340
66904DOPE   C3B35657   0.969  33.169  12.539  0.1236 -0.0250 -0.0450
66904DOPE   C4B35658   0.528  33.158  12.484 -0.0549 -0.0608  0.0360
66905DOPE   NH335659  23.395   2.364   7.831 -0.1904  0.0718  0.3318
66905DOPE   PO435660  23.268   1.897   7.935  0.1499  0.3491  0.0291
66905DOPE   GL135661  23.201   2.124   8.258 -0.1456  0.0590  0.1338
66905DOPE   GL235662  22.922   2.018   8.437  0.0304  0.1972  0.0474
66905DOPE   C1A35663  23.480   2.180   8.531  0.0053 -0.0798  0.2794
66905DOPE   D2A35664  23.674   2.138   8.913 -0.1617  0.2437  0.0994
66905DOPE   C3A35665  23.501   2.017   9.253 -0.0408 -0.4526  0.0114
66905DOPE   C4A35666  23.383   1.949   9.595  0.0851  0.2136  0.1283
66905DOPE   C1B35667  23.070   2.093   8.817  0.0042  0.0031  0.0663
66905DOPE   D2B35668  23.080   2.327   9.101  0.1013  0.3858 -0.0141
66905DOPE   C3B35669  23.248   2.411   9.453 -0.2644  0.1367 -0.2796
66905DOPE   C4B35670  23.353   2.418   9.903 -0.1669 -0.0091  0.0321
66906DOPE   NH335671   4.915  30.661  14.313  0.3551  0.1235  0.1472
66906DOPE   PO435672   4.914  31.050  14.153  0.2625  0.4243  0.1815
66906DOPE   GL135673   4.480  31.084  14.308 -0.0004 -0.0331 -0.2288
66906DOPE   GL235674   4.326  31.323  14.128  0.3051 -0.0579 -0.0026
66906DOPE   C1A35675   4.268  31.204  14.632  0.2067 -0.2261 -0.3788
66906DOPE   D2A35676   4.088  31.512  14.847  0.0356  0.1564 -0.1886
66906DOPE   C3A35677   3.792  31.341  15.059 -0.0195 -0.2045 -0.1666
66906DOPE   C4A35678   3.522  31.513  15.413  0.1284  0.1111 -0.1545
66906DOPE   C1B35679   3.941  31.525  13.877  0.3374 -0.1933  0.0367
66906DOPE   D2B35680   3.535  31.647  14.113  0.2639 -0.0341  0.3753
66906DOPE   C3B35681   3.400  31.651  14.495  0.0155  0.0857 -0.1606
66906DOPE   C4B35682   3.468  31.784  15.040 -0.0189 -0.0229  0.0093
66907DOPE   NH335683   5.127  15.532   7.738 -0.0765  0.1425  0.0095
66907DOPE   PO435684   4.714  15.690   7.949 -0.0698 -0.1398  0.1063
66907DOPE   GL135685   4.386  15.696   8.101  0.2305  0.0577  0.2645
66907DOPE   GL235686   4.244  16.115   8.107 -0.0355 -0.3439 -0.1570
66907DOPE   C1A35687   3.996  15.643   8.270  0.0663 -0.1709  0.4195
66907DOPE   D2A35688   3.652  15.616   8.537 -0.0917  0.0412  0.1333
66907DOPE   C3A35689   3.272  15.527   8.457  0.1017 -0.0873  0.1228
66907DOPE   C4A35690   3.024  15.765   8.289 -0.2231  0.0726  0.0691
66907DOPE   C1B35691   3.797  16.082   8.350 -0.1980 -0.1222  0.1517
66907DOPE   D2B35692   3.460  16.083   8.537  0.0778  0.0470  0.0648
66907DOPE   C3B35693   3.422  16.534   8.858  0.1285 -0.0316  0.1504
66907DOPE   C4B35694   3.189  16.866   8.787  0.2921  0.5160  0.0006
66908DOPE   NH335695  32.896  13.227   0.860  0.2665 -0.3006  0.1301
66908DOPE   PO435696  33.161  13.311   1.222 -0.3304 -0.0131 -0.0680
66908DOPE   GL135697  32.728  13.308   1.355  0.1616  0.2520 -0.1886
66908DOPE   GL235698  32.494  13.183   1.189  0.0091 -0.2047  0.3891
66908DOPE   C1A35699  32.708  13.180   1.721 -0.0909  0.2950  0.1172
66908DOPE   D2A35700  32.637  13.017   2.126  0.2878 -0.0576  0.1798
66908DOPE   C3A35701  32.425  13.365   2.220 -0.0995  0.2977  0.3663
66908DOPE   C4A35702  32.371  13.670   2.522 -0.0490  0.0136 -0.3260
66908DOPE   C1B35703  32.294  13.012   1.683  0.1685 -0.0033  0.0083
66908DOPE   D2B35704  32.068  12.985   2.117 -0.1332  0.0329 -0.1046
66908DOPE   C3B35705  31.677  13.028   2.349  0.1958  0.1965 -0.0321
66908DOPE   C4B35706  31.204  13.004   2.456 -0.1570 -0.2981  0.3523
66909DOPE   NH335707   7.735  24.127  16.693  0.2313 -0.2130 -0.1443
66909DOPE   PO435708   7.510  24.171  16.301 -0.1887  0.0787  0.2695
66909DOPE   GL135709   7.115  24.440  16.507 -0.0488  0.1782  0.1294
66909DOPE   GL235710   6.946  24.144  16.481 -0.0955  0.1906 -0.0452
66909DOPE   C1A35711   6.689  24.510  16.762 -0.5097  0.1957 -0.0679
66909DOPE   D2A35712   6.308  24.479  16.865  0.2825  0.0844  0.0687
66909DOPE   C3A35713   6.417  24.180  17.037 -0.1220  0.0659  0.1170
66909DOPE   C4A35714   6.147  23.885  17.205 -0.1260  0.1237  0.6508
66909DOPE   C1B35715   6.616  24.052  16.577 -0.3116  0.0835 -0.5201
66909DOPE   D2B35716   6.300  23.848  16.612 -0.0589 -0.1216 -0.1310
66909DOPE   C3B35717   5.983  24.141  16.723  0.1586  0.1621 -0.1692
66909DOPE   C4B35718   5.870  24.307  17.129 -0.1590 -0.1912 -0.0142
66910DOPE   NH335719  12.564  20.438  16.348  0.0295  0.1001  0.0575
66910DOPE   PO435720  13.020  20.348  16.409  0.1519  0.1243 -0.2870
66910DOPE   GL135721  13.335  20.565  16.739  0.4406 -0.1063  0.0440
66910DOPE   GL235722  13.205  20.608  17.051 -0.1348  0.2227  0.0852
66910DOPE   C1A35723  13.601  20.386  17.174  0.0446 -0.0702  0.0746
66910DOPE   D2A35724  13.599  20.212  17.571  0.0228 -0.0704  0.1718
66910DOPE   C3A35725  13.526  20.001  17.966  0.3020  0.1557  0.1572
66910DOPE   C4A35726  13.565  19.857  18.454  0.1410  0.0345 -0.3078
66910DOPE   C1B35727  13.369  20.695  17.482 -0.0090  0.4739  0.2461
66910DOPE   D2B35728  13.394  20.496  17.896  0.1717  0.0089 -0.2171
66910DOPE   C3B35729  13.592  20.362  18.269 -0.0310 -0.0023  0.0616
66910DOPE   C4B35730  13.448  20.227  18.767 -0.2021  0.0126  0.2501
66911DOPE   NH335731  27.922   3.261   5.960 -0.1049  0.0994  0.1062
66911DOPE   PO435732  28.140   3.682   5.771  0.1345 -0.0240 -0.0195
66911DOPE   GL135733  27.768   3.838   6.009 -0.0118  0.2213 -0.2269
66911DOPE   GL235734  27.631   4.076   5.990  0.0520  0.0450  0.3492
66911DOPE   C1A35735  27.644   3.856   6.446 -0.0884 -0.1887 -0.0394
66911DOPE   D2A35736  27.684   3.887   6.849 -0.1813 -0.0452 -0.2517
66911DOPE   C3A35737  27.735   4.211   7.215 -0.2700  0.0447  0.0745
66911DOPE   C4A35738  27.967   4.632   7.319 -0.0632 -0.1433  0.2656
66911DOPE   C1B35739  27.792   4.313   6.375  0.0827  0.0909  0.0858
66911DOPE   D2B35740  27.827   4.448   6.781  0.0439 -0.0345 -0.1450
66911DOPE   C3B35741  27.990   4.858   6.908  0.3447 -0.1617 -0.0583
66911DOPE   C4B35742  28.283   5.173   6.952 -0.2262  0.2667  0.3370
66912DOPE   NH335743  15.454   3.498  12.698  0.0979 -0.3364 -0.3762
66912DOPE   PO435744  15.073   3.811  12.792  0.0965 -0.0491  0.0483
66912DOPE   GL135745  15.167   3.851  13.210  0.2316  0.0747  0.0596
66912DOPE   GL235746  15.519   3.807  13.147  0.4316 -0.2231  0.3996
66912DOPE   C1A35747  15.016   3.840  13.705 -0.0407  0.1889  0.0355
66912DOPE   D2A35748  14.864   3.907  14.107  0.1273 -0.0586 -0.0135
66912DOPE   C3A35749  15.120   3.933  14.551 -0.3682 -0.3116  0.2637
66912DOPE   C4A35750  15.398   4.116  14.852  0.1934  0.1775  0.2072
66912DOPE   C1B35751  15.624   3.595  13.462  0.3636 -0.3037 -0.0805
66912DOPE   D2B35752  15.750   3.305  13.600 -0.2433  0.1428  0.2253
66912DOPE   C3B35753  15.929   3.027  13.393  0.0751  0.0799  0.4139
66912DOPE   C4B35754  16.179   2.887  13.150 -0.0412  0.0863 -0.1442
66913DOPE   NH335755   1.186  31.508   9.529  0.0093 -0.1897 -0.2882
66913DOPE   PO435756   1.265  31.058   9.632  0.1516  0.0172  0.0764
66913DOPE   GL135757   0.879  30.893   9.737  0.1132  0.4604  0.0382
66913DOPE   GL235758   0.710  31.197   9.721 -0.2516  0.0008 -0.1938
66913DOPE   C1A35759   0.561  30.687   9.978  0.3857  0.2403  0.1226
66913DOPE   D2A35760   0.162  30.748  10.160  0.2300 -0.1790 -0.2104
66913DOPE   C3A35761   0.163  30.738  10.559  0.1195 -0.3844  0.2314
66913DOPE   C4A35762  35.265  30.533  10.803  0.1804 -0.1361 -0.0431
66913DOPE   C1B35763   0.406  31.422   9.877  0.2800 -0.1558 -0.1929
66913DOPE   D2B35764   0.170  31.669  10.172 -0.0815 -0.0665  0.4966
66913DOPE   C3B35765  35.194  31.441  10.372 -0.2987  0.0564  0.1575
66913DOPE   C4B35766  34.685  31.292  10.278  0.2476  0.1256  0.2029
66914DOPE   NH335767   0.224  25.242   4.093 -0.0450  0.3630 -0.0115
66914DOPE   PO435768   0.108  25.035   3.799  0.1767 -0.0273 -0.0067
66914DOPE   GL135769  35.229  24.819   4.036  0.0051  0.0985 -0.0551
66914DOPE   GL235770  35.284  24.864   4.372 -0.0819 -0.0059  0.2890
66914DOPE   C1A35771  34.904  24.566   4.081 -0.1992 -0.0897 -0.1483
66914DOPE   D2A35772  34.645  24.529   4.370  0.0482 -0.0016 -0.0825
66914DOPE   C3A35773  34.257  24.663   4.409  0.1194 -0.1347 -0.2948
66914DOPE   C4A35774  33.854  24.751   4.595 -0.1184 -0.1988  0.1619
66914DOPE   C1B35775  35.113  24.513   4.607 -0.1394 -0.0516  0.2563
66914DOPE   D2B35776  34.772  24.465   4.838 -0.2053 -0.0693  0.0341
66914DOPE   C3B35777  34.632  24.275   5.135  0.2908  0.0284 -0.1777
66914DOPE   C4B35778  34.660  24.140   5.532 -0.1020 -0.3461 -0.0854
66915DOPE   NH335779   7.539  19.229  13.605 -0.0092 -0.1016  0.0692
66915DOPE   PO435780   7.542  19.449  13.938  0.0501 -0.2318 -0.0490
66915DOPE   GL135781   7.215  19.646  14.104  0.0793  0.1420 -0.3848
66915DOPE   GL235782   7.203  19.487  14.425  0.2279 -0.4778 -0.2193
66915DOPE   C1A35783   6.769  19.633  14.070 -0.4654  0.1350  0.2285
66915DOPE   D2A35784   6.404  19.385  14.070  0.1229 -0.0221 -0.0809
66915DOPE   C3A35785   6.108  19.273  14.394 -0.2740 -0.2279 -0.0399
66915DOPE   C4A35786   5.720  19.360  14.595  0.0186  0.0077  0.0480
66915DOPE   C1B35787   6.969  19.408  14.794 -0.1016 -0.0571 -0.0728
66915DOPE   D2B35788   6.752  19.421  15.140  0.3441 -0.0932 -0.0001
66915DOPE   C3B35789   6.298  19.242  14.939  0.0522 -0.2537 -0.0877
66915DOPE   C4B35790   5.901  19.070  15.106  0.1214  0.3174 -0.2549
66916DOPE   NH335791   8.584  30.472  16.619  0.0148 -0.0533 -0.0302
66916DOPE   PO435792   8.193  30.400  16.620 -0.2135  0.1928  0.1379
66916DOPE   GL135793   7.993  30.430  17.009 -0.0936  0.1455  0.1293
66916DOPE   GL235794   8.000  30.116  17.305 -0.0516  0.2919  0.0412
66916DOPE   C1A35795   7.836  30.645  17.460  0.0743 -0.2142  0.0389
66916DOPE   D2A35796   7.649  30.694  17.857  0.0272 -0.3555 -0.1666
66916DOPE   C3A35797   7.758  30.460  18.231  0.0749  0.1916  0.2170
66916DOPE   C4A35798   7.406  30.194  18.313  0.1179  0.0114 -0.1002
66916DOPE   C1B35799   7.970  29.835  17.520  0.0167 -0.1068 -0.1866
66916DOPE   D2B35800   7.979  29.585  17.802  0.2479 -0.1815 -0.0458
66916DOPE   C3B35801   8.195  29.379  18.027 -0.1797 -0.2285 -0.1323
66916DOPE   C4B35802   8.545  29.041  18.207 -0.0578  0.1808  0.1016
66917PAPE   NH335803  28.255   1.606   5.994  0.1763  0.1043 -0.0375
66917PAPE   PO435804  28.539   2.025   6.186  0.3065  0.0848  0.1084
66917PAPE   GL135805  28.760   1.966   6.607  0.2558 -0.2946 -0.1492
66917PAPE   GL235806  29.037   2.218   6.794  0.1132 -0.0468  0.4452
66917PAPE   D1A35807  28.681   1.590   6.797 -0.0703 -0.1221  0.1435
66917PAPE   D2A35808  28.406   1.769   7.126 -0.0040  0.1884  0.1668
66917PAPE   D3A35809  28.582   1.432   7.274 -0.1660  0.1622 -0.1382
66917PAPE   D4A35810  28.720   1.691   7.522  0.1442 -0.0417  0.1501
66917PAPE   C5A35811  28.583   1.711   7.994  0.0259 -0.1293  0.0972
66917PAPE   C1B35812  29.255   2.489   7.115 -0.1369  0.2741 -0.0415
66917PAPE   C2B35813  29.162   2.642   7.438 -0.0881 -0.2019 -0.0628
66917PAPE   C3B35814  29.279   2.638   7.806  0.0091 -0.2951 -0.1087
66917PAPE   C4B35815  29.249   2.845   8.238 -0.2717  0.0062  0.1422
66918PAPE   NH335816   0.028  24.392   2.734 -0.1098 -0.2208  0.0708
66918PAPE   PO435817  35.185  24.106   2.494  0.0835  0.2363  0.1745
66918PAPE   GL135818  34.763  24.274   2.407  0.1285 -0.0086  0.2271
66918PAPE   GL235819  34.465  24.162   2.437  0.0678 -0.2095 -0.0262
66918PAPE   D1A35820  34.659  24.602   2.617 -0.1676  0.3552  0.1024
66918PAPE   D2A35821  34.253  24.564   2.565  0.1982 -0.0029 -0.0446
66918PAPE   D3A35822  34.036  24.642   2.960  0.2023 -0.0815  0.0927
66918PAPE   D4A35823  33.773  24.341   2.840 -0.1107 -0.2407 -0.2296
66918PAPE   C5A35824  33.725  23.941   2.887 -0.0983  0.2834 -0.1358
66918PAPE   C1B35825  34.253  24.185   2.832 -0.2329  0.0649  0.0974
66918PAPE   C2B35826  34.081  24.057   3.149 -0.1986  0.1617 -0.1749
66918PAPE   C3B35827  33.776  24.069   3.383 -0.0245  0.2303 -0.2532
66918PAPE   C4B35828  33.791  23.958   3.762  0.0055  0.1137  0.1520
66919PAPE   NH335829  12.479   3.090  13.209  0.1992 -0.3044  0.0830
66919PAPE   PO435830  12.008   3.058  13.373  0.2677 -0.0154  0.2183
66919PAPE   GL135831  12.392   3.237  13.674  0.0742  0.1468  0.2462
66919PAPE   GL235832  12.316   3.483  13.951  0.0814  0.1571  0.2829
66919PAPE   D1A35833  12.702   3.057  13.990 -0.0300  0.2117  0.0722
66919PAPE   D2A35834  12.709   2.618  14.163  0.0388 -0.0710 -0.3439
66919PAPE   D3A35835  12.805   2.199  14.227  0.2642 -0.2629 -0.3369
66919PAPE   D4A35836  13.238   1.986  14.463 -0.1615 -0.0224 -0.0470
66919PAPE   C5A35837  13.383   1.561  14.448 -0.1939 -0.2614 -0.0983
66919PAPE   C1B35838  12.378   3.621  14.392  0.0556 -0.0352  0.1278
66919PAPE   C2B35839  12.515   3.524  14.727  0.2405  0.1040  0.0294
66919PAPE   C3B35840  12.582   3.207  15.020 -0.2538 -0.1023  0.0723
66919PAPE   C4B35841  12.833   2.819  14.958 -0.1942 -0.0116 -0.0157
66920PAPE   NH335842   4.718   2.214  11.887 -0.1523  0.0594  0.0650
66920PAPE   PO435843   4.744   1.694  11.826 -0.0701  0.0964  0.1766
66920PAPE   GL135844   4.365   1.799  12.112  0.2787 -0.5476 -0.4460
66920PAPE   GL235845   4.257   2.048  12.096 -0.0235 -0.2207 -0.2442
66920PAPE   D1A35846   4.039   1.779  12.505  0.0707  0.0482 -0.2547
66920PAPE   D2A35847   4.220   1.364  12.677  0.0608  0.0184  0.0609
66920PAPE   D3A35848   4.283   1.637  12.991 -0.2540  0.0305 -0.0766
66920PAPE   D4A35849   4.639   1.719  12.926 -0.3243 -0.2949 -0.1069
66920PAPE   C5A35850   4.705   2.083  13.044 -0.1056  0.4090  0.0162
66920PAPE   C1B35851   3.965   2.295  12.413  0.0274 -0.0988  0.1133
66920PAPE   C2B35852   3.729   2.316  12.663  0.0055 -0.2450  0.0592
66920PAPE   C3B35853   3.456   2.284  13.013 -0.1687 -0.0093  0.1007
66920PAPE   C4B35854   3.434   1.961  13.229  0.1404 -0.1775  0.2584
66921PAPE   NH335855   5.864   5.048  11.538  0.0354  0.2514 -0.0042
66921PAPE   PO435856   5.872   4.578  11.492  0.2208 -0.0305 -0.1635
66921PAPE   GL135857   5.750   4.422  11.957 -0.0102 -0.0776  0.1355
66921PAPE   GL235858   5.446   4.123  11.944  0.0956  0.1110  0.1271
66921PAPE   D1A35859   5.642   4.275  12.488  0.1001  0.3127  0.0220
66921PAPE   D2A35860   5.781   4.049  12.866 -0.2089 -0.1386 -0.1339
66921PAPE   D3A35861   5.428   4.027  12.910 -0.2793  0.2352  0.1651
66921PAPE   D4A35862   5.412   3.790  13.247 -0.0340  0.0843 -0.0654
66921PAPE   C5A35863   5.250   3.316  13.395 -0.0162  0.1184  0.1290
66921PAPE   C1B35864   5.013   4.126  12.252  0.2243 -0.1447  0.0292
66921PAPE   C2B35865   4.594   4.281  12.317  0.1128 -0.1146  0.0075
66921PAPE   C3B35866   4.344   4.548  12.202 -0.0007 -0.2807 -0.0841
66921PAPE   C4B35867   4.213   4.956  12.357 -0.2814 -0.0069  0.1760
66922PAPE   NH335868   6.413  10.195  11.337  0.0330  0.1804  0.0147
66922PAPE   PO435869   6.375  10.338  10.936  0.2907  0.0901  0.2401
66922PAPE   GL135870   6.103  10.530  11.126  0.1367 -0.1331 -0.2745
66922PAPE   GL235871   5.829  10.578  11.036  0.3359  0.0632  0.1515
66922PAPE   D1A35872   6.091  10.471  11.542 -0.0663 -0.0089 -0.1126
66922PAPE   D2A35873   6.378  10.395  11.927  0.2451  0.1285 -0.2142
66922PAPE   D3A35874   6.105  10.603  12.170  0.0409  0.7230 -0.0273
66922PAPE   D4A35875   6.333  10.705  12.521  0.0355  0.0692  0.1555
66922PAPE   C5A35876   6.158  10.542  12.833 -0.1208  0.1672 -0.0442
66922PAPE   C1B35877   5.617  10.589  11.390  0.1698  0.1823 -0.0071
66922PAPE   C2B35878   5.289  10.715  11.630  0.1080  0.2328 -0.0246
66922PAPE   C3B35879   5.009  10.429  12.014  0.2119  0.1499  0.0813
66922PAPE   C4B35880   5.188  10.103  12.258  0.0751  0.2348  0.1419
66923PAPE   NH335881   0.784   5.827   6.924  0.0019  0.1209 -0.0460
66923PAPE   PO435882   0.507   6.150   7.132 -0.1234  0.0354 -0.0532
66923PAPE   GL135883   0.683   6.261   7.506  0.1299  0.1095  0.0163
66923PAPE   GL235884   0.615   6.496   7.468 -0.0195  0.0362  0.0434
66923PAPE   D1A35885   0.843   6.242   7.896 -0.1206 -0.0215 -0.1420
66923PAPE   D2A35886   0.747   5.791   8.196  0.0071  0.0341  0.1306
66923PAPE   D3A35887   0.839   5.483   7.944  0.0912 -0.1817 -0.1582
66923PAPE   D4A35888   1.210   5.411   8.167 -0.1141  0.1190 -0.3125
66923PAPE   C5A35889   1.635   5.772   7.969 -0.0356 -0.1110  0.2714
66923PAPE   C1B35890   0.560   6.616   7.833 -0.1189 -0.2078 -0.0594
66923PAPE   C2B35891   0.404   6.824   8.067  0.1487  0.3398 -0.2693
66923PAPE   C3B35892   0.019   7.121   8.235 -0.0141  0.0650  0.2813
66923PAPE   C4B35893  35.197   7.469   8.373 -0.3542  0.0741  0.0613
66924PAPE   NH335894  31.015  10.890   1.012 -0.2005 -0.3692  0.0761
66924PAPE   PO435895  31.253  10.444   1.076  0.2799  0.2304  0.1057
66924PAPE   GL135896  31.197  10.692   1.457 -0.0061 -0.0577  0.0973
66924PAPE   GL235897  30.919  10.679   1.501  0.1190 -0.2314  0.0508
66924PAPE   D1A35898  31.494  11.025   1.652  0.0787 -0.0114 -0.3054
66924PAPE   D2A35899  31.550  11.431   1.740 -0.0342 -0.0397 -0.1339
66924PAPE   D3A35900  31.798  11.513   1.393 -0.2043  0.1734  0.1117
66924PAPE   D4A35901  32.187  11.336   1.546 -0.1605  0.1529  0.1309
66924PAPE   C5A35902  32.371  10.993   1.757 -0.1751  0.1664 -0.1133
66924PAPE   C1B35903  30.936  10.874   1.802  0.0989 -0.2392  0.2402
66924PAPE   C2B35904  30.737  10.892   2.203  0.0884 -0.0731  0.1517
66924PAPE   C3B35905  30.644  11.016   2.628 -0.0485 -0.1889 -0.3377
66924PAPE   C4B35906  30.728  11.184   3.037 -0.1723 -0.0364 -0.0077
66925PAPE   NH335907  22.791  16.105   2.709 -0.0952 -0.1148  0.3090
66925PAPE   PO435908  22.551  16.290   2.987  0.1751  0.1604 -0.1536
66925PAPE   GL135909  22.576  16.199   3.459 -0.1966 -0.2540 -0.3450
66925PAPE   GL235910  22.440  16.481   3.720  0.1167  0.0341  0.2392
66925PAPE   D1A35911  22.808  15.956   3.687  0.4217 -0.1941 -0.4461
66925PAPE   D2A35912  22.513  15.713   3.608  0.0019 -0.1278 -0.1459
66925PAPE   D3A35913  22.816  15.288   3.480  0.1099 -0.0248  0.0552
66925PAPE   D4A35914  23.198  15.175   3.705  0.2136  0.0979 -0.1756
66925PAPE   C5A35915  23.257  15.193   4.169  0.1015  0.1414  0.2100
66925PAPE   C1B35916  22.683  16.810   3.785 -0.1833  0.0170  0.0715
66925PAPE   C2B35917  23.076  16.975   4.030  0.1022  0.0213  0.1507
66925PAPE   C3B35918  23.466  17.004   4.274  0.0642  0.2912  0.0735
66925PAPE   C4B35919  23.690  17.315   4.524 -0.0376 -0.0735  0.1624
66926PAPE   NH335920   0.729   9.083   4.597 -0.1045  0.0295 -0.3046
66926PAPE   PO435921   1.141   9.254   4.525 -0.1416  0.0674  0.0063
66926PAPE   GL135922   0.921   9.575   4.769  0.3680  0.0933  0.2963
66926PAPE   GL235923   0.947   9.622   5.118  0.0651 -0.0715 -0.1803
66926PAPE   D1A35924   0.892   9.944   4.765 -0.1176 -0.2463  0.0676
66926PAPE   D2A35925   0.778  10.060   4.325 -0.3702  0.3128 -0.1277
66926PAPE   D3A35926   0.604  10.424   4.374 -0.3471 -0.1754  0.2629
66926PAPE   D4A35927   0.346  10.469   4.646 -0.0458 -0.2414 -0.2061
66926PAPE   C5A35928   0.592  10.327   5.060  0.1308 -0.1480  0.0336
66926PAPE   C1B35929   0.572   9.846   5.193 -0.2542  0.1564  0.3166
66926PAPE   C2B35930   0.276  10.129   5.421 -0.1452 -0.3485  0.2237
66926PAPE   C3B35931   0.137  10.504   5.274 -0.0015  0.2651 -0.0071
66926PAPE   C4B35932  35.330  10.722   4.976  0.0554  0.1569  0.0087
66927PAPE   NH335933  34.753   8.566   3.554  0.0418  0.1051  0.0192
66927PAPE   PO435934  34.970   8.898   3.654  0.0931 -0.0984 -0.2180
66927PAPE   GL135935  34.972   9.264   3.904  0.1571 -0.0569  0.2224
66927PAPE   GL235936  34.871   9.224   4.156 -0.0757 -0.0734 -0.2466
66927PAPE   D1A35937  35.240   9.660   3.956  0.2545  0.0119 -0.3438
66927PAPE   D2A35938   0.079   9.742   4.274  0.2197 -0.1381  0.1670
66927PAPE   D3A35939   0.185  10.163   4.326 -0.0054  0.1983  0.1487
66927PAPE   D4A35940   0.009  10.607   4.318  0.0771  0.3887 -0.0206
66927PAPE   C5A35941   0.019  11.002   4.580  0.1068  0.1586 -0.3242
66927PAPE   C1B35942  34.693   9.468   4.436 -0.0081 -0.2565  0.2673
66927PAPE   C2B35943  34.473   9.525   4.792  0.2332  0.0269  0.0534
66927PAPE   C3B35944  34.313   9.954   4.958  0.1784 -0.1844  0.0005
66927PAPE   C4B35945  34.158  10.383   5.240 -0.2114  0.1464  0.1341
66928PAPE   NH335946  21.087  23.000   8.274  0.6002  0.2790 -0.3080
66928PAPE   PO435947  21.017  22.962   7.807  0.2286  0.0702  0.2504
66928PAPE   GL135948  21.386  22.813   7.874  0.0926  0.0223 -0.0496
66928PAPE   GL235949  21.690  22.959   7.908  0.1874 -0.0468  0.0243
66928PAPE   D1A35950  21.717  22.751   7.492  0.0124  0.1265 -0.0850
66928PAPE   D2A35951  21.547  22.834   7.127  0.3102  0.0710 -0.1228
66928PAPE   D3A35952  21.917  22.929   6.841 -0.0041  0.1061  0.0453
66928PAPE   D4A35953  22.137  23.052   7.240 -0.3388 -0.1779 -0.2249
66928PAPE   C5A35954  22.136  22.898   7.637 -0.0513  0.2900 -0.0020
66928PAPE   C1B35955  21.991  23.007   8.192  0.3068  0.0734  0.1509
66928PAPE   C2B35956  22.340  22.993   8.482  0.2551 -0.1260 -0.1069
66928PAPE   C3B35957  22.765  22.923   8.500  0.1153  0.0437 -0.0437
66928PAPE   C4B35958  23.073  23.070   8.254 -0.0376 -0.2987  0.3758
66929PAPE   NH335959  25.001  31.472   5.687 -0.3185  0.1885 -0.2922
66929PAPE   PO435960  24.639  31.381   5.918 -0.5139 -0.0976  0.0766
66929PAPE   GL135961  24.910  31.263   6.218  0.2710  0.2368 -0.0228
66929PAPE   GL235962  25.063  31.481   6.252 -0.1105  0.3271 -0.6176
66929PAPE   D1A35963  25.202  30.910   6.356 -0.1446 -0.1798 -0.1343
66929PAPE   D2A35964  25.208  30.661   6.768 -0.1871  0.2539 -0.0300
66929PAPE   D3A35965  25.085  30.924   7.020 -0.2914  0.2329 -0.1383
66929PAPE   D4A35966  25.101  30.587   7.292  0.0847 -0.0795 -0.0287
66929PAPE   C5A35967  24.994  30.552   7.725  0.2140 -0.0595 -0.1851
66929PAPE   C1B35968  25.273  31.276   6.677 -0.1221  0.0186  0.1373
66929PAPE   C2B35969  25.342  31.365   7.086 -0.2859  0.0648 -0.1408
66929PAPE   C3B35970  25.750  31.344   7.301  0.1762  0.1877 -0.1598
66929PAPE   C4B35971  26.017  31.386   7.587 -0.1969  0.3149  0.1971
66930PAPE   NH335972  19.282  11.916  11.006  0.2186 -0.0120  0.1531
66930PAPE   PO435973  19.559  11.799  10.793 -0.2383  0.2588 -0.1357
66930PAPE   GL135974  19.796  11.637  11.092 -0.1569  0.0207 -0.0739
66930PAPE   GL235975  20.051  11.752  11.084 -0.2798 -0.2640  0.1590
66930PAPE   D1A35976  19.992  11.407  11.465  0.0160  0.0647 -0.1070
66930PAPE   D2A35977  19.622  11.300  11.645 -0.2962  0.1489  0.3507
66930PAPE   D3A35978  19.270  11.392  11.632  0.1129  0.2317 -0.1564
66930PAPE   D4A35979  19.268  11.745  11.977  0.5534 -0.1467  0.1489
66930PAPE   C5A35980  19.510  11.759  12.351  0.0047 -0.0130  0.1988
66930PAPE   C1B35981  20.308  11.824  11.445  0.3578 -0.0378  0.4141
66930PAPE   C2B35982  20.561  11.978  11.826  0.3607  0.0082 -0.1477
66930PAPE   C3B35983  20.588  12.079  12.235  0.1391  0.1196  0.0074
66930PAPE   C4B35984  20.897  11.862  12.535  0.0658  0.1717  0.1729
66931PAPE   NH335985   9.581  31.790  16.566  0.0357 -0.0078  0.1422
66931PAPE   PO435986  10.037  31.717  16.620  0.0535  0.1611  0.1392
66931PAPE   GL135987   9.856  31.663  17.048  0.1398  0.0668  0.1455
66931PAPE   GL235988  10.156  31.657  17.410 -0.1126 -0.2853 -0.1562
66931PAPE   D1A35989   9.679  31.909  17.446  0.0115 -0.1223  0.0622
66931PAPE   D2A35990   9.893  31.999  17.797  0.1658  0.2031 -0.0449
66931PAPE   D3A35991   9.550  32.124  18.101  0.2173 -0.0196 -0.1704
66931PAPE   D4A35992   9.915  31.997  18.422 -0.5608  0.0328  0.4454
66931PAPE   C5A35993   9.932  31.881  18.852 -0.1137  0.0371  0.2992
66931PAPE   C1B35994  10.007  31.539  17.823  0.1173 -0.1924  0.4387
66931PAPE   C2B35995   9.976  31.509  18.339 -0.0839 -0.0553  0.0640
66931PAPE   C3B35996  10.289  31.618  18.630 -0.1552 -0.0144 -0.3578
66931PAPE   C4B35997  10.624  31.738  18.762  0.0193  0.0240  0.2722
66932PAPE   NH335998  34.903  32.374   9.081 -0.1414  0.0921 -0.0060
66932PAPE   PO435999  35.255  32.762   8.909 -0.1012  0.1305 -0.2755
66932PAPE   GL136000   0.167  32.691   9.334  0.1983  0.1312 -0.0829
66932PAPE   GL236001   0.174  32.958   9.570  0.1380  0.0303 -0.0111
66932PAPE   D1A36002   0.218  32.390   9.528 -0.0474  0.0307 -0.0576
66932PAPE   D2A36003   0.658  32.348   9.536  0.5190  0.3025  0.0876
66932PAPE   D3A36004   0.979  32.580   9.752  0.2558 -0.0704  0.0799
66932PAPE   D4A36005   0.864  32.227  10.076  0.0392  0.3703  0.0262
66932PAPE   C5A36006   0.555  31.995   9.862  0.2531 -0.0386  0.1236
66932PAPE   C1B36007  35.159  33.078   9.595  0.1049  0.1136 -0.1903
66932PAPE   C2B36008  34.856  33.333   9.796 -0.2066  0.1578 -0.1656
66932PAPE   C3B36009  34.604  33.315  10.127  0.0168  0.3264 -0.0554
66932PAPE   C4B36010  34.453  33.318  10.544 -0.0064 -0.3869 -0.0264
66933PAPE   NH336011  15.921  21.868  15.685  0.0740  0.3829  0.4724
66933PAPE   PO436012  16.350  22.023  15.350  0.2468 -0.0647 -0.0994
66933PAPE   GL136013  16.420  22.102  15.781  0.2197 -0.1394  0.0329
66933PAPE   GL236014  16.327  21.826  15.939 -0.0992 -0.0436 -0.3650
66933PAPE   D1A36015  16.646  22.167  16.111  0.2621 -0.1529  0.1348
66933PAPE   D2A36016  16.993  21.890  16.128  0.0359  0.3869  0.1038
66933PAPE   D3A36017  17.112  21.701  16.459  0.3129 -0.0285 -0.2789
66933PAPE   D4A36018  17.417  21.909  16.631  0.0146 -0.0529  0.0694
66933PAPE   C5A36019  17.778  21.952  16.437 -0.0880  0.0975  0.0472
66933PAPE   C1B36020  16.660  21.550  15.993  0.0341  0.1279  0.3310
66933PAPE   C2B36021  16.937  21.310  16.234  0.3001  0.0867  0.1917
66933PAPE   C3B36022  17.013  21.051  16.616 -0.0441 -0.0534  0.5059
66933PAPE   C4B36023  17.302  20.932  16.926  0.0201 -0.1486 -0.1538
66934PAPE   NH336024  16.076  21.607  15.236 -0.1490 -0.0338 -0.4295
66934PAPE   PO436025  15.789  21.348  15.476  0.1458  0.0116  0.2271
66934PAPE   GL136026  15.996  21.014  15.729 -0.2054  0.1951  0.2928
66934PAPE   GL236027  16.022  20.844  15.967 -0.0079  0.0909 -0.0656
66934PAPE   D1A36028  16.442  21.074  15.845  0.1485  0.1839 -0.1747
66934PAPE   D2A36029  16.572  21.041  15.516 -0.5141 -0.2268  0.2468
66934PAPE   D3A36030  16.896  21.304  15.654  0.0472 -0.1228 -0.1967
66934PAPE   D4A36031  16.909  20.940  15.872 -0.1167  0.0364  0.1150
66934PAPE   C5A36032  17.269  20.807  15.988  0.0701 -0.2007  0.1104
66934PAPE   C1B36033  16.072  20.486  16.230 -0.3544 -0.0430 -0.0246
66934PAPE   C2B36034  16.376  20.273  16.535 -0.2101 -0.0980  0.0143
66934PAPE   C3B36035  16.493  19.960  16.880  0.0398  0.1072  0.0454
66934PAPE   C4B36036  16.848  19.844  17.053 -0.1971 -0.0044  0.2117
66935PAPE   NH336037  22.026  20.712   3.863  0.0533  0.1745 -0.2791
66935PAPE   PO436038  22.434  20.563   3.658  0.1593  0.0372 -0.1276
66935PAPE   GL136039  22.826  20.548   3.865 -0.0907  0.0974 -0.1152
66935PAPE   GL236040  22.942  20.761   4.135 -0.0148  0.1373  0.0540
66935PAPE   D1A36041  22.735  20.279   4.207  0.2376  0.1539 -0.0288
66935PAPE   D2A36042  22.965  19.864   4.276  0.2727  0.0577  0.0913
66935PAPE   D3A36043  23.234  20.116   4.381  0.0354 -0.1238 -0.0168
66935PAPE   D4A36044  23.285  19.760   4.708 -0.0435  0.0992  0.0478
66935PAPE   C5A36045  23.394  19.455   4.366 -0.1936  0.1455 -0.1075
66935PAPE   C1B36046  23.281  20.577   4.256  0.1214 -0.0247 -0.0692
66935PAPE   C2B36047  23.671  20.294   4.383  0.0552  0.3004 -0.0791
66935PAPE   C3B36048  23.767  19.849   4.531  0.0301 -0.0127 -0.1536
66935PAPE   C4B36049  23.911  19.458   4.731 -0.3194 -0.0306 -0.1654
66936PAPE   NH336050  20.904  12.617   8.099  0.2130 -0.2341 -0.2302
66936PAPE   PO436051  20.554  12.404   8.264  0.1710 -0.0783 -0.0885
66936PAPE   GL136052  20.978  12.532   8.579 -0.1797  0.0244  0.0159
66936PAPE   GL236053  21.070  12.804   8.663  0.2408  0.1258  0.0474
66936PAPE   D1A36054  21.261  12.216   8.646 -0.5199  0.0034  0.0088
66936PAPE   D2A36055  21.630  12.064   8.427 -0.1219  0.0945  0.3687
66936PAPE   D3A36056  21.824  12.382   8.684  0.1404 -0.1445 -0.2114
66936PAPE   D4A36057  22.044  12.169   8.764 -0.2128 -0.3006 -0.0452
66936PAPE   C5A36058  22.141  11.831   8.530 -0.1122 -0.1214  0.0058
66936PAPE   C1B36059  21.447  12.786   8.725 -0.0373  0.1494  0.0429
66936PAPE   C2B36060  21.891  12.918   8.724 -0.0008  0.2336  0.1087
66936PAPE   C3B36061  22.312  12.647   8.788  0.2722 -0.1717  0.2246
66936PAPE   C4B36062  22.568  12.579   8.449  0.0290  0.1995 -0.0480
66937PAPE   NH336063   6.585  30.360  15.602  0.4586  0.2104  0.0063
66937PAPE   PO436064   6.400  30.608  15.301 -0.0504 -0.0266  0.1873
66937PAPE   GL136065   6.077  30.897  15.552  0.3512  0.0024  0.2035
66937PAPE   GL236066   5.895  31.106  15.405  0.1805  0.2678  0.1108
66937PAPE   D1A36067   5.618  30.797  15.697 -0.1004  0.1299 -0.2830
66937PAPE   D2A36068   5.627  31.101  15.984  0.0526  0.1784 -0.0823
66937PAPE   D3A36069   5.401  31.238  16.312 -0.3898 -0.1289 -0.0609
66937PAPE   D4A36070   5.081  31.446  16.234 -0.0433 -0.0545  0.0321
66937PAPE   C5A36071   4.876  31.214  15.970 -0.2161 -0.0197  0.2129
66937PAPE   C1B36072   5.495  31.308  15.552 -0.0536 -0.1235  0.1231
66937PAPE   C2B36073   5.173  31.544  15.721 -0.0504 -0.2124 -0.0152
66937PAPE   C3B36074   4.869  31.775  15.946 -0.0923  0.0473  0.0059
66937PAPE   C4B36075   4.637  31.899  16.239 -0.0735 -0.2256  0.3259
66938DGPE   NH336076  21.145  32.057   8.060 -0.1824 -0.2196 -0.1234
66938DGPE   PO436077  21.578  32.084   8.018  0.0844 -0.0830  0.0513
66938DGPE   GL136078  21.531  32.358   8.255 -0.0080  0.0551  0.0838
66938DGPE   GL236079  21.314  32.734   8.168  0.3232 -0.3012 -0.2026
66938DGPE   C1A36080  21.727  32.304   8.554 -0.1108  0.2351  0.2762
66938DGPE   C2A36081  21.763  32.077   8.919 -0.1202  0.1383 -0.1176
66938DGPE   D3A36082  22.098  32.015   9.080  0.4896 -0.0086 -0.0658
66938DGPE   C4A36083  22.325  32.249   8.847 -0.2942  0.0202 -0.3692
66938DGPE   C5A36084  22.654  32.395   8.633  0.0503  0.3473  0.0033
66938DGPE   C1B36085  21.482  32.902   8.554 -0.2789 -0.0224 -0.1303
66938DGPE   C2B36086  21.585  32.996   8.957 -0.3594  0.0515  0.1090
66938DGPE   D3B36087  21.690  32.826   9.446  0.0478  0.2299 -0.1046
66938DGPE   C4B36088  21.350  32.887   9.723 -0.1413  0.0911 -0.1894
66938DGPE   C5B36089  20.909  33.018   9.707 -0.0837 -0.3221 -0.0854
66939DGPE   NH336090  20.913   6.069  10.836  0.0170 -0.1854  0.3842
66939DGPE   PO436091  20.475   5.863  10.818 -0.3222 -0.0186  0.2455
66939DGPE   GL136092  20.559   6.023  11.209 -0.2819  0.1288 -0.2043
66939DGPE   GL236093  20.485   5.829  11.494  0.1475 -0.0591  0.3249
66939DGPE   C1A36094  20.855   6.081  11.591 -0.0476  0.0423 -0.1666
66939DGPE   C2A36095  21.129   6.227  11.675 -0.3956  0.1482 -0.0424
66939DGPE   D3A36096  21.418   6.469  11.854 -0.0977  0.0430  0.0110
66939DGPE   C4A36097  21.503   6.507  12.259  0.0893 -0.0021  0.1403
66939DGPE   C5A36098  21.689   6.717  12.662  0.0312  0.3637  0.0441
66939DGPE   C1B36099  20.847   5.591  11.710 -0.2238 -0.1349  0.1476
66939DGPE   C2B36100  21.170   5.740  11.951  0.2488  0.2414  0.0871
66939DGPE   D3B36101  21.481   5.986  11.962  0.0628 -0.1217  0.0315
66939DGPE   C4B36102  21.785   5.837  12.129 -0.2613 -0.1469  0.1417
66939DGPE   C5B36103  21.980   5.437  12.279  0.1529 -0.2645 -0.2851
66940DGPE   NH336104   4.230  15.872   7.138 -0.0217 -0.2267  0.1046
66940DGPE   PO436105   4.171  15.381   7.093  0.0434 -0.0482  0.0794
66940DGPE   GL136106   3.853  15.367   7.278 -0.2785  0.2025 -0.0186
66940DGPE   GL236107   3.833  15.684   7.327  0.1198 -0.0295  0.1164
66940DGPE   C1A36108   3.550  15.286   7.582 -0.0152  0.1735  0.0986
66940DGPE   C2A36109   3.071  15.087   7.494  0.1849 -0.2268 -0.1398
66940DGPE   D3A36110   2.805  14.942   7.653  0.1310  0.1844  0.0819
66940DGPE   C4A36111   2.582  14.650   7.441  0.2024  0.1172 -0.0872
66940DGPE   C5A36112   2.683  14.400   7.239  0.1198  0.0909 -0.3645
66940DGPE   C1B36113   3.481  15.731   7.428 -0.2185  0.1993 -0.0048
66940DGPE   C2B36114   3.124  15.600   7.536  0.1011  0.2349  0.0760
66940DGPE   D3B36115   2.748  15.430   7.642 -0.1128 -0.1229  0.2493
66940DGPE   C4B36116   2.375  15.466   7.547  0.3071  0.2143  0.0543
66940DGPE   C5B36117   2.000  15.344   7.323  0.0185  0.1099 -0.2755
66941DGPE   NH336118  11.331   9.101  14.394  0.0579  0.0464  0.1469
66941DGPE   PO436119  11.664   9.262  14.738 -0.0999 -0.1590  0.3855
66941DGPE   GL136120  11.923   9.497  15.017 -0.4929  0.0130 -0.2730
66941DGPE   GL236121  11.834   9.734  15.179  0.0063 -0.0538 -0.1186
66941DGPE   C1A36122  11.994   9.406  15.465  0.0046  0.2366 -0.0590
66941DGPE   C2A36123  11.872   9.456  15.900  0.2641  0.4558  0.0401
66941DGPE   D3A36124  11.687   9.342  16.225 -0.2668 -0.1935 -0.1678
66941DGPE   C4A36125  11.881   9.323  16.643  0.1753  0.0582 -0.1324
66941DGPE   C5A36126  12.153   9.464  17.072  0.2763 -0.0339 -0.2480
66941DGPE   C1B36127  11.732   9.877  15.583 -0.0359 -0.0896  0.1616
66941DGPE   C2B36128  11.776   9.953  15.979  0.0664 -0.0952  0.1661
66941DGPE   D3B36129  11.633   9.914  16.328  0.0704 -0.0289 -0.1669
66941DGPE   C4B36130  11.806  10.260  16.638  0.0407 -0.1239  0.2542
66941DGPE   C5B36131  12.113  10.409  16.968 -0.1347 -0.2832 -0.0981
66942DGPE   NH336132  16.189  11.029  14.161  0.1057 -0.0618  0.1261
66942DGPE   PO436133  16.680  10.902  14.125 -0.1821 -0.0018 -0.3512
66942DGPE   GL136134  16.862  10.909  14.468  0.1380 -0.1047 -0.3287
66942DGPE   GL236135  17.038  11.183  14.471 -0.1911  0.0591 -0.1694
66942DGPE   C1A36136  17.082  10.806  14.897 -0.0126  0.2143  0.1013
66942DGPE   C2A36137  17.105  10.798  15.274  0.1374  0.1015 -0.1377
66942DGPE   D3A36138  17.323  10.623  15.548  0.0938  0.0885  0.4986
66942DGPE   C4A36139  17.458  10.717  15.901 -0.0482  0.5421 -0.1346
66942DGPE   C5A36140  17.377  10.788  16.381 -0.1390  0.3224  0.0726
66942DGPE   C1B36141  17.204  11.282  14.844 -0.2185 -0.1872 -0.1010
66942DGPE   C2B36142  17.345  11.280  15.238  0.0044  0.3261  0.2858
66942DGPE   D3B36143  17.625  11.453  15.529 -0.0087 -0.1791 -0.1741
66942DGPE   C4B36144  17.555  11.535  15.932 -0.1404  0.0913  0.0322
66942DGPE   C5B36145  17.466  11.944  16.170  0.0414 -0.0634  0.0584
66943DGPE   NH336146  34.651   1.887   8.253 -0.2416 -0.1259 -0.1866
66943DGPE   PO436147  34.266   1.840   8.066  0.3580  0.0863 -0.1563
66943DGPE   GL136148  34.225   1.832   8.575 -0.3577 -0.3612 -0.0769
66943DGPE   GL236149  34.170   2.186   8.798 -0.0880  0.2262  0.2097
66943DGPE   C1A36150  34.055   1.755   9.061  0.0253  0.1571  0.0557
66943DGPE   C2A36151  33.862   1.832   9.391 -0.1336  0.0296 -0.0783
66943DGPE   D3A36152  33.757   1.798   9.871  0.3919 -0.2548 -0.2978
66943DGPE   C4A36153  33.730   2.052  10.172  0.4374 -0.0225 -0.4152
66943DGPE   C5A36154  33.924   2.221  10.513  0.1028  0.2550  0.0994
66943DGPE   C1B36155  33.998   2.394   9.157 -0.1673  0.2249  0.1016
66943DGPE   C2B36156  33.892   2.370   9.624  0.0636 -0.0689  0.1656
66943DGPE   D3B36157  33.480   2.282   9.786 -0.5059  0.1565  0.1599
66943DGPE   C4B36158  33.345   2.365  10.192 -0.0341  0.1318  0.0706
66943DGPE   C5B36159  32.964   2.369  10.266  0.1750  0.0711  0.1716
66944DGPE   NH336160   2.502   6.248   8.145  0.1581  0.1787 -0.2886
66944DGPE   PO436161   2.243   6.397   7.772  0.0892  0.0882 -0.0750
66944DGPE   GL136162   2.180   6.611   8.197 -0.0494 -0.1008  0.1024
66944DGPE   GL236163   2.170   6.941   8.196 -0.1033 -0.0508 -0.1329
66944DGPE   C1A36164   1.985   6.619   8.689  0.0056 -0.2672 -0.2806
66944DGPE   C2A36165   1.772   6.824   9.065  0.5593  0.0284 -0.2392
66944DGPE   D3A36166   1.910   6.827   9.422 -0.2455 -0.1906  0.0591
66944DGPE   C4A36167   1.695   6.921   9.917  0.0908 -0.0023  0.0500
66944DGPE   C5A36168   1.562   6.688  10.316 -0.3223 -0.3510 -0.1043
66944DGPE   C1B36169   1.876   7.060   8.613 -0.1567  0.2731  0.1322
66944DGPE   C2B36170   1.584   7.243   8.910  0.4286 -0.1221  0.0811
66944DGPE   D3B36171   1.476   7.392   9.262  0.1539  0.0133 -0.0794
66944DGPE   C4B36172   0.997   7.574   9.228  0.2030 -0.1007  0.0322
66944DGPE   C5B36173   0.769   7.837   8.993  0.2096 -0.0400 -0.0392
66945DGPE   NH336174   4.685  10.998   9.534 -0.1460  0.1770 -0.3002
66945DGPE   PO436175   5.050  10.917   9.671 -0.2013 -0.0726  0.0157
66945DGPE   GL136176   4.771  10.872  10.079 -0.1395 -0.0126 -0.0436
66945DGPE   GL236177   4.811  10.626  10.245  0.1500 -0.2155 -0.2081
66945DGPE   C1A36178   4.558  11.025  10.412 -0.0635 -0.2093  0.0465
66945DGPE   C2A36179   4.255  10.782  10.685  0.2267  0.0721 -0.0110
66945DGPE   D3A36180   3.920  10.523  10.650  0.2309  0.0409  0.2695
66945DGPE   C4A36181   3.730  10.334  10.935  0.1237 -0.2084 -0.1201
66945DGPE   C5A36182   3.436  10.345  11.167 -0.0854  0.0159  0.2281
66945DGPE   C1B36183   4.559  10.465  10.514  0.1940  0.1803  0.1659
66945DGPE   C2B36184   4.346  10.350  10.935 -0.1732 -0.0298  0.1045
66945DGPE   D3B36185   4.092  10.598  11.195 -0.0629 -0.3217 -0.1721
66945DGPE   C4B36186   3.840  10.308  11.525 -0.0009 -0.0322 -0.1030
66945DGPE   C5B36187   3.564  10.026  11.651 -0.0232  0.0632  0.1688
66946DGPE   NH336188  14.677  26.592  16.674  0.0084  0.2856 -0.3127
66946DGPE   PO436189  14.579  26.425  17.112  0.2982 -0.2370 -0.1740
66946DGPE   GL136190  14.818  26.524  17.386  0.0379  0.1208 -0.0103
66946DGPE   GL236191  14.756  26.740  17.555  0.2652 -0.1916 -0.0489
66946DGPE   C1A36192  15.046  26.418  17.748  0.1268 -0.1125  0.0435
66946DGPE   C2A36193  15.236  26.298  18.070  0.0693  0.1155 -0.0003
66946DGPE   D3A36194  15.524  26.525  18.325 -0.0196  0.0157  0.1417
66946DGPE   C4A36195  15.826  26.271  18.429 -0.2503 -0.0881  0.1888
66946DGPE   C5A36196  16.149  26.035  18.684  0.0130 -0.1667  0.3088
66946DGPE   C1B36197  14.943  26.942  17.916  0.3628 -0.1583  0.3041
66946DGPE   C2B36198  15.171  26.861  18.209 -0.5394 -0.1441 -0.2215
66946DGPE   D3B36199  15.506  26.962  18.564 -0.1619  0.3499  0.0772
66946DGPE   C4B36200  16.036  26.955  18.479  0.6243 -0.0136  0.0463
66946DGPE   C5B36201  16.489  27.115  18.693  0.3065 -0.0175  0.1011
66947DGPE   NH336202   0.506  11.813   2.706 -0.1876  0.3233  0.0997
66947DGPE   PO436203   0.745  12.145   2.793 -0.1643  0.0207  0.1917
66947DGPE   GL136204   0.660  12.543   3.079 -0.1035  0.1897  0.0598
66947DGPE   GL236205   0.618  12.250   3.257 -0.1995  0.2748 -0.2402
66947DGPE   C1A36206   0.549  12.666   3.458 -0.0149 -0.1738  0.0077
66947DGPE   C2A36207   0.282  12.750   3.760 -0.0501  0.0702  0.3889
66947DGPE   D3A36208   0.129  12.833   4.173 -0.0941  0.1201  0.2009
66947DGPE   C4A36209  35.215  12.583   4.238  0.4178  0.1403 -0.0608
66947DGPE   C5A36210  35.132  12.197   4.357  0.4364  0.1754 -0.1733
66947DGPE   C1B36211   0.237  12.266   3.491 -0.1386  0.0030 -0.1494
66947DGPE   C2B36212  35.255  12.131   3.318  0.3721 -0.1476  0.1142
66947DGPE   D3B36213  34.791  12.321   3.341 -0.0611 -0.0486  0.1939
66947DGPE   C4B36214  34.455  12.070   3.501 -0.0741  0.2648 -0.1598
66947DGPE   C5B36215  34.287  12.138   3.964  0.3051 -0.2712  0.1949
66948DGPE   NH336216  27.622   6.280   3.648 -0.0114  0.1044 -0.0030
66948DGPE   PO436217  27.424   6.604   3.374 -0.2616  0.0414 -0.0644
66948DGPE   GL136218  27.245   6.790   3.655  0.3082  0.2445 -0.1298
66948DGPE   GL236219  26.957   6.779   3.733  0.2708 -0.2860 -0.0822
66948DGPE   C1A36220  27.337   7.118   3.962  0.1447 -0.2213  0.0879
66948DGPE   C2A36221  27.485   7.450   4.065  0.0143 -0.3077  0.0374
66948DGPE   D3A36222  27.428   7.847   4.183 -0.3419 -0.2718  0.0135
66948DGPE   C4A36223  26.980   7.904   4.318  0.1182  0.2723 -0.1048
66948DGPE   C5A36224  26.462   7.703   4.488 -0.1964 -0.0359  0.3238
66948DGPE   C1B36225  26.902   6.957   4.203 -0.1105 -0.0445  0.0350
66948DGPE   C2B36226  27.061   7.333   4.368 -0.1827  0.2087 -0.1319
66948DGPE   D3B36227  27.423   7.522   4.529 -0.0568 -0.0745  0.2417
66948DGPE   C4B36228  27.555   7.499   5.017  0.0663 -0.1299 -0.0382
66948DGPE   C5B36229  27.762   7.682   5.280  0.0907  0.1835 -0.0943
66949DGPE   NH336230  25.703  29.491   5.533 -0.1209  0.1192 -0.1153
66949DGPE   PO436231  25.600  29.269   5.220  0.3892  0.1351  0.1856
66949DGPE   GL136232  25.851  29.014   5.546 -0.3316 -0.0145  0.1363
66949DGPE   GL236233  25.897  29.122   5.872 -0.0174  0.0726  0.0430
66949DGPE   C1A36234  26.066  28.595   5.701 -0.0167 -0.1871  0.1573
66949DGPE   C2A36235  26.201  28.326   6.034 -0.0402  0.1477  0.0068
66949DGPE   D3A36236  26.405  28.047   6.329  0.1450  0.0321  0.0696
66949DGPE   C4A36237  26.729  28.066   6.164  0.0572 -0.3129  0.1755
66949DGPE   C5A36238  27.062  27.939   5.879  0.3120  0.1816  0.1240
66949DGPE   C1B36239  25.883  28.749   6.105 -0.0277 -0.4538 -0.0108
66949DGPE   C2B36240  25.756  28.734   6.524 -0.0692  0.1385 -0.0200
66949DGPE   D3B36241  25.997  28.711   6.984  0.0270  0.2671 -0.0441
66949DGPE   C4B36242  25.787  28.436   7.289 -0.0498  0.3390 -0.3830
66949DGPE   C5B36243  25.789  28.064   7.524  0.0896 -0.2134 -0.2852
66950DGPE   NH336244  12.576   7.296  14.806 -0.3615 -0.3349 -0.0050
66950DGPE   PO436245  12.735   7.754  14.880  0.0001  0.2170  0.0070
66950DGPE   GL136246  12.808   7.535  15.229 -0.0017 -0.3234  0.1466
66950DGPE   GL236247  12.929   7.261  15.277  0.0108  0.3300  0.1913
66950DGPE   C1A36248  12.800   7.565  15.623 -0.0374  0.0497  0.0686
66950DGPE   C2A36249  12.831   7.445  16.062 -0.1899 -0.1822 -0.1028
66950DGPE   D3A36250  12.960   7.298  16.265 -0.0111  0.1720 -0.0801
66950DGPE   C4A36251  13.198   7.443  16.566  0.2020  0.3173 -0.1594
66950DGPE   C5A36252  13.092   7.629  17.050  0.3557 -0.3406  0.1528
66950DGPE   C1B36253  13.308   7.430  15.448 -0.0101  0.0343  0.1693
66950DGPE   C2B36254  13.681   7.146  15.760  0.2627  0.1605  0.2506
66950DGPE   D3B36255  14.152   6.894  15.998  0.0353  0.1194 -0.0246
66950DGPE   C4B36256  14.228   6.481  15.932 -0.2797  0.1833 -0.1187
66950DGPE   C5B36257  14.056   6.143  15.797 -0.0250  0.1767 -0.0658
66951DGPE   NH336258  25.234   5.416   5.428  0.0537  0.1082  0.3332
66951DGPE   PO436259  24.821   5.440   5.617  0.0894  0.1208  0.0331
66951DGPE   GL136260  25.079   5.534   5.839  0.1960 -0.1782 -0.2531
66951DGPE   GL236261  25.101   5.888   5.906 -0.3046 -0.0048  0.0272
66951DGPE   C1A36262  25.140   5.494   6.319  0.1481 -0.2266  0.2505
66951DGPE   C2A36263  25.378   5.216   6.613 -0.0119  0.0016 -0.1189
66951DGPE   D3A36264  25.581   5.365   7.055  0.0032  0.2485  0.1332
66951DGPE   C4A36265  25.962   5.229   7.007 -0.0762  0.1239 -0.1765
66951DGPE   C5A36266  26.237   4.963   6.804  0.0003  0.2300 -0.2091
66951DGPE   C1B36267  25.305   6.100   6.202  0.2584  0.1168 -0.0675
66951DGPE   C2B36268  25.577   6.395   6.424 -0.0862 -0.1714  0.1924
66951DGPE   D3B36269  25.719   6.697   6.665  0.1216 -0.0915 -0.0404
66951DGPE   C4B36270  25.942   7.100   6.701  0.2581 -0.1514 -0.1441
66951DGPE   C5B36271  25.929   7.533   6.862 -0.3562 -0.2500 -0.0440
66952DGPE   NH336272   8.028   5.907  13.949  0.0915 -0.1056  0.3065
66952DGPE   PO436273   7.698   5.676  13.909  0.2016  0.0060  0.0107
66952DGPE   GL136274   7.714   5.727  14.356 -0.1924 -0.2009  0.1337
66952DGPE   GL236275   7.735   6.064  14.371  0.1786 -0.2633  0.0548
66952DGPE   C1A36276   7.524   5.890  14.785  0.0905  0.3252 -0.1356
66952DGPE   C2A36277   7.232   6.034  15.032 -0.0571  0.0423  0.0049
66952DGPE   D3A36278   7.131   6.047  15.521  0.1748 -0.1809  0.1231
66952DGPE   C4A36279   6.681   6.058  15.649  0.1682 -0.1971  0.0512
66952DGPE   C5A36280   6.443   6.408  15.575  0.2273  0.0963 -0.1218
66952DGPE   C1B36281   7.294   6.171  14.488 -0.1364 -0.0484 -0.0565
66952DGPE   C2B36282   6.945   6.338  14.786  0.1694 -0.2692 -0.0144
66952DGPE   D3B36283   6.754   6.208  15.177  0.1085 -0.1421 -0.1498
66952DGPE   C4B36284   6.447   6.052  15.127  0.0453  0.1203 -0.2385
66952DGPE   C5B36285   6.118   6.148  15.224 -0.1656  0.0558 -0.2265
66953DGPE   NH336286   7.167   8.398  12.980 -0.1928 -0.0777  0.1256
66953DGPE   PO436287   7.016   8.648  12.618 -0.1346  0.3228 -0.0468
66953DGPE   GL136288   6.906   9.126  12.661 -0.2634  0.1105 -0.0698
66953DGPE   GL236289   7.112   9.329  12.821  0.2871 -0.0738 -0.2455
66953DGPE   C1A36290   6.606   9.227  12.755 -0.3687 -0.0549 -0.0347
66953DGPE   C2A36291   6.304   9.417  13.015 -0.1025  0.0298 -0.1317
66953DGPE   D3A36292   6.181   9.777  13.318 -0.1905  0.0285 -0.1178
66953DGPE   C4A36293   6.041   9.725  13.696 -0.2004 -0.5587  0.2280
66953DGPE   C5A36294   6.284   9.546  14.078  0.0780  0.2120 -0.2334
66953DGPE   C1B36295   6.891   9.518  13.121 -0.1837 -0.1700 -0.2216
66953DGPE   C2B36296   6.723   9.643  13.344 -0.0476 -0.1279 -0.0595
66953DGPE   D3B36297   6.579   9.730  13.717  0.0687  0.2229  0.1436
66953DGPE   C4B36298   6.390  10.029  13.811 -0.1416 -0.3996 -0.3266
66953DGPE   C5B36299   6.416  10.490  13.821  0.1076 -0.0439 -0.0885
66954DGPE   NH336300  17.205  27.725  12.256 -0.0215 -0.1344  0.1956
66954DGPE   PO436301  17.356  27.927  11.844  0.0249  0.1244 -0.1978
66954DGPE   GL136302  17.659  27.956  12.195  0.1369 -0.1269  0.1395
66954DGPE   GL236303  17.552  27.945  12.574 -0.3529 -0.0595  0.0551
66954DGPE   C1A36304  17.919  28.128  12.377 -0.0107  0.1255 -0.0687
66954DGPE   C2A36305  18.327  28.119  12.585 -0.1094 -0.3231 -0.0440
66954DGPE   D3A36306  18.623  28.098  12.916 -0.2292  0.1478 -0.0396
66954DGPE   C4A36307  19.017  28.129  12.984  0.0081 -0.0122  0.0122
66954DGPE   C5A36308  19.279  28.440  13.121 -0.0129  0.1647 -0.1495
66954DGPE   C1B36309  17.817  28.194  12.854  0.4824  0.0754 -0.1516
66954DGPE   C2B36310  18.252  28.379  12.997  0.2737  0.0266  0.0878
66954DGPE   D3B36311  18.443  28.498  13.407 -0.2758 -0.0372  0.2282
66954DGPE   C4B36312  18.733  28.171  13.456  0.1731  0.1621  0.0760
66954DGPE   C5B36313  19.008  27.818  13.447 -0.1412 -0.1893  0.1119
66955DGPE   NH336314  15.010  33.151  12.953 -0.3265  0.0958  0.0119
66955DGPE   PO436315  14.690  33.302  13.371 -0.0778  0.0697 -0.2851
66955DGPE   GL136316  15.114  33.218  13.495 -0.1553  0.1043 -0.2699
66955DGPE   GL236317  15.107  33.356  13.864  0.1402  0.1004 -0.0593
66955DGPE   C1A36318  15.598  33.073  13.587 -0.2943 -0.0349  0.0127
66955DGPE   C2A36319  15.825  33.309  13.858 -0.0798  0.3513  0.0289
66955DGPE   D3A36320  16.174  33.313  14.220  0.2867 -0.1025 -0.0392
66955DGPE   C4A36321  16.042  32.961  14.423  0.0989 -0.2855  0.0335
66955DGPE   C5A36322  15.917  32.898  14.879  0.1469 -0.0948  0.1598
66955DGPE   C1B36323  15.471  33.554  14.168 -0.0103 -0.0798  0.1090
66955DGPE   C2B36324  15.798  33.742  14.460 -0.0668  0.4311 -0.1039
66955DGPE   D3B36325  15.927  33.958  14.799  0.2003 -0.2812  0.1796
66955DGPE   C4B36326  15.845  34.009  15.245  0.3475 -0.4424  0.1076
66955DGPE   C5B36327  15.396  34.015  15.434 -0.1881  0.1369 -0.3421
66956DGPE   NH336328   6.925   9.348  11.869 -0.0048  0.1706  0.0367
66956DGPE   PO436329   6.597   9.189  11.660  0.1399  0.0843  0.1313
66956DGPE   GL136330   6.181   9.440  11.854  0.1711 -0.2661  0.0947
66956DGPE   GL236331   5.904   9.339  11.756 -0.0538 -0.0165 -0.0285
66956DGPE   C1A36332   5.894   9.700  12.172  0.1977  0.1538 -0.0113
66956DGPE   C2A36333   5.619   9.905  12.404 -0.1397 -0.0112 -0.0495
66956DGPE   D3A36334   5.625  10.299  12.626  0.2694  0.3859 -0.0425
66956DGPE   C4A36335   5.268  10.473  12.730  0.0024  0.1401  0.1519
66956DGPE   C5A36336   4.876  10.451  12.521 -0.2472  0.0425  0.1545
66956DGPE   C1B36337   5.513   9.406  11.994  0.0756 -0.2258  0.0566
66956DGPE   C2B36338   5.276   9.574  12.384 -0.1106 -0.0140 -0.0582
66956DGPE   D3B36339   4.992   9.776  12.576  0.0282  0.0964  0.1596
66956DGPE   C4B36340   5.205  10.002  12.765  0.0835 -0.0255 -0.0475
66956DGPE   C5B36341   5.279   9.810  13.254  0.0902 -0.2051  0.1340
66957DGPE   NH336342  11.478   9.711  14.673 -0.4685  0.1879  0.0083
66957DGPE   PO436343  11.658   9.891  14.767 -0.0345  0.2394 -0.0092
66957DGPE   GL136344  11.761  10.264  15.067  0.0452 -0.2457  0.2726
66957DGPE   GL236345  12.013  10.388  14.848  0.1857  0.0403 -0.0846
66957DGPE   C1A36346  11.775  10.461  15.537  0.0987  0.0788 -0.0231
66957DGPE   C2A36347  11.723  10.623  15.991 -0.3913 -0.2504 -0.0160
66957DGPE   D3A36348  11.826  10.728  16.441 -0.1268 -0.0821  0.4867
66957DGPE   C4A36349  12.103  10.889  16.670  0.2724  0.1334  0.2058
66957DGPE   C5A36350  12.443  10.765  16.788 -0.1308 -0.2431  0.0821
66957DGPE   C1B36351  11.866  10.725  15.124  0.0293 -0.0549  0.0877
66957DGPE   C2B36352  11.766  10.958  15.515 -0.0227 -0.0607 -0.4753
66957DGPE   D3B36353  11.724  11.143  15.945  0.5198 -0.3286 -0.1586
66957DGPE   C4B36354  11.942  11.195  16.320 -0.0722  0.1249  0.5044
66957DGPE   C5B36355  12.292  11.341  16.586 -0.1585  0.0308  0.0316
66958DGPE   NH336356   4.371  16.600   6.327  0.1006 -0.2246  0.2461
66958DGPE   PO436357   4.327  16.310   6.748 -0.1029  0.3170 -0.2290
66958DGPE   GL136358   3.993  16.353   6.915 -0.1624  0.0991 -0.1329
66958DGPE   GL236359   4.085  16.356   7.198  0.1670 -0.1100 -0.0819
66958DGPE   C1A36360   3.582  16.475   6.988 -0.1310 -0.1551  0.0442
66958DGPE   C2A36361   3.246  16.516   7.211  0.2379 -0.0070  0.0168
66958DGPE   D3A36362   2.905  16.823   7.301  0.0876 -0.0505  0.1208
66958DGPE   C4A36363   2.448  16.926   7.325 -0.0062  0.0231  0.0778
66958DGPE   C5A36364   2.121  16.977   7.148  0.0256  0.1835 -0.0025
66958DGPE   C1B36365   3.683  16.261   7.417  0.0417 -0.0935 -0.2324
66958DGPE   C2B36366   3.329  16.153   7.612  0.1931 -0.0022  0.1515
66958DGPE   D3B36367   2.996  15.978   7.810  0.2021  0.1536  0.0821
66958DGPE   C4B36368   2.668  15.957   7.688  0.1489  0.3618  0.0462
66958DGPE   C5B36369   2.252  16.048   7.800 -0.1441  0.0962 -0.5581
66959DGPE   NH336370  30.110  12.067   0.390  0.0548  0.1797 -0.1854
66959DGPE   PO436371  29.673  12.046   0.391 -0.0042  0.0616 -0.0819
66959DGPE   GL136372  29.916  12.061   0.841 -0.0417  0.0854 -0.0015
66959DGPE   GL236373  29.953  12.389   0.965 -0.0665  0.3541  0.0919
66959DGPE   C1A36374  29.919  12.030   1.358 -0.1354  0.1264 -0.2765
66959DGPE   C2A36375  29.925  12.000   1.857  0.0960 -0.3291 -0.1656
66959DGPE   D3A36376  30.057  11.687   2.159  0.0134  0.2715  0.0456
66959DGPE   C4A36377  30.360  11.831   2.337  0.1587  0.0258 -0.2297
66959DGPE   C5A36378  30.851  11.765   2.457  0.1551 -0.1067  0.1273
66959DGPE   C1B36379  29.692  12.530   1.359 -0.0108  0.1477  0.0931
66959DGPE   C2B36380  29.671  12.463   1.714 -0.1169 -0.1803  0.0853
66959DGPE   D3B36381  29.837  12.705   2.051 -0.0827 -0.2559 -0.0145
66959DGPE   C4B36382  29.656  12.740   2.500 -0.2935  0.1433  0.0230
66959DGPE   C5B36383  29.567  12.307   2.772 -0.1879 -0.0367 -0.2276
66960DGPE   NH336384  33.551   2.428   7.676 -0.0789  0.3865  0.2797
66960DGPE   PO436385  33.276   2.759   7.448  0.1252  0.0375 -0.1054
66960DGPE   GL136386  33.469   3.024   7.721 -0.0031  0.3003 -0.2673
66960DGPE   GL236387  33.144   3.219   7.667  0.1871 -0.1251 -0.1452
66960DGPE   C1A36388  33.407   3.074   8.037  0.0273 -0.1331 -0.3345
66960DGPE   C2A36389  33.182   3.189   8.331 -0.0630 -0.3114  0.0352
66960DGPE   D3A36390  33.028   3.317   8.690  0.2423  0.0514 -0.0626
66960DGPE   C4A36391  33.087   3.158   9.101  0.1196  0.0409  0.0187
66960DGPE   C5A36392  33.320   3.126   9.454 -0.1512  0.0519  0.1291
66960DGPE   C1B36393  33.086   3.463   7.887 -0.1331 -0.1037  0.0709
66960DGPE   C2B36394  32.836   3.698   8.191 -0.2061  0.0571  0.1307
66960DGPE   D3B36395  32.633   3.684   8.614 -0.2067  0.0475 -0.3074
66960DGPE   C4B36396  32.660   3.497   8.982  0.0238  0.1749 -0.1421
66960DGPE   C5B36397  32.811   3.426   9.364 -0.1442 -0.2007  0.4474
66961DGPE   NH336398  20.145  17.164   8.860  0.1346 -0.2337 -0.0352
66961DGPE   PO436399  20.134  17.230   8.402 -0.0704 -0.2709 -0.0282
66961DGPE   GL136400  20.556  17.366   8.394 -0.0473  0.0708  0.1553
66961DGPE   GL236401  20.690  17.590   8.158  0.1426  0.1869  0.1486
66961DGPE   C1A36402  20.882  17.421   8.554 -0.1219  0.0660  0.0778
66961DGPE   C2A36403  21.250  17.458   8.587  0.2409  0.1585  0.0902
66961DGPE   D3A36404  21.614  17.780   8.431 -0.1809 -0.2207  0.5844
66961DGPE   C4A36405  21.846  17.913   8.700  0.1664  0.2552  0.4322
66961DGPE   C5A36406  22.100  18.087   9.031  0.0609  0.1333  0.0932
66961DGPE   C1B36407  20.939  17.313   8.044  0.1744 -0.3014 -0.1763
66961DGPE   C2B36408  21.307  17.424   8.096 -0.2888 -0.1865  0.0442
66961DGPE   D3B36409  21.778  17.496   8.042 -0.1576 -0.1021  0.3152
66961DGPE   C4B36410  22.041  17.600   7.598 -0.0933 -0.1188  0.0944
66961DGPE   C5B36411  22.194  17.614   7.154 -0.1620  0.2800 -0.0594
66962DGPE   NH336412   0.445  24.698   3.553  0.2639 -0.3322 -0.0011
66962DGPE   PO436413   0.398  24.691   4.044  0.1800 -0.2186  0.0719
66962DGPE   GL136414   0.154  24.459   4.173 -0.3111 -0.4091 -0.2210
66962DGPE   GL236415   0.242  24.326   4.413  0.1077 -0.0029 -0.0638
66962DGPE   C1A36416  35.192  24.176   4.219  0.0280 -0.1382 -0.0589
66962DGPE   C2A36417  34.902  24.119   4.481  0.0080 -0.1208 -0.1689
66962DGPE   D3A36418  34.708  23.811   4.796  0.1442 -0.1438  0.0910
66962DGPE   C4A36419  34.867  23.725   5.203 -0.0152  0.0515 -0.5620
66962DGPE   C5A36420  35.166  23.779   5.434 -0.0626 -0.0574 -0.0282
66962DGPE   C1B36421   0.228  24.463   4.807 -0.4403 -0.1118  0.0512
66962DGPE   C2B36422   0.349  24.472   5.268 -0.0698  0.1701  0.1190
66962DGPE   D3B36423   0.548  24.277   5.629  0.5128  0.2342 -0.0245
66962DGPE   C4B36424   0.832  23.982   5.870 -0.3817  0.0966 -0.1041
66962DGPE   C5B36425   1.201  23.906   6.077  0.2874 -0.1343 -0.4161
66963DGPE   NH336426   5.795  32.125  14.505  0.2176 -0.0634  0.0106
66963DGPE   PO436427   6.109  32.554  14.331  0.0793 -0.0357  0.0325
66963DGPE   GL136428   5.730  32.684  14.490 -0.1532  0.0375 -0.0247
66963DGPE   GL236429   5.699  32.603  14.835  0.1004  0.2841  0.0488
66963DGPE   C1A36430   5.435  32.973  14.753 -0.2571 -0.1587 -0.0351
66963DGPE   C2A36431   5.192  33.025  15.133 -0.2134 -0.2348  0.4593
66963DGPE   D3A36432   5.006  33.006  15.521 -0.2637  0.2720 -0.0340
66963DGPE   C4A36433   4.545  33.086  15.583 -0.1092  0.1883  0.1462
66963DGPE   C5A36434   4.235  33.157  15.294 -0.1409  0.1541 -0.0680
66963DGPE   C1B36435   5.611  32.698  15.245  0.1052  0.3657 -0.1714
66963DGPE   C2B36436   5.409  32.590  15.607  0.3515 -0.0708 -0.1231
66963DGPE   D3B36437   5.297  32.791  15.941  0.1040 -0.0916 -0.4339
66963DGPE   C4B36438   4.798  32.818  16.046  0.0996  0.4351 -0.0791
66963DGPE   C5B36439   4.319  32.900  16.144 -0.3236 -0.0994  0.0978
66964DGPE   NH336440   8.138  35.300  15.743 -0.3185  0.0167  0.2406
66964DGPE   PO436441   7.880  34.955  15.484  0.2319  0.1402  0.3221
66964DGPE   GL136442   7.704  34.968  15.813  0.2964 -0.3973  0.3495
66964DGPE   GL236443   7.428  35.130  15.827 -0.2495 -0.1134 -0.1489
66964DGPE   C1A36444   7.668  35.059  16.280  0.0357  0.1398 -0.3178
66964DGPE   C2A36445   7.410  35.047  16.678  0.1663  0.0592  0.1322
66964DGPE   D3A36446   7.340  35.092  17.202  0.1144 -0.0209  0.1474
66964DGPE   C4A36447   7.345  34.835  17.437  0.0846  0.0363 -0.4265
66964DGPE   C5A36448   7.501  34.437  17.452 -0.3344  0.0453  0.1459
66964DGPE   C1B36449   7.170  35.281  16.145  0.2137  0.1280 -0.1533
66964DGPE   C2B36450   6.942  35.348  16.518 -0.1137 -0.0255  0.0836
66964DGPE   D3B36451   6.499   0.116  16.623  0.0563  0.0067 -0.2821
66964DGPE   C4B36452   6.222   0.062  16.858  0.1468  0.3999  0.2988
66964DGPE   C5B36453   5.979   0.000  17.120 -0.2176  0.1063 -0.1603
66965DGPE   NH336454  16.722   8.942  13.726  0.0101  0.0232  0.2129
66965DGPE   PO436455  16.495   8.706  14.091 -0.0727  0.0421 -0.0459
66965DGPE   GL136456  16.660   8.356  14.220  0.0208  0.0320  0.2365
66965DGPE   GL236457  16.888   8.217  14.114 -0.1246 -0.1021 -0.1013
66965DGPE   C1A36458  16.692   8.031  14.561 -0.1439 -0.4324  0.0440
66965DGPE   C2A36459  16.530   7.782  14.706 -0.0752 -0.3499  0.3853
66965DGPE   D3A36460  16.327   7.584  14.997  0.3104  0.0497 -0.0818
66965DGPE   C4A36461  16.220   7.147  15.013  0.0259 -0.0445  0.3049
66965DGPE   C5A36462  16.215   6.911  15.314 -0.0762 -0.1343 -0.1147
66965DGPE   C1B36463  17.110   8.265  14.451  0.2490 -0.2767  0.1450
66965DGPE   C2B36464  17.018   8.263  14.867 -0.0294  0.3336  0.1149
66965DGPE   D3B36465  17.267   8.100  15.177  0.1509  0.2155 -0.0559
66965DGPE   C4B36466  17.366   8.410  15.407  0.1464  0.0578  0.0150
66965DGPE   C5B36467  17.547   8.591  15.845  0.0721  0.2366  0.0234
66966DGPE   NH336468   7.940  12.176  12.859  0.2543  0.0545  0.1975
66966DGPE   PO436469   8.006  11.876  13.086  0.1932 -0.1381 -0.0030
66966DGPE   GL136470   7.594  11.838  13.263 -0.1643  0.0684  0.0005
66966DGPE   GL236471   7.574  12.168  13.313 -0.0020 -0.1313  0.0363
66966DGPE   C1A36472   7.323  11.775  13.607 -0.1152 -0.0106  0.1258
66966DGPE   C2A36473   7.314  11.578  14.040  0.1498 -0.2110  0.1294
66966DGPE   D3A36474   7.660  11.445  14.238 -0.0329 -0.3126 -0.0943
66966DGPE   C4A36475   8.032  11.545  14.362 -0.0060 -0.0698 -0.0427
66966DGPE   C5A36476   8.240  11.389  14.682 -0.4257 -0.0424  0.1487
66966DGPE   C1B36477   7.181  12.279  13.610 -0.0549  0.1703  0.5117
66966DGPE   C2B36478   7.113  12.308  14.073  0.2828 -0.0597  0.2481
66966DGPE   D3B36479   6.950  12.400  14.592  0.0080 -0.1035  0.1069
66966DGPE   C4B36480   6.541  12.443  14.854 -0.1111 -0.1851 -0.0219
66966DGPE   C5B36481   6.322  12.450  15.215  0.0833  0.1011  0.2201
66967DAPE   NH336482  34.289  14.715   1.678  0.0934  0.2396  0.0978
66967DAPE   PO436483  34.674  14.356   1.577 -0.0646 -0.1960  0.3519
66967DAPE   GL136484  34.372  14.266   1.957  0.2273 -0.1544  0.1858
66967DAPE   GL236485  34.094  14.498   2.046 -0.4170 -0.2402 -0.1713
66967DAPE   D1A36486  34.277  14.245   2.471 -0.0988  0.0455  0.1026
66967DAPE   D2A36487  34.525  13.945   2.549 -0.0582 -0.3394 -0.0578
66967DAPE   D3A36488  33.998  13.907   2.684 -0.2486 -0.0713  0.0957
66967DAPE   D4A36489  33.950  13.894   3.178 -0.2726 -0.0276  0.1185
66967DAPE   C5A36490  33.572  14.091   3.405 -0.1613  0.4309  0.1299
66967DAPE   D1B36491  33.846  14.116   2.172 -0.0080  0.2352 -0.1893
66967DAPE   D2B36492  33.731  14.353   2.449  0.1628  0.0354 -0.1238
66967DAPE   D3B36493  33.561  14.167   2.898  0.0896 -0.0288 -0.0288
66967DAPE   D4B36494  33.513  13.801   2.685  0.1216  0.0736 -0.0831
66967DAPE   C5B36495  33.181  13.506   2.519 -0.3068  0.0392  0.1592
66968DAPE   NH336496  20.908  14.471   5.664 -0.1816  0.1127  0.1089
66968DAPE   PO436497  20.827  14.719   5.390  0.1859  0.1757  0.0192
66968DAPE   GL136498  21.195  14.776   5.279  0.3011 -0.0947 -0.2257
66968DAPE   GL236499  21.351  14.750   5.577 -0.0219 -0.0813  0.3096
66968DAPE   D1A36500  21.355  14.717   4.959  0.0769  0.2018 -0.2050
66968DAPE   D2A36501  21.720  14.946   4.861  0.2951 -0.3202 -0.1762
66968DAPE   D3A36502  21.952  14.750   5.086  0.0331 -0.0537  0.0413
66968DAPE   D4A36503  22.273  15.000   4.798  0.0990 -0.2638 -0.1306
66968DAPE   C5A36504  22.531  15.325   4.887 -0.2097 -0.1233 -0.1550
66968DAPE   D1B36505  21.657  14.552   5.427  0.1765  0.2440 -0.1471
66968DAPE   D2B36506  21.507  14.304   5.146  0.0517  0.0439 -0.0795
66968DAPE   D3B36507  21.842  14.401   4.795 -0.0667  0.1332 -0.0969
66968DAPE   D4B36508  22.288  14.436   4.846  0.2064  0.0601 -0.2622
66968DAPE   C5B36509  22.589  14.045   4.846  0.2234 -0.0287  0.0315
66969DAPE   NH336510  19.872  16.221   7.182 -0.2294  0.0660 -0.0837
66969DAPE   PO436511  20.191  16.334   6.763  0.1105  0.1102 -0.1318
66969DAPE   GL136512  20.607  16.516   6.682 -0.1493  0.1106 -0.0576
66969DAPE   GL236513  20.636  16.793   6.553  0.0190 -0.0219  0.1534
66969DAPE   D1A36514  21.013  16.445   6.917 -0.0286  0.1529  0.1329
66969DAPE   D2A36515  21.172  16.216   6.610  0.3209 -0.0820 -0.1540
66969DAPE   D3A36516  21.092  16.559   6.288 -0.1254  0.0348  0.1811
66969DAPE   D4A36517  21.210  16.857   6.549 -0.1973  0.0934 -0.1233
66969DAPE   C5A36518  21.357  16.857   7.032  0.0484  0.2276 -0.1900
66969DAPE   D1B36519  20.734  17.277   6.615 -0.1404  0.3777  0.1834
66969DAPE   D2B36520  21.203  17.337   6.740  0.1877 -0.2611  0.0503
66969DAPE   D3B36521  21.136  17.695   6.696 -0.1724 -0.0102 -0.3814
66969DAPE   D4B36522  21.517  17.831   6.763  0.1699  0.0321 -0.1101
66969DAPE   C5B36523  21.698  17.574   7.118  0.2185  0.0043  0.0180
66970DAPE   NH336524   9.488  14.248  13.550 -0.0123 -0.1887 -0.0179
66970DAPE   PO436525   9.803  14.429  13.719 -0.0351 -0.4279 -0.2448
66970DAPE   GL136526   9.576  14.516  14.032 -0.1472  0.1815 -0.0714
66970DAPE   GL236527   9.790  14.439  14.264  0.2276 -0.0747  0.0661
66970DAPE   D1A36528   9.341  14.720  14.412 -0.1473  0.0938 -0.1261
66970DAPE   D2A36529   9.511  14.592  14.700 -0.0339 -0.0266  0.1042
66970DAPE   D3A36530   9.322  14.827  15.049  0.0517 -0.1597  0.2759
66970DAPE   D4A36531   9.503  15.217  15.296 -0.0223  0.4538  0.0987
66970DAPE   C5A36532   9.157  15.449  15.402  0.1105  0.1224  0.0212
66970DAPE   D1B36533   9.979  14.218  14.520  0.2752  0.1828  0.0724
66970DAPE   D2B36534   9.857  14.319  14.933  0.1899  0.1067 -0.0170
66970DAPE   D3B36535   9.754  14.265  15.336 -0.0653  0.0110 -0.0141
66970DAPE   D4B36536   9.364  14.355  15.192 -0.0910 -0.0115  0.0726
66970DAPE   C5B36537   9.159  13.958  15.217 -0.2478  0.3650  0.1967
66971DAPE   NH336538   6.355   2.912  13.831 -0.2137 -0.1410  0.0836
66971DAPE   PO436539   6.394   2.490  13.835  0.0213  0.1693 -0.3499
66971DAPE   GL136540   6.054   2.560  14.037 -0.1350  0.1669 -0.0159
66971DAPE   GL236541   6.057   2.731  14.239  0.1120  0.0896 -0.2602
66971DAPE   D1A36542   5.645   2.472  13.973  0.0222  0.0140 -0.0530
66971DAPE   D2A36543   5.699   2.022  13.838 -0.0224  0.0503 -0.1151
66971DAPE   D3A36544   5.361   2.135  13.548  0.1569 -0.1407  0.2131
66971DAPE   D4A36545   5.190   2.353  13.903 -0.4530 -0.0113 -0.2654
66971DAPE   C5A36546   5.302   2.230  14.268  0.2022  0.3953  0.2538
66971DAPE   D1B36547   5.748   2.609  14.489 -0.2084 -0.0346  0.0155
66971DAPE   D2B36548   5.319   2.670  14.486 -0.0706 -0.0491  0.2347
66971DAPE   D3B36549   5.071   2.776  14.106 -0.0736 -0.1454  0.2020
66971DAPE   D4B36550   4.633   2.796  14.037 -0.2018 -0.2189  0.1230
66971DAPE   C5B36551   4.392   3.043  14.353 -0.0731  0.0980 -0.0345
66972DAPE   NH336552  28.989  23.808   0.725  0.0220 -0.2775  0.1788
66972DAPE   PO436553  29.059  24.127   0.974  0.1116 -0.1432 -0.1137
66972DAPE   GL136554  28.840  23.861   1.280  0.2208  0.1470  0.1959
66972DAPE   GL236555  28.620  23.633   1.108  0.0257 -0.2521  0.1575
66972DAPE   D1A36556  28.869  23.741   1.633 -0.1865 -0.0394 -0.0818
66972DAPE   D2A36557  29.207  23.426   1.762  0.1286  0.0642 -0.0674
66972DAPE   D3A36558  29.056  23.128   1.856 -0.2005 -0.1609  0.1794
66972DAPE   D4A36559  29.191  22.838   2.055 -0.2164  0.1886 -0.1357
66972DAPE   C5A36560  29.143  22.639   2.426  0.4157 -0.0656 -0.0924
66972DAPE   D1B36561  28.355  23.735   1.410  0.0033  0.3599 -0.3296
66972DAPE   D2B36562  28.412  23.637   1.729 -0.1958  0.1963 -0.1665
66972DAPE   D3B36563  28.812  23.557   2.063 -0.0437 -0.1936 -0.0409
66972DAPE   D4B36564  28.589  23.183   2.020 -0.0420 -0.1895 -0.1132
66972DAPE   C5B36565  28.686  22.839   2.179 -0.0809 -0.2140 -0.0684
66973DAPE   NH336566  12.416   1.249  13.519  0.0870  0.2929 -0.1735
66973DAPE   PO436567  12.093   1.208  13.867  0.0167  0.3584  0.0317
66973DAPE   GL136568  12.159   1.423  14.230 -0.0730  0.3433  0.1655
66973DAPE   GL236569  11.927   1.673  14.223 -0.0136 -0.2405  0.1079
66973DAPE   D1A36570  12.151   1.345  14.709  0.0351 -0.0807 -0.0055
66973DAPE   D2A36571  11.699   1.458  14.698 -0.0330 -0.0949 -0.1563
66973DAPE   D3A36572  11.845   1.545  15.085  0.1294  0.2422  0.0830
66973DAPE   D4A36573  12.020   1.928  14.872 -0.2973 -0.0819 -0.0614
66973DAPE   C5A36574  11.803   2.058  14.509  0.0159  0.1656 -0.0086
66973DAPE   D1B36575  12.445   1.827  14.211  0.3874  0.2749  0.1146
66973DAPE   D2B36576  12.395   1.789  14.615 -0.0763 -0.0008  0.1951
66973DAPE   D3B36577  12.753   1.943  14.752  0.0462  0.1042  0.2550
66973DAPE   D4B36578  12.639   1.762  15.078 -0.1360 -0.1779 -0.1681
66973DAPE   C5B36579  12.276   1.901  15.290 -0.2502 -0.0972  0.0402
66974DAPE   NH336580   8.888   9.728  13.645 -0.1180  0.1463  0.1143
66974DAPE   PO436581   8.795  10.178  13.734 -0.0222 -0.1148 -0.2890
66974DAPE   GL136582   8.647  10.679  13.887 -0.0275 -0.0982  0.1166
66974DAPE   GL236583   8.425  10.622  14.148 -0.3424 -0.3906 -0.2433
66974DAPE   D1A36584   8.696  11.078  13.992  0.0300 -0.2596  0.2822
66974DAPE   D2A36585   8.786  11.281  13.521 -0.1374  0.0051 -0.1304
66974DAPE   D3A36586   8.574  11.540  13.743  0.2430  0.1021 -0.0611
66974DAPE   D4A36587   8.203  11.315  13.960 -0.0242 -0.3519 -0.1602
66974DAPE   C5A36588   7.782  11.440  13.765  0.1275 -0.4829  0.0967
66974DAPE   D1B36589   8.314  11.001  14.383 -0.1649  0.0003 -0.1654
66974DAPE   D2B36590   8.005  10.998  14.293  0.0615 -0.0991 -0.1635
66974DAPE   D3B36591   7.756  11.156  14.639  0.2620  0.0870 -0.3902
66974DAPE   D4B36592   7.797  11.562  14.870 -0.5306 -0.1102 -0.2496
66974DAPE   C5B36593   7.857  11.942  14.565  0.0778 -0.1871  0.1163
66975DAPE   NH336594  29.545  14.668   0.274  0.2951  0.0760 -0.2907
66975DAPE   PO436595  29.972  14.818   0.348  0.2998 -0.1789 -0.0801
66975DAPE   GL136596  30.066  14.738   0.850 -0.0539 -0.0750  0.0834
66975DAPE   GL236597  29.868  14.579   1.123  0.0006 -0.2659  0.0937
66975DAPE   D1A36598  30.279  14.870   1.199  0.0050 -0.0884  0.0626
66975DAPE   D2A36599  30.267  14.371   1.273 -0.3340 -0.4239 -0.0592
66975DAPE   D3A36600  30.539  14.297   0.945  0.2107  0.1115  0.2957
66975DAPE   D4A36601  30.752  14.096   1.149  0.0303  0.1900  0.1911
66975DAPE   C5A36602  30.554  14.024   1.490 -0.0055  0.0977 -0.0529
66975DAPE   D1B36603  29.948  14.169   0.957  0.2659  0.1730  0.0223
66975DAPE   D2B36604  30.163  13.817   1.194  0.2922  0.0040  0.2165
66975DAPE   D3B36605  29.970  13.727   1.586  0.0938  0.0645  0.1269
66975DAPE   D4B36606  30.082  14.052   1.773 -0.0432  0.1868 -0.3030
66975DAPE   C5B36607  29.991  14.134   2.277  0.1114  0.2515  0.0515
66976DAPE   NH336608  11.327  24.091  18.134 -0.1249  0.0951  0.2505
66976DAPE   PO436609  11.427  24.501  18.073  0.2150 -0.0704 -0.0334
66976DAPE   GL136610  11.215  24.653  18.357 -0.1015 -0.0012 -0.0507
66976DAPE   GL236611  11.291  24.353  18.583 -0.3601 -0.0519 -0.3147
66976DAPE   D1A36612  10.944  24.794  18.671  0.0380  0.1498 -0.0621
66976DAPE   D2A36613  10.905  25.119  18.958  0.2125  0.2616 -0.1877
66976DAPE   D3A36614  10.585  25.269  19.104 -0.2075  0.3390  0.0230
66976DAPE   D4A36615  10.735  25.471  19.470 -0.1062 -0.1494  0.2920
66976DAPE   C5A36616  11.186  25.660  19.739  0.0041  0.0111  0.0698
66976DAPE   D1B36617  11.656  24.498  18.844  0.1212  0.0277  0.0073
66976DAPE   D2B36618  11.681  24.232  19.282 -0.0362  0.0941  0.0268
66976DAPE   D3B36619  11.958  24.565  19.429 -0.2064  0.1089  0.1494
66976DAPE   D4B36620  12.002  24.537  19.876 -0.0031 -0.0917  0.2540
66976DAPE   C5B36621  12.097  24.318  20.231 -0.2786 -0.0884  0.1245
66977DAPE   NH336622   0.500  12.787   2.040 -0.1406 -0.0903 -0.0253
66977DAPE   PO436623   0.048  12.832   1.883  0.0403 -0.2792  0.0761
66977DAPE   GL136624  34.946  12.964   1.960  0.1461 -0.1627  0.0402
66977DAPE   GL236625  34.987  12.957   2.270 -0.3284  0.2013 -0.0131
66977DAPE   D1A36626  34.522  13.222   1.919 -0.1266  0.0628  0.0076
66977DAPE   D2A36627  34.628  13.537   2.221  0.2590  0.3420 -0.0060
66977DAPE   D3A36628  34.697  13.411   2.624 -0.0815 -0.4215  0.0935
66977DAPE   D4A36629  34.349  13.665   2.931 -0.2789  0.0611 -0.0629
66977DAPE   C5A36630  33.883  13.407   2.885 -0.2608 -0.1299  0.1057
66977DAPE   D1B36631  34.993  12.729   2.660 -0.2687  0.0189  0.0666
66977DAPE   D2B36632  35.177  12.374   2.831  0.0550 -0.1475 -0.2730
66977DAPE   D3B36633  34.935  12.024   2.914 -0.3148 -0.3562 -0.1814
66977DAPE   D4B36634  35.152  11.749   2.933 -0.0057  0.2881 -0.0596
66977DAPE   C5B36635   0.037  11.693   3.234 -0.0040  0.0937 -0.1232
66978DAPE   NH336636  17.911   0.571   9.366 -0.5049 -0.5057  0.2014
66978DAPE   PO436637  17.997   0.240   9.583 -0.0300  0.2144 -0.1540
66978DAPE   GL136638  18.207   0.300   9.933 -0.2807  0.3377  0.1924
66978DAPE   GL236639  17.971   0.611   9.926  0.0875  0.0956 -0.0624
66978DAPE   D1A36640  18.292  35.340  10.210 -0.0431 -0.0722 -0.3970
66978DAPE   D2A36641  18.485   0.323  10.400 -0.0354 -0.2704  0.0407
66978DAPE   D3A36642  18.584   0.365  10.933 -0.1662  0.1291 -0.3462
66978DAPE   D4A36643  18.816   0.136  11.400  0.0871  0.4527  0.4310
66978DAPE   C5A36644  19.008   0.377  11.651 -0.2456 -0.1256 -0.2921
66978DAPE   D1B36645  17.932   0.447  10.375  0.0200 -0.3315 -0.0495
66978DAPE   D2B36646  17.521   0.298  10.523  0.3964 -0.2274  0.2683
66978DAPE   D3B36647  17.763   0.206  10.902 -0.1232 -0.3992 -0.0864
66978DAPE   D4B36648  17.941   0.055  11.173 -0.0175 -0.1122  0.0072
66978DAPE   C5B36649  18.308   0.248  11.347  0.1193  0.1303 -0.0765
66979DAPE   NH336650  21.572  31.504   6.637 -0.0256 -0.0482  0.1975
66979DAPE   PO436651  21.756  31.585   7.096 -0.1585 -0.1240 -0.1317
66979DAPE   GL136652  21.898  31.557   7.518  0.3344 -0.0543 -0.2217
66979DAPE   GL236653  21.726  31.858   7.551 -0.1424 -0.1039  0.3843
66979DAPE   D1A36654  21.871  31.551   7.980  0.0200 -0.2205 -0.0681
66979DAPE   D2A36655  22.246  31.604   8.126  0.1537 -0.1084 -0.1893
66979DAPE   D3A36656  22.346  31.461   7.762 -0.0046 -0.1324 -0.3645
66979DAPE   D4A36657  22.681  31.240   8.004  0.4886 -0.0823  0.1024
66979DAPE   C5A36658  22.947  31.257   8.299  0.1503 -0.2485 -0.3314
66979DAPE   D1B36659  22.200  31.990   7.822  0.3230 -0.0711 -0.2169
66979DAPE   D2B36660  22.225  32.498   7.987  0.0095 -0.2958  0.0018
66979DAPE   D3B36661  22.163  32.465   8.453 -0.0766  0.2845  0.0314
66979DAPE   D4B36662  22.406  32.100   8.347  0.4072 -0.1927  0.0349
66979DAPE   C5B36663  22.679  31.938   8.796 -0.0105 -0.2554 -0.0148
66980DAPE   NH336664  22.759  20.077   2.975  0.0266 -0.1973  0.0305
66980DAPE   PO436665  22.991  20.496   3.055  0.0617  0.6216 -0.0464
66980DAPE   GL136666  23.260  20.385   3.376  0.1567  0.2711 -0.3084
66980DAPE   GL236667  23.200  20.026   3.427 -0.2624 -0.5304  0.3324
66980DAPE   D1A36668  23.403  20.662   3.744  0.0458 -0.0075 -0.0406
66980DAPE   D2A36669  23.611  20.286   3.734 -0.4429  0.0444 -0.0523
66980DAPE   D3A36670  24.052  20.433   3.695 -0.1713  0.3503  0.1799
66980DAPE   D4A36671  24.313  20.275   3.521 -0.1783 -0.0558 -0.0618
66980DAPE   C5A36672  24.301  19.983   3.366  0.3265  0.1099 -0.0174
66980DAPE   D1B36673  23.143  20.178   3.843 -0.0023  0.2970 -0.0421
66980DAPE   D2B36674  23.357  19.821   3.995  0.0938 -0.0027  0.1292
66980DAPE   D3B36675  23.431  19.680   3.607 -0.1213  0.0312 -0.1660
66980DAPE   D4B36676  23.889  19.835   3.656  0.1478  0.2277 -0.2514
66980DAPE   C5B36677  23.868  19.991   4.042 -0.0882 -0.2279 -0.1028
66981DAPE   NH336678  15.054   9.989  14.484  0.0105  0.1221  0.0358
66981DAPE   PO436679  15.113  10.359  14.583  0.0628 -0.3561  0.0614
66981DAPE   GL136680  14.946  10.205  14.919  0.2339 -0.0703  0.2439
66981DAPE   GL236681  14.717   9.816  14.835  0.2082 -0.2755  0.1838
66981DAPE   D1A36682  14.721   9.952  15.298  0.0669 -0.3673  0.2041
66981DAPE   D2A36683  14.847  10.071  15.771 -0.0747 -0.1304 -0.2109
66981DAPE   D3A36684  14.869   9.745  15.985 -0.0644  0.0607 -0.0538
66981DAPE   D4A36685  15.198  10.000  16.107  0.2413 -0.0798  0.0152
66981DAPE   C5A36686  15.674   9.996  15.987  0.3794  0.1747 -0.3590
66981DAPE   D1B36687  14.329  10.039  15.034  0.1630 -0.0427  0.0088
66981DAPE   D2B36688  14.125   9.777  15.310 -0.1400  0.1115  0.0149
66981DAPE   D3B36689  14.383   9.826  15.672 -0.2023 -0.0153 -0.0711
66981DAPE   D4B36690  14.133  10.101  15.656 -0.1347 -0.0954 -0.1256
66981DAPE   C5B36691  13.881  10.068  16.090 -0.0351  0.0663 -0.0597
66982DAPE   NH336692  24.905   9.240   3.383  0.0831  0.2120 -0.2639
66982DAPE   PO436693  24.624   8.780   3.252  0.1583  0.2098  0.1216
66982DAPE   GL136694  24.935   8.651   3.609 -0.0546 -0.1661  0.0325
66982DAPE   GL236695  24.997   8.944   3.895 -0.0223  0.2166 -0.2274
66982DAPE   D1A36696  25.162   8.328   3.604  0.1686  0.2822  0.2153
66982DAPE   D2A36697  25.411   8.547   3.854 -0.0631  0.2209  0.2963
66982DAPE   D3A36698  25.380   8.777   4.278 -0.0909  0.1333 -0.1713
66982DAPE   D4A36699  25.654   8.969   4.531 -0.0142 -0.1017 -0.1536
66982DAPE   C5A36700  26.008   9.235   4.433  0.0941  0.0231 -0.1246
66982DAPE   D1B36701  25.276   9.197   3.985 -0.3053  0.2945  0.1833
66982DAPE   D2B36702  25.647   9.083   3.908 -0.1391  0.1431  0.3733
66982DAPE   D3B36703  25.654   9.549   3.992 -0.2645 -0.3628  0.0670
66982DAPE   D4B36704  25.697   9.725   4.493  0.0032  0.0403  0.1830
66982DAPE   C5B36705  25.855  10.129   4.541 -0.3630  0.0436 -0.1478
66983DAPE   NH336706  29.467   9.942   0.542  0.1027 -0.0089 -0.0337
66983DAPE   PO436707  29.119   9.688   0.657  0.0072 -0.0875 -0.0993
66983DAPE   GL136708  29.361   9.794   1.017  0.0395  0.0768 -0.2890
66983DAPE   GL236709  29.536   9.529   1.225  0.0961 -0.3130  0.0147
66983DAPE   D1A36710  29.700  10.054   1.067 -0.2916  0.2267  0.3915
66983DAPE   D2A36711  29.702  10.161   1.478  0.0099 -0.3471 -0.0375
66983DAPE   D3A36712  29.544  10.358   1.829 -0.1197  0.3524  0.1617
66983DAPE   D4A36713  29.898  10.299   2.049 -0.1435 -0.1293  0.2051
66983DAPE   C5A36714  29.999   9.974   1.926  0.2904 -0.0224  0.0102
66983DAPE   D1B36715  29.611   9.715   1.681  0.2809 -0.0912 -0.1628
66983DAPE   D2B36716  29.430   9.640   2.049 -0.1396 -0.1090  0.0821
66983DAPE   D3B36717  29.675   9.173   1.964  0.0028 -0.0091 -0.0259
66983DAPE   D4B36718  29.487   9.109   2.421  0.2421  0.1816  0.1666
66983DAPE   C5B36719  29.768   9.305   2.817  0.2720 -0.0266  0.0711
66984DAPE   NH336720   6.132  23.689  11.356  0.1417  0.1551 -0.1238
66984DAPE   PO436721   6.498  23.506  11.483  0.1621 -0.0037  0.0342
66984DAPE   GL136722   6.071  23.362  11.713 -0.0217  0.1591 -0.0218
66984DAPE   GL236723   5.799  23.104  11.659  0.2352 -0.0528 -0.0551
66984DAPE   D1A36724   5.650  23.357  12.017 -0.0129 -0.0036  0.1235
66984DAPE   D2A36725   5.470  23.636  12.099  0.2620 -0.1527 -0.2228
66984DAPE   D3A36726   5.659  23.537  12.511 -0.0830 -0.3152 -0.0328
66984DAPE   D4A36727   5.667  23.165  12.901  0.1843  0.1324  0.0659
66984DAPE   C5A36728   5.295  22.894  13.048  0.0044 -0.0649  0.2444
66984DAPE   D1B36729   5.369  23.085  11.621 -0.0114  0.0241 -0.1247
66984DAPE   D2B36730   5.338  22.931  12.061 -0.2409 -0.0524  0.1327
66984DAPE   D3B36731   5.359  23.153  12.443  0.2450  0.2528  0.1302
66984DAPE   D4B36732   4.922  23.033  12.264  0.3128  0.0155  0.1033
66984DAPE   C5B36733   4.827  22.594  12.079 -0.1405  0.1435  0.1126
66985DAPE   NH336734  33.046   8.671   2.597 -0.0176 -0.1223 -0.1475
66985DAPE   PO436735  33.281   8.428   2.895 -0.4322  0.3304  0.1288
66985DAPE   GL136736  33.486   8.635   3.247 -0.0847  0.2195 -0.2150
66985DAPE   GL236737  33.234   8.885   3.365  0.2856 -0.1228 -0.1590
66985DAPE   D1A36738  33.491   8.617   3.727  0.1390 -0.2160 -0.0645
66985DAPE   D2A36739  33.761   8.640   4.112 -0.0045  0.2408  0.2134
66985DAPE   D3A36740  33.584   8.989   4.281  0.0321  0.4130  0.2733
66985DAPE   D4A36741  33.814   9.217   3.942  0.0070 -0.0393 -0.1785
66985DAPE   C5A36742  33.826   9.074   3.608 -0.2536  0.2285  0.1421
66985DAPE   D1B36743  32.872   8.779   3.736 -0.0885  0.1901  0.2526
66985DAPE   D2B36744  33.097   8.632   4.096 -0.0998  0.2609 -0.1062
66985DAPE   D3B36745  33.241   9.072   3.843 -0.2967  0.1466 -0.4381
66985DAPE   D4B36746  33.167   9.267   4.262  0.0068 -0.0827 -0.1305
66985DAPE   C5B36747  33.579   9.521   4.404  0.0404 -0.1084 -0.0281
66986DAPE   NH336748  29.217  13.315   0.357 -0.1106 -0.3043  0.0039
66986DAPE   PO436749  29.221  13.780   0.076 -0.1529 -0.0610 -0.1704
66986DAPE   GL136750  29.530  13.783   0.431  0.0196  0.2635 -0.3729
66986DAPE   GL236751  29.430  13.757   0.773 -0.1144  0.1421 -0.1314
66986DAPE   D1A36752  29.893  13.705   0.751  0.1058  0.0813  0.4747
66986DAPE   D2A36753  30.358  13.916   0.713 -0.0852  0.2026  0.1455
66986DAPE   D3A36754  30.599  13.696   0.916  0.1116 -0.0078  0.1833
66986DAPE   D4A36755  30.350  13.331   1.064 -0.2077  0.1471 -0.0555
66986DAPE   C5A36756  29.851  13.372   1.187  0.1006  0.1484  0.2578
66986DAPE   D1B36757  29.231  14.020   0.999 -0.0989  0.4401  0.0580
66986DAPE   D2B36758  29.610  13.883   1.198  0.5337  0.0775 -0.1572
66986DAPE   D3B36759  29.750  14.182   1.433  0.1001 -0.2349 -0.2524
66986DAPE   D4B36760  29.551  14.064   1.751 -0.0213 -0.0794 -0.1338
66986DAPE   C5B36761  29.767  13.765   2.060 -0.2234 -0.2677  0.3114
66987DAPE   NH336762   4.424  17.387   6.700  0.1289  0.1614  0.1422
66987DAPE   PO436763   4.512  17.115   6.272 -0.0436 -0.2570 -0.4039
66987DAPE   GL136764   4.155  17.424   6.194  0.0330  0.1147 -0.1522
66987DAPE   GL236765   4.133  17.683   5.893  0.0144  0.4251 -0.2632
66987DAPE   D1A36766   3.744  17.250   6.322  0.0549 -0.0744  0.0887
66987DAPE   D2A36767   3.547  16.884   6.238 -0.0331 -0.1662 -0.1083
66987DAPE   D3A36768   3.137  17.038   6.324  0.0410 -0.3434 -0.1164
66987DAPE   D4A36769   3.292  17.411   6.575 -0.0247 -0.0604 -0.1131
66987DAPE   C5A36770   3.008  17.572   6.852  0.1289 -0.2075 -0.0083
66987DAPE   D1B36771   4.027  18.052   5.686 -0.0935  0.3267 -0.2288
66987DAPE   D2B36772   3.578  18.280   5.639 -0.0165 -0.0042  0.1542
66987DAPE   D3B36773   3.567  18.110   6.001  0.2767  0.0458 -0.0556
66987DAPE   D4B36774   3.871  18.348   6.070 -0.3571 -0.1902  0.2669
66987DAPE   C5B36775   3.705  18.361   6.473  0.0463 -0.4787 -0.0434
66988DAPE   NH336776  20.206  18.082   6.815 -0.1277  0.0062  0.0694
66988DAPE   PO436777  20.115  18.384   7.178  0.0263 -0.1087  0.0872
66988DAPE   GL136778  20.600  18.345   7.225  0.1638 -0.0461  0.0516
66988DAPE   GL236779  20.692  18.643   7.509  0.1634  0.0776 -0.1007
66988DAPE   D1A36780  21.099  18.432   7.248  0.2191 -0.0846  0.0008
66988DAPE   D2A36781  21.497  18.286   7.470 -0.2597 -0.0909 -0.0448
66988DAPE   D3A36782  21.850  18.034   7.358 -0.0840 -0.1378 -0.1636
66988DAPE   D4A36783  22.242  18.177   7.440  0.0774  0.1209  0.0212
66988DAPE   C5A36784  22.503  17.908   7.601  0.1352  0.0337 -0.1619
66988DAPE   D1B36785  21.138  18.891   7.558 -0.1657 -0.0480 -0.1324
66988DAPE   D2B36786  21.486  18.772   7.340 -0.2126 -0.1925  0.0272
66988DAPE   D3B36787  21.931  18.598   7.310  0.2494  0.2387  0.2518
66988DAPE   D4B36788  22.153  18.481   6.921  0.0433  0.0550 -0.1483
66988DAPE   C5B36789  22.084  18.012   6.834 -0.1211 -0.2777  0.2054
66989DAPE   NH336790  28.251   0.256   6.051 -0.1371  0.1202 -0.2876
66989DAPE   PO436791  28.128   0.524   6.337 -0.0384  0.0570 -0.1016
66989DAPE   GL136792  27.763   0.277   6.508  0.1764  0.1531  0.5395
66989DAPE   GL236793  27.805   0.085   6.198  0.2361 -0.1938  0.0957
66989DAPE   D1A36794  27.543  35.322   6.622  0.3754 -0.0904 -0.6014
66989DAPE   D2A36795  27.796  35.351   6.986 -0.0309  0.0357  0.3095
66989DAPE   D3A36796  28.098   0.221   6.897  0.0327  0.1261 -0.0913
66989DAPE   D4A36797  27.928   0.338   7.287 -0.1409 -0.2799  0.0444
66989DAPE   C5A36798  28.173   0.312   7.769 -0.0013 -0.0383  0.1214
66989DAPE   D1B36799  28.049  35.203   6.509  0.0946 -0.1259 -0.1034
66989DAPE   D2B36800  27.815  34.878   6.706  0.0127 -0.2059  0.0256
66989DAPE   D3B36801  28.081  34.850   6.991 -0.0567  0.2424  0.0587
66989DAPE   D4B36802  27.843  34.946   7.278 -0.0810 -0.0636  0.4144
66989DAPE   C5B36803  27.839  35.324   7.621  0.0124  0.3357  0.3769
66990DAPE   NH336804  17.732   5.257  12.461  0.0274 -0.1708  0.4088
66990DAPE   PO436805  18.101   5.268  12.281  0.2394 -0.1243 -0.0084
66990DAPE   GL136806  18.217   5.109  12.693 -0.2331 -0.2477 -0.2603
66990DAPE   GL236807  18.379   4.867  12.742  0.0477  0.2435  0.1298
66990DAPE   D1A36808  18.170   5.261  13.065 -0.0622  0.0295 -0.1978
66990DAPE   D2A36809  17.990   4.785  13.017 -0.0374  0.3497  0.0618
66990DAPE   D3A36810  17.969   4.790  13.430  0.2837 -0.3036 -0.0682
66990DAPE   D4A36811  17.630   4.364  13.614 -0.0796 -0.1130  0.1251
66990DAPE   C5A36812  17.165   4.236  13.526 -0.1579  0.1705 -0.0653
66990DAPE   D1B36813  18.456   4.658  13.151  0.1076  0.1396  0.2135
66990DAPE   D2B36814  18.629   4.242  13.240 -0.2015 -0.1060  0.3535
66990DAPE   D3B36815  18.868   4.016  12.933  0.2084  0.2173 -0.0139
66990DAPE   D4B36816  19.258   4.107  13.220 -0.1952 -0.0007  0.1128
66990DAPE   C5B36817  19.501   4.515  13.383 -0.2591 -0.1636 -0.2609
66991DAPE   NH336818  23.394  16.369   1.879  0.1620 -0.2028 -0.1799
66991DAPE   PO436819  23.126  16.244   2.185 -0.0620 -0.2014  0.4235
66991DAPE   GL136820  23.277  16.219   2.651  0.0704  0.3847 -0.1060
66991DAPE   GL236821  23.624  16.296   2.723  0.0872  0.1082  0.1781
66991DAPE   D1A36822  23.124  16.412   2.966 -0.2727  0.2284 -0.2795
66991DAPE   D2A36823  22.933  16.563   3.283  0.0673  0.0249  0.1026
66991DAPE   D3A36824  23.058  16.451   3.711  0.1553  0.3169  0.2292
66991DAPE   D4A36825  23.435  16.569   3.841  0.1454 -0.0815 -0.0368
66991DAPE   C5A36826  23.873  16.547   3.712 -0.2363 -0.0250  0.0357
66991DAPE   D1B36827  23.769  16.533   2.467  0.2548 -0.1164  0.0809
66991DAPE   D2B36828  23.890  16.892   2.262  0.2588  0.2582 -0.1272
66991DAPE   D3B36829  24.052  16.861   2.630  0.0257  0.1562 -0.2471
66991DAPE   D4B36830  24.154  17.144   3.018 -0.1782 -0.0258 -0.0344
66991DAPE   C5B36831  24.403  17.589   2.968  0.2451  0.2740  0.1869
66992DAPE   NH336832  20.830   3.292   9.069 -0.0396 -0.0780  0.0596
66992DAPE   PO436833  21.009   3.525   8.658 -0.1389 -0.0663  0.0723
66992DAPE   GL136834  21.281   3.524   8.966  0.0746  0.1052 -0.2519
66992DAPE   GL236835  21.384   3.228   9.022  0.0035 -0.1153  0.0735
66992DAPE   D1A36836  21.589   3.712   9.252 -0.0128  0.1063  0.1584
66992DAPE   D2A36837  21.171   3.578   9.419 -0.3626 -0.2048  0.1060
66992DAPE   D3A36838  21.354   3.786   9.695  0.1013  0.0142 -0.1759
66992DAPE   D4A36839  21.592   3.596   9.973 -0.0683  0.4057  0.3548
66992DAPE   C5A36840  21.563   3.209  10.250 -0.0260  0.0813 -0.0714
66992DAPE   D1B36841  21.702   3.243   8.891  0.2480  0.1857 -0.3899
66992DAPE   D2B36842  22.015   3.427   9.299  0.1354 -0.4640  0.0063
66992DAPE   D3B36843  21.619   3.313   9.591  0.0315 -0.0983  0.2059
66992DAPE   D4B36844  21.920   3.224   9.883  0.0083 -0.1139 -0.0029
66992DAPE   C5B36845  22.244   2.986   9.826 -0.0044  0.4792 -0.0699
66993DAPE   NH336846  25.500  10.141   2.243 -0.0226  0.0383 -0.1585
66993DAPE   PO436847  25.127  10.374   2.488  0.0967  0.1833 -0.3491
66993DAPE   GL136848  25.416  10.653   2.642  0.3754 -0.0015  0.2155
66993DAPE   GL236849  25.444  10.971   2.568 -0.2759 -0.1851  0.0297
66993DAPE   D1A36850  25.815  10.682   2.768 -0.0118 -0.1512  0.1578
66993DAPE   D2A36851  25.595  10.733   3.132  0.0448  0.3441  0.1978
66993DAPE   D3A36852  25.939  10.788   3.403 -0.1261  0.1257  0.0275
66993DAPE   D4A36853  25.926  10.479   3.591 -0.1123  0.2327 -0.0893
66993DAPE   C5A36854  25.839  10.256   3.364 -0.0965  0.3270 -0.2231
66993DAPE   D1B36855  25.702  11.176   2.850  0.2668  0.0489 -0.0786
66993DAPE   D2B36856  25.663  11.587   2.676  0.1789 -0.0085 -0.1604
66993DAPE   D3B36857  25.896  11.569   3.042  0.2080 -0.2449  0.3087
66993DAPE   D4B36858  26.092  11.286   3.219  0.0483 -0.1955 -0.1586
66993DAPE   C5B36859  26.393  11.603   3.324 -0.2132 -0.1296 -0.2390
66994DAPE   NH336860  32.375  19.017   0.702 -0.0890  0.1740  0.1148
66994DAPE   PO436861  32.703  19.134   0.430 -0.3114 -0.0959 -0.2443
66994DAPE   GL136862  32.543  19.456   0.654 -0.0792 -0.0788  0.0258
66994DAPE   GL236863  32.229  19.594   0.520 -0.0704 -0.1137 -0.1971
66994DAPE   D1A36864  32.601  19.552   1.073 -0.0469  0.2400 -0.2874
66994DAPE   D2A36865  32.866  19.878   1.005  0.0864 -0.0123 -0.3064
66994DAPE   D3A36866  32.740  19.993   1.410  0.1272  0.0341 -0.1726
66994DAPE   D4A36867  32.744  20.320   1.320  0.1100  0.2269 -0.2776
66994DAPE   C5A36868  32.704  20.379   0.964  0.0869 -0.2112 -0.1135
66994DAPE   D1B36869  32.112  19.597   0.903  0.0898  0.1657  0.0663
66994DAPE   D2B36870  32.083  19.274   1.071 -0.1235 -0.0148  0.2944
66994DAPE   D3B36871  31.979  19.151   1.331 -0.2913  0.3125 -0.0229
66994DAPE   D4B36872  31.629  19.437   1.404 -0.3281  0.1023 -0.2024
66994DAPE   C5B36873  31.391  19.397   1.741 -0.1326  0.0421  0.0027
66995DAPE   NH336874   1.510  27.240   8.046  0.0894 -0.0629 -0.0041
66995DAPE   PO436875   1.194  27.291   7.832 -0.0085  0.0040  0.1475
66995DAPE   GL136876   0.994  27.436   8.131 -0.0157 -0.2713  0.3362
66995DAPE   GL236877   1.085  27.431   8.383  0.1792  0.1072  0.3027
66995DAPE   D1A36878   0.778  27.051   8.329  0.0342 -0.1325 -0.1196
66995DAPE   D2A36879   0.546  26.812   8.613 -0.0164  0.1607  0.0020
66995DAPE   D3A36880   0.462  27.100   8.837  0.2173  0.2103  0.2080
66995DAPE   D4A36881  35.344  26.994   8.947 -0.0234  0.2449  0.0080
66995DAPE   C5A36882  35.129  27.205   9.279 -0.0946  0.3910  0.2437
66995DAPE   D1B36883   0.873  27.317   8.778  0.1192 -0.1216 -0.1705
66995DAPE   D2B36884   1.024  27.296   9.121 -0.0863 -0.1125  0.1194
66995DAPE   D3B36885   0.743  27.026   9.232  0.1189 -0.0638  0.1563
66995DAPE   D4B36886   0.649  26.710   9.608  0.1502  0.0317  0.1634
66995DAPE   C5B36887   0.279  26.493   9.623  0.2401 -0.1902 -0.1360
66996DAPE   NH336888   9.695  12.110  13.554 -0.1416 -0.4595  0.2205
66996DAPE   PO436889   9.513  11.893  13.239  0.3336 -0.2095 -0.1932
66996DAPE   GL136890   9.281  11.823  13.659 -0.2525 -0.2279  0.0383
66996DAPE   GL236891   9.223  12.063  13.748 -0.0854  0.0346 -0.1568
66996DAPE   D1A36892   9.177  11.374  13.860  0.0228 -0.0284  0.0452
66996DAPE   D2A36893   8.998  11.698  14.152 -0.1505 -0.4368 -0.1368
66996DAPE   D3A36894   8.795  12.061  14.281 -0.3254  0.0046  0.0017
66996DAPE   D4A36895   9.226  12.108  14.362  0.0060 -0.2324 -0.0551
66996DAPE   C5A36896   9.351  12.335  14.725  0.2112 -0.0174 -0.0359
66996DAPE   D1B36897   9.047  12.415  13.927 -0.0945 -0.3273  0.0629
66996DAPE   D2B36898   9.193  12.632  14.206 -0.1205  0.2896  0.0436
66996DAPE   D3B36899   8.825  12.489  14.463 -0.4003  0.1299  0.0330
66996DAPE   D4B36900   8.875  12.463  14.872 -0.1154 -0.0984 -0.2037
66996DAPE   C5B36901   8.636  12.366  15.212 -0.2623  0.2142 -0.0501
66997DAPE   NH336902  23.289  14.467   2.364  0.0546  0.2058  0.0491
66997DAPE   PO436903  22.869  14.474   2.444 -0.1027  0.1020 -0.0800
66997DAPE   GL136904  22.803  14.287   2.915  0.1290  0.2608  0.2157
66997DAPE   GL236905  22.691  13.969   2.969  0.2529  0.0999 -0.2372
66997DAPE   D1A36906  23.086  14.187   3.264  0.1285  0.3798 -0.0504
66997DAPE   D2A36907  23.263  13.873   3.234 -0.3526 -0.0374  0.0940
66997DAPE   D3A36908  23.644  14.180   3.218 -0.0031 -0.2506  0.1765
66997DAPE   D4A36909  23.505  14.287   3.637 -0.2152  0.1669 -0.0268
66997DAPE   C5A36910  23.748  14.447   3.926 -0.1305  0.0212 -0.0023
66997DAPE   D1B36911  22.772  13.701   3.183 -0.0572  0.1277  0.1304
66997DAPE   D2B36912  22.813  13.831   3.543  0.0408  0.3274  0.0325
66997DAPE   D3B36913  23.079  14.015   3.754  0.0390 -0.1789 -0.0617
66997DAPE   D4B36914  22.869  13.799   4.106 -0.0584  0.3021  0.3815
66997DAPE   C5B36915  22.497  13.437   4.073  0.1346 -0.0005  0.0678
66998DAPE   NH336916   2.840  34.469  11.994 -0.0554  0.0689 -0.1936
66998DAPE   PO436917   2.537  34.611  11.581  0.0079 -0.0564 -0.0195
66998DAPE   GL136918   2.083  34.510  11.500 -0.0122  0.0859  0.2594
66998DAPE   GL236919   2.080  34.207  11.608  0.0444 -0.0140  0.0115
66998DAPE   D1A36920   1.674  34.545  11.552  0.0597  0.0287 -0.1005
66998DAPE   D2A36921   1.710  34.705  11.934 -0.1288 -0.4954 -0.0921
66998DAPE   D3A36922   1.313  34.626  11.970 -0.0988  0.1275  0.0426
66998DAPE   D4A36923   1.113  34.611  12.386  0.0429 -0.0045 -0.0897
66998DAPE   C5A36924   1.003  34.872  12.728  0.1864  0.2730 -0.1630
66998DAPE   D1B36925   2.060  33.846  11.839 -0.0675  0.2177  0.3518
66998DAPE   D2B36926   1.875  34.208  12.061 -0.3158  0.0148 -0.1941
66998DAPE   D3B36927   1.499  34.259  12.365 -0.2266  0.0825  0.1435
66998DAPE   D4B36928   1.184  33.822  12.391  0.2478  0.1566  0.1456
66998DAPE   C5B36929   0.884  33.717  12.606 -0.1735 -0.0043 -0.2132
66999DAPE   NH336930   7.127  21.306  10.053  0.1334  0.0595  0.0695
66999DAPE   PO436931   7.069  21.736   9.814  0.0775  0.2548  0.2349
66999DAPE   GL136932   6.702  21.474   9.845  0.3350 -0.6878  0.0234
66999DAPE   GL236933   6.510  21.161   9.648 -0.1268  0.1435 -0.1890
66999DAPE   D1A36934   6.324  21.259  10.041 -0.0871  0.1463 -0.0067
66999DAPE   D2A36935   6.297  21.739  10.002 -0.1890 -0.1553  0.0662
66999DAPE   D3A36936   5.845  21.840  10.112 -0.0558 -0.1353  0.2657
66999DAPE   D4A36937   5.828  21.945  10.564  0.1910 -0.4272 -0.2738
66999DAPE   C5A36938   5.561  21.783  10.825 -0.2324  0.2715 -0.0337
66999DAPE   D1B36939   6.176  21.052   9.591 -0.0248  0.2889 -0.1678
66999DAPE   D2B36940   5.963  21.213   9.263  0.0143  0.2486  0.0090
66999DAPE   D3B36941   5.636  21.425   9.113  0.1001  0.0310 -0.0307
66999DAPE   D4B36942   5.469  21.330   9.453 -0.3448 -0.0651  0.0663
66999DAPE   C5B36943   5.066  21.585   9.414  0.2712 -0.1716  0.3637
67000DAPE   NH336944  21.900  14.585   3.193  0.1238  0.2096 -0.1140
67000DAPE   PO436945  22.060  14.911   2.940  0.2396 -0.2327 -0.1399
67000DAPE   GL136946  22.339  14.825   3.330  0.0201 -0.0616  0.1068
67000DAPE   GL236947  22.609  14.855   3.203  0.2210 -0.0621  0.0400
67000DAPE   D1A36948  22.379  15.122   3.664  0.0119  0.1264  0.0266
67000DAPE   D2A36949  22.191  14.915   4.067  0.3144  0.1689 -0.1274
67000DAPE   D3A36950  22.278  14.629   4.412  0.1493 -0.1143 -0.0091
67000DAPE   D4A36951  22.644  14.724   4.518 -0.0049  0.2594 -0.0595
67000DAPE   C5A36952  22.883  14.440   4.718 -0.1176  0.2427 -0.0574
67000DAPE   D1B36953  22.807  14.843   3.631 -0.1734  0.2124  0.2050
67000DAPE   D2B36954  22.730  14.922   4.055  0.3572 -0.0516 -0.2322
67000DAPE   D3B36955  22.786  15.380   4.001 -0.0634  0.1437  0.0816
67000DAPE   D4B36956  23.131  15.620   3.942  0.1386 -0.0985  0.2991
67000DAPE   C5B36957  23.369  15.717   4.305  0.1695  0.0604  0.3603
67001DAPE   NH336958  22.861  23.547   4.688  0.0356 -0.3386  0.0703
67001DAPE   PO436959  22.421  23.417   4.518 -0.1535  0.0425  0.2600
67001DAPE   GL136960  22.695  23.079   4.480  0.3040 -0.3196  0.2820
67001DAPE   GL236961  22.556  22.787   4.620 -0.3062 -0.0852 -0.0555
67001DAPE   D1A36962  23.141  23.104   4.437  0.0495  0.0033  0.0104
67001DAPE   D2A36963  23.247  22.685   4.460 -0.2123 -0.1432  0.2385
67001DAPE   D3A36964  23.467  22.760   4.822 -0.1908 -0.0815  0.0051
67001DAPE   D4A36965  23.916  22.702   5.118 -0.0218  0.1070 -0.0249
67001DAPE   C5A36966  24.030  23.182   5.292 -0.1255  0.1390  0.1869
67001DAPE   D1B36967  22.878  22.710   4.815 -0.0157 -0.0333 -0.2784
67001DAPE   D2B36968  22.814  22.447   4.976 -0.0652  0.0889 -0.0549
67001DAPE   D3B36969  23.139  22.641   5.282 -0.0309 -0.0149  0.0301
67001DAPE   D4B36970  23.340  22.675   5.567 -0.3263 -0.0038  0.0597
67001DAPE   C5B36971  23.552  22.478   5.923 -0.0613 -0.1635  0.2787
67002DAPE   NH336972  20.865  15.186   5.223  0.0018  0.3029  0.1682
67002DAPE   PO436973  20.784  15.533   5.490 -0.0157  0.0961  0.2467
67002DAPE   GL136974  21.126  15.552   5.734 -0.2844 -0.0167  0.0705
67002DAPE   GL236975  21.259  15.789   5.743 -0.1289 -0.1763  0.0783
67002DAPE   D1A36976  21.465  15.303   5.777 -0.1482 -0.2855  0.2144
67002DAPE   D2A36977  21.884  15.239   5.912  0.0295 -0.2130 -0.0360
67002DAPE   D3A36978  22.108  15.489   6.097 -0.0551 -0.1181 -0.1825
67002DAPE   D4A36979  22.487  15.552   5.932  0.3204  0.2241  0.0479
67002DAPE   C5A36980  22.803  15.511   6.216 -0.0771 -0.4896 -0.1639
67002DAPE   D1B36981  21.594  16.078   5.708  0.3365  0.1010 -0.1323
67002DAPE   D2B36982  22.031  16.019   6.093 -0.0447  0.1600  0.0649
67002DAPE   D3B36983  22.467  16.077   6.094 -0.4314  0.2533 -0.1784
67002DAPE   D4B36984  22.235  16.184   6.527  0.3279  0.1639  0.1874
67002DAPE   C5B36985  22.438  16.536   6.808 -0.1775 -0.0336  0.0146
67003DAPE   NH336986  15.070  31.514  12.766 -0.0254 -0.0063 -0.0493
67003DAPE   PO436987  15.211  31.538  12.285  0.1766  0.3512 -0.1322
67003DAPE   GL136988  15.585  31.611  12.526 -0.1171  0.1537  0.1142
67003DAPE   GL236989  15.512  31.797  12.756 -0.3496 -0.1183 -0.0654
67003DAPE   D1A36990  16.055  31.592  12.608  0.1752 -0.0455 -0.2412
67003DAPE   D2A36991  16.410  31.798  12.747  0.1698 -0.0947 -0.1880
67003DAPE   D3A36992  16.488  31.466  12.923 -0.1263 -0.1382 -0.1426
67003DAPE   D4A36993  16.895  31.566  13.032  0.1650 -0.1157 -0.1687
67003DAPE   C5A36994  17.208  31.603  12.765  0.0249 -0.3426  0.1373
67003DAPE   D1B36995  15.625  31.742  13.172 -0.1075  0.2119  0.2209
67003DAPE   D2B36996  16.057  31.801  13.116 -0.2300 -0.1028 -0.2012
67003DAPE   D3B36997  16.270  31.552  13.334  0.1952  0.0371  0.0541
67003DAPE   D4B36998  16.517  31.871  13.232 -0.2082  0.1072 -0.0725
67003DAPE   C5B36999  16.820  31.979  13.574 -0.0654 -0.1051  0.1662
67004DAPE   NH337000   2.963  14.166   4.604 -0.2039 -0.2939  0.0648
67004DAPE   PO437001   2.859  14.577   4.540  0.0964  0.2225 -0.2369
67004DAPE   GL137002   2.591  14.748   4.547  0.1820  0.0425 -0.0463
67004DAPE   GL237003   2.382  14.480   4.635  0.3231 -0.2183 -0.0934
67004DAPE   D1A37004   2.211  15.024   4.614  0.2899 -0.2934  0.2833
67004DAPE   D2A37005   1.908  14.745   4.818  0.0934  0.1585 -0.0579
67004DAPE   D3A37006   1.545  14.897   5.090 -0.0003 -0.3395  0.4199
67004DAPE   D4A37007   1.685  15.306   5.428 -0.2584 -0.2569  0.2354
67004DAPE   C5A37008   1.367  15.622   5.515 -0.2328  0.2006  0.2980
67004DAPE   D1B37009   2.083  14.439   4.384 -0.1266 -0.0501 -0.2282
67004DAPE   D2B37010   1.670  14.448   4.490  0.1916 -0.0747 -0.2266
67004DAPE   D3B37011   1.449  14.417   4.875 -0.0454 -0.1083 -0.0083
67004DAPE   D4B37012   1.606  14.388   5.218 -0.0542  0.0565  0.1614
67004DAPE   C5B37013   1.455  14.116   5.552  0.1103  0.0174  0.0346
67005DAPE   NH337014  17.426   1.661  10.608 -0.2251 -0.4167 -0.0745
67005DAPE   PO437015  17.610   2.019  10.529  0.0169  0.2124  0.0464
67005DAPE   GL137016  18.018   1.967  10.663  0.2654  0.0419  0.0331
67005DAPE   GL237017  18.076   2.201  10.940  0.0560  0.0005 -0.2228
67005DAPE   D1A37018  18.390   1.767  10.829  0.3443 -0.1498 -0.2451
67005DAPE   D2A37019  18.127   1.436  11.035  0.1190 -0.0084 -0.1013
67005DAPE   D3A37020  18.344   1.071  11.369 -0.2186  0.1710 -0.2174
67005DAPE   D4A37021  18.608   1.431  11.476 -0.1876  0.2096  0.1573
67005DAPE   C5A37022  18.664   1.803  11.277 -0.0093  0.3600  0.0310
67005DAPE   D1B37023  18.472   2.226  11.287 -0.1233  0.0839  0.0926
67005DAPE   D2B37024  18.725   2.150  10.962  0.0085  0.0649 -0.0012
67005DAPE   D3B37025  18.975   2.469  10.745 -0.2013  0.0622 -0.1801
67005DAPE   D4B37026  19.264   2.155  10.839  0.3660 -0.1977  0.0969
67005DAPE   C5B37027  19.373   2.078  11.273  0.0610 -0.0056 -0.0066
67006DAPE   NH337028  20.731  20.930   7.886  0.3432  0.0854  0.0407
67006DAPE   PO437029  20.916  21.167   7.594 -0.0866  0.0055 -0.0895
67006DAPE   GL137030  21.128  20.832   7.576 -0.0191  0.0213  0.2043
67006DAPE   GL237031  21.414  20.740   7.326  0.0242 -0.2803  0.0892
67006DAPE   D1A37032  21.423  20.588   7.830 -0.0409  0.1220 -0.3233
67006DAPE   D2A37033  21.596  20.960   7.740  0.2009 -0.1344 -0.1515
67006DAPE   D3A37034  21.294  21.244   8.000  0.0467  0.0114  0.0927
67006DAPE   D4A37035  21.660  21.264   8.117 -0.1740  0.0167  0.1367
67006DAPE   C5A37036  21.756  21.132   8.573 -0.0051 -0.0954  0.0447
67006DAPE   D1B37037  21.814  20.548   7.135  0.1694  0.1661 -0.1082
67006DAPE   D2B37038  21.805  20.710   6.701  0.1082  0.1144  0.0384
67006DAPE   D3B37039  22.226  20.595   6.497 -0.1875  0.0557 -0.2337
67006DAPE   D4B37040  22.269  20.658   6.932 -0.3409 -0.0918 -0.1919
67006DAPE   C5B37041  22.584  20.575   7.184  0.0954 -0.2241  0.0376
67007DAPE   NH337042  10.748  12.514  13.691 -0.0019 -0.0890  0.0039
67007DAPE   PO437043  10.838  12.938  13.852 -0.3262  0.3746  0.2047
67007DAPE   GL137044  10.617  12.951  14.330  0.0315 -0.2009  0.2600
67007DAPE   GL237045  10.351  13.109  14.386 -0.0432 -0.0607 -0.1613
67007DAPE   D1A37046  10.902  13.105  14.669  0.1552  0.0942 -0.0339
67007DAPE   D2A37047  11.273  12.799  14.649  0.1420  0.0904 -0.0535
67007DAPE   D3A37048  11.326  12.836  15.006  0.3282  0.0319 -0.0147
67007DAPE   D4A37049  11.124  12.588  15.221 -0.0398  0.0945  0.0655
67007DAPE   C5A37050  11.366  12.194  15.326 -0.0435 -0.0012  0.1004
67007DAPE   D1B37051  10.307  13.082  14.824  0.2465  0.0839 -0.0833
67007DAPE   D2B37052  10.615  13.186  15.174  0.2781  0.0933 -0.0311
67007DAPE   D3B37053  11.015  13.244  15.119 -0.0883 -0.1403 -0.0013
67007DAPE   D4B37054  11.107  13.528  14.823  0.1356 -0.1558  0.2286
67007DAPE   C5B37055  11.458  13.897  14.826 -0.0982 -0.3244 -0.0874
67008DAPE   NH337056  30.459  12.400   0.151  0.1670 -0.2200  0.0354
67008DAPE   PO437057  30.551  12.709   0.187  0.0425 -0.2610  0.1452
67008DAPE   GL137058  30.721  12.634   0.573 -0.1445 -0.2061  0.0474
67008DAPE   GL237059  30.996  12.649   0.736 -0.1800  0.2343 -0.2373
67008DAPE   D1A37060  30.678  13.071   0.851 -0.0177 -0.4214 -0.0586
67008DAPE   D2A37061  30.671  12.898   1.258 -0.0723  0.0629 -0.1280
67008DAPE   D3A37062  30.849  12.880   1.772  0.0719 -0.1119 -0.0987
67008DAPE   D4A37063  30.630  12.677   2.138  0.3452  0.0960  0.0024
67008DAPE   C5A37064  30.815  12.668   2.500  0.0699 -0.0698  0.0132
67008DAPE   D1B37065  31.080  12.606   1.166  0.0933 -0.0878  0.0116
67008DAPE   D2B37066  31.255  12.812   1.468 -0.0492 -0.1370 -0.2061
67008DAPE   D3B37067  31.070  12.460   1.664  0.0697  0.1283 -0.0691
67008DAPE   D4B37068  30.666  12.443   1.503 -0.2506 -0.0609  0.0505
67008DAPE   C5B37069  30.334  12.223   1.427 -0.0432 -0.2197 -0.0752
67009DAPE   NH337070  18.102  26.864  11.363  0.2351  0.0490 -0.0388
67009DAPE   PO437071  18.073  26.390  11.372  0.3267 -0.1672  0.2947
67009DAPE   GL137072  18.503  26.359  11.427  0.2602 -0.0544  0.0534
67009DAPE   GL237073  18.703  26.588  11.444 -0.1294  0.1359 -0.0750
67009DAPE   D1A37074  18.789  25.946  11.508 -0.0642 -0.4197 -0.0064
67009DAPE   D2A37075  19.068  26.107  11.659 -0.4863  0.4692  0.2195
67009DAPE   D3A37076  19.362  25.811  11.818  0.2162  0.1397  0.0438
67009DAPE   D4A37077  19.772  25.695  11.540 -0.0847  0.2508 -0.1656
67009DAPE   C5A37078  20.154  25.954  11.643  0.2903 -0.0352  0.0518
67009DAPE   D1B37079  18.724  26.409  11.835  0.0657  0.0675  0.1436
67009DAPE   D2B37080  18.982  26.765  11.805  0.1220  0.1705 -0.2939
67009DAPE   D3B37081  19.226  26.457  11.909 -0.1680 -0.1165  0.2037
67009DAPE   D4B37082  19.281  26.798  12.218  0.0212 -0.3814  0.2515
67009DAPE   C5B37083  19.407  26.652  12.623  0.1809 -0.2703 -0.2278
67010DAPE   NH337084  10.646  23.923  18.346  0.2968  0.1104  0.2977
67010DAPE   PO437085  10.896  24.281  18.309  0.2933 -0.0081  0.1635
67010DAPE   GL137086  10.684  24.353  18.719 -0.1637 -0.1381 -0.1264
67010DAPE   GL237087  10.771  24.070  18.938 -0.0236 -0.1627  0.2723
67010DAPE   D1A37088  10.341  24.454  19.089  0.0484  0.1274  0.0848
67010DAPE   D2A37089  10.673  24.772  19.243  0.1525 -0.0520 -0.1552
67010DAPE   D3A37090  11.016  24.558  19.518 -0.0194 -0.2941  0.0915
67010DAPE   D4A37091  11.075  24.460  19.037  0.1014 -0.3319  0.1953
67010DAPE   C5A37092  11.343  24.105  18.954  0.0621  0.2149 -0.2942
67010DAPE   D1B37093  10.647  24.246  19.377 -0.1783  0.0452  0.1141
67010DAPE   D2B37094  10.900  23.912  19.471 -0.0004  0.3150  0.0564
67010DAPE   D3B37095  10.869  24.162  19.812 -0.1941  0.1604  0.0967
67010DAPE   D4B37096  11.369  24.310  19.721 -0.1163 -0.1853  0.0921
67010DAPE   C5B37097  11.715  24.051  19.712 -0.0785  0.1732  0.3415
67011DAPE   NH337098  21.085  19.244   4.710 -0.1015  0.1393  0.3667
67011DAPE   PO437099  21.315  19.342   5.066  0.0667  0.2090  0.1458
67011DAPE   GL137100  21.548  19.204   5.376 -0.4118  0.0602 -0.1170
67011DAPE   GL237101  21.284  19.075   5.489 -0.1296  0.1602  0.0017
67011DAPE   D1A37102  21.833  19.089   5.516 -0.0793 -0.2172 -0.0577
67011DAPE   D2A37103  21.962  19.017   5.991  0.3306 -0.0061  0.1903
67011DAPE   D3A37104  21.693  18.822   6.247  0.1426  0.0980 -0.1712
67011DAPE   D4A37105  22.040  18.674   6.327 -0.1650  0.0035 -0.2114
67011DAPE   C5A37106  22.459  18.828   6.405 -0.1618  0.0986 -0.1153
67011DAPE   D1B37107  21.482  18.904   5.755 -0.0266 -0.1257  0.0448
67011DAPE   D2B37108  21.431  19.269   5.990  0.1351  0.0748  0.2919
67011DAPE   D3B37109  21.789  19.463   6.236 -0.1137  0.1168 -0.1611
67011DAPE   D4B37110  22.072  19.538   5.831 -0.1975  0.1859  0.0701
67011DAPE   C5B37111  22.384  19.301   5.990  0.0105  0.1167  0.1127
67012DAPE   NH337112  13.971  18.935  14.897  0.2211 -0.0512  0.1343
67012DAPE   PO437113  14.185  18.769  15.251 -0.0279  0.0945 -0.0524
67012DAPE   GL137114  14.378  18.487  15.683  0.1981  0.0114 -0.2126
67012DAPE   GL237115  14.585  18.299  15.538  0.2557  0.2256  0.0309
67012DAPE   D1A37116  14.272  18.246  16.014  0.0030  0.0520 -0.0606
67012DAPE   D2A37117  14.536  18.466  16.249 -0.2787 -0.2255  0.1160
67012DAPE   D3A37118  14.693  18.183  16.649 -0.0008  0.2914 -0.2371
67012DAPE   D4A37119  14.627  17.815  16.980 -0.3065 -0.5287  0.2989
67012DAPE   C5A37120  14.240  17.551  16.807 -0.2606 -0.0468 -0.0517
67012DAPE   D1B37121  14.802  18.186  15.830  0.2645 -0.0146  0.1264
67012DAPE   D2B37122  15.279  18.256  15.829 -0.1199  0.0302 -0.0347
67012DAPE   D3B37123  15.608  18.577  15.894 -0.1846 -0.0693 -0.1070
67012DAPE   D4B37124  15.624  18.232  16.211  0.0045 -0.2724  0.0989
67012DAPE   C5B37125  15.633  17.967  16.633  0.0249  0.1548  0.0396
67013DAPE   NH337126  30.628  22.305  25.786 -0.0498 -0.0046  0.0158
67013DAPE   PO437127  30.248  22.506  26.136  0.1950  0.2492 -0.0893
67013DAPE   GL137128  30.521  22.548   0.229 -0.0993 -0.2540 -0.1300
67013DAPE   GL237129  30.438  22.294   0.310  0.1154 -0.1199  0.0128
67013DAPE   D1A37130  30.722  22.911   0.305 -0.1043  0.0006 -0.0961
67013DAPE   D2A37131  30.574  22.907   0.661 -0.0985 -0.1373  0.2274
67013DAPE   D3A37132  30.259  22.641   0.625 -0.0584 -0.1394 -0.0113
67013DAPE   D4A37133  30.264  22.401   0.995  0.0818  0.2244  0.1746
67013DAPE   C5A37134  30.158  22.019   1.032 -0.0428  0.0115 -0.2534
67013DAPE   D1B37135  30.567  22.174   0.628  0.0888 -0.0609 -0.1138
67013DAPE   D2B37136  30.662  21.959   1.039 -0.0102 -0.0386  0.0898
67013DAPE   D3B37137  30.517  21.877   1.439  0.0166 -0.0300 -0.0720
67013DAPE   D4B37138  30.771  21.450   1.290  0.1079 -0.0975  0.0929
67013DAPE   C5B37139  30.752  21.432   0.873  0.1785 -0.1227  0.0461
67014DAPE   NH337140  15.209  28.927  14.735  0.1594  0.2038  0.4101
67014DAPE   PO437141  15.264  29.330  14.605  0.1426 -0.3240  0.0153
67014DAPE   GL137142  15.632  29.220  14.627  0.0797 -0.0249  0.1922
67014DAPE   GL237143  15.824  29.522  14.664 -0.0090 -0.3859 -0.1452
67014DAPE   D1A37144  15.884  28.941  14.546 -0.1200  0.0276  0.0707
67014DAPE   D2A37145  16.201  29.265  14.401 -0.1546  0.1900 -0.0237
67014DAPE   D3A37146  16.204  29.191  14.889  0.0715  0.1822  0.3255
67014DAPE   D4A37147  16.251  29.148  15.259 -0.0318 -0.2522 -0.2388
67014DAPE   C5A37148  16.462  29.363  15.576 -0.0338  0.2376  0.0017
67014DAPE   D1B37149  15.671  29.444  15.064  0.1458 -0.2952 -0.3502
67014DAPE   D2B37150  15.705  29.007  15.152  0.1618  0.0954  0.2659
67014DAPE   D3B37151  15.678  29.162  15.641 -0.1747 -0.0658  0.0738
67014DAPE   D4B37152  15.952  29.444  15.566  0.1865 -0.2214 -0.1066
67014DAPE   C5B37153  15.905  29.857  15.601 -0.1672  0.1017  0.0802
67015DAPE   NH337154  30.046  33.401   5.877  0.3047  0.0783  0.0932
67015DAPE   PO437155  30.278  33.761   6.082 -0.2028 -0.1094  0.1686
67015DAPE   GL137156  30.142  33.527   6.396 -0.0661  0.0239  0.0740
67015DAPE   GL237157  29.863  33.467   6.401 -0.0121  0.2064 -0.0086
67015DAPE   D1A37158  30.176  33.233   6.673  0.0487 -0.2090  0.1124
67015DAPE   D2A37159  30.538  33.094   6.546 -0.1183  0.0971  0.0161
67015DAPE   D3A37160  30.547  32.953   7.040 -0.2271 -0.2728 -0.1790
67015DAPE   D4A37161  30.229  32.760   7.017  0.2316 -0.1317 -0.0512
67015DAPE   C5A37162  29.884  32.747   7.281  0.0175 -0.1732  0.2524
67015DAPE   D1B37163  29.421  33.291   6.451 -0.0740 -0.2206  0.1717
67015DAPE   D2B37164  29.509  33.706   6.650 -0.2839  0.1604  0.1429
67015DAPE   D3B37165  29.770  33.481   6.922  0.0898 -0.0040  0.0829
67015DAPE   D4B37166  29.592  33.121   6.979 -0.2765  0.2585  0.1304
67015DAPE   C5B37167  29.313  33.132   7.340 -0.1810 -0.0045 -0.1610
67016DAPE   NH337168  14.020  17.085  14.162 -0.0368  0.1735  0.0310
67016DAPE   PO437169  13.967  16.657  14.399  0.3029 -0.0819  0.0120
67016DAPE   GL137170  14.128  16.408  14.720  0.0276  0.3212 -0.3465
67016DAPE   GL237171  14.543  16.296  14.719  0.3732  0.0353  0.0507
67016DAPE   D1A37172  14.151  16.543  15.165  0.1685 -0.0979 -0.1251
67016DAPE   D2A37173  14.480  16.316  15.274  0.0390 -0.0746 -0.1397
67016DAPE   D3A37174  14.431  15.988  15.534  0.0352  0.1798 -0.0604
67016DAPE   D4A37175  14.267  15.883  15.850  0.1118  0.0508 -0.3497
67016DAPE   C5A37176  14.370  15.634  16.102 -0.1648 -0.1266  0.2722
67016DAPE   D1B37177  14.306  15.952  14.992  0.0691  0.0883 -0.2365
67016DAPE   D2B37178  14.642  15.683  14.803 -0.2961  0.2003  0.2441
67016DAPE   D3B37179  14.351  15.353  14.963  0.0979  0.1415 -0.1937
67016DAPE   D4B37180  14.459  15.550  15.328 -0.3028 -0.0808 -0.0871
67016DAPE   C5B37181  14.433  15.400  15.691 -0.1262  0.0337  0.1313
67017DAPE   NH337182   0.278  13.701   2.466  0.1886  0.2987 -0.0045
67017DAPE   PO437183   0.032  13.907   2.125 -0.0275  0.3366 -0.3041
67017DAPE   GL137184  35.369  14.276   2.412 -0.3428  0.1407 -0.1108
67017DAPE   GL237185   0.150  14.223   2.749 -0.0097  0.0658 -0.3378
67017DAPE   D1A37186  35.187  14.638   2.218 -0.0528 -0.0524  0.0120
67017DAPE   D2A37187  34.744  14.485   2.230 -0.0713  0.0500 -0.0472
67017DAPE   D3A37188  34.683  14.415   2.683  0.2124 -0.1900 -0.2421
67017DAPE   D4A37189  34.354  14.172   3.005  0.2565 -0.0811 -0.4420
67017DAPE   C5A37190  34.024  14.344   2.867  0.2580 -0.1083  0.0593
67017DAPE   D1B37191  35.221  14.443   2.836  0.1584  0.0088 -0.0144
67017DAPE   D2B37192  35.137  14.840   2.628 -0.1207  0.1296  0.1418
67017DAPE   D3B37193  34.850  15.160   2.799  0.1363 -0.0371 -0.2329
67017DAPE   D4B37194  34.734  15.151   3.260 -0.2183 -0.0376 -0.0962
67017DAPE   C5B37195  34.646  15.618   3.447  0.3835 -0.1897 -0.0332
67018PAPS   CNO37196   3.021   9.263   7.465 -0.1327  0.1980  0.1677
67018PAPS   PO437197   3.416   9.142   7.578 -0.1699  0.1909  0.1228
67018PAPS   GL137198   3.141   9.183   7.986  0.0945 -0.0055 -0.2843
67018PAPS   GL237199   2.817   9.282   7.984  0.0031  0.2510  0.3957
67018PAPS   D1A37200   3.013   9.033   8.366  0.0772  0.1352 -0.1539
67018PAPS   D2A37201   3.150   8.625   8.214  0.0821  0.0535  0.2558
67018PAPS   D3A37202   3.024   8.342   8.412  0.2076 -0.0762 -0.1014
67018PAPS   D4A37203   2.703   8.320   8.649  0.0602  0.2805  0.0121
67018PAPS   C5A37204   2.480   7.967   8.944 -0.0720  0.1806  0.3139
67018PAPS   C1B37205   2.602   9.195   8.443 -0.2213  0.2158  0.2426
67018PAPS   C2B37206   2.205   9.256   8.776 -0.3665  0.0127 -0.0492
67018PAPS   C3B37207   1.921   9.430   8.979 -0.1886  0.2455  0.2185
67018PAPS   C4B37208   1.535   9.475   9.146 -0.0665  0.2405 -0.0997
67019PAPS   CNO37209  19.549   2.973   9.747 -0.0673 -0.3418  0.0944
67019PAPS   PO437210  19.912   2.917   9.886  0.0389 -0.3599  0.0890
67019PAPS   GL137211  20.015   2.973  10.264  0.3446 -0.1551  0.1366
67019PAPS   GL237212  19.858   2.775  10.507 -0.2813  0.2192 -0.1723
67019PAPS   D1A37213  20.349   3.089  10.425  0.1539  0.0323  0.0285
67019PAPS   D2A37214  20.658   2.907  10.053  0.0253  0.0053 -0.4053
67019PAPS   D3A37215  21.132   2.867  10.069  0.1490 -0.2413  0.3622
67019PAPS   D4A37216  21.103   2.687  10.324 -0.1767  0.0491 -0.0016
67019PAPS   C5A37217  21.500   2.479  10.536  0.3883 -0.2211 -0.0843
67019PAPS   C1B37218  20.022   2.700  10.843 -0.1518  0.1470 -0.2059
67019PAPS   C2B37219  20.284   2.573  11.190 -0.0482 -0.1133  0.0545
67019PAPS   C3B37220  20.207   2.393  11.519  0.1711 -0.3790 -0.0692
67019PAPS   C4B37221  20.538   2.302  11.860  0.2706 -0.0592  0.1056
67020PAPS   CNO37222  17.616  30.719  10.717  0.2853  0.0230 -0.2323
67020PAPS   PO437223  17.233  31.063  10.797 -0.3322 -0.0492  0.1976
67020PAPS   GL137224  17.447  31.052  11.221  0.2236 -0.1201 -0.1659
67020PAPS   GL237225  17.328  30.822  11.490 -0.1416  0.2363  0.0076
67020PAPS   D1A37226  17.847  30.841  11.444 -0.2357  0.0445  0.1610
67020PAPS   D2A37227  17.778  30.550  11.128 -0.2032 -0.1807 -0.3581
67020PAPS   D3A37228  18.105  30.826  10.914 -0.0504  0.0850  0.1491
67020PAPS   D4A37229  18.478  30.951  10.920 -0.1831  0.1202  0.3210
67020PAPS   C5A37230  18.645  31.362  10.894 -0.0135 -0.0514  0.1582
67020PAPS   C1B37231  17.424  30.980  11.713  0.0665  0.1378 -0.0165
67020PAPS   C2B37232  17.741  31.098  11.806 -0.2508 -0.0855  0.0036
67020PAPS   C3B37233  17.937  31.382  12.116  0.2397  0.1475  0.1633
67020PAPS   C4B37234  18.037  31.376  12.584 -0.1691 -0.2379 -0.1578
67021PAPS   CNO37235  33.764  14.925   1.527  0.0606 -0.1248 -0.3129
67021PAPS   PO437236  33.859  14.517   1.559 -0.0737 -0.0153 -0.1715
67021PAPS   GL137237  33.507  14.525   2.003 -0.4296  0.0164 -0.1694
67021PAPS   GL237238  33.171  14.528   1.882  0.0760 -0.1478  0.0118
67021PAPS   D1A37239  33.346  14.850   2.225  0.2104  0.0351 -0.2920
67021PAPS   D2A37240  33.229  14.863   2.626 -0.0893 -0.0585 -0.1077
67021PAPS   D3A37241  33.169  14.531   2.816 -0.1258  0.0731  0.0149
67021PAPS   D4A37242  33.185  14.383   3.182  0.0820  0.1932  0.0557
67021PAPS   C5A37243  32.983  14.012   3.321  0.0202 -0.4045  0.0959
67021PAPS   C1B37244  33.214  14.285   2.381 -0.2552  0.1806 -0.1212
67021PAPS   C2B37245  33.026  14.005   2.736  0.0687 -0.3079  0.0943
67021PAPS   C3B37246  32.799  13.745   2.943  0.0784 -0.0484 -0.2339
67021PAPS   C4B37247  32.837  13.444   3.302 -0.2125  0.0151  0.4712
67022PAPS   CNO37248   1.647  24.781   4.337 -0.1553  0.1585 -0.2497
67022PAPS   PO437249   1.835  24.817   4.753 -0.0468  0.2213 -0.1785
67022PAPS   GL137250   1.589  24.804   5.150  0.3986 -0.0582 -0.2621
67022PAPS   GL237251   1.483  25.073   5.354 -0.0319 -0.1411 -0.0703
67022PAPS   D1A37252   1.610  24.646   5.588 -0.4537  0.0106  0.0191
67022PAPS   D2A37253   1.875  24.795   5.952  0.1306 -0.0620  0.0170
67022PAPS   D3A37254   1.810  24.924   6.295 -0.1566 -0.0596 -0.0900
67022PAPS   D4A37255   1.389  24.855   6.164  0.0475  0.0213  0.1285
67022PAPS   C5A37256   1.107  24.444   6.092  0.0470  0.1391  0.3581
67022PAPS   C1B37257   1.129  24.829   5.686  0.0692 -0.0300  0.2924
67022PAPS   C2B37258   0.697  24.683   5.874  0.2384 -0.0059 -0.1459
67022PAPS   C3B37259   0.612  24.414   6.270  0.4378 -0.0468  0.0634
67022PAPS   C4B37260   0.743  23.989   6.396  0.1159  0.0629  0.0349
67023PAPS   CNO37261   6.612   3.374  12.564 -0.1435 -0.1420  0.0110
67023PAPS   PO437262   6.282   3.452  12.713 -0.0869 -0.4429 -0.2976
67023PAPS   GL137263   6.261   3.870  12.954 -0.0106 -0.0291  0.3070
67023PAPS   GL237264   6.369   3.755  13.257  0.0117 -0.1920 -0.3870
67023PAPS   D1A37265   6.102   4.419  13.065 -0.0825 -0.0920  0.3505
67023PAPS   D2A37266   5.656   4.542  12.908 -0.1085  0.0486 -0.3589
67023PAPS   D3A37267   5.308   4.578  13.040 -0.1668  0.2597 -0.1125
67023PAPS   D4A37268   4.833   4.661  13.202  0.0929  0.5196 -0.3854
67023PAPS   C5A37269   4.638   4.590  13.568  0.1857  0.0527 -0.0920
67023PAPS   C1B37270   5.937   3.907  13.305 -0.0985 -0.1317 -0.1941
67023PAPS   C2B37271   5.659   4.312  13.324  0.2266  0.1026  0.1172
67023PAPS   C3B37272   5.349   4.554  13.530  0.1369 -0.3271 -0.1079
67023PAPS   C4B37273   5.094   4.653  13.770  0.0975  0.2885 -0.3488
67024DAPS   CNO37274   5.102  23.350   7.066  0.1036  0.1935 -0.1752
67024DAPS   PO437275   4.870  22.977   7.266 -0.1663  0.2050 -0.0203
67024DAPS   GL137276   4.649  22.684   7.134  0.1478  0.2265 -0.0202
67024DAPS   GL237277   4.726  22.381   7.275  0.1001 -0.1772  0.1261
67024DAPS   D1A37278   4.281  22.454   6.974  0.3604 -0.1853  0.1001
67024DAPS   D2A37279   4.680  22.441   6.702  0.1841  0.1006  0.0430
67024DAPS   D3A37280   4.399  22.245   6.437  0.1101 -0.2303  0.0057
67024DAPS   D4A37281   4.080  22.545   6.466  0.2942  0.0396 -0.2005
67024DAPS   C5A37282   3.766  22.529   6.812 -0.0882 -0.1304  0.1185
67024DAPS   D1B37283   4.392  22.484   7.514 -0.1045  0.0176  0.2595
67024DAPS   D2B37284   4.470  22.221   7.845  0.0438  0.2178 -0.0638
67024DAPS   D3B37285   4.033  22.194   7.843 -0.1086 -0.1635  0.0480
67024DAPS   D4B37286   3.894  22.330   7.421  0.1765  0.1208  0.0511
67024DAPS   C5B37287   3.609  22.522   7.298  0.0168  0.2689 -0.1075
67025DAPS   CNO37288  29.405  21.255  25.446  0.3035 -0.0775  0.1715
67025DAPS   PO437289  29.276  21.680  25.556  0.0818  0.1559  0.2502
67025DAPS   GL137290  29.331  21.448  26.010  0.0670 -0.3598  0.0277
67025DAPS   GL237291  29.291  21.705   0.035  0.2559 -0.0086  0.0083
67025DAPS   D1A37292  29.692  21.322   0.054 -0.1773 -0.3960  0.1861
67025DAPS   D2A37293  29.588  20.892  26.106  0.3399  0.0359  0.2642
67025DAPS   D3A37294  29.631  20.500   0.016  0.2479 -0.0273 -0.1129
67025DAPS   D4A37295  29.198  20.563  26.243  0.1227  0.1311  0.2702
67025DAPS   C5A37296  28.975  20.625   0.411  0.0958 -0.2138 -0.0642
67025DAPS   D1B37297  29.209  21.220   0.239 -0.2789 -0.0902  0.1951
67025DAPS   D2B37298  28.807  21.084   0.523 -0.0391  0.0663  0.2633
67025DAPS   D3B37299  28.935  21.407   0.718  0.2162  0.0748  0.0492
67025DAPS   D4B37300  28.585  21.250   1.032 -0.0363  0.1541 -0.0658
67025DAPS   C5B37301  28.163  21.083   0.999  0.0789  0.0141 -0.3445
67026DAPS   CNO37302  19.445   9.480  11.643 -0.0174  0.0279 -0.1165
67026DAPS   PO437303  19.255   9.108  11.736  0.0654 -0.1801  0.0506
67026DAPS   GL137304  19.593   9.078  11.986  0.0536 -0.0043 -0.0075
67026DAPS   GL237305  19.818   8.812  11.976  0.0651 -0.1110 -0.1498
67026DAPS   D1A37306  19.611   9.142  12.515  0.0552 -0.2206  0.0304
67026DAPS   D2A37307  19.978   8.866  12.503  0.0265  0.1824  0.5063
67026DAPS   D3A37308  19.752   8.453  12.567  0.0342 -0.1034  0.2514
67026DAPS   D4A37309  19.857   8.447  13.057 -0.3679  0.2652 -0.0807
67026DAPS   C5A37310  20.078   8.184  13.198  0.1287  0.1184 -0.0156
67026DAPS   D1B37311  19.871   8.394  12.110 -0.0005 -0.1430  0.1724
67026DAPS   D2B37312  20.277   8.351  12.315 -0.0056 -0.1703 -0.3759
67026DAPS   D3B37313  20.286   8.433  12.755 -0.1460 -0.0255 -0.1454
67026DAPS   D4B37314  20.488   8.495  13.093  0.0241 -0.1033  0.0396
67026DAPS   C5B37315  20.794   8.816  13.217  0.0528  0.1231  0.0345
67027DAPS   CNO37316  18.420  13.093  11.068  0.2494  0.0150  0.3204
67027DAPS   PO437317  18.471  12.776  11.293 -0.1805  0.1242  0.2862
67027DAPS   GL137318  18.782  12.928  11.580  0.2473 -0.4269 -0.3400
67027DAPS   GL237319  19.020  12.752  11.827 -0.1419 -0.1187  0.2882
67027DAPS   D1A37320  19.120  13.212  11.612 -0.1433  0.1263  0.0899
67027DAPS   D2A37321  19.244  13.670  11.374  0.1721 -0.0464  0.2557
67027DAPS   D3A37322  19.051  13.827  11.152  0.0195 -0.0693  0.1415
67027DAPS   D4A37323  19.199  13.514  10.803  0.4147 -0.1349  0.0087
67027DAPS   C5A37324  19.421  13.144  10.935  0.3164 -0.0610 -0.0575
67027DAPS   D1B37325  19.458  12.844  11.755  0.0181 -0.0671 -0.0586
67027DAPS   D2B37326  19.775  12.658  12.005 -0.1828 -0.0422 -0.0985
67027DAPS   D3B37327  19.946  13.152  12.080 -0.2304 -0.1908 -0.0361
67027DAPS   D4B37328  20.106  13.539  12.145 -0.4564 -0.1113  0.1765
67027DAPS   C5B37329  20.549  13.718  12.474  0.0426  0.1399  0.0355
67028PRPS   CNO37330  12.906   6.201  13.700  0.0890  0.1106 -0.0246
67028PRPS   PO437331  12.938   5.996  14.099 -0.0514  0.1742  0.0989
67028PRPS   GL137332  12.964   6.099  14.502 -0.1463 -0.0584  0.2366
67028PRPS   GL237333  12.883   5.840  14.632  0.2329  0.1441  0.1598
67028PRPS   D1A37334  13.138   6.254  14.899  0.1465 -0.0513 -0.1456
67028PRPS   D2A37335  13.538   6.064  14.998 -0.1239  0.2330 -0.1295
67028PRPS   D3A37336  13.538   6.355  14.653  0.0397  0.0020  0.2329
67028PRPS   D4A37337  13.587   6.538  15.086  0.2784 -0.1532 -0.2612
67028PRPS   D5A37338  13.491   6.330  15.442  0.0096 -0.4193 -0.1873
67028PRPS   D6A37339  13.023   6.247  15.396 -0.1201  0.0475 -0.4337
67028PRPS   C1B37340  12.916   5.653  14.965 -0.0131 -0.0638 -0.3288
67028PRPS   C2B37341  13.203   5.787  15.260 -0.0408 -0.2091  0.0691
67028PRPS   C3B37342  13.435   5.739  15.643 -0.0440 -0.1467 -0.0235
67028PRPS   C4B37343  13.813   5.618  15.946 -0.1649 -0.1307 -0.1611
67029PRPS   CNO37344   0.406  33.950   9.241 -0.1098 -0.1280  0.3587
67029PRPS   PO437345   0.568  34.068   9.590  0.0211 -0.3360  0.0832
67029PRPS   GL137346   0.325  34.210   9.806  0.1464 -0.0284  0.1432
67029PRPS   GL237347   0.056  33.908   9.645 -0.2589 -0.0819 -0.0937
67029PRPS   D1A37348   0.366  34.571  10.067 -0.0546 -0.0759  0.1709
67029PRPS   D2A37349   0.036  34.464  10.391  0.1280  0.1701  0.1418
67029PRPS   D3A37350   0.007  34.819  10.667  0.1478 -0.1585 -0.1345
67029PRPS   D4A37351  34.973  34.987  10.765 -0.2137  0.1312  0.3851
67029PRPS   D5A37352  35.144  35.215  10.399  0.0900 -0.0223 -0.0015
67029PRPS   D6A37353  35.084  34.768  10.275  0.1904 -0.0624  0.1058
67029PRPS   C1B37354  35.084  33.719   9.679 -0.1532 -0.1353 -0.0215
67029PRPS   C2B37355  34.875  33.752  10.151  0.0762  0.0371  0.1255
67029PRPS   C3B37356  34.805  33.689  10.583  0.1119  0.1658  0.1082
67029PRPS   C4B37357  34.511  34.071  10.640  0.2690  0.5098  0.1104
67030PRPS   CNO37358  19.745  19.811   9.286 -0.0939  0.0393 -0.0736
67030PRPS   PO437359  19.518  19.371   9.100  0.2175  0.0431  0.1782
67030PRPS   GL137360  20.004  19.392   9.275 -0.1757  0.4260 -0.0262
67030PRPS   GL237361  20.082  19.386   9.614  0.0215  0.0053 -0.0400
67030PRPS   D1A37362  20.360  19.360   8.984 -0.3088 -0.0358  0.2393
67030PRPS   D2A37363  20.372  19.783   8.782  0.2205  0.2886 -0.1234
67030PRPS   D3A37364  20.738  19.640   8.729  0.2491  0.0938  0.1271
67030PRPS   D4A37365  20.943  20.000   8.811 -0.1135 -0.1130 -0.2006
67030PRPS   D5A37366  21.411  20.096   8.954 -0.1758 -0.0986  0.3351
67030PRPS   D6A37367  21.729  19.772   8.904 -0.1624 -0.1039 -0.2665
67030PRPS   C1B37368  20.425  19.392   9.690 -0.1816 -0.0704  0.4070
67030PRPS   C2B37369  20.802  19.419   9.816  0.1199  0.1274 -0.0177
67030PRPS   C3B37370  21.230  19.411   9.694  0.3105 -0.1685  0.1223
67030PRPS   C4B37371  21.583  19.086   9.611  0.1654 -0.0591 -0.1764
67031PRPS   CNO37372  32.840  26.726   3.037  0.1312 -0.3559 -0.0393
67031PRPS   PO437373  32.971  26.341   2.893  0.1090 -0.0180 -0.2655
67031PRPS   GL137374  33.080  26.038   3.098 -0.0823 -0.2039 -0.1795
67031PRPS   GL237375  33.155  25.981   3.445 -0.0640  0.0240  0.3690
67031PRPS   D1A37376  32.993  25.547   3.192 -0.0399  0.1062 -0.0281
67031PRPS   D2A37377  32.640  25.649   2.829  0.0957 -0.0996  0.1467
67031PRPS   D3A37378  32.282  25.478   2.846 -0.1352 -0.0547  0.0313
67031PRPS   D4A37379  31.800  25.529   2.907  0.1323  0.1720 -0.1145
67031PRPS   D5A37380  31.663  25.086   2.965  0.1846  0.1216  0.2471
67031PRPS   D6A37381  32.031  25.052   3.142  0.0506 -0.2578 -0.1530
67031PRPS   C1B37382  33.148  25.641   3.692  0.0784 -0.2161  0.0691
67031PRPS   C2B37383  33.379  25.287   3.732  0.0551  0.1913  0.0915
67031PRPS   C3B37384  33.138  24.982   3.994 -0.0996  0.0301 -0.2226
67031PRPS   C4B37385  33.129  24.578   4.161  0.1305  0.2033 -0.0836
67032PRPS   CNO37386  32.903  28.667   4.805 -0.0814 -0.1664 -0.1512
67032PRPS   PO437387  33.056  28.253   4.728 -0.0685 -0.0716  0.5669
67032PRPS   GL137388  33.306  28.019   4.985 -0.1423 -0.0647 -0.2177
67032PRPS   GL237389  33.368  28.191   5.214  0.0118  0.0437  0.2096
67032PRPS   D1A37390  33.478  27.667   5.170  0.2101 -0.2665  0.1031
67032PRPS   D2A37391  33.302  27.510   4.830  0.1051  0.0794 -0.2044
67032PRPS   D3A37392  33.041  27.253   4.920  0.0524 -0.0081 -0.2306
67032PRPS   D4A37393  33.463  27.106   5.080  0.0834 -0.0740 -0.2001
67032PRPS   D5A37394  33.653  27.146   4.731 -0.0992 -0.0826  0.3641
67032PRPS   D6A37395  33.511  26.920   4.470  0.3616 -0.2726  0.2950
67032PRPS   C1B37396  33.036  27.855   5.457 -0.1799  0.0091  0.1353
67032PRPS   C2B37397  33.082  27.435   5.362 -0.0602 -0.0778 -0.2589
67032PRPS   C3B37398  33.087  27.029   5.605 -0.1485 -0.0301  0.4073
67032PRPS   C4B37399  32.952  26.716   5.716 -0.1128  0.0110 -0.4509
67033PRPS   CNO37400  31.771  24.326   0.229  0.0532  0.2312  0.1848
67033PRPS   PO437401  31.767  24.316   0.740  0.1260  0.0305 -0.1471
67033PRPS   GL137402  31.677  24.174   1.166  0.0122  0.0867  0.3107
67033PRPS   GL237403  31.327  24.158   1.332 -0.2446 -0.1047 -0.1057
67033PRPS   D1A37404  31.914  24.183   1.496 -0.0062 -0.1546  0.0563
67033PRPS   D2A37405  31.596  24.351   1.887 -0.3448  0.0415 -0.3487
67033PRPS   D3A37406  32.002  24.572   1.866  0.1796 -0.2360  0.1056
67033PRPS   D4A37407  31.981  24.842   1.591 -0.0459 -0.0324  0.1682
67033PRPS   D5A37408  31.639  24.614   1.505 -0.0580 -0.1605  0.2554
67033PRPS   D6A37409  31.501  25.068   1.451 -0.1912 -0.2720 -0.3845
67033PRPS   C1B37410  31.395  23.942   1.631 -0.0913  0.0056 -0.0371
67033PRPS   C2B37411  31.783  23.685   1.654  0.1679 -0.2486 -0.3927
67033PRPS   C3B37412  31.771  23.214   1.849  0.0050  0.1416  0.2096
67033PRPS   C4B37413  31.469  22.808   1.786  0.2816 -0.3118 -0.1504
67034PRPS   CNO37414  22.517  32.225   6.828  0.0639  0.1970  0.1187
67034PRPS   PO437415  22.254  31.830   6.781  0.0058 -0.0571 -0.0493
67034PRPS   GL137416  22.605  31.610   6.803 -0.1345 -0.2506  0.1370
67034PRPS   GL237417  22.908  31.937   6.735 -0.0425  0.1173 -0.5029
67034PRPS   D1A37418  22.657  31.115   6.848 -0.4111  0.4433 -0.2303
67034PRPS   D2A37419  23.026  31.317   6.815  0.2011 -0.0553  0.1047
67034PRPS   D3A37420  22.797  31.411   6.435 -0.0650  0.1906 -0.0054
67034PRPS   D4A37421  22.864  31.086   6.242 -0.0845 -0.2339 -0.2621
67034PRPS   D5A37422  23.096  30.857   6.561 -0.1039  0.0341 -0.3433
67034PRPS   D6A37423  22.981  30.573   6.333  0.0991 -0.0475  0.1142
67034PRPS   C1B37424  23.008  31.735   7.132 -0.0809 -0.4575 -0.0591
67034PRPS   C2B37425  23.261  31.669   7.493 -0.1469  0.3000  0.1240
67034PRPS   C3B37426  23.303  31.613   7.961  0.1575  0.2399  0.3049
67034PRPS   C4B37427  23.548  31.383   8.152 -0.0781 -0.0500  0.0134
67035PRPS   CNO37428   4.370  14.725   5.217  0.0709 -0.0149  0.0331
67035PRPS   PO437429   3.938  14.955   5.389 -0.3249  0.2463  0.1938
67035PRPS   GL137430   3.675  15.297   5.525 -0.0327  0.2115 -0.0061
67035PRPS   GL237431   3.367  15.500   5.511 -0.4102  0.1482 -0.0747
67035PRPS   D1A37432   3.729  15.611   5.896 -0.2274 -0.0675 -0.0768
67035PRPS   D2A37433   3.828  15.885   6.267 -0.1181 -0.0994  0.1121
67035PRPS   D3A37434   3.478  15.725   6.466  0.1786  0.0279  0.4549
67035PRPS   D4A37435   3.653  15.360   6.354  0.1634  0.1272 -0.0760
67035PRPS   D5A37436   3.536  15.001   6.639  0.1691 -0.1987 -0.0822
67035PRPS   D6A37437   3.881  14.958   6.908  0.2413 -0.0151  0.3196
67035PRPS   C1B37438   2.970  15.405   5.674 -0.0667 -0.0579  0.1544
67035PRPS   C2B37439   2.701  15.332   6.033 -0.2422  0.0056 -0.1717
67035PRPS   C3B37440   2.317  15.267   6.235 -0.0315 -0.0007 -0.0978
67035PRPS   C4B37441   1.947  15.118   6.166  0.0715 -0.2863  0.0215
67036PRPS   CNO37442   3.440  25.965   8.986 -0.1473 -0.2013  0.0784
67036PRPS   PO437443   3.581  25.705   8.614 -0.1809  0.1005  0.2556
67036PRPS   GL137444   3.540  25.332   8.600 -0.4013 -0.3256  0.0484
67036PRPS   GL237445   3.382  25.192   8.364  0.1920 -0.0746  0.0451
67036PRPS   D1A37446   3.791  24.971   8.747 -0.1356 -0.0473 -0.0188
67036PRPS   D2A37447   3.620  24.768   9.083 -0.2362  0.2170  0.2618
67036PRPS   D3A37448   3.456  24.634   9.384  0.1297 -0.1781 -0.0191
67036PRPS   D4A37449   3.657  24.662   9.867 -0.1952  0.0610 -0.0168
67036PRPS   D5A37450   4.128  24.611   9.863 -0.0771  0.0609  0.0808
67036PRPS   D6A37451   4.056  24.158   9.807  0.1342 -0.0788 -0.2457
67036PRPS   C1B37452   3.288  24.900   8.729  0.0771  0.0697 -0.1851
67036PRPS   C2B37453   3.121  24.574   9.042 -0.2198 -0.1300  0.0945
67036PRPS   C3B37454   3.249  24.212   9.392  0.0946  0.1277  0.3902
67036PRPS   C4B37455   3.477  24.199   9.736  0.2938  0.0003 -0.2352
67037PRPS   CNO37456   3.499  28.911  13.163 -0.2710 -0.1668 -0.1769
67037PRPS   PO437457   3.276  28.452  13.185  0.4441  0.2379  0.0645
67037PRPS   GL137458   3.254  28.593  13.624 -0.0930 -0.0396 -0.0721
67037PRPS   GL237459   2.991  28.595  13.877 -0.1443  0.0218  0.2535
67037PRPS   D1A37460   3.467  28.690  14.086 -0.1236  0.0312  0.1270
67037PRPS   D2A37461   3.254  29.105  14.260  0.3291  0.2779  0.1960
67037PRPS   D3A37462   2.822  29.184  14.435 -0.1018 -0.0720 -0.0572
67037PRPS   D4A37463   2.479  28.854  14.474  0.0528 -0.0336  0.0866
67037PRPS   D5A37464   2.040  28.876  14.217 -0.1990 -0.0758  0.0430
67037PRPS   D6A37465   1.564  29.032  14.003 -0.0336 -0.1746  0.1588
67037PRPS   C1B37466   2.527  28.609  13.944  0.2339  0.2108 -0.1938
67037PRPS   C2B37467   2.097  28.414  13.995  0.1817 -0.2669 -0.1219
67037PRPS   C3B37468   1.979  28.172  14.121 -0.0439  0.1675  0.0462
67037PRPS   C4B37469   1.611  27.924  14.121 -0.0655  0.4030  0.0206
67038PRPS   CNO37470   3.623  24.728   7.058 -0.0791  0.1390 -0.1153
67038PRPS   PO437471   3.363  25.136   6.929  0.2961 -0.0545 -0.1345
67038PRPS   GL137472   3.097  24.772   6.949  0.3564 -0.1706 -0.2039
67038PRPS   GL237473   3.101  24.461   6.743 -0.0500  0.1164  0.0636
67038PRPS   D1A37474   2.963  24.507   7.253 -0.0275  0.0407 -0.0949
67038PRPS   D2A37475   3.385  24.353   7.278 -0.3716 -0.1904 -0.2430
67038PRPS   D3A37476   3.230  24.270   7.687  0.0545  0.1038 -0.0130
67038PRPS   D4A37477   3.045  23.962   7.817 -0.0533  0.1839 -0.1200
67038PRPS   D5A37478   2.917  23.996   7.382 -0.3249  0.2293 -0.0356
67038PRPS   D6A37479   2.703  23.640   7.581 -0.2737  0.0257 -0.0033
67038PRPS   C1B37480   2.939  24.013   6.913  0.0219  0.2184 -0.3172
67038PRPS   C2B37481   2.781  23.601   7.039 -0.0606 -0.0801  0.0153
67038PRPS   C3B37482   2.627  23.120   7.081 -0.0762  0.0513  0.2399
67038PRPS   C4B37483   2.968  22.745   7.209  0.1692  0.0935 -0.0738
67039PRPS   CNO37484   2.476  26.832   8.760 -0.3562  0.0960 -0.0523
67039PRPS   PO437485   2.325  26.516   8.548  0.2884  0.0628  0.0745
67039PRPS   GL137486   2.020  26.361   8.882 -0.4577  0.2908 -0.0979
67039PRPS   GL237487   2.092  26.145   9.015 -0.0366  0.0226  0.0923
67039PRPS   D1A37488   1.576  26.463   9.019 -0.0812 -0.2459 -0.1567
67039PRPS   D2A37489   1.505  26.695   9.356  0.0197 -0.1364  0.2369
67039PRPS   D3A37490   1.769  26.920   8.994  0.0998  0.0352 -0.0908
67039PRPS   D4A37491   1.502  27.304   9.044  0.2975  0.2776 -0.0479
67039PRPS   D5A37492   1.271  27.592   8.817 -0.1029 -0.1184 -0.2919
67039PRPS   D6A37493   1.430  27.968   9.140  0.1018 -0.1227 -0.1459
67039PRPS   C1B37494   1.739  25.987   9.131  0.1975 -0.1219  0.2425
67039PRPS   C2B37495   1.425  25.680   9.374  0.1287 -0.2676  0.2430
67039PRPS   C3B37496   1.038  25.696   9.547  0.0547  0.0989 -0.1625
67039PRPS   C4B37497   0.721  25.786   9.785  0.0017  0.2249  0.3096
67040PRPS   CNO37498  26.767  22.007  25.966 -0.0303  0.2510  0.0223
67040PRPS   PO437499  27.202  21.925  26.172  0.1250  0.1561 -0.1520
67040PRPS   GL137500  27.136  22.040   0.265  0.0810 -0.1053  0.3325
67040PRPS   GL237501  27.495  21.941   0.319 -0.1819 -0.0368 -0.0358
67040PRPS   D1A37502  26.940  22.325   0.594 -0.0925 -0.3275  0.2416
67040PRPS   D2A37503  27.144  22.339   0.956 -0.0133  0.4313 -0.0350
67040PRPS   D3A37504  27.417  22.471   0.672 -0.0480 -0.0313  0.2558
67040PRPS   D4A37505  27.598  22.767   1.000 -0.1364  0.1152  0.1816
67040PRPS   D5A37506  27.632  22.299   1.147  0.4790 -0.1999  0.0047
67040PRPS   D6A37507  27.621  21.955   0.891 -0.0911  0.0504  0.1403
67040PRPS   C1B37508  27.167  21.928   0.744 -0.1776 -0.0984 -0.1569
67040PRPS   C2B37509  27.250  21.887   1.200 -0.1501  0.1171  0.0811
67040PRPS   C3B37510  27.581  21.885   1.432  0.5248 -0.1606 -0.0776
67040PRPS   C4B37511  28.047  21.840   1.508  0.0300 -0.1092  0.1746
67041PRPS   CNO37512   7.567  24.526  13.915  0.0962  0.1452 -0.0240
67041PRPS   PO437513   7.295  24.352  14.094  0.0788 -0.0392 -0.1388
67041PRPS   GL137514   6.898  24.282  14.277  0.0929 -0.1246 -0.2008
67041PRPS   GL237515   6.636  24.145  14.158 -0.0084 -0.1671 -0.2167
67041PRPS   D1A37516   6.602  24.494  14.534  0.1273  0.0443  0.0014
67041PRPS   D2A37517   6.213  24.362  14.569 -0.0878 -0.0260 -0.1150
67041PRPS   D3A37518   5.824  24.505  14.351  0.3871 -0.3534  0.0742
67041PRPS   D4A37519   5.808  24.185  14.326  0.1705  0.1559 -0.0998
67041PRPS   D5A37520   5.498  24.196  14.670 -0.2523  0.0382  0.1142
67041PRPS   D6A37521   5.366  23.907  14.505  0.0671  0.0486  0.0084
67041PRPS   C1B37522   6.232  24.109  14.071 -0.3297  0.2332 -0.0410
67041PRPS   C2B37523   5.916  24.301  13.834  0.2621 -0.0786 -0.0171
67041PRPS   C3B37524   5.548  24.227  13.629  0.4398 -0.2818  0.1120
67041PRPS   C4B37525   5.294  23.803  13.549 -0.2228 -0.2340 -0.0341
67042PRPS   CNO37526  19.773  19.946  10.357 -0.2664  0.1914 -0.2439
67042PRPS   PO437527  19.709  20.118  10.728 -0.0218 -0.1384 -0.0261
67042PRPS   GL137528  19.851  20.331  11.132 -0.0362  0.0910 -0.1594
67042PRPS   GL237529  20.168  20.202  11.100 -0.0547  0.1851 -0.1096
67042PRPS   D1A37530  20.169  20.578  11.461  0.4226 -0.2002  0.2048
67042PRPS   D2A37531  19.707  20.808  11.466 -0.0281  0.1068  0.0057
67042PRPS   D3A37532  19.640  21.049  11.115 -0.0682 -0.1653  0.2188
67042PRPS   D4A37533  20.006  21.196  10.831  0.2087  0.0003  0.2152
67042PRPS   D5A37534  20.403  20.944  10.944  0.0981  0.2085 -0.0107
67042PRPS   D6A37535  20.114  21.104  11.288 -0.1584  0.1783  0.0388
67042PRPS   C1B37536  20.508  20.041  11.240  0.0154 -0.0354 -0.1402
67042PRPS   C2B37537  20.975  20.015  11.457  0.0602 -0.0972 -0.0812
67042PRPS   C3B37538  21.108  20.180  11.931 -0.0200 -0.0507 -0.0391
67042PRPS   C4B37539  21.117  20.392  12.348 -0.1715 -0.2106 -0.1544
67043PRPS   CNO37540  26.105  13.369   1.134  0.3239  0.0929  0.1888
67043PRPS   PO437541  25.933  13.771   1.312 -0.1424  0.1243  0.1149
67043PRPS   GL137542  26.359  13.745   1.508  0.1540 -0.1485  0.0618
67043PRPS   GL237543  26.220  13.464   1.674  0.3457 -0.2528  0.2006
67043PRPS   D1A37544  26.878  13.676   1.354 -0.0295  0.1363  0.0488
67043PRPS   D2A37545  27.272  13.876   1.490  0.0226  0.0965 -0.0876
67043PRPS   D3A37546  27.437  13.998   2.001  0.1386  0.4197 -0.1149
67043PRPS   D4A37547  27.379  13.669   2.231 -0.0519  0.1329  0.2259
67043PRPS   D5A37548  27.135  13.566   2.499  0.2293 -0.0642  0.2910
67043PRPS   D6A37549  27.273  13.160   2.522 -0.1403  0.2346 -0.1251
67043PRPS   C1B37550  26.650  13.510   1.790  0.1109  0.0146 -0.2866
67043PRPS   C2B37551  26.754  13.761   2.063 -0.1118 -0.1346 -0.3503
67043PRPS   C3B37552  26.918  13.971   2.403  0.0533  0.2033  0.2332
67043PRPS   C4B37553  27.113  13.938   2.891  0.2820  0.0989 -0.2919
67044PRPS   CNO37554   7.574  22.464  13.819  0.1794  0.0894  0.1872
67044PRPS   PO437555   7.245  22.267  13.543  0.0875 -0.1175  0.0516
67044PRPS   GL137556   6.877  22.368  13.724 -0.1618  0.2106  0.1538
67044PRPS   GL237557   6.903  22.446  13.973  0.2746  0.1099  0.0532
67044PRPS   D1A37558   6.508  22.588  13.816 -0.0418 -0.1041  0.0487
67044PRPS   D2A37559   6.224  22.857  13.967 -0.0833  0.2213  0.0119
67044PRPS   D3A37560   6.331  22.974  13.539  0.0982 -0.1662  0.1101
67044PRPS   D4A37561   6.172  23.354  13.395 -0.1012 -0.1317  0.1950
67044PRPS   D5A37562   6.579  23.475  13.645 -0.3711  0.1354  0.2007
67044PRPS   D6A37563   6.951  23.258  13.567 -0.0470 -0.0567  0.0555
67044PRPS   C1B37564   6.701  22.518  14.395  0.1350  0.1375  0.0801
67044PRPS   C2B37565   6.361  22.668  14.542 -0.1706  0.1913 -0.3193
67044PRPS   C3B37566   5.870  22.660  14.523  0.0168 -0.0341  0.2092
67044PRPS   C4B37567   5.496  22.857  14.398  0.1335 -0.0107 -0.3338
67045PRPS   CNO37568  22.199  19.410   2.683  0.0048  0.2151  0.4017
67045PRPS   PO437569  22.533  19.141   2.909  0.0072  0.2839 -0.2329
67045PRPS   GL137570  22.681  18.932   3.218  0.0543  0.1065 -0.3040
67045PRPS   GL237571  22.603  18.560   3.435 -0.1424 -0.0594  0.0966
67045PRPS   D1A37572  23.094  18.755   3.406 -0.0289 -0.0192  0.0202
67045PRPS   D2A37573  23.305  19.031   3.812 -0.3175  0.0317 -0.0013
67045PRPS   D3A37574  23.136  19.332   3.914  0.2220 -0.0335  0.2273
67045PRPS   D4A37575  22.907  19.687   3.742  0.0057  0.0484  0.0328
67045PRPS   D5A37576  22.594  19.464   4.002  0.1528  0.0848  0.0312
67045PRPS   D6A37577  22.177  19.459   3.918  0.0730  0.1587 -0.2407
67045PRPS   C1B37578  22.878  18.439   3.758  0.0244 -0.1122  0.1181
67045PRPS   C2B37579  23.190  18.386   4.049 -0.0446 -0.0633 -0.1183
67045PRPS   C3B37580  23.727  18.377   4.188  0.0534 -0.0619 -0.1155
67045PRPS   C4B37581  24.099  18.319   3.920 -0.0436 -0.1046 -0.1812
67046PRPS   CNO37582  29.098  22.997   0.560  0.1012  0.1033  0.0176
67046PRPS   PO437583  28.938  23.284   0.802  0.2485  0.0627  0.2707
67046PRPS   GL137584  29.024  23.377   1.216  0.4126  0.2381 -0.2431
67046PRPS   GL237585  29.272  23.562   1.144 -0.0262 -0.2326 -0.3180
67046PRPS   D1A37586  28.740  23.313   1.485 -0.0356 -0.0706  0.0911
67046PRPS   D2A37587  28.480  23.147   1.205  0.0076 -0.1631  0.2887
67046PRPS   D3A37588  28.485  22.810   1.392 -0.2183  0.0311 -0.1602
67046PRPS   D4A37589  28.303  22.863   1.798  0.1431  0.3309 -0.0970
67046PRPS   D5A37590  28.418  22.478   1.859 -0.1555  0.1296 -0.3576
67046PRPS   D6A37591  28.119  22.240   2.055 -0.6189 -0.2954  0.0137
67046PRPS   C1B37592  29.581  23.478   1.412 -0.0601  0.0402  0.1499
67046PRPS   C2B37593  29.728  23.470   1.844 -0.0087  0.2341  0.1002
67046PRPS   C3B37594  29.537  23.203   2.116 -0.0269  0.3929 -0.2273
67046PRPS   C4B37595  29.175  23.287   2.355  0.2022 -0.1541 -0.2026
67047PRPS   CNO37596   6.062  19.397   7.679  0.1405  0.2739 -0.3320
67047PRPS   PO437597   5.828  19.171   7.983 -0.0702 -0.1171 -0.3652
67047PRPS   GL137598   5.481  19.337   7.767 -0.1935  0.2211 -0.0693
67047PRPS   GL237599   5.314  19.113   7.797  0.0896  0.0521  0.1205
67047PRPS   D1A37600   5.331  19.749   7.742 -0.3364 -0.0265  0.1786
67047PRPS   D2A37601   5.239  19.980   8.071  0.2153  0.0369 -0.1363
67047PRPS   D3A37602   5.182  19.679   8.346 -0.0521 -0.0864 -0.0469
67047PRPS   D4A37603   5.438  19.279   8.289 -0.2470 -0.3354 -0.0484
67047PRPS   D5A37604   5.715  19.466   8.549  0.0904  0.0385 -0.0912
67047PRPS   D6A37605   5.359  19.603   8.787 -0.0975 -0.2794 -0.0391
67047PRPS   C1B37606   4.902  18.968   7.862 -0.3367  0.0774 -0.0974
67047PRPS   C2B37607   4.519  18.895   8.088 -0.1163 -0.0234  0.0738
67047PRPS   C3B37608   4.387  19.000   8.514 -0.0112 -0.3627 -0.1222
67047PRPS   C4B37609   4.369  19.304   8.865 -0.0292  0.1146  0.2899
67048PRPS   CNO37610  16.260   3.740  12.536 -0.2693  0.0687  0.1276
67048PRPS   PO437611  16.210   3.703  12.007 -0.2296 -0.0196  0.1154
67048PRPS   GL137612  16.326   3.280  12.111  0.1147 -0.1378 -0.0323
67048PRPS   GL237613  16.573   3.269  12.371  0.1737 -0.0681  0.3515
67048PRPS   D1A37614  16.569   2.956  12.003 -0.1438  0.0631  0.0758
67048PRPS   D2A37615  16.276   2.675  11.941  0.2326 -0.1339  0.0993
67048PRPS   D3A37616  16.566   2.369  11.981  0.1862  0.0980 -0.1379
67048PRPS   D4A37617  16.388   2.086  12.267 -0.4547 -0.1325 -0.0249
67048PRPS   D5A37618  16.083   2.248  12.052 -0.4970  0.1144 -0.1075
67048PRPS   D6A37619  15.805   2.493  12.168  0.2803  0.0738 -0.1351
67048PRPS   C1B37620  16.745   2.905  12.615  0.1837 -0.3056  0.5220
67048PRPS   C2B37621  16.835   2.678  12.991 -0.0167  0.2872 -0.0744
67048PRPS   C3B37622  17.136   2.502  13.203 -0.2719 -0.1567  0.1468
67048PRPS   C4B37623  17.288   2.073  13.350 -0.1917 -0.1108  0.1596
67049PRPS   CNO37624   6.430  23.588  10.819 -0.0741  0.2315  0.0602
67049PRPS   PO437625   6.079  23.763  10.758 -0.0130  0.1200 -0.0940
67049PRPS   GL137626   5.674  23.781  11.133  0.2464  0.0489 -0.2438
67049PRPS   GL237627   5.494  23.681  10.898 -0.1227  0.2097 -0.1473
67049PRPS   D1A37628   5.652  23.304  11.251  0.0523 -0.1089  0.2674
67049PRPS   D2A37629   5.954  23.365  11.013 -0.1418  0.0144 -0.0587
67049PRPS   D3A37630   5.915  22.878  10.872  0.1041  0.0069  0.1316
67049PRPS   D4A37631   5.581  22.787  11.272 -0.0702 -0.1613 -0.1444
67049PRPS   D5A37632   5.494  22.337  11.308  0.0263 -0.1243 -0.2934
67049PRPS   D6A37633   5.619  22.244  10.999 -0.2233  0.0662 -0.0226
67049PRPS   C1B37634   5.257  23.366  11.054 -0.4491  0.4796  0.2342
67049PRPS   C2B37635   4.948  23.111  11.241  0.0292  0.1448  0.1141
67049PRPS   C3B37636   4.737  22.953  11.606 -0.2319 -0.3099  0.1916
67049PRPS   C4B37637   4.497  23.011  11.952  0.2978 -0.1495  0.0574
67050PRPS   CNO37638  18.538   0.285   9.509  0.3189 -0.0541 -0.0780
67050PRPS   PO437639  18.737  35.314   9.497  0.1079 -0.2927 -0.0254
67050PRPS   GL137640  18.780   0.047   9.922 -0.0335 -0.1638  0.1393
67050PRPS   GL237641  19.072  35.268   9.886  0.1357 -0.2631 -0.1509
67050PRPS   D1A37642  19.092   0.359  10.223  0.1958  0.2037  0.0414
67050PRPS   D2A37643  19.455   0.408  10.097  0.0897  0.1130 -0.2065
67050PRPS   D3A37644  19.528   0.347  10.537 -0.2686  0.0636 -0.1503
67050PRPS   D4A37645  19.874   0.419  10.783  0.3198 -0.1426 -0.0293
67050PRPS   D5A37646  19.792   0.595  11.101  0.0218  0.2270 -0.1429
67050PRPS   D6A37647  20.106   0.809  11.349  0.1495 -0.1143 -0.1219
67050PRPS   C1B37648  19.328  35.333  10.196 -0.0498 -0.0636  0.0890
67050PRPS   C2B37649  19.583  35.232  10.632  0.0850 -0.0334 -0.1508
67050PRPS   C3B37650  19.358  35.076  10.958 -0.1468  0.0109 -0.0905
67050PRPS   C4B37651  19.072  35.047  11.168  0.1476 -0.4662 -0.1911
67051PRPS   CNO37652  21.433  35.326   7.354  0.2485 -0.0956 -0.0884
67051PRPS   PO437653  21.593   0.095   7.639  0.0198  0.5549 -0.0119
67051PRPS   GL137654  21.691  35.209   8.060  0.1119  0.3618  0.1018
67051PRPS   GL237655  22.038  35.378   8.231  0.3376 -0.1405  0.0964
67051PRPS   D1A37656  21.678  34.788   8.299 -0.0765 -0.1804 -0.1772
67051PRPS   D2A37657  21.560  35.119   8.661 -0.2669  0.1011 -0.4048
67051PRPS   D3A37658  21.794   0.078   8.821 -0.1513  0.0300  0.0368
67051PRPS   D4A37659  22.042  35.370   9.217  0.4008  0.0425  0.0992
67051PRPS   D5A37660  21.840  34.945   9.320 -0.0302 -0.1010  0.1858
67051PRPS   D6A37661  21.579  35.260   9.366  0.3129 -0.0641 -0.1549
67051PRPS   C1B37662  22.025  35.088   8.547 -0.1421  0.0648  0.0928
67051PRPS   C2B37663  21.924  34.876   8.874 -0.1389  0.2921  0.1217
67051PRPS   C3B37664  22.205  34.608   9.206 -0.0324  0.0010  0.1317
67051PRPS   C4B37665  22.531  34.447   9.263 -0.0471  0.1299 -0.3300
67052PRPS   CNO37666  16.541   2.400  10.982  0.0563 -0.0013  0.0207
67052PRPS   PO437667  16.741   2.012  10.952 -0.1128 -0.0417 -0.0369
67052PRPS   GL137668  17.003   1.722  11.335 -0.1839  0.1924 -0.0962
67052PRPS   GL237669  17.302   1.721  11.273 -0.0101 -0.0136  0.0664
67052PRPS   D1A37670  17.051   1.445  11.636  0.0030  0.1237 -0.1381
67052PRPS   D2A37671  17.178   1.621  12.037 -0.0583 -0.0666 -0.0993
67052PRPS   D3A37672  16.711   1.657  11.929  0.1955  0.1912 -0.0443
67052PRPS   D4A37673  16.540   1.608  11.490  0.2375  0.1217 -0.1997
67052PRPS   D5A37674  16.233   1.369  11.590 -0.1536 -0.0977 -0.1183
67052PRPS   D6A37675  16.208   1.198  11.210 -0.2220  0.0612 -0.0155
67052PRPS   C1B37676  17.566   1.402  11.290  0.3220 -0.1010  0.1103
67052PRPS   C2B37677  17.851   1.103  11.486 -0.2543 -0.3200  0.0065
67052PRPS   C3B37678  18.076   1.070  11.831  0.0838  0.1285 -0.2166
67052PRPS   C4B37679  17.972   0.833  12.169  0.2525 -0.1665  0.0098
67053PRPS   CNO37680  18.388   4.370  11.581  0.0662 -0.0339 -0.1706
67053PRPS   PO437681  18.586   4.735  11.761  0.0093  0.1605 -0.1024
67053PRPS   GL137682  18.927   4.544  12.064  0.0273  0.0041  0.0569
67053PRPS   GL237683  19.227   4.710  12.113  0.1255  0.0192  0.0300
67053PRPS   D1A37684  18.954   4.215  12.457 -0.1756  0.1194 -0.3320
67053PRPS   D2A37685  19.062   3.951  12.283 -0.1154  0.0598  0.2377
67053PRPS   D3A37686  19.352   3.893  12.573 -0.2434  0.2184 -0.0020
67053PRPS   D4A37687  19.481   3.563  12.789 -0.0901 -0.2456 -0.0767
67053PRPS   D5A37688  19.080   3.575  12.899  0.0469 -0.0984  0.2501
67053PRPS   D6A37689  18.871   3.503  12.548 -0.1786  0.2180 -0.1949
67053PRPS   C1B37690  19.453   4.717  12.513  0.1097  0.3354 -0.1710
67053PRPS   C2B37691  19.560   4.531  12.915  0.0566 -0.0516  0.0368
67053PRPS   C3B37692  19.683   4.013  13.042 -0.0546  0.0687  0.1835
67053PRPS   C4B37693  19.569   3.637  13.332  0.1421  0.5343 -0.2181
67054PRPS   CNO37694  32.939  26.850   3.471 -0.1985  0.4004 -0.0019
67054PRPS   PO437695  32.482  26.765   3.458 -0.2147 -0.2802  0.2323
67054PRPS   GL137696  32.572  26.524   3.846  0.0826  0.0676 -0.1207
67054PRPS   GL237697  32.441  26.282   3.770 -0.1072  0.1432 -0.1510
67054PRPS   D1A37698  32.740  26.244   4.175  0.0736 -0.2123  0.0175
67054PRPS   D2A37699  32.895  25.988   3.879  0.2700 -0.1177 -0.0097
67054PRPS   D3A37700  33.127  25.878   4.189  0.0476  0.3314 -0.0745
67054PRPS   D4A37701  33.041  25.434   4.147 -0.2733  0.1129 -0.1529
67054PRPS   D5A37702  32.660  25.556   4.269  0.4376 -0.0646  0.1124
67054PRPS   D6A37703  32.681  25.853   4.466 -0.1251 -0.2952 -0.0519
67054PRPS   C1B37704  32.325  25.969   4.041 -0.0206  0.1622 -0.4984
67054PRPS   C2B37705  32.240  26.141   4.443  0.3419 -0.1247 -0.3064
67054PRPS   C3B37706  32.411  26.096   4.823  0.3028  0.0970  0.1286
67054PRPS   C4B37707  32.512  26.035   5.194 -0.4870 -0.1378 -0.0972
67055PRPS   CNO37708  30.048  26.350   1.523 -0.2149 -0.4952  0.1213
67055PRPS   PO437709  30.106  26.126   1.920 -0.2545 -0.1441 -0.0136
67055PRPS   GL137710  30.050  25.955   2.331 -0.1542 -0.3150 -0.0880
67055PRPS   GL237711  29.709  25.927   2.485 -0.0301  0.0074  0.1409
67055PRPS   D1A37712  30.266  25.667   2.644  0.0924 -0.3570 -0.1671
67055PRPS   D2A37713  30.729  25.538   2.500  0.1779 -0.0684  0.3533
67055PRPS   D3A37714  31.115  25.883   2.448  0.1141  0.0675 -0.1443
67055PRPS   D4A37715  30.667  26.046   2.424  0.1783 -0.1290  0.0848
67055PRPS   D5A37716  30.738  25.949   2.071  0.4163 -0.1742 -0.0150
67055PRPS   D6A37717  30.398  25.609   2.144  0.0990  0.1466 -0.2613
67055PRPS   C1B37718  29.860  25.754   2.917  0.1612  0.0501  0.1400
67055PRPS   C2B37719  30.097  25.381   3.270  0.1136 -0.1052  0.3635
67055PRPS   C3B37720  30.332  25.000   3.204  0.2596  0.1242 -0.0121
67055PRPS   C4B37721  30.718  24.674   3.174  0.1544 -0.0227  0.0150
67056PRPS   CNO37722  32.751   5.050   5.746  0.1606 -0.2638 -0.0701
67056PRPS   PO437723  32.714   5.293   6.060  0.0305 -0.0083 -0.0855
67056PRPS   GL137724  32.746   5.767   5.931 -0.0728 -0.0918 -0.4780
67056PRPS   GL237725  32.780   5.889   6.315 -0.2550 -0.0364 -0.0353
67056PRPS   D1A37726  32.709   6.220   5.719 -0.0714 -0.2532 -0.0238
67056PRPS   D2A37727  32.570   6.391   6.073  0.2259 -0.3337  0.0501
67056PRPS   D3A37728  32.434   6.730   5.874  0.0940  0.1271  0.2172
67056PRPS   D4A37729  32.543   6.651   5.495 -0.0783  0.0707  0.0584
67056PRPS   D5A37730  32.210   6.652   5.355 -0.4101 -0.2635  0.0213
67056PRPS   D6A37731  32.186   6.288   5.639 -0.1773 -0.2810  0.1983
67056PRPS   C1B37732  32.483   6.178   6.542 -0.2938  0.1347  0.0190
67056PRPS   C2B37733  32.240   6.356   6.862  0.0259  0.2069 -0.1197
67056PRPS   C3B37734  32.154   6.414   7.263  0.1370  0.2083 -0.4044
67056PRPS   C4B37735  32.142   6.246   7.738 -0.5451  0.0851 -0.0015
67057PRPS   CNO37736   7.074  18.089  12.140 -0.0172  0.0359 -0.0188
67057PRPS   PO437737   6.953  17.764  12.222 -0.2005  0.0183  0.0473
67057PRPS   GL137738   6.593  17.834  12.098  0.0802 -0.0169 -0.2869
67057PRPS   GL237739   6.605  18.145  12.191 -0.0411 -0.1231 -0.3661
67057PRPS   D1A37740   6.284  17.632  11.829  0.1299  0.1248  0.1893
67057PRPS   D2A37741   5.847  17.606  11.884 -0.0874  0.0536 -0.0549
67057PRPS   D3A37742   5.747  17.278  11.710  0.1005  0.0978 -0.1949
67057PRPS   D4A37743   5.362  17.457  11.413  0.2173 -0.0237  0.0015
67057PRPS   D5A37744   5.558  17.754  11.050  0.0581 -0.0921 -0.0646
67057PRPS   D6A37745   5.958  17.535  11.359  0.0548 -0.0690  0.0717
67057PRPS   C1B37746   6.296  18.404  12.116  0.0322 -0.0179 -0.0865
67057PRPS   C2B37747   6.052  18.684  12.343  0.1586 -0.3475 -0.0246
67057PRPS   C3B37748   5.743  19.007  12.521 -0.1244  0.3074  0.0386
67057PRPS   C4B37749   5.403  19.286  12.323 -0.1508 -0.0515  0.0053
67058PRPS   CNO37750  17.897  25.975  12.724  0.0155  0.1724  0.0096
67058PRPS   PO437751  17.556  25.765  13.063  0.3434 -0.0246 -0.0689
67058PRPS   GL137752  17.592  26.116  13.320  0.0017  0.0719 -0.0396
67058PRPS   GL237753  17.661  25.933  13.566 -0.0409 -0.4941  0.0845
67058PRPS   D1A37754  17.849  26.461  13.426 -0.2201  0.3646 -0.0815
67058PRPS   D2A37755  17.578  26.567  13.750 -0.2958 -0.2830 -0.5086
67058PRPS   D3A37756  17.392  26.289  14.008  0.1896 -0.0436 -0.0583
67058PRPS   D4A37757  17.260  26.428  14.372 -0.1283  0.1172  0.2530
67058PRPS   D5A37758  17.596  26.623  14.762 -0.0267 -0.0444 -0.0390
67058PRPS   D6A37759  17.999  26.770  14.786  0.0965 -0.1444  0.2455
67058PRPS   C1B37760  17.891  26.143  13.850  0.2340 -0.2347 -0.1528
67058PRPS   C2B37761  18.208  26.498  13.879  0.2637  0.1797 -0.1437
67058PRPS   C3B37762  18.653  26.591  14.088 -0.0098  0.0133  0.1414
67058PRPS   C4B37763  18.825  26.342  14.443  0.0279 -0.0123  0.1102
67059PRPS   CNO37764   0.964  14.309   2.533  0.3398 -0.0975  0.1922
67059PRPS   PO437765   0.620  13.986   2.747  0.2567 -0.4586 -0.4201
67059PRPS   GL137766   0.851  14.195   3.123  0.1701  0.1226  0.1737
67059PRPS   GL237767   0.567  14.145   3.276  0.1929 -0.0111 -0.1728
67059PRPS   D1A37768   1.107  14.429   3.444  0.1079  0.1565 -0.3613
67059PRPS   D2A37769   1.490  14.515   3.435 -0.0227 -0.0602 -0.1029
67059PRPS   D3A37770   1.507  14.327   3.841 -0.0036  0.2013  0.2970
67059PRPS   D4A37771   1.764  14.146   4.144  0.4484  0.3021  0.3014
67059PRPS   D5A37772   1.810  14.723   4.082 -0.3679 -0.1228 -0.0250
67059PRPS   D6A37773   1.636  15.009   4.446 -0.2118  0.2674  0.0847
67059PRPS   C1B37774   0.177  14.079   3.197 -0.1004 -0.2396 -0.6167
67059PRPS   C2B37775  35.270  14.111   3.261 -0.1612 -0.1431 -0.1240
67059PRPS   C3B37776  34.939  14.411   3.372  0.1146 -0.2180  0.0011
67059PRPS   C4B37777  34.495  14.506   3.324  0.0943 -0.0485 -0.3673
67060PRPS   CNO37778  20.961  13.614   4.834 -0.1677 -0.2626  0.1069
67060PRPS   PO437779  21.075  13.587   5.311  0.1630 -0.0046  0.0416
67060PRPS   GL137780  21.369  13.822   5.196 -0.0094  0.1177  0.1677
67060PRPS   GL237781  21.513  13.909   5.505 -0.0856  0.0194 -0.0749
67060PRPS   D1A37782  21.784  13.900   5.111  0.2532  0.0622 -0.0710
67060PRPS   D2A37783  21.528  13.887   4.721  0.2935  0.0935 -0.0475
67060PRPS   D3A37784  21.474  14.277   4.503  0.2545 -0.0484 -0.2183
67060PRPS   D4A37785  21.655  14.016   4.239  0.1856  0.2076  0.2845
67060PRPS   D5A37786  22.044  14.205   4.308  0.4152 -0.1189 -0.1668
67060PRPS   D6A37787  22.063  13.995   4.680 -0.1094 -0.3307  0.2655
67060PRPS   C1B37788  21.964  13.962   5.672  0.1287 -0.0297  0.2014
67060PRPS   C2B37789  22.300  14.179   5.845  0.4141 -0.0116 -0.1796
67060PRPS   C3B37790  22.653  14.226   5.925 -0.0927  0.1871 -0.1266
67060PRPS   C4B37791  22.806  14.587   6.139 -0.0010  0.1088 -0.0137
67061PRPS   CNO37792   2.073   6.905   6.904  0.1623  0.0208 -0.0015
67061PRPS   PO437793   1.654   6.786   7.112  0.0001 -0.1818  0.2639
67061PRPS   GL137794   1.484   7.035   7.528  0.1005 -0.2229  0.3421
67061PRPS   GL237795   1.655   7.110   7.672  0.2451  0.1415 -0.0712
67061PRPS   D1A37796   1.191   7.342   7.678  0.2696  0.0065  0.0780
67061PRPS   D2A37797   1.097   7.535   8.122 -0.1005 -0.4757  0.1866
67061PRPS   D3A37798   1.297   7.192   8.182  0.0869  0.0286  0.0902
67061PRPS   D4A37799   1.569   7.403   8.442 -0.3651  0.0126  0.0027
67061PRPS   D5A37800   1.783   7.316   8.153 -0.3895 -0.1681  0.0285
67061PRPS   D6A37801   2.135   7.311   7.833  0.0832  0.0554 -0.2543
67061PRPS   C1B37802   1.637   7.587   7.799 -0.3555  0.1247 -0.0426
67061PRPS   C2B37803   1.577   7.861   8.084  0.0670 -0.0815  0.0495
67061PRPS   C3B37804   1.487   7.951   8.508 -0.0949  0.1237 -0.1541
67061PRPS   C4B37805   1.209   7.748   8.720  0.1123 -0.2464 -0.0467
67062PRPS   CNO37806  30.010  18.946  26.120  0.2603  0.1337  0.3041
67062PRPS   PO437807  30.190  19.383  26.106  0.0271  0.0398  0.0633
67062PRPS   GL137808  29.928  19.534  26.251 -0.2131 -0.2245 -0.1814
67062PRPS   GL237809  29.829  19.318   0.235 -0.2083 -0.1397 -0.2246
67062PRPS   D1A37810  29.891  19.980   0.188  0.3245  0.1026  0.0549
67062PRPS   D2A37811  30.163  20.193  26.214 -0.2632 -0.0946  0.0677
67062PRPS   D3A37812  30.451  20.366   0.280 -0.0603 -0.1003 -0.1653
67062PRPS   D4A37813  30.005  20.401   0.401  0.1124  0.1193 -0.1976
67062PRPS   D5A37814  29.743  20.080   0.685  0.1917  0.2429 -0.1577
67062PRPS   D6A37815  29.396  20.094   0.951 -0.3139 -0.1716 -0.0760
67062PRPS   C1B37816  29.909  19.450   0.551 -0.0827  0.3072 -0.0206
67062PRPS   C2B37817  30.263  19.381   0.760  0.0279 -0.1624  0.1545
67062PRPS   C3B37818  30.369  19.591   1.131 -0.0852  0.0866  0.1696
67062PRPS   C4B37819  30.652  19.917   1.411 -0.2623 -0.0818 -0.0126
67063PRPS   CNO37820   6.949   4.815  13.326  0.1528  0.2356  0.1625
67063PRPS   PO437821   6.840   4.834  13.824  0.0168  0.0755 -0.0618
67063PRPS   GL137822   6.675   4.911  14.116  0.0920 -0.0697 -0.2092
67063PRPS   GL237823   6.733   4.907  14.364  0.2221 -0.0911 -0.2534
67063PRPS   D1A37824   6.359   5.212  14.277  0.0258 -0.1107 -0.2412
67063PRPS   D2A37825   5.928   5.172  14.162  0.0375 -0.1720 -0.3674
67063PRPS   D3A37826   5.641   5.118  14.328  0.2668 -0.0735 -0.2947
67063PRPS   D4A37827   5.581   5.571  14.347 -0.0262  0.1617 -0.3323
67063PRPS   D5A37828   5.957   5.621  14.428 -0.1099 -0.0417 -0.2393
67063PRPS   D6A37829   6.002   5.268  14.640 -0.0295 -0.2937  0.1830
67063PRPS   C1B37830   6.453   4.921  14.722  0.2956  0.1316 -0.8494
67063PRPS   C2B37831   6.148   4.967  15.072 -0.2387 -0.2844  0.0986
67063PRPS   C3B37832   5.745   5.013  14.975  0.1362  0.0375  0.2958
67063PRPS   C4B37833   5.276   4.942  14.997  0.3807 -0.1189 -0.1379
67064PRPS   CNO37834  10.810  15.046  12.955  0.1230 -0.5103 -0.0595
67064PRPS   PO437835  11.044  15.009  13.411 -0.0301  0.0365  0.0623
67064PRPS   GL137836  10.961  15.189  13.973  0.1085  0.1732 -0.1658
67064PRPS   GL237837  10.875  14.992  14.291 -0.2145  0.0032  0.0213
67064PRPS   D1A37838  11.284  15.233  14.288  0.1364  0.1138  0.1366
67064PRPS   D2A37839  11.102  15.439  14.594  0.1449  0.0704 -0.2120
67064PRPS   D3A37840  11.095  15.705  14.295  0.0420 -0.0315 -0.1096
67064PRPS   D4A37841  10.695  15.644  14.165  0.3470 -0.3681  0.0185
67064PRPS   D5A37842  10.436  15.944  14.466  0.2258  0.3171  0.2134
67064PRPS   D6A37843  10.497  15.564  14.617 -0.0176  0.1031  0.2860
67064PRPS   C1B37844  10.675  15.047  14.643 -0.0954  0.0418  0.1027
67064PRPS   C2B37845  10.642  15.271  14.932 -0.1519  0.1213  0.1884
67064PRPS   C3B37846  10.314  15.425  15.168  0.0256 -0.1206  0.0434
67064PRPS   C4B37847  10.012  15.327  15.301  0.0861  0.0294 -0.0479
67065PRPS   CNO37848  25.838  12.133   1.797  0.2729  0.1119  0.0178
67065PRPS   PO437849  25.849  12.637   1.595 -0.0469  0.1230 -0.1511
67065PRPS   GL137850  26.260  12.470   1.806  0.1704  0.1686  0.1160
67065PRPS   GL237851  26.235  12.773   1.831 -0.1273 -0.3389 -0.2879
67065PRPS   D1A37852  26.625  12.325   1.759 -0.1882 -0.1163 -0.0989
67065PRPS   D2A37853  26.685  12.483   2.114 -0.3013 -0.2841  0.0902
67065PRPS   D3A37854  27.094  12.250   2.032 -0.2988  0.0960  0.0029
67065PRPS   D4A37855  27.029  11.838   1.831  0.0478 -0.2240  0.1465
67065PRPS   D5A37856  27.165  11.830   2.268  0.0782  0.2293 -0.0178
67065PRPS   D6A37857  26.880  11.503   2.252 -0.3003 -0.1768 -0.1824
67065PRPS   C1B37858  26.631  12.949   1.907  0.2753 -0.3573 -0.0224
67065PRPS   C2B37859  26.917  13.196   2.185 -0.1910 -0.0531 -0.0170
67065PRPS   C3B37860  27.265  13.276   2.011  0.2689 -0.2315  0.0382
67065PRPS   C4B37861  27.687  13.539   1.869 -0.1682 -0.0674 -0.3339
67066PRPS   CNO37862  28.362  21.096  25.453  0.2758 -0.0750  0.0804
67066PRPS   PO437863  28.603  21.035  25.854 -0.2736 -0.0342  0.0903
67066PRPS   GL137864  28.068  20.978  25.828  0.0083  0.0562  0.0784
67066PRPS   GL237865  27.897  21.104  26.029 -0.2284 -0.0868 -0.2136
67066PRPS   D1A37866  27.858  20.621  26.092  0.0131  0.1212 -0.0496
67066PRPS   D2A37867  28.071  20.204  26.216 -0.2950  0.0182  0.1191
67066PRPS   D3A37868  27.970  19.816  26.226 -0.0327 -0.2950  0.2457
67066PRPS   D4A37869  27.621  19.750   0.240 -0.1908  0.1139 -0.5106
67066PRPS   D5A37870  27.566  20.227   0.096  0.1884 -0.1435  0.1321
67066PRPS   D6A37871  27.837  20.459   0.395  0.0779 -0.0292 -0.1700
67066PRPS   C1B37872  28.217  20.870   0.077  0.2141  0.0976  0.0320
67066PRPS   C2B37873  28.307  20.791   0.535 -0.2359 -0.0650 -0.1477
67066PRPS   C3B37874  28.575  20.805   0.888  0.0270 -0.0187  0.1661
67066PRPS   C4B37875  28.681  20.386   1.122 -0.2229  0.1021 -0.1543
67067PRPS   CNO37876   1.505   8.556   5.889 -0.1142 -0.0887 -0.0391
67067PRPS   PO437877   1.101   8.582   5.657 -0.1944  0.0546 -0.2210
67067PRPS   GL137878   0.888   8.904   5.535 -0.0201 -0.1944  0.1084
67067PRPS   GL237879   0.886   9.188   5.546  0.0353 -0.1615  0.0301
67067PRPS   D1A37880   0.414   9.016   5.459 -0.1257 -0.0583 -0.1802
67067PRPS   D2A37881   0.260   8.582   5.542  0.2047  0.0039  0.2676
67067PRPS   D3A37882   0.598   8.661   5.848  0.1124  0.0640  0.0862
67067PRPS   D4A37883   0.256   8.949   5.933  0.0117 -0.3190 -0.0632
67067PRPS   D5A37884   0.056   9.252   5.713  0.1178 -0.2356  0.0067
67067PRPS   D6A37885  35.122   9.476   5.828 -0.0656  0.0525  0.1113
67067PRPS   C1B37886   0.530   9.474   5.719 -0.1612 -0.0659  0.3096
67067PRPS   C2B37887   0.187   9.706   5.787 -0.1373 -0.2869  0.0526
67067PRPS   C3B37888  35.301   9.931   6.057  0.1186  0.0272  0.2568
67067PRPS   C4B37889   0.030  10.373   6.257 -0.0566 -0.2436 -0.0269
67068PRPS   CNO37890  13.227   1.093  12.581  0.0687 -0.0505 -0.0143
67068PRPS   PO437891  13.270   0.978  13.078  0.0334 -0.4188  0.0477
67068PRPS   GL137892  13.240   1.201  13.609  0.2841  0.1901  0.2158
67068PRPS   GL237893  13.563   1.266  13.503  0.0411  0.0234 -0.2673
67068PRPS   D1A37894  13.222   1.300  13.959  0.2060 -0.2504  0.1751
67068PRPS   D2A37895  13.004   1.171  14.235 -0.0479 -0.0758 -0.1697
67068PRPS   D3A37896  12.622   1.325  13.999 -0.1262 -0.3238  0.2964
67068PRPS   D4A37897  12.859   1.472  13.662  0.0472  0.2656  0.1052
67068PRPS   D5A37898  12.806   1.793  13.853  0.2319  0.2029  0.2935
67068PRPS   D6A37899  12.895   1.642  14.274 -0.0053 -0.0893 -0.0240
67068PRPS   C1B37900  13.746   1.585  13.716 -0.2481  0.1286  0.1207
67068PRPS   C2B37901  13.921   1.845  13.975  0.0949  0.0656  0.1079
67068PRPS   C3B37902  13.778   1.891  14.523  0.0889 -0.1833 -0.0271
67068PRPS   C4B37903  13.709   2.221  14.943  0.3330 -0.2205  0.0937
67069PRPS   CNO37904   3.344  11.029   7.240 -0.1018  0.0578  0.0669
67069PRPS   PO437905   3.133  10.568   7.330  0.3162  0.2190 -0.1327
67069PRPS   GL137906   2.736  10.405   7.580  0.1725 -0.4351  0.0732
67069PRPS   GL237907   2.671  10.090   7.620 -0.4414 -0.0150  0.2260
67069PRPS   D1A37908   2.288  10.434   7.470 -0.1412  0.0100 -0.1108
67069PRPS   D2A37909   2.327  10.028   7.345  0.1946  0.1139 -0.1318
67069PRPS   D3A37910   1.848   9.980   7.415 -0.0056  0.1345  0.1942
67069PRPS   D4A37911   1.690  10.159   7.013  0.1364  0.5097 -0.1499
67069PRPS   D5A37912   1.447  10.317   7.306 -0.1757  0.2754  0.0059
67069PRPS   D6A37913   1.719  10.621   7.177 -0.2062 -0.1606 -0.1098
67069PRPS   C1B37914   2.287  10.088   7.903  0.1661 -0.0021  0.1904
67069PRPS   C2B37915   2.004  10.280   8.063  0.2616 -0.3304 -0.0801
67069PRPS   C3B37916   2.008  10.538   8.468  0.1681 -0.0813 -0.0228
67069PRPS   C4B37917   2.270  10.824   8.609 -0.1418 -0.1684  0.2704
67070DPSM   NC337918   7.456  15.903  11.770  0.1547  0.2226 -0.0984
67070DPSM   PO437919   7.148  16.022  11.698  0.2280  0.0513  0.2483
67070DPSM   AM137920   6.737  16.075  11.924 -0.1915 -0.3786  0.1916
67070DPSM   AM237921   6.516  15.985  11.968 -0.1052  0.0388  0.2329
67070DPSM   T1A37922   6.487  16.465  12.287  0.3788  0.1505  0.4931
67070DPSM   C2A37923   6.143  16.569  12.635  0.4099  0.0205 -0.0240
67070DPSM   C3A37924   5.915  16.849  12.943 -0.4669  0.2346 -0.0367
67070DPSM   C1B37925   6.194  16.030  12.324 -0.0461  0.2131  0.2082
67070DPSM   C2B37926   5.882  16.094  12.615  0.2092  0.1381  0.0230
67070DPSM   C3B37927   5.695  16.392  12.893  0.1658 -0.0489  0.2153
67070DPSM   C4B37928   5.288  16.365  12.986 -0.1339  0.0968  0.1449
67071DPSM   NC337929  14.333  23.179  17.227  0.0952  0.1558 -0.1479
67071DPSM   PO437930  14.538  23.483  17.474 -0.1158 -0.1800  0.2138
67071DPSM   AM137931  14.712  23.727  17.849  0.0423 -0.1021  0.1752
67071DPSM   AM237932  14.697  24.032  17.841  0.1331 -0.1593  0.0550
67071DPSM   T1A37933  14.881  23.611  18.275 -0.1142  0.3242  0.1667
67071DPSM   C2A37934  15.036  23.544  18.677  0.0295  0.0964 -0.0562
67071DPSM   C3A37935  15.103  23.643  19.162  0.0726 -0.1882 -0.3763
67071DPSM   C1B37936  14.802  24.106  18.240 -0.0118  0.1900  0.3258
67071DPSM   C2B37937  14.866  24.011  18.639 -0.1722 -0.2343 -0.2845
67071DPSM   C3B37938  15.153  24.079  18.842 -0.0870  0.0924 -0.1319
67071DPSM   C4B37939  15.490  23.967  19.175  0.1093 -0.0207  0.2502
67072DPSM   NC337940  20.858  22.168   7.120  0.1883 -0.1410 -0.0546
67072DPSM   PO437941  21.201  21.895   7.007 -0.0862  0.5339 -0.1205
67072DPSM   AM137942  21.659  21.811   7.124 -0.0579  0.0650  0.1534
67072DPSM   AM237943  21.835  21.614   7.056  0.2169 -0.0888 -0.0784
67072DPSM   T1A37944  21.902  21.895   7.456 -0.0971 -0.1430  0.0904
67072DPSM   C2A37945  22.296  21.984   7.537  0.0834 -0.1020 -0.2257
67072DPSM   C3A37946  22.666  22.042   7.762  0.3781  0.1908 -0.0890
67072DPSM   C1B37947  22.157  21.492   7.187 -0.0559 -0.0180 -0.0236
67072DPSM   C2B37948  22.556  21.544   7.375 -0.1317  0.0613  0.0504
67072DPSM   C3B37949  22.883  21.661   7.590  0.4041 -0.1776 -0.2298
67072DPSM   C4B37950  23.252  21.740   7.520  0.1162  0.1647  0.0792
67073DPSM   NC337951  21.209   5.912   9.113  0.0626 -0.1199 -0.0404
67073DPSM   PO437952  21.545   5.728   8.854  0.0627 -0.1477  0.0554
67073DPSM   AM137953  21.985   5.545   8.863 -0.0097  0.0217 -0.0713
67073DPSM   AM237954  22.034   5.304   9.065 -0.1020  0.0012  0.0279
67073DPSM   T1A37955  22.439   5.579   8.962  0.1085  0.1407 -0.0454
67073DPSM   C2A37956  22.873   5.775   8.876 -0.1858 -0.0390 -0.3608
67073DPSM   C3A37957  23.120   6.046   9.136 -0.0434  0.1090 -0.2474
67073DPSM   C1B37958  22.180   5.273   9.506 -0.0087 -0.2470  0.0439
67073DPSM   C2B37959  22.511   5.311   9.747 -0.1810  0.0208 -0.3006
67073DPSM   C3B37960  22.882   5.399  10.088 -0.1343  0.2492  0.0098
67073DPSM   C4B37961  23.243   5.355  10.273  0.2283  0.0186  0.0188
67074DPSM   NC337962  24.286   1.281   7.315 -0.1690  0.0520 -0.1180
67074DPSM   PO437963  24.201   0.882   7.491 -0.1376 -0.1547  0.2399
67074DPSM   AM137964  24.476   0.921   7.733  0.0228 -0.1956  0.4545
67074DPSM   AM237965  24.742   1.078   7.777  0.3019  0.1774  0.3974
67074DPSM   T1A37966  24.448   0.902   8.158  0.1929  0.4687 -0.0398
67074DPSM   C2A37967  24.557   0.823   8.559  0.0431  0.4502 -0.0258
67074DPSM   C3A37968  24.690   1.007   8.949 -0.2004  0.2091 -0.0162
67074DPSM   C1B37969  24.858   1.140   8.293  0.0670  0.0581  0.1454
67074DPSM   C2B37970  25.079   1.041   8.630  0.1712 -0.1501  0.0983
67074DPSM   C3B37971  25.348   1.337   8.810 -0.2149  0.2032  0.3284
67074DPSM   C4B37972  25.659   1.055   9.023 -0.1002 -0.1305  0.3566
67075DPSM   NC337973  28.414   8.074   2.579  0.2155 -0.1571 -0.1544
67075DPSM   PO437974  28.001   8.073   2.307  0.2987 -0.0968  0.2998
67075DPSM   AM137975  28.009   8.419   2.372 -0.0658  0.1064  0.0438
67075DPSM   AM237976  27.760   8.564   2.266 -0.1224 -0.0745 -0.3631
67075DPSM   T1A37977  28.183   8.454   2.785 -0.0218 -0.1489  0.1464
67075DPSM   C2A37978  28.348   8.710   3.196 -0.2899  0.2346 -0.0378
67075DPSM   C3A37979  28.330   9.167   3.380 -0.0194  0.0715 -0.0621
67075DPSM   C1B37980  27.781   8.774   2.682  0.0217 -0.1761  0.2680
67075DPSM   C2B37981  27.963   8.957   2.927 -0.0028 -0.2181 -0.2159
67075DPSM   C3B37982  27.869   9.294   3.252  0.0316 -0.1217  0.0329
67075DPSM   C4B37983  27.946   9.361   3.687  0.1787 -0.1671 -0.3563
67076POSM   NC337984  15.640   4.518  12.424 -0.0824  0.1542  0.5376
67076POSM   PO437985  15.857   4.552  12.901 -0.2910 -0.0295  0.0340
67076POSM   AM137986  15.929   4.157  13.178  0.4153 -0.0107  0.0218
67076POSM   AM237987  15.708   4.257  13.284 -0.0806  0.2328  0.3859
67076POSM   T1A37988  16.126   4.061  13.509 -0.1743  0.0824  0.2918
67076POSM   C2A37989  16.335   3.902  13.890 -0.1339 -0.2073 -0.0721
67076POSM   C3A37990  16.294   3.865  14.345 -0.0995  0.3789  0.0563
67076POSM   C1B37991  15.525   4.102  13.658 -0.2905  0.2148  0.1435
67076POSM   D2B37992  15.342   4.103  14.089  0.0247 -0.1203 -0.0806
67076POSM   C3B37993  15.655   4.152  14.410 -0.0122  0.1265 -0.2888
67076POSM   C4B37994  16.020   4.254  14.597 -0.0187 -0.0990  0.1830
67077POSM   NC337995  32.777  30.842   7.061 -0.0486  0.2557 -0.2212
67077POSM   PO437996  32.698  30.633   6.747  0.1423  0.0663  0.1712
67077POSM   AM137997  32.481  30.481   7.127  0.1724  0.0741 -0.0603
67077POSM   AM237998  32.455  30.705   7.400 -0.1935 -0.0137 -0.0119
67077POSM   T1A37999  32.198  30.203   7.374  0.0676 -0.2152 -0.1072
67077POSM   C2A38000  31.739  30.043   7.697  0.0924  0.2955 -0.2552
67077POSM   C3A38001  31.612  29.819   7.981  0.0149  0.0741  0.0439
67077POSM   C1B38002  32.296  30.484   7.751  0.0261  0.1518  0.0727
67077POSM   D2B38003  32.033  30.254   7.984 -0.1723  0.0986 -0.1666
67077POSM   C3B38004  32.103  29.904   8.320  0.1758  0.1331 -0.1686
67077POSM   C4B38005  32.110  29.815   8.802  0.0649  0.1326  0.0214
67078POSM   NC338006  17.988  17.982  13.153  0.4399 -0.1487  0.4185
67078POSM   PO438007  17.592  17.931  13.387 -0.1780  0.0012 -0.0223
67078POSM   AM138008  17.843  17.723  13.584 -0.2864  0.0998 -0.0570
67078POSM   AM238009  17.698  17.870  13.898 -0.1254 -0.1072  0.2452
67078POSM   T1A38010  18.123  17.514  13.935 -0.0458 -0.0647 -0.2420
67078POSM   C2A38011  18.520  17.350  14.116  0.0051  0.1497  0.0621
67078POSM   C3A38012  18.620  16.990  14.230 -0.0217 -0.0743  0.0124
67078POSM   C1B38013  17.945  17.829  14.283 -0.0103 -0.1475 -0.1140
67078POSM   D2B38014  18.294  17.784  14.541  0.3609 -0.1663  0.2620
67078POSM   C3B38015  18.533  18.220  14.425 -0.3086  0.1715  0.2462
67078POSM   C4B38016  18.849  18.555  14.488  0.3419  0.1208  0.0624
67079POSM   NC338017  10.474  29.881  17.462 -0.0875 -0.0664  0.1864
67079POSM   PO438018  10.113  29.687  17.281 -0.0883 -0.2624 -0.0087
67079POSM   AM138019   9.906  30.063  17.521 -0.0835  0.1284 -0.1509
67079POSM   AM238020  10.022  30.321  17.489  0.2412  0.1070 -0.2524
67079POSM   T1A38021   9.710  29.984  17.900 -0.0326  0.1424 -0.1162
67079POSM   C2A38022   9.522  30.009  18.204  0.1057  0.0781  0.1309
67079POSM   C3A38023   9.277  30.061  18.576 -0.3596  0.6742  0.0338
67079POSM   C1B38024   9.900  30.417  17.885 -0.0725 -0.0491 -0.0086
67079POSM   D2B38025   9.906  30.518  18.222 -0.1844 -0.1339  0.0916
67079POSM   C3B38026   9.773  30.320  18.544  0.0724 -0.1218  0.3467
67079POSM   C4B38027   9.571  30.308  18.922 -0.2454  0.0863  0.1188
67080POSM   NC338028  13.423  24.640  17.303 -0.1317 -0.0672  0.1512
67080POSM   PO438029  13.369  24.192  17.493  0.3987  0.2494  0.1032
67080POSM   AM138030  13.650  24.085  17.836  0.1635  0.1998  0.0290
67080POSM   AM238031  13.544  23.797  17.946 -0.0219 -0.0700 -0.1154
67080POSM   T1A38032  13.841  24.021  18.283  0.1121 -0.1794  0.0335
67080POSM   C2A38033  13.968  24.092  18.570 -0.1498 -0.0460  0.1815
67080POSM   C3A38034  14.082  24.194  19.008 -0.0130 -0.1778  0.1306
67080POSM   C1B38035  13.673  23.567  18.381 -0.4299 -0.1570  0.2026
67080POSM   D2B38036  13.842  23.630  18.863 -0.0197 -0.0326  0.1410
67080POSM   C3B38037  13.970  23.728  19.294  0.4704 -0.1969 -0.1707
67080POSM   C4B38038  13.917  23.765  19.702  0.2370  0.1538  0.0337
67081PNSM   NC338039  28.280  11.179   0.848 -0.1931  0.1842 -0.1171
67081PNSM   PO438040  28.674  10.909   0.791 -0.0148  0.2095 -0.1591
67081PNSM   AM138041  28.856  11.138   1.113 -0.1334 -0.0878 -0.0467
67081PNSM   AM238042  29.161  11.448   1.016  0.1073  0.1020 -0.0028
67081PNSM   T1A38043  28.738  11.206   1.558 -0.0634 -0.1233 -0.0998
67081PNSM   C2A38044  28.837  11.134   1.913  0.1379  0.0585  0.0789
67081PNSM   C3A38045  28.882  11.053   2.315 -0.2252  0.2794  0.1142
67081PNSM   C1B38046  29.091  11.551   1.421 -0.2674 -0.1310  0.1181
67081PNSM   C2B38047  29.012  11.605   1.816 -0.0889 -0.1419 -0.1341
67081PNSM   C3B38048  28.953  11.612   2.223  0.0246 -0.0963 -0.1013
67081PNSM   D4B38049  29.164  11.424   2.554 -0.0255 -0.0038  0.0773
67081PNSM   C5B38050  29.531  11.385   2.805  0.0334 -0.1903  0.2084
67081PNSM   C6B38051  29.771  11.480   3.178 -0.3457  0.0147  0.0260
67082PNSM   NC338052   2.463  22.353   4.751 -0.3072 -0.2270 -0.1777
67082PNSM   PO438053   2.124  22.560   4.485  0.0795  0.1877 -0.2288
67082PNSM   AM138054   1.808  22.353   4.740 -0.1061 -0.0269  0.3756
67082PNSM   AM238055   1.902  22.041   4.576  0.1302  0.0078 -0.3383
67082PNSM   T1A38056   1.599  22.376   5.082  0.3573 -0.0128 -0.0132
67082PNSM   C2A38057   1.731  22.283   5.459  0.3497 -0.0555 -0.0576
67082PNSM   C3A38058   1.868  22.125   5.853  0.2499 -0.2129 -0.0653
67082PNSM   C1B38059   1.524  21.971   4.866  0.1346  0.1445 -0.1379
67082PNSM   C2B38060   1.214  22.004   5.043  0.0845  0.0710  0.1557
67082PNSM   C3B38061   1.210  22.121   5.408  0.1933  0.0300 -0.1144
67082PNSM   D4B38062   1.359  22.238   5.795  0.3872  0.4823 -0.2897
67082PNSM   C5B38063   1.137  22.107   6.127 -0.1456 -0.5677  0.1724
67082PNSM   C6B38064   1.009  21.987   6.481 -0.1963  0.0637  0.0965
67083POPI    C138065  16.406  16.547  14.089  0.0388 -0.2948 -0.0206
67083POPI    C238066  16.369  16.402  13.718 -0.1532  0.0963 -0.1566
67083POPI    C338067  16.183  16.742  13.820 -0.1914 -0.0674  0.3305
67083POPI   PO438068  16.617  16.555  14.119 -0.2792 -0.0532 -0.1906
67083POPI   GL138069  16.773  16.324  14.382 -0.1251 -0.0506 -0.5266
67083POPI   GL238070  16.610  16.042  14.265 -0.1261 -0.0170 -0.2028
67083POPI   C1A38071  17.111  16.233  14.786  0.0954 -0.2293 -0.2477
67083POPI   D2A38072  17.391  16.277  15.099  0.1493  0.2221  0.1775
67083POPI   C3A38073  17.308  16.338  15.571 -0.2023  0.2687  0.2311
67083POPI   C4A38074  17.255  16.404  16.030  0.0302  0.0787 -0.0769
67083POPI   C1B38075  16.847  15.770  14.553  0.1295  0.1917 -0.0418
67083POPI   C2B38076  16.514  15.654  14.921  0.0361  0.2335 -0.0940
67083POPI   C3B38077  16.599  15.652  15.348  0.1786 -0.2148  0.1360
67083POPI   C4B38078  16.912  15.441  15.643  0.1883  0.3323 -0.0184
67084POPI    C138079  34.209  34.726   8.080 -0.0946 -0.0451  0.0714
67084POPI    C238080  34.011  34.602   7.755 -0.0955  0.0031  0.0533
67084POPI    C338081  34.020  34.991   7.847 -0.2419 -0.0301  0.2084
67084POPI   PO438082  34.279  34.641   8.300 -0.1752 -0.2287 -0.0355
67084POPI   GL138083  34.133  34.486   8.661  0.0730  0.3500  0.0129
67084POPI   GL238084  33.849  34.536   8.579  0.2700 -0.1244 -0.2829
67084POPI   C1A38085  33.960  34.557   9.152  0.1642  0.0568  0.4724
67084POPI   D2A38086  33.888  34.672   9.550  0.1502  0.1182 -0.1308
67084POPI   C3A38087  33.701  34.523   9.967  0.3632 -0.0716 -0.0449
67084POPI   C4A38088  33.392  34.350  10.216 -0.1398 -0.2572 -0.0322
67084POPI   C1B38089  33.549  34.627   8.884 -0.3721  0.1070  0.1110
67084POPI   C2B38090  33.361  34.636   9.211  0.1510  0.1952  0.0071
67084POPI   C3B38091  33.384  34.618   9.580 -0.2077 -0.1928  0.2056
67084POPI   C4B38092  33.320  34.816   9.983  0.3539  0.0322  0.1514
67085POPI    C138093  33.056   4.404   6.095 -0.0028 -0.0075  0.1574
67085POPI    C238094  32.918   4.558   5.752 -0.1232 -0.3017  0.0720
67085POPI    C338095  33.146   4.780   5.994  0.0142 -0.1132 -0.2288
67085POPI   PO438096  32.820   4.367   6.275  0.0628 -0.3080  0.3945
67085POPI   GL138097  32.647   4.638   6.695  0.1845  0.0951  0.2891
67085POPI   GL238098  32.422   4.643   6.951 -0.0316 -0.2290  0.1511
67085POPI   C1A38099  32.581   5.086   6.920 -0.0754 -0.0142  0.3678
67085POPI   D2A38100  32.620   5.333   7.220  0.1217 -0.0950  0.1313
67085POPI   C3A38101  32.271   5.545   7.341 -0.0078 -0.0200 -0.0524
67085POPI   C4A38102  31.925   5.826   7.494 -0.1420  0.1161 -0.0133
67085POPI   C1B38103  32.318   4.975   7.293  0.0450 -0.0024 -0.1392
67085POPI   C2B38104  32.149   5.087   7.538 -0.0385  0.3857  0.3106
67085POPI   C3B38105  32.097   5.399   7.797 -0.1128  0.1209 -0.2645
67085POPI   C4B38106  32.375   5.802   7.794  0.0852  0.0345  0.0235
67086POPI    C138107  33.534  17.611   0.642  0.0893 -0.1379  0.0630
67086POPI    C238108  33.215  17.810   0.505  0.1021 -0.0037  0.2278
67086POPI    C338109  33.584  17.942   0.423  0.1107  0.0462  0.3449
67086POPI   PO438110  33.446  17.571   0.897  0.0595 -0.4079  0.0120
67086POPI   GL138111  33.211  17.756   1.232  0.1814  0.3056  0.3039
67086POPI   GL238112  33.023  17.928   1.140  0.0973  0.3086  0.0895
67086POPI   C1A38113  32.939  17.524   1.509 -0.0350  0.2262 -0.3581
67086POPI   D2A38114  32.783  17.341   1.861 -0.0032  0.1766 -0.0357
67086POPI   C3A38115  32.848  17.308   2.304 -0.0118 -0.2359 -0.0592
67086POPI   C4A38116  32.929  17.270   2.728 -0.0239 -0.2927 -0.2708
67086POPI   C1B38117  32.969  18.044   1.582 -0.1540 -0.0268 -0.1628
67086POPI   C2B38118  32.880  17.906   1.989 -0.0899 -0.0545 -0.0710
67086POPI   C3B38119  32.641  17.910   2.311 -0.3070 -0.1438 -0.3032
67086POPI   C4B38120  32.512  17.806   2.770  0.0375  0.2558  0.1036
67087POPI    C138121  34.617  30.579   7.905  0.1652  0.0474  0.0393
67087POPI    C238122  34.530  30.944   8.043 -0.0082  0.0501 -0.0748
67087POPI    C338123  34.297  30.775   7.766  0.0902 -0.1345 -0.0454
67087POPI   PO438124  34.599  30.382   8.113 -0.0117  0.2020  0.1157
67087POPI   GL138125  34.367  30.306   8.422  0.0765 -0.0459 -0.1747
67087POPI   GL238126  34.229  30.600   8.677 -0.0464 -0.1878  0.1916
67087POPI   C1A38127  34.202  29.950   8.681  0.1243 -0.1681 -0.1672
67087POPI   D2A38128  33.931  29.590   8.917 -0.0239  0.2475  0.2350
67087POPI   C3A38129  33.502  29.627   9.243  0.3003  0.1071 -0.1225
67087POPI   C4A38130  33.164  29.538   9.573 -0.3888  0.1324 -0.1621
67087POPI   C1B38131  33.898  30.358   8.760  0.2699 -0.0051 -0.0754
67087POPI   C2B38132  33.741  30.018   9.063  0.1642 -0.1550 -0.2169
67087POPI   C3B38133  33.581  30.038   9.497  0.0102  0.2623 -0.0275
67087POPI   C4B38134  33.281  30.094   9.731  0.0481  0.1968  0.2479
67088POPI    C138135  14.267  25.677  17.275 -0.1517  0.1429 -0.0122
67088POPI    C238136  14.214  26.053  17.148 -0.1672  0.0616 -0.2494
67088POPI    C338137  13.938  25.774  17.068 -0.0650 -0.0426 -0.2399
67088POPI   PO438138  14.397  25.645  17.415  0.2016 -0.2105  0.0794
67088POPI   GL138139  14.528  25.789  17.799 -0.0154 -0.1539 -0.4159
67088POPI   GL238140  14.827  25.904  17.871  0.0640 -0.1594  0.0714
67088POPI   C1A38141  14.489  25.862  18.215 -0.1355 -0.1783  0.2492
67088POPI   D2A38142  14.720  26.064  18.615 -0.2023  0.4262 -0.2025
67088POPI   C3A38143  14.930  25.880  18.828  0.1084  0.0430  0.3286
67088POPI   C4A38144  15.422  25.864  19.043 -0.0298  0.1804 -0.0007
67088POPI   C1B38145  14.986  25.925  18.274  0.0487 -0.0640 -0.0287
67088POPI   C2B38146  15.277  26.134  18.546 -0.1657  0.2507 -0.4559
67088POPI   C3B38147  15.410  26.317  18.783  0.3386  0.3690  0.0533
67088POPI   C4B38148  15.492  26.782  19.028  0.3168  0.1779  0.0759
67089POPI    C138149  30.156   4.005   5.478  0.3723  0.1297 -0.1352
67089POPI    C238150  30.006   3.858   5.819 -0.0292  0.0165 -0.3584
67089POPI    C338151  30.310   3.671   5.638  0.0972  0.0031 -0.1331
67089POPI   PO438152  30.195   4.260   5.588  0.0683 -0.0417 -0.0708
67089POPI   GL138153  30.189   4.338   6.007 -0.2019  0.1212  0.1945
67089POPI   GL238154  30.359   4.604   5.987 -0.3601 -0.2611 -0.0986
67089POPI   C1A38155  29.982   4.582   6.312 -0.2707 -0.0086 -0.0112
67089POPI   D2A38156  30.163   4.790   6.668  0.0898 -0.4123 -0.3126
67089POPI   C3A38157  29.922   4.887   6.986 -0.4074  0.0925 -0.3828
67089POPI   C4A38158  29.806   5.061   7.347 -0.0173 -0.1350  0.3217
67089POPI   C1B38159  29.927   4.840   5.865  0.1820  0.2191  0.2912
67089POPI   C2B38160  29.636   5.224   6.144 -0.0752 -0.2555  0.0764
67089POPI   C3B38161  29.721   5.701   6.182 -0.0032  0.1149 -0.0797
67089POPI   C4B38162  29.407   6.027   6.260  0.0216 -0.3331 -0.0749
67090POPI    C138163  13.607  32.731  14.715 -0.0013 -0.2078  0.0204
67090POPI    C238164  13.732  32.643  14.345 -0.0881 -0.1908 -0.0134
67090POPI    C338165  13.346  32.724  14.411 -0.1087 -0.3889  0.1155
67090POPI   PO438166  13.849  32.648  14.952  0.0235 -0.3345 -0.0051
67090POPI   GL138167  13.867  32.575  15.334  0.1759  0.2676  0.1503
67090POPI   GL238168  13.947  32.371  15.394 -0.0476  0.1916  0.2862
67090POPI   C1A38169  14.161  32.930  15.464  0.3879  0.0554 -0.1902
67090POPI   D2A38170  14.479  33.221  15.642  0.1384  0.1276 -0.0933
67090POPI   C3A38171  14.354  33.549  15.915  0.0657 -0.1119 -0.0652
67090POPI   C4A38172  14.616  33.804  16.060  0.0801 -0.1554 -0.2402
67090POPI   C1B38173  14.416  32.525  15.419  0.1093 -0.0961  0.1901
67090POPI   C2B38174  14.738  32.794  15.451  0.1939 -0.0683 -0.1274
67090POPI   C3B38175  15.059  32.961  15.746  0.1132 -0.0436  0.2368
67090POPI   C4B38176  14.885  33.444  15.798  0.0026  0.1942  0.1875
67091POPI    C138177  12.995   0.746  13.383 -0.0835 -0.0436  0.2314
67091POPI    C238178  12.809   0.529  13.663 -0.2259  0.2012  0.3272
67091POPI    C338179  12.596   0.754  13.410 -0.1047 -0.1043 -0.0501
67091POPI   PO438180  13.233   0.691  13.557  0.0898  0.1513  0.1839
67091POPI   GL138181  13.634   0.718  13.668  0.1714  0.1532 -0.0877
67091POPI   GL238182  13.925   0.689  13.667  0.1292  0.0477 -0.0150
67091POPI   C1A38183  13.660   1.062  13.946 -0.1643  0.1729 -0.2154
67091POPI   D2A38184  13.845   1.389  14.269 -0.0529 -0.2289 -0.3162
67091POPI   C3A38185  13.994   1.494  14.690  0.2759  0.2033  0.0871
67091POPI   C4A38186  14.064   1.823  14.943 -0.0234 -0.0713 -0.1125
67091POPI   C1B38187  14.116   0.731  13.947 -0.0545 -0.0868  0.0620
67091POPI   C2B38188  14.325   0.764  14.316 -0.1283 -0.0173  0.0652
67091POPI   C3B38189  14.336   0.496  14.726  0.2732 -0.1337 -0.3266
67091POPI   C4B38190  14.628   0.512  14.948  0.0844  0.0565 -0.2889
67092POPI    C138191  30.763  16.150   0.297 -0.0013 -0.3140 -0.1157
67092POPI    C238192  30.679  15.955  26.210 -0.2083 -0.2662 -0.0924
67092POPI    C338193  30.661  16.355  26.221  0.2891 -0.2388 -0.1602
67092POPI   PO438194  30.940  15.970   0.457  0.2927  0.1437  0.0595
67092POPI   GL138195  30.668  15.986   0.833 -0.0844 -0.0680 -0.4218
67092POPI   GL238196  30.872  16.270   0.804  0.0536  0.1861 -0.3149
67092POPI   C1A38197  30.603  15.794   1.168  0.1893 -0.3624 -0.0184
67092POPI   D2A38198  30.776  15.614   1.562 -0.0046 -0.1305  0.5186
67092POPI   C3A38199  30.702  15.675   2.033  0.0127 -0.0121  0.1733
67092POPI   C4A38200  30.718  15.759   2.417  0.3573 -0.0503 -0.2047
67092POPI   C1B38201  30.576  16.415   1.144  0.1940 -0.0344  0.3917
67092POPI   C2B38202  30.184  16.379   1.243 -0.0205  0.0227 -0.2959
67092POPI   C3B38203  29.891  16.304   1.593  0.0463 -0.3121 -0.1934
67092POPI   C4B38204  29.896  16.174   2.059 -0.1752 -0.0667  0.0585
67093POPI    C138205  11.539  34.664  15.612  0.0260  0.2878  0.0492
67093POPI    C238206  11.403  34.558  15.251 -0.1854  0.0750  0.1900
67093POPI    C338207  11.604  34.901  15.296  0.4130 -0.2090 -0.2505
67093POPI   PO438208  11.697  34.415  15.753  0.3139  0.1313 -0.0277
67093POPI   GL138209  12.079  34.466  15.762  0.0105  0.0336 -0.1278
67093POPI   GL238210  12.325  34.677  15.627  0.2159  0.0912 -0.3711
67093POPI   C1A38211  12.143  34.750  16.108  0.1706  0.5476 -0.3459
67093POPI   D2A38212  12.396  35.031  16.348 -0.0873  0.1999  0.1329
67093POPI   C3A38213  12.679  35.165  16.593 -0.1009 -0.1020 -0.0834
67093POPI   C4A38214  12.860  34.997  16.955 -0.1999 -0.1083 -0.2357
67093POPI   C1B38215  12.645  34.936  15.858 -0.1363 -0.1961 -0.1980
67093POPI   C2B38216  12.856  35.105  16.106 -0.3126  0.1353  0.0032
67093POPI   C3B38217  13.155  35.018  16.417 -0.0211 -0.1889  0.0924
67093POPI   C4B38218  13.482  34.927  16.720  0.2311  0.0639  0.0594
67094POPI    C138219  15.941  23.716  16.506 -0.1573 -0.1382 -0.0269
67094POPI    C238220  15.838  23.594  16.139  0.1676 -0.0199 -0.1596
67094POPI    C338221  15.829  23.983  16.230 -0.0734 -0.0644  0.0102
67094POPI   PO438222  16.121  23.522  16.542 -0.1521 -0.2399  0.0867
67094POPI   GL138223  16.324  23.485  16.987  0.1289 -0.1561  0.0170
67094POPI   GL238224  16.028  23.434  16.995  0.2798 -0.0020  0.3749
67094POPI   C1A38225  16.745  23.497  17.170 -0.1227  0.2554 -0.3646
67094POPI   D2A38226  17.035  23.567  17.406  0.1683 -0.4625 -0.0031
67094POPI   C3A38227  17.313  23.859  17.568  0.1902  0.0511 -0.0252
67094POPI   C4A38228  17.699  23.986  17.559 -0.0105 -0.1056 -0.2527
67094POPI   C1B38229  16.084  23.385  17.454  0.3319 -0.1096 -0.0623
67094POPI   C2B38230  16.280  23.458  17.867 -0.1219 -0.1209  0.1912
67094POPI   C3B38231  16.405  23.279  18.101  0.0619 -0.2400  0.0498
67094POPI   C4B38232  16.756  22.952  18.150  0.1848 -0.1209 -0.0947
67095POPI    C138233   3.194  26.076   8.549  0.1298  0.0064 -0.2067
67095POPI    C238234   3.245  26.426   8.734 -0.3668 -0.0628  0.0709
67095POPI    C338235   3.245  26.409   8.334  0.3653  0.1404  0.0544
67095POPI   PO438236   3.114  25.850   8.611  0.0465 -0.2593 -0.0311
67095POPI   GL138237   2.816  25.481   8.572  0.2428 -0.2198  0.1039
67095POPI   GL238238   3.049  25.365   8.695  0.3220 -0.1379  0.0439
67095POPI   C1A38239   2.464  25.376   8.848  0.0488 -0.0110  0.2718
67095POPI   D2A38240   2.064  25.263   8.785  0.2319  0.0287  0.0201
67095POPI   C3A38241   1.712  25.093   8.880  0.2194 -0.2249  0.0152
67095POPI   C4A38242   1.669  24.864   9.257  0.1130  0.1627  0.0741
67095POPI   C1B38243   2.813  25.073   8.938  0.2570 -0.0062  0.1576
67095POPI   C2B38244   2.700  24.792   9.184  0.2201  0.1833 -0.0570
67095POPI   C3B38245   2.479  24.616   9.584 -0.0422  0.3168 -0.0628
67095POPI   C4B38246   2.334  24.166   9.696  0.0501 -0.1866  0.0384
67096POPI    C138247  11.415   8.657  14.783 -0.1940 -0.1475  0.0154
67096POPI    C238248  11.385   8.542  14.401 -0.1663  0.1638 -0.0824
67096POPI    C338249  11.080   8.731  14.578 -0.1228  0.1526  0.0046
67096POPI   PO438250  11.605   8.789  14.796 -0.0347 -0.1667 -0.1110
67096POPI   GL138251  11.731   8.949  15.179 -0.3165  0.0501  0.1605
67096POPI   GL238252  11.540   8.937  15.468 -0.0209 -0.5038 -0.2462
67096POPI   C1A38253  12.033   8.869  15.577 -0.0177 -0.1310  0.0177
67096POPI   D2A38254  12.327   9.108  15.848 -0.0418 -0.0906  0.0039
67096POPI   C3A38255  12.212   9.243  16.257 -0.1198 -0.1172  0.1819
67096POPI   C4A38256  12.352   9.223  16.621  0.0004  0.1432  0.3236
67096POPI   C1B38257  11.499   8.977  15.888  0.2070  0.0780  0.2387
67096POPI   C2B38258  11.396   8.987  16.348  0.2177  0.0933 -0.1967
67096POPI   C3B38259  11.355   9.016  16.721 -0.0497  0.0977  0.0987
67096POPI   C4B38260  11.254   9.276  16.989  0.3213 -0.2491  0.0489
67097POPI    C138261  18.642  16.841  11.653  0.2619  0.3505  0.1266
67097POPI    C238262  18.501  17.143  11.432 -0.0531 -0.1376 -0.3511
67097POPI    C338263  18.252  16.928  11.659  0.1899  0.0379  0.0885
67097POPI   PO438264  18.852  16.851  11.715  0.1248 -0.1344  0.0686
67097POPI   GL138265  19.074  16.923  12.082  0.0528 -0.3008 -0.1253
67097POPI   GL238266  19.000  16.688  12.192  0.1569 -0.0061  0.0697
67097POPI   C1A38267  19.353  17.053  12.415 -0.0484  0.1397 -0.3986
67097POPI   D2A38268  19.668  17.030  12.743  0.1320  0.1717  0.0870
67097POPI   C3A38269  19.633  16.781  13.078  0.0538 -0.2325 -0.2446
67097POPI   C4A38270  19.803  16.598  13.533  0.2701  0.1719 -0.0828
67097POPI   C1B38271  19.205  16.604  12.545 -0.0318 -0.3008 -0.1701
67097POPI   C2B38272  19.523  16.459  12.769 -0.0815 -0.0677  0.1881
67097POPI   C3B38273  19.947  16.321  12.953 -0.0620  0.0195 -0.0439
67097POPI   C4B38274  20.260  16.386  13.272 -0.1269  0.2120 -0.0871
67098POPI    C138275  17.693  22.642  13.817 -0.0659  0.3021  0.1591
67098POPI    C238276  17.631  23.035  13.770 -0.1699  0.2650 -0.0216
67098POPI    C338277  17.326  22.793  13.862 -0.1042  0.2276  0.1005
67098POPI   PO438278  17.906  22.556  13.988  0.1976 -0.0810  0.2587
67098POPI   GL138279  18.295  22.515  14.101 -0.3509  0.2315  0.0042
67098POPI   GL238280  18.271  22.221  14.146  0.0594 -0.0815  0.2201
67098POPI   C1A38281  18.498  22.716  14.438  0.4485  0.2576  0.1087
67098POPI   D2A38282  18.815  22.604  14.653  0.4186  0.1543  0.2154
67098POPI   C3A38283  18.995  22.760  14.937  0.0170  0.0030 -0.1527
67098POPI   C4A38284  19.530  22.950  14.962  0.0235  0.1530 -0.0621
67098POPI   C1B38285  18.449  22.218  14.540  0.0886  0.2076  0.1082
67098POPI   C2B38286  18.813  22.151  14.771 -0.2856  0.2568 -0.2184
67098POPI   C3B38287  19.024  21.998  15.148  0.1719  0.2242  0.0247
67098POPI   C4B38288  19.268  22.001  15.536  0.0551 -0.3241  0.2846
67099POPI    C138289  24.609  32.961   6.138  0.0860  0.2268 -0.0417
67099POPI    C238290  24.522  32.782   5.792  0.0648  0.1293  0.0143
67099POPI    C338291  24.311  33.100   5.910  0.1073  0.1957 -0.0888
67099POPI   PO438292  24.977  32.843   6.197  0.0955  0.0914  0.2050
67099POPI   GL138293  25.065  32.569   6.525  0.1158  0.0220  0.0316
67099POPI   GL238294  24.881  32.438   6.695  0.0529  0.0359  0.1368
67099POPI   C1A38295  25.402  32.736   6.786  0.1110 -0.1845  0.1277
67099POPI   D2A38296  25.693  33.008   7.022  0.1258 -0.1983  0.0569
67099POPI   C3A38297  26.051  33.026   7.350  0.2714 -0.0845 -0.0321
67099POPI   C4A38298  26.198  33.067   7.763 -0.1076 -0.2380  0.1351
67099POPI   C1B38299  25.091  32.417   7.063 -0.0646  0.0071  0.2144
67099POPI   C2B38300  25.467  32.462   7.276 -0.2043  0.0786 -0.1766
67099POPI   C3B38301  25.891  32.456   7.242  0.0450 -0.1009  0.0895
67099POPI   C4B38302  26.190  32.202   7.219  0.2459 -0.0513 -0.1898
67100POPI    C138303  19.230  29.207   8.425  0.0738  0.1605  0.1461
67100POPI    C238304  18.915  29.440   8.346 -0.0346 -0.0177  0.0494
67100POPI    C338305  19.144  29.305   8.047  0.1498  0.1324  0.1213
67100POPI   PO438306  19.369  29.224   8.613  0.2637  0.0776  0.1170
67100POPI   GL138307  19.701  29.080   8.824  0.1169 -0.0337  0.1276
67100POPI   GL238308  19.932  29.263   8.867 -0.1838  0.0216 -0.1961
67100POPI   C1A38309  20.014  28.954   9.271 -0.1212  0.3101 -0.0854
67100POPI   D2A38310  20.046  28.986   9.593 -0.3264  0.2134  0.2104
67100POPI   C3A38311  19.718  29.144   9.847  0.2075  0.1034 -0.0148
67100POPI   C4A38312  19.511  29.082  10.218 -0.0540  0.2203  0.3357
67100POPI   C1B38313  19.885  29.418   9.259 -0.2425 -0.0569  0.2075
67100POPI   C2B38314  20.054  29.522   9.582 -0.2843  0.1273 -0.1036
67100POPI   C3B38315  20.290  29.322   9.971  0.1717 -0.0700  0.0188
67100POPI   C4B38316  20.111  29.114  10.154  0.1402  0.2262 -0.2945
67101POPI    C138317   5.996  34.579  13.757  0.0101  0.0312 -0.1989
67101POPI    C238318   5.921  34.186  13.744 -0.0001  0.0204  0.1477
67101POPI    C338319   5.741  34.433  13.486 -0.1692 -0.1744  0.0779
67101POPI   PO438320   5.971  34.560  14.139  0.1077  0.0801 -0.0182
67101POPI   GL138321   5.591  34.744  14.389  0.0746 -0.0497 -0.0675
67101POPI   GL238322   5.404  34.486  14.372  0.0497  0.2051 -0.1604
67101POPI   C1A38323   5.403  34.927  14.788  0.4572 -0.1012 -0.0129
67101POPI   D2A38324   5.144  34.993  15.094  0.0654  0.0308 -0.1834
67101POPI   C3A38325   5.123  35.312  15.467 -0.2719  0.2084  0.1830
67101POPI   C4A38326   5.451  35.299  15.694 -0.2729 -0.1122 -0.1469
67101POPI   C1B38327   5.032  34.593  14.650  0.3369 -0.0152 -0.3106
67101POPI   C2B38328   4.810  34.588  15.030  0.0304 -0.0412 -0.1495
67101POPI   C3B38329   4.430  34.450  15.198 -0.0232 -0.3122 -0.1610
67101POPI   C4B38330   3.907  34.497  15.049 -0.0666 -0.0324  0.1705
67102POPI    C138331   6.744  28.633  16.526 -0.0242  0.0235 -0.0108
67102POPI    C238332   6.913  28.907  16.290  0.0323  0.0009  0.0034
67102POPI    C338333   7.081  28.546  16.328  0.0349  0.0117  0.0948
67102POPI   PO438334   6.537  28.609  16.392 -0.0926 -0.2603  0.0072
67102POPI   GL138335   6.229  28.261  16.485  0.0696  0.0840  0.0729
67102POPI   GL238336   6.417  28.119  16.705  0.2462 -0.1040 -0.2438
67102POPI   C1A38337   5.838  28.434  16.671 -0.3169 -0.2139 -0.1166
67102POPI   D2A38338   5.376  28.502  16.550 -0.0848  0.2855 -0.2590
67102POPI   C3A38339   5.037  28.625  16.851 -0.2776 -0.0824 -0.0207
67102POPI   C4A38340   4.985  28.799  17.279  0.0934  0.4971 -0.2703
67102POPI   C1B38341   6.387  28.162  17.117 -0.0006  0.1238 -0.1464
67102POPI   C2B38342   6.136  28.086  17.534  0.2509  0.3721 -0.0713
67102POPI   C3B38343   5.767  28.012  17.780  0.1836  0.4110  0.0752
67102POPI   C4B38344   5.524  27.776  17.845 -0.0637  0.0033 -0.0005
67103POPI    C138345  24.045   5.684   5.639  0.0759 -0.0325  0.1020
67103POPI    C238346  23.916   5.701   5.261  0.1538 -0.0577  0.0741
67103POPI    C338347  23.728   5.468   5.527  0.0999 -0.0410  0.0508
67103POPI   PO438348  24.088   5.954   5.686  0.0793  0.0446  0.0578
67103POPI   GL138349  24.357   6.225   5.941  0.0700 -0.0176 -0.2342
67103POPI   GL238350  24.733   6.325   5.840 -0.1238 -0.2323 -0.0658
67103POPI   C1A38351  24.479   6.259   6.375  0.1232  0.3364 -0.1786
67103POPI   D2A38352  24.923   6.151   6.591 -0.2564  0.0188  0.0760
67103POPI   C3A38353  25.203   6.236   6.816  0.1766 -0.0196  0.4063
67103POPI   C4A38354  25.579   6.384   7.029 -0.2925 -0.0286  0.1467
67103POPI   C1B38355  24.996   6.464   6.209 -0.0121  0.0157  0.0386
67103POPI   C2B38356  25.133   6.603   6.523  0.0008 -0.2416 -0.0387
67103POPI   C3B38357  25.274   6.795   6.987  0.0980 -0.3329  0.0000
67103POPI   C4B38358  25.622   6.854   7.188 -0.1313 -0.0731  0.0379
67104POPI    C138359  18.921  16.984  11.216  0.2097 -0.3093  0.0578
67104POPI    C238360  18.893  16.682  10.956  0.1063 -0.0333 -0.2556
67104POPI    C338361  18.589  16.939  10.997  0.1353 -0.0554  0.1158
67104POPI   PO438362  19.175  17.084  11.158  0.2756  0.0816 -0.0516
67104POPI   GL138363  19.616  17.016  11.246  0.0365 -0.0609 -0.1763
67104POPI   GL238364  19.812  16.946  11.006 -0.1389 -0.2940  0.1253
67104POPI   C1A38365  19.810  17.089  11.611  0.3401  0.3195  0.4627
67104POPI   D2A38366  20.245  17.022  11.796 -0.4552 -0.3372 -0.3633
67104POPI   C3A38367  20.396  17.214  12.031  0.3377  0.1275  0.2830
67104POPI   C4A38368  20.707  17.337  12.030  0.2291  0.0650 -0.0813
67104POPI   C1B38369  20.135  16.922  11.260 -0.1800  0.2148  0.0912
67104POPI   C2B38370  20.507  16.961  11.410  0.0135 -0.1765  0.0259
67104POPI   C3B38371  20.969  17.005  11.578  0.3849 -0.0593 -0.4573
67104POPI   C4B38372  21.402  17.086  11.631  0.1147 -0.0135  0.2214
67105POPI    C138373   6.418  29.819  15.593 -0.3113 -0.1932 -0.0762
67105POPI    C238374   6.667  29.777  15.283 -0.2054 -0.1528  0.0032
67105POPI    C338375   6.811  29.787  15.656 -0.3008  0.1320  0.0337
67105POPI   PO438376   6.163  29.615  15.504  0.0176 -0.0853  0.4587
67105POPI   GL138377   5.783  29.667  15.660 -0.0277 -0.4255  0.0409
67105POPI   GL238378   5.608  29.838  15.526  0.0929 -0.0850 -0.0182
67105POPI   C1A38379   5.749  29.692  16.145  0.0478 -0.1997 -0.1821
67105POPI   D2A38380   5.336  29.657  16.347 -0.0991  0.0286 -0.1170
67105POPI   C3A38381   5.269  29.815  16.811 -0.0119  0.2124  0.0362
67105POPI   C4A38382   4.958  29.836  17.073  0.0736  0.0751  0.1703
67105POPI   C1B38383   5.263  29.786  15.807  0.0257 -0.4496  0.1766
67105POPI   C2B38384   4.910  29.800  16.082 -0.0625  0.1979  0.0529
67105POPI   C3B38385   4.518  29.682  16.193  0.0647 -0.1203  0.0442
67105POPI   C4B38386   4.027  29.699  16.136 -0.2897 -0.0195 -0.2457
67106POPI    C138387  19.152  18.297  11.446 -0.0947 -0.0918 -0.0227
67106POPI    C238388  19.229  18.010  11.714 -0.2698  0.1342  0.2731
67106POPI    C338389  19.372  17.979  11.341 -0.3628 -0.3788  0.2764
67106POPI   PO438390  19.272  18.557  11.482 -0.3963  0.0113 -0.1897
67106POPI   GL138391  19.765  18.827  11.536 -0.1085 -0.1373  0.1283
67106POPI   GL238392  19.613  18.961  11.268 -0.1421  0.0257  0.0902
67106POPI   C1A38393  20.086  18.676  11.703 -0.0891 -0.1082 -0.1114
67106POPI   D2A38394  20.522  18.717  11.725  0.1112  0.2346 -0.2205
67106POPI   C3A38395  20.809  18.540  11.576  0.4930 -0.0794  0.2170
67106POPI   C4A38396  21.164  18.522  11.368 -0.2328 -0.1945  0.1654
67106POPI   C1B38397  19.873  19.325  11.154 -0.2058 -0.2154  0.0105
67106POPI   C2B38398  20.260  19.587  11.360 -0.1427 -0.0644  0.2573
67106POPI   C3B38399  20.753  19.601  11.577 -0.0990  0.1572 -0.1002
67106POPI   C4B38400  21.004  19.387  11.901 -0.2403 -0.0616  0.0323
67107POPI    C138401  31.076   4.233   5.587  0.1956  0.0456 -0.0204
67107POPI    C238402  31.116   4.561   5.362 -0.0374  0.0669 -0.0322
67107POPI    C338403  31.384   4.265   5.334  0.0796  0.1828 -0.1452
67107POPI   PO438404  31.121   4.213   5.900  0.0253  0.0483 -0.1950
67107POPI   GL138405  30.738   4.385   6.212 -0.0437 -0.0066 -0.0250
67107POPI   GL238406  30.862   4.062   6.315 -0.0646  0.1429 -0.3480
67107POPI   C1A38407  30.638   4.649   6.504  0.1358 -0.1859  0.0540
67107POPI   D2A38408  30.585   5.035   6.751 -0.0388 -0.4588  0.0323
67107POPI   C3A38409  30.328   5.192   7.041 -0.1325  0.1906  0.1013
67107POPI   C4A38410  30.371   5.586   7.294 -0.0818 -0.0222  0.1558
67107POPI   C1B38411  30.969   4.267   6.623  0.0401 -0.0985  0.1585
67107POPI   C2B38412  30.928   4.561   6.882  0.1939 -0.1942  0.0007
67107POPI   C3B38413  30.886   5.021   7.210  0.0040  0.0149 -0.1439
67107POPI   C4B38414  30.793   5.351   7.501 -0.0729 -0.0988 -0.3424
67108POPI    C138415  20.596   9.633   9.727 -0.2178 -0.3160 -0.1423
67108POPI    C238416  20.819   9.613   9.395  0.0246  0.0780 -0.0065
67108POPI    C338417  20.624   9.951   9.485 -0.0600 -0.0356  0.2406
67108POPI   PO438418  20.740   9.394   9.855 -0.3410 -0.2184 -0.5234
67108POPI   GL138419  21.190   9.299  10.020  0.2278 -0.3507  0.0612
67108POPI   GL238420  21.531   9.315   9.777 -0.3224  0.1894  0.1085
67108POPI   C1A38421  21.545   9.390  10.255 -0.4119  0.2832  0.1267
67108POPI   D2A38422  21.674   9.367  10.655  0.0309 -0.0719  0.0769
67108POPI   C3A38423  21.917   9.365  10.821  0.0201  0.3831  0.0335
67108POPI   C4A38424  22.131   9.469  11.182 -0.2651  0.0215  0.1482
67108POPI   C1B38425  21.913   9.552   9.956  0.0366  0.1366  0.0777
67108POPI   C2B38426  22.047   9.544  10.334 -0.0754  0.0839 -0.1100
67108POPI   C3B38427  22.449   9.605  10.488  0.1482 -0.0139  0.1991
67108POPI   C4B38428  22.711   9.766  10.673 -0.1510 -0.1216 -0.1525
67109POPI    C138429  13.812  31.778  15.173  0.1407 -0.1693 -0.1756
67109POPI    C238430  13.941  31.752  14.795 -0.1456  0.1151 -0.2959
67109POPI    C338431  13.698  31.471  14.944  0.2339 -0.1747 -0.2149
67109POPI   PO438432  13.972  31.841  15.327 -0.1883 -0.0596 -0.2184
67109POPI   GL138433  14.318  31.557  15.582 -0.0427 -0.1654  0.1141
67109POPI   GL238434  14.356  31.313  15.692 -0.0592 -0.1709 -0.2078
67109POPI   C1A38435  14.694  31.808  15.771  0.2996  0.0448 -0.4261
67109POPI   D2A38436  15.007  31.922  15.980  0.0700 -0.1929  0.0655
67109POPI   C3A38437  15.243  32.266  16.294  0.1078  0.2400 -0.0638
67109POPI   C4A38438  15.367  32.556  16.609 -0.2145 -0.1320  0.2081
67109POPI   C1B38439  14.669  31.239  15.901  0.2671 -0.1428 -0.2706
67109POPI   C2B38440  14.952  31.463  16.105 -0.0231  0.2411 -0.2714
67109POPI   C3B38441  15.296  31.715  16.349 -0.1723  0.2366 -0.1502
67109POPI   C4B38442  15.580  31.869  16.576 -0.2523 -0.0627 -0.0812
67110POPI    C138443   5.098  34.746  12.902  0.1716  0.1177  0.2377
67110POPI    C238444   5.257  34.514  12.618 -0.1410  0.1846  0.0058
67110POPI    C338445   5.355  34.901  12.637  0.0314  0.1361  0.1112
67110POPI   PO438446   4.972  34.493  13.105 -0.0698  0.2560 -0.3320
67110POPI   GL138447   4.722  34.470  13.455  0.5979 -0.0071  0.0631
67110POPI   GL238448   4.683  34.729  13.621  0.2040  0.1312  0.0608
67110POPI   C1A38449   4.319  34.274  13.488 -0.2164 -0.1082 -0.2962
67110POPI   D2A38450   3.915  34.421  13.658  0.4268 -0.2447 -0.3103
67110POPI   C3A38451   3.641  34.247  13.969 -0.2928  0.1217 -0.1189
67110POPI   C4A38452   3.617  34.196  14.384  0.2147 -0.0992 -0.2686
67110POPI   C1B38453   4.460  34.808  13.863 -0.0883  0.1218  0.0955
67110POPI   C2B38454   4.063  34.839  13.926  0.0707  0.5332 -0.1031
67110POPI   C3B38455   3.670  34.715  14.214  0.0574 -0.2915 -0.1767
67110POPI   C4B38456   3.258  34.661  14.123 -0.0871 -0.0069  0.2041
67111POPI    C138457  18.269   1.747  10.129  0.2282  0.0406 -0.0255
67111POPI    C238458  18.023   2.052  10.211  0.1262 -0.1135  0.2483
67111POPI    C338459  17.966   1.831   9.882  0.2334  0.1959  0.0201
67111POPI   PO438460  18.413   1.746  10.321 -0.4131  0.1173  0.1083
67111POPI   GL138461  18.815   1.930  10.477 -0.1145 -0.3461  0.1669
67111POPI   GL238462  18.939   1.822  10.250 -0.0621 -0.0160  0.1511
67111POPI   C1A38463  18.968   1.717  10.851  0.1848  0.1203 -0.2302
67111POPI   D2A38464  19.087   1.543  11.285 -0.0100 -0.0766  0.0339
67111POPI   C3A38465  19.258   1.325  11.682  0.1504 -0.1130 -0.0783
67111POPI   C4A38466  19.485   1.312  12.033  0.1002 -0.1626 -0.1253
67111POPI   C1B38467  19.372   1.732  10.560 -0.1973 -0.1624  0.1330
67111POPI   C2B38468  19.587   1.581  10.890 -0.0117 -0.3462 -0.0378
67111POPI   C3B38469  19.673   1.662  11.298 -0.1125 -0.1090 -0.2590
67111POPI   C4B38470  19.427   1.796  11.671 -0.1493 -0.0198  0.2093
67112POPI    C138471   9.625  26.986  16.905 -0.0575  0.0524  0.1113
67112POPI    C238472   9.271  27.021  16.721  0.0831  0.0535 -0.1616
67112POPI    C338473   9.535  26.747  16.597  0.2764  0.2190 -0.1187
67112POPI   PO438474   9.544  26.908  17.289 -0.0028 -0.0369  0.0418
67112POPI   GL138475   9.673  27.011  17.658 -0.0180 -0.0033 -0.1780
67112POPI   GL238476   9.434  27.137  17.711  0.1899 -0.2464 -0.0172
67112POPI   C1A38477   9.692  26.885  18.131 -0.1174  0.1017 -0.1498
67112POPI   D2A38478   9.648  26.975  18.546 -0.5582  0.0295  0.0715
67112POPI   C3A38479   9.333  26.898  18.871 -0.2039  0.2280 -0.1038
67112POPI   C4A38480   9.081  26.887  19.145  0.1181  0.2317  0.0484
67112POPI   C1B38481   9.409  27.298  18.213 -0.0913 -0.3875  0.2467
67112POPI   C2B38482   9.300  27.300  18.593 -0.0577  0.4085 -0.2283
67112POPI   C3B38483   9.075  27.324  18.949 -0.2097  0.1379  0.0851
67112POPI   C4B38484   8.951  27.353  19.350  0.2036  0.2060 -0.1254
67113POPI    C138485  10.610   8.854  14.870 -0.0603 -0.1334 -0.0660
67113POPI    C238486  10.344   9.039  14.634  0.1411  0.0607 -0.1422
67113POPI    C338487  10.606   8.780  14.476 -0.0411 -0.1761 -0.0581
67113POPI   PO438488  10.766   9.031  14.970  0.0829 -0.1005 -0.2886
67113POPI   GL138489  11.160   8.953  15.086 -0.0170 -0.2612  0.0934
67113POPI   GL238490  11.085   8.607  15.140 -0.1888 -0.2339  0.2218
67113POPI   C1A38491  11.110   9.111  15.581  0.0532  0.1870  0.3653
67113POPI   D2A38492  11.020   9.137  16.047  0.0685 -0.1236  0.1072
67113POPI   C3A38493  10.911   9.304  16.503  0.2550  0.2537  0.0453
67113POPI   C4A38494  10.901   9.607  16.755  0.0303  0.2997  0.0120
67113POPI   C1B38495  11.049   8.641  15.534 -0.3130  0.1068  0.0895
67113POPI   C2B38496  10.989   8.703  15.889 -0.1977 -0.2085  0.2571
67113POPI   C3B38497  10.931   8.603  16.236  0.1705  0.2172 -0.2186
67113POPI   C4B38498  10.943   8.766  16.687  0.3231  0.0038  0.2996
67114POPI    C138499   3.231  24.309   6.182  0.2611 -0.0399  0.1505
67114POPI    C238500   3.379  24.272   5.812  0.0757  0.1054  0.0609
67114POPI    C338501   3.427  23.976   6.077  0.1193 -0.0422 -0.1107
67114POPI   PO438502   2.959  24.375   6.076  0.3042  0.1540  0.0397
67114POPI   GL138503   2.560  24.307   5.923  0.2052  0.0594 -0.2902
67114POPI   GL238504   2.319  24.213   5.688 -0.1312 -0.1713  0.2451
67114POPI   C1A38505   2.380  23.906   6.096 -0.0515 -0.0297 -0.1821
67114POPI   D2A38506   1.932  23.903   6.329 -0.2572  0.0859  0.1675
67114POPI   C3A38507   1.774  23.605   6.333 -0.0470  0.0621  0.6263
67114POPI   C4A38508   1.773  23.346   6.469 -0.0221 -0.1371  0.0506
67114POPI   C1B38509   2.018  23.958   5.830 -0.1333  0.1066 -0.3077
67114POPI   C2B38510   2.105  23.511   5.993  0.3192 -0.1729 -0.0964
67114POPI   C3B38511   2.151  23.132   6.230  0.0743  0.0410 -0.0227
67114POPI   C4B38512   1.897  22.816   6.419 -0.0627 -0.0429 -0.2733
67115POPI    C138513   3.880   3.385  10.117 -0.1128 -0.0547  0.1866
67115POPI    C238514   3.988   3.124   9.834  0.2354  0.2191  0.0638
67115POPI    C338515   3.723   3.017  10.113  0.1737 -0.1766 -0.1426
67115POPI   PO438516   4.050   3.453  10.297 -0.0298  0.0213 -0.0961
67115POPI   GL138517   3.833   3.724  10.543 -0.3482 -0.1365 -0.1089
67115POPI   GL238518   4.123   3.876  10.510 -0.1863  0.3126 -0.3649
67115POPI   C1A38519   3.647   4.033  10.668 -0.0802 -0.3256 -0.2625
67115POPI   D2A38520   3.381   4.323  10.952 -0.1989 -0.0457 -0.0120
67115POPI   C3A38521   2.982   4.393  11.132  0.0063  0.1249  0.1326
67115POPI   C4A38522   2.619   4.327  11.335  0.1140 -0.0136  0.0624
67115POPI   C1B38523   4.253   3.886  10.951 -0.0713  0.0193  0.2595
67115POPI   C2B38524   4.283   4.246  11.290 -0.3912 -0.0198 -0.1239
67115POPI   C3B38525   4.098   4.669  11.546  0.3241  0.2494  0.0780
67115POPI   C4B38526   3.858   4.867  11.766  0.1212 -0.1915 -0.0184
67116POPI    C138527  21.070  12.263   7.774 -0.1129  0.1796  0.0855
67116POPI    C238528  20.897  12.053   7.481 -0.0009  0.1978  0.0063
67116POPI    C338529  20.698  12.124   7.820 -0.0740  0.0447 -0.0041
67116POPI   PO438530  21.172  12.465   7.707 -0.2566 -0.0607  0.0330
67116POPI   GL138531  21.408  12.671   7.966  0.2578 -0.1417  0.2611
67116POPI   GL238532  21.335  12.440   8.160 -0.0606 -0.1876 -0.2004
67116POPI   C1A38533  21.751  12.884   7.886 -0.0234  0.1758  0.0225
67116POPI   D2A38534  22.163  13.133   7.876 -0.2034  0.2083 -0.3097
67116POPI   C3A38535  22.541  12.857   7.997 -0.1244  0.3445 -0.1435
67116POPI   C4A38536  22.994  12.723   8.257  0.5775 -0.0246 -0.1636
67116POPI   C1B38537  21.730  12.634   8.328  0.0017 -0.1350 -0.0331
67116POPI   C2B38538  22.075  12.704   8.300 -0.3149 -0.2687 -0.1638
67116POPI   C3B38539  22.296  13.057   8.387  0.2771  0.0303 -0.1942
67116POPI   C4B38540  22.307  13.341   8.702 -0.1679  0.0438  0.1479
67117POPI    C138541   6.097  14.204  10.908  0.0813 -0.0742 -0.0863
67117POPI    C238542   6.186  14.314  10.534  0.2427  0.0273 -0.0184
67117POPI    C338543   6.347  14.510  10.843 -0.0793  0.0986  0.1050
67117POPI   PO438544   5.811  14.250  10.931  0.2789  0.0018  0.2131
67117POPI   GL138545   5.614  14.268  11.307 -0.0319 -0.1746 -0.0589
67117POPI   GL238546   5.597  13.948  11.424 -0.0932 -0.2287 -0.4873
67117POPI   C1A38547   5.169  14.168  11.578 -0.1538 -0.0394  0.1934
67117POPI   D2A38548   4.813  14.065  11.830 -0.0853 -0.1735 -0.0700
67117POPI   C3A38549   4.413  14.237  11.871  0.0878 -0.2843 -0.2131
67117POPI   C4A38550   3.989  14.427  11.697  0.0980  0.1100 -0.0257
67117POPI   C1B38551   5.460  13.847  11.796  0.1303  0.0013  0.3480
67117POPI   C2B38552   5.133  13.771  12.085 -0.3634 -0.4398 -0.1557
67117POPI   C3B38553   4.882  13.600  12.344 -0.2654 -0.2999  0.0716
67117POPI   C4B38554   4.738  13.260  12.601 -0.0050 -0.1131  0.0564
67118POPI    C138555  27.530  17.818   0.112 -0.0522 -0.1425  0.1329
67118POPI    C238556  27.486  17.870  25.970  0.0180  0.0307  0.1478
67118POPI    C338557  27.230  17.637  26.170  0.1032 -0.2213 -0.0349
67118POPI   PO438558  27.623  18.105   0.188  0.3778  0.1809  0.0963
67118POPI   GL138559  27.311  18.345   0.414 -0.0671  0.0923  0.0256
67118POPI   GL238560  26.999  18.294   0.510  0.3056  0.2255  0.2294
67118POPI   C1A38561  27.407  18.287   0.822  0.0668  0.3181  0.1500
67118POPI   D2A38562  27.519  18.048   1.254 -0.0412  0.2466 -0.0152
67118POPI   C3A38563  27.408  17.881   1.544 -0.1230 -0.0929  0.2060
67118POPI   C4A38564  27.495  17.878   1.952  0.2363  0.0734 -0.2069
67118POPI   C1B38565  26.958  18.524   0.819 -0.0010  0.0288 -0.2337
67118POPI   C2B38566  26.983  18.592   1.205 -0.2799  0.0954 -0.1701
67118POPI   C3B38567  27.142  18.709   1.571 -0.0317 -0.1508  0.1403
67118POPI   C4B38568  27.379  18.655   1.952  0.2829  0.0992  0.3679
67119POPI    C138569  34.520   2.903   7.693  0.2354  0.0707  0.2633
67119POPI    C238570  34.901   3.017   7.742  0.3175 -0.0605 -0.0586
67119POPI    C338571  34.806   2.628   7.748  0.2056 -0.0340 -0.0940
67119POPI   PO438572  34.415   3.043   7.760 -0.2453  0.0824 -0.2005
67119POPI   GL138573  34.128   3.123   8.180 -0.0379 -0.1510 -0.1867
67119POPI   GL238574  34.079   3.431   8.219 -0.4303  0.1072 -0.1794
67119POPI   C1A38575  33.809   3.071   8.426  0.1758 -0.1508  0.2115
67119POPI   D2A38576  33.489   3.120   8.691 -0.0086  0.0377 -0.1905
67119POPI   C3A38577  33.535   3.313   8.972  0.1568  0.2340 -0.0403
67119POPI   C4A38578  33.223   3.644   9.143  0.3083 -0.1248  0.0645
67119POPI   C1B38579  33.819   3.570   8.621 -0.0742 -0.0175 -0.0168
67119POPI   C2B38580  33.695   3.802   8.976 -0.3524 -0.0847  0.1337
67119POPI   C3B38581  33.876   3.943   9.214  0.0362 -0.0788  0.0218
67119POPI   C4B38582  33.734   4.326   9.451  0.3222  0.3647  0.1066
67120POPI    C138583  33.855  31.459   7.987  0.2615  0.1393 -0.1346
67120POPI    C238584  33.816  31.066   8.050 -0.0320  0.1707 -0.1166
67120POPI    C338585  34.111  31.202   7.817 -0.0232 -0.0712 -0.2486
67120POPI   PO438586  33.582  31.588   8.000  0.0430 -0.0980 -0.0223
67120POPI   GL138587  33.359  31.521   8.279 -0.0078 -0.2895  0.1647
67120POPI   GL238588  33.604  31.314   8.404 -0.1296 -0.0663  0.0458
67120POPI   C1A38589  33.028  31.235   8.288 -0.0048  0.0090  0.1324
67120POPI   D2A38590  32.813  30.891   8.430 -0.0173  0.1219  0.2208
67120POPI   C3A38591  32.935  30.745   8.708 -0.2211  0.0984  0.1630
67120POPI   C4A38592  32.993  30.506   8.999 -0.1278  0.0603 -0.1603
67120POPI   C1B38593  33.260  31.265   8.723 -0.1777  0.1935  0.2364
67120POPI   C2B38594  32.918  31.215   8.806  0.0500 -0.2294  0.0691
67120POPI   C3B38595  32.569  30.960   8.891  0.0472  0.0409 -0.2063
67120POPI   C4B38596  32.502  30.565   9.000 -0.1310 -0.0951 -0.0003
67121POPI    C138597  22.414   0.437   7.792 -0.1958 -0.1774 -0.0588
67121POPI    C238598  22.113   0.222   7.640 -0.1168 -0.1955 -0.1908
67121POPI    C338599  22.402   0.041   7.848 -0.3304 -0.1437  0.1545
67121POPI   PO438600  22.294   0.542   7.993  0.2137 -0.2364 -0.1964
67121POPI   GL138601  22.537   0.640   8.362  0.1439  0.1773 -0.0267
67121POPI   GL238602  22.752   0.370   8.257 -0.1187  0.1439  0.3690
67121POPI   C1A38603  22.417   0.703   8.719  0.3520 -0.0264 -0.1910
67121POPI   D2A38604  22.141   0.408   9.022  0.0999 -0.2117 -0.0187
67121POPI   C3A38605  22.212   0.463   9.557 -0.2663 -0.1435 -0.3163
67121POPI   C4A38606  22.371   0.636   9.964  0.0971  0.1840 -0.0855
67121POPI   C1B38607  22.912   0.103   8.589  0.1882  0.0337  0.1185
67121POPI   C2B38608  23.136  35.079   8.820  0.0498  0.0742  0.2274
67121POPI   C3B38609  23.433  34.767   9.094 -0.3092  0.1143  0.3895
67121POPI   C4B38610  23.729  34.499   9.175  0.2969  0.2477  0.1881
67122POPI    C138611   6.287   4.986  12.176  0.3170  0.1695  0.0925
67122POPI    C238612   6.134   4.622  12.242 -0.0228  0.2427 -0.2701
67122POPI    C338613   6.459   4.742  12.442 -0.0221 -0.1853 -0.0082
67122POPI   PO438614   6.051   5.037  12.023 -0.0368 -0.0579  0.1673
67122POPI   GL138615   5.676   4.887  11.959 -0.4874 -0.1165  0.3184
67122POPI   GL238616   5.673   4.781  12.341 -0.0809 -0.0732 -0.2495
67122POPI   C1A38617   5.363   5.162  11.998 -0.1245  0.1193 -0.1954
67122POPI   D2A38618   5.060   5.313  11.796 -0.2299 -0.0848  0.0945
67122POPI   C3A38619   4.703   5.140  11.732  0.1265 -0.0296 -0.4078
67122POPI   C4A38620   4.380   4.882  11.882  0.1282 -0.3158  0.1078
67122POPI   C1B38621   5.323   4.598  12.284 -0.1671 -0.0632  0.1878
67122POPI   C2B38622   5.065   4.536  12.611  0.0694  0.1790 -0.1133
67122POPI   C3B38623   4.669   4.446  12.762 -0.0876 -0.0136 -0.0641
67122POPI   C4B38624   4.347   4.742  12.818  0.0304  0.2468 -0.1241
67123POPI    C138625  22.014   6.511   8.387  0.0024 -0.0208 -0.2041
67123POPI    C238626  21.824   6.248   8.153 -0.3397  0.1444 -0.1142
67123POPI    C338627  21.863   6.629   8.036 -0.1373  0.1304 -0.0937
67123POPI   PO438628  22.314   6.333   8.429  0.1461  0.0213 -0.2155
67123POPI   GL138629  22.708   6.198   8.241 -0.1403 -0.1001 -0.3260
67123POPI   GL238630  22.824   6.508   8.224  0.0460  0.1247 -0.1967
67123POPI   C1A38631  22.826   5.814   8.420 -0.1574 -0.0479  0.3473
67123POPI   D2A38632  22.842   5.385   8.573  0.2274 -0.3202  0.1523
67123POPI   C3A38633  23.178   5.332   8.925  0.2528 -0.1672  0.2036
67123POPI   C4A38634  23.687   5.327   8.882 -0.0430  0.2147 -0.1120
67123POPI   C1B38635  23.011   6.800   8.514 -0.0215  0.1537  0.0114
67123POPI   C2B38636  23.436   6.921   8.538  0.2780  0.2973  0.0948
67123POPI   C3B38637  23.951   7.050   8.422 -0.3180 -0.0450 -0.2067
67123POPI   C4B38638  24.265   6.825   8.301 -0.3415  0.0237 -0.0184
67124POPI    C138639  19.733  16.677   9.519 -0.1557  0.0440 -0.1531
67124POPI    C238640  19.835  16.799   9.152  0.1689  0.3830  0.0458
67124POPI    C338641  19.501  16.937   9.324 -0.0062  0.1909 -0.1370
67124POPI   PO438642  20.015  16.732   9.626  0.0011 -0.2148  0.2839
67124POPI   GL138643  20.200  17.163   9.334  0.0212 -0.0062  0.0990
67124POPI   GL238644  20.336  16.871   9.216  0.0810  0.0163  0.0110
67124POPI   C1A38645  20.614  17.449   9.448  0.0193  0.1108 -0.0163
67124POPI   D2A38646  20.953  17.453   9.604 -0.1759  0.1199 -0.2336
67124POPI   C3A38647  21.259  17.509   9.784  0.0611 -0.1939  0.1816
67124POPI   C4A38648  21.487  17.507  10.168  0.1774  0.1015  0.2685
67124POPI   C1B38649  20.748  16.950   9.323 -0.1550  0.0957 -0.0334
67124POPI   C2B38650  21.256  16.974   9.431  0.1845  0.1859  0.3243
67124POPI   C3B38651  21.670  17.064   9.663  0.0776 -0.3713 -0.3766
67124POPI   C4B38652  21.822  17.223   9.926 -0.0395 -0.0856  0.1536
67125POPI    C138653  24.611   7.441   4.661  0.1019  0.0468  0.1317
67125POPI    C238654  24.324   7.230   4.843  0.0831 -0.1851 -0.1630
67125POPI    C338655  24.234   7.462   4.530  0.1414  0.0960  0.0257
67125POPI   PO438656  24.769   7.541   4.787  0.0323  0.2194 -0.0375
67125POPI   GL138657  24.994   7.402   5.085  0.0905 -0.2082  0.0172
67125POPI   GL238658  25.214   7.358   5.039  0.0942 -0.0403  0.0752
67125POPI   C1A38659  25.153   7.844   5.421  0.0903  0.1014 -0.2737
67125POPI   D2A38660  25.574   7.715   5.512 -0.2587  0.0834  0.0699
67125POPI   C3A38661  25.909   7.921   5.746 -0.2390 -0.3017  0.2450
67125POPI   C4A38662  26.135   8.133   6.054 -0.2037 -0.0646 -0.1765
67125POPI   C1B38663  25.610   7.383   5.110 -0.1025 -0.4001 -0.1731
67125POPI   C2B38664  25.971   7.405   5.399 -0.0623 -0.3483 -0.0735
67125POPI   C3B38665  26.359   7.658   5.568 -0.0733 -0.0321  0.2545
67125POPI   C4B38666  26.439   7.550   6.000 -0.2079  0.1505 -0.0948
67126POPI    C138667   3.922  12.565   5.839  0.0963  0.1335 -0.1602
67126POPI    C238668   3.574  12.373   5.882  0.1570  0.0981  0.1912
67126POPI    C338669   3.697  12.486   5.518 -0.1998  0.0727  0.0606
67126POPI   PO438670   3.871  12.761   6.080  0.0154 -0.2403  0.0289
67126POPI   GL138671   3.425  12.866   6.110  0.0577  0.2167 -0.1736
67126POPI   GL238672   3.107  13.086   6.003  0.2407  0.0061 -0.1024
67126POPI   C1A38673   3.102  12.692   6.481  0.2997 -0.2196 -0.1102
67126POPI   D2A38674   2.727  12.811   6.725  0.1404  0.1362  0.0569
67126POPI   C3A38675   2.522  13.199   6.710 -0.0040 -0.1371 -0.1448
67126POPI   C4A38676   2.263  13.335   7.034  0.0044  0.0315 -0.2595
67126POPI   C1B38677   2.759  12.736   6.165  0.1642 -0.0504  0.1832
67126POPI   C2B38678   2.543  12.443   6.441 -0.1690 -0.0885 -0.2473
67126POPI   C3B38679   2.234  12.527   6.744  0.0303  0.2753  0.0097
67126POPI   C4B38680   2.314  12.842   7.021 -0.0663  0.1507  0.2103
67127POPI    C138681   1.621  21.735   2.950  0.0448  0.1349  0.1920
67127POPI    C238682   1.991  21.642   3.069  0.0449 -0.1977 -0.0618
67127POPI    C338683   1.935  21.836   2.724 -0.0179 -0.1490 -0.0241
67127POPI   PO438684   1.475  21.710   3.312  0.0224 -0.0644 -0.1344
67127POPI   GL138685   1.209  21.702   3.697 -0.3706 -0.0544  0.1445
67127POPI   GL238686   1.223  21.985   3.889 -0.0309 -0.0608 -0.0349
67127POPI   C1A38687   0.928  21.581   4.093 -0.1158 -0.2258 -0.2365
67127POPI   D2A38688   0.572  21.648   4.201 -0.0155  0.0430 -0.0037
67127POPI   C3A38689   0.213  21.577   4.233 -0.1632 -0.1146 -0.0676
67127POPI   C4A38690  35.283  21.146   4.051 -0.0680  0.0651 -0.4349
67127POPI   C1B38691   0.760  22.174   4.075 -0.1529 -0.0779  0.2698
67127POPI   C2B38692   0.461  22.144   4.379  0.0353  0.0473 -0.0003
67127POPI   C3B38693   0.178  21.901   4.667 -0.1819 -0.1850 -0.0029
67127POPI   C4B38694  35.349  21.599   4.938 -0.0776  0.0588  0.1852
67128POPI    C138695   4.593   8.232   9.177 -0.0061  0.0554  0.0036
67128POPI    C238696   4.797   8.332   9.506  0.3908  0.0534 -0.2386
67128POPI    C338697   4.887   7.996   9.309 -0.2733 -0.2766  0.0094
67128POPI   PO438698   4.341   8.440   9.201 -0.2516  0.3435 -0.5764
67128POPI   GL138699   4.037   8.697   9.205 -0.0149  0.1988  0.0177
67128POPI   GL238700   3.843   8.454   9.074 -0.0624 -0.2125 -0.1041
67128POPI   C1A38701   3.809   8.925   9.457 -0.1706 -0.3274  0.0633
67128POPI   D2A38702   3.501   8.870   9.741 -0.0927  0.2184  0.1324
67128POPI   C3A38703   3.145   8.700   9.902 -0.0360 -0.0229  0.5742
67128POPI   C4A38704   2.907   8.763  10.274  0.0378  0.0810 -0.0128
67128POPI   C1B38705   3.452   8.556   9.270  0.0119  0.4097  0.3924
67128POPI   C2B38706   3.132   8.687   9.394  0.2025 -0.0260 -0.0374
67128POPI   C3B38707   2.736   8.696   9.554 -0.2226 -0.0897 -0.1095
67128POPI   C4B38708   2.373   8.922   9.669  0.0401  0.1180  0.4208
67129POPI    C138709  22.473   2.695   7.520  0.0255  0.0799  0.1825
67129POPI    C238710  22.208   2.990   7.576 -0.2101 -0.0653 -0.1535
67129POPI    C338711  22.253   2.827   7.213  0.0174 -0.3490  0.0001
67129POPI   PO438712  22.448   2.516   7.761  0.0990 -0.1502 -0.0127
67129POPI   GL138713  22.596   2.460   8.249 -0.0359  0.1697 -0.0566
67129POPI   GL238714  22.322   2.689   8.297  0.3138  0.0498 -0.5155
67129POPI   C1A38715  22.895   2.524   8.544 -0.0483  0.0760 -0.0954
67129POPI   D2A38716  22.836   2.845   8.822  0.0934  0.1624  0.0248
67129POPI   C3A38717  22.870   2.754   9.280 -0.0732  0.3301  0.1584
67129POPI   C4A38718  23.063   2.841   9.663 -0.0945 -0.0056  0.2247
67129POPI   C1B38719  22.401   2.623   8.763  0.2632  0.4220  0.1692
67129POPI   C2B38720  22.384   2.613   9.238 -0.5377 -0.0537 -0.1344
67129POPI   C3B38721  22.546   2.636   9.658  0.1535  0.0845 -0.1631
67129POPI   C4B38722  22.490   2.570  10.177  0.1022 -0.3357  0.1677
67130POPI    C138723  25.718  20.549   0.866  0.0069  0.0985  0.0754
67130POPI    C238724  25.360  20.635   0.709 -0.0043  0.0144  0.0539
67130POPI    C338725  25.391  20.364   1.002  0.0756 -0.1829 -0.1361
67130POPI   PO438726  25.843  20.798   0.980 -0.0265  0.2963  0.1130
67130POPI   GL138727  26.295  20.800   0.930  0.1005 -0.1576  0.1210
67130POPI   GL238728  26.394  21.061   0.920 -0.0487  0.0375  0.1312
67130POPI   C1A38729  26.575  20.527   1.166  0.0795 -0.0599  0.3838
67130POPI   D2A38730  26.815  20.546   1.583 -0.3052  0.1090 -0.0513
67130POPI   C3A38731  26.974  20.862   1.717 -0.1018  0.3357 -0.0456
67130POPI   C4A38732  27.272  20.991   2.004  0.1373  0.3006  0.0757
67130POPI   C1B38733  26.548  21.201   1.240 -0.1441  0.1169  0.1497
67130POPI   C2B38734  26.707  21.253   1.585 -0.0789  0.0200 -0.0137
67130POPI   C3B38735  26.728  21.223   2.005 -0.0115  0.2191 -0.4429
67130POPI   C4B38736  26.567  21.314   2.376 -0.0433 -0.0881  0.0021
67131POPI    C138737  14.718  12.752  14.847  0.0082 -0.0938 -0.0986
67131POPI    C238738  14.415  12.496  14.896 -0.2300  0.1543 -0.2618
67131POPI    C338739  14.536  12.593  14.528  0.0981 -0.0003 -0.1963
67131POPI   PO438740  14.837  12.713  15.047  0.3213  0.0685  0.2916
67131POPI   GL138741  15.007  12.474  15.357 -0.3070  0.0326  0.0270
67131POPI   GL238742  14.889  12.645  15.571 -0.4761 -0.0794 -0.0083
67131POPI   C1A38743  15.157  12.225  15.642 -0.0414  0.1710 -0.0351
67131POPI   D2A38744  15.191  12.199  15.899  0.0318 -0.2975 -0.1068
67131POPI   C3A38745  15.336  12.260  16.278 -0.3158  0.0931  0.1798
67131POPI   C4A38746  15.237  12.279  16.716 -0.1233 -0.0643  0.1275
67131POPI   C1B38747  14.905  12.633  15.904 -0.0733  0.0227 -0.0255
67131POPI   C2B38748  14.943  12.592  16.227  0.5490  0.0466 -0.1997
67131POPI   C3B38749  14.692  12.523  16.653 -0.2437  0.0765  0.1217
67131POPI   C4B38750  14.378  12.266  16.941  0.1571  0.3312  0.1513
67132POPI    C138751  33.759  30.716   7.164  0.0714  0.1101  0.0672
67132POPI    C238752  33.757  30.791   6.771 -0.1182  0.0869  0.0630
67132POPI    C338753  34.094  30.669   6.950 -0.0283  0.1114 -0.0893
67132POPI   PO438754  33.581  30.414   7.343 -0.0736  0.2170 -0.0761
67132POPI   GL138755  33.308  30.237   7.696  0.1501  0.1666 -0.0300
67132POPI   GL238756  33.146  29.995   7.483 -0.1623  0.3195 -0.0563
67132POPI   C1A38757  33.272  30.165   8.123  0.1098 -0.0701 -0.0535
67132POPI   D2A38758  32.986  30.123   8.486 -0.2902  0.0233 -0.0001
67132POPI   C3A38759  33.004  30.033   8.860  0.2792 -0.1213 -0.0804
67132POPI   C4A38760  33.120  30.030   9.217  0.0161 -0.4216  0.0600
67132POPI   C1B38761  32.942  29.874   7.879  0.2514 -0.2320 -0.3921
67132POPI   C2B38762  32.601  29.818   8.206  0.0741 -0.0708 -0.0366
67132POPI   C3B38763  32.347  29.440   8.409 -0.3848 -0.4160  0.1291
67132POPI   C4B38764  32.180  29.245   8.663 -0.0032  0.1496 -0.3159
67133POPI    C138765   7.094  15.564  12.460  0.0729  0.1944 -0.2375
67133POPI    C238766   7.360  15.503  12.166  0.1443  0.0910 -0.1517
67133POPI    C338767   7.011  15.681  12.086  0.1224 -0.0260 -0.3183
67133POPI   PO438768   7.120  15.421  12.615 -0.0897 -0.1110 -0.0432
67133POPI   GL138769   6.945  15.220  12.869  0.0026 -0.1475 -0.0777
67133POPI   GL238770   7.343  15.185  12.967 -0.0610  0.1745 -0.1414
67133POPI   C1A38771   6.682  15.303  13.258  0.1147  0.0307  0.0372
67133POPI   D2A38772   6.459  15.321  13.644 -0.0366  0.0419 -0.0307
67133POPI   C3A38773   6.106  15.084  13.749  0.1675  0.4973  0.1573
67133POPI   C4A38774   5.898  15.245  13.993 -0.6317 -0.0050 -0.0762
67133POPI   C1B38775   7.105  15.015  13.324  0.4025 -0.1256 -0.3797
67133POPI   C2B38776   6.965  15.113  13.704  0.2289 -0.0706  0.1139
67133POPI   C3B38777   6.750  15.148  13.995  0.2146 -0.1119  0.0775
67133POPI   C4B38778   6.440  15.325  14.169  0.0881  0.0728 -0.3728
67134POPI    C138779  20.479   6.481  10.916  0.0080  0.0365 -0.0753
67134POPI    C238780  20.185   6.668  11.112  0.0306  0.1039 -0.1050
67134POPI    C338781  20.139   6.573  10.727 -0.2176 -0.4912  0.0653
67134POPI   PO438782  20.731   6.545  11.009 -0.1741  0.3890 -0.2176
67134POPI   GL138783  21.078   6.445  11.130  0.2270 -0.1060  0.1073
67134POPI   GL238784  21.297   6.158  11.189 -0.0663 -0.1646 -0.0613
67134POPI   C1A38785  21.273   6.655  11.420  0.1847 -0.0187 -0.1229
67134POPI   D2A38786  21.238   6.949  11.850  0.0229  0.0154 -0.0328
67134POPI   C3A38787  21.499   7.074  12.171  0.0694 -0.2300  0.1137
67134POPI   C4A38788  21.850   7.109  12.420 -0.3506 -0.0573 -0.2418
67134POPI   C1B38789  21.576   6.204  11.500 -0.0763 -0.4517 -0.0911
67134POPI   C2B38790  21.980   6.433  11.563  0.0438  0.1037  0.2329
67134POPI   C3B38791  22.344   6.515  11.826 -0.4777  0.2152  0.0880
67134POPI   C4B38792  22.501   6.052  11.982 -0.0632  0.0004 -0.1591
67135POPI    C138793   8.641  20.653  15.283  0.0337  0.2042 -0.0743
67135POPI    C238794   8.735  20.286  15.154  0.1984  0.2348 -0.0427
67135POPI    C338795   8.985  20.591  15.088  0.0958  0.3277 -0.0047
67135POPI   PO438796   8.538  20.547  15.519  0.1138  0.2682 -0.2008
67135POPI   GL138797   8.037  20.506  15.528  0.2705  0.3784 -0.0226
67135POPI   GL238798   7.921  20.194  15.407 -0.0756 -0.2680  0.0707
67135POPI   C1A38799   7.651  20.560  15.774  0.0853  0.4060  0.0283
67135POPI   D2A38800   7.242  20.394  15.948 -0.0169 -0.2522 -0.0129
67135POPI   C3A38801   7.160  19.983  16.051 -0.1960  0.1662 -0.1484
67135POPI   C4A38802   6.846  19.695  16.161 -0.5280  0.1747  0.2065
67135POPI   C1B38803   7.546  20.086  15.634  0.0876  0.2767  0.0858
67135POPI   C2B38804   7.058  20.078  15.560 -0.0108  0.1730 -0.0055
67135POPI   C3B38805   6.836  19.816  15.463  0.3405  0.0466 -0.3983
67135POPI   C4B38806   6.457  19.660  15.402  0.1358 -0.0953  0.0554
67136POPI    C138807  21.062   5.103   8.806  0.0195  0.0286  0.0279
67136POPI    C238808  21.090   5.500   8.850  0.1772  0.0122  0.0801
67136POPI    C338809  20.789   5.342   8.639  0.2291  0.1709 -0.1139
67136POPI   PO438810  21.113   4.979   9.102 -0.0263 -0.0181 -0.3781
67136POPI   GL138811  21.280   4.886   9.471  0.0718  0.1610  0.2023
67136POPI   GL238812  21.564   4.835   9.284  0.2037 -0.2297 -0.3955
67136POPI   C1A38813  21.411   4.589   9.726 -0.0267  0.1012  0.1096
67136POPI   D2A38814  21.292   4.238   9.956 -0.1660 -0.0209  0.0727
67136POPI   C3A38815  21.688   3.967  10.212 -0.0339  0.0282  0.2359
67136POPI   C4A38816  21.812   3.688  10.424 -0.2633 -0.1183  0.1137
67136POPI   C1B38817  21.858   4.877   9.593 -0.1322 -0.0624  0.0465
67136POPI   C2B38818  22.186   4.876   9.833  0.0044  0.0747 -0.2809
67136POPI   C3B38819  22.529   4.930  10.180  0.1610 -0.1058  0.4779
67136POPI   C4B38820  22.847   4.613  10.292 -0.0139  0.1353 -0.1890
67137PAPI    C138821  19.262  22.074  11.142 -0.2323  0.1449 -0.0556
67137PAPI    C238822  19.353  22.159  11.522 -0.2182  0.1870 -0.0684
67137PAPI    C338823  18.983  22.040  11.427 -0.1161 -0.2063  0.0189
67137PAPI   PO438824  19.459  21.969  11.087 -0.2979 -0.4738 -0.4028
67137PAPI   GL138825  19.838  21.720  11.055 -0.1853  0.0942  0.0834
67137PAPI   GL238826  19.674  21.543  11.243 -0.2122  0.4150  0.1721
67137PAPI   D1A38827  20.185  22.165  10.937  0.1174 -0.0768 -0.0700
67137PAPI   D2A38828  20.630  21.960  10.897  0.2877 -0.1102 -0.0067
67137PAPI   D3A38829  20.847  21.511  11.015  0.1300  0.1091  0.1420
67137PAPI   D4A38830  21.246  21.531  10.772 -0.1961  0.0246  0.0079
67137PAPI   C5A38831  21.523  21.727  10.936  0.0092 -0.2306 -0.0125
67137PAPI   C1B38832  19.995  21.496  11.528 -0.5128 -0.2430 -0.1769
67137PAPI   C2B38833  20.332  21.331  11.698  0.0317  0.0654  0.1606
67137PAPI   C3B38834  20.699  21.225  11.875  0.3285 -0.0699 -0.0361
67137PAPI   C4B38835  20.884  21.269  12.192 -0.1532 -0.0277 -0.1718
67138PAPI    C138836  19.443  10.464  10.933 -0.1535  0.1307 -0.0343
67138PAPI    C238837  19.471  10.089  10.797 -0.1060  0.1096  0.0330
67138PAPI    C338838  19.167  10.193  11.036 -0.1590  0.1325 -0.0440
67138PAPI   PO438839  19.700  10.502  11.010  0.1412 -0.2413  0.0478
67138PAPI   GL138840  20.040  10.755  10.880 -0.0496 -0.1837  0.1257
67138PAPI   GL238841  19.926  10.986  11.055 -0.1608  0.1305  0.1978
67138PAPI   D1A38842  20.222  10.442  11.132  0.4660 -0.1236 -0.0654
67138PAPI   D2A38843  20.410  10.191  11.205  0.2988  0.0527 -0.2723
67138PAPI   D3A38844  20.110  10.194  11.520  0.1464 -0.2599 -0.1803
67138PAPI   D4A38845  20.506  10.239  11.680 -0.3106  0.1760 -0.0046
67138PAPI   C5A38846  20.877  10.371  11.458 -0.1553  0.0716 -0.0755
67138PAPI   C1B38847  20.356  10.918  11.261 -0.0877  0.0079 -0.0216
67138PAPI   C2B38848  20.708  10.992  11.390  0.0543 -0.1163 -0.2442
67138PAPI   C3B38849  21.100  10.823  11.629 -0.1345 -0.1867 -0.0468
67138PAPI   C4B38850  21.128  10.681  12.027 -0.2808 -0.3993  0.2926
67139PAPI    C138851  26.160  18.049  26.242 -0.0819 -0.0790  0.0278
67139PAPI    C238852  26.525  18.148   0.122 -0.1745 -0.1314  0.3261
67139PAPI    C338853  26.485  17.918  26.049  0.0508  0.2935 -0.0065
67139PAPI   PO438854  26.048  18.059   0.315  0.2673 -0.3495 -0.1319
67139PAPI   GL138855  25.923  17.706   0.663 -0.1929 -0.0081  0.0560
67139PAPI   GL238856  26.178  17.821   0.782 -0.0588  0.0131 -0.1400
67139PAPI   D1A38857  25.964  17.356   0.718 -0.1473  0.1257 -0.1086
67139PAPI   D2A38858  26.121  16.925   0.912  0.0540  0.2974  0.0673
67139PAPI   D3A38859  25.706  17.116   1.053  0.3363  0.3688  0.1520
67139PAPI   D4A38860  25.454  17.578   1.023 -0.0584  0.1949  0.2636
67139PAPI   C5A38861  25.767  17.791   1.179  0.1098 -0.2248  0.2544
67139PAPI   C1B38862  26.305  17.887   1.208 -0.0686 -0.3675 -0.0553
67139PAPI   C2B38863  26.487  17.959   1.665  0.0330  0.0330  0.1741
67139PAPI   C3B38864  26.672  17.994   2.118  0.1901 -0.1941 -0.2352
67139PAPI   C4B38865  26.671  17.806   2.518 -0.0869  0.0941  0.2842
67140PAPI    C138866  13.065   3.281  12.930 -0.0220  0.0788  0.1780
67140PAPI    C238867  13.256   3.576  13.120  0.1568  0.1947 -0.1770
67140PAPI    C338868  13.017   3.659  12.810  0.0309 -0.0128 -0.1364
67140PAPI   PO438869  12.944   3.162  13.077 -0.0691  0.1359  0.0310
67140PAPI   GL138870  12.973   3.205  13.483 -0.2828 -0.0545  0.4746
67140PAPI   GL238871  12.906   3.441  13.601 -0.0656 -0.2692  0.0815
67140PAPI   D1A38872  12.997   2.749  13.752 -0.1090  0.0552  0.1657
67140PAPI   D2A38873  13.276   3.067  13.880  0.1072 -0.1967 -0.2947
67140PAPI   D3A38874  13.142   2.980  14.234  0.1788 -0.0574 -0.0052
67140PAPI   D4A38875  13.570   3.122  14.466 -0.1399 -0.0711 -0.0161
67140PAPI   C5A38876  13.883   3.332  14.737  0.2446 -0.0731 -0.1168
67140PAPI   C1B38877  12.802   3.558  14.079 -0.3209  0.1480  0.2145
67140PAPI   C2B38878  13.001   3.420  14.478 -0.2605 -0.2494 -0.1366
67140PAPI   C3B38879  13.091   3.206  14.834 -0.4590 -0.3028 -0.0084
67140PAPI   C4B38880  13.425   2.905  15.081 -0.0135 -0.1509  0.3954
67141PAPI    C138881  11.336  26.069  17.516  0.2020 -0.0488 -0.0366
67141PAPI    C238882  10.936  26.076  17.523  0.1979  0.0633 -0.3120
67141PAPI    C338883  11.130  25.727  17.532  0.0995  0.0166  0.0473
67141PAPI   PO438884  11.400  26.253  17.757 -0.1839 -0.1329  0.0193
67141PAPI   GL138885  11.405  26.217  18.204 -0.0651 -0.0153 -0.1190
67141PAPI   GL238886  11.426  25.996  18.453  0.0887 -0.0133  0.1027
67141PAPI   D1A38887  11.040  25.959  17.974 -0.2289 -0.0831 -0.0181
67141PAPI   D2A38888  10.928  26.286  18.147 -0.0421  0.2855  0.0870
67141PAPI   D3A38889  10.664  26.254  18.453  0.3868  0.1017 -0.0626
67141PAPI   D4A38890  10.459  26.243  18.816  0.2251  0.3229 -0.0390
67141PAPI   C5A38891  10.360  26.436  19.155  0.2275 -0.0144 -0.2093
67141PAPI   C1B38892  11.078  26.091  18.757  0.2397 -0.0459  0.1254
67141PAPI   C2B38893  10.860  26.498  18.964 -0.4390  0.3517  0.1915
67141PAPI   C3B38894  10.758  26.627  19.396  0.0660  0.1371 -0.0382
67141PAPI   C4B38895  10.913  27.007  19.501  0.1802 -0.2203 -0.0335
67142PAPI    C138896   4.938   6.349  10.330  0.1265  0.0505 -0.2342
67142PAPI    C238897   5.240   6.611  10.314  0.0153  0.1850 -0.1379
67142PAPI    C338898   5.149   6.431  10.659  0.1996 -0.1087 -0.2408
67142PAPI   PO438899   4.685   6.528  10.165  0.1453 -0.1559 -0.1435
67142PAPI   GL138900   4.226   6.268  10.180  0.2136  0.1304  0.2429
67142PAPI   GL238901   3.999   6.099  10.152 -0.0983  0.2538  0.1017
67142PAPI   D1A38902   4.207   6.687  10.359  0.3683 -0.3644 -0.2853
67142PAPI   D2A38903   4.140   7.053  10.314  0.2296  0.2615 -0.2449
67142PAPI   D3A38904   4.592   6.964  10.520 -0.2305 -0.0073 -0.1000
67142PAPI   D4A38905   4.628   7.328  10.418  0.1915  0.4070  0.0551
67142PAPI   C5A38906   4.611   7.669  10.630 -0.1272  0.2418  0.1897
67142PAPI   C1B38907   3.715   6.309  10.513 -0.1062  0.0257 -0.0737
67142PAPI   C2B38908   3.438   6.261  10.880  0.1561  0.0178  0.1477
67142PAPI   C3B38909   3.060   6.311  11.101 -0.2404  0.1504  0.1525
67142PAPI   C4B38910   2.601   6.465  11.054  0.2051 -0.3815 -0.1537
67143PAPI    C138911  17.540  26.798  11.804 -0.3704  0.1694  0.1245
67143PAPI    C238912  17.707  26.436  11.780 -0.1134  0.3025 -0.1283
67143PAPI    C338913  17.432  26.510  12.060  0.0073 -0.0173  0.0785
67143PAPI   PO438914  17.718  26.981  11.746 -0.4247 -0.2272 -0.4555
67143PAPI   GL138915  18.109  27.218  11.801  0.0406 -0.1238 -0.2666
67143PAPI   GL238916  18.281  27.413  11.588 -0.0281 -0.1321 -0.0249
67143PAPI   D1A38917  18.062  27.161  12.193 -0.0554 -0.3937 -0.0873
67143PAPI   D2A38918  18.002  26.724  12.111  0.4648  0.2323  0.3109
67143PAPI   D3A38919  17.956  26.435  12.387 -0.1570  0.0308 -0.0298
67143PAPI   D4A38920  18.368  26.639  12.412 -0.1267  0.0780  0.1859
67143PAPI   C5A38921  18.485  26.733  12.826  0.2313  0.0114 -0.3712
67143PAPI   C1B38922  18.562  27.499  11.862 -0.1776 -0.0517 -0.1973
67143PAPI   C2B38923  19.035  27.745  12.029 -0.0102 -0.1818 -0.3980
67143PAPI   C3B38924  19.388  27.600  12.201 -0.1595  0.0955  0.0041
67143PAPI   C4B38925  19.903  27.654  12.117  0.2075 -0.1064  0.1557
67144PAPI    C138926   4.010   6.617   9.107  0.1004 -0.1458 -0.2572
67144PAPI    C238927   4.092   7.002   9.038 -0.1444 -0.0884 -0.2304
67144PAPI    C338928   4.386   6.750   9.136  0.0039  0.1095 -0.1626
67144PAPI   PO438929   3.844   6.718   9.403  0.1784 -0.0589  0.2408
67144PAPI   GL138930   3.857   7.114   9.557 -0.1679  0.0768 -0.3647
67144PAPI   GL238931   3.954   7.151   9.842 -0.1685  0.1134  0.1948
67144PAPI   D1A38932   3.483   6.997   9.888 -0.0875  0.0073 -0.1589
67144PAPI   D2A38933   3.452   6.655   9.728  0.0567  0.2345  0.0621
67144PAPI   D3A38934   3.512   6.330   9.963 -0.0227  0.0277  0.1103
67144PAPI   D4A38935   3.085   6.401  10.152  0.2715 -0.2405 -0.1308
67144PAPI   C5A38936   2.806   6.143  10.253  0.1034  0.2648 -0.5111
67144PAPI   C1B38937   3.808   7.382  10.089 -0.2295  0.1933 -0.1090
67144PAPI   C2B38938   3.691   7.383  10.515  0.2022  0.0181  0.2630
67144PAPI   C3B38939   3.595   7.320  10.863 -0.1378 -0.3715 -0.2009
67144PAPI   C4B38940   3.658   7.099  11.170  0.0315  0.1176 -0.2124
67145PAPI    C138941  25.023   5.739   4.611  0.2594  0.0192 -0.0702
67145PAPI    C238942  24.717   5.530   4.761  0.2989  0.0133  0.0029
67145PAPI    C338943  24.705   5.659   4.382  0.3130 -0.1979 -0.0699
67145PAPI   PO438944  25.169   5.777   4.868  0.3514 -0.1583  0.0462
67145PAPI   GL138945  25.578   5.759   4.962  0.0159 -0.0202  0.1600
67145PAPI   GL238946  25.516   5.981   5.277 -0.1032  0.0055  0.0586
67145PAPI   D1A38947  25.702   5.526   5.425 -0.2082 -0.0021  0.0074
67145PAPI   D2A38948  25.905   5.696   5.806 -0.0395  0.1127 -0.0662
67145PAPI   D3A38949  25.542   5.391   5.913  0.1522 -0.0001 -0.1849
67145PAPI   D4A38950  25.630   5.715   6.176  0.3327  0.1415 -0.4015
67145PAPI   C5A38951  25.553   5.904   6.575  0.1993 -0.0741 -0.3192
67145PAPI   C1B38952  25.500   6.083   5.749  0.1130  0.2232 -0.2291
67145PAPI   C2B38953  25.916   6.180   6.050 -0.0100 -0.1704  0.0178
67145PAPI   C3B38954  25.990   5.998   6.398  0.2809 -0.2707 -0.2250
67145PAPI   C4B38955  26.100   5.818   6.844  0.2726 -0.3644 -0.2270
67146PAPI    C138956  27.206  30.581   5.188  0.0027  0.0063 -0.3504
67146PAPI    C238957  27.088  30.224   5.051  0.1530 -0.3164  0.3384
67146PAPI    C338958  27.416  30.396   4.902 -0.0040 -0.3922 -0.1026
67146PAPI   PO438959  27.188  30.624   5.461  0.2555  0.1253 -0.1668
67146PAPI   GL138960  27.325  30.558   5.937 -0.1104  0.0537  0.0808
67146PAPI   GL238961  27.194  30.649   6.283  0.0527 -0.0955  0.0575
67146PAPI   D1A38962  27.613  30.238   6.199  0.0045 -0.2586 -0.1347
67146PAPI   D2A38963  27.535  29.942   6.490  0.0926  0.1457 -0.1157
67146PAPI   D3A38964  27.803  30.109   6.816  0.0788  0.4166 -0.0304
67146PAPI   D4A38965  28.071  29.729   6.850 -0.0799 -0.0821  0.1376
67146PAPI   C5A38966  28.239  29.484   7.126 -0.1857  0.2422 -0.1113
67146PAPI   C1B38967  27.531  30.610   6.525  0.5920 -0.2140  0.0646
67146PAPI   C2B38968  27.620  30.578   6.858  0.0598 -0.1570  0.1349
67146PAPI   C3B38969  27.759  30.688   7.254 -0.1503  0.0401 -0.1511
67146PAPI   C4B38970  27.832  30.581   7.761  0.1955 -0.1215  0.2461
67147PAPI    C138971   4.648  23.962   8.065 -0.0167  0.0276  0.1957
67147PAPI    C238972   5.010  23.808   8.141  0.0617  0.0527 -0.1176
67147PAPI    C338973   4.964  24.076   7.847 -0.2106  0.0571 -0.0731
67147PAPI   PO438974   4.444  24.033   8.274 -0.2055  0.1858 -0.1446
67147PAPI   GL138975   4.087  24.148   8.506  0.0310 -0.3723  0.1647
67147PAPI   GL238976   3.810  24.032   8.657  0.0908 -0.2236 -0.4461
67147PAPI   D1A38977   3.822  24.185   8.155 -0.2199 -0.4363 -0.1485
67147PAPI   D2A38978   3.688  24.545   8.520 -0.0085 -0.3046  0.0878
67147PAPI   D3A38979   3.498  24.352   8.874 -0.1268  0.2458  0.1808
67147PAPI   D4A38980   3.082  24.163   8.770 -0.0972  0.0047 -0.1302
67147PAPI   C5A38981   2.979  23.775   8.828 -0.1488  0.0961  0.0778
67147PAPI   C1B38982   3.478  23.801   8.860 -0.2691 -0.3031 -0.0231
67147PAPI   C2B38983   3.238  23.722   9.251 -0.0667  0.2683  0.3425
67147PAPI   C3B38984   2.831  23.932   9.242  0.1250  0.0501 -0.3033
67147PAPI   C4B38985   2.679  24.250   9.321  0.2463  0.1575 -0.2166
67148PAPI    C138986  20.788  24.747   7.561 -0.4761  0.1807 -0.2077
67148PAPI    C238987  21.006  24.790   7.228  0.0392  0.1017  0.1141
67148PAPI    C338988  20.773  24.468   7.274  0.2504 -0.0718 -0.0122
67148PAPI   PO438989  20.973  24.895   7.722  0.1054 -0.1336  0.1258
67148PAPI   GL138990  21.310  24.973   7.920 -0.2265 -0.1505 -0.0221
67148PAPI   GL238991  21.545  25.097   7.888  0.2502 -0.0971 -0.1383
67148PAPI   D1A38992  21.256  24.834   8.287 -0.2399  0.1929  0.4106
67148PAPI   D2A38993  21.209  25.058   8.596  0.0640 -0.2501  0.5209
67148PAPI   D3A38994  21.531  25.084   8.861 -0.1444 -0.0232 -0.3025
67148PAPI   D4A38995  21.909  24.879   8.753  0.2153 -0.0968  0.3136
67148PAPI   C5A38996  22.202  24.871   9.021 -0.1137 -0.2191  0.0983
67148PAPI   C1B38997  21.766  24.906   8.180 -0.1202  0.0952 -0.0367
67148PAPI   C2B38998  22.254  24.868   8.363 -0.0813 -0.0291 -0.0382
67148PAPI   C3B38999  22.683  24.987   8.376 -0.2213  0.3939 -0.0391
67148PAPI   C4B39000  23.071  24.886   8.636  0.0709 -0.0339 -0.0814
67149PAPI    C139001  16.882  24.283  15.112 -0.1043  0.1004  0.1029
67149PAPI    C239002  16.533  24.217  14.929  0.0698 -0.0085 -0.1921
67149PAPI    C339003  16.661  23.966  15.213 -0.1199  0.0653 -0.0408
67149PAPI   PO439004  16.981  24.501  14.949 -0.3066 -0.1623  0.4544
67149PAPI   GL139005  17.278  24.806  15.169  0.1546  0.0195 -0.1585
67149PAPI   GL239006  17.356  25.070  15.261  0.0641  0.0188  0.0606
67149PAPI   D1A39007  17.186  24.574  15.457  0.2816  0.2535 -0.0201
67149PAPI   D2A39008  17.415  24.195  15.396 -0.1026  0.2545  0.1817
67149PAPI   D3A39009  17.554  24.137  15.794  0.1306 -0.1163  0.1276
67149PAPI   D4A39010  17.716  24.480  15.588 -0.1792  0.1416  0.1377
67149PAPI   C5A39011  17.947  24.329  15.315  0.3376 -0.0854 -0.2843
67149PAPI   C1B39012  17.617  25.099  15.696 -0.1232 -0.2661 -0.2084
67149PAPI   C2B39013  17.922  25.104  15.935 -0.1591  0.0341  0.1939
67149PAPI   C3B39014  18.185  24.818  16.192 -0.1163  0.1181 -0.0638
67149PAPI   C4B39015  18.054  24.488  16.510 -0.3760 -0.2683  0.1340
67150PAPI    C139016  11.349  20.330  15.717 -0.1037 -0.1308  0.2226
67150PAPI    C239017  11.138  20.585  15.493 -0.1784 -0.0826  0.3471
67150PAPI    C339018  11.495  20.456  15.367 -0.2412 -0.0935  0.1786
67150PAPI   PO439019  11.176  20.109  15.755 -0.0670 -0.2415 -0.1685
67150PAPI   GL139020  10.832  19.991  15.938 -0.0647 -0.1754  0.3383
67150PAPI   GL239021  10.639  20.158  16.098  0.4562 -0.0602 -0.0517
67150PAPI   D1A39022  11.081  19.689  16.182 -0.0628 -0.2764 -0.4525
67150PAPI   D2A39023  10.827  19.346  16.334 -0.2615 -0.2404  0.1044
67150PAPI   D3A39024  10.811  19.765  16.692 -0.2498 -0.1077  0.0809
67150PAPI   D4A39025  10.329  19.836  16.734 -0.1895  0.1307 -0.0043
67150PAPI   C5A39026  10.086  19.660  17.022  0.0475  0.1032 -0.1477
67150PAPI   C1B39027  10.547  19.774  16.281  0.1528  0.0734  0.1418
67150PAPI   C2B39028  10.185  19.530  16.363  0.0759 -0.0830  0.1048
67150PAPI   C3B39029  10.006  19.265  16.624  0.0188 -0.0366 -0.2113
67150PAPI   C4B39030  10.026  19.109  17.087  0.1716  0.3177  0.0670
67151CHOL   ROH39031  27.851  26.099   6.826 -0.1133  0.0726 -0.0084
67151CHOL    R139032  27.653  26.238   6.678  0.0095  0.1884 -0.0649
67151CHOL    R239033  27.688  26.496   6.588  0.2363  0.1242 -0.1625
67151CHOL    R339034  27.627  26.387   6.347  0.1464  0.0862 -0.1225
67151CHOL    R439035  27.614  26.677   6.303 -0.0126  0.0795 -0.1267
67151CHOL    R539036  27.457  26.531   6.258  0.0277  0.0051 -0.0300
67151CHOL    C139037  27.512  26.679   5.911 -0.2418  0.0173 -0.0683
67151CHOL    C239038  27.651  26.861   5.585  0.0149 -0.0933 -0.2328
67152CHOL   ROH39039   2.862  21.410  10.138 -0.1509  0.0510  0.0569
67152CHOL    R139040   3.004  21.480   9.904 -0.0691 -0.1020  0.0595
67152CHOL    R239041   2.955  21.713   9.764 -0.0877 -0.2383 -0.1666
67152CHOL    R339042   3.222  21.753   9.799 -0.1173 -0.1163 -0.0767
67152CHOL    R439043   3.137  21.968   9.619 -0.1061 -0.3063 -0.3096
67152CHOL    R539044   3.299  21.827   9.584 -0.0419 -0.2819 -0.1061
67152CHOL    C139045   3.494  22.154   9.567 -0.1447 -0.2314 -0.3083
67152CHOL    C239046   3.721  22.399   9.434 -0.0885  0.3404 -0.0581
67153CHOL   ROH39047  18.090  21.671  19.236 -0.0681 -0.1518 -0.0561
67153CHOL    R139048  18.092  21.835  19.005 -0.1160 -0.1467 -0.0525
67153CHOL    R239049  18.209  21.756  18.768 -0.0738 -0.0985 -0.0464
67153CHOL    R339050  17.964  21.814  18.665 -0.0893 -0.1865 -0.0608
67153CHOL    R439051  18.149  21.848  18.440 -0.0423  0.1816  0.0250
67153CHOL    R539052  18.005  21.994  18.512 -0.1802 -0.0008  0.1299
67153CHOL    C139053  17.884  21.956  18.152 -0.0386  0.2614  0.0527
67153CHOL    C239054  17.941  21.918  17.797  0.2090 -0.0180  0.2466
67154CHOL   ROH39055  24.315  32.869   7.021  0.0868 -0.2367 -0.1483
67154CHOL    R139056  24.378  32.918   7.293  0.2913 -0.0244 -0.2328
67154CHOL    R239057  24.340  32.730   7.491 -0.0496  0.3083  0.0244
67154CHOL    R339058  24.603  32.777   7.542  0.0764 -0.1959 -0.1356
67154CHOL    R439059  24.512  32.607   7.764 -0.2838  0.4902  0.2571
67154CHOL    R539060  24.614  32.800   7.780  0.1741  0.2975 -0.1834
67154CHOL    C139061  24.860  32.580   7.971 -0.3022  0.1232  0.2424
67154CHOL    C239062  24.902  32.421   8.335  0.3687 -0.3799  0.3044
67155CHOL   ROH39063  25.245  10.004   9.757 -0.0185 -0.0128  0.4000
67155CHOL    R139064  24.970  10.024   9.821 -0.0408 -0.2387  0.3792
67155CHOL    R239065  24.787  10.146   9.654 -0.0465  0.0266  0.5760
67155CHOL    R339066  24.656   9.909   9.677  0.0344 -0.0718  0.0791
67155CHOL    R439067  24.448  10.103   9.605 -0.0826  0.0736  0.7799
67155CHOL    R539068  24.445   9.967   9.776  0.1110 -0.3784  0.4319
67155CHOL    C139069  24.127   9.856   9.598 -0.0275  0.0088  0.4322
67155CHOL    C239070  23.902   9.653   9.404 -0.1092 -0.3673 -0.1587
67156CHOL   ROH39071  28.038   2.262   9.845  0.1940  0.0820 -0.0640
67156CHOL    R139072  28.129   2.450   9.653  0.1453  0.0658 -0.1036
67156CHOL    R239073  28.117   2.403   9.381  0.1351  0.0155 -0.0953
67156CHOL    R339074  27.984   2.640   9.379  0.0897 -0.0106 -0.1266
67156CHOL    R439075  28.084   2.608   9.105 -0.0563 -0.1111 -0.1676
67156CHOL    R539076  28.115   2.780   9.235 -0.0166 -0.0485 -0.2607
67156CHOL    C139077  27.940   2.950   8.942 -0.2106 -0.2093 -0.2391
67156CHOL    C239078  27.863   3.084   8.597  0.2504 -0.3147 -0.2755
67157CHOL   ROH39079  24.346  26.786   5.065 -0.1767 -0.1341  0.1242
67157CHOL    R139080  24.453  26.701   5.313 -0.0734 -0.0839  0.0966
67157CHOL    R239081  24.527  26.439   5.362 -0.0096 -0.0639  0.1031
67157CHOL    R339082  24.764  26.553   5.430 -0.0054 -0.0136  0.0054
67157CHOL    R439083  24.683  26.402   5.667  0.1585 -0.0893  0.0149
67157CHOL    R539084  24.738  26.613   5.660  0.0965 -0.0717  0.0331
67157CHOL    C139085  24.997  26.486   5.909  0.2603 -0.0568 -0.1281
67157CHOL    C239086  25.368  26.507   6.056 -0.3279  0.0475  0.3642
67158CHOL   ROH39087  11.429  17.002  18.208  0.1411 -0.1940  0.1288
67158CHOL    R139088  11.429  17.119  17.950 -0.0429 -0.0172  0.2079
67158CHOL    R239089  11.501  17.382  17.906  0.2510 -0.0812  0.2960
67158CHOL    R339090  11.674  17.271  17.728 -0.1285 -0.1947 -0.0099
67158CHOL    R439091  11.615  17.536  17.619  0.1689  0.0076  0.3109
67158CHOL    R539092  11.596  17.346  17.515 -0.2567  0.1337  0.1486
67158CHOL    C139093  11.845  17.522  17.285 -0.2354 -0.0470  0.0323
67158CHOL    C239094  11.901  17.846  17.068  0.0328 -0.1260 -0.0761
67159CHOL   ROH39095   1.609  25.290  15.261  0.1248 -0.0625  0.0979
67159CHOL    R139096   1.760  25.371  15.036  0.2007 -0.1682  0.1101
67159CHOL    R239097   1.783  25.636  14.962  0.0402 -0.2229 -0.1365
67159CHOL    R339098   2.050  25.583  14.975  0.0756 -0.0029  0.0821
67159CHOL    R439099   2.033  25.852  14.860 -0.0654 -0.1091 -0.1564
67159CHOL    R539100   2.140  25.681  14.776  0.1251 -0.0988  0.0557
67159CHOL    C139101   2.429  25.927  14.813 -0.0936  0.1636  0.0372
67159CHOL    C239102   2.529  26.290  14.735 -0.0364 -0.2137  0.0214
67160CHOL   ROH39103  17.416  31.588  16.005  0.0048  0.1315  0.0441
67160CHOL    R139104  17.179  31.481  15.893  0.0492 -0.0544  0.1260
67160CHOL    R239105  16.963  31.405  16.048  0.0547  0.0352  0.1810
67160CHOL    R339106  16.827  31.572  15.884  0.0223 -0.1715 -0.0039
67160CHOL    R439107  16.629  31.373  15.968  0.0488 -0.0875  0.2546
67160CHOL    R539108  16.678  31.429  15.763  0.0208 -0.3267  0.1827
67160CHOL    C139109  16.306  31.512  15.766  0.0149 -0.3529  0.1244
67160CHOL    C239110  15.974  31.347  15.732  0.2949  0.1781 -0.1312
67161CHOL   ROH39111  18.326  16.266  13.558  0.0363  0.2551  0.1088
67161CHOL    R139112  18.577  16.224  13.682  0.0088  0.2247  0.1548
67161CHOL    R239113  18.600  16.153  13.948 -0.0545  0.0709  0.1206
67161CHOL    R339114  18.746  15.947  13.847  0.0100  0.1562  0.0388
67161CHOL    R439115  18.882  16.018  14.097 -0.1507 -0.0566  0.1879
67161CHOL    R539116  18.973  16.003  13.899 -0.0233  0.1112  0.2330
67161CHOL    C139117  19.183  15.746  14.088 -0.1463 -0.0513  0.1503
67161CHOL    C239118  19.152  15.332  14.343  0.3442  0.2869  0.0173
67162CHOL   ROH39119  13.065  21.175  17.688 -0.0524  0.1616  0.0856
67162CHOL    R139120  13.148  20.969  17.863 -0.0453  0.1440  0.0608
67162CHOL    R239121  13.344  21.005  18.054 -0.1049  0.1518  0.1199
67162CHOL    R339122  13.151  20.912  18.222 -0.1244  0.0650  0.0495
67162CHOL    R439123  13.399  20.897  18.378 -0.1712  0.1684  0.1368
67162CHOL    R539124  13.259  20.735  18.343 -0.0893  0.1080  0.0828
67162CHOL    C139125  13.252  20.747  18.724 -0.2278  0.0969  0.0812
67162CHOL    C239126  13.036  20.865  19.015  0.0985 -0.0240  0.2701
67163CHOL   ROH39127  33.228   9.984   7.299 -0.0545 -0.0035 -0.1035
67163CHOL    R139128  33.341   9.818   7.100 -0.0889  0.1792 -0.2767
67163CHOL    R239129  33.474   9.919   6.880  0.3827  0.3717  0.0912
67163CHOL    R339130  33.673   9.753   6.965 -0.0207 -0.1510  0.0421
67163CHOL    R439131  33.740   9.812   6.686  0.5318  0.4005  0.2774
67163CHOL    R539132  33.720   9.615   6.776  0.0618  0.2126 -0.2100
67163CHOL    C139133  34.081   9.595   6.653  0.2396 -0.0729  0.3397
67163CHOL    C239134  34.006   9.593   6.299  0.3412  0.1103  0.1551
67164CHOL   ROH39135  27.555  23.986   3.300 -0.1141  0.2077 -0.0442
67164CHOL    R139136  27.356  23.990   3.501 -0.0587  0.1104  0.0128
67164CHOL    R239137  27.098  23.900   3.458 -0.0430  0.0364  0.0702
67164CHOL    R339138  27.150  23.744   3.675  0.0676  0.0155  0.0289
67164CHOL    R439139  26.859  23.734   3.644  0.0631 -0.0860  0.0983
67164CHOL    R539140  26.968  23.788   3.824  0.0875 -0.0790  0.0816
67164CHOL    C139141  26.768  23.491   3.956  0.2285 -0.1770  0.0760
67164CHOL    C239142  26.348  23.631   3.898  0.0674 -0.0936 -0.0874
67165CHOL   ROH39143   5.746  27.231  16.216 -0.0580 -0.0638  0.0731
67165CHOL    R139144   5.553  27.153  16.408 -0.0901  0.0662  0.0944
67165CHOL    R239145   5.307  27.276  16.430 -0.1541 -0.0190 -0.1331
67165CHOL    R339146   5.213  27.022  16.404 -0.0297 -0.0930  0.1216
67165CHOL    R439147   4.985  27.175  16.505 -0.2154 -0.0191 -0.3935
67165CHOL    R539148   5.067  26.992  16.591 -0.2582  0.1343 -0.0174
67165CHOL    C139149   4.709  26.878  16.524 -0.1345 -0.0885 -0.3057
67165CHOL    C239150   4.373  26.677  16.451  0.0473 -0.2388 -0.1808
67166CHOL   ROH39151  30.343  17.098   3.744  0.0538  0.0130  0.2865
67166CHOL    R139152  30.284  16.988   3.489 -0.0483  0.0221  0.3057
67166CHOL    R239153  30.381  17.097   3.255 -0.1226  0.0164  0.2706
67166CHOL    R339154  30.472  16.844   3.213 -0.1614  0.0087  0.2356
67166CHOL    R439155  30.476  16.969   2.948 -0.2625  0.0051  0.2324
67166CHOL    R539156  30.379  16.781   3.002 -0.2552  0.0141  0.2754
67166CHOL    C139157  30.617  16.657   2.731 -0.3795 -0.0092  0.1771
67166CHOL    C239158  30.658  16.478   2.389  0.0412  0.0623  0.0037
67167CHOL   ROH39159  24.097  17.130   7.350 -0.0566 -0.0993  0.2091
67167CHOL    R139160  23.849  17.154   7.217  0.0362 -0.0690  0.0405
67167CHOL    R239161  23.629  17.000   7.283 -0.0484  0.0111 -0.0577
67167CHOL    R339162  23.507  17.242   7.307  0.0004  0.0513 -0.2073
67167CHOL    R439163  23.288  17.053   7.259 -0.0523  0.0397  0.0569
67167CHOL    R539164  23.329  17.235   7.146 -0.0765 -0.0607 -0.1198
67167CHOL    C139165  22.975  17.310   7.267 -0.0089  0.0944 -0.0167
67167CHOL    C239166  22.703  17.603   7.171 -0.1617 -0.2363 -0.1446
67168CHOL   ROH39167   2.910  26.905  12.426  0.1205 -0.2037  0.1826
67168CHOL    R139168   2.696  26.821  12.591  0.0106 -0.0927  0.0981
67168CHOL    R239169   2.548  26.594  12.538 -0.0204 -0.0718  0.0961
67168CHOL    R339170   2.617  26.528  12.793 -0.1727 -0.0051  0.1551
67168CHOL    R439171   2.384  26.360  12.733  0.0229 -0.2148 -0.0380
67168CHOL    R539172   2.408  26.493  12.904 -0.2373 -0.1892 -0.0187
67168CHOL    C139173   2.354  26.162  13.086 -0.0949 -0.2351 -0.0606
67168CHOL    C239174   2.035  26.162  13.171 -0.0247 -0.2106  0.0735
67169CHOL   ROH39175   7.298  32.788  19.647  0.0668 -0.2324  0.0758
67169CHOL    R139176   7.430  32.682  19.421 -0.0835 -0.0153 -0.1171
67169CHOL    R239177   7.473  32.829  19.191 -0.0729  0.2678  0.0622
67169CHOL    R339178   7.732  32.757  19.232 -0.1038  0.0451 -0.1250
67169CHOL    R439179   7.722  32.843  18.952 -0.1507  0.4128 -0.0105
67169CHOL    R539180   7.798  32.653  19.026 -0.2468  0.2655 -0.2838
67169CHOL    C139181   8.111  32.784  18.851 -0.2250  0.2881 -0.2288
67169CHOL    C239182   8.219  32.444  18.642  0.0830 -0.0753  0.1872
67170CHOL   ROH39183  20.964   5.480  10.801 -0.1517  0.0051 -0.0035
67170CHOL    R139184  21.140   5.341  10.974 -0.1114  0.1052  0.0366
67170CHOL    R239185  21.346   5.182  10.880 -0.1792 -0.0107  0.0795
67170CHOL    R339186  21.497   5.340  11.042 -0.0850  0.0875 -0.1040
67170CHOL    R439187  21.620   5.074  11.060 -0.2214  0.0443  0.1770
67170CHOL    R539188  21.554   5.198  11.227 -0.1436  0.2605  0.0464
67170CHOL    C139189  21.922   5.158  11.317 -0.1572  0.1682  0.0613
67170CHOL    C239190  22.285   5.089  11.353 -0.1415 -0.2152 -0.1055
67171CHOL   ROH39191  32.377  29.740   6.515 -0.1533  0.1234  0.0121
67171CHOL    R139192  32.412  29.532   6.704 -0.2155  0.1444  0.0464
67171CHOL    R239193  32.222  29.472   6.896 -0.3892  0.0047 -0.1673
67171CHOL    R339194  32.242  29.222   6.790 -0.0921  0.0193 -0.1521
67171CHOL    R439195  32.129  29.181   7.058 -0.2689 -0.0746 -0.2386
67171CHOL    R539196  32.306  29.084   6.976 -0.1190  0.0759 -0.0997
67171CHOL    C139197  32.093  28.778   7.054  0.0796 -0.1070 -0.2659
67171CHOL    C239198  32.144  28.356   7.068 -0.0857 -0.0185  0.0884
67172CHOL   ROH39199   0.973  22.018   8.989  0.0976 -0.2472  0.1121
67172CHOL    R139200   1.073  22.239   8.843  0.0365 -0.2148  0.1188
67172CHOL    R239201   1.327  22.340   8.881 -0.0190 -0.0948  0.1783
67172CHOL    R339202   1.348  22.301   8.612  0.0705 -0.1105  0.1875
67172CHOL    R439203   1.538  22.516   8.671 -0.0975  0.0317  0.2054
67172CHOL    R539204   1.379  22.521   8.522 -0.0663 -0.0996  0.1691
67172CHOL    C139205   1.680  22.582   8.297 -0.0592  0.0903  0.2301
67172CHOL    C239206   1.811  22.881   8.258 -0.0580  0.0424  0.0670
67173CHOL   ROH39207   3.298   5.067  15.079  0.0065  0.0749 -0.2690
67173CHOL    R139208   3.560   5.031  14.978  0.0228  0.0803 -0.2288
67173CHOL    R239209   3.664   4.782  14.919  0.0731  0.0738 -0.1177
67173CHOL    R339210   3.711   4.895  14.676  0.0762 -0.0158 -0.1590
67173CHOL    R439211   3.914   4.685  14.701  0.1822  0.1040 -0.0066
67173CHOL    R539212   3.950   4.895  14.656  0.0815  0.1019 -0.0964
67173CHOL    C139213   4.104   4.735  14.346  0.2485  0.0373  0.0195
67173CHOL    C239214   4.112   4.789  13.943  0.6119 -0.3960 -0.0010
67174CHOL   ROH39215  25.208   7.805  10.375  0.2551 -0.0422 -0.2618
67174CHOL    R139216  25.030   7.711  10.175  0.2241 -0.0474 -0.2317
67174CHOL    R239217  24.756   7.717  10.207  0.2363 -0.3182 -0.0681
67174CHOL    R339218  24.764   7.853   9.971 -0.0215 -0.1269  0.0312
67174CHOL    R439219  24.501   7.723   9.974  0.0217 -0.2132  0.1674
67174CHOL    R539220  24.651   7.710   9.816 -0.1160 -0.0391  0.0189
67174CHOL    C139221  24.359   7.855   9.617 -0.3450  0.0277  0.3981
67174CHOL    C239222  24.206   7.554   9.606 -0.2208  0.0278  0.3622
67175CHOL   ROH39223  34.376  12.910   5.835  0.0120  0.0055 -0.0074
67175CHOL    R139224  34.492  12.743   5.639 -0.1148 -0.0416 -0.0429
67175CHOL    R239225  34.547  12.830   5.383 -0.2380 -0.0895 -0.0866
67175CHOL    R339226  34.797  12.740   5.440 -0.2193 -0.1139 -0.2038
67175CHOL    R439227  34.820  12.858   5.173 -0.2392  0.2543 -0.0443
67175CHOL    R539228  34.880  12.657   5.231 -0.1968  0.1866 -0.3162
67175CHOL    C139229  35.213  12.791   5.104 -0.2227  0.4316 -0.1296
67175CHOL    C239230  35.369  12.540   5.105  0.0726  0.1693  0.1107
67176CHOL   ROH39231  33.750   1.842   8.444  0.0102 -0.0709 -0.0243
67176CHOL    R139232  33.699   1.844   8.722 -0.0652 -0.1133 -0.0375
67176CHOL    R239233  33.693   2.077   8.870  0.1367 -0.1549  0.0404
67176CHOL    R339234  33.448   1.985   8.944  0.0192  0.0744 -0.0609
67176CHOL    R439235  33.526   2.168   9.159  0.1293 -0.0509  0.0033
67176CHOL    R539236  33.463   1.961   9.182 -0.0854  0.0085 -0.0618
67176CHOL    C139237  33.200   2.135   9.397  0.0142  0.2249 -0.1137
67176CHOL    C239238  32.954   2.263   9.649  0.0383 -0.1618 -0.0575
67177CHOL   ROH39239  29.261  27.685   8.410  0.0899  0.1115  0.1602
67177CHOL    R139240  29.419  27.891   8.297  0.1247  0.0458  0.0897
67177CHOL    R239241  29.534  27.870   8.047  0.0346 -0.0167  0.0535
67177CHOL    R339242  29.403  28.105   8.003  0.1025  0.0255  0.0761
67177CHOL    R439243  29.618  28.101   7.803 -0.0767 -0.1539 -0.1173
67177CHOL    R539244  29.577  28.260   7.947  0.1253 -0.0765 -0.1431
67177CHOL    C139245  29.546  28.455   7.621 -0.0776 -0.1947 -0.1954
67177CHOL    C239246  29.426  28.527   7.190  0.0030 -0.1663 -0.2327
67178CHOL   ROH39247  17.450  31.257  16.528  0.0336  0.0219 -0.0868
67178CHOL    R139248  17.195  31.233  16.407  0.0126  0.1062 -0.0599
67178CHOL    R239249  17.148  31.066  16.192 -0.0611  0.1375 -0.0690
67178CHOL    R339250  16.952  30.968  16.353 -0.0707  0.1818 -0.0541
67178CHOL    R439251  16.836  30.964  16.083 -0.0610  0.1236 -0.0561
67178CHOL    R539252  16.749  31.057  16.261 -0.0639  0.1673 -0.0811
67178CHOL    C139253  16.470  30.812  16.171 -0.0704  0.1581 -0.0344
67178CHOL    C239254  16.300  30.983  15.899  0.0510 -0.0120  0.0119
67179CHOL   ROH39255  20.047  26.125  10.333 -0.0717  0.0933 -0.1993
67179CHOL    R139256  20.141  26.306  10.529 -0.1162 -0.0040 -0.0872
67179CHOL    R239257  20.102  26.266  10.799 -0.0872 -0.1920 -0.1103
67179CHOL    R339258  20.372  26.295  10.810 -0.0959 -0.1148 -0.1081
67179CHOL    R439259  20.278  26.377  11.075 -0.1375  0.0294 -0.1661
67179CHOL    R539260  20.406  26.492  10.941 -0.1574 -0.0219 -0.2300
67179CHOL    C139261  20.634  26.468  11.246 -0.1746  0.2304 -0.1963
67179CHOL    C239262  21.017  26.223  11.235 -0.0023 -0.2441  0.0319
67180CHOL   ROH39263   8.121  34.643  19.668 -0.1129  0.2938 -0.1415
67180CHOL    R139264   8.345  34.488  19.592 -0.0003  0.2739  0.2245
67180CHOL    R239265   8.449  34.492  19.336 -0.0859 -0.3531  0.1732
67180CHOL    R339266   8.680  34.553  19.465 -0.0957  0.2178 -0.0614
67180CHOL    R439267   8.764  34.393  19.234 -0.0399 -0.4372  0.3925
67180CHOL    R539268   8.815  34.356  19.443  0.0434  0.2369  0.5075
67180CHOL    C139269   9.165  34.393  19.296 -0.0222  0.0510  0.2995
67180CHOL    C239270   9.270  34.309  18.892 -0.5175 -0.3752  0.0716
67181CHOL   ROH39271  21.864  18.868  13.998 -0.1902 -0.1843  0.0020
67181CHOL    R139272  21.705  18.919  13.770 -0.1713 -0.0420  0.0202
67181CHOL    R239273  21.569  18.720  13.635 -0.0312  0.0162 -0.2115
67181CHOL    R339274  21.355  18.882  13.678 -0.1310 -0.1464 -0.0899
67181CHOL    R439275  21.275  18.712  13.453  0.0507  0.1066 -0.3481
67181CHOL    R539276  21.271  18.929  13.458 -0.0608  0.0986 -0.0647
67181CHOL    C139277  20.903  18.859  13.386  0.0046  0.0061 -0.3138
67181CHOL    C239278  20.511  18.896  13.268 -0.0904  0.0958  0.0986
67182CHOL   ROH39279   6.766   1.413  14.839 -0.0829 -0.0259  0.1834
67182CHOL    R139280   6.494   1.413  14.917 -0.1044 -0.1269  0.1109
67182CHOL    R239281   6.412   1.351  15.173 -0.1348  0.0186  0.1383
67182CHOL    R339282   6.289   1.592  15.159 -0.2728 -0.0639 -0.0775
67182CHOL    R439283   6.137   1.443  15.361 -0.0506  0.1083  0.2180
67182CHOL    R539284   6.056   1.541  15.184 -0.2285 -0.1561  0.1513
67182CHOL    C139285   5.861   1.724  15.456 -0.1311  0.0830  0.0619
67182CHOL    C239286   5.653   1.543  15.589 -0.0736 -0.0830 -0.3800
67183CHOL   ROH39287   3.025  11.445   6.963  0.0265 -0.1629  0.0629
67183CHOL    R139288   2.758  11.352   6.959  0.0171 -0.1360  0.0524
67183CHOL    R239289   2.589  11.374   7.177  0.0232 -0.1567  0.0600
67183CHOL    R339290   2.426  11.497   6.998  0.0325 -0.1098  0.0841
67183CHOL    R439291   2.266  11.478   7.242 -0.0261 -0.2909  0.0307
67183CHOL    R539292   2.209  11.408   7.044  0.0475 -0.2011 -0.0215
67183CHOL    C139293   1.925  11.654   7.112 -0.0461 -0.3252  0.0363
67183CHOL    C239294   1.571  11.666   7.119 -0.2325 -0.0256  0.1010
67184CHOL   ROH39295   5.386  20.074   8.586  0.0690 -0.2372 -0.0514
67184CHOL    R139296   5.122  20.138   8.663  0.0728 -0.1904 -0.0772
67184CHOL    R239297   4.970  19.974   8.825  0.1201 -0.0396  0.1216
67184CHOL    R339298   4.944  20.200   8.974  0.1143  0.1165 -0.1125
67184CHOL    R439299   4.776  20.001   9.110  0.0447  0.2781  0.0421
67184CHOL    R539300   4.714  20.200   9.043  0.0944  0.2224 -0.1755
67184CHOL    C139301   4.639  20.229   9.416 -0.0047  0.6098 -0.2240
67184CHOL    C239302   4.471  20.022   9.535 -0.1520  0.1890 -0.1502
67185CHOL   ROH39303  22.799  12.063  12.481  0.0002 -0.1412  0.1211
67185CHOL    R139304  22.623  11.934  12.301  0.0175 -0.1003  0.0746
67185CHOL    R239305  22.393  12.054  12.205  0.0018 -0.0970  0.1173
67185CHOL    R339306  22.500  11.992  11.963  0.0102  0.0040  0.0950
67185CHOL    R439307  22.217  12.046  11.908  0.0078  0.0051  0.1105
67185CHOL    R539308  22.328  11.867  11.853  0.0212  0.0346  0.0434
67185CHOL    C139309  22.215  11.983  11.508  0.0196  0.1596  0.0859
67185CHOL    C239310  21.791  12.090  11.510  0.1124 -0.0061  0.3643
67186CHOL   ROH39311  26.624  17.991   0.589  0.1043  0.3559 -0.0768
67186CHOL    R139312  26.709  17.938   0.853  0.0902  0.0912 -0.1239
67186CHOL    R239313  26.942  18.043   0.958  0.0537  0.0381  0.0146
67186CHOL    R339314  26.776  18.132   1.154  0.0094 -0.2153  0.0943
67186CHOL    R439315  27.043  18.136   1.275  0.0267 -0.0418  0.0466
67186CHOL    R539316  26.865  18.038   1.355  0.1299 -0.2430  0.0271
67186CHOL    C139317  26.945  18.274   1.644 -0.0307 -0.3259  0.1399
67186CHOL    C239318  27.138  18.217   1.865  0.0336 -0.1257  0.2371
67187CHOL   ROH39319  30.362  19.763   0.317 -0.2676  0.0410  0.0414
67187CHOL    R139320  30.309  19.942   0.530 -0.1173  0.0294  0.0886
67187CHOL    R239321  30.215  19.857   0.776  0.1742  0.0017  0.1920
67187CHOL    R339322  30.432  19.992   0.869  0.2182  0.0951 -0.0404
67187CHOL    R439323  30.214  20.065   1.051  0.3321  0.1678  0.0690
67187CHOL    R539324  30.343  20.203   0.942  0.2338  0.1247 -0.1050
67187CHOL    C139325  30.416  20.314   1.300  0.4651  0.3516 -0.2207
67187CHOL    C239326  30.437  20.298   1.726  0.0067 -0.0434  0.1073
67188CHOL   ROH39327  17.344  32.313  16.102  0.0554  0.1502 -0.0979
67188CHOL    R139328  17.091  32.439  16.123  0.0713  0.1602  0.0425
67188CHOL    R239329  16.991  32.605  15.927 -0.0127  0.1998  0.1182
67188CHOL    R339330  16.778  32.436  15.938 -0.0158  0.2086  0.1890
67188CHOL    R439331  16.690  32.656  15.765 -0.0050  0.1244  0.0791
67188CHOL    R539332  16.588  32.581  15.942 -0.0139  0.2125  0.1088
67188CHOL    C139333  16.315  32.528  15.681 -0.0027  0.0891  0.1227
67188CHOL    C239334  15.983  32.287  15.468  0.0653 -0.5621 -0.0941
67189CHOL   ROH39335   2.679  22.139  10.591 -0.0005 -0.2158 -0.0671
67189CHOL    R139336   2.870  22.349  10.584 -0.1186 -0.1085 -0.0831
67189CHOL    R239337   3.142  22.303  10.597 -0.0968  0.0543  0.0504
67189CHOL    R339338   3.145  22.449  10.368 -0.0871 -0.0477 -0.0149
67189CHOL    R439339   3.361  22.562  10.532 -0.1398  0.0717 -0.0259
67189CHOL    R539340   3.196  22.672  10.441 -0.1473 -0.0036 -0.1050
67189CHOL    C139341   3.491  22.850  10.279 -0.1558 -0.0140 -0.1318
67189CHOL    C239342   3.454  23.165  10.488  0.4691  0.1686  0.2837
67190CHOL   ROH39343   0.740  28.774  15.321 -0.2354 -0.0913 -0.1041
67190CHOL    R139344   0.927  28.722  15.114 -0.1731 -0.1888 -0.0242
67190CHOL    R239345   0.896  28.514  14.935 -0.3099 -0.0526 -0.1618
67190CHOL    R339346   0.922  28.712  14.750  0.0274  0.0258 -0.0331
67190CHOL    R439347   0.980  28.465  14.603 -0.1865  0.0441 -0.1451
67190CHOL    R539348   1.107  28.643  14.614  0.0192 -0.1125  0.0278
67190CHOL    C139349   1.053  28.623  14.237  0.2019  0.1738 -0.0146
67190CHOL    C239350   1.195  28.705  13.965  0.2259  0.2248 -0.0082
67191CHOL   ROH39351  23.094  20.301  12.075  0.1819  0.2799  0.0942
67191CHOL    R139352  22.824  20.340  12.000  0.1625  0.0305  0.0313
67191CHOL    R239353  22.734  20.575  11.886 -0.0435 -0.0241  0.0810
67191CHOL    R339354  22.643  20.408  11.692  0.1796 -0.0548  0.0021
67191CHOL    R439355  22.508  20.663  11.639  0.0803 -0.1194 -0.0669
67191CHOL    R539356  22.413  20.469  11.664  0.1654 -0.1736 -0.1513
67191CHOL    C139357  22.292  20.558  11.313  0.3621 -0.2038 -0.2274
67191CHOL    C239358  22.050  20.846  11.060 -0.2886 -0.2462  0.4368
67192CHOL   ROH39359  30.763  11.148   4.726  0.0388 -0.0756  0.1106
67192CHOL    R139360  30.806  11.154   4.446 -0.1965 -0.0149  0.0751
67192CHOL    R239361  31.030  11.045   4.327 -0.1450  0.2864 -0.1073
67192CHOL    R339362  30.846  10.910   4.179 -0.0863  0.0410  0.0397
67192CHOL    R439363  31.104  10.842   4.057 -0.0862  0.3862 -0.1665
67192CHOL    R539364  30.930  10.923   3.955 -0.2800  0.1553 -0.0282
67192CHOL    C139365  30.975  10.598   3.761  0.0030  0.2140 -0.0628
67192CHOL    C239366  31.159  10.610   3.443 -0.6075  0.1574  0.0319
67193CHOL   ROH39367  26.787  20.130   0.691  0.0537 -0.0625  0.0146
67193CHOL    R139368  26.932  20.126   0.934  0.1797 -0.0036 -0.0584
67193CHOL    R239369  27.171  20.261   0.967 -0.0154  0.3545 -0.0811
67193CHOL    R339370  27.042  20.370   1.181 -0.0895  0.0004  0.0574
67193CHOL    R439371  27.325  20.368   1.258 -0.0696  0.2472 -0.0128
67193CHOL    R539372  27.158  20.283   1.371  0.0526 -0.0526 -0.0546
67193CHOL    C139373  27.293  20.532   1.627 -0.1715 -0.1472  0.1569
67193CHOL    C239374  27.615  20.622   1.838  0.3530  0.1301 -0.1301
67194CHOL   ROH39375  26.956  30.426   8.709 -0.0635 -0.1698  0.2218
67194CHOL    R139376  26.701  30.367   8.602 -0.0423 -0.0849  0.1246
67194CHOL    R239377  26.648  30.373   8.331  0.0764 -0.1173  0.1006
67194CHOL    R339378  26.560  30.120   8.375 -0.0478 -0.0721  0.1141
67194CHOL    R439379  26.371  30.233   8.181  0.0168  0.0036  0.0961
67194CHOL    R539380  26.321  30.139   8.371 -0.0383  0.0416  0.0998
67194CHOL    C139381  26.126  29.913   8.134 -0.1342  0.1169  0.1062
67194CHOL    C239382  25.980  29.752   7.895 -0.1897 -0.1657 -0.1159
67195CHOL   ROH39383  26.860  33.169   6.598 -0.1732  0.0106 -0.0248
67195CHOL    R139384  26.884  33.133   6.877 -0.2850  0.2594  0.0190
67195CHOL    R239385  26.669  33.151   7.049 -0.4397 -0.0353 -0.1350
67195CHOL    R339386  26.751  32.904   7.127 -0.0063  0.1755  0.0914
67195CHOL    R439387  26.534  32.973   7.313 -0.6861 -0.3685 -0.4811
67195CHOL    R539388  26.736  32.910   7.366 -0.6552  0.1541  0.0573
67195CHOL    C139389  26.533  32.637   7.540 -0.4220 -0.3644 -0.4700
67195CHOL    C239390  26.222  32.443   7.666 -0.0701 -0.1519  0.0554
67196CHOL   ROH39391  20.448  22.937  16.151  0.2659 -0.0828  0.0309
67196CHOL    R139392  20.257  22.728  16.132  0.2441 -0.0614  0.0116
67196CHOL    R239393  19.985  22.777  16.124  0.2422 -0.0407  0.1827
67196CHOL    R339394  19.998  22.627  15.897  0.1146  0.0892  0.0889
67196CHOL    R439395  19.716  22.616  15.978  0.1495  0.0917  0.2069
67196CHOL    R539396  19.847  22.446  15.937  0.1009  0.0931  0.0493
67196CHOL    C139397  19.572  22.382  15.680 -0.0245  0.2913  0.1327
67196CHOL    C239398  19.280  22.659  15.796  0.3001  0.1324  0.2333
67197CHOL   ROH39399  28.538  22.145   3.922 -0.0655 -0.1098  0.0486
67197CHOL    R139400  28.598  22.148   3.645 -0.0397 -0.0561  0.0549
67197CHOL    R239401  28.444  22.015   3.458 -0.0556  0.0286  0.0089
67197CHOL    R339402  28.433  22.260   3.340  0.0159  0.0600  0.0669
67197CHOL    R439403  28.401  22.069   3.119 -0.0694  0.1194  0.0249
67197CHOL    R539404  28.548  22.230   3.132 -0.0124  0.0683  0.0487
67197CHOL    C139405  28.366  22.331   2.811 -0.0101  0.2019  0.0887
67197CHOL    C239406  28.065  22.246   2.535  0.2550 -0.2028 -0.0422
67198CHOL   ROH39407  23.673   4.009  12.011  0.2398 -0.1046 -0.3511
67198CHOL    R139408  23.472   4.194  11.935  0.2615 -0.0137 -0.1903
67198CHOL    R239409  23.484   4.338  11.699  0.1619  0.0169 -0.1768
67198CHOL    R339410  23.238   4.231  11.659  0.0922  0.1208 -0.0296
67198CHOL    R439411  23.210   4.512  11.582  0.2014  0.1013 -0.1435
67198CHOL    R539412  23.086   4.405  11.725  0.2048  0.2258 -0.0450
67198CHOL    C139413  22.819   4.514  11.475  0.1590  0.2479  0.0141
67198CHOL    C239414  22.467   4.572  11.257  0.0213 -0.1005  0.1711
67199CHOL   ROH39415  15.742  31.060  19.057  0.1484 -0.0486 -0.0563
67199CHOL    R139416  15.739  30.838  18.881  0.1082 -0.1019  0.0114
67199CHOL    R239417  15.520  30.670  18.858  0.0549 -0.0350  0.0186
67199CHOL    R339418  15.542  30.732  18.594  0.1301 -0.1230  0.0042
67199CHOL    R439419  15.444  30.456  18.598  0.2224 -0.1539  0.0669
67199CHOL    R539420  15.619  30.529  18.492  0.2355 -0.1333  0.1049
67199CHOL    C139421  15.420  30.388  18.199  0.3904 -0.3060  0.0821
67199CHOL    C239422  15.281  30.369  17.874 -0.1459 -0.2075 -0.0499
67200CHOL   ROH39423  17.217  16.064  14.307  0.1299 -0.0406  0.0650
67200CHOL    R139424  17.375  15.899  14.474  0.0614 -0.0818  0.0894
67200CHOL    R239425  17.533  16.002  14.677  0.1612 -0.1103  0.0275
67200CHOL    R339426  17.394  15.825  14.830  0.0815  0.0232  0.1104
67200CHOL    R439427  17.647  15.864  14.972  0.0351  0.0930  0.1720
67200CHOL    R539428  17.561  15.673  14.911  0.0307  0.0597  0.2834
67200CHOL    C139429  17.584  15.618  15.288 -0.1129  0.3367  0.3342
67200CHOL    C239430  17.424  15.385  15.458  0.1620 -0.1016 -0.1258
67201CHOL   ROH39431   4.356  12.985  14.309  0.0844  0.1477  0.0856
67201CHOL    R139432   4.502  13.125  14.111  0.0851  0.0993  0.0516
67201CHOL    R239433   4.750  13.042  14.023 -0.0050 -0.0366 -0.0764
67201CHOL    R339434   4.632  13.055  13.779 -0.1053  0.0901 -0.0215
67201CHOL    R439435   4.920  13.051  13.722 -0.1311 -0.0103 -0.1471
67201CHOL    R539436   4.776  13.199  13.651 -0.1016  0.0719 -0.0375
67201CHOL    C139437   4.908  13.069  13.318 -0.2988  0.1243 -0.1367
67201CHOL    C239438   4.994  13.342  13.038 -0.0222 -0.0139  0.0162
67202CHOL   ROH39439  31.723  23.651   5.002 -0.0031 -0.0629 -0.0696
67202CHOL    R139440  31.880  23.666   4.767  0.0736 -0.0351 -0.0169
67202CHOL    R239441  31.802  23.810   4.545  0.0861 -0.1131 -0.0709
67202CHOL    R339442  32.046  23.927   4.575  0.0222  0.0045 -0.0078
67202CHOL    R439443  31.968  23.988   4.299  0.0967 -0.0988 -0.0536
67202CHOL    R539444  32.154  23.894   4.364  0.1152  0.0010  0.0395
67202CHOL    C139445  32.292  24.201   4.185  0.0427  0.0206  0.0158
67202CHOL    C239446  32.139  24.246   3.825  0.0170 -0.2174  0.0143
67203CHOL   ROH39447  34.156  31.811  12.387 -0.3171 -0.0355 -0.0675
67203CHOL    R139448  34.211  31.847  12.111 -0.2174 -0.0004 -0.0436
67203CHOL    R239449  34.442  31.755  11.992 -0.1674  0.0260  0.0313
67203CHOL    R339450  34.269  31.632  11.823 -0.0987  0.0363 -0.0473
67203CHOL    R439451  34.524  31.633  11.679 -0.0610  0.1249  0.0203
67203CHOL    R539452  34.333  31.709  11.605 -0.0572  0.1064 -0.0102
67203CHOL    C139453  34.409  31.447  11.338  0.0647  0.1921 -0.0598
67203CHOL    C239454  34.285  31.345  11.055  0.0921  0.1178 -0.0218
67204CHOL   ROH39455  16.502  18.929  14.788  0.0700 -0.3993 -0.0701
67204CHOL    R139456  16.713  18.976  14.971  0.1089 -0.3399 -0.1304
67204CHOL    R239457  16.672  19.087  15.220  0.1886 -0.0771 -0.2335
67204CHOL    R339458  16.802  18.864  15.305  0.0724 -0.0677 -0.0283
67204CHOL    R439459  16.862  19.067  15.508  0.1934  0.0959 -0.2238
67204CHOL    R539460  17.007  18.947  15.399  0.1226 -0.0881 -0.1184
67204CHOL    C139461  17.094  18.847  15.756  0.0866  0.2055 -0.0258
67204CHOL    C239462  17.133  18.633  16.110 -0.2655  0.0953  0.0869
67205CHOL   ROH39463   3.815  21.595   6.376 -0.0972  0.0539  0.0817
67205CHOL    R139464   3.633  21.487   6.563 -0.0450  0.0168  0.1106
67205CHOL    R239465   3.370  21.431   6.500 -0.0521 -0.0034  0.1625
67205CHOL    R339466   3.434  21.184   6.594 -0.0078 -0.0068  0.1248
67205CHOL    R439467   3.144  21.206   6.635 -0.0257 -0.0940  0.0564
67205CHOL    R539468   3.293  21.154   6.786 -0.0489 -0.0860  0.0834
67205CHOL    C139469   3.073  20.843   6.801  0.0313 -0.1499 -0.0407
67205CHOL    C239470   2.910  20.505   7.036  0.0235 -0.1575  0.0418
67206CHOL   ROH39471  14.849   9.098  17.805 -0.1276  0.2867 -0.0909
67206CHOL    R139472  14.794   9.099  17.528 -0.0452  0.2327 -0.1076
67206CHOL    R239473  14.768   9.332  17.382 -0.0230  0.2046 -0.1566
67206CHOL    R339474  14.959   9.218  17.226  0.0338  0.1943 -0.0794
67206CHOL    R439475  14.819   9.404  17.048 -0.1272 -0.0702 -0.2331
67206CHOL    R539476  14.854   9.191  17.012  0.0183 -0.0802 -0.0399
67206CHOL    C139477  15.028   9.339  16.707 -0.1345 -0.2400 -0.2053
67206CHOL    C239478  15.025   9.670  16.456 -0.0952  0.3437 -0.1901
67207CHOL   ROH39479  19.758   4.820  11.996  0.3543  0.3468 -0.0643
67207CHOL    R139480  19.861   4.690  12.225  0.0826  0.3597  0.0670
67207CHOL    R239481  20.102   4.555  12.223 -0.0642  0.0952  0.2776
67207CHOL    R339482  20.158   4.718  12.434 -0.0037  0.1496  0.2204
67207CHOL    R439483  20.291   4.464  12.498  0.0381  0.1703  0.2327
67207CHOL    R539484  20.150   4.573  12.624  0.0719  0.1909  0.2572
67207CHOL    C139485  20.453   4.564  12.856  0.1544  0.2654  0.1531
67207CHOL    C239486  20.623   4.161  12.826  0.0712 -0.0574 -0.1662
67208CHOL   ROH39487  31.453  17.485   0.699  0.1673  0.2592 -0.0736
67208CHOL    R139488  31.451  17.547   0.975  0.0326  0.2335 -0.0687
67208CHOL    R239489  31.315  17.764   1.078 -0.1529  0.1288 -0.0940
67208CHOL    R339490  31.201  17.577   1.238 -0.0751  0.0350 -0.1475
67208CHOL    R439491  31.280  17.792   1.421 -0.1032 -0.0128 -0.0768
67208CHOL    R539492  31.332  17.581   1.438 -0.0423 -0.0067 -0.1673
67208CHOL    C139493  31.151  17.632   1.771 -0.0011 -0.1830 -0.1171
67208CHOL    C239494  31.210  17.443   2.112 -0.0202  0.1149 -0.2338
67209CHOL   ROH39495  11.188   5.424  15.173  0.1218  0.0961  0.1577
67209CHOL    R139496  11.308   5.407  15.429  0.0642 -0.1622  0.1688
67209CHOL    R239497  11.201   5.530  15.652  0.2395 -0.0376  0.1854
67209CHOL    R339498  11.214   5.280  15.757 -0.1860 -0.0868  0.1272
67209CHOL    R439499  11.242   5.459  15.988  0.3816 -0.1836  0.1372
67209CHOL    R539500  11.377   5.297  15.932  0.0022 -0.4544 -0.0091
67209CHOL    C139501  11.278   5.182  16.282  0.0649 -0.3150  0.0548
67209CHOL    C239502  11.236   4.847  16.494  0.0148 -0.0393 -0.1711
67210CHOL   ROH39503  24.401  24.763   9.580  0.1192  0.0055  0.1635
67210CHOL    R139504  24.281  24.643   9.353  0.1244  0.0435  0.1411
67210CHOL    R239505  24.011  24.588   9.339  0.1201  0.0697  0.1158
67210CHOL    R339506  24.026  24.733   9.110  0.1487  0.0959  0.1341
67210CHOL    R439507  23.766  24.598   9.096  0.1778  0.0473  0.0563
67210CHOL    R539508  23.923  24.594   8.945  0.2163  0.0927  0.0945
67210CHOL    C139509  23.637  24.740   8.739  0.2389  0.0587  0.0386
67210CHOL    C239510  23.427  24.860   8.349  0.2619  0.1239  0.2785
67211CHOL   ROH39511   0.094  27.504  14.118 -0.0909  0.2973 -0.0123
67211CHOL    R139512   0.331  27.492  13.963 -0.0573  0.1499  0.0490
67211CHOL    R239513   0.502  27.707  13.937  0.0356  0.0730  0.0176
67211CHOL    R339514   0.688  27.528  14.023 -0.0575  0.0272  0.1240
67211CHOL    R439515   0.844  27.743  13.899  0.0577 -0.0971  0.0517
67211CHOL    R539516   0.857  27.531  13.852 -0.0307 -0.1238  0.1476
67211CHOL    C139517   1.217  27.596  13.958 -0.0168 -0.2392  0.1715
67211CHOL    C239518   1.354  27.792  13.704  0.1976 -0.1755 -0.1102
67212CHOL   ROH39519   5.272  10.997  10.418 -0.0937  0.1689 -0.0952
67212CHOL    R139520   5.020  10.972  10.546 -0.0292  0.1433  0.0274
67212CHOL    R239521   4.946  10.746  10.687 -0.0095  0.0609 -0.0964
67212CHOL    R339522   4.899  10.925  10.886  0.1469 -0.0722  0.0619
67212CHOL    R439523   4.697  10.716  10.925 -0.1833  0.1757 -0.2618
67212CHOL    R539524   4.661  10.930  10.906  0.1390  0.2532 -0.0641
67212CHOL    C139525   4.509  10.867  11.251 -0.1378  0.1175 -0.2094
67212CHOL    C239526   4.532  11.084  11.634  0.1340  0.1936  0.1915
67213CHOL   ROH39527  21.911  27.488  12.204  0.1110  0.0464 -0.0215
67213CHOL    R139528  21.734  27.289  12.107  0.1196  0.0143  0.0278
67213CHOL    R239529  21.490  27.237  12.225  0.0816  0.0940 -0.0125
67213CHOL    R339530  21.396  27.279  11.974  0.1553 -0.0201 -0.0592
67213CHOL    R439531  21.188  27.119  12.105  0.0187  0.2232  0.0195
67213CHOL    R539532  21.286  27.074  11.916  0.0191  0.0166  0.0692
67213CHOL    C139533  20.924  27.091  11.799  0.0509  0.1913 -0.0061
67213CHOL    C239534  20.785  27.131  11.302  0.3730  0.2704  0.0127
67214CHOL   ROH39535  26.659  25.824   4.889  0.0296 -0.0388  0.1622
67214CHOL    R139536  26.669  25.569   4.767 -0.0858  0.0048  0.0602
67214CHOL    R239537  26.898  25.414   4.763 -0.0671  0.0360 -0.2748
67214CHOL    R339538  26.734  25.227   4.873  0.0916 -0.0239 -0.1383
67214CHOL    R439539  26.866  25.089   4.650 -0.3077  0.1263 -0.4705
67214CHOL    R539540  26.651  25.103   4.686 -0.2474  0.1318 -0.0933
67214CHOL    C139541  26.694  24.724   4.687 -0.2989  0.1233 -0.4563
67214CHOL    C239542  26.639  24.490   4.359 -0.3029  0.1025 -0.0388
67215CHOL   ROH39543  15.125   9.504  17.777 -0.1976 -0.0538 -0.2401
67215CHOL    R139544  15.163   9.456  17.500  0.0245 -0.0421 -0.2132
67215CHOL    R239545  15.112   9.648  17.308 -0.2430 -0.1733 -0.2773
67215CHOL    R339546  15.368   9.595  17.233 -0.1034  0.2885 -0.1413
67215CHOL    R439547  15.217   9.604  16.982 -0.0605 -0.3528 -0.1949
67215CHOL    R539548  15.346   9.441  17.051  0.2774  0.0091  0.0418
67215CHOL    C139549  15.518   9.528  16.722  0.1771 -0.0239 -0.0193
67215CHOL    C239550  15.546   9.645  16.359  0.1333 -0.0116 -0.2433
67216CHOL   ROH39551  12.961  21.507  21.180  0.0996 -0.0806  0.0258
67216CHOL    R139552  12.860  21.434  20.926  0.1096  0.0107 -0.0040
67216CHOL    R239553  12.593  21.460  20.858  0.0907 -0.0804  0.0372
67216CHOL    R339554  12.693  21.603  20.649  0.0013  0.0827  0.1043
67216CHOL    R439555  12.437  21.497  20.552  0.0650 -0.0288  0.0565
67216CHOL    R539556  12.632  21.475  20.456  0.0782  0.1377  0.0431
67216CHOL    C139557  12.440  21.652  20.177 -0.0340  0.1545  0.1306
67216CHOL    C239558  12.148  21.769  19.813 -0.1864  0.0289 -0.0737
67217CHOL   ROH39559   2.174  21.778   9.649  0.0378  0.1139  0.2026
67217CHOL    R139560   2.391  21.960   9.634  0.1297  0.0015  0.1539
67217CHOL    R239561   2.608  21.919   9.467  0.0137 -0.0505  0.0131
67217CHOL    R339562   2.544  22.167   9.377  0.0974  0.0218  0.1513
67217CHOL    R439563   2.836  22.150   9.348  0.1077 -0.0088  0.2706
67217CHOL    R539564   2.725  22.306   9.452  0.0877 -0.0597  0.3257
67217CHOL    C139565   2.909  22.517   9.193  0.2410  0.0836  0.5500
67217CHOL    C239566   3.274  22.459   9.302 -0.1746 -0.0377  0.1584
67218CHOL   ROH39567  31.454  33.361   7.142  0.5456 -0.0277  0.1956
67218CHOL    R139568  31.412  33.427   7.414  0.2604  0.1549  0.1091
67218CHOL    R239569  31.207  33.593   7.496  0.0011 -0.0125 -0.1882
67218CHOL    R339570  31.146  33.383   7.658  0.1232  0.0515 -0.0570
67218CHOL    R439571  30.959  33.595   7.737  0.1783  0.0828 -0.0045
67218CHOL    R539572  31.093  33.484   7.869  0.2785  0.1381 -0.0579
67218CHOL    C139573  30.758  33.399   8.030  0.3966  0.1994  0.2257
67218CHOL    C239574  30.591  33.625   8.163 -0.1926 -0.1075  0.1310
67219CHOL   ROH39575  22.034  22.256  13.840  0.2679  0.3760  0.1710
67219CHOL    R139576  21.849  22.396  14.002 -0.0528 -0.0946  0.2179
67219CHOL    R239577  21.696  22.606  13.907 -0.0278  0.0340  0.4650
67219CHOL    R339578  21.490  22.456  14.002 -0.0904 -0.3010 -0.1749
67219CHOL    R439579  21.363  22.693  13.884  0.0015  0.2264  0.7317
67219CHOL    R539580  21.334  22.617  14.087 -0.0647 -0.5835  0.4391
67219CHOL    C139581  20.975  22.603  13.959 -0.0396  0.0241  0.2862
67219CHOL    C239582  20.550  22.645  13.924 -0.0489 -0.0138 -0.4078
67220CHOL   ROH39583   3.627  26.032  11.584  0.0386 -0.0516 -0.0672
67220CHOL    R139584   3.442  25.910  11.761  0.0789  0.0092  0.0169
67220CHOL    R239585   3.225  26.044  11.865  0.0082 -0.0033 -0.1146
67220CHOL    R339586   3.086  25.835  11.761  0.1128 -0.1544  0.0450
67220CHOL    R439587   2.941  25.906  12.006  0.0096  0.0364 -0.0713
67220CHOL    R539588   3.017  25.708  11.952  0.0944  0.0086  0.1468
67220CHOL    C139589   2.646  25.629  11.990  0.1088 -0.0826  0.1035
67220CHOL    C239590   2.285  25.480  12.196 -0.0335  0.0532 -0.0529
67221CHOL   ROH39591   8.962   7.654  14.675 -0.0632 -0.2595 -0.1429
67221CHOL    R139592   8.886   7.504  14.902 -0.0222 -0.1118 -0.0304
67221CHOL    R239593   8.967   7.569  15.158  0.0153  0.0614 -0.0860
67221CHOL    R339594   8.700   7.564  15.209  0.0233  0.0851 -0.0411
67221CHOL    R439595   8.826   7.500  15.466  0.0621  0.1509 -0.0441
67221CHOL    R539596   8.673   7.383  15.365  0.0415  0.1286  0.0128
67221CHOL    C139597   8.494   7.456  15.694  0.0970  0.2252  0.0223
67221CHOL    C239598   8.263   7.674  15.869  0.0346  0.3327 -0.3286
67222CHOL   ROH39599  35.236  27.292   7.271 -0.2555  0.1158  0.0961
67222CHOL    R139600  35.017  27.240   7.098 -0.2869  0.3260  0.0723
67222CHOL    R239601  34.886  26.997   7.092 -0.2866  0.3323 -0.2000
67222CHOL    R339602  34.666  27.152   7.134 -0.2808  0.2810  0.0284
67222CHOL    R439603  34.563  26.878   7.122 -0.2567  0.2748 -0.0979
67222CHOL    R539604  34.495  27.048   7.004 -0.3433  0.3483  0.0537
67222CHOL    C139605  34.169  26.953   7.178 -0.2336  0.1933  0.1758
67222CHOL    C239606  34.081  26.645   7.357  0.1678 -0.2298 -0.1096
67223CHOL   ROH39607   4.629  20.274   6.744  0.2126  0.1327  0.1441
67223CHOL    R139608   4.435  20.399   6.907  0.0394  0.1472 -0.0702
67223CHOL    R239609   4.163  20.379   6.859  0.0782 -0.0746 -0.2013
67223CHOL    R339610   4.157  20.294   7.116 -0.0045  0.1450 -0.1296
67223CHOL    R439611   3.890  20.406   7.068 -0.0516 -0.0660 -0.3706
67223CHOL    R539612   4.026  20.459   7.230 -0.1716  0.1616 -0.3426
67223CHOL    C139613   3.724  20.341   7.432 -0.2048  0.1447 -0.4019
67223CHOL    C239614   3.483  20.050   7.639  0.2711  0.1258 -0.2459
67224CHOL   ROH39615   9.711  17.443  14.406  0.0495 -0.1473  0.0738
67224CHOL    R139616   9.489  17.466  14.580  0.0017 -0.0843  0.0051
67224CHOL    R239617   9.511  17.439  14.854 -0.0881 -0.0774  0.0137
67224CHOL    R339618   9.389  17.682  14.855 -0.0284 -0.0467 -0.0352
67224CHOL    R439619   9.417  17.611  15.138 -0.0024  0.0252 -0.0198
67224CHOL    R539620   9.233  17.669  15.037 -0.0039  0.0418 -0.0079
67224CHOL    C139621   9.248  17.940  15.305  0.1035  0.1134 -0.0854
67224CHOL    C239622   9.065  17.964  15.582  0.0178 -0.0359 -0.2940
67225CHOL   ROH39623  26.313  10.025   2.774 -0.1700 -0.1797  0.0881
67225CHOL    R139624  26.455  10.167   2.973 -0.1261 -0.3403  0.1716
67225CHOL    R239625  26.425  10.439   3.013  0.3516 -0.2532 -0.0245
67225CHOL    R339626  26.373  10.363   3.269 -0.0967 -0.0078 -0.0373
67225CHOL    R439627  26.428  10.650   3.287  0.2094 -0.0557 -0.1737
67225CHOL    R539628  26.525  10.492   3.401 -0.1324 -0.0854  0.0811
67225CHOL    C139629  26.382  10.702   3.686 -0.2951  0.2898 -0.2725
67225CHOL    C239630  26.433  11.117   3.532 -0.1461  0.2796  0.0339
67226CHOL   ROH39631  24.263   7.142  12.101  0.0067 -0.1810 -0.1854
67226CHOL    R139632  24.005   7.188  11.994 -0.0113 -0.0976 -0.1062
67226CHOL    R239633  23.823   7.357  12.114  0.0869 -0.0246 -0.0600
67226CHOL    R339634  23.818   7.474  11.868  0.0490 -0.0404 -0.0668
67226CHOL    R439635  23.538   7.469  11.953  0.0477 -0.1465 -0.0751
67226CHOL    R539636  23.618   7.390  11.766  0.0849 -0.1259 -0.0685
67226CHOL    C139637  23.367   7.643  11.629 -0.0109 -0.2324 -0.0910
67226CHOL    C239638  23.341   7.790  11.289 -0.2025 -0.2439  0.2995
67227CHOL   ROH39639   9.040  34.979  16.856  0.1583 -0.0339 -0.0825
67227CHOL    R139640   9.012  35.150  17.079  0.0407 -0.0618 -0.0769
67227CHOL    R239641   8.823  35.108  17.276 -0.0489 -0.0970 -0.1698
67227CHOL    R339642   9.039  35.120  17.441 -0.1268 -0.0997 -0.0670
67227CHOL    R439643   8.818  35.232  17.599 -0.1950 -0.0805 -0.1778
67227CHOL    R539644   9.011  35.326  17.560 -0.1719 -0.0931 -0.0908
67227CHOL    C139645   9.018  35.316  17.941 -0.3531 -0.0730 -0.0866
67227CHOL    C239646   9.146  35.131  18.236  0.2019  0.0594 -0.3420
67228CHOL   ROH39647  15.423  16.634  14.352  0.0347  0.0578  0.1048
67228CHOL    R139648  15.385  16.563  14.623 -0.0208  0.0309  0.0898
67228CHOL    R239649  15.443  16.311  14.720  0.0492  0.0490  0.0962
67228CHOL    R339650  15.594  16.449  14.899 -0.0604  0.1009  0.1493
67228CHOL    R439651  15.551  16.188  15.025 -0.0340  0.0940  0.1438
67228CHOL    R539652  15.509  16.383  15.113 -0.1249  0.0864  0.1192
67228CHOL    C139653  15.756  16.246  15.370 -0.1852  0.1690  0.2217
67228CHOL    C239654  15.694  16.255  15.779 -0.2765  0.1237  0.0347
67229CHOL   ROH39655  14.032  28.303  17.655  0.2002 -0.1409  0.0311
67229CHOL    R139656  14.156  28.523  17.783  0.1203 -0.0887  0.0198
67229CHOL    R239657  14.265  28.506  18.036  0.0615 -0.0158  0.0506
67229CHOL    R339658  14.487  28.601  17.912  0.0714  0.0083  0.0866
67229CHOL    R439659  14.527  28.666  18.195 -0.0372  0.1219  0.0748
67229CHOL    R539660  14.537  28.805  18.027 -0.0274  0.0650  0.0288
67229CHOL    C139661  14.888  28.849  18.171 -0.0857  0.2250  0.1224
67229CHOL    C239662  14.968  29.178  18.274 -0.1600 -0.2784 -0.0822
67230CHOL   ROH39663  16.280  20.631  15.384  0.2537 -0.2150 -0.1190
67230CHOL    R139664  16.311  20.557  15.656  0.1110 -0.0072 -0.0443
67230CHOL    R239665  16.532  20.418  15.747 -0.0296 -0.1116  0.1406
67230CHOL    R339666  16.549  20.625  15.923  0.0882  0.0270 -0.0331
67230CHOL    R439667  16.778  20.454  15.987 -0.0990 -0.1333  0.2155
67230CHOL    R539668  16.625  20.525  16.126 -0.0940  0.1316  0.0891
67230CHOL    C139669  16.937  20.669  16.291 -0.0285 -0.0160  0.0961
67230CHOL    C239670  16.982  20.401  16.492 -0.1211  0.4108 -0.0920
67231CHOL   ROH39671   9.116   0.851  18.939  0.2115 -0.1456 -0.0220
67231CHOL    R139672   9.341   0.841  18.768  0.1740 -0.1112 -0.0738
67231CHOL    R239673   9.350   0.681  18.543  0.1199 -0.0568 -0.1153
67231CHOL    R339674   9.412   0.915  18.418  0.1000 -0.0281 -0.0712
67231CHOL    R439675   9.471   0.707  18.220 -0.1060  0.0305 -0.1936
67231CHOL    R539676   9.606   0.863  18.288 -0.0093 -0.0368 -0.2321
67231CHOL    C139677   9.599   0.942  17.915 -0.2564  0.1082 -0.1978
67231CHOL    C239678   9.525   1.075  17.538  0.0876  0.0752  0.0742
67232CHOL   ROH39679  22.890  23.146  12.134  0.0777 -0.2400 -0.3804
67232CHOL    R139680  22.619  23.161  12.212  0.1703 -0.1404 -0.0692
67232CHOL    R239681  22.411  23.114  12.035 -0.0508  0.0699  0.1342
67232CHOL    R339682  22.334  22.934  12.224  0.0622  0.0029  0.1167
67232CHOL    R439683  22.120  22.928  12.024  0.0877 -0.1465  0.0893
67232CHOL    R539684  22.097  22.960  12.238  0.0391 -0.1740  0.0896
67232CHOL    C139685  21.879  22.650  12.194  0.2749 -0.3351  0.0467
67232CHOL    C239686  21.540  22.584  12.353  0.2335  0.0279 -0.1889
67233CHOL   ROH39687  20.312  18.894   9.839  0.1275  0.4158  0.1796
67233CHOL    R139688  20.484  18.858  10.062  0.1537  0.4154  0.1593
67233CHOL    R239689  20.744  18.768  10.036  0.0922  0.2418  0.1440
67233CHOL    R339690  20.801  18.994  10.176  0.2644  0.2730  0.0249
67233CHOL    R439691  21.008  18.802  10.255  0.0664  0.1228  0.1944
67233CHOL    R539692  20.877  18.914  10.389  0.1326  0.3260  0.0937
67233CHOL    C139693  21.217  19.033  10.515  0.2128  0.0828  0.1117
67233CHOL    C239694  21.354  19.302  10.793 -0.0238  0.2420 -0.0211
67234CHOL   ROH39695   8.636  14.259  13.569 -0.0172 -0.0180 -0.1647
67234CHOL    R139696   8.454  14.376  13.752 -0.1557 -0.0986 -0.2502
67234CHOL    R239697   8.240  14.236  13.859  0.1060 -0.3279 -0.0188
67234CHOL    R339698   8.349  14.316  14.095  0.0505  0.1377 -0.1446
67234CHOL    R439699   8.071  14.250  14.160  0.1251 -0.0576 -0.0191
67234CHOL    R539700   8.173  14.437  14.204 -0.0644  0.1173 -0.3070
67234CHOL    C139701   8.074  14.333  14.557  0.0842  0.5368 -0.1376
67234CHOL    C239702   7.865  14.311  14.781 -0.1532 -0.1826 -0.0151
67235CHOL   ROH39703  12.982  34.001  19.872  0.0813  0.2573 -0.0183
67235CHOL    R139704  13.015  33.913  19.605  0.0666  0.2769 -0.0267
67235CHOL    R239705  12.867  34.015  19.395 -0.0560  0.1785  0.0125
67235CHOL    R339706  13.111  34.064  19.287 -0.1165  0.3368 -0.0538
67235CHOL    R439707  12.990  33.864  19.110  0.0622  0.0679  0.1207
67235CHOL    R539708  13.185  33.850  19.207  0.0889  0.3437  0.1120
67235CHOL    C139709  13.292  33.822  18.842  0.0742  0.1537  0.1213
67235CHOL    C239710  13.271  33.943  18.535  0.1567  0.0251 -0.0876
67236CHOL   ROH39711  20.292   6.686  15.728  0.0695  0.0843 -0.0720
67236CHOL    R139712  20.058   6.586  15.604  0.0334  0.1471 -0.0552
67236CHOL    R239713  19.827   6.736  15.580  0.0547  0.1911  0.0080
67236CHOL    R339714  19.853   6.674  15.317  0.0049  0.2362 -0.0074
67236CHOL    R439715  19.568   6.736  15.351 -0.0269  0.0266  0.0997
67236CHOL    R539716  19.652   6.555  15.264  0.0727  0.0965  0.0518
67236CHOL    C139717  19.441   6.678  14.971 -0.1212 -0.0269  0.1384
67236CHOL    C239718  19.222   6.580  14.677 -0.1507 -0.2390  0.0298
67237CHOL   ROH39719  10.772   2.976  15.211 -0.0561  0.1080 -0.0913
67237CHOL    R139720  10.923   2.940  15.448 -0.0201 -0.0677 -0.1396
67237CHOL    R239721  11.145   3.093  15.508  0.0465 -0.1759 -0.1045
67237CHOL    R339722  11.010   3.141  15.739  0.1095 -0.2481 -0.0530
67237CHOL    R439723  11.293   3.163  15.812  0.1238  0.0043 -0.1831
67237CHOL    R539724  11.144   3.037  15.908  0.2730 -0.1045 -0.0935
67237CHOL    C139725  11.253   3.249  16.206  0.2276  0.0415 -0.1809
67237CHOL    C239726  11.459   3.674  16.087 -0.0811 -0.1755 -0.2622
67238CHOL   ROH39727   0.837  16.479   7.192  0.1861 -0.1066 -0.1968
67238CHOL    R139728   1.107  16.398   7.214  0.2343  0.0750 -0.1095
67238CHOL    R239729   1.264  16.339   6.994  0.3106  0.0717 -0.0539
67238CHOL    R339730   1.431  16.523   7.105  0.1755  0.2301 -0.1084
67238CHOL    R439731   1.606  16.346   6.949  0.3320  0.1818  0.1187
67238CHOL    R539732   1.628  16.397   7.160  0.2012  0.3557  0.0916
67238CHOL    C139733   1.963  16.522   7.027  0.2176  0.3946  0.1680
67238CHOL    C239734   2.053  16.133   6.973 -0.0287 -0.1109  0.1944
67239CHOL   ROH39735  32.947  29.800  11.626 -0.1002 -0.0973 -0.1304
67239CHOL    R139736  33.075  29.895  11.392 -0.1034 -0.1657 -0.1601
67239CHOL    R239737  33.341  29.966  11.387 -0.1564  0.0397 -0.1285
67239CHOL    R339738  33.351  29.789  11.180  0.0449 -0.1032  0.0004
67239CHOL    R439739  33.582  29.965  11.138 -0.0031 -0.0351  0.0182
67239CHOL    R539740  33.425  29.920  10.994  0.1038 -0.2033 -0.0472
67239CHOL    C139741  33.730  29.800  10.799  0.2748 -0.2127  0.2248
67239CHOL    C239742  34.070  29.725  10.551 -0.0239 -0.0588 -0.2113
67240CHOL   ROH39743  33.901  23.772   7.276 -0.0387 -0.0211 -0.0349
67240CHOL    R139744  34.089  23.972   7.206  0.0465 -0.1438 -0.1584
67240CHOL    R239745  34.266  23.942   6.996 -0.1696 -0.2240 -0.3330
67240CHOL    R339746  34.158  24.178   6.914 -0.0719 -0.1223 -0.1712
67240CHOL    R439747  34.420  24.166   6.782 -0.0389 -0.0931 -0.1039
67240CHOL    R539748  34.344  24.329   6.905 -0.0244 -0.1720  0.0075
67240CHOL    C139749  34.408  24.517   6.580  0.1298  0.0789  0.1812
67240CHOL    C239750  34.631  24.773   6.339  0.0303 -0.0426  0.1663
67241CHOL   ROH39751   4.416  29.872  14.649  0.0369 -0.0142  0.3225
67241CHOL    R139752   4.139  29.815  14.631  0.0398  0.0263  0.1328
67241CHOL    R239753   4.043  29.565  14.565  0.0484  0.0402  0.0648
67241CHOL    R339754   3.904  29.592  14.797 -0.1059  0.0592 -0.0291
67241CHOL    R439755   3.753  29.394  14.642  0.0879 -0.0763 -0.0442
67241CHOL    R539756   3.674  29.577  14.731 -0.0586 -0.0822 -0.1616
67241CHOL    C139757   3.453  29.319  14.904 -0.0341 -0.1258 -0.1959
67241CHOL    C239758   3.182  29.103  14.766  0.0087 -0.1136 -0.0075
67242CHOL   ROH39759  13.599   9.727  14.968  0.2653  0.0381 -0.1037
67242CHOL    R139760  13.500   9.754  15.232  0.0690  0.1238 -0.1848
67242CHOL    R239761  13.651   9.691  15.454 -0.1733 -0.0217 -0.0590
67242CHOL    R339762  13.587   9.944  15.529 -0.0012  0.0368 -0.1080
67242CHOL    R439763  13.514   9.778  15.760 -0.2380  0.1139 -0.1266
67242CHOL    R539764  13.385   9.920  15.656 -0.0777  0.2108 -0.1954
67242CHOL    C139765  13.375  10.067  16.007 -0.1145  0.2477 -0.2120
67242CHOL    C239766  13.368  10.139  16.376 -0.0663 -0.2071  0.0270
67243CHOL   ROH39767  25.849   0.469  10.273 -0.0188  0.1625  0.0133
67243CHOL    R139768  26.008   0.457  10.039  0.0055  0.2322  0.0258
67243CHOL    R239769  26.059   0.221   9.906  0.3025  0.2204  0.1542
67243CHOL    R339770  25.960   0.357   9.692  0.1400 -0.0138  0.0775
67243CHOL    R439771  26.129   0.148   9.575  0.2804  0.0401  0.1887
67243CHOL    R539772  26.141   0.362   9.536  0.0971  0.0217  0.0302
67243CHOL    C139773  26.078   0.234   9.182  0.1148 -0.2847  0.1367
67243CHOL    C239774  26.220  35.372   8.953  0.2255  0.0526 -0.2188
67244CHOL   ROH39775  19.661   7.601  16.223  0.1191  0.0531  0.1913
67244CHOL    R139776  19.734   7.740  15.987  0.0887 -0.0532  0.1186
67244CHOL    R239777  19.561   7.772  15.774  0.0157 -0.0351  0.1794
67244CHOL    R339778  19.620   8.036  15.808  0.1564 -0.0526  0.0770
67244CHOL    R439779  19.501   8.020  15.541  0.0822 -0.0818  0.1128
67244CHOL    R539780  19.693   8.109  15.593  0.1390 -0.1608  0.0348
67244CHOL    C139781  19.521   8.412  15.437  0.2529 -0.1252 -0.0224
67244CHOL    C239782  19.277   8.518  15.251 -0.0351  0.0014  0.1025
67245CHOL   ROH39783  17.386   6.031  13.603  0.1062  0.1659  0.1953
67245CHOL    R139784  17.353   5.829  13.799  0.2750  0.1398  0.1973
67245CHOL    R239785  17.465   5.847  14.051 -0.0006  0.3873  0.3048
67245CHOL    R339786  17.208   5.806  14.133 -0.0119 -0.0570  0.0621
67245CHOL    R439787  17.374   5.710  14.355 -0.0494  0.5811  0.3778
67245CHOL    R539788  17.217   5.599  14.253  0.3008  0.1087  0.3359
67245CHOL    C139789  17.080   5.592  14.609 -0.0890  0.2769  0.1927
67245CHOL    C239790  17.062   5.702  14.994 -0.0073  0.1843 -0.2071
67246CHOL   ROH39791  22.065   3.008   8.651 -0.1158  0.0324  0.0887
67246CHOL    R139792  22.220   3.142   8.846 -0.0839  0.0884  0.0246
67246CHOL    R239793  22.222   3.067   9.112  0.0069  0.1263  0.0354
67246CHOL    R339794  22.491   3.056   9.073 -0.0023  0.1694 -0.0415
67246CHOL    R439795  22.459   3.194   9.329  0.0595 -0.1303  0.1301
67246CHOL    R539796  22.573   3.265   9.157  0.0195  0.0712  0.1851
67246CHOL    C139797  22.849   3.258   9.419  0.0812 -0.2394  0.1130
67246CHOL    C239798  23.187   3.460   9.375  0.1644  0.3810  0.0942
67247CHOL   ROH39799  25.427  28.951   9.218 -0.0468 -0.0908 -0.0649
67247CHOL    R139800  25.369  29.153   9.028 -0.0628 -0.0031  0.0330
67247CHOL    R239801  25.424  29.123   8.759 -0.0999  0.1153  0.0134
67247CHOL    R339802  25.160  29.185   8.732 -0.1001  0.1406  0.0744
67247CHOL    R439803  25.260  29.163   8.457 -0.1377  0.2396  0.0500
67247CHOL    R539804  25.153  29.332   8.543 -0.1167  0.2142  0.1307
67247CHOL    C139805  24.918  29.244   8.256 -0.1605  0.3356  0.1283
67247CHOL    C239806  25.016  29.153   7.890 -0.0319  0.0920 -0.1164
67248CHOL   ROH39807  30.067  14.553   1.643  0.0069 -0.1287  0.0974
67248CHOL    R139808  30.203  14.784   1.733 -0.0263 -0.0688 -0.0068
67248CHOL    R239809  30.121  14.928   1.954  0.0084 -0.0346 -0.0159
67248CHOL    R339810  30.378  14.889   2.034  0.0463  0.0559 -0.0917
67248CHOL    R439811  30.269  15.082   2.226  0.0122 -0.0377 -0.0163
67248CHOL    R539812  30.451  15.105   2.108 -0.0277  0.0694 -0.0577
67248CHOL    C139813  30.596  15.134   2.460  0.0500  0.0454 -0.0876
67248CHOL    C239814  30.817  15.293   2.457  0.0432  0.0235 -0.1293
67249CHOL   ROH39815   3.680  29.691  13.678 -0.0952  0.1606 -0.1171
67249CHOL    R139816   3.402  29.674  13.731 -0.0644 -0.0528 -0.0177
67249CHOL    R239817   3.295  29.488  13.905  0.1649  0.0104  0.1955
67249CHOL    R339818   3.186  29.708  14.022 -0.0079  0.0217  0.0155
67249CHOL    R439819   3.027  29.484  14.123  0.1880 -0.0244  0.2233
67249CHOL    R539820   2.951  29.664  14.025  0.0292 -0.1707  0.0748
67249CHOL    C139821   2.768  29.688  14.359  0.0393 -0.0342  0.0706
67249CHOL    C239822   2.447  29.675  14.663 -0.3323 -0.1599  0.0964
67250CHOL   ROH39823  30.597  31.514   7.524  0.0378  0.3712 -0.0050
67250CHOL    R139824  30.647  31.586   7.793  0.1303  0.2167  0.0196
67250CHOL    R239825  30.493  31.493   8.003  0.0473  0.2960 -0.0065
67250CHOL    R339826  30.733  31.413   8.102 -0.0281  0.0084 -0.0512
67250CHOL    R439827  30.582  31.503   8.337  0.1856  0.3649 -0.0449
67250CHOL    R539828  30.781  31.570   8.277  0.2619  0.0456 -0.1602
67250CHOL    C139829  30.859  31.433   8.624  0.1950  0.1355 -0.1094
67250CHOL    C239830  30.748  31.656   8.806  0.1030 -0.1413  0.2987
67251CHOL   ROH39831  21.377  14.340   5.878 -0.0319 -0.0060 -0.1667
67251CHOL    R139832  21.604  14.434   6.018 -0.0772  0.0220 -0.1125
67251CHOL    R239833  21.858  14.431   5.909 -0.0514  0.0522 -0.0516
67251CHOL    R339834  21.853  14.695   5.973 -0.0979  0.0521 -0.0532
67251CHOL    R439835  22.138  14.628   5.956 -0.0849  0.1134 -0.1043
67251CHOL    R539836  22.037  14.723   6.125 -0.0757  0.0930 -0.0864
67251CHOL    C139837  22.297  14.990   6.044 -0.1482  0.1489 -0.1365
67251CHOL    C239838  22.748  15.050   6.019 -0.1047 -0.2249 -0.0302
67252CHOL   ROH39839  17.613  11.994  17.401 -0.0111 -0.0122  0.0142
67252CHOL    R139840  17.366  11.891  17.493 -0.0044 -0.1119 -0.0801
67252CHOL    R239841  17.193  12.037  17.650  0.0297 -0.2981  0.1315
67252CHOL    R339842  17.014  11.974  17.455 -0.0045 -0.0399  0.0776
67252CHOL    R439843  16.849  12.049  17.686  0.0360 -0.2711  0.1839
67252CHOL    R539844  16.836  11.864  17.572 -0.0134 -0.1386 -0.0277
67252CHOL    C139845  16.481  11.997  17.525  0.0076 -0.0129  0.1637
67252CHOL    C239846  16.198  11.751  17.467  0.2109  0.0673 -0.2131
67253CHOL   ROH39847  15.982   7.902  17.476 -0.0799 -0.0340  0.0650
67253CHOL    R139848  15.721   7.959  17.381 -0.0297  0.1208  0.0189
67253CHOL    R239849  15.676   8.091  17.143  0.0885 -0.1730 -0.1695
67253CHOL    R339850  15.522   7.873  17.089 -0.1649 -0.0832  0.1694
67253CHOL    R439851  15.452   8.068  16.881  0.1549 -0.3649 -0.2098
67253CHOL    R539852  15.314   7.965  17.014 -0.0247  0.0469 -0.0698
67253CHOL    C139853  15.178   7.850  16.677 -0.0441 -0.3923  0.0844
67253CHOL    C239854  15.096   7.980  16.366  0.0318 -0.1082  0.1310
67254CHOL   ROH39855  12.702  13.686  18.152 -0.0525 -0.0364  0.0813
67254CHOL    R139856  12.701  13.666  17.870  0.0339  0.0900  0.0715
67254CHOL    R239857  12.870  13.814  17.709  0.2357  0.0003  0.2012
67254CHOL    R339858  12.937  13.570  17.610  0.0401 -0.0210  0.1179
67254CHOL    R439859  13.025  13.760  17.405  0.3011 -0.0092  0.2357
67254CHOL    R539860  12.895  13.588  17.375  0.1455  0.1266  0.1081
67254CHOL    C139861  13.178  13.500  17.135  0.1553 -0.0344  0.1774
67254CHOL    C239862  13.271  13.686  16.867 -0.2173 -0.0057  0.1556
67255CHOL   ROH39863  11.456   2.681  14.654 -0.1386 -0.0919  0.1468
67255CHOL    R139864  11.553   2.543  14.882  0.0508 -0.1375  0.0396
67255CHOL    R239865  11.803   2.425  14.890  0.2087  0.1873 -0.0576
67255CHOL    R339866  11.831   2.577  15.113  0.0129  0.0572  0.0576
67255CHOL    R439867  12.050   2.383  15.127 -0.0005  0.0454  0.1375
67255CHOL    R539868  11.902   2.422  15.282 -0.1381 -0.0429  0.0306
67255CHOL    C139869  12.222   2.500  15.475 -0.3058 -0.1593  0.3590
67255CHOL    C239870  12.504   2.275  15.601 -0.0513  0.0915 -0.0373
67256CHOL   ROH39871  31.265  30.302   6.763  0.0502  0.0426 -0.2391
67256CHOL    R139872  30.989  30.319   6.825  0.0721  0.0654 -0.1474
67256CHOL    R239873  30.837  30.098   6.890  0.0391  0.0564 -0.2559
67256CHOL    R339874  30.778  30.244   7.111  0.1376 -0.0814 -0.1371
67256CHOL    R439875  30.583  30.025   7.113 -0.0660  0.0957 -0.3621
67256CHOL    R539876  30.539  30.238   7.124  0.1291  0.1282 -0.1832
67256CHOL    C139877  30.379  30.119   7.450 -0.0342 -0.0105 -0.3123
67256CHOL    C239878  30.292  30.043   7.790 -0.1583  0.0554  0.0557
67257CHOL   ROH39879   4.349  23.661   8.625  0.0770  0.1397  0.5176
67257CHOL    R139880   4.193  23.518   8.812 -0.0944  0.0984  0.3442
67257CHOL    R239881   3.923  23.566   8.848 -0.1866 -0.0895 -0.0745
67257CHOL    R339882   3.902  23.299   8.802  0.0833 -0.1250  0.0009
67257CHOL    R439883   3.712  23.352   9.018 -0.2432 -0.1867 -0.2655
67257CHOL    R539884   3.872  23.203   9.019 -0.1250 -0.0628  0.0001
67257CHOL    C139885   3.570  22.977   9.075 -0.0227 -0.2771 -0.3057
67257CHOL    C239886   3.233  22.855   8.993 -0.0143 -0.1086  0.3067
67258CHOL   ROH39887  27.145   9.664   6.417  0.0180  0.0829 -0.0003
67258CHOL    R139888  27.066   9.584   6.157 -0.0479  0.2069 -0.0190
67258CHOL    R239889  26.988   9.326   6.098  0.0318  0.2109 -0.1439
67258CHOL    R339890  26.766   9.449   6.002 -0.0533  0.1819  0.0132
67258CHOL    R439891  26.780   9.195   5.856 -0.0584  0.2345 -0.0794
67258CHOL    R539892  26.765   9.394   5.768 -0.1595  0.2595 -0.0049
67258CHOL    C139893  26.450   9.234   5.624 -0.1906  0.2209  0.1055
67258CHOL    C239894  26.627   9.106   5.301  0.0440  0.0138  0.2036
67259CHOL   ROH39895   9.225  19.924  16.176  0.1599  0.1493  0.0962
67259CHOL    R139896   9.041  19.719  16.242  0.2626  0.0362  0.0345
67259CHOL    R239897   9.032  19.602  16.492  0.1355  0.1524  0.0850
67259CHOL    R339898   8.770  19.674  16.480  0.0870 -0.0589 -0.1814
67259CHOL    R439899   8.774  19.435  16.650  0.1394  0.0807  0.0160
67259CHOL    R539900   8.651  19.466  16.473  0.2544 -0.1579 -0.1078
67259CHOL    C139901   8.378  19.406  16.732  0.0962 -0.1591 -0.2743
67259CHOL    C239902   8.106  19.096  16.819  0.4400  0.1659  0.3002
67260CHOL   ROH39903  31.261  25.414   6.597 -0.2379  0.2012  0.1956
67260CHOL    R139904  31.444  25.588   6.468 -0.1194  0.0578  0.1686
67260CHOL    R239905  31.611  25.504   6.265 -0.1437 -0.0985  0.2125
67260CHOL    R339906  31.498  25.712   6.131 -0.0046 -0.0688  0.1399
67260CHOL    R439907  31.771  25.694   6.024 -0.0467 -0.3544  0.0734
67260CHOL    R539908  31.676  25.871   6.107  0.1259 -0.2306  0.0116
67260CHOL    C139909  31.758  25.999   5.757  0.1403 -0.4755 -0.0757
67260CHOL    C239910  31.676  26.163   5.395  0.1287  0.3324 -0.3168
67261CHOL   ROH39911  15.212  16.089  18.272 -0.0265  0.0762  0.1183
67261CHOL    R139912  15.110  16.078  18.009 -0.0154  0.1003  0.1129
67261CHOL    R239913  14.849  16.009  17.953 -0.0320  0.1743  0.1007
67261CHOL    R339914  14.849  16.246  17.819  0.0428  0.1716  0.0954
67261CHOL    R439915  14.613  16.103  17.718 -0.0926  0.3086  0.2140
67261CHOL    R539916  14.774  16.189  17.599 -0.0994  0.2102  0.1331
67261CHOL    C139917  14.476  16.380  17.456 -0.0575  0.3839  0.2749
67261CHOL    C239918  14.459  16.686  17.147 -0.1127  0.1345 -0.1441
67262CHOL   ROH39919  12.505  17.736  15.220  0.0749 -0.2825 -0.0226
67262CHOL    R139920  12.456  17.563  15.438  0.1432 -0.1883  0.0685
67262CHOL    R239921  12.521  17.628  15.698 -0.0876  0.0686  0.0645
67262CHOL    R339922  12.260  17.571  15.744 -0.0519 -0.1988 -0.0553
67262CHOL    R439923  12.391  17.534  16.004 -0.1335 -0.0511  0.0076
67262CHOL    R539924  12.265  17.389  15.900  0.0631 -0.1865 -0.0444
67262CHOL    C139925  12.069  17.425  16.225 -0.1270 -0.3720 -0.1373
67262CHOL    C239926  12.272  17.129  16.394 -0.0256 -0.2883  0.1441
67263CHOL   ROH39927   9.091  16.415  14.179 -0.1013  0.2405 -0.0103
67263CHOL    R139928   9.036  16.390  14.456  0.0149  0.1740  0.0064
67263CHOL    R239929   9.233  16.411  14.649  0.0828  0.1974 -0.0687
67263CHOL    R339930   9.066  16.600  14.751  0.0667  0.1287  0.0344
67263CHOL    R439931   9.221  16.505  14.981  0.1930  0.1293 -0.0446
67263CHOL    R539932   9.004  16.515  14.966  0.1812  0.0666  0.0455
67263CHOL    C139933   9.057  16.737  15.271  0.2421  0.0248  0.0658
67263CHOL    C239934   9.181  16.781  15.614  0.6037  0.0113 -0.1226
67264CHOL   ROH39935   3.190  28.978  18.087  0.2746 -0.1401  0.0638
67264CHOL    R139936   3.392  29.080  17.918  0.3168 -0.2514  0.0465
67264CHOL    R239937   3.568  28.918  17.781 -0.0606 -0.3677 -0.3120
67264CHOL    R339938   3.479  29.057  17.566  0.0008  0.0771 -0.0567
67264CHOL    R439939   3.754  28.979  17.496 -0.1609 -0.2441 -0.3510
67264CHOL    R539940   3.671  29.181  17.492  0.1403 -0.1076 -0.0080
67264CHOL    C139941   3.778  29.145  17.127 -0.1617  0.2455 -0.1342
67264CHOL    C239942   4.025  29.267  16.978  0.3194  0.0299  0.3351
67265CHOL   ROH39943  18.376   6.691  16.666  0.1980  0.0834 -0.1950
67265CHOL    R139944  18.162   6.767  16.497  0.1232 -0.0415 -0.1574
67265CHOL    R239945  18.151   7.014  16.373 -0.1119  0.0057 -0.0451
67265CHOL    R339946  18.123   6.864  16.148  0.0279  0.0806 -0.1129
67265CHOL    R439947  18.000   7.122  16.081 -0.1345  0.0266 -0.0256
67265CHOL    R539948  17.908   6.925  16.062  0.0013 -0.0282 -0.1238
67265CHOL    C139949  17.887   7.044  15.700 -0.0167  0.1094 -0.0779
67265CHOL    C239950  17.474   7.080  15.638  0.0804 -0.2714 -0.0038
67266CHOL   ROH39951  23.623   6.043  12.329 -0.1229 -0.0414  0.2056
67266CHOL    R139952  23.425   6.245  12.326 -0.2031 -0.1196  0.2448
67266CHOL    R239953  23.415   6.441  12.132 -0.1044  0.0869  0.4488
67266CHOL    R339954  23.160   6.353  12.101 -0.0423  0.0160  0.1186
67266CHOL    R439955  23.191   6.563  11.898  0.0227  0.3406  0.4568
67266CHOL    R539956  23.035   6.550  12.049 -0.0906  0.0405  0.3208
67266CHOL    C139957  22.821   6.551  11.733  0.1549  0.4219  0.1517
67266CHOL    C239958  22.628   6.732  11.449 -0.5786 -0.0321 -0.1494
67267CHOL   ROH39959  14.698  30.127  19.644 -0.2369  0.1285 -0.0901
67267CHOL    R139960  14.479  29.965  19.568 -0.1604  0.0252 -0.0896
67267CHOL    R239961  14.389  29.948  19.307 -0.1756  0.0113 -0.0825
67267CHOL    R339962  14.424  29.681  19.346 -0.0356  0.0237 -0.1193
67267CHOL    R439963  14.190  29.701  19.171 -0.0769 -0.0711 -0.0774
67267CHOL    R539964  14.202  29.593  19.360  0.0092 -0.0879 -0.0910
67267CHOL    C139965  14.108  29.306  19.127  0.1119 -0.1071 -0.1094
67267CHOL    C239966  13.968  28.992  18.944 -0.2606 -0.0652  0.5482
67268CHOL   ROH39967  20.261   1.093  12.840  0.1497 -0.1036 -0.0871
67268CHOL    R139968  20.108   1.079  12.603  0.1318  0.0260 -0.0831
67268CHOL    R239969  20.080   1.294  12.432  0.3078  0.0507 -0.0811
67268CHOL    R339970  20.170   1.117  12.246  0.1545 -0.0240 -0.0846
67268CHOL    R439971  19.963   1.272  12.107  0.2975  0.1691 -0.0856
67268CHOL    R539972  19.973   1.055  12.124  0.1009  0.1578 -0.0932
67268CHOL    C139973  19.979   1.093  11.744  0.1475  0.1678 -0.0918
67268CHOL    C239974  19.698   1.180  11.503 -0.0817 -0.0553  0.0642
67269CHOL   ROH39975  23.439   0.547   7.687  0.0134  0.1187 -0.1403
67269CHOL    R139976  23.630   0.399   7.833 -0.1907  0.0272  0.0363
67269CHOL    R239977  23.888   0.488   7.874 -0.0450 -0.3104 -0.1336
67269CHOL    R339978  23.827   0.446   8.136 -0.0690  0.1502 -0.0617
67269CHOL    R439979  24.120   0.467   8.130 -0.0343 -0.2986 -0.1415
67269CHOL    R539980  24.003   0.304   8.216 -0.2689 -0.0049  0.1090
67269CHOL    C139981  24.197   0.416   8.524 -0.0516  0.1405 -0.0786
67269CHOL    C239982  24.404   0.367   8.770  0.5625  0.0162  0.1131
67270CHOL   ROH39983   4.083  16.024   7.610 -0.0718  0.1506  0.2378
67270CHOL    R139984   3.940  15.908   7.825 -0.0838  0.0192  0.1603
67270CHOL    R239985   3.672  15.959   7.869 -0.0849 -0.0006  0.1820
67270CHOL    R339986   3.653  15.688   7.863 -0.0917  0.0032  0.0097
67270CHOL    R439987   3.385  15.779   7.938 -0.0263 -0.0469  0.3075
67270CHOL    R539988   3.507  15.635   8.045  0.0665 -0.1229  0.1002
67270CHOL    C139989   3.199  15.420   7.972  0.0013 -0.0700  0.2187
67270CHOL    C239990   2.940  15.239   8.167  0.0680  0.0473  0.0718
67271CHOL   ROH39991  23.962   9.092  10.069 -0.0544  0.2191  0.0198
67271CHOL    R139992  23.717   9.079  10.210 -0.0738  0.0954 -0.0257
67271CHOL    R239993  23.497   9.233  10.142 -0.1204  0.0250 -0.0309
67271CHOL    R339994  23.372   8.992  10.132 -0.0274 -0.0212 -0.1031
67271CHOL    R439995  23.155   9.188  10.140 -0.1038 -0.1041 -0.1064
67271CHOL    R539996  23.181   9.019  10.274 -0.0660 -0.1210 -0.1347
67271CHOL    C139997  22.837   8.936  10.131 -0.0075 -0.2226 -0.2179
67271CHOL    C239998  22.548   8.828   9.888 -0.1985  0.3033 -0.0836
67272CHOL   ROH39999  27.326   6.576   4.105 -0.1081 -0.1741  0.1127
67272CHOL    R140000  27.491   6.725   4.280 -0.1192  0.0028 -0.0258
67272CHOL    R240001  27.398   6.943   4.422 -0.2180 -0.0598  0.0071
67272CHOL    R340002  27.495   6.805   4.635  0.0590  0.0591 -0.0404
67272CHOL    R440003  27.451   7.076   4.737 -0.3084 -0.0167  0.0041
67272CHOL    R540004  27.636   6.962   4.749 -0.1339  0.2552 -0.0709
67272CHOL    C140005  27.573   7.025   5.120 -0.1013  0.1203 -0.0424
67272CHOL    C240006  27.486   6.900   5.424 -0.1081  0.4230  0.0627
67273CHOL   ROH40007  25.482  15.557   5.004  0.0717 -0.1397 -0.1363
67273CHOL    R140008  25.299  15.656   4.812  0.0896 -0.0849 -0.1250
67273CHOL    R240009  25.320  15.597   4.543 -0.0265 -0.2085 -0.1077
67273CHOL    R340010  25.063  15.514   4.574 -0.0790 -0.0112 -0.0024
67273CHOL    R440011  25.086  15.577   4.289 -0.0586 -0.3193 -0.0698
67273CHOL    R540012  24.936  15.654   4.427  0.0008 -0.0802 -0.1372
67273CHOL    C140013  24.710  15.487   4.170 -0.1267 -0.1985  0.0512
67273CHOL    C240014  24.674  15.723   3.895  0.2634  0.0386  0.3080
67274CHOL   ROH40015   5.316  23.917  12.485 -0.0924  0.0541  0.0114
67274CHOL    R140016   5.199  24.034  12.714 -0.0679  0.0418  0.0305
67274CHOL    R240017   4.950  23.963  12.808 -0.1260  0.1501 -0.0392
67274CHOL    R340018   5.084  23.921  13.040 -0.1907 -0.0052 -0.0292
67274CHOL    R440019   4.805  23.851  13.101 -0.2127 -0.0145 -0.1432
67274CHOL    R540020   4.931  23.992  13.211 -0.2269 -0.0935 -0.0250
67274CHOL    C140021   4.847  23.748  13.491 -0.3239 -0.2558 -0.1946
67274CHOL    C240022   4.458  23.890  13.403  0.3639 -0.1015 -0.2898
67275CHOL   ROH40023  14.963  10.725  15.550 -0.0300 -0.4606 -0.0504
67275CHOL    R140024  14.882  10.606  15.794  0.1083 -0.3821  0.0346
67275CHOL    R240025  15.060  10.482  15.965  0.2764  0.0586  0.1883
67275CHOL    R340026  14.954  10.653  16.148 -0.0500  0.0476  0.0125
67275CHOL    R440027  15.050  10.426  16.306 -0.0676  0.1702  0.1987
67275CHOL    R540028  14.849  10.511  16.310 -0.1320  0.0308 -0.0557
67275CHOL    C140029  14.945  10.554  16.676 -0.5743  0.2249  0.0399
67275CHOL    C240030  15.113  10.401  17.001 -0.0726  0.0887  0.1451
67276CHOL   ROH40031   5.180  23.928  11.283 -0.1094  0.1692 -0.0408
67276CHOL    R140032   4.930  23.794  11.285 -0.1360  0.2193  0.0102
67276CHOL    R240033   4.884  23.568  11.437 -0.0410  0.0213 -0.2505
67276CHOL    R340034   4.675  23.714  11.532  0.0768 -0.0602  0.1426
67276CHOL    R440035   4.591  23.435  11.563  0.0074 -0.0854 -0.2501
67276CHOL    R540036   4.481  23.594  11.461 -0.0160  0.1204  0.0875
67276CHOL    C140037   4.224  23.495  11.725  0.1464 -0.2241  0.1192
67276CHOL    C240038   3.825  23.704  11.656  0.1018  0.3561 -0.2561
67277CHOL   ROH40039   4.525  17.514  10.514  0.3421 -0.1201 -0.2025
67277CHOL    R140040   4.500  17.233  10.498  0.2043 -0.1194 -0.0054
67277CHOL    R240041   4.385  17.082  10.699 -0.0103  0.0933  0.0324
67277CHOL    R340042   4.228  16.991  10.497  0.0767  0.0231 -0.0041
67277CHOL    R440043   4.319  16.749  10.637 -0.3202  0.0862  0.3793
67277CHOL    R540044   4.337  16.791  10.423 -0.0727 -0.1925  0.3415
67277CHOL    C140045   4.132  16.469  10.410 -0.4191  0.0159  0.5469
67277CHOL    C240046   4.263  16.140  10.330  0.1391  0.2889 -0.4146
67278CHOL   ROH40047   9.651  14.648  15.829  0.0701 -0.1864 -0.0244
67278CHOL    R140048   9.548  14.393  15.760 -0.0223 -0.1918  0.1314
67278CHOL    R240049   9.390  14.246  15.932 -0.2842  0.0789  0.1273
67278CHOL    R340050   9.219  14.243  15.720 -0.0789 -0.0241 -0.0380
67278CHOL    R440051   9.118  14.035  15.900 -0.4489  0.2900  0.1212
67278CHOL    R540052   9.167  14.011  15.689 -0.2613 -0.0156  0.1975
67278CHOL    C140053   8.800  13.908  15.683 -0.3521  0.3161 -0.0372
67278CHOL    C240054   8.703  13.599  15.762  0.0769  0.1644  0.0167
67279CHOL   ROH40055  10.929  33.630  20.057 -0.1976 -0.0021 -0.0379
67279CHOL    R140056  10.830  33.652  19.793 -0.1878 -0.1133 -0.0504
67279CHOL    R240057  10.996  33.675  19.573 -0.1847  0.0436 -0.0300
67279CHOL    R340058  10.855  33.460  19.484  0.0410 -0.1025 -0.0401
67279CHOL    R440059  10.959  33.586  19.241 -0.2137  0.1091 -0.0448
67279CHOL    R540060  10.751  33.536  19.282 -0.1381 -0.1610  0.0275
67279CHOL    C140061  10.805  33.333  18.964 -0.0189  0.0102 -0.0627
67279CHOL    C240062  11.089  33.359  18.778 -0.0720 -0.1619 -0.1403
67280CHOL   ROH40063  25.149  20.347   7.146  0.1070 -0.0346  0.2169
67280CHOL    R140064  24.958  20.497   7.001  0.1225 -0.0687  0.1611
67280CHOL    R240065  24.869  20.424   6.750  0.2214 -0.0753  0.1284
67280CHOL    R340066  24.624  20.442   6.867  0.1781 -0.1330  0.0479
67280CHOL    R440067  24.568  20.384   6.585  0.2781  0.1705 -0.0382
67280CHOL    R540068  24.487  20.549   6.702  0.2731  0.0725  0.1000
67280CHOL    C140069  24.163  20.377   6.599  0.2707  0.2597 -0.2108
67280CHOL    C240070  23.797  20.418   6.680 -0.0668 -0.0167 -0.2196
67281CHOL   ROH40071   4.200   7.559  10.419  0.1067  0.1337  0.0341
67281CHOL    R140072   4.124   7.417  10.652  0.0295  0.1451  0.0160
67281CHOL    R240073   4.308   7.304  10.824 -0.0322 -0.0135 -0.0204
67281CHOL    R340074   4.175   7.451  11.011  0.0861  0.0466  0.0170
67281CHOL    R440075   4.307   7.238  11.163 -0.0085 -0.0422 -0.0259
67281CHOL    R540076   4.095   7.288  11.168  0.0214  0.0793  0.0174
67281CHOL    C140077   4.182   7.337  11.536  0.1162 -0.0025  0.0060
67281CHOL    C240078   3.971   7.363  11.923 -0.1336  0.0764 -0.0744
67282CHOL   ROH40079   6.687  29.142  16.712 -0.1031 -0.2680  0.0745
67282CHOL    R140080   6.593  28.951  16.899  0.0504 -0.1955  0.2275
67282CHOL    R240081   6.664  28.957  17.166 -0.0359  0.1378  0.2463
67282CHOL    R340082   6.395  28.956  17.204 -0.0479 -0.1220  0.1629
67282CHOL    R440083   6.508  28.955  17.474 -0.1320 -0.0483  0.1976
67282CHOL    R540084   6.362  28.814  17.395  0.0259 -0.1766  0.1345
67282CHOL    C140085   6.164  28.954  17.690 -0.1993 -0.4002  0.0907
67282CHOL    C240086   6.082  28.788  18.036  0.0381  0.0263 -0.1029
67283CHOL   ROH40087  34.669  32.030  13.191 -0.3249  0.0922 -0.3958
67283CHOL    R140088  34.937  31.989  13.109 -0.2232  0.2640 -0.1503
67283CHOL    R240089  35.013  31.781  12.945  0.1046  0.1551  0.1339
67283CHOL    R340090  35.119  31.980  12.795  0.0213  0.0955 -0.0059
67283CHOL    R440091  35.280  31.744  12.728  0.1640  0.1289  0.2114
67283CHOL    R540092  35.355  31.937  12.796  0.0462  0.2258  0.0724
67283CHOL    C140093   0.150  31.909  12.461  0.1211  0.0576  0.1254
67283CHOL    C240094   0.112  31.726  12.154 -0.1937 -0.2672 -0.0392
67284CHOL   ROH40095  31.962   0.030  11.543 -0.0920  0.0851  0.0750
67284CHOL    R140096  32.176   0.135  11.391 -0.0622  0.0286  0.0777
67284CHOL    R240097  32.359  35.359  11.261 -0.0967 -0.0200  0.0881
67284CHOL    R340098  32.287   0.121  11.045 -0.0555 -0.0092  0.0810
67284CHOL    R440099  32.498  35.328  10.946 -0.1484 -0.1175  0.0751
67284CHOL    R540100  32.492   0.160  10.928 -0.0507 -0.1160  0.0528
67284CHOL    C140101  32.511   0.063  10.559 -0.1389 -0.1643  0.0609
67284CHOL    C240102  32.585   0.038  10.192 -0.0417  0.2189 -0.2066
67285CHOL   ROH40103  11.756  34.480  16.246  0.1702  0.0229  0.0954
67285CHOL    R140104  11.632  34.552  16.490  0.0986 -0.1022  0.0965
67285CHOL    R240105  11.774  34.655  16.704  0.0118 -0.0636  0.1351
67285CHOL    R340106  11.591  34.856  16.686 -0.1064 -0.1690  0.1571
67285CHOL    R440107  11.693  34.872  16.961  0.0271 -0.0164  0.0998
67285CHOL    R540108  11.484  34.858  16.901  0.0032 -0.1514  0.2121
67285CHOL    C140109  11.474  35.187  17.094 -0.0746 -0.0882  0.1007
67285CHOL    C240110  11.384  35.270  17.446 -0.1714 -0.1561 -0.1216
67286CHOL   ROH40111  30.705  26.790   7.984 -0.0218  0.1234  0.4522
67286CHOL    R140112  30.753  26.965   7.766  0.0406 -0.0780  0.3032
67286CHOL    R240113  30.595  27.185   7.715 -0.0050 -0.1793 -0.0062
67286CHOL    R340114  30.833  27.317   7.722 -0.0524 -0.0939 -0.0044
67286CHOL    R440115  30.701  27.415   7.479 -0.1753  0.0166  0.1068
67286CHOL    R540116  30.901  27.330   7.493 -0.1381  0.0834 -0.0207
67286CHOL    C140117  30.986  27.673   7.349 -0.3188  0.2108  0.1744
67286CHOL    C240118  31.056  28.013   7.511  0.0556 -0.1232  0.1180
67287CHOL   ROH40119   3.052  32.066  17.091 -0.0178 -0.0808 -0.2338
67287CHOL    R140120   3.181  32.216  16.890  0.1679 -0.0481 -0.0916
67287CHOL    R240121   3.434  32.155  16.798  0.0993 -0.2658 -0.1390
67287CHOL    R340122   3.311  32.154  16.555  0.1035  0.1034 -0.1453
67287CHOL    R440123   3.598  32.166  16.493  0.1266 -0.2926 -0.1255
67287CHOL    R540124   3.443  32.302  16.421  0.3373  0.0000 -0.0309
67287CHOL    C140125   3.577  32.171  16.088  0.1465  0.0384 -0.1230
67287CHOL    C240126   3.760  32.071  15.818  0.0972  0.1544  0.1661
67288CHOL   ROH40127  22.568  33.197   7.235 -0.0541  0.2193  0.0224
67288CHOL    R140128  22.639  33.181   7.508  0.0380  0.0366 -0.0107
67288CHOL    R240129  22.556  32.975   7.672  0.0629 -0.0539 -0.1121
67288CHOL    R340130  22.822  32.950   7.722  0.0767 -0.1253 -0.2184
67288CHOL    R440131  22.692  32.837   7.959  0.1400  0.1083 -0.0700
67288CHOL    R540132  22.843  32.994   7.956  0.2043  0.0439 -0.2604
67288CHOL    C140133  23.020  32.735   8.172  0.1974  0.1349 -0.1454
67288CHOL    C240134  23.243  32.936   8.308  0.0007 -0.1397  0.0784
67289CHOL   ROH40135  12.227  31.765  16.904  0.1236 -0.3165 -0.0059
67289CHOL    R140136  12.295  31.913  17.135 -0.0211 -0.1892 -0.0441
67289CHOL    R240137  12.109  31.984  17.327 -0.0927 -0.3161 -0.0660
67289CHOL    R340138  12.283  31.861  17.495  0.0229 -0.1051 -0.0303
67289CHOL    R440139  12.211  32.110  17.632 -0.1852 -0.1171 -0.1167
67289CHOL    R540140  12.413  32.040  17.588 -0.1261  0.0408 -0.1015
67289CHOL    C140141  12.435  32.069  17.967 -0.1304  0.1976 -0.1127
67289CHOL    C240142  12.682  32.169  18.303 -0.0134  0.2090 -0.0223
67290CHOL   ROH40143  18.099  25.710  13.524  0.0994  0.1924 -0.0993
67290CHOL    R140144  18.245  25.920  13.646  0.0235  0.1318  0.0982
67290CHOL    R240145  18.373  25.890  13.888  0.0237 -0.0462  0.0787
67290CHOL    R340146  18.589  25.977  13.748 -0.0004  0.1543  0.1646
67290CHOL    R440147  18.662  26.016  14.030 -0.0244 -0.0731  0.2014
67290CHOL    R540148  18.668  26.167  13.872 -0.0692  0.0702  0.3371
67290CHOL    C140149  19.033  26.171  13.981 -0.0748  0.0987  0.3538
67290CHOL    C240150  19.201  26.470  13.938  0.1287 -0.0374 -0.0623
67291CHOL   ROH40151   9.190  34.453  16.743  0.2927 -0.1229  0.0996
67291CHOL    R140152   9.013  34.513  16.956  0.1171  0.1091 -0.1091
67291CHOL    R240153   9.046  34.409  17.210 -0.4147 -0.0687 -0.1099
67291CHOL    R340154   9.038  34.671  17.283 -0.0252 -0.0830 -0.0046
67291CHOL    R440155   9.043  34.523  17.536 -0.2697 -0.1976 -0.0628
67291CHOL    R540156   8.897  34.674  17.477 -0.0385  0.0488 -0.0147
67291CHOL    C140157   9.034  34.834  17.795  0.1806 -0.2867  0.0636
67291CHOL    C240158   8.670  34.938  17.991  0.0918  0.1614  0.1505
67292CHOL   ROH40159  10.310  34.851  16.925 -0.2448 -0.0193  0.1887
67292CHOL    R140160  10.421  35.057  17.084 -0.1641  0.0530  0.0420
67292CHOL    R240161  10.328  35.115  17.338 -0.0941  0.2231  0.0304
67292CHOL    R340162  10.589  35.081  17.407 -0.0856  0.2079 -0.0102
67292CHOL    R440163  10.496  35.302  17.576 -0.0334  0.2399 -0.0259
67292CHOL    R540164  10.670  35.303  17.444 -0.0567  0.2041 -0.0561
67292CHOL    C140165  10.839  35.378  17.779  0.0098  0.2353 -0.0967
67292CHOL    C240166  11.135   0.249  17.930 -0.1203  0.0678 -0.3592
67293CHOL   ROH40167   6.806  19.052  11.965 -0.0729  0.1054  0.1011
67293CHOL    R140168   6.529  19.064  11.908 -0.0673 -0.0324  0.0422
67293CHOL    R240169   6.337  19.092  12.105 -0.1201 -0.0879 -0.0023
67293CHOL    R340170   6.260  19.305  11.955 -0.1896 -0.1493 -0.0533
67293CHOL    R440171   6.010  19.196  12.063 -0.1153  0.0896  0.3752
67293CHOL    R540172   6.055  19.234  11.853 -0.3786 -0.0952  0.2815
67293CHOL    C140173   5.747  19.455  11.898 -0.1776  0.1356  0.5471
67293CHOL    C240174   5.522  19.687  11.906  0.1909 -0.0955  0.0681
67294CHOL   ROH40175   4.712  18.137   8.865 -0.0330  0.0791 -0.2887
67294CHOL    R140176   4.442  18.221   8.880 -0.0840 -0.0734 -0.3347
67294CHOL    R240177   4.232  18.044   8.911  0.0406 -0.1646  0.0132
67294CHOL    R340178   4.172  18.203   9.123  0.0087  0.1331 -0.2151
67294CHOL    R440179   3.912  18.112   9.023  0.0319 -0.1558 -0.0176
67294CHOL    R540180   3.973  18.318   9.057 -0.0655 -0.0698 -0.3491
67294CHOL    C140181   3.669  18.300   9.287 -0.0031  0.1288 -0.2501
67294CHOL    C240182   3.310  18.213   9.459  0.2887 -0.0294 -0.0268
67295CHOL   ROH40183  19.345  32.300   9.993 -0.1087 -0.0055 -0.0450
67295CHOL    R140184  19.493  32.105  10.134  0.0547  0.1667  0.0226
67295CHOL    R240185  19.721  32.166  10.278 -0.0939  0.4376  0.1473
67295CHOL    R340186  19.588  32.044  10.481 -0.0542  0.2640  0.0699
67295CHOL    R440187  19.847  32.118  10.596 -0.0912  0.3059  0.1267
67295CHOL    R540188  19.757  31.919  10.596 -0.0090  0.2670  0.0070
67295CHOL    C140189  19.796  31.975  10.971 -0.0527  0.0660  0.0419
67295CHOL    C240190  20.164  32.002  11.018  0.1785 -0.0151 -0.0678
67296CHOL   ROH40191  32.962  33.825   7.977 -0.0194  0.0642 -0.0195
67296CHOL    R140192  32.764  33.966   8.121 -0.1171  0.0763 -0.1633
67296CHOL    R240193  32.785  34.017   8.392 -0.4809 -0.2441 -0.0664
67296CHOL    R340194  32.746  34.275   8.313 -0.1325 -0.1210  0.1535
67296CHOL    R440195  32.589  34.247   8.560 -0.5714 -0.2670 -0.1415
67296CHOL    R540196  32.516  34.318   8.367 -0.1865  0.0114 -0.1852
67296CHOL    C140197  32.437  34.622   8.584 -0.2964 -0.1632  0.0213
67296CHOL    C240198  32.113  34.926   8.569 -0.1174  0.0049 -0.1314
67297CHOL   ROH40199  22.587  14.733  12.451  0.1755  0.3702  0.1463
67297CHOL    R140200  22.329  14.727  12.334  0.2001  0.0700  0.1035
67297CHOL    R240201  22.106  14.831  12.459  0.0965  0.0097 -0.0274
67297CHOL    R340202  22.081  14.971  12.228  0.0301 -0.2110 -0.1557
67297CHOL    R440203  21.806  14.919  12.313  0.0540 -0.0014  0.0534
67297CHOL    R540204  21.892  14.873  12.118 -0.0761 -0.2360  0.0496
67297CHOL    C140205  21.607  15.103  12.011 -0.0328 -0.2147 -0.0197
67297CHOL    C240206  21.315  15.089  12.048  0.2645  0.0583  0.3798
67298CHOL   ROH40207   6.121   9.988  11.711  0.0717  0.2375 -0.1837
67298CHOL    R140208   5.870  10.099  11.783  0.0884  0.2687 -0.1732
67298CHOL    R240209   5.810  10.173  12.042  0.0174  0.0384 -0.1223
67298CHOL    R340210   5.751  10.412  11.926  0.1607  0.1786  0.0885
67298CHOL    R440211   5.602  10.414  12.179 -0.1212 -0.1097 -0.0707
67298CHOL    R540212   5.520  10.449  11.980  0.1013  0.1266 -0.1236
67298CHOL    C140213   5.426  10.778  12.149 -0.0674 -0.0641  0.1573
67298CHOL    C240214   5.156  10.931  12.494 -0.2167  0.1116  0.2461
67299CHOL   ROH40215  14.177  30.701  16.365 -0.0114 -0.1772  0.1171
67299CHOL    R140216  14.337  30.744  16.594 -0.0058 -0.1049  0.0996
67299CHOL    R240217  14.534  30.567  16.673  0.0911 -0.0107  0.0710
67299CHOL    R340218  14.692  30.788  16.663 -0.0188  0.0681  0.0592
67299CHOL    R440219  14.813  30.620  16.871  0.2707 -0.0206 -0.1772
67299CHOL    R540220  14.753  30.829  16.892  0.1962 -0.0608  0.0263
67299CHOL    C140221  15.124  30.858  16.976  0.2717  0.0473 -0.3328
67299CHOL    C240222  15.574  30.915  17.005  0.0429 -0.1317  0.2292
67300CHOL   ROH40223   6.700  11.749  12.397  0.0447  0.0628 -0.1061
67300CHOL    R140224   6.499  11.681  12.585  0.0684  0.0226 -0.0957
67300CHOL    R240225   6.241  11.777  12.567  0.0640  0.0157 -0.0503
67300CHOL    R340226   6.177  11.513  12.578  0.0738  0.0114 -0.0880
67300CHOL    R440227   5.918  11.652  12.573  0.0673  0.0103  0.0462
67300CHOL    R540228   5.983  11.504  12.720  0.1283 -0.0244 -0.0132
67300CHOL    C140229   5.671  11.331  12.586  0.0784  0.0031  0.0669
67300CHOL    C240230   5.505  11.245  12.348 -0.1300  0.0804 -0.1578
67301CHOL   ROH40231  13.049   5.623  17.895 -0.1711  0.0654  0.0363
67301CHOL    R140232  12.970   5.804  17.692 -0.0654  0.1554  0.0744
67301CHOL    R240233  13.120   6.024  17.621  0.2945 -0.1697 -0.1918
67301CHOL    R340234  13.102   5.917  17.372 -0.2365 -0.2240 -0.1349
67301CHOL    R440235  13.083   6.207  17.330  0.2935 -0.1928 -0.2058
67301CHOL    R540236  12.942   6.056  17.260 -0.1045  0.0607  0.0214
67301CHOL    C140237  13.044   6.212  16.927 -0.2056 -0.2572 -0.1608
67301CHOL    C240238  13.180   6.041  16.593  0.0633  0.0604 -0.1324
67302CHOL   ROH40239  30.763   7.294   3.850 -0.0884  0.0506  0.1415
67302CHOL    R140240  30.828   7.392   4.108 -0.0938 -0.0410  0.1778
67302CHOL    R240241  30.834   7.662   4.167  0.1244 -0.0536  0.2151
67302CHOL    R340242  30.662   7.590   4.365 -0.0118  0.0724  0.1442
67302CHOL    R440243  30.859   7.763   4.497  0.1245 -0.1568  0.2470
67302CHOL    R540244  30.802   7.562   4.558 -0.0990 -0.1154  0.1817
67302CHOL    C140245  30.713   7.754   4.875 -0.0033 -0.0986  0.1989
67302CHOL    C240246  31.056   7.564   5.168 -0.0424 -0.1123 -0.3591
67303CHOL   ROH40247   1.037  26.231   7.286 -0.0003 -0.0440 -0.0714
67303CHOL    R140248   0.847  26.153   7.481  0.0170  0.0648 -0.0105
67303CHOL    R240249   0.622  26.005   7.419 -0.0659  0.1540  0.0688
67303CHOL    R340250   0.717  25.840   7.613 -0.0847  0.1386  0.0643
67303CHOL    R440251   0.430  25.782   7.601 -0.0861  0.1562  0.0501
67303CHOL    R540252   0.543  25.837   7.779 -0.0909  0.1404  0.0566
67303CHOL    C140253   0.407  25.498   7.889 -0.1156  0.1439  0.0349
67303CHOL    C240254   0.105  25.388   8.116  0.2137 -0.0291  0.3459
67304CHOL   ROH40255  31.350  15.170   1.217  0.2819 -0.2025 -0.0719
67304CHOL    R140256  31.496  15.147   1.458  0.3183 -0.1248 -0.0870
67304CHOL    R240257  31.728  15.289   1.505  0.1197  0.1812 -0.0162
67304CHOL    R340258  31.596  15.370   1.728  0.0080 -0.1256  0.0311
67304CHOL    R440259  31.871  15.322   1.818  0.1331  0.4085 -0.0452
67304CHOL    R540260  31.690  15.237   1.904  0.3202  0.0254 -0.0166
67304CHOL    C140261  31.830  15.417   2.210  0.0362  0.2529 -0.0176
67304CHOL    C240262  31.715  15.490   2.560 -0.1959  0.1674 -0.0260
67305CHOL   ROH40263   0.097  18.239   6.021 -0.1364  0.1405  0.2448
67305CHOL    R140264   0.336  18.296   5.881 -0.1079 -0.0021  0.2352
67305CHOL    R240265   0.414  18.156   5.656 -0.2095 -0.0371  0.2235
67305CHOL    R340266   0.427  18.405   5.545 -0.0570 -0.0384  0.2368
67305CHOL    R440267   0.631  18.249   5.404 -0.1522 -0.1598  0.2273
67305CHOL    R540268   0.660  18.439   5.506 -0.0337 -0.1814  0.2383
67305CHOL    C140269   0.770  18.535   5.153  0.0243 -0.2321  0.2421
67305CHOL    C240270   1.175  18.621   5.242 -0.1616  0.1045  0.1707
67306CHOL   ROH40271  25.771  15.692   4.663 -0.2867  0.2683 -0.0126
67306CHOL    R140272  25.814  15.706   4.384 -0.1225  0.1213  0.0043
67306CHOL    R240273  25.607  15.735   4.203 -0.0261 -0.0844 -0.1409
67306CHOL    R340274  25.754  15.948   4.119 -0.0757 -0.0649 -0.1777
67306CHOL    R440275  25.685  15.803   3.873 -0.0868 -0.0929 -0.1569
67306CHOL    R540276  25.885  15.862   3.938 -0.0875 -0.0541 -0.1910
67306CHOL    C140277  25.867  16.044   3.602 -0.1682 -0.0798 -0.2009
67306CHOL    C240278  25.783  16.005   3.134  0.1343  0.4573  0.0794
67307CHOL   ROH40279   0.051  31.569  14.610 -0.2280  0.2736 -0.0423
67307CHOL    R140280   0.086  31.662  14.344 -0.0691  0.3321 -0.0014
67307CHOL    R240281   0.327  31.759  14.252  0.0538  0.1223  0.0929
67307CHOL    R340282   0.292  31.571  14.058 -0.0882  0.2241  0.0189
67307CHOL    R440283   0.496  31.753  13.950  0.0028  0.1471  0.0636
67307CHOL    R540284   0.310  31.694  13.853 -0.0471  0.2993  0.0674
67307CHOL    C140285   0.562  31.573  13.593 -0.1602  0.2573 -0.0229
67307CHOL    C240286   0.910  31.763  13.547 -0.0840 -0.2396 -0.1726
67308CHOL   ROH40287  10.305   5.593  18.553 -0.2472  0.2093  0.2208
67308CHOL    R140288  10.179   5.788  18.391  0.2377  0.3015 -0.0526
67308CHOL    R240289  10.288   5.874  18.151  0.2894 -0.5656 -0.3623
67308CHOL    R340290  10.045   5.804  18.053 -0.0687  0.0375  0.0555
67308CHOL    R440291  10.153   5.991  17.855  0.2666 -0.5785 -0.3569
67308CHOL    R540292   9.959   6.005  17.954  0.4252  0.1656 -0.1219
67308CHOL    C140293   9.846   5.992  17.590 -0.0827 -0.0199  0.0386
67308CHOL    C240294   9.652   6.148  17.378 -0.0418  0.2481 -0.1778
67309CHOL   ROH40295   2.397  27.917  11.765 -0.0523 -0.0251 -0.2345
67309CHOL    R140296   2.137  27.830  11.695  0.0346 -0.2386 -0.2956
67309CHOL    R240297   2.075  27.564  11.655  0.1457 -0.3409  0.1948
67309CHOL    R340298   1.882  27.615  11.841 -0.0404 -0.0098 -0.0823
67309CHOL    R440299   1.769  27.404  11.671  0.1626 -0.3719  0.2153
67309CHOL    R540300   1.676  27.596  11.719  0.0768 -0.2871 -0.2470
67309CHOL    C140301   1.410  27.358  11.854 -0.0021 -0.0791 -0.0329
67309CHOL    C240302   1.185  27.177  11.679 -0.1559 -0.1928  0.0574
67310CHOL   ROH40303  13.447  18.092  15.974  0.1899  0.0869 -0.0037
67310CHOL    R140304  13.314  17.976  16.196  0.1897  0.1387  0.0235
67310CHOL    R240305  13.293  17.703  16.230 -0.1132  0.1436 -0.0952
67310CHOL    R340306  13.404  17.757  16.473  0.1053 -0.1012 -0.1372
67310CHOL    R440307  13.216  17.537  16.524 -0.2848  0.2377 -0.0868
67310CHOL    R540308  13.223  17.729  16.627  0.1229  0.2110 -0.0570
67310CHOL    C140309  13.275  17.492  16.922 -0.1794  0.0625 -0.1215
67310CHOL    C240310  13.073  17.106  16.839 -0.0762 -0.0665  0.1821
67311CHOL   ROH40311  19.768  23.424  11.727 -0.1357  0.0011  0.4808
67311CHOL    R140312  19.985  23.411  11.908 -0.0235 -0.2499  0.3309
67311CHOL    R240313  20.209  23.257  11.861  0.0495 -0.0114 -0.1289
67311CHOL    R340314  20.340  23.491  11.903 -0.0772 -0.0125  0.2967
67311CHOL    R440315  20.548  23.286  11.921  0.0565  0.0708 -0.2052
67311CHOL    R540316  20.503  23.439  12.070  0.0202 -0.2548  0.1285
67311CHOL    C140317  20.868  23.523  11.996 -0.0586  0.1177  0.1502
67311CHOL    C240318  21.222  23.452  12.027 -0.1512 -0.0514 -0.1504
67312CHOL   ROH40319  22.793   6.350   8.763 -0.0301 -0.1221 -0.2005
67312CHOL    R140320  23.036   6.310   8.622  0.0181  0.0413 -0.1641
67312CHOL    R240321  23.279   6.402   8.717 -0.0387  0.0920 -0.0639
67312CHOL    R340322  23.353   6.142   8.684  0.0700  0.1363 -0.1725
67312CHOL    R440323  23.601   6.283   8.751 -0.0156  0.1848  0.0432
67312CHOL    R540324  23.567   6.154   8.578  0.1240  0.2716 -0.0489
67312CHOL    C140325  23.859   5.970   8.740  0.1002  0.2803  0.0038
67312CHOL    C240326  23.982   5.734   9.039 -0.3939 -0.0471 -0.0464
67313CHOL   ROH40327  21.812  10.779  13.804 -0.0278  0.4468 -0.1214
67313CHOL    R140328  21.585  10.731  13.642  0.0759  0.1091 -0.1709
67313CHOL    R240329  21.392  10.923  13.597 -0.2733 -0.2198 -0.0979
67313CHOL    R340330  21.445  10.869  13.336 -0.1413  0.0056 -0.1193
67313CHOL    R440331  21.183  11.001  13.333 -0.2419 -0.1900 -0.1143
67313CHOL    R540332  21.232  10.808  13.243 -0.0645 -0.0906 -0.2350
67313CHOL    C140333  21.111  10.995  12.934 -0.0997  0.0389 -0.1437
67313CHOL    C240334  20.825  11.330  12.807 -0.2909  0.1875  0.0643
67314CHOL   ROH40335   4.504  16.906   8.180 -0.0493  0.0663 -0.0957
67314CHOL    R140336   4.338  16.960   8.404  0.0389  0.0938 -0.0366
67314CHOL    R240337   4.229  17.209   8.451 -0.0087  0.0794 -0.0684
67314CHOL    R340338   3.995  17.070   8.458  0.0333  0.0163  0.0856
67314CHOL    R440339   3.927  17.335   8.563 -0.0118  0.0607 -0.0560
67314CHOL    R540340   3.888  17.143   8.659  0.0718  0.1080  0.0725
67314CHOL    C140341   3.532  17.277   8.635  0.0259 -0.0094  0.0960
67314CHOL    C240342   3.436  17.286   8.917  0.1141  0.1314 -0.0522
67315CHOL   ROH40343  14.023  12.196  15.323 -0.0147 -0.4006  0.0122
67315CHOL    R140344  13.986  12.233  15.601  0.0060 -0.0658 -0.0277
67315CHOL    R240345  13.953  12.022  15.776 -0.1542  0.1502  0.2062
67315CHOL    R340346  14.161  12.139  15.906 -0.0702  0.1408  0.0807
67315CHOL    R440347  14.060  11.937  16.093  0.1133  0.0614  0.0927
67315CHOL    R540348  14.090  12.149  16.135  0.1103  0.0517  0.1406
67315CHOL    C140349  14.319  11.997  16.400  0.3477  0.0008 -0.0909
67315CHOL    C240350  14.397  11.773  16.779 -0.0229  0.2814 -0.0496
67316CHOL   ROH40351  13.404  14.614  17.639 -0.1483  0.2220  0.1723
67316CHOL    R140352  13.299  14.645  17.378 -0.0838  0.0911  0.1301
67316CHOL    R240353  13.424  14.797  17.185 -0.1142  0.1183  0.1311
67316CHOL    R340354  13.406  14.568  17.039  0.0722  0.0691  0.1847
67316CHOL    R440355  13.468  14.776  16.842 -0.0404  0.0613  0.1440
67316CHOL    R540356  13.302  14.635  16.835  0.0606 -0.0568  0.1497
67316CHOL    C140357  13.476  14.549  16.507  0.1773 -0.0180  0.2016
67316CHOL    C240358  13.694  14.274  16.256  0.2822 -0.1842  0.0088
67317CHOL   ROH40359   3.540  34.501  13.188  0.2284 -0.2072 -0.1636
67317CHOL    R140360   3.337  34.372  13.337  0.0889 -0.0450 -0.2119
67317CHOL    R240361   3.392  34.209  13.552 -0.0910 -0.1244 -0.2263
67317CHOL    R340362   3.219  34.375  13.681  0.0396  0.0137 -0.2289
67317CHOL    R440363   3.200  34.122  13.827  0.0647  0.1198 -0.0377
67317CHOL    R540364   3.035  34.235  13.741  0.0393  0.1057 -0.0090
67317CHOL    C140365   2.927  34.227  14.107  0.2780  0.3915  0.0699
67317CHOL    C240366   2.878  34.032  14.464 -0.0404  0.4398 -0.0640
67318CHOL   ROH40367  34.286  25.909   9.760  0.1839 -0.2019 -0.0550
67318CHOL    R140368  34.345  26.110   9.570  0.1808 -0.2497 -0.1068
67318CHOL    R240369  34.323  26.380   9.627 -0.1977 -0.2371 -0.2955
67318CHOL    R340370  34.581  26.386   9.542 -0.0998  0.0050  0.0122
67318CHOL    R440371  34.464  26.636   9.443 -0.2537 -0.1698 -0.2452
67318CHOL    R540372  34.569  26.486   9.325  0.0530 -0.1102 -0.0491
67318CHOL    C140373  34.788  26.792   9.256 -0.1945  0.0959  0.0729
67318CHOL    C240374  34.864  26.831   8.918 -0.1282 -0.1320  0.1394
67319CHOL   ROH40375   1.249  13.876   9.970  0.0060  0.0799 -0.1425
67319CHOL    R140376   1.398  13.817   9.736  0.1450  0.2019 -0.0857
67319CHOL    R240377   1.642  13.933   9.682  0.2719  0.0792  0.2204
67319CHOL    R340378   1.724  13.675   9.659  0.1036  0.0406  0.0292
67319CHOL    R440379   1.900  13.824   9.479  0.3967  0.1119  0.3600
67319CHOL    R540380   1.780  13.650   9.428  0.3156  0.2499  0.0532
67319CHOL    C140381   2.127  13.518   9.340  0.3115  0.0946  0.2617
67319CHOL    C240382   2.425  13.643   9.224 -0.2606 -0.2390 -0.0640
67320CHOL   ROH40383  25.516  11.283   6.711 -0.2293  0.0159  0.2003
67320CHOL    R140384  25.272  11.320   6.574 -0.1635  0.0264  0.0859
67320CHOL    R240385  25.223  11.540   6.414 -0.0513 -0.0102  0.0039
67320CHOL    R340386  25.164  11.351   6.227 -0.0120 -0.0502  0.0312
67320CHOL    R440387  25.045  11.598   6.123  0.1953 -0.0213 -0.1511
67320CHOL    R540388  24.943  11.407   6.153  0.0706  0.0415 -0.1538
67320CHOL    C140389  24.886  11.455   5.779  0.3757 -0.0652 -0.2157
67320CHOL    C240390  24.429  11.254   5.660 -0.1680  0.0452 -0.0588
67321CHOL   ROH40391   5.485   8.765  16.446  0.1163  0.1752  0.1362
67321CHOL    R140392   5.581   8.679  16.195  0.1071  0.1098  0.1551
67321CHOL    R240393   5.733   8.841  16.030  0.0325  0.0947  0.0717
67321CHOL    R340394   5.907   8.633  16.038  0.0993  0.1524  0.1260
67321CHOL    R440395   5.998   8.798  15.814 -0.0240  0.0616  0.0088
67321CHOL    R540396   5.952   8.584  15.808  0.0396  0.0443  0.1367
67321CHOL    C140397   6.317   8.576  15.695  0.0059  0.0963  0.0232
67321CHOL    C240398   6.362   8.266  15.530  0.0523 -0.3026  0.1610
67322CHOL   ROH40399  24.235   1.408   7.800 -0.1963 -0.0262 -0.0091
67322CHOL    R140400  24.379   1.367   8.040 -0.0452 -0.0160 -0.0967
67322CHOL    R240401  24.415   1.566   8.228 -0.0408 -0.0435 -0.0654
67322CHOL    R340402  24.308   1.381   8.397  0.1392 -0.1392 -0.0551
67322CHOL    R440403  24.447   1.571   8.572 -0.0723  0.0183 -0.0635
67322CHOL    R540404  24.474   1.355   8.568  0.1528  0.0469 -0.0413
67322CHOL    C140405  24.365   1.402   8.931  0.0785 -0.0356 -0.0530
67322CHOL    C240406  24.463   1.580   9.363  0.1926  0.1542 -0.3208
67323CHOL   ROH40407  11.207   9.791  17.089  0.2583  0.2206 -0.2535
67323CHOL    R140408  11.056  10.030  17.101  0.0664  0.1054 -0.3489
67323CHOL    R240409  10.818  10.062  16.965 -0.0948 -0.2340 -0.1529
67323CHOL    R340410  10.723  10.128  17.212  0.0893 -0.0670 -0.1257
67323CHOL    R440411  10.551  10.274  17.025 -0.1501 -0.3176 -0.1032
67323CHOL    R540412  10.662  10.359  17.193 -0.0444 -0.1143 -0.2735
67323CHOL    C140413  10.307  10.458  17.291 -0.0096 -0.2095 -0.0485
67323CHOL    C240414   9.968  10.560  17.324  0.1305  0.1913 -0.0941
67324CHOL   ROH40415  19.775  13.594  10.664 -0.0483  0.1477  0.0720
67324CHOL    R140416  20.009  13.728  10.747 -0.1604  0.2882  0.1647
67324CHOL    R240417  20.021  13.877  10.979 -0.1975 -0.1247  0.4377
67324CHOL    R340418  20.233  13.716  11.034  0.0421  0.0327 -0.0009
67324CHOL    R440419  20.278  13.957  11.196  0.0309 -0.0639  0.1477
67324CHOL    R540420  20.418  13.867  11.055 -0.0753  0.1973 -0.1299
67324CHOL    C140421  20.627  13.852  11.373  0.3887  0.1192 -0.4327
67324CHOL    C240422  20.888  14.135  11.411  0.5195  0.0839 -0.0337
67325CHOL   ROH40423  22.187  16.369   4.981  0.0304 -0.4043 -0.0746
67325CHOL    R140424  22.469  16.350   4.988  0.0380 -0.2766 -0.0180
67325CHOL    R240425  22.621  16.456   5.193 -0.0506 -0.2020  0.0095
67325CHOL    R340426  22.719  16.203   5.208  0.0609 -0.1576  0.0358
67325CHOL    R440427  22.914  16.367   5.353  0.0244 -0.0462 -0.0400
67325CHOL    R540428  22.956  16.230   5.189  0.0452 -0.0599 -0.0235
67325CHOL    C140429  23.177  16.078   5.460  0.1725  0.0863 -0.0441
67325CHOL    C240430  23.436  16.158   5.307  0.0009 -0.1259  0.0474
67326CHOL   ROH40431   8.553   8.337  14.610 -0.0358 -0.0106 -0.1241
67326CHOL    R140432   8.384   8.349  14.836 -0.0651  0.0864 -0.1508
67326CHOL    R240433   8.436   8.207  15.068 -0.1919  0.0433 -0.1487
67326CHOL    R340434   8.415   8.452  15.184 -0.0555  0.0520 -0.1414
67326CHOL    R440435   8.258   8.274  15.357  0.0669  0.0829  0.0026
67326CHOL    R540436   8.190   8.460  15.266  0.0153  0.0888  0.0528
67326CHOL    C140437   8.135   8.543  15.634  0.3453  0.1141  0.0978
67326CHOL    C240438   8.262   8.608  15.952 -0.0623  0.4849  0.1076
67327CHOL   ROH40439  29.559   6.370   8.460  0.4659 -0.1290  0.0026
67327CHOL    R140440  29.737   6.162   8.390  0.2949 -0.2640 -0.0345
67327CHOL    R240441  29.746   5.922   8.527  0.2117 -0.2320  0.0266
67327CHOL    R340442  29.709   5.816   8.279  0.0124 -0.2777  0.0748
67327CHOL    R440443  29.942   5.675   8.387  0.1862 -0.1581 -0.1407
67327CHOL    R540444  29.931   5.780   8.197 -0.0526 -0.1851 -0.1430
67327CHOL    C140445  30.022   5.431   8.073 -0.0157 -0.1578 -0.1929
67327CHOL    C240446  30.086   5.374   7.689 -0.1226  0.2263 -0.0475
67328CHOL   ROH40447  10.590  35.293  16.149 -0.0722  0.2296 -0.2009
67328CHOL    R140448  10.731   0.009  16.372 -0.0426  0.0182 -0.1232
67328CHOL    R240449  10.858   0.255  16.370  0.1610 -0.0838  0.0125
67328CHOL    R340450  10.707   0.299  16.592  0.1429 -0.0542 -0.0058
67328CHOL    R440451  10.956   0.444  16.641  0.1398 -0.0505 -0.0031
67328CHOL    R540452  10.865   0.296  16.772  0.1275 -0.0331  0.0082
67328CHOL    C140453  10.873   0.596  17.008  0.1104 -0.0033 -0.0289
67328CHOL    C240454  11.278   0.671  16.993  0.1836  0.0021 -0.2652
67329CHOL   ROH40455  32.086  27.637   9.758  0.2605 -0.2182  0.0474
67329CHOL    R140456  32.291  27.636   9.563  0.0935 -0.0626 -0.1291
67329CHOL    R240457  32.240  27.679   9.295 -0.1318  0.1856 -0.0473
67329CHOL    R340458  32.428  27.873   9.323 -0.0870  0.1401 -0.0340
67329CHOL    R440459  32.419  27.820   9.035 -0.3086  0.3664 -0.0727
67329CHOL    R540460  32.596  27.817   9.161 -0.2136  0.2439 -0.2049
67329CHOL    C140461  32.699  28.084   8.910 -0.3696  0.4289 -0.0750
67329CHOL    C240462  32.983  27.989   8.632  0.1077 -0.0639  0.0097
67330CHOL   ROH40463  15.540  19.642  15.548 -0.2046 -0.1082  0.0312
67330CHOL    R140464  15.753  19.503  15.672 -0.2207 -0.1137  0.0520
67330CHOL    R240465  15.955  19.632  15.809 -0.0978 -0.1030 -0.1395
67330CHOL    R340466  15.882  19.465  16.010 -0.0943  0.0955  0.0280
67330CHOL    R440467  16.168  19.510  16.052  0.0000 -0.1993 -0.2726
67330CHOL    R540468  16.068  19.317  16.035 -0.2331 -0.0992 -0.0656
67330CHOL    C140469  16.224  19.282  16.382  0.0599 -0.0688 -0.1922
67330CHOL    C240470  16.415  18.985  16.296  0.0837 -0.0812  0.0200
67331CHOL   ROH40471  22.512  35.130   8.323 -0.0727 -0.0270 -0.0817
67331CHOL    R140472  22.466  34.909   8.493  0.0069  0.0019 -0.0228
67331CHOL    R240473  22.524  34.649   8.418 -0.0193 -0.0102 -0.0019
67331CHOL    R340474  22.668  34.649   8.649  0.0810  0.0341 -0.0641
67331CHOL    R440475  22.615  34.366   8.594 -0.0353  0.0294  0.0702
67331CHOL    R540476  22.572  34.473   8.779  0.0792  0.1167  0.0473
67331CHOL    C140477  22.804  34.201   8.912  0.0487  0.0934  0.0537
67331CHOL    C240478  22.902  34.034   9.206  0.1810  0.2010 -0.2028
67332CHOL   ROH40479   4.361   0.961  13.081  0.1381  0.0908 -0.0893
67332CHOL    R140480   4.192   1.004  13.304  0.1495 -0.0742 -0.0480
67332CHOL    R240481   4.021   1.220  13.322  0.2339 -0.0233  0.1719
67332CHOL    R340482   3.834   1.027  13.364  0.1569  0.0052 -0.0338
67332CHOL    R440483   3.741   1.257  13.521  0.2266 -0.1086  0.1772
67332CHOL    R540484   3.772   1.054  13.594  0.1426 -0.1920 -0.0140
67332CHOL    C140485   3.402   1.097  13.676  0.1500 -0.1316 -0.0129
67332CHOL    C240486   3.051   0.996  13.492  0.0156 -0.1179 -0.2154
67333CHOL   ROH40487  15.214  35.229  17.728 -0.2081  0.0899  0.0059
67333CHOL    R140488  15.005  35.103  17.584 -0.1080 -0.0549 -0.0132
67333CHOL    R240489  14.924  35.188  17.334 -0.1800 -0.0781  0.0028
67333CHOL    R340490  14.970  34.929  17.266  0.0292 -0.0290 -0.0423
67333CHOL    R440491  14.757  35.016  17.085 -0.2120 -0.2403  0.1348
67333CHOL    R540492  14.753  34.841  17.215  0.0741 -0.2495  0.1337
67333CHOL    C140493  14.703  34.673  16.876 -0.0341 -0.2892  0.1690
67333CHOL    C240494  14.655  34.331  16.658  0.0289 -0.0034  0.1172
67334CHOL   ROH40495  33.673  34.035   8.565  0.1886  0.3494 -0.0119
67334CHOL    R140496  33.688  34.159   8.819 -0.0732  0.1911  0.0837
67334CHOL    R240497  33.481  34.149   9.002 -0.1391 -0.1997 -0.0065
67334CHOL    R340498  33.675  34.053   9.167 -0.0835 -0.0729  0.0038
67334CHOL    R440499  33.475  34.169   9.347 -0.0061  0.0984 -0.0197
67334CHOL    R540500  33.689  34.214   9.344 -0.0034  0.0797 -0.1396
67334CHOL    C140501  33.654  34.090   9.703  0.1236  0.3916 -0.0179
67334CHOL    C240502  33.535  33.983   9.967 -0.1085  0.2519  0.2056
67335CHOL   ROH40503   9.341  15.548  17.523  0.1306 -0.1779 -0.1128
67335CHOL    R140504   9.217  15.506  17.272  0.1170 -0.0802 -0.1225
67335CHOL    R240505   9.124  15.714  17.116  0.0232 -0.0245  0.0064
67335CHOL    R340506   9.282  15.600  16.926  0.0437  0.1404 -0.0774
67335CHOL    R440507   9.167  15.835  16.795 -0.1150  0.1324  0.0462
67335CHOL    R540508   9.161  15.630  16.722 -0.0188  0.1591 -0.0378
67335CHOL    C140509   9.340  15.798  16.430 -0.1765  0.3787 -0.0090
67335CHOL    C240510   9.641  15.795  16.128  0.5213  0.0720 -0.0258
67336CHOL   ROH40511  22.832  28.559  10.729 -0.0946 -0.0184  0.1009
67336CHOL    R140512  22.748  28.366  10.539 -0.1324  0.0298  0.0685
67336CHOL    R240513  22.529  28.204  10.579 -0.1124  0.0042  0.0808
67336CHOL    R340514  22.450  28.304  10.339 -0.1813  0.0680  0.1301
67336CHOL    R440515  22.271  28.077  10.387 -0.0324 -0.0711  0.0237
67336CHOL    R540516  22.394  28.111  10.210 -0.0574  0.0935  0.0384
67336CHOL    C140517  22.048  28.098  10.049 -0.0515 -0.0554  0.0371
67336CHOL    C240518  22.023  27.741  10.083 -0.0640  0.2200 -0.0520
67337CHOL   ROH40519  26.794  28.563   9.034 -0.2076  0.1776  0.0022
67337CHOL    R140520  26.892  28.742   8.837 -0.1026 -0.0525 -0.1583
67337CHOL    R240521  26.923  28.670   8.573 -0.3137 -0.2528 -0.1314
67337CHOL    R340522  26.769  28.889   8.529 -0.0912 -0.1061 -0.1880
67337CHOL    R440523  26.872  28.817   8.264 -0.2542 -0.3464 -0.1861
67337CHOL    R540524  26.887  29.012   8.360 -0.0128 -0.3143 -0.2854
67337CHOL    C140525  26.698  29.108   8.043 -0.0105 -0.2634 -0.2706
67337CHOL    C240526  26.837  29.287   7.715 -0.0611 -0.0477 -0.0521
67338CHOL   ROH40527  20.721  33.694   8.775 -0.1696 -0.3884  0.0108
67338CHOL    R140528  20.886  33.603   8.986 -0.1940 -0.4169  0.0168
67338CHOL    R240529  20.976  33.342   9.002  0.3408 -0.2608 -0.3643
67338CHOL    R340530  21.220  33.461   9.018  0.0805  0.2318  0.1029
67338CHOL    R440531  21.221  33.260   9.231  0.3611 -0.3403 -0.4141
67338CHOL    R540532  21.265  33.473   9.253 -0.1072 -0.2857  0.1732
67338CHOL    C140533  21.593  33.325   9.380  0.1290  0.0751 -0.0043
67338CHOL    C240534  21.785  33.393   9.776  0.0989  0.2219  0.0079
67339CHOL   ROH40535  27.419  16.460   0.614  0.1602 -0.2890 -0.0007
67339CHOL    R140536  27.526  16.367   0.860  0.1598  0.0263  0.1210
67339CHOL    R240537  27.572  16.535   1.074 -0.2550  0.2286  0.0591
67339CHOL    R340538  27.418  16.354   1.207 -0.0426  0.0447  0.0593
67339CHOL    R440539  27.529  16.527   1.417 -0.0858  0.0490  0.0771
67339CHOL    R540540  27.540  16.309   1.408  0.0910  0.0616 -0.0177
67339CHOL    C140541  27.358  16.353   1.741  0.2124 -0.2282  0.0877
67339CHOL    C240542  27.382  16.313   2.124 -0.1815 -0.0087  0.3266
67340CHOL   ROH40543  20.848   9.620  10.550  0.2158  0.1003  0.0411
67340CHOL    R140544  21.074   9.524  10.690  0.1446  0.0498  0.1215
67340CHOL    R240545  21.297   9.680  10.738  0.2004 -0.0289  0.1175
67340CHOL    R340546  21.251   9.608  10.996  0.1148  0.0751  0.1320
67340CHOL    R440547  21.517   9.733  10.999  0.1062  0.0937  0.1730
67340CHOL    R540548  21.465   9.535  11.076  0.0921  0.1214  0.2369
67340CHOL    C140549  21.602   9.696  11.394 -0.0288  0.2629  0.2187
67340CHOL    C240550  21.906   9.908  11.314  0.0391  0.1978 -0.1150
67341CHOL   ROH40551   2.927   3.442  15.016  0.1348  0.0307 -0.0845
67341CHOL    R140552   3.209   3.451  14.997  0.1453 -0.1958 -0.0516
67341CHOL    R240553   3.363   3.226  14.952 -0.0621 -0.2573 -0.4769
67341CHOL    R340554   3.460   3.373  14.746  0.0833  0.0527 -0.1926
67341CHOL    R440555   3.672   3.178  14.804 -0.0210 -0.1363 -0.4306
67341CHOL    R540556   3.694   3.395  14.793  0.0736 -0.1229 -0.0579
67341CHOL    C140557   3.943   3.289  14.524  0.1395  0.2250 -0.1369
67341CHOL    C240558   4.333   3.503  14.418 -0.2284 -0.1629  0.0454
67342CHOL   ROH40559  24.386  31.117   9.892 -0.4032 -0.0065  0.3634
67342CHOL    R140560  24.157  31.184   9.739 -0.2388  0.0113  0.1213
67342CHOL    R240561  24.131  31.427   9.610 -0.0452 -0.0216  0.0155
67342CHOL    R340562  24.086  31.270   9.393  0.1189 -0.0800  0.0237
67342CHOL    R440563  23.919  31.507   9.348 -0.1003 -0.2424 -0.0078
67342CHOL    R540564  23.853  31.299   9.345  0.0954 -0.3036  0.0021
67342CHOL    C140565  23.754  31.406   8.992  0.0215 -0.4254 -0.0138
67342CHOL    C240566  23.647  31.417   8.640 -0.2580 -0.4655 -0.0994
67343CHOL   ROH40567  29.234  29.962   5.654  0.2904  0.0382  0.2700
67343CHOL    R140568  29.091  29.743   5.763 -0.0475  0.1780  0.1137
67343CHOL    R240569  29.204  29.564   5.941 -0.2588 -0.2378 -0.1611
67343CHOL    R340570  28.990  29.631   6.094 -0.0376 -0.0093  0.0542
67343CHOL    R440571  29.118  29.410   6.238 -0.1890 -0.2239 -0.1335
67343CHOL    R540572  28.909  29.421   6.177 -0.2325  0.0656  0.0578
67343CHOL    C140573  28.867  29.382   6.554  0.0590 -0.0008  0.0846
67343CHOL    C240574  28.706  29.446   6.913 -0.0019 -0.0224 -0.4256
67344CHOL   ROH40575   1.004  24.092  11.859 -0.0566  0.0994  0.2605
67344CHOL    R140576   1.275  24.171  11.843 -0.0521  0.0935  0.3073
67344CHOL    R240577   1.351  24.426  11.768 -0.0313  0.0690  0.2465
67344CHOL    R340578   1.488  24.420  12.004 -0.0936  0.1436  0.2848
67344CHOL    R440579   1.558  24.678  11.884  0.1829 -0.0261  0.0741
67344CHOL    R540580   1.697  24.525  11.954  0.0204 -0.0998  0.2407
67344CHOL    C140581   1.806  24.819  12.172  0.2490 -0.0114  0.0097
67344CHOL    C240582   1.992  24.997  12.409  0.1394 -0.4226  0.3281
67345CHOL   ROH40583  33.541  15.441   1.766 -0.0120  0.2501  0.0771
67345CHOL    R140584  33.596  15.362   2.032 -0.0217  0.1755  0.0571
67345CHOL    R240585  33.601  15.540   2.242  0.0023  0.1219  0.1027
67345CHOL    R340586  33.421  15.368   2.351 -0.0203  0.1173  0.0588
67345CHOL    R440587  33.532  15.514   2.580 -0.0755  0.1153  0.0863
67345CHOL    R540588  33.523  15.297   2.556 -0.0671  0.1159  0.0812
67345CHOL    C140589  33.323  15.337   2.879 -0.1428  0.1073  0.0354
67345CHOL    C240590  33.286  15.530   3.217  0.1948 -0.3562  0.0489
67346CHOL   ROH40591  18.227  11.780  13.708  0.1870  0.1378 -0.1851
67346CHOL    R140592  18.278  11.737  13.983 -0.0383  0.2495 -0.1245
67346CHOL    R240593  18.472  11.563  14.073 -0.3243  0.0464  0.1101
67346CHOL    R340594  18.560  11.781  14.210 -0.1166  0.0216  0.0179
67346CHOL    R440595  18.709  11.556  14.325 -0.1558 -0.0374 -0.0496
67346CHOL    R540596  18.590  11.702  14.434 -0.0046  0.0415  0.0094
67346CHOL    C140597  18.930  11.756  14.599  0.1374 -0.1094 -0.2293
67346CHOL    C240598  19.266  11.792  14.606  0.2362  0.2610 -0.1579
67347CHOL   ROH40599   6.902  11.658  12.784 -0.0940 -0.0107 -0.0348
67347CHOL    R140600   6.702  11.583  12.970 -0.0302 -0.1483 -0.0205
67347CHOL    R240601   6.500  11.754  13.047  0.0788 -0.1541  0.2863
67347CHOL    R340602   6.340  11.549  12.969 -0.0454  0.0040  0.1216
67347CHOL    R440603   6.165  11.724  13.127  0.0861 -0.0690  0.3497
67347CHOL    R540604   6.197  11.510  13.157 -0.0108 -0.1170  0.1231
67347CHOL    C140605   5.820  11.513  13.100 -0.0263  0.1287  0.2322
67347CHOL    C240606   5.387  11.269  12.981  0.3801  0.0337  0.0340
67348CHOL   ROH40607  33.122  19.508   1.315  0.4400  0.0072  0.3037
67348CHOL    R140608  32.928  19.531   1.520  0.1579  0.2474  0.0152
67348CHOL    R240609  32.975  19.447   1.779 -0.4054 -0.0022  0.0420
67348CHOL    R340610  32.901  19.701   1.841 -0.0216  0.1031  0.0778
67348CHOL    R440611  32.910  19.562   2.099 -0.8163 -0.1137  0.0020
67348CHOL    R540612  32.743  19.676   2.018 -0.4345  0.2836 -0.2556
67348CHOL    C140613  32.804  19.867   2.343 -0.6957 -0.0798  0.0123
67348CHOL    C240614  32.819  20.184   2.505 -0.1264 -0.1733  0.3358
67349CHOL   ROH40615  19.533  19.790  11.756  0.1028  0.1983 -0.1515
67349CHOL    R140616  19.763  19.902  11.876 -0.0603  0.2937  0.0749
67349CHOL    R240617  19.770  19.979  12.141 -0.2266 -0.0773  0.1900
67349CHOL    R340618  19.987  19.816  12.150 -0.0401  0.1590  0.0163
67349CHOL    R440619  20.016  19.991  12.384 -0.1734  0.0284  0.1312
67349CHOL    R540620  20.164  19.958  12.228 -0.1764  0.3042  0.0667
67349CHOL    C140621  20.363  19.845  12.533  0.0328  0.3120 -0.0662
67349CHOL    C240622  20.871  19.953  12.527 -0.3362  0.0776  0.2282
67350CHOL   ROH40623   8.540  30.756  20.460  0.0464  0.2172 -0.0395
67350CHOL    R140624   8.436  30.741  20.197  0.0619  0.2878 -0.0496
67350CHOL    R240625   8.531  30.897  19.991  0.2993  0.1089 -0.0762
67350CHOL    R340626   8.564  30.658  19.867 -0.0027  0.0317 -0.0114
67350CHOL    R440627   8.458  30.835  19.659  0.1834  0.1022 -0.0494
67350CHOL    R540628   8.377  30.642  19.718 -0.0422  0.2138  0.0160
67350CHOL    C140629   8.446  30.574  19.349 -0.1674  0.0259  0.0264
67350CHOL    C240630   8.465  30.400  18.974  0.0708 -0.2078  0.2029
67351CHOL   ROH40631  16.432   0.820  15.657  0.0283 -0.3651  0.1969
67351CHOL    R140632  16.210   0.738  15.502  0.2375 -0.4632 -0.0540
67351CHOL    R240633  16.018   0.914  15.413 -0.0532 -0.6310  0.2318
67351CHOL    R340634  16.079   0.808  15.170  0.2390 -0.0324  0.0342
67351CHOL    R440635  15.801   0.897  15.144 -0.0391 -0.8056  0.2311
67351CHOL    R540636  15.878   0.698  15.101  0.5502 -0.5133 -0.1275
67351CHOL    C140637  15.733   0.788  14.760  0.2430 -0.3454  0.0451
67351CHOL    C240638  15.346   0.903  14.628 -0.2586  0.0974 -0.0025
67352CHOL   ROH40639  21.619  20.143  14.618 -0.2398 -0.1067  0.1482
67352CHOL    R140640  21.346  20.132  14.545 -0.2510  0.1245  0.1526
67352CHOL    R240641  21.212  20.348  14.437  0.0136  0.1444 -0.1446
67352CHOL    R340642  21.152  20.171  14.239 -0.1894 -0.0521  0.0902
67352CHOL    R440643  20.955  20.386  14.209  0.0237  0.1106 -0.1616
67352CHOL    R540644  20.913  20.173  14.229 -0.1900  0.1755  0.1190
67352CHOL    C140645  20.748  20.241  13.891 -0.1610 -0.0939  0.0489
67352CHOL    C240646  20.727  20.546  13.633 -0.4558 -0.0203 -0.0646
67353CHOL   ROH40647  14.375  23.298  17.897 -0.2124 -0.0255 -0.0916
67353CHOL    R140648  14.439  23.154  18.132 -0.1277  0.0376 -0.0759
67353CHOL    R240649  14.694  23.147  18.237 -0.1091  0.1420 -0.1141
67353CHOL    R340650  14.570  23.232  18.463 -0.1032  0.1390 -0.1094
67353CHOL    R440651  14.821  23.114  18.557 -0.0628  0.2121 -0.1253
67353CHOL    R540652  14.621  23.064  18.626 -0.0424  0.1713 -0.0952
67353CHOL    C140653  14.778  23.176  18.955 -0.0299  0.2504 -0.1274
67353CHOL    C240654  14.769  22.766  19.078  0.1885  0.0195  0.2805
67354CHOL   ROH40655  34.716  32.426   9.537 -0.2164  0.0392 -0.0191
67354CHOL    R140656  34.459  32.541   9.521 -0.1507  0.1785 -0.0909
67354CHOL    R240657  34.242  32.442   9.661 -0.2897  0.1701 -0.3100
67354CHOL    R340658  34.224  32.697   9.752 -0.2218  0.1056 -0.1138
67354CHOL    R440659  33.978  32.567   9.845 -0.3105  0.1282 -0.3117
67354CHOL    R540660  33.992  32.752   9.729 -0.1923  0.2159 -0.1601
67354CHOL    C140661  33.807  32.880  10.037 -0.2583  0.0439 -0.1285
67354CHOL    C240662  33.711  33.216  10.228  0.0208  0.0098  0.0907
67355CHOL   ROH40663   2.549   9.607   7.689 -0.0650 -0.3030 -0.0525
67355CHOL    R140664   2.342   9.520   7.860  0.0431 -0.1757  0.1449
67355CHOL    R240665   2.357   9.542   8.135  0.0949  0.3004  0.1095
67355CHOL    R340666   2.121   9.673   8.106 -0.0138  0.0713 -0.0570
67355CHOL    R440667   2.096   9.530   8.361  0.0063  0.1726  0.0016
67355CHOL    R540668   1.957   9.521   8.193  0.0867 -0.0360 -0.0546
67355CHOL    C140669   1.722   9.647   8.466 -0.1472 -0.1168 -0.2179
67355CHOL    C240670   1.447   9.786   8.698 -0.1674  0.0354  0.3268
67356CHOL   ROH40671  28.916   4.361  10.075  0.1688 -0.1370  0.1682
67356CHOL    R140672  29.018   4.315   9.815  0.2214  0.0714  0.1516
67356CHOL    R240673  29.288   4.322   9.757  0.2606 -0.2563  0.2931
67356CHOL    R340674  29.241   4.074   9.656 -0.0669 -0.0487 -0.0778
67356CHOL    R440675  29.456   4.183   9.489  0.4837 -0.2915  0.4495
67356CHOL    R540676  29.266   4.101   9.420  0.4349  0.1766 -0.0064
67356CHOL    C140677  29.509   3.869   9.239  0.3058 -0.1170  0.1921
67356CHOL    C240678  29.448   3.523   9.045 -0.0792 -0.0200  0.0877
67357CHOL   ROH40679  17.991  11.121  17.445 -0.0354  0.1649 -0.3318
67357CHOL    R140680  17.868  11.196  17.201 -0.0847  0.0596 -0.3399
67357CHOL    R240681  17.677  11.041  17.076 -0.3344  0.1512 -0.0760
67357CHOL    R340682  17.531  11.270  17.086 -0.0664  0.3317 -0.2237
67357CHOL    R440683  17.365  11.082  16.933 -0.4398  0.3103  0.1951
67357CHOL    R540684  17.425  11.282  16.871 -0.2760  0.1635 -0.1328
67357CHOL    C140685  17.046  11.321  16.859 -0.2496  0.5723  0.2148
67357CHOL    C240686  16.611  11.350  16.759  0.0691 -0.0467  0.0573
67358CHOL   ROH40687   8.963  22.654  21.132 -0.1307 -0.3861 -0.1146
67358CHOL    R140688   9.032  22.863  20.953 -0.1599 -0.2861 -0.0093
67358CHOL    R240689   9.245  22.845  20.779 -0.0849 -0.1195  0.0668
67358CHOL    R340690   9.056  22.904  20.593 -0.0406 -0.1369  0.0152
67358CHOL    R440691   9.312  22.954  20.458 -0.0090  0.2075  0.1917
67358CHOL    R540692   9.145  23.094  20.476 -0.1472  0.0431  0.2201
67358CHOL    C140693   9.173  23.074  20.096  0.0770  0.3817  0.2166
67358CHOL    C240694   8.979  23.134  19.794  0.0411  0.0793 -0.1161
67359CHOL   ROH40695   4.755  31.309  19.478  0.1682 -0.0768  0.0812
67359CHOL    R140696   4.850  31.422  19.236  0.0655 -0.1846 -0.0101
67359CHOL    R240697   5.035  31.627  19.229 -0.1523  0.0114 -0.1736
67359CHOL    R340698   5.171  31.456  19.068  0.0432  0.0135 -0.0129
67359CHOL    R440699   5.241  31.723  18.969 -0.1458  0.0036 -0.1711
67359CHOL    R540700   5.161  31.558  18.851  0.0300 -0.1427 -0.0854
67359CHOL    C140701   5.489  31.618  18.666  0.0415  0.0016 -0.0188
67359CHOL    C240702   5.868  31.800  18.593  0.1112 -0.0055 -0.0706
67360CHOL   ROH40703   4.283  16.165  14.958 -0.1747 -0.3588  0.1405
67360CHOL    R140704   4.449  15.935  14.951 -0.1345 -0.3234 -0.1125
67360CHOL    R240705   4.542  15.826  14.715  0.0245  0.0521 -0.2264
67360CHOL    R340706   4.784  15.854  14.835 -0.0516 -0.0922 -0.0373
67360CHOL    R440707   4.837  15.688  14.599  0.0892  0.1498 -0.1789
67360CHOL    R540708   4.890  15.641  14.806 -0.0496 -0.0707 -0.1911
67360CHOL    C140709   5.236  15.634  14.645  0.0555  0.0714  0.0264
67360CHOL    C240710   5.473  15.600  14.404  0.0730  0.0516 -0.2509
67361CHOL   ROH40711  31.801  20.942   0.372  0.1422  0.1881 -0.0508
67361CHOL    R140712  31.807  20.999   0.649  0.1770  0.0774 -0.0284
67361CHOL    R240713  31.639  21.184   0.767  0.2482  0.0912  0.0532
67361CHOL    R340714  31.576  20.975   0.929  0.1830  0.0491 -0.0262
67361CHOL    R440715  31.438  21.206   1.047  0.0057 -0.0153 -0.1106
67361CHOL    R540716  31.575  21.070   1.149 -0.0340  0.0187 -0.0145
67361CHOL    C140717  31.262  21.022   1.363 -0.1970 -0.1169 -0.2806
67361CHOL    C240718  31.134  21.122   1.602 -0.2899  0.3053  0.0752
67362CHOL   ROH40719  24.545  27.924   5.817 -0.3300  0.0020  0.1819
67362CHOL    R140720  24.818  27.863   5.774 -0.3017  0.1162  0.1953
67362CHOL    R240721  24.969  27.720   5.956 -0.2903  0.0485  0.1347
67362CHOL    R340722  25.020  27.562   5.741 -0.1998  0.2001  0.0439
67362CHOL    R440723  25.274  27.572   5.888 -0.2743  0.0607  0.1810
67362CHOL    R540724  25.243  27.619   5.677 -0.1600  0.2195  0.2002
67362CHOL    C140725  25.499  27.337   5.646 -0.1802  0.2102  0.1228
67362CHOL    C240726  25.624  26.957   5.561 -0.0048  0.2182  0.1399
67363CHOL   ROH40727  20.502  24.499  10.257 -0.0517  0.4311  0.1840
67363CHOL    R140728  20.725  24.371  10.377 -0.2052  0.2340  0.2600
67363CHOL    R240729  20.985  24.441  10.318 -0.1191 -0.1832  0.1406
67363CHOL    R340730  21.005  24.469  10.587 -0.0250  0.0455  0.1114
67363CHOL    R440731  21.274  24.525  10.488 -0.0507 -0.0710 -0.0294
67363CHOL    R540732  21.220  24.381  10.642 -0.0164  0.0656  0.1137
67363CHOL    C140733  21.461  24.601  10.839  0.0773  0.2093 -0.1559
67363CHOL    C240734  21.608  24.856  10.948 -0.2338 -0.1701 -0.0319
67364CHOL   ROH40735  28.087   5.965   4.721  0.1969  0.1957 -0.0329
67364CHOL    R140736  28.101   6.179   4.906  0.0538  0.0986  0.0922
67364CHOL    R240737  28.069   6.143   5.178  0.1708 -0.0959  0.0816
67364CHOL    R340738  28.310   6.269   5.190  0.0576  0.1213  0.0821
67364CHOL    R440739  28.240   6.215   5.470  0.1663 -0.0570  0.0745
67364CHOL    R540740  28.294   6.408   5.385 -0.0299  0.0281  0.1418
67364CHOL    C140741  28.565   6.376   5.651  0.0573  0.1698  0.0709
67364CHOL    C240742  28.820   6.438   5.915 -0.1717 -0.0522  0.0273
67365CHOL   ROH40743  19.303  25.061  12.433 -0.0059 -0.0522 -0.0028
67365CHOL    R140744  19.585  25.054  12.411 -0.0006 -0.3103  0.1276
67365CHOL    R240745  19.745  25.269  12.476  0.1293 -0.2727 -0.3007
67365CHOL    R340746  19.869  25.088  12.636 -0.0701 -0.0020  0.1700
67365CHOL    R440747  20.021  25.336  12.673  0.0431 -0.0025 -0.2699
67365CHOL    R540748  20.102  25.141  12.617 -0.0286 -0.1719  0.1981
67365CHOL    C140749  20.298  25.205  12.938 -0.1942  0.4091  0.1901
67365CHOL    C240750  20.534  25.304  13.218 -0.1781  0.2025 -0.3161
67366CHOL   ROH40751   2.352  14.509  10.694 -0.0521 -0.0429  0.0042
67366CHOL    R140752   2.586  14.607  10.569 -0.1058  0.0227 -0.0448
67366CHOL    R240753   2.839  14.525  10.642 -0.0607  0.1973 -0.0040
67366CHOL    R340754   2.862  14.467  10.378 -0.0296  0.0779  0.0245
67366CHOL    R440755   3.138  14.470  10.477 -0.0354  0.2071  0.0383
67366CHOL    R540756   3.060  14.584  10.308 -0.0603  0.1039 -0.0201
67366CHOL    C140757   3.333  14.384  10.133  0.0086  0.1009  0.0896
67366CHOL    C240758   3.476  14.159   9.862  0.0783  0.2769  0.0376
67367CHOL   ROH40759   8.838   1.769  15.890  0.1118  0.2404 -0.0575
67367CHOL    R140760   8.702   1.944  16.067 -0.1008 -0.0124  0.0322
67367CHOL    R240761   8.526   1.853  16.259  0.1854 -0.3448  0.1431
67367CHOL    R340762   8.686   1.995  16.427  0.0317 -0.0521  0.0441
67367CHOL    R440763   8.459   1.914  16.593  0.2289 -0.3765  0.1574
67367CHOL    R540764   8.533   2.117  16.566 -0.1036 -0.2618  0.0799
67367CHOL    C140765   8.569   2.083  16.944  0.1098 -0.1202  0.0729
67367CHOL    C240766   8.724   2.304  17.315  0.0598  0.0953 -0.0521
67368CHOL   ROH40767  18.894  14.083  11.627 -0.1383  0.2505 -0.2155
67368CHOL    R140768  19.145  14.136  11.746 -0.2041  0.2571 -0.0802
67368CHOL    R240769  19.384  14.093  11.615 -0.1315  0.2238  0.0642
67368CHOL    R340770  19.429  14.353  11.680 -0.1539  0.2319  0.0479
67368CHOL    R440771  19.691  14.224  11.706 -0.1764  0.2172  0.2280
67368CHOL    R540772  19.589  14.344  11.857 -0.2615  0.2497  0.1478
67368CHOL    C140773  19.911  14.545  11.819 -0.2239  0.2211  0.3081
67368CHOL    C240774  20.000  14.668  12.259  0.0049 -0.0615  0.0028
67369CHOL   ROH40775  20.102  17.173  10.685 -0.0078 -0.1182 -0.0106
67369CHOL    R140776  20.275  17.194  10.908  0.0740 -0.1978 -0.0663
67369CHOL    R240777  20.542  17.125  10.896  0.0878 -0.1257 -0.2090
67369CHOL    R340778  20.579  17.377  10.991  0.0611 -0.1681 -0.0857
67369CHOL    R440779  20.845  17.255  10.998  0.1167 -0.0628 -0.3748
67369CHOL    R540780  20.742  17.352  11.164  0.2111 -0.2054 -0.2326
67369CHOL    C140781  21.056  17.569  11.147  0.1089 -0.0654 -0.3556
67369CHOL    C240782  21.391  17.687  11.048  0.2630  0.3915  0.0865
67370CHOL   ROH40783  32.345  33.491  11.361 -0.0996 -0.0379 -0.0851
67370CHOL    R140784  32.481  33.641  11.164  0.0050 -0.0793 -0.0446
67370CHOL    R240785  32.727  33.566  11.063 -0.0780 -0.2594 -0.1098
67370CHOL    R340786  32.600  33.585  10.824 -0.0953 -0.0484 -0.0855
67370CHOL    R440787  32.882  33.635  10.762 -0.0374 -0.3696 -0.1155
67370CHOL    R540788  32.712  33.763  10.710  0.1022 -0.1522 -0.0584
67370CHOL    C140789  32.852  33.693  10.362 -0.0312 -0.2365 -0.0960
67370CHOL    C240790  33.150  33.766  10.125 -0.1083  0.2143 -0.2151
67371CHOL   ROH40791   3.577  20.097  11.142  0.1742 -0.1879 -0.2818
67371CHOL    R140792   3.850  20.024  11.136  0.1791 -0.1801 -0.1797
67371CHOL    R240793   4.013  20.075  10.918  0.2299 -0.2866 -0.1693
67371CHOL    R340794   4.169  20.197  11.104  0.1785 -0.1831 -0.1943
67371CHOL    R440795   4.335  20.188  10.862  0.1065  0.0278 -0.2484
67371CHOL    R540796   4.390  20.115  11.059  0.2409  0.0345 -0.2852
67371CHOL    C140797   4.669  20.369  11.003 -0.0136  0.3081 -0.3179
67371CHOL    C240798   5.001  20.456  10.852 -0.1699 -0.2972  0.1593
67372CHOL   ROH40799   4.396  13.276  14.714  0.1160  0.1535  0.0635
67372CHOL    R140800   4.644  13.387  14.634  0.0998  0.1104 -0.0478
67372CHOL    R240801   4.836  13.242  14.498  0.0496  0.0522 -0.0561
67372CHOL    R340802   4.818  13.447  14.320  0.0107 -0.0065 -0.1199
67372CHOL    R440803   5.060  13.300  14.241  0.1071  0.0847  0.0013
67372CHOL    R540804   5.045  13.514  14.284 -0.0083  0.0906 -0.0635
67372CHOL    C140805   5.174  13.527  13.925  0.1040  0.0484 -0.0249
67372CHOL    C240806   5.430  13.775  13.772 -0.1024 -0.1214  0.1136
67373CHOL   ROH40807  10.594   8.328  14.902  0.0373  0.0156  0.0690
67373CHOL    R140808  10.646   8.398  15.171  0.0390 -0.0110  0.0758
67373CHOL    R240809  10.504   8.594  15.304  0.1078  0.0477  0.0648
67373CHOL    R340810  10.462   8.396  15.486  0.0049  0.0613  0.0559
67373CHOL    R440811  10.505   8.637  15.647  0.0587  0.0434  0.0653
67373CHOL    R540812  10.611   8.448  15.666 -0.0115  0.0070  0.0837
67373CHOL    C140813  10.466   8.475  16.017 -0.0664  0.0536  0.0574
67373CHOL    C240814  10.243   8.543  16.329 -0.0457 -0.0613 -0.0852
67374CHOL   ROH40815   2.679  17.704  10.661 -0.1224  0.1631  0.0611
67374CHOL    R140816   2.944  17.762  10.581 -0.1824  0.1999 -0.1106
67374CHOL    R240817   3.151  17.581  10.611 -0.0852  0.3340  0.0109
67374CHOL    R340818   3.184  17.623  10.345 -0.2105  0.0488 -0.0523
67374CHOL    R440819   3.424  17.477  10.427 -0.0833  0.2949  0.0351
67374CHOL    R540820   3.418  17.666  10.320 -0.2444  0.1720 -0.1840
67374CHOL    C140821   3.614  17.456  10.069 -0.1999  0.0046 -0.0102
67374CHOL    C240822   3.733  17.321   9.830 -0.1898 -0.0380  0.1424
67375CHOL   ROH40823  18.336  27.799  11.015  0.1008  0.3551 -0.0697
67375CHOL    R140824  18.526  27.826  11.223  0.0906  0.1080 -0.0272
67375CHOL    R240825  18.637  27.608  11.353  0.0974 -0.0485 -0.2914
67375CHOL    R340826  18.871  27.725  11.281  0.0934  0.0554 -0.1379
67375CHOL    R440827  18.913  27.640  11.558  0.0038 -0.0654 -0.1623
67375CHOL    R540828  18.943  27.840  11.478 -0.0214 -0.0181 -0.0528
67375CHOL    C140829  19.294  27.767  11.610 -0.0543  0.0217  0.0570
67375CHOL    C240830  19.602  27.715  11.771 -0.1983 -0.0210 -0.1968
67376CHOL   ROH40831  26.271   2.468  10.168 -0.2936  0.1447  0.1102
67376CHOL    R140832  26.066   2.390   9.989 -0.1350  0.0090 -0.0131
67376CHOL    R240833  26.015   2.525   9.754 -0.1456  0.0335  0.0064
67376CHOL    R340834  26.045   2.278   9.643  0.1341  0.0943 -0.0589
67376CHOL    R440835  25.896   2.432   9.443  0.0946  0.0296 -0.0857
67376CHOL    R540836  25.839   2.240   9.528  0.2241 -0.0530 -0.1763
67376CHOL    C140837  25.855   2.147   9.158  0.4968  0.0845 -0.2006
67376CHOL    C240838  26.081   1.970   8.819 -0.1870  0.1062  0.0832
67377CHOL   ROH40839  22.603  26.536   8.757 -0.1898 -0.0556  0.0814
67377CHOL    R140840  22.611  26.253   8.766 -0.1562 -0.0538  0.1155
67377CHOL    R240841  22.771  26.104   8.597 -0.2699 -0.0622  0.0143
67377CHOL    R340842  22.862  25.997   8.830 -0.0818 -0.0201 -0.0391
67377CHOL    R440843  22.912  25.790   8.629 -0.1980 -0.0366 -0.0510
67377CHOL    R540844  22.803  25.765   8.817 -0.0568 -0.0309  0.0325
67377CHOL    C140845  23.079  25.507   8.867  0.0201  0.0175 -0.1389
67377CHOL    C240846  23.307  25.305   8.669 -0.3297 -0.3270 -0.0940
67378CHOL   ROH40847  35.166  13.615   2.526  0.0907  0.2752 -0.1333
67378CHOL    R140848  35.103  13.734   2.776  0.0389  0.2292 -0.1243
67378CHOL    R240849  34.960  13.970   2.796 -0.1447  0.1173 -0.1033
67378CHOL    R340850  34.801  13.821   2.959 -0.0007 -0.0073 -0.0748
67378CHOL    R440851  34.813  14.084   3.087 -0.2068  0.0136 -0.0937
67378CHOL    R540852  34.858  13.892   3.180 -0.0336  0.0566 -0.0861
67378CHOL    C140853  34.578  14.011   3.409 -0.1071 -0.1637 -0.0612
67378CHOL    C240854  34.663  14.317   3.766  0.1727 -0.0021  0.1332
67379CHOL   ROH40855  30.904  30.666   7.152  0.0389  0.1566  0.0214
67379CHOL    R140856  30.951  30.534   7.398 -0.0332  0.1501  0.0313
67379CHOL    R240857  30.751  30.489   7.583 -0.0888  0.1340 -0.0348
67379CHOL    R340858  30.834  30.231   7.562 -0.0696  0.1377 -0.0160
67379CHOL    R440859  30.723  30.252   7.833 -0.2689  0.0946 -0.0912
67379CHOL    R540860  30.921  30.179   7.779 -0.2268  0.1055  0.0412
67379CHOL    C140861  30.784  29.872   7.959 -0.3559  0.0753 -0.1064
67379CHOL    C240862  30.486  29.642   8.148 -0.4063 -0.1458  0.4128
67380CHOL   ROH40863  14.283   5.148  13.544 -0.1398  0.0219  0.1595
67380CHOL    R140864  14.383   5.157  13.808 -0.0722  0.0273  0.1339
67380CHOL    R240865  14.654   5.153  13.866 -0.0558  0.0995  0.0616
67380CHOL    R340866  14.595   5.380  14.003 -0.0841  0.0707  0.0975
67380CHOL    R440867  14.861   5.301  14.100 -0.0388  0.1322  0.0263
67380CHOL    R540868  14.685   5.342  14.222 -0.0210  0.0733  0.0725
67380CHOL    C140869  14.927   5.600  14.365 -0.0556  0.1242  0.0390
67380CHOL    C240870  15.005   5.873  14.591  0.1153  0.1492  0.0897
67381CHOL   ROH40871  18.405  33.374  11.897  0.0758  0.1989 -0.1216
67381CHOL    R140872  18.385  33.618  12.040 -0.0334  0.2575 -0.2364
67381CHOL    R240873  18.216  33.822  11.962 -0.2116  0.1016 -0.2676
67381CHOL    R340874  18.124  33.800  12.217 -0.0858  0.1639 -0.2167
67381CHOL    R440875  18.009  34.051  12.117 -0.3506  0.0061 -0.3119
67381CHOL    R540876  18.126  34.025  12.300 -0.2508  0.2125 -0.3451
67381CHOL    C140877  17.802  34.164  12.447 -0.3136  0.0095 -0.2897
67381CHOL    C240878  17.862  34.523  12.742 -0.2282 -0.0194 -0.0064
67382CHOL   ROH40879   3.660  26.747  17.961 -0.2664 -0.2970 -0.1168
67382CHOL    R140880   3.721  26.673  17.695 -0.0607 -0.1614 -0.1083
67382CHOL    R240881   3.808  26.855  17.506 -0.1833 -0.0131 -0.0222
67382CHOL    R340882   4.014  26.679  17.479  0.0323  0.2285  0.0237
67382CHOL    R440883   4.024  26.843  17.236 -0.2647  0.0832 -0.0921
67382CHOL    R540884   4.016  26.625  17.245  0.0151  0.0753  0.0566
67382CHOL    C140885   4.343  26.672  17.054 -0.1097  0.3663 -0.0893
67382CHOL    C240886   4.315  27.010  16.860 -0.0089  0.2229  0.2436
67383CHOL   ROH40887   8.769  10.514  16.170 -0.0951 -0.0239 -0.1063
67383CHOL    R140888   8.595  10.599  16.376 -0.0294 -0.0572 -0.0366
67383CHOL    R240889   8.683  10.651  16.633  0.0666 -0.0253 -0.0761
67383CHOL    R340890   8.563  10.892  16.591 -0.0093 -0.0557 -0.0351
67383CHOL    R440891   8.564  10.859  16.882  0.3254  0.0574 -0.0198
67383CHOL    R540892   8.391  10.902  16.757  0.1761 -0.0119  0.1579
67383CHOL    C140893   8.382  11.206  16.988  0.4044  0.0770  0.0508
67383CHOL    C240894   8.091  11.206  17.180  0.1969 -0.1409 -0.0365
67384CHOL   ROH40895   3.344   0.091  14.629 -0.0067  0.0045  0.1407
67384CHOL    R140896   3.491  35.345  14.832  0.0247 -0.0679  0.0714
67384CHOL    R240897   3.379  35.275  15.075  0.1046 -0.0120  0.1243
67384CHOL    R340898   3.472  35.028  15.009 -0.0480 -0.0578  0.0810
67384CHOL    R440899   3.407  35.009  15.294 -0.0365 -0.0607  0.0841
67384CHOL    R540900   3.598  34.958  15.201 -0.0738 -0.1610  0.0614
67384CHOL    C140901   3.511  34.623  15.361 -0.2619 -0.1325  0.0202
67384CHOL    C240902   3.476  34.203  15.321  0.0321 -0.0025 -0.0064
67385CHOL   ROH40903  32.072  16.511   0.875  0.1744  0.0479 -0.0462
67385CHOL    R140904  31.985  16.676   1.088 -0.1112  0.0761 -0.1829
67385CHOL    R240905  31.727  16.669   1.186 -0.0480 -0.4428 -0.0392
67385CHOL    R340906  31.852  16.628   1.423  0.1862  0.1216 -0.0574
67385CHOL    R440907  31.573  16.682   1.495  0.1097 -0.3761  0.0373
67385CHOL    R540908  31.749  16.785   1.573 -0.0542  0.0971 -0.1956
67385CHOL    C140909  31.601  16.652   1.898  0.4210  0.1920  0.0648
67385CHOL    C240910  31.340  16.811   2.058  0.0475 -0.0963  0.1992
67386CHOL   ROH40911  29.639  24.965   6.186 -0.0569 -0.0030  0.0955
67386CHOL    R140912  29.659  25.054   5.919 -0.0340  0.0793  0.1245
67386CHOL    R240913  29.583  25.308   5.841  0.0410  0.1287  0.2086
67386CHOL    R340914  29.835  25.319   5.741  0.0429  0.0853  0.2097
67386CHOL    R440915  29.706  25.563   5.643 -0.0078 -0.0433 -0.0461
67386CHOL    R540916  29.809  25.414   5.522  0.0319 -0.1427  0.1112
67386CHOL    C140917  30.015  25.722   5.434 -0.0343 -0.1837 -0.1934
67386CHOL    C240918  30.119  25.749   5.187 -0.1397 -0.1496  0.1920
67387CHOL   ROH40919   6.658  14.665  16.352  0.3275  0.2407  0.2133
67387CHOL    R140920   6.692  14.586  16.082  0.2824  0.0043  0.2754
67387CHOL    R240921   6.686  14.767  15.872 -0.0981 -0.2218  0.0849
67387CHOL    R340922   6.928  14.657  15.814  0.0269  0.0622  0.0641
67387CHOL    R440923   6.841  14.782  15.564 -0.1223 -0.0076  0.0829
67387CHOL    R540924   6.904  14.575  15.590  0.1155  0.0613  0.0554
67387CHOL    C140925   7.158  14.688  15.329 -0.0191  0.3838  0.0623
67387CHOL    C240926   7.406  14.440  15.053  0.1613  0.1685  0.3298
67388CHOL   ROH40927   6.585  16.978  11.741 -0.0268 -0.1374  0.0909
67388CHOL    R140928   6.385  17.045  11.929  0.0432  0.0048  0.1154
67388CHOL    R240929   6.120  16.975  11.895 -0.0017  0.1490  0.1718
67388CHOL    R340930   6.151  16.865  12.141 -0.0228  0.1694  0.1840
67388CHOL    R440931   5.869  16.945  12.131 -0.1295 -0.2098 -0.0057
67388CHOL    R540932   6.014  17.000  12.284 -0.3075 -0.0250  0.1009
67388CHOL    C140933   5.751  16.824  12.499 -0.2239 -0.3992 -0.0976
67388CHOL    C240934   5.409  16.816  12.681  0.2094 -0.0378 -0.1209
67389CHOL   ROH40935  15.423  17.696  15.514 -0.0222 -0.1455 -0.0428
67389CHOL    R140936  15.508  17.729  15.782 -0.0975 -0.3078  0.0017
67389CHOL    R240937  15.550  17.515  15.952  0.2495 -0.4360 -0.2407
67389CHOL    R340938  15.795  17.629  15.982  0.0595 -0.0556 -0.0941
67389CHOL    R440939  15.728  17.525  16.248  0.3425 -0.7614 -0.2838
67389CHOL    R540940  15.788  17.729  16.199 -0.0436 -0.5381  0.1328
67389CHOL    C140941  16.061  17.637  16.449  0.2183 -0.5931 -0.1710
67389CHOL    C240942  16.197  17.572  16.793 -0.0899 -0.1539 -0.3789
67390CHOL   ROH40943  17.795   2.928  15.449  0.2552  0.0459 -0.0942
67390CHOL    R140944  17.603   3.034  15.271  0.0715 -0.1318 -0.0050
67390CHOL    R240945  17.657   3.246  15.102 -0.2430  0.0055  0.0612
67390CHOL    R340946  17.570   3.074  14.910 -0.0698 -0.0350  0.0183
67390CHOL    R440947  17.562   3.338  14.783  0.0351 -0.0620 -0.0431
67390CHOL    R540948  17.398   3.195  14.796  0.0271 -0.0628 -0.1587
67390CHOL    C140949  17.424   3.230  14.417  0.3593 -0.1393 -0.1441
67390CHOL    C240950  17.474   3.484  14.183  0.1744 -0.1625 -0.3632
67391CHOL   ROH40951  13.046  17.723  19.193 -0.0701  0.2692  0.1376
67391CHOL    R140952  13.045  17.956  19.032 -0.1816  0.2653  0.1324
67391CHOL    R240953  12.961  17.955  18.769 -0.1082  0.2033  0.1107
67391CHOL    R340954  12.796  18.154  18.854 -0.2651  0.0964  0.0594
67391CHOL    R440955  12.737  18.125  18.568  0.0533  0.2556 -0.0269
67391CHOL    R540956  12.792  18.309  18.671 -0.1169  0.2100  0.1499
67391CHOL    C140957  12.452  18.411  18.531  0.0002  0.1857 -0.1545
67391CHOL    C240958  12.435  18.450  18.243 -0.0755 -0.1623  0.1488
67392CHOL   ROH40959   1.581  29.202  11.189  0.0706  0.1563 -0.1242
67392CHOL    R140960   1.441  29.007  11.338  0.1547  0.1520 -0.0503
67392CHOL    R240961   1.300  29.068  11.567  0.1379  0.1766 -0.0669
67392CHOL    R340962   1.095  28.947  11.436  0.1821  0.0472 -0.0172
67392CHOL    R440963   1.001  28.974  11.712  0.1878  0.0908 -0.0196
67392CHOL    R540964   1.007  28.790  11.594  0.2600  0.0572  0.0361
67392CHOL    C140965   0.634  28.805  11.673  0.2583 -0.0809  0.0546
67392CHOL    C240966   0.240  28.628  11.755  0.0984 -0.0693  0.2193
67393CHOL   ROH40967   0.229  34.684  14.286 -0.3426 -0.0706 -0.0213
67393CHOL    R140968   0.228  34.577  14.024 -0.2213 -0.1415  0.0072
67393CHOL    R240969   0.445  34.597  13.854 -0.2272  0.0185  0.0189
67393CHOL    R340970   0.419  34.327  13.840  0.0287 -0.0114  0.0875
67393CHOL    R440971   0.580  34.398  13.606 -0.1473  0.0977 -0.0018
67393CHOL    R540972   0.395  34.281  13.606 -0.0349 -0.0824  0.1071
67393CHOL    C140973   0.633  34.029  13.448  0.1395  0.1156  0.0507
67393CHOL    C240974   0.756  33.965  13.043  0.0187 -0.2085 -0.1110
67394CHOL   ROH40975   5.598  12.006  15.280  0.1981  0.0350  0.0026
67394CHOL    R140976   5.665  11.907  15.024 -0.0237 -0.0273 -0.0320
67394CHOL    R240977   5.547  12.001  14.793 -0.0190  0.1178  0.0236
67394CHOL    R340978   5.805  12.042  14.716 -0.0042 -0.1672 -0.0849
67394CHOL    R440979   5.644  12.132  14.488 -0.0289  0.5525  0.2029
67394CHOL    R540980   5.807  11.987  14.483 -0.2731  0.2819 -0.1994
67394CHOL    C140981   5.942  12.246  14.238 -0.0209  0.5380  0.2056
67394CHOL    C240982   6.228  12.242  13.947  0.1634  0.1716 -0.0472
67395CHOL   ROH40983  32.763  18.198   4.388  0.2741  0.1099  0.1492
67395CHOL    R140984  32.924  18.183   4.155  0.1492  0.1318  0.0609
67395CHOL    R240985  32.855  18.032   3.935  0.1036  0.0343  0.1430
67395CHOL    R340986  32.889  18.267   3.803 -0.0961  0.0158  0.0571
67395CHOL    R440987  32.973  18.062   3.612  0.1194  0.0170  0.1468
67395CHOL    R540988  33.089  18.235   3.675 -0.0484  0.1493  0.0960
67395CHOL    C140989  33.073  18.300   3.299 -0.0593 -0.0105  0.0684
67395CHOL    C240990  33.533  18.400   3.092  0.2412  0.0661  0.2842
67396CHOL   ROH40991  20.871  22.068   9.688 -0.0418  0.1668  0.0908
67396CHOL    R140992  21.135  21.967   9.702 -0.0792  0.0616  0.0422
67396CHOL    R240993  21.356  22.130   9.725  0.0036 -0.0188 -0.1690
67396CHOL    R340994  21.408  21.976   9.942  0.0320  0.1071 -0.0860
67396CHOL    R440995  21.669  22.012   9.812 -0.0055 -0.0742 -0.2119
67396CHOL    R540996  21.576  21.822   9.867 -0.0532 -0.0044 -0.0492
67396CHOL    C140997  21.900  21.798  10.067  0.0161  0.0120 -0.1589
67396CHOL    C240998  22.149  21.616  10.187  0.3245  0.0108  0.0327
67397CHOL   ROH40999  33.164   4.669   6.848 -0.1019 -0.1480  0.1178
67397CHOL    R141000  33.022   4.831   7.032 -0.0454 -0.0768  0.0992
67397CHOL    R241001  32.832   4.728   7.204 -0.0649  0.0063  0.1274
67397CHOL    R341002  32.985   4.848   7.394 -0.0194 -0.0056  0.0986
67397CHOL    R441003  32.746   4.756   7.537 -0.0671  0.1428  0.1155
67397CHOL    R541004  32.827   4.958   7.536  0.0229  0.1067  0.0592
67397CHOL    C141005  32.839   4.885   7.910 -0.0266  0.2111  0.0817
67397CHOL    C241006  32.610   5.120   8.275 -0.0398  0.1028  0.1358
67398CHOL   ROH41007   3.882  14.658   6.485  0.0349 -0.3338 -0.1043
67398CHOL    R141008   3.660  14.506   6.571  0.0790 -0.3010  0.0674
67398CHOL    R241009   3.671  14.337   6.789  0.1182 -0.0246  0.2800
67398CHOL    R341010   3.456  14.483   6.872  0.0614  0.0068  0.0816
67398CHOL    R441011   3.493  14.279   7.080  0.0151  0.1739  0.2579
67398CHOL    R541012   3.309  14.321   6.970  0.0498  0.0577  0.1515
67398CHOL    C141013   3.188  14.382   7.327 -0.0982  0.3186  0.0589
67398CHOL    C241014   3.042  14.499   7.589 -0.0545 -0.0961 -0.0705
67399CHOL   ROH41015  27.389  33.962   9.764  0.2429  0.0449 -0.0243
67399CHOL    R141016  27.424  33.995   9.486  0.1080  0.0298 -0.0443
67399CHOL    R241017  27.218  33.966   9.305  0.0413 -0.0831  0.0464
67399CHOL    R341018  27.294  34.215   9.227 -0.1026 -0.0576 -0.0124
67399CHOL    R441019  27.150  34.105   8.996 -0.0917 -0.1686  0.0369
67399CHOL    R541020  27.351  34.189   8.995 -0.1369 -0.0664 -0.0184
67399CHOL    C141021  27.182  34.420   8.742 -0.3043 -0.1944 -0.0239
67399CHOL    C241022  27.271  34.686   8.457 -0.4985 -0.2670 -0.0004
67400CHOL   ROH41023   4.576  30.977  18.484  0.2645  0.0826  0.1639
67400CHOL    R141024   4.844  30.958  18.394  0.1713 -0.3740 -0.0277
67400CHOL    R241025   4.917  30.800  18.180 -0.3549 -0.0211 -0.4833
67400CHOL    R341026   5.025  31.031  18.087  0.1872 -0.0454  0.0588
67400CHOL    R441027   5.168  30.820  17.943 -0.5141 -0.0532 -0.6563
67400CHOL    R541028   5.258  30.981  18.059  0.0341 -0.6035 -0.2834
67400CHOL    C141029   5.416  31.049  17.718 -0.0979 -0.0947 -0.2481
67400CHOL    C241030   5.522  31.071  17.415  0.1458  0.0179 -0.1304
67401CHOL   ROH41031   7.604   9.381  13.814  0.1450  0.1411  0.2383
67401CHOL    R141032   7.355   9.432  13.938  0.1148  0.0485  0.2172
67401CHOL    R241033   7.332   9.570  14.177  0.0363  0.1175  0.1725
67401CHOL    R341034   7.162   9.726  14.033 -0.0435 -0.0224  0.1155
67401CHOL    R441035   7.072   9.753  14.311 -0.1230 -0.0475  0.0898
67401CHOL    R541036   6.950   9.695  14.140 -0.0449 -0.1567  0.0723
67401CHOL    C141037   6.760  10.006  14.255 -0.2909 -0.2747 -0.0121
67401CHOL    C241038   6.616  10.247  14.158 -0.1970  0.2865 -0.0598
67402CHOL   ROH41039  16.250  34.858  11.359  0.1490  0.0342 -0.1494
67402CHOL    R141040  16.486  34.769  11.487 -0.0450 -0.0355  0.1647
67402CHOL    R241041  16.724  34.909  11.476  0.1695 -0.4074 -0.0314
67402CHOL    R341042  16.709  34.892  11.747  0.0063  0.2101  0.0050
67402CHOL    R441043  16.980  34.991  11.692  0.2394 -0.4585 -0.0944
67402CHOL    R541044  16.927  34.817  11.813 -0.1738 -0.0942  0.2643
67402CHOL    C141045  17.116  35.023  12.073  0.1268  0.0923 -0.0969
67402CHOL    C241046  17.364  35.335  12.099 -0.2039 -0.1222  0.1894
67403CHOL   ROH41047   7.155  20.596  19.787 -0.1208  0.0911 -0.1676
67403CHOL    R141048   7.421  20.653  19.708 -0.0651 -0.0658 -0.0956
67403CHOL    R241049   7.506  20.633  19.446 -0.0687  0.1153 -0.1123
67403CHOL    R341050   7.586  20.890  19.486  0.1559  0.0082  0.1446
67403CHOL    R441051   7.710  20.812  19.232 -0.3120  0.3101 -0.1827
67403CHOL    R541052   7.811  20.895  19.405  0.0291 -0.0147 -0.2213
67403CHOL    C141053   7.903  21.157  19.144 -0.2428  0.3231  0.0177
67403CHOL    C241054   7.957  21.203  18.701 -0.0558  0.0694 -0.0784
67404CHOL   ROH41055  10.909   0.834  15.563 -0.3417 -0.1363  0.1995
67404CHOL    R141056  10.970   0.929  15.822 -0.2589  0.1042  0.0931
67404CHOL    R241057  11.223   1.014  15.894 -0.2387  0.1776 -0.0688
67404CHOL    R341058  11.090   1.240  15.968 -0.2194  0.2436 -0.2303
67404CHOL    R441059  11.312   1.217  16.159 -0.4957  0.0957  0.0828
67404CHOL    R541060  11.101   1.238  16.208 -0.5568  0.2084 -0.2123
67404CHOL    C141061  11.240   1.547  16.383 -0.6273  0.1099  0.0195
67404CHOL    C241062  11.359   1.567  16.763 -0.0691  0.3223 -0.1095
67405CHOL   ROH41063  21.321  13.310   6.849 -0.0033  0.1651  0.1149
67405CHOL    R141064  21.521  13.453   6.710 -0.1451  0.3096  0.0583
67405CHOL    R241065  21.589  13.714   6.773 -0.0630  0.2394  0.2777
67405CHOL    R341066  21.839  13.611   6.791 -0.0491  0.1993 -0.1061
67405CHOL    R441067  21.880  13.896   6.737 -0.0849  0.2995  0.4010
67405CHOL    R541068  21.965  13.729   6.625 -0.1724  0.5088  0.0224
67405CHOL    C141069  22.285  13.906   6.733 -0.0854  0.2964  0.1125
67405CHOL    C241070  22.495  14.076   7.044  0.1377  0.0794 -0.0114
67406CHOL   ROH41071   4.952   4.142  13.083  0.0029  0.2608  0.1545
67406CHOL    R141072   5.093   4.217  13.317  0.1065  0.1700  0.1218
67406CHOL    R241073   4.978   4.208  13.569  0.1560  0.2538  0.1472
67406CHOL    R341074   5.195   4.056  13.627  0.0655  0.1061  0.1022
67406CHOL    R441075   5.081   4.126  13.888  0.0607  0.0294  0.1208
67406CHOL    R541076   5.287   4.157  13.824  0.0880 -0.0470  0.1707
67406CHOL    C141077   5.344   3.934  14.129 -0.0797 -0.2399  0.0634
67406CHOL    C241078   5.549   3.827  14.236  0.1217  0.0650  0.1199
67407CHOL   ROH41079  23.837  22.895  10.966 -0.1339 -0.1712  0.0662
67407CHOL    R141080  23.692  22.799  10.743 -0.1509 -0.1356  0.0617
67407CHOL    R241081  23.465  22.644  10.769 -0.2000 -0.0650  0.0549
67407CHOL    R341082  23.355  22.836  10.611 -0.1318 -0.0371  0.0410
67407CHOL    R441083  23.135  22.650  10.666 -0.1965  0.0418  0.0501
67407CHOL    R541084  23.202  22.717  10.470 -0.1709  0.0057  0.0466
67407CHOL    C141085  22.840  22.834  10.458 -0.1304  0.1297  0.0337
67407CHOL    C241086  22.687  22.864  10.093  0.1518  0.1846 -0.0792
67408CHOL   ROH41087   4.722  33.123  18.052  0.1357  0.0502  0.0562
67408CHOL    R141088   4.799  33.161  17.782 -0.0470  0.0145 -0.0015
67408CHOL    R241089   5.059  33.129  17.695 -0.0550  0.2613 -0.1226
67408CHOL    R341090   4.944  32.958  17.517  0.0377  0.0553  0.0143
67408CHOL    R441091   5.194  33.044  17.389  0.0008  0.0698 -0.0456
67408CHOL    R541092   4.993  33.054  17.303  0.0003 -0.1007 -0.0643
67408CHOL    C141093   5.164  32.834  17.043  0.1205 -0.2359  0.1278
67408CHOL    C241094   5.421  32.897  16.708  0.0977 -0.0287 -0.0525
67409CHOL   ROH41095  13.128  11.764  18.730 -0.2848  0.1898 -0.0916
67409CHOL    R141096  13.278  11.893  18.528 -0.3322  0.2728 -0.0738
67409CHOL    R241097  13.423  11.754  18.339  0.0903  0.3551  0.1841
67409CHOL    R341098  13.278  11.902  18.164 -0.0230 -0.0643 -0.0848
67409CHOL    R441099  13.508  11.808  18.008  0.3397  0.2781  0.2340
67409CHOL    R541100  13.442  12.015  18.031 -0.1017  0.1674  0.0114
67409CHOL    C141101  13.421  11.980  17.651  0.3779 -0.1605  0.0103
67409CHOL    C241102  13.547  11.881  17.353 -0.0014 -0.0679  0.0080
67410CHOL   ROH41103   9.065  17.846  18.381  0.2419  0.2200  0.2097
67410CHOL    R141104   9.214  18.046  18.248  0.2180  0.1558  0.0862
67410CHOL    R241105   9.400  17.987  18.052 -0.0247  0.0804 -0.1240
67410CHOL    R341106   9.253  18.163  17.905 -0.0794  0.1936  0.0642
67410CHOL    R441107   9.503  18.130  17.754 -0.2312  0.1278 -0.1732
67410CHOL    R541108   9.414  18.318  17.820 -0.0867  0.1474 -0.0330
67410CHOL    C141109   9.425  18.378  17.443 -0.4027  0.2621 -0.0255
67410CHOL    C241110   9.438  18.432  17.070  0.0784  0.4971 -0.0360
67411CHOL   ROH41111   4.759   8.439  10.017  0.1945  0.0412  0.3598
67411CHOL    R141112   4.679   8.542  10.268 -0.0340  0.0779  0.2732
67411CHOL    R241113   4.435   8.666  10.307 -0.1645 -0.1173  0.0872
67411CHOL    R341114   4.410   8.482  10.505 -0.1127 -0.0565  0.1503
67411CHOL    R441115   4.184   8.665  10.544 -0.2159 -0.1574  0.0328
67411CHOL    R541116   4.332   8.608  10.694 -0.2185 -0.0255  0.0866
67411CHOL    C141117   4.013   8.491  10.868 -0.1972 -0.1236  0.0604
67411CHOL    C241118   3.693   8.650  11.195  0.0077  0.0532  0.1297
67412CHOL   ROH41119  12.279  13.074  14.684  0.1225  0.0461 -0.1293
67412CHOL    R141120  12.028  13.194  14.732  0.0139 -0.1682 -0.1526
67412CHOL    R241121  11.841  13.085  14.903  0.2277 -0.1527  0.0963
67412CHOL    R341122  11.850  13.330  15.019  0.0223  0.0151 -0.2339
67412CHOL    R441123  11.573  13.241  15.057  0.2171 -0.3835  0.3159
67412CHOL    R541124  11.638  13.429  14.967 -0.2216 -0.3891 -0.0301
67412CHOL    C141125  11.427  13.563  15.255  0.0183 -0.3602  0.1337
67412CHOL    C241126  11.419  13.905  15.369  0.2604  0.2734 -0.1759
67413CHOL   ROH41127  21.752   5.425   9.784  0.0995 -0.1594 -0.0123
67413CHOL    R141128  21.999   5.461   9.916  0.0668  0.0028  0.0063
67413CHOL    R241129  22.017   5.530  10.183  0.0016 -0.0666  0.0281
67413CHOL    R341130  22.174   5.308  10.196  0.1842  0.0579 -0.0363
67413CHOL    R441131  22.265   5.478  10.418 -0.2281 -0.1047  0.2652
67413CHOL    R541132  22.389   5.392  10.260  0.0364  0.1820  0.3119
67413CHOL    C141133  22.557   5.240  10.567 -0.1906 -0.0100  0.3426
67413CHOL    C241134  22.489   5.340  10.891  0.0386 -0.0799  0.0615
67414CHOL   ROH41135  25.072   3.843  10.887 -0.0933 -0.1392  0.0045
67414CHOL    R141136  24.823   3.736  10.803 -0.1623  0.0259 -0.0033
67414CHOL    R241137  24.621   3.893  10.699 -0.0043  0.1439 -0.1378
67414CHOL    R341138  24.635   3.718  10.492 -0.0967  0.0231 -0.0428
67414CHOL    R441139  24.388   3.869  10.445 -0.0467  0.0884 -0.0935
67414CHOL    R541140  24.408   3.652  10.454 -0.1257  0.0859  0.0240
67414CHOL    C141141  24.266   3.691  10.102 -0.1585 -0.0573  0.0214
67414CHOL    C241142  23.959   3.616   9.957 -0.3287  0.1751 -0.1492
67415CHOL   ROH41143  25.082   5.349  11.302 -0.0776  0.1288  0.0947
67415CHOL    R141144  24.872   5.499  11.187 -0.1141 -0.0134 -0.0265
67415CHOL    R241145  24.879   5.589  10.926 -0.0318 -0.0239 -0.0271
67415CHOL    R341146  24.640   5.460  10.910  0.0589 -0.1786 -0.1496
67415CHOL    R441147  24.654   5.623  10.666 -0.0988  0.1437  0.0509
67415CHOL    R541148  24.492   5.622  10.812 -0.0753 -0.1597  0.0792
67415CHOL    C141149  24.300   5.521  10.498 -0.0524  0.0961 -0.0184
67415CHOL    C241150  24.184   5.812  10.263  0.0979 -0.1893  0.4468
67416CHOL   ROH41151  33.683  17.641   1.340 -0.2402 -0.2736 -0.0715
67416CHOL    R141152  33.708  17.854   1.525 -0.0427 -0.2522 -0.1225
67416CHOL    R241153  33.493  18.005   1.608  0.1003 -0.0134 -0.1790
67416CHOL    R341154  33.580  17.934   1.856  0.0072 -0.0410 -0.1539
67416CHOL    R441155  33.360  18.121   1.905  0.1114  0.0986 -0.2176
67416CHOL    R541156  33.563  18.135   1.985  0.1034 -0.0166 -0.1787
67416CHOL    C141157  33.365  18.123   2.311  0.0313  0.1383 -0.2166
67416CHOL    C241158  33.413  18.161   2.584 -0.4546 -0.1388 -0.1940
67417CHOL   ROH41159   4.680  15.857   8.470  0.0526 -0.1518  0.1579
67417CHOL    R141160   4.492  15.905   8.677 -0.1531  0.0134 -0.0645
67417CHOL    R241161   4.222  15.855   8.646 -0.0799 -0.3269 -0.1837
67417CHOL    R341162   4.257  15.706   8.871 -0.0864  0.1025  0.1080
67417CHOL    R441163   3.967  15.747   8.853 -0.1377 -0.3909 -0.2882
67417CHOL    R541164   4.094  15.791   9.025 -0.3970  0.1019 -0.2147
67417CHOL    C141165   3.851  15.544   9.184 -0.1775 -0.0249 -0.0750
67417CHOL    C241166   3.602  15.320   9.346 -0.0101  0.0906 -0.0254
67418CHOL   ROH41167   3.003   5.879   9.295  0.0917  0.1619  0.0766
67418CHOL    R141168   2.768   5.919   9.448  0.0895  0.0899  0.0923
67418CHOL    R241169   2.675   5.733   9.630  0.1630  0.0649  0.1048
67418CHOL    R341170   2.683   5.944   9.801  0.1068  0.0725  0.0979
67418CHOL    R441171   2.456   5.783   9.892  0.1410  0.0227  0.0944
67418CHOL    R541172   2.453   5.995   9.843  0.0933  0.0202  0.0870
67418CHOL    C141173   2.336   6.010  10.206  0.0754  0.0054  0.0817
67418CHOL    C241174   2.053   5.907  10.457 -0.3815 -0.0704  0.2455
67419CHOL   ROH41175   4.605  23.476   8.271 -0.1711  0.1198 -0.0052
67419CHOL    R141176   4.464  23.234   8.312 -0.1836  0.1179 -0.0599
67419CHOL    R241177   4.394  23.142   8.563 -0.0261 -0.0274 -0.0683
67419CHOL    R341178   4.145  23.134   8.455 -0.1019  0.0815  0.0980
67419CHOL    R441179   4.145  22.922   8.658  0.0770 -0.1987 -0.1906
67419CHOL    R541180   4.091  22.901   8.448 -0.0692  0.0809 -0.1833
67419CHOL    C141181   3.766  22.787   8.613  0.0658 -0.1955 -0.1058
67419CHOL    C241182   3.610  22.478   8.926 -0.0380 -0.2637  0.0851
67420CHOL   ROH41183  15.967  26.624  16.798 -0.1084 -0.0070 -0.1262
67420CHOL    R141184  16.106  26.692  17.035 -0.0034 -0.1060 -0.1593
67420CHOL    R241185  16.379  26.661  17.060  0.0248 -0.0049 -0.3362
67420CHOL    R341186  16.370  26.924  17.129 -0.0509 -0.0543 -0.1526
67420CHOL    R441187  16.612  26.822  17.259  0.1215 -0.0183 -0.4377
67420CHOL    R541188  16.448  26.929  17.355  0.1497 -0.1659 -0.2180
67420CHOL    C141189  16.739  27.162  17.439  0.1068 -0.0726 -0.3251
67420CHOL    C241190  17.077  26.838  17.437 -0.0216 -0.1977 -0.2428
67421CHOL   ROH41191  25.989  11.138   2.482  0.0660  0.0036 -0.1467
67421CHOL    R141192  26.091  11.397   2.534  0.0738 -0.0032 -0.1258
67421CHOL    R241193  26.278  11.445   2.732 -0.0158 -0.0047 -0.0387
67421CHOL    R341194  26.417  11.558   2.527  0.0986 -0.0468  0.0156
67421CHOL    R441195  26.540  11.668   2.770 -0.1398  0.1250  0.0582
67421CHOL    R541196  26.461  11.782   2.601 -0.0546  0.0082 -0.0601
67421CHOL    C141197  26.822  11.904   2.600 -0.1047  0.1608  0.1656
67421CHOL    C241198  27.142  12.213   2.569 -0.0880 -0.0918 -0.0440
67422CHOL   ROH41199  21.782  22.580  10.554  0.0614  0.0128 -0.0618
67422CHOL    R141200  21.789  22.501  10.826  0.0683  0.1146 -0.0325
67422CHOL    R241201  21.574  22.382  10.951  0.1012  0.0849 -0.0065
67422CHOL    R341202  21.757  22.190  11.012  0.1639  0.1708  0.0799
67422CHOL    R441203  21.542  22.153  11.209 -0.0637 -0.1299 -0.2151
67422CHOL    R541204  21.755  22.179  11.251 -0.1320 -0.0076  0.0731
67422CHOL    C141205  21.696  21.840  11.415 -0.1006 -0.1745 -0.2552
67422CHOL    C241206  21.420  21.739  11.680 -0.1070 -0.0678 -0.2131
67423CHOL   ROH41207  29.802   4.069   6.352  0.0351  0.1214  0.0635
67423CHOL    R141208  29.739   4.107   6.625 -0.0805  0.1385  0.0347
67423CHOL    R241209  29.912   4.036   6.829 -0.2438 -0.0185  0.1183
67423CHOL    R341210  29.878   4.295   6.904 -0.0835 -0.0008  0.1305
67423CHOL    R441211  30.038   4.175   7.119 -0.0492 -0.0782  0.0630
67423CHOL    R541212  29.851   4.284   7.142  0.0141  0.0147  0.1430
67423CHOL    C141213  30.080   4.499   7.359  0.2145 -0.0964  0.0423
67423CHOL    C241214  30.206   4.461   7.724 -0.2305 -0.1840 -0.2107
67424CHOL   ROH41215   6.733  23.056  13.940  0.1551  0.1529 -0.0477
67424CHOL    R141216   6.651  23.035  14.211 -0.0019  0.0849 -0.0998
67424CHOL    R241217   6.685  23.240  14.393  0.0255 -0.0145  0.0073
67424CHOL    R341218   6.418  23.207  14.431 -0.0154  0.1307 -0.1500
67424CHOL    R441219   6.500  23.398  14.638 -0.0211  0.0381 -0.0618
67424CHOL    R541220   6.391  23.212  14.669 -0.1460  0.0937 -0.1637
67424CHOL    C141221   6.141  23.460  14.816 -0.0868  0.2047 -0.2495
67424CHOL    C241222   6.296  23.724  15.043  0.0234  0.0125 -0.1997
67425CHOL   ROH41223  23.886  18.741   9.792  0.1692  0.1008 -0.0675
67425CHOL    R141224  23.615  18.808   9.748  0.1484  0.0673  0.0121
67425CHOL    R241225  23.501  18.809   9.496  0.1079  0.1784  0.0313
67425CHOL    R341226  23.321  18.642   9.612  0.1611  0.0782 -0.0291
67425CHOL    R441227  23.179  18.758   9.383  0.0046  0.3942  0.2239
67425CHOL    R541228  23.111  18.757   9.591  0.1694  0.1556  0.2779
67425CHOL    C141229  22.821  18.572   9.426 -0.0052  0.4258  0.2793
67425CHOL    C241230  22.671  18.617   9.058 -0.0890  0.0176 -0.1831
67426CHOL   ROH41231  19.204  16.505  11.831  0.0094  0.2211  0.2276
67426CHOL    R141232  19.443  16.485  11.981  0.0694  0.3042  0.1434
67426CHOL    R241233  19.627  16.690  11.996 -0.0336  0.3959  0.1391
67426CHOL    R341234  19.592  16.659  12.264  0.0723  0.3041  0.1425
67426CHOL    R441235  19.878  16.719  12.232  0.0311  0.4707  0.0615
67426CHOL    R541236  19.792  16.548  12.337  0.1595  0.3933  0.0450
67426CHOL    C141237  19.992  16.706  12.621  0.1683  0.4282  0.0196
67426CHOL    C241238  20.331  16.551  12.679  0.1247  0.0458  0.1139
67427CHOL   ROH41239  21.507  24.496   7.986 -0.0316  0.0877 -0.1386
67427CHOL    R141240  21.778  24.460   7.911 -0.0546  0.1259 -0.2412
67427CHOL    R241241  21.913  24.638   7.750 -0.0212  0.3582  0.0394
67427CHOL    R341242  22.091  24.640   7.955  0.0105 -0.0475  0.0192
67427CHOL    R441243  22.232  24.770   7.733 -0.0011  0.3349  0.2315
67427CHOL    R541244  22.303  24.600   7.851 -0.0128  0.1055 -0.0868
67427CHOL    C141245  22.585  24.848   7.916  0.0408 -0.0605  0.3244
67427CHOL    C241246  22.998  24.853   8.003 -0.0189  0.3700 -0.2091
67428CHOL   ROH41247  21.133  31.540   8.416  0.1449  0.1262  0.0158
67428CHOL    R141248  21.096  31.427   8.673  0.0927  0.1354  0.0121
67428CHOL    R241249  21.290  31.276   8.798  0.0015 -0.0050 -0.0167
67428CHOL    R341250  21.254  31.455   8.999  0.1443  0.0068 -0.0009
67428CHOL    R441251  21.422  31.246   9.116 -0.1661 -0.2298  0.0328
67428CHOL    R541252  21.234  31.320   9.196 -0.1076 -0.0055 -0.0324
67428CHOL    C141253  21.465  31.396   9.490 -0.1305 -0.3500  0.0767
67428CHOL    C241254  21.848  31.240   9.632 -0.0294 -0.1225 -0.1463
67429CHOL   ROH41255  29.002  11.068   4.774 -0.1960  0.0221  0.0361
67429CHOL    R141256  28.854  11.033   4.535 -0.0893 -0.0477 -0.0200
67429CHOL    R241257  28.974  10.992   4.290  0.0178 -0.3381  0.0799
67429CHOL    R341258  28.815  10.772   4.284 -0.1555 -0.2161  0.1631
67429CHOL    R441259  28.846  10.849   4.003 -0.2039 -0.2660  0.1413
67429CHOL    R541260  28.658  10.817   4.108 -0.1900 -0.1101  0.2182
67429CHOL    C141261  28.622  10.558   3.830 -0.4960 -0.1097  0.2551
67429CHOL    C241262  28.538  10.225   3.865  0.0587 -0.0217 -0.1711
67430CHOL   ROH41263  32.149  29.191  10.705  0.0312  0.0886  0.2548
67430CHOL    R141264  32.385  29.116  10.567 -0.1141 -0.0772  0.0932
67430CHOL    R241265  32.380  28.979  10.327 -0.3787  0.1708 -0.0462
67430CHOL    R341266  32.536  29.186  10.244 -0.1420  0.0574  0.1089
67430CHOL    R441267  32.611  28.962  10.070 -0.3151  0.0711  0.0168
67430CHOL    R541268  32.746  29.084  10.189 -0.2274 -0.1268  0.1225
67430CHOL    C141269  32.891  29.146   9.842 -0.0567 -0.0932  0.1992
67430CHOL    C241270  33.256  29.163   9.841 -0.2012 -0.0389  0.0885
67431CHOL   ROH41271  18.336  30.449  16.306  0.2152 -0.0525  0.0753
67431CHOL    R141272  18.281  30.271  16.093  0.1114  0.0788 -0.0084
67431CHOL    R241273  18.113  30.053  16.122  0.2533 -0.0326 -0.0149
67431CHOL    R341274  17.987  30.163  15.908 -0.0062  0.0636  0.1863
67431CHOL    R441275  17.832  29.921  15.969  0.1776 -0.0616  0.1489
67431CHOL    R541276  17.918  29.976  15.776 -0.0322  0.1284  0.1084
67431CHOL    C141277  17.550  29.949  15.679 -0.1104  0.0113  0.4329
67431CHOL    C241278  17.473  29.671  15.533 -0.1517  0.1629  0.1137
67432CHOL   ROH41279  16.665   1.131  15.359 -0.1336 -0.1215 -0.0880
67432CHOL    R141280  16.425   1.095  15.214 -0.1337  0.0583 -0.1343
67432CHOL    R241281  16.334   1.278  15.028  0.0919  0.0762 -0.2285
67432CHOL    R341282  16.329   1.060  14.865 -0.0793  0.0170 -0.1448
67432CHOL    R441283  16.177   1.265  14.720  0.0595  0.0717 -0.2118
67432CHOL    R541284  16.110   1.063  14.768 -0.0839  0.1394 -0.1293
67432CHOL    C141285  16.081   1.053  14.388 -0.1201  0.0135 -0.1234
67432CHOL    C241286  15.743   0.938  14.258  0.0261 -0.0104 -0.1104
67433CHOL   ROH41287  30.510   7.794   6.541  0.0288  0.1909 -0.2609
67433CHOL    R141288  30.583   7.573   6.380  0.1556  0.0745 -0.0462
67433CHOL    R241289  30.567   7.578   6.104 -0.0161 -0.2616 -0.0460
67433CHOL    R341290  30.828   7.503   6.121  0.0707  0.0220 -0.1125
67433CHOL    R441291  30.735   7.390   5.867  0.0814 -0.2234 -0.0075
67433CHOL    R541292  30.833   7.282   6.029  0.2642 -0.0274  0.0140
67433CHOL    C141293  31.077   7.211   5.744  0.2201  0.0649 -0.0474
67433CHOL    C241294  31.379   7.357   5.545 -0.1719  0.0716 -0.0516
67434CHOL   ROH41295  20.562  10.593  10.838  0.1687 -0.1877 -0.0579
67434CHOL    R141296  20.794  10.526  10.986  0.1635 -0.1309 -0.0241
67434CHOL    R241297  21.048  10.600  10.906  0.1566 -0.0629  0.0163
67434CHOL    R341298  21.061  10.706  11.155  0.0907 -0.0658  0.0212
67434CHOL    R441299  21.338  10.707  11.059  0.1163 -0.0673  0.0957
67434CHOL    R541300  21.265  10.620  11.246  0.0656 -0.0686  0.0751
67434CHOL    C141301  21.519  10.869  11.383  0.0311 -0.0725  0.1463
67434CHOL    C241302  21.629  10.995  11.710  0.0824  0.1742 -0.0083
67435CHOL   ROH41303   3.595  21.477  12.479  0.1523  0.1297  0.0205
67435CHOL    R141304   3.813  21.651  12.428  0.1456  0.0963 -0.1225
67435CHOL    R241305   4.050  21.637  12.569  0.1196  0.2700 -0.0589
67435CHOL    R341306   4.159  21.616  12.320  0.1703  0.0129 -0.0165
67435CHOL    R441307   4.379  21.710  12.490  0.1263  0.2222 -0.0761
67435CHOL    R541308   4.309  21.802  12.305  0.1516  0.0141 -0.1904
67435CHOL    C141309   4.672  21.733  12.210  0.1776 -0.0474 -0.0466
67435CHOL    C241310   4.979  21.838  12.088  0.0285  0.3247  0.0276
67436CHOL   ROH41311   4.591  25.490  15.014  0.1578 -0.0586  0.2404
67436CHOL    R141312   4.350  25.611  15.100  0.0945 -0.1122  0.1385
67436CHOL    R241313   4.172  25.485  15.269  0.1610 -0.0629  0.2461
67436CHOL    R341314   4.202  25.711  15.417  0.0432  0.0791  0.0551
67436CHOL    R441315   3.959  25.585  15.522  0.1858 -0.0324  0.2549
67436CHOL    R541316   3.978  25.790  15.450 -0.0062 -0.0725  0.0840
67436CHOL    C141317   3.863  25.855  15.808  0.0898  0.1183  0.0806
67436CHOL    C241318   3.917  26.188  15.943  0.2132 -0.0678 -0.2984
67437CHOL   ROH41319  17.090  13.349  14.138 -0.3011 -0.0492  0.1098
67437CHOL    R141320  17.338  13.372  14.273 -0.3222 -0.3081  0.1960
67437CHOL    R241321  17.482  13.607  14.279  0.1333 -0.5726 -0.1234
67437CHOL    R341322  17.472  13.569  14.548 -0.0822 -0.1088 -0.0617
67437CHOL    R441323  17.725  13.710  14.502  0.1732 -0.5909 -0.1580
67437CHOL    R541324  17.698  13.522  14.610 -0.1909 -0.3728  0.1426
67437CHOL    C141325  17.857  13.734  14.885 -0.0057 -0.1662 -0.1204
67437CHOL    C241326  18.006  13.636  15.137  0.2631 -0.0485 -0.1980
67438CHOL   ROH41327  23.195  14.139  11.866  0.1679 -0.0012 -0.2689
67438CHOL    R141328  23.005  13.972  11.740  0.0525  0.0157 -0.1193
67438CHOL    R241329  22.749  14.056  11.680  0.0932  0.1210 -0.1446
67438CHOL    R341330  22.815  13.975  11.429  0.0108 -0.1014 -0.0951
67438CHOL    R441331  22.534  13.898  11.461 -0.0978  0.2867 -0.0790
67438CHOL    R541332  22.698  13.768  11.402 -0.2625  0.0356  0.0056
67438CHOL    C141333  22.471  13.729  11.098 -0.2863  0.1741  0.0056
67438CHOL    C241334  22.167  13.494  10.975  0.5099 -0.3111 -0.2699
67439CHOL   ROH41335  31.956  23.149   4.824 -0.0340  0.0371  0.0618
67439CHOL    R141336  32.032  23.193   4.555  0.1186 -0.0542  0.0896
67439CHOL    R241337  31.912  23.384   4.396 -0.0302 -0.3423 -0.1506
67439CHOL    R341338  32.168  23.469   4.361 -0.1208 -0.0020 -0.0045
67439CHOL    R441339  32.029  23.547   4.114 -0.0282 -0.4038 -0.1855
67439CHOL    R541340  32.212  23.429   4.128  0.1305 -0.1291  0.0643
67439CHOL    C141341  32.337  23.722   3.917 -0.1128 -0.1209 -0.0688
67439CHOL    C241342  32.064  23.829   3.561  0.0080  0.2552 -0.1351
67440CHOL   ROH41343   7.617   4.452  14.741 -0.0556  0.1547  0.0315
67440CHOL    R141344   7.459   4.333  14.944  0.1641  0.0972  0.1710
67440CHOL    R241345   7.460   4.422  15.205  0.0977  0.3216  0.0979
67440CHOL    R341346   7.191   4.437  15.166  0.0655 -0.0984  0.1437
67440CHOL    R441347   7.228   4.489  15.453  0.0863  0.5421  0.0288
67440CHOL    R541348   7.097   4.338  15.364  0.2483  0.1894  0.3759
67440CHOL    C141349   6.841   4.541  15.561  0.0495  0.2761  0.0313
67440CHOL    C241350   6.641   4.719  15.795 -0.2603 -0.0947  0.0886
67441CHOL   ROH41351  28.806  33.369   7.363 -0.0578 -0.0057 -0.3165
67441CHOL    R141352  28.604  33.266   7.533  0.0362  0.0519 -0.1682
67441CHOL    R241353  28.358  33.182   7.439 -0.0494  0.0989  0.0075
67441CHOL    R341354  28.423  32.953   7.569 -0.0082  0.0947 -0.0193
67441CHOL    R441355  28.130  32.965   7.581  0.0097  0.2285  0.3036
67441CHOL    R541356  28.266  32.941   7.750  0.1863  0.1995  0.1582
67441CHOL    C141357  28.058  32.623   7.786  0.0831  0.2997  0.4505
67441CHOL    C241358  28.000  32.266   7.696 -0.2228 -0.1547  0.0245
67442CHOL   ROH41359  25.832  23.321   6.449 -0.1109  0.0862  0.0579
67442CHOL    R141360  25.621  23.273   6.266 -0.1019  0.0830  0.0484
67442CHOL    R241361  25.398  23.435   6.250 -0.0955  0.0899  0.0261
67442CHOL    R341362  25.467  23.449   5.987 -0.0798  0.0726  0.0295
67442CHOL    R441363  25.181  23.383   5.985 -0.0248 -0.1684  0.0170
67442CHOL    R541364  25.340  23.275   5.883  0.0780 -0.0648  0.0655
67442CHOL    C141365  25.120  23.367   5.585  0.0318 -0.3350  0.0148
67442CHOL    C241366  24.933  23.523   5.427  0.0551  0.1999 -0.1008
67443CHOL   ROH41367  29.194  30.266   7.826  0.2619  0.1619 -0.0882
67443CHOL    R141368  28.977  30.426   7.912  0.3418  0.2481 -0.0466
67443CHOL    R241369  28.935  30.682   7.817  0.2251  0.1352 -0.3043
67443CHOL    R341370  28.688  30.585   7.758  0.1667  0.0462  0.0709
67443CHOL    R441371  28.638  30.854   7.862  0.2539  0.1413 -0.1334
67443CHOL    R541372  28.547  30.670   7.932  0.3548  0.1976  0.1508
67443CHOL    C141373  28.234  30.863   7.832  0.2162  0.0617  0.3182
67443CHOL    C241374  27.977  30.912   8.056  0.2736  0.4942  0.0863
67444CHOL   ROH41375  27.178  29.578   5.646 -0.2440  0.0818 -0.0210
67444CHOL    R141376  27.365  29.513   5.848 -0.0881  0.1305 -0.1490
67444CHOL    R241377  27.335  29.594   6.110  0.0171  0.0343 -0.1074
67444CHOL    R341378  27.361  29.329   6.162  0.2028  0.0339 -0.2005
67444CHOL    R441379  27.384  29.459   6.424  0.0774 -0.0431 -0.1501
67444CHOL    R541380  27.526  29.319   6.336  0.1898  0.0908 -0.1844
67444CHOL    C141381  27.437  29.130   6.656  0.2867 -0.0891 -0.2625
67444CHOL    C241382  27.342  29.033   6.950 -0.1555  0.0513  0.4101
67445CHOL   ROH41383  25.525  18.016   2.245 -0.0331  0.0223 -0.2610
67445CHOL    R141384  25.791  17.943   2.306  0.0151  0.2289 -0.2159
67445CHOL    R241385  25.868  17.680   2.344  0.1088  0.3257  0.3017
67445CHOL    R341386  26.051  17.740   2.152  0.0105 -0.0169  0.0974
67445CHOL    R441387  26.182  17.538   2.320  0.1272  0.3420  0.4432
67445CHOL    R541388  26.261  17.734   2.267  0.0635  0.2562  0.0160
67445CHOL    C141389  26.537  17.511   2.126  0.0454  0.0304  0.3339
67445CHOL    C241390  26.935  17.425   2.101  0.0821  0.0960  0.1479
67446CHOL   ROH41391  26.331  13.925   5.217 -0.0242 -0.2484  0.1161
67446CHOL    R141392  26.299  13.957   4.938 -0.0414 -0.0478  0.1402
67446CHOL    R241393  26.339  13.750   4.759  0.1945  0.1437 -0.0319
67446CHOL    R341394  26.088  13.815   4.677  0.1283 -0.0599  0.0086
67446CHOL    R441395  26.224  13.721   4.435  0.1301 -0.0547  0.0081
67446CHOL    R541396  26.119  13.911   4.460  0.0051 -0.1175 -0.0348
67446CHOL    C141397  25.921  13.765   4.169  0.0297 -0.3613  0.0692
67446CHOL    C241398  25.953  13.738   3.762  0.2175  0.1366 -0.2209
67447CHOL   ROH41399  20.506  13.847  10.049  0.0002  0.0752  0.1434
67447CHOL    R141400  20.773  13.837  10.142  0.0340  0.1510  0.0549
67447CHOL    R241401  20.894  14.048  10.271 -0.0576  0.1038  0.2214
67447CHOL    R341402  20.943  13.861  10.462  0.1116 -0.0497  0.0297
67447CHOL    R441403  21.144  14.070  10.509  0.0816 -0.0361  0.0886
67447CHOL    R541404  21.182  13.857  10.482  0.1242 -0.0015 -0.1196
67447CHOL    C141405  21.336  13.907  10.827  0.3217 -0.2619 -0.1686
67447CHOL    C241406  21.498  13.920  11.083 -0.0688 -0.3056 -0.0199
67448CHOL   ROH41407  14.879  19.217  16.008 -0.0220  0.0303  0.0157
67448CHOL    R141408  15.091  19.043  16.079  0.0965  0.1757  0.0221
67448CHOL    R241409  15.235  19.072  16.312 -0.1068  0.1163  0.1575
67448CHOL    R341410  15.164  18.813  16.351  0.1163  0.0105 -0.1223
67448CHOL    R441411  15.386  18.857  16.536 -0.0093  0.0423  0.0210
67448CHOL    R541412  15.371  18.699  16.386  0.2067  0.1686 -0.1373
67448CHOL    C141413  15.407  18.487  16.702  0.2569 -0.0999 -0.3212
67448CHOL    C241414  15.596  18.474  16.963  0.1711 -0.2662  0.0713
67449CHOL   ROH41415   8.402  16.846  14.057  0.2935  0.2079  0.2482
67449CHOL    R141416   8.195  16.762  14.230  0.2084  0.1459  0.1173
67449CHOL    R241417   8.231  16.734  14.503  0.0889 -0.0006  0.1186
67449CHOL    R341418   8.017  16.901  14.516  0.1068  0.0222  0.1140
67449CHOL    R441419   7.963  16.696  14.719  0.0089 -0.0538  0.0111
67449CHOL    R541420   7.830  16.756  14.557  0.0730  0.0301 -0.0098
67449CHOL    C141421   7.607  16.831  14.857 -0.0210 -0.0636 -0.0562
67449CHOL    C241422   7.541  17.102  15.174 -0.2092 -0.1306  0.2553
67450CHOL   ROH41423  13.996  14.280  14.870 -0.1358 -0.2303 -0.0397
67450CHOL    R141424  14.081  14.409  15.107 -0.1072 -0.1684 -0.0837
67450CHOL    R241425  13.908  14.470  15.314 -0.0973 -0.0411 -0.1131
67450CHOL    R341426  14.089  14.332  15.463 -0.1444 -0.0400 -0.0545
67450CHOL    R441427  13.972  14.526  15.649 -0.1040  0.0547 -0.1278
67450CHOL    R541428  14.184  14.496  15.608 -0.1093 -0.0164 -0.1040
67450CHOL    C141429  14.179  14.429  15.984 -0.1523  0.1115 -0.0812
67450CHOL    C241430  14.274  14.537  16.229  0.1642 -0.0064 -0.2362
67451CHOL   ROH41431  22.347  13.134   5.282  0.2596 -0.2301  0.0150
67451CHOL    R141432  22.556  13.322   5.319  0.1085 -0.0763  0.0936
67451CHOL    R241433  22.775  13.334   5.152  0.2112  0.0194  0.2343
67451CHOL    R341434  22.702  13.595   5.128  0.0483 -0.0377  0.1032
67451CHOL    R441435  22.990  13.594   5.073  0.1289  0.1740  0.5116
67451CHOL    R541436  22.886  13.718   5.220 -0.1728  0.1122  0.3523
67451CHOL    C141437  23.046  13.989   5.005 -0.0720  0.2104  0.5499
67451CHOL    C241438  23.318  14.216   4.864 -0.0218 -0.1499 -0.0357
67452CHOL   ROH41439  26.211   7.729   8.456 -0.0551 -0.0116 -0.0091
67452CHOL    R141440  26.125   7.743   8.186 -0.0422  0.0067 -0.0124
67452CHOL    R241441  26.138   7.526   8.015 -0.0243  0.0212 -0.0294
67452CHOL    R341442  25.873   7.579   7.981 -0.0248  0.0123 -0.0384
67452CHOL    R441443  25.931   7.361   7.793 -0.0748 -0.1755  0.1625
67452CHOL    R541444  25.838   7.552   7.745 -0.0645 -0.2123 -0.0079
67452CHOL    C141445  25.562   7.314   7.631 -0.1045 -0.2984  0.2659
67452CHOL    C241446  25.703   7.373   7.290 -0.1487  0.0368 -0.3783
67453CHOL   ROH41447  15.730  25.615  17.499 -0.0052 -0.3293  0.0060
67453CHOL    R141448  15.964  25.680  17.646  0.0100 -0.2281 -0.0618
67453CHOL    R241449  16.068  25.935  17.654 -0.0758 -0.1874 -0.1229
67453CHOL    R341450  16.050  25.900  17.922  0.0008 -0.1601 -0.1138
67453CHOL    R441451  16.253  26.108  17.889 -0.2560  0.0761 -0.1741
67453CHOL    R541452  16.275  25.923  18.001 -0.0187  0.1244 -0.1434
67453CHOL    C141453  16.343  26.176  18.278 -0.2886  0.2554 -0.1950
67453CHOL    C241454  16.421  26.486  18.553  0.1002  0.1397 -0.1068
67454CHOL   ROH41455   4.581  21.094  15.475 -0.0828 -0.0098  0.1656
67454CHOL    R141456   4.790  21.031  15.295 -0.0934  0.1013  0.1143
67454CHOL    R241457   4.843  20.773  15.213  0.0461  0.1250  0.1292
67454CHOL    R341458   4.819  20.881  14.965 -0.0913  0.0816  0.1235
67454CHOL    R441459   4.964  20.629  14.923  0.0218  0.1492  0.1075
67454CHOL    R541460   5.026  20.828  14.856 -0.1003  0.1717  0.0613
67454CHOL    C141461   5.011  20.647  14.520 -0.1213  0.1216  0.0892
67454CHOL    C241462   5.235  20.594  14.225 -0.0663 -0.4924  0.1960
67455CHOL   ROH41463  34.509  13.005   2.375  0.0737 -0.1418  0.0840
67455CHOL    R141464  34.485  12.943   2.650 -0.0229 -0.0990  0.0859
67455CHOL    R241465  34.412  13.131   2.840 -0.0216 -0.0522  0.0420
67455CHOL    R341466  34.220  12.948   2.900 -0.0921  0.0113  0.0103
67455CHOL    R441467  34.219  13.135   3.126  0.1030 -0.1265  0.1271
67455CHOL    R541468  34.240  12.918   3.137 -0.0061 -0.1446 -0.0157
67455CHOL    C141469  33.927  12.966   3.350  0.1100 -0.1099  0.1470
67455CHOL    C241470  33.735  12.752   3.537  0.2099  0.2140  0.1847
67456CHOL   ROH41471   6.123   2.639  17.776 -0.2920  0.2651 -0.0870
67456CHOL    R141472   6.334   2.746  17.621 -0.1742  0.1372 -0.0154
67456CHOL    R241473   6.510   2.586  17.480 -0.2439  0.0312  0.0165
67456CHOL    R341474   6.434   2.742  17.271 -0.0780  0.1085  0.0122
67456CHOL    R441475   6.702   2.647  17.198 -0.1987 -0.2217 -0.0082
67456CHOL    R541476   6.634   2.854  17.203  0.0522 -0.1385 -0.0177
67456CHOL    C141477   6.741   2.828  16.838 -0.0166 -0.2964 -0.0268
67456CHOL    C241478   7.035   2.916  16.573  0.4595 -0.4497 -0.2296
67457CHOL   ROH41479  25.191  22.882   6.798  0.0809 -0.0516  0.1232
67457CHOL    R141480  24.965  22.737   6.709  0.0900 -0.0509  0.0993
67457CHOL    R241481  24.711  22.781   6.809  0.0606  0.0303 -0.0108
67457CHOL    R341482  24.648  22.814   6.547  0.1612 -0.0656 -0.0475
67457CHOL    R441483  24.395  22.739   6.675  0.0458  0.2897 -0.0606
67457CHOL    R541484  24.487  22.642   6.503 -0.0151  0.0803  0.0219
67457CHOL    C141485  24.152  22.745   6.351  0.1320  0.3505 -0.1239
67457CHOL    C241486  23.781  22.872   6.310  0.0151 -0.0613 -0.1269
67458CHOL   ROH41487   2.045  15.307  10.464 -0.0419 -0.1042 -0.0076
67458CHOL    R141488   2.239  15.407  10.284 -0.0456 -0.1703 -0.0483
67458CHOL    R241489   2.500  15.459  10.360 -0.0629 -0.0716 -0.0545
67458CHOL    R341490   2.560  15.295  10.152 -0.0105 -0.1831  0.0481
67458CHOL    R441491   2.808  15.441  10.205 -0.0780 -0.0192 -0.0906
67458CHOL    R541492   2.706  15.425  10.014 -0.0992 -0.2028 -0.0636
67458CHOL    C141493   3.044  15.276   9.920 -0.0375 -0.0929 -0.0153
67458CHOL    C241494   3.412  15.409   9.864  0.0587  0.2554 -0.1107
67459CHOL   ROH41495  13.749  28.895  20.868  0.0008  0.0890 -0.1357
67459CHOL    R141496  13.757  28.692  20.671  0.0514  0.0807 -0.1261
67459CHOL    R241497  13.543  28.639  20.504 -0.0121 -0.1181  0.0148
67459CHOL    R341498  13.729  28.673  20.308 -0.1671  0.0323 -0.1071
67459CHOL    R441499  13.534  28.488  20.193 -0.1384 -0.0574 -0.0111
67459CHOL    R541500  13.749  28.458  20.206 -0.1112  0.0658 -0.1669
67459CHOL    C141501  13.703  28.433  19.828 -0.3575  0.1194 -0.1404
67459CHOL    C241502  13.771  28.547  19.436 -0.0675  0.2529  0.0238
67460CHOL   ROH41503   4.542  18.051  15.079 -0.1714 -0.2404  0.2180
67460CHOL    R141504   4.646  17.960  14.832 -0.1448 -0.2602  0.2366
67460CHOL    R241505   4.893  18.039  14.736 -0.2767 -0.0083  0.1015
67460CHOL    R341506   4.937  17.772  14.722  0.0534  0.0360  0.2490
67460CHOL    R441507   5.132  17.890  14.536 -0.2102  0.1648  0.0502
67460CHOL    R541508   4.988  17.732  14.491 -0.0415 -0.0494  0.2419
67460CHOL    C141509   5.313  17.551  14.406  0.1384  0.3071  0.1586
67460CHOL    C241510   5.312  17.603  14.112  0.1218 -0.1725  0.0700
67461CHOL   ROH41511  10.697  11.025  17.984 -0.2885  0.1261 -0.1214
67461CHOL    R141512  10.908  10.887  17.854 -0.2858 -0.0737  0.0906
67461CHOL    R241513  11.030  10.985  17.626 -0.2927 -0.4271 -0.0676
67461CHOL    R341514  11.256  10.953  17.774 -0.2892 -0.1869 -0.0194
67461CHOL    R441515  11.346  10.933  17.495 -0.1941 -0.0113 -0.0019
67461CHOL    R541516  11.383  10.789  17.654 -0.0574 -0.0053 -0.0282
67461CHOL    C141517  11.742  10.873  17.557 -0.1333  0.4562  0.0817
67461CHOL    C241518  12.051  10.841  17.333 -0.0847  0.0257 -0.1805
67462CHOL   ROH41519  23.024  23.488   7.292  0.3537 -0.3422  0.0550
67462CHOL    R141520  23.129  23.619   7.064  0.0433 -0.1907 -0.0051
67462CHOL    R241521  23.397  23.605   6.995  0.0464  0.2643 -0.1024
67462CHOL    R341522  23.298  23.520   6.757  0.1038  0.0544 -0.0517
67462CHOL    R441523  23.558  23.638   6.691 -0.0940  0.4341 -0.1591
67462CHOL    R541524  23.366  23.688   6.600 -0.1978  0.1205 -0.1144
67462CHOL    C141525  23.559  23.577   6.291 -0.1218  0.3363 -0.1446
67462CHOL    C241526  23.544  23.700   5.932 -0.1998  0.0670  0.1194
67463CHOL   ROH41527  21.483  21.450  12.915 -0.1489  0.0527  0.0037
67463CHOL    R141528  21.202  21.421  12.934 -0.1308 -0.0484  0.1328
67463CHOL    R241529  21.046  21.345  12.720 -0.2208  0.0607  0.1593
67463CHOL    R341530  20.960  21.153  12.892 -0.0692 -0.0931  0.0650
67463CHOL    R441531  20.763  21.151  12.674 -0.3628  0.2274  0.3201
67463CHOL    R541532  20.721  21.171  12.887 -0.0708  0.0124  0.4025
67463CHOL    C141533  20.518  20.858  12.809 -0.3030  0.1800  0.3253
67463CHOL    C241534  20.294  20.644  13.016  0.2902  0.1645  0.0596
67464CHOL   ROH41535   7.057  19.241  13.888 -0.0336 -0.0456 -0.1873
67464CHOL    R141536   7.013  19.115  14.137  0.0559 -0.0286 -0.1625
67464CHOL    R241537   6.829  19.208  14.321  0.1105 -0.0258 -0.1096
67464CHOL    R341538   6.733  18.954  14.306  0.1212 -0.0326 -0.0578
67464CHOL    R441539   6.633  19.056  14.562  0.0141  0.0578 -0.1347
67464CHOL    R541540   6.746  18.872  14.531  0.0305  0.0483 -0.0224
67464CHOL    C141541   6.429  18.729  14.688 -0.0319  0.1000 -0.1003
67464CHOL    C241542   6.000  18.686  14.676 -0.2217  0.1361  0.1226
67465CHOL   ROH41543  26.613  28.250   4.497  0.0441 -0.1112  0.0064
67465CHOL    R141544  26.739  28.115   4.711 -0.0366 -0.1118  0.0534
67465CHOL    R241545  26.794  28.238   4.953 -0.0252 -0.0799  0.0331
67465CHOL    R341546  26.656  28.027   5.054 -0.1171 -0.0071  0.0613
67465CHOL    R441547  26.879  28.066   5.241 -0.0843 -0.0938  0.0429
67465CHOL    R541548  26.825  27.881   5.140 -0.1780 -0.0784  0.0623
67465CHOL    C141549  26.799  27.769   5.504 -0.2043 -0.0327  0.0749
67465CHOL    C241550  26.908  27.457   5.809  0.0372  0.1993  0.1087
67466CHOL   ROH41551  24.038   5.314   7.216  0.1175  0.0397  0.1416
67466CHOL    R141552  24.076   5.498   7.428  0.2016  0.0905  0.0829
67466CHOL    R241553  23.991   5.447   7.686  0.1331  0.2331  0.0888
67466CHOL    R341554  24.250   5.501   7.747  0.1581  0.0934  0.1066
67466CHOL    R441555  24.102   5.555   7.995  0.1530  0.2935  0.0606
67466CHOL    R541556  24.238   5.691   7.893  0.2565  0.1631  0.0238
67466CHOL    C141557  24.410   5.669   8.232  0.1878  0.1975  0.0607
67466CHOL    C241558  24.405   5.907   8.473  0.0291 -0.0607 -0.1582
67467CHOL   ROH41559   6.469  15.362  12.824  0.0420 -0.1618  0.0906
67467CHOL    R141560   6.229  15.312  12.966  0.0915 -0.1155  0.1921
67467CHOL    R241561   6.188  15.399  13.224  0.0766  0.2089  0.0840
67467CHOL    R341562   5.965  15.511  13.117 -0.0048 -0.0666 -0.0389
67467CHOL    R441563   5.915  15.509  13.406  0.1283  0.4941 -0.0078
67467CHOL    R541564   5.785  15.427  13.251  0.0803  0.1477  0.2126
67467CHOL    C141565   5.546  15.678  13.411  0.0820  0.4013 -0.1770
67467CHOL    C241566   5.290  15.809  13.687 -0.2536 -0.2256 -0.0309
67468CHOL   ROH41567  14.421   8.840  17.782 -0.1880 -0.0629 -0.1183
67468CHOL    R141568  14.434   8.827  17.499 -0.1527 -0.0764 -0.1165
67468CHOL    R241569  14.246   8.947  17.336 -0.1123 -0.0524 -0.1464
67468CHOL    R341570  14.465   9.064  17.225 -0.0786 -0.0918 -0.1213
67468CHOL    R441571  14.258   9.083  17.018 -0.0784  0.0264 -0.1110
67468CHOL    R541572  14.457   8.999  16.995 -0.1054 -0.0294 -0.1383
67468CHOL    C141573  14.470   9.273  16.730 -0.0273  0.0354 -0.0669
67468CHOL    C241574  14.557   9.675  16.681 -0.0106 -0.2302  0.2907
67469CHOL   ROH41575  24.340  13.013   8.408  0.0483  0.1745  0.2239
67469CHOL    R141576  24.070  12.929   8.426  0.0517  0.1706  0.2542
67469CHOL    R241577  23.898  13.021   8.621  0.0127  0.3333  0.1444
67469CHOL    R341578  23.743  13.086   8.408  0.0432  0.1322  0.0590
67469CHOL    R441579  23.554  13.048   8.629  0.0160  0.3931  0.0818
67469CHOL    R541580  23.547  12.951   8.434  0.0212  0.1880  0.1822
67469CHOL    C141581  23.207  13.125   8.434  0.0464  0.2391 -0.0349
67469CHOL    C241582  22.752  13.117   8.547 -0.0916  0.0353  0.2594
67470CHOL   ROH41583  29.712  16.034   3.722  0.1106 -0.0809 -0.0299
67470CHOL    R141584  29.861  15.984   3.486 -0.0433 -0.1457 -0.1141
67470CHOL    R241585  29.769  15.818   3.286 -0.3525  0.1084 -0.1876
67470CHOL    R341586  29.815  16.036   3.129 -0.0986  0.1436 -0.0667
67470CHOL    R441587  29.807  15.810   2.942 -0.0620  0.2187 -0.1598
67470CHOL    R541588  29.966  15.957   2.961  0.0032  0.1246  0.0333
67470CHOL    C141589  29.872  16.009   2.595  0.3451  0.3158 -0.0300
67470CHOL    C241590  29.709  15.722   2.397 -0.0701  0.0220 -0.2977
67471CHOL   ROH41591  14.149  18.875  16.607 -0.0477 -0.1221 -0.0914
67471CHOL    R141592  14.271  18.653  16.734  0.0059 -0.0624 -0.0385
67471CHOL    R241593  14.430  18.680  16.958 -0.1222  0.0143  0.0437
67471CHOL    R341594  14.258  18.497  17.063 -0.0783 -0.0833 -0.0513
67471CHOL    R441595  14.487  18.499  17.247 -0.0840 -0.1122 -0.0420
67471CHOL    R541596  14.400  18.325  17.149 -0.0346 -0.0881 -0.1307
67471CHOL    C141597  14.357  18.223  17.514 -0.0206 -0.2768 -0.1811
67471CHOL    C241598  14.471  18.177  17.836  0.2595  0.0191 -0.0473
67472CHOL   ROH41599   9.870  25.993  18.205 -0.0981  0.2019  0.0585
67472CHOL    R141600   9.847  26.134  18.449  0.0869  0.2558  0.0456
67472CHOL    R241601   9.730  26.024  18.674 -0.1119  0.4497  0.0402
67472CHOL    R341602   9.966  26.092  18.791 -0.0187  0.0966  0.0630
67472CHOL    R441603   9.785  26.037  19.015 -0.2111  0.6584  0.0484
67472CHOL    R541604   9.902  26.219  18.984  0.1564  0.4025 -0.0772
67472CHOL    C141605  10.038  26.109  19.323 -0.1817  0.4485  0.0749
67472CHOL    C241606   9.766  25.983  19.517 -0.1310  0.1579  0.0686
67473CHOL   ROH41607   8.465  11.574  17.688  0.1019  0.1228  0.0072
67473CHOL    R141608   8.629  11.582  17.457 -0.0377  0.0725 -0.0946
67473CHOL    R241609   8.526  11.576  17.201 -0.1987  0.1174 -0.0315
67473CHOL    R341610   8.674  11.802  17.172 -0.1366  0.0663 -0.1149
67473CHOL    R441611   8.636  11.702  16.898 -0.4253  0.1446 -0.1038
67473CHOL    R541612   8.826  11.751  16.994 -0.3185  0.0483 -0.2663
67473CHOL    C141613   8.839  11.988  16.695 -0.4989  0.1130 -0.2239
67473CHOL    C241614   8.830  12.227  16.518 -0.1092  0.0898 -0.1229
67474CHOL   ROH41615  27.855  28.241   8.639  0.1102  0.2052  0.1725
67474CHOL    R141616  27.968  28.386   8.424  0.1310 -0.2008 -0.0972
67474CHOL    R241617  27.909  28.330   8.160 -0.4714 -0.1892  0.0225
67474CHOL    R341618  27.845  28.594   8.152  0.2069 -0.0167  0.0106
67474CHOL    R441619  27.847  28.510   7.871 -0.8570 -0.2539  0.0633
67474CHOL    R541620  27.957  28.677   7.957 -0.1471 -0.4721 -0.3946
67474CHOL    C141621  27.751  28.862   7.696 -0.4444 -0.1297  0.0759
67474CHOL    C241622  27.613  28.974   7.499 -0.1765 -0.0848  0.2272
67475CHOL   ROH41623   0.422  13.522   8.159 -0.1133 -0.0062 -0.1890
67475CHOL    R141624   0.688  13.466   8.080 -0.1041  0.0576 -0.2032
67475CHOL    R241625   0.772  13.212   8.011 -0.0189  0.0570 -0.0984
67475CHOL    R341626   0.854  13.337   7.783 -0.1004 -0.0173 -0.1687
67475CHOL    R441627   1.033  13.105   7.810  0.1856  0.2264  0.0736
67475CHOL    R541628   1.093  13.314   7.785 -0.0696  0.2855 -0.0691
67475CHOL    C141629   1.261  13.160   7.479  0.2281  0.2553  0.1078
67475CHOL    C241630   1.462  12.973   7.508 -0.0293 -0.2143 -0.4631
67476CHOL   ROH41631  31.250   4.549   6.235  0.3980  0.0606  0.1067
67476CHOL    R141632  31.218   4.717   6.460  0.3717  0.1348  0.0476
67476CHOL    R241633  31.322   4.973   6.471  0.0483  0.2785 -0.1738
67476CHOL    R341634  31.065   5.041   6.529  0.0078 -0.0265  0.0117
67476CHOL    R441635  31.228   5.240   6.669 -0.1247  0.1289 -0.0515
67476CHOL    R541636  31.074   5.115   6.757  0.0750 -0.0686  0.0238
67476CHOL    C141637  30.933   5.460   6.839 -0.2629 -0.2445  0.1938
67476CHOL    C241638  30.732   5.490   6.995 -0.1704 -0.1359  0.0381
67477CHOL   ROH41639  15.960  10.954  15.193  0.0959 -0.0004 -0.0983
67477CHOL    R141640  15.959  11.041  15.462  0.0240 -0.0732 -0.0751
67477CHOL    R241641  15.925  10.868  15.675  0.0059 -0.1356 -0.1296
67477CHOL    R341642  16.158  10.979  15.761 -0.0305 -0.1221 -0.0486
67477CHOL    R441643  15.996  10.946  16.004 -0.0925 -0.1829 -0.0969
67477CHOL    R541644  16.090  11.130  15.935 -0.0961 -0.1593 -0.0408
67477CHOL    C141645  16.255  11.096  16.277 -0.1837 -0.1980 -0.0019
67477CHOL    C241646  16.185  11.062  16.599  0.0325 -0.2028 -0.2109
67478CHOL   ROH41647  13.781   4.014  16.619  0.1874 -0.0101 -0.5117
67478CHOL    R141648  13.635   4.199  16.463  0.0766  0.1206 -0.2558
67478CHOL    R241649  13.400   4.133  16.334  0.1217  0.1541 -0.3551
67478CHOL    R341650  13.303   4.347  16.470 -0.0162 -0.0943 -0.0549
67478CHOL    R441651  13.231   4.397  16.190 -0.0647  0.2406  0.0151
67478CHOL    R541652  13.340   4.532  16.323 -0.1485  0.1342  0.1942
67478CHOL    C141653  13.042   4.753  16.234 -0.3025  0.0578  0.5122
67478CHOL    C241654  13.203   5.149  16.028 -0.0433 -0.1810  0.1348
67479CHOL   ROH41655   1.711  29.778  16.671 -0.0055  0.1450 -0.1064
67479CHOL    R141656   1.869  29.804  16.437  0.1570  0.0429 -0.0088
67479CHOL    R241657   2.137  29.740  16.431  0.1110 -0.1686  0.1470
67479CHOL    R341658   2.062  29.583  16.223  0.1123 -0.0887  0.0865
67479CHOL    R441659   2.316  29.702  16.138  0.0639  0.0195  0.0937
67479CHOL    R541660   2.128  29.707  16.028  0.0413  0.0217  0.1326
67479CHOL    C141661   2.350  29.533  15.771  0.0376  0.2042  0.0058
67479CHOL    C241662   2.772  29.468  15.571  0.1178 -0.0989 -0.0245
67480CHOL   ROH41663  34.013  31.430  12.788  0.1431  0.0091 -0.1186
67480CHOL    R141664  34.236  31.381  12.620  0.1335 -0.1156 -0.0955
67480CHOL    R241665  34.243  31.172  12.440 -0.0552  0.0111 -0.2519
67480CHOL    R341666  34.300  31.370  12.262  0.2162  0.0833 -0.0875
67480CHOL    R441667  34.516  31.174  12.228 -0.0423 -0.1797 -0.2382
67480CHOL    R541668  34.539  31.387  12.268  0.2415 -0.2405 -0.0618
67480CHOL    C141669  34.729  31.361  11.938  0.2194 -0.2232 -0.0756
67480CHOL    C241670  35.071  31.158  11.913 -0.1464 -0.1223  0.2089
67481CHOL   ROH41671  13.474   0.381  14.101  0.0338  0.0987 -0.1642
67481CHOL    R141672  13.682   0.449  14.280  0.0846  0.1704 -0.2499
67481CHOL    R241673  13.805   0.696  14.278 -0.1191  0.2731 -0.1875
67481CHOL    R341674  13.736   0.697  14.541  0.0350  0.0714 -0.1450
67481CHOL    R441675  13.924   0.920  14.513  0.0139  0.0975 -0.0860
67481CHOL    R541676  13.938   0.756  14.656  0.1015 -0.0115 -0.2187
67481CHOL    C141677  13.928   1.052  14.897  0.2362 -0.1941  0.0128
67481CHOL    C241678  13.898   1.262  15.148  0.0197  0.0653 -0.1102
67482CHOL   ROH41679  21.229  17.463   6.274  0.2639 -0.1519  0.2410
67482CHOL    R141680  21.482  17.570   6.343  0.2869 -0.1301  0.1232
67482CHOL    R241681  21.707  17.531   6.188  0.1925 -0.0050 -0.0493
67482CHOL    R341682  21.719  17.803   6.194  0.1353 -0.0053  0.0755
67482CHOL    R441683  21.997  17.715   6.228  0.1545  0.0397  0.0195
67482CHOL    R541684  21.887  17.851   6.358  0.1333 -0.0444  0.0878
67482CHOL    C141685  22.177  18.077   6.257  0.0788  0.0652  0.1765
67482CHOL    C241686  22.439  18.189   6.555  0.3379 -0.1880  0.4435
67483CHOL   ROH41687   1.947   9.842   6.351  0.1058  0.0458  0.0368
67483CHOL    R141688   1.907  10.066   6.519 -0.0184  0.0525 -0.0010
67483CHOL    R241689   1.887  10.324   6.422 -0.0645  0.0341 -0.0358
67483CHOL    R341690   1.654  10.323   6.562 -0.1111 -0.0188 -0.1127
67483CHOL    R441691   1.722  10.607   6.531 -0.1627 -0.0004 -0.0937
67483CHOL    R541692   1.678  10.504   6.718 -0.2013 -0.0105 -0.1055
67483CHOL    C141693   1.406  10.772   6.725 -0.2635 -0.0704 -0.1995
67483CHOL    C241694   1.114  10.965   6.957 -0.1736 -0.0471 -0.4687
67484CHOL   ROH41695   2.988  25.681   9.175  0.0057 -0.0663  0.1016
67484CHOL    R141696   2.822  25.455   9.212 -0.0873 -0.0086  0.0396
67484CHOL    R241697   2.760  25.355   9.462 -0.0687 -0.0953  0.0099
67484CHOL    R341698   2.504  25.384   9.374 -0.0787  0.0608  0.0872
67484CHOL    R441699   2.512  25.118   9.497 -0.1634 -0.0057 -0.0505
67484CHOL    R541700   2.444  25.165   9.295 -0.1929  0.1268 -0.0094
67484CHOL    C141701   2.127  25.006   9.435 -0.2279  0.1931 -0.0131
67484CHOL    C241702   2.034  24.793   9.723  0.2720  0.3255  0.2104
67485CHOL   ROH41703  27.068   3.623   6.529 -0.1371  0.0372  0.0484
67485CHOL    R141704  27.146   3.789   6.744 -0.0526  0.0067  0.0417
67485CHOL    R241705  26.973   3.860   6.947 -0.0538  0.2039 -0.0259
67485CHOL    R341706  27.170   3.760   7.106 -0.1952  0.0521  0.0549
67485CHOL    R441707  27.057   3.984   7.259  0.0240  0.2439 -0.0626
67485CHOL    R541708  27.268   3.953   7.209  0.0006 -0.0119 -0.0093
67485CHOL    C141709  27.291   3.962   7.589 -0.0639  0.1247 -0.0082
67485CHOL    C241710  27.027   4.167   7.817 -0.2451 -0.0320  0.0663
67486CHOL   ROH41711  33.243   4.244  10.941  0.0573 -0.0907 -0.0206
67486CHOL    R141712  33.361   4.182  10.692  0.0923  0.0212 -0.0322
67486CHOL    R241713  33.380   3.923  10.597  0.0639  0.0685 -0.1670
67486CHOL    R341714  33.255   4.028  10.379  0.1234  0.2068 -0.1349
67486CHOL    R441715  33.383   3.784  10.280  0.1709  0.2822 -0.2611
67486CHOL    R541716  33.404   3.984  10.197  0.1827  0.3408 -0.1189
67486CHOL    C141717  33.267   3.801   9.892  0.2904  0.5367 -0.2858
67486CHOL    C241718  33.184   3.576   9.630  0.0080 -0.0468 -0.1377
67487CHOL   ROH41719  27.668  12.362   4.925 -0.0183 -0.2440  0.0858
67487CHOL    R141720  27.500  12.385   4.698  0.0011 -0.0607  0.0897
67487CHOL    R241721  27.557  12.261   4.458  0.0006  0.0992  0.0048
67487CHOL    R341722  27.306  12.160   4.488 -0.0154  0.1132 -0.0822
67487CHOL    R441723  27.364  12.129   4.203  0.1209  0.0120 -0.0411
67487CHOL    R541724  27.190  12.227   4.290  0.0809  0.0438 -0.1607
67487CHOL    C141725  27.017  11.958   4.083  0.1756 -0.0259 -0.1495
67487CHOL    C241726  26.593  11.764   3.984  0.0632 -0.1928 -0.1585
67488CHOL   ROH41727  13.046   8.013  15.301  0.0642  0.0394 -0.0557
67488CHOL    R141728  13.139   7.963  15.564  0.0597  0.0674 -0.0487
67488CHOL    R241729  13.097   8.140  15.772  0.0095  0.0646 -0.0572
67488CHOL    R341730  12.989   7.922  15.893  0.0497  0.0453 -0.0558
67488CHOL    R441731  13.079   8.092  16.114  0.1393  0.0046 -0.0584
67488CHOL    R541732  13.130   7.883  16.083  0.1222  0.0079 -0.1162
67488CHOL    C141733  12.967   7.860  16.427  0.2527 -0.0485 -0.0575
67488CHOL    C241734  12.872   7.857  16.722  0.2071 -0.1424 -0.3890
67489CHOL   ROH41735   2.490  20.175   9.460 -0.1396 -0.1408 -0.1522
67489CHOL    R141736   2.733  20.257   9.340 -0.0644 -0.1665 -0.0175
67489CHOL    R241737   2.930  20.078   9.266 -0.0758 -0.1945  0.0206
67489CHOL    R341738   2.906  20.200   9.025  0.0655 -0.1173  0.0440
67489CHOL    R441739   3.172  20.077   9.019 -0.0219 -0.3099  0.0732
67489CHOL    R541740   3.124  20.286   8.979  0.1389 -0.2647  0.1128
67489CHOL    C141741   3.289  20.191   8.648  0.1423 -0.3049  0.1258
67489CHOL    C241742   3.521  20.480   8.436  0.3078  0.2844 -0.2710
67490CHOL   ROH41743  23.861  23.548  10.725  0.1416 -0.3500 -0.0839
67490CHOL    R141744  23.663  23.521  10.525  0.0427 -0.2354 -0.0026
67490CHOL    R241745  23.545  23.279  10.464  0.0234 -0.2036 -0.0927
67490CHOL    R341746  23.315  23.416  10.510  0.0394 -0.2410  0.1061
67490CHOL    R441747  23.238  23.202  10.324 -0.0471 -0.1419  0.0273
67490CHOL    R541748  23.203  23.416  10.298 -0.0731 -0.1291  0.1650
67490CHOL    C141749  22.844  23.287  10.285 -0.0735 -0.1412  0.2840
67490CHOL    C241750  22.573  23.345  10.109  0.3771 -0.0645 -0.2258
67491CHOL   ROH41751  31.190   8.378   3.278 -0.0652  0.0568 -0.0126
67491CHOL    R141752  31.104   8.645   3.310 -0.0175  0.0661  0.0381
67491CHOL    R241753  30.862   8.710   3.426 -0.0130  0.0859  0.0368
67491CHOL    R341754  31.017   8.864   3.588  0.0052  0.0240  0.0789
67491CHOL    R441755  30.742   8.923   3.671  0.0065  0.0962  0.0375
67491CHOL    R541756  30.895   9.068   3.612  0.0601  0.0583  0.0775
67491CHOL    C141757  30.819   9.192   3.965  0.0344  0.0438  0.0773
67491CHOL    C241758  30.508   9.068   4.172  0.1292 -0.2091  0.0042
67492CHOL   ROH41759   7.106   9.965  13.079 -0.0402  0.0900 -0.2425
67492CHOL    R141760   6.937  10.139  13.224  0.0099  0.0964 -0.1920
67492CHOL    R241761   6.701  10.238  13.121 -0.0897 -0.0130 -0.0661
67492CHOL    R341762   6.595  10.133  13.348  0.0964  0.0448  0.0486
67492CHOL    R441763   6.372  10.275  13.220 -0.0708 -0.1936  0.0666
67492CHOL    R541764   6.442  10.301  13.425  0.0096 -0.0184  0.0195
67492CHOL    C141765   6.081  10.198  13.492  0.1148 -0.2444  0.2516
67492CHOL    C241766   5.661  10.045  13.521  0.0778  0.0656  0.1755
67493CHOL   ROH41767  20.167   0.668  13.006  0.0794 -0.2046  0.1547
67493CHOL    R141768  20.107   0.549  12.756  0.0988 -0.1288  0.1138
67493CHOL    R241769  19.875   0.604  12.617  0.0564 -0.1723  0.1668
67493CHOL    R341770  20.048   0.663  12.416  0.0045 -0.0149  0.1678
67493CHOL    R441771  19.799   0.590  12.280  0.1076 -0.3692  0.1626
67493CHOL    R541772  19.996   0.505  12.244  0.2201 -0.1336  0.2091
67493CHOL    C141773  19.916   0.638  11.895  0.0883 -0.3361  0.1611
67493CHOL    C241774  19.883   0.380  11.662  0.1249  0.1399  0.0692
67494CHOL   ROH41775  23.674  27.541   5.969  0.1199 -0.0658  0.0326
67494CHOL    R141776  23.700  27.401   6.213 -0.0023  0.0000  0.0842
67494CHOL    R241777  23.943  27.370   6.342 -0.0290 -0.1573  0.0988
67494CHOL    R341778  23.809  27.477   6.552  0.0569  0.0329  0.0579
67494CHOL    R441779  24.050  27.361   6.670 -0.1583 -0.3399  0.1368
67494CHOL    R541780  23.845  27.322   6.731 -0.2399 -0.0341  0.0619
67494CHOL    C141781  23.987  27.456   7.059 -0.1524 -0.2678  0.1205
67494CHOL    C241782  24.254  27.510   7.289  0.0949  0.0532  0.1878
67495CHOL   ROH41783  30.439  10.577   1.932  0.0062  0.1498  0.0889
67495CHOL    R141784  30.366  10.505   2.196  0.0267  0.0596  0.0702
67495CHOL    R241785  30.547  10.501   2.404  0.0276  0.0612  0.0700
67495CHOL    R341786  30.365  10.664   2.523 -0.0227 -0.0245  0.1113
67495CHOL    R441787  30.509  10.538   2.746  0.0370 -0.0130  0.0793
67495CHOL    R541788  30.293  10.542   2.716  0.0338 -0.0848  0.0947
67495CHOL    C141789  30.315  10.713   3.056 -0.0045 -0.1365  0.1234
67495CHOL    C241790  30.076  10.470   3.235  0.0869  0.3020 -0.0973
67496CHOL   ROH41791  14.494  23.021  21.145  0.2097  0.2876  0.0442
67496CHOL    R141792  14.579  23.054  20.878  0.0294  0.2880 -0.0135
67496CHOL    R241793  14.481  22.900  20.670  0.0571  0.1339  0.0869
67496CHOL    R341794  14.425  23.142  20.560 -0.2311  0.0492  0.0448
67496CHOL    R441795  14.446  22.959  20.332  0.2363  0.0790  0.0584
67496CHOL    R541796  14.554  23.147  20.358 -0.0746  0.2491  0.1472
67496CHOL    C141797  14.372  23.220  20.031  0.0700 -0.0324  0.0016
67496CHOL    C241798  14.340  23.419  19.716 -0.0424  0.1269 -0.3604
67497CHOL   ROH41799  30.793  17.044   3.758 -0.1233 -0.2525  0.2376
67497CHOL    R141800  30.771  16.950   3.492 -0.0130 -0.1921  0.2069
67497CHOL    R241801  30.906  17.068   3.281 -0.0637 -0.0333  0.2622
67497CHOL    R341802  30.996  16.814   3.240  0.1263  0.0429  0.2026
67497CHOL    R441803  31.032  16.949   2.982 -0.0771  0.1005  0.2031
67497CHOL    R541804  30.925  16.762   3.017  0.0866  0.0101  0.2226
67497CHOL    C141805  31.190  16.642   2.769  0.0941  0.2500  0.1127
67497CHOL    C241806  31.145  16.538   2.413  0.2634  0.4097  0.1513
67498CHOL   ROH41807   8.488   1.633  18.708 -0.1415  0.1223 -0.1622
67498CHOL    R141808   8.640   1.572  18.477 -0.0149  0.0007 -0.0477
67498CHOL    R241809   8.536   1.589  18.222  0.1269 -0.1277 -0.1138
67498CHOL    R341810   8.752   1.749  18.179  0.1539 -0.1544 -0.0784
67498CHOL    R441811   8.667   1.666  17.911  0.1163 -0.0547 -0.1007
67498CHOL    R541812   8.867   1.647  17.996  0.1204 -0.1195 -0.1204
67498CHOL    C141813   8.946   1.862  17.691  0.1356 -0.0372 -0.0592
67498CHOL    C241814   9.219   2.078  17.469  0.0281 -0.3563  0.1046
67499CHOL   ROH41815  31.440   4.372  10.245 -0.3235 -0.0094 -0.1714
67499CHOL    R141816  31.671   4.490  10.131 -0.1284 -0.0714  0.1524
67499CHOL    R241817  31.898   4.345  10.069 -0.2472 -0.2184  0.0555
67499CHOL    R341818  31.862   4.455   9.823  0.0124  0.2156  0.2045
67499CHOL    R441819  32.047   4.232   9.779 -0.3746 -0.0576 -0.0740
67499CHOL    R541820  32.077   4.439   9.719  0.0145 -0.0165  0.2415
67499CHOL    C141821  32.100   4.268   9.378 -0.2047  0.4435 -0.0095
67499CHOL    C241822  32.104   4.282   9.008 -0.1155  0.1530 -0.2776
67500CHOL   ROH41823   3.374  17.571  12.908  0.0131  0.0207 -0.0497
67500CHOL    R141824   3.558  17.633  12.702 -0.0153  0.0849 -0.0561
67500CHOL    R241825   3.804  17.749  12.753 -0.0606  0.1847 -0.0661
67500CHOL    R341826   3.898  17.536  12.614  0.0217  0.2154 -0.0586
67500CHOL    R441827   4.129  17.714  12.643  0.0102  0.1991  0.1375
67500CHOL    R541828   4.052  17.630  12.457  0.1285  0.2491  0.0659
67500CHOL    C141829   4.408  17.492  12.449  0.1286  0.2370  0.2634
67500CHOL    C241830   4.726  17.692  12.424  0.0496  0.2522  0.3257
67501CHOL   ROH41831  11.258   4.849  18.241  0.0446  0.0903 -0.0079
67501CHOL    R141832  11.312   4.967  17.990  0.1007 -0.2429 -0.1543
67501CHOL    R241833  11.297   4.825  17.753 -0.4012 -0.4214 -0.0257
67501CHOL    R341834  11.129   5.026  17.680 -0.0253 -0.1112 -0.0550
67501CHOL    R441835  11.229   4.917  17.427 -0.1433 -0.2586 -0.0349
67501CHOL    R541836  11.234   5.126  17.490  0.2087 -0.2743 -0.0114
67501CHOL    C141837  11.030   5.159  17.169  0.3597  0.1276 -0.0686
67501CHOL    C241838  11.052   5.202  16.777 -0.1010  0.1972  0.3858
67502CHOL   ROH41839  19.065  32.477  14.291 -0.0873  0.2100  0.0052
67502CHOL    R141840  18.805  32.415  14.198 -0.0750  0.0954  0.0464
67502CHOL    R241841  18.645  32.601  14.071 -0.1454  0.0026 -0.0000
67502CHOL    R341842  18.634  32.411  13.877 -0.1013 -0.0636  0.0615
67502CHOL    R441843  18.365  32.528  13.882 -0.0288  0.1244 -0.2222
67502CHOL    R541844  18.415  32.316  13.899 -0.1875  0.0950 -0.0965
67502CHOL    C141845  18.191  32.307  13.590  0.0803  0.1339 -0.2935
67502CHOL    C241846  17.731  32.378  13.476 -0.1171  0.2667  0.4245
67503CHOL   ROH41847   7.103  30.825  20.158 -0.1115  0.2294  0.1268
67503CHOL    R141848   7.144  30.901  19.889 -0.1170  0.0921  0.0872
67503CHOL    R241849   7.293  31.123  19.818 -0.1887  0.1037 -0.0262
67503CHOL    R341850   7.430  30.943  19.667 -0.1144  0.0663  0.0853
67503CHOL    R441851   7.394  31.176  19.492 -0.1196 -0.0147 -0.0242
67503CHOL    R541852   7.339  30.969  19.447 -0.0664 -0.0463  0.0513
67503CHOL    C141853   7.582  31.038  19.160 -0.0096 -0.1191  0.0812
67503CHOL    C241854   7.612  31.181  18.870 -0.2745  0.1983  0.1279
67504CHOL   ROH41855   4.105  19.436  13.154  0.1634 -0.2938  0.0920
67504CHOL    R141856   4.373  19.390  13.233  0.1880 -0.1362  0.1035
67504CHOL    R241857   4.535  19.205  13.108  0.2362 -0.1906  0.2434
67504CHOL    R341858   4.702  19.418  13.082  0.1618 -0.1558  0.0431
67504CHOL    R441859   4.856  19.190  12.980  0.2996 -0.2264  0.4071
67504CHOL    R541860   4.919  19.330  13.135  0.1740 -0.0004  0.2542
67504CHOL    C141861   5.200  19.380  12.882  0.2669 -0.2145  0.3139
67504CHOL    C241862   5.494  19.450  12.773 -0.0522 -0.0991 -0.2436
67505CHOL   ROH41863  32.834   7.774   9.502  0.2898  0.2534 -0.0156
67505CHOL    R141864  32.912   7.639   9.265  0.1038  0.2904 -0.0992
67505CHOL    R241865  33.020   7.770   9.048  0.1401  0.2963 -0.0809
67505CHOL    R341866  33.220   7.589   9.079  0.0023  0.1209 -0.2196
67505CHOL    R441867  33.242   7.677   8.800  0.0618  0.3048 -0.1534
67505CHOL    R541868  33.226   7.471   8.870 -0.0927  0.2674 -0.3035
67505CHOL    C141869  33.558   7.451   8.684 -0.1129  0.1452 -0.3260
67505CHOL    C241870  33.575   7.400   8.284 -0.5764 -0.0433  0.0958
67506CHOL   ROH41871   7.336  23.760  16.738 -0.0992 -0.1596 -0.0462
67506CHOL    R141872   7.080  23.803  16.850 -0.1101 -0.1417 -0.0778
67506CHOL    R241873   6.854  23.670  16.761 -0.0971 -0.1761 -0.0606
67506CHOL    R341874   6.830  23.602  17.023 -0.1142 -0.1074 -0.0443
67506CHOL    R441875   6.563  23.560  16.910 -0.1417 -0.0019 -0.0183
67506CHOL    R541876   6.612  23.681  17.085 -0.0722  0.0122 -0.0475
67506CHOL    C141877   6.370  23.433  17.244 -0.1836  0.1641  0.0220
67506CHOL    C241878   6.092  23.403  17.505  0.0346  0.2053 -0.1388
67507CHOL   ROH41879  21.775  12.327  13.942  0.0551  0.0015 -0.0143
67507CHOL    R141880  21.617  12.286  13.711  0.0784  0.0717 -0.0427
67507CHOL    R241881  21.359  12.188  13.723  0.1137 -0.0329 -0.1064
67507CHOL    R341882  21.301  12.412  13.581  0.0348  0.0260  0.0191
67507CHOL    R441883  21.090  12.223  13.509  0.1007 -0.0061 -0.0858
67507CHOL    R541884  21.219  12.331  13.371  0.0622  0.1156 -0.0257
67507CHOL    C141885  20.879  12.454  13.252  0.0191  0.0651  0.0441
67507CHOL    C241886  20.564  12.652  13.083 -0.1172  0.0973  0.3567
67508CHOL   ROH41887   9.547   8.194  18.139  0.3744 -0.1972  0.0726
67508CHOL    R141888   9.537   8.331  17.892  0.1628 -0.1067  0.1303
67508CHOL    R241889   9.755   8.349  17.723  0.0406  0.0230 -0.0115
67508CHOL    R341890   9.581   8.247  17.541 -0.0525  0.0404  0.0665
67508CHOL    R441891   9.741   8.440  17.390 -0.0544 -0.0204 -0.0200
67508CHOL    R541892   9.524   8.433  17.402 -0.0542  0.0373  0.0603
67508CHOL    C141893   9.570   8.397  17.025 -0.1969 -0.0290  0.0483
67508CHOL    C241894   9.526   8.634  16.706 -0.0284 -0.0051 -0.0667
67509CHOL   ROH41895  33.988  33.842  12.264  0.0860  0.0083  0.0653
67509CHOL    R141896  34.087  33.711  12.034  0.0061  0.1141 -0.0296
67509CHOL    R241897  34.169  33.848  11.808  0.2685  0.2390  0.1407
67509CHOL    R341898  34.399  33.706  11.845  0.0746 -0.0947  0.0875
67509CHOL    R441899  34.343  33.685  11.558  0.1102  0.2014  0.0546
67509CHOL    R541900  34.378  33.520  11.696 -0.1396  0.0446 -0.0627
67509CHOL    C141901  34.660  33.457  11.447 -0.1633 -0.1343 -0.0452
67509CHOL    C241902  34.668  33.162  11.709  0.0097  0.1267  0.1520
67510CHOL   ROH41903   2.005   0.136  11.509 -0.1890  0.3449 -0.2434
67510CHOL    R141904   1.877  35.382  11.720  0.0206  0.1938 -0.2155
67510CHOL    R241905   1.699   0.118  11.892  0.1241  0.0476 -0.0058
67510CHOL    R341906   1.535  35.301  11.814  0.1188  0.0430  0.0169
67510CHOL    R441907   1.468  35.346  12.095 -0.0488  0.2392 -0.0523
67510CHOL    R541908   1.524  35.156  12.004 -0.0417  0.1652  0.1024
67510CHOL    C141909   1.179  35.064  12.140 -0.1544  0.3464 -0.0583
67510CHOL    C241910   0.798  35.018  12.276 -0.2481  0.1261 -0.1176
67511CHOL   ROH41911  31.389   5.561   5.522 -0.0874  0.0072  0.0934
67511CHOL    R141912  31.178   5.690   5.660 -0.0717  0.0786  0.0497
67511CHOL    R241913  31.222   5.888   5.848 -0.0424  0.0450  0.0768
67511CHOL    R341914  31.052   6.030   5.691  0.0533  0.1260  0.0457
67511CHOL    R441915  31.058   6.176   5.946 -0.2771 -0.1311  0.2062
67511CHOL    R541916  30.880   6.104   5.841 -0.1379 -0.1090 -0.0523
67511CHOL    C141917  30.802   6.477   5.856 -0.3244 -0.1577  0.2525
67511CHOL    C241918  30.652   6.590   6.121  0.1545  0.0915 -0.2051
67512CHOL   ROH41919  16.462  11.371  14.527  0.2175 -0.0045  0.0097
67512CHOL    R141920  16.654  11.310  14.725  0.1085  0.0815  0.1428
67512CHOL    R241921  16.762  11.503  14.891 -0.0552  0.1381  0.1846
67512CHOL    R341922  16.678  11.335  15.087 -0.1318  0.1418  0.1548
67512CHOL    R441923  16.909  11.474  15.203  0.2148 -0.3128  0.0212
67512CHOL    R541924  16.879  11.258  15.191 -0.1493 -0.2600 -0.0985
67512CHOL    C141925  16.914  11.299  15.569  0.2996 -0.5718 -0.1017
67512CHOL    C241926  17.218  11.110  15.806  0.3420  0.1512  0.3003
67513CHOL   ROH41927   8.267  18.143  18.303 -0.0685  0.1219 -0.1683
67513CHOL    R141928   8.332  18.314  18.087 -0.1290  0.0778 -0.2216
67513CHOL    R241929   8.156  18.501  17.987 -0.0997  0.1690 -0.1058
67513CHOL    R341930   8.362  18.672  18.032  0.0248  0.0600 -0.2568
67513CHOL    R441931   8.221  18.786  17.802 -0.1888  0.2308 -0.0422
67513CHOL    R541932   8.433  18.739  17.814 -0.1949  0.1352 -0.3057
67513CHOL    C141933   8.452  19.112  17.737 -0.1239  0.1645 -0.1466
67513CHOL    C241934   8.669  19.374  17.583 -0.1104  0.1629  0.2069
67514CHOL   ROH41935  35.143  12.804   7.149 -0.0195 -0.1260 -0.0786
67514CHOL    R141936  35.259  12.637   6.952  0.0099 -0.2158  0.0151
67514CHOL    R241937  35.377  12.737   6.723 -0.0639 -0.3255 -0.0700
67514CHOL    R341938   0.204  12.588   6.807  0.0054 -0.1921 -0.0055
67514CHOL    R441939   0.239  12.610   6.517  0.0156 -0.2659 -0.0124
67514CHOL    R541940   0.235  12.426   6.633  0.0996 -0.2320  0.0469
67514CHOL    C141941   0.581  12.397   6.475  0.1267 -0.1056  0.0816
67514CHOL    C241942   0.988  12.360   6.452 -0.4339  0.0565 -0.1565
67515CHOL   ROH41943  13.629  31.931  16.784 -0.3046 -0.2033 -0.0273
67515CHOL    R141944  13.605  31.991  17.059 -0.1538 -0.0753 -0.0416
67515CHOL    R241945  13.822  32.058  17.217 -0.0632 -0.0328 -0.1844
67515CHOL    R341946  13.671  32.277  17.274 -0.0036  0.0142 -0.2050
67515CHOL    R441947  13.851  32.248  17.504 -0.0296 -0.0298 -0.1898
67515CHOL    R541948  13.633  32.263  17.510 -0.0262  0.0343 -0.2071
67515CHOL    C141949  13.726  32.564  17.725  0.0455  0.0162 -0.2123
67515CHOL    C241950  13.920  32.810  17.770 -0.1214  0.1179  0.0320
67516CHOL   ROH41951  22.566  10.340  13.297  0.1272 -0.1363  0.1649
67516CHOL    R141952  22.304  10.306  13.197  0.1207  0.0507  0.1161
67516CHOL    R241953  22.237  10.103  13.021 -0.0006  0.0700  0.1422
67516CHOL    R341954  22.048  10.047  13.208 -0.0872  0.2539  0.1118
67516CHOL    R441955  21.918   9.990  12.952  0.0374 -0.0139  0.1029
67516CHOL    R541956  21.843  10.120  13.109 -0.0439  0.1461 -0.0641
67516CHOL    C141957  21.555   9.871  13.087 -0.0216  0.1096  0.0511
67516CHOL    C241958  21.208   9.888  13.300  0.1235  0.2480  0.1760
67517CHOL   ROH41959  18.413  31.140  15.688 -0.0027  0.1239  0.2181
67517CHOL    R141960  18.220  30.956  15.596  0.2611  0.0158 -0.1306
67517CHOL    R241961  17.954  30.968  15.671  0.3064 -0.7329  0.2078
67517CHOL    R341962  17.911  30.971  15.403  0.0204  0.0058  0.2485
67517CHOL    R441963  17.661  30.870  15.517  0.2169 -0.5072  0.2330
67517CHOL    R541964  17.780  30.775  15.362  0.1253  0.0216 -0.1746
67517CHOL    C141965  17.450  30.815  15.175 -0.1036  0.3180  0.2857
67517CHOL    C241966  17.055  30.814  15.174 -0.1582  0.0366  0.2590
67518CHOL   ROH41967   2.801   4.173   9.557  0.1800 -0.0265  0.1827
67518CHOL    R141968   2.519   4.194   9.570  0.1609 -0.3216  0.2749
67518CHOL    R241969   2.375   4.122   9.794  0.3636  0.0443  0.5270
67518CHOL    R341970   2.277   4.374   9.773  0.0588 -0.1114 -0.0285
67518CHOL    R441971   2.096   4.239   9.961  0.3815  0.1457  0.4862
67518CHOL    R541972   2.039   4.346   9.779  0.0919 -0.3737  0.2566
67518CHOL    C141973   1.841   4.545  10.038  0.1058  0.0586 -0.0590
67518CHOL    C241974   1.594   4.715  10.355 -0.3803 -0.3776  0.2993
67519CHOL   ROH41975  34.413  34.961  12.837 -0.0235 -0.1135 -0.0946
67519CHOL    R141976  34.610  34.790  12.727 -0.0881 -0.2022 -0.0727
67519CHOL    R241977  34.547  34.578  12.562 -0.1481 -0.0223 -0.2823
67519CHOL    R341978  34.724  34.698  12.394  0.0875 -0.0485 -0.0563
67519CHOL    R441979  34.802  34.415  12.396 -0.2357 -0.1442 -0.2979
67519CHOL    R541980  34.931  34.586  12.437 -0.0629 -0.3304 -0.0466
67519CHOL    C141981  35.117  34.432  12.141 -0.0655 -0.2396 -0.0950
67519CHOL    C241982   0.119  34.530  12.076  0.3188 -0.1189 -0.1176
67520CHOL   ROH41983  20.371   2.590  10.360  0.2485  0.1250 -0.1461
67520CHOL    R141984  20.603   2.676  10.496  0.2018  0.0912 -0.0443
67520CHOL    R241985  20.599   2.757  10.760  0.1189 -0.0145 -0.0127
67520CHOL    R341986  20.795   2.570  10.787  0.1274 -0.0082 -0.0317
67520CHOL    R441987  20.880   2.792  10.959  0.1829  0.0314 -0.1112
67520CHOL    R541988  20.997   2.697  10.801  0.1320 -0.0053 -0.1265
67520CHOL    C141989  21.227   2.636  11.099  0.2283  0.0640 -0.1863
67520CHOL    C241990  21.419   2.566  11.361 -0.0687  0.0597 -0.2988
67521CHOL   ROH41991  27.872   4.663   7.892 -0.1476  0.1503 -0.1142
67521CHOL    R141992  27.816   4.923   7.794 -0.2659  0.1133 -0.1463
67521CHOL    R241993  27.986   5.056   7.622 -0.1814  0.2859  0.0660
67521CHOL    R341994  27.762   5.077   7.469 -0.0248  0.1024 -0.1929
67521CHOL    R441995  27.940   5.287   7.369 -0.0401  0.1779 -0.0595
67521CHOL    R541996  27.734   5.312   7.436 -0.1320  0.0751 -0.2980
67521CHOL    C141997  27.702   5.441   7.079  0.1886 -0.0573 -0.3756
67521CHOL    C241998  27.399   5.416   6.824 -0.1303  0.2953  0.0137
67522CHOL   ROH41999  20.328  23.093  10.478 -0.0447  0.1812 -0.2605
67522CHOL    R142000  20.485  23.128  10.711 -0.1373  0.1635 -0.1953
67522CHOL    R242001  20.526  22.926  10.895 -0.2778  0.1738 -0.1527
67522CHOL    R342002  20.788  22.983  10.850 -0.2410  0.0916 -0.0426
67522CHOL    R442003  20.783  22.860  11.116 -0.3822  0.0210 -0.0763
67522CHOL    R542004  20.871  23.052  11.064 -0.2935  0.0042  0.0071
67522CHOL    C142005  21.179  22.875  11.204 -0.4086 -0.1454  0.0718
67522CHOL    C242006  21.434  22.663  11.277 -0.0985 -0.1831  0.2670
67523CHOL   ROH42007   4.224  12.495   8.533  0.1183 -0.1073 -0.1576
67523CHOL    R142008   3.987  12.611   8.636  0.0134 -0.2585 -0.2254
67523CHOL    R242009   3.775  12.459   8.729  0.2159 -0.3984  0.0238
67523CHOL    R342010   3.808  12.608   8.953  0.1157 -0.0871 -0.1668
67523CHOL    R442011   3.528  12.523   8.961  0.2455 -0.4904  0.0801
67523CHOL    R542012   3.602  12.727   8.976 -0.0473 -0.3631 -0.1967
67523CHOL    C142013   3.415  12.701   9.308  0.1688 -0.2515 -0.0658
67523CHOL    C242014   3.186  12.834   9.680  0.0440 -0.1218 -0.0603
67524CHOL   ROH42015   5.782  26.436  15.766  0.0258 -0.2223 -0.0977
67524CHOL    R142016   5.542  26.287  15.793  0.0009 -0.1669 -0.0175
67524CHOL    R242017   5.322  26.385  15.929  0.0155 -0.0537 -0.0764
67524CHOL    R342018   5.194  26.327  15.696  0.0090 -0.1647 -0.0461
67524CHOL    R442019   4.983  26.325  15.900 -0.0343  0.2220 -0.0818
67524CHOL    R542020   5.028  26.166  15.758 -0.1487  0.0418  0.0804
67524CHOL    C142021   4.665  26.236  15.664 -0.0694  0.2781 -0.0567
67524CHOL    C242022   4.361  26.075  15.735  0.2497 -0.1856 -0.0132
67525CHOL   ROH42023  25.000  16.709   5.985 -0.1062  0.1053  0.2142
67525CHOL    R142024  24.826  16.826   5.794 -0.0973  0.1474  0.2322
67525CHOL    R242025  24.721  16.685   5.582  0.0928  0.2520  0.0675
67525CHOL    R342026  24.485  16.775   5.681 -0.0128  0.0144  0.0348
67525CHOL    R442027  24.424  16.694   5.406  0.2110  0.3836 -0.1282
67525CHOL    R542028  24.382  16.888   5.496  0.0711  0.2388  0.1229
67525CHOL    C142029  24.028  16.784   5.396  0.1812  0.2367 -0.2728
67525CHOL    C242030  23.696  16.801   5.252 -0.2999  0.5161 -0.0075
67526CHOL   ROH42031  15.121  29.724  16.193 -0.1068  0.1228  0.1544
67526CHOL    R142032  15.273  29.925  16.321 -0.1030  0.0919  0.1978
67526CHOL    R242033  15.469  29.868  16.507 -0.0598  0.0452  0.1377
67526CHOL    R342034  15.624  30.019  16.342 -0.1089  0.1226  0.1616
67526CHOL    R442035  15.788  29.978  16.582  0.0692 -0.2188 -0.0145
67526CHOL    R542036  15.738  30.169  16.489  0.1027 -0.0940  0.2220
67526CHOL    C142037  16.119  30.184  16.471  0.0979 -0.2997 -0.0801
67526CHOL    C242038  16.374  30.334  16.341  0.1017 -0.0910 -0.1856
67527CHOL   ROH42039   3.671  20.088   5.802 -0.0737  0.1365 -0.2260
67527CHOL    R142040   3.438  20.045   5.956 -0.0212  0.1951 -0.1294
67527CHOL    R242041   3.422  19.847   6.149 -0.0302  0.1232 -0.2032
67527CHOL    R342042   3.348  20.054   6.309  0.1575  0.0958 -0.0808
67527CHOL    R442043   3.228  19.817   6.433 -0.1293  0.1419 -0.2685
67527CHOL    R542044   3.125  20.001   6.376  0.0830  0.2935 -0.1693
67527CHOL    C142045   3.046  19.994   6.750 -0.0107  0.1270 -0.1915
67527CHOL    C242046   2.657  19.996   6.798  0.2372 -0.1882 -0.0301
67528CHOL   ROH42047  24.660  14.841   6.176 -0.1472 -0.1222 -0.0076
67528CHOL    R142048  24.421  14.925   6.051 -0.1383  0.0917  0.1160
67528CHOL    R242049  24.235  14.746   5.951 -0.1513  0.2599 -0.1668
67528CHOL    R342050  24.064  14.884   6.110 -0.1424  0.0267  0.0469
67528CHOL    R442051  23.891  14.731   5.929 -0.1547  0.1311 -0.0280
67528CHOL    R542052  23.884  14.946   5.964 -0.2342  0.0937  0.1885
67528CHOL    C142053  23.529  14.852   6.067 -0.1484 -0.1627  0.2532
67528CHOL    C242054  23.242  14.795   5.857  0.2884 -0.1667  0.1807
67529CHOL   ROH42055  12.713   0.662  18.328 -0.1038  0.0483  0.0679
67529CHOL    R142056  12.683   0.522  18.084 -0.0228  0.0122  0.0788
67529CHOL    R242057  12.692   0.246  18.069 -0.0997  0.0067  0.1350
67529CHOL    R342058  12.452   0.277  17.946 -0.0283  0.0579  0.0066
67529CHOL    R442059  12.539   0.007  17.872 -0.0795  0.0109  0.1139
67529CHOL    R542060  12.478   0.166  17.735  0.0414 -0.0002  0.0456
67529CHOL    C142061  12.224  35.282  17.641 -0.0008  0.0611 -0.0184
67529CHOL    C242062  11.891  35.181  17.390 -0.1713  0.0406 -0.0888
67530CHOL   ROH42063   1.618   4.964  12.805 -0.0726  0.0938 -0.0267
67530CHOL    R142064   1.837   4.809  12.714  0.0261  0.2040  0.0235
67530CHOL    R242065   1.829   4.665  12.479  0.0914  0.0660  0.1080
67530CHOL    R342066   2.055   4.806  12.423 -0.0203  0.1997 -0.0123
67530CHOL    R442067   2.079   4.559  12.265  0.3268 -0.0741  0.4477
67530CHOL    R542068   2.226   4.639  12.406  0.1642  0.3375  0.3964
67530CHOL    C142069   2.437   4.630  12.088  0.3591 -0.0299  0.5328
67530CHOL    C242070   2.746   4.552  11.939  0.1041 -0.1190  0.3909
67531CHOL   ROH42071  22.870  20.548   4.577  0.1175 -0.0954 -0.3218
67531CHOL    R142072  23.051  20.498   4.789  0.0572 -0.0513 -0.2594
67531CHOL    R242073  23.180  20.256   4.822  0.0536 -0.0423 -0.1766
67531CHOL    R342074  23.403  20.411   4.821  0.0498 -0.0371 -0.1405
67531CHOL    R442075  23.497  20.146   4.903  0.0406 -0.0294 -0.1080
67531CHOL    R542076  23.530  20.333   5.009  0.0151 -0.0231 -0.1113
67531CHOL    C142077  23.892  20.227   4.950  0.0297 -0.0163 -0.0341
67531CHOL    C242078  24.162  20.114   4.645  0.2257  0.0904  0.0315
67532CHOL   ROH42079  30.383  29.385   9.523 -0.2253 -0.2069  0.2581
67532CHOL    R142080  30.351  29.426   9.245 -0.0750 -0.3506  0.2193
67532CHOL    R242081  30.376  29.674   9.127 -0.1268 -0.3934  0.1218
67532CHOL    R342082  30.556  29.546   8.969  0.0340 -0.3751  0.2891
67532CHOL    R442083  30.563  29.824   8.878 -0.2872 -0.4711 -0.0473
67532CHOL    R542084  30.531  29.648   8.754 -0.0736 -0.6622  0.1616
67532CHOL    C142085  30.841  29.791   8.586 -0.2292 -0.4995  0.0111
67532CHOL    C242086  30.811  30.152   8.352 -0.1353  0.4833  0.1458
67533CHOL   ROH42087  28.039   7.919   2.785  0.2213  0.0467 -0.1094
67533CHOL    R142088  28.025   8.040   3.040  0.1471 -0.0263 -0.0790
67533CHOL    R242089  28.190   7.967   3.249  0.0581 -0.1150 -0.0396
67533CHOL    R342090  28.247   8.233   3.254  0.1000 -0.1256  0.0602
67533CHOL    R442091  28.263   8.147   3.535  0.0347 -0.2223  0.0346
67533CHOL    R542092  28.143   8.312   3.455  0.0757 -0.1761  0.0677
67533CHOL    C142093  28.357   8.502   3.706  0.0605 -0.2948  0.1715
67533CHOL    C242094  28.436   8.628   4.029  0.1895  0.3330 -0.0491
67534CHOL   ROH42095  21.656   6.081  10.340  0.0576 -0.0518  0.0411
67534CHOL    R142096  21.781   5.963  10.564  0.1827  0.0021  0.0001
67534CHOL    R242097  22.027   5.839  10.549  0.2258  0.0945 -0.0841
67534CHOL    R342098  22.091   6.011  10.749  0.2310  0.1256 -0.1127
67534CHOL    R442099  22.311   5.817  10.745  0.1553  0.0389  0.0119
67534CHOL    R542100  22.190   5.872  10.918  0.1234  0.1352 -0.0424
67534CHOL    C142101  22.536   5.966  11.047  0.1193  0.0357  0.0408
67534CHOL    C242102  22.772   5.733  11.059 -0.0788  0.0151 -0.0131
67535CHOL   ROH42103  32.308  33.554   7.738 -0.0165 -0.0820  0.0183
67535CHOL    R142104  32.181  33.762   7.882 -0.2766 -0.3174  0.1345
67535CHOL    R242105  32.065  33.724   8.130  0.3235 -0.4674  0.3993
67535CHOL    R342106  32.228  33.929   8.202 -0.0586  0.0138 -0.0662
67535CHOL    R442107  32.038  33.902   8.424  0.3521 -0.2369  0.2636
67535CHOL    R542108  32.082  34.084   8.312 -0.2716 -0.2327  0.0051
67535CHOL    C142109  32.175  34.199   8.664  0.0091  0.3490 -0.2526
67535CHOL    C242110  32.013  34.536   8.885  0.0279 -0.1921 -0.0311
67536CHOL   ROH42111  10.841  29.184  18.140 -0.0296 -0.0361 -0.0354
67536CHOL    R142112  10.719  29.032  18.345  0.0324 -0.0561 -0.0134
67536CHOL    R242113  10.823  29.017  18.601 -0.0052  0.0889  0.0110
67536CHOL    R342114  10.574  29.099  18.672 -0.0732 -0.0546 -0.0604
67536CHOL    R442115  10.725  29.095  18.923 -0.1280  0.0841 -0.0248
67536CHOL    R542116  10.535  28.995  18.885 -0.0566 -0.0416 -0.0511
67536CHOL    C142117  10.434  29.216  19.178 -0.2635 -0.0536 -0.1130
67536CHOL    C242118  10.143  29.312  19.372 -0.0253  0.0936  0.1135
67537CHOL   ROH42119  16.272  18.990  19.045  0.0409  0.0109  0.0148
67537CHOL    R142120  16.178  18.964  18.780  0.0088 -0.0025  0.0277
67537CHOL    R242121  15.910  18.979  18.715  0.0125  0.1293  0.0420
67537CHOL    R342122  15.996  19.171  18.542  0.1067  0.0404 -0.0109
67537CHOL    R442123  15.718  19.120  18.465  0.0626  0.1974  0.0416
67537CHOL    R542124  15.892  19.114  18.334  0.0399  0.0612  0.0166
67537CHOL    C142125  15.686  19.383  18.158  0.1802  0.1528 -0.0082
67537CHOL    C242126  15.270  19.297  18.123 -0.0644 -0.2426 -0.1013
67538CHOL   ROH42127  26.940   1.847  10.361  0.2543 -0.3097 -0.0277
67538CHOL    R142128  26.976   1.724  10.108  0.1978 -0.1564 -0.1120
67538CHOL    R242129  26.770   1.601   9.972  0.1980 -0.2095 -0.0709
67538CHOL    R342130  26.845   1.768   9.772 -0.0045 -0.0555 -0.0203
67538CHOL    R442131  26.727   1.537   9.635  0.3283 -0.1796 -0.0929
67538CHOL    R542132  26.925   1.622   9.599  0.2159  0.0980 -0.0481
67538CHOL    C142133  26.773   1.656   9.251  0.2140 -0.0177 -0.0581
67538CHOL    C242134  26.803   1.479   8.873  0.1238  0.3158  0.0309
67539CHOL   ROH42135  10.587   8.159  18.562  0.3414  0.1167  0.1976
67539CHOL    R142136  10.708   8.320  18.364  0.2209  0.1668  0.1640
67539CHOL    R242137  10.650   8.296  18.095  0.3328 -0.0220  0.1565
67539CHOL    R342138  10.598   8.562  18.116  0.0238 -0.0689  0.0202
67539CHOL    R442139  10.626   8.514  17.828  0.5261 -0.1044  0.0713
67539CHOL    R542140  10.734   8.662  17.946  0.1890  0.0345  0.2108
67539CHOL    C142141  10.565   8.890  17.691  0.3485 -0.1967 -0.1063
67539CHOL    C242142  10.652   8.976  17.393  0.1667 -0.0711 -0.1042
67540CHOL   ROH42143  24.068   9.028   7.614  0.0046  0.2504  0.2070
67540CHOL    R142144  24.331   9.090   7.530  0.0362 -0.1402  0.0072
67540CHOL    R242145  24.472   9.306   7.628  0.2834 -0.1143 -0.3933
67540CHOL    R342146  24.659   9.118   7.685  0.1212 -0.2070 -0.1590
67540CHOL    R442147  24.795   9.373   7.732  0.2310 -0.2708 -0.1268
67540CHOL    R542148  24.865   9.211   7.604  0.2508 -0.3572 -0.0081
67540CHOL    C142149  25.158   9.235   7.847  0.0492 -0.4491  0.2483
67540CHOL    C242150  25.388   9.216   8.129  0.0413  0.2422  0.2093
67541CHOL   ROH42151   1.545   3.090  13.718  0.1334 -0.1593  0.0890
67541CHOL    R142152   1.702   2.893  13.589 -0.1878 -0.2514 -0.1695
67541CHOL    R242153   1.630   2.779  13.348 -0.2560  0.3638 -0.4507
67541CHOL    R342154   1.878   2.860  13.272 -0.0191 -0.0094 -0.1024
67541CHOL    R442155   1.792   2.676  13.060 -0.2347  0.5338 -0.4995
67541CHOL    R542156   1.977   2.666  13.174 -0.3435 -0.0501 -0.3614
67541CHOL    C142157   2.118   2.693  12.821  0.0002  0.2823 -0.2012
67541CHOL    C242158   2.429   2.724  12.585 -0.0000  0.0029 -0.1232
67542CHOL   ROH42159   4.286  22.051  16.091 -0.2193  0.1299 -0.0927
67542CHOL    R142160   4.513  22.143  15.950 -0.0722  0.0589  0.0959
67542CHOL    R242161   4.498  22.249  15.695  0.2000 -0.1295 -0.0028
67542CHOL    R342162   4.628  22.459  15.809  0.0391 -0.0274 -0.0074
67542CHOL    R442163   4.773  22.409  15.560  0.1496  0.0046  0.0536
67542CHOL    R542164   4.859  22.420  15.760  0.0775  0.0998  0.0773
67542CHOL    C142165   5.055  22.699  15.589 -0.0308  0.1788  0.0820
67542CHOL    C242166   5.405  22.860  15.587  0.1002  0.0586  0.1333
67543CHOL   ROH42167   2.199  24.424   6.681  0.0085  0.1581  0.1083
67543CHOL    R142168   2.158  24.144   6.697  0.0984  0.1492  0.1876
67543CHOL    R242169   2.105  24.014   6.935 -0.2009  0.2481  0.1754
67543CHOL    R342170   1.889  23.921   6.798  0.0361  0.0925 -0.0983
67543CHOL    R442171   1.944  23.716   7.001 -0.2442  0.2678  0.1602
67543CHOL    R542172   1.925  23.684   6.786  0.1083  0.0885  0.1513
67543CHOL    C142173   1.647  23.454   6.911 -0.0468  0.1333 -0.1058
67543CHOL    C242174   1.672  23.063   6.879 -0.0684 -0.0711  0.0674
67544CHOL   ROH42175  15.687  30.635  13.581  0.0227  0.2094  0.0347
67544CHOL    R142176  15.875  30.760  13.752  0.0905  0.1127  0.0313
67544CHOL    R242177  16.123  30.845  13.664  0.0212  0.2435 -0.0408
67544CHOL    R342178  16.043  31.082  13.770  0.0237  0.1387  0.2006
67544CHOL    R442179  16.331  31.114  13.724 -0.0736  0.3717 -0.2803
67544CHOL    R542180  16.224  31.148  13.911  0.2201  0.2098 -0.0801
67544CHOL    C142181  16.377  31.494  13.858 -0.1261  0.3479 -0.1931
67544CHOL    C242182  16.779  31.608  13.977 -0.2590 -0.3845 -0.1041
67545CHOL   ROH42183  33.863   1.568  11.763 -0.1195 -0.0036 -0.1092
67545CHOL    R142184  33.951   1.645  11.505  0.0145 -0.0431 -0.0760
67545CHOL    R242185  34.218   1.652  11.434  0.0480 -0.1028  0.0463
67545CHOL    R342186  34.135   1.491  11.231  0.1094 -0.1036  0.0214
67545CHOL    R442187  34.364   1.638  11.122 -0.0622  0.1393 -0.0173
67545CHOL    R542188  34.165   1.625  11.034 -0.0858 -0.0054  0.0567
67545CHOL    C142189  34.372   1.480  10.749 -0.0687  0.2795 -0.0777
67545CHOL    C242190  34.354   1.401  10.483  0.2706  0.0229 -0.0043
67546CHOL   ROH42191  17.380  22.177  15.168 -0.1973  0.2308 -0.0024
67546CHOL    R142192  17.506  21.948  15.275 -0.1667  0.1348 -0.2406
67546CHOL    R242193  17.751  21.857  15.185 -0.1035  0.3238 -0.2637
67546CHOL    R342194  17.818  21.874  15.448 -0.2084  0.0177 -0.2146
67546CHOL    R442195  18.052  21.753  15.320 -0.1129  0.2729 -0.2814
67546CHOL    R542196  17.942  21.674  15.491 -0.1459  0.0122 -0.4208
67546CHOL    C142197  18.290  21.708  15.645 -0.2173 -0.0441 -0.2458
67546CHOL    C242198  18.307  21.466  15.871 -0.0319  0.0465 -0.0331
67547CHOL   ROH42199   0.615   1.693  13.605  0.2279 -0.1284  0.0003
67547CHOL    R142200   0.859   1.681  13.462  0.2442 -0.1126  0.0271
67547CHOL    R242201   1.090   1.575  13.571  0.1793 -0.3154 -0.0307
67547CHOL    R342202   1.086   1.420  13.348  0.1426 -0.1153 -0.1704
67547CHOL    R442203   1.369   1.484  13.389  0.2159 -0.6297  0.1781
67547CHOL    R542204   1.254   1.515  13.206  0.4526 -0.2738  0.0840
67547CHOL    C142205   1.528   1.285  13.073  0.2027 -0.6249  0.1684
67547CHOL    C242206   1.900   1.048  13.133  0.2869 -0.1258  0.0010
67548CHOL   ROH42207  11.721   3.814  14.402 -0.2865  0.0671  0.2286
67548CHOL    R142208  11.738   3.728  14.671 -0.1345 -0.1024  0.1652
67548CHOL    R242209  11.866   3.494  14.744 -0.0915 -0.1496 -0.0534
67548CHOL    R342210  12.004   3.659  14.910  0.0018 -0.2523 -0.0285
67548CHOL    R442211  12.081   3.389  14.993 -0.1518 -0.3055 -0.0669
67548CHOL    R542212  12.002   3.547  15.121 -0.0622 -0.2801 -0.0453
67548CHOL    C142213  12.335   3.483  15.295 -0.0996 -0.4927 -0.0514
67548CHOL    C242214  12.528   3.205  15.539 -0.0356  0.0662  0.1620
67549CHOL   ROH42215   1.672  20.307   3.763 -0.0162 -0.1467  0.1476
67549CHOL    R142216   1.442  20.377   3.912 -0.1736 -0.1030 -0.1131
67549CHOL    R242217   1.226  20.207   3.939 -0.0080 -0.2851  0.0923
67549CHOL    R342218   1.268  20.248   4.204 -0.1958  0.2727  0.0409
67549CHOL    R442219   1.008  20.113   4.190  0.0946 -0.3117  0.1717
67549CHOL    R542220   1.051  20.301   4.291 -0.3464 -0.0362 -0.1396
67549CHOL    C142221   0.920  20.097   4.586 -0.0220  0.1968  0.1697
67549CHOL    C242222   0.610  19.925   4.725 -0.0355  0.1945  0.1645
67550CHOL   ROH42223  26.248  14.242   1.477  0.0459 -0.0867  0.0166
67550CHOL    R142224  26.453  14.178   1.663  0.1080 -0.2743 -0.1139
67550CHOL    R242225  26.719  14.165   1.592  0.1188  0.0903 -0.1555
67550CHOL    R342226  26.749  14.342   1.796 -0.0263 -0.2759  0.1897
67550CHOL    R442227  27.005  14.199   1.783  0.2296  0.2108 -0.3407
67550CHOL    R542228  26.878  14.223   1.959  0.3372 -0.3863 -0.1707
67550CHOL    C142229  27.199  14.385   2.086  0.1581 -0.0628 -0.1244
67550CHOL    C242230  27.569  14.567   2.121  0.1381  0.1430 -0.1681
67551CHOL   ROH42231  32.711  14.260   1.687 -0.1160 -0.0822 -0.1328
67551CHOL    R142232  32.711  14.184   1.960 -0.0870 -0.1184 -0.1430
67551CHOL    R242233  32.774  14.360   2.163 -0.0268 -0.1564 -0.1296
67551CHOL    R342234  32.533  14.282   2.262 -0.0241 -0.1289 -0.1023
67551CHOL    R442235  32.696  14.336   2.499  0.0000 -0.1193 -0.1206
67551CHOL    R542236  32.587  14.152   2.456 -0.0172 -0.1152 -0.0947
67551CHOL    C142237  32.425  14.248   2.787  0.0179 -0.0716 -0.0897
67551CHOL    C242238  32.682  14.292   3.035  0.0985 -0.2491 -0.0446
67552CHOL   ROH42239  27.860   6.728   7.976 -0.2405 -0.1659 -0.0646
67552CHOL    R142240  27.796   6.698   7.702 -0.0917 -0.0864 -0.1090
67552CHOL    R242241  27.937   6.531   7.533 -0.0712 -0.1246 -0.0543
67552CHOL    R342242  27.691   6.427   7.483 -0.0920  0.0023 -0.2191
67552CHOL    R442243  27.856   6.340   7.256  0.0805 -0.2905  0.0154
67552CHOL    R542244  27.666   6.446   7.245  0.1612 -0.1693 -0.2614
67552CHOL    C142245  27.578   6.131   7.048  0.1484 -0.2680 -0.0988
67552CHOL    C242246  27.483   5.872   6.815  0.0159  0.1892 -0.2003
67553CHOL   ROH42247  27.301  34.996   9.958 -0.3113  0.0693  0.0535
67553CHOL    R142248  27.425  34.996   9.704 -0.2487 -0.0446  0.0833
67553CHOL    R242249  27.283  35.034   9.470 -0.1817 -0.0816  0.0349
67553CHOL    R342250  27.466  35.232   9.430 -0.1191 -0.1433  0.0190
67553CHOL    R442251  27.309  35.223   9.182 -0.1991 -0.0256  0.0699
67553CHOL    R542252  27.526  35.210   9.199 -0.2008 -0.1133 -0.0034
67553CHOL    C142253  27.496   0.134   8.977 -0.1498 -0.0512  0.0754
67553CHOL    C242254  27.530   0.212   8.622 -0.3446 -0.0239 -0.0007
67554CHOL   ROH42255  32.969  11.703   4.225 -0.0372  0.1750  0.3375
67554CHOL    R142256  32.964  11.944   4.077 -0.1038  0.1364  0.2765
67554CHOL    R242257  32.912  11.951   3.806  0.0712  0.0353  0.2383
67554CHOL    R342258  32.720  12.128   3.880 -0.1006 -0.0788  0.0689
67554CHOL    R442259  32.753  12.171   3.592  0.1865 -0.0031  0.1132
67554CHOL    R542260  32.765  12.323   3.748 -0.0599 -0.0289  0.1570
67554CHOL    C142261  32.481  12.466   3.537  0.0917 -0.1328 -0.1187
67554CHOL    C242262  32.456  12.613   3.257  0.0553  0.0600  0.2670
67555CHOL   ROH42263  30.402   2.738   8.985  0.0344 -0.1835 -0.2122
67555CHOL    R142264  30.590   2.566   9.107 -0.0568 -0.2126 -0.1132
67555CHOL    R242265  30.516   2.332   9.234 -0.1643 -0.1774 -0.1105
67555CHOL    R342266  30.698   2.221   9.066 -0.1237 -0.2447 -0.0221
67555CHOL    R442267  30.614   2.000   9.240 -0.0790 -0.1486  0.1217
67555CHOL    R542268  30.819   2.066   9.203 -0.0935 -0.1209  0.0920
67555CHOL    C142269  30.843   1.703   9.086  0.0090 -0.1950  0.3399
67555CHOL    C242270  30.905   1.332   9.166 -0.1176 -0.1823 -0.0499
67556CHOL   ROH42271  25.600  24.808   3.140 -0.3264 -0.0849  0.1868
67556CHOL    R142272  25.795  24.618   3.215 -0.1347  0.0549  0.0461
67556CHOL    R242273  26.064  24.651   3.161 -0.1670  0.3655  0.0699
67556CHOL    R342274  26.089  24.611   3.429 -0.1272  0.1927  0.0413
67556CHOL    R442275  26.363  24.595   3.325 -0.1198  0.4631  0.0172
67556CHOL    R542276  26.262  24.446   3.448 -0.0076  0.3023 -0.0837
67556CHOL    C142277  26.561  24.526   3.672 -0.0544  0.3580 -0.0402
67556CHOL    C242278  26.753  24.218   3.896 -0.1439 -0.0175  0.0377
67557CHOL   ROH42279   9.324   3.238  16.971 -0.1460 -0.1064  0.0103
67557CHOL    R142280   9.133   3.416  17.081 -0.0002  0.0440  0.0219
67557CHOL    R242281   9.133   3.686  17.025  0.0116 -0.0083 -0.2395
67557CHOL    R342282   8.875   3.638  16.952 -0.0705 -0.0197  0.0516
67557CHOL    R442283   8.900   3.931  16.950 -0.0220 -0.0254 -0.1915
67557CHOL    R542284   8.750   3.814  17.057  0.0632  0.0798  0.0452
67557CHOL    C142285   8.523   4.028  16.837 -0.1184 -0.0462  0.1099
67557CHOL    C242286   8.406   4.449  16.777 -0.3744  0.2579 -0.2006
67558CHOL   ROH42287  15.414   4.602  13.802  0.1167 -0.1946 -0.1136
67558CHOL    R142288  15.459   4.569  14.080  0.0579 -0.0672 -0.0891
67558CHOL    R242289  15.704   4.617  14.198  0.0155  0.0461 -0.0498
67558CHOL    R342290  15.558   4.781  14.359 -0.0657  0.0750 -0.1514
67558CHOL    R442291  15.832   4.796  14.465 -0.1500 -0.0521  0.0970
67558CHOL    R542292  15.651   4.747  14.577 -0.2727 -0.0018 -0.0723
67558CHOL    C142293  15.770   5.054  14.771 -0.3227 -0.0819  0.0868
67558CHOL    C242294  15.741   5.110  14.993 -0.0475 -0.1676 -0.3130
67559CHOL   ROH42295  23.843  22.764   5.716  0.0928 -0.1040 -0.2675
67559CHOL    R142296  24.008  22.656   5.919 -0.0511 -0.0393 -0.1148
67559CHOL    R242297  24.060  22.386   5.940 -0.0402 -0.0289 -0.0111
67559CHOL    R342298  24.319  22.468   5.934 -0.0430 -0.0049  0.1682
67559CHOL    R442299  24.332  22.187   6.018 -0.0648 -0.0515  0.0188
67559CHOL    R542300  24.421  22.358   6.121 -0.1308 -0.1011  0.1599
67559CHOL    C142301  24.733  22.148   6.057 -0.0820 -0.0419  0.2045
67559CHOL    C242302  24.671  21.742   5.931  0.1712 -0.1291 -0.1499
67560CHOL   ROH42303  17.706  28.248  11.725 -0.2077  0.0786  0.0243
67560CHOL    R142304  17.956  28.233  11.857 -0.1112  0.0153 -0.1662
67560CHOL    R242305  18.156  28.418  11.817 -0.2368  0.1791 -0.0289
67560CHOL    R342306  18.147  28.439  12.088 -0.0646 -0.2253  0.0122
67560CHOL    R442307  18.432  28.461  12.022 -0.1577  0.5013 -0.1987
67560CHOL    R542308  18.342  28.322  12.164  0.2640  0.0956 -0.3152
67560CHOL    C142309  18.583  28.505  12.395  0.0500  0.3091 -0.2592
67560CHOL    C242310  18.812  28.526  12.672 -0.2342 -0.0905 -0.3000
67561CHOL   ROH42311  34.644  31.108   9.438  0.1638  0.1482  0.1214
67561CHOL    R142312  34.404  31.166   9.576  0.0702  0.0933 -0.0160
67561CHOL    R242313  34.400  31.236   9.844 -0.1108 -0.0316  0.0143
67561CHOL    R342314  34.263  31.452   9.752 -0.0394  0.0170  0.0214
67561CHOL    R442315  34.189  31.431  10.035 -0.0969 -0.0074  0.0057
67561CHOL    R542316  34.053  31.442   9.866 -0.0633  0.0526 -0.0183
67561CHOL    C142317  33.938  31.749  10.061 -0.0206  0.0518  0.0074
67561CHOL    C242318  33.774  32.076   9.817  0.1746 -0.0569  0.0049
67562CHOL   ROH42319  16.805  21.172  15.004  0.0450 -0.1901  0.0815
67562CHOL    R142320  16.966  21.001  15.161  0.0334 -0.1848  0.0997
67562CHOL    R242321  17.234  20.959  15.109  0.0579 -0.1249  0.1687
67562CHOL    R342322  17.264  21.034  15.368 -0.0320 -0.1596  0.1890
67562CHOL    R442323  17.519  20.908  15.297  0.1530  0.2508  0.1289
67562CHOL    R542324  17.392  20.857  15.467  0.2462  0.0051  0.1238
67562CHOL    C142325  17.713  20.949  15.651  0.1244  0.4368  0.1247
67562CHOL    C242326  17.826  21.076  15.915  0.3244  0.2709  0.4260
67563CHOL   ROH42327  15.954  23.955  17.163 -0.2274  0.0772  0.1693
67563CHOL    R142328  16.126  23.906  17.382 -0.1625  0.0856  0.1204
67563CHOL    R242329  16.373  23.786  17.353 -0.2528 -0.0893  0.0765
67563CHOL    R342330  16.460  24.008  17.484 -0.0512 -0.0744 -0.0822
67563CHOL    R442331  16.634  23.791  17.580 -0.2474 -0.1656  0.0729
67563CHOL    R542332  16.517  23.929  17.703 -0.1236  0.0294 -0.0256
67563CHOL    C142333  16.868  24.003  17.834 -0.0551 -0.1957 -0.0787
67563CHOL    C242334  17.169  24.029  18.119 -0.1769  0.3797 -0.1008
67564CHOL   ROH42335   6.531   4.605  18.179 -0.1618  0.0339  0.0132
67564CHOL    R142336   6.714   4.725  18.000 -0.2687  0.0272 -0.1007
67564CHOL    R242337   6.973   4.634  17.969 -0.2016  0.2028 -0.0420
67564CHOL    R342338   6.903   4.622  17.706 -0.2094 -0.0703 -0.0293
67564CHOL    R442339   7.195   4.597  17.707 -0.1877  0.1243 -0.0198
67564CHOL    R542340   7.077   4.741  17.593 -0.2918 -0.0497 -0.1394
67564CHOL    C142341   7.259   4.565  17.308 -0.1869 -0.1779  0.0053
67564CHOL    C242342   7.554   4.809  17.379 -0.0169  0.0478 -0.1633
67565CHOL   ROH42343  11.991  34.994  15.605 -0.1179 -0.0999 -0.0408
67565CHOL    R142344  12.043  35.230  15.752 -0.0285 -0.1205 -0.0384
67565CHOL    R242345  12.021  35.242  16.027  0.0608 -0.1381 -0.0310
67565CHOL    R342346  12.276  35.333  16.012  0.0730 -0.1836 -0.1036
67565CHOL    R442347  12.164   0.078  16.250  0.1884 -0.2279 -0.0237
67565CHOL    R542348  12.261   0.177  16.081  0.1428 -0.1995 -0.0343
67565CHOL    C142349  12.488   0.293  16.366  0.2740 -0.3218 -0.0877
67565CHOL    C242350  12.398   0.180  16.766 -0.4131 -0.1564  0.2033
67566CHOL   ROH42351  28.309   7.670   6.857 -0.1495 -0.0961 -0.0406
67566CHOL    R142352  28.354   7.619   6.583 -0.0401 -0.1647 -0.0097
67566CHOL    R242353  28.490   7.395   6.494 -0.3389 -0.3843  0.0848
67566CHOL    R342354  28.265   7.358   6.345 -0.2964 -0.0195 -0.0759
67566CHOL    R442355  28.476   7.218   6.197 -0.3679 -0.1694 -0.0436
67566CHOL    R542356  28.341   7.370   6.118 -0.1442  0.0455 -0.0238
67566CHOL    C142357  28.257   7.080   5.885 -0.3451  0.2979 -0.2693
67566CHOL    C242358  28.361   6.816   5.615 -0.0163 -0.2537  0.0034
67567CHOL   ROH42359  17.847  13.381  13.389 -0.1789  0.4264  0.1216
67567CHOL    R142360  17.969  13.572  13.559 -0.0198  0.1974  0.2683
67567CHOL    R242361  18.158  13.504  13.748  0.0756 -0.0763  0.0778
67567CHOL    R342362  18.306  13.693  13.622  0.0542  0.0255  0.2038
67567CHOL    R442363  18.445  13.647  13.876  0.1818 -0.2892  0.0793
67567CHOL    R542364  18.378  13.839  13.797  0.1873 -0.1847  0.3261
67567CHOL    C142365  18.752  13.908  13.832  0.2240 -0.3178  0.1983
67567CHOL    C242366  19.066  13.745  14.093 -0.0034 -0.0358  0.1655
67568CHOL   ROH42367  19.698   9.155  16.711 -0.1640 -0.3014  0.0447
67568CHOL    R142368  19.420   9.141  16.661 -0.1623 -0.2707  0.0257
67568CHOL    R242369  19.295   9.295  16.468 -0.1225 -0.3024 -0.0258
67568CHOL    R342370  19.206   9.054  16.379 -0.1533 -0.3123  0.0317
67568CHOL    R442371  19.040   9.251  16.239 -0.0734 -0.3230 -0.0757
67568CHOL    R542372  18.969   9.083  16.358 -0.1408 -0.2675 -0.0380
67568CHOL    C142373  18.808   9.000  16.022 -0.0744 -0.3446 -0.0509
67568CHOL    C242374  18.471   9.007  15.673 -0.1098 -0.2893 -0.2320
67569CHOL   ROH42375  16.311  12.475  14.922 -0.0150  0.1579  0.0185
67569CHOL    R142376  16.477  12.332  15.101 -0.1038  0.0028 -0.0226
67569CHOL    R242377  16.670  12.455  15.256  0.0553 -0.1778 -0.0764
67569CHOL    R342378  16.541  12.330  15.459 -0.0098 -0.0498 -0.0393
67569CHOL    R442379  16.772  12.459  15.586  0.1944 -0.3355 -0.1165
67569CHOL    R542380  16.716  12.248  15.600 -0.0473 -0.2731 -0.1197
67569CHOL    C142381  16.709  12.344  15.970  0.2141 -0.3071 -0.1051
67569CHOL    C242382  16.964  12.675  16.004 -0.1174 -0.1057 -0.0715
67570CHOL   ROH42383  14.587   7.135  18.073  0.0229 -0.1562  0.1036
67570CHOL    R142384  14.693   7.001  17.847  0.0697 -0.1934  0.1478
67570CHOL    R242385  14.707   7.120  17.598 -0.0747 -0.3095  0.0846
67570CHOL    R342386  14.970   7.052  17.616 -0.0195 -0.1065  0.0593
67570CHOL    R442387  14.920   7.081  17.328 -0.1097 -0.2957  0.0546
67570CHOL    R542388  15.007   6.907  17.428  0.0420 -0.1796  0.1268
67570CHOL    C142389  15.291   6.994  17.188 -0.0781 -0.0971  0.0134
67570CHOL    C242390  15.533   6.774  17.022  0.1254  0.1788 -0.1032
67571CHOL   ROH42391   5.642  15.958  16.058 -0.1292  0.1703 -0.0814
67571CHOL    R142392   5.823  15.889  15.852 -0.0261  0.1652  0.0106
67571CHOL    R242393   5.744  15.764  15.620  0.1193 -0.0187  0.0581
67571CHOL    R342394   5.870  15.974  15.501  0.0224 -0.0070 -0.0246
67571CHOL    R442395   5.833  15.779  15.286 -0.0466 -0.0340  0.0129
67571CHOL    R542396   6.020  15.872  15.345 -0.0354  0.0066 -0.0884
67571CHOL    C142397   6.003  15.984  14.981 -0.2342 -0.0319 -0.0909
67571CHOL    C242398   6.229  16.189  14.706  0.0114 -0.3902 -0.2339
67572CHOL   ROH42399  23.474  18.745   2.846  0.0952 -0.1595 -0.0008
67572CHOL    R142400  23.614  18.873   3.056  0.0065 -0.0790  0.0089
67572CHOL    R242401  23.576  19.140   3.118 -0.0974 -0.0809 -0.0409
67572CHOL    R342402  23.528  19.041   3.367 -0.1176 -0.0588 -0.0364
67572CHOL    R442403  23.712  19.265   3.410  0.0675 -0.2075 -0.0632
67572CHOL    R542404  23.738  19.060   3.480 -0.0772 -0.2316 -0.0827
67572CHOL    C142405  23.747  19.245   3.813  0.1443 -0.2604 -0.0719
67572CHOL    C242406  23.765  19.525   4.065 -0.1749  0.0994  0.1381
67573CHOL   ROH42407  28.565  34.163   9.922 -0.1882  0.2260 -0.1663
67573CHOL    R142408  28.757  34.186   9.716 -0.2197  0.0477 -0.2172
67573CHOL    R242409  28.707  34.319   9.479 -0.1541  0.1075 -0.2009
67573CHOL    R342410  28.932  34.456   9.546 -0.0042 -0.1117 -0.2517
67573CHOL    R442411  28.893  34.512   9.261 -0.2998  0.3357 -0.1246
67573CHOL    R542412  29.074  34.435   9.355 -0.2338  0.0984 -0.4466
67573CHOL    C142413  29.213  34.753   9.197 -0.2438  0.2617 -0.1282
67573CHOL    C242414  29.489  34.909   9.018  0.2416 -0.0305  0.1782
67574CHOL   ROH42415  28.387  23.082   4.362  0.0136  0.1165  0.1162
67574CHOL    R142416  28.369  23.110   4.081 -0.1955  0.0162  0.1183
67574CHOL    R242417  28.134  23.179   3.953 -0.2273  0.2437  0.2921
67574CHOL    R342418  28.287  23.376   3.847 -0.0784  0.0145  0.0758
67574CHOL    R442419  28.047  23.369   3.678 -0.0248 -0.0732  0.0061
67574CHOL    R542420  28.254  23.356   3.610 -0.0101 -0.2829  0.0907
67574CHOL    C142421  28.141  23.665   3.418  0.2328 -0.4727 -0.3634
67574CHOL    C242422  27.843  23.617   3.258  0.3006  0.1398  0.1254
67575CHOL   ROH42423  13.588  27.050  18.165 -0.2434 -0.2177  0.1353
67575CHOL    R142424  13.597  27.110  18.441 -0.2333 -0.0454  0.0982
67575CHOL    R242425  13.818  27.057  18.598 -0.2575 -0.0246  0.1412
67575CHOL    R342426  13.797  27.321  18.660 -0.1666  0.0226 -0.0285
67575CHOL    R442427  13.885  27.193  18.909 -0.1356  0.1654  0.0322
67575CHOL    R542428  13.712  27.323  18.884 -0.1051  0.1965 -0.0071
67575CHOL    C142429  13.905  27.520  19.147  0.0207  0.3202 -0.1905
67575CHOL    C242430  13.976  27.402  19.430  0.0049 -0.1148 -0.2865
67576CHOL   ROH42431   3.537  14.596   5.495 -0.2550  0.0352 -0.1458
67576CHOL    R142432   3.372  14.686   5.707 -0.1208  0.0528 -0.0477
67576CHOL    R242433   3.172  14.873   5.670 -0.1989 -0.0096  0.0478
67576CHOL    R342434   3.016  14.682   5.786 -0.0617 -0.0187  0.2187
67576CHOL    R442435   2.898  14.936   5.871 -0.3309 -0.0268 -0.1260
67576CHOL    R542436   2.961  14.772   6.000 -0.2236  0.1854  0.0921
67576CHOL    C142437   2.592  14.793   6.097 -0.2790 -0.0452 -0.0668
67576CHOL    C242438   2.353  14.778   6.318  0.0623 -0.1018  0.2493
67577CHOL   ROH42439   3.634  29.763  18.793  0.1682 -0.1146  0.1732
67577CHOL    R142440   3.642  29.758  18.510 -0.0123 -0.0456  0.1663
67577CHOL    R242441   3.710  29.979  18.359 -0.0026 -0.0382  0.1812
67577CHOL    R342442   3.892  29.810  18.251 -0.1498 -0.0975  0.0220
67577CHOL    R442443   3.853  30.017  18.047  0.1836  0.2449  0.2993
67577CHOL    R542444   3.836  29.801  18.019 -0.0545  0.3033 -0.0191
67577CHOL    C142445   4.109  29.880  17.764  0.1538  0.3540  0.2183
67577CHOL    C242446   4.263  29.816  17.602 -0.0422 -0.2848 -0.1577
67578CHOL   ROH42447  24.766  20.097   8.335  0.0566 -0.0974 -0.2158
67578CHOL    R142448  24.534  20.126   8.175  0.0204  0.0168 -0.1428
67578CHOL    R242449  24.332  19.937   8.171 -0.0189  0.0596 -0.1690
67578CHOL    R342450  24.175  20.150   8.232  0.0403  0.0657 -0.0384
67578CHOL    R442451  24.007  19.980   8.064 -0.0633  0.1345 -0.0051
67578CHOL    R542452  24.050  20.191   8.032 -0.0479  0.1368  0.0309
67578CHOL    C142453  23.669  20.204   8.059 -0.0340  0.1841  0.2129
67578CHOL    C242454  23.320  20.355   7.921 -0.0662  0.2235 -0.3889
67579CHOL   ROH42455  34.738  26.428  11.783 -0.0833  0.0253 -0.0689
67579CHOL    R142456  35.003  26.517  11.831 -0.0820 -0.0191  0.0122
67579CHOL    R242457  35.214  26.449  11.667 -0.0470 -0.0379  0.0654
67579CHOL    R342458  35.249  26.718  11.654 -0.0023 -0.0423  0.0977
67579CHOL    R442459   0.089  26.606  11.503 -0.1033 -0.0576 -0.0433
67579CHOL    R542460   0.101  26.748  11.668  0.0120 -0.0912 -0.0225
67579CHOL    C142461   0.274  26.951  11.395 -0.0938 -0.0732 -0.0763
67579CHOL    C242462   0.335  27.313  11.289  0.1998 -0.0001  0.0200
67580CHOL   ROH42463  33.024   9.172   3.039  0.1485 -0.0442 -0.0479
67580CHOL    R142464  32.944   9.355   3.239  0.1129 -0.0051 -0.0974
67580CHOL    R242465  32.747   9.297   3.424  0.0595  0.0424 -0.1385
67580CHOL    R342466  32.940   9.364   3.603  0.0197  0.0526 -0.1000
67580CHOL    R442467  32.698   9.498   3.700  0.0301  0.1638 -0.2313
67580CHOL    R542468  32.891   9.591   3.661  0.0702  0.0889 -0.2028
67580CHOL    C142469  32.851   9.678   4.030 -0.0248  0.2437 -0.2494
67580CHOL    C242470  32.627   9.908   4.366  0.2209 -0.0564 -0.2643
67581CHOL   ROH42471   7.836   2.700  18.727 -0.0550 -0.0703 -0.0213
67581CHOL    R142472   7.852   2.658  18.448 -0.0743 -0.2352  0.0021
67581CHOL    R242473   8.006   2.817  18.282 -0.2894 -0.1711 -0.1362
67581CHOL    R342474   8.112   2.578  18.207 -0.0411 -0.1033 -0.0069
67581CHOL    R442475   8.223   2.772  18.017 -0.5671 -0.1428 -0.3716
67581CHOL    R542476   8.117   2.588  17.967 -0.3690 -0.3570 -0.0301
67581CHOL    C142477   8.450   2.523  17.792 -0.4956 -0.0627 -0.3871
67581CHOL    C242478   8.706   2.719  17.606 -0.2181 -0.3775  0.0089
67582CHOL   ROH42479  29.735  35.034   7.387  0.0665  0.2148  0.1743
67582CHOL    R142480  29.898  34.982   7.612  0.1062  0.0259  0.1030
67582CHOL    R242481  29.819  35.043   7.870  0.2944  0.1303  0.1373
67582CHOL    R342482  29.875  34.781   7.914 -0.0015  0.0639  0.1200
67582CHOL    R442483  29.825  34.893   8.181  0.3242  0.1518  0.1467
67582CHOL    R542484  30.001  34.780   8.118  0.1421 -0.0748  0.0322
67582CHOL    C142485  29.880  34.559   8.404  0.0641  0.1013  0.1359
67582CHOL    C242486  29.638  34.672   8.640  0.2473 -0.4413  0.1595
67583CHOL   ROH42487   2.880  20.800   5.591 -0.1364  0.1028 -0.1716
67583CHOL    R142488   2.744  20.586   5.717 -0.0170  0.0696 -0.0991
67583CHOL    R242489   2.632  20.609   5.968  0.0809  0.0529 -0.0550
67583CHOL    R342490   2.407  20.523   5.840  0.0536 -0.0281  0.0457
67583CHOL    R442491   2.347  20.493   6.126  0.0617  0.2851  0.0837
67583CHOL    R542492   2.331  20.339   5.973  0.0170  0.1270  0.2446
67583CHOL    C142493   1.970  20.345   6.098  0.0250  0.3450  0.2590
67583CHOL    C242494   1.841  20.126   6.184  0.1835  0.0416  0.0455
67584CHOL   ROH42495   0.865  11.378  10.088  0.0462 -0.0121  0.1754
67584CHOL    R142496   1.008  11.243   9.883  0.0746  0.1393  0.0944
67584CHOL    R242497   1.245  11.339   9.779  0.1956  0.1141  0.3413
67584CHOL    R342498   1.337  11.092   9.846  0.0001 -0.0256  0.1017
67584CHOL    R442499   1.542  11.203   9.669  0.3147  0.1755  0.5830
67584CHOL    R542500   1.440  11.011   9.646  0.2748  0.2457  0.1313
67584CHOL    C142501   1.802  10.891   9.667  0.2006  0.0800  0.4988
67584CHOL    C242502   1.940  10.593   9.541 -0.1317 -0.1930 -0.1417
67585CHOL   ROH42503   9.776  23.848  18.389  0.1708 -0.1761  0.0629
67585CHOL    R142504   9.715  23.815  18.664  0.0952  0.0298  0.0719
67585CHOL    R242505   9.591  24.012  18.813 -0.0164  0.1138 -0.1269
67585CHOL    R342506   9.415  23.812  18.870  0.0312  0.1025 -0.0205
67585CHOL    R442507   9.328  24.037  19.036 -0.0780  0.1972 -0.2087
67585CHOL    R542508   9.373  23.835  19.104 -0.0328  0.2621 -0.0484
67585CHOL    C142509   9.010  23.865  19.219 -0.0694  0.2348 -0.1566
67585CHOL    C242510   9.131  24.090  19.498  0.1310  0.0515 -0.3948
67586CHOL   ROH42511  12.486  33.683  19.862 -0.1252  0.0499  0.1389
67586CHOL    R142512  12.572  33.743  19.599 -0.0474  0.1312  0.1825
67586CHOL    R242513  12.696  33.557  19.437 -0.0461  0.1673  0.1436
67586CHOL    R342514  12.498  33.625  19.263  0.0121  0.2739  0.1185
67586CHOL    R442515  12.683  33.460  19.106 -0.1586  0.0053  0.1949
67586CHOL    R542516  12.612  33.660  19.055  0.0384  0.0511  0.0937
67586CHOL    C142517  12.490  33.467  18.749 -0.1696  0.0099  0.2015
67586CHOL    C242518  12.172  33.374  18.569 -0.3020  0.1123  0.2851
67587CHOL   ROH42519  21.040  23.948   8.848 -0.0194 -0.1951 -0.0462
67587CHOL    R142520  21.305  23.914   8.940  0.0221 -0.1678 -0.1537
67587CHOL    R242521  21.512  24.081   8.864 -0.0694 -0.0078 -0.0594
67587CHOL    R342522  21.546  24.108   9.132 -0.0074 -0.2418 -0.0424
67587CHOL    R442523  21.817  24.126   9.021 -0.0555  0.0738 -0.1099
67587CHOL    R542524  21.750  23.991   9.179  0.0973 -0.1310 -0.2191
67587CHOL    C142525  22.026  24.178   9.364  0.0114 -0.0986 -0.1236
67587CHOL    C242526  22.322  24.202   9.671  0.0105  0.0089  0.0125
67588CHOL   ROH42527  20.295   6.139  11.928  0.0252  0.2118 -0.0388
67588CHOL    R142528  20.566   6.198  11.986  0.0219  0.1474  0.0416
67588CHOL    R242529  20.655   6.247  12.243 -0.0016 -0.0852  0.0946
67588CHOL    R342530  20.832   6.049  12.184 -0.0051 -0.0414 -0.0635
67588CHOL    R442531  20.960   6.201  12.400 -0.0225 -0.2441  0.0912
67588CHOL    R542532  21.047   6.153  12.206 -0.0019 -0.0723  0.0574
67588CHOL    C142533  21.304   5.989  12.435 -0.0387 -0.2955 -0.0594
67588CHOL    C242534  21.546   6.154  12.603 -0.0337 -0.0051  0.1538
67589CHOL   ROH42535   4.322  24.912  10.418 -0.0739  0.1462 -0.0612
67589CHOL    R142536   4.234  24.651  10.351 -0.0077  0.0956  0.0487
67589CHOL    R242537   4.075  24.500  10.520 -0.0674  0.1731  0.0617
67589CHOL    R342538   3.914  24.485  10.301  0.0377  0.0241 -0.0065
67589CHOL    R442539   3.817  24.274  10.480 -0.0143  0.1110  0.0682
67589CHOL    R542540   3.876  24.250  10.272  0.0878  0.0010  0.1091
67589CHOL    C142541   3.515  24.128  10.252  0.1154 -0.0650  0.0081
67589CHOL    C242542   3.329  23.912  10.514  0.0824 -0.2498 -0.2073
67590CHOL   ROH42543  10.137  14.350  17.638  0.1149  0.3144  0.0002
67590CHOL    R142544  10.114  14.215  17.390  0.3610  0.0877  0.0978
67590CHOL    R242545   9.950  14.306  17.186  0.0413 -0.4638  0.1001
67590CHOL    R342546  10.179  14.292  17.040  0.0243  0.0298  0.0208
67590CHOL    R442547   9.963  14.288  16.842 -0.0341 -0.3329  0.0900
67590CHOL    R542548  10.126  14.144  16.860  0.2577 -0.0222 -0.0065
67590CHOL    C142549  10.186  14.265  16.503 -0.0936  0.2067  0.0098
67590CHOL    C242550  10.231  14.599  16.186  0.0586  0.2036  0.3971
67591CHOL   ROH42551   2.257  13.524  10.820  0.1113 -0.1912  0.0664
67591CHOL    R142552   2.522  13.427  10.798  0.1146 -0.1307 -0.1842
67591CHOL    R242553   2.667  13.440  10.563  0.0218  0.2400 -0.2242
67591CHOL    R342554   2.849  13.566  10.721  0.0678  0.0242 -0.1031
67591CHOL    R442555   3.004  13.467  10.493  0.0531  0.0789 -0.1353
67591CHOL    R542556   3.046  13.431  10.704 -0.0120 -0.0857 -0.1503
67591CHOL    C142557   3.372  13.600  10.600  0.1145 -0.2174  0.0300
67591CHOL    C242558   3.775  13.774  10.767  0.0139  0.0220 -0.0392
67592CHOL   ROH42559  16.840  28.515  19.870 -0.2177  0.0785  0.1734
67592CHOL    R142560  16.784  28.423  19.609 -0.0986  0.0448  0.1591
67592CHOL    R242561  16.666  28.178  19.559 -0.1120  0.0544  0.1393
67592CHOL    R342562  16.487  28.327  19.420 -0.0179  0.0604  0.0240
67592CHOL    R442563  16.439  28.052  19.331 -0.1129  0.0372  0.1501
67592CHOL    R542564  16.479  28.224  19.204 -0.0124 -0.0431  0.0736
67592CHOL    C142565  16.138  28.120  19.068 -0.0253  0.0329  0.0480
67592CHOL    C242566  16.238  27.763  18.783 -0.0606  0.0129  0.0787
67593CHOL   ROH42567   5.975  19.306   9.358 -0.0048 -0.2091  0.0391
67593CHOL    R142568   5.911  19.504   9.550  0.0906 -0.3077  0.1731
67593CHOL    R242569   5.700  19.679   9.519  0.3509  0.0068  0.1512
67593CHOL    R342570   5.627  19.584   9.763  0.0072 -0.1336 -0.0027
67593CHOL    R442571   5.468  19.827   9.727  0.3286  0.0906  0.0670
67593CHOL    R542572   5.597  19.781   9.896  0.1150 -0.2188  0.1488
67593CHOL    C142573   5.264  19.824  10.077 -0.0070  0.0081 -0.1266
67593CHOL    C242574   4.922  19.835  10.223 -0.3080  0.0112  0.1511
67594CHOL   ROH42575  32.402  30.581  11.101  0.1885  0.3633  0.2082
67594CHOL    R142576  32.552  30.538  10.865  0.0393  0.0755  0.1638
67594CHOL    R242577  32.644  30.745  10.707 -0.0118 -0.1142 -0.1182
67594CHOL    R342578  32.885  30.624  10.743 -0.0141 -0.1227 -0.1287
67594CHOL    R442579  32.932  30.820  10.531 -0.0103 -0.1083 -0.1134
67594CHOL    R542580  32.977  30.607  10.523 -0.0164 -0.1081 -0.1301
67594CHOL    C142581  33.326  30.751  10.464 -0.0119 -0.1134 -0.1205
67594CHOL    C242582  33.720  30.946  10.554 -0.0947 -0.2484 -0.0862
67595W        W42583  18.922   4.420   6.202 -0.1454 -0.3183 -0.0783
67596W        W42584  16.314  18.303  23.501  0.0215  0.1098 -0.4298
67597W        W42585  19.682  24.186  22.376  0.2657  0.1743  0.1868
67598W        W42586  29.515  25.865  22.499 -0.1628 -0.1021  0.1337
67599W        W42587  35.018  25.959  26.165  0.1164  0.0433 -0.3742
67600W        W42588  33.965  34.341  20.630 -0.3193  0.1245  0.3841
67601W        W42589   4.250  34.914   5.798 -0.5036 -0.1530 -0.2215
67602W        W42590  28.941  27.209  17.300 -0.0844 -0.3374 -0.0844
67603W        W42591  14.968  23.592   4.241  0.1191  0.2104  0.0386
67604W        W42592  16.089   9.837  25.010 -0.2225 -0.1880  0.3367
67605W        W42593   5.124  11.335  25.046  0.0196  0.3779 -0.0796
67606W        W42594  33.257   8.620  19.887 -0.1248  0.1156 -0.2163
67607W        W42595   9.832  19.796   5.323  0.1302  0.1186  0.0091
67608W        W42596  12.912  14.152  23.944 -0.1082 -0.0633  0.3108
67609W        W42597  33.447  20.469  14.025 -0.0975  0.1271 -0.3416
67610W        W42598  22.501   2.840   3.346  0.1194  0.3138 -0.0367
67611W        W42599   3.900  20.042   2.650  0.0203 -0.2855 -0.0066
67612W        W42600   3.312  22.625  19.636  0.1035  0.1036  0.0056
67613W        W42601  16.833  12.819  22.862 -0.0350 -0.0025 -0.0656
67614W        W42602   6.396  22.064   9.135  0.0469  0.0362  0.3589
67615W        W42603   3.765   3.172  18.511 -0.1315 -0.3269  0.0862
67616W        W42604  27.964  11.547  22.590 -0.3503 -0.1104  0.1858
67617W        W42605  11.962  33.732  24.000  0.1424  0.1478  0.1120
67618W        W42606  13.745  16.527  24.928  0.4753 -0.0591 -0.0129
67619W        W42607  30.581  22.822  19.423  0.6342  0.4729 -0.0070
67620W        W42608  23.502   4.164  16.531 -0.0400  0.2391  0.1682
67621W        W42609  29.403  10.975  13.236 -0.0527 -0.1841  0.0769
67622W        W42610  21.128  32.391  13.936 -0.0809 -0.1506  0.0109
67623W        W42611  25.771  33.401  20.102  0.0044  0.0887 -0.0637
67624W        W42612  28.595  33.091   5.419  0.0916  0.1502 -0.0935
67625W        W42613  18.765  24.014   4.923  0.0914  0.2008  0.4318
67626W        W42614  30.035   1.000   5.453  0.2735  0.3921  0.2486
67627W        W42615  11.662   9.812   1.387  0.1920 -0.1525  0.0861
67628W        W42616  32.107  11.813  18.642 -0.1794 -0.0437  0.0041
67629W        W42617  25.445   6.870  26.083 -0.1189 -0.0780 -0.0108
67630W        W42618  17.871  12.791   3.177  0.0209 -0.3134  0.1236
67631W        W42619   3.321  18.205   3.086 -0.1562 -0.3554  0.4641
67632W        W42620   4.764   9.863  17.174  0.1255 -0.1897 -0.0700
67633W        W42621  14.025  20.651  11.109 -0.0120  0.2305  0.3921
67634W        W42622  19.701  33.949  25.286  0.0336  0.2529 -0.0466
67635W        W42623  16.043  28.376   3.989  0.0896 -0.2399  0.2876
67636W        W42624  12.582  30.973   8.808 -0.0516 -0.0631  0.1287
67637W        W42625   7.154  21.534   8.951  0.3948  0.2304  0.1667
67638W        W42626  13.502   7.636  25.403  0.1478  0.0137  0.0044
67639W        W42627  29.926   3.545   0.491 -0.2099 -0.0424 -0.3761
67640W        W42628  18.738  33.163  19.859  0.3482 -0.0991 -0.3606
67641W        W42629  21.402  13.099  24.571  0.1490  0.2765  0.1188
67642W        W42630  12.977   7.203   1.186  0.0168  0.1984 -0.3444
67643W        W42631  21.633  31.385  13.190  0.0496  0.0154 -0.1411
67644W        W42632   9.339  24.950  26.073  0.0526  0.0759  0.2069
67645W        W42633  17.262  13.806   4.978  0.3602 -0.0510 -0.1456
67646W        W42634  28.376  10.000   7.058 -0.2789 -0.0615  0.2008
67647W        W42635   5.018  32.018  10.293  0.0952 -0.0906  0.0085
67648W        W42636   5.089   5.831  10.355 -0.4009  0.2476  0.0118
67649W        W42637   4.577  34.803  13.050  0.4375 -0.1256  0.2976
67650W        W42638  26.131  18.586  15.073  0.1100 -0.3161  0.1038
67651W        W42639  25.683  29.369   1.329  0.1373  0.2339 -0.0422
67652W        W42640   2.424   9.004  24.366 -0.1563  0.1842  0.3454
67653W        W42641  17.892  33.743   7.171 -0.1830  0.1286  0.1597
67654W        W42642  20.016  14.215   5.284 -0.0645  0.3278 -0.1269
67655W        W42643  11.527  25.332  15.422 -0.0037  0.1967  0.1271
67656W        W42644  10.285  28.857  14.708 -0.2838 -0.2616 -0.0995
67657W        W42645  15.324  14.155  19.919  0.0376 -0.2596  0.1749
67658W        W42646   7.154  24.569  24.850  0.1144  0.1188  0.2528
67659W        W42647   9.894  14.181   0.369  0.0774  0.0665 -0.0822
67660W        W42648  27.202  12.188  25.829 -0.3878 -0.3415  0.2423
67661W        W42649  33.115  10.719   0.694  0.1052 -0.1734 -0.1868
67662W        W42650  13.880  18.013  14.404 -0.2124 -0.2250  0.1493
67663W        W42651   2.460  28.835   3.732  0.2519  0.0758 -0.3103
67664W        W42652  13.032   5.422  10.643  0.1586  0.0534 -0.0820
67665W        W42653  28.266  28.910   3.958  0.0582  0.0554 -0.2576
67666W        W42654   3.071  31.503   2.003  0.0166  0.1498  0.1834
67667W        W42655  33.786  30.036   5.625 -0.2839 -0.1760 -0.0718
67668W        W42656   2.299   9.890  14.884  0.0402  0.1215  0.0554
67669W        W42657   1.457  15.928   1.542 -0.1386 -0.0144 -0.1099
67670W        W42658   4.403  30.346  24.092  0.0376  0.0260  0.2854
67671W        W42659  21.960   5.691  15.278 -0.0889 -0.0469  0.0356
67672W        W42660  26.443  23.736   9.409 -0.3478  0.1500 -0.0213
67673W        W42661  18.792  32.485  24.583  0.0379  0.0809  0.1035
67674W        W42662  13.453   6.014   3.210  0.0347 -0.1014  0.0632
67675W        W42663  16.677  16.422  10.115  0.3596 -0.0100 -0.1190
67676W        W42664  32.507   1.282  14.479 -0.2031 -0.0781  0.1440
67677W        W42665   5.894  12.558   1.250  0.5350  0.5329  0.1383
67678W        W42666  32.794  34.349  24.598  0.2004 -0.0379 -0.1933
67679W        W42667  16.744  26.811   1.459 -0.0840  0.3081  0.0762
67680W        W42668   5.899   3.928  18.347  0.0951  0.0530 -0.0966
67681W        W42669  23.596  15.178  23.067 -0.1184  0.0426 -0.1898
67682W        W42670  22.675   2.054  21.886 -0.1068  0.4893  0.0709
67683W        W42671  15.905   0.778  17.499  0.1389  0.1860 -0.0226
67684W        W42672  16.391  13.477  23.708 -0.2901  0.4958  0.1979
67685W        W42673   8.925  18.080   4.862  0.2840  0.1182 -0.3959
67686W        W42674  19.160  16.493  21.894  0.0381  0.0253 -0.0453
67687W        W42675   6.357   1.516   3.773  0.1213 -0.0191  0.1147
67688W        W42676   0.689  29.476   7.532  0.0054 -0.0153  0.1333
67689W        W42677  30.020   3.995  19.777 -0.0898  0.0586 -0.4389
67690W        W42678   3.423  26.562  19.263  0.0944 -0.0512  0.0533
67691W        W42679  15.804  29.079   2.435  0.1524 -0.0870  0.1449
67692W        W42680  29.581  33.285   2.993 -0.1242 -0.0460  0.0292
67693W        W42681  11.320  23.358   3.191  0.3732 -0.3121 -0.0660
67694W        W42682  18.008  28.001   7.455 -0.0384 -0.0650  0.2218
67695W        W42683   4.930  12.927  23.219  0.0956  0.3065 -0.1333
67696W        W42684   4.681  19.180   5.515  0.1667 -0.2215 -0.1056
67697W        W42685  29.270  13.009  16.774 -0.1902  0.0739  0.1320
67698W        W42686   2.441   9.889   2.788  0.1680 -0.0756 -0.2018
67699W        W42687  33.516   2.652   1.727 -0.0354  0.0899 -0.2055
67700W        W42688  29.027  14.430  25.089 -0.0897  0.0590  0.0368
67701W        W42689  27.265  27.265   1.036 -0.1560  0.1741 -0.2817
67702W        W42690   1.350  31.831  21.688  0.2974 -0.2909 -0.2099
67703W        W42691  33.448  32.470  20.084 -0.1328 -0.1417 -0.0433
67704W        W42692   2.490   7.422  25.784  0.1308  0.3799 -0.0110
67705W        W42693  31.188  26.164  15.295  0.0708 -0.0240  0.1864
67706W        W42694  33.255  28.001   1.358 -0.0625 -0.2254  0.1052
67707W        W42695  13.843  24.481   3.140 -0.1131  0.4120  0.0899
67708W        W42696   9.950  33.014   6.643 -0.0054  0.1069 -0.0641
67709W        W42697  14.458  21.419   1.467  0.0301  0.0067  0.1261
67710W        W42698   0.137  28.700  25.941 -0.0907  0.1132  0.2006
67711W        W42699  33.982  13.244  21.958 -0.2109  0.1275 -0.5051
67712W        W42700  33.010  14.552  12.892 -0.4184  0.1997  0.3022
67713W        W42701  25.818  34.507  21.012 -0.0723  0.0405  0.1526
67714W        W42702  34.122   4.729  16.487  0.1174 -0.2824 -0.3570
67715W        W42703  14.393   6.076   7.486  0.0016 -0.3345 -0.1315
67716W        W42704   0.767  14.252  17.861  0.1160  0.4177  0.2336
67717W        W42705  21.954  32.800  13.719  0.0565 -0.0940 -0.0508
67718W        W42706  19.230  16.772  22.959 -0.1062  0.4119 -0.1232
67719W        W42707  12.332   9.091   1.223 -0.3544 -0.0701  0.1641
67720W        W42708   3.902  30.897  11.814  0.1673  0.1316  0.2036
67721W        W42709  19.108  14.340  24.908  0.2005 -0.0352 -0.1640
67722W        W42710  33.839  33.388  23.441 -0.1188  0.0652  0.1828
67723W        W42711   4.859  11.904  21.131 -0.1075  0.1897 -0.0129
67724W        W42712   4.192  33.212   1.556 -0.0254  0.0710 -0.1375
67725W        W42713  24.095  28.659  25.810  0.0059  0.1490 -0.2438
67726W        W42714  20.342  20.938   0.125 -0.1262 -0.2811 -0.0632
67727W        W42715   0.435   7.393  24.559 -0.3176  0.0484 -0.0469
67728W        W42716  19.602   2.281  24.444  0.0113 -0.1997 -0.1486
67729W        W42717  15.696   3.473   4.318 -0.0619  0.1097 -0.0288
67730W        W42718   6.072  32.499  22.147 -0.0658 -0.0337  0.0642
67731W        W42719   5.954   2.259   9.101 -0.0067 -0.1831 -0.1694
67732W        W42720  32.110  15.273  26.071 -0.1261 -0.0422 -0.1550
67733W        W42721  31.269   1.990   3.308 -0.1276  0.2400  0.0223
67734W        W42722  15.072  33.287  24.699 -0.0149 -0.3325 -0.1334
67735W        W42723  21.661  23.954   1.553  0.0333  0.0944  0.0017
67736W        W42724  22.203   6.727   4.495  0.3120  0.0516 -0.0694
67737W        W42725  30.254  31.501  20.487 -0.1358 -0.0051  0.1028
67738W        W42726  28.744  24.111  17.501  0.1822 -0.0551  0.0339
67739W        W42727  34.216   7.876  11.700 -0.2026  0.1262 -0.2342
67740W        W42728  10.833  18.672  14.096  0.0231  0.0950 -0.0567
67741W        W42729  21.731  18.771  25.014  0.1835 -0.2568  0.3746
67742W        W42730  28.767  24.667  18.520 -0.2392  0.2439 -0.1275
67743W        W42731  33.273   3.434   2.182  0.3296 -0.3904  0.0023
67744W        W42732   8.162  24.012  11.766 -0.1256  0.0191  0.0544
67745W        W42733  12.218  17.292  10.580 -0.1684 -0.0564 -0.1982
67746W        W42734  13.376  25.979  23.012 -0.0735 -0.0870 -0.1248
67747W        W42735  34.856  32.404   4.721  0.0850  0.1089 -0.2106
67748W        W42736  21.479  10.080  19.284  0.0609 -0.0334  0.1285
67749W        W42737   1.595   7.984   4.964  0.0112  0.0273 -0.2888
67750W        W42738   3.141  34.789   0.584  0.0702  0.0160 -0.0884
67751W        W42739  27.082   8.935   0.203 -0.2356 -0.2296 -0.2326
67752W        W42740  13.435  27.316   2.111  0.3987  0.1720  0.0189
67753W        W42741  24.081  25.199  11.434 -0.0869  0.0421 -0.3017
67754W        W42742  21.463  33.813  17.021 -0.0692  0.0628  0.0730
67755W        W42743  24.298   3.784  26.230  0.2904  0.1522  0.2467
67756W        W42744  18.940   8.672   8.713  0.2060  0.0483  0.1243
67757W        W42745  15.197   1.287   6.827  0.0411  0.4443 -0.1236
67758W        W42746  16.352  34.731   8.224 -0.0655 -0.1070 -0.3601
67759W        W42747  15.409  17.527  20.136 -0.0925  0.1542 -0.0459
67760W        W42748   2.892  21.739  25.897  0.1423 -0.2376 -0.0086
67761W        W42749  34.185   7.717  13.747 -0.0307  0.0226 -0.1308
67762W        W42750  21.823  35.187  21.310  0.4300 -0.2665  0.1299
67763W        W42751  14.341  11.930   9.321 -0.0378  0.0177  0.5001
67764W        W42752  27.878   9.588  15.598 -0.1308 -0.1232 -0.2889
67765W        W42753  10.173  25.983  12.503  0.2530  0.1741 -0.1624
67766W        W42754  20.921   6.398   4.132  0.4439 -0.2248  0.1030
67767W        W42755   0.107  14.871  19.988  0.1489 -0.2687  0.0564
67768W        W42756  21.564  16.119   0.427  0.1894 -0.1295 -0.0290
67769W        W42757  27.039  11.839  24.121  0.2137  0.0178  0.1531
67770W        W42758   9.956   2.834   3.593  0.1366  0.0563 -0.1452
67771W        W42759   0.833   5.487  23.508  0.0576 -0.0312  0.2466
67772W        W42760  33.022  28.557   2.679  0.0744 -0.2517  0.0300
67773W        W42761  10.125  34.071  21.087 -0.0273 -0.0464  0.0097
67774W        W42762   8.503  17.047   6.121 -0.0049  0.0637  0.4938
67775W        W42763  21.906  31.217   2.285 -0.2730 -0.2422 -0.5375
67776W        W42764  29.326  32.618  21.861  0.1721  0.1631  0.1687
67777W        W42765   9.940  31.226  15.835  0.0316  0.3503 -0.1653
67778W        W42766  35.046  31.896   0.746 -0.0486 -0.1370  0.1571
67779W        W42767  14.899  18.363  10.117  0.3045  0.3042 -0.4777
67780W        W42768  24.074  13.095  14.430  0.1527 -0.1626 -0.1144
67781W        W42769  25.009  35.343   1.185  0.1831  0.0433 -0.1211
67782W        W42770  22.160  32.099  26.218  0.2716 -0.1094  0.3834
67783W        W42771   2.622   9.649   0.408  0.3281 -0.1473  0.4131
67784W        W42772  26.315  15.636   6.274 -0.1284  0.1289  0.0349
67785W        W42773   9.445   2.889  10.139 -0.1740  0.2822  0.2740
67786W        W42774  19.369  33.099   7.391 -0.3370 -0.0474 -0.2508
67787W        W42775   8.154  32.866  20.597 -0.2179 -0.1408 -0.1537
67788W        W42776  11.691  19.369  25.502 -0.0859  0.0098  0.2512
67789W        W42777  11.947   9.017  19.510  0.1498 -0.4016  0.0067
67790W        W42778  35.322  20.499  21.362  0.0108 -0.0694  0.2817
67791W        W42779  12.467   4.005   6.096 -0.0001 -0.1023 -0.1108
67792W        W42780  22.473   3.132  25.777  0.1524 -0.0911  0.0819
67793W        W42781  22.112   0.525  14.090 -0.1080  0.1312 -0.0639
67794W        W42782  13.448  14.040  19.465 -0.0643  0.3214  0.2449
67795W        W42783  30.530  30.500  17.660  0.2823  0.0424  0.0750
67796W        W42784  12.973  25.273   4.907 -0.0297  0.1943 -0.0978
67797W        W42785  33.472  23.142  22.284 -0.1040  0.4082 -0.1135
67798W        W42786   4.961   0.750  22.871  0.1936 -0.3221 -0.1559
67799W        W42787  28.358   8.144  11.579  0.0626  0.0573 -0.0735
67800W        W42788   2.585  10.506  21.565 -0.0327 -0.0316 -0.1588
67801W        W42789  19.813  34.344  18.227  0.2123 -0.2197  0.3085
67802W        W42790  34.749  32.122  18.689 -0.0059  0.2382 -0.1023
67803W        W42791   8.806  17.980  14.045  0.1390 -0.0560 -0.0703
67804W        W42792  34.206  31.267  24.193 -0.0820 -0.0922  0.3093
67805W        W42793  33.397   3.388   4.643  0.0057  0.0240  0.1916
67806W        W42794  28.661  33.746  11.130 -0.0255 -0.1594 -0.1622
67807W        W42795   8.696  13.650  22.680 -0.2474 -0.0343 -0.0148
67808W        W42796  23.674  15.607  13.596 -0.0879  0.0060  0.1569
67809W        W42797   2.253   6.934  18.732 -0.3523  0.1560  0.0834
67810W        W42798  21.025  14.624  21.063 -0.2162 -0.2204 -0.1643
67811W        W42799  19.089  14.530  18.461 -0.0806  0.0413 -0.0231
67812W        W42800  31.963   2.838  17.571 -0.0814  0.2837 -0.3496
67813W        W42801  34.756   6.645   5.292  0.3455 -0.0048 -0.1768
67814W        W42802  30.197  17.868  17.969 -0.1116 -0.1485 -0.2099
67815W        W42803  21.152  28.925   7.159 -0.1561  0.1555  0.1753
67816W        W42804  11.325   4.528  10.968 -0.1182 -0.2017 -0.1111
67817W        W42805   8.025   5.901  24.314 -0.0652 -0.1440  0.2108
67818W        W42806  25.899  18.701  20.009  0.1180 -0.2883 -0.1418
67819W        W42807  24.594  16.422  21.812  0.0173 -0.3117 -0.0281
67820W        W42808  17.184  31.840  26.016  0.0574 -0.0226  0.0023
67821W        W42809   1.221   4.439  24.875 -0.1158  0.0712  0.1640
67822W        W42810  35.182  12.079  16.224 -0.0443 -0.0236 -0.3081
67823W        W42811  14.891  31.179   4.199 -0.0208 -0.1855 -0.2221
67824W        W42812   3.546   6.854   7.436  0.3066 -0.5388 -0.2731
67825W        W42813  13.352  19.415  14.802  0.0587 -0.2842  0.0975
67826W        W42814  14.205  35.373  23.141  0.0513 -0.0080  0.1539
67827W        W42815  31.161  10.989  13.209  0.5685  0.2399  0.1381
67828W        W42816  28.403  21.109  18.239  0.0871 -0.0073  0.1484
67829W        W42817  29.887  23.069  20.025  0.4197 -0.1550  0.2055
67830W        W42818  24.473  19.681  23.988 -0.0486 -0.0380  0.1018
67831W        W42819   6.443  30.493   2.972  0.0931  0.0540 -0.1613
67832W        W42820  24.903  12.056  12.963 -0.0748  0.0349 -0.3876
67833W        W42821  17.485  21.400   5.772 -0.0505 -0.2140  0.1232
67834W        W42822   4.159  16.109  19.105 -0.2885 -0.1038 -0.0467
67835W        W42823  29.489  14.332  23.360 -0.0808 -0.2232  0.1360
67836W        W42824   7.256  14.113   1.415 -0.0664  0.1722 -0.1278
67837W        W42825  34.390   4.827  17.721  0.2459  0.0841  0.0740
67838W        W42826   7.100   3.673   4.980 -0.0745  0.2657  0.0557
67839W        W42827  28.051  32.401   1.982  0.4462 -0.1904 -0.0182
67840W        W42828  28.226  21.743  23.070  0.0580  0.0721  0.1985
67841W        W42829  12.708   7.545  25.166 -0.1053  0.2333 -0.2186
67842W        W42830  10.502  29.783   4.031 -0.0865 -0.2641 -0.1223
67843W        W42831  24.130  35.097   0.737  0.2089 -0.3083  0.2038
67844W        W42832  18.594  34.937  16.630 -0.3258  0.2940  0.2742
67845W        W42833   6.089  20.129   2.810 -0.1185  0.2776  0.4858
67846W        W42834  27.220  30.968  25.013  0.0087 -0.3413  0.1588
67847W        W42835   1.126  13.171  15.934 -0.4712 -0.2225  0.0024
67848W        W42836  11.330  12.970  12.395 -0.0839  0.3559  0.1628
67849W        W42837  34.611  30.675   6.709 -0.0164  0.0845 -0.2568
67850W        W42838  10.413  31.579   8.245 -0.1757 -0.0434  0.2258
67851W        W42839  32.774   9.463  24.862  0.0719  0.0303 -0.0352
67852W        W42840  16.136  31.244  24.056 -0.2102  0.0922 -0.0251
67853W        W42841  15.207  29.234  14.071  0.0860  0.2591 -0.1015
67854W        W42842  29.956  29.519   3.133  0.0927 -0.0460  0.1676
67855W        W42843  35.308  10.237   3.389  0.1161  0.2405  0.0775
67856W        W42844  16.804  19.707  13.675 -0.0787 -0.1127  0.0807
67857W        W42845  15.465  28.944  13.008  0.1609 -0.0192  0.1363
67858W        W42846  24.525  22.494  20.897  0.0014 -0.1925 -0.1354
67859W        W42847   8.164  19.703   7.190  0.5065 -0.0530 -0.1223
67860W        W42848   0.430  14.890  24.094 -0.3360  0.2782 -0.0765
67861W        W42849  15.182  20.899  13.707  0.1307  0.2152  0.3079
67862W        W42850  23.144  20.659  14.432 -0.0590 -0.0085  0.3217
67863W        W42851   5.994  27.599  24.011  0.0022  0.2630 -0.1212
67864W        W42852  17.430  24.056  24.184  0.0170  0.0207  0.2457
67865W        W42853   7.144  25.141  10.958  0.2168  0.0088  0.1366
67866W        W42854   9.017   7.327   0.758  0.0549 -0.1121  0.0796
67867W        W42855  28.547  34.236   1.051  0.0964 -0.1687  0.1323
67868W        W42856  29.141  20.146   6.019  0.0263 -0.2380 -0.0359
67869W        W42857  20.354  13.655   0.168 -0.0782 -0.0626  0.0592
67870W        W42858  26.042  18.723  10.608  0.2680  0.0386 -0.1446
67871W        W42859   8.052  13.883  11.145  0.0074 -0.1686 -0.2618
67872W        W42860  15.825  28.666   9.971  0.0983  0.0238 -0.1236
67873W        W42861   8.154  19.870   6.240  0.0467  0.2022  0.2579
67874W        W42862  31.208  26.340  24.631 -0.1343 -0.2213  0.1753
67875W        W42863   9.104  31.487   9.499  0.1164  0.3149  0.0008
67876W        W42864   4.867  17.975   5.142  0.1524  0.0041 -0.2938
67877W        W42865  11.118   7.089   0.576  0.0229 -0.1410 -0.1567
67878W        W42866  15.610   9.880  25.182 -0.0592  0.0794 -0.1854
67879W        W42867  25.917  19.043  15.331 -0.2804  0.2081 -0.0682
67880W        W42868  15.646  28.051   8.853 -0.1232  0.2211  0.0370
67881W        W42869  30.929   0.698  12.465 -0.0913 -0.0076  0.4004
67882W        W42870  30.961   3.970  22.957  0.0924 -0.2969  0.0066
67883W        W42871   7.614  28.451  22.225 -0.1750  0.4157  0.2552
67884W        W42872  32.544  26.110   2.613 -0.1774  0.0709  0.1158
67885W        W42873  15.220  15.574   8.833 -0.1668  0.1667  0.0532
67886W        W42874  16.274  10.582   2.059 -0.1080 -0.0900 -0.0849
67887W        W42875  27.866  23.186  24.109  0.1416  0.1023  0.1003
67888W        W42876  32.579   4.508  18.985  0.1799 -0.4297  0.3012
67889W        W42877  29.559  26.292  21.249  0.0103 -0.1631 -0.1637
67890W        W42878  17.161  27.719  20.835  0.0050 -0.0370  0.2392
67891W        W42879  12.334  30.983   1.154 -0.2660 -0.0645  0.4748
67892W        W42880   5.664  34.249   6.116  0.0307 -0.1716 -0.0285
67893W        W42881  15.601  23.173  22.360 -0.0743  0.0443  0.0952
67894W        W42882   8.186  12.971   0.937 -0.3204 -0.1467  0.2904
67895W        W42883  12.480  12.316  13.236 -0.0642 -0.0478  0.1313
67896W        W42884  25.929   6.150  25.033 -0.3134 -0.0445  0.0322
67897W        W42885  14.149  12.025   8.341  0.2054  0.1489  0.1190
67898W        W42886  16.905  13.828   7.974  0.1537 -0.3345 -0.0843
67899W        W42887   7.684   1.776   8.270 -0.2561 -0.0954 -0.1586
67900W        W42888  19.848   7.631   9.662  0.0242  0.1159 -0.3261
67901W        W42889  23.369  30.110   0.912  0.2672 -0.3203  0.1343
67902W        W42890  18.259   4.759  21.414 -0.3590  0.1015 -0.1498
67903W        W42891   7.394   1.816   3.684  0.1788  0.0374 -0.3105
67904W        W42892  19.663  27.492   3.260 -0.0569 -0.1830  0.4023
67905W        W42893  10.830  28.424  16.543  0.1998  0.2367 -0.1260
67906W        W42894  17.913  18.014   1.610  0.2262  0.0755  0.3320
67907W        W42895  34.915  17.983   7.126  0.3095  0.1736  0.0863
67908W        W42896  33.645  30.542  20.938  0.0997  0.0700 -0.2214
67909W        W42897  27.434  31.522  10.505 -0.0804  0.0080  0.2571
67910W        W42898  10.447  14.468   4.758 -0.3194  0.1400  0.1062
67911W        W42899  25.858  27.212   2.840 -0.0749  0.2968  0.0900
67912W        W42900   3.350  26.176   5.353 -0.0141 -0.0956  0.1446
67913W        W42901   4.746   3.674   8.340 -0.0547  0.1895  0.1722
67914W        W42902  15.754  10.580   7.854  0.2514 -0.0191  0.1001
67915W        W42903   9.975  28.974   2.928 -0.1987 -0.1626 -0.2393
67916W        W42904  20.990  12.923  18.323  0.1777  0.1492 -0.0739
67917W        W42905  25.838  11.043  11.948 -0.0676 -0.2724  0.2339
67918W        W42906  35.118  21.546  21.897  0.2524  0.2563  0.0029
67919W        W42907  13.153  26.992  14.583  0.3281 -0.2123  0.0468
67920W        W42908  25.518  26.211  24.941 -0.0616  0.1015 -0.0255
67921W        W42909  31.319  29.624  16.497 -0.2681 -0.2401  0.0003
67922W        W42910   3.783  20.404  17.187 -0.0497 -0.4379  0.6630
67923W        W42911  16.366  14.226  13.323 -0.0548 -0.3343 -0.2463
67924W        W42912   7.706  22.711  21.050 -0.3505  0.0525 -0.1576
67925W        W42913   0.408   1.805   5.772 -0.3631  0.2498 -0.1366
67926W        W42914  24.529  19.703  23.133  0.0213 -0.2477 -0.0872
67927W        W42915  18.606   2.118   8.839 -0.1410 -0.3458 -0.1798
67928W        W42916  33.405  24.647   8.806 -0.4811  0.3278  0.1887
67929W        W42917   8.483  17.436  12.264  0.3519 -0.0422  0.1924
67930W        W42918  28.953  22.138  15.054  0.0434 -0.1582 -0.0568
67931W        W42919  10.169   4.045   7.268 -0.0284  0.0431 -0.0736
67932W        W42920   6.693   7.375   5.714 -0.1992  0.0664  0.0118
67933W        W42921   2.574  11.967   3.909  0.1014 -0.0800 -0.1192
67934W        W42922  11.229   2.101   8.492 -0.3517 -0.0351  0.1989
67935W        W42923  23.386  17.645  21.656  0.0008 -0.0740  0.0323
67936W        W42924  17.465  17.365  19.174  0.0785 -0.2535  0.1653
67937W        W42925  32.064   9.056  18.955  0.1136  0.0585 -0.2554
67938W        W42926  29.736  25.606   8.742  0.0335  0.0125  0.0387
67939W        W42927   3.305   0.486  22.915 -0.1777 -0.0300 -0.2141
67940W        W42928  16.601   4.794   2.241 -0.1577 -0.2382 -0.1180
67941W        W42929   8.854  15.793   6.239 -0.1880 -0.1979 -0.3110
67942W        W42930  29.298  10.927  18.105  0.1294 -0.0314 -0.1027
67943W        W42931   6.583  13.749  19.297 -0.1837  0.1264 -0.0443
67944W        W42932   6.903  15.814  25.702 -0.3324  0.1860 -0.1693
67945W        W42933   0.558  21.649  19.576  0.4124  0.0176 -0.1265
67946W        W42934  17.308  24.824   0.915  0.1318 -0.1885 -0.3518
67947W        W42935  18.391  21.476  12.378 -0.2658 -0.1413  0.1780
67948W        W42936  11.572  22.642  10.856  0.0486 -0.0044  0.0110
67949W        W42937   9.297  33.706  21.834 -0.2149  0.1604 -0.2761
67950W        W42938   7.066   6.992   9.359  0.3455  0.0119 -0.0849
67951W        W42939  26.451  34.454  21.121  0.1980 -0.3125 -0.0573
67952W        W42940   1.409  34.807  16.928  0.0151  0.1729 -0.3592
67953W        W42941  16.559  12.917   5.138 -0.3050  0.1609 -0.1460
67954W        W42942   0.215  15.288  23.929 -0.0728  0.1575 -0.0759
67955W        W42943  20.129  28.996   4.679  0.2628  0.1398 -0.1445
67956W        W42944   5.159  13.965   6.088  0.2016 -0.3774 -0.0975
67957W        W42945  19.971   5.898   6.089 -0.2698  0.0098  0.2109
67958W        W42946  12.551  10.464  24.005  0.2942 -0.0263 -0.1150
67959W        W42947  34.942   4.732  16.476  0.0641  0.0385  0.1775
67960W        W42948  34.717  20.529  21.646 -0.0898  0.2061 -0.0172
67961W        W42949  17.322  31.035   7.734  0.0690 -0.0135  0.0205
67962W        W42950  23.401   8.433  18.181 -0.0799 -0.0395 -0.0214
67963W        W42951  12.053  30.855  14.079  0.0965  0.0117  0.0373
67964W        W42952  13.131  26.204  22.114 -0.1012 -0.3004 -0.1682
67965W        W42953  20.475   6.841  21.719 -0.2721 -0.1264 -0.2640
67966W        W42954  18.014  18.816   2.874 -0.2043 -0.0276 -0.1183
67967W        W42955  20.309   1.160   6.161 -0.2548 -0.0631 -0.1427
67968W        W42956  21.787  33.532   4.119 -0.1122 -0.0741 -0.0551
67969W        W42957  10.979   5.376  12.748  0.2610  0.1948 -0.3387
67970W        W42958  28.567  29.651   1.737  0.4471  0.2728  0.0848
67971W        W42959  25.483  25.155  21.957  0.0745 -0.0859  0.1882
67972W        W42960  26.961  25.839  21.166  0.0638 -0.0190  0.0192
67973W        W42961  26.830  30.632  20.282 -0.1463 -0.0691  0.1790
67974W        W42962  28.815  29.955  12.088  0.0896 -0.0496  0.3373
67975W        W42963  21.278   6.732  25.407  0.0974 -0.2125  0.0439
67976W        W42964  19.173  27.502   6.571  0.1226 -0.0557 -0.3291
67977W        W42965  34.128  18.822   6.874  0.0950  0.2042 -0.1513
67978W        W42966  17.648   3.765   4.082 -0.2407  0.1084 -0.0886
67979W        W42967  30.686  26.377  18.935  0.0191 -0.1798 -0.0782
67980W        W42968  28.256  13.626  15.228  0.3736  0.3376  0.1299
67981W        W42969  17.161  33.990  21.662  0.1513  0.0543 -0.4270
67982W        W42970   9.986  16.654  13.159 -0.1394 -0.2243 -0.0241
67983W        W42971   5.624  26.296  11.383 -0.1744  0.0140 -0.0705
67984W        W42972  12.292   1.340   0.641 -0.0238  0.1014 -0.1319
67985W        W42973  30.746  23.121  25.634  0.0467  0.1603  0.3446
67986W        W42974  24.115   0.768  13.765  0.2160  0.1029  0.0793
67987W        W42975  33.480  22.975   0.134  0.1433 -0.1725 -0.1838
67988W        W42976   4.233   0.065  18.626 -0.1176 -0.0226 -0.2150
67989W        W42977   6.638  25.383  20.994  0.0351  0.1350  0.0995
67990W        W42978  27.816   8.352  23.444  0.1192  0.0236  0.0418
67991W        W42979  15.175  27.819   6.972  0.1192 -0.3299 -0.2733
67992W        W42980  24.754   4.902   3.353  0.0838  0.3111 -0.1783
67993W        W42981  10.046  31.321   9.118 -0.0445 -0.2159 -0.0021
67994W        W42982   7.687  11.622  24.875 -0.2948 -0.1060 -0.1818
67995W        W42983  16.031  28.124   1.297 -0.0425 -0.1628 -0.0082
67996W        W42984   5.508  26.826  23.047  0.0282 -0.0176 -0.0815
67997W        W42985  21.866  21.248  19.220  0.1713 -0.2113 -0.1204
67998W        W42986  32.965  24.591  16.538 -0.0372 -0.3299 -0.0086
67999W        W42987   4.480  20.366   3.444  0.0952 -0.2011  0.1793
68000W        W42988  28.165  19.212  11.062 -0.2946  0.2359 -0.0713
68001W        W42989  11.063  16.860  21.411  0.0487  0.3490  0.2657
68002W        W42990  34.046  18.263  25.075 -0.1391 -0.1675  0.1082
68003W        W42991  28.560  25.361   9.497  0.0883 -0.4049 -0.1275
68004W        W42992  26.837  25.673   0.028  0.0962 -0.1619  0.3807
68005W        W42993  19.517  29.167  21.537  0.0491  0.1774  0.3581
68006W        W42994   3.332   5.835  15.607 -0.1787  0.0630 -0.0176
68007W        W42995  28.944  24.557  21.265  0.0736 -0.0517 -0.0013
68008W        W42996  27.415  13.017  11.905 -0.1065  0.2902  0.4287
68009W        W42997   0.490  31.497  21.545 -0.1064 -0.3103 -0.0085
68010W        W42998   0.750  19.374  13.389 -0.0022  0.2087 -0.0049
68011W        W42999  20.339  33.207  19.057  0.1001 -0.0316 -0.2670
68012W        W43000   0.767  10.796  13.686  0.2278 -0.1161 -0.2678
68013W        W43001  29.337  24.480   0.002  0.1050 -0.2582  0.0729
68014W        W43002   4.237  13.351  17.765  0.0832 -0.0400  0.0956
68015W        W43003  12.864   1.876  21.534 -0.0890  0.1293  0.1403
68016W        W43004  22.347  24.186   0.705 -0.2493 -0.0372  0.0319
68017W        W43005  23.947  33.066   5.535  0.3295 -0.2952  0.1085
68018W        W43006  32.037  32.160   1.322 -0.3148  0.1454  0.0216
68019W        W43007  15.560   3.182   3.481  0.3593 -0.0536 -0.0935
68020W        W43008   4.752   3.854  21.363  0.1885 -0.1965 -0.0077
68021W        W43009  10.075  14.731   3.573  0.1083 -0.0264  0.2207
68022W        W43010   6.509  26.695  13.845  0.2838 -0.1074 -0.1497
68023W        W43011  31.547   9.032  16.809  0.1843  0.0331 -0.1372
68024W        W43012  21.484   1.344   1.803  0.2076 -0.0433 -0.0340
68025W        W43013  32.152  22.314  25.781  0.1269 -0.2914  0.0057
68026W        W43014  34.245   5.592   4.450  0.1038  0.2601 -0.0848
68027W        W43015  14.898   0.387   3.617 -0.1096 -0.2687 -0.2514
68028W        W43016  22.499  35.133  25.329 -0.0290  0.2619  0.0931
68029W        W43017   1.560  31.878  25.299 -0.1478 -0.0389  0.2385
68030W        W43018   5.155  20.235   5.715  0.1401  0.0940  0.1576
68031W        W43019  17.308   7.158  21.066  0.0314 -0.0748  0.3893
68032W        W43020  31.954  28.003  21.067  0.2161  0.1485  0.0777
68033W        W43021  30.569  21.661   9.431 -0.2257 -0.0253 -0.1013
68034W        W43022  20.011  12.833  24.446 -0.1552 -0.1644 -0.0496
68035W        W43023  32.031  20.328  20.434 -0.2157 -0.3422  0.0705
68036W        W43024   6.710  29.488  25.182 -0.0392  0.0816  0.0575
68037W        W43025   8.060   7.628  25.073 -0.0936  0.2181  0.2423
68038W        W43026  16.199  11.644   9.862 -0.0726  0.1254 -0.1630
68039W        W43027  10.919   6.050  25.864 -0.2940  0.2164  0.1079
68040W        W43028  30.631   2.892  13.244 -0.0064 -0.1605  0.1671
68041W        W43029  30.998  18.584  23.583 -0.0053 -0.1548 -0.2538
68042W        W43030  26.216  23.599  20.891  0.1719  0.1283 -0.3124
68043W        W43031   7.258  15.412  21.759  0.0706 -0.2974 -0.2083
68044W        W43032   4.123  16.574  19.429 -0.0643  0.0458  0.2289
68045W        W43033  10.507  21.571  10.966  0.3921 -0.1025 -0.0506
68046W        W43034   2.093   3.468  25.546 -0.0820 -0.0165  0.2589
68047W        W43035   2.963  15.909   3.147  0.2988 -0.3089  0.0166
68048W        W43036  10.982   9.543   8.269 -0.0799  0.2565  0.0379
68049W        W43037   5.745  30.527  24.812  0.1423  0.0730  0.0057
68050W        W43038   7.494  16.847   7.769  0.1196 -0.2957 -0.0989
68051W        W43039  33.980  31.282  19.077 -0.0800 -0.3082 -0.1369
68052W        W43040  16.838   8.004  25.052  0.1211  0.2288  0.2323
68053W        W43041  13.346  29.518  12.081 -0.2023 -0.0197  0.3699
68054W        W43042  18.065   5.676  20.215  0.1344  0.0729 -0.2203
68055W        W43043   0.643  14.611  16.376 -0.0558 -0.1993  0.0313
68056W        W43044  12.827  32.020  13.047  0.1630 -0.1501 -0.3820
68057W        W43045  24.035   5.834  13.863 -0.0562  0.3199 -0.0215
68058W        W43046  24.946  32.137  17.465 -0.1682  0.0307 -0.2014
68059W        W43047  17.732  12.635  19.532  0.0736 -0.1696  0.1504
68060W        W43048  29.592  11.123  23.053 -0.2647  0.1877 -0.1862
68061W        W43049   7.967  23.481   2.930 -0.2630 -0.0235 -0.1602
68062W        W43050  13.780   7.348  13.416  0.3382  0.2310  0.0675
68063W        W43051  12.813   0.453   4.315  0.1971 -0.1147  0.0339
68064W        W43052  14.628   0.862   1.481  0.1108  0.1089  0.0872
68065W        W43053  17.424  13.937  21.985 -0.1082  0.0621  0.1137
68066W        W43054  26.840   3.022  25.559  0.1434 -0.0556 -0.1251
68067W        W43055  23.790  23.674  16.496  0.0773  0.0237 -0.0622
68068W        W43056  26.214   3.344  13.430 -0.0375  0.2489 -0.0873
68069W        W43057  27.796  28.596   4.769 -0.0689 -0.1677  0.0758
68070W        W43058   2.565   0.510  10.283  0.0777 -0.3482 -0.0571
68071W        W43059  12.250   8.932   3.596 -0.2356 -0.2506 -0.1346
68072W        W43060  12.052  24.456   8.904  0.0529  0.4246  0.1664
68073W        W43061  24.222   7.756  20.266  0.2219 -0.1379  0.3701
68074W        W43062  34.764   1.371   0.853  0.2898  0.1778 -0.0853
68075W        W43063  22.906   3.735   5.382  0.2240  0.0599 -0.1692
68076W        W43064  25.893  32.666  25.980  0.0078  0.0486 -0.1018
68077W        W43065   2.907  34.427  19.319 -0.0030 -0.1959  0.0482
68078W        W43066  31.367  35.349   1.939 -0.1418 -0.1467  0.0726
68079W        W43067  20.803  29.317  19.451  0.0091 -0.2026  0.3665
68080W        W43068   4.979  11.766  19.796 -0.2482 -0.0803 -0.0915
68081W        W43069  20.399  34.246  25.830 -0.2066 -0.2856  0.0857
68082W        W43070  27.560  20.099  23.440  0.0827  0.0669  0.0613
68083W        W43071  25.815  31.197  21.623 -0.0190  0.0854  0.4410
68084W        W43072  10.987  23.265  21.998  0.0585  0.0246 -0.0989
68085W        W43073  27.384  12.317  22.888  0.0568 -0.2738 -0.1707
68086W        W43074   5.282  32.262   5.613 -0.0533 -0.1635 -0.2701
68087W        W43075   9.107  10.219   8.683 -0.0956  0.1420  0.0277
68088W        W43076   0.784   4.369  13.820 -0.0242 -0.1576 -0.2930
68089W        W43077   7.969   1.740  21.028  0.1519  0.3580 -0.0464
68090W        W43078  22.045  34.021  22.382  0.1850 -0.1922  0.0589
68091W        W43079   2.869  30.489  23.204 -0.0627  0.3648 -0.2893
68092W        W43080   4.222  21.924   3.595  0.1694 -0.2505  0.1884
68093W        W43081  10.169   6.095  22.972 -0.2451 -0.0343 -0.1142
68094W        W43082   4.049   4.477  17.716  0.1317  0.3070  0.0124
68095W        W43083   9.085  22.546   1.502 -0.0143  0.1038  0.2325
68096W        W43084  27.558  28.161  25.385  0.0720 -0.1421  0.1484
68097W        W43085   7.272  19.550   2.832 -0.1936  0.3218 -0.2107
68098W        W43086  24.873  29.604  13.228  0.4559 -0.0645  0.0140
68099W        W43087  29.247   1.519  18.668 -0.0410  0.2562  0.0552
68100W        W43088  19.795   3.927  25.588 -0.1308  0.0819  0.1059
68101W        W43089  19.441  19.849   7.018  0.0578  0.1658 -0.4824
68102W        W43090  27.985   4.340  20.151 -0.0579 -0.0250 -0.1754
68103W        W43091  16.846  16.099   6.832 -0.0847  0.1104  0.3695
68104W        W43092  30.082   1.913  25.851  0.1672  0.1376 -0.2111
68105W        W43093  15.676  20.207   1.480  0.0269  0.1126 -0.0355
68106W        W43094   0.642   3.846  23.930 -0.3509  0.0343  0.1824
68107W        W43095  30.279   6.974  25.467  0.0605  0.0658 -0.0497
68108W        W43096  14.714  25.154   8.488  0.0876 -0.0935  0.1221
68109W        W43097   9.341  15.233  12.868 -0.1791 -0.2597  0.0038
68110W        W43098   3.703  20.461  24.813 -0.0161 -0.1990  0.1056
68111W        W43099   9.759   3.811   5.110  0.7468 -0.0747 -0.4763
68112W        W43100   5.366  24.241   3.426 -0.0421 -0.0412 -0.1257
68113W        W43101   8.464  23.113   2.833  0.1151 -0.0666 -0.2624
68114W        W43102  11.815  11.062  25.927 -0.3822 -0.0323 -0.2058
68115W        W43103  24.182  28.556  23.239  0.2614  0.1959  0.2956
68116W        W43104   4.876   2.021   4.663  0.0092  0.1551  0.0948
68117W        W43105   9.480  32.664  11.856  0.1982  0.0218  0.3022
68118W        W43106  32.320  32.622  19.266 -0.1449  0.3129  0.1860
68119W        W43107   6.794  10.380   5.365 -0.3060  0.2758  0.1629
68120W        W43108  16.102   9.051  20.911 -0.1234  0.0985  0.1125
68121W        W43109  21.788  14.982  24.573  0.1004 -0.1318 -0.2233
68122W        W43110  14.576   4.555  12.540 -0.0224 -0.0448 -0.0553
68123W        W43111   1.546  23.600  23.668 -0.1331  0.1231 -0.1350
68124W        W43112   5.929   8.719  24.584  0.0317 -0.0791 -0.1710
68125W        W43113  11.005   3.094  19.357  0.0682 -0.1672 -0.1804
68126W        W43114  28.063  25.827  12.021  0.1747  0.0526  0.1027
68127W        W43115  11.501  27.945   7.743  0.0886  0.0685  0.0272
68128W        W43116   3.967   5.515   7.691 -0.3042 -0.1549 -0.3655
68129W        W43117   6.350  16.441  19.172  0.0823 -0.1769 -0.1457
68130W        W43118   0.508  26.416  21.673 -0.0188 -0.4989  0.1322
68131W        W43119  10.703  27.676   2.790 -0.2660 -0.1356  0.0480
68132W        W43120  29.965  14.098  16.700  0.0305 -0.2174 -0.0077
68133W        W43121  28.217  26.394  10.318  0.0669 -0.0966 -0.0582
68134W        W43122  15.820  22.358   7.015 -0.1187 -0.0976 -0.1650
68135W        W43123   2.854  33.481   3.542  0.1700  0.0370 -0.0449
68136W        W43124  21.982   2.918   5.793  0.2756 -0.0193 -0.1090
68137W        W43125  18.094  14.496  18.245 -0.2848  0.4834  0.1841
68138W        W43126  14.798  21.453  23.205  0.3190  0.0898 -0.3493
68139W        W43127  33.093  14.176  23.005 -0.1093  0.0329  0.0533
68140W        W43128  15.053  16.316  11.502 -0.2102  0.1661  0.2122
68141W        W43129  25.671   1.040  20.052  0.1148  0.1060 -0.0386
68142W        W43130  34.352   8.710  20.350 -0.1029 -0.1553  0.1856
68143W        W43131   7.233  16.601  25.788  0.0233  0.1088  0.0362
68144W        W43132  30.504   1.411  22.812 -0.1733 -0.1688 -0.3570
68145W        W43133  26.323  14.165  20.971 -0.5320 -0.4503 -0.0215
68146W        W43134  11.961  14.793  21.600  0.0607  0.1828 -0.0176
68147W        W43135  16.808  12.421  20.132  0.1942  0.0997  0.0642
68148W        W43136  27.936  13.688   7.252  0.0952 -0.1645 -0.0550
68149W        W43137  32.270  31.874  15.526 -0.2062 -0.1112  0.1267
68150W        W43138  24.994  12.106  10.446 -0.0447 -0.0057  0.0762
68151W        W43139  25.916  20.789  18.945 -0.3423 -0.1659  0.0608
68152W        W43140   9.576  23.939   5.339  0.0981  0.2738  0.0114
68153W        W43141   4.051   7.681  23.031  0.1572 -0.1889  0.1726
68154W        W43142  34.231  16.590  14.713 -0.2158 -0.3536 -0.2693
68155W        W43143  33.779   8.562  24.972  0.3654 -0.0803 -0.1969
68156W        W43144  31.920  16.240  10.946 -0.2044  0.0146 -0.0252
68157W        W43145  26.076  14.972   8.004 -0.2587  0.0248  0.2818
68158W        W43146  28.799  30.055   3.349  0.0156 -0.0790 -0.0353
68159W        W43147   4.335  21.435   2.434 -0.2397 -0.1406 -0.0965
68160W        W43148  28.853  23.690   5.917  0.0988 -0.2325  0.3416
68161W        W43149  13.615   2.651  22.281 -0.1708 -0.3307  0.0160
68162W        W43150   7.096  26.457   8.473 -0.0308 -0.0010  0.0454
68163W        W43151   8.120  25.069   8.916 -0.4727  0.0891  0.0489
68164W        W43152  30.641   5.365  23.811  0.3383 -0.0220 -0.2117
68165W        W43153  10.112  12.265  13.887 -0.3625  0.0349 -0.2338
68166W        W43154  27.192   4.677  20.410  0.0423 -0.0406  0.0342
68167W        W43155  12.277  12.720  11.852 -0.1817 -0.1485 -0.1613
68168W        W43156  34.360  30.948  20.698 -0.1307 -0.0330  0.1823
68169W        W43157  26.017   1.163  20.508  0.2691 -0.0841 -0.2623
68170W        W43158   7.378   3.068   5.634 -0.2635  0.0318 -0.1199
68171W        W43159  13.414   6.990   2.743  0.1873 -0.0294  0.2247
68172W        W43160  17.028  27.346  20.453 -0.1591  0.1314  0.0524
68173W        W43161  20.152  15.873  22.322  0.1415 -0.1430  0.4856
68174W        W43162   8.718  32.813  23.998  0.0658  0.3235  0.0345
68175W        W43163  19.893   7.551  17.836  0.0342 -0.2870 -0.1818
68176W        W43164  10.635  11.346  25.654  0.2382 -0.1213 -0.1025
68177W        W43165  25.876   7.153  25.140 -0.1312  0.2277 -0.2714
68178W        W43166  18.930   7.750   9.712 -0.0401  0.3209  0.2268
68179W        W43167  20.460   0.457   9.284  0.1544  0.2466  0.0459
68180W        W43168  23.742   3.287   5.413  0.1801 -0.2255  0.2148
68181W        W43169  18.218   3.834   6.393  0.2443  0.2156  0.0445
68182W        W43170  28.287  35.038  24.956 -0.1035 -0.0668  0.0739
68183W        W43171   7.773  31.172  20.821  0.0169  0.0421 -0.0539
68184W        W43172  23.168  27.518   3.408 -0.1720 -0.0756  0.0010
68185W        W43173  35.035  23.347  24.272  0.1542 -0.1564  0.1520
68186W        W43174   8.382  34.448  14.378 -0.0789  0.0315  0.1445
68187W        W43175  21.587  24.933  15.735 -0.1931  0.2931  0.3073
68188W        W43176  34.311  15.952  25.338  0.3278  0.3607 -0.6358
68189W        W43177  13.110  21.970   3.025 -0.1492  0.2166  0.0354
68190W        W43178  34.454  27.634  18.293 -0.2150 -0.4155 -0.2493
68191W        W43179  26.724  12.892  24.466  0.0677  0.0451 -0.0670
68192W        W43180   2.250  15.049  19.118 -0.0886  0.2999  0.2360
68193W        W43181   0.938   4.003  15.092  0.1340  0.0368  0.1650
68194W        W43182  32.924  15.467  10.429 -0.0170 -0.3013 -0.0654
68195W        W43183  34.069  30.142   2.976  0.2091 -0.2273 -0.3376
68196W        W43184   0.009  20.512  17.869  0.0560 -0.0117 -0.0763
68197W        W43185  18.061  31.273  18.695  0.0551 -0.0730  0.1843
68198W        W43186  18.874   9.825  10.976  0.0111  0.0144 -0.0617
68199W        W43187   9.858  21.924   5.768  0.0920 -0.1368 -0.0278
68200W        W43188  16.462  27.070  13.644 -0.1944 -0.0153  0.3554
68201W        W43189  27.661   3.973  12.096 -0.0289 -0.1234  0.2171
68202W        W43190   3.364  32.035   5.757 -0.1002 -0.1230  0.0848
68203W        W43191  31.982  14.315  22.959 -0.0749 -0.0661  0.0632
68204W        W43192  32.602  34.852  18.958  0.1205  0.1526 -0.3547
68205W        W43193  12.797   9.710  21.858 -0.0831  0.0730 -0.0795
68206W        W43194  17.516  33.681   4.274  0.1083 -0.2016  0.1075
68207W        W43195  34.757   3.991   6.268 -0.2487  0.1415 -0.1278
68208W        W43196  10.586   0.753  14.267 -0.1850  0.1774  0.3543
68209W        W43197   9.831  24.679   2.900 -0.1480  0.3254 -0.0725
68210W        W43198   7.072   4.577  18.498  0.0389 -0.3599  0.5223
68211W        W43199   7.269   4.860  25.440  0.2731  0.1531 -0.1361
68212W        W43200   2.751  34.785   0.933  0.1765 -0.1552  0.2609
68213W        W43201  20.013  30.745   5.064  0.1002  0.1354  0.0589
68214W        W43202  12.397   9.810  21.279  0.0109 -0.0230 -0.0426
68215W        W43203  17.606  14.980   7.816 -0.0330 -0.1023 -0.1037
68216W        W43204   1.299  28.389  24.816  0.1068 -0.1568 -0.1730
68217W        W43205   7.319  14.474   0.919 -0.1737  0.1615  0.5552
68218W        W43206  27.690   8.022   8.852 -0.2737  0.3526 -0.3608
68219W        W43207  30.700  33.568   5.867  0.0856  0.1904 -0.1069
68220W        W43208  33.128  31.337  19.392 -0.0854  0.0015  0.2932
68221W        W43209   7.890  22.444   5.952  0.3077 -0.2703  0.1179
68222W        W43210   8.875  31.415  10.539  0.0157  0.1357  0.2664
68223W        W43211  32.457   9.469  16.014  0.0089  0.0244  0.1848
68224W        W43212  19.799  30.019  17.137  0.0568  0.0480 -0.2034
68225W        W43213   0.979   8.082   5.569  0.2247  0.1900  0.1068
68226W        W43214  29.825   6.721   0.955 -0.0129  0.2071  0.3703
68227W        W43215  33.102  24.116  22.293 -0.0447  0.2614  0.2519
68228W        W43216  25.875  18.905   9.154  0.2445  0.0235  0.2403
68229W        W43217  22.703  30.599   4.373  0.1170  0.2575  0.0417
68230W        W43218  22.978  34.426   0.135  0.0611 -0.1210 -0.2311
68231W        W43219  14.201  33.736   1.476 -0.1901  0.0416 -0.3324
68232W        W43220  23.608  19.587  17.680 -0.2218 -0.1314  0.0392
68233W        W43221  29.283  20.900  13.137 -0.0902  0.0762  0.4416
68234W        W43222   4.302   0.724   7.246 -0.1762  0.0755 -0.1229
68235W        W43223  14.647  27.763   7.904  0.0478 -0.1176 -0.1997
68236W        W43224  14.190  15.567   1.310  0.0626  0.1785  0.0525
68237W        W43225  32.573  34.086  17.788  0.0159  0.0889  0.0649
68238W        W43226  11.642  22.994   2.789  0.2396  0.0407  0.0943
68239W        W43227   0.125   4.623   2.506 -0.0690 -0.1886 -0.2435
68240W        W43228  30.198  30.472  14.035 -0.1023  0.3490 -0.0653
68241W        W43229  10.362   0.777   0.233 -0.1225 -0.0565  0.0793
68242W        W43230   7.432   6.325  18.632  0.1039 -0.0227 -0.1187
68243W        W43231  14.764   7.224   6.422 -0.1496 -0.0954  0.1880
68244W        W43232  12.361  30.196  21.312  0.2305 -0.1072 -0.0119
68245W        W43233  13.949   3.725   1.840  0.0335  0.0567 -0.4406
68246W        W43234  21.112   7.815   7.757 -0.0790  0.0640 -0.0877
68247W        W43235   6.096  22.705  21.202  0.0866  0.0752  0.2992
68248W        W43236  31.649  11.035  16.618 -0.0412  0.0331  0.0804
68249W        W43237  14.882   8.993  22.690  0.1233 -0.0317 -0.0413
68250W        W43238  14.028  27.251  16.778  0.0946  0.0972  0.2568
68251W        W43239  33.230  28.693  18.188 -0.1729  0.0024 -0.2737
68252W        W43240  17.890  20.365  22.810 -0.0713  0.0763 -0.0062
68253W        W43241  17.324  21.644   4.806 -0.0015  0.1700 -0.1342
68254W        W43242  12.847   0.196   1.445 -0.1618 -0.4403  0.0653
68255W        W43243  10.079  24.042   6.003  0.4327  0.5602  0.4196
68256W        W43244  28.031  15.309  22.906  0.0054  0.0713  0.0422
68257W        W43245   1.355   7.746  17.633  0.1926  0.3654 -0.1528
68258W        W43246  13.299  30.304  22.314  0.2440  0.0574  0.0981
68259W        W43247   8.481  19.285   7.134  0.0913  0.1207 -0.1085
68260W        W43248  16.266  27.294   9.361  0.0461  0.1276  0.1867
68261W        W43249   7.639  23.635  21.835  0.0678 -0.1571 -0.0328
68262W        W43250   0.970   0.981  18.350  0.1594 -0.3095 -0.2202
68263W        W43251   3.055  18.106   1.385  0.0324 -0.1956  0.0350
68264W        W43252   7.357  29.318   6.844 -0.2772  0.0706 -0.2767
68265W        W43253  20.618  25.434  19.324  0.1868 -0.1968 -0.1019
68266W        W43254   3.514  29.661  19.681 -0.0002 -0.1447 -0.0089
68267W        W43255  27.608  21.883  21.506  0.5248 -0.5507 -0.1583
68268W        W43256   3.158  22.901   3.925 -0.2274 -0.1850 -0.1768
68269W        W43257   8.093  31.560  20.910 -0.2789  0.2774 -0.2084
68270W        W43258  21.212  31.465  15.334 -0.3326  0.0279  0.0734
68271W        W43259  16.061  16.447  24.803  0.1771 -0.0144  0.1189
68272W        W43260   4.343   6.834  19.840  0.0635 -0.0389  0.2341
68273W        W43261  24.444  24.787  11.207  0.2184 -0.2118  0.0811
68274W        W43262  28.931   7.858   8.977 -0.1928 -0.3225 -0.1808
68275W        W43263  32.013  16.612   0.148  0.2767 -0.1145 -0.0394
68276W        W43264  20.869  33.554  15.631  0.3716 -0.0911  0.2204
68277W        W43265   1.947  20.606  16.181  0.5113  0.0918  0.1401
68278W        W43266  31.298   0.315  14.719 -0.2458 -0.3352 -0.0363
68279W        W43267  35.239   7.569  11.754  0.0089  0.1785  0.0969
68280W        W43268  12.557  29.533  24.502  0.2103  0.0534 -0.0489
68281W        W43269   3.108   9.844  25.097  0.0080 -0.3213 -0.0861
68282W        W43270  16.683   6.755  11.088 -0.0816  0.0122  0.2174
68283W        W43271  29.534  12.785  24.847  0.1421 -0.1874  0.1847
68284W        W43272  13.766  11.027  21.841 -0.2739  0.1710  0.1571
68285W        W43273  13.101  21.033   2.809  0.3117 -0.0356  0.0684
68286W        W43274  27.748  19.792  10.418 -0.0896 -0.0734  0.1709
68287W        W43275  16.608  17.957   8.629  0.0004  0.0527  0.0359
68288W        W43276   3.279  32.751  20.126 -0.1546 -0.0836  0.0615
68289W        W43277   0.265  22.289  21.224  0.1837  0.1292  0.1310
68290W        W43278  16.759   8.240   1.148  0.1037 -0.1991  0.2764
68291W        W43279   4.469   5.551  21.718 -0.3603 -0.1436  0.0216
68292W        W43280  12.206  28.460  11.772 -0.0296 -0.1105 -0.2908
68293W        W43281   9.216  26.091  14.000  0.3177  0.0616 -0.3319
68294W        W43282  15.864  30.858  24.918  0.1373  0.0395 -0.2064
68295W        W43283   8.363   7.927   8.026  0.0763 -0.0767  0.0635
68296W        W43284  12.116  23.955  17.057 -0.1308 -0.3760 -0.1682
68297W        W43285  15.325  19.299  11.981 -0.1923  0.0133  0.1498
68298W        W43286   2.347  13.326  14.088 -0.0758  0.1677  0.1931
68299W        W43287  29.565  20.973  12.532 -0.2367 -0.1146  0.1761
68300W        W43288  24.829   0.990   4.400 -0.1694 -0.0661 -0.1702
68301W        W43289   9.722  25.910  23.291  0.0344  0.0325 -0.2050
68302W        W43290  11.503  32.495  22.282 -0.0921 -0.0462 -0.2715
68303W        W43291   9.881   5.511   7.214  0.2543 -0.0649 -0.0952
68304W        W43292   0.870   9.121   2.321  0.3007  0.2240 -0.1468
68305W        W43293  20.805  29.765   3.004  0.0531 -0.2768  0.2469
68306W        W43294  14.155   5.841   8.038 -0.1197 -0.3536  0.0851
68307W        W43295   3.060  10.257  15.459 -0.0251 -0.0052  0.0035
68308W        W43296  32.654   2.873  25.404 -0.2769  0.1088  0.0223
68309W        W43297   2.741  18.359  14.202  0.0519 -0.3038  0.1854
68310W        W43298  15.945  28.828  10.989 -0.3752 -0.1046 -0.1254
68311W        W43299  13.813  19.213  10.624  0.0922 -0.0258  0.0631
68312W        W43300  16.581   7.072  23.859 -0.1719 -0.1108 -0.2642
68313W        W43301  28.898   9.054  23.789  0.0571 -0.3389 -0.1241
68314W        W43302  11.968  33.264   4.159  0.2915 -0.1805 -0.1891
68315W        W43303  23.653  31.032   0.225  0.0418  0.4252 -0.3973
68316W        W43304  15.810  24.652  15.234 -0.0036  0.0039 -0.2928
68317W        W43305  16.524  27.355  25.088 -0.0043 -0.1152 -0.0703
68318W        W43306  20.970   0.388  17.863  0.0398 -0.2322  0.0424
68319W        W43307  28.104  19.290  24.387 -0.1273  0.1960  0.3134
68320W        W43308  14.775  24.452  25.712 -0.0467  0.1173  0.1283
68321W        W43309  19.100  28.917  20.778  0.0570 -0.2281 -0.0261
68322W        W43310   7.992   2.775   3.167  0.0764 -0.3531  0.0300
68323W        W43311  16.301  34.527  23.148  0.1391  0.1475 -0.1798
68324W        W43312   2.719  26.447   3.126  0.3038 -0.0627  0.2319
68325W        W43313  21.075   2.004   2.832 -0.3751 -0.2550  0.1560
68326W        W43314   7.611  26.530   1.779  0.2132  0.0266 -0.1595
68327W        W43315  33.848  28.807  23.207  0.1885 -0.2153  0.0320
68328W        W43316   7.311  17.120   0.295  0.0919  0.0162  0.1056
68329W        W43317   5.701  16.025  20.880  0.0324 -0.0144 -0.1709
68330W        W43318  26.850  16.784  14.525  0.3577 -0.3348 -0.2103
68331W        W43319   8.861  32.017  12.638  0.2753  0.0424 -0.0286
68332W        W43320  22.346  12.279  21.527  0.0057 -0.0630  0.1583
68333W        W43321  33.128   0.433  24.461  0.1682  0.0062 -0.4631
68334W        W43322  26.025  12.646  25.184  0.2473  0.1263 -0.0715
68335W        W43323  12.583  31.536  25.322 -0.0412  0.1450  0.2308
68336W        W43324  14.518  35.236   8.314  0.0700  0.0124  0.0028
68337W        W43325  26.642   2.296  11.197 -0.1794 -0.1922 -0.2158
68338W        W43326  13.460   0.872  25.184 -0.1029  0.2937  0.0035
68339W        W43327   5.505  31.001   0.826 -0.2144 -0.0200  0.1385
68340W        W43328  17.951   2.759  16.256 -0.0850 -0.1341 -0.1295
68341W        W43329  29.768  31.930  23.599 -0.2229 -0.2371 -0.0948
68342W        W43330  30.561  23.476  13.972 -0.0105 -0.1474  0.1210
68343W        W43331   5.309  20.449  20.840 -0.0308 -0.1354  0.0059
68344W        W43332   6.187  24.221  23.065  0.1077  0.3086  0.0289
68345W        W43333  13.957  17.027  10.863  0.1389 -0.1655  0.0323
68346W        W43334  12.678  26.185   1.608  0.4091  0.2045 -0.3560
68347W        W43335  24.101  35.196  23.790  0.0157  0.1939 -0.0829
68348W        W43336  11.568  21.192  23.376 -0.1159  0.0011  0.1288
68349W        W43337  29.551   2.132   5.062 -0.1288 -0.2787  0.0045
68350W        W43338  11.365   3.567   2.852 -0.2036  0.0258 -0.1608
68351W        W43339  14.573   1.553  12.114  0.3564  0.0616 -0.1165
68352W        W43340  26.882  23.220  18.533 -0.0331 -0.0751  0.3948
68353W        W43341  29.811   3.267   2.071  0.1018  0.2270  0.2395
68354W        W43342   9.513   3.804   6.180 -0.0255  0.0879  0.1169
68355W        W43343  27.666  13.246  25.436  0.3323 -0.2144  0.0119
68356W        W43344  18.256   9.310   4.414 -0.0239 -0.0213 -0.1820
68357W        W43345  25.532  10.182   2.793 -0.0530 -0.3011 -0.1020
68358W        W43346  22.294   5.587  24.313  0.0269  0.2768 -0.2250
68359W        W43347  18.762  20.626  10.716 -0.3173 -0.2814 -0.0779
68360W        W43348  27.352  29.232   4.209 -0.2335 -0.2697 -0.3263
68361W        W43349  30.204   6.401  18.802 -0.2066 -0.1462 -0.2004
68362W        W43350  23.114   7.087  17.037 -0.0428 -0.3132  0.1697
68363W        W43351  22.491  22.509  25.471 -0.3502  0.0081 -0.2002
68364W        W43352   8.164  33.061   8.324 -0.0134 -0.0284  0.0395
68365W        W43353  29.710  30.873  20.986  0.1327 -0.2331 -0.2444
68366W        W43354  35.282   2.142   4.132 -0.1693 -0.0591  0.2360
68367W        W43355  18.818   7.911   8.488 -0.3060  0.0765  0.0092
68368W        W43356  13.717   7.439  23.078 -0.0924 -0.0698 -0.0888
68369W        W43357  13.619   6.265  21.548 -0.1442  0.1961 -0.0010
68370W        W43358  28.510   2.353  12.995  0.1561  0.0736  0.2634
68371W        W43359  19.604  17.057   2.355  0.0138 -0.0564 -0.1408
68372W        W43360   2.030  19.910  11.902  0.1986 -0.0066 -0.0371
68373W        W43361  14.984  15.499  21.847 -0.0782 -0.1128  0.1318
68374W        W43362  23.004   4.069  21.686  0.2822  0.0678 -0.2045
68375W        W43363  15.846  14.276   8.998  0.0016  0.0773  0.2343
68376W        W43364  14.458   5.860  18.487  0.3790  0.0109  0.1428
68377W        W43365  18.681  22.661  20.826 -0.0317 -0.0216 -0.1469
68378W        W43366  29.730  24.850   8.274 -0.1026 -0.1382 -0.1651
68379W        W43367  15.010   8.676  13.648  0.0727  0.4369  0.1556
68380W        W43368   5.525  10.551   2.796  0.2158  0.0418  0.1679
68381W        W43369  31.719  12.067  11.763 -0.2031 -0.1485 -0.1679
68382W        W43370  30.435  26.069  10.834 -0.2474 -0.2961  0.1125
68383W        W43371   1.291  27.880   3.468  0.1575  0.0479 -0.0012
68384W        W43372   9.608  30.069   1.817  0.1914  0.0928  0.0165
68385W        W43373   7.446  11.427  10.456  0.1105  0.0735 -0.1867
68386W        W43374  21.820  33.972   4.295 -0.3176  0.3448  0.1329
68387W        W43375  27.232  11.859   8.964  0.0484  0.0839  0.0060
68388W        W43376  21.935   0.005   5.589 -0.1287  0.0617  0.2208
68389W        W43377  31.590  34.793  13.790  0.2607  0.2123  0.1133
68390W        W43378   4.817  20.178  20.221 -0.2718  0.0918 -0.1208
68391W        W43379  16.771   4.056  21.488 -0.1681  0.1258 -0.1516
68392W        W43380  32.798  31.295  24.796 -0.3382  0.0949  0.1176
68393W        W43381  14.612  17.951  12.737 -0.0432 -0.0738  0.0542
68394W        W43382  22.896   9.296  16.380 -0.0362  0.0743 -0.0093
68395W        W43383  29.966   9.998   8.607 -0.1243  0.1722 -0.0604
68396W        W43384   3.805  20.501  20.264 -0.0194  0.1383  0.0951
68397W        W43385   8.145  11.184   6.076 -0.0460  0.0348 -0.0472
68398W        W43386  11.134  14.845   9.981 -0.2405 -0.2109  0.1259
68399W        W43387  28.144   5.911  20.893  0.3216 -0.2498  0.0717
68400W        W43388  10.970  24.806  25.590  0.2174 -0.0667  0.3066
68401W        W43389   9.015  28.909  15.574 -0.0013 -0.0856  0.3821
68402W        W43390   0.541  22.461  17.828  0.1595  0.1979 -0.3463
68403W        W43391  25.607  18.533  13.371  0.1197  0.2593  0.1374
68404W        W43392  25.130  23.712  13.488 -0.0144 -0.1191 -0.0635
68405W        W43393  11.576  13.549  10.788  0.2947  0.0275  0.0281
68406W        W43394  31.278  16.494  14.432  0.0438 -0.0021  0.1586
68407W        W43395  27.430  31.542  18.227  0.3778 -0.0209 -0.0660
68408W        W43396  22.744   2.199  22.398 -0.1448 -0.1029 -0.0607
68409W        W43397  20.744  13.027   7.210  0.2672  0.4255 -0.0599
68410W        W43398  27.744  25.627  17.153  0.0369 -0.1512 -0.1770
68411W        W43399  19.121  10.283   4.602 -0.2376 -0.1537 -0.0753
68412W        W43400  12.567  10.686  20.716 -0.1987  0.2048 -0.0997
68413W        W43401  22.337   0.118  14.139 -0.0002 -0.1961  0.1897
68414W        W43402  30.741   5.080  19.184  0.1348 -0.0685  0.3954
68415W        W43403  14.251  24.528   9.631 -0.0108 -0.0298  0.4205
68416W        W43404  18.765  30.202  20.924  0.1192  0.0562  0.0805
68417W        W43405  24.055  33.040  12.920  0.1658  0.1192  0.1198
68418W        W43406   2.838  11.341  16.200 -0.2596  0.1389  0.1667
68419W        W43407  17.409  19.141  23.103 -0.0872  0.3909  0.1666
68420W        W43408   6.798  13.342  18.148 -0.0602 -0.1323  0.1115
68421W        W43409  11.598   0.424  11.920 -0.0101  0.1053 -0.1306
68422W        W43410  20.596   1.533  18.342 -0.2676 -0.4123 -0.0759
68423W        W43411  13.157  21.215   3.300 -0.0638 -0.0423  0.1619
68424W        W43412  20.645  13.347   1.542 -0.0755  0.2015 -0.0529
68425W        W43413  17.367  35.294   5.127  0.0488  0.4203  0.0820
68426W        W43414  20.594  11.906   2.839 -0.5170 -0.0052  0.3453
68427W        W43415   7.431  18.837   9.036 -0.0517  0.0436 -0.1097
68428W        W43416  14.321  34.134   7.014 -0.1305  0.1329  0.0199
68429W        W43417  34.518   6.497  22.604  0.5057  0.1242  0.2245
68430W        W43418  15.130  16.510   3.170 -0.0410 -0.3738  0.1133
68431W        W43419   0.640   5.561  25.278  0.0931 -0.0683 -0.1088
68432W        W43420   2.497   2.650   8.421  0.2100 -0.0967  0.1662
68433W        W43421   0.528  10.368  20.747 -0.6249  0.3332 -0.0951
68434W        W43422  17.950  15.643   9.202  0.1989 -0.1853 -0.1013
68435W        W43423  35.341   7.053   0.547  0.0006  0.1857 -0.0103
68436W        W43424   6.821  29.021  24.916  0.1235 -0.0084 -0.2878
68437W        W43425  24.902  17.732  16.473 -0.1148  0.1832 -0.1833
68438W        W43426  11.387   7.482  13.219  0.3498 -0.1671 -0.0299
68439W        W43427   2.696  17.302  24.811 -0.1620 -0.2977 -0.3453
68440W        W43428  14.083  30.045   2.361  0.1229  0.0442  0.0406
68441W        W43429   7.612  15.440  24.152  0.2213  0.3164 -0.0493
68442W        W43430   9.461  33.801  15.511  0.3452 -0.1660 -0.0400
68443W        W43431   6.748  27.541   5.298  0.0227  0.1523 -0.1127
68444W        W43432   6.568  28.578   1.139  0.1797  0.0471  0.0923
68445W        W43433  16.758   8.265   8.874 -0.0048 -0.0481  0.1485
68446W        W43434  30.360   0.026   0.415 -0.1653 -0.0873 -0.0563
68447W        W43435   4.202  33.440  24.332 -0.1385  0.0991  0.1974
68448W        W43436  35.027  20.012  11.419 -0.1236  0.0808  0.1291
68449W        W43437  27.060  18.468  25.422  0.0035 -0.1020  0.0011
68450W        W43438  10.864  17.754  13.848  0.2137  0.1776  0.1110
68451W        W43439  15.199  30.975   2.219  0.3691 -0.0945 -0.0678
68452W        W43440  34.933   3.799   0.672 -0.2861 -0.2510  0.0248
68453W        W43441  29.968   5.928  13.693  0.0098  0.2188 -0.1405
68454W        W43442  19.522  13.768  21.679  0.1207 -0.0144 -0.1474
68455W        W43443   7.591   7.837   9.862 -0.2970  0.1041  0.4646
68456W        W43444   1.806  34.493  16.831 -0.2007  0.1098 -0.1039
68457W        W43445  17.756  11.961  18.443  0.0533  0.0080 -0.0011
68458W        W43446  22.940   8.249  16.380 -0.3799  0.0147 -0.0208
68459W        W43447  31.887  28.011   3.102  0.0065 -0.0165 -0.0936
68460W        W43448  33.808   1.292  19.830  0.2069 -0.1299 -0.0996
68461W        W43449  24.388   9.839  15.143  0.0464  0.1643 -0.3794
68462W        W43450  34.248  10.054   8.302 -0.0244  0.0692 -0.0209
68463W        W43451  28.377   0.994  12.411 -0.0162 -0.0952  0.4207
68464W        W43452  31.149  24.381  11.426 -0.0189 -0.2641  0.2124
68465W        W43453  20.479  23.689  25.623 -0.1006 -0.1477 -0.1302
68466W        W43454  13.524  29.907   7.406  0.1224 -0.0695 -0.0156
68467W        W43455  28.132  16.042  12.056 -0.0084 -0.0525  0.2865
68468W        W43456   0.807   2.003  18.105  0.2473  0.0983  0.1883
68469W        W43457   5.043  17.396  23.386 -0.1546 -0.2404  0.0524
68470W        W43458  16.875  20.833  23.436  0.2845 -0.2194 -0.0475
68471W        W43459  10.793   5.569   0.307  0.5833 -0.2606  0.1252
68472W        W43460   8.837   4.886   0.623  0.1694  0.0419  0.1971
68473W        W43461  13.031  25.888  16.890  0.0854 -0.1040  0.0477
68474W        W43462  30.535   4.487  16.396 -0.0602  0.1410  0.1298
68475W        W43463  23.668  35.185  22.387 -0.3791  0.1663 -0.1107
68476W        W43464  19.441  14.701   2.256  0.1633 -0.2064 -0.0386
68477W        W43465  19.500  11.711   2.388 -0.0549  0.0821  0.0823
68478W        W43466  14.726  24.084  21.787  0.1290  0.1457  0.2445
68479W        W43467  32.125  16.552  19.169 -0.0907 -0.1741 -0.0520
68480W        W43468   5.091  30.225   1.198  0.0287 -0.5324  0.2607
68481W        W43469   7.546  26.190  11.740  0.0248 -0.2922 -0.0977
68482W        W43470  24.289  11.898  12.184 -0.0960 -0.0600 -0.0105
68483W        W43471   8.252  22.392   1.761  0.0371  0.0175  0.0179
68484W        W43472  12.298   0.432  23.127  0.0466 -0.0139  0.1639
68485W        W43473  34.930  34.431  22.309  0.1491 -0.1652 -0.1862
68486W        W43474  10.108  16.255   2.208  0.1433 -0.0072 -0.2803
68487W        W43475  17.946  24.303  23.306  0.0601  0.0267 -0.1873
68488W        W43476  23.665  22.828  19.795  0.1367 -0.0636 -0.1021
68489W        W43477  16.443  26.779  23.966  0.1498  0.1056  0.0114
68490W        W43478  33.450  22.308  11.755  0.1600 -0.1108 -0.1619
68491W        W43479  32.751  10.524  12.479 -0.1358  0.0636 -0.0885
68492W        W43480  20.960  10.657   2.769  0.2077  0.0780  0.0794
68493W        W43481  14.340  13.335   6.668  0.2629 -0.2788 -0.1306
68494W        W43482   5.722   6.289  21.308  0.2047 -0.1646  0.3004
68495W        W43483   0.739  12.887  19.361 -0.0441  0.0790  0.1508
68496W        W43484  18.133  17.395  19.777 -0.0409  0.2049  0.0796
68497W        W43485  34.649   3.533   0.338 -0.1282 -0.4461 -0.2325
68498W        W43486   1.508  34.672   9.026  0.0953 -0.0337  0.0269
68499W        W43487  23.673   6.471  20.973  0.0367  0.0247 -0.1275
68500W        W43488  26.386  25.602  15.770  0.0730 -0.2287  0.0211
68501W        W43489  18.603  35.153  20.604  0.0778 -0.1862 -0.2057
68502W        W43490   7.842   8.770   2.703 -0.1090 -0.1063  0.0019
68503W        W43491  12.407  12.309  10.792  0.2847  0.2886  0.0881
68504W        W43492   4.849  26.046   1.400  0.0726 -0.1894  0.2650
68505W        W43493   3.060  20.788   0.002 -0.1257  0.2956 -0.1256
68506W        W43494  25.801  27.942  15.987 -0.0761  0.0547 -0.0903
68507W        W43495  18.765   6.889  10.182 -0.2649 -0.1487 -0.1781
68508W        W43496  31.794  23.783  23.414 -0.0677  0.0308 -0.1723
68509W        W43497  26.228  19.609  11.566 -0.1948  0.0963 -0.1681
68510W        W43498  22.296  29.777   5.629 -0.0966 -0.2717 -0.1796
68511W        W43499  29.035   3.196  18.324 -0.1608 -0.0757 -0.1520
68512W        W43500  31.339   0.637  20.402  0.0068  0.0021 -0.3594
68513W        W43501  34.270  16.417   9.181  0.0370 -0.0284 -0.1700
68514W        W43502   7.696   8.226  19.697 -0.0928  0.1925  0.2339
68515W        W43503  16.959  21.384   4.964  0.0990  0.0158  0.2059
68516W        W43504  12.805  14.519  26.045 -0.0992  0.2105 -0.0098
68517W        W43505  23.721  30.161  23.254 -0.2435 -0.2144  0.1193
68518W        W43506  28.373   1.953   2.468  0.1870  0.1278  0.0779
68519W        W43507   3.648  27.798   1.813  0.2201 -0.3905  0.2231
68520W        W43508  27.190  21.385  18.271  0.0587 -0.0189  0.0779
68521W        W43509  34.542   0.799  18.036  0.1808  0.0318  0.1388
68522W        W43510   0.651  33.380  24.785  0.0543  0.1235  0.0354
68523W        W43511  28.802   2.708  13.224 -0.0015  0.0159  0.0832
68524W        W43512  16.555   0.486  23.130 -0.2903 -0.0603 -0.1316
68525W        W43513  16.292  27.400  21.238 -0.0363  0.3530  0.0130
68526W        W43514  16.606  33.504   4.873 -0.0953  0.1079 -0.3051
68527W        W43515  25.178  33.074   3.662  0.0467  0.1701 -0.0654
68528W        W43516  19.472  29.339  19.395 -0.1749  0.0755  0.2049
68529W        W43517  31.656  22.444  25.798 -0.6022  0.1637  0.0157
68530W        W43518  17.511  14.338  11.686 -0.2080 -0.4890  0.1163
68531W        W43519  13.381   6.768  23.749 -0.1330  0.0463  0.0144
68532W        W43520  31.656   8.531  14.627  0.1187  0.1187 -0.0576
68533W        W43521  27.347  23.488   9.086 -0.0790 -0.3828  0.2904
68534W        W43522   8.985   2.863  22.074  0.0202 -0.5200  0.1508
68535W        W43523   1.307  16.297  12.388 -0.1784 -0.0802 -0.2267
68536W        W43524  30.696  33.082  21.200  0.1480 -0.1680 -0.1071
68537W        W43525  17.746   2.771  21.697  0.0008  0.1542 -0.1284
68538W        W43526  22.724  10.216  24.632  0.2748  0.1229  0.1703
68539W        W43527  31.304  29.855   4.349  0.2327 -0.0627  0.2479
68540W        W43528   4.551  28.201   3.915  0.1608  0.3287  0.1789
68541W        W43529   2.201   9.966   4.154  0.0739  0.2613  0.3498
68542W        W43530  25.283  20.389  16.714  0.1088 -0.1143 -0.0674
68543W        W43531  26.175   3.572  16.987  0.1374 -0.2552  0.1571
68544W        W43532  11.775  33.210  10.952 -0.2514 -0.0638 -0.0223
68545W        W43533  30.214   7.997  19.064 -0.0621  0.3487  0.1713
68546W        W43534  33.251  12.051  25.720 -0.0813  0.0179 -0.1757
68547W        W43535   3.818  27.191  25.282  0.0023  0.0517  0.1987
68548W        W43536  27.295  25.389  16.731  0.2724  0.0243  0.2562
68549W        W43537   8.260  33.357   3.519  0.0076  0.1401 -0.0485
68550W        W43538  11.681  22.729   3.656 -0.0583  0.2247  0.1305
68551W        W43539  29.347   1.995  21.580  0.2844  0.3540 -0.1631
68552W        W43540  34.534  29.394  14.967  0.1421 -0.1130 -0.3969
68553W        W43541  23.284  15.032  26.219  0.1359  0.2101  0.2102
68554W        W43542  27.576  11.683  24.226 -0.0007  0.1703  0.3543
68555W        W43543  13.290  25.144  17.127 -0.0181  0.1311 -0.3321
68556W        W43544  34.739  17.752   1.128 -0.2158  0.1293 -0.1121
68557W        W43545  31.381   9.161   0.588  0.1520  0.0284 -0.1039
68558W        W43546   3.235  10.849  14.295  0.3302  0.0706  0.3275
68559W        W43547  18.430   4.041   3.753 -0.1998 -0.0242  0.2167
68560W        W43548  16.314  12.180  24.867  0.1543 -0.0724  0.1307
68561W        W43549   5.735   7.713   4.905 -0.1041 -0.0115 -0.1606
68562W        W43550  24.005  11.221  21.299  0.2295 -0.0704  0.0164
68563W        W43551  18.534   6.000  19.965  0.1358  0.1591  0.1961
68564W        W43552  19.500   8.068   2.629 -0.1342 -0.2994 -0.1962
68565W        W43553  19.043  23.292   3.840  0.0696  0.0233  0.0168
68566W        W43554  14.720   8.471   8.918  0.1650 -0.4775  0.1683
68567W        W43555  11.062  23.993   3.411 -0.0815 -0.0887  0.1603
68568W        W43556   0.672  14.884  23.441 -0.1099 -0.0249  0.0673
68569W        W43557  17.522  31.388  21.466 -0.2773 -0.0433  0.1668
68570W        W43558  24.690   2.488  20.640  0.0699  0.2282  0.1048
68571W        W43559  27.987  32.628  23.671  0.1052 -0.1579 -0.0256
68572W        W43560  19.235  24.818  19.789  0.1198  0.0677  0.0507
68573W        W43561  30.340   7.439   8.258  0.1032  0.0804  0.0626
68574W        W43562  12.967   9.180   0.287 -0.1907 -0.0202 -0.3813
68575W        W43563  12.208   6.915   0.788  0.0703 -0.1290  0.1733
68576W        W43564  10.647  30.346  24.990  0.0816 -0.0416 -0.2887
68577W        W43565   8.142  24.566   5.965 -0.1538  0.1336  0.0209
68578W        W43566  32.473   5.509  16.536 -0.0297  0.0669 -0.5203
68579W        W43567   9.135  14.556   3.372  0.0588  0.0293  0.2659
68580W        W43568  29.275  25.842  21.039 -0.3024  0.0564  0.2225
68581W        W43569   9.672  34.385   7.746  0.0938  0.0858 -0.4666
68582W        W43570  30.232  22.550  19.727 -0.0146 -0.3744  0.0145
68583W        W43571  30.929  14.334   8.021 -0.3494  0.2108  0.2098
68584W        W43572  18.877  30.425   9.320 -0.0140  0.0033 -0.3090
68585W        W43573  30.877  16.089  24.591 -0.1938  0.0002 -0.0821
68586W        W43574   4.243  23.064   5.679 -0.1627 -0.1313  0.0514
68587W        W43575   3.861   3.283  20.377 -0.0657  0.0904 -0.2176
68588W        W43576   7.747  13.490  21.571  0.1276 -0.3222 -0.1560
68589W        W43577  10.817   9.363   3.315  0.0681 -0.3399  0.0837
68590W        W43578  23.566  11.272   0.219 -0.1008 -0.1314 -0.0995
68591W        W43579   0.087  13.292  18.926 -0.0323  0.0439 -0.0460
68592W        W43580  11.886  12.372  26.221 -0.2125 -0.0255  0.0645
68593W        W43581   1.870  27.894   2.712 -0.0882  0.1728  0.0670
68594W        W43582  31.637  20.111  10.910 -0.0427 -0.0109 -0.1946
68595W        W43583  35.300  23.062  18.389 -0.1619  0.0603  0.0455
68596W        W43584  17.217   7.174  10.045  0.0096 -0.0567  0.1001
68597W        W43585  24.997  20.204  20.707 -0.2933 -0.2426 -0.0213
68598W        W43586  30.153  34.977   5.531  0.1288 -0.0878  0.2133
68599W        W43587  25.088   5.452  11.757 -0.0100 -0.1660 -0.2030
68600W        W43588  15.667   5.201   7.727  0.0329  0.1835 -0.2684
68601W        W43589  23.822   6.728  22.696  0.0601 -0.0865  0.0204
68602W        W43590   7.773   4.344   6.218  0.0147  0.4617  0.0024
68603W        W43591  14.950  14.855  19.291 -0.1068 -0.1153 -0.1828
68604W        W43592   2.200  29.842  23.612 -0.0153 -0.3432 -0.4940
68605W        W43593  34.292  12.190  23.192  0.2551 -0.0575 -0.1183
68606W        W43594  24.490  18.994  12.367  0.1523 -0.4522  0.0885
68607W        W43595  33.080   5.516  16.759  0.2077  0.0182  0.2950
68608W        W43596  35.338  10.182  19.275  0.1986 -0.6361 -0.1508
68609W        W43597  25.868  22.193  16.949 -0.2767 -0.4234 -0.1587
68610W        W43598   3.567   0.503  10.777 -0.1239 -0.1010 -0.2177
68611W        W43599   8.302  28.071  24.221 -0.1936 -0.1516  0.0378
68612W        W43600  13.074  26.582   9.492  0.0402  0.2042 -0.1078
68613W        W43601   7.493   9.147  20.334 -0.1199  0.1866  0.0935
68614W        W43602   9.272   3.324   9.089 -0.0052 -0.0971  0.1851
68615W        W43603  16.293  18.444  20.128 -0.2158 -0.0931 -0.3919
68616W        W43604  25.123   7.526  13.688 -0.0820 -0.0009  0.0683
68617W        W43605  35.004  24.285  21.229  0.1318 -0.1835  0.2977
68618W        W43606  29.057  10.837  15.885 -0.0285  0.2535  0.2232
68619W        W43607  29.047  15.956  10.437  0.0193  0.6106 -0.2741
68620W        W43608  34.469  23.533  20.932 -0.0072 -0.3527 -0.0545
68621W        W43609  10.178  30.763  17.706 -0.4435 -0.2563 -0.0454
68622W        W43610  21.656   8.810  20.264 -0.0574  0.1633 -0.0562
68623W        W43611  11.364  19.822  22.249  0.1974  0.1370  0.4067
68624W        W43612   6.397   4.725   8.641 -0.2429  0.1094  0.1254
68625W        W43613  22.032  30.198   0.631 -0.0066 -0.2545 -0.4144
68626W        W43614  28.947  26.939  14.134  0.1500  0.0279 -0.3745
68627W        W43615   7.561  20.790   2.046  0.1270  0.2520  0.0049
68628W        W43616  30.246  15.645  26.140 -0.0451 -0.1071 -0.0903
68629W        W43617   7.254  29.822  24.022 -0.0548  0.0459  0.1574
68630W        W43618  34.976  22.777  19.487 -0.0019 -0.0529 -0.1636
68631W        W43619  26.051  22.873  12.573 -0.0515 -0.1753  0.0062
68632W        W43620  27.115  17.730  11.972 -0.0844  0.2164 -0.1755
68633W        W43621   7.206  31.533   3.063 -0.0303 -0.1843  0.2455
68634W        W43622  27.344  12.460  12.430 -0.0557  0.4369  0.2220
68635W        W43623  34.471   2.094   5.382  0.1594 -0.0052 -0.2354
68636W        W43624  23.869  12.832  17.315 -0.5212  0.3834 -0.5181
68637W        W43625  24.216   8.749  23.143 -0.3086  0.0227  0.0538
68638W        W43626   6.649  18.569  10.775 -0.1253  0.0180  0.2326
68639W        W43627  13.109  26.608  23.499 -0.0757  0.0398  0.1800
68640W        W43628   7.720   3.318  22.439  0.1155 -0.1281 -0.0186
68641W        W43629  31.867  20.938   6.151  0.2364 -0.2929  0.3801
68642W        W43630  25.132   7.570  23.144  0.2734  0.1657 -0.1271
68643W        W43631   2.988   7.359  24.015 -0.2239 -0.0966  0.2782
68644W        W43632  33.847   2.083  24.553  0.2259  0.0455 -0.0816
68645W        W43633   6.133  14.818  10.577  0.2030 -0.1069 -0.0726
68646W        W43634   6.791  10.960  18.378 -0.0240 -0.0791 -0.2551
68647W        W43635   0.903  33.529  18.807  0.0625 -0.4134  0.2626
68648W        W43636  15.673  20.774  10.387 -0.1410  0.0298  0.1597
68649W        W43637   4.514  27.452  23.120 -0.1322  0.1439 -0.0113
68650W        W43638  13.715  12.357   2.864 -0.0262 -0.2913  0.3744
68651W        W43639  19.692  16.148   2.858 -0.0786 -0.4277 -0.1003
68652W        W43640  18.918  24.856   4.837  0.2253  0.0918 -0.1718
68653W        W43641  31.370  21.519  24.917 -0.1111  0.0180  0.0797
68654W        W43642   9.450  24.403  13.699  0.0153 -0.0661  0.1196
68655W        W43643  16.395  23.352   0.175 -0.3014 -0.1075  0.0309
68656W        W43644   9.283   4.889  13.106  0.1375 -0.0991  0.0288
68657W        W43645  21.613  11.692  17.441 -0.1421 -0.0417  0.2647
68658W        W43646  21.079  29.210  14.823  0.0883 -0.2372  0.1513
68659W        W43647  22.039  20.273  21.720  0.2651 -0.1570 -0.0732
68660W        W43648  14.355  31.615  21.451  0.0331  0.1232 -0.2551
68661W        W43649  29.645   8.661   1.807  0.2124 -0.0843  0.1257
68662W        W43650   0.682  11.850  24.176 -0.1717  0.0870  0.1848
68663W        W43651  21.536  23.719   0.142  0.0067 -0.0529  0.2069
68664W        W43652  24.182  32.565   5.495 -0.3842  0.0032 -0.1339
68665W        W43653  10.770  27.545  12.303  0.0721  0.0828  0.1243
68666W        W43654   0.742   9.073  22.730  0.2083  0.0966  0.0825
68667W        W43655  11.750   7.519  20.762 -0.0696  0.5011 -0.1782
68668W        W43656  31.860   1.453  23.206 -0.1976 -0.0063 -0.2247
68669W        W43657  27.899   9.499  22.359  0.1050 -0.3013 -0.0911
68670W        W43658   3.809   2.846   8.245  0.0815  0.1044  0.0529
68671W        W43659  35.235  14.687  17.931 -0.0656  0.1039 -0.1697
68672W        W43660  11.933   8.703   3.974 -0.1487 -0.1499  0.2252
68673W        W43661   9.779  31.758  12.721  0.2784  0.4064  0.1557
68674W        W43662  27.180   6.974  11.832 -0.0397 -0.0187 -0.2921
68675W        W43663  24.616  34.662   0.036  0.0302 -0.0088  0.0909
68676W        W43664  29.324  29.517  14.363  0.0700  0.0671 -0.1570
68677W        W43665  16.065  31.458   8.322 -0.0564  0.1368 -0.1212
68678W        W43666  10.876  16.799   0.681  0.2201  0.0679 -0.0969
68679W        W43667  18.559  24.043  23.587 -0.3202  0.1932  0.0042
68680W        W43668  23.008  22.255  16.104 -0.1388 -0.0036 -0.3042
68681W        W43669  29.992  32.409   2.761 -0.2613  0.3830 -0.0695
68682W        W43670   9.434  31.842   1.576  0.0505  0.2140 -0.1451
68683W        W43671  24.614   0.065   6.229  0.0805  0.1172  0.3292
68684W        W43672  11.838  23.299   2.324 -0.1465  0.2118 -0.1279
68685W        W43673  25.970  19.077  17.632 -0.1775  0.4308  0.1540
68686W        W43674  10.107  34.903  21.058  0.0149 -0.0093  0.1663
68687W        W43675   5.797   3.421   8.433  0.0301  0.1707 -0.0140
68688W        W43676  26.271  22.641  21.439 -0.1721  0.0866 -0.0848
68689W        W43677   2.529   8.116   0.366 -0.0004 -0.3440  0.0183
68690W        W43678   6.536  33.616   6.026 -0.3219 -0.0257  0.2340
68691W        W43679  22.936  27.465  24.100 -0.2436 -0.0367  0.1123
68692W        W43680  28.495  34.620   3.788  0.0660  0.2729  0.3464
68693W        W43681  16.438  10.216   1.701  0.0565  0.0299  0.0943
68694W        W43682  26.389  29.159   4.346  0.1578  0.4235 -0.1265
68695W        W43683   0.198  16.978  22.429 -0.1709  0.1903  0.3741
68696W        W43684  23.910  16.108  22.348 -0.1096 -0.0375 -0.1980
68697W        W43685  29.548  27.932  23.991  0.1265  0.0005 -0.0410
68698W        W43686  12.895  31.075  26.221  0.1831 -0.2063  0.0964
68699W        W43687  13.119  28.476   6.969 -0.0425  0.2699  0.0226
68700W        W43688  14.890  30.360   2.763  0.2442  0.0825 -0.1363
68701W        W43689   7.848   6.341  21.073 -0.0053 -0.2587  0.1396
68702W        W43690   2.221  17.374  22.787 -0.3127  0.3097 -0.0536
68703W        W43691  12.896  25.566  11.835  0.1710  0.0434  0.2793
68704W        W43692  12.818   7.296  13.984  0.1588 -0.0237  0.3394
68705W        W43693  31.943   4.554   0.381 -0.1991 -0.0246 -0.1383
68706W        W43694  19.452  18.672   4.950 -0.2062 -0.1344 -0.0705
68707W        W43695  18.828  18.223  17.871  0.1339 -0.1761 -0.2411
68708W        W43696   0.748   1.899  19.762 -0.0893  0.3165 -0.0604
68709W        W43697  10.008  10.376   4.498 -0.2247  0.0559 -0.3493
68710W        W43698   9.522   3.640  23.680  0.0718 -0.0567  0.1325
68711W        W43699  13.282  21.072   7.811  0.1333  0.1071  0.1105
68712W        W43700  13.112   6.803   8.658 -0.1176 -0.0619  0.1110
68713W        W43701  10.909  16.420  12.633  0.3936  0.1750  0.0209
68714W        W43702  24.651  22.660  23.142 -0.0484  0.1352 -0.0919
68715W        W43703   8.940  31.025  11.791 -0.1790 -0.0110  0.0419
68716W        W43704  32.965  32.807   6.029  0.4032 -0.0959 -0.0187
68717W        W43705  25.645  16.287  10.484  0.0956  0.5184 -0.0912
68718W        W43706  11.371   4.610   1.038 -0.1188 -0.2066  0.0027
68719W        W43707  11.464   7.221   7.947  0.2897  0.0109 -0.0731
68720W        W43708  34.091   5.023  25.523  0.1991  0.0241  0.0040
68721W        W43709  25.695  33.424  13.906 -0.1087 -0.3169  0.1869
68722W        W43710   7.919  30.671   5.890 -0.2707  0.1473 -0.4312
68723W        W43711  19.937  30.669   8.164 -0.2231 -0.0006 -0.1837
68724W        W43712   7.330  10.915   8.647 -0.1360  0.2222 -0.0851
68725W        W43713  18.726  15.558  21.549 -0.2045 -0.0818 -0.0342
68726W        W43714   3.705  26.250   8.558 -0.1480  0.0718 -0.0503
68727W        W43715  20.605   5.031   5.193  0.1117  0.2391 -0.2119
68728W        W43716   6.552   2.632  24.512  0.2577 -0.0483 -0.2278
68729W        W43717  12.451  11.358   1.033  0.1689 -0.1064  0.0291
68730W        W43718   0.168  17.802  14.745  0.0317 -0.1704 -0.0545
68731W        W43719  10.084   5.133  11.943 -0.0260 -0.0108  0.2532
68732W        W43720  15.455   8.588  25.537  0.0517  0.0569  0.0175
68733W        W43721  34.098   3.741  24.670  0.2318 -0.0495  0.0323
68734W        W43722   9.477   4.522   2.160  0.0165  0.0976 -0.0207
68735W        W43723  13.439  24.812  10.370  0.0928 -0.1632  0.0680
68736W        W43724  31.633  14.464  21.072  0.0107 -0.0086  0.0621
68737W        W43725   3.028  26.020   3.089  0.1244  0.2747 -0.1593
68738W        W43726  12.058   3.656   2.590 -0.0039 -0.0237 -0.0318
68739W        W43727  20.832  22.044  16.467  0.1613 -0.0405  0.0209
68740W        W43728   3.096   4.566   5.487  0.1182 -0.0001  0.3821
68741W        W43729  27.670  33.931  14.103 -0.0427  0.0338  0.0211
68742W        W43730  14.900  25.700  11.914 -0.0047 -0.2501 -0.3188
68743W        W43731  34.765  18.466  21.212  0.3667  0.0291  0.1130
68744W        W43732   4.616  17.117  19.741 -0.3274  0.4010  0.1718
68745W        W43733  34.979  20.059  22.584  0.1223  0.1232  0.3486
68746W        W43734  12.197   4.211   1.820  0.0317  0.1539  0.1341
68747W        W43735  29.370  17.830  18.684 -0.0738  0.2756 -0.2303
68748W        W43736  31.866  23.605  12.220  0.0483  0.0476  0.3227
68749W        W43737  30.652  24.486  17.860  0.1906 -0.0273  0.0290
68750W        W43738   8.122  34.023   2.230 -0.1113 -0.0268  0.0588
68751W        W43739   6.350   5.009  21.873 -0.0600  0.1723 -0.3875
68752W        W43740  11.844  22.343  22.683  0.0655 -0.1143  0.0798
68753W        W43741  14.824   7.779  20.043  0.0887  0.0156  0.0931
68754W        W43742  22.224  22.861  23.031  0.0135 -0.3715 -0.2136
68755W        W43743  35.164  22.825  14.455 -0.1054 -0.1701  0.1691
68756W        W43744  34.602   6.141  12.575  0.0016  0.1425 -0.0354
68757W        W43745   3.332  29.155  25.175  0.2481  0.1201 -0.1546
68758W        W43746   6.539   2.842   9.628  0.1257  0.2159  0.3915
68759W        W43747   6.107  33.631  24.506  0.2149 -0.5570 -0.3196
68760W        W43748  25.719  31.640   2.889  0.3119 -0.2285  0.3060
68761W        W43749  18.607   4.997   2.285  0.4197 -0.1764 -0.0596
68762W        W43750  24.537  15.441  14.372  0.2956 -0.2354 -0.0549
68763W        W43751  17.080   2.757   0.588 -0.2173  0.3342 -0.0021
68764W        W43752  18.662   8.849  20.575 -0.0152  0.0772 -0.4103
68765W        W43753  30.565   4.602  23.480  0.0958 -0.0917  0.1412
68766W        W43754   4.504   7.640  25.621  0.1334  0.0030  0.2361
68767W        W43755   4.913   4.250  24.731 -0.0741  0.1667  0.1416
68768W        W43756  21.407   2.838   0.620 -0.0291 -0.1901  0.0136
68769W        W43757   6.778  23.314   5.484  0.0525 -0.0369  0.0351
68770W        W43758  33.143   8.433  18.289 -0.1738  0.1184  0.2835
68771W        W43759  10.416  28.893  22.684 -0.6437  0.1671  0.0516
68772W        W43760  17.857  17.312  22.627  0.2229 -0.0742 -0.1607
68773W        W43761  21.984  11.006  15.690  0.2909  0.1099  0.2623
68774W        W43762  11.268  29.342  23.965 -0.1452 -0.2375  0.2722
68775W        W43763  32.714  16.405   8.440 -0.2656 -0.0302  0.1126
68776W        W43764   9.443   1.882   1.938 -0.0206 -0.0961 -0.0006
68777W        W43765   1.028  28.896   7.243 -0.1550 -0.2312  0.1112
68778W        W43766  23.261  28.077   4.712  0.2850  0.3458  0.1172
68779W        W43767  23.519   8.093  22.888  0.1510 -0.3455 -0.1461
68780W        W43768  24.218  12.861  25.007  0.0508 -0.0709  0.1177
68781W        W43769  22.852  15.388  22.456  0.2349  0.2480 -0.1979
68782W        W43770  28.190  11.685  17.369  0.2085 -0.0767  0.0377
68783W        W43771  15.509  25.982   3.477  0.3556 -0.3046 -0.2753
68784W        W43772  27.060  13.151   7.120  0.0098 -0.2254  0.0592
68785W        W43773  25.790  10.819  21.532 -0.0796 -0.1199 -0.1184
68786W        W43774  28.841   7.150   9.681 -0.0945 -0.2518  0.1539
68787W        W43775  24.177  13.348  24.858 -0.1766  0.2639 -0.2251
68788W        W43776  12.414   1.754   1.445  0.0107 -0.1400  0.1755
68789W        W43777  23.282  21.109  24.554  0.2514  0.0054  0.0525
68790W        W43778  21.480   2.968  22.043 -0.0323 -0.1143  0.0036
68791W        W43779  29.690  32.804  11.175  0.2798 -0.2123 -0.3328
68792W        W43780  15.052  10.404  22.906  0.0342  0.2528 -0.4789
68793W        W43781  23.536  21.649   1.766 -0.1314  0.1670 -0.2891
68794W        W43782  22.117   9.835   0.969 -0.1486 -0.0311  0.0330
68795W        W43783  18.593  31.461   8.126  0.4637 -0.1519 -0.0589
68796W        W43784   6.227   8.990   3.414  0.0977  0.2720  0.2611
68797W        W43785  20.117  20.367   8.031  0.0666 -0.0703  0.3372
68798W        W43786  22.488  17.687   1.265 -0.1004  0.1802  0.1098
68799W        W43787  26.756  35.239  16.222  0.1499  0.0483  0.2241
68800W        W43788   5.003  27.266  21.807  0.3279 -0.1604 -0.0257
68801W        W43789  11.850  22.901   6.431  0.0636 -0.2539 -0.0595
68802W        W43790  19.890  14.314  18.448  0.2410  0.0169  0.2284
68803W        W43791  11.333   7.913   9.245 -0.1368  0.1103  0.0467
68804W        W43792   6.877  17.643   1.604 -0.0372 -0.1750 -0.3969
68805W        W43793   4.571  11.609   6.785  0.1655  0.1487  0.1778
68806W        W43794  17.961  17.866   9.336  0.1685  0.0960 -0.0661
68807W        W43795  15.823  22.273   6.006  0.1361  0.4150 -0.0191
68808W        W43796  17.932  15.782   3.708 -0.0844 -0.3331  0.5012
68809W        W43797  14.311   1.906  23.929  0.0725  0.2554  0.1273
68810W        W43798  22.935  12.663  16.533 -0.0075  0.0958 -0.0706
68811W        W43799  23.154  31.700   4.443 -0.3234 -0.1123 -0.0154
68812W        W43800   3.608  13.579   2.479  0.0445 -0.1077 -0.2050
68813W        W43801  24.733  22.374  15.892  0.1206  0.0533 -0.0989
68814W        W43802   2.703  22.143  16.345 -0.0376  0.2039 -0.0576
68815W        W43803  27.014  11.559  14.583  0.1020 -0.1067 -0.0627
68816W        W43804  10.016  18.175  14.734 -0.0808  0.1357 -0.1498
68817W        W43805  13.030  20.793   6.309 -0.0082  0.1463  0.2980
68818W        W43806  27.892   4.938  13.715  0.1095 -0.2238 -0.3215
68819W        W43807   0.243  34.152   7.827  0.0500 -0.0213 -0.1404
68820W        W43808  33.706  27.911   2.756  0.1949  0.0740  0.1862
68821W        W43809  27.964  16.576  12.007  0.0214 -0.0078  0.1472
68822W        W43810  29.335   3.614  15.612 -0.1379 -0.0492  0.3210
68823W        W43811  25.595  32.437  12.577 -0.1106  0.0129 -0.1966
68824W        W43812  17.584   9.376   9.540 -0.1507  0.3202 -0.1287
68825W        W43813  31.555  17.939  24.619  0.0887 -0.1181 -0.1763
68826W        W43814  29.196  16.721  17.814 -0.0327  0.0885  0.1420
68827W        W43815   0.039   2.525  24.347 -0.4272 -0.1604  0.1359
68828W        W43816   0.144  31.578  16.685 -0.0701 -0.0749 -0.0873
68829W        W43817   7.620   6.771   3.934  0.0157 -0.0432  0.0617
68830W        W43818  33.382  17.900  18.150  0.1162 -0.0072  0.0396
68831W        W43819  13.649   4.959  25.290  0.1708  0.0136 -0.0408
68832W        W43820   1.921  29.802   6.042 -0.0934 -0.0507  0.0117
68833W        W43821  12.094   8.062  10.218 -0.1302 -0.0355 -0.3550
68834W        W43822  32.094   3.226   2.852 -0.1950  0.4049  0.1917
68835W        W43823  29.595  16.026  22.501  0.0916 -0.1371 -0.0109
68836W        W43824  17.491  12.266   0.628  0.2568  0.1824  0.2190
68837W        W43825  35.108  14.930   8.390  0.0365  0.0016 -0.0799
68838W        W43826  12.933  13.926  10.433  0.2733  0.2972 -0.0086
68839W        W43827  14.415   8.264   6.269 -0.2749 -0.2813 -0.1197
68840W        W43828  19.509  17.766   0.795 -0.0251 -0.1647 -0.2279
68841W        W43829  14.586  11.950  25.741  0.0567  0.2581 -0.1386
68842W        W43830  12.176  24.940  14.914  0.2415 -0.0006 -0.0418
68843W        W43831  10.742   3.159  23.567 -0.2019  0.2852  0.0587
68844W        W43832  15.541  33.851   7.834  0.1959 -0.1997 -0.1382
68845W        W43833   8.737  22.550  12.304 -0.2977  0.0215  0.0574
68846W        W43834  33.962   6.509  20.476 -0.1316 -0.2439 -0.1491
68847W        W43835  10.670  30.201  11.976 -0.2465  0.0787  0.0865
68848W        W43836  14.541  24.583  23.241 -0.0002  0.1600 -0.1987
68849W        W43837  31.741  20.016  22.901 -0.0922 -0.4131  0.2659
68850W        W43838   7.886   2.936  12.079  0.0827  0.2720 -0.1472
68851W        W43839  25.524   2.789   5.355 -0.1595 -0.1124 -0.3128
68852W        W43840  17.373  26.052  23.968  0.0599 -0.1002 -0.0347
68853W        W43841  11.914  26.117   7.678  0.2378 -0.2289  0.1415
68854W        W43842  13.972  26.079  11.992  0.0784  0.1776  0.1363
68855W        W43843   0.287  25.739  17.374 -0.1603  0.2018  0.0870
68856W        W43844   7.059  24.827  22.655 -0.2540 -0.0010  0.3117
68857W        W43845  28.843  32.610   2.570 -0.2387 -0.0880  0.2315
68858W        W43846  31.027   2.498  17.604 -0.0763  0.2762 -0.1228
68859W        W43847  25.652  23.753  15.612  0.0008  0.2476  0.0158
68860W        W43848   3.234  23.475   0.781 -0.4059  0.0938 -0.3660
68861W        W43849  26.429  34.908  15.966  0.3289  0.0431 -0.0715
68862W        W43850  32.285  19.703  15.545  0.0201 -0.2121  0.0381
68863W        W43851  31.201  28.400   2.908 -0.0380  0.0811  0.0509
68864W        W43852  13.591  33.607  25.649 -0.0972 -0.0118 -0.0681
68865W        W43853   3.301   7.712   6.835 -0.0577  0.1258 -0.3506
68866W        W43854  27.003  15.042  12.834  0.0578 -0.1578  0.0883
68867W        W43855  16.120  15.935  21.495 -0.1996  0.1423 -0.0549
68868W        W43856   4.060  12.950  23.206  0.2467 -0.1517  0.1102
68869W        W43857  12.493  22.994  24.972 -0.1163  0.1029 -0.1426
68870W        W43858  13.182  34.732  25.438 -0.2309  0.1909  0.1534
68871W        W43859   7.192  15.846   7.790 -0.1497 -0.2838 -0.1044
68872W        W43860   4.692  12.969   2.982  0.1188  0.0404 -0.2484
68873W        W43861  20.791  25.769  24.338 -0.1034  0.1118  0.0456
68874W        W43862  20.579   2.869   3.009  0.0140  0.1775  0.1029
68875W        W43863   0.887  33.803   5.895 -0.3051 -0.2319 -0.0433
68876W        W43864   4.863  15.435   5.148 -0.4166  0.1203  0.3439
68877W        W43865  13.924  25.332  23.633 -0.0739  0.0606 -0.0063
68878W        W43866  30.230  10.706  21.099  0.1595  0.2789 -0.0500
68879W        W43867  29.017  32.711  14.986 -0.1259  0.1043 -0.2305
68880W        W43868  23.199  18.250  20.937 -0.0583  0.0530  0.1163
68881W        W43869  25.477   8.901  19.005  0.0348  0.2761 -0.0008
68882W        W43870   5.497   6.037   3.796  0.1554 -0.2176 -0.2784
68883W        W43871  30.328   2.591  23.912 -0.0762  0.2230  0.2693
68884W        W43872  26.533  28.700   2.225  0.1893 -0.3662  0.3666
68885W        W43873  19.081  25.645  25.493  0.1095 -0.3020  0.1292
68886W        W43874  24.705   0.759  16.431 -0.1320  0.0046 -0.0183
68887W        W43875   0.612  32.597   6.463  0.0528  0.0062  0.2342
68888W        W43876  13.910  29.650   1.963 -0.1459  0.1797  0.0396
68889W        W43877  34.466   5.280   5.748  0.3547  0.0393  0.1263
68890W        W43878  17.649  32.928   8.960 -0.2274  0.1757  0.1428
68891W        W43879  15.068  26.235  12.219  0.0817 -0.1676  0.0530
68892W        W43880  24.796  28.731  26.188 -0.3135  0.0247  0.1513
68893W        W43881  13.395   4.536   7.081  0.0749  0.0735  0.1495
68894W        W43882  24.757   3.130  15.736  0.2015 -0.2400 -0.1484
68895W        W43883   6.486  26.914  23.823  0.2850  0.0677  0.1343
68896W        W43884  13.444  19.472  23.335  0.0523  0.2830  0.2537
68897W        W43885  15.295   4.084  17.656 -0.0964 -0.0494 -0.3069
68898W        W43886  33.767  13.794  17.612 -0.0716  0.2159 -0.0367
68899W        W43887   9.878   6.042   7.448 -0.1736 -0.0910  0.0500
68900W        W43888   6.956   3.163   9.690 -0.1340 -0.1667  0.1150
68901W        W43889  29.965  20.236  25.492  0.0660  0.1350 -0.1336
68902W        W43890  18.430  12.304   9.795 -0.2629 -0.0454  0.2125
68903W        W43891   3.893  24.676  24.760  0.0124 -0.1356  0.0910
68904W        W43892   9.683  11.594  22.581  0.0916  0.3337  0.0084
68905W        W43893  22.036  21.273   3.999 -0.1359 -0.1676  0.0640
68906W        W43894  35.148   0.894  24.302  0.1918  0.0030 -0.0186
68907W        W43895  29.369   7.880  20.076 -0.0591 -0.0179  0.0741
68908W        W43896  22.308  19.994   0.517 -0.2595 -0.0800  0.1679
68909W        W43897  14.433  11.274   2.364 -0.3113  0.1315 -0.0199
68910W        W43898  26.565  30.662  13.511  0.0099  0.1056  0.1236
68911W        W43899  31.182  22.314  14.322 -0.0260  0.0259 -0.0195
68912W        W43900  15.502  28.941  25.507  0.1039 -0.0238 -0.0810
68913W        W43901  19.561   9.113   7.430 -0.1329 -0.1278 -0.0873
68914W        W43902  30.049  22.692  21.300 -0.1275  0.0954 -0.1593
68915W        W43903   3.334  10.350  23.768  0.2375 -0.2485 -0.3278
68916W        W43904   9.136   3.548   3.587 -0.0313 -0.1581  0.0628
68917W        W43905  22.113  32.322  13.864  0.2730 -0.1649 -0.0928
68918W        W43906  28.856  22.345  20.564  0.0519  0.0058  0.1629
68919W        W43907   3.453   3.304   5.297  0.0607  0.2026 -0.1433
68920W        W43908  15.718  26.063  12.698  0.0425 -0.0058  0.0476
68921W        W43909  13.938   0.593   9.178 -0.1498 -0.0160 -0.0696
68922W        W43910  29.599  10.952  14.253  0.2870  0.0539 -0.0128
68923W        W43911   2.644  11.761  21.431  0.3004 -0.2012  0.1920
68924W        W43912  24.209  10.150  24.087  0.3182 -0.1144 -0.0113
68925W        W43913  28.503  30.088  12.796  0.1556 -0.0361 -0.1819
68926W        W43914   8.925  23.151  15.760 -0.1638  0.3340  0.0619
68927W        W43915  15.345   4.698   3.960  0.0581 -0.1208  0.3089
68928W        W43916  16.030  23.149   6.679  0.0425 -0.0405 -0.0037
68929W        W43917  14.089   1.784   5.044  0.0309  0.0082  0.0212
68930W        W43918  17.761  17.454  13.140  0.3247  0.0684  0.0460
68931W        W43919  21.997  22.823  21.516 -0.0901  0.0627  0.3378
68932W        W43920   5.689  30.951   9.274 -0.1508 -0.0366 -0.1091
68933W        W43921  30.996  26.268  17.511 -0.0417  0.2042 -0.0150
68934W        W43922  25.496   7.465  16.803  0.0024  0.2410 -0.0651
68935W        W43923  19.489  18.737  21.199 -0.1653  0.0921  0.1723
68936W        W43924  22.178  29.765   3.748  0.1364  0.2155 -0.1098
68937W        W43925  19.009  14.226   0.948 -0.1887  0.0207 -0.2775
68938W        W43926  10.556  21.934  16.421  0.2478  0.2726 -0.2602
68939W        W43927  27.494  34.016   4.493  0.1392 -0.3394  0.0888
68940W        W43928  21.589  24.837  19.743  0.0823 -0.1520  0.3807
68941W        W43929   5.820  30.054   1.768  0.2722 -0.1690 -0.0898
68942W        W43930  15.862  15.781   0.977  0.3312 -0.2392 -0.0960
68943W        W43931  31.092   9.515  18.558 -0.3313  0.2035  0.2617
68944W        W43932  21.758  16.854  22.592  0.1547 -0.0630  0.1650
68945W        W43933  20.258  25.823   1.181 -0.0840  0.1697 -0.0797
68946W        W43934  11.865  33.789  13.031 -0.0710 -0.1813 -0.0023
68947W        W43935  31.663  25.048  25.742  0.1081 -0.0057  0.0378
68948W        W43936  26.278  24.881  22.225 -0.2211 -0.4048 -0.2054
68949W        W43937  19.095  17.277  23.097 -0.1786 -0.0355 -0.2044
68950W        W43938  21.484   7.306  25.938 -0.1158 -0.0111  0.0729
68951W        W43939  29.239  33.562   3.406 -0.0887  0.3648  0.0209
68952W        W43940  14.330  20.153  14.080  0.0742 -0.2048 -0.1295
68953W        W43941  34.440  18.515  22.421  0.0009 -0.0665 -0.4115
68954W        W43942  27.846  10.497  22.487  0.0000 -0.0822  0.0187
68955W        W43943  31.961  13.775  12.142  0.0969  0.1517  0.0057
68956W        W43944  17.694  33.881   3.407  0.2455  0.1675 -0.1596
68957W        W43945  21.787  10.290   3.022 -0.0145 -0.1280 -0.1734
68958W        W43946  17.993   0.634   1.957 -0.0335  0.3233 -0.3088
68959W        W43947  26.138  35.089  18.995 -0.0227 -0.0016 -0.4480
68960W        W43948   0.873  13.435  19.332 -0.3695  0.1959 -0.1641
68961W        W43949  31.006  10.717  20.488  0.0569  0.1210 -0.0396
68962W        W43950  18.683   5.704   8.809  0.2703  0.0111 -0.1011
68963W        W43951  23.964   9.032  13.540 -0.2645  0.0548  0.0977
68964W        W43952   2.611  28.251  21.488  0.1526  0.0275 -0.2930
68965W        W43953  15.527  17.351   9.229 -0.4446 -0.0405  0.1353
68966W        W43954   9.727  18.047   6.522  0.0134 -0.0515 -0.3565
68967W        W43955  33.599   8.248  16.257  0.1212  0.1238  0.0866
68968W        W43956  14.161  11.294   0.815 -0.0897 -0.3939  0.0367
68969W        W43957  31.527  26.074  14.815  0.0479  0.1794  0.1952
68970W        W43958   0.394  20.304   8.453 -0.0497 -0.1144  0.0522
68971W        W43959  26.588  31.525  13.226  0.0735 -0.0846  0.3051
68972W        W43960   2.278   3.218  22.783  0.2697 -0.1242 -0.3218
68973W        W43961   1.360  21.317  24.309  0.0498 -0.0999 -0.1052
68974W        W43962  34.391  26.340  15.010 -0.0923  0.2250  0.0434
68975W        W43963  30.919   4.254   1.889  0.1851 -0.1377  0.0699
68976W        W43964  25.971  32.645   5.392  0.0710 -0.2037 -0.1390
68977W        W43965  21.093  13.285   1.862 -0.0810 -0.1360  0.0988
68978W        W43966  33.612  17.020  18.781 -0.1830  0.0550 -0.1210
68979W        W43967  20.438  33.485  24.792  0.1318 -0.0053 -0.2775
68980W        W43968   7.223   8.809   8.771  0.0991  0.0246  0.2770
68981W        W43969  19.903  12.793   7.391 -0.1177 -0.2014  0.1019
68982W        W43970  22.690  10.334   1.502  0.2497  0.0886  0.2786
68983W        W43971  32.781   5.626  23.827 -0.0313 -0.2036  0.2334
68984W        W43972  15.328  20.940  25.675 -0.0529  0.2750 -0.3179
68985W        W43973  31.404   8.610  20.340  0.1059  0.0425  0.0392
68986W        W43974  34.027  30.751  24.299  0.1433 -0.1134 -0.2115
68987W        W43975  33.102   7.415  25.531  0.1637  0.0213  0.1469
68988W        W43976   1.111   9.409   1.992 -0.0941  0.3745  0.2880
68989W        W43977   3.975  15.733   4.850  0.1826  0.1687 -0.1362
68990W        W43978  19.484   3.041   1.286 -0.2410 -0.1364  0.1207
68991W        W43979  16.378   0.312   5.432  0.1943  0.0183  0.1547
68992W        W43980  17.649   9.847  23.414  0.0235  0.0938  0.0560
68993W        W43981   5.656  29.522  11.368  0.3128  0.0777 -0.0122
68994W        W43982  23.598  31.456   1.974 -0.2100 -0.0771 -0.2050
68995W        W43983  11.534  33.015  15.484  0.0752  0.2161  0.0218
68996W        W43984  32.861  24.737  12.822  0.0108 -0.1438 -0.0017
68997W        W43985   6.391   8.955   6.441 -0.1634 -0.1256  0.2466
68998W        W43986   5.706   2.299   1.775 -0.0261  0.0707  0.1390
68999W        W43987  31.447   9.314  14.747  0.0066 -0.2539 -0.2195
69000W        W43988   1.952  20.359  19.917  0.2030  0.0767  0.2784
69001W        W43989  32.381   2.476  22.233  0.0664  0.2516  0.0324
69002W        W43990  34.420  27.308  24.846  0.0293  0.0191  0.0294
69003W        W43991   6.391  35.036  10.667 -0.1580 -0.2691  0.0280
69004W        W43992  28.668  20.957  10.070 -0.0140  0.1832 -0.0580
69005W        W43993  14.626  10.403   8.398 -0.3011 -0.0001  0.3147
69006W        W43994   8.437  22.643   3.975 -0.2441  0.1783 -0.1080
69007W        W43995  22.493  28.106  13.355 -0.1445  0.0501  0.0584
69008W        W43996  25.101  31.999  21.028 -0.1472  0.2560 -0.0562
69009W        W43997   0.539  32.040   0.826 -0.1696  0.0156  0.1353
69010W        W43998  25.547  26.033  18.394 -0.1097  0.0837  0.1204
69011W        W43999  17.848  27.277   9.793 -0.0802  0.2861  0.0561
69012W        W44000  20.543  20.886  23.534  0.1439 -0.0850 -0.3439
69013W        W44001  32.352  17.482  18.608 -0.0413  0.2143  0.0807
69014W        W44002  22.592   7.228   6.249 -0.1626 -0.2301  0.2282
69015W        W44003  18.540  27.140   3.240  0.1593 -0.1132 -0.4267
69016W        W44004  14.947  16.488  13.053  0.3351 -0.1390  0.0523
69017W        W44005  30.347  25.692  14.532  0.1995  0.0803  0.1897
69018W        W44006  32.109   5.470   1.405 -0.2956  0.0692  0.0256
69019W        W44007  22.559   1.553  24.797 -0.0474  0.1390  0.1385
69020W        W44008  27.421  35.285  12.468  0.1340  0.0526 -0.4424
69021W        W44009  20.966  25.882   2.493 -0.3177  0.0667 -0.0894
69022W        W44010  34.959  28.699  20.023  0.1579  0.0948 -0.0260
69023W        W44011  17.453  22.341   1.922 -0.1823 -0.2949  0.2207
69024W        W44012  21.594  10.233   2.065 -0.2350  0.0270  0.1273
69025W        W44013  34.313  34.783  24.377  0.4399  0.2076 -0.0465
69026W        W44014  22.814  23.043  23.729  0.0692 -0.1842  0.3574
69027W        W44015  30.817   4.691  21.298 -0.0322 -0.1457 -0.2978
69028W        W44016  10.800  11.935  13.525 -0.0779 -0.0959 -0.1091
69029W        W44017  27.170  18.935  17.790  0.0015  0.0930  0.3782
69030W        W44018  30.697   3.854   0.919 -0.1515 -0.0336  0.0919
69031W        W44019  31.293  31.127   1.903 -0.0858  0.2136  0.2853
69032W        W44020  33.286  18.907   8.577  0.2238 -0.4196 -0.1814
69033W        W44021  15.163  19.007  20.394  0.1762 -0.1813 -0.2727
69034W        W44022  33.672  24.547  15.592 -0.0423  0.0964 -0.0965
69035W        W44023   8.183  20.183  23.149 -0.0501 -0.1882 -0.2632
69036W        W44024  20.710  28.553  21.870 -0.0880 -0.0939 -0.0390
69037W        W44025   9.660   5.554   3.191 -0.3914  0.2189 -0.3760
69038W        W44026  11.037  19.684  24.697  0.1195 -0.0082 -0.0921
69039W        W44027  13.559   3.373  23.342 -0.5034 -0.0641  0.0469
69040W        W44028  20.824  12.380   0.433 -0.0797 -0.0578  0.2449
69041W        W44029  19.476  16.509  17.544 -0.0026  0.0672 -0.3171
69042W        W44030   1.257   5.357   1.941  0.2356 -0.1075 -0.0299
69043W        W44031   1.929  27.579  20.306 -0.3367 -0.1485  0.2746
69044W        W44032  30.032  35.290  11.300 -0.2160 -0.1865  0.0059
69045W        W44033  17.115   4.134   4.643 -0.0999 -0.1230  0.0241
69046W        W44034  14.493   2.069   9.036  0.0773 -0.2237 -0.3490
69047W        W44035   4.364  14.045  15.495 -0.3544  0.1504 -0.1989
69048W        W44036  17.783   1.992  18.734  0.2105 -0.1158 -0.0133
69049W        W44037   7.303   5.099  24.483 -0.3562 -0.0707  0.4226
69050W        W44038  13.487   4.995   3.400  0.0130  0.1491 -0.0509
69051W        W44039  28.356  19.628  17.037 -0.2479  0.0561  0.0901
69052W        W44040  28.362  18.434   7.811 -0.1223  0.0211  0.0980
69053W        W44041  22.255  12.891  14.367 -0.0273  0.0885 -0.0518
69054W        W44042  11.793   5.031  11.372  0.0246  0.0764 -0.1391
69055W        W44043  24.508  24.049  11.988  0.0520 -0.0551 -0.0205
69056W        W44044  35.103   1.573   3.700  0.1417 -0.1191  0.2781
69057W        W44045  23.395  10.189  19.040 -0.1125 -0.0848 -0.0489
69058W        W44046   5.574   2.139  24.130  0.1110  0.2294 -0.1868
69059W        W44047  18.066  14.246   1.168  0.2104 -0.0060  0.0847
69060W        W44048  34.836   7.614  24.191  0.1747  0.5122 -0.1683
69061W        W44049  17.417  27.131  26.088  0.0851  0.4069  0.2156
69062W        W44050  19.771   1.254  23.633 -0.0374  0.1102  0.0337
69063W        W44051  29.094   8.169  22.641  0.1452 -0.2048  0.1096
69064W        W44052  16.456  33.606   0.875 -0.0474  0.2050  0.0358
69065W        W44053   0.337  27.421  19.321  0.4094 -0.3187  0.0050
69066W        W44054  25.577  30.229  10.236 -0.0327 -0.1987  0.4118
69067W        W44055  27.995  27.669  25.302 -0.2396 -0.2093 -0.0395
69068W        W44056  10.555  23.962   4.905 -0.2791 -0.0415 -0.3234
69069W        W44057  28.175   7.868  20.196  0.2618  0.3845  0.0856
69070W        W44058  11.697  35.192  21.808  0.2207 -0.2397  0.0124
69071W        W44059  33.686  21.832  20.856  0.0769  0.0806 -0.0492
69072W        W44060  10.016  32.992  11.849 -0.1512  0.0242 -0.1019
69073W        W44061  29.911   3.829  25.189 -0.6040 -0.1021  0.1251
69074W        W44062  10.541  34.695   0.543 -0.2797 -0.1162 -0.0843
69075W        W44063  14.500   7.080  22.920 -0.0360  0.0095 -0.2758
69076W        W44064  11.949  12.308   3.793  0.1053 -0.0239  0.0019
69077W        W44065   0.799  15.095   1.506 -0.1966 -0.0441  0.0966
69078W        W44066  31.639  18.244  22.729  0.1944  0.1344  0.0066
69079W        W44067   4.387   0.883  10.824 -0.1681  0.1008  0.0684
69080W        W44068  30.987  35.297  13.248  0.0584  0.0047 -0.1103
69081W        W44069  23.872  25.545  15.898 -0.1296  0.0237  0.0406
69082W        W44070  23.743  16.573  22.320 -0.3861 -0.4293 -0.2244
69083W        W44071  15.488   5.040   8.260  0.2669 -0.0099  0.0086
69084W        W44072  31.798  11.962   9.713  0.0911  0.1386  0.0055
69085W        W44073  18.331  21.720  25.793  0.0629  0.0043 -0.0770
69086W        W44074  33.892  14.137  17.039 -0.0416  0.0004 -0.0495
69087W        W44075  19.855  14.337   2.131 -0.1112  0.0608 -0.1803
69088W        W44076  15.267  32.549  10.296  0.1095 -0.0947  0.0926
69089W        W44077  28.380  13.876  22.820  0.3102 -0.1166 -0.0242
69090W        W44078  31.518  19.187  12.210 -0.1191  0.1142 -0.0251
69091W        W44079  23.132   1.612   6.948 -0.0595 -0.0825 -0.2484
69092W        W44080  25.833  14.017  16.348 -0.1547 -0.1014  0.0898
69093W        W44081   7.971   8.049  12.697 -0.0772 -0.0165  0.0272
69094W        W44082  24.843  29.876   1.469 -0.0270 -0.3942 -0.1807
69095W        W44083  12.218  32.118   9.137 -0.2473  0.2054 -0.0475
69096W        W44084  24.794  17.761   9.335  0.2775  0.0080 -0.0479
69097W        W44085  10.292  20.193  11.932 -0.1107  0.3120  0.0756
69098W        W44086  25.286  16.000   0.352  0.1396 -0.0008  0.2963
69099W        W44087  12.285  27.585  24.920  0.3432 -0.0842 -0.1318
69100W        W44088  29.720   4.019  11.214  0.0737 -0.0568  0.3478
69101W        W44089   8.533  13.078  24.574  0.1473 -0.0372  0.3530
69102W        W44090  27.160  10.411  23.615 -0.0310 -0.0629  0.2228
69103W        W44091  12.817  13.343   5.455 -0.1659  0.2023 -0.2120
69104W        W44092   2.683   0.879   5.875 -0.0404 -0.0005 -0.0838
69105W        W44093   4.184   7.274   3.129  0.0021 -0.1508  0.4234
69106W        W44094  10.944  10.946  10.130 -0.2630  0.2230  0.2031
69107W        W44095  19.146  19.618   0.836 -0.1621 -0.1074 -0.0097
69108W        W44096   6.977  24.019  22.190 -0.3496  0.0879 -0.1411
69109W        W44097  15.133   2.787   5.663  0.1016 -0.1321  0.2205
69110W        W44098  22.226   3.181  14.260  0.0056  0.1806 -0.0961
69111W        W44099  33.381  12.427  13.142 -0.1040  0.0757 -0.0560
69112W        W44100  23.221  24.798  24.043  0.0108  0.2511 -0.0567
69113W        W44101  30.568  25.280  24.442 -0.1587  0.1127  0.0430
69114W        W44102  28.559  18.548  19.912 -0.0856  0.1478 -0.0091
69115W        W44103   2.962  35.062   2.656 -0.1498 -0.0851  0.0432
69116W        W44104  25.730  26.526   2.336 -0.2108  0.0724  0.2635
69117W        W44105  29.977  20.031   4.933  0.1319  0.3438  0.0548
69118W        W44106  27.673  27.530  12.674  0.3477 -0.1454  0.1247
69119W        W44107  21.078   3.959  25.892 -0.1457 -0.0472 -0.2930
69120W        W44108  26.978  14.786  16.724 -0.3625  0.0727 -0.0569
69121W        W44109  29.663  12.839   7.439  0.2389 -0.0506  0.1262
69122W        W44110   0.307  32.830   5.274 -0.0304  0.0044  0.2719
69123W        W44111  25.532  16.393  18.838 -0.3656 -0.0675 -0.0669
69124W        W44112  15.149   3.326   8.469 -0.2522  0.1706  0.0079
69125W        W44113   0.086  11.754  12.177  0.1743 -0.1700  0.1520
69126W        W44114   5.646  30.828  14.791 -0.1798 -0.2732  0.1137
69127W        W44115   6.033   2.323   1.411  0.1026  0.1869 -0.3851
69128W        W44116  22.454   2.946  18.544 -0.2821 -0.2213 -0.0856
69129W        W44117  12.062  17.161  25.154 -0.2582  0.0527 -0.2592
69130W        W44118   6.982  34.756   4.449 -0.0495 -0.0782 -0.0558
69131W        W44119  29.167  23.378  11.992 -0.2942 -0.0930 -0.4568
69132W        W44120   6.677  34.128   0.904 -0.0161 -0.1108 -0.4788
69133W        W44121  13.405   9.123   4.554  0.2862 -0.2600 -0.2064
69134W        W44122  27.593  20.556  13.554 -0.0578  0.0610  0.1233
69135W        W44123  30.845  10.140   0.186  0.0420  0.1204 -0.0893
69136W        W44124  13.448  12.493   9.302  0.1536  0.0954 -0.1506
69137W        W44125  14.452  20.754   8.742  0.1200  0.3399  0.2123
69138W        W44126  24.822  20.113  20.247 -0.0880  0.1806  0.0600
69139W        W44127  13.053  32.641  11.931 -0.0447  0.2176  0.3819
69140W        W44128   6.189  24.047   4.646 -0.0021 -0.0601 -0.0156
69141W        W44129  31.956  35.277  22.213 -0.1253  0.3021  0.0231
69142W        W44130  25.095   9.709  23.929  0.0713 -0.2074 -0.2906
69143W        W44131   0.215  21.776  24.402  0.2742 -0.2603 -0.1555
69144W        W44132  32.265   4.723  24.798  0.1225 -0.0480 -0.0601
69145W        W44133   2.129  22.509   1.120  0.0536 -0.1286  0.4463
69146W        W44134  10.247  10.406   8.559  0.0692  0.1644 -0.3096
69147W        W44135  16.766   6.974   8.660 -0.1282 -0.1070  0.0807
69148W        W44136  23.161   9.149  25.345  0.1054  0.2424 -0.1416
69149W        W44137  22.152   9.136  18.583  0.2782 -0.1905  0.6515
69150W        W44138  18.796   0.318   2.490  0.2128  0.3309 -0.1902
69151W        W44139  32.809  30.547  24.673  0.0718  0.2742 -0.0146
69152W        W44140  26.699  35.182   0.220 -0.1236  0.1969  0.1322
69153W        W44141  11.472  15.848  25.964 -0.3124  0.2489 -0.0300
69154W        W44142   2.343  29.793   0.883  0.1721  0.1102 -0.1522
69155W        W44143  16.437   1.209  19.759 -0.0814  0.1502 -0.3662
69156W        W44144  35.214   1.510   0.673  0.2705 -0.0357 -0.1947
69157W        W44145   8.670  14.373  22.957  0.1497 -0.0604 -0.1981
69158W        W44146  17.653  15.495   9.561  0.0404 -0.1796 -0.0096
69159W        W44147  33.752  14.262  15.598 -0.1953  0.1530 -0.0590
69160W        W44148  18.149  26.665   6.363 -0.2658  0.2802  0.1252
69161W        W44149  32.665  33.766  20.593 -0.0036 -0.1421  0.1481
69162W        W44150  28.093  26.252  17.856  0.1777 -0.0285  0.1277
69163W        W44151  12.300  28.803  16.109  0.1307  0.3994 -0.0691
69164W        W44152   7.141   5.479   1.285  0.1712 -0.1564  0.4189
69165W        W44153  20.871  19.244   3.908  0.2837  0.0021  0.2133
69166W        W44154  34.349  16.799  23.379 -0.1134  0.2189  0.0619
69167W        W44155   7.692   4.953  24.163  0.1309 -0.0966 -0.1312
69168W        W44156  28.916   7.871  20.355  0.0191 -0.0080 -0.0249
69169W        W44157   6.429   0.975   3.539 -0.1093 -0.1213  0.0781
69170W        W44158  31.969  29.617  26.252  0.0624 -0.0045  0.0544
69171W        W44159  31.557  16.542  15.418 -0.5030  0.0257  0.1370
69172W        W44160  11.883  17.632  20.315 -0.3097  0.0283  0.0268
69173W        W44161  21.937  23.247  25.499 -0.2537 -0.3222  0.0159
69174W        W44162  35.239  16.069  14.995 -0.1225  0.0123  0.0012
69175W        W44163  11.843  17.276   6.706 -0.1600  0.0418  0.3651
69176W        W44164   8.740   1.128  10.774  0.2966 -0.1881  0.0761
69177W        W44165   6.768  17.290  11.103 -0.1577 -0.2751  0.0192
69178W        W44166   0.827  14.376   1.917  0.4532 -0.2272 -0.3487
69179W        W44167   2.369  24.181   0.492  0.1534 -0.1291  0.0514
69180W        W44168  17.411  21.106   4.884  0.2398 -0.0497 -0.1187
69181W        W44169  29.654   4.506  22.668 -0.1682  0.0217 -0.2169
69182W        W44170  31.173  35.121  22.518 -0.0737  0.0783  0.0675
69183W        W44171   6.148  19.315   0.765  0.0076 -0.0179 -0.2464
69184W        W44172   8.323  30.388  11.963  0.0611 -0.2870 -0.0790
69185W        W44173  28.153  31.875   4.027  0.0187  0.0622  0.2417
69186W        W44174  24.578   5.180  15.959 -0.0615 -0.0423  0.2900
69187W        W44175   5.201  13.573   1.274  0.3404 -0.0118 -0.0096
69188W        W44176  18.769  20.216  10.453 -0.2652 -0.2976  0.1302
69189W        W44177   3.855  31.107   8.418 -0.2513  0.2148  0.0634
69190W        W44178  26.720  32.337   2.718  0.0380 -0.0609  0.1225
69191W        W44179  16.745   7.043  11.522 -0.1275 -0.0857  0.3684
69192W        W44180  19.843  25.150  22.082  0.0878 -0.3515  0.0341
69193W        W44181  27.251  32.814  23.178 -0.1610  0.0317 -0.0348
69194W        W44182  34.805  30.688  17.423  0.1612  0.0578 -0.2708
69195W        W44183  22.384   2.956  14.830  0.0971  0.0354  0.2771
69196W        W44184  10.177  24.765  23.689 -0.2497 -0.2696 -0.0141
69197W        W44185  13.670   4.902   3.860 -0.3446  0.1115  0.0228
69198W        W44186  10.617   5.657   8.088 -0.1277 -0.1151  0.2683
69199W        W44187   8.322   5.865   6.486  0.0364  0.0368 -0.1633
69200W        W44188  29.181   5.372   3.055  0.0815  0.2591  0.1026
69201W        W44189  10.104  33.201  25.619  0.1280  0.1928  0.0863
69202W        W44190  12.155  11.713  10.649 -0.2247  0.0167  0.2365
69203W        W44191  28.224  14.203  25.515  0.2859 -0.1110 -0.1080
69204W        W44192  27.943   1.769  22.623  0.0900  0.1238  0.3759
69205W        W44193  30.048  21.975   7.380 -0.0074  0.6081 -0.0606
69206W        W44194   2.638  22.413  16.847  0.1730 -0.2702  0.2136
69207W        W44195  28.549   5.325  20.124 -0.1803 -0.0273  0.1109
69208W        W44196  10.985  29.497  26.125 -0.1445 -0.1678  0.0739
69209W        W44197   9.806  34.011  10.968  0.3557  0.2713  0.1100
69210W        W44198  16.572  15.694   3.052 -0.0729 -0.0154 -0.0206
69211W        W44199  27.825  14.815  15.606 -0.1880 -0.3577 -0.0513
69212W        W44200  26.669  29.255  17.480 -0.0355  0.0597 -0.0453
69213W        W44201  21.293  14.039  23.107  0.3084 -0.0441 -0.1736
69214W        W44202  21.047   7.996   0.161 -0.1303 -0.2490  0.1369
69215W        W44203  12.152  30.537  11.400  0.0349 -0.2155  0.1020
69216W        W44204  29.792   7.970  14.179 -0.0169  0.0704  0.0408
69217W        W44205  18.466  21.672  13.253 -0.0239 -0.2428  0.1602
69218W        W44206  15.807   9.724   4.271  0.1347  0.3151 -0.0662
69219W        W44207  18.381  11.856   0.219 -0.1000  0.0734  0.0410
69220W        W44208  28.173   9.038  10.156  0.3627  0.0585 -0.0633
69221W        W44209  33.717  14.337   9.623  0.1815  0.4078 -0.3344
69222W        W44210   3.031  28.605   6.840  0.1452 -0.1259 -0.2310
69223W        W44211  32.170  29.575  25.102  0.1018  0.0575 -0.0050
69224W        W44212  12.809  14.325  25.582  0.1305 -0.2016  0.1332
69225W        W44213  14.515   6.034  20.017 -0.0618  0.1512 -0.2966
69226W        W44214   2.483   0.848  21.186  0.1875 -0.5206  0.0085
69227W        W44215  18.171  33.764  18.880  0.0174  0.4485  0.1365
69228W        W44216   6.797  22.780  26.025 -0.0810  0.2210 -0.2984
69229W        W44217  25.270  23.178   1.156  0.2598  0.0143  0.3531
69230W        W44218   5.873  29.845  12.923 -0.0042 -0.4462 -0.0448
69231W        W44219  34.511  34.065  17.456  0.1981  0.1971 -0.3018
69232W        W44220  10.305   4.180  20.199  0.1067 -0.0937 -0.0705
69233W        W44221  13.116  10.783  25.647 -0.2466 -0.3421 -0.4615
69234W        W44222   6.797   6.780   4.664 -0.2133  0.1227 -0.0725
69235W        W44223   0.947   4.848   0.340 -0.1104  0.0875  0.1433
69236W        W44224   2.233  31.446   4.322 -0.0603 -0.3584  0.1738
69237W        W44225  12.456   3.398   8.226  0.0076 -0.0809  0.1475
69238W        W44226  21.649   9.968  18.281 -0.1173  0.0813 -0.0274
69239W        W44227   5.146  24.959   2.683  0.1467  0.1154 -0.0597
69240W        W44228  14.811  27.801   7.354  0.1994  0.0394  0.1192
69241W        W44229  23.727  25.188  15.226 -0.0297 -0.0906 -0.0793
69242W        W44230   1.920  18.629  25.666  0.0900  0.1683  0.0025
69243W        W44231  18.077   5.710   8.070  0.0325 -0.0771 -0.0332
69244W        W44232  15.205   1.449  23.234 -0.0051 -0.2112  0.5675
69245W        W44233  19.837  28.835   2.039  0.0460  0.1247  0.2133
69246W        W44234  28.494  27.825  11.589 -0.0942 -0.1088 -0.3907
69247W        W44235   1.117  28.054  23.329  0.2050  0.3883 -0.0246
69248W        W44236  21.681   2.443   3.095 -0.1223  0.2533  0.1374
69249W        W44237  10.540  22.131  12.110  0.1655  0.1864  0.2987
69250W        W44238  30.317  26.568  11.750 -0.2572 -0.0600  0.1141
69251W        W44239   9.068   7.841   3.830  0.0291 -0.1011  0.1859
69252W        W44240  19.667  29.092  24.005  0.2469 -0.0978 -0.2434
69253W        W44241   4.200  19.939   3.504 -0.3012 -0.0045 -0.0081
69254W        W44242  22.624   7.421  15.310 -0.1297 -0.3379 -0.0570
69255W        W44243   7.958   6.489   8.539 -0.1674 -0.1324  0.0878
69256W        W44244   5.499  27.439  25.279 -0.0096 -0.0895  0.2949
69257W        W44245   7.101  35.002   6.167 -0.0847  0.1791  0.1993
69258W        W44246  18.868  27.311   0.119  0.0436  0.0556 -0.1029
69259W        W44247  26.181   7.756  23.746 -0.0840  0.0471 -0.0412
69260W        W44248  19.196   1.675   2.160  0.0689  0.0390 -0.1839
69261W        W44249   9.349  24.708   9.605 -0.1389 -0.0634  0.3553
69262W        W44250   4.981   5.601   7.235  0.2502  0.1824  0.1953
69263W        W44251  22.761   3.755   8.353  0.0214  0.2422  0.1638
69264W        W44252  10.285  11.868   2.362 -0.0147  0.0958 -0.1495
69265W        W44253  21.895  31.349   4.374  0.1019  0.1347 -0.0127
69266W        W44254   5.339  32.278   0.420 -0.0079 -0.2010 -0.1860
69267W        W44255   2.455  24.102  18.588  0.0375 -0.1343 -0.0469
69268W        W44256   4.493  33.321  21.424  0.0272 -0.0688  0.4173
69269W        W44257  28.823  20.572  16.205  0.1216 -0.3153  0.3160
69270W        W44258  10.885  29.476   6.864  0.2296 -0.3350 -0.3566
69271W        W44259  31.381   7.285   1.371  0.1607 -0.1228  0.0991
69272W        W44260   8.284   4.074  14.271 -0.3910  0.0027 -0.1581
69273W        W44261  24.062  19.782  11.312 -0.1622  0.2368 -0.2076
69274W        W44262   8.590  27.625  24.269  0.4167 -0.0161 -0.0048
69275W        W44263  19.443  20.392   0.078  0.3797  0.0627 -0.1473
69276W        W44264   7.737  19.367  23.686 -0.0356  0.0381  0.0729
69277W        W44265  23.799  28.372  14.739  0.0660  0.1785 -0.0728
69278W        W44266  30.934  13.493  24.661  0.0474 -0.2781  0.1718
69279W        W44267  13.142  10.241  25.203  0.0297  0.2569  0.1472
69280W        W44268  26.425  29.358  13.013  0.0118 -0.2179 -0.1844
69281W        W44269   4.703   5.240   7.093  0.1815  0.2705  0.0833
69282W        W44270   8.833   6.266   8.579 -0.2291  0.2437  0.1420
69283W        W44271  25.855   2.180  18.481 -0.0466  0.1365 -0.1203
69284W        W44272  20.298  31.893  24.365 -0.2543  0.2248 -0.1772
69285W        W44273  20.883  34.465  15.699 -0.0201  0.1355  0.1915
69286W        W44274  10.033   9.930   7.145 -0.0806  0.1221  0.0251
69287W        W44275  25.480   4.727  15.883 -0.1916 -0.0361 -0.2696
69288W        W44276  17.737  26.583  25.594  0.1089  0.0465 -0.2200
69289W        W44277  18.906  27.567   8.417 -0.4137  0.0434 -0.0113
69290W        W44278  11.431  13.129  11.316  0.1545  0.0568 -0.0590
69291W        W44279  24.068   9.667   0.482 -0.0303 -0.0271  0.1560
69292W        W44280  27.507  14.974  22.552 -0.1424  0.0043  0.0050
69293W        W44281  17.184  21.229  21.142 -0.0009 -0.0198  0.1140
69294W        W44282   3.833  22.916  21.841 -0.0599 -0.0716  0.0714
69295W        W44283  32.652  31.967  13.930 -0.1774 -0.0136  0.1951
69296W        W44284   7.369  32.130   0.069  0.0938 -0.3682  0.2925
69297W        W44285  28.351   1.947   2.949 -0.0669  0.0655  0.1936
69298W        W44286  32.352  23.874  12.824  0.0347 -0.1454  0.0477
69299W        W44287  10.228  11.140   5.490 -0.1674 -0.4042 -0.0819
69300W        W44288  13.359  31.604  10.786  0.2613  0.3367 -0.3818
69301W        W44289   1.697  11.841  19.950  0.4411  0.2013 -0.3493
69302W        W44290  20.765  31.029  24.626  0.1159  0.1938  0.1907
69303W        W44291  26.625  12.931   6.920  0.3186  0.1952 -0.1433
69304W        W44292  10.310  17.919   8.219  0.0550 -0.0492  0.1861
69305W        W44293  12.303   8.478   2.802  0.4200 -0.0364  0.2506
69306W        W44294  29.122  34.761  19.637  0.0324  0.1086  0.2104
69307W        W44295  12.901  31.537   6.187  0.1723 -0.1144  0.0609
69308W        W44296  25.239  10.998  24.251  0.0584  0.0214  0.1628
69309W        W44297  21.220  17.671   3.842 -0.2611  0.2161  0.0026
69310W        W44298  11.610  15.017   6.908 -0.0874  0.0267  0.2753
69311W        W44299   0.217  12.533  11.998  0.2533 -0.0529 -0.2058
69312W        W44300   3.520  35.074  25.756 -0.0552  0.2515 -0.0518
69313W        W44301  29.373   2.216  18.270 -0.0807 -0.1744 -0.3434
69314W        W44302   8.275   6.074  25.042  0.0737  0.3806 -0.0050
69315W        W44303   6.226  18.267  25.061 -0.0796 -0.3261  0.2393
69316W        W44304  33.963   3.502  23.139  0.3142  0.0008  0.0057
69317W        W44305  13.838  34.016   0.513  0.2005 -0.1165 -0.0567
69318W        W44306  21.873   5.881   3.082 -0.1722 -0.1189  0.0928
69319W        W44307  25.526  32.417  22.333 -0.1993 -0.0081 -0.0711
69320W        W44308   5.221  24.305   5.237 -0.2717 -0.1272  0.2023
69321W        W44309   4.394   9.481   3.093 -0.2271  0.3238 -0.2702
69322W        W44310   6.468   2.507  21.718  0.0692  0.1720  0.0491
69323W        W44311  12.285  22.924  10.525 -0.0448 -0.0069  0.0963
69324W        W44312  12.110  31.124   4.328  0.0500 -0.1541 -0.2373
69325W        W44313  27.215   3.747  15.824  0.2570  0.1700  0.1285
69326W        W44314   5.154  18.904  19.860 -0.0193 -0.4295  0.1068
69327W        W44315  17.825  14.470  11.036  0.0078  0.3033  0.2061
69328W        W44316   9.631  31.284   0.756  0.0421 -0.1590 -0.4330
69329W        W44317   6.572   2.689   2.120 -0.0980  0.0224  0.1931
69330W        W44318   1.504   4.598   6.331 -0.0155 -0.2992  0.3558
69331W        W44319  10.368   1.110  11.211  0.0580 -0.2505 -0.1073
69332W        W44320   6.525  22.370  21.998  0.3557 -0.2291  0.0038
69333W        W44321  31.435   3.264  24.392  0.0341 -0.1271  0.2795
69334W        W44322   3.267  15.702   0.274  0.0339 -0.1650 -0.1860
69335W        W44323  33.891  15.712  10.371  0.2170  0.2699  0.0921
69336W        W44324   5.527  11.502  22.864 -0.3155 -0.0650 -0.2503
69337W        W44325  20.230   8.502  19.610 -0.0306  0.0182 -0.0460
69338W        W44326  23.705  32.556  19.124 -0.1601 -0.1262 -0.1709
69339W        W44327  26.463  17.784  15.649 -0.0486 -0.2459  0.2487
69340W        W44328  10.676  23.888  26.049  0.3009 -0.1416  0.0951
69341W        W44329  28.543  17.708  22.096 -0.1471 -0.0317  0.0866
69342W        W44330  25.617   7.616  10.236 -0.1601 -0.0077  0.4073
69343W        W44331  34.016  16.938  11.511 -0.1087 -0.0552 -0.0080
69344W        W44332  12.878   5.503   2.730  0.1182 -0.0331  0.0162
69345W        W44333  28.283   7.700  25.534  0.0632  0.4999 -0.1712
69346W        W44334   8.336  33.545   7.454  0.2249 -0.1408 -0.2197
69347W        W44335  24.863  14.520  20.410 -0.1074  0.5092  0.0235
69348W        W44336  22.082  23.671  20.662  0.0445  0.0730 -0.2844
69349W        W44337  16.768  29.245  21.755 -0.2296  0.1865 -0.2446
69350W        W44338  12.125   7.407  23.302  0.2940  0.1528 -0.0076
69351W        W44339   6.880  25.174   4.473  0.1532  0.2593 -0.0182
69352W        W44340  16.647  15.383   4.850 -0.2960 -0.0507  0.0876
69353W        W44341  22.594  27.389  22.383 -0.2653  0.0850 -0.0494
69354W        W44342   3.705   1.925  18.907 -0.0680 -0.3616 -0.1031
69355W        W44343   0.209  20.197  21.765  0.0209  0.0834  0.3126
69356W        W44344  11.251  15.310  22.307  0.0043  0.3080 -0.1011
69357W        W44345  29.349  20.302  23.592 -0.1025 -0.2442 -0.0271
69358W        W44346   4.691  18.039  17.390 -0.2907 -0.0085  0.0225
69359W        W44347  27.430  15.465  11.141  0.1828  0.1477  0.0495
69360W        W44348  30.492  25.907  25.765  0.0549 -0.2036 -0.2266
69361W        W44349  19.032  10.097  10.520 -0.0082  0.3859 -0.2624
69362W        W44350  31.540   8.824  16.347  0.1100 -0.0800  0.3435
69363W        W44351  27.495  26.174  21.118  0.0395 -0.2829 -0.1900
69364W        W44352   6.888  27.556   2.987  0.2430 -0.1568  0.0433
69365W        W44353   1.075  21.321  14.750  0.0572 -0.2578 -0.0862
69366W        W44354   3.159  33.688  21.640  0.1647  0.1427  0.2973
69367W        W44355   6.396  16.936   6.913  0.0453  0.0130 -0.2273
69368W        W44356   7.407   4.675  22.677  0.1250 -0.0647 -0.0072
69369W        W44357  24.236  11.521  15.463 -0.0208  0.0067  0.0452
69370W        W44358   9.871   7.139   1.991 -0.3273  0.4272 -0.1295
69371W        W44359  20.786   4.097  18.988 -0.0933 -0.1908 -0.1273
69372W        W44360  27.597  31.233  15.098  0.0279  0.2768  0.0840
69373W        W44361  16.225  14.611  12.271 -0.0615 -0.3433 -0.0737
69374W        W44362   6.911  22.552   5.662 -0.1755 -0.0710  0.2338
69375W        W44363  32.668  27.583  11.551 -0.0309 -0.0026  0.0543
69376W        W44364  15.392  31.229  22.115  0.3065 -0.1183  0.1871
69377W        W44365  16.728   6.062   6.595 -0.0297  0.0552 -0.0175
69378W        W44366  22.957  26.380  15.517 -0.1116  0.1136  0.0958
69379W        W44367  18.839  26.899   2.000 -0.3144  0.1162  0.1148
69380W        W44368  25.955  35.135  15.745 -0.0060  0.0884  0.0334
69381W        W44369  23.024  33.758  16.238 -0.1080  0.0457  0.0193
69382W        W44370  13.407  10.308   5.736 -0.2016  0.0651  0.2877
69383W        W44371  19.930  31.006   4.617  0.1442 -0.2608  0.0040
69384W        W44372  29.858  31.258  10.830  0.0728  0.3770 -0.1522
69385W        W44373  26.144   5.956  21.508  0.0368 -0.0733  0.2365
69386W        W44374  34.009  12.684   6.786  0.1979  0.1472  0.0353
69387W        W44375  33.062  10.201  25.101  0.0111 -0.2913 -0.0689
69388W        W44376  32.621  29.696   1.644 -0.3731  0.0173  0.0460
69389W        W44377   9.723  21.265   5.812  0.0442  0.0313  0.0628
69390W        W44378  25.577   8.889  14.697 -0.0581  0.1750 -0.1120
69391W        W44379  16.246  31.001  19.746 -0.0874  0.2881  0.0123
69392W        W44380  28.501  24.792  21.591  0.0594  0.2866 -0.3892
69393W        W44381  16.012  26.634   9.042  0.1374  0.0937 -0.0122
69394W        W44382  29.375   4.892  23.056  0.2167  0.2188 -0.2186
69395W        W44383  34.768  21.429  14.506  0.1147  0.0784  0.0641
69396W        W44384  13.876  10.354   9.664 -0.2551  0.0198  0.1599
69397W        W44385   5.402  33.624   8.424 -0.0223  0.0977  0.1080
69398W        W44386  22.491  16.242  17.192 -0.3037  0.4176 -0.2203
69399W        W44387  33.464  30.317   0.176 -0.0762 -0.2698  0.3035
69400W        W44388  14.445  11.860   8.778 -0.0688 -0.0926  0.0370
69401W        W44389   2.529  27.507  21.062  0.0137 -0.0657  0.0061
69402W        W44390  11.090   7.740  11.704  0.2445 -0.2891  0.0452
69403W        W44391  31.270  10.532  17.526  0.0078 -0.2576 -0.1617
69404W        W44392  11.359  29.631  16.036 -0.3293 -0.1021 -0.1369
69405W        W44393  14.263   4.518  23.001  0.2747  0.0093 -0.0990
69406W        W44394  29.430  23.785  14.254  0.3962  0.1930 -0.1737
69407W        W44395  32.781  22.386   8.079 -0.1210 -0.1027  0.1696
69408W        W44396  28.372  21.855   6.555 -0.2328 -0.2309 -0.2165
69409W        W44397  14.287  30.201  11.252  0.2474  0.3622 -0.0859
69410W        W44398   6.399  22.413   4.234 -0.1091 -0.3058  0.0436
69411W        W44399  30.555  33.070  22.530 -0.1517  0.2755  0.2006
69412W        W44400  11.089  29.100   2.829 -0.2822  0.2616 -0.0699
69413W        W44401  17.101   9.647  21.714  0.0889  0.2536 -0.3650
69414W        W44402  24.311  23.371  13.395  0.1744 -0.2735  0.0917
69415W        W44403  17.877  18.144   6.431 -0.3507 -0.0156  0.1527
69416W        W44404  18.768  22.513  25.281  0.0976 -0.0358  0.0135
69417W        W44405  12.032  15.936   1.805  0.0505  0.0382 -0.1365
69418W        W44406   6.978  18.651  12.161  0.5121 -0.0521  0.1022
69419W        W44407   7.723  12.945  11.351  0.2168 -0.2766 -0.1868
69420W        W44408  19.432  29.376  15.931 -0.0467  0.3523 -0.1560
69421W        W44409   9.272  20.636   7.365 -0.1148 -0.1251 -0.0909
69422W        W44410  24.564  23.845  13.487 -0.0308  0.0301 -0.0295
69423W        W44411   2.235  23.703  17.019  0.0188 -0.0519  0.1275
69424W        W44412  28.213  28.625   2.646 -0.0620  0.0689 -0.2967
69425W        W44413   0.465  19.657   0.320  0.0745  0.0514 -0.0658
69426W        W44414  11.071  15.945  10.078 -0.1243  0.2267 -0.5712
69427W        W44415  26.082  34.020  25.825 -0.0935 -0.0527  0.0854
69428W        W44416  30.585  20.246  22.102 -0.1699  0.1949 -0.2737
69429W        W44417   5.776   5.476  24.550  0.2092 -0.1890 -0.3837
69430W        W44418   3.607  25.637  20.190 -0.0714 -0.4339 -0.0235
69431W        W44419  17.170  22.798   8.840  0.0334 -0.3453 -0.1683
69432W        W44420  12.278  27.219   8.214  0.0399 -0.3081 -0.2179
69433W        W44421  16.805  17.020  25.200 -0.2915 -0.2960  0.0894
69434W        W44422  21.637  25.030  16.338  0.0533 -0.1371 -0.1353
69435W        W44423  11.031  31.985   4.100 -0.2287 -0.3931  0.0132
69436W        W44424   2.275   1.246   0.385 -0.0742 -0.1447  0.2417
69437W        W44425  34.157  34.334  15.735  0.1251  0.0151 -0.0081
69438W        W44426  23.927   9.784  23.216 -0.4294 -0.1150  0.1625
69439W        W44427   3.299   9.862  23.741 -0.1373  0.1632  0.0176
69440W        W44428  17.747  12.218   1.472 -0.1064 -0.1990 -0.1980
69441W        W44429  31.222  12.748   8.414  0.0592  0.3514  0.0042
69442W        W44430  19.207  19.305  18.089 -0.0284  0.1248 -0.0063
69443W        W44431   7.104  27.268   3.439 -0.0613 -0.0508  0.2108
69444W        W44432  30.618  30.395  14.980 -0.0516  0.0124 -0.1165
69445W        W44433  31.340   1.641   4.307 -0.1941 -0.0525  0.0670
69446W        W44434  34.515  32.042  18.177  0.0720  0.0061  0.0753
69447W        W44435   9.156  22.241  11.939  0.2090  0.0901 -0.2240
69448W        W44436  12.003   3.651   8.205 -0.0497  0.1556  0.2176
69449W        W44437  15.461   0.412   5.336  0.0596 -0.1591 -0.1352
69450W        W44438   4.009  29.051   1.338  0.2432 -0.1791 -0.2805
69451W        W44439  23.542  29.582   3.430  0.2565  0.0455 -0.1430
69452W        W44440  26.106  21.040   9.528  0.0082 -0.3225 -0.1419
69453W        W44441  35.339  26.239  19.005 -0.1665  0.0485 -0.0614
69454W        W44442  27.504   0.087  11.923 -0.1691 -0.2293 -0.0827
69455W        W44443  33.370  29.712   0.724 -0.3247 -0.2347 -0.0469
69456W        W44444  20.023  28.067   3.185 -0.0946  0.3368 -0.0563
69457W        W44445  19.492   2.370   6.490 -0.0601  0.2142  0.1609
69458W        W44446   2.461  24.824   5.735  0.0168  0.3015  0.2581
69459W        W44447  34.251   4.320  23.351  0.1809 -0.0675  0.0886
69460W        W44448   7.392  16.411   9.470  0.1331  0.0760  0.1460
69461W        W44449   1.135  16.221  24.156 -0.0192 -0.0006  0.0830
69462W        W44450   1.976  21.750  23.304  0.0071 -0.0490  0.0107
69463W        W44451  12.984  29.207  12.269  0.2145  0.1945 -0.0699
69464W        W44452   1.246   5.032  17.803  0.3127 -0.0657  0.0714
69465W        W44453  29.347   6.500  20.759 -0.0229 -0.0533 -0.0943
69466W        W44454  32.586  18.739  19.313  0.0492 -0.0775 -0.0824
69467W        W44455   3.888  16.865  25.050 -0.0169  0.2066 -0.3238
69468W        W44456  16.410  12.143   8.019  0.2209  0.1591 -0.1644
69469W        W44457  32.380   8.157   0.920 -0.2181  0.1739  0.3517
69470W        W44458   7.163  29.753   3.916  0.1127  0.0437  0.2305
69471W        W44459  23.963   6.474  13.265 -0.2949  0.1646 -0.3013
69472W        W44460   1.064  23.342  20.974  0.0092 -0.0090  0.0168
69473W        W44461  32.717  30.019  24.453  0.0444 -0.1169  0.0064
69474W        W44462  18.944  13.211   7.105  0.2634 -0.3301  0.1819
69475W        W44463  19.100  31.000   1.679 -0.1515  0.1238 -0.0401
69476W        W44464  19.613  34.949   2.996 -0.0372 -0.0552  0.2001
69477W        W44465  17.534  28.761   7.371  0.0937 -0.0631  0.1264
69478W        W44466   1.794  10.071  21.333  0.0088  0.1053  0.2391
69479W        W44467  28.097  17.276  21.502 -0.2553  0.3919 -0.1882
69480W        W44468  23.573  26.017  25.239 -0.2297  0.2090 -0.2457
69481W        W44469  33.209  11.612  19.145 -0.1705  0.1002  0.1063
69482W        W44470   2.181   4.513   7.553 -0.0873 -0.0243 -0.0517
69483W        W44471  34.414  34.162  14.743  0.0119  0.1375  0.1935
69484W        W44472  34.401  32.728  16.531  0.1704  0.0448 -0.0436
69485W        W44473  24.490  16.056  22.761 -0.1715  0.3624  0.0718
69486W        W44474   1.938   0.085   8.778  0.0901 -0.0999 -0.0015
69487W        W44475   1.488   4.593   2.257  0.0358  0.2241 -0.0808
69488W        W44476  20.998  32.332  21.020 -0.0083 -0.0261  0.0311
69489W        W44477  31.883   0.619  16.951 -0.2403  0.0600 -0.0291
69490W        W44478   5.185  33.876   0.907  0.3155  0.0018  0.3595
69491W        W44479   4.918   4.849  19.750 -0.0326 -0.1138 -0.1108
69492W        W44480   7.216  14.910   7.247 -0.1942 -0.0372  0.2238
69493W        W44481  29.239  22.671  14.691  0.0266 -0.1046  0.1603
69494W        W44482  13.681  23.329  15.003  0.3822 -0.1284  0.5120
69495W        W44483  16.437  22.420  24.563 -0.1319  0.0363 -0.0897
69496W        W44484  15.612   0.832   3.356  0.1265  0.2309 -0.1088
69497W        W44485   4.905  31.692   6.268 -0.0938  0.1313  0.0938
69498W        W44486  15.673  13.759  19.399  0.0444 -0.1063  0.2483
69499W        W44487  32.952  22.218  20.709  0.1933  0.1337 -0.2191
69500W        W44488  28.023  34.467  21.589  0.0037 -0.1422  0.2940
69501W        W44489  19.327  12.204  17.018 -0.0221 -0.0525 -0.0569
69502W        W44490   4.369  14.222  24.271  0.1906 -0.2992  0.1618
69503W        W44491   5.143  24.263   6.943  0.4700 -0.0651  0.2092
69504W        W44492  29.138  14.368  16.496  0.0115  0.0804 -0.0441
69505W        W44493  30.896   0.648  25.593 -0.1899 -0.2500 -0.1942
69506W        W44494  25.967  26.731  15.815 -0.0209 -0.2052  0.1595
69507W        W44495   4.737   9.820   4.190  0.1846  0.3367 -0.0581
69508W        W44496  19.237  31.145   0.114 -0.0332  0.2279  0.1008
69509W        W44497  22.917  27.889  26.178  0.3016 -0.1804  0.1086
69510W        W44498  25.311  21.006  25.521  0.1501 -0.2076 -0.2299
69511W        W44499  32.507  12.486  24.306 -0.2632  0.1870  0.3459
69512W        W44500  28.031  23.568  15.746 -0.2232  0.1260 -0.0600
69513W        W44501  17.535  20.149   8.260  0.1438  0.0074  0.2947
69514W        W44502   9.479  29.374   7.315 -0.1411  0.1783  0.1568
69515W        W44503  14.043  23.330  15.434  0.0562  0.2433  0.0748
69516W        W44504   9.757  26.123   4.475 -0.0195  0.2061 -0.0894
69517W        W44505   8.344  24.723  22.182 -0.1350  0.1301  0.1015
69518W        W44506   2.949   7.001   2.095  0.1090  0.4148 -0.1423
69519W        W44507  25.534   0.607   0.827 -0.0475 -0.0410  0.0377
69520W        W44508  31.789   0.416  23.999 -0.0797  0.1268 -0.4314
69521W        W44509   9.682  24.041  14.002 -0.0819 -0.3083  0.1269
69522W        W44510  12.125   4.184   6.571 -0.0064 -0.0560 -0.0658
69523W        W44511  11.825   4.892  22.089  0.0769 -0.0019  0.2964
69524W        W44512  19.846  24.090  25.503  0.1112 -0.0113 -0.0493
69525W        W44513  11.797  11.432   4.073 -0.0425 -0.0902 -0.2277
69526W        W44514   1.475  25.258  22.423 -0.2493 -0.0958  0.1342
69527W        W44515  12.745   7.546  11.429  0.2336  0.0617 -0.4075
69528W        W44516   0.708  10.029  12.895  0.2314  0.0897  0.2491
69529W        W44517  31.302  21.201  25.687 -0.4547 -0.0452 -0.0807
69530W        W44518   2.711  21.207  18.950  0.0083 -0.1338  0.2916
69531W        W44519   6.897  27.679  12.866  0.1871  0.1039 -0.1709
69532W        W44520  17.603  18.817   8.678  0.2300 -0.1603 -0.0945
69533W        W44521  21.899  16.746  15.949 -0.0409  0.0739  0.0784
69534W        W44522   4.766  21.165  25.529 -0.0456  0.1115  0.3522
69535W        W44523   7.000  14.679   6.301  0.2225 -0.0835  0.1293
69536W        W44524   4.326   2.563  11.269 -0.0706  0.2792 -0.0192
69537W        W44525  26.650   9.188  22.907  0.0671  0.3837  0.0994
69538W        W44526   2.074  33.670   4.901  0.0334  0.0183  0.1590
69539W        W44527  31.177  20.399  25.608 -0.0247  0.3119  0.1158
69540W        W44528  34.208  23.581  17.618 -0.0117  0.0851 -0.4193
69541W        W44529  25.659  21.612  10.714  0.0882  0.0214  0.1934
69542W        W44530  28.456  14.064  15.693 -0.0857  0.0025 -0.2574
69543W        W44531  16.471   2.778   3.026 -0.0281 -0.0812  0.0610
69544W        W44532  21.898  30.618  14.326 -0.0125  0.1510 -0.2060
69545W        W44533  26.711   4.790   5.203  0.0519  0.2277 -0.3659
69546W        W44534  10.996  21.064   6.866 -0.2404 -0.3576  0.0152
69547W        W44535  16.791  13.665  25.014 -0.1664 -0.1624 -0.2703
69548W        W44536   1.453  14.183  22.158 -0.2062  0.0074 -0.0616
69549W        W44537  28.276  35.356  14.151  0.1433  0.1828  0.0282
69550W        W44538  33.642   4.880   5.845  0.0062  0.2153 -0.0199
69551W        W44539  24.813   6.479  23.589 -0.2539  0.0902 -0.1277
69552W        W44540  25.561  24.231   9.699 -0.0614 -0.1127  0.2497
69553W        W44541   9.282  34.072  24.789 -0.2040  0.3341 -0.0843
69554W        W44542  17.846   5.656  20.809 -0.0494 -0.1548 -0.0084
69555W        W44543  34.443  10.428  12.139  0.2625 -0.0284  0.2235
69556W        W44544  20.199   9.898   3.972 -0.1291 -0.2814  0.3117
69557W        W44545  15.365  15.319  24.399 -0.0116 -0.1047 -0.2192
69558W        W44546  22.106   3.351  24.470 -0.0559  0.1529 -0.1146
69559W        W44547   3.430  31.935   2.803 -0.2703  0.1646  0.2858
69560W        W44548   1.912  13.561   3.269  0.1373 -0.0428 -0.0357
69561W        W44549  17.737   5.505   3.477  0.0631 -0.1622 -0.0228
69562W        W44550   9.008  21.460   8.312 -0.0114  0.1658  0.0404
69563W        W44551  27.706   9.468  10.524 -0.1764 -0.1247  0.0805
69564W        W44552  25.149  31.584   0.974  0.0509  0.0754 -0.2563
69565W        W44553   0.593  14.244   1.454  0.1565 -0.1173  0.2914
69566W        W44554  12.654  25.987  23.547  0.1373  0.2415  0.1066
69567W        W44555  15.377  23.879   2.966  0.1101  0.1838  0.2248
69568W        W44556  12.619  29.251   0.747  0.3384  0.0788  0.0306
69569W        W44557  26.120  34.102   5.142 -0.1525 -0.1150 -0.0579
69570W        W44558   1.411  19.632  13.322 -0.2329 -0.1368  0.1661
69571W        W44559  30.419  20.147  12.161 -0.3316  0.1693 -0.0022
69572W        W44560  13.908  20.300   0.175 -0.4089  0.2889  0.0987
69573W        W44561  32.434   9.829  25.833  0.0691  0.0458 -0.1552
69574W        W44562   9.132  14.924  18.262 -0.0269  0.0143 -0.3308
69575W        W44563  30.196   4.768  14.576  0.0037  0.2705  0.2542
69576W        W44564   3.853  20.673   3.225  0.0992 -0.0127 -0.4834
69577W        W44565  16.729  14.244   3.088  0.1624  0.0415 -0.0023
69578W        W44566  20.843  33.335  19.114  0.3437 -0.0870  0.0700
69579W        W44567  31.594  14.132  14.951 -0.2281  0.1105 -0.0742
69580W        W44568  16.392  17.805  25.138 -0.2695 -0.0193  0.1787
69581W        W44569   5.286   3.240  10.789  0.3134  0.1699 -0.1342
69582W        W44570  31.579  33.928  18.794 -0.3751 -0.0659  0.0499
69583W        W44571   3.378  19.699  19.549  0.1486  0.2563 -0.1640
69584W        W44572  27.896  12.618  17.763  0.0999  0.1373  0.0999
69585W        W44573   3.558  30.744  12.149  0.3368 -0.0662 -0.0194
69586W        W44574  31.985  14.173  16.056  0.2734  0.1669  0.0859
69587W        W44575   5.555   2.171  22.570  0.0132 -0.0915  0.2713
69588W        W44576  19.337  21.187  25.268  0.2196 -0.3810 -0.3168
69589W        W44577  10.415  27.775  14.472  0.0141 -0.1552  0.0512
69590W        W44578  24.069  24.302  24.179  0.0037  0.4221 -0.2624
69591W        W44579  18.545  19.399  10.733 -0.3731 -0.1186 -0.1279
69592W        W44580  28.340  18.591  25.766  0.1104 -0.0652 -0.0644
69593W        W44581  16.490  11.280   5.970  0.0647  0.2844 -0.0342
69594W        W44582  12.863   4.398  19.575 -0.0781  0.1323 -0.2104
69595W        W44583   7.245  30.426   4.372 -0.2258 -0.0269 -0.0724
69596W        W44584   4.396  25.779  24.484 -0.1970  0.4363 -0.0455
69597W        W44585  24.118  23.886  19.283 -0.0027  0.1987  0.1870
69598W        W44586   6.595  27.220  12.921 -0.0573  0.0925 -0.1439
69599W        W44587   0.126  10.126  11.379 -0.1292  0.0253 -0.1091
69600W        W44588  29.214  24.582  22.927  0.3806 -0.1169  0.4576
69601W        W44589  10.074  28.600  11.459 -0.0301 -0.1378  0.0741
69602W        W44590  13.187  34.570  22.839 -0.0339  0.1824 -0.0470
69603W        W44591   0.965  29.117   6.736 -0.1161  0.1058  0.1175
69604W        W44592   1.847   7.365  24.102 -0.0690  0.1412 -0.1083
69605W        W44593  11.298  27.363   1.683  0.3799 -0.2118 -0.0937
69606W        W44594   8.658   2.487  18.977  0.1278  0.0927  0.0589
69607W        W44595  25.320  26.169  10.261  0.3160 -0.2129  0.0964
69608W        W44596   5.792  26.163   0.569 -0.1009 -0.1053  0.0531
69609W        W44597  23.514  27.904  16.335  0.2003 -0.0096 -0.0489
69610W        W44598  13.533   6.359   9.164 -0.1106 -0.0822 -0.0458
69611W        W44599   6.277  30.608  20.621 -0.2052 -0.0203 -0.0625
69612W        W44600  25.376   9.545  11.344 -0.2804 -0.0554 -0.0069
69613W        W44601   3.286  16.298   1.386 -0.0886  0.0206 -0.1354
69614W        W44602  34.234   1.238  21.466 -0.1286  0.4551 -0.0356
69615W        W44603  19.747  12.031   4.500 -0.1124 -0.3560 -0.3338
69616W        W44604  16.917  26.225  26.108  0.0199 -0.2612  0.1793
69617W        W44605  16.805  25.585  23.349 -0.0352 -0.2163  0.2236
69618W        W44606   6.507   6.963  20.274  0.0873 -0.0762 -0.2175
69619W        W44607  27.339  33.298   3.899 -0.3347  0.1702  0.1132
69620W        W44608   8.128  15.472   7.220  0.1246  0.1194  0.1779
69621W        W44609   3.592  12.556  16.187  0.0248  0.1160 -0.3848
69622W        W44610  12.414  31.855  10.449 -0.1799  0.0204 -0.1509
69623W        W44611   5.550  17.900  23.896 -0.0419  0.1656  0.0030
69624W        W44612  30.626   6.042   0.034  0.1965 -0.1624 -0.0838
69625W        W44613  11.828  34.681   6.319 -0.0334  0.2129  0.7372
69626W        W44614  20.394   1.406   8.338 -0.0222 -0.2863  0.0249
69627W        W44615  11.407  28.777  15.585 -0.1642 -0.2865  0.1412
69628W        W44616  15.577  23.868   6.281  0.0757 -0.0718  0.1318
69629W        W44617  30.480   0.486   0.144 -0.1123 -0.1834  0.0295
69630W        W44618  30.215   9.929   7.767 -0.1473 -0.2002  0.1777
69631W        W44619  11.233  34.312   8.124  0.0234 -0.1534  0.0731
69632W        W44620   5.157   3.923   4.431 -0.1760 -0.0274  0.1955
69633W        W44621  27.296  24.987   7.829 -0.0331  0.1747 -0.2125
69634W        W44622  29.260   6.540  18.915 -0.0958 -0.0023  0.0541
69635W        W44623  26.230  27.092  16.166  0.0546  0.0846 -0.3406
69636W        W44624   6.413  27.415   1.127 -0.0133 -0.2465  0.0685
69637W        W44625   3.060  34.755  23.992 -0.0723  0.0953  0.1430
69638W        W44626  30.029  10.415  19.794  0.0390 -0.0991  0.2874
69639W        W44627  11.144   7.606   0.827  0.2693 -0.0737  0.2586
69640W        W44628   1.442  18.961  11.204  0.1900 -0.1522  0.3616
69641W        W44629  22.805  13.123   0.172  0.2097 -0.0196 -0.3527
69642W        W44630   5.487   0.000   1.470 -0.0161 -0.0541 -0.0754
69643W        W44631  21.149  28.580  22.066  0.4421  0.3747  0.0875
69644W        W44632  32.287  33.370   1.413 -0.0230 -0.2024 -0.4204
69645W        W44633   9.759   2.116  21.216  0.2336  0.3096  0.0569
69646W        W44634   4.317  30.391   3.773  0.0695 -0.0899  0.0989
69647W        W44635  21.911  30.784  15.041 -0.0051  0.3408 -0.0819
69648W        W44636  21.238  21.224  19.821  0.0234 -0.1733 -0.0751
69649W        W44637  13.408   0.160   2.231  0.0177  0.0959 -0.0021
69650W        W44638  34.092   2.724  17.744  0.2132  0.0539  0.0774
69651W        W44639  31.661  12.488  14.257  0.0640 -0.0286 -0.0869
69652W        W44640   6.030  29.426  10.002  0.0011 -0.1114 -0.0754
69653W        W44641  14.660  11.618  10.534 -0.2461  0.1887  0.3330
69654W        W44642   2.226  12.328   3.705 -0.3484  0.1415  0.2158
69655W        W44643  12.985  23.152  15.490 -0.1497  0.1907 -0.1474
69656W        W44644  19.266   1.585   9.188 -0.0724  0.0012 -0.0117
69657W        W44645   0.230   4.559   5.316 -0.0127  0.0590  0.2108
69658W        W44646  14.313  33.077   6.918 -0.3068 -0.0257  0.1462
69659W        W44647  26.445   9.564  23.652 -0.3847  0.2858  0.1011
69660W        W44648  21.752  24.587  16.538  0.0209  0.1044  0.1745
69661W        W44649   9.106  32.679   9.645 -0.1377 -0.2841 -0.1376
69662W        W44650  18.925  22.119  25.033  0.1593  0.1088  0.1694
69663W        W44651  28.346  22.611   7.023  0.3307 -0.0018  0.0097
69664W        W44652  15.608   1.056   2.922 -0.0802 -0.4020 -0.2743
69665W        W44653  24.433   9.839  12.521  0.0979  0.1937 -0.0992
69666W        W44654   9.755   7.045  10.267  0.1166 -0.2840  0.0788
69667W        W44655  18.914  10.304  24.555  0.0723 -0.0493 -0.3035
69668W        W44656  31.745   9.296  18.712 -0.3275  0.0589  0.1963
69669W        W44657  19.836   0.540   4.485  0.0573  0.3235  0.2487
69670W        W44658  34.367  20.664  12.172  0.1667  0.2279  0.0277
69671W        W44659   8.621  19.163   5.917 -0.2830  0.2414  0.0269
69672W        W44660   3.618   4.204  23.738 -0.1604  0.2333  0.3155
69673W        W44661  23.702  13.042  14.718  0.0651 -0.5257 -0.1119
69674W        W44662  14.315  18.641  13.459  0.1562 -0.3009  0.1552
69675W        W44663   5.144  25.707   1.110  0.1504 -0.1798  0.0526
69676W        W44664  31.847  22.926   9.552 -0.2681  0.1283 -0.2425
69677W        W44665  14.498  15.789   7.235  0.0870  0.1547 -0.0445
69678W        W44666  24.917  32.145   2.216  0.3020 -0.2687  0.0995
69679W        W44667   0.739  10.878  16.760 -0.0535 -0.0388 -0.2041
69680W        W44668  20.182   1.319   1.595 -0.1910 -0.0699  0.0375
69681W        W44669  26.720  31.182  22.278 -0.1364 -0.1805  0.4516
69682W        W44670  27.163  28.599  16.976 -0.1584  0.0510  0.0180
69683W        W44671   8.429  31.689   5.856  0.2205 -0.1949  0.0349
69684W        W44672  22.411  35.047  16.346  0.1110 -0.4802  0.0402
69685W        W44673  29.493   3.493  16.627  0.2395  0.0965 -0.0745
69686W        W44674  29.808  29.046  14.239 -0.1900  0.1145  0.1286
69687W        W44675  17.166  31.361   5.625  0.2405  0.0459  0.1717
69688W        W44676   3.843   7.620   7.325 -0.0583 -0.3817 -0.3570
69689W        W44677   5.774  14.696   8.197  0.0522  0.0437  0.0924
69690W        W44678   5.174   9.011  18.426 -0.2195 -0.1717 -0.0570
69691W        W44679  16.555   1.122   7.099  0.0938 -0.0485  0.2495
69692W        W44680  15.474   8.052  18.114  0.2077 -0.1586  0.1350
69693W        W44681  26.982  16.683  13.453  0.1256 -0.2069  0.0838
69694W        W44682  10.403  15.148   7.943  0.0278  0.0287 -0.3029
69695W        W44683   9.805  33.151   1.761  0.0250 -0.1253 -0.3711
69696W        W44684   7.117  34.741  12.719  0.1868 -0.1236 -0.0292
69697W        W44685  31.797  12.893  14.625  0.0880  0.1463  0.0267
69698W        W44686  35.235  30.767  16.502  0.3466 -0.1689 -0.0378
69699W        W44687  15.415   0.813   6.622 -0.3760  0.1336  0.1183
69700W        W44688  33.528   8.796   1.707  0.1337  0.0158  0.1507
69701W        W44689  18.574  16.055  22.404 -0.5094  0.0072  0.4109
69702W        W44690   9.348  12.848   2.092  0.3076 -0.0640 -0.0669
69703W        W44691   6.421  25.089  25.074 -0.0215  0.1283 -0.3334
69704W        W44692  29.637   8.599  21.311 -0.2161  0.0165  0.1093
69705W        W44693   9.876   2.869   7.272 -0.0777 -0.3552  0.1511
69706W        W44694  19.127  11.437   1.798  0.0327  0.0604  0.0671
69707W        W44695  11.510  16.449   1.964  0.0652 -0.0897 -0.0909
69708W        W44696  10.040  33.537  21.177 -0.3131  0.0798  0.0368
69709W        W44697  33.794  13.067  18.153  0.2421 -0.1782 -0.0676
69710W        W44698  13.749   6.356   6.223 -0.1743 -0.1168 -0.0378
69711W        W44699  22.907   4.910   0.140  0.0163  0.3368 -0.1966
69712W        W44700  13.751  19.722  10.555  0.2513  0.0206  0.3117
69713W        W44701  25.041  16.430  23.080  0.4238  0.0617  0.0800
69714W        W44702   9.358   1.231  20.730  0.0036  0.2985  0.0059
69715W        W44703  21.640   1.812  20.189  0.0962 -0.3917  0.0248
69716W        W44704   7.227  18.406   9.345 -0.1026  0.1037 -0.1458
69717W        W44705   9.655  24.245  15.814  0.5323 -0.0752  0.2310
69718W        W44706  32.539  23.526  21.277  0.1267  0.1641  0.0338
69719W        W44707  28.579   3.563  17.755 -0.0893  0.1737  0.1819
69720W        W44708  20.539  25.868  17.423  0.0382 -0.1000  0.1458
69721W        W44709  24.468  18.012  16.657  0.0151 -0.2025 -0.2540
69722W        W44710  23.075  13.658  20.373  0.4418  0.0839 -0.1009
69723W        W44711  23.021  32.644  21.145  0.2838  0.0469  0.1281
69724W        W44712  21.871  23.264   3.911 -0.1031  0.2541 -0.0677
69725W        W44713  26.314  12.493  20.042 -0.3066 -0.2521 -0.0423
69726W        W44714  16.744  12.951  12.342 -0.1331 -0.1204  0.1391
69727W        W44715   4.401  27.070  22.426  0.1504 -0.0885 -0.1475
69728W        W44716  14.737  32.816  13.256 -0.2903  0.2180  0.0719
69729W        W44717   5.501  31.969   5.253  0.1194 -0.1272  0.0898
69730W        W44718  22.155  12.807   4.931  0.0145  0.0805 -0.0117
69731W        W44719   5.198   0.868  22.403  0.2696 -0.0862 -0.1157
69732W        W44720   7.611  12.233  21.594  0.1066  0.0733 -0.4285
69733W        W44721  31.434   9.280   8.755  0.2166 -0.1954 -0.0530
69734W        W44722  32.520   5.855   5.472  0.0678 -0.1364 -0.0221
69735W        W44723  23.340  28.370  23.758  0.0871  0.0848 -0.0344
69736W        W44724  11.310  28.563  13.696 -0.0330 -0.0574  0.1376
69737W        W44725  33.699  27.087  13.519 -0.1296  0.1804 -0.0756
69738W        W44726  28.770  21.360  18.038 -0.2074  0.1662 -0.1768
69739W        W44727   6.659   1.688   2.186  0.3058 -0.0100  0.0591
69740W        W44728  16.824  31.223   0.402 -0.0754 -0.0499  0.0794
69741W        W44729  27.420   9.061  16.944  0.0941  0.4511 -0.0008
69742W        W44730  34.993  19.676  19.158 -0.4686  0.1536 -0.0947
69743W        W44731  29.590  12.762  10.987  0.3589 -0.2227  0.1044
69744W        W44732   3.149  29.569  25.879  0.3080 -0.1432  0.0957
69745W        W44733  11.956  34.765  21.821 -0.1923  0.0216  0.2563
69746W        W44734  28.841  25.771  18.515 -0.2749  0.2713 -0.2454
69747W        W44735   8.748  35.104   3.222  0.0806 -0.0417  0.0998
69748W        W44736  11.060   9.408   4.159  0.1185 -0.0732  0.0333
69749W        W44737  11.803   5.024   5.322 -0.0085 -0.0468 -0.1213
69750W        W44738   1.338   7.180   4.731  0.0837  0.1668 -0.4672
69751W        W44739   6.325  35.043   6.703  0.0070  0.3331 -0.1361
69752W        W44740   8.267  35.359  14.249 -0.3066  0.0588  0.3064
69753W        W44741  29.713  12.564  22.798  0.1346  0.1403 -0.5214
69754W        W44742  14.731  11.476  23.700  0.4323  0.0272  0.2587
69755W        W44743  10.239  33.648   1.993 -0.3444  0.2907  0.0143
69756W        W44744  24.409  14.041   0.191 -0.0040  0.0001 -0.2290
69757W        W44745  32.731  12.408  16.304  0.1024 -0.0348  0.0029
69758W        W44746  22.540   4.111  24.405  0.0998  0.1937 -0.0395
69759W        W44747  16.185  32.842  22.955 -0.3586 -0.2400  0.2993
69760W        W44748   7.128  28.998   4.204 -0.0786  0.0436  0.4136
69761W        W44749  14.772  27.591  22.623 -0.1274 -0.3021 -0.1401
69762W        W44750  24.025  21.917   2.751  0.1075 -0.0864 -0.2831
69763W        W44751  35.169   8.142  14.555  0.0771  0.3906 -0.2763
69764W        W44752  34.994  12.958  16.108 -0.0358 -0.2967 -0.2581
69765W        W44753  23.174  22.586  18.212  0.2721  0.0796  0.0672
69766W        W44754  14.025  29.824   7.324  0.0393 -0.2686  0.0489
69767W        W44755  22.633  24.174  17.956 -0.3986 -0.0366 -0.0569
69768W        W44756   0.907  27.342  20.407 -0.0970  0.0781  0.1321
69769W        W44757   7.994  27.354  14.511 -0.1876 -0.1438 -0.0911
69770W        W44758   3.337  26.513  20.717  0.0752 -0.2094  0.2381
69771W        W44759  27.702  23.871   9.114 -0.0495  0.0214  0.2362
69772W        W44760  19.885  22.993   2.749  0.1367  0.2755  0.2472
69773W        W44761   5.718  18.654   7.202 -0.0686  0.2248  0.0380
69774W        W44762   4.065  24.812   7.342  0.0496 -0.0069 -0.2595
69775W        W44763   1.661  17.102   0.733  0.0543  0.3876 -0.2959
69776W        W44764   1.795  19.347   0.112  0.4009  0.0430 -0.2340
69777W        W44765   9.287  17.076   2.199  0.0734  0.1935 -0.3234
69778W        W44766   9.213  21.294   4.258  0.0691  0.1667  0.2025
69779W        W44767  19.162   0.664   8.581 -0.2883 -0.0981  0.0068
69780W        W44768  10.841   6.210  25.441 -0.0296 -0.3047  0.0025
69781W        W44769  26.985  30.426   9.981  0.1787  0.0798 -0.2636
69782W        W44770  18.394  33.871  18.455  0.1917  0.1080  0.1818
69783W        W44771  25.951  23.874  16.099  0.1257 -0.0517 -0.2433
69784W        W44772  29.706  17.793  15.488  0.2068  0.4356 -0.2792
69785W        W44773  25.143  34.252  22.095  0.1176  0.0772 -0.2829
69786W        W44774   6.730  30.411  10.259  0.0401  0.3461 -0.0049
69787W        W44775  20.326   3.395   2.963  0.0849  0.0244 -0.0781
69788W        W44776   4.442  21.677   5.134  0.1254 -0.0091 -0.2364
69789W        W44777   9.307  13.086   5.833  0.1258  0.0650 -0.1539
69790W        W44778  15.056  25.665   5.792  0.1879  0.0587 -0.0549
69791W        W44779   7.540  33.645   6.607 -0.1190  0.1880  0.0354
69792W        W44780  24.684   3.174   2.925 -0.0052 -0.1139 -0.0194
69793W        W44781   4.038  31.875   4.563 -0.1987  0.1433  0.0657
69794W        W44782   2.562  32.189  25.828  0.0602  0.1480 -0.1218
69795W        W44783  26.957   1.203  20.835 -0.0043  0.1791  0.1909
69796W        W44784  19.794   7.994   5.605  0.0160  0.2578 -0.2217
69797W        W44785  21.785  22.492  24.055 -0.2317 -0.1996  0.4280
69798W        W44786   5.450   1.467  19.853  0.0064 -0.0672 -0.2974
69799W        W44787   4.029  20.500  16.667 -0.0423 -0.0714 -0.0784
69800W        W44788  18.544   4.390  19.001 -0.3054 -0.0211 -0.0333
69801W        W44789  14.150   1.606  20.439 -0.0162 -0.3786  0.0671
69802W        W44790  21.242  33.323   7.295  0.1067 -0.1658 -0.0745
69803W        W44791  27.050   6.870  23.260 -0.0104 -0.2384 -0.0942
69804W        W44792  21.147   8.820  23.160  0.1277 -0.0303 -0.2566
69805W        W44793  21.376   7.998  16.910 -0.1236  0.1782  0.0705
69806W        W44794  14.470  19.701   7.765  0.5075  0.1747 -0.1911
69807W        W44795  28.496  30.889  18.944 -0.1165  0.1805  0.3613
69808W        W44796   1.393  33.954   5.486  0.4275 -0.1095  0.0893
69809W        W44797  33.664  14.669  15.206  0.0115  0.2213 -0.1323
69810W        W44798   3.689  18.339  20.881 -0.0205 -0.0052  0.0660
69811W        W44799   8.294  19.483   3.099 -0.2555  0.1006  0.0104
69812W        W44800  33.480   9.291  24.752 -0.1174 -0.0001 -0.0901
69813W        W44801   7.212  16.337  22.219  0.1524 -0.0838 -0.1350
69814W        W44802  22.777  31.390  18.642  0.3657  0.0226 -0.1581
69815W        W44803  13.495   6.435  18.436  0.3335 -0.1728  0.0823
69816W        W44804   8.158  31.244   3.645 -0.2873 -0.0083  0.5070
69817W        W44805  32.389  12.640  22.287  0.0711 -0.2362  0.1106
69818W        W44806   1.989  11.913  17.762  0.0392  0.2366 -0.1502
69819W        W44807  35.033  20.646  19.159  0.1141 -0.0970  0.0771
69820W        W44808  18.903  32.516   3.677  0.1383  0.0378  0.0913
69821W        W44809  15.167  11.200   2.954 -0.1573  0.2057 -0.0172
69822W        W44810  14.194  31.046  12.627 -0.2144  0.1012  0.3146
69823W        W44811  34.773   6.105  24.372 -0.0028 -0.0908 -0.2474
69824W        W44812  25.951  16.109  16.640 -0.2954 -0.0209 -0.1340
69825W        W44813  10.341  27.338   4.944 -0.0411 -0.0542  0.0112
69826W        W44814  26.832  29.928   4.191 -0.0414  0.2481 -0.3184
69827W        W44815   7.995   2.295   2.161 -0.0343  0.1040 -0.2367
69828W        W44816  33.163  30.534  21.013 -0.3976  0.0791  0.3133
69829W        W44817  19.466  11.757   3.286  0.2320  0.1366 -0.0257
69830W        W44818  16.685  34.980  22.716 -0.2105 -0.0096  0.0446
69831W        W44819  11.656  34.254   1.068 -0.3227 -0.0245 -0.1555
69832W        W44820   6.332  27.128  25.799 -0.1816  0.0331  0.2504
69833W        W44821  16.032   3.248   5.291  0.3343 -0.2336 -0.2463
69834W        W44822  24.415  29.445  19.659 -0.0031 -0.0141 -0.2464
69835W        W44823  18.032   8.474  26.163 -0.3298  0.2224 -0.0149
69836W        W44824  34.509  33.567   1.487 -0.0072  0.1849 -0.1108
69837W        W44825  25.356   6.202  21.918  0.1436  0.0398 -0.2325
69838W        W44826   2.547  31.871  19.903 -0.1858  0.2918 -0.2313
69839W        W44827   6.319  11.048  11.199  0.2054  0.0211 -0.1803
69840W        W44828  31.147  28.023  25.307  0.3093  0.0824  0.4360
69841W        W44829  10.381  15.709  13.365  0.1516  0.0342 -0.0356
69842W        W44830  16.983   3.325  24.287  0.1101 -0.2476  0.6074
69843W        W44831  28.562  12.499  24.743  0.2083 -0.2640  0.1109
69844W        W44832  10.693  24.703  26.001 -0.0923  0.1293  0.0473
69845W        W44833  11.323  23.614  23.189  0.1804  0.0769 -0.2101
69846W        W44834   9.944   7.687   6.342  0.2041 -0.0836 -0.3305
69847W        W44835   3.888  17.689   4.840  0.1465 -0.0836  0.0346
69848W        W44836   4.848  12.676   5.402 -0.0032  0.0488 -0.3183
69849W        W44837   0.652  16.600  17.375  0.0512  0.1655 -0.0669
69850W        W44838  21.985   6.121  22.043 -0.0635  0.2489 -0.2628
69851W        W44839   6.532  13.160   7.652  0.0722  0.0643 -0.2545
69852W        W44840   2.769   6.897  25.787 -0.1400  0.1051 -0.2940
69853W        W44841  19.937   1.243  16.441  0.2284  0.1402 -0.0060
69854W        W44842  26.742  24.096  10.458  0.1810 -0.0416 -0.4327
69855W        W44843  23.769   2.306  12.596 -0.0171  0.0701 -0.0528
69856W        W44844  26.700   9.723  24.045 -0.0166 -0.0048 -0.2127
69857W        W44845  20.566   6.690   9.151 -0.3710 -0.1196  0.1319
69858W        W44846  33.237  18.614  25.995  0.1390  0.0872 -0.2070
69859W        W44847   5.119  27.475   2.844 -0.3358 -0.0459  0.1309
69860W        W44848  10.743  17.531   9.869  0.1351  0.0143 -0.0832
69861W        W44849  28.729  26.947  11.110  0.3943  0.0202 -0.0891
69862W        W44850   2.639  34.428  25.665 -0.1738 -0.1524 -0.0245
69863W        W44851  32.890  10.267   1.441  0.0025 -0.0674 -0.1117
69864W        W44852  30.777  32.403   0.558 -0.0706 -0.0260  0.1073
69865W        W44853  18.772   1.556   5.965  0.2429  0.3246 -0.1364
69866W        W44854   6.630   0.818  21.514 -0.0545  0.2689 -0.0298
69867W        W44855  27.955  12.455  24.076 -0.5165  0.1440  0.2598
69868W        W44856  10.499  32.310  22.265 -0.3305 -0.2748  0.0276
69869W        W44857   3.258   7.440   3.908 -0.0287  0.2007 -0.0878
69870W        W44858  11.487  33.118  25.846 -0.0032 -0.0318  0.2934
69871W        W44859  25.265  16.363  20.779 -0.0600 -0.1850 -0.0148
69872W        W44860   6.491  26.306  22.875 -0.0291 -0.0201 -0.0993
69873W        W44861   1.860  30.129  24.265 -0.0874 -0.1135 -0.1076
69874W        W44862  24.646  15.273  19.093 -0.2251 -0.0537 -0.1117
69875W        W44863  20.571  23.038  18.022 -0.1837  0.0277 -0.1122
69876W        W44864  21.558  14.861  25.172 -0.1804 -0.0379 -0.2012
69877W        W44865  20.449  34.565   6.801 -0.0315  0.1918  0.4432
69878W        W44866   8.588  12.893   9.323 -0.0840  0.2732 -0.0646
69879W        W44867  31.875  20.415  19.708  0.2856  0.2271 -0.2664
69880W        W44868  31.722  17.005  17.605 -0.0193  0.2579  0.1436
69881W        W44869  24.155  34.823  17.624  0.0403  0.3151 -0.3700
69882W        W44870  16.129  25.843  10.617  0.0290  0.1679 -0.0751
69883W        W44871   2.879  30.212   0.698  0.1305 -0.2146  0.0154
69884W        W44872  23.266   9.808   3.717 -0.0253 -0.3191  0.0393
69885W        W44873  24.325  15.674  13.023 -0.1853 -0.1949  0.2688
69886W        W44874  20.353   3.604   5.020 -0.0756 -0.0360 -0.2819
69887W        W44875  27.092  19.288   6.411  0.0435 -0.1308  0.0814
69888W        W44876  34.701  29.430  23.387  0.2681 -0.2303  0.1931
69889W        W44877  11.868   4.839   7.715 -0.1948  0.0525  0.2044
69890W        W44878   3.293  13.936  22.309 -0.0554  0.0566  0.2734
69891W        W44879  33.750   9.127  21.659  0.1450  0.0888 -0.2911
69892W        W44880  30.361  21.500   6.350 -0.3779 -0.1570 -0.2347
69893W        W44881  18.334  31.601   7.678 -0.1795 -0.4240 -0.0273
69894W        W44882  30.995   0.319  22.443 -0.0630 -0.0286 -0.1068
69895W        W44883  30.821  13.867  12.236 -0.0316 -0.2175 -0.0155
69896W        W44884  12.069  21.493  22.716 -0.2825 -0.2768 -0.1080
69897W        W44885   3.045  31.627   3.087 -0.1728  0.0274  0.0490
69898W        W44886  20.443   8.427  23.563 -0.3797 -0.1109 -0.0634
69899W        W44887  18.505  17.530   2.612 -0.3849  0.1093  0.3599
69900W        W44888   9.815  18.226   7.006  0.1253 -0.3450 -0.3823
69901W        W44889   9.685  13.860   2.044  0.2194 -0.2894 -0.1307
69902W        W44890   5.668  14.974   3.825 -0.2120 -0.0804  0.0004
69903W        W44891  23.073  24.200  19.131  0.0310 -0.2951 -0.0373
69904W        W44892   9.873  31.292   1.930  0.2648  0.3121  0.2465
69905W        W44893   5.985  14.045  21.604 -0.0344  0.0384 -0.0118
69906W        W44894  22.266  11.235  21.494  0.1809 -0.0717 -0.0597
69907W        W44895   9.218  18.500  22.978  0.1208 -0.0401 -0.0193
69908W        W44896  11.191  17.807  25.326  0.0223 -0.1327  0.1182
69909W        W44897  13.860  10.116   2.202  0.0139  0.1123  0.2043
69910W        W44898  12.431   2.265   1.332  0.1349 -0.1385 -0.1477
69911W        W44899  17.591  26.887  11.255  0.0236  0.1577  0.2068
69912W        W44900  27.166  35.110  15.993  0.1583 -0.1398 -0.1187
69913W        W44901  27.654  23.858  12.595 -0.0446  0.2197  0.0063
69914W        W44902  17.558   4.760  20.099  0.0886  0.0618  0.0478
69915W        W44903  25.989  30.295  14.333 -0.0793 -0.0200  0.0372
69916W        W44904  34.531  28.449  14.801  0.1631  0.0839 -0.0022
69917W        W44905  30.882  20.306  20.098 -0.2343 -0.0005 -0.1012
69918W        W44906  20.626  33.646  17.528  0.3170 -0.3054 -0.0507
69919W        W44907  30.489  32.642   4.109 -0.0739 -0.0917 -0.3150
69920W        W44908  34.806  11.456  15.943  0.1602 -0.1180  0.2583
69921W        W44909   4.048  17.154  26.178  0.2495  0.0742 -0.0588
69922W        W44910  13.621  16.337   8.495 -0.2167 -0.0189  0.1819
69923W        W44911  30.821  35.110   1.165  0.0547  0.0605  0.0377
69924W        W44912  22.008  15.468   2.710  0.0439  0.2983  0.0460
69925W        W44913  15.347   1.659   3.919 -0.1314 -0.0423 -0.2063
69926W        W44914   3.248   3.040  25.391 -0.1660 -0.2153  0.1165
69927W        W44915  31.036  15.772  18.541 -0.1464  0.0784  0.4406
69928W        W44916  28.367  29.067   0.279  0.0497 -0.1900  0.2898
69929W        W44917  29.564  22.374  12.953 -0.1898  0.0031 -0.1203
69930W        W44918   7.850   7.243  22.670  0.0890  0.0291  0.3404
69931W        W44919  28.566   3.807   6.024 -0.1908 -0.2630  0.0417
69932W        W44920  27.731  12.464  16.564  0.2118 -0.1700  0.1114
69933W        W44921  26.507  29.967   1.605  0.4051 -0.1534 -0.1609
69934W        W44922   3.384  27.840  25.494 -0.1754 -0.0598  0.2722
69935W        W44923   2.804   2.639  20.452 -0.0189  0.0393 -0.2429
69936W        W44924  12.531   0.950   0.939  0.1177 -0.3230 -0.1853
69937W        W44925  29.750   1.975  16.468  0.1377 -0.1904  0.4245
69938W        W44926   1.751   8.038  14.181 -0.1098 -0.0244 -0.0377
69939W        W44927  15.188  18.649  22.627  0.0177 -0.0830 -0.0361
69940W        W44928  23.008  31.064  25.747 -0.0449 -0.1225 -0.2601
69941W        W44929  23.392  25.375  15.640 -0.0984  0.1442  0.1230
69942W        W44930  32.253  23.258  19.848 -0.1438 -0.1080 -0.1418
69943W        W44931  19.932   8.532   4.769 -0.0220 -0.1243 -0.1184
69944W        W44932  25.674  33.907   2.526  0.0554 -0.3900 -0.1167
69945W        W44933   6.439  20.518  19.074  0.0198  0.1330 -0.2415
69946W        W44934  25.554  28.843  23.014 -0.0825  0.0235 -0.2298
69947W        W44935  15.573  11.392   1.301  0.1242 -0.1974  0.0024
69948W        W44936   0.144  33.036  20.599 -0.1809  0.4167  0.0103
69949W        W44937   4.770  27.611  12.033  0.0885  0.2338  0.1970
69950W        W44938  29.260  10.305  26.038  0.1813 -0.0715 -0.1803
69951W        W44939  12.876   4.823  11.527  0.0328  0.0888 -0.0809
69952W        W44940  20.762  14.007  23.799 -0.0183 -0.1545  0.0930
69953W        W44941   4.253  33.012  18.970  0.2080 -0.3574 -0.2873
69954W        W44942  19.126   5.412  23.935 -0.1722 -0.2073  0.0087
69955W        W44943   6.447  34.808  13.422  0.0828  0.1275  0.2352
69956W        W44944  28.289  23.592  10.977  0.1841  0.2029 -0.0043
69957W        W44945  12.951  17.746  14.368  0.1246  0.0624  0.0997
69958W        W44946  14.645   0.238  19.320 -0.3824 -0.0751  0.0803
69959W        W44947  29.862   7.716   8.187  0.0502  0.0934  0.2335
69960W        W44948  12.859  27.781  11.232 -0.1627 -0.1426  0.2471
69961W        W44949   6.002  11.608   7.630 -0.1188 -0.0704 -0.3744
69962W        W44950  23.705  26.895  20.301  0.0642  0.0236  0.3441
69963W        W44951   8.693   1.506  24.443  0.2030 -0.1706  0.1406
69964W        W44952  26.092  25.741  17.135 -0.0975 -0.0850  0.0594
69965W        W44953  18.357  13.839  24.864 -0.1691  0.1266  0.1025
69966W        W44954   5.431   8.728   6.883 -0.0069  0.0065  0.1206
69967W        W44955   3.382  13.224  23.927 -0.2956 -0.5054  0.0311
69968W        W44956  28.490  17.607   6.631 -0.0429 -0.3013 -0.1073
69969W        W44957   6.129  14.100   6.180  0.1091  0.0718  0.0698
69970W        W44958  24.203   9.075  21.902 -0.1969 -0.1078  0.3294
69971W        W44959  17.361  27.574   5.477 -0.0293 -0.0060 -0.1023
69972W        W44960   3.074  28.943  24.167  0.3159 -0.0743 -0.0716
69973W        W44961  11.875  23.546   3.300  0.0631  0.0543  0.1840
69974W        W44962  14.008  26.416  13.471 -0.1141  0.3090 -0.0404
69975W        W44963   1.279  16.095  11.918  0.2507 -0.0554 -0.1165
69976W        W44964  10.474   7.542  20.829 -0.1866  0.4412 -0.2099
69977W        W44965  33.929   7.634  14.553 -0.0270 -0.0029 -0.2044
69978W        W44966   5.920  13.544  22.405 -0.0417  0.2396 -0.1761
69979W        W44967   8.312  16.626   5.899  0.0563 -0.1444 -0.4091
69980W        W44968  26.814  23.776   7.234  0.1972  0.0953 -0.0225
69981W        W44969  24.376  29.546  10.574 -0.1194  0.1069  0.0371
69982W        W44970  26.552   1.863  18.008  0.1980 -0.2494  0.2074
69983W        W44971  11.915   6.428  14.827 -0.1294 -0.0596 -0.2978
69984W        W44972  26.785  27.176  18.555 -0.1457  0.0812  0.1105
69985W        W44973  32.775  25.044  11.324  0.3453  0.3426  0.0149
69986W        W44974  26.810  28.981  17.029 -0.1088  0.1276 -0.0315
69987W        W44975  28.747   5.076  15.434  0.1179 -0.1081  0.2237
69988W        W44976  21.154   1.809  16.920 -0.1633  0.4315  0.1952
69989W        W44977  34.498  18.864  21.054  0.0870 -0.0953  0.0129
69990W        W44978   9.439  22.428   6.480 -0.2249 -0.3142 -0.0788
69991W        W44979  13.274  19.695  10.255 -0.4146 -0.1904 -0.0521
69992W        W44980  26.103   5.795   1.142 -0.0805 -0.1118 -0.2886
69993W        W44981  22.355  18.598  20.533  0.0959  0.4906 -0.1894
69994W        W44982  20.662   2.622  19.179 -0.2222  0.0883 -0.0448
69995W        W44983  15.366  22.590   3.594 -0.0757  0.0867  0.1494
69996W        W44984  16.329  33.797  20.151  0.2284 -0.0330 -0.3286
69997W        W44985  25.527   7.379  16.264  0.2070 -0.0834 -0.5692
69998W        W44986   4.724  19.101  17.295 -0.0722  0.2534  0.2335
69999W        W44987  19.263  28.569   7.322  0.0138 -0.0888 -0.0285
70000W        W44988  23.173  12.944  18.047  0.0560 -0.0336  0.4350
70001W        W44989  25.238  23.840  19.635 -0.0310 -0.3976 -0.0294
70002W        W44990  23.794   1.900   4.362 -0.2695 -0.0997  0.1716
70003W        W44991  30.027  23.144   6.646  0.0088 -0.2702 -0.0431
70004W        W44992  27.594  18.804  20.869  0.1166  0.3039  0.1105
70005W        W44993   3.956  10.077  20.319  0.0253  0.1011 -0.2387
70006W        W44994  17.723  28.407  20.789  0.0143  0.4681 -0.0149
70007W        W44995  21.665  18.653  16.875 -0.1154 -0.2182  0.1059
70008W        W44996   0.618  14.256   9.820  0.1900  0.0663  0.1075
70009W        W44997  14.565  17.609  10.588 -0.1410 -0.0814  0.2384
70010W        W44998  11.587  25.102  24.065 -0.1054 -0.0251  0.2182
70011W        W44999  27.058  27.522  20.286 -0.2296 -0.1076 -0.0916
70012W        W45000  10.193   2.600   1.051  0.2377  0.0265  0.2340
70013W        W45001  34.238  15.311  13.031 -0.0874  0.0852 -0.0743
70014W        W45002  30.628   2.183  24.206  0.0993 -0.1235  0.2847
70015W        W45003   9.223  28.049   0.587  0.2144 -0.1092 -0.2197
70016W        W45004   7.052  23.134  22.921 -0.0623  0.0271  0.0891
70017W        W45005  30.511   6.201  25.441  0.3243 -0.1041  0.0605
70018W        W45006  28.976  32.183  18.880  0.0914 -0.2569 -0.1297
70019W        W45007  32.345  27.629  18.785  0.3134  0.2866 -0.0776
70020W        W45008  27.432  24.297  25.510  0.1129  0.1637  0.2255
70021W        W45009   8.662   6.080  25.461 -0.0326  0.2562  0.2551
70022W        W45010  23.425   5.573   2.031 -0.0067 -0.0935  0.0158
70023W        W45011   1.357  12.030  21.247 -0.1899  0.2352  0.1007
70024W        W45012   7.215   7.006  26.223 -0.3283  0.0380  0.1356
70025W        W45013  17.745  25.661   9.019  0.0174 -0.1849 -0.0738
70026W        W45014  21.213  11.403  21.542 -0.3620 -0.3728  0.1251
70027W        W45015  28.020   0.922  18.346 -0.0795 -0.1488 -0.0877
70028W        W45016  33.545  10.679  24.651 -0.0895  0.2897 -0.0774
70029W        W45017  11.862  18.992  23.808 -0.1790 -0.2742  0.2205
70030W        W45018   1.280   2.685  20.536  0.4565  0.0558 -0.1969
70031W        W45019  28.377   4.283  13.896 -0.0012 -0.1498  0.2225
70032W        W45020   7.785   9.345  24.760  0.1219 -0.0712 -0.0976
70033W        W45021  16.481  25.477  21.311  0.0594 -0.0108  0.0062
70034W        W45022  17.988   3.427  16.981  0.0380 -0.0633  0.0470
70035W        W45023  23.103  27.625  25.154 -0.1321  0.1824  0.1740
70036W        W45024  17.537  26.110  25.719 -0.0927 -0.0688 -0.0447
70037W        W45025  34.484  25.323  25.977  0.0974  0.1973 -0.2772
70038W        W45026  14.311  22.874   2.962  0.0138 -0.1038  0.0366
70039W        W45027   1.918   8.542   5.574 -0.1073 -0.1354 -0.0060
70040W        W45028   9.045   6.743   9.865  0.3363 -0.0359 -0.5427
70041W        W45029  34.216  27.702  20.231  0.0232 -0.1202 -0.3740
70042W        W45030   7.526   7.219  12.253 -0.2033 -0.3361 -0.0229
70043W        W45031   2.942   1.838   2.343 -0.0353 -0.2137 -0.0174
70044W        W45032   3.174   1.890  20.808  0.2451 -0.0435 -0.0641
70045W        W45033  33.724   7.619  17.876 -0.1845  0.0938 -0.0989
70046W        W45034   6.182   4.462   3.550 -0.0867  0.0569 -0.0432
70047W        W45035  10.283  25.899  14.158 -0.1166 -0.0441  0.0826
70048W        W45036   5.350  15.116   0.475 -0.0302 -0.2697 -0.0966
70049W        W45037  23.783  17.764  18.290 -0.0180 -0.1974 -0.0122
70050W        W45038  11.658   6.906  22.620  0.0545 -0.0820 -0.0524
70051W        W45039  14.017  17.972  12.988  0.0182 -0.2644  0.1677
70052W        W45040  12.432  15.478   7.917 -0.0485  0.0931 -0.0549
70053W        W45041   3.712  13.074   1.740 -0.0134  0.0021  0.2361
70054W        W45042  11.701  16.220  24.236  0.0853  0.0232 -0.2690
70055W        W45043  10.965  17.237   3.124 -0.1463 -0.0862 -0.0661
70056W        W45044  23.290  11.465   3.716 -0.2808  0.2700  0.3998
70057W        W45045  11.174  30.710  11.810 -0.1108 -0.3125 -0.1534
70058W        W45046  17.108  12.452  24.685  0.2108 -0.1358  0.0289
70059W        W45047   2.999   5.349   3.829  0.0686 -0.3338  0.1608
70060W        W45048  25.426   2.687  26.227  0.0521  0.1661 -0.0165
70061W        W45049  19.674  20.149   5.617  0.1037 -0.3142 -0.0275
70062W        W45050  13.939  26.767   7.367  0.4331 -0.0528  0.3465
70063W        W45051  27.617  20.462  21.584 -0.2807 -0.2768  0.0108
70064W        W45052  32.643  24.116  24.502  0.1364 -0.2245 -0.0888
70065W        W45053  21.910   2.067  24.051 -0.0188  0.0718  0.1100
70066W        W45054  10.226  20.289   7.643 -0.1339  0.1389  0.1875
70067W        W45055  16.825   7.387   1.318  0.2231 -0.3316 -0.3922
70068W        W45056  23.461   0.680  15.674 -0.1644  0.0351  0.3116
70069W        W45057  16.744   0.008  21.174 -0.0766 -0.4663  0.0128
70070W        W45058  34.688  29.666  22.449 -0.0282 -0.3800 -0.1045
70071W        W45059  27.087   7.354  13.583 -0.0069  0.0254  0.2175
70072W        W45060  28.182  14.916  21.651  0.0358 -0.0063 -0.1155
70073W        W45061  32.374  32.269   3.439 -0.2087  0.2360  0.2063
70074W        W45062   7.060  32.789   3.527 -0.1037  0.1824 -0.2338
70075W        W45063   3.752   3.349   3.133  0.0739 -0.1958  0.2792
70076W        W45064  32.675  27.929  23.379  0.3424  0.0637  0.1665
70077W        W45065  10.694  25.318   9.606 -0.1004  0.0156 -0.1433
70078W        W45066  23.108  18.087  23.906  0.0406  0.0152  0.1212
70079W        W45067  29.102  14.169  25.996  0.0615 -0.3407  0.0899
70080W        W45068  10.454  29.313  23.016 -0.3551  0.2608  0.1640
70081W        W45069  15.282  15.947  12.410 -0.2053  0.0873  0.1584
70082W        W45070  24.039   3.430  24.227 -0.0728 -0.2927 -0.1103
70083W        W45071   8.949  16.548   4.648  0.4027 -0.1886 -0.0237
70084W        W45072  30.714  17.026  25.156  0.2786 -0.1763 -0.1809
70085W        W45073   2.669  13.946  15.668  0.0605 -0.1965  0.1885
70086W        W45074  34.507  10.718   2.463  0.0949  0.0440  0.2291
70087W        W45075  27.884  14.809  13.426  0.0439 -0.0179 -0.0112
70088W        W45076  27.548   1.082   6.051  0.0240  0.0161 -0.2253
70089W        W45077  25.214   2.558  24.005  0.1229  0.0380 -0.2126
70090W        W45078  25.408  16.144  21.925 -0.0620 -0.1904 -0.1026
70091W        W45079  21.282  15.848   3.015  0.3707 -0.1606 -0.0723
70092W        W45080  11.386  31.841  23.043  0.0888  0.1062 -0.2749
70093W        W45081  33.258  31.664  18.314 -0.1961  0.0756  0.3166
70094W        W45082   0.005  30.852   0.328 -0.0381  0.0756 -0.0467
70095W        W45083  11.045  14.627   8.639  0.2205 -0.1259 -0.1633
70096W        W45084   4.065  30.003  10.527 -0.0229  0.1962  0.3339
70097W        W45085  22.969   3.119   3.265  0.3032  0.0709  0.1450
70098W        W45086   9.961  22.789   1.806  0.0037  0.0426 -0.2254
70099W        W45087  27.074  13.674   0.389  0.1379  0.0018 -0.1772
70100W        W45088  16.657  22.640  13.257 -0.0039  0.2610 -0.2385
70101W        W45089  17.683  15.766   3.271 -0.0891  0.1681  0.0851
70102W        W45090  20.638  32.527   7.277  0.1392  0.0507  0.0186
70103W        W45091   7.706  28.384  25.527  0.2547  0.0991 -0.6176
70104W        W45092  28.415  11.640  22.862 -0.1473 -0.0067 -0.1831
70105W        W45093  29.653  16.666  19.337  0.1124 -0.1101  0.3071
70106W        W45094  18.732  23.149   0.228 -0.0505 -0.0090 -0.4911
70107W        W45095  27.848  27.988  13.398 -0.2482  0.0601  0.2586
70108W        W45096  31.620  14.542   8.762  0.2370  0.1334  0.0776
70109W        W45097  20.972  22.744   5.676 -0.1009 -0.3294 -0.5504
70110W        W45098  20.529  30.556  24.840 -0.0837 -0.0816 -0.1079
70111W        W45099  33.110   7.944  12.105  0.3547  0.0131 -0.0860
70112W        W45100   2.039  13.128  20.041  0.0223 -0.2290  0.2890
70113W        W45101   2.597  19.876  19.203  0.2372  0.0155 -0.1023
70114W        W45102  34.857   2.854   3.223  0.0060  0.0114  0.1320
70115W        W45103  11.543  16.057   6.956  0.0002 -0.2790 -0.0638
70116W        W45104  24.395   9.606  20.008  0.1212  0.0828  0.0606
70117W        W45105  14.837   9.614  11.147  0.0344 -0.2380 -0.0145
70118W        W45106   5.782  17.035  22.654  0.0198  0.0434 -0.1232
70119W        W45107   4.938   6.261   6.445  0.0805  0.0789  0.2190
70120W        W45108  14.878  30.503  22.999 -0.1069  0.1588  0.0735
70121W        W45109  26.503  11.026  18.873 -0.1879 -0.0710 -0.1360
70122W        W45110  33.759  16.802  24.297 -0.0072 -0.0504 -0.2020
70123W        W45111   5.113   1.791   2.770 -0.0398 -0.0066 -0.4121
70124W        W45112  19.596  27.276  19.933 -0.1362 -0.0698  0.0956
70125W        W45113  31.297   5.096  24.925 -0.2510  0.0954 -0.2706
70126W        W45114  26.607   2.037   5.936 -0.2779  0.1511 -0.1832
70127W        W45115  27.973   8.653  13.697 -0.3361 -0.3289 -0.2239
70128W        W45116   3.723  19.323  23.324  0.1616  0.1325 -0.1237
70129W        W45117  29.296   3.178  24.016 -0.3469 -0.0758  0.1104
70130W        W45118  27.297   8.092  20.297  0.0646 -0.1241 -0.1340
70131W        W45119  13.887   5.381  20.042 -0.0511 -0.0431  0.0487
70132W        W45120  21.870  31.496  14.223 -0.2627  0.0899  0.0511
70133W        W45121  16.241   0.221  20.754 -0.1140  0.1458 -0.1205
70134W        W45122   4.273  20.037  18.358  0.0012 -0.1503 -0.0998
70135W        W45123  12.044   5.900   7.355  0.1117 -0.0007 -0.2759
70136W        W45124   3.084  11.872   3.898 -0.2576  0.0751 -0.1337
70137W        W45125  32.291  12.433   7.588 -0.0121 -0.1581  0.0990
70138W        W45126  31.043   5.593  11.688  0.0499  0.0839  0.1640
70139W        W45127   4.695   2.437   4.145 -0.1554  0.1820  0.3740
70140W        W45128  21.315   8.511  24.617 -0.0442  0.3522  0.0714
70141W        W45129  11.866  25.123   2.535  0.1862 -0.0027 -0.0002
70142W        W45130  35.249  25.693  20.619  0.1312 -0.0218  0.0109
70143W        W45131   3.666  12.535  18.494 -0.0559  0.0012 -0.1226
70144W        W45132   3.866  16.951  20.235 -0.0160  0.1393  0.1507
70145W        W45133  25.643  23.012  21.709 -0.2721 -0.0228  0.1877
70146W        W45134   7.929   5.894  21.296  0.1845  0.3329 -0.0594
70147W        W45135  20.510  14.182   7.945  0.0671  0.1519  0.2667
70148W        W45136   4.695   0.990  24.110  0.2676  0.0982 -0.3619
70149W        W45137  11.954  25.445   3.879 -0.2054 -0.0770  0.1857
70150W        W45138  14.523   5.945   0.482 -0.2882  0.3311 -0.0489
70151W        W45139  17.432  13.062  20.761 -0.0652  0.5253 -0.2732
70152W        W45140   2.783  19.357   1.717  0.3888 -0.0444  0.0248
70153W        W45141  29.112  15.050  24.926 -0.0672 -0.3036 -0.3718
70154W        W45142  10.237  16.664   2.609 -0.1744 -0.0041  0.2570
70155W        W45143   3.343   3.585  24.516 -0.2645 -0.0001 -0.2973
70156W        W45144  23.809  11.986  23.977  0.2434 -0.0725 -0.1021
70157W        W45145  11.501  25.865   3.153  0.0464  0.0687  0.1037
70158W        W45146  33.425   4.268  24.541 -0.3795 -0.1124 -0.0450
70159W        W45147  22.942  10.988  17.814 -0.1117 -0.1972  0.0931
70160W        W45148  34.195  22.416  18.136  0.0043 -0.0899 -0.0845
70161W        W45149   6.283  13.089  16.933  0.2672  0.4496  0.1490
70162W        W45150   0.806  19.747  16.154  0.0194 -0.0953 -0.2685
70163W        W45151  22.262  26.498   4.971  0.1623 -0.1120 -0.1575
70164W        W45152  12.941  12.569  24.994 -0.2603  0.1830 -0.1304
70165W        W45153  26.837  32.189  13.100 -0.1686 -0.2961 -0.1373
70166W        W45154   4.943  20.572  19.478 -0.3408  0.1402 -0.0602
70167W        W45155  35.162  20.969  12.029 -0.0004 -0.0782 -0.2403
70168W        W45156  22.470  21.420  25.154  0.3654 -0.0755  0.0037
70169W        W45157  13.021  31.570  10.426  0.0896 -0.0385 -0.0175
70170W        W45158  22.482  15.189  23.695  0.2112  0.0818  0.0798
70171W        W45159  26.544  10.943  22.384  0.1277 -0.0015 -0.2589
70172W        W45160   8.598   9.710   4.397 -0.0413  0.2913 -0.0078
70173W        W45161  33.348  34.393   2.683  0.0264  0.1428  0.0396
70174W        W45162  23.613  32.577   2.328  0.1313 -0.2254  0.0708
70175W        W45163  32.498   9.316  25.788 -0.0735 -0.2937  0.1784
70176W        W45164  10.594   6.202   5.611  0.0784 -0.2021  0.1516
70177W        W45165  30.970  29.236  22.149  0.2439  0.1480  0.2182
70178W        W45166  32.543  34.978  15.731  0.2838 -0.0838  0.1133
70179W        W45167  27.616  32.755  22.814  0.0721 -0.0522 -0.1418
70180W        W45168  14.203  29.053   0.599  0.0601  0.1077 -0.0679
70181W        W45169  26.407  28.063   3.467 -0.0304 -0.2030 -0.5812
70182W        W45170   5.483  11.578  19.494 -0.1005 -0.0020  0.0790
70183W        W45171  23.246   6.050  26.030 -0.0843 -0.2729 -0.4722
70184W        W45172  35.385  10.893  23.222  0.0702 -0.0356 -0.0496
70185W        W45173  19.977   5.483  21.048  0.2843  0.1848 -0.1347
70186W        W45174  10.858  20.032  13.535  0.1627  0.0728  0.4022
70187W        W45175  25.948   4.747  20.308  0.0309 -0.1405  0.4147
70188W        W45176  25.022  18.389  14.446  0.1050  0.2887 -0.4490
70189W        W45177  27.775   4.534   4.195  0.0795  0.0112  0.0407
70190W        W45178  31.140  31.644  19.488  0.0356  0.1340 -0.2871
70191W        W45179  35.299   3.933  19.288  0.0827  0.0066 -0.1312
70192W        W45180   7.985   4.914   2.852  0.1327 -0.2936 -0.2151
70193W        W45181  21.413  22.091   0.370  0.0681 -0.0745 -0.0198
70194W        W45182  13.361  23.792  24.983 -0.1709 -0.0001 -0.1709
70195W        W45183  21.773  21.354  25.067  0.0187  0.1070  0.1098
70196W        W45184  23.927  18.392  24.191  0.0644  0.0639 -0.0113
70197W        W45185  22.236   1.353   1.925  0.1685 -0.0586  0.0769
70198W        W45186   9.242   6.952   6.678  0.2533  0.0517 -0.0399
70199W        W45187  28.585   2.332  19.468 -0.1724  0.0399  0.1573
70200W        W45188  33.050   1.852  12.355 -0.1168  0.1174 -0.1738
70201W        W45189  13.468   0.667  12.734  0.0150  0.0323 -0.0270
70202W        W45190  12.542   5.552   5.841 -0.3055  0.4640  0.2349
70203W        W45191   6.161  33.318   0.381 -0.1026 -0.0165  0.1526
70204W        W45192  25.431   8.124  12.402  0.1019 -0.1723  0.1276
70205W        W45193  12.837  33.967  24.031  0.1327  0.1871  0.4464
70206W        W45194  18.417  25.489   2.574  0.0051 -0.4515 -0.1441
70207W        W45195  16.921  33.236  16.934  0.2436 -0.0546  0.0605
70208W        W45196  12.622   0.919   7.303 -0.0472  0.2119 -0.1023
70209W        W45197  28.095  17.225  20.160 -0.1679  0.0440  0.3142
70210W        W45198  21.619  33.884  18.251  0.0015  0.1548 -0.1283
70211W        W45199   0.882  16.019  19.634  0.1475  0.1542 -0.2292
70212W        W45200  23.290  24.618  16.893 -0.1381  0.1232  0.1838
70213W        W45201  28.048  10.697   8.518  0.0717 -0.2752  0.2645
70214W        W45202  21.824  16.239   2.105 -0.1460  0.2764 -0.2174
70215W        W45203  16.376  33.348   1.814  0.0652  0.2241  0.1339
70216W        W45204  25.225  18.341  10.891 -0.0659 -0.0760  0.0672
70217W        W45205   4.004  21.603  17.477  0.2195 -0.0166 -0.0342
70218W        W45206  17.843  15.475   1.735 -0.2340 -0.2319 -0.2235
70219W        W45207   1.523  26.867   3.985  0.2647 -0.2050  0.3724
70220W        W45208   2.556  17.660   3.501 -0.1025  0.1704 -0.3368
70221W        W45209  24.838  14.201  17.394 -0.1533  0.1529  0.0918
70222W        W45210   5.360   0.763   6.093  0.1684 -0.3371 -0.0648
70223W        W45211  24.982   4.040   5.485  0.4340  0.0139  0.0366
70224W        W45212  18.066  29.618   5.525  0.0668  0.0868  0.1360
70225W        W45213  19.014  30.042   3.849 -0.4385 -0.2865  0.0843
70226W        W45214  25.928  25.774  15.913 -0.0293 -0.2075  0.1289
70227W        W45215  20.485  21.175  24.664  0.2286  0.1552  0.3513
70228W        W45216  14.219  15.550   9.484 -0.4106 -0.0894 -0.2299
70229W        W45217  30.171   6.093  19.766  0.0840  0.2775  0.1038
70230W        W45218   6.001  26.735  25.584 -0.1332  0.0597  0.3454
70231W        W45219  31.945  15.996   8.253 -0.2385 -0.1491  0.0405
70232W        W45220   9.126  22.680  24.676  0.2257  0.1195  0.0075
70233W        W45221  18.737  31.248  23.814 -0.1473 -0.0784  0.1180
70234W        W45222  11.696  14.514  10.733  0.1535  0.0770  0.1286
70235W        W45223   9.339  11.529  20.490  0.0694 -0.3475  0.1339
70236W        W45224  25.388   2.004  26.044 -0.5038  0.2203  0.1271
70237W        W45225   2.057  30.030   8.122  0.6419 -0.0179  0.0404
70238W        W45226  14.441   0.571   1.037 -0.4061  0.0501  0.0248
70239W        W45227  19.307  25.107  22.240 -0.0880 -0.2696 -0.0926
70240W        W45228  19.884  19.677   4.751 -0.0816  0.3695  0.2653
70241W        W45229  20.706   2.939  24.913 -0.1802  0.1591  0.1693
70242W        W45230  33.440  29.640  25.560  0.0818 -0.1801 -0.2019
70243W        W45231  28.848  12.924  17.950  0.2131  0.1980 -0.0638
70244W        W45232  18.675  32.465  15.865  0.5280  0.2477 -0.1997
70245W        W45233  22.942  29.040   4.692  0.1280 -0.0258 -0.1999
70246W        W45234  28.205  31.241  25.816  0.0727  0.0270 -0.1615
70247W        W45235  14.967  18.681   9.095  0.2717  0.0863  0.1431
70248W        W45236   1.125  26.300   5.954  0.0518  0.0264  0.0608
70249W        W45237  11.111  16.268   6.975  0.2507 -0.1472  0.2216
70250W        W45238   7.662  12.450  22.029  0.0236  0.1203  0.0394
70251W        W45239  11.561  23.418  16.708 -0.2945 -0.1022 -0.0325
70252W        W45240   9.955  22.364   2.381  0.1407  0.1222 -0.0498
70253W        W45241  17.818  17.839  26.186 -0.2035 -0.1340  0.4146
70254W        W45242  23.761   1.950  25.634 -0.0636  0.0996  0.0655
70255W        W45243  30.978  28.985  18.377 -0.4636 -0.1923 -0.2175
70256W        W45244  23.283  11.503  18.982  0.1340  0.0231 -0.2018
70257W        W45245  18.200   6.143   0.947 -0.2062  0.0481 -0.3352
70258W        W45246  15.673  33.933   6.586 -0.1325 -0.1381  0.1301
70259W        W45247  15.926   1.868  22.675  0.2256  0.0427  0.1924
70260W        W45248   8.342   1.932  22.347  0.3692  0.0653  0.1305
70261W        W45249  18.047  30.167  26.088  0.0486 -0.1181  0.0779
70262W        W45250  13.916   8.040   8.826 -0.2201  0.1259  0.0303
70263W        W45251  14.417  17.293   0.594  0.1302  0.3172  0.2050
70264W        W45252  33.838  10.061  25.121  0.0447 -0.1955  0.0073
70265W        W45253  21.522  15.771   2.078 -0.1243 -0.1439  0.1734
70266W        W45254  31.579   8.179  24.607  0.3016  0.0723  0.0992
70267W        W45255  10.257  10.708   7.633 -0.0767  0.2852 -0.1485
70268W        W45256   1.736  27.969   8.766  0.2441  0.1315 -0.1354
70269W        W45257  14.267  21.021   9.642 -0.1351 -0.1506 -0.0779
70270W        W45258   2.178   0.382   3.312 -0.0074 -0.1115  0.3042
70271W        W45259   9.656  23.653   4.344  0.0604  0.2600 -0.0941
70272W        W45260  32.161  34.964  25.902 -0.1001 -0.2137  0.3846
70273W        W45261  21.338  20.839  16.093 -0.4417  0.0639  0.1106
70274W        W45262  10.446  25.970  25.307  0.1760  0.1062  0.0464
70275W        W45263  19.768  21.362  21.823 -0.1769  0.1155  0.3566
70276W        W45264  34.415   9.252  25.516 -0.1218  0.0175 -0.0920
70277W        W45265  30.310  10.798  19.490  0.0803 -0.0534  0.1232
70278W        W45266  23.432   4.571  14.710 -0.4105  0.1881  0.1805
70279W        W45267  34.039  23.109  12.155  0.0048  0.2387 -0.2151
70280W        W45268  33.897  28.324   2.564 -0.4595 -0.3237 -0.3481
70281W        W45269  22.132  14.001  18.671  0.2902  0.1487  0.1382
70282W        W45270   0.845  25.106  18.588 -0.0245 -0.1876  0.0019
70283W        W45271  29.574   6.100   3.348  0.0994  0.0999 -0.0119
70284W        W45272  25.093  27.128  26.093 -0.3654  0.0273  0.2285
70285W        W45273  27.730  10.811  12.007  0.1409 -0.1998 -0.0674
70286W        W45274  27.740  10.448   8.186 -0.3585 -0.0727 -0.1766
70287W        W45275  18.331   8.875  19.619  0.0996  0.0278 -0.1888
70288W        W45276  20.249   9.020  17.747 -0.0695  0.0666 -0.4388
70289W        W45277  21.892  13.950   0.901 -0.2178  0.1681 -0.0285
70290W        W45278   3.695  27.953  12.732 -0.0159 -0.1244 -0.0770
70291W        W45279  30.259   3.172  13.843 -0.1917  0.2283 -0.0436
70292W        W45280   3.170  21.359  22.938 -0.1768 -0.1405  0.1406
70293W        W45281   2.113  27.411   4.414 -0.1845 -0.3310  0.0027
70294W        W45282   7.883   9.090   4.002 -0.0644 -0.0442 -0.0913
70295W        W45283   6.177  24.151   8.864 -0.2616 -0.1929 -0.0491
70296W        W45284  14.576  17.791   1.833 -0.1938 -0.3048  0.2836
70297W        W45285  11.545  16.653   6.051  0.4747 -0.0208 -0.4906
70298W        W45286  10.269  15.984   9.653 -0.0498  0.1518  0.3232
70299W        W45287   5.596  30.071  10.966 -0.2304  0.0623  0.1007
70300W        W45288  27.548  10.686   1.050 -0.0005 -0.1446 -0.3740
70301W        W45289  20.482  22.353   8.742  0.0594  0.0766 -0.0103
70302W        W45290  16.146   8.874  25.958 -0.3363  0.1902  0.0957
70303W        W45291  22.971   0.627  25.366 -0.0297 -0.4111  0.0637
70304W        W45292   1.613   5.218  21.907 -0.1337 -0.4342  0.1999
70305W        W45293  18.742  25.482   1.020  0.1369  0.2975  0.2647
70306W        W45294   4.746  13.301   1.223  0.1441  0.1156  0.0204
70307W        W45295  10.203  10.539  24.302  0.0750  0.1230  0.0341
70308W        W45296  11.968  24.445   3.935  0.1717 -0.0866 -0.0215
70309W        W45297   6.164   5.825  24.462 -0.0533  0.2589 -0.2318
70310W        W45298  28.730  31.844  12.179 -0.1305  0.0931  0.4834
70311W        W45299  16.921  33.386   1.093  0.1841 -0.0843  0.0743
70312W        W45300  31.852  27.516   2.055 -0.1197  0.2546  0.0505
70313W        W45301   0.740   9.619  19.165  0.1096 -0.0717  0.2835
70314W        W45302  13.068   0.174  22.802  0.4146  0.0640  0.1730
70315W        W45303  15.717  17.889  11.101  0.2023 -0.0491  0.0475
70316W        W45304  14.571  16.433   2.395 -0.2123  0.0954 -0.2021
70317W        W45305  13.513  15.361  12.425  0.1577  0.0120 -0.2311
70318W        W45306   7.000  22.029   5.628 -0.1745 -0.0066  0.0928
70319W        W45307  33.912  32.930  17.235 -0.2078  0.1173 -0.1756
70320W        W45308   7.301  23.024  11.406 -0.0318 -0.1983 -0.2390
70321W        W45309  26.710   1.455  21.251  0.3426  0.3071 -0.2886
70322W        W45310   7.632   4.019   8.206  0.2448 -0.0634  0.1216
70323W        W45311  31.361  18.792  13.081  0.3863  0.2413 -0.0273
70324W        W45312  18.419  23.847   4.557  0.0865  0.2424  0.0127
70325W        W45313  13.475  31.026  10.575 -0.2893  0.1692 -0.1387
70326W        W45314  19.755   2.589   5.964 -0.1473  0.1851  0.0311
70327W        W45315   2.658  25.830  22.283 -0.0305 -0.3661 -0.1127
70328W        W45316  26.704  21.752  11.000  0.0001  0.0148 -0.1499
70329W        W45317  26.028   5.868  11.258 -0.0358  0.1669 -0.2268
70330W        W45318  16.060  11.580   4.024 -0.4554 -0.1653  0.2503
70331W        W45319  34.174  33.650  17.570 -0.0285  0.0741  0.0138
70332W        W45320  16.526   4.986  23.041 -0.1949  0.0079 -0.2144
70333W        W45321  20.509   5.344  10.693 -0.1925  0.3223  0.3164
70334W        W45322  20.910  34.599   2.651 -0.0120 -0.0102 -0.1007
70335W        W45323  27.386  14.602  11.108  0.1261  0.1350 -0.0919
70336W        W45324   4.058  17.379  20.103  0.1193 -0.2784 -0.0080
70337W        W45325  17.048   0.659   1.366  0.2777  0.2077  0.0051
70338W        W45326   2.802  28.039  22.475  0.2144  0.3565 -0.0679
70339W        W45327  23.717   1.758  23.629  0.0818 -0.2248  0.0309
70340W        W45328  14.963   7.060   0.752  0.0419 -0.2775  0.1689
70341W        W45329  34.393  14.009   1.301  0.1251 -0.0501  0.1952
70342W        W45330  21.141   5.049  26.005  0.2377 -0.1153 -0.2501
70343W        W45331  33.340  22.240  13.068  0.0767 -0.2308 -0.1542
70344W        W45332  24.537  18.615  14.662  0.0748 -0.0685  0.4159
70345W        W45333  12.425  17.073   9.701  0.0191 -0.2428 -0.0675
70346W        W45334   0.557  16.885  12.745  0.0986 -0.1593 -0.1357
70347W        W45335   9.992  31.427  14.461 -0.1046  0.0690  0.1829
70348W        W45336   7.557  16.531  24.070  0.1177  0.1379 -0.1916
70349W        W45337   0.289   1.627   7.250 -0.2894  0.1791 -0.1613
70350W        W45338  13.898  25.734   8.252  0.0161  0.0223  0.0072
70351W        W45339   9.265  25.770  14.933  0.1126  0.2000  0.0623
70352W        W45340  17.849  30.871  21.650 -0.1265  0.1458  0.2899
70353W        W45341  24.408  14.578  17.900 -0.0486  0.0300 -0.2070
70354W        W45342   0.985  26.286   0.976 -0.1427  0.1288 -0.1431
70355W        W45343  25.640  25.383  24.308  0.2458 -0.1101  0.2995
70356W        W45344  16.199  21.492   1.400 -0.0056 -0.0297  0.0382
70357W        W45345  13.217  21.142  13.092 -0.0577 -0.0266 -0.2497
70358W        W45346   6.595  27.828  14.772  0.3946  0.0628 -0.0779
70359W        W45347   5.278  23.393  24.905 -0.1677  0.3666  0.3892
70360W        W45348  24.778   0.638  19.621 -0.1400  0.3508 -0.0187
70361W        W45349  21.257  33.080   6.461 -0.1364  0.2978  0.2142
70362W        W45350  29.625  33.363  24.581 -0.2254  0.0199 -0.3460
70363W        W45351  33.130  20.303  24.321  0.1183  0.1172  0.1683
70364W        W45352  30.010  18.973   9.284 -0.1421 -0.1611  0.2662
70365W        W45353  27.937  11.650  23.100  0.1815  0.1030  0.1504
70366W        W45354  27.091  25.461  11.186 -0.1143  0.2392  0.0300
70367W        W45355  32.971  11.904  18.086 -0.2216  0.2623  0.0040
70368W        W45356  17.077  25.439  24.386  0.0487 -0.0055 -0.0147
70369W        W45357  12.694  21.134   2.076  0.0727  0.4071  0.1111
70370W        W45358   3.082   6.924  22.473 -0.2087  0.0459 -0.0510
70371W        W45359  32.702   1.914  18.470 -0.1592  0.1299 -0.0001
70372W        W45360   3.270   9.146  17.734  0.0450 -0.1470  0.2296
70373W        W45361  23.338  20.989   2.218  0.0661 -0.3305 -0.3373
70374W        W45362  25.247  16.091  25.008  0.1862 -0.0981 -0.0180
70375W        W45363  15.055  31.479  23.785 -0.2302  0.2035  0.1166
70376W        W45364  23.067  16.805  12.903 -0.1567  0.1660  0.1199
70377W        W45365  15.848   5.537  23.333 -0.0443  0.0055  0.0559
70378W        W45366  14.922  26.922   8.155  0.2355 -0.1852 -0.1217
70379W        W45367  34.806  31.988  23.773  0.0452 -0.0237 -0.2982
70380W        W45368  13.305   1.041   5.242 -0.2379 -0.0777  0.0754
70381W        W45369  27.625   6.766  15.303  0.3155  0.0431 -0.2030
70382W        W45370  17.060   9.399  19.937  0.1065 -0.1567  0.1183
70383W        W45371  27.315   2.840   1.353  0.0824 -0.0174  0.0591
70384W        W45372   3.886   6.953  16.595 -0.2308  0.0889 -0.1545
70385W        W45373   1.964   2.102  25.553 -0.0862 -0.1510 -0.1008
70386W        W45374  30.220   4.509  19.717  0.0917  0.5261  0.1228
70387W        W45375  18.484   2.443  20.270 -0.1685 -0.4175 -0.1361
70388W        W45376   6.295   6.686  19.792  0.2033  0.0203  0.2525
70389W        W45377  30.141  12.141  12.721 -0.0420 -0.0334  0.3313
70390W        W45378  17.322  13.495  23.578 -0.2429 -0.0614  0.2002
70391W        W45379   6.995  30.013   8.064 -0.3788  0.3444 -0.0432
70392W        W45380   3.456  26.421   1.899 -0.0443  0.2271 -0.1807
70393W        W45381  14.240  16.558  22.830 -0.0873 -0.1827 -0.2537
70394W        W45382  33.171  10.496  25.503 -0.2667 -0.1348  0.3323
70395W        W45383   9.401  31.284  13.906 -0.1220  0.5059  0.1277
70396W        W45384   3.406  28.938   0.110  0.1465  0.1617  0.4045
70397W        W45385   7.581  14.128   4.451  0.2135  0.3299  0.3550
70398W        W45386   7.340  35.304  24.065  0.0424  0.3326  0.1572
70399W        W45387  13.238   9.296   1.803  0.2165 -0.1206 -0.1654
70400W        W45388  14.937  22.745   3.854 -0.1357 -0.0706  0.1326
70401W        W45389  28.653  12.105  10.586  0.1776  0.1193  0.0343
70402W        W45390  28.435  34.735  13.128  0.2249 -0.2536  0.1179
70403W        W45391  12.418  22.331  11.800 -0.0059 -0.0781  0.0439
70404W        W45392  24.032  32.151  23.163  0.0328 -0.0244  0.3361
70405W        W45393  22.119   8.546  22.702 -0.0081 -0.3385  0.2129
70406W        W45394   3.668  34.181   9.905  0.3594 -0.0404  0.2325
70407W        W45395   0.520  33.912  18.469  0.0637 -0.2614 -0.0552
70408W        W45396  22.814  20.799  20.560  0.1261 -0.1918  0.3625
70409W        W45397  30.359  22.508  22.528  0.0593 -0.1100  0.1669
70410W        W45398  15.449  10.485   5.430 -0.1156 -0.0515  0.1007
70411W        W45399  25.957  14.192  10.325 -0.1725  0.0050  0.0150
70412W        W45400  15.135  19.997  13.476  0.4242  0.4311 -0.1211
70413W        W45401  11.962   3.029   9.647  0.1935  0.2219  0.0907
70414W        W45402  13.551   3.980  11.277 -0.2329 -0.2362 -0.0543
70415W        W45403  21.763   5.477   4.576 -0.2592 -0.0776 -0.1015
70416W        W45404  17.051  28.021  21.293 -0.2755 -0.2973  0.5214
70417W        W45405   2.347  21.013  24.631 -0.0909  0.1218 -0.4331
70418W        W45406  10.188  34.939   0.827 -0.2591 -0.0860  0.1581
70419W        W45407  22.491  15.239  25.935 -0.0325 -0.0914 -0.2340
70420W        W45408  25.391  33.303  16.064  0.0692  0.0036  0.0954
70421W        W45409   7.214   6.312  11.587  0.1173 -0.0763 -0.1012
70422W        W45410  17.144  19.887  13.130  0.1899 -0.3298 -0.1265
70423W        W45411  15.650  34.721  22.297 -0.1034 -0.0804 -0.1753
70424W        W45412  33.972  14.695  18.757  0.1608 -0.1286  0.0947
70425W        W45413   0.278   9.382  23.358 -0.1696 -0.4504 -0.1315
70426W        W45414  18.930  15.172  10.039  0.0997  0.0648 -0.1184
70427W        W45415  14.837   6.357   1.750 -0.1197  0.0708  0.0606
70428W        W45416  10.612  10.450   5.591 -0.1194  0.2315  0.0201
70429W        W45417  26.938  15.253  11.104 -0.2854  0.3521  0.1331
70430W        W45418   6.409  26.668   3.794 -0.0205 -0.1534  0.1151
70431W        W45419  18.878  29.507   4.014 -0.4443 -0.0296 -0.0921
70432W        W45420  29.442   8.482  22.395 -0.1468 -0.3241 -0.2953
70433W        W45421   7.700  17.134  12.008  0.2410  0.2591  0.2136
70434W        W45422  30.224  33.857  16.014  0.0893 -0.0135 -0.0864
70435W        W45423  15.723  21.957  23.429  0.2333 -0.0783  0.1044
70436W        W45424  30.710  22.914  23.662  0.2060 -0.0443 -0.0632
70437W        W45425  28.675   3.821  24.912  0.0994  0.3426  0.2333
70438W        W45426   8.063  28.123  13.331 -0.2502 -0.0988  0.1306
70439W        W45427  34.429  31.648   4.830 -0.3356 -0.1542  0.0933
70440W        W45428  31.197   0.329  23.436  0.1289 -0.1154 -0.0425
70441W        W45429   2.264  33.685  10.822 -0.0609 -0.2990  0.3269
70442W        W45430  25.595  29.761  15.231  0.0522  0.1026 -0.1087
70443W        W45431  20.804  22.333  24.091 -0.0250 -0.0866  0.0644
70444W        W45432  27.590   5.029  19.603  0.0958 -0.0602  0.1677
70445W        W45433  17.704  34.270   7.199  0.0249  0.4023  0.3136
70446W        W45434  28.942  29.997  24.633 -0.3188 -0.0069  0.0784
70447W        W45435  12.910  18.680  14.023 -0.0130 -0.0964  0.0076
70448W        W45436  18.971   9.633   8.304 -0.1614 -0.0639 -0.0702
70449W        W45437  29.126  22.403  16.758  0.4007 -0.0729 -0.0465
70450W        W45438   0.922   4.350  21.289 -0.2857 -0.0656 -0.0378
70451W        W45439  34.841  18.497  23.939 -0.0640  0.1266 -0.0973
70452W        W45440  22.425  22.581   2.334  0.0654  0.1080  0.2624
70453W        W45441  13.664   4.388   0.735  0.0330  0.1145  0.0329
70454W        W45442  30.481  26.197   9.490 -0.2592 -0.2844  0.0652
70455W        W45443  14.326  20.138   3.922  0.0793  0.0560 -0.1524
70456W        W45444   0.627   5.435  26.228  0.2935  0.1461 -0.1102
70457W        W45445  31.278   9.882   0.237 -0.0931 -0.2050  0.0250
70458W        W45446  10.423  15.516  20.213  0.3122  0.2971  0.1309
70459W        W45447  17.340  28.683  20.541  0.1425 -0.2631  0.0084
70460W        W45448  13.972  29.187   1.133 -0.1341  0.0836  0.4696
70461W        W45449  29.290   8.951  11.903 -0.2930 -0.0471  0.4310
70462W        W45450  23.254   3.683   0.814 -0.1084  0.0648  0.1880
70463W        W45451  17.344  23.741  22.450 -0.2376 -0.0549 -0.3064
70464W        W45452  31.972   6.901  10.996 -0.0684 -0.0532  0.3296
70465W        W45453   2.399  31.198  24.812 -0.2328  0.0911 -0.1923
70466W        W45454  14.599  11.608  26.227 -0.4203 -0.1944 -0.1517
70467W        W45455   9.739   6.233   4.665  0.2017 -0.1280  0.1176
70468W        W45456  12.423   9.609   2.812 -0.3687 -0.0384 -0.3635
70469W        W45457  14.582  15.850   6.409  0.1896  0.1302  0.0891
70470W        W45458  10.094  19.714   6.226  0.1572  0.2851 -0.0760
70471W        W45459  20.364  17.234  24.740 -0.2915 -0.2954 -0.2208
70472W        W45460  22.589   9.879   1.016  0.3241  0.1713  0.2574
70473W        W45461  18.733   3.812  19.242  0.1402  0.1974  0.0655
70474W        W45462  17.813   7.373  19.899  0.0632  0.0939 -0.3848
70475W        W45463  18.476  17.414  25.325 -0.2287  0.0538 -0.0249
70476W        W45464  21.125  26.793   2.460  0.0025  0.1274  0.2811
70477W        W45465  27.236   3.297  18.073 -0.0150 -0.0175  0.1823
70478W        W45466  32.102   8.314  22.212 -0.0100  0.2501  0.2636
70479W        W45467   6.606  30.849   9.547  0.3391 -0.1918 -0.0430
70480W        W45468   1.189  12.405  15.635 -0.0628  0.2414  0.0726
70481W        W45469  34.920  18.294  25.405  0.1357  0.3220  0.2236
70482W        W45470  25.499  19.580  10.151  0.1948  0.1474 -0.0414
70483W        W45471   8.477  23.428  15.015  0.1497 -0.3426  0.0274
70484W        W45472  14.907  16.169   6.528  0.0325 -0.0971 -0.0573
70485W        W45473  18.524  29.880  16.411 -0.3304  0.0468 -0.1457
70486W        W45474  34.809   4.746   3.287 -0.1497 -0.2101  0.2603
70487W        W45475  32.880  32.544  20.811 -0.0074  0.3767 -0.1034
70488W        W45476  22.767  10.613  21.910 -0.0316 -0.0237  0.1069
70489W        W45477  29.181  16.382   7.452  0.1318 -0.0828 -0.0917
70490W        W45478   5.199  21.772  20.438  0.0278 -0.2041  0.0282
70491W        W45479  12.707  15.716   6.406 -0.0006 -0.5186 -0.1056
70492W        W45480  19.155  18.378   9.218 -0.2424  0.2127 -0.0849
70493W        W45481  30.205  33.074  17.116 -0.1488  0.2049 -0.4789
70494W        W45482  28.184  29.049   1.189 -0.1678 -0.2066  0.1319
70495W        W45483   0.626  29.075   3.653  0.3161  0.1087 -0.0892
70496W        W45484  12.955  14.307  10.112  0.1670 -0.2027  0.3471
70497W        W45485  26.335   0.749  26.242 -0.0190 -0.2925 -0.5214
70498W        W45486   7.690  28.191   1.262 -0.4386 -0.2091 -0.1010
70499W        W45487  23.599  24.239  17.053 -0.1937 -0.3280  0.0079
70500W        W45488  28.320  17.192  15.434  0.0438 -0.0342  0.1370
70501W        W45489  25.463   0.509  12.500  0.0942  0.0649 -0.0581
70502W        W45490   7.913  34.636  10.044  0.1945  0.0815 -0.3118
70503W        W45491  30.874  16.716  14.847  0.2147  0.0575 -0.0750
70504W        W45492  20.823   3.758  17.980  0.1388 -0.0697 -0.1198
70505W        W45493  15.389  16.237   8.973 -0.0858 -0.0163  0.0870
70506W        W45494  22.127  10.769   1.157  0.1727 -0.1355  0.0632
70507W        W45495  24.620   1.051   0.495  0.2324  0.2507 -0.1501
70508W        W45496   7.637  10.310  24.877 -0.0014  0.0394 -0.2245
70509W        W45497  18.226  16.880  25.470 -0.0241  0.0422  0.1797
70510W        W45498  33.409   9.570  13.548  0.0822  0.1574  0.1068
70511W        W45499   4.546  12.067  24.704 -0.1570 -0.0660 -0.1097
70512W        W45500  29.246  31.624  21.405 -0.1984 -0.2295 -0.1030
70513W        W45501   3.907  34.147  21.600 -0.0263 -0.0744 -0.1807
70514W        W45502  23.347  23.905   3.546  0.0140 -0.0329  0.2595
70515W        W45503  33.750  15.296  10.177 -0.2186 -0.2002 -0.3154
70516W        W45504   4.433   2.509   9.991 -0.0835  0.5790 -0.2448
70517W        W45505   8.958   0.129  15.186  0.2801  0.1891 -0.0488
70518W        W45506  27.967   2.574  13.757 -0.1883 -0.2594  0.0114
70519W        W45507   9.373   4.859   1.799 -0.2089  0.1247 -0.2033
70520W        W45508  14.707   1.524   9.029  0.1484  0.0085  0.0747
70521W        W45509   2.785  26.003   6.838 -0.1109  0.0085  0.1506
70522W        W45510   0.422  32.702  17.556  0.0043 -0.1278 -0.0961
70523W        W45511   0.213  31.459  16.085  0.1496 -0.0769 -0.0166
70524W        W45512   7.293  20.815   7.568 -0.3008  0.2474 -0.2086
70525W        W45513  31.944  30.924  15.300 -0.1915 -0.1218  0.0361
70526W        W45514  26.946   8.273  11.630  0.2226  0.2233 -0.1716
70527W        W45515  28.870  32.954  15.780 -0.0971  0.4397  0.3904
70528W        W45516  21.599  33.640  23.840  0.1293  0.1703 -0.0099
70529W        W45517  10.225  17.646  22.630  0.3959 -0.0084 -0.1676
70530W        W45518  18.664  14.065   1.981  0.1458 -0.0192 -0.0604
70531W        W45519  24.870  17.250   0.461  0.0905  0.1961  0.2653
70532W        W45520   4.950   9.309   4.645  0.1772 -0.2279 -0.0117
70533W        W45521  31.341   0.582  12.899 -0.0845  0.0743  0.1789
70534W        W45522  18.754   2.761  17.168 -0.0378 -0.3151 -0.0758
70535W        W45523  24.450  17.714   0.202 -0.0814 -0.0467  0.0443
70536W        W45524  31.502  23.388  11.566 -0.1790  0.1209  0.1378
70537W        W45525   3.494   8.747  17.994  0.0271  0.1836 -0.0459
70538W        W45526  14.695  32.041   3.088 -0.1205  0.2038 -0.2344
70539W        W45527  22.323  13.362  14.170 -0.1712  0.0487 -0.1312
70540W        W45528   5.446  16.850  25.982  0.2264 -0.0196 -0.1427
70541W        W45529   9.918  31.805   9.086 -0.2782 -0.4152  0.0532
70542W        W45530  10.627   0.239  14.066 -0.0247  0.1017  0.0730
70543W        W45531  10.915  27.678   6.911 -0.0049  0.3680  0.3452
70544W        W45532  16.172   5.407   5.418  0.4574 -0.1911 -0.2284
70545W        W45533  16.716   8.707  17.974  0.2762 -0.1139  0.3001
70546W        W45534  23.057  19.408   0.741  0.0539  0.4151  0.0603
70547W        W45535  26.336  11.130  19.379  0.1484 -0.0381 -0.0445
70548W        W45536  23.295  26.244   3.577 -0.0935 -0.1679 -0.0970
70549W        W45537  16.642   8.733   5.433 -0.2253  0.0209 -0.1692
70550W        W45538  19.983   7.120   5.408 -0.2683  0.2122  0.2935
70551W        W45539  29.546  27.842  14.141 -0.2903  0.0682  0.4484
70552W        W45540   3.488  15.116  15.972  0.0783  0.0923  0.0036
70553W        W45541  30.573  33.759  20.783  0.0120 -0.2259  0.1113
70554W        W45542  21.212  30.206  18.726 -0.1906  0.0692  0.0090
70555W        W45543  12.298   3.596  23.453  0.1387 -0.1105 -0.0542
70556W        W45544  12.243  29.037  12.395 -0.1834  0.1089 -0.0600
70557W        W45545  32.747  26.071  15.065 -0.1548  0.1334 -0.1000
70558W        W45546   2.931   7.361   0.874 -0.2460 -0.0252 -0.0205
70559W        W45547  13.540  16.953   8.400  0.3331 -0.2615  0.1138
70560W        W45548   7.215  29.912   4.386 -0.2673  0.0578 -0.1912
70561W        W45549  14.758  21.598  25.863 -0.2072  0.0212 -0.1497
70562W        W45550  17.356   4.084  22.354  0.0802  0.1012 -0.1441
70563W        W45551  13.333  18.917   2.530  0.0179  0.2124  0.2667
70564W        W45552  12.419  20.779   7.424  0.3426 -0.1605 -0.0026
70565W        W45553   3.302  31.382  21.143 -0.1533  0.0340  0.0664
70566W        W45554  26.503   5.008  12.756 -0.1824  0.0874  0.1397
70567W        W45555  10.547   9.742  20.243  0.1117  0.0635 -0.0376
70568W        W45556  10.542  26.998   6.743 -0.0370  0.0007 -0.2894
70569W        W45557  21.638  20.681  24.001 -0.2383 -0.1890  0.0796
70570W        W45558   1.963  33.084  21.454 -0.2261 -0.0026  0.1650
70571W        W45559  14.778  32.670  11.017 -0.2254 -0.1148 -0.2418
70572W        W45560  27.033  26.009  14.694  0.1214  0.0255  0.0921
70573W        W45561  27.112   2.219  18.713 -0.0272  0.1798 -0.1899
70574W        W45562  16.254  30.254  11.344  0.2260 -0.2040  0.2941
70575W        W45563  25.517  28.209  15.253  0.1077  0.0024  0.0222
70576W        W45564  14.310   1.188  24.997 -0.3254 -0.1971 -0.0762
70577W        W45565  29.775  16.622   9.168 -0.1130 -0.0401  0.0414
70578W        W45566  21.289   6.271   0.451  0.2777  0.0164 -0.0144
70579W        W45567   0.791   2.408   3.494 -0.0567 -0.0735 -0.0323
70580W        W45568   8.068   7.489  22.275  0.0059  0.0670  0.0934
70581W        W45569  31.585   2.519  17.485  0.0572 -0.3613  0.0497
70582W        W45570  35.095  24.649  22.418 -0.1171  0.0364 -0.1874
70583W        W45571  35.210  31.123  24.759  0.2337  0.0431 -0.0816
70584W        W45572   9.938  32.196  13.940 -0.4140  0.0788  0.0901
70585W        W45573  24.521  15.960  26.214  0.2896  0.2355  0.0104
70586W        W45574  32.591  11.795  17.709 -0.1072 -0.1573 -0.0803
70587W        W45575   6.567  33.041  24.421  0.2303  0.2313 -0.2174
70588W        W45576  28.560  28.783  20.786  0.1017  0.1545 -0.2380
70589W        W45577   9.417  16.611  25.068  0.1575 -0.0747 -0.0336
70590W        W45578  29.700   0.408  25.103  0.0351 -0.0998 -0.1604
70591W        W45579   8.463  18.544  24.321 -0.1685  0.1965 -0.1938
70592W        W45580  29.164   1.511   4.415  0.4938 -0.2633 -0.1478
70593W        W45581  12.039  32.402  14.172  0.1609  0.0766 -0.0433
70594W        W45582  10.025  21.916   2.169 -0.0634  0.1120 -0.1564
70595W        W45583  30.047   4.705  22.117 -0.3322  0.1924 -0.0073
70596W        W45584  16.016  16.731   0.218  0.0103  0.2235  0.1309
70597W        W45585  32.134  30.303  14.893 -0.0781  0.0038 -0.0221
70598W        W45586  34.351   2.006   7.532 -0.1366  0.3031 -0.2236
70599W        W45587   1.397  22.036  24.400 -0.2803  0.0544 -0.3999
70600W        W45588  11.831  17.676  13.665  0.0603 -0.2162 -0.3129
70601W        W45589  31.332  32.439   4.295 -0.1849  0.1998  0.1316
70602W        W45590   0.640   4.107  16.985  0.1933 -0.2916  0.0436
70603W        W45591   0.720  24.275  25.247  0.1431  0.2528 -0.3268
70604W        W45592  20.218   7.176  23.827 -0.1662  0.2789  0.1087
70605W        W45593  26.162   7.438   2.416 -0.2395 -0.0435 -0.0735
70606W        W45594   2.050  17.000   1.546 -0.2326 -0.1917 -0.2429
70607W        W45595   3.249  11.592  22.277 -0.1482  0.1423 -0.3619
70608W        W45596  15.748   0.542   7.324  0.2310 -0.0198 -0.1616
70609W        W45597  32.835  23.842  16.328 -0.0013 -0.1818 -0.1906
70610W        W45598  15.298  17.577   1.934 -0.0508 -0.3472 -0.2014
70611W        W45599  30.150  32.007   2.441  0.0129 -0.3151  0.4689
70612W        W45600  18.484  30.843  22.715 -0.0111  0.1738  0.3491
70613W        W45601  29.749  30.214   3.016  0.2617 -0.0774 -0.2642
70614W        W45602   5.004  20.496   3.150  0.2209  0.2427 -0.1208
70615W        W45603  24.718  28.136   3.167  0.2170  0.1775 -0.5070
70616W        W45604  24.454  32.888  17.537  0.0990  0.0158  0.2167
70617W        W45605   1.112   1.103  25.763 -0.1712  0.1929 -0.0319
70618W        W45606  27.215  22.076  17.049 -0.0532  0.3516  0.0255
70619W        W45607  16.311   0.737   8.458  0.0771 -0.3405  0.0491
70620W        W45608  20.593  22.174   0.389  0.0807  0.0516  0.2596
70621W        W45609  34.791  15.707  12.216  0.4764  0.2673 -0.0405
70622W        W45610  17.413  22.065  20.595 -0.1868 -0.0686  0.2325
70623W        W45611  27.372  23.383  12.621 -0.3052  0.2349  0.1369
70624W        W45612  17.102  23.887   6.751 -0.1017 -0.1967 -0.1946
70625W        W45613   9.721  24.379  12.618 -0.0668  0.4233 -0.5740
70626W        W45614   8.193   7.349  24.051 -0.1685 -0.3489 -0.0146
70627W        W45615  26.898   6.704  18.527  0.1021 -0.2399  0.1584
70628W        W45616  21.562  20.046  21.807  0.1128 -0.2065 -0.0837
70629W        W45617  30.987   7.244   0.956 -0.0548  0.0384  0.4003
70630W        W45618  20.922  20.636  23.275  0.1504 -0.5018  0.0962
70631W        W45619  34.222  30.798   4.408 -0.0088  0.0838 -0.1683
70632W        W45620  26.258  23.781  15.713  0.1942  0.5095  0.0923
70633W        W45621  14.463  29.869   2.032 -0.1880  0.4089  0.3212
70634W        W45622   7.250   4.511   5.216 -0.1039 -0.1094 -0.0775
70635W        W45623  22.517  14.080  21.341  0.1463 -0.0943  0.2261
70636W        W45624   7.154  27.010  21.378 -0.0699  0.1072  0.2328
70637W        W45625  22.986   1.469   4.042 -0.1041 -0.0916 -0.1777
70638W        W45626   1.312  19.983  26.146 -0.2662  0.1622  0.0091
70639W        W45627  18.998  22.486   1.340 -0.2123 -0.1096  0.0423
70640W        W45628  15.506  23.864  15.300  0.1533  0.1324 -0.2161
70641W        W45629  12.486  21.906  15.471  0.0683 -0.2307  0.0100
70642W        W45630  21.084  12.791  18.778 -0.3302 -0.1083 -0.1905
70643W        W45631  31.144  16.599  20.072  0.1345 -0.0727 -0.1635
70644W        W45632   9.360   3.509  20.768  0.2611  0.0861  0.0821
70645W        W45633  20.763   5.378   5.988 -0.1610  0.1621  0.2024
70646W        W45634   6.618   9.193   5.112 -0.1957 -0.2585  0.1597
70647W        W45635  19.875   2.633  21.262 -0.1564  0.0551  0.0587
70648W        W45636   4.817   7.430   0.339 -0.1051  0.0069  0.1292
70649W        W45637  23.647   9.164  17.611  0.2627  0.0280 -0.0483
70650W        W45638  15.178  28.512  21.407 -0.2800 -0.4437 -0.2080
70651W        W45639  26.802  15.721  19.112 -0.0739  0.1658 -0.1659
70652W        W45640  11.021  32.832  16.082  0.0890  0.3930  0.1335
70653W        W45641  24.314  13.087  17.052 -0.0176  0.0638 -0.0736
70654W        W45642  20.261   3.277   1.638 -0.1978  0.3377  0.0801
70655W        W45643  20.652   3.039  23.500  0.0050  0.1401 -0.0111
70656W        W45644  18.262  11.156   9.345 -0.0420 -0.3175 -0.0668
70657W        W45645   7.901   3.843  19.535  0.2223  0.1683  0.0884
70658W        W45646  17.605   7.642  23.326 -0.0847 -0.0583 -0.2821
70659W        W45647  23.196  18.705  26.151 -0.2083  0.0232 -0.3645
70660W        W45648  18.927  20.292  19.467 -0.3691  0.4505  0.0142
70661W        W45649  11.423  11.974   9.322  0.5440 -0.2156 -0.3952
70662W        W45650   9.379  23.614   2.425  0.0602  0.0274  0.0215
70663W        W45651   8.044  17.584  26.228  0.1553 -0.1905  0.0840
70664W        W45652  27.811   1.871   4.482 -0.2202  0.2681  0.2716
70665W        W45653  11.935  22.063   7.600  0.4389 -0.2932 -0.1606
70666W        W45654  19.333  27.614   2.441  0.3808  0.1300  0.1027
70667W        W45655   4.065  20.901  18.346  0.2154 -0.1169 -0.4722
70668W        W45656  13.410  34.219   5.794 -0.0930 -0.0213 -0.3013
70669W        W45657   3.391   5.301  23.081  0.0350 -0.1850  0.0162
70670W        W45658  23.878  21.866  18.363 -0.2535 -0.3240  0.1799
70671W        W45659   8.681  14.796  25.733 -0.2214  0.0597  0.4537
70672W        W45660  29.887  26.795  13.617 -0.1064 -0.1233  0.1576
70673W        W45661   4.192   2.444  21.551 -0.0978 -0.0544  0.0756
70674W        W45662   2.954   7.393   7.214 -0.0639  0.2020 -0.0221
70675W        W45663  15.809  29.389  21.969  0.2459 -0.0931  0.1906
70676W        W45664  26.238   3.411  19.832 -0.0413 -0.0001  0.0676
70677W        W45665  13.358  19.424  21.482  0.1400 -0.1220 -0.2415
70678W        W45666  21.981  26.914  19.085  0.1530  0.0494  0.0929
70679W        W45667  24.556   2.814  17.134 -0.0498  0.1497  0.2442
70680W        W45668   8.749  16.185   8.890  0.1110 -0.1564  0.1267
70681W        W45669  27.214  23.866  12.795 -0.3020 -0.0502 -0.0640
70682W        W45670  33.587  25.689  24.082  0.0770 -0.4017  0.2854
70683W        W45671   5.614   0.489   4.419 -0.1867 -0.0364 -0.1082
70684W        W45672  22.502  23.698   0.610  0.3142 -0.0981 -0.1760
70685W        W45673   0.616  25.438  25.471  0.0287 -0.2004  0.1515
70686W        W45674  11.715  33.215  24.079  0.2962 -0.0242  0.1305
70687W        W45675  13.876   9.345   8.100 -0.0294  0.1316  0.0826
70688W        W45676  26.380  27.783  11.510 -0.0899 -0.0667  0.0538
70689W        W45677  30.957  32.164  13.128 -0.0373  0.0260 -0.0686
70690W        W45678  11.321  24.091  22.193 -0.0462  0.1183 -0.0972
70691W        W45679  13.384  11.108  25.971 -0.2849 -0.1109 -0.1079
70692W        W45680  15.615  28.915   4.253  0.0000  0.2596  0.3042
70693W        W45681  18.590   7.831  12.911 -0.0063 -0.0571  0.2031
70694W        W45682  30.599   8.754  20.595  0.0466 -0.2903  0.1139
70695W        W45683   2.059  24.081  22.953  0.0225 -0.0174 -0.0155
70696W        W45684  28.925  17.024   6.088  0.3845  0.1812  0.2553
70697W        W45685  31.444  21.239   6.570  0.0276  0.1353 -0.2491
70698W        W45686  10.081   6.580  10.190  0.2364  0.0309  0.2065
70699W        W45687   6.893  31.930  19.948  0.1718 -0.0470 -0.0596
70700W        W45688  33.989   0.103   8.022 -0.0920 -0.0375  0.3124
70701W        W45689  12.305  23.282   3.385 -0.1908 -0.1394 -0.0101
70702W        W45690  30.206  10.915  13.114  0.0475 -0.0676  0.5568
70703W        W45691  18.138  29.551  21.611 -0.1838 -0.0429 -0.1370
70704W        W45692  17.805  35.371  22.387 -0.2452  0.3620 -0.2275
70705W        W45693  31.484  21.553   5.606  0.0494  0.0808 -0.0521
70706W        W45694  31.231  21.637  20.485  0.3266  0.0728 -0.2970
70707W        W45695  27.796  13.027  11.093 -0.1996 -0.1830  0.0807
70708W        W45696   0.193  16.069  13.690 -0.0117 -0.0451  0.1475
70709W        W45697   4.520   0.642   6.511 -0.1819  0.0576  0.1483
70710W        W45698   6.092   3.750   7.161  0.0232 -0.0960  0.0204
70711W        W45699  25.725  10.349  22.871 -0.1807 -0.2405 -0.0076
70712W        W45700  30.916   0.279   6.469  0.1077 -0.1779 -0.0935
70713W        W45701  19.908  33.149  16.324  0.3278 -0.0693 -0.2136
70714W        W45702  19.582  21.101  22.514  0.0259 -0.0953  0.3393
70715W        W45703   0.949   5.849  25.521 -0.0502 -0.0190 -0.1283
70716W        W45704  28.447  20.245  21.826  0.3171 -0.0566 -0.0261
70717W        W45705  23.516  28.341  16.606  0.1502  0.0337  0.1084
70718W        W45706  11.247  26.338  24.734 -0.2648  0.0595  0.3982
70719W        W45707   7.758  14.285   0.884  0.0153 -0.2130 -0.1529
70720W        W45708   6.891  24.682   4.360 -0.0840 -0.3043  0.0187
70721W        W45709   4.475  21.673  20.061  0.2294 -0.1357  0.1856
70722W        W45710  30.247  11.063  25.240  0.2520  0.4005 -0.1498
70723W        W45711  23.343  15.410  19.347 -0.1099 -0.0313  0.1649
70724W        W45712  28.161   2.073  14.134 -0.2384  0.0909 -0.1710
70725W        W45713  29.663  34.480  20.533 -0.1303  0.0546 -0.2715
70726W        W45714   6.794  23.513   2.308 -0.0618  0.2303  0.0257
70727W        W45715  16.835  32.431  22.523 -0.3109 -0.2866 -0.2333
70728W        W45716   8.166   3.967  22.803 -0.0202  0.1328 -0.3031
70729W        W45717  20.684  24.744  24.679 -0.0495  0.0440  0.0407
70730W        W45718  29.121   0.549  26.023 -0.0865 -0.3517 -0.2074
70731W        W45719  29.549  25.608  14.122  0.0943 -0.0369  0.0274
70732W        W45720  16.729  27.582   9.623  0.0297 -0.0271 -0.1947
70733W        W45721  33.875   3.722  11.791 -0.1868 -0.0137 -0.1401
70734W        W45722  13.359  13.342  13.686  0.0597  0.1641  0.0794
70735W        W45723  32.369   1.279  24.096 -0.1710  0.1228  0.1197
70736W        W45724   8.855  25.947  10.287 -0.1487  0.1176 -0.2360
70737W        W45725  16.161  14.075  23.929 -0.0684 -0.2610  0.0377
70738W        W45726  16.715   1.810  21.764 -0.3587  0.2001  0.0777
70739W        W45727  19.123   1.651  17.382  0.0655  0.0157  0.2052
70740W        W45728  27.064  23.046   8.293  0.0100  0.3922 -0.2190
70741W        W45729  26.609  34.065  14.689  0.3008  0.0224  0.2519
70742W        W45730  19.782  11.205   6.339 -0.0578 -0.2599 -0.0851
70743W        W45731   1.163   5.140  13.478  0.1750  0.0685 -0.4482
70744W        W45732  22.256   7.101   1.189 -0.1258  0.0653  0.1607
70745W        W45733  15.317  15.737  13.813 -0.0452  0.2521 -0.0143
70746W        W45734   6.499  12.021  19.107 -0.0139  0.1875  0.0138
70747W        W45735  17.637  17.481  24.875 -0.0473 -0.1302 -0.2314
70748W        W45736  29.614  18.325   6.025 -0.0211 -0.2630 -0.1788
70749W        W45737  26.111   0.507  15.285  0.0767 -0.2091 -0.2077
70750W        W45738  30.747  25.521  21.092 -0.0159 -0.1035  0.0926
70751W        W45739  32.207  14.520  21.641 -0.5087 -0.1900 -0.0164
70752W        W45740   3.910  34.531   2.141  0.1296  0.1304  0.1946
70753W        W45741   3.575  20.527   0.810 -0.1689  0.2075  0.0736
70754W        W45742  10.410  19.181  11.433 -0.1375 -0.3253  0.1771
70755W        W45743   0.249  22.586   9.146 -0.0294 -0.5455 -0.1520
70756W        W45744   9.491  27.177  21.335  0.0499  0.1649 -0.0252
70757W        W45745  27.352  25.793   8.919  0.1646  0.2601 -0.4255
70758W        W45746  16.676  12.614  25.775 -0.0199 -0.1887  0.0058
70759W        W45747   2.188  28.926  25.347  0.0880 -0.3564 -0.1246
70760W        W45748   9.411  22.223   8.180  0.0527  0.0051  0.1425
70761W        W45749  13.080  17.234   7.631  0.0379  0.1549 -0.0389
70762W        W45750   2.680  32.517  21.753 -0.2072  0.0597 -0.0723
70763W        W45751  17.630  24.278  14.953 -0.0703  0.6082 -0.2137
70764W        W45752   1.466  32.343   8.160 -0.2258  0.2767 -0.1954
70765W        W45753  26.988  26.960   1.386  0.2342 -0.0393  0.0730
70766W        W45754  13.086   4.781   1.510 -0.1709  0.0731  0.1218
70767W        W45755  32.109  21.312  11.279  0.0065  0.0647  0.4207
70768W        W45756  34.945  31.725   8.301  0.0955 -0.1771 -0.0536
70769W        W45757  32.754   2.450  19.597 -0.2969  0.0518  0.1745
70770W        W45758  35.347   3.904   4.989  0.4757 -0.1467  0.1557
70771W        W45759  26.226  29.730  11.494  0.3748  0.3942  0.0217
70772W        W45760  32.663  22.121   0.327  0.2460 -0.2227 -0.0493
70773W        W45761  22.693  11.179  24.003  0.0243  0.1960  0.0641
70774W        W45762  24.772  18.628  19.311 -0.0238  0.1729  0.2392
70775W        W45763   3.010  24.610   3.667 -0.0498 -0.1912  0.0555
70776W        W45764   7.124  16.994  25.509  0.1439 -0.1650  0.1692
70777W        W45765   4.673  34.449  20.607 -0.0290 -0.0765 -0.0893
70778W        W45766  23.605  18.170  16.027  0.2645  0.0846 -0.1613
70779W        W45767  16.959   4.573   2.477  0.0835  0.0545  0.1037
70780W        W45768   5.897  12.314  21.603  0.1338  0.0688 -0.0425
70781W        W45769   4.405   7.056   0.048  0.2354  0.1426  0.1838
70782W        W45770  18.870  19.886  19.761  0.0542 -0.0253  0.0210
70783W        W45771   2.725  31.880  23.285  0.1370  0.2189 -0.1322
70784W        W45772   3.468  29.720   2.192  0.1396  0.0888 -0.0425
70785W        W45773   4.398  20.375  22.661  0.0060 -0.0196  0.1675
70786W        W45774  13.965  29.771  22.167  0.3520  0.0714 -0.4453
70787W        W45775   8.273  10.258  22.722 -0.2707  0.4553  0.0852
70788W        W45776  13.221  13.272  22.262 -0.1878  0.3897 -0.4750
70789W        W45777  19.033  13.532  20.232 -0.0391  0.2568 -0.0684
70790W        W45778  25.107   0.990  18.594  0.0145  0.0748  0.2248
70791W        W45779   3.949  11.432   4.207 -0.1671 -0.1715 -0.0518
70792W        W45780  17.143  25.479  23.766  0.2694  0.1590 -0.1157
70793W        W45781   9.416  32.310  24.852  0.3121  0.4540  0.1740
70794W        W45782   7.682   6.911   9.850  0.0296 -0.0761  0.0278
70795W        W45783  10.936  21.188  24.880  0.1026  0.0872  0.3187
70796W        W45784  19.090  28.106   4.572 -0.1727 -0.0395  0.1620
70797W        W45785  23.677   7.894   2.487 -0.0234  0.1325 -0.1697
70798W        W45786  18.156   3.658   4.561  0.0606 -0.2019  0.4075
70799W        W45787  13.372  28.447  12.641 -0.0523 -0.3694 -0.0888
70800W        W45788  31.926  13.566   9.165 -0.1752 -0.0807  0.1250
70801W        W45789   1.868  28.855  23.489 -0.1932 -0.3733  0.1386
70802W        W45790  32.230   0.888  17.144  0.2186  0.5050 -0.1995
70803W        W45791   2.493   0.697   3.585  0.0788 -0.0088  0.0957
70804W        W45792  11.183  17.550   0.247 -0.2592 -0.0533 -0.0935
70805W        W45793  28.813  27.989  25.688 -0.0242 -0.0109  0.0833
70806W        W45794  31.408  10.538  22.549  0.0554  0.3017  0.1264
70807W        W45795  24.893   6.413  11.834  0.2773  0.4975 -0.0742
70808W        W45796   4.816   3.118   9.158 -0.1443 -0.2230 -0.3316
70809W        W45797  10.777  25.379  10.474 -0.0879 -0.1942  0.1824
70810W        W45798  22.352   8.749   2.883 -0.2687  0.2749 -0.3403
70811W        W45799   1.943  17.188  20.253 -0.3733 -0.1070 -0.0381
70812W        W45800  24.353  20.894  19.483 -0.0633  0.1145 -0.0493
70813W        W45801  11.880   1.839  23.124  0.0909 -0.0955 -0.1718
70814W        W45802   7.989   7.340  25.812 -0.2182 -0.2454 -0.3243
70815W        W45803   2.631  21.622  17.615 -0.2335 -0.0670 -0.0553
70816W        W45804  33.333  29.671  25.046 -0.0490  0.0513 -0.0907
70817W        W45805   4.377  12.253  25.611 -0.1271  0.0980 -0.4032
70818W        W45806  15.164   3.176  19.508  0.1076  0.0985 -0.1510
70819W        W45807  31.956   6.669  17.475 -0.2119 -0.2371  0.3090
70820W        W45808  18.979  21.146   9.889  0.1835  0.4574  0.4644
70821W        W45809   9.938  31.679  25.577  0.1072  0.1556 -0.1855
70822W        W45810  27.891  33.486  18.728 -0.1236 -0.0637  0.1016
70823W        W45811  33.980   2.415  14.549 -0.3664 -0.3069 -0.0249
70824W        W45812   5.861   3.008   6.701  0.1713  0.0277 -0.2001
70825W        W45813  34.846   0.368   1.064  0.2483  0.1436 -0.0078
70826W        W45814  29.361  31.568  17.233  0.0309 -0.1080  0.2822
70827W        W45815   0.450   4.108  19.337 -0.1160  0.2255 -0.1150
70828W        W45816   5.726   8.597   0.687 -0.0357 -0.0163  0.0153
70829W        W45817   4.609   8.278   7.456 -0.1481  0.5138  0.1488
70830W        W45818  12.332  11.557   7.711  0.0237 -0.0056 -0.0907
70831W        W45819  22.759  14.616  15.533 -0.1488 -0.1499  0.0172
70832W        W45820  32.406  15.352  23.537 -0.2005  0.1448 -0.0381
70833W        W45821  12.400  17.730  11.587 -0.1846 -0.0865  0.1093
70834W        W45822  16.453  22.906  10.927 -0.2346  0.0518  0.0265
70835W        W45823  34.155   1.479  13.488  0.2425  0.1371  0.0632
70836W        W45824  13.478   9.539   7.272 -0.0065  0.1461 -0.1225
70837W        W45825  30.646   3.178  21.827 -0.2491  0.1114  0.2130
70838W        W45826  22.527   2.110   6.474 -0.1032 -0.2966 -0.1093
70839W        W45827  22.485   7.425  26.085 -0.1410  0.3567  0.0681
70840W        W45828   2.174  11.348  22.177  0.0074 -0.0523 -0.0080
70841W        W45829  15.994  25.705  22.739  0.1813  0.0778 -0.0089
70842W        W45830  33.756   0.134  12.914  0.1819 -0.0919  0.0658
70843W        W45831  19.872  26.555  17.935 -0.1877 -0.3930  0.0324
70844W        W45832  22.906   2.439  17.047  0.0963  0.0588 -0.0623
70845W        W45833  17.731   1.341  24.085  0.0918 -0.2638 -0.0270
70846W        W45834  22.074  25.787   4.540 -0.1434  0.0964 -0.1701
70847W        W45835  25.455  30.715   9.745 -0.0831  0.5257 -0.2410
70848W        W45836  24.782  31.267  19.195  0.0718 -0.0080  0.2444
70849W        W45837  31.611   1.331   4.601  0.0972 -0.2037  0.0803
70850W        W45838   4.380  10.232  25.669 -0.1434 -0.2005 -0.0162
70851W        W45839   2.677  29.632  18.879  0.2754 -0.0840  0.2222
70852W        W45840  34.649  16.678   8.558 -0.0378 -0.0296  0.1370
70853W        W45841  34.336  17.316  18.362  0.0078 -0.2397 -0.4171
70854W        W45842  20.349  31.930  15.674  0.0554  0.2343 -0.1285
70855W        W45843  19.244  13.347  18.811  0.0132  0.0188  0.2225
70856W        W45844  10.539  19.726  12.502 -0.2207 -0.1366  0.1102
70857W        W45845   0.470  29.614   6.167 -0.1659 -0.3839 -0.1764
70858W        W45846   4.750   2.530   4.662 -0.1882 -0.1709 -0.1950
70859W        W45847   6.465  17.670  19.008 -0.2132  0.3330  0.3265
70860W        W45848  34.265  30.544   0.793 -0.0871  0.1538 -0.1090
70861W        W45849   2.327   3.382  23.298 -0.2211  0.2431 -0.1235
70862W        W45850  23.093  25.831   3.763 -0.1326  0.0862 -0.2594
70863W        W45851  23.627  15.105  12.174 -0.1880  0.0954 -0.3265
70864W        W45852   9.254  14.069  19.352  0.0921  0.0723  0.4384
70865W        W45853  13.311  18.047   0.021 -0.2071  0.1157  0.0715
70866W        W45854  10.524  11.408  12.803 -0.0004 -0.0737  0.2704
70867W        W45855   6.370  30.899   8.571 -0.1474 -0.0283  0.1779
70868W        W45856  26.931  10.477  25.637 -0.0913 -0.2768 -0.1236
70869W        W45857  28.333  18.530  24.576 -0.0338  0.2158  0.0252
70870W        W45858   2.502  31.907  24.223  0.1142 -0.0093  0.1006
70871W        W45859  22.194  20.386  19.139  0.0522  0.0078 -0.1511
70872W        W45860  25.554  18.075  22.318 -0.0504 -0.1006  0.2268
70873W        W45861   4.493  12.294  20.645 -0.0309  0.2736  0.0459
70874W        W45862  20.525  22.597  20.219 -0.1453  0.1892  0.0430
70875W        W45863  25.325  31.076  22.890 -0.0032 -0.0105  0.2612
70876W        W45864  33.408  21.435   0.076  0.2409 -0.1066  0.0969
70877W        W45865  20.752   2.500  16.436  0.3229  0.0260  0.2590
70878W        W45866  25.361  33.681  22.248 -0.0657 -0.0993  0.2802
70879W        W45867  17.958   5.890   3.184 -0.0310 -0.1425 -0.0519
70880W        W45868  15.527   3.419   9.485 -0.4271  0.2679 -0.1070
70881W        W45869  23.232  25.464   4.079  0.0391 -0.1238  0.2151
70882W        W45870   4.399  15.922  22.248  0.3078  0.0397 -0.0421
70883W        W45871   3.913  20.358   3.632 -0.1775 -0.1800 -0.0184
70884W        W45872  22.561  10.571  16.234 -0.1146 -0.1911 -0.1148
70885W        W45873  32.948   3.490   3.080 -0.1246 -0.2737 -0.1121
70886W        W45874   3.707  24.903  21.769 -0.1308  0.1850  0.1670
70887W        W45875  11.245   5.587   2.659 -0.2770  0.1378 -0.0368
70888W        W45876   3.506  32.027   2.351  0.2053  0.0402  0.2666
70889W        W45877   5.478  14.096   5.216 -0.1498  0.0142 -0.2929
70890W        W45878  27.042   5.682  25.985  0.3175 -0.1780 -0.2592
70891W        W45879  27.564  23.281  21.339  0.1154  0.2146 -0.1879
70892W        W45880  16.033  28.675   4.437  0.2217  0.2605 -0.0209
70893W        W45881  20.988   7.548   8.202  0.3205  0.0103 -0.0268
70894W        W45882   5.670   8.026   5.319  0.1668 -0.0414  0.0902
70895W        W45883  13.524  11.748  21.261 -0.2076  0.4880 -0.3443
70896W        W45884  26.994   4.028   1.527 -0.0453  0.0366  0.0363
70897W        W45885  22.064  16.457  25.640 -0.1111 -0.3147  0.1223
70898W        W45886  23.333  21.635  12.218 -0.2946  0.2356  0.1170
70899W        W45887   8.801  13.305   9.656  0.3025 -0.3983 -0.3247
70900W        W45888  25.182  32.050   0.807  0.1703 -0.1463 -0.0158
70901W        W45889  31.595   8.826   9.352  0.2061  0.1642  0.0895
70902W        W45890  15.452  12.283  21.596  0.2549 -0.2737 -0.2462
70903W        W45891  35.026  11.701  13.346 -0.0384 -0.0911  0.0585
70904W        W45892  12.678  12.150  21.413  0.2817 -0.0299  0.0053
70905W        W45893  27.054  26.209  16.915 -0.2721 -0.0757  0.0246
70906W        W45894  14.119  24.264   0.050  0.1164 -0.2023  0.2256
70907W        W45895   0.664  23.716   1.545 -0.1241  0.1929  0.2418
70908W        W45896   9.347  13.824   0.592 -0.0316  0.0703  0.0119
70909W        W45897  11.633  11.472  25.156  0.0234  0.2439 -0.3070
70910W        W45898  32.183  24.149  15.528  0.2190  0.1436 -0.0193
70911W        W45899   8.692   7.487  25.210  0.1898  0.0680  0.0013
70912W        W45900  10.500  12.019   9.535  0.4245 -0.0287  0.1804
70913W        W45901  27.969  22.572  24.137  0.1697  0.0256 -0.2265
70914W        W45902   2.349  28.476   3.370  0.1492  0.0757  0.2885
70915W        W45903  27.407  24.324  17.600  0.1703 -0.2232 -0.0851
70916W        W45904  13.448  23.876  14.993  0.0743 -0.2454  0.1973
70917W        W45905  18.408  34.795  21.929 -0.0066  0.2613  0.1150
70918W        W45906  17.304   9.359   8.265  0.0235  0.2933  0.0171
70919W        W45907   2.369  21.776  19.970 -0.1435 -0.3696  0.2578
70920W        W45908   1.366  16.464  20.851  0.0088  0.2000  0.0490
70921W        W45909  20.130  18.325  21.818  0.4131  0.4404 -0.2218
70922W        W45910  31.934   1.364  26.055 -0.0358  0.1427  0.0798
70923W        W45911  18.550   5.906   5.393  0.1341 -0.3584 -0.0326
70924W        W45912  34.651  12.445  19.192  0.2981 -0.2371 -0.0071
70925W        W45913   4.298  31.050   4.798  0.1896 -0.0905  0.0535
70926W        W45914  11.346   8.563  22.378 -0.1341 -0.0208  0.0971
70927W        W45915  20.698  24.773   4.115  0.2123  0.1007  0.2340
70928W        W45916  34.286  17.854  21.700  0.2279 -0.3015  0.0723
70929W        W45917  33.969  25.382  14.454 -0.0296  0.3136  0.2623
70930W        W45918  26.911  19.422   9.657  0.0587  0.1799 -0.1616
70931W        W45919  10.114  19.066  21.307  0.0238  0.2090  0.1185
70932W        W45920  10.300  15.971   4.895  0.0767 -0.1816 -0.0736
70933W        W45921  22.770  26.349  20.175 -0.0508 -0.1455  0.1081
70934W        W45922  15.709   2.766  24.361 -0.2043 -0.0096  0.3358
70935W        W45923   8.733  20.588   4.711 -0.3116  0.0126  0.2498
70936W        W45924   2.276  15.752  16.955 -0.2299  0.1347  0.1399
70937W        W45925  24.131   6.161  18.300 -0.0037 -0.1186 -0.0405
70938W        W45926  25.418  11.999  11.276  0.1201  0.1649 -0.0323
70939W        W45927  21.480  19.408  24.819  0.2705  0.5480 -0.0867
70940W        W45928   1.346  31.029   8.632  0.1201  0.1076 -0.0308
70941W        W45929  19.351  29.716   1.694 -0.0330  0.3007 -0.2445
70942W        W45930  31.992  14.799  21.198  0.2531 -0.1877 -0.0722
70943W        W45931  20.752  20.265  18.982 -0.2670  0.0476  0.0201
70944W        W45932  35.147  15.739  15.914 -0.0242 -0.0184 -0.1456
70945W        W45933  25.281  28.588  24.089  0.2541  0.2930  0.0572
70946W        W45934  24.599  35.059  15.135 -0.1563  0.0223 -0.0306
70947W        W45935  23.144  25.391  14.698 -0.3568 -0.2293  0.0210
70948W        W45936   4.284  31.380   1.821 -0.2911 -0.2358 -0.0889
70949W        W45937  17.618   9.880  11.560  0.6082 -0.2492 -0.0110
70950W        W45938  17.902  30.026  23.778  0.2497  0.1581 -0.3273
70951W        W45939  22.204   5.555   6.683 -0.1404  0.1610 -0.1749
70952W        W45940  33.870  19.067  23.025  0.0797  0.2789 -0.0771
70953W        W45941  30.039  27.922  15.158 -0.1280  0.0959  0.1193
70954W        W45942   9.123  30.006  12.596 -0.1435  0.1892  0.1435
70955W        W45943   5.565  15.886  21.340  0.0902  0.1784 -0.1907
70956W        W45944  16.284   9.009  12.631 -0.0590 -0.1164 -0.0812
70957W        W45945  34.926   9.397  24.341 -0.0969 -0.3944  0.4088
70958W        W45946   1.985  24.028  20.368  0.0882  0.0517  0.1844
70959W        W45947   2.779   9.281  25.803  0.1871 -0.1619 -0.2720
70960W        W45948  17.315   7.943  24.885  0.0881 -0.0952  0.3393
70961W        W45949   8.036  29.579  12.288 -0.1784  0.2660 -0.1430
70962W        W45950  18.165   6.528   4.080 -0.2646  0.2856 -0.1265
70963W        W45951  14.335  12.188  19.323  0.1187  0.0304 -0.2607
70964W        W45952   1.808  20.378  23.096 -0.3041 -0.4324 -0.0780
70965W        W45953   4.011   7.213  17.045  0.0376  0.0720  0.1496
70966W        W45954   9.726  29.053   0.487  0.2579  0.0150 -0.1449
70967W        W45955   4.726  27.096  23.464  0.0014  0.0983 -0.1374
70968W        W45956  10.226  11.542  25.388 -0.2089 -0.3252  0.0022
70969W        W45957  25.675  13.476  22.088  0.0121  0.0990  0.0152
70970W        W45958  34.609  21.820  14.180 -0.0870  0.0983 -0.1068
70971W        W45959   8.177  20.376   7.901 -0.2062  0.1103  0.1010
70972W        W45960  24.393   2.176  25.540 -0.1510 -0.1316 -0.0718
70973W        W45961  28.923  16.665  21.102 -0.0365 -0.2610  0.1814
70974W        W45962   7.064   2.296   6.131  0.2728 -0.2937 -0.1164
70975W        W45963  25.188  27.400  11.286 -0.1148 -0.1285 -0.1413
70976W        W45964   8.760   4.434  12.501 -0.0224  0.2065  0.1663
70977W        W45965  29.326   5.570  17.353 -0.1000 -0.2057 -0.0977
70978W        W45966  27.242   3.750  20.621  0.0612 -0.0080 -0.0367
70979W        W45967  12.359   2.069   5.408  0.0555 -0.6538 -0.1878
70980W        W45968  32.077  10.118  19.948 -0.1125  0.2825  0.1657
70981W        W45969   8.096  15.448  23.899 -0.2669  0.1721 -0.1240
70982W        W45970  11.621  17.546   0.617  0.2385  0.2183  0.1937
70983W        W45971  11.949  13.319  20.653 -0.1534  0.0945  0.0993
70984W        W45972  28.170  24.202  15.238 -0.3425 -0.0607  0.0016
70985W        W45973  33.273   1.607  22.984  0.0425  0.1494 -0.1185
70986W        W45974   5.983  17.209   0.999  0.0881 -0.0355 -0.0572
70987W        W45975  15.289   7.818  20.441 -0.1869  0.1012  0.0944
70988W        W45976  30.962  18.251  25.895  0.0861 -0.1003  0.0097
70989W        W45977  32.273   2.914  19.091  0.0480 -0.3639  0.1161
70990W        W45978  34.880  30.991  16.147  0.0861 -0.0402  0.0769
70991W        W45979  29.364  22.903  11.066 -0.1321  0.2765 -0.1168
70992W        W45980  31.168   6.416  21.538  0.1390  0.4666  0.0232
70993W        W45981  24.057  25.868  14.655  0.0132  0.1740  0.3000
70994W        W45982  27.959   6.967  22.830 -0.4034  0.5132 -0.0026
70995W        W45983  11.998   1.178   2.811 -0.1477 -0.0689  0.1114
70996W        W45984  25.591   6.187  20.654  0.1756 -0.2572 -0.1871
70997W        W45985   6.749  32.157   5.579 -0.0434  0.2650  0.0620
70998W        W45986  20.275  23.950   1.780 -0.2408  0.4172  0.0761
70999W        W45987  31.705  19.024   5.207  0.0873 -0.1017  0.0056
71000W        W45988  10.030   4.330  23.901  0.3175  0.2674 -0.1102
71001W        W45989  22.304   8.282  15.591 -0.3534  0.0223 -0.0586
71002W        W45990  25.718  32.597  14.341  0.0266 -0.0170  0.0132
71003W        W45991  10.576   2.888  19.026  0.2335 -0.2146  0.3492
71004W        W45992  25.452   1.435  21.711 -0.0603 -0.1437 -0.1349
71005W        W45993   6.945  18.870  12.782 -0.0549  0.0674 -0.0054
71006W        W45994  30.490  30.742  15.410  0.1351 -0.0092  0.2228
71007W        W45995   6.519  10.148  24.224 -0.3739 -0.0825 -0.1573
71008W        W45996   1.105  22.024  23.212 -0.2598  0.0249  0.2046
71009W        W45997  15.620  27.132   7.247 -0.2283  0.1464 -0.2629
71010W        W45998  32.556  28.068  18.535 -0.0988  0.1840 -0.1527
71011W        W45999  30.431  24.378   8.387  0.1613  0.0412 -0.3433
71012W        W46000   6.718  21.208  22.099 -0.1592 -0.1094  0.1970
71013W        W46001  26.295   1.479   1.029 -0.1900  0.2597 -0.0123
71014W        W46002  16.245  23.279  24.159  0.0159 -0.0283  0.0231
71015W        W46003   0.443  32.469  15.180 -0.1792 -0.2302 -0.0333
71016W        W46004  32.863  11.109   9.065  0.0420 -0.1540 -0.2359
71017W        W46005  16.825  27.531  23.374  0.0056  0.3428 -0.0365
71018W        W46006  25.733  13.990  20.213  0.1669  0.1515  0.1352
71019W        W46007  28.551  34.922  21.599 -0.2811  0.1035  0.1457
71020W        W46008  10.804  14.722   5.114 -0.3290 -0.2985  0.2379
71021W        W46009  13.907  10.239   0.028  0.2508  0.2601 -0.2082
71022W        W46010  20.982  31.654   5.856  0.2588 -0.3478 -0.0285
71023W        W46011  11.558   4.446   5.749  0.0710  0.0788  0.0320
71024W        W46012  21.583  22.359  16.673 -0.2218 -0.1066 -0.0506
71025W        W46013  34.109  15.816  10.851 -0.0212  0.0233  0.0572
71026W        W46014   5.979  30.159  23.354 -0.1189  0.0047 -0.0634
71027W        W46015  27.026  23.403  13.004 -0.1874 -0.0002  0.1919
71028W        W46016  14.779  23.880  13.572  0.1412 -0.1011 -0.0672
71029W        W46017  18.034  19.865  22.143  0.3231  0.2307  0.0267
71030W        W46018  22.902   2.843  25.961 -0.0564 -0.0587  0.3616
71031W        W46019   0.844  27.419   1.601 -0.1342  0.0188  0.0527
71032W        W46020   5.250  17.685   8.230 -0.5283  0.0491 -0.0379
71033W        W46021  13.778  34.138   5.442 -0.1498 -0.0576  0.0585
71034W        W46022  28.728  15.577  21.231 -0.0929  0.0446 -0.3662
71035W        W46023  33.752  23.928   1.210  0.3734  0.1104 -0.0619
71036W        W46024  26.725   5.659  13.706  0.0660 -0.0487  0.1468
71037W        W46025   4.344  24.402   3.011 -0.0778  0.0340 -0.0758
71038W        W46026  15.362  21.997  14.681 -0.1455  0.1112 -0.1134
71039W        W46027   5.482   5.965   1.287  0.0590  0.1429 -0.2851
71040W        W46028  18.527  21.862   6.803 -0.0932  0.0784  0.2504
71041W        W46029  25.580  18.344  13.897  0.0935  0.0781  0.2317
71042W        W46030  23.869  27.147   1.847 -0.3154 -0.1849 -0.1860
71043W        W46031  28.928  20.116  19.728  0.1961  0.0098 -0.2403
71044W        W46032  25.720   7.675  11.157  0.1794  0.0363 -0.0009
71045W        W46033  29.811   9.515  12.347 -0.1612  0.3358  0.0511
71046W        W46034  17.010  23.091   6.680 -0.1139  0.2274  0.1593
71047W        W46035   3.410   8.917   5.362  0.2852  0.2405  0.0665
71048W        W46036  26.498  14.747  12.866  0.1563  0.0888 -0.1535
71049W        W46037  25.002  20.022  21.661  0.2165  0.0678 -0.1508
71050W        W46038  27.957   5.952  15.072 -0.1264  0.0064  0.1526
71051W        W46039  10.718   4.943  24.597 -0.1576 -0.1558 -0.0623
71052W        W46040  23.450  26.933  21.644 -0.3690  0.1499  0.2298
71053W        W46041  16.428   8.980   9.589  0.0717 -0.2212  0.2801
71054W        W46042  33.279  16.781   6.908  0.0129  0.1004  0.4253
71055W        W46043   9.100  31.235   3.253 -0.0330  0.2067  0.0807
71056W        W46044  34.110  28.984  19.854  0.0352 -0.0181 -0.1576
71057W        W46045   4.865  24.024   2.304 -0.1306  0.2432  0.1078
71058W        W46046  29.605  14.582  19.517  0.0477 -0.0141 -0.1554
71059W        W46047  35.383   3.211  15.124 -0.1078 -0.1144 -0.0304
71060W        W46048  22.842   9.835  14.744 -0.2730  0.0682  0.0116
71061W        W46049   2.835   1.845  17.122  0.0789 -0.1316 -0.1311
71062W        W46050  24.770   1.509  17.229 -0.0332  0.2851  0.1523
71063W        W46051  11.452  11.626  26.123 -0.2311 -0.0589 -0.2179
71064W        W46052  28.905   9.732   7.332  0.1202  0.0337 -0.0760
71065W        W46053  14.356  22.950   7.217 -0.2870  0.0031 -0.2459
71066W        W46054  33.686   5.075   1.383 -0.3720  0.2852  0.1251
71067W        W46055  17.931  27.869   0.384 -0.0194  0.0738 -0.1026
71068W        W46056  23.808  21.430  20.268 -0.1987  0.0713 -0.2934
71069W        W46057  13.693  30.155  21.862 -0.2788 -0.0996  0.2588
71070W        W46058   9.214  11.261  10.922  0.2160  0.0742  0.0743
71071W        W46059  26.889  19.564  20.067  0.0574 -0.1369 -0.2722
71072W        W46060  18.440   8.362  19.650 -0.1261  0.1055  0.1521
71073W        W46061  18.792  32.854  26.113 -0.0707  0.0236  0.2295
71074W        W46062  13.306  22.241  15.542 -0.1426  0.2163 -0.3251
71075W        W46063   7.889  16.719  12.153  0.0754 -0.0619  0.1288
71076W        W46064  24.434  25.338   0.392 -0.1431 -0.1241 -0.1375
71077W        W46065  12.804  11.493  10.348  0.1039 -0.1368 -0.2976
71078W        W46066  20.158   5.809  19.628  0.1230  0.1811  0.3217
71079W        W46067   3.964  30.238   5.394  0.0549 -0.1497 -0.0573
71080W        W46068  17.466   4.112   0.006  0.0406 -0.0501  0.1150
71081W        W46069  14.601  16.466  13.502  0.2094  0.1461 -0.0968
71082W        W46070  25.675  11.208  12.977 -0.2520 -0.0001 -0.1187
71083W        W46071   2.443   8.493  19.175 -0.1203  0.0328  0.4236
71084W        W46072  13.706  17.441   3.210 -0.4185  0.0319 -0.2323
71085W        W46073  23.278   1.178   1.935 -0.0815 -0.1285  0.0273
71086W        W46074  12.109  23.787  12.131 -0.1258 -0.1182  0.1582
71087W        W46075  22.191  28.528  25.941  0.2007  0.3032 -0.0492
71088W        W46076  34.144  21.201   9.003 -0.1330 -0.2375  0.1365
71089W        W46077   9.955  27.411  24.730 -0.0582 -0.1794 -0.2136
71090W        W46078  14.960  13.491   4.437  0.1310 -0.0907  0.0465
71091W        W46079   6.126  27.157   4.608  0.0766 -0.2355 -0.2445
71092W        W46080  11.849  14.426  23.983 -0.3331  0.0578 -0.0980
71093W        W46081  14.188  14.128   4.829 -0.0100  0.1809 -0.4014
71094W        W46082  33.482  27.628  23.630  0.0171  0.1613 -0.0028
71095W        W46083  16.972  15.378   7.768 -0.0686 -0.1490 -0.0911
71096W        W46084  21.154  32.235  14.864  0.0369  0.1248  0.1643
71097W        W46085  11.446  22.863   5.124 -0.0343  0.0967  0.2757
71098W        W46086   9.905  18.201   0.386 -0.3295  0.1638 -0.1993
71099W        W46087  10.041   9.000   5.897  0.1011 -0.0648  0.4712
71100W        W46088  13.814   6.855  24.649  0.0337  0.0654  0.3003
71101W        W46089  21.741  12.711   3.880  0.3184 -0.3845  0.0703
71102W        W46090  21.894  30.436  18.645 -0.0457  0.3625  0.0063
71103W        W46091   8.237  18.191   3.886  0.0320 -0.1860  0.0071
71104W        W46092   0.758   4.489  20.479  0.3264  0.0247 -0.2279
71105W        W46093  23.936  25.168  17.168 -0.0597 -0.0035  0.2862
71106W        W46094   2.994  35.027   4.223  0.2427  0.3593 -0.0526
71107W        W46095   5.519  20.280   1.971  0.0356  0.0886  0.4644
71108W        W46096  16.516  31.540   6.454 -0.0653  0.2586 -0.0796
71109W        W46097  15.872   6.138   7.960 -0.0458 -0.2635 -0.1135
71110W        W46098  12.850  32.707  14.608  0.2912  0.1177  0.1704
71111W        W46099  34.929  32.961  18.192  0.0083  0.1611 -0.1205
71112W        W46100   0.862  22.042  16.561  0.0120 -0.0819 -0.1296
71113W        W46101   8.243   2.376   7.914 -0.3494  0.1948  0.3030
71114W        W46102  26.348  25.245   9.979  0.1735  0.0794  0.0126
71115W        W46103  25.499  15.287  19.674 -0.1839 -0.1635  0.2173
71116W        W46104   7.174  19.965   5.549 -0.0053  0.1434  0.2972
71117W        W46105  34.213  33.665   3.623 -0.0340  0.0922  0.1342
71118W        W46106  24.125  35.119  25.798  0.1250  0.0128 -0.0060
71119W        W46107   0.090   9.622  22.961  0.0463 -0.1790  0.3548
71120W        W46108   0.543  13.401  20.653  0.0238  0.0848  0.0886
71121W        W46109  15.660  31.217   1.801  0.1525  0.0127  0.1429
71122W        W46110  33.027   3.036  22.452 -0.0830  0.2458  0.3914
71123W        W46111  10.490  13.506   4.515 -0.0881  0.1650  0.0120
71124W        W46112  20.640  34.158   7.095 -0.0103 -0.0908 -0.2180
71125W        W46113  15.458  22.003  12.261  0.0214  0.0637 -0.3427
71126W        W46114   5.353  31.902  11.776  0.1096 -0.0860  0.1244
71127W        W46115   1.107  11.157  20.373  0.1365 -0.1952  0.0470
71128W        W46116  15.173  29.059   8.071 -0.3764 -0.3691 -0.0462
71129W        W46117  10.517  28.850   0.287  0.1705  0.3263 -0.1022
71130W        W46118   0.252   8.252  21.564  0.3461  0.2497 -0.2228
71131W        W46119  25.074  27.660   3.849  0.1377 -0.2252 -0.1174
71132W        W46120   6.743  13.120  22.834  0.1078 -0.1137  0.0485
71133W        W46121  14.661  25.867   5.986  0.0017  0.2579  0.1077
71134W        W46122  30.974  12.300  22.034 -0.2260  0.1110 -0.2541
71135W        W46123   6.365  17.226   1.332  0.2316 -0.0644  0.0680
71136W        W46124  18.689  21.536   7.652 -0.1811 -0.1611  0.3614
71137W        W46125   7.109  15.865   5.290 -0.0375 -0.2004  0.3314
71138W        W46126  12.736   1.328   2.367 -0.0020  0.3313  0.0719
71139W        W46127  17.451  34.652  23.344 -0.1984  0.0202  0.2332
71140W        W46128  24.142  22.551   0.357  0.2085 -0.1608  0.0577
71141W        W46129  24.363   5.901  12.946  0.1532  0.2171 -0.1911
71142W        W46130  14.090  15.389   0.778 -0.0108 -0.2387 -0.2095
71143W        W46131  19.164  32.879  22.177 -0.2817  0.1219  0.0822
71144W        W46132  34.673  27.297  18.615  0.1138 -0.2427  0.2055
71145W        W46133  24.633  19.905  20.837  0.3060  0.1354  0.0444
71146W        W46134  13.627  32.411  20.162 -0.3093 -0.0387  0.2383
71147W        W46135  31.725   4.336  18.770 -0.0170 -0.2447 -0.0718
71148W        W46136  17.487  19.098   7.945  0.1938 -0.0190 -0.0649
71149W        W46137   2.282  11.742  21.807  0.1187  0.4700 -0.1937
71150W        W46138  22.206   7.385   3.627  0.1032  0.2315  0.1788
71151W        W46139   5.923  32.862  10.850 -0.1601 -0.0989 -0.2094
71152W        W46140   7.538   9.542  20.869  0.1129 -0.2334 -0.1136
71153W        W46141   0.514  26.622  23.327  0.0032  0.2105 -0.0169
71154W        W46142  28.870  32.486  10.668 -0.0017  0.0632  0.0827
71155W        W46143   5.546  31.562   7.452 -0.0133 -0.2445  0.0526
71156W        W46144  32.309  31.957  14.360 -0.2905  0.4444 -0.1298
71157W        W46145   5.517  28.873  13.751 -0.1005  0.1605 -0.0158
71158W        W46146   4.589  31.935  23.876 -0.0629  0.2301  0.1698
71159W        W46147  27.485  20.427  22.084 -0.0507 -0.1472 -0.3458
71160W        W46148  18.368   2.105   3.636  0.3974 -0.2314 -0.1310
71161W        W46149  14.676  11.410   4.061  0.2542 -0.1131 -0.0652
71162W        W46150   2.905   0.594  24.739  0.2949  0.0069  0.0503
71163W        W46151  17.898  23.523   9.165 -0.0502  0.3131  0.3168
71164W        W46152  27.683  14.983  23.130 -0.0837  0.0064 -0.2666
71165W        W46153   6.222  19.965  19.120  0.1453 -0.2418 -0.4401
71166W        W46154   8.549  30.900  14.347 -0.2726  0.0001 -0.1062
71167W        W46155  17.306  13.523  25.851  0.3006 -0.1385  0.0250
71168W        W46156  33.922   6.335   1.078  0.0219 -0.1020  0.2415
71169W        W46157  25.074  22.602   0.723  0.0469  0.1007  0.0034
71170W        W46158  33.676  21.383   8.045 -0.2314 -0.0793  0.1671
71171W        W46159  13.022  35.267   5.708  0.0885 -0.0967 -0.3957
71172W        W46160   0.999  12.588  23.776  0.0820  0.1842  0.3176
71173W        W46161  35.193   4.635  23.972 -0.0069 -0.2267 -0.2365
71174W        W46162  19.809  17.624   0.401  0.0240 -0.1158 -0.0576
71175W        W46163  31.967   7.267   2.140  0.0935 -0.1341  0.0212
71176W        W46164  18.900   4.281   4.145  0.2942 -0.1143  0.1225
71177W        W46165   9.752  31.998  14.425 -0.0559  0.3090  0.0941
71178W        W46166   3.133  28.734   9.005 -0.2119  0.2390  0.0584
71179W        W46167   5.626  19.914   6.575 -0.1676 -0.0107 -0.5404
71180W        W46168  11.142  29.057  24.374 -0.2662 -0.1505  0.1958
71181W        W46169  30.023  16.957   5.511 -0.3747  0.0630 -0.0463
71182W        W46170  22.615  32.576  13.724 -0.3783  0.0382  0.2213
71183W        W46171  16.005  10.987   1.919  0.2185 -0.2075 -0.1296
71184W        W46172  33.666  33.644  15.997 -0.2253  0.0211  0.1395
71185W        W46173   6.142  14.026  11.439 -0.1447 -0.0856 -0.0234
71186W        W46174  28.807  22.901  17.641  0.0358 -0.2745 -0.1058
71187W        W46175  18.336   5.499  19.226 -0.1202  0.3302  0.3257
71188W        W46176  22.293  25.026  23.309  0.0914  0.0477  0.0434
71189W        W46177  20.604   7.260   2.560 -0.1547 -0.2572  0.0109
71190W        W46178   3.648  23.048  26.174 -0.0205 -0.3195  0.1544
71191W        W46179  26.362  19.923   0.528  0.1645 -0.1958  0.1048
71192W        W46180  25.508   3.030   5.790 -0.1011  0.1244  0.1502
71193W        W46181   2.391  14.652  20.402  0.1062 -0.4585 -0.1072
71194W        W46182  34.016   7.712  16.272 -0.3357  0.1057  0.3860
71195W        W46183  21.757   2.997  22.935  0.0734 -0.0798  0.1055
71196W        W46184  33.674  31.014   3.288  0.2200 -0.0773  0.0514
71197W        W46185  15.803  27.564  11.520 -0.2396 -0.1851 -0.1069
71198W        W46186  20.644  18.352   2.765  0.3882  0.1209  0.0182
71199W        W46187   6.308  21.919   7.561 -0.0807 -0.2460  0.2445
71200W        W46188  28.118   8.599  19.917 -0.3441  0.1171 -0.1908
71201W        W46189   8.422  32.736  21.128  0.0141  0.0374  0.2195
71202W        W46190  13.443  26.157  14.394 -0.0621  0.1405 -0.1406
71203W        W46191  25.772   8.829  24.658 -0.2312  0.0510 -0.0546
71204W        W46192   1.704  33.883  24.783  0.1953 -0.1886  0.0044
71205W        W46193   0.021  12.479   1.047  0.1572 -0.1216 -0.0000
71206W        W46194  17.723   6.311  19.062 -0.2409 -0.0259 -0.1119
71207W        W46195  16.228  22.556   5.012 -0.3798  0.1604 -0.1404
71208W        W46196  21.825  33.126  24.312  0.0067 -0.0226  0.4202
71209W        W46197   9.810   0.736  24.398  0.0067 -0.0372 -0.2058
71210W        W46198  34.895   2.522   5.001  0.0428  0.1449 -0.0360
71211W        W46199  27.279  20.157  20.516  0.3430  0.1583  0.0710
71212W        W46200  14.289  19.558  12.707  0.0347 -0.1021  0.0317
71213W        W46201   3.654  23.938  18.712 -0.1604 -0.0217 -0.1565
71214W        W46202  21.476  20.492  18.030 -0.1859  0.0822  0.2132
71215W        W46203   3.784  29.106  12.207 -0.1874  0.2942 -0.0740
71216W        W46204  14.021   9.937   0.434  0.2893  0.3304  0.0214
71217W        W46205  31.752  28.034  22.006 -0.4176  0.0924  0.2046
71218W        W46206   5.003  27.554   8.095 -0.2350  0.0280  0.0656
71219W        W46207  26.306  14.795  11.162 -0.1116  0.0880 -0.0262
71220W        W46208  10.939   9.014  11.371 -0.0377  0.2683 -0.0337
71221W        W46209  25.737  32.826   0.631 -0.0557  0.3284  0.5899
71222W        W46210   2.750  26.595  25.969  0.0959  0.1776 -0.0312
71223W        W46211  31.321  29.181   2.037  0.1358  0.0339  0.2515
71224W        W46212  34.328  21.261  11.641  0.0327 -0.1788 -0.0127
71225W        W46213  32.715   6.125  25.041 -0.1918  0.1144 -0.0474
71226W        W46214  11.306   4.381  25.198  0.0978  0.0978  0.1458
71227W        W46215   4.267   3.402   1.143  0.2818 -0.1554  0.3188
71228W        W46216  21.252   7.915  16.064  0.0063 -0.3080 -0.0307
71229W        W46217  34.861   1.385   2.517  0.1156  0.1857 -0.0654
71230W        W46218  20.868  10.283  23.122  0.0921  0.0584 -0.0812
71231W        W46219  30.862  27.005  24.753 -0.0716 -0.3507 -0.0874
71232W        W46220  19.180  18.886   0.191 -0.1673 -0.0934 -0.2143
71233W        W46221  23.758  20.506  25.954  0.0180 -0.2059  0.0052
71234W        W46222   6.078  14.668  25.450 -0.1078  0.0763 -0.1294
71235W        W46223   3.724  14.861  21.811 -0.3512 -0.0879 -0.0073
71236W        W46224   9.799  26.999   7.576 -0.4300  0.1133  0.3618
71237W        W46225  27.801  30.590   4.108 -0.1712 -0.0860 -0.0491
71238W        W46226  31.932   3.311   3.341 -0.1227 -0.1139 -0.1398
71239W        W46227  22.475   7.829   3.895 -0.0835 -0.0377  0.0909
71240W        W46228  28.028   1.819   1.253 -0.1556  0.4928  0.3458
71241W        W46229  11.945  26.993  11.696 -0.0250 -0.3821 -0.1207
71242W        W46230  12.505  10.304  24.526 -0.1266 -0.1618 -0.1572
71243W        W46231   4.532  34.763  26.136 -0.3233 -0.4201  0.1325
71244W        W46232  32.386  31.675   0.639 -0.2124 -0.1417  0.2407
71245W        W46233  16.686  17.209  11.927 -0.1687 -0.1455  0.0700
71246W        W46234  34.059   0.166  23.243  0.2425 -0.3196 -0.0670
71247W        W46235   7.981  25.443  15.285  0.2137  0.0571  0.0712
71248W        W46236  10.190  12.275  24.241 -0.3450 -0.0002 -0.0251
71249W        W46237  31.793  26.527  19.299  0.3008  0.0153 -0.1553
71250W        W46238  24.868  29.460  23.491 -0.0238 -0.1334 -0.0832
71251W        W46239   5.474  33.691  20.540 -0.1793  0.1035  0.1185
71252W        W46240  10.753   1.516  22.316 -0.0055 -0.3244  0.0504
71253W        W46241   4.604   8.091   4.996  0.1511  0.3314 -0.2709
71254W        W46242   1.589  16.797  14.580  0.2964  0.2439 -0.1486
71255W        W46243  20.167   4.148  11.311  0.2982  0.0940  0.3379
71256W        W46244  28.613  26.289   9.680  0.4526  0.0474 -0.2344
71257W        W46245   8.466  31.006   6.244 -0.0837 -0.1827  0.2632
71258W        W46246  17.447   5.359   0.289  0.1490  0.0827  0.1704
71259W        W46247   7.095  25.760   0.673  0.1964 -0.0153 -0.0469
71260W        W46248  29.523  11.305  16.230 -0.1836 -0.0202  0.3675
71261W        W46249   3.981   3.600  21.748  0.0248 -0.0070 -0.1140
71262W        W46250  21.777  29.878   5.501 -0.0414 -0.1742  0.0668
71263W        W46251   6.782  32.182  21.656  0.0653 -0.0082  0.3121
71264W        W46252  15.672  31.345  20.526 -0.0054  0.1515 -0.2962
71265W        W46253  29.551   7.654  12.420 -0.0400 -0.0017 -0.1439
71266W        W46254  32.357   5.337  21.172  0.0677 -0.0025 -0.3783
71267W        W46255  10.267  35.212  14.814  0.2233  0.1640 -0.0090
71268W        W46256  11.342  18.244  25.013 -0.4705 -0.0009 -0.1565
71269W        W46257  16.341  18.120   4.158 -0.0152 -0.3029 -0.0351
71270W        W46258  28.241  29.123   2.682  0.2417 -0.1057 -0.1843
71271W        W46259   3.226   2.691   1.409 -0.0499  0.2211  0.3587
71272W        W46260  25.533  33.855  14.695 -0.1243  0.0259 -0.1599
71273W        W46261  28.513  22.615  12.829 -0.2115 -0.0908 -0.2159
71274W        W46262  27.333  26.800  13.602 -0.0641 -0.1973  0.1396
71275W        W46263  30.655  33.033   5.142 -0.1575  0.0082 -0.3475
71276W        W46264  32.847   5.645  17.311  0.1551 -0.0915  0.1956
71277W        W46265  12.659  35.042   6.039 -0.3519  0.1686 -0.0360
71278W        W46266  23.881  21.470  14.523 -0.2401  0.2995 -0.1027
71279W        W46267  32.947  17.466   6.530  0.0379  0.0816  0.2590
71280W        W46268  12.284  34.820  25.060  0.0973 -0.0422  0.4189
71281W        W46269  28.612  26.108   8.358  0.2466 -0.1809  0.2334
71282W        W46270   8.468  19.663  24.171  0.1164  0.0489  0.0136
71283W        W46271   9.035   4.684  10.548 -0.2945 -0.0471 -0.2286
71284W        W46272  26.295  25.415  18.040  0.2491 -0.0511 -0.1662
71285W        W46273  33.220  22.698  11.079 -0.2788 -0.1326  0.0203
71286W        W46274   3.446  31.146  24.739  0.1541 -0.4752  0.1050
71287W        W46275   8.018  13.669   0.192  0.1126 -0.0278 -0.1289
71288W        W46276   8.547  30.188  14.336  0.0845 -0.0430 -0.1346
71289W        W46277  26.665  14.471   0.589  0.0832 -0.0040 -0.2318
71290W        W46278  23.972  21.621  15.674 -0.0316  0.0880 -0.2475
71291W        W46279  10.489   9.230   5.018 -0.1386  0.2967  0.0339
71292W        W46280   3.552  24.750  21.288  0.0343 -0.0051  0.2280
71293W        W46281  28.447  18.779  11.601 -0.0282  0.3158 -0.0381
71294W        W46282   9.966  27.091  14.953 -0.4494  0.1291  0.0307
71295W        W46283   6.895  14.994   8.996  0.1594  0.1428  0.3071
71296W        W46284  13.489   4.906  20.792 -0.1455 -0.0088  0.0102
71297W        W46285   2.505   9.140   0.548  0.0335  0.3721  0.1542
71298W        W46286  11.814  17.598  23.419 -0.1614  0.1407  0.2269
71299W        W46287   9.006  29.570  14.886 -0.1174  0.3892  0.1390
71300W        W46288   4.387   2.817   0.895 -0.0652  0.0390  0.0094
71301W        W46289  20.427  30.721  22.417 -0.0331  0.0261  0.0656
71302W        W46290  11.335  14.396  19.577  0.0706 -0.2002  0.1625
71303W        W46291  23.953   6.773   3.232 -0.0836  0.0318 -0.0574
71304W        W46292   0.413  30.235   2.268  0.0341 -0.0355 -0.1426
71305W        W46293   6.293   2.755   2.901 -0.2300 -0.0719 -0.2239
71306W        W46294   2.556  27.325  23.196 -0.0992  0.2804 -0.0246
71307W        W46295  22.771  20.457  25.621 -0.1718 -0.3180 -0.0531
71308W        W46296  29.730  23.097  20.525  0.0421 -0.1801  0.2423
71309W        W46297  21.272  23.343   2.810  0.0770 -0.2949  0.3457
71310W        W46298  31.617  24.655  21.393 -0.2092 -0.3995 -0.0452
71311W        W46299  12.892   2.814  21.160  0.3299 -0.4289  0.0497
71312W        W46300  25.872  23.188  16.897  0.0551 -0.0496 -0.1190
71313W        W46301   3.111  18.637   1.706  0.1300  0.2268 -0.1896
71314W        W46302  27.380  19.876  24.024  0.0481  0.0333 -0.1926
71315W        W46303   0.154   5.594  20.219 -0.0834 -0.2277  0.0880
71316W        W46304   8.296  12.798  12.515 -0.1162 -0.1362  0.1688
71317W        W46305  18.949   2.803   2.811 -0.0139 -0.1362  0.1255
71318W        W46306  27.228  20.741  14.126  0.1980 -0.1272  0.0805
71319W        W46307  18.805  25.877  20.594 -0.0004 -0.1088 -0.2083
71320W        W46308  21.483  30.950   6.542 -0.0929 -0.1493 -0.0470
71321W        W46309   9.902  15.787   2.053  0.2961  0.0659 -0.1764
71322W        W46310  23.764  17.648  25.683  0.0547  0.0132  0.1329
71323W        W46311  34.225   5.499  14.333 -0.2431 -0.1767  0.1428
71324W        W46312  28.841  34.497  24.023 -0.1241 -0.1291  0.0701
71325W        W46313  20.768  26.126   4.768  0.1543 -0.2800 -0.2291
71326W        W46314  17.447   6.568  17.503  0.0578 -0.0103 -0.1007
71327W        W46315  24.521   0.692   0.955 -0.2260  0.2360 -0.1793
71328W        W46316  22.286  18.976   0.032  0.2920 -0.0012  0.4731
71329W        W46317  26.014   0.636   3.154 -0.3181 -0.0254 -0.0663
71330W        W46318   3.600  34.972  11.766 -0.0995 -0.2979  0.1930
71331W        W46319  12.533   6.649   1.156 -0.0358  0.1385 -0.1819
71332W        W46320  18.282  28.581  10.022  0.0556  0.2374  0.0504
71333W        W46321   3.215  34.436   2.804 -0.0420 -0.0346  0.2686
71334W        W46322  21.550   2.674   5.998  0.1280 -0.0241  0.1284
71335W        W46323   6.635  26.343   8.812 -0.0971 -0.0332  0.0629
71336W        W46324  16.392   6.107  19.865  0.2686 -0.1141  0.2151
71337W        W46325  17.304   3.479   9.954 -0.1035  0.2120  0.1096
71338W        W46326  10.884  10.587   5.046  0.2571  0.3755  0.0793
71339W        W46327   5.005  33.362  18.371  0.0060  0.0769 -0.1200
71340W        W46328  15.018  10.083   8.181  0.1053  0.1299 -0.3095
71341W        W46329  12.004  21.668   1.038 -0.2235 -0.2262  0.0859
71342W        W46330  20.830   6.293   4.686  0.0989  0.0806  0.1812
71343W        W46331  26.821  31.177  17.194 -0.0534  0.3624  0.1763
71344W        W46332  15.228   3.052   6.819  0.1639  0.1792 -0.0427
71345W        W46333   9.723  12.579   4.504 -0.2843 -0.0286 -0.0603
71346W        W46334  21.785  19.058  23.116 -0.2744 -0.2784 -0.0375
71347W        W46335  11.414  28.787   6.394  0.1119 -0.4171 -0.2159
71348W        W46336  20.100  25.833   7.131 -0.1613  0.1380 -0.1796
71349W        W46337  18.837  19.381   3.082 -0.1110 -0.0150 -0.2020
71350W        W46338   4.064  26.028  21.808  0.1742 -0.0817 -0.0216
71351W        W46339  27.794  20.521   7.513  0.0330  0.1112 -0.3452
71352W        W46340   5.437   6.266  22.284  0.3666  0.1359  0.2957
71353W        W46341  33.702   7.676   0.909 -0.1681  0.0972 -0.1943
71354W        W46342  19.326  30.714  25.445 -0.3197 -0.0096 -0.3738
71355W        W46343  33.246  30.299   4.689 -0.3494  0.2008 -0.0621
71356W        W46344  18.282  21.250   9.480 -0.3052 -0.0137  0.0973
71357W        W46345  10.524  32.923   2.849  0.0725  0.1390  0.1027
71358W        W46346  27.853  28.708  24.599  0.1322  0.1637  0.2471
71359W        W46347  27.262   2.269   1.387 -0.0406  0.2097  0.0414
71360W        W46348   8.031   3.717  14.104 -0.3126 -0.2115  0.0327
71361W        W46349  15.599  23.150   0.084 -0.0505  0.1664  0.1071
71362W        W46350  24.442  24.833   0.583 -0.0216  0.0393 -0.4660
71363W        W46351  27.581  14.330  20.439  0.2817  0.0643 -0.3872
71364W        W46352  12.569   6.177  25.154  0.0396  0.2947 -0.2184
71365W        W46353  11.706  25.166   4.992  0.0057 -0.3196  0.1950
71366W        W46354   9.646  29.415   0.063  0.0629 -0.0313  0.2585
71367W        W46355  34.871   8.981  16.351 -0.1898 -0.2025 -0.0383
71368W        W46356  30.994  12.058   7.946 -0.0814 -0.1127  0.3284
71369W        W46357  32.259   9.884  12.814 -0.0888  0.0752 -0.1691
71370W        W46358  15.960  17.673   0.256 -0.0617 -0.0983  0.2572
71371W        W46359  11.009   4.791  19.189 -0.0204 -0.2346 -0.0206
71372W        W46360  34.912  10.292  13.866 -0.2306 -0.0315 -0.0924
71373W        W46361  30.854  28.214  17.975  0.0631  0.1336 -0.2182
71374W        W46362  18.710   8.419  21.880  0.2219 -0.1134  0.2091
71375W        W46363  12.614  20.872  23.746  0.0877 -0.5569 -0.1302
71376W        W46364   0.962  11.098  14.116  0.0659  0.0409  0.1164
71377W        W46365  13.984  25.153   1.383 -0.2646  0.3277 -0.2716
71378W        W46366  16.334  16.323  12.865  0.0530 -0.0315 -0.1361
71379W        W46367  16.705   7.053  10.687 -0.0060  0.1965  0.0116
71380W        W46368  24.843  24.825  15.814 -0.0343 -0.1857 -0.1335
71381W        W46369  12.883  26.653   8.988 -0.0320 -0.3987 -0.1091
71382W        W46370  19.097   9.198   7.465  0.0646  0.0718  0.2116
71383W        W46371  13.734   1.885  20.635  0.2196  0.0108 -0.2849
71384W        W46372  12.409   4.708  10.358 -0.1840 -0.2909  0.0202
71385W        W46373  11.551  34.864  22.252 -0.1538  0.1951  0.0642
71386W        W46374   1.093  32.877  25.083 -0.0766  0.2335 -0.0038
71387W        W46375   9.501  16.389   7.279  0.0726 -0.0547 -0.0992
71388W        W46376  16.323   9.962  13.355  0.1950  0.2025  0.2324
71389W        W46377   1.048  29.231  24.303 -0.0240  0.3269  0.2353
71390W        W46378   6.019  25.683   8.291  0.0760  0.1714 -0.0677
71391W        W46379  33.501  20.074  17.906  0.0946  0.0021 -0.1289
71392W        W46380  16.914   4.570  10.009  0.0936  0.2693 -0.0973
71393W        W46381  29.330  10.399  10.903  0.2648 -0.1503 -0.2124
71394W        W46382   9.292  30.134   4.611 -0.2281 -0.2354 -0.1765
71395W        W46383   6.757  29.413  22.764  0.1495 -0.0024 -0.1727
71396W        W46384   2.398   9.218  20.779 -0.1330  0.2878 -0.1060
71397W        W46385  32.935  32.579  21.348 -0.0949  0.0595  0.0421
71398W        W46386   2.941  16.488  17.318  0.1793  0.0108  0.3116
71399W        W46387   7.460  11.906   5.876 -0.3002  0.1845  0.1021
71400W        W46388  21.095   7.014   7.456 -0.2462 -0.2890 -0.0122
71401W        W46389  23.192  18.548  22.371 -0.0628 -0.2731  0.0032
71402W        W46390   1.383  18.464  10.360 -0.1746 -0.3573 -0.0834
71403W        W46391  21.026  31.649  21.828  0.0145  0.1580 -0.1014
71404W        W46392   3.772  20.667  16.188  0.3132 -0.1714  0.1803
71405W        W46393  10.109   9.663  12.312  0.0005  0.1490  0.1041
71406W        W46394  31.830  10.042  24.566  0.1437 -0.0802 -0.0652
71407W        W46395  20.387  32.785  20.510 -0.1660  0.2536  0.0219
71408W        W46396  24.351  12.340  18.170  0.0754 -0.1998 -0.0065
71409W        W46397  33.246  15.758  16.818 -0.0401  0.0286  0.0994
71410W        W46398  11.088  20.318   8.179  0.2162  0.1570  0.0092
71411W        W46399  13.865   2.934  12.080  0.1061 -0.2209  0.1367
71412W        W46400  29.285   1.601   3.876  0.1985 -0.0126  0.0879
71413W        W46401  21.304  10.548  16.017  0.1467 -0.1012  0.1503
71414W        W46402  23.925  19.068  18.003 -0.3187 -0.2188  0.3865
71415W        W46403  15.812  31.632   0.072  0.0744 -0.1352  0.0889
71416W        W46404   3.540  12.916  23.468  0.0852 -0.1745  0.2099
71417W        W46405  14.810   5.036   4.904 -0.0026  0.0906 -0.0155
71418W        W46406  11.010  30.745   0.638  0.3833 -0.0272 -0.0366
71419W        W46407   0.357   8.314   3.250  0.0763 -0.0447  0.5274
71420W        W46408   3.444   3.101  21.007  0.0117  0.0444 -0.1468
71421W        W46409   6.302  13.014  25.048  0.3464  0.2533  0.2910
71422W        W46410  32.769  34.395   1.336 -0.1377 -0.1842 -0.2022
71423W        W46411  29.670  26.155  20.742  0.1994  0.1594  0.3010
71424W        W46412  17.147   1.897   0.358  0.1333 -0.0697  0.1920
71425W        W46413  31.149  34.071  16.121  0.0763  0.2059  0.1335
71426W        W46414  12.177   9.608  24.234  0.0607 -0.1079  0.0869
71427W        W46415  10.200  15.898   0.332  0.2749  0.0334  0.1498
71428W        W46416   7.119  17.961   6.375 -0.3594  0.0089  0.1089
71429W        W46417   4.581  16.366   4.325 -0.3250  0.0218  0.1534
71430W        W46418   5.062  11.459   6.072 -0.4063  0.2513  0.1699
71431W        W46419  28.829  33.012  18.297 -0.0279 -0.0980  0.0496
71432W        W46420  34.449   0.795  21.581  0.0894  0.0883  0.0437
71433W        W46421  30.905  12.657  25.996  0.2371 -0.0816  0.0404
71434W        W46422  24.224  10.136  14.605 -0.1153  0.1734 -0.0501
71435W        W46423   8.256  31.252  23.597  0.1841  0.2817  0.1519
71436W        W46424  26.328  22.415  21.011  0.4196  0.0235  0.1125
71437W        W46425   4.851  31.402   9.755 -0.3427 -0.3536  0.0157
71438W        W46426  20.705   7.583  17.237 -0.3549 -0.1913 -0.1233
71439W        W46427   5.231  12.817  19.073  0.3664 -0.0785  0.0820
71440W        W46428  24.547   5.898  16.612 -0.0350  0.0259  0.2404
71441W        W46429   1.631  17.509  16.046  0.1361  0.0442 -0.1050
71442W        W46430   0.225  22.087  11.130 -0.4588 -0.0345  0.0217
71443W        W46431  10.050  10.045   8.861 -0.1171 -0.0662  0.1219
71444W        W46432  15.298   2.702  18.265  0.1626  0.0919 -0.0877
71445W        W46433  15.368  21.499   2.670 -0.1600  0.3660 -0.0824
71446W        W46434   7.413  13.998   6.983  0.2233 -0.1088  0.1015
71447W        W46435  14.190   0.678  23.454 -0.0788  0.2539  0.1347
71448W        W46436  21.974  33.636   5.519  0.0100 -0.0340 -0.0397
71449W        W46437  27.143   8.664   9.354 -0.2284 -0.0624 -0.1743
71450W        W46438  18.002  27.363   1.926 -0.2005  0.1055 -0.0326
71451W        W46439   6.723  26.155   6.983  0.2871  0.1060  0.1145
71452W        W46440  30.441  12.388   6.157 -0.0662  0.3574  0.4001
71453W        W46441  17.469  21.921  25.773  0.0348  0.1116  0.1351
71454W        W46442  23.445   9.000  15.906  0.0957  0.0966  0.1989
71455W        W46443  32.345   9.466   9.403  0.2424 -0.0375 -0.3150
71456W        W46444  27.240  11.988  10.902  0.1134  0.2516  0.1237
71457W        W46445  30.709   3.066   6.100  0.3650  0.0864  0.0734
71458W        W46446  28.669  25.426  16.755 -0.0524  0.1132  0.1030
71459W        W46447  34.575  17.443   9.107  0.2366 -0.0779 -0.0900
71460W        W46448  23.745  13.310  18.581 -0.0386 -0.1286  0.0645
71461W        W46449  31.810   9.934   0.243 -0.0254  0.0696  0.0086
71462W        W46450   8.300  29.162   7.982  0.1207 -0.1061 -0.1240
71463W        W46451  22.010   7.481   1.337 -0.1958  0.0534  0.3665
71464W        W46452  32.981  13.323  11.242  0.2546  0.0742 -0.0202
71465W        W46453  17.129  24.840   2.897  0.3400  0.0442 -0.2414
71466W        W46454  23.028  32.137  22.323 -0.2587 -0.0069  0.2801
71467W        W46455   3.867  12.481   1.747  0.1539 -0.0742 -0.1633
71468W        W46456   2.435  16.010  16.342 -0.1397 -0.0981  0.0069
71469W        W46457  10.887  14.775   9.477 -0.2687  0.0245 -0.0065
71470W        W46458  27.297   3.017  22.920  0.0363  0.2718  0.1136
71471W        W46459   8.700  16.422   4.148 -0.1380 -0.3279  0.0482
71472W        W46460  27.443  29.472   9.807 -0.0329 -0.0006 -0.3111
71473W        W46461  10.809  18.698  22.660 -0.0869 -0.1924  0.1896
71474W        W46462   0.549  16.655   8.614 -0.0110 -0.2142 -0.0184
71475W        W46463   8.952   4.824   8.174  0.0703  0.0467  0.0365
71476W        W46464  23.181  31.655   1.850  0.0175 -0.0678 -0.1654
71477W        W46465   5.711  29.938   9.762  0.0786 -0.3162 -0.1128
71478W        W46466  34.529   6.079  11.106 -0.2472 -0.1825 -0.1918
71479W        W46467   8.229   2.432  13.767  0.3595 -0.0747  0.1039
71480W        W46468  14.715  30.284   1.750  0.1377  0.4372 -0.2690
71481W        W46469  12.479  30.915  25.921 -0.0097  0.0756  0.2398
71482W        W46470  13.575   2.981   8.477  0.1184 -0.0813  0.0165
71483W        W46471   0.695  21.067  18.718 -0.0797 -0.1185 -0.0557
71484W        W46472  19.633  20.654   6.451  0.1680  0.5707 -0.2381
71485W        W46473   7.714   5.360   5.225 -0.1243  0.1555 -0.1402
71486W        W46474   3.515   6.976  22.789 -0.1312 -0.0106  0.1254
71487W        W46475  22.440  27.454  19.252 -0.3858  0.2265 -0.1538
71488W        W46476  23.899  20.062  10.435 -0.2288  0.2457  0.1937
71489W        W46477  25.289   3.688   2.197 -0.0488 -0.2199 -0.0390
71490W        W46478  22.215  22.548  25.026 -0.0540 -0.2267 -0.2524
71491W        W46479  32.975  10.308   8.551 -0.1441  0.0580  0.2550
71492W        W46480  33.477   6.930   4.503  0.2982  0.1006  0.0980
71493W        W46481  19.500   8.114  21.308  0.0579  0.0994  0.1120
71494W        W46482  13.224  10.083   6.645 -0.0631 -0.2534  0.1003
71495W        W46483   6.678  16.738  22.212  0.2097 -0.2750  0.0463
71496W        W46484   0.744  31.234  19.117 -0.0788  0.2942  0.0180
71497W        W46485   6.630  35.060  24.473  0.1529  0.3018 -0.3073
71498W        W46486  18.924  13.282   2.581  0.2282 -0.2914 -0.1836
71499W        W46487   1.639   1.604   4.304  0.0950  0.0307 -0.1008
71500W        W46488  28.138  30.371   1.430 -0.1983  0.0413  0.5465
71501W        W46489   6.042   3.930  20.420 -0.1181  0.1262  0.1647
71502W        W46490  29.439   3.215  22.419 -0.0247 -0.2746  0.1616
71503W        W46491  16.681  21.387   6.700 -0.0794 -0.0621 -0.1080
71504W        W46492   7.238  18.696   2.468  0.2063 -0.3952  0.0233
71505W        W46493  30.076   4.377  12.254 -0.0401  0.0774  0.2062
71506W        W46494  26.600  23.181  25.891  0.2899 -0.0998  0.2215
71507W        W46495  10.292  19.051   7.755 -0.0619 -0.0447 -0.1146
71508W        W46496  32.267  19.399   4.925  0.1424  0.0462  0.1953
71509W        W46497  27.237  11.502  13.720  0.1834  0.2174  0.0418
71510W        W46498  17.300  14.287   9.274 -0.4459  0.0176  0.3599
71511W        W46499  32.105   4.651  18.663 -0.0640 -0.0850 -0.0635
71512W        W46500  13.021  21.140  24.484  0.0752 -0.2125  0.1553
71513W        W46501  26.177  22.582   8.118  0.1974 -0.0384 -0.0722
71514W        W46502  23.978  34.182  25.746 -0.0504 -0.1495  0.1480
71515W        W46503  31.850   6.195  25.699 -0.0917  0.2569  0.0389
71516W        W46504  11.115  24.440  25.887  0.1468  0.1170 -0.2419
71517W        W46505  31.041  28.303  16.447 -0.1339 -0.2305  0.3671
71518W        W46506   6.295  14.067  21.239  0.1445 -0.2959  0.1001
71519W        W46507  31.036  14.977  16.829  0.2494 -0.0379  0.1210
71520W        W46508   0.534   3.264  14.555 -0.0647 -0.2418 -0.0106
71521W        W46509  24.832  10.992  23.428  0.2216 -0.0733  0.0055
71522W        W46510  19.637   7.109   7.657 -0.2389  0.0224  0.0348
71523W        W46511  30.006  19.665  10.575 -0.2531  0.0730 -0.1650
71524W        W46512  34.783  13.929  11.006  0.1760 -0.0433 -0.0526
71525W        W46513  32.575  31.188   5.008  0.0168  0.3965 -0.2296
71526W        W46514  16.541  19.725  13.172  0.1766  0.1136  0.2299
71527W        W46515  23.940  14.007  21.829  0.3222 -0.1818 -0.0182
71528W        W46516  28.363  28.934   3.172  0.0540  0.0570  0.1831
71529W        W46517  18.921  15.904   5.135  0.2225  0.0714 -0.0252
71530W        W46518  32.075   2.487  12.366  0.1234 -0.1446 -0.2371
71531W        W46519  16.038  22.821   8.992  0.1706 -0.2237  0.1874
71532W        W46520   9.099  21.393   9.326 -0.0452  0.2637  0.1559
71533W        W46521   5.374  15.766   4.426  0.1423  0.2444 -0.0596
71534W        W46522   5.671  18.453   4.730  0.0827 -0.0565 -0.3762
71535W        W46523  29.581  29.141  11.089  0.0742 -0.2742  0.0893
71536W        W46524  17.834   5.219   6.758 -0.0820  0.4664  0.3509
71537W        W46525  27.515   9.735  15.111 -0.2833  0.0511  0.0179
71538W        W46526  32.363   5.645  11.156 -0.0806 -0.0186 -0.1314
71539W        W46527   0.112  22.544  24.864  0.0168  0.1137 -0.4859
71540W        W46528   1.639  29.921   5.075  0.0424 -0.2963  0.0747
71541W        W46529  18.044   9.070  11.683  0.3520  0.1757  0.2252
71542W        W46530  13.673  20.414  24.224  0.3847  0.1159 -0.0737
71543W        W46531  13.445  13.405  23.840 -0.1997 -0.1836 -0.2889
71544W        W46532   3.399  11.289  21.919  0.0603 -0.2493 -0.4551
71545W        W46533  26.725   7.334   9.202  0.3063  0.4285  0.0790
71546W        W46534  21.823   4.258  15.309 -0.1310 -0.2052  0.2215
71547W        W46535   0.368  24.560  15.585  0.0636  0.2059 -0.1027
71548W        W46536  25.393  10.597  14.423  0.0399  0.2505 -0.1970
71549W        W46537   0.835  29.225  17.111  0.2879 -0.1196 -0.3149
71550W        W46538   2.029   6.588   4.912  0.1889 -0.1612  0.2948
71551W        W46539  14.665   6.498   7.226 -0.0220 -0.3402  0.3640
71552W        W46540   4.357  17.534  23.975  0.5851 -0.1785  0.1625
71553W        W46541  33.371   5.414   3.360  0.1108 -0.1464  0.0398
71554W        W46542  23.624  23.596  12.634 -0.0068  0.0178  0.0711
71555W        W46543  32.596  18.088  11.882  0.0573  0.2318  0.3372
71556W        W46544  34.516  16.513  15.715 -0.0553  0.0302 -0.2222
71557W        W46545  23.385  29.002  18.743 -0.0788  0.4540  0.3134
71558W        W46546  21.749   5.808   7.794 -0.0423  0.1142 -0.2870
71559W        W46547  16.404  33.869   1.832  0.2105 -0.2433 -0.3612
71560W        W46548  32.552   5.253  12.386 -0.2430  0.1314 -0.0011
71561W        W46549  29.340   4.146  15.759 -0.0337 -0.4706  0.1475
71562W        W46550   3.352  13.472  18.784 -0.0158 -0.0459  0.2033
71563W        W46551  29.477  30.018  12.423 -0.2142  0.1514 -0.0082
71564W        W46552  10.986  25.519   7.179 -0.2747 -0.1980 -0.0003
71565W        W46553   4.483  29.253   5.182  0.1060  0.1151 -0.0893
71566W        W46554  16.753  19.533   5.354  0.1084 -0.1950 -0.1558
71567W        W46555  19.718  22.816  25.204  0.0622 -0.2984  0.1994
71568W        W46556  13.286  16.299  20.576  0.1437 -0.4908 -0.0119
71569W        W46557  18.549  31.125  16.908  0.0495  0.1192 -0.0675
71570W        W46558  26.543  10.890  20.029  0.2480  0.0527  0.0383
71571W        W46559  16.176   7.040  10.364 -0.1097 -0.2366 -0.0473
71572W        W46560  12.957  15.602  25.116 -0.1610 -0.0531 -0.2473
71573W        W46561  35.285  17.163  25.713  0.2904  0.0536 -0.2694
71574W        W46562  26.895   6.357  19.636  0.0372 -0.2619 -0.0438
71575W        W46563  13.259  17.507  21.336 -0.3915  0.3109 -0.1060
71576W        W46564  29.389  13.787  21.961  0.1324 -0.0595 -0.0751
71577W        W46565  21.701  30.647   2.109 -0.1674  0.2544 -0.2634
71578W        W46566  17.786  21.675  22.197 -0.0829  0.1095 -0.0134
71579W        W46567  21.571  27.607  19.006  0.0200 -0.1805 -0.1777
71580W        W46568  13.382  13.232   5.629 -0.3109 -0.4393  0.3507
71581W        W46569  17.603  22.710   3.878  0.0280 -0.0197 -0.0199
71582W        W46570  22.676  26.761  21.525 -0.2693 -0.0573  0.1010
71583W        W46571  14.810  24.110  11.818 -0.1361  0.1145  0.3542
71584W        W46572  18.144   7.712  11.550 -0.0883  0.1416 -0.0313
71585W        W46573  26.640  35.131   6.267  0.0451 -0.2664  0.0359
71586W        W46574  15.557  11.276  14.574 -0.2147 -0.0746 -0.1545
71587W        W46575   1.693  33.173   0.835 -0.0387  0.1098 -0.1658
71588W        W46576  27.808  16.855  17.749 -0.0518  0.0976  0.0001
71589W        W46577  28.857  12.344  23.253  0.0142 -0.0486  0.1454
71590W        W46578  26.283  13.792   5.738  0.0860  0.0238 -0.2566
71591W        W46579   7.426   0.381  21.770 -0.1825  0.1438 -0.0197
71592W        W46580   7.372  18.134   1.433  0.2440  0.2556 -0.3268
71593W        W46581  25.643  13.922  23.042  0.0330  0.2301 -0.0086
71594W        W46582  23.736  15.007  17.383 -0.0629  0.2573 -0.1590
71595W        W46583  23.946  11.473  20.489  0.3883  0.0382  0.2241
71596W        W46584   3.679   3.003   3.552  0.2554  0.2510  0.1320
71597W        W46585   1.395   1.443   0.811 -0.0713  0.0853  0.0061
71598W        W46586  21.547   0.067   2.639 -0.2785  0.0495  0.2221
71599W        W46587  20.925  25.875   0.443  0.1648 -0.3132 -0.0888
71600W        W46588   1.954   5.554  25.121  0.1760 -0.0325 -0.1157
71601W        W46589   5.371  23.162   0.647  0.1572 -0.0173  0.0129
71602W        W46590  27.240  19.443  13.422 -0.0311  0.1044 -0.0383
71603W        W46591  16.110  14.976   0.549  0.1800 -0.1203  0.1940
71604W        W46592  19.409  19.118   1.504 -0.0684 -0.1457  0.1540
71605W        W46593  28.082  23.091   8.045 -0.2544  0.0535  0.0646
71606W        W46594  13.767  11.984  12.256 -0.2386  0.2553  0.1628
71607W        W46595  30.848  18.308  21.317 -0.3154  0.2736  0.5437
71608W        W46596  13.078   4.492   9.435  0.2000 -0.3091 -0.0914
71609W        W46597  28.326   3.706   2.587  0.0425  0.3665  0.0181
71610W        W46598  14.695   9.387  23.039 -0.0854 -0.1714  0.0321
71611W        W46599  23.323  33.002   1.885 -0.3224 -0.5387 -0.1366
71612W        W46600  11.608  26.294  10.998 -0.1053 -0.0833  0.2351
71613W        W46601  14.927  33.452  22.747 -0.3138  0.2165 -0.1111
71614W        W46602  24.269  17.795  19.711 -0.4416 -0.1211 -0.0555
71615W        W46603   6.888  19.129   8.701 -0.0760  0.4255 -0.1837
71616W        W46604   2.490  18.412  25.859  0.0197  0.1847  0.3400
71617W        W46605  16.788  14.564  12.477  0.1136 -0.0418 -0.0688
71618W        W46606  35.182  12.154   9.802  0.2345  0.1563  0.0671
71619W        W46607  23.748   2.804  15.740  0.1722 -0.2142  0.0846
71620W        W46608  29.884   0.239  23.925 -0.0053  0.0840 -0.1043
71621W        W46609   5.039  27.378  23.988  0.1720  0.1779 -0.0671
71622W        W46610  25.075  33.434  21.569 -0.0384  0.2253 -0.1811
71623W        W46611   1.285  22.970  13.921 -0.0895  0.0500  0.0687
71624W        W46612  29.594  16.916   7.948  0.0088  0.1049 -0.0754
71625W        W46613  25.172  11.627  26.014  0.0196 -0.0295  0.0529
71626W        W46614  15.588   2.521  19.257  0.2881 -0.1506 -0.0147
71627W        W46615  16.721  35.294  21.708 -0.3921  0.0645 -0.0844
71628W        W46616  32.629   0.195  18.594  0.0297  0.2604 -0.1646
71629W        W46617   2.503   8.236   4.706 -0.3376  0.1622  0.0566
71630W        W46618   6.068  35.357   6.977  0.0164  0.2898 -0.0510
71631W        W46619  24.205   6.840  19.222 -0.2396  0.1385 -0.0339
71632W        W46620  10.934  34.301  24.424  0.0543  0.2998  0.0131
71633W        W46621  24.597  18.892  25.052 -0.2542  0.1824  0.1933
71634W        W46622  24.417  31.055   0.911  0.2102 -0.1264 -0.0916
71635W        W46623  23.876  26.706  23.321 -0.1638  0.0942  0.0575
71636W        W46624  31.066   4.182   2.668 -0.2777  0.0061 -0.4611
71637W        W46625  20.561  25.272  26.107  0.1892  0.2491  0.0919
71638W        W46626  20.637   2.928  21.841 -0.3813  0.3051 -0.1550
71639W        W46627   0.640  24.376  16.949  0.2873  0.1333  0.0098
71640W        W46628  25.174   7.744  18.075  0.2060  0.0216 -0.1863
71641W        W46629   8.438  19.649   5.915 -0.1231  0.0231 -0.2111
71642W        W46630  12.853   2.376   1.012  0.0493  0.0769  0.3015
71643W        W46631   1.099  19.297  20.551 -0.0124  0.3289 -0.2353
71644W        W46632  22.891  18.696  19.053  0.2749  0.2368 -0.2457
71645W        W46633   5.155   8.381   2.019 -0.0392  0.1329  0.0347
71646W        W46634   3.786  26.874   0.741  0.3262 -0.2603  0.2099
71647W        W46635  11.349  23.979   2.610 -0.2458  0.1572 -0.0780
71648W        W46636   8.256  15.273  10.297 -0.0469  0.0339  0.3984
71649W        W46637  10.656  22.064   6.802 -0.2212  0.1819  0.1064
71650W        W46638  16.460  30.105  10.878 -0.0237 -0.0430  0.1936
71651W        W46639  17.026   8.995   6.159  0.0867 -0.2272 -0.1858
71652W        W46640  11.968  31.214   9.639  0.2374  0.1169  0.1220
71653W        W46641  23.444   9.521  26.093 -0.1381  0.0585 -0.0488
71654W        W46642   6.847  11.530  25.456 -0.1434 -0.0118  0.1489
71655W        W46643   6.523  21.601   8.859 -0.2747 -0.1150  0.2147
71656W        W46644  22.869  23.703  26.230  0.2790 -0.0024  0.0656
71657W        W46645  10.028  28.775  16.931  0.0954 -0.1795  0.0180
71658W        W46646   2.158  27.256  19.148  0.0514 -0.1909  0.0860
71659W        W46647   3.757   3.547  20.826 -0.1734 -0.0896 -0.1926
71660W        W46648  20.520   3.565   2.419  0.1270  0.0786 -0.2476
71661W        W46649  27.568  24.345  25.022 -0.1129 -0.1315 -0.0644
71662W        W46650   6.762  34.125  24.062  0.0667 -0.0359  0.0770
71663W        W46651  20.206  14.255  21.222 -0.2677  0.3723  0.0197
71664W        W46652  23.190  30.618  21.883 -0.0188 -0.2407 -0.1103
71665W        W46653  17.933  21.352   5.656 -0.2402  0.1239  0.3412
71666W        W46654   9.264  26.888  11.751  0.1678 -0.1054  0.3334
71667W        W46655  19.262   1.075  25.390 -0.0660 -0.0838 -0.1712
71668W        W46656  12.060  11.398   6.244 -0.2870 -0.1932 -0.1656
71669W        W46657  11.786  30.779  21.770 -0.0305  0.3319  0.1409
71670W        W46658  10.539   3.391  13.728  0.1377  0.0633 -0.1831
71671W        W46659  21.483  12.885  26.154  0.1891 -0.1285 -0.1980
71672W        W46660  30.172   8.133  20.246  0.3401  0.1913  0.0351
71673W        W46661  32.607  20.059   8.900  0.4313 -0.1482 -0.2083
71674W        W46662   6.619   9.520   1.245 -0.2465  0.0438 -0.0336
71675W        W46663  18.019  28.713   3.170  0.2533 -0.0562 -0.0735
71676W        W46664  29.165   5.481  19.077 -0.2829  0.1931 -0.0483
71677W        W46665  27.011  10.572  12.801 -0.0791 -0.2188 -0.0761
71678W        W46666   9.929  10.975   2.004  0.1966 -0.1102 -0.1993
71679W        W46667  28.383   7.700   9.940 -0.1075 -0.0451 -0.4637
71680W        W46668  27.221  18.155  21.823  0.1453  0.1768  0.2088
71681W        W46669  11.743  30.114  11.398  0.2945 -0.0332  0.1926
71682W        W46670  25.949  15.265  10.558 -0.0692  0.1528  0.0092
71683W        W46671  12.304   7.111   3.562 -0.2933 -0.3119  0.0260
71684W        W46672  22.407  14.980   0.167 -0.0788 -0.4247 -0.0320
71685W        W46673  15.400  24.145   3.637 -0.1507  0.0801  0.1031
71686W        W46674  22.795   1.954   6.034 -0.0709 -0.0592 -0.0155
71687W        W46675  16.902  12.410   7.429 -0.0157 -0.1645  0.1474
71688W        W46676   5.863  10.377   5.148  0.2530  0.0117  0.0602
71689W        W46677  15.297  10.087  25.652  0.2973  0.1229  0.0191
71690W        W46678  16.678   1.636  23.826 -0.3553  0.1957  0.3026
71691W        W46679   9.711  32.108  21.465  0.0160  0.1614 -0.0044
71692W        W46680  13.351  10.957  20.002 -0.0914 -0.2023  0.1450
71693W        W46681  17.529   9.570  17.863  0.0588 -0.1060 -0.0288
71694W        W46682   3.670  10.479  16.032  0.1152 -0.0801 -0.3380
71695W        W46683  28.170   5.631  21.950 -0.1144  0.0568  0.0462
71696W        W46684  31.915  31.786  15.227 -0.0362  0.1878  0.1798
71697W        W46685  13.622  31.106   1.663 -0.0526 -0.0036  0.1771
71698W        W46686  29.255   4.348  16.855  0.0229  0.0107  0.2265
71699W        W46687   7.516  19.904   3.087  0.1437  0.1877  0.0057
71700W        W46688   2.275   6.100  25.194 -0.0311 -0.1682 -0.3851
71701W        W46689  23.704  27.734  12.264  0.0365  0.0065 -0.0938
71702W        W46690  28.220  23.218  22.967 -0.4094 -0.1359 -0.0132
71703W        W46691  23.046  21.877  22.139 -0.1990  0.2947  0.0078
71704W        W46692  17.412  19.555  23.817 -0.1107 -0.1288  0.0890
71705W        W46693   3.282   8.735  22.263  0.0603 -0.1512  0.2009
71706W        W46694  31.060  31.417   2.658  0.3729 -0.2133  0.0958
71707W        W46695   5.044   3.573   1.716  0.1537  0.4792  0.2336
71708W        W46696   0.208   8.857  17.372  0.1876 -0.2623  0.0145
71709W        W46697  21.245  22.931  16.741 -0.3055 -0.0089 -0.4146
71710W        W46698   0.529  29.163   0.866  0.0463  0.1006 -0.0931
71711W        W46699   5.941  33.245   1.740  0.4408  0.1254 -0.0537
71712W        W46700  18.571   6.034  22.940 -0.1273 -0.1416  0.1882
71713W        W46701  16.221  15.134  23.947  0.2582  0.0231 -0.0347
71714W        W46702  30.334   2.145  22.265  0.3571 -0.1015  0.2041
71715W        W46703  16.398   2.736   2.086 -0.0871  0.2091  0.0197
71716W        W46704  12.437   2.284   4.113 -0.2418  0.0876  0.1011
71717W        W46705   6.246   4.599   9.368  0.1747  0.0499  0.2166
71718W        W46706   7.766  15.788   6.194  0.1077 -0.0912  0.1939
71719W        W46707  27.353  28.656  24.194 -0.0417 -0.0570 -0.2652
71720W        W46708  29.937   7.081  15.228 -0.0286  0.0214  0.0895
71721W        W46709  17.131  31.513  23.253  0.1604 -0.0264  0.2246
71722W        W46710  15.840  34.283   6.838  0.1651 -0.0337  0.1742
71723W        W46711  28.761  21.382  15.489 -0.2887  0.0249  0.2224
71724W        W46712  25.429   0.257  14.088 -0.0085 -0.0991  0.0120
71725W        W46713   0.706  32.003   3.954  0.1068 -0.1240 -0.0379
71726W        W46714  26.962  21.231   9.819  0.1424 -0.0139 -0.1642
71727W        W46715   6.068  34.567  13.094 -0.1975 -0.0246 -0.3241
71728W        W46716  10.671  16.169  23.369  0.1312  0.0343 -0.0249
71729W        W46717  26.691  24.802  17.251 -0.0115 -0.2957 -0.0506
71730W        W46718  13.725  15.214  21.080 -0.0141 -0.0824  0.2616
71731W        W46719  27.192   8.177  17.857 -0.0310  0.2330 -0.2758
71732W        W46720  27.589  15.203  19.418 -0.1554  0.0294 -0.0222
71733W        W46721  23.522  35.115   5.014  0.1969 -0.3221 -0.3425
71734W        W46722  17.034  11.592   6.237  0.0147 -0.2829  0.3340
71735W        W46723  22.469  22.104  15.334  0.0138 -0.0681  0.0872
71736W        W46724   7.626   5.067   8.692 -0.1951 -0.1359  0.0906
71737W        W46725  12.053   0.654   0.316 -0.0426 -0.2255 -0.4310
71738W        W46726  25.184   2.930  12.501 -0.3064  0.3468  0.0116
71739W        W46727  16.238  32.577  20.579  0.0656 -0.0350 -0.2327
71740W        W46728  34.389   3.040  21.486 -0.0147  0.0350 -0.0937
71741W        W46729  14.257   4.609   6.364 -0.2291 -0.0123 -0.3090
71742W        W46730   1.332  20.509   0.749  0.0328 -0.1045  0.0252
71743W        W46731   4.528  27.954  25.825 -0.3720  0.3932  0.4126
71744W        W46732  16.894  15.360   3.117  0.2004  0.3353  0.0139
71745W        W46733  23.028   4.586   0.805 -0.2046 -0.2319  0.1292
71746W        W46734  15.693  32.260   2.921  0.2795 -0.2725  0.0397
71747W        W46735   5.610  16.370   4.082  0.2093 -0.1627  0.2709
71748W        W46736  34.232  14.551  12.597  0.0032  0.2160 -0.0077
71749W        W46737  30.553   4.091  20.898 -0.1548  0.2296  0.0277
71750W        W46738  18.100   0.104  26.045 -0.2742  0.1334  0.3784
71751W        W46739  25.153   3.396  12.753  0.0076 -0.0276  0.0385
71752W        W46740  35.317  13.718  25.847 -0.0913 -0.3929  0.0421
71753W        W46741  25.913  35.108   0.845 -0.1783  0.0613 -0.1356
71754W        W46742  17.019  29.545   6.837 -0.1427 -0.0599  0.0768
71755W        W46743   8.727  26.337  11.190 -0.0284  0.0732  0.0119
71756W        W46744  16.665  27.442   5.535  0.1672 -0.0635 -0.0695
71757W        W46745   6.522  15.803   2.548 -0.1622  0.0750  0.1193
71758W        W46746  16.854  17.741   1.007 -0.3183  0.0967  0.1756
71759W        W46747  19.287   0.951   0.139 -0.0208  0.1318 -0.2107
71760W        W46748  28.977   6.954  12.355 -0.2086 -0.1158  0.1602
71761W        W46749   3.011   3.455  19.551  0.1316  0.1577  0.2010
71762W        W46750  34.974   1.906  19.104  0.1576  0.1133 -0.3846
71763W        W46751  32.856   3.414  21.238  0.2900  0.0651  0.1869
71764W        W46752  30.462  11.249  23.548  0.1223 -0.0409 -0.0224
71765W        W46753   0.588  13.564  12.204 -0.0288 -0.0492  0.0990
71766W        W46754  30.267   3.790  15.190  0.4066  0.3555  0.0639
71767W        W46755  12.209   4.786   9.040  0.1602  0.0051  0.1181
71768W        W46756  33.112  17.580  21.706  0.1327 -0.0597 -0.2323
71769W        W46757  29.681  17.450   9.733  0.0919  0.1951  0.1636
71770W        W46758  31.825  22.860  10.222 -0.0731  0.0529 -0.0321
71771W        W46759  35.184   4.394   4.178  0.2351 -0.0362  0.0003
71772W        W46760   7.648   8.560   0.106  0.2432 -0.0922  0.0344
71773W        W46761  21.310   9.657  17.500 -0.2050 -0.0794  0.2374
71774W        W46762  14.112   7.361  22.639  0.3686  0.0807  0.0847
71775W        W46763   7.579  29.759   6.077  0.2361  0.2850 -0.0927
71776W        W46764  33.949  22.042  22.857 -0.0962  0.1788 -0.0258
71777W        W46765  27.008  10.471  14.606 -0.0556 -0.4826  0.0310
71778W        W46766  20.508  32.370  24.378  0.0247 -0.3936 -0.0676
71779W        W46767   9.491  27.465   4.632 -0.1766 -0.0861 -0.0094
71780W        W46768   1.883   6.513  20.466 -0.0791  0.2072  0.0680
71781W        W46769  21.649  13.088   0.688  0.1476  0.1829  0.0003
71782W        W46770  12.227  17.060   8.743  0.5346  0.0680  0.2461
71783W        W46771  27.903   5.696  18.893 -0.1353  0.1593  0.0858
71784W        W46772  15.802   0.416   1.434  0.2242 -0.0153  0.0469
71785W        W46773   9.705  12.920  24.440 -0.4731  0.0940  0.0474
71786W        W46774  28.787  11.814  11.842  0.0647  0.4135 -0.1955
71787W        W46775   7.154   7.592  19.282  0.1955  0.2420 -0.1042
71788W        W46776  15.821  28.340  24.378  0.3346  0.2873  0.1583
71789W        W46777  12.050  33.686  21.257  0.0498 -0.0648 -0.1566
71790W        W46778  28.564   3.562  21.493  0.1053 -0.1707  0.0426
71791W        W46779   7.376  14.581  11.036 -0.0491  0.3503  0.0991
71792W        W46780  32.320   8.433  12.557  0.0810 -0.0095  0.0624
71793W        W46781  15.166   8.163  22.512 -0.1204 -0.0197 -0.3554
71794W        W46782  14.298  11.671   2.637 -0.0315  0.1304 -0.2325
71795W        W46783  33.449  24.984  10.091  0.0690  0.1266 -0.0464
71796W        W46784  35.317  16.130  24.192 -0.1224 -0.2121 -0.2798
71797W        W46785  12.392  22.368   9.697 -0.2943  0.0176  0.2331
71798W        W46786   2.945  31.093  21.881 -0.0166 -0.1869 -0.0812
71799W        W46787   2.471   6.877  19.793 -0.1091 -0.3229  0.1274
71800W        W46788  21.945  18.853  18.750 -0.0778  0.3304  0.1629
71801W        W46789  20.374   8.552  17.577  0.1382 -0.1379  0.2534
71802W        W46790   7.627   8.819  25.449  0.2174 -0.2313 -0.1061
71803W        W46791  20.450  23.495   5.908 -0.0838 -0.0163  0.0430
71804W        W46792  32.275  12.298  11.615  0.0767  0.3337  0.2063
71805W        W46793   5.069  34.057  20.613  0.3434 -0.1356  0.0980
71806W        W46794   8.320  22.619  11.403 -0.2647 -0.3738 -0.0066
71807W        W46795  11.896  33.836  10.649  0.0561 -0.2620  0.0156
71808W        W46796   6.681   7.031  20.822 -0.0207  0.0250  0.2563
71809W        W46797  19.023  14.510  20.761 -0.0584 -0.1018  0.0972
71810W        W46798  24.427   8.304  25.359  0.4679  0.2657 -0.1598
71811W        W46799  15.090  21.913  26.121 -0.1894  0.0473 -0.2412
71812W        W46800  19.871  21.723   2.871  0.0691 -0.0455  0.0672
71813W        W46801   9.637   2.271  25.457  0.4727  0.0463  0.0753
71814W        W46802  22.661  34.616   6.573  0.0321  0.0171  0.3766
71815W        W46803  16.747  24.766   4.989  0.1035 -0.1546  0.0369
71816W        W46804  11.148  11.033  11.164 -0.2452 -0.0835  0.4885
71817W        W46805  34.568  21.913  15.343 -0.0788 -0.0314 -0.2543
71818W        W46806  16.490  24.856  15.781  0.0976 -0.1348 -0.2356
71819W        W46807  21.063  19.152   1.526 -0.1655  0.0256 -0.1608
71820W        W46808  20.348  23.885  21.960 -0.2851 -0.3908 -0.0713
71821W        W46809  21.913  10.311  25.483 -0.0964  0.2564 -0.0806
71822W        W46810  13.529  23.340   6.006 -0.1963 -0.0013  0.0954
71823W        W46811  35.213   8.216  25.556  0.0506  0.0026  0.0998
71824W        W46812   4.245  10.006  23.736  0.0198 -0.0523 -0.1738
71825W        W46813  20.514  26.750  21.705 -0.0015 -0.1972 -0.0181
71826W        W46814  12.308  23.355  12.318 -0.2735  0.1885  0.1366
71827W        W46815  24.023  34.779  14.250 -0.1002  0.0277 -0.0824
71828W        W46816  29.905  14.004  16.215  0.0371  0.1160  0.2394
71829W        W46817  13.891  10.267  14.225 -0.1252  0.1835  0.0845
71830W        W46818  12.615   0.263  11.492  0.0492  0.0309  0.0809
71831W        W46819  11.640  32.961  22.374  0.1467 -0.0575 -0.2322
71832W        W46820  33.934  17.065   0.064 -0.0899 -0.0500  0.5658
71833W        W46821  20.976  20.680  17.984 -0.0994 -0.2512 -0.2491
71834W        W46822  28.129   6.448  17.556 -0.1450 -0.6219  0.2905
71835W        W46823  14.999   2.159   6.732 -0.1412  0.2369  0.1845
71836W        W46824   1.636   2.078  16.137  0.0591  0.0185  0.0452
71837W        W46825  10.666  33.531  14.520  0.1256  0.0805 -0.5240
71838W        W46826   7.117  14.253  20.192  0.0641 -0.0991  0.0458
71839W        W46827  23.469  24.887  20.803  0.3179 -0.2820  0.0557
71840W        W46828  35.061   6.827  24.789 -0.2422  0.1583 -0.0416
71841W        W46829  22.745  20.667  24.713  0.2195  0.0903 -0.1213
71842W        W46830  20.636   8.723   9.990  0.0648  0.1119 -0.0143
71843W        W46831  25.042  17.248  18.654 -0.1355 -0.2454 -0.0916
71844W        W46832  21.318  30.655   7.405 -0.2514 -0.2441 -0.0795
71845W        W46833   0.221  20.363  20.028 -0.1338  0.1942  0.1225
71846W        W46834  18.650  29.543   6.893  0.2735  0.0510  0.0694
71847W        W46835   6.565  12.093   2.252 -0.0447  0.3148 -0.0810
71848W        W46836   9.411  14.842   4.813 -0.1677  0.2130  0.1253
71849W        W46837   7.044  14.596  17.935 -0.0591  0.1978 -0.1904
71850W        W46838   2.498  30.874  10.040  0.1663 -0.2914  0.0569
71851W        W46839  29.973   4.864   1.389  0.1093 -0.0114 -0.0191
71852W        W46840  17.687   6.046  10.370  0.1131 -0.0023  0.1381
71853W        W46841   6.582  14.053  10.808 -0.0610  0.1362 -0.1491
71854W        W46842  31.045   7.910  11.101 -0.0942 -0.1062 -0.1352
71855W        W46843  22.288  21.775  16.360 -0.1007 -0.1673  0.3275
71856W        W46844  17.532  23.026  11.859 -0.0182  0.0798 -0.4537
71857W        W46845  25.270   1.685  17.025  0.0294 -0.2881 -0.1481
71858W        W46846   4.857  28.139   9.014 -0.3068 -0.1695 -0.1939
71859W        W46847  27.851  24.419   9.183  0.0245 -0.0230 -0.3731
71860W        W46848  10.014   9.922   3.921 -0.1540 -0.1537 -0.2891
71861W        W46849  22.921   7.322   7.043 -0.0149  0.1459 -0.0815
71862W        W46850   8.817  33.100   6.118 -0.1555  0.2144  0.0423
71863W        W46851  26.850  30.260  24.287 -0.0811  0.2124 -0.0664
71864W        W46852  31.527  21.497  20.876  0.0464 -0.0156 -0.0682
71865W        W46853   8.580  24.622   6.117  0.2784 -0.0195  0.1677
71866W        W46854   0.806   8.522   1.700 -0.2203 -0.1422 -0.1877
71867W        W46855  16.153  33.696  22.433  0.1667  0.1023 -0.0116
71868W        W46856  13.521  17.970   4.073 -0.3004 -0.1993  0.1380
71869W        W46857  32.165   5.155  11.106  0.0534  0.0161 -0.0243
71870W        W46858  20.925  34.621  23.031  0.0456  0.1787 -0.2350
71871W        W46859  26.613  10.033  12.168 -0.1716 -0.1640 -0.1189
71872W        W46860  32.289  29.171  20.379  0.1052  0.0231  0.1503
71873W        W46861  34.251  17.888  21.186 -0.1417  0.1674 -0.0390
71874W        W46862  20.655  31.613  24.179 -0.3077  0.0030  0.0862
71875W        W46863  30.105   2.101   0.480  0.0983 -0.1589 -0.1108
71876W        W46864  34.534  27.205   5.143 -0.0294 -0.0123  0.0924
71877W        W46865  21.660  11.149  24.801  0.2474 -0.1802  0.1119
71878W        W46866   0.176  21.058  18.747  0.1464  0.0478  0.3878
71879W        W46867   5.505  22.483  23.481 -0.1407 -0.4183  0.0828
71880W        W46868  14.637  14.977   8.781 -0.1904 -0.0975  0.2959
71881W        W46869  18.301  25.685   9.253  0.0870  0.1265 -0.0179
71882W        W46870  27.441  34.724   2.643  0.1349 -0.4393  0.1814
71883W        W46871  21.001   6.474   7.706  0.1501 -0.0967 -0.0888
71884W        W46872   8.997  11.537   6.311  0.1275 -0.2313 -0.0274
71885W        W46873  18.053  16.501  19.730  0.1345  0.1021  0.3357
71886W        W46874   0.093  33.824   2.367 -0.0819 -0.0353 -0.1731
71887W        W46875   1.728  31.569  19.706 -0.0211  0.2771 -0.3290
71888W        W46876  17.909  30.950   5.457  0.0475 -0.0711 -0.1729
71889W        W46877  32.050  12.934  10.788 -0.2645 -0.1652  0.1781
71890W        W46878  12.825  10.517   4.137 -0.1704 -0.3291 -0.0651
71891W        W46879  31.635  32.484  23.149 -0.0354  0.0426  0.2391
71892W        W46880  13.829  27.648  22.890  0.0888  0.2232 -0.0756
71893W        W46881  30.468  27.959   2.277 -0.1472  0.1133  0.0327
71894W        W46882  30.141  18.844   8.354  0.2386  0.1619 -0.0324
71895W        W46883  23.907  12.865   1.125  0.4517  0.0744  0.0229
71896W        W46884  17.172   4.689  23.477  0.1369 -0.2027 -0.1410
71897W        W46885  22.530   9.049  23.290  0.0815 -0.1746  0.0584
71898W        W46886  31.203  10.162  26.050 -0.1489  0.1651 -0.1641
71899W        W46887   5.811  15.148  23.144  0.2216  0.0619  0.3162
71900W        W46888  21.944  30.284  13.059 -0.1066 -0.3550  0.3308
71901W        W46889   4.938  32.791   3.591  0.2252 -0.0662 -0.1442
71902W        W46890  22.993   0.797  17.843 -0.4452 -0.0425 -0.0649
71903W        W46891   1.404   3.700   2.163  0.0628  0.1906  0.0191
71904W        W46892  19.481  28.939  23.313  0.2385  0.2200  0.2034
71905W        W46893   4.947  18.019  19.712 -0.0168  0.2343 -0.2953
71906W        W46894   8.048  19.076   2.940  0.2757 -0.0627  0.1267
71907W        W46895  21.707  19.575  16.894  0.0958 -0.2989 -0.1050
71908W        W46896  18.880  15.294   1.581 -0.1043  0.0339  0.0121
71909W        W46897  17.495  31.284   2.548  0.0566  0.1455 -0.2201
71910W        W46898   9.930  24.019  14.906 -0.1134  0.2830  0.2890
71911W        W46899  17.953  12.901  22.558  0.1128  0.0026  0.2782
71912W        W46900   5.591   9.500  23.230  0.0922 -0.0312  0.1211
71913W        W46901   2.401   4.134  23.067  0.0342  0.1357 -0.0642
71914W        W46902  10.991  12.119   9.971  0.1293  0.0224 -0.1390
71915W        W46903  24.637  11.053  11.895 -0.1153 -0.0047  0.1798
71916W        W46904  17.978  34.722  18.812 -0.0399  0.4937  0.4252
71917W        W46905  12.008  12.734   4.596  0.0592  0.1848 -0.0821
71918W        W46906  21.678  22.492  18.529  0.0665  0.1654 -0.1869
71919W        W46907  22.530  27.957  18.664 -0.0513  0.2568  0.4049
71920W        W46908   8.338  11.005  23.719 -0.1695 -0.3429 -0.0713
71921W        W46909  28.089  12.370  24.787 -0.1750  0.1355 -0.2122
71922W        W46910  17.255   5.176  20.083 -0.0718 -0.0737  0.2801
71923W        W46911  10.563  34.854   3.110  0.5254 -0.2440  0.0763
71924W        W46912  18.283   2.651  19.155  0.1389  0.0769  0.1328
71925W        W46913  11.241  27.668   0.710 -0.1690  0.0310 -0.0389
71926W        W46914  34.092   3.958   0.940  0.1255  0.5305 -0.2381
71927W        W46915  25.213   9.678  12.717 -0.2165  0.1816 -0.2631
71928W        W46916  28.352  16.558   5.656  0.1267 -0.0256 -0.1131
71929W        W46917  14.492  13.954  18.930  0.2355  0.1732 -0.0118
71930W        W46918  34.782  32.204   3.765  0.0148  0.1717  0.1150
71931W        W46919  27.083  27.589   0.173 -0.1504  0.0504 -0.0426
71932W        W46920  10.604   6.272  11.710 -0.3178 -0.1578  0.1219
71933W        W46921  34.213   3.420  16.532  0.1559  0.0247  0.0200
71934W        W46922  11.886   8.300   0.094 -0.0548  0.0879 -0.2235
71935W        W46923  28.804  22.702  23.206  0.2364 -0.3403 -0.0990
71936W        W46924  10.892  25.578   4.109  0.3053  0.2568 -0.4410
71937W        W46925  18.330  31.713  15.644 -0.0312 -0.1999  0.2157
71938W        W46926  30.996  19.285  16.757  0.0590 -0.1922 -0.0574
71939W        W46927  28.775   2.233   4.708 -0.2431 -0.0376 -0.0428
71940W        W46928  20.722   9.354  16.536 -0.0309  0.1383  0.0611
71941W        W46929  34.830  28.200   3.586  0.0821  0.0126 -0.0216
71942W        W46930   3.989   2.763   2.267  0.0091  0.2061  0.0980
71943W        W46931  13.580  30.103   5.508  0.2149  0.2261  0.1564
71944W        W46932   2.782   3.989   6.378  0.0551 -0.0700 -0.1867
71945W        W46933  16.142  31.603   9.075  0.0849 -0.2328 -0.0525
71946W        W46934  19.911   9.562  18.628 -0.1569 -0.0557 -0.4401
71947W        W46935  30.321   9.486  14.115 -0.3689  0.0330  0.0475
71948W        W46936   6.031  23.210  21.012  0.4767 -0.0097 -0.0271
71949W        W46937  29.190  13.810  18.395  0.0835 -0.1081 -0.2041
71950W        W46938  13.628  17.425  24.618 -0.4005 -0.6404 -0.3444
71951W        W46939  22.141  32.295  23.770  0.3212 -0.2801  0.0230
71952W        W46940  13.246   9.835   5.803  0.1053 -0.0889  0.2628
71953W        W46941  28.867  29.334  25.534  0.0593 -0.0920  0.3849
71954W        W46942  33.271  11.436   9.919 -0.0592 -0.0642  0.0217
71955W        W46943   8.469   8.240   1.315  0.0194 -0.0909 -0.2802
71956W        W46944  29.185   4.761  15.531 -0.0365 -0.2520  0.0234
71957W        W46945  11.777  26.371  11.765  0.0464  0.1184  0.0035
71958W        W46946  11.198  28.089  24.050 -0.0452 -0.2353  0.1735
71959W        W46947  29.012   6.953  15.711  0.3448  0.1050  0.2511
71960W        W46948   8.455  20.930   4.105 -0.0711  0.1284 -0.0716
71961W        W46949  16.265  24.977  22.983 -0.0221 -0.1134 -0.3269
71962W        W46950  10.227  20.828  15.118 -0.0271  0.1793 -0.0791
71963W        W46951   3.100  28.633  24.985 -0.3612 -0.0546 -0.1192
71964W        W46952   5.333   0.399  11.815 -0.0529 -0.0600  0.2697
71965W        W46953  24.132  10.120  26.101  0.4137  0.2301  0.0391
71966W        W46954  26.115  24.307  13.592  0.3029 -0.1732 -0.1131
71967W        W46955   2.854  14.061  15.119  0.0983  0.0675 -0.0144
71968W        W46956  19.175   3.499  22.602 -0.3360  0.0399 -0.0416
71969W        W46957  16.689  23.589  24.868 -0.0132 -0.5577 -0.1199
71970W        W46958  24.767  31.842   4.627 -0.0841  0.2048 -0.0762
71971W        W46959  31.891   3.744  12.545 -0.0868  0.1109 -0.2343
71972W        W46960   0.641  30.850   3.993  0.2296  0.0283  0.0743
71973W        W46961  12.606   4.907   4.885  0.4773  0.3641  0.3564
71974W        W46962   3.976   5.245   8.637 -0.3335  0.1623 -0.1668
71975W        W46963   9.163  30.196  23.114 -0.0455  0.3096  0.0059
71976W        W46964  30.259   1.994  17.896 -0.1741  0.2492 -0.3356
71977W        W46965   3.933  33.973  23.522  0.1187  0.4354 -0.0746
71978W        W46966  34.867  32.312  14.231  0.4881  0.1580 -0.0567
71979W        W46967  17.969   2.122   2.805  0.4273  0.0165  0.0354
71980W        W46968  18.936   9.501   6.022 -0.1776  0.0340  0.1318
71981W        W46969  34.619   7.436   3.140 -0.0879  0.0692 -0.0802
71982W        W46970  27.659   5.289  14.032 -0.1537  0.2427  0.1510
71983W        W46971  17.161  22.986  11.458 -0.3303 -0.2311 -0.1564
71984W        W46972   6.570  14.247  11.276  0.1300 -0.2126 -0.1158
71985W        W46973  32.101  17.930   8.954  0.2271 -0.0903 -0.0072
71986W        W46974  11.089  27.095   9.974  0.2741 -0.3151 -0.2172
71987W        W46975  14.179  34.651  11.884  0.3089  0.0257  0.0022
71988W        W46976  18.478  16.308  21.906 -0.1062  0.2723  0.0436
71989W        W46977   8.782   3.578   4.488  0.2253  0.2634  0.0634
71990W        W46978  28.863  26.047  16.176 -0.0673 -0.0525 -0.2678
71991W        W46979   9.323  31.260   2.816 -0.2695  0.2099  0.0381
71992W        W46980  21.241   6.375  24.656  0.1720 -0.2287 -0.1723
71993W        W46981  18.901  23.727  11.413  0.1225 -0.0203  0.1698
71994W        W46982   7.240  15.503  23.763 -0.3183  0.1064  0.1380
71995W        W46983  13.762  20.007  10.151 -0.4539  0.2206  0.1565
71996W        W46984  12.484  19.225  23.062 -0.0183  0.0549 -0.1914
71997W        W46985   3.120  35.383  21.695 -0.0154 -0.2181 -0.4084
71998W        W46986   9.636  28.088   0.896  0.0726  0.1928 -0.0754
71999W        W46987   5.334   1.108  11.189 -0.1574 -0.1844 -0.2875
72000W        W46988  31.619  12.169  11.090 -0.1525 -0.3187 -0.1229
72001W        W46989  28.246   6.605   2.036  0.2335  0.4497 -0.3870
72002W        W46990  34.825   9.721  17.331  0.0640  0.1611  0.2279
72003W        W46991  12.782  16.792   6.837  0.2423 -0.0224  0.4029
72004W        W46992   7.962  28.762  13.945  0.1754 -0.1706 -0.1899
72005W        W46993  24.162  31.929   2.014 -0.1791  0.0607  0.1078
72006W        W46994   0.253   7.961  24.750 -0.1255  0.1919  0.0662
72007W        W46995  31.420  30.435   1.869  0.0608  0.1104 -0.2170
72008W        W46996   4.350  25.608  20.985  0.1767 -0.0998  0.2470
72009W        W46997   6.538   6.701   9.555 -0.2455  0.0095 -0.1008
72010W        W46998   3.214   9.892   0.290  0.1091  0.3011  0.1024
72011W        W46999  25.888  14.943  25.732 -0.0004 -0.0638  0.1207
72012W        W47000  31.920   4.165  12.292 -0.1739  0.2667  0.1889
72013W        W47001  24.612   8.989  16.393  0.0484 -0.0391 -0.4661
72014W        W47002  26.437  24.051  18.429  0.0158 -0.2427  0.2028
72015W        W47003  26.104  21.079  14.826  0.0866 -0.0357 -0.0501
72016W        W47004   2.884   5.201   0.385  0.2014  0.2187 -0.1161
72017W        W47005   1.397   3.499   2.584 -0.0537 -0.1081  0.1461
72018W        W47006  31.955  14.753  20.301 -0.1021 -0.1801  0.0687
72019W        W47007   5.053  28.590  25.308  0.0862  0.0492 -0.0388
72020W        W47008  27.195  23.726  19.146  0.0406  0.1519  0.1548
72021W        W47009   1.623  29.605   0.875  0.5037 -0.0829 -0.1554
72022W        W47010  30.678   5.707  18.249  0.1032 -0.1278 -0.4624
72023W        W47011   1.897  10.899   3.376  0.0411  0.0729  0.0789
72024W        W47012  21.849   2.753   0.035  0.2123  0.1852 -0.2419
72025W        W47013  22.851   1.831  25.144  0.2309  0.1575  0.2329
72026W        W47014  19.563  24.195   6.460 -0.2882  0.1367 -0.3696
72027W        W47015  10.372  17.265   4.290 -0.2404  0.0757  0.3252
72028W        W47016   9.201  32.655  23.829  0.1634 -0.2781 -0.1152
72029W        W47017   7.771  20.627  24.887  0.1185 -0.0438  0.1883
72030W        W47018  10.329   8.696  24.543 -0.6367 -0.1631  0.0489
72031W        W47019  31.538  30.106   1.524 -0.2138 -0.1993  0.0852
72032W        W47020  19.012  33.630  17.786  0.3218  0.5970 -0.1862
72033W        W47021   9.370  17.050   8.166 -0.1198 -0.1552  0.0464
72034W        W47022  11.274  25.394   3.098 -0.1391 -0.0956  0.0987
72035W        W47023  25.848  25.098  14.671 -0.1701  0.0376 -0.0481
72036W        W47024  33.405  24.637  25.124  0.1169 -0.2000  0.1104
72037W        W47025  33.952  33.920  14.809  0.2198  0.2950  0.3093
72038W        W47026  27.813  28.387   9.136  0.1050  0.1240  0.1246
72039W        W47027  18.109  15.910  24.796  0.2440  0.3062  0.0515
72040W        W47028  32.299   7.266   2.448  0.1308 -0.2973  0.2403
72041W        W47029  20.752  21.815  20.722  0.1924  0.1112  0.0084
72042W        W47030  10.722  21.845   8.184  0.0587  0.3864  0.1529
72043W        W47031  18.211  33.185   3.735  0.2706  0.2269  0.0665
72044W        W47032  25.769  24.590  23.285  0.0139 -0.2489  0.1053
72045W        W47033  16.286  29.042  24.293  0.3162  0.0572  0.0685
72046W        W47034   0.364  32.887  18.045 -0.3695  0.0074 -0.0022
72047W        W47035   7.310   4.494  25.083  0.3194  0.3788  0.1015
72048W        W47036  34.078  14.161  21.432 -0.0781  0.1493 -0.0496
72049W        W47037  19.757   3.325   5.601 -0.0159  0.1882  0.2585
72050W        W47038  30.378  23.087  19.800 -0.2250 -0.0197 -0.0929
72051W        W47039  33.058  24.568  14.250 -0.4854  0.1824 -0.0324
72052W        W47040  24.650  29.962  23.534 -0.0819  0.0973 -0.2251
72053W        W47041  34.519  30.081  14.631  0.1297  0.0831  0.2301
72054W        W47042  33.821  29.043  14.549 -0.1215  0.1711  0.2165
72055W        W47043  12.807  23.196   8.879  0.0832 -0.1120  0.0667
72056W        W47044  27.992  33.052  12.000 -0.1202  0.0923 -0.0026
72057W        W47045  23.943   9.784  22.681  0.2238 -0.3455 -0.0789
72058W        W47046   7.114  21.227   7.308 -0.1261  0.3111  0.0598
72059W        W47047  17.916  33.685  21.348 -0.2577 -0.1797 -0.1881
72060W        W47048  28.301  22.666  11.018 -0.0377  0.1293 -0.0678
72061W        W47049  17.024  12.987  21.906 -0.1443 -0.1876  0.2150
72062W        W47050   1.200   5.877   5.280 -0.2066 -0.0164  0.2985
72063W        W47051  10.394  34.119  12.476  0.2107 -0.0951  0.1225
72064W        W47052  26.716  22.203  24.148 -0.1420  0.0283 -0.1088
72065W        W47053  25.657   7.843   0.419  0.1022 -0.0810  0.0331
72066W        W47054  14.127  14.522  21.705  0.3787 -0.0540  0.1617
72067W        W47055  33.249  17.834  13.119  0.0228 -0.1695 -0.1598
72068W        W47056  10.553  34.279  13.997 -0.2920 -0.0094  0.1530
72069W        W47057  15.488   0.929  25.681 -0.2573  0.0806  0.2920
72070W        W47058  28.471   5.811  12.662  0.0970 -0.2540  0.1075
72071W        W47059  11.300   6.198  10.812  0.1191  0.0427  0.1457
72072W        W47060  13.393  23.363  25.879 -0.0128 -0.0015  0.2195
72073W        W47061  10.406  30.102  15.978 -0.0855  0.0963  0.4763
72074W        W47062   4.645  15.939  24.347  0.1846 -0.1865  0.2988
72075W        W47063   0.262  13.905  19.596 -0.2321  0.3905 -0.2330
72076W        W47064  32.271   8.723  25.841  0.0720  0.1947 -0.0814
72077W        W47065  25.747  14.389  22.964 -0.1557  0.0289  0.0263
72078W        W47066  27.330  19.050  14.995  0.2994 -0.0621  0.2247
72079W        W47067   1.927  21.552  22.382  0.2411  0.2027 -0.0478
72080W        W47068  22.547   3.872  23.554 -0.0144 -0.0282  0.2902
72081W        W47069  32.283  23.260   9.606  0.3446  0.1774  0.0678
72082W        W47070  14.403  20.915  10.092 -0.1809 -0.0300  0.0204
72083W        W47071  32.848  23.987  11.185 -0.0002  0.1772 -0.2472
72084W        W47072  12.829  17.014   6.413  0.1484 -0.0724 -0.0395
72085W        W47073  16.616  24.069  12.349 -0.0810  0.1648 -0.1936
72086W        W47074  10.395  19.090  25.717 -0.3614  0.0621  0.0977
72087W        W47075  34.675  15.535  11.688  0.0771 -0.2394 -0.0732
72088W        W47076  23.404  26.582  19.648  0.1715 -0.0987  0.3461
72089W        W47077   3.018   7.053  14.860  0.0089  0.0297 -0.1119
72090W        W47078  29.030  33.907  19.385 -0.1862  0.0149 -0.1928
72091W        W47079  11.084   6.945  24.372 -0.0414  0.0191 -0.2927
72092W        W47080  29.808  11.220  15.401  0.2671  0.0924  0.2310
72093W        W47081  22.647   1.301   0.014  0.2287  0.0299  0.0982
72094W        W47082  12.803  15.224   0.636 -0.0614 -0.1764  0.1387
72095W        W47083  25.450  28.163  18.136 -0.0567 -0.1569  0.0026
72096W        W47084  13.554   2.204   7.023  0.2059  0.3160 -0.1866
72097W        W47085  30.115  13.183  11.130  0.2183  0.5299  0.0303
72098W        W47086  22.375  10.864  16.771 -0.2086 -0.1926 -0.2765
72099W        W47087   6.620  28.832  23.896  0.1134 -0.2086  0.1606
72100W        W47088  34.607   1.896  23.392 -0.0135 -0.0436 -0.2371
72101W        W47089  22.002   0.942  19.675  0.0060  0.0891  0.0061
72102W        W47090   0.564  28.827  21.022  0.0557 -0.0500 -0.0214
72103W        W47091   7.877   8.115   9.512  0.0334  0.0706  0.0210
72104W        W47092   6.010  21.098  21.907 -0.2575  0.4584  0.2507
72105W        W47093  34.664  15.891  23.180 -0.0983  0.0091 -0.1746
72106W        W47094  31.881   4.484  14.753 -0.0724 -0.1724  0.0128
72107W        W47095  32.528  25.402   9.584 -0.2814 -0.2454  0.3811
72108W        W47096  25.768  14.593  14.441  0.0927  0.2914 -0.0494
72109W        W47097   3.550  34.133  25.607  0.0001 -0.1952 -0.0096
72110W        W47098  21.977  25.928  25.856 -0.0126 -0.3334 -0.0204
72111W        W47099  30.503   3.424  12.087  0.1799  0.2183 -0.0247
72112W        W47100   2.471   2.174  17.986  0.0779  0.1123 -0.1752
72113W        W47101   3.697  18.789  21.306  0.2343  0.0046  0.1162
72114W        W47102   7.953  31.558  21.946  0.2321  0.2774  0.0342
72115W        W47103  28.746  10.725  20.453  0.1538  0.1402  0.0500
72116W        W47104  26.262  28.095  14.355 -0.0284  0.1788 -0.1554
72117W        W47105  19.703  32.209   2.293  0.0358  0.2583  0.1509
72118W        W47106  10.631  12.353   1.157 -0.0800  0.1430 -0.2494
72119W        W47107   2.166  16.847  18.387 -0.0586  0.1532 -0.1477
72120W        W47108  26.431  30.637  20.998  0.0112  0.2016 -0.1361
72121W        W47109  28.868   4.420  20.491  0.1594  0.0470  0.2485
72122W        W47110  33.837  11.794  18.645  0.0696  0.0207  0.1687
72123W        W47111  30.345  26.056  13.997  0.0682  0.0500  0.0732
72124W        W47112  10.613  32.001  23.440 -0.1121  0.1446 -0.3099
72125W        W47113   6.547  23.103  24.684  0.1062 -0.1204 -0.0400
72126W        W47114   9.796  15.840   7.874 -0.1202 -0.2686 -0.3405
72127W        W47115  23.041  27.155   5.429 -0.1649  0.1554  0.0507
72128W        W47116  31.478  24.673  17.679 -0.2784  0.1369 -0.0163
72129W        W47117  12.147   3.933  14.018 -0.2819  0.1274 -0.2754
72130W        W47118  24.005  32.222  13.203 -0.1726  0.0293  0.4253
72131W        W47119  11.320  10.545   8.760  0.0157  0.2046  0.1043
72132W        W47120  22.522   3.069   2.378  0.2073  0.1278  0.1673
72133W        W47121   9.736   9.277  13.521 -0.3164  0.0801  0.2176
72134W        W47122  16.373  26.577   7.179 -0.2357 -0.0251 -0.0101
72135W        W47123  11.295  18.399  12.004  0.0878 -0.1143 -0.1017
72136W        W47124  33.218  17.754  16.239 -0.0764 -0.0685  0.0432
72137W        W47125  31.304  15.114  14.223  0.0006 -0.0512  0.0796
72138W        W47126   6.548   7.353   9.111  0.3379  0.2538 -0.2919
72139W        W47127  10.770  24.155  24.616  0.1984  0.2214 -0.2388
72140W        W47128   3.141  33.450   1.853  0.2079  0.1378 -0.3583
72141W        W47129  29.205  15.778   5.689 -0.0881  0.1651  0.0304
72142W        W47130   9.293   2.163  22.605  0.1653  0.2560 -0.1026
72143W        W47131  12.786  11.233   3.078  0.0628  0.4635  0.2561
72144W        W47132  17.784  10.493   6.246 -0.0647 -0.1052 -0.3416
72145W        W47133  31.038  28.193  15.253  0.0377  0.1779 -0.0066
72146W        W47134  35.074   7.232  15.582 -0.0800  0.0017  0.3107
72147W        W47135  11.386  13.073   5.164 -0.0078  0.0032  0.0436
72148W        W47136  19.795   0.390  17.128  0.3005 -0.2602 -0.1017
72149W        W47137  10.978  32.965   9.996 -0.1159 -0.4002  0.4049
72150W        W47138  16.943  30.959   5.151  0.1227 -0.0987 -0.2187
72151W        W47139   4.986  13.331   3.499  0.1186 -0.1680  0.1156
72152W        W47140   3.580  21.733  23.968  0.0985 -0.0677 -0.0709
72153W        W47141   3.026  28.235  18.889  0.0518 -0.2010  0.3696
72154W        W47142  13.707  16.621   1.377  0.0774  0.0983  0.1794
72155W        W47143  25.887  33.566  23.250  0.0252 -0.3339  0.0624
72156W        W47144  22.042  11.982   3.473 -0.1170 -0.3668 -0.0607
72157W        W47145  11.154  30.829   3.701  0.1140 -0.3310  0.0048
72158W        W47146  26.147   7.729  22.459  0.0200  0.2001 -0.2176
72159W        W47147  14.172   6.128  24.545  0.0531 -0.0781 -0.2429
72160W        W47148  15.350  24.673   4.965  0.0225  0.0040  0.1307
72161W        W47149   4.322  30.232  25.054 -0.0528 -0.0200  0.0084
72162W        W47150  21.607   2.073  22.566 -0.1476 -0.3330 -0.1440
72163W        W47151  31.573  21.259  15.260 -0.2279  0.1006 -0.1147
72164W        W47152  11.961   9.082   8.271 -0.0191 -0.1153 -0.1421
72165W        W47153   1.934  14.932  20.069  0.1929  0.0649 -0.1928
72166W        W47154   9.571  15.519  10.538 -0.2137 -0.1322  0.0923
72167W        W47155  12.371  33.072  10.720  0.0481  0.1578  0.0583
72168W        W47156  28.514   4.904  18.654  0.0407 -0.0142 -0.0535
72169W        W47157  26.050  17.507  18.558  0.2997  0.1316 -0.1347
72170W        W47158   6.490  14.853  24.186  0.1107 -0.0806  0.0787
72171W        W47159   5.993  31.698  13.853 -0.0300  0.0783 -0.2011
72172W        W47160  25.179  15.572  25.358 -0.0192 -0.2910 -0.1000
72173W        W47161  15.015  25.921   4.545  0.1937 -0.0085 -0.0961
72174W        W47162  31.900  30.721  12.584  0.0344 -0.0121  0.0679
72175W        W47163  20.483  17.045  20.722  0.0490  0.1041  0.1185
72176W        W47164  27.497   7.906  14.696  0.1657 -0.3973 -0.4500
72177W        W47165  22.433   0.972  13.542 -0.1575  0.1285  0.0418
72178W        W47166   0.974  33.292  21.911  0.0094 -0.0435 -0.0160
72179W        W47167  29.941  35.218   0.570  0.0323 -0.2858  0.0350
72180W        W47168  33.431  26.199  12.908  0.0051 -0.1637 -0.2941
72181W        W47169  16.206  25.495  11.567 -0.1170  0.0730 -0.1659
72182W        W47170  11.921   6.517  23.821  0.0232  0.0310 -0.2445
72183W        W47171  26.604  30.920  19.693  0.2426  0.0653 -0.1365
72184W        W47172   0.209  26.089  16.670 -0.2259 -0.1217 -0.0439
72185W        W47173  12.852  34.121   7.695 -0.4064 -0.2683  0.0288
72186W        W47174  31.886  17.341  22.094 -0.2222  0.1895  0.1152
72187W        W47175  12.316  21.075  21.514 -0.1895 -0.2016 -0.0040
72188W        W47176  14.395   7.092  23.674 -0.1374  0.1294 -0.3203
72189W        W47177  23.735  23.860   3.224  0.4701 -0.3900  0.0184
72190W        W47178  33.455  27.350  17.997  0.0204 -0.1480  0.1051
72191W        W47179  32.219  32.343  24.002 -0.0150  0.2753  0.0026
72192W        W47180  21.272  33.799  26.114  0.2523 -0.1964 -0.2392
72193W        W47181  16.036  16.354  25.690 -0.1623 -0.0884 -0.3102
72194W        W47182   3.060  31.970  19.863  0.1574  0.1037 -0.0795
72195W        W47183   1.871   2.738   5.570  0.1259  0.1661 -0.1300
72196W        W47184  23.299  34.815  17.682 -0.2302 -0.1960  0.0102
72197W        W47185  30.210   4.065   2.337  0.0348 -0.2570 -0.2266
72198W        W47186  11.112  21.204   3.781 -0.1902 -0.2055  0.1122
72199W        W47187  23.791  33.559   0.152 -0.4373  0.2996 -0.1546
72200W        W47188  30.861  15.567  20.900 -0.0157  0.0695  0.3180
72201W        W47189  33.523  34.780  16.743  0.2547 -0.4378  0.3074
72202W        W47190  34.915   2.723   1.507 -0.1161  0.1696 -0.0196
72203W        W47191  11.885  26.617   1.933  0.4413 -0.3824 -0.2278
72204W        W47192  25.803   8.183  15.250  0.2364 -0.0391  0.2862
72205W        W47193  15.971   1.862  10.300  0.1907  0.1936  0.0445
72206W        W47194  26.391  13.816  11.422 -0.0368 -0.0929 -0.0318
72207W        W47195  13.052  19.182   0.824 -0.0278 -0.2916 -0.1394
72208W        W47196  26.795   3.808  16.267 -0.0873  0.3090 -0.1594
72209W        W47197  14.881  31.989  20.613 -0.0499 -0.1446 -0.0355
72210W        W47198  31.860  18.188  16.887  0.3599 -0.2608 -0.3595
72211W        W47199  30.935  19.957  21.765  0.2501  0.2065  0.1677
72212W        W47200  25.460   0.869  14.904 -0.0607  0.2916  0.2267
72213W        W47201  32.411  27.751  14.866  0.1119 -0.0497 -0.0463
72214W        W47202  24.908  12.688  22.837 -0.2760 -0.0555 -0.0749
72215W        W47203  16.976  18.817  20.168  0.1459  0.1141 -0.1648
72216W        W47204  20.428  23.679  19.546  0.0012 -0.1472  0.0201
72217W        W47205  19.031  16.730   4.682 -0.0753  0.1534  0.1749
72218W        W47206   3.942  13.303  15.677 -0.0483 -0.4016 -0.0538
72219W        W47207  17.363  21.408  25.162 -0.3165  0.0573 -0.0227
72220W        W47208  25.966   2.198   3.012 -0.1168 -0.2809 -0.3363
72221W        W47209  21.472  26.619   5.653  0.1433 -0.1286 -0.2912
72222W        W47210  31.649  30.097   0.711 -0.2174 -0.3155  0.1776
72223W        W47211  33.870  12.428   0.644  0.0422 -0.2010 -0.1427
72224W        W47212  35.037  14.510  13.401 -0.1452 -0.0663 -0.0007
72225W        W47213  30.652  25.105  15.706 -0.0405  0.2503 -0.2634
72226W        W47214  26.258  27.670  16.693 -0.0473  0.0232 -0.2309
72227W        W47215   9.780  14.292   7.288 -0.0428 -0.0864 -0.0636
72228W        W47216   8.739   0.582   3.326 -0.1213  0.0192 -0.1295
72229W        W47217  19.360  29.661   3.978 -0.0878 -0.0935  0.0079
72230W        W47218  24.911  16.660  24.279  0.3618  0.2659  0.2464
72231W        W47219  14.435  28.431   4.740  0.2150 -0.1336  0.1213
72232W        W47220   3.004  34.122  18.029  0.2285 -0.0514  0.4499
72233W        W47221  34.203   5.738   0.053  0.1066 -0.1388  0.1295
72234W        W47222  28.909  32.412   4.105  0.0582 -0.4558 -0.4020
72235W        W47223   9.970  17.125  20.692 -0.3694  0.2879  0.0255
72236W        W47224  25.904  29.684  12.444  0.2530 -0.1760 -0.0015
72237W        W47225   2.168  17.033  17.653  0.1808  0.0196 -0.0442
72238W        W47226  33.348  26.359  17.693 -0.1968 -0.1223  0.0155
72239W        W47227   2.155  10.236  22.625  0.0087 -0.1693 -0.1081
72240W        W47228  11.851  24.675  24.702  0.2297  0.5205  0.1387
72241W        W47229   1.001   8.421  21.061  0.0398  0.1216  0.1943
72242W        W47230  13.924  14.972   4.877  0.1253 -0.4806  0.0855
72243W        W47231   0.974   9.453  16.093 -0.0997 -0.3822 -0.0246
72244W        W47232   3.814  11.398   0.748 -0.2358 -0.0540 -0.0284
72245W        W47233  29.395  11.144   8.256 -0.0847 -0.0160  0.0008
72246W        W47234  29.274   5.198  25.167 -0.2129 -0.1321 -0.1291
72247W        W47235  10.654  19.405  21.840  0.0436  0.3352 -0.0247
72248W        W47236  12.528   4.806  19.867 -0.0001 -0.0610 -0.1014
72249W        W47237  16.958  17.611   9.026 -0.0413 -0.0767 -0.0537
72250W        W47238  17.526  34.530  23.852 -0.0921 -0.1504 -0.0114
72251W        W47239  21.087   6.330  20.498 -0.1497  0.0442  0.0673
72252W        W47240  14.887  32.378  21.079 -0.1174  0.0533 -0.0521
72253W        W47241   9.933   8.443   5.620  0.0609  0.2561  0.1753
72254W        W47242  29.191  18.529  19.732 -0.0072 -0.0448  0.1184
72255W        W47243  13.806  33.809  13.321 -0.1335 -0.0946  0.1662
72256W        W47244  29.122  33.018  19.723  0.0493  0.0768  0.3221
72257W        W47245  24.708  27.443  26.045 -0.1337  0.2666 -0.1835
72258W        W47246  13.023  14.533  11.805  0.0922  0.2111 -0.1278
72259W        W47247  25.000  16.734  21.564 -0.0922  0.0330  0.1061
72260W        W47248   8.971  17.680   8.693  0.0721  0.3258 -0.1031
72261W        W47249   6.781  10.938  25.266  0.2325 -0.0319 -0.2936
72262W        W47250  20.633  33.550   5.541  0.0498 -0.2775  0.2107
72263W        W47251  12.296  20.773   2.947  0.2900  0.0671  0.2255
72264W        W47252   6.781   5.961   6.339  0.1423  0.1202  0.0512
72265W        W47253  19.551  11.365  23.563  0.2186 -0.3238  0.2250
72266W        W47254  23.908   5.498  24.396  0.0058  0.2164  0.0257
72267W        W47255  22.986  29.056  17.679 -0.1161 -0.0403 -0.1515
72268W        W47256  25.992  25.757   9.776 -0.4097  0.1839  0.0456
72269W        W47257  15.897   2.795   7.459  0.0286  0.0525  0.0223
72270W        W47258   0.131  23.882  11.963 -0.0650  0.2485 -0.1186
72271W        W47259  18.914   4.712  18.908 -0.1148  0.1066  0.0565
72272W        W47260  16.422  31.525   0.147 -0.1775  0.3054 -0.1194
72273W        W47261   4.070   3.394   0.728 -0.2829 -0.0385 -0.0842
72274W        W47262  28.499   0.075  24.239  0.0762 -0.0004 -0.2265
72275W        W47263  33.526  27.059  23.386 -0.2376  0.2003 -0.1384
72276W        W47264  27.611  21.237   9.167  0.0151 -0.1033  0.0786
72277W        W47265  23.821  35.162  21.236  0.0782  0.2229 -0.1446
72278W        W47266   9.120   2.037   5.068  0.1198 -0.0574 -0.1259
72279W        W47267  20.648   0.297   4.760 -0.1312 -0.0375 -0.5049
72280W        W47268  25.494  24.093  12.206  0.0355 -0.2637 -0.0022
72281W        W47269  34.514  16.308   7.888  0.4800 -0.5131  0.0053
72282W        W47270  15.530   8.840   8.228 -0.4143 -0.0970  0.2307
72283W        W47271  16.006  14.682   8.447 -0.2906 -0.1510 -0.0823
72284W        W47272  19.817  12.821  17.548 -0.1789 -0.0059  0.3192
72285W        W47273  30.231  30.385  12.074  0.2562  0.3234  0.2838
72286W        W47274  24.844  16.114  14.336 -0.3741  0.3206  0.3345
72287W        W47275  24.486  27.414  13.289  0.3335 -0.2277 -0.1702
72288W        W47276  33.362  31.311   6.642 -0.0356 -0.2521  0.0984
72289W        W47277  17.519  18.627   4.132  0.0859 -0.1477 -0.1184
72290W        W47278   1.029  18.163  14.800 -0.0315  0.0761  0.3732
72291W        W47279  32.663   0.125  20.995  0.2377  0.1834 -0.1840
72292W        W47280  19.688  34.166  15.264  0.0402  0.2105 -0.1707
72293W        W47281  11.677   5.207   9.863  0.3023 -0.0590  0.1272
72294W        W47282  34.186   6.757  19.609  0.0757 -0.1225 -0.3067
72295W        W47283   2.740   0.849  24.318 -0.0115 -0.1308 -0.0042
72296W        W47284  26.817  29.912  18.108  0.4644  0.1175  0.0921
72297W        W47285  15.249  18.658  21.640  0.0428 -0.0642  0.1605
72298W        W47286  15.773  32.783  22.701 -0.2245  0.4621 -0.0287
72299W        W47287  20.682  27.262   5.431  0.0367 -0.1886 -0.1080
72300W        W47288  29.714  25.122  13.380  0.1301  0.1874  0.1528
72301W        W47289  12.458  13.038  25.009  0.3494 -0.0259  0.0607
72302W        W47290  34.428  18.737  10.093  0.1173 -0.1334  0.1580
72303W        W47291  10.592  22.347   7.795 -0.1539  0.0639  0.2682
72304W        W47292  10.295  33.311   1.677  0.0395  0.0784  0.1816
72305W        W47293  30.103   7.663  21.199 -0.1429 -0.0166  0.2238
72306W        W47294  22.194   0.389  20.931  0.4285  0.1447 -0.1832
72307W        W47295  31.900  16.889  19.427 -0.0102  0.0974 -0.3407
72308W        W47296  16.737   7.315  24.252  0.0311  0.2063  0.0425
72309W        W47297  22.408  12.637  17.786 -0.0167 -0.1625 -0.0346
72310W        W47298  16.287  18.522   9.456 -0.0287 -0.0373  0.1475
72311W        W47299   2.820   8.363   2.972  0.3398  0.2391  0.0480
72312W        W47300  17.175   5.216  12.171  0.0547  0.2798  0.3814
72313W        W47301  27.672  26.978  19.888  0.0353 -0.1023  0.2590
72314W        W47302  19.817  24.873  23.055  0.0888  0.0981 -0.1229
72315W        W47303   9.641  20.909   3.002  0.1394  0.1942 -0.0176
72316W        W47304  24.936  18.262  12.039  0.0404 -0.1535  0.3954
72317W        W47305  16.522   2.140  17.329  0.1259  0.1090  0.1939
72318W        W47306  21.854  28.563  19.043 -0.0761  0.1589 -0.1632
72319W        W47307  14.280   8.581  11.007  0.0341  0.1808 -0.1408
72320W        W47308  24.983  24.810  16.320  0.1183 -0.1275 -0.2798
72321W        W47309  33.243  18.710  14.753  0.0542  0.0859  0.0691
72322W        W47310  12.570  31.926  15.941  0.3023  0.1974  0.4071
72323W        W47311  20.633   8.440  17.099 -0.1990 -0.3967  0.2828
72324W        W47312   5.486  31.901  23.253 -0.1690  0.1056 -0.0900
72325W        W47313  33.200   9.051  21.861 -0.0439 -0.0694  0.0663
72326W        W47314  17.709   1.743  10.993 -0.0335 -0.1148 -0.0457
72327W        W47315  30.912  29.213  11.857  0.0967 -0.2021  0.0629
72328W        W47316  15.099  26.097   6.716  0.0265  0.3297 -0.0176
72329W        W47317  29.450  16.822  24.839  0.1884 -0.0237 -0.2670
72330W        W47318  25.882  34.738   0.277  0.3063 -0.1555  0.3198
72331W        W47319  14.866   6.297   0.182 -0.1918  0.3378 -0.1431
72332W        W47320   4.840  27.221   9.405 -0.2009  0.0316 -0.0035
72333W        W47321   3.980   4.142  19.947  0.1701 -0.2497 -0.0980
72334W        W47322   1.192  10.829  18.260  0.0718 -0.0949 -0.1682
72335W        W47323   2.262  20.278  22.587  0.0803 -0.0428  0.1786
72336W        W47324  19.392  19.782  19.150  0.1000 -0.0929 -0.0346
72337W        W47325  12.188  14.137  22.768 -0.1004  0.1041  0.1061
72338W        W47326  16.791  23.573   5.842  0.4044  0.3325 -0.5306
72339W        W47327   2.375  24.587  21.626 -0.0895 -0.2090 -0.0547
72340W        W47328   1.209  11.884  20.300  0.4608  0.0779 -0.0715
72341W        W47329  16.332   5.658  25.361 -0.1685 -0.0206 -0.1003
72342W        W47330   9.379  33.568  26.091  0.0193 -0.2893 -0.1585
72343W        W47331  24.493  26.157  21.128  0.2383  0.1817  0.1822
72344W        W47332   3.250   1.494  24.582  0.2079 -0.0920 -0.1929
72345W        W47333   0.502  16.998  11.296  0.0200 -0.3154 -0.4365
72346W        W47334   1.446  33.972   2.279  0.4239  0.1084  0.5574
72347W        W47335  16.396  29.300   2.371 -0.1327 -0.1566  0.1298
72348W        W47336   8.224  34.270  11.576  0.3132 -0.1306 -0.1751
72349W        W47337   5.327  29.738  20.937 -0.2732  0.2532 -0.3279
72350W        W47338  12.283  30.773  12.876  0.1084 -0.0318 -0.0213
72351W        W47339   1.418  15.917  13.851 -0.3217 -0.0925 -0.4056
72352W        W47340   8.401  15.962  17.917  0.0450 -0.2255  0.1623
72353W        W47341  23.213  10.311  17.202 -0.0927 -0.0526 -0.2807
72354W        W47342   9.506  26.087   3.925 -0.2231 -0.0168 -0.4394
72355W        W47343  13.850   9.444   0.359  0.4512 -0.1176  0.0611
72356W        W47344  22.426   1.889   2.917  0.0908  0.1866  0.2449
72357W        W47345   7.880   5.289   7.717  0.1341 -0.0881 -0.0830
72358W        W47346  32.305  22.318  14.273  0.1081 -0.0613  0.2001
72359W        W47347  28.922   6.772  12.959 -0.0859 -0.0479 -0.1975
72360W        W47348  25.277  32.735   3.158  0.3365  0.0240  0.1059
72361W        W47349   8.399  25.895  13.173 -0.1358  0.0505 -0.2988
72362W        W47350   1.823  24.241  26.111 -0.0770 -0.3816 -0.0654
72363W        W47351  32.556   5.158  14.850 -0.2055 -0.4824 -0.1244
72364W        W47352  28.539  22.230  13.603 -0.0680 -0.0858 -0.1005
72365W        W47353  21.580   8.858  24.818 -0.0155 -0.0537  0.0518
72366W        W47354  35.236   1.980   3.486 -0.0223 -0.0358 -0.0030
72367W        W47355  16.403   0.354  26.235  0.0595  0.2094  0.0353
72368W        W47356  14.657   3.064   2.435  0.0526  0.0432 -0.3431
72369W        W47357  22.832  33.991  18.731 -0.1000  0.2767  0.2970
72370W        W47358   6.750  17.471  11.670 -0.2975 -0.0470  0.0266
72371W        W47359  24.539  22.100  21.693  0.0514  0.2166  0.1108
72372W        W47360  19.932   1.362  21.294  0.0353 -0.0272 -0.0466
72373W        W47361  29.345   1.120  16.571 -0.1816  0.3481  0.3324
72374W        W47362  10.698   2.257  23.028 -0.0199 -0.2118 -0.2065
72375W        W47363  22.855  31.936   2.564 -0.0432 -0.2549 -0.1582
72376W        W47364   5.813  17.695  19.250  0.1270 -0.2390 -0.0469
72377W        W47365   5.576  31.372   4.742  0.0876 -0.0232 -0.2122
72378W        W47366  35.096  14.292  12.161 -0.0440 -0.1753 -0.1519
72379W        W47367  26.484  14.101   6.116  0.0308  0.2622 -0.0070
72380W        W47368   8.287  30.739  25.314  0.1869  0.3803  0.1275
72381W        W47369   0.814   7.770   1.034 -0.1451  0.1050 -0.0703
72382W        W47370  28.366  18.660  10.909  0.0956 -0.1918  0.0709
72383W        W47371  10.706  15.549   5.673 -0.0263  0.2765  0.1613
72384W        W47372  23.841   7.337  18.731  0.1234  0.1264  0.0543
72385W        W47373  11.074   0.356   4.235  0.1335 -0.1445  0.0433
72386W        W47374  26.515  18.426  17.163 -0.3428 -0.2353  0.0177
72387W        W47375  34.402   4.042  18.238 -0.0180 -0.2888 -0.1104
72388W        W47376  28.156  15.891  25.410 -0.2830  0.1500 -0.3617
72389W        W47377  27.334   1.364  25.710  0.2325  0.0054  0.2262
72390W        W47378  22.985  19.786  21.895 -0.0106  0.2434  0.0456
72391W        W47379  32.323   7.117  13.450 -0.0469  0.0751  0.3219
72392W        W47380  14.744  13.889  21.634  0.2537  0.1077 -0.0711
72393W        W47381  19.813  19.107  23.324 -0.1187 -0.2647  0.1987
72394W        W47382  25.265  11.174   0.488  0.2158  0.1882  0.0818
72395W        W47383   1.293  20.258   1.639  0.1654  0.1863 -0.1305
72396W        W47384  25.098  30.612   2.712 -0.0880 -0.6878  0.1887
72397W        W47385  34.010  12.585  14.308 -0.3306  0.0014 -0.0643
72398W        W47386  25.382  21.324  25.121 -0.1839  0.0047  0.1937
72399W        W47387  26.748  33.411  10.907  0.2845  0.4330 -0.1434
72400W        W47388  33.202  22.734  21.234  0.2289 -0.0170  0.4638
72401W        W47389  15.851   7.499   4.064  0.0256 -0.1571  0.4382
72402W        W47390  21.710  21.584  24.600  0.2379  0.1252 -0.0003
72403W        W47391  28.282  24.388  23.147 -0.0246  0.2731 -0.2221
72404W        W47392  12.032  14.233   8.943  0.0685  0.1708  0.1616
72405W        W47393  34.996  32.029   1.336  0.0658 -0.0263  0.1118
72406W        W47394  35.082  11.851  18.655  0.1171  0.0172 -0.1173
72407W        W47395  33.991  13.608  11.593  0.0529  0.1710 -0.1627
72408W        W47396  13.181  25.067  11.874  0.2643 -0.3527 -0.0001
72409W        W47397  32.379  21.429  10.290  0.0586 -0.1672  0.0827
72410W        W47398  32.910  19.417   7.068 -0.1360 -0.1540 -0.0230
72411W        W47399  15.666   2.375  20.430  0.0498 -0.2017 -0.1899
72412W        W47400  34.112   4.336   0.603  0.1966 -0.1722 -0.1561
72413W        W47401  27.833  19.997  21.780  0.3046 -0.1323 -0.1814
72414W        W47402  14.271  32.408  23.179  0.1560  0.0927  0.2080
72415W        W47403  15.565  12.783   9.019 -0.0264 -0.0943 -0.0765
72416W        W47404   1.971  28.265  20.972 -0.4242 -0.0046 -0.2026
72417W        W47405  14.447  10.658   7.987  0.0907 -0.0358  0.1486
72418W        W47406  35.296  18.219   7.400  0.0342 -0.4076  0.0762
72419W        W47407  26.748  15.256  16.849 -0.1331  0.0313  0.0586
72420W        W47408   6.010  34.548   4.954 -0.0768 -0.1683  0.0026
72421W        W47409  33.445  32.154   6.544 -0.0489  0.2491  0.0223
72422W        W47410  11.185  22.956   8.887  0.0523  0.1543  0.0845
72423W        W47411  15.241  16.774  23.701 -0.1279 -0.0498 -0.5505
72424W        W47412  13.950  27.150  25.618 -0.0922 -0.1433 -0.1919
72425W        W47413   4.969   1.928  10.967 -0.1750  0.3698 -0.3459
72426W        W47414  21.199   6.014  21.281  0.0162  0.1662  0.2959
72427W        W47415  15.413  35.028   1.463  0.0381  0.0358  0.0456
72428W        W47416  15.529   0.111   4.934  0.2005 -0.0140 -0.4568
72429W        W47417  29.372   6.343   0.855 -0.0013 -0.0880 -0.1790
72430W        W47418  26.714  20.307  11.973 -0.3389  0.1243 -0.2480
72431W        W47419  32.316   0.874  17.645 -0.0403  0.0952  0.3154
72432W        W47420  24.996   9.043  16.059 -0.1964 -0.2631 -0.2497
72433W        W47421   9.795  20.642  13.043 -0.1111  0.0097 -0.1300
72434W        W47422  13.645  33.790   2.121  0.0049 -0.3167 -0.4281
72435W        W47423   3.887  14.400  21.592 -0.0795 -0.1714  0.1303
72436W        W47424   7.849   5.321   8.234 -0.0265  0.1052  0.2267
72437W        W47425  33.899  12.813  24.075  0.0800 -0.0702  0.2635
72438W        W47426  12.465  16.207   3.818  0.2915 -0.0041 -0.0248
72439W        W47427  11.464  20.474  11.702  0.0210 -0.0206 -0.1426
72440W        W47428  25.477  31.400  18.472  0.0045 -0.1602  0.0800
72441W        W47429  22.009  34.262  13.229  0.0449 -0.3135  0.1665
72442W        W47430  29.938  20.279   4.449 -0.2263 -0.0735  0.0664
72443W        W47431   8.378  32.190  14.413  0.2578  0.0989  0.1371
72444W        W47432   4.447  33.749   5.184 -0.2116 -0.2935  0.0202
72445W        W47433  23.148  35.312   3.943  0.2066 -0.2467  0.3313
72446W        W47434   6.512   2.548  12.889  0.1721 -0.1571 -0.2266
72447W        W47435  28.252   0.511   0.768  0.0071 -0.0440 -0.0104
72448W        W47436   9.454   1.869   9.048  0.1127 -0.2471  0.1587
72449W        W47437   2.906  33.974  23.850  0.0819  0.6017 -0.2490
72450W        W47438  19.552  26.432   8.536 -0.2724 -0.3468  0.3505
72451W        W47439  25.104  34.220  15.609 -0.1936  0.1406 -0.0846
72452W        W47440  15.292   9.927   8.820 -0.1791  0.4175 -0.2211
72453W        W47441  33.769  13.207  24.362 -0.0033  0.2241  0.0607
72454W        W47442   0.221  28.241  23.779 -0.1869 -0.4008  0.1986
72455W        W47443   2.706  26.897   4.040 -0.4516  0.0020 -0.0974
72456W        W47444  11.949  20.281  14.038  0.0738 -0.0113  0.1073
72457W        W47445   8.047   0.453  22.986 -0.0124 -0.0195 -0.2970
72458W        W47446  11.394   9.602  25.842  0.2225 -0.0920  0.1221
72459W        W47447  13.734  19.432  22.905  0.1513  0.0690  0.2285
72460W        W47448  17.615  22.902  23.475  0.3461 -0.3081  0.4289
72461W        W47449  32.748  10.629  18.917 -0.1570  0.3117 -0.2136
72462W        W47450   6.743  20.678   8.795 -0.1284 -0.3283  0.2619
72463W        W47451  32.761  31.021  22.323 -0.0953 -0.1334 -0.0170
72464W        W47452   9.434  11.160  22.410  0.2038 -0.1667 -0.0964
72465W        W47453  25.403  19.975  16.938 -0.1090 -0.0239  0.2284
72466W        W47454  17.664  13.947   3.456 -0.1772  0.0158  0.0075
72467W        W47455   2.385  14.038   3.024 -0.3058 -0.1450 -0.0469
72468W        W47456  18.712  29.141  18.939  0.0119  0.1937  0.3091
72469W        W47457  21.999  25.633   2.818  0.3183  0.3332  0.0287
72470W        W47458  23.766  21.974  15.950  0.1011 -0.0966  0.0363
72471W        W47459   8.195   5.585  20.405  0.1862  0.0357  0.1045
72472W        W47460   7.420  27.572  11.014 -0.3453  0.1959  0.1226
72473W        W47461  11.752   3.833   4.286  0.0510 -0.0743  0.1935
72474W        W47462  11.487  33.200   4.102  0.1957 -0.0066  0.1969
72475W        W47463  16.976  10.528  21.274  0.1013  0.1126 -0.1067
72476W        W47464  27.769  16.047   4.300 -0.1398 -0.2035 -0.0513
72477W        W47465  34.875   5.080   4.210  0.0431 -0.0293  0.1117
72478W        W47466  32.557   1.560  12.587 -0.0477 -0.1657 -0.0866
72479W        W47467  29.155   3.430   1.812 -0.1136 -0.1951  0.2460
72480W        W47468  14.148  35.315   2.552 -0.0672 -0.0824  0.1280
72481W        W47469  26.427  27.351  11.242 -0.0227  0.0264 -0.3019
72482W        W47470   2.915   0.850  19.582 -0.1829  0.4034 -0.1641
72483W        W47471  29.171   9.167   0.450 -0.0090  0.2612  0.1598
72484W        W47472  21.255  23.708   6.137  0.0370  0.1044  0.0987
72485W        W47473  20.839  34.872  24.521 -0.3620  0.1878  0.3507
72486W        W47474  12.957  18.633   2.239  0.0014 -0.2558 -0.0938
72487W        W47475  30.954   8.862  22.867  0.2417 -0.2136 -0.0801
72488W        W47476  11.484   2.316  20.138 -0.1152 -0.0643  0.3868
72489W        W47477  12.091  20.011   8.483  0.0940 -0.0407 -0.0360
72490W        W47478   9.804  16.352  13.910 -0.1538 -0.2272  0.1560
72491W        W47479  11.505   5.926   7.460  0.1444 -0.1412  0.1517
72492W        W47480  13.600  26.633   0.860  0.0095  0.1399  0.2175
72493W        W47481  22.086  13.091   0.421  0.0513  0.3019  0.0104
72494W        W47482   0.748  21.026  11.696  0.1886 -0.0804  0.0738
72495W        W47483   9.582   7.783   6.640  0.0534  0.0654 -0.4224
72496W        W47484   6.774  34.405   3.404  0.0284  0.1182  0.1706
72497W        W47485  10.641   3.425   9.811  0.1580 -0.0588 -0.0718
72498W        W47486   3.828  15.479  20.367 -0.1259 -0.2093  0.0779
72499W        W47487  33.730  23.802  25.876 -0.1162 -0.1006 -0.1116
72500W        W47488  18.654   4.608   8.392 -0.0714 -0.3403 -0.0891
72501W        W47489   0.521  21.047  23.285  0.1008 -0.1856 -0.0298
72502W        W47490  11.567  33.436  12.261 -0.0901  0.0122  0.1150
72503W        W47491  13.639  32.499   2.561 -0.1041 -0.0395  0.0972
72504W        W47492   7.090  31.708  14.050  0.4107 -0.3540 -0.0090
72505W        W47493  15.632  26.501  25.687 -0.1196 -0.0144 -0.1088
72506W        W47494  17.017   1.703   2.365  0.3314 -0.2122 -0.4150
72507W        W47495  21.435  30.443   1.159  0.1193 -0.2761  0.0651
72508W        W47496   5.189  29.396  22.647 -0.0453  0.2676  0.0302
72509W        W47497  14.769   6.941  23.962  0.0934  0.2180  0.2380
72510W        W47498  32.702  20.103  20.390 -0.2076 -0.1160 -0.5287
72511W        W47499  17.852  34.570  20.803 -0.0095 -0.0036  0.2088
72512W        W47500   9.155  17.676   9.194 -0.0244 -0.0214 -0.0016
72513W        W47501   5.179  16.269   0.148 -0.1565 -0.1865  0.0446
72514W        W47502  29.920  26.808  14.339  0.1028 -0.2642 -0.1591
72515W        W47503   8.876   8.504   2.014 -0.0662 -0.1173  0.0861
72516W        W47504  11.330   4.902   5.036 -0.0455  0.0513 -0.2952
72517W        W47505  12.591  24.306  10.558  0.0819 -0.3143 -0.0882
72518W        W47506  25.645  31.653  22.194 -0.2435 -0.3719  0.3222
72519W        W47507  20.373  20.878  23.027 -0.0291 -0.0656  0.1719
72520W        W47508  10.869   5.873  24.675 -0.1192 -0.1420  0.0095
72521W        W47509  21.469   6.716  20.061 -0.2000 -0.1011  0.0754
72522W        W47510  17.584  19.484   3.010  0.2258  0.0826 -0.2303
72523W        W47511  18.330  12.692  21.071  0.2236 -0.1360 -0.1906
72524W        W47512   2.198  14.127  23.904 -0.2307  0.1649 -0.0017
72525W        W47513  27.872  24.952   9.021 -0.1664  0.2652  0.2146
72526W        W47514   2.484  29.500   6.927  0.4875 -0.1544 -0.1777
72527W        W47515   9.272  14.661  12.960 -0.3816 -0.0085  0.0899
72528W        W47516   5.929   1.856   7.606 -0.0777  0.2260  0.3518
72529W        W47517   1.824   1.144  19.850  0.2707 -0.2949 -0.0983
72530W        W47518  28.256  30.687  21.276 -0.1493  0.0394  0.2432
72531W        W47519   5.777  17.647   2.217  0.1054  0.1542  0.4250
72532W        W47520   0.702  35.182  16.361  0.1033 -0.1607 -0.0879
72533W        W47521  20.380  16.887  23.138  0.0878  0.1441  0.2709
72534W        W47522  27.807  34.441   6.251  0.2461  0.2484 -0.0971
72535W        W47523   3.501   0.773   6.124 -0.0985  0.1720 -0.2126
72536W        W47524  31.512  17.260   8.644 -0.1701  0.0242  0.0932
72537W        W47525  13.333  26.294   3.234 -0.1788 -0.0947 -0.0904
72538W        W47526   2.875  34.616   3.981 -0.1974 -0.0341  0.1912
72539W        W47527  16.574  20.691  10.861 -0.1076  0.2795  0.0899
72540W        W47528  33.574  19.519  14.148  0.0136 -0.0227 -0.2936
72541W        W47529  26.198  15.960  20.812  0.1614 -0.0333  0.2119
72542W        W47530  25.794   0.868  17.308  0.0167  0.1851  0.0284
72543W        W47531  28.356  23.724  19.722 -0.2971 -0.0200  0.0242
72544W        W47532  17.509  12.397  21.225  0.1540 -0.0068  0.0520
72545W        W47533  31.465   6.171  20.871  0.3303 -0.2033  0.0016
72546W        W47534   3.826  15.199  25.493 -0.1182 -0.1109  0.1986
72547W        W47535  29.114  28.934  24.611 -0.0485 -0.0706 -0.0071
72548W        W47536  28.488  19.012  24.500  0.0031  0.0889  0.1925
72549W        W47537   6.793  28.655  11.254 -0.1020 -0.0999  0.0532
72550W        W47538   4.104  10.749  24.234  0.0988  0.2545  0.1471
72551W        W47539   3.488   7.749  23.919 -0.0955 -0.0629 -0.1809
72552W        W47540  13.524   6.119  12.487  0.0303 -0.0867 -0.1079
72553W        W47541  27.507  22.906  16.964  0.3458  0.1468 -0.1931
72554W        W47542  34.671  23.862  11.235  0.1296  0.4167 -0.1039
72555W        W47543   6.192  17.892  25.414 -0.0596  0.2077 -0.1211
72556W        W47544  29.092   3.206  16.482  0.0835  0.0008 -0.3179
72557W        W47545  22.607  19.687  25.912 -0.2287 -0.0536 -0.1390
72558W        W47546  28.338  27.149  14.870 -0.1388  0.2785 -0.0711
72559W        W47547  14.199   8.856  19.810  0.2463 -0.0510 -0.2275
72560W        W47548  33.946  16.504  17.267 -0.0067 -0.0134 -0.0250
72561W        W47549  34.046  24.932  19.326 -0.2166  0.1741 -0.1072
72562W        W47550   4.978  22.144   5.522  0.2462 -0.1228 -0.5237
72563W        W47551  20.341  26.504   0.110  0.0560 -0.1313  0.2089
72564W        W47552  15.736   9.266  10.904  0.0173  0.1326 -0.2683
72565W        W47553  17.064   8.171  10.226  0.0682  0.0701 -0.1787
72566W        W47554  29.877   8.927  13.363  0.2535 -0.2438 -0.2243
72567W        W47555   7.526   9.061  19.818 -0.0752  0.1784 -0.2355
72568W        W47556  32.569  27.770  19.316  0.1282 -0.1468  0.0055
72569W        W47557   6.087   7.534  22.856  0.0442  0.0223  0.5430
72570W        W47558   8.019  17.652   3.692 -0.2030 -0.2224 -0.4880
72571W        W47559  10.310   7.391   4.227  0.2586 -0.0981 -0.0991
72572W        W47560   9.847  31.017  24.124 -0.0806 -0.0234  0.3353
72573W        W47561  13.467  17.718   2.454  0.1582 -0.2278 -0.1216
72574W        W47562   5.038  23.877   3.316 -0.0779 -0.1313  0.0498
72575W        W47563  26.988  15.346   7.616 -0.1885 -0.2846 -0.1005
72576W        W47564  11.347  10.423   2.740  0.1654 -0.1834 -0.0695
72577W        W47565   1.113  23.353   1.453  0.1333  0.2233 -0.2395
72578W        W47566  33.167  18.843  13.757 -0.1655  0.0659  0.2346
72579W        W47567   6.130  19.388   2.384 -0.3251  0.0022  0.0558
72580W        W47568  14.765  29.206   6.714 -0.3137 -0.1857  0.1596
72581W        W47569  10.328  17.460  20.800  0.2137  0.0180 -0.1411
72582W        W47570  31.709  19.767   6.495  0.0142 -0.1674  0.2346
72583W        W47571  18.669  29.083   2.475  0.0687  0.0760 -0.1346
72584W        W47572  28.215  15.109  17.164  0.0122 -0.3832 -0.0731
72585W        W47573  12.098  30.667   5.668 -0.2705 -0.0927 -0.1619
72586W        W47574   0.900   1.305  23.919  0.0279 -0.0600 -0.1711
72587W        W47575   9.459  16.012  25.752  0.0676  0.0395  0.2031
72588W        W47576  33.729  20.175  18.853  0.0714 -0.2157  0.2363
72589W        W47577   5.670   0.027   6.377  0.3086 -0.0579  0.0954
72590W        W47578  27.958   6.547   0.491  0.1069 -0.1873  0.3478
72591W        W47579  12.689   1.093   1.447 -0.1513 -0.1074  0.0960
72592W        W47580  15.557  19.263   7.674  0.0136 -0.2205 -0.0681
72593W        W47581  13.701   8.076  22.218 -0.0017 -0.0028  0.1005
72594W        W47582   5.497   3.818   2.517  0.2988  0.1831  0.2540
72595W        W47583  27.238  31.504  15.473  0.1182 -0.1408 -0.4163
72596W        W47584  18.882  15.216  18.882  0.1094 -0.4342 -0.0285
72597W        W47585  11.598  23.680   9.885  0.1450 -0.0494 -0.1206
72598W        W47586   6.049  22.423   8.732 -0.0071  0.0611 -0.2881
72599W        W47587  27.631  24.450   1.079  0.3098 -0.0530  0.0541
72600W        W47588  25.444  15.529  18.191 -0.3486 -0.0918 -0.1677
72601W        W47589   6.983   6.539  12.157  0.1225 -0.0744  0.0333
72602W        W47590  14.338  23.722   8.173 -0.2108  0.0479 -0.1674
72603W        W47591  10.764  20.860   1.590  0.0335  0.0570  0.2219
72604W        W47592   8.514  25.426  25.525  0.0295  0.0209 -0.0987
72605W        W47593  24.247  30.341  11.227 -0.3297  0.0341 -0.0978
72606W        W47594  13.734  20.338   0.957  0.3170 -0.2098  0.0913
72607W        W47595   8.693   2.257   3.074 -0.2495  0.0460 -0.2434
72608W        W47596  28.171  29.171  22.424 -0.2413  0.0320  0.0060
72609W        W47597  33.945  14.522  20.244 -0.3477  0.1245 -0.0750
72610W        W47598   9.055  23.166   5.120 -0.1231 -0.2014  0.3539
72611W        W47599   6.211  21.009   7.548  0.2045 -0.0636  0.2201
72612W        W47600  24.237  34.655  25.512 -0.1223  0.3305  0.1728
72613W        W47601  15.771  15.709  13.218  0.1753  0.2808 -0.2238
72614W        W47602   8.769   6.437   1.601  0.2040  0.0602 -0.2439
72615W        W47603   7.427   4.065  24.160 -0.0469 -0.1204  0.0616
72616W        W47604  17.724  35.284   1.537  0.1542 -0.0058  0.1468
72617W        W47605  20.095  21.774  25.261 -0.0309 -0.0747 -0.1890
72618W        W47606  12.119  12.529   7.899 -0.0131  0.0324  0.0816
72619W        W47607   4.000  22.345  20.566  0.2467  0.4365 -0.0255
72620W        W47608  31.199  29.421  17.555 -0.1820 -0.0669 -0.2732
72621W        W47609  18.029  28.347   0.189 -0.1021 -0.2374  0.1613
72622W        W47610  23.069  18.236  25.901 -0.0100 -0.1915 -0.0395
72623W        W47611  18.861   0.415  22.933  0.1746 -0.2583  0.1906
72624W        W47612  14.627  12.496  13.705  0.1620  0.1865 -0.0324
72625W        W47613  15.080  18.289  24.973  0.0931 -0.2674  0.0223
72626W        W47614   7.050  32.162  10.500  0.0206  0.3785 -0.1198
72627W        W47615  17.153  23.930  21.977  0.3525 -0.1569 -0.0219
72628W        W47616  12.263  35.060  22.687  0.2145  0.0913  0.0332
72629W        W47617  31.683  24.841  18.409  0.1266  0.0469  0.0894
72630W        W47618   9.005  30.729   5.710 -0.1730 -0.0501 -0.1956
72631W        W47619  14.940  20.548  21.387 -0.0423  0.0400  0.4035
72632W        W47620  34.148  21.779  12.161  0.0999  0.1139  0.0150
72633W        W47621   6.928  22.845  12.886  0.3028  0.0547  0.1494
72634W        W47622   1.620   4.190  23.989  0.0646 -0.3497  0.0516
72635W        W47623  13.647  31.942  20.351 -0.0653 -0.0754 -0.3098
72636W        W47624  28.588  19.624  16.614  0.1914 -0.1567  0.2798
72637W        W47625  11.267  14.233  19.090 -0.1665 -0.0671  0.0233
72638W        W47626  20.151  31.201  20.433 -0.1335 -0.2056  0.0332
72639W        W47627  22.656  16.887  15.516  0.2283  0.0000  0.1700
72640W        W47628  24.091  18.559  17.903  0.1228 -0.1493  0.0265
72641W        W47629  23.808  24.080  22.918 -0.1858 -0.0974 -0.0632
72642W        W47630   7.641  24.666  14.384 -0.0125 -0.0055  0.2209
72643W        W47631   7.984  26.183  14.670 -0.1447  0.2576 -0.1231
72644W        W47632  10.519  16.987  25.749 -0.1522  0.2400 -0.1905
72645W        W47633  19.279  33.794  16.829  0.1541  0.0564 -0.0918
72646W        W47634  12.972  29.666   2.179 -0.2763  0.1805 -0.0045
72647W        W47635  34.602  20.775   6.988 -0.1485 -0.0660 -0.1810
72648W        W47636  25.577  34.698  19.181  0.1666 -0.0583 -0.2351
72649W        W47637  14.374  27.771   2.171 -0.1404 -0.1608 -0.1611
72650W        W47638  11.690   1.557  22.635 -0.0587  0.0821 -0.3208
72651W        W47639  29.187  21.515   9.038  0.0605  0.1204 -0.0695
72652W        W47640   0.714  23.415  10.798 -0.0471 -0.3731  0.0296
72653W        W47641  13.131  29.419  25.790  0.0374 -0.1226  0.1286
72654W        W47642  15.767   9.281  26.117 -0.1461 -0.1740 -0.1373
72655W        W47643   1.063  23.124  17.213 -0.1198  0.2470 -0.0346
72656W        W47644  29.764  13.315  17.687  0.1926 -0.0229 -0.2922
72657W        W47645  34.284  17.034  25.046  0.1733 -0.3130 -0.0263
72658W        W47646  22.508   7.782  25.052  0.2702  0.2751  0.1303
72659W        W47647  20.040  21.851   5.768  0.1369  0.1426 -0.3396
72660W        W47648   9.486  11.393   0.035 -0.1646 -0.0951 -0.3128
72661W        W47649  30.040   9.491  11.509  0.4154 -0.1337 -0.0449
72662W        W47650  29.205  31.062   0.867 -0.1867  0.1345  0.1796
72663W        W47651  30.661  24.329   6.541  0.2007  0.0937 -0.0523
72664W        W47652  18.077  29.153  22.671  0.0751  0.3220 -0.1127
72665W        W47653  17.772  14.710   5.889 -0.2305 -0.1668  0.0117
72666W        W47654   2.416  34.178   6.381  0.2011  0.2305  0.0991
72667W        W47655   8.666  19.213  26.175 -0.0750 -0.0418  0.2553
72668W        W47656  30.522  30.164   2.794  0.4268  0.0084 -0.0539
72669W        W47657   0.707  13.673   1.609 -0.1911  0.1900 -0.1748
72670W        W47658  11.468  12.416  20.148 -0.1933  0.1112 -0.1419
72671W        W47659  33.514  28.218  23.741  0.0124  0.1371 -0.2239
72672W        W47660   3.376  15.060   1.641  0.2118  0.2684 -0.0426
72673W        W47661  22.735  31.058  20.216 -0.0435 -0.1678  0.2104
72674W        W47662  13.653  22.592  12.067 -0.1675 -0.3428 -0.4823
72675W        W47663  32.266  24.718  24.163  0.0542 -0.0821 -0.2796
72676W        W47664  26.535   3.368  15.094 -0.0227 -0.0298 -0.1490
72677W        W47665  30.209  21.964  18.896 -0.2297  0.1043  0.1545
72678W        W47666  16.911   8.230   6.705 -0.0529  0.0899  0.0960
72679W        W47667  15.845  26.692   1.339  0.2130  0.0315  0.0977
72680W        W47668  21.415  21.924   3.153 -0.0457 -0.1383 -0.0573
72681W        W47669  23.606  26.076  17.581 -0.1074  0.2399  0.0173
72682W        W47670  17.926  13.382  23.328  0.0669  0.0478 -0.0371
72683W        W47671  30.245   1.495   7.146 -0.0069 -0.0148  0.3869
72684W        W47672  28.093  14.972   5.746  0.2703 -0.0709 -0.0052
72685W        W47673   0.559   0.445  21.722  0.0750 -0.0536 -0.0079
72686W        W47674  28.577  17.020  20.041  0.0474  0.1367  0.0414
72687W        W47675   4.668  29.026  11.977  0.0245  0.3100 -0.1221
72688W        W47676  11.532  10.828  18.991 -0.3388 -0.0517 -0.1236
72689W        W47677   5.766   7.433   8.514 -0.2238 -0.3244 -0.1831
72690W        W47678  28.577  13.906  12.025 -0.2259 -0.0002  0.1290
72691W        W47679  15.032   4.785  18.744 -0.1059 -0.1807  0.0395
72692W        W47680  10.011  13.640  19.637  0.2484  0.0809 -0.3254
72693W        W47681  25.198  28.468  19.962 -0.0933 -0.1123 -0.1072
72694W        W47682  11.579  35.125  11.156  0.2180 -0.1190 -0.2986
72695W        W47683  11.407  21.728   6.837 -0.2498 -0.2832  0.0962
72696W        W47684  21.004  35.379   6.605  0.1181  0.0995 -0.0360
72697W        W47685  34.908  35.277  14.568 -0.1875 -0.3573  0.2021
72698W        W47686  21.019  23.269  23.244  0.2153  0.0038  0.0080
72699W        W47687  17.783  15.181  18.821  0.0234  0.1624 -0.2567
72700W        W47688  24.403  28.948  18.865 -0.1504 -0.1352  0.0003
72701W        W47689  29.188  32.143  22.029 -0.1038  0.0789  0.0038
72702W        W47690  19.419   2.606  19.752  0.0704  0.1223  0.1582
72703W        W47691   1.717   4.183  22.410  0.0849 -0.1873  0.2480
72704W        W47692  21.708   0.984   2.071  0.4520 -0.0396 -0.2019
72705W        W47693  13.333   4.450  12.452  0.1102  0.1535 -0.1153
72706W        W47694  14.538  15.528  12.963  0.1609  0.0636 -0.0825
72707W        W47695  32.343  14.578  22.657 -0.2528 -0.3029 -0.2086
72708W        W47696  23.484  31.158  18.069 -0.1488  0.0728  0.1268
72709W        W47697  11.839  21.177   6.940 -0.0228 -0.1579 -0.2791
72710W        W47698   8.140   6.736  25.999  0.2710 -0.0869  0.1439
72711W        W47699  11.617  14.552   8.499 -0.0552 -0.0099  0.0093
72712W        W47700  31.737   7.343  17.276 -0.0332 -0.1125 -0.1078
72713W        W47701  31.482   6.913   0.719  0.0112  0.2965  0.1425
72714W        W47702   4.137  33.950   0.381  0.1483  0.3594  0.3318
72715W        W47703   2.200  20.775   4.040 -0.0618  0.0947 -0.0220
72716W        W47704  11.893  27.040   5.031 -0.0140 -0.1908 -0.0739
72717W        W47705  29.221   9.321  25.798 -0.1433  0.1673  0.0771
72718W        W47706   4.513   6.788  21.148 -0.1240 -0.2497  0.1515
72719W        W47707   5.318  34.869   0.161 -0.0473 -0.1625  0.1243
72720W        W47708  19.748   9.550   4.056 -0.1018 -0.0326 -0.0296
72721W        W47709  23.835  30.522  25.553  0.3173  0.2384  0.4392
72722W        W47710  14.488  33.900   8.774  0.0838  0.0820  0.2829
72723W        W47711  28.736  31.496  17.703 -0.3183  0.0154  0.0899
72724W        W47712   4.770  22.187  21.503  0.2773 -0.1343 -0.0862
72725W        W47713  31.775   0.850  26.192  0.0889  0.0786 -0.0534
72726W        W47714  19.435  31.479   6.996 -0.1910  0.0185  0.2774
72727W        W47715  23.548  14.463  15.503 -0.3530  0.0120  0.1891
72728W        W47716  33.086  15.711   8.316 -0.0271  0.0206  0.0989
72729W        W47717  25.243  26.478  11.285  0.3101  0.0738 -0.0255
72730W        W47718  13.908  31.543  22.413 -0.1347  0.0461 -0.0558
72731W        W47719  34.664  23.127  19.961 -0.0555 -0.0150  0.0658
72732W        W47720  12.288  20.119  13.485  0.0700  0.0199  0.0921
72733W        W47721  29.957  23.896  13.347 -0.0887 -0.3317  0.2513
72734W        W47722   3.371   6.595  20.659 -0.1955  0.1264 -0.1760
72735W        W47723   2.560  34.270   7.023  0.2296 -0.0305  0.1996
72736W        W47724  33.964  17.425   8.663  0.1476  0.1853  0.0739
72737W        W47725  28.846  14.192  24.707  0.0354  0.2477 -0.2463
72738W        W47726  17.511  15.256  12.118 -0.0797  0.1875  0.1913
72739W        W47727  18.600  34.855  23.250  0.0196  0.0811  0.1934
72740W        W47728  27.057  35.052  13.398 -0.1207  0.1865  0.0590
72741W        W47729  29.988  25.985   9.371  0.0830 -0.1991 -0.1915
72742W        W47730  20.829  17.066   0.060 -0.2419  0.0832 -0.0200
72743W        W47731   8.035   3.370   5.795 -0.0020  0.0809  0.1905
72744W        W47732  26.135  20.984  12.227 -0.0491 -0.1232 -0.0798
72745W        W47733   6.979  16.685   9.958 -0.0133  0.2699 -0.2151
72746W        W47734  25.883  20.930  21.977  0.3047  0.3824 -0.1269
72747W        W47735  29.796  32.995   3.888  0.2620 -0.0228 -0.0321
72748W        W47736   1.487  35.378   0.469 -0.0314 -0.0039  0.2843
72749W        W47737  14.073   4.586   4.853  0.0431  0.0140  0.0502
72750W        W47738  15.853  32.946  24.621  0.1701  0.0649 -0.2405
72751W        W47739  34.624  15.282  17.043 -0.2210  0.1212  0.0304
72752W        W47740  33.068  29.898  19.352 -0.0733  0.1463 -0.1374
72753W        W47741  18.083  12.827  10.774 -0.1342 -0.2087  0.4133
72754W        W47742  16.491   0.889  10.433 -0.0703  0.0639  0.1815
72755W        W47743   1.584   1.663   2.962  0.0787 -0.1521  0.5729
72756W        W47744  22.236  26.115   5.865 -0.1865  0.2488  0.3534
72757W        W47745   9.680  12.449  25.555 -0.2958 -0.0712  0.7631
72758W        W47746  11.841   2.115  19.467  0.2204  0.1881  0.1079
72759W        W47747  22.527  34.254  19.055 -0.1455  0.1085  0.3146
72760W        W47748  16.379   5.932  21.365  0.0314 -0.0132 -0.2577
72761W        W47749   7.806  32.457  13.477 -0.2132  0.0097  0.2464
72762W        W47750  28.845  21.219  10.963  0.1126 -0.0214  0.1820
72763W        W47751   8.774   4.227  14.252 -0.0554 -0.2731 -0.0233
72764W        W47752  17.472  15.603  10.427 -0.0070  0.0072  0.1476
72765W        W47753  25.413  31.399  12.334 -0.0319  0.0101  0.1153
72766W        W47754  21.972   8.509  17.925  0.1565  0.0077  0.1365
72767W        W47755  21.604  33.514   0.136 -0.0166 -0.1996  0.1380
72768W        W47756  13.011  10.581   5.545 -0.0405 -0.1105 -0.0065
72769W        W47757  20.039  15.339   2.300  0.0144 -0.0802  0.1249
72770W        W47758  27.762   5.901  20.564  0.1862  0.0643  0.0728
72771W        W47759  16.561  31.830   1.802 -0.3244 -0.1494 -0.0239
72772W        W47760  22.712   4.939   3.136  0.2427  0.0645 -0.0111
72773W        W47761  14.110  13.095   5.022  0.2556  0.0251  0.2423
72774W        W47762   0.339   2.381   6.483 -0.2794 -0.2138  0.2110
72775W        W47763  20.273   7.326   6.171  0.1073 -0.2546  0.1824
72776W        W47764  14.824  23.084   0.103  0.1138 -0.1010  0.4198
72777W        W47765   5.330  25.309  20.847 -0.2276 -0.1004  0.0428
72778W        W47766  14.490   3.016  25.182  0.0836 -0.1751 -0.0629
72779W        W47767  23.990   3.301   0.947 -0.2990  0.0012 -0.1653
72780W        W47768  12.158  14.725  23.363 -0.0277  0.0229 -0.1425
72781W        W47769  15.622   4.722   8.613  0.1041  0.1583 -0.2335
72782W        W47770  18.502  10.009  24.628 -0.2249  0.0912 -0.1679
72783W        W47771  12.044  26.312   8.707  0.1772  0.5186 -0.1398
72784W        W47772   5.611   7.780  24.784 -0.1236  0.1885 -0.2431
72785W        W47773   0.521   1.174  23.057 -0.1121  0.0897  0.1191
72786W        W47774  23.870  11.092  22.172  0.4058 -0.0827  0.0382
72787W        W47775  33.055  16.609   5.976  0.0320 -0.1289  0.2594
72788W        W47776  29.480  28.126   2.690  0.0160 -0.3318 -0.2555
72789W        W47777  18.805   1.045  15.355  0.1291  0.1345  0.3019
72790W        W47778   1.099  32.821  20.325  0.3648 -0.1921 -0.3628
72791W        W47779   5.619   1.477   4.536 -0.2125  0.0354 -0.1325
72792W        W47780   1.542  32.796  21.274  0.0142  0.0343  0.1527
72793W        W47781  32.579  15.905  22.862 -0.0735  0.0947  0.2842
72794W        W47782  27.472   6.288  24.796 -0.0045  0.2095  0.1259
72795W        W47783  14.716  24.433   9.967  0.2483  0.0463  0.2445
72796W        W47784  22.135  33.239  14.193  0.1682 -0.0038 -0.0866
72797W        W47785  30.171  14.874   6.173 -0.1048 -0.0169 -0.0153
72798W        W47786  12.491   5.459  10.797 -0.0431 -0.2212  0.0728
72799W        W47787   3.036  28.186  25.206  0.0746  0.2150  0.0713
72800W        W47788  27.183  14.211   5.572 -0.0235 -0.0550 -0.0945
72801W        W47789  33.411  27.800  12.418 -0.2364  0.0218 -0.2035
72802W        W47790   7.901  17.223  25.770  0.3633  0.3100 -0.1272
72803W        W47791  31.720  16.285  18.895 -0.2004  0.0610 -0.2289
72804W        W47792  11.288  29.354   0.617  0.2069 -0.2393  0.1360
72805W        W47793   6.565  33.783  24.534 -0.2551  0.0425  0.1721
72806W        W47794  23.534  22.216  19.830 -0.1127 -0.0783  0.0984
72807W        W47795  19.314  30.316  17.049  0.2600  0.2921 -0.3919
72808W        W47796  14.214   5.722  11.376 -0.1189 -0.1932 -0.1870
72809W        W47797  24.962   1.769  20.405  0.0353 -0.0492 -0.0062
72810W        W47798   5.522   0.632  18.602  0.0565 -0.0903  0.0340
72811W        W47799  32.651   3.098   1.054 -0.0140  0.1673  0.1378
72812W        W47800  10.760  12.111  23.531  0.1907 -0.2745 -0.3956
72813W        W47801  18.694  35.379  18.573 -0.1884 -0.1288 -0.0482
72814W        W47802  32.771  26.431   1.579  0.1779 -0.0210  0.0785
72815W        W47803  32.558   6.467  15.917 -0.2514 -0.0309 -0.0220
72816W        W47804  31.104   8.200   0.342  0.0941 -0.0210  0.2668
72817W        W47805  33.637  21.914  19.460  0.0121 -0.1395  0.1753
72818W        W47806  28.969  30.047   2.430  0.1258 -0.2914 -0.0539
72819W        W47807  34.502  19.901  19.067  0.1453 -0.1882 -0.3269
72820W        W47808  32.631  31.545  17.552 -0.1943  0.3156  0.0486
72821W        W47809  32.284  21.043   9.981 -0.1673 -0.0316  0.1264
72822W        W47810  29.652  15.248   7.358  0.1498  0.3143  0.1454
72823W        W47811  14.146   0.630   5.370  0.0797  0.3088 -0.4010
72824W        W47812  14.231   5.780   2.763 -0.0019  0.0440 -0.0366
72825W        W47813  25.103  26.864  22.028  0.0934 -0.2575 -0.2791
72826W        W47814  18.467   1.643   2.034 -0.1862  0.2239  0.0709
72827W        W47815  28.006  14.245  23.767  0.1469 -0.1224 -0.1099
72828W        W47816   2.259  16.999  18.946  0.3055 -0.1815 -0.0693
72829W        W47817   7.260  17.429   9.379 -0.1143  0.0021  0.3966
72830W        W47818  26.132   3.371   4.674 -0.2003  0.1454  0.0031
72831W        W47819   2.813   8.925  17.435 -0.1459  0.1375  0.1353
72832W        W47820   8.772  29.062   0.251  0.1348  0.0745  0.3135
72833W        W47821  14.005  22.833   8.590 -0.2042  0.0331  0.2426
72834W        W47822  14.901  28.146   8.222 -0.1124  0.2162  0.0441
72835W        W47823  15.035  16.409   8.306  0.0743 -0.0604 -0.2096
72836W        W47824   0.125   3.002   6.487  0.2720 -0.1265  0.4149
72837W        W47825   3.804  31.449  23.515  0.3649  0.1592 -0.0603
72838W        W47826  31.459  10.893  17.823  0.1524  0.0618 -0.2966
72839W        W47827   3.637  33.464  24.295  0.0347  0.2007 -0.0197
72840W        W47828  24.682  12.548  16.557  0.2779  0.2118  0.1518
72841W        W47829  16.815  31.646   1.460  0.0488 -0.0256 -0.0443
72842W        W47830  11.119  28.039  13.717 -0.2470  0.0387 -0.3040
72843W        W47831  27.877   3.789  15.150  0.1502 -0.5216 -0.3193
72844W        W47832   0.838  33.434   4.880 -0.1921 -0.2642  0.1373
72845W        W47833  21.190   0.262   7.059 -0.0714  0.3397 -0.3408
72846W        W47834  30.592   8.437  20.196  0.0078 -0.1915 -0.0718
72847W        W47835  10.077  22.754   8.607 -0.0188  0.0548  0.1033
72848W        W47836  18.899   8.818   2.491 -0.1127  0.2560 -0.2121
72849W        W47837  22.580  11.688   2.773 -0.0243 -0.0904  0.0720
72850W        W47838  16.390   7.030  12.366  0.0938 -0.1814 -0.2643
72851W        W47839   4.761  33.051  25.685 -0.1537  0.4447  0.0265
72852W        W47840  33.828  29.678   1.490 -0.0904 -0.2487 -0.1031
72853W        W47841  19.692  32.734  25.696  0.1768  0.0470  0.0602
72854W        W47842   5.885  31.436  20.049 -0.0972 -0.1480 -0.0963
72855W        W47843  16.626   1.170   1.106 -0.1533 -0.1343  0.1219
72856W        W47844   7.737   3.321  20.248  0.4195  0.0689  0.1607
72857W        W47845  22.026  21.307  21.838  0.1019  0.0986  0.1566
72858W        W47846  15.981  19.769   3.075 -0.3207  0.0162 -0.0389
72859W        W47847  12.356  32.696   2.593 -0.1402 -0.2544 -0.1139
72860W        W47848  10.620   1.644   0.464  0.2511  0.0292 -0.1163
72861W        W47849  14.619  18.245  20.921 -0.0080  0.2457  0.0761
72862W        W47850  30.038  18.633  16.968  0.2712  0.1642  0.1043
72863W        W47851  14.647  20.315  22.661 -0.0413  0.1081  0.0322
72864W        W47852  32.401  22.783  18.961  0.0173 -0.1096 -0.3130
72865W        W47853  11.133  15.845  23.224 -0.1137 -0.1315  0.1779
72866W        W47854  18.693  25.786   4.846 -0.3859  0.3251 -0.1294
72867W        W47855  21.151  33.473   3.943 -0.0239 -0.1813  0.2294
72868W        W47856   9.102   5.482  24.133  0.1031 -0.1898  0.0795
72869W        W47857  26.697  20.563  23.835  0.1821  0.2250 -0.0989
72870W        W47858  11.405  33.607   5.351 -0.3125 -0.0296 -0.0819
72871W        W47859  21.014  14.616  19.779  0.1167  0.3774 -0.0823
72872W        W47860  12.633  19.101  12.362 -0.0990  0.4018  0.1863
72873W        W47861  19.933  23.063   8.243 -0.0626 -0.2892  0.2521
72874W        W47862  22.280   8.639   5.873  0.3418  0.0228 -0.2579
72875W        W47863  12.631  32.559  21.518  0.2958  0.0681 -0.0848
72876W        W47864  32.627  18.390   9.549  0.0613 -0.0807 -0.1229
72877W        W47865   4.113  29.128   4.759  0.1689 -0.0380 -0.0807
72878W        W47866  30.444  33.187   6.055 -0.1667 -0.1416 -0.1361
72879W        W47867   7.432   2.108   1.525  0.3198  0.1742 -0.2845
72880W        W47868   7.630  17.600  21.776  0.4011 -0.1583  0.0720
72881W        W47869  21.945  19.819  23.500 -0.0477  0.3512 -0.0670
72882W        W47870  12.303  34.981  24.572  0.0452  0.1341 -0.0362
72883W        W47871  27.020  13.551  25.803 -0.1528  0.1061 -0.0679
72884W        W47872  16.013  35.110  10.997 -0.3063 -0.0736  0.2143
72885W        W47873  35.056   0.571   2.741 -0.0621  0.0349  0.2180
72886W        W47874  31.684   3.755  11.140  0.0688 -0.2448  0.1417
72887W        W47875  11.240  19.342   1.506  0.2588 -0.1474  0.0542
72888W        W47876   0.502  14.202  24.183  0.1619 -0.0406 -0.1942
72889W        W47877  21.527  34.199  21.616  0.0761  0.0603 -0.2031
72890W        W47878  16.502  31.753   8.164  0.1472 -0.1705  0.2771
72891W        W47879  31.042  16.279  15.527 -0.0252 -0.1537 -0.0452
72892W        W47880  29.036   3.352  23.510 -0.1389  0.2775  0.0867
72893W        W47881  20.113   5.557  20.266  0.1537 -0.4854 -0.2093
72894W        W47882  15.461   5.136  11.135  0.1956 -0.2696 -0.0176
72895W        W47883  25.501  26.473  13.142 -0.1752  0.0692 -0.0480
72896W        W47884  22.932  13.828  19.884  0.0965  0.2391 -0.1907
72897W        W47885  26.877   3.405  25.929 -0.0038  0.0912 -0.0681
72898W        W47886   9.272  34.881  25.896  0.0404  0.0427 -0.1182
72899W        W47887   4.444  28.559   7.026 -0.0468  0.0583 -0.0125
72900W        W47888  22.701  33.305  14.153  0.0919 -0.0270  0.1639
72901W        W47889  13.000  22.712  17.295 -0.1497  0.1411  0.0316
72902W        W47890   3.898   2.940  24.033 -0.0505 -0.1437 -0.0887
72903W        W47891  28.724  21.454   7.746  0.0046 -0.0144 -0.0760
72904W        W47892  31.353  34.785  18.017 -0.0061  0.1648 -0.0046
72905W        W47893   0.631  32.664  23.096  0.1280 -0.1456  0.1004
72906W        W47894  33.735  29.171   0.010 -0.0874 -0.1921  0.1316
72907W        W47895  34.302  27.820  13.927 -0.0212  0.0247 -0.0782
72908W        W47896   0.699  15.594   1.039 -0.1601  0.0466  0.2684
72909W        W47897  19.575  25.316   4.868  0.0272 -0.1080 -0.0481
72910W        W47898  16.866   4.963   8.296 -0.0007  0.0855 -0.1200
72911W        W47899  10.976   6.627   3.412  0.2032  0.2396 -0.1408
72912W        W47900  21.038   0.199  23.717 -0.2521  0.1345  0.3559
72913W        W47901   9.555  18.554   6.754  0.1057 -0.0652 -0.0554
72914W        W47902   1.065   8.944   1.837  0.2553 -0.3043 -0.2720
72915W        W47903  29.599   6.611  24.637  0.4353 -0.1502  0.5639
72916W        W47904  20.016  23.550  21.712 -0.0879  0.0816 -0.0400
72917W        W47905   7.265  11.510   6.675  0.1626  0.0993  0.1194
72918W        W47906  18.036   0.383   4.780 -0.2591 -0.1704  0.2452
72919W        W47907   3.731  30.411  19.543 -0.0446  0.0016  0.2433
72920W        W47908  24.789  25.921  19.172  0.1074 -0.0572 -0.0309
72921W        W47909   9.748  10.236  20.844  0.3684  0.1280  0.3769
72922W        W47910  27.941  17.196  12.881 -0.1384 -0.1302  0.1458
72923W        W47911   0.916  24.298  22.973 -0.5332  0.2462 -0.2138
72924W        W47912  26.412   8.107  21.615 -0.4725 -0.0115 -0.0713
72925W        W47913  11.136   5.593   1.539  0.2616 -0.0409 -0.0343
72926W        W47914  11.088   8.651   9.256 -0.2344  0.2146  0.0825
72927W        W47915  10.021   0.568  23.831  0.0389 -0.1938  0.3788
72928W        W47916  28.611   4.274  26.176 -0.2235 -0.0229  0.0322
72929W        W47917  29.225  35.271  22.143 -0.2047  0.0305  0.0250
72930W        W47918   4.046   0.167   3.238 -0.2790 -0.1087  0.1192
72931W        W47919   0.273  27.017  21.206  0.1529 -0.0804  0.1878
72932W        W47920  34.996  33.640   0.561 -0.0549 -0.1147  0.0808
72933W        W47921   5.964  14.063   6.678 -0.1642  0.2023  0.1476
72934W        W47922  18.105  12.530  17.794 -0.5203  0.2724  0.0344
72935W        W47923   5.474   4.401   6.547  0.2420  0.1961  0.2915
72936W        W47924  19.507   7.807  17.298 -0.3210 -0.0812 -0.0114
72937W        W47925  14.749   3.044  24.744 -0.0507  0.1156 -0.2322
72938W        W47926   3.199  10.686  24.166 -0.0963  0.1541 -0.1798
72939W        W47927   0.014  19.411  24.046  0.3697  0.2600  0.4033
72940W        W47928   1.637  20.053  13.525 -0.0974 -0.1323  0.0508
72941W        W47929   9.576  30.273   3.059  0.1007 -0.2021 -0.2682
72942W        W47930  24.061  31.899  14.289  0.2455  0.2182  0.0813
72943W        W47931   6.209  21.223  23.359 -0.5263  0.0257 -0.1199
72944W        W47932  17.189  33.922  26.139 -0.1718  0.1926  0.0263
72945W        W47933  25.912  26.002  17.550  0.0005 -0.2442  0.2218
72946W        W47934  11.223   6.835  26.087  0.0895 -0.0051  0.1215
72947W        W47935   7.376  16.497  23.510  0.1256  0.0496  0.2097
72948W        W47936  16.086  29.849   3.077  0.0320 -0.1111  0.1924
72949W        W47937  16.472   1.441   7.978  0.0490  0.0703 -0.0904
72950W        W47938  19.609  26.134  20.311  0.0479  0.0134  0.1693
72951W        W47939  21.028  12.731   0.881  0.0256  0.0332 -0.3212
72952W        W47940   8.091  23.279  25.263  0.2730 -0.1077 -0.0520
72953W        W47941  12.081  16.598   8.905 -0.0597  0.2437 -0.1389
72954W        W47942   6.225  34.474  11.296  0.1482 -0.1486 -0.1074
72955W        W47943  16.386  30.083   7.906  0.1616 -0.2821 -0.0754
72956W        W47944   6.106  30.654   9.194 -0.3457  0.2448 -0.2412
72957W        W47945  34.542  32.525  22.094  0.0005  0.3819 -0.0431
72958W        W47946  11.661  22.494  11.331  0.1330 -0.1727  0.3397
72959W        W47947  35.323  23.306  14.480 -0.1239 -0.5381 -0.1825
72960W        W47948   3.414  33.004   4.655 -0.1261 -0.0469 -0.0889
72961W        W47949   4.391  10.601   0.656 -0.0287  0.1475 -0.2552
72962W        W47950  11.178   5.780   6.154  0.1977 -0.1858  0.0378
72963W        W47951   9.112  19.781   8.977 -0.0148 -0.4070 -0.0594
72964W        W47952   3.441  24.299   4.961 -0.0537  0.1529  0.1890
72965W        W47953  27.630   1.461  13.026 -0.0648  0.2052 -0.1853
72966W        W47954   1.935  30.161  11.250  0.0181  0.3138  0.1555
72967W        W47955  24.501  28.287  17.644  0.0813 -0.1110  0.2467
72968W        W47956  25.032  21.672  21.261 -0.1657  0.0072 -0.0178
72969W        W47957  33.906  23.469  26.219  0.1831  0.1158  0.2446
72970W        W47958  32.621  23.582  25.420  0.2110 -0.2608  0.0244
72971W        W47959  13.739  15.722   9.680  0.4246 -0.0871 -0.2166
72972W        W47960  29.079  12.572   5.229 -0.0416 -0.2702 -0.0386
72973W        W47961   4.460   1.521  18.730  0.0991  0.0916  0.1674
72974W        W47962  18.646  31.262   0.810  0.2456 -0.4942  0.0057
72975W        W47963   9.013  22.177  15.504  0.2425 -0.0402 -0.1461
72976W        W47964  30.391  26.401   2.279  0.1115 -0.1066  0.1165
72977W        W47965   9.183   8.917  19.847  0.2337 -0.1026 -0.3764
72978W        W47966  10.195  34.709  13.878 -0.0003  0.1586 -0.2961
72979W        W47967  15.043   6.747   1.081  0.2516  0.0160 -0.0613
72980W        W47968   1.926  21.796  16.681 -0.1570  0.0915 -0.3562
72981W        W47969  10.682   3.320   4.144  0.1062  0.2081  0.2001
72982W        W47970   1.847  33.962  20.992 -0.0443  0.2704  0.3292
72983W        W47971  12.272  25.880   8.997  0.0737 -0.1935  0.1750
72984W        W47972  12.989  13.138   9.812  0.2666 -0.1644  0.0250
72985W        W47973  15.409  17.499  12.318 -0.1918 -0.3402 -0.0715
72986W        W47974   7.752  17.542  22.950 -0.2335 -0.0412  0.0519
72987W        W47975  25.224  29.041  19.251  0.0910  0.2848 -0.0778
72988W        W47976   9.378  20.702  25.427 -0.2491  0.2512  0.2263
72989W        W47977  13.160  14.922  12.446  0.0386 -0.1099  0.0457
72990W        W47978  29.864  29.065  20.745  0.2519  0.2177  0.0394
72991W        W47979  27.564   7.502  23.718 -0.1103  0.0981 -0.1216
72992W        W47980  19.107  10.577   6.009 -0.2401 -0.1095  0.0762
72993W        W47981  33.003  15.714  17.242  0.0520 -0.1765 -0.2155
72994W        W47982   2.145   8.104  17.133  0.2280 -0.1362  0.4107
72995W        W47983  12.193  27.546   3.824  0.1039  0.1247 -0.1208
72996W        W47984  10.879  20.550   0.269 -0.1804  0.0669 -0.0242
72997W        W47985   8.377  22.168   9.005 -0.0271 -0.1704 -0.0634
72998W        W47986  30.170  33.887  25.708  0.0176 -0.0621  0.0881
72999W        W47987  23.768  13.128  15.235  0.0088 -0.0418  0.1893
73000W        W47988  21.013  34.006   4.553  0.1491 -0.0590  0.2456
73001W        W47989  19.017   1.237   8.517 -0.0828 -0.1979 -0.0455
73002W        W47990  29.674  28.830   4.222 -0.1034  0.1939 -0.0331
73003W        W47991  18.148   3.666   2.844  0.1355  0.1288  0.1577
73004W        W47992  19.966  16.046   8.901 -0.1442 -0.2079  0.0975
73005W        W47993  20.213   7.633   8.791 -0.4748  0.0260 -0.1834
73006W        W47994  31.217  25.134  17.488 -0.1882  0.2191  0.0742
73007W        W47995   2.039  18.425  25.238 -0.0545  0.0067  0.0104
73008W        W47996  30.433  28.265  15.161 -0.1734  0.3070  0.1409
73009W        W47997  34.780  25.079   2.720  0.0521 -0.1074  0.1350
73010W        W47998  34.947  10.529   2.970  0.1508 -0.1280 -0.2894
73011W        W47999  10.930  30.030  17.650 -0.1901  0.0199 -0.0459
73012W        W48000  33.225  10.264  23.503  0.1837 -0.1873 -0.1633
73013W        W48001  20.029  27.012  19.990 -0.0378 -0.2006  0.2240
73014W        W48002  12.097  13.492  21.506 -0.0359 -0.0243  0.0509
73015W        W48003  35.132  15.695  13.485 -0.5157  0.0938 -0.0404
73016W        W48004   1.735  18.417  22.190  0.0622 -0.1295 -0.0067
73017W        W48005  26.966  20.384  19.266 -0.1523 -0.1486 -0.0491
73018W        W48006  31.094  30.196  22.227  0.0062 -0.0562  0.3863
73019W        W48007   5.107  13.143   1.585 -0.1024  0.1028  0.1995
73020W        W48008  15.998   8.032  25.699  0.0569  0.2636  0.1229
73021W        W48009  31.984  18.251  17.797 -0.1813 -0.1303 -0.1228
73022W        W48010  26.069   1.013  24.415  0.2707 -0.2294 -0.2205
73023W        W48011  17.485   8.406   5.565 -0.0017  0.0765  0.0853
73024W        W48012   0.868   4.202  24.159  0.2077  0.0863 -0.0407
73025W        W48013   2.435   9.609   0.982 -0.0736  0.0709  0.0526
73026W        W48014  23.855   2.923  17.039 -0.2791  0.0408 -0.6135
73027W        W48015   2.420  25.807  21.227 -0.3088  0.0271 -0.1611
73028W        W48016   7.577  14.354  24.466  0.0998  0.2291  0.2521
73029W        W48017  26.299  23.897  19.549  0.1502 -0.1706 -0.0620
73030W        W48018  30.368  29.229  13.137 -0.1830 -0.3861  0.1224
73031W        W48019  24.650   1.568   6.448 -0.1793 -0.0710 -0.1337
73032W        W48020   4.777  10.055   5.958 -0.1488 -0.1369 -0.0966
73033W        W48021  16.589   0.552  18.396 -0.0619  0.1340  0.1032
73034W        W48022  23.825  35.048  24.199 -0.2039 -0.0678 -0.0541
73035W        W48023  20.524  31.926  17.290  0.1264  0.1820 -0.0862
73036W        W48024  10.132  27.806   3.431 -0.1170 -0.0051 -0.0120
73037W        W48025   0.986  12.307  25.508  0.3687  0.0725  0.0852
73038W        W48026   7.683  29.919  22.683 -0.3574 -0.2017  0.1790
73039W        W48027  15.133   2.622  16.522 -0.1141 -0.0554  0.1235
73040W        W48028  16.960  28.988  19.647 -0.0138  0.1573  0.1506
73041W        W48029   1.636  13.523  12.429 -0.1458  0.0142 -0.1646
73042W        W48030  28.260  14.186  15.236  0.1484  0.1827 -0.1427
73043W        W48031  11.955   7.368  10.610 -0.0496  0.1274 -0.0804
73044W        W48032  30.054   9.397  22.266 -0.1223  0.1313  0.4138
73045W        W48033   3.160   2.557   4.024 -0.1286 -0.4103  0.2538
73046W        W48034   8.580  31.432  13.863 -0.0650 -0.2308 -0.3412
73047W        W48035  16.083  31.970  25.512  0.1186  0.3064 -0.4773
73048W        W48036  19.046  29.640   3.554  0.1190  0.2563 -0.0532
73049W        W48037  21.822  20.317  22.723 -0.1361  0.4263  0.1887
73050W        W48038  34.623  12.116  17.701  0.0678  0.0052  0.1517
73051W        W48039  27.381  21.046  11.801 -0.3389 -0.2663 -0.0160
73052W        W48040  20.159  28.997   5.726  0.0200 -0.2294 -0.3291
73053W        W48041   6.087   9.628  23.089  0.1218 -0.0511  0.0897
73054W        W48042  11.462   5.566  10.729  0.3207 -0.0788  0.0901
73055W        W48043   3.931   8.480  21.553  0.2759  0.2482  0.1448
73056W        W48044  34.869  18.794   9.682 -0.0612 -0.3013  0.1540
73057W        W48045  30.237   8.541  22.651 -0.1196  0.0939 -0.0263
73058W        W48046  19.123   7.834   0.985 -0.0616 -0.0265 -0.2647
73059W        W48047  11.716   6.198  25.608  0.0466 -0.0732  0.1795
73060W        W48048  35.234  22.765  20.878  0.0842 -0.1229 -0.1879
73061W        W48049  18.597  31.437   9.088 -0.0790  0.1840  0.3881
73062W        W48050   6.411  13.856   9.359 -0.1299  0.0123 -0.2496
73063W        W48051   9.019   9.702   6.130 -0.2788 -0.0823  0.2275
73064W        W48052  31.905   2.648   6.734  0.2941  0.2765 -0.1475
73065W        W48053  25.694  27.124  25.387 -0.1639  0.1545 -0.1931
73066W        W48054  22.803  34.646  17.737  0.3129  0.0519 -0.0115
73067W        W48055  20.730  24.653  21.380 -0.2066  0.0170 -0.0808
73068W        W48056   9.396   3.795   7.408  0.0000  0.0927 -0.5460
73069W        W48057   6.117  31.860   5.837  0.0191 -0.1848  0.1765
73070W        W48058   1.881  32.291  16.999  0.2033 -0.3170 -0.1503
73071W        W48059  27.219  16.317  22.282 -0.1246 -0.2146  0.2486
73072W        W48060  12.842   0.731   3.426  0.1300 -0.1107 -0.2508
73073W        W48061   8.377  30.249  10.891  0.2113  0.0542 -0.0375
73074W        W48062  14.507  14.802  21.401  0.1915 -0.2806  0.0988
73075W        W48063  29.120  27.674  19.897  0.0129  0.0695  0.2873
73076W        W48064   8.222  34.229   3.182 -0.0220  0.1871 -0.3695
73077W        W48065  34.451  14.354   9.558  0.2117  0.1589  0.2736
73078W        W48066  26.775  26.860  13.734 -0.0088  0.0943  0.1099
73079W        W48067   9.706  20.427   7.067  0.0188 -0.1488 -0.1091
73080W        W48068  30.771  15.077  19.802 -0.1549 -0.0813 -0.0784
73081W        W48069  30.323  18.369  18.890 -0.1030  0.1002 -0.0932
73082W        W48070  33.505  21.588  19.846  0.5044  0.0289  0.0033
73083W        W48071  16.823  18.152  12.623  0.0898  0.4397 -0.1164
73084W        W48072  30.944  35.284   0.293  0.0260  0.0029 -0.1221
73085W        W48073  16.650  18.426  19.795  0.2025  0.1189 -0.0511
73086W        W48074  32.746   5.896  21.859 -0.2446 -0.0155 -0.1908
73087W        W48075  13.934  22.383   3.603 -0.3145 -0.2447 -0.3302
73088W        W48076   4.960  18.745  20.715  0.0891  0.0553 -0.1893
73089W        W48077  12.328  31.553   9.933  0.1513 -0.4564  0.1769
73090W        W48078  12.139  26.844   7.936 -0.1901  0.0836  0.0894
73091W        W48079  14.250  31.126   4.133  0.0240 -0.0898  0.1764
73092W        W48080  31.115  33.966  14.959 -0.2421  0.0943  0.4460
73093W        W48081  15.987  14.851   2.078  0.0817 -0.3116  0.0270
73094W        W48082   3.772  10.059   6.735  0.0344 -0.1614 -0.4191
73095W        W48083  14.139   7.058   3.853  0.1206 -0.1692  0.2884
73096W        W48084  22.873   9.145   4.282  0.5534  0.1772  0.2305
73097W        W48085  10.378  13.481  11.461  0.2652  0.0574  0.0238
73098W        W48086  31.387  21.809  19.039  0.0472  0.0606  0.0974
73099W        W48087   3.274  12.745   0.827  0.2574 -0.0166 -0.1384
73100W        W48088  33.949   6.113  16.106 -0.2173  0.1502 -0.2567
73101W        W48089  17.036  10.155  19.072  0.2574  0.1104 -0.0321
73102W        W48090   2.032   1.678  16.138 -0.0664  0.1534 -0.2039
73103W        W48091  19.163   3.896  19.508 -0.4689  0.2019  0.0330
73104W        W48092   7.083   6.852  20.153  0.2983 -0.1376 -0.0687
73105W        W48093  14.578  12.899   1.735  0.2869  0.0188 -0.1350
73106W        W48094  18.897  22.565  23.706  0.1786  0.0594 -0.0323
73107W        W48095   3.689  28.186   5.552 -0.2202  0.0587  0.0964
73108W        W48096   6.822  34.753  25.882 -0.1359 -0.4426  0.1910
73109W        W48097  10.907  32.731  11.951 -0.2829  0.2767 -0.0464
73110W        W48098  22.018  33.153  22.867  0.0336 -0.1180 -0.0170
73111W        W48099  16.370  22.911  14.027 -0.1939  0.0533  0.1973
73112W        W48100  10.625   3.088  25.748  0.0010  0.1603 -0.1268
73113W        W48101  14.356  31.885  25.154 -0.0083 -0.2625 -0.2697
73114W        W48102  12.084  17.643   8.308  0.0183  0.0662  0.1555
73115W        W48103   5.448   8.066  19.381 -0.1880 -0.2220 -0.2996
73116W        W48104   8.587  10.506  23.020  0.1059 -0.0024  0.1710
73117W        W48105  11.611  21.996  25.427  0.0300  0.2893  0.1589
73118W        W48106  12.245  27.503   7.289 -0.2362  0.0574 -0.3364
73119W        W48107  11.922  19.468   0.069  0.0086  0.1242 -0.0754
73120W        W48108  30.372  25.633   9.495 -0.0128 -0.1910  0.0875
73121W        W48109   6.666  17.117   1.978  0.0801  0.0894 -0.3181
73122W        W48110  10.268  25.311   2.133  0.2357 -0.1384 -0.1060
73123W        W48111  17.288  10.540   1.624  0.2556  0.1520  0.2145
73124W        W48112   7.825  25.753  12.027 -0.4107 -0.1817 -0.0944
73125W        W48113  20.104  14.373  20.014 -0.0499  0.1850 -0.1558
73126W        W48114  30.864   3.868  23.776 -0.0289 -0.0021 -0.2083
73127W        W48115   4.405  22.024  20.369 -0.1072  0.2530 -0.4162
73128W        W48116  13.707  10.058   1.238  0.0240  0.1222 -0.2379
73129W        W48117   9.805  20.901  13.911  0.1501  0.2150 -0.1310
73130W        W48118  33.806  13.313  22.615  0.0521  0.0875 -0.1615
73131W        W48119   8.440  31.308   5.444  0.1391  0.0487 -0.0503
73132W        W48120  30.280  25.488  10.037 -0.1966 -0.0536  0.0311
73133W        W48121  18.777  27.188  22.069  0.0630 -0.1444 -0.0184
73134W        W48122   2.569  32.920   3.005  0.0723  0.0411 -0.2221
73135W        W48123  10.585  10.185   5.197  0.2302  0.0617  0.0770
73136W        W48124  12.171  22.338  10.752  0.2616  0.1108 -0.2165
73137W        W48125  13.528  14.817   7.624  0.1462 -0.0426 -0.0811
73138W        W48126  19.010   6.455  18.482 -0.0328 -0.0458 -0.0820
73139W        W48127  24.846  30.883  16.462  0.3714  0.1789 -0.0557
73140W        W48128  14.187  30.147  24.398  0.2206  0.0623  0.1011
73141W        W48129  10.348  22.244  23.445 -0.0774  0.1456 -0.3530
73142W        W48130  34.950  30.175  17.252 -0.1612 -0.2260 -0.2249
73143W        W48131   8.663  10.101  14.249  0.1133  0.2223  0.0853
73144W        W48132   6.274   9.920   1.145 -0.1471  0.1418  0.0070
73145W        W48133   0.365  28.222   8.259 -0.2232  0.1219  0.2469
73146W        W48134   2.526   1.299   9.940 -0.1023  0.1108  0.1930
73147W        W48135  21.072  21.065  25.601  0.2416 -0.1797 -0.0216
73148W        W48136   6.957   8.756  20.813  0.0727  0.0955 -0.0655
73149W        W48137  27.823  27.336  23.953 -0.1375 -0.1535 -0.2028
73150W        W48138   8.291  21.821  10.384  0.2501  0.3550 -0.0333
73151W        W48139  21.099  33.321  23.140  0.3451  0.0204 -0.0988
73152W        W48140  25.189  31.497  17.661  0.2135 -0.0060  0.1037
73153W        W48141   8.532  12.328  23.426  0.0280 -0.2941 -0.0794
73154W        W48142  28.785  14.455  21.028  0.1495  0.1017  0.0953
73155W        W48143   8.329   7.907   4.754  0.0428 -0.0679  0.3426
73156W        W48144  27.852   0.990  22.132  0.0328  0.2914  0.0144
73157W        W48145   1.348  18.211  17.092 -0.0392 -0.1218 -0.2857
73158W        W48146  32.512  24.769   0.097  0.2076 -0.3459 -0.4877
73159W        W48147  31.613  32.696   5.610  0.0531  0.0098  0.1646
73160W        W48148  33.535  13.075  19.162 -0.0321 -0.3310 -0.2241
73161W        W48149   3.196  27.884   0.552  0.2124  0.2896  0.2218
73162W        W48150  35.184   7.570  17.676 -0.3929 -0.0159 -0.3233
73163W        W48151  14.287  14.339   7.055 -0.1217 -0.0366 -0.1253
73164W        W48152  31.752  16.303   7.272  0.0012 -0.1133  0.1007
73165W        W48153   5.105  26.830   3.207 -0.0554  0.1488  0.1240
73166W        W48154   1.894  23.002  22.543  0.0158  0.2914  0.2309
73167W        W48155  16.341  15.830   9.429  0.3459  0.2811 -0.0146
73168W        W48156  20.271  23.166   5.550 -0.1129 -0.2286  0.2264
73169W        W48157   7.874  33.069   9.699  0.1996  0.1937  0.4265
73170W        W48158  19.158  13.533   1.541  0.1002  0.3034  0.0388
73171W        W48159  28.130  24.608  17.171 -0.0327 -0.3468  0.0373
73172W        W48160   9.707  19.701  23.955  0.0182 -0.1131 -0.1128
73173W        W48161  19.970  28.125  17.452  0.1327  0.0820  0.1423
73174W        W48162  26.503  15.124  20.774  0.0156 -0.1812  0.2195
73175W        W48163   4.321  15.448  24.493 -0.2000 -0.0730 -0.1781
73176W        W48164   7.253  12.416  25.886 -0.1062  0.0019  0.2660
73177W        W48165  21.098   0.014  17.083 -0.1419  0.1219  0.2613
73178W        W48166   9.609  19.941   7.507  0.0980  0.3154 -0.1916
73179W        W48167  34.236  14.962  24.011  0.0677 -0.2265  0.1652
73180W        W48168  21.323  11.664  15.887 -0.1266 -0.0383  0.0529
73181W        W48169   9.130  32.239  22.295  0.1051 -0.0370  0.3266
73182W        W48170   8.092  11.518   2.225 -0.0640 -0.1259  0.3747
73183W        W48171  17.379   6.642  19.043 -0.1989 -0.2169  0.0820
73184W        W48172  26.772  24.897  15.517 -0.0765  0.0676  0.0474
73185W        W48173  23.427  18.435  24.881 -0.2312 -0.0086  0.0879
73186W        W48174   1.023  22.526  21.498 -0.0448 -0.1461  0.3234
73187W        W48175   2.342  31.927  18.605  0.0827 -0.0543  0.3017
73188W        W48176  18.326  17.460   3.122 -0.2558  0.1577 -0.0609
73189W        W48177  11.536   5.239  25.163 -0.1362  0.0508  0.0183
73190W        W48178  15.803   5.917  25.346 -0.0216  0.0303  0.1465
73191W        W48179  14.600   4.972   5.536  0.0243 -0.2242 -0.0549
73192W        W48180  14.352   1.607   5.961  0.0392  0.0739  0.2434
73193W        W48181  30.681   3.329  12.955 -0.0344  0.4051 -0.0165
73194W        W48182  21.532  29.596  14.121 -0.0552  0.0421 -0.2305
73195W        W48183  35.349   8.681  12.501 -0.3954  0.2583  0.0572
73196W        W48184   4.140  18.797  25.930 -0.1892  0.0041 -0.2564
73197W        W48185  10.879  14.925  23.346 -0.2214 -0.2147  0.2511
73198W        W48186   3.663   6.132  22.306 -0.1134 -0.0383 -0.0366
73199W        W48187   4.886  17.302   2.431  0.1975 -0.1522 -0.0022
73200W        W48188  34.149  31.956   4.211 -0.1456 -0.4129  0.1233
73201W        W48189  34.689  18.403  18.888 -0.3212 -0.2741  0.1355
73202W        W48190  33.914   5.797   5.348  0.0416 -0.2678 -0.0207
73203W        W48191  27.747  11.693  18.213  0.1571 -0.2945  0.0944
73204W        W48192  25.158  22.696  19.170  0.0414 -0.1111  0.3068
73205W        W48193  19.388  20.907   1.250  0.2523 -0.1464  0.1871
73206W        W48194   8.549  16.636  10.355  0.0929  0.0741 -0.1349
73207W        W48195   8.843  32.597  12.728 -0.1768  0.0358  0.2662
73208W        W48196   0.505  10.491  13.923 -0.2102 -0.1901  0.1939
73209W        W48197   8.353   0.912  11.792  0.1792  0.3343 -0.0522
73210W        W48198  34.812   5.639  25.611 -0.1268  0.1716  0.2867
73211W        W48199  15.413  33.382   4.011  0.0361  0.2582 -0.3656
73212W        W48200   4.157  26.439  20.326  0.1038 -0.1915  0.1722
73213W        W48201  28.294   8.848   9.675 -0.1009 -0.1243  0.1346
73214W        W48202   5.349  25.001   1.320  0.1140 -0.1724 -0.0230
73215W        W48203  32.571  34.543  19.450  0.0010 -0.0558  0.2016
73216W        W48204  30.315  23.405  23.976  0.0223  0.0985  0.0173
73217W        W48205  10.228  13.072   8.234 -0.3838 -0.0340 -0.1624
73218W        W48206  24.606   2.193  16.573 -0.2618  0.0255 -0.0700
73219W        W48207  18.137  14.753   9.679 -0.2009 -0.5094 -0.0177
73220W        W48208  21.491  22.389   2.644 -0.0215  0.1954 -0.2497
73221W        W48209  16.849  24.545   9.277 -0.0635  0.0536  0.1024
73222W        W48210  16.546  16.379  19.790  0.1145  0.2638 -0.0666
73223W        W48211  33.598  14.603  20.749 -0.1329  0.1950 -0.1896
73224W        W48212  30.596  23.500   5.904  0.1036 -0.1757  0.2548
73225W        W48213  29.089  19.207  13.435 -0.1353 -0.0978 -0.3623
73226W        W48214  17.091  15.762   5.513 -0.1118  0.4387  0.0477
73227W        W48215  11.018  10.740   0.127 -0.3973 -0.3026 -0.0209
73228W        W48216  23.357  13.377  19.293 -0.4029 -0.0299  0.1187
73229W        W48217  30.715  29.955  16.855  0.2521  0.0391  0.0352
73230W        W48218  25.180  27.440  14.807  0.1573  0.1217 -0.1611
73231W        W48219  17.675   5.058  24.405  0.0738 -0.2682 -0.0467
73232W        W48220  30.578   4.492   0.165 -0.0057 -0.0760  0.2193
73233W        W48221  26.767   7.511   0.292  0.1246  0.0183 -0.1569
73234W        W48222  21.085  15.538   2.000  0.2375  0.0054 -0.0881
73235W        W48223  18.877  34.730  22.243  0.0582 -0.2784  0.1357
73236W        W48224  25.147  17.862   8.092  0.0688 -0.0564  0.1502
73237W        W48225  21.327  34.157  17.940 -0.0886 -0.1507 -0.0478
73238W        W48226  28.254   3.638   1.567 -0.0214 -0.1837 -0.1703
73239W        W48227  29.870  24.179   6.079  0.0469 -0.0624 -0.0455
73240W        W48228   1.149   0.159  16.422  0.1154  0.0215  0.2039
73241W        W48229  22.944   3.587   1.840 -0.1474 -0.0597 -0.0471
73242W        W48230   4.545  28.405   1.553  0.1999 -0.1126 -0.0687
73243W        W48231   7.834   5.514  19.306 -0.2394  0.1760  0.0318
73244W        W48232  13.229  13.409   0.684  0.2306 -0.0869 -0.0304
73245W        W48233  21.186  34.475  16.093 -0.0496  0.0591 -0.1759
73246W        W48234  19.814  35.180   9.215  0.0301 -0.2706 -0.0652
73247W        W48235  15.462  27.863   6.001 -0.2232 -0.1037  0.3079
73248W        W48236  24.774  16.418   0.084 -0.3123  0.4483  0.2222
73249W        W48237  30.691  15.416   0.028  0.2687  0.2116  0.0836
73250W        W48238  17.517  15.274  22.768 -0.1677  0.1479  0.0145
73251W        W48239  13.845   8.197  23.763  0.4190 -0.1694 -0.0696
73252W        W48240  30.803   7.285  11.953  0.1741 -0.1092 -0.1219
73253W        W48241   8.530   6.242   9.008  0.0976  0.0853  0.1386
73254W        W48242  24.584  10.360  21.766  0.0704  0.2768  0.1707
73255W        W48243  33.151  10.400   0.093 -0.3003 -0.0693 -0.1146
73256W        W48244  21.259   1.089  14.758 -0.0002 -0.2828 -0.1899
73257W        W48245   0.264  32.643   8.694  0.1050  0.1139  0.1262
73258W        W48246   6.372  22.623   5.904  0.2831 -0.0545 -0.0366
73259W        W48247   4.396  32.190  11.268 -0.2637 -0.2536 -0.0090
73260W        W48248  33.162  31.251   0.851  0.0877 -0.2917 -0.1713
73261W        W48249  22.592  11.210   4.098  0.1066  0.3157  0.0965
73262W        W48250   3.588  33.286   5.081 -0.3410  0.3193  0.1125
73263W        W48251  10.175  17.367   8.116 -0.0514  0.2380 -0.3253
73264W        W48252  13.050  27.379  23.073 -0.1390 -0.3262 -0.2589
73265W        W48253  25.289  33.969   5.618 -0.0633 -0.3514  0.0363
73266W        W48254  21.776   8.700   4.882  0.1748 -0.1833 -0.3461
73267W        W48255  31.855  29.023  18.920 -0.2828  0.0936 -0.2611
73268W        W48256  20.033   3.018   0.023 -0.1452  0.1321 -0.1179
73269W        W48257   4.102   3.327  18.152  0.2162  0.3115 -0.0128
73270W        W48258   9.879  26.020  11.299 -0.0493 -0.0499 -0.0038
73271W        W48259  21.561   3.584   3.440  0.0505 -0.1345  0.1740
73272W        W48260  27.372  30.488  10.753  0.0821 -0.0637  0.0094
73273W        W48261   9.031   1.470   9.747 -0.2447  0.2054  0.3775
73274W        W48262  28.162   4.155   0.229 -0.0053  0.2618  0.5399
73275W        W48263   7.854  12.231  18.457  0.3413  0.0414  0.1089
73276W        W48264  30.095   0.263  21.856 -0.0270 -0.2697 -0.2441
73277W        W48265   8.202  13.496   7.911  0.0352  0.1484 -0.2452
73278W        W48266  23.628  22.888  13.972  0.0441 -0.0483 -0.1656
73279W        W48267  10.842   0.888  23.104  0.0722 -0.2005 -0.1180
73280W        W48268  31.228  23.763  22.574 -0.0711 -0.0440 -0.2051
73281W        W48269  24.148   5.993  22.567 -0.4063  0.2371 -0.1315
73282W        W48270   4.655  31.406   2.689  0.1895 -0.0342 -0.1699
73283W        W48271  27.215  31.702   3.169 -0.0204 -0.1633  0.3181
73284W        W48272   3.836   0.961   3.222  0.2491  0.1308 -0.0111
73285W        W48273  14.440  11.659   3.213 -0.2333 -0.1731 -0.0867
73286W        W48274  31.257  25.323  18.919  0.3868 -0.0731  0.1223
73287W        W48275  25.005   1.143  24.626 -0.0624  0.0082  0.0765
73288W        W48276   1.481   4.321  14.550 -0.4538 -0.1580 -0.5058
73289W        W48277  15.198   8.007  26.070 -0.3721 -0.2396 -0.0231
73290W        W48278  30.805   0.530   4.202 -0.1031 -0.0852  0.3698
73291W        W48279  24.526  32.904  15.945  0.2916  0.0906 -0.2134
73292W        W48280  19.154  32.576  18.501 -0.0322 -0.0029 -0.0102
73293W        W48281   1.618   1.745  21.311  0.2720  0.2773 -0.0465
73294W        W48282   7.193  30.111  22.567  0.0596  0.0409  0.0845
73295W        W48283  20.019  34.887  19.718  0.0338 -0.4134  0.0834
73296W        W48284   7.043  25.662  23.124 -0.1104  0.1007  0.0972
73297W        W48285   2.922  27.186   2.737  0.1467 -0.2171 -0.1750
73298W        W48286  22.733  31.151  13.326  0.0299 -0.0327 -0.0893
73299W        W48287  32.124  25.791   1.366 -0.1518 -0.2694  0.3526
73300W        W48288  25.970  15.263  11.782 -0.0342  0.1582  0.0352
73301W        W48289  28.249  19.140  10.090  0.0221 -0.0306 -0.4996
73302W        W48290   6.669   3.030  12.928  0.0563 -0.4438  0.1635
73303W        W48291  31.042  28.927  10.118 -0.1434  0.2142 -0.0891
73304W        W48292  21.645   3.063  23.846 -0.0836 -0.2299  0.0384
73305W        W48293   6.260   3.279  19.232 -0.1350 -0.4052 -0.2125
73306W        W48294  20.245   7.911   7.549 -0.0526 -0.3312 -0.3973
73307W        W48295   5.069  32.973  25.222 -0.0450  0.0547 -0.0991
73308W        W48296  14.351  11.837  21.827  0.0650  0.4088 -0.0264
73309W        W48297  29.141  28.034   3.078  0.0607  0.2732 -0.0629
73310W        W48298   4.539   6.836  18.506  0.1807  0.0569  0.0620
73311W        W48299  22.047  11.109  19.656  0.0371 -0.2342  0.2589
73312W        W48300  28.198   4.296   0.687  0.1091  0.0672  0.3514
73313W        W48301  13.166  31.152   3.437  0.1968 -0.1091  0.1612
73314W        W48302   7.684   9.992  23.482  0.0940 -0.1261 -0.0454
73315W        W48303  22.714  19.363  22.073  0.1996  0.2098  0.0736
73316W        W48304   1.677  23.255  18.499 -0.1105 -0.2286  0.2029
73317W        W48305  20.901  16.257  24.451 -0.1839 -0.3164  0.1394
73318W        W48306  33.517  30.863  13.767 -0.1008  0.0347 -0.1160
73319W        W48307   3.608  23.150   0.889  0.0408  0.1007 -0.4288
73320W        W48308   2.164   5.137  13.622 -0.0443  0.3210 -0.0525
73321W        W48309  22.313  31.252   6.136 -0.2160  0.1342 -0.0231
73322W        W48310  20.041  25.215   6.468  0.0612 -0.0527 -0.2041
73323W        W48311  20.015  22.568  10.029 -0.1508  0.2277 -0.1047
73324W        W48312  22.194   3.793   7.425 -0.2704  0.1095 -0.1466
73325W        W48313  19.201  19.895   6.607 -0.1183 -0.0744  0.0019
73326W        W48314  30.138  17.198   5.910 -0.0001  0.1259  0.0423
73327W        W48315  27.036  25.603  15.083 -0.3648  0.3099 -0.2630
73328W        W48316   8.245  35.222  22.213  0.0744  0.0903 -0.1795
73329W        W48317  32.748  19.544   4.731  0.2031 -0.0872  0.5094
73330W        W48318  27.915  23.312  25.946  0.2588 -0.0067  0.0248
73331W        W48319  22.537  23.785  20.567 -0.3623  0.0540 -0.2129
73332W        W48320   9.327   7.634  25.260 -0.3514  0.0655  0.0379
73333W        W48321  26.722   6.801  15.685  0.4924 -0.2100 -0.1969
73334W        W48322  19.143   6.008   8.936  0.0961  0.0824 -0.0107
73335W        W48323  32.459  17.720  22.501 -0.0182  0.2371 -0.0458
73336W        W48324   6.144  19.735  22.195 -0.2723  0.0885  0.1032
73337W        W48325  16.161  24.569  24.820 -0.0019  0.0262 -0.3025
73338W        W48326  13.348  17.851  12.392  0.2874 -0.0234  0.1292
73339W        W48327  26.918   9.241  20.535  0.1970  0.1725  0.3297
73340W        W48328  23.727  22.900   0.299 -0.0355 -0.6503  0.3258
73341W        W48329  21.077  30.996  23.016  0.0261  0.1481  0.2232
73342W        W48330  29.530  19.693  20.656  0.4011  0.1812  0.2744
73343W        W48331  22.174   5.824   1.472 -0.0296 -0.0658 -0.0455
73344W        W48332  12.517  24.179  12.606  0.0665  0.1410 -0.1132
73345W        W48333   3.437  15.470   0.708 -0.0562  0.1181  0.2058
73346W        W48334  27.177   0.699   6.112 -0.1942 -0.1382  0.0242
73347W        W48335  32.370  18.888  20.912 -0.1194  0.0300 -0.0203
73348W        W48336   7.417   1.790  20.258  0.0542  0.2551  0.1030
73349W        W48337   1.528   0.730   6.534 -0.1586 -0.6307  0.0082
73350W        W48338  28.662  21.984  17.451 -0.0460 -0.0418 -0.0598
73351W        W48339  28.284   0.019   3.685  0.0730 -0.1104 -0.0297
73352W        W48340   9.055   2.370  19.846  0.2451  0.0354 -0.3734
73353W        W48341  10.307  31.905  26.226 -0.1689 -0.0014  0.1337
73354W        W48342  19.716  10.097  18.503  0.0479 -0.3886 -0.1316
73355W        W48343  28.422  13.858  13.901  0.1411  0.1937  0.4550
73356W        W48344  24.251   0.221   0.948 -0.0106  0.0873 -0.1215
73357W        W48345   5.782   6.827  23.438  0.0982  0.2976  0.1426
73358W        W48346   5.352   9.462  22.202  0.3923 -0.1213  0.0302
73359W        W48347  29.794  27.023  20.684 -0.0827 -0.3275  0.1442
73360W        W48348  30.754  24.619  25.124 -0.0395 -0.3444  0.0234
73361W        W48349  20.586  18.332  17.521  0.1783 -0.4516 -0.0064
73362W        W48350  25.124  30.188   4.982 -0.0281  0.4664 -0.0189
73363W        W48351  29.141   3.605  22.324  0.2834  0.2036 -0.0882
73364W        W48352  14.368   6.293   0.821  0.0964  0.3129  0.2400
73365W        W48353   4.862  17.699  25.004 -0.0350  0.0639  0.1435
73366W        W48354  12.581  29.630   6.656  0.1495 -0.2509 -0.0228
73367W        W48355   4.025  10.919  20.802 -0.3338 -0.0559 -0.2799
73368W        W48356  20.592  12.850  22.652  0.1236 -0.1673 -0.0072
73369W        W48357  21.264  10.750   4.610  0.1124  0.4460  0.1840
73370W        W48358  25.429  23.897  20.553 -0.0499  0.0415  0.1856
73371W        W48359  27.489  18.962  18.187 -0.2148 -0.0649 -0.2886
73372W        W48360  20.516  28.759  23.086  0.0229  0.1138  0.1301
73373W        W48361  27.795  31.940  11.220  0.3728  0.1428  0.0223
73374W        W48362   7.404  31.656  12.495  0.2062  0.1432 -0.2200
73375W        W48363  28.563  21.939  12.250  0.1598 -0.1446  0.1547
73376W        W48364  13.570   3.129   6.260 -0.2391 -0.2506  0.2263
73377W        W48365   7.671  33.574   4.925  0.0925 -0.2116 -0.1296
73378W        W48366  19.546  25.726   1.951  0.1565  0.0682  0.2148
73379W        W48367  20.992  20.543  17.517  0.1267 -0.2125  0.1193
73380W        W48368   4.866  19.967   1.120  0.0591 -0.1125  0.0108
73381W        W48369  29.715  14.057  25.823  0.3592 -0.0924  0.2134
73382W        W48370  22.403  24.883  15.359  0.0099 -0.3755  0.1419
73383W        W48371   0.739  25.827   2.390 -0.4079  0.1682 -0.1908
73384W        W48372   0.489   5.943   2.003 -0.0749 -0.3865 -0.1002
73385W        W48373   6.366   0.531   8.824 -0.0689  0.0973 -0.0218
73386W        W48374  31.199  18.209  11.532 -0.2541  0.0776  0.2987
73387W        W48375   3.642  18.859  14.308  0.0354 -0.1464  0.1701
73388W        W48376  17.878   3.736  19.600  0.0835 -0.0254 -0.0184
73389W        W48377  12.230  17.645  24.347 -0.1696 -0.1745 -0.2899
73390W        W48378   1.759  29.478  21.277 -0.3756  0.3925 -0.0300
73391W        W48379  23.667  33.331  14.442  0.0313 -0.1616 -0.1825
73392W        W48380  16.027   9.190   9.349  0.2112  0.1528  0.1175
73393W        W48381  26.618   3.779  20.991  0.5291 -0.5027 -0.1536
73394W        W48382  30.766   9.317  13.980 -0.0067  0.0256  0.3222
73395W        W48383   3.356  20.043  21.277  0.0452  0.0837  0.0469
73396W        W48384  19.863  22.202  22.092  0.1897  0.2031 -0.0570
73397W        W48385  23.269  25.256  18.445  0.2061 -0.4057 -0.0409
73398W        W48386  23.773  31.305  25.973 -0.3173 -0.2904 -0.0901
73399W        W48387  13.634  30.131  10.211 -0.1171  0.1802 -0.0803
73400W        W48388   6.142   0.182  22.663  0.1281  0.3970 -0.3367
73401W        W48389   2.228  11.785   0.756 -0.1460 -0.2230  0.1806
73402W        W48390  30.124  13.993  23.510 -0.1763 -0.2067 -0.0331
73403W        W48391  16.248   1.583   3.464  0.1399 -0.2002  0.0476
73404W        W48392  31.865  30.276  12.344 -0.7090  0.1928 -0.3879
73405W        W48393   1.001  34.356   8.335  0.1621 -0.1667 -0.2640
73406W        W48394   1.698   3.519  19.963 -0.0240  0.2010 -0.0030
73407W        W48395  29.766   2.264   4.517 -0.1918 -0.0810 -0.0807
73408W        W48396  31.704  33.638  17.960 -0.0475 -0.0344  0.0377
73409W        W48397  14.748  18.029  26.200 -0.1569 -0.2556  0.1357
73410W        W48398  13.783  11.760  21.745  0.1413  0.0587  0.1225
73411W        W48399   8.204  29.700  10.182 -0.3134  0.0672  0.4490
73412W        W48400  20.229  27.752  25.068 -0.0410  0.1415 -0.1924
73413W        W48401  26.524  27.622  21.589 -0.2726  0.0591 -0.3186
73414W        W48402  21.531  29.189  20.914  0.0426 -0.0866 -0.1203
73415W        W48403  19.131   5.713  21.774  0.2202 -0.1102  0.2441
73416W        W48404  22.523  21.523  22.046 -0.4487 -0.1007  0.0268
73417W        W48405   4.294   0.814   1.586  0.1840  0.3514 -0.0670
73418W        W48406  11.429  35.327  21.385 -0.0523  0.3072  0.1840
73419W        W48407   1.394  34.955  23.802 -0.0552 -0.1782  0.1340
73420W        W48408   5.728   5.632   4.092 -0.1938  0.0985 -0.3485
73421W        W48409  21.433   0.628   2.521 -0.0876 -0.2821 -0.0482
73422W        W48410  30.015  13.772  13.171 -0.1408  0.1377 -0.2916
73423W        W48411  19.477  14.678  19.453 -0.0388  0.0533  0.1227
73424W        W48412   3.689  19.869   0.067  0.1488  0.1304  0.0443
73425W        W48413  10.870  14.280  11.714  0.2010  0.1106  0.0161
73426W        W48414  21.360  17.646  20.201  0.0154  0.3269 -0.1543
73427W        W48415  33.488  14.429   5.533 -0.1420 -0.1365 -0.0352
73428W        W48416  11.525  26.166  25.600  0.3162 -0.0032  0.5782
73429W        W48417  20.483  28.605   4.464  0.0153  0.0114  0.3439
73430W        W48418  19.276   6.206   4.814  0.3275  0.0719 -0.1499
73431W        W48419   8.853  31.215   4.273 -0.1758  0.2364 -0.3062
73432W        W48420  33.173  32.238   5.316  0.1526 -0.1120  0.1619
73433W        W48421  14.883   6.725  12.778  0.0844  0.1716  0.0651
73434W        W48422  18.550  26.250  25.714 -0.1330  0.0271 -0.0318
73435W        W48423  33.003   0.528   5.462 -0.1692  0.1505 -0.0002
73436W        W48424  20.355  34.525  18.903 -0.3479  0.0262 -0.1947
73437W        W48425  18.960  12.989  25.380 -0.2466  0.0266  0.0082
73438W        W48426   4.881  32.784   6.299 -0.2459 -0.4214  0.0938
73439W        W48427  11.265   8.543  20.323 -0.1692  0.1494  0.0178
73440W        W48428  20.036   4.329  25.791 -0.0913 -0.0980 -0.2575
73441W        W48429   8.358  16.681  20.170 -0.0889  0.0492 -0.1542
73442W        W48430  16.138  21.711  26.034 -0.3703  0.1665  0.0063
73443W        W48431  20.158  16.955  24.413 -0.0087  0.1206  0.1145
73444W        W48432  22.981  25.692  20.295 -0.0584 -0.4177  0.2270
73445W        W48433  34.167  19.151  18.304  0.0861  0.1804 -0.1066
73446W        W48434   4.893   1.927   4.176  0.3078  0.1701  0.0677
73447W        W48435  14.938  14.345  14.608 -0.0842  0.0893  0.0952
73448W        W48436  23.655  24.491  17.816 -0.1457 -0.1781 -0.1120
73449W        W48437  11.486  14.596  21.844 -0.2222 -0.1522 -0.0646
73450W        W48438  16.292   1.886   3.884  0.1493 -0.1681  0.0645
73451W        W48439  13.536  20.685  23.844  0.1380 -0.1303 -0.2868
73452W        W48440   9.179   2.122  11.828  0.0508 -0.0354  0.0148
73453W        W48441  11.373   2.041  23.998  0.0654  0.1419 -0.0632
73454W        W48442  34.468  25.659  25.585 -0.1205  0.0780 -0.1206
73455W        W48443  11.993  26.563   0.420 -0.3130 -0.2479 -0.1476
73456W        W48444  19.495   9.693   2.483 -0.2929  0.0749 -0.0881
73457W        W48445  20.322  11.719   1.111 -0.0644  0.2828 -0.1214
73458W        W48446   4.023  14.946  19.764 -0.1967 -0.2017 -0.1351
73459W        W48447  25.296  33.172  16.603  0.0417 -0.1981  0.1929
73460W        W48448  12.749  20.120  21.552  0.1207  0.2656  0.2311
73461W        W48449  16.781  21.100  20.727 -0.0868 -0.0626 -0.2090
73462W        W48450   0.921   6.832   0.876  0.0699 -0.0779  0.0083
73463W        W48451  28.337  19.680   5.906 -0.1967  0.0549 -0.0626
73464W        W48452  30.158   0.585  11.776 -0.1531  0.0162  0.0426
73465W        W48453  32.377  12.974   6.808  0.1818 -0.1212 -0.2605
73466W        W48454  10.065  25.949  16.588  0.0524 -0.4233 -0.0506
73467W        W48455  13.466   2.959   0.700 -0.2052  0.0268 -0.1779
73468W        W48456  26.113  15.173  14.334  0.0440  0.3830 -0.3405
73469W        W48457  32.442   8.726   0.082 -0.2734 -0.0811 -0.1014
73470W        W48458  25.514  22.084  25.648 -0.0033  0.1532  0.3038
73471W        W48459  17.728  26.452  10.966 -0.0734 -0.3384 -0.2725
73472W        W48460  20.886  10.011   2.454 -0.1156  0.0943 -0.0958
73473W        W48461  14.793  18.637  26.235  0.1421  0.0870  0.0213
73474W        W48462   9.066   0.546  15.932  0.1017  0.1158 -0.0038
73475W        W48463  18.748  19.054  11.794 -0.0381  0.3386  0.2938
73476W        W48464  18.493  13.620  23.650  0.0321 -0.1184  0.2636
73477W        W48465  28.189  13.120   0.603  0.0476 -0.0420  0.4200
73478W        W48466  20.320   0.506   8.821  0.3422 -0.0903 -0.0685
73479W        W48467  10.623  25.766  10.180 -0.3216  0.2267  0.0466
73480W        W48468  29.664  20.202  14.609  0.0731 -0.1418 -0.0238
73481W        W48469   8.828  15.375   5.801  0.2080  0.1786  0.0791
73482W        W48470  28.385   9.340   9.754 -0.0685  0.3137  0.0209
73483W        W48471  20.632  30.873   6.856  0.1279  0.1765 -0.4136
73484W        W48472  29.614  23.358   0.102 -0.1612 -0.3058 -0.1853
73485W        W48473  12.076  22.988  23.481 -0.3871  0.2133 -0.3280
73486W        W48474  18.097  29.756   3.967  0.1913  0.3177  0.0955
73487W        W48475   8.713  21.375  25.430  0.3421 -0.0665  0.2792
73488W        W48476  32.200  20.004   8.549  0.0167 -0.1886 -0.0404
73489W        W48477  30.716  26.597  18.383  0.0594 -0.0575  0.0054
73490W        W48478  18.681  12.700  19.842 -0.0970  0.3127 -0.0051
73491W        W48479  25.095  27.684  13.881  0.0325 -0.0194  0.0128
73492W        W48480   8.276  29.021  10.925 -0.0569 -0.0180 -0.0097
73493W        W48481   3.249   7.792  15.216  0.0782 -0.0474  0.1870
73494W        W48482  10.427  14.041   4.082  0.1456  0.2312  0.2283
73495W        W48483   5.481  30.194  23.016 -0.3816 -0.0729  0.1649
73496W        W48484   8.069  32.918   4.334 -0.1365 -0.4270  0.0239
73497W        W48485  24.025   0.935  17.077 -0.0035 -0.1607  0.2156
73498W        W48486  25.551  30.979  19.290 -0.0029 -0.4279 -0.0595
73499W        W48487  30.746  12.749  14.984  0.0370  0.1479  0.1519
73500W        W48488  29.058  23.519  25.996  0.6364  0.1403 -0.1716
73501W        W48489  12.959  27.628   9.684 -0.0570 -0.1446  0.2033
73502W        W48490   3.041   0.112   8.795  0.1304 -0.1476  0.1383
73503W        W48491   3.832  29.468   9.407  0.0791 -0.0886  0.0888
73504W        W48492  30.767   2.411  13.377 -0.1160 -0.0750 -0.0184
73505W        W48493  17.744  29.491   9.886  0.1436 -0.3779 -0.0341
73506W        W48494   0.769  33.245   7.672  0.0004 -0.1311  0.0916
73507W        W48495  16.916  30.453   0.692 -0.0425 -0.2905 -0.0205
73508W        W48496  30.903   9.642   2.013 -0.0569  0.1509 -0.0728
73509W        W48497   9.290  22.772  16.406  0.0049  0.2771 -0.0163
73510W        W48498  35.037   3.374  13.962 -0.0081  0.2448 -0.3873
73511W        W48499  13.114  10.233  25.859 -0.1478  0.1321 -0.0489
73512W        W48500   7.747  25.568  11.570 -0.3084  0.0914  0.2332
73513W        W48501   1.860  11.212  17.717  0.0396 -0.0886 -0.1223
73514W        W48502  12.722  19.045   7.343 -0.1811 -0.3441 -0.2095
73515W        W48503   6.519   1.843   9.027  0.0496  0.0116 -0.0497
73516W        W48504  17.290  34.805  21.029  0.0730  0.4101 -0.0163
73517W        W48505   7.461   7.193  18.607  0.1744 -0.1356  0.1016
73518W        W48506  30.054  10.979  23.395 -0.1288  0.1467  0.0582
73519W        W48507  33.105   9.484  13.968  0.4640  0.3551 -0.2332
73520W        W48508   8.141  33.549   2.593  0.1486 -0.1191  0.2460
73521W        W48509  27.166  18.991  23.297 -0.1577  0.0980 -0.1015
73522W        W48510   8.418   9.648  10.332 -0.4503  0.1418  0.1462
73523W        W48511   7.984  16.045   2.430  0.0458  0.0859  0.0024
73524W        W48512  14.561   5.686   3.137  0.2547  0.1060 -0.3464
73525W        W48513   2.402   5.936   7.658 -0.1146 -0.4398 -0.2267
73526W        W48514  29.625   8.037  18.282 -0.3748  0.2232 -0.0250
73527W        W48515  16.831  22.719  22.046  0.1755  0.0090 -0.0399
73528W        W48516  27.456  15.680  26.101  0.0472 -0.1316  0.0926
73529W        W48517  24.573   9.491  16.327  0.1449  0.2698 -0.2694
73530W        W48518   7.307   9.783   3.294 -0.2560 -0.2703  0.1223
73531W        W48519   6.982   3.288  11.895  0.1528 -0.0821 -0.0643
73532W        W48520  24.134  10.393  18.213  0.0484  0.1500  0.1642
73533W        W48521  14.886   4.785   3.715 -0.0867  0.1405  0.0033
73534W        W48522  33.083  26.664  19.902  0.1016 -0.2136 -0.1372
73535W        W48523  16.884  13.610   1.609 -0.2835  0.4044  0.0463
73536W        W48524  26.111  26.532  19.417  0.0230  0.2412 -0.1203
73537W        W48525  16.769   5.756  12.957 -0.1120 -0.0663  0.0960
73538W        W48526  24.442  12.461  20.579  0.2254 -0.1411  0.4937
73539W        W48527  21.932  26.309  18.895  0.0328  0.0077  0.2097
73540W        W48528  20.498  34.033  16.222 -0.1570  0.0439  0.2026
73541W        W48529  19.972   4.227   1.547 -0.0864  0.0035  0.0333
73542W        W48530  31.402  24.153  13.779 -0.2791  0.2410 -0.2626
73543W        W48531  24.901  33.928   2.921  0.1548 -0.2096  0.2032
73544W        W48532  21.246  27.201   2.704  0.2180 -0.0196 -0.0936
73545W        W48533  32.224  26.276   9.755  0.0045 -0.0646  0.2199
73546W        W48534  28.886  27.530  11.670 -0.1648  0.0473  0.2094
73547W        W48535  18.671   6.212   2.317 -0.1837 -0.1276  0.0251
73548W        W48536  22.637  33.569  19.648  0.0037 -0.1232  0.0274
73549W        W48537  11.715  34.052   3.154 -0.1997 -0.0234  0.2550
73550W        W48538   0.093  31.235  25.256 -0.2132 -0.4314  0.2709
73551W        W48539  29.567  10.307  19.454  0.2271  0.0208  0.0192
73552W        W48540  24.522  25.935  12.342 -0.0302  0.3567 -0.0755
73553W        W48541  33.021  12.767  16.060 -0.0787  0.0529  0.0914
73554W        W48542  33.741   6.506  23.785 -0.4435  0.0039  0.0359
73555W        W48543   6.177  35.082  21.298 -0.2493 -0.1084  0.0387
73556W        W48544  16.329   0.071   9.267 -0.1095 -0.2673 -0.0878
73557W        W48545  28.237   3.967   4.653 -0.2721 -0.0182  0.0898
73558W        W48546  15.193   4.041   0.562  0.0150  0.1028  0.1808
73559W        W48547   2.360  21.172   4.332  0.0473 -0.0977  0.0809
73560W        W48548  29.378  25.326   9.076 -0.0233 -0.0739  0.2018
73561W        W48549  23.009   2.588   7.343 -0.0442 -0.0887 -0.0871
73562W        W48550  16.777  17.578  10.897  0.2478 -0.0794  0.4322
73563W        W48551  23.924  35.259   0.298 -0.0491  0.1586 -0.6132
73564W        W48552  16.056  25.600  14.756 -0.0127  0.0179 -0.0129
73565W        W48553  28.707  16.943   0.200 -0.0843  0.0781 -0.1207
73566W        W48554   2.421  23.431  21.462 -0.1785 -0.0161  0.1419
73567W        W48555  34.929  18.116  16.878 -0.1556 -0.1041 -0.2016
73568W        W48556  26.597  26.441  11.213 -0.1258 -0.0186 -0.0364
73569W        W48557  13.299  11.730   5.155  0.0787 -0.1393  0.1993
73570W        W48558   0.490   6.489   0.898  0.1263 -0.0794  0.1953
73571W        W48559   0.405  31.725   1.154  0.0079  0.1059  0.2361
73572W        W48560   4.249   8.040  19.923  0.1224 -0.0861  0.0114
73573W        W48561  18.788   0.132  16.300  0.0817 -0.0162  0.1035
73574W        W48562  30.411  25.179   8.778  0.3472  0.3415 -0.3022
73575W        W48563   6.536  32.978  12.343  0.0052  0.1175 -0.0118
73576W        W48564  31.066  21.406  18.650  0.2213 -0.1948  0.1160
73577W        W48565  23.795   7.577  15.159  0.0804  0.2104 -0.0055
73578W        W48566  30.464  32.252  24.015 -0.3920  0.3333  0.0142
73579W        W48567  17.142   2.660  25.166 -0.4833 -0.0707 -0.0639
73580W        W48568   5.336  16.336  22.435  0.1115  0.0701  0.1163
73581W        W48569  28.336  25.397   0.611  0.1248 -0.0866 -0.0643
73582W        W48570  32.870  18.946   5.642  0.1585 -0.0858  0.1959
73583W        W48571  24.128  12.254  23.313 -0.0669  0.0562 -0.2551
73584W        W48572  10.381  24.313   6.308 -0.0164  0.1251 -0.1732
73585W        W48573  12.032  33.889   9.716 -0.0558 -0.0253 -0.0314
73586W        W48574  35.163  16.074  22.595 -0.2907 -0.0802 -0.2168
73587W        W48575  23.574   7.174  18.279 -0.0738  0.0229  0.1384
73588W        W48576  16.444  15.741   1.526  0.1407  0.0385 -0.1333
73589W        W48577   7.341  34.216   6.397 -0.2965 -0.0862 -0.2698
73590W        W48578   7.090  17.688  19.024  0.0488  0.3783 -0.0237
73591W        W48579  22.307  30.234   0.187  0.2962  0.2352  0.0506
73592W        W48580   7.531  18.633   6.058  0.0969  0.0087  0.0525
73593W        W48581   9.591  32.541  11.345 -0.0911  0.1125 -0.3974
73594W        W48582  32.464  14.010   8.567 -0.1478  0.2068 -0.0655
73595W        W48583   4.729  15.545   2.417 -0.0186  0.1258  0.2585
73596W        W48584  18.539  15.356  20.647  0.2363  0.1403  0.0816
73597W        W48585  33.362   4.860   4.990 -0.0701 -0.2651 -0.1020
73598W        W48586  21.164  18.246  18.843 -0.2527 -0.0733  0.0632
73599W        W48587  29.161  15.555  19.296 -0.0041 -0.0767 -0.0090
73600W        W48588  27.301  24.682   0.417  0.2858 -0.3324 -0.0781
73601W        W48589   9.786  32.585  14.470  0.0777 -0.1756  0.5789
73602W        W48590  20.346   9.158   9.032  0.0573  0.0987 -0.2825
73603W        W48591  12.375  17.456   2.088 -0.2893 -0.1487 -0.3861
73604W        W48592   2.466   9.149  15.983 -0.0996  0.2748  0.4351
73605W        W48593   6.465   8.064  20.109  0.2829 -0.0228 -0.1638
73606W        W48594  13.372   7.177  26.019  0.1294 -0.5355 -0.2225
73607W        W48595  31.986  15.224  16.368 -0.2423  0.3480  0.0344
73608W        W48596  13.646  26.705  14.543  0.0378  0.2424  0.0469
73609W        W48597  12.292  18.562   8.329  0.1183  0.1459 -0.3362
73610W        W48598  21.233  12.878   3.763 -0.0422 -0.2436  0.0478
73611W        W48599  13.367  10.151  14.153 -0.1264 -0.3908  0.4302
73612W        W48600  21.362  27.784  22.923 -0.1069  0.2775  0.3379
73613W        W48601   4.851  22.021  24.016  0.0742  0.1414  0.0310
73614W        W48602   2.941   9.748  25.688  0.0166 -0.0163  0.1335
73615W        W48603  15.687  19.515  23.362 -0.3773  0.1877 -0.0485
73616W        W48604  26.122  28.117  24.304 -0.3909 -0.0669 -0.1270
73617W        W48605  30.308  23.107  16.190 -0.1744 -0.3290  0.2046
73618W        W48606  27.301   7.662  15.646 -0.2253 -0.0595 -0.0563
73619W        W48607   6.164  10.673   6.574 -0.1003 -0.1349 -0.0069
73620W        W48608  30.014   3.889   1.351  0.1577 -0.1034 -0.0305
73621W        W48609  23.369  23.600  21.412  0.0800  0.1204 -0.3553
73622W        W48610  27.332  19.609  11.102  0.0135 -0.1058 -0.0934
73623W        W48611  33.710  24.844   9.267  0.0985  0.1062 -0.2190
73624W        W48612  18.657   5.704  25.882  0.1833 -0.0723 -0.0945
73625W        W48613  12.827  28.645   1.881  0.0475  0.1982 -0.0054
73626W        W48614  13.649  26.925   5.168  0.0418  0.0959 -0.1771
73627W        W48615   7.489   8.799   9.241 -0.2215 -0.1640 -0.0753
73628W        W48616   6.577   3.615  10.634 -0.1016  0.1002  0.0885
73629W        W48617  30.944  25.570  15.528  0.1862 -0.3209  0.0470
73630W        W48618   2.074  27.690  20.858  0.3420 -0.1197  0.3944
73631W        W48619  16.652  33.057   1.550  0.0208 -0.2189 -0.1895
73632W        W48620  15.581  21.446  13.062  0.1946 -0.0114  0.0984
73633W        W48621  21.232   9.735  15.855 -0.1136 -0.0412 -0.1294
73634W        W48622   9.056   7.617   8.457  0.0331 -0.0868  0.4471
73635W        W48623   5.923  32.139  20.274  0.0567 -0.3476 -0.1193
73636W        W48624   8.935  20.708   3.878 -0.5516  0.1111  0.0686
73637W        W48625   9.262   0.390   7.289 -0.0309 -0.1407 -0.2870
73638W        W48626   5.854  10.937  10.624 -0.0414  0.2829  0.0781
73639W        W48627  27.203  27.126  19.625  0.1104 -0.0515 -0.3997
73640W        W48628  19.486  26.967   1.829  0.3353  0.2249 -0.1038
73641W        W48629  10.922   2.999  20.351  0.0803 -0.0212 -0.0851
73642W        W48630  16.633  26.574  24.349  0.1086  0.3670  0.1685
73643W        W48631   5.767  28.619  25.820  0.2740  0.2140 -0.0214
73644W        W48632   0.903  31.593   3.928  0.0018 -0.1692  0.0225
73645W        W48633  23.615  28.562  22.250  0.1345  0.1741  0.1805
73646W        W48634  16.198  16.249   4.660  0.1617 -0.2638 -0.1749
73647W        W48635   5.509  26.327   6.122  0.5079 -0.0106  0.2563
73648W        W48636   2.966   3.409   3.915 -0.1655  0.1318 -0.0168
73649W        W48637  25.788  12.057  13.377  0.0503 -0.0488 -0.0173
73650W        W48638  30.925   1.227   3.443 -0.0755  0.0734  0.1669
73651W        W48639   5.684  24.270  22.647 -0.0660  0.1635  0.0480
73652W        W48640  13.320   0.186   4.262  0.1872  0.0985 -0.0429
73653W        W48641  19.336  28.829  18.134  0.0389 -0.3759  0.0226
73654W        W48642  14.385  12.710  23.541  0.0042 -0.1075 -0.1302
73655W        W48643  20.605   8.680   0.638  0.0069  0.3332  0.0113
73656W        W48644  35.069   8.206  23.098 -0.1628  0.1668  0.0356
73657W        W48645   4.499  22.129   5.355  0.1890 -0.1717  0.0752
73658W        W48646  24.585  15.817  15.811 -0.1603 -0.2053 -0.2654
73659W        W48647  20.357   6.864  11.613 -0.1029  0.2238  0.0586
73660W        W48648   1.197  10.112   1.342  0.1487  0.2958  0.0636
73661W        W48649  26.276  13.104  24.325  0.2025 -0.4172  0.0685
73662W        W48650   8.010  21.497  23.896  0.1724  0.0726 -0.0941
73663W        W48651  27.416   3.447  10.909  0.3603  0.2609 -0.3421
73664W        W48652  31.976   0.016   3.807 -0.0530 -0.1222  0.2448
73665W        W48653   6.989  25.815   1.159 -0.1580  0.3863  0.1755
73666W        W48654  28.651  25.510  12.331  0.0394 -0.0201  0.0641
73667W        W48655  15.951  11.004  10.577 -0.3596 -0.1633  0.3865
73668W        W48656  24.608  35.317  12.868 -0.0890 -0.3607 -0.2460
73669W        W48657  18.091  21.949   1.145 -0.0618 -0.2453  0.0006
73670W        W48658  14.900  12.054  26.172 -0.0701 -0.0686  0.1479
73671W        W48659   9.005   7.762  13.004  0.2232  0.1065 -0.0428
73672W        W48660   5.345   0.906  21.580 -0.1472 -0.2927  0.3015
73673W        W48661  18.579   8.401   8.463 -0.2149  0.0340 -0.0582
73674W        W48662  23.178   0.055   5.310  0.1710  0.1612  0.1410
73675W        W48663  25.470  27.900   2.026 -0.1103 -0.2765  0.1048
73676W        W48664  17.641   1.946   7.966  0.3703  0.1330  0.0455
73677W        W48665  10.044   9.119   9.092  0.0584 -0.1610 -0.0762
73678W        W48666  21.559  14.862  24.172  0.0014  0.0777  0.3585
73679W        W48667  26.783  24.817  22.056  0.1591 -0.0825 -0.2242
73680W        W48668   9.924   1.951  24.436 -0.3433  0.0709  0.2897
73681W        W48669  30.906   1.473  19.065  0.3396  0.1374 -0.0615
73682W        W48670  18.051  17.978  20.072  0.0926  0.1835 -0.1988
73683W        W48671  18.924  29.075   1.391  0.0869 -0.1651 -0.0451
73684W        W48672   8.719  31.856  14.149  0.2506 -0.2844 -0.2366
73685W        W48673   2.141  19.029  11.500 -0.0411 -0.1172  0.0355
73686W        W48674  10.730  32.128   1.047 -0.1264 -0.0811 -0.1927
73687W        W48675   3.165   3.175  21.982  0.4889 -0.0839 -0.1904
73688W        W48676  31.405  24.294  18.604 -0.1890 -0.1933 -0.0359
73689W        W48677  12.460   0.549  24.010  0.0351  0.1473 -0.0280
73690W        W48678  29.520   2.412  16.292  0.0236 -0.0531  0.0048
73691W        W48679  19.622  19.372  17.413 -0.0552  0.1474 -0.3900
73692W        W48680  20.342  12.585  18.954  0.0187  0.1949  0.2757
73693W        W48681  30.145  16.818  11.224 -0.0940  0.0418  0.1660
73694W        W48682  18.422  20.956  12.343  0.1484 -0.1058 -0.2234
73695W        W48683  14.002  19.799  22.171  0.0906 -0.0211  0.1124
73696W        W48684  33.202  32.056   0.601  0.1384 -0.0247  0.0574
73697W        W48685  27.416  14.509  19.082  0.1896  0.1771 -0.1271
73698W        W48686   2.850  15.016  21.102 -0.0073 -0.0428  0.2012
73699W        W48687  25.640  31.656  20.601 -0.0693  0.1756  0.1295
73700W        W48688   8.639  16.736   7.695 -0.1525 -0.1683 -0.2875
73701W        W48689  26.706  27.188  19.541 -0.0242 -0.0548  0.1127
73702W        W48690  31.868  14.650  11.535  0.1884 -0.3100 -0.0671
73703W        W48691  15.339   4.502  20.909 -0.4168  0.0671 -0.4960
73704W        W48692   1.170   1.729  20.873 -0.0218 -0.0935 -0.1765
73705W        W48693  29.700  33.633  23.220 -0.1896  0.0320  0.0067
73706W        W48694  30.227  24.582  17.419 -0.3311 -0.1005  0.2663
73707W        W48695  33.598  27.163  25.950  0.1311 -0.1115  0.0388
73708W        W48696   7.831   0.714   9.556  0.1340 -0.1690  0.1277
73709W        W48697  12.505  24.118   4.742 -0.4322 -0.1082 -0.1124
73710W        W48698  24.502  30.813  10.872  0.2868 -0.0783  0.1466
73711W        W48699   3.971  26.765  25.657 -0.2481 -0.1463 -0.1271
73712W        W48700  26.985  33.282  23.116  0.0444  0.5306 -0.1330
73713W        W48701  24.458  16.996  22.468  0.0555  0.0307 -0.0080
73714W        W48702  18.558   8.435  12.240  0.1395 -0.2389  0.5500
73715W        W48703  23.135  15.101  17.806  0.0947 -0.1948 -0.1014
73716W        W48704  17.524  24.114   4.788 -0.1114 -0.1698 -0.4192
73717W        W48705   7.299  22.520   9.387 -0.2037 -0.0337  0.3958
73718W        W48706  16.383  22.208  13.137 -0.0836  0.3331  0.1089
73719W        W48707  26.440  30.617  22.108 -0.4320  0.2586  0.0296
73720W        W48708  29.068  17.544  18.488  0.0318  0.0508 -0.1973
73721W        W48709  29.417  33.912  23.914  0.1552  0.0743  0.1079
73722W        W48710  24.422  18.966  18.003 -0.0476  0.0795 -0.0063
73723W        W48711   6.890  31.796  11.296 -0.0035  0.2879 -0.1669
73724W        W48712  31.131  27.209  20.534 -0.3009  0.0735 -0.1656
73725W        W48713  21.704  24.518  17.766  0.1075  0.2613 -0.1323
73726W        W48714  22.641   0.372   6.999  0.0365  0.0373 -0.1716
73727W        W48715  32.177  29.025   3.637  0.0594 -0.2623  0.2109
73728W        W48716  21.460  24.039   0.552  0.5455  0.1812  0.2060
73729W        W48717  25.293  22.070  16.135 -0.0183  0.1151  0.1968
73730W        W48718   8.617  23.402   6.886 -0.4367 -0.2094  0.2231
73731W        W48719   0.093   6.093  21.644  0.0664  0.0162  0.1452
73732W        W48720  27.429  31.585  22.146  0.3059 -0.1681 -0.2387
73733W        W48721  16.888   5.282   2.484 -0.1005 -0.0600 -0.2649
73734W        W48722   0.412  10.114  25.832  0.1158  0.0611  0.0132
73735W        W48723   8.979  31.136   6.704  0.0126 -0.2439  0.2150
73736W        W48724  30.948  14.970  23.003 -0.0202 -0.1336  0.2076
73737W        W48725   9.320  26.345  13.585 -0.0376 -0.2176 -0.1263
73738W        W48726  25.476  20.567  23.343 -0.4529  0.0520  0.0502
73739W        W48727  19.620  12.577  19.472  0.2427  0.2980 -0.0144
73740W        W48728  13.640  19.679   7.234 -0.1115  0.2636 -0.3852
73741W        W48729  13.071   6.185  12.731  0.1080 -0.2785 -0.3056
73742W        W48730   2.829  10.778   1.943  0.0391  0.1405  0.2886
73743W        W48731   0.596  23.986   1.970  0.1230 -0.3536  0.2713
73744W        W48732  21.523  27.066  24.965  0.0042 -0.0473  0.0573
73745W        W48733  18.586   9.863   0.806  0.0844  0.2433 -0.0615
73746W        W48734  33.472  32.168   3.761 -0.0615  0.1936  0.2244
73747W        W48735  20.809  32.818   0.390 -0.2234  0.1595  0.1583
73748W        W48736   2.957  23.677   1.282 -0.2191 -0.2717  0.3706
73749W        W48737  35.203  24.093  18.424 -0.0065 -0.2024 -0.2626
73750W        W48738   6.141   2.727  10.745  0.0444  0.1164  0.0783
73751W        W48739  14.390  14.592   2.697  0.1181  0.1702 -0.1862
73752W        W48740  23.486  14.110  15.962 -0.4563  0.2245  0.2718
73753W        W48741   4.613   2.020  25.952  0.0453  0.0321  0.1474
73754W        W48742   2.281  25.177   3.781  0.2568  0.4259 -0.0524
73755W        W48743  23.104  34.597  12.602  0.0137 -0.0101 -0.0664
73756W        W48744  15.245  18.919   2.122  0.0727 -0.1109  0.3730
73757W        W48745  21.319  16.810  21.333 -0.1068  0.1702  0.2819
73758W        W48746  17.559   7.635  24.280  0.0666  0.4466 -0.0951
73759W        W48747  34.224  29.275   1.539  0.1279  0.2305 -0.0622
73760W        W48748  29.610   8.744  14.790 -0.1484 -0.3134 -0.0357
73761W        W48749  10.293   1.292   5.596  0.0636  0.3556 -0.3524
73762W        W48750  17.547   7.237  25.401 -0.3046 -0.0218 -0.1339
73763W        W48751  16.834   2.145   6.659  0.1434 -0.1358 -0.3203
73764W        W48752  19.456   3.507   1.993  0.0672 -0.2564 -0.1650
73765W        W48753  28.944  18.686   5.084 -0.0930 -0.0902  0.3538
73766W        W48754  22.994   5.511  14.129  0.2231  0.0117 -0.0957
73767W        W48755   7.256   1.579  10.121  0.1793  0.4233  0.1962
73768W        W48756   7.885   3.766  14.576  0.2157  0.0568 -0.1469
73769W        W48757   3.678  32.721  23.768 -0.1996 -0.0121 -0.1210
73770W        W48758  32.805   6.274  17.368 -0.1446  0.0753  0.2487
73771W        W48759  16.472  21.479  20.419 -0.3156  0.1779 -0.3320
73772W        W48760   4.352   2.669  23.491 -0.3498 -0.0051  0.2383
73773W        W48761   2.051   0.034  19.502 -0.0920 -0.0130  0.0866
73774W        W48762  24.111  27.542  15.574 -0.2245  0.1719  0.2414
73775W        W48763  25.516  10.354  10.645  0.0761 -0.1657  0.1283
73776W        W48764  22.926   5.676   3.045 -0.2116 -0.1877 -0.2163
73777W        W48765  31.452  28.273   0.740  0.0511  0.1933  0.0316
73778W        W48766   8.046  25.318   4.636 -0.0086  0.1340 -0.0008
73779W        W48767  25.065  27.594  22.524 -0.0644 -0.1082 -0.0386
73780W        W48768  34.792  14.482   0.536  0.1107 -0.1462  0.0992
73781W        W48769   8.642  10.627   9.372 -0.2407  0.1643 -0.0684
73782W        W48770  21.143   9.681   5.582  0.0947 -0.4378 -0.1037
73783W        W48771  12.835  16.054   5.627  0.1451  0.2525 -0.3202
73784W        W48772  20.236  29.321   8.402  0.0654 -0.1514 -0.4270
73785W        W48773  26.483   2.347  17.451  0.2043 -0.1852 -0.0229
73786W        W48774  16.415  20.936   6.413  0.4370  0.3128 -0.1749
73787W        W48775  17.513   3.010  11.015 -0.4660 -0.1435 -0.1349
73788W        W48776  23.088  19.083  16.632 -0.0902 -0.1562  0.0848
73789W        W48777  16.265  22.978   7.276  0.0557 -0.3272  0.1431
73790W        W48778  33.184  26.393   3.703  0.2347 -0.1242  0.1180
73791W        W48779   9.151  23.576  23.718 -0.1767 -0.0349  0.3580
73792W        W48780  33.106  29.104   2.636 -0.0855 -0.0820  0.1398
73793W        W48781  26.730  34.596   2.842 -0.2263 -0.5537 -0.1672
73794W        W48782  16.226  25.927   3.734 -0.1332 -0.2083 -0.0197
73795W        W48783  29.743  17.875   8.240 -0.1993  0.1391  0.1529
73796W        W48784   8.353   9.415   2.108  0.1288  0.1546 -0.1987
73797W        W48785  16.327   7.505  12.127 -0.1936 -0.2022 -0.3883
73798W        W48786  27.447  10.767  23.382 -0.1284 -0.1779  0.0407
73799W        W48787  29.656  27.588  21.463 -0.1264 -0.2118  0.1970
73800W        W48788   4.164  17.174  16.433  0.2073  0.0043  0.2273
73801W        W48789   8.067  12.747  23.763 -0.0434  0.6355  0.0790
73802W        W48790  19.018  32.738   1.643  0.1189  0.1524 -0.2128
73803W        W48791  14.064  19.551   7.570  0.0391 -0.0005  0.1497
73804W        W48792  18.888  30.681  22.945 -0.0131 -0.1493  0.1912
73805W        W48793  20.433  22.334   6.734  0.1492 -0.1948 -0.2126
73806W        W48794  18.768   9.895   6.318  0.0317 -0.0096 -0.0275
73807W        W48795  32.755  30.562  17.678 -0.1689  0.2179  0.0244
73808W        W48796   6.700  12.963  10.567  0.0283 -0.2279  0.0599
73809W        W48797   6.184   5.912  18.776 -0.1288  0.0486  0.2314
73810W        W48798   2.167  27.692  24.925 -0.4551  0.5761  0.2105
73811W        W48799   7.805  30.280  11.723 -0.1776  0.2319  0.1024
73812W        W48800   9.097   1.135   7.128  0.3438  0.0679  0.0621
73813W        W48801   0.665   6.491   4.765 -0.0660 -0.2270  0.1679
73814W        W48802  33.704  19.265  19.858 -0.0844 -0.0084  0.0100
73815W        W48803  23.068   0.542  14.824  0.2193 -0.2331  0.2912
73816W        W48804  35.084  16.979  12.986 -0.1757 -0.4145  0.0925
73817W        W48805   5.409  34.508   1.567  0.1214 -0.2057  0.1219
73818W        W48806  15.146   1.186  18.558 -0.2589 -0.2599  0.1547
73819W        W48807  24.781  22.614  19.462 -0.4148  0.2157  0.0055
73820W        W48808  34.069  18.856  10.584 -0.1858 -0.0216 -0.0899
73821W        W48809  25.233  23.695  15.255  0.2938  0.0522 -0.0105
73822W        W48810  28.381  21.811   7.712 -0.4049  0.1272 -0.0451
73823W        W48811  11.264   5.683   0.958 -0.4155 -0.1455  0.3924
73824W        W48812  30.972   7.937  20.787  0.1011 -0.1732  0.0808
73825W        W48813  31.379  20.523  16.599 -0.1550 -0.3224 -0.0935
73826W        W48814  35.142  10.264  21.502 -0.3532  0.2871 -0.1199
73827W        W48815  31.098  23.783  16.406 -0.1274  0.0077  0.1991
73828W        W48816  14.527   5.169  23.249 -0.0013 -0.0638  0.0701
73829W        W48817   2.301  32.387  20.160  0.0265 -0.5102  0.0971
73830W        W48818  25.086   5.196  12.779  0.1899  0.0775  0.1940
73831W        W48819  12.258   9.140  15.134  0.1953 -0.1592  0.2583
73832W        W48820   1.661   1.587  17.267  0.2155 -0.0096  0.3536
73833W        W48821  14.676  20.043   0.974 -0.3291 -0.2021 -0.2492
73834W        W48822   5.152   5.922  17.348  0.1896  0.2056 -0.1654
73835W        W48823  11.582  30.900   8.672 -0.4436  0.3428  0.1300
73836W        W48824   4.848  32.928   7.237  0.0427 -0.0128  0.1277
73837W        W48825  21.452  19.353  19.699  0.3714  0.0472 -0.1494
73838W        W48826   5.872  27.138   2.384  0.1673  0.1877  0.0872
73839W        W48827  32.380  32.614  21.599  0.0414  0.2362  0.3432
73840W        W48828  31.739   9.195   1.388  0.2300  0.1907  0.1648
73841W        W48829  16.303   6.451   7.993 -0.3642  0.1110  0.1118
73842W        W48830  29.216  10.497  15.057  0.0729  0.0233 -0.1446
73843W        W48831   5.857  26.630  20.840 -0.0329 -0.3395 -0.0430
73844W        W48832   3.237  17.311  25.644  0.1039 -0.0849 -0.2672
73845W        W48833  13.159   6.812  25.724  0.0497 -0.2599  0.2216
73846W        W48834  17.039  21.385  23.030 -0.0842 -0.0630  0.1982
73847W        W48835  27.695  24.659  21.920  0.0214  0.2133  0.0721
73848W        W48836   4.772  17.436   0.557 -0.0635 -0.0943 -0.1968
73849W        W48837  13.062  19.656  13.801 -0.1835  0.0606 -0.1912
73850W        W48838  28.378  24.129   9.414  0.1608  0.0074 -0.0929
73851W        W48839  15.533  22.355  10.864  0.0738  0.3858 -0.1748
73852W        W48840  10.768  33.044  15.232 -0.0937  0.1708  0.1792
73853W        W48841  16.938  30.034   7.002  0.1951  0.2212  0.1226
73854W        W48842   4.000   1.388  20.175 -0.2932 -0.1428  0.0418
73855W        W48843  31.729  25.602  22.037  0.1394 -0.1112  0.0599
73856W        W48844   2.742   7.149  20.478  0.0693 -0.2151 -0.1870
73857W        W48845  12.062  21.925  15.947  0.0773  0.1557  0.0665
73858W        W48846  22.563   3.010   4.946  0.1719  0.0813  0.1766
73859W        W48847  19.283  10.939  17.715  0.0179  0.2705 -0.0066
73860W        W48848  30.412   5.677  10.694 -0.2842  0.0289  0.0869
73861W        W48849  28.679   5.195  16.231  0.0578  0.3561 -0.0865
73862W        W48850  16.330  31.823  21.929  0.3128 -0.0938  0.1473
73863W        W48851  13.438   4.931   9.357 -0.1393 -0.0208  0.3039
73864W        W48852  11.492  22.435  14.438  0.2772 -0.0015 -0.0467
73865W        W48853   4.571  23.482   7.134 -0.0390 -0.0922  0.1378
73866W        W48854  26.433  25.843   0.234  0.2157 -0.0106 -0.0565
73867W        W48855  31.551   8.566  14.059  0.2048 -0.0318 -0.0442
73868W        W48856  12.985  13.754  22.358 -0.3133  0.1596  0.0672
73869W        W48857  29.234   9.740  22.923 -0.1577 -0.1861 -0.3104
73870W        W48858   4.703  25.771  10.207  0.0336 -0.2681 -0.0744
73871W        W48859  14.788  33.884  23.090  0.3339  0.0406 -0.1948
73872W        W48860  32.325   0.370   1.389 -0.0549 -0.1412 -0.6756
73873W        W48861   7.415  22.936   8.051 -0.2005  0.3779 -0.1876
73874W        W48862  18.806  32.209   2.702  0.1135  0.0285  0.0265
73875W        W48863   6.711  15.483   7.866  0.2297  0.0721 -0.0708
73876W        W48864   7.942  27.070  23.248  0.2999  0.0096  0.1546
73877W        W48865  17.650  10.817   5.380 -0.0236 -0.2811  0.1576
73878W        W48866  10.247  33.217  10.395  0.4772 -0.1177  0.0215
73879W        W48867  17.660  10.174  19.766 -0.0054 -0.1997  0.0096
73880W        W48868  12.819   4.317   5.890  0.5252 -0.0346 -0.0713
73881W        W48869   1.811  16.458  19.485  0.2873 -0.1761 -0.3549
73882W        W48870   7.949   5.548  13.513  0.0510  0.0166  0.0905
73883W        W48871  26.663  28.433  16.893  0.1509  0.0465  0.2275
73884W        W48872  34.482   3.821   4.414 -0.1993 -0.2131  0.0384
73885W        W48873  22.810  22.174  25.615 -0.0556  0.1381  0.2226
73886W        W48874  21.164  12.656  16.522 -0.1675 -0.0438 -0.3670
73887W        W48875  19.576   6.443  23.654 -0.0580  0.0786  0.0454
73888W        W48876  13.789  24.182   9.652  0.1823 -0.0850 -0.0510
73889W        W48877  27.628  17.698  12.298  0.0462 -0.1975 -0.1529
73890W        W48878  27.243   7.757  20.676 -0.0117  0.1988  0.0446
73891W        W48879  28.772  10.372  23.989 -0.0623  0.2053 -0.1496
73892W        W48880  14.040  28.739   6.019  0.1204  0.1664  0.1500
73893W        W48881   8.356  18.669   2.936 -0.0934  0.0653 -0.1378
73894W        W48882  12.853  25.622   2.161  0.1503 -0.3016  0.0773
73895W        W48883  17.996   5.055  22.654  0.1281  0.0704  0.3923
73896W        W48884  32.267  19.700   0.031  0.1673 -0.0809 -0.0721
73897W        W48885  17.197  17.149   2.119 -0.2282 -0.0025  0.1888
73898W        W48886  16.835  14.848  22.431 -0.1496 -0.0973  0.0381
73899W        W48887   1.006  10.405  16.891 -0.2420  0.3139 -0.2312
73900W        W48888  18.429  22.218   2.545 -0.1987  0.2427  0.1584
73901W        W48889   0.607   4.247   6.223 -0.2823  0.2310  0.1209
73902W        W48890  19.882  21.190   7.432  0.0066  0.0827  0.3694
73903W        W48891  27.549   8.919  15.762 -0.2337  0.2992 -0.1217
73904W        W48892  28.911   1.913   2.875  0.1672 -0.4139 -0.2099
73905W        W48893  23.318   5.878  15.752  0.0346  0.0270  0.0514
73906W        W48894  31.269  21.544  21.323 -0.1506  0.3278 -0.2952
73907W        W48895  24.189  24.543  16.545 -0.1059 -0.1858 -0.0911
73908W        W48896  14.816  11.950  21.683  0.2464 -0.1247 -0.2704
73909W        W48897  26.644  21.401  20.984  0.2028  0.0637 -0.2028
73910W        W48898  34.880  29.324  14.607  0.0845  0.1334  0.1047
73911W        W48899   7.315  23.470   0.781  0.0996 -0.1413  0.2050
73912W        W48900   8.548  28.336  16.959  0.1298  0.0275 -0.2735
73913W        W48901  10.516  31.391   5.051 -0.4299  0.0659 -0.4163
73914W        W48902  15.917  24.189  24.578 -0.3962  0.1382  0.3261
73915W        W48903  28.554   5.319  13.467  0.2660 -0.1747 -0.1291
73916W        W48904  33.393  17.968  19.884  0.1785 -0.0481  0.4178
73917W        W48905   4.173   7.905  16.746 -0.1290 -0.0470 -0.1117
73918W        W48906  12.527  31.932  15.437  0.1053 -0.3128  0.2333
73919W        W48907  28.475   7.621  11.705  0.0916  0.0222 -0.2107
73920W        W48908  13.079  13.494  21.338 -0.3483  0.4262  0.0711
73921W        W48909  11.435   0.490  10.205 -0.0248  0.1217  0.2313
73922W        W48910   8.871  34.468   0.830 -0.1770  0.2732 -0.0815
73923W        W48911  23.390  27.892  12.873  0.3661 -0.1878  0.1133
73924W        W48912   9.977  20.971   6.769  0.2182 -0.0715 -0.1348
73925W        W48913  30.342  20.103  15.589 -0.0046  0.1093  0.2212
73926W        W48914  14.303  13.649   0.061  0.0129  0.1068  0.0581
73927W        W48915   7.229  30.328  11.286 -0.0197 -0.0577  0.0988
73928W        W48916  31.632  31.862   0.535 -0.0632  0.2687  0.2091
73929W        W48917  29.159   8.143  19.112 -0.1239 -0.3340 -0.2672
73930W        W48918  14.135  16.972   8.988 -0.0563  0.3343  0.1298
73931W        W48919  10.070  25.595  12.204 -0.0978  0.1340 -0.0667
73932W        W48920  16.379   6.292  21.704  0.2797 -0.1014  0.2377
73933W        W48921  13.933  26.351   3.360 -0.3511 -0.1829  0.1462
73934W        W48922  19.874  17.169   1.948 -0.2669  0.0947 -0.1381
73935W        W48923  30.739  26.052  14.293 -0.0753  0.4040 -0.0224
73936W        W48924  12.261  12.598  24.268  0.2826 -0.2287  0.0587
73937W        W48925  25.895  23.724  17.577 -0.0349  0.1398  0.2701
73938W        W48926  12.142  19.469  23.872 -0.0219  0.0159  0.0319
73939W        W48927   3.615   5.253   9.547 -0.2289 -0.0728  0.1335
73940W        W48928  28.598  26.539  11.395  0.1260  0.2266  0.2054
73941W        W48929  17.510  19.161  12.753  0.0078 -0.1294 -0.0554
73942W        W48930   2.625   8.357   7.262 -0.0753 -0.1253  0.2948
73943W        W48931  12.650   3.947   4.191 -0.2490 -0.0021 -0.1691
73944W        W48932  33.154  23.845   8.537 -0.0304 -0.0467 -0.0363
73945W        W48933  28.632  19.192  14.952  0.2858 -0.2265 -0.0163
73946W        W48934   1.676   4.143  25.361  0.1245 -0.2722 -0.0633
73947W        W48935  13.270   8.888  23.447 -0.0763  0.0710 -0.1134
73948W        W48936  15.000  26.262   5.831 -0.3335  0.2511  0.3957
73949W        W48937  18.732  30.110  22.174  0.1108  0.0865  0.1466
73950W        W48938  34.039  35.059  15.540 -0.2040 -0.0695  0.0068
73951W        W48939  20.579  10.981   5.143 -0.1553  0.1796  0.0271
73952W        W48940   8.805   1.455   8.110 -0.0461  0.0354 -0.0072
73953W        W48941  23.598   7.041  23.372  0.1995 -0.0674 -0.2405
73954W        W48942  13.767  15.837   7.442 -0.0493 -0.0260  0.2643
73955W        W48943   8.815  26.803   0.059 -0.2019  0.0230 -0.0200
73956W        W48944   4.515  11.868   3.030 -0.2682 -0.3244 -0.1635
73957W        W48945  28.925   8.150  14.143  0.1534 -0.0043  0.2261
73958W        W48946   4.047  34.110   6.008  0.2690  0.1225  0.3505
73959W        W48947  18.102  19.978   4.532 -0.1057  0.0586  0.1025
73960W        W48948   4.938  26.231   7.982 -0.3829  0.0289  0.1503
73961W        W48949  17.357  23.956  21.500 -0.0477  0.0232  0.3002
73962W        W48950  28.855  28.520  15.245  0.0936  0.2739 -0.0379
73963W        W48951  14.547   0.501   8.918  0.3510 -0.0763  0.1933
73964W        W48952  24.229  20.957  24.488  0.0208  0.0411  0.1579
73965W        W48953  18.021  35.050  17.916 -0.0053 -0.1065  0.0139
73966W        W48954  21.264  12.051   2.844 -0.1000 -0.2810  0.2779
73967W        W48955  10.009  34.305  11.341  0.2675  0.1430  0.0025
73968W        W48956   8.860  27.718   5.889  0.0917  0.1077  0.0258
73969W        W48957  32.713  25.949  17.937 -0.1987  0.2975  0.0180
73970W        W48958   0.647  30.744   0.932  0.2020  0.0537 -0.0543
73971W        W48959  11.392  34.915   9.775 -0.1193  0.0936  0.1528
73972W        W48960  34.287   2.045  24.320  0.2675  0.0542 -0.0022
73973W        W48961  28.198  30.487   2.321  0.0742  0.2124  0.0747
73974W        W48962   0.598   0.197  19.747 -0.0558 -0.0663  0.2343
73975W        W48963  27.142  29.799  20.901  0.1179 -0.0083  0.3184
73976W        W48964  10.267  25.571  15.048 -0.1389 -0.0744 -0.0395
73977W        W48965   7.941  30.471   6.727  0.0082  0.0505 -0.0225
73978W        W48966  22.017  34.604  25.258  0.0770  0.2055  0.4499
73979W        W48967  30.104  13.263  19.145 -0.2429  0.0528 -0.0069
73980W        W48968   5.669  13.451   7.768  0.1193  0.1753  0.3196
73981W        W48969   4.422  31.549   5.775  0.0610  0.1149  0.3463
73982W        W48970   8.543  23.546   5.138  0.1525 -0.0523 -0.1241
73983W        W48971  31.018   1.810   4.658 -0.1965 -0.2272 -0.0456
73984W        W48972  12.347   7.142   2.138 -0.1326  0.0091 -0.1548
73985W        W48973  11.622  25.173   9.047  0.0369  0.1812 -0.0449
73986W        W48974  34.900  26.985  20.101  0.1889  0.0143 -0.1599
73987W        W48975   3.629  25.072   4.467 -0.0149 -0.0760 -0.0722
73988W        W48976  25.793  10.965  24.272  0.1952 -0.0196  0.2488
73989W        W48977  16.594   6.643  22.458 -0.1933  0.2144 -0.5524
73990W        W48978   2.723   6.420   4.155 -0.2167  0.0863 -0.1863
73991W        W48979   4.107   6.002  21.053 -0.2407 -0.1494  0.1382
73992W        W48980  28.759   9.357  13.010  0.0861  0.0945  0.2249
73993W        W48981  33.737  22.252   9.398  0.0729 -0.0270 -0.2096
73994W        W48982   6.271   8.086   6.010 -0.1757 -0.3620  0.1230
73995W        W48983  28.356  17.624   9.673 -0.1124 -0.0275 -0.0425
73996W        W48984   7.942   6.081  20.348 -0.1001  0.0310 -0.1929
73997W        W48985  17.885   9.032  19.418  0.1624  0.1457 -0.3114
73998W        W48986   7.293  19.455   8.340  0.2271  0.0999 -0.1443
73999W        W48987  24.198  23.601  18.696  0.2463 -0.2271 -0.1856
74000W        W48988  32.796   5.476  24.340  0.0725  0.4487  0.0194
74001W        W48989  31.560  32.891  22.832 -0.0217  0.0221  0.1926
74002W        W48990  14.772  14.427   9.647 -0.1269  0.0693 -0.2147
74003W        W48991   7.893  30.929  15.680  0.0765  0.4400 -0.1260
74004W        W48992  22.275  32.229  12.069  0.3338 -0.1521 -0.2498
74005W        W48993   7.804  34.907  23.854 -0.1454  0.0088  0.0782
74006W        W48994  33.581   0.174   7.110  0.1655  0.0142 -0.3770
74007W        W48995  14.921  34.285   4.183  0.3059 -0.0873 -0.0503
74008W        W48996  20.033  33.648  18.983 -0.0530  0.2605  0.1418
74009W        W48997   0.244  18.314  15.731  0.1954  0.2856 -0.0267
74010W        W48998  20.266  17.145  23.974 -0.0248  0.0625  0.2107
74011W        W48999   2.706  12.579   0.007 -0.0687 -0.0055 -0.1626
74012W        W49000  26.157   9.039  22.865  0.2134  0.1460  0.0738
74013W        W49001  19.858  26.972  21.205 -0.1037 -0.2011 -0.0192
74014W        W49002   9.012  28.836   8.960 -0.0384  0.1186 -0.4964
74015W        W49003  10.546  11.450  26.161 -0.1315 -0.0933  0.0142
74016W        W49004  15.301   6.534  22.562  0.0273 -0.0476  0.2820
74017W        W49005   8.746  33.896  21.716 -0.1871  0.0265 -0.0356
74018W        W49006  15.697   8.370   0.245 -0.0327  0.1260 -0.2656
74019W        W49007  23.500  29.751  13.011 -0.0407  0.0421  0.0797
74020W        W49008  30.332  12.759  15.250  0.0568  0.1250  0.1900
74021W        W49009  12.572  16.148   9.883 -0.1598  0.1989 -0.1460
74022W        W49010  12.031   5.855  18.806  0.1357 -0.0483 -0.1407
74023W        W49011  15.496   8.060  21.608 -0.3430  0.0884  0.3181
74024W        W49012  25.757  21.024  24.807  0.0900 -0.0870 -0.0332
74025W        W49013  27.718  20.845  14.113 -0.4667 -0.1540 -0.2102
74026W        W49014  33.494  23.475  20.976 -0.2410 -0.2187 -0.0218
74027W        W49015  25.361  29.390  24.423 -0.0695 -0.4405  0.2067
74028W        W49016   5.345  23.126   4.224  0.1559 -0.2060  0.1766
74029W        W49017  20.337  26.900   6.892 -0.0878  0.1872 -0.1627
74030W        W49018  17.989  33.596  20.173 -0.0325 -0.3429  0.0319
74031W        W49019  15.775  28.539   2.102  0.1253 -0.2650 -0.1747
74032W        W49020   1.335  27.917  18.152  0.0855  0.1377 -0.1397
74033W        W49021  25.439  32.131   3.266  0.1125  0.0540  0.1876
74034W        W49022  14.759  13.022   4.555  0.2754  0.2292 -0.0522
74035W        W49023  21.554  29.039  15.985  0.1378  0.2578  0.0182
74036W        W49024  25.216  35.045   4.153  0.1569 -0.2363 -0.2147
74037W        W49025  14.617  12.141  10.943 -0.0653  0.2985 -0.2137
74038W        W49026  29.695  21.795  18.465  0.1373 -0.1565  0.1627
74039W        W49027   2.035   4.523  25.201  0.1492  0.0271 -0.2079
74040W        W49028  16.095   5.151   4.257  0.1788  0.1312  0.1502
74041W        W49029   4.940  19.461  19.745  0.1063  0.0824  0.0827
74042W        W49030  17.000  19.937  12.141 -0.2982  0.1438 -0.1439
74043W        W49031  29.863   3.797  13.057 -0.4036 -0.0668 -0.1451
74044W        W49032   9.717   5.869  23.378  0.0215  0.1105  0.1367
74045W        W49033   7.709   8.342   5.422  0.0697 -0.0393 -0.3288
74046W        W49034  11.855  28.849   6.060 -0.0211 -0.1527 -0.0021
74047W        W49035  32.158  24.323  10.454  0.0994  0.0114 -0.2186
74048W        W49036  20.237  11.020   5.579  0.3641  0.0286 -0.1432
74049W        W49037   2.626  27.773   8.740  0.1815 -0.1632 -0.0064
74050W        W49038  20.356  35.352  14.792 -0.1912  0.1834 -0.1340
74051W        W49039   7.511  31.670  21.686 -0.0679  0.2193 -0.0427
74052W        W49040   7.226  17.510  22.894  0.0931  0.1069 -0.2475
74053W        W49041  27.839  30.644  20.042 -0.0985 -0.1615 -0.0749
74054W        W49042  18.464   0.205  18.953  0.1799 -0.1313  0.1874
74055W        W49043  16.145   1.245  10.537  0.1291 -0.1004  0.2208
74056W        W49044  19.517   5.900  18.176 -0.2061  0.2389  0.1884
74057W        W49045  33.195  31.077   5.548 -0.1885 -0.0458 -0.0614
74058W        W49046  22.073  16.605   3.449 -0.2432  0.0851 -0.2576
74059W        W49047  18.777  31.522  15.810  0.0468  0.1341  0.0568
74060W        W49048   9.889   9.271   4.380  0.4183 -0.2283  0.0825
74061W        W49049   6.859  29.955  14.069  0.3546 -0.0450  0.0165
74062W        W49050  34.071  10.872  18.713 -0.2298 -0.0676 -0.0221
74063W        W49051  33.624  18.686   7.737 -0.1150  0.1501 -0.1675
74064W        W49052  17.124  29.239   1.118 -0.2199 -0.0753 -0.0480
74065W        W49053   2.597   7.877   5.922  0.1384 -0.0432 -0.0294
74066W        W49054  20.363   4.670  22.934 -0.1059  0.2058  0.0881
74067W        W49055   2.167  33.611  21.211  0.0356 -0.1243 -0.3119
74068W        W49056  19.800   5.123  22.385  0.0121  0.2843 -0.0448
74069W        W49057  24.554   3.788  21.120 -0.3187  0.5568 -0.2765
74070W        W49058  16.433  18.200   8.201  0.2017  0.0204 -0.0128
74071W        W49059   8.402   8.261   3.429 -0.2667 -0.3913  0.0639
74072W        W49060  17.481  13.230  20.297 -0.0722  0.0355 -0.1810
74073W        W49061   6.214  30.307  10.162 -0.2436  0.1013  0.0149
74074W        W49062  19.842  24.998  21.025  0.2471  0.0492  0.1192
74075W        W49063   0.216  20.611  10.549  0.0438 -0.2338 -0.0346
74076W        W49064  16.524   2.446   1.333 -0.5343 -0.2654 -0.0817
74077W        W49065  13.025  28.563  13.597 -0.0445  0.0840  0.2053
74078W        W49066   0.048   7.530  16.606  0.2757  0.3488 -0.1382
74079W        W49067   3.872  23.908   6.459 -0.1426 -0.1282 -0.0873
74080W        W49068  33.214  10.566  19.676 -0.0578 -0.2803  0.0910
74081W        W49069  13.644  22.050  11.847  0.0346  0.1141  0.0834
74082W        W49070  29.170  15.584   8.067  0.0683  0.2005  0.1922
74083W        W49071   3.895  23.455  20.125  0.1474  0.0774 -0.1615
74084W        W49072  15.585   2.421   7.574 -0.1482 -0.0999  0.1444
74085W        W49073  28.588  23.758  22.183  0.3434 -0.1418  0.0761
74086W        W49074   2.495   9.975  21.955 -0.4106  0.0638  0.1591
74087W        W49075   0.234   3.631   7.663 -0.0598  0.0890 -0.2177
74088W        W49076  18.961   6.750  22.534  0.2125  0.0375  0.1037
74089W        W49077  10.666  11.040  11.957 -0.1441 -0.5777  0.2358
74090W        W49078  23.364  19.718  25.261  0.0566 -0.2492 -0.2204
74091W        W49079  30.920  18.728   8.197 -0.1744  0.2858 -0.1483
74092W        W49080  33.501  32.135  25.925 -0.2520 -0.2045  0.0581
74093W        W49081   4.450  35.291   1.138 -0.1880 -0.0270 -0.0001
74094W        W49082  31.648  24.031  20.531 -0.1072 -0.1904 -0.1612
74095W        W49083  29.788  25.358  15.318  0.1554 -0.1058 -0.1875
74096W        W49084  32.454  34.315  25.585  0.2882  0.0581 -0.0002
74097W        W49085  32.667   3.925  15.045 -0.1054  0.1708 -0.0848
74098W        W49086  27.680  21.896  13.154  0.2990  0.1569 -0.1544
74099W        W49087  22.255   2.877   3.839 -0.2884  0.0442 -0.0491
74100W        W49088   5.845  10.865   5.211 -0.0312  0.1503 -0.1114
74101W        W49089   1.135  16.290  24.661 -0.1928  0.0862 -0.0318
74102W        W49090   8.770  24.350   9.233 -0.1608  0.1874 -0.1870
74103W        W49091  18.475  17.801  20.202  0.1338  0.1574 -0.0888
74104W        W49092   0.074  15.312  21.586 -0.0190  0.2061 -0.1005
74105W        W49093  15.348   4.577   9.618  0.0730 -0.0170 -0.1588
74106W        W49094  34.423  30.862  14.035  0.0437 -0.1276 -0.3115
74107W        W49095  24.353   2.770   1.318 -0.1301 -0.3662  0.1452
74108W        W49096  31.111   9.020  16.579  0.0203  0.0804 -0.0931
74109W        W49097  29.497  26.450  14.187  0.3485 -0.0456 -0.2003
74110W        W49098  19.793  26.451  23.318 -0.2495  0.1757  0.2335
74111W        W49099  14.680  10.005  12.108  0.2169 -0.1782 -0.2124
74112W        W49100  20.327   3.656   1.945 -0.3668  0.0461  0.0097
74113W        W49101   5.028  32.189   4.971 -0.1252 -0.1504  0.0503
74114W        W49102  23.073   8.754  24.236  0.0541  0.2157  0.1337
74115W        W49103  10.341  20.294  14.341 -0.3959 -0.1187 -0.0475
74116W        W49104  34.447  23.162  22.282 -0.0392 -0.0255 -0.3851
74117W        W49105  20.272  22.399   7.345  0.0035  0.1013  0.0049
74118W        W49106  25.311  31.347   0.128 -0.1241 -0.2250  0.2734
74119W        W49107  19.500   9.874   4.377  0.1139  0.2883 -0.1380
74120W        W49108  29.773  14.118  17.330 -0.0255  0.1349 -0.0080
74121W        W49109  30.708  13.540   6.881 -0.1482  0.0292  0.0573
74122W        W49110  19.116  17.207  20.826 -0.1478  0.2212 -0.1702
74123W        W49111  31.436  22.928   6.070  0.1790  0.4468 -0.2058
74124W        W49112   6.717  21.302   4.988  0.2732 -0.0276 -0.1439
74125W        W49113  26.471  11.915  25.817 -0.1003  0.1421 -0.0979
74126W        W49114   8.653  17.197   8.459 -0.0736 -0.2001 -0.0159
74127W        W49115  32.525  29.687  20.598  0.0159  0.1956 -0.1223
74128W        W49116  24.189   0.487  19.602  0.1092  0.0151  0.1948
74129W        W49117  12.484   7.522   8.447  0.0041  0.0386 -0.0043
74130W        W49118  11.924   5.149  24.415 -0.1912 -0.0554 -0.0209
74131W        W49119  25.492   0.365   2.144 -0.0423 -0.1026  0.2414
74132W        W49120   7.645  34.691  20.399  0.3285 -0.1681  0.0722
74133W        W49121   1.533  28.610  21.512 -0.0433  0.1644  0.3263
74134W        W49122  15.604  33.024  23.122 -0.2291  0.0210  0.0728
74135W        W49123  31.160  17.570  25.796 -0.4025 -0.0847 -0.3024
74136W        W49124  29.756   6.248   9.922  0.3936  0.0847  0.1293
74137W        W49125   5.731  16.671  19.704  0.1516 -0.1075  0.2086
74138W        W49126  30.590  35.175  19.216 -0.4343 -0.1890  0.4232
74139W        W49127   8.055   1.245   4.279  0.1592  0.0740 -0.0836
74140W        W49128  30.377   5.897   0.557  0.2120  0.1636 -0.6330
74141W        W49129   5.030   4.739   4.753 -0.2113 -0.0672  0.0344
74142W        W49130  29.822  11.245   9.378 -0.0415  0.0915 -0.0664
74143W        W49131  34.470   4.087  23.750 -0.3819 -0.0654 -0.2684
74144W        W49132   8.910   2.882  18.700  0.0686 -0.2834  0.0900
74145W        W49133  35.302  17.332  11.911 -0.0134 -0.4097  0.3575
74146W        W49134  25.699  10.270  16.450 -0.4102  0.0584 -0.2795
74147W        W49135  27.963  33.118  15.979 -0.0874  0.0383 -0.0240
74148W        W49136   3.387  19.355  16.851  0.0373 -0.0029 -0.1191
74149W        W49137  18.160  31.895  16.610 -0.0267  0.3188  0.1049
74150W        W49138  32.634  22.928  15.486  0.0584  0.1102 -0.2994
74151W        W49139  10.302  18.102  21.296  0.2291  0.0331  0.0257
74152W        W49140   9.307  21.566   9.817  0.1559  0.2534  0.2389
74153W        W49141  17.412  32.520   3.119  0.2073 -0.1260 -0.1309
74154W        W49142  32.704  25.326   2.062  0.3441  0.2176  0.0608
74155W        W49143  29.591   2.673  17.166  0.0463 -0.0624  0.1220
74156W        W49144  20.478   7.629  21.265  0.3522  0.0906 -0.0979
74157W        W49145  34.512   4.166  14.974  0.0569  0.4020 -0.1092
74158W        W49146  24.842   9.239  15.631  0.2440  0.3135  0.2948
74159W        W49147  32.803   6.199  23.744 -0.1899  0.1371 -0.0099
74160W        W49148  23.491  18.061   1.148  0.0478 -0.0328 -0.0267
74161W        W49149   5.895  14.101   1.085  0.2949  0.0467  0.2659
74162W        W49150  16.969  19.160  21.154 -0.3557  0.2123 -0.1564
74163W        W49151   6.122  28.245   6.149 -0.2025  0.0285 -0.0215
74164W        W49152  15.646   1.748  25.215  0.1291  0.0125  0.1308
74165W        W49153  34.933  31.933  21.497  0.0824 -0.1844 -0.1025
74166W        W49154  21.491  11.405  22.100  0.2311 -0.2002  0.0712
74167W        W49155  32.148  18.535  20.681  0.1766  0.0598 -0.0214
74168W        W49156   3.139   8.494   4.234 -0.1770 -0.2230  0.1299
74169W        W49157   6.503   3.811  21.386 -0.0841  0.2251 -0.0817
74170W        W49158  15.513  20.931  11.242  0.0575  0.0268  0.0255
74171W        W49159   2.393   0.373  21.064  0.3587 -0.0551 -0.3380
74172W        W49160  10.383  14.983  19.990  0.1156 -0.1424  0.1020
74173W        W49161  24.861  11.409  17.931 -0.0187 -0.2878 -0.2055
74174W        W49162   1.173  23.418  22.341 -0.2008  0.0199 -0.2054
74175W        W49163  21.873  21.782   4.040 -0.1042 -0.0827 -0.0486
74176W        W49164  15.087  11.850   5.353 -0.1100 -0.1207  0.3988
74177W        W49165   1.210   9.600  20.034  0.1063 -0.1222  0.0236
74178W        W49166  35.092  17.421   8.071 -0.1168 -0.0613 -0.0731
74179W        W49167  16.495  11.399   4.957  0.1377  0.1164 -0.2253
74180W        W49168  14.122   7.613  26.250  0.0399 -0.1240  0.1043
74181W        W49169  28.637  23.858  10.249  0.0041 -0.3805  0.0429
74182W        W49170   8.928  19.894   1.014  0.5404  0.0478 -0.0435
74183W        W49171   3.488  33.409  18.487  0.0038  0.0454 -0.1172
74184W        W49172  14.522   6.876  22.074 -0.2508 -0.0172 -0.1243
74185W        W49173   4.453   8.147   3.480  0.0217  0.0669  0.1823
74186W        W49174  34.093  23.950   0.010 -0.1823 -0.1863  0.0883
74187W        W49175  25.563  26.606  22.018  0.2980 -0.1312 -0.2875
74188W        W49176  25.219  30.158   3.576 -0.0404 -0.0049  0.1765
74189W        W49177  24.791  29.545  25.724  0.3328  0.0080 -0.2633
74190W        W49178  21.451  18.731  22.285  0.1567 -0.0572 -0.3038
74191W        W49179  11.711  13.250   0.320 -0.1677  0.0751  0.0163
74192W        W49180  27.485  25.289   8.870 -0.0559 -0.2912 -0.2270
74193W        W49181   0.577   5.595   3.768  0.1409 -0.1432 -0.5211
74194W        W49182  21.394   9.582   4.800  0.1856 -0.1583  0.0596
74195W        W49183  18.262   4.881  20.457  0.1285  0.0601  0.0602
74196W        W49184   4.854   7.833  22.848 -0.3543 -0.0713 -0.3244
74197W        W49185  20.397  16.768  25.938 -0.0394 -0.4087 -0.0335
74198W        W49186  33.905  15.057  14.995  0.0859  0.2173  0.0162
74199W        W49187  18.291   7.163   4.414  0.0915  0.0613 -0.1060
74200W        W49188  20.967  20.348   2.881 -0.3774  0.0388  0.4526
74201W        W49189   6.767  24.282  21.386 -0.0493 -0.0669 -0.0708
74202W        W49190  29.992   3.391  17.366 -0.0461 -0.2335 -0.0195
74203W        W49191   7.662   8.126  25.556 -0.0259 -0.1564  0.1625
74204W        W49192   7.439   7.093  19.781  0.1600  0.1822  0.1596
74205W        W49193  24.507   8.630  20.227  0.0870 -0.2510  0.2827
74206W        W49194  25.247  12.266   9.767  0.2303 -0.0754  0.0999
74207W        W49195   3.669  22.723  16.943 -0.0174  0.1975  0.0227
74208W        W49196  22.783  31.825  13.675  0.0982 -0.0736 -0.2127
74209W        W49197  11.719  26.106  26.240  0.0058  0.1573  0.0029
74210W        W49198  18.044  11.618   4.478 -0.1552  0.1881  0.1735
74211W        W49199  33.518   7.890  23.107 -0.3352  0.0918 -0.0498
74212W        W49200  34.740  11.185  19.732  0.1467  0.0721 -0.0360
74213W        W49201  22.109  16.964  20.035  0.0078  0.0542  0.0534
74214W        W49202  25.226  17.852  18.753 -0.0796  0.0677  0.2482
74215W        W49203  10.455  17.709   0.992  0.0173 -0.0430 -0.2769
74216W        W49204  11.020   0.241  25.062 -0.0393 -0.2754  0.1529
74217W        W49205  22.216  19.734  24.411 -0.0623 -0.2006  0.2073
74218W        W49206   3.661  29.556   6.268 -0.4670  0.2138 -0.0580
74219W        W49207  24.231   2.082  15.261  0.2190 -0.0765 -0.1391
74220W        W49208  23.456  12.877  22.766  0.0315  0.1380 -0.2595
74221W        W49209  24.561  28.813  13.337 -0.1714 -0.0753 -0.0381
74222W        W49210  13.593   6.919   4.707 -0.0358 -0.1464 -0.1740
74223W        W49211  25.511  31.955  21.828  0.0287 -0.0799  0.0320
74224W        W49212  12.931  20.837   3.533 -0.1157  0.0787  0.0123
74225W        W49213   4.168   9.968  17.962 -0.1125  0.0146 -0.1121
74226W        W49214   7.865   2.968   9.345 -0.0885 -0.0282 -0.2744
74227W        W49215  20.904  27.450   6.573  0.1085  0.2861  0.0765
74228W        W49216  25.291  12.403  24.571 -0.1151 -0.4523 -0.0536
74229W        W49217   0.881  13.121  10.762  0.1075  0.5369  0.0950
74230W        W49218  24.157  16.956   0.774  0.1323 -0.0559 -0.2453
74231W        W49219   6.494  28.947   7.588 -0.0006  0.3929  0.0224
74232W        W49220  18.542   5.480   9.726  0.0062  0.5153  0.0004
74233W        W49221  22.741  20.289   0.757 -0.0666 -0.2443 -0.0068
74234W        W49222  12.204   6.358   5.769  0.0819 -0.1112 -0.2050
74235W        W49223   8.865  17.739  11.410  0.0541  0.3962  0.1653
74236W        W49224  30.942   0.571  15.349 -0.0970 -0.0084  0.0487
74237W        W49225   3.005  30.382  17.775  0.2801  0.1786 -0.1354
74238W        W49226   3.169  22.877   5.148 -0.2263  0.1043 -0.3529
74239W        W49227  35.317  10.360  10.246 -0.1765 -0.0205  0.0373
74240W        W49228  19.610   9.745   5.890  0.0769 -0.3233 -0.2615
74241W        W49229  31.970  33.421   1.017  0.0610 -0.0236 -0.0912
74242W        W49230  11.877  16.277   7.258 -0.1967 -0.3489  0.3525
74243W        W49231  18.596   5.292  22.987 -0.2006  0.0049 -0.1344
74244W        W49232   8.535   6.861   1.637 -0.0074  0.3089 -0.1090
74245W        W49233  14.439  11.718  21.315 -0.2030  0.0943 -0.4218
74246W        W49234  29.266  25.581  15.272 -0.0749 -0.1452 -0.1392
74247W        W49235   3.450  32.215   7.221 -0.0363 -0.1756 -0.0685
74248W        W49236  20.649   3.350   0.658  0.2225  0.1766  0.1093
74249W        W49237   8.066  32.401   2.812  0.2049 -0.1744 -0.0997
74250W        W49238  14.464  24.305   7.338  0.0969 -0.1304 -0.0103
74251W        W49239   8.593  10.496  25.223  0.1034 -0.0663  0.1015
74252W        W49240  13.779   7.637  24.064  0.2818  0.4105  0.1365
74253W        W49241  29.616  24.287  18.031  0.0618  0.0395 -0.1453
74254W        W49242  18.344  21.980   7.704 -0.0495 -0.0324 -0.0147
74255W        W49243   1.028  17.087  13.298  0.3444 -0.0722  0.2240
74256W        W49244  15.988   9.929  21.288  0.3151 -0.0962 -0.0471
74257W        W49245  16.586  20.584  25.912  0.3949 -0.0308 -0.1886
74258W        W49246  28.778  12.925  14.918  0.0575  0.0825 -0.2454
74259W        W49247  32.617  12.790  23.054 -0.2232  0.2485 -0.0518
74260W        W49248   7.226  26.625   6.632  0.3223  0.1237 -0.1023
74261W        W49249  24.908   3.358   6.539  0.2939  0.3525 -0.3410
74262W        W49250  14.513  14.208  24.602  0.2763  0.1187 -0.1662
74263W        W49251  33.949  16.893  10.096 -0.3835  0.0781  0.3128
74264W        W49252  31.297  25.149  19.439 -0.2705  0.0631 -0.1634
74265W        W49253  33.770  15.613  15.780 -0.2676 -0.1208  0.1295
74266W        W49254   5.632  28.748   8.365  0.0946  0.3217  0.0342
74267W        W49255  15.251   3.649   6.003 -0.2582  0.2019  0.1129
74268W        W49256  26.858  22.402  20.776  0.0328  0.1577  0.1644
74269W        W49257   8.621  22.403   2.211  0.3696 -0.2684  0.0338
74270W        W49258  10.859  21.213  24.371  0.2648  0.0895  0.0771
74271W        W49259  15.894   7.792   6.263  0.1301 -0.1658 -0.2110
74272W        W49260  34.282  27.220  20.232  0.1703 -0.2753 -0.1495
74273W        W49261   9.605   0.724  15.700 -0.2911 -0.1561  0.1821
74274W        W49262  15.469  22.495  15.500 -0.0691 -0.0740  0.0885
74275W        W49263  33.241  18.725  22.042 -0.1051  0.4408 -0.3512
74276W        W49264  32.634  33.431  20.987 -0.0132  0.0880 -0.2407
74277W        W49265   0.924  14.614  22.646 -0.0401 -0.2744 -0.1435
74278W        W49266   3.159   7.257  19.156 -0.0907  0.2861 -0.2030
74279W        W49267  31.106  13.741  21.664 -0.0563  0.2260 -0.1922
74280W        W49268  16.815  19.835   2.107 -0.2064  0.1305  0.0699
74281W        W49269  12.856  14.983  13.734  0.1733  0.0345  0.3496
74282W        W49270  32.787   8.551  24.927 -0.3639 -0.1161  0.0639
74283W        W49271  32.004  21.110  26.227 -0.1147  0.0727 -0.0093
74284W        W49272  22.910  25.501   2.892 -0.2263  0.0691 -0.0725
74285W        W49273  15.170  17.038   5.597  0.1192  0.1944 -0.1427
74286W        W49274  31.810   1.854  20.369 -0.0147 -0.0387  0.1700
74287W        W49275  20.626   0.469  19.114  0.1808  0.0570  0.0017
74288W        W49276   4.490   1.845   0.356 -0.1317 -0.0050 -0.1659
74289W        W49277   4.182   9.144   5.759 -0.3755  0.1777  0.1533
74290W        W49278  23.669  28.445  22.826  0.0824 -0.1482  0.3071
74291W        W49279  13.470  32.859   3.508  0.2729 -0.1852  0.3279
74292W        W49280   9.142  31.010  12.348  0.2291  0.0758 -0.0235
74293W        W49281  24.818  13.848   8.381 -0.1013 -0.0208 -0.0622
74294W        W49282  24.679  32.495  15.809 -0.2106  0.0361  0.0088
74295W        W49283  31.813  17.801  21.926  0.0547 -0.2461  0.1112
74296W        W49284  16.651   7.382  13.810 -0.1434  0.2459  0.0739
74297W        W49285  15.960  14.855   9.652  0.0269 -0.2169 -0.1088
74298W        W49286  12.531  27.192   6.442  0.0530 -0.1702 -0.3184
74299W        W49287  32.798  31.169  14.071 -0.0445  0.2071 -0.0117
74300W        W49288   8.159  17.934  20.036 -0.2306  0.1343  0.1859
74301W        W49289  28.825  26.039  14.625  0.2474 -0.1676 -0.0176
74302W        W49290  20.337  30.529  16.691  0.0203  0.0572 -0.0412
74303W        W49291  18.763   3.086  15.849  0.0494  0.0536  0.1340
74304W        W49292  17.312  26.411  20.246 -0.0078 -0.0780  0.0560
74305W        W49293   1.782   1.183  17.488  0.0063  0.1296 -0.1260
74306W        W49294  30.536  21.890  21.613 -0.0918  0.1123  0.1460
74307W        W49295  32.832  18.218  22.754 -0.1519 -0.2721 -0.0074
74308W        W49296  24.326  19.492  12.373  0.1643  0.3213 -0.0370
74309W        W49297  30.445   2.228  21.687 -0.1599  0.2863  0.0703
74310W        W49298   4.912  20.058   0.072 -0.0008  0.2783 -0.0684
74311W        W49299  15.922  24.633  21.551  0.1604 -0.1803 -0.2839
74312W        W49300  26.987  34.696  21.807  0.3330  0.2039 -0.2029
74313W        W49301  26.685  13.170   9.754  0.0954  0.0370 -0.0963
74314W        W49302  26.954  27.717  23.858  0.1472  0.0269  0.1217
74315W        W49303  11.777   6.354   2.191 -0.0753 -0.0278  0.3333
74316W        W49304  31.549   7.600   1.003  0.0564  0.2044  0.1186
74317W        W49305  32.206  10.465  19.545  0.1384 -0.3232 -0.0747
74318W        W49306  33.584  10.192   1.114 -0.2484  0.0257 -0.2926
74319W        W49307  30.535  18.331  24.443 -0.0721  0.0213 -0.2349
74320W        W49308   6.884  26.180   9.277  0.0077  0.2192  0.2701
74321W        W49309  34.705  15.045  10.913 -0.1379  0.0951  0.0923
74322W        W49310  16.844  30.174  21.417  0.3190  0.3286  0.0643
74323W        W49311  23.603  35.287  13.751 -0.2824 -0.3261  0.2534
74324W        W49312  11.515   6.895  23.588 -0.2972  0.1803  0.3077
74325W        W49313  13.987  17.753  15.192  0.1544 -0.0629 -0.0625
74326W        W49314  14.394  33.340  25.377  0.4825  0.2175 -0.2006
74327W        W49315   4.536  25.301   5.686 -0.0520 -0.1889 -0.0863
74328W        W49316  16.280  12.600  22.606 -0.0023  0.1087  0.2143
74329W        W49317   3.531  29.128   0.571  0.0242 -0.1516  0.1522
74330W        W49318  16.696   8.577   7.926 -0.2465 -0.0092  0.4303
74331W        W49319  20.821  35.361  24.107 -0.1791  0.0639 -0.2292
74332W        W49320  35.330  13.650  16.508 -0.3519 -0.2519 -0.4295
74333W        W49321  18.273  19.768  20.113  0.1620 -0.2844 -0.1312
74334W        W49322   1.660   0.399   1.885 -0.1112  0.0368 -0.1357
74335W        W49323   0.206  15.681  24.237  0.0459 -0.2649 -0.0358
74336W        W49324  26.363   8.199  19.403  0.0572 -0.0481 -0.0781
74337W        W49325  20.169  30.207   0.881 -0.1745 -0.0134 -0.4277
74338W        W49326  27.113  29.471  21.275  0.0659  0.1481 -0.0190
74339W        W49327  23.592  13.513  22.831 -0.3411 -0.1828  0.0854
74340W        W49328   8.215  34.156  24.002  0.2000  0.1034  0.2334
74341W        W49329  17.965  17.021   0.575  0.0004  0.0206 -0.0547
74342W        W49330   5.435  28.949   4.330 -0.0096  0.2133 -0.2231
74343W        W49331  12.549  18.065   7.564  0.4318 -0.1354  0.1726
74344W        W49332  22.908  32.868   5.280 -0.4882  0.0559 -0.2107
74345W        W49333  15.360  23.157  13.558  0.3284 -0.1145 -0.0791
74346W        W49334  28.273  18.298   6.284 -0.2465  0.2435  0.0007
74347W        W49335  13.275  32.198   8.752  0.0350 -0.1432  0.1960
74348W        W49336  13.002   6.256   4.452  0.1402  0.2450 -0.1599
74349W        W49337   1.244  21.215  12.158 -0.1083 -0.0306  0.2006
74350W        W49338  11.317   5.084  19.491  0.0241 -0.0864  0.0124
74351W        W49339  28.163   5.445   1.632  0.2924 -0.1561  0.1238
74352W        W49340   3.270  14.051  25.539 -0.0836 -0.0396 -0.0449
74353W        W49341   7.181  33.812  25.348 -0.1114  0.1553  0.0335
74354W        W49342  10.405  19.069  20.848 -0.1357  0.0382 -0.2061
74355W        W49343  22.716  29.875  12.365  0.0601 -0.0222  0.2994
74356W        W49344  11.921  27.247   7.587 -0.1752 -0.4736  0.1389
74357W        W49345  33.668  20.891   8.566 -0.1876  0.2210  0.1052
74358W        W49346  16.874  14.617   0.518 -0.1178 -0.1011 -0.0710
74359W        W49347  28.995   2.879  15.320  0.0324 -0.1435 -0.0834
74360W        W49348   1.950  12.190  25.898  0.0300 -0.1850  0.1750
74361W        W49349  20.041  21.167   3.055 -0.0445 -0.2084  0.0043
74362W        W49350  14.169  11.776   1.687  0.2412 -0.1123 -0.0254
74363W        W49351  13.995   0.961   1.593 -0.1176 -0.3333 -0.2795
74364W        W49352  29.081   9.748  12.974  0.1089  0.3520  0.0413
74365W        W49353  24.907   7.857   1.420 -0.3989  0.0283  0.2060
74366W        W49354   9.738  22.605  11.564  0.0575  0.1645 -0.3295
74367W        W49355  34.903  19.208   0.142  0.2318 -0.0531 -0.2463
74368W        W49356  30.594  18.939  14.671  0.0210  0.0635 -0.2811
74369W        W49357  26.717  26.041  16.017 -0.2100  0.1061 -0.1218
74370W        W49358   1.823   7.667  16.309  0.0281  0.0938 -0.0103
74371W        W49359  31.013  12.474   0.199 -0.2370 -0.2278 -0.3728
74372W        W49360  20.467  13.979  16.453  0.4025  0.0651 -0.1568
74373W        W49361  15.327   9.588   7.305 -0.0114 -0.3362  0.1649
74374W        W49362   4.994   4.267  10.129  0.0018 -0.0370  0.0629
74375W        W49363  10.584   8.145   2.133  0.1459 -0.1010 -0.2053
74376W        W49364  21.999  35.080  15.651  0.2304  0.0606  0.1489
74377W        W49365  27.939  17.442  15.073  0.1684 -0.3542 -0.3122
74378W        W49366  23.020  27.024  24.398 -0.2781 -0.0275  0.1222
74379W        W49367  23.712  29.404  20.658  0.1040 -0.3754  0.2955
74380W        W49368   7.229  26.523   9.453  0.0132 -0.0078  0.0482
74381W        W49369  33.125  33.724  20.281 -0.0829  0.0879  0.2044
74382W        W49370   0.547   1.719  23.032  0.1679 -0.0222  0.1502
74383W        W49371  26.150  20.248  24.661 -0.2554 -0.1314 -0.1463
74384W        W49372  29.718  19.097   5.599 -0.2610 -0.0771 -0.2551
74385W        W49373   2.216   4.654   2.655 -0.3559 -0.0932 -0.1786
74386W        W49374  34.663  32.235  15.714  0.0727  0.1170  0.0626
74387W        W49375  10.135   3.648   6.912 -0.1026  0.4662 -0.0841
74388W        W49376   2.664  24.057   2.674  0.0522 -0.0430 -0.2194
74389W        W49377   2.017  18.425  10.998  0.2477 -0.1826  0.0348
74390W        W49378  23.495   7.314   2.488 -0.0620  0.1843 -0.1812
74391W        W49379  18.809  19.420  19.040 -0.2306 -0.2054  0.4963
74392W        W49380  25.302  26.400  15.180 -0.1278 -0.1598  0.3916
74393W        W49381  30.771  28.351  11.678 -0.0856 -0.2509 -0.0382
74394W        W49382  32.593   5.101  25.840 -0.1505  0.1279 -0.0414
74395W        W49383  32.267  21.354  14.413  0.1002  0.1871 -0.0653
74396W        W49384  22.452  21.971  14.191 -0.0102 -0.0084 -0.0577
74397W        W49385  15.645  11.487   0.127 -0.2170 -0.1396  0.0814
74398W        W49386  26.621   3.363   5.618  0.2000  0.0266 -0.2519
74399W        W49387  33.752   9.815  13.261  0.0142 -0.3672 -0.1855
74400W        W49388  25.754  17.242  12.712 -0.1609  0.3445 -0.2814
74401W        W49389  23.389   3.774  20.293  0.0059 -0.0377 -0.1625
74402W        W49390   9.089  12.696   5.624 -0.2285  0.3546  0.2896
74403W        W49391  25.268  20.492  18.527 -0.0327  0.1957 -0.0090
74404W        W49392  10.779   3.662  22.360  0.2188 -0.0507  0.1604
74405W        W49393  14.974  21.554   4.636  0.0894  0.0299  0.2406
74406W        W49394  21.007   7.524  19.153 -0.1903  0.0283 -0.2044
74407W        W49395  16.271  15.715   2.483 -0.1375  0.1792  0.0734
74408W        W49396  22.838  17.084   0.269  0.2009 -0.1777  0.0572
74409W        W49397  27.538   1.073  14.776 -0.0106  0.0866  0.2551
74410W        W49398   5.117  13.744  18.799 -0.2551 -0.2434 -0.0551
74411W        W49399  22.744   4.646  22.678 -0.1851 -0.1403 -0.0856
74412W        W49400   8.655   0.770   1.643  0.0649 -0.4383  0.0177
74413W        W49401  34.348   1.296   7.100 -0.3630  0.1540  0.0748
74414W        W49402   9.846  26.682  25.939  0.0851 -0.0176 -0.0484
74415W        W49403  30.295   0.737  21.900  0.1627 -0.3457 -0.0655
74416W        W49404  33.764  18.398  14.457 -0.1231 -0.2787 -0.0306
74417W        W49405   1.161   7.628  14.595 -0.2395 -0.0421 -0.0989
74418W        W49406  16.355  25.326   2.691 -0.0959 -0.3328 -0.0954
74419W        W49407   3.561  27.292   1.634  0.1213 -0.1193 -0.0283
74420W        W49408   5.261  15.644   8.729  0.2448  0.3309 -0.0419
74421W        W49409   3.868  10.112  17.186 -0.1137  0.1078  0.2439
74422W        W49410  21.767  34.200  20.336  0.1129 -0.0140 -0.0244
74423W        W49411   2.194  13.842  22.446  0.0965 -0.1143  0.1266
74424W        W49412   1.337  22.715  20.146  0.3190 -0.2064  0.0241
74425W        W49413  15.185  15.170  14.334  0.0504 -0.2745  0.2667
74426W        W49414   7.890  31.819   3.642 -0.1333 -0.2863 -0.1061
74427W        W49415  33.960  12.794  22.252 -0.0935  0.4681 -0.2787
74428W        W49416  28.494  18.709  25.262 -0.0620  0.1805 -0.1612
74429W        W49417  32.133  24.837  24.647  0.1336 -0.4270  0.0821
74430W        W49418  26.552  14.397   8.055 -0.1921 -0.1889 -0.0076
74431W        W49419  22.937   0.646  24.318  0.1360  0.1774 -0.2195
74432W        W49420   4.652  34.360   2.666  0.0242 -0.0366 -0.1204
74433W        W49421   4.687  19.859  16.824 -0.1841  0.0453  0.0768
74434W        W49422  13.531  18.810  25.880  0.3945  0.1103  0.3067
74435W        W49423  23.473  33.910  16.366 -0.0314  0.0070 -0.3097
74436W        W49424  30.985   9.149  14.542  0.0131 -0.1182 -0.1783
74437W        W49425  13.412  21.564   2.302 -0.1295  0.2748 -0.0891
74438W        W49426  10.002   6.810  13.714 -0.1021 -0.2286  0.0194
74439W        W49427   3.638  28.361   2.376 -0.0628 -0.0394  0.2640
74440W        W49428  28.322  28.378  20.502 -0.2298  0.0693  0.1522
74441W        W49429  34.541   2.572  24.842  0.0075 -0.0487  0.0079
74442W        W49430   6.918  25.017  21.694  0.0745 -0.1512  0.3154
74443W        W49431  17.906  30.426  25.192  0.2210  0.0842  0.0062
74444W        W49432   7.919  23.918   4.793  0.0100 -0.0718 -0.3054
74445W        W49433   8.959   8.986   6.705  0.3312  0.2825 -0.0424
74446W        W49434   6.933   3.115   6.868  0.1176 -0.1180 -0.2333
74447W        W49435   4.141  16.392   3.518  0.0413 -0.1199 -0.2757
74448W        W49436  23.881  22.014  25.367 -0.2134  0.4241  0.0651
74449W        W49437  15.468  13.175  20.616  0.0822 -0.2032 -0.1188
74450W        W49438  17.387   9.361  20.301  0.0687  0.3034  0.1485
74451W        W49439   5.495   8.857  19.002 -0.2775 -0.0626  0.0905
74452W        W49440  31.503  35.189   4.021 -0.0273 -0.1296 -0.1492
74453W        W49441  18.884   0.311   2.956 -0.0494 -0.2602 -0.1043
74454W        W49442  24.711  32.831   4.360  0.0831  0.2709 -0.1267
74455W        W49443   5.597  32.893  11.318 -0.4402 -0.2076 -0.3437
74456W        W49444   3.075  16.429  14.556  0.0006 -0.0412  0.1891
74457W        W49445  27.314  28.327  17.442  0.2627  0.0864 -0.1569
74458W        W49446  33.548   9.128  12.704 -0.0085  0.1662  0.3817
74459W        W49447  16.998  34.404   4.513 -0.1311 -0.0361  0.0440
74460W        W49448   4.258  10.659   3.910 -0.0532  0.1749 -0.1057
74461W        W49449  16.816  28.607   6.407  0.0607 -0.1358  0.2913
74462W        W49450   0.203  11.792   0.711 -0.1375  0.2795  0.0180
74463W        W49451  19.349  21.240  22.067  0.1123  0.1109  0.1929
74464W        W49452  11.902  27.089  15.064  0.0982 -0.1852  0.1185
74465W        W49453   0.061  10.482  10.959 -0.2476  0.0390  0.2886
74466W        W49454  25.277  28.527  15.568  0.3788  0.0946  0.0054
74467W        W49455  18.610  13.148  23.977  0.0718  0.0728 -0.1529
74468W        W49456   7.226   0.957  25.537 -0.0708 -0.4768 -0.0715
74469W        W49457  32.364  28.624  17.773 -0.0464 -0.0334 -0.1305
74470W        W49458  32.096  13.672   5.141 -0.2706  0.1916  0.0797
74471W        W49459   7.371  34.682  14.606 -0.1283 -0.1371  0.0024
74472W        W49460  29.621   1.795  15.021  0.0771 -0.1463  0.1040
74473W        W49461  28.044  23.847  21.480 -0.0801 -0.2055 -0.0009
74474W        W49462  27.630   5.784   2.181  0.0736 -0.0877  0.1024
74475W        W49463  15.093  16.966   6.145 -0.2319 -0.0388 -0.1452
74476W        W49464  16.405   5.708   1.565  0.0505 -0.1475 -0.0289
74477W        W49465   4.188  33.239   9.941  0.1606  0.2713 -0.0969
74478W        W49466  12.866  35.326  11.958  0.1000 -0.0175  0.1073
74479W        W49467   2.452  13.682  18.063  0.2824  0.1404  0.2910
74480W        W49468  12.280   4.308  20.355 -0.1132 -0.0979  0.1579
74481W        W49469  14.794  23.623   7.927  0.2144 -0.0171  0.2194
74482W        W49470  18.477  33.395   2.259 -0.1445  0.1726  0.0927
74483W        W49471  28.834  27.330  15.626 -0.2172  0.4291  0.1009
74484W        W49472   5.451  27.599   1.163 -0.0130 -0.0176 -0.1659
74485W        W49473   1.590  26.927   7.076 -0.0276 -0.0483 -0.4198
74486W        W49474   3.325  13.864   1.587 -0.0692  0.1751  0.1067
74487W        W49475  28.223  25.052  10.307 -0.1769 -0.1556 -0.0762
74488W        W49476  16.417  18.903   3.266  0.2110  0.1269  0.1237
74489W        W49477  27.343  12.709   6.950  0.0202 -0.0188  0.0293
74490W        W49478  17.216  21.109  23.739 -0.1473  0.0975 -0.0102
74491W        W49479   3.978   4.072  25.909  0.0579  0.1653 -0.0120
74492W        W49480   6.577  11.350   0.687 -0.1224  0.0085 -0.1928
74493W        W49481  16.183   2.909  22.663 -0.3633 -0.1027  0.0200
74494W        W49482  28.467  15.809   9.161  0.2362  0.0199 -0.2727
74495W        W49483   5.871  15.352  21.508  0.2827 -0.2208  0.1344
74496W        W49484  16.674   7.924   6.424 -0.0617 -0.1691  0.0335
74497W        W49485   7.051   2.709  22.625  0.2523  0.2908 -0.2726
74498W        W49486  30.178  26.539   9.255 -0.2369  0.1489 -0.0049
74499W        W49487  21.222   8.751   1.305 -0.2046 -0.1537  0.2001
74500W        W49488  30.018  12.840  21.401 -0.2371  0.0899 -0.0247
74501W        W49489   3.906   5.922   4.323 -0.1668  0.1127 -0.2266
74502W        W49490  25.893   1.599  15.283 -0.2910  0.2240  0.1360
74503W        W49491  15.148  31.027  10.679  0.0011 -0.3331 -0.3526
74504W        W49492  11.152  18.602   5.857  0.2413  0.1361 -0.0722
74505W        W49493  17.511   5.958   4.237  0.2505 -0.1303  0.0199
74506W        W49494  35.085  19.846  22.062 -0.1658 -0.2137 -0.1364
74507W        W49495  11.799  26.030  11.395  0.0794  0.0553 -0.1118
74508W        W49496  26.865   9.612  22.550 -0.5057  0.2666 -0.1077
74509W        W49497  17.965  13.268  20.964  0.0565  0.2852 -0.0651
74510W        W49498  28.327   4.614   3.214  0.1759  0.1197 -0.1267
74511W        W49499  10.601   6.339  26.112 -0.0146 -0.0078  0.0586
74512W        W49500   1.494  31.417  25.059 -0.0321  0.0428 -0.1952
74513W        W49501   7.098  24.661   3.865  0.3425  0.0539  0.4625
74514W        W49502  29.328  16.559  20.053  0.1906 -0.2502  0.1288
74515W        W49503   0.958  14.602   0.330  0.4035  0.0264  0.2164
74516W        W49504  35.167  27.008   4.004 -0.4764  0.2385 -0.0160
74517W        W49505  23.403  24.171  16.341 -0.3241  0.0471  0.2300
74518W        W49506  28.845   4.489  24.262 -0.0389 -0.0989 -0.0580
74519W        W49507   8.043  12.588   2.581 -0.2260  0.0312  0.1434
74520W        W49508  27.942  14.209  14.614 -0.1576  0.0160  0.0044
74521W        W49509  23.721  26.321  16.254 -0.1147 -0.3481 -0.2491
74522W        W49510   7.573  27.522  13.115  0.2857 -0.3662 -0.3826
74523W        W49511  13.650  32.408   4.804 -0.4464 -0.0104 -0.1924
74524W        W49512  22.131  27.914  24.961  0.0802  0.3455 -0.4658
74525W        W49513  16.745  17.244  11.440 -0.0662 -0.1568  0.3724
74526W        W49514  12.518  19.427  24.890  0.1906  0.2034  0.3652
74527W        W49515  14.330  17.889  14.161 -0.1349  0.0129 -0.0744
74528W        W49516  10.375   9.167  19.584 -0.0756 -0.2144  0.2106
74529W        W49517  28.062  14.295   9.294 -0.0461 -0.4044  0.2290
74530W        W49518  16.820  13.305  22.384 -0.0747  0.1267  0.1877
74531W        W49519  31.902   9.104  21.195  0.1099 -0.2650  0.0271
74532W        W49520   0.538  29.962  15.924 -0.3592  0.3468 -0.1961
74533W        W49521  16.496   1.364   0.670  0.0950 -0.1194 -0.1327
74534W        W49522  16.909  21.380  20.093  0.0769 -0.0798  0.0391
74535W        W49523  12.243  19.228   6.468  0.2136 -0.1488 -0.1692
74536W        W49524   7.125  32.539   6.984 -0.1657  0.1019 -0.2040
74537W        W49525  33.428  20.813  14.952 -0.1407 -0.2079  0.2040
74538W        W49526   0.447  33.129  20.997 -0.0073  0.4444  0.1142
74539W        W49527   2.652  20.348  19.272 -0.0565  0.0331  0.0820
74540W        W49528  27.309  35.274   1.133 -0.1697 -0.0482  0.0382
74541W        W49529   6.069   2.850  22.708  0.0411 -0.1245 -0.1898
74542W        W49530   4.871  15.721  19.817  0.3818  0.0235 -0.0031
74543W        W49531  28.287   7.180   1.982 -0.1440  0.1114 -0.0115
74544W        W49532  24.069  29.152  24.559 -0.2409 -0.0457 -0.1399
74545W        W49533  28.418   1.187  20.639  0.4726 -0.0863 -0.0092
74546W        W49534   4.970  30.459   7.252  0.1346 -0.1831 -0.3257
74547W        W49535  19.317  17.648   3.611  0.0819  0.0966  0.0246
74548W        W49536  19.718   3.590   6.673  0.0410  0.1051 -0.0253
74549W        W49537  13.620  17.837  21.202 -0.0510  0.0066 -0.1508
74550W        W49538  28.295   9.456   9.298 -0.3699 -0.2397  0.2462
74551W        W49539  34.005   7.295  19.714  0.1102  0.3389 -0.0090
74552W        W49540  32.212  22.864  13.413 -0.0819  0.3160  0.2030
74553W        W49541  31.615  20.291   9.227  0.2452 -0.1640  0.0182
74554W        W49542  26.462  34.630  12.260 -0.1009  0.1054 -0.2000
74555W        W49543  15.455   5.633  18.760 -0.0371 -0.0086 -0.0851
74556W        W49544   9.346  15.784  23.987 -0.0399 -0.0609 -0.2245
74557W        W49545  35.188  10.565  12.919  0.1131  0.0644 -0.1846
74558W        W49546  29.820  15.481  21.969  0.1897 -0.0837 -0.1361
74559W        W49547   6.393  15.588  18.636  0.3616  0.2026 -0.2157
74560W        W49548  32.450  19.091   5.860 -0.2230 -0.3141 -0.1747
74561W        W49549  28.663  22.325   4.902 -0.1860  0.0399 -0.2243
74562W        W49550  25.329  15.958  12.252  0.1908  0.0810 -0.1458
74563W        W49551  25.653  33.269   3.891 -0.0754 -0.2872  0.0259
74564W        W49552  32.333  32.166   0.840  0.1347 -0.0053  0.1637
74565W        W49553   3.767  32.879   1.446 -0.2417  0.1517 -0.0849
74566W        W49554   5.474  28.084  22.302  0.0590 -0.0004  0.1015
74567W        W49555   9.565  15.368   4.755  0.3295 -0.0973  0.0711
74568W        W49556  16.281  32.138  25.075 -0.0774  0.3424 -0.1969
74569W        W49557  13.093  24.302  10.537 -0.0803 -0.0301 -0.1985
74570W        W49558  25.287  30.996  16.710 -0.0097 -0.0750 -0.0902
74571W        W49559   5.472  18.687  19.132  0.0056 -0.0577 -0.1310
74572W        W49560   5.304  32.275   8.708  0.0962 -0.0140 -0.0800
74573W        W49561   2.577  33.648  25.954 -0.0020  0.2932  0.1116
74574W        W49562  34.788   5.729  20.020 -0.0834 -0.0380  0.0673
74575W        W49563  16.315   7.351   3.102 -0.1411 -0.0247 -0.2641
74576W        W49564   3.097  10.819  20.982 -0.2824  0.1599  0.3397
74577W        W49565  32.149   8.036  25.713 -0.1472  0.2637  0.1399
74578W        W49566  24.437   4.623   6.619 -0.0323 -0.2049  0.0727
74579W        W49567  12.829  11.564   1.361  0.2216  0.5287 -0.0388
74580W        W49568   6.154  12.204   6.133 -0.0973 -0.2323  0.1598
74581W        W49569   4.911  15.151  19.755  0.2204 -0.1004  0.1974
74582W        W49570  19.199  13.998   8.629  0.1874 -0.1590 -0.1243
74583W        W49571  29.154  12.722  18.262  0.2060  0.4342  0.1700
74584W        W49572   1.306  14.994   1.727 -0.1572  0.0870 -0.2408
74585W        W49573   7.495   5.724   5.583  0.2044  0.3474  0.5640
74586W        W49574   7.974   6.488  12.399 -0.1570  0.0546  0.2435
74587W        W49575  23.411   1.550   4.435 -0.0721 -0.0760 -0.0850
74588W        W49576  10.651  13.585   1.308  0.2054  0.1783 -0.1767
74589W        W49577   4.311  10.122   2.892 -0.2757 -0.2341  0.2512
74590W        W49578  13.144  21.708   9.655  0.1951  0.0629  0.1294
74591W        W49579  16.095  25.363  24.167  0.2862 -0.3894  0.0337
74592W        W49580   4.848  29.181   4.087  0.3501 -0.3346 -0.1665
74593W        W49581  21.279   4.842   6.424 -0.0074  0.2160 -0.0253
74594W        W49582  25.209  22.508  20.633  0.1634 -0.1236  0.0561
74595W        W49583  15.350  21.862  16.692  0.0401  0.1083  0.2279
74596W        W49584  10.262   4.717   6.107 -0.1324  0.1651  0.2978
74597W        W49585  27.252  20.472  14.949 -0.0388  0.0873 -0.0005
74598W        W49586   7.733   7.770  13.179 -0.0725  0.0747  0.2352
74599W        W49587   8.989  14.712   0.570 -0.0443 -0.1483 -0.1672
74600W        W49588   7.034  22.130   7.390  0.2833  0.0983  0.2867
74601W        W49589  10.280  20.851  24.902  0.1197 -0.0607  0.0790
74602W        W49590  34.764  32.263  19.336  0.0072 -0.1153  0.0510
74603W        W49591  32.753  16.557  21.926  0.1100 -0.2566  0.0243
74604W        W49592   6.899  27.843  23.604  0.1346 -0.2444  0.2946
74605W        W49593  30.240  32.065  15.074 -0.1196 -0.0568 -0.0958
74606W        W49594  28.505  22.477  22.560 -0.1632  0.1080 -0.0285
74607W        W49595   9.249  16.804   9.408 -0.2180 -0.0120 -0.0559
74608W        W49596  14.565   3.721  20.992  0.0594  0.1302  0.3223
74609W        W49597  26.611  24.900  24.876  0.0073  0.0133  0.2426
74610W        W49598  10.035  14.256   4.461  0.0260 -0.1076  0.0355
74611W        W49599   3.694  12.171  16.500 -0.0087  0.3862 -0.1150
74612W        W49600   1.575   5.731  14.672  0.2466 -0.1538  0.0358
74613W        W49601  17.209  24.713   6.767 -0.0633  0.1446 -0.0733
74614W        W49602   7.645  28.634  21.390 -0.1157  0.0238  0.2371
74615W        W49603  34.962  26.041  13.870 -0.1862  0.0545  0.1263
74616W        W49604  26.692  14.109  12.271  0.0994 -0.2947  0.3051
74617W        W49605  27.835  11.789   6.728 -0.3897  0.1233 -0.2955
74618W        W49606  31.693   8.342  21.175  0.0814  0.0236  0.2320
74619W        W49607  22.149  30.019   1.486  0.0506  0.1991 -0.2203
74620W        W49608   4.515  27.266  20.732 -0.1976 -0.2618 -0.3528
74621W        W49609  29.509   1.125  15.583  0.1511  0.2432 -0.3321
74622W        W49610   5.878  27.252  25.652 -0.0984 -0.0201 -0.0816
74623W        W49611   6.778   7.387   6.474 -0.2319 -0.0642  0.0457
74624W        W49612  25.782  16.057  13.793 -0.2607 -0.1654  0.0761
74625W        W49613  27.451  29.774  23.330 -0.0404 -0.1399 -0.0859
74626W        W49614  11.353  18.802   7.963 -0.0597  0.3423  0.0678
74627W        W49615  21.501   3.753   0.457 -0.0365  0.1342  0.1470
74628W        W49616   7.705  28.914  14.723  0.4024  0.0903  0.0558
74629W        W49617  27.541   8.821  18.828  0.1593  0.2804  0.2351
74630W        W49618  20.513   9.415  23.111  0.3335  0.0342 -0.1762
74631W        W49619   8.966  14.311  11.172 -0.0424  0.0607  0.0580
74632W        W49620  14.604   3.710  10.686 -0.1977 -0.0881 -0.3515
74633W        W49621  30.513   7.790   9.703 -0.1469 -0.0127 -0.3501
74634W        W49622  35.048  13.208   9.814 -0.2602 -0.0980 -0.0770
74635W        W49623  30.101   6.918  23.036  0.1425 -0.0469 -0.0305
74636W        W49624  20.387  24.515   4.363 -0.1012  0.4282 -0.2212
74637W        W49625  12.124  16.629   3.047  0.1274  0.0879  0.1412
74638W        W49626  18.634  23.012  26.010  0.2295 -0.1894  0.0641
74639W        W49627   2.407  13.246  21.463  0.3531  0.1915 -0.1108
74640W        W49628  34.411  17.220  23.044  0.0676  0.0107 -0.0204
74641W        W49629  32.602  15.429  20.836  0.0023 -0.0719 -0.2224
74642W        W49630   3.124  34.369  25.466  0.0658  0.3898 -0.0506
74643W        W49631  28.906  12.347  24.268  0.0497  0.0570  0.0704
74644W        W49632  31.105  26.938  20.984  0.1036  0.0149 -0.2305
74645W        W49633  17.371   3.573  21.196 -0.1756  0.1712  0.1389
74646W        W49634  13.651   7.912   2.418 -0.1978 -0.0177 -0.1342
74647W        W49635   0.046  18.871  21.286 -0.2363 -0.1435  0.1633
74648W        W49636  10.209   8.376   4.050  0.0399  0.0143 -0.2555
74649W        W49637  10.176  11.275   8.744  0.0531  0.0280  0.0255
74650W        W49638  29.692   6.423  25.653  0.0064 -0.0271 -0.0403
74651W        W49639  29.719   5.922  15.822 -0.0757 -0.1376 -0.0787
74652W        W49640  30.078   9.616  11.003  0.1546  0.1463 -0.1170
74653W        W49641  18.728   2.145   5.336  0.2000  0.1522 -0.4277
74654W        W49642  10.469  29.263  22.138 -0.0735 -0.2502 -0.1688
74655W        W49643  16.738  22.213  21.978  0.0947  0.2175  0.1082
74656W        W49644   7.652  22.638   5.511  0.2727  0.1121 -0.4699
74657W        W49645  26.511  20.189  19.381 -0.2659 -0.1428 -0.3197
74658W        W49646   6.768  25.065   7.340 -0.1477  0.1828 -0.1426
74659W        W49647  20.789   9.157  10.347 -0.5314 -0.0567 -0.0460
74660W        W49648  25.901  28.409  18.196 -0.2815 -0.1701  0.2066
74661W        W49649  14.454  22.609   4.271 -0.3495  0.1221  0.3692
74662W        W49650  18.094  16.876  11.166 -0.1793  0.0102  0.0327
74663W        W49651   2.062  31.521   8.920  0.0100 -0.0546 -0.0228
74664W        W49652  34.131  15.394  16.744  0.1289  0.0218  0.2017
74665W        W49653   5.735  29.801   6.669  0.0847 -0.0918 -0.0361
74666W        W49654   6.188  14.383   1.458  0.0494 -0.4114 -0.0371
74667W        W49655  26.600  13.415  24.658 -0.2454  0.1859 -0.1599
74668W        W49656  17.717  32.003   4.215  0.2072 -0.1184  0.3727
74669W        W49657  21.711  34.923   7.128  0.0757  0.0031  0.1525
74670W        W49658  31.919  31.147   3.074 -0.0789 -0.1425 -0.0761
74671W        W49659  25.419   0.175  15.896 -0.0418 -0.1906 -0.2514
74672W        W49660   4.682  14.791  16.388 -0.0662 -0.1943 -0.0293
74673W        W49661   6.897  20.078   2.291  0.0498  0.0507 -0.1469
74674W        W49662   6.498  18.140  20.441 -0.0375  0.0267 -0.1855
74675W        W49663  26.842  15.196  19.923 -0.0988  0.0539  0.0596
74676W        W49664  30.352  15.073  15.196 -0.1622 -0.0585 -0.2174
74677W        W49665   1.430  28.407  17.965  0.3139 -0.0455 -0.3973
74678W        W49666  15.819  29.188  21.552  0.1419 -0.0785  0.0461
74679W        W49667  33.998  22.505  25.903 -0.0782 -0.1412  0.0527
74680W        W49668  22.576  34.775   0.320  0.0020 -0.0184  0.0907
74681W        W49669  14.756  33.853   4.425 -0.0141 -0.0352 -0.0134
74682W        W49670  25.315  13.373  10.888 -0.0937 -0.0143 -0.0115
74683W        W49671  18.921  34.905   7.943 -0.1031 -0.4143 -0.1291
74684W        W49672  21.571  16.881  16.280 -0.0618 -0.1788  0.1087
74685W        W49673  12.627  28.664  23.953 -0.0711 -0.1173  0.1071
74686W        W49674   9.440  25.913   7.921  0.3294 -0.1032 -0.0887
74687W        W49675   6.534   2.825   5.791 -0.3373 -0.0522 -0.2800
74688W        W49676   6.840  20.941   2.850 -0.0761 -0.2102 -0.0737
74689W        W49677  19.433  26.158  21.943 -0.2134  0.1724  0.1971
74690W        W49678   6.947  29.156   8.384 -0.2026 -0.1545  0.1298
74691W        W49679   3.751   2.186  25.090 -0.1167 -0.1011 -0.1994
74692W        W49680  34.479  24.367  20.258  0.1220 -0.3157 -0.1050
74693W        W49681  33.640  23.037  14.618  0.1457 -0.0507 -0.3412
74694W        W49682  10.445  21.799   6.424  0.1859  0.1768 -0.1821
74695W        W49683  34.412  27.103  20.906 -0.2636  0.2110 -0.1376
74696W        W49684  25.381  27.404  25.044  0.0245 -0.3838 -0.3359
74697W        W49685  26.221  11.498  24.957  0.2144 -0.1125  0.3073
74698W        W49686  25.164   6.037  15.252  0.2204  0.0618  0.0725
74699W        W49687   7.341  33.112  13.915  0.1979 -0.0648 -0.1201
74700W        W49688  33.506  30.891   5.924 -0.0588 -0.2413 -0.0375
74701W        W49689  33.054  21.882  14.900 -0.0684  0.4494  0.0015
74702W        W49690  14.524  20.158   3.037  0.1057  0.1340  0.1915
74703W        W49691  24.684  35.203  21.663 -0.0068  0.0708 -0.1645
74704W        W49692  24.559  13.252  17.923 -0.3114 -0.2946 -0.1569
74705W        W49693   5.747   8.396   9.440 -0.3198  0.0308 -0.2302
74706W        W49694  10.098   2.636   0.566  0.0012 -0.3645  0.0683
74707W        W49695  27.588  31.886  11.759 -0.0703  0.0456 -0.0513
74708W        W49696  25.866   4.066  12.805 -0.1904 -0.0644 -0.1221
74709W        W49697  30.499  33.324  22.041  0.4848  0.2250 -0.0530
74710W        W49698   1.872   5.733   3.494  0.1798  0.4856  0.0635
74711W        W49699  13.149   1.725  24.510 -0.0103  0.4506  0.2574
74712W        W49700  28.900   4.643  17.072  0.1929  0.0052 -0.1787
74713W        W49701   6.630   1.791  11.452 -0.1296  0.2507 -0.0897
74714W        W49702  14.657   1.295   9.626  0.0263 -0.1748 -0.2150
74715W        W49703   6.197   6.002   7.916 -0.1509 -0.2348 -0.3333
74716W        W49704   8.190   2.488   9.426  0.0499 -0.0023  0.0080
74717W        W49705  13.313  31.142  11.535  0.2547  0.1301  0.2795
74718W        W49706  32.156  28.258   1.818  0.2069  0.0437  0.0889
74719W        W49707  27.334  10.120  25.627  0.0691 -0.0673 -0.1639
74720W        W49708  32.406  28.529  23.228  0.0410 -0.3947  0.1485
74721W        W49709  12.141   9.831  19.209  0.2689  0.2911 -0.1412
74722W        W49710   1.039   0.381  21.423  0.3210  0.1155 -0.1328
74723W        W49711  17.704  28.054   8.070  0.2813 -0.2581  0.2024
74724W        W49712  34.500  16.646  11.730  0.0412  0.1830  0.3197
74725W        W49713   1.502   7.972  25.590 -0.1919  0.2253 -0.1044
74726W        W49714  23.644   0.073   3.064  0.0643  0.3357  0.0814
74727W        W49715  25.301   0.695  18.174 -0.1371  0.1423 -0.1001
74728W        W49716   4.216  31.337   7.963 -0.0828  0.0754  0.3837
74729W        W49717   7.585  10.741  21.584  0.2876  0.1197 -0.0587
74730W        W49718  16.233  28.157   0.096  0.2405  0.1322  0.0011
74731W        W49719  27.205  16.217  10.167 -0.1799  0.0157 -0.1845
74732W        W49720  12.100  12.023  12.922 -0.0764 -0.1936 -0.0520
74733W        W49721   0.034   5.943  13.203  0.2722 -0.0671  0.2311
74734W        W49722   6.472  32.848  25.267 -0.0438 -0.2162 -0.4400
74735W        W49723   7.755  32.503   0.212  0.0924 -0.0993 -0.0537
74736W        W49724  22.737  17.602   1.716 -0.4150  0.1162 -0.2366
74737W        W49725  22.439  20.275  18.025 -0.0436 -0.0135  0.0008
74738W        W49726  20.651  11.265   3.709 -0.2178  0.1652 -0.2280
74739W        W49727  32.155  19.291  24.578  0.0438 -0.2717 -0.1636
74740W        W49728  17.567  23.889  11.369 -0.0756 -0.1194  0.1299
74741W        W49729  23.260   9.429  21.646 -0.0783 -0.3179 -0.0676
74742W        W49730  25.235  28.527  19.412 -0.1085  0.0663  0.1447
74743W        W49731  34.033  22.430  20.046  0.1091 -0.1487 -0.1063
74744W        W49732   5.731  28.970  21.587 -0.1304  0.0222 -0.1166
74745W        W49733  26.237  18.564  11.842  0.1019  0.1858  0.0147
74746W        W49734  32.523  19.201  12.281 -0.1216  0.0430 -0.0075
74747W        W49735  10.721  34.770   4.414  0.1518  0.0402  0.1218
74748W        W49736  23.639  10.728   1.247  0.2769  0.2136 -0.2869
74749W        W49737  23.140  19.205  22.439  0.0642  0.0948  0.0233
74750W        W49738  20.086  24.331   8.876  0.2000 -0.0391  0.1998
74751W        W49739   4.898   0.420   4.751  0.1529  0.1398 -0.0774
74752W        W49740  27.199   8.984  13.068 -0.0720  0.0571  0.0665
74753W        W49741  24.289  31.277   4.386 -0.2159  0.0212  0.1729
74754W        W49742  29.713  33.937  19.059  0.1412 -0.0458 -0.0268
74755W        W49743  11.116   1.642   1.713  0.0255  0.0439  0.0225
74756W        W49744  24.055  17.018  19.346 -0.0185  0.0822  0.0755
74757W        W49745  28.819  11.033  24.864 -0.0508  0.3943  0.1106
74758W        W49746   0.064  12.836  22.839  0.1063 -0.1999 -0.0534
74759W        W49747  10.210  12.500   8.362  0.1366 -0.0236  0.0090
74760W        W49748   4.887  24.180  21.597 -0.1459 -0.1320 -0.0742
74761W        W49749   2.637  10.241   4.233  0.0606 -0.1575  0.1334
74762W        W49750  20.802  10.975  19.084 -0.2438 -0.0344  0.2380
74763W        W49751  25.350  28.626  16.401  0.0461  0.1062  0.0562
74764W        W49752  25.217  17.525  12.059  0.2903  0.0681  0.0948
74765W        W49753  12.013  34.301   7.635  0.0280 -0.0633 -0.2363
74766W        W49754  17.895  24.914   9.064  0.4222 -0.1099  0.0826
74767W        W49755   0.229  12.156  14.607 -0.1272  0.2310  0.1896
74768W        W49756  25.794   9.364  12.252 -0.1711 -0.0369  0.1580
74769W        W49757  29.986   3.073  22.369  0.0052 -0.1784  0.1935
74770W        W49758  17.711  20.867  10.229 -0.1205  0.1205  0.2971
74771W        W49759  33.765  14.519  24.409 -0.0287  0.1217 -0.2448
74772W        W49760  32.764  32.695   2.228 -0.1091  0.1028 -0.2968
74773W        W49761   2.250  19.844  13.070  0.0843  0.0623  0.2684
74774W        W49762  15.510  20.611  22.294 -0.0662  0.2594 -0.3002
74775W        W49763   8.960  32.069   6.583  0.0848  0.1171 -0.4579
74776W        W49764  30.004  33.053   0.444 -0.0759  0.0494 -0.1309
74777W        W49765  20.298  14.340  22.015  0.1803  0.2428 -0.1453
74778W        W49766   4.065  22.901  23.055  0.3366 -0.1169 -0.0934
74779W        W49767  33.555  11.176  25.908  0.1763  0.1364 -0.2175
74780W        W49768   1.506  22.026  16.483 -0.0110  0.0482  0.1661
74781W        W49769   3.683   8.185   1.531 -0.1946  0.1303  0.0595
74782W        W49770   9.461  34.739   5.627 -0.0195 -0.1501  0.0675
74783W        W49771  34.613   1.399   2.968  0.0475  0.2455  0.0867
74784W        W49772  28.554  20.590  15.771  0.2221  0.0598  0.2710
74785W        W49773   7.964  29.665  22.385 -0.3610 -0.0683 -0.2367
74786W        W49774  32.264  13.655  12.975  0.0542  0.3909 -0.2918
74787W        W49775  22.843  23.880   3.281 -0.1134 -0.1894 -0.1933
74788W        W49776   6.319  11.157  24.560 -0.0676  0.3136  0.2958
74789W        W49777  15.158  27.733   8.936 -0.1399  0.0471 -0.2689
74790W        W49778  23.649  10.056  21.356  0.1223 -0.1903  0.2820
74791W        W49779   6.976   4.776  21.947 -0.0529  0.2513 -0.2296
74792W        W49780  19.710  24.739  24.681  0.1551  0.2179 -0.0361
74793W        W49781  11.969  21.452   2.127  0.2424 -0.3985 -0.0775
74794W        W49782  17.636  21.058  21.263 -0.0736  0.1261 -0.5200
74795W        W49783  30.493  13.475   9.864 -0.1894 -0.3011 -0.3431
74796W        W49784   6.379   2.163  19.083 -0.3958  0.5429  0.0339
74797W        W49785  30.006  29.271  19.847  0.0982 -0.1470 -0.4375
74798W        W49786  20.176  31.723  24.917 -0.2817 -0.0098  0.1406
74799W        W49787  16.769  22.453   0.929  0.2029 -0.0663  0.1479
74800W        W49788  10.837  18.908   9.522  0.1764 -0.1994  0.2128
74801W        W49789  32.591   8.772  10.891 -0.3489 -0.2420  0.1978
74802W        W49790  20.115   7.984  23.386  0.0178  0.0449 -0.2562
74803W        W49791   1.283  11.738  22.229  0.4122  0.1226 -0.1079
74804W        W49792  23.868  30.375  11.980  0.3137  0.0983  0.1411
74805W        W49793  13.189  12.540   8.658 -0.0670 -0.0144 -0.1792
74806W        W49794   7.033  30.792   9.818  0.2001 -0.3080  0.1598
74807W        W49795  21.623  28.003   4.566 -0.1184 -0.2587  0.0406
74808W        W49796  15.275   9.744   3.986 -0.0235 -0.1094 -0.1736
74809W        W49797  26.128   2.702  25.106  0.0512 -0.0152  0.0424
74810W        W49798   1.714  15.750   0.507 -0.0680  0.0879  0.0619
74811W        W49799  27.822  12.984  24.608  0.2479  0.3036  0.1681
74812W        W49800   0.588   8.731  17.129  0.1397 -0.1895  0.3520
74813W        W49801   7.628  31.888   5.336  0.3253 -0.3714 -0.0090
74814W        W49802   1.636  30.331   6.393  0.2055  0.2583 -0.2432
74815W        W49803  32.319  19.422  14.213 -0.0790 -0.2052 -0.3160
74816W        W49804  33.376  33.460  14.476  0.2114 -0.1042  0.4747
74817W        W49805   3.827  27.733  12.195 -0.2826 -0.0551 -0.3301
74818W        W49806   0.183  35.276   7.797 -0.1507 -0.0328  0.1883
74819W        W49807  33.068  15.432   0.394 -0.1637  0.0400  0.1551
74820W        W49808  23.439  25.035  25.658  0.1114  0.2170 -0.0753
74821W        W49809  18.100   6.020   7.608  0.2302  0.3594 -0.0830
74822W        W49810  33.468  34.085   5.230  0.0872  0.0780  0.1937
74823W        W49811   4.717  20.729   0.789 -0.1037  0.1327 -0.0166
74824W        W49812  17.154  31.301  25.806 -0.4210  0.0602  0.1355
74825W        W49813   7.000  10.854   5.318  0.3823 -0.3205 -0.0444
74826W        W49814   7.650  34.020  13.804  0.0303  0.0499 -0.1934
74827W        W49815   1.279  13.339  16.399  0.1035  0.0690 -0.0299
74828W        W49816  22.022  11.428   3.157 -0.0343  0.2781 -0.2042
74829W        W49817  11.066  24.279   4.331  0.2473  0.2117 -0.1141
74830W        W49818   0.570   3.544  16.055  0.0130  0.1745  0.1845
74831W        W49819  25.651  25.028  13.411  0.0388 -0.0090  0.2220
74832W        W49820  13.511  28.452   2.934  0.0122 -0.1703  0.0218
74833W        W49821  20.440   8.604  11.042 -0.2913  0.1376  0.1889
74834W        W49822  11.508   9.205  12.224 -0.0953 -0.1280  0.1170
74835W        W49823  24.009  30.102  12.423 -0.2568 -0.0126 -0.3905
74836W        W49824   4.537  15.753  19.279  0.1138  0.2813 -0.1527
74837W        W49825  13.876  21.670  11.512 -0.1403  0.0980 -0.0542
74838W        W49826  25.069  18.298  21.438 -0.1154 -0.0056  0.0492
74839W        W49827  19.998  17.769  23.445  0.2552 -0.0541  0.1989
74840W        W49828  19.625  16.644   7.890  0.1156  0.3344 -0.1679
74841W        W49829  24.185  11.404  19.132  0.0620 -0.0404 -0.0527
74842W        W49830  34.055   6.638  16.121  0.2067 -0.1432  0.0053
74843W        W49831  23.323   7.967   3.918  0.1082  0.1492  0.0777
74844W        W49832  29.421   0.266  24.257  0.0064  0.1814  0.0306
74845W        W49833  11.405   1.335   9.175 -0.0706 -0.2073  0.1585
74846W        W49834  20.073  26.994  21.758 -0.1550  0.0453 -0.3242
74847W        W49835   9.025   0.551  11.561 -0.1086  0.3217  0.5656
74848W        W49836   2.986  27.542   7.764  0.0921 -0.3495  0.0571
74849W        W49837  20.433   8.492  21.155 -0.2930  0.1967 -0.2015
74850W        W49838  14.266  26.902   1.989 -0.0086  0.1157  0.1745
74851W        W49839  15.608  15.792  11.618  0.0807 -0.0496  0.1806
74852W        W49840  24.874  23.290  21.237 -0.0017  0.0479 -0.0988
74853W        W49841  13.779  12.702  22.763 -0.3862  0.0147  0.0816
74854W        W49842  32.583  17.068  18.687 -0.0974 -0.0202 -0.0858
74855W        W49843   5.186  20.550  23.726 -0.1370  0.0004 -0.1825
74856W        W49844  32.859  19.890   9.606  0.1036 -0.2206  0.1756
74857W        W49845  27.799   1.872   3.198 -0.1137 -0.3751  0.0102
74858W        W49846  33.904  14.159  12.536  0.0878 -0.1025  0.0966
74859W        W49847   7.502  13.807   0.043  0.4229 -0.0889 -0.0748
74860W        W49848  21.527  31.310  19.821  0.2803  0.2041  0.0163
74861W        W49849  23.096  20.201  15.978  0.1722  0.2745  0.3654
74862W        W49850  33.193  22.387  25.220 -0.0352  0.1868 -0.1564
74863W        W49851   3.586  16.703   0.557 -0.0585 -0.0835  0.0982
74864W        W49852   1.831   6.657   3.168 -0.1928 -0.1028  0.1394
74865W        W49853   9.056  28.239  10.596  0.1964 -0.0358  0.0157
74866W        W49854  12.110   2.673   1.910  0.3332  0.4676 -0.0362
74867W        W49855  22.661  11.315  16.120 -0.2613  0.2206 -0.2478
74868W        W49856  22.027  28.826  12.164 -0.3298 -0.0410  0.0236
74869W        W49857  18.931  33.625  19.838 -0.1514 -0.4352 -0.1492
74870W        W49858  29.066  20.383  11.095 -0.0435 -0.2514  0.1149
74871W        W49859  12.976  22.170  24.205  0.2498 -0.0999  0.2889
74872W        W49860  29.817  32.762  21.601  0.1806  0.1033 -0.0899
74873W        W49861  24.634  35.203  24.599  0.4002  0.1121 -0.0559
74874W        W49862   0.790  16.756  20.709 -0.2456 -0.0379 -0.1212
74875W        W49863  22.172  29.875  19.580 -0.0630  0.2404 -0.1040
74876W        W49864  34.493   5.542   2.493  0.2976  0.0414  0.1300
74877W        W49865  20.297   8.202  21.544 -0.0947  0.2753  0.1438
74878W        W49866  14.546   4.896  21.831 -0.0511  0.0366  0.0213
74879W        W49867  19.357  24.492   6.107  0.0227  0.0232 -0.3312
74880W        W49868  23.632  16.169  18.247  0.0365  0.3530  0.6457
74881W        W49869  31.569   1.327  13.623 -0.0257  0.0295 -0.1363
74882W        W49870  14.078   0.665  21.182  0.0649 -0.0822 -0.2950
74883W        W49871  27.155   7.620  22.157  0.1999  0.0621 -0.0523
74884W        W49872  14.839  31.337  10.441 -0.2593 -0.0784  0.2210
74885W        W49873  13.691  22.751  10.726  0.2945 -0.2518  0.0101
74886W        W49874   0.434   0.372   3.007 -0.2744  0.1523 -0.1448
74887W        W49875  33.096  14.496   0.241  0.1014  0.1885  0.0025
74888W        W49876   1.060  18.402  26.216 -0.1100  0.3095 -0.0813
74889W        W49877  19.451  25.993   2.686 -0.1912  0.2332  0.2133
74890W        W49878  32.651   5.591   0.629  0.2223 -0.0349  0.1113
74891W        W49879  24.397  27.770  18.860 -0.0672  0.0592 -0.1178
74892W        W49880   7.139  26.385  12.291 -0.0993  0.0904 -0.1115
74893W        W49881   1.562  24.934  21.998 -0.1033  0.0636 -0.1374
74894W        W49882  30.825  30.438  21.833  0.1753 -0.1053  0.0015
74895W        W49883   1.759  22.775  12.090  0.3415 -0.0333 -0.1547
74896W        W49884  11.490  12.398   1.327  0.0164 -0.4004  0.0891
74897W        W49885  10.664  25.870  15.080  0.0496 -0.2996  0.0001
74898W        W49886  28.442  12.229   0.295 -0.0413  0.0251 -0.0540
74899W        W49887  34.482   0.006  26.126 -0.0566  0.0601 -0.3300
74900W        W49888  26.457   5.597  19.369 -0.1727  0.1236 -0.0498
74901W        W49889  33.194  28.394  12.786 -0.1371 -0.3267  0.0690
74902W        W49890  24.848   2.590   6.336 -0.3800 -0.1270 -0.0693
74903W        W49891   1.974  31.722   0.230 -0.1430 -0.0416  0.1319
74904W        W49892  27.231  24.925   9.601 -0.0871 -0.0062  0.0646
74905W        W49893  14.242  22.173   4.640  0.1320  0.2933 -0.0223
74906W        W49894   7.011   2.738  25.350  0.1875 -0.0139 -0.0849
74907W        W49895   7.466  25.823  21.944  0.0986  0.2984  0.2432
74908W        W49896  18.912   9.448  17.598 -0.1395  0.0070  0.1081
74909W        W49897  27.457   2.976  22.084  0.1412 -0.1913  0.0545
74910W        W49898  15.768   0.592  25.388 -0.1834 -0.3620 -0.1683
74911W        W49899  18.327  26.176   9.339  0.1171  0.2248  0.1445
74912W        W49900  33.522  35.023   3.006 -0.0248 -0.0813  0.0724
74913W        W49901  28.131  29.672   1.921  0.2689  0.4965  0.2511
74914W        W49902  27.174   9.380  15.052 -0.2410  0.0395 -0.0528
74915W        W49903  30.055  19.379  16.070 -0.1705 -0.4997  0.1007
74916W        W49904   3.836   5.553   1.283  0.0891 -0.0614 -0.1611
74917W        W49905  20.261  16.625   0.990  0.1920 -0.2354  0.6140
74918W        W49906  26.772  22.304  23.322 -0.1642  0.0176  0.2420
74919W        W49907  19.422  14.096  22.371 -0.1110 -0.1708  0.0575
74920W        W49908  12.912  17.938   9.271  0.1489 -0.0247  0.1277
74921W        W49909  29.599  31.597  22.682  0.0243  0.1420 -0.2599
74922W        W49910  26.226   5.339  25.855  0.0664 -0.2096  0.3616
74923W        W49911  26.502  22.236   7.416 -0.2854  0.5123 -0.2113
74924W        W49912   6.884  32.534   1.380  0.0295  0.4102  0.3510
74925W        W49913  28.486  12.678   9.855 -0.0599 -0.3961 -0.2436
74926W        W49914  15.429  13.109  11.470  0.1082 -0.1805  0.0211
74927W        W49915  11.759  17.756   6.870 -0.1173  0.0374 -0.0286
74928W        W49916  22.695   1.140  23.994  0.1474  0.3827 -0.1958
74929W        W49917  13.493  22.341   1.784  0.0155 -0.1627 -0.0052
74930W        W49918   1.046  21.241   0.159 -0.0657  0.0229 -0.1413
74931W        W49919  28.475  25.697   2.036  0.0021  0.4361 -0.2372
74932W        W49920  25.187  12.463  16.998 -0.0512  0.0738 -0.1457
74933W        W49921   0.502  32.642  20.090  0.1186  0.0930  0.0342
74934W        W49922  10.223  21.772  23.224 -0.0382  0.0959 -0.0889
74935W        W49923  25.323  29.178  26.134  0.1965  0.1194 -0.2008
74936W        W49924  18.063   8.451  11.962 -0.4143  0.2184  0.0198
74937W        W49925  28.410  26.746  24.498  0.2628 -0.0198 -0.2143
74938W        W49926  18.598  27.384   4.217  0.1404 -0.0686 -0.1531
74939W        W49927  25.054   4.138   2.141 -0.1931  0.0887 -0.0158
74940W        W49928  33.430  31.242  21.900  0.1699  0.0960 -0.0778
74941W        W49929   9.817  18.554   5.429 -0.2293  0.3253  0.0821
74942W        W49930  16.402  32.404  19.866 -0.1157  0.3195 -0.0019
74943W        W49931   2.765  17.036  22.276  0.4085 -0.3280  0.2057
74944W        W49932   1.855  20.865  19.466 -0.0345 -0.3136  0.4794
74945W        W49933   5.933  30.896  13.485 -0.0508  0.1695  0.3409
74946W        W49934  17.824   8.928  12.742 -0.0498  0.2545 -0.0335
74947W        W49935  12.409  25.579  16.343 -0.2010 -0.2953  0.3758
74948W        W49936   5.570  25.957  10.371 -0.0467  0.4761 -0.1488
74949W        W49937  31.570  11.005   8.935 -0.0557  0.4272  0.0318
74950W        W49938  14.493  10.182   4.457 -0.0335 -0.1397  0.2279
74951W        W49939  32.637  21.982   7.773 -0.0505  0.1013  0.1742
74952W        W49940  12.954  26.409  15.707 -0.1021 -0.0755 -0.0049
74953W        W49941   5.099  14.971   4.693 -0.1056  0.0496 -0.1300
74954W        W49942  12.271  27.737   0.656  0.0008  0.0784  0.0315
74955W        W49943  26.649  28.816  23.716  0.2174  0.0610  0.1507
74956W        W49944   2.219  28.732   4.232  0.0334  0.2680  0.0010
74957W        W49945  15.437  16.301  20.754 -0.0122  0.0013 -0.1375
74958W        W49946   1.160  10.151  14.596 -0.0430 -0.2056 -0.2560
74959W        W49947  17.908  21.316  10.707 -0.0073 -0.1024 -0.0483
74960W        W49948  18.437  13.118   9.482 -0.0092 -0.0913  0.1006
74961W        W49949  30.591  11.720   6.868 -0.1839 -0.2703  0.0784
74962W        W49950   6.969   6.519   2.818 -0.0094 -0.2372 -0.0895
74963W        W49951   0.040  34.509   5.839 -0.2608  0.0219 -0.1954
74964W        W49952  31.217  27.377  14.461  0.3027 -0.1263 -0.0507
74965W        W49953  30.418  28.824   3.391  0.1809 -0.0174 -0.2343
74966W        W49954   2.499   9.441   3.101 -0.2578 -0.2190 -0.2883
74967W        W49955  11.496  27.950  26.227  0.4471  0.0563  0.0739
74968W        W49956  13.055  34.325   4.072  0.1274 -0.1117  0.2574
74969W        W49957  25.527  19.091  18.230  0.0334  0.0238 -0.0852
74970W        W49958   4.498  32.307   1.991  0.1296 -0.1353 -0.0951
74971W        W49959  12.002   1.872   1.174  0.1417  0.0732  0.3200
74972W        W49960  29.217  27.402  13.185 -0.0757  0.2007 -0.2697
74973W        W49961   9.397  34.187   9.574 -0.0910  0.2086  0.0097
74974W        W49962  34.829  22.704   1.132 -0.0793 -0.1159  0.0884
74975W        W49963  24.059  34.619  11.954 -0.2302  0.0524  0.0232
74976W        W49964   3.413   9.614   7.346  0.0267  0.1474  0.3101
74977W        W49965  15.897  11.711  25.614 -0.1291 -0.1677 -0.1346
74978W        W49966   6.944  34.470   6.103  0.2999  0.0360 -0.0787
74979W        W49967  20.525  22.963   8.134  0.1942 -0.1106  0.0646
74980W        W49968  23.961   3.047  15.305  0.0731 -0.1321  0.0698
74981W        W49969   5.615  12.241   9.192  0.0097  0.3373  0.0586
74982W        W49970  32.026  31.623   2.962 -0.1729 -0.0804 -0.1727
74983W        W49971  11.999   0.336   6.127  0.1324 -0.2531  0.2042
74984W        W49972   5.535  11.549   0.089 -0.0736 -0.2757  0.0691
74985W        W49973  21.828  16.164  21.640  0.3473 -0.1756 -0.0204
74986W        W49974  28.026  18.610   5.160 -0.0462  0.2619 -0.0405
74987W        W49975  29.822  14.341  25.128  0.0492  0.0377 -0.0106
74988W        W49976   7.084  25.387  15.612  0.1748 -0.1804  0.1467
74989W        W49977  17.421  20.170  25.890 -0.1687 -0.0701  0.2548
74990W        W49978  27.831   2.912   5.619  0.3515  0.3043  0.3324
74991W        W49979  26.919   2.253   0.505  0.1642  0.0410  0.1396
74992W        W49980  18.436  26.517   8.010  0.0369 -0.3040 -0.1626
74993W        W49981  12.722   7.557  12.528 -0.3941 -0.1490 -0.1486
74994W        W49982  30.828  19.140  10.768  0.1577 -0.0496 -0.1647
74995W        W49983  11.474  30.835   2.268  0.1487 -0.0679 -0.0229
74996W        W49984  11.370  10.016   3.662  0.0241  0.2702  0.1090
74997W        W49985  10.990  27.339   3.100 -0.2376 -0.0140  0.2252
74998W        W49986  34.317  30.080  16.763  0.0612  0.1907  0.0809
74999W        W49987  32.099   0.084  12.514  0.1519 -0.3459  0.1298
75000W        W49988  25.970  33.426  17.287  0.1285  0.0899 -0.0818
75001W        W49989  16.526  20.433  21.486 -0.0148  0.0924 -0.1095
75002W        W49990   4.594  20.019   3.954 -0.1620  0.2724  0.0754
75003W        W49991  28.772   3.027  23.035  0.1353 -0.5484  0.0317
75004W        W49992   9.734  20.895   1.157  0.0984 -0.4812 -0.1145
75005W        W49993  12.401  31.885  22.079  0.0226 -0.1578  0.0215
75006W        W49994  31.134   4.016  20.626  0.0325 -0.1434 -0.1870
75007W        W49995   0.840  32.624  24.512 -0.0618  0.0244 -0.0985
75008W        W49996   5.087   7.567  18.143 -0.0581  0.0631  0.1788
75009W        W49997   7.673   9.497   9.095  0.0776  0.0155 -0.0324
75010W        W49998  14.259  21.839  24.357 -0.2635  0.0369 -0.4744
75011W        W49999  18.994   1.363  26.237  0.1714 -0.1737 -0.1730
75012W        W50000  18.788  16.767  21.775 -0.0990  0.1999  0.0267
75013W        W50001  26.988  23.026  19.628  0.2771  0.3501  0.1371
75014W        W50002  34.251  28.931  17.245 -0.2727  0.1378  0.0168
75015W        W50003  15.832  20.205  26.090 -0.1449 -0.2943 -0.2162
75016W        W50004   2.023   7.496   1.423  0.0534  0.1722  0.1098
75017W        W50005  27.163   6.041  10.230  0.3285 -0.2374 -0.1364
75018W        W50006  33.490  14.674  23.396  0.2126 -0.0261  0.1184
75019W        W50007  32.553  13.279  17.829 -0.3928 -0.0273 -0.1041
75020W        W50008  31.275   6.131  13.358  0.0138 -0.0996  0.1107
75021W        W50009  15.297  22.382   8.429 -0.1206 -0.3236  0.2728
75022W        W50010  15.545  35.316  10.799  0.0567  0.0778 -0.1374
75023W        W50011   3.457   8.110  21.517  0.0021  0.1023  0.2040
75024W        W50012  15.546   9.239  11.515  0.2347  0.0350  0.0450
75025W        W50013   9.319   4.329  25.427 -0.0980  0.2243  0.0563
75026W        W50014   8.899  22.607  10.562 -0.0224  0.0127 -0.0895
75027W        W50015   6.683  12.987   4.545  0.1808 -0.1030  0.1841
75028W        W50016  29.730  19.481   7.225  0.1202  0.3075  0.0673
75029W        W50017  20.608  27.146   2.222  0.0072  0.2043 -0.1082
75030W        W50018  32.289  23.518   0.145 -0.0008  0.1231  0.3369
75031W        W50019   8.069  18.491   0.052  0.0802  0.2444  0.1547
75032W        W50020  21.068  19.980  18.534  0.0379 -0.1681  0.3243
75033W        W50021   7.200  11.169  25.478  0.2304  0.1263  0.2632
75034W        W50022  10.556  12.755  19.424 -0.2349  0.1244 -0.0311
75035W        W50023  34.687   5.410   6.669  0.1623 -0.2065  0.0348
75036W        W50024   4.240   4.413   0.132 -0.0558  0.0543 -0.2313
75037W        W50025  20.508  33.435  22.676  0.2255  0.2680 -0.3449
75038W        W50026  14.999  28.083   6.047 -0.5589 -0.3957  0.0367
75039W        W50027  11.246  31.500   1.585  0.1524 -0.1052 -0.2295
75040W        W50028   0.375  20.873  16.574  0.3323  0.1027 -0.1030
75041W        W50029   7.213   0.944  19.526 -0.0022 -0.2170  0.1306
75042W        W50030   8.553   9.913   4.853  0.1489 -0.1672  0.1316
75043W        W50031  15.843  24.815  23.909 -0.1715 -0.0850  0.2745
75044W        W50032  33.632  14.330  22.319  0.1376 -0.0048  0.0111
75045W        W50033  23.389  19.100  25.785  0.2350  0.1886 -0.2618
75046W        W50034   7.448  24.779   0.996  0.1746 -0.0966  0.2840
75047W        W50035   3.095   3.758   7.598  0.0642 -0.1320  0.0370
75048W        W50036   1.695  11.552  25.300 -0.1316  0.4640 -0.1744
75049W        W50037   0.183  20.394  23.821  0.2406 -0.0535  0.0652
75050W        W50038  17.699  22.610   6.305  0.1735  0.0736 -0.1725
75051W        W50039  26.719  27.495  24.800 -0.1618  0.2168 -0.0869
75052W        W50040   1.159  26.759   2.302  0.0054  0.3770  0.3077
75053W        W50041  26.063  21.690   8.611  0.1356 -0.0522 -0.1259
75054W        W50042  23.334  17.914  13.808  0.1590  0.1205 -0.1707
75055W        W50043  26.136  29.931   4.752 -0.2449 -0.2247 -0.2205
75056W        W50044  18.676  23.880  22.867  0.0407  0.1007 -0.1912
75057W        W50045  34.070   1.015   5.884  0.1055 -0.2248 -0.0198
75058W        W50046  34.128  16.966  18.660 -0.2100 -0.1050 -0.1093
75059W        W50047   8.392  10.180  25.828 -0.0951 -0.0452  0.3892
75060W        W50048  19.169  11.544   1.243 -0.0974 -0.0409 -0.1053
75061W        W50049  26.128   0.921  18.098  0.0304 -0.0632 -0.1949
75062W        W50050  30.505  27.156  25.647  0.0411  0.1476 -0.1242
75063W        W50051  35.223   5.328  19.515 -0.0586 -0.1886  0.1053
75064W        W50052  20.350  20.682  22.412  0.3383  0.0172 -0.0825
75065W        W50053  11.527  22.880   1.030  0.2205  0.2244  0.1234
75066W        W50054  26.901  32.174   5.155 -0.0922 -0.2346  0.1733
75067W        W50055  18.319  17.943   9.038 -0.3748  0.3690  0.1775
75068W        W50056  29.492   0.322  22.945  0.0024 -0.1742  0.1762
75069W        W50057  18.822  12.607  23.990 -0.0868  0.3202 -0.0109
75070W        W50058  33.328  35.135  20.564  0.3369  0.2951 -0.1315
75071W        W50059  34.993  22.385  12.507 -0.0377  0.0226 -0.0593
75072W        W50060  27.056   0.031  25.444 -0.0424 -0.1534 -0.2183
75073W        W50061   2.718  24.226  16.902 -0.1107  0.1520  0.0272
75074W        W50062   7.051  11.636   0.798 -0.0799 -0.1669  0.1304
75075W        W50063  33.578   8.993   0.472 -0.0929 -0.1513  0.1173
75076W        W50064  25.847   1.347  17.634  0.1192  0.1834 -0.0558
75077W        W50065  28.157  27.582   0.301 -0.1059 -0.1856 -0.0736
75078W        W50066  15.719  28.503   9.455 -0.1194  0.1169  0.3880
75079W        W50067  30.442   7.049  21.597 -0.2804  0.2347  0.0109
75080W        W50068  21.537   7.708  23.929  0.0255  0.0652  0.0242
75081W        W50069  35.229  30.750  19.122 -0.0286 -0.1022  0.0684
75082W        W50070  32.558  17.609  15.666  0.1511  0.0472  0.0874
75083W        W50071   7.414   9.908   1.948  0.0693 -0.2651  0.2474
75084W        W50072  29.927  24.279  23.401  0.0573  0.3236  0.2117
75085W        W50073  24.639  34.330  25.118  0.0632 -0.1070  0.2158
75086W        W50074  20.552  34.831  17.972  0.1424 -0.1224  0.0290
75087W        W50075  16.455   4.318   1.956  0.0447  0.2244  0.1830
75088W        W50076  28.625  14.883  19.907 -0.3121 -0.0326  0.0842
75089W        W50077   9.281  18.523  10.270 -0.2560  0.3474  0.4194
75090W        W50078   8.020  30.567  23.771  0.1200 -0.1337 -0.2267
75091W        W50079   8.411  35.120  24.757 -0.2120  0.1348 -0.1285
75092W        W50080  15.978   2.973  24.704 -0.1149  0.0089 -0.1222
75093W        W50081  33.248   0.053  20.219 -0.0840  0.0178 -0.1467
75094W        W50082   5.360  23.908  22.757 -0.0836  0.0120  0.0570
75095W        W50083  10.282  28.824  11.997 -0.3454  0.2540 -0.3024
75096W        W50084  13.093   5.363  24.718 -0.0355 -0.0744  0.1008
75097W        W50085   3.829  10.047   0.909  0.0079 -0.0644  0.2015
75098W        W50086   7.970   9.634  25.421 -0.1169  0.1009 -0.0724
75099W        W50087  14.242  17.043   2.620 -0.0841  0.3225  0.2359
75100W        W50088  32.140  13.039  24.461  0.2549  0.2476 -0.0474
75101W        W50089   5.078  10.560  18.065  0.1946 -0.2064  0.1264
75102W        W50090  34.239  15.828  13.232 -0.1392 -0.1515 -0.0478
75103W        W50091   7.104  12.920   4.763  0.1604  0.4009 -0.2230
75104W        W50092  21.422  24.499  21.760  0.0982  0.1321 -0.1938
75105W        W50093  34.321   8.437   3.741  0.0780 -0.1950  0.0487
75106W        W50094   6.130  18.859  20.158  0.0458 -0.4240  0.0005
75107W        W50095  17.871   2.206   6.320 -0.0909 -0.0112  0.1824
75108W        W50096  30.438  15.187   7.882  0.1132  0.1524 -0.0914
75109W        W50097   8.670  33.159  22.444  0.0182  0.0661 -0.3960
75110W        W50098  15.249  20.197   7.868 -0.0715 -0.1701 -0.2079
75111W        W50099   9.017  18.822   8.186  0.2178  0.2527  0.1257
75112W        W50100  27.380  35.149  14.344 -0.0094  0.1147  0.0913
75113W        W50101  16.005   1.724   6.004 -0.1646  0.0926  0.3042
75114W        W50102   3.655  20.046   3.132 -0.1814 -0.0118 -0.0355
75115W        W50103  17.702  23.788   3.322 -0.2794 -0.1960 -0.2879
75116W        W50104  13.235   8.944   2.510 -0.4281  0.3748  0.2163
75117W        W50105  29.413  22.545   8.584 -0.0150  0.1749 -0.2346
75118W        W50106  15.800  20.307  10.852  0.3473  0.1995 -0.3545
75119W        W50107   2.287  20.335  23.088 -0.2291  0.1277  0.0314
75120W        W50108  33.307   3.547  19.329 -0.2119  0.3318  0.4216
75121W        W50109  10.091  31.457  15.345 -0.2921  0.1852  0.3295
75122W        W50110  32.623   4.249   3.407 -0.1192 -0.0556  0.1865
75123W        W50111  31.145  30.676  16.362 -0.1904  0.0897 -0.0556
75124W        W50112  24.810   4.927   1.612 -0.0642  0.1542 -0.1752
75125W        W50113   0.505  30.955  18.792  0.1070 -0.0558  0.1695
75126W        W50114  11.874  17.974  19.856  0.1450  0.2547  0.1153
75127W        W50115  28.804  19.215   5.974 -0.0934 -0.0092 -0.2937
75128W        W50116   5.073  20.770  24.780 -0.0279 -0.0344  0.1038
75129W        W50117  25.680  29.788  25.590 -0.0384  0.1442  0.0424
75130W        W50118  15.191  29.137  21.284 -0.1044 -0.1296  0.1004
75131W        W50119  12.130  10.484   2.460  0.1516  0.2598 -0.1692
75132W        W50120   6.097  34.511   6.010  0.0055  0.0910 -0.1352
75133W        W50121  34.984  20.523   1.117 -0.1797 -0.0817  0.0479
75134W        W50122  34.778  20.942  11.760  0.2371  0.0288 -0.1301
75135W        W50123  10.672   7.298   3.256  0.1037  0.0470 -0.0978
75136W        W50124  13.912   1.793  19.224 -0.1625  0.1916 -0.1173
75137W        W50125  15.143   3.127  23.453  0.0146 -0.2043 -0.2716
75138W        W50126  31.420  33.840  23.105 -0.3990  0.5167 -0.1979
75139W        W50127  28.741  18.986   8.413 -0.0993 -0.0461  0.0258
75140W        W50128  10.840  20.978   0.698 -0.4527  0.1549  0.1736
75141W        W50129  35.350   6.729  17.407 -0.0725 -0.0630  0.0297
75142W        W50130  19.381  35.103  22.533 -0.2121  0.0021 -0.0687
75143W        W50131  16.325  29.998  24.724  0.0499  0.1888 -0.0943
75144W        W50132  27.165  20.242  21.733 -0.0056 -0.3350 -0.2544
75145W        W50133  34.514  13.409  16.635 -0.2781 -0.0449  0.3830
75146W        W50134  29.484  16.568  16.651  0.0651  0.1355  0.3301
75147W        W50135  10.434  16.125   2.677  0.0131 -0.0295 -0.0351
75148W        W50136  19.704  16.986  16.738  0.2824  0.1205  0.0064
75149W        W50137  15.373  16.434  22.961  0.1572 -0.3525  0.0473
75150W        W50138   1.292  26.588   4.357  0.0392 -0.5601 -0.1359
75151W        W50139  31.109  16.769  11.269  0.2427  0.0765 -0.1953
75152W        W50140  15.854   1.326  24.055  0.2971  0.0256 -0.0717
75153W        W50141  23.836  32.866   1.881  0.3377 -0.0496 -0.0079
75154W        W50142  15.060  14.293  23.284  0.0224 -0.3037  0.1999
75155W        W50143  11.941  26.788   1.410  0.0265 -0.0185  0.0425
75156W        W50144  20.827  30.154  15.790 -0.0745  0.0258 -0.1164
75157W        W50145   1.301  25.925   1.905 -0.0776  0.1257  0.1487
75158W        W50146  16.234  19.757  13.605  0.0605  0.1058 -0.1177
75159W        W50147  15.886   3.241   7.274  0.5560  0.0362 -0.1008
75160W        W50148  22.385  26.284  19.780 -0.0777  0.0013 -0.0388
75161W        W50149  25.617   0.643  12.038 -0.0527 -0.1750  0.2527
75162W        W50150  16.765  33.992   7.019 -0.0298  0.0600  0.0253
75163W        W50151  14.484   7.819   7.703  0.1607  0.0614 -0.2357
75164W        W50152  28.179  25.311  12.189 -0.1243 -0.0484  0.1620
75165W        W50153  17.921  34.475  21.812 -0.0917 -0.1646  0.1911
75166W        W50154  23.051   1.802   3.556  0.2950  0.3664  0.0056
75167W        W50155  21.983  15.686  19.554 -0.2582 -0.0273  0.1285
75168W        W50156  26.984  13.066  16.900 -0.2891  0.1628  0.2138
75169W        W50157   7.760  10.547   1.109  0.1934 -0.1323  0.1225
75170W        W50158  13.794  19.431   4.070  0.1017  0.3454  0.1533
75171W        W50159   4.389  14.113  25.130  0.2431 -0.2428 -0.3670
75172W        W50160  35.198  33.072  14.824 -0.1609  0.0504  0.0782
75173W        W50161  23.625   1.334   2.738  0.2220 -0.0473 -0.0717
75174W        W50162   8.049  24.823   1.817  0.1660 -0.0329 -0.0754
75175W        W50163  18.885  34.903   4.831 -0.2915 -0.0785  0.1255
75176W        W50164   8.781  22.763  11.519 -0.1449 -0.0718 -0.4013
75177W        W50165  19.245  26.484   1.985 -0.0868  0.4253 -0.2848
75178W        W50166   1.639  15.825  15.817  0.1162  0.2773 -0.1489
75179W        W50167   3.288  33.223   0.231  0.0938 -0.0536  0.1958
75180W        W50168  25.425  26.305  14.140 -0.2129  0.0985  0.3837
75181W        W50169  13.023  29.025   9.608  0.0892  0.0665  0.0346
75182W        W50170   8.923  28.569  14.857  0.2412  0.0764  0.0090
75183W        W50171  15.845  31.312   4.128 -0.0293  0.0474 -0.0673
75184W        W50172  30.330   8.965   8.199 -0.1187 -0.0908 -0.4294
75185W        W50173  10.040  27.354   3.683  0.1173 -0.1124  0.0453
75186W        W50174  34.184  30.920  24.727  0.2178 -0.1247 -0.1722
75187W        W50175   7.011  19.873  23.674  0.3061 -0.0406 -0.1538
75188W        W50176  26.906  18.427  21.479  0.1423  0.0108  0.0456
75189W        W50177  14.767   1.198  23.167 -0.2421  0.0328 -0.1811
75190W        W50178  19.383  11.638  16.407 -0.0802  0.1971  0.0513
75191W        W50179  23.920   6.037  22.047  0.3302 -0.3609 -0.2016
75192W        W50180  16.861  26.269  11.158  0.2450 -0.0738 -0.1383
75193W        W50181  27.290   6.298  19.304  0.0923 -0.0213  0.3172
75194W        W50182   0.925  30.491  24.606  0.3217 -0.1837  0.3258
75195W        W50183   3.409  17.611  16.882 -0.0159  0.1179 -0.1177
75196W        W50184  14.614  18.317  11.825  0.2030  0.0475  0.1080
75197W        W50185  32.773  12.234  12.617  0.2636 -0.0137 -0.3127
75198W        W50186   0.938  15.081  23.851 -0.3308 -0.0900 -0.1070
75199W        W50187   7.550  32.182  10.715  0.0684 -0.0511  0.2627
75200W        W50188  19.989  14.669   5.081 -0.0674 -0.3689  0.2302
75201W        W50189  12.697   2.704  13.397 -0.2731 -0.0072 -0.1370
75202W        W50190  18.433  16.555   5.843  0.1724 -0.0425 -0.5251
75203W        W50191   2.067  11.920  19.597  0.0813 -0.3440 -0.1104
75204W        W50192  15.766  17.948   3.609  0.2745  0.0001  0.0851
75205W        W50193  26.978   1.284   4.108 -0.0428 -0.3506  0.0250
75206W        W50194  26.998  22.807  25.961 -0.1180  0.0146  0.0155
75207W        W50195  14.289   7.190   2.533  0.2012  0.1911 -0.3275
75208W        W50196  24.060  20.551  10.500 -0.3121 -0.0913 -0.0230
75209W        W50197  23.206  32.796   1.477 -0.1056  0.1478 -0.1394
75210W        W50198  20.785   0.908  20.707  0.0184  0.0677  0.2248
75211W        W50199  33.691   1.072  12.623  0.2308 -0.3313  0.0755
75212W        W50200  31.798  18.754  12.210 -0.1271 -0.0705 -0.0738
75213W        W50201  34.934   2.726  18.030 -0.0929 -0.1354  0.0610
75214W        W50202  34.452  28.070   3.301 -0.1695 -0.0570 -0.0438
75215W        W50203  14.191  15.065   9.334  0.0327  0.1056  0.2091
75216W        W50204  25.723  30.405  17.561  0.2816 -0.2540  0.0680
75217W        W50205  15.392  26.637  21.053 -0.0989  0.0365 -0.1200
75218W        W50206  29.686  28.007  13.624 -0.0279  0.1184 -0.4534
75219W        W50207   0.639   4.234  25.622 -0.1540  0.0575 -0.0426
75220W        W50208  30.469  23.695   0.068  0.0361  0.0809 -0.0195
75221W        W50209  20.560  10.309   3.807  0.0878 -0.0662  0.0027
75222W        W50210   8.458  25.379   8.325  0.1210 -0.2109  0.0584
75223W        W50211   5.692   6.223  18.790 -0.3995  0.3092 -0.1166
75224W        W50212  18.621  10.193  19.492 -0.0723 -0.1077  0.0684
75225W        W50213  29.260  26.682  12.978 -0.0691  0.3486  0.0143
75226W        W50214   7.990  23.033   7.244 -0.0930 -0.0578 -0.0512
75227W        W50215   4.710  15.797   0.067 -0.2731  0.1073  0.1306
75228W        W50216  21.900  12.122  22.398 -0.2006  0.0757  0.1801
75229W        W50217  22.927  30.296   3.887  0.0717 -0.1003 -0.1369
75230W        W50218   7.473  31.516  13.721 -0.2219  0.1530  0.3807
75231W        W50219  10.149  34.970   5.019 -0.3705  0.2403  0.3544
75232W        W50220  12.296  32.751   6.009  0.1062  0.0260 -0.0160
75233W        W50221   7.253  25.884  21.439 -0.1534  0.1196  0.0328
75234W        W50222  17.842  13.934  22.233 -0.1822 -0.0550 -0.0607
75235W        W50223   6.439  13.235   8.233 -0.0696 -0.0812  0.0663
75236W        W50224   2.599  12.620   4.005  0.1352 -0.1436 -0.0176
75237W        W50225  27.820  15.600  25.140  0.0279  0.0073 -0.0422
75238W        W50226   9.672  35.151  24.116 -0.2450  0.3494 -0.0383
75239W        W50227   0.092  33.647  17.738  0.4499  0.1903 -0.1209
75240W        W50228  27.155  24.424   0.914 -0.0036 -0.1172 -0.4639
75241W        W50229   5.086  31.767   9.058 -0.2080 -0.2645 -0.0365
75242W        W50230  13.701  32.820   9.912 -0.0247  0.0486 -0.2534
75243W        W50231  18.913  16.190  19.532  0.1485 -0.2342 -0.3888
75244W        W50232  29.496  24.407  14.687  0.1075  0.2079 -0.1283
75245W        W50233  15.484  18.475   6.375 -0.0020  0.0911 -0.2403
75246W        W50234  30.903  24.499   9.670  0.3755 -0.1795 -0.2575
75247W        W50235  11.674  25.551   0.183 -0.0214 -0.2588 -0.1041
75248W        W50236  10.445  17.987  23.479  0.2532  0.2285  0.0250
75249W        W50237  31.219  29.030   5.199 -0.0787 -0.3790  0.1998
75250W        W50238   8.925   8.555  13.360  0.0170  0.2291 -0.1433
75251W        W50239   7.985  13.201  17.671 -0.1320 -0.0360  0.0461
75252W        W50240  28.966  31.799  16.161  0.0086 -0.2067  0.2696
75253W        W50241  31.859  11.307  11.605  0.0272  0.0285 -0.0358
75254W        W50242  14.255   0.034   1.836  0.1687 -0.1498  0.1988
75255W        W50243  33.398  22.756   9.615 -0.1699  0.1895 -0.0749
75256W        W50244  10.602  17.689  10.351  0.0695  0.0668 -0.0173
75257W        W50245  15.446   7.679   5.400 -0.2464  0.1252  0.2594
75258W        W50246  16.521  13.002  25.400 -0.0390  0.2667 -0.1462
75259W        W50247  20.482   7.750   8.396  0.1317  0.1245  0.1428
75260W        W50248   6.542  22.312  24.264  0.1183 -0.0631  0.3554
75261W        W50249  34.829  23.967  17.099  0.1679 -0.2172 -0.2802
75262W        W50250  22.323  26.004   6.335  0.4450 -0.2484  0.0704
75263W        W50251  14.244   1.803   2.387  0.0528  0.4973  0.0523
75264W        W50252   6.749  15.080   0.266  0.0276  0.3235 -0.1300
75265W        W50253  17.253  33.293  22.841 -0.2387 -0.0667 -0.5332
75266W        W50254  17.119   4.246  11.150  0.1860  0.2709  0.3103
75267W        W50255  31.261  25.946  14.411 -0.0361  0.4235  0.0800
75268W        W50256   2.152  23.302   3.181 -0.1721 -0.0845 -0.0817
75269W        W50257  29.128  14.321  13.664  0.1116 -0.0279 -0.0353
75270W        W50258  16.074   9.909   3.483  0.1660 -0.0496  0.3393
75271W        W50259  10.027  16.354   1.227 -0.1990  0.3787  0.0518
75272W        W50260  24.133  29.101   4.313  0.1834 -0.0220 -0.1471
75273W        W50261  17.905  32.889  16.377  0.0509 -0.2133 -0.2198
75274W        W50262  11.100  13.375   7.716  0.3521  0.2312 -0.1254
75275W        W50263  31.201  12.105   0.498  0.1846  0.0495 -0.1727
75276W        W50264  32.088  11.414  12.369 -0.2002 -0.0228  0.0432
75277W        W50265  27.392  24.639  14.712 -0.0909  0.1587 -0.0241
75278W        W50266  11.491  27.098  11.928  0.0344  0.0416 -0.1074
75279W        W50267   7.741  34.689   2.449 -0.0606  0.0368  0.1825
75280W        W50268   6.152  12.950  18.425  0.2596  0.1729 -0.0108
75281W        W50269  17.581  29.607   4.096  0.2880  0.1028 -0.2896
75282W        W50270   5.401  22.250  20.981  0.0136 -0.0178  0.3568
75283W        W50271  34.008  29.322   2.415  0.2068 -0.2947 -0.3056
75284W        W50272  15.482  23.037   6.598  0.0985 -0.0347 -0.2824
75285W        W50273  25.386  28.267   2.354 -0.1198 -0.0613  0.0941
75286W        W50274  24.402  35.132   2.064 -0.1208  0.2872  0.0625
75287W        W50275   8.146  17.004   0.375 -0.0759 -0.3260  0.1831
75288W        W50276   6.993   5.989   6.825 -0.0468 -0.0042  0.2738
75289W        W50277  34.130   4.938  25.998 -0.0439  0.3308  0.0671
75290W        W50278   4.048   6.689  16.996 -0.0799  0.2262  0.0635
75291W        W50279  13.047  14.739  10.406  0.0673  0.3494 -0.3765
75292W        W50280  23.095  26.406  22.818  0.0561  0.3576  0.0184
75293W        W50281   6.700  25.242   2.784 -0.0579 -0.2082  0.1344
75294W        W50282  20.547  16.906   2.879 -0.1064  0.0512  0.3823
75295W        W50283  23.326  19.176  11.475  0.1903 -0.0749  0.0198
75296W        W50284   1.160  30.405  21.230 -0.0047 -0.0861 -0.1714
75297W        W50285  23.249   6.851   1.828  0.2194 -0.0967 -0.0689
75298W        W50286  11.723   2.717  13.652 -0.1363 -0.0910  0.1027
75299W        W50287  28.574  21.004  17.708 -0.0631  0.3740 -0.1785
75300W        W50288  14.013  29.653  23.793 -0.0466 -0.0116  0.0199
75301W        W50289  13.085  32.027  25.926 -0.1822  0.0768 -0.1328
75302W        W50290   8.470   7.379   3.347  0.2446  0.1167  0.1946
75303W        W50291  32.949   3.572  14.152 -0.0717  0.3720 -0.5582
75304W        W50292  16.626   3.840  18.217 -0.2884 -0.3122  0.2050
75305W        W50293  21.032  10.536  23.948  0.1085 -0.0175  0.0236
75306W        W50294  34.928   4.507  19.253  0.0164 -0.3082 -0.0076
75307W        W50295  14.870   5.301   0.134 -0.1079 -0.0353  0.4115
75308W        W50296  31.542  34.336   1.242  0.0002  0.0458 -0.0482
75309W        W50297  29.724   9.103  20.376  0.2057 -0.0947  0.2754
75310W        W50298  11.030   3.987   1.654 -0.0415 -0.0861  0.1003
75311W        W50299   7.449  14.998   1.983 -0.3192 -0.2539 -0.0743
75312W        W50300  31.609  16.091  11.430  0.1820  0.0711  0.3794
75313W        W50301   2.799  11.746  19.180 -0.2306  0.0781 -0.0677
75314W        W50302  16.709  26.080   9.364  0.0093  0.2040 -0.0380
75315W        W50303  15.128  25.072   0.544  0.0784 -0.0335  0.0421
75316W        W50304   4.065  25.713  19.570  0.1242  0.1064  0.2259
75317W        W50305  24.108  34.722   6.506  0.3465  0.2019  0.2025
75318W        W50306  29.821  24.168  16.326  0.1322 -0.2158  0.0316
75319W        W50307  19.878  14.276  19.452 -0.1256 -0.1398 -0.2542
75320W        W50308   4.381  14.503   0.336 -0.0047  0.1289 -0.1703
75321W        W50309  17.769  11.705  20.595 -0.1936 -0.0863  0.2347
75322W        W50310  21.702  21.025  16.410 -0.1291  0.1937 -0.1016
75323W        W50311  17.118   9.124   9.605  0.0263 -0.0459  0.0236
75324W        W50312  21.159  11.380   6.469  0.2949 -0.3061 -0.1134
75325W        W50313   2.041  27.502  23.953  0.0937 -0.3166  0.2036
75326W        W50314  34.886  27.658  16.648 -0.0818  0.2503  0.1998
75327W        W50315  31.624   9.398  23.517 -0.1293 -0.2042  0.0036
75328W        W50316  26.630  28.689   4.218  0.1271 -0.2949 -0.2319
75329W        W50317  30.386   2.607   2.436  0.0062  0.3686 -0.0307
75330W        W50318   7.419  10.572   9.962 -0.1875 -0.0884  0.0043
75331W        W50319   0.371  24.852   2.936 -0.0654  0.0358 -0.0234
75332W        W50320  18.375   6.322   9.654 -0.0385  0.3231 -0.3307
75333W        W50321  10.077  11.753  24.967 -0.0666 -0.1602  0.0121
75334W        W50322  21.085   1.651  23.846 -0.1083 -0.0597  0.4175
75335W        W50323  24.746  18.125  24.702 -0.1592  0.1039 -0.1236
75336W        W50324  20.604   6.853  17.676  0.1000 -0.0370  0.0360
75337W        W50325  30.099  24.197  15.369  0.0966 -0.0465 -0.2374
75338W        W50326  18.093  10.211  23.589 -0.3098  0.2400  0.0291
75339W        W50327  24.628  20.229  25.522  0.0379 -0.0381 -0.0902
75340W        W50328   9.949  15.613  18.865  0.0932 -0.1166  0.1668
75341W        W50329  13.913   7.870  14.187  0.1300 -0.0004 -0.0429
75342W        W50330  14.840  11.047  25.918 -0.0875  0.0685  0.0284
75343W        W50331   7.069  27.411  11.381  0.1435  0.0221  0.4488
75344W        W50332  33.032  35.015   0.719  0.3195  0.1263  0.3547
75345W        W50333  16.134  19.477   7.695 -0.0958  0.0927  0.0845
75346W        W50334   7.360   3.122   1.181 -0.1690  0.1542 -0.0038
75347W        W50335  21.463  21.585  17.313 -0.0854 -0.3252 -0.1444
75348W        W50336  21.149  29.240  23.729 -0.1105  0.0231  0.1636
75349W        W50337  23.149  33.700  19.779  0.1355 -0.2518  0.2360
75350W        W50338   0.776  19.669  19.853 -0.1056 -0.0397 -0.2711
75351W        W50339   6.367  27.826  24.352  0.1484 -0.0047 -0.0324
75352W        W50340  31.276   9.912   8.167 -0.0461  0.1514  0.2005
75353W        W50341   1.030  25.406  22.948 -0.1683 -0.0761  0.2291
75354W        W50342  24.054   4.937   4.745 -0.1512 -0.0661  0.0643
75355W        W50343   0.357  29.755   2.313  0.0715 -0.0498 -0.0565
75356W        W50344  12.857  24.928   9.292 -0.1013 -0.1438 -0.0697
75357W        W50345  16.490  29.767  21.200 -0.2592  0.0869  0.2305
75358W        W50346  32.217   8.355  19.556 -0.0555  0.0200  0.0592
75359W        W50347  16.181  20.534   9.484 -0.1458 -0.2203 -0.0759
75360W        W50348  29.852  19.193  10.630  0.0340  0.0595  0.0833
75361W        W50349   2.242  22.723  19.420  0.1342 -0.0670  0.2137
75362W        W50350  17.705  29.769   1.763 -0.0547  0.0029 -0.3044
75363W        W50351  10.183  33.872  11.256 -0.0632  0.0479 -0.4420
75364W        W50352  27.954  18.539  10.673  0.0762  0.0164  0.1186
75365W        W50353  30.345   2.512  19.609 -0.1003  0.0809  0.0406
75366W        W50354  34.527  18.884  26.069 -0.0937 -0.0483  0.1251
75367W        W50355   3.071  17.519  14.785 -0.1986  0.2350 -0.3111
75368W        W50356  22.997  15.992  16.433 -0.0200 -0.0374  0.2073
75369W        W50357  15.115  25.135   0.039 -0.1952 -0.0222  0.1194
75370W        W50358  33.152  14.969   9.419 -0.1845  0.1995 -0.0272
75371W        W50359   8.653   5.564   4.355 -0.0159  0.0193  0.1294
75372W        W50360  33.506  34.336   3.631  0.1810  0.2555  0.1888
75373W        W50361  29.001   4.994  23.630  0.0355 -0.1776 -0.0677
75374W        W50362  26.871  25.802   8.968  0.0718  0.0971  0.1238
75375W        W50363  34.650   7.506  12.976 -0.1975  0.2634  0.1581
75376W        W50364  31.781   1.256   7.183  0.0621 -0.2489  0.2415
75377W        W50365  16.824  20.729   7.471  0.1756 -0.0752 -0.0948
75378W        W50366  33.157  24.145  19.176 -0.3818 -0.2108 -0.1548
75379W        W50367   6.374  11.916   2.908  0.4566 -0.0232 -0.3307
75380W        W50368  26.299  15.799  18.116 -0.2440 -0.1823 -0.2530
75381W        W50369  12.889  34.840   2.205  0.2858 -0.2296 -0.2013
75382W        W50370   7.376  24.573  11.129 -0.3748  0.3488  0.1731
75383W        W50371  30.832  17.128  13.858 -0.0645  0.1394  0.0974
75384W        W50372  14.567  12.294  22.729  0.0513 -0.2940 -0.2346
75385W        W50373  25.914  30.582  12.464  0.0083  0.1501  0.3017
75386W        W50374  15.314   2.092  10.943 -0.0189 -0.0845  0.1467
75387W        W50375  16.777   2.439   3.115 -0.0926  0.0291 -0.1666
75388W        W50376  30.856  30.559  20.832 -0.0854  0.0357  0.0067
75389W        W50377  34.472   8.918  21.342 -0.4207  0.1488 -0.1950
75390W        W50378   2.780  25.173  21.812 -0.1605  0.0692  0.2454
75391W        W50379  30.764  13.574  22.540 -0.3725  0.1616  0.2065
75392W        W50380   9.672  31.332   2.370  0.3175 -0.0492  0.0220
75393W        W50381  25.050   5.343   2.894 -0.0951 -0.0267  0.1746
75394W        W50382   0.460  10.591  10.151 -0.2473  0.0557  0.1251
75395W        W50383   7.098  30.403  21.711 -0.2010  0.0089  0.3328
75396W        W50384   7.836  18.701  25.508 -0.2077 -0.1878 -0.2183
75397W        W50385   5.432   5.215  26.184  0.0082  0.2372  0.1605
75398W        W50386  26.834   7.951  18.168  0.3708  0.0955 -0.2107
75399W        W50387  29.806  33.622  24.161  0.0640  0.0161 -0.0377
75400W        W50388  27.289   8.787   0.638 -0.0362  0.1178 -0.1179
75401W        W50389  27.637   6.646   1.759 -0.1721  0.0912  0.2583
75402W        W50390  29.955   4.130  15.488  0.0557  0.0938 -0.1109
75403W        W50391   1.891  15.759  25.007 -0.1353  0.1658 -0.0273
75404W        W50392  34.741  26.110   2.582 -0.0004  0.0044 -0.0553
75405W        W50393   7.314  26.524   5.719 -0.3786  0.1195  0.4066
75406W        W50394  24.531   5.506  23.312 -0.2844 -0.1787 -0.1639
75407W        W50395  27.580   2.703  26.109  0.1988 -0.2429 -0.1542
75408W        W50396  14.560   8.262   4.025  0.2358 -0.3529  0.1477
75409W        W50397  22.221   2.254  13.219  0.1080  0.0124  0.1287
75410W        W50398  33.707   9.688  17.262  0.0364 -0.1094 -0.0546
75411W        W50399   1.081  25.608   3.340 -0.1844  0.2607  0.0521
75412W        W50400  31.015   2.796  24.738  0.0536  0.0661  0.0536
75413W        W50401  27.958  29.698  25.123 -0.1192 -0.1201  0.0304
75414W        W50402  12.561  24.282  14.307 -0.2049  0.2607 -0.0993
75415W        W50403  26.259  16.479  21.765 -0.0054  0.0901  0.0764
75416W        W50404  30.255  23.669  16.117  0.0179  0.1205  0.0869
75417W        W50405  19.982  25.795  18.642 -0.1323  0.1293  0.3732
75418W        W50406   5.100   9.659  25.190 -0.1402  0.0392  0.1171
75419W        W50407  27.803  27.872   2.447  0.2113 -0.1846  0.1581
75420W        W50408  30.322  25.222  13.854 -0.0308  0.0338 -0.0256
75421W        W50409  13.057  21.897   7.053 -0.1488 -0.4854  0.1777
75422W        W50410   9.340  27.438  10.024  0.0173 -0.2957  0.2221
75423W        W50411  29.739  21.449   6.069  0.1290 -0.0776 -0.1966
75424W        W50412  29.622   8.397   0.807  0.2171  0.2935 -0.2583
75425W        W50413  14.974   4.375  22.985 -0.2101 -0.1418 -0.1985
75426W        W50414  15.292   1.145   1.841 -0.1149 -0.0220  0.0236
75427W        W50415   9.536  11.309  21.164 -0.0038 -0.3652 -0.2976
75428W        W50416   4.775  23.342   6.677 -0.0389 -0.0861 -0.2413
75429W        W50417  34.088   5.288   5.453 -0.0222 -0.2439  0.2207
75430W        W50418  30.968   9.814  15.541  0.0449  0.2523  0.0505
75431W        W50419  20.285  33.345  24.027  0.0689  0.2669  0.3672
75432W        W50420  20.932   9.613  25.847 -0.0931  0.3168  0.1606
75433W        W50421  19.184   7.094  11.066 -0.0569  0.2438  0.0302
75434W        W50422   1.442  19.714   1.442  0.0744 -0.0852 -0.1335
75435W        W50423  13.074  32.938  24.431  0.1151 -0.1645  0.0962
75436W        W50424  10.157  18.950  12.742 -0.1749 -0.1085 -0.0572
75437W        W50425  11.049  25.848   8.576 -0.0247 -0.3859  0.1249
75438W        W50426  19.384  22.853  25.713 -0.2257  0.1026  0.1806
75439W        W50427  17.437  12.796   1.615 -0.6416 -0.0326  0.0188
75440W        W50428  29.278  16.191  12.480 -0.1613  0.1256 -0.0128
75441W        W50429  32.526  17.747  19.972 -0.4476 -0.2239  0.3082
75442W        W50430  32.416   2.121  19.834  0.0340  0.1670  0.0853
75443W        W50431  34.067   6.297  21.712  0.2150  0.2690  0.1494
75444W        W50432  18.454   3.926   0.702 -0.0797  0.1175 -0.0581
75445W        W50433   6.932  21.645   0.601 -0.0937  0.0244 -0.1013
75446W        W50434  15.088  10.848   4.775  0.0785  0.0146 -0.0279
75447W        W50435  11.214   5.647  13.152 -0.4693  0.1976  0.0193
75448W        W50436  22.761  11.585   4.754  0.3233  0.3636  0.2794
75449W        W50437  17.922  30.233   9.282 -0.2620  0.3705 -0.1213
75450W        W50438  23.032   6.183  22.355 -0.0271  0.0039 -0.0610
75451W        W50439  19.779  14.540   0.268 -0.1052  0.2587  0.0107
75452W        W50440   1.411   2.393  21.819 -0.1204 -0.1590  0.2498
75453W        W50441   1.306  27.022  17.192 -0.2746  0.5152 -0.0955
75454W        W50442   3.080  32.231  21.973 -0.0074  0.0122  0.4284
75455W        W50443  26.519  23.728  11.555  0.2707 -0.3115  0.3418
75456W        W50444   3.089  25.186   6.493 -0.1302 -0.3046 -0.1754
75457W        W50445   2.769   8.492  20.819  0.3756 -0.0329  0.1193
75458W        W50446  12.789  31.846  10.107 -0.1867  0.1656  0.2411
75459W        W50447  30.378  22.372  20.949  0.3095  0.1152 -0.2468
75460W        W50448  21.892  34.219  21.215  0.1764 -0.1257 -0.0152
75461W        W50449  28.386  22.270  19.559 -0.0226  0.1157  0.0248
75462W        W50450  28.696   7.809  10.289  0.3443  0.1015  0.0459
75463W        W50451  16.876  25.994   8.887 -0.1461 -0.2060  0.0667
75464W        W50452  26.299  32.787  13.877 -0.0557  0.1034 -0.1907
75465W        W50453  23.027   5.574   4.345  0.0505  0.0480 -0.4825
75466W        W50454   2.003  24.578   3.125  0.0687 -0.0151  0.0952
75467W        W50455   8.777  24.280  25.029 -0.1588 -0.0987 -0.1026
75468W        W50456  27.662  28.989  16.393 -0.1542  0.2362 -0.0045
75469W        W50457   3.167   9.701  18.904  0.0265  0.0447  0.3726
75470W        W50458  13.144  10.157   0.621  0.1249 -0.1247 -0.0522
75471W        W50459  23.276  23.968  16.767 -0.2072  0.2189 -0.3342
75472W        W50460   1.771  33.123  22.475  0.0085  0.0181 -0.0064
75473W        W50461  25.673   5.892  18.211 -0.0553  0.0544  0.0038
75474W        W50462  19.330  29.075   6.464 -0.1532  0.0339 -0.1262
75475W        W50463  25.788  18.109  14.423  0.2437  0.1314  0.2166
75476W        W50464  22.754  32.233  25.648 -0.1166  0.1053 -0.1706
75477W        W50465  29.830  14.703  15.366  0.1839  0.0138 -0.3629
75478W        W50466  28.407  19.991  11.538  0.0583  0.3562  0.0245
75479W        W50467  25.803  14.295  10.809  0.0798  0.2906  0.1546
75480W        W50468  26.607  17.110  25.684  0.0070  0.0957  0.2667
75481W        W50469  25.980   5.747  14.184  0.0752 -0.1505 -0.3476
75482W        W50470  19.568  16.651   3.623  0.0680 -0.2440  0.0568
75483W        W50471  10.720  32.896  12.457  0.1115  0.3264 -0.1128
75484W        W50472   7.901  29.072   1.321  0.2278  0.0115 -0.3047
75485W        W50473  25.075  28.864   0.764 -0.1628 -0.1425 -0.0671
75486W        W50474  23.304  15.526  17.055  0.1326  0.0242 -0.1745
75487W        W50475  12.819  30.987   6.162 -0.3029  0.2431  0.0935
75488W        W50476  22.811  23.398   1.929  0.4202  0.3931 -0.1664
75489W        W50477  26.347  34.658  23.990 -0.0844  0.2011 -0.3903
75490W        W50478  13.081  13.676  11.247  0.0872 -0.0533  0.1679
75491W        W50479  23.700  23.744  17.014 -0.1097 -0.0878 -0.2065
75492W        W50480  30.058  27.434   8.860 -0.2774 -0.2943  0.1721
75493W        W50481  31.621  10.589  11.860  0.0177 -0.0659 -0.0475
75494W        W50482  32.695  19.452  19.922 -0.0836 -0.3816  0.0208
75495W        W50483  19.965  34.686  25.680 -0.0648 -0.1067  0.0862
75496W        W50484   8.496   3.640  21.910 -0.3499 -0.2682  0.0976
75497W        W50485   9.527   6.028  10.845  0.1384  0.1291 -0.1757
75498W        W50486  22.145   2.716   4.350 -0.3488  0.1458 -0.0980
75499W        W50487   9.334  10.973  23.253 -0.0329 -0.2672  0.1020
75500W        W50488   2.619  25.006  19.625  0.3288  0.2882 -0.0705
75501W        W50489  26.135  32.547  16.957 -0.1816 -0.0116 -0.0577
75502W        W50490   9.137  14.054  24.325 -0.3400 -0.2668  0.2268
75503W        W50491  27.292   2.461  23.058  0.0202  0.4259 -0.1421
75504W        W50492  21.441  22.689  23.622 -0.2165  0.0326  0.1063
75505W        W50493  12.443  13.047  20.792 -0.1924 -0.0520  0.0997
75506W        W50494   3.310   8.830  24.624 -0.0840  0.0852  0.0676
75507W        W50495   9.348  22.141  16.500  0.2176 -0.0856  0.0912
75508W        W50496   2.385   3.779  17.093 -0.2857  0.0644 -0.0847
75509W        W50497  16.369   7.935   5.038 -0.1447 -0.1379 -0.1012
75510W        W50498  32.939  31.539  22.476 -0.1599 -0.3656  0.3112
75511W        W50499  18.656  23.963  19.152 -0.0690  0.1582  0.1844
75512W        W50500   3.498  11.458  15.274  0.4368 -0.2625 -0.0185
75513W        W50501  31.888  13.248  24.066 -0.3033  0.1183 -0.0221
75514W        W50502  17.113   0.635   9.797 -0.1355  0.2706 -0.0177
75515W        W50503  28.131  32.900  18.220 -0.1230 -0.2488 -0.0560
75516W        W50504  30.406  23.604  19.990 -0.0393 -0.2552  0.0138
75517W        W50505  27.601  19.841  16.110 -0.0483  0.1412  0.0904
75518W        W50506  26.948  28.581  13.050  0.0165 -0.2229 -0.1272
75519W        W50507  22.953  11.075   3.728  0.2074  0.1664 -0.1748
75520W        W50508  16.012  35.078  23.872 -0.1772 -0.1361  0.0023
75521W        W50509  18.334  34.910   6.205  0.3840 -0.0529 -0.2831
75522W        W50510  28.255   9.156  17.928 -0.2040  0.0302  0.0209
75523W        W50511  18.765  24.108   4.286 -0.1991  0.0604 -0.0844
75524W        W50512   8.557  17.741  25.397  0.2984 -0.0469  0.2032
75525W        W50513   2.351  24.546  23.302 -0.2466  0.0911  0.2647
75526W        W50514  34.318  33.636   2.337 -0.0485 -0.0191 -0.0566
75527W        W50515   6.867  18.053  23.528 -0.1072 -0.1293 -0.0565
75528W        W50516  26.182   3.152   0.030  0.1582 -0.2442  0.2370
75529W        W50517   9.084  28.307   5.434  0.2624  0.0548 -0.1679
75530W        W50518   5.729  33.792  24.245 -0.2332  0.3364  0.0719
75531W        W50519  18.252  33.664   0.964  0.2578 -0.1321  0.0487
75532W        W50520  20.643  31.932  21.932  0.0212 -0.2637 -0.0833
75533W        W50521  16.134  34.535  19.740  0.3840 -0.0579  0.0219
75534W        W50522  29.721  17.159  10.135 -0.1322 -0.0374  0.1436
75535W        W50523  33.646   6.650  13.274 -0.0104 -0.0310 -0.0868
75536W        W50524   2.072   3.521  19.561 -0.0992 -0.0663 -0.0271
75537W        W50525  10.654  23.356   6.287  0.2102 -0.1004  0.1389
75538W        W50526  12.777  10.546  19.909  0.1184  0.1824  0.0167
75539W        W50527   9.734  11.622  20.092 -0.0939  0.1320  0.2557
75540W        W50528  29.652   2.119  11.653 -0.1752  0.3271 -0.2519
75541W        W50529  23.288  35.362  15.033 -0.1289  0.2079 -0.0783
75542W        W50530  21.575  25.830  17.497 -0.0332 -0.2695 -0.2478
75543W        W50531   3.519  16.922   4.188 -0.2138 -0.0616 -0.1419
75544W        W50532  32.149   9.511  11.534  0.1724 -0.1173 -0.1099
75545W        W50533  16.079  29.677   0.985 -0.3417 -0.0045 -0.2081
75546W        W50534   2.079  15.918  13.132 -0.3586  0.0929  0.0902
75547W        W50535  31.779   1.830   6.888  0.0677 -0.1111 -0.2038
75548W        W50536   8.163   0.002   6.784  0.1731  0.0176  0.2675
75549W        W50537   8.037   0.636  12.716  0.0674  0.2163  0.0116
75550W        W50538  20.506  35.193  18.303  0.2344 -0.2303 -0.3544
75551W        W50539  23.703   4.445  21.347 -0.1986 -0.0399  0.4151
75552W        W50540  29.823  30.353   1.679 -0.4722 -0.1400 -0.0399
75553W        W50541   9.601  22.502  13.361  0.3047 -0.1224  0.0295
75554W        W50542   5.010  17.910   0.511 -0.4407 -0.2104  0.1270
75555W        W50543  19.716   5.619  10.189  0.1947 -0.1063  0.3987
75556W        W50544  26.159  35.110  23.092  0.0015  0.2776  0.1970
75557W        W50545  20.681  10.966   1.173 -0.2071  0.1971  0.1419
75558W        W50546  17.554   5.653   8.113  0.2497  0.1792 -0.4394
75559W        W50547  33.673   8.759  11.848 -0.0250  0.0601  0.0563
75560W        W50548  33.183  14.846  12.502  0.3170 -0.0182  0.2853
75561W        W50549  11.577  23.620  15.806 -0.0436 -0.2971 -0.0517
75562W        W50550  17.137  27.958  10.258  0.1977 -0.0447 -0.2470
75563W        W50551   3.305  27.565   2.917  0.0360  0.0917  0.1292
75564W        W50552  27.617  11.862  13.786  0.0910 -0.0985  0.1083
75565W        W50553  19.620  16.527   0.225  0.0287 -0.0126  0.0386
75566W        W50554  29.525   1.875   4.383  0.0162  0.0196  0.0164
75567W        W50555  10.675  19.305   9.782  0.0734  0.0978 -0.0157
75568W        W50556   7.884  29.073   3.645 -0.1474  0.4109  0.1116
75569W        W50557  27.752   8.277  16.446 -0.0033 -0.0567 -0.0469
75570W        W50558  24.714  25.513  21.418  0.1883  0.0144  0.3870
75571W        W50559  13.663   7.249  11.033 -0.0331 -0.0055 -0.1476
75572W        W50560  33.315   5.999  14.391 -0.1374 -0.0731 -0.0039
75573W        W50561  35.242  11.344  23.138  0.2434  0.0220  0.2390
75574W        W50562   3.557   7.184  18.495  0.1260  0.2114  0.0689
75575W        W50563  32.146   9.556   8.659 -0.2942  0.1119  0.1925
75576W        W50564   9.197  10.346   1.951  0.0303 -0.0826  0.0048
75577W        W50565   9.831  32.675  12.227  0.0928  0.4975  0.0387
75578W        W50566  12.622   3.097   5.083  0.0177 -0.1526 -0.0142
75579W        W50567  10.912  14.853  18.767 -0.0438 -0.2459  0.2734
75580W        W50568  12.775  11.271  22.119  0.1297 -0.0664  0.1400
75581W        W50569  20.101  26.166   3.222  0.1076 -0.3024  0.1685
75582W        W50570  25.605  35.140  13.093 -0.2844  0.1738 -0.0445
75583W        W50571   8.332  14.326  21.399 -0.0011 -0.0035  0.1664
75584W        W50572   6.631  10.254  25.480  0.2159  0.1651  0.0148
75585W        W50573  25.318   1.641   0.141 -0.1933 -0.1056  0.1352
75586W        W50574   0.473   8.274  19.040 -0.2344 -0.0633  0.2316
75587W        W50575   9.273  23.915  11.080 -0.1696  0.1977  0.3055
75588W        W50576  12.968   1.372  23.045 -0.0555 -0.3341  0.1422
75589W        W50577  21.980  30.488   3.126  0.3190  0.0086  0.0500
75590W        W50578  32.804  25.167  21.102  0.1709  0.0911  0.1510
75591W        W50579  27.029  16.558  11.014 -0.3806 -0.3080 -0.0676
75592W        W50580  31.021  11.617  11.537 -0.0975  0.2448  0.0749
75593W        W50581  19.834  18.011   9.703  0.1672 -0.3471  0.0452
75594W        W50582  29.000  13.965  12.458  0.2103  0.0492 -0.3024
75595W        W50583  34.430  34.126  16.101 -0.1960 -0.0119 -0.1428
75596W        W50584  27.587   3.310  23.402  0.1431 -0.2290 -0.1507
75597W        W50585  23.366   5.459  24.155  0.0984  0.2384 -0.1151
75598W        W50586  34.533  15.125  13.900  0.2184  0.0759 -0.2075
75599W        W50587   3.276   4.785  16.684  0.1723 -0.0380  0.0721
75600W        W50588   0.532  19.076  11.402  0.1505  0.0701  0.0178
75601W        W50589  22.229   0.141   6.815 -0.1083  0.0553 -0.2278
75602W        W50590   9.309  13.995  25.508 -0.5254 -0.1982  0.1247
75603W        W50591  29.863  26.002  17.485  0.1737  0.0365  0.2160
75604W        W50592  21.827  15.370   2.151 -0.1344  0.2749  0.1582
75605W        W50593  12.868  24.619  24.498  0.1567 -0.0439  0.1963
75606W        W50594  24.950  33.522  11.450  0.0041 -0.3189 -0.2164
75607W        W50595  34.571  24.186  13.846 -0.0271  0.1242  0.0542
75608W        W50596  14.747   9.684  18.636 -0.0055  0.1582 -0.0515
75609W        W50597  12.743  16.714  12.354 -0.0989 -0.2907 -0.0051
75610W        W50598   3.135  19.850  22.639 -0.0785  0.3433 -0.3135
75611W        W50599  15.944   9.087  23.732  0.0145  0.1465 -0.1036
75612W        W50600  33.003  20.369  20.131  0.0232  0.2906  0.0438
75613W        W50601  22.124   3.791  18.359  0.0470 -0.0940  0.2304
75614W        W50602  28.635   1.316  22.520 -0.0392 -0.0808 -0.0934
75615W        W50603  16.434  26.478  20.788 -0.4088  0.0957 -0.0480
75616W        W50604  30.059  30.218   3.666  0.1625 -0.4051 -0.3376
75617W        W50605  14.408   6.256   2.652 -0.1259  0.2817 -0.1731
75618W        W50606  19.069  14.551   4.357  0.2130  0.1925  0.0049
75619W        W50607  19.301   6.944  10.036  0.2911 -0.0289 -0.1743
75620W        W50608   2.830  26.100  25.835 -0.2269 -0.2889 -0.0080
75621W        W50609   6.200  30.336  24.002  0.4300  0.0247  0.1767
75622W        W50610  26.927  18.686  16.167 -0.0900  0.1654 -0.1562
75623W        W50611  22.369   9.902   2.560 -0.2051  0.0063 -0.1538
75624W        W50612   7.232  24.454  15.998 -0.0601 -0.4026 -0.2613
75625W        W50613   0.314  24.391  19.560 -0.0620  0.0445 -0.1112
75626W        W50614  27.146  12.989  19.737 -0.0342  0.0170  0.0914
75627W        W50615  33.145   2.049  22.392  0.0242  0.1217  0.2952
75628W        W50616  28.422  31.694   3.557 -0.0782  0.0179 -0.0864
75629W        W50617  15.884  10.616   9.441  0.4022 -0.0939  0.0454
75630W        W50618  11.952   2.242   1.666  0.0867 -0.2014 -0.3836
75631W        W50619  19.600  18.774   4.483 -0.2018  0.2438 -0.0486
75632W        W50620   0.692  23.192  25.270  0.0244 -0.0428 -0.1545
75633W        W50621  13.887  32.951  23.862 -0.1194 -0.1343  0.1535
75634W        W50622  35.010  18.806  12.380 -0.2810  0.1173  0.2409
75635W        W50623   0.062  14.429  21.621  0.0029  0.2032  0.2742
75636W        W50624  27.220  29.100   1.613 -0.1882 -0.2230  0.0991
75637W        W50625  17.596   8.628   3.002  0.0448  0.0717  0.2179
75638W        W50626  10.375   0.949   2.320 -0.0261 -0.1943 -0.0871
75639W        W50627   0.041   6.903  25.749 -0.0640 -0.1022  0.0128
75640W        W50628  15.119   2.238   7.601 -0.2577 -0.2252 -0.2767
75641W        W50629  26.534   0.138  15.149  0.2265  0.0602  0.1525
75642W        W50630   9.659   6.501   5.444 -0.1802 -0.3357 -0.0707
75643W        W50631   6.090  28.596   5.826  0.2456 -0.2619 -0.0815
75644W        W50632  24.883   7.330  17.352  0.0564 -0.0255 -0.2517
75645W        W50633  19.248  21.304   8.419 -0.2384  0.3463  0.2331
75646W        W50634   2.269  31.869  26.116  0.0477  0.0481 -0.1150
75647W        W50635  24.681  11.505  15.700 -0.3380  0.2619  0.0886
75648W        W50636   0.433  16.253  17.132  0.0619  0.3290  0.0215
75649W        W50637  24.857   0.200  23.502 -0.6478 -0.0462  0.1911
75650W        W50638  15.669  17.054   5.535  0.0238 -0.0958 -0.1905
75651W        W50639  19.241   7.118  18.253 -0.1781 -0.0043 -0.0570
75652W        W50640  31.485   0.521   0.526 -0.1103  0.1518 -0.0041
75653W        W50641  15.505   8.544  21.417 -0.1258  0.2665 -0.1134
75654W        W50642  35.102   2.609  14.602 -0.0904  0.0884 -0.4107
75655W        W50643  19.063   5.906   5.668 -0.0238 -0.1541  0.2066
75656W        W50644  26.420  14.654  24.831 -0.1239  0.5665  0.1126
75657W        W50645  27.909  25.653   8.197  0.1242 -0.1551 -0.0616
75658W        W50646  34.514   9.474  21.997 -0.0898 -0.0573 -0.0712
75659W        W50647  26.223  32.348  12.195 -0.1312  0.1474 -0.2342
75660W        W50648   3.764  11.962  20.136  0.3418  0.1572 -0.0637
75661W        W50649   1.222  23.009  16.433  0.0665  0.0761 -0.3439
75662W        W50650  31.081  27.833  23.115 -0.3235  0.3581  0.0091
75663W        W50651  29.596  16.310  23.314  0.3801 -0.0158 -0.0986
75664W        W50652  15.239  30.541  10.613 -0.0470  0.1816 -0.0385
75665W        W50653  32.331   6.398  17.358  0.3223  0.1152  0.0598
75666W        W50654  27.834  18.358   4.750 -0.0042  0.2299  0.2320
75667W        W50655  18.943  12.365  16.700  0.0335  0.1457  0.0731
75668W        W50656  23.878   7.570  18.318 -0.0812  0.2569 -0.0614
75669W        W50657   5.934   8.040  26.186  0.0109 -0.0225 -0.1209
75670W        W50658  10.625  24.074  22.657  0.0442 -0.0942 -0.2385
75671W        W50659  17.275  30.739   9.900 -0.5768 -0.1744 -0.0588
75672W        W50660   1.418  29.531   4.308 -0.1388 -0.0481 -0.0812
75673W        W50661  33.597  11.073  14.536  0.1009  0.1025  0.1486
75674W        W50662  13.257   0.627  10.856  0.2666 -0.0761  0.1248
75675W        W50663  17.906  32.000  23.127  0.0549  0.0736  0.2455
75676W        W50664  14.130  18.798  23.336  0.1462 -0.3411  0.0872
75677W        W50665   7.207  18.605  23.071 -0.0125  0.2415 -0.1771
75678W        W50666  24.364  12.982   1.526 -0.0649 -0.1933 -0.3463
75679W        W50667  21.353   1.335  22.100  0.0148 -0.3771 -0.2009
75680W        W50668   8.013  14.012   9.918 -0.1169  0.1942 -0.1201
75681W        W50669  14.372   1.617  19.231  0.2559 -0.1380  0.1577
75682W        W50670  15.512  31.480  21.116 -0.0392  0.2288 -0.2106
75683W        W50671  29.506  27.514   1.957  0.2179 -0.0101  0.0990
75684W        W50672  21.688   1.311  15.403  0.0656 -0.0098  0.0890
75685W        W50673  32.330   5.719  19.356 -0.2015 -0.1516 -0.0107
75686W        W50674   2.070  11.804  20.848  0.1169 -0.1004 -0.1389
75687W        W50675  10.812  14.276   6.668  0.2357 -0.2519  0.4709
75688W        W50676   2.020  11.580  22.900 -0.2987 -0.1807  0.0053
75689W        W50677  13.472   9.295   8.969 -0.2178  0.4885 -0.0467
75690W        W50678  28.380  11.291  19.591  0.2346 -0.1055  0.2498
75691W        W50679  11.370  34.191   4.091 -0.1007 -0.0610  0.1345
75692W        W50680  30.524  20.509  23.661 -0.1491 -0.2246  0.2207
75693W        W50681  32.554  33.925   4.648  0.1152  0.0333  0.4407
75694W        W50682  22.404  29.519   1.010 -0.3155  0.0275  0.1326
75695W        W50683  24.357   2.175   3.153  0.1010 -0.0817 -0.0669
75696W        W50684  25.214  22.866  23.309  0.2720  0.3416  0.3493
75697W        W50685  12.024  32.904   1.022  0.0222  0.0882  0.1471
75698W        W50686  22.369   3.674   2.737  0.1108 -0.0922 -0.0431
75699W        W50687   1.992  17.495  11.338 -0.1451  0.0843  0.0925
75700W        W50688  22.218  27.235  22.777  0.0752  0.0597  0.0590
75701W        W50689  33.253  26.175  14.945 -0.0344  0.0035 -0.0585
75702W        W50690   8.869  11.893   0.806  0.0251 -0.2045 -0.3114
75703W        W50691  13.780  32.771  10.906 -0.0146 -0.3097 -0.0088
75704W        W50692  31.001  21.094  24.877  0.2407 -0.4176  0.1629
75705W        W50693  18.586   8.013  11.389  0.3117 -0.0390  0.3716
75706W        W50694  29.384   9.173   9.194 -0.1410 -0.2452  0.0524
75707W        W50695  15.263  12.712   8.535 -0.2333  0.3658  0.2735
75708W        W50696   4.552  24.530   1.005 -0.3830 -0.2214  0.0158
75709W        W50697  30.167   1.849   4.521  0.1869  0.2331 -0.1675
75710W        W50698  10.795  15.695  20.594  0.1940  0.1476  0.2313
75711W        W50699  34.979   3.568   6.002  0.1390  0.0736  0.0423
75712W        W50700  15.383  30.839   3.334 -0.1911  0.1635 -0.1032
75713W        W50701  35.340   4.610  22.687 -0.2091 -0.1143 -0.0141
75714W        W50702  11.228  34.116  25.734 -0.2808  0.1769  0.1557
75715W        W50703   8.651  16.616  19.747 -0.0937 -0.3971  0.0532
75716W        W50704  13.340  27.711  26.226 -0.1892 -0.0366 -0.0824
75717W        W50705  32.753  13.352   9.616  0.4039  0.0328  0.3053
75718W        W50706  11.098  25.530   0.474  0.0131  0.1154 -0.1995
75719W        W50707  21.029  14.213  18.820  0.0198  0.3200  0.1703
75720W        W50708  15.542  16.287  21.619  0.1360 -0.1263  0.1391
75721W        W50709   6.303   2.470  22.220 -0.1663  0.1463  0.1476
75722W        W50710  29.575  25.896  14.997 -0.0846 -0.0092 -0.0715
75723W        W50711  17.604  20.567   0.009  0.1436 -0.3064  0.0950
75724W        W50712   8.507  25.448  11.465 -0.1686 -0.1564 -0.1396
75725W        W50713  23.431  32.258  12.210 -0.0113  0.0783  0.1279
75726W        W50714  11.053   1.780  21.386  0.1921 -0.0853  0.2967
75727W        W50715  14.076  28.630   2.628  0.0027  0.2212  0.0741
75728W        W50716  31.287  10.083  15.684 -0.1889 -0.1119 -0.0960
75729W        W50717  32.934   0.991  13.807 -0.0704 -0.0230 -0.1131
75730W        W50718   6.524  32.235  25.448 -0.1599  0.0189 -0.1475
75731W        W50719  12.926  24.029  17.552  0.0304 -0.0815  0.0896
75732W        W50720  35.369  33.363  18.913 -0.1202 -0.3595  0.1032
75733W        W50721   9.095  17.706   1.029 -0.0633  0.1399 -0.1050
75734W        W50722   7.367  14.831   7.910 -0.0248  0.0624  0.0639
75735W        W50723  24.466   0.485  15.008 -0.1103  0.1428  0.3415
75736W        W50724  18.384  30.256  25.142 -0.0048 -0.0732  0.2112
75737W        W50725  22.024  33.346  13.662 -0.1095  0.6226  0.0483
75738W        W50726  15.346  27.917  12.775 -0.1095 -0.1471 -0.0252
75739W        W50727  29.784  26.773  12.999 -0.0164  0.0351 -0.1521
75740W        W50728   7.197  11.530   5.704  0.1288  0.1712 -0.2315
75741W        W50729  23.842  10.134   0.475 -0.1961 -0.2580 -0.0264
75742W        W50730   6.567   6.320   4.791 -0.1591 -0.2061 -0.0850
75743W        W50731   3.296  16.701  22.183 -0.0287 -0.1032 -0.3088
75744W        W50732  21.858  11.293   0.194  0.0975  0.1629 -0.1407
75745W        W50733   2.227  21.760  20.536  0.1283 -0.2738 -0.0165
75746W        W50734  17.053   4.487  20.227  0.2395 -0.0723 -0.0748
75747W        W50735  20.268   4.855  25.360 -0.1164 -0.0351 -0.1189
75748W        W50736   3.276   0.641  24.332  0.3666 -0.1337  0.2322
75749W        W50737   0.116  33.369   3.874 -0.0293  0.2797  0.2545
75750W        W50738  30.017  13.180   9.704  0.4597  0.2700  0.2085
75751W        W50739   8.231   7.856   1.081  0.2927  0.0973  0.2549
75752W        W50740  20.583  22.640  21.170  0.1455 -0.1050  0.3487
75753W        W50741   9.444  22.954  13.197  0.0238  0.0696 -0.3455
75754W        W50742   5.740  17.618   0.881  0.0544  0.2490  0.1785
75755W        W50743  11.554   8.079  24.334  0.2069  0.0876  0.2710
75756W        W50744  29.649  32.795  20.431 -0.0994  0.0183 -0.0715
75757W        W50745  30.100  32.907   4.297  0.2949  0.3953  0.2004
75758W        W50746  22.697   5.890   1.606  0.1202 -0.1229 -0.0033
75759W        W50747  20.710  30.182  23.487  0.0316 -0.3403 -0.2037
75760W        W50748  26.449  19.677  21.558 -0.1422  0.1637  0.0926
75761W        W50749  24.840  20.660  11.767  0.1491  0.0497 -0.0281
75762W        W50750  20.035  29.275   2.072 -0.1398  0.1164  0.0545
75763W        W50751   9.749  30.630   0.123 -0.0148  0.2201 -0.1580
75764W        W50752  13.379  11.103   8.668  0.0214  0.0497  0.3949
75765W        W50753  11.244   7.750   8.291  0.3565  0.0979  0.0386
75766W        W50754   0.258  27.819  21.759 -0.0882  0.4150 -0.1335
75767W        W50755   7.839   8.340   6.313  0.1645 -0.1426  0.0513
75768W        W50756  19.310  26.521  20.537 -0.0146 -0.0584 -0.1977
75769W        W50757  29.248  21.787   6.998  0.2590 -0.1256  0.4512
75770W        W50758   6.458  29.231   0.255  0.0419 -0.1029  0.0499
75771W        W50759   3.623   1.395  18.518 -0.2898 -0.1974 -0.2440
75772W        W50760  30.264  13.958  18.768  0.2242 -0.0355 -0.0205
75773W        W50761  21.144  10.158   0.572 -0.3024  0.0684  0.0791
75774W        W50762   8.712  35.322  13.263 -0.2505  0.1762 -0.1495
75775W        W50763   4.867   8.818  19.963 -0.0172 -0.3472 -0.3417
75776W        W50764  17.037  22.982  24.406  0.1944 -0.2826 -0.0954
75777W        W50765  10.520   6.436   3.819 -0.0271  0.0290  0.0053
75778W        W50766   4.539  23.465   1.530  0.2851  0.0729  0.4115
75779W        W50767   0.631  19.221  15.728 -0.1116  0.0737  0.0187
75780W        W50768   2.247  20.587   3.040 -0.2938 -0.0702 -0.0959
75781W        W50769  21.246   6.036   1.105  0.2057  0.3370  0.0059
75782W        W50770  33.041  28.826  23.228  0.1327 -0.1305  0.1017
75783W        W50771  24.840  14.876   0.811  0.2343 -0.0411  0.1991
75784W        W50772  22.071  29.340   4.465  0.1353  0.2171  0.0588
75785W        W50773   4.692   9.453  24.878  0.0839  0.0086  0.3107
75786W        W50774  28.008  25.732  13.614  0.1671 -0.4063 -0.0503
75787W        W50775  13.597   2.373  21.382 -0.2810 -0.4113 -0.0486
75788W        W50776  18.727   6.974  24.874  0.0144  0.1486 -0.0686
75789W        W50777   9.680  29.953   0.256 -0.1025  0.2201 -0.2610
75790W        W50778  35.271   9.863   0.452 -0.2481 -0.1151  0.1066
75791W        W50779   3.243  24.968  21.543  0.1976 -0.2312  0.0224
75792W        W50780  19.008  24.657  22.940  0.1527 -0.1654  0.0825
75793W        W50781  30.340  10.081  16.070  0.2701  0.3156  0.1891
75794W        W50782  20.523  30.813  21.305  0.1314  0.0716 -0.1503
75795W        W50783  17.820   6.371   1.704  0.0851 -0.1662 -0.0633
75796W        W50784   5.785  34.783  21.355 -0.0979 -0.0586  0.3253
75797W        W50785  20.998  27.550  22.703  0.0747  0.0966 -0.1315
75798W        W50786  22.061  22.659  17.919 -0.1422 -0.1236  0.1195
75799W        W50787   9.561   4.196   1.260  0.1845  0.0904 -0.1459
75800W        W50788  11.675   1.539   0.057  0.5899 -0.1837  0.1577
75801W        W50789  11.533  32.814   3.362 -0.0341 -0.1544  0.0755
75802W        W50790  34.719   0.451  25.522 -0.0898 -0.0063 -0.2923
75803W        W50791   9.502  26.688   5.358  0.0677 -0.1097 -0.1370
75804W        W50792   0.290  24.103  18.806 -0.1551 -0.0093  0.0381
75805W        W50793  11.636   5.180  20.936 -0.1310  0.1094 -0.2822
75806W        W50794   5.276  16.118   8.688  0.1641 -0.2081  0.2978
75807W        W50795   4.407  32.034  25.722 -0.1287 -0.0981  0.1400
75808W        W50796  30.483   7.640  22.426 -0.2282  0.1185 -0.1179
75809W        W50797   5.830  27.991   2.724  0.4124 -0.3823  0.0874
75810W        W50798  30.931  19.792  14.695 -0.0969 -0.3978 -0.2804
75811W        W50799  14.910  26.596  13.232  0.0544 -0.5672  0.4831
75812W        W50800  31.782  12.154  18.842  0.1410  0.2898 -0.1944
75813W        W50801  28.153  28.643  16.378 -0.0651  0.1668 -0.2418
75814W        W50802   9.719  31.772  22.422 -0.0600 -0.1450 -0.1641
75815W        W50803   7.493  23.538  25.164  0.0678  0.0467  0.2464
75816W        W50804  18.475  10.584  17.826  0.2135  0.1557 -0.3550
75817W        W50805  28.767  22.905  11.473  0.4780 -0.3909  0.0019
75818W        W50806  15.827  34.331   9.787  0.1474  0.2268  0.0689
75819W        W50807   4.556   7.657   5.507  0.1901 -0.0408  0.1424
75820W        W50808   4.964  29.302   5.893  0.1463 -0.1027  0.0178
75821W        W50809   1.062  26.703  15.914 -0.4099 -0.0205 -0.2695
75822W        W50810  27.689  16.449  10.188  0.2413 -0.0914  0.0882
75823W        W50811  18.644  14.580   1.866  0.0900 -0.0517  0.1503
75824W        W50812  11.767  34.199  10.249 -0.0223 -0.0435 -0.1515
75825W        W50813  31.729  22.814  23.679  0.0480  0.3169  0.1065
75826W        W50814   7.361  30.061  12.191  0.2205  0.1398 -0.0985
75827W        W50815   7.619   6.378  21.514 -0.2778 -0.1502  0.0199
75828W        W50816  34.558  17.985  23.745  0.1516  0.0328 -0.0068
75829W        W50817  21.760  23.831   4.034  0.1997 -0.0357 -0.0772
75830W        W50818   6.548   1.238  26.240  0.3052 -0.0418 -0.0434
75831W        W50819   1.098   7.685  12.618 -0.2242  0.0484  0.1322
75832W        W50820  30.778  28.499   3.279  0.1324  0.0217 -0.2111
75833W        W50821  11.049  11.063   6.023  0.0292  0.0158 -0.1080
75834W        W50822  12.540  34.399   2.659 -0.2356  0.3026  0.0281
75835W        W50823   8.694  22.309   2.694 -0.1370 -0.1764 -0.3225
75836W        W50824  31.458   1.391  21.512  0.0697 -0.1539  0.2881
75837W        W50825  26.545   8.889   1.161 -0.3767 -0.0838  0.0967
75838W        W50826   6.170   2.914  25.456 -0.0066  0.0091  0.1830
75839W        W50827  20.960  29.712  22.776 -0.2155 -0.1556 -0.2359
75840W        W50828  20.079   7.298   4.928 -0.0161  0.2794 -0.0777
75841W        W50829   8.042  12.719  11.043 -0.1657 -0.1234  0.0363
75842W        W50830  32.532  22.135  14.939  0.0859 -0.0499 -0.0415
75843W        W50831  17.570  25.744  25.020  0.2403 -0.1197  0.1457
75844W        W50832  13.061  19.236  25.614  0.1197  0.0237  0.0582
75845W        W50833   1.796  17.795  10.871  0.2732 -0.1529  0.1581
75846W        W50834  29.547   6.476  25.166 -0.3322  0.0986  0.1861
75847W        W50835  10.022  15.687   4.587 -0.1398 -0.1621  0.0184
75848W        W50836  24.581  26.506  21.685 -0.0688 -0.3338  0.2917
75849W        W50837  30.664  31.714  25.344 -0.0362  0.1948 -0.2801
75850W        W50838  10.146  15.643   4.054 -0.0059  0.0663 -0.1815
75851W        W50839  32.126  18.916   6.392 -0.0088 -0.0803 -0.0653
75852W        W50840  23.356  19.273   1.604 -0.0945 -0.1315 -0.1616
75853W        W50841  18.629   9.730  11.542  0.0149 -0.0241 -0.0848
75854W        W50842  12.281  13.546   3.030 -0.2209  0.2823 -0.2703
75855W        W50843  31.021  12.336   7.400 -0.0306  0.2997  0.0335
75856W        W50844   1.473  26.450  17.460  0.2317 -0.0084 -0.0332
75857W        W50845  15.581  17.783   4.470 -0.0318 -0.0654  0.3916
75858W        W50846  24.770  34.018  11.395  0.1333 -0.0601 -0.3346
75859W        W50847  18.032  20.800  10.596  0.2052  0.0249  0.4267
75860W        W50848  32.885  20.299  25.723  0.1429 -0.3679  0.0549
75861W        W50849  33.608   8.328  22.531 -0.1797 -0.1491  0.1114
75862W        W50850  17.183   7.833   8.675 -0.3518 -0.0254  0.0601
75863W        W50851  31.740  29.340  24.221  0.0474 -0.4180 -0.1845
75864W        W50852   6.166   8.151   2.259  0.0660 -0.1907 -0.0557
75865W        W50853   4.873   1.207  22.520  0.1701 -0.1066  0.3415
75866W        W50854  33.574  29.378  15.873 -0.0011  0.0336  0.2580
75867W        W50855   9.060  18.606   8.679 -0.3973  0.2782 -0.3852
75868W        W50856   1.182  19.924  15.468 -0.2305  0.1503 -0.4206
75869W        W50857  12.121  15.015   5.631 -0.2527  0.2278  0.1130
75870W        W50858  23.371  25.914   1.807 -0.2649 -0.1209  0.0621
75871W        W50859  29.738  11.148  16.675 -0.1050  0.2098 -0.0534
75872W        W50860  19.463  30.066  19.222 -0.2006 -0.0589 -0.3403
75873W        W50861  17.527  20.138   2.152 -0.1329  0.0276  0.1963
75874W        W50862  25.404   8.895   2.172  0.2077 -0.3728  0.2718
75875W        W50863  17.192   9.953  13.439 -0.1532 -0.1811 -0.0410
75876W        W50864  31.319   7.862  25.333  0.1362 -0.0259  0.1133
75877W        W50865   3.375  13.492  18.250 -0.2185  0.0729 -0.0236
75878W        W50866  12.075  34.040  26.092 -0.1889  0.5835  0.0490
75879W        W50867  14.782  10.076  25.766 -0.2452  0.1148  0.0957
75880W        W50868  32.234   9.032  16.088 -0.0841  0.1898 -0.0730
75881W        W50869  10.055  28.143   5.686  0.0852 -0.4159  0.1307
75882W        W50870  15.938  28.860   3.120  0.2600 -0.0458 -0.1004
75883W        W50871   7.035   4.158  12.643 -0.0195  0.2099  0.2046
75884W        W50872  30.478  14.200   7.854  0.0658  0.0164  0.0016
75885W        W50873  23.604  34.152  19.809  0.1464 -0.1013  0.2296
75886W        W50874   9.997  27.499  13.561  0.0503  0.2357 -0.2039
75887W        W50875  18.058  19.612   7.227  0.0640  0.2280 -0.2015
75888W        W50876  30.500  10.093  14.364  0.2523 -0.3306  0.1560
75889W        W50877   1.924  27.203  17.778  0.2545 -0.2914 -0.2158
75890W        W50878  24.066   0.419  16.864 -0.3163 -0.3426 -0.4045
75891W        W50879  16.930  29.366  25.419  0.2434 -0.1930 -0.1450
75892W        W50880  30.499  34.334  11.744 -0.0627  0.0209 -0.1363
75893W        W50881  22.136   5.936  17.629 -0.0609 -0.0273 -0.1575
75894W        W50882  20.739   6.719  25.433 -0.3452 -0.1171  0.2982
75895W        W50883  27.263  14.764   6.408 -0.0975 -0.0969 -0.3269
75896W        W50884  18.978   5.141   3.047  0.0070 -0.1528 -0.0522
75897W        W50885   2.490   3.657   3.241  0.1199 -0.0990 -0.0062
75898W        W50886   4.836   4.295  19.577  0.1348 -0.1317  0.2586
75899W        W50887  23.986  12.285  18.706  0.1170  0.0951  0.1075
75900W        W50888  28.824  15.776  18.833 -0.3003  0.2160  0.3721
75901W        W50889  24.160  27.382  23.837 -0.3021  0.1128 -0.3435
75902W        W50890   0.121  11.472  18.560 -0.0677  0.0302 -0.3224
75903W        W50891   8.995  14.986   4.033 -0.3677  0.0237  0.0395
75904W        W50892   7.127   9.552   5.067 -0.1591  0.2874 -0.1131
75905W        W50893  33.430  22.091  17.215  0.1073 -0.3004 -0.0181
75906W        W50894   3.568  17.118  21.735  0.1208  0.2878 -0.3059
75907W        W50895   1.942  21.841  17.185  0.1503  0.2112 -0.1591
75908W        W50896  29.483  26.862  22.259 -0.0057 -0.1167  0.3877
75909W        W50897  32.527  12.601   8.060 -0.0545 -0.0946  0.0456
75910W        W50898  32.822  11.777  14.512 -0.1002  0.1620  0.0723
75911W        W50899   3.084   9.041  18.785 -0.2066  0.2094  0.2178
75912W        W50900  31.322  22.026  16.268  0.0395  0.1601 -0.2900
75913W        W50901  26.133  11.513  20.858  0.2511 -0.3734 -0.2394
75914W        W50902   0.981   5.808   0.719 -0.1233  0.2368 -0.0718
75915W        W50903   3.530  17.204   3.401  0.1443 -0.2555 -0.0764
75916W        W50904  15.499   6.495   3.734  0.4700  0.1098  0.1078
75917W        W50905  17.141  20.322   4.241  0.2027  0.2011 -0.0784
75918W        W50906  27.225  13.112   7.529 -0.3117 -0.0316  0.1472
75919W        W50907  11.764  10.855  10.250  0.3822 -0.0284 -0.1186
75920W        W50908  17.296  13.824   6.085  0.1900 -0.0346  0.4829
75921W        W50909  21.083  32.837  21.082 -0.2612 -0.1381 -0.0495
75922W        W50910  24.549  17.800  12.788 -0.2220  0.0050  0.1814
75923W        W50911  13.836  20.188  15.305 -0.0359 -0.0709 -0.1618
75924W        W50912   0.686  14.929   9.043 -0.1900  0.0423  0.0579
75925W        W50913   1.879   4.373  19.155 -0.3774 -0.4784  0.3668
75926W        W50914  28.174  25.491  25.831 -0.0284 -0.0539 -0.0058
75927W        W50915  17.770  22.125  12.226 -0.1354 -0.2526  0.1711
75928W        W50916  11.960  12.236   5.319 -0.1580 -0.1263 -0.2596
75929W        W50917  17.111   6.281  18.151 -0.1422 -0.0894  0.1013
75930W        W50918   8.322  18.175   6.498  0.1509 -0.2362 -0.2482
75931W        W50919  21.103  31.841  18.672 -0.3502 -0.1115  0.1713
75932W        W50920  17.917   5.205   8.638  0.0459  0.0897 -0.2035
75933W        W50921   4.134  34.375   2.952 -0.0873  0.0623 -0.0610
75934W        W50922   4.187  24.784  21.534 -0.1459  0.2005 -0.0985
75935W        W50923  11.860   8.280   4.480  0.0022  0.0759 -0.0126
75936W        W50924  35.100  27.232  19.637 -0.1113  0.1847 -0.5015
75937W        W50925   8.097  13.679  24.976 -0.2264  0.0015 -0.3618
75938W        W50926  23.620  16.620  18.064  0.1715 -0.0930  0.2668
75939W        W50927   0.575  23.655  25.426  0.2745  0.0245 -0.2112
75940W        W50928  30.051  17.854  12.889  0.0771 -0.1527  0.1140
75941W        W50929  19.706  24.803  22.589 -0.1454  0.0122  0.0126
75942W        W50930   1.404  25.101   4.780  0.2127  0.2665  0.3165
75943W        W50931  14.961  34.692  20.028  0.0184 -0.1317 -0.2570
75944W        W50932  25.441  30.840  17.543 -0.0034  0.2864 -0.2166
75945W        W50933   7.926   8.186   4.814 -0.3495 -0.0774 -0.0932
75946W        W50934  14.853  27.770  23.137  0.4053  0.2897  0.0110
75947W        W50935  31.388  20.703  11.265 -0.2157 -0.0562 -0.2116
75948W        W50936  12.968  24.703   5.616 -0.2022  0.0973 -0.1759
75949W        W50937  23.772  34.843  26.227 -0.1271  0.0680 -0.1260
75950W        W50938   7.372   2.596   5.712 -0.0323 -0.0754  0.1330
75951W        W50939  28.912   6.089  25.985  0.0714 -0.1592  0.1632
75952W        W50940  24.434   5.042  23.557  0.2149  0.2258 -0.1338
75953W        W50941  29.137  16.984  14.396 -0.2465  0.1683  0.1424
75954W        W50942  17.567   6.177   9.784 -0.1634 -0.1537 -0.0695
75955W        W50943  25.579  15.161  12.573  0.1762  0.1383  0.1136
75956W        W50944   7.705  34.613  26.102  0.3594  0.0482 -0.2496
75957W        W50945   9.912   5.384   3.579  0.2044 -0.0503 -0.1798
75958W        W50946  31.695  25.245  19.113  0.2108 -0.0344 -0.0056
75959W        W50947  20.210  19.339  23.051 -0.1125 -0.0279  0.0905
75960W        W50948  24.147  21.745  15.158  0.1135  0.0502 -0.0199
75961W        W50949  34.435  27.945  22.229 -0.1756  0.2550 -0.1453
75962W        W50950  24.319   1.698  23.618 -0.2446 -0.2566  0.1841
75963W        W50951  23.764  33.481   1.767  0.3339  0.3590  0.0569
75964W        W50952   2.205  15.653  15.027  0.0548 -0.2944  0.2333
75965W        W50953  18.562   5.774   5.914  0.1753  0.0369  0.2092
75966W        W50954  26.512  10.778  16.622  0.2198 -0.3972 -0.2185
75967W        W50955  22.501  17.184   1.134  0.0571  0.1327  0.5001
75968W        W50956   5.666  15.307   5.064 -0.1894  0.0777  0.0558
75969W        W50957   2.285  19.111  22.369  0.4370  0.0330  0.0502
75970W        W50958  10.391  31.564   4.535  0.3720 -0.2441 -0.2707
75971W        W50959   1.929  10.545  18.269 -0.2355  0.1045 -0.0339
75972W        W50960   8.192  16.084  21.160 -0.0450  0.0598 -0.1174
75973W        W50961  23.897   5.142  22.580 -0.2334  0.1734  0.3692
75974W        W50962   8.391  32.577  25.706  0.3278  0.0635  0.1474
75975W        W50963  14.177  10.187  12.862 -0.4912 -0.2130  0.2444
75976W        W50964  32.419  33.633   0.863  0.1833  0.1363 -0.0397
75977W        W50965  32.541   8.114  24.819  0.1437 -0.2717  0.2612
75978W        W50966  30.014  21.506   9.514 -0.0087 -0.2789  0.1309
75979W        W50967  32.629   7.046  20.801  0.5301 -0.3010  0.2046
75980W        W50968  10.793   6.299  21.268  0.3508 -0.1092 -0.0750
75981W        W50969  32.697  12.876  24.581 -0.2638  0.2324  0.1416
75982W        W50970  16.672   0.919   4.752 -0.1093  0.1161 -0.0888
75983W        W50971  26.369  24.199  13.040 -0.1208 -0.0976  0.1070
75984W        W50972  24.883  16.422   8.222 -0.4652  0.1454 -0.1065
75985W        W50973  33.057  11.494  22.807  0.2030 -0.0762 -0.0165
75986W        W50974  32.606  32.267   1.247 -0.1622 -0.1497 -0.1087
75987W        W50975   4.038  21.859  24.052 -0.0708 -0.1566 -0.1298
75988W        W50976  28.907  31.340  23.241 -0.1708 -0.0079 -0.1161
75989W        W50977   4.096   7.492  21.796 -0.1505  0.2584 -0.0927
75990W        W50978  20.736  16.919  21.128 -0.0208 -0.0089  0.1952
75991W        W50979  18.812  21.932   7.234  0.0491  0.1578  0.3081
75992W        W50980  30.398  14.943  20.516  0.1872 -0.0055 -0.2477
75993W        W50981   2.066  18.890  18.981 -0.3010 -0.0492  0.1521
75994W        W50982  32.708  27.926  20.796  0.2403  0.1507  0.0341
75995W        W50983   3.315  28.434   7.182 -0.0017  0.0200 -0.3731
75996W        W50984  29.937  25.907  15.453 -0.0091 -0.0719  0.2157
75997W        W50985  33.849  15.407  24.006 -0.2037 -0.0474  0.5609
75998W        W50986  35.335  14.868  21.300 -0.2669 -0.3048  0.0928
75999W        W50987  26.317  22.568  26.064 -0.1717 -0.2355 -0.2898
76000W        W50988   8.828  28.874  25.088 -0.1336 -0.0499 -0.1014
76001W        W50989  15.591   2.504   5.689  0.1156 -0.1062 -0.1882
76002W        W50990  15.711  27.784  15.292 -0.1374 -0.1387  0.0468
76003W        W50991   7.512  29.527   4.404  0.1815  0.2490 -0.0108
76004W        W50992  32.445  26.623  18.709  0.1695  0.1142 -0.0769
76005W        W50993   7.404  26.665  12.685  0.0540 -0.1194 -0.2256
76006W        W50994  23.390   8.521  21.118  0.0362 -0.1523  0.0089
76007W        W50995  10.935  16.637   4.817  0.2992  0.0347  0.3740
76008W        W50996  14.176   2.547  23.098  0.2202  0.0187 -0.2293
76009W        W50997  17.567  12.303   1.946  0.0137 -0.2523 -0.0934
76010W        W50998   8.331  30.470  13.494 -0.1954  0.0744  0.0054
76011W        W50999  24.900  10.979  13.536 -0.0394 -0.1215  0.4008
76012W        W51000   4.933   8.981   0.630 -0.0928 -0.1509  0.0178
76013W        W51001  21.562  20.412  17.525 -0.2616 -0.1773 -0.0096
76014W        W51002  31.108  31.154   0.144  0.1748 -0.0558  0.0343
76015W        W51003  16.709  12.854  13.405 -0.1918  0.0163 -0.1459
76016W        W51004   6.133   9.366  16.696 -0.1407  0.0944  0.2768
76017W        W51005  29.091   2.247   5.178 -0.2783  0.1418 -0.0213
76018W        W51006  31.619  20.933  22.819 -0.0018  0.0720 -0.0158
76019W        W51007  11.752  23.151   0.573  0.0559 -0.0811  0.0398
76020W        W51008  23.976   9.174   2.151 -0.3429 -0.1965  0.0234
76021W        W51009  22.448  10.303  20.653 -0.0186  0.1676 -0.1745
76022W        W51010   0.080   0.221   9.427  0.5369 -0.0241 -0.0389
76023W        W51011  30.557  17.501   7.777 -0.3748 -0.0199 -0.0813
76024W        W51012  17.388  27.328   7.986 -0.1595 -0.1317  0.1008
76025W        W51013   1.348  18.736  18.363 -0.2522  0.1808 -0.0033
76026W        W51014  11.928  14.309   4.179  0.1316  0.4268  0.3195
76027W        W51015  34.031   9.272  12.499 -0.2658 -0.0506  0.1129
76028W        W51016  32.269  30.443  22.042  0.4109 -0.0894  0.4614
76029W        W51017  34.596  14.259  20.781 -0.0290 -0.1287 -0.0239
76030W        W51018  27.702   4.053   2.877  0.1085 -0.1872 -0.0038
76031W        W51019  33.606  13.316  18.547 -0.1515 -0.1875 -0.0145
76032W        W51020  12.941  22.989  10.132 -0.1716  0.1015  0.3616
76033W        W51021  19.398   9.089  25.197 -0.3358  0.0958  0.1304
76034W        W51022  21.166  35.150   7.857  0.2483 -0.0676  0.2201
76035W        W51023  28.940   4.939  15.913 -0.0450  0.0679  0.0160
76036W        W51024  22.426  11.678  16.845 -0.1341  0.2441 -0.0648
76037W        W51025  30.566  10.373  11.805 -0.0500  0.1481 -0.1034
76038W        W51026  28.859  25.733  20.880  0.1455 -0.1405 -0.0222
76039W        W51027  19.566  12.947  21.548 -0.0328  0.0155 -0.3022
76040W        W51028  25.835  22.610  12.149 -0.4153  0.1009 -0.3036
76041W        W51029  33.257  17.135  14.855  0.0608 -0.1942 -0.0631
76042W        W51030   1.171  31.230  20.345  0.0544  0.1169 -0.4659
76043W        W51031  10.254  10.390   9.106  0.0257  0.1269  0.0324
76044W        W51032   8.259  31.850  24.526  0.0633 -0.2539  0.0058
76045W        W51033  28.862  33.018  12.338  0.0067 -0.0039 -0.1879
76046W        W51034   3.095   0.767  19.106  0.3843  0.1260 -0.0168
76047W        W51035  27.080  14.205  11.164 -0.1400 -0.0036  0.0608
76048W        W51036  10.155  22.489  22.460 -0.1087 -0.2117 -0.2158
76049W        W51037  15.447   9.366   8.099 -0.2261 -0.1151 -0.0863
76050W        W51038  26.368  17.307  19.458  0.1005 -0.0536 -0.1757
76051W        W51039   4.430  29.807  23.705  0.2111 -0.0861  0.0837
76052W        W51040  32.037   3.803  21.759  0.0587  0.0827 -0.1059
76053W        W51041   5.191  15.028  19.310  0.2363  0.0388  0.0110
76054W        W51042   3.915  12.346   0.701 -0.3309  0.1540  0.0755
76055W        W51043  15.478   1.308   9.532 -0.3665  0.1525  0.0267
76056W        W51044   5.568  12.256  20.797 -0.0845 -0.0633  0.0030
76057W        W51045   6.507   3.048   7.249  0.0124  0.2123 -0.2529
76058W        W51046  16.021  25.951   2.181 -0.2273  0.2720  0.1269
76059W        W51047  10.180  10.371  18.891 -0.2053  0.1977 -0.2323
76060W        W51048   6.441  22.064   8.480 -0.2212  0.2497 -0.2663
76061W        W51049  30.464  14.561   9.049  0.0959  0.0742  0.3596
76062W        W51050  15.305  18.888  12.366 -0.1470  0.0761 -0.2649
76063W        W51051  13.111  23.298   2.818  0.0037 -0.3333  0.0407
76064W        W51052   4.680  26.184   0.600 -0.2998 -0.4435 -0.4756
76065W        W51053  21.354  14.279  21.383 -0.3092 -0.0807 -0.4907
76066W        W51054   7.106   3.514   1.471 -0.1195  0.2640  0.2751
76067W        W51055  21.101  14.825  20.290 -0.0626  0.0659  0.1894
76068W        W51056  18.874  13.438  24.424 -0.0585  0.2295  0.0579
76069W        W51057  17.017   1.182   2.456  0.1196  0.0494  0.1156
76070W        W51058  26.207  26.319   2.571  0.2053  0.1258  0.0954
76071W        W51059  27.690  14.669  11.517  0.1057  0.1322 -0.0769
76072W        W51060  19.934   5.724   9.710  0.5391 -0.0698 -0.3001
76073W        W51061   4.070  24.067   2.407 -0.2300  0.1246  0.3245
76074W        W51062  16.010  19.467  22.129  0.2067 -0.2967  0.0186
76075W        W51063   3.381  10.947  20.217 -0.0955 -0.0171  0.0689
76076W        W51064   8.718  27.762   7.163  0.2233 -0.0358 -0.2103
76077W        W51065  19.040  23.809  18.826  0.1461  0.2541  0.4162
76078W        W51066  23.546   8.534   0.097  0.3100 -0.2141 -0.0708
76079W        W51067   2.472   5.817  23.339 -0.2168 -0.0345  0.2090
76080W        W51068  27.624  30.850  11.043  0.0225  0.1717  0.2347
76081W        W51069   7.725  13.014  20.349 -0.0604  0.1115  0.0119
76082W        W51070   7.327  11.659  25.223 -0.0102 -0.1044 -0.1295
76083W        W51071  16.395  32.639   6.625 -0.1683 -0.3477  0.1778
76084W        W51072  28.728   0.570  13.188 -0.1097  0.0122  0.0423
76085W        W51073   4.013   5.823  22.841  0.0010 -0.2095  0.1601
76086W        W51074   4.840  12.737  19.446 -0.0536 -0.1933  0.3383
76087W        W51075   2.074  33.574   8.852 -0.0324  0.0209  0.3295
76088W        W51076   8.242  25.513  12.251 -0.1144 -0.1177 -0.2227
76089W        W51077  31.309  31.703  13.085 -0.0888  0.1493  0.0491
76090W        W51078  31.872   9.565  10.777  0.0281 -0.3651 -0.1838
76091W        W51079   0.340  23.129  13.110  0.2497 -0.0443  0.1149
76092W        W51080  17.124  23.951   4.563 -0.0300 -0.1386 -0.0517
76093W        W51081   0.719   6.835  15.326 -0.1029 -0.2601  0.2696
76094W        W51082  29.745  20.342   9.373  0.1630 -0.0362 -0.2623
76095W        W51083  15.441  23.243   9.955  0.1174 -0.3560  0.0618
76096W        W51084   0.707   4.661   5.644 -0.1332 -0.1521 -0.1070
76097W        W51085   4.842  12.590   4.157  0.2819 -0.4994 -0.0537
76098W        W51086  18.676   2.328   9.436 -0.0920 -0.3463 -0.2597
76099W        W51087  12.912  31.755  21.954  0.1960 -0.1800 -0.3273
76100W        W51088  20.743  32.109   0.792  0.0416 -0.1698 -0.1191
76101W        W51089   5.549  23.185  24.363  0.1315 -0.2207 -0.0657
76102W        W51090  17.444  23.710   5.549  0.4559  0.0740 -0.0701
76103W        W51091   8.557  31.350  11.460  0.3420  0.2250  0.2239
76104W        W51092   2.849  32.355   6.455 -0.3015 -0.1503 -0.0400
76105W        W51093  26.837  17.952  12.417  0.0639 -0.0083 -0.1247
76106W        W51094   2.646  30.057  21.129 -0.0275 -0.0629  0.2024
76107W        W51095   0.700  14.832  19.096 -0.1428  0.1516  0.2294
76108W        W51096  15.810  25.282   2.749  0.4477 -0.0831 -0.0470
76109W        W51097   3.983   7.812   5.486  0.0280  0.0370  0.2810
76110W        W51098  11.066   9.597  22.589  0.1088 -0.2804  0.0036
76111W        W51099  27.971  17.230  23.262  0.3155 -0.1034  0.2059
76112W        W51100  32.517  10.638  13.910  0.1200  0.2402  0.1177
76113W        W51101   5.674   1.534  19.302 -0.1642  0.0703 -0.2605
76114W        W51102  12.727  33.693  23.526 -0.1586  0.0690 -0.1983
76115W        W51103   8.201  19.382   6.259  0.1073  0.1928  0.1555
76116W        W51104   7.621  21.596  25.815 -0.0245 -0.0897  0.3171
76117W        W51105  13.616  17.377   4.729 -0.0195  0.0340  0.1432
76118W        W51106  24.687  16.172  21.318  0.2432 -0.1163 -0.0736
76119W        W51107  18.348   3.303   0.540  0.2891 -0.0909  0.0349
76120W        W51108  18.283   6.600  12.068 -0.0018 -0.0389 -0.0309
76121W        W51109  29.139  21.784  17.510 -0.3132 -0.1796 -0.3467
76122W        W51110  20.231   3.267   5.484 -0.0407 -0.0533 -0.0905
76123W        W51111  14.740   7.264  19.510  0.1116 -0.2546  0.1818
76124W        W51112  29.668  26.010   1.615 -0.1595  0.1521  0.0421
76125W        W51113  30.377  20.745  11.211  0.0772 -0.1873 -0.1066
76126W        W51114  24.820   0.784   3.175 -0.1309  0.3612  0.0201
76127W        W51115  21.360  33.427  25.173  0.0152  0.1156  0.0208
76128W        W51116  21.287  19.489  20.205 -0.3915 -0.1627 -0.0334
76129W        W51117   5.741  16.013   0.842  0.2017  0.0169  0.0694
76130W        W51118  30.229  14.179  15.496  0.0342 -0.3505 -0.1732
76131W        W51119  15.288  26.809  16.013 -0.0257  0.0835  0.0623
76132W        W51120  24.646   1.928  17.468 -0.0773 -0.1203 -0.0526
76133W        W51121   4.635  27.736   8.867  0.1202 -0.0059  0.0619
76134W        W51122   2.516  29.812   2.691 -0.1240  0.2426 -0.1784
76135W        W51123  16.512  14.356   1.444 -0.0214 -0.1723  0.0690
76136W        W51124  28.708  17.476  15.569 -0.0533 -0.1457 -0.0181
76137W        W51125   3.589   9.932  20.010 -0.1915  0.0646  0.1330
76138W        W51126  14.658  16.277   9.302 -0.0028  0.0982  0.1400
76139W        W51127   2.246  16.964   2.858  0.1030 -0.1988 -0.0569
76140W        W51128   7.515  14.132  10.155 -0.1866 -0.0672  0.0735
76141W        W51129  33.559   0.220  14.882  0.1333 -0.0470  0.2632
76142W        W51130  18.147   0.331  25.607  0.1163  0.1884 -0.0233
76143W        W51131  23.958  12.761  23.380 -0.1670  0.0365  0.1165
76144W        W51132  20.317   5.449   1.877 -0.2681  0.1571  0.1496
76145W        W51133  10.227  23.489  12.207  0.1027  0.3786 -0.1468
76146W        W51134   2.832   9.111  16.307  0.0122  0.2034 -0.0305
76147W        W51135  16.466   4.439   4.876 -0.1911 -0.1550  0.1268
76148W        W51136  28.457  27.325  26.050  0.1761  0.1437 -0.2208
76149W        W51137   5.990  10.917  25.517 -0.1518  0.0205  0.0228
76150W        W51138  20.601  26.605  16.818 -0.0939  0.0400  0.2697
76151W        W51139  28.547  13.683  14.361  0.0825 -0.0658 -0.1133
76152W        W51140   9.292  34.655   6.426 -0.0355  0.0605  0.1383
76153W        W51141  19.948  10.061   2.518 -0.0252  0.2909 -0.0640
76154W        W51142  26.893  29.564  13.139 -0.3962  0.4414  0.0061
76155W        W51143  34.484   7.311  11.227  0.3698  0.0648  0.1938
76156W        W51144  11.514  27.223   2.761  0.1576  0.0588 -0.1883
76157W        W51145   0.502  10.789  14.316  0.0825  0.1135 -0.2706
76158W        W51146  12.353   6.381  12.197  0.2448  0.0527  0.3106
76159W        W51147  32.720  30.121  15.880 -0.0427  0.0277  0.1669
76160W        W51148  31.358  30.500  25.725  0.0538  0.0077  0.0403
76161W        W51149  10.397  13.874  11.127 -0.1394 -0.0715 -0.0273
76162W        W51150   6.618  29.637  23.188 -0.1739 -0.0764 -0.0494
76163W        W51151  11.480  17.391  11.186  0.2318  0.0813 -0.2406
76164W        W51152   5.415  10.732  20.804 -0.1108 -0.4588 -0.1827
76165W        W51153  11.530  12.546   0.805  0.1178 -0.1934 -0.0520
76166W        W51154   1.160  23.028   0.011  0.4025  0.0361  0.0112
76167W        W51155  10.850  16.339  10.452 -0.1132 -0.0873  0.4105
76168W        W51156   7.261  18.353   5.009 -0.4161  0.0394 -0.1820
76169W        W51157  11.995  12.377   1.284  0.1303  0.0538 -0.1383
76170W        W51158  33.784  30.165   6.131  0.3818 -0.0792  0.1469
76171W        W51159  31.439  14.027   6.913  0.3550  0.1906 -0.2527
76172W        W51160   3.145  18.092   3.847 -0.3232  0.1403 -0.0993
76173W        W51161   4.989  13.165  17.226 -0.2626  0.2023  0.0632
76174W        W51162   3.502  11.763  23.641 -0.1516 -0.1805  0.1139
76175W        W51163  10.664  34.241   0.092 -0.4164  0.1298  0.2611
76176W        W51164  15.275  24.932  12.303 -0.2535 -0.0257  0.1202
76177W        W51165  33.056   3.431   1.723  0.0114 -0.0270 -0.1687
76178W        W51166  16.151  16.775  10.733 -0.0988 -0.1880 -0.0034
76179W        W51167  15.060   4.461   4.870 -0.2052  0.2261 -0.2142
76180W        W51168   4.533  27.479  26.171  0.0998 -0.3081  0.5372
76181W        W51169   6.600   0.455  19.177 -0.3775  0.3115 -0.1780
76182W        W51170  22.334  10.370  21.832  0.0419  0.3035 -0.1356
76183W        W51171  11.830  29.326   6.316 -0.1245 -0.2197 -0.0632
76184W        W51172   1.773   6.045   6.793 -0.5072  0.2185  0.0390
76185W        W51173   5.963  13.705   8.616  0.2372 -0.0634 -0.0610
76186W        W51174  17.810   3.742   5.012 -0.1570 -0.0351 -0.3094
76187W        W51175  23.601  22.808  15.257  0.0233 -0.0230 -0.3208
76188W        W51176  30.033   6.408  13.683  0.1046 -0.0296  0.4832
76189W        W51177  29.903  14.368  23.915 -0.3393  0.1238 -0.0414
76190W        W51178   0.400  22.208  22.635  0.1839 -0.4261 -0.0224
76191W        W51179   1.053  13.687  25.777  0.1563 -0.2050 -0.1760
76192W        W51180  27.842  25.699  19.624 -0.1299 -0.0795 -0.1767
76193W        W51181  15.275  11.298  26.159 -0.2085 -0.0529 -0.1040
76194W        W51182  13.519  24.207  22.365  0.2350 -0.1586 -0.0860
76195W        W51183  16.000  13.563  13.075  0.1884 -0.2292 -0.1429
76196W        W51184  33.875   6.920  11.875 -0.0332  0.2575 -0.1864
76197W        W51185  19.634   6.948   4.231  0.1438 -0.4060 -0.2119
76198W        W51186  10.743  13.193   6.686 -0.4090  0.2427 -0.0881
76199W        W51187  32.282  33.379  19.879  0.0447  0.1389 -0.1259
76200W        W51188   1.082  34.766  25.111  0.1668  0.0126  0.1392
76201W        W51189   2.844   2.498   5.272  0.1163  0.1064 -0.3303
76202W        W51190  18.345   1.772  17.022  0.0628  0.0610  0.0809
76203W        W51191  20.976  17.651  23.472  0.0082 -0.0594  0.1990
76204W        W51192  27.889   6.468  18.060 -0.2992  0.0657 -0.3799
76205W        W51193  28.356  19.122  17.081  0.2328 -0.1486 -0.2223
76206W        W51194  32.055  16.077  19.265  0.0015  0.0008  0.2241
76207W        W51195  20.330   9.260   3.356  0.0452  0.1012 -0.0606
76208W        W51196  35.066  31.133   0.775  0.3072  0.1262  0.1672
76209W        W51197  12.970  15.769   8.321 -0.1423 -0.0915  0.0161
76210W        W51198  24.809  15.571  16.266 -0.1859 -0.0009  0.3817
76211W        W51199  29.221  16.939  16.824 -0.3262  0.2177  0.0751
76212W        W51200  21.805  14.772  15.756  0.0389  0.2163 -0.1635
76213W        W51201  29.661  27.980   2.009 -0.3681  0.0152  0.1391
76214W        W51202   7.420   0.862  20.218 -0.0802  0.0285  0.3154
76215W        W51203  25.416  34.274   2.863  0.0917 -0.1434 -0.0909
76216W        W51204   2.754   2.375  24.031 -0.0567  0.2311  0.0811
76217W        W51205  22.956   7.180  21.022 -0.0836 -0.0135  0.0702
76218W        W51206  18.911   0.130   6.127 -0.1681  0.1505  0.0257
76219W        W51207  13.676  25.838   0.544 -0.0744  0.1221  0.1370
76220W        W51208   2.191  31.885  20.799  0.1086  0.5584 -0.3760
76221W        W51209   5.317  30.038   2.095  0.0534 -0.0213 -0.0577
76222W        W51210  32.141   4.037  16.844 -0.0263 -0.1573  0.1369
76223W        W51211  33.346  17.377  13.139  0.1105 -0.3518  0.0322
76224W        W51212   2.307   4.674   4.985 -0.2015 -0.0111  0.0920
76225W        W51213  24.837  24.363   1.716  0.3389 -0.1228 -0.1236
76226W        W51214  27.224  11.572  24.591  0.0329 -0.1858  0.3802
76227W        W51215  22.860  22.685  21.234  0.1238 -0.1455  0.2290
76228W        W51216  18.008  34.891  16.508  0.1204 -0.4179  0.0735
76229W        W51217  26.345  33.766  18.698  0.3406  0.2058  0.3233
76230W        W51218   4.789  16.609  18.436  0.1867 -0.1125 -0.1415
76231W        W51219  31.728  15.072  13.406 -0.0526  0.0105  0.0061
76232W        W51220  29.829  12.578   7.994  0.2614 -0.1498 -0.2713
76233W        W51221   5.991  16.529  10.026  0.0904  0.0385  0.0346
76234W        W51222   4.642   5.123   4.667  0.3801 -0.0839 -0.1573
76235W        W51223  28.027  15.453   5.512 -0.1044 -0.0478  0.0841
76236W        W51224   3.398  11.147   4.986 -0.0847 -0.2320 -0.2704
76237W        W51225  21.976   7.623  18.267  0.0376  0.0190 -0.3896
76238W        W51226   1.424   7.850  20.313 -0.0308  0.0323 -0.0206
76239W        W51227   9.789   6.978   5.687  0.4360 -0.0461 -0.1594
76240W        W51228  16.732  22.248  24.921  0.1622 -0.2489 -0.0034
76241W        W51229  30.359   0.200  24.491  0.4471  0.1001 -0.0507
76242W        W51230   4.677   3.852   4.479 -0.0248 -0.0925 -0.3893
76243W        W51231  13.780  12.355   5.319  0.0601 -0.0641  0.2423
76244W        W51232  30.610  16.055  23.439 -0.1040 -0.3972  0.3369
76245W        W51233  19.092  30.435  16.620 -0.0237 -0.1343 -0.0250
76246W        W51234  19.427   6.861  11.532 -0.0370  0.0524 -0.0057
76247W        W51235  30.937  31.387  25.034 -0.2122  0.2396 -0.1662
76248W        W51236   0.019   7.946  21.245  0.2307 -0.1201 -0.0936
76249W        W51237  25.067   8.096  21.291  0.0714  0.1759 -0.0767
76250W        W51238  24.348  28.506  21.530  0.2364  0.2050  0.2172
76251W        W51239   4.838  16.560  21.400  0.3050  0.0390 -0.1227
76252W        W51240  12.853  10.610  18.897 -0.1072 -0.3321  0.0456
76253W        W51241  28.006  35.268  15.775  0.1337 -0.2535 -0.1268
76254W        W51242  34.428  31.937   0.571  0.1109  0.2744  0.0887
76255W        W51243  28.137  32.278   3.593  0.0285 -0.1867  0.0928
76256W        W51244   0.054  11.921  18.181 -0.0133  0.2191  0.1267
76257W        W51245   9.999  12.956   8.625  0.2802 -0.0102 -0.0264
76258W        W51246  14.720  22.184   9.052  0.1580  0.2400  0.1488
76259W        W51247  21.550  26.915  15.665  0.2145 -0.0113  0.2003
76260W        W51248  10.488   4.911  19.370 -0.0858 -0.1683 -0.2623
76261W        W51249   0.884   9.286   0.922 -0.1860  0.0134 -0.0345
76262W        W51250  21.119  10.842   6.528 -0.0291 -0.1463 -0.0950
76263W        W51251  33.030  15.388  24.857 -0.0568 -0.0847  0.2087
76264W        W51252   5.169   0.104   6.610 -0.1674 -0.3212  0.1160
76265W        W51253   8.665   7.483  13.321  0.0965 -0.0634 -0.0690
76266W        W51254   6.283  21.395   4.446  0.0151  0.1250 -0.2609
76267W        W51255  15.386  34.987   2.628 -0.1226  0.3492  0.0184
76268W        W51256  34.720  15.970   9.685 -0.1620  0.1432 -0.0084
76269W        W51257  11.995   7.699   8.644 -0.0350 -0.0477 -0.0265
76270W        W51258  31.718   2.597  15.821 -0.2220  0.1898  0.0641
76271W        W51259  16.969  34.134   9.295 -0.0583  0.0181  0.0281
76272W        W51260  11.021  16.303  10.974  0.3446  0.1466 -0.0817
76273W        W51261  34.002  30.241  24.251 -0.0334  0.0478 -0.2435
76274W        W51262  20.831  29.613   5.563 -0.1388  0.0037  0.0054
76275W        W51263  32.875   8.857  21.052  0.1654  0.2020  0.0615
76276W        W51264   8.752  28.241  14.270  0.1278 -0.0035 -0.0512
76277W        W51265  10.869  24.014   2.559 -0.2368 -0.0704  0.0052
76278W        W51266   4.704   5.082   5.163  0.1218 -0.1633  0.0137
76279W        W51267   2.992  15.215  20.583  0.1385 -0.0329  0.0105
76280W        W51268  22.368  18.233  13.714  0.0436  0.0446  0.1970
76281W        W51269  11.451  30.477  25.312 -0.1712  0.1882 -0.3060
76282W        W51270  17.401   8.743  10.981 -0.0975  0.1100 -0.4153
76283W        W51271  27.187  27.401   1.584 -0.0434  0.1127 -0.1801
76284W        W51272  35.025  35.332  26.110  0.1784 -0.0307  0.0334
76285W        W51273   1.041  30.160   3.019 -0.0689 -0.0327  0.1092
76286W        W51274   9.499  19.502   8.840  0.1893 -0.1916 -0.2628
76287W        W51275  31.717  22.798  22.823 -0.2960 -0.5212 -0.1119
76288W        W51276  32.112  33.967  18.691  0.1025  0.1001  0.1350
76289W        W51277  15.745  29.891   9.501 -0.0172 -0.5594 -0.1184
76290W        W51278  14.573   2.986   5.549  0.1081  0.0658 -0.1616
76291W        W51279  30.101  10.472  11.578  0.4094  0.0998 -0.2365
76292W        W51280  15.536  23.743   2.086 -0.1456  0.1251 -0.1474
76293W        W51281   3.412   5.479  23.560  0.2920 -0.1681  0.1088
76294W        W51282  11.578  28.213   1.686  0.0253 -0.1561 -0.0019
76295W        W51283   7.050  24.867   0.623 -0.0765 -0.1280  0.2728
76296W        W51284  20.219  19.493   6.810 -0.0683 -0.2322 -0.0388
76297W        W51285  26.598  28.632  10.670 -0.2552  0.2289  0.2104
76298W        W51286  13.864  17.365  13.647  0.2103 -0.1114  0.3250
76299W        W51287  18.516   6.050   6.709 -0.1382 -0.2164  0.1092
76300W        W51288  17.001  21.755  25.573  0.0074 -0.1014  0.1348
76301W        W51289   1.361  22.324   9.855 -0.1030 -0.0063 -0.2126
76302W        W51290  11.145  23.773   4.470 -0.0860 -0.3142  0.1756
76303W        W51291  17.278  17.345  11.019 -0.4253  0.1033 -0.2257
76304W        W51292  17.648  15.599  20.076 -0.0010 -0.1387 -0.0836
76305W        W51293  22.491  19.505  23.650 -0.2292 -0.0254 -0.0979
76306W        W51294  31.329   8.196  17.357 -0.0868  0.0567 -0.2603
76307W        W51295   8.069  11.280   9.382 -0.0210  0.0780 -0.0303
76308W        W51296  16.340   2.279   2.297 -0.0663  0.1005  0.1301
76309W        W51297  33.934   9.759  18.878 -0.0030 -0.1490 -0.0255
76310W        W51298  18.652   3.367   4.900 -0.0207  0.2717 -0.1309
76311W        W51299  31.058  29.940   4.827  0.0676 -0.0439  0.3123
76312W        W51300  27.386  15.099  24.753 -0.2150 -0.1624 -0.3056
76313W        W51301  20.680  33.567  23.727  0.1705 -0.2505 -0.3962
76314W        W51302   9.159  29.123  17.003 -0.0574 -0.3768  0.1088
76315W        W51303   7.863  27.582  25.517 -0.1046  0.0265  0.0526
76316W        W51304  16.878  33.985   1.687 -0.0292  0.1794  0.0641
76317W        W51305  28.574   9.805  17.312 -0.1152  0.0035  0.1748
76318W        W51306  23.975  23.300  19.139  0.4246 -0.0419  0.3397
76319W        W51307   4.368   1.315  21.113  0.0712 -0.0907  0.1501
76320W        W51308  12.626  23.330   2.891 -0.2800  0.1212  0.0884
76321W        W51309   0.664   6.629   3.564 -0.0911  0.0323  0.3398
76322W        W51310  23.522  22.671  23.214 -0.1519  0.1253 -0.0181
76323W        W51311  20.114  21.403  26.205  0.0098  0.2907  0.2085
76324W        W51312  10.041   1.313   8.658  0.0062  0.3658  0.3412
76325W        W51313  30.200   8.603   7.808  0.0491 -0.1390 -0.2077
76326W        W51314  21.434  14.805  16.805 -0.1727  0.0192  0.1757
76327W        W51315  17.437   8.328   4.452 -0.1210  0.0457 -0.0647
76328W        W51316  28.310  12.976  20.829 -0.1784  0.2775  0.1731
76329W        W51317   8.657  32.836  20.644  0.0446  0.1807  0.0793
76330W        W51318   2.856   1.570  20.544  0.1986  0.1558 -0.2399
76331W        W51319  21.599  10.581  21.248  0.0568 -0.2427  0.1859
76332W        W51320  27.691  13.497   4.883  0.0289  0.0435 -0.1630
76333W        W51321   6.803   4.905   3.354 -0.3323 -0.1318 -0.4598
76334W        W51322   5.939  22.151   1.713  0.3596  0.0895 -0.0488
76335W        W51323  28.966   0.044  25.767 -0.1980  0.0800 -0.0606
76336W        W51324  15.002  26.784   7.455  0.0641 -0.1134  0.0715
76337W        W51325   8.186  31.212  12.988  0.1861 -0.1243 -0.2021
76338W        W51326  28.704  29.202   2.042  0.0774  0.0126 -0.3372
76339W        W51327  12.183   9.256   6.557 -0.4512 -0.0559 -0.0688
76340W        W51328   7.051   9.656   5.606 -0.3252  0.0314  0.2958
76341W        W51329  27.307   9.748   0.674 -0.3490  0.1672 -0.1259
76342W        W51330  14.839   5.808  20.695 -0.2835 -0.0577 -0.3188
76343W        W51331   8.856  15.043   2.087 -0.3444  0.0040  0.3223
76344W        W51332  22.201  29.621  24.169  0.3052  0.0161 -0.0296
76345W        W51333  25.935   7.598  16.499  0.2181 -0.3242 -0.0442
76346W        W51334   3.570  18.180   0.859  0.1612  0.0813 -0.2546
76347W        W51335  13.630   1.800  21.201  0.0191  0.1580  0.2773
76348W        W51336  20.191   1.089   8.671 -0.1575  0.0899 -0.1188
76349W        W51337  30.650  12.694  18.860  0.2828 -0.0871  0.0063
76350W        W51338  28.898  14.709  22.807  0.3294  0.3156 -0.0784
76351W        W51339   2.202  23.584   1.098 -0.1499  0.2766  0.1159
76352W        W51340   1.495   0.543  24.006 -0.0602  0.0610  0.0045
76353W        W51341   4.019  13.677  16.987 -0.1608  0.1127  0.0473
76354W        W51342   2.574  16.154  18.628 -0.0118  0.1403  0.0046
76355W        W51343  18.634  28.376   5.649  0.2251 -0.3444  0.0582
76356W        W51344  15.891   4.032   1.156  0.1527 -0.0287 -0.2683
76357W        W51345   8.380   3.775  20.197  0.0935  0.1556  0.3041
76358W        W51346  31.745   3.077  11.756  0.1332 -0.1133 -0.1481
76359W        W51347  24.251  29.966   2.247  0.1060 -0.0086 -0.1601
76360W        W51348  17.679  28.857  22.513 -0.4477  0.2780 -0.0121
76361W        W51349  21.202  14.603  25.553 -0.0396 -0.0091  0.0587
76362W        W51350   2.074  30.446  19.030 -0.1326 -0.0567 -0.0401
76363W        W51351   2.757  26.337  22.190 -0.2373 -0.1722 -0.3194
76364W        W51352  18.813   0.793   3.192  0.0552  0.0116 -0.1599
76365W        W51353  16.234  23.391  14.330  0.2022  0.1386  0.0071
76366W        W51354  30.962  13.200  10.660 -0.2533  0.0234 -0.0472
76367W        W51355  22.121  22.788  25.612  0.0888  0.0765  0.2069
76368W        W51356   9.017  27.210  22.684 -0.1803 -0.1708  0.2385
76369W        W51357  34.639  13.046  15.561 -0.6319  0.2148 -0.0690
76370W        W51358  22.656  30.774  24.260  0.1991 -0.2329  0.2213
76371W        W51359  30.622  16.203  22.943 -0.1153  0.0822  0.0054
76372W        W51360  32.750  17.054  11.569  0.1194  0.0403  0.1353
76373W        W51361   2.665  17.727  20.342  0.0089  0.2026  0.0408
76374W        W51362  29.051  32.845  11.080  0.1886 -0.0360 -0.0163
76375W        W51363   8.435  12.797   8.395 -0.0116  0.0227 -0.3551
76376W        W51364  32.865  25.864  18.450  0.0121 -0.3066 -0.2282
76377W        W51365  15.039  21.706  11.076  0.0618  0.1189 -0.2150
76378W        W51366  24.983  10.203  21.000  0.0110  0.0680  0.0478
76379W        W51367   8.759  32.293  21.930  0.1490 -0.0815 -0.2335
76380W        W51368  33.999   8.050  14.926 -0.0227  0.2398 -0.1639
76381W        W51369   8.276  32.611   5.712 -0.4780  0.0512 -0.0395
76382W        W51370  14.807  14.746  23.168  0.6328 -0.1901  0.3153
76383W        W51371   6.088  30.872  24.858  0.0971 -0.0358  0.3321
76384W        W51372  28.011  31.544   4.914 -0.0802  0.4659 -0.1979
76385W        W51373  20.458  34.264   4.823  0.1160 -0.0019 -0.2086
76386W        W51374  19.367  16.909   8.296  0.0473  0.2729  0.1151
76387W        W51375  21.862  34.584  25.793  0.0477 -0.0549 -0.2149
76388W        W51376  24.357  16.840  17.561  0.2423  0.1633 -0.3125
76389W        W51377  21.925  17.072   0.957 -0.2874 -0.0183 -0.1246
76390W        W51378  17.425  17.998  11.804 -0.2582  0.1100 -0.0978
76391W        W51379   7.211   8.140   1.448  0.3423  0.1599 -0.1678
76392W        W51380  10.592  31.153   8.374 -0.2100 -0.0191 -0.3621
76393W        W51381  11.857  11.500  11.797 -0.1010  0.2137  0.2563
76394W        W51382  31.813  34.668  22.979  0.0449  0.4627  0.1116
76395W        W51383   6.633  33.817  21.284  0.0520  0.1495  0.0374
76396W        W51384  27.399  25.269  17.244 -0.1256  0.0433 -0.1265
76397W        W51385   0.932  19.788   9.992 -0.0202 -0.1826 -0.0497
76398W        W51386   7.289   6.763   4.672  0.1508 -0.0702 -0.2345
76399W        W51387  11.523  29.392  12.043  0.1483 -0.1165 -0.0077
76400W        W51388  28.316   5.181  24.098 -0.4390 -0.0673 -0.0042
76401W        W51389  31.893  28.109  16.351 -0.3851 -0.0649  0.0420
76402W        W51390   8.332  35.330  25.303  0.1389 -0.1145 -0.0548
76403W        W51391  22.903  22.494  19.194  0.0836  0.3804 -0.2423
76404W        W51392  25.597  24.676  21.950  0.4478  0.2256 -0.0686
76405W        W51393   3.935  34.624   1.603  0.1678  0.0007  0.4767
76406W        W51394   4.183  33.100  22.406 -0.3111 -0.0215  0.0588
76407W        W51395  12.701   9.264   8.837  0.2886 -0.2852 -0.0220
76408W        W51396  32.466   6.288  20.522 -0.1419  0.1802 -0.1619
76409W        W51397  33.561  24.573  23.137  0.0319 -0.2044  0.0298
76410W        W51398  17.618  17.477  21.347 -0.1470  0.1522  0.2148
76411W        W51399  30.262   6.205   9.917  0.0495 -0.1080 -0.1008
76412W        W51400  16.814  24.499  11.496  0.1411  0.1382 -0.3578
76413W        W51401  28.426  30.419  16.355 -0.1576  0.1438 -0.1496
76414W        W51402  30.569  31.231  25.474  0.2259 -0.1358 -0.2075
76415W        W51403  33.089   2.597  14.890 -0.0672  0.4160  0.0950
76416W        W51404   8.252  26.289  11.452  0.0418 -0.1650 -0.0788
76417W        W51405  18.317  30.711  25.329 -0.1953  0.0323 -0.2775
76418W        W51406  15.536  12.915  22.686 -0.1079 -0.0905  0.0464
76419W        W51407  19.876   0.434  24.152 -0.0935  0.1895  0.1508
76420W        W51408  13.747   5.885  11.530 -0.1669  0.2996  0.1744
76421W        W51409  28.029   4.712  19.631 -0.3719  0.1276 -0.0918
76422W        W51410   4.079  13.884   1.335 -0.0548  0.2484  0.4052
76423W        W51411  23.675   4.102   3.299  0.2537 -0.1761 -0.0080
76424W        W51412  28.720  21.398  12.345 -0.1312 -0.2626  0.3929
76425W        W51413   1.489  10.927   2.058  0.1012  0.1356  0.3826
76426W        W51414  34.788  19.323   8.359 -0.0533 -0.0703  0.0194
76427W        W51415  29.236  26.615   0.664  0.1487 -0.0082 -0.2162
76428W        W51416  17.963  26.583   8.056  0.2389  0.2136  0.0511
76429W        W51417  14.699  28.649  23.002  0.1350 -0.2150  0.0521
76430W        W51418   8.943  14.944  20.227 -0.0722 -0.2104  0.0347
76431W        W51419   9.266  12.595  19.331  0.1082  0.0868 -0.0782
76432W        W51420  19.878  22.618  18.258  0.4055  0.0889 -0.0313
76433W        W51421   4.714   7.113  23.298 -0.1584 -0.1617 -0.0435
76434W        W51422  13.667  34.738  22.716  0.1140  0.3680  0.0295
76435W        W51423  22.224  28.234  17.007  0.0718 -0.0712  0.1730
76436W        W51424  32.228  27.949  21.882 -0.2594 -0.0785 -0.1437
76437W        W51425   1.372   2.420  19.310  0.3646 -0.2341  0.1228
76438W        W51426  14.219  24.277  22.963  0.1486 -0.1385  0.3515
76439W        W51427  14.963   7.743   7.688 -0.0872 -0.2010  0.4925
76440W        W51428  22.334   1.144   3.501  0.4542  0.3059 -0.1334
76441W        W51429   5.794  30.320  12.761 -0.0465  0.1174  0.0785
76442W        W51430  19.945  26.449  20.070 -0.1269 -0.1377  0.3720
76443W        W51431  24.788  16.733  17.307  0.1599 -0.2857  0.1657
76444W        W51432   5.064  33.357   7.488 -0.0171 -0.1348 -0.0196
76445W        W51433  17.894  19.675   1.195  0.3699 -0.2117  0.1536
76446W        W51434  32.655   6.714  22.516  0.1832 -0.3575 -0.0587
76447W        W51435  12.969  20.678  14.893 -0.0103  0.2189 -0.3223
76448W        W51436  27.869  13.821  19.721 -0.3264 -0.0757  0.1527
76449W        W51437   9.790  13.624   2.509 -0.0216  0.0387  0.0289
76450W        W51438  13.066  21.691  17.079  0.0399 -0.0038  0.1101
76451W        W51439  14.099  10.922  23.957 -0.1022 -0.1863 -0.0268
76452W        W51440  23.919   5.508  16.223 -0.1708 -0.2353 -0.0171
76453W        W51441  28.549  10.467   9.845 -0.1119 -0.1442  0.2494
76454W        W51442   8.401  26.007  21.895 -0.2162  0.1008  0.0554
76455W        W51443  17.483  27.240   5.155  0.0370 -0.0739 -0.2371
76456W        W51444  31.123  25.706  18.412 -0.0209 -0.1752  0.1972
76457W        W51445  27.796  20.955  20.547  0.5610  0.0866  0.0186
76458W        W51446  30.827  27.165   0.677 -0.0421 -0.0537  0.2362
76459W        W51447  16.351   7.284   7.593 -0.3292 -0.1376  0.1214
76460W        W51448  30.439  31.832  20.904  0.1148  0.1291 -0.0641
76461W        W51449  16.121  18.255  12.126 -0.0047 -0.4213 -0.0984
76462W        W51450   8.800  13.878  12.702 -0.0096  0.3990 -0.0239
76463W        W51451  16.671   2.602  11.485  0.2666  0.0734 -0.0007
76464W        W51452  22.599   4.385   4.641 -0.0175  0.0442  0.0441
76465W        W51453  15.130  28.237  10.777 -0.1746  0.0171 -0.0274
76466W        W51454  21.320  26.120   2.863  0.1377 -0.1153 -0.3381
76467W        W51455  10.412  18.052  24.091  0.0873 -0.0059 -0.1114
76468W        W51456   8.046   1.281   3.375  0.3451 -0.1836  0.1838
76469W        W51457   4.896  31.364   8.793  0.0791 -0.0477 -0.3249
76470W        W51458   2.457  17.041  16.784  0.1295 -0.0173  0.3075
76471W        W51459   3.556  29.056   3.549 -0.2091  0.0501 -0.2059
76472W        W51460  17.976  33.907  19.772  0.0977  0.1246 -0.1941
76473W        W51461  27.219   4.579   2.275 -0.2158 -0.4314  0.0714
76474W        W51462  19.999   6.147  19.873 -0.2303 -0.1540  0.0944
76475W        W51463  24.988  19.149  21.679  0.0910  0.0161 -0.1604
76476W        W51464  24.147  29.145  18.249 -0.1436 -0.3107  0.1887
76477W        W51465   7.250   5.040  10.281 -0.2201 -0.0892 -0.1892
76478W        W51466  34.137   3.349  14.947 -0.0431 -0.0873  0.3421
76479W        W51467  15.646  31.547   6.526  0.2339  0.4306  0.2075
76480W        W51468  13.301  19.231  24.965  0.0383  0.0987  0.0309
76481W        W51469  12.782  32.752  12.676 -0.4283  0.0846 -0.2494
76482W        W51470  11.195  22.075  25.978  0.0157 -0.1528  0.1891
76483W        W51471   0.285  17.852   0.674 -0.1038 -0.2167 -0.1339
76484W        W51472  25.599  33.272   0.360  0.0442 -0.0681  0.1003
76485W        W51473  32.552  15.870  19.260  0.0660 -0.1853  0.0400
76486W        W51474  19.604   7.240   4.656 -0.1723  0.2995 -0.0204
76487W        W51475  21.687  12.333   3.558  0.0545 -0.3073 -0.0196
76488W        W51476  18.686  32.552  22.276  0.0057 -0.3193  0.0104
76489W        W51477   7.275  30.454  26.241  0.2033  0.1647  0.2353
76490W        W51478  14.888  20.000   7.613  0.3657 -0.0168 -0.1348
76491W        W51479  31.715  22.490   0.408 -0.1373 -0.0836 -0.1281
76492W        W51480  26.436   5.875   1.636 -0.0773 -0.1755 -0.0476
76493W        W51481  15.778  35.306  24.685  0.4119  0.0951  0.1133
76494W        W51482   7.138  24.331   1.758 -0.0538 -0.4316  0.0736
76495W        W51483   4.680  30.654  21.084  0.2062 -0.0306 -0.0005
76496W        W51484  28.719   4.075  18.449 -0.1072 -0.0646  0.0289
76497W        W51485  21.836   6.830  17.794  0.0462  0.0095  0.2574
76498W        W51486  31.879  32.370  25.066  0.3210  0.1233 -0.3406
76499W        W51487  23.184  15.595  14.210 -0.1453 -0.0750  0.3374
76500W        W51488  33.235  18.181  12.632  0.1605  0.3989 -0.2371
76501W        W51489  13.414  18.362   7.314 -0.1323 -0.0225 -0.4045
76502W        W51490  27.689   9.706  20.894  0.3296  0.1921 -0.0585
76503W        W51491  27.196   4.361  12.309 -0.1935  0.0171  0.1632
76504W        W51492  32.632  12.781  19.121 -0.0288 -0.1973  0.0613
76505W        W51493  17.364  10.957   0.694 -0.0778  0.0256 -0.0051
76506W        W51494  29.047   5.896  20.271  0.0573 -0.0870 -0.4354
76507W        W51495  25.316  17.572  16.314 -0.1331 -0.1181  0.1627
76508W        W51496  32.633  14.015  14.922 -0.0930 -0.5954  0.0848
76509W        W51497  13.591  18.184  12.752  0.1828 -0.3838  0.0993
76510W        W51498  26.609   2.091  22.708 -0.0316  0.3693  0.3335
76511W        W51499  23.056  22.587  25.429 -0.1519  0.0127  0.2433
76512W        W51500   5.331  27.264  11.655  0.0509  0.1597  0.2208
76513W        W51501   4.491  22.111   1.229  0.4287 -0.0796 -0.0039
76514W        W51502  29.866  13.039   8.586  0.3190  0.3835  0.2642
76515W        W51503  23.302   4.194  18.134 -0.0555 -0.0728 -0.0537
76516W        W51504  18.124  26.000  26.010 -0.1536 -0.1321  0.0535
76517W        W51505  21.929  20.131  24.807 -0.2112 -0.0240  0.0614
76518W        W51506  34.844  16.369  11.078 -0.4494  0.0002 -0.0859
76519W        W51507  22.981  28.299   3.988 -0.0006  0.0275 -0.1439
76520W        W51508   3.000  23.562  20.101 -0.0440  0.2291 -0.2199
76521W        W51509  34.465  24.090  21.969  0.1343 -0.2953 -0.1197
76522W        W51510  34.084  16.842  12.831 -0.2293 -0.0592 -0.2700
76523W        W51511  27.633   0.355  17.010  0.0914 -0.0422 -0.0171
76524W        W51512   7.447  12.533  19.061 -0.1496  0.1867  0.1070
76525W        W51513  16.580  14.486  11.517  0.1357  0.3264  0.1186
76526W        W51514   1.496  10.511   1.163 -0.1579  0.0569 -0.2747
76527W        W51515  10.970  26.795   4.384  0.2325  0.1385  0.1081
76528W        W51516  11.662  21.594  23.001  0.0067  0.0490  0.1802
76529W        W51517  31.290   2.937   4.767  0.0403 -0.0744  0.0354
76530W        W51518  18.216  19.003  12.149  0.0898 -0.3446 -0.2703
76531W        W51519  34.479  25.265  22.027  0.1769 -0.2015  0.0868
76532W        W51520  11.858   0.262  13.639 -0.0038  0.1123 -0.0011
76533W        W51521  26.391   0.780   2.235 -0.3348  0.1558 -0.2429
76534W        W51522  12.103   6.639  11.137 -0.0447  0.0425  0.1796
76535W        W51523  13.248   0.318   1.711 -0.1542 -0.2261 -0.3579
76536W        W51524  31.534  21.917  25.955 -0.2822  0.1622  0.0802
76537W        W51525  14.524   8.779   5.866 -0.1217  0.0158  0.2734
76538W        W51526  12.211   8.065  11.886  0.1325 -0.1063 -0.0666
76539W        W51527  30.483  13.405  24.831  0.2953  0.0015 -0.0200
76540W        W51528  24.513  30.469   2.109  0.0579 -0.1255 -0.0131
76541W        W51529  12.857   2.913  25.954  0.0026 -0.2376 -0.1555
76542W        W51530  23.721  11.024  23.914  0.3356  0.2697  0.1873
76543W        W51531  31.538  29.943   2.052  0.0541 -0.1788  0.2227
76544W        W51532   5.090  32.757  11.213  0.0951 -0.1488 -0.1824
76545W        W51533  10.938   6.371   9.899  0.2125  0.1913 -0.3255
76546W        W51534  31.957  32.598  12.394 -0.3969 -0.0378 -0.1438
76547W        W51535  24.327  33.005   0.688  0.1337 -0.2210 -0.0790
76548W        W51536   3.101  29.980  21.947  0.1912  0.1045  0.2912
76549W        W51537  22.575   1.344  14.737 -0.0200 -0.0576  0.2431
76550W        W51538   1.548  31.147   3.871  0.1329  0.0001 -0.0150
76551W        W51539  28.827  35.298   1.742 -0.3036 -0.1164  0.1978
76552W        W51540  29.948   6.889  10.586 -0.2729 -0.2442 -0.0193
76553W        W51541  34.145  16.557  13.229 -0.2745  0.0396  0.0397
76554W        W51542  14.201  17.605  25.424  0.0793 -0.1708 -0.2063
76555W        W51543  18.575  35.312   4.925 -0.0969  0.2051 -0.3544
76556W        W51544  17.736  31.594   1.869  0.2590 -0.1963  0.1767
76557W        W51545   5.806   4.740  24.542  0.0047  0.2650 -0.1519
76558W        W51546   0.994  34.916  17.234 -0.0874 -0.1996  0.1934
76559W        W51547   4.744  28.689  22.724  0.2379  0.1148  0.3095
76560W        W51548  15.339  20.715   4.510  0.1750  0.3186 -0.0548
76561W        W51549   7.211  23.962   5.896 -0.0443  0.1045  0.1820
76562W        W51550   3.491  32.359  18.513 -0.2101  0.0489  0.2290
76563W        W51551  10.329  13.774   5.684 -0.0322  0.0937 -0.0193
76564W        W51552  24.173   4.019  24.484  0.0863  0.2325  0.0550
76565W        W51553  34.346  21.162  18.661  0.2291  0.3786  0.1327
76566W        W51554  13.493  20.191   5.693  0.1367  0.1590 -0.0814
76567W        W51555   9.346  22.846   5.899  0.0365 -0.3332  0.1227
76568W        W51556  19.914   6.351   7.065 -0.0169 -0.0067 -0.0946
76569W        W51557  27.497  17.622  17.670 -0.0440  0.1416  0.2371
76570W        W51558  35.046   9.711   3.434  0.0535 -0.1432 -0.1229
76571W        W51559  24.716  29.313  22.941 -0.2149  0.0199  0.1640
76572W        W51560  17.075  34.316  19.680 -0.0410  0.1149  0.0789
76573W        W51561   7.485  15.199  18.376  0.1006 -0.1934 -0.5793
76574W        W51562  13.334  19.666   0.553  0.1439  0.3110 -0.1303
76575W        W51563  12.742  16.620  10.138 -0.1775 -0.1116 -0.2647
76576W        W51564  20.246   3.798  24.691  0.1537 -0.0440  0.1600
76577W        W51565   0.003  22.406  11.642 -0.1139 -0.1888 -0.3221
76578W        W51566  27.396  34.155   1.454 -0.0926  0.1552  0.3317
76579W        W51567   6.793  16.187   4.792  0.0084  0.0833 -0.1403
76580W        W51568  11.673   0.025   3.732  0.1756  0.2594  0.3269
76581W        W51569  21.996  10.377  20.834 -0.0303  0.0031  0.2856
76582W        W51570   2.025  31.993   2.224 -0.1699  0.0274  0.0727
76583W        W51571  34.387  32.416   4.111 -0.4632 -0.1868 -0.2830
76584W        W51572  18.208   7.635  23.293 -0.0170  0.0403 -0.1372
76585W        W51573  11.910  15.614  11.714  0.2281 -0.1947 -0.0186
76586W        W51574  22.301   1.461  16.130 -0.0771 -0.2171  0.2701
76587W        W51575  21.935  34.560   2.897  0.1050  0.1828  0.1003
76588W        W51576  30.336  22.892  13.217  0.0855 -0.0751  0.1284
76589W        W51577  31.721  31.067  16.919  0.0714  0.0675 -0.1798
76590W        W51578   3.545   5.466  24.280 -0.3669 -0.1852  0.1561
76591W        W51579  33.060   5.810  16.282 -0.0841 -0.2229  0.2641
76592W        W51580  18.349  10.298  23.984  0.0980  0.0717 -0.2171
76593W        W51581  23.488   7.497   3.510 -0.2822 -0.0379 -0.1289
76594W        W51582   4.354  21.123  16.216 -0.1336 -0.3443  0.0539
76595W        W51583   9.982  30.605   7.349  0.2746 -0.2528 -0.1552
76596W        W51584  13.521  29.296  21.939 -0.3875 -0.1921 -0.0703
76597W        W51585   4.386  30.605  12.456  0.3426  0.1746  0.0961
76598W        W51586  11.905  22.376   8.873 -0.0373 -0.0763 -0.2698
76599W        W51587  33.969   5.008  25.050 -0.3065 -0.0257 -0.3780
76600W        W51588   8.628  27.782   2.623 -0.0490 -0.1753 -0.5218
76601W        W51589  22.266  16.491  20.094  0.1793  0.4063 -0.0899
76602W        W51590   9.177  31.330  10.052  0.1426 -0.1334 -0.2373
76603W        W51591  26.931  31.582  13.575 -0.2446  0.1315 -0.0823
76604W        W51592  22.828  31.497  23.430 -0.1018 -0.0109 -0.2104
76605W        W51593  10.841  15.876  21.432  0.1962 -0.0173 -0.0852
76606W        W51594  28.468  29.517  25.309  0.1492  0.3367  0.2571
76607W        W51595  20.543  15.636  16.674  0.4292 -0.1711 -0.2700
76608W        W51596   5.595  27.928  12.323  0.2264 -0.4956  0.2169
76609W        W51597  29.330  15.824  18.930 -0.0797 -0.1206  0.3358
76610W        W51598  11.077  24.903  24.120  0.4252 -0.2181  0.2541
76611W        W51599   9.138   5.008  13.665  0.3551 -0.1890 -0.0788
76612W        W51600  20.001  20.083  16.548 -0.1310  0.0499 -0.0498
76613W        W51601  22.569  19.248  25.607 -0.0294  0.0620 -0.1893
76614W        W51602   3.437  30.821  21.570  0.1660  0.1540  0.1420
76615W        W51603  16.255   7.656  21.103 -0.0063 -0.2034  0.0786
76616W        W51604  30.514   3.834  13.037  0.2990 -0.0251  0.2366
76617W        W51605  22.792   6.100  22.748 -0.1555  0.2968  0.0172
76618W        W51606  28.767  26.815   9.502  0.0014 -0.0229 -0.2466
76619W        W51607  16.992   2.870   3.301  0.2977  0.1057  0.0370
76620W        W51608  26.503   4.502  12.666  0.1767  0.0790 -0.0996
76621W        W51609  28.854   9.731  11.999  0.3411 -0.2740 -0.0629
76622W        W51610  26.082  27.866  25.826  0.2212  0.4429 -0.1007
76623W        W51611  26.936   5.359   3.669 -0.3449  0.3155  0.3537
76624W        W51612   1.781  25.834  19.108 -0.2724 -0.1273  0.3333
76625W        W51613  25.520  22.467  18.427  0.1890  0.2339 -0.3127
76626W        W51614  21.877  34.281  23.128 -0.1334 -0.0383 -0.1630
76627W        W51615  33.430  16.043   0.782 -0.0940 -0.2476  0.3723
76628W        W51616  32.178  11.136  14.278  0.1429  0.2122  0.0008
76629W        W51617  17.903  19.100   9.906 -0.1216 -0.0217  0.1681
76630W        W51618  28.600  20.666   7.122  0.1145 -0.2920 -0.0970
76631W        W51619  32.882  28.363   3.628  0.1516  0.0750  0.2422
76632W        W51620  17.054  12.564  26.104 -0.0482 -0.1519  0.0673
76633W        W51621  20.366  22.145  20.078  0.0016 -0.1118 -0.0594
76634W        W51622  28.302   0.958   4.951  0.2352 -0.2793 -0.2659
76635W        W51623  30.670  33.813  21.946 -0.0492 -0.3513 -0.3927
76636W        W51624  16.390  17.253  25.406 -0.0271  0.0721  0.1088
76637W        W51625  18.431  32.515  23.637 -0.0308  0.1458  0.1793
76638W        W51626   6.664  28.303   4.088  0.1225 -0.2289 -0.1278
76639W        W51627  30.564  14.344   5.377  0.1698 -0.1051 -0.1603
76640W        W51628  35.350  13.300  26.135 -0.1139  0.2614  0.0674
76641W        W51629  27.037  27.171  20.605 -0.0911 -0.0023  0.0557
76642W        W51630   3.991   5.288  16.597 -0.0541  0.2107 -0.1273
76643W        W51631   9.497   3.847  24.560 -0.0042  0.3075  0.0291
76644W        W51632  20.134   3.553   5.884  0.0284  0.1817  0.1869
76645W        W51633  13.786  22.141   0.556 -0.0291  0.2517  0.1635
76646W        W51634  11.671   8.254  24.928 -0.0350  0.1431  0.3535
76647W        W51635   7.330   2.598  18.745  0.2659  0.0400 -0.0495
76648W        W51636  15.513  12.238   9.920 -0.1120 -0.0401  0.0343
76649W        W51637   9.216  10.118  25.210  0.0427  0.1183 -0.3928
76650W        W51638  11.133  34.329  14.921 -0.3083 -0.0646  0.3453
76651W        W51639  27.324   5.464  14.415 -0.0351 -0.1198  0.1039
76652W        W51640  11.812   7.720   7.829 -0.1086 -0.0144  0.2140
76653W        W51641   5.037  23.185   6.271  0.0690  0.0414  0.2954
76654W        W51642  17.378  27.423  11.176  0.3325  0.1437 -0.2707
76655W        W51643  25.432  34.454   0.643 -0.1147  0.1361  0.1839
76656W        W51644  25.785  21.685  24.669 -0.1104 -0.2679 -0.2793
76657W        W51645  18.444  19.452   1.421  0.0327  0.1194 -0.0945
76658W        W51646  29.745  19.069  12.497  0.0260 -0.2129 -0.1034
76659W        W51647  19.116  21.905  24.168  0.0609  0.0115  0.0947
76660W        W51648   9.240  23.938  14.618  0.2213  0.1120 -0.3968
76661W        W51649   9.844   6.564  20.974 -0.1710 -0.0594  0.3918
76662W        W51650  20.198  34.575   5.127  0.2660 -0.3006  0.2759
76663W        W51651  27.612  21.053  13.121 -0.0816  0.0409  0.0538
76664W        W51652  32.752  13.671  16.359 -0.0331  0.1110  0.0863
76665W        W51653   7.716  25.006  16.005  0.0442  0.2305  0.0520
76666W        W51654  29.883  14.354  11.662  0.2444  0.1386 -0.3130
76667W        W51655   8.096   0.447   6.590 -0.1745  0.0981 -0.1788
76668W        W51656  15.805   3.737   0.150  0.1671 -0.2176 -0.0500
76669W        W51657  23.909  28.626   4.318 -0.0332  0.0771 -0.0853
76670W        W51658   1.137  33.764   8.804  0.0460 -0.0613  0.1571
76671W        W51659   8.123  15.368   6.119  0.2553  0.2493  0.3240
76672W        W51660  32.249  11.773  16.888  0.1359  0.3399 -0.0497
76673W        W51661  34.975  31.799   5.934 -0.1691 -0.1406  0.0169
76674W        W51662  20.526  12.856  24.928 -0.1802 -0.2530 -0.0298
76675W        W51663  32.206   5.978   1.299 -0.0757 -0.0038  0.0916
76676W        W51664  32.976   8.061  12.955 -0.0596  0.0279 -0.1235
76677W        W51665  14.296  13.495  23.938  0.1998 -0.0889  0.0096
76678W        W51666  22.658  11.993  20.628  0.0998 -0.2467  0.0268
76679W        W51667  18.219   1.904  18.306  0.0138  0.0567  0.0530
76680W        W51668  26.484  15.433  23.464 -0.1015  0.0331  0.4594
76681W        W51669  21.695  25.730  25.053 -0.2752 -0.0236  0.2887
76682W        W51670  22.484  31.520  24.923  0.5375 -0.0523  0.0282
76683W        W51671  10.124  23.783   4.641  0.0107  0.0278  0.0931
76684W        W51672  21.566  15.575  20.876  0.1583  0.3038 -0.2670
76685W        W51673  20.316  16.202  24.064 -0.2919  0.4786 -0.0256
76686W        W51674   0.812  30.086  23.156 -0.1090  0.1009  0.1567
76687W        W51675  15.775   1.773   9.393  0.0643 -0.2175 -0.0289
76688W        W51676  35.030  24.385  23.273  0.0054 -0.2806 -0.1467
76689W        W51677  28.017   1.618   2.648  0.0481 -0.3015 -0.3097
76690W        W51678   9.452  25.308   4.222 -0.0151 -0.3704  0.1795
76691W        W51679  18.267   3.384   1.634 -0.1087  0.3843 -0.0724
76692W        W51680  20.449   1.862   1.631  0.0266 -0.0605 -0.3084
76693W        W51681  19.127  20.254  10.906  0.2363 -0.1676  0.2977
76694W        W51682  20.883  29.538  17.171 -0.0094  0.0284  0.1158
76695W        W51683  17.738  31.837  24.154  0.1725  0.3776  0.0439
76696W        W51684  16.460  28.081  21.328  0.2377 -0.4633  0.1535
76697W        W51685   6.582  17.660   9.969  0.2403  0.0337  0.3192
76698W        W51686  18.661  17.620  10.105 -0.0173  0.0689 -0.1110
76699W        W51687  17.496  23.531  24.154 -0.2276  0.1340 -0.0124
76700W        W51688  19.523  32.840   2.930  0.0887 -0.1135 -0.0707
76701W        W51689  13.134  16.390  11.711  0.0196 -0.1989  0.0597
76702W        W51690  33.439  10.064  24.798  0.2037 -0.0105 -0.0354
76703W        W51691  18.503   6.226   6.241  0.3976 -0.0632 -0.3918
76704W        W51692  20.496   2.141  20.788  0.3147 -0.1130 -0.0298
76705W        W51693  16.547  32.979   9.423 -0.0061  0.2464 -0.0038
76706W        W51694  32.067   9.041   9.437  0.3133  0.0049  0.1812
76707W        W51695  15.689  16.887   2.976 -0.2130  0.2739  0.0836
76708W        W51696  10.781  22.026  14.725  0.0117  0.0309 -0.0236
76709W        W51697   7.061  24.539  21.703  0.2691  0.0825  0.0762
76710W        W51698   3.747  17.000  18.613 -0.3526 -0.0132 -0.3102
76711W        W51699  10.816  31.162   4.507  0.2381 -0.0698  0.1304
76712W        W51700   4.602  34.157  24.791 -0.1961 -0.0558 -0.0110
76713W        W51701  17.522  22.767  24.382  0.0274  0.2477  0.1071
76714W        W51702  14.425  11.425   5.977 -0.2727 -0.0968 -0.1295
76715W        W51703  33.003   1.494  19.937  0.2960 -0.0895  0.0846
76716W        W51704   6.421  34.975  19.640 -0.0043 -0.1815 -0.0044
76717W        W51705  17.826  12.150  17.904  0.0114  0.1907  0.1534
76718W        W51706  31.022   9.313   0.299  0.3261  0.1386 -0.2612
76719W        W51707  31.505  29.765  18.510 -0.0641 -0.1984 -0.1977
76720W        W51708  19.498  15.774   5.857 -0.0740  0.1850 -0.1430
76721W        W51709  16.421  24.127  13.992 -0.0912 -0.2242  0.2366
76722W        W51710   0.017  19.608  17.342  0.2056 -0.1904 -0.2532
76723W        W51711  21.650   0.696   1.345 -0.2225  0.0577 -0.1418
76724W        W51712  12.211  13.487  21.026  0.1273  0.0530  0.1208
76725W        W51713  15.092  23.861  14.474  0.0780 -0.2532  0.0587
76726W        W51714   7.145  29.054   0.925  0.0125 -0.2062  0.0559
76727W        W51715  22.765  31.312  12.896 -0.2219 -0.1537  0.1584
76728W        W51716  25.243  19.552   8.651 -0.1245  0.2355 -0.2836
76729W        W51717  29.358  31.771   3.324  0.1245 -0.0971 -0.0228
76730W        W51718  21.597  31.507   5.345 -0.0788  0.0178 -0.2791
76731W        W51719   6.162   4.422  25.816  0.2578 -0.1727  0.4080
76732W        W51720  30.866   3.149  16.849 -0.3848  0.1891  0.3979
76733W        W51721  30.135  15.666  25.309 -0.1152 -0.1082 -0.1394
76734W        W51722  33.240  28.657  18.669  0.1172 -0.0515  0.0191
76735W        W51723   3.729  22.027  17.679 -0.1956  0.0544 -0.0368
76736W        W51724  10.627  16.300  24.263  0.4145  0.2764  0.1429
76737W        W51725  20.871  33.529  14.632  0.3263 -0.2034  0.0817
76738W        W51726   0.699   0.109  20.698  0.1613 -0.3172  0.0465
76739W        W51727   2.689   5.112   4.731 -0.1459  0.0171  0.0370
76740W        W51728  29.513   8.618  25.540 -0.0294 -0.0966 -0.2158
76741W        W51729  27.006  14.010  23.089  0.0462 -0.1773 -0.4193
76742W        W51730  31.493  25.934  24.287 -0.1801  0.1651 -0.0247
76743W        W51731  33.458  16.845   6.257 -0.0517 -0.2782  0.1347
76744W        W51732  28.930  23.891  16.647  0.1008  0.3621 -0.2165
76745W        W51733  32.813  16.358  16.163  0.1708 -0.0166 -0.1491
76746W        W51734   9.181   4.582  23.065 -0.0605  0.1994  0.1195
76747W        W51735  17.600  26.621  21.727 -0.1726  0.1298  0.2809
76748W        W51736   4.162  18.012   4.544 -0.1378 -0.1629 -0.1789
76749W        W51737  13.515  27.801  13.441  0.4024 -0.2567  0.1054
76750W        W51738  10.305  25.969   6.040  0.0801  0.1252  0.1205
76751W        W51739  22.409  33.627  13.913  0.1062 -0.3080 -0.0334
76752W        W51740  31.179  22.003  10.671  0.2578  0.1300 -0.0706
76753W        W51741   1.822   5.470   6.901 -0.3012  0.1891  0.0149
76754W        W51742   8.930  35.009  20.242 -0.0893 -0.0751  0.0168
76755W        W51743  16.164  31.190  20.518 -0.2228  0.2273  0.0512
76756W        W51744  17.042  24.029   5.635 -0.1522 -0.0525  0.0164
76757W        W51745   6.094   5.570  25.013  0.4731 -0.1254 -0.0986
76758W        W51746  16.783   7.088  21.511 -0.0557 -0.1999  0.2228
76759W        W51747  13.939  33.098   6.451  0.2546  0.0307  0.0110
76760W        W51748  20.620  22.088  21.177  0.3806  0.3285 -0.2764
76761W        W51749   2.866   4.731   1.712  0.2781  0.1617 -0.0805
76762W        W51750   9.430  34.308  24.357 -0.0841 -0.0341 -0.0540
76763W        W51751   6.086   5.922  22.898  0.1958 -0.2425  0.0378
76764W        W51752   0.822  32.672  16.583  0.1586 -0.1399  0.3311
76765W        W51753  31.121  24.176  24.002 -0.0399  0.0079 -0.0451
76766W        W51754  32.872   2.949   3.148 -0.0142 -0.0095 -0.0364
76767W        W51755  17.894   7.065  12.071  0.1112  0.3365 -0.1487
76768W        W51756   9.297   5.239  19.775  0.1341 -0.1142 -0.1313
76769W        W51757  16.735  24.932   4.506  0.0738 -0.5102 -0.1557
76770W        W51758  15.006  12.480   0.158 -0.3006 -0.0354 -0.1137
76771W        W51759  10.215  22.274  14.765 -0.2705 -0.0568 -0.2311
76772W        W51760  16.492   4.170   3.343 -0.1038  0.0947  0.2646
76773W        W51761  13.426   4.427  22.905 -0.0340  0.0604  0.1920
76774W        W51762  16.148   6.895   1.181 -0.0205 -0.2650 -0.0202
76775W        W51763  11.840  19.377   1.692 -0.1615  0.0798  0.0115
76776W        W51764  16.307  34.936  20.026 -0.1211  0.0455 -0.2226
76777W        W51765  26.184  29.224  24.495 -0.0695 -0.0706  0.1156
76778W        W51766  14.146  27.521  24.308 -0.1921 -0.0676 -0.0568
76779W        W51767   6.954   9.698  23.221 -0.2063  0.0239 -0.1681
76780W        W51768  10.360  30.610   5.067 -0.1315 -0.0905 -0.0095
76781W        W51769   4.483  33.946  25.228 -0.1447  0.0371  0.0822
76782W        W51770  27.097  15.166  14.454  0.4029 -0.1307 -0.2498
76783W        W51771   8.174  22.435  26.227  0.1380 -0.0729 -0.3099
76784W        W51772   3.953  29.407  24.532  0.3268 -0.1117  0.1359
76785W        W51773   0.670  18.508   0.215  0.0857 -0.1160 -0.1126
76786W        W51774  28.495  16.759  19.047  0.1747  0.4618  0.1300
76787W        W51775  18.083   2.891  10.391  0.0630 -0.0613  0.1205
76788W        W51776   7.460  34.172   3.964 -0.0468  0.0778 -0.2844
76789W        W51777  11.852   4.157   4.682  0.1062 -0.0086 -0.0861
76790W        W51778  18.197   5.526  19.748 -0.3811  0.0626 -0.1764
76791W        W51779  12.574  27.583  22.830 -0.1811  0.1535 -0.1431
76792W        W51780  23.512  32.867  12.195  0.0005  0.3069  0.0178
76793W        W51781  15.528   2.205  11.832 -0.0244 -0.0692 -0.0602
76794W        W51782  13.870  32.646   5.733 -0.0464 -0.5118 -0.1650
76795W        W51783  15.209  18.448  14.343 -0.1011  0.2879  0.2683
76796W        W51784   9.648  20.637   6.446  0.1699  0.1419  0.0456
76797W        W51785  20.568  19.152  24.444  0.0936  0.2054  0.0736
76798W        W51786  29.649  28.867  24.298 -0.1462 -0.1309  0.1180
76799W        W51787  19.008   6.789  21.754 -0.0038 -0.1809  0.0526
76800W        W51788  16.624  23.122   1.661  0.1718  0.0279  0.0046
76801W        W51789  34.039  17.812  16.912 -0.2564  0.2093  0.0217
76802W        W51790  30.673   0.804   6.010 -0.0843 -0.1232  0.1940
76803W        W51791  32.309  16.672   8.222 -0.0093  0.0694  0.1404
76804W        W51792  28.165  29.703  13.458  0.0823 -0.1391 -0.1077
76805W        W51793  17.902   2.169  20.600  0.0417  0.1071  0.0179
76806W        W51794   8.895  25.088  16.268 -0.2751 -0.1217  0.0857
76807W        W51795   3.294  10.948   6.740 -0.2212 -0.1012 -0.0177
76808W        W51796  28.644  33.281   0.020  0.1787  0.1862 -0.1432
76809W        W51797   4.813  27.418  12.599 -0.3376 -0.1423 -0.3797
76810W        W51798  33.981  20.149  20.310  0.0730  0.2817  0.0705
76811W        W51799  21.696   8.146  24.598  0.0049  0.2183  0.1785
76812W        W51800   4.989   0.983  24.671 -0.0481 -0.3363  0.1681
76813W        W51801  26.196  16.760  22.824 -0.3001 -0.0603 -0.1186
76814W        W51802  30.537  17.060   5.079  0.2099 -0.0625 -0.0438
76815W        W51803  30.850  18.238  15.839 -0.1409  0.0200 -0.1287
76816W        W51804  15.038   6.419  11.200  0.0807 -0.1793  0.1650
76817W        W51805   7.734  30.257   6.090 -0.2790 -0.1758  0.2891
76818W        W51806  31.520  17.888  20.962  0.0375  0.0467 -0.0072
76819W        W51807   0.707  20.146   1.351 -0.3933  0.1722 -0.1290
76820W        W51808   5.083  33.797  23.038 -0.1258 -0.1623  0.1816
76821W        W51809   7.497  29.980   7.811 -0.0458  0.0124  0.2693
76822W        W51810  22.811  28.394   0.031 -0.0608 -0.4288 -0.1428
76823W        W51811  35.186  34.421  16.234  0.0654  0.1837  0.1799
76824W        W51812  18.922  28.533   2.775 -0.3374  0.2598  0.1680
76825W        W51813  20.922  13.754  19.289  0.0438 -0.2117  0.2898
76826W        W51814  25.508   1.924  20.301 -0.0443  0.0126  0.1388
76827W        W51815  33.200   1.090  23.315  0.1457 -0.0882  0.0366
76828W        W51816   0.290  19.415  23.215 -0.2796 -0.0484  0.0852
76829W        W51817  28.265  12.338  14.708 -0.0697 -0.2442  0.3953
76830W        W51818  25.423   3.668   2.788  0.0799 -0.1972 -0.2540
76831W        W51819   7.957   4.795  18.565 -0.1369 -0.2806 -0.2154
76832W        W51820   4.643  30.833  25.412  0.2116 -0.4106  0.0602
76833W        W51821   9.727   4.765   7.562 -0.0250  0.1425 -0.2249
76834W        W51822  29.572  32.197   1.588 -0.1434  0.1936  0.0202
76835W        W51823  16.629  29.675   8.642  0.1507 -0.0734 -0.2046
76836W        W51824  29.965  18.524  18.137  0.1439 -0.1354 -0.0687
76837W        W51825  20.878   1.639   8.406 -0.0858 -0.2450  0.1270
76838W        W51826  25.299  25.973  11.202 -0.2138  0.1495 -0.2290
76839W        W51827  11.819  26.716  14.634 -0.2468  0.4151 -0.0938
76840W        W51828  26.379  28.683  15.275  0.0287 -0.1928  0.1733
76841W        W51829   0.948  22.967   1.053  0.0050 -0.5004  0.1373
76842W        W51830   6.191   1.995   6.121 -0.1732 -0.1753 -0.4131
76843W        W51831  29.384  16.774   9.493 -0.2854  0.2063  0.0449
76844W        W51832   7.485   7.518  22.349  0.1703 -0.0838 -0.1336
76845W        W51833   1.598  32.735  22.246 -0.2680 -0.1593  0.1675
76846W        W51834   2.599   9.838  17.549  0.2103  0.2136  0.0123
76847W        W51835  35.002  28.670  15.577 -0.0678  0.0630  0.0165
76848W        W51836   5.317  30.479   0.760 -0.2815  0.0836 -0.3901
76849W        W51837  23.569   8.672  19.986 -0.0665  0.1418 -0.1436
76850W        W51838  10.064  33.387   0.682  0.0060  0.0439 -0.2171
76851W        W51839   4.565  34.886  11.241  0.1373 -0.1734  0.0556
76852W        W51840  12.224  21.141   3.958 -0.3287 -0.0058  0.0785
76853W        W51841  33.584   8.423  19.507  0.2647 -0.1847 -0.0125
76854W        W51842   3.613  32.198   4.366 -0.3234 -0.2019  0.0796
76855W        W51843  22.827  20.967  22.077  0.1368  0.0466 -0.0089
76856W        W51844  20.908  11.345  23.901 -0.0178  0.0649 -0.1493
76857W        W51845  22.663   5.866  24.692  0.1485  0.1546 -0.2181
76858W        W51846   3.060  14.321   3.577  0.3427 -0.0794  0.0511
76859W        W51847  27.225  30.638   3.085 -0.0631  0.3749 -0.1148
76860W        W51848  28.304  17.177  22.935 -0.0480 -0.0650  0.0281
76861W        W51849   0.043   1.104   1.504  0.0407  0.0325  0.2055
76862W        W51850  31.274   4.605   3.383  0.0318 -0.1344 -0.0556
76863W        W51851  22.152  23.660  14.707  0.2850  0.1542  0.0369
76864W        W51852   5.410  24.226   6.464 -0.0368  0.2998 -0.1832
76865W        W51853  26.976  15.987  12.291  0.0159 -0.0053  0.0946
76866W        W51854  33.920  28.495  23.691 -0.3011 -0.1365  0.2078
76867W        W51855  14.891  19.088   0.228 -0.1590  0.3220  0.2470
76868W        W51856  16.475  33.722  11.115 -0.0945  0.1277 -0.0073
76869W        W51857  31.873  19.612  16.916  0.0007  0.2418 -0.3626
76870W        W51858  18.145   4.060  24.942 -0.0414 -0.1693 -0.1263
76871W        W51859  15.590  24.617   3.465  0.0724  0.0722 -0.0687
76872W        W51860  21.227  14.923  22.074 -0.3760  0.0421 -0.0370
76873W        W51861   4.923  22.175   1.478  0.4221 -0.2709 -0.3355
76874W        W51862  19.381  16.918   6.196 -0.2095 -0.1083  0.0460
76875W        W51863   7.381   7.915  24.144  0.3081  0.2052 -0.0210
76876W        W51864   5.768  32.515   4.045 -0.1942  0.0358  0.1254
76877W        W51865  14.689  13.687   6.946  0.0189 -0.1566 -0.1543
76878W        W51866  25.356  18.396  16.113  0.1249 -0.0439  0.1981
76879W        W51867  11.663  10.430  11.175  0.0821 -0.2093  0.2162
76880W        W51868  30.770  32.503   2.058  0.1250 -0.1722 -0.0365
76881W        W51869  11.688  14.829  24.696  0.0816  0.0287  0.0258
76882W        W51870  16.371  12.642   5.882 -0.0268 -0.0731  0.1546
76883W        W51871  18.064   9.549  13.160 -0.0663  0.0889 -0.1949
76884W        W51872  32.441   7.928  26.175  0.1355  0.4086  0.1501
76885W        W51873  16.807  24.779  25.693 -0.1167  0.1774  0.2159
76886W        W51874  27.544  26.125  19.663  0.4264  0.4105 -0.1044
76887W        W51875  25.388  13.680  14.255 -0.2257  0.1913  0.2093
76888W        W51876   2.829  29.860  25.286 -0.0909 -0.1813 -0.3395
76889W        W51877   7.349  27.007  11.373  0.2417  0.4232  0.0696
76890W        W51878  27.786   8.248  19.923 -0.2497  0.0336 -0.0137
76891W        W51879   3.829  22.643  19.289  0.2352 -0.1859  0.3299
76892W        W51880  13.007  10.807   2.125 -0.2384 -0.0945  0.0437
76893W        W51881  21.464  34.275  25.703 -0.0604  0.2640  0.1413
76894W        W51882  27.700  31.069  25.836 -0.0191  0.0550  0.2283
76895W        W51883  33.274  14.282  21.023 -0.1002 -0.0870  0.3011
76896W        W51884   5.678  14.238  25.568 -0.0007 -0.0491 -0.0818
76897W        W51885  15.634  26.110  12.173 -0.1046  0.2163 -0.3719
76898W        W51886  18.636  12.483   1.148 -0.0912  0.1304  0.2153
76899W        W51887  34.864   3.278  21.310 -0.0092  0.4752 -0.1140
76900W        W51888   2.524  31.024  19.596  0.3634  0.3834 -0.1983
76901W        W51889  21.218   4.882   7.944  0.0173 -0.0346  0.1190
76902W        W51890   5.116   7.252  18.981 -0.0845 -0.2265  0.4121
76903W        W51891  30.224  19.939   8.398  0.1876 -0.0039 -0.0472
76904W        W51892   8.730   4.176   2.488  0.2708 -0.0161  0.0061
76905W        W51893   9.066  24.331  14.863  0.2047 -0.2794 -0.0553
76906W        W51894  18.806  18.754  21.177  0.0817 -0.1449  0.3835
76907W        W51895  11.933  19.577  22.318  0.3215  0.0777  0.1071
76908W        W51896  33.188  15.970  23.637 -0.0523  0.3385 -0.0571
76909W        W51897  22.282  16.746  24.867  0.1168  0.0484 -0.0000
76910W        W51898  27.402  33.641   1.667  0.1783 -0.0600  0.0041
76911W        W51899  20.099  29.538  24.517  0.2479  0.1851 -0.0997
76912W        W51900  29.396  32.458  10.858 -0.0169 -0.1835  0.0312
76913W        W51901   9.971  29.495  25.774  0.0148  0.0017  0.6201
76914W        W51902  29.899  28.201  23.677 -0.2432 -0.0478 -0.0902
76915W        W51903  31.312  24.105   9.973 -0.1693 -0.1826 -0.1392
76916W        W51904  20.414  29.277  26.023  0.0312  0.2131 -0.3296
76917W        W51905  16.151  32.762  19.346 -0.0263 -0.0676  0.2438
76918W        W51906  30.763   4.948  24.737  0.2653 -0.0318 -0.0494
76919W        W51907   8.634  25.611  11.987 -0.0656  0.3007 -0.1623
76920W        W51908  28.962   4.158  19.431 -0.1817 -0.1861 -0.0117
76921W        W51909  30.112   5.476   1.636  0.0053  0.1752 -0.1852
76922W        W51910   5.629  29.942   3.382 -0.0640 -0.0396  0.4861
76923W        W51911  17.967  18.695  24.775  0.0287  0.1090  0.1660
76924W        W51912  26.028  33.646  20.967 -0.2308  0.0086  0.1655
76925W        W51913  26.273  30.818  26.105 -0.3882  0.0527  0.2694
76926W        W51914  29.989   5.918  13.194  0.2174  0.0587 -0.1519
76927W        W51915  24.572  14.408  25.437 -0.1186  0.0482  0.2187
76928W        W51916   3.351  28.299  10.423  0.1864 -0.0336 -0.0401
76929W        W51917  11.638   8.772  22.021  0.1387  0.2691 -0.0668
76930W        W51918  31.673  20.712  11.654 -0.1702  0.1169 -0.0138
76931W        W51919   8.757  23.914   9.959 -0.0915  0.2522 -0.1034
76932W        W51920  34.508  32.491  21.152  0.0311 -0.2443 -0.2215
76933W        W51921   0.423  19.554  16.423 -0.0797  0.0921  0.2027
76934W        W51922  15.382  13.602   7.125  0.3184  0.0597 -0.5816
76935W        W51923   0.347   1.996  25.725 -0.1280  0.2064  0.0743
76936W        W51924  33.219  34.498   4.136 -0.0741 -0.3301 -0.1405
76937W        W51925   8.702  22.705   9.705 -0.3556 -0.2327  0.0150
76938W        W51926   1.398   1.784  23.317  0.1151 -0.1307  0.0456
76939W        W51927  29.398   5.338  18.076  0.0030 -0.0941 -0.2843
76940W        W51928  31.214  14.440  10.073 -0.0057 -0.0821 -0.1810
76941W        W51929  13.458  33.318   0.342  0.2565  0.3222  0.0480
76942W        W51930  24.686  24.616  12.640 -0.0502 -0.1582  0.1071
76943W        W51931  11.812  25.311  14.419  0.1401 -0.1282 -0.0554
76944W        W51932  11.900  10.956   6.021 -0.1180 -0.1632 -0.3482
76945W        W51933  22.251  21.007  17.672  0.1573 -0.0785  0.1574
76946W        W51934  30.224  13.314   0.591  0.1053 -0.0510 -0.1607
76947W        W51935  30.566  32.857   0.470  0.0010  0.0669  0.2296
76948W        W51936  17.939   7.212  22.553 -0.3473  0.1520 -0.0024
76949W        W51937  12.440  35.290   1.497 -0.2414  0.0022  0.1527
76950W        W51938   0.273  35.076   5.277 -0.1337 -0.1506 -0.0375
76951W        W51939   4.189  20.868  22.961 -0.1066 -0.0364  0.1808
76952W        W51940   3.427  21.654  22.615  0.2551 -0.0619  0.1013
76953W        W51941   2.986   8.750  21.797 -0.1361  0.2005 -0.4171
76954W        W51942   7.368  23.861   9.943 -0.1343  0.1388 -0.3823
76955W        W51943  13.486  29.894  16.418 -0.0552  0.1565 -0.0280
76956W        W51944  31.005  33.343  22.503  0.0651  0.0247 -0.0428
76957W        W51945  18.263  33.841   2.460  0.0461  0.0251  0.2111
76958W        W51946   3.937  22.983   4.405  0.0739 -0.2854 -0.4061
76959W        W51947   9.448  12.660   7.234 -0.4308  0.0246 -0.1032
76960W        W51948  13.399  32.767  21.001  0.0265 -0.5041  0.4563
76961W        W51949  19.422   0.885   1.880  0.1728  0.2568  0.2363
76962W        W51950  16.187  16.879  12.140  0.0699  0.2416  0.1628
76963W        W51951  20.724  25.537  16.657  0.2576 -0.0596 -0.0209
76964W        W51952  17.969   4.046   0.492 -0.0098 -0.0068  0.4014
76965W        W51953  21.072  22.972   3.965  0.0877 -0.1789 -0.0378
76966W        W51954  17.513  28.368   6.669 -0.1612 -0.2291  0.2991
76967W        W51955  18.174  22.095  24.325  0.0395 -0.2175  0.2145
76968W        W51956  28.499  11.366  11.652 -0.1076 -0.1829 -0.0315
76969W        W51957   1.438   6.459  24.480 -0.3555 -0.3146  0.1165
76970W        W51958  14.933   2.403   1.966 -0.0934  0.1449  0.0202
76971W        W51959   3.694  18.221   2.757 -0.1844  0.0833  0.1676
76972W        W51960  32.304   9.176  20.257 -0.1993 -0.1231 -0.1536
76973W        W51961   8.784  31.520   1.051 -0.0387  0.0707  0.0083
76974W        W51962  15.956   2.983  17.000 -0.1316 -0.1134  0.1452
76975W        W51963  27.843  16.876   8.741  0.3782  0.0240  0.0664
76976W        W51964  31.667  14.734  16.985  0.0205  0.0446 -0.2092
76977W        W51965  19.888  34.671   7.582  0.0318  0.1116 -0.2338
76978W        W51966  29.103  20.874   9.197 -0.3674 -0.0927  0.4862
76979W        W51967  23.865  25.705  11.696 -0.0850  0.0151  0.3840
76980W        W51968  15.266  13.246  20.085 -0.3761  0.0638  0.2145
76981W        W51969  15.915  30.986   3.756 -0.0038  0.0690 -0.1882
76982W        W51970  11.927  22.154   0.991 -0.2623 -0.3093 -0.1313
76983W        W51971  14.326  26.169  23.068  0.0409 -0.1052  0.5436
76984W        W51972   2.469   6.201   3.203 -0.1536 -0.2503 -0.2084
76985W        W51973  28.284  20.931  16.099  0.0695 -0.2780 -0.1730
76986W        W51974   8.519  30.384   4.360  0.2481  0.1242 -0.0422
76987W        W51975  18.904   3.945  10.988  0.0286 -0.0471  0.2639
76988W        W51976   3.980  19.898  23.844  0.4660 -0.3273  0.2094
76989W        W51977   7.431   4.728   1.324  0.0618 -0.3629 -0.0639
76990W        W51978  25.037  25.251  19.895 -0.1777  0.4198 -0.2403
76991W        W51979   1.675   3.662  24.030  0.0162 -0.3070 -0.0475
76992W        W51980   4.784  33.247   6.470 -0.1518 -0.2773  0.1142
76993W        W51981   1.430  16.653   0.828 -0.0583 -0.1006 -0.1718
76994W        W51982  14.927  33.515   1.998  0.0443  0.0324  0.3582
76995W        W51983  14.270  14.088   7.666  0.0073 -0.1206  0.1237
76996W        W51984  11.761   9.693   1.875  0.3241 -0.1226  0.1671
76997W        W51985  31.159  26.432  19.764  0.2103  0.1020 -0.1807
76998W        W51986  24.857   2.089   3.243  0.2317 -0.1725 -0.2265
76999W        W51987  34.870  26.980   1.710 -0.2704  0.1680 -0.0528
77000W        W51988  10.141  20.088  11.272 -0.0883  0.0474 -0.2157
77001W        W51989  22.214  13.127   1.431  0.3135  0.0316  0.1471
77002W        W51990  19.226  23.278   5.182 -0.0110 -0.5007 -0.0460
77003W        W51991   3.544  15.077  25.087 -0.1095 -0.0709  0.1342
77004W        W51992  21.458  14.654  21.670  0.0195 -0.0229 -0.1855
77005W        W51993  18.604   8.881  22.211 -0.1147  0.0947 -0.1264
77006W        W51994  21.217  22.507   3.979  0.1381  0.1084 -0.2322
77007W        W51995  23.622   0.790  12.810  0.2093 -0.1586 -0.3687
77008W        W51996  26.116  18.244   7.456  0.1824 -0.1289  0.0512
77009W        W51997  28.673  18.024   7.603  0.1656 -0.3795 -0.1800
77010W        W51998  26.523  20.330  21.956  0.2322  0.2956  0.2282
77011W        W51999  34.858   8.062   3.670  0.1790 -0.0836 -0.1843
77012W        W52000   3.009  32.205  19.369  0.0636  0.1721 -0.0111
77013W        W52001   6.442  22.910   0.632 -0.1387  0.1793  0.0404
77014W        W52002  29.256  23.463  15.996 -0.1356  0.0950  0.2949
77015W        W52003  29.798  23.864  17.950 -0.4658 -0.2861 -0.2037
77016W        W52004  16.533   3.899   9.803 -0.2612 -0.0939 -0.1390
77017W        W52005  32.104  29.609  13.804 -0.0243  0.2686 -0.0159
77018W        W52006   9.364  31.717  21.031  0.1588 -0.1271 -0.0959
77019W        W52007  32.831  22.168  19.400  0.1291 -0.0529 -0.4932
77020W        W52008  17.150  22.128   9.962  0.0902 -0.1300 -0.2485
77021W        W52009  13.843  30.350  11.025 -0.2464  0.0458 -0.2506
77022W        W52010   8.555  10.582  23.540 -0.2007 -0.1418 -0.1700
77023W        W52011  25.762   4.334   2.583 -0.4288 -0.2261 -0.2505
77024W        W52012  11.479   4.393  23.179 -0.0081 -0.1839  0.1851
77025W        W52013  16.055  17.814  25.671  0.0997  0.3122 -0.1270
77026W        W52014  18.511  33.653   7.322 -0.1579 -0.3950  0.1785
77027W        W52015  28.911  15.632   7.182 -0.0072  0.0650  0.0408
77028W        W52016   8.667  24.001   3.577  0.1586  0.1886  0.0705
77029W        W52017  20.594  10.358   2.630 -0.0154  0.0167  0.0490
77030W        W52018  35.364  11.433  13.061 -0.5328  0.1324 -0.2652
77031W        W52019  34.248  15.776  23.503 -0.0730  0.1253  0.0773
77032W        W52020  14.174  23.617   5.392  0.0418  0.0800  0.0595
77033W        W52021  10.758  20.119   7.843  0.6181  0.5669  0.1085
77034W        W52022  25.659  24.104  24.141  0.0452 -0.0529 -0.1170
77035W        W52023  22.429  24.369  17.509  0.4047 -0.1393 -0.0460
77036W        W52024   6.939   9.121   9.461 -0.0495  0.0991 -0.1183
77037W        W52025  11.410  25.497  17.214 -0.1826 -0.4358  0.1727
77038W        W52026  15.157   8.999  24.337  0.2248 -0.1201  0.1573
77039W        W52027  14.049   8.359  12.327 -0.0844  0.1801  0.1240
77040W        W52028  32.188  35.377   5.585 -0.0266  0.0116  0.0435
77041W        W52029  20.836  29.488   2.595 -0.1428 -0.0406 -0.2856
77042W        W52030  10.486   1.993  22.333 -0.3022 -0.2021  0.1603
77043W        W52031  30.012  23.698  17.512  0.2448 -0.4080 -0.0245
77044W        W52032   5.029  15.392  18.454  0.1907 -0.3853  0.1653
77045W        W52033  29.046  21.620  11.352 -0.0211 -0.0961 -0.0827
77046W        W52034   1.211  30.377  19.149 -0.1234 -0.0657 -0.1487
77047W        W52035   3.866  19.692   1.551 -0.3380  0.0119 -0.1383
77048W        W52036   3.492   3.972   2.764  0.0860  0.2118  0.0842
77049W        W52037   5.479  16.004  24.172 -0.3151 -0.1011 -0.1917
77050W        W52038  20.437  29.466  16.166  0.1003  0.0502 -0.1533
77051W        W52039  19.933   9.511  19.661  0.0528  0.0518  0.1051
77052W        W52040  16.421  15.135   9.895 -0.0399  0.1311  0.3050
77053W        W52041  11.548  26.715   2.968 -0.0755  0.1152  0.0213
77054W        W52042   4.958  11.499  16.291  0.0681  0.0217  0.1078
77055W        W52043  13.970   8.830   8.089 -0.0483  0.3527 -0.0033
77056W        W52044  19.516  24.600  21.114  0.1374  0.1546  0.2482
77057W        W52045  15.462   6.383  23.159  0.1796 -0.1757 -0.2637
77058W        W52046   9.323   3.326  21.241 -0.1156  0.0290  0.1644
77059W        W52047  22.301  12.035   3.040 -0.1596 -0.1479 -0.3342
77060W        W52048  18.187  31.404  18.202  0.3095 -0.0542  0.4590
77061W        W52049  29.326  21.686  18.766  0.1870 -0.0961 -0.1680
77062W        W52050  20.655  16.651  18.923 -0.0409  0.0855 -0.1146
77063W        W52051  19.763  21.903   6.204 -0.0183  0.0790 -0.0973
77064W        W52052  17.463  16.250   4.554  0.1475  0.0274 -0.4236
77065W        W52053  11.430   1.289   1.554 -0.2305 -0.1918 -0.2997
77066W        W52054  34.921   0.309  20.906 -0.1061  0.2133 -0.0218
77067W        W52055  30.997   1.251  23.223  0.0136  0.1974  0.0659
77068W        W52056  28.007  31.925  24.443  0.3049  0.1511 -0.1118
77069W        W52057   5.168  34.859  23.922  0.4190 -0.2713 -0.1459
77070W        W52058  31.192   7.942  24.785 -0.0476 -0.2475  0.0756
77071W        W52059   0.945   3.282  22.546 -0.0118 -0.0442  0.0188
77072W        W52060  23.339   6.514  16.906  0.1119  0.1903 -0.1111
77073W        W52061  22.261  33.206   6.761 -0.3150 -0.1450  0.2075
77074W        W52062  17.540  31.114  17.595  0.4341  0.0746 -0.2118
77075W        W52063   7.636  12.571   2.972 -0.4414  0.0495  0.0030
77076W        W52064   1.802  14.363   2.092  0.0697  0.0870  0.1774
77077W        W52065  19.131  31.279   8.240 -0.1537  0.0745 -0.4455
77078W        W52066  28.416  18.440  21.201  0.0447 -0.0242 -0.0568
77079W        W52067   8.480  23.306   6.361  0.0701 -0.0197  0.2699
77080W        W52068   6.332   0.845  13.564 -0.3228  0.3073  0.2490
77081W        W52069  24.415   0.909   7.031  0.2578  0.2939 -0.1671
77082W        W52070  13.643  29.306  24.105 -0.0475 -0.0424  0.2462
77083W        W52071  21.458  30.378   3.480 -0.0184  0.1149 -0.2015
77084W        W52072  29.599  33.313  22.295  0.1675 -0.1529 -0.1526
77085W        W52073   2.084  32.159  23.382 -0.1955  0.1343 -0.0511
77086W        W52074  22.153  15.594  20.983  0.1211  0.0554  0.0322
77087W        W52075   9.691  17.778   5.508 -0.3478  0.0830 -0.1442
77088W        W52076   6.475  27.581  15.541 -0.0356 -0.0725  0.2906
77089W        W52077  20.031  32.882  17.877  0.2271  0.1445  0.0850
77090W        W52078  16.763  34.822   6.895  0.0288  0.0665 -0.3751
77091W        W52079  15.016   4.095   1.122 -0.0416  0.1004  0.0796
77092W        W52080  24.577  21.775  19.138  0.0285 -0.0437 -0.1416
77093W        W52081   2.472   0.299   3.927  0.0273 -0.1563  0.0745
77094W        W52082  19.860  32.893  19.156  0.1813  0.0739  0.0799
77095W        W52083  25.343  34.403   4.875 -0.1093 -0.1095  0.0641
77096W        W52084  12.532  19.802  25.231  0.1382 -0.0981  0.0052
77097W        W52085   1.858  15.330   0.790 -0.2595  0.1939  0.1832
77098W        W52086   2.607  13.110  17.555  0.0000  0.0302  0.2734
77099W        W52087   4.894  17.571  19.455 -0.3584  0.2136 -0.2164
77100W        W52088   4.003   5.349  19.738  0.0578  0.1351  0.0035
77101W        W52089  29.039   0.408   0.951  0.0760 -0.1715 -0.2697
77102W        W52090  28.867  18.836  25.745 -0.2814 -0.2095 -0.0630
77103W        W52091  34.248  25.630   1.787  0.1037  0.2778  0.4297
77104W        W52092  34.912  33.869   5.383  0.1315  0.4618 -0.3301
77105W        W52093  30.797   5.530  11.011  0.2250  0.0532 -0.0478
77106W        W52094   8.570  14.432   3.284  0.1208  0.0867 -0.0422
77107W        W52095   7.335  14.368   3.329 -0.1724 -0.2708  0.2249
77108W        W52096  28.911  25.646  20.294  0.1570  0.1481 -0.0602
77109W        W52097  27.694  16.193  12.272  0.0533 -0.0872 -0.2125
77110W        W52098  22.265  27.805  12.324  0.0865 -0.1787 -0.0203
77111W        W52099  27.155   1.971  11.261 -0.1355 -0.0240 -0.0462
77112W        W52100   3.320  30.789   3.564  0.1215  0.0356 -0.0181
77113W        W52101   8.783  12.726  22.670 -0.1133  0.0298 -0.0263
77114W        W52102   7.800   6.640  20.662  0.0425  0.1008  0.1258
77115W        W52103  10.944  12.863   7.993  0.0741  0.1655 -0.0986
77116W        W52104  12.644   9.821  20.560 -0.5708  0.2043 -0.0866
77117W        W52105  28.981  22.221  23.474  0.2071 -0.1351 -0.0290
77118W        W52106  10.407   7.725  20.284  0.0088 -0.0352  0.0896
77119W        W52107   2.602   2.593  20.931 -0.0917  0.0233  0.2430
77120W        W52108   1.382  12.047  14.048  0.0112  0.1485 -0.1493
77121W        W52109  24.876  12.179  24.783  0.1392  0.1719  0.0208
77122W        W52110  17.836   0.548   1.501  0.0597  0.0692 -0.0881
77123W        W52111   2.230  14.985   1.052 -0.0600  0.0735 -0.5025
77124W        W52112  15.889  24.928  23.304  0.0737  0.0199 -0.0072
77125W        W52113  15.520  19.431   9.100  0.0456  0.1476  0.1054
77126W        W52114  17.429  27.837   6.720 -0.1214  0.2335 -0.0049
77127W        W52115  11.255   9.608   7.817 -0.0499 -0.0271  0.0295
77128W        W52116  28.222  34.153  24.468 -0.1193 -0.0807 -0.1136
77129W        W52117   7.764  23.232  13.945  0.0919  0.2491 -0.0038
77130W        W52118  27.684  30.366  21.974  0.2042  0.2725 -0.0790
77131W        W52119  32.123   2.127   4.273  0.0648  0.2462 -0.1215
77132W        W52120   0.996   0.878   7.086  0.1833 -0.3984  0.1456
77133W        W52121   6.771   9.548   0.023 -0.3079  0.2909  0.1977
77134W        W52122  12.472  22.341  22.152 -0.1976 -0.0054 -0.0442
77135W        W52123   4.766  10.162   1.191 -0.2486  0.1721 -0.0487
77136W        W52124  11.245  18.863   1.261 -0.0072 -0.1690  0.4200
77137W        W52125   8.131  27.663   3.206  0.1557 -0.0625 -0.0177
77138W        W52126  15.551  22.723  26.124  0.3409  0.0333 -0.2389
77139W        W52127   9.350  10.292  12.638  0.1010  0.1367  0.1334
77140W        W52128   5.335   4.838  22.851  0.0898 -0.0347  0.0578
77141W        W52129  21.658   0.895  18.202  0.2799 -0.0654 -0.5086
77142W        W52130   7.761  10.234   1.887  0.3251 -0.2933 -0.1475
77143W        W52131  27.661  20.172  20.915  0.1132 -0.0686  0.2439
77144W        W52132  34.912  14.534  21.340  0.0665 -0.0342 -0.1442
77145W        W52133   8.162   7.774  20.327 -0.1253 -0.0844 -0.2120
77146W        W52134   2.572  12.678  22.684  0.0134  0.3913 -0.0698
77147W        W52135   1.149  16.791  17.446  0.0536 -0.1053  0.0810
77148W        W52136  23.446   9.239  18.562  0.2385  0.0391  0.1322
77149W        W52137  15.001  23.859  15.322  0.2881 -0.1666 -0.1842
77150W        W52138  17.166  12.096  23.175 -0.0988 -0.2381 -0.0959
77151W        W52139  30.305  15.650  19.246 -0.0086 -0.1533 -0.0571
77152W        W52140   2.576  14.310  23.601 -0.2039 -0.4808 -0.0467
77153W        W52141  28.207   0.049   0.996  0.0919 -0.0310  0.2172
77154W        W52142  15.076  28.177  15.747  0.0579  0.0897 -0.2507
77155W        W52143   1.817  12.220  13.827  0.2380  0.0979 -0.1294
77156W        W52144  26.832  17.028  19.566 -0.0787 -0.0390 -0.0957
77157W        W52145   0.918   4.132   0.454  0.1885 -0.2552  0.1237
77158W        W52146  14.218   8.311  10.062 -0.3263  0.0088  0.2962
77159W        W52147  31.754  19.682   0.313  0.0271 -0.1442  0.0421
77160W        W52148   2.067  32.926   4.551  0.0755  0.1153  0.4452
77161W        W52149  13.679  32.710   6.218  0.1547 -0.0535 -0.1748
77162W        W52150   4.847  12.061   4.116  0.2443 -0.0013 -0.1890
77163W        W52151  13.587  18.031   9.591 -0.0054 -0.2432 -0.2105
77164W        W52152  31.973   0.844  25.632  0.0713 -0.1235  0.3145
77165W        W52153  29.200   6.309  19.392 -0.2337  0.3159  0.1368
77166W        W52154  21.309   4.714  19.352 -0.3781  0.1195 -0.1817
77167W        W52155  28.018  24.740  13.465 -0.0733  0.0556 -0.0454
77168W        W52156  28.007  23.328  19.039 -0.0963  0.0331  0.0395
77169W        W52157  24.989  19.794  10.262  0.0516 -0.2014  0.0329
77170W        W52158  22.404   4.249   7.491  0.1356  0.0416  0.2419
77171W        W52159  18.846  25.796  23.246  0.1776 -0.0844 -0.1381
77172W        W52160  26.294   8.496   2.492  0.0280  0.0660 -0.0510
77173W        W52161  15.760  26.046   2.735  0.1364  0.0951  0.2938
77174W        W52162  20.879  30.927  23.536 -0.3652  0.0784  0.0322
77175W        W52163  22.996  10.054   3.336  0.2809 -0.1449 -0.2092
77176W        W52164  17.935   5.461  25.518  0.1169  0.0507  0.0514
77177W        W52165  12.675  33.771   8.941 -0.2689  0.2132  0.4290
77178W        W52166   9.136  17.869  22.106  0.0023 -0.3489  0.3087
77179W        W52167  33.365  21.827  21.666 -0.1685 -0.1801 -0.0889
77180W        W52168  29.469  35.271  23.972  0.0866 -0.1355 -0.4143
77181W        W52169  25.953   1.330   5.630  0.1165  0.1371 -0.1530
77182W        W52170   8.378  28.525   7.163 -0.0777  0.0323  0.2282
77183W        W52171  31.068   6.849  26.058  0.0351 -0.1533  0.1047
77184W        W52172  27.192  29.036  23.035  0.1539  0.2660  0.1002
77185W        W52173   4.109  26.818  11.149  0.0002  0.3726  0.2565
77186W        W52174   0.656  21.435  24.398 -0.0443 -0.1637 -0.1031
77187W        W52175  30.869  29.696  14.320  0.0601 -0.1262  0.2345
77188W        W52176  22.801   0.708  15.923  0.2588 -0.0964 -0.0821
77189W        W52177  32.785   9.981  21.556 -0.0648 -0.0945 -0.0094
77190W        W52178   9.386   5.573   0.214  0.2528  0.4609 -0.0012
77191W        W52179  34.674   4.140  21.185 -0.0873  0.1150  0.0425
77192W        W52180  16.863  12.175   1.725 -0.0411  0.0602 -0.0216
77193W        W52181  35.250   8.408  11.859  0.0613  0.0995 -0.0623
77194W        W52182   5.704   6.388   9.128 -0.0828 -0.1410  0.2388
77195W        W52183  19.894  31.921  15.437 -0.1888 -0.0440 -0.0625
77196W        W52184  11.996   2.744   8.718  0.1791 -0.1606 -0.2933
77197W        W52185  23.824   3.590   7.157 -0.0862 -0.1380 -0.1258
77198W        W52186  14.604  32.214   7.016 -0.3762  0.0245  0.0116
77199W        W52187  33.730   2.744   5.290  0.0606  0.0569  0.0291
77200W        W52188   0.934  26.814  18.971 -0.0279 -0.3398 -0.2892
77201W        W52189   1.313  34.406   3.018 -0.0180  0.2319  0.0366
77202W        W52190  28.191  24.258   1.280 -0.0614  0.3154  0.0973
77203W        W52191  10.085  26.911  13.063 -0.0994  0.0657  0.1912
77204W        W52192  13.942  23.823  24.287  0.2208 -0.1121 -0.0302
77205W        W52193  16.535  20.817   9.198  0.4625  0.0094  0.0392
77206W        W52194  10.873  14.511  22.571  0.2969 -0.3656  0.0845
77207W        W52195  30.980   1.039  21.176 -0.4059 -0.0489  0.1353
77208W        W52196   1.629  21.106  20.332 -0.2399  0.0673  0.0206
77209W        W52197   9.732  29.086   6.083 -0.1049  0.0895  0.1396
77210W        W52198   2.711  10.457   5.954 -0.2486 -0.2912 -0.2190
77211W        W52199   2.835  18.721  16.510  0.0154  0.5950  0.2583
77212W        W52200  17.314  26.206  24.883 -0.2878 -0.1860  0.0579
77213W        W52201  35.214  33.017   7.507 -0.1423 -0.1556 -0.2033
77214W        W52202   2.977  32.374  21.376 -0.2886  0.1096  0.0527
77215W        W52203  26.861  30.702  20.790  0.1821 -0.2077  0.4553
77216W        W52204  22.250  32.172  17.652 -0.2544  0.1129  0.0587
77217W        W52205  12.848   8.573   4.139  0.0091 -0.1497  0.1595
77218W        W52206  29.086  13.488  13.168  0.1956  0.0335  0.1088
77219W        W52207   1.169  33.171   5.360  0.2212 -0.0956  0.0870
77220W        W52208   7.967   5.512  22.760 -0.2626  0.4217  0.2256
77221W        W52209   3.693  17.733  20.131 -0.1677  0.0100 -0.0938
77222W        W52210   1.908  24.168  16.410 -0.4293 -0.1191  0.2392
77223W        W52211  17.105  24.186  12.355  0.0888  0.2126  0.5374
77224W        W52212   6.766  31.192   1.952  0.0101  0.0279  0.1367
77225W        W52213  12.506   2.957   0.226 -0.5973 -0.0296 -0.2064
77226W        W52214   1.134  35.087  24.276 -0.0623 -0.1192  0.4283
77227W        W52215  11.559  14.304   5.089  0.0551  0.1408 -0.3528
77228W        W52216   6.801   3.036  24.655  0.0832 -0.1917  0.0050
77229W        W52217  11.356  24.049  10.764  0.0503  0.0239  0.1752
77230W        W52218   1.612  10.495  19.578  0.4376 -0.0283 -0.1131
77231W        W52219  32.249  19.467  15.116  0.0257  0.2108  0.4072
77232W        W52220  10.410   7.891   4.136  0.1258  0.1763 -0.0704
77233W        W52221   0.981  22.184  21.009  0.0531 -0.4110 -0.0061
77234W        W52222   4.024   8.672  17.555 -0.1937 -0.3059  0.2436
77235W        W52223   3.845   9.419  18.391  0.2823  0.4040  0.0019
77236W        W52224  23.405  28.012  18.576 -0.3176 -0.0616 -0.1819
77237W        W52225   9.311   3.544  12.643 -0.0081 -0.0785  0.1244
77238W        W52226  31.692  31.907  22.627  0.0570 -0.0174 -0.0407
77239W        W52227  22.867  10.762   1.718  0.1050  0.1443  0.1272
77240W        W52228  17.231   8.419   8.452 -0.2672  0.0877  0.1661
77241W        W52229   7.655   9.930   4.397  0.2455  0.0883  0.0180
77242W        W52230  27.931  16.564  15.422  0.1999  0.0584 -0.1843
77243W        W52231   0.376   4.296  16.364 -0.0036 -0.0684  0.0088
77244W        W52232  29.006   4.755  11.563  0.2955 -0.2144 -0.0771
77245W        W52233  30.501  14.857  17.547  0.1852 -0.2811 -0.0631
77246W        W52234  21.824  16.886  26.107  0.1900 -0.6278 -0.1081
77247W        W52235  32.602  29.275  22.817 -0.3012 -0.1141 -0.1486
77248W        W52236  29.449  25.236   8.498  0.0594  0.0209 -0.2578
77249W        W52237  22.013  21.892  21.260  0.2329  0.0185  0.1723
77250W        W52238  34.329  29.058  14.719  0.0864  0.3415 -0.3533
77251W        W52239  16.402   9.324  13.497 -0.0462 -0.0079  0.3143
77252W        W52240   1.960  15.276  22.553  0.1280 -0.1944 -0.0140
77253W        W52241  25.718  28.869   3.654 -0.0441 -0.1631 -0.3635
77254W        W52242   0.517  10.241  16.580  0.0723  0.0365  0.0161
77255W        W52243  18.369  22.491   7.912  0.0145  0.0005 -0.3104
77256W        W52244   5.404  30.371   3.138 -0.0906  0.2410 -0.2059
77257W        W52245  20.239  31.728  19.120  0.0644 -0.1852  0.1218
77258W        W52246  10.991  12.856   4.473  0.2385  0.0343 -0.1159
77259W        W52247  27.939  19.329  17.251  0.0457 -0.1274 -0.0708
77260W        W52248  18.199  31.634  23.271  0.0820 -0.1083 -0.0214
77261W        W52249   8.102  21.665  11.287 -0.2530  0.0623 -0.1696
77262W        W52250   2.732  14.936   0.280  0.0603  0.0263  0.2289
77263W        W52251   3.989   7.094   7.325  0.1604  0.2942 -0.1309
77264W        W52252  34.484   8.214   1.012  0.2188  0.3059 -0.0278
77265W        W52253   1.719   9.205  16.524 -0.0068 -0.0924 -0.3511
77266W        W52254   1.913  35.078  19.871 -0.1659  0.1989  0.1999
77267W        W52255  15.313  12.257   3.637  0.2728  0.0724  0.2121
77268W        W52256  10.659   8.401   0.849  0.0033  0.2743 -0.1324
77269W        W52257  12.677  14.658  12.846  0.0448  0.0294 -0.1005
77270W        W52258  29.969  31.681  13.869  0.0312  0.1475 -0.3166
77271W        W52259  28.472   4.762  20.867 -0.1802 -0.1877  0.3977
77272W        W52260  33.584  22.325  21.912  0.2766 -0.0425  0.1305
77273W        W52261   2.289   0.868  25.095  0.0666  0.0083  0.0956
77274W        W52262  33.358   3.716  25.817 -0.1161  0.2964 -0.5588
77275W        W52263  26.490  17.420  10.952 -0.0587 -0.1559 -0.0161
77276W        W52264  21.561  12.631  14.956  0.2281  0.3111  0.1790
77277W        W52265  24.965  19.957  11.299 -0.2114 -0.0808 -0.0208
77278W        W52266  10.498  25.543  25.759 -0.4280  0.1344 -0.2218
77279W        W52267   5.770  20.053   5.755  0.3611  0.0107  0.1186
77280W        W52268  31.478  35.294   0.051  0.0992  0.0914  0.3461
77281W        W52269  33.923   8.360  16.713  0.0626  0.0141  0.2874
77282W        W52270  30.505  14.541  19.146 -0.2555 -0.3538  0.3377
77283W        W52271   1.762  18.316  11.904 -0.0943 -0.1801  0.0389
77284W        W52272  30.067   3.569  14.804  0.0623 -0.0578  0.2138
77285W        W52273  12.976   5.095  22.350  0.1748 -0.1855 -0.0964
77286W        W52274  12.847  34.670  12.456 -0.1302  0.4120 -0.0396
77287W        W52275  14.773  26.757  25.558 -0.0552  0.3130 -0.1063
77288W        W52276  21.096  29.864   6.012  0.0487  0.0629  0.0757
77289W        W52277  28.877  16.954   5.318  0.1087 -0.0885 -0.0187
77290W        W52278  23.200  11.016  18.988  0.2210 -0.2317  0.3474
77291W        W52279   6.626   5.946  12.165  0.3352 -0.1078 -0.1158
77292W        W52280  30.272  19.485  23.033  0.0571  0.2049  0.1499
77293W        W52281  26.513   2.416  14.628  0.0610 -0.0910  0.1137
77294W        W52282  24.251  23.712  21.457 -0.0497  0.2499 -0.3089
77295W        W52283   9.907   7.435   8.135 -0.3363 -0.1309 -0.2755
77296W        W52284  22.913   0.885  19.322 -0.1192 -0.1754 -0.3974
77297W        W52285   5.632  20.456  18.963  0.2394  0.1160 -0.1579
77298W        W52286  14.206  26.274   5.470  0.0607  0.2308 -0.1808
77299W        W52287  28.727  28.341   3.186 -0.1109  0.1004 -0.0592
77300W        W52288  19.847   5.798  18.557  0.0176  0.2617  0.0005
77301W        W52289   7.236  28.747  15.878 -0.3224  0.0079  0.2433
77302W        W52290   0.837  31.768  26.171  0.0393 -0.0345  0.1940
77303W        W52291  33.316  21.988  18.493  0.2186  0.0196  0.0556
77304W        W52292  14.658  27.005   2.500 -0.5291 -0.1380  0.3136
77305W        W52293  31.044  11.299  12.054  0.0703 -0.3482  0.1185
77306W        W52294   1.238  29.544   7.527  0.0937  0.1416 -0.2098
77307W        W52295  34.144   4.081   3.172  0.2258  0.1226  0.2188
77308W        W52296  19.470  19.519  10.321  0.1806  0.3436  0.0247
77309W        W52297  23.104  25.889  14.442 -0.1356 -0.2670  0.2610
77310W        W52298   2.670  15.491  14.366 -0.0544 -0.1582  0.0760
77311W        W52299  14.561   8.910   8.379  0.3380 -0.0631  0.0384
77312W        W52300  24.996  34.793  17.780 -0.1654  0.1169  0.1144
77313W        W52301  28.896   3.977  17.802 -0.1541  0.0136  0.3464
77314W        W52302   8.255   4.225   9.779 -0.1295  0.1736 -0.1160
77315W        W52303  28.050  34.510  14.458  0.2232 -0.1978  0.1734
77316W        W52304  11.194  34.572   7.399 -0.1566  0.0930 -0.1129
77317W        W52305   2.853  27.478   3.173 -0.2726  0.2137  0.0570
77318W        W52306  26.750   7.491  12.328 -0.0025  0.3199  0.0074
77319W        W52307  16.402   9.956   1.258 -0.1536  0.0168  0.1928
77320W        W52308   7.382  29.019   8.288 -0.2029  0.1289 -0.0161
77321W        W52309   2.686  27.936   4.721 -0.0922 -0.2945  0.3222
77322W        W52310  13.463  14.264   8.297  0.5646  0.2098  0.3151
77323W        W52311  24.823  19.080  18.929 -0.0936 -0.3185  0.0574
77324W        W52312  31.326  24.579  23.769  0.3101 -0.0192  0.2041
77325W        W52313  19.963  24.061   9.443  0.3477  0.0740  0.2217
77326W        W52314   2.222  32.014   7.754 -0.1738 -0.2323  0.1549
77327W        W52315  17.238  27.961  25.015  0.0175  0.0326  0.0563
77328W        W52316  20.414  16.485   1.441 -0.0492  0.1880 -0.0374
77329W        W52317  10.606  15.607   0.163  0.1872 -0.1570 -0.0254
77330W        W52318  28.018  27.454   9.772  0.1050  0.1346 -0.0483
77331W        W52319   9.490  12.748   9.815 -0.3476  0.1651  0.1123
77332W        W52320  20.407  22.179  23.016  0.2185  0.0242 -0.1209
77333W        W52321   6.227  32.242   7.757  0.0213 -0.1064 -0.1682
77334W        W52322  22.476  25.243   3.609  0.0167 -0.3625 -0.4311
77335W        W52323  18.899   8.815   1.536  0.2211 -0.1127  0.2488
77336W        W52324  33.676   5.509   5.699 -0.2137 -0.0760  0.0852
77337W        W52325   5.616  32.775  25.924  0.0119 -0.4444 -0.0761
77338W        W52326   8.937  15.042  26.230  0.0528  0.0799 -0.0922
77339W        W52327   2.882  27.021  25.262 -0.2465 -0.1292  0.0059
77340W        W52328  23.539  26.539  17.593 -0.0329 -0.0359 -0.0389
77341W        W52329  35.116   9.809  19.575 -0.1453 -0.1195  0.0769
77342W        W52330  22.867   0.808   2.118 -0.3330  0.1922  0.1220
77343W        W52331   7.182  16.158   5.710  0.0440 -0.0449  0.0400
77344W        W52332  24.384   6.157  24.715 -0.1877  0.2130 -0.1265
77345W        W52333  26.134  17.948  24.264  0.1421 -0.1926 -0.2579
77346W        W52334  20.424  10.467   6.330 -0.0511  0.0749 -0.2130
77347W        W52335  32.111  16.260   5.380 -0.0569  0.0850  0.1271
77348W        W52336  21.891   4.924   8.097 -0.0797 -0.2145 -0.0735
77349W        W52337  19.737  30.319   3.335  0.1518  0.1058 -0.2476
77350W        W52338  24.460  28.192  16.281 -0.0241  0.1138 -0.1503
77351W        W52339  26.624  23.579  15.272  0.0629  0.1223  0.1826
77352W        W52340   7.692   2.482  20.158  0.1045  0.1085  0.0969
77353W        W52341  16.080   6.268   2.293 -0.1100  0.0316 -0.1579
77354W        W52342   3.114  10.553  20.104 -0.1236 -0.4879 -0.0047
77355W        W52343  19.695  13.490  16.707  0.0650  0.3656 -0.2041
77356W        W52344  29.499  32.322   3.197 -0.3485 -0.1719  0.0431
77357W        W52345   9.169  33.770  10.358  0.2745 -0.2499  0.0182
77358W        W52346   3.517  24.867  23.309 -0.3511 -0.0981  0.0775
77359W        W52347  15.908  28.248   6.518  0.0855 -0.3890  0.2844
77360W        W52348   1.679  17.052  19.443 -0.3363  0.1654 -0.0762
77361W        W52349   9.221   4.164  12.592 -0.0559 -0.1168  0.0181
77362W        W52350  25.982  32.355  20.963  0.0758 -0.1062 -0.1883
77363W        W52351  11.308  12.924   9.812  0.0231  0.2396 -0.0993
77364W        W52352  33.742  18.648   8.780  0.0914 -0.0227  0.1298
77365W        W52353  21.655  25.456   0.217 -0.1829  0.1763  0.0091
77366W        W52354   7.362  23.865   6.800 -0.2911 -0.2448 -0.2870
77367W        W52355   7.601  28.754   5.049 -0.4669 -0.1315  0.0931
77368W        W52356  35.259   1.198  23.869 -0.0231 -0.0740 -0.2748
77369W        W52357  15.307   8.395   0.714  0.0811 -0.3540  0.0432
77370W        W52358  24.238  32.781   6.372 -0.4357 -0.2467 -0.0962
77371W        W52359  11.090   0.514   5.490  0.0176 -0.2106 -0.5059
77372W        W52360  13.036  28.157  15.393 -0.2719 -0.1702 -0.2619
77373W        W52361  29.977  30.659  20.147 -0.5088 -0.3704  0.3458
77374W        W52362  30.366  26.978  10.104  0.0906 -0.2294  0.2173
77375W        W52363  25.591  14.946  10.394  0.2797 -0.0926  0.0718
77376W        W52364  14.193  33.701  11.000  0.2582  0.0109 -0.3722
77377W        W52365   7.318   5.235  23.951 -0.0201  0.1889 -0.1379
77378W        W52366  25.638  20.158  22.340 -0.0082 -0.1068 -0.0105
77379W        W52367  30.803  28.443  25.037  0.1432  0.0020  0.1162
77380W        W52368  22.650  14.445  18.162 -0.1950 -0.0590  0.0175
77381W        W52369  10.708  15.121   6.513  0.1385  0.3611  0.1348
77382W        W52370  20.361  35.142  17.670  0.0090  0.4368 -0.2677
77383W        W52371  21.118  31.858  25.081 -0.1640 -0.1112  0.1464
77384W        W52372  30.177   0.548  17.588  0.1454  0.0122 -0.0208
77385W        W52373  15.061  33.096   6.079 -0.0140  0.1016  0.0113
77386W        W52374  28.778  27.431  21.859  0.1182  0.0659 -0.1033
77387W        W52375   9.168  19.065  20.888  0.0006  0.0113 -0.0373
77388W        W52376  19.205   0.556   9.144  0.3037 -0.1585 -0.1079
77389W        W52377  11.421  12.585  11.900 -0.2090  0.1798 -0.1279
77390W        W52378  17.812  33.979   4.955  0.3024  0.0099  0.0271
77391W        W52379  33.096  17.141  20.136  0.1579  0.0024 -0.2872
77392W        W52380   6.921  34.203  25.640 -0.0390  0.2380  0.0491
77393W        W52381  16.596  11.427  18.861 -0.2664 -0.1243  0.1428
77394W        W52382   3.028  10.914   0.224 -0.1516 -0.1469 -0.1054
77395W        W52383   4.102  14.664   2.347  0.1147 -0.0149 -0.2759
77396W        W52384  29.448   4.307  13.108  0.3614 -0.3193  0.4422
77397W        W52385  13.100   0.074   0.922  0.0419 -0.1137  0.0456
77398W        W52386   6.903  10.883   0.949  0.1195  0.2416 -0.1824
77399W        W52387   4.087  19.942   2.224 -0.1037  0.0459 -0.1613
77400W        W52388  13.089  12.939   5.394  0.0994 -0.0859  0.0366
77401W        W52389  24.844  33.237  19.816  0.1086 -0.1447  0.0412
77402W        W52390  25.094  24.178  13.387  0.1083  0.0415 -0.0740
77403W        W52391  28.028   0.951  21.200  0.2018  0.3359 -0.4620
77404W        W52392  17.222  19.214   7.475 -0.1055  0.1388 -0.0190
77405W        W52393  33.427  19.994   9.433 -0.4972 -0.1006 -0.0584
77406W        W52394   4.024   5.596  20.219  0.0412  0.1064 -0.0112
77407W        W52395   1.024   2.819   2.925 -0.1797  0.0764  0.1430
77408W        W52396   5.093   9.297   5.685  0.0824  0.0497 -0.0241
77409W        W52397  26.468  28.574  10.180 -0.0903 -0.1162  0.0491
77410W        W52398   9.550  11.127  12.931 -0.0102 -0.1064 -0.0871
77411W        W52399  14.376  24.749  22.764 -0.0016  0.0623 -0.0736
77412W        W52400   2.019  20.120  18.530 -0.1680 -0.2917 -0.0283
77413W        W52401  18.033   4.515  25.153  0.2859 -0.0548 -0.2569
77414W        W52402  14.828   2.967  23.062 -0.1761 -0.0571  0.0154
77415W        W52403  27.484  29.654  15.657 -0.0988  0.0833 -0.0176
77416W        W52404   7.259  13.698   1.715 -0.2356  0.1134  0.1699
77417W        W52405  13.441  21.870  15.238  0.1015 -0.0203  0.2330
77418W        W52406  17.558   9.351  11.728  0.0909  0.2865  0.0815
77419W        W52407  11.957  19.076  10.821  0.2665 -0.0842 -0.1681
77420W        W52408  15.462  16.977   8.243  0.1400 -0.2799 -0.0260
77421W        W52409  17.720   2.073   4.418 -0.2240 -0.2418 -0.1747
77422W        W52410   1.755   3.169  25.320 -0.1369 -0.5608 -0.1336
77423W        W52411   2.001  35.065  22.285  0.0294  0.0146  0.0518
77424W        W52412   9.658  27.527   3.237 -0.1600  0.1898 -0.1959
77425W        W52413   0.176   6.292  25.040 -0.2500 -0.2274  0.2736
77426W        W52414   8.876   2.570  21.661  0.0755  0.2503  0.0112
77427W        W52415   7.761  35.356   4.620 -0.1577 -0.2336  0.2092
77428W        W52416   3.991  25.412  20.403 -0.1681 -0.1383 -0.0853
77429W        W52417   5.286   4.375  23.199 -0.1286  0.0268  0.0289
77430W        W52418   7.813   2.909   5.006 -0.0187  0.1567  0.1398
77431W        W52419   8.634   4.880  25.694 -0.1686 -0.0836 -0.0001
77432W        W52420  32.695   1.634  21.767 -0.1772  0.0147  0.0546
77433W        W52421   1.591   7.912   3.541 -0.3353  0.3283  0.1220
77434W        W52422  10.615   1.331   8.577  0.3250 -0.3540  0.3220
77435W        W52423  32.897  22.325  24.311  0.0967  0.0762  0.2216
77436W        W52424  11.142  14.820   6.722 -0.1042  0.1500  0.0958
77437W        W52425  22.731  22.020  26.166 -0.1225  0.1696  0.2512
77438W        W52426  32.403  32.720  23.322  0.1689 -0.0244  0.1556
77439W        W52427  28.884  19.483  24.060  0.0138 -0.0130  0.0304
77440W        W52428  12.209  11.991  25.738  0.1210 -0.0210  0.0798
77441W        W52429  20.037   7.589   3.499  0.1031 -0.1569  0.0669
77442W        W52430  34.643  23.205   0.939  0.6669  0.2021  0.1250
77443W        W52431  18.595  19.089  24.087 -0.0156  0.1181 -0.2323
77444W        W52432  11.511  32.710  20.363 -0.0357 -0.2337 -0.2073
77445W        W52433  13.092  20.822  11.693 -0.2375 -0.0930 -0.1900
77446W        W52434  29.857  20.242   5.409 -0.1269  0.0939 -0.0453
77447W        W52435  15.608   0.716  19.779 -0.3216 -0.1531  0.0328
77448W        W52436  18.205   4.020   3.226  0.2174  0.1204  0.1128
77449W        W52437  24.132   7.303  24.591 -0.2908 -0.1208  0.1160
77450W        W52438  18.692  23.944  11.843 -0.0474 -0.3109 -0.1658
77451W        W52439  26.015  27.878  20.321  0.3846  0.2237 -0.1763
77452W        W52440   6.121  29.807   0.930 -0.1807  0.1410  0.3127
77453W        W52441   6.477  27.135   1.654 -0.1225  0.0424  0.2760
77454W        W52442   1.493  23.373  15.210  0.1652 -0.3413 -0.0727
77455W        W52443  27.403   3.130   5.255  0.1155 -0.3845  0.0987
77456W        W52444   4.575  25.444   7.233 -0.0955  0.1608  0.0672
77457W        W52445  28.072  32.855   3.762  0.0080 -0.2716  0.0245
77458W        W52446   0.834  22.718   2.132 -0.0244  0.1724  0.4109
77459W        W52447  23.348  24.221  23.329  0.1292  0.1209  0.2303
77460W        W52448  33.363  17.802   6.550  0.1494 -0.0497  0.2991
77461W        W52449  22.739  19.892  22.949  0.2795  0.0475  0.4289
77462W        W52450   1.284   4.524  25.939  0.0558 -0.1017  0.1345
77463W        W52451   9.340  30.872  15.445  0.0202  0.0067  0.2756
77464W        W52452  27.233   3.038  19.620  0.0194 -0.0942 -0.0965
77465W        W52453   6.191  29.805   2.516  0.1258  0.1443  0.0186
77466W        W52454   8.195   3.890  13.338 -0.0780 -0.0400  0.0312
77467W        W52455  13.528   9.683   4.629  0.1410 -0.0496  0.0102
77468W        W52456  10.483   3.675  24.782 -0.2113 -0.0082 -0.0706
77469W        W52457  15.074  29.762   5.940 -0.2234  0.0344  0.0482
77470W        W52458  26.559  10.396  14.973 -0.2272 -0.1174 -0.2320
77471W        W52459  14.089  14.005  25.449 -0.3635  0.2462 -0.1684
77472W        W52460  18.104   9.282   6.323  0.0651  0.1977 -0.0985
77473W        W52461  32.263  32.435  15.462 -0.2866 -0.1460 -0.0890
77474W        W52462   7.221  13.744  10.007 -0.0086  0.2207  0.4214
77475W        W52463   4.216  19.102   3.645 -0.0671 -0.0597  0.0863
77476W        W52464  25.531  30.687   1.790 -0.1441 -0.0503 -0.0474
77477W        W52465  32.349   8.316  10.851 -0.2944  0.1341 -0.0311
77478W        W52466  29.557  31.682   4.390 -0.0555 -0.4727  0.0216
77479W        W52467   1.188  31.826  18.515  0.1386 -0.3607  0.0768
77480W        W52468  14.364  26.905   3.517  0.0637 -0.1474 -0.0207
77481W        W52469  23.321  12.270  22.171 -0.0885 -0.2457 -0.0812
77482W        W52470  24.428   7.997  18.925  0.0917  0.1015  0.1717
77483W        W52471  15.180  12.541   9.422  0.0369  0.0562 -0.1801
77484W        W52472  29.928   5.657  24.877 -0.1176  0.2992  0.0933
77485W        W52473   3.476  22.011   5.214 -0.7115 -0.3008  0.1131
77486W        W52474  20.290  20.795   5.175  0.0445  0.4124 -0.1583
77487W        W52475  27.409  16.687  14.634 -0.0216 -0.3367  0.0874
77488W        W52476  24.415  20.281  18.251 -0.1269  0.1167 -0.2237
77489W        W52477  30.458  29.451  11.736  0.1528 -0.1598 -0.3782
77490W        W52478  11.143   8.490  26.202 -0.1093 -0.2367 -0.1979
77491W        W52479   7.447  22.301  24.845 -0.1390  0.2723 -0.1663
77492W        W52480  28.542  11.768  20.407 -0.0085 -0.0746 -0.2224
77493W        W52481  24.960  16.791  20.525 -0.1414  0.1418  0.3130
77494W        W52482  33.404  10.158  18.987  0.0099 -0.0432  0.3359
77495W        W52483  12.448  15.332  13.869  0.1536 -0.0317  0.0970
77496W        W52484  10.151   8.702   6.232 -0.1302 -0.2267 -0.1781
77497W        W52485  25.355  19.274  16.313  0.0444  0.0661 -0.0282
77498W        W52486  15.533  18.693   1.724  0.0807  0.1660  0.1960
77499W        W52487  30.082  29.634  26.225  0.1546  0.0634  0.1729
77500W        W52488  10.410  14.831  25.772 -0.1125 -0.3126 -0.2960
77501W        W52489  16.975  10.641  12.285 -0.4221  0.0163  0.0557
77502W        W52490   4.581  19.066  18.027  0.2016  0.0514  0.0867
77503W        W52491  22.886  30.254   1.095 -0.1359  0.0105  0.2782
77504W        W52492  26.581   8.115   0.477 -0.1841  0.1205  0.0392
77505W        W52493   2.620  32.860  18.966 -0.4931 -0.2681  0.2976
77506W        W52494   6.996  29.013  21.951 -0.0013 -0.3441  0.3364
77507W        W52495  31.415  28.871  20.139  0.3169 -0.0763 -0.0520
77508W        W52496   9.661  11.855  20.817 -0.1120 -0.0723  0.0434
77509W        W52497   1.924  25.964   4.398 -0.0053 -0.1025  0.1964
77510W        W52498  29.338  17.899  14.229 -0.1544 -0.1985 -0.2492
77511W        W52499  33.578   2.797   4.041 -0.0107  0.0016 -0.0740
77512W        W52500  33.350   0.564  13.760 -0.2627  0.0773 -0.0721
77513W        W52501   5.147  21.439  25.696 -0.0467 -0.1036  0.2464
77514W        W52502   8.679  34.408   7.560  0.0960  0.0059  0.2304
77515W        W52503  32.466  34.219  20.386 -0.0476  0.1639 -0.1054
77516W        W52504  14.683  30.572  11.444 -0.2206 -0.2994 -0.1597
77517W        W52505   7.767   8.650  21.568  0.0132 -0.3530  0.2654
77518W        W52506   0.512  31.756   5.998 -0.2154 -0.1141 -0.3050
77519W        W52507  22.578  30.946   5.812  0.0464  0.0824  0.0811
77520W        W52508  25.564  19.070  18.921 -0.0494  0.3299  0.2626
77521W        W52509  16.771   5.580  19.752 -0.0049  0.2957  0.1322
77522W        W52510   0.688   3.866  16.404  0.0885 -0.0725 -0.0222
77523W        W52511  17.122   2.010  20.196 -0.1058 -0.2059  0.2128
77524W        W52512   3.666  20.319  22.281  0.0086 -0.2548  0.2420
77525W        W52513  27.457   9.513   1.129  0.1353 -0.1025 -0.0268
77526W        W52514  12.284  11.688   8.269 -0.1482 -0.1163 -0.0404
77527W        W52515  24.479   5.107  21.400  0.1577  0.0830 -0.3011
77528W        W52516  34.264  35.059   5.007  0.0528 -0.2733 -0.0302
77529W        W52517   0.460   7.303  18.698 -0.1104  0.0266  0.1335
77530W        W52518  19.696  11.956  23.902  0.2861  0.1700  0.1913
77531W        W52519   1.117   1.451  16.452 -0.2818 -0.1309 -0.0110
77532W        W52520  18.653  23.852   7.189 -0.0637  0.3956  0.0091
77533W        W52521   2.360  20.263  18.913  0.1763  0.1925  0.3085
77534W        W52522  10.146  34.731  12.074 -0.1009  0.1762  0.4293
77535W        W52523  25.524  33.588  20.553  0.0764  0.1927 -0.0423
77536W        W52524  29.731  32.796  11.827  0.2991  0.1065  0.5430
77537W        W52525  12.050  12.388  13.448 -0.4061  0.3620 -0.0635
77538W        W52526  28.492  29.996   4.714 -0.0777  0.2402 -0.0315
77539W        W52527  35.382  32.336  22.841  0.0891 -0.1312 -0.2157
77540W        W52528  34.320  10.355  16.180  0.2158 -0.1610  0.0035
77541W        W52529  11.723  31.964   7.737  0.1109  0.0176 -0.1024
77542W        W52530  35.163  20.667   7.879  0.1623  0.2892  0.0050
77543W        W52531  25.214  27.080  16.560 -0.1701 -0.0670  0.0942
77544W        W52532   5.979   1.868  21.715 -0.1097  0.0360  0.4656
77545W        W52533   1.275  15.670  11.555  0.0261  0.1305 -0.0911
77546W        W52534  34.752   9.366  10.967 -0.1699  0.2331 -0.1092
77547W        W52535  20.358  33.885  21.550 -0.0979  0.1307  0.3518
77548W        W52536  28.252  27.317  20.276  0.2021  0.0182  0.0720
77549W        W52537  21.173  26.517  15.413 -0.2037 -0.2408 -0.0630
77550W        W52538   1.037  32.154  16.575  0.1281  0.2495  0.0536
77551W        W52539   9.780   8.120   2.760  0.1472  0.0404  0.0626
77552W        W52540   1.867  27.072   5.519 -0.0420  0.2119  0.0854
77553W        W52541  28.192  17.094   8.353 -0.2946 -0.3095  0.0599
77554W        W52542  23.300   3.204   0.961  0.1367  0.0420 -0.3802
77555W        W52543  17.244  32.290   1.266 -0.1089  0.3171  0.2550
77556W        W52544  25.824   7.552  14.901  0.1165  0.1459 -0.2799
77557W        W52545  10.247  17.276   5.011 -0.1272 -0.0674 -0.0818
77558W        W52546  12.701  22.783  15.748 -0.0652 -0.1524 -0.4077
77559W        W52547  31.976   9.594  21.930  0.0575 -0.1047 -0.2047
77560W        W52548  20.295  10.688  18.744 -0.0604 -0.0577  0.2261
77561W        W52549  10.043   6.894  11.170  0.0020  0.0046 -0.0334
77562W        W52550  17.276  29.681   0.069  0.2649  0.1425 -0.2017
77563W        W52551  24.858  23.387  18.861 -0.2223 -0.3745  0.0388
77564W        W52552  31.193   7.012  25.568 -0.1858 -0.0904  0.0214
77565W        W52553  19.855  13.380   2.631 -0.2964  0.1773 -0.2134
77566W        W52554  33.889   2.503   2.520 -0.0989 -0.2173  0.3205
77567W        W52555   9.362  25.170   9.277 -0.2076 -0.1210 -0.0051
77568W        W52556   9.227  24.942   4.562 -0.0095  0.2113  0.0875
77569W        W52557  17.343   2.287   3.716 -0.2863  0.0939 -0.2368
77570W        W52558  30.973  32.795   0.800  0.1826 -0.3574  0.2287
77571W        W52559  28.900  29.859   4.522 -0.3450  0.0786 -0.1260
77572W        W52560  11.521   4.645   4.681  0.0133 -0.0691  0.0889
77573W        W52561  15.531  11.093   9.446 -0.2081  0.1895  0.0846
77574W        W52562  29.429  16.641   6.445  0.1555 -0.2827 -0.1307
77575W        W52563   0.714  22.616  21.000  0.0684 -0.1395 -0.3910
77576W        W52564  12.875   8.487  11.771 -0.0725 -0.1580  0.3997
77577W        W52565  14.064   9.093  25.210 -0.0946 -0.2781 -0.0773
77578W        W52566   8.952   1.183   1.502  0.2194  0.1648  0.0839
77579W        W52567  16.551   7.596   1.694  0.3302  0.2916 -0.0338
77580W        W52568   4.315  25.874  10.542 -0.2311 -0.0526  0.0895
77581W        W52569  12.975  16.738  20.962 -0.4382 -0.0837  0.0595
77582W        W52570  30.881  33.168  14.915 -0.1291  0.1430  0.1215
77583W        W52571  14.162   6.110  11.995 -0.0014  0.0120 -0.1736
77584W        W52572   3.341  30.862  22.048  0.3200 -0.1193  0.2962
77585W        W52573  12.958  10.208   5.937  0.0233 -0.1062 -0.2604
77586W        W52574   4.901   0.081   3.305  0.0976 -0.0727 -0.3218
77587W        W52575  17.030  15.143   1.309  0.1788 -0.1702  0.0634
77588W        W52576  21.996   5.671  15.800 -0.3328 -0.0894 -0.2942
77589W        W52577  27.151  34.355   2.652  0.1914  0.2308 -0.0131
77590W        W52578   0.758  21.861  19.125 -0.1054 -0.5355 -0.0875
77591W        W52579  12.667   4.296   2.577 -0.1888 -0.0078 -0.2591
77592W        W52580  17.319   6.510  26.184 -0.2774 -0.0161 -0.3001
77593W        W52581  12.921  24.826  24.028  0.0524  0.0791  0.0555
77594W        W52582   7.801   7.747   4.080  0.0260  0.2012  0.0161
77595W        W52583  18.669  20.247  23.377  0.0990  0.1918 -0.0930
77596W        W52584  31.811  16.736  25.846  0.0766  0.3784 -0.0883
77597W        W52585  29.455  16.847  12.095  0.1343  0.1406  0.1000
77598W        W52586  25.505  34.581  20.130 -0.2260 -0.1262  0.0472
77599W        W52587  30.049  22.366  12.828 -0.0387  0.1840  0.0192
77600W        W52588  24.273   8.788   2.324  0.0762  0.3517  0.3404
77601W        W52589  16.659  28.822  26.059 -0.3038 -0.2830 -0.4281
77602W        W52590  20.219  13.045   9.500  0.0300  0.1370 -0.3502
77603W        W52591  27.518  18.717   7.845  0.2382  0.0619  0.0145
77604W        W52592  26.282   7.877   2.069 -0.2471 -0.1116 -0.1998
77605W        W52593  13.120   2.252   6.560 -0.0207 -0.0083  0.3475
77606W        W52594   2.889  25.710   1.446  0.1501 -0.1036  0.1987
77607W        W52595  34.138  19.881  16.876  0.1223  0.0008  0.0384
77608W        W52596  23.936  27.922  14.729 -0.1262 -0.1932 -0.2253
77609W        W52597  34.119  19.025  22.038  0.0663 -0.0565  0.2020
77610W        W52598  31.142  23.999  19.578 -0.1051  0.0067 -0.0872
77611W        W52599  20.502   0.265   6.583 -0.0117  0.0856  0.1742
77612W        W52600  35.144  16.781  21.420 -0.0008 -0.1734  0.0199
77613W        W52601   3.104  10.183   3.956 -0.0866 -0.0709  0.1055
77614W        W52602  27.384  13.595  24.371  0.0617  0.1216 -0.3009
77615W        W52603  31.159  15.327   8.443  0.0393  0.0924 -0.2162
77616W        W52604   7.715  20.534   3.744  0.1109 -0.0763  0.1320
77617W        W52605   9.071  27.603   8.488  0.0801 -0.1140 -0.1602
77618W        W52606  10.336  14.368   6.447 -0.0740 -0.0211  0.1471
77619W        W52607   8.862  12.423   7.581 -0.1116  0.1854  0.2045
77620W        W52608  25.004  35.115   5.464  0.0603 -0.1103 -0.0910
77621W        W52609  34.051  13.468  14.224  0.2157  0.4088  0.0677
77622W        W52610  15.497  21.400   6.062  0.0605  0.2991  0.0872
77623W        W52611   3.808  34.040   3.217 -0.0789 -0.0312  0.1820
77624W        W52612  19.339  32.453  18.977  0.0935 -0.1420 -0.0772
77625W        W52613   0.071  27.180  22.587  0.1521  0.2170  0.1886
77626W        W52614  17.164  17.285  23.415 -0.4857  0.2256  0.0751
77627W        W52615  27.229   3.572  23.213  0.1491  0.0364  0.2042
77628W        W52616   3.447  19.846  24.250 -0.0091  0.0349 -0.3499
77629W        W52617  28.682  10.069  14.258  0.1676  0.1387  0.1471
77630W        W52618  20.364  26.920   4.814  0.1916 -0.1451  0.0890
77631W        W52619  10.437   7.807   6.300 -0.2269  0.3137  0.1237
77632W        W52620  22.726  35.038  15.789 -0.1999  0.0997 -0.2394
77633W        W52621  28.658   1.715   3.290 -0.2004 -0.1222  0.1002
77634W        W52622   0.235   6.677  16.816  0.1358  0.0929  0.2293
77635W        W52623  10.594  11.778   5.354 -0.2700  0.2717 -0.2861
77636W        W52624  34.846   4.800   1.902  0.2067 -0.1495 -0.1574
77637W        W52625  34.299  26.691   1.948  0.1573  0.1861  0.0609
77638W        W52626   3.384   2.647  24.562 -0.1636  0.2883 -0.2400
77639W        W52627  24.305  30.391   4.226  0.1094  0.0612  0.1615
77640W        W52628   4.436   8.482   3.133  0.0189  0.1385 -0.0438
77641W        W52629  29.742   1.122  25.385 -0.1140 -0.1221 -0.0137
77642W        W52630  32.134   3.344   5.545  0.3887  0.0358  0.0586
77643W        W52631  12.524  24.093   1.492 -0.2508  0.1770  0.2120
77644W        W52632   8.716  34.571  15.881  0.2181  0.0652 -0.2198
77645W        W52633  20.574   0.911   8.328  0.0787  0.0118  0.0344
77646W        W52634  30.344  35.191  12.479  0.3698 -0.0371 -0.0693
77647W        W52635  33.494   1.702   7.036  0.1258 -0.1121 -0.1959
77648W        W52636  10.615   2.698  20.958  0.0394 -0.0553 -0.0451
77649W        W52637   1.166   9.808  17.953  0.0216  0.0571 -0.0670
77650W        W52638  32.825   9.552   2.496  0.1602  0.2359 -0.2997
77651W        W52639   0.998   5.943   2.660  0.0765  0.2385  0.4630
77652W        W52640   5.091   1.866  19.058 -0.1600 -0.1488 -0.0665
77653W        W52641  11.685   4.689  23.913 -0.2907  0.0637 -0.0248
77654W        W52642  16.376  22.881   9.943 -0.0808  0.2062  0.0770
77655W        W52643  28.210  17.126  21.011 -0.2517 -0.1808  0.6706
77656W        W52644   6.140  10.699  19.097 -0.0139  0.3113  0.0705
77657W        W52645  14.964  32.270   5.739 -0.2651 -0.3750  0.0250
77658W        W52646  15.036   2.438  11.858  0.0986  0.2108 -0.2628
77659W        W52647  24.207   2.207  20.987  0.3797  0.0287  0.0589
77660W        W52648  21.624  34.723  14.928  0.0124 -0.1413 -0.2778
77661W        W52649  26.882  17.133  17.186  0.0745 -0.2374  0.5721
77662W        W52650  34.171  32.169  20.822 -0.0149  0.1484 -0.1902
77663W        W52651   3.191   3.267  16.764  0.0377 -0.2747  0.1110
77664W        W52652  30.855  28.479  14.861  0.4244  0.3799 -0.3555
77665W        W52653  28.992  12.774   9.077 -0.2043  0.2356 -0.3254
77666W        W52654  29.977  22.040  13.605 -0.0334  0.4827 -0.0298
77667W        W52655   3.009   6.804  17.302 -0.2772  0.0941 -0.3304
77668W        W52656   8.720  21.394  14.364 -0.0790 -0.1296  0.4837
77669W        W52657  33.849  30.324  16.592 -0.0311 -0.1257  0.3455
77670W        W52658   4.015  32.693  22.222  0.0882 -0.0676  0.1192
77671W        W52659  15.127  24.250  13.670 -0.2143  0.2744 -0.1302
77672W        W52660  22.192  22.613  17.402 -0.3247  0.0051 -0.0604
77673W        W52661   5.159  32.691  18.946  0.0288 -0.1126  0.0178
77674W        W52662   6.963   3.778   9.131  0.2163 -0.0141  0.0244
77675W        W52663  15.284  27.845   8.461 -0.0129  0.1133  0.0273
77676W        W52664   8.505  17.940   1.804  0.2598  0.1615  0.0333
77677W        W52665  24.338  27.793  15.956  0.0285  0.0406  0.4250
77678W        W52666  26.673   8.449  22.038 -0.0789 -0.1474  0.1585
77679W        W52667  15.792  31.143  12.550  0.0704 -0.1290  0.0699
77680W        W52668   2.524  12.632  15.999  0.1341 -0.0306  0.0695
77681W        W52669  31.735  28.311  25.399  0.1676 -0.2222 -0.1665
77682W        W52670  16.760  12.755   4.200  0.1951  0.0070 -0.4772
77683W        W52671  14.861   2.612  18.714 -0.1899 -0.0099 -0.5049
77684W        W52672  20.053   9.700  21.362  0.0494  0.1966 -0.1728
77685W        W52673  15.976  20.935   4.156 -0.0016 -0.1344  0.4174
77686W        W52674  34.504  34.757   0.412 -0.0352 -0.0640 -0.3468
77687W        W52675  26.428   6.945  24.216  0.3181 -0.1738 -0.0078
77688W        W52676   2.584   4.657  24.290 -0.1301  0.3246  0.2560
77689W        W52677  13.965   9.730  24.539  0.3316 -0.0419 -0.1361
77690W        W52678   2.206  15.600  19.847 -0.0223 -0.0808 -0.3769
77691W        W52679  32.866  31.342   0.056  0.1502  0.0023 -0.5301
77692W        W52680  27.114   4.486  19.899 -0.3917  0.1307  0.2120
77693W        W52681   5.490  14.605  25.214 -0.1504 -0.5361 -0.1817
77694W        W52682  13.552  22.055   6.454 -0.2346  0.1132 -0.0720
77695W        W52683  33.847   0.270  16.422  0.0740 -0.0961 -0.3273
77696W        W52684  26.424   7.334  10.689  0.0564  0.0272  0.0420
77697W        W52685  12.262  28.266   4.648 -0.0740 -0.2685  0.2562
77698W        W52686  15.458   5.133  25.067 -0.0725 -0.0082  0.0190
77699W        W52687  25.441  17.345   8.894  0.0857  0.2780  0.2833
77700W        W52688  10.314  26.576  24.468  0.0228 -0.0110  0.0023
77701W        W52689  24.606  26.871  19.633  0.0041 -0.2185  0.0557
77702W        W52690  32.923   0.201  15.643 -0.1268  0.0264 -0.0350
77703W        W52691  25.405   5.286  25.463 -0.2302 -0.0436  0.0247
77704W        W52692  32.817   6.641  25.244  0.2346 -0.2935 -0.4420
77705W        W52693  32.035   9.968  18.487 -0.0142  0.1888 -0.3719
77706W        W52694  26.654  34.021  21.148  0.0871 -0.0545 -0.2386
77707W        W52695   1.447  27.685   2.536 -0.0736  0.0758  0.0132
77708W        W52696  27.309  12.583  22.014  0.1159 -0.0670  0.1085
77709W        W52697  17.182   6.910  10.763 -0.0293  0.0333  0.0554
77710W        W52698  17.716  16.945   2.811 -0.0401  0.0956 -0.0293
77711W        W52699   0.529  12.701   1.021  0.0806 -0.0459 -0.0740
77712W        W52700   0.375  18.328  24.881 -0.1252 -0.1340 -0.1335
77713W        W52701   0.272  10.436   1.709 -0.1126  0.2868  0.0600
77714W        W52702  10.972  10.792   7.879 -0.2405 -0.1325 -0.1151
77715W        W52703   1.631  15.355  11.387 -0.1159 -0.0862 -0.1531
77716W        W52704   9.711  10.536   4.039  0.0661 -0.1673 -0.2199
77717W        W52705  13.043   9.851   4.460  0.1564 -0.0381  0.2642
77718W        W52706  15.031  10.537   7.161  0.0039  0.0730 -0.1024
77719W        W52707  18.296  10.553  25.376 -0.1185 -0.1659  0.2626
77720W        W52708  27.359  24.910  16.464 -0.1980  0.0516  0.1297
77721W        W52709  17.445  19.524  20.536 -0.0442 -0.1853  0.3075
77722W        W52710   3.335   5.871  25.711 -0.1642 -0.0013  0.2686
77723W        W52711   8.717  13.020  12.285  0.2277 -0.2661 -0.0167
77724W        W52712  21.086  27.024   5.760 -0.2350  0.1908  0.0522
77725W        W52713  30.641  18.957  11.261  0.0127  0.0912 -0.0100
77726W        W52714  18.142  29.150  24.148  0.1647 -0.4420  0.1041
77727W        W52715  14.877  12.024  19.313  0.0618 -0.0887 -0.0534
77728W        W52716  32.721  33.718  12.176  0.1326  0.1598  0.1321
77729W        W52717  33.239  24.938  19.351  0.2492 -0.1883  0.2093
77730W        W52718  16.286  25.403  13.288  0.2244 -0.1173  0.1962
77731W        W52719  25.724  34.268   6.077  0.2097 -0.1360  0.2795
77732W        W52720  20.297  14.858   4.015 -0.1431 -0.3075  0.0432
77733W        W52721  23.624   0.809  13.870  0.1617  0.0364  0.2815
77734W        W52722  16.300  10.363  12.721 -0.2341 -0.0966  0.2506
77735W        W52723   0.278   9.124  12.539 -0.2712  0.1510  0.1123
77736W        W52724  12.006   3.639   8.781 -0.1781  0.2644 -0.1120
77737W        W52725   7.984  27.756   1.092 -0.1591  0.1513 -0.0791
77738W        W52726   7.886  17.536  23.412  0.1789  0.2406  0.2799
77739W        W52727  22.433  27.693   4.778 -0.0601  0.1129 -0.1378
77740W        W52728   5.091  35.266  24.288 -0.3427 -0.0859 -0.3954
77741W        W52729  16.302  22.725  23.403  0.0159  0.1357  0.1895
77742W        W52730  13.623  13.685   8.254 -0.2873  0.1653  0.0435
77743W        W52731  33.290  13.783  23.953 -0.0187  0.0901 -0.3192
77744W        W52732  16.229  30.273   3.333 -0.2042 -0.0635  0.1334
77745W        W52733  13.787  30.640  22.571  0.1954  0.1420  0.2909
77746W        W52734  29.123  33.752   4.199 -0.0896  0.0838 -0.1531
77747W        W52735  32.432  20.298   6.756  0.1861 -0.2858  0.2113
77748W        W52736  15.752  24.511   2.947  0.2528 -0.0849  0.1913
77749W        W52737   0.665  15.302  22.997 -0.1240 -0.1722 -0.1050
77750W        W52738  15.110  15.271  19.599  0.0032  0.1100  0.2015
77751W        W52739   7.152   1.649   1.784 -0.0832  0.0965 -0.2143
77752W        W52740  11.543  24.294   4.663 -0.4378  0.0202  0.0667
77753W        W52741   1.769  14.843  18.122 -0.0673  0.0602 -0.0169
77754W        W52742  31.735  19.010  24.730  0.2230  0.1059 -0.0179
77755W        W52743  21.002  32.078   2.516 -0.4003 -0.0494 -0.2456
77756W        W52744  17.364  33.899   3.811 -0.0241  0.2699 -0.1118
77757W        W52745   7.796  12.494  25.762 -0.1852 -0.0038 -0.0831
77758W        W52746  15.328   6.003  11.379  0.0918  0.0316  0.2075
77759W        W52747   8.970  17.273  22.626  0.0855  0.0988  0.0396
77760W        W52748  28.319  17.576  11.587  0.4010  0.0447  0.0456
77761W        W52749  26.263   5.468  18.685 -0.0748  0.2599  0.3084
77762W        W52750  25.636  22.753  12.724  0.4193  0.3157  0.1870
77763W        W52751   7.061   0.741  10.615  0.2685 -0.2210 -0.1271
77764W        W52752   1.571  11.299  22.805  0.0549  0.1706 -0.1683
77765W        W52753  31.352  24.785  18.936 -0.1636  0.1512  0.0143
77766W        W52754  30.660   0.207   1.183 -0.1392  0.0544  0.0045
77767W        W52755  30.836   6.367  12.069  0.1914  0.1101  0.1095
77768W        W52756   6.859   0.137   6.986 -0.0092 -0.3290 -0.2116
77769W        W52757  22.261  28.320  17.598 -0.2845 -0.0996 -0.3113
77770W        W52758  13.637  17.035  19.983 -0.3053  0.0124 -0.1334
77771W        W52759   7.654  11.285   6.415  0.0426  0.2902  0.1544
77772W        W52760  23.914   4.957  23.143  0.0776  0.1077 -0.2164
77773W        W52761  29.314   9.188  23.119  0.0296  0.0584  0.0983
77774W        W52762   0.972  33.847   3.877  0.0232  0.0225  0.2620
77775W        W52763  26.032  21.243  22.358 -0.1791 -0.4335 -0.2959
77776W        W52764  12.830  10.673   6.202 -0.2057 -0.1947 -0.0306
77777W        W52765   4.439   6.941   1.849  0.0044  0.1598 -0.1808
77778W        W52766  27.297  30.990   4.817 -0.0518  0.0527 -0.0081
77779W        W52767  12.223   4.520   9.878  0.3164 -0.0086  0.0685
77780W        W52768  24.577  28.997  20.438  0.0776 -0.2568 -0.0893
77781W        W52769   9.050  14.059   7.881  0.1083  0.2574 -0.0957
77782W        W52770   5.897  19.561  21.703  0.0050 -0.0305  0.2032
77783W        W52771  32.016  12.439  17.282  0.1014 -0.1305  0.0981
77784W        W52772  12.425  11.154   1.488 -0.2106 -0.1494 -0.1689
77785W        W52773  24.594   8.797  21.674  0.0778  0.0800  0.3669
77786W        W52774  20.571   1.824   4.211 -0.0676  0.1074  0.5746
77787W        W52775  31.831  27.458  23.765  0.0480 -0.1080 -0.1742
77788W        W52776  21.807  26.480  21.220 -0.1971  0.1822  0.0161
77789W        W52777  31.183  34.727  16.799 -0.2950  0.1853 -0.1837
77790W        W52778  27.029   1.062   3.703 -0.2248  0.2597  0.0307
77791W        W52779  32.497  13.388  13.747 -0.0859  0.1855 -0.1059
77792W        W52780   8.404  11.389  23.044 -0.1826 -0.1873  0.1109
77793W        W52781  15.917   2.025  25.981 -0.0739  0.0345 -0.3749
77794W        W52782  18.529  17.089  21.548  0.1969 -0.0072  0.3561
77795W        W52783  33.803  34.108  23.605 -0.0126 -0.1872  0.1186
77796W        W52784   7.553  28.237  10.653  0.2933  0.0576 -0.1631
77797W        W52785  30.545  16.114   6.566 -0.0994 -0.0917 -0.0365
77798W        W52786  34.120   6.171   2.898 -0.2767  0.2642  0.0228
77799W        W52787  11.817  19.060   0.369 -0.1361  0.0251 -0.0253
77800W        W52788   9.657   5.152   0.971  0.2191 -0.0261  0.0332
77801W        W52789  34.189  34.640   4.527 -0.3552 -0.3222  0.0038
77802W        W52790  24.281   5.928   4.422 -0.2900 -0.2711  0.2860
77803W        W52791  27.899  10.185   8.607 -0.0386 -0.0071 -0.1211
77804W        W52792  12.159  30.702   3.359 -0.0296  0.0272 -0.0300
77805W        W52793  13.831  13.102   5.865  0.1519  0.1902 -0.0132
77806W        W52794  22.657  11.945  19.959  0.1603  0.1907  0.1054
77807W        W52795  24.551  28.643   1.632 -0.2591 -0.2204  0.0706
77808W        W52796  30.277  11.975  17.014 -0.0078 -0.0908  0.1626
77809W        W52797  31.114  19.255  11.811 -0.0237  0.2050 -0.0503
77810W        W52798  15.158  20.727   1.521  0.0691 -0.0977  0.1137
77811W        W52799  33.542  31.405  13.542  0.0801 -0.0141 -0.0301
77812W        W52800  20.696  11.078  25.317 -0.0318  0.0620  0.1093
77813W        W52801   2.145  21.985  12.315  0.1283  0.3269 -0.0066
77814W        W52802   4.199  32.404  21.823 -0.1056 -0.0696  0.1486
77815W        W52803  29.525  11.415  19.576  0.1020 -0.0338  0.1158
77816W        W52804  21.217  26.147  24.457  0.0883  0.0236  0.0902
77817W        W52805  23.274   0.611   4.528 -0.1096 -0.0067  0.0286
77818W        W52806   3.985  31.577   6.417 -0.0085  0.1126  0.2520
77819W        W52807  18.744   0.984  25.595  0.1306  0.0078 -0.2494
77820W        W52808  34.422  25.206  19.448  0.0265  0.0527 -0.0378
77821W        W52809   2.063   9.536   2.871  0.2010  0.1171 -0.5272
77822W        W52810  20.887  26.891  21.416 -0.0448 -0.1602 -0.3661
77823W        W52811  14.737   7.309  18.550  0.1108 -0.0586 -0.0644
77824W        W52812  15.684   6.913  20.019 -0.2834  0.0037 -0.0172
77825W        W52813  23.120  32.092   1.613  0.2399 -0.2668  0.4765
77826W        W52814   8.716  34.122   3.709  0.1091  0.2680  0.1588
77827W        W52815  15.912  21.729   9.391 -0.2140  0.1227 -0.0588
77828W        W52816  19.130  28.485   5.536 -0.2201 -0.1249 -0.0574
77829W        W52817  27.953   3.543  12.265  0.1476  0.0556  0.0586
77830W        W52818  16.993  11.017   9.036  0.0097 -0.1349  0.0250
77831W        W52819  28.293  21.640  21.782  0.2205  0.0512 -0.2712
77832W        W52820  10.666  32.210  11.246 -0.1253 -0.0112  0.4479
77833W        W52821  13.074  27.047   9.327 -0.0088  0.2280  0.0958
77834W        W52822   6.022  27.213   5.446 -0.1162  0.1694  0.0186
77835W        W52823   9.393  29.675  12.270 -0.0300 -0.2808 -0.3604
77836W        W52824  31.395  22.047  11.241 -0.1370  0.1877 -0.0347
77837W        W52825   3.451   6.131   3.220  0.0282  0.1856 -0.1518
77838W        W52826  25.916  27.144   0.821 -0.1049  0.2069 -0.0737
77839W        W52827   8.386  33.370  10.951 -0.3574  0.0205  0.0934
77840W        W52828  10.696  32.508  15.843 -0.0625  0.1532 -0.1524
77841W        W52829  19.603  32.806  16.461 -0.2246 -0.0139 -0.2267
77842W        W52830  12.574   3.681  22.878 -0.1369 -0.1529  0.0496
77843W        W52831  24.317  24.428   3.612 -0.1452  0.1607  0.0573
77844W        W52832   0.058  19.337  18.021  0.0925 -0.4817  0.0705
77845W        W52833  19.986  32.938  23.787  0.1434 -0.2018 -0.1672
77846W        W52834  34.616  19.779  13.912  0.0654  0.0639 -0.2047
77847W        W52835  26.594  30.982  23.583 -0.0505 -0.1093 -0.1389
77848W        W52836   5.104   9.395  19.184 -0.2697  0.3373 -0.2154
77849W        W52837   4.267  15.638   2.444 -0.0969  0.2802 -0.0006
77850W        W52838  25.895   6.131  21.906  0.1310  0.0017 -0.0890
77851W        W52839  14.227   7.298  10.396 -0.1711  0.2715  0.1160
77852W        W52840   1.978  10.401   0.223 -0.2222 -0.2836  0.1350
77853W        W52841  25.514   7.837  14.487 -0.0291 -0.2062 -0.0271
77854W        W52842   3.297   5.413   1.443 -0.2332 -0.1381  0.1937
77855W        W52843  18.619  24.483   3.336  0.0058  0.1216 -0.1466
77856W        W52844   6.861  16.215  10.422  0.1438  0.0071  0.2662
77857W        W52845   4.113   4.795   1.602  0.0680  0.3971 -0.0477
77858W        W52846  14.909   0.510   1.376  0.2016  0.3037 -0.0600
77859W        W52847  31.846  15.774   9.078 -0.0428  0.0491  0.2438
77860W        W52848  17.427  21.122  22.674  0.2441  0.1337 -0.2348
77861W        W52849  24.913  23.406  11.369 -0.1358 -0.3792  0.0435
77862W        W52850   7.260  10.729  25.102  0.0671 -0.0237  0.1060
77863W        W52851  35.306   8.078   3.480  0.0631  0.0603  0.1743
77864W        W52852  29.255  13.932   8.819  0.0119  0.1226  0.0594
77865W        W52853   2.935   9.637  15.633  0.0226  0.0127  0.0411
77866W        W52854   5.234   9.005  22.516 -0.3365 -0.2171 -0.0097
77867W        W52855  32.445  19.250   8.664 -0.0713  0.2929 -0.1509
77868W        W52856  28.870  29.033  21.998  0.0929 -0.1255  0.1368
77869W        W52857   9.527  15.543  11.054 -0.2629  0.1938  0.2337
77870W        W52858   4.355  21.919  19.617  0.0968 -0.0848 -0.0424
77871W        W52859  10.814  34.308  23.906 -0.3899 -0.1482  0.4943
77872W        W52860   4.113  25.754  23.600  0.0314  0.1551 -0.0609
77873W        W52861  14.954  15.301  13.190  0.1476 -0.1411  0.1521
77874W        W52862  10.965  29.643   9.620  0.0573  0.1037 -0.0380
77875W        W52863  34.854   6.900   1.841 -0.1664 -0.1425  0.2553
77876W        W52864  17.079  23.918  25.496  0.0709  0.1771 -0.1622
77877W        W52865  34.816   7.689  13.892 -0.0481 -0.0956 -0.0382
77878W        W52866   9.588  10.749  20.363  0.0742 -0.0762 -0.0931
77879W        W52867  17.559   3.328  25.635  0.0859 -0.1376  0.1602
77880W        W52868  22.155   6.601  20.673  0.0652 -0.2162  0.1501
77881W        W52869  20.007  11.057   2.752 -0.0058 -0.1495  0.1036
77882W        W52870  30.847   4.756  10.736 -0.3904 -0.0654  0.2393
77883W        W52871  30.118  14.955  10.698  0.0632  0.1005 -0.1834
77884W        W52872   3.015  31.228   8.658 -0.1613  0.1370  0.1086
77885W        W52873  24.073   1.582  24.626  0.1434 -0.1418 -0.1373
77886W        W52874  24.252  22.190  22.221  0.0580 -0.1047 -0.0099
77887W        W52875  30.140  20.266  11.830  0.1485  0.0379  0.0873
77888W        W52876  12.638  32.580  13.640 -0.1533 -0.1476  0.1107
77889W        W52877  26.143   4.889  20.795  0.0471 -0.0582  0.0282
77890W        W52878  31.826  11.621  26.090 -0.2340 -0.0556  0.0024
77891W        W52879  11.650   0.278   8.747 -0.1795 -0.0323 -0.0073
77892W        W52880  18.035  33.308   4.282  0.1766  0.1125 -0.1440
77893W        W52881  17.147  22.980   2.650  0.1778 -0.0831  0.1284
77894W        W52882  16.844  10.417  21.739 -0.0512  0.0515  0.2073
77895W        W52883  19.052   7.673  21.298  0.2748 -0.1398  0.0739
77896W        W52884  16.894  17.060   8.258  0.0490  0.0301 -0.2165
77897W        W52885  11.129   8.173  22.876 -0.4201 -0.2749 -0.1641
77898W        W52886  19.394  34.906  23.024 -0.0037 -0.0973  0.2282
77899W        W52887  15.198  13.615  11.901 -0.0687  0.2778 -0.1909
77900W        W52888   0.462  22.507  18.836 -0.0294 -0.1678  0.2251
77901W        W52889  14.067   4.292  25.888  0.0884 -0.0822  0.2267
77902W        W52890   8.495  23.588   2.863  0.2876  0.1695 -0.3320
77903W        W52891  12.581  18.187  11.396 -0.0769 -0.2430 -0.2092
77904W        W52892  16.721  23.705   1.451  0.1970 -0.0255 -0.1146
77905W        W52893   6.641  16.565  17.360  0.0350  0.1552  0.1991
77906W        W52894  27.800  16.728  11.115 -0.0559 -0.0022  0.1272
77907W        W52895  33.864  19.391  22.599  0.0658 -0.0134  0.0512
77908W        W52896   7.890   7.725   8.745 -0.1029 -0.2438  0.0070
77909W        W52897   3.292   6.650   4.455 -0.2810  0.0694 -0.1701
77910W        W52898   7.201  25.507  13.681 -0.3919 -0.1349  0.2647
77911W        W52899  33.110   1.226   1.813  0.0447 -0.0618  0.0323
77912W        W52900  17.195   4.559   8.493  0.3142 -0.0795 -0.0778
77913W        W52901  20.644  22.588  22.674  0.0555  0.1797  0.2370
77914W        W52902  15.614  17.622   8.311 -0.2250 -0.2146 -0.0208
77915W        W52903   9.661  19.432   7.338 -0.0500  0.0448  0.1414
77916W        W52904   9.534  20.628  23.493  0.1732 -0.3383 -0.2648
77917W        W52905   4.767  24.901  25.806  0.0993 -0.0072  0.0000
77918W        W52906   4.443  22.463  25.680 -0.1226  0.3513 -0.0247
77919W        W52907  23.753  31.934  18.705  0.0552 -0.1299  0.2355
77920W        W52908  25.830  29.126  20.963 -0.1015  0.0095 -0.4340
77921W        W52909  32.680  19.075  22.711  0.0912 -0.0384  0.2154
77922W        W52910   8.426  27.357   2.919  0.3043 -0.3708 -0.0247
77923W        W52911  10.741  15.123   2.927 -0.0520 -0.0791  0.2702
77924W        W52912   1.069  24.268  21.864  0.1335 -0.2616 -0.2514
77925W        W52913  26.641  23.800   8.340  0.0999 -0.1150  0.1867
77926W        W52914  34.361  32.200   0.065 -0.2547 -0.2406  0.1043
77927W        W52915   4.066   2.266  17.981 -0.1051  0.2371 -0.2678
77928W        W52916  23.562  18.318  23.858  0.0171  0.2171 -0.2382
77929W        W52917   5.690   6.420   5.362 -0.3219 -0.3167 -0.0335
77930W        W52918  34.736  32.211  14.729  0.1709  0.1092  0.0570
77931W        W52919  28.767  16.336  17.988  0.1435  0.0266 -0.0547
77932W        W52920  30.215  21.843  22.604 -0.1443  0.0124 -0.0386
77933W        W52921  13.488   8.459  18.639 -0.2998 -0.1460  0.0441
77934W        W52922  25.663  24.259  11.785 -0.0262  0.0509 -0.1857
77935W        W52923  12.598  27.047  25.738 -0.2182 -0.3869 -0.1528
77936W        W52924  15.915   3.080  24.022  0.2151  0.1522 -0.2557
77937W        W52925   8.184   0.780  11.337 -0.2037 -0.0892 -0.0174
77938W        W52926  10.966   8.352  21.056 -0.1992  0.2117  0.0091
77939W        W52927  29.123  11.603   5.742 -0.0241  0.1529 -0.3079
77940W        W52928  12.261  34.838   6.393 -0.3287 -0.0375  0.1904
77941W        W52929  27.583  28.358  14.308 -0.0096  0.2380 -0.1403
77942W        W52930  28.166  19.352  16.657 -0.0716 -0.0638  0.5101
77943W        W52931  27.403  21.484  13.335  0.1743 -0.2261  0.2167
77944W        W52932  22.911   8.576   2.485 -0.1333  0.0593  0.2035
77945W        W52933  10.485  24.682   5.670 -0.0664 -0.3303  0.0476
77946W        W52934  29.354  34.188  13.951 -0.2588 -0.0126 -0.0296
77947W        W52935  29.104   8.533  23.830 -0.1026  0.3625  0.0563
77948W        W52936  33.543   0.602   2.730 -0.1404  0.1720 -0.0689
77949W        W52937  28.075  21.070   5.213  0.0367  0.0218  0.1263
77950W        W52938   0.799  18.548  10.483 -0.0981  0.1430  0.1444
77951W        W52939   7.114   2.195  21.952  0.0513 -0.1789 -0.0835
77952W        W52940  34.171  18.006  26.016 -0.5115  0.0013  0.2053
77953W        W52941  24.382  10.241  17.300 -0.3027 -0.0688 -0.1659
77954W        W52942  14.406  25.537  14.745 -0.2276  0.3128 -0.0889
77955W        W52943  29.086   8.307  16.993  0.0913 -0.1189  0.0643
77956W        W52944   7.526  30.669  11.544  0.0674 -0.4391  0.0160
77957W        W52945  16.003  15.646  23.863 -0.1320 -0.0008  0.3826
77958W        W52946   4.517  14.855  22.180  0.1902 -0.1989 -0.0951
77959W        W52947  30.535   7.027  24.346 -0.1733  0.2169  0.3263
77960W        W52948  12.220  31.666   2.815  0.1568 -0.1534 -0.2402
77961W        W52949  24.599  16.385  17.611  0.0614 -0.1351 -0.2027
77962W        W52950   1.243   5.973   6.777 -0.1765  0.0275 -0.0426
77963W        W52951  32.025  31.857  18.687 -0.0492 -0.0043  0.0189
77964W        W52952   8.457   7.620   5.199  0.1197  0.1836 -0.0027
77965W        W52953  14.174   7.242  11.262 -0.0166 -0.0006  0.1280
77966W        W52954  31.856  27.213  22.447  0.0783 -0.1746 -0.1591
77967W        W52955   0.657  26.767  21.395 -0.1513  0.1146  0.2792
77968W        W52956  29.934  29.799  25.763  0.1113  0.1731 -0.1242
77969W        W52957  14.733   0.079  23.075  0.5883 -0.0477  0.0997
77970W        W52958  14.796  10.678   9.279  0.0293 -0.0823  0.3364
77971W        W52959  28.451  23.187  16.971 -0.2149 -0.1432 -0.4646
77972W        W52960   8.002  15.708   7.805 -0.1382 -0.1140  0.2100
77973W        W52961  23.515   5.741   2.454  0.0965  0.2795 -0.2277
77974W        W52962  11.208  30.358  14.642 -0.4007 -0.3194 -0.1128
77975W        W52963  15.644  34.400   0.875 -0.4442  0.0396  0.0903
77976W        W52964   5.005  19.042  25.241  0.0928 -0.1618 -0.0134
77977W        W52965   4.392   6.205   6.041  0.1609 -0.0303  0.0927
77978W        W52966  29.756  25.795  21.121  0.1002 -0.1158 -0.1839
77979W        W52967   2.984   0.277  24.337  0.0307  0.2299  0.0562
77980W        W52968  13.287  29.569   7.787  0.1755  0.1489 -0.3190
77981W        W52969  11.077   8.853  23.378 -0.1653 -0.1751  0.0236
77982W        W52970   4.120   4.490  20.948  0.2098 -0.0179  0.3037
77983W        W52971  32.021  22.491  14.781  0.1701  0.1037  0.1908
77984W        W52972   0.148  16.467  10.572 -0.3359 -0.1704 -0.0356
77985W        W52973  32.394  10.681  18.469  0.1242  0.0302 -0.2311
77986W        W52974  23.222  17.784  17.055  0.0825  0.0230 -0.1297
77987W        W52975  13.590  31.834  22.723 -0.0747 -0.0018 -0.0657
77988W        W52976  18.239  13.500   0.564 -0.1584 -0.0424  0.0310
77989W        W52977  33.189  10.399   7.643  0.2635  0.0475  0.1164
77990W        W52978  29.492  26.198  22.887 -0.4183  0.1396 -0.3732
77991W        W52979  16.107  13.594   2.319 -0.0351  0.0344 -0.0434
77992W        W52980  18.689   4.488  18.045  0.0461 -0.1178  0.0204
77993W        W52981  17.951  22.335   1.820 -0.0369  0.2691 -0.1865
77994W        W52982   2.796  27.761   2.766 -0.3270 -0.1994 -0.2590
77995W        W52983  27.020  23.622   8.711 -0.2083  0.3613 -0.4233
77996W        W52984  11.445   6.977   4.983  0.0639  0.0849 -0.2200
77997W        W52985  10.491  17.220  22.755  0.0184 -0.1918  0.2354
77998W        W52986   3.775   7.783   0.394 -0.0407 -0.0446 -0.1745
77999W        W52987  20.269  29.177   5.162 -0.3924 -0.1033 -0.0182
78000W        W52988   3.672  28.459  10.808 -0.0669  0.0655  0.0134
78001W        W52989   8.220  28.859  14.904 -0.2003 -0.1807 -0.2042
78002W        W52990  32.660  28.957   4.419  0.0141 -0.0468 -0.2328
78003W        W52991  15.728  25.676  15.386  0.4076  0.1020  0.0983
78004W        W52992   3.608  19.497  18.620  0.0936 -0.1343 -0.0471
78005W        W52993  16.897   8.064  24.552 -0.2058  0.0260  0.0049
78006W        W52994   2.048  17.153   2.216 -0.2607 -0.2812 -0.1586
78007W        W52995   0.648   3.219   3.078 -0.2562 -0.0683 -0.2063
78008W        W52996   0.801  13.585  19.845  0.1791 -0.1248 -0.0800
78009W        W52997  23.746  23.569   2.645 -0.0916  0.3464 -0.2629
78010W        W52998   1.862  34.166   1.371  0.1328  0.1882 -0.0178
78011W        W52999  15.723  26.929   5.895  0.1921  0.1875 -0.1476
78012W        W53000  30.445  26.263  11.351 -0.0994  0.0914 -0.0296
78013W        W53001  34.281   8.401  13.442  0.1747 -0.1414  0.1009
78014W        W53002  23.523  12.896  17.683  0.1128 -0.2420  0.0177
78015W        W53003  11.297  29.095   3.655 -0.0142 -0.1688 -0.0407
78016W        W53004   3.813   9.419  21.999  0.2667  0.1595  0.0033
78017W        W53005   5.302   7.465   8.212 -0.2022 -0.0526 -0.2519
78018W        W53006  18.675  14.523  17.448  0.0610 -0.0121 -0.0476
78019W        W53007  17.029  29.365   9.513 -0.2180  0.0031  0.0591
78020W        W53008  17.615  22.866  25.954  0.0863 -0.2536  0.0589
78021W        W53009  28.180  14.891  20.142 -0.1822 -0.1432 -0.0753
78022W        W53010   4.885  19.133  18.959  0.1225 -0.3709  0.1362
78023W        W53011  25.675   6.904  24.736 -0.1687  0.0376 -0.0237
78024W        W53012  16.981  34.677   9.147  0.0595 -0.2722  0.2008
78025W        W53013  31.469  12.811  22.481  0.1531 -0.2272  0.0540
78026W        W53014  30.543   9.719  22.437 -0.3945  0.1617  0.0436
78027W        W53015   1.717  21.270   3.214 -0.0234  0.1974 -0.2577
78028W        W53016  33.390  34.487  26.014  0.0666 -0.1935 -0.1847
78029W        W53017  15.636  19.823   7.753 -0.1242  0.2247  0.5531
78030W        W53018  21.093  22.445  15.911  0.1387 -0.0309  0.2153
78031W        W53019   1.969  28.918   3.832  0.0149  0.1540 -0.0938
78032W        W53020  15.823   3.220   0.147 -0.0098  0.2446 -0.1301
78033W        W53021  23.582   2.162   3.054  0.0666  0.0250  0.0236
78034W        W53022  26.539  32.388  14.019 -0.2750  0.0103  0.1325
78035W        W53023  10.356  11.020   1.559  0.0205  0.3404 -0.1946
78036W        W53024  29.913  16.903  12.549 -0.0983  0.1645  0.1126
78037W        W53025  11.626   1.242  14.182 -0.0425 -0.0510 -0.4018
78038W        W53026  25.913  31.107   2.843  0.2580 -0.1449 -0.0205
78039W        W53027   8.643  14.981  17.764 -0.0346  0.0027  0.0011
78040W        W53028  23.054  12.441  20.505 -0.0754 -0.3119  0.0465
78041W        W53029  25.946  28.892  22.290  0.0504 -0.3300 -0.0514
78042W        W53030  34.278   5.285   4.987  0.0248 -0.2127 -0.0110
78043W        W53031  25.403  25.104  19.556 -0.1444 -0.0160 -0.0990
78044W        W53032  34.343  33.808   5.286  0.1499  0.2140 -0.2399
78045W        W53033  23.758  24.197  26.159  0.2052 -0.1362  0.1078
78046W        W53034  21.775  20.641   0.091  0.1828 -0.0646  0.0569
78047W        W53035  21.126   0.296  18.745  0.2315 -0.3434  0.0533
78048W        W53036  25.512   7.873  20.418 -0.0383 -0.3548  0.1721
78049W        W53037  10.384  18.928   1.903  0.2118  0.0975 -0.0612
78050W        W53038  27.537  26.417  12.747  0.2474 -0.3421  0.1705
78051W        W53039  23.202   7.075   2.252  0.4304  0.1805  0.0070
78052W        W53040  11.291  31.965   1.772  0.1270  0.0816  0.0599
78053W        W53041  17.462  34.890   6.503 -0.0195 -0.2203  0.0754
78054W        W53042  32.905  28.965   5.182 -0.3348 -0.1295  0.2180
78055W        W53043  12.727   8.174  12.142 -0.1797 -0.2023  0.0225
78056W        W53044   1.969  34.327  25.086  0.1481  0.0315  0.0021
78057W        W53045  34.255  16.927  14.167 -0.2010 -0.0581 -0.0719
78058W        W53046   5.356  29.228  15.025  0.1388  0.0166  0.1745
78059W        W53047   2.818  21.764  25.209  0.2292  0.0349 -0.1198
78060W        W53048   5.275   5.546   3.199  0.0353 -0.1800  0.0175
78061W        W53049   0.890   3.356  21.484  0.3043 -0.1242  0.2859
78062W        W53050   4.847  17.347  23.927  0.3451 -0.0818 -0.0173
78063W        W53051  17.385  25.416   9.224  0.1637  0.3033 -0.2444
78064W        W53052  20.850  31.507  14.395  0.0027 -0.0892  0.1678
78065W        W53053  17.784  29.018   8.356  0.0741 -0.2192  0.0195
78066W        W53054   0.244  27.765   3.215 -0.0407  0.1931  0.0290
78067W        W53055  16.509   5.512   3.117 -0.3908  0.0723  0.0480
78068W        W53056   4.945  22.871  18.400  0.4049 -0.0572 -0.0498
78069W        W53057   0.101  35.129  16.870  0.0847 -0.0733  0.1986
78070W        W53058  12.215  19.809   3.529 -0.2029 -0.0444  0.2859
78071W        W53059  26.924  22.592  10.770 -0.1824 -0.0026  0.2046
78072W        W53060   7.515  34.495   9.764 -0.0371 -0.2440 -0.0150
78073W        W53061  15.601   5.125   4.188 -0.0387 -0.1090 -0.3727
78074W        W53062  23.398  29.510   0.833  0.1634  0.3082 -0.0045
78075W        W53063  13.512  30.238  12.490  0.0768  0.0103  0.0161
78076W        W53064  26.736   0.567  24.062  0.2990  0.0201 -0.1631
78077W        W53065  17.143  18.362  20.305 -0.1557  0.1146  0.0513
78078W        W53066  31.111  20.983  10.529 -0.2746 -0.1842  0.2133
78079W        W53067   3.158  20.401   2.366 -0.1107 -0.3157 -0.0083
78080W        W53068  13.218  25.009   0.782  0.1643  0.0699  0.1658
78081W        W53069   2.495  24.362  24.661 -0.0432 -0.2591  0.1722
78082W        W53070  13.639  17.946  22.620 -0.2774  0.2530 -0.0146
78083W        W53071  11.410   6.347   6.075 -0.0091  0.2834 -0.2675
78084W        W53072  15.556  27.121   1.628 -0.0642 -0.2866 -0.2180
78085W        W53073   9.399   3.723  21.911 -0.2617 -0.1394  0.1829
78086W        W53074  28.488   3.425  25.212 -0.1016  0.1341  0.0331
78087W        W53075  33.499  33.527   0.033 -0.3374  0.0201 -0.1183
78088W        W53076  17.506   2.295   7.678  0.1870 -0.0171 -0.0036
78089W        W53077   3.367  17.350  20.080 -0.4723  0.2592  0.4479
78090W        W53078   9.677   3.231  25.124  0.3045  0.0033 -0.1508
78091W        W53079   2.554   1.821   2.669  0.2609  0.3130 -0.0838
78092W        W53080  10.831  14.001   3.573  0.0798  0.1035 -0.0310
78093W        W53081   7.433  34.075   9.010 -0.1611 -0.1973 -0.0104
78094W        W53082   9.721  35.011  22.109  0.0578  0.0338  0.1265
78095W        W53083  13.049  20.181   6.890  0.2081  0.1840  0.1272
78096W        W53084  23.190  11.434   0.503 -0.0846 -0.0454 -0.0152
78097W        W53085  19.243  19.239  24.425 -0.0843 -0.0208  0.0476
78098W        W53086   2.377  22.782  24.903 -0.1831  0.0857 -0.0666
78099W        W53087  14.356   5.699  23.470 -0.3900 -0.1265  0.0405
78100W        W53088  33.011  34.541  19.646  0.2430  0.0246  0.0979
78101W        W53089   1.877  15.530  25.582 -0.0072  0.0368 -0.0173
78102W        W53090  15.950   4.191   2.534  0.3541 -0.1774  0.2492
78103W        W53091  27.059  23.600  25.775  0.3914  0.1872  0.0760
78104W        W53092  31.408  28.964  21.757  0.0416  0.0247 -0.1262
78105W        W53093  10.353  13.330  20.363  0.3040  0.0432 -0.3136
78106W        W53094  14.164  25.571  23.968 -0.0524 -0.0559 -0.1380
78107W        W53095  23.194  30.640  15.813  0.0398  0.2060  0.1689
78108W        W53096  14.303   9.204  24.625 -0.1000  0.3423  0.1078
78109W        W53097  32.694  10.344  25.400 -0.2087 -0.1544 -0.0859
78110W        W53098   2.881   7.570  16.583  0.1521  0.0919 -0.1847
78111W        W53099  25.682   2.038  25.543 -0.1616  0.0402 -0.0818
78112W        W53100   0.383  30.648  26.246 -0.1880  0.1371  0.1344
78113W        W53101  29.905  17.355  17.399 -0.3095  0.2417 -0.0683
78114W        W53102  20.555  23.246  18.447 -0.2257 -0.0329  0.0509
78115W        W53103  19.569  21.615   4.311 -0.2474  0.2108 -0.2592
78116W        W53104  27.951  32.619  12.842 -0.2061 -0.0789 -0.0690
78117W        W53105  25.355  13.777  20.515  0.0657 -0.0823  0.0197
78118W        W53106   6.181  23.931   9.855  0.1690  0.1447  0.0962
78119W        W53107  10.165  10.176  21.152  0.1308  0.1742 -0.1489
78120W        W53108   8.044  16.808  10.565  0.3161 -0.2392  0.0450
78121W        W53109  25.860  34.644  14.239  0.2179 -0.2378 -0.0456
78122W        W53110  12.257  20.005  11.045 -0.1802 -0.1515  0.1805
78123W        W53111  29.911  20.162   8.837  0.1927  0.0962  0.0915
78124W        W53112  13.553   1.393   1.227 -0.1055  0.1086  0.0899
78125W        W53113  35.112   5.268  22.036 -0.0132 -0.2666  0.3560
78126W        W53114   6.445  21.112   8.032  0.0058  0.2289 -0.0554
78127W        W53115  28.988  10.691  17.713  0.1010  0.4224  0.4093
78128W        W53116  11.612  25.829   6.496  0.0560  0.0869 -0.4568
78129W        W53117  35.002   2.604  20.945 -0.0737  0.1920  0.2273
78130W        W53118   5.420  19.762  19.554  0.1496 -0.0897 -0.2651
78131W        W53119  17.779  23.399   3.634 -0.1791 -0.2694 -0.4102
78132W        W53120   8.746  19.743  11.416  0.1358 -0.2603  0.1673
78133W        W53121  12.572  10.973   0.204 -0.1306  0.4538  0.4650
78134W        W53122  28.490   9.805  20.173  0.0058 -0.1809  0.1607
78135W        W53123  19.632   4.985  20.671  0.1642  0.0494  0.2610
78136W        W53124   8.422  30.929  15.816 -0.0566  0.0063  0.1066
78137W        W53125  16.394   2.013  22.377 -0.0961  0.2026  0.1302
78138W        W53126  18.219  15.834  18.530  0.1255 -0.0518  0.1422
78139W        W53127   3.787  31.368  11.149  0.0733 -0.1791  0.1522
78140W        W53128  13.610   2.213   7.804 -0.2283 -0.2490 -0.3452
78141W        W53129  18.124  16.696   0.965 -0.1425  0.2965 -0.0411
78142W        W53130  17.117  26.005  13.180  0.0274  0.0503  0.1070
78143W        W53131  16.736  30.574   2.643 -0.1298 -0.0183 -0.0879
78144W        W53132  30.894  33.311  12.630 -0.0250  0.2107 -0.1057
78145W        W53133  29.261  25.715  16.297 -0.0040  0.0548 -0.2381
78146W        W53134  28.712  13.627  15.553  0.1123 -0.0336  0.1370
78147W        W53135  31.181  31.029   2.369  0.0970  0.2674 -0.1279
78148W        W53136  20.393  28.354  17.400 -0.0815 -0.2611  0.0025
78149W        W53137  32.475  33.753  24.002  0.2921 -0.0205  0.1430
78150W        W53138   2.674  19.747  19.707  0.0825 -0.1029 -0.2011
78151W        W53139  27.479  25.935  16.754 -0.0362  0.0424  0.0642
78152W        W53140  16.843  35.243   5.102 -0.5195 -0.0474  0.0478
78153W        W53141   4.442  26.415  21.288 -0.0520  0.0617  0.1418
78154W        W53142  33.080  11.935  18.693 -0.1311 -0.0350  0.2226
78155W        W53143  34.398  19.358  10.847  0.1956  0.3709  0.2026
78156W        W53144  25.211   3.072   5.063 -0.2128 -0.0897 -0.3269
78157W        W53145   8.208   7.098   8.281 -0.0347  0.3389  0.1217
78158W        W53146  15.522  30.176   7.247  0.0184 -0.2185 -0.2025
78159W        W53147   4.865  29.192  25.922 -0.1292  0.1561  0.0719
78160W        W53148  26.823  31.632   0.940 -0.1871 -0.0310 -0.1783
78161W        W53149  26.557   5.153  13.234  0.1002 -0.2260 -0.1538
78162W        W53150  31.617  18.698  20.537 -0.1930 -0.0121  0.0317
78163W        W53151  17.237   2.432   1.231  0.1180 -0.0976  0.3832
78164W        W53152  26.033  33.591   1.633 -0.2309  0.0850 -0.1414
78165W        W53153  21.610   4.196  24.416  0.0980 -0.2686  0.1674
78166W        W53154   2.015   4.832   8.121 -0.0118  0.1986 -0.0473
78167W        W53155  20.938  27.803  20.917 -0.3982  0.0760  0.1025
78168W        W53156  11.221   3.302   9.063 -0.3799  0.2812  0.2695
78169W        W53157   7.894  14.335   8.301  0.2552  0.3380  0.1349
78170W        W53158  27.626  29.917   5.725 -0.0973 -0.0904 -0.0300
78171W        W53159  16.552  19.199  20.387  0.2482  0.2852  0.0631
78172W        W53160  27.054  23.075  21.075 -0.1232 -0.1503 -0.3623
78173W        W53161   2.652   8.412  17.861 -0.0453  0.0485  0.1227
78174W        W53162  25.325  16.818  22.974  0.0729  0.1673 -0.1280
78175W        W53163  12.179  15.805   3.424 -0.2789  0.2371  0.0289
78176W        W53164  26.639   7.029   0.242 -0.1214 -0.1694 -0.0675
78177W        W53165  18.480  12.479   2.025 -0.2946  0.3690  0.1113
78178W        W53166  16.668  28.574   5.875  0.2520 -0.1705  0.1259
78179W        W53167  17.345  10.190  10.614 -0.2957 -0.1242  0.0523
78180W        W53168  11.139  10.470   7.217  0.2260 -0.0048 -0.0859
78181W        W53169  13.403   3.306   9.695  0.0007 -0.1232  0.1417
78182W        W53170   0.755  23.414  26.183 -0.2098 -0.1949  0.3589
78183W        W53171   9.697  15.986   0.901 -0.2148  0.1146  0.0960
78184W        W53172   8.376  13.351  12.096 -0.2870  0.1550  0.0285
78185W        W53173  11.687   4.388  12.470  0.2970 -0.4066 -0.0331
78186W        W53174  13.623   4.679  12.831 -0.1933 -0.1380  0.0388
78187W        W53175  33.424  26.061   1.383  0.3469  0.2047 -0.1507
78188W        W53176   2.693   4.674   7.619 -0.1457  0.1474  0.0806
78189W        W53177  22.282  15.082  21.174 -0.1496  0.2866 -0.3367
78190W        W53178  22.166  29.788  12.997  0.1401 -0.2355 -0.1684
78191W        W53179  16.986  24.199   0.529  0.0977 -0.1835 -0.2276
78192W        W53180  29.641   7.129   0.813 -0.0731 -0.0723  0.0469
78193W        W53181  19.757  10.898   6.726  0.1514 -0.0268 -0.0169
78194W        W53182   7.722  22.306   2.572  0.0367  0.1876  0.1495
78195W        W53183  19.787  24.500   2.858  0.0422 -0.2873 -0.2303
78196W        W53184   8.553  34.124   0.793 -0.0603 -0.0472 -0.2698
78197W        W53185   8.866  22.262  11.130  0.0551  0.0364 -0.1425
78198W        W53186  18.112  22.948   4.691  0.1731  0.0379 -0.1666
78199W        W53187  13.396  32.149  13.035 -0.0153  0.0582  0.3183
78200W        W53188   2.715  27.868   0.579 -0.2384 -0.1766  0.2406
78201W        W53189  33.844  22.715  25.041 -0.0993  0.1913 -0.1724
78202W        W53190  31.797   4.697   1.399  0.0237  0.0962  0.3101
78203W        W53191   1.432  34.661   8.229 -0.3009 -0.0812  0.0913
78204W        W53192   1.496  13.524  11.352 -0.2868 -0.1557  0.3118
78205W        W53193  20.955  32.068   1.314  0.0367  0.0110 -0.2697
78206W        W53194   9.488  32.761  15.858 -0.1796 -0.1677 -0.1231
78207W        W53195   5.490  26.567  10.992 -0.2977 -0.0121 -0.0065
78208W        W53196  14.674  18.733  22.483 -0.0870  0.0179  0.0929
78209W        W53197  20.017  34.867   2.269  0.0781  0.0526 -0.0755
78210W        W53198  24.681  26.826  10.607 -0.0161  0.2738 -0.1724
78211W        W53199   5.346   0.527  25.517 -0.0764  0.0448 -0.2613
78212W        W53200  21.504  29.998   2.041 -0.0077 -0.0429 -0.0626
78213W        W53201   9.289  18.533  24.472  0.1142 -0.0650 -0.1020
78214W        W53202  26.625  25.839  17.057 -0.2999  0.3059  0.1484
78215W        W53203  32.330  27.235  16.828 -0.2947 -0.0126  0.1013
78216W        W53204  10.990   5.468   9.172 -0.0644  0.0664  0.0594
78217W        W53205  15.076  10.335  23.435 -0.1234 -0.0011  0.0416
78218W        W53206   6.728   3.637  22.564 -0.0798 -0.0446 -0.2133
78219W        W53207  11.101   1.726   9.810 -0.2339  0.0564  0.1847
78220W        W53208  28.071  19.982  13.797  0.0880  0.2321 -0.0589
78221W        W53209  16.561  18.884  10.389  0.0961  0.0061  0.1637
78222W        W53210  23.194  25.234  23.351  0.2777 -0.1385 -0.2862
78223W        W53211   0.986  34.211  19.434 -0.0262  0.3416 -0.1229
78224W        W53212  26.644  10.885  14.759  0.0990 -0.1033  0.0245
78225W        W53213  22.999  12.137  19.703 -0.2904  0.0532 -0.3529
78226W        W53214  33.791  24.303  26.039 -0.3405  0.0254  0.0483
78227W        W53215  34.250  33.521   4.829  0.0055 -0.0801 -0.0751
78228W        W53216  11.792   6.563  22.249  0.4005  0.0047  0.2673
78229W        W53217  28.957  18.997  20.731 -0.4230 -0.0386  0.1521
78230W        W53218   6.312  29.297  25.477  0.2123 -0.2471  0.0806
78231W        W53219  20.770  21.707  22.807 -0.0240  0.0900 -0.0891
78232W        W53220  29.084   1.795  14.984  0.2668 -0.3535 -0.0499
78233W        W53221   8.145  31.023   1.545  0.0130  0.0310 -0.0553
78234W        W53222   2.029   1.633   0.174 -0.0398  0.1167  0.0661
78235W        W53223   2.946  17.068  15.070 -0.2241 -0.1009  0.0330
78236W        W53224  14.930  32.971  21.678 -0.0584  0.0230  0.2434
78237W        W53225   7.804  26.963  11.194 -0.2178  0.3680  0.1849
78238W        W53226  32.942  35.354  18.014  0.0171  0.0544 -0.1420
78239W        W53227   4.148  11.832  17.377  0.0505 -0.0479 -0.1093
78240W        W53228   6.258  17.577  25.743  0.1001 -0.0822 -0.1103
78241W        W53229   9.308   7.422  12.744  0.2098 -0.2973 -0.2058
78242W        W53230  13.975   3.757  11.499 -0.1870  0.5088 -0.2176
78243W        W53231   5.495  15.712  18.679 -0.1785 -0.2292  0.1705
78244W        W53232   9.972  27.988  14.518 -0.0400  0.0416 -0.3344
78245W        W53233   5.890  27.077   9.242  0.2428  0.3450 -0.1335
78246W        W53234  23.645  33.131  19.235 -0.1915  0.1517 -0.0709
78247W        W53235  19.240   8.700   3.557 -0.0252  0.3088  0.0161
78248W        W53236  29.340  27.601  11.872  0.0929  0.0811  0.1442
78249W        W53237   7.845  18.502  11.785  0.0593  0.0889 -0.2101
78250W        W53238  13.095  32.982   7.740  0.1631  0.1265 -0.0725
78251W        W53239   4.632  11.754   7.329  0.0946  0.2246  0.0638
78252W        W53240   6.183  21.829   3.047 -0.0315 -0.0956  0.2364
78253W        W53241  29.004  22.530  22.719  0.2424  0.2443  0.0978
78254W        W53242  13.733  15.813  20.923 -0.0779 -0.1201  0.0185
78255W        W53243  25.061  32.892  16.929 -0.3054 -0.1407  0.0301
78256W        W53244  10.739   0.282  12.162 -0.2211 -0.0138 -0.1525
78257W        W53245   0.863  16.672  11.088 -0.2660  0.0919 -0.2702
78258W        W53246  15.197  26.247  14.609  0.1678 -0.0554  0.0177
78259W        W53247  28.175   3.172  17.007 -0.3461 -0.1380  0.1905
78260W        W53248   8.994  29.647  23.965  0.1499  0.1116  0.0540
78261W        W53249  21.433   8.030  20.224  0.0967  0.0409 -0.1162
78262W        W53250   9.872  16.297  12.838  0.0742  0.0277  0.0174
78263W        W53251  32.957  24.233  11.818  0.3423 -0.2408 -0.4445
78264W        W53252   7.630  14.969  11.899 -0.0156 -0.1933  0.0221
78265W        W53253  21.438  19.965   1.434  0.0548  0.0049  0.4906
78266W        W53254  24.122  32.895  23.580 -0.0181 -0.0678  0.1320
78267W        W53255  24.479  28.997  25.828  0.0097 -0.0453 -0.1167
78268W        W53256   2.109  15.725  15.581 -0.4514  0.0323  0.2397
78269W        W53257  23.537   9.546  16.806 -0.0117 -0.1055  0.0726
78270W        W53258   8.276  10.339  24.865  0.5379  0.0009  0.3160
78271W        W53259  16.349  24.436   9.155  0.1536 -0.2661  0.1185
78272W        W53260  25.692  28.777   1.309  0.3471 -0.1593 -0.3182
78273W        W53261  11.536  26.158   5.418 -0.0752 -0.0697 -0.3163
78274W        W53262   5.313   4.763  22.248  0.2269 -0.1348  0.1716
78275W        W53263  10.750  18.113   0.878 -0.2386 -0.1867 -0.0629
78276W        W53264  26.000  16.070  23.015  0.0546 -0.0183  0.3434
78277W        W53265   3.793  21.385  24.288 -0.3015  0.1430  0.3315
78278W        W53266  26.986   5.422  17.973  0.1793  0.4545 -0.1355
78279W        W53267  27.627  34.282   2.514 -0.1822  0.0144  0.0342
78280W        W53268  16.943  19.325  11.382  0.3124 -0.2360  0.1325
78281W        W53269  31.645  22.097  12.226  0.0940 -0.4206 -0.1971
78282W        W53270   2.423  16.218  22.083  0.0881  0.0643 -0.1044
78283W        W53271  15.266  23.185  25.126 -0.0078 -0.2500 -0.2175
78284W        W53272   5.326  14.157  20.684 -0.0355 -0.0141 -0.0251
78285W        W53273  22.939  13.515  20.853  0.0780 -0.2442  0.2115
78286W        W53274  26.201   2.605   6.234 -0.0149 -0.1133 -0.1338
78287W        W53275  14.854   7.333  22.717  0.0461  0.0760 -0.1848
78288W        W53276  24.283  26.411   4.114  0.0621  0.0661  0.2944
78289W        W53277  20.670   5.380   2.334 -0.1596  0.3678  0.2134
78290W        W53278   4.132  28.837  26.138 -0.4049 -0.1818 -0.0633
78291W        W53279  13.891   5.837  23.796 -0.1686 -0.0309  0.4540
78292W        W53280  34.568  25.238   1.979  0.1611 -0.1030 -0.1111
78293W        W53281   0.849   6.231  24.249 -0.0037 -0.1288  0.1169
78294W        W53282   4.510  13.524  24.647  0.2229  0.0956 -0.0638
78295W        W53283   7.201  10.453   8.582  0.1372 -0.0165  0.0904
78296W        W53284  30.531   5.684   4.303  0.0741  0.0087  0.0724
78297W        W53285  23.865   1.160   6.975  0.1794 -0.2000  0.1727
78298W        W53286   1.764  34.751  16.381  0.1070 -0.1339 -0.3184
78299W        W53287   1.817  23.843  23.396  0.1873  0.2295  0.3780
78300W        W53288  25.205   6.365  12.787  0.2086 -0.1313 -0.0203
78301W        W53289  14.032   4.772   4.324 -0.0723 -0.2775 -0.1241
78302W        W53290  18.561  25.438   0.519  0.0511 -0.1614 -0.0553
78303W        W53291  12.993   5.083   1.110 -0.0383  0.1826  0.0002
78304W        W53292  32.689   5.077   1.013 -0.1441  0.1049  0.0960
78305W        W53293  26.754  14.309  25.283  0.3164  0.2681  0.2843
78306W        W53294   9.114   3.934  25.761  0.1038 -0.1419  0.1529
78307W        W53295  22.053  12.425  21.062 -0.2761 -0.1248  0.1015
78308W        W53296   3.300  26.415  19.851  0.0990  0.1317  0.1107
78309W        W53297  19.494   0.853   3.230  0.1689  0.0816  0.0429
78310W        W53298  22.876  29.074  18.544  0.1997 -0.0986  0.0925
78311W        W53299  13.229  27.969   4.700  0.0647  0.1643 -0.2729
78312W        W53300   7.514  32.949  25.328 -0.1302 -0.0810 -0.2264
78313W        W53301  34.642  13.546  22.544 -0.0801  0.0882  0.0586
78314W        W53302  35.089  17.900  10.019  0.0295 -0.1486  0.1627
78315W        W53303  26.875   9.829  10.987 -0.1861 -0.2028 -0.1292
78316W        W53304  33.888  15.726  25.690 -0.0784 -0.3360  0.2963
78317W        W53305  33.122  24.046  23.885 -0.0203  0.2455  0.3962
78318W        W53306  13.527   6.225  25.091  0.1694 -0.0317  0.1812
78319W        W53307   1.520   4.242   7.155 -0.0300  0.1582 -0.1271
78320W        W53308  28.688  16.337  14.818 -0.0918 -0.1624 -0.0397
78321W        W53309  34.580  12.733  18.777 -0.0542  0.1245  0.3354
78322W        W53310  22.268  31.035  23.502  0.2351  0.1624 -0.0868
78323W        W53311  20.276  10.857  19.595 -0.1783  0.4410 -0.0839
78324W        W53312  13.578  24.024  16.550  0.1165  0.2724  0.2797
78325W        W53313  16.631   5.982  25.638 -0.3340  0.0782  0.1332
78326W        W53314  10.286   8.106   2.583  0.0178  0.5478  0.2153
78327W        W53315  12.100   1.794   2.046 -0.2860  0.1758 -0.2168
78328W        W53316  31.732  12.950  14.144 -0.3046 -0.0159 -0.2654
78329W        W53317  26.837  33.321   4.056  0.1960 -0.1759  0.1817
78330W        W53318  27.655  22.871   9.480 -0.1359 -0.0844 -0.3487
78331W        W53319  13.431   5.984   4.558  0.0727 -0.3528  0.2685
78332W        W53320   1.063  35.138  15.897 -0.2989  0.2703  0.1105
78333W        W53321  25.041  21.973  21.702 -0.0933 -0.1833  0.1298
78334W        W53322   7.986   2.447  21.443  0.0938 -0.0699 -0.1952
78335W        W53323  16.089  20.048   7.944  0.0426  0.1275 -0.0136
78336W        W53324  13.728  10.220   3.856 -0.0901  0.0856 -0.1360
78337W        W53325  32.308   7.164  24.250  0.0110  0.1688  0.2172
78338W        W53326  32.057   3.820  24.240  0.0181 -0.2637  0.2068
78339W        W53327   8.149  21.106   4.573  0.0281 -0.1236 -0.0210
78340W        W53328  17.222  20.108  10.454  0.2244  0.0300 -0.1055
78341W        W53329  33.994   5.096  16.860  0.1362 -0.0281  0.2803
78342W        W53330  19.552  34.016   1.858 -0.1011 -0.1684  0.1430
78343W        W53331  22.520  31.510   1.579  0.0308  0.3651  0.1353
78344W        W53332  15.668  10.808   3.315 -0.1933 -0.2581 -0.3143
78345W        W53333   2.154  21.466  24.326  0.1412 -0.2424 -0.0332
78346W        W53334   6.142  13.577  20.071  0.1520  0.0883  0.0167
78347W        W53335  30.307  18.188  22.566  0.1621 -0.2513  0.0136
78348W        W53336  11.824  29.655   7.099 -0.0901 -0.0661 -0.0342
78349W        W53337  20.328   3.212   9.086  0.1542  0.1263 -0.1361
78350W        W53338  27.284  30.400   4.226 -0.0169 -0.0782 -0.1561
78351W        W53339  29.745  14.493  14.908  0.0048 -0.2525 -0.2687
78352W        W53340   2.286  20.801   0.591 -0.0563  0.3193 -0.1158
78353W        W53341   0.123   7.225  17.494 -0.0445  0.3195 -0.0780
78354W        W53342  20.050  27.524  19.754 -0.0145 -0.0167  0.0911
78355W        W53343   8.602  25.463  26.091 -0.0178  0.0431 -0.0244
78356W        W53344   8.882   3.884  21.908  0.0311 -0.0246 -0.1334
78357W        W53345  13.065  16.012  22.610 -0.2077 -0.1953 -0.1668
78358W        W53346  14.983  18.914   0.985 -0.1630  0.1347 -0.1246
78359W        W53347  26.751  10.907   9.429 -0.2874  0.2987 -0.0342
78360W        W53348  11.677  26.832   7.727 -0.1135  0.1204 -0.2433
78361W        W53349   0.134  34.040  20.386 -0.0515 -0.0778 -0.2535
78362W        W53350  29.782   4.218  15.973  0.2335 -0.1204  0.1738
78363W        W53351  25.970  12.262  23.283  0.0716 -0.1787  0.1122
78364W        W53352  12.168   8.887  10.006 -0.1571 -0.0150 -0.0788
78365W        W53353  21.743  21.502  18.818 -0.0795 -0.0014  0.0982
78366W        W53354  22.322   8.263  17.017 -0.1672 -0.3495 -0.1142
78367W        W53355   9.054  16.398  12.943  0.0029 -0.4626  0.1588
78368W        W53356  33.884   2.861   5.732 -0.0392 -0.0742  0.1192
78369W        W53357  19.652  13.745  26.208  0.2595 -0.0589  0.0108
78370W        W53358   9.532  28.081   5.204 -0.2327  0.0538 -0.1004
78371W        W53359  20.293  19.449  24.066 -0.3249 -0.2899  0.0018
78372W        W53360   3.557  24.793  18.578 -0.0253  0.1841 -0.2109
78373W        W53361   7.175   3.044  11.484 -0.2581  0.0888  0.3134
78374W        W53362  21.388   3.203  17.916  0.1317 -0.0773 -0.1570
78375W        W53363  16.155   8.473  13.287  0.2330  0.1096  0.1174
78376W        W53364  32.229  11.234  20.081 -0.0160 -0.3174 -0.1675
78377W        W53365  26.874  21.607  10.556 -0.3830 -0.1688  0.1090
78378W        W53366  19.485  12.426   9.031 -0.0669 -0.0785 -0.0728
78379W        W53367  16.110  33.526   2.364  0.3016 -0.1724 -0.1118
78380W        W53368  18.591  12.263  20.711  0.0149  0.2338 -0.1093
78381W        W53369   4.529   2.391   3.604  0.1386  0.2024 -0.0340
78382W        W53370  13.267  25.847  13.189  0.0088 -0.0765 -0.2553
78383W        W53371  13.682   1.536   4.359  0.1169  0.3754 -0.0618
78384W        W53372   8.910  17.572  11.851 -0.2186 -0.2659  0.0539
78385W        W53373  20.249   1.506  14.892  0.0132 -0.0952 -0.2072
78386W        W53374  32.245   0.732   3.267  0.4190  0.0331  0.1882
78387W        W53375  20.957  29.539   3.418  0.0586  0.3687 -0.1277
78388W        W53376  12.854  22.163  17.125 -0.0853  0.0279 -0.0655
78389W        W53377   6.615  28.304   0.755 -0.1984 -0.0610  0.1186
78390W        W53378   1.466  33.725  21.806 -0.0882  0.1979  0.0303
78391W        W53379   9.612   2.385  12.466  0.3552 -0.0312  0.0074
78392W        W53380   8.720  33.616   0.880 -0.2457  0.0412  0.1028
78393W        W53381  19.106  10.627   1.446  0.0436  0.1766 -0.1114
78394W        W53382  22.921   2.912  25.407  0.1047 -0.2105 -0.1310
78395W        W53383  32.185  18.245  17.312  0.1118  0.1351 -0.0741
78396W        W53384  25.314   5.533  16.073 -0.3071 -0.4023 -0.1166
78397W        W53385  16.458   3.007  19.335 -0.6210  0.4698 -0.1046
78398W        W53386  33.543  19.729  19.589 -0.2581 -0.0610 -0.4597
78399W        W53387  22.586  18.056  16.327 -0.3398 -0.0211 -0.2388
78400W        W53388  27.108   6.019  13.271  0.1094  0.0077 -0.0212
78401W        W53389  12.338   8.325   9.215 -0.0017 -0.1838 -0.3895
78402W        W53390   3.731  26.926  19.274 -0.4683  0.0542 -0.1808
78403W        W53391   7.462  32.014   5.830  0.1606 -0.1054  0.1129
78404W        W53392  13.216  23.357  16.575 -0.1199  0.0311 -0.2837
78405W        W53393   6.233  28.515   7.461 -0.1049 -0.0206 -0.2381
78406W        W53394  35.122   0.753  23.091  0.3154  0.0783  0.1349
78407W        W53395  10.860   2.376   1.674 -0.1073 -0.4374  0.2940
78408W        W53396  23.178  30.606  14.983 -0.2877 -0.2941  0.0125
78409W        W53397   2.404   9.451  23.713 -0.2796 -0.3622  0.0568
78410W        W53398   6.624  19.724  19.609 -0.1021  0.1135  0.1412
78411W        W53399  11.587  18.636   2.112 -0.1233  0.1573  0.1096
78412W        W53400   7.977  27.876   9.040  0.2033 -0.0460 -0.2645
78413W        W53401  30.392  13.667  18.333  0.2378 -0.1032  0.0772
78414W        W53402  34.256  15.449  14.186 -0.0146 -0.1762 -0.0037
78415W        W53403  33.414  32.521  25.217  0.2693 -0.2720 -0.2461
78416W        W53404  34.764   4.146  23.175 -0.3504  0.1489  0.3493
78417W        W53405   8.563   1.025   7.685 -0.4120  0.1077  0.1208
78418W        W53406  12.768  24.755  10.326  0.3327 -0.1329  0.0720
78419W        W53407  34.371  31.891   1.907 -0.1625 -0.0439 -0.1815
78420W        W53408  32.208  31.809  13.703  0.1059  0.2245  0.0080
78421W        W53409  28.322  10.745  18.883 -0.0194  0.0228  0.2234
78422W        W53410  23.000  14.567  23.378  0.1163  0.3475  0.4212
78423W        W53411   3.909   6.191   9.555 -0.2366  0.0152 -0.2728
78424W        W53412  26.440  32.800  22.413  0.0897  0.0893 -0.3366
78425W        W53413  17.987  26.796   9.376 -0.0772 -0.2136 -0.0639
78426W        W53414  27.590  10.257  21.044  0.3963  0.1929 -0.0740
78427W        W53415  24.979  31.254   2.633  0.1247 -0.0659  0.3538
78428W        W53416  32.709  28.573  19.862  0.0376 -0.1815 -0.0161
78429W        W53417   9.215   6.698  19.788 -0.0367 -0.2173  0.0930
78430W        W53418  16.279   4.525  25.841  0.3417  0.0843  0.4514
78431W        W53419  34.216   4.081  14.581  0.1630 -0.0635  0.1309
78432W        W53420   6.562  24.279   4.365  0.1751 -0.0673 -0.1069
78433W        W53421  23.136  18.586  15.017 -0.1063  0.1885  0.0600
78434W        W53422  18.066  16.504  25.830  0.1959  0.1402 -0.1760
78435W        W53423  32.235  15.613  20.396 -0.1575  0.0054 -0.0490
78436W        W53424  28.758  26.816  18.697 -0.0709 -0.1439 -0.0769
78437W        W53425  34.308   3.265  20.161  0.1975  0.0433  0.3915
78438W        W53426  30.035  25.108   7.857  0.5022  0.1927 -0.0167
78439W        W53427  29.848   0.965   2.103 -0.2929  0.0307  0.0974
78440W        W53428   8.098  15.946  22.979 -0.4545  0.4419 -0.0959
78441W        W53429  17.299  34.239   5.633 -0.0199 -0.0550  0.1812
78442W        W53430  12.203  14.485  19.516 -0.1825 -0.0607 -0.2678
78443W        W53431  32.934  16.743  12.714  0.1468  0.0969 -0.1285
78444W        W53432  15.166  13.833   8.574 -0.1132 -0.1793  0.4318
78445W        W53433   9.531  31.737  15.343  0.0146  0.0201 -0.1776
78446W        W53434   2.648  15.550  24.091 -0.1898 -0.0275 -0.1390
78447W        W53435   8.961  27.967  25.131 -0.4744 -0.0252  0.1564
78448W        W53436  23.914  14.460  24.393  0.1390 -0.0275  0.1739
78449W        W53437   9.756  21.873  25.966  0.3315 -0.1841  0.0804
78450W        W53438  14.333  21.158  26.099 -0.0891 -0.0464  0.1959
78451W        W53439  19.411  12.348   2.750 -0.1886  0.0054  0.3368
78452W        W53440  24.535   1.745  22.591  0.3412 -0.2493  0.1245
78453W        W53441  30.865   0.252   4.593 -0.1967  0.0788 -0.3198
78454W        W53442  32.126  24.059  12.344 -0.1634 -0.2309  0.1107
78455W        W53443  12.250  17.554   6.626 -0.2086  0.2445  0.2370
78456W        W53444   0.567  33.738  19.126 -0.0877 -0.2538 -0.2877
78457W        W53445  23.117   7.426  14.606 -0.3696 -0.3498 -0.1922
78458W        W53446  33.039  33.361  25.310  0.2548  0.0458  0.0315
78459W        W53447   4.696  13.946  18.669  0.1609 -0.1804  0.0191
78460W        W53448  14.815  26.362  25.196  0.2269  0.0646 -0.0839
78461W        W53449  35.176  19.741  10.167  0.0068 -0.0332  0.2005
78462W        W53450   0.799  27.630   3.894  0.3453  0.1270 -0.3141
78463W        W53451  32.323  26.798  16.444  0.4947  0.0907  0.1238
78464W        W53452  25.488  31.591  21.472 -0.3372  0.0064  0.0316
78465W        W53453  19.177   6.322   8.463 -0.0325  0.5041  0.0242
78466W        W53454  13.323  10.688  23.460 -0.2561  0.3734  0.1748
78467W        W53455  22.563  30.874  13.735  0.1051  0.1133  0.0741
78468W        W53456  23.228  20.139   0.474 -0.1100 -0.3069 -0.2102
78469W        W53457  33.339  10.167  20.504 -0.0032 -0.1491 -0.2280
78470W        W53458  13.993  11.978  21.375 -0.0640  0.3686 -0.1128
78471W        W53459  33.179  31.232   3.634 -0.2186 -0.3073 -0.0287
78472W        W53460  10.502  22.949  14.249 -0.4094 -0.1147 -0.4598
78473W        W53461  19.071   4.481  21.608 -0.0259  0.0904 -0.2336
78474W        W53462  32.100  14.153  13.677  0.0083 -0.0378  0.0858
78475W        W53463  25.242  34.724  16.945 -0.0968  0.2490 -0.1134
78476W        W53464  11.571  32.758  23.813  0.0819 -0.1623 -0.0241
78477W        W53465  16.064  35.257  25.061  0.1115 -0.1122  0.1064
78478W        W53466  31.546  33.903  20.322 -0.2151  0.2826 -0.1533
78479W        W53467   7.013   8.531  19.409  0.1874 -0.3261  0.0124
78480W        W53468  25.515   1.820  15.677  0.3504  0.2283  0.2104
78481W        W53469  29.232  22.552  10.703 -0.1317 -0.0564 -0.2705
78482W        W53470  27.507  22.749  19.715  0.0129  0.0329  0.1689
78483W        W53471   6.303  32.387  21.620  0.1496 -0.0240 -0.0760
78484W        W53472  25.517  13.849  16.730 -0.0259 -0.2321  0.3096
78485W        W53473  18.198  32.381   4.971 -0.2388 -0.0115 -0.3130
78486W        W53474  12.823   0.457   7.371  0.0231  0.2555 -0.1368
78487W        W53475  16.215  34.129  23.438  0.3730  0.0473 -0.1501
78488W        W53476  15.872  17.600  20.327  0.0504  0.1648 -0.0838
78489W        W53477   0.905  14.034  11.312  0.2237 -0.0856  0.3293
78490W        W53478   0.815  25.393  24.561 -0.1783 -0.2383 -0.0045
78491W        W53479  32.166  11.532  16.383 -0.0878 -0.3274 -0.1339
78492W        W53480  34.122   3.943  18.627 -0.0329  0.0314  0.1027
78493W        W53481  17.973  16.237   5.270 -0.0094  0.1690  0.0316
78494W        W53482  19.039  24.896  26.000  0.3084  0.0359  0.0465
78495W        W53483   5.505  29.787  25.997 -0.4615  0.0062  0.2545
78496W        W53484  27.581  17.587  14.259 -0.0611  0.2280  0.0288
78497W        W53485   8.707  20.715  13.255 -0.1337  0.0180  0.0984
78498W        W53486   4.920  12.208   6.211  0.4202  0.0829  0.0918
78499W        W53487  22.247  29.590   2.633  0.1586  0.0532  0.0651
78500W        W53488  23.551   8.728  24.511  0.1611 -0.1835 -0.1083
78501W        W53489   4.540  12.005  18.606  0.2259 -0.2447  0.1759
78502W        W53490   0.858  25.059  21.629  0.1227 -0.0178  0.3646
78503W        W53491  12.275   3.281  11.668  0.1587  0.3068  0.2213
78504W        W53492  34.283  21.497  24.956 -0.3935  0.0925 -0.5900
78505W        W53493  14.129  24.823  22.221  0.0023 -0.2186  0.2062
78506W        W53494  32.393  28.136  17.918 -0.3441 -0.0180  0.1288
78507W        W53495  13.586  20.173   4.715 -0.0233  0.0655 -0.1663
78508W        W53496  16.651  28.835   2.595  0.2252  0.1512 -0.1563
78509W        W53497  29.170  20.029  17.111 -0.1102  0.4830 -0.1834
78510W        W53498  34.026   1.084   1.912 -0.2586  0.1025  0.0712
78511W        W53499   9.372   8.525  13.623  0.1889 -0.1671 -0.1133
78512W        W53500  14.855   0.177   1.043 -0.3066  0.3022  0.0804
78513W        W53501  11.622   7.317  25.475  0.2921 -0.2979 -0.0737
78514W        W53502  20.144  26.555  22.922 -0.0565 -0.0228 -0.1380
78515W        W53503   5.080   3.645   7.959 -0.3672  0.0167  0.0310
78516W        W53504  30.257   4.827  23.059  0.3054 -0.2037  0.1051
78517W        W53505  31.803  15.730  23.500 -0.0592 -0.1030  0.0856
78518W        W53506  21.680  18.165  16.270  0.2269  0.1084  0.0264
78519W        W53507  25.613  27.340  13.584  0.1354  0.2201  0.0750
78520W        W53508  29.478  32.487  23.673  0.1073  0.1925  0.2030
78521W        W53509  25.961  27.495  10.614 -0.1047  0.1097 -0.1417
78522W        W53510  22.713   3.248   1.514  0.2289 -0.4616  0.0609
78523W        W53511   9.788   0.538   8.047  0.0158 -0.0370 -0.1230
78524W        W53512   0.153  34.714  18.162 -0.0137 -0.1823 -0.2091
78525W        W53513  17.757  14.701   2.787 -0.2729  0.0679  0.0851
78526W        W53514  29.281  11.658  20.916 -0.2196 -0.4009  0.1428
78527W        W53515   0.608  27.245   3.581 -0.0885 -0.0247  0.1111
78528W        W53516   8.972   0.114   3.972  0.2679  0.1473 -0.0334
78529W        W53517  25.856   1.219   1.198  0.0545  0.2273  0.1091
78530W        W53518  24.954  28.824  25.205  0.0457  0.0464  0.1642
78531W        W53519  18.386  17.936   8.408  0.2784  0.0307 -0.1205
78532W        W53520   2.371  11.103  14.233 -0.0395  0.0930  0.0345
78533W        W53521  26.765  32.925  15.366  0.2242  0.0872  0.2718
78534W        W53522   7.397   2.404  26.161  0.2737  0.0009  0.3024
78535W        W53523  25.550  29.584  12.855 -0.0373 -0.1767  0.2232
78536W        W53524  15.288  30.940  24.430 -0.0770 -0.0714  0.3008
78537W        W53525   5.858  27.934   5.773 -0.0709 -0.1133 -0.0809
78538W        W53526  12.804   1.896   9.766 -0.1182 -0.1853 -0.1563
78539W        W53527  14.187  24.670   5.252 -0.0646 -0.0644 -0.0535
78540W        W53528  35.141  12.205  26.183  0.1877 -0.2606 -0.2902
78541W        W53529   0.734   8.437  16.025 -0.0964 -0.0856 -0.0596
78542W        W53530   8.813  15.855   7.573  0.1521 -0.1158  0.1101
78543W        W53531  30.698  26.277  10.473 -0.1764  0.4583  0.0624
78544W        W53532  13.013   5.976   2.746 -0.3074 -0.1904 -0.0783
78545W        W53533  31.607   8.814   8.695 -0.1976 -0.1129 -0.0868
78546W        W53534   3.726  27.243   9.130 -0.3826 -0.0768 -0.4851
78547W        W53535   2.177   1.628  21.109 -0.1767 -0.1643 -0.0448
78548W        W53536   2.259   5.278   6.735 -0.0247  0.1886  0.0085
78549W        W53537  29.048   4.579  19.892 -0.1186  0.0479  0.2184
78550W        W53538   4.455  17.847   3.827 -0.0705  0.3572 -0.1730
78551W        W53539  18.831  13.970   0.369 -0.0667  0.2777  0.2476
78552W        W53540  18.471  18.395   0.024 -0.0788  0.1302 -0.2038
78553W        W53541  28.680  14.040  18.275 -0.0295 -0.0753 -0.0448
78554W        W53542  24.693  10.385  20.661  0.1014 -0.0339 -0.1698
78555W        W53543  18.366  27.005   0.320 -0.3590  0.2532 -0.0161
78556W        W53544   9.489  16.787   0.328  0.1086  0.3601 -0.1659
78557W        W53545  24.400  19.361  24.386 -0.3195 -0.1721  0.2706
78558W        W53546  32.533   5.352  17.018 -0.0203 -0.0241  0.2376
78559W        W53547   3.645  18.823  20.739  0.2242  0.0336 -0.0915
78560W        W53548  14.093   4.132   0.946 -0.1507 -0.0740 -0.3431
78561W        W53549   2.095  22.716  18.442 -0.0198  0.4568 -0.0249
78562W        W53550   2.573  30.525   9.262 -0.2377  0.2378 -0.1173
78563W        W53551  31.833  17.067   0.026 -0.0749  0.0642 -0.0603
78564W        W53552  14.921  28.522   3.198 -0.1072  0.5086 -0.0985
78565W        W53553  24.359  25.061  21.398  0.2033 -0.1791  0.0049
78566W        W53554  12.902   3.299  22.713  0.0660  0.1679 -0.0546
78567W        W53555   0.160  14.251  11.898 -0.0481  0.0088 -0.0098
78568W        W53556  24.994   5.336  21.459 -0.0489  0.3005 -0.1089
78569W        W53557   6.083  31.659  20.431 -0.0893  0.1247 -0.1285
78570W        W53558  34.617  17.366  16.397 -0.0742  0.2040  0.1295
78571W        W53559  13.015  12.057   5.908 -0.0446  0.2018  0.0805
78572W        W53560  33.762  33.445   1.500 -0.1224  0.0270 -0.0149
78573W        W53561  27.673  32.310  17.993 -0.1005 -0.1864  0.0762
78574W        W53562  16.616  34.361  24.993  0.0233 -0.0778  0.2167
78575W        W53563   2.094  17.174   0.382 -0.0335  0.1403  0.0331
78576W        W53564  17.277  11.571   2.011  0.0381  0.0743  0.2151
78577W        W53565  22.558   8.286  24.811 -0.0092  0.0450  0.2197
78578W        W53566  29.070  34.716  15.585  0.2214  0.0277 -0.2345
78579W        W53567   2.983   6.146  19.490 -0.1864 -0.1079 -0.1889
78580W        W53568   9.623  25.223   0.128  0.0161 -0.1982 -0.0356
78581W        W53569  27.870  32.891  25.117 -0.2074 -0.0943 -0.2175
78582W        W53570  22.464   9.007  14.795 -0.1044  0.1107  0.0522
78583W        W53571   9.854  23.123   0.353  0.2654 -0.2428  0.3724
78584W        W53572   0.975   4.469  23.209 -0.0474  0.2099 -0.0003
78585W        W53573   7.099  15.239   7.734  0.1345 -0.0126 -0.2182
78586W        W53574   7.633  30.802   3.461  0.0493 -0.2496 -0.0033
78587W        W53575  16.628  13.782   2.873  0.0850  0.2771 -0.2502
78588W        W53576  26.440   3.404  10.974  0.0341  0.4032 -0.2156
78589W        W53577  16.976  12.191  21.956 -0.0929  0.3107 -0.2108
78590W        W53578  14.892   8.123   1.398  0.1953 -0.0510  0.1360
78591W        W53579   1.361  13.754  15.347  0.1903  0.1172 -0.1350
78592W        W53580  13.017   1.446  22.310 -0.1524 -0.2709  0.1994
78593W        W53581  10.918  23.911  23.183 -0.0871 -0.1674 -0.1281
78594W        W53582   0.217   8.102   2.372 -0.0132  0.0275 -0.1235
78595W        W53583  33.253  33.361  13.998  0.0734 -0.0096 -0.0158
78596W        W53584  29.171  35.024  20.068 -0.0046 -0.0619 -0.0254
78597W        W53585  29.872  33.919   3.840  0.3477  0.0963  0.1719
78598W        W53586  27.395  15.785  20.702  0.2435  0.0565  0.2578
78599W        W53587  32.997  25.906  22.911 -0.2052 -0.0550 -0.1071
78600W        W53588  21.623  17.679  24.075  0.0609 -0.0367 -0.0091
78601W        W53589  12.354   7.368   7.042 -0.1503  0.1211 -0.0451
78602W        W53590  25.470  11.763  25.428 -0.1383 -0.4603  0.0189
78603W        W53591  17.941   8.505  12.473  0.2425 -0.0773  0.1752
78604W        W53592  32.830  34.184  25.914  0.2946 -0.1444 -0.0507
78605W        W53593  31.385  27.102  11.610  0.4019  0.0754  0.2095
78606W        W53594  26.491  23.830  12.093 -0.2452  0.1160  0.0764
78607W        W53595   4.186  13.622  25.592 -0.3256 -0.0203  0.1195
78608W        W53596   6.713   5.577  10.372 -0.1613  0.4006  0.1636
78609W        W53597  22.953   2.629  20.015 -0.4986 -0.4303 -0.0437
78610W        W53598   4.318  26.320   4.364 -0.2314  0.0876  0.0803
78611W        W53599  27.881  20.292   9.661 -0.0802  0.0430  0.0136
78612W        W53600   7.744  17.582  11.205 -0.1112  0.0386  0.1926
78613W        W53601  24.704   7.001   1.779 -0.3257 -0.1018 -0.3055
78614W        W53602   9.475  29.911   7.778 -0.2012 -0.2997  0.0009
78615W        W53603   5.768   7.306  24.826  0.0473  0.0022 -0.0563
78616W        W53604   7.378  32.611  26.111  0.0502  0.0120  0.1982
78617W        W53605  33.040   1.447  14.027 -0.0341 -0.1628  0.2701
78618W        W53606   4.137  27.787  23.014  0.2219 -0.0770  0.1616
78619W        W53607  12.466  33.016  21.437 -0.2364 -0.0430 -0.0407
78620W        W53608  30.140   8.699   1.733  0.0691 -0.0116  0.2478
78621W        W53609   1.262   1.850  17.388  0.0088  0.0135 -0.0100
78622W        W53610  23.631   5.992   0.611  0.0676  0.0708  0.1683
78623W        W53611   7.464  31.134  25.600 -0.1641  0.1529  0.1186
78624W        W53612  27.509   8.288  25.130 -0.1397  0.1538 -0.2643
78625W        W53613  14.888   4.525   7.933 -0.0044 -0.1788 -0.3743
78626W        W53614  26.139   2.004  15.044 -0.1642  0.3293  0.3139
78627W        W53615   9.020  28.952  22.762  0.4808  0.1778 -0.0335
78628W        W53616  32.792  34.452  16.552  0.3624 -0.3092  0.2998
78629W        W53617  25.401  10.170  11.592 -0.1182  0.1702  0.0855
78630W        W53618  33.049  16.210  24.697 -0.1463  0.0408 -0.2548
78631W        W53619  28.741  34.607  17.135 -0.3813 -0.1438 -0.1573
78632W        W53620  33.873  18.875   0.791 -0.0024 -0.0973 -0.0649
78633W        W53621  21.543  28.692  19.857 -0.0539  0.2598  0.0369
78634W        W53622   2.626  32.251  22.876  0.0781 -0.1800 -0.0723
78635W        W53623   6.019   7.491   7.539  0.0431  0.0960 -0.1874
78636W        W53624  21.067   8.011  25.302  0.0392 -0.2270 -0.3917
78637W        W53625  27.102  19.865  13.683  0.0894 -0.1435  0.1755
78638W        W53626  26.384   1.421  15.613  0.0614  0.0819 -0.1976
78639W        W53627  20.548  21.928   5.273 -0.0508 -0.2686 -0.2418
78640W        W53628  31.939  16.565   6.819 -0.1864 -0.0125  0.0628
78641W        W53629   9.029  19.025  23.661 -0.1866  0.0143 -0.2849
78642W        W53630  13.019   7.660  20.925 -0.2009  0.2429  0.0095
78643W        W53631  32.531  34.571  12.838 -0.2945 -0.2200  0.0261
78644W        W53632  12.488  31.426  15.742  0.0384  0.3092 -0.1514
78645W        W53633   3.866  34.925   8.612  0.2091  0.0979  0.4873
78646W        W53634   2.056  16.524   1.508  0.0624 -0.1678  0.0002
78647W        W53635   1.310  20.366  15.604 -0.0610 -0.0478  0.0507
78648W        W53636  13.636   4.731   4.649  0.4143  0.0404 -0.3555
78649W        W53637  12.665   8.429  19.419  0.0898 -0.0216  0.1054
78650W        W53638   9.436   3.945  23.230  0.0762  0.1217 -0.2523
78651W        W53639   8.128  28.159  15.731 -0.1461  0.0512  0.1042
78652W        W53640  10.606  34.703  24.699  0.0736  0.0095  0.1374
78653W        W53641  15.241  18.937  25.871  0.1457 -0.0655 -0.3411
78654W        W53642  33.272  26.887  25.292  0.1215  0.0685 -0.3527
78655W        W53643   2.302   1.689  20.631 -0.2289  0.0033  0.2569
78656W        W53644  26.916  31.446  24.831 -0.0507 -0.1286 -0.1777
78657W        W53645  31.804   8.114  19.405  0.1109  0.2455  0.1829
78658W        W53646  35.014  34.115  19.133  0.0402  0.0890  0.2289
78659W        W53647  14.714  27.940   3.312 -0.2591  0.0828 -0.0109
78660W        W53648  23.765  24.311  13.244  0.0497 -0.0500  0.0621
78661W        W53649  31.946  13.378   7.880 -0.0475  0.3366 -0.1122
78662W        W53650  16.051  25.067   5.570 -0.0738  0.0848 -0.2233
78663W        W53651   4.804   2.447  18.759  0.0125  0.1409 -0.4525
78664W        W53652  22.995  26.161  21.209 -0.0062  0.1010  0.3180
78665W        W53653  22.825   9.943  20.591 -0.0094  0.3587  0.0390
78666W        W53654  28.718  27.988  10.075 -0.0933 -0.0771  0.0064
78667W        W53655  19.804  25.139   4.476 -0.2452 -0.2127  0.2367
78668W        W53656  29.998  10.822   0.504  0.1699  0.1676  0.0856
78669W        W53657  23.437  23.875  15.261 -0.4515 -0.0005 -0.0689
78670W        W53658  11.899  17.988   6.391  0.2287 -0.0253  0.0439
78671W        W53659   0.398   2.814  19.350 -0.1620  0.1672  0.0159
78672W        W53660  12.502   4.504  23.230 -0.3350 -0.1045  0.3153
78673W        W53661   5.081  11.257  19.974 -0.1176 -0.0632  0.1950
78674W        W53662   3.105  27.429   5.845 -0.0324 -0.1654 -0.0428
78675W        W53663  28.778   3.016  14.827 -0.0918 -0.2079 -0.0543
78676W        W53664  18.295  21.089   5.854  0.1951 -0.1172 -0.0958
78677W        W53665   3.515  31.894  20.121  0.1511 -0.2276 -0.2912
78678W        W53666  15.342  13.978  14.390 -0.2284  0.0397  0.1917
78679W        W53667  19.665   2.339   4.557  0.0409  0.0271 -0.2001
78680W        W53668  20.389  19.897  23.871  0.1492  0.0051  0.0490
78681W        W53669  27.359  10.033  11.722  0.2172  0.3198 -0.1168
78682W        W53670  28.934  31.783  12.961 -0.2628  0.0361  0.3036
78683W        W53671  31.447  15.108  23.103 -0.0726  0.0277 -0.2359
78684W        W53672  18.122  21.041   3.593  0.1481 -0.1879 -0.0701
78685W        W53673  20.181   1.485  20.693 -0.0735 -0.0744  0.0832
78686W        W53674  13.252  23.284   8.082 -0.0936 -0.0325 -0.2389
78687W        W53675  17.155  32.581   3.865  0.1688  0.2495  0.1923
78688W        W53676  25.318   0.923  22.433  0.2557  0.1129 -0.2390
78689W        W53677  24.139   4.525   5.482 -0.1178  0.0584  0.0861
78690W        W53678  10.535  20.993   7.201 -0.1497 -0.0923 -0.1420
78691W        W53679  30.960  18.574   9.154  0.1142 -0.1726 -0.0055
78692W        W53680   3.864  14.157  22.482  0.1293  0.1987 -0.1949
78693W        W53681  23.685  28.149   2.731 -0.2124 -0.2512 -0.2117
78694W        W53682  10.795  27.339   8.085 -0.0173  0.1777  0.1455
78695W        W53683  24.798  15.479  24.268  0.3210  0.4386 -0.0843
78696W        W53684  21.053   3.268  26.035 -0.1716  0.1234  0.0198
78697W        W53685   9.624   4.951   5.759  0.1557  0.3348  0.1973
78698W        W53686   3.858   7.161  26.145 -0.3928  0.2175 -0.1835
78699W        W53687  21.870  23.473   4.414 -0.1966 -0.1805  0.0237
78700W        W53688  32.596  26.183  11.337 -0.1308  0.1440 -0.1202
78701W        W53689  29.139  21.616  16.968 -0.1015  0.0300  0.1751
78702W        W53690  10.190  28.739   4.566  0.3088 -0.3747  0.0997
78703W        W53691  20.951  22.912  20.338 -0.0518  0.4161  0.3490
78704W        W53692   7.518   9.090   3.709 -0.1977  0.3892  0.3132
78705W        W53693   2.223  29.130  25.882  0.0435 -0.0358 -0.0093
78706W        W53694  16.431  24.874   9.370  0.1133 -0.0297 -0.1242
78707W        W53695  21.842  11.744  26.124  0.1232 -0.0143 -0.0904
78708W        W53696  20.271  30.177  24.432  0.0827  0.1876 -0.0228
78709W        W53697  34.203  34.531   3.017 -0.1823  0.3008 -0.0028
78710W        W53698  11.295  27.800  15.418 -0.1001 -0.2057 -0.2002
78711W        W53699  29.628   8.087  15.459 -0.1341  0.1150  0.1664
78712W        W53700  34.985  24.944  16.164  0.0052  0.4286 -0.0235
78713W        W53701   3.396  15.231  19.059 -0.2746 -0.0059 -0.0171
78714W        W53702   0.301  25.275  18.849 -0.2299 -0.1068 -0.2716
78715W        W53703  33.619  12.800  18.703  0.0958 -0.1458 -0.1172
78716W        W53704  11.705  29.251  17.633 -0.0128 -0.3501  0.1063
78717W        W53705  24.926   2.666  13.304  0.1932 -0.2491  0.0498
78718W        W53706   3.525   3.656  25.953  0.1551 -0.1694 -0.1128
78719W        W53707  34.710  32.463  25.539 -0.2280 -0.4386 -0.2239
78720W        W53708   1.056  21.343   0.791  0.0197  0.1996 -0.2150
78721W        W53709   9.838  12.035  22.351  0.0265 -0.3044  0.0591
78722W        W53710  20.326  26.422   1.980 -0.5671  0.1014  0.0484
78723W        W53711   8.442  12.813   0.502 -0.1375 -0.5446  0.1587
78724W        W53712  27.007   2.246  11.645  0.0281  0.3168 -0.2855
78725W        W53713   8.929  33.128   4.103  0.1216  0.0542 -0.3688
78726W        W53714  26.334   9.082   9.715 -0.3497 -0.0058  0.0783
78727W        W53715  34.139  13.066  20.201  0.1055  0.2018  0.2051
78728W        W53716  26.146  30.207  20.872  0.1046  0.0151  0.1681
78729W        W53717   1.551  31.611  20.280  0.1187 -0.2401  0.1129
78730W        W53718  10.065  16.761   0.891 -0.3662 -0.0225 -0.1756
78731W        W53719  26.343  26.883   1.025 -0.1307  0.1430  0.1435
78732W        W53720  24.541  31.793  14.503 -0.0784  0.6525 -0.2598
78733W        W53721  33.946  14.193  13.628 -0.1525 -0.0920  0.1041
78734W        W53722   0.277  11.116   0.512 -0.0575  0.0401 -0.0982
78735W        W53723   1.813  30.497   1.432 -0.2039 -0.1513  0.1911
78736W        W53724   1.819   0.415  23.599  0.0339 -0.2635 -0.1850
78737W        W53725  17.595  24.693  22.012 -0.0853 -0.0676  0.2688
78738W        W53726  25.111  12.136  21.611  0.1420  0.1800  0.2977
78739W        W53727  33.689  14.197  13.221  0.0511  0.2943  0.3149
78740W        W53728  11.335   9.948  10.459 -0.6344  0.0642 -0.2264
78741W        W53729  15.739   1.008   6.325 -0.0205 -0.0391  0.1780
78742W        W53730  12.726  16.119   5.106 -0.0228  0.1201 -0.0349
78743W        W53731   3.260  29.604  24.066  0.1392  0.1199  0.1378
78744W        W53732  18.103  12.857   7.292  0.0470  0.1265 -0.0574
78745W        W53733  12.048  10.796   5.526 -0.2973 -0.1869 -0.1882
78746W        W53734  20.079  21.044  18.293  0.2307 -0.2771 -0.1548
78747W        W53735   9.010  16.249   8.505 -0.0102  0.1803  0.4876
78748W        W53736  30.932   7.027   3.475 -0.0845 -0.0954  0.0507
78749W        W53737  20.945  19.905   0.410  0.0460 -0.2289  0.1051
78750W        W53738  24.745  18.651   7.460  0.0614  0.1028  0.0405
78751W        W53739   8.222  33.064  11.391 -0.2630  0.0993  0.1451
78752W        W53740   2.055  12.174  13.396 -0.0552 -0.3385  0.0054
78753W        W53741  34.199   1.417  19.466 -0.0698 -0.3547  0.0391
78754W        W53742   3.009   0.468   0.499  0.1507 -0.1539 -0.1253
78755W        W53743  25.000   9.854  12.291 -0.0197  0.0260  0.0818
78756W        W53744  23.697   2.951  21.652  0.0866 -0.0508  0.2771
78757W        W53745  20.415   4.714  18.529  0.0108 -0.3132 -0.0388
78758W        W53746  27.519  16.040  23.886 -0.0450 -0.1497  0.0605
78759W        W53747  11.201  33.394   6.760  0.0797 -0.0803 -0.1871
78760W        W53748   5.762  11.621  16.666  0.1836  0.3265  0.0342
78761W        W53749   6.272  27.244  12.028 -0.1235  0.1415 -0.2036
78762W        W53750   5.006   6.777  25.820 -0.0048  0.0631 -0.1347
78763W        W53751  11.821  28.721  22.427  0.2517  0.5184  0.0549
78764W        W53752   5.072  15.653  23.021  0.0634 -0.0657 -0.2427
78765W        W53753  30.035  20.459  22.877  0.0422 -0.0951 -0.0253
78766W        W53754  30.577  18.123  26.134 -0.0394 -0.0381  0.2169
78767W        W53755   7.403  19.380   1.992 -0.0642  0.1229  0.1899
78768W        W53756  12.971   3.452  25.275  0.1242 -0.2583  0.0260
78769W        W53757  33.902  19.605  13.632 -0.1520  0.1039 -0.0135
78770W        W53758  28.047  24.157  16.280 -0.1757  0.5172 -0.0332
78771W        W53759  10.843   0.952   9.749  0.2977  0.2513  0.0650
78772W        W53760  24.409  15.854  20.853  0.1471 -0.2072  0.0770
78773W        W53761  19.148  11.013   7.549  0.1545 -0.3544 -0.2708
78774W        W53762   4.560  17.217   5.348  0.0163 -0.1716 -0.0700
78775W        W53763  25.067  21.071  20.139 -0.0921 -0.3715  0.3201
78776W        W53764  32.058  22.536  10.482 -0.1148 -0.2346 -0.2636
78777W        W53765  11.934   6.328  21.544 -0.4694  0.1980  0.0824
78778W        W53766  14.075  17.169  11.347 -0.1399 -0.0941  0.1847
78779W        W53767  28.614  31.082  11.796 -0.1438 -0.0156 -0.2499
78780W        W53768  19.479  13.516   1.112 -0.0048  0.2047  0.0363
78781W        W53769   4.974   1.670  23.227 -0.1246 -0.0611 -0.2060
78782W        W53770  21.563  12.175  22.770 -0.1316 -0.2045  0.0788
78783W        W53771  28.212   4.790   0.424 -0.3089 -0.4772 -0.1837
78784W        W53772  34.087  10.306  14.889 -0.0654 -0.2076 -0.0032
78785W        W53773  35.064   8.550  11.262  0.2659  0.2362  0.0272
78786W        W53774  28.782   8.785   1.757 -0.0962 -0.1368  0.0347
78787W        W53775  22.849  14.423  25.264  0.0407 -0.0943 -0.0778
78788W        W53776  21.087  20.727   5.699 -0.2180  0.0872 -0.2401
78789W        W53777  29.958  20.392  20.658  0.1712  0.1697  0.0351
78790W        W53778  10.998  14.277  24.106  0.1013  0.1584  0.0801
78791W        W53779   0.798   9.970  21.686  0.0750  0.3044  0.1978
78792W        W53780  10.023   9.534   1.015 -0.1462  0.2378  0.2579
78793W        W53781  24.953   0.236  21.390  0.1011 -0.0034  0.2009
78794W        W53782   9.454  24.753   4.139  0.0738  0.3461  0.2397
78795W        W53783  26.928  30.481  10.477 -0.0392 -0.3368 -0.1205
78796W        W53784   1.136   0.398   8.510 -0.1050 -0.1810 -0.1300
78797W        W53785  33.716  17.322  14.715 -0.0802  0.0571 -0.0742
78798W        W53786  19.282  10.709   4.850  0.0035  0.0552 -0.0030
78799W        W53787   1.582  17.762  21.922 -0.2902 -0.1584  0.2413
78800W        W53788  16.644   9.147  19.786 -0.1011 -0.1198  0.0574
78801W        W53789  32.251  16.408  22.017  0.2771 -0.0911 -0.0671
78802W        W53790   5.255  13.245  18.829  0.0310  0.0285  0.0223
78803W        W53791  35.346  16.239  24.777 -0.1644 -0.1101  0.0482
78804W        W53792   0.517   4.385   7.028 -0.3682  0.3544 -0.2831
78805W        W53793  30.430  15.071  19.282 -0.4670  0.0132 -0.1076
78806W        W53794  21.628  13.196   3.708 -0.1566  0.1637 -0.3186
78807W        W53795   6.596   7.772   2.681 -0.1397 -0.0616 -0.2575
78808W        W53796  29.016  11.317  16.049 -0.1108  0.1398  0.2671
78809W        W53797  22.837  15.259   0.102 -0.0767 -0.2605 -0.0060
78810W        W53798  12.213  22.637  15.951  0.1098 -0.1534 -0.2451
78811W        W53799  11.234  27.446  10.354 -0.0514  0.0120  0.0423
78812W        W53800  23.669  14.114  17.314  0.3344 -0.1778 -0.1763
78813W        W53801  29.499  18.879  19.619 -0.1856 -0.0846  0.2594
78814W        W53802  23.864  18.114  18.980 -0.3408 -0.0074  0.2001
78815W        W53803  19.714  25.507  21.721 -0.1280 -0.2132 -0.0553
78816W        W53804   6.757  21.370  24.638  0.0213 -0.0434 -0.0874
78817W        W53805   6.322  29.157   3.946  0.0264 -0.1555  0.1663
78818W        W53806  25.265   4.594   3.507 -0.3460 -0.2366  0.3428
78819W        W53807   8.917   3.108   7.263 -0.0924  0.0396 -0.0986
78820W        W53808  29.061  16.642  26.174 -0.2872  0.1800  0.0815
78821W        W53809  11.744  22.678  25.420 -0.2123  0.0661  0.0066
78822W        W53810  26.707   8.414  12.106  0.3463  0.1201 -0.2835
78823W        W53811   9.069  22.741  11.970  0.3420  0.2461 -0.3032
78824W        W53812  33.365   7.197   0.955  0.2007  0.1813 -0.3888
78825W        W53813  27.551  28.920   3.627 -0.3622  0.1957 -0.0868
78826W        W53814  23.379  23.843  13.449 -0.0143 -0.0293  0.1425
78827W        W53815   8.508   7.394  24.800  0.0658 -0.3910  0.2061
78828W        W53816  11.398  22.005   8.973  0.2383 -0.3913 -0.1557
78829W        W53817   8.523   0.004   9.675  0.0204  0.0763 -0.1084
78830W        W53818  16.439  14.460  12.796 -0.0399  0.0770  0.3146
78831W        W53819   4.403  13.584   1.084 -0.1851 -0.0965 -0.0671
78832W        W53820   2.762  35.109  18.397 -0.2836  0.1891 -0.1267
78833W        W53821  18.883  19.371   6.402 -0.2705 -0.0034 -0.1277
78834W        W53822   3.728  35.051   7.528 -0.0586  0.2810 -0.0280
78835W        W53823  34.962  10.512  18.614  0.0947  0.1435 -0.1281
78836W        W53824   7.675  33.232   8.168  0.3213  0.2771 -0.2737
78837W        W53825   5.700  12.375   2.881  0.0586 -0.2670  0.0073
78838W        W53826  12.809   9.463   6.558  0.2876  0.0964 -0.3067
78839W        W53827  16.028  21.251   0.621 -0.2714 -0.1345  0.0082
78840W        W53828   8.503  26.794   6.865  0.1489  0.1639  0.2490
78841W        W53829  17.896  17.046  21.580  0.0950 -0.0278 -0.1444
78842W        W53830  20.231   8.084  25.190 -0.1106  0.2715  0.1110
78843W        W53831   6.092  16.169  22.241  0.1926 -0.3325  0.3646
78844W        W53832  25.836  16.814  18.939  0.1170  0.1657  0.3190
78845W        W53833   1.314  26.661  20.452  0.4886 -0.1145 -0.0160
78846W        W53834  10.241   9.724   7.620  0.2267 -0.1324 -0.1810
78847W        W53835   1.107  24.919  22.392  0.0037 -0.1191  0.1593
78848W        W53836  16.010   0.999   7.191  0.1304 -0.0256 -0.0803
78849W        W53837  22.366   3.152   4.438 -0.1735  0.0980  0.1275
78850W        W53838  20.742  31.572  15.430  0.2245 -0.0354  0.0982
78851W        W53839  13.119   8.421   9.320  0.3339  0.2830 -0.2042
78852W        W53840  30.057  19.760  18.827 -0.0804 -0.3907 -0.5168
78853W        W53841  16.172  15.536   6.454  0.0974 -0.0499 -0.0581
78854W        W53842  28.723  24.901   9.606 -0.0954  0.1645  0.0983
78855W        W53843  16.802   9.240  13.199  0.0371 -0.0001 -0.0623
78856W        W53844  26.840   4.246  22.879 -0.0902  0.1191 -0.1578
78857W        W53845   4.736  22.769  19.731  0.1834 -0.1238 -0.1745
78858W        W53846  24.426  26.519  25.861 -0.1479 -0.0887  0.0162
78859W        W53847  26.905  34.081  18.512 -0.0718  0.0898 -0.0361
78860W        W53848  29.684   7.952  22.486  0.1249 -0.1534 -0.1566
78861W        W53849  27.047  14.171   7.170  0.0715 -0.0924 -0.0009
78862W        W53850  17.350  14.694  24.557 -0.2559 -0.0319  0.2451
78863W        W53851   8.587  21.780  14.054  0.1179  0.3281 -0.2195
78864W        W53852  29.609  22.410  25.781  0.2965  0.1218 -0.0557
78865W        W53853  19.090   4.162  17.291  0.0862  0.1677 -0.0799
78866W        W53854  34.768  26.858   2.761 -0.3877 -0.1007 -0.1678
78867W        W53855  27.878   6.637  19.658  0.1137  0.2054 -0.0408
78868W        W53856  25.664  23.067   9.108  0.0227  0.0749 -0.1441
78869W        W53857   1.583   9.056   4.954  0.0899  0.1072 -0.3311
78870W        W53858  21.182   0.862   6.200 -0.0204  0.1392 -0.0586
78871W        W53859  16.796  14.292   7.795 -0.1554 -0.1174  0.3542
78872W        W53860   1.710  13.808  25.277 -0.2762 -0.0358 -0.0963
78873W        W53861  17.450  32.849  23.428  0.0045 -0.1270 -0.0676
78874W        W53862  11.271   8.289   5.962  0.0408  0.1012  0.0723
78875W        W53863  31.483   3.289   4.444  0.0211 -0.4623  0.2826
78876W        W53864  14.246  29.800   3.190 -0.0833  0.0132  0.2487
78877W        W53865   8.857   5.175  22.701  0.1412  0.1713 -0.0527
78878W        W53866  14.983  33.680  12.122 -0.1935  0.0584  0.2172
78879W        W53867   8.322   9.135   8.391 -0.1051 -0.0443 -0.1953
78880W        W53868  16.362  14.298  21.016 -0.0770  0.2585  0.0214
78881W        W53869   8.474  25.132  23.001 -0.0688 -0.0358 -0.1034
78882W        W53870  14.831  11.840   7.764  0.1003 -0.0053 -0.0930
78883W        W53871   4.596  24.442   8.084 -0.1121 -0.0221 -0.2017
78884W        W53872   9.763   9.764  20.670 -0.0596 -0.0657 -0.0022
78885W        W53873  23.867  35.339   1.139  0.1101 -0.2943  0.0122
78886W        W53874  32.010  20.601  14.252  0.0037  0.1186  0.0438
78887W        W53875  22.052  29.412  16.363 -0.1518 -0.4359  0.0307
78888W        W53876   0.638  11.056  22.516 -0.1188 -0.0602  0.1990
78889W        W53877  14.041  15.793   4.662 -0.3150  0.3347 -0.0329
78890W        W53878  18.137  21.499   6.850 -0.0904 -0.1524 -0.1057
78891W        W53879   6.771  33.822  24.997  0.1692  0.1478 -0.5487
78892W        W53880  23.491  22.399  16.075  0.0593 -0.1840 -0.3809
78893W        W53881  21.758  19.416  20.181 -0.0635 -0.1812  0.3763
78894W        W53882  26.140   1.599   1.538 -0.0026 -0.0325 -0.2844
78895W        W53883  11.623  12.701  13.321  0.2217 -0.0612  0.2932
78896W        W53884   2.279  19.811  20.973  0.0206 -0.1419  0.0410
78897W        W53885   9.902  27.149   4.707  0.1710 -0.2407 -0.0843
78898W        W53886   2.318  27.868   9.863 -0.0509  0.0316  0.0012
78899W        W53887  29.860  15.203  10.345 -0.1368 -0.0277  0.1059
78900W        W53888  15.277  21.793  21.494 -0.0765 -0.1427  0.0932
78901W        W53889   7.498   0.719  23.377  0.0700  0.1678 -0.0759
78902W        W53890  29.527  28.837  15.738 -0.0838  0.1205 -0.0935
78903W        W53891  24.338   8.014   1.617 -0.0303 -0.1085 -0.0965
78904W        W53892  22.310  24.268   3.237  0.2318 -0.2927 -0.1972
78905W        W53893  10.129   9.665  21.017  0.0741 -0.0943  0.0180
78906W        W53894   3.319  30.974   9.040 -0.2474 -0.1944 -0.0924
78907W        W53895  22.994  30.689  16.956  0.0144 -0.2101 -0.3941
78908W        W53896   3.348  31.012  19.006 -0.0043  0.2446 -0.3713
78909W        W53897  17.052  27.187  20.959 -0.2853  0.1598  0.3870
78910W        W53898  20.290   6.651  10.210 -0.1019 -0.1059  0.2471
78911W        W53899  20.309  16.009  19.884 -0.1236  0.0316 -0.3255
78912W        W53900  25.669  21.736  13.939 -0.0012 -0.0253  0.0026
78913W        W53901  32.145   6.033  19.850  0.0685  0.0558  0.0817
78914W        W53902  26.084  21.739  16.370 -0.1087  0.2788 -0.1574
78915W        W53903  14.415  20.921  15.978 -0.1388 -0.1467  0.0447
78916W        W53904  27.004   8.554  16.662  0.0578 -0.2295  0.0222
78917W        W53905  33.300  23.058  25.814  0.0338 -0.2022 -0.0854
78918W        W53906  17.047  28.672   2.933  0.2815  0.0257 -0.2486
78919W        W53907  10.394   3.727  19.897 -0.3277 -0.1048  0.0442
78920W        W53908  12.278  31.334  14.218 -0.3074 -0.0992  0.2089
78921W        W53909  26.822  12.176  13.136  0.2387 -0.0500 -0.1577
78922W        W53910   1.776   6.091  16.551  0.1884 -0.0687  0.1381
78923W        W53911   0.069  10.609  18.939 -0.4379 -0.3305  0.1553
78924W        W53912  17.125  15.699  22.568 -0.0912  0.0482  0.3079
78925W        W53913  17.649  30.766  17.912 -0.2510  0.0210 -0.0734
78926W        W53914  23.041  14.781  20.153 -0.2570  0.0231 -0.1958
78927W        W53915  27.887  24.496  18.570  0.0525  0.0348 -0.1155
78928W        W53916  30.158  23.329  20.797  0.0471 -0.2191  0.1919
78929W        W53917  16.557   6.355  20.290 -0.1955 -0.4454  0.3735
78930W        W53918   4.333   5.727   6.312  0.2330 -0.0461 -0.1103
78931W        W53919  32.593  25.394  10.096  0.2613 -0.0287 -0.2506
78932W        W53920  27.603   2.407  19.340  0.1519  0.1727  0.0462
78933W        W53921  34.874  27.771  18.480  0.2316  0.1369  0.2484
78934W        W53922  14.767  22.394   8.590 -0.1044 -0.0064  0.2073
78935W        W53923   6.777   2.061   1.842  0.0476  0.2947  0.1113
78936W        W53924  28.667  22.953   8.042  0.2985  0.1120 -0.2004
78937W        W53925   3.118   0.605   5.896 -0.1510 -0.1170  0.2350
78938W        W53926  10.403   3.232   9.438 -0.1727  0.0231 -0.4282
78939W        W53927  33.775  19.501  16.937 -0.2607 -0.3766 -0.1844
78940W        W53928   7.628  23.864   9.210  0.2947  0.1228 -0.2791
78941W        W53929   8.981   9.665   3.481 -0.0400  0.0465 -0.3693
78942W        W53930  26.989  34.187  16.416 -0.0463 -0.2017  0.1545
78943W        W53931  33.986   7.716  26.010  0.1110  0.0847 -0.2798
78944W        W53932   8.464   8.231   0.778 -0.1478 -0.0581  0.2441
78945W        W53933  29.567  13.002  13.994 -0.2635 -0.2244 -0.0765
78946W        W53934  15.854  32.135   5.382  0.3165 -0.2148  0.0461
78947W        W53935   7.938  27.633  26.067 -0.2584 -0.0129  0.1882
78948W        W53936  33.367   5.560  17.595  0.0290 -0.2203  0.2039
78949W        W53937  27.748  31.749  14.093 -0.3752 -0.1612  0.0494
78950W        W53938   4.715  33.876   1.698 -0.0132 -0.0747 -0.1460
78951W        W53939  32.748  29.003  18.108 -0.1033  0.0846  0.4458
78952W        W53940  23.663  34.914  23.709 -0.3635 -0.1521 -0.0383
78953W        W53941   1.887   9.392  15.996 -0.2019  0.2243  0.0490
78954W        W53942  29.319   9.291  13.097 -0.1536 -0.1667 -0.2269
78955W        W53943  20.006  35.222  22.386  0.3167  0.0210 -0.3266
78956W        W53944  10.275   5.825  19.011 -0.0725  0.2414  0.1009
78957W        W53945  14.838  17.706  14.262 -0.4660  0.1301 -0.3390
78958W        W53946   3.351  10.048  16.320 -0.0890  0.1475  0.0518
78959W        W53947   1.874  11.862  15.365  0.2299  0.1618  0.1545
78960W        W53948   9.731  32.111   6.491 -0.0070 -0.2330  0.0423
78961W        W53949   1.525  16.022  10.130 -0.4260  0.1976  0.2119
78962W        W53950   2.780  14.194   1.020  0.1003  0.0736 -0.1448
78963W        W53951  13.884  23.487   2.633  0.0251  0.1534 -0.1346
78964W        W53952  30.836  27.458   3.034 -0.2765  0.1091 -0.1132
78965W        W53953  13.136  33.294   8.260  0.0334  0.0576 -0.0267
78966W        W53954  23.584   2.881   1.878 -0.1378  0.3059 -0.1609
78967W        W53955   9.564  26.789   1.351 -0.1150 -0.1632  0.0748
78968W        W53956  21.328  33.839  15.422 -0.2514  0.0197  0.0436
78969W        W53957  29.948   1.132  18.949 -0.2423 -0.2780 -0.0655
78970W        W53958  19.048  32.519  23.682  0.2549  0.1450 -0.0728
78971W        W53959   6.195   5.312  20.039 -0.0732 -0.0860  0.1558
78972W        W53960   2.499  32.271  10.425  0.1691  0.0099 -0.2665
78973W        W53961   1.134   5.532  16.350 -0.1618 -0.1093  0.2947
78974W        W53962  21.771  30.383   0.243 -0.0378 -0.4421  0.0577
78975W        W53963  29.960  15.448  15.249 -0.0654 -0.1253  0.0285
78976W        W53964   7.597  30.087  15.534 -0.1814 -0.0289 -0.1591
78977W        W53965  30.604  18.679  13.084  0.0383  0.4567 -0.1521
78978W        W53966  21.066   8.786  17.254  0.4363  0.0220  0.0566
78979W        W53967  19.813  11.031   9.457 -0.1141  0.1243 -0.1562
78980W        W53968   7.639   5.327   2.134  0.0439 -0.1663 -0.3016
78981W        W53969  13.606  33.630   3.657  0.2578  0.2569  0.2653
78982W        W53970  35.378  17.424  24.199 -0.0713 -0.4004 -0.0296
78983W        W53971  14.951   4.566   0.949  0.3629 -0.1067 -0.0396
78984W        W53972  25.186   9.626   0.858  0.1095 -0.2984  0.1396
78985W        W53973   8.875  17.245   9.516  0.0022 -0.0214 -0.0907
78986W        W53974   6.262  23.061   6.155  0.1514 -0.0604 -0.1793
78987W        W53975  17.136   1.683  16.842  0.0888 -0.1017 -0.2237
78988W        W53976  31.551  29.846  15.435  0.0889 -0.2149 -0.2566
78989W        W53977  18.941  33.004   9.544  0.1271  0.1289 -0.1419
78990W        W53978  25.775   3.910  18.079  0.1432  0.1971  0.0806
78991W        W53979  23.698   0.572  21.763 -0.3486 -0.0069 -0.1144
78992W        W53980  30.223  20.759  22.403 -0.4194 -0.1463  0.1208
78993W        W53981  31.875  16.194  25.781 -0.0651  0.0349  0.0178
78994W        W53982  32.061  17.409   6.181  0.0001 -0.0589  0.2041
78995W        W53983  27.263  16.378  12.380 -0.1901 -0.1461 -0.2022
78996W        W53984   3.345  27.516  23.853  0.0498 -0.1342 -0.3821
78997W        W53985   5.860  13.034  22.993  0.1400  0.0671  0.1344
78998W        W53986   8.506  30.979   8.142 -0.2222 -0.0815 -0.1496
78999W        W53987  26.489  14.087  17.221 -0.1500  0.0280  0.0586
79000W        W53988   8.825   2.739   3.276  0.0276  0.1659 -0.0185
79001W        W53989   4.973  34.699  11.846 -0.0340 -0.0075  0.0078
79002W        W53990  32.284  27.069   0.122  0.0030  0.1528 -0.0681
79003W        W53991  13.239  25.278  16.474 -0.1575  0.0188 -0.2298
79004W        W53992  32.264  34.591  21.647  0.2044  0.1473 -0.2324
79005W        W53993  30.480   5.779  14.315  0.3344  0.1200  0.0580
79006W        W53994  12.356   1.527   6.013  0.1337 -0.0709  0.1922
79007W        W53995  27.410  19.376   4.801 -0.0822  0.2955 -0.2627
79008W        W53996   7.676  23.802  24.484 -0.1118  0.1868 -0.1159
79009W        W53997   5.063  28.165   3.755  0.0121 -0.1278  0.1085
79010W        W53998  28.575   0.905  20.242 -0.0163  0.0179  0.1221
79011W        W53999  15.354   3.435  11.522  0.0623  0.1639  0.1388
79012W        W54000  22.683  29.984  16.018 -0.1503 -0.0807 -0.0750
79013W        W54001   7.990  31.056  12.576  0.2225  0.1885  0.1385
79014W        W54002  16.211   7.307  19.400 -0.1547 -0.1480  0.1516
79015W        W54003  16.457  34.897   6.428 -0.2233 -0.1968  0.2125
79016W        W54004  32.558  20.620  11.843 -0.1682 -0.3615  0.1315
79017W        W54005  33.627  29.161  19.909 -0.0029 -0.0362 -0.0162
79018W        W54006  22.067   3.469   6.200 -0.1273 -0.3811  0.1021
79019W        W54007  12.091   0.260   3.168  0.2395 -0.1460  0.1158
79020W        W54008  31.318  13.745   0.428 -0.1804 -0.0595  0.2658
79021W        W54009  28.844  32.295  13.006 -0.1814  0.0182 -0.3542
79022W        W54010  28.313   6.691  23.777 -0.0197 -0.0602  0.0168
79023W        W54011  32.546  13.649  23.227  0.0789 -0.2165  0.1359
79024W        W54012  15.541  14.923   7.136  0.0980 -0.0558 -0.2900
79025W        W54013  18.491   0.069   8.660 -0.2355  0.0767 -0.0334
79026W        W54014  23.599  30.475  14.784  0.0855  0.3261 -0.3878
79027W        W54015  21.256   1.740  21.279  0.0453  0.0847  0.1121
79028W        W54016   3.543  26.008   8.178 -0.2659 -0.0920 -0.0990
79029W        W54017  15.682  30.385  25.789  0.1808  0.0274  0.1159
79030W        W54018   1.578  20.899  17.402  0.0917  0.3072  0.4275
79031W        W54019  28.991  25.240  11.017  0.1163  0.4114 -0.0343
79032W        W54020  21.169   5.746  15.772  0.1546  0.3115 -0.1213
79033W        W54021  10.300  23.005  13.715  0.1187  0.3727  0.0735
79034W        W54022  19.955  20.873   4.304  0.2283 -0.1966 -0.2280
79035W        W54023  24.030   0.709  22.745 -0.1982 -0.2726 -0.3305
79036W        W54024  30.799  15.837  20.456  0.1417  0.0422  0.3354
79037W        W54025   0.613  10.373  21.247 -0.1411 -0.0686  0.4296
79038W        W54026  25.794   5.611  18.943  0.0214 -0.0886 -0.1396
79039W        W54027  27.801  21.593  15.695  0.2362  0.2023  0.4607
79040W        W54028  29.745  28.405  15.809  0.3446  0.2044 -0.1390
79041W        W54029  33.098  20.013   8.669  0.1000 -0.0304  0.0235
79042W        W54030  11.731   1.612  24.590  0.3151 -0.2414  0.0286
79043W        W54031  29.945  32.766  17.449 -0.1546  0.0854  0.4714
79044W        W54032  14.001  16.017  13.591 -0.1817 -0.0941 -0.3830
79045W        W54033   4.496   5.276   4.209 -0.1794 -0.0943  0.0364
79046W        W54034   5.990  33.779   3.505 -0.1242 -0.0993 -0.2827
79047W        W54035  28.988  20.589  21.373  0.0540  0.0744  0.2519
79048W        W54036  20.047  16.690  19.600  0.0825  0.1686 -0.2162
79049W        W54037  35.244  28.466   1.246 -0.0295  0.0367  0.1024
79050W        W54038   1.176  27.967  23.847 -0.0989  0.2239 -0.0492
79051W        W54039  33.269  27.100  20.683 -0.1797 -0.0583 -0.0717
79052W        W54040   0.377   3.755  12.879 -0.3074  0.1155  0.0683
79053W        W54041   9.790   1.736   3.852  0.1172 -0.1774 -0.1644
79054W        W54042  19.523  14.975  17.913 -0.2470 -0.0022  0.2282
79055W        W54043  33.645  28.200  25.346  0.1236 -0.0272 -0.2644
79056W        W54044  17.036  18.180  21.093  0.3080  0.1072  0.1352
79057W        W54045   4.591  10.244  15.585  0.2718 -0.0993 -0.2126
79058W        W54046   6.851  16.180   7.821 -0.0733 -0.2219 -0.0611
79059W        W54047   8.465   2.968  11.251 -0.2394 -0.3306 -0.1591
79060W        W54048  22.589  19.415   0.107  0.0658 -0.1392 -0.0463
79061W        W54049  10.323  31.250  24.413 -0.1854 -0.4282  0.1428
79062W        W54050  12.468   9.977   0.565 -0.1213 -0.1970  0.3037
79063W        W54051  24.212  34.556  20.903 -0.2823  0.0865  0.1309
79064W        W54052  14.028  29.744   1.445  0.1475  0.1668  0.1608
79065W        W54053  11.424  22.358   3.468 -0.1709  0.0555 -0.1529
79066W        W54054   3.440   1.277  26.108 -0.1859  0.0270 -0.1636
79067W        W54055   4.182  29.774  12.443 -0.3074 -0.0099  0.0667
79068W        W54056  24.924  12.044   2.125 -0.0107 -0.0578 -0.0981
79069W        W54057   9.651  17.535   6.343  0.2384  0.0738 -0.0903
79070W        W54058   4.438  31.861   8.144 -0.3120  0.1885  0.1662
79071W        W54059   4.382  25.050  20.271  0.3364  0.2792  0.0602
79072W        W54060  33.711  33.793  19.452 -0.3429 -0.1924  0.0502
79073W        W54061   8.923  24.441   6.940 -0.0183  0.1102 -0.0602
79074W        W54062   0.568  21.444   0.004  0.3767  0.1098  0.2888
79075W        W54063  34.188  11.051  19.695  0.0505  0.0485  0.3968
79076W        W54064  35.063  33.244   3.995  0.0160 -0.0834 -0.2475
79077W        W54065  23.721   4.983   6.929 -0.3345 -0.3910 -0.2304
79078W        W54066  12.164  10.587  10.777 -0.0799 -0.3854  0.2859
79079W        W54067  25.152  28.162   9.051 -0.1635 -0.3717  0.1322
79080W        W54068   9.686  27.885   9.000 -0.2847 -0.0374 -0.3188
79081W        W54069   4.735  16.029  22.866  0.0085  0.2067  0.1459
79082W        W54070  13.672  31.571  26.192  0.2687 -0.1387  0.0844
79083W        W54071   4.014   4.307   0.724  0.3554 -0.0127 -0.0395
79084W        W54072  31.251  21.250  23.957 -0.3400 -0.1159  0.0474
79085W        W54073   2.397   3.004   0.308  0.0209 -0.1549  0.2342
79086W        W54074  28.785  14.778  19.164  0.2735  0.1876 -0.1143
79087W        W54075   0.861  22.444   9.773 -0.1754  0.0516  0.1357
79088W        W54076  10.795  22.644  16.075  0.1462 -0.0364  0.4906
79089W        W54077  30.512   9.420   1.259  0.0066  0.2349  0.0806
79090W        W54078  26.681   4.447  21.285  0.0036 -0.1140  0.0507
79091W        W54079  34.518   3.840   5.866 -0.0563  0.4962  0.1242
79092W        W54080   0.387   7.637   2.601  0.1221  0.4346  0.0277
79093W        W54081  29.122   1.113  19.154  0.0359 -0.0600 -0.2502
79094W        W54082  24.668   3.881   4.511  0.2234  0.0598 -0.1812
79095W        W54083  16.136   1.310   5.357 -0.1034 -0.0679 -0.1109
79096W        W54084  30.907  15.003  19.327  0.0130 -0.0193  0.2236
79097W        W54085  31.225  22.104  15.650  0.0363  0.1747  0.0918
79098W        W54086  28.114  30.235  18.485 -0.1066  0.0777 -0.2774
79099W        W54087   2.128  24.585   0.147 -0.2232 -0.2900  0.3361
79100W        W54088  17.617   4.860  22.878 -0.0518  0.4495  0.1809
79101W        W54089  16.176   0.622  17.946 -0.0629 -0.0666  0.0559
79102W        W54090   0.027  32.331  17.886 -0.0538 -0.2072 -0.0499
79103W        W54091   2.739  30.159   0.250 -0.4355 -0.2170  0.2330
79104W        W54092  10.901  16.511  25.006 -0.0028  0.3489 -0.1678
79105W        W54093  20.874  31.755  14.973  0.0560  0.0467  0.2039
79106W        W54094  15.056  23.630  24.589 -0.2981  0.1334 -0.0313
79107W        W54095  35.310   3.380  13.054 -0.1616  0.1830 -0.1540
79108W        W54096  13.974  15.665  25.527 -0.1298 -0.3145  0.1287
79109W        W54097  16.684  20.896  24.977 -0.0677  0.0231  0.0106
79110W        W54098  26.977  31.617  22.323 -0.0241  0.0244 -0.1418
79111W        W54099  10.306   1.171  22.192  0.0691 -0.0227  0.1802
79112W        W54100   9.513   4.420  10.628 -0.1340 -0.0728 -0.1797
79113W        W54101  31.240   7.041   2.276 -0.0050  0.2420 -0.0877
79114W        W54102  18.568  23.918  20.189 -0.1519  0.1895  0.2846
79115W        W54103  32.829   8.163  23.974  0.4718  0.1899 -0.0802
79116W        W54104  33.771   6.132  13.348 -0.1643 -0.1461 -0.1202
79117W        W54105  31.469  34.338   3.048  0.1056  0.2570  0.0449
79118W        W54106   7.228  17.747   8.109  0.0946  0.0686 -0.0435
79119W        W54107   6.288   2.414  20.797  0.1531  0.0005 -0.0472
79120W        W54108  16.681   5.560  20.939  0.1444  0.1571 -0.1861
79121W        W54109  18.405  19.787  23.354  0.0364  0.1505  0.0448
79122W        W54110  13.986  17.226   4.184 -0.1177 -0.2190 -0.1357
79123W        W54111  11.431  16.959  14.113 -0.2384 -0.0963 -0.0965
79124W        W54112   6.167   9.267   6.825  0.1591  0.1272 -0.1198
79125W        W54113  18.025   2.591  20.415  0.4540  0.1260 -0.0622
79126W        W54114   9.668  13.850  18.375 -0.0052  0.1142  0.0499
79127W        W54115  27.923  18.372  23.372  0.1832 -0.1824  0.3163
79128W        W54116  23.070  28.599  24.957  0.0295 -0.1835 -0.0599
79129W        W54117  16.474  33.582   2.979  0.0828 -0.1060 -0.0079
79130W        W54118   7.902   0.234   3.088  0.0703 -0.0509  0.3183
79131W        W54119   2.275   6.227  16.834  0.1087 -0.0717 -0.1929
79132W        W54120  31.344   7.936  21.157 -0.0215  0.0951 -0.0068
79133W        W54121   2.329  17.228  21.180  0.0155 -0.0354 -0.0525
79134W        W54122   6.200  12.595   2.168  0.4179 -0.1132  0.0817
79135W        W54123   5.835  34.146  20.298  0.2288 -0.2577 -0.0866
79136W        W54124   7.020  34.241  22.117  0.1214 -0.1800 -0.0392
79137W        W54125   7.132   3.045   3.587 -0.2250  0.3486  0.0496
79138W        W54126  12.236   1.762   4.524 -0.0329  0.1636  0.2035
79139W        W54127   6.293  32.551   6.521 -0.1944 -0.1203 -0.1042
79140W        W54128  32.331   9.355  24.088  0.2547  0.1918  0.1418
79141W        W54129  32.035  10.287  18.859  0.0634  0.0627  0.0461
79142W        W54130  28.635  24.561  20.192  0.1908  0.0099  0.0122
79143W        W54131  10.432  34.836   1.255 -0.1661 -0.3671 -0.1065
79144W        W54132   2.532   0.088   8.818 -0.0143 -0.0822  0.1765
79145W        W54133  34.928  33.930   6.396  0.2956  0.0416  0.2440
79146W        W54134  14.278   3.240  17.530 -0.0547 -0.0401  0.1345
79147W        W54135  24.893   3.883  17.854 -0.2942 -0.3348 -0.0338
79148W        W54136  24.559  13.541  23.445 -0.2406 -0.1662  0.1606
79149W        W54137  24.903   3.421  22.668 -0.1305  0.1755 -0.3518
79150W        W54138  14.868  15.617  23.647  0.0166  0.0239  0.0541
79151W        W54139  10.373  18.703   8.131 -0.0440 -0.1390  0.0008
79152W        W54140  14.974  21.706   3.634  0.1416  0.2233 -0.1053
79153W        W54141  30.495  31.414   1.072 -0.1340 -0.0655  0.0490
79154W        W54142  27.946  31.458  11.997  0.0289  0.0507  0.1614
79155W        W54143  19.869   6.078   8.349  0.0803  0.0881  0.2872
79156W        W54144  21.099   2.416   1.489  0.1262 -0.2163  0.1563
79157W        W54145  10.841  15.563   6.642 -0.1055 -0.0431 -0.0963
79158W        W54146  27.609   7.787  12.293  0.1619  0.0773 -0.2442
79159W        W54147   6.704  32.930  22.949  0.3401  0.1199  0.1236
79160W        W54148   4.084  33.087   2.145 -0.1453  0.1173 -0.0519
79161W        W54149  32.903  14.815  24.222  0.0086 -0.1767 -0.0065
79162W        W54150  32.673  28.858   3.923 -0.0736 -0.1329  0.2093
79163W        W54151  28.826  13.676  17.965  0.2198  0.1676 -0.0488
79164W        W54152  27.904  29.969  24.516  0.0201  0.0135  0.0233
79165W        W54153   4.364  13.938   4.710 -0.0545  0.1377 -0.0910
79166W        W54154  15.730   5.999   9.004  0.2189 -0.2523  0.0216
79167W        W54155  28.511   0.494  23.898 -0.4370  0.0515 -0.1357
79168W        W54156  25.379   1.502  21.165  0.3223 -0.2310  0.1169
79169W        W54157   7.039  35.154  26.122 -0.2336 -0.1402 -0.2667
79170W        W54158  13.805  30.290   7.540 -0.0088 -0.1456  0.1972
79171W        W54159  15.852  12.771  13.310 -0.1340 -0.0166  0.2920
79172W        W54160  12.308   4.836  10.829  0.3769  0.2770 -0.0335
79173W        W54161   0.694  10.636   1.538 -0.0902 -0.0674 -0.6092
79174W        W54162  10.537   2.021  10.558 -0.0505 -0.2010 -0.0104
79175W        W54163   2.436  31.747   3.883 -0.2889  0.1502  0.2989
79176W        W54164  19.944  16.093  22.755 -0.1105  0.3502 -0.2683
79177W        W54165  13.097  22.546  14.803  0.0681  0.3073 -0.1630
79178W        W54166  10.148  29.362   6.774  0.3067 -0.0582 -0.0304
79179W        W54167   5.518  17.693   5.941  0.3474 -0.1724 -0.0407
79180W        W54168  35.029  31.070  22.213  0.2694  0.0418  0.0140
79181W        W54169  27.829  21.512  17.548  0.2869 -0.2477 -0.1820
79182W        W54170   6.240  10.185   7.078  0.3264 -0.0889  0.2641
79183W        W54171   3.703  20.266   2.246  0.0730 -0.0250 -0.1628
79184W        W54172  13.656  35.132  23.937  0.0763 -0.1829  0.2013
79185W        W54173  17.231  30.779   2.545  0.0951  0.0258  0.0467
79186W        W54174   2.504   7.803  21.491 -0.0396  0.0823  0.2704
79187W        W54175   4.104  14.708  23.570  0.0095  0.1844  0.2941
79188W        W54176   4.311  30.590   5.526 -0.0295 -0.2895 -0.2918
79189W        W54177  24.369  14.152  10.196 -0.1188  0.3555  0.1330
79190W        W54178   0.934  29.546  25.595 -0.3265 -0.1179  0.2420
79191W        W54179  25.434  32.695  14.789  0.1774 -0.2095  0.0494
79192W        W54180  11.559   0.286  25.122 -0.0170 -0.1093 -0.0211
79193W        W54181  10.432  21.172  10.178  0.0682  0.0222 -0.0605
79194W        W54182  17.180  12.989   8.980 -0.0862 -0.0239  0.2850
79195W        W54183  15.557  19.551  21.527  0.0474 -0.1546 -0.0347
79196W        W54184  31.523  13.038  10.677 -0.0646  0.1879 -0.3797
79197W        W54185  15.572  18.915   3.927 -0.0421 -0.0299  0.2600
79198W        W54186  11.671   8.421  22.744 -0.0819 -0.1425  0.0448
79199W        W54187  31.593   9.604   9.865 -0.2699 -0.0597  0.1311
79200W        W54188   3.059  29.676  19.224 -0.3903  0.1649 -0.0710
79201W        W54189  31.833   5.981   9.882 -0.1874 -0.0051  0.1805
79202W        W54190  34.309   6.920  12.262  0.0136 -0.2683 -0.1226
79203W        W54191   6.193  30.351   7.084 -0.1032 -0.1904 -0.2929
79204W        W54192  30.663   1.634   0.833 -0.2797 -0.1590 -0.0427
79205W        W54193  12.057  25.548   8.368  0.2915 -0.0645  0.1571
79206W        W54194  18.603   7.744  18.715 -0.1077  0.0152 -0.0195
79207W        W54195  32.152  25.782  22.551  0.0206 -0.3030  0.1287
79208W        W54196  30.752  35.252  24.466  0.0114  0.0073  0.0498
79209W        W54197   1.181  18.718  20.495 -0.3204 -0.0546  0.0272
79210W        W54198  27.541   8.944  17.791 -0.1536 -0.0811 -0.0884
79211W        W54199   3.439   3.541   2.118 -0.2390  0.1362  0.1716
79212W        W54200   4.159  33.720   1.729 -0.2285  0.2328 -0.0046
79213W        W54201   7.084  26.724   1.525 -0.1021  0.1037 -0.3399
79214W        W54202  26.065  17.515   5.849  0.0166  0.1789 -0.0648
79215W        W54203  31.485  10.080  21.167  0.0203 -0.1171 -0.0714
79216W        W54204  18.375  18.389  23.241  0.1807 -0.1119  0.2197
79217W        W54205   3.382  28.247   6.003 -0.0742 -0.0586 -0.1344
79218W        W54206   6.620  35.131   1.486  0.2279  0.0427  0.2555
79219W        W54207  30.206  30.716  10.283 -0.2572  0.0919  0.0735
79220W        W54208  30.399  29.754  21.656 -0.0510  0.1417 -0.0942
79221W        W54209  15.255   6.369   8.583 -0.1146 -0.2379  0.0202
79222W        W54210  15.196  14.531   2.478 -0.1124 -0.0319 -0.0029
79223W        W54211   5.437  20.464  25.051  0.0546  0.0515 -0.4190
79224W        W54212  32.311  21.855  25.794 -0.1501 -0.2090 -0.1060
79225W        W54213  18.576   8.021  17.734 -0.3018 -0.0781  0.3029
79226W        W54214   3.563  10.142  17.614 -0.0118  0.0767 -0.0554
79227W        W54215  10.770   0.285  10.827 -0.0795 -0.4258 -0.1668
79228W        W54216  10.424   7.233  20.408 -0.1711  0.2239  0.2457
79229W        W54217   7.296   9.411   6.455 -0.3680 -0.1307  0.1451
79230W        W54218  35.145  22.444  13.070 -0.1092 -0.0289 -0.0448
79231W        W54219  14.282   0.441   0.320  0.0961  0.1678  0.1014
79232W        W54220  23.599  16.160  12.385 -0.1387 -0.0567  0.1609
79233W        W54221  31.933   7.350  22.320  0.4324  0.1531  0.1717
79234W        W54222  15.461  27.312  10.818 -0.1620  0.0523 -0.1348
79235W        W54223  28.265  31.671  13.758 -0.1814 -0.2160 -0.3516
79236W        W54224   4.505   4.167  21.025  0.0369  0.0855 -0.1735
79237W        W54225   0.632  13.200  18.907  0.1682 -0.1995  0.1688
79238W        W54226   8.882  18.954   7.735  0.2416 -0.1851 -0.2377
79239W        W54227  17.269  33.725  22.496  0.2242  0.0506  0.1150
79240W        W54228   0.086   3.512  14.699 -0.0438  0.0077  0.3217
79241W        W54229  25.459  17.450   0.498  0.1986  0.1906  0.1286
79242W        W54230   4.210  14.384  16.318 -0.2884 -0.2600 -0.3363
79243W        W54231  24.078   6.964  22.295 -0.3972  0.0062 -0.0278
79244W        W54232  31.082  13.002   9.812  0.2129 -0.0974  0.1259
79245W        W54233  24.870  29.732  19.492 -0.0983 -0.0022 -0.1097
79246W        W54234  20.771  11.743  18.105 -0.5391 -0.0122 -0.0169
79247W        W54235   4.187  31.377  10.870 -0.1716  0.0862  0.2349
79248W        W54236  14.248  17.954  14.718 -0.2985  0.0521  0.3953
79249W        W54237   6.692  12.415   9.190 -0.0944 -0.3180 -0.1709
79250W        W54238  33.041  13.561  14.545  0.0413  0.1136 -0.1945
79251W        W54239   1.832  10.221   5.454  0.0173 -0.1700 -0.0086
79252W        W54240  16.160  19.172   4.687  0.1748  0.1356  0.3475
79253W        W54241  22.752  34.623   5.670  0.3497  0.2043 -0.2389
79254W        W54242  19.636  28.748   6.884 -0.0832 -0.1047 -0.1558
79255W        W54243  33.268   9.675  18.830  0.1387  0.2666 -0.0023
79256W        W54244  10.572   0.149  23.700 -0.2101  0.1195 -0.0502
79257W        W54245  28.846  12.589  16.930 -0.0523 -0.1332 -0.1562
79258W        W54246  15.142   5.271  25.535  0.1075  0.4720  0.3658
79259W        W54247  30.910  18.588   7.350 -0.0516  0.3757 -0.0189
79260W        W54248  21.693   7.625   6.933 -0.1810 -0.1428  0.0342
79261W        W54249   1.871  19.117  24.005 -0.1202  0.2212 -0.0559
79262W        W54250  28.706   5.638  14.985 -0.1892 -0.1234  0.2556
79263W        W54251  18.439  18.628  11.833 -0.3198  0.0856 -0.0341
79264W        W54252   2.032  27.464  10.047  0.1505  0.2128  0.0530
79265W        W54253   6.184  28.044  22.681  0.1894  0.0197  0.1207
79266W        W54254  34.461  13.564  18.130 -0.4767  0.0623  0.2734
79267W        W54255  14.618  13.176  10.319  0.1017 -0.2416 -0.0419
79268W        W54256  23.677   0.576  18.885 -0.0526 -0.1280  0.1541
79269W        W54257  21.718  11.720   5.218 -0.2523 -0.1190 -0.3458
79270W        W54258  12.603  16.410  23.946  0.4685  0.3058 -0.1874
79271W        W54259  25.103  15.681  19.121  0.1456 -0.1245 -0.1312
79272W        W54260  22.279  15.247  19.415 -0.3608  0.2902 -0.0053
79273W        W54261  34.639   3.903   6.887  0.0411 -0.3270 -0.0647
79274W        W54262  35.245  14.247   0.819 -0.1858 -0.0871 -0.2639
79275W        W54263   6.273  22.651   1.989  0.0705  0.1174  0.0654
79276W        W54264  13.276  27.734  14.382  0.0453 -0.1172  0.2682
79277W        W54265   6.807   4.091   8.245  0.3959 -0.2288 -0.0018
79278W        W54266  11.286   3.208  23.466  0.1574  0.0196 -0.3920
79279W        W54267  15.165  16.333   6.108  0.0122  0.1239 -0.1165
79280W        W54268  15.041  23.423   7.011 -0.2520 -0.0542  0.0658
79281W        W54269  21.122  17.954   2.550 -0.1768  0.2977 -0.0414
79282W        W54270   7.264  14.840   6.718 -0.2684 -0.0412 -0.3154
79283W        W54271  30.459  34.562  21.032  0.2153 -0.0768 -0.1964
79284W        W54272  17.346   2.382  23.971 -0.3262  0.0185 -0.0006
79285W        W54273   2.850   1.363   2.000 -0.2010 -0.0373 -0.0605
79286W        W54274  31.139   6.964   0.330 -0.1142  0.1699 -0.1285
79287W        W54275  25.949  23.764  13.198 -0.2993  0.0812 -0.0494
79288W        W54276   3.371   3.926  22.489 -0.0951  0.3599  0.0417
79289W        W54277  17.794  11.188  21.274 -0.0412 -0.2212 -0.0954
79290W        W54278  11.300   7.276  20.881 -0.2574 -0.2435  0.0450
79291W        W54279   6.055   2.222  22.653  0.0098 -0.0438  0.1534
79292W        W54280  33.886  11.015  19.134 -0.2001 -0.1525  0.1492
79293W        W54281  34.823  34.560  25.706 -0.0106 -0.1462 -0.1205
79294W        W54282  33.015  32.136  23.651  0.3183 -0.1451  0.1345
79295W        W54283  29.858   9.350  18.641 -0.1018  0.1369 -0.2350
79296W        W54284  17.863  29.317   2.554 -0.0990  0.2823 -0.0601
79297W        W54285  10.366   3.264  23.983  0.0405  0.2396 -0.0932
79298W        W54286   2.425  22.079   2.005 -0.1505  0.3520  0.0935
79299W        W54287   5.355   6.718   7.943  0.2144 -0.1646 -0.2596
79300W        W54288  12.035  11.886   4.058  0.2045 -0.0083  0.2170
79301W        W54289  34.094   2.195   2.855  0.1124  0.5898  0.2686
79302W        W54290  29.287  33.013  24.533 -0.1418  0.0243 -0.0216
79303W        W54291  28.727   5.596  14.124 -0.1288  0.0929 -0.4212
79304W        W54292   6.754  33.232   2.462 -0.2991 -0.2240 -0.1349
79305W        W54293  28.172  18.772   8.964  0.0297  0.3371  0.0546
79306W        W54294  33.045  22.135  13.430 -0.3401  0.1862  0.1214
79307W        W54295   4.807  10.947  19.698 -0.0102 -0.0332  0.0856
79308W        W54296  25.783  28.520  24.098  0.0390 -0.4019  0.0651
79309W        W54297  11.011  17.017  20.378  0.0968 -0.3217  0.0999
79310W        W54298  19.856  10.911  10.007 -0.1053  0.0720  0.1125
79311W        W54299   1.984  28.280   5.609 -0.2330  0.0797 -0.3228
79312W        W54300   0.576  29.631   0.783 -0.2490 -0.1421 -0.1650
79313W        W54301   1.337  30.688   3.787  0.3257 -0.1385 -0.0760
79314W        W54302  23.520  26.790   1.751 -0.1883  0.1685  0.0260
79315W        W54303  27.783  35.335  13.960 -0.0604 -0.0754 -0.1757
79316W        W54304  24.434  13.744  21.875  0.0734 -0.0691 -0.0455
79317W        W54305  11.231  23.856  24.524 -0.1131 -0.1821  0.0406
79318W        W54306  16.949  28.185   6.651  0.0311 -0.0610  0.0060
79319W        W54307  12.170   0.900  24.853  0.0165  0.0501 -0.0316
79320W        W54308  24.693  33.920  13.609  0.4856 -0.0239 -0.1484
79321W        W54309  10.528   9.746  12.582  0.2772 -0.1357 -0.1273
79322W        W54310  33.993  34.617   6.298 -0.0012 -0.0057  0.3663
79323W        W54311  10.349   5.632  20.484 -0.0562  0.1588 -0.6139
79324W        W54312  25.324   2.894  14.942 -0.0831  0.0457 -0.0459
79325W        W54313  25.315  25.424  19.093 -0.4091 -0.3172  0.1334
79326W        W54314   3.018  10.928   4.600  0.1075  0.1100  0.5505
79327W        W54315  23.413  32.756   0.548  0.0216 -0.1452 -0.1236
79328W        W54316  31.301  32.336  17.042 -0.3527 -0.0345 -0.0649
79329W        W54317  26.565  19.136  25.855 -0.3618  0.0567  0.4328
79330W        W54318  20.945  12.385   9.073 -0.0898  0.1512 -0.0358
79331W        W54319   0.479   5.537   0.586 -0.1664 -0.2244  0.1819
79332W        W54320   7.373  28.665  10.415  0.1440 -0.1699 -0.1199
79333W        W54321   4.754  29.483  24.027 -0.2361 -0.0401  0.1078
79334W        W54322   3.937  10.798  15.642 -0.1303  0.0959  0.0672
79335W        W54323   3.167  30.978  11.869 -0.0968  0.0506 -0.1437
79336W        W54324  29.737  24.637   7.739 -0.2471 -0.2676  0.0204
79337W        W54325   2.399  30.022   6.844 -0.3253 -0.5071 -0.4466
79338W        W54326   5.696   0.834  24.274 -0.4045 -0.0107  0.4732
79339W        W54327   5.493  14.805  21.625 -0.4016  0.2193 -0.2414
79340W        W54328  31.588   1.950  22.119  0.0859  0.1326  0.0783
79341W        W54329  28.184   1.500   3.146  0.1209 -0.0035 -0.1590
79342W        W54330  22.712  18.512  26.188 -0.0370  0.1500  0.2546
79343W        W54331  18.814  13.748  25.041 -0.1135 -0.0956 -0.0505
79344W        W54332   4.124  12.908   2.080 -0.1923 -0.0091  0.3883
79345W        W54333  27.298   0.268  21.765  0.1389 -0.0544  0.1213
79346W        W54334  10.605   1.338   4.669 -0.1506  0.1817  0.1220
79347W        W54335  19.253  11.418   9.259 -0.1672  0.1042 -0.0302
79348W        W54336   9.558  32.067   4.598  0.0611  0.2083  0.1555
79349W        W54337   0.255  11.661  14.058  0.0354  0.3608 -0.1875
79350W        W54338  19.472   9.208  22.286 -0.1447  0.0753 -0.1474
79351W        W54339   0.511   2.664  19.827  0.0572 -0.0354 -0.1005
79352W        W54340  23.393  16.307  14.796 -0.1513 -0.1442  0.2168
79353W        W54341  10.197   0.697  11.487  0.3826 -0.1435  0.0636
79354W        W54342   8.279  12.096   8.153 -0.0345 -0.0302  0.2902
79355W        W54343  27.978   0.195  13.198  0.4198  0.1645  0.0419
79356W        W54344  25.904  34.288  20.206 -0.0269 -0.1405 -0.2211
79357W        W54345   5.883  25.771   1.337  0.3451  0.0535  0.2863
79358W        W54346  26.986  13.051  11.619 -0.0916 -0.0844 -0.2532
79359W        W54347  13.288   0.156  23.321 -0.1534  0.0482  0.2299
79360W        W54348  32.613  15.353  25.749  0.2819 -0.2179  0.0202
79361W        W54349  12.080  28.416   7.930  0.1076 -0.0445 -0.3115
79362W        W54350  25.313   9.217  24.126 -0.0110  0.0077 -0.2317
79363W        W54351  20.273   3.740   9.922 -0.1721  0.1053  0.0207
79364W        W54352   6.630  30.788  25.664 -0.1864 -0.1621  0.0538
79365W        W54353  31.760  29.519   2.233  0.0529  0.1460  0.0650
79366W        W54354   9.244  16.470   2.581  0.0684 -0.1639 -0.2790
79367W        W54355  33.662   8.955  19.167  0.0626  0.2565 -0.2645
79368W        W54356  18.177  11.388   8.190  0.2371  0.3103  0.1531
79369W        W54357   6.175  28.415  12.824  0.4340 -0.3897  0.1739
79370W        W54358  14.161   2.211   4.667  0.0552  0.2075  0.0487
79371W        W54359  29.275  29.011  14.385 -0.0725  0.1088  0.0592
79372W        W54360   4.646  17.609  19.978  0.2998  0.0679 -0.0439
79373W        W54361  31.090  10.863  21.017 -0.1589 -0.0418 -0.2074
79374W        W54362  34.582  13.441  10.386 -0.2999 -0.0845  0.2461
79375W        W54363  29.645   4.748   0.478  0.0897 -0.2375 -0.0091
79376W        W54364  13.982  15.354   4.466  0.1882  0.0555  0.3180
79377W        W54365  27.827  19.719   6.112 -0.3379 -0.0201 -0.1270
79378W        W54366  21.053   3.228   5.748 -0.0964 -0.0922  0.1242
79379W        W54367   8.508   7.742   5.785  0.1128  0.1605  0.0659
79380W        W54368  26.676  31.363   0.468 -0.3062  0.2015  0.0222
79381W        W54369  29.106  33.095   3.288  0.2464 -0.0228  0.1197
79382W        W54370  15.994  29.461   2.777  0.1765 -0.1728  0.0024
79383W        W54371  23.256  21.291  15.449  0.0104 -0.1318 -0.4791
79384W        W54372  35.309   9.280   1.124 -0.1651  0.1144  0.0449
79385W        W54373   7.361  30.969  24.958  0.0363 -0.2560  0.1409
79386W        W54374  25.375  11.413  23.037  0.2119 -0.0648 -0.0609
79387W        W54375  16.948  24.073  22.565 -0.0580  0.0730  0.1104
79388W        W54376  31.169   6.299  19.534 -0.1274 -0.1979  0.1663
79389W        W54377  23.559   3.548   1.232  0.1605  0.0314  0.3062
79390W        W54378   8.516  31.642  20.671  0.4256 -0.0389 -0.0138
79391W        W54379  20.645  30.167   5.569 -0.1615  0.1883 -0.0727
79392W        W54380  31.802   9.392  22.390  0.4064  0.0402 -0.0661
79393W        W54381  15.970  20.612   3.004  0.1732 -0.1796 -0.0257
79394W        W54382   5.424   1.967  23.634 -0.0014 -0.0806 -0.0402
79395W        W54383   1.764   7.014  18.718  0.1992  0.0852  0.0803
79396W        W54384  33.167   4.290  23.638  0.0156 -0.3764 -0.0905
79397W        W54385  31.190   7.658  13.562 -0.0543  0.2056 -0.1068
79398W        W54386  35.343  31.493   0.911 -0.1412 -0.2263  0.1502
79399W        W54387  10.249  23.405  14.050 -0.1266  0.0647  0.4779
79400W        W54388  19.880  21.356  19.824  0.4170  0.0906  0.2024
79401W        W54389   6.576  11.594   9.794 -0.0047 -0.0312  0.2420
79402W        W54390  22.417  11.975   3.860 -0.1478 -0.2254  0.1841
79403W        W54391  27.347  18.930  26.126  0.3348  0.0984 -0.2343
79404W        W54392   4.935  18.423   0.691  0.2411 -0.2095 -0.2697
79405W        W54393  25.933   8.466  11.619 -0.0741 -0.0339 -0.1606
79406W        W54394  14.234  29.840  26.204 -0.1035  0.1192 -0.1389
79407W        W54395   3.905  31.408   1.291  0.0739 -0.4473 -0.2338
79408W        W54396  18.893  34.905  22.852  0.1060  0.0518  0.0410
79409W        W54397  15.690   8.321   7.692  0.0572 -0.1421 -0.1549
79410W        W54398  23.140   3.535  25.304 -0.2363  0.0330  0.0091
79411W        W54399  19.962  25.189   2.313 -0.2896  0.2180  0.1121
79412W        W54400   7.408  15.389  26.049  0.2684 -0.1203  0.0013
79413W        W54401  11.915  31.138   5.952 -0.0426  0.2105 -0.1258
79414W        W54402  30.893  18.968  22.627  0.0964 -0.0702 -0.0504
79415W        W54403  17.813  31.186  24.808  0.1096  0.1465  0.2812
79416W        W54404  26.954  34.433  21.087 -0.2699  0.1729 -0.2001
79417W        W54405  19.932  26.035   0.589 -0.2782  0.0453  0.1806
79418W        W54406  17.956  26.961   6.902 -0.3108 -0.0783  0.0541
79419W        W54407  34.350  30.640  25.773 -0.0278  0.1429  0.1500
79420W        W54408   0.110   4.504  23.540 -0.1369 -0.3100 -0.1099
79421W        W54409   0.128  18.910  24.245  0.2337  0.0359 -0.2162
79422W        W54410  32.009  32.020  17.183  0.0269 -0.2217  0.1772
79423W        W54411  26.292  10.625  13.943 -0.0106 -0.0061  0.1654
79424W        W54412  27.836  13.522  24.489  0.4975 -0.0454  0.0621
79425W        W54413   5.253  29.433  10.986 -0.1157  0.2787 -0.0134
79426W        W54414  27.731  17.817  18.570 -0.1712  0.0764  0.0242
79427W        W54415  21.265  24.520  21.240 -0.0738 -0.0761  0.1921
79428W        W54416  33.713  22.996   1.136 -0.2389  0.0580  0.2687
79429W        W54417  25.503  33.481  11.625 -0.0897  0.2525  0.3078
79430W        W54418  18.788  14.082   4.322 -0.0113  0.1975 -0.3156
79431W        W54419   0.134  19.313  16.057 -0.2921 -0.2323 -0.1598
79432W        W54420  28.534  22.169   9.252  0.0136  0.0973 -0.1353
79433W        W54421  14.562   6.920   9.005 -0.1850  0.0837  0.1085
79434W        W54422  19.636  21.569  10.592  0.3873  0.0026  0.3960
79435W        W54423   3.721   7.390  19.532 -0.0081  0.0425 -0.0151
79436W        W54424   3.339   1.875  20.223  0.1668  0.1663  0.3877
79437W        W54425  24.731   7.341  22.976 -0.3869  0.0781 -0.0073
79438W        W54426  34.532   7.413  12.303  0.0111 -0.1068  0.1039
79439W        W54427  30.579  19.018  26.149  0.3171  0.0289 -0.2690
79440W        W54428  26.549   9.201  24.776  0.0730 -0.3054  0.1022
79441W        W54429  15.645  21.077   3.201  0.0252  0.0735  0.2102
79442W        W54430  19.093  31.654   3.269 -0.0899  0.0703 -0.2273
79443W        W54431   8.858   7.162   1.996  0.2219  0.2190 -0.0827
79444W        W54432  25.874  11.636  17.655  0.1695 -0.2068 -0.3662
79445W        W54433   4.981  16.228   2.720 -0.0301 -0.2484 -0.0115
79446W        W54434  30.048   4.442   2.877 -0.1849 -0.3795  0.2290
79447W        W54435  18.173  32.412  20.202  0.1196  0.0872  0.1056
79448W        W54436  32.658  16.572  14.210  0.2305 -0.0249 -0.1870
79449W        W54437  26.546   6.776  18.835  0.0411 -0.1112 -0.0304
79450W        W54438  19.613  12.311  19.925 -0.0767 -0.3207 -0.1186
79451W        W54439   9.380   1.557  10.691 -0.1682 -0.1007 -0.1401
79452W        W54440   8.511  11.733   2.088 -0.0635  0.0407  0.2906
79453W        W54441  11.263  33.269   1.359 -0.4973 -0.0694 -0.1328
79454W        W54442  15.140  27.367   5.253  0.2507 -0.1622 -0.0725
79455W        W54443   7.276   4.318  10.397 -0.2174 -0.1486 -0.0548
79456W        W54444  20.370  22.228  18.165 -0.1928  0.0048  0.4158
79457W        W54445  14.021   5.317  25.989 -0.5888 -0.0315  0.2138
79458W        W54446  12.843  24.920  25.933 -0.0052 -0.1631  0.1214
79459W        W54447  24.909  18.035   8.840  0.5596  0.3023  0.1160
79460W        W54448  31.937  25.125  14.844 -0.0685 -0.2860  0.0958
79461W        W54449  19.871  19.839  20.652  0.0478  0.2736 -0.1857
79462W        W54450  29.704  10.897  17.835  0.1644  0.0733  0.1131
79463W        W54451  26.196  16.899   8.850  0.0356 -0.0136  0.3049
79464W        W54452   3.795  26.489   8.120 -0.0476 -0.1386 -0.0819
79465W        W54453  19.980  34.826  16.865  0.1185  0.2814 -0.0327
79466W        W54454  12.079  34.376   2.905 -0.2659  0.0757 -0.0360
79467W        W54455  15.950  32.400   1.613  0.0786 -0.1122  0.0235
79468W        W54456  18.707  10.270  11.485  0.1176 -0.2917 -0.0933
79469W        W54457  32.961  22.525  13.743  0.2909  0.1000  0.1870
79470W        W54458  22.296   4.167  18.065 -0.4052  0.2267  0.4632
79471W        W54459  13.890  30.332   1.108  0.1111  0.0285 -0.0544
79472W        W54460  28.401  24.283  25.126 -0.0787  0.1226 -0.5823
79473W        W54461   9.263   5.069  23.868 -0.2426 -0.1029 -0.0240
79474W        W54462  15.408  15.679   8.142  0.1397 -0.0293  0.0254
79475W        W54463   0.339   5.831  23.066  0.3976  0.1404 -0.0155
79476W        W54464  15.597  22.171  22.436 -0.3274  0.2999 -0.0974
79477W        W54465  17.562  32.136   6.667 -0.0181 -0.1507  0.1890
79478W        W54466  11.787  13.216   1.569  0.0519  0.1319 -0.2754
79479W        W54467  27.848   8.119  11.650 -0.4783 -0.2048 -0.4255
79480W        W54468  29.417   2.931   1.868  0.4121 -0.2266  0.2406
79481W        W54469   4.374   8.909   5.193  0.1017 -0.2427  0.1166
79482W        W54470  23.362   8.292  15.365  0.0844  0.1449  0.0938
79483W        W54471  28.684  28.297  22.845 -0.1322  0.3448  0.0953
79484W        W54472  12.829  18.403  23.777  0.3245  0.1617  0.1467
79485W        W54473  19.221  31.551   4.189  0.2293  0.2547 -0.0006
79486W        W54474  31.644  26.051   1.235 -0.5100  0.2571 -0.0111
79487W        W54475   3.522  13.702  22.715 -0.0852 -0.0013 -0.3765
79488W        W54476  11.641  34.613  12.641 -0.1755 -0.0549 -0.3933
79489W        W54477   2.585  17.507  20.813  0.0312  0.0986  0.0312
79490W        W54478  34.203  28.689   3.551 -0.0375  0.0566 -0.1824
79491W        W54479   9.347  25.786  25.867  0.0042  0.0347  0.2169
79492W        W54480  19.944  15.339   8.100 -0.2197  0.0471 -0.1987
79493W        W54481  27.353  27.690  18.978  0.0219 -0.0911 -0.0573
79494W        W54482  32.832  17.417  21.262  0.2196  0.0078 -0.1181
79495W        W54483  14.369  22.553   6.717 -0.0043 -0.0209  0.1181
79496W        W54484  17.422  10.077   5.145 -0.0234 -0.0896  0.0375
79497W        W54485  12.624  30.933   1.741 -0.4338  0.0773  0.5313
79498W        W54486  20.604  32.043   1.710 -0.1328  0.1779  0.4772
79499W        W54487  28.986   8.126   0.172 -0.0946  0.0469  0.1793
79500W        W54488   8.211   2.158  12.166 -0.1187  0.2554 -0.3169
79501W        W54489  12.139  17.027   1.380 -0.0978  0.2057  0.1572
79502W        W54490  18.626   1.036   8.343  0.1249 -0.0584 -0.1492
79503W        W54491  12.931  19.438  22.813 -0.2047  0.1870  0.1718
79504W        W54492  31.734  25.706  19.321 -0.3241  0.0438 -0.0486
79505W        W54493  24.007  18.001  12.814 -0.2705  0.2021  0.1706
79506W        W54494  31.928  19.548  22.725 -0.1177  0.2450  0.0537
79507W        W54495  25.251   1.706   6.400  0.0010  0.1605 -0.0069
79508W        W54496   2.320  20.179  22.093 -0.0568  0.0444 -0.1031
79509W        W54497  19.391  25.191   3.546 -0.1882 -0.0555  0.1508
79510W        W54498  17.889  34.801   0.503  0.2022  0.2874 -0.2513
79511W        W54499   6.301  31.195  22.505  0.1076 -0.1502 -0.2377
79512W        W54500  24.943  14.388  15.521  0.0127  0.2170  0.4016
79513W        W54501  24.376  11.402  12.249  0.1365  0.1184 -0.1649
79514W        W54502  26.589   4.039  25.403  0.2776  0.2218 -0.2815
79515W        W54503  19.081   5.267   5.215 -0.0046  0.0294 -0.2804
79516W        W54504  34.473  32.915   4.055  0.2254  0.3184  0.4416
79517W        W54505   3.523   6.976  23.380 -0.0735  0.0930 -0.4378
79518W        W54506  10.457   6.640  11.034  0.1257 -0.1110 -0.1457
79519W        W54507  18.514  23.464  10.412 -0.2066  0.1563 -0.0525
79520W        W54508  10.019  28.603  25.688  0.7614 -0.0536  0.0255
79521W        W54509   0.546   9.058   2.798 -0.0413 -0.0578 -0.1817
79522W        W54510  34.198   4.646  18.149 -0.1802  0.2661  0.0216
79523W        W54511  11.412  31.605   6.573  0.1057 -0.3941 -0.0989
79524W        W54512  15.358  10.953   5.216  0.1234  0.0105 -0.0873
79525W        W54513  28.110  12.066  22.635  0.2955  0.1587 -0.2568
79526W        W54514   0.731  31.149  26.163 -0.1458  0.1071  0.1072
79527W        W54515   5.680  29.605   2.589  0.1553 -0.0126  0.0610
79528W        W54516  26.454  10.630   9.956 -0.4687 -0.0839 -0.0639
79529W        W54517  32.681  34.589  23.360 -0.4227  0.0880  0.1159
79530W        W54518  11.237   2.563  24.957  0.2222 -0.0494  0.0160
79531W        W54519  15.737  23.957   5.513 -0.0694  0.1074 -0.0430
79532W        W54520  32.939  26.439  15.402  0.0210  0.1815  0.3826
79533W        W54521  12.544  10.729   5.782 -0.0669  0.1956 -0.3342
79534W        W54522   7.288   6.602  25.770 -0.1959 -0.0736  0.3440
79535W        W54523  32.574  18.933  23.153  0.2542  0.3718 -0.3070
79536W        W54524  33.454   0.335   4.052 -0.2893 -0.2357  0.4662
79537W        W54525  17.929   8.803   4.834 -0.2448 -0.2916  0.0047
79538W        W54526   2.616  12.178  22.606  0.0337 -0.0541 -0.4561
79539W        W54527  16.401  23.285   0.679  0.1573 -0.0581  0.2062
79540W        W54528  25.328   2.671   6.514 -0.1875  0.0439 -0.3538
79541W        W54529   4.980   7.647  17.176  0.1794 -0.0804 -0.0855
79542W        W54530  11.782  27.308  16.004  0.1900  0.1021 -0.0745
79543W        W54531  25.386  15.548  24.420  0.0172 -0.1347 -0.1766
79544W        W54532  25.213   8.630  22.933  0.0613  0.0123 -0.2337
79545W        W54533  29.582  24.132  13.829 -0.1980 -0.0161 -0.0278
79546W        W54534  11.636  16.190   3.125  0.1483 -0.2422  0.0292
79547W        W54535  25.033  22.746   1.307 -0.3157  0.2353 -0.2021
79548W        W54536  15.108   5.603   1.017  0.0378  0.1274 -0.0217
79549W        W54537  20.601  13.891   5.197 -0.1673  0.0082  0.2067
79550W        W54538  21.644  15.220  17.046 -0.3649 -0.0334 -0.0403
79551W        W54539  33.690  13.899  18.699 -0.4726 -0.4391 -0.3592
79552W        W54540  13.386  17.344   2.748  0.2506 -0.1597 -0.1934
79553W        W54541  14.297  34.419   8.495 -0.1240  0.2501 -0.0333
79554W        W54542  18.527   2.130   9.957  0.1214 -0.2112 -0.1537
79555W        W54543  10.558  13.677  12.894 -0.1667  0.4934  0.0079
79556W        W54544   5.229   0.033   8.197  0.0618  0.0581  0.0283
79557W        W54545   9.265  29.125  12.316  0.1323  0.1192 -0.0751
79558W        W54546  18.362   0.788  17.978 -0.2398 -0.1920  0.3321
79559W        W54547   3.084   3.233  26.073 -0.0191 -0.2261  0.2703
79560W        W54548  27.985  28.683  22.452  0.2995  0.1041  0.2449
79561W        W54549   5.006  31.287   5.433  0.2340  0.0869 -0.1422
79562W        W54550  20.206   4.434  21.015  0.1533  0.0959  0.1805
79563W        W54551  32.831   5.942   0.354 -0.0616  0.2293  0.0021
79564W        W54552   2.523  30.683   1.826  0.1009  0.0257  0.2452
79565W        W54553   0.851  17.138  21.876  0.2490  0.0693  0.2583
79566W        W54554  23.497  11.725  23.135  0.0802  0.1860  0.5636
79567W        W54555  18.109   7.028  22.118 -0.0510  0.1304 -0.2192
79568W        W54556  19.926  21.390  22.275  0.0837 -0.2637  0.0192
79569W        W54557  13.881  14.861   4.395 -0.2011 -0.0253  0.2933
79570W        W54558   9.213   9.269  22.295  0.1118 -0.0419  0.0108
79571W        W54559   2.538  32.901   4.286 -0.0137 -0.0349  0.0195
79572W        W54560   8.852  25.230   3.612  0.2946  0.2709  0.0834
79573W        W54561   0.925  32.002   7.788 -0.0106 -0.2785  0.0795
79574W        W54562  27.172  22.669   6.346 -0.1881  0.3736 -0.0125
79575W        W54563  10.844  27.148  12.654 -0.1836  0.0551  0.0689
79576W        W54564   4.959   3.151   1.453 -0.0229 -0.0164 -0.2030
79577W        W54565  25.863   8.007  12.125  0.1148 -0.3690 -0.2618
79578W        W54566  18.007  29.548   8.726 -0.0958  0.0192  0.1997
79579W        W54567   0.964  27.983  19.105  0.3052  0.2662  0.0949
79580W        W54568  29.903  15.661  25.784 -0.0993 -0.3017 -0.0750
79581W        W54569   7.535  10.859   5.938  0.0741 -0.1555 -0.3812
79582W        W54570  25.105  14.798  16.147  0.1175 -0.2171  0.2237
79583W        W54571  15.496  16.990  10.611 -0.1996 -0.2874  0.0168
79584W        W54572  25.747   2.763  18.617  0.0872 -0.0226 -0.0075
79585W        W54573  22.461  27.526  17.927  0.0852  0.1484 -0.2143
79586W        W54574  34.014   9.438  16.949 -0.1081 -0.0570  0.0476
79587W        W54575   4.157  34.543  21.545  0.0632 -0.2379  0.0393
79588W        W54576  15.845  27.980  21.714 -0.2441  0.0647 -0.1405
79589W        W54577  10.864  20.396  13.983 -0.0405  0.2114  0.1262
79590W        W54578  19.117   4.664   1.804 -0.3584 -0.1705 -0.0620
79591W        W54579   8.674  24.933  11.319  0.2199 -0.1801 -0.2027
79592W        W54580  33.395  11.877  11.227 -0.3066 -0.3017 -0.0467
79593W        W54581  21.399  27.501   4.512 -0.0643 -0.0502 -0.0162
79594W        W54582  23.825   4.456   4.597  0.0099  0.0036  0.3258
79595W        W54583   3.530  10.263   4.279  0.0125  0.1316 -0.0625
79596W        W54584  18.424   1.548  17.918  0.3031 -0.1595 -0.1225
79597W        W54585   1.894  20.513  23.535  0.1302  0.0116 -0.1307
79598W        W54586   4.780  25.954  24.741 -0.1449 -0.4197  0.0337
79599W        W54587   4.730  25.542   1.254  0.2256 -0.0767 -0.0852
79600W        W54588  20.307   6.746   2.487 -0.0511 -0.1235  0.4688
79601W        W54589   5.642  15.104  25.244  0.1409 -0.3020  0.2628
79602W        W54590   4.396  29.247  24.338  0.2673  0.0559  0.0423
79603W        W54591  30.577  14.013   6.841 -0.0451 -0.0817 -0.0953
79604W        W54592  20.445  26.993   6.409 -0.5198 -0.3365  0.0623
79605W        W54593  17.372   0.229  19.901 -0.1322  0.0425 -0.0882
79606W        W54594   8.092  31.560   1.707  0.4972 -0.0300 -0.0825
79607W        W54595  17.061   4.298  23.699 -0.0534  0.1279 -0.1192
79608W        W54596  33.636  17.573   6.954  0.0267  0.0144  0.1836
79609W        W54597  26.543  13.808  14.029 -0.1194  0.1761  0.2266
79610W        W54598  19.103   6.508  23.820 -0.0368 -0.1830 -0.1158
79611W        W54599   9.338   6.999   2.099  0.0144 -0.2433 -0.0573
79612W        W54600  31.939  31.520  16.947 -0.0134  0.0151  0.0365
79613W        W54601  17.126  25.952  11.436  0.0505 -0.1799  0.1282
79614W        W54602  10.550   1.098   0.588 -0.6586  0.0749 -0.0643
79615W        W54603   0.369   7.231  16.291  0.0378  0.0269 -0.0478
79616W        W54604  18.377  13.766  25.372  0.0412 -0.0924  0.0593
79617W        W54605  12.934  22.415   0.698  0.2531 -0.1363 -0.2341
79618W        W54606   7.482  34.587   5.972 -0.1121 -0.0774  0.0493
79619W        W54607   6.736  29.907  25.978 -0.0131 -0.0594 -0.4969
79620W        W54608  27.238  27.397  10.567  0.0211  0.0303  0.1509
79621W        W54609  34.816  25.441  16.206 -0.1949  0.0687  0.0971
79622W        W54610  12.334  34.491   8.980  0.0815  0.0578 -0.0047
79623W        W54611  14.137  25.742   5.931  0.1071  0.1314 -0.1180
79624W        W54612  33.887  29.028  23.704  0.1210  0.0937  0.0341
79625W        W54613  18.299  14.342   5.298  0.0439 -0.2018 -0.0140
79626W        W54614  14.960  35.018  10.657 -0.0456  0.0552  0.3056
79627W        W54615  20.117  25.727  23.303  0.4325  0.1277  0.3304
79628W        W54616   7.009  19.572   2.383  0.1073 -0.1812  0.0740
79629W        W54617  28.628  25.915   9.357 -0.3960  0.1480  0.2049
79630W        W54618  24.058  29.546   1.580 -0.1340 -0.0367  0.0723
79631W        W54619  19.018   9.006   5.791  0.3043 -0.1721  0.1502
79632W        W54620   8.794  28.474  22.596 -0.0429 -0.1549  0.0655
79633W        W54621  32.887  34.259  13.184 -0.0835  0.0018 -0.1248
79634W        W54622  12.031  14.075   7.573  0.0566 -0.1946 -0.1450
79635W        W54623  23.645  31.880  19.751  0.0500 -0.0720 -0.1670
79636W        W54624  12.764  17.695   4.943  0.0971 -0.1051 -0.0221
79637W        W54625  27.169   0.974  11.354 -0.1692 -0.2502  0.1973
79638W        W54626   6.568  19.975  24.792 -0.0083  0.2590 -0.0985
79639W        W54627   0.508  15.365  25.621 -0.1860  0.1079  0.1751
79640W        W54628  10.983  24.744  17.422 -0.1929 -0.0522 -0.0784
79641W        W54629  26.377  31.956  21.719 -0.0423  0.0133 -0.1395
79642W        W54630  14.043   4.098  11.107  0.1365  0.0563  0.1767
79643W        W54631   7.135  18.517  25.626 -0.0403  0.0100 -0.7681
79644W        W54632  13.641   7.929   5.230  0.0023 -0.2042  0.1560
79645W        W54633   2.325  17.465  19.965 -0.1566 -0.1921 -0.0570
79646W        W54634  26.716  32.838  25.605 -0.0261  0.5666 -0.3015
79647W        W54635  17.937  22.774   7.821  0.1431  0.0235 -0.0503
79648W        W54636  33.328   1.128  24.162 -0.1367 -0.0428 -0.2097
79649W        W54637  23.877   6.578   5.010 -0.2248  0.0857 -0.2153
79650W        W54638  29.658   7.525  21.415  0.0079 -0.0718  0.1541
79651W        W54639  12.405  21.317   8.497  0.0024 -0.2440  0.1125
79652W        W54640  25.555  23.624  22.046  0.2405 -0.0525  0.0633
79653W        W54641  17.925   9.734   5.347  0.3888 -0.4293  0.0187
79654W        W54642  13.270  10.070  24.187 -0.1174 -0.1716  0.1100
79655W        W54643  16.594  26.546  10.587 -0.4063  0.0580 -0.0484
79656W        W54644  31.195   5.947   2.214  0.0471 -0.1350  0.0776
79657W        W54645  33.587   1.952   7.476  0.1322  0.1823  0.0515
79658W        W54646  12.488  28.748   7.880  0.1323 -0.1032 -0.6448
79659W        W54647  33.763   2.767  17.157  0.1318 -0.1336  0.0473
79660W        W54648  27.884   8.364  24.294  0.1370 -0.2379  0.1330
79661W        W54649  15.501   9.762  21.354  0.1694  0.1274  0.1355
79662W        W54650  12.560  10.200  18.959  0.1607 -0.1584 -0.0439
79663W        W54651  16.075   6.191  26.218  0.0923  0.0037  0.2130
79664W        W54652   4.853  34.290  12.257  0.1256  0.1691 -0.1170
79665W        W54653  29.175  27.734  21.630  0.0410  0.0053 -0.1261
79666W        W54654  13.052  16.378   3.989 -0.1476 -0.0461  0.1079
79667W        W54655  31.471   6.199  23.434 -0.0808 -0.3007 -0.1422
79668W        W54656  10.989  20.253   9.848 -0.0395 -0.0436  0.1823
79669W        W54657  27.689  29.298  24.956  0.1337 -0.0308 -0.1802
79670W        W54658  23.969  33.592  11.822 -0.0753  0.1102 -0.0200
79671W        W54659  20.371  15.263  20.433  0.4164  0.2230  0.1004
79672W        W54660  17.703  35.014  23.101 -0.3773 -0.0716 -0.0221
79673W        W54661  15.792  25.086  22.845  0.5107  0.0395 -0.0043
79674W        W54662  22.212   5.829   7.592  0.4658 -0.3280  0.1523
79675W        W54663  23.567  17.636  14.709 -0.0576 -0.0606  0.0013
79676W        W54664  10.866  17.939   3.635  0.1779  0.0358  0.0049
79677W        W54665  31.358  26.453  13.196  0.0195 -0.3015  0.1648
79678W        W54666  27.595   4.890  17.091 -0.2991 -0.0039 -0.0279
79679W        W54667  19.630   6.392  22.097  0.0515 -0.0864 -0.1878
79680W        W54668   8.114  12.847   2.971 -0.1405 -0.1421 -0.1437
79681W        W54669  14.364  27.946   1.345 -0.1707  0.0612 -0.1344
79682W        W54670  25.106  26.194  19.638 -0.3089 -0.0979 -0.1894
79683W        W54671   3.163  26.677  22.695 -0.1632 -0.3439  0.2051
79684W        W54672  12.616  22.143  22.813  0.1601  0.0445 -0.1298
79685W        W54673  10.052  31.912   3.671 -0.4405 -0.0060 -0.0340
79686W        W54674   7.869  15.953   2.886 -0.1255 -0.2762 -0.3035
79687W        W54675  26.664   5.348  19.804 -0.0523  0.0059  0.1207
79688W        W54676   5.701  29.494  22.515 -0.0072 -0.0969 -0.1617
79689W        W54677   5.273  15.332   2.981  0.3093 -0.1069 -0.4562
79690W        W54678  31.662  29.037  22.557  0.1845 -0.0709  0.3229
79691W        W54679  12.107  28.044  24.960  0.0800 -0.0037 -0.4167
79692W        W54680   0.988  11.171  21.508 -0.2808 -0.2029 -0.1738
79693W        W54681  28.325   0.921  17.954 -0.1377  0.2874  0.0573
79694W        W54682  35.257   3.001  24.816 -0.0020 -0.0296  0.2810
79695W        W54683  15.444  24.087  22.259  0.0659  0.0733 -0.0802
79696W        W54684   4.114  18.728  17.174 -0.0474  0.3058  0.1534
79697W        W54685  15.405   2.317  22.971 -0.1519  0.0403 -0.1681
79698W        W54686  27.690  22.330   7.963  0.1605 -0.1979 -0.2064
79699W        W54687  13.151   2.685  11.360 -0.0356 -0.0043 -0.2570
79700W        W54688  18.874  16.343  21.032 -0.2463 -0.1677 -0.1277
79701W        W54689  11.947  18.757   1.678  0.2173  0.1056 -0.1386
79702W        W54690  19.012   5.005  22.736  0.1930 -0.1239 -0.0417
79703W        W54691  16.887  26.433   4.317  0.0778 -0.1483 -0.0794
79704W        W54692  29.580   7.024  11.979 -0.0662  0.1117  0.2575
79705W        W54693   2.385  19.170  12.476 -0.0518  0.1223  0.0107
79706W        W54694   2.576  30.361  22.821  0.0262  0.2264  0.0771
79707W        W54695   2.274  11.488  17.590 -0.0608 -0.2686 -0.0601
79708W        W54696  30.059  15.233  13.953  0.0017  0.1358  0.0405
79709W        W54697  21.233  17.262  23.103 -0.1144 -0.0428  0.0195
79710W        W54698  12.526   2.366  20.644  0.0408  0.1336  0.3028
79711W        W54699  12.224  19.115  11.486 -0.2582 -0.0833 -0.2862
79712W        W54700  27.207   1.203  15.675  0.0384 -0.1696 -0.0106
79713W        W54701  11.489   0.511  22.509 -0.0449 -0.0607 -0.0868
79714W        W54702   1.107   8.025  23.976  0.0663  0.0389 -0.2701
79715W        W54703  31.578  18.422  13.330 -0.0029 -0.0501 -0.0503
79716W        W54704  22.410  26.240   2.605  0.0750  0.3660  0.1797
79717W        W54705   6.686  16.735  11.349 -0.2782 -0.4229  0.3497
79718W        W54706   6.235   7.795  19.811 -0.0642  0.0031 -0.1628
79719W        W54707   6.062  31.510  22.136  0.0546  0.0387 -0.0569
79720W        W54708  27.513  28.565   1.788  0.0873 -0.1849  0.0424
79721W        W54709   7.618  23.099  25.419 -0.1275 -0.0665 -0.0193
79722W        W54710  18.441  26.034   6.984 -0.0738  0.2930 -0.0616
79723W        W54711  17.384  14.628   5.551 -0.1988 -0.2704  0.0774
79724W        W54712  24.533  33.390  21.384 -0.1220 -0.2623 -0.2594
79725W        W54713  25.511  31.859  17.847  0.3452  0.0513 -0.1703
79726W        W54714  15.622  15.567   9.768  0.1945 -0.1324  0.0861
79727W        W54715  32.243  27.558  24.091 -0.1703  0.0648  0.0268
79728W        W54716  25.110   9.087  18.006 -0.0424  0.1679 -0.1706
79729W        W54717  11.023  29.954  16.683 -0.1739  0.2336  0.1619
79730W        W54718   2.828   4.445  24.723  0.2804 -0.0118 -0.0807
79731W        W54719   4.470   9.373   0.004 -0.1431  0.0913  0.0095
79732W        W54720  15.990  28.889   3.899  0.0058  0.1913  0.3086
79733W        W54721   7.043   7.308   1.380 -0.2269 -0.1229  0.3294
79734W        W54722  30.735   4.310  12.839 -0.1769  0.0071 -0.0067
79735W        W54723   9.036  18.132  10.458 -0.1189  0.1577  0.3220
79736W        W54724  25.203  29.969  17.013  0.2577  0.0857 -0.4036
79737W        W54725   4.678  21.170   3.927  0.2557  0.1357  0.2274
79738W        W54726  17.768   2.897  17.057  0.1329 -0.0619  0.1155
79739W        W54727  28.059  20.316   4.821  0.1220  0.1493 -0.0295
79740W        W54728  30.909  32.255  11.406 -0.0968  0.1918 -0.0313
79741W        W54729  29.008  22.828   8.539  0.1417  0.2490 -0.0057
79742W        W54730  13.578   9.409  25.279  0.1302 -0.1367  0.0770
79743W        W54731  33.896  20.832  24.788  0.0699  0.1777 -0.0702
79744W        W54732  21.213  35.010   1.391  0.1237 -0.1404 -0.1422
79745W        W54733  12.650  23.923  25.683 -0.3323  0.2034  0.2453
79746W        W54734  31.377   6.832   1.257  0.0794  0.1045  0.1280
79747W        W54735  23.307   4.830   0.485 -0.1240 -0.1911  0.1690
79748W        W54736  27.034  20.006  17.226 -0.1198  0.0772 -0.0032
79749W        W54737   2.214  10.605  23.030  0.3130  0.1552  0.0935
79750W        W54738  26.682  26.685   0.606 -0.1367 -0.1710 -0.3767
79751W        W54739   8.204  16.973  26.089  0.0682 -0.2193 -0.2715
79752W        W54740  24.503  13.983  14.461  0.0371  0.2539 -0.0401
79753W        W54741  17.580  27.648  25.356 -0.2533 -0.0479  0.1469
79754W        W54742  11.169  17.408  12.590  0.4038  0.0774 -0.2489
79755W        W54743   3.877  11.239   7.278  0.2995 -0.0471  0.2101
79756W        W54744  19.037  11.985   2.542 -0.1213 -0.0337 -0.2714
79757W        W54745  33.346  28.811  23.779  0.2334 -0.1008 -0.1057
79758W        W54746   5.091  30.134  21.618 -0.1877 -0.0734 -0.3868
79759W        W54747  11.790  20.388   5.967 -0.0919  0.2109  0.0239
79760W        W54748   0.967  18.590  24.285 -0.3022  0.1984  0.0243
79761W        W54749  22.944  24.315  19.685  0.1193  0.3125  0.2633
79762W        W54750  17.066  24.303   8.386  0.1412  0.0698  0.0504
79763W        W54751  28.960  22.975  18.137  0.1100  0.3205 -0.0902
79764W        W54752  32.709  34.559   7.346  0.2785  0.1050  0.0136
79765W        W54753  31.453  20.007   6.061  0.3235  0.2812 -0.1684
79766W        W54754   1.185  19.477  20.085  0.1934  0.0143 -0.1213
79767W        W54755  14.551  18.834   8.733  0.0976 -0.0919  0.0528
79768W        W54756  26.626  10.763  21.901 -0.0036  0.1715  0.0600
79769W        W54757  12.039   7.878   6.504 -0.1065  0.0940 -0.2158
79770W        W54758  30.723  15.758  13.965  0.1867  0.1977  0.1470
79771W        W54759  29.231   9.570  21.975 -0.0360  0.3243 -0.0967
79772W        W54760  34.168   6.497  21.192 -0.0986 -0.3506 -0.0781
79773W        W54761  12.429  20.363   5.041 -0.0605 -0.0048  0.2827
79774W        W54762  24.915  13.448  20.507 -0.2841  0.1563 -0.1959
79775W        W54763  20.448  18.007  23.546  0.2149 -0.0489  0.1248
79776W        W54764  34.704  18.537  25.773  0.5531 -0.0894 -0.1694
79777W        W54765  24.572  17.987  12.305 -0.1391  0.0804 -0.3676
79778W        W54766  32.742  29.414   6.295  0.4636 -0.3205  0.1196
79779W        W54767  12.863  27.141  23.492  0.2005 -0.3107 -0.1036
79780W        W54768  18.943   5.604   0.613  0.1797 -0.3862 -0.1717
79781W        W54769   6.882  27.915   9.199 -0.0635 -0.1554 -0.0783
79782W        W54770   9.441  10.006   4.233  0.2317 -0.0009 -0.2064
79783W        W54771  24.444   1.360  19.802  0.1128 -0.1744  0.0535
79784W        W54772   0.069  29.945   5.395  0.1215  0.0570  0.2297
79785W        W54773  14.275   0.123   5.416  0.0010  0.0542 -0.0412
79786W        W54774  24.913  19.095  13.589  0.1030 -0.1240  0.1731
79787W        W54775  34.468  22.782   9.397  0.1419 -0.1565 -0.2538
79788W        W54776   1.680  17.181  10.993 -0.0514  0.2179 -0.2296
79789W        W54777  10.838   5.799  10.674  0.3088  0.1188  0.0452
79790W        W54778  13.833  18.757   4.744 -0.1632  0.1090  0.0182
79791W        W54779   7.776  15.237  21.095  0.1413  0.0516 -0.3063
79792W        W54780  26.949  16.536   5.370 -0.4034 -0.4161  0.2373
79793W        W54781  31.807  33.326  19.864 -0.2248  0.3283 -0.1553
79794W        W54782   5.382  33.379  22.897  0.2556 -0.0940  0.0967
79795W        W54783   9.385  33.174   0.100 -0.1253 -0.2944 -0.1876
79796W        W54784   5.454  28.864  25.487 -0.2225  0.0772  0.3776
79797W        W54785  27.390   4.391  16.776 -0.3809 -0.0947 -0.0069
79798W        W54786  18.853   3.927   5.603  0.0704  0.1330  0.1134
79799W        W54787  24.980  27.070  22.428  0.0276  0.0011  0.1924
79800W        W54788  11.032  27.762  16.560 -0.2162 -0.2138 -0.0126
79801W        W54789  29.140  20.013  25.075  0.0538  0.2603  0.1627
79802W        W54790  16.326  30.424  23.123  0.0280  0.3257 -0.2896
79803W        W54791   2.864  28.451   0.617  0.3196 -0.0674 -0.0788
79804W        W54792  22.349   1.562   1.498 -0.2190  0.1189  0.1827
79805W        W54793  15.533  14.947  24.756  0.1974  0.2845  0.2766
79806W        W54794  10.743   5.143   8.134  0.0429 -0.2986  0.2070
79807W        W54795   6.602   3.783   5.835  0.1670 -0.1697  0.1322
79808W        W54796  12.572   8.393  20.438  0.0913  0.1733 -0.0924
79809W        W54797  17.259  19.178  26.011  0.1530 -0.2902  0.0984
79810W        W54798   5.270  12.821  23.536 -0.1451 -0.6383 -0.1394
79811W        W54799  12.345   4.934  11.536 -0.0739 -0.0286 -0.4473
79812W        W54800  31.281  13.741  12.704  0.0361 -0.0037  0.2359
79813W        W54801  11.936  19.404  21.800 -0.3684 -0.0955  0.0944
79814W        W54802  13.237  17.885  10.320 -0.0341  0.0966 -0.1554
79815W        W54803  33.067  12.831   0.645 -0.0707 -0.3461  0.2194
79816W        W54804  32.782  32.122  14.404  0.1447 -0.0797 -0.1915
79817W        W54805  22.765  27.353  19.713 -0.0757  0.4552  0.1204
79818W        W54806  25.083  10.683  18.998 -0.1514 -0.1790  0.2100
79819W        W54807   7.923  28.557  12.117 -0.1787  0.3311 -0.0777
79820W        W54808  21.830   9.053  16.730 -0.0233 -0.2166  0.0707
79821W        W54809  20.316  34.493   2.566  0.0711  0.1641  0.3445
79822W        W54810  29.916  23.990  18.899 -0.0045 -0.0017 -0.0022
79823W        W54811   0.030  18.407  14.225  0.1293 -0.0041 -0.3219
79824W        W54812  18.069  29.887   0.361 -0.1217  0.1254  0.2567
79825W        W54813  27.396  28.061  19.426 -0.0408  0.0743  0.1388
79826W        W54814  19.251  21.411   1.082  0.3354 -0.2163 -0.1077
79827W        W54815  27.484   3.941   1.671 -0.0355 -0.1845  0.1175
79828W        W54816  29.675  33.815   5.867 -0.1078 -0.0601 -0.1562
79829W        W54817  11.976  24.615  11.953  0.1363 -0.3579 -0.0036
79830W        W54818  34.502  23.467  11.891 -0.0203 -0.0330 -0.0095
79831W        W54819   9.669  11.387   4.373 -0.0269  0.2769 -0.3406
79832W        W54820  15.758   5.163   8.672  0.0353  0.0926 -0.1168
79833W        W54821  21.276  24.269  25.724 -0.2065 -0.0436 -0.1713
79834W        W54822  28.277  23.978  22.519  0.2988 -0.0844 -0.2942
79835W        W54823   7.203   8.298  10.852 -0.1415 -0.0153 -0.0943
79836W        W54824   9.891  13.237  19.952 -0.0748 -0.0533 -0.2982
79837W        W54825  14.480  32.930  22.220  0.0345 -0.3035 -0.1585
79838W        W54826   6.086  24.030  25.882  0.0483 -0.0853 -0.0141
79839W        W54827   3.761   5.081  21.634 -0.0359  0.0069 -0.1373
79840W        W54828  23.301  32.817  19.384  0.0029  0.1181  0.0514
79841W        W54829  19.328   3.657  16.911  0.2019  0.2925  0.0551
79842W        W54830   0.639  32.516  20.869 -0.0219  0.0068 -0.2699
79843W        W54831  21.075  14.092   2.322  0.3050 -0.2115  0.0956
79844W        W54832   0.092  29.829  19.386  0.0390 -0.0640  0.1431
79845W        W54833  25.346  21.276  11.959  0.0955  0.3552  0.1253
79846W        W54834   8.991  17.829  21.232 -0.2492 -0.1489  0.1243
79847W        W54835  29.071  18.867  13.102 -0.0097 -0.0079  0.2533
79848W        W54836   8.247  25.207  21.826 -0.3214  0.3068 -0.0351
79849W        W54837  28.821  34.557  23.408 -0.1280 -0.4789  0.1615
79850W        W54838  17.787  25.982   1.049  0.0144  0.1825  0.2663
79851W        W54839  21.271  33.285  20.786  0.4024  0.1799 -0.0390
79852W        W54840   0.670  29.086  25.792  0.1003 -0.0289 -0.3584
79853W        W54841  28.720   5.055  10.749  0.3621 -0.0844 -0.0483
79854W        W54842  21.145  28.620   3.746  0.1515  0.2760  0.0737
79855W        W54843  22.622  28.958   5.169  0.0654 -0.0160 -0.1197
79856W        W54844  30.858   8.976  25.789  0.0743 -0.0046 -0.0504
79857W        W54845   4.967  13.226  20.504  0.1561  0.0564  0.0956
79858W        W54846  11.462  28.170   7.272 -0.0957 -0.0991 -0.1211
79859W        W54847  31.808  24.637  22.894  0.0445  0.1815 -0.1441
79860W        W54848  30.932  22.347  21.108  0.0316 -0.0923 -0.3689
79861W        W54849  26.137  25.818  21.890  0.1501  0.1671 -0.2069
79862W        W54850  17.862  15.236   0.431 -0.1577  0.0074 -0.2675
79863W        W54851   2.769   0.008   1.373  0.2285  0.1596  0.2531
79864W        W54852   6.856  27.580   0.941 -0.2070 -0.0404 -0.3514
79865W        W54853  30.282  16.114  19.695 -0.1489  0.0600  0.1459
79866W        W54854   3.909   0.932  25.299  0.1850  0.2631  0.0588
79867W        W54855  11.344  20.130   5.894  0.1184  0.1297 -0.0659
79868W        W54856   8.909  13.179  10.525 -0.0604  0.0054  0.0366
79869W        W54857  16.354  15.961  25.763  0.1209  0.2449 -0.1559
79870W        W54858   3.075  20.990   1.634 -0.0816  0.1569  0.0305
79871W        W54859  12.011  26.461  15.570 -0.2497 -0.3191 -0.0286
79872W        W54860  15.081   2.216   3.371 -0.0639 -0.2237 -0.2171
79873W        W54861   9.845   0.979  21.911  0.0671 -0.1699  0.2674
79874W        W54862   9.797  31.027  11.749 -0.3903 -0.0492 -0.1579
79875W        W54863  17.499  10.836   4.239  0.1356  0.2902 -0.0329
79876W        W54864   7.864   9.359   2.017  0.1246  0.0745 -0.1622
79877W        W54865  14.104  33.745  23.596 -0.1315  0.1834  0.2102
79878W        W54866  16.039  19.781   8.371  0.3230  0.0845  0.1234
79879W        W54867   2.006   8.088   6.661 -0.2701  0.3174 -0.1151
79880W        W54868  10.067  20.120   3.259  0.0567  0.2659 -0.1342
79881W        W54869  20.335  17.697  23.072 -0.0122  0.1038  0.0282
79882W        W54870  16.002   0.231  22.562  0.1662  0.0270  0.2536
79883W        W54871  33.097   0.416   2.066 -0.3671  0.2133  0.0350
79884W        W54872  15.903   4.223  23.273  0.0025  0.1516  0.2893
79885W        W54873  25.568  24.421  13.640 -0.0060  0.1016 -0.0320
79886W        W54874  35.241  25.822  14.641  0.1209  0.0329 -0.0618
79887W        W54875  23.656  18.996  15.890 -0.0138 -0.3859  0.2172
79888W        W54876  27.187  34.383  19.376 -0.0384 -0.2524 -0.1036
79889W        W54877  13.649   5.721  18.732  0.0118  0.1190  0.0051
79890W        W54878  21.170  23.073   2.283 -0.3431  0.0064  0.4171
79891W        W54879  28.642  15.103  21.821  0.1980 -0.1961  0.1715
79892W        W54880  29.756  11.318  13.233  0.0542 -0.0136 -0.2372
79893W        W54881   2.332   4.767   3.375  0.0378  0.4816  0.1282
79894W        W54882  33.290   4.544  14.398 -0.0771 -0.1381  0.0093
79895W        W54883   4.836  33.557   8.691  0.0377 -0.0215 -0.1623
79896W        W54884  16.835   5.851  24.238 -0.0323  0.1239  0.1350
79897W        W54885   8.087  13.994   5.744  0.1487  0.0716 -0.1798
79898W        W54886  25.579  15.069  22.156  0.0984 -0.0938 -0.2996
79899W        W54887  14.308  24.433  21.662 -0.0353 -0.2578  0.1824
79900W        W54888  12.989  19.144  24.104  0.2200 -0.1375  0.0272
79901W        W54889  23.855  31.489   0.332  0.1390  0.0761  0.0136
79902W        W54890  18.522  29.627   5.716  0.1952 -0.0886  0.0074
79903W        W54891  17.887  23.051   0.089  0.4310  0.2136 -0.2713
79904W        W54892   0.537   3.589   4.411  0.0793  0.0507  0.1429
79905W        W54893  34.140  26.350  19.253 -0.0463 -0.0056 -0.0331
79906W        W54894  30.829   1.645  22.393 -0.2709 -0.1716 -0.0048
79907W        W54895   6.020  11.367   2.211 -0.0104  0.1363 -0.0975
79908W        W54896  18.065  16.651  21.233  0.0893 -0.2699  0.0703
79909W        W54897  21.955  33.486   0.755  0.2302 -0.1268  0.0936
79910W        W54898  13.797  31.996  10.298  0.0043  0.1740 -0.1784
79911W        W54899   8.569   0.927  14.262  0.1023  0.1519  0.0215
79912W        W54900  33.852  13.331  13.702  0.0217 -0.2152  0.0420
79913W        W54901   6.210  21.272  22.326 -0.3716 -0.0736 -0.3862
79914W        W54902  28.432   7.811   8.954  0.1996 -0.2094 -0.1112
79915W        W54903   9.709  12.063  10.966  0.0768  0.2509  0.0887
79916W        W54904  16.485  14.361   8.511 -0.2244 -0.0949  0.0166
79917W        W54905  22.470  10.870  19.463 -0.1995 -0.1839  0.0843
79918W        W54906  16.752  30.231   0.160 -0.1966 -0.1255 -0.0162
79919W        W54907  22.210  26.534   1.600 -0.0177  0.1257  0.0154
79920W        W54908  34.672  23.066  24.395  0.1468  0.0244 -0.2575
79921W        W54909  29.074   8.150  13.449  0.0831 -0.0254  0.2979
79922W        W54910   4.608   8.887  20.971 -0.1426 -0.1390  0.2039
79923W        W54911  24.302   4.219  21.130 -0.0675 -0.0168 -0.1791
79924W        W54912  30.257   1.172   0.218  0.1571  0.2771  0.1151
79925W        W54913  25.868  32.520   4.646  0.1114 -0.1821  0.1491
79926W        W54914  25.165  18.043  11.641  0.0219 -0.1039  0.2326
79927W        W54915  16.982  26.989   3.516  0.2948 -0.1066 -0.0777
79928W        W54916  26.700  23.426  17.154  0.1109  0.0218  0.0151
79929W        W54917  11.604  29.248  23.063  0.1031 -0.0537 -0.2278
79930W        W54918  24.633  22.832  18.320  0.0494  0.2129 -0.0983
79931W        W54919  17.265  10.008  22.497 -0.2007 -0.1410  0.0834
79932W        W54920  17.288   0.654   5.986 -0.1849 -0.2910  0.0200
79933W        W54921  10.997  13.756   0.817 -0.2495 -0.1002 -0.2519
79934W        W54922  14.481  14.974   3.613  0.2510 -0.1655  0.3348
79935W        W54923  17.631   2.641  24.347  0.1366 -0.0939  0.1974
79936W        W54924  15.729  27.193   4.136 -0.0344 -0.2458  0.3178
79937W        W54925   1.401  32.138  20.510  0.0415 -0.0076 -0.0946
79938W        W54926  18.716   8.671   0.421 -0.2591 -0.2759 -0.0505
79939W        W54927   1.194  18.904  10.574  0.1192 -0.2387 -0.0416
79940W        W54928   6.413  26.931   4.211 -0.2618  0.3824 -0.1773
79941W        W54929  25.815  20.176  13.766 -0.2648  0.2711  0.0611
79942W        W54930  30.729   7.919  13.801  0.0833 -0.0502 -0.1200
79943W        W54931  10.176  34.523  16.371  0.1013  0.0361  0.1697
79944W        W54932  17.678   7.905  23.885 -0.1047 -0.2490 -0.0138
79945W        W54933  22.877  33.190  21.251 -0.1932 -0.2502 -0.1664
79946W        W54934   1.639   0.043   1.540  0.0641  0.0517  0.1129
79947W        W54935  29.020  13.899  11.555 -0.0642  0.0863  0.1977
79948W        W54936  29.171  28.569  16.027 -0.2844 -0.0374  0.2066
79949W        W54937   5.316  23.507   5.660 -0.1289 -0.2259  0.0270
79950W        W54938  32.925  15.415   9.764 -0.0334 -0.2003 -0.1592
79951W        W54939  27.194   4.046   0.234  0.0792 -0.0054  0.0842
79952W        W54940   9.070   1.499   5.005 -0.1002 -0.1029  0.0200
79953W        W54941  11.352  10.163  25.817  0.1237  0.0896  0.1454
79954W        W54942  20.052   3.935   0.154  0.3776 -0.0015 -0.2761
79955W        W54943   4.013  11.059   2.736 -0.1884  0.0684 -0.1147
79956W        W54944   5.638   2.087  12.097 -0.2036 -0.0651  0.1315
79957W        W54945  15.020  18.052  25.507 -0.0850 -0.0266  0.1113
79958W        W54946  34.138   0.205  13.320 -0.0022 -0.2307 -0.0958
79959W        W54947  31.656  19.221   9.700  0.1437  0.1436  0.1583
79960W        W54948  15.219   8.859   0.915 -0.2501 -0.0507 -0.1581
79961W        W54949  28.867  25.743  17.629  0.0339 -0.0807  0.1790
79962W        W54950   2.533  29.625  24.950 -0.2104  0.0201 -0.0881
79963W        W54951  29.428  30.503  10.617 -0.0719 -0.2102  0.1347
79964W        W54952  27.784  33.688  25.364  0.0887  0.0850  0.1959
79965W        W54953  29.521   7.349   2.482  0.0237  0.0461 -0.1243
79966W        W54954  23.198  22.312  17.800 -0.0498  0.1069 -0.0969
79967W        W54955  11.374  19.141  10.277 -0.1837 -0.1655  0.2830
79968W        W54956  29.986  16.333  20.276  0.0136  0.1048 -0.0404
79969W        W54957   3.522  29.113   6.475 -0.0727 -0.2469 -0.0011
79970W        W54958  16.114  21.827  25.563  0.0624 -0.0427  0.1918
79971W        W54959  24.063  32.970  20.425  0.2854 -0.1923  0.2661
79972W        W54960  19.741  28.402  18.935 -0.1681  0.1882 -0.3962
79973W        W54961  33.364  13.538  13.853  0.0693 -0.1569  0.0010
79974W        W54962  20.272  13.604  24.453 -0.0744  0.1830 -0.1400
79975W        W54963  31.659  11.095  21.876  0.1131  0.1089  0.0602
79976W        W54964  31.880  34.772  24.688 -0.1746 -0.1114  0.0613
79977W        W54965  11.100  23.946  11.200  0.1200 -0.1403 -0.2635
79978W        W54966   7.257   9.208   9.081 -0.0017 -0.2458  0.0962
79979W        W54967  13.776  29.641   0.046 -0.1521  0.2204 -0.2696
79980W        W54968  27.958  12.526  10.977  0.1562 -0.0049  0.1305
79981W        W54969  25.507   4.829  26.113  0.0509 -0.0556  0.4620
79982W        W54970  13.266  33.549  12.344  0.1410  0.2075 -0.0218
79983W        W54971  16.390  14.541  25.397 -0.1194  0.2292  0.0653
79984W        W54972  31.815  12.384   7.871  0.2218  0.0977 -0.0101
79985W        W54973  30.961   2.206  25.373 -0.1515  0.3202  0.0962
79986W        W54974  18.947  22.468   8.047  0.0302  0.1939  0.1586
79987W        W54975  13.695   0.044  21.509 -0.1647 -0.1457  0.2765
79988W        W54976  21.938  29.447  19.391 -0.2187  0.2393 -0.1968
79989W        W54977   6.883  25.767   8.002 -0.4266  0.2183  0.0935
79990W        W54978  18.440   7.626   0.189 -0.0028 -0.3769  0.2390
79991W        W54979   9.955  27.970  11.394 -0.0764  0.3909 -0.0875
79992W        W54980  32.932  21.892  10.557 -0.1198  0.0773 -0.0965
79993W        W54981  24.902  15.613  20.930 -0.2296 -0.1622 -0.1246
79994W        W54982  26.922  23.736  14.799 -0.0344 -0.2363 -0.2154
79995W        W54983  12.479  23.615   7.698  0.0142  0.3318 -0.1457
79996W        W54984  12.828  33.088   5.298 -0.0262  0.2668 -0.1239
79997W        W54985  15.252  13.244   6.283  0.4877  0.1633 -0.2232
79998W        W54986  16.899  21.557  23.936 -0.0058 -0.2753 -0.0585
79999W        W54987  11.076   6.658   2.941 -0.0584  0.0448  0.5036
80000W        W54988   7.569   2.342   5.287 -0.0694 -0.1115  0.1607
80001W        W54989  24.517   5.439  18.530 -0.2126 -0.0592 -0.4288
80002W        W54990  17.602  13.654   4.337 -0.0105  0.0140  0.0282
80003W        W54991  28.043   7.093  18.156  0.2119 -0.1748  0.2917
80004W        W54992  35.161  20.681   0.338  0.1798  0.1980 -0.3092
80005W        W54993  22.166  19.159  19.379 -0.0974 -0.1951 -0.1262
80006W        W54994  12.935  19.590  12.847  0.1798 -0.2611  0.1558
80007W        W54995  31.746   9.878  15.787  0.3066 -0.3377 -0.1844
80008W        W54996  28.027   5.691  15.995 -0.1876  0.3139  0.3729
80009W        W54997  16.949  12.176   7.861 -0.0723  0.0427  0.1162
80010W        W54998   0.649  15.731  25.904 -0.2472 -0.0595 -0.0548
80011W        W54999  25.844  20.048  11.299  0.2258 -0.2984 -0.1745
80012W        W55000   3.361   2.125  25.450 -0.0918  0.2020 -0.1081
80013W        W55001  21.189  15.615  21.280 -0.0186  0.0030 -0.0601
80014W        W55002  20.047  23.714  24.723 -0.2487 -0.0691 -0.1402
80015W        W55003  10.548   1.279   6.173 -0.1783  0.0335 -0.3376
80016W        W55004  31.085   6.112  10.337 -0.1214  0.1879 -0.3146
80017W        W55005   8.498  32.213  25.185 -0.0524  0.0026  0.1332
80018W        W55006  31.464  13.629  19.357 -0.3125 -0.1906 -0.0263
80019W        W55007  19.542  18.360  25.936  0.1238  0.0293 -0.1379
80020W        W55008  17.541  21.362  20.807 -0.1250  0.1042  0.0409
80021W        W55009  15.376  22.443   1.637  0.0526  0.0664  0.3786
80022W        W55010  25.108  34.683   2.007 -0.1378 -0.2480  0.1445
80023W        W55011  12.024   0.146   6.852  0.2860  0.2687 -0.2070
80024W        W55012  21.510   1.750  25.064  0.0796  0.0559  0.4547
80025W        W55013  17.572   5.402  12.954  0.0118 -0.0634  0.3496
80026W        W55014  28.534  28.545  17.987 -0.3230 -0.2366 -0.1120
80027W        W55015  28.047   5.903   2.429 -0.0783  0.0388  0.0467
80028W        W55016  20.785  16.952   5.249  0.4171  0.3706  0.0498
80029W        W55017  16.935  11.179  12.061  0.0626  0.2144 -0.2073
80030W        W55018  24.743   5.934   3.531 -0.3438 -0.1173 -0.0001
80031W        W55019   3.553   4.503   4.410 -0.2126  0.4093  0.0280
80032W        W55020  26.344   8.467  24.592  0.1304 -0.1191 -0.0463
80033W        W55021   4.576  27.300   8.010  0.1226 -0.0078  0.2596
80034W        W55022  24.063  22.794  24.008  0.1351 -0.2412  0.0574
80035W        W55023  13.144  16.658  22.889  0.2090  0.3385  0.2142
80036W        W55024  25.021  26.683   0.201  0.0783 -0.0150 -0.3466
80037W        W55025  30.207  10.228  22.113  0.4000 -0.1919  0.1802
80038W        W55026  27.250  16.263  23.455  0.1664 -0.0145 -0.1749
80039W        W55027  12.809  14.777  13.299  0.1937 -0.0955 -0.3403
80040W        W55028   1.098  22.462  14.040 -0.0463  0.0015 -0.1745
80041W        W55029  17.123  28.957  11.910  0.4193  0.1965 -0.0022
80042W        W55030  21.446   1.903   0.141  0.0197  0.0601  0.2138
80043W        W55031  10.860  12.976  23.188  0.1710  0.0040 -0.2956
80044W        W55032   7.932  30.803  11.284  0.1981  0.0451 -0.1255
80045W        W55033  33.437  14.903   5.758  0.1170 -0.0391 -0.1609
80046W        W55034  24.113  30.818  21.274  0.1301 -0.1959  0.0599
80047W        W55035  21.595  30.430  13.982 -0.1622 -0.0849  0.0888
80048W        W55036  28.960   9.395   9.744 -0.0582 -0.0343  0.2820
80049W        W55037  11.967   3.747  21.812  0.1334  0.1775 -0.0483
80050W        W55038  13.338   8.417  13.344 -0.0418 -0.0366 -0.2895
80051W        W55039  15.271  17.885   4.954 -0.0445  0.0837 -0.2137
80052W        W55040  15.218   4.535  23.606 -0.2970 -0.2063 -0.2825
80053W        W55041  34.077   7.448  23.673  0.0319 -0.1225  0.1580
80054W        W55042   0.957   1.208   6.082  0.0943  0.0428 -0.0114
80055W        W55043  18.172  10.140  22.052 -0.2230 -0.0710 -0.0037
80056W        W55044   6.282   7.658   4.858 -0.0829  0.2083 -0.1771
80057W        W55045  11.266  29.563   2.911 -0.0770  0.0375  0.0294
80058W        W55046  17.512  30.755  21.263  0.0472  0.1483  0.0744
80059W        W55047   5.751   1.699  22.766 -0.0785  0.3174 -0.1252
80060W        W55048   6.003   2.182   9.979 -0.3577  0.1696 -0.0442
80061W        W55049  28.539  28.479  13.066  0.3331  0.1859  0.1401
80062W        W55050   1.278  19.981   0.487 -0.3926  0.1235 -0.0516
80063W        W55051  28.997  35.245  18.812  0.2615 -0.1232  0.4519
80064W        W55052   2.493  19.225  23.298 -0.3055 -0.2552 -0.0901
80065W        W55053   9.589  16.469   0.762 -0.1237 -0.1151  0.3426
80066W        W55054   8.225   2.888   8.134  0.1849  0.1291  0.0264
80067W        W55055  15.860  31.030  20.166  0.3197  0.0085 -0.2528
80068W        W55056  35.007  26.218  20.633 -0.1463  0.3491  0.2095
80069W        W55057  24.871  20.787  22.725  0.1293  0.1259 -0.0040
80070W        W55058  14.137  22.470   8.900  0.1112  0.0817 -0.2817
80071W        W55059  33.211   6.073   4.232 -0.0067  0.0827  0.0892
80072W        W55060   4.473  21.726  17.534  0.2309  0.0160  0.0795
80073W        W55061  19.826  27.928  21.655  0.2288  0.1510  0.0395
80074W        W55062  24.643  17.890  21.585  0.1441  0.0994  0.1160
80075W        W55063   8.041  31.989   2.030  0.1218  0.0977  0.1568
80076W        W55064  11.201  30.499  12.632  0.0937 -0.1655  0.2698
80077W        W55065  12.709  24.467  23.365 -0.0354 -0.0111  0.0586
80078W        W55066  11.530   2.551  19.666  0.1933  0.1311 -0.2456
80079W        W55067   1.958  19.121  10.459  0.2122 -0.0520 -0.0446
80080W        W55068  15.805  24.804   8.332  0.0858 -0.3196  0.1112
80081W        W55069  26.777  24.767   0.602 -0.2453 -0.0716 -0.0319
80082W        W55070  34.011  22.841   0.205 -0.2371  0.3079 -0.0578
80083W        W55071  18.442   0.300   1.335  0.1366 -0.0950  0.0239
80084W        W55072  30.328   8.814  24.769  0.2534 -0.2442 -0.0350
80085W        W55073   0.354  20.869  21.110 -0.3730 -0.4069 -0.1856
80086W        W55074  21.318  13.504  23.125 -0.2371  0.0437  0.1688
80087W        W55075  18.490  14.482  22.008 -0.0321  0.1234 -0.2261
80088W        W55076  21.328  11.320  17.686 -0.0663  0.2846  0.3084
80089W        W55077  10.445  33.242  24.705 -0.0783 -0.2173  0.2124
80090W        W55078  26.052   6.276  22.413 -0.0939  0.3901  0.0242
80091W        W55079  18.256  26.702   8.466  0.3833 -0.2263 -0.0793
80092W        W55080  30.107  10.857  15.748 -0.2110 -0.0625 -0.0721
80093W        W55081   0.193  33.873   3.308 -0.0032 -0.0604  0.1457
80094W        W55082   2.776   8.568  25.355  0.0784  0.3752 -0.3384
80095W        W55083  24.086   8.712  14.726 -0.2213 -0.2711  0.3567
80096W        W55084  28.961   9.688  18.968 -0.0424  0.0537  0.0715
80097W        W55085   3.576  25.861  19.250 -0.2125 -0.2009 -0.0020
80098W        W55086  35.066  33.656  14.856 -0.1355  0.4069 -0.1184
80099W        W55087  32.415  26.849  24.679 -0.0399  0.2527  0.0132
80100W        W55088  22.139   0.484   7.204 -0.3641 -0.0069 -0.3981
80101W        W55089  31.023  17.210  15.015  0.3090 -0.1477  0.0140
80102W        W55090  15.154   2.302   1.410  0.2636  0.4504 -0.4376
80103W        W55091   4.442  28.620  22.256 -0.0381 -0.1639 -0.2026
80104W        W55092  21.813   7.387  24.218 -0.0555  0.0598  0.0851
80105W        W55093  24.069  29.378   5.656 -0.2621 -0.1439 -0.0880
80106W        W55094  19.052  28.670   2.344  0.1316 -0.1249 -0.0262
80107W        W55095  25.396   6.965   0.611 -0.1230  0.0705 -0.2883
80108W        W55096   2.646  18.971  22.820 -0.3007  0.2695  0.1399
80109W        W55097  11.344  30.090   5.693  0.1847  0.1360  0.0097
80110W        W55098  10.358  30.119  14.939 -0.2186 -0.0172 -0.1982
80111W        W55099   2.558   4.106   8.400 -0.1037  0.3143 -0.2131
80112W        W55100  26.066  17.470  18.058 -0.1510 -0.2657 -0.2285
80113W        W55101  31.899  30.472   3.641 -0.0082  0.1780  0.2950
80114W        W55102   8.183  10.889   1.144  0.1365  0.0114 -0.0688
80115W        W55103  25.089  30.421   5.758 -0.1221  0.0946  0.0706
80116W        W55104  17.044  25.291  20.547  0.2705  0.0383 -0.1807
80117W        W55105   1.505  28.114  22.225  0.0708  0.1636  0.0196
80118W        W55106  25.726  33.092  19.690 -0.0930  0.0617  0.1447
80119W        W55107  31.551  16.203  13.348  0.0056 -0.4005  0.0408
80120W        W55108  17.827   5.826   1.121  0.1657 -0.1013  0.2335
80121W        W55109  14.787   9.280  10.201  0.0140  0.0060 -0.1996
80122W        W55110  27.376  30.724  12.224  0.0532  0.4100  0.3323
80123W        W55111  25.080  16.072   7.861 -0.0174  0.2886 -0.1006
80124W        W55112  29.943  18.927  21.843 -0.0458 -0.3515 -0.0640
80125W        W55113  22.979  27.807   0.643  0.1498  0.1549 -0.4400
80126W        W55114  16.685   6.018  20.769 -0.2567 -0.0370 -0.1403
80127W        W55115  32.549  12.285  20.921 -0.0544  0.0217  0.1833
80128W        W55116  11.428  27.188  21.830 -0.0369  0.1984  0.3674
80129W        W55117  27.167  24.253  19.255 -0.1754 -0.4124  0.0295
80130W        W55118   4.219   6.957  21.906 -0.1056  0.0611 -0.2121
80131W        W55119  24.167  31.794  16.634  0.0744 -0.3710 -0.1197
80132W        W55120  13.924  34.897   3.858  0.1602  0.3745 -0.1414
80133W        W55121  19.462  15.302   9.250 -0.2896 -0.0963  0.2026
80134W        W55122  23.894   4.198   6.426  0.0514  0.2532  0.0692
80135W        W55123  32.565  32.279  22.987 -0.1392  0.0841 -0.0791
80136W        W55124  25.919  13.662  13.013  0.0802 -0.1738 -0.1608
80137W        W55125  12.966  27.376  10.720 -0.2666 -0.2686  0.1726
80138W        W55126  11.283  30.734   7.627 -0.1281 -0.2703 -0.4058
80139W        W55127  13.771  33.568  20.876  0.0939 -0.1628 -0.4252
80140W        W55128  14.978  21.870  12.147  0.0833  0.1373  0.3181
80141W        W55129   9.561  27.726  24.623  0.2815 -0.1032  0.0076
80142W        W55130   0.456  31.993  20.511  0.0861 -0.0028  0.0895
80143W        W55131  25.662  27.361  23.531  0.0661  0.1944 -0.0611
80144W        W55132  18.444  13.954   7.981  0.1618  0.3504  0.0552
80145W        W55133  11.567   2.400  22.011 -0.1527  0.2165 -0.0100
80146W        W55134   3.371  34.089   6.774 -0.3433  0.2604 -0.1141
80147W        W55135  19.000  22.385   3.679 -0.0085  0.2883  0.1964
80148W        W55136  33.675  17.058  10.577  0.2569  0.3153  0.1219
80149W        W55137  31.747  16.785  12.022 -0.2062 -0.1648 -0.0039
80150W        W55138  19.206  10.760  21.912  0.2369  0.3532  0.1116
80151W        W55139  12.696  21.656   5.208  0.4709  0.1070  0.0333
80152W        W55140  18.401  16.039   0.359  0.1995 -0.0277 -0.0751
80153W        W55141   4.289  14.413  19.468  0.0220 -0.0636  0.3060
80154W        W55142  10.265   9.958  11.043  0.2651 -0.3988  0.1414
80155W        W55143   7.161  22.806  21.236 -0.1403 -0.1833 -0.2620
80156W        W55144  10.807  16.560   6.575 -0.0255  0.0770 -0.2196
80157W        W55145  17.685  23.935   9.339 -0.0813 -0.1425  0.0647
80158W        W55146  16.777  21.651   3.971 -0.1579  0.0298 -0.1211
80159W        W55147  23.143  28.376   1.431  0.0838  0.1470 -0.0636
80160W        W55148  10.100  25.323   7.432 -0.3856 -0.0069 -0.0498
80161W        W55149   4.586  27.168   1.681  0.3157  0.1571 -0.0556
80162W        W55150  11.314   9.174   1.347  0.2543 -0.3348  0.0342
80163W        W55151  17.049  21.006  10.970  0.0576  0.0886  0.1260
80164W        W55152   7.144  22.424   1.606 -0.2143  0.2650 -0.1106
80165W        W55153  27.862  26.479  25.601 -0.4839  0.1379  0.2242
80166W        W55154   8.602   3.828  21.350 -0.0772 -0.1152 -0.1131
80167W        W55155  28.785  21.872  20.618 -0.3212  0.1291  0.2661
80168W        W55156  25.049  21.716  16.522  0.2184 -0.0653 -0.1292
80169W        W55157   2.529   5.407  19.140  0.0272 -0.0542 -0.3434
80170W        W55158  32.168  32.546  17.289 -0.1935  0.2159  0.0686
80171W        W55159  26.751  19.202  17.883  0.1370 -0.1158 -0.0342
80172W        W55160  33.777   9.910  26.072  0.1834  0.1457  0.0261
80173W        W55161   9.071  34.151   2.028  0.0743 -0.0669  0.0517
80174W        W55162   2.039   8.712   1.528 -0.2731  0.2889  0.1746
80175W        W55163  33.960  13.955  19.106 -0.0898  0.0377  0.0427
80176W        W55164  24.383  34.213  19.188  0.2404  0.0425  0.0054
80177W        W55165   1.607  22.362  12.887  0.0252 -0.1003  0.0026
80178W        W55166  26.590   0.837  18.263  0.2883  0.1637  0.1797
80179W        W55167  25.749  17.351  16.179  0.0928  0.0434  0.0159
80180W        W55168  10.854  13.229  13.011 -0.2360  0.1386 -0.1029
80181W        W55169   7.687  32.480  14.149  0.1455  0.3482 -0.0835
80182W        W55170  30.823  31.832   3.897 -0.2416  0.0187  0.2374
80183W        W55171  13.526   7.598  22.156 -0.2031  0.0233  0.3960
80184W        W55172   0.195   9.240  21.879  0.2659  0.0013 -0.1735
80185W        W55173  10.049  29.987  16.295  0.1300 -0.1886 -0.1349
80186W        W55174  33.273  17.400  14.401  0.3444 -0.0902 -0.1697
80187W        W55175   1.914  22.014  13.192  0.0891  0.2909  0.0239
80188W        W55176  10.922  18.646   2.629 -0.1750 -0.0074 -0.1241
80189W        W55177  10.009  14.310  25.640 -0.1736 -0.1431 -0.0008
80190W        W55178   6.368   7.962  25.934 -0.2304 -0.1142  0.2609
80191W        W55179  18.042  27.649  24.686 -0.0515  0.0403 -0.0405
80192W        W55180  15.782  28.563   2.585  0.1180  0.0744  0.3291
80193W        W55181  13.342  13.648  11.764 -0.1455 -0.1496 -0.1140
80194W        W55182   7.306  28.661  12.549  0.0686 -0.0834  0.1543
80195W        W55183  28.232  20.469  13.734  0.2622 -0.0221  0.0736
80196W        W55184  19.661  10.607  22.870  0.0213 -0.0960  0.0738
80197W        W55185  27.712  16.521   0.202  0.0556 -0.0539  0.0952
80198W        W55186  26.475  28.302   9.753 -0.1906  0.1505 -0.2260
80199W        W55187  31.075  17.736  19.293 -0.1095 -0.2325  0.0930
80200W        W55188  23.265   9.102  25.820  0.0871  0.1097 -0.0363
80201W        W55189  14.020   1.551  24.169  0.0793  0.1798 -0.0081
80202W        W55190   8.432  34.748   0.102  0.0099  0.0593  0.2286
80203W        W55191  25.214  11.670  20.655 -0.1708  0.0346 -0.4341
80204W        W55192  18.738  17.055   1.523 -0.0234  0.0226  0.2578
80205W        W55193   5.773  18.843  19.698  0.2853  0.0433 -0.0803
80206W        W55194  32.717  24.484  11.193  0.0740  0.2497  0.0533
80207W        W55195  32.947   1.712  13.345  0.1120  0.2488  0.1155
80208W        W55196   4.973  31.117  21.456 -0.0540 -0.1625 -0.1156
80209W        W55197   5.859   8.285  20.810 -0.0273 -0.2128  0.0444
80210W        W55198   7.821  29.237  22.158  0.2330  0.1429 -0.0872
80211W        W55199  20.256   4.718  22.427 -0.0521  0.0657 -0.1725
80212W        W55200   3.136  18.441   0.763  0.0760 -0.1738 -0.0473
80213W        W55201  34.822  13.433  23.005 -0.0161 -0.0700 -0.0994
80214W        W55202  15.929  14.983   5.357 -0.0109  0.3334 -0.3658
80215W        W55203  24.359  33.217  14.426 -0.0037 -0.0213  0.2640
80216W        W55204  30.201   6.690  15.317 -0.1701 -0.1549 -0.0580
80217W        W55205   2.808  21.978  22.185 -0.2549 -0.1605 -0.1815
80218W        W55206  26.124  29.272  10.322 -0.2619  0.0181 -0.3062
80219W        W55207   9.142  34.321   5.687 -0.0020 -0.0900  0.1698
80220W        W55208  29.720  19.020  11.508 -0.3030  0.1795 -0.0339
80221W        W55209  10.699  33.995   6.152  0.2302  0.1196  0.0548
80222W        W55210  16.465  12.488  11.561 -0.0854 -0.3638 -0.1081
80223W        W55211  30.559  32.312  15.373  0.0299 -0.2155 -0.1305
80224W        W55212  22.960  31.176   0.115 -0.0418 -0.2832 -0.3681
80225W        W55213  30.145  31.667   2.119  0.0775 -0.0897 -0.0487
80226W        W55214   6.913   6.258   3.862  0.1590  0.0979  0.2877
80227W        W55215  29.554  30.645  11.803  0.0688  0.1836  0.1612
80228W        W55216   2.071  33.890   0.093 -0.0368  0.1000  0.0079
80229W        W55217   9.239  13.427  22.104  0.0011  0.2171  0.0097
80230W        W55218  33.035   5.009  25.244 -0.0495  0.2653  0.2303
80231W        W55219  23.239  15.109  25.394 -0.0769  0.2226 -0.0284
80232W        W55220   8.054  10.963   8.365 -0.1158  0.5438 -0.5241
80233W        W55221  19.378   8.559   4.504 -0.0488  0.0828  0.1346
80234W        W55222   9.845  29.051  25.486 -0.1253 -0.0343  0.0422
80235W        W55223  20.847   5.754   9.381 -0.2338 -0.4199 -0.1671
80236W        W55224  22.049   1.671   0.704  0.1615 -0.1925 -0.0811
80237W        W55225  26.854  33.562   1.881 -0.4354 -0.2238 -0.0223
80238W        W55226  26.395  23.975  25.506 -0.1327  0.2721  0.5103
80239W        W55227  21.782  21.661  23.600  0.2427  0.2790  0.1182
80240W        W55228   1.924  11.153   2.035 -0.0766 -0.0386  0.0800
80241W        W55229  23.170  14.177  25.514 -0.3137  0.1074  0.0802
80242W        W55230   6.013  18.859   4.679 -0.2415 -0.3286 -0.3038
80243W        W55231  32.100   4.290  19.112  0.0784 -0.4775 -0.0795
80244W        W55232  17.582  32.575   4.771 -0.1267 -0.1153  0.1707
80245W        W55233   7.712  14.662  25.385  0.3942  0.2085  0.0211
80246W        W55234  30.342  11.759  24.706  0.1835  0.2841 -0.1588
80247W        W55235   9.676  22.568   9.444  0.0969 -0.0919  0.1761
80248W        W55236  10.364  26.728  13.413 -0.1105  0.1866  0.2097
80249W        W55237  27.805  20.799  20.073  0.3153 -0.1501 -0.0152
80250W        W55238  20.735  21.419   3.864 -0.0899  0.2125  0.0705
80251W        W55239   0.835  34.214  22.122  0.2169 -0.0063  0.1678
80252W        W55240  23.227  13.739  13.310 -0.2819 -0.0686  0.0988
80253W        W55241   8.290   6.258  23.256 -0.3550  0.1656 -0.1464
80254W        W55242   9.611   0.148  10.943  0.0460  0.0209 -0.0444
80255W        W55243  14.276  20.013  25.452 -0.1913  0.0725 -0.0312
80256W        W55244   0.931  26.342  18.892 -0.1497 -0.0443 -0.2181
80257W        W55245  13.149   6.070   2.273 -0.2157 -0.2890 -0.1390
80258W        W55246  13.604  27.952   2.557  0.1155 -0.0020  0.2785
80259W        W55247  26.761   2.685  11.427  0.1224  0.1671 -0.2329
80260W        W55248  18.862  23.462  26.131 -0.0035  0.0140 -0.1335
80261W        W55249   2.008  35.233  17.762 -0.3492  0.1414  0.1659
80262W        W55250  22.704  24.772   3.542  0.2378 -0.0518 -0.2677
80263W        W55251  17.083  14.854   6.108  0.5628  0.0329 -0.1309
80264W        W55252  15.876  16.394   8.868 -0.0454 -0.1431  0.0462
80265W        W55253  31.227  16.875  12.909  0.1030  0.3473  0.1434
80266W        W55254   7.189  25.325   7.132  0.3418 -0.1312  0.2189
80267W        W55255   0.742  13.148  13.897 -0.0218 -0.3023 -0.0967
80268W        W55256  13.716  14.866   5.444  0.1782  0.0264  0.0352
80269W        W55257   1.962  34.174  10.177  0.3751 -0.0141 -0.0935
80270W        W55258   5.883  20.177  22.260 -0.1366 -0.1035 -0.2750
80271W        W55259   5.478  33.479   0.978  0.0084  0.1057 -0.2700
80272W        W55260  34.795   5.369   6.181  0.3514  0.0161  0.1887
80273W        W55261   5.360  22.685  22.482  0.0435  0.1966  0.2810
80274W        W55262   5.087  30.611  21.435 -0.2041 -0.1353  0.1260
80275W        W55263  23.754  23.906  23.373 -0.1870  0.1942 -0.1573
80276W        W55264  30.006  23.286   0.561 -0.0937 -0.4412  0.3884
80277W        W55265  18.623  34.011  22.878  0.2273  0.2007  0.0038
80278W        W55266  18.749  20.867  21.380  0.1210 -0.0997 -0.0163
80279W        W55267   6.019  33.863  20.681 -0.1366 -0.2159  0.0186
80280W        W55268  32.482  28.650   1.435 -0.0766  0.2365  0.1924
80281W        W55269  32.007   0.132  16.895 -0.2342  0.0025  0.1914
80282W        W55270  14.439  29.493   7.045  0.1819  0.0703 -0.2739
80283W        W55271  15.557  29.669  20.612  0.2262  0.0675 -0.0960
80284W        W55272  21.469  34.457   6.146  0.0442  0.2864  0.4918
80285W        W55273  20.323  30.378   7.301  0.0514 -0.2356  0.1441
80286W        W55274  26.471   4.077  20.594  0.2316 -0.0638  0.1182
80287W        W55275   6.246  16.718   3.621  0.2095 -0.2340 -0.1188
80288W        W55276  31.134   2.856  19.820  0.0349 -0.0945  0.0945
80289W        W55277  31.441  12.332  22.350 -0.0415 -0.2599  0.1288
80290W        W55278  19.962   9.433   9.687 -0.0192 -0.0510  0.1773
80291W        W55279   4.214  29.365   9.986 -0.0022  0.0756 -0.2249
80292W        W55280  20.504  24.922   7.038 -0.2234 -0.0725  0.0182
80293W        W55281  16.155  15.606  21.010 -0.0503 -0.1485  0.1023
80294W        W55282   1.077  17.077  20.501 -0.0002 -0.3054  0.0390
80295W        W55283  34.772  28.884  14.911  0.1737  0.0369  0.4616
80296W        W55284  23.344  16.674  12.388  0.0132  0.1300 -0.1842
80297W        W55285  21.111  17.184  20.192 -0.0735 -0.0204  0.1195
80298W        W55286   5.359  24.086   4.802 -0.3947  0.2203  0.3267
80299W        W55287  31.616  17.790  10.958  0.2258 -0.2761  0.0694
80300W        W55288  26.929  33.057   1.299  0.2813 -0.1439  0.1213
80301W        W55289  19.905  13.071  19.306 -0.1010  0.6432 -0.1445
80302W        W55290  12.575   7.380  20.807 -0.1872  0.1370 -0.0291
80303W        W55291   1.226  24.132  18.357 -0.3400 -0.2130 -0.1200
80304W        W55292  26.074  30.525  24.465 -0.0879  0.2738  0.0455
80305W        W55293  14.982  21.007  10.922 -0.1033  0.2112 -0.0719
80306W        W55294  26.565   4.661  16.245 -0.0283  0.1284  0.0184
80307W        W55295  13.276   7.457   7.849  0.2775 -0.1738  0.0319
80308W        W55296   1.649   3.026   3.380 -0.0947 -0.2595  0.3391
80309W        W55297  16.846   4.847   7.814  0.4781 -0.1795 -0.0552
80310W        W55298   4.831  22.996  21.131  0.1752  0.1248  0.0746
80311W        W55299   0.429  29.526  25.413  0.2007 -0.0947 -0.3197
80312W        W55300  21.274   9.211  20.316  0.0645 -0.0164 -0.3019
80313W        W55301  14.330   3.152  11.199 -0.0383 -0.0466  0.1629
80314W        W55302  14.960  34.781   9.493  0.1263 -0.0201  0.0283
80315W        W55303  11.578  15.021  10.922 -0.2763 -0.0697 -0.0594
80316W        W55304   0.359  14.183   0.936  0.0478 -0.1100  0.1493
80317W        W55305  29.622  12.960  23.111 -0.2824 -0.1141 -0.0964
80318W        W55306  33.738   2.359   2.094 -0.1004 -0.0941  0.1797
80319W        W55307  33.823  24.643  12.835  0.2070 -0.1539  0.0746
80320W        W55308  26.248  27.415  11.997 -0.0784 -0.0246  0.1640
80321W        W55309  24.978   5.340  22.034  0.0893  0.0178 -0.1264
80322W        W55310  32.353  26.920  17.575 -0.0809  0.0967 -0.0131
80323W        W55311  34.046   7.799  22.941  0.1363  0.2299 -0.0409
80324W        W55312  20.117  34.848  21.868  0.0000 -0.2847 -0.0509
80325W        W55313  28.787   1.218   2.090 -0.0590 -0.2959  0.0314
80326W        W55314   4.223  35.184  11.601  0.0105 -0.0763  0.3015
80327W        W55315  34.687  30.359   4.531 -0.0312 -0.1244  0.2341
80328W        W55316  16.206  32.573  18.804 -0.1228 -0.0749  0.0485
80329W        W55317  25.374  25.175  10.432 -0.0647  0.0033  0.1740
80330W        W55318   7.922  27.280   2.847  0.1374  0.0628  0.1781
80331W        W55319   7.665  15.075   0.646 -0.0592 -0.0007  0.3377
80332W        W55320  29.081  24.617   9.843  0.4844  0.1997 -0.1906
80333W        W55321   6.561  16.966  22.668 -0.1617  0.0855  0.1906
80334W        W55322  10.831  27.636  10.149  0.0016 -0.1570 -0.2800
80335W        W55323  11.746   5.104  25.873  0.0542  0.1228  0.1372
80336W        W55324  19.431   4.180  18.160 -0.0019 -0.1519  0.0617
80337W        W55325   3.594  10.039   7.205  0.3821 -0.2961  0.0151
80338W        W55326  29.469  22.249  23.609 -0.1446 -0.2130 -0.1088
80339W        W55327  17.221   0.986  20.396 -0.0765  0.1564 -0.1035
80340W        W55328  23.679  22.862  20.882 -0.0546 -0.1524  0.1789
80341W        W55329   5.047  14.799   6.542 -0.1318 -0.1224 -0.1910
80342W        W55330  21.871  13.179  22.198  0.0184  0.1677 -0.4523
80343W        W55331  11.314  23.846   5.331 -0.0660 -0.0349 -0.5545
80344W        W55332  28.949   9.028  22.848  0.4174 -0.0035  0.0101
80345W        W55333  34.077  18.238  20.317 -0.0650  0.3155  0.0878
80346W        W55334  16.794   6.253  12.022  0.0628  0.0379  0.1193
80347W        W55335   9.877  11.920  23.942  0.0335  0.2781  0.0723
80348W        W55336   1.707  27.982  20.639  0.1638 -0.1579 -0.1067
80349W        W55337  18.254  14.044  23.955 -0.0573  0.1968  0.0292
80350W        W55338  32.278  34.464  16.760 -0.2563  0.1007 -0.4910
80351W        W55339   9.854   9.037  19.705  0.2173 -0.3435 -0.0710
80352W        W55340  22.769  29.524   0.285  0.0179 -0.1639  0.0032
80353W        W55341  18.917  29.087   2.015  0.0991  0.1117 -0.0463
80354W        W55342   7.546   7.398   8.807  0.1735 -0.0781 -0.3946
80355W        W55343   9.204  35.229  13.068  0.1365  0.5648 -0.1390
80356W        W55344  11.225  22.375  12.778  0.0478  0.2401 -0.1736
80357W        W55345   9.852  28.868  24.953  0.1906  0.1060  0.5329
80358W        W55346  28.278  26.586   9.853 -0.0333  0.0763 -0.0293
80359W        W55347  21.627  24.348  19.630 -0.1318  0.0270  0.1187
80360W        W55348   3.858  33.005   5.862  0.0360  0.1992  0.0012
80361W        W55349  34.584  29.784   7.282  0.3820 -0.0789  0.0011
80362W        W55350   3.690  25.304   6.492  0.0210 -0.0825  0.1797
80363W        W55351   0.024  35.117  19.552  0.0183  0.2489 -0.1748
80364W        W55352  13.846   1.591  12.254  0.2780  0.0893  0.1704
80365W        W55353  15.209   8.091  19.883  0.0874 -0.1804  0.4549
80366W        W55354  31.494   9.500  19.952  0.2625 -0.0393 -0.0327
80367W        W55355  17.984   9.357  20.454 -0.1355  0.0208  0.2570
80368W        W55356  28.321   7.530  10.401  0.2492  0.0426  0.0125
80369W        W55357   0.545  14.136  25.319 -0.0013 -0.0411 -0.0073
80370W        W55358  19.276  11.651  17.221  0.0858  0.0498 -0.1239
80371W        W55359   1.474  15.378  17.445  0.0276  0.1246 -0.0811
80372W        W55360  32.756  34.933  23.684 -0.0793  0.1956  0.0843
80373W        W55361   4.873  20.219  18.544 -0.0722  0.0081 -0.1983
80374W        W55362  21.862  27.179  17.230  0.2433  0.1004 -0.1682
80375W        W55363   1.469  17.880  13.277 -0.1086 -0.3082  0.1638
80376W        W55364  19.842   8.409  21.591  0.3094  0.1972 -0.2971
80377W        W55365  12.798   3.792   7.101 -0.3039 -0.4760  0.2693
80378W        W55366  16.872  10.652  23.138  0.1160 -0.0364  0.0046
80379W        W55367  18.115  23.741  23.033  0.1152  0.1818  0.1206
80380W        W55368   6.785  16.984  18.368  0.2756  0.1002 -0.2520
80381W        W55369  13.431  11.256  21.457  0.0115 -0.1525 -0.0486
80382W        W55370  11.806  23.624  14.580  0.1403 -0.1507  0.1241
80383W        W55371  23.391   5.173  13.971  0.1787 -0.2267  0.2504
80384W        W55372   0.743  23.586  22.390  0.2966 -0.3544  0.1299
80385W        W55373   4.114   1.571  19.115 -0.0927 -0.0276  0.0167
80386W        W55374  24.656  22.152  23.035  0.1348 -0.0096 -0.0630
80387W        W55375   5.754  27.766   3.501 -0.1780  0.2308 -0.1623
80388W        W55376  22.150  32.350   5.593 -0.0216 -0.2090 -0.1294
80389W        W55377  28.845  20.826  15.435 -0.3019  0.2843  0.1536
80390W        W55378   0.904  28.565   4.247 -0.2290  0.1272 -0.0435
80391W        W55379   3.266  30.602  20.067 -0.0440  0.0873 -0.1042
80392W        W55380  29.626  26.254  26.241  0.0611 -0.1246  0.0138
80393W        W55381   6.136  24.633   2.396 -0.1200 -0.1008  0.0708
80394W        W55382  28.321  16.010   7.418  0.0849 -0.0501  0.1067
80395W        W55383  34.450   3.614  25.650  0.0026 -0.2584  0.0867
80396W        W55384  11.553  34.402   4.925  0.0437  0.3681 -0.1606
80397W        W55385   2.630  34.691  19.884  0.0686 -0.0528 -0.1794
80398W        W55386   6.354   9.263   1.632 -0.0790  0.2057  0.0929
80399W        W55387  14.318  33.061  11.725  0.1688 -0.3610  0.4541
80400W        W55388  35.327  15.102  25.912  0.1020  0.0376 -0.2525
80401W        W55389  26.143   1.384  17.247 -0.1016  0.0417  0.3943
80402W        W55390  29.147  24.823  14.641  0.1603 -0.0464  0.0754
80403W        W55391  32.913  33.533   0.758  0.2385 -0.1605 -0.0126
80404W        W55392  30.858  14.021  25.400 -0.1288 -0.0535 -0.1826
80405W        W55393  32.626  30.018  14.622  0.2904  0.1417  0.2312
80406W        W55394  27.436   2.881  19.149  0.0989  0.4100  0.3110
80407W        W55395  12.988  35.148  23.122  0.0087 -0.1410  0.1751
80408W        W55396  27.946   1.784  25.778  0.2465  0.0512 -0.0302
80409W        W55397   4.104  11.214   2.263 -0.0525 -0.1884 -0.2097
80410W        W55398   1.033  21.625   1.942 -0.0969 -0.0507 -0.2776
80411W        W55399  11.982  17.044   2.812  0.2771 -0.1235 -0.2344
80412W        W55400  13.663  13.644   2.260  0.3213  0.2499 -0.1136
80413W        W55401  11.778  13.887  23.356  0.0182 -0.0108  0.0763
80414W        W55402   6.886   2.212  12.494 -0.2074 -0.0621 -0.2983
80415W        W55403  27.060  32.941   0.417  0.2076  0.2147  0.0361
80416W        W55404   0.154  30.704   2.060  0.0981 -0.1763 -0.1811
80417W        W55405  33.109   8.004  25.495  0.3592 -0.0268 -0.1384
80418W        W55406  10.644  33.811  10.558  0.0045 -0.0456 -0.0825
80419W        W55407   8.511  28.467   6.392 -0.3008 -0.0169  0.2205
80420W        W55408  34.010  30.707  22.555 -0.1408 -0.1446  0.1716
80421W        W55409  25.170  17.658  17.678 -0.3444  0.1249 -0.0005
80422W        W55410   2.183  11.110   2.510 -0.2339  0.2095  0.4087
80423W        W55411   5.252   1.943   6.154  0.0819 -0.4098 -0.1478
80424W        W55412  35.128  11.626  20.446  0.0581  0.1037  0.1359
80425W        W55413  22.752  26.265  14.516  0.1174  0.0785 -0.2207
80426W        W55414  21.277  24.588   5.167 -0.2040 -0.0281  0.1896
80427W        W55415  34.909  17.542  17.654 -0.0208 -0.0583  0.4748
80428W        W55416  28.044  22.504   8.533 -0.3380 -0.0796  0.0451
80429W        W55417  28.162   8.627  25.843 -0.1581 -0.0669 -0.3439
80430W        W55418  32.156  24.437  20.270  0.1272  0.1020 -0.0033
80431W        W55419  24.727  26.958  23.518  0.0217 -0.0225 -0.0539
80432W        W55420  18.216  32.592   0.243 -0.0466 -0.0180  0.1121
80433W        W55421  16.902  34.934  19.517 -0.0389 -0.0344  0.3195
80434W        W55422   7.777   0.908   9.043 -0.0327  0.3925  0.5112
80435W        W55423  23.427  14.670  24.216 -0.1771 -0.0194  0.1357
80436W        W55424   4.378  26.148  23.311  0.0011 -0.0390  0.0224
80437W        W55425  29.747  17.327  12.341 -0.1657 -0.3272 -0.2288
80438W        W55426  13.322  22.390   2.318  0.2888  0.0395 -0.4155
80439W        W55427  30.141  23.162   8.556 -0.1188 -0.0659 -0.1155
80440W        W55428  33.227   2.567  19.208  0.1019  0.0582  0.2896
80441W        W55429   4.209  29.713   3.563  0.0982  0.1455  0.2376
80442W        W55430  12.084   1.641  10.945 -0.0577 -0.2814  0.1885
80443W        W55431  32.782  29.241  19.488 -0.0594  0.0860  0.0042
80444W        W55432  18.761  17.708   2.989 -0.1305  0.2809  0.2715
80445W        W55433  34.907  26.094   3.532 -0.4956  0.1217  0.1552
80446W        W55434  11.707  27.460   6.469  0.0483 -0.0930  0.0434
80447W        W55435  33.793  15.709  18.798  0.1581  0.0407 -0.2272
80448W        W55436   4.221  18.853   0.629 -0.2621 -0.2532 -0.1921
80449W        W55437  30.819  31.449  21.638  0.0320 -0.4615 -0.2444
80450W        W55438   6.431  17.635   2.930 -0.1983  0.0677 -0.0474
80451W        W55439  10.964   5.920  24.170 -0.1977 -0.2314  0.0992
80452W        W55440  34.564  24.084  10.271 -0.0729  0.2686  0.1042
80453W        W55441   2.490  27.970   1.987  0.0132 -0.2892 -0.0764
80454W        W55442  33.566   3.644  14.247 -0.4607 -0.1051 -0.2334
80455W        W55443   0.330   3.469  23.967 -0.0537 -0.3367 -0.0498
80456W        W55444  14.793  33.399   4.194  0.1456  0.1057 -0.1042
80457W        W55445  31.052  25.665  15.997  0.1736 -0.0712 -0.0603
80458W        W55446  35.385  29.709   1.941  0.0641  0.0677  0.0841
80459W        W55447   7.522   2.667   7.616 -0.0334 -0.1623 -0.2481
80460W        W55448  33.387  23.355  15.667 -0.3173  0.0584 -0.0440
80461W        W55449  30.438  31.147   4.561 -0.0564  0.0017  0.1428
80462W        W55450  18.458  15.982  19.383 -0.1500  0.0938 -0.0416
80463W        W55451  32.043   6.151  18.221 -0.0045  0.0857 -0.2895
80464W        W55452  27.121  19.645   7.303 -0.0648  0.2625 -0.1608
80465W        W55453  31.002  14.358   5.739 -0.0289 -0.1554  0.2561
80466W        W55454  13.554  34.039  11.642 -0.0846  0.0491 -0.1310
80467W        W55455   9.039  32.838   0.274 -0.2500 -0.0879  0.0927
80468W        W55456  29.562  21.425  22.372 -0.3337 -0.0140 -0.0160
80469W        W55457   9.721  11.064  10.453  0.2708  0.1042  0.0862
80470W        W55458  34.504   5.090  22.854 -0.4207  0.0867  0.1008
80471W        W55459  22.290   9.949  19.280  0.0461 -0.1661 -0.0192
80472W        W55460  19.649  22.349   5.490  0.1480  0.1746 -0.2705
80473W        W55461  22.325   5.734  17.192  0.1939 -0.2145 -0.0593
80474W        W55462   4.312  31.914  22.109  0.2505 -0.4481 -0.0249
80475W        W55463   9.380   5.838  13.474  0.0223  0.0527  0.0908
80476W        W55464  18.160  17.863   1.215 -0.2027  0.0623 -0.3147
80477W        W55465  26.053  20.289  20.681  0.1930  0.0908  0.1445
80478W        W55466  29.512  20.449  19.389  0.0891 -0.3712 -0.1571
80479W        W55467   0.211   6.658  13.804  0.0874 -0.1065 -0.1097
80480W        W55468  12.929  11.493  12.538  0.0186 -0.2154  0.0851
80481W        W55469  31.280  28.391  25.679 -0.0742 -0.1973  0.0961
80482W        W55470  28.582  31.408  11.399 -0.2790  0.3016  0.1747
80483W        W55471   2.017  25.194  20.407 -0.0278  0.1764  0.2224
80484W        W55472  14.222  14.587   0.439  0.0707 -0.0731  0.0368
80485W        W55473  23.719   8.887   2.980 -0.1034  0.2150  0.0781
80486W        W55474   9.978  26.994  16.500  0.1816  0.2682 -0.4978
80487W        W55475  20.542   1.860   8.074 -0.0056 -0.0281  0.1305
80488W        W55476  13.207  22.357  12.115 -0.0414  0.2223  0.0429
80489W        W55477  21.942  17.210  15.336 -0.0303 -0.0936 -0.0403
80490W        W55478  30.544  33.142   3.378 -0.2486  0.1221  0.2993
80491W        W55479  10.365  20.747   2.791 -0.0419 -0.2090 -0.0378
80492W        W55480   6.183  34.038  10.472 -0.1398  0.0999  0.0334
80493W        W55481  24.013   2.092  24.445  0.0615  0.1233  0.0611
80494W        W55482   8.990  32.036   7.200 -0.2193  0.0033  0.1200
80495W        W55483  15.797  34.125   1.250 -0.0402 -0.2526  0.0384
80496W        W55484  18.678  19.737   7.593 -0.2175  0.2312  0.0677
80497W        W55485  17.092  11.016  11.040 -0.1360 -0.1271 -0.0306
80498W        W55486  19.108  22.551  21.718  0.0666  0.1347  0.0663
80499W        W55487  15.771  22.656  12.413 -0.0785  0.0371  0.0508
80500W        W55488  27.654  33.316  11.293  0.1181  0.2968 -0.3167
80501W        W55489  25.132  23.312  17.600  0.0750  0.0096  0.1484
80502W        W55490   2.674  33.881  24.245  0.1011 -0.3775  0.0854
80503W        W55491  24.919   0.359  17.884 -0.0282 -0.0027 -0.1327
80504W        W55492   6.287  28.558   1.538 -0.0242 -0.1304 -0.2579
80505W        W55493  25.443  26.566  17.201  0.0259 -0.0475 -0.1830
80506W        W55494  35.312  21.435   2.149  0.0432  0.0478  0.1279
80507W        W55495  12.911  19.713  25.608 -0.1313 -0.0418  0.1301
80508W        W55496   1.694  29.169  19.148  0.0657  0.0870 -0.0366
80509W        W55497  23.868   5.383   1.350 -0.1960  0.3633 -0.2738
80510W        W55498  28.091  15.460   7.949 -0.1067  0.0422 -0.0336
80511W        W55499   8.699  31.444   9.988  0.1731  0.1160 -0.1168
80512W        W55500  25.329  34.396   0.147 -0.2664  0.0335 -0.2932
80513W        W55501   6.451  31.820  12.578 -0.0429 -0.1253 -0.2567
80514W        W55502   1.956   8.318   1.808  0.1296 -0.0929  0.1700
80515W        W55503  31.978   7.638  11.139 -0.1431 -0.0817  0.0928
80516W        W55504  15.699  20.368   9.464 -0.0149  0.0463 -0.0905
80517W        W55505  12.463  33.816  13.485  0.3097 -0.0871 -0.0110
80518W        W55506  13.304   8.515   6.512  0.0035  0.4565 -0.0662
80519W        W55507  21.014   6.565  18.751  0.2048  0.2373 -0.1168
80520W        W55508   7.609   7.639   6.798  0.2869  0.1538 -0.0236
80521W        W55509  11.440  24.979   2.159 -0.1920 -0.0513  0.1388
80522W        W55510  29.526   6.756   2.667 -0.0116  0.2490  0.1078
80523W        W55511  28.843  32.223  25.268 -0.1140 -0.3673 -0.0315
80524W        W55512   3.116   7.130   3.081  0.3899  0.1269 -0.2265
80525W        W55513  24.447   5.314  14.737  0.2598 -0.1699  0.0861
80526W        W55514   8.684  21.330  24.498  0.0924  0.1600 -0.0383
80527W        W55515  26.779  32.129  17.874  0.0204 -0.2496  0.1176
80528W        W55516  26.104  10.060  17.068  0.0515 -0.1055  0.2191
80529W        W55517   5.448   5.736  21.299 -0.0294 -0.0600 -0.0531
80530W        W55518  31.165  20.793  17.362 -0.0532 -0.0233 -0.0004
80531W        W55519  13.161  21.696   6.579 -0.2110  0.0477 -0.0404
80532W        W55520  21.174   1.004  19.978 -0.1703 -0.1127  0.1685
80533W        W55521   6.975   1.868   5.244 -0.0547 -0.3297 -0.0898
80534W        W55522   2.014  10.074  23.160 -0.0016 -0.2684 -0.1271
80535W        W55523   5.896   7.602   7.022 -0.0240  0.1716  0.1469
80536W        W55524  24.108  31.823  13.502 -0.2640  0.1652 -0.1260
80537W        W55525  23.309  13.680   2.289  0.0719  0.2665 -0.1937
80538W        W55526  24.228  24.748   4.212 -0.1202  0.1192  0.0213
80539W        W55527  24.571  23.878  18.899  0.2114 -0.1490 -0.0101
80540W        W55528  19.131   5.383  23.049  0.0702  0.1748  0.0956
80541W        W55529  10.598   5.437  23.686  0.3141  0.2942 -0.0469
80542W        W55530  21.709  14.456  16.645  0.0531  0.0583 -0.0163
80543W        W55531  13.004  25.558  22.774 -0.0125 -0.1445  0.4620
80544W        W55532   7.918  27.573  14.996  0.1449 -0.3599  0.2331
80545W        W55533  21.334  27.426  25.913 -0.0425  0.0694 -0.2220
80546W        W55534  29.697  26.981  15.654 -0.2253  0.0526 -0.0459
80547W        W55535  10.547  35.277   5.647  0.0620 -0.1945  0.2734
80548W        W55536   9.534   8.469   8.210  0.0327 -0.0642  0.0120
80549W        W55537  26.987  16.169   5.704 -0.1475  0.2206 -0.0180
80550W        W55538   2.207  26.632  24.243  0.2322 -0.0229  0.0698
80551W        W55539  17.885  17.682  19.439 -0.1276  0.0980  0.1365
80552W        W55540  31.460  14.767  11.261  0.0235  0.2944  0.2046
80553W        W55541  29.922   4.447  14.802 -0.1202  0.2124 -0.0010
80554W        W55542  31.562  22.849  14.714  0.2077  0.4441  0.1493
80555W        W55543  22.019  23.324  19.046 -0.2895  0.0523 -0.0827
80556W        W55544   6.530   4.507   8.189  0.2611  0.0417 -0.2485
80557W        W55545   6.310  32.426   5.181 -0.0406 -0.0209  0.2820
80558W        W55546  15.378   7.004   1.384 -0.0236 -0.0047  0.0318
80559W        W55547   2.875  24.356  17.857 -0.0701 -0.0055  0.0815
80560W        W55548  14.538  33.613  24.993  0.1805  0.0126  0.1950
80561W        W55549  13.811  34.631  19.262  0.0524 -0.0501 -0.0425
80562W        W55550  19.636   7.757   9.147 -0.0377 -0.6182  0.0126
80563W        W55551   9.545   9.557   0.817  0.1527  0.0166 -0.0758
80564W        W55552   6.534   5.598  24.191 -0.0018  0.6170 -0.1828
80565W        W55553  25.366  20.761  23.803 -0.0571  0.3791 -0.2425
80566W        W55554  32.806   5.563  19.173 -0.0740  0.1706 -0.0482
80567W        W55555  11.061  32.361  11.491  0.1750  0.2323  0.0799
80568W        W55556  22.392  29.465   1.556 -0.0486 -0.0521  0.1681
80569W        W55557   9.298   1.755  22.948  0.0003  0.1710 -0.3608
80570W        W55558  31.209  32.940  15.219 -0.0852 -0.0546 -0.1130
80571W        W55559  29.180  12.401   9.930  0.0706  0.1891 -0.2981
80572W        W55560  23.624  28.659  12.846  0.0669 -0.1349  0.0639
80573W        W55561  27.988  14.674  18.011 -0.0695  0.1741  0.1541
80574W        W55562  28.506  29.305  17.531 -0.0721 -0.1878  0.0869
80575W        W55563   7.762  18.035   0.076 -0.1236 -0.1912  0.0089
80576W        W55564  27.561  21.676  21.982 -0.0231  0.2075 -0.1941
80577W        W55565   8.431   7.699  23.689  0.0177 -0.1424 -0.0844
80578W        W55566   1.068  23.568  15.790 -0.0815 -0.1324 -0.2692
80579W        W55567   4.707  30.477  10.015  0.2891 -0.1239  0.0956
80580W        W55568  34.145   6.570  24.734 -0.1472  0.0783  0.0378
80581W        W55569  26.853  24.813   1.178 -0.0547 -0.1436 -0.1506
80582W        W55570  25.667  29.992  21.069 -0.1026  0.3360 -0.0097
80583W        W55571  15.993  31.594  20.222 -0.0423 -0.2305  0.0188
80584W        W55572   9.476   8.900  20.330 -0.1947 -0.0008 -0.0143
80585W        W55573   1.520   5.286  20.319 -0.1271 -0.1000 -0.1614
80586W        W55574  25.992  29.039  16.910 -0.1880 -0.3529 -0.3387
80587W        W55575   3.115  32.033   3.415  0.0028 -0.2376 -0.4045
80588W        W55576  31.145   3.140   0.421  0.2240 -0.1518  0.0088
80589W        W55577  28.124  30.611  21.959 -0.0313  0.2200 -0.0018
80590W        W55578  35.015  18.458  22.101 -0.0968  0.0433  0.0077
80591W        W55579   3.560   1.763   6.338  0.1641  0.2136 -0.1167
80592W        W55580  19.560  14.551  25.043  0.0044 -0.2525 -0.1033
80593W        W55581  10.392  30.280   4.032 -0.1058 -0.0286  0.2808
80594W        W55582   8.047  14.581   6.540 -0.1772  0.5855 -0.3965
80595W        W55583  27.265  19.055   8.142 -0.0043 -0.2203  0.0766
80596W        W55584  30.133  15.042  21.153  0.0280  0.0641 -0.1150
80597W        W55585  30.233  22.956  24.805  0.1774  0.0121 -0.0064
80598W        W55586   6.396  20.257  25.181 -0.1070 -0.0960  0.0565
80599W        W55587  12.190  35.349   8.194  0.1367  0.1371 -0.1053
80600W        W55588  22.863  34.902  17.229  0.0495  0.0192  0.1101
80601W        W55589  35.229  27.529   4.635  0.2404 -0.1553  0.3206
80602W        W55590  17.670  26.698   9.031 -0.1496 -0.1082  0.2893
80603W        W55591  27.596  26.797   0.282  0.0090  0.1248  0.1585
80604W        W55592   5.188   7.728   8.586  0.1285 -0.2618 -0.0390
80605W        W55593  22.620   3.284  16.841 -0.2206 -0.0296 -0.0400
80606W        W55594  23.666  33.207  23.071 -0.2524 -0.3593  0.1995
80607W        W55595   2.059  22.997  24.029  0.1700  0.1647  0.0416
80608W        W55596  24.241  22.387   1.953  0.2138 -0.0851  0.2175
80609W        W55597  31.787   9.683   8.985  0.0419 -0.0996  0.0413
80610W        W55598  31.757   3.184  20.045  0.4065 -0.1023 -0.1241
80611W        W55599  26.270  33.186   2.490  0.0002  0.1323  0.0453
80612W        W55600   0.133   9.405   1.561  0.0974  0.0886  0.2021
80613W        W55601  35.334  17.576  19.835  0.2411 -0.1212  0.2777
80614W        W55602  10.387  17.923   9.755  0.1133  0.1467  0.0914
80615W        W55603  33.330  21.731   9.971 -0.0303 -0.2988  0.1125
80616W        W55604  18.514  16.166  24.749  0.0351 -0.1565  0.1438
80617W        W55605  26.071  15.708  23.390 -0.1172 -0.0878 -0.0292
80618W        W55606  26.381   2.570   2.979 -0.4130  0.2774 -0.3166
80619W        W55607  15.224  34.308   6.279  0.0516  0.3258 -0.2636
80620W        W55608  27.934  31.473  16.860 -0.0613 -0.7127 -0.0974
80621W        W55609   4.771  10.319  24.634  0.1779 -0.0671  0.2626
80622W        W55610  14.422   5.539   8.283 -0.0854 -0.1662  0.0369
80623W        W55611  31.700  19.238  16.509  0.3182  0.0754 -0.0787
80624W        W55612   2.074  30.103   4.664  0.0985  0.2630 -0.3981
80625W        W55613  34.586   5.031  22.000 -0.3134  0.0600  0.1141
80626W        W55614  22.284  18.250  23.972 -0.0753 -0.0604 -0.0761
80627W        W55615   3.796  14.342   2.943  0.0971  0.1725 -0.2194
80628W        W55616  11.551  17.370  13.171 -0.1532  0.2267 -0.0440
80629W        W55617  11.384   3.175  10.871  0.0199 -0.0292 -0.0057
80630W        W55618   9.244  29.954   6.349  0.0360  0.1715  0.1396
80631W        W55619  33.177  21.208  20.654  0.1613 -0.1144 -0.2612
80632W        W55620  34.963  27.694   0.998  0.2281  0.2933 -0.1449
80633W        W55621  18.123  27.284   4.243 -0.2080 -0.0673 -0.2367
80634W        W55622   5.455  21.246  22.724  0.2039 -0.0633 -0.0065
80635W        W55623  25.790  23.533  20.513 -0.1197 -0.0852  0.3158
80636W        W55624   9.702  23.815  16.034  0.0518 -0.1086 -0.0751
80637W        W55625  34.687  15.950  10.754  0.0091  0.3818 -0.0970
80638W        W55626  24.765   6.667  24.071  0.2312 -0.3771  0.0104
80639W        W55627   8.464  16.029  12.279  0.1083  0.1399  0.2386
80640W        W55628   3.476  24.678   3.964 -0.1049 -0.2047 -0.0597
80641W        W55629  28.169  34.059  13.017 -0.0537  0.2286  0.0663
80642W        W55630  21.772   3.873   2.041  0.4332  0.1395  0.1239
80643W        W55631  19.938  15.914   6.800  0.6494  0.1347  0.0498
80644W        W55632  13.959  20.560   9.394 -0.0352 -0.0180 -0.1011
80645W        W55633  35.065   1.892  25.097  0.0025  0.1173 -0.3761
80646W        W55634  20.718   1.116   1.761  0.1417  0.1187 -0.0637
80647W        W55635  16.389  29.656  11.253  0.2076 -0.1021  0.3343
80648W        W55636  10.347  24.959  11.471  0.0079 -0.4052 -0.1967
80649W        W55637   8.050  21.979  14.204  0.0076 -0.0276 -0.1172
80650W        W55638  28.078  22.209  11.170 -0.0451 -0.1900  0.1936
80651W        W55639  26.206  29.226   2.309  0.3483  0.0795 -0.1077
80652W        W55640   5.974  25.658  13.276  0.4351  0.0749  0.0506
80653W        W55641   1.259  14.315  20.189 -0.4283 -0.0242  0.1512
80654W        W55642  20.323  12.239  20.883  0.0462 -0.2529 -0.3257
80655W        W55643  20.649  26.614  23.670  0.0085  0.3645 -0.1694
80656W        W55644   0.556  32.957  19.643 -0.0261  0.0999  0.0780
80657W        W55645  29.485   8.641  19.024 -0.1222  0.2400 -0.3214
80658W        W55646  26.007   1.445   2.918  0.4753  0.0956 -0.0579
80659W        W55647  14.387  27.121   1.102  0.2540 -0.1243  0.0727
80660W        W55648  25.408  31.018  14.642  0.0944  0.0228  0.0637
80661W        W55649  32.503  20.784  16.319 -0.1105  0.2398 -0.1787
80662W        W55650   6.416   0.493  25.718  0.1077 -0.0581 -0.1663
80663W        W55651  19.509   4.617  17.919 -0.4050 -0.4398  0.2942
80664W        W55652  30.908  15.836  19.122 -0.1602  0.0582  0.2581
80665W        W55653  28.418  34.596  25.333 -0.0810 -0.0699  0.0486
80666W        W55654   9.706   8.187  13.470  0.0088 -0.0891 -0.4492
80667W        W55655   1.187  16.348   0.535 -0.0359  0.3481  0.2378
80668W        W55656  18.240   4.742   1.677 -0.0946 -0.2131 -0.0758
80669W        W55657   5.011  31.228  23.128  0.0556 -0.1383 -0.0110
80670W        W55658  14.805  20.736  25.591 -0.0376 -0.0870 -0.2063
80671W        W55659  12.789  11.859  11.313  0.0890 -0.0295  0.0018
80672W        W55660  28.538  22.982  25.388  0.0563  0.2561  0.0021
80673W        W55661   0.684  21.094  12.235  0.1837  0.1504  0.1630
80674W        W55662   7.830  21.991   8.773  0.2982 -0.2177 -0.2918
80675W        W55663   5.789  11.020   0.950 -0.0846  0.1267  0.0066
80676W        W55664  31.252  31.194  19.707 -0.1807 -0.2763  0.3570
80677W        W55665   2.176  15.350  14.093 -0.1516  0.1277 -0.2394
80678W        W55666  13.240  13.491   2.690  0.2768 -0.0596  0.0858
80679W        W55667   6.471  11.280   2.722 -0.1483 -0.0189 -0.1731
80680W        W55668  13.186   5.720  11.801 -0.0076  0.2812  0.1167
80681W        W55669  24.416  16.629  24.346 -0.0746 -0.0798 -0.0777
80682W        W55670  11.786   9.909  22.872 -0.0947  0.0605  0.0784
80683W        W55671  21.628   4.147  24.934 -0.0564 -0.0891 -0.0111
80684W        W55672   8.606   4.777  24.536 -0.2906 -0.2278 -0.0459
80685W        W55673   5.023   0.635   6.487 -0.1158 -0.2345  0.0497
80686W        W55674  15.274   7.157   4.678 -0.1653 -0.1166  0.3609
80687W        W55675   2.494  26.462   0.974  0.3168 -0.3371  0.0130
80688W        W55676  13.495  24.391   7.031  0.0312  0.0955 -0.2300
80689W        W55677  10.127   8.454   1.181 -0.3327  0.0940  0.1163
80690W        W55678  14.108  23.884   3.711  0.0804 -0.1516  0.0554
80691W        W55679  30.683  13.502  12.594 -0.1640 -0.0454 -0.1224
80692W        W55680   2.251  27.764  18.574 -0.0856  0.2027 -0.2290
80693W        W55681  29.977  28.448  15.376 -0.1114  0.1803 -0.1152
80694W        W55682   6.649  25.408   5.530 -0.0082 -0.1422  0.1754
80695W        W55683   7.589  32.106   4.452  0.0017  0.0323  0.1194
80696W        W55684  28.151   9.448  15.219  0.1943  0.1109  0.0209
80697W        W55685  18.442  28.039   3.289 -0.2275 -0.3666  0.0790
80698W        W55686  15.754  17.637  19.825 -0.2352  0.3547 -0.3641
80699W        W55687  22.995  32.125   0.594  0.3471  0.0528 -0.1432
80700W        W55688  18.519  18.692  22.232 -0.0315  0.3875 -0.1892
80701W        W55689  16.457  25.636  22.968  0.2109 -0.1796  0.3219
80702W        W55690  13.319  31.181  14.480 -0.0536  0.0935 -0.2165
80703W        W55691   7.483  31.081   3.003  0.1753  0.0346  0.4049
80704W        W55692  33.688  28.241  17.587 -0.2523 -0.2813  0.3003
80705W        W55693   0.757   3.688  19.846 -0.4652  0.0245  0.2883
80706W        W55694  21.886   0.853  22.578 -0.0938 -0.0140  0.4199
80707W        W55695  18.264   4.431   3.535 -0.1267  0.1407  0.3420
80708W        W55696  14.263  34.160  10.061  0.0466  0.1090  0.0298
80709W        W55697  22.201  18.384   0.218  0.1807  0.1799  0.1663
80710W        W55698  34.304  17.555   7.830  0.0381  0.2218 -0.1043
80711W        W55699  31.503  23.788  18.295 -0.1141 -0.1651 -0.2272
80712W        W55700  30.964  34.501  12.587  0.0235  0.2090  0.3694
80713W        W55701   8.495  28.773  22.797 -0.1272 -0.2269  0.2758
80714W        W55702  14.389   5.900  20.954  0.1128  0.2291 -0.1435
80715W        W55703   4.405  21.189   4.929 -0.3997  0.3523 -0.1970
80716W        W55704  13.602  33.500   6.014  0.0150 -0.1469 -0.0547
80717W        W55705  12.754   9.688  12.408 -0.0464 -0.1153 -0.1937
80718W        W55706  13.314  12.979   6.075 -0.1621 -0.2774  0.0709
80719W        W55707  33.854  32.622   5.885 -0.1412  0.2868  0.2307
80720W        W55708   8.341   3.115  12.291  0.1622  0.0466 -0.1235
80721W        W55709  13.159  13.539  19.598  0.0174  0.1149 -0.0322
80722W        W55710  11.323   2.365  11.870  0.0424 -0.0843 -0.1027
80723W        W55711  24.120   5.123  18.958  0.2101 -0.1281 -0.1270
80724W        W55712  15.524  30.442  22.972 -0.0960  0.3474  0.1174
80725W        W55713  30.663  23.955  16.193 -0.2064 -0.0808  0.1933
80726W        W55714  11.886   4.549  21.163  0.1492 -0.4119  0.0822
80727W        W55715  14.451   4.869   4.611 -0.3691  0.1835 -0.1457
80728W        W55716  28.962   5.667   1.147  0.1706 -0.3830  0.3063
80729W        W55717  24.472   6.162  13.932  0.0972  0.3784  0.1804
80730W        W55718  34.707  15.608  16.054 -0.1439  0.1993 -0.1343
80731W        W55719  17.697  18.331  20.192 -0.0412 -0.0831  0.1764
80732W        W55720  25.038  13.117  11.676 -0.0040 -0.0566  0.2077
80733W        W55721  17.051  19.913   5.222 -0.1437  0.1092  0.3068
80734W        W55722   9.876  22.015   8.194 -0.0753 -0.1376 -0.0229
80735W        W55723  25.402  26.939  21.655 -0.1027  0.1957 -0.1897
80736W        W55724  20.034  15.955  20.385 -0.3821 -0.1683  0.0703
80737W        W55725  28.095  11.190  24.259  0.0257 -0.1294 -0.0775
80738W        W55726  18.520  33.872  22.385 -0.1133 -0.3032 -0.1637
80739W        W55727  14.930  12.938  13.683 -0.1055 -0.3300  0.1634
80740W        W55728  28.847  25.888   7.855  0.1628  0.0061 -0.0623
80741W        W55729   9.189  10.276  12.171 -0.1066 -0.2384 -0.3044
80742W        W55730  11.196  10.808  10.692 -0.1968 -0.0345  0.0283
80743W        W55731   5.143   4.617   2.467 -0.2530 -0.2633 -0.3015
80744W        W55732   4.762  34.411   4.632  0.3683 -0.1449  0.0334
80745W        W55733  27.256  15.257  18.132 -0.0244  0.1050 -0.2188
80746W        W55734  16.202  31.323   1.778  0.4058 -0.1441 -0.0096
80747W        W55735  27.647  27.350  16.997  0.0903 -0.1193  0.2379
80748W        W55736  28.395   2.530  25.691 -0.2184  0.0834  0.2831
80749W        W55737  16.786   7.993   5.857 -0.1280  0.0063 -0.1419
80750W        W55738  20.288  23.205  23.957  0.0436 -0.0269  0.1820
80751W        W55739  23.129   7.109   3.381 -0.0852 -0.3105  0.1829
80752W        W55740  11.925  10.917   2.301 -0.0898  0.2605 -0.2246
80753W        W55741  14.375  27.487  16.541  0.3235  0.1533  0.1903
80754W        W55742  33.798  23.150   9.601  0.1845  0.0092 -0.1637
80755W        W55743   2.721  20.221   0.120 -0.3013 -0.3397 -0.2035
80756W        W55744  30.499  25.489  12.010  0.1607  0.1073  0.0273
80757W        W55745   6.668   0.046  19.542  0.0048 -0.3441 -0.2610
80758W        W55746  30.683  19.031  18.495  0.0505 -0.0246  0.1380
80759W        W55747  28.595  11.988  16.188  0.0108 -0.0895 -0.2807
80760W        W55748   8.016  28.191   6.794  0.4070  0.1693  0.0661
80761W        W55749  12.641  12.807  13.231  0.0046  0.0706 -0.0326
80762W        W55750  11.359   8.852  24.074  0.1176  0.1742  0.1276
80763W        W55751  13.175   1.143   9.159 -0.0743 -0.0511  0.1676
80764W        W55752  20.255  13.022   3.699  0.1292  0.2788 -0.0405
80765W        W55753   2.943   0.646  16.383  0.1068 -0.0083  0.0920
80766W        W55754   0.647   5.087  21.825 -0.0357 -0.2061  0.4143
80767W        W55755   1.195   0.095  20.366  0.0193 -0.2522 -0.0599
80768W        W55756  34.818  14.795  17.764  0.0484 -0.0204  0.0661
80769W        W55757  12.725   9.138  21.835 -0.0386  0.3783 -0.0154
80770W        W55758  26.856   7.929  12.822  0.2089 -0.0021  0.0794
80771W        W55759  32.978  15.062  13.782 -0.1341 -0.0028 -0.0225
80772W        W55760  12.677  32.385   0.354 -0.0712 -0.1247  0.1090
80773W        W55761  14.366  14.911  20.517 -0.0255 -0.3898  0.1038
80774W        W55762   3.742   1.705  25.294  0.2060 -0.0030  0.2524
80775W        W55763  15.834  22.654  22.918 -0.1470 -0.0531  0.0040
80776W        W55764   5.312  34.319  19.617 -0.1459  0.1370 -0.0680
80777W        W55765  30.269  33.819  22.282 -0.3586 -0.2110  0.1148
80778W        W55766  20.416   2.069  18.432 -0.0903  0.0602 -0.2573
80779W        W55767  27.314  33.824  18.513  0.1378  0.1847  0.0675
80780W        W55768   5.960  35.022  25.322  0.1113  0.0413 -0.2802
80781W        W55769  10.317  29.690  25.373 -0.1430  0.2115 -0.0049
80782W        W55770  10.211  34.457   5.185 -0.1481  0.2687 -0.0329
80783W        W55771  13.687  10.910  12.559  0.4261 -0.1843 -0.1359
80784W        W55772  27.170  16.215  17.345 -0.0595 -0.0560 -0.0387
80785W        W55773  23.928  13.477  24.427  0.0623 -0.0772  0.3371
80786W        W55774  35.060   9.701   0.921  0.0370 -0.2749  0.2599
80787W        W55775  22.152  27.667  13.518 -0.3372 -0.1242 -0.0164
80788W        W55776  26.255  20.135  20.261  0.0384  0.2469  0.2282
80789W        W55777  19.776  27.749  20.159  0.0894  0.1054  0.2160
80790W        W55778  32.728  20.490  24.673 -0.3048  0.1519 -0.3927
80791W        W55779  12.648  19.527  10.159  0.1020 -0.2687  0.0866
80792W        W55780  22.855  12.738   3.030  0.2050  0.1348  0.0296
80793W        W55781   0.765  34.264  16.710 -0.1776 -0.0005  0.0376
80794W        W55782  17.839  19.293  25.140  0.2643  0.1687  0.1444
80795W        W55783   2.402   8.160   3.234 -0.1529  0.1579 -0.1065
80796W        W55784   7.446  17.443  25.519  0.2217  0.0037 -0.2451
80797W        W55785   0.569  26.114  18.636  0.0202  0.1775 -0.0759
80798W        W55786   4.351  14.487  22.495 -0.0403  0.3252  0.2080
80799W        W55787   9.566  19.745   1.374 -0.2177 -0.1486 -0.0699
80800W        W55788  34.094   8.134   1.963 -0.0592 -0.3295  0.0337
80801W        W55789  23.641  12.413   1.975  0.0865 -0.1218 -0.2058
80802W        W55790  11.206  19.494   8.524  0.4363  0.2576  0.0650
80803W        W55791  14.202  11.715  25.926 -0.2596 -0.2802 -0.2453
80804W        W55792  35.385   6.732   1.032 -0.0180 -0.0959  0.0160
80805W        W55793  26.675  11.000  24.718  0.3414 -0.3534  0.1328
80806W        W55794  33.474  35.142  25.905  0.3326 -0.1476  0.2090
80807W        W55795  25.705  10.899  15.123  0.1698  0.0247  0.0049
80808W        W55796  15.522  27.213  13.835  0.1842 -0.2568 -0.2762
80809W        W55797  12.645  22.937   6.882 -0.1449 -0.1947  0.1103
80810W        W55798  24.500   0.287  24.774  0.1886 -0.3806  0.3175
80811W        W55799   2.708  27.014  20.859  0.1229  0.0312  0.1112
80812W        W55800  10.644  17.794   0.090 -0.0884 -0.2319  0.1899
80813W        W55801  12.570  13.817  19.111 -0.4474  0.0481 -0.0359
80814W        W55802  11.206   9.198   2.902 -0.2246 -0.0689 -0.4399
80815W        W55803   4.070  13.263   5.769 -0.2157  0.5293 -0.1933
80816W        W55804   3.453   7.171   6.167  0.0728  0.1388 -0.0913
80817W        W55805  15.243  12.088   4.165 -0.1411 -0.2176 -0.1103
80818W        W55806  35.196   4.724   0.555  0.1159  0.1228 -0.0491
80819W        W55807  22.317  12.476   1.554  0.1186  0.2560 -0.0773
80820W        W55808   1.846  26.774   0.177  0.3307  0.0588 -0.1597
80821W        W55809  18.416  25.429   9.665 -0.1184  0.0163 -0.0087
80822W        W55810  28.149  25.041  19.472 -0.1616 -0.0449  0.2792
80823W        W55811  13.639   5.335   2.129 -0.1992  0.1129 -0.1953
80824W        W55812  25.284  30.577   1.082  0.2459 -0.0930  0.0267
80825W        W55813   9.702  13.682  12.756  0.0765  0.1406  0.0918
80826W        W55814  24.267  26.583  24.967 -0.0071 -0.2036 -0.1875
80827W        W55815  30.294  33.094  17.605  0.2660 -0.1299 -0.1943
80828W        W55816   6.632  32.792   2.169 -0.0235 -0.0674 -0.1545
80829W        W55817   9.897  32.078  24.656  0.1776 -0.1378  0.1597
80830W        W55818  16.018  30.498   9.976  0.3729  0.2467  0.0808
80831W        W55819  22.536   8.853  22.813 -0.4219 -0.0910 -0.3340
80832W        W55820  14.752  15.344   4.789 -0.2335  0.2034  0.1598
80833W        W55821  12.660   5.787   8.413  0.2302 -0.2480 -0.0303
80834W        W55822  34.003  23.628  16.248 -0.1510  0.4354  0.2293
80835W        W55823   9.496  12.406  22.198  0.2160  0.0494  0.2598
80836W        W55824   2.215  28.659  19.865 -0.1243  0.1102  0.3050
80837W        W55825   1.814   7.152   4.518  0.2696 -0.5067  0.1120
80838W        W55826  26.501  20.843  10.408 -0.0747 -0.1197 -0.1218
80839W        W55827  27.731   5.323  15.651 -0.1661 -0.1699  0.0216
80840W        W55828   6.992  34.279   4.261  0.1972 -0.3882 -0.3401
80841W        W55829   3.077  23.650  25.774  0.1088  0.0176 -0.1548
80842W        W55830  13.916   3.250  20.935  0.2083  0.1694 -0.3219
80843W        W55831  16.944  11.828  20.333 -0.0442  0.1876  0.0826
80844W        W55832   0.234  21.115  15.709 -0.0336 -0.1053  0.2827
80845W        W55833  20.662  10.887  23.896 -0.0409  0.0374  0.3772
80846W        W55834  13.875  34.502   2.503 -0.1648 -0.2281  0.3087
80847W        W55835   6.996  19.624  23.264  0.4633  0.1261  0.2042
80848W        W55836  14.622   0.791  24.331  0.1941  0.3658 -0.0059
80849W        W55837   8.041   6.721   4.717 -0.0584 -0.2753 -0.0752
80850W        W55838  33.103   6.537  13.167 -0.0471 -0.0620  0.0726
80851W        W55839  34.929  14.687   9.539  0.2719  0.1622 -0.0679
80852W        W55840  29.609  13.059  16.198 -0.1709 -0.1134 -0.0638
80853W        W55841   0.027  11.864  12.741  0.1893  0.0807  0.1600
80854W        W55842  15.320  12.375  26.020 -0.1008 -0.0585 -0.3267
80855W        W55843  18.584  35.054  15.604 -0.1247  0.0457  0.5521
80856W        W55844   0.201   0.473  15.221  0.0292 -0.0141  0.0287
80857W        W55845  19.413  23.773   8.817  0.1155 -0.2067 -0.1298
80858W        W55846  17.174   2.843  24.086  0.0783 -0.0245  0.0815
80859W        W55847  12.551   7.608  23.656 -0.2134 -0.0539 -0.2539
80860W        W55848  15.464  34.408  11.191  0.1683 -0.1774  0.0514
80861W        W55849  13.690  12.609  13.582 -0.1791 -0.2532  0.2220
80862W        W55850  11.556   3.809  22.640  0.4182  0.0901  0.0814
80863W        W55851  15.677  10.589   0.731 -0.1565  0.0250 -0.2206
80864W        W55852  27.576  25.778  24.363  0.0225  0.1496 -0.0271
80865W        W55853  23.170  27.431  14.292 -0.2491  0.3633 -0.1903
80866W        W55854   6.155   5.584  19.629  0.0726 -0.0997  0.0153
80867W        W55855  34.696  27.373   4.695 -0.1538 -0.0417  0.1402
80868W        W55856   6.130  11.560   0.176 -0.1304 -0.2004  0.0834
80869W        W55857  33.532   2.518  24.583  0.3074  0.0163 -0.1146
80870W        W55858  30.268   1.800  15.744 -0.0990  0.2124 -0.3088
80871W        W55859   7.046  17.157  19.770  0.2002 -0.1027  0.3399
80872W        W55860  30.079  30.644   2.941 -0.2467  0.2250 -0.1221
80873W        W55861  16.425   5.677   9.707  0.3361  0.0964 -0.0201
80874W        W55862  21.919  12.661  16.843  0.0965  0.0565  0.3426
80875W        W55863  13.876   6.610  21.292 -0.0968 -0.0763 -0.4163
80876W        W55864   2.025   9.719   0.297  0.1830  0.2828  0.0613
80877W        W55865  13.418  22.209   6.979 -0.0822 -0.0048  0.2240
80878W        W55866  16.831  18.070  25.269 -0.1384 -0.3323 -0.3149
80879W        W55867  26.997  17.042  15.538  0.1536 -0.3163 -0.1211
80880W        W55868  24.560  19.613  16.274 -0.1126  0.1686 -0.3271
80881W        W55869   4.507  14.283  23.774 -0.0852  0.1082 -0.1315
80882W        W55870  33.013  23.415   8.969  0.2443  0.0511  0.1501
80883W        W55871   4.250  22.772  19.569  0.2471  0.0802 -0.2732
80884W        W55872   2.703  13.753   4.395 -0.2398 -0.2813 -0.2874
80885W        W55873  34.314  26.624   3.037 -0.2105 -0.1865 -0.1440
80886W        W55874  21.963  27.718  17.426  0.1341  0.0709 -0.0102
80887W        W55875  24.413  18.872  19.005  0.2388 -0.1520 -0.1960
80888W        W55876  22.092   6.383  18.956 -0.1886  0.0724  0.1634
80889W        W55877   7.804  20.074   4.053  0.1519  0.1289  0.0911
80890W        W55878   2.165   7.921  14.459  0.2887  0.0060  0.1038
80891W        W55879  19.107  34.052  22.846  0.3352  0.0025 -0.1367
80892W        W55880  26.171  33.071   0.708  0.0101  0.0468  0.0092
80893W        W55881  16.818  22.520  23.440  0.0991  0.3455 -0.2036
80894W        W55882   3.195  27.302  19.519  0.0863  0.2516  0.1164
80895W        W55883  18.464  25.494  20.609  0.0809  0.1005 -0.3928
80896W        W55884  28.179  16.887  23.857 -0.1562  0.0078 -0.2785
80897W        W55885   8.927   5.955   1.730 -0.0684  0.4280  0.1221
80898W        W55886  22.028  31.557  25.109  0.1492 -0.2081  0.1091
80899W        W55887   1.215   9.555  19.497 -0.2599 -0.1511  0.0509
80900W        W55888  33.428  10.552  11.275 -0.1701  0.0772  0.2586
80901W        W55889   1.166   2.283   8.510 -0.1244  0.1695 -0.3363
80902W        W55890  26.276  12.931  22.787 -0.0383  0.1364 -0.0428
80903W        W55891  17.367  22.587  21.675 -0.0933  0.1062  0.2264
80904W        W55892  21.867   9.883  18.764  0.0036 -0.1293  0.1387
80905W        W55893  28.761   9.639   7.809  0.0970  0.0095  0.0776
80906W        W55894  11.729   2.679  20.450 -0.0251  0.1661  0.1231
80907W        W55895  16.903   2.382  10.649 -0.0734  0.1830 -0.2273
80908W        W55896  32.951  13.883  21.894 -0.2590 -0.1124 -0.0033
80909W        W55897   4.754  34.691  22.053  0.1111  0.1285 -0.1696
80910W        W55898  32.248  19.960  22.958  0.0743  0.1356 -0.0618
80911W        W55899  12.781  10.483   7.316  0.3501 -0.4218 -0.0430
80912W        W55900  11.335  31.129   1.887 -0.3752  0.1337 -0.1320
80913W        W55901   5.616  16.892  24.106 -0.0083  0.3244 -0.2748
80914W        W55902   0.961  25.630   1.918  0.4283 -0.2149 -0.4394
80915W        W55903  11.626  20.850  24.514  0.3097  0.3077 -0.3121
80916W        W55904   8.624  16.183  12.737  0.2351  0.1196 -0.4142
80917W        W55905  28.849  12.416  13.614  0.0156  0.2019 -0.0921
80918W        W55906  33.606  13.812  25.959 -0.0552 -0.0126  0.0241
80919W        W55907   0.204  30.273   1.770  0.2438  0.0212  0.0496
80920W        W55908  17.744   7.285   2.657 -0.1447 -0.3380  0.1205
80921W        W55909   8.076  10.024   0.352  0.2063 -0.3066  0.3821
80922W        W55910  12.140  30.614   1.425 -0.2694 -0.0218  0.0721
80923W        W55911   3.034  18.195   1.907  0.0767  0.0397 -0.0619
80924W        W55912  11.462  32.308   9.945 -0.0736 -0.1917 -0.0798
80925W        W55913  15.292   3.515   3.807 -0.1979  0.0909  0.1459
80926W        W55914  21.543  23.188   6.674 -0.3209 -0.1331 -0.2343
80927W        W55915   0.449  32.385   5.949 -0.3336  0.4100 -0.2764
80928W        W55916   9.916   7.815  23.525 -0.1269 -0.3829  0.2024
80929W        W55917   3.544  25.273   3.176  0.1438 -0.1128 -0.4404
80930W        W55918  29.402  19.872   5.038 -0.4240 -0.0625 -0.2237
80931W        W55919  31.244  20.453  17.704 -0.2185  0.4868  0.1295
80932W        W55920  27.922   9.796  24.333  0.2372  0.0878  0.0889
80933W        W55921  13.818  16.768   2.345 -0.0030 -0.1145  0.0425
80934W        W55922   1.497  18.102  17.572 -0.1486  0.1878  0.3110
80935W        W55923   0.469   5.476  22.698  0.2387  0.0791 -0.1298
80936W        W55924  32.327  31.535   4.675  0.2800 -0.2766  0.1291
80937W        W55925  12.882  33.090  10.514  0.4958  0.3457 -0.3088
80938W        W55926  23.950  26.334  26.001  0.1432 -0.4117  0.0355
80939W        W55927  15.355  15.260  10.074  0.1278  0.1672 -0.1495
80940W        W55928  13.953  16.964  21.866  0.3707  0.2079  0.2270
80941W        W55929  19.194   4.871   6.461  0.0056 -0.2318 -0.0450
80942W        W55930  34.149   9.055  19.981  0.1633  0.2609  0.0455
80943W        W55931   4.376  23.952  23.079 -0.5697  0.2756 -0.1068
80944W        W55932  12.259   5.682  25.240 -0.1308  0.1621 -0.1119
80945W        W55933   8.980  11.640  12.165  0.1650 -0.0536 -0.0366
80946W        W55934  11.101  21.233   1.596  0.0760 -0.4166 -0.1285
80947W        W55935  32.620  21.358  13.074  0.1745  0.1609 -0.1670
80948W        W55936  15.865   9.007  19.173  0.2505  0.0757  0.0652
80949W        W55937  22.581  19.279  17.511  0.4537 -0.1937  0.1971
80950W        W55938   8.534  19.177   8.017  0.0262  0.1434 -0.3299
80951W        W55939  18.452  23.485  12.081 -0.2415  0.1459  0.0010
80952W        W55940   8.662   1.875   9.217 -0.1911  0.0808 -0.0904
80953W        W55941  17.819  16.402   5.746 -0.0165 -0.1395 -0.0845
80954W        W55942  10.792  13.708   4.158  0.2380 -0.2139 -0.1364
80955W        W55943  34.517   6.267  11.699  0.1573  0.1063 -0.0729
80956W        W55944   1.136  23.037  15.846 -0.2118  0.1122  0.2928
80957W        W55945  28.650  24.954   1.328 -0.1868 -0.1934 -0.0025
80958W        W55946  18.402  34.734   9.282 -0.0292 -0.0006  0.2467
80959W        W55947  21.786   1.530   0.293  0.1423  0.2399  0.0299
80960W        W55948   2.076   0.013   9.871  0.3050  0.0641  0.0512
80961W        W55949   6.584   4.572  22.525  0.0713 -0.0074 -0.0365
80962W        W55950  20.072  14.558  20.839  0.1630  0.1582 -0.0528
80963W        W55951  31.207  16.018  14.206 -0.1499 -0.0407  0.1167
80964W        W55952   0.766  27.583  17.532 -0.1486 -0.0568  0.0175
80965W        W55953  32.818  30.007  22.450  0.0361  0.0466 -0.0969
80966W        W55954  30.345  15.805  24.450  0.3762  0.2340 -0.0794
80967W        W55955  21.608   7.746   7.489  0.0377  0.4046 -0.0389
80968W        W55956  11.642  35.056   8.935 -0.3372  0.1269  0.0475
80969W        W55957  19.219  26.634  19.445  0.0152 -0.0347  0.3503
80970W        W55958  32.669  26.045  24.299 -0.2979  0.2838  0.1860
80971W        W55959  30.001  15.243   4.781  0.0504  0.0730  0.3389
80972W        W55960  15.959   9.867  14.325  0.2953  0.1255 -0.1012
80973W        W55961  21.267  25.497   5.147 -0.2938 -0.0398  0.0911
80974W        W55962  12.642  33.281  20.142  0.0073 -0.2187 -0.1184
80975W        W55963  20.788  17.920  25.112  0.1370  0.0780  0.1343
80976W        W55964   1.043   6.788   4.017  0.3469  0.0665 -0.0003
80977W        W55965   0.492  26.633  23.877 -0.0506  0.3075  0.2625
80978W        W55966  34.564   3.869  22.461  0.1074  0.0274  0.0280
80979W        W55967  27.470  34.853  16.562  0.3762  0.0220  0.2427
80980W        W55968  12.795  20.159  24.396  0.1591 -0.0023 -0.2104
80981W        W55969  35.298  13.332  18.438 -0.2305 -0.1224 -0.0255
80982W        W55970  32.445  23.791  15.268  0.3836  0.0266 -0.0097
80983W        W55971  24.845  33.669  20.357  0.0900 -0.0375 -0.0246
80984W        W55972  31.422  27.676  26.023 -0.0306  0.0291 -0.4598
80985W        W55973  21.380  26.199  22.620  0.0882 -0.0768 -0.2748
80986W        W55974  22.841  20.403  19.630  0.0330  0.0131  0.0089
80987W        W55975   9.416  13.347  20.046  0.0725  0.1927  0.0642
80988W        W55976  34.916  10.133   1.100  0.1660 -0.0516 -0.1559
80989W        W55977  31.293  13.124  16.002 -0.1616 -0.2764  0.3395
80990W        W55978  11.567  11.332  12.705  0.1462 -0.1783 -0.1048
80991W        W55979  25.406  10.374  18.630  0.2304  0.2934 -0.3758
80992W        W55980   8.389  32.631   0.897  0.1761 -0.1237 -0.0997
80993W        W55981   4.625   2.876  20.227  0.1954  0.0739 -0.0013
80994W        W55982  31.925   7.596  15.877 -0.0019 -0.0023 -0.2902
80995W        W55983  17.751  12.553  23.044  0.1635  0.3899 -0.0453
80996W        W55984  15.908  31.578   5.785 -0.1439  0.0751 -0.0153
80997W        W55985   5.761  34.450   4.208  0.1321 -0.2109 -0.0229
80998W        W55986  23.390  21.500  14.741  0.0495 -0.1179 -0.3819
80999W        W55987   9.043  12.787   6.436  0.0672  0.0472  0.1712
81000W        W55988  34.489  11.259  20.143  0.2140 -0.3234 -0.0623
81001W        W55989  14.064  19.391   2.420 -0.0873 -0.2811 -0.1236
81002W        W55990  24.076  18.571  16.661  0.1586 -0.1498  0.1866
81003W        W55991  31.387  17.834   8.339  0.0912  0.0322  0.2543
81004W        W55992  19.112   7.517   7.258  0.0434  0.1190  0.0458
81005W        W55993   3.520  20.517   1.887 -0.2626 -0.2088 -0.0363
81006W        W55994  23.041  23.785  20.972 -0.0761 -0.0770 -0.2531
81007W        W55995  15.982  19.071   6.887  0.1619  0.1227  0.1253
81008W        W55996   4.030  25.060  22.171 -0.1011  0.0061 -0.1035
81009W        W55997   8.053   8.960  21.223 -0.3634  0.0875 -0.2097
81010W        W55998   3.066  33.915  22.089 -0.0926  0.1826 -0.0930
81011W        W55999   1.038  28.828  20.395 -0.2064  0.3503  0.3372
81012W        W56000  26.569  20.754  12.155  0.0074 -0.3554  0.1972
81013W        W56001  23.170  24.524   3.604  0.2979  0.2504 -0.2154
81014W        W56002   9.923  20.531   2.261 -0.1106  0.0302 -0.0165
81015W        W56003  22.904  24.195   1.921 -0.0178 -0.2430  0.0390
81016W        W56004   7.010   9.718  21.718  0.0588  0.1506  0.1975
81017W        W56005   0.214  11.129  16.244  0.1565 -0.2894  0.1691
81018W        W56006  18.631  23.062  25.300 -0.3893  0.2645 -0.1348
81019W        W56007  26.490   2.066  20.743  0.0136 -0.3749  0.0535
81020W        W56008  12.914  15.032  21.259 -0.1055  0.1849  0.0932
81021W        W56009   7.937  17.935   0.563  0.1013 -0.0635  0.1161
81022W        W56010  30.257   9.298  21.211  0.1043  0.0859  0.0162
81023W        W56011  15.033  24.134  15.720 -0.1806 -0.2196  0.4197
81024W        W56012  26.472   4.536   0.785  0.2806 -0.0264  0.1430
81025W        W56013  22.197   9.769   3.446  0.1628  0.1815  0.4282
81026W        W56014  21.124  33.338   2.404  0.0843  0.1825 -0.0835
81027W        W56015  27.961  25.519  16.012 -0.1883  0.0741 -0.0146
81028W        W56016  24.882  15.733  21.412 -0.0206 -0.0563  0.1459
81029W        W56017  15.674   6.018  23.464  0.0764 -0.5034  0.0363
81030W        W56018  27.601  11.264  11.724  0.1735 -0.1317  0.1964
81031W        W56019  18.323  11.235  21.258  0.0891  0.0660  0.2485
81032W        W56020  33.472   9.748   1.327  0.0567 -0.1450  0.0751
81033W        W56021  31.532   8.578  13.189 -0.3334  0.1094  0.1199
81034W        W56022   5.849   2.131  24.926 -0.0281 -0.0872 -0.0300
81035W        W56023  14.153  16.628   1.628 -0.1256 -0.3944  0.1890
81036W        W56024  29.370  26.497  18.659 -0.0797 -0.0938 -0.1126
81037W        W56025  18.846  14.658   1.018 -0.0653 -0.1305  0.1218
81038W        W56026  23.286  25.352   0.205 -0.4951 -0.0575  0.2521
81039W        W56027  29.853   4.855  12.242  0.0746 -0.0068  0.1500
81040W        W56028  21.745  27.377   1.531  0.0472 -0.1691  0.0274
81041W        W56029   4.938  29.016  11.012 -0.3049 -0.1261  0.3982
81042W        W56030  24.418  21.172  15.396 -0.0449  0.0636 -0.1916
81043W        W56031  14.839  31.514  25.541  0.0963 -0.1581 -0.0380
81044W        W56032   6.487   6.237  19.919 -0.5382 -0.2174 -0.0336
81045W        W56033  13.399  35.121   3.731  0.0157 -0.1695  0.0791
81046W        W56034  34.613  26.734  15.662  0.2282  0.1719 -0.3932
81047W        W56035  34.986  19.565  11.183  0.0569  0.2060  0.1096
81048W        W56036   5.884  12.037   1.542  0.1427 -0.2289  0.0016
81049W        W56037   1.210  33.673  17.807 -0.1510 -0.2426  0.1719
81050W        W56038  31.739  15.981  16.802  0.0232 -0.0498  0.0652
81051W        W56039  15.107  19.602  22.738  0.0781 -0.2360 -0.3021
81052W        W56040   6.376   1.571  22.058  0.1339 -0.3063  0.1785
81053W        W56041  15.320  33.973  20.154 -0.0336 -0.1113 -0.1603
81054W        W56042  14.908   8.298  12.592 -0.2972  0.0989 -0.1923
81055W        W56043   2.520  17.158  18.508 -0.1433 -0.3369  0.1351
81056W        W56044   5.293  19.977   5.190 -0.2035 -0.1006  0.0436
81057W        W56045  32.058  14.943  10.267 -0.1672  0.0321  0.4797
81058W        W56046   4.226  32.229  20.477  0.0383 -0.2113 -0.1440
81059W        W56047  30.071   5.134  13.796 -0.2796 -0.0143  0.0209
81060W        W56048   3.759   4.507  23.360 -0.1161  0.0303 -0.1708
81061W        W56049  34.873  34.999   2.818  0.4382 -0.1378  0.2018
81062W        W56050  15.234  13.332  13.577  0.0828 -0.1174  0.0155
81063W        W56051  11.461   7.350   3.848 -0.1847  0.1357  0.1283
81064W        W56052  25.527  16.655  16.569  0.2423  0.0944  0.1552
81065W        W56053  17.444  17.090  22.434  0.0136  0.2450  0.0960
81066W        W56054  18.944  23.819  25.707 -0.1391  0.0341 -0.0904
81067W        W56055   3.968  27.275  21.564 -0.1083  0.0979 -0.0566
81068W        W56056  29.491   5.982  25.645 -0.0341 -0.1282  0.1737
81069W        W56057   0.077  20.664   8.300  0.0421 -0.2211 -0.1395
81070W        W56058  16.806   4.009   5.000 -0.1444  0.4623 -0.1132
81071W        W56059  30.572  18.186  11.758  0.2190  0.1346  0.1501
81072W        W56060  35.332   0.317  20.351  0.1640 -0.1111  0.1343
81073W        W56061  15.060  17.513  25.524  0.1993  0.1525 -0.0255
81074W        W56062  29.626  30.426  23.997 -0.0703  0.1467 -0.1902
81075W        W56063  17.518  20.907   1.833 -0.0592  0.1036 -0.3230
81076W        W56064  27.921  26.092  24.038 -0.1746  0.2815 -0.0206
81077W        W56065   5.465  27.723   8.879  0.3208  0.3126  0.2004
81078W        W56066   6.803  24.908   5.258  0.1308  0.2763  0.0964
81079W        W56067  28.600  33.137  24.758  0.1664 -0.2666 -0.0735
81080W        W56068   8.595  24.843   1.829 -0.2278 -0.0251 -0.1104
81081W        W56069  18.695   4.532   0.131 -0.1721  0.1400  0.2094
81082W        W56070  34.837  29.091  15.400 -0.1247  0.1217  0.3473
81083W        W56071  17.325  28.799  10.919 -0.0139  0.1720 -0.0952
81084W        W56072  33.064   9.826  20.204 -0.0062  0.1297 -0.2137
81085W        W56073  31.179  18.093  13.567  0.3494  0.0902 -0.0930
81086W        W56074  32.773  24.910  14.613 -0.3611 -0.1268  0.0143
81087W        W56075  32.518   1.219   0.793 -0.2060 -0.3953 -0.3256
81088W        W56076   0.606   4.829  18.575 -0.4817  0.0679  0.1406
81089W        W56077   2.281  30.250   2.642  0.1473  0.3102 -0.3190
81090W        W56078  12.383  26.557   1.907 -0.0536  0.0640 -0.3083
81091W        W56079  17.015  26.404  24.018  0.0953  0.2335  0.0234
81092W        W56080   1.365  32.162   1.453 -0.1740 -0.0829 -0.1358
81093W        W56081  22.697  11.097  21.803 -0.0508  0.0068  0.0752
81094W        W56082  32.002  17.109   8.379  0.1704 -0.2553  0.0489
81095W        W56083   2.274  26.725   3.261 -0.2258 -0.0224  0.0720
81096W        W56084  27.949  26.217   0.265 -0.0916  0.2843 -0.0659
81097W        W56085  15.648  19.017   4.380 -0.1696 -0.3354  0.1512
81098W        W56086  34.302   7.775   5.085 -0.2529  0.0527  0.1441
81099W        W56087  11.606  21.701  24.273 -0.0734  0.1693 -0.0921
81100W        W56088  17.969  22.311  10.461 -0.0452  0.1531  0.0563
81101W        W56089  19.536   1.254  18.247 -0.0068 -0.0438 -0.1580
81102W        W56090  13.847  13.057  19.758  0.2109 -0.0618  0.2282
81103W        W56091  10.380  28.746  15.803 -0.0373 -0.0018  0.4049
81104W        W56092  20.540  35.230   3.596  0.2822 -0.3109 -0.1940
81105W        W56093  17.567   5.127  21.840 -0.1489 -0.2245 -0.1139
81106W        W56094   7.613  30.170   4.608 -0.0351 -0.0547  0.0347
81107W        W56095   1.884  11.238  14.239  0.3693  0.1730 -0.0255
81108W        W56096  29.405   0.785  20.684  0.0936  0.1542 -0.0562
81109W        W56097   8.415  30.563   4.982 -0.0346  0.1227 -0.3674
81110W        W56098  34.181  30.731  23.861 -0.0468  0.0744 -0.1566
81111W        W56099  24.162  25.114  20.293 -0.4424 -0.2944 -0.0779
81112W        W56100  22.825  16.584  17.627  0.0968 -0.0560 -0.1496
81113W        W56101   4.551  32.565   8.785  0.5155  0.0555 -0.0495
81114W        W56102   9.284   4.727   8.951 -0.1583 -0.0563 -0.3791
81115W        W56103   6.516   7.351   2.420 -0.3162 -0.1412 -0.1039
81116W        W56104  18.041  31.438   9.206 -0.1811  0.0545 -0.2428
81117W        W56105  33.529   5.075  17.743  0.1271 -0.0635 -0.1415
81118W        W56106  27.179  28.913  20.982 -0.1738 -0.0299  0.0697
81119W        W56107   1.927   3.679   7.523 -0.0467 -0.2117 -0.0660
81120W        W56108  10.854  15.345   1.683 -0.0493 -0.1034  0.3076
81121W        W56109   7.893  34.751  10.808  0.2027  0.0609 -0.0923
81122W        W56110  30.850  14.246   9.778 -0.0633  0.1199 -0.1938
81123W        W56111   4.150   8.275  16.334  0.2541 -0.0860  0.1909
81124W        W56112   5.844  15.335  22.116  0.0944  0.2287 -0.1310
81125W        W56113  21.081  25.788   1.371 -0.2764 -0.4495 -0.0984
81126W        W56114  32.831  11.575  19.916  0.1905 -0.3130  0.1132
81127W        W56115  26.657  20.634  24.717 -0.1789  0.3316 -0.1373
81128W        W56116  10.267   9.906  23.900 -0.0923 -0.0618  0.1320
81129W        W56117  27.415  21.009  16.213 -0.1009  0.0626  0.3660
81130W        W56118  28.266  29.059  21.071 -0.2251 -0.0321 -0.3848
81131W        W56119  18.910  31.899   1.804  0.0317  0.3626  0.2207
81132W        W56120  32.603  20.110  18.195  0.4651  0.1967 -0.0510
81133W        W56121  20.929  26.183  22.463 -0.0071  0.0355 -0.0100
81134W        W56122  26.658  11.164  10.858  0.0548  0.2182  0.0034
81135W        W56123   6.247  29.236   0.803  0.0918 -0.1227  0.2939
81136W        W56124  17.243  13.866   8.939  0.2035 -0.2943  0.3750
81137W        W56125  20.185   8.882  23.557  0.1595 -0.1262 -0.1803
81138W        W56126   8.155  30.655   4.565  0.0049  0.2900 -0.1331
81139W        W56127  14.709  18.289  13.594 -0.0637  0.2516  0.1588
81140W        W56128  20.141  18.840  19.522  0.0112 -0.0203  0.0309
81141W        W56129   9.508   0.035   8.586 -0.1829  0.2232 -0.0718
81142W        W56130   7.011  13.035  25.508 -0.1367 -0.2322  0.0168
81143W        W56131   3.261   1.528   9.481  0.2136  0.1385 -0.0891
81144W        W56132  12.066  12.281   5.836 -0.0563  0.3205 -0.2174
81145W        W56133  28.879   9.427  19.376  0.1600  0.1992 -0.0451
81146W        W56134  17.786  14.613  18.810  0.0047 -0.2339 -0.1731
81147W        W56135   4.489   1.257  22.230 -0.0637  0.1532 -0.1058
81148W        W56136  14.458   4.461  25.601  0.1972  0.1709  0.0983
81149W        W56137   2.939  34.917  19.571  0.0866  0.3534 -0.0009
81150W        W56138  19.943   2.752   7.851  0.1567 -0.1416 -0.2698
81151W        W56139  14.237  18.582   8.367  0.1108  0.2999  0.2294
81152W        W56140  26.029  18.427  18.003  0.2453  0.2454 -0.1270
81153W        W56141  25.309  21.838  18.989  0.0280 -0.0613 -0.0703
81154W        W56142   2.846  22.088   1.227 -0.2433  0.0072 -0.1243
81155W        W56143  16.611  22.208   2.867  0.2057 -0.2366  0.1324
81156W        W56144  18.910  32.905   3.296  0.0102  0.4039 -0.3100
81157W        W56145   7.605  15.112  10.936 -0.2097 -0.0533  0.1182
81158W        W56146  24.782  14.580  11.772 -0.0852  0.2104  0.1157
81159W        W56147  11.251  31.294  25.761 -0.2006 -0.4423 -0.0362
81160W        W56148  28.395  14.071   7.089 -0.5304  0.0417  0.1958
81161W        W56149  26.413  28.907   2.684 -0.2159  0.1127 -0.0902
81162W        W56150  26.587  18.498   9.347 -0.1415 -0.1902  0.1791
81163W        W56151  32.721  20.847  11.376 -0.0221  0.0398 -0.0897
81164W        W56152  14.935  25.861  16.021 -0.1284 -0.2829  0.2029
81165W        W56153  26.325  15.128  25.683  0.0009 -0.1820 -0.2623
81166W        W56154  31.499  21.847  10.287 -0.1974 -0.0875 -0.0613
81167W        W56155  17.405   4.546  19.165 -0.3450  0.0132 -0.3857
81168W        W56156  17.181  28.177   3.064  0.0817  0.2748 -0.1898
81169W        W56157  28.439  34.660  20.735  0.1367 -0.0343  0.0702
81170W        W56158   8.437   2.338  10.527 -0.1531  0.1050 -0.0680
81171W        W56159   9.948   8.777   7.993 -0.2562  0.2631  0.1815
81172W        W56160  11.534  17.243   2.696 -0.0453 -0.0419 -0.3316
81173W        W56161  14.535   9.344  18.922 -0.4153  0.0186  0.2978
81174W        W56162  23.954  10.649  21.343 -0.2267  0.0467  0.2880
81175W        W56163  15.086  32.315   6.650  0.0683  0.0779  0.3499
81176W        W56164   2.000   7.751  21.813  0.0597 -0.0640 -0.0238
81177W        W56165   8.720   7.227  20.604  0.2559 -0.1694  0.0214
81178W        W56166  34.968   2.601  22.570  0.1515  0.1263 -0.0219
81179W        W56167  10.054  16.321  24.326  0.3402 -0.4592  0.1083
81180W        W56168   6.754  27.113  15.442 -0.4742 -0.0055 -0.3829
81181W        W56169  10.035  21.709   8.661 -0.2788 -0.3175  0.1719
81182W        W56170  10.501  25.042  24.589 -0.2223 -0.1918  0.2892
81183W        W56171   3.148  33.762  24.380  0.2382 -0.0679 -0.1721
81184W        W56172  10.998  26.274   0.241 -0.1814 -0.2149  0.3442
81185W        W56173   8.094  10.194  25.367  0.0592  0.1950  0.3082
81186W        W56174  21.176  15.497  19.312 -0.1625  0.1514  0.2041
81187W        W56175  12.966  10.771   5.083 -0.1367 -0.3285  0.0009
81188W        W56176   4.367  21.259   0.145  0.0154  0.2782 -0.1943
81189W        W56177  14.732  18.473  11.318  0.1760  0.0305 -0.0126
81190W        W56178  10.675   6.405  20.014  0.1872  0.0633 -0.0447
81191W        W56179  32.935  23.093  15.838 -0.2344 -0.0451 -0.2520
81192W        W56180  29.987  29.877  12.341  0.0649  0.1179  0.0101
81193W        W56181  11.444  15.411  11.834  0.1636 -0.1742  0.0499
81194W        W56182   9.967  14.232  20.270 -0.0172 -0.1567  0.3678
81195W        W56183  25.922  10.696  16.095 -0.0102 -0.0547  0.2222
81196W        W56184  15.810  17.963  12.931 -0.0864 -0.2658 -0.2759
81197W        W56185  28.957  12.286   9.089 -0.0229 -0.2145 -0.0054
81198W        W56186  27.331   9.398  14.136  0.2202  0.0609  0.0430
81199W        W56187   9.270   7.986  18.873 -0.0240 -0.3178 -0.1437
81200W        W56188  31.210  24.007  24.893  0.0439 -0.0201  0.0466
81201W        W56189  31.242  34.587  15.843  0.0509  0.2190 -0.0328
81202W        W56190  13.399   9.063   6.638  0.1477 -0.0172 -0.0185
81203W        W56191  11.537   4.430   7.757  0.2754  0.0870  0.2915
81204W        W56192   5.867  10.460  21.044 -0.1522 -0.0852  0.0028
81205W        W56193   0.496  14.334   2.316 -0.3718  0.2117  0.1557
81206W        W56194  21.350  13.729  21.719 -0.3021 -0.1397  0.2768
81207W        W56195  18.913  27.909  19.486  0.2874 -0.3295  0.0786
81208W        W56196  16.208  14.568   8.004  0.1198 -0.1520 -0.3429
81209W        W56197  31.230  27.065  25.220  0.2383  0.1379 -0.1558
81210W        W56198  29.652  18.523  22.238  0.1294  0.2423 -0.0182
81211W        W56199  20.215   0.783  24.845  0.1278  0.1953  0.0281
81212W        W56200  13.115  11.125  24.296  0.1402  0.4513 -0.3594
81213W        W56201   4.462  34.847   2.876  0.2580 -0.0814 -0.1477
81214W        W56202  10.869  33.578   6.460  0.0700 -0.1194  0.2217
81215W        W56203   0.291  29.623  23.099  0.0338 -0.0717  0.0452
81216W        W56204  21.232  11.978  17.337 -0.1327  0.1583  0.0824
81217W        W56205   2.676   5.070  20.567  0.1836  0.1200 -0.0877
81218W        W56206   9.119  16.739  12.392  0.1586  0.1408 -0.1764
81219W        W56207   7.897   0.778   4.426 -0.2518  0.0182  0.0545
81220W        W56208  31.106   0.457  21.878  0.0445 -0.2851  0.2383
81221W        W56209  32.104  24.857  16.188 -0.2780 -0.1324  0.1785
81222W        W56210   9.394  33.849  23.341  0.2600  0.0314  0.3018
81223W        W56211  33.672  25.476  22.657 -0.3385 -0.0937  0.3285
81224W        W56212  23.303  10.757   2.134  0.1791  0.4312  0.1478
81225W        W56213  25.951   9.072  19.513 -0.1697  0.2272 -0.1709
81226W        W56214   4.410  15.287   1.938  0.0089 -0.0489 -0.0130
81227W        W56215  29.671  33.821  13.842 -0.2061  0.1783 -0.2993
81228W        W56216   6.916  32.762   8.925 -0.1458  0.3816  0.2752
81229W        W56217  12.332  13.975   0.136  0.0303 -0.2125 -0.1680
81230W        W56218  26.579  11.157  22.965 -0.0951  0.2646 -0.3044
81231W        W56219   6.934  19.081   2.659 -0.0381 -0.3820 -0.1471
81232W        W56220   8.549   9.543   1.088  0.1189 -0.3638 -0.1213
81233W        W56221  29.815  27.279  17.738  0.0519  0.3782 -0.1313
81234W        W56222   2.514  17.593  15.855 -0.1828 -0.2960 -0.0252
81235W        W56223  24.065   1.307  15.680 -0.1027  0.1247  0.0357
81236W        W56224   7.319   4.817   3.408 -0.1648  0.1655 -0.1604
81237W        W56225  25.654  11.833  26.069 -0.0154  0.1460 -0.2868
81238W        W56226  12.263  25.871   5.348 -0.2116  0.1083 -0.0909
81239W        W56227  34.061  10.437  18.343 -0.0896 -0.0936 -0.3226
81240W        W56228  21.694   1.641  13.538  0.0911  0.2423 -0.1917
81241W        W56229   6.119  14.468  17.686 -0.1106  0.2540  0.1573
81242W        W56230  27.100  22.175  20.311 -0.2147 -0.1678  0.3435
81243W        W56231  16.087  12.115   8.473  0.0445  0.0611  0.1101
81244W        W56232  32.690  32.291  15.841 -0.0128 -0.0858  0.1761
81245W        W56233  22.325  12.370  18.358 -0.2123  0.2302 -0.1251
81246W        W56234  34.702  19.303  18.942  0.3936 -0.3140 -0.0286
81247W        W56235  28.033   2.870  18.080 -0.0453 -0.3238 -0.1200
81248W        W56236  13.726  11.752  11.106 -0.1401  0.1227 -0.2676
81249W        W56237  31.088  13.127  22.254  0.0399  0.1399 -0.1559
81250W        W56238  18.904   6.352   5.835 -0.1410  0.0151 -0.1837
81251W        W56239  12.573   1.312  22.716 -0.0499 -0.1327 -0.1609
81252W        W56240  28.494  14.577  16.309 -0.0472  0.2049  0.3321
81253W        W56241   0.315   7.856  19.611 -0.2109 -0.1792  0.1582
81254W        W56242  28.282  33.532  26.040 -0.1325 -0.1962 -0.0704
81255W        W56243   3.829  13.308  22.468 -0.1590  0.0609 -0.0898
81256W        W56244  21.462  25.024   0.330  0.1909 -0.0918  0.0382
81257W        W56245  15.618  33.006  24.193  0.0241  0.0560  0.0412
81258W        W56246  25.803  16.368  19.291 -0.0911  0.3318  0.0330
81259W        W56247   6.857   3.140   8.639 -0.3023  0.0950  0.4269
81260W        W56248   5.007  33.394  25.971 -0.1360 -0.1788  0.0535
81261W        W56249  10.635  23.536  12.727 -0.0989  0.0403 -0.0484
81262W        W56250   5.499   5.655   9.057 -0.1796  0.0117 -0.1543
81263W        W56251   2.806  34.265  17.036  0.1145 -0.2157  0.1302
81264W        W56252  24.310  30.015  11.859 -0.0057  0.0337  0.1369
81265W        W56253   5.862  10.904   6.094  0.0401  0.0953  0.1315
81266W        W56254  20.704  15.744  24.344  0.1911 -0.1736  0.2081
81267W        W56255  20.937  23.281  25.587 -0.1086  0.1450 -0.1022
81268W        W56256  31.385  18.676  13.793  0.1004  0.0904 -0.2288
81269W        W56257  33.592  20.725   9.107  0.0051  0.1918  0.2776
81270W        W56258  24.595  23.963  14.286 -0.2172 -0.0051  0.2659
81271W        W56259  29.130   6.399   1.704 -0.5216  0.0231 -0.0062
81272W        W56260   2.651   0.140  17.393  0.0939  0.0162 -0.0831
81273W        W56261  17.638   5.206   7.909 -0.0153  0.0517 -0.0472
81274W        W56262  15.425  21.655   7.155 -0.3023 -0.0290 -0.0997
81275W        W56263  19.544  32.067   6.189 -0.2166 -0.1313  0.3451
81276W        W56264  17.709   5.505   5.499  0.1745 -0.0511  0.1449
81277W        W56265  27.139  23.139  15.973  0.2196 -0.0357  0.1152
81278W        W56266  12.258  20.365  21.909  0.0591 -0.0408  0.2734
81279W        W56267   0.122  24.850  16.437 -0.0195  0.1730  0.1417
81280W        W56268   1.131  21.516   9.598 -0.0025  0.1896  0.1409
81281W        W56269   5.730  30.430   1.162  0.4168 -0.3441  0.1478
81282W        W56270  24.117  27.096  24.258  0.1275 -0.1328 -0.1253
81283W        W56271  14.367  24.829  10.594 -0.0652  0.1748 -0.1710
81284W        W56272  22.805  24.007   0.363  0.0436  0.0559 -0.0506
81285W        W56273  28.177   2.183   0.883 -0.0564 -0.1477 -0.0482
81286W        W56274  34.978  24.920  15.005  0.0253 -0.0167 -0.3578
81287W        W56275   8.225  28.438   1.940 -0.0742 -0.3750 -0.2056
81288W        W56276   2.974  10.642   4.043 -0.0466  0.0045 -0.1267
81289W        W56277  13.419  21.727   8.387 -0.0722  0.2231 -0.4665
81290W        W56278   8.211  13.123   0.074 -0.3662 -0.0275  0.2909
81291W        W56279  24.156  17.823  12.424 -0.0226  0.2991  0.2504
81292W        W56280  29.140  31.450  25.246  0.1085  0.1415  0.3359
81293W        W56281   4.891  12.611  25.464  0.1900 -0.0752 -0.0666
81294W        W56282  25.638  31.849  24.333 -0.0625  0.0106  0.2610
81295W        W56283  22.216   0.139  25.110 -0.0041 -0.0569 -0.1893
81296W        W56284  29.800  35.212   3.281 -0.1196  0.1142  0.2888
81297W        W56285  18.494  32.205  21.501  0.0124 -0.1250  0.5903
81298W        W56286  19.712   6.026   4.570 -0.0007 -0.0629 -0.1048
81299W        W56287   6.273  34.477   0.328 -0.4233  0.1304 -0.0864
81300W        W56288  32.104   0.517  20.736  0.0437 -0.0198 -0.3365
81301W        W56289   8.594  29.925  24.121 -0.0082  0.1965 -0.3755
81302W        W56290  26.356  19.641  20.145  0.0787  0.0686  0.2489
81303W        W56291  20.155  25.077  24.008  0.1652 -0.0681 -0.0237
81304W        W56292  27.799  12.219  25.296  0.0427 -0.2049  0.4701
81305W        W56293   5.225   6.081   3.249  0.1661 -0.1765  0.0529
81306W        W56294  11.091   6.165   7.594  0.0294  0.1853  0.1756
81307W        W56295  16.654   6.274   0.800 -0.0355  0.1738 -0.0033
81308W        W56296   5.704  24.610  22.214  0.0476 -0.1154 -0.2210
81309W        W56297  23.056   9.932   1.168  0.0646  0.0540  0.1052
81310W        W56298   1.491  28.536   5.878 -0.1573  0.1642  0.1011
81311W        W56299   4.418   4.183   7.867 -0.0827  0.0069 -0.1190
81312W        W56300   5.646   9.780   1.607  0.3382 -0.1279  0.2648
81313W        W56301  35.010  20.610  26.025  0.0283  0.1339 -0.0996
81314W        W56302  13.992  13.043   3.478 -0.0724  0.0979  0.1177
81315W        W56303  20.135  14.214   4.624 -0.3142 -0.1608 -0.0407
81316W        W56304   9.958   8.326  25.203 -0.0021 -0.1905 -0.0143
81317W        W56305  27.555  20.750   8.334 -0.1458  0.3648  0.1296
81318W        W56306  31.988  27.265  16.500 -0.1937 -0.1617  0.3536
81319W        W56307   1.157  20.265  25.564  0.0403 -0.1181  0.2035
81320W        W56308  27.748  20.679   5.099  0.1165 -0.0965  0.0125
81321W        W56309  35.048  21.530  13.984  0.1620  0.1997 -0.1499
81322W        W56310   7.812   2.184  23.752  0.0420  0.0711  0.0003
81323W        W56311  30.739  11.159  18.101  0.1195 -0.0705  0.3781
81324W        W56312  19.630  23.687   6.367 -0.2759  0.0005  0.0839
81325W        W56313  34.375  22.451  17.192  0.3629  0.4431 -0.0585
81326W        W56314  30.983  33.252  21.914  0.0146  0.3398  0.0974
81327W        W56315  20.991   7.576   0.477 -0.0169 -0.1438  0.0913
81328W        W56316  23.013  19.895  15.045  0.0863  0.3175 -0.1395
81329W        W56317  30.651   0.038  24.938 -0.1161 -0.2407  0.1648
81330W        W56318  10.301   1.576  14.652  0.2910 -0.1101  0.2254
81331W        W56319   3.041   2.034   5.685 -0.0086 -0.0928  0.0287
81332W        W56320  20.019   2.572  16.509  0.2777  0.1469 -0.0160
81333W        W56321  31.279  11.508  23.948 -0.1817  0.1586  0.2599
81334W        W56322  12.008   9.791  23.719 -0.2248 -0.1841  0.2239
81335W        W56323  28.337  13.957   7.568 -0.3556 -0.0683 -0.0013
81336W        W56324  28.792  27.140  15.128  0.1322 -0.3626 -0.1319
81337W        W56325  13.236   6.901   5.063 -0.0535  0.0227 -0.2086
81338W        W56326  10.663  33.315  10.711  0.2057 -0.1554 -0.1651
81339W        W56327   8.131  19.717   1.817  0.0667 -0.1102  0.0677
81340W        W56328  10.843  26.741   3.824  0.1564  0.0844 -0.1734
81341W        W56329  20.229   9.220  21.610 -0.1889  0.0103  0.1196
81342W        W56330  28.939  16.768  15.011 -0.0193 -0.0025  0.0765
81343W        W56331  16.638  28.510   9.329 -0.2811 -0.1967  0.1482
81344W        W56332   7.338   4.439  22.037  0.0182  0.2020  0.2280
81345W        W56333  13.059  24.177   7.107 -0.1015  0.1107  0.1410
81346W        W56334  16.516  13.123  21.971  0.4041  0.0750 -0.1508
81347W        W56335  29.030  18.818  22.937  0.2216 -0.2083 -0.0386
81348W        W56336  28.753  14.075  19.918  0.0574  0.0356  0.0327
81349W        W56337  35.215  27.082   0.437  0.1125 -0.3239  0.0551
81350W        W56338  17.588   4.982  23.430 -0.2073  0.1419  0.2086
81351W        W56339   5.161  20.890  25.856  0.0600 -0.0196 -0.1807
81352W        W56340  27.957   9.055  23.795  0.1203  0.1922 -0.1103
81353W        W56341  22.738  21.137   1.048  0.0589  0.0036  0.3425
81354W        W56342  18.180  24.056  11.186  0.0209 -0.2491 -0.0576
81355W        W56343  15.182  31.408   2.544  0.4313  0.0018 -0.1510
81356W        W56344   8.392   8.365  23.282 -0.0060 -0.0938 -0.1189
81357W        W56345  16.583  31.446   2.167  0.1583  0.1218  0.0334
81358W        W56346   5.627  13.763  16.115 -0.2624 -0.0525  0.0177
81359W        W56347  29.841   3.390  22.909 -0.0641  0.2891 -0.2051
81360W        W56348  13.928  14.633   1.089 -0.2286 -0.2056 -0.1721
81361W        W56349  13.980  30.552   4.533 -0.1144  0.1757  0.0746
81362W        W56350  28.592  32.730  16.882 -0.1951 -0.0194 -0.2148
81363W        W56351   0.117  11.809  16.838 -0.2905  0.1369  0.0914
81364W        W56352   9.040  32.666   4.852  0.0644  0.0368  0.0406
81365W        W56353   3.257  27.347  25.280 -0.1969  0.0524 -0.5411
81366W        W56354   2.439  27.876  18.095 -0.0272  0.0135  0.2019
81367W        W56355  27.969   1.800   2.204  0.1890  0.2902 -0.5226
81368W        W56356  12.950  15.287   9.153 -0.0397  0.2955 -0.0904
81369W        W56357  34.642  16.094   6.595 -0.1823 -0.3465 -0.1329
81370W        W56358   9.536  10.397  19.644  0.1854  0.2712 -0.1587
81371W        W56359  26.278  11.252  21.382  0.1490  0.0582  0.2739
81372W        W56360   6.445  13.486   3.195  0.1415 -0.0580 -0.1363
81373W        W56361  16.849   3.976   1.164 -0.0616  0.0926  0.3794
81374W        W56362   8.209  17.284   4.557  0.0903  0.3707  0.1068
81375W        W56363   8.992  29.974  25.862 -0.1998  0.0490  0.2227
81376W        W56364   6.579  16.706  23.527  0.0966 -0.0062  0.0796
81377W        W56365  27.553  13.642  25.796  0.3312 -0.1631  0.4724
81378W        W56366  10.423  26.940   0.787 -0.0889  0.1635 -0.0169
81379W        W56367   6.116   0.889  25.450  0.2831  0.0664  0.0049
81380W        W56368  15.541   1.421  12.420 -0.0209 -0.0728  0.0239
81381W        W56369  24.936  33.451  13.543  0.2966 -0.2710 -0.2381
81382W        W56370  25.550   2.295  21.271  0.0373  0.1388 -0.0788
81383W        W56371  28.199  16.007  20.109  0.2022 -0.2335 -0.0197
81384W        W56372  11.129  29.838   0.823 -0.0222 -0.1206 -0.2266
81385W        W56373  32.008   9.975   9.954 -0.1973 -0.0427  0.0551
81386W        W56374  13.430   7.751   6.113  0.1812 -0.0191 -0.2227
81387W        W56375  17.499  32.576   6.088 -0.1589 -0.2860 -0.2083
81388W        W56376   4.066  33.469   3.168 -0.0219 -0.0822 -0.1804
81389W        W56377  21.582  34.135   3.470 -0.0122  0.0519  0.3671
81390W        W56378  21.550  13.222  23.588  0.0265 -0.0289  0.2912
81391W        W56379  20.141   9.876   9.879  0.0915  0.0470  0.1771
81392W        W56380  30.352  29.788  19.161 -0.0932 -0.0228 -0.0999
81393W        W56381  10.593  34.671   4.925  0.1830 -0.1475  0.0680
81394W        W56382  27.004  23.946  25.464 -0.1069  0.1135 -0.0605
81395W        W56383  26.703  30.757  13.988 -0.1886 -0.0585  0.1950
81396W        W56384  16.202  30.676   9.494 -0.2483 -0.4069 -0.2155
81397W        W56385  24.394   8.077  13.202  0.1808 -0.1652  0.0450
81398W        W56386   9.563   0.629   5.660 -0.2488 -0.4394 -0.1677
81399W        W56387  31.743   0.862  18.626  0.0873  0.1610 -0.3835
81400W        W56388  24.209  17.466  26.063 -0.1491 -0.3503  0.5719
81401W        W56389  17.278   9.806  22.980 -0.1465 -0.0043 -0.0900
81402W        W56390  14.673   8.764   3.875 -0.1630 -0.1943 -0.0036
81403W        W56391   0.321   4.661   1.615 -0.0020 -0.0801 -0.0830
81404W        W56392  34.056  31.744  15.610 -0.1320  0.0454  0.2254
81405W        W56393   1.068   3.519  18.615  0.1506 -0.1013 -0.2674
81406W        W56394  35.275  12.971  19.597 -0.3392 -0.0084  0.2730
81407W        W56395  31.741   6.925  20.470 -0.2592 -0.0775  0.1535
81408W        W56396  13.593  34.034   3.346 -0.0252 -0.3492 -0.3335
81409W        W56397  21.214  32.222  23.657  0.1056 -0.1218 -0.1008
81410W        W56398  26.650  20.710  19.602  0.1313  0.1236  0.3365
81411W        W56399  14.689  19.718   2.922  0.0706  0.1363 -0.0710
81412W        W56400  12.279  29.976   2.094 -0.4269  0.2348  0.0824
81413W        W56401  14.899   9.561  20.063 -0.3894  0.2141  0.0508
81414W        W56402  12.637  34.017   6.271  0.2260  0.3886  0.0595
81415W        W56403  16.750  24.605  14.128 -0.0399 -0.1098 -0.1240
81416W        W56404  27.268  19.708  16.761 -0.0393  0.0297 -0.2293
81417W        W56405  10.671   4.979   7.069 -0.2611  0.0962 -0.2036
81418W        W56406  19.067   1.297   4.679  0.0903 -0.0788 -0.1941
81419W        W56407  25.600   8.512  15.639 -0.0517  0.0618 -0.3311
81420W        W56408   1.114   6.341  19.804 -0.0396  0.2912  0.0169
81421W        W56409  33.323  21.403  17.255  0.0088 -0.0707  0.0455
81422W        W56410  11.920   7.734  10.995 -0.1479 -0.0416 -0.3779
81423W        W56411   6.129  20.064   4.233 -0.1321 -0.1943  0.4070
81424W        W56412   9.339  16.368  13.760 -0.0904  0.0100 -0.2283
81425W        W56413  22.021  11.644  22.266  0.0452  0.0961  0.2587
81426W        W56414   9.266  20.567   8.621 -0.1350  0.0440 -0.1457
81427W        W56415  28.154   9.268   8.427 -0.0234  0.0838  0.1592
81428W        W56416   0.763   9.015  24.578  0.0558  0.1190 -0.2161
81429W        W56417  22.961  34.910  18.135 -0.1222  0.0578  0.2285
81430W        W56418   2.441   7.275   3.609  0.1392 -0.0593 -0.1928
81431W        W56419  27.331   4.648  13.668  0.2397  0.2557 -0.0343
81432W        W56420   0.889  28.165  17.418 -0.0449  0.0927  0.2657
81433W        W56421   4.238  18.354  19.719 -0.0091  0.0491  0.1393
81434W        W56422  13.283  32.005  11.059 -0.2980 -0.1076  0.2147
81435W        W56423   4.084  11.929   0.514  0.0308  0.1480  0.0662
81436W        W56424  18.848  15.881  25.695 -0.1554  0.1370 -0.1491
81437W        W56425  26.440  33.810   1.939  0.2032 -0.1588 -0.1187
81438W        W56426   8.782  13.489  23.628  0.0335 -0.1148 -0.1482
81439W        W56427   6.885   6.494  25.450  0.0036 -0.1880  0.1810
81440W        W56428  13.915  20.711  24.498 -0.0480  0.2280 -0.1641
81441W        W56429  14.779  28.711   8.087 -0.2589 -0.0704 -0.3189
81442W        W56430  22.054   4.615   0.457  0.0728 -0.0265 -0.3022
81443W        W56431  17.696   8.894  22.439 -0.1159  0.0293 -0.4009
81444W        W56432  19.559   5.567   4.343 -0.0968 -0.1184  0.0155
81445W        W56433  30.054  24.499  10.832  0.2143  0.0018  0.1051
81446W        W56434  13.744  21.013   5.037  0.0157 -0.2609  0.3356
81447W        W56435  31.301  29.830  17.271  0.1149 -0.0157  0.1639
81448W        W56436  34.752  34.574  19.491 -0.2203  0.0195 -0.0231
81449W        W56437   6.077   4.713  23.988 -0.2214 -0.0566 -0.0580
81450W        W56438   0.014   6.260  14.636  0.0983 -0.2380  0.1898
81451W        W56439  33.752  15.646  16.595  0.0953  0.0115 -0.2737
81452W        W56440  30.157  25.296  20.077  0.0271  0.0859  0.1746
81453W        W56441  28.266  22.099   6.180  0.3016 -0.0851  0.0080
81454W        W56442  33.137   5.928  11.882  0.0549 -0.1174 -0.1884
81455W        W56443   4.469  13.355   3.410 -0.0636 -0.1612 -0.2535
81456W        W56444  28.561  23.739  23.919 -0.2940 -0.0021  0.1053
81457W        W56445   0.420  25.288  17.227  0.2931  0.0667 -0.2623
81458W        W56446  21.763   7.278  19.139 -0.1690  0.0989 -0.1290
81459W        W56447  12.328   3.767   7.732 -0.0358 -0.1924  0.2859
81460W        W56448   5.399  29.921  12.802  0.1839  0.3288  0.0305
81461W        W56449   1.368  30.392   4.948  0.0468  0.1174 -0.1460
81462W        W56450  11.631  25.521  22.648 -0.1128 -0.0658 -0.2829
81463W        W56451  14.051   1.271  20.854  0.0430 -0.0757  0.1707
81464W        W56452   2.390  32.509  22.582  0.3212  0.1847 -0.1085
81465W        W56453   0.100  22.400   1.438  0.1954 -0.2375  0.0894
81466W        W56454   5.664   3.588  11.003  0.1928 -0.0360  0.1456
81467W        W56455  29.145  31.816  18.180  0.0563 -0.1559 -0.0018
81468W        W56456  23.794  10.721  20.462 -0.1123 -0.0577 -0.1048
81469W        W56457  18.681   2.183  24.653  0.0086 -0.1374  0.0949
81470W        W56458  26.613   1.535  11.994 -0.0720  0.2042  0.4442
81471W        W56459  16.887   7.543  23.792 -0.2184  0.1347  0.0956
81472W        W56460   1.057  28.849   3.381  0.1056 -0.0497  0.3235
81473W        W56461  26.815  29.800   2.852  0.0820 -0.2036 -0.1175
81474W        W56462   7.976   8.759   6.514 -0.1946 -0.0316 -0.0127
81475W        W56463   2.839   7.464  23.114  0.0023 -0.2209 -0.2434
81476W        W56464  16.895  34.513  20.963  0.1846 -0.3141 -0.2889
81477W        W56465  13.959  21.520   3.418 -0.1996  0.1188 -0.1626
81478W        W56466   0.904  32.318  21.235 -0.1479  0.0409 -0.0948
81479W        W56467  13.558  25.241  25.098 -0.1044 -0.3337  0.1849
81480W        W56468  23.182  13.551  17.028  0.0134  0.2801 -0.0373
81481W        W56469  13.708  22.286   4.727  0.3956  0.3163  0.0359
81482W        W56470   7.554  27.216  12.227  0.0666 -0.1268 -0.4696
81483W        W56471  30.753  31.758  18.829 -0.0692  0.2502 -0.2787
81484W        W56472   3.203  13.038  15.785  0.1053  0.1033  0.0233
81485W        W56473  12.530  27.862  15.279  0.3710  0.2038 -0.1659
81486W        W56474  15.600  13.659   4.356  0.0698  0.2945 -0.3130
81487W        W56475  24.751  33.702   1.103 -0.0677 -0.1229  0.1147
81488W        W56476  17.819  10.359  11.418  0.1596  0.0638 -0.2417
81489W        W56477  25.627  33.955  20.926 -0.3476  0.5370 -0.1256
81490W        W56478  32.642   8.676  21.557 -0.0125 -0.0279  0.1205
81491W        W56479   9.971   9.589  11.736 -0.0160 -0.1858  0.0075
81492W        W56480  27.068  24.100  19.711 -0.1019 -0.0230  0.1315
81493W        W56481   4.239   3.693  25.686  0.2207 -0.1680 -0.1048
81494W        W56482  12.611   8.466  12.591  0.0071 -0.0977  0.0825
81495W        W56483  11.351   5.012  12.674 -0.0247 -0.0567  0.0228
81496W        W56484  31.514  33.137  18.855 -0.2833  0.1143 -0.0075
81497W        W56485   4.851  11.825   8.047  0.3562  0.1270 -0.0477
81498W        W56486  24.631  22.688  15.500  0.1478  0.2030 -0.1054
81499W        W56487   3.743   9.778  18.059  0.2680  0.2662  0.0114
81500W        W56488   9.747  21.787  22.801  0.0833  0.1573  0.2872
81501W        W56489  26.784  10.357  13.169 -0.2104  0.1379 -0.2357
81502W        W56490   9.980  19.621   3.364  0.0956  0.3708  0.0698
81503W        W56491  12.096  16.658  22.094 -0.3634  0.0554  0.0552
81504W        W56492   8.991   7.782  12.494 -0.2755  0.0513 -0.1684
81505W        W56493  14.058  17.792  12.183  0.3879 -0.2155 -0.3521
81506W        W56494   7.317   9.466  21.389  0.0814 -0.4899 -0.0131
81507W        W56495  32.126  16.342  24.950 -0.2640 -0.1742  0.0283
81508W        W56496   2.685  11.592  24.154  0.3176  0.1368  0.2967
81509W        W56497  32.921  13.565  19.689  0.1897  0.0920 -0.0050
81510W        W56498   9.319  24.777  24.318 -0.0325  0.0484  0.1868
81511W        W56499  27.524  11.804  21.824 -0.1312 -0.0280  0.1441
81512W        W56500  30.997  18.150  21.901  0.0677 -0.1217 -0.0965
81513W        W56501  24.680  21.246  21.133 -0.1623  0.1948 -0.4273
81514W        W56502  13.490  23.590  16.235  0.1587  0.4523  0.3083
81515W        W56503   8.600   6.990   4.637  0.0655 -0.3949  0.0004
81516W        W56504  13.715   6.331   6.725 -0.1418 -0.1160  0.0514
81517W        W56505  27.704  13.649  16.846 -0.0510  0.0998  0.0207
81518W        W56506   6.729   4.066   3.054 -0.2951  0.2577 -0.0858
81519W        W56507   0.210   6.279  11.723  0.0144  0.1956 -0.1841
81520W        W56508  23.712  15.555  17.507 -0.2314 -0.1944 -0.1284
81521W        W56509   9.677  27.996   0.314 -0.0001 -0.2446 -0.1823
81522W        W56510  13.351  21.241  23.841  0.2404 -0.3107 -0.1209
81523W        W56511  20.067   2.042  24.608  0.0971 -0.0054 -0.3325
81524W        W56512  11.067  24.441  22.447 -0.1780 -0.0386  0.2995
81525W        W56513  29.529  21.993   6.554 -0.1755 -0.2228 -0.1734
81526W        W56514  35.382   9.533   3.046 -0.0859  0.3450  0.1592
81527W        W56515   2.717  29.062   4.553 -0.0494 -0.0147 -0.1062
81528W        W56516  27.407  32.169   2.857  0.1869 -0.3910 -0.0070
81529W        W56517   8.646  20.489   4.228  0.0889  0.0336 -0.1949
81530W        W56518  27.437   6.625   2.248  0.0812  0.2693  0.0584
81531W        W56519  25.715   3.986   1.095 -0.0274 -0.2005  0.1529
81532W        W56520  18.821  30.864   7.306  0.0257 -0.3336 -0.1708
81533W        W56521  30.509  18.958   9.356  0.2758 -0.1172 -0.3627
81534W        W56522   1.254   5.713  20.560  0.2627 -0.0869 -0.0338
81535W        W56523  24.150  24.505  15.339  0.0344 -0.2366  0.1791
81536W        W56524  27.802   2.404  23.169 -0.3439 -0.1443  0.0150
81537W        W56525  14.429   5.343  13.023  0.2324  0.0783 -0.0157
81538W        W56526  11.047  17.008   5.175  0.1586  0.3690 -0.1381
81539W        W56527  13.739   2.169  22.065  0.1128 -0.1943 -0.3849
81540W        W56528   9.620   7.516  23.846  0.2727 -0.1388 -0.1089
81541W        W56529  10.359   5.474  10.884 -0.0602 -0.1888  0.0854
81542W        W56530  21.138  30.274  21.888  0.3044 -0.5621 -0.1386
81543W        W56531  24.474  23.388  19.119 -0.0908 -0.0831 -0.0016
81544W        W56532  34.880  10.512  13.407 -0.1589  0.0773  0.1919
81545W        W56533  34.532  29.188   6.017 -0.1671  0.3289 -0.2406
81546W        W56534   4.369  10.571  21.068  0.0040  0.0982  0.1540
81547W        W56535   4.147   0.929  23.063  0.0377 -0.2993  0.1565
81548W        W56536   1.980   3.858  14.128 -0.1707  0.0373  0.0685
81549W        W56537  12.547  22.172  25.573  0.2050 -0.0533  0.3581
81550W        W56538  14.703  24.463  15.856  0.3311 -0.0968  0.2921
81551W        W56539  15.897   8.428  18.401  0.0867  0.1344  0.0178
81552W        W56540   0.508  16.351  10.299  0.0070  0.3061  0.0226
81553W        W56541  34.890  15.194  24.590 -0.0353 -0.5612 -0.1238
81554W        W56542  19.627   1.824  22.428  0.1237 -0.0849 -0.1153
81555W        W56543  18.930   6.742   0.456 -0.0049  0.2472 -0.0727
81556W        W56544   4.247  19.377   0.561  0.3961  0.1953 -0.0753
81557W        W56545   9.875  13.583  10.564  0.1992 -0.0692  0.0626
81558W        W56546  34.596  21.227  21.218 -0.3961  0.0388  0.2021
81559W        W56547  31.111  35.253  14.504  0.1017 -0.2697  0.2566
81560W        W56548  14.359  25.843  16.615  0.2060 -0.4645  0.2919
81561W        W56549  31.169  32.825  12.822  0.0796 -0.3275 -0.0741
81562W        W56550   9.021  12.612  12.137 -0.1765 -0.2246  0.0359
81563W        W56551  17.953   7.495   5.333  0.3235 -0.0103  0.1389
81564W        W56552   0.291   2.992  24.215 -0.3369  0.1149 -0.2855
81565W        W56553  34.365  34.740   9.040  0.2179  0.2144  0.1242
81566W        W56554  30.289  35.186  25.345  0.1061  0.0775 -0.0479
81567W        W56555  25.564  22.715  11.060 -0.2373  0.3417 -0.0627
81568W        W56556  21.425  22.754   4.965 -0.3000  0.5373  0.2609
81569W        W56557  25.864  14.549  11.289  0.3371 -0.1444 -0.3055
81570W        W56558  27.199   4.443  15.436  0.0053 -0.0896  0.2539
81571W        W56559  14.696   1.466  19.669 -0.1515  0.1539 -0.0551
81572W        W56560   2.996  20.851   4.557  0.1016  0.1201 -0.1827
81573W        W56561   3.700  33.619   7.303  0.0307  0.0835  0.0797
81574W        W56562  35.130  10.829  24.091 -0.2392 -0.0249 -0.0995
81575W        W56563  30.558  34.570  23.399  0.3021  0.1076 -0.0495
81576W        W56564  25.472  31.353  19.628 -0.0181  0.2062  0.0497
81577W        W56565  29.077  14.103   5.738  0.0230  0.1316  0.0881
81578W        W56566  16.811  23.382   3.512  0.1406  0.3424  0.0187
81579W        W56567   9.847  16.788  26.174 -0.0811  0.1773  0.1435
81580W        W56568  31.680  10.829  17.398 -0.1614  0.2463 -0.0088
81581W        W56569  20.836   5.317   1.839 -0.2134 -0.0896 -0.0618
81582W        W56570  31.916   8.853  17.078  0.1718  0.1828  0.0346
81583W        W56571  21.815  21.972   0.863 -0.0734  0.0027 -0.0051
81584W        W56572  30.679  32.034   2.340 -0.2818 -0.0122  0.1510
81585W        W56573  34.427   4.684   1.505  0.1343 -0.5023  0.3144
81586W        W56574  14.054  26.208  14.901  0.4220  0.2364  0.0271
81587W        W56575  17.403  16.073  21.063  0.0427 -0.1090  0.2106
81588W        W56576  11.233  16.785   3.739 -0.0413  0.3849 -0.0888
81589W        W56577   0.604  31.372  16.945  0.2898  0.0669  0.2562
81590W        W56578   6.516  33.651  11.490  0.0702  0.3798  0.0649
81591W        W56579  19.295   1.339   1.715  0.3884 -0.0221  0.1442
81592W        W56580  26.476  34.655  11.146 -0.1560 -0.0904 -0.0562
81593W        W56581  30.998  21.689  24.214  0.1814 -0.0326  0.0971
81594W        W56582   5.966  11.356   2.747 -0.0494  0.0062 -0.1687
81595W        W56583  27.608  25.325  13.051  0.0497 -0.0210  0.0880
81596W        W56584  29.230  20.220  13.749  0.1302  0.0919 -0.0762
81597W        W56585  10.360  32.632  22.649 -0.2257  0.1811 -0.1336
81598W        W56586  18.014  27.298   0.084 -0.2944 -0.3280  0.0762
81599W        W56587  26.671  29.070  19.508 -0.0363  0.3299  0.4276
81600W        W56588   0.506  10.192  23.070 -0.2671 -0.1077  0.0969
81601W        W56589   2.669  25.303  23.127  0.0192 -0.2981  0.0137
81602W        W56590  20.074  28.586  25.062 -0.1738  0.2554  0.1903
81603W        W56591  23.984  26.649  22.749  0.0392 -0.1657  0.4487
81604W        W56592  20.671  22.692   2.238  0.0841  0.3662  0.0013
81605W        W56593  13.100  25.950   8.652 -0.1749 -0.2538 -0.3573
81606W        W56594  10.279  34.735  26.038  0.0327 -0.1177 -0.1201
81607W        W56595  10.653  17.066  19.889  0.0734  0.1657  0.1904
81608W        W56596   0.251  22.839  22.501 -0.2112 -0.2395  0.0069
81609W        W56597   7.669  26.294  10.452  0.3635 -0.0743 -0.3087
81610W        W56598   0.781  10.492  25.900  0.1108 -0.2500 -0.0366
81611W        W56599  26.129  23.436  22.942  0.0251 -0.0156  0.1481
81612W        W56600   0.656   3.592  23.490  0.1251 -0.3342 -0.3844
81613W        W56601  28.989   5.071  19.910  0.2354 -0.2738  0.1259
81614W        W56602  32.671  20.884  13.044  0.1274  0.2927  0.0792
81615W        W56603   9.436  27.604   0.697  0.3507 -0.4171  0.1845
81616W        W56604   8.391   3.619   1.825  0.1122 -0.1372  0.0321
81617W        W56605   6.928  32.197   3.314  0.0379  0.1284  0.1185
81618W        W56606  14.380   4.751   1.818 -0.2309  0.3325  0.2075
81619W        W56607   0.683  13.808  21.983 -0.1600  0.0348 -0.0145
81620W        W56608  23.934   3.072   5.885 -0.1682  0.0069 -0.0942
81621W        W56609  31.360   2.953   5.319 -0.2856  0.1647 -0.0721
81622W        W56610  24.306   3.162  12.244 -0.1323  0.0469 -0.0363
81623W        W56611  29.496  15.977  23.718 -0.3260  0.1940  0.2543
81624W        W56612  19.284  16.909   7.237 -0.0989  0.0955  0.2461
81625W        W56613  34.091  11.293  21.525 -0.4038 -0.3229  0.0804
81626W        W56614   9.521   8.802   4.947  0.3285  0.0598  0.2414
81627W        W56615  15.651   6.379  26.144  0.0568 -0.5056 -0.3050
81628W        W56616  29.931  32.518   4.030  0.2157 -0.0136  0.0473
81629W        W56617  19.106  12.634   6.145 -0.0151  0.0542 -0.0643
81630W        W56618  32.093  17.343  18.057 -0.2353  0.0475 -0.2245
81631W        W56619  33.362  26.653  20.314  0.0956 -0.1125  0.3314
81632W        W56620   1.663  19.228  14.270  0.1043  0.1150  0.1919
81633W        W56621  11.263  14.606   8.142  0.1558  0.2105  0.1562
81634W        W56622  35.283  27.764   5.098  0.1150  0.1426 -0.1428
81635W        W56623  18.782  10.389  18.212 -0.0367 -0.0315 -0.0314
81636W        W56624  12.417  25.508   1.338 -0.3684  0.1684  0.0101
81637W        W56625  31.773  14.345  22.000 -0.0763  0.1230 -0.1292
81638W        W56626   3.931   0.685  10.364  0.0993  0.1092  0.3904
81639W        W56627   2.919  29.599   2.851 -0.3180  0.2943  0.2373
81640W        W56628   0.522  20.035   8.897  0.3619 -0.1531  0.0006
81641W        W56629  20.150   1.948   6.823 -0.1007  0.3010  0.3242
81642W        W56630  11.210   6.159   3.324 -0.3276  0.0265  0.1990
81643W        W56631   2.783  19.645   0.894  0.1025 -0.1097 -0.2754
81644W        W56632   5.184   5.084  19.081  0.1549 -0.1286  0.1281
81645W        W56633  19.231  22.469  24.156  0.0038  0.1786  0.1803
81646W        W56634  27.982  35.363  24.293  0.0326 -0.2687  0.2236
81647W        W56635  12.128  20.571  15.437  0.3044 -0.0296 -0.2372
81648W        W56636  25.876  33.675  19.000  0.2854 -0.2779 -0.3505
81649W        W56637   9.428   6.501  18.262 -0.2130 -0.0252 -0.1845
81650W        W56638  28.885  30.881  10.854 -0.0610  0.0275  0.1059
81651W        W56639  26.751   7.904  21.971  0.4219  0.3530  0.0297
81652W        W56640  19.976  24.136  26.037  0.2115 -0.0312 -0.3328
81653W        W56641  29.756  13.719   8.627 -0.0160 -0.2457  0.2508
81654W        W56642  33.076  24.752   1.797 -0.0861 -0.0634  0.1289
81655W        W56643  15.662   1.035  26.164  0.2979  0.3320  0.1908
81656W        W56644  11.740  29.324   9.074  0.0929  0.1763  0.3615
81657W        W56645  19.817  30.846  18.874  0.0310 -0.1312 -0.1950
81658W        W56646   3.774  30.362  20.701  0.1327 -0.1318  0.0615
81659W        W56647  10.876   7.854  24.885  0.0282 -0.1997  0.1488
81660W        W56648  20.682   2.126  16.702 -0.0590  0.1763 -0.3630
81661W        W56649  14.018  28.775  12.963  0.2133  0.1818  0.0037
81662W        W56650   1.273  17.575  10.871 -0.1363  0.2890 -0.0202
81663W        W56651  13.059   8.609  10.000 -0.3776 -0.3108  0.2030
81664W        W56652  19.784  24.707   6.613  0.1754 -0.0674 -0.3133
81665W        W56653   3.840  21.631   4.286  0.0101 -0.1274  0.2235
81666W        W56654  33.841  12.600  10.095  0.0940 -0.1250 -0.0119
81667W        W56655   3.648   1.651  21.197  0.1889 -0.1716 -0.1926
81668W        W56656   0.061  32.795  19.030 -0.2048 -0.2202 -0.0377
81669W        W56657  27.024   9.625  18.585 -0.0964 -0.1490 -0.1393
81670W        W56658  31.153  15.477  17.108  0.1982  0.0322  0.1387
81671W        W56659  11.290  26.674  14.316  0.3812  0.1069 -0.4539
81672W        W56660  23.776  12.645  20.980  0.0124 -0.0231 -0.0765
81673W        W56661   0.580  20.567  15.702 -0.2218  0.0146  0.1801
81674W        W56662  19.736   1.128  26.050 -0.0911 -0.0110 -0.3901
81675W        W56663  14.523  28.490  11.791  0.0707  0.0522 -0.2952
81676W        W56664  24.889  15.582   1.532 -0.2252 -0.0040 -0.1593
81677W        W56665   1.754  30.884  24.506  0.2344 -0.2400  0.2040
81678W        W56666   9.965  27.648  15.867  0.2601  0.4429  0.2645
81679W        W56667  20.129  24.622  22.339  0.0790 -0.0891  0.2449
81680W        W56668  27.210  16.929  11.643 -0.1782 -0.1980 -0.1437
81681W        W56669  23.799  20.142  15.312 -0.0626 -0.1266  0.0800
81682W        W56670  24.649  12.518  18.522 -0.0938 -0.1499 -0.0862
81683W        W56671  14.590  26.395  22.112 -0.1183  0.2429  0.2415
81684W        W56672   9.179  23.680   4.058 -0.0413 -0.2208 -0.0697
81685W        W56673  10.200   2.786  21.285 -0.1460  0.2231  0.6755
81686W        W56674  35.108  22.726  17.991 -0.1895  0.0414  0.1738
81687W        W56675  31.941   0.014  19.189  0.3370 -0.1255  0.3629
81688W        W56676  20.725   9.568   5.082 -0.1497  0.1944  0.0563
81689W        W56677  20.168   8.764   3.382 -0.0925 -0.0119 -0.0806
81690W        W56678   5.341  30.349   2.539 -0.2690 -0.1620 -0.2755
81691W        W56679   4.889  25.120  23.233  0.2271  0.0648  0.0088
81692W        W56680  26.972   5.995   3.262 -0.1040 -0.6596  0.1323
81693W        W56681   7.413   1.241  20.897  0.2977 -0.0526 -0.3749
81694W        W56682   3.206  10.314  18.004  0.0288 -0.3008 -0.1540
81695W        W56683  29.167  28.011   9.803 -0.0206  0.1941  0.0792
81696W        W56684  30.997  26.293  20.653 -0.2633 -0.4645 -0.0709
81697W        W56685  27.362  27.434  23.746 -0.1590 -0.1621  0.3175
81698W        W56686  30.396  26.543  23.291 -0.0538  0.2052 -0.0985
81699W        W56687   4.541  30.221  21.467 -0.1353 -0.1633  0.0969
81700W        W56688  14.262  32.826   3.487 -0.1517  0.1836  0.0588
81701W        W56689  20.201  10.831  21.391  0.0752  0.2437 -0.0902
81702W        W56690  22.397  17.644  23.214  0.0526 -0.1351 -0.0110
81703W        W56691   5.932  13.048   0.105  0.0720 -0.1999  0.1240
81704W        W56692  12.597  24.542  12.258 -0.0556 -0.0923 -0.3846
81705W        W56693  19.551  15.840   3.265  0.1415 -0.0699 -0.4698
81706W        W56694  29.762   9.988   9.060 -0.0267 -0.1137  0.1023
81707W        W56695  32.976   1.813   5.408 -0.1539 -0.0782 -0.1634
81708W        W56696   7.457  23.539  11.503 -0.0019  0.0424  0.2954
81709W        W56697   2.575  22.037  26.164  0.1680 -0.0641 -0.0508
81710W        W56698  20.649  34.519   1.459 -0.0834 -0.2133  0.1601
81711W        W56699   0.591  19.489  21.320  0.1377  0.0183  0.1854
81712W        W56700  20.578  20.791   2.750 -0.1984  0.0442  0.1067
81713W        W56701   4.743  25.226   9.156  0.0153 -0.1481 -0.1910
81714W        W56702  16.880  33.517  10.139  0.2023 -0.3030  0.0097
81715W        W56703  32.956  31.372  25.379  0.1720 -0.0710  0.0414
81716W        W56704  30.489   7.602  23.006  0.2757  0.0648 -0.1598
81717W        W56705  22.132   9.814   3.967 -0.4352  0.0344 -0.0334
81718W        W56706   7.097  33.926  14.106 -0.2399 -0.0306  0.0895
81719W        W56707   0.781  12.925  16.106  0.0721 -0.0302  0.0577
81720W        W56708   7.688  31.936   9.011 -0.2781 -0.0652 -0.0737
81721W        W56709  27.988  19.641  11.417 -0.1735  0.1092 -0.0223
81722W        W56710   5.703   5.600   5.577 -0.0294  0.0150  0.0914
81723W        W56711  30.239  30.279  15.362 -0.0228 -0.0530 -0.0781
81724W        W56712   5.282  34.321  25.724 -0.0121 -0.1123 -0.0149
81725W        W56713  15.598  12.129  23.764  0.1014 -0.0433 -0.3639
81726W        W56714  34.883   6.075  25.462  0.0492  0.1862 -0.1220
81727W        W56715  30.599  13.005   9.740  0.4042 -0.1627 -0.0767
81728W        W56716  17.008  29.126  23.205 -0.1890 -0.0895  0.0654
81729W        W56717  13.454   0.833   1.629 -0.3779  0.0880 -0.0078
81730W        W56718  14.937  33.854   3.906 -0.0230  0.0153  0.1399
81731W        W56719  26.876  32.029   2.217  0.1660  0.3263 -0.1087
81732W        W56720  15.654  25.718  24.563 -0.0110 -0.0288 -0.2341
81733W        W56721  15.230   9.844   9.302  0.2858  0.0959  0.2472
81734W        W56722  23.829   0.073  15.093  0.0394 -0.2633  0.0811
81735W        W56723  26.566  26.156  20.239  0.1067 -0.0677  0.0459
81736W        W56724  34.133  23.430  10.051  0.1662  0.1130  0.0667
81737W        W56725  14.920  18.488  12.173  0.0411  0.0218  0.0450
81738W        W56726  17.557  14.298   6.528  0.2194 -0.1810 -0.1512
81739W        W56727  19.105  16.676   3.793 -0.0833  0.2285 -0.2492
81740W        W56728  17.125   0.197   4.766  0.0065  0.2245 -0.0291
81741W        W56729  15.591  27.490  21.555  0.0178 -0.1414  0.1695
81742W        W56730   4.114  22.865  25.954  0.0570 -0.3679  0.0617
81743W        W56731  24.605   4.339  17.827 -0.0578  0.2650 -0.1643
81744W        W56732   8.895   2.924   8.385 -0.4011 -0.1367  0.2477
81745W        W56733   5.147  13.464   6.497 -0.1801  0.1490  0.0404
81746W        W56734  32.053  33.483   0.490  0.2406  0.1792 -0.0644
81747W        W56735  24.786  33.015  17.848  0.2863 -0.0477 -0.1028
81748W        W56736  16.567  24.484  13.598 -0.0700 -0.0373 -0.2248
81749W        W56737  15.942  33.433   5.786 -0.0452 -0.1752 -0.0262
81750W        W56738  30.404  20.334  23.205 -0.2971 -0.1074  0.4598
81751W        W56739   3.143  11.266   4.278  0.1107 -0.0952  0.2640
81752W        W56740  30.172  31.615  19.432  0.3041  0.0017  0.1857
81753W        W56741  32.724   5.583   2.390 -0.2521  0.3383 -0.1191
81754W        W56742  21.003  30.529  20.243  0.3129  0.1528  0.0399
81755W        W56743  12.557  22.673  13.182  0.1140  0.0865 -0.1149
81756W        W56744  24.440  16.742  19.463  0.1602  0.2752  0.0459
81757W        W56745  28.301  28.719  18.373  0.0476 -0.2976  0.0654
81758W        W56746   5.437  32.417   6.846  0.3710 -0.4138 -0.2014
81759W        W56747   8.147   2.084   7.115 -0.3673 -0.1681  0.0640
81760W        W56748  34.473   8.846   2.325 -0.1272  0.3693  0.3473
81761W        W56749  32.157  34.771   0.854  0.2210 -0.0601  0.0240
81762W        W56750  24.197   4.042   4.647 -0.1372 -0.1032  0.0841
81763W        W56751  13.717   4.058  12.453  0.2590 -0.1085  0.0754
81764W        W56752  15.227   4.534   5.807  0.1484  0.1444  0.0906
81765W        W56753  17.963  17.478   9.842  0.2145  0.0331 -0.5536
81766W        W56754  26.018   6.976  11.838  0.1049  0.0929 -0.0910
81767W        W56755  29.559   0.267   5.430 -0.0425  0.1771 -0.1442
81768W        W56756  13.607  31.879   6.890  0.0621 -0.3338  0.0935
81769W        W56757  12.834  27.255  11.602 -0.0819 -0.2262 -0.2050
81770W        W56758  18.863  15.524   4.867  0.0792 -0.0408 -0.0451
81771W        W56759   5.619  19.368   0.146 -0.0581 -0.2245  0.0442
81772W        W56760  31.844  33.615  16.757  0.3628  0.0343 -0.0274
81773W        W56761  31.041  12.074   6.679  0.0246  0.1597 -0.0898
81774W        W56762  15.823  22.488  23.453  0.0276  0.1500 -0.1447
81775W        W56763  14.003  34.944  25.044  0.3205  0.2430 -0.0718
81776W        W56764  10.451   4.096   0.377  0.1579 -0.0493  0.1158
81777W        W56765  26.738  10.367  23.272 -0.3701  0.2822 -0.0196
81778W        W56766  21.245  16.687   3.342  0.1467 -0.0730  0.1851
81779W        W56767  19.889  19.350  22.580  0.0762  0.1488  0.0029
81780W        W56768  34.187   7.852  12.742  0.0844  0.0392  0.4161
81781W        W56769  11.782  13.281   7.847  0.1893  0.1218  0.0927
81782W        W56770  32.231   2.252   5.715 -0.1060  0.2875  0.0960
81783W        W56771  17.583   5.683   0.685  0.2513  0.2590 -0.2041
81784W        W56772  29.285  26.226  20.403 -0.1885 -0.2416  0.0922
81785W        W56773  31.087  17.981  14.877  0.2348  0.2399 -0.1171
81786W        W56774   8.731  19.223   8.450 -0.2205  0.0735 -0.2572
81787W        W56775  12.002  13.471   4.816  0.0722  0.0522  0.0856
81788W        W56776  19.830  18.471  23.147  0.2254  0.3366  0.0055
81789W        W56777  16.941   6.258  13.234  0.0162 -0.2817 -0.0230
81790W        W56778   7.870   8.419   8.072  0.0223 -0.0071  0.3359
81791W        W56779  27.585  16.541  25.168  0.2615  0.0556  0.1050
81792W        W56780   2.911  32.041  10.604  0.1609  0.1200 -0.2437
81793W        W56781   6.135  25.620   5.422 -0.3437  0.0911  0.4859
81794W        W56782  22.009  11.357  21.117  0.2342 -0.1965  0.0556
81795W        W56783  19.354  31.308  17.461  0.2285 -0.1058 -0.1569
81796W        W56784  11.076  11.551  13.454 -0.3837 -0.0327  0.2042
81797W        W56785  12.491  16.625   6.439  0.0799  0.1651 -0.0939
81798W        W56786   6.597  21.139  23.673  0.0021 -0.2187 -0.0116
81799W        W56787  19.167   3.459   6.278  0.0548 -0.1922 -0.0033
81800W        W56788  14.964   2.770  20.404 -0.0135 -0.0420 -0.1626
81801W        W56789   8.584   1.967  26.103  0.1087 -0.0925 -0.0869
81802W        W56790  22.184  30.696  26.238 -0.2761 -0.6453  0.0361
81803W        W56791   1.837  16.075   3.448 -0.3859 -0.1178 -0.0370
81804W        W56792   6.832  21.221  11.501 -0.0248 -0.3482 -0.0423
81805W        W56793   3.330   6.957  25.594 -0.1930 -0.0839  0.1534
81806W        W56794  31.900   8.557  16.104 -0.3538  0.0153  0.1962
81807W        W56795  20.690  17.405   0.462  0.0540 -0.1427  0.2744
81808W        W56796  29.431  33.074   0.437 -0.2171 -0.2170  0.0341
81809W        W56797  34.697  13.044   8.999 -0.0880 -0.1615 -0.0231
81810W        W56798   1.509  23.646   1.818  0.2930  0.0999  0.0303
81811W        W56799  19.022  18.962   5.098  0.2948 -0.1301  0.2256
81812W        W56800  18.178   4.290   1.443  0.1628  0.0188 -0.0364
81813W        W56801  21.206   6.125   7.176 -0.0108  0.3734 -0.1317
81814W        W56802   5.914  21.620  21.440  0.0349 -0.2268 -0.0473
81815W        W56803  34.366  17.793  25.101 -0.0572 -0.2496 -0.2942
81816W        W56804  18.625   5.102  20.784  0.2217 -0.1124 -0.2516
81817W        W56805  24.974  24.804   0.372 -0.0160  0.1798  0.3640
81818W        W56806   9.226   2.121  12.305  0.3373 -0.0348 -0.4279
81819W        W56807  26.525  31.894  25.707  0.1619  0.0516  0.1667
81820W        W56808   5.258  11.616   1.788 -0.2870 -0.2907  0.5013
81821W        W56809  31.024  19.243  14.638  0.1011 -0.0755 -0.0670
81822W        W56810  18.506  28.291  22.526 -0.2841  0.1413 -0.1188
81823W        W56811  26.202  26.116  16.152 -0.0015 -0.0687  0.0726
81824W        W56812  26.048  26.034  10.659  0.1955  0.0847  0.1252
81825W        W56813  28.863  31.569  23.752 -0.0267 -0.1901 -0.1868
81826W        W56814  10.799   5.307   8.701  0.0353 -0.1379  0.0982
81827W        W56815   8.145  17.778   5.818 -0.4281 -0.1516  0.0168
81828W        W56816  25.387  25.195  17.076 -0.2778 -0.0653  0.3537
81829W        W56817  21.799  25.989  22.405 -0.0609 -0.0475  0.1216
81830W        W56818  24.989   5.609  23.008  0.2005  0.5901 -0.1499
81831W        W56819  26.037  27.183  24.958  0.3627 -0.3020  0.0429
81832W        W56820  10.882   2.748   7.158 -0.0276  0.2924 -0.1052
81833W        W56821   1.994  16.191  15.314 -0.3164  0.0318  0.1118
81834W        W56822   4.340  16.142  25.799  0.1650 -0.2710 -0.0003
81835W        W56823  24.995  26.004  13.082 -0.0536 -0.0354  0.0930
81836W        W56824  27.981  25.259  22.596  0.1610 -0.1955 -0.1240
81837W        W56825   4.453  16.199  21.218 -0.0659 -0.0711  0.0602
81838W        W56826  22.785  32.269  17.652  0.1502 -0.0892 -0.2034
81839W        W56827   3.086  20.953   2.165 -0.1414 -0.0691  0.0293
81840W        W56828  17.425  17.198   9.040 -0.2107 -0.2430 -0.0102
81841W        W56829  14.392  15.169  19.727  0.3493  0.2080  0.2237
81842W        W56830   2.109   5.654  23.664  0.0536  0.0867 -0.0878
81843W        W56831   0.859  12.213  18.160  0.3698 -0.3162  0.1572
81844W        W56832   2.458   1.658  17.840  0.1702 -0.0053  0.1544
81845W        W56833   2.429  21.097   1.068  0.0456 -0.0735  0.1628
81846W        W56834  23.862  29.214  26.069  0.1770 -0.0076  0.2689
81847W        W56835  19.353   8.528  21.586 -0.0093  0.0670  0.0510
81848W        W56836  10.767  26.517   0.762 -0.1511  0.1973 -0.0928
81849W        W56837   8.786  14.871  22.781 -0.1294 -0.0125  0.2104
81850W        W56838   9.464  11.670   9.750 -0.2458 -0.1240 -0.2626
81851W        W56839  25.667   8.279  25.798 -0.2077  0.1063 -0.3167
81852W        W56840  19.212  15.139   6.373 -0.1447  0.3093  0.1432
81853W        W56841   7.749   6.599   6.158  0.1116 -0.0400  0.1147
81854W        W56842  20.391  13.345  22.867  0.4480 -0.2342  0.0872
81855W        W56843  21.099   6.426  19.233 -0.0138 -0.1634  0.2049
81856W        W56844  29.036   6.384  25.519  0.1566 -0.2095  0.0848
81857W        W56845  11.782  13.276   5.335  0.3001  0.1658  0.1057
81858W        W56846  27.136  35.182   0.657  0.2915  0.2553 -0.3632
81859W        W56847  34.895   3.457  26.107  0.0289  0.0380  0.0138
81860W        W56848   4.975   5.186   8.471  0.0747 -0.3935 -0.1518
81861W        W56849  15.537  27.938   9.337  0.0552 -0.0941 -0.0580
81862W        W56850   9.097   3.698   4.100 -0.2228 -0.1989  0.1006
81863W        W56851  23.178   2.330  22.230 -0.2129  0.0250 -0.0314
81864W        W56852  15.135  18.058  22.622 -0.0149  0.0743 -0.0691
81865W        W56853  15.718  22.003   7.395 -0.1493  0.1530 -0.2162
81866W        W56854  27.749  15.106  17.941 -0.2179 -0.3809  0.1022
81867W        W56855   5.883  28.670  13.436 -0.2858  0.1378 -0.0928
81868W        W56856   9.678  35.024  10.815  0.0098 -0.2756  0.1336
81869W        W56857  26.710  30.306  13.238 -0.1315 -0.0683 -0.0560
81870W        W56858  27.732  30.204  10.549 -0.2320  0.0230 -0.0327
81871W        W56859  14.517   9.055   1.621 -0.0576 -0.1050 -0.0631
81872W        W56860  16.255  20.477   8.178  0.2189 -0.2458 -0.2336
81873W        W56861  16.739   3.935   2.019 -0.2104 -0.0023  0.1529
81874W        W56862  21.106   8.378   4.028 -0.0305 -0.1895 -0.0011
81875W        W56863  14.362  33.793   7.962  0.4883  0.1694 -0.0535
81876W        W56864  32.527   5.601   2.901  0.1206 -0.3401 -0.0516
81877W        W56865  25.892  15.154  13.534 -0.2606  0.1691 -0.3758
81878W        W56866  17.847  30.738   3.425 -0.0091  0.0221  0.4719
81879W        W56867  23.898  17.306  16.363  0.1675 -0.1658  0.1928
81880W        W56868  11.226   5.666  22.551 -0.0875  0.2854  0.2599
81881W        W56869  23.217   2.076  13.651  0.1159  0.2773 -0.2393
81882W        W56870  34.226   7.494   4.119  0.2631 -0.2466  0.0070
81883W        W56871   7.553  12.751  10.807 -0.1123  0.1911 -0.0099
81884W        W56872  33.099  31.760   0.044 -0.0742  0.1822 -0.3654
81885W        W56873   9.930  35.166   5.438 -0.1237 -0.2091 -0.2924
81886W        W56874   7.646  13.784   9.650  0.1397 -0.3097 -0.2344
81887W        W56875  15.569  23.582   7.636 -0.2661 -0.1956 -0.2567
81888W        W56876  10.633  32.623  25.088  0.0776 -0.2642 -0.0648
81889W        W56877  30.301  28.927  16.515  0.0633 -0.1933 -0.0491
81890W        W56878   1.113  15.709  22.079 -0.0121 -0.0167  0.1275
81891W        W56879  16.160   3.646   4.524  0.1190  0.2472 -0.0763
81892W        W56880  16.707  31.914  21.520  0.2548  0.0003  0.0418
81893W        W56881  15.176  18.214  24.503 -0.0765  0.1311  0.1264
81894W        W56882  33.142  28.281  25.685  0.0022 -0.0838 -0.1068
81895W        W56883   4.249   6.552   0.414 -0.0262  0.0203  0.1452
81896W        W56884  19.562  14.436   5.168  0.1511 -0.0864  0.1526
81897W        W56885  25.333   8.110   2.596 -0.4009 -0.3013  0.1724
81898W        W56886  21.839   7.400  23.109 -0.3331 -0.0857 -0.0103
81899W        W56887   2.549  30.644  23.995 -0.2697  0.0187  0.0584
81900W        W56888  14.972   5.936   1.496  0.0365  0.1582  0.1670
81901W        W56889  23.724  24.910  22.034 -0.0256 -0.0497  0.3925
81902W        W56890   6.282  26.553   8.306  0.1779  0.3334 -0.0108
81903W        W56891  20.672  31.065   6.356  0.3987  0.1423  0.0860
81904W        W56892   1.013   6.288  25.708  0.1925 -0.1125  0.1205
81905W        W56893  22.730   6.668   2.748 -0.2972 -0.0179  0.1280
81906W        W56894   1.672   0.120   3.287  0.2587 -0.2520 -0.2905
81907W        W56895   7.712   2.885  10.134 -0.3289  0.2086  0.1008
81908W        W56896  12.931  28.822  23.481 -0.2671 -0.2121 -0.0752
81909W        W56897   8.037   1.853  26.122  0.1653  0.0880 -0.2503
81910W        W56898  16.868  11.779  22.441 -0.5203 -0.1753  0.0126
81911W        W56899  20.562  21.689   8.220  0.1168  0.2246 -0.1869
81912W        W56900  12.991  25.335   1.350  0.1124 -0.0258 -0.0713
81913W        W56901  16.897   2.965   4.225 -0.0809 -0.0101  0.0909
81914W        W56902  27.556   2.745  14.022  0.0171  0.2526 -0.3157
81915W        W56903   4.004  35.025  25.460 -0.1473  0.0825 -0.1196
81916W        W56904  25.283  13.981  14.676 -0.3085 -0.0071  0.0607
81917W        W56905   1.519   6.799   1.847  0.0662  0.2120  0.0144
81918W        W56906  20.148  33.046  14.955 -0.1004 -0.0489 -0.0215
81919W        W56907  21.064   5.657  24.549 -0.0960 -0.3196  0.2491
81920W        W56908  11.203   0.715  24.822  0.1576  0.1277  0.0379
81921W        W56909  24.278  27.483   3.340  0.1543  0.0301 -0.0059
81922W        W56910   6.469  20.029   1.449 -0.2188  0.0236 -0.0027
81923W        W56911  19.397  17.568  18.338 -0.1201 -0.1348  0.3241
81924W        W56912   3.811  11.788  15.521 -0.2410  0.3162 -0.0183
81925W        W56913  18.729   0.716   1.264 -0.1674 -0.0687  0.0742
81926W        W56914  16.910   9.848   2.446  0.0922 -0.0158  0.0978
81927W        W56915  24.305  21.794  23.432  0.2195 -0.0247  0.4246
81928W        W56916  24.918  30.861  11.180 -0.2831  0.1548 -0.1548
81929W        W56917   7.355   3.357  11.029 -0.0504 -0.1051  0.0493
81930W        W56918  27.647  10.796  11.222  0.0606 -0.2081 -0.3338
81931W        W56919  23.773  16.329  23.307 -0.3755  0.0327 -0.1306
81932W        W56920   4.827  35.331  20.816 -0.1014  0.2254  0.0311
81933W        W56921   7.872  15.690   4.321 -0.2148 -0.2958 -0.2029
81934W        W56922   3.850   1.128   8.122  0.1986  0.1011 -0.2257
81935W        W56923  31.866  11.858  10.745 -0.0597 -0.2026 -0.2401
81936W        W56924  14.014  24.212   8.125 -0.0406  0.2108 -0.1788
81937W        W56925   3.368  23.853  22.975  0.0279 -0.0862 -0.1495
81938W        W56926   0.036   3.227  26.183  0.0551  0.0720 -0.0964
81939W        W56927  18.108  12.624  10.256 -0.1577  0.3235 -0.3867
81940W        W56928  31.528  20.766  25.645 -0.1694  0.1938 -0.2522
81941W        W56929   6.434  25.332  12.327  0.0104 -0.1402 -0.2173
81942W        W56930  30.159  17.596  22.131  0.1680  0.0230  0.3300
81943W        W56931  11.884   7.594  25.831 -0.0351 -0.3140  0.1098
81944W        W56932  35.089  19.521  20.802 -0.1820 -0.1577  0.0463
81945W        W56933   0.170  20.410  12.946 -0.0865  0.1396  0.0832
81946W        W56934   9.593   1.615   1.016  0.0175  0.5063 -0.0576
81947W        W56935  29.293  24.825  11.122 -0.1481 -0.0386  0.2076
81948W        W56936  29.417  23.823  15.624  0.1073 -0.1652  0.0705
81949W        W56937  19.476  24.876   1.004 -0.0445  0.3186  0.0586
81950W        W56938  10.674  34.271  12.816  0.1831 -0.5657  0.1987
81951W        W56939  33.133  23.704  10.404  0.0631  0.0640 -0.1332
81952W        W56940   6.680  18.620   2.721 -0.1718 -0.3396  0.0239
81953W        W56941   5.270   5.029  17.667 -0.0432 -0.1088 -0.0549
81954W        W56942  18.607   7.613   6.150  0.1138 -0.2089  0.0919
81955W        W56943   8.560   7.852  23.258 -0.1615  0.0107  0.0046
81956W        W56944  19.022  17.631  24.446 -0.2320 -0.2387 -0.2572
81957W        W56945  29.889   3.962   0.817 -0.1363 -0.3254  0.3245
81958W        W56946   8.040  18.787  25.055 -0.0665 -0.3463  0.0534
81959W        W56947  26.694  16.893  18.569  0.1077 -0.0632  0.0777
81960W        W56948  25.965  10.301  25.412  0.2499  0.2860  0.0800
81961W        W56949  21.568   7.953  19.741  0.2630 -0.3037 -0.0440
81962W        W56950  33.720   3.392  15.256 -0.0662 -0.0061 -0.0520
81963W        W56951  29.376  10.629  14.596 -0.3729  0.2629 -0.0308
81964W        W56952  33.676   5.798   3.514  0.0524  0.2287 -0.1036
81965W        W56953   9.520   3.904  22.340 -0.1696 -0.1889  0.0295
81966W        W56954  30.815   7.922  16.991 -0.1737 -0.0748 -0.1133
81967W        W56955  20.848   7.464   4.387 -0.0943  0.1798 -0.1675
81968W        W56956  21.782   7.172  18.495 -0.2792 -0.0269 -0.0615
81969W        W56957  33.646   2.983  17.704  0.0122  0.0043  0.0723
81970W        W56958  15.793  24.655   6.786 -0.0561  0.2080 -0.1168
81971W        W56959  35.069   0.360   3.477  0.0091 -0.0308  0.0267
81972W        W56960  23.070  16.467  18.542  0.1860 -0.0924 -0.0283
81973W        W56961  34.420   7.154  17.375 -0.1575  0.3229  0.0140
81974W        W56962  32.703  28.437  14.225  0.1404 -0.0956 -0.2772
81975W        W56963   8.203  33.721   0.876 -0.0963  0.2750 -0.1364
81976W        W56964   5.886  14.600   1.120  0.1345  0.1497  0.0776
81977W        W56965  30.340   1.428  16.330 -0.1050  0.0650 -0.0039
81978W        W56966  23.327   8.565   2.098  0.0400 -0.1018  0.0421
81979W        W56967  27.855  27.487  21.559 -0.0896 -0.1571  0.1175
81980W        W56968   3.185  35.117   9.390  0.3457  0.0750  0.0964
81981W        W56969  30.996   2.420  23.945  0.1865  0.2016  0.2781
81982W        W56970  25.320  20.042  26.194 -0.2394  0.1132  0.1871
81983W        W56971  23.485  21.523  20.648  0.0730 -0.2221 -0.0401
81984W        W56972  25.162   8.833  20.738 -0.0158 -0.0279 -0.2542
81985W        W56973  13.114  22.648  10.817 -0.2078  0.0328 -0.3527
81986W        W56974  31.132   6.172  12.502 -0.0168 -0.0070 -0.5555
81987W        W56975   0.363  32.065  23.682 -0.2214 -0.0663  0.1736
81988W        W56976  32.348   3.288  22.423 -0.0311 -0.1618 -0.0770
81989W        W56977  20.588  15.437   5.905 -0.1231 -0.4959  0.1781
81990W        W56978   3.923   1.135  19.362  0.1983  0.2189 -0.0574
81991W        W56979  34.648   6.458  24.744  0.0176  0.1330 -0.1214
81992W        W56980   4.666   9.871   7.041 -0.3657 -0.0657  0.2714
81993W        W56981   8.563  12.262   3.762 -0.3565 -0.0441 -0.3830
81994W        W56982  28.982  22.292  13.030  0.0641 -0.0037  0.0315
81995W        W56983   0.010  27.442  22.048 -0.2320 -0.2905  0.1191
81996W        W56984  15.507  12.875  23.610 -0.1474 -0.0724  0.3569
81997W        W56985  31.492  19.828  20.448 -0.2261 -0.2796 -0.4211
81998W        W56986  30.892  17.582  23.364  0.2868 -0.1702 -0.2243
81999W        W56987   7.256  32.719   4.151 -0.1159 -0.2913 -0.6049
82000W        W56988  29.352  34.031  15.200  0.1757 -0.1161 -0.1012
82001W        W56989  16.302  20.112   6.492 -0.1756 -0.0654 -0.1233
82002W        W56990  31.968  31.352   6.299  0.2916 -0.2312 -0.5554
82003W        W56991  11.334  21.012  12.080 -0.1318  0.1749 -0.3584
82004W        W56992   1.928  31.726  17.668  0.0998  0.2478  0.0793
82005W        W56993  28.950  13.925  13.262 -0.1954 -0.1549 -0.2662
82006W        W56994  21.191  33.910   3.261 -0.3944 -0.0722  0.2297
82007W        W56995  32.167  20.309   4.959  0.0041  0.0413  0.2054
82008W        W56996   8.657  24.181  15.032  0.2728 -0.2047 -0.1303
82009W        W56997  28.956  24.093   8.884 -0.0868 -0.4003 -0.2641
82010W        W56998   0.528  13.668  11.301  0.1965  0.1929  0.0334
82011W        W56999  23.981  29.651  15.508  0.1167 -0.3159  0.4198
82012W        W57000  27.313  21.668   8.071  0.0810 -0.3239 -0.0559
82013W        W57001  27.051   9.283  12.278  0.3261  0.0056 -0.0201
82014W        W57002  23.972   9.233  15.057 -0.1732 -0.0886 -0.5161
82015W        W57003  15.714  22.366  10.066 -0.0784  0.1041  0.1667
82016W        W57004  28.011  20.546  19.543 -0.2502 -0.0507 -0.4046
82017W        W57005  10.880  21.116   6.376  0.0145 -0.0455  0.1167
82018W        W57006  30.545  27.280  13.389 -0.1207 -0.3041 -0.3263
82019W        W57007   9.664  22.627  14.793 -0.0425 -0.0081  0.1247
82020W        W57008   8.866   9.565  22.532  0.1827 -0.1886 -0.3913
82021W        W57009  22.411   8.302   4.629 -0.1608 -0.0337 -0.0222
82022W        W57010   7.672  10.490   5.154  0.1093  0.0892 -0.3662
82023W        W57011  11.278  33.079  25.347  0.0360 -0.1866 -0.0930
82024W        W57012  21.588  10.641  15.590 -0.0442  0.3932  0.1425
82025W        W57013   4.881   9.761   5.550 -0.0037  0.2126 -0.1016
82026W        W57014   7.636  19.650   0.843  0.2610  0.2471 -0.1761
82027W        W57015  12.044  27.686  25.530  0.0106 -0.0832  0.1526
82028W        W57016   1.189   0.309  17.244  0.0898  0.0986 -0.2353
82029W        W57017  28.806  31.264  18.843  0.1499  0.2407 -0.1223
82030W        W57018  11.375  33.838  21.722 -0.0070  0.3753  0.4101
82031W        W57019  16.373  14.092   9.134 -0.0329  0.1120  0.1017
82032W        W57020   9.117  26.911  10.684 -0.3435  0.0015  0.0669
82033W        W57021  27.439   6.166   1.838 -0.2510 -0.1270 -0.1941
82034W        W57022  28.940  29.468  16.862 -0.0356  0.1856 -0.0088
82035W        W57023  33.316  24.641  22.280  0.3421 -0.2680  0.3782
82036W        W57024  26.494  28.248  11.304  0.0803  0.1842  0.1229
82037W        W57025  26.727  34.566  23.690  0.2065  0.1084  0.0261
82038W        W57026   3.105  30.850  24.954  0.0417 -0.2087  0.0136
82039W        W57027  35.251  31.208   4.860  0.1842  0.0541  0.1908
82040W        W57028  12.628  20.204  22.478  0.0070  0.1586  0.2709
82041W        W57029   1.219  16.990   2.273  0.0842  0.1165  0.0952
82042W        W57030   9.692  23.430   5.382 -0.0216  0.2168 -0.2787
82043W        W57031  28.187  28.162  19.324 -0.0270 -0.0752 -0.0956
82044W        W57032   6.877   9.816   6.322 -0.0913  0.1005 -0.1924
82045W        W57033  34.674  20.867  15.215 -0.0112  0.2046  0.0551
82046W        W57034  14.576   3.387   1.223  0.1400 -0.4706 -0.3158
82047W        W57035  10.975  11.829   8.423  0.4491 -0.2523  0.1642
82048W        W57036   6.773  23.040  10.748 -0.1455  0.2007  0.2827
82049W        W57037  32.934  10.043  10.419  0.2276 -0.1599  0.2064
82050W        W57038  27.649   6.179  11.919 -0.0253 -0.0621 -0.1193
82051W        W57039  11.419  18.803   3.061  0.0397  0.0837 -0.3430
82052W        W57040  11.227  30.080  25.481 -0.0759  0.1045 -0.0637
82053W        W57041  34.791  33.683  18.350  0.0123  0.1315  0.1085
82054W        W57042  30.126   5.026  19.931  0.1626 -0.1992 -0.0547
82055W        W57043   1.692  15.732  22.878  0.0940 -0.3683  0.4194
82056W        W57044  32.938   9.974  16.499 -0.0952 -0.3027  0.1338
82057W        W57045  11.362  26.603   2.086 -0.1385  0.0767 -0.0991
82058W        W57046   8.631  18.800  19.808 -0.1195 -0.2100  0.2895
82059W        W57047   7.342   2.477  24.954  0.1917 -0.1147  0.0609
82060W        W57048  19.437  15.561  19.176 -0.1883 -0.2336  0.0016
82061W        W57049  30.789  21.278  19.086  0.1229  0.0936  0.0654
82062W        W57050   8.835  24.625  15.209 -0.1299 -0.1967 -0.0936
82063W        W57051  32.949  11.989  16.763 -0.1230 -0.4343 -0.0763
82064W        W57052  30.980  34.760  12.171 -0.3302 -0.0511  0.1115
82065W        W57053  14.232  26.837  13.792  0.0881  0.0780 -0.0113
82066W        W57054  12.501  28.265  10.927  0.1978 -0.1063  0.2110
82067W        W57055  31.815  28.669  16.230  0.4492 -0.0110 -0.0967
82068W        W57056  28.214  26.808  17.939 -0.0986 -0.0691  0.0895
82069W        W57057  11.777  11.235   4.535 -0.0458 -0.1449  0.1618
82070W        W57058  28.811  33.722  26.156  0.2246  0.0727 -0.2129
82071W        W57059   2.685   7.193  26.193 -0.1642  0.2110 -0.1235
82072W        W57060  15.833   9.399   5.555 -0.4738  0.4889 -0.2227
82073W        W57061  24.596  15.477  26.095  0.2870  0.0283  0.0529
82074W        W57062   6.599  35.349   2.699  0.0924  0.1583  0.1359
82075W        W57063  23.119   9.723  19.364  0.2173  0.1904  0.1364
82076W        W57064   1.829  30.148   4.177  0.0397 -0.2294 -0.1558
82077W        W57065  25.164  34.559  13.158  0.0901  0.3782 -0.1241
82078W        W57066  28.062  10.872  19.346 -0.0604  0.1504  0.2504
82079W        W57067  17.395  24.931   8.348  0.1813 -0.1383 -0.2265
82080W        W57068  17.086  30.160   9.587 -0.1092 -0.4175  0.2237
82081W        W57069  12.084   9.363  25.642  0.0202  0.0458 -0.0321
82082W        W57070  16.146   7.862  25.102 -0.0193  0.2436  0.0133
82083W        W57071  25.560  18.739  15.081 -0.1067 -0.0566 -0.0494
82084W        W57072  32.038   1.951  16.145 -0.2373  0.0459 -0.0019
82085W        W57073  17.637  19.409   0.038  0.0106 -0.0674 -0.0218
82086W        W57074  21.148   7.239   3.477 -0.0024  0.1232 -0.2980
82087W        W57075  24.823  29.454   1.816  0.0719 -0.1203  0.0621
82088W        W57076  34.673   2.008  15.202  0.1889 -0.2525  0.1020
82089W        W57077  30.895  22.477  25.417  0.0834 -0.0594  0.0562
82090W        W57078  21.395   1.762   5.952 -0.0090 -0.2296 -0.1414
82091W        W57079  16.944  16.905   8.862 -0.0285 -0.2934  0.3299
82092W        W57080  15.245  21.205  15.423 -0.1024  0.2630  0.1681
82093W        W57081  28.453  12.518  12.790 -0.2924  0.0397 -0.0194
82094W        W57082   0.838   7.295  14.317 -0.1176 -0.0235  0.1718
82095W        W57083  25.608  25.840  17.931  0.0500  0.2405 -0.0576
82096W        W57084  18.523   5.919  23.610  0.1231 -0.0747  0.1072
82097W        W57085   6.430  34.451  25.800  0.1633 -0.0632  0.0420
82098W        W57086   6.670   2.531   4.646  0.0836 -0.0385 -0.3221
82099W        W57087  24.167  33.386  21.788  0.0484  0.1356 -0.0665
82100W        W57088  23.251  22.699   0.066 -0.0300  0.1208  0.3745
82101W        W57089  31.170  24.784  23.323 -0.0262 -0.0242 -0.1130
82102W        W57090  22.954  30.691  21.009 -0.2006  0.2168 -0.1673
82103W        W57091  14.289  11.309   4.439 -0.1728  0.1014 -0.2071
82104W        W57092  15.530  19.666  24.488 -0.3263  0.0221 -0.1529
82105W        W57093  11.091   7.128   3.057 -0.0220  0.0363 -0.2624
82106W        W57094  19.691   6.780   1.659 -0.2225  0.2755 -0.2637
82107W        W57095  30.537  12.663  25.624 -0.0957  0.1938  0.2933
82108W        W57096   8.241   5.622   3.456  0.0708 -0.3157  0.0776
82109W        W57097   2.536   3.184   4.316 -0.0863  0.0126 -0.0006
82110W        W57098  23.973   1.447  23.295  0.1488 -0.2258  0.0304
82111W        W57099   5.970  30.191   8.922  0.3526 -0.1152 -0.0049
82112W        W57100   1.145  17.093  11.975 -0.2648 -0.0183  0.1347
82113W        W57101  26.799  18.904   9.578 -0.1217  0.0408 -0.0279
82114W        W57102   9.805  23.859  22.481 -0.2440  0.0047  0.0927
82115W        W57103  20.538  13.959  23.231 -0.2963  0.1335 -0.1499
82116W        W57104  25.181  24.530  20.301  0.1609  0.1155 -0.0370
82117W        W57105  35.284  11.387   2.625  0.0425 -0.2564 -0.1613
82118W        W57106  21.169  35.329  19.067 -0.1161 -0.1390  0.0653
82119W        W57107   0.582  14.873   0.570 -0.1056  0.0484 -0.0944
82120W        W57108   1.823   6.257  15.427  0.0095  0.0445  0.1445
82121W        W57109  33.371  19.327   9.696 -0.2183  0.0891  0.0356
82122W        W57110   7.072  12.233  20.315  0.2900 -0.5444 -0.1983
82123W        W57111  26.893  14.565  15.857  0.1270 -0.2623 -0.2101
82124W        W57112  11.384  28.585  24.847  0.1860 -0.2671 -0.1880
82125W        W57113  31.779  16.642  24.163  0.0019  0.3319 -0.3925
82126W        W57114  27.419  19.692  20.368  0.1462 -0.0325  0.0932
82127W        W57115   8.186  14.299  13.303  0.6061 -0.1075  0.0045
82128W        W57116  12.377  19.931  10.025  0.1548 -0.1048  0.0436
82129W        W57117  30.703   6.476   1.325 -0.0291  0.0263  0.3611
82130W        W57118   6.158  34.997   5.853 -0.1739  0.2020 -0.1386
82131W        W57119  29.469   7.526  22.521  0.2514 -0.0190  0.0860
82132W        W57120   6.738   0.211  13.085  0.1538  0.2268 -0.1744
82133W        W57121  25.288  20.152  16.236 -0.1941 -0.0274  0.3106
82134W        W57122  34.409  33.335  21.477  0.1825  0.1409  0.1661
82135W        W57123  31.165   3.824  26.211 -0.0046 -0.1560 -0.0768
82136W        W57124  11.486  27.957  14.642 -0.3291  0.0735 -0.1397
82137W        W57125  15.453   0.537   8.975 -0.2244 -0.0105 -0.1709
82138W        W57126  21.927  16.750  25.193  0.3541 -0.1688  0.0432
82139W        W57127   3.587   2.373  18.129 -0.0234  0.0450 -0.1478
82140W        W57128  10.044   2.314  12.188 -0.2846 -0.0790  0.0286
82141W        W57129  35.143  17.831   1.471 -0.1180  0.0640  0.2395
82142W        W57130  24.570  24.197  25.062 -0.0147  0.1710 -0.2590
82143W        W57131  28.856   3.245  20.110 -0.5007 -0.2473  0.3573
82144W        W57132  16.122  19.891  22.406 -0.3087  0.2254 -0.0212
82145W        W57133   8.772  23.889   5.489  0.2312 -0.1874  0.0381
82146W        W57134  32.434  26.409  20.389  0.0195  0.1109  0.1498
82147W        W57135  31.570  20.645  14.505 -0.1143 -0.1629 -0.1347
82148W        W57136   9.475   1.101  23.983 -0.3494 -0.1050 -0.0445
82149W        W57137   5.718   6.674   6.607  0.1300  0.3614  0.3001
82150W        W57138  14.333  10.250  21.574  0.0127 -0.1178  0.0969
82151W        W57139  10.376  24.994  10.589 -0.2098  0.0105  0.1404
82152W        W57140  22.503  15.764  22.295  0.3005 -0.1921 -0.0794
82153W        W57141  29.442  32.327  12.660  0.2736 -0.1924 -0.2852
82154W        W57142   2.631  10.677  17.998 -0.1107 -0.2916  0.0095
82155W        W57143   6.676  11.454  24.592  0.1074 -0.1962 -0.0230
82156W        W57144  23.209  22.733  20.042 -0.0540 -0.1155  0.1047
82157W        W57145  19.239  33.591   4.059 -0.1381  0.1088  0.4821
82158W        W57146  12.673  14.927   1.598  0.1418 -0.0791 -0.1032
82159W        W57147   3.802  32.553   3.990 -0.0941 -0.0224  0.3026
82160W        W57148  32.572   2.853  22.509  0.1396  0.1124  0.0021
82161W        W57149  30.561  23.886  11.336  0.0327  0.3482  0.5233
82162W        W57150   8.161   8.036   8.431  0.1048  0.2700  0.0970
82163W        W57151  21.077  31.818  21.040  0.0880 -0.2434  0.2397
82164W        W57152   0.634  21.986  11.512  0.1172  0.1878  0.0530
82165W        W57153  23.456   9.735  18.405  0.4021  0.0926 -0.4306
82166W        W57154  14.026  15.903  20.532  0.1885  0.1397  0.3319
82167W        W57155  13.122  31.897   0.700 -0.2852  0.1558  0.4474
82168W        W57156  33.626   8.154  18.107 -0.2369  0.1159  0.0025
82169W        W57157  30.835  19.135  10.178 -0.1619 -0.2896  0.1634
82170W        W57158  10.176   7.668  19.233 -0.1332  0.0548 -0.2205
82171W        W57159   4.221  29.895   6.878  0.0971  0.1616  0.0816
82172W        W57160  31.933   6.368  23.620 -0.0981 -0.0829 -0.0200
82173W        W57161  11.506   8.185   2.814  0.1325 -0.1529 -0.1234
82174W        W57162  27.078   4.529  23.800  0.1188  0.1652  0.0300
82175W        W57163  34.981  34.970   3.843  0.1538 -0.0528 -0.1056
82176W        W57164   9.025  29.316   6.011  0.1245 -0.1359  0.2200
82177W        W57165  34.620  16.448  10.669 -0.2382 -0.0864 -0.0408
82178W        W57166  31.861   6.311  14.501 -0.2055 -0.1925  0.3772
82179W        W57167  18.767  35.159  21.096 -0.1129 -0.2661 -0.0428
82180W        W57168  10.719   2.552  23.499 -0.0177  0.0618 -0.1321
82181W        W57169  24.511  32.258  24.704  0.0288  0.0207 -0.1144
82182W        W57170   8.678  13.515  10.907 -0.3861 -0.0262 -0.1322
82183W        W57171  33.593  11.731   9.578 -0.0713 -0.0912 -0.2057
82184W        W57172  30.629  31.153  16.604 -0.0259  0.0004 -0.0286
82185W        W57173  34.798  16.609  18.997  0.0872 -0.1577  0.3059
82186W        W57174  19.450  17.358  24.559  0.0465 -0.3729  0.0698
82187W        W57175   8.922  14.166  20.431  0.3121  0.5588  0.1245
82188W        W57176  31.355  10.096  24.871  0.0724  0.0885 -0.1184
82189W        W57177  31.022  22.868  23.230  0.0131 -0.0584  0.0336
82190W        W57178   4.427  35.270   3.185  0.1232  0.0856  0.0627
82191W        W57179  23.507  20.659  17.249 -0.2700  0.1779 -0.2916
82192W        W57180  20.889   5.262   7.508  0.0079 -0.0297 -0.1241
82193W        W57181  10.967  12.388  11.251 -0.0230 -0.1005 -0.1474
82194W        W57182  33.222   9.963  16.907  0.1629 -0.2437 -0.2331
82195W        W57183  22.593  23.516  19.116 -0.1050 -0.1429 -0.0702
82196W        W57184  28.940  33.217   0.591 -0.2135  0.0070  0.1184
82197W        W57185  16.107  32.196  19.545  0.0023 -0.1779  0.2633
82198W        W57186  27.684   9.920   0.950  0.3329  0.0616  0.1316
82199W        W57187  35.353  26.533  13.963  0.0804  0.0136 -0.0035
82200W        W57188  35.028   1.336  23.245  0.5943  0.1080  0.0986
82201W        W57189  15.850  26.403   8.670  0.0992  0.0518 -0.2947
82202W        W57190  20.199   0.521  19.285  0.2385  0.5294  0.0845
82203W        W57191   6.205  12.660  23.425  0.1406 -0.1642 -0.0845
82204W        W57192   5.273  29.509   7.794 -0.0468  0.0120  0.0855
82205W        W57193  12.157  31.698   5.724  0.1338 -0.4454  0.0497
82206W        W57194  30.919  29.037  11.295  0.5000  0.2317  0.1032
82207W        W57195  28.289  21.269  16.903 -0.2147 -0.0192 -0.1031
82208W        W57196  27.288   5.917  16.644  0.1909 -0.4248  0.3400
82209W        W57197  12.105   1.559  12.747 -0.2567 -0.0661  0.1977
82210W        W57198  23.233   4.946  14.453 -0.0193 -0.2041 -0.0322
82211W        W57199  11.312  17.342   2.205  0.1203 -0.1116 -0.0568
82212W        W57200  12.631   8.840   1.830 -0.0379  0.1494 -0.1322
82213W        W57201  27.894   2.659  12.594  0.0478 -0.1231  0.3164
82214W        W57202  23.396  18.494  18.695 -0.0163 -0.0395 -0.0061
82215W        W57203  26.198  34.075   1.647 -0.1769  0.0411 -0.1099
82216W        W57204   4.525   1.138  24.614  0.4360 -0.2338 -0.0052
82217W        W57205   1.837  30.318   9.281 -0.2683  0.0420 -0.3251
82218W        W57206   1.852  30.797  10.012 -0.0766 -0.1810  0.2012
82219W        W57207  21.964  28.126  22.143  0.0841  0.0421 -0.1715
82220W        W57208   6.689  16.763   2.744  0.0018  0.2684  0.3026
82221W        W57209   3.089   5.507   0.726 -0.3605 -0.3239 -0.2068
82222W        W57210  23.275  23.766  25.385  0.1592  0.1730  0.0188
82223W        W57211   4.740  27.468  22.204 -0.1558 -0.1062 -0.2940
82224W        W57212  28.520   1.206  13.864  0.4709 -0.1255  0.0365
82225W        W57213  23.646   4.579  18.981  0.0468  0.4647 -0.0618
82226W        W57214  19.266   3.612   0.073 -0.2943 -0.0776  0.0993
82227W        W57215   3.102   2.256   1.637 -0.0828 -0.2143  0.1574
82228W        W57216  20.469  10.517  26.025 -0.2816 -0.0701 -0.0942
82229W        W57217  30.950   2.724   5.199 -0.0337  0.2863 -0.1115
82230W        W57218  14.138  33.464   3.457 -0.0659  0.2117  0.2394
82231W        W57219  16.202  32.129  20.718  0.2497  0.2387 -0.0197
82232W        W57220  11.693   0.558  23.047 -0.0313 -0.0521  0.0813
82233W        W57221  28.816   0.578  15.953  0.2591 -0.1958 -0.1828
82234W        W57222  27.397  16.974  20.724  0.0070 -0.0992 -0.1075
82235W        W57223   2.512  29.888  21.611  0.1303 -0.1523 -0.0751
82236W        W57224  26.923   6.944  24.118  0.2597 -0.4093 -0.1869
82237W        W57225  10.087  10.745   4.838  0.1818 -0.0549 -0.0721
82238W        W57226  32.437  32.877  25.766  0.2421 -0.0897  0.1036
82239W        W57227  11.900   9.911  21.120  0.0406  0.2938 -0.1647
82240W        W57228   2.807   0.810  18.390  0.2777  0.1773 -0.3036
82241W        W57229  14.931  13.312  19.714  0.0733 -0.2213 -0.0089
82242W        W57230   1.208  29.499  17.365 -0.1649 -0.2714  0.1876
82243W        W57231  25.795   0.392  21.272 -0.0728 -0.0166  0.1752
82244W        W57232  16.216  26.889  10.729 -0.1885  0.1452 -0.0103
82245W        W57233  11.078   2.073   1.997 -0.1395  0.2855 -0.0541
82246W        W57234  20.388   6.361  24.354  0.1271  0.1668  0.1544
82247W        W57235  32.912  29.218   3.612 -0.2739 -0.0200 -0.0451
82248W        W57236  24.091  18.169  14.026  0.2808 -0.6450  0.1978
82249W        W57237  27.111  18.561  10.581  0.0984  0.2851  0.3025
82250W        W57238   4.352  18.288   4.094  0.0687 -0.1302  0.3452
82251W        W57239  13.910  17.526  14.591 -0.2382 -0.0125  0.1308
82252W        W57240  27.458   2.399  12.979 -0.1254  0.3116 -0.2812
82253W        W57241   7.612  31.352  24.899  0.2106 -0.0028  0.0478
82254W        W57242  32.239  12.210   8.053  0.1288  0.4249  0.3173
82255W        W57243  27.651  30.574  15.119 -0.3016 -0.0278 -0.1193
82256W        W57244  14.921  11.529  19.556  0.1026  0.3270 -0.0844
82257W        W57245  31.761  15.730  16.276  0.0212  0.3123 -0.2935
82258W        W57246  29.999   1.399  22.602  0.3902  0.0724  0.1050
82259W        W57247  12.312  27.578  15.828  0.1308 -0.0510 -0.1922
82260W        W57248  28.155   5.699   0.735 -0.2233  0.0267 -0.0882
82261W        W57249   3.758  33.641  22.680  0.3885 -0.0539 -0.1158
82262W        W57250  26.386  10.345   0.782  0.0906  0.1063  0.1833
82263W        W57251  18.363   5.764  21.724  0.1829 -0.2996 -0.1014
82264W        W57252  25.273  23.969  26.113  0.2419 -0.4505  0.1723
82265W        W57253  22.305  21.603   3.567 -0.0284 -0.0378 -0.2370
82266W        W57254  12.812  17.636  12.182 -0.1810 -0.1604  0.1367
82267W        W57255  10.315  20.788   4.215 -0.0808 -0.1817  0.0187
82268W        W57256  15.469  10.167   6.440 -0.0446  0.0503 -0.0494
82269W        W57257  31.723  27.910  15.880 -0.0208 -0.0368 -0.0513
82270W        W57258  14.067  33.192   2.968 -0.1432 -0.2792  0.1212
82271W        W57259  23.760   1.117  25.921  0.1002  0.4408 -0.1078
82272W        W57260  31.462  25.912  22.340  0.1592 -0.1085 -0.0044
82273W        W57261  35.185  24.390  17.132  0.2328 -0.1506  0.0079
82274W        W57262  30.273  18.083  13.607 -0.0376  0.0134  0.0026
82275W        W57263  29.570   0.408  14.835 -0.5905  0.0983 -0.1624
82276W        W57264  24.182  17.499  18.378  0.0034  0.4392  0.2432
82277W        W57265  23.938  32.857  18.213  0.2191 -0.3113 -0.2414
82278W        W57266  26.912   2.942   5.763 -0.1146  0.0150  0.5519
82279W        W57267  23.743  11.490   2.231  0.0585  0.2443 -0.1879
82280W        W57268  23.737   2.181  20.244  0.0613 -0.0885  0.1624
82281W        W57269  35.331   2.696   0.037  0.0184 -0.0805  0.0426
82282W        W57270  12.439  29.078   0.242  0.0582  0.0182 -0.2981
82283W        W57271  30.233  32.147  15.672  0.2137 -0.0690 -0.1364
82284W        W57272   7.839  22.466   3.014  0.1856 -0.2577  0.0235
82285W        W57273  21.082   7.063  25.746 -0.2059  0.2795 -0.0302
82286W        W57274  26.459  30.508   3.681 -0.1407  0.1104 -0.0274
82287W        W57275  12.176  22.595  15.035  0.0051  0.0817  0.1009
82288W        W57276   3.854   1.501   3.205  0.0001 -0.0573 -0.1065
82289W        W57277   8.257  23.352  12.949  0.0343  0.0127  0.2037
82290W        W57278   8.398  20.233  11.830  0.2302  0.0663  0.0052
82291W        W57279  32.204  11.868   1.329 -0.0310  0.2949 -0.0003
82292W        W57280  32.646  19.831   6.914  0.4452  0.0118  0.2250
82293W        W57281  33.874   8.840  12.331  0.0994  0.0188  0.0552
82294W        W57282   9.552  30.350   9.704  0.2429 -0.1789  0.4951
82295W        W57283  22.898  11.987  14.498  0.3452 -0.3123  0.1275
82296W        W57284  19.104   3.894   0.863  0.1867 -0.0778  0.0863
82297W        W57285  15.502  18.674  10.706  0.0009  0.0337 -0.0711
82298W        W57286   8.839  31.979  23.261  0.3592 -0.3065 -0.1725
82299W        W57287  22.044  22.110   3.743  0.1685  0.1574  0.2243
82300W        W57288  21.358  32.665  16.402 -0.0469 -0.0166  0.0817
82301W        W57289  21.280  22.287  21.762  0.0184  0.0945 -0.0358
82302W        W57290  19.524   9.683  21.098  0.2009  0.1866 -0.0242
82303W        W57291  33.345   5.734  22.519  0.0063  0.1183  0.1382
82304W        W57292   5.284  18.524  19.566  0.1241 -0.1858  0.0770
82305W        W57293  28.412  19.834   6.824  0.2871 -0.1960 -0.0174
82306W        W57294   8.990  29.199   4.876  0.1605  0.0125  0.0164
82307W        W57295  31.791  28.764  25.268 -0.1847 -0.4520  0.0680
82308W        W57296  17.607  14.414   4.161 -0.1837  0.2635 -0.2494
82309W        W57297  32.969  25.161  16.374  0.0406  0.0592 -0.2007
82310W        W57298   6.707  27.591   4.747 -0.1739 -0.0620 -0.1375
82311W        W57299   1.310   2.645  15.397 -0.1168 -0.1692 -0.0448
82312W        W57300  23.443   6.319  13.269 -0.1486  0.2537 -0.1027
82313W        W57301  28.646   2.616   0.869  0.1657  0.1754 -0.2177
82314W        W57302  10.785  11.931  19.979 -0.3594  0.0588 -0.1795
82315W        W57303  12.715  30.111   8.334  0.2319  0.3590 -0.3123
82316W        W57304  33.592  30.469   5.578  0.3143  0.0396 -0.2796
82317W        W57305  17.689   0.420  25.209  0.0786 -0.0811 -0.0399
82318W        W57306   6.336   9.566  21.186 -0.1910 -0.0066  0.1897
82319W        W57307  16.053  23.485  24.597 -0.1478  0.0949  0.0228
82320W        W57308  20.842  11.397  26.164 -0.1918  0.1195 -0.0954
82321W        W57309  24.807   0.852  14.563  0.0155  0.1792  0.2820
82322W        W57310   1.384  21.023  25.870 -0.0891  0.0499  0.1932
82323W        W57311  31.671  35.007  25.969  0.0220 -0.0465 -0.1899
82324W        W57312  34.584  21.559  20.837  0.0827  0.1613 -0.0800
82325W        W57313   3.573   3.783  22.005 -0.1846 -0.1822  0.2433
82326W        W57314  26.792  30.626  26.024  0.0181  0.0984  0.1324
82327W        W57315  34.178  28.454  21.994  0.1057  0.1780  0.1183
82328W        W57316  30.620  20.608   5.767  0.1283 -0.2579  0.1573
82329W        W57317  19.509  13.239   6.822  0.1049  0.1444  0.1913
82330W        W57318  34.020  18.911  24.210  0.1924  0.1204  0.3199
82331W        W57319  23.817  33.244  15.704  0.0162 -0.3803  0.4697
82332W        W57320  33.876   3.094   0.564 -0.1909 -0.2348  0.2759
82333W        W57321  13.602   8.136  10.801 -0.0090  0.1652 -0.5390
82334W        W57322  23.297  19.149  14.351 -0.1795  0.0440 -0.2153
82335W        W57323  22.464  29.781  15.027  0.0332 -0.0062  0.0304
82336W        W57324   4.470  12.064   6.130  0.2077 -0.2021 -0.1694
82337W        W57325   4.493  11.992   3.663  0.2783  0.0144 -0.2332
82338W        W57326  26.251  28.627  11.548  0.0404  0.3845 -0.5041
82339W        W57327   5.736   1.152  25.214 -0.1818  0.0076  0.0214
82340W        W57328  31.354  12.717  21.971  0.1291 -0.0364 -0.2218
82341W        W57329  23.999  22.682  17.661 -0.4175 -0.3448 -0.1062
82342W        W57330  12.612  26.001   4.931 -0.1171 -0.1378  0.4813
82343W        W57331  12.303  11.984  19.315 -0.2802 -0.0203 -0.1432
82344W        W57332  12.171  17.071   4.437 -0.0805 -0.1346  0.0586
82345W        W57333  10.606  25.760  13.717 -0.1976 -0.0311 -0.0066
82346W        W57334  18.234   2.410  22.590 -0.0200  0.3249  0.1011
82347W        W57335  29.254   9.221  18.066 -0.0405 -0.1973 -0.2675
82348W        W57336   7.205  21.043   5.507  0.0994 -0.0350 -0.1608
82349W        W57337  11.716  27.192  17.551 -0.1141 -0.1950 -0.3125
82350W        W57338   2.814  28.653  18.569  0.1817  0.0873  0.3041
82351W        W57339  20.441   6.277  19.633 -0.0562 -0.1666 -0.1529
82352W        W57340  34.213  27.742  24.185  0.0859  0.1180  0.1050
82353W        W57341  18.114  25.480  23.576 -0.0733 -0.2776 -0.1866
82354W        W57342   3.289   7.528  18.768  0.1978 -0.0768 -0.3540
82355W        W57343   0.921  34.516  22.511  0.0838  0.0479 -0.1774
82356W        W57344  32.576   3.863   4.560  0.0554 -0.0280 -0.2823
82357W        W57345   6.809   1.459   8.818 -0.0521  0.1479  0.1160
82358W        W57346   9.709  26.344  14.862 -0.1130  0.0007  0.2923
82359W        W57347  30.375  16.871  13.936 -0.0344  0.2896  0.1986
82360W        W57348  16.622  35.317   1.628 -0.1208  0.0014 -0.0209
82361W        W57349  11.217   6.455  13.570 -0.0729 -0.1994 -0.1650
82362W        W57350  33.785   7.882  22.557  0.2859 -0.0009 -0.0995
82363W        W57351   0.115  23.638  18.915 -0.2699 -0.0072 -0.2301
82364W        W57352   4.102  33.983  24.965  0.0871 -0.3316  0.1332
82365W        W57353   9.265  17.936  25.938  0.0192  0.0899 -0.1077
82366W        W57354   8.818  24.711  22.180 -0.3694  0.0673  0.0826
82367W        W57355  27.545  10.977  15.039 -0.0203  0.2614  0.1512
82368W        W57356   1.144  30.336  25.027 -0.2389 -0.0589  0.2492
82369W        W57357   8.643   7.146   5.383  0.1195  0.0541  0.0720
82370W        W57358  32.261  20.731  12.701 -0.0418 -0.1690  0.0815
82371W        W57359  20.999  25.962  19.061  0.1795  0.1230  0.2858
82372W        W57360  29.841  33.896  26.096  0.1944 -0.1979 -0.1249
82373W        W57361  25.824  34.072   2.049 -0.0078 -0.1306  0.0875
82374W        W57362  10.278   3.209   7.059 -0.1354 -0.0238 -0.1081
82375W        W57363  28.764   6.497  18.126 -0.0858  0.2638  0.1958
82376W        W57364   6.415  15.287   1.071  0.0263 -0.2579 -0.0096
82377W        W57365  26.506   2.324  16.083  0.0933  0.0484 -0.0803
82378W        W57366  16.050   0.174  18.756 -0.1541 -0.0876 -0.1581
82379W        W57367   8.728  24.331   5.661 -0.3473  0.0206 -0.1589
82380W        W57368  11.759   3.385   6.145 -0.2406  0.0583 -0.0372
82381W        W57369  27.489  16.855  12.237 -0.0630  0.0309  0.1965
82382W        W57370   1.807   4.774  15.306 -0.1090 -0.3886  0.0941
82383W        W57371  34.343  29.198  22.498  0.1066 -0.2892 -0.0961
82384W        W57372  25.214  25.252  11.719  0.1376 -0.0165 -0.0036
82385W        W57373  26.647   1.756   5.034  0.0381  0.0232  0.1701
82386W        W57374  21.112   4.774  15.784  0.1779  0.0741  0.0422
82387W        W57375  32.552  23.348  14.457  0.1256 -0.2059 -0.1491
82388W        W57376  30.219  28.269  20.968 -0.1246  0.2207 -0.0962
82389W        W57377   2.639  10.775  18.470  0.1336 -0.1299 -0.3898
82390W        W57378   9.564  30.882   1.114  0.1814 -0.0773  0.1933
82391W        W57379  32.335  35.042  19.309  0.1218 -0.3206 -0.2555
82392W        W57380   6.478   7.119  22.615 -0.0207 -0.2140  0.0577
82393W        W57381   4.276  33.704   2.192  0.2454  0.1426 -0.0582
82394W        W57382  29.764  11.777   8.454  0.1934 -0.4627 -0.2297
82395W        W57383  18.736  21.483   0.251 -0.0139 -0.0899  0.1281
82396W        W57384  12.669  10.990  23.901 -0.2386  0.0804 -0.1280
82397W        W57385  23.665  32.773  18.668 -0.2086 -0.2215  0.0972
82398W        W57386   5.775  26.697   4.894 -0.5191 -0.0805 -0.5650
82399W        W57387  26.427   7.298  18.880 -0.3598  0.1188  0.2831
82400W        W57388  28.179  28.867  11.039  0.3304  0.0112  0.1193
82401W        W57389  27.678  25.655   9.978 -0.1414  0.0569  0.1655
82402W        W57390  30.577   6.048  12.457 -0.1629 -0.1928 -0.0418
82403W        W57391  26.361  19.399  25.415 -0.0743  0.0356  0.0875
82404W        W57392  10.172  34.548  12.729 -0.0025  0.0279 -0.1444
82405W        W57393  24.555  26.662   0.319  0.0327 -0.1955  0.0973
82406W        W57394  12.196  27.880  23.053  0.5047  0.0985 -0.1938
82407W        W57395  30.476   8.928  12.461  0.1958 -0.2419  0.2222
82408W        W57396   9.469  33.573  24.056  0.0527 -0.1716 -0.1647
82409W        W57397  14.408  29.376  14.655  0.0597  0.1558  0.1723
82410W        W57398  22.288  13.838   4.195  0.0096 -0.2536  0.3767
82411W        W57399  29.026   6.565  10.548  0.0746  0.0835  0.1752
82412W        W57400  14.002  14.411  12.521  0.1040 -0.1470  0.2166
82413W        W57401  21.701   5.016  24.473 -0.1117 -0.0867  0.1138
82414W        W57402  16.487   4.225  19.294 -0.1134 -0.2639  0.0391
82415W        W57403   0.099   5.371  13.868 -0.4435 -0.1000  0.2630
82416W        W57404  27.196  13.575  16.750 -0.1858 -0.0826  0.1907
82417W        W57405  29.858  17.291  23.472  0.1888  0.1855  0.2311
82418W        W57406   3.372   3.156  19.806  0.0083  0.3497  0.0934
82419W        W57407   3.445  34.364  18.905  0.1095  0.1178  0.2435
82420W        W57408  22.189   7.150  19.939 -0.0391  0.0322 -0.1375
82421W        W57409   6.631  18.572  24.728 -0.1402  0.0330  0.3396
82422W        W57410  15.762  33.056   7.605  0.2001 -0.1154  0.2324
82423W        W57411   5.453  31.773   3.155 -0.2695  0.0785  0.1831
82424W        W57412  33.633  25.303  17.050  0.0870 -0.0185 -0.1229
82425W        W57413  20.899   7.768   2.167  0.1609  0.0947 -0.1780
82426W        W57414  28.459  31.200   5.098 -0.0370 -0.0272 -0.0976
82427W        W57415   0.118  12.821  18.723  0.0266 -0.0408  0.1132
82428W        W57416   6.416  30.736  22.826  0.0358  0.1415  0.1741
82429W        W57417  10.323  30.099  12.630  0.2208  0.0745  0.1209
82430W        W57418  10.698  33.866  22.270  0.1460  0.2528  0.3522
82431W        W57419  22.900  24.929  18.595 -0.0080 -0.1636  0.0553
82432W        W57420  33.096  33.856   6.321 -0.1412  0.1569 -0.0903
82433W        W57421  31.123  18.174  18.597  0.0414 -0.0382  0.0808
82434W        W57422   9.252   4.917   4.950  0.0756  0.0647 -0.1560
82435W        W57423  26.287  11.274  16.654  0.0596  0.2000  0.4674
82436W        W57424  13.539  26.776  16.828  0.2481 -0.0230  0.1494
82437W        W57425  25.097   0.288  18.808  0.2651  0.1032  0.1515
82438W        W57426  32.869   8.429   0.153  0.0493 -0.0479 -0.2396
82439W        W57427   5.496  26.446   4.088 -0.1401 -0.4104  0.0333
82440W        W57428   0.904  23.304  14.489  0.0775 -0.1085  0.2917
82441W        W57429  20.927  14.852  15.517  0.0101  0.3529 -0.3976
82442W        W57430   4.640  27.172   6.461  0.0329  0.0126 -0.0652
82443W        W57431  33.608   0.955   5.696 -0.1880 -0.0590 -0.0403
82444W        W57432   6.417  18.668  24.282  0.1272 -0.1459 -0.0448
82445W        W57433  23.955  20.482  14.148 -0.3315 -0.0492 -0.3158
82446W        W57434  29.462  28.561  18.987 -0.0189 -0.1047  0.3811
82447W        W57435  25.982  15.048  24.735 -0.1671  0.1311 -0.0096
82448W        W57436   9.270   2.537  20.812  0.5087 -0.1080  0.1932
82449W        W57437   9.236  32.633   3.078 -0.0424 -0.1700 -0.0914
82450W        W57438  25.792  25.398  10.230 -0.0141  0.1410  0.2819
82451W        W57439   8.901  10.119  12.691 -0.1684  0.0480 -0.2388
82452W        W57440  33.720   3.549   2.043 -0.0255  0.2327 -0.3627
82453W        W57441   4.108  32.288   6.598 -0.1956  0.0246 -0.0523
82454W        W57442  20.279   9.748   3.019 -0.1199  0.1654 -0.0249
82455W        W57443  17.126  13.966  26.042  0.2060  0.1928 -0.0919
82456W        W57444   7.302  12.070   4.105 -0.2296  0.0347  0.0948
82457W        W57445  28.126  25.078  21.202  0.0845  0.1337 -0.0710
82458W        W57446   8.646  34.526   5.491  0.3920  0.4223 -0.2981
82459W        W57447   4.452   4.979   2.605 -0.3287  0.0488  0.2000
82460W        W57448  23.444  13.726  25.364 -0.0890  0.0423  0.0286
82461W        W57449  17.737   5.063  25.708 -0.2650  0.3009  0.1022
82462W        W57450  31.949  10.075  12.490  0.1948  0.1652  0.2709
82463W        W57451  35.226  31.449  19.699  0.1422  0.1524 -0.1514
82464W        W57452   3.726  30.635   8.276  0.0598  0.0674 -0.0168
82465W        W57453  31.160  15.554  24.077  0.3400 -0.1766 -0.0213
82466W        W57454   3.906  15.976  16.964 -0.1033 -0.1634  0.1382
82467W        W57455  16.647  23.829   2.278 -0.2650 -0.0029 -0.1585
82468W        W57456  30.056  31.508   5.456 -0.0348 -0.1516  0.1452
82469W        W57457   6.373  31.010   5.240  0.0326  0.0333  0.3290
82470W        W57458   0.584  29.885   7.762 -0.0655 -0.0985  0.1160
82471W        W57459  27.845   9.841  16.703 -0.4020  0.0743  0.2520
82472W        W57460  11.376  32.462   1.562  0.2170  0.2169  0.0748
82473W        W57461  29.269  29.595  20.902 -0.1535 -0.4061  0.0464
82474W        W57462   3.304   7.475   3.396  0.0507  0.1365  0.4341
82475W        W57463   5.784  26.048  21.404  0.1872  0.2072 -0.2065
82476W        W57464  31.023  19.414  20.682  0.3190 -0.0446 -0.1269
82477W        W57465   9.110   5.046   1.064 -0.2623  0.1976  0.3544
82478W        W57466  15.456   4.655  24.837  0.0195 -0.4332  0.0040
82479W        W57467  26.899  24.785  25.309  0.0101 -0.0172  0.1244
82480W        W57468  15.268   4.405  13.327  0.0767 -0.1982  0.2198
82481W        W57469  13.421   4.225  23.406  0.0291  0.3902 -0.0879
82482W        W57470  15.363   8.713   2.253  0.0431  0.0708  0.1327
82483W        W57471  14.196  24.892  16.693 -0.0099 -0.0153 -0.1090
82484W        W57472  25.747  30.117  24.577  0.0268  0.3725  0.0437
82485W        W57473   9.988  28.166  24.357  0.2532  0.2045  0.1042
82486W        W57474  28.341  11.705  22.225 -0.1978  0.1216  0.0845
82487W        W57475  11.929  22.730  12.278  0.1060  0.1278 -0.3353
82488W        W57476   5.800  24.460   1.919 -0.2671  0.0360 -0.0901
82489W        W57477  30.835   5.662  16.568 -0.1099  0.0604 -0.0416
82490W        W57478  25.447   3.908   1.734  0.2781  0.2511 -0.0613
82491W        W57479  16.796   2.918   7.091 -0.0970  0.2665  0.1755
82492W        W57480  25.953  26.798  15.264  0.1935  0.0286 -0.3685
82493W        W57481  32.159  19.497   5.800 -0.0771 -0.1390 -0.0743
82494W        W57482   8.692  21.402   0.688 -0.0661  0.0566 -0.4473
82495W        W57483  13.057   0.719  19.133 -0.3766 -0.2654 -0.1751
82496W        W57484  20.503  19.656  21.799 -0.2214 -0.0165 -0.3823
82497W        W57485  20.665  34.961  20.602 -0.0383 -0.1007 -0.0266
82498W        W57486  19.985  32.116  14.716 -0.1160  0.0017  0.0433
82499W        W57487   7.224  35.028  10.593 -0.2444 -0.0102 -0.2114
82500W        W57488  26.618   0.883  11.335  0.1665  0.0347 -0.0726
82501W        W57489   2.023  19.949  19.093  0.0668 -0.1508  0.1041
82502W        W57490  31.602  34.848  18.474  0.1769  0.3270 -0.1914
82503W        W57491   1.094  12.882   1.173 -0.1819 -0.0095 -0.1369
82504W        W57492  17.345   7.304   3.003  0.3485  0.0137 -0.1219
82505W        W57493   7.150  27.139   4.052  0.0609  0.0727  0.0417
82506W        W57494  30.321   0.171  15.726  0.0916  0.1555 -0.0114
82507W        W57495  20.421  14.405   4.206  0.0257 -0.3378  0.0002
82508W        W57496  17.473   2.929   4.427  0.0253 -0.0468  0.1380
82509W        W57497   6.622  21.205  20.349 -0.1957  0.0816  0.3295
82510W        W57498   8.820  10.503  11.316  0.1036 -0.0440 -0.2625
82511W        W57499   7.461   7.207   6.167  0.0784 -0.1236  0.0708
82512W        W57500  12.849  15.714   9.345  0.2602  0.0878 -0.0395
82513W        W57501  11.502  34.554   1.929 -0.0641 -0.0822 -0.3205
82514W        W57502  19.120  33.755   1.917 -0.2990  0.1436 -0.3749
82515W        W57503   5.324  17.066  23.226  0.0063 -0.0231  0.0796
82516W        W57504  25.758   5.319  17.981 -0.2459  0.0495 -0.2635
82517W        W57505  34.542  33.034  24.117  0.3929 -0.0439 -0.0347
82518W        W57506  19.399  11.332  11.118 -0.0714 -0.1116 -0.2212
82519W        W57507  20.885  11.164   2.509  0.3801 -0.2250  0.0166
82520W        W57508   7.402   6.615  21.019  0.0548  0.1724  0.0742
82521W        W57509   1.818   0.979   6.135 -0.0359 -0.3125 -0.1396
82522W        W57510  24.068   0.181  20.499 -0.4064  0.0073 -0.0381
82523W        W57511  25.537   9.389  21.515 -0.0379  0.4865  0.2128
82524W        W57512   0.403  22.363  16.800  0.4113 -0.2766  0.0394
82525W        W57513   0.440   3.461  16.551 -0.1096 -0.2004 -0.0785
82526W        W57514  34.587   1.933   6.119 -0.2118  0.1004  0.2250
82527W        W57515  12.588   3.221  20.464  0.2704 -0.0175 -0.2671
82528W        W57516  22.131  16.439  20.685  0.0797  0.1647  0.6985
82529W        W57517  30.582  22.553  13.709 -0.0968  0.2795  0.1033
82530W        W57518  16.048  23.157  16.080 -0.1025 -0.1055 -0.1312
82531W        W57519  13.234   1.903   4.172  0.4763  0.2632 -0.1242
82532W        W57520  30.601   6.148  17.961 -0.0695  0.1523 -0.2161
82533W        W57521   0.234  34.285  17.115  0.3209 -0.2479  0.0213
82534W        W57522  25.239  33.285  15.563 -0.1652 -0.1864  0.1948
82535W        W57523   4.161  12.339   5.357  0.3644 -0.1571  0.0203
82536W        W57524  28.800  18.758  24.850  0.2842 -0.1488 -0.0519
82537W        W57525   9.249  26.389   9.406  0.2403  0.1822 -0.5980
82538W        W57526   5.424   1.034  10.261  0.1184 -0.2565 -0.0995
82539W        W57527  15.176   3.223   2.479  0.0568 -0.3752 -0.0449
82540W        W57528  25.990  12.941  21.984  0.2698 -0.1280  0.0237
82541W        W57529   0.714  24.608  24.180  0.0347 -0.0500 -0.1794
82542W        W57530  16.585  15.811   4.593 -0.2768 -0.0394 -0.1619
82543W        W57531   3.415  25.638  20.681 -0.0789 -0.1051 -0.1625
82544W        W57532  10.785   6.540   2.494  0.0505 -0.0517  0.3234
82545W        W57533  33.883  16.470  23.273  0.2359  0.3227  0.2592
82546W        W57534  14.211  14.477  10.733  0.1366 -0.2184  0.2143
82547W        W57535  13.407  15.190  13.670 -0.0202 -0.1913 -0.0105
82548W        W57536  16.567  17.206   2.628 -0.1845 -0.0899 -0.6042
82549W        W57537   5.931  32.412  25.976 -0.0774  0.0429 -0.0601
82550W        W57538  13.897   1.076  23.435  0.2728  0.1459  0.0282
82551W        W57539  24.379  33.767   2.600 -0.0099  0.0082  0.0492
82552W        W57540   0.716  17.102   0.145  0.2934  0.2403 -0.0712
82553W        W57541   0.049  26.326  23.953 -0.1558 -0.2166  0.0002
82554W        W57542  30.379  16.922  20.811  0.0669 -0.1311  0.0718
82555W        W57543  29.482   1.930  24.996 -0.2193 -0.0810  0.1473
82556W        W57544  14.159  31.190  11.821 -0.2583 -0.0909  0.1608
82557W        W57545   3.848   9.909  24.514 -0.0272  0.4253 -0.1822
82558W        W57546  12.105  22.498   0.211  0.1875 -0.1202  0.3699
82559W        W57547  13.686   4.806   2.029  0.1320 -0.0577 -0.0395
82560W        W57548  26.184  32.703  25.554 -0.4524 -0.1867 -0.3145
82561W        W57549  22.508  14.095  17.114  0.2791  0.0865  0.1623
82562W        W57550  33.080  10.166   0.969  0.0750  0.2508 -0.0489
82563W        W57551  35.114   5.581   0.065 -0.2001  0.0162 -0.0047
82564W        W57552  13.736   1.785   0.159  0.1642 -0.1772 -0.0483
82565W        W57553  18.452  15.455  19.364 -0.1424  0.0838  0.3336
82566W        W57554  11.865   5.176  12.564 -0.1547  0.2384  0.0969
82567W        W57555  16.998   4.620  20.717  0.0297 -0.1909 -0.1656
82568W        W57556  28.421   7.375  22.063  0.1460  0.0360  0.0987
82569W        W57557  34.260  17.911  18.733 -0.0494  0.2963  0.0711
82570W        W57558  28.953  12.592  21.262 -0.1694 -0.0657  0.0253
82571W        W57559  34.856  32.166   0.334  0.0803 -0.3630 -0.5580
82572W        W57560  34.942  16.786   0.123 -0.2330  0.1689  0.0900
82573W        W57561  11.483  10.411  22.230  0.1479 -0.2829  0.1189
82574W        W57562  26.594   4.175  19.843  0.2294  0.0454  0.0340
82575W        W57563  27.133   2.667  21.114  0.1892  0.2338  0.0434
82576W        W57564   4.821  26.567   5.519 -0.0477  0.1194 -0.0242
82577W        W57565  14.237  16.904  20.490 -0.0022 -0.0389  0.0433
82578W        W57566  23.431  25.472  11.478 -0.5697  0.1575  0.0614
82579W        W57567   3.212  22.098  20.666 -0.1784 -0.1223 -0.0167
82580W        W57568  23.995  11.502  11.525  0.2345 -0.2283  0.1500
82581W        W57569   4.355  29.031  22.564  0.1132  0.2068  0.1024
82582W        W57570   9.774  28.314  11.723 -0.3831 -0.0325 -0.3114
82583W        W57571  29.584  18.097  20.903  0.3147  0.1447 -0.2278
82584W        W57572  30.511  14.852  10.334  0.1654  0.1900 -0.1091
82585W        W57573  28.886  19.892  11.217 -0.1709 -0.2569  0.0107
82586W        W57574  31.199  29.806  16.047  0.1022 -0.3234  0.2095
82587W        W57575  34.051  11.557  22.136 -0.2950 -0.3360 -0.1035
82588W        W57576   9.380  19.592  24.869  0.1327  0.0985 -0.1209
82589W        W57577  18.957  32.476   6.625 -0.0446  0.1399  0.1133
82590W        W57578   8.319   8.572   8.471  0.1455 -0.3629 -0.1716
82591W        W57579  19.647   3.100  23.743  0.2605 -0.0757  0.0125
82592W        W57580  15.693  33.047   5.612 -0.0304  0.2715  0.2978
82593W        W57581   8.488   8.335  10.556 -0.2557 -0.2204  0.1854
82594W        W57582   6.842  13.579   2.145  0.0876 -0.1960 -0.2962
82595W        W57583  29.909  33.648  14.295  0.2101 -0.2056 -0.0643
82596W        W57584   1.798  12.416   0.899 -0.0181  0.1622  0.0806
82597W        W57585  34.087   5.960   1.391  0.0531 -0.0200  0.1880
82598W        W57586   5.238  24.749   4.871  0.2444 -0.2927  0.0846
82599W        W57587  22.870  19.200  17.097 -0.4589 -0.1582 -0.1422
82600W        W57588   4.820  26.018  23.031 -0.0002  0.1261 -0.1875
82601W        W57589  23.145  30.828  22.933 -0.0068 -0.0743 -0.1194
82602W        W57590  29.459  10.897  11.495  0.1913 -0.2320 -0.1350
82603W        W57591  15.955  33.785   1.618 -0.4359  0.1871 -0.0412
82604W        W57592  22.707  24.964  19.925  0.1807  0.0109  0.1724
82605W        W57593  13.846  28.684   1.103 -0.4293 -0.2433  0.0990
82606W        W57594  10.747  28.654  13.696 -0.3293 -0.0817  0.1612
82607W        W57595   6.018  11.408  25.227 -0.0830  0.0999 -0.3829
82608W        W57596   0.981  17.745  18.639 -0.0794  0.0720  0.2093
82609W        W57597   5.182   0.062  19.991 -0.1123  0.1603  0.1139
82610W        W57598  21.122   4.043  18.451  0.2905  0.1170 -0.0418
82611W        W57599  33.530  27.544  20.482 -0.0614  0.0258 -0.0173
82612W        W57600   0.961  31.900   0.375 -0.1531  0.0511 -0.2669
82613W        W57601   3.637  31.682   5.965  0.0612 -0.2444 -0.1725
82614W        W57602   4.836  26.303   7.117 -0.1505  0.0997  0.0003
82615W        W57603  33.721  28.571  18.926  0.2105  0.1475  0.1024
82616W        W57604  22.033   6.709  23.681  0.2239  0.1123 -0.1081
82617W        W57605  10.992  28.803   4.132 -0.2454 -0.2026  0.0307
82618W        W57606  34.552  32.600   0.249  0.0120 -0.2464 -0.0785
82619W        W57607  22.067   3.029   0.453  0.0543 -0.0290  0.1103
82620W        W57608  33.154   4.346  15.271 -0.0686 -0.0988  0.1354
82621W        W57609   7.656  33.429   2.717 -0.5208 -0.0602 -0.1285
82622W        W57610   7.294  21.468  24.345 -0.0991 -0.1412  0.1129
82623W        W57611  31.991  11.830   7.788  0.1328 -0.1710  0.1624
82624W        W57612  27.517  31.081   3.563  0.0988  0.1439  0.0281
82625W        W57613  15.400  20.189  23.563 -0.2360  0.2956  0.0862
82626W        W57614  18.310   0.892  21.275 -0.2878  0.4960  0.0004
82627W        W57615  13.021   8.951  11.015 -0.1874  0.2857  0.1001
82628W        W57616   4.088   8.026  21.664  0.1530  0.0984  0.1253
82629W        W57617   7.964  16.364  22.725 -0.0574 -0.0077 -0.2279
82630W        W57618  15.315  10.335   1.688 -0.0487 -0.0147 -0.0942
82631W        W57619  11.819  18.966  23.062  0.1168  0.1615  0.1022
82632W        W57620  30.417  28.017  11.840  0.4241 -0.3400 -0.0749
82633W        W57621  23.118  26.705   1.137 -0.0662  0.5165 -0.3052
82634W        W57622   0.906  17.042  16.534 -0.1412  0.0642  0.2779
82635W        W57623  20.053   5.371   7.033 -0.0179 -0.3955 -0.0462
82636W        W57624  31.850  16.081  25.324 -0.0261 -0.0925 -0.2658
82637W        W57625   2.752  32.559  18.560  0.0917  0.0872  0.0545
82638W        W57626  17.433   8.339  11.343 -0.0741  0.0854  0.2763
82639W        W57627  31.160  11.644  15.418 -0.0443  0.0459  0.3354
82640W        W57628   1.169   0.912  20.472  0.1473 -0.2571 -0.0895
82641W        W57629  31.634  22.683  19.021  0.0956 -0.3112  0.1119
82642W        W57630  17.530  20.292  13.218  0.0342  0.1671 -0.4021
82643W        W57631  35.071  16.831  14.241 -0.0593  0.1886 -0.3900
82644W        W57632  15.512   3.488   6.423  0.0952  0.2253 -0.1644
82645W        W57633  21.761   4.395  16.573  0.2528  0.1192 -0.0485
82646W        W57634  33.912   0.092  25.172  0.2241  0.2407  0.1383
82647W        W57635   9.998   0.859  13.688 -0.1111  0.2508  0.0128
82648W        W57636  27.072  15.487  17.760 -0.0267  0.1543 -0.0458
82649W        W57637   2.807  33.521   1.517  0.5271 -0.0692 -0.2753
82650W        W57638  30.111  22.092  25.690  0.0429 -0.0893 -0.0104
82651W        W57639  17.420   2.385   0.224  0.1983 -0.3785 -0.2082
82652W        W57640   8.884   9.809  10.781 -0.0712  0.2144 -0.0088
82653W        W57641   8.608  18.699   8.550 -0.0130 -0.1085  0.3112
82654W        W57642  34.521  10.463  18.884  0.0226 -0.1018  0.2745
82655W        W57643  10.854  25.988   0.645  0.0896 -0.3019  0.1085
82656W        W57644  19.806   6.690   2.572  0.1957  0.2569 -0.0465
82657W        W57645  17.979  16.341  25.284  0.1767  0.0596 -0.2067
82658W        W57646  24.514  18.453  11.781 -0.2271  0.2255 -0.1587
82659W        W57647   4.921  25.545  20.913 -0.1588 -0.2010  0.0540
82660W        W57648  11.520  21.798  14.710  0.0105 -0.1750  0.1775
82661W        W57649  16.417  15.885   0.530  0.0188 -0.3185 -0.1977
82662W        W57650  15.341  13.897  23.563  0.2181 -0.2128  0.3823
82663W        W57651   6.298  21.436   7.184  0.1935 -0.3269 -0.3438
82664W        W57652  11.992  20.793   7.853  0.2977 -0.1666 -0.1737
82665W        W57653   9.134  32.093  13.366  0.1923 -0.0463  0.0142
82666W        W57654   7.971  32.635  11.562 -0.0558  0.0627 -0.0517
82667W        W57655  17.171  22.385  12.181 -0.0194  0.2608  0.1215
82668W        W57656  16.685  13.722   8.949 -0.1986  0.1583 -0.0299
82669W        W57657   4.980  12.302  17.425  0.2212 -0.0668  0.0471
82670W        W57658   1.802   4.922   6.160  0.0936  0.0453  0.1673
82671W        W57659   9.391  32.388  14.643 -0.0779 -0.0550 -0.1886
82672W        W57660  20.523  11.700   3.440  0.0876 -0.0301 -0.1985
82673W        W57661  20.794   5.321  18.809  0.1076  0.1303  0.1975
82674W        W57662  11.075  11.838   3.569  0.2330 -0.1248  0.1981
82675W        W57663   8.381  10.623  10.938 -0.1023 -0.0126 -0.1141
82676W        W57664  17.983  30.517   4.232 -0.2150 -0.1945 -0.1800
82677W        W57665  23.847  19.398  22.204 -0.1078  0.0013 -0.4725
82678W        W57666  18.044  15.273   0.917 -0.0178  0.0203  0.0800
82679W        W57667  15.825  27.712  23.466  0.0359 -0.1310 -0.0171
82680W        W57668  28.496   6.880  26.112 -0.2925  0.0632  0.1547
82681W        W57669  24.993  20.352  10.998  0.2190  0.1392 -0.1159
82682W        W57670  27.284  30.726  25.855 -0.0318  0.2064  0.0600
82683W        W57671   7.837  17.294  10.662 -0.0521 -0.0524  0.2065
82684W        W57672  26.035  26.115  22.655  0.0893 -0.2183  0.1503
82685W        W57673  11.416   7.144  25.015 -0.0532  0.1231  0.1055
82686W        W57674  29.048  13.685  12.011  0.1178 -0.2285 -0.0964
82687W        W57675  13.101   3.026   2.721 -0.0220 -0.1115  0.1990
82688W        W57676  11.360  11.443  22.046 -0.3142  0.0319  0.3332
82689W        W57677   1.875  26.656  18.517  0.0924 -0.2373 -0.1113
82690W        W57678  26.461  15.135  24.967 -0.0358  0.0760 -0.4283
82691W        W57679  25.050  31.148  25.464  0.0214 -0.0275 -0.0409
82692W        W57680  14.406  14.774   2.122  0.0127 -0.3262  0.1861
82693W        W57681  10.877   8.387  10.436 -0.2214  0.0187 -0.0998
82694W        W57682  21.368   5.716  25.042  0.1949 -0.0491 -0.1033
82695W        W57683  10.465  25.470  12.543  0.1456  0.0619 -0.1685
82696W        W57684  12.874  14.244   8.525 -0.0692 -0.3285 -0.0629
82697W        W57685  17.564  35.289   6.851 -0.2798  0.2800 -0.2424
82698W        W57686   5.351  16.852  22.460 -0.0045  0.2809  0.1346
82699W        W57687  27.377  25.586   8.466 -0.0726  0.1379  0.3047
82700W        W57688   1.786  12.165  22.431  0.1525  0.1736  0.1851
82701W        W57689  26.527  12.798  11.482 -0.0066 -0.2257 -0.1673
82702W        W57690   1.509   1.308  20.673  0.0300 -0.1198 -0.2251
82703W        W57691  13.977  19.271  23.262  0.0148  0.3758 -0.0171
82704W        W57692   2.471  18.156  20.361 -0.2101 -0.0709 -0.2270
82705W        W57693  20.120   7.940   8.048  0.1403  0.1838  0.1526
82706W        W57694  28.937   5.607  25.146 -0.0709 -0.1158 -0.3263
82707W        W57695  35.230  31.359   2.884 -0.3118  0.0853  0.2146
82708W        W57696  28.989  33.316  22.479 -0.0832 -0.0107  0.0737
82709W        W57697  29.700   7.609  11.261 -0.0558  0.2536 -0.1740
82710W        W57698   0.760  31.115  19.672 -0.1997  0.2113 -0.1104
82711W        W57699   3.318  20.594  21.999 -0.2280 -0.0516  0.2492
82712W        W57700  14.924   0.288  20.200  0.0072 -0.0294  0.4496
82713W        W57701  17.856  21.301  13.210 -0.3532  0.0541 -0.1803
82714W        W57702  27.197  10.499  19.770  0.0717  0.0907 -0.0138
82715W        W57703  26.631  35.380  13.503 -0.0023 -0.0804  0.4966
82716W        W57704  18.782  35.230   6.997  0.4548 -0.1815  0.1687
82717W        W57705  20.081   6.183  10.425 -0.0282 -0.2586 -0.1090
82718W        W57706  16.442  15.425   6.914 -0.2999  0.0527  0.1576
82719W        W57707  15.073   5.960  22.274 -0.2867 -0.0628  0.3810
82720W        W57708  11.804  20.878   5.843  0.0815  0.1212 -0.2326
82721W        W57709   3.823  16.781  19.101  0.1802  0.0122 -0.1652
82722W        W57710  25.503  13.246  24.844 -0.1786  0.0917 -0.2501
82723W        W57711  31.269  15.752   6.264 -0.0540 -0.1070 -0.2093
82724W        W57712  27.299  31.999  18.026  0.1925  0.3618 -0.2893
82725W        W57713  16.817   9.180  25.280 -0.0628  0.0027 -0.2782
82726W        W57714  11.449  20.770  23.090  0.2602  0.0743 -0.1257
82727W        W57715  34.643  20.905   1.115  0.2024 -0.1327  0.5423
82728W        W57716   3.615  27.443  20.982 -0.0989  0.0818 -0.2605
82729W        W57717  20.089  13.959  21.741 -0.0973 -0.0074  0.0808
82730W        W57718  24.391  12.779  21.414 -0.0982 -0.1655 -0.1908
82731W        W57719  23.833  21.035  25.401 -0.0237 -0.4096  0.0097
82732W        W57720  26.602   4.490  15.488 -0.1140  0.0198 -0.1312
82733W        W57721  13.728   9.505  10.136  0.1674  0.2197 -0.0991
82734W        W57722  16.602   5.803  21.769  0.1411 -0.2706 -0.1239
82735W        W57723   1.096  26.444  19.391 -0.1372 -0.0305 -0.0206
82736W        W57724  29.843  18.765  20.414 -0.0045  0.1389  0.4682
82737W        W57725   5.963   4.172   5.890 -0.0338  0.0743  0.2481
82738W        W57726   2.146  32.456  21.647  0.0987 -0.1199 -0.1569
82739W        W57727  13.966  15.287   5.374  0.0276  0.0889  0.0057
82740W        W57728  28.510  19.564  11.253  0.1277 -0.0134  0.0540
82741W        W57729  14.306  25.276   4.555  0.0428  0.1151 -0.2539
82742W        W57730  26.277   2.968  19.597  0.1202  0.1649  0.3516
82743W        W57731   6.617   7.430  25.763  0.1106  0.1354 -0.0529
82744W        W57732  22.750  28.302   2.751  0.3369 -0.0870  0.2543
82745W        W57733  32.967   9.516  21.819  0.0402  0.0107 -0.2993
82746W        W57734  21.413  23.680   6.632 -0.3627 -0.0392  0.0355
82747W        W57735  30.047  13.283  11.689 -0.2241 -0.3892 -0.2945
82748W        W57736  19.971   6.422  18.598 -0.2562 -0.1574  0.0428
82749W        W57737  30.688   7.042  17.531  0.0774 -0.0675  0.2361
82750W        W57738  30.791  10.217  25.740  0.2282 -0.0039 -0.1661
82751W        W57739  31.381  23.199  20.929  0.1418 -0.0885  0.3044
82752W        W57740   4.669  30.803   7.138 -0.0621 -0.2747  0.0352
82753W        W57741  25.097  35.059   1.597 -0.0829 -0.0433  0.2500
82754W        W57742   3.567   5.605  22.656 -0.0712  0.0206 -0.0906
82755W        W57743  21.884  16.089  18.055  0.2098  0.0159  0.2859
82756W        W57744   2.359  32.935  21.739 -0.3718  0.2543 -0.0926
82757W        W57745  19.903  19.450  24.942 -0.1557 -0.1581  0.1204
82758W        W57746  16.271  25.223   0.637  0.3371 -0.0053 -0.0688
82759W        W57747   0.848  26.936  16.674  0.2376  0.2196  0.0960
82760W        W57748  21.897   7.749   5.581  0.2169 -0.0864 -0.2427
82761W        W57749  24.697  24.072  17.975 -0.2178 -0.1193  0.0607
82762W        W57750  20.758  17.843  17.252 -0.0520  0.0439 -0.1742
82763W        W57751  17.547   5.044   4.322 -0.0333 -0.0354  0.2329
82764W        W57752  22.466   3.642  14.121  0.0493 -0.3437 -0.1223
82765W        W57753   5.944  16.245   6.430  0.0706  0.3010 -0.1734
82766W        W57754  27.361  15.012  21.216  0.1661  0.2325  0.0056
82767W        W57755  19.995  20.716   0.440  0.0616  0.1051 -0.0424
82768W        W57756  35.087  25.352  21.983 -0.1048  0.0609  0.0969
82769W        W57757   3.226  28.251  25.826 -0.2224 -0.3927 -0.0553
82770W        W57758  32.105  34.815  13.634  0.4001  0.1209  0.0513
82771W        W57759  15.528  33.558  19.802 -0.2444 -0.1885  0.1399
82772W        W57760  15.123  22.295  16.526 -0.2280  0.2858  0.1562
82773W        W57761  24.453  31.934  11.353 -0.1630 -0.0197  0.1010
82774W        W57762  14.455   5.545  20.474  0.2281 -0.2733 -0.0014
82775W        W57763   3.753  17.369   3.996 -0.2793  0.0500 -0.0722
82776W        W57764  29.433  10.247  11.477  0.0448  0.1124  0.2423
82777W        W57765  24.993  29.375  10.394 -0.1471 -0.0464 -0.0878
82778W        W57766  11.361  10.633   5.206  0.2134  0.0480 -0.1782
82779W        W57767  19.571  21.071   7.839  0.1938  0.1015 -0.0503
82780W        W57768  25.747  20.197  12.245 -0.0185  0.0714  0.0081
82781W        W57769  30.674   5.711  23.096 -0.1172  0.0378  0.2046
82782W        W57770  28.700  15.740  19.325 -0.1926  0.0984 -0.1341
82783W        W57771   1.435   2.022  15.233  0.0905 -0.3346 -0.1437
82784W        W57772  28.517   5.705  15.962 -0.2416 -0.2644 -0.3039
82785W        W57773  21.498   3.384   2.256 -0.3155 -0.1604  0.1762
82786W        W57774  24.560  11.717   1.148  0.3790 -0.0233 -0.2203
82787W        W57775  16.570   6.559  17.993  0.1330 -0.0817  0.3209
82788W        W57776  20.471  26.522  24.199 -0.2795  0.1240  0.1537
82789W        W57777  19.475  10.587   9.252 -0.1933  0.1811  0.2187
82790W        W57778  33.554  25.102  13.679 -0.4236 -0.2273 -0.0498
82791W        W57779   6.876  20.088  25.221  0.1630  0.1661  0.1164
82792W        W57780  24.576  13.762  11.203  0.0884  0.0942 -0.2534
82793W        W57781   8.554  12.548   7.173  0.2032 -0.0405 -0.1383
82794W        W57782  11.418  32.246   5.679 -0.2628 -0.1577  0.0181
82795W        W57783  35.105  20.768  10.402 -0.1018  0.1133 -0.1557
82796W        W57784  24.632   3.183   5.120 -0.1665 -0.2703  0.1312
82797W        W57785  29.142  18.021  10.267  0.0664  0.2413 -0.0342
82798W        W57786  35.232  18.709  23.588 -0.0946  0.2617 -0.0307
82799W        W57787   4.231  29.425  23.909  0.1169 -0.3575  0.0614
82800W        W57788  10.097  22.533   9.867 -0.0886 -0.0464  0.0876
82801W        W57789  14.695   0.057   7.308 -0.2372 -0.0604 -0.3600
82802W        W57790  17.341  24.060  13.600 -0.1780 -0.2591 -0.0248
82803W        W57791   2.598  21.667  16.380 -0.2077 -0.1475 -0.1163
82804W        W57792   9.202  20.771  14.590  0.1484 -0.0390 -0.0960
82805W        W57793   1.786  13.048  12.529 -0.1261  0.0250 -0.0804
82806W        W57794  34.659  35.176   7.865 -0.3575  0.0878 -0.0626
82807W        W57795  16.252   9.240   0.158  0.0302  0.0107 -0.2548
82808W        W57796   3.129  14.380  18.021 -0.2297 -0.1153  0.1669
82809W        W57797  18.107  14.004  26.122 -0.1061  0.1176 -0.2875
82810W        W57798   6.485  32.504   0.932 -0.1536  0.1232  0.7256
82811W        W57799  10.898   2.172  10.164  0.2520  0.0233 -0.1327
82812W        W57800  28.630  13.246  15.247  0.2349  0.2357  0.2066
82813W        W57801   1.183   4.256  14.146  0.0076  0.1320  0.0274
82814W        W57802  31.639  17.165  18.120  0.0313  0.1342  0.2297
82815W        W57803   5.039   3.380   6.990  0.3167 -0.0510 -0.1626
82816W        W57804  11.264  14.067  13.137 -0.1525 -0.2852 -0.0136
82817W        W57805  34.888   4.299   6.683 -0.0320  0.3414 -0.6558
82818W        W57806  34.307  13.964   8.909 -0.0626 -0.0121 -0.2389
82819W        W57807  28.350  17.367  20.590  0.1176 -0.1758  0.0597
82820W        W57808  25.367   8.382  12.899  0.1946 -0.1065 -0.2968
82821W        W57809   6.032  22.003  20.582 -0.3444  0.2568  0.3193
82822W        W57810  15.198   0.630   6.226  0.2499 -0.4999 -0.2787
82823W        W57811  31.918  33.555  18.469 -0.2659  0.1648  0.0119
82824W        W57812  19.108  34.016  17.472  0.0086 -0.0959 -0.1062
82825W        W57813  25.502  29.161  24.047  0.0332  0.2482  0.2002
82826W        W57814  23.057  15.981  18.350  0.0322 -0.1002  0.3624
82827W        W57815  12.453   1.576   4.950 -0.0099  0.2298  0.1668
82828W        W57816   1.292  21.331  13.906  0.3837  0.0907 -0.1984
82829W        W57817  23.803  29.848  19.192  0.2500 -0.3443  0.1827
82830W        W57818   7.834  26.812  16.818  0.1488  0.0150 -0.5284
82831W        W57819   0.250  33.154  16.192  0.1392 -0.2056  0.1203
82832W        W57820  24.930  32.655  17.499 -0.0532  0.0568 -0.0985
82833W        W57821   9.101   6.464   6.885 -0.3566 -0.5086 -0.2389
82834W        W57822  14.947   9.139  25.317  0.0092 -0.1463 -0.0628
82835W        W57823  17.777  31.659   2.801  0.1872  0.3466  0.0095
82836W        W57824  32.710  24.251  19.699 -0.0447 -0.0410 -0.0440
82837W        W57825  29.453  17.243  21.426 -0.1523 -0.2669 -0.0391
82838W        W57826  27.042  35.341  18.609 -0.1646  0.1023 -0.0672
82839W        W57827   5.307   7.994  17.361 -0.1491  0.0817 -0.0649
82840W        W57828   7.448   6.978   3.381  0.1329  0.0654  0.0188
82841W        W57829  29.775  29.812   1.666  0.2175 -0.2599 -0.0486
82842W        W57830  32.193  10.929  22.156  0.0883 -0.1862  0.0652
82843W        W57831  32.885   1.935  19.760 -0.2594  0.1277 -0.0479
82844W        W57832  10.110  27.325   6.836 -0.3708 -0.3847 -0.0091
82845W        W57833  32.825  27.013  13.330 -0.0876  0.0236 -0.1155
82846W        W57834  17.222  10.637  23.775  0.1344  0.0695  0.3811
82847W        W57835  34.666  14.904   8.779 -0.4328  0.0979 -0.0801
82848W        W57836  13.179  14.735  21.998 -0.1823 -0.1533  0.0743
82849W        W57837   0.173  10.975  12.942  0.1958 -0.2380 -0.0625
82850W        W57838  34.074   3.539   1.215 -0.2262 -0.3171 -0.1128
82851W        W57839  25.407   8.673  12.517 -0.2001 -0.0816  0.1164
82852W        W57840   6.532  34.273   1.354  0.1180 -0.0453 -0.1684
82853W        W57841   8.933  27.201   2.991 -0.2392  0.0194 -0.1155
82854W        W57842   3.636  28.876   4.505 -0.2306 -0.1453  0.0095
82855W        W57843  18.950  24.396   6.858  0.1873  0.0221 -0.3202
82856W        W57844  30.440  10.621  14.429  0.2392  0.1613 -0.1887
82857W        W57845  15.452  10.615   4.298 -0.2784 -0.0341  0.0236
82858W        W57846   5.118  26.202  10.951  0.0054  0.0090  0.1438
82859W        W57847   0.456  34.284  18.831 -0.1027  0.0423 -0.1275
82860W        W57848   0.516  18.232  14.792  0.1257 -0.1433  0.1765
82861W        W57849  33.264   1.244  25.073 -0.1896  0.2258 -0.0961
82862W        W57850  34.120  17.503  13.439 -0.0735 -0.1048 -0.1617
82863W        W57851  18.505  18.075   3.478 -0.2776  0.1482 -0.2654
82864W        W57852  10.787  30.494  25.947 -0.2060  0.0704  0.0583
82865W        W57853  18.111  18.926   8.725  0.1736  0.2715 -0.0467
82866W        W57854  18.355   2.145   6.445 -0.0005  0.0412 -0.1188
82867W        W57855   3.510  14.783  25.530  0.0321  0.0632 -0.4215
82868W        W57856  16.602  31.840  10.914  0.1770  0.3477 -0.0987
82869W        W57857  27.539  20.837   7.829  0.1109  0.2221 -0.4034
82870W        W57858  20.439  23.780  20.542 -0.0288 -0.1168 -0.0301
82871W        W57859   0.280  31.452  20.461 -0.2005 -0.0446  0.0138
82872W        W57860  32.403   1.754  24.311 -0.1257  0.0726 -0.3414
82873W        W57861  27.042  21.169   7.138  0.0810  0.3771 -0.1974
82874W        W57862  28.265  24.115  11.166 -0.3295  0.3086 -0.0596
82875W        W57863   8.297  17.506   0.466  0.2251 -0.3079 -0.1498
82876W        W57864   8.488  34.401  11.225  0.0759 -0.1681  0.0145
82877W        W57865  23.910   7.334   5.794  0.1187  0.2832 -0.1586
82878W        W57866   6.577  34.909   3.693  0.2210 -0.0809  0.1525
82879W        W57867  14.617  26.685   6.452 -0.1229  0.2818  0.2266
82880W        W57868  12.750  17.458   4.373 -0.0423 -0.0496  0.1948
82881W        W57869  26.200  10.736  20.411 -0.1408 -0.1400  0.1535
82882W        W57870  25.924  17.671  12.875  0.1183  0.0367 -0.0790
82883W        W57871  35.203  14.845  16.390  0.4262  0.1404 -0.2918
82884W        W57872  16.616   2.975  19.794  0.1337  0.4003 -0.0436
82885W        W57873  10.238   8.268   7.928 -0.4074  0.1262 -0.0440
82886W        W57874  33.921  26.754  15.250 -0.2584 -0.0933  0.0619
82887W        W57875  10.934   7.251   0.125  0.0910  0.2580 -0.0161
82888W        W57876  18.921  24.152  22.373 -0.3521  0.1157  0.0626
82889W        W57877  12.922  19.511  10.591  0.1397 -0.0527  0.0286
82890W        W57878  21.754   5.193  21.010  0.1844 -0.0209 -0.0515
82891W        W57879  11.434  17.509   6.135  0.0611  0.0848  0.0068
82892W        W57880  31.333  16.818   8.930  0.0013  0.0864  0.0196
82893W        W57881  27.132   9.289  25.030  0.1465  0.0845  0.0105
82894W        W57882   7.074  18.479  10.226 -0.2477 -0.0189 -0.0888
82895W        W57883  22.912  18.649  16.388 -0.1467  0.0579  0.0958
82896W        W57884   6.066  23.079  25.590  0.2107 -0.0952 -0.0933
82897W        W57885   8.960  27.821  11.570  0.0482 -0.3254  0.1195
82898W        W57886  12.258  10.676   1.523  0.1215 -0.2321 -0.1484
82899W        W57887  12.232  30.539  16.432  0.1330 -0.1127  0.0348
82900W        W57888  30.652  28.984  13.575  0.1767 -0.0705  0.3835
82901W        W57889   4.092  20.014  22.494 -0.2893 -0.3972 -0.0804
82902W        W57890   4.592  15.650  23.217  0.1622 -0.1536  0.1260
82903W        W57891  33.874  21.452  12.391 -0.0922 -0.1154  0.0327
82904W        W57892  22.901  17.279  13.186 -0.0753  0.0935  0.2548
82905W        W57893  12.576  30.020  25.426 -0.2112  0.3462 -0.2679
82906W        W57894   6.512  18.394   1.966 -0.0412  0.1267  0.0385
82907W        W57895  14.598  18.362   6.704  0.0828 -0.1885  0.0975
82908W        W57896   1.595  16.236   0.244 -0.0216 -0.1425  0.3620
82909W        W57897   9.717  32.772   9.353 -0.1296  0.0530 -0.1536
82910W        W57898  11.736  22.122  11.049  0.2453 -0.2021  0.3253
82911W        W57899  20.798   9.600   7.525  0.3470  0.1515  0.1784
82912W        W57900   1.506   7.479  16.747 -0.0934 -0.2127  0.1940
82913W        W57901   2.644  30.684  24.931 -0.0686  0.1100  0.1458
82914W        W57902  19.489  22.812  10.820  0.0479 -0.1226  0.0882
82915W        W57903  13.981  19.856  11.398  0.1269  0.2204 -0.2019
82916W        W57904  20.997  28.015   0.661  0.1061 -0.2168 -0.0517
82917W        W57905   6.306  31.304  11.404  0.0987  0.0975  0.0399
82918W        W57906  21.148  34.024   0.865  0.1602  0.0028 -0.1731
82919W        W57907  35.371  18.940  10.628 -0.0928 -0.3012  0.0613
82920W        W57908   7.982  25.031   5.840 -0.3064  0.0919  0.4459
82921W        W57909  13.565   7.656   7.101 -0.1252 -0.0117  0.2037
82922W        W57910  34.715  12.708  20.201  0.0383  0.0494  0.2890
82923W        W57911  21.347  13.971  22.145  0.0812  0.1743  0.4450
82924W        W57912  10.858  32.493  22.574  0.0525 -0.0967  0.1390
82925W        W57913   3.353   0.137  18.427  0.1566 -0.0774  0.0897
82926W        W57914   4.576  31.557  25.618  0.4019  0.0455  0.0234
82927W        W57915  31.702  31.540   3.308  0.0427 -0.2086  0.3163
82928W        W57916   4.599   1.678   2.696  0.0219  0.0218  0.2513
82929W        W57917  35.355   4.188   3.009 -0.1371 -0.0253 -0.6317
82930W        W57918  14.442  15.304   6.185  0.0835  0.0301  0.0345
82931W        W57919  18.868  18.521  23.545  0.0189  0.1125 -0.1816
82932W        W57920  21.163   5.014   0.759  0.0829 -0.1748  0.2311
82933W        W57921   1.889   7.837  20.076 -0.1308 -0.1846  0.0039
82934W        W57922  14.287   1.200   8.224  0.1397 -0.0660 -0.2741
82935W        W57923  14.202   3.434   4.086 -0.2483  0.0985  0.0517
82936W        W57924  32.147   8.792   9.891  0.0993  0.1127  0.3814
82937W        W57925  15.689  26.301   7.668  0.3331 -0.2597 -0.1450
82938W        W57926  16.535  11.786  21.978 -0.2842  0.1925  0.2586
82939W        W57927   1.724   1.820   5.614  0.1506 -0.2163 -0.0730
82940W        W57928  15.836   5.921  21.344 -0.4193 -0.2373  0.1475
82941W        W57929  14.259   4.690  19.995  0.1382 -0.0319 -0.1484
82942W        W57930  24.150   3.541  24.747 -0.1220 -0.1265 -0.3863
82943W        W57931  31.605   9.678  18.454 -0.0207  0.1010  0.2004
82944W        W57932   3.593  33.673  11.080 -0.2029  0.3640  0.2174
82945W        W57933  14.947  12.181  12.953 -0.0611  0.1537  0.2070
82946W        W57934  35.059  11.495  12.375  0.0035  0.2681  0.4042
82947W        W57935   9.090  30.957  10.377 -0.2939  0.0556  0.1591
82948W        W57936   6.025   9.140  21.134  0.2013 -0.3295 -0.1251
82949W        W57937  34.708  29.800  21.924  0.3094 -0.0641  0.0181
82950W        W57938   1.717   3.211   6.417 -0.1401 -0.2404 -0.0811
82951W        W57939  34.840  13.112  13.209 -0.0485 -0.1326  0.2450
82952W        W57940  12.903  24.904   2.985 -0.0626  0.0686 -0.0346
82953W        W57941   9.013  31.502  21.431 -0.0115  0.3648 -0.0065
82954W        W57942   0.491  35.292   3.795  0.0589 -0.0801 -0.0340
82955W        W57943  17.226   9.627   2.790  0.0260 -0.4295  0.1849
82956W        W57944   3.881  14.047  16.232  0.0375  0.1009 -0.0761
82957W        W57945   2.088   1.339  16.502 -0.0575 -0.0356  0.0362
82958W        W57946  13.353  34.304  10.020  0.2292  0.2008  0.3820
82959W        W57947  10.921  30.740   1.255  0.0206  0.1239  0.0830
82960W        W57948  27.657  23.957  24.598  0.0810 -0.1175  0.0662
82961W        W57949  19.816  26.576   3.466  0.1711  0.2096 -0.1504
82962W        W57950   0.147  12.733  11.108  0.0827  0.1755  0.0999
82963W        W57951  22.783   7.561  16.161  0.2812 -0.0227  0.3283
82964W        W57952   3.968  15.983  15.319  0.4283 -0.1396  0.0891
82965W        W57953  26.933  27.676   1.943  0.1450  0.1228 -0.1327
82966W        W57954  23.804   9.860  19.239  0.2390 -0.0831  0.0961
82967W        W57955  13.103  15.872  20.733  0.2842  0.0934 -0.3517
82968W        W57956  30.796  12.222  14.951 -0.1689  0.0995  0.1483
82969W        W57957   9.331   8.766  12.021 -0.0993  0.0424  0.2729
82970W        W57958   9.723  18.849  23.897 -0.1235 -0.1430  0.1312
82971W        W57959   5.225   9.135   3.720  0.0260  0.0881 -0.0662
82972W        W57960  23.040  33.807   1.654  0.1003 -0.1533 -0.0439
82973W        W57961  31.372  19.355   5.636  0.1376  0.0707 -0.0234
82974W        W57962   7.868  19.722  24.058  0.0786 -0.2289  0.1205
82975W        W57963   3.745   7.987  22.624  0.0765  0.0872  0.0600
82976W        W57964   1.504  25.462   1.873  0.2858  0.0236 -0.0711
82977W        W57965   2.704  31.336  10.773  0.5244  0.0080  0.2408
82978W        W57966  18.101   1.880   8.072 -0.0342  0.1144  0.0027
82979W        W57967  33.097   9.607  12.568  0.0470  0.4110 -0.0146
82980W        W57968  12.382  28.256   9.712  0.1086 -0.1486 -0.0786
82981W        W57969  27.197  25.802  17.853 -0.0789 -0.0514  0.1573
82982W        W57970  14.256  18.909  15.938 -0.1918 -0.4053 -0.0469
82983W        W57971   1.804  22.783  21.878 -0.1594  0.4179  0.2208
82984W        W57972   4.842  25.439   2.546 -0.1085 -0.0619 -0.0584
82985W        W57973  34.826   6.949  21.893 -0.0406 -0.1039  0.0635
82986W        W57974   9.642  23.753   8.504 -0.0005 -0.0324 -0.0192
82987W        W57975  19.587   8.912   5.752 -0.1722  0.2100 -0.1743
82988W        W57976  11.676  29.261   2.735  0.2703  0.1051 -0.0048
82989W        W57977   0.301  16.365  25.571 -0.0501 -0.1254  0.1860
82990W        W57978  17.763  11.290  12.601 -0.0594  0.2418  0.1199
82991W        W57979  28.227  21.681  12.457 -0.1051  0.3758 -0.2684
82992W        W57980  11.980   4.805  24.785 -0.1149  0.5478 -0.0878
82993W        W57981  20.852  23.527   2.824  0.1369  0.0458 -0.0570
82994W        W57982  19.026   2.716   4.066  0.3103 -0.0388  0.0224
82995W        W57983  15.448  28.800  14.301 -0.2424  0.2444  0.1224
82996W        W57984  15.849  29.773   5.455 -0.0492  0.0244  0.0630
82997W        W57985   5.495  16.634   5.402  0.1124 -0.0077 -0.0204
82998W        W57986  17.679   5.191   2.377  0.0094 -0.0948 -0.0321
82999W        W57987   0.413  19.306  19.691  0.1503 -0.3106 -0.0519
83000W        W57988   9.997  13.207  13.408 -0.0662 -0.1719  0.0034
83001W        W57989  25.747  28.237   1.492  0.0852 -0.1503  0.1710
83002W        W57990  30.230   5.364  26.028  0.1442 -0.0263  0.1636
83003W        W57991  34.616   8.317  20.156 -0.0229 -0.0358  0.0741
83004W        W57992  11.042  32.615  15.510 -0.1401 -0.0019 -0.0323
83005W        W57993   3.086  12.279  16.338 -0.0849  0.0213 -0.0637
83006W        W57994   2.529  24.420  18.208 -0.1479 -0.1632 -0.1737
83007W        W57995  21.473  21.844   5.869  0.2873  0.0610 -0.1033
83008W        W57996  13.916   9.354   4.459 -0.1959  0.2600  0.1955
83009W        W57997  16.925  17.382   8.613 -0.3542  0.2576  0.1308
83010W        W57998  16.605  17.224   9.634 -0.1820  0.1398 -0.0637
83011W        W57999  33.529  30.713  16.015  0.1304 -0.3287 -0.5860
83012W        W58000   0.242  16.408   0.753 -0.0726 -0.0744  0.2688
83013W        W58001  33.380   8.262   0.884 -0.2310  0.0723  0.3109
83014W        W58002  17.014   6.434   7.380 -0.1518  0.1861 -0.0785
83015W        W58003  12.130  25.504  14.032 -0.1180  0.2068  0.1399
83016W        W58004  34.912  22.347  14.558  0.1891  0.2729 -0.0865
83017W        W58005   7.544  25.409   6.714  0.0539 -0.0274  0.0223
83018W        W58006   2.868  10.350  18.415  0.2968  0.1179  0.0038
83019W        W58007  14.687   6.375   7.770  0.0620 -0.1310 -0.0921
83020W        W58008   6.552   6.378  11.868  0.1297  0.1584  0.1194
83021W        W58009  18.773  11.189  18.487  0.2452  0.1992  0.0395
83022W        W58010  13.856  27.844   1.352  0.2807 -0.1118  0.4008
83023W        W58011  19.711  22.269   0.037 -0.0770  0.3308 -0.0069
83024W        W58012  24.156   6.800  17.230  0.1331 -0.1335 -0.2170
83025W        W58013   8.245  20.790   8.649 -0.0074  0.0478  0.1026
83026W        W58014   5.407   7.641   3.893  0.1444  0.0455  0.1029
83027W        W58015   2.723  17.856  13.946  0.1261 -0.1100 -0.0416
83028W        W58016   9.676  25.509  13.985 -0.0556 -0.0938  0.0921
83029W        W58017  18.576  21.619  19.419  0.2173  0.0239  0.1575
83030W        W58018  26.908  34.465   4.977  0.1190  0.2168  0.0805
83031W        W58019  26.571  10.319  16.375 -0.2116 -0.3470 -0.1310
83032W        W58020  30.936  31.020  12.100 -0.0519 -0.2847 -0.0191
83033W        W58021   6.449  24.319   5.552 -0.2085  0.1066  0.1246
83034W        W58022   0.540  30.526   2.652 -0.0392 -0.1545  0.0398
83035W        W58023  34.740   2.317   5.820  0.0681  0.3855 -0.0143
83036W        W58024   1.747   0.907  23.739  0.1815  0.1132 -0.1184
83037W        W58025  30.012  17.259   4.124  0.3281  0.0920 -0.0724
83038W        W58026   4.091  20.414  24.519  0.0074 -0.0190  0.2124
83039W        W58027   1.806  14.276   0.737 -0.0966 -0.1457  0.2360
83040W        W58028  33.560  32.931  24.979  0.0464 -0.2576 -0.0828
83041W        W58029  21.748   0.940  19.218  0.2563 -0.0464 -0.1018
83042W        W58030   1.693   9.040  12.677  0.1350 -0.2010  0.0148
83043W        W58031  16.360  29.004   9.199  0.0796 -0.0358  0.0620
83044W        W58032  30.322  13.816  19.281  0.3115 -0.5002  0.2053
83045W        W58033  18.308   0.246   2.742 -0.0381 -0.0372 -0.2478
83046W        W58034  20.206  33.935  15.307  0.3250 -0.0866  0.0259
83047W        W58035  25.784  28.245  13.171 -0.0073 -0.1038  0.0612
83048W        W58036  18.627  20.665  25.631  0.3948  0.4563 -0.1903
83049W        W58037  33.298  27.349   2.543 -0.2037  0.2236  0.0120
83050W        W58038  30.105   2.162   1.027 -0.1607  0.4268 -0.1523
83051W        W58039   3.368   0.279   0.147  0.0152  0.0118 -0.1245
83052W        W58040  10.350  30.161   0.824 -0.2298  0.2856  0.1186
83053W        W58041  18.060  15.687  20.326 -0.1552 -0.0067 -0.0594
83054W        W58042  22.315  27.555   0.030  0.0592 -0.3155 -0.2127
83055W        W58043  11.574  19.627  25.027 -0.2599  0.0552 -0.1055
83056W        W58044  30.779  34.700  18.093  0.0956  0.2119  0.0933
83057W        W58045   1.862  21.749  21.908 -0.0797 -0.0573  0.0939
83058W        W58046  26.035  16.615   8.379 -0.1927  0.0840 -0.0791
83059W        W58047   9.579  34.134   3.652  0.0161 -0.0616  0.3134
83060W        W58048  24.889  17.375  21.727 -0.0335 -0.4171  0.0737
83061W        W58049   2.914  29.094  21.604 -0.0899 -0.0789 -0.0843
83062W        W58050  19.704   4.503   2.975  0.2758 -0.1451  0.0826
83063W        W58051  30.875  11.741  20.521  0.3446  0.0867 -0.3184
83064W        W58052  12.694  33.469   8.467 -0.1432 -0.2407  0.1088
83065W        W58053   5.334  24.893   5.670 -0.0206 -0.2285 -0.1732
83066W        W58054   5.018  33.743   5.383 -0.1351 -0.1333 -0.2260
83067W        W58055   5.475   9.040   7.369 -0.1436 -0.1266 -0.1286
83068W        W58056  17.547  22.309   9.742 -0.1774  0.0663  0.2407
83069W        W58057  14.947  29.611  23.974  0.0365  0.3265  0.1070
83070W        W58058   8.577  13.761   1.081  0.1234  0.0344  0.1055
83071W        W58059   3.270  34.095   3.210 -0.0049  0.4741 -0.1112
83072W        W58060   2.409   9.023  19.367 -0.1814 -0.0078 -0.0437
83073W        W58061   1.614  15.802  20.260  0.2659 -0.0261 -0.2057
83074W        W58062   5.823  34.851   3.732  0.1790  0.2504 -0.1998
83075W        W58063   2.309  11.658   3.510 -0.3205 -0.0490 -0.0324
83076W        W58064  16.156  14.291   6.382  0.3475  0.3065  0.1107
83077W        W58065  14.812  25.930   7.725  0.0700  0.0945  0.0396
83078W        W58066  13.185  18.847  20.312 -0.4257 -0.0525 -0.2141
83079W        W58067   9.163  20.017  11.114  0.1887  0.1062  0.1307
83080W        W58068  27.870  24.955   7.765 -0.0542 -0.1200  0.0189
83081W        W58069  11.822   8.540   5.368  0.1495 -0.1522  0.2223
83082W        W58070  15.858  24.661   4.299  0.0001 -0.4064  0.0454
83083W        W58071   8.721   7.250  11.039  0.0405  0.1908 -0.0107
83084W        W58072  17.477  10.081   2.169  0.0713 -0.0188 -0.2743
83085W        W58073  11.017   8.260   8.232 -0.2128 -0.1648  0.0803
83086W        W58074   9.900   8.684  22.146  0.1451 -0.1707  0.3450
83087W        W58075  22.250  14.495  17.457 -0.1438 -0.1638  0.0750
83088W        W58076  30.635  15.481  11.929  0.0964 -0.1177 -0.3213
83089W        W58077  34.106  28.802   2.131  0.4048 -0.0199 -0.0008
83090W        W58078   4.153  17.276   0.764  0.4313 -0.1326 -0.1544
83091W        W58079   9.258  23.291   5.564  0.1232  0.2937 -0.0563
83092W        W58080   9.753  17.332  22.805  0.0240  0.0297 -0.2361
83093W        W58081  17.345  27.841   0.430  0.3009 -0.2611 -0.0484
83094W        W58082  20.935  18.266  23.600 -0.0228 -0.3068 -0.0552
83095W        W58083  25.319  14.397   0.038  0.1451 -0.0968 -0.4028
83096W        W58084   1.843  22.817  15.106  0.0792 -0.1694 -0.2944
83097W        W58085  23.441   4.933   6.508  0.0338 -0.0751 -0.1407
83098W        W58086  30.740   0.828   1.091 -0.1128  0.0095 -0.0980
83099W        W58087  13.817   6.119   4.829 -0.1118 -0.0314  0.1905
83100W        W58088   0.991   2.654  20.117 -0.1975 -0.1695  0.0786
83101W        W58089  26.424  29.560  10.034  0.1842 -0.4288  0.1413
83102W        W58090   2.283  34.346  24.232  0.0326  0.1852 -0.4931
83103W        W58091   9.038  14.963   2.611 -0.0057 -0.2024  0.0550
83104W        W58092  24.953  12.995  22.271  0.1099 -0.0847 -0.3383
83105W        W58093   5.069  29.384  13.205 -0.1390  0.1598 -0.0368
83106W        W58094  16.432  16.824   2.944  0.3481  0.1093 -0.1448
83107W        W58095   2.226  33.225   5.962 -0.1638  0.0009  0.3310
83108W        W58096   5.328  19.645   2.756 -0.0990 -0.0693  0.2123
83109W        W58097  25.496   6.378  14.556  0.3196  0.1663  0.0109
83110W        W58098  27.186  18.680  12.924 -0.0631  0.1497 -0.1927
83111W        W58099  16.654   2.958  24.393 -0.3035 -0.2092 -0.1314
83112W        W58100  28.970  13.198   6.553 -0.2505 -0.1400 -0.2480
83113W        W58101   0.077   7.420   1.502  0.1869 -0.4384 -0.1033
83114W        W58102   3.643  33.709  25.188 -0.0147  0.0299  0.0446
83115W        W58103  25.429  29.485  19.230 -0.0673 -0.1413 -0.2409
83116W        W58104  30.275   3.854  12.151 -0.0415  0.0494  0.0432
83117W        W58105  34.968  12.841  18.477  0.0561  0.0902  0.1064
83118W        W58106  29.092   5.356  22.981 -0.0777 -0.0954 -0.0463
83119W        W58107   7.249   9.523   4.612  0.2473  0.2009 -0.1765
83120W        W58108  13.317  29.204  10.931 -0.2527 -0.0296 -0.0474
83121W        W58109   6.973  28.211  21.230 -0.0498 -0.1798  0.1956
83122W        W58110   0.160  21.628  17.219  0.0461 -0.0487  0.3367
83123W        W58111  30.602  32.707  11.479 -0.0061 -0.1307 -0.0586
83124W        W58112  29.770   3.590  15.291  0.2511  0.0657 -0.0690
83125W        W58113   8.739  31.219   5.820 -0.0338 -0.1359 -0.1107
83126W        W58114  11.118  10.756   0.642 -0.1106  0.0181  0.0297
83127W        W58115  33.586  15.601  23.571  0.3968  0.0143  0.1228
83128W        W58116  10.271  30.018  22.007  0.1856 -0.3064 -0.2268
83129W        W58117  12.506  28.090   8.702 -0.3018  0.1611 -0.1165
83130W        W58118   0.723  22.152  25.688  0.3851  0.1117 -0.2960
83131W        W58119  30.177  20.809  16.614 -0.1701 -0.3222 -0.0713
83132W        W58120  14.644   4.546  23.480  0.1777 -0.0449  0.0506
83133W        W58121  28.549  25.472  12.874 -0.0038  0.0847 -0.0154
83134W        W58122  27.086  17.764   9.133  0.3055 -0.0248  0.1692
83135W        W58123  17.631  13.425   5.008  0.3549  0.3506 -0.1947
83136W        W58124   5.815  29.443  25.763  0.1878 -0.0448 -0.1923
83137W        W58125   4.411   5.097  24.737  0.0710 -0.0951 -0.0014
83138W        W58126  32.863  16.652   8.021 -0.2059  0.1201 -0.0840
83139W        W58127  15.522  18.478  23.563 -0.2250  0.0150 -0.0496
83140W        W58128   9.542   7.552  11.520 -0.0163  0.2782 -0.1059
83141W        W58129   6.660  28.393   9.184 -0.2564 -0.1749 -0.2068
83142W        W58130  26.199  11.193  17.637 -0.0226  0.0175  0.2598
83143W        W58131  20.436   1.875  26.111 -0.0482  0.0243  0.1508
83144W        W58132  16.239  19.217   8.325 -0.0426  0.0514 -0.2479
83145W        W58133   8.938   1.021   3.493  0.0313 -0.1314  0.1038
83146W        W58134   0.919  14.019  23.685 -0.0837  0.1414 -0.1639
83147W        W58135  23.946  25.954  24.540  0.5472 -0.2016  0.3466
83148W        W58136  27.383   5.841  23.638 -0.0731 -0.0689  0.0405
83149W        W58137  18.839  33.544  15.454  0.2246  0.3001 -0.0552
83150W        W58138  19.385   7.693   0.513 -0.0189  0.2836  0.0566
83151W        W58139   5.164  33.960  12.006 -0.0412 -0.2667 -0.1445
83152W        W58140  21.536   4.541  18.438  0.3163 -0.0475  0.0408
83153W        W58141   1.585  15.360  24.738  0.0705 -0.3526 -0.2518
83154W        W58142  12.738  12.416  10.432  0.0239  0.2030 -0.2572
83155W        W58143  30.990  25.756  24.326 -0.1743 -0.1640  0.2511
83156W        W58144   6.099  12.207   3.178 -0.0704 -0.2959  0.1252
83157W        W58145  10.847   4.392   0.557  0.1945  0.1101  0.2411
83158W        W58146  21.926  31.198  13.628 -0.0301  0.1683  0.0643
83159W        W58147  21.867  23.887   5.510  0.2770  0.1005 -0.1639
83160W        W58148  33.881  23.437  18.050 -0.0908  0.0883 -0.0058
83161W        W58149  11.439  21.639  10.248 -0.3140 -0.0906  0.1442
83162W        W58150  21.078  25.976  23.060 -0.1549 -0.1218  0.1991
83163W        W58151  22.337  16.206  17.875 -0.0002  0.0248 -0.0812
83164W        W58152  24.796  30.329  17.182  0.0724  0.2469 -0.0381
83165W        W58153  30.358   4.878   2.788  0.0266  0.0411 -0.0281
83166W        W58154  13.539  16.380  12.736 -0.0074  0.1463 -0.0828
83167W        W58155  19.499   6.586   4.520 -0.1180 -0.1625 -0.1507
83168W        W58156  19.766   0.994   2.320 -0.0867  0.0549 -0.0242
83169W        W58157  24.010   0.783   1.072 -0.0588  0.0833 -0.3248
83170W        W58158  16.036  32.609   9.768  0.0012 -0.0899  0.0448
83171W        W58159  34.344  19.038  19.265 -0.1966  0.2493 -0.0025
83172W        W58160  28.394  19.231   7.609 -0.0588 -0.2979 -0.0339
83173W        W58161   4.764   2.669  19.294 -0.0460  0.0026  0.1606
83174W        W58162   9.295  27.029   9.141  0.1458 -0.0055 -0.3223
83175W        W58163  19.155   5.051  16.590  0.1724  0.0212 -0.1346
83176W        W58164  17.202  28.844   3.852  0.0835  0.0930  0.2581
83177W        W58165  23.643  29.865  20.636 -0.1426  0.4260 -0.1022
83178W        W58166   7.200  26.439  10.242 -0.1397  0.0580 -0.0644
83179W        W58167  24.983  30.663  17.538  0.0264 -0.0658  0.0118
83180W        W58168  12.128  21.046   3.459 -0.2106  0.0458 -0.0752
83181W        W58169  33.213  10.911  23.134 -0.0446  0.0494 -0.2710
83182W        W58170   6.066  23.432  23.018 -0.3110 -0.1009 -0.1275
83183W        W58171   9.533   4.810  25.233 -0.1627 -0.3362 -0.1995
83184W        W58172  16.924  18.355   8.312 -0.0532 -0.2661  0.1257
83185W        W58173   0.495  18.144  21.033 -0.2557  0.1730 -0.1143
83186W        W58174   9.390  32.944  14.411 -0.0793 -0.2941  0.1842
83187W        W58175   1.880  20.298  17.627  0.0438 -0.1836 -0.2491
83188W        W58176  34.651   7.269   2.111 -0.0147  0.1305  0.4722
83189W        W58177   4.130   2.789   5.638  0.1375  0.3204 -0.1823
83190W        W58178  18.591  31.917  21.015 -0.2114  0.3239  0.2078
83191W        W58179   7.771  32.445  15.346 -0.2049 -0.0107 -0.0952
83192W        W58180  13.429  28.287  13.504 -0.0283  0.2954  0.0907
83193W        W58181   8.684  16.484   5.548  0.0981  0.2482  0.1892
83194W        W58182  22.557   2.157   4.430  0.5221 -0.1910 -0.1017
83195W        W58183  21.849  23.177   1.444  0.2984 -0.1939  0.3545
83196W        W58184  21.531  28.648  15.375 -0.3579 -0.1214 -0.0830
83197W        W58185   5.462  33.562  21.946  0.1624 -0.0398 -0.1529
83198W        W58186  19.244  34.097   8.162 -0.1135  0.2728 -0.0122
83199W        W58187   9.632  24.311  21.564  0.3805  0.1517  0.0352
83200W        W58188   8.864  15.539   3.591  0.3152 -0.2451 -0.1537
83201W        W58189  22.692  28.854  25.772  0.1461  0.1567  0.1539
83202W        W58190  18.859   7.543   0.722 -0.1582 -0.1315 -0.0945
83203W        W58191  15.886  24.159   3.346  0.3353  0.0483  0.0079
83204W        W58192  31.585  12.439  22.916  0.0914  0.0200  0.0177
83205W        W58193  17.219  17.838   2.566 -0.2062 -0.0738 -0.2660
83206W        W58194  10.870  32.650  24.613 -0.0250  0.1748  0.1120
83207W        W58195  34.903  20.922  11.183 -0.1967 -0.2318 -0.2325
83208W        W58196  21.787  16.700  21.447  0.0482  0.1181  0.6499
83209W        W58197   4.304   9.734  15.691  0.1956 -0.4781  0.3523
83210W        W58198  29.196  34.966  11.833 -0.1805  0.0884 -0.0247
83211W        W58199  32.908  18.411  25.592 -0.0957 -0.0384  0.0033
83212W        W58200  23.443   6.080  25.041  0.0477 -0.0331  0.2901
83213W        W58201   1.734   7.129  23.158 -0.1034  0.0348 -0.0949
83214W        W58202   6.357  25.842   7.959  0.2074 -0.2109  0.0825
83215W        W58203   8.699   0.124  23.583  0.1089 -0.2201  0.2893
83216W        W58204  18.446  16.707   4.758  0.2130  0.1968 -0.3121
83217W        W58205  27.140  18.718  17.279  0.0211  0.1758 -0.1253
83218W        W58206  13.677  30.694  22.119  0.2230 -0.1692 -0.0095
83219W        W58207  23.364   8.088  23.462  0.1414 -0.2096 -0.0950
83220W        W58208   4.203  31.049   0.486  0.0321  0.1130 -0.0439
83221W        W58209   1.804  14.992  17.155  0.0513 -0.0098  0.1096
83222W        W58210  29.528  19.090  16.734  0.1615 -0.1222  0.3939
83223W        W58211  10.373   4.541   7.012  0.0376 -0.0289  0.1155
83224W        W58212  26.838  23.438  24.302 -0.0700  0.0164 -0.1398
83225W        W58213  19.220   2.830   8.232 -0.0935  0.2294 -0.3043
83226W        W58214  25.251   9.952  10.967  0.2631 -0.0042  0.0603
83227W        W58215   7.061  33.861   7.318 -0.2534 -0.0890 -0.0896
83228W        W58216  22.406  23.047  18.694 -0.1064 -0.0883  0.0107
83229W        W58217  21.456  11.315  14.876 -0.0284  0.0329  0.0429
83230W        W58218  33.659  34.217  16.712 -0.1420 -0.3200 -0.0666
83231W        W58219  29.287   3.064  25.196 -0.3151 -0.1337  0.0714
83232W        W58220  16.834   5.570   6.630 -0.1354  0.3079 -0.1925
83233W        W58221  17.150  13.193   5.680  0.1687  0.2550  0.0549
83234W        W58222  12.414  16.037  22.519  0.3810 -0.2435  0.1157
83235W        W58223  13.134  11.912  21.467 -0.0420  0.0204 -0.2472
83236W        W58224  24.385   4.574  23.265  0.0426  0.0325 -0.2363
83237W        W58225  12.148  30.872   3.836  0.0018  0.3220 -0.1363
83238W        W58226   5.797   9.768  17.002 -0.1373 -0.0410 -0.3032
83239W        W58227  34.562  10.177  18.259 -0.0507 -0.1161 -0.1510
83240W        W58228   5.539  12.261  22.305 -0.0322 -0.0357  0.0122
83241W        W58229  24.661   5.311   0.717 -0.0707  0.0579 -0.1759
83242W        W58230  31.392  15.472  17.549 -0.1501  0.1020  0.4261
83243W        W58231  17.016  31.303  24.308 -0.0129 -0.0596  0.1795
83244W        W58232  25.978   5.069  23.822  0.2583 -0.0575  0.0581
83245W        W58233  32.472   7.847  14.630  0.1926  0.1344 -0.2552
83246W        W58234   8.123  27.753   5.738  0.3288  0.0831 -0.1270
83247W        W58235  30.270  23.180  21.314 -0.0077  0.1108  0.1412
83248W        W58236   5.809   0.992   7.089 -0.0424 -0.0648 -0.0135
83249W        W58237  35.236  24.877   0.276  0.0427 -0.0570 -0.1582
83250W        W58238  25.763  17.324  13.731  0.1515 -0.3027 -0.1106
83251W        W58239  29.703   0.592  17.748 -0.3024  0.2582  0.2764
83252W        W58240   8.567   0.099  20.112 -0.0580 -0.3763  0.0214
83253W        W58241  14.843  28.875   9.423  0.0763  0.0538  0.0062
83254W        W58242  10.133  34.591   8.449 -0.0989 -0.0946  0.1776
83255W        W58243   0.990  13.442  11.282 -0.0476 -0.1226  0.1624
83256W        W58244   6.132  24.016  21.865  0.1632 -0.0942 -0.1773
83257W        W58245   7.343   7.876   8.761 -0.0910 -0.1394  0.1027
83258W        W58246   1.142  16.275  21.722 -0.0043 -0.1668 -0.0049
83259W        W58247   7.076   7.566   2.818 -0.2300 -0.1372  0.1229
83260W        W58248   9.635   5.781   3.749  0.0190  0.0254  0.1097
83261W        W58249  23.539  12.279  12.736 -0.1410  0.1311 -0.0244
83262W        W58250  29.724   8.871  18.205 -0.0619  0.1562  0.0250
83263W        W58251  26.951  24.176  22.341 -0.2650  0.3164  0.4050
83264W        W58252  20.490   1.066  22.155  0.3474  0.1037  0.0433
83265W        W58253  17.118  25.939  23.511  0.1379  0.1603  0.1786
83266W        W58254  20.742  29.629   2.136  0.0123 -0.0331 -0.1116
83267W        W58255  18.904  33.060  18.997 -0.0530 -0.0493 -0.2865
83268W        W58256  21.488  19.247  20.646  0.1023  0.1153  0.0824
83269W        W58257  12.115  14.976  22.825  0.1518 -0.0112  0.2354
83270W        W58258   5.727   7.791  17.525 -0.0753  0.3055  0.1214
83271W        W58259  17.386  13.522   2.950  0.0848  0.0914 -0.0954
83272W        W58260  29.246   1.533   3.385  0.1501  0.3188  0.0667
83273W        W58261  19.326   8.822   2.843 -0.1580  0.1521  0.0052
83274W        W58262  33.989  31.453   4.248 -0.1484 -0.2327 -0.0881
83275W        W58263  10.935  27.063  12.197  0.0373 -0.1589 -0.1818
83276W        W58264  30.385  33.706  23.337  0.0182 -0.0791 -0.1505
83277W        W58265  35.120  20.946   1.409 -0.1697 -0.2898 -0.1269
83278W        W58266  29.229  20.980   7.415 -0.3791 -0.1382  0.1624
83279W        W58267   1.567  19.751   0.887 -0.0529  0.3604  0.0090
83280W        W58268   3.671   9.348   8.121  0.1213 -0.0808 -0.2825
83281W        W58269  29.246   3.350   4.269 -0.0878 -0.2631 -0.2034
83282W        W58270  33.756   0.064   0.113  0.1748 -0.0455 -0.0177
83283W        W58271  20.721   0.469  20.633 -0.0975  0.2520  0.1539
83284W        W58272  31.345   1.321   0.113 -0.0373 -0.0011  0.0348
83285W        W58273  16.088   3.717   5.432  0.3028 -0.0209 -0.3699
83286W        W58274  15.671  25.538   9.763 -0.1502  0.1595  0.6321
83287W        W58275  23.627  34.139   5.206  0.0010  0.3181 -0.1921
83288W        W58276  17.033  14.597  11.317 -0.2961  0.0376 -0.2900
83289W        W58277   0.450  27.904  18.480  0.0103  0.0026 -0.2554
83290W        W58278  23.281   6.446  14.855  0.1386 -0.1660 -0.0113
83291W        W58279   2.275   6.778  21.856  0.1764 -0.2708 -0.2100
83292W        W58280  29.226  28.777  11.953  0.0077  0.2415  0.2203
83293W        W58281  10.645  19.463   0.658  0.1672 -0.1723  0.1124
83294W        W58282  32.939  19.344  16.457 -0.0147 -0.0565  0.3251
83295W        W58283   7.581  27.028  22.900 -0.1617 -0.0469  0.0876
83296W        W58284  24.018  28.145   2.182 -0.1607  0.1513  0.1078
83297W        W58285  30.167  34.281  18.832 -0.0720  0.0087 -0.2737
83298W        W58286   7.536  21.207  12.068  0.4058 -0.4014  0.1554
83299W        W58287  15.709  23.272   2.119 -0.1424  0.0885 -0.0611
83300W        W58288   4.233   6.821   4.951 -0.2429  0.0759 -0.1747
83301W        W58289   6.849   2.226  25.349  0.2727  0.1156  0.0436
83302W        W58290   2.418  18.866  18.234  0.1217 -0.0484  0.0756
83303W        W58291  14.097  10.010   6.897 -0.2103 -0.2923 -0.1307
83304W        W58292  10.808  30.191   5.654 -0.1138  0.2677 -0.1372
83305W        W58293  29.300   2.947  11.405 -0.1384  0.2138  0.1963
83306W        W58294  23.962   2.611   0.449  0.1802  0.5607 -0.2582
83307W        W58295  26.703   3.646  19.932  0.1048  0.2894 -0.1646
83308W        W58296  14.326  30.601   4.918 -0.1511 -0.0187  0.0293
83309W        W58297  30.999  17.718  13.099 -0.5601 -0.0271 -0.1034
83310W        W58298  24.007  21.109  19.186 -0.0372 -0.2285 -0.1313
83311W        W58299  15.017  14.157   1.053  0.3770  0.0899  0.0329
83312W        W58300   7.862  27.789  14.340  0.1314  0.0753  0.0351
83313W        W58301  23.490   3.902  17.058  0.2442  0.0477 -0.1917
83314W        W58302  33.705   5.144  19.952 -0.1980 -0.1260 -0.1295
83315W        W58303   6.513  16.770  10.868 -0.2517  0.0965  0.1531
83316W        W58304  25.003  10.585  24.164  0.0280  0.2971 -0.2048
83317W        W58305  34.285  13.391  14.715 -0.1709  0.3285  0.4451
83318W        W58306  29.404  25.431  14.717  0.1962 -0.0803 -0.0377
83319W        W58307  15.149  23.238   0.946 -0.2371  0.0675 -0.2774
83320W        W58308  23.241  28.988  17.222  0.3841 -0.1182 -0.1936
83321W        W58309  11.581   2.161  20.797 -0.1310  0.1075  0.0438
83322W        W58310  17.588  25.003  24.301 -0.2420  0.0650  0.1432
83323W        W58311  12.749   8.166   0.541 -0.0471  0.1021 -0.2886
83324W        W58312  28.198  33.402  13.689  0.2056 -0.1505 -0.0881
83325W        W58313  15.858  31.603  23.854 -0.0169 -0.0675  0.2291
83326W        W58314  13.217  22.426  10.242  0.1714 -0.1395 -0.2410
83327W        W58315  28.013  12.320  14.051  0.3733  0.0783 -0.1489
83328W        W58316  24.242  23.729  13.889 -0.0674  0.0371  0.4991
83329W        W58317  16.839   8.839  24.880 -0.2175 -0.1664 -0.2048
83330W        W58318  21.313   5.813   6.279  0.1932 -0.2682  0.0828
83331W        W58319  30.894  30.690  22.679 -0.0989 -0.0597  0.0754
83332W        W58320   4.344  22.721   4.591 -0.2050 -0.1994 -0.0051
83333W        W58321  25.394  33.807  15.653  0.1902  0.1252 -0.2525
83334W        W58322   3.452  32.334   6.117 -0.0671  0.3305  0.2061
83335W        W58323  31.281  16.076  22.225 -0.0712 -0.3088 -0.2901
83336W        W58324  18.628  32.493  24.098  0.3065 -0.0959 -0.1437
83337W        W58325  10.000  19.846  25.420 -0.0130  0.1007  0.1102
83338W        W58326  22.673   8.151   2.230  0.1866  0.3379 -0.3040
83339W        W58327   0.842   2.866   5.985 -0.3039  0.1401  0.2111
83340W        W58328  22.460  22.451   4.186  0.0768  0.0657 -0.2459
83341W        W58329  10.590  17.404   1.941 -0.2929  0.0297 -0.0074
83342W        W58330  17.535   1.989  26.212  0.1932  0.1912  0.1886
83343W        W58331  27.656  33.103  18.042  0.1527  0.2644  0.1521
83344W        W58332   0.523  19.502   1.756  0.0694 -0.0650  0.0757
83345W        W58333  25.663   9.142  22.566  0.1528 -0.3336  0.0163
83346W        W58334  31.828  30.836  12.062  0.0799 -0.1653 -0.3481
83347W        W58335  29.892  35.068  19.813  0.3208  0.1480  0.0893
83348W        W58336  32.739  26.867  15.248  0.0441 -0.3358 -0.0519
83349W        W58337  10.301   0.194  12.380  0.0276  0.3024 -0.5388
83350W        W58338  24.865  11.725  24.639 -0.0977  0.1615  0.2641
83351W        W58339   2.905  26.050  19.891  0.1787  0.0042  0.3577
83352W        W58340   8.573  14.679   6.720 -0.1216  0.0980  0.1566
83353W        W58341   3.440  14.504  18.424  0.1944  0.0010 -0.2969
83354W        W58342  15.579  22.829   6.122  0.0059 -0.3722 -0.0210
83355W        W58343   2.408  31.653  17.568 -0.0316 -0.0504  0.0164
83356W        W58344   2.901   7.941   0.862 -0.1397  0.1182 -0.5647
83357W        W58345  15.869  31.030   7.022 -0.1246 -0.1514 -0.0178
83358W        W58346  24.310   5.619  24.706  0.1790 -0.2573  0.2634
83359W        W58347   9.064   7.227  26.080  0.0745  0.0046 -0.2363
83360W        W58348  30.591  26.570  15.891 -0.1574  0.0842 -0.0832
83361W        W58349   9.240  22.751   9.675 -0.0531 -0.1995 -0.1088
83362W        W58350  16.436  14.809   9.410  0.0718 -0.4445 -0.1600
83363W        W58351  18.463   4.111  10.269  0.3677 -0.2493  0.0616
83364W        W58352   8.421   4.146   2.931 -0.5392  0.0335 -0.0386
83365W        W58353  12.333  20.737   0.565 -0.0073 -0.3962  0.2935
83366W        W58354   1.136  26.157  20.327  0.0405  0.3828 -0.0576
83367W        W58355   5.847  33.207  12.197 -0.0794  0.2448  0.3456
83368W        W58356  10.070   9.093  11.895  0.0795 -0.1284 -0.0067
83369W        W58357  10.188  12.732  24.488 -0.1899  0.2308 -0.0406
83370W        W58358   0.145  28.945  15.992 -0.1594  0.0273  0.1661
83371W        W58359  32.733  32.536   1.681 -0.0104  0.0091 -0.1958
83372W        W58360   3.038  35.196   1.770 -0.2605 -0.0727 -0.0359
83373W        W58361  25.397  13.854  12.270  0.0947 -0.2882 -0.1615
83374W        W58362  28.921  30.498  10.487  0.0584  0.1343  0.1254
83375W        W58363  10.800  10.984  24.735  0.1688 -0.1449 -0.0527
83376W        W58364  14.164  11.802  12.444 -0.0524  0.0206 -0.1414
83377W        W58365  23.174  18.774  17.417 -0.1527  0.0717 -0.2525
83378W        W58366  34.357  23.334  25.272  0.1730 -0.1191 -0.1665
83379W        W58367  19.220  19.960  10.395  0.1621 -0.2112 -0.2871
83380W        W58368  10.376  11.261  22.113  0.0466 -0.0635 -0.2734
83381W        W58369  22.341   3.884   4.070  0.0814  0.1215 -0.0860
83382W        W58370  19.591  16.052   3.740  0.1070 -0.1385 -0.1075
83383W        W58371  13.332  15.467   9.503 -0.3757 -0.1339 -0.0775
83384W        W58372  10.973   6.122  20.310 -0.1751 -0.1181  0.1917
83385W        W58373  15.710   0.215  18.327 -0.1384 -0.3130  0.0643
83386W        W58374  15.654   5.749  11.771  0.0316 -0.1470 -0.5931
83387W        W58375  18.289  13.478   3.670 -0.0629 -0.0135  0.1331
83388W        W58376  23.467  20.543   0.602  0.2114  0.4292 -0.1124
83389W        W58377   2.412  16.329  23.888  0.1188  0.2509  0.0002
83390W        W58378  26.591   0.956   1.745 -0.0409 -0.1501  0.0679
83391W        W58379  15.660  24.223  11.354  0.0778  0.0211 -0.0615
83392W        W58380  20.486  34.868   4.865  0.0036  0.0975  0.1269
83393W        W58381  29.864  20.400  15.440  0.1486  0.0169  0.0904
83394W        W58382   7.258  12.877   5.258 -0.0526 -0.1784  0.0788
83395W        W58383  26.420  31.899   2.858 -0.0304  0.0647  0.4532
83396W        W58384  10.719  34.917  12.798 -0.0542  0.5689  0.0057
83397W        W58385   9.279  10.377   9.159 -0.1468  0.0011 -0.1477
83398W        W58386   1.863  11.467  23.797  0.0681 -0.0084  0.1458
83399W        W58387  33.243   7.444  15.120 -0.0885 -0.1126  0.0914
83400W        W58388   8.052  32.481  22.056 -0.2811 -0.1527  0.0182
83401W        W58389  18.367   0.589  18.447 -0.4086  0.1431 -0.0935
83402W        W58390  12.776  11.444   8.167  0.2160  0.0263 -0.2597
83403W        W58391  11.055  10.453  23.057  0.0363  0.0837  0.1404
83404W        W58392   4.453   6.720  22.723  0.0744 -0.2523  0.1582
83405W        W58393  31.677  23.874  18.767  0.0021  0.0224  0.0204
83406W        W58394  24.003   7.749  19.822  0.2183 -0.1927 -0.1269
83407W        W58395  31.426  20.407   7.524  0.0635  0.1868  0.0411
83408W        W58396  22.040  26.130   5.333  0.2128  0.2147  0.2372
83409W        W58397   6.607  20.256   6.513 -0.2479  0.1512  0.1768
83410W        W58398  26.701  26.216  24.460 -0.3645 -0.1993  0.0882
83411W        W58399  19.594  15.613  25.801  0.3053 -0.0197 -0.1778
83412W        W58400  30.438  22.640  23.996  0.2490  0.0054 -0.0802
83413W        W58401  19.102  22.172  18.243 -0.0020  0.0650  0.1567
83414W        W58402   7.820  26.556   6.036  0.0632  0.0844 -0.0988
83415W        W58403   9.089  28.946  11.150  0.0175  0.1083 -0.1726
83416W        W58404  17.254  13.854  19.544  0.1992 -0.1105 -0.0374
83417W        W58405  10.407   1.724   6.401 -0.1605 -0.0944 -0.2539
83418W        W58406  28.967  13.826  20.308 -0.1200  0.1914 -0.1883
83419W        W58407  26.646  28.797  18.369 -0.1097  0.0433 -0.4184
83420W        W58408   4.066  34.670   6.633  0.2831  0.0174  0.1087
83421W        W58409  15.097  14.001   7.125  0.1998  0.1501  0.2888
83422W        W58410  17.163  13.185  12.219 -0.1393 -0.3759 -0.1358
83423W        W58411   7.099  11.699  21.648 -0.0354 -0.1461 -0.2244
83424W        W58412   5.636  15.277   0.877 -0.1697 -0.1386  0.2468
83425W        W58413   2.331  15.598   4.223 -0.0031  0.1662 -0.0828
83426W        W58414   9.113  29.356   4.368 -0.1346 -0.0532 -0.5017
83427W        W58415  20.919  21.290  18.390 -0.2145 -0.3421  0.2432
83428W        W58416   7.158  12.164  25.273 -0.0322 -0.0840  0.0148
83429W        W58417  24.348  15.408  16.204  0.3126 -0.1384 -0.3278
83430W        W58418  25.726   9.855  16.776 -0.1041 -0.4360  0.0266
83431W        W58419   0.165  11.796  16.351 -0.1363 -0.0545  0.2541
83432W        W58420  33.859  13.578  16.449  0.1460 -0.0659  0.1800
83433W        W58421   8.238  15.454  22.938 -0.4121 -0.2561 -0.2294
83434W        W58422   1.391   7.279  21.430  0.1236 -0.0755  0.0989
83435W        W58423  21.274  24.775  16.626  0.0793  0.1478  0.1933
83436W        W58424   4.589  19.292  22.997 -0.4362  0.1740 -0.0056
83437W        W58425  20.984   4.407   8.664 -0.1061 -0.1841 -0.1263
83438W        W58426  31.096  35.126  26.038 -0.1299 -0.0872  0.2628
83439W        W58427  12.948   1.887  13.088  0.0101  0.3143 -0.1868
83440W        W58428  21.933  12.660  22.057 -0.7171 -0.1270 -0.2361
83441W        W58429  23.083   9.169  24.449  0.0502 -0.0046 -0.0446
83442W        W58430  28.165  29.605   4.860  0.0400  0.3241  0.2429
83443W        W58431  21.502  15.168  22.389 -0.0585 -0.2866  0.1071
83444W        W58432  13.241  25.417   7.014  0.2354  0.0824 -0.0362
83445W        W58433  31.339   8.747  12.775 -0.0743 -0.3079  0.0210
83446W        W58434  15.637  25.250  26.040 -0.2021  0.0753 -0.0949
83447W        W58435  10.822  21.814  23.198  0.3874 -0.0170  0.0745
83448W        W58436  11.199  16.770   7.205  0.0409  0.0521 -0.1558
83449W        W58437  20.760   3.908  21.708  0.1752 -0.0358 -0.4274
83450W        W58438  15.929  16.100  11.384 -0.1113  0.0004 -0.1744
83451W        W58439  10.847  24.320   6.620 -0.2612  0.0051 -0.2422
83452W        W58440  16.062   8.088  24.099 -0.0179 -0.2195 -0.1740
83453W        W58441   6.520  19.513  26.064 -0.1802  0.3441 -0.4217
83454W        W58442   7.701   4.287  19.668 -0.1668 -0.2601 -0.1822
83455W        W58443  27.349   8.712  22.659  0.1822 -0.1634 -0.0528
83456W        W58444  33.270   7.709  25.099  0.5547 -0.1753  0.1047
83457W        W58445  30.648  22.083  10.487  0.1292  0.2088  0.3651
83458W        W58446  12.195  34.937   8.808  0.1856  0.1563 -0.2118
83459W        W58447  34.398  25.887   3.538 -0.0113  0.2563 -0.1382
83460W        W58448  28.568  22.055  22.156 -0.1407 -0.0086 -0.5577
83461W        W58449   9.305  25.674   9.740  0.0906 -0.1009 -0.0976
83462W        W58450  22.298   4.559  17.295 -0.0016 -0.1959 -0.1223
83463W        W58451  25.243  31.323   4.460  0.2356  0.0860  0.0952
83464W        W58452  33.922  21.501  11.813 -0.1208 -0.1589 -0.5527
83465W        W58453  20.391  15.669  17.250  0.1407 -0.0114 -0.0230
83466W        W58454  25.832   9.902  22.673  0.1753 -0.0066 -0.0138
83467W        W58455  23.629  23.726  22.521  0.0176  0.0105 -0.0487
83468W        W58456  13.894  22.129  24.623 -0.0277 -0.0061  0.4907
83469W        W58457   4.398  20.939   1.674 -0.0655 -0.1612  0.0880
83470W        W58458  22.082  16.118  13.536  0.1854  0.0369  0.1797
83471W        W58459   7.404   9.765   0.613  0.0494 -0.0409 -0.2073
83472W        W58460  29.233   1.823  24.200 -0.2406  0.0212 -0.1813
83473W        W58461   9.777  28.773  13.903  0.3444  0.2659 -0.0643
83474W        W58462   8.768  30.360  10.224  0.0430 -0.2594  0.1724
83475W        W58463  18.815  30.702  22.379 -0.1422 -0.1392  0.2949
83476W        W58464  18.836  30.086  17.210  0.0364 -0.0354 -0.1045
83477W        W58465  22.422   5.403   3.746  0.0363  0.2037  0.1210
83478W        W58466   5.640  10.487   6.392  0.2454 -0.1637  0.0055
83479W        W58467  28.557  10.448  20.091 -0.2557  0.1765 -0.1606
83480W        W58468  35.254  25.636  21.564 -0.1119  0.1397 -0.2295
83481W        W58469   9.405  18.552   9.089  0.1371  0.1950  0.1862
83482W        W58470   3.703  11.221   0.222  0.2453  0.2524  0.0650
83483W        W58471  14.287  23.583   9.139  0.4004  0.0752  0.0490
83484W        W58472  34.312   5.627  20.648  0.1646 -0.1774 -0.0535
83485W        W58473  24.782  26.181  10.918 -0.1484 -0.1812  0.1426
83486W        W58474  18.564  30.034   2.398  0.0033 -0.0081 -0.2018
83487W        W58475  33.311   2.853   1.320 -0.0002  0.1198 -0.0891
83488W        W58476   5.633  30.596   5.048 -0.0792  0.1019 -0.1592
83489W        W58477  24.934  14.239  18.007  0.0948  0.1498  0.2961
83490W        W58478  15.648   8.726  20.568 -0.1083  0.0062 -0.0933
83491W        W58479   9.310  18.017  21.661  0.2024  0.1363  0.1392
83492W        W58480  26.100  18.284  18.601  0.0683 -0.0697 -0.1202
83493W        W58481  27.615   8.687  17.284 -0.0300  0.0209 -0.0868
83494W        W58482   2.825  15.950   1.896 -0.1702  0.2624 -0.0571
83495W        W58483  13.240  32.213   5.069 -0.0377 -0.1218 -0.0524
83496W        W58484   5.079   4.373   8.846 -0.1294 -0.2104 -0.0231
83497W        W58485  14.504  19.798   4.755  0.0531 -0.2439 -0.0191
83498W        W58486  30.355  28.347   0.619 -0.2319  0.1760  0.1936
83499W        W58487  27.731   4.085  21.448  0.3765  0.1139  0.3284
83500W        W58488  19.479  28.814   1.487  0.0773  0.2860 -0.0191
83501W        W58489  35.103  18.569  19.574  0.0294  0.1368 -0.0525
83502W        W58490  22.394  29.538  12.579 -0.0545 -0.2856  0.0812
83503W        W58491  17.631  11.969   7.118  0.1422  0.0151  0.1760
83504W        W58492  32.366  11.813  15.480  0.0720  0.3071 -0.1343
83505W        W58493  31.557  27.187  26.034  0.5158  0.0165 -0.0853
83506W        W58494  33.343   4.002  19.840 -0.0245 -0.1586 -0.1522
83507W        W58495  23.339   9.006   0.109 -0.1116 -0.0473 -0.0810
83508W        W58496  32.462  15.799  11.088  0.0297 -0.1150  0.2257
83509W        W58497  25.522  35.034  23.601  0.1559  0.0685 -0.0223
83510W        W58498  21.538   2.977   3.065 -0.0304  0.2034  0.1985
83511W        W58499  14.006   8.121   9.505  0.1339  0.1224  0.1463
83512W        W58500  32.108  15.996   0.076  0.0196 -0.1124  0.0507
83513W        W58501   2.173  13.562  25.188  0.1489  0.2263  0.3135
83514W        W58502  11.626  26.559  10.304  0.1869  0.1403  0.2653
83515W        W58503   7.323  31.319  14.351  0.1608  0.0018 -0.0447
83516W        W58504   4.414  33.405  19.312  0.0803  0.0881  0.1874
83517W        W58505  24.235  33.147   4.235  0.2402  0.1285  0.0422
83518W        W58506   1.543  34.490   5.232  0.2316  0.0023  0.2694
83519W        W58507  15.480   8.917  21.024 -0.0774  0.2827 -0.3154
83520W        W58508  24.827  13.738  14.914  0.0672  0.0693 -0.0037
83521W        W58509  18.428   2.502   5.179  0.0608  0.0801  0.0120
83522W        W58510  19.798  17.496   7.328 -0.1470  0.0618  0.0105
83523W        W58511   0.584   6.023  15.830 -0.0027 -0.3613 -0.1699
83524W        W58512   4.099  26.204  12.225  0.1550  0.1405  0.0601
83525W        W58513  25.269  29.912  12.607  0.0043 -0.2037 -0.6529
83526W        W58514   9.122   3.187  19.654  0.0565  0.0240 -0.0612
83527W        W58515  25.085  23.764  22.297  0.1416 -0.1262  0.1721
83528W        W58516  17.829  10.748  24.494  0.1200  0.0714  0.2250
83529W        W58517  25.918  33.887  15.115  0.3769 -0.0129  0.0040
83530W        W58518  30.450  23.001  22.359 -0.2237  0.0482  0.0704
83531W        W58519  31.204   6.484  15.254 -0.0726 -0.0376 -0.1798
83532W        W58520  30.692  35.342  11.626 -0.0016  0.0975  0.0572
83533W        W58521  19.279  29.283   3.219 -0.1825  0.2719 -0.0186
83534W        W58522   0.563  21.725  16.864  0.3492  0.1334 -0.3005
83535W        W58523   6.009  18.813   0.715  0.2188 -0.0886 -0.1414
83536W        W58524  14.728  23.241   2.232  0.2982 -0.2171 -0.3146
83537W        W58525  11.895  12.147  21.914  0.1053 -0.1200  0.0877
83538W        W58526   5.997  12.609  22.406 -0.2151  0.2528  0.0444
83539W        W58527  28.139   0.295  13.792 -0.0431  0.0716  0.0505
83540W        W58528  31.753  17.040   9.207 -0.1035  0.0418  0.1962
83541W        W58529  25.351   9.612  22.730 -0.1304  0.0336  0.1251
83542W        W58530  30.463  29.825   4.868 -0.0886  0.1145  0.1753
83543W        W58531  13.596  27.275  17.603 -0.2186  0.2298 -0.0468
83544W        W58532  26.402  26.404  22.717  0.1008  0.0153 -0.0682
83545W        W58533  30.616  31.735   5.166 -0.3252 -0.1915  0.1575
83546W        W58534  15.189  29.462   8.881  0.0455  0.2241  0.0963
83547W        W58535  32.962   1.046  18.246 -0.0822 -0.0708  0.0200
83548W        W58536  28.882  19.019  15.319 -0.0121 -0.0723  0.0382
83549W        W58537  25.111  10.524  25.392 -0.2821 -0.0024  0.0919
83550W        W58538   2.148  20.881  13.985  0.1072  0.2801  0.4494
83551W        W58539  23.196   1.949  14.554  0.1063  0.2911  0.0889
83552W        W58540   5.933  31.594   7.028  0.1106 -0.0355 -0.0561
83553W        W58541  16.008  30.365   6.995 -0.1182 -0.0275  0.1869
83554W        W58542  27.077  27.275  25.017  0.1074 -0.4508  0.2816
83555W        W58543  17.947   0.095  22.948 -0.0019 -0.1049 -0.1425
83556W        W58544  27.796  16.851  25.606  0.2350  0.3886 -0.0240
83557W        W58545  16.982   8.306  21.241  0.1328 -0.0516 -0.0953
83558W        W58546  11.646  34.220  13.176  0.0966  0.0291  0.0281
83559W        W58547   0.334  18.821  15.938  0.0858 -0.0654 -0.1141
83560W        W58548  10.145  27.875  21.826 -0.0185  0.3227  0.0039
83561W        W58549  19.523   9.050  17.201 -0.1683 -0.0965  0.0037
83562W        W58550  33.077  19.297  15.119  0.2393  0.1233 -0.1428
83563W        W58551  28.451   6.400  13.229 -0.1601  0.1169  0.0137
83564W        W58552  26.032  22.504  11.725 -0.0824  0.0608  0.1094
83565W        W58553  18.011  34.353  21.253  0.2009  0.0808  0.1039
83566W        W58554  25.967  26.369  14.859 -0.0314 -0.1923  0.2131
83567W        W58555  19.488   6.895   3.073 -0.1175 -0.1152  0.0048
83568W        W58556   0.690  15.149  12.352 -0.0066  0.1435 -0.0902
83569W        W58557  25.501  34.053  12.568  0.1183 -0.0517 -0.2856
83570W        W58558  33.595   1.003   0.259  0.0056 -0.2007 -0.0642
83571W        W58559  31.048  11.819   9.418 -0.0648 -0.0277 -0.0491
83572W        W58560  31.385  28.909  24.925  0.2095 -0.0829 -0.4982
83573W        W58561  10.171  10.063   3.357  0.1045  0.1920 -0.0095
83574W        W58562   7.793  22.156  12.851  0.0776 -0.1473 -0.0124
83575W        W58563  12.865  29.183  11.231  0.1860  0.1367 -0.1178
83576W        W58564  28.345  18.614  20.423 -0.1002  0.1442 -0.5030
83577W        W58565  21.795  11.534  25.631  0.1023 -0.0228 -0.4357
83578W        W58566  32.783  31.896   0.432  0.2394  0.1030 -0.0155
83579W        W58567   2.921  18.208  20.226  0.0288 -0.1436 -0.0249
83580W        W58568  21.762  19.788  22.594 -0.1860  0.0506 -0.0051
83581W        W58569   7.602  11.363   9.523  0.1083  0.3607  0.3132
83582W        W58570  19.412  28.571   2.748 -0.3217 -0.0753 -0.4111
83583W        W58571   8.120   1.026  21.927  0.0740 -0.1095  0.3515
83584W        W58572  35.103  18.660  25.014  0.0056 -0.0670 -0.5448
83585W        W58573   6.079  31.399  24.005  0.0451  0.0907  0.0607
83586W        W58574  24.959   1.469  22.484 -0.2707 -0.0884 -0.0506
83587W        W58575  11.460   6.168  21.611 -0.0202  0.2826 -0.0063
83588W        W58576   4.098  27.660  21.126  0.0037  0.1557 -0.2382
83589W        W58577   2.467  34.771   5.975 -0.1888  0.3346  0.5255
83590W        W58578  30.821   4.379   1.046  0.1103  0.0502  0.0280
83591W        W58579  33.109   8.430  15.350  0.1400  0.1895 -0.0184
83592W        W58580  28.562  34.832  16.723  0.1320  0.3741  0.0290
83593W        W58581  11.395  25.887   8.133 -0.2653  0.0488  0.1665
83594W        W58582  19.725  31.022  25.444 -0.1433 -0.2666  0.4615
83595W        W58583   8.885  11.383  10.504 -0.2384 -0.4786  0.1639
83596W        W58584   7.753  26.624  11.549  0.1430  0.0128 -0.0329
83597W        W58585  11.367  31.728   3.242 -0.2998 -0.0408 -0.0650
83598W        W58586  31.757   4.196  21.590  0.0358  0.2028  0.2116
83599W        W58587  17.558   7.507  21.582  0.0751 -0.0630  0.0971
83600W        W58588  16.169  35.091  22.491 -0.3207 -0.0584  0.1275
83601W        W58589  31.805  28.324  23.649  0.2149 -0.1547 -0.1642
83602W        W58590  26.977  25.862  13.399 -0.3074 -0.0463 -0.0857
83603W        W58591   9.532  17.691   9.547  0.1139  0.2302  0.0725
83604W        W58592  18.186   1.183   2.878 -0.0886  0.0066  0.0804
83605W        W58593   5.351  28.659   1.586  0.4057  0.0710  0.1890
83606W        W58594  25.144   5.021  16.746 -0.1745 -0.2404  0.0184
83607W        W58595  28.457   8.504  18.906 -0.1749  0.2106  0.1399
83608W        W58596  10.239  20.371  22.771 -0.1059 -0.0527 -0.0739
83609W        W58597  11.439  18.421   8.266 -0.1696  0.0483  0.0183
83610W        W58598  13.270  33.974  21.699 -0.0460 -0.1744  0.1531
83611W        W58599  34.445   0.566   6.876 -0.2181 -0.1915  0.3158
83612W        W58600  12.707   0.243  20.846  0.1738  0.4065  0.1295
83613W        W58601  11.706  11.724   7.760  0.0005  0.3490 -0.1064
83614W        W58602  23.449  30.266   3.890  0.3172 -0.1401  0.2164
83615W        W58603  23.475   8.714  25.407 -0.0837 -0.2384  0.0529
83616W        W58604  29.576  23.135   6.851  0.0810 -0.3230 -0.3400
83617W        W58605  25.975  16.568  17.499  0.2364  0.1907 -0.4000
83618W        W58606  15.230  25.812  22.586 -0.0363 -0.3683  0.1058
83619W        W58607  34.005   1.601  20.703 -0.0852 -0.1284  0.0176
83620W        W58608  17.469   6.421   3.780 -0.1012 -0.0603  0.1650
83621W        W58609  27.175  21.332  21.987  0.1018  0.2577 -0.1506
83622W        W58610   5.178  10.293   8.571  0.0465 -0.1076  0.0929
83623W        W58611   8.549  25.548  14.520  0.4519 -0.1054 -0.0522
83624W        W58612  11.777  11.831   8.272  0.1412  0.1845  0.0510
83625W        W58613  11.246   5.523  20.802 -0.1789 -0.1868 -0.0897
83626W        W58614  22.583   6.731  19.247 -0.2905  0.0466 -0.0513
83627W        W58615  10.576  11.548  19.446 -0.0779 -0.1599  0.0136
83628W        W58616  21.592  11.551  14.404 -0.5116  0.3047  0.2168
83629W        W58617  14.044   9.813  12.206 -0.1680  0.1657 -0.3129
83630W        W58618  10.828   5.039  23.601  0.1548  0.0407 -0.1412
83631W        W58619   7.989  25.656  21.857  0.1199  0.1530  0.0778
83632W        W58620  24.000   4.369  16.500  0.0412  0.0419 -0.0324
83633W        W58621  26.435  16.905   8.431  0.0616 -0.0480  0.2596
83634W        W58622  15.482  33.491  10.304  0.0569  0.2611 -0.1493
83635W        W58623  33.470  17.761   9.378 -0.0692 -0.0846 -0.0151
83636W        W58624  15.120   8.429   4.163  0.2896 -0.0738  0.0052
83637W        W58625  35.221   6.457   4.410  0.4730  0.0462  0.1635
83638W        W58626  22.716  35.077  24.320  0.0185  0.0862  0.1888
83639W        W58627  20.296  30.799   4.340 -0.1568 -0.2317 -0.3800
83640W        W58628  16.290  15.376  22.412  0.1140  0.1412 -0.0050
83641W        W58629  13.213  20.520  11.162  0.0147  0.2481  0.1097
83642W        W58630  24.596  13.684  18.239 -0.0892 -0.0925 -0.3721
83643W        W58631  18.400  15.719   5.047 -0.0335 -0.0325 -0.1596
83644W        W58632  30.274  27.126  18.430  0.0087  0.1405 -0.0091
83645W        W58633  31.276   7.347  17.514  0.2287  0.1467  0.0041
83646W        W58634  27.459  28.316  13.352  0.2964  0.0315  0.2717
83647W        W58635  31.456  27.264  19.535 -0.1488  0.2200  0.1117
83648W        W58636  25.520  19.150   9.903  0.0973 -0.0938 -0.3764
83649W        W58637  21.355  11.531  22.991  0.2863 -0.1734 -0.0232
83650W        W58638  21.066  34.909   3.512 -0.0487  0.0206  0.2204
83651W        W58639  25.359   8.998  13.602  0.0327 -0.0396  0.0695
83652W        W58640  10.011  20.117  22.098 -0.2391  0.1452  0.0570
83653W        W58641  27.173   7.924  23.035 -0.1761  0.1766 -0.0297
83654W        W58642  22.548  13.555  20.492 -0.4094  0.2538  0.2317
83655W        W58643  28.220  10.863  21.033  0.0517  0.2380 -0.0293
83656W        W58644  19.824  14.219   7.729 -0.0529  0.2612 -0.3577
83657W        W58645  25.884  33.403   5.823  0.0418  0.0264 -0.3385
83658W        W58646  32.438  26.308  16.619  0.1072 -0.2825 -0.1705
83659W        W58647  21.493  18.048  23.430 -0.0227 -0.0793 -0.0653
83660W        W58648  20.807   1.832   5.084 -0.0551  0.2012  0.0221
83661W        W58649  28.358  30.266  15.809 -0.1795  0.1275  0.0543
83662W        W58650   6.476  13.271  24.091  0.2084  0.0750 -0.3397
83663W        W58651  13.814  34.862   7.856  0.6513 -0.1117  0.3477
83664W        W58652  13.574  31.948   1.977  0.2039  0.1747  0.2439
83665W        W58653  17.970   7.158  25.751  0.0169 -0.2401 -0.0246
83666W        W58654  10.145   9.988   9.959 -0.3218 -0.1219  0.0194
83667W        W58655   2.935  30.436  24.586 -0.2375  0.0851 -0.1186
83668W        W58656  27.770  32.034  14.521 -0.2094  0.1677  0.0825
83669W        W58657  27.828  31.803   0.749  0.0993  0.1905 -0.3076
83670W        W58658  30.129  25.198  21.051 -0.1249 -0.1808 -0.0414
83671W        W58659   2.651  28.783   5.137 -0.0758 -0.2264  0.0317
83672W        W58660  27.396  11.123  13.390 -0.2977 -0.2276  0.0374
83673W        W58661   6.487  24.996  11.051 -0.1068 -0.1694 -0.0826
83674W        W58662   4.355   6.343   8.864  0.0528 -0.0381  0.1851
83675W        W58663  35.191  13.804   9.376  0.1728 -0.3285  0.2437
83676W        W58664   6.917  29.778  23.593 -0.0308 -0.0395 -0.0387
83677W        W58665  31.872  10.330  23.347  0.0433  0.0430 -0.2352
83678W        W58666  11.782   4.419  20.325 -0.0833  0.1659 -0.2281
83679W        W58667  31.279   8.565   2.019 -0.0921  0.0594 -0.0835
83680W        W58668  28.392  34.862  11.530  0.0406  0.1045 -0.1193
83681W        W58669  26.919  20.687  15.414 -0.1001 -0.0606  0.0807
83682W        W58670  10.904  33.529  13.623 -0.3928 -0.1150  0.0375
83683W        W58671  14.527   6.791  19.391  0.3024 -0.3980 -0.0427
83684W        W58672  28.985  33.403  11.616  0.1631 -0.1605  0.3106
83685W        W58673  20.972   3.169   4.243  0.1807 -0.0717  0.0645
83686W        W58674   8.903  20.833  25.444 -0.1217 -0.0945  0.0392
83687W        W58675   3.855  33.691   9.806 -0.3544  0.4032  0.0080
83688W        W58676   9.109  34.530  11.946  0.1470 -0.3142 -0.2292
83689W        W58677   5.834   4.070  22.174  0.1125 -0.1385 -0.0940
83690W        W58678  31.433  30.421  23.512 -0.0863 -0.1004 -0.3612
83691W        W58679  27.201  10.571   0.537 -0.3036 -0.0011 -0.1924
83692W        W58680  18.673   0.385   0.854  0.3625  0.0237 -0.1075
83693W        W58681  11.535   3.486  13.168 -0.2079  0.0334 -0.0205
83694W        W58682   9.648  13.792   7.232 -0.0679 -0.1046 -0.3142
83695W        W58683  26.011  10.527   1.051 -0.4106 -0.0165  0.0272
83696W        W58684   8.591  20.641  24.476 -0.2221 -0.1422  0.2530
83697W        W58685  10.692  24.104  15.980  0.0030 -0.0423  0.2714
83698W        W58686  18.387  20.041  25.039 -0.2536  0.2313  0.0106
83699W        W58687  14.325  29.071  22.915  0.0170 -0.0490  0.0963
83700W        W58688  23.853  13.531  14.882  0.1129  0.2203  0.5309
83701W        W58689  22.081  24.637   0.473 -0.1806 -0.1931  0.1729
83702W        W58690  18.914  16.064  22.857 -0.1085 -0.4233  0.0800
83703W        W58691   6.685  19.518   7.184  0.5264 -0.2024 -0.0834
83704W        W58692  13.663  16.441   7.144  0.1766 -0.0878 -0.3033
83705W        W58693   9.600   4.051   2.269  0.2537 -0.3659  0.0160
83706W        W58694  14.347  25.055   2.353  0.0972 -0.0189 -0.0427
83707W        W58695  26.886  18.864  15.236 -0.1762  0.0655  0.2198
83708W        W58696  28.217  30.218  23.599  0.0265 -0.3073 -0.0989
83709W        W58697   5.846   0.327   5.561 -0.1891 -0.1198 -0.2471
83710W        W58698  22.542   1.551  21.830 -0.1040  0.0905 -0.1805
83711W        W58699   4.602   9.159   2.255 -0.3109 -0.2608 -0.1978
83712W        W58700  14.275  29.088   6.720  0.0243 -0.2514  0.1008
83713W        W58701  19.072   0.941   7.568 -0.1888 -0.0326  0.2100
83714W        W58702   7.527  30.619  23.560 -0.1437 -0.0381 -0.0576
83715W        W58703  27.173   5.744   9.315  0.0542 -0.0873  0.0948
83716W        W58704   5.746   8.224  17.734 -0.3058 -0.1239  0.0470
83717W        W58705   8.818  14.468   3.802 -0.2497 -0.1299  0.1560
83718W        W58706   6.438  30.709   0.833 -0.0494  0.1059  0.0087
83719W        W58707  29.361  11.607   7.232 -0.1362 -0.1577  0.0265
83720W        W58708  30.286  25.003  15.302 -0.3272 -0.1328 -0.4048
83721W        W58709  16.482   4.621   0.109  0.1019 -0.2776  0.0735
83722W        W58710  27.489  17.499  18.223  0.1393  0.0012 -0.1627
83723W        W58711  33.579  27.960  14.084 -0.0193  0.1778  0.1395
83724W        W58712  27.671   9.030  21.725 -0.1629  0.2240 -0.0363
83725W        W58713  11.920  10.829  19.411  0.1782 -0.0285  0.0145
83726W        W58714  34.510  16.369  12.917  0.0618  0.2202 -0.1418
83727W        W58715  28.172  12.401  21.698 -0.1271  0.3315 -0.0047
83728W        W58716  30.270  33.019  23.953 -0.1479  0.1413  0.0397
83729W        W58717  29.849  22.337  18.570 -0.0866  0.0216  0.2757
83730W        W58718  33.844   2.512  26.209  0.1382 -0.2176 -0.1994
83731W        W58719  19.156  20.840  21.182  0.0246 -0.0481  0.0550
83732W        W58720  16.838  16.953   0.756  0.0180 -0.3040  0.1572
83733W        W58721   6.528   5.346   0.304 -0.1123  0.2179 -0.2097
83734W        W58722  32.161  25.094  12.192 -0.3276  0.0386 -0.1161
83735W        W58723  24.104  15.039  23.827 -0.0836  0.3081  0.1358
83736W        W58724  10.532  25.519  24.803 -0.1461 -0.0190 -0.0830
83737W        W58725  33.639   4.697   2.794 -0.0888 -0.1429 -0.3132
83738W        W58726  13.980   1.823   2.784  0.1705 -0.0410  0.4310
83739W        W58727  20.870  15.437  21.704  0.2668 -0.0606 -0.2553
83740W        W58728  14.781  27.733  25.687  0.0062  0.0703 -0.3763
83741W        W58729   6.124  12.470   3.944 -0.0247 -0.1014  0.0537
83742W        W58730  26.230   8.542  22.326 -0.0515 -0.1581  0.0072
83743W        W58731  14.001   2.006  22.980 -0.2178 -0.0746  0.2674
83744W        W58732   8.285  15.693  18.328 -0.0780  0.0569 -0.0054
83745W        W58733  12.907  17.761  22.321 -0.2402 -0.3951 -0.0553
83746W        W58734  27.525  15.813   8.403 -0.0353 -0.0053  0.0396
83747W        W58735  32.712  20.138  19.660 -0.2689 -0.0500  0.1660
83748W        W58736   9.752   1.869  20.786  0.1933  0.1836 -0.1257
83749W        W58737  24.031  33.504   5.952 -0.0912 -0.1347 -0.1068
83750W        W58738  29.848  18.492  14.953  0.0183 -0.2278  0.0615
83751W        W58739  13.868  33.026   0.361  0.0975  0.0342 -0.4127
83752W        W58740   6.034  23.495   6.415 -0.0439  0.1416 -0.1130
83753W        W58741  25.899  18.738  12.178  0.1141  0.3776 -0.2893
83754W        W58742  13.884   4.288  12.020 -0.1751 -0.0060 -0.0899
83755W        W58743  15.457  32.833   3.129 -0.1458  0.0744 -0.0386
83756W        W58744  16.776  16.445  11.198  0.0402  0.2748  0.1118
83757W        W58745  28.128  28.378  10.946  0.2658 -0.2692  0.0337
83758W        W58746  35.121  18.141   9.551  0.2290 -0.0732  0.3437
83759W        W58747   0.297  34.180  26.113  0.0831 -0.1336 -0.2284
83760W        W58748  13.631  32.809   1.913 -0.0686  0.1483 -0.1854
83761W        W58749   7.012  10.119  24.047  0.0627  0.1067  0.0436
83762W        W58750   7.079  17.533  24.244 -0.0424  0.0496 -0.1544
83763W        W58751  34.195   8.379   0.632 -0.1220 -0.0224 -0.3968
83764W        W58752   0.903   1.424  18.644 -0.0398  0.1559 -0.0923
83765W        W58753   9.625  17.809   4.501  0.1292 -0.1579 -0.0064
83766W        W58754   7.493  27.402  14.560 -0.0184 -0.1482  0.1672
83767W        W58755  15.474   5.684   6.492  0.0164  0.0263 -0.0437
83768W        W58756   6.939   7.088   6.093  0.0360  0.3362 -0.1038
83769W        W58757  24.624  32.475   3.777 -0.2309 -0.0674 -0.1912
83770W        W58758   1.808   4.971   5.672  0.0610  0.0432  0.1587
83771W        W58759  28.189  12.563  22.686 -0.2410  0.1955 -0.1952
83772W        W58760   3.755   1.233  21.213 -0.4419  0.0485  0.0138
83773W        W58761  12.864   7.903   1.845  0.1831 -0.0255  0.2376
83774W        W58762  26.708   7.219  13.833 -0.0695 -0.1882 -0.1593
83775W        W58763  33.183  18.754  10.573  0.2057 -0.2780 -0.1964
83776W        W58764  27.802  17.861  25.584  0.0811 -0.1494 -0.1707
83777W        W58765  34.130   8.708   1.609  0.0614  0.2837 -0.1677
83778W        W58766   9.139   0.245  12.746 -0.0452  0.0594  0.4553
83779W        W58767  27.944  34.553  20.833 -0.0185  0.2330  0.0392
83780W        W58768  27.781  24.900  11.284  0.2189  0.1170  0.1906
83781W        W58769  24.792  24.694  20.753 -0.0360 -0.0262  0.0155
83782W        W58770  28.740  32.713   2.090 -0.5909  0.2043 -0.0406
83783W        W58771  29.230  31.046  11.922 -0.3354 -0.1938  0.3778
83784W        W58772  10.243   2.153  14.108  0.4132 -0.3102  0.1759
83785W        W58773  31.255  29.193   0.499 -0.0626 -0.2372  0.1705
83786W        W58774   4.962  26.715  26.029 -0.0569 -0.4329 -0.3853
83787W        W58775   9.246  30.069   9.430 -0.0614 -0.1280  0.0426
83788W        W58776   8.736  33.880   7.331  0.0248 -0.1900  0.2661
83789W        W58777  11.930  31.100  14.532 -0.1562 -0.1275 -0.1194
83790W        W58778  22.806  11.098  16.587 -0.1627  0.1281 -0.1812
83791W        W58779  34.499  18.747  18.325 -0.1129 -0.0404  0.4047
83792W        W58780   3.872   6.571  16.229  0.2746  0.1400 -0.2471
83793W        W58781  33.846  29.555  25.074 -0.1550 -0.1545  0.1921
83794W        W58782  11.578  14.631   0.205 -0.2707  0.0974  0.0147
83795W        W58783   0.455  33.545   7.242  0.0746  0.2310  0.1072
83796W        W58784   4.043  25.309  25.495  0.0299 -0.1348 -0.1145
83797W        W58785   2.851  33.846   1.054 -0.0379  0.2731  0.2808
83798W        W58786   0.300   8.348   1.740  0.0070 -0.2593  0.0637
83799W        W58787  19.295  24.401  19.506  0.2792 -0.2580  0.3586
83800W        W58788  11.702  25.636  15.802  0.2845  0.0199 -0.1909
83801W        W58789  18.441   4.593  19.518 -0.1467  0.0906 -0.3627
83802W        W58790   5.276  25.930   9.185  0.0443 -0.6222 -0.1289
83803W        W58791   5.350   0.471  23.081 -0.1633  0.5661  0.0138
83804W        W58792  13.563  28.995   3.039 -0.0922 -0.2798 -0.2642
83805W        W58793  30.645  14.057   8.357 -0.0503 -0.1718  0.0213
83806W        W58794  24.049   3.730  21.087  0.1515  0.4100 -0.1198
83807W        W58795  34.761  20.618   0.652  0.0397  0.1456 -0.1029
83808W        W58796  32.803   4.704  12.513 -0.0003 -0.2111  0.0504
83809W        W58797  11.068  26.193  14.568  0.1630  0.2525 -0.2474
83810W        W58798  28.433  27.402  11.811  0.1368  0.2557  0.1303
83811W        W58799   6.031  20.357   3.248  0.0145  0.0735  0.1462
83812W        W58800   5.903   3.022  21.746  0.1227 -0.2744 -0.1646
83813W        W58801  16.846  30.979  24.657  0.0026 -0.1515  0.1002
83814W        W58802   5.493  19.229  23.431 -0.0238 -0.1610 -0.1822
83815W        W58803  34.051  26.772   1.496 -0.1575  0.0926 -0.2017
83816W        W58804  13.234   3.168  20.026  0.0304  0.0736 -0.1006
83817W        W58805  18.445  32.811  17.560 -0.3259 -0.0103  0.2510
83818W        W58806  32.866   7.556   1.731 -0.2948  0.2939 -0.1641
83819W        W58807   4.498  11.501   8.173  0.2874 -0.0117 -0.0642
83820W        W58808  33.071   0.052   4.181 -0.0645  0.0076  0.0069
83821W        W58809  24.441   4.381  22.436 -0.3400 -0.0528 -0.2762
83822W        W58810  13.670   8.074  21.387  0.1377  0.0225  0.0658
83823W        W58811  22.538  29.196  17.462 -0.0396  0.0070 -0.1678
83824W        W58812  18.159   8.015   9.305 -0.0994 -0.1095  0.2388
83825W        W58813  25.812  24.601  15.365 -0.1544 -0.2186 -0.0657
83826W        W58814  34.487  15.994  21.887 -0.3473 -0.0651 -0.0898
83827W        W58815  19.812   2.199  23.549 -0.1129 -0.0271 -0.0466
83828W        W58816   6.280  27.314  12.531  0.0190  0.1885  0.1065
83829W        W58817  13.841  13.896   4.026  0.0037  0.1827  0.1692
83830W        W58818  25.621  28.174   9.324 -0.0088 -0.0577  0.1344
83831W        W58819  31.797   6.965  18.087 -0.0780 -0.0050 -0.0723
83832W        W58820  29.763   8.179  22.027  0.0262 -0.0640 -0.2112
83833W        W58821   3.911  11.697   1.570  0.1882  0.0904 -0.2599
83834W        W58822  31.766  35.129  12.698  0.0046  0.4826  0.0533
83835W        W58823  12.570   8.975   0.725 -0.1521 -0.0235 -0.1710
83836W        W58824   9.007  29.081  10.268  0.0573 -0.1670  0.4080
83837W        W58825  29.293  16.605   4.380  0.0726 -0.1364 -0.0210
83838W        W58826  31.620   7.612  19.501  0.1680  0.1214  0.3938
83839W        W58827   8.595   1.951  23.240 -0.3727  0.0392  0.0654
83840W        W58828  27.710   4.704  20.535  0.0749  0.0599 -0.0824
83841W        W58829  16.375  17.659   7.492 -0.1487  0.1539  0.1010
83842W        W58830  24.086  31.558  15.710 -0.0267  0.0047 -0.2356
83843W        W58831  19.180  12.929  10.452 -0.2568  0.0358 -0.6298
83844W        W58832  20.631  31.625  25.179  0.0268  0.0245 -0.1171
83845W        W58833   3.556  12.744  16.767 -0.0696 -0.1933  0.1558
83846W        W58834  16.755   1.925  18.818 -0.1177  0.1718 -0.2825
83847W        W58835  15.212   2.785  17.743 -0.2710  0.0622 -0.1475
83848W        W58836  17.152   5.103  22.754 -0.1135  0.1476  0.2019
83849W        W58837  20.049  25.456  24.813 -0.0887 -0.0753  0.0344
83850W        W58838  19.471   3.191   8.764  0.1810 -0.2581 -0.0325
83851W        W58839  16.706  23.235   2.916  0.1380 -0.0207 -0.1762
83852W        W58840   4.345  10.438   5.087 -0.0921  0.1477 -0.0804
83853W        W58841   9.352  31.512   3.642  0.2141  0.1149 -0.0703
83854W        W58842   8.878   4.842  20.242  0.0672  0.1485  0.0911
83855W        W58843  34.707   6.825  19.073  0.2207 -0.2046 -0.3733
83856W        W58844  26.633  18.759  24.864  0.0339 -0.0574  0.3246
83857W        W58845   8.623  20.670  10.455 -0.2176  0.0373 -0.2144
83858W        W58846  26.125   0.548  24.669  0.1932  0.2287  0.0958
83859W        W58847  28.346  33.896  15.366 -0.1234 -0.1698 -0.1569
83860W        W58848  30.057  31.663  12.057  0.2639  0.1005 -0.0692
83861W        W58849  15.442   7.845  22.995  0.1919 -0.1704  0.3269
83862W        W58850   5.195  22.510   7.008  0.2523 -0.1531  0.3707
83863W        W58851  14.157  17.425   6.309 -0.0565  0.1820 -0.1963
83864W        W58852  14.705  12.573   6.523  0.0869  0.1431  0.1260
83865W        W58853  15.227   4.587   8.282  0.0120 -0.2336 -0.2603
83866W        W58854  15.146   6.057   7.732 -0.1586  0.1432  0.0881
83867W        W58855  33.082  34.255   6.591  0.1794 -0.1618 -0.0184
83868W        W58856  14.550  20.339  12.157  0.1952 -0.0290  0.3308
83869W        W58857   9.620  20.356   3.357 -0.5655 -0.1475  0.0036
83870W        W58858  31.271  11.993  10.164 -0.0814  0.1000  0.1632
83871W        W58859  17.591  22.616  20.802 -0.2290 -0.1114  0.2167
83872W        W58860  14.855  29.570  22.821 -0.0407  0.0834  0.0677
83873W        W58861  21.028   3.984  24.680  0.0103 -0.2493  0.1403
83874W        W58862  21.736  20.833   4.910  0.2264  0.0929 -0.1958
83875W        W58863  17.489  33.571   4.849  0.0371 -0.0177 -0.3083
83876W        W58864  11.561  30.443   4.550 -0.0252  0.0549  0.1432
83877W        W58865   9.680   4.249   6.419 -0.1185  0.2800 -0.0081
83878W        W58866  24.532  13.446  25.254 -0.0557 -0.1408  0.1259
83879W        W58867  11.419  11.534   2.877 -0.2505 -0.3169 -0.4613
83880W        W58868  16.861   6.826   6.464 -0.2428  0.0306  0.2095
83881W        W58869   6.781   3.811  21.935 -0.2138  0.1028 -0.3592
83882W        W58870   0.703  26.468   1.393 -0.0850  0.1055 -0.1155
83883W        W58871   1.752   9.097  18.121  0.4119 -0.0438 -0.1473
83884W        W58872   9.382   1.911   4.175 -0.1497  0.2806  0.2617
83885W        W58873  14.725  19.813  15.330  0.0501  0.0698 -0.0122
83886W        W58874  20.602   5.357  17.336 -0.4707 -0.0667  0.0487
83887W        W58875  22.649  22.559   3.167 -0.0918 -0.0085  0.0081
83888W        W58876  17.036   9.789  20.277 -0.2134 -0.0364  0.0009
83889W        W58877  14.724  21.037   2.872  0.0083 -0.0234  0.0404
83890W        W58878   2.069  21.983  16.247 -0.4185  0.1460  0.2059
83891W        W58879  35.073   9.929  18.317  0.0948 -0.2377  0.3041
83892W        W58880  18.735  31.635  21.374  0.4411  0.0066 -0.0433
83893W        W58881  15.543   9.926   7.002  0.0357  0.1045  0.2354
83894W        W58882  25.089  27.994   3.426 -0.1928 -0.0021  0.0131
83895W        W58883  16.469  22.712   4.587 -0.0848 -0.1499 -0.2521
83896W        W58884  33.206  30.098  24.612 -0.0980 -0.0003  0.0392
83897W        W58885   1.711  17.716  15.285  0.2852  0.4206 -0.1477
83898W        W58886  29.254  32.562  13.240 -0.0861 -0.0713  0.0862
83899W        W58887  19.231  32.877   1.168 -0.0896 -0.0336 -0.2207
83900W        W58888   1.374   2.443  24.027  0.0306 -0.1045 -0.1870
83901W        W58889  32.550  12.225  12.044  0.3809  0.3857  0.1790
83902W        W58890   6.790   5.749   5.130  0.2948 -0.1953 -0.0591
83903W        W58891  10.964  21.019   9.198  0.0966 -0.0178 -0.0180
83904W        W58892   1.755  25.515  20.730  0.0762 -0.1605  0.3125
83905W        W58893  29.238  14.852  17.550 -0.2083  0.0496  0.1375
83906W        W58894  12.515  18.974  13.189 -0.3706 -0.2397 -0.0445
83907W        W58895  16.044  27.632   8.846 -0.3077  0.0092  0.0360
83908W        W58896   0.094  11.759  19.023 -0.1300  0.0802  0.0016
83909W        W58897  14.864   5.044   0.586  0.1845  0.0314 -0.2167
83910W        W58898  34.468  11.283  25.577  0.1398  0.4361 -0.2805
83911W        W58899  29.861  25.101   8.791 -0.0609 -0.2200  0.1057
83912W        W58900   8.489  27.318  14.541  0.0454  0.1085 -0.2713
83913W        W58901   7.021  16.774  18.012  0.3530 -0.4750 -0.4241
83914W        W58902   0.336  21.600  12.242 -0.1314 -0.1854  0.2624
83915W        W58903   7.462  32.460  12.677 -0.1675 -0.1098  0.0503
83916W        W58904   9.508   8.978   4.489  0.2652  0.0590  0.1621
83917W        W58905  14.450  29.016  11.703  0.2063  0.0952  0.0294
83918W        W58906   0.350   7.125  16.947 -0.0130  0.2375  0.1656
83919W        W58907  28.737  29.587  14.260 -0.0538 -0.0556  0.2403
83920W        W58908  18.596  22.663   4.459 -0.3258  0.1340 -0.0420
83921W        W58909  26.664  33.633  10.448 -0.0382  0.1084 -0.0172
83922W        W58910  31.635   9.669  11.342 -0.0090  0.1856  0.2960
83923W        W58911  28.445  22.309  20.129 -0.1574  0.2302  0.0072
83924W        W58912  17.321  19.671  19.981  0.0714 -0.1090  0.3382
83925W        W58913  17.425  34.062   4.645 -0.0335 -0.1898  0.0525
83926W        W58914  13.311   2.901  21.554 -0.2489 -0.1872  0.1680
83927W        W58915  17.010   5.404  21.788  0.1500  0.2918 -0.0801
83928W        W58916  19.928   4.140  17.980  0.1371  0.0529 -0.0342
83929W        W58917  12.351  11.052   0.649 -0.1361  0.1531 -0.2926
83930W        W58918  26.088   1.671  16.813  0.0521 -0.2146 -0.0273
83931W        W58919   5.293  33.541   2.348  0.3885 -0.1543 -0.0997
83932W        W58920  15.349  18.841   0.103 -0.1874  0.0738  0.1141
83933W        W58921  12.865   1.171   0.520  0.1689  0.0696 -0.2397
83934W        W58922  33.182  13.468  23.533 -0.1932  0.1051  0.1189
83935W        W58923  27.198  32.179   1.590  0.0262  0.0730  0.2646
83936W        W58924  28.050  17.436  13.364 -0.1183  0.1554  0.0230
83937W        W58925  13.634  18.925  13.238  0.0547 -0.2674 -0.0508
83938W        W58926  33.084  30.264  14.398  0.1286 -0.0997  0.1599
83939W        W58927   8.872  34.864   3.733 -0.1090 -0.2998  0.0786
83940W        W58928   3.611  21.685   4.881 -0.1663 -0.0150 -0.0101
83941W        W58929  14.212  30.907   6.433 -0.0704  0.1048  0.1434
83942W        W58930  14.455  29.918  23.955 -0.0123  0.1915  0.1848
83943W        W58931  21.916  30.378  19.140 -0.0802 -0.1697  0.0639
83944W        W58932   0.606   2.955   1.111  0.1883  0.1830  0.1696
83945W        W58933   9.314  11.241   1.930 -0.0414  0.0896  0.1264
83946W        W58934  33.957  16.156   8.902  0.2071  0.2553  0.2153
83947W        W58935  17.219  23.286  13.750 -0.0486 -0.1148 -0.1927
83948W        W58936  15.535  32.334   8.117  0.1988  0.1968 -0.1820
83949W        W58937   7.086  30.980  24.365  0.2781 -0.2733  0.1604
83950W        W58938  24.161  14.344   1.044  0.0856  0.0266 -0.2520
83951W        W58939  33.392   7.059   3.212  0.1551  0.1744 -0.3620
83952W        W58940   4.873  31.093  25.828 -0.0804 -0.0582 -0.3285
83953W        W58941  21.810   0.204  23.715  0.1020 -0.4444 -0.0331
83954W        W58942  35.060   4.862  22.366  0.0728 -0.1857  0.0009
83955W        W58943  29.598  30.265  23.496 -0.1049 -0.0407 -0.0835
83956W        W58944   3.247  32.369  11.461 -0.0520 -0.0913  0.4419
83957W        W58945  16.543  18.495   3.567 -0.0508 -0.0494  0.1642
83958W        W58946  21.709  30.633  17.581  0.1089  0.0521  0.1574
83959W        W58947  28.053  24.133  18.911  0.3653  0.0389  0.4205
83960W        W58948  13.362  22.905  10.386  0.1498  0.2623  0.0664
83961W        W58949  31.699   2.543  19.031 -0.1499  0.0559 -0.1974
83962W        W58950  14.346  25.561  12.139 -0.0555  0.1952 -0.4756
83963W        W58951  18.852  28.854  24.770 -0.2242  0.2454 -0.1096
83964W        W58952   8.932  30.305   0.687  0.1637  0.0139 -0.0201
83965W        W58953  29.487  27.761  20.645 -0.0995  0.3523  0.2664
83966W        W58954  27.525   8.556  20.955 -0.0129  0.0041 -0.1069
83967W        W58955  26.776  31.064  11.221 -0.0078  0.1390 -0.1721
83968W        W58956  10.659  12.556  10.795 -0.2640 -0.2982  0.1736
83969W        W58957  10.573  13.048   5.418  0.1751 -0.4642 -0.1211
83970W        W58958  18.156  32.986  26.026 -0.0206 -0.1652 -0.1723
83971W        W58959  29.571  29.902  20.618  0.2444 -0.1325 -0.2342
83972W        W58960  27.122  19.144  20.265  0.0961 -0.4184 -0.1514
83973W        W58961  31.031  33.312   4.158 -0.0161 -0.0862  0.1197
83974W        W58962  33.075  33.018  19.793 -0.4712  0.1745 -0.2733
83975W        W58963   5.413  14.027   4.681  0.2131 -0.0890  0.2136
83976W        W58964  18.366  15.538  23.067 -0.0515 -0.1180 -0.1149
83977W        W58965   1.074   2.546   7.952 -0.2299 -0.1572  0.0079
83978W        W58966  24.727  22.107  18.147 -0.1830  0.4288 -0.1311
83979W        W58967   0.985  18.479  21.777 -0.1885  0.0323 -0.0252
83980W        W58968  16.987  25.033   7.589 -0.0529 -0.0478 -0.3048
83981W        W58969  21.470  31.687   6.163 -0.1636 -0.0055 -0.2309
83982W        W58970  27.667   0.371   3.371 -0.1475 -0.0345  0.2434
83983W        W58971  28.295   6.236  18.162  0.1159  0.1688  0.0350
83984W        W58972   1.366  20.794  19.338  0.0578 -0.1382  0.1434
83985W        W58973  15.797  28.665   0.766 -0.1231  0.1508 -0.1403
83986W        W58974  26.246  10.923   9.601  0.0178 -0.2323  0.0737
83987W        W58975   9.490  34.892   1.461 -0.0487 -0.2473  0.0245
83988W        W58976  26.911  35.313  14.416  0.1745  0.0268 -0.2316
83989W        W58977  14.609  31.961   1.370  0.0086  0.0112  0.4946
83990W        W58978  30.917   1.419  20.432 -0.0830  0.1542  0.0422
83991W        W58979  14.665   5.855   3.622 -0.1917 -0.0062  0.1238
83992W        W58980   8.559  18.684   7.487 -0.0299 -0.1033 -0.0370
83993W        W58981  29.744  16.385   9.685  0.0899  0.1335 -0.1962
83994W        W58982   3.103  26.821  22.244 -0.1299  0.0969 -0.0421
83995W        W58983  14.447  24.791   7.058 -0.1158 -0.1064 -0.0789
83996W        W58984  15.086   0.747   5.418  0.4033  0.0426 -0.3261
83997W        W58985  21.630  11.693   2.456  0.0269  0.0755  0.2735
83998W        W58986  13.601  10.073   9.329 -0.0470  0.0798  0.0428
83999W        W58987  30.359  16.267  10.364 -0.1788  0.1308  0.0325
84000W        W58988   7.728  29.459  21.082 -0.0573  0.3936 -0.1390
84001W        W58989  27.482  28.794  21.842  0.1878 -0.0062 -0.0973
84002W        W58990  13.258  33.084   1.301 -0.0722  0.0200 -0.3320
84003W        W58991  33.637  10.823  20.045 -0.2981  0.0145  0.6265
84004W        W58992  11.967   7.763   5.502 -0.0104  0.0817  0.2314
84005W        W58993   1.565  29.939   4.570  0.0458 -0.1729  0.0362
84006W        W58994  32.726  19.975  26.049  0.0989 -0.1038  0.0145
84007W        W58995  10.186  18.281   5.176  0.1219 -0.0410  0.0884
84008W        W58996   8.270  31.491   6.360  0.0399 -0.1658  0.0231
84009W        W58997   6.846   0.649  22.600  0.0210  0.0978  0.0987
84010W        W58998  28.574   2.603  15.432 -0.0041 -0.0313 -0.1908
84011W        W58999   8.790   7.069   3.728 -0.3801  0.1431  0.0983
84012W        W59000   2.870   9.141  14.623 -0.3365 -0.1637 -0.0876
84013W        W59001  20.653  17.452   3.308 -0.0652  0.1847  0.0939
84014W        W59002  31.922  22.866  20.184 -0.0923 -0.3107  0.1740
84015W        W59003  30.101  23.008  12.203 -0.2932 -0.0100 -0.1014
84016W        W59004   9.830  19.204   0.119  0.2541  0.0020  0.2627
84017W        W59005  14.246  13.644   9.605  0.3010 -0.1185 -0.2874
84018W        W59006   3.581   1.422  21.687 -0.1141 -0.2440  0.1497
84019W        W59007  17.670   2.926  20.385 -0.1713 -0.1034 -0.2428
84020W        W59008   2.513  16.718  22.028 -0.1629 -0.0828 -0.1481
84021W        W59009  28.251   1.696  23.877 -0.1129  0.1860 -0.2417
84022W        W59010  14.676  20.003   1.631 -0.2004 -0.1339  0.0154
84023W        W59011  29.120  27.968  16.920  0.0350  0.4762 -0.1991
84024W        W59012  19.339  14.359   7.893  0.1371  0.1006  0.3206
84025W        W59013  19.916   4.527  20.614  0.2342  0.1153  0.3228
84026W        W59014  22.374   9.014  17.571 -0.0811  0.0180 -0.3669
84027W        W59015  12.642   2.556   3.257 -0.1116 -0.0646 -0.2760
84028W        W59016  27.197   8.816  23.505 -0.1040  0.0732 -0.0385
84029W        W59017  30.051  26.786  19.693  0.2059 -0.0019  0.0793
84030W        W59018  25.025  34.860  14.160 -0.1873  0.2831 -0.1633
84031W        W59019  17.646  32.900   0.672  0.0100  0.3249  0.0862
84032W        W59020   8.490  23.918   1.123  0.0836 -0.2162 -0.0918
84033W        W59021  32.671   1.154  22.393  0.1874 -0.3605 -0.1249
84034W        W59022   0.835  29.013  21.823  0.2905 -0.2028  0.0627
84035W        W59023   6.452  18.565   3.615 -0.1487 -0.1646  0.0113
84036W        W59024  20.348  31.731  14.803 -0.0647  0.1757  0.0350
84037W        W59025   9.056  34.685   2.006 -0.2104  0.0827  0.3763
84038W        W59026  13.706  35.079  22.259 -0.1429  0.1757  0.3425
84039W        W59027   9.284   0.480   6.106  0.0740  0.0544  0.1437
84040W        W59028  25.820  18.316  10.149  0.2887  0.1244  0.0271
84041W        W59029   8.547  28.036  12.221  0.2293  0.0043  0.0867
84042W        W59030  16.168  15.193   5.859 -0.0932  0.1422  0.0223
84043W        W59031  21.466  31.826  18.272 -0.0311  0.2478 -0.3104
84044W        W59032   8.218  27.144   6.502 -0.0363 -0.0037 -0.1216
84045W        W59033  10.548  28.257  23.049  0.3302  0.1389  0.1197
84046W        W59034  15.149   7.834  13.427  0.1253 -0.2362  0.0112
84047W        W59035  30.636  23.587  24.429 -0.0180 -0.1890 -0.0854
84048W        W59036  25.247  15.977  21.101 -0.2117 -0.0259  0.0367
84049W        W59037  25.712  19.593  18.086  0.1196 -0.0715 -0.0995
84050W        W59038  18.048  22.937   8.730 -0.0629 -0.0762  0.0365
84051W        W59039  21.069  21.444  23.972  0.0392 -0.0799  0.0538
84052W        W59040  34.898   8.563  22.165  0.2353  0.0946 -0.0179
84053W        W59041  31.528   0.566  23.051  0.2758  0.0514 -0.3040
84054W        W59042   7.876  11.307   4.107 -0.4363  0.1365  0.2179
84055W        W59043  15.974  11.779  21.878  0.0032 -0.0105 -0.1280
84056W        W59044  11.102  19.332   5.031  0.1317  0.1049  0.1783
84057W        W59045  17.784  15.818  24.175 -0.2669 -0.2816 -0.0206
84058W        W59046  30.660  13.678   4.684 -0.0604  0.0800  0.0408
84059W        W59047   1.903   7.480  17.792  0.4428 -0.1313 -0.1605
84060W        W59048  15.899  32.541   5.635  0.3065 -0.1204 -0.0077
84061W        W59049  27.665   6.655  14.405 -0.0589 -0.0544 -0.1716
84062W        W59050  15.526  26.343   1.170  0.3016 -0.0352 -0.2137
84063W        W59051  18.313  33.897   8.241 -0.1082  0.2742  0.1781
84064W        W59052  20.936  15.697   3.360 -0.1768 -0.0643  0.0168
84065W        W59053   5.382  32.940   7.563  0.0522 -0.0329 -0.1168
84066W        W59054  26.182   6.279  20.620 -0.1544  0.0822 -0.0977
84067W        W59055  32.184   9.262  14.168 -0.1392 -0.0364  0.0072
84068W        W59056  13.134  23.358   9.814 -0.1346 -0.2140 -0.3173
84069W        W59057  31.099  34.955   5.909 -0.1589  0.0086 -0.1312
84070W        W59058  20.070  11.561   0.549  0.1442  0.0607 -0.0527
84071W        W59059  30.962  33.908  12.516  0.3654  0.0749 -0.0394
84072W        W59060  35.286   6.836  22.004 -0.0482  0.1156  0.1469
84073W        W59061   0.373  29.951   2.906 -0.0256 -0.0322 -0.3588
84074W        W59062  24.297  28.472  18.718  0.0746 -0.1889 -0.2060
84075W        W59063   0.565   1.550  18.203 -0.1115  0.0367 -0.2846
84076W        W59064  15.547   8.751   1.746 -0.0406  0.0597 -0.5517
84077W        W59065  15.139  23.623   1.355  0.2035 -0.2310 -0.6322
84078W        W59066  26.639  26.313  24.002  0.3106 -0.1947 -0.3726
84079W        W59067  31.465  26.914   9.447  0.2451  0.0078  0.1219
84080W        W59068  30.927  30.267  25.751  0.1084 -0.0683 -0.2440
84081W        W59069  25.968   2.423   0.350  0.1581  0.2217  0.5170
84082W        W59070  10.971  20.947   2.183 -0.1354 -0.4750  0.2503
84083W        W59071  10.952  11.795  21.216 -0.1182  0.0999  0.1391
84084W        W59072  31.069   2.380   1.968  0.0045 -0.2876  0.0403
84085W        W59073  21.228  31.098   2.315 -0.2815 -0.5368 -0.0331
84086W        W59074  24.941   4.147  25.683  0.2933  0.0240 -0.0872
84087W        W59075  12.788   4.031   9.958  0.2243 -0.0801 -0.4012
84088W        W59076   1.033  30.035  16.121 -0.0229  0.1149  0.2091
84089W        W59077  26.806  23.364  11.229  0.3126  0.1744 -0.1511
84090W        W59078   3.937  29.398   8.125 -0.2405 -0.1876 -0.1869
84091W        W59079  12.400   9.336  20.563 -0.0632  0.1946  0.1357
84092W        W59080  26.802  35.287  25.992 -0.1129  0.0552  0.1685
84093W        W59081  35.039  17.817  14.719 -0.0535  0.1146 -0.0631
84094W        W59082  32.949  17.939  10.321 -0.0305  0.3438 -0.0999
84095W        W59083  15.461   7.531  12.783  0.0633 -0.1172  0.3662
84096W        W59084  28.111  26.925  25.905  0.3085 -0.0300 -0.1881
84097W        W59085   8.538   3.626   9.471  0.3408 -0.2978  0.0802
84098W        W59086   9.284   1.111  25.589  0.1028  0.2322  0.0683
84099W        W59087  15.525  30.474  24.530 -0.0894  0.1128  0.5215
84100W        W59088  20.036  21.023  19.473 -0.1562 -0.1331 -0.0568
84101W        W59089  30.386   5.780   9.741  0.0696 -0.0284  0.1717
84102W        W59090   9.737  32.757  25.552 -0.1579 -0.0025  0.3529
84103W        W59091   9.053   9.334   7.123  0.1839 -0.1394 -0.2144
84104W        W59092   0.225  30.450  16.719 -0.0441  0.1047 -0.0165
84105W        W59093   6.868  13.951   1.234  0.2272  0.0392  0.1215
84106W        W59094  25.565  18.291  23.536 -0.0481  0.4075 -0.0131
84107W        W59095  32.468  22.453  26.157 -0.0250 -0.0324  0.0337
84108W        W59096  15.085  33.743   0.678  0.0777  0.0323 -0.3022
84109W        W59097  31.169   1.116   2.517  0.3396 -0.1235 -0.0041
84110W        W59098  13.250  29.024   4.786 -0.2752 -0.2008  0.3227
84111W        W59099  13.882  13.650   5.948  0.2021 -0.1558 -0.3517
84112W        W59100  10.724  17.965  25.136  0.1189  0.1462  0.2182
84113W        W59101   8.681   5.935  19.481 -0.1886  0.2163 -0.0768
84114W        W59102  13.390  26.990   8.474  0.1704 -0.0995 -0.0963
84115W        W59103  14.778  10.155  10.740  0.0318 -0.2109  0.1271
84116W        W59104  25.028  31.610  11.533 -0.1360 -0.0970 -0.1408
84117W        W59105  31.609  11.817  24.163 -0.1343 -0.1668 -0.0564
84118W        W59106  22.776  13.326  14.927 -0.1533  0.2169 -0.0511
84119W        W59107  27.191  34.951  24.471  0.1801 -0.1309 -0.1746
84120W        W59108   2.089   6.310   1.011 -0.0940  0.2619 -0.1908
84121W        W59109   8.991   2.754  10.492  0.2635  0.3642  0.2306
84122W        W59110  33.619  21.131  13.201 -0.1994  0.0182 -0.2532
84123W        W59111  14.035  21.186   3.843  0.0697 -0.1511  0.0493
84124W        W59112  26.038  29.825  16.114  0.1237 -0.0424  0.0636
84125W        W59113  17.002  26.371  11.886 -0.1783  0.1570 -0.1520
84126W        W59114  35.352   6.191   0.903 -0.0167  0.1637 -0.1820
84127W        W59115   8.013   9.699   2.385 -0.2400 -0.1764 -0.1505
84128W        W59116  21.489  34.080   5.839 -0.0564 -0.0085 -0.2961
84129W        W59117  10.335  19.765  14.389  0.2213  0.0864 -0.2083
84130W        W59118  22.952  32.503  20.157  0.0809  0.1697 -0.0772
84131W        W59119  31.602  32.080   5.761 -0.0357  0.0027  0.2433
84132W        W59120  16.746  18.615   5.726 -0.1521 -0.2791 -0.0100
84133W        W59121  16.554  30.663  10.065  0.0387 -0.5225 -0.0604
84134W        W59122  28.743  25.881  11.818  0.3745 -0.0609 -0.1301
84135W        W59123  14.129   1.295  11.699  0.1569  0.0015 -0.0532
84136W        W59124  29.099   1.722  18.280 -0.0482 -0.1094 -0.0930
84137W        W59125  24.007  32.452  25.570  0.4411 -0.0103 -0.1839
84138W        W59126  13.230  25.553   0.961  0.0530  0.0732 -0.0227
84139W        W59127  19.253  11.375   4.284  0.2868 -0.1654  0.0409
84140W        W59128   9.948   3.628   6.382 -0.2450 -0.0047 -0.2669
84141W        W59129   7.409  10.078   7.758 -0.1363 -0.2458  0.0254
84142W        W59130  25.939  11.101   1.938  0.1704  0.0381  0.2182
84143W        W59131  25.015   8.913  25.402 -0.1792  0.2026 -0.0353
84144W        W59132   9.188  21.667  15.321 -0.3378  0.1139 -0.0947
84145W        W59133   4.938   3.892   3.712 -0.0905 -0.0135  0.0947
84146W        W59134  32.579   7.368   1.366  0.1048 -0.0092  0.1303
84147W        W59135  27.058  13.940  15.701 -0.0363 -0.4435 -0.3049
84148W        W59136  29.858  29.007   3.318 -0.1516  0.1585 -0.1205
84149W        W59137  34.059   9.934  18.318  0.2119 -0.1488  0.0949
84150W        W59138  17.986   7.611   0.830 -0.2877 -0.2391 -0.1351
84151W        W59139  32.832   0.441  18.992 -0.0045  0.1168 -0.0134
84152W        W59140  22.711  11.745  25.720  0.4954 -0.0008 -0.1452
84153W        W59141  34.441  22.420  11.031 -0.0404  0.0800 -0.0911
84154W        W59142  13.133  33.461  10.923 -0.1807 -0.4423  0.3904
84155W        W59143  26.513   3.136   4.967 -0.3892 -0.0968  0.1495
84156W        W59144  25.989  16.062  10.755  0.1275 -0.0022 -0.0162
84157W        W59145  14.907  24.442  15.241  0.0776 -0.0904  0.1098
84158W        W59146  29.971   6.810  25.030  0.2340 -0.1499 -0.2622
84159W        W59147  34.597  13.178  20.359  0.0425  0.1039 -0.1701
84160W        W59148  14.967  15.572   6.209  0.1433  0.1014 -0.0369
84161W        W59149   1.939  26.228  17.737  0.3336  0.3275 -0.2219
84162W        W59150  26.946  24.022  17.363 -0.1665 -0.1416  0.0304
84163W        W59151  25.351   6.467  22.829 -0.2939  0.0339 -0.1428
84164W        W59152  12.171  24.270  12.236 -0.2120  0.2819 -0.1513
84165W        W59153   5.503  17.726   7.083  0.4595  0.3136  0.0660
84166W        W59154  24.392  22.457  18.591 -0.0178  0.0658 -0.3703
84167W        W59155  31.175  24.649  10.123  0.1893  0.2857 -0.0864
84168W        W59156  31.558   9.899  25.396 -0.2075  0.0629 -0.1016
84169W        W59157   0.809  19.046   9.657  0.1770  0.0588 -0.0361
84170W        W59158  14.155   5.423  24.664  0.0349 -0.0637 -0.4693
84171W        W59159   0.165  14.865   8.736 -0.0310 -0.0906  0.3280
84172W        W59160  28.449  27.553  21.079  0.1216 -0.1599 -0.0744
84173W        W59161  30.065  30.436  23.748  0.1053 -0.0680  0.0241
84174W        W59162  16.675  25.575   7.003  0.1990  0.3885  0.0390
84175W        W59163  29.987  33.245  10.952 -0.2787 -0.3078  0.1416
84176W        W59164   5.299   8.568   5.131 -0.2072  0.1423  0.0990
84177W        W59165  14.845  27.791  21.925 -0.2485 -0.0319 -0.2143
84178W        W59166  31.936   7.989  13.763  0.0770  0.0841  0.1193
84179W        W59167  32.317   9.985  25.398  0.2444  0.0228 -0.4859
84180W        W59168  28.119   4.492   3.697  0.0988 -0.0198  0.1989
84181W        W59169  28.012   6.279  24.801 -0.0722 -0.0394 -0.1114
84182W        W59170  11.551  14.892  12.992 -0.1542  0.0902  0.0021
84183W        W59171  24.587  34.389  11.945 -0.0913  0.1718 -0.0208
84184W        W59172  29.599   0.001  24.878 -0.1909 -0.1614 -0.1069
84185W        W59173   0.850   8.507  21.559 -0.0086  0.0242 -0.1073
84186W        W59174   5.399  28.583  13.367 -0.0207  0.3998  0.0690
84187W        W59175  33.632  30.928  21.290  0.2530  0.1768 -0.0358
84188W        W59176  14.623  13.891   8.883  0.1535 -0.1985  0.1612
84189W        W59177  19.481  15.596  25.314  0.2250 -0.4094 -0.1691
84190W        W59178  17.898   8.302   3.197  0.2942  0.0466 -0.1068
84191W        W59179  20.040   0.604   1.430  0.2835 -0.1002  0.1041
84192W        W59180  21.735  20.332   4.151 -0.0711 -0.2360  0.2908
84193W        W59181  21.694  31.006  16.134  0.0233  0.0966  0.1787
84194W        W59182   0.787  14.788  14.181 -0.1184  0.1609 -0.2402
84195W        W59183  12.612  18.870  24.594 -0.1376  0.0593  0.3098
84196W        W59184  13.979  31.052   9.713  0.0647  0.0523 -0.1928
84197W        W59185  16.399  26.452   4.483 -0.0390  0.1808 -0.0415
84198W        W59186   6.629   4.725   2.199  0.0151  0.0998 -0.0293
84199W        W59187   5.415   8.087   9.298 -0.0972 -0.1078  0.0031
84200W        W59188  10.054  10.264   5.055  0.0228 -0.1440 -0.0552
84201W        W59189  25.102  33.656   0.633  0.4210 -0.3101  0.0319
84202W        W59190   3.742  14.589   4.962  0.0762 -0.2389  0.0055
84203W        W59191  27.375  24.694  10.050  0.1462 -0.1683  0.1090
84204W        W59192  17.363   1.901  21.472  0.0761  0.1064 -0.5017
84205W        W59193  34.595  27.464  22.340  0.1061 -0.0033 -0.1183
84206W        W59194   8.744  27.826  21.408  0.1528 -0.0415  0.0155
84207W        W59195   0.655   7.718   5.278  0.0041 -0.0029  0.1598
84208W        W59196  21.057  25.264  19.051 -0.0721 -0.1957  0.0778
84209W        W59197  28.836   6.994  23.716  0.0163  0.3105 -0.0500
84210W        W59198  16.591   1.324   3.180  0.3062 -0.0837 -0.5138
84211W        W59199   0.063   9.337  13.283  0.0655 -0.0464 -0.0320
84212W        W59200  32.643  16.736  20.197 -0.2407  0.1095  0.0805
84213W        W59201  28.827  16.968  16.534  0.0703 -0.0475  0.0920
84214W        W59202  13.305  28.669   3.344 -0.1068 -0.1510 -0.0581
84215W        W59203  15.684  32.190   0.668  0.3012 -0.0416 -0.0494
84216W        W59204   4.097   2.809  19.605 -0.1404  0.3521 -0.0011
84217W        W59205  28.255  20.336  15.501 -0.0592 -0.0001 -0.3101
84218W        W59206  25.063  20.941  26.085 -0.0966 -0.2079 -0.1766
84219W        W59207  33.691  27.754  21.734 -0.0048  0.0479  0.0985
84220W        W59208  12.035   0.983   0.925  0.1859 -0.0869 -0.0736
84221W        W59209  20.640   8.866   3.589  0.0572  0.0922  0.3340
84222W        W59210  26.104   7.250  21.589 -0.2030 -0.0480 -0.2665
84223W        W59211   3.953  12.848   3.053 -0.1263  0.0805 -0.1779
84224W        W59212   2.892  26.761  10.857  0.1295 -0.0829  0.2014
84225W        W59213  12.948  17.620   2.158  0.0118  0.2031  0.1096
84226W        W59214  29.715  18.632  17.429 -0.2066  0.2943 -0.0144
84227W        W59215  25.809  33.164  11.855  0.2147  0.1615  0.0047
84228W        W59216  29.739  17.345   8.188 -0.2357  0.1985 -0.2930
84229W        W59217  33.969  34.158  25.017 -0.3138  0.2016  0.4895
84230W        W59218  11.100  17.478  21.829 -0.1138  0.2270 -0.2199
84231W        W59219  26.938   6.485  22.361  0.0869 -0.0128 -0.1945
84232W        W59220  20.213  32.988   8.396  0.3330 -0.1668  0.3821
84233W        W59221  30.983   0.858   3.895  0.1812  0.2102 -0.0356
84234W        W59222  29.164   6.011  21.248  0.0275 -0.1766 -0.0720
84235W        W59223  23.382  31.915  25.338 -0.2520 -0.0354  0.1555
84236W        W59224   2.111  35.353   0.603 -0.0043  0.1264 -0.0556
84237W        W59225  18.588   0.763  19.902 -0.1589  0.2333 -0.0090
84238W        W59226   6.243  17.343   9.596  0.0731  0.1472  0.3025
84239W        W59227  20.490  29.240   2.304 -0.1837 -0.2452 -0.0185
84240W        W59228  11.323   4.048   8.613  0.2399 -0.2201 -0.0693
84241W        W59229  17.363  33.435  18.911  0.1169 -0.3473  0.1399
84242W        W59230  21.507   8.092   5.659 -0.5120  0.0130  0.0078
84243W        W59231   0.614   0.890  25.769 -0.0698  0.0103 -0.2449
84244W        W59232   7.860  19.152  12.693 -0.0791 -0.1379 -0.2675
84245W        W59233  10.057  25.847  13.524  0.0529 -0.0104  0.0080
84246W        W59234  10.809  19.031  22.286 -0.1273  0.1887 -0.1161
84247W        W59235   3.448  29.118  23.846 -0.0775 -0.0350  0.2412
84248W        W59236  15.605  16.123   2.832 -0.1135  0.1877  0.2716
84249W        W59237   1.243  16.423  18.339  0.2126 -0.0289  0.1920
84250W        W59238  19.976  32.117   3.913  0.0951 -0.1403  0.4368
84251W        W59239   4.511   9.658   2.323 -0.1047 -0.1015  0.1020
84252W        W59240  24.815   8.474  20.628 -0.1316 -0.3430  0.0470
84253W        W59241  26.786  28.974  15.350 -0.1666 -0.1702 -0.0118
84254W        W59242  33.944  12.966   0.706  0.0476  0.1433 -0.0588
84255W        W59243  21.476  16.050   2.489  0.1599  0.2545  0.2139
84256W        W59244   5.823  11.924  26.059  0.0147 -0.2806 -0.4703
84257W        W59245   4.870   1.192  19.320  0.1396 -0.1861  0.0460
84258W        W59246  14.501  21.764   6.447  0.0850 -0.0807 -0.0760
84259W        W59247   8.095  27.329  12.276 -0.0579 -0.1205  0.0246
84260W        W59248   0.631   6.639  13.516 -0.0276 -0.0174 -0.0271
84261W        W59249   0.684  15.371  13.132  0.2487  0.3691  0.0383
84262W        W59250  26.768  27.371  16.437 -0.2500  0.0783 -0.2335
84263W        W59251  26.190   5.462   2.003  0.2854 -0.1692  0.0494
84264W        W59252  13.568  31.100  24.440 -0.1475  0.1957 -0.3697
84265W        W59253   1.298  26.559   4.862 -0.0925 -0.1200 -0.0063
84266W        W59254  16.676  22.985  23.293  0.0187 -0.2175 -0.4267
84267W        W59255   6.842  25.134  23.185  0.1813  0.5828 -0.1726
84268W        W59256  24.684  14.824  14.594 -0.0805  0.0487  0.0187
84269W        W59257  10.639  30.453   9.257  0.0684 -0.1926 -0.1319
84270W        W59258  16.959  34.817   6.360  0.0664  0.0450  0.2056
84271W        W59259  29.779  20.554   6.187  0.0451  0.0258  0.1136
84272W        W59260   9.814  20.098  15.029 -0.0307 -0.0160  0.0358
84273W        W59261  34.958  27.297   2.923 -0.0575 -0.0479 -0.1643
84274W        W59262   3.011  33.015  23.611 -0.3033  0.0303 -0.0561
84275W        W59263  18.911  31.215   6.929 -0.0596  0.0445 -0.4406
84276W        W59264  14.182  29.891  21.696  0.1710 -0.2132  0.0571
84277W        W59265  21.682  12.328   4.290 -0.2729  0.0387  0.2948
84278W        W59266  35.380   5.819   5.629  0.0663  0.1190  0.1417
84279W        W59267  20.290  20.008  18.905  0.3492  0.2602  0.0670
84280W        W59268  16.129  17.873  23.637 -0.1199 -0.1057 -0.1367
84281W        W59269  26.527  21.033   9.942  0.1926  0.2554  0.1879
84282W        W59270   3.523   8.826  17.495 -0.3187 -0.0279  0.0337
84283W        W59271   7.759  22.269   4.411  0.0764  0.0618 -0.0578
84284W        W59272  18.254   7.935  11.032 -0.1945  0.1591  0.0618
84285W        W59273  33.894   5.329  26.191  0.1759  0.2879 -0.1321
84286W        W59274   6.887  30.004   0.157  0.0577 -0.0666 -0.0540
84287W        W59275  10.285  22.360   2.037 -0.2792 -0.0621 -0.1323
84288W        W59276  30.257   9.376  25.721 -0.0144  0.0089  0.0856
84289W        W59277  17.673   1.452  17.581 -0.1932  0.0940 -0.0395
84290W        W59278  17.083  12.839   5.204 -0.1775  0.0026  0.0252
84291W        W59279  13.317  10.789   9.066 -0.0622  0.0311  0.2339
84292W        W59280  21.131   7.197   6.510 -0.3147 -0.0139  0.1537
84293W        W59281  29.364   1.437  14.177  0.3679  0.4356 -0.0694
84294W        W59282   2.905   1.328  18.652 -0.2964 -0.0160 -0.2330
84295W        W59283   2.628  23.845  18.133  0.2906 -0.1281 -0.0339
84296W        W59284  12.451  27.177  16.879 -0.0225  0.0202  0.1139
84297W        W59285  24.557   5.467  20.668 -0.0755 -0.0610  0.0602
84298W        W59286  32.217  35.079   1.797 -0.0898 -0.1276  0.0631
84299W        W59287  31.265  23.202  22.865  0.0126  0.2139  0.0086
84300W        W59288   7.156  11.107   9.240 -0.1087 -0.2432 -0.2103
84301W        W59289  30.005  33.360   1.626 -0.1142 -0.1502  0.1558
84302W        W59290  32.154   5.820   0.201 -0.3780 -0.0173 -0.2859
84303W        W59291   4.396  35.092  20.776 -0.1852 -0.4608  0.1897
84304W        W59292  15.750   9.664   6.045  0.0629 -0.1345 -0.0321
84305W        W59293  12.151  28.186   0.784 -0.1624  0.1337  0.0823
84306W        W59294   1.118  14.263  16.801 -0.0902 -0.1153  0.2664
84307W        W59295  17.206   3.612  25.334  0.2547 -0.3535 -0.1571
84308W        W59296  10.046  10.322  22.187 -0.0784 -0.0669 -0.2699
84309W        W59297  12.461   5.759   2.683  0.0627 -0.3756  0.1319
84310W        W59298   9.039   6.649  14.283 -0.0294 -0.1802 -0.2644
84311W        W59299   8.598  18.071  11.653 -0.0927  0.1161 -0.1679
84312W        W59300   9.500  23.310  22.797  0.0906 -0.1056 -0.1471
84313W        W59301  18.157   6.121  11.874  0.0070 -0.0388  0.3495
84314W        W59302  26.183  23.589  21.387 -0.0077  0.1674  0.0928
84315W        W59303  13.857  15.980  21.785 -0.4733  0.3152  0.0868
84316W        W59304  31.277  10.177  12.513 -0.2890  0.0712 -0.2366
84317W        W59305  33.017  17.718   6.967 -0.0508  0.2769 -0.0878
84318W        W59306  31.830  13.166   6.860  0.2632 -0.0876  0.0857
84319W        W59307  20.731  28.787   2.999  0.2635  0.2802 -0.2157
84320W        W59308   9.601  32.955  16.603  0.1318 -0.0754  0.1455
84321W        W59309  35.164  12.862  12.958 -0.1043  0.1208  0.1192
84322W        W59310  10.414  28.371   2.695 -0.1519  0.0593  0.0541
84323W        W59311   8.886  23.259   2.509 -0.2098  0.1596 -0.3072
84324W        W59312  17.085   6.630  21.514 -0.0020  0.2061  0.1695
84325W        W59313  30.620  23.536  21.243 -0.0714 -0.0972 -0.2462
84326W        W59314   5.129  31.301   3.089  0.1065 -0.1228  0.1125
84327W        W59315  32.671   0.536  24.636  0.2403 -0.0877 -0.0437
84328W        W59316  32.259  28.908  22.870 -0.0173 -0.1010  0.1397
84329W        W59317  16.237  18.961   5.109 -0.0737 -0.1160 -0.0133
84330W        W59318  14.897  28.638  24.691 -0.0659 -0.0635 -0.0858
84331W        W59319  16.105  17.160  19.137 -0.1625  0.1978  0.1393
84332W        W59320  21.323  35.181  21.195  0.0142 -0.0944  0.1717
84333W        W59321  20.426  11.835  25.388  0.2302 -0.2290 -0.2800
84334W        W59322  12.693   6.514   3.667 -0.0802  0.0745  0.0911
84335W        W59323   9.405  24.578  23.021 -0.0963 -0.0435  0.1203
84336W        W59324   1.544  21.468  14.560 -0.1013  0.0211  0.0823
84337W        W59325   7.667   6.473   9.479 -0.1515 -0.0188 -0.0677
84338W        W59326  29.897  23.360  15.315  0.0359  0.0995  0.1285
84339W        W59327   2.413  13.168  24.062 -0.1228 -0.0830  0.0574
84340W        W59328  35.216  33.298  17.484 -0.0508  0.0143 -0.0526
84341W        W59329  19.170   7.206   2.233 -0.2665  0.0428  0.1888
84342W        W59330   9.687  15.832   8.740  0.3844 -0.1726  0.0400
84343W        W59331  13.487  31.537  10.244  0.1456 -0.1624 -0.1139
84344W        W59332  18.235   8.424  22.046  0.1763 -0.0840  0.2144
84345W        W59333  32.119  33.245  25.606  0.1245 -0.3486  0.0675
84346W        W59334  13.143  20.475  14.041  0.0185 -0.1195  0.2087
84347W        W59335  12.935  10.241  10.936  0.3151  0.0379 -0.3248
84348W        W59336  21.681   9.734  16.002 -0.1798  0.3248 -0.4510
84349W        W59337  32.089  12.491  17.785 -0.1850 -0.0450 -0.0356
84350W        W59338   9.339  21.212   7.936 -0.0562  0.1028  0.0883
84351W        W59339  19.869  32.000  17.251 -0.0605  0.0236 -0.2577
84352W        W59340  21.078   9.984   1.856  0.2205  0.0800  0.0139
84353W        W59341   7.583   2.069   7.183  0.0683 -0.0993 -0.2614
84354W        W59342   1.093  30.247  16.689  0.3300  0.2520  0.2229
84355W        W59343   3.015  15.593  19.294  0.2594  0.1023 -0.0806
84356W        W59344  12.031   1.333  24.295 -0.0855  0.0722  0.0250
84357W        W59345  18.326  26.976  19.707  0.1618  0.0224  0.5885
84358W        W59346   1.701  17.609  20.332 -0.2862  0.0893 -0.1105
84359W        W59347  28.593  14.644  20.376  0.1475  0.1007  0.0914
84360W        W59348  25.165  29.352   5.478  0.3768 -0.2814 -0.1823
84361W        W59349   7.493  12.769  19.601  0.4951 -0.0935 -0.0044
84362W        W59350   2.357  11.347  24.577  0.3439 -0.3073  0.0124
84363W        W59351  17.531  32.340  23.387  0.0222  0.2660 -0.2319
84364W        W59352  12.444   0.463   1.674 -0.0034  0.0254  0.1786
84365W        W59353  27.289  11.466  25.160  0.0274  0.0497  0.0751
84366W        W59354   5.899  20.109  21.753  0.0866 -0.0567  0.5163
84367W        W59355  16.639  16.337  13.332 -0.2187 -0.0259  0.0094
84368W        W59356  11.974   7.113  25.807  0.1486  0.0118  0.0213
84369W        W59357  29.533  34.599  19.827  0.2742  0.2827 -0.2499
84370W        W59358  11.293   2.094   4.649  0.0790  0.0053  0.1623
84371W        W59359  12.448   4.148  13.286  0.0883 -0.0044  0.1312
84372W        W59360  18.828   5.311  23.503  0.1446 -0.1722  0.2557
84373W        W59361  28.226  34.823  12.232  0.0225  0.2351  0.3272
84374W        W59362   4.690  24.833   1.376  0.3123 -0.2584  0.3064
84375W        W59363  21.569  17.038  18.048  0.1174 -0.0080 -0.1211
84376W        W59364  21.431  31.066  24.127 -0.3357  0.0147 -0.1009
84377W        W59365  23.888  26.957  18.863  0.1376 -0.3459  0.1428
84378W        W59366  34.516  23.709  16.114 -0.0698  0.1426 -0.3313
84379W        W59367  17.287  22.433  24.124  0.1868  0.0471  0.1081
84380W        W59368  32.646  21.562   8.079 -0.0075  0.2372  0.2755
84381W        W59369  16.781   1.180  25.053  0.0601  0.0032  0.0020
84382W        W59370  28.841  33.673  23.357  0.1970  0.0145 -0.1978
84383W        W59371  27.860   1.466   6.266  0.0899 -0.1644 -0.1023
84384W        W59372  32.107   3.932   5.881  0.1281 -0.4950  0.0386
84385W        W59373  19.115   5.804   5.213 -0.0207  0.4157  0.0547
84386W        W59374  23.438   4.579   2.130 -0.5016  0.2199 -0.1178
84387W        W59375  10.049  24.588  10.734  0.0057  0.1973 -0.0041
84388W        W59376  34.133   7.806  15.395  0.0013  0.0366  0.1390
84389W        W59377   2.647  27.512  10.962  0.1396  0.1069  0.1533
84390W        W59378  13.661  25.692  24.944 -0.1010  0.0665  0.0724
84391W        W59379  11.519  29.678  25.621 -0.1369  0.0430 -0.3681
84392W        W59380  20.073  25.077  22.670 -0.1030 -0.0507 -0.1299
84393W        W59381  27.546  14.106   0.388 -0.3539 -0.0425 -0.1364
84394W        W59382  33.423   6.811  11.166  0.1073  0.0719  0.0875
84395W        W59383   7.624  24.546   9.942 -0.1141  0.1311  0.0739
84396W        W59384  28.456  17.716   5.294 -0.0319  0.0546  0.1172
84397W        W59385  35.013   6.955  22.450 -0.1177  0.1743 -0.1107
84398W        W59386  21.331   9.774   6.259  0.1209  0.2075  0.1263
84399W        W59387  26.586  20.420  11.231 -0.0877 -0.1747  0.0840
84400W        W59388  12.438  19.498  24.328 -0.0036  0.1055 -0.0318
84401W        W59389  21.130   2.558  24.003 -0.1228 -0.1804 -0.0660
84402W        W59390   8.970  32.320  10.441 -0.2547  0.0840  0.2691
84403W        W59391  12.803  16.079  22.201  0.3075  0.1530 -0.0397
84404W        W59392  14.061   4.199   2.641  0.0979 -0.1476  0.0016
84405W        W59393  27.280  30.042  20.095 -0.2104 -0.1226  0.2332
84406W        W59394  29.478  21.675  25.124  0.1620 -0.1743 -0.3440
84407W        W59395  20.617  19.068  25.793 -0.0819 -0.1629 -0.3948
84408W        W59396  21.804  14.776  18.430 -0.2228  0.3779 -0.1653
84409W        W59397  29.785  25.764   0.062  0.0647 -0.0307 -0.0006
84410W        W59398  32.455  23.074  24.695  0.0062  0.1311 -0.1530
84411W        W59399   2.889  13.615  20.695 -0.1739  0.4493 -0.1666
84412W        W59400  26.676   5.900   4.346 -0.1553  0.0222  0.1671
84413W        W59401  28.176  33.711  14.959  0.3527 -0.2634  0.0475
84414W        W59402  25.171  23.331  22.580 -0.1315 -0.1257  0.1312
84415W        W59403   2.918  29.518   9.052 -0.2194  0.2923 -0.0535
84416W        W59404  17.765  19.326   0.877  0.1421 -0.1204 -0.1896
84417W        W59405  16.706  11.731   9.708  0.0324  0.2955  0.0291
84418W        W59406  29.833  30.116  12.797  0.2168  0.2741 -0.1815
84419W        W59407   4.581   2.532  25.766 -0.1137 -0.1287 -0.1311
84420W        W59408   7.339  10.101  22.521  0.2125  0.0018 -0.2212
84421W        W59409   8.779   9.084   2.780  0.0420  0.1007 -0.1379
84422W        W59410   8.461  23.129   4.828  0.1350 -0.2145 -0.0642
84423W        W59411  16.461  15.759   4.093  0.1260  0.0185  0.3627
84424W        W59412  29.345  29.127  21.052 -0.2339  0.2712  0.1365
84425W        W59413  27.849  13.942  15.002 -0.0350 -0.1173 -0.0451
84426W        W59414   8.794  28.411  22.100  0.0574 -0.2303 -0.0508
84427W        W59415  12.019  29.244  22.650  0.0612 -0.0686 -0.2223
84428W        W59416  20.963  10.228  19.611 -0.0826 -0.1126  0.0731
84429W        W59417  29.728  20.656  10.598  0.1167  0.0662 -0.3017
84430W        W59418  19.012  26.305   0.200 -0.0674 -0.1263 -0.0206
84431W        W59419  15.806  18.810  24.577 -0.0167  0.3363 -0.0110
84432W        W59420  28.801  16.385  15.358 -0.1816 -0.2680  0.0777
84433W        W59421  17.748  35.137  25.720 -0.1721  0.2701  0.1829
84434W        W59422  32.452  13.647  25.084  0.1505 -0.2149 -0.0329
84435W        W59423  15.580  12.937  10.741 -0.0846  0.0349 -0.1285
84436W        W59424   8.384  15.573  12.364 -0.1986 -0.0294  0.0118
84437W        W59425  19.898  13.895  19.844 -0.0851  0.3236  0.2447
84438W        W59426  31.741   7.552  11.643  0.2595 -0.0819  0.0953
84439W        W59427  12.617   5.398   8.076  0.2363  0.5594  0.1372
84440W        W59428  24.470  29.479  18.060 -0.1944 -0.0819  0.2173
84441W        W59429  15.390   6.872   8.326  0.2643 -0.1822  0.0938
84442W        W59430  12.716   2.702  10.682  0.0399  0.2706 -0.2854
84443W        W59431   7.156   6.673  21.503 -0.3736  0.0538  0.1334
84444W        W59432   0.825  35.233  14.838  0.1119  0.1495  0.0979
84445W        W59433  16.755  32.122   1.419 -0.0361  0.0143  0.2057
84446W        W59434  15.378  34.995  24.536 -0.2211  0.1031 -0.1394
84447W        W59435  10.733  23.976  13.437  0.4016 -0.1230 -0.0137
84448W        W59436  29.260   5.712  15.150 -0.0943  0.2192  0.1539
84449W        W59437   3.164  28.920   7.266  0.0310  0.1784  0.0066
84450W        W59438   0.001   6.411   6.339  0.0444  0.1233 -0.0093
84451W        W59439  13.967   2.362   8.209 -0.0194  0.2416  0.1451
84452W        W59440  33.616   2.127  12.996  0.0756  0.1905  0.2841
84453W        W59441  11.918  13.113  25.542  0.1066 -0.0616 -0.1025
84454W        W59442  28.086   8.830  18.743  0.0839  0.0299 -0.0170
84455W        W59443  19.235   3.323  17.996 -0.3271 -0.0591  0.1733
84456W        W59444   7.245   6.055  19.473  0.2091  0.0465 -0.0106
84457W        W59445  18.744   1.515  15.166 -0.0380 -0.1155 -0.0416
84458W        W59446  16.859   9.773  12.266 -0.0578  0.1767  0.1704
84459W        W59447  30.359  33.400  12.715  0.0422  0.4585  0.0459
84460W        W59448  35.264  16.222  15.897  0.1613  0.5063 -0.0400
84461W        W59449   1.636  35.126   7.821  0.0563 -0.2741  0.1462
84462W        W59450  18.352   8.590  18.528  0.2410 -0.0919  0.2265
84463W        W59451  10.795  26.224  10.943 -0.2370 -0.0828 -0.0992
84464W        W59452  32.400   6.822  19.553  0.2523 -0.2761 -0.1045
84465W        W59453  11.363  25.245   0.793  0.2658 -0.1565 -0.1719
84466W        W59454  34.381  28.182  15.199  0.0327  0.3059 -0.0882
84467W        W59455  20.528  19.692  19.785  0.0559  0.0776 -0.0806
84468W        W59456  30.257  27.357  17.958 -0.1363 -0.0979  0.2549
84469W        W59457   3.233  22.050  21.230 -0.2878 -0.3119 -0.1527
84470W        W59458   8.961  35.109   2.299 -0.1676  0.2661 -0.2972
84471W        W59459  11.590   2.311   9.332 -0.4519  0.0018  0.1099
84472W        W59460  24.644  11.263  23.811 -0.1571  0.1541  0.3180
84473W        W59461   7.573  24.498  25.278 -0.1800 -0.1229 -0.0050
84474W        W59462  29.368  11.793  11.943  0.0144 -0.1435  0.0379
84475W        W59463  22.897   6.264   0.273  0.1526  0.1564 -0.0858
84476W        W59464  26.045  33.425  21.679 -0.2946  0.1568  0.0403
84477W        W59465  27.346  30.040  17.862  0.0842 -0.1535 -0.1227
84478W        W59466  27.113   1.229  16.282 -0.2771 -0.1079 -0.0212
84479W        W59467   5.109  18.677  26.177 -0.1668  0.0294  0.0549
84480W        W59468  11.275  18.713  12.968 -0.0484  0.1205  0.1105
84481W        W59469  25.050  32.942  14.650 -0.4212 -0.1350  0.2670
84482W        W59470  11.085  20.687   4.551 -0.0096  0.0552 -0.2309
84483W        W59471  18.299  11.949  21.763  0.1746  0.1564 -0.1142
84484W        W59472  19.540   8.567   8.595 -0.1065  0.1120  0.0292
84485W        W59473   1.707   2.995  15.030  0.0365  0.0824 -0.1605
84486W        W59474   2.799   9.477  20.593 -0.1025  0.1253 -0.2329
84487W        W59475   7.338   7.282   9.955  0.0614  0.2355  0.0940
84488W        W59476  13.800  13.834  23.506  0.3268 -0.1898 -0.4059
84489W        W59477  24.457  31.708  13.992 -0.1814  0.2768  0.0537
84490W        W59478   7.062  24.340   9.903 -0.1489 -0.3152  0.1237
84491W        W59479  32.583  17.387   6.917  0.1157 -0.1628  0.2091
84492W        W59480   0.947   0.422  18.209 -0.0716  0.1651  0.4887
84493W        W59481  10.523  14.242   7.497 -0.0340  0.0950 -0.0136
84494W        W59482   1.808  19.239  22.171 -0.0804 -0.2927 -0.0376
84495W        W59483   9.406   8.361   0.428  0.1125  0.0822  0.0545
84496W        W59484  20.206  32.278   0.383  0.4718 -0.1953 -0.0447
84497W        W59485   6.629  14.718  11.311  0.1897  0.0229  0.5115
84498W        W59486   4.648  20.968   4.492  0.0398  0.0363  0.4267
84499W        W59487  25.422  11.661  21.574  0.0210 -0.0426 -0.0970
84500W        W59488   2.956  14.433  15.552 -0.1642  0.3657 -0.2217
84501W        W59489  11.326  13.626   7.109 -0.1101 -0.1251 -0.0355
84502W        W59490  24.510  11.508  25.549 -0.0990  0.1772  0.4363
84503W        W59491   3.847  32.246  22.303  0.0637 -0.2381 -0.0607
84504W        W59492  32.377   3.587   2.555 -0.0391  0.1800 -0.2158
84505W        W59493  17.680   9.749  20.455  0.0857  0.0545  0.3494
84506W        W59494  17.737  12.065   4.182  0.0986 -0.0491  0.0051
84507W        W59495  17.259  23.398  12.286 -0.1013 -0.1396 -0.2305
84508W        W59496  20.567  14.581  26.082 -0.0164  0.3134  0.0984
84509W        W59497  31.577  13.946  24.626  0.0330  0.4635 -0.2274
84510W        W59498   0.691  30.904  18.317 -0.0715 -0.1767 -0.2540
84511W        W59499  23.753  10.489  22.257  0.1845 -0.0339  0.0492
84512W        W59500  15.940  24.577   9.876 -0.0127  0.0948 -0.2358
84513W        W59501  13.866  12.409  10.943 -0.3822  0.1193  0.0845
84514W        W59502  10.541  28.392  22.572  0.2060  0.0538  0.0667
84515W        W59503  14.859  17.095  14.079  0.0727  0.0691 -0.3269
84516W        W59504  23.544  28.435  24.598 -0.2602 -0.2021 -0.3355
84517W        W59505   3.268  25.902  23.390 -0.2512  0.0458 -0.2717
84518W        W59506  10.690  23.596   8.700  0.2081 -0.0693  0.1499
84519W        W59507  20.118  34.287  24.282  0.0822 -0.0479 -0.1371
84520W        W59508  24.295   3.096  19.958  0.1168  0.0845  0.0040
84521W        W59509  27.539   1.798  13.670 -0.1707  0.2509  0.4155
84522W        W59510  14.003  24.845  24.330  0.1045 -0.1742  0.0349
84523W        W59511  32.050  11.423  24.406  0.1518 -0.1661 -0.0352
84524W        W59512  15.596   4.171  24.417  0.0772 -0.1096  0.0890
84525W        W59513  30.865  15.928  15.102 -0.0189  0.1629  0.0207
84526W        W59514  24.181  35.170  25.206  0.0817  0.0576 -0.3452
84527W        W59515  15.258  15.514   5.421  0.2345 -0.1284  0.1325
84528W        W59516  20.008   8.276  20.548  0.1823 -0.0201 -0.1091
84529W        W59517  26.992  31.734  16.458  0.0076  0.0034 -0.3592
84530W        W59518  19.248  14.886  24.796  0.1447  0.2361  0.0727
84531W        W59519  25.539   9.779  14.148  0.2588 -0.2457 -0.0744
84532W        W59520  15.040  10.543   5.181 -0.0014  0.1637 -0.4537
84533W        W59521  17.739  20.610   8.435 -0.5005 -0.0392 -0.1341
84534W        W59522  10.906  14.643   2.798  0.4147 -0.2341  0.2394
84535W        W59523  18.719  21.867  18.996 -0.0417  0.1295  0.2111
84536W        W59524  27.501  25.338  22.714  0.0395  0.0598 -0.1515
84537W        W59525  18.467   4.681  25.559  0.1381 -0.1051  0.2394
84538W        W59526  29.748  10.446  22.206  0.0885  0.1406 -0.1708
84539W        W59527  27.558  17.936  11.772  0.1993  0.0366  0.0446
84540W        W59528  15.237  29.475  11.850 -0.0304  0.1314  0.1132
84541W        W59529  31.243  29.476  15.539  0.0981  0.2048 -0.2705
84542W        W59530  10.769  14.526  20.731 -0.2283 -0.0703 -0.0128
84543W        W59531  34.104  16.301  18.145 -0.3634 -0.1631  0.0696
84544W        W59532   1.364   6.553  15.413 -0.2122  0.3320  0.1213
84545W        W59533   8.928   9.224  13.728 -0.1793 -0.1512 -0.3360
84546W        W59534  21.994  18.154  17.911 -0.0894  0.0269 -0.0488
84547W        W59535   3.053   0.101  22.191  0.0026  0.1271  0.1552
84548W        W59536   6.705  24.741   9.853  0.0723  0.1461 -0.1205
84549W        W59537  11.736  32.090   1.514 -0.1926  0.1161  0.3241
84550W        W59538  34.116   6.151  23.739  0.1603  0.2181 -0.1101
84551W        W59539  23.781  28.457  15.563  0.0154 -0.2478 -0.2001
84552W        W59540  29.945  14.883  19.779 -0.0931 -0.2342 -0.0653
84553W        W59541   1.862  33.206   1.742 -0.2189  0.0674  0.2453
84554W        W59542  32.602   0.236  16.393  0.0034 -0.0611  0.0330
84555W        W59543  14.170   4.995   7.753 -0.0432 -0.5246 -0.1728
84556W        W59544  20.677   0.164   7.050  0.2298 -0.6030 -0.0718
84557W        W59545  11.685  10.048   5.854  0.1014  0.1178  0.1128
84558W        W59546  29.655  22.852  24.137 -0.0746  0.0710  0.0052
84559W        W59547  28.088   2.897   4.694 -0.3556  0.3242 -0.0076
84560W        W59548  20.868  27.959   5.110 -0.1440  0.0843  0.1785
84561W        W59549   7.158  27.397   1.285 -0.1077 -0.0468  0.1484
84562W        W59550  29.784  29.842   4.018 -0.1047 -0.1118  0.2315
84563W        W59551  34.464  19.107  24.003  0.0821  0.0412  0.2204
84564W        W59552  12.536  13.471  22.350  0.0501 -0.0982  0.2550
84565W        W59553  28.160  15.856  19.613 -0.0901  0.0108  0.0846
84566W        W59554  26.440  14.348  12.631  0.2895  0.0523  0.0455
84567W        W59555  10.789   0.208  13.449  0.0148 -0.1420  0.2546
84568W        W59556  29.761  12.125  15.489  0.0988  0.3028 -0.1870
84569W        W59557  22.508  21.574   2.353  0.1837 -0.0190 -0.0365
84570W        W59558  24.078  11.707  15.895 -0.2076 -0.1572 -0.0032
84571W        W59559   3.028  16.391   1.810 -0.0887  0.1592 -0.0665
84572W        W59560  25.359   8.869  14.234  0.4341 -0.0357  0.2751
84573W        W59561   6.451  17.447   6.017  0.2866 -0.1158  0.1795
84574W        W59562  16.736  25.013  12.591 -0.1758 -0.2977  0.1193
84575W        W59563  26.297  11.169  12.273 -0.0644 -0.0854 -0.2609
84576W        W59564  21.801   8.164   7.692  0.1782 -0.0437 -0.0458
84577W        W59565  10.559  17.628  24.708 -0.1812  0.0365  0.0584
84578W        W59566  35.326  23.255  11.449 -0.0734  0.0233  0.3278
84579W        W59567   1.617   9.776  16.201  0.1774  0.2742 -0.2276
84580W        W59568  24.853   8.408  19.972  0.2812 -0.1187 -0.0039
84581W        W59569  28.622  29.112  16.155 -0.0827 -0.0854  0.3844
84582W        W59570   0.503  30.625   7.002  0.2287 -0.0778  0.5088
84583W        W59571   3.720  22.226  24.331  0.0397  0.0689  0.2060
84584W        W59572  11.532  15.047   9.638  0.0151  0.3239  0.0424
84585W        W59573  21.110  25.968   6.982  0.4762 -0.1265 -0.1543
84586W        W59574  32.056  30.821   1.138 -0.2373 -0.1459 -0.2226
84587W        W59575   7.616   9.312  24.255  0.0792  0.0075 -0.1325
84588W        W59576   6.552  16.511  20.000 -0.2480  0.0276  0.1649
84589W        W59577  32.906  13.679  17.516  0.1116  0.1890 -0.2500
84590W        W59578  15.672  28.163  10.679  0.1302  0.2447  0.3878
84591W        W59579  17.179  32.944  19.851 -0.2465  0.1406  0.1586
84592W        W59580  11.843  24.623   4.504 -0.1027 -0.1406 -0.3624
84593W        W59581  17.097  19.810   5.827  0.1353 -0.0026  0.1766
84594W        W59582  23.638  22.874  16.354 -0.0426  0.0814 -0.0356
84595W        W59583  21.486  14.587  19.690 -0.0472  0.1359 -0.2033
84596W        W59584  25.791   9.954  14.988  0.2069 -0.0005 -0.4191
84597W        W59585  15.811  32.493   2.201  0.0384 -0.0424 -0.3822
84598W        W59586  34.646   8.481  23.394  0.2246  0.0223 -0.0545
84599W        W59587  16.319  34.414  11.100  0.4484 -0.1612 -0.0407
84600W        W59588  18.234   7.100  12.447 -0.0826  0.2960 -0.0090
84601W        W59589   1.208   8.480   3.181  0.1670  0.0135  0.2278
84602W        W59590  27.632  21.356   7.011  0.0926 -0.1205  0.1908
84603W        W59591  13.393  27.801   2.063 -0.0219  0.0786  0.0354
84604W        W59592  18.966  27.389   2.733  0.1553  0.2732  0.1504
84605W        W59593  27.657   5.381  21.158  0.2552 -0.1793 -0.0771
84606W        W59594   0.034   7.624  16.139 -0.1152 -0.1604 -0.0672
84607W        W59595  10.785  13.686  23.358  0.2570 -0.2235  0.0958
84608W        W59596   2.009  16.613  25.078 -0.0893 -0.0048 -0.2111
84609W        W59597  26.693  30.883  15.604  0.0362 -0.0601  0.1401
84610W        W59598  34.067  12.903  22.776  0.0564 -0.0143  0.1751
84611W        W59599  12.750  11.257   1.869  0.0805 -0.0310  0.0772
84612W        W59600  25.540  27.804  17.335  0.1499 -0.1450  0.0672
84613W        W59601  10.445   0.548  25.990  0.1030  0.3915 -0.2098
84614W        W59602  27.999   0.835  15.991 -0.2226 -0.1017 -0.1443
84615W        W59603  27.403  19.888  12.213  0.4193 -0.1697 -0.1074
84616W        W59604  31.740  23.399  17.667  0.0765  0.0934 -0.0703
84617W        W59605  16.843  26.543   3.699 -0.2308 -0.1003 -0.0140
84618W        W59606  31.819   1.910  18.517  0.0685  0.2439 -0.1431
84619W        W59607   0.803   3.205   2.605 -0.1858 -0.0562 -0.2138
84620W        W59608  17.177  20.263   7.869  0.1883 -0.1736  0.0233
84621W        W59609   7.723   7.099  23.316 -0.0015 -0.0053 -0.2149
84622W        W59610  19.525  14.422   1.810 -0.2592  0.1586  0.1678
84623W        W59611  23.851  14.219  22.295 -0.0287 -0.3917  0.1599
84624W        W59612   0.311   6.686   6.081  0.4401  0.1022 -0.0795
84625W        W59613   9.443  29.497   6.226 -0.1783 -0.2708 -0.1436
84626W        W59614   6.961  12.825  20.814  0.0935 -0.1072 -0.1689
84627W        W59615  23.206  10.855  22.663  0.0906  0.0063 -0.3827
84628W        W59616   5.083   9.282  21.701  0.0842  0.0541 -0.1186
84629W        W59617  32.153  20.124  12.794  0.3011  0.1756 -0.3122
84630W        W59618   4.866   2.493  20.386 -0.1554 -0.2456 -0.2783
84631W        W59619  29.086  10.655  20.824  0.1293 -0.0970  0.0284
84632W        W59620  14.435  29.238   5.218  0.0486 -0.3078 -0.0185
84633W        W59621   1.853  12.496  23.491 -0.0201 -0.0139 -0.3680
84634W        W59622  11.132  34.383  23.068  0.1285  0.2029 -0.1137
84635W        W59623  27.387  27.920   3.569 -0.1404 -0.0413 -0.3214
84636W        W59624   8.892  12.103  23.802 -0.2721 -0.1115 -0.0313
84637W        W59625   0.311   4.918   7.791 -0.0170  0.0352  0.1599
84638W        W59626  23.592  28.135  20.819  0.0562  0.1475 -0.0185
84639W        W59627  20.758  28.196  21.496  0.1089  0.2182  0.2529
84640W        W59628  32.524   9.899  19.580 -0.0323  0.0195  0.0373
84641W        W59629   2.940   7.161  17.827  0.1047  0.3513 -0.0422
84642W        W59630  30.764  24.037  19.153  0.3001  0.0769  0.0901
84643W        W59631  28.635  14.669  14.440 -0.0019  0.1502  0.3970
84644W        W59632   9.766  32.828  13.537  0.1783 -0.0317 -0.0981
84645W        W59633   6.262  32.761  12.906 -0.1026  0.1091  0.1571
84646W        W59634  32.247  34.382   7.096 -0.2198  0.3200 -0.0844
84647W        W59635  22.632   3.724  15.450 -0.2293  0.0921 -0.4197
84648W        W59636   5.922  33.661   5.842  0.0398 -0.2699  0.0045
84649W        W59637  33.731   5.535   4.494  0.0173 -0.2110 -0.2858
84650W        W59638   7.339  26.403  13.753 -0.0962 -0.1156  0.0344
84651W        W59639  34.806  18.051  25.860  0.0063 -0.2790  0.0327
84652W        W59640   9.171   1.532  21.858  0.0362  0.1128  0.0477
84653W        W59641  34.514  31.251   3.556 -0.2042 -0.2989  0.0401
84654W        W59642  27.634  28.302  17.073 -0.2397 -0.1569  0.3479
84655W        W59643  16.205  20.804   0.507 -0.1846 -0.0763  0.1536
84656W        W59644  34.010  21.430  13.329 -0.1621  0.1465  0.6588
84657W        W59645   3.262  11.471  24.274 -0.0969  0.0157  0.0399
84658W        W59646  11.186  10.213   0.033  0.3576 -0.0560  0.4278
84659W        W59647  32.534   6.425   1.225 -0.0625 -0.0139 -0.2742
84660W        W59648  20.602   4.976  16.722 -0.3182  0.0615  0.4083
84661W        W59649  27.716   4.707   2.237 -0.2638 -0.0127  0.1994
84662W        W59650   3.775  27.964  10.369  0.2123  0.1961 -0.0621
84663W        W59651   8.841   9.242   6.281  0.0835 -0.1647 -0.2851
84664W        W59652  29.771  15.860   4.268 -0.0356 -0.0478 -0.0127
84665W        W59653  34.044   9.183  24.645  0.2031 -0.0956 -0.0260
84666W        W59654  22.426  18.929  17.825 -0.0188  0.3195  0.1305
84667W        W59655  35.022  13.090  20.086  0.0070 -0.0593 -0.4822
84668W        W59656  31.129  34.625  15.342  0.3388 -0.0228  0.2563
84669W        W59657  26.926  32.870  14.122  0.0723  0.1887  0.0231
84670W        W59658  25.864   3.155  18.164  0.3421 -0.2796 -0.0647
84671W        W59659  33.837  35.348   0.686 -0.0318 -0.2321  0.2423
84672W        W59660  33.538  26.953   1.687  0.1414  0.0845 -0.3800
84673W        W59661   9.282   8.122  25.502  0.1173  0.2506 -0.1178
84674W        W59662   6.128   2.370   0.941 -0.1014 -0.2702 -0.0532
84675W        W59663  23.401  27.076   4.320  0.1606 -0.2722 -0.1994
84676W        W59664  28.438   6.278  16.339  0.0676 -0.0999 -0.1737
84677W        W59665  27.921   7.386  23.392  0.1251  0.1469 -0.1577
84678W        W59666  20.662   7.327  24.107 -0.0048 -0.1807 -0.1489
84679W        W59667  29.193  25.811   0.081  0.0570 -0.1103 -0.1618
84680W        W59668   4.180  25.044  23.989  0.2562 -0.3747 -0.0340
84681W        W59669   6.955   9.852   2.259 -0.1462  0.1321  0.3127
84682W        W59670   4.970  17.885  23.607  0.3345 -0.0125  0.0192
84683W        W59671  22.460  22.096   3.342 -0.2299 -0.0871 -0.2185
84684W        W59672  15.609   8.788  26.025 -0.3922  0.3226  0.0324
84685W        W59673  15.360  29.894   6.367  0.1560  0.0139 -0.2279
84686W        W59674  29.112   0.124  13.792 -0.1047  0.0478  0.1031
84687W        W59675  16.639  12.281   8.799 -0.0830  0.0554 -0.0614
84688W        W59676   8.733  28.585   6.848 -0.1962  0.3099 -0.1843
84689W        W59677  26.029  35.370  11.400  0.0286  0.1394 -0.3922
84690W        W59678  12.200  22.474  13.677 -0.1377  0.1486 -0.1946
84691W        W59679   9.072  31.257  23.152  0.2241  0.0763  0.0372
84692W        W59680  12.582   3.704  11.881 -0.1566  0.0672 -0.0794
84693W        W59681  22.884   4.964   4.024 -0.0307 -0.1481  0.4327
84694W        W59682   1.918  30.978  20.768  0.2777  0.0787 -0.1160
84695W        W59683  17.891   9.485  23.992  0.2172  0.0369 -0.4107
84696W        W59684  31.425  10.647  16.991  0.2264  0.0012  0.1765
84697W        W59685  17.124   8.649   8.811  0.2572  0.1366 -0.0771
84698W        W59686  10.258  10.060  20.666 -0.1891 -0.2852  0.2548
84699W        W59687  18.889  34.999   2.517 -0.0269 -0.1622  0.1130
84700W        W59688   7.371  15.702   5.723  0.0715  0.3000 -0.0013
84701W        W59689  35.287   9.790  16.247 -0.0029 -0.2091 -0.0120
84702W        W59690  26.974  17.497   5.457 -0.1078 -0.1042  0.1135
84703W        W59691  13.026   8.887  10.423  0.1419  0.0404 -0.0136
84704W        W59692  33.822   7.922  19.142 -0.0522 -0.6024  0.2179
84705W        W59693  32.851  15.482  16.668  0.2002  0.1276 -0.2828
84706W        W59694  18.442  34.891   0.607  0.1021  0.1214  0.2016
84707W        W59695  30.351  23.603   0.816 -0.1986  0.0875  0.0835
84708W        W59696  32.707  18.324  13.541  0.0331  0.0317  0.1631
84709W        W59697   2.878  35.284   3.548 -0.1255 -0.0955  0.1520
84710W        W59698   3.628  17.190   0.682 -0.0284 -0.1011  0.0887
84711W        W59699   5.660  31.085  12.127 -0.1512 -0.1190  0.2419
84712W        W59700  25.015  18.717   9.530 -0.5436  0.3880 -0.0771
84713W        W59701   8.151  20.319  12.669  0.0501 -0.0755 -0.0749
84714W        W59702   0.659  26.317  21.205  0.3136  0.0858  0.1557
84715W        W59703   6.840  17.881  20.121  0.1111 -0.1444  0.0521
84716W        W59704   2.485  24.044  21.694 -0.0640 -0.1637 -0.1331
84717W        W59705   6.442  13.060   5.491  0.0396  0.2304 -0.0213
84718W        W59706   9.354  11.491   0.533  0.0136 -0.4330 -0.0223
84719W        W59707   1.956   4.863   2.280  0.3267 -0.0399 -0.1106
84720W        W59708  25.479  14.538  15.758 -0.3101  0.0189  0.3269
84721W        W59709   9.108  26.781  15.216 -0.0638 -0.0409  0.4305
84722W        W59710  31.662   1.623  25.565 -0.1984 -0.0806  0.0118
84723W        W59711  24.406  31.120  22.179 -0.0303 -0.0927 -0.0665
84724W        W59712  10.176   0.697  10.850 -0.1203 -0.0151  0.2216
84725W        W59713  13.600  22.426  22.866 -0.2040 -0.0951 -0.0421
84726W        W59714  34.318   7.271  19.231 -0.2622 -0.0174  0.2210
84727W        W59715  19.052   9.267  22.027 -0.1015  0.1823 -0.2380
84728W        W59716  14.090  27.279  17.262  0.1383  0.0363 -0.1897
84729W        W59717  27.951  17.425   6.570 -0.3514  0.0201  0.0853
84730W        W59718  14.948   1.225   2.666 -0.0613 -0.1124 -0.2900
84731W        W59719   4.063   2.198  18.469  0.1206 -0.0501  0.0245
84732W        W59720  27.416   0.541  11.583 -0.5183 -0.0984 -0.1435
84733W        W59721  18.675  32.910  15.602 -0.2863  0.0252  0.0625
84734W        W59722  30.851   5.623  13.209 -0.0019  0.1738  0.1603
84735W        W59723  15.667  13.442   3.063 -0.0449 -0.1370  0.2287
84736W        W59724   6.412   9.762   6.615 -0.0528  0.1680  0.2975
84737W        W59725  31.523  11.769   8.586 -0.0443  0.1644 -0.2006
84738W        W59726  19.640  29.854   0.263  0.0006 -0.2154  0.2225
84739W        W59727  34.179  11.512  24.629 -0.0020  0.2054 -0.2248
84740W        W59728   1.679  30.651  25.270  0.0901  0.2404  0.1375
84741W        W59729  35.302  31.660  24.244 -0.1242 -0.1285 -0.0020
84742W        W59730  20.449   9.480  22.224  0.1586 -0.1730  0.0178
84743W        W59731  29.340  19.257   7.469 -0.0044  0.0006 -0.1150
84744W        W59732   2.070  32.039  24.991  0.0795 -0.0285 -0.0510
84745W        W59733  29.719  25.465  20.056  0.2101 -0.1675 -0.1499
84746W        W59734   7.329  31.332  10.765  0.1875 -0.2321 -0.2050
84747W        W59735   6.254   3.746   3.140  0.1119 -0.0570  0.0858
84748W        W59736  18.956  16.214   1.091 -0.0895 -0.2319  0.1053
84749W        W59737  19.698  17.411   4.925 -0.1960  0.0220  0.1179
84750W        W59738  22.192  22.025  18.704  0.2775  0.0463 -0.1079
84751W        W59739   2.311   8.232  18.151 -0.0023 -0.1348  0.2722
84752W        W59740  17.765   0.867   6.824 -0.1976  0.2845  0.0523
84753W        W59741   8.751  22.055  25.215  0.0503 -0.0378  0.0768
84754W        W59742  27.560  30.263  19.738 -0.0483  0.1330 -0.0937
84755W        W59743  29.655  13.034   7.941 -0.3383 -0.1249 -0.1369
84756W        W59744  31.458  30.805   0.261 -0.0757 -0.2120  0.3638
84757W        W59745   4.157  32.928   3.173 -0.1466 -0.2412 -0.1765
84758W        W59746  29.403  34.511  22.155  0.0581 -0.0892 -0.2082
84759W        W59747  11.323   9.674  22.973  0.1891  0.0641  0.0088
84760W        W59748   6.437  34.624   4.390  0.1303  0.0322 -0.1229
84761W        W59749  29.130  29.599  23.677  0.0157  0.0956  0.1499
84762W        W59750  18.393  15.791   4.545  0.0822 -0.0855  0.0812
84763W        W59751  26.709  25.213  12.734 -0.0827  0.2941 -0.0281
84764W        W59752  30.798  23.495   6.851  0.2007 -0.4897 -0.2757
84765W        W59753  10.862  15.074  19.214 -0.0298 -0.1142 -0.0506
84766W        W59754  24.955  12.105  18.469 -0.0911 -0.2401 -0.0790
84767W        W59755  11.025  14.399   5.423  0.2849  0.1078 -0.3085
84768W        W59756  21.801   4.425  17.224 -0.1128 -0.0391  0.1308
84769W        W59757  24.488  30.950   1.970 -0.2277  0.0616  0.1229
84770W        W59758   2.697   1.536   1.113  0.2452 -0.1261 -0.0145
84771W        W59759   1.717  16.454  13.128 -0.1895 -0.0276  0.2290
84772W        W59760  27.806   9.547  13.838  0.1805 -0.2152 -0.3798
84773W        W59761   9.148  30.231  13.078 -0.1429 -0.0081 -0.2263
84774W        W59762   2.430  33.906  23.801  0.1327  0.0694 -0.0000
84775W        W59763  32.485  27.446  20.635  0.0908  0.1581  0.2713
84776W        W59764  15.255   2.531   2.897 -0.1525  0.0454 -0.3924
84777W        W59765  12.113  13.760   8.091 -0.2704 -0.1989  0.3151
84778W        W59766  16.039   8.165   3.951  0.4034  0.1817  0.1329
84779W        W59767  33.150  28.027  16.744 -0.3596 -0.0726  0.0908
84780W        W59768  14.032  19.611   9.225  0.1109  0.0816  0.0365
84781W        W59769   3.271  30.402   0.206  0.1014  0.0976  0.4614
84782W        W59770   9.734  19.261   4.058  0.0100  0.0253 -0.4670
84783W        W59771  22.325   4.587  21.874 -0.2607 -0.0150  0.0629
84784W        W59772  16.134   3.499   2.428 -0.1177  0.5213  0.0761
84785W        W59773  15.020  11.603   4.465  0.0441 -0.0410 -0.0339
84786W        W59774  22.245   0.878  23.829 -0.0154 -0.2725 -0.1017
84787W        W59775  13.281  15.956  25.322  0.1942  0.2024 -0.1690
84788W        W59776   5.599   2.732   1.545  0.1215  0.0460 -0.0345
84789W        W59777  12.704  21.798   3.926  0.2067  0.0343  0.2771
84790W        W59778  13.429  20.013  26.172 -0.2847 -0.4740 -0.0273
84791W        W59779  29.612  33.119  19.341 -0.3249 -0.0652 -0.0653
84792W        W59780   6.829   7.683   0.552 -0.1819  0.0404  0.2799
84793W        W59781  24.166   0.678  24.820  0.1163  0.1064  0.2423
84794W        W59782   9.734  17.617  23.265  0.2424 -0.2205  0.3151
84795W        W59783  11.334  14.148  18.558  0.2088 -0.1266 -0.1584
84796W        W59784  28.446   7.082  13.206 -0.3712 -0.1659  0.4621
84797W        W59785  11.500  33.016  24.892 -0.0044  0.0354 -0.0807
84798W        W59786  12.042  33.191   1.846 -0.1622  0.3988 -0.2075
84799W        W59787   3.232  15.833  25.211  0.0079  0.0392  0.1221
84800W        W59788   0.579  23.800  19.169  0.0293  0.0443 -0.3076
84801W        W59789  26.399  18.400   7.099  0.0006 -0.0469  0.0379
84802W        W59790  17.879  30.571   8.872 -0.0590  0.0000  0.0591
84803W        W59791  20.226  17.816  18.209 -0.0689 -0.0473  0.2273
84804W        W59792   4.826  33.162   0.257  0.2076  0.0241  0.0870
84805W        W59793  21.848  15.536  25.340 -0.2883 -0.0841  0.1250
84806W        W59794   0.421  34.271  19.415  0.0845  0.2053  0.0855
84807W        W59795  30.332  14.820  17.075 -0.1334 -0.3191 -0.4979
84808W        W59796  28.057   4.963  16.595 -0.0328  0.2156 -0.0714
84809W        W59797  19.104  13.268  19.767  0.1821  0.0400 -0.2780
84810W        W59798  18.703   3.521   1.448 -0.2368  0.0568 -0.1019
84811W        W59799  31.381  16.355  16.999 -0.3354 -0.2489  0.0566
84812W        W59800  34.085  35.227  24.299  0.1774 -0.2131 -0.1377
84813W        W59801  18.109  33.610  25.883  0.0369  0.0686 -0.0724
84814W        W59802   4.847  13.819  23.145  0.0930  0.0013 -0.2058
84815W        W59803  27.633  23.943   7.613  0.1571 -0.1677  0.0184
84816W        W59804   2.783   1.529   8.938 -0.0183 -0.1618  0.0949
84817W        W59805   6.051  31.660   2.753  0.1328  0.1217  0.1210
84818W        W59806   3.907   2.395   8.094 -0.1376  0.0795 -0.1899
84819W        W59807   8.678  33.074   5.643  0.2316 -0.0305 -0.0444
84820W        W59808   3.608  18.146   3.640  0.0382 -0.0381 -0.1752
84821W        W59809  11.606   7.589   6.475 -0.0381 -0.0667 -0.1059
84822W        W59810  20.049  21.562  18.475  0.0467 -0.0239 -0.1683
84823W        W59811   6.915  17.146  22.344  0.2332  0.2570  0.1492
84824W        W59812  26.345  23.696  12.852 -0.1853 -0.0628  0.1109
84825W        W59813  17.554  31.545  19.480 -0.0059  0.1736 -0.0296
84826W        W59814  11.606  16.366  13.302  0.0237  0.3125  0.0969
84827W        W59815  16.483   6.640  24.103 -0.1374 -0.3885  0.0241
84828W        W59816   0.561  33.745   5.529  0.0761  0.2125  0.0045
84829W        W59817  10.767   5.034  21.852  0.1786  0.0487  0.0091
84830W        W59818  20.738  32.670   4.481  0.3174 -0.0672 -0.5056
84831W        W59819  28.194  23.772  12.503  0.0118  0.1877 -0.0878
84832W        W59820  22.197  10.165  24.593 -0.0667  0.4278 -0.0309
84833W        W59821  31.416  31.340  26.062 -0.0198  0.0357  0.2709
84834W        W59822   8.708   2.756   3.796  0.4238  0.1451 -0.4234
84835W        W59823  35.148  25.861  15.158 -0.0416  0.0683 -0.0212
84836W        W59824  16.308  12.555   8.470 -0.1041  0.0102 -0.1106
84837W        W59825   1.054  31.178  24.995  0.0789  0.0515  0.0380
84838W        W59826  25.137  27.856  10.023  0.3937  0.1133  0.0893
84839W        W59827  31.053  29.815  13.421  0.0486  0.3353 -0.1077
84840W        W59828  31.292  22.249  17.685  0.2782  0.1895 -0.2586
84841W        W59829   6.814  12.966  10.012 -0.2068 -0.3082  0.1703
84842W        W59830  12.938   5.766  26.035 -0.1226 -0.1594  0.1172
84843W        W59831  34.670   5.437  16.878 -0.0870  0.1744  0.1135
84844W        W59832   1.786  14.401  20.166 -0.3189  0.3983  0.1933
84845W        W59833  23.335   4.261   2.949 -0.0812 -0.2485 -0.0875
84846W        W59834  33.360  22.577  18.300 -0.3788  0.2209 -0.0389
84847W        W59835   1.871  17.717  14.165  0.3835 -0.1754  0.0336
84848W        W59836  27.409  34.722  19.103 -0.0721  0.1871 -0.1821
84849W        W59837  26.553   0.293  25.763 -0.0935  0.0294  0.2041
84850W        W59838  17.898   7.262   3.176  0.1147 -0.5005  0.3424
84851W        W59839  21.034  31.788   4.534  0.1320 -0.0914 -0.1580
84852W        W59840  34.390   7.454   4.666 -0.2638  0.1977  0.2386
84853W        W59841  24.976  28.436  14.186 -0.0087 -0.0973  0.2833
84854W        W59842  14.492  14.240  21.939 -0.0270  0.3575  0.0750
84855W        W59843  20.079   6.174   5.349 -0.1469  0.1161 -0.3202
84856W        W59844   1.726  11.718   0.698  0.2614  0.0477  0.1181
84857W        W59845  13.597  12.724   3.942 -0.2770  0.1041 -0.2171
84858W        W59846  21.723  32.017  22.708 -0.4405  0.0703  0.0535
84859W        W59847  10.613   7.408  21.255  0.1748  0.0914 -0.0088
84860W        W59848  34.915  23.570  21.201  0.5250  0.0084 -0.0270
84861W        W59849  14.409  25.720   0.742 -0.0234  0.0237 -0.2557
84862W        W59850   8.393   5.390  25.703  0.2229  0.0199 -0.2927
84863W        W59851  30.856  22.892  10.545  0.2548 -0.0609  0.4128
84864W        W59852  34.983  25.487  16.893  0.2641  0.1035 -0.1360
84865W        W59853  10.976  32.499  10.110 -0.0375 -0.1758 -0.1339
84866W        W59854   3.396  18.973   1.423  0.2938  0.0847  0.2206
84867W        W59855  12.986  16.758   7.499  0.0220  0.0076 -0.1876
84868W        W59856  15.737   8.400   5.122 -0.1325 -0.3044 -0.1319
84869W        W59857  29.126  29.922   9.844  0.0017 -0.2942  0.0219
84870W        W59858  12.639   7.131  13.536  0.1180  0.0381 -0.1600
84871W        W59859   1.911  23.700  13.754 -0.0166  0.0808 -0.1591
84872W        W59860   2.484   0.859  18.059 -0.1068 -0.0661 -0.1696
84873W        W59861   6.219  15.924  19.946 -0.1794  0.0545 -0.1509
84874W        W59862   1.683   5.505   3.033  0.2111 -0.0588 -0.1011
84875W        W59863  31.254  11.409  19.818  0.0214 -0.1007  0.0616
84876W        W59864   0.420   7.859  13.324 -0.1538 -0.2753 -0.3924
84877W        W59865  28.321  33.180  20.947  0.0411 -0.2043  0.1760
84878W        W59866  12.430   4.034  21.710 -0.2477 -0.0302 -0.0270
84879W        W59867  13.452  20.364  11.995 -0.1929 -0.0524  0.0780
84880W        W59868  28.664   7.762  14.314  0.1751  0.1296  0.0511
84881W        W59869  28.894  20.217  11.605 -0.2813  0.4695  0.0896
84882W        W59870  24.483  18.755  25.985  0.0859  0.1136 -0.3359
84883W        W59871   5.206  14.972  25.404  0.1688 -0.1013  0.3563
84884W        W59872  33.197  22.382  12.172  0.1646  0.2162  0.0175
84885W        W59873   6.025  32.814   5.626 -0.0351 -0.0987  0.3128
84886W        W59874  34.074  28.604  21.208  0.0728 -0.1334 -0.2255
84887W        W59875  32.598  12.760  18.590  0.2789 -0.1537 -0.2806
84888W        W59876  17.263   7.764  21.218 -0.1640  0.0586 -0.2919
84889W        W59877  33.722  30.222  14.666 -0.1381 -0.4373  0.1751
84890W        W59878   3.722  18.172  24.142  0.2193  0.0974 -0.2363
84891W        W59879  33.022  13.817   7.547  0.0749  0.0183 -0.3163
84892W        W59880  26.460   0.175  12.288 -0.0361 -0.0464  0.1926
84893W        W59881  13.134  27.396   1.288 -0.1241  0.1523  0.1527
84894W        W59882  10.521  20.215   6.550  0.0975 -0.1560  0.1410
84895W        W59883  19.696  12.667  20.824 -0.2691 -0.1267 -0.0490
84896W        W59884   5.977  25.246  12.071 -0.0628 -0.0712  0.1586
84897W        W59885  24.045  25.608  22.600  0.1236 -0.0437  0.0856
84898W        W59886  30.061  28.998  24.834 -0.1896 -0.0654  0.1754
84899W        W59887  15.633  24.466   7.984  0.3122 -0.0442  0.0874
84900W        W59888  29.352  24.789  16.944  0.1708 -0.0325 -0.1861
84901W        W59889  29.394  19.561  13.204  0.1442  0.1023 -0.0636
84902W        W59890   0.026  33.042   1.863 -0.0327 -0.1284  0.0545
84903W        W59891  20.335   5.128   8.466  0.2970  0.1806  0.3047
84904W        W59892  31.069  33.522  17.886 -0.0841 -0.1105  0.1890
84905W        W59893  23.261  23.736   2.607 -0.1197 -0.1277 -0.1088
84906W        W59894   6.130   4.267   7.388 -0.2635 -0.1451 -0.1660
84907W        W59895  24.177   2.720  21.175 -0.1427 -0.2485 -0.1518
84908W        W59896  34.850  33.139  19.023  0.0629  0.0131  0.2192
84909W        W59897  13.395   9.671  22.006  0.0558 -0.1601  0.1972
84910W        W59898   4.421  22.620   5.303 -0.0112  0.1542  0.0862
84911W        W59899   3.491  28.708  23.465 -0.0197  0.3121 -0.0619
84912W        W59900  33.486  11.004  11.992 -0.1517 -0.0635  0.3420
84913W        W59901   4.742   2.010  21.943 -0.0774  0.0703  0.3860
84914W        W59902   1.741  30.974  17.702  0.1466 -0.0619 -0.0940
84915W        W59903  24.526  26.458  23.413 -0.2784  0.0532 -0.0316
84916W        W59904  20.450   2.132  17.151 -0.2610 -0.2549 -0.0420
84917W        W59905  21.045   0.739  23.572  0.0652 -0.1386 -0.1711
84918W        W59906  18.900   2.266  15.018  0.1747 -0.0497  0.0899
84919W        W59907  17.124  21.852  12.229 -0.1535 -0.0545 -0.0016
84920W        W59908   9.208  33.817   7.121  0.0892 -0.2686 -0.3582
84921W        W59909  29.311  18.347  24.327 -0.1392  0.0370  0.1854
84922W        W59910  12.765   4.173  12.061 -0.0062  0.1180  0.1384
84923W        W59911  20.723  27.645  18.726  0.2040 -0.0097 -0.1542
84924W        W59912  23.657   6.358  19.243 -0.1141 -0.1178 -0.1515
84925W        W59913  24.840  34.534  19.664 -0.2335  0.3143 -0.0337
84926W        W59914  16.261  25.167  13.837 -0.0304  0.1563  0.1753
84927W        W59915  13.386  23.344  25.367  0.1517 -0.3051 -0.0283
84928W        W59916  17.046  15.092   2.669 -0.0567 -0.1006 -0.2024
84929W        W59917  14.569  30.048  14.967  0.1547 -0.1110 -0.4479
84930W        W59918  12.942  11.074  12.888  0.2333  0.2124 -0.2671
84931W        W59919  23.541  13.889  14.583  0.2567  0.1009  0.2507
84932W        W59920  18.845  28.435   3.390  0.2730 -0.0142  0.0369
84933W        W59921  12.031  29.374  14.493  0.1598  0.1678  0.1866
84934W        W59922  31.099  12.779  16.356  0.2538 -0.1456 -0.1955
84935W        W59923   0.726  22.019  14.026  0.0090  0.2365  0.2631
84936W        W59924  30.483   1.592  14.791 -0.0076  0.1671 -0.1787
84937W        W59925  23.829  22.593  26.122 -0.4458  0.1110 -0.5044
84938W        W59926   6.084  16.961   0.489  0.1175 -0.1941  0.0823
84939W        W59927  33.378   9.935  25.410 -0.0515 -0.2257 -0.1674
84940W        W59928  35.253  21.001  16.021 -0.0361 -0.3202 -0.0292
84941W        W59929  18.421   4.074   2.707  0.0550 -0.2557  0.0448
84942W        W59930  27.356  32.329  12.977 -0.0178  0.1781  0.0004
84943W        W59931   4.180  21.290  24.685 -0.0012 -0.1966  0.0592
84944W        W59932  20.444  24.298   6.053  0.0000  0.1089  0.3978
84945W        W59933  19.959  34.633   7.047  0.0442 -0.1200  0.2439
84946W        W59934  15.340  10.584  10.158  0.0793  0.1422  0.2765
84947W        W59935  12.313  20.131   9.602 -0.2483 -0.1591  0.1356
84948W        W59936  27.814   2.955  15.699 -0.0975  0.0017 -0.0343
84949W        W59937   5.696  31.833   6.181 -0.2526 -0.2045  0.0268
84950W        W59938  27.635  32.886  20.668  0.1154 -0.1318 -0.1737
84951W        W59939  33.360  30.180  22.986 -0.2941  0.0565  0.1421
84952W        W59940  24.657  31.868  12.287  0.0850 -0.2353 -0.1443
84953W        W59941  16.356  19.158  13.154 -0.1260  0.3381 -0.0987
84954W        W59942  34.500  24.172   1.072 -0.0376  0.2016 -0.2155
84955W        W59943   0.828  11.865  11.736 -0.2224 -0.3333 -0.1086
84956W        W59944   3.580  16.285   1.793 -0.1718 -0.1234  0.1160
84957W        W59945  26.602   1.213  26.081 -0.2472 -0.3157  0.1174
84958W        W59946  13.187  25.954  22.524 -0.1568 -0.1209 -0.3630
84959W        W59947  14.999  29.891   4.953  0.0036 -0.0336 -0.2759
84960W        W59948  26.640   5.146  13.851 -0.1284 -0.1021  0.0901
84961W        W59949  30.747  24.418  10.431  0.1133 -0.0336 -0.0680
84962W        W59950  14.009  35.086   9.255 -0.0336 -0.1166 -0.2557
84963W        W59951  29.922   6.724  19.622 -0.2817  0.1273  0.0807
84964W        W59952  32.345   4.751  17.529  0.3987  0.0743 -0.0859
84965W        W59953   6.181  12.289  17.298  0.0169  0.2211  0.0190
84966W        W59954  12.770  31.759   0.378 -0.2064 -0.2076 -0.1891
84967W        W59955   3.081   1.981   8.855  0.3017  0.2091 -0.1456
84968W        W59956  33.861   1.485  25.440  0.0237  0.4883 -0.1130
84969W        W59957  20.558  33.241  20.351  0.4189 -0.0567 -0.0504
84970W        W59958  22.782  29.757   3.816 -0.2933  0.5290  0.1991
84971W        W59959  14.661  32.406  19.863 -0.0199 -0.1866  0.1229
84972W        W59960  22.667  34.857   4.655  0.1092  0.0478 -0.2303
84973W        W59961   3.472  13.866  21.835 -0.0953  0.0044  0.1732
84974W        W59962   6.486  31.032   9.056  0.2599  0.2638 -0.0736
84975W        W59963  21.072  27.406  24.938  0.0643  0.0356  0.1404
84976W        W59964   8.715   0.421   0.997  0.1410  0.2045 -0.3052
84977W        W59965   0.097  22.774  11.343 -0.2307  0.0772 -0.2289
84978W        W59966  11.679   7.803   3.282 -0.0832 -0.0638 -0.1418
84979W        W59967  18.472  23.097  22.462 -0.0984 -0.3321  0.2392
84980W        W59968  32.207  13.585  17.023 -0.1426 -0.1610 -0.2645
84981W        W59969  29.904  34.649  22.163 -0.0664  0.0571  0.2439
84982W        W59970  23.412  16.926  22.540  0.0331 -0.4959  0.3298
84983W        W59971   5.622  32.432  11.786 -0.0283 -0.3195 -0.0393
84984W        W59972   7.655  23.099   2.593  0.2725 -0.0898  0.2630
84985W        W59973  15.543   0.001   5.763  0.0444  0.1214 -0.0713
84986W        W59974  29.399  18.535   5.645 -0.0755  0.0050 -0.0026
84987W        W59975   1.248   8.482  13.049 -0.0571 -0.0544  0.0117
84988W        W59976  24.789   8.809  14.234 -0.1026 -0.2000  0.0687
84989W        W59977   0.310   8.992  25.632  0.0006 -0.1499  0.1390
84990W        W59978   0.495   3.957  22.162 -0.1540  0.1278  0.0106
84991W        W59979  22.483  24.782  18.944 -0.1209  0.0416 -0.3226
84992W        W59980   0.799  28.080   4.286 -0.0445  0.1699 -0.2066
84993W        W59981   4.078   8.167  25.522  0.0576 -0.1256  0.1326
84994W        W59982   0.860  31.473  23.772 -0.1221  0.3626  0.2280
84995W        W59983  31.718  19.237  10.246  0.1416  0.2099  0.0323
84996W        W59984   4.356  23.021   1.696 -0.0698 -0.1359  0.0023
84997W        W59985  26.730   2.705  13.297  0.1508 -0.1475 -0.3140
84998W        W59986   9.173  32.571   6.891 -0.0953  0.0276 -0.0489
84999W        W59987  15.693   3.376   2.672  0.0955 -0.2655 -0.2037
85000W        W59988   0.916  31.947   1.359 -0.4400 -0.0359 -0.5818
85001W        W59989  23.621  22.314  18.407  0.0256  0.1301 -0.0829
85002W        W59990  24.593   7.227  16.519 -0.2884 -0.0970 -0.4866
85003W        W59991  28.800  24.186  18.362  0.2492 -0.3344 -0.1798
85004W        W59992  19.766  19.348   6.976  0.2049  0.0630 -0.0960
85005W        W59993  20.246  15.019  23.136 -0.1935  0.0634  0.1790
85006W        W59994   4.072  23.360   0.056 -0.1723 -0.3179 -0.2074
85007W        W59995  22.943  10.478   2.943  0.0982  0.0831  0.0958
85008W        W59996  25.797   3.117  13.072  0.1189  0.1975 -0.2218
85009W        W59997  15.235  14.600  22.860 -0.1498 -0.0691 -0.2489
85010W        W59998  26.415   3.464  24.596 -0.1305  0.1482  0.0045
85011W        W59999   6.660   2.011   6.377  0.1469  0.3684 -0.0480
85012W        W60000   8.138  33.000  26.106 -0.1939 -0.2077  0.1145
85013W        W60001  17.672  18.131  10.821  0.0569  0.1557 -0.0344
85014W        W60002  26.204  23.525   1.046 -0.0777  0.2001 -0.0759
85015W        W60003  30.059  22.888  19.367  0.0527 -0.2557 -0.0928
85016W        W60004  20.434  23.200   0.660  0.0651 -0.1048 -0.1034
85017W        W60005  20.541  29.136  24.523 -0.0665  0.0976 -0.0340
85018W        W60006  23.521  19.909  16.474 -0.2984  0.2438 -0.0906
85019W        W60007  20.707   8.872   6.537  0.1232  0.1552  0.2700
85020W        W60008  27.890  11.032   1.140  0.0050  0.0040  0.2155
85021W        W60009  11.818   4.579   1.413 -0.0368 -0.0366 -0.4380
85022W        W60010   6.558   1.126   9.700 -0.0477  0.1082  0.0134
85023W        W60011  18.988  12.071   3.506  0.0751  0.0889 -0.1768
85024W        W60012   2.236   9.267  18.057  0.0053 -0.0503 -0.1773
85025W        W60013   0.683   9.416   1.658  0.2914  0.0381  0.1467
85026W        W60014   6.621  25.403  14.193 -0.0744 -0.5598 -0.0363
85027W        W60015   1.675   7.311   2.732 -0.2870 -0.1765  0.0100
85028W        W60016   9.429  23.695   6.634 -0.1534 -0.0496  0.4182
85029W        W60017  27.280  14.417   0.151 -0.0203 -0.0051  0.2329
85030W        W60018  29.156   1.056   0.000 -0.4127  0.2116  0.0106
85031W        W60019  22.604  35.043  23.023  0.0099 -0.0496 -0.0326
85032W        W60020   3.997  33.653  18.519 -0.3991  0.1382 -0.0285
85033W        W60021  10.309  14.009  19.269 -0.3274  0.0355 -0.2188
85034W        W60022  14.478   6.143   5.842 -0.0200  0.0697  0.0547
85035W        W60023  31.414  23.924  11.448  0.1140 -0.2811  0.0633
85036W        W60024   4.858  20.818  23.321 -0.2840 -0.1349 -0.0107
85037W        W60025  31.430   1.404   1.060 -0.0441  0.1191 -0.2040
85038W        W60026  29.371  35.277   4.918  0.0746  0.1210  0.1076
85039W        W60027  18.837  32.014  20.568  0.1558  0.2127 -0.1238
85040W        W60028   4.062   2.521  20.941  0.0050  0.0440 -0.1312
85041W        W60029   5.457  25.310  24.014  0.1099 -0.5435 -0.2450
85042W        W60030   8.569  30.649  14.821  0.0416 -0.0716  0.2659
85043W        W60031  30.173  23.136   9.082  0.1688 -0.0870  0.0430
85044W        W60032   5.554  20.247   3.859  0.0569  0.1653 -0.1416
85045W        W60033  29.203  20.078  14.720 -0.3090 -0.1204  0.0275
85046W        W60034  22.067  34.403  24.328 -0.0137 -0.1975 -0.2433
85047W        W60035   5.817   3.523  21.386 -0.0741 -0.0887  0.0137
85048W        W60036  33.235  15.619  19.508 -0.1202  0.1839  0.2318
85049W        W60037   2.670   7.974  20.962  0.1181  0.1518  0.2759
85050W        W60038   5.032  33.237  21.240  0.0366 -0.1314  0.5055
85051W        W60039  19.925  14.150  18.915 -0.1336  0.3468  0.1679
85052W        W60040   3.697   7.471   3.682  0.0575 -0.0941 -0.1561
85053W        W60041  11.305   6.513  21.992  0.1463 -0.0999 -0.1367
85054W        W60042   8.110  14.328   0.491  0.0133  0.3177  0.0005
85055W        W60043   5.155  33.591   1.831  0.0614  0.1247 -0.1718
85056W        W60044   6.226  12.342   4.443  0.0361 -0.0358  0.1193
85057W        W60045  26.570  33.273  23.911 -0.1582 -0.1694 -0.1715
85058W        W60046  33.275  21.637  16.738 -0.0199  0.3765 -0.0043
85059W        W60047  11.274  29.968  15.052  0.0007  0.0241  0.1611
85060W        W60048  20.203   3.459  24.323 -0.3072 -0.2608  0.0406
85061W        W60049  11.111  32.537   3.201  0.0021  0.4318 -0.0922
85062W        W60050  10.793  17.556  20.618 -0.2500  0.4403 -0.1019
85063W        W60051  16.973  34.065  24.837  0.0886  0.1391  0.0683
85064W        W60052  15.187  27.469   0.226 -0.0083 -0.1358 -0.2087
85065W        W60053  21.617  15.293  21.282 -0.0827  0.2744 -0.0342
85066W        W60054  31.478   7.887   0.495  0.0650  0.0010 -0.2938
85067W        W60055  17.872  16.806  22.575 -0.0767 -0.1209 -0.2071
85068W        W60056   0.694   7.211  11.659 -0.0842  0.1324  0.0835
85069W        W60057   2.747  34.034   9.202 -0.3708  0.3232 -0.1129
85070W        W60058  10.956  32.795  21.643  0.2884 -0.0796  0.2087
85071W        W60059   1.967  34.017  23.981  0.2650 -0.1091  0.2496
85072W        W60060  34.123   2.759  25.441  0.1965  0.1818 -0.0790
85073W        W60061  32.366  22.771  22.397  0.3025  0.0900 -0.3717
85074W        W60062   7.005  14.616   1.295 -0.1319  0.2094  0.3135
85075W        W60063   3.553   7.016  20.941  0.0339  0.1386  0.3540
85076W        W60064   2.733   2.996   5.856  0.0910  0.1132  0.4463
85077W        W60065  18.966  22.555  25.801  0.0913 -0.1227 -0.1370
85078W        W60066  29.814  26.329  15.083  0.0789  0.3309  0.0415
85079W        W60067   2.171  10.258  14.547  0.1413  0.1296  0.1633
85080W        W60068   5.796  15.194   0.240  0.0342 -0.1181  0.0553
85081W        W60069   9.393   2.743   4.652  0.1870 -0.4322  0.2237
85082W        W60070  32.805  13.695  24.025 -0.1210 -0.1175 -0.0314
85083W        W60071  24.517   3.681  15.318  0.2253  0.3184  0.1277
85084W        W60072  24.535  22.457  15.020 -0.0595 -0.0527 -0.1533
85085W        W60073   8.804  16.590   1.517 -0.2196  0.2728 -0.0539
85086W        W60074  14.343   0.635  19.103  0.1017  0.1102  0.2274
85087W        W60075  12.178   4.767  24.218 -0.0165 -0.2308 -0.0641
85088W        W60076   4.865  28.498   8.623  0.0090 -0.2388 -0.2180
85089W        W60077  27.310  25.546   0.928 -0.1298  0.1305 -0.0163
85090W        W60078  23.604  14.125  19.062 -0.2453 -0.2049  0.0431
85091W        W60079  14.233  24.076   6.420 -0.0598  0.0246 -0.3193
85092W        W60080   1.727   6.290  26.067  0.2856  0.1579 -0.2127
85093W        W60081   2.287   7.942   1.597 -0.1515 -0.0450  0.0951
85094W        W60082   6.279  32.424  20.999 -0.0674 -0.2737  0.0099
85095W        W60083  17.283  33.035   1.064  0.0420 -0.0108 -0.0347
85096W        W60084  14.356   9.506   7.689 -0.0533 -0.2373 -0.1341
85097W        W60085  25.369  12.092   0.684  0.2435  0.2176  0.2872
85098W        W60086  28.283  13.370  24.631  0.0310 -0.1152  0.1878
85099W        W60087   7.394  16.710  11.810  0.1153 -0.0391  0.3590
85100W        W60088  24.320  23.575  19.632 -0.0036 -0.2210  0.0216
85101W        W60089   7.525  23.131   9.218  0.2248  0.0959  0.0162
85102W        W60090  32.585   3.223   1.569 -0.0570 -0.1326 -0.0922
85103W        W60091  12.092  32.130  15.609 -0.0862  0.1316 -0.1694
85104W        W60092   3.942   2.540   7.338 -0.1950 -0.2597 -0.0350
85105W        W60093  29.145   5.901   3.656 -0.0582 -0.0903  0.0226
85106W        W60094  29.704  33.981  20.615  0.0687  0.2666  0.2614
85107W        W60095  10.920   0.645  13.294  0.1521 -0.5002 -0.0240
85108W        W60096  29.607  21.482   6.535  0.1415  0.2233 -0.2045
85109W        W60097   2.324  18.997  15.091 -0.2410  0.3002 -0.0551
85110W        W60098   5.097   0.129   7.238  0.1641 -0.1886 -0.1033
85111W        W60099  17.848  22.557   4.450  0.2147 -0.2596  0.1761
85112W        W60100   0.915  26.854   1.052 -0.0173 -0.2387 -0.1203
85113W        W60101  25.337   7.586   1.647  0.0711  0.0270  0.3434
85114W        W60102  19.331   7.016   8.036 -0.1519 -0.1734 -0.0252
85115W        W60103  16.232   1.629  20.093  0.0621  0.1059 -0.0726
85116W        W60104  28.002  29.178  25.325 -0.0898  0.2979  0.2473
85117W        W60105  32.419  25.291  18.509  0.2245  0.0921  0.1692
85118W        W60106  30.757   0.041  15.984 -0.2406  0.3400 -0.0630
85119W        W60107  18.464  13.393  20.340  0.0049 -0.0336 -0.1832
85120W        W60108  32.426   6.235  21.111  0.2007  0.0638  0.2394
85121W        W60109  33.345  11.166  24.538 -0.1420 -0.0059 -0.0124
85122W        W60110  12.750   2.750   5.432  0.1641 -0.1494  0.0907
85123W        W60111   4.640  28.977  10.584  0.1993 -0.2361 -0.1888
85124W        W60112  27.996  13.872   4.701  0.3208  0.0500 -0.3501
85125W        W60113  20.960  35.355  20.818 -0.2174  0.0668  0.0367
85126W        W60114  32.733  23.221  17.084  0.1741 -0.0190 -0.0777
85127W        W60115  16.886  16.765  11.618  0.2201  0.1760  0.0230
85128W        W60116  26.717   0.248  19.927 -0.0657 -0.0036 -0.0926
85129W        W60117  19.348   7.430   9.825 -0.2620  0.0030  0.1037
85130W        W60118  24.873  10.825   0.561 -0.0658 -0.1301 -0.0133
85131W        W60119   2.166  13.512  17.689  0.2447  0.2968  0.2525
85132W        W60120  29.211  17.414  18.954  0.1582 -0.1181  0.1890
85133W        W60121   8.796  25.380  12.872  0.0139 -0.1422 -0.0983
85134W        W60122   2.004   5.453  14.776  0.3212  0.3351 -0.1015
85135W        W60123  17.177   7.361  23.344  0.0547 -0.0225  0.2804
85136W        W60124  15.679  17.499  10.110 -0.1974  0.0113 -0.0635
85137W        W60125   8.095  32.544  13.882  0.1072  0.0557  0.1279
85138W        W60126  31.232  19.783  11.659 -0.0372  0.1270 -0.1612
85139W        W60127   9.720   5.855  11.836  0.2521  0.1944  0.0686
85140W        W60128  14.205  32.105   7.335  0.0878  0.0877  0.0941
85141W        W60129  34.069  25.504  17.122 -0.2644 -0.0521 -0.0220
85142W        W60130  29.421   5.393  14.668 -0.0063  0.0305  0.1002
85143W        W60131  34.154  28.757   1.616 -0.0815  0.0505 -0.1122
85144W        W60132  10.785  10.501   1.221  0.2735  0.1218 -0.4671
85145W        W60133   8.936  28.215   9.613  0.2050 -0.1937 -0.4054
85146W        W60134  17.136  33.040   3.695  0.0365 -0.0417  0.3087
85147W        W60135   3.679  24.368  25.789  0.1201 -0.2265  0.3564
85148W        W60136  27.042  31.039  16.378  0.5731  0.2882  0.0655
85149W        W60137  18.036   7.905  21.917  0.4086 -0.0229 -0.1094
85150W        W60138  15.969   6.979  19.018 -0.3533  0.4460 -0.0262
85151W        W60139  21.644  23.466  18.323  0.1047 -0.3753 -0.3060
85152W        W60140  35.137   9.508   0.153  0.3162 -0.0904 -0.1228
85153W        W60141  30.489  19.771   7.503  0.2220  0.1474  0.0770
85154W        W60142   4.182  26.311   4.880 -0.4399  0.0950 -0.2008
85155W        W60143  27.018  16.690  16.983  0.1818  0.2226  0.3393
85156W        W60144  26.914   0.332  14.829  0.2050 -0.2174  0.0566
85157W        W60145  12.594  20.191   5.886  0.0542  0.0608 -0.0591
85158W        W60146  23.857   8.187   1.522  0.2173  0.2431  0.2959
85159W        W60147  22.573  11.669   3.264  0.0019 -0.1436 -0.1309
85160W        W60148   7.952  22.968   2.975 -0.0590  0.4721 -0.3041
85161W        W60149  20.765  31.710   2.116 -0.1286  0.1192 -0.0732
85162W        W60150   5.219  14.918  17.629 -0.0812  0.2009  0.1164
85163W        W60151   5.208  14.482   6.200  0.0926  0.2481 -0.0589
85164W        W60152   7.259  27.869   7.867 -0.0487 -0.0216  0.0540
85165W        W60153  12.058  23.080   3.728  0.1884 -0.1431 -0.3659
85166W        W60154   2.631  32.212   7.380 -0.2728 -0.1187  0.1415
85167W        W60155  16.755   8.906  12.863 -0.1624  0.0834  0.0179
85168W        W60156  30.457  12.457  10.655 -0.0944 -0.0237  0.0193
85169W        W60157   7.787  15.521   9.044 -0.1771  0.2253  0.0533
85170W        W60158   4.903  22.533  20.170 -0.1685  0.0481  0.0908
85171W        W60159  12.470   6.556  19.299 -0.0979 -0.1575  0.0005
85172W        W60160   9.532  31.006  10.117  0.1008  0.0178  0.0352
85173W        W60161  31.544  26.714  23.619 -0.2150 -0.0166 -0.1077
85174W        W60162  23.309  26.643  23.532 -0.1386  0.0448  0.2701
85175W        W60163  13.184  13.425  24.745  0.2919 -0.2350 -0.0209
85176W        W60164  12.519  22.931   3.849 -0.0168  0.0113 -0.1166
85177W        W60165   5.133  33.190  13.429  0.1303 -0.1267 -0.0355
85178W        W60166  11.749  30.775   1.784 -0.2631 -0.0624 -0.0790
85179W        W60167  10.715   5.061  25.825  0.2500  0.0932 -0.1593
85180W        W60168  16.220  14.461   1.852 -0.6796  0.2575  0.0334
85181W        W60169  27.033  16.974   5.741  0.2258 -0.0343  0.0042
85182W        W60170   8.407  17.499  25.903 -0.4639  0.1848  0.0801
85183W        W60171   3.823   4.732   8.842  0.2558 -0.0868 -0.1121
85184W        W60172   7.476   3.317  12.835  0.1020  0.0894 -0.0965
85185W        W60173   8.149   8.481  24.578 -0.2669 -0.0304 -0.0034
85186W        W60174  31.996   6.841  15.187 -0.1603 -0.1647  0.2129
85187W        W60175  23.169  22.040  19.316 -0.3466  0.1471  0.3250
85188W        W60176  23.524  28.485  13.382 -0.1779 -0.0029 -0.0798
85189W        W60177   5.295  34.801  24.391  0.0742 -0.0500  0.2938
85190W        W60178  13.456   0.701   5.996 -0.0844  0.2831 -0.1830
85191W        W60179  11.154  31.598  12.434 -0.0574 -0.2360 -0.4705
85192W        W60180   3.911  31.751  25.998 -0.2914  0.3516 -0.2318
85193W        W60181  20.763  29.096  19.960 -0.1955 -0.0190  0.2619
85194W        W60182  22.179  27.955  19.750 -0.2179 -0.0989  0.1940
85195W        W60183   0.950  27.713  16.163 -0.3533 -0.0709  0.1992
85196W        W60184  13.372  22.001  21.715 -0.1355 -0.2458 -0.1070
85197W        W60185   4.505  14.398   4.817  0.2433 -0.2813  0.1083
85198W        W60186  26.638  35.062  21.764  0.0111  0.1672  0.2311
85199W        W60187  24.467   0.736  16.917 -0.2719  0.1937  0.1723
85200W        W60188  31.817  34.587  18.052 -0.1501  0.0807 -0.1082
85201W        W60189   5.457  20.683  24.475 -0.3828 -0.0530  0.2017
85202W        W60190  29.795   4.248  12.723  0.2379 -0.0131  0.1482
85203W        W60191   3.765  18.263  14.337  0.1248 -0.0934  0.1574
85204W        W60192  11.050  34.132   2.109  0.1517 -0.1132 -0.3956
85205W        W60193  17.064   6.386  20.871 -0.0245  0.1633  0.2865
85206W        W60194  15.873  26.246  13.167  0.1352  0.1220  0.0635
85207W        W60195  34.015  24.744  23.008  0.0625 -0.0449  0.1469
85208W        W60196  17.751  13.822   4.776 -0.0906  0.1009 -0.0246
85209W        W60197   9.536   3.884  12.905 -0.0204  0.4164  0.2987
85210W        W60198  17.960  15.827   4.913  0.1743  0.1705  0.0182
85211W        W60199  34.412  21.727  10.366 -0.0043 -0.0970  0.5169
85212W        W60200  14.943  25.246  12.043 -0.2685  0.1894 -0.3453
85213W        W60201  26.792  26.962   2.829  0.0668 -0.0875  0.1569
85214W        W60202   2.558  18.379  19.853 -0.0614  0.1457 -0.2044
85215W        W60203  32.148  12.598  18.851 -0.3626  0.0612  0.0731
85216W        W60204  32.831   3.713  19.862  0.0646 -0.0143  0.2416
85217W        W60205   5.050   1.934  12.184  0.1132 -0.0309 -0.0169
85218W        W60206   3.510   4.198  18.896 -0.2632 -0.2443  0.3211
85219W        W60207   9.971  33.593   4.694 -0.1113 -0.2224  0.0098
85220W        W60208  13.473   8.102   1.762 -0.5603  0.5554 -0.4253
85221W        W60209  26.684  25.211  22.392 -0.1271 -0.1853 -0.3100
85222W        W60210  10.579   8.294  22.748 -0.0318  0.1845  0.0016
85223W        W60211   1.894  24.487  17.883  0.0720 -0.2383 -0.0123
85224W        W60212  28.006   4.966  14.303 -0.0587  0.0696  0.2690
85225W        W60213   7.549  13.015  18.870 -0.0408 -0.7015  0.1545
85226W        W60214  34.278  18.988   9.070  0.1026  0.3412 -0.0713
85227W        W60215  30.022  14.506  23.352  0.1177 -0.0125 -0.1773
85228W        W60216  17.126   8.485  19.518  0.1924  0.2634 -0.3035
85229W        W60217  12.269  20.878  25.082  0.0273  0.2513 -0.0468
85230W        W60218  19.689   5.902  10.686  0.0605 -0.2514 -0.2108
85231W        W60219  29.690  19.635   7.658 -0.1744 -0.1505  0.1506
85232W        W60220   4.521  27.948  23.963  0.0020 -0.2341  0.0585
85233W        W60221  31.734  23.909  24.551 -0.1136  0.0897 -0.1339
85234W        W60222  14.537  15.883   2.073  0.1095  0.0538 -0.0408
85235W        W60223  26.298  20.904  18.206  0.2664 -0.2271  0.0902
85236W        W60224  33.181  22.145  24.719 -0.0990 -0.2223 -0.0223
85237W        W60225  10.229  34.063   0.292 -0.1190 -0.0123  0.2172
85238W        W60226  15.081  11.653   1.193 -0.1799  0.0309  0.1166
85239W        W60227  16.489   6.437  25.511  0.2334 -0.1907  0.0899
85240W        W60228  32.555   5.497  18.584 -0.1212  0.1030  0.0607
85241W        W60229  13.057  34.308   4.951 -0.0629 -0.0170  0.2736
85242W        W60230  23.026  28.707  23.984 -0.1468  0.1757 -0.1167
85243W        W60231   1.548  17.117  24.555  0.2420  0.0186  0.1280
85244W        W60232  29.055  12.532  14.062 -0.1084 -0.0291  0.0157
85245W        W60233  32.325  34.092  21.502 -0.1121 -0.0010  0.2119
85246W        W60234   2.264   4.602  18.776 -0.0491 -0.0233 -0.0119
85247W        W60235  17.644  13.890  22.714  0.0123  0.1333 -0.2558
85248W        W60236  26.439  20.946  18.788 -0.0013 -0.1129  0.4280
85249W        W60237  33.280   5.793   2.091  0.0061 -0.0015  0.4806
85250W        W60238   3.273  31.301   5.248  0.0213 -0.2368  0.0847
85251W        W60239  22.725  34.765  25.960  0.1307 -0.1387  0.1339
85252W        W60240  32.330   1.370  16.985 -0.5402 -0.1307 -0.0849
85253W        W60241  13.849  15.361   2.713  0.0411  0.1943  0.2023
85254W        W60242   6.939  32.285   8.692 -0.0537 -0.0138 -0.1654
85255W        W60243   0.528   0.555   0.931  0.0560  0.1652  0.0920
85256W        W60244  28.496  21.268  16.409  0.1774 -0.2196 -0.1858
85257W        W60245  21.385  33.121  18.329 -0.4069  0.1462  0.0746
85258W        W60246   5.639  13.492  20.010  0.1232 -0.0720 -0.2171
85259W        W60247  25.519  16.831  14.651 -0.3432 -0.1218 -0.1559
85260W        W60248  18.518  29.687   9.411  0.3039  0.2455  0.1004
85261W        W60249  20.300   9.176  10.056 -0.2722 -0.2674 -0.2209
85262W        W60250   9.231   1.302  21.348 -0.0592  0.1650  0.0168
85263W        W60251  34.346   2.414  14.891  0.1014 -0.1940  0.2529
85264W        W60252  24.402  24.090  15.424 -0.1614 -0.1001  0.1940
85265W        W60253  23.584   1.604  24.099 -0.1792 -0.0109  0.0712
85266W        W60254  15.342  34.141  24.911  0.1185 -0.3189  0.2130
85267W        W60255   9.738  33.105  23.276 -0.1045  0.1266  0.0347
85268W        W60256  10.091  28.931   8.023 -0.1616  0.0614 -0.2773
85269W        W60257   0.932   2.290  21.653  0.0607  0.1014  0.4182
85270W        W60258  24.007  20.608   0.645  0.0305  0.1821  0.0577
85271W        W60259  33.800  10.500  12.457  0.0641  0.0107 -0.1798
85272W        W60260  27.185   8.977  15.341 -0.1159  0.1544 -0.1061
85273W        W60261  14.120   4.579   2.935 -0.4188 -0.1112  0.2714
85274W        W60262  28.135   9.089  16.535  0.0408  0.0224  0.0339
85275W        W60263   7.492   5.844  20.326  0.2080  0.0150  0.1203
85276W        W60264  27.116   8.968  25.672 -0.0777 -0.1189  0.0639
85277W        W60265  10.925   6.826  13.664  0.2005 -0.1866 -0.0341
85278W        W60266  27.847   5.279  16.277  0.2332 -0.0088 -0.1012
85279W        W60267  22.847  12.558  21.440  0.1701 -0.1145  0.0109
85280W        W60268   5.565   6.561   3.889  0.0203  0.1650  0.4161
85281W        W60269   6.715   2.194  19.939  0.1293 -0.0598  0.2375
85282W        W60270  33.601  24.076  10.752 -0.0222  0.0431 -0.3371
85283W        W60271  32.980  13.009  12.368 -0.1504 -0.2461  0.0532
85284W        W60272  10.667   2.019  13.429 -0.0750 -0.1041 -0.0073
85285W        W60273   4.753  31.626   3.702  0.1334 -0.1725 -0.2187
85286W        W60274  28.067  31.949  19.642 -0.1206  0.3372  0.0444
85287W        W60275   5.875  20.179  20.863  0.0616  0.0275 -0.2470
85288W        W60276   6.952  26.748  13.566 -0.2044 -0.0090 -0.2406
85289W        W60277  27.162  32.834  17.278  0.0387 -0.2019 -0.0177
85290W        W60278  33.197  15.250  14.683 -0.1591 -0.1821  0.1213
85291W        W60279  11.092  20.004  14.125  0.0480  0.0917 -0.2009
85292W        W60280   0.864   1.256  16.989 -0.0975 -0.0455 -0.0884
85293W        W60281  33.798  14.710  22.965 -0.1231 -0.0565  0.0500
85294W        W60282  17.980  25.695  10.409 -0.1295  0.0615  0.0685
85295W        W60283  16.236  32.207   3.154 -0.0955  0.1814  0.1107
85296W        W60284  18.562   2.169  23.000 -0.0534  0.0211 -0.0171
85297W        W60285  32.388   8.236  11.598 -0.3118 -0.2626  0.4087
85298W        W60286  29.047   2.523   5.670 -0.1794 -0.1638  0.2812
85299W        W60287   2.281  29.280  23.547  0.0559 -0.4695  0.1949
85300W        W60288  16.823  33.591  24.978  0.0770  0.0012 -0.1918
85301W        W60289  22.451   2.837  16.839  0.2174  0.2402 -0.0355
85302W        W60290  15.590  19.897   4.113  0.1484  0.2296  0.0311
85303W        W60291   8.643  31.970  10.596 -0.4348 -0.0556  0.1996
85304W        W60292  14.385  15.956  13.289  0.2012  0.1153  0.0259
85305W        W60293  26.239   4.745  24.080 -0.0369  0.4065  0.3251
85306W        W60294   3.423  33.046   5.494 -0.1431  0.3185 -0.1057
85307W        W60295  17.668  10.338  22.101 -0.0287  0.0055  0.0336
85308W        W60296  24.997   0.309   2.419 -0.1219  0.1376  0.0417
85309W        W60297   4.860  27.302   7.167 -0.1409 -0.0462 -0.3444
85310W        W60298  34.165   4.900  12.710  0.1335  0.4678 -0.1401
85311W        W60299  23.793  22.573   0.689  0.2206  0.0765  0.2239
85312W        W60300  22.345  22.401  23.148  0.0390  0.3477  0.0880
85313W        W60301  28.752  15.758  17.061 -0.1600 -0.0510  0.4782
85314W        W60302  24.739  31.274  13.089 -0.0591  0.0761 -0.1450
85315W        W60303  12.710   3.894   6.512  0.0738  0.1308 -0.0930
85316W        W60304  27.421   9.063  12.023  0.0768 -0.0582  0.2619
85317W        W60305  31.962  15.109   6.841 -0.0820 -0.0430 -0.0012
85318W        W60306  26.094  25.381  13.035  0.0949 -0.0847  0.0886
85319W        W60307  15.550  20.538   0.620 -0.0083  0.5104 -0.1625
85320W        W60308  13.007  34.603   9.643 -0.2135 -0.0401 -0.0297
85321W        W60309  27.138   1.369  19.796 -0.0017  0.1608 -0.1120
85322W        W60310   7.413  17.968   0.852  0.1437  0.1672  0.0823
85323W        W60311  11.522  31.141   2.785  0.3035  0.2581  0.3725
85324W        W60312   2.631  14.409   1.730 -0.1033  0.0979  0.1630
85325W        W60313  33.437  27.147   3.988 -0.1631 -0.1434 -0.0325
85326W        W60314  22.716  21.479  26.014  0.0772  0.0580  0.2285
85327W        W60315  25.986   6.543  11.638 -0.0948 -0.1629 -0.1226
85328W        W60316  30.459   8.492  19.355  0.0014  0.5184  0.0211
85329W        W60317  35.135  14.268  12.954 -0.2086 -0.3529 -0.2370
85330W        W60318  30.674  31.817  23.950  0.1542 -0.0286  0.1703
85331W        W60319   5.644  14.292  24.391  0.0499  0.1654 -0.1050
85332W        W60320   7.737  21.971   8.235 -0.5316 -0.0389  0.0396
85333W        W60321  13.565   9.094  12.804  0.4300 -0.0291 -0.1764
85334W        W60322  22.045  13.525  17.713 -0.0873 -0.2437 -0.0333
85335W        W60323  29.812  30.628   5.441 -0.3192 -0.2865  0.3103
85336W        W60324  20.642  19.035   4.458  0.1292 -0.1236  0.0739
85337W        W60325  32.917   9.314   8.152 -0.2853  0.2050 -0.1030
85338W        W60326  15.885  34.718  24.416 -0.3451  0.0301 -0.1450
85339W        W60327  22.619   6.968  21.750  0.2145 -0.1973  0.0406
85340W        W60328  26.835  28.543  17.342  0.0637 -0.3893  0.0914
85341W        W60329  10.236  17.218   9.125 -0.0274 -0.0159 -0.2770
85342W        W60330  18.024   9.414   3.512 -0.0250 -0.0743  0.2629
85343W        W60331  10.636  30.770  21.545  0.0273 -0.2758 -0.0716
85344W        W60332  31.709  22.762  21.079  0.1296 -0.2953  0.0529
85345W        W60333  11.408  26.453  16.352 -0.2907  0.1585  0.1984
85346W        W60334   3.947   1.299  24.900 -0.0167 -0.1940 -0.1555
85347W        W60335  32.095  21.214  13.087 -0.1328 -0.2668  0.0171
85348W        W60336  25.058  19.914  25.267  0.3797  0.0683 -0.0828
85349W        W60337   1.588   8.122  15.568  0.1546  0.1205 -0.0354
85350W        W60338  18.189  11.276   7.687 -0.0542 -0.0042 -0.0566
85351W        W60339  24.020   0.230  19.974  0.0753  0.0309 -0.2545
85352W        W60340   5.556   8.644  22.380 -0.3183  0.0533  0.0167
85353W        W60341  13.096  25.777  15.851 -0.1334  0.0872 -0.0975
85354W        W60342  16.051  18.368   3.286 -0.1140 -0.1925 -0.0213
85355W        W60343  27.842   7.499  16.295  0.1320  0.0332  0.5117
85356W        W60344  31.987  10.865  12.170  0.1117  0.0812  0.2553
85357W        W60345  19.408   7.530  22.135  0.0249  0.0301  0.2695
85358W        W60346  34.863  30.546  23.611 -0.0181  0.0158  0.1763
85359W        W60347  34.148  27.981  21.458 -0.2340  0.2404  0.1353
85360W        W60348  12.272  22.959   5.778 -0.2831  0.2338 -0.0823
85361W        W60349   1.556  29.462  18.381 -0.1694  0.1448 -0.0344
85362W        W60350  24.003  24.461  19.150 -0.3597 -0.1409  0.2266
85363W        W60351  34.103   0.740   1.528 -0.2374 -0.3209  0.0309
85364W        W60352  32.549  14.734  10.160 -0.3756  0.2978  0.1368
85365W        W60353  28.978   3.349  13.998  0.1088  0.4399  0.2489
85366W        W60354  16.713  24.960  13.756 -0.1515 -0.0106  0.3934
85367W        W60355  16.292   7.741   3.845 -0.2942 -0.0938 -0.2130
85368W        W60356  16.790  32.772  22.129 -0.1302  0.0782 -0.1271
85369W        W60357  17.993   5.846  19.060 -0.0831 -0.0503  0.0872
85370W        W60358   0.065  31.941  18.820  0.3521 -0.4833 -0.0992
85371W        W60359  27.466   4.367   5.066  0.0618 -0.0754 -0.0356
85372W        W60360  20.604  27.725   3.400 -0.2504 -0.0524 -0.1612
85373W        W60361  27.808  10.185  13.676 -0.0624  0.0821 -0.1247
85374W        W60362  28.613  27.127  17.952 -0.1260 -0.0279 -0.0129
85375W        W60363   2.839  19.707  23.566  0.0817 -0.0350 -0.1214
85376W        W60364  10.652  10.052   3.321  0.3117  0.1994  0.0812
85377W        W60365  15.648   3.932   6.158  0.0440  0.1439  0.1179
85378W        W60366  24.766   5.805  24.939 -0.0870 -0.1953 -0.2446
85379W        W60367  30.722   9.448  12.190 -0.1841  0.2312  0.0157
85380W        W60368   9.680  18.008  20.492 -0.3744 -0.1494  0.3205
85381W        W60369  33.608  28.162  19.353  0.2024 -0.0721  0.0785
85382W        W60370  11.904  18.338   6.800 -0.1756  0.0084  0.2250
85383W        W60371  23.898  30.980  14.121  0.0340  0.2861 -0.2817
85384W        W60372  19.497  28.416   8.118 -0.1850  0.0173  0.1482
85385W        W60373  22.022   9.103  24.642  0.0337 -0.0249  0.1178
85386W        W60374  13.212  35.299  10.740  0.1508  0.2050 -0.0004
85387W        W60375   7.506  13.459  17.680  0.1363 -0.1585  0.4391
85388W        W60376  26.065  17.059  15.551 -0.0524 -0.2063  0.0445
85389W        W60377   5.944  22.076  25.950  0.1619  0.0054  0.1162
85390W        W60378  10.824  24.722   0.914 -0.1456 -0.0140 -0.1456
85391W        W60379   1.499   9.239   1.721  0.0328  0.3840  0.0577
85392W        W60380  28.832  19.598  13.077 -0.0093  0.0039  0.1755
85393W        W60381  10.529   0.660  21.326 -0.0384  0.1062 -0.0371
85394W        W60382  23.770  15.788  12.623 -0.3466 -0.0870  0.0002
85395W        W60383  34.537  26.920   0.839  0.0582  0.0297  0.0462
85396W        W60384  21.449  35.261  23.611  0.1602 -0.1700  0.1356
85397W        W60385  34.822  20.830  16.208 -0.1698 -0.0484  0.0785
85398W        W60386  23.115  14.914   2.225 -0.0817  0.1899  0.2700
85399W        W60387  11.605   6.813   1.260  0.0112  0.2268  0.0327
85400W        W60388  32.987  23.291  18.148  0.1059 -0.0311 -0.0707
85401W        W60389  19.638  26.321  19.211  0.0018  0.1966 -0.0653
85402W        W60390  12.986   0.479  24.199  0.3181  0.0278  0.6441
85403W        W60391  27.537  31.087  20.144 -0.1877  0.1703  0.2439
85404W        W60392  33.252  33.198   3.504  0.1890 -0.0079 -0.0165
85405W        W60393   6.593  15.989  24.751 -0.1606 -0.0156 -0.2179
85406W        W60394  29.247  35.020  13.212 -0.3084  0.1629  0.3854
85407W        W60395  11.251  14.316   6.369  0.2081 -0.0703  0.0676
85408W        W60396  20.500  14.379   5.136  0.0569 -0.1054 -0.1746
85409W        W60397  30.596  24.357   7.931 -0.1883 -0.1803 -0.0038
85410W        W60398  25.342  30.769  20.715 -0.5066 -0.2490  0.2672
85411W        W60399  28.099  32.608  11.758 -0.0647 -0.0694  0.2292
85412W        W60400  29.351  21.425  20.932 -0.0910 -0.2789 -0.1478
85413W        W60401  23.119  34.738  24.585  0.0131 -0.0652  0.1836
85414W        W60402  28.424  14.674  16.966  0.1161  0.1331  0.2208
85415W        W60403   0.393   2.345  19.405 -0.2645  0.1434  0.0648
85416W        W60404  27.980  34.540  17.486  0.0642 -0.0220  0.0099
85417W        W60405   8.860  20.166   6.740 -0.0761 -0.1017  0.0597
85418W        W60406  13.302  24.933   7.720  0.1422  0.0385  0.2514
85419W        W60407  19.999   6.874   5.894  0.0869 -0.0232 -0.1566
85420W        W60408  21.274  13.896  16.483 -0.0079  0.1848  0.0692
85421W        W60409  20.056  10.831  17.936 -0.2090  0.0175  0.1141
85422W        W60410  10.284  24.248   8.136 -0.2933 -0.1107 -0.1635
85423W        W60411  11.826   0.848  12.394  0.0827  0.0439 -0.1263
85424W        W60412  17.133   1.040  24.144 -0.2958 -0.0770  0.3564
85425W        W60413  33.760  13.111  10.447 -0.2985 -0.1115  0.1373
85426W        W60414  16.133  14.626  11.360  0.1362  0.1809  0.2964
85427W        W60415  10.616  24.454   2.597  0.2515 -0.0410 -0.1334
85428W        W60416  15.756  29.635   8.575  0.1897  0.4123  0.0371
85429W        W60417  13.035  34.085   0.152 -0.2742  0.2154 -0.0363
85430W        W60418  15.296   0.329  20.834 -0.2717 -0.0171 -0.0746
85431W        W60419  34.274  25.254  13.286  0.1419  0.1602 -0.3552
85432W        W60420  31.297  34.380  12.122 -0.1271 -0.1661 -0.2093
85433W        W60421  18.939  34.107  21.074 -0.1827 -0.2679  0.0640
85434W        W60422   6.354  31.119   3.689  0.2986 -0.4123  0.1101
85435W        W60423   5.407  11.387   1.000  0.1246 -0.0464  0.0519
85436W        W60424  21.418  27.532   7.269  0.3439 -0.0740 -0.0404
85437W        W60425  24.621  29.118   4.431 -0.1227 -0.2653  0.1341
85438W        W60426   2.432  19.139  20.301  0.0383 -0.1245  0.1170
85439W        W60427  19.815  25.722   0.210 -0.0021  0.0298 -0.1663
85440W        W60428   8.696  31.077  12.887 -0.0006 -0.0728  0.1653
85441W        W60429   2.027  19.892  25.618 -0.0760 -0.0134  0.1475
85442W        W60430  16.609  33.223   3.328 -0.0849  0.1486 -0.0928
85443W        W60431  13.197   5.834  12.343 -0.0451  0.1891  0.1894
85444W        W60432  27.839   2.557   3.679  0.1179  0.1828 -0.0146
85445W        W60433   8.307  23.049  11.630  0.0435 -0.0989  0.0497
85446W        W60434  27.735   9.233  17.384  0.1678  0.2851 -0.2135
85447W        W60435   1.106  16.944  25.449 -0.1177  0.2399  0.1551
85448W        W60436  27.782  17.817   5.618 -0.1674  0.0249 -0.2619
85449W        W60437  26.648  34.761  15.507 -0.2342  0.0522  0.0456
85450W        W60438  11.487  11.499  23.719 -0.0659 -0.0292 -0.0821
85451W        W60439  24.940  14.124  23.707 -0.2026 -0.0068 -0.2145
85452W        W60440  22.748  21.256  16.918 -0.0277 -0.1358 -0.0376
85453W        W60441  18.578  34.692   5.164  0.1164 -0.0221 -0.2185
85454W        W60442  31.475  14.582   6.846 -0.0831  0.1035  0.4893
85455W        W60443  26.741  28.346   3.167 -0.1899  0.1252 -0.1458
85456W        W60444  12.402   4.383  25.672 -0.0405  0.0941  0.2983
85457W        W60445  13.338  30.595   3.409 -0.1339  0.1165  0.0245
85458W        W60446  31.293   3.542  22.903 -0.1191 -0.3353  0.1628
85459W        W60447  29.992  20.104   9.803  0.0749  0.0071  0.0227
85460W        W60448  21.414  22.400  17.153 -0.0533 -0.1696 -0.1834
85461W        W60449  21.740  29.998   2.979 -0.4816 -0.1212 -0.0655
85462W        W60450  15.190  28.020   1.858  0.0891  0.1939 -0.1403
85463W        W60451   1.888   9.767   1.664 -0.2538  0.0829  0.1131
85464W        W60452  10.126  24.327  17.155 -0.3161 -0.0671  0.0712
85465W        W60453  32.746  27.797  18.143  0.0736  0.0073  0.0785
85466W        W60454  22.550  10.788  23.750 -0.1393  0.1059  0.1961
85467W        W60455  26.945  17.905  20.979  0.1375  0.0556 -0.2548
85468W        W60456  27.701  16.954  15.090  0.1125 -0.0173 -0.1850
85469W        W60457  29.867  10.277  22.702 -0.1497  0.1654 -0.2945
85470W        W60458  14.987  15.767  11.352 -0.0640 -0.0439  0.2039
85471W        W60459  33.590  22.148  15.466  0.0018  0.2864  0.2274
85472W        W60460  18.657  11.785   3.870  0.4055 -0.0405  0.4758
85473W        W60461  28.881  21.870  13.241  0.5912 -0.3213 -0.1223
85474W        W60462  31.513  23.687   9.011 -0.0117 -0.0418 -0.2990
85475W        W60463  30.998  18.480  17.767 -0.2078 -0.1213  0.1666
85476W        W60464  16.944  10.583   9.284 -0.0972  0.0307 -0.2524
85477W        W60465  27.573  26.053  12.265  0.0799 -0.1225 -0.1307
85478W        W60466  32.645  20.173   8.417 -0.0628  0.1792 -0.3700
85479W        W60467  28.530   9.446  25.472 -0.1275 -0.3323 -0.1475
85480W        W60468  12.049  11.201  24.968  0.1648  0.0206  0.1750
85481W        W60469  19.360  34.151  23.373  0.1962 -0.1038  0.0512
85482W        W60470  35.174  26.292   1.209 -0.2444  0.1881 -0.2538
85483W        W60471  19.921  21.474   3.564 -0.0360 -0.1344  0.0158
85484W        W60472   0.157  15.801  16.255  0.1560  0.0670 -0.1382
85485W        W60473  11.582  26.008  23.524  0.1648  0.0846 -0.2257
85486W        W60474   5.916  18.929  25.596  0.4491 -0.3836 -0.2194
85487W        W60475  18.921  19.016  19.934  0.1470  0.2029 -0.0158
85488W        W60476  27.169  19.516  14.872 -0.3463  0.5185  0.0090
85489W        W60477  22.006  30.511   3.655 -0.0801 -0.0058 -0.3760
85490W        W60478  24.268  22.405  19.086  0.3474 -0.0605  0.0018
85491W        W60479  25.764  19.703  14.006 -0.0399  0.2873  0.2914
85492W        W60480  22.146  22.704   0.572  0.0227 -0.1642  0.0743
85493W        W60481  12.091  20.265   8.039  0.1314 -0.0430  0.2773
85494W        W60482  11.778  26.677  22.843  0.1661  0.1246  0.2098
85495W        W60483  27.933   5.581  11.272 -0.1334  0.0426 -0.1834
85496W        W60484   9.296  12.597  24.306 -0.1035  0.1340 -0.0650
85497W        W60485   4.238  25.340   8.196  0.1592  0.1766 -0.0077
85498W        W60486  23.996  10.444  13.064  0.1205  0.0101  0.0028
85499W        W60487  32.829  31.807  14.746 -0.1455  0.0052 -0.1007
85500W        W60488   3.518   4.445  16.387  0.1650  0.1306  0.0226
85501W        W60489  11.711  14.810   7.964  0.0662 -0.0940 -0.2451
85502W        W60490  28.444  16.005  21.041 -0.4385 -0.1931 -0.0960
85503W        W60491  27.268   3.916  19.050 -0.1781 -0.0777 -0.2562
85504W        W60492  34.508  34.410   1.664  0.2048  0.1254 -0.0371
85505W        W60493  26.364  12.343  18.784  0.0802  0.3356 -0.0815
85506W        W60494  34.353  12.119  20.121 -0.0568 -0.2679 -0.0137
85507W        W60495   0.986   5.378   4.603  0.0748 -0.4577 -0.0644
85508W        W60496  19.759   8.624  19.839  0.1935  0.0132  0.0520
85509W        W60497   0.512  34.352  20.615  0.6094  0.0326 -0.2261
85510W        W60498   7.438   0.335   9.509 -0.1313 -0.1144 -0.1217
85511W        W60499  24.012   4.808  16.690 -0.1026  0.1153  0.1077
85512W        W60500   3.328  33.409   7.729  0.0990  0.1783 -0.2287
85513W        W60501  11.528  22.481  13.274  0.2087 -0.1119 -0.0923
85514W        W60502  29.521  21.521   8.108 -0.3818  0.0747  0.1377
85515W        W60503  15.786  35.311   2.406  0.1634  0.2029  0.2470
85516W        W60504   0.550  12.548  22.911  0.0999  0.0366 -0.2356
85517W        W60505  14.217  32.687   6.639  0.2236 -0.0629  0.0879
85518W        W60506  31.902  32.747  25.601  0.2602  0.3538  0.4573
85519W        W60507  18.975  31.577  26.109  0.0282 -0.1607  0.0085
85520W        W60508  35.295   1.439  16.540 -0.0023 -0.2462 -0.1401
85521W        W60509  15.808   6.621  23.415 -0.1808 -0.0955 -0.0364
85522W        W60510  22.595  32.896   5.774 -0.2458  0.1385 -0.1311
85523W        W60511  27.422  10.444  18.917  0.2122  0.3905  0.1823
85524W        W60512  32.113  12.706   9.414  0.1270 -0.0650  0.0848
85525W        W60513   0.639   4.160  15.973 -0.1159  0.1697  0.0622
85526W        W60514  28.328   7.074  18.897  0.0281 -0.5342  0.2786
85527W        W60515   4.614  29.709  24.486 -0.1122 -0.1428  0.2899
85528W        W60516   8.390  25.969   9.801  0.0544  0.0751  0.0300
85529W        W60517  23.041   6.186  16.625  0.0251 -0.1138  0.1476
85530W        W60518  30.910  10.609  10.201 -0.1866 -0.0710  0.2303
85531W        W60519  21.015  33.105  12.805  0.0724 -0.0516  0.1386
85532W        W60520  31.274  32.672  14.113  0.1602  0.1797 -0.2725
85533W        W60521  17.399  35.200   2.256 -0.2342 -0.1487  0.0028
85534W        W60522   3.395  10.157  19.023  0.3239  0.1681 -0.0386
85535W        W60523  30.605  24.667  24.325  0.2446  0.1559  0.0083
85536W        W60524  16.182  31.168   9.334  0.0802  0.1862 -0.0998
85537W        W60525  29.112   4.651  22.068 -0.0567 -0.0695 -0.0668
85538W        W60526   3.572  13.015  15.446  0.1891  0.0968  0.0136
85539W        W60527   7.636  12.173   4.579  0.1052  0.1406  0.1119
85540W        W60528  27.848  17.293  22.773 -0.0886  0.0480 -0.3641
85541W        W60529  15.330  20.862   6.116  0.2082  0.0313  0.1984
85542W        W60530  16.919  30.454   7.181 -0.1400  0.0205  0.0800
85543W        W60531  22.831  23.169   2.690 -0.0723  0.0428 -0.0710
85544W        W60532  14.998  19.768  21.793 -0.4851 -0.2129 -0.2698
85545W        W60533  19.749  12.785   6.879 -0.0368 -0.3122  0.0941
85546W        W60534  25.208  27.261  24.516  0.3146 -0.2951 -0.2637
85547W        W60535  10.657  20.632  15.322 -0.0969  0.0981  0.1682
85548W        W60536   7.406  27.105  12.953 -0.3308  0.2744 -0.1514
85549W        W60537  17.535  27.294  20.875 -0.0384 -0.0553 -0.4544
85550W        W60538  29.789   3.544  20.535  0.0495 -0.0109 -0.0795
85551W        W60539   4.223  32.655  24.066 -0.0178 -0.0995 -0.1237
85552W        W60540  25.320  33.404  12.116  0.1158  0.0716 -0.0906
85553W        W60541  11.294  10.510  14.039  0.1235 -0.0362  0.0887
85554W        W60542   0.386  25.501   1.530 -0.4975 -0.2581  0.0201
85555W        W60543  35.368  31.975  17.021 -0.2947  0.0748 -0.0879
85556W        W60544   2.680   4.910   5.918  0.0295  0.1960  0.1481
85557W        W60545   3.974   0.938  20.830 -0.2793  0.4772 -0.0249
85558W        W60546  18.033  30.788  18.718 -0.3748 -0.2490 -0.2187
85559W        W60547  14.965  16.839  24.640  0.2381  0.2174  0.1924
85560W        W60548  17.243  22.984   4.176  0.0971  0.1005 -0.0851
85561W        W60549   1.857  34.016  21.528  0.3154 -0.1068  0.3725
85562W        W60550  11.471   5.148  24.122  0.3452 -0.2288 -0.1841
85563W        W60551   5.984  32.712   6.119 -0.0720  0.3320  0.0518
85564W        W60552   9.180  22.305  12.913  0.2678  0.0330  0.0719
85565W        W60553  21.941   8.488  22.116  0.0682  0.2032 -0.0447
85566W        W60554  16.860  10.196  11.927 -0.0576  0.0615  0.0895
85567W        W60555  26.156  11.133  14.819  0.0804  0.1206  0.0709
85568W        W60556  30.428  31.571   1.597 -0.0455 -0.0675 -0.0868
85569W        W60557  22.568  15.913  24.838  0.0342 -0.1083 -0.1108
85570W        W60558  33.361  15.654  25.964  0.0877 -0.2932  0.0668
85571W        W60559   9.766  23.194  11.155  0.1436 -0.0496  0.1448
85572W        W60560  31.608  29.496  14.855  0.1659  0.0537  0.1209
85573W        W60561  26.304   3.575   2.877 -0.3360  0.2232  0.1239
85574W        W60562  22.420  23.828   1.982 -0.0260 -0.1164 -0.2841
85575W        W60563   9.498   6.858  21.237 -0.1576 -0.1934  0.2739
85576W        W60564  27.992  29.703   3.497  0.0697  0.4921 -0.1523
85577W        W60565   4.261  27.729  11.950 -0.0166  0.2516  0.1196
85578W        W60566  16.099  29.157   1.020 -0.0276  0.0498  0.3237
85579W        W60567  33.581  25.054  12.086  0.0541  0.1585 -0.0976
85580W        W60568  33.437  34.267  22.796 -0.0705 -0.0212 -0.1405
85581W        W60569  15.967  10.455  13.074 -0.0510 -0.0076 -0.1011
85582W        W60570  13.988   7.808  25.479 -0.2480  0.1650 -0.1359
85583W        W60571   2.407  22.369   0.542  0.0350 -0.0150 -0.0240
85584W        W60572  14.553  20.493   5.387 -0.0350  0.0661  0.2332
85585W        W60573  31.928   8.588  10.762 -0.1481  0.1207 -0.1583
85586W        W60574  16.194  34.978  20.504 -0.3372 -0.2006  0.0073
85587W        W60575  13.599   5.715   9.581  0.0359  0.0056  0.0698
85588W        W60576  23.116  31.804  14.878 -0.4053 -0.1525 -0.3990
85589W        W60577  14.296  28.732   8.211  0.1575  0.1644  0.0811
85590W        W60578   8.515   8.575   0.466 -0.2138  0.1724  0.0206
85591W        W60579  17.933   2.353   8.131  0.1748 -0.0630  0.2512
85592W        W60580  30.031   0.858  12.187  0.2869  0.1204 -0.3027
85593W        W60581  27.369   3.950  13.295 -0.1859  0.0143  0.1991
85594W        W60582   5.071  31.760   2.793 -0.0688 -0.0514  0.1972
85595W        W60583  10.675   6.215  23.143 -0.1197 -0.3287  0.0203
85596W        W60584  13.135   1.115   1.139  0.0785  0.3802  0.0313
85597W        W60585   7.017   5.975  10.592 -0.1627 -0.1110  0.0461
85598W        W60586  12.563  32.482   7.262  0.1079  0.1593  0.1996
85599W        W60587   8.043  25.540  13.072 -0.5597  0.0467 -0.1905
85600W        W60588  33.755  22.243  26.239  0.3066 -0.1032  0.0244
85601W        W60589   4.670   4.697   7.154 -0.0918  0.1059 -0.0843
85602W        W60590   7.018   7.030  10.932  0.0137  0.3170  0.0171
85603W        W60591  18.454   3.098  24.881 -0.0363 -0.2819 -0.3579
85604W        W60592  20.183   6.932  19.049 -0.0108 -0.0972 -0.1513
85605W        W60593  10.624  16.319   4.035 -0.0358  0.0361  0.1807
85606W        W60594   9.381   5.799   2.061 -0.0544  0.0441 -0.2464
85607W        W60595  22.412  28.704  22.343  0.1593 -0.1347 -0.1265
85608W        W60596  12.832  25.804  12.886 -0.2017 -0.1507 -0.7069
85609W        W60597  20.830  28.643  24.622  0.0067  0.0931 -0.1294
85610W        W60598   5.724  21.219   2.080  0.0722  0.2072  0.0467
85611W        W60599  12.910  33.445   2.176 -0.2851  0.4023 -0.0670
85612W        W60600  33.494  31.009  13.174  0.0391  0.2467  0.2744
85613W        W60601  20.830   0.716   6.892 -0.1873 -0.1465  0.0557
85614W        W60602  11.750  19.303  21.375  0.0792  0.1184  0.4124
85615W        W60603   4.432   3.233  25.849  0.0003  0.2672 -0.2973
85616W        W60604  12.383  11.037  19.438 -0.0253  0.0202 -0.2808
85617W        W60605   3.524   5.498  21.483 -0.3003 -0.2639 -0.2171
85618W        W60606   4.441  22.753   4.064  0.0263  0.0015  0.1012
85619W        W60607   5.125  33.250  23.260 -0.0077  0.2198 -0.1293
85620W        W60608   1.286  28.834   2.103 -0.1378  0.2437  0.1963
85621W        W60609  25.858   4.541   3.481 -0.2852  0.4865  0.3877
85622W        W60610   9.075  14.624   1.922  0.0236  0.0413  0.1817
85623W        W60611   4.006  12.000  24.466  0.3658  0.0325 -0.0146
85624W        W60612  20.567  17.882   1.590 -0.0812  0.0225 -0.1263
85625W        W60613  26.017  19.205  10.259  0.2172  0.1165 -0.0462
85626W        W60614  35.122  32.757  22.763  0.0901 -0.1411  0.1910
85627W        W60615   0.098  15.386  15.522 -0.0068  0.0825  0.0609
85628W        W60616  14.071  25.779  16.165 -0.1583 -0.0321 -0.1847
85629W        W60617   3.453  19.725  25.908  0.3223 -0.1082  0.0200
85630W        W60618   8.854  33.230  14.967  0.5383 -0.0217  0.0295
85631W        W60619  34.038   3.791   6.212 -0.2006 -0.2403 -0.1106
85632W        W60620   7.213  16.396  20.413 -0.1003 -0.0969 -0.0438
85633W        W60621  25.053  17.531  23.325  0.1895 -0.0561  0.1315
85634W        W60622   8.510  21.686  22.326 -0.0683 -0.1880  0.1275
85635W        W60623  20.302  14.061   1.126 -0.1281  0.0424 -0.1449
85636W        W60624  11.422  27.841   6.922  0.1771  0.3669  0.2952
85637W        W60625  25.012   1.684  15.705 -0.2763 -0.4767  0.0564
85638W        W60626  33.038   4.876  19.803 -0.0718  0.3084 -0.1673
85639W        W60627   0.634   1.210   7.557  0.4777  0.0561 -0.3060
85640W        W60628  28.713   2.685  22.064 -0.1291  0.2407  0.2372
85641W        W60629  27.847  33.420  24.957 -0.0826 -0.0036  0.2735
85642W        W60630  14.311  27.792  12.020  0.0798 -0.2677 -0.0839
85643W        W60631  10.876  35.232  21.482 -0.0000 -0.2681  0.0346
85644W        W60632   8.260  29.316  15.386 -0.2134  0.3504 -0.2228
85645W        W60633  31.770  29.822   4.499 -0.0362 -0.0889 -0.0736
85646W        W60634  11.356  10.836   6.806 -0.1716 -0.0539  0.1832
85647W        W60635  13.190  10.629  12.895 -0.1220  0.4999  0.1272
85648W        W60636  10.698   3.044   4.622 -0.0010  0.1371  0.3569
85649W        W60637   0.497  32.809   8.198 -0.1455  0.0289  0.0756
85650W        W60638  32.246  12.690   0.540 -0.2425  0.0764 -0.0220
85651W        W60639  11.205  33.122  15.043  0.2319  0.2032  0.0934
85652W        W60640  19.052   7.511   0.039  0.1272 -0.1742 -0.1028
85653W        W60641  22.735  24.200  22.533 -0.1294  0.0941  0.2230
85654W        W60642  11.692  19.109  24.915 -0.0442 -0.1066 -0.0222
85655W        W60643  11.720  33.303   0.068  0.2011  0.1886 -0.0138
85656W        W60644  30.516  17.899   7.297 -0.2500  0.3567  0.3444
85657W        W60645   5.932  14.747   5.584  0.0823  0.0753 -0.0924
85658W        W60646   6.933  33.123  12.612  0.0487 -0.1412 -0.0516
85659W        W60647  13.138   0.338   5.927  0.0390  0.0156  0.0393
85660W        W60648  11.297  30.212   0.531  0.0780  0.1842  0.0359
85661W        W60649  28.793  34.946   0.449  0.0591 -0.0052  0.2520
85662W        W60650   0.850  29.470   4.145 -0.1241  0.0851 -0.3361
85663W        W60651  21.890  28.964  15.518  0.1029  0.0916  0.1342
85664W        W60652  31.549  11.452  12.393 -0.1713 -0.0174  0.2736
85665W        W60653  27.852  21.831   7.891 -0.4253  0.0412 -0.0917
85666W        W60654  19.457  23.853  18.133 -0.1655 -0.1872 -0.2109
85667W        W60655  26.129  31.856   5.938  0.1524 -0.0141  0.1586
85668W        W60656  27.631  18.030  16.968  0.2726 -0.0884 -0.2804
85669W        W60657  11.612  33.618   6.996 -0.1084  0.1961  0.2320
85670W        W60658  35.053   6.483  20.315  0.0565  0.2090  0.0315
85671W        W60659  32.412  35.285   6.558  0.3233 -0.4288 -0.1830
85672W        W60660   6.817  24.391   3.478  0.2146  0.1076  0.2536
85673W        W60661  25.882  27.033  22.000 -0.5286 -0.0271  0.2368
85674W        W60662  26.128  32.355  10.951 -0.1116 -0.3303 -0.2636
85675W        W60663  26.561  32.844  24.763  0.0119  0.0220 -0.3277
85676W        W60664  33.906  18.805  19.644 -0.1738 -0.0912  0.0895
85677W        W60665  14.635  29.899  20.806 -0.1410  0.2495 -0.1203
85678W        W60666   5.236   7.079   0.402 -0.0124  0.0396  0.0791
85679W        W60667  30.365  14.896  25.587  0.4044  0.2041 -0.0542
85680W        W60668   0.085  10.205   0.088 -0.0927  0.1681 -0.0118
85681W        W60669  24.089  25.429   1.290  0.0474  0.1639 -0.2881
85682W        W60670  10.031  13.145  10.058  0.1534  0.0186 -0.2442
85683W        W60671   7.979  24.785   1.032  0.2917  0.1203  0.0353
85684W        W60672   1.305  25.048  20.832  0.4350  0.1538 -0.3398
85685W        W60673  17.815  12.648   1.105 -0.0800  0.3004 -0.0691
85686W        W60674   3.198  18.167  20.966 -0.3865 -0.1460  0.3172
85687W        W60675   0.287  13.418  16.158  0.2870 -0.1510 -0.0161
85688W        W60676   0.727  11.263   2.660  0.0741 -0.0996  0.2146
85689W        W60677  33.397  16.898  18.373 -0.3048 -0.4062  0.0975
85690W        W60678  11.148  13.456  12.165  0.0195  0.0769  0.1245
85691W        W60679  14.178   4.261   8.205 -0.1656 -0.0174  0.1157
85692W        W60680  16.763  11.813   8.958  0.2651  0.0923  0.0194
85693W        W60681   3.896   1.798  18.063 -0.1771  0.2006 -0.1445
85694W        W60682  12.586  23.188  24.300  0.0836  0.1103 -0.0684
85695W        W60683   6.885  16.374   9.563 -0.1898 -0.0431 -0.3205
85696W        W60684  14.518   9.677  23.442  0.0899  0.0194 -0.1264
85697W        W60685  31.985  19.544   8.363 -0.1177  0.0588  0.0523
85698W        W60686  14.289   3.321   7.968 -0.0871 -0.1843 -0.0802
85699W        W60687  10.449   2.028  12.290 -0.2704 -0.0416 -0.0009
85700W        W60688   8.635   6.188  21.570  0.1811  0.0764  0.0298
85701W        W60689  15.452  12.833   1.084 -0.0881  0.0066  0.1108
85702W        W60690  21.167   7.123   9.561  0.2963  0.2380  0.1459
85703W        W60691  34.099  28.641   4.068 -0.3062 -0.1027 -0.2377
85704W        W60692  18.604  22.960   2.127  0.1897 -0.1047  0.1248
85705W        W60693  24.253   7.808  25.464 -0.4213 -0.3226 -0.2176
85706W        W60694  26.217  12.996  17.578 -0.0242  0.2631 -0.2967
85707W        W60695  17.354   1.215  19.453  0.3984  0.0491 -0.0165
85708W        W60696  21.331  24.017  24.193  0.0210  0.1027 -0.1864
85709W        W60697   5.718  32.927  11.779  0.1765  0.2117  0.1940
85710W        W60698   6.748  26.466  26.225 -0.1639  0.0134  0.1458
85711W        W60699   4.173   0.660   8.175 -0.1005 -0.3876  0.1893
85712W        W60700   6.036   7.706   9.975 -0.0596  0.0074  0.1365
85713W        W60701   9.180  11.544  19.952  0.0713  0.3917 -0.1799
85714W        W60702  28.027  16.646  20.823  0.1803 -0.2811 -0.1371
85715W        W60703  22.513  26.524  22.008 -0.0068  0.0861 -0.1411
85716W        W60704  23.238   9.793  17.176  0.0358  0.0667  0.4674
85717W        W60705  24.275  15.095  26.101  0.0537 -0.0208  0.1117
85718W        W60706  17.059   1.079   9.481 -0.0817 -0.3082  0.0245
85719W        W60707   3.003  28.337   9.342 -0.1538 -0.3798  0.1625
85720W        W60708  24.071  24.274  20.735  0.2806 -0.0394 -0.3267
85721W        W60709  30.128  20.894  15.006  0.1062  0.2750  0.0205
85722W        W60710   7.558  15.903  18.311 -0.0696  0.1204  0.0324
85723W        W60711  12.975  14.862   0.885  0.0396 -0.0863 -0.0524
85724W        W60712   2.390  32.650   0.440  0.0357  0.1752 -0.0845
85725W        W60713  25.235  33.606  16.408 -0.0063 -0.0278 -0.2320
85726W        W60714  33.537  32.873   6.187  0.0294  0.0127 -0.0812
85727W        W60715  33.263   9.780  21.331  0.0371  0.0340 -0.1922
85728W        W60716  33.938   6.386   2.481  0.0530  0.1405 -0.1204
85729W        W60717  13.254   3.922  10.844 -0.1357 -0.2156  0.2542
85730W        W60718   4.339  33.057  20.335 -0.1096 -0.1822 -0.3121
85731W        W60719   0.469  28.559  17.925 -0.1627 -0.6320 -0.0303
85732W        W60720   7.673  26.197   7.015 -0.0960  0.1838 -0.1033
85733W        W60721  23.511   7.597   2.067  0.2254  0.0905  0.1682
85734W        W60722  35.204   7.984  25.105 -0.4122  0.0798  0.0498
85735W        W60723  23.192  29.705  22.151 -0.0477  0.2358  0.1232
85736W        W60724   6.562  32.259   0.442 -0.0756 -0.2051  0.1942
85737W        W60725  12.117  20.471  12.535  0.1021 -0.3248  0.1660
85738W        W60726  12.222   8.751  21.972 -0.1020  0.2826  0.1531
85739W        W60727  24.955   1.710   3.556  0.0400 -0.0145  0.1456
85740W        W60728  13.175   5.103   2.994 -0.3228 -0.0948 -0.0234
85741W        W60729  30.832   4.085  26.003  0.0852  0.0053  0.1934
85742W        W60730  32.045  24.555   9.874  0.0663  0.1395  0.0671
85743W        W60731   2.664  15.657  14.840  0.0443  0.2367 -0.2778
85744W        W60732  29.707  24.519  24.209  0.0223  0.0807 -0.2177
85745W        W60733  22.523  31.100   2.057  0.1112  0.0997  0.2017
85746W        W60734   2.170   7.325  23.455 -0.1639  0.1060  0.1370
85747W        W60735   4.844   2.440   8.608 -0.1168 -0.3537  0.1660
85748W        W60736  21.126  14.075   4.830  0.0268 -0.3381  0.1227
85749W        W60737  29.368  22.182  22.655 -0.2063  0.1369  0.1035
85750W        W60738  33.107  23.619  21.904  0.2612 -0.4336 -0.2540
85751W        W60739  16.617  20.123  25.686 -0.1284 -0.1187 -0.0922
85752W        W60740   3.539   1.761   2.741 -0.1734  0.0248 -0.0805
85753W        W60741   9.756   5.970   9.463 -0.2262  0.1013  0.4491
85754W        W60742   8.354  12.235  18.155 -0.1997  0.2200  0.1068
85755W        W60743  32.241  20.639  13.248  0.3128  0.3544 -0.0204
85756W        W60744  11.123  20.334   4.063 -0.0774  0.1176 -0.0258
85757W        W60745  18.541  22.528  22.776  0.2507  0.1504  0.2349
85758W        W60746  23.260  17.231  16.818  0.1980  0.0472 -0.0461
85759W        W60747  10.925  31.752   9.304  0.1059  0.0324 -0.0045
85760W        W60748  30.924   3.064  25.196 -0.0292 -0.1835 -0.0610
85761W        W60749  30.149  10.657   8.062 -0.1291  0.2242  0.2703
85762W        W60750   1.693   8.117   5.775 -0.1859  0.2227  0.0382
85763W        W60751  31.102   8.849  21.524 -0.1648 -0.0831  0.0566
85764W        W60752  30.793   4.108  11.367 -0.1069  0.2661 -0.1504
85765W        W60753  34.973  10.141  20.954 -0.0017  0.0392  0.0405
85766W        W60754  19.547  27.741   5.287  0.0904  0.0165 -0.1365
85767W        W60755  25.687  34.656   2.930  0.0912 -0.0115  0.0497
85768W        W60756  28.194   8.131  22.072 -0.0426  0.2151  0.1427
85769W        W60757   9.502  10.456   4.473 -0.0103 -0.0830  0.0345
85770W        W60758  28.458  35.057   6.761 -0.0670  0.1326 -0.1250
85771W        W60759   0.258   6.918  23.251  0.0744  0.0819  0.3841
85772W        W60760   9.473  17.210   1.376 -0.0670 -0.2089 -0.1195
85773W        W60761   2.494  30.961   0.094 -0.3437  0.1784  0.2397
85774W        W60762  22.609  20.723  18.324 -0.0647  0.4476 -0.0360
85775W        W60763  13.775  28.572   2.228 -0.0543  0.2531  0.1538
85776W        W60764  13.164  21.517   7.492  0.2787  0.2430 -0.0694
85777W        W60765   7.566  30.730  10.933  0.0054  0.1788  0.0107
85778W        W60766  21.360  20.378   6.032 -0.0523  0.0029 -0.0086
85779W        W60767   0.019  13.329   2.196 -0.0522  0.0949  0.2568
85780W        W60768  33.188   5.615  22.975 -0.0486 -0.0155 -0.1442
85781W        W60769  26.132  24.009  25.913  0.1780 -0.1484 -0.1523
85782W        W60770  16.066  15.913   2.927 -0.1837  0.2492 -0.0088
85783W        W60771  29.734  22.874  15.906  0.1366  0.3327  0.2545
85784W        W60772  34.468  20.931  22.540  0.0630 -0.2353  0.1008
85785W        W60773  32.230  19.108  25.920  0.2995  0.3357  0.1108
85786W        W60774  24.093  28.091  17.939 -0.2072 -0.1995 -0.0032
85787W        W60775  30.790   3.058  22.705 -0.0601 -0.1962 -0.0926
85788W        W60776  20.783  12.909   0.538 -0.2177 -0.2737 -0.1547
85789W        W60777  20.783  27.690  20.413  0.1071  0.1627  0.1785
85790W        W60778   3.801   2.017  25.715 -0.1402 -0.5007  0.0413
85791W        W60779  18.401  22.289   1.273  0.1120  0.1220  0.0507
85792W        W60780  19.275  18.163   9.691 -0.0512 -0.1292  0.0550
85793W        W60781  22.519  18.136  23.500  0.2435 -0.1933 -0.1146
85794W        W60782  34.914  23.875  18.689  0.1140  0.4983 -0.0978
85795W        W60783  29.614  17.644  16.553  0.0713 -0.0018 -0.2323
85796W        W60784  26.804   7.180  16.469 -0.1919  0.3227  0.0992
85797W        W60785  26.369  21.681  22.289 -0.0283 -0.0747 -0.0964
85798W        W60786   4.443   6.577  17.309 -0.0937  0.1796 -0.0440
85799W        W60787   8.876  32.566  21.469 -0.2889  0.4612 -0.1390
85800W        W60788  30.591  22.664   5.738 -0.0428  0.2498  0.1393
85801W        W60789   8.073  15.285  12.047 -0.1522 -0.0887 -0.3487
85802W        W60790  31.753  11.099  15.078 -0.2101  0.2962  0.0960
85803W        W60791  15.977  26.602  21.724  0.2832  0.1044  0.2074
85804W        W60792  24.956  19.115   0.511  0.2139 -0.1356 -0.0948
85805W        W60793   7.623   3.561   1.307  0.0770  0.0950 -0.0238
85806W        W60794  14.730  19.241  10.513 -0.0401 -0.2350  0.0024
85807W        W60795  25.776  15.149  11.336 -0.2694 -0.1000  0.1233
85808W        W60796   8.397  27.491   7.523 -0.2035  0.1647  0.1777
85809W        W60797  30.546  24.780   6.747 -0.1159  0.0427 -0.0065
85810W        W60798  27.282  18.077  25.061  0.0052 -0.1781  0.1630
85811W        W60799  27.540  12.560  25.589 -0.0553  0.1827 -0.0009
85812W        W60800   8.158  22.221  25.750 -0.0388 -0.1656  0.2634
85813W        W60801   5.074  30.830   0.498  0.1106 -0.4019 -0.2335
85814W        W60802   0.458   6.102  23.977  0.1771 -0.0025 -0.1007
85815W        W60803  27.029  11.181  14.166 -0.1185 -0.2740 -0.0446
85816W        W60804  29.774  27.284  13.022  0.2594 -0.1604  0.1342
85817W        W60805   5.581  19.134   4.728  0.1596  0.0336  0.0386
85818W        W60806  23.379  25.625  17.257 -0.1171 -0.1666 -0.0847
85819W        W60807  23.910  33.528  19.580 -0.0545 -0.2313  0.1976
85820W        W60808   9.359  12.386   3.249 -0.2715 -0.1490 -0.0982
85821W        W60809   8.668   0.884  13.340  0.2107 -0.2147 -0.2544
85822W        W60810  16.618  31.979  19.610 -0.1609  0.0030  0.1233
85823W        W60811  30.217  33.634   3.328 -0.1619  0.1519 -0.1853
85824W        W60812  15.643   4.473   8.027 -0.1796 -0.0248 -0.2710
85825W        W60813  24.796  29.251  26.103 -0.2567 -0.1292 -0.3054
85826W        W60814   9.025  25.513  15.373  0.5604 -0.0688 -0.0219
85827W        W60815  34.292  17.527   1.099 -0.1888  0.1413 -0.1543
85828W        W60816  17.861  22.181  11.335 -0.3128  0.2224  0.2691
85829W        W60817   8.390   0.467   6.058 -0.1099 -0.1122 -0.1341
85830W        W60818   7.991  27.828  12.398  0.0272 -0.1139  0.0351
85831W        W60819   0.187  31.519   8.759  0.0774 -0.1412  0.2981
85832W        W60820  12.777  17.313   6.882 -0.1439  0.0833  0.2286
85833W        W60821   9.251  23.451  16.742 -0.0793  0.1709 -0.1519
85834W        W60822  27.297  30.826  13.302 -0.2161 -0.0773  0.2042
85835W        W60823  16.175  18.012   5.308 -0.0885  0.1211  0.1591
85836W        W60824  33.347   0.532   3.558  0.1826 -0.0590 -0.3968
85837W        W60825  29.353   3.263   2.258  0.0245 -0.3462 -0.0481
85838W        W60826  32.514   6.520  14.732 -0.2405 -0.2741 -0.1701
85839W        W60827  33.890  30.798  14.611  0.1728  0.2193  0.1895
85840W        W60828   1.810  23.300  23.263 -0.1707 -0.3288 -0.2819
85841W        W60829  13.013  24.159   1.394  0.0637  0.2913 -0.3389
85842W        W60830  10.454  26.310  14.340  0.0250  0.0278 -0.0805
85843W        W60831  33.801  19.722  16.373 -0.1122 -0.0923  0.0374
85844W        W60832  16.330  25.407  25.121  0.0274  0.0786 -0.2681
85845W        W60833   3.858  25.263  19.977  0.2066  0.2771  0.0587
85846W        W60834  21.888  22.234  19.766 -0.1874 -0.1263 -0.0587
85847W        W60835  34.154  11.310  15.892  0.1639  0.2481 -0.1013
85848W        W60836  11.242  35.079   3.745  0.1281  0.0299  0.2364
85849W        W60837  16.413  19.725   0.913  0.2041  0.2280  0.0736
85850W        W60838  34.721  11.987  16.322 -0.1709  0.1400  0.1325
85851W        W60839  10.724  23.263  10.894 -0.1455 -0.0808 -0.3631
85852W        W60840  27.843   0.464  18.322 -0.0984  0.0508 -0.2379
85853W        W60841  15.634  21.398  21.591 -0.0546  0.3637 -0.3224
85854W        W60842   6.831  31.770   7.517  0.3090  0.0702  0.0124
85855W        W60843  11.186  29.460  13.562  0.0520 -0.1250 -0.2805
85856W        W60844  21.751  27.560  24.172  0.0501 -0.1484 -0.0636
85857W        W60845   9.790  24.899   6.175 -0.5135  0.1259 -0.0440
85858W        W60846  17.032   8.745  22.106 -0.0014 -0.1781  0.2131
85859W        W60847  17.885   6.793   3.700  0.4057  0.2124 -0.2802
85860W        W60848  28.801  10.738  22.615 -0.1446 -0.0095  0.2904
85861W        W60849   3.041  11.878   2.662  0.0746 -0.1958 -0.1012
85862W        W60850  23.768  30.134  12.862  0.1494  0.1944 -0.0249
85863W        W60851  31.854  27.416  22.862 -0.0214 -0.1794 -0.2374
85864W        W60852  26.459  16.220  15.637 -0.0074  0.0796 -0.0499
85865W        W60853  14.184  27.601  21.651  0.0555 -0.3314  0.0032
85866W        W60854  17.712  34.585  20.302  0.0483  0.1015 -0.0340
85867W        W60855  11.059  33.393  12.127  0.2065 -0.1736 -0.3718
85868W        W60856   6.058  32.013   7.282 -0.1989 -0.1844 -0.1935
85869W        W60857  24.709  11.647  12.522  0.1769 -0.0511  0.1759
85870W        W60858  16.501  30.935  24.303 -0.0717 -0.0535 -0.1302
85871W        W60859   0.129  32.728   5.808 -0.2731  0.1102 -0.1914
85872W        W60860  25.690  13.149  25.924 -0.2101  0.1653  0.0549
85873W        W60861   8.790  32.592   5.795  0.0196 -0.0078 -0.0698
85874W        W60862  18.284  31.005   9.137 -0.0433 -0.0304 -0.0642
85875W        W60863  34.644   1.691  21.486 -0.1262  0.0151 -0.1785
85876W        W60864  22.983  28.857  12.225 -0.1612 -0.2338  0.2158
85877W        W60865   3.813  13.419  24.064 -0.2220  0.2840  0.0894
85878W        W60866  15.250  12.228   4.722  0.0715  0.3354 -0.1101
85879W        W60867   9.665  10.273   8.625  0.0467 -0.0645  0.0129
85880W        W60868  10.001  12.658   3.794  0.0684  0.3801 -0.0360
85881W        W60869  33.135  33.495  21.194 -0.0110  0.0630 -0.0615
85882W        W60870   2.464  29.524   8.895 -0.2152 -0.0154  0.0081
85883W        W60871  30.599  25.052  16.786 -0.0078 -0.2625 -0.2825
85884W        W60872   8.524  22.274  24.092 -0.1275  0.1859  0.0912
85885W        W60873  11.337   2.385  13.640  0.1269  0.2593 -0.1367
85886W        W60874   9.639  22.522  22.273 -0.1629  0.0644  0.1743
85887W        W60875   0.684  16.653   9.936  0.1165 -0.0941  0.1535
85888W        W60876  35.251   0.223  24.814  0.1409  0.0311 -0.2031
85889W        W60877  15.492   0.775  17.825  0.2095 -0.2316  0.0946
85890W        W60878  30.964   7.340  17.025  0.2621  0.0991  0.1882
85891W        W60879  29.779  11.675  15.658  0.3376 -0.2052  0.1147
85892W        W60880   0.759  25.315  16.290  0.0307 -0.2931  0.1385
85893W        W60881   0.190  10.056  14.185  0.1612 -0.0168 -0.2353
85894W        W60882   9.408  35.281  23.226  0.4143 -0.0161 -0.3305
85895W        W60883  27.934  34.544   3.048  0.4042  0.1869 -0.2715
85896W        W60884  26.355   0.108  22.268 -0.0263 -0.3095  0.0310
85897W        W60885  29.528  13.868   6.951 -0.0351  0.2204  0.0462
85898W        W60886  26.846   9.965  19.335 -0.3034  0.1399  0.0090
85899W        W60887  24.527  32.417  17.776  0.3625 -0.1470  0.0014
85900W        W60888  16.171  19.627   1.925 -0.0312 -0.2175 -0.0627
85901W        W60889  21.505  25.591  23.738  0.3279  0.0881 -0.1199
85902W        W60890  15.112  26.994   1.885  0.1096 -0.0727 -0.0372
85903W        W60891  11.653  33.774  13.821 -0.3079  0.2425  0.1223
85904W        W60892  11.931   1.260  13.278 -0.0278 -0.2131  0.0160
85905W        W60893  10.709  10.498  13.758 -0.1358  0.0796  0.0467
85906W        W60894  33.654  12.228  19.485  0.0106 -0.1767  0.0742
85907W        W60895  15.033  26.991   6.887  0.1172  0.1550  0.0435
85908W        W60896  19.745   8.537  22.859 -0.0392 -0.1823 -0.1578
85909W        W60897  26.918  19.878  21.447  0.0495  0.1748  0.1261
85910W        W60898  14.261  32.897  26.244 -0.2639 -0.1406  0.1281
85911W        W60899  21.860  13.225  18.082 -0.0854 -0.3158  0.0895
85912W        W60900  32.164  18.840  19.024 -0.0231 -0.0093  0.0453
85913W        W60901   3.640  11.984   1.854 -0.3010  0.0175 -0.0313
85914W        W60902  28.753  29.770  22.447 -0.3850  0.3094  0.0946
85915W        W60903   5.912  32.016  11.690  0.2834 -0.0784 -0.1846
85916W        W60904   1.992  12.619  15.331 -0.0410 -0.0954  0.2277
85917W        W60905   7.404   9.040  25.969  0.4304 -0.2211  0.2455
85918W        W60906  21.430  11.443  25.204 -0.3027 -0.2296 -0.1999
85919W        W60907   8.919   8.326   4.186  0.1975  0.2432 -0.0732
85920W        W60908   1.638  26.216   3.404  0.1713  0.0395  0.1513
85921W        W60909   9.509  25.673  15.507  0.0625 -0.2675  0.3021
85922W        W60910  23.691  19.017  12.211 -0.2477 -0.0302 -0.1224
85923W        W60911  11.211  33.664  20.463 -0.0494 -0.0855 -0.2628
85924W        W60912  17.090  23.409  22.718  0.1508  0.0597  0.0607
85925W        W60913  25.347  22.128  14.602  0.1645 -0.0119  0.0936
85926W        W60914  25.275   3.560   0.079  0.2048  0.2533  0.1986
85927W        W60915  26.637   0.204   3.640  0.0781  0.4695  0.3350
85928W        W60916  26.530  13.017  21.773 -0.1136  0.2179 -0.2071
85929W        W60917  11.736  32.839   7.381  0.3398  0.3051  0.0333
85930W        W60918   2.336  25.306  24.099  0.1149 -0.0946 -0.1680
85931W        W60919  24.817   5.932  14.769 -0.0258  0.1923  0.1677
85932W        W60920   9.100   8.938  23.791  0.1921 -0.0499  0.0385
85933W        W60921  22.325  18.203  25.926 -0.0006 -0.3160  0.2792
85934W        W60922  25.641   4.241  24.524  0.2742 -0.0743 -0.0703
85935W        W60923   9.143  25.445   2.377 -0.2015  0.2472  0.1708
85936W        W60924  10.637  24.109  11.012 -0.0253 -0.1558 -0.0683
85937W        W60925  21.011  32.040   3.920  0.3548 -0.1858 -0.0660
85938W        W60926  17.785  32.924   7.304  0.0252 -0.0782  0.0049
85939W        W60927   6.527  10.598   2.493 -0.1544  0.2678 -0.0195
85940W        W60928  13.590  34.657  21.240 -0.1401 -0.4284  0.0320
85941W        W60929  10.441  19.603   5.848 -0.0713 -0.0510 -0.0929
85942W        W60930  14.375  22.980  22.520 -0.1812 -0.2417  0.2626
85943W        W60931  13.288  23.347   5.554 -0.2100 -0.0710 -0.1490
85944W        W60932   5.533  31.403  24.540 -0.1191 -0.1319  0.2022
85945W        W60933  29.557  29.319   5.003  0.1797 -0.0102  0.2011
85946W        W60934  30.072  12.246  19.490 -0.2624 -0.1951  0.1397
85947W        W60935  27.754  20.192  23.891  0.0072  0.0816  0.3499
85948W        W60936  14.966   2.385   8.029  0.0310 -0.0671  0.0787
85949W        W60937   5.335  29.276   2.359 -0.3483  0.0516  0.1589
85950W        W60938   4.650   3.435   6.694  0.0358  0.1003 -0.0564
85951W        W60939  22.022   2.586   6.364 -0.1366 -0.0721  0.3467
85952W        W60940   0.584  14.325  12.192 -0.3918  0.0142 -0.2260
85953W        W60941  21.786  28.654  21.446  0.1639 -0.0319  0.0612
85954W        W60942   7.518  28.561   9.971  0.1374  0.0504  0.1945
85955W        W60943  27.875  29.419  11.752 -0.0342  0.0489 -0.1328
85956W        W60944  27.626   0.254   5.737 -0.3671  0.2655  0.0523
85957W        W60945  14.442  29.230   4.291 -0.0556 -0.1294 -0.3915
85958W        W60946   4.080  29.074   5.667  0.1298 -0.1085  0.0395
85959W        W60947  24.534  24.960  18.926  0.0561 -0.4056 -0.0402
85960W        W60948  26.724  19.831  14.046  0.0541 -0.0553  0.2937
85961W        W60949   9.691   6.457  22.297  0.1222 -0.2446  0.0080
85962W        W60950  14.892  25.109   6.934  0.1729 -0.2050 -0.0438
85963W        W60951   8.241   9.289   7.697 -0.3392  0.0061  0.2056
85964W        W60952  31.179  29.144  22.657 -0.1096 -0.3217 -0.1661
85965W        W60953  28.424  31.973  23.094 -0.0033 -0.0760  0.0930
85966W        W60954  15.242  12.621  11.473 -0.0852 -0.0078  0.0760
85967W        W60955  29.734   7.963  17.343  0.0953  0.0502  0.0521
85968W        W60956  32.421  28.097   2.255 -0.0913 -0.0994  0.0315
85969W        W60957  17.254  30.411  10.487 -0.2929  0.1618  0.0642
85970W        W60958  19.840  31.673  19.451  0.5140  0.1791 -0.0465
85971W        W60959  28.143  27.552   2.495 -0.0245  0.2940 -0.0948
85972W        W60960  24.641   8.055  14.447  0.3157 -0.1662 -0.1132
85973W        W60961  12.119  32.728   4.720  0.0470  0.1108  0.1045
85974W        W60962  20.255  28.080   6.986 -0.1689 -0.2433 -0.2119
85975W        W60963  13.691  10.989  25.627 -0.2152 -0.1037  0.0964
85976W        W60964   3.311  24.194  25.423  0.0103  0.0943  0.2930
85977W        W60965   1.956  29.393  22.691 -0.0321  0.3098 -0.0537
85978W        W60966  28.666  24.757  13.740 -0.2387  0.0890  0.1307
85979W        W60967  18.442  15.129   5.698 -0.2364  0.3104 -0.0908
85980W        W60968  31.831  31.978  24.181  0.0743 -0.0455 -0.1668
85981W        W60969   5.655  28.323  21.789  0.2214  0.0395  0.0291
85982W        W60970  30.968  19.659  16.034  0.0407 -0.3105  0.0984
85983W        W60971  26.415  14.048  24.412 -0.2010  0.1417  0.1432
85984W        W60972  18.748  31.734  22.851  0.4223 -0.2697  0.1255
85985W        W60973   7.028  25.758  22.349 -0.1102  0.1653 -0.1210
85986W        W60974   4.581  16.265  21.710 -0.0280  0.0880 -0.1854
85987W        W60975  20.199   2.724   3.982 -0.2447  0.0883 -0.1356
85988W        W60976   0.920  12.437  16.020 -0.0548 -0.1654  0.1431
85989W        W60977  13.636  24.694  26.083  0.2864  0.0188  0.0697
85990W        W60978  11.778  33.539   8.366 -0.0934 -0.0702  0.0327
85991W        W60979   4.981  34.071   3.460  0.2472 -0.0257  0.1393
85992W        W60980  16.470  16.318  19.084  0.3076  0.0985 -0.1084
85993W        W60981  10.842   9.639  13.794  0.1502  0.0360 -0.0556
85994W        W60982   9.448   2.206   8.440  0.0434  0.2866 -0.0591
85995W        W60983  16.706  18.054   7.777  0.1158  0.1354 -0.0217
85996W        W60984   7.742  22.719   2.251 -0.2666 -0.0429 -0.1472
85997W        W60985  16.928  34.051  25.736 -0.1212 -0.0907  0.0012
85998W        W60986  12.921  32.539  13.196 -0.0384 -0.1999 -0.0804
85999W        W60987  34.470  16.733  22.295  0.0826 -0.3327 -0.0302
86000W        W60988  21.984   1.325   7.715 -0.0441 -0.0698  0.0181
86001W        W60989  25.817  26.508  19.042 -0.0850  0.3171 -0.0669
86002W        W60990  27.149  28.850  23.743 -0.0443 -0.0399 -0.1725
86003W        W60991   8.728  18.006  25.060 -0.1361 -0.1932 -0.0825
86004W        W60992  23.754  12.372  22.533 -0.4254  0.1266  0.0845
86005W        W60993   2.037  30.398  23.374  0.1643 -0.1285  0.1082
86006W        W60994  32.286   0.110  13.608 -0.2458  0.0740 -0.0128
86007W        W60995  29.401   1.088  11.981  0.0045 -0.2614  0.0529
86008W        W60996  17.857  17.915   0.766  0.0119 -0.0705 -0.1024
86009W        W60997   0.998  18.938  15.948 -0.1762  0.1646  0.0018
86010W        W60998   7.902   1.701   8.992  0.1761  0.1451 -0.0596
86011W        W60999  10.695  34.476   7.466 -0.1061 -0.3179 -0.0167
86012W        W61000  25.150  27.931  12.329  0.0001  0.0129  0.3494
86013W        W61001   7.217  21.821  10.287  0.1523  0.1656 -0.0603
86014W        W61002  29.025   0.566   6.660 -0.0870  0.0429 -0.0485
86015W        W61003   6.817  17.759   7.728 -0.0597 -0.1787  0.0588
86016W        W61004  32.178  15.566   0.287  0.0721  0.0910  0.3062
86017W        W61005  20.574  14.655   4.597  0.3189  0.0069 -0.2575
86018W        W61006  18.217  28.015   6.940 -0.1825  0.3285  0.2351
86019W        W61007   6.469  19.307  22.104 -0.0802 -0.0484  0.1745
86020W        W61008   5.486  30.136   8.705 -0.1516  0.0403 -0.1252
86021W        W61009  29.132  23.071  22.575  0.0493  0.0731  0.3760
86022W        W61010  33.552  15.878   9.154  0.3099  0.0240  0.0760
86023W        W61011   3.598  14.469  17.985  0.2448  0.2197  0.0592
86024W        W61012  28.905  18.594  11.456  0.2336 -0.0543 -0.0632
86025W        W61013  28.004  15.655  18.755 -0.0820  0.0339  0.1334
86026W        W61014  16.716  31.142  26.127 -0.2016 -0.1450 -0.0669
86027W        W61015  28.396  15.508  21.597 -0.2436  0.3946  0.2647
86028W        W61016  21.605   1.358  23.317  0.0827 -0.0873  0.1967
86029W        W61017  33.945   6.506  17.857  0.1522  0.3397  0.0059
86030W        W61018  34.916   5.471  22.848 -0.0535 -0.2781  0.0102
86031W        W61019  16.717  10.473   5.133 -0.2900 -0.1855 -0.0053
86032W        W61020  25.374  23.010  13.549 -0.0946  0.2396  0.4835
86033W        W61021  26.018  13.169  21.379 -0.2387 -0.2268 -0.0205
86034W        W61022  10.740  17.942  25.665 -0.0978 -0.3581  0.2301
86035W        W61023   5.145   1.273   0.754 -0.1956 -0.3218  0.1909
86036W        W61024  16.544   9.900   7.624  0.1262 -0.0722 -0.0464
86037W        W61025  35.039  27.452  22.526  0.1935 -0.1413  0.0696
86038W        W61026  32.500  34.982  19.732 -0.1592  0.3301  0.0211
86039W        W61027   5.381  28.631  21.502  0.4606  0.1610 -0.0118
86040W        W61028  24.178  18.170  11.999 -0.4013 -0.0144 -0.1749
86041W        W61029   9.687  30.593   1.575  0.4361  0.3585  0.0212
86042W        W61030   8.691  22.023   8.524 -0.1197 -0.2271  0.5636
86043W        W61031  32.135   9.695  12.229  0.1436  0.0543 -0.0022
86044W        W61032   2.012  20.361   1.476 -0.0593  0.1445  0.4243
86045W        W61033  19.276  30.814   7.114  0.0310 -0.3186 -0.2324
86046W        W61034   5.230  11.823   8.389  0.0959  0.0706 -0.0418
86047W        W61035  15.904  34.062   5.225 -0.1940  0.3442  0.0655
86048W        W61036   5.830  30.993  22.729  0.1469  0.2158 -0.2504
86049W        W61037   7.269   6.980   8.817 -0.0980  0.0812  0.0978
86050W        W61038  27.056  19.244  25.885  0.1998 -0.0052  0.2066
86051W        W61039  23.059  25.468  18.839  0.1476 -0.0495  0.1834
86052W        W61040  29.876  19.163  17.190  0.3130  0.1336  0.0762
86053W        W61041   3.598  30.366   3.626 -0.3080 -0.2592  0.1844
86054W        W61042  17.530  32.613  18.265 -0.1076 -0.1330  0.2410
86055W        W61043  26.629  14.125  14.856 -0.0856  0.2467  0.1935
86056W        W61044   5.848  15.397  18.439 -0.0853 -0.4307 -0.0590
86057W        W61045  21.751   5.906   6.030 -0.0025 -0.0958  0.0953
86058W        W61046  12.288  29.524  23.028  0.1795 -0.1157  0.0559
86059W        W61047  31.459   0.103  19.044 -0.0568  0.0942 -0.0031
86060W        W61048  27.977  10.218   7.737 -0.1929  0.0056  0.1085
86061W        W61049  25.594   5.033  24.942 -0.1445 -0.0066 -0.3866
86062W        W61050  29.277  19.578  14.483 -0.0768  0.3359  0.0693
86063W        W61051  35.160  13.974  17.307 -0.3151  0.1782  0.0622
86064W        W61052   1.405  31.323   7.284  0.1921  0.0054  0.0136
86065W        W61053  33.734  27.143  17.042 -0.0769 -0.2556  0.0339
86066W        W61054   8.494  31.259   6.796 -0.0663 -0.0284  0.1203
86067W        W61055   1.506  25.687  24.363  0.1448  0.1819  0.2877
86068W        W61056   9.323  18.532  14.156 -0.1483 -0.2162  0.0955
86069W        W61057  17.677  18.782  22.746  0.1410  0.2028 -0.2035
86070W        W61058   7.417  26.151  25.799  0.1143  0.0256  0.1533
86071W        W61059  15.316  31.706  22.995 -0.0900  0.2530  0.2859
86072W        W61060  22.487  14.070  25.090  0.1060  0.0130 -0.3276
86073W        W61061   5.988   0.968   2.375 -0.1797 -0.0561 -0.0736
86074W        W61062   9.142  26.278   8.145 -0.0701 -0.2493 -0.4018
86075W        W61063  22.751  19.151  14.092 -0.0181  0.2079 -0.0465
86076W        W61064  21.191  31.747   7.592  0.2259 -0.2194 -0.2815
86077W        W61065   4.777  34.899   5.826 -0.4414  0.2766 -0.3746
86078W        W61066  26.435  21.114  19.317 -0.2416  0.0236 -0.2730
86079W        W61067  18.646   8.408   1.268  0.2472 -0.1023  0.0261
86080W        W61068   7.804  23.482   1.638  0.1654 -0.0369  0.0736
86081W        W61069  15.379  21.579  11.959 -0.2660 -0.4883  0.2158
86082W        W61070   4.800   1.126  23.238 -0.0124 -0.0093  0.2854
86083W        W61071  18.684   9.298  19.677  0.1503 -0.0808 -0.0978
86084W        W61072  24.692  31.671  13.465 -0.1301  0.2033 -0.1776
86085W        W61073  34.550   5.115  17.318 -0.2058 -0.0878 -0.0963
86086W        W61074   7.284  24.851  11.651 -0.0757 -0.4835  0.0630
86087W        W61075  19.566  33.203  25.765  0.1577 -0.3150 -0.3325
86088W        W61076  30.358   0.082  17.601  0.1182 -0.1502 -0.0747
86089W        W61077   4.864   0.672  25.582 -0.1545 -0.1592 -0.1793
86090W        W61078  13.679   2.210  10.246 -0.0083 -0.2122  0.2055
86091W        W61079  32.726  16.984   5.691  0.0342 -0.2086  0.0142
86092W        W61080  11.477  13.131  21.966  0.0685  0.2055 -0.1521
86093W        W61081   0.201   1.213   6.890 -0.0561  0.1132 -0.0882
86094W        W61082  34.131  28.254   1.553 -0.0554  0.0739 -0.2696
86095W        W61083   5.160  27.910   6.359  0.4008  0.0535  0.0725
86096W        W61084  12.151   6.483   6.717  0.0003 -0.0169  0.0595
86097W        W61085  25.096   3.492  23.114  0.0356 -0.4536  0.1038
86098W        W61086  20.014  10.236  23.089 -0.1616  0.1826 -0.1393
86099W        W61087  17.255  14.437  21.042  0.2044  0.0850 -0.0118
86100W        W61088  29.611   5.370  22.247  0.1827  0.1306  0.0086
86101W        W61089  10.280  26.580   2.552  0.0202 -0.5446  0.0231
86102W        W61090  21.803  24.131  16.258  0.1635  0.0642 -0.0560
86103W        W61091   6.918  18.982  25.762 -0.0295 -0.2305 -0.2950
86104W        W61092   1.261   9.366  25.700 -0.2037  0.2324 -0.0413
86105W        W61093  30.106  29.210  24.345  0.0300  0.4487  0.2671
86106W        W61094   6.332  11.295   7.367 -0.0959  0.0276  0.0578
86107W        W61095  16.963   3.256   0.005 -0.0968  0.0208 -0.1655
86108W        W61096   2.374  29.208  10.092 -0.1472  0.0399  0.1274
86109W        W61097  25.967  22.506  20.671 -0.0298  0.3133  0.3448
86110W        W61098  10.607  24.575  10.747  0.0614 -0.1693  0.0879
86111W        W61099  15.016   9.470  24.413  0.0918  0.0740 -0.0046
86112W        W61100  33.383  11.721  20.534 -0.0286  0.0760 -0.0642
86113W        W61101  17.995   7.217   8.031  0.1356 -0.1184 -0.1573
86114W        W61102   6.341   3.534  18.772 -0.0027 -0.0361 -0.0411
86115W        W61103   2.890  14.566   2.215 -0.0544  0.1941  0.1872
86116W        W61104  32.242   6.550  14.252 -0.1233  0.2894 -0.1717
86117W        W61105  32.140  12.360  25.685  0.1596  0.0331 -0.1280
86118W        W61106  25.618  28.445  22.197 -0.0116 -0.1778  0.0683
86119W        W61107   0.456  29.284  21.986 -0.0893  0.3070  0.0378
86120W        W61108  28.818  11.908   0.446 -0.0697  0.0330 -0.1563
86121W        W61109  20.313  26.690   3.365 -0.0735  0.0927 -0.1951
86122W        W61110  30.882  30.134  17.304 -0.1875  0.0166  0.1377
86123W        W61111  11.656  18.578   4.871  0.1569 -0.1691 -0.2595
86124W        W61112  16.409  11.851   5.235 -0.2262 -0.0238 -0.0892
86125W        W61113   0.969  32.468   3.817 -0.0135 -0.0441 -0.3237
86126W        W61114   1.463   8.960  20.698 -0.2704  0.2656  0.1296
86127W        W61115  26.005   9.017  15.386 -0.0364 -0.0811  0.0694
86128W        W61116  16.723   4.316  25.124  0.2854  0.2768 -0.0026
86129W        W61117   7.387  32.397   8.310 -0.3005  0.1966  0.1909
86130W        W61118   4.991  35.146   2.137 -0.0374  0.0635 -0.0578
86131W        W61119  23.973  30.173   3.000 -0.1331 -0.0832 -0.0558
86132W        W61120  17.906  13.783   1.314  0.1643 -0.1866  0.2093
86133W        W61121  35.343   1.428  15.070 -0.0967 -0.0597 -0.1917
86134W        W61122  24.342   8.377   3.124  0.1228 -0.1235 -0.1218
86135W        W61123  18.573  17.265  11.952 -0.1103 -0.0466 -0.0552
86136W        W61124  33.847   1.619   0.152 -0.3536  0.2733  0.2352
86137W        W61125   8.733  28.707   2.281 -0.1604  0.1357  0.2828
86138W        W61126  28.037  32.823  14.201 -0.2315 -0.1718  0.2475
86139W        W61127  12.441  31.229  14.833  0.0062  0.2594  0.1545
86140W        W61128  33.924   6.522  12.145  0.2536 -0.1012  0.1697
86141W        W61129  22.042   0.608  13.580  0.0239  0.2211  0.0252
86142W        W61130  28.810  15.208  12.087  0.0122  0.1238  0.0300
86143W        W61131   6.441  19.770  21.775  0.3955 -0.1762  0.0311
86144W        W61132  18.202  25.233   4.465  0.1931  0.0419 -0.0293
86145W        W61133  30.513  30.703  12.306  0.0684  0.2492  0.1879
86146W        W61134  10.839  33.140  13.308  0.0092 -0.1701 -0.1729
86147W        W61135  23.521  32.458   3.524 -0.1355  0.2986 -0.1068
86148W        W61136   2.789  19.194  23.669  0.0997 -0.1745 -0.1596
86149W        W61137  18.783   5.438  10.239 -0.1243  0.1591  0.2828
86150W        W61138  14.720   0.043   3.921 -0.0660  0.6376  0.2887
86151W        W61139  17.578  17.533   7.805  0.0859  0.3359 -0.2332
86152W        W61140   8.493  18.958  14.186 -0.1561 -0.0551  0.1022
86153W        W61141  27.854  27.956   3.341 -0.0264  0.0475 -0.0919
86154W        W61142  16.116  26.414  10.631 -0.0893  0.1170 -0.0732
86155W        W61143  27.108  10.062  24.433  0.1046 -0.3224  0.0221
86156W        W61144  19.458  22.122  21.360  0.0664 -0.0160 -0.1453
86157W        W61145  16.416  34.933   8.681 -0.1097 -0.0851  0.0317
86158W        W61146  32.661  15.716  12.040  0.0958 -0.0371  0.1253
86159W        W61147   9.382  27.237   7.780  0.0821 -0.0171  0.2668
86160W        W61148  25.025  26.013  15.593 -0.1190  0.3618  0.0736
86161W        W61149  12.682  16.572  12.829 -0.2761 -0.1869  0.0283
86162W        W61150   4.479  35.353  21.170 -0.0379 -0.0063 -0.1045
86163W        W61151  16.030  17.036  24.077 -0.4331 -0.1396 -0.2221
86164W        W61152  29.391  18.013   5.680 -0.2320 -0.0057  0.2063
86165W        W61153   0.600  16.375  17.812  0.2204  0.0581 -0.1850
86166W        W61154  33.573  17.048  15.257  0.1857  0.0475 -0.0048
86167W        W61155   3.879  24.224  21.533 -0.1165 -0.1822 -0.4264
86168W        W61156  18.852  17.583  18.379  0.1021  0.1017 -0.1533
86169W        W61157  25.129   0.326   4.357 -0.1326 -0.0336 -0.1117
86170W        W61158  33.175  12.740   6.451 -0.4092 -0.5432  0.0091
86171W        W61159  24.045   6.908  23.146  0.1130 -0.1275 -0.0632
86172W        W61160  26.832  34.188  24.481 -0.3332 -0.0495  0.1633
86173W        W61161  21.943  15.204  24.984 -0.5646 -0.2954  0.1572
86174W        W61162  19.602  18.894  26.063 -0.0761 -0.2894 -0.3137
86175W        W61163  17.773  32.501  19.186  0.1122 -0.2382  0.2397
86176W        W61164  18.244  21.862   6.411  0.0581  0.0800  0.0847
86177W        W61165  34.008  34.829  23.929 -0.0546 -0.1226 -0.2125
86178W        W61166   5.777   4.152  19.981 -0.0011 -0.1733  0.2751
86179W        W61167  19.790  29.625  17.662 -0.3455 -0.0572  0.0513
86180W        W61168   5.130  33.595   0.219  0.3107 -0.0108 -0.1110
86181W        W61169  22.270  13.401   1.877  0.1739 -0.0516  0.1024
86182W        W61170  21.521  33.376  17.857  0.1431 -0.1837  0.0902
86183W        W61171  14.998  13.145  11.729  0.2079  0.1299 -0.4673
86184W        W61172  31.012  31.813  14.156 -0.2603 -0.2902  0.1938
86185W        W61173  33.057   0.788   7.361  0.0829 -0.0439 -0.0640
86186W        W61174  31.665   3.378   6.424  0.2924 -0.0394  0.0583
86187W        W61175  12.458  10.904   9.225 -0.2067  0.4441 -0.1052
86188W        W61176  12.426  33.608  10.529 -0.2257  0.0656 -0.0200
86189W        W61177   9.512  16.678   2.102  0.0421 -0.2117  0.3251
86190W        W61178  32.665  15.194   0.465  0.3503  0.0934 -0.1768
86191W        W61179  34.824  12.437  16.198 -0.1706 -0.0911 -0.0537
86192W        W61180   9.824  14.955  24.549  0.2371  0.0222  0.0153
86193W        W61181  30.247  10.025   0.308  0.0669 -0.0723  0.0811
86194W        W61182  20.405  24.967  19.216 -0.1816  0.0983 -0.0045
86195W        W61183  11.048  17.176  13.006  0.1917  0.0832  0.2009
86196W        W61184  15.963  24.835  12.056 -0.0286  0.0339  0.0602
86197W        W61185   0.751  30.585  21.464 -0.1482  0.0350 -0.3492
86198W        W61186  20.916   8.069  19.191  0.3720  0.3214  0.1455
86199W        W61187  18.927   0.269   4.273 -0.1902  0.1736  0.1694
86200W        W61188   3.288   5.024  18.089  0.0592 -0.0867  0.2375
86201W        W61189   3.070  11.038   3.784  0.3628  0.0589  0.3208
86202W        W61190  26.529  27.562  15.389  0.2408  0.0474 -0.0662
86203W        W61191   1.548  10.704  14.828  0.1335  0.1409  0.1357
86204W        W61192  11.948  14.205  25.218  0.1631 -0.0319 -0.1389
86205W        W61193  22.284   7.924   0.494 -0.2045 -0.1231 -0.2833
86206W        W61194  23.880   7.250  17.318 -0.3179  0.4525  0.0441
86207W        W61195   3.491   1.538  20.528 -0.1412 -0.0578 -0.1596
86208W        W61196  15.874   5.875   1.895  0.0172  0.0270 -0.3616
86209W        W61197   9.112  33.899  21.373  0.1358  0.1477  0.2703
86210W        W61198  22.997  32.671  24.225 -0.1636 -0.2332 -0.1333
86211W        W61199  25.905  14.528   8.608  0.0859 -0.0642 -0.1270
86212W        W61200  10.121  20.879   8.938  0.1348  0.0924  0.2910
86213W        W61201   4.237  20.705   4.648  0.2102 -0.0017 -0.3661
86214W        W61202  28.078   7.787  23.666  0.1453  0.2876 -0.0578
86215W        W61203   3.134   5.532   7.916 -0.1156 -0.0704  0.0053
86216W        W61204  22.933  13.500  17.995  0.1756 -0.1853 -0.0377
86217W        W61205  21.434  26.976  18.021 -0.3998 -0.2037 -0.2772
86218W        W61206  10.263  25.491  14.500  0.0465  0.0106  0.0325
86219W        W61207  12.414  12.871  21.696 -0.2120  0.0380 -0.2524
86220W        W61208   2.823   0.193  18.428 -0.2206 -0.2244  0.0457
86221W        W61209  12.148  14.547   8.366  0.2910 -0.0655 -0.1752
86222W        W61210   0.924  17.183  18.151  0.0835 -0.2429 -0.0596
86223W        W61211   1.926  13.310  24.286 -0.2861  0.0940  0.0196
86224W        W61212  21.047  13.838   4.374  0.1835  0.2333  0.0544
86225W        W61213  25.434  25.936  24.386  0.2365  0.0754 -0.3457
86226W        W61214   6.586   6.115  11.454 -0.1625  0.3741 -0.1768
86227W        W61215  15.983   8.781  14.080 -0.0434  0.0400 -0.3427
86228W        W61216   7.900  26.465  21.152 -0.0174  0.0720 -0.1359
86229W        W61217  18.409  26.029   7.948 -0.0769  0.0838 -0.1020
86230W        W61218  28.910  33.713  17.625  0.0466  0.2456 -0.0630
86231W        W61219  34.214  28.480  25.972  0.0417  0.0468 -0.1058
86232W        W61220  25.360   3.631  16.585  0.0628  0.0601  0.0751
86233W        W61221  33.412  29.204   5.191  0.1163  0.0915  0.3368
86234W        W61222  34.001   9.206   9.724 -0.1421 -0.0982 -0.2318
86235W        W61223  24.155  31.574  12.137  0.0502 -0.1560  0.0411
86236W        W61224  19.709  34.055   6.364  0.0071  0.2067  0.1871
86237W        W61225   4.733   6.947  22.331 -0.1713 -0.1594 -0.1950
86238W        W61226  23.017   1.704  16.754 -0.1662 -0.1019  0.3806
86239W        W61227  34.417  15.222  11.377 -0.4187 -0.3591 -0.1920
86240W        W61228  32.644  18.291  25.204  0.0644  0.3110  0.1025
86241W        W61229  16.548  33.510   7.764  0.4077  0.0224  0.1370
86242W        W61230  11.104   0.952   1.762  0.3069  0.0978  0.0576
86243W        W61231  34.930  10.515  16.890  0.0753  0.0642  0.2061
86244W        W61232  32.555  27.490   0.850 -0.3503  0.2439  0.2606
86245W        W61233  15.103   3.672  18.078  0.0318  0.0628 -0.0400
86246W        W61234   9.903  20.020   1.083 -0.0369 -0.4433 -0.1324
86247W        W61235   7.302   7.783   0.726  0.0842 -0.0858 -0.3356
86248W        W61236  12.401   4.608  21.655  0.5550  0.5650 -0.0636
86249W        W61237  21.486  23.523  21.970 -0.1796 -0.4061 -0.0662
86250W        W61238   4.016  24.956   3.610  0.0654  0.0906 -0.1067
86251W        W61239  18.232   9.857   3.407  0.1258 -0.0856 -0.0964
86252W        W61240  16.392  22.094   0.133  0.1079  0.2498 -0.1343
86253W        W61241  20.098   0.893  21.375  0.0442 -0.0196 -0.0868
86254W        W61242  33.746  18.524  22.973 -0.0665 -0.2250 -0.0667
86255W        W61243  13.317  14.474   9.271  0.0172  0.1512  0.2314
86256W        W61244  25.470   7.424  19.041  0.2519 -0.2285 -0.0648
86257W        W61245  13.231  11.846  23.027 -0.0178 -0.0120 -0.0400
86258W        W61246  11.578   2.582   3.501  0.1140 -0.0472 -0.3321
86259W        W61247  19.831  11.654  20.853 -0.0792  0.1063 -0.0118
86260W        W61248  19.815  27.955   8.772 -0.1571 -0.2642 -0.0689
86261W        W61249  20.841  15.409  17.452 -0.1713  0.1131  0.0733
86262W        W61250  20.814   3.060   4.978 -0.1368  0.0226 -0.1073
86263W        W61251   8.773  10.282  10.826  0.0273  0.0435  0.0391
86264W        W61252  10.746  21.385  22.856 -0.3429 -0.1434 -0.0648
86265W        W61253   7.908  30.442  15.725 -0.1362  0.0493 -0.1557
86266W        W61254  30.352  21.798  13.276  0.0932 -0.0668 -0.2666
86267W        W61255  29.251   4.348  20.797 -0.0927  0.0430 -0.0599
86268W        W61256  33.694  20.631  11.007  0.1812 -0.2273  0.1892
86269W        W61257  26.227  32.890  12.596  0.2679 -0.2618 -0.0023
86270W        W61258  14.155  23.481  12.874  0.0822  0.0976 -0.1811
86271W        W61259  10.583  10.545   0.053  0.3668  0.0405 -0.0643
86272W        W61260   1.416  32.322   2.885  0.3193  0.1029  0.0749
86273W        W61261   8.205   9.445  21.170  0.0443 -0.0755 -0.2089
86274W        W61262  14.059  27.283  26.124 -0.2738 -0.0370  0.2828
86275W        W61263  35.297   7.019   4.638 -0.1780  0.2848 -0.1893
86276W        W61264  34.967  20.890  19.592  0.0421 -0.1675  0.1405
86277W        W61265   0.290   9.588  21.598  0.2435  0.0764 -0.0485
86278W        W61266  25.253  12.169  18.886 -0.1496 -0.1398 -0.2083
86279W        W61267  13.617  23.372  10.540 -0.0287  0.2507  0.0514
86280W        W61268   6.955  19.088   1.197  0.0943 -0.2997  0.1629
86281W        W61269  19.493  31.417   7.836  0.1936 -0.0482  0.0248
86282W        W61270  13.386  35.058   1.145  0.4537 -0.1475  0.1179
86283W        W61271  14.504  23.456  10.094 -0.3127 -0.2906 -0.2188
86284W        W61272  28.067  11.430  25.102 -0.4915  0.1542  0.4764
86285W        W61273  26.412   1.097   5.463 -0.0714  0.1313 -0.0232
86286W        W61274  33.363  15.618  24.065  0.1272  0.2645 -0.1583
86287W        W61275  22.321   2.316   0.061  0.4821 -0.2530  0.3052
86288W        W61276  23.341  26.141  15.353 -0.2532 -0.1256 -0.0790
86289W        W61277   3.000  21.034   0.442  0.2143 -0.2027 -0.0762
86290W        W61278   4.836  16.766   6.464  0.1575 -0.3258  0.1582
86291W        W61279  22.740  27.958  21.667 -0.2261  0.1816 -0.0404
86292W        W61280  19.225   4.093   5.998 -0.0112 -0.3509 -0.0869
86293W        W61281  29.285  12.775  19.613 -0.3741 -0.3041  0.0834
86294W        W61282  19.482  21.510   6.310 -0.1636  0.2821 -0.2657
86295W        W61283  10.393  33.413   8.523  0.1493  0.0290 -0.0189
86296W        W61284  32.559  27.758  21.305  0.0884 -0.0002 -0.0355
86297W        W61285  16.312  14.991   3.563 -0.1259  0.0327  0.2041
86298W        W61286  12.776   9.257  24.807 -0.3912  0.0088 -0.0900
86299W        W61287   0.078   4.655  16.698 -0.0645 -0.3207  0.0257
86300W        W61288   1.064  22.291  11.580 -0.2901  0.1712  0.1712
86301W        W61289   0.396  31.995   5.113  0.1869 -0.1643 -0.1854
86302W        W61290  18.502  33.302  15.899 -0.0266  0.4312 -0.2542
86303W        W61291   0.274  32.546  25.787 -0.0319  0.0288 -0.0581
86304W        W61292   3.379  23.850   5.223  0.0788 -0.1399 -0.2396
86305W        W61293  32.745  10.323  12.026 -0.1688  0.1836  0.1915
86306W        W61294  19.495   1.727  15.587  0.0903  0.1743 -0.1380
86307W        W61295  18.394  13.173   2.587  0.3090 -0.1553  0.2201
86308W        W61296  25.567   3.416  16.173 -0.0973 -0.1456  0.0990
86309W        W61297  35.245   4.757  20.568 -0.1435  0.0453  0.0622
86310W        W61298   1.499  28.933   1.685  0.1198 -0.1197  0.1662
86311W        W61299  27.140   3.041  26.176  0.2648  0.1112  0.3189
86312W        W61300  28.878   0.997   4.170  0.1682  0.2434 -0.2487
86313W        W61301  21.654  31.796  25.371 -0.1514  0.0684 -0.2710
86314W        W61302   9.292  14.893  23.732  0.3204 -0.2496  0.2312
86315W        W61303  16.991  34.654  18.298  0.0311 -0.0363  0.0671
86316W        W61304  17.844  24.486   5.981 -0.0758 -0.1055  0.3203
86317W        W61305  34.679  15.532  16.627 -0.2901  0.0558  0.1980
86318W        W61306  27.007   5.362  16.078 -0.2912  0.2343 -0.0955
86319W        W61307  22.140  12.603  14.834 -0.3040 -0.0623  0.1544
86320W        W61308   7.367   1.153  13.519 -0.0052  0.0046 -0.0123
86321W        W61309  28.634  23.866  24.964  0.3296  0.3981  0.0136
86322W        W61310   9.633  23.821  15.512  0.2547 -0.1050 -0.1654
86323W        W61311  14.092  26.339  25.066 -0.0191 -0.0239  0.0918
86324W        W61312  25.583   6.637  12.643  0.3709 -0.3617 -0.1368
86325W        W61313  24.122  15.680  14.526  0.0323  0.0537  0.1540
86326W        W61314   5.432  25.899   7.452 -0.2741  0.2538 -0.0453
86327W        W61315  25.374   0.751  15.731  0.1048 -0.1903 -0.1996
86328W        W61316  22.298  18.483  22.724  0.1573 -0.3706  0.0805
86329W        W61317   3.340  30.146   2.384  0.2563 -0.0127 -0.3323
86330W        W61318  11.074  31.137   8.783 -0.0153  0.0501  0.0597
86331W        W61319   8.933  18.735  20.176 -0.1397 -0.0372  0.0087
86332W        W61320  17.560  12.830   7.533 -0.2513 -0.1928  0.0080
86333W        W61321  26.014  15.233  12.934 -0.5082  0.5247  0.5095
86334W        W61322   8.849  22.029   7.299  0.1891  0.1528  0.3343
86335W        W61323  10.881  27.298  23.180 -0.0045  0.4241  0.2605
86336W        W61324  12.312  26.916  22.293 -0.0753  0.2505 -0.1810
86337W        W61325  16.384  20.518   5.308  0.2699 -0.0610  0.1346
86338W        W61326  13.636   7.115   8.834  0.3703 -0.1632  0.1796
86339W        W61327  14.034  10.294   2.827 -0.0665 -0.2410 -0.4096
86340W        W61328  19.882  33.655  24.133  0.0167  0.1048  0.2380
86341W        W61329  28.306  24.724   7.424 -0.3342  0.2503 -0.1131
86342W        W61330  24.805  33.184   5.690  0.2413 -0.2262 -0.2340
86343W        W61331   0.447  33.235   1.624 -0.2025  0.0437  0.4083
86344W        W61332  27.152  23.300  10.421  0.0814 -0.1640 -0.3295
86345W        W61333  31.271   5.521  20.035 -0.0259  0.0044 -0.0094
86346W        W61334  25.786   3.937  24.098 -0.0295 -0.0565  0.0693
86347W        W61335  12.279   9.810   6.795  0.2222 -0.0932  0.1450
86348W        W61336  32.068  17.373  12.596  0.2347  0.2311 -0.0652
86349W        W61337  15.934  29.243  25.695 -0.1932 -0.0329  0.2163
86350W        W61338  14.726  31.195   2.373 -0.0831 -0.0597  0.1107
86351W        W61339  15.702  34.852  18.773  0.1007 -0.3003 -0.2989
86352W        W61340   1.200   8.461  25.584  0.0883  0.1370 -0.1522
86353W        W61341   4.498  10.918  16.822  0.0482  0.0628 -0.1650
86354W        W61342  27.174  23.080  17.859  0.3107 -0.2128 -0.1936
86355W        W61343  12.348  10.187   4.755 -0.1200  0.0431 -0.1848
86356W        W61344   3.211  35.312  23.640 -0.4484 -0.0373  0.2267
86357W        W61345  23.195  27.828   5.135  0.0458 -0.1503  0.0057
86358W        W61346  24.277  32.016  21.673  0.0960 -0.1297  0.1553
86359W        W61347  31.113  34.800   5.087  0.1173  0.0182 -0.1272
86360W        W61348   0.277  18.405  23.018 -0.0911 -0.1305 -0.0397
86361W        W61349  35.264   0.675   4.128 -0.1638  0.1841  0.1163
86362W        W61350  30.732   7.108  25.722  0.1227  0.1191  0.0854
86363W        W61351  30.774   8.632  19.011 -0.0170 -0.1656 -0.3757
86364W        W61352  33.160  11.261   0.528 -0.1350  0.0546 -0.3707
86365W        W61353  19.579   5.905  16.717 -0.0038  0.0484  0.0306
86366W        W61354   8.572  13.444   4.130 -0.2040  0.0017 -0.0533
86367W        W61355  33.283  24.362  12.861 -0.0680 -0.0455  0.2058
86368W        W61356  19.567   7.061   8.457  0.0746  0.0148  0.0282
86369W        W61357  34.078  15.476   8.268 -0.1205 -0.2394  0.0801
86370W        W61358  29.544  34.872  19.433 -0.1001  0.0906 -0.0193
86371W        W61359  20.689   1.136   4.752 -0.3960  0.1439  0.2676
86372W        W61360  26.189  28.575   3.180  0.2955  0.0115 -0.0101
86373W        W61361  18.837   2.680   0.009  0.3569  0.1146  0.0207
86374W        W61362   9.998  14.659  21.810  0.3118  0.0670  0.0515
86375W        W61363  25.813  31.473  12.598 -0.3375  0.0221  0.5221
86376W        W61364  34.642  25.978  19.213  0.0178 -0.2079  0.0243
86377W        W61365  31.068  33.725  24.902 -0.1343 -0.2697  0.0452
86378W        W61366   8.487   8.517   3.894 -0.2921  0.0325  0.0608
86379W        W61367   0.527  19.667  18.792 -0.0497  0.0297 -0.1533
86380W        W61368   3.823   2.050   9.535 -0.1553  0.0618 -0.0739
86381W        W61369   8.232  10.307   5.764 -0.1043 -0.1660 -0.0106
86382W        W61370   2.865   6.518  19.826 -0.0031  0.0188  0.0805
86383W        W61371  13.768  16.595   8.105 -0.0303  0.0012 -0.2498
86384W        W61372   7.694  11.862  10.442  0.2381 -0.3858  0.2385
86385W        W61373  17.222   9.567   6.330  0.0471 -0.1479  0.1473
86386W        W61374   5.393  30.385  12.439  0.0964  0.1872 -0.0466
86387W        W61375  13.271   3.159  18.235  0.1314 -0.0151  0.0906
86388W        W61376  31.831  18.552  24.574 -0.0828  0.4660  0.0018
86389W        W61377  13.987  22.664   4.824 -0.1245 -0.1113 -0.3082
86390W        W61378   8.963  17.619  21.695  0.1600 -0.0682  0.2963
86391W        W61379  21.207  19.496   4.218  0.2125 -0.2124 -0.0343
86392W        W61380   0.866  13.713   3.284 -0.0433 -0.0582 -0.0867
86393W        W61381   7.017   2.879  21.163  0.0198 -0.1867  0.0003
86394W        W61382  13.078  29.126   2.173 -0.1815  0.1248 -0.0296
86395W        W61383  27.378   2.980  11.128 -0.2554 -0.0160  0.1364
86396W        W61384  34.691  27.605   3.249  0.2381  0.0763  0.1129
86397W        W61385  16.489  34.676  20.739 -0.2636  0.3743  0.3344
86398W        W61386  23.329   4.056  24.007  0.1549  0.0979 -0.1054
86399W        W61387  24.611  33.770  24.780  0.1904 -0.0176  0.1463
86400W        W61388   5.937   1.500   2.459 -0.0394 -0.0905 -0.1539
86401W        W61389  32.032  12.841  25.651  0.0615 -0.1616 -0.0682
86402W        W61390   2.428   7.823   5.377 -0.0397 -0.0153  0.0204
86403W        W61391   2.597  15.367  24.578  0.3930  0.0289  0.1346
86404W        W61392  33.844  26.438  15.728  0.0040 -0.1277 -0.2327
86405W        W61393   8.872  21.171   1.156  0.0108 -0.1082  0.1559
86406W        W61394  12.470   1.390  11.047  0.3806  0.0815 -0.2293
86407W        W61395  23.326  10.090  18.017 -0.0449 -0.0733 -0.4539
86408W        W61396   6.139  35.238  12.028 -0.0300  0.0571 -0.2003
86409W        W61397  34.314  35.307   5.430  0.2678  0.1173 -0.0699
86410W        W61398  28.862  15.705  21.700 -0.1111  0.2202 -0.2197
86411W        W61399  27.123  28.831   4.421  0.0374 -0.2148 -0.0423
86412W        W61400   2.916  16.847  19.664 -0.0529 -0.0212 -0.0222
86413W        W61401  10.392  28.312  14.536 -0.1736  0.4802 -0.1732
86414W        W61402   8.956   0.878  24.826 -0.2984 -0.0369  0.0418
86415W        W61403  11.497   4.922  10.381  0.1863 -0.0008 -0.2356
86416W        W61404  14.267  17.532   4.605 -0.3778  0.2026  0.1319
86417W        W61405  26.907  27.364  21.209  0.3936  0.0213 -0.3740
86418W        W61406  31.698   1.348  13.136 -0.2067  0.0108  0.3348
86419W        W61407  31.171  16.303  19.644  0.2712 -0.4006 -0.2464
86420W        W61408  16.103  10.682  20.652 -0.2300 -0.1095 -0.0149
86421W        W61409  17.903  21.249   4.923  0.1551 -0.1466  0.2638
86422W        W61410  21.230   8.088  17.362  0.3491  0.0649  0.3011
86423W        W61411   4.690  30.472  11.612 -0.2935 -0.0129  0.1785
86424W        W61412   1.903   9.009  21.050  0.2285 -0.0563  0.3193
86425W        W61413  26.205   3.687  14.907  0.0622 -0.2371  0.1228
86426W        W61414  33.847  12.219   6.373 -0.3054  0.2510  0.2981
86427W        W61415  29.669  10.996  21.638  0.2849 -0.3216  0.4609
86428W        W61416  29.643  30.251  25.761  0.1343 -0.0720  0.1776
86429W        W61417  23.213  15.598  18.880  0.1862 -0.1653  0.3051
86430W        W61418  31.250  27.763  15.151  0.2527  0.2014 -0.3774
86431W        W61419   1.729  16.888  12.023 -0.1767  0.1903  0.1411
86432W        W61420   4.218  22.874  18.569 -0.1755 -0.1229  0.4860
86433W        W61421   5.580  24.099  22.085 -0.0674  0.2624  0.1219
86434W        W61422   5.066  26.120  21.290 -0.1565  0.0177 -0.0335
86435W        W61423  18.122   7.566  12.003 -0.2975 -0.5028 -0.3174
86436W        W61424  16.681  10.959   2.798 -0.0771  0.0979  0.4384
86437W        W61425  24.206  31.588  12.669  0.2097 -0.0335  0.2776
86438W        W61426  14.242  20.113  26.067 -0.4017 -0.2584 -0.2626
86439W        W61427   3.712   2.747  20.506 -0.5081  0.0176 -0.1064
86440W        W61428  14.046  15.016   7.312  0.1715  0.1431  0.0396
86441W        W61429  17.270  34.518   1.208 -0.0894  0.0069  0.0762
86442W        W61430  29.802  12.312   9.381  0.2285  0.1085  0.0932
86443W        W61431   1.563   5.765   1.913  0.0757  0.0983 -0.2057
86444W        W61432  25.370  35.091  13.889 -0.1009 -0.0602 -0.2524
86445W        W61433  26.857  34.197   0.687 -0.0445  0.1196  0.0672
86446W        W61434   9.672  27.248   5.386 -0.2796  0.1420 -0.0984
86447W        W61435   2.729   4.743  23.450 -0.1261 -0.1174 -0.1297
86448W        W61436   2.213  27.980  24.102 -0.1923 -0.0200  0.1984
86449W        W61437  13.209   2.660  13.334  0.0116  0.0057  0.1389
86450W        W61438  25.139   8.624  18.631  0.0018 -0.2146  0.2643
86451W        W61439  14.221  28.191  11.186 -0.1304 -0.3738 -0.0043
86452W        W61440  26.456  23.802  10.990  0.0575 -0.0639  0.0766
86453W        W61441  18.270  17.208   8.108  0.4413 -0.2955 -0.3078
86454W        W61442  17.831  33.400   9.743 -0.3267 -0.3681 -0.1200
86455W        W61443   6.204  29.893   9.835 -0.1974  0.1607  0.0584
86456W        W61444  26.125  30.512  18.558 -0.2443 -0.0591 -0.2868
86457W        W61445  33.140   1.163  20.530 -0.2242 -0.2007 -0.0569
86458W        W61446   2.388   6.570  26.040 -0.3298 -0.2752  0.3609
86459W        W61447  14.343  14.231  25.100  0.2684  0.1754  0.2090
86460W        W61448   0.942  32.635   6.060  0.0760 -0.1623 -0.1534
86461W        W61449   7.039  30.708   6.534  0.2988 -0.1241  0.0167
86462W        W61450  15.795  19.329  12.154 -0.0251  0.1844  0.0432
86463W        W61451  17.039  15.682   1.218 -0.1867 -0.1410  0.1760
86464W        W61452  34.399   1.862  13.643  0.1713 -0.0483 -0.1819
86465W        W61453  21.123  11.913   4.936 -0.0412  0.2315 -0.1603
86466W        W61454   9.966   0.938   8.344  0.0344 -0.0438 -0.1157
86467W        W61455  22.165  26.611  25.247 -0.2662  0.0227  0.0398
86468W        W61456  19.957   4.030  16.432  0.0953 -0.2275  0.2096
86469W        W61457  28.305  33.246  16.885 -0.2819  0.0483 -0.0333
86470W        W61458  14.413  28.570   9.658 -0.2037  0.4022  0.1105
86471W        W61459  19.944  20.623   5.537  0.1004 -0.3033  0.2291
86472W        W61460   3.395   2.114  22.646 -0.2246  0.2886  0.2553
86473W        W61461  13.979  33.515  24.983  0.2651  0.0616 -0.2342
86474W        W61462  15.012  24.530   3.599  0.0695  0.4502 -0.0407
86475W        W61463   4.036  30.046  25.477  0.0567  0.0698  0.1301
86476W        W61464  18.790  14.853   3.443 -0.4040  0.0426 -0.1136
86477W        W61465   4.358  18.902  17.564  0.1612 -0.3530  0.2344
86478W        W61466  24.140   4.131  22.164 -0.2206  0.0148 -0.3801
86479W        W61467   9.906  23.555  11.750  0.2308  0.0882 -0.2347
86480W        W61468  34.362  19.933  24.549 -0.0035  0.0554 -0.0509
86481W        W61469   8.351  32.806   3.526 -0.0304 -0.0166 -0.3530
86482W        W61470   9.844  14.583   2.266  0.1255  0.0337 -0.1229
86483W        W61471  19.590  33.764   4.768  0.1498 -0.0080  0.0506
86484W        W61472  14.351  23.848  10.501  0.1577  0.1136  0.3117
86485W        W61473   9.566  27.676   1.227 -0.0608 -0.0154  0.2951
86486W        W61474   9.391   4.912   8.432  0.1118 -0.1288  0.0113
86487W        W61475  20.667  33.999  21.055  0.2527  0.2894 -0.0109
86488W        W61476  26.373  32.902   1.263  0.0597  0.1202  0.0320
86489W        W61477  23.010   8.366  17.773 -0.3518  0.0919 -0.1852
86490W        W61478  20.091   8.848  26.043  0.1443 -0.1696 -0.0518
86491W        W61479   8.462   9.005  25.809 -0.2129 -0.1119 -0.3417
86492W        W61480  31.172  23.383  14.111  0.0951  0.4139 -0.1355
86493W        W61481  19.380   3.229  17.192 -0.1797 -0.1767  0.1594
86494W        W61482  27.587  10.645   7.363  0.0722 -0.2188  0.1982
86495W        W61483  21.922   7.337   4.798 -0.0158 -0.1597 -0.2352
86496W        W61484  27.388   2.860  24.399 -0.0340 -0.1870  0.0936
86497W        W61485  18.555  26.993   6.841 -0.0693 -0.1026  0.2880
86498W        W61486  30.464  22.675  17.852  0.0980 -0.2743 -0.0266
86499W        W61487  19.557   1.748  18.212  0.3909 -0.0656  0.0929
86500W        W61488  22.912   3.082  18.748  0.0361 -0.0769 -0.0138
86501W        W61489  24.290  28.750   9.119  0.0412  0.0672 -0.3194
86502W        W61490   1.751  20.579  19.059 -0.0932  0.0607 -0.1203
86503W        W61491  24.896  27.039  11.058 -0.1081 -0.4165  0.2039
86504W        W61492  28.933  13.762   6.266  0.3473  0.4428  0.2381
86505W        W61493  17.818  32.431  22.973 -0.0696 -0.1363 -0.1191
86506W        W61494   3.595   2.108   4.882 -0.2185  0.2131 -0.1467
86507W        W61495  17.565  21.717  13.530 -0.0231  0.2667 -0.4174
86508W        W61496  18.657   6.086   1.204 -0.1044  0.0816  0.1239
86509W        W61497   5.619   8.213   2.198  0.0674 -0.1170  0.0425
86510W        W61498   1.323   4.966  25.739  0.2400  0.0261  0.0905
86511W        W61499  29.982   2.402  21.998  0.0540  0.3633  0.0148
86512W        W61500   3.027  33.633   2.347  0.0608  0.0563 -0.3101
86513W        W61501  17.326   5.344  16.638  0.0786 -0.1135  0.0047
86514W        W61502  25.679  15.397  12.133  0.2074 -0.1294 -0.1557
86515W        W61503  23.019  30.885  12.998 -0.0000 -0.3077 -0.0379
86516W        W61504   2.044  15.415  13.383  0.0351  0.0229 -0.3582
86517W        W61505  11.809  15.579  20.514  0.0544  0.0180  0.0843
86518W        W61506  22.976  35.309   1.815 -0.3267  0.3327 -0.1468
86519W        W61507  21.378  10.107   0.160  0.0531 -0.3417  0.0536
86520W        W61508  27.182  22.634   8.770  0.0818 -0.6070  0.1373
86521W        W61509   3.401  30.047  19.357 -0.2646  0.0899 -0.0430
86522W        W61510  26.658  34.860   3.244  0.2278  0.1738 -0.1747
86523W        W61511  34.916  32.288  22.948  0.2247 -0.0811 -0.0303
86524W        W61512  21.296   0.522   1.724  0.0567  0.3880 -0.1386
86525W        W61513  27.654  27.224  21.109  0.2992 -0.0841 -0.0580
86526W        W61514  26.596  35.291  12.634  0.0197  0.0296 -0.1905
86527W        W61515  27.491  10.628  10.656 -0.2370  0.0176  0.0567
86528W        W61516  34.251   0.764  25.676  0.1360 -0.2524 -0.2226
86529W        W61517  27.815   6.507  23.509  0.1049  0.0238 -0.3315
86530W        W61518  14.333  32.167  12.512 -0.3112 -0.1662 -0.0650
86531W        W61519   3.787  16.907   2.339  0.0595 -0.2082  0.2376
86532W        W61520  34.737  17.415  24.365 -0.0679 -0.0930  0.1499
86533W        W61521  14.067  26.473  21.651 -0.0533 -0.1878  0.0517
86534W        W61522  19.894   5.452   9.203  0.0207 -0.1342 -0.3259
86535W        W61523  29.270   4.848  20.548 -0.2191 -0.1926 -0.0521
86536W        W61524   8.629  26.806  14.876  0.2661  0.0150  0.2307
86537W        W61525  11.437  32.640  11.758  0.0902 -0.1719  0.2920
86538W        W61526  20.148  16.766  17.930  0.1936 -0.1250 -0.0703
86539W        W61527  32.151  10.229  15.933 -0.0876 -0.0498  0.1693
86540W        W61528   6.685  31.477  22.793 -0.0317  0.3571 -0.1957
86541W        W61529  19.735   1.107   4.428 -0.1543 -0.3805  0.1547
86542W        W61530  33.066  16.401  23.794  0.1286 -0.0315 -0.1443
86543W        W61531  29.447   7.490  26.249 -0.3891  0.2599 -0.0521
86544W        W61532  15.160  19.494   5.541 -0.2231 -0.4080  0.2688
86545W        W61533  13.214  28.335   7.994 -0.0276  0.0673 -0.1994
86546W        W61534  20.487  27.956   2.327  0.0740 -0.0193 -0.1134
86547W        W61535  33.992  26.837  19.996 -0.3668  0.1154 -0.0912
86548W        W61536  11.317   0.940   7.831 -0.0665  0.0619 -0.0029
86549W        W61537  33.235  24.592   9.845  0.1599  0.1612 -0.2885
86550W        W61538  28.616  35.265   2.509  0.0393 -0.2571 -0.2649
86551W        W61539   0.890  25.910   6.140  0.1022  0.2868 -0.2883
86552W        W61540   1.088   5.725  24.974 -0.0202  0.6847 -0.1353
86553W        W61541   9.370  34.434  23.033 -0.0080 -0.0536 -0.0803
86554W        W61542   5.997  19.713  20.779 -0.0247  0.1689 -0.0175
86555W        W61543  35.376   7.698   2.102 -0.0295  0.1519 -0.3126
86556W        W61544  33.608  33.500   3.204 -0.1529 -0.6535 -0.1158
86557W        W61545  21.006  32.328   1.780  0.0036 -0.0148  0.1467
86558W        W61546   9.584  20.540  22.043 -0.0553 -0.2670 -0.2744
86559W        W61547  25.540  26.630  15.526  0.3304 -0.1276 -0.3521
86560W        W61548  17.044   4.787   7.151  0.0262 -0.0478  0.1534
86561W        W61549   6.826  29.060   9.819 -0.0840 -0.0253 -0.0054
86562W        W61550  26.104  24.289  10.479  0.1511 -0.0731 -0.3153
86563W        W61551  32.885  10.050  21.021  0.0688  0.0666 -0.0988
86564W        W61552  33.393  15.972  19.086  0.0295 -0.1862  0.1606
86565W        W61553  16.615  33.374   9.702 -0.1831 -0.0668  0.3405
86566W        W61554  16.424  24.416  25.662 -0.2236  0.0820 -0.0000
86567W        W61555  34.912  10.183  12.992 -0.1259  0.1701 -0.2827
86568W        W61556  17.718   9.278  22.161  0.1181  0.2672 -0.0886
86569W        W61557   1.288  19.431  11.534  0.2061 -0.1128 -0.0286
86570W        W61558  13.950  13.813   4.525 -0.2102  0.2020  0.3300
86571W        W61559  23.181  27.559  16.804  0.0844  0.0712  0.2575
86572W        W61560  34.708  19.675  25.201 -0.2409  0.2150  0.0770
86573W        W61561  11.659  30.862   3.612 -0.0016  0.2165 -0.2428
86574W        W61562  29.921   6.435  10.721  0.0128 -0.0827 -0.2337
86575W        W61563   0.006  31.060  20.069 -0.1951 -0.1148 -0.0422
86576W        W61564  26.244  23.969   6.622 -0.0581  0.1260  0.1851
86577W        W61565  27.118  25.017  15.834 -0.1795  0.0577  0.2130
86578W        W61566  11.903  30.476  10.203 -0.0838 -0.0324 -0.1168
86579W        W61567  17.412   6.038   8.437  0.2889 -0.2409  0.1023
86580W        W61568  15.148  32.515  21.587  0.0184 -0.4402 -0.0504
86581W        W61569  27.784  33.961  15.039  0.0110  0.0055  0.0505
86582W        W61570  27.776   0.007  12.783 -0.0593  0.1416  0.3143
86583W        W61571   9.202   7.231  23.947 -0.1177 -0.2778  0.0260
86584W        W61572  32.301   0.783  25.994 -0.2817 -0.2563 -0.1704
86585W        W61573  24.496  28.169  19.666  0.1774  0.2183 -0.1188
86586W        W61574  13.141  19.362   7.700 -0.6853 -0.3021  0.1355
86587W        W61575  31.465   4.080  16.534 -0.2656 -0.1022  0.0383
86588W        W61576  27.334  17.059  16.802 -0.1034 -0.0023 -0.1719
86589W        W61577   7.904   7.617   4.604 -0.0602  0.1447 -0.1708
86590W        W61578  11.371  12.231  10.904 -0.3464  0.3391  0.1520
86591W        W61579  30.574  10.239  20.534 -0.0306 -0.1783  0.3190
86592W        W61580  11.873  20.094   7.448 -0.2398 -0.0952 -0.0060
86593W        W61581   6.155  31.431   5.437 -0.0243  0.0116 -0.2094
86594W        W61582  14.941  32.683   9.962  0.2690  0.1014 -0.0460
86595W        W61583  17.446  11.513  12.197 -0.0537  0.1351 -0.0071
86596W        W61584  14.814  25.907  11.455 -0.1204  0.1351  0.1549
86597W        W61585  16.596  20.602   1.512 -0.1262 -0.0732 -0.1976
86598W        W61586  31.342   2.965  11.526  0.2045  0.0493  0.2041
86599W        W61587  19.382  28.468  20.678  0.3502  0.0746 -0.0599
86600W        W61588  31.102  11.690  12.495  0.1834 -0.0752 -0.0125
86601W        W61589   6.508  31.842   0.783  0.0038 -0.0707 -0.0761
86602W        W61590   2.895  34.041  19.010  0.0582  0.1648 -0.0839
86603W        W61591  17.177  29.016  24.168  0.1290 -0.0442  0.1601
86604W        W61592  14.893  18.578  25.372  0.3183 -0.2283  0.2467
86605W        W61593  26.592   5.977  14.987 -0.2532 -0.2813 -0.2021
86606W        W61594  16.404  10.176   3.820  0.0115 -0.5081 -0.0255
86607W        W61595  16.765  21.137  22.119  0.2101 -0.2831  0.2636
86608W        W61596  10.385  33.540   5.047 -0.1703  0.0011 -0.1619
86609W        W61597  27.674  33.554  18.245 -0.1734  0.1537  0.0308
86610W        W61598  24.203  31.113  17.427  0.2811 -0.3819 -0.0747
86611W        W61599  23.196  12.493  25.342  0.1458 -0.0178  0.1282
86612W        W61600   6.330   5.068  25.229 -0.1761 -0.4330 -0.0961
86613W        W61601  19.746  18.202   5.924 -0.0496 -0.0723 -0.0906
86614W        W61602  30.038   6.553   8.535  0.0747 -0.1575  0.2710
86615W        W61603   7.109   0.056   5.935  0.0524  0.1642 -0.0600
86616W        W61604   6.957   4.180   9.990  0.2075 -0.0685 -0.1984
86617W        W61605  11.333  21.930   4.924 -0.4814  0.1980 -0.0186
86618W        W61606  29.739  14.199   8.317 -0.0237 -0.2209 -0.0651
86619W        W61607  24.995   5.749  13.454  0.1832  0.1238  0.2299
86620W        W61608   7.207   5.724   7.317 -0.1296  0.0667  0.3480
86621W        W61609  14.560  26.066   6.947  0.0482 -0.2329 -0.1546
86622W        W61610   9.111  27.839   2.639  0.0706  0.0007 -0.0322
86623W        W61611  20.768   2.290   8.335  0.0006 -0.3320  0.5353
86624W        W61612  28.721  12.017  19.784 -0.0499 -0.1694 -0.0423
86625W        W61613  31.439   4.557   0.431  0.0206  0.2513  0.1676
86626W        W61614  23.772  25.207  12.799  0.2558  0.0060  0.2732
86627W        W61615  12.689  18.191   5.711 -0.2631 -0.0260  0.0158
86628W        W61616   6.770  25.990   2.171 -0.0837  0.2215 -0.2933
86629W        W61617  31.305   4.257  25.976 -0.0152 -0.0733  0.1269
86630W        W61618  22.417  17.262   2.628  0.1854 -0.4660  0.0822
86631W        W61619  12.382  17.530   8.756 -0.2615  0.0608  0.1176
86632W        W61620  18.932  19.405  24.970 -0.1679  0.1661 -0.2081
86633W        W61621   9.370  15.865  11.392  0.1038 -0.1251 -0.0004
86634W        W61622  12.777  14.845   9.969 -0.1048  0.2718  0.2460
86635W        W61623  16.530  19.166  19.513  0.0312  0.1718  0.2350
86636W        W61624  21.269   3.451  23.921 -0.0018  0.2689 -0.2442
86637W        W61625  13.180   3.810  22.648  0.0817  0.4145 -0.1868
86638W        W61626  18.957  11.874   7.941 -0.2378 -0.0490  0.4368
86639W        W61627   3.110  27.625   7.253  0.3110  0.0436 -0.2747
86640W        W61628  28.909  20.740  10.704  0.0223  0.1319 -0.1313
86641W        W61629  27.415  29.393  14.183  0.0464 -0.0816 -0.0252
86642W        W61630   0.285  14.451  13.528  0.1220  0.1241 -0.2205
86643W        W61631  32.106  21.864  22.604 -0.1465 -0.0509 -0.1571
86644W        W61632  14.210  21.180  13.575  0.0586  0.0085  0.1658
86645W        W61633  13.808  27.608  16.494  0.0741  0.1632 -0.2710
86646W        W61634   4.899   3.192  11.960 -0.1347  0.0699  0.0720
86647W        W61635  34.349  12.122  15.499  0.0404 -0.2045  0.0633
86648W        W61636   9.102  30.917   1.775  0.0237  0.2338  0.3550
86649W        W61637  26.191  14.779  21.625  0.3271 -0.2545  0.0964
86650W        W61638  22.208  26.933  19.538  0.1783 -0.2262  0.4642
86651W        W61639   2.345   1.208   2.228 -0.0248  0.1503  0.2587
86652W        W61640   9.716  10.163   3.537  0.1087 -0.1076  0.4563
86653W        W61641  26.713   0.929   0.246  0.1440 -0.3143 -0.0813
86654W        W61642  18.891   5.360  24.390 -0.3795 -0.1581 -0.1247
86655W        W61643  13.273   4.789  18.909  0.2142 -0.0211 -0.2172
86656W        W61644  24.956   3.476   0.750 -0.0282  0.3233 -0.0896
86657W        W61645  15.133  35.331  19.809 -0.1213 -0.2278 -0.0209
86658W        W61646  10.297  25.007  13.557  0.0127  0.0261  0.1171
86659W        W61647   8.505  12.103  22.939  0.1847  0.0631 -0.0670
86660W        W61648  10.855   3.802   5.918  0.1645 -0.0654 -0.1764
86661W        W61649   7.832  22.707   9.415  0.1486 -0.3227 -0.3401
86662W        W61650  21.856  13.783  22.321  0.0027  0.1004 -0.1529
86663W        W61651  13.870  18.840   1.394 -0.1023  0.0854  0.0114
86664W        W61652  27.870  31.569  21.458  0.1490  0.1556 -0.0182
86665W        W61653  31.050  24.277  22.637 -0.1278 -0.3408  0.1541
86666W        W61654  15.905   6.427   6.619 -0.3051  0.0089  0.1374
86667W        W61655   7.109  16.551  18.986  0.0407 -0.0278  0.2095
86668W        W61656  25.902  28.176  19.830 -0.1515  0.2516  0.0250
86669W        W61657  21.153  27.956  24.940  0.0758 -0.2085  0.0843
86670W        W61658  13.476  11.844  19.916 -0.0744 -0.2058  0.2348
86671W        W61659  30.219  11.971  21.692  0.0707  0.0252 -0.1219
86672W        W61660  10.157  19.559  10.884 -0.0934  0.2448  0.1506
86673W        W61661   4.486  16.185   0.867  0.1835 -0.0536 -0.1694
86674W        W61662  17.320  25.410  25.578 -0.0381 -0.1114  0.0501
86675W        W61663  25.626  10.055  17.243 -0.0997 -0.0817 -0.0082
86676W        W61664  28.847  22.454  17.451  0.0594  0.0328 -0.2621
86677W        W61665  30.444  33.133   1.608 -0.1777 -0.0673  0.1721
86678W        W61666  35.301   4.710  18.348 -0.3008 -0.0495 -0.3127
86679W        W61667  29.229   1.820  20.270 -0.0327 -0.1164  0.1643
86680W        W61668   0.153  21.927  16.662 -0.2235  0.0255 -0.2253
86681W        W61669   0.855  31.482  16.190 -0.0091 -0.1832 -0.1541
86682W        W61670  23.318  27.859  22.099  0.1656 -0.0950 -0.1673
86683W        W61671   4.769   1.205   4.902  0.3036  0.1103 -0.0177
86684W        W61672  34.423  11.726  11.020 -0.0924 -0.0762 -0.2046
86685W        W61673  29.874  11.750  21.246 -0.1516 -0.0520  0.2700
86686W        W61674  11.973  30.031   9.921  0.2394  0.1814  0.1381
86687W        W61675  20.632   0.777   4.013 -0.5475  0.0139 -0.0475
86688W        W61676   0.537  11.879  25.417 -0.1097 -0.1061 -0.2617
86689W        W61677   8.535  10.499   1.321 -0.1098 -0.0655 -0.2552
86690W        W61678   5.839  24.621   4.371 -0.3602  0.0684  0.1549
86691W        W61679  30.275  10.678   8.583 -0.0928  0.1493  0.1928
86692W        W61680  30.305  19.856  11.540  0.0617  0.1427 -0.0867
86693W        W61681   9.177  15.434   7.143 -0.0378  0.0045  0.1253
86694W        W61682  10.506  12.258   8.944  0.1802  0.1459  0.3068
86695W        W61683  30.542  13.845  25.002  0.1731  0.4049 -0.1119
86696W        W61684  17.384  26.232   4.332 -0.2860  0.0084 -0.1522
86697W        W61685   6.406  14.018   1.784 -0.2302 -0.0478  0.0258
86698W        W61686  24.401   4.325   0.674 -0.0790 -0.0596  0.1125
86699W        W61687   1.357  25.416   2.965  0.2438  0.0466 -0.0999
86700W        W61688   4.737  34.201  22.291  0.3197  0.1269 -0.0224
86701W        W61689  20.417  26.827   7.394  0.2247  0.2894  0.2338
86702W        W61690  31.979  20.036  16.062  0.0859 -0.1313 -0.1228
86703W        W61691  19.267  20.804   6.793 -0.2201  0.1327 -0.3015
86704W        W61692  28.846  30.881  15.576  0.1130  0.3218 -0.0273
86705W        W61693  13.173  21.843  11.955  0.0533 -0.0939 -0.4182
86706W        W61694  33.013  27.484  12.332 -0.1624 -0.2311 -0.3630
86707W        W61695  28.024  11.945  23.971 -0.2865 -0.2546 -0.1162
86708W        W61696   8.359  26.335  25.941 -0.1266  0.0286 -0.2733
86709W        W61697  21.884   7.226  14.793  0.0923  0.0897 -0.4078
86710W        W61698  10.027   8.989   7.108  0.2040 -0.1031  0.0897
86711W        W61699   5.757   2.616   6.404 -0.0296  0.1042  0.1032
86712W        W61700  25.072  33.312   6.134  0.3674  0.1565  0.1137
86713W        W61701  34.251  23.241  20.189  0.2089 -0.1667 -0.0160
86714W        W61702  33.299  11.741  24.463 -0.1208 -0.1818  0.0281
86715W        W61703  31.857   1.823  23.571 -0.6311 -0.0797 -0.3779
86716W        W61704  33.850   9.998  16.189 -0.0058  0.1706  0.1047
86717W        W61705  34.240  24.997  14.314 -0.0084 -0.1439 -0.2872
86718W        W61706  10.730   3.723  10.813 -0.0870  0.1104 -0.0084
86719W        W61707   3.140  20.459   0.357 -0.0165 -0.0236 -0.3617
86720W        W61708   5.900   7.685   4.018  0.2820 -0.0755  0.1065
86721W        W61709   6.422   6.056   1.010 -0.0120  0.0203 -0.1159
86722W        W61710  22.121   2.748  14.462  0.1800 -0.5827  0.2331
86723W        W61711   9.582  33.025  15.415 -0.0559 -0.0454 -0.2667
86724W        W61712  22.125  10.889  14.252 -0.0400  0.0874  0.0465
86725W        W61713  14.525   6.560  23.581 -0.0447  0.1610 -0.1099
86726W        W61714   6.580   2.755  14.267 -0.1530  0.0623 -0.0719
86727W        W61715  21.918  16.571  21.922 -0.0060  0.0505  0.2448
86728W        W61716  20.103  33.041   5.820  0.0374  0.0820  0.3119
86729W        W61717   5.928  18.190  22.752 -0.0772 -0.2980 -0.0393
86730W        W61718  14.434  17.060   6.673  0.0264  0.1025  0.0250
86731W        W61719  17.882   7.468  22.144 -0.2836  0.0709  0.1697
86732W        W61720  15.124   8.372   2.840  0.2430  0.2918  0.3039
86733W        W61721  33.014  20.610  23.727 -0.0603  0.0310  0.0363
86734W        W61722   0.656  29.262   2.472 -0.0680  0.2744  0.2482
86735W        W61723  25.469  25.131  18.682  0.2218 -0.0370 -0.0049
86736W        W61724  13.301  16.924  20.392 -0.3830  0.3711 -0.1776
86737W        W61725  19.888   4.517  24.520 -0.3681 -0.0817 -0.1910
86738W        W61726  31.865  25.476  12.302 -0.0944 -0.1552 -0.0637
86739W        W61727  21.305  10.310  24.886 -0.1185 -0.0012 -0.1172
86740W        W61728  30.558  19.555  16.399 -0.1197 -0.2790  0.1264
86741W        W61729   0.755  19.208  20.181 -0.1192 -0.3809  0.0657
86742W        W61730  33.889  10.611  19.644 -0.0728  0.0659  0.2264
86743W        W61731   1.800  11.487  13.067  0.2350  0.1458  0.0635
86744W        W61732  14.501  13.274   4.198 -0.0094 -0.2866 -0.0210
86745W        W61733   9.980  26.044  10.724  0.0777  0.0959  0.1469
86746W        W61734  35.048  14.045  21.525 -0.0705 -0.0197 -0.1772
86747W        W61735   1.492  26.548  18.945  0.2785 -0.1959  0.1143
86748W        W61736   7.501  12.123   2.721 -0.3005 -0.2552 -0.2550
86749W        W61737  20.985   4.776   3.468 -0.0496 -0.2452 -0.0381
86750W        W61738  20.886  23.990  25.855 -0.0055  0.0925 -0.2369
86751W        W61739   6.333   6.650   0.869 -0.1134 -0.0360  0.2589
86752W        W61740   8.898   7.585   8.903 -0.3564 -0.2571 -0.0596
86753W        W61741   1.577  30.289  23.187 -0.1312  0.1847 -0.0487
86754W        W61742   1.149  28.487  23.763  0.1214 -0.0986 -0.3039
86755W        W61743  32.409  12.260  21.954  0.3181  0.1480  0.0084
86756W        W61744   2.053  30.726   6.541 -0.0146 -0.0469 -0.0746
86757W        W61745   4.540   0.722   5.763 -0.0936 -0.0399 -0.1975
86758W        W61746   2.529  29.094  20.309 -0.0713 -0.1863 -0.2783
86759W        W61747   9.515  14.833  18.615  0.2000  0.3658 -0.2850
86760W        W61748   1.231  17.507  14.979  0.0897 -0.2166  0.2828
86761W        W61749   8.609  31.586  23.737  0.1461  0.3857 -0.1271
86762W        W61750   4.358  10.537   4.455 -0.1241  0.0916  0.0032
86763W        W61751  16.089  22.037   0.567 -0.1285  0.2371  0.0588
86764W        W61752  11.135   7.417  12.560 -0.2727 -0.1496 -0.0982
86765W        W61753  15.007  12.948  26.206 -0.0162 -0.1540  0.0842
86766W        W61754  21.307  21.586  19.468  0.1104  0.0627  0.0367
86767W        W61755  23.544  12.061  13.655  0.0886  0.5127 -0.0581
86768W        W61756  24.961  15.076  11.931  0.1139  0.1401  0.1218
86769W        W61757   9.718   9.301  25.325 -0.1885  0.5031  0.2567
86770W        W61758  25.696  10.235  14.561 -0.3266  0.2097  0.1385
86771W        W61759  32.969  30.856  14.867 -0.3739 -0.3217  0.0593
86772W        W61760  28.071   4.120  13.126  0.0361  0.2066  0.0056
86773W        W61761  15.341   4.841   5.030  0.0447  0.1908  0.0586
86774W        W61762   2.651   0.041  25.533  0.1496  0.0714 -0.0802
86775W        W61763   7.039  15.212  17.127 -0.1075  0.0254  0.0714
86776W        W61764   3.869  10.255  24.164 -0.1831  0.0675 -0.2614
86777W        W61765  27.694   9.264  12.952  0.0042  0.1911 -0.2904
86778W        W61766  22.464  25.630  17.385  0.0180  0.0068 -0.0344
86779W        W61767   6.682  12.326  18.538 -0.0787 -0.1147 -0.0299
86780W        W61768  16.226   2.399  23.577  0.1138  0.1495 -0.1246
86781W        W61769  26.974  28.848  20.351 -0.3112 -0.3012 -0.0984
86782W        W61770  18.208  22.328   4.221  0.3489  0.0404 -0.1055
86783W        W61771  14.304   7.875   6.621 -0.1877  0.0824 -0.0982
86784W        W61772  21.783  25.173   2.826  0.0039 -0.0312  0.1613
86785W        W61773  16.974  26.045  21.141 -0.2341 -0.1450  0.3143
86786W        W61774   4.309   7.168   2.345 -0.1809  0.0311  0.0084
86787W        W61775  24.278  28.349  24.187  0.1425 -0.1272  0.0721
86788W        W61776   0.961  31.616   9.096 -0.1427 -0.1053  0.3340
86789W        W61777   0.284  33.528   6.789 -0.3072 -0.3026 -0.1818
86790W        W61778  11.117  11.269  12.083  0.0145  0.0353 -0.0863
86791W        W61779  29.295  33.544  23.614  0.1439  0.1828  0.2539
86792W        W61780  28.076  33.785  19.192 -0.1022 -0.1406  0.0589
86793W        W61781  23.731  21.860  14.281 -0.0338  0.1478 -0.1090
86794W        W61782  30.163   3.883   2.814 -0.4383 -0.0498  0.4031
86795W        W61783  31.339  11.373  13.971 -0.0725 -0.1705 -0.1443
86796W        W61784  33.749  28.796  20.885  0.1501 -0.1612  0.3970
86797W        W61785  11.556   0.076  11.557  0.0836  0.0379 -0.2352
86798W        W61786  21.396  10.186  20.445 -0.0209  0.1666 -0.2657
86799W        W61787   5.722   2.121   6.412  0.3711 -0.0619 -0.0927
86800W        W61788   5.729  16.313  23.190 -0.0311  0.0493 -0.2674
86801W        W61789  28.022   4.204   3.295  0.2074 -0.0852 -0.1832
86802W        W61790  24.518  25.049  16.181 -0.3605  0.1064 -0.0992
86803W        W61791  33.486  16.860  21.426 -0.1648 -0.2833  0.0161
86804W        W61792  30.561  32.640  13.787  0.1184 -0.0006  0.0500
86805W        W61793  21.485  10.301  21.690 -0.2362  0.0561  0.1823
86806W        W61794   6.696   4.754   4.193  0.1274  0.0653  0.1437
86807W        W61795  14.414  30.842   9.483 -0.1686  0.0061  0.1308
86808W        W61796  29.130  28.025  20.334 -0.0470 -0.0569 -0.0387
86809W        W61797  17.975  29.784   7.872 -0.1118 -0.0976  0.3219
86810W        W61798   5.454  11.813   3.308  0.0922 -0.1891 -0.0449
86811W        W61799  28.160  22.809  18.829  0.2611 -0.0778  0.3243
86812W        W61800   0.984  14.964  17.191  0.1499  0.3398 -0.1773
86813W        W61801  14.341  30.598   1.187  0.1756 -0.3014 -0.2448
86814W        W61802  31.284  32.824   2.300  0.1170  0.1882 -0.0703
86815W        W61803  35.277  22.309   8.182 -0.0103 -0.1920  0.0821
86816W        W61804  33.642  20.623  19.629 -0.2058 -0.1778 -0.1366
86817W        W61805  27.988   0.652  15.482  0.0627 -0.1397 -0.2222
86818W        W61806  13.482  12.706   5.637 -0.0668  0.5057  0.3158
86819W        W61807  22.430  32.457  21.225 -0.1608  0.2543 -0.0979
86820W        W61808   1.528  13.837  13.995 -0.4919 -0.0729  0.4194
86821W        W61809  30.722  29.623  12.100 -0.0105 -0.0488 -0.0592
86822W        W61810  25.335  15.490  20.144 -0.3846  0.0739  0.3242
86823W        W61811  28.076  35.123   5.925  0.0667 -0.0314  0.0844
86824W        W61812   6.540  14.990   7.680 -0.1923  0.0161 -0.1168
86825W        W61813  33.976  32.783   4.135  0.1620 -0.0294 -0.1464
86826W        W61814  33.443  30.758  14.269  0.1072  0.1932  0.0480
86827W        W61815   4.916  21.767  25.190  0.2020  0.2510 -0.0992
86828W        W61816  20.479   0.752  15.459  0.2407  0.2182 -0.0963
86829W        W61817  32.797  13.034  11.920  0.1387  0.3715 -0.0086
86830W        W61818  13.460  32.970  13.423  0.2810 -0.1080  0.2060
86831W        W61819   9.214  12.202   7.253 -0.0876 -0.2097 -0.2269
86832W        W61820   3.436   4.410   5.972 -0.4296 -0.4567  0.1004
86833W        W61821  12.124  18.714   6.559 -0.1113 -0.5137 -0.1870
86834W        W61822  17.264  15.017  19.813 -0.1446 -0.1821  0.1616
86835W        W61823   0.499   9.879  21.166  0.0253 -0.1576 -0.0131
86836W        W61824  11.114  22.514  17.329 -0.0268 -0.0452  0.0245
86837W        W61825  11.587  10.576  23.279  0.1171 -0.1470 -0.1485
86838W        W61826   3.901   9.263   0.766  0.1226 -0.0632 -0.2532
86839W        W61827  31.367  32.650  17.913  0.1611 -0.1749 -0.2671
86840W        W61828   4.357  17.850   0.629  0.0616  0.2375  0.0854
86841W        W61829  32.630  18.677   5.181 -0.0452  0.0665 -0.1946
86842W        W61830  21.141  34.848  14.613 -0.1708 -0.3170 -0.1597
86843W        W61831  24.529   9.727  15.777  0.0116 -0.4012 -0.0203
86844W        W61832   1.262   7.122  14.672  0.0253  0.1073 -0.2835
86845W        W61833  21.044   5.871   0.656  0.2316  0.2287  0.2450
86846W        W61834  29.914  29.188  13.061 -0.0057  0.1213 -0.1941
86847W        W61835  30.450  17.428  23.584 -0.1227  0.0661  0.1463
86848W        W61836  23.734  27.303  19.427 -0.0182  0.1793 -0.0529
86849W        W61837   4.832  34.593   0.356 -0.3787 -0.3018 -0.0713
86850W        W61838   2.825  35.261   4.642  0.0368 -0.2519  0.0450
86851W        W61839  33.272   7.285   1.971 -0.0739  0.0336 -0.0862
86852W        W61840  13.134  29.261  13.150 -0.2057 -0.0589 -0.1256
86853W        W61841  14.147  21.537   9.559  0.0698 -0.2262  0.1273
86854W        W61842  14.289  30.584  11.835  0.0364  0.0093  0.1148
86855W        W61843   6.791   8.909   9.004  0.0219 -0.1645  0.1925
86856W        W61844  25.677  14.143  12.592  0.2823 -0.2565  0.1940
86857W        W61845  11.990  23.495  17.703  0.0056  0.3025 -0.6237
86858W        W61846  21.769  15.199  16.119 -0.0657  0.1693 -0.3184
86859W        W61847  31.150  34.665   2.716 -0.2373 -0.1487  0.2560
86860W        W61848  24.491  19.037  15.564  0.2168  0.1925 -0.1108
86861W        W61849  28.132  17.853  13.854  0.1440  0.2410  0.0418
86862W        W61850  34.912  17.710  11.090  0.0547  0.0747 -0.1131
86863W        W61851   0.635  26.300   5.747  0.2957 -0.1642 -0.1609
86864W        W61852   0.761  11.132  21.953 -0.0579  0.1424  0.1460
86865W        W61853  13.973  18.020   5.507  0.0483 -0.2403 -0.1040
86866W        W61854  20.867  32.629  20.538  0.2033 -0.2091  0.0062
86867W        W61855  11.150  33.300   2.112 -0.0276  0.0238  0.1028
86868W        W61856  10.854  34.726   3.499 -0.3700  0.1222 -0.0698
86869W        W61857   0.320  25.748  20.878 -0.0730 -0.4066  0.1482
86870W        W61858  25.514  18.899   7.992  0.2661 -0.0948 -0.1236
86871W        W61859   5.286  32.557  19.505 -0.0039 -0.1408 -0.0876
86872W        W61860  31.327   5.617   0.648 -0.3592 -0.1554 -0.2588
86873W        W61861   6.445  26.344   6.550 -0.0385 -0.0885  0.2964
86874W        W61862  30.498  20.454  16.727 -0.1323 -0.1734  0.1874
86875W        W61863  25.096  23.227   9.056  0.0380  0.1279 -0.1100
86876W        W61864   1.677   4.255  24.856  0.2363  0.0725 -0.1158
86877W        W61865  34.151   9.301  23.836 -0.2381  0.0587 -0.2373
86878W        W61866  25.723   5.286  22.264  0.1086  0.1430  0.3232
86879W        W61867  17.793  22.558   8.942  0.3989 -0.0293 -0.1406
86880W        W61868  18.305  24.552  24.078  0.1193 -0.0455 -0.0840
86881W        W61869  21.326   2.875   4.022  0.1951 -0.0020  0.0477
86882W        W61870   5.325  15.969  24.952  0.0056  0.2109  0.0696
86883W        W61871   0.672  16.642   0.554 -0.1848  0.1870  0.1165
86884W        W61872   2.578  35.220  26.125 -0.1258  0.0652  0.1997
86885W        W61873   8.106  12.992  23.311  0.1817 -0.0125 -0.2195
86886W        W61874  27.806   3.267  22.954  0.0956  0.0851  0.1411
86887W        W61875   3.582  35.121  24.597  0.0012 -0.0199 -0.1251
86888W        W61876   1.662  16.326  20.140  0.1451  0.1237  0.2401
86889W        W61877   5.912  10.977  18.471 -0.2297 -0.0729  0.2175
86890W        W61878  10.783  15.613   3.127 -0.3378 -0.1037 -0.3586
86891W        W61879   7.896   6.228  22.047 -0.1415 -0.1177 -0.1511
86892W        W61880  14.474  14.659  18.536 -0.1086 -0.4060  0.1191
86893W        W61881   5.792  31.573  11.517  0.2786  0.2799 -0.0054
86894W        W61882   7.302   6.525   7.346  0.2436 -0.0982 -0.1584
86895W        W61883   0.135   5.383   5.873 -0.0349  0.3736  0.0104
86896W        W61884  13.716   1.618  23.188 -0.0817 -0.1758 -0.2095
86897W        W61885   0.607   1.974  15.396  0.2210 -0.1809 -0.0820
86898W        W61886  29.182  26.113   1.593 -0.0978  0.0270 -0.1292
86899W        W61887  33.896   0.012  22.827  0.3506 -0.0040 -0.1009
86900W        W61888  31.729  26.570  20.989 -0.0461 -0.1164 -0.0880
86901W        W61889   2.063   8.477   4.651 -0.0222  0.2335  0.0339
86902W        W61890  20.096  29.318  20.783  0.0562 -0.2830  0.2134
86903W        W61891  28.154   1.253  20.231  0.0261 -0.1633  0.1460
86904W        W61892  35.302  13.290  13.155  0.3252  0.4069  0.0041
86905W        W61893  25.246  28.751  17.360  0.0361 -0.0376  0.2404
86906W        W61894  27.922   0.644  26.057 -0.0552 -0.0696 -0.0804
86907W        W61895   4.710  25.571  22.863  0.0081  0.1649 -0.0692
86908W        W61896  22.344  11.626  19.569  0.0411  0.1456 -0.1536
86909W        W61897   6.597  35.308  13.516 -0.0288 -0.1461 -0.1899
86910W        W61898  14.967  32.021   0.147  0.0636 -0.0543  0.0708
86911W        W61899  19.405  20.376  25.836 -0.1265 -0.3325 -0.1521
86912W        W61900   3.007  15.985  17.274 -0.0667  0.0646  0.4945
86913W        W61901  17.164   6.649   9.360  0.1418  0.3075  0.0058
86914W        W61902  15.062   3.517   6.886  0.1244  0.0745 -0.1396
86915W        W61903  32.542   8.585   0.747 -0.0221  0.0138  0.1320
86916W        W61904   7.327  19.162   4.404 -0.2398 -0.0374  0.0261
86917W        W61905  27.568   1.632  17.478 -0.0611 -0.0429 -0.0960
86918W        W61906  34.528  28.558  24.537 -0.0052 -0.1937 -0.3020
86919W        W61907   0.662  11.456   0.568  0.0643  0.3200 -0.3649
86920W        W61908  26.293  22.946  18.420  0.3186  0.3584 -0.0087
86921W        W61909  21.088  33.224  23.627 -0.1635  0.1745 -0.0601
86922W        W61910  12.449  14.441   1.552 -0.2033  0.0471 -0.0840
86923W        W61911  23.272   6.015  19.163 -0.0336 -0.2747 -0.1373
86924W        W61912  33.873  15.922   6.099  0.1691  0.1320 -0.4299
86925W        W61913  24.484   3.340   1.891 -0.1808 -0.0476 -0.0014
86926W        W61914  14.691  29.090  21.351 -0.1936  0.0175  0.0450
86927W        W61915  13.184  14.150  12.114 -0.0037  0.0476  0.0645
86928W        W61916  21.791  28.556  15.846  0.1438  0.1803  0.1005
86929W        W61917   7.737   7.953   7.190 -0.1308  0.1408 -0.0940
86930W        W61918  34.640  31.463  16.252  0.5644 -0.2813 -0.0785
86931W        W61919   0.872  24.928  26.131  0.0313 -0.0902 -0.1491
86932W        W61920  31.480  32.398  16.448 -0.0917  0.1067  0.1733
86933W        W61921  24.314  29.321  14.464 -0.1037  0.0526 -0.0334
86934W        W61922  10.317  33.966  14.293  0.2096  0.1211 -0.0085
86935W        W61923  24.184  29.641   3.675 -0.1455 -0.0398 -0.3235
86936W        W61924  33.533  18.683   1.094  0.3412 -0.0788  0.0313
86937W        W61925   4.057  19.146  20.766 -0.2855  0.4686 -0.1400
86938W        W61926  18.694  14.258   4.780  0.1309  0.0155  0.1164
86939W        W61927  19.730   3.383   6.146  0.0165 -0.3865 -0.0410
86940W        W61928  26.574  14.261  17.878 -0.5441  0.0097 -0.1321
86941W        W61929  14.454  11.074   8.322  0.1874  0.4699  0.0451
86942W        W61930  18.994  33.404   7.266 -0.0445 -0.1629  0.0862
86943W        W61931  23.971  24.096  17.405  0.0496  0.2628  0.1838
86944W        W61932  28.834   5.259  19.397  0.2548  0.0760 -0.1557
86945W        W61933  19.905   0.433  16.160 -0.0059 -0.1076  0.2331
86946W        W61934  18.674   9.710   1.361 -0.0571  0.0553  0.2224
86947W        W61935  19.461   9.939   1.314 -0.3165 -0.1722  0.0429
86948W        W61936  27.964  22.692  24.608  0.0625 -0.1079  0.1768
86949W        W61937  13.764   5.160  10.981 -0.2000  0.2765  0.0366
86950W        W61938  13.930  17.064   1.490  0.2180 -0.0254  0.1782
86951W        W61939  25.884   6.830  24.226 -0.1305 -0.0977 -0.0652
86952W        W61940  12.703   5.159  11.174  0.0462  0.3070 -0.1491
86953W        W61941  17.163  11.918  19.847  0.2370 -0.2680 -0.0626
86954W        W61942   3.543  27.450   7.137 -0.2512 -0.0662  0.0843
86955W        W61943   6.198  28.499  11.759  0.0530  0.1973  0.0593
86956W        W61944  10.638  23.081   4.605 -0.3231 -0.1901  0.0173
86957W        W61945  18.156   7.506   9.355 -0.2814 -0.2350 -0.2317
86958W        W61946  33.260  23.189  19.928  0.2042 -0.0207 -0.3726
86959W        W61947  19.918   9.503  19.166  0.0104  0.3404  0.1382
86960W        W61948  26.490  21.358  17.813 -0.0716 -0.0014 -0.0912
86961W        W61949  20.099  23.926  17.487  0.0784  0.0793 -0.2036
86962W        W61950  20.851  34.844  22.233 -0.0277 -0.2714 -0.1824
86963W        W61951  21.617  14.516  25.921  0.0178  0.5582 -0.2528
86964W        W61952   7.284  10.128  23.115 -0.1395 -0.3184 -0.0067
86965W        W61953   3.831   8.325   6.814  0.4276  0.0472 -0.0636
86966W        W61954  16.857  18.881   3.485 -0.4696  0.1874  0.0969
86967W        W61955   5.901   9.983   7.684  0.1716  0.0713  0.1514
86968W        W61956  18.423  29.174   1.539  0.0378 -0.0058  0.2250
86969W        W61957   7.891  12.588  20.785 -0.1420  0.0205 -0.0244
86970W        W61958  28.761  15.768  22.598 -0.0958  0.1799 -0.2112
86971W        W61959  33.359  11.052  23.639  0.2756 -0.1028 -0.0500
86972W        W61960  12.380  17.693  14.605 -0.1023  0.0173  0.0689
86973W        W61961  17.161  25.160  13.556 -0.2082  0.0389 -0.1001
86974W        W61962  22.291   8.805  22.318  0.0384  0.1775  0.0951
86975W        W61963   1.614  27.547  24.776  0.0247  0.0273 -0.3958
86976W        W61964   4.831  14.571   3.913  0.2718 -0.0978  0.2012
86977W        W61965  21.529   3.232   5.799  0.0266  0.0571  0.1777
86978W        W61966  27.322   2.307  25.980  0.2389  0.1536 -0.3919
86979W        W61967  20.097  30.282  22.355 -0.1138 -0.1374 -0.3192
86980W        W61968  32.410  21.624  23.577  0.2304  0.0285  0.1190
86981W        W61969  19.862   3.130  21.369 -0.2936 -0.0828 -0.1329
86982W        W61970   3.264  29.665  12.700  0.0453 -0.3047  0.1102
86983W        W61971  17.766  24.961  10.806  0.2169 -0.0756 -0.0380
86984W        W61972  25.857  26.780  12.323 -0.0224 -0.0673  0.1170
86985W        W61973  20.308   6.041   8.115  0.0032 -0.1553 -0.0222
86986W        W61974   8.142   7.599  13.485  0.0913 -0.0241  0.0086
86987W        W61975  12.844   7.073  24.825 -0.0532 -0.1764 -0.2893
86988W        W61976  11.526  32.322  13.460  0.3443  0.1543  0.2545
86989W        W61977   0.796  29.658  21.790  0.0177 -0.1416  0.1935
86990W        W61978  32.706  15.450  10.858 -0.2584  0.1480  0.1604
86991W        W61979  30.894  13.247  19.983 -0.0305  0.0526  0.0899
86992W        W61980   9.173  22.182  24.756  0.1841  0.0079  0.1039
86993W        W61981  12.225   8.003  23.254 -0.1130 -0.0366  0.1039
86994W        W61982  17.857  22.891   6.770 -0.2054 -0.0381  0.2981
86995W        W61983  13.736  23.929   7.826  0.0656  0.0179  0.0879
86996W        W61984  26.065  34.188  13.338  0.0731 -0.1168  0.2225
86997W        W61985  11.472   5.924   9.184  0.2009  0.0582 -0.0218
86998W        W61986  27.495   5.437   2.622  0.1623  0.0416  0.1465
86999W        W61987  14.348  18.507   2.427  0.2064  0.0689  0.0033
87000W        W61988  27.050  25.617  22.414 -0.1385  0.0671  0.0788
87001W        W61989  28.774   2.287  24.300 -0.0531 -0.2338 -0.1092
87002W        W61990  22.762  13.092  15.676  0.2367 -0.3916  0.1300
87003W        W61991  24.571  17.100  13.716  0.0808  0.1556 -0.0607
87004W        W61992  29.590  30.375  17.698  0.4281  0.0319 -0.3733
87005W        W61993   6.590  29.064   5.108 -0.1334  0.2701 -0.0631
87006W        W61994  31.973  19.981  20.844 -0.3620 -0.0556  0.2345
87007W        W61995   6.686  28.626   5.525 -0.2275 -0.2502 -0.0028
87008W        W61996  30.879  34.190   2.421  0.1288 -0.4063  0.2651
87009W        W61997  12.078  14.477   6.410  0.0687 -0.1040  0.4040
87010W        W61998   2.366  11.020  24.133  0.1047  0.1118  0.1812
87011W        W61999  32.971   5.268  18.825  0.0811  0.1712 -0.0089
87012W        W62000  26.562  26.741   9.408 -0.1988 -0.1697 -0.0244
87013W        W62001  14.426  27.744  13.992 -0.4399  0.0128 -0.1742
87014W        W62002  29.750  12.464  18.915 -0.0715  0.0696 -0.0045
87015W        W62003  27.655  24.263   0.623 -0.2288  0.1114  0.2988
87016W        W62004  25.405   5.936  17.344  0.2472  0.1253 -0.0769
87017W        W62005  31.458  26.630  18.422  0.2539  0.1059 -0.1841
87018W        W62006  26.104  16.536  13.904 -0.1490 -0.0200 -0.0706
87019W        W62007  27.567  30.140  17.110  0.1051 -0.0536 -0.0042
87020W        W62008  17.307  17.728   8.689 -0.1271 -0.1480 -0.0913
87021W        W62009  28.381   1.856  20.343 -0.1076  0.1403  0.0113
87022W        W62010   5.328  14.183  25.242 -0.1304  0.2933 -0.1781
87023W        W62011  20.227  33.568   4.085  0.0152  0.1515  0.2399
87024W        W62012   4.199   8.476   6.378  0.1751 -0.2127 -0.4224
87025W        W62013  17.612  30.480  23.445  0.2767  0.4650  0.5218
87026W        W62014   2.824  31.395  23.460 -0.2432  0.2805 -0.0096
87027W        W62015  22.988  30.096  23.665 -0.0113  0.0411 -0.0779
87028W        W62016   3.567  26.008   7.279 -0.1654 -0.0940  0.1027
87029W        W62017  22.184  25.914  13.975  0.0319 -0.0672 -0.2953
87030W        W62018  33.879   4.428  22.504  0.0537  0.1834  0.1584
87031W        W62019  31.860  23.445   7.082 -0.2261  0.0709  0.0317
87032W        W62020   7.075  34.554  20.998  0.1922 -0.0140  0.1142
87033W        W62021  28.435   3.528   2.022 -0.0816  0.0445  0.1653
87034W        W62022   7.038   8.853  17.999  0.1740  0.0886 -0.0168
87035W        W62023   8.353  24.664  15.073 -0.5505  0.1723  0.2288
87036W        W62024   4.653   0.153   6.509  0.3649 -0.0992 -0.0451
87037W        W62025  27.235  27.530  20.886 -0.2415 -0.0281 -0.1761
87038W        W62026  27.805  33.779   2.609  0.1625  0.0046 -0.2106
87039W        W62027  34.831  13.321   0.685  0.0300  0.3375  0.1695
87040W        W62028  10.347  14.909   9.541 -0.3168 -0.0239 -0.2031
87041W        W62029  23.732   9.108  14.592  0.1479 -0.0733  0.1471
87042W        W62030  27.481  33.186  17.524  0.1616  0.0473 -0.0067
87043W        W62031  25.597  23.247  17.402 -0.1119  0.1793 -0.2407
87044W        W62032  29.617  22.808  14.229 -0.0190  0.1088 -0.0530
87045W        W62033  35.264  22.961  10.607 -0.2080 -0.0899 -0.2545
87046W        W62034  32.739  19.136  13.617 -0.2854 -0.0797  0.0142
87047W        W62035  22.966   3.066  15.242  0.0395 -0.0923 -0.0867
87048W        W62036  18.357   5.386   4.604  0.1145 -0.1658  0.2232
87049W        W62037   4.617  28.754   9.511 -0.0747 -0.1190 -0.0562
87050W        W62038  31.293  17.735  21.917 -0.0988 -0.2834 -0.1811
87051W        W62039  35.193  15.901  15.455 -0.4320 -0.2950 -0.0377
87052W        W62040   7.199  32.776  23.036  0.2643  0.1723  0.4332
87053W        W62041  10.302  26.725  24.923  0.4166  0.0026 -0.0187
87054W        W62042  15.740  11.943   1.876  0.3009 -0.0471  0.1111
87055W        W62043  17.505  29.416  19.857 -0.0260 -0.1983 -0.1268
87056W        W62044   2.952  19.903  25.957 -0.0870  0.0807  0.0735
87057W        W62045  17.718   3.809  22.594 -0.0845  0.0713  0.1560
87058W        W62046  25.378  20.912  12.700  0.0182  0.0058 -0.1764
87059W        W62047  32.619  18.567  17.174  0.0815  0.0012  0.0345
87060W        W62048  34.376  12.204  18.769  0.0009 -0.0549  0.0389
87061W        W62049   5.738   3.387   4.809  0.1191  0.2873  0.1496
87062W        W62050  20.676  23.099  24.289  0.2950  0.2442  0.3396
87063W        W62051  31.924  11.450  14.679  0.2349  0.1869  0.1817
87064W        W62052  29.454   9.022  11.381  0.0574 -0.4310 -0.1720
87065W        W62053  29.499  30.978  17.263 -0.1285  0.0802 -0.0588
87066W        W62054   5.778  32.772  13.341 -0.1469  0.1816  0.1733
87067W        W62055  10.772   0.557   7.294  0.0781  0.0986  0.0119
87068W        W62056  34.276  19.651  20.261  0.1023  0.3584 -0.3180
87069W        W62057  11.718  34.662   7.336 -0.2877  0.0411 -0.4495
87070W        W62058  13.114  27.518   7.455 -0.3802 -0.0124 -0.1419
87071W        W62059  12.368   9.719  12.751 -0.0560  0.0781  0.2428
87072W        W62060  10.852  28.400  25.292 -0.1380 -0.0736  0.0760
87073W        W62061  30.985  32.063   0.214 -0.1641  0.0052 -0.0540
87074W        W62062  34.174   8.862  15.250  0.3080 -0.2436 -0.3132
87075W        W62063   9.287  11.110   6.158 -0.1276 -0.1572  0.2457
87076W        W62064  15.776  30.114  25.282  0.0309 -0.0617  0.1652
87077W        W62065  29.133  17.085  11.519  0.0245 -0.2298 -0.0260
87078W        W62066  20.603   3.103  24.455 -0.1499 -0.0526 -0.3330
87079W        W62067  14.286  29.319   1.765 -0.0352 -0.0025 -0.1199
87080W        W62068   0.271  14.115  17.994 -0.1629 -0.0680 -0.2217
87081W        W62069   5.405   0.596   7.395 -0.0940 -0.3257  0.1241
87082W        W62070  29.587  24.117  12.643  0.2282 -0.0062 -0.1757
87083W        W62071   2.202  12.579  25.404  0.1101  0.0297  0.1723
87084W        W62072  34.973  23.232  18.082  0.2923 -0.1890  0.1372
87085W        W62073   4.383  32.695  11.057  0.2684  0.0244 -0.0792
87086W        W62074  17.784  19.705   2.164  0.2785 -0.0878 -0.2351
87087W        W62075  21.213   9.182   8.344 -0.1484  0.0430  0.4041
87088W        W62076  12.243  24.080  23.302 -0.2054 -0.0373 -0.1120
87089W        W62077  19.773  26.136  22.364  0.1258  0.1465 -0.0600
87090W        W62078  30.643  25.321   9.175  0.2023 -0.0403 -0.0114
87091W        W62079   6.730  24.781  13.420 -0.2056  0.0501  0.0107
87092W        W62080  25.881   7.891  20.945  0.0152 -0.0621  0.3492
87093W        W62081  32.553  24.396   0.943  0.1335  0.1073  0.3151
87094W        W62082   3.911  22.321  25.722  0.0679 -0.0253 -0.2266
87095W        W62083  20.562  17.832  17.784 -0.4717 -0.2107 -0.0233
87096W        W62084  30.329  17.281  17.090 -0.0016 -0.1483  0.1961
87097W        W62085  25.424  31.702  26.007 -0.3199 -0.1422  0.0693
87098W        W62086  10.152  22.584   7.798  0.0999  0.0218 -0.0818
87099W        W62087  10.430  20.965   0.292  0.2747  0.1349  0.1478
87100W        W62088   1.724  27.937  24.103 -0.4662 -0.1847  0.1004
87101W        W62089  26.394  20.998   7.793 -0.0070 -0.3168  0.2390
87102W        W62090  33.169  18.640  19.267  0.0156  0.1908 -0.0569
87103W        W62091   5.596  20.345   1.420 -0.0591  0.2018  0.0111
87104W        W62092  10.242  31.165  25.443  0.0628 -0.1097  0.0802
87105W        W62093  24.899  16.147  13.454  0.0238  0.3092  0.1309
87106W        W62094  33.016   5.051  17.787  0.3693 -0.3737 -0.1073
87107W        W62095  10.886  26.412   6.193  0.2010 -0.2652 -0.1921
87108W        W62096  22.679  24.124  20.142  0.1868 -0.1688 -0.0489
87109W        W62097  28.633  25.122   0.351  0.0187  0.1439 -0.0258
87110W        W62098  15.175  17.398  13.802  0.0993 -0.0077 -0.1193
87111W        W62099   8.331  20.604   1.473 -0.1088 -0.4906 -0.0505
87112W        W62100  14.945  16.419   4.409  0.3868 -0.1534  0.0703
87113W        W62101  26.367   0.909  19.664 -0.1843  0.1361 -0.0036
87114W        W62102  18.385  27.096  21.637  0.0363 -0.0148  0.0544
87115W        W62103   0.615   2.284  23.169 -0.1121  0.3139  0.1851
87116W        W62104  33.092  29.870  24.092  0.3473 -0.0765  0.3652
87117W        W62105  27.297  24.208  10.523  0.2295  0.1601 -0.0690
87118W        W62106  25.422  30.944   0.471 -0.0736  0.0387  0.4183
87119W        W62107  29.576   7.332  14.352  0.1800 -0.4005  0.0724
87120W        W62108   9.606  17.550  24.285  0.1476 -0.0204 -0.1478
87121W        W62109  26.974   9.956  21.571  0.0344 -0.2298  0.2272
87122W        W62110   6.023  31.729  11.137  0.1865  0.1467 -0.0681
87123W        W62111   6.115  31.117  12.861 -0.1248  0.2233 -0.0066
87124W        W62112  32.092  12.971   7.413  0.1610  0.1688 -0.1135
87125W        W62113  16.505  32.474   0.131 -0.0069  0.0707 -0.1521
87126W        W62114  28.575  26.904  25.697 -0.1188  0.0509 -0.1604
87127W        W62115   9.971   5.931   3.392  0.0197  0.0912 -0.1407
87128W        W62116  26.324  19.994  23.019  0.1236  0.1212  0.2624
87129W        W62117  35.104   6.323   2.904 -0.0218 -0.0626 -0.1170
87130W        W62118  15.780  10.079  25.622 -0.1294  0.2020 -0.1883
87131W        W62119  31.821   7.909  12.467  0.2320 -0.0923 -0.0205
87132W        W62120  25.664  20.169  15.413 -0.2458  0.0771  0.2140
87133W        W62121  34.929   9.059   2.266  0.3845 -0.2793 -0.2550
87134W        W62122   5.417   6.044  23.468 -0.1673 -0.2307 -0.0097
87135W        W62123  25.867   4.731  25.790  0.0921  0.2376 -0.1654
87136W        W62124  20.813  18.014  20.648  0.2740 -0.2507 -0.2134
87137W        W62125  16.362  20.939  14.333  0.0769 -0.2535  0.0275
87138W        W62126   7.073  29.196   6.398 -0.2690 -0.1350 -0.0433
87139W        W62127  29.913  16.969  14.210  0.2027  0.0990 -0.0282
87140W        W62128  15.697  32.686   8.489 -0.0479  0.3477  0.0643
87141W        W62129  16.430  16.480   6.745 -0.0370 -0.0149 -0.0112
87142W        W62130  31.147   9.178  17.163 -0.2057 -0.1683  0.1599
87143W        W62131  31.467   5.740  18.520 -0.0929  0.0143  0.3213
87144W        W62132  19.408   5.406  24.361  0.0141 -0.1161  0.2195
87145W        W62133  29.304   3.155  23.029  0.1239  0.2095 -0.1926
87146W        W62134  33.362   7.720  19.009 -0.2940  0.2031 -0.0115
87147W        W62135  13.168  35.002  11.694  0.2392  0.0880  0.1582
87148W        W62136  18.485  35.151   5.390 -0.2243 -0.1499  0.0413
87149W        W62137  14.509   6.271  11.118  0.1159 -0.4318 -0.2353
87150W        W62138  31.442   3.512  19.262  0.0952 -0.5011  0.0997
87151W        W62139  14.399  16.141   1.666 -0.1115  0.4633 -0.2024
87152W        W62140  28.439  18.771   6.153 -0.4191  0.1479 -0.2122
87153W        W62141   8.316   3.861   5.762 -0.0113  0.1047  0.2995
87154W        W62142   5.540   0.524   6.530 -0.3651  0.0836 -0.0726
87155W        W62143   1.242  22.200  25.825 -0.0626 -0.0020 -0.0704
87156W        W62144  28.618  15.896  11.929 -0.1849  0.2698 -0.1871
87157W        W62145  35.057  28.308  16.924  0.0169 -0.0475  0.0232
87158W        W62146  32.832   1.544  15.065 -0.3624 -0.0826  0.2995
87159W        W62147  20.638   3.897   4.619 -0.0798 -0.0556  0.3150
87160W        W62148   4.309  19.112  24.221  0.2264 -0.2293 -0.0436
87161W        W62149  16.690  12.276  20.611 -0.3160 -0.0744 -0.0287
87162W        W62150  21.039   2.515   7.972 -0.1208  0.1556  0.2379
87163W        W62151  31.316   4.658   3.895 -0.1495 -0.1637  0.0072
87164W        W62152  30.556   7.845  17.790  0.0811 -0.1552 -0.0589
87165W        W62153  32.404   6.229  12.066 -0.0757  0.2141  0.0254
87166W        W62154  29.989  33.023  24.635 -0.2795  0.0758  0.0166
87167W        W62155  16.169  29.613   4.148  0.0146  0.1305 -0.0100
87168W        W62156  14.404   5.642  21.403 -0.0573  0.1400 -0.2740
87169W        W62157  19.877  13.373  24.140 -0.0274  0.0594  0.0384
87170W        W62158  16.520   7.094   3.967  0.1476 -0.0766  0.2218
87171W        W62159  32.320  18.915   7.060 -0.1420 -0.1508 -0.1565
87172W        W62160   7.642   9.680   2.860  0.0178  0.0725 -0.1848
87173W        W62161   3.030  24.269  18.337 -0.0884  0.4347 -0.1236
87174W        W62162  10.145  13.172  19.162  0.1640  0.1914  0.2368
87175W        W62163   5.280  27.737  21.523  0.0582 -0.0506  0.1664
87176W        W62164  21.720   5.912  21.060  0.1511  0.2054 -0.3922
87177W        W62165  34.732   2.738  23.780 -0.1649 -0.1005 -0.1070
87178W        W62166  27.214   1.498  22.114  0.2003 -0.0969 -0.1752
87179W        W62167   3.437  11.463  21.455  0.0117  0.1729  0.2293
87180W        W62168  17.276  35.061   6.009  0.5360 -0.3987 -0.0845
87181W        W62169   5.762  29.341   6.509 -0.5914 -0.0421  0.0678
87182W        W62170   0.837  23.005  16.742  0.0346 -0.2875  0.0823
87183W        W62171   8.640   5.983   4.701  0.0237  0.1700  0.0282
87184W        W62172   7.733  22.577   0.952  0.2573  0.0113  0.2950
87185W        W62173  31.853  27.867  24.218 -0.1283  0.0264  0.1848
87186W        W62174  32.358   0.080  23.011  0.1208 -0.0418 -0.4208
87187W        W62175   4.086  30.218   3.279  0.0938 -0.1327  0.1477
87188W        W62176  20.356  33.791   3.656  0.0102 -0.0055  0.0628
87189W        W62177  33.104   8.845   1.381  0.0804 -0.1717 -0.0935
87190W        W62178  31.190   8.970  26.202  0.0462 -0.0250 -0.2391
87191W        W62179   5.944   3.982  19.505  0.0180  0.0680 -0.2653
87192W        W62180  19.433  14.905   2.876 -0.0032 -0.1916  0.0163
87193W        W62181   3.156   6.081  24.838  0.0563  0.2336 -0.1324
87194W        W62182  31.531  10.737  20.653 -0.1131  0.0284 -0.0401
87195W        W62183  13.196  26.585  22.465 -0.1542  0.1023  0.1764
87196W        W62184  18.964  20.622   7.289  0.1117  0.2618  0.0436
87197W        W62185  15.513  15.327   1.557 -0.0104  0.0801  0.2657
87198W        W62186  32.809   7.792  19.241  0.2140 -0.3139 -0.0758
87199W        W62187   2.080   6.256  25.631 -0.0030 -0.4722 -0.0567
87200W        W62188  18.011  25.336  20.994 -0.0220  0.0300 -0.1606
87201W        W62189  18.920   2.835   5.722 -0.0019 -0.2598 -0.2543
87202W        W62190   3.528  33.010   2.042  0.0987 -0.0232  0.0170
87203W        W62191  32.427   4.387  18.312 -0.0129  0.4445 -0.0262
87204W        W62192  29.986  17.823  24.876 -0.0433  0.0847  0.1341
87205W        W62193   9.115  32.904   7.264 -0.0763 -0.1786 -0.1084
87206W        W62194  32.361   7.353  15.727 -0.0879 -0.0652  0.0321
87207W        W62195   1.081  33.705   9.757 -0.3382  0.1169  0.3049
87208W        W62196  15.022  22.988   6.532  0.0453  0.5251 -0.2169
87209W        W62197  27.424  25.506  14.795 -0.2704 -0.0426 -0.2629
87210W        W62198  11.370  14.050  10.953  0.1236  0.1823  0.1215
87211W        W62199  21.314   4.661   5.861  0.0018 -0.0500  0.2063
87212W        W62200  11.352   4.152  11.889 -0.0611  0.0630  0.2452
87213W        W62201  11.546   0.569  10.707 -0.1382  0.0695 -0.1131
87214W        W62202  31.002  21.936  23.344 -0.0370 -0.1548  0.1492
87215W        W62203   7.678  10.591   6.921 -0.1109  0.0169  0.0680
87216W        W62204   8.299  12.022   9.126 -0.4661  0.0727 -0.0805
87217W        W62205   9.962   9.509  19.524  0.0323  0.0541  0.3504
87218W        W62206  11.150  11.755  12.549 -0.1645 -0.6128  0.1522
87219W        W62207  24.108  15.162  22.268 -0.1859 -0.0530  0.2409
87220W        W62208  24.066   7.220  19.925 -0.3995 -0.1674 -0.2622
87221W        W62209  28.538  32.528  18.267  0.0240  0.2708 -0.0101
87222W        W62210  24.104   4.529  17.780  0.1317  0.0229 -0.1677
87223W        W62211  20.220  32.569  16.431 -0.1321 -0.2267  0.0311
87224W        W62212   4.793   0.009  22.546 -0.0934  0.2376  0.0308
87225W        W62213  28.316  28.183   3.510 -0.0751 -0.0820  0.1807
87226W        W62214  17.527  33.394   7.126 -0.0784  0.0229  0.2127
87227W        W62215  33.645  23.055  24.656  0.2024 -0.0305 -0.4320
87228W        W62216   1.128  13.094  25.265  0.0260  0.0409  0.3595
87229W        W62217  13.288   8.415  12.848  0.3341 -0.0487 -0.3116
87230W        W62218   5.314  30.087   6.428  0.3930  0.5311 -0.1834
87231W        W62219  33.290  27.514   0.071 -0.2562 -0.0519  0.0021
87232W        W62220  12.725  16.639   3.104  0.0277 -0.0061  0.0130
87233W        W62221  20.528  20.461  20.971 -0.4292  0.1486  0.1988
87234W        W62222  10.855  26.654  16.781  0.0062 -0.1360 -0.1339
87235W        W62223   0.358  30.106  23.379 -0.0535 -0.2727 -0.0593
87236W        W62224   9.878  18.707   8.020  0.2326  0.2284 -0.0505
87237W        W62225  28.147  31.741  21.115  0.3263 -0.0569 -0.0175
87238W        W62226  12.630   6.393   2.053  0.0111  0.0183  0.1576
87239W        W62227  21.318   4.769   2.520 -0.1064 -0.0176 -0.2247
87240W        W62228  10.638  13.420  18.300  0.2895 -0.1401 -0.0073
87241W        W62229  19.345  17.407   7.938 -0.2390  0.2279  0.1106
87242W        W62230  23.786  25.805  16.325 -0.2361  0.0330 -0.2246
87243W        W62231  26.495  30.274  10.470 -0.0512 -0.0053 -0.0952
87244W        W62232  26.909   3.550  19.041 -0.1927 -0.0288 -0.3990
87245W        W62233  10.713  21.866   0.246 -0.2410  0.0643 -0.0216
87246W        W62234  24.779  29.829  21.452  0.3232 -0.0824  0.0641
87247W        W62235   4.161   8.114   0.155  0.3450 -0.1662  0.1574
87248W        W62236  33.313  22.215  19.277 -0.1649  0.0852  0.1192
87249W        W62237   3.952  32.569  10.354  0.0630  0.0529  0.1177
87250W        W62238   0.548   4.072  17.535 -0.2112  0.1479  0.2046
87251W        W62239  32.633  11.601  18.894 -0.2004 -0.5364 -0.3305
87252W        W62240   3.622  34.949   4.104  0.1485 -0.3979 -0.0792
87253W        W62241   2.828   2.314   2.098 -0.1272 -0.1706 -0.0778
87254W        W62242  30.576  13.631   8.102  0.0214  0.0592  0.1590
87255W        W62243   5.962  13.406  19.620 -0.0909  0.3225 -0.0223
87256W        W62244   6.994  21.182  25.774  0.1914 -0.0776  0.1876
87257W        W62245  28.514  31.237  13.991 -0.1132 -0.2257  0.0190
87258W        W62246   4.887  23.493  20.306 -0.0013 -0.1211 -0.0374
87259W        W62247  22.214  32.931  25.917  0.2459  0.4020  0.1568
87260W        W62248  13.292  22.095  26.094 -0.0863 -0.2123 -0.0233
87261W        W62249   5.578  33.945  25.797  0.0221 -0.0379  0.1414
87262W        W62250   2.460  24.028  25.162  0.2725 -0.1494 -0.0868
87263W        W62251   3.735  15.194  22.564 -0.1073 -0.0082 -0.2579
87264W        W62252  30.678   3.005   2.626  0.0006  0.1173  0.0970
87265W        W62253  31.948  18.269  23.193 -0.0534  0.0189  0.0098
87266W        W62254  21.086  33.438  19.526 -0.1727 -0.1061  0.0422
87267W        W62255   0.767  34.928   1.690 -0.1079 -0.0349 -0.1920
87268W        W62256  33.479  30.940  15.006  0.0972 -0.2191 -0.1849
87269W        W62257  18.334   6.579  19.884  0.0457 -0.1859 -0.2151
87270W        W62258   8.698  13.851   6.240 -0.3776  0.2970  0.0471
87271W        W62259  26.536  20.224  17.883  0.0684  0.4326  0.3071
87272W        W62260  16.500  32.310  19.210 -0.2371 -0.2913 -0.0676
87273W        W62261  34.347  33.526  17.087  0.2452  0.0335 -0.3856
87274W        W62262  17.729  33.262   3.469  0.1469 -0.3428  0.0091
87275W        W62263  11.892  18.664   4.349 -0.0732 -0.0668  0.1979
87276W        W62264  23.469  14.129  22.617  0.0229  0.1818  0.2361
87277W        W62265  35.170  24.546  18.094 -0.2475  0.2662 -0.0218
87278W        W62266  22.096   2.911  21.377  0.1192 -0.1268  0.1291
87279W        W62267   4.274  31.245   4.367 -0.1800 -0.1418 -0.1573
87280W        W62268   0.591  10.246  17.119 -0.3729 -0.0447  0.1192
87281W        W62269  28.207  20.632  10.203 -0.2605  0.0062  0.2975
87282W        W62270   8.930  27.857  16.411 -0.3594 -0.1484  0.0960
87283W        W62271   3.376   2.287  20.625  0.0121  0.2998  0.2039
87284W        W62272  29.821  16.893  20.588  0.0254 -0.3889  0.1054
87285W        W62273   0.259   5.609  16.849 -0.1088  0.0878 -0.1558
87286W        W62274  12.976   4.535  20.044  0.0023  0.0913  0.0136
87287W        W62275   1.135  21.271  15.305  0.0782 -0.1995  0.0886
87288W        W62276  16.813  22.423   4.957  0.0422 -0.0202  0.0298
87289W        W62277  24.569  18.398  23.879 -0.1777  0.3345 -0.2971
87290W        W62278  17.651  34.958  26.222 -0.1562 -0.2927 -0.0320
87291W        W62279  20.084   4.797   7.635 -0.0209 -0.2094 -0.1161
87292W        W62280   1.164  22.929  22.315 -0.4570  0.2521 -0.1122
87293W        W62281  10.922  12.065   6.510 -0.1350  0.3475 -0.0304
87294W        W62282   1.679   0.063  25.821 -0.0834 -0.1572 -0.0138
87295W        W62283  26.326  29.316  23.965  0.0286  0.3951  0.0137
87296W        W62284  17.393  34.708   2.208  0.0698 -0.1121 -0.0379
87297W        W62285  11.219  27.565   8.370 -0.2229  0.1436 -0.3777
87298W        W62286   2.642  33.328   6.708 -0.5202 -0.0803  0.3606
87299W        W62287  34.162   5.627  11.131 -0.0162 -0.2117  0.2461
87300W        W62288  23.234  31.761  13.484 -0.0003  0.0912  0.0199
87301W        W62289  15.519  25.057  25.444  0.2368  0.0519  0.1185
87302W        W62290   4.024  28.028  20.435 -0.4463  0.1709 -0.0334
87303W        W62291  13.665   9.619  11.963  0.1047 -0.0776  0.0050
87304W        W62292  12.359  12.665  13.726 -0.1611 -0.3302 -0.0446
87305W        W62293  34.866  17.840   8.818  0.0753 -0.0772  0.1451
87306W        W62294   5.203  17.251   2.805  0.0053 -0.3009  0.0612
87307W        W62295   5.880  33.227  25.976  0.0778  0.4063  0.2123
87308W        W62296   5.723  14.825   1.779 -0.2619  0.3915 -0.0446
87309W        W62297   2.629  17.765  25.007  0.1374 -0.1072 -0.0537
87310W        W62298  25.699  16.016  20.683 -0.0724 -0.1802 -0.2233
87311W        W62299   1.852  10.316   0.723 -0.1987 -0.0728  0.0691
87312W        W62300   9.192  15.795   8.606 -0.1630 -0.0286  0.2148
87313W        W62301  29.291   8.507  10.374 -0.0263 -0.0195  0.0314
87314W        W62302   0.257  24.071  20.943  0.0573  0.2156 -0.1915
87315W        W62303  32.330  27.962   0.924  0.0516 -0.1366 -0.1228
87316W        W62304  28.832  19.424   9.245  0.0987  0.1910  0.1167
87317W        W62305  26.340  24.905  17.982  0.2807  0.3649 -0.2072
87318W        W62306  16.612  34.867   7.828  0.0863  0.1695  0.1005
87319W        W62307  12.551  23.073   6.384  0.0208 -0.2024  0.0847
87320W        W62308  28.357   9.082  14.306 -0.0151  0.1196  0.0960
87321W        W62309  28.970  17.586   9.227  0.1383  0.2465 -0.0221
87322W        W62310   9.128  22.321   8.772  0.0674 -0.1886 -0.0765
87323W        W62311  11.493   9.471  11.182 -0.0776 -0.2412  0.4661
87324W        W62312  10.824  31.740   4.728 -0.0608  0.2416 -0.1795
87325W        W62313  24.279  20.401  16.022  0.1049 -0.0169 -0.3807
87326W        W62314  10.395  24.045  11.892  0.1219  0.1892  0.1097
87327W        W62315  21.621  28.318   3.594 -0.1659  0.1094 -0.2648
87328W        W62316   5.418   2.564   7.368 -0.3718 -0.2405 -0.0646
87329W        W62317  34.642   3.436  19.755 -0.2124  0.0027  0.2299
87330W        W62318   2.764  27.508  19.821  0.0103 -0.0532 -0.1226
87331W        W62319  27.340  31.778  23.420 -0.2023  0.0035 -0.0073
87332W        W62320  30.686   0.082  21.037 -0.1988  0.2190  0.1638
87333W        W62321  32.885  29.421  15.363 -0.1055 -0.2158  0.2928
87334W        W62322  33.215  23.941  19.593  0.0902 -0.1630 -0.0208
87335W        W62323   3.969   6.179  23.202 -0.0574  0.1663 -0.0148
87336W        W62324  22.329  13.482  20.983 -0.3703  0.0915 -0.1641
87337W        W62325   3.609  11.238  14.354  0.2388 -0.3374  0.2639
87338W        W62326   3.131  23.702  18.314  0.2654  0.1497 -0.4014
87339W        W62327  25.105  22.307  23.863 -0.3784 -0.0372  0.1969
87340W        W62328  33.792  20.970  17.709 -0.1978 -0.3408  0.0311
87341W        W62329   6.265  21.720  22.804  0.0880 -0.1314 -0.3973
87342W        W62330   4.492   5.271  22.135  0.3315 -0.2745 -0.1044
87343W        W62331  10.413   7.180  11.003  0.0747  0.1698  0.1021
87344W        W62332  34.091  12.170  17.761  0.1891 -0.0323 -0.1705
87345W        W62333  16.459   4.906   1.143  0.0235  0.0802  0.0596
87346W        W62334  23.779  30.102  16.780  0.0710 -0.2157  0.1168
87347W        W62335  18.157  11.321  22.979 -0.2615 -0.0377  0.4362
87348W        W62336   8.207  33.944  21.506 -0.0893 -0.3218  0.0823
87349W        W62337  22.193  30.048  20.693 -0.1857  0.0929 -0.0534
87350W        W62338   1.140  22.877   2.972 -0.0401 -0.0477  0.1837
87351W        W62339   7.990   0.460   2.311 -0.1437  0.0253 -0.2695
87352W        W62340   5.931  20.022   1.369 -0.1247 -0.1614 -0.0795
87353W        W62341  28.993  25.668   9.650  0.3706 -0.0859 -0.0359
87354W        W62342  18.428  14.177  22.877 -0.1110  0.2347  0.3731
87355W        W62343  33.103   1.055   0.050 -0.1185 -0.0223  0.0179
87356W        W62344   1.042  30.335  24.080 -0.0106 -0.0190  0.0882
87357W        W62345  28.267   1.476  19.145  0.0746  0.2519  0.0307
87358W        W62346  31.477   6.102  22.432 -0.0354 -0.1794 -0.1358
87359W        W62347  15.727   4.319  20.602  0.1261  0.0655 -0.1874
87360W        W62348  26.169   2.966  16.262 -0.0803  0.1817 -0.1495
87361W        W62349  30.389   0.269  23.612 -0.1466 -0.1326 -0.1583
87362W        W62350  20.435  28.217   5.276 -0.0374  0.1875 -0.0590
87363W        W62351  17.713   7.668   9.357 -0.0179 -0.2770  0.1704
87364W        W62352  22.165  25.747  15.745  0.1510  0.1420 -0.1405
87365W        W62353  33.392  17.276   6.554  0.1166  0.0229  0.1781
87366W        W62354   9.567   6.009   6.333  0.2896  0.1112 -0.0470
87367W        W62355  30.086   3.943  20.558  0.2651 -0.1055  0.1741
87368W        W62356  11.774  11.097   8.907 -0.1006 -0.0362 -0.0973
87369W        W62357   8.992   9.222   9.556 -0.3588  0.1525 -0.1323
87370W        W62358  12.125   8.766   0.823 -0.0724 -0.0936  0.4117
87371W        W62359  31.746  14.562  24.389 -0.0551 -0.0946 -0.1408
87372W        W62360  32.965  35.103  25.551 -0.0975 -0.2912  0.0380
87373W        W62361  23.692  27.859   0.638  0.0648 -0.2790  0.2687
87374W        W62362  11.345  10.034   7.073  0.0697  0.1278 -0.0873
87375W        W62363  10.023   0.313   9.673 -0.0594  0.1110  0.1846
87376W        W62364  30.779   5.141  11.912 -0.2894 -0.0592  0.0923
87377W        W62365   2.198  25.102   6.034 -0.0553 -0.1207  0.2073
87378W        W62366  13.396   5.239   4.868 -0.1558 -0.1062 -0.3249
87379W        W62367  24.168  27.712  23.457 -0.0114 -0.0901  0.2954
87380W        W62368  19.269  15.854   2.829 -0.0349 -0.1012  0.0379
87381W        W62369  28.719  23.333  11.750 -0.0390 -0.4279  0.1335
87382W        W62370   1.161   1.768  23.965 -0.1332 -0.1848  0.0201
87383W        W62371  16.581   8.590  23.529 -0.0526 -0.1581 -0.3452
87384W        W62372  24.155  34.225  25.246 -0.3165  0.3264 -0.0420
87385W        W62373  10.523  18.557   7.598 -0.3199  0.2720 -0.1340
87386W        W62374   7.936   4.088  23.226  0.2102  0.2666  0.0670
87387W        W62375   4.604  28.947   2.643 -0.0672 -0.0401  0.0882
87388W        W62376   6.681  28.852   9.398  0.3145  0.5364 -0.0061
87389W        W62377  33.667  11.451  24.740  0.0587  0.0494 -0.1451
87390W        W62378   5.403  31.522  13.848  0.0254 -0.0635  0.1589
87391W        W62379   6.761   4.556   1.602 -0.0812 -0.1006 -0.3331
87392W        W62380   7.169  33.920   2.359  0.0289 -0.1061 -0.0895
87393W        W62381   1.365  19.442  15.248 -0.2631 -0.0397 -0.0361
87394W        W62382   4.635   1.978  25.407  0.0085 -0.0952  0.1557
87395W        W62383  23.868   1.992  18.134 -0.0734 -0.0140 -0.1048
87396W        W62384  23.717  25.057  14.776  0.1344 -0.0270  0.3067
87397W        W62385  24.597  30.247   1.628 -0.0002 -0.1090  0.3834
87398W        W62386   1.345  20.076  23.948  0.2487  0.0578 -0.2284
87399W        W62387   2.632  26.031   8.726  0.1948  0.0102  0.4210
87400W        W62388   5.181  30.520  22.374  0.0525 -0.1088 -0.3835
87401W        W62389  11.246  31.972   1.263  0.1556  0.2412  0.2221
87402W        W62390  22.735  12.852  23.719 -0.1401  0.0345 -0.1760
87403W        W62391   6.693  10.299  21.450  0.2187  0.1491 -0.2291
87404W        W62392  18.027  34.628   7.514 -0.1167 -0.2922 -0.2462
87405W        W62393   7.257   6.542   7.953 -0.3114 -0.0787  0.1884
87406W        W62394  30.287   3.970  18.137 -0.0437 -0.2210  0.1635
87407W        W62395  24.136  16.415  23.625  0.1726  0.3425  0.1596
87408W        W62396   7.848  19.035  11.819 -0.2380  0.3614  0.1700
87409W        W62397  13.664  30.820  15.395  0.2266  0.0591 -0.0786
87410W        W62398  13.812   5.243   3.061  0.0228 -0.1853 -0.1636
87411W        W62399  35.102  11.086  17.830 -0.3999 -0.1704 -0.1347
87412W        W62400   5.114  10.882  25.673  0.3511  0.3548 -0.1831
87413W        W62401  26.378  16.525  16.079  0.1152  0.1040 -0.0283
87414W        W62402  30.083  27.431  24.431 -0.2118 -0.1530  0.1618
87415W        W62403  18.518  30.783   0.977  0.0261  0.2575 -0.1932
87416W        W62404  20.419  27.558  18.044  0.1271 -0.0057  0.2210
87417W        W62405  26.016  15.548   9.480  0.0533  0.0241  0.2024
87418W        W62406  25.452  10.016  20.917  0.0055 -0.2324  0.0144
87419W        W62407  13.563  21.169  22.836  0.2903  0.0800 -0.0372
87420W        W62408  10.633  13.702   9.950  0.0127 -0.1797  0.1516
87421W        W62409   4.292  31.179  25.726  0.4287 -0.1026 -0.0190
87422W        W62410   5.904  25.763   7.775  0.2572 -0.1038  0.2471
87423W        W62411   5.071  14.633  22.919 -0.0884 -0.0031 -0.1549
87424W        W62412  17.399   6.826  12.226 -0.0047 -0.0195  0.0019
87425W        W62413   6.784  25.338  11.225 -0.0226  0.1357  0.0488
87426W        W62414  20.296   0.521   3.694 -0.1736 -0.2301  0.0168
87427W        W62415   0.455   5.463  24.396 -0.1816 -0.2361 -0.1899
87428W        W62416   7.448  21.477   2.509 -0.1485 -0.2276  0.0370
87429W        W62417   1.678   8.674  19.339 -0.1463  0.2958 -0.0429
87430W        W62418  11.419   0.543  20.498  0.5156 -0.1022 -0.1469
87431W        W62419   6.320  25.111   0.792 -0.1064 -0.1215 -0.0232
87432W        W62420  14.168  15.007   2.518 -0.1220  0.1533  0.0853
87433W        W62421  26.548  28.554   0.207 -0.2951 -0.1856  0.1597
87434W        W62422  30.936  12.269  25.672  0.2529  0.0309  0.0793
87435W        W62423  29.648   3.184  20.923 -0.0751  0.0670 -0.0288
87436W        W62424   6.733   6.781   7.876 -0.0540  0.1010 -0.1525
87437W        W62425  34.186  21.310  24.130 -0.2057  0.0083  0.1375
87438W        W62426  22.729  28.110  14.098  0.0842  0.0035  0.1126
87439W        W62427  33.457   5.351   1.802  0.1117  0.1804  0.1972
87440W        W62428  16.857   3.766  10.202  0.0552 -0.0938 -0.2118
87441W        W62429  30.989  10.009  14.442 -0.0022 -0.0509 -0.1177
87442W        W62430   0.686  22.323  23.109  0.1716  0.1884 -0.2651
87443W        W62431  30.603  24.403  16.626 -0.0477  0.2936 -0.0095
87444W        W62432   9.983  27.842   9.513  0.1648 -0.0745 -0.0339
87445W        W62433  16.564  15.835  22.440  0.0698 -0.2364  0.1102
87446W        W62434  18.274  30.882   7.031 -0.3122 -0.4394 -0.1044
87447W        W62435   2.364   6.322  14.787  0.2661  0.1020  0.3390
87448W        W62436   4.680  31.572  24.691  0.1357 -0.0040  0.1979
87449W        W62437  32.126   4.047  18.556  0.2196  0.0507  0.2966
87450W        W62438   0.921  26.046  19.830  0.0368 -0.0470  0.0405
87451W        W62439  32.808  15.933  15.519 -0.3837 -0.0392  0.0208
87452W        W62440  32.132   3.459   6.623 -0.0843 -0.0301 -0.2646
87453W        W62441  25.413  31.412  19.072  0.0980  0.0810  0.2136
87454W        W62442  28.440   2.525  12.520  0.0620  0.0485  0.2426
87455W        W62443  32.596  15.936  14.887  0.1179  0.0561 -0.0751
87456W        W62444  33.348  22.644  23.816  0.3569 -0.1306  0.0098
87457W        W62445  13.324  32.879   2.565 -0.1381  0.0493 -0.0719
87458W        W62446  32.617   2.080   2.125 -0.0333 -0.1657 -0.1359
87459W        W62447  23.580  10.612   3.168 -0.1054  0.0083 -0.0362
87460W        W62448   0.446  12.552  23.550  0.5237  0.0214 -0.3759
87461W        W62449  21.244   1.018   6.670 -0.0661  0.0619  0.0713
87462W        W62450  31.216  23.134  13.196 -0.0162  0.1823 -0.1295
87463W        W62451  12.038  24.290   4.827 -0.0942 -0.0143 -0.1424
87464W        W62452   7.396  33.374   8.564 -0.1661  0.0324  0.1879
87465W        W62453  22.593  30.008  25.726  0.2071 -0.0295  0.2639
87466W        W62454   1.590  33.055  23.288 -0.1762  0.0472  0.0545
87467W        W62455  18.062  25.092   1.431 -0.1825  0.0586 -0.2380
87468W        W62456   5.808   4.700   3.289 -0.1656 -0.1055  0.0666
87469W        W62457  28.471   3.827   3.187 -0.0556 -0.2204 -0.1401
87470W        W62458  30.404  10.486  13.387  0.5780 -0.0057 -0.0484
87471W        W62459  27.862  15.311  22.396 -0.1693  0.2502 -0.0808
87472W        W62460  33.215  29.333  16.401  0.1141  0.0912 -0.1070
87473W        W62461   4.709   5.005  24.348 -0.1780  0.0192  0.3754
87474W        W62462  25.754   8.850  21.659 -0.1730  0.1874 -0.0828
87475W        W62463  26.678  22.974  24.165  0.2414  0.0672  0.0089
87476W        W62464  29.812   9.261   9.485 -0.0034 -0.3202 -0.1177
87477W        W62465  27.945   8.602  10.025 -0.1294  0.0007 -0.1651
87478W        W62466   5.306  35.370  12.357 -0.0038 -0.0734  0.1154
87479W        W62467   2.572   0.462   4.713 -0.0831  0.0661  0.4075
87480W        W62468  30.519  16.451   8.997 -0.0849  0.1934 -0.0688
87481W        W62469  32.105   9.199  21.716  0.1175 -0.0854 -0.4082
87482W        W62470   9.186  10.433  23.317 -0.1218 -0.0643 -0.0021
87483W        W62471  23.958   3.068  24.826  0.0068 -0.3370 -0.1203
87484W        W62472  27.122  35.221   5.440  0.0500 -0.2789 -0.3296
87485W        W62473  28.736  12.358  10.155  0.1368  0.3895  0.0193
87486W        W62474   8.006  15.861  24.408  0.0384  0.0908  0.0167
87487W        W62475   5.134  13.896  22.744  0.3463  0.1159 -0.1578
87488W        W62476  23.505   7.279   1.208  0.0199  0.2618  0.0801
87489W        W62477  18.665   5.987  17.790 -0.0807 -0.0709 -0.0641
87490W        W62478  29.067  20.810  24.458 -0.2614  0.2801 -0.0867
87491W        W62479  26.328  30.579  11.248 -0.1296 -0.0719  0.0156
87492W        W62480   7.052   1.725   9.621 -0.0218 -0.1785 -0.3043
87493W        W62481  34.854  23.164  14.662  0.2341  0.0627 -0.0963
87494W        W62482  11.733  11.765  14.268 -0.1446 -0.0265  0.4919
87495W        W62483  21.273   7.279  18.209  0.0024  0.0651  0.0889
87496W        W62484  21.052  20.201  17.915 -0.1110 -0.1452  0.0555
87497W        W62485   7.445  33.989   3.514  0.1093 -0.0786 -0.3402
87498W        W62486   2.231  20.907  11.333  0.1163  0.1480  0.2843
87499W        W62487  29.594  19.148   9.606  0.2905  0.0515  0.0132
87500W        W62488  27.068  12.689  17.294  0.0583 -0.0468 -0.0701
87501W        W62489   9.609   6.182  21.893  0.0810  0.0437  0.1217
87502W        W62490   4.441  11.985  22.848 -0.0756 -0.0617 -0.1383
87503W        W62491  26.372   8.980  20.477 -0.0925  0.1177  0.3505
87504W        W62492  11.781   4.644   9.187 -0.1131 -0.2033  0.1429
87505W        W62493  11.948  30.183   2.990 -0.2416  0.1628 -0.3641
87506W        W62494  20.011  17.003  20.027  0.0441  0.2794 -0.1089
87507W        W62495  26.973  19.491   8.099  0.1458  0.0839 -0.0987
87508W        W62496  12.285  17.906  13.753 -0.0616 -0.1308  0.0393
87509W        W62497  13.546  14.555   4.638 -0.0860 -0.1854  0.1138
87510W        W62498  14.624  13.309  24.644 -0.0429 -0.1390  0.4535
87511W        W62499  28.223   3.862  24.332 -0.0627  0.1037 -0.1632
87512W        W62500  25.930   3.923  15.317 -0.3467 -0.3490  0.0252
87513W        W62501   1.983   1.676  25.324 -0.1251  0.0544  0.1665
87514W        W62502  29.326  28.479  15.484  0.0668 -0.0421 -0.3018
87515W        W62503  24.647   4.090  23.419  0.2306 -0.0998 -0.1322
87516W        W62504  30.317   7.152  12.041 -0.0298 -0.0338  0.1006
87517W        W62505  12.997  16.077  24.309  0.2214  0.3159 -0.1201
87518W        W62506   9.601  12.164   1.514 -0.1022  0.0271  0.0651
87519W        W62507  26.431  12.555  15.175  0.0699 -0.1174  0.3353
87520W        W62508  18.108  22.140   8.249 -0.3174 -0.2624  0.2249
87521W        W62509   3.292  30.095  25.564  0.2552 -0.0841 -0.4825
87522W        W62510   5.830  32.213   8.096  0.0178 -0.1860 -0.2352
87523W        W62511  14.900   4.117   4.066  0.1274  0.0332  0.1085
87524W        W62512   8.913  16.069  20.618 -0.2993  0.2144  0.1729
87525W        W62513  35.347   8.000   0.778 -0.0739 -0.0462 -0.3836
87526W        W62514  21.465   0.071  16.302  0.1258 -0.0603 -0.1237
87527W        W62515  33.742   5.526   2.225  0.3428 -0.0139 -0.1114
87528W        W62516  16.665  29.549  20.199  0.1724  0.1387  0.1115
87529W        W62517  21.516   2.762  25.282 -0.0848 -0.0315 -0.0321
87530W        W62518  22.453   9.325  26.035 -0.3668  0.0970 -0.0990
87531W        W62519   7.604  28.873   5.590  0.0914  0.3096  0.1210
87532W        W62520   0.526   9.639  18.672  0.0060 -0.0369  0.1299
87533W        W62521   9.174  22.345   9.451 -0.1239 -0.1256  0.0609
87534W        W62522  20.261  18.228  23.066 -0.2704  0.3820  0.1359
87535W        W62523   6.364  33.197  25.818  0.0280  0.0213 -0.0897
87536W        W62524  26.692  18.183   7.441  0.2493  0.2865 -0.1435
87537W        W62525   1.859  22.439  15.448 -0.1159 -0.2875 -0.0483
87538W        W62526  14.045  33.170   5.969 -0.1638 -0.0621 -0.0222
87539W        W62527  28.206  19.226   8.192 -0.2210  0.4139  0.1943
87540W        W62528  20.758   5.782  18.642 -0.0151  0.0550 -0.4255
87541W        W62529  25.666  30.839   1.303 -0.0791 -0.4426 -0.1227
87542W        W62530  14.807  28.131  21.479 -0.0260  0.2306 -0.1979
87543W        W62531  17.781   1.540   7.708  0.0166 -0.0170  0.1387
87544W        W62532  17.467   7.666   0.623 -0.1716 -0.1162 -0.1078
87545W        W62533  33.620   0.111  13.999  0.1347 -0.0843  0.0277
87546W        W62534  34.490   8.098  20.970 -0.3431 -0.1289 -0.3110
87547W        W62535   7.923  25.552   8.665  0.0664  0.1693 -0.2464
87548W        W62536  11.694  18.027   7.318 -0.1652  0.1399 -0.0653
87549W        W62537  31.235  17.985  20.365  0.1499  0.0310 -0.0673
87550W        W62538  23.926  28.992  23.511 -0.3485  0.1216 -0.2685
87551W        W62539   7.198  26.556   4.833  0.1180  0.0420  0.0874
87552W        W62540  10.973  23.870  16.367  0.1221 -0.2344  0.0687
87553W        W62541  19.535  14.517  23.633  0.1138  0.1615 -0.2881
87554W        W62542   9.420   7.632   3.205  0.2020  0.1686 -0.0387
87555W        W62543  14.291   4.357   4.252 -0.1317  0.0554 -0.2222
87556W        W62544   1.081  15.478  21.460 -0.0306 -0.1098  0.0639
87557W        W62545  11.260  16.180   4.827 -0.0183 -0.1106  0.1652
87558W        W62546  19.936   7.261  16.583 -0.2815 -0.0632  0.1613
87559W        W62547  14.759   3.413   7.647 -0.0537 -0.0177  0.0559
87560W        W62548  21.744  23.039  17.611 -0.1972 -0.1404 -0.2017
87561W        W62549  21.244   9.417   1.920  0.0792 -0.0172  0.0061
87562W        W62550   5.831  11.409  24.496 -0.5446  0.1450  0.4343
87563W        W62551  10.893  13.076   1.492  0.1663 -0.1669  0.0924
87564W        W62552   4.988   3.858  24.462 -0.3682 -0.1851  0.1473
87565W        W62553   1.631   1.190   1.727 -0.1014  0.0494 -0.0297
87566W        W62554  23.728   5.089   0.547  0.0049 -0.2080  0.2213
87567W        W62555  27.840  25.003  17.253 -0.1991  0.4133 -0.0014
87568W        W62556   1.579  12.667   1.291 -0.0653 -0.0468 -0.2109
87569W        W62557   9.540  20.310   5.873 -0.1947 -0.0492  0.1351
87570W        W62558  29.503  23.222  25.397  0.2924  0.0880  0.0244
87571W        W62559  29.680  12.837   5.897  0.1235  0.1020 -0.0869
87572W        W62560  12.697   6.000  22.813  0.0428 -0.2757  0.1672
87573W        W62561   7.838  21.361   4.030 -0.0504 -0.1702 -0.3233
87574W        W62562   8.087  25.529   7.677  0.1201  0.0379 -0.0036
87575W        W62563   9.127  15.422  23.695  0.3797 -0.2751  0.0106
87576W        W62564  30.344   8.431   9.681  0.5165  0.0517 -0.3248
87577W        W62565  24.557  34.691  23.883  0.2893  0.0236 -0.0647
87578W        W62566   9.351  28.890   7.310  0.1974  0.1857  0.2308
87579W        W62567  23.287  11.740  17.389  0.2013 -0.4048 -0.2188
87580W        W62568   1.824  21.087  24.591 -0.1073 -0.2809  0.1007
87581W        W62569  30.671  19.987  19.663 -0.0501  0.0216  0.1457
87582W        W62570   8.769  19.983   6.224  0.3556  0.0007  0.0258
87583W        W62571  16.205  32.747   8.779  0.1204  0.2204 -0.1261
87584W        W62572  18.980  17.238  24.783  0.0614  0.1226  0.4502
87585W        W62573  15.860  27.805   4.919 -0.5149 -0.4117 -0.0617
87586W        W62574  34.587  16.874  18.601 -0.2008 -0.1343  0.1430
87587W        W62575  28.686  23.725  17.075  0.2413  0.3295  0.0636
87588W        W62576   1.862  12.305  19.851 -0.0437  0.1244  0.0254
87589W        W62577  11.761  16.303  12.081  0.0922 -0.0254 -0.1171
87590W        W62578   8.656  12.634  22.024  0.1693 -0.0978 -0.0781
87591W        W62579   0.170  34.699  21.616 -0.0944 -0.1093 -0.0865
87592W        W62580   1.211   9.605   0.393  0.2104  0.0332  0.3110
87593W        W62581  23.980  24.345  12.727 -0.0456  0.0672  0.0939
87594W        W62582   6.726  27.629   3.503  0.1817  0.0792 -0.1922
87595W        W62583   8.481   7.837  19.917  0.0763  0.0275 -0.1753
87596W        W62584  34.159   2.285  13.484 -0.1267  0.2664  0.0959
87597W        W62585  17.665  28.920  21.451  0.0224  0.1594  0.1562
87598W        W62586  34.601  19.348  19.872 -0.1533 -0.0078 -0.2091
87599W        W62587  14.785  12.953   9.105  0.0266  0.2587 -0.3463
87600W        W62588  28.337   0.874  22.791 -0.1350 -0.1602 -0.1706
87601W        W62589  11.980  18.927   0.845  0.0558  0.4079 -0.2670
87602W        W62590  18.389  35.254  25.631 -0.2704 -0.0208  0.1797
87603W        W62591  31.939  26.657  11.760 -0.3756  0.0930  0.0092
87604W        W62592  27.754  32.856  13.745  0.2349 -0.0146 -0.1870
87605W        W62593  13.434  26.996   6.617 -0.0520 -0.0511 -0.2768
87606W        W62594  31.074  23.307  23.863  0.2430  0.2619 -0.0227
87607W        W62595   7.640  31.776   1.835 -0.1415 -0.3170  0.1557
87608W        W62596  15.302   2.176   0.840  0.0617  0.1716 -0.3460
87609W        W62597  23.428  11.384  15.433 -0.2803  0.2838 -0.4872
87610W        W62598  13.848   1.054  21.772  0.0408 -0.0815  0.0732
87611W        W62599  10.572  31.476  23.416  0.0254 -0.0261  0.2363
87612W        W62600  16.927  34.860   1.185  0.0451 -0.0454 -0.1642
87613W        W62601  23.438  28.603  14.966  0.1223 -0.1294 -0.1798
87614W        W62602  18.588  24.940   9.712 -0.0075 -0.3499  0.0917
87615W        W62603   2.756  11.755  17.638  0.3768 -0.1648 -0.1189
87616W        W62604  15.122  22.839  14.890 -0.1053 -0.1336 -0.0937
87617W        W62605  30.779   0.039  23.459  0.2517  0.1437 -0.2190
87618W        W62606   4.168   6.629   2.150  0.1788  0.1060  0.2890
87619W        W62607  15.217   9.093   7.073  0.0244 -0.3899 -0.2825
87620W        W62608   7.368  23.187   1.592 -0.3099  0.2321 -0.0244
87621W        W62609  14.128  17.579   3.473  0.2406 -0.0935 -0.1354
87622W        W62610  24.656  27.466  14.668 -0.2153  0.1746 -0.2989
87623W        W62611  33.920  22.546  23.909 -0.0485  0.1404  0.0318
87624W        W62612  26.722  21.594   7.313  0.3362 -0.0275 -0.2356
87625W        W62613   8.174  21.979  24.153  0.4310  0.1557  0.0799
87626W        W62614   6.256   9.145   7.942  0.2310 -0.1619  0.2427
87627W        W62615  12.353  28.396   1.993  0.1059  0.1067 -0.5216
87628W        W62616  13.605  30.221   5.971 -0.0092  0.0989 -0.1686
87629W        W62617  21.841   9.745  25.495  0.0366  0.1992  0.0624
87630W        W62618  12.036  27.060   6.529  0.0351  0.2154 -0.2308
87631W        W62619  13.121  18.136  12.015  0.1820 -0.1617  0.2491
87632W        W62620   0.987  12.314   0.459 -0.0695  0.0749  0.1417
87633W        W62621  29.469  26.966  26.078 -0.0586  0.3684  0.0390
87634W        W62622  29.298  13.973  14.281 -0.1809  0.0289  0.2674
87635W        W62623   6.748  28.541   2.465  0.0928 -0.1321 -0.0306
87636W        W62624  19.340   0.082  25.349 -0.0037 -0.2631 -0.1249
87637W        W62625  22.903  21.598  14.721  0.0762  0.2197 -0.2297
87638W        W62626  28.200   6.676  20.370  0.1373 -0.3375  0.0336
87639W        W62627  25.059  31.698   2.451 -0.1060  0.1686 -0.0865
87640W        W62628  31.403  11.812   6.595 -0.0520  0.1322 -0.1926
87641W        W62629   0.512   8.707   0.355 -0.1997  0.2292 -0.0944
87642W        W62630   2.342  21.392  16.782  0.0733  0.4374  0.0987
87643W        W62631   1.017  14.711  15.656 -0.3948  0.0388 -0.1187
87644W        W62632  19.245  31.002  22.496 -0.2154 -0.0677  0.0378
87645W        W62633  28.674  14.172   0.647  0.1187 -0.0949 -0.2137
87646W        W62634  30.220   8.086  16.129  0.3224 -0.0623 -0.0923
87647W        W62635  12.396  34.971  14.457 -0.0781 -0.1942 -0.1072
87648W        W62636  30.708  19.953  22.484 -0.0582 -0.3512  0.0917
87649W        W62637  19.162  28.727  20.328 -0.2099  0.0429 -0.3081
87650W        W62638  10.548  20.011   1.490 -0.1347 -0.1735  0.0091
87651W        W62639  31.928   3.474  25.674 -0.0386  0.0532  0.2395
87652W        W62640  17.188  14.634   7.790  0.0147 -0.0317 -0.0467
87653W        W62641   2.595  23.291  18.174  0.3092 -0.0072  0.0532
87654W        W62642  33.981  21.521  23.334 -0.0603 -0.2698  0.0450
87655W        W62643   9.215  29.495   5.251 -0.0959 -0.0874 -0.0146
87656W        W62644  10.920  19.683  25.216 -0.1821 -0.1034  0.2049
87657W        W62645  34.625   5.251  15.949 -0.0286  0.0022 -0.4026
87658W        W62646   9.178   7.387  10.886  0.0258  0.1697 -0.1006
87659W        W62647  21.912   0.149  24.263 -0.0272 -0.2606 -0.0149
87660W        W62648  28.905  31.982   5.022 -0.1938 -0.0446  0.0945
87661W        W62649  20.097  11.885   9.492  0.1658 -0.0149 -0.3011
87662W        W62650  19.829  28.805  23.597 -0.2073  0.0566  0.0124
87663W        W62651  33.119  25.442  22.738 -0.0224  0.3567  0.3149
87664W        W62652   5.161  34.534  20.886 -0.1237  0.1669  0.1151
87665W        W62653   3.414  32.235   9.438  0.1658  0.2355 -0.0004
87666W        W62654  27.880  30.432   1.900 -0.0194 -0.0045 -0.2326
87667W        W62655  34.884  31.736  17.340 -0.1588 -0.1070  0.0749
87668W        W62656  21.254  10.253   3.927 -0.1433  0.2730  0.0825
87669W        W62657   2.693  25.657  25.585 -0.0762  0.1514  0.4195
87670W        W62658  31.727  11.693  13.667  0.2701 -0.2724 -0.1657
87671W        W62659  18.077  28.309  22.849  0.1847  0.0884  0.2211
87672W        W62660   4.509   5.173   8.677  0.1881 -0.1743 -0.2308
87673W        W62661  23.221  21.195   0.942  0.1223  0.1281  0.2403
87674W        W62662   3.736  25.928   1.459  0.1743  0.2051 -0.0630
87675W        W62663  22.475  30.809  18.022 -0.3488 -0.0889 -0.0331
87676W        W62664  22.388  32.880  19.428 -0.1120  0.0766 -0.2058
87677W        W62665   6.751  11.141  24.266 -0.0691 -0.4963 -0.0708
87678W        W62666  25.560  24.447  18.334  0.0483 -0.2593  0.0538
87679W        W62667  20.732  24.623  26.030  0.0150  0.0555  0.1907
87680W        W62668   8.529  11.265   4.364  0.1145  0.0079  0.2301
87681W        W62669   6.397   9.894  19.260  0.0197 -0.1832 -0.1435
87682W        W62670  15.708   9.772  10.649  0.0824 -0.2695 -0.2820
87683W        W62671  19.356  23.702  25.431 -0.2282 -0.0712 -0.0847
87684W        W62672   2.771  23.939  24.336 -0.1429 -0.1985  0.2089
87685W        W62673   0.718   9.884  14.736  0.0634 -0.0481 -0.0662
87686W        W62674  32.501  17.657   8.887 -0.0771 -0.1211 -0.4330
87687W        W62675  25.696   4.053  17.584 -0.1312  0.0332 -0.2203
87688W        W62676  15.339   9.725  23.228 -0.1093  0.1138 -0.2369
87689W        W62677  10.029  25.576   6.974  0.0287  0.0647  0.2885
87690W        W62678   5.461   4.590  20.841  0.0172 -0.1102 -0.0445
87691W        W62679  15.220  14.596   1.637  0.0589  0.2322  0.0230
87692W        W62680   0.553  21.784  24.040 -0.0631 -0.4232 -0.0559
87693W        W62681  35.100  18.162  10.992 -0.2710 -0.1408 -0.0026
87694W        W62682   8.323  33.096  25.523 -0.1959  0.0831  0.3527
87695W        W62683   4.396   5.563  19.457 -0.0100 -0.0582 -0.1153
87696W        W62684  12.707   8.805   9.599  0.0303  0.1233 -0.3481
87697W        W62685   4.328   5.791   4.150  0.1222 -0.1480 -0.1786
87698W        W62686   3.736  22.038  14.712 -0.1787  0.0982 -0.1888
87699W        W62687  12.389  13.056   0.276 -0.2055  0.1091  0.1473
87700W        W62688  32.737  21.201   6.719  0.3409  0.1323  0.1164
87701W        W62689  10.979   2.851  13.480 -0.2542 -0.0017 -0.2570
87702W        W62690  10.280   6.670   7.393  0.1741  0.0148  0.1316
87703W        W62691  29.687   4.662  18.515 -0.1531  0.0648  0.1886
87704W        W62692  32.161  31.389   1.071 -0.0573 -0.1952 -0.0163
87705W        W62693  24.784   5.476  17.193  0.1610  0.1112 -0.1385
87706W        W62694   7.860  11.314  21.024  0.1729 -0.2197  0.0884
87707W        W62695   8.976   8.752  13.856  0.2471  0.0537  0.1353
87708W        W62696  22.130  33.527   7.167  0.2754 -0.0963 -0.3421
87709W        W62697  17.039  19.838   6.374 -0.0902 -0.2071 -0.0128
87710W        W62698  10.239  25.025   3.116 -0.0743  0.2549 -0.2498
87711W        W62699  12.608  27.923  13.016 -0.3524 -0.2057 -0.0626
87712W        W62700   8.708   1.846   8.444  0.0273  0.3659 -0.2168
87713W        W62701  15.496  34.746   6.886  0.2107 -0.1481 -0.1532
87714W        W62702  17.726   9.434   6.616  0.0301  0.0712 -0.0445
87715W        W62703  15.209  13.234  21.517  0.0667  0.1347 -0.0956
87716W        W62704  18.137  33.417   0.114  0.0850  0.1566  0.1853
87717W        W62705  30.264  20.117  10.279  0.2617  0.3601 -0.2386
87718W        W62706  20.118   1.878  18.065  0.0252 -0.0348 -0.1675
87719W        W62707  29.759  33.423   0.689 -0.1618  0.0951  0.1162
87720W        W62708  15.225  29.244   4.272  0.1596 -0.1797  0.0404
87721W        W62709  21.810  13.243  24.324 -0.1363  0.0944  0.0501
87722W        W62710  28.950   3.721  25.289  0.4219 -0.0420  0.3138
87723W        W62711   9.580   4.793  13.966 -0.0821 -0.1187 -0.1767
87724W        W62712   8.790  27.638   9.117 -0.1423 -0.0833 -0.0708
87725W        W62713  24.468  14.088  23.498 -0.1242  0.1436 -0.0040
87726W        W62714  34.545  33.603  19.314  0.0075 -0.0984  0.0583
87727W        W62715  19.498  12.542   0.362  0.0732  0.0257 -0.0168
87728W        W62716   7.250  30.432   0.479 -0.3481 -0.3704 -0.0999
87729W        W62717  15.254  32.243  20.655 -0.2719  0.0814  0.1489
87730W        W62718  30.562  22.079  23.384 -0.0491  0.2441 -0.2138
87731W        W62719  25.490  16.511  24.977  0.2713 -0.0910 -0.2994
87732W        W62720  19.226  13.889  17.660  0.1006  0.0587 -0.0014
87733W        W62721  16.746  22.135   7.227 -0.3088 -0.3556  0.1277
87734W        W62722  34.932   4.902  19.638 -0.1582  0.0802 -0.2645
87735W        W62723   9.509   9.607   2.600  0.3217  0.0709  0.0174
87736W        W62724  32.995  22.621  16.555  0.1512  0.0218 -0.1101
87737W        W62725  30.290   9.384   9.205  0.0194 -0.2256 -0.3287
87738W        W62726  27.887   7.899  25.304  0.3713 -0.0814 -0.1050
87739W        W62727  15.826   2.053  21.587  0.2140  0.0242  0.1551
87740W        W62728  14.401  15.188   1.685  0.0229 -0.0797 -0.3230
87741W        W62729  35.200   3.404   1.977  0.0172 -0.0861  0.1469
87742W        W62730  26.318   5.881  19.000 -0.1666 -0.1983  0.0226
87743W        W62731  30.754  31.803  23.367  0.0773 -0.1142 -0.0900
87744W        W62732   2.508  12.241  19.784 -0.0547  0.0968 -0.0541
87745W        W62733  13.395   5.366   8.793 -0.1180  0.1131  0.0348
87746W        W62734  21.514  14.949  17.454 -0.2779  0.1589  0.0695
87747W        W62735  15.740  29.197  22.754 -0.0336  0.1887  0.1248
87748W        W62736  12.190   7.544   2.357 -0.1274 -0.1280  0.1765
87749W        W62737  18.137   4.564   2.967  0.2576  0.0008 -0.1318
87750W        W62738  31.502  13.265   8.244  0.1628  0.3508  0.0584
87751W        W62739  15.291  18.785  22.157  0.0970  0.0580  0.2239
87752W        W62740   0.842  10.767  22.888  0.3552 -0.1315 -0.0364
87753W        W62741  35.190  33.299  25.757 -0.1351 -0.3739 -0.2000
87754W        W62742   9.963  34.424  22.874 -0.3098 -0.2539  0.1256
87755W        W62743  29.994  20.733  11.588  0.0230  0.0289 -0.1606
87756W        W62744  32.411  25.039  13.250 -0.0169  0.0399  0.4541
87757W        W62745   8.415  31.384   4.571  0.3171 -0.2283  0.1642
87758W        W62746   6.168   0.018  20.424 -0.2151  0.2349 -0.3308
87759W        W62747  19.168  14.003   5.155 -0.2393 -0.1818 -0.1492
87760W        W62748  33.067   8.040  14.756 -0.1477  0.0772  0.1220
87761W        W62749  14.576  14.998  12.933 -0.0423  0.0332  0.0263
87762W        W62750  23.226  34.581   4.431  0.1644 -0.0788 -0.0817
87763W        W62751  10.229  27.257   6.367  0.0218 -0.1043  0.1229
87764W        W62752  28.098   0.117   5.492 -0.4619 -0.1039  0.0087
87765W        W62753  15.393   7.176   2.747 -0.0967 -0.2689  0.2567
87766W        W62754  23.378   0.051   2.055 -0.0984 -0.2963 -0.0932
87767W        W62755  23.863  24.488  24.891  0.2709 -0.1836 -0.1615
87768W        W62756   0.043   0.699   4.633  0.3560 -0.1474  0.2374
87769W        W62757  24.365  33.922  22.722 -0.2844 -0.2650  0.0396
87770W        W62758  15.582  10.840   7.340  0.2860 -0.1795  0.1063
87771W        W62759  31.099  24.196  15.705 -0.2064  0.0022  0.0078
87772W        W62760  11.013  13.318   4.674  0.3051  0.0725  0.3893
87773W        W62761  24.156   0.336   0.129 -0.1652 -0.0545 -0.0315
87774W        W62762  27.275  23.135   7.835 -0.1227 -0.0630  0.0017
87775W        W62763  14.595  20.578  21.889 -0.0093  0.0942  0.0562
87776W        W62764  14.516   2.801   9.086 -0.4693  0.1600  0.2154
87777W        W62765  12.832  32.790  20.152 -0.0356  0.1741 -0.2616
87778W        W62766   1.601  30.420  18.367 -0.1669 -0.2972 -0.1042
87779W        W62767  12.253  24.492  14.709  0.2388  0.3080 -0.1980
87780W        W62768   8.893   5.217  10.666  0.2088 -0.1369 -0.0089
87781W        W62769   5.652  23.987   0.510 -0.2643 -0.0175 -0.0898
87782W        W62770  18.531  14.917   1.480  0.1700  0.0001  0.0863
87783W        W62771  29.933  14.563  16.855  0.0254 -0.1115  0.3981
87784W        W62772   3.093  15.565  18.355  0.2547  0.0408  0.1000
87785W        W62773  19.983   5.599  25.599 -0.2208 -0.1324  0.0635
87786W        W62774  17.535  35.052  24.081  0.0337  0.0223  0.2403
87787W        W62775  22.687   2.503  25.554 -0.0722 -0.0568 -0.1883
87788W        W62776  14.750   3.160  11.461 -0.0217  0.0107 -0.1993
87789W        W62777  12.450  34.265   7.060  0.0220 -0.1592  0.1817
87790W        W62778  27.789   5.033   0.402  0.1338  0.2166 -0.2235
87791W        W62779  19.475  33.360  22.012 -0.1589 -0.0399  0.0729
87792W        W62780  21.297  18.001   0.312 -0.0245 -0.0942  0.0326
87793W        W62781   8.225   5.763  22.350  0.0980 -0.3153 -0.1723
87794W        W62782   5.644  30.833  10.058  0.1274  0.0254 -0.1742
87795W        W62783  25.367  18.373   9.928  0.2054  0.0660  0.3210
87796W        W62784   2.109  11.610  20.074 -0.0914 -0.4522 -0.0346
87797W        W62785  26.534  27.090  18.998  0.3509  0.2951 -0.0599
87798W        W62786  15.226   7.720   1.896 -0.1366 -0.1429 -0.0851
87799W        W62787  34.196  17.991  12.313  0.3326 -0.1557 -0.0375
87800W        W62788  20.981  21.562  25.855 -0.1386 -0.0490 -0.1203
87801W        W62789  32.015  20.507  10.769 -0.4188 -0.0280 -0.1698
87802W        W62790  21.111  11.698  24.798  0.1768  0.0429  0.1140
87803W        W62791  12.054  29.159   2.294  0.0496 -0.0406 -0.0807
87804W        W62792  21.308  32.132   4.889  0.1760 -0.2546 -0.4853
87805W        W62793  32.370   5.526   4.622 -0.0424 -0.1002 -0.2284
87806W        W62794  15.902  22.807  25.295 -0.2741 -0.1832 -0.1815
87807W        W62795  23.078  30.958  13.682 -0.2330 -0.1927  0.1210
87808W        W62796  32.089  16.851   7.840 -0.2949 -0.0048 -0.3105
87809W        W62797  23.721  15.620  11.287 -0.1021 -0.2290  0.1377
87810W        W62798   0.412   4.591   3.596 -0.1032  0.0630 -0.1066
87811W        W62799  17.682   9.408   3.133 -0.0582 -0.1502 -0.0279
87812W        W62800  23.303   4.886  25.832 -0.0319 -0.1349  0.0599
87813W        W62801   9.107  33.878   9.859 -0.0550 -0.1219 -0.0068
87814W        W62802  17.291  30.927  22.244  0.2713 -0.1785  0.0413
87815W        W62803  24.353  33.522   5.532  0.0445 -0.2384  0.1070
87816W        W62804  29.585  29.626   0.749 -0.1246  0.1990  0.0562
87817W        W62805   6.423  24.358   7.860 -0.1589 -0.1252  0.1422
87818W        W62806  28.799  29.169   3.207  0.1798 -0.2881 -0.0451
87819W        W62807  18.317  21.452   3.874 -0.0376  0.1243 -0.0690
87820W        W62808   5.085   1.337   6.219 -0.3527 -0.0439  0.2758
87821W        W62809  33.799   6.486  19.523  0.0839 -0.1028 -0.1905
87822W        W62810   9.160  20.723  12.345 -0.1621 -0.1753  0.2727
87823W        W62811  10.489  24.456  23.428  0.2814  0.1972  0.0957
87824W        W62812  17.376  19.299  13.237 -0.0765 -0.0603 -0.1659
87825W        W62813   2.370  10.857  21.883  0.1610 -0.2575  0.0473
87826W        W62814  11.941  26.773  25.287  0.3873 -0.0911  0.0954
87827W        W62815   3.209  18.905  14.936 -0.1957 -0.2431 -0.2467
87828W        W62816  33.263  33.999   7.576  0.1068 -0.0471  0.0716
87829W        W62817  23.912   2.869  24.325  0.1076 -0.0520  0.3557
87830W        W62818  11.846  32.367  12.635 -0.4678 -0.2728  0.6630
87831W        W62819  33.331   5.721   4.812 -0.2122  0.1509  0.1997
87832W        W62820  28.709  29.143   4.057 -0.0960 -0.0629 -0.1048
87833W        W62821  16.817  23.616  13.201  0.0651  0.2814 -0.0627
87834W        W62822  16.006  15.604   7.094 -0.0584 -0.2380  0.2381
87835W        W62823  24.468  14.428  21.317 -0.2305 -0.0415 -0.0322
87836W        W62824  27.390  13.514  15.769 -0.1499 -0.0153  0.1853
87837W        W62825  28.535  12.700  24.096  0.0643 -0.0468  0.0788
87838W        W62826  31.632  23.271  15.860  0.3611  0.2636 -0.1074
87839W        W62827   6.563  26.126   2.911 -0.0064 -0.2550  0.1807
87840W        W62828  31.164   9.042   9.504 -0.0317  0.2373 -0.0197
87841W        W62829  11.814  13.190   3.928 -0.2531 -0.3248 -0.1243
87842W        W62830   9.757  16.753  12.691  0.2433  0.0083  0.3019
87843W        W62831  23.086  17.446   2.131  0.0390 -0.1737  0.1357
87844W        W62832  27.916  31.729  10.730 -0.0454  0.1796 -0.1325
87845W        W62833  24.063  19.204  15.603 -0.0864 -0.0274  0.0284
87846W        W62834  25.565   7.428  20.629  0.4436  0.0463 -0.0321
87847W        W62835  30.065  17.880   4.557  0.1442  0.2697 -0.3357
87848W        W62836  11.992  15.114  26.141  0.0084  0.0495 -0.1699
87849W        W62837  16.235  22.013   6.098  0.0255  0.0600  0.2935
87850W        W62838   7.771  21.570   7.174  0.2434  0.0617 -0.2200
87851W        W62839  24.409   0.534  20.425  0.0047  0.0883  0.0739
87852W        W62840  30.537  10.014  13.311  0.1925 -0.0484  0.1267
87853W        W62841  17.046  19.310  23.460  0.3455 -0.5023 -0.1589
87854W        W62842  20.001  27.037  17.570 -0.1422 -0.0050  0.1420
87855W        W62843   4.570  15.647   0.663  0.3151  0.1850 -0.1745
87856W        W62844   1.943  24.577  22.056  0.0875 -0.1741  0.0687
87857W        W62845  30.632   8.958  19.464 -0.1656 -0.0427  0.1085
87858W        W62846   9.914  20.644   8.497  0.2281  0.0565  0.5979
87859W        W62847  18.135   1.712  24.087 -0.0338  0.1006  0.1002
87860W        W62848  24.722  34.219  20.088 -0.0974  0.1082 -0.0625
87861W        W62849   5.196  24.435   0.046  0.2728  0.1000  0.0374
87862W        W62850  34.958  16.646  25.560 -0.1252  0.0782  0.1732
87863W        W62851  18.768  33.986  17.072 -0.0397  0.0385 -0.0764
87864W        W62852  10.608   8.863   2.222  0.2889  0.2967  0.1653
87865W        W62853   4.736  24.123   0.067  0.2223  0.1055  0.0441
87866W        W62854  25.709  21.270  12.308 -0.0710  0.1665 -0.1890
87867W        W62855   6.446  16.474   9.716 -0.0863 -0.1537  0.0629
87868W        W62856  22.062  29.170   0.828  0.1187  0.4049  0.2659
87869W        W62857  33.488  15.686  11.498  0.1020  0.0114 -0.1423
87870W        W62858  21.982  34.872   3.344  0.3433 -0.3711  0.1178
87871W        W62859   3.928  30.197   8.596  0.0799 -0.0385 -0.0753
87872W        W62860   9.385  28.491  15.490  0.3704  0.0962  0.0635
87873W        W62861  16.447   7.279  25.754 -0.0660 -0.1818 -0.1515
87874W        W62862  29.001  22.634   5.994  0.0031 -0.0942 -0.0845
87875W        W62863   1.205  19.427   1.825 -0.3592 -0.0625 -0.2874
87876W        W62864  19.006  21.104  11.594  0.1414 -0.0523 -0.0327
87877W        W62865  27.323  24.516  15.638 -0.3315  0.0674 -0.0843
87878W        W62866  11.120  25.223  10.860 -0.0699  0.1259  0.0464
87879W        W62867  33.021  30.465  26.034  0.1486  0.2507  0.0289
87880W        W62868  27.053  11.521  21.843 -0.3494 -0.1067 -0.0521
87881W        W62869  12.193  24.273  10.967 -0.1095  0.0799 -0.0551
87882W        W62870  27.843  10.422  11.675  0.0586 -0.0957  0.1427
87883W        W62871  25.493  34.610  13.921 -0.0018 -0.1910 -0.1193
87884W        W62872  25.513   9.956  18.097 -0.3342  0.1830 -0.2449
87885W        W62873  10.398   7.461  10.556 -0.0193  0.3147  0.1542
87886W        W62874  26.618  31.616  14.608 -0.2079  0.1309 -0.0863
87887W        W62875  10.424  22.324  24.043  0.3187 -0.1864  0.2415
87888W        W62876  25.703  29.358   2.291 -0.0398  0.1189 -0.0928
87889W        W62877   7.832   5.139  10.539 -0.0569  0.0564 -0.1205
87890W        W62878  15.290   7.932  12.451  0.0299  0.1223 -0.1139
87891W        W62879  34.371   3.499   5.532  0.2394 -0.2885 -0.0235
87892W        W62880  19.731  15.515   8.864  0.1057 -0.0484  0.0962
87893W        W62881  19.688  20.717   1.670 -0.1155 -0.4924 -0.1266
87894W        W62882  32.952   7.461   0.140 -0.0742 -0.0015 -0.0764
87895W        W62883  16.330  21.853   2.611  0.0363  0.3334  0.3445
87896W        W62884  29.433  19.549  11.350  0.1120 -0.0487 -0.2657
87897W        W62885  22.897  25.150  21.654  0.0476  0.3381 -0.1494
87898W        W62886  28.322  29.483   2.354  0.0212  0.0906 -0.2841
87899W        W62887  20.455  11.588   0.251 -0.4603 -0.1978 -0.1020
87900W        W62888  32.501   3.834   0.371  0.0941 -0.2444 -0.0907
87901W        W62889  13.818   4.821  21.617  0.0902  0.0408 -0.5592
87902W        W62890  22.904   3.349  17.982  0.1257  0.0053 -0.0477
87903W        W62891  13.145   4.370  19.193  0.1019  0.1399  0.3439
87904W        W62892   0.719  12.144  15.631 -0.0265 -0.5241 -0.0419
87905W        W62893  21.996   4.821  26.207  0.0764  0.1107 -0.0519
87906W        W62894   9.902  30.003   5.267 -0.0361 -0.0448 -0.1333
87907W        W62895  25.153  16.933  11.564  0.0265 -0.0362 -0.2164
87908W        W62896  29.474   1.505   1.284  0.1365  0.4861  0.1546
87909W        W62897  29.428  23.945   8.127 -0.2327  0.0640  0.0097
87910W        W62898   3.393  32.526  19.343  0.1111 -0.0322 -0.0553
87911W        W62899  12.438   0.671   6.237 -0.3366 -0.0858  0.0122
87912W        W62900  32.199  21.091  19.189 -0.0666  0.2446 -0.3053
87913W        W62901  10.416  33.607  25.550  0.0961 -0.1914  0.0186
87914W        W62902  12.363   6.503   7.607  0.1158 -0.3669  0.2059
87915W        W62903  12.570  33.119  14.685 -0.2369  0.0744 -0.0822
87916W        W62904   9.858   0.753   0.044 -0.0929 -0.0671 -0.0326
87917W        W62905   3.948  21.652  23.561 -0.2252 -0.1534  0.1171
87918W        W62906  30.685  12.138   0.523 -0.1068  0.1474 -0.1044
87919W        W62907  19.337  20.720  22.826  0.1094  0.3188  0.1898
87920W        W62908   7.705  28.939   8.681 -0.1786 -0.0197  0.2431
87921W        W62909  16.097  12.499  21.018  0.0223  0.0514 -0.2060
87922W        W62910   3.668  28.792   7.374 -0.0995  0.1093  0.0990
87923W        W62911  32.338  10.778  20.489 -0.2579 -0.1999  0.0068
87924W        W62912  21.274  32.915   7.033 -0.0138  0.1845  0.1587
87925W        W62913  10.509   2.919   5.930  0.0961 -0.0573 -0.3018
87926W        W62914  28.124   3.035  25.098 -0.0147  0.2009  0.4193
87927W        W62915  16.948  20.301   1.381 -0.0631  0.1495 -0.1860
87928W        W62916   9.438  18.350  12.159  0.1819 -0.3447 -0.1927
87929W        W62917   8.164  32.536  24.917  0.2401  0.0032 -0.0114
87930W        W62918  21.147  33.869  14.347 -0.2760 -0.0339  0.1095
87931W        W62919   7.138  15.920  21.570 -0.4515 -0.2938  0.1752
87932W        W62920   1.492  17.076  13.660 -0.1835  0.0326  0.0862
87933W        W62921   8.465  27.680  12.581 -0.1677 -0.0429 -0.0951
87934W        W62922  15.516   2.731  25.369 -0.1424 -0.0871 -0.0381
87935W        W62923  23.783  30.479  11.514 -0.0747  0.0055  0.3950
87936W        W62924  17.207  30.195  20.879  0.0185 -0.2074 -0.1789
87937W        W62925  30.600  22.270   4.191  0.0088 -0.1478  0.1752
87938W        W62926  31.501  11.471  25.682  0.0447 -0.1443  0.2329
87939W        W62927   6.932  22.075  22.176 -0.3568  0.0008 -0.1676
87940W        W62928   2.509  12.304  21.708  0.1030 -0.0672  0.1234
87941W        W62929  29.743  14.996   8.666  0.4007  0.2233  0.0976
87942W        W62930  31.049  30.300  16.732 -0.3163  0.1779  0.1081
87943W        W62931  20.291  32.584  19.355 -0.1740 -0.0790 -0.1641
87944W        W62932   1.333   5.579   2.374  0.0077  0.1359 -0.0371
87945W        W62933   3.233  29.993  24.422 -0.0495 -0.1445 -0.0819
87946W        W62934  26.089  24.947  25.722  0.0157 -0.0828  0.1209
87947W        W62935  33.251  15.035  20.674  0.2286 -0.0292  0.0520
87948W        W62936  28.520   6.777  12.283  0.0874 -0.2511  0.0035
87949W        W62937  32.352   8.248  23.810  0.1981  0.3347 -0.1243
87950W        W62938   5.140  19.193   4.001  0.1721  0.0568 -0.3437
87951W        W62939   7.949  12.600  11.738  0.0275  0.0320  0.2371
87952W        W62940  13.233   7.774  11.568 -0.1526  0.2245  0.1301
87953W        W62941  29.739  30.304  15.288 -0.0271  0.0750  0.2037
87954W        W62942  13.742  12.530  14.095  0.0081  0.0672 -0.0874
87955W        W62943  15.095  23.400  13.951 -0.3521  0.1722 -0.1733
87956W        W62944   1.693   7.747  14.631 -0.1099  0.1825  0.0252
87957W        W62945   3.919  33.010   4.243  0.0459 -0.1231  0.1593
87958W        W62946  24.534  30.824   0.132 -0.1069 -0.0200 -0.0771
87959W        W62947  30.232  25.681   7.709 -0.0673 -0.0403 -0.2470
87960W        W62948   8.607  20.592  25.880 -0.2665 -0.3072  0.0902
87961W        W62949  28.872  27.680  16.168  0.1436  0.1715  0.1410
87962W        W62950   1.707  33.999  16.928 -0.0271 -0.0589 -0.1842
87963W        W62951   5.932  13.431   4.105 -0.0155  0.0379 -0.0445
87964W        W62952  33.515  23.549  13.294  0.0797 -0.1352  0.1330
87965W        W62953  26.573  10.569   0.295 -0.0015  0.0636 -0.1471
87966W        W62954  25.918  24.264  19.333 -0.1673 -0.1620  0.0126
87967W        W62955  25.967  13.690   9.135 -0.1179  0.2021 -0.0326
87968W        W62956  10.829  21.922  16.011 -0.0061 -0.3927 -0.0097
87969W        W62957  27.979  33.837  25.780  0.0106 -0.1324 -0.0655
87970W        W62958  35.247  13.959  19.211 -0.1869  0.0689  0.1143
87971W        W62959   1.170   7.540  25.562  0.4581 -0.1786 -0.0923
87972W        W62960   7.957  21.832  22.030  0.2444  0.0888 -0.1316
87973W        W62961  11.626   2.835   5.801  0.5820 -0.1008 -0.3667
87974W        W62962  19.954  22.469  24.671 -0.2189 -0.0177 -0.1973
87975W        W62963   6.380   0.199   9.825 -0.3351 -0.1427  0.0250
87976W        W62964  15.260   1.352   4.302 -0.0623  0.0395 -0.0209
87977W        W62965   0.520  27.767  25.659 -0.1857  0.1299  0.1230
87978W        W62966  19.634  30.517   2.888 -0.0569 -0.1540 -0.0656
87979W        W62967  23.703   1.570   4.810 -0.0488 -0.0495 -0.0362
87980W        W62968  21.760   1.373  16.024  0.1567 -0.2309  0.0199
87981W        W62969  13.610  34.822   0.774 -0.2809  0.0292 -0.1493
87982W        W62970   3.082  30.347  22.798 -0.1527  0.1921  0.0977
87983W        W62971   3.438  34.823   0.219  0.4640  0.4523 -0.2219
87984W        W62972  21.377  13.831   3.396  0.3211 -0.0756  0.0010
87985W        W62973  30.457   7.020  16.111  0.0119 -0.0541 -0.1922
87986W        W62974  15.288  25.522   3.357  0.4939 -0.0369  0.3254
87987W        W62975   8.084   5.287  18.513  0.1782  0.1847  0.2907
87988W        W62976  21.490  23.222  22.356 -0.2768  0.0617 -0.0959
87989W        W62977  20.551   9.055  16.150 -0.2445  0.1287 -0.1949
87990W        W62978  23.973  10.323  16.229 -0.0785  0.0806 -0.1200
87991W        W62979   8.121  23.909   1.597  0.1590 -0.0029  0.3435
87992W        W62980  29.648  24.216  18.551  0.2279  0.0123  0.0327
87993W        W62981   6.074  31.041  22.089 -0.2429  0.0058 -0.0156
87994W        W62982  12.378   4.545  11.243  0.1400 -0.0013  0.1267
87995W        W62983   7.700  23.501  26.148  0.1502  0.3398  0.1330
87996W        W62984   6.545  33.086   8.736  0.0386  0.0123  0.0018
87997W        W62985  15.433   6.736  20.545 -0.1204 -0.0991  0.1234
87998W        W62986  14.968  21.438  10.668  0.0951  0.0438  0.2066
87999W        W62987  25.646   9.366  10.467  0.1765  0.0404 -0.0963
88000W        W62988   5.164  20.849   0.883  0.0676  0.0653  0.2823
88001W        W62989  33.020  28.428  19.281  0.0301  0.1010 -0.2067
88002W        W62990  10.048   9.987  23.493 -0.1219  0.0733 -0.0783
88003W        W62991  15.356  21.343  10.959 -0.1341 -0.1684  0.0971
88004W        W62992   6.434  32.537  10.061  0.0181 -0.0577 -0.0869
88005W        W62993  17.490   2.461  23.506 -0.0770 -0.1566 -0.2224
88006W        W62994   0.734  11.962   0.856 -0.2873  0.1176  0.0517
88007W        W62995   0.992  26.710  24.762 -0.2310  0.0812 -0.1541
88008W        W62996  14.774   3.679   8.220 -0.4312 -0.1501 -0.1715
88009W        W62997   4.225  10.600   7.075 -0.0044  0.2633 -0.1952
88010W        W62998  33.179   3.816  13.345  0.1122 -0.3020  0.2558
88011W        W62999  18.492  27.103  19.084 -0.4650  0.1459 -0.1205
88012W        W63000  12.810  20.863   0.788 -0.0119 -0.0438 -0.1435
88013W        W63001  25.105  16.089  18.626 -0.0864 -0.0271  0.2916
88014W        W63002  22.889   1.191  21.833 -0.0940  0.0306  0.3010
88015W        W63003  25.578  26.723   0.573 -0.1115  0.1084 -0.3310
88016W        W63004   5.647  17.987   6.472  0.0155  0.1168  0.0012
88017W        W63005  28.898  18.046  14.427 -0.0173  0.3684  0.4887
88018W        W63006  25.914   2.757  23.183 -0.0024 -0.2667  0.0001
88019W        W63007  14.513  12.350  11.436 -0.0976  0.1311 -0.3638
88020W        W63008  35.382  20.349  10.123  0.1123  0.0681 -0.1359
88021W        W63009  32.034  22.366  24.034 -0.1372 -0.1592  0.2142
88022W        W63010  26.470  33.852  10.888  0.1807  0.0506 -0.1091
88023W        W63011  28.733   9.690   6.819 -0.0267 -0.1990 -0.0465
88024W        W63012  31.209  30.933  21.619 -0.0082  0.1058 -0.0227
88025W        W63013  23.009   1.519   2.185  0.1433  0.1361  0.0558
88026W        W63014  11.750  20.891   5.276  0.1146  0.1360  0.1952
88027W        W63015   2.053  19.505  21.272  0.2049 -0.0093  0.0458
88028W        W63016  33.700  26.686   3.041  0.1239  0.2735  0.0187
88029W        W63017   4.762  10.049  16.717 -0.1941 -0.0402  0.0718
88030W        W63018  30.334   9.221   1.795  0.1198 -0.0452 -0.3312
88031W        W63019  16.442  10.843  24.023 -0.0601  0.1871 -0.1795
88032W        W63020  35.369   5.430  23.132 -0.0566 -0.1044 -0.0029
88033W        W63021  28.461   4.158   1.699  0.1692 -0.1838 -0.1934
88034W        W63022   9.481  32.524  10.290  0.3757 -0.2166 -0.0840
88035W        W63023  20.147  33.078   7.920  0.0159 -0.0908  0.0640
88036W        W63024  14.309  34.387  12.371  0.2101  0.1380  0.0795
88037W        W63025   5.365  31.466  10.631 -0.1043  0.0790  0.1507
88038W        W63026  21.192  15.009   1.899 -0.3411  0.2112 -0.1969
88039W        W63027  29.696  13.446   7.157  0.2175  0.2305  0.1221
88040W        W63028  17.229  16.542   8.684 -0.1441  0.0332 -0.1609
88041W        W63029  18.137  26.431  24.331 -0.1865 -0.0090  0.0411
88042W        W63030  29.324   5.941  16.689 -0.0839  0.0249  0.0785
88043W        W63031  29.213   7.569  25.811  0.1020  0.1690  0.1852
88044W        W63032  32.428  31.689  16.309 -0.0311  0.2656  0.0810
88045W        W63033  19.571  22.445   1.996 -0.0314 -0.2539  0.3415
88046W        W63034   2.739  14.893  17.289  0.1557 -0.3724  0.4110
88047W        W63035  35.115   4.612   7.054 -0.0768 -0.2439 -0.1502
88048W        W63036  30.532  11.509   0.297 -0.0287  0.0867  0.1051
88049W        W63037  31.835  19.582  26.064 -0.0856  0.1788  0.2411
88050W        W63038   0.771  15.889  11.638  0.1424 -0.1224 -0.3141
88051W        W63039   5.633  31.646   8.135 -0.0682  0.0436 -0.3375
88052W        W63040  33.386  32.046  22.479 -0.1549 -0.0180  0.0491
88053W        W63041   5.939  16.650  16.513  0.1283 -0.0744 -0.2459
88054W        W63042   6.223  17.289  19.259  0.2120  0.0550 -0.0681
88055W        W63043  12.010  29.515  15.533  0.1844  0.3754 -0.0523
88056W        W63044  29.034  27.898  24.747 -0.0280  0.1396 -0.1559
88057W        W63045  18.868   6.459  19.120  0.0777 -0.3165 -0.5458
88058W        W63046  33.904  29.155   1.904 -0.2582 -0.1007  0.5442
88059W        W63047   8.275  19.693  21.705  0.4116  0.1458 -0.0099
88060W        W63048  17.423  20.849  19.617 -0.0298 -0.2377 -0.0179
88061W        W63049   9.942  31.640  11.569 -0.0856 -0.3021 -0.2468
88062W        W63050  17.574  16.641   4.271 -0.2339 -0.0990 -0.0517
88063W        W63051  24.282  15.442  18.008  0.2291  0.0793 -0.0530
88064W        W63052  24.185  22.718   1.611  0.3786 -0.1253  0.0009
88065W        W63053  12.928  32.680   2.239  0.1222  0.0507 -0.1100
88066W        W63054   7.335  15.705  18.796  0.0256 -0.0547 -0.2409
88067W        W63055   1.663  21.693  24.103 -0.0375  0.0595  0.1313
88068W        W63056  20.122  21.203   2.163  0.1040 -0.0465  0.1738
88069W        W63057  18.524  23.621   0.287 -0.1249  0.0979 -0.0893
88070W        W63058  15.797  17.933  13.416  0.0376  0.1202 -0.1200
88071W        W63059  27.251  18.845   5.530 -0.2079 -0.0244 -0.4453
88072W        W63060  34.344   4.401  21.432  0.4939 -0.3729 -0.4479
88073W        W63061  25.054  24.096  17.151  0.0056 -0.0387 -0.1814
88074W        W63062  18.669   7.373   5.318 -0.0077 -0.1391  0.1344
88075W        W63063  12.284   2.775   1.492 -0.0080  0.1315  0.1665
88076W        W63064   6.160  35.282  13.323 -0.0660  0.1439 -0.2841
88077W        W63065  19.011  24.195   9.873 -0.1472 -0.1577 -0.1827
88078W        W63066  20.410   1.920   9.398 -0.0034 -0.3404  0.2889
88079W        W63067   5.522  24.136   2.917 -0.0870  0.0292  0.0906
88080W        W63068   2.389   5.392   5.141  0.1648 -0.0945 -0.0169
88081W        W63069   0.923  16.856  22.899  0.0798 -0.0925 -0.1986
88082W        W63070  34.953  27.808  25.784 -0.0615 -0.0247 -0.0034
88083W        W63071  23.078   7.469   5.295  0.0204 -0.0027 -0.5884
88084W        W63072  23.242  32.796   2.814  0.0716  0.3589  0.3345
88085W        W63073  12.405   3.526   3.070  0.0022  0.1254 -0.0584
88086W        W63074  27.550   6.108  12.813 -0.2308  0.1329  0.1821
88087W        W63075  35.319  32.115   2.050 -0.1033 -0.1124  0.2039
88088W        W63076   0.270  18.844  14.057 -0.0550  0.0878  0.0325
88089W        W63077   5.142  29.279   4.527 -0.0272  0.2123 -0.0450
88090W        W63078  28.129  19.024  20.199 -0.0868 -0.0059  0.0105
88091W        W63079   8.243  26.634  16.548  0.1273 -0.0523 -0.2027
88092W        W63080  13.601  22.511   9.157 -0.1317  0.0944  0.0434
88093W        W63081  33.048  28.000  16.247  0.0294  0.2709 -0.3512
88094W        W63082   6.640  29.786   6.398  0.2027 -0.0637  0.0741
88095W        W63083  30.639   6.355  25.006 -0.1106 -0.1636 -0.2926
88096W        W63084  34.911   3.603  23.555  0.0912  0.0721 -0.0302
88097W        W63085  25.606  27.492  22.073  0.2061 -0.0688  0.0385
88098W        W63086   9.166  18.050   7.443  0.3234  0.0533  0.1859
88099W        W63087  11.732  34.793   2.956 -0.2304 -0.2309  0.0110
88100W        W63088  19.103  32.305   7.527  0.1420  0.0172 -0.2688
88101W        W63089  20.181  19.085   5.818 -0.2797 -0.0481 -0.0196
88102W        W63090   8.291  11.187   3.918  0.1619  0.1662 -0.2726
88103W        W63091  28.513   6.149  17.518 -0.0479  0.0877 -0.3142
88104W        W63092  32.266  33.133   6.316 -0.3646  0.0886  0.1159
88105W        W63093   6.368   9.984   9.680 -0.0808 -0.0776 -0.3673
88106W        W63094  31.122   5.861  26.226 -0.0486  0.0485 -0.0483
88107W        W63095  23.164  21.090  22.799 -0.0604 -0.0906  0.0739
88108W        W63096  34.473   5.977  17.013  0.0829 -0.0073 -0.0061
88109W        W63097   6.362  31.557   3.141  0.0049  0.5477 -0.0217
88110W        W63098  33.238  10.505  10.106 -0.2259  0.1591  0.2569
88111W        W63099  17.086  15.986  19.773  0.0248 -0.1376  0.1563
88112W        W63100  13.924  33.423   1.204 -0.2159 -0.1385 -0.2411
88113W        W63101   9.091   3.931   0.000  0.1991 -0.0150  0.0164
88114W        W63102  14.821  24.397   6.064  0.1897  0.2239  0.0882
88115W        W63103  10.701  27.778   8.340 -0.0431  0.0729 -0.0780
88116W        W63104  13.457   3.584   3.865  0.1234 -0.1131 -0.1661
88117W        W63105   6.841  29.321   0.588  0.1805  0.2089 -0.1979
88118W        W63106  11.386  32.510   7.601 -0.0583  0.1293 -0.0640
88119W        W63107   6.071  18.422   3.361 -0.0015 -0.1050 -0.1951
88120W        W63108  25.154  25.544  24.565  0.0798 -0.2000 -0.0991
88121W        W63109  14.212  30.455   6.635 -0.2181 -0.3817  0.1208
88122W        W63110  24.756   2.892   4.338  0.2012 -0.2307 -0.1314
88123W        W63111  29.941   0.784  10.929 -0.2475 -0.1625  0.1518
88124W        W63112  19.820  16.003  16.278 -0.1241 -0.3419 -0.1615
88125W        W63113  11.617  10.023  26.200 -0.1414  0.4046 -0.0886
88126W        W63114  29.941  11.529  16.944 -0.0625 -0.0041 -0.1583
88127W        W63115  34.740  23.111   9.114 -0.0855 -0.1569  0.0868
88128W        W63116  34.452  17.027   6.326 -0.0136 -0.1397 -0.1729
88129W        W63117  34.188  23.186  13.757  0.2015  0.1688 -0.2919
88130W        W63118  29.654  16.284  16.323 -0.0108  0.0097  0.0309
88131W        W63119  12.776   1.894  23.451 -0.0346  0.4833  0.0076
88132W        W63120  16.024  15.671   3.811 -0.0254  0.0688  0.2906
88133W        W63121  16.663  12.352  13.053 -0.6114 -0.2238  0.0915
88134W        W63122  33.031  27.602   1.598 -0.2291  0.0760  0.0098
88135W        W63123  21.764   8.328  15.920  0.4502 -0.0214  0.0304
88136W        W63124  13.833   6.619  22.496  0.4898 -0.1432  0.1261
88137W        W63125   6.264  34.937  20.178  0.0853  0.0078  0.0398
88138W        W63126   2.626  24.811  21.256 -0.0777  0.1280 -0.0251
88139W        W63127  13.898   1.953  20.115 -0.1847 -0.2635 -0.2075
88140W        W63128  17.777  26.361   6.548 -0.1414  0.1527 -0.0753
88141W        W63129  19.170   0.582   1.095  0.0408  0.1478  0.0321
88142W        W63130   5.476   9.785  18.615 -0.2048 -0.1253  0.0185
88143W        W63131  34.280   0.440   5.381 -0.0873  0.2169 -0.0568
88144W        W63132   0.311  19.781   9.346  0.1115 -0.2073 -0.0748
88145W        W63133  22.398  29.704  18.231  0.0638  0.1232  0.2208
88146W        W63134  15.309  24.922  15.071  0.0583 -0.0513  0.0766
88147W        W63135  23.063   4.180   4.615  0.0587 -0.0857 -0.1712
88148W        W63136  22.603  28.906  20.323  0.1872  0.1504 -0.4115
88149W        W63137  33.949   3.430  25.050  0.0035  0.1862  0.0630
88150W        W63138  34.226   9.861  13.057  0.3565  0.1109 -0.1643
88151W        W63139  23.308  12.601   2.849  0.2523  0.1146 -0.1490
88152W        W63140  28.466  16.462  21.395 -0.5071 -0.1625  0.1571
88153W        W63141  15.868  20.000  15.415  0.0298  0.0314 -0.0129
88154W        W63142   8.219   7.166  11.220 -0.3597 -0.0510 -0.1232
88155W        W63143   7.869  28.891  24.735  0.1834 -0.1281 -0.0233
88156W        W63144  30.177  18.079   9.594 -0.1933 -0.1437  0.2233
88157W        W63145   7.749  13.457  18.121  0.0270  0.1433 -0.0702
88158W        W63146  16.560  15.745   0.980  0.0593  0.0082  0.1506
88159W        W63147  13.705  29.725   5.988  0.0303 -0.1062 -0.0378
88160W        W63148  14.462  24.073  14.164  0.1227  0.3463  0.1233
88161W        W63149  35.331   5.838  19.032  0.0101  0.0106  0.0053
88162W        W63150  12.932   5.615  11.221 -0.0728 -0.2508 -0.1387
88163W        W63151  17.042  35.139   3.888  0.2615  0.0495 -0.2469
88164W        W63152  34.595  28.556  23.943 -0.3966 -0.2399  0.0976
88165W        W63153  12.046  18.207  22.251 -0.2540  0.0537  0.0781
88166W        W63154  10.977  11.280  11.577  0.1107  0.0299 -0.1885
88167W        W63155  32.888  27.195  22.875  0.3114  0.0993  0.0063
88168W        W63156  28.344  23.125  17.526 -0.4146  0.3804  0.1096
88169W        W63157  20.834  32.423  18.081 -0.0618 -0.1328 -0.1598
88170W        W63158  20.492   4.361  25.368  0.3876 -0.1911  0.1010
88171W        W63159   7.331  13.468   7.049  0.0705 -0.1864  0.0323
88172W        W63160  33.475  30.736  19.732  0.3472  0.3096  0.0034
88173W        W63161  22.315  32.016  13.527 -0.0087  0.1847  0.1781
88174W        W63162   2.064  28.318  26.136 -0.2455  0.0751 -0.1376
88175W        W63163  28.477  32.932   2.497  0.4466  0.0242  0.0353
88176W        W63164   5.495  32.042  24.430 -0.0237  0.0969 -0.1922
88177W        W63165   3.808  11.694   0.153  0.1728 -0.4507  0.2117
88178W        W63166   3.596  34.499  10.369  0.1900  0.0827  0.1040
88179W        W63167   4.203  18.254  20.273  0.1653 -0.0821 -0.3948
88180W        W63168  27.984  17.502  17.021  0.1014 -0.2882  0.1759
88181W        W63169  13.084   9.625  25.044 -0.0311 -0.1279  0.3755
88182W        W63170   7.341   1.490  19.852  0.1414  0.0411  0.1597
88183W        W63171  24.501  22.506  23.924 -0.3212  0.3124 -0.0378
88184W        W63172  13.349   0.098   8.665 -0.0096  0.0499  0.3601
88185W        W63173  29.879  19.551  13.418 -0.0447  0.2369 -0.0640
88186W        W63174   7.080  32.016   6.130 -0.0245 -0.0429 -0.0583
88187W        W63175   6.468  14.932  26.104 -0.0924 -0.1962 -0.0349
88188W        W63176  18.448  16.403   0.807 -0.0573 -0.1403 -0.2684
88189W        W63177   6.960  27.843   1.496 -0.2340 -0.1438 -0.1852
88190W        W63178   5.294  29.086   3.819 -0.1330 -0.0250  0.2366
88191W        W63179   4.771   0.479  23.858 -0.1779  0.1529  0.0642
88192W        W63180   2.220  26.239  20.341  0.0084  0.2005 -0.0537
88193W        W63181  30.038   4.465  20.643  0.1532  0.1934 -0.1656
88194W        W63182   6.092   3.087   0.182  0.2465 -0.0939 -0.1903
88195W        W63183  27.819  17.492   8.301 -0.2343 -0.1254  0.0242
88196W        W63184  34.362  35.271  15.897  0.2343  0.0478  0.0192
88197W        W63185  30.826  25.030  21.060 -0.1682 -0.2121  0.1347
88198W        W63186   7.155  21.893   0.196 -0.0773 -0.1427 -0.2194
88199W        W63187   2.594  14.630  25.276 -0.1289  0.0432 -0.0652
88200W        W63188  18.342  15.747   2.068 -0.1600  0.0845 -0.1852
88201W        W63189   3.190   1.258  25.451  0.0537 -0.2889 -0.1468
88202W        W63190   7.182   1.174   1.798 -0.0194  0.0696  0.0590
88203W        W63191  24.756  28.588  18.787  0.2991 -0.0914  0.3453
88204W        W63192   5.093  12.148  22.091  0.0332 -0.4469  0.1067
88205W        W63193  18.262  22.043  10.073 -0.3295 -0.0606 -0.1682
88206W        W63194  20.061  30.948  20.010 -0.3794  0.1405  0.0455
88207W        W63195  16.582  26.329   6.574  0.1596 -0.2371 -0.1186
88208W        W63196  15.449  34.483   1.490  0.2954 -0.1842  0.0305
88209W        W63197  20.263  34.131   5.315 -0.0185  0.1006  0.0562
88210W        W63198  27.469  16.340  15.592  0.1322  0.1984 -0.0225
88211W        W63199  24.687  11.128  18.324 -0.2436  0.1888 -0.0532
88212W        W63200  11.238  31.209  13.114 -0.4371  0.0625 -0.0190
88213W        W63201  20.349  14.680  20.478 -0.0208  0.1091 -0.0398
88214W        W63202   3.171  10.289  14.462  0.0362 -0.1612  0.1109
88215W        W63203  12.822  14.598  11.346 -0.0957  0.0003 -0.1331
88216W        W63204   7.031  10.576   3.115  0.2816  0.0108  0.1259
88217W        W63205  24.859  19.145  20.133  0.2682  0.2100  0.3340
88218W        W63206  16.409  32.555   5.723 -0.0763 -0.2440  0.1340
88219W        W63207  24.450  11.767   3.318 -0.1220 -0.1294  0.1241
88220W        W63208  16.339  11.378  20.771  0.2499  0.3179 -0.0566
88221W        W63209   1.373   4.612  21.851 -0.2365  0.0147 -0.2461
88222W        W63210  27.518  12.246   8.354 -0.0357 -0.0480  0.1814
88223W        W63211   4.690  16.589  16.873  0.1290  0.2533  0.1094
88224W        W63212  23.804  11.000  20.836 -0.4582  0.1948 -0.1195
88225W        W63213  10.509  13.707  24.353 -0.3302 -0.0706  0.1355
88226W        W63214  10.703  10.338  13.241 -0.0276 -0.2516  0.0256
88227W        W63215  23.381  17.567  16.407 -0.0816  0.1670 -0.0673
88228W        W63216  12.283  23.728   3.026 -0.3261  0.1179 -0.2249
88229W        W63217  25.916  15.405  25.438 -0.1778  0.0697 -0.2663
88230W        W63218   0.269  31.071  19.290 -0.1438 -0.0313  0.2780
88231W        W63219  15.235  34.339   5.020  0.3640  0.2215  0.1228
88232W        W63220  24.273   1.167  12.398  0.0599  0.5347 -0.0476
88233W        W63221   1.345   4.952  19.185  0.0723 -0.0055  0.2539
88234W        W63222  26.345  27.002   1.925 -0.1789 -0.0832 -0.2950
88235W        W63223  17.544  27.039  12.264  0.3323  0.2455  0.0257
88236W        W63224  26.677  26.517   2.576  0.1907 -0.1215 -0.3585
88237W        W63225  14.892  26.835  25.082  0.1277 -0.2367 -0.2249
88238W        W63226  16.146   2.650  23.080 -0.0939 -0.1899 -0.0119
88239W        W63227  14.977  19.206  12.874  0.0495 -0.1960 -0.0032
88240W        W63228  15.715  22.760  11.858 -0.0777 -0.0137  0.3270
88241W        W63229  29.722   0.385   4.010  0.0673  0.0359 -0.3545
88242W        W63230  14.991  33.679   7.841  0.0971  0.1020 -0.0666
88243W        W63231  23.838   9.014  25.107 -0.1154 -0.2265 -0.0225
88244W        W63232  19.652  32.889   4.454  0.2401  0.2498  0.5657
88245W        W63233  22.971  17.290  24.648 -0.1215  0.0106  0.1872
88246W        W63234  27.838   3.121  23.794 -0.0813  0.0347 -0.6141
88247W        W63235  13.376  34.932   3.229 -0.0436 -0.0303 -0.1907
88248W        W63236  14.308   7.593   5.019 -0.1668  0.3235 -0.0013
88249W        W63237   1.675  26.555  24.020  0.1760  0.1134 -0.2346
88250W        W63238  24.890   9.838  14.187 -0.0373  0.0738 -0.0918
88251W        W63239  16.149   9.337  22.822 -0.2343 -0.1688  0.0269
88252W        W63240   4.590   8.861  25.801 -0.2279 -0.1530 -0.0820
88253W        W63241  17.650   1.646  18.403  0.1725 -0.1572 -0.2741
88254W        W63242  14.850  32.228   8.568 -0.0374  0.0574 -0.1806
88255W        W63243  28.514  23.907  13.943 -0.0310  0.0279  0.3413
88256W        W63244   1.590   1.749   6.611  0.1470 -0.0015 -0.3675
88257W        W63245  29.433   2.047  19.737 -0.2148  0.1368 -0.4615
88258W        W63246  32.244  14.573  11.157  0.1019 -0.1772 -0.2633
88259W        W63247  34.775   6.896  20.881 -0.0867 -0.1740  0.1711
88260W        W63248  24.199   9.158   0.247  0.2271 -0.3491 -0.1739
88261W        W63249  34.728  30.798   1.701  0.1384  0.0028 -0.0305
88262W        W63250  20.204  18.209   1.799 -0.0254 -0.0584 -0.3204
88263W        W63251  16.961  18.914  23.218  0.1024 -0.0159  0.0074
88264W        W63252  28.526  16.327  21.935 -0.0306 -0.0789  0.2043
88265W        W63253  31.160  24.542   8.713  0.0934  0.0696  0.1898
88266W        W63254  32.389   2.554  23.504 -0.1019 -0.0780 -0.3400
88267W        W63255  23.809  32.674  16.385 -0.1288  0.0162 -0.1752
88268W        W63256   6.678  35.060   4.192 -0.0700  0.2807  0.0148
88269W        W63257  19.582   4.341   1.300  0.3626  0.0299  0.1977
88270W        W63258  13.498   8.739  12.475 -0.2433  0.1203  0.1020
88271W        W63259  23.667  33.825   3.459  0.2719  0.1673 -0.0222
88272W        W63260  14.071  23.916   0.436 -0.3303 -0.0259  0.1663
88273W        W63261  27.567   6.958  14.806  0.0816 -0.0957 -0.0623
88274W        W63262   4.828   7.671  18.578 -0.0202  0.1414  0.1547
88275W        W63263  17.379   9.728   7.954 -0.5848 -0.1280 -0.2068
88276W        W63264  20.934  27.878   2.531 -0.2560  0.2232  0.1341
88277W        W63265  29.317  28.439  23.083 -0.0892  0.0046  0.0776
88278W        W63266  33.964  10.514  11.355 -0.1280 -0.0863  0.0306
88279W        W63267  16.498   3.367   0.533 -0.1226  0.0621  0.0726
88280W        W63268  11.501   1.091  12.000  0.1069 -0.0761 -0.0344
88281W        W63269  27.095   0.388  20.190 -0.2316 -0.1488 -0.1004
88282W        W63270   9.891  27.335   7.916  0.2398  0.0179 -0.1961
88283W        W63271  29.959   1.876   4.973  0.0468 -0.0911 -0.0436
88284W        W63272  30.499   4.630  17.404 -0.0520 -0.0949  0.2625
88285W        W63273  22.214   0.768   3.063 -0.1623 -0.0241 -0.2245
88286W        W63274  27.883  31.793  23.949  0.2657 -0.2741  0.0102
88287W        W63275  17.528  11.855  20.158  0.0221 -0.0066 -0.2658
88288W        W63276   0.413  13.101  14.396 -0.1728  0.3251  0.0235
88289W        W63277  17.678  31.535  20.057 -0.3860 -0.2146  0.3566
88290W        W63278  11.833  27.895  22.269  0.2052 -0.1299  0.0342
88291W        W63279  28.943  13.400   7.022  0.1117  0.0536 -0.0676
88292W        W63280   8.615  13.029   4.879 -0.3600  0.0281 -0.1504
88293W        W63281   1.674  22.117   1.689 -0.1798  0.3376  0.0695
88294W        W63282  26.231   0.298  12.673  0.1023  0.4263  0.1620
88295W        W63283  22.635  28.384  15.335 -0.2163 -0.1575  0.1130
88296W        W63284   1.659  26.770   1.930  0.0277 -0.0408  0.0049
88297W        W63285  25.784  25.822  24.717  0.1134 -0.2892  0.0484
88298W        W63286  12.425  28.446   1.516 -0.1349  0.3147 -0.0195
88299W        W63287  28.708  29.117  26.108  0.0403  0.0194  0.1556
88300W        W63288  30.533  18.929  23.578 -0.0187  0.1540  0.1031
88301W        W63289   9.330   8.940   3.507  0.0567  0.1894  0.0631
88302W        W63290  18.063   8.435  19.339  0.1313  0.2702 -0.1428
88303W        W63291  18.988   5.846   2.456  0.0271 -0.0895 -0.0235
88304W        W63292  25.905  11.295  10.281  0.3071 -0.4819  0.4148
88305W        W63293  34.143  24.979   2.008  0.0799  0.1757 -0.1765
88306W        W63294   8.798  18.356   6.325 -0.2004  0.2203 -0.2106
88307W        W63295  12.199  33.874  24.907 -0.0088 -0.0692 -0.0795
88308W        W63296  24.392  30.551  25.252 -0.0915 -0.1378  0.0952
88309W        W63297  34.257  23.365  15.799 -0.0594  0.0116  0.2194
88310W        W63298  33.121  11.560  16.532  0.1370  0.2256  0.1427
88311W        W63299   5.979   0.140   8.685 -0.0505  0.0644  0.4944
88312W        W63300   9.742  12.510  24.072  0.0957  0.1232  0.0288
88313W        W63301  12.604   4.011  25.375  0.2161  0.2294 -0.0890
88314W        W63302   9.767   2.579   8.398 -0.2081 -0.2189 -0.2755
88315W        W63303  14.058   7.638   9.106  0.2321  0.0888  0.3404
88316W        W63304  12.608  11.425  13.216 -0.2914  0.0106  0.2245
88317W        W63305   8.891   1.924  14.851  0.2106  0.1453 -0.1888
88318W        W63306   9.151   2.781  14.575  0.2469 -0.0136  0.4039
88319W        W63307  24.320  22.306  20.388 -0.1239  0.0522 -0.1336
88320W        W63308  30.856  11.476  24.560  0.3351  0.0155 -0.0085
88321W        W63309  25.642  26.332  17.767 -0.0356 -0.1894  0.1347
88322W        W63310  13.885  26.431  15.475  0.1834  0.2526  0.1945
88323W        W63311   1.534  27.586  23.797  0.0039 -0.0308  0.1634
88324W        W63312   1.593  15.042  26.053 -0.1324 -0.2701 -0.0540
88325W        W63313   7.161   0.585   8.383  0.0722 -0.0662  0.0331
88326W        W63314  32.575   3.250   2.853  0.0301 -0.0486 -0.2741
88327W        W63315  10.080  34.080   9.885  0.2595  0.2316  0.0151
88328W        W63316   6.528   5.715   5.914 -0.1230  0.1280  0.0053
88329W        W63317  11.904  30.126   6.871  0.2679  0.3097 -0.1201
88330W        W63318   1.072  22.144  21.790 -0.0212 -0.1345 -0.0011
88331W        W63319  13.777   1.721  10.616 -0.1824 -0.0408  0.0319
88332W        W63320  15.941   5.572   7.124 -0.2534 -0.0943  0.1951
88333W        W63321   2.938  20.296  17.669 -0.0301 -0.2227 -0.3640
88334W        W63322   5.384  16.853  25.088 -0.1795  0.0099  0.3568
88335W        W63323  25.540  33.508  21.785 -0.0125 -0.1177  0.1495
88336W        W63324  10.385   0.618   0.760  0.0684  0.0728 -0.1783
88337W        W63325  28.214   9.504  11.494  0.0515 -0.0120 -0.0775
88338W        W63326  24.608  20.733  22.282  0.0995 -0.0284 -0.0224
88339W        W63327   0.437  21.245  13.317 -0.2678 -0.0736 -0.2700
88340W        W63328  18.463  22.404  23.865  0.2233 -0.2087  0.3651
88341W        W63329  31.724  28.295  11.993 -0.1685  0.0183  0.0488
88342W        W63330  19.268  22.918   9.452 -0.2313  0.0804 -0.0034
88343W        W63331  13.169   9.301   6.258 -0.0662  0.1906 -0.0653
88344W        W63332  18.384  22.973  12.293 -0.0829 -0.0992  0.2004
88345W        W63333   0.205   3.007  23.714 -0.0115 -0.1644  0.1331
88346W        W63334  11.829  11.660  21.756 -0.0639 -0.0194  0.2152
88347W        W63335   3.482  29.771  20.705  0.0444 -0.1052 -0.0388
88348W        W63336  31.051   0.021   3.306 -0.1083  0.2393  0.0476
88349W        W63337  21.040  18.684  20.327  0.2910  0.2416  0.1640
88350W        W63338  18.007   4.665   9.721  0.0220  0.1263 -0.0288
88351W        W63339  19.834  31.610   7.376  0.0688 -0.1940  0.2780
88352W        W63340  15.244  25.424   4.537 -0.0240  0.4956  0.1531
88353W        W63341   5.418   6.689   0.726 -0.1331 -0.1977 -0.0779
88354W        W63342  15.384   7.400   8.605  0.1205  0.0396 -0.2750
88355W        W63343   0.751  32.543   4.726 -0.3281  0.0041 -0.1202
88356W        W63344  15.370   7.308  13.214 -0.0682 -0.0256 -0.1198
88357W        W63345   6.966  35.124  13.131 -0.0604  0.0174  0.0391
88358W        W63346  28.480  32.176   3.252  0.0276 -0.0555 -0.0665
88359W        W63347  20.334  29.461  16.700  0.0238  0.0501  0.0123
88360W        W63348  33.853  27.189   4.278  0.1300  0.0759  0.1056
88361W        W63349  26.838  29.571  10.668  0.1827 -0.0826 -0.1523
88362W        W63350  19.057  23.588  18.337  0.0134  0.1745 -0.0053
88363W        W63351  30.727   7.166  16.612  0.5238 -0.2829 -0.0911
88364W        W63352  34.416  34.569  20.416 -0.1140 -0.0919 -0.1267
88365W        W63353  11.877  34.987   0.225  0.2956 -0.1706 -0.0891
88366W        W63354   2.101  31.906  18.188  0.0358 -0.0387 -0.0729
88367W        W63355  28.971   3.624  17.387 -0.0351 -0.0141  0.0260
88368W        W63356  11.873  18.827   8.116 -0.1698 -0.0128  0.3538
88369W        W63357  14.216  20.678   7.924 -0.1812 -0.0895 -0.0250
88370W        W63358   4.664  25.672  25.929  0.0718  0.2480 -0.2447
88371W        W63359  21.331  19.585   0.716 -0.1883 -0.0617  0.3266
88372W        W63360   3.773  19.504  21.876 -0.0638  0.3992 -0.1719
88373W        W63361  13.871  29.811   9.349  0.0017 -0.1485  0.3485
88374W        W63362  18.828  15.112   8.106  0.0575 -0.2680 -0.0259
88375W        W63363  13.732  29.181  10.112 -0.1450 -0.0431 -0.1544
88376W        W63364  14.594  21.031  21.707 -0.1810 -0.1513 -0.0852
88377W        W63365  33.348  16.289   6.990 -0.1152 -0.0298  0.1634
88378W        W63366  21.716  14.537   2.218  0.1141 -0.3040  0.1097
88379W        W63367  10.804  33.703   8.405 -0.0585 -0.3300 -0.0564
88380W        W63368  16.269  16.676   2.509  0.0390 -0.0121 -0.1740
88381W        W63369  16.334  28.622  25.317  0.1191 -0.1496  0.0511
88382W        W63370  11.558  17.574   1.851  0.0317 -0.0989 -0.1089
88383W        W63371  26.948  21.680  24.805  0.3707  0.1116  0.0617
88384W        W63372  34.542  10.181   9.963 -0.2085  0.0704 -0.0047
88385W        W63373   9.423  28.414   8.084  0.0099  0.0254 -0.1239
88386W        W63374   4.336  21.220   1.280  0.3790 -0.1332 -0.3686
88387W        W63375  20.738   7.418   2.988 -0.1711 -0.0355  0.1337
88388W        W63376  21.871   3.412  25.902 -0.0237  0.0645  0.2193
88389W        W63377  31.320  14.814  24.311 -0.1709  0.1890  0.3647
88390W        W63378  20.313  32.323  16.026  0.0436  0.1281 -0.0845
88391W        W63379  10.933   2.566  20.056 -0.1117 -0.2400  0.1041
88392W        W63380  34.016  19.406   9.180 -0.2041  0.1433 -0.1349
88393W        W63381   6.033  21.713   0.839 -0.0994 -0.2035 -0.0409
88394W        W63382  10.664  12.995  10.626  0.2261 -0.0490  0.3207
88395W        W63383  29.639   2.881  24.902 -0.0333  0.0133  0.1165
88396W        W63384  24.329  16.551  11.349 -0.2034  0.4322 -0.1123
88397W        W63385   6.258  31.190  20.268  0.3591  0.1291 -0.3342
88398W        W63386   8.867  13.378   6.320  0.0570 -0.1760  0.0052
88399W        W63387  34.608   9.173  18.626 -0.4220  0.3583  0.1833
88400W        W63388  34.955   0.541   7.936 -0.1204 -0.0871  0.1251
88401W        W63389  10.823   2.486   9.064  0.1601  0.1271  0.1493
88402W        W63390  34.806  33.325  23.408  0.2949  0.0937 -0.1675
88403W        W63391   9.956   4.464   8.030  0.0242  0.4299  0.1206
88404W        W63392  21.479   7.497  16.161  0.2280  0.1921  0.1543
88405W        W63393  14.831  21.433  11.861 -0.0339  0.0854 -0.2296
88406W        W63394  17.522  11.814   8.603  0.2193 -0.1394  0.3048
88407W        W63395  10.128  12.743   5.979  0.2077 -0.1638 -0.1340
88408W        W63396  23.561   7.979  18.244  0.2126 -0.1512  0.0984
88409W        W63397  19.717  34.093   5.850 -0.1499 -0.1139 -0.0748
88410W        W63398  28.386   7.236  23.666  0.3181  0.0239  0.3354
88411W        W63399   6.262  11.896  23.876  0.0386 -0.0603  0.0979
88412W        W63400   8.630  18.138   4.183  0.0034  0.1661 -0.0841
88413W        W63401  19.498   2.005  17.466 -0.1089 -0.0821  0.0378
88414W        W63402  25.197   2.531   4.026 -0.0967 -0.0449 -0.0711
88415W        W63403  14.617  21.971   3.913 -0.1147  0.1348  0.2778
88416W        W63404  29.168  29.313  25.927  0.3568  0.0075  0.1603
88417W        W63405  23.931   0.160  21.620  0.5153  0.1917 -0.1253
88418W        W63406  17.319  28.043  22.134  0.0290 -0.3236 -0.0516
88419W        W63407  22.557  22.569   0.770 -0.0863 -0.1452 -0.2257
88420W        W63408  32.960   2.031  23.706  0.0055  0.2646  0.0184
88421W        W63409   0.669  25.691  15.308 -0.3158 -0.0193 -0.0109
88422W        W63410  14.601  31.235   1.131  0.1307 -0.0551  0.1812
88423W        W63411  19.351  31.888   5.641  0.1561  0.2383 -0.0781
88424W        W63412  26.166  34.321  14.898  0.0813  0.1128 -0.0367
88425W        W63413   5.728  30.706  13.888  0.1116  0.1624  0.1976
88426W        W63414  30.848   7.980  25.299  0.0939  0.0868 -0.2900
88427W        W63415   7.798  10.249  21.293 -0.1771 -0.0157 -0.1829
88428W        W63416  33.907  31.143  21.795  0.1954 -0.1693 -0.2198
88429W        W63417  21.578  26.838  24.223 -0.1553 -0.0307 -0.3266
88430W        W63418  20.087   4.902  16.770  0.0337  0.3383  0.2180
88431W        W63419  23.222   1.292  24.189 -0.3813  0.0148 -0.1942
88432W        W63420   2.460   3.732  24.862  0.0379  0.1222 -0.1219
88433W        W63421  12.951  23.706  17.112 -0.2279  0.2418 -0.0812
88434W        W63422  16.636  30.487   6.646 -0.0442 -0.0783  0.0670
88435W        W63423  31.534  28.186   4.186  0.5542 -0.3872 -0.3033
88436W        W63424  19.400  17.139   8.787 -0.1684  0.3524  0.1563
88437W        W63425   6.650  24.233   8.904 -0.1786  0.1585 -0.0455
88438W        W63426  32.542  25.528  13.173  0.0563 -0.1526  0.1844
88439W        W63427  34.687  20.354  24.434  0.3158 -0.1958  0.2941
88440W        W63428  10.607   7.381  25.818 -0.1998 -0.1427  0.4266
88441W        W63429  17.617  25.726  22.116 -0.3236 -0.2728 -0.2192
88442W        W63430  18.658   2.037  17.977  0.0350  0.0574 -0.0398
88443W        W63431  33.349  34.979  15.908 -0.1859 -0.1475 -0.3260
88444W        W63432  27.092  20.403  12.308  0.1050 -0.0351  0.2843
88445W        W63433  30.727  19.714  11.934 -0.1816 -0.0772 -0.2384
88446W        W63434   4.957  13.080   4.676 -0.1559  0.1530  0.2329
88447W        W63435  32.746  21.641  14.173  0.0470  0.0188 -0.0047
88448W        W63436  11.771   0.745  11.230 -0.1449 -0.1775 -0.2974
88449W        W63437  15.993  29.827   7.176  0.0757  0.1019  0.1005
88450W        W63438  18.574  23.184  21.457 -0.2553  0.0146  0.4614
88451W        W63439   6.168   8.685   5.650  0.0725 -0.0186  0.0918
88452W        W63440   3.177  30.134   9.364  0.1440 -0.4071 -0.1316
88453W        W63441  24.079  20.933   1.153 -0.0335 -0.2137  0.2149
88454W        W63442  12.826   6.145  19.100  0.0309  0.1070  0.1106
88455W        W63443  13.327  24.439   4.242  0.0712  0.1134  0.0029
88456W        W63444  20.829  33.416   5.123  0.3590 -0.2769 -0.1579
88457W        W63445  21.130  18.135   3.562 -0.1247  0.2060 -0.1478
88458W        W63446  10.595  15.946  10.148 -0.0136  0.1509  0.2060
88459W        W63447  31.609   5.642  24.157 -0.2743  0.0842 -0.2644
88460W        W63448  12.150  18.450   9.516  0.2437 -0.0668 -0.2207
88461W        W63449  23.944  13.417  25.936 -0.3183  0.3887 -0.3678
88462W        W63450  12.342  15.668   1.138  0.0664 -0.2202 -0.3338
88463W        W63451  22.676  25.873  16.261 -0.1089 -0.0841 -0.1160
88464W        W63452   9.543   5.329   1.982 -0.1414  0.1022  0.0170
88465W        W63453  19.324  33.886   2.357  0.1483 -0.1959  0.1006
88466W        W63454  32.019  21.397  24.077  0.3000  0.0275 -0.0459
88467W        W63455   1.031  16.444  19.119  0.1587  0.1272 -0.2533
88468W        W63456  28.221  29.405   3.135  0.0124  0.1103  0.1007
88469W        W63457   7.597  26.223  15.732 -0.0969  0.1568 -0.1984
88470W        W63458  10.121   6.125   2.947 -0.0509 -0.4244 -0.2547
88471W        W63459  26.545   1.199   3.584 -0.0158  0.3160 -0.1896
88472W        W63460   5.577  19.265   4.166  0.1230 -0.3208 -0.3238
88473W        W63461   0.275  28.210  25.978  0.0521  0.3878  0.0454
88474W        W63462  27.628   2.878   3.346 -0.2130  0.1063 -0.0559
88475W        W63463  25.550  29.145  21.405 -0.1716 -0.0715  0.3384
88476W        W63464   3.381   6.466   0.937  0.3358  0.0968 -0.0581
88477W        W63465  15.151  29.475  20.865  0.2148 -0.0884 -0.1235
88478W        W63466  20.222   3.934  25.176 -0.0116 -0.2871 -0.2288
88479W        W63467   9.285  14.468  20.330 -0.3439 -0.0042 -0.1593
88480W        W63468  26.310  34.624  20.225 -0.2462 -0.1490  0.0796
88481W        W63469  19.184  28.742  21.727 -0.5328 -0.1146  0.2320
88482W        W63470  26.528  11.944  22.497  0.1081  0.3754 -0.1868
88483W        W63471  34.055  21.219   6.335 -0.0289 -0.0635  0.0007
88484W        W63472   0.974  17.455  25.965 -0.2003  0.1067 -0.0979
88485W        W63473   1.103  14.723  15.179 -0.0410 -0.0680  0.2453
88486W        W63474  22.478  12.507  20.775  0.3614 -0.3571 -0.2541
88487W        W63475  15.900   3.224   3.930  0.1100  0.5072  0.2439
88488W        W63476  23.662  24.801  12.086  0.0106  0.3789  0.0988
88489W        W63477  32.230  28.995   1.060 -0.0151 -0.1213 -0.1959
88490W        W63478   0.316  19.189  13.101 -0.0739  0.1306  0.1301
88491W        W63479  33.639  28.341  13.070  0.1970  0.0657  0.0589
88492W        W63480  22.165  20.902   0.272  0.0512 -0.0979  0.4483
88493W        W63481  29.395   6.967  10.607  0.1587 -0.1022 -0.1967
88494W        W63482  32.430  18.882   9.449  0.0028 -0.1471  0.0310
88495W        W63483   6.542  28.061   7.224  0.2093 -0.0928  0.3641
88496W        W63484  26.541  25.565  23.373  0.1073 -0.2013 -0.0824
88497W        W63485   6.981   5.390   6.314  0.1199 -0.0935 -0.3960
88498W        W63486  14.967  28.351   9.876 -0.3098 -0.0940 -0.1850
88499W        W63487   0.455  22.872  17.110 -0.4115  0.2608  0.0414
88500W        W63488   9.786  19.692  24.518  0.0177  0.1012 -0.2045
88501W        W63489  31.995  27.140  13.182  0.0501 -0.2110  0.0948
88502W        W63490  16.918   4.277  22.474  0.0696 -0.1183  0.3258
88503W        W63491  29.708  13.473   9.456 -0.1509  0.1067  0.3028
88504W        W63492   5.321   3.295   9.797 -0.1325  0.2681  0.0111
88505W        W63493  28.910   4.662  18.574  0.4809 -0.0058  0.0167
88506W        W63494   6.968   2.283  13.700  0.0313  0.1554 -0.0573
88507W        W63495  16.056  33.137  18.862 -0.1870 -0.0183  0.1590
88508W        W63496  18.248   0.272  19.452 -0.1635  0.2404  0.0310
88509W        W63497   4.543   0.296   7.385  0.0310 -0.1483 -0.3109
88510W        W63498   2.727  31.342   7.715 -0.2274  0.2683  0.3202
88511W        W63499  26.215  22.781  11.368 -0.1962 -0.0009  0.0886
88512W        W63500   7.049  28.080   3.740  0.4240  0.2413 -0.3481
88513W        W63501  13.395   0.712   4.345  0.0889 -0.0918  0.3408
88514W        W63502  14.605  21.903   2.116  0.1322 -0.0437 -0.0179
88515W        W63503  32.661  14.672  22.266  0.0603 -0.0804 -0.0038
88516W        W63504  17.341  20.139   0.131  0.0807  0.0722  0.1486
88517W        W63505  20.836   2.785  18.702 -0.1152  0.1178  0.1012
88518W        W63506  10.503  14.788   2.568  0.0382  0.2377  0.0013
88519W        W63507  30.674  29.736  12.943 -0.2572  0.3010  0.0152
88520W        W63508  13.889  31.518   3.320 -0.0783 -0.1215  0.1238
88521W        W63509   9.103  31.860   3.361 -0.0520 -0.0523 -0.1686
88522W        W63510   3.593  12.198  21.008 -0.2494  0.1033  0.1243
88523W        W63511  26.955  24.076   9.530  0.2372 -0.0722 -0.0249
88524W        W63512  10.412  24.763   1.154  0.1349 -0.0390  0.1099
88525W        W63513  23.263   1.904  25.612 -0.2547 -0.0765  0.0895
88526W        W63514   5.325  10.751   1.769  0.0516 -0.0650  0.2563
88527W        W63515  23.604  17.588  17.606 -0.1050  0.0583 -0.2004
88528W        W63516  11.997  19.784  14.272  0.1704 -0.2224  0.2429
88529W        W63517  20.730  29.077  16.554 -0.2582 -0.1259  0.2567
88530W        W63518  14.579   6.418   5.395  0.1642  0.1989  0.0488
88531W        W63519  10.141  27.230   1.976 -0.0647 -0.0821 -0.0334
88532W        W63520  15.051  28.861  12.685 -0.2077 -0.1192  0.2607
88533W        W63521  14.631   5.357   1.064 -0.2692  0.0484  0.1945
88534W        W63522  17.917  16.725   3.535  0.2896  0.0855  0.0910
88535W        W63523  25.087  32.378  26.071 -0.1900  0.2809 -0.0037
88536W        W63524  12.588  10.518  11.136  0.1217  0.0443 -0.1486
88537W        W63525  13.955  12.375  25.992  0.0052  0.0658 -0.2113
88538W        W63526  31.343  12.570  24.666  0.0180 -0.0626  0.0188
88539W        W63527   3.297  25.817   7.718 -0.2475 -0.0868 -0.2447
88540W        W63528  29.991  28.303  10.357 -0.3589 -0.0187 -0.1629
88541W        W63529  24.974   2.533  16.948  0.1345 -0.1124  0.2827
88542W        W63530  19.131  10.487   6.886 -0.0536 -0.1921  0.1039
88543W        W63531  33.284  20.435  25.444 -0.0135 -0.2583  0.2998
88544W        W63532  35.149  13.730   0.830 -0.0346  0.1499 -0.0030
88545W        W63533  27.246  25.406  11.993 -0.0984  0.0676  0.0015
88546W        W63534  27.132  34.784  23.520 -0.1715  0.2266  0.0625
88547W        W63535  27.811  25.034  13.977  0.0569 -0.0375 -0.0478
88548W        W63536  10.603   6.036   9.726  0.0527  0.3661  0.0595
88549W        W63537  27.756  33.668  12.833  0.0135 -0.2145 -0.6423
88550W        W63538  17.173  27.370   2.544 -0.0870  0.1809 -0.0188
88551W        W63539  32.891  19.104  18.552 -0.1288 -0.0097 -0.3577
88552W        W63540  26.646  13.246  22.960  0.0730  0.1469 -0.0107
88553W        W63541  27.332  20.820  20.323  0.1217  0.0219 -0.1644
88554W        W63542  24.228   1.460  18.476  0.0246  0.1875  0.0347
88555W        W63543  19.725  14.465   2.737  0.3262 -0.1463 -0.1186
88556W        W63544  19.478  17.362  18.826  0.1709  0.0900  0.2084
88557W        W63545  28.065  23.450  20.222  0.2279 -0.1673 -0.2048
88558W        W63546   1.097  29.077  15.638 -0.0659 -0.0164 -0.2306
88559W        W63547   1.384  26.178  17.035 -0.2087 -0.0633 -0.1195
88560W        W63548   5.927   1.197  19.560 -0.0798 -0.0974 -0.1078
88561W        W63549  25.616  20.346  17.679 -0.1985  0.0340 -0.0175
88562W        W63550  31.598  22.492  15.556 -0.0853 -0.2096  0.1686
88563W        W63551  16.875  18.841   6.150 -0.1405  0.2081 -0.0997
88564W        W63552  26.532  23.188  11.538  0.0025 -0.1092 -0.2530
88565W        W63553   9.710   0.910  14.111  0.2305 -0.3779  0.1850
88566W        W63554  25.522   0.299  25.857  0.1658 -0.0229 -0.0398
88567W        W63555  34.933  23.060  19.008  0.1983  0.0281  0.3339
88568W        W63556   9.494  26.606   7.200  0.0336  0.0300  0.0355
88569W        W63557  19.551  18.333   5.477 -0.0619  0.0804  0.4553
88570W        W63558  29.038  29.056  23.695 -0.0388 -0.1585 -0.1297
88571W        W63559   7.138  18.352  23.918  0.2717 -0.3236  0.2894
88572W        W63560  12.809   4.709  19.204 -0.2479  0.1223 -0.2329
88573W        W63561   5.497  26.238   3.604  0.0225  0.0318 -0.0808
88574W        W63562   5.862  21.314  21.007 -0.0715  0.1123 -0.0926
88575W        W63563  14.579  21.569  10.919  0.0512 -0.0080 -0.0234
88576W        W63564  31.797   4.330  20.605  0.1442 -0.1665  0.0604
88577W        W63565   3.195  15.438   3.164 -0.0983 -0.3349  0.1606
88578W        W63566  18.424  21.138  21.076  0.0578 -0.2758  0.1859
88579W        W63567  29.849  13.908  18.510  0.3811 -0.0215  0.4258
88580W        W63568  12.595  22.151   6.167  0.1099  0.1847  0.1132
88581W        W63569  20.297   6.976  24.381 -0.1188  0.0821 -0.2155
88582W        W63570  22.435   4.527  25.481 -0.1114 -0.1267 -0.2884
88583W        W63571  29.069   2.637  22.953  0.1289 -0.1879 -0.1934
88584W        W63572  12.731   3.769  19.669  0.2787  0.2712 -0.3130
88585W        W63573  18.701  31.890   3.593  0.2755 -0.1608  0.3124
88586W        W63574  33.924  11.548   1.075 -0.0610 -0.0160 -0.0019
88587W        W63575  19.410  31.816   2.013  0.1573  0.2143 -0.1357
88588W        W63576  33.748  21.721  25.480 -0.1774  0.1666  0.1371
88589W        W63577  19.617  11.268   0.373  0.2961 -0.0885 -0.0884
88590W        W63578   2.927  33.198   8.021  0.1774  0.0777 -0.0770
88591W        W63579  18.853  14.452   0.530  0.1290  0.0338 -0.4054
88592W        W63580   1.707  11.261  14.712 -0.3784 -0.0708 -0.0186
88593W        W63581   0.235  15.941  13.231  0.0600  0.1174  0.0442
88594W        W63582  22.162  10.354   2.689  0.2078  0.3839 -0.2438
88595W        W63583  28.945  15.077  10.015  0.2792 -0.0463 -0.2104
88596W        W63584  17.220  18.987   2.289 -0.2147  0.1262  0.0416
88597W        W63585  28.084  12.434  26.208  0.1925 -0.1535  0.2160
88598W        W63586   9.034  15.450   8.324 -0.0903 -0.0376 -0.0756
88599W        W63587   2.339   2.782  21.354  0.1363  0.4064 -0.2039
88600W        W63588   5.314   7.815   5.687  0.0775  0.1367 -0.0799
88601W        W63589  35.158  27.273  17.544 -0.3941  0.0199 -0.0624
88602W        W63590  25.856   5.239   2.535  0.2266  0.3266 -0.1175
88603W        W63591  32.938  32.220   2.428  0.0118 -0.4765 -0.0287
88604W        W63592   2.728  33.836   4.555  0.1119  0.1980  0.0457
88605W        W63593   9.863  17.835  13.855  0.0266  0.4012 -0.0489
88606W        W63594  17.201   8.333  25.271 -0.2085  0.2546  0.2319
88607W        W63595  35.322  24.354  19.950  0.0656 -0.0383  0.1235
88608W        W63596   8.150   1.116  12.548 -0.1569 -0.6751 -0.0087
88609W        W63597   0.471   4.754  21.372  0.3811 -0.0392  0.0215
88610W        W63598   9.532   6.422   0.713  0.1214  0.2793  0.1060
88611W        W63599  27.367   5.332  17.029  0.3140  0.2518  0.2179
88612W        W63600   6.599   8.635  24.752  0.1241  0.0923  0.1682
88613W        W63601  25.131  23.467  20.040 -0.2640 -0.0882 -0.3769
88614W        W63602  20.510   8.035  20.413  0.1986  0.0502  0.0218
88615W        W63603  11.460  21.075   4.498 -0.4950 -0.0795 -0.0998
88616W        W63604  10.783  18.513  11.401 -0.1430 -0.4981 -0.0012
88617W        W63605   6.745  15.365  25.880  0.2274  0.0510  0.3013
88618W        W63606  26.286   8.755  10.095  0.1206  0.1755 -0.2148
88619W        W63607   8.070  14.461  10.260  0.0427  0.2788 -0.2355
88620W        W63608   0.662  34.275   4.566  0.0910 -0.0409  0.1538
88621W        W63609  27.807  25.910  21.440 -0.0115 -0.0480 -0.0574
88622W        W63610  29.299   2.902  19.559  0.2452 -0.0257  0.0524
88623W        W63611   6.792  27.635  10.174  0.0030 -0.3669 -0.1098
88624W        W63612  18.612  34.779  15.168  0.0979 -0.0930  0.2845
88625W        W63613  31.756  14.687  23.316  0.1615 -0.0700  0.2168
88626W        W63614   3.438   4.150  25.915 -0.1616 -0.0979  0.4098
88627W        W63615  10.698  33.629   7.504  0.0249  0.1197 -0.0915
88628W        W63616  10.511  31.245   1.065  0.1937 -0.0066  0.0234
88629W        W63617  17.040  22.126   5.917 -0.1335  0.1578  0.1006
88630W        W63618   2.248  32.345   5.998 -0.1437  0.4174 -0.1641
88631W        W63619  10.733  18.989   7.411 -0.1149  0.0608  0.0409
88632W        W63620  28.368  17.431  12.185  0.0019 -0.0222  0.1223
88633W        W63621  21.613  32.297  18.978  0.2057 -0.0338  0.0353
88634W        W63622  32.100  18.009  12.035 -0.0326  0.3284  0.2981
88635W        W63623  25.199  34.367   5.953 -0.1187 -0.2035 -0.0017
88636W        W63624  24.519  32.219   4.202  0.0403  0.1319  0.2962
88637W        W63625  11.560  26.931   1.786 -0.3108  0.0630  0.2735
88638W        W63626  33.072  33.635   0.299 -0.0928 -0.0751 -0.0140
88639W        W63627  26.203  29.659  21.661 -0.0587 -0.1770 -0.1524
88640W        W63628   6.068   2.354   7.418  0.0098 -0.1094  0.2990
88641W        W63629   3.407  26.935  25.016 -0.1960  0.5029 -0.1695
88642W        W63630   3.608   6.179  20.893 -0.1804  0.0119 -0.2827
88643W        W63631  32.372   7.189   1.875 -0.1396  0.1707 -0.1864
88644W        W63632  26.102   5.035   4.412  0.0815 -0.3067  0.3515
88645W        W63633   7.132   5.618  22.151  0.0515 -0.2713  0.4076
88646W        W63634   7.965  34.828   0.398  0.2017  0.2214  0.2596
88647W        W63635  20.176  11.285   1.961  0.0434 -0.2278 -0.2747
88648W        W63636  21.734  22.768   3.496  0.3613  0.0720  0.1630
88649W        W63637   1.229   7.066   0.565 -0.1945  0.1077  0.0237
88650W        W63638   2.044   6.193   3.481 -0.1492 -0.0295 -0.0985
88651W        W63639  25.905  25.209   9.727 -0.0912 -0.0320  0.0250
88652W        W63640   5.115   2.977   1.948 -0.2482 -0.3518 -0.2855
88653W        W63641   1.771  12.281  18.092  0.2205  0.0193 -0.1055
88654W        W63642   8.280  16.917   9.483  0.2208  0.2132 -0.1451
88655W        W63643   0.482  30.862  22.689  0.4767 -0.1505  0.0955
88656W        W63644  19.282  11.742  24.865 -0.2363  0.0805  0.2141
88657W        W63645  15.428  24.575   1.712  0.1963  0.1176 -0.0605
88658W        W63646  23.829   5.911  17.127  0.2259 -0.0179 -0.2565
88659W        W63647  19.144  20.016   1.899 -0.2008  0.0130 -0.0271
88660W        W63648  32.643   6.096   2.594 -0.1252 -0.0275 -0.0179
88661W        W63649  19.291  28.547  18.530 -0.0204 -0.1957  0.0362
88662W        W63650   2.792   4.557  18.724  0.1113 -0.0247 -0.0088
88663W        W63651  32.356   6.893  17.167 -0.1361 -0.0612  0.2106
88664W        W63652  35.259  27.283  24.463  0.1565  0.0533 -0.3144
88665W        W63653  14.435  25.557   3.782 -0.2207 -0.1483  0.0486
88666W        W63654  27.190   1.299   5.086  0.1339 -0.0932 -0.2150
88667W        W63655  11.002  25.872   4.968 -0.0372 -0.1159  0.1312
88668W        W63656  34.293   0.801   2.260  0.1136 -0.2290  0.0459
88669W        W63657   1.605  10.728   0.711 -0.0152 -0.0856  0.0943
88670W        W63658  23.028  14.482  14.433  0.1161  0.0778  0.0871
88671W        W63659  26.686  19.310  18.788  0.1584 -0.0394 -0.3921
88672W        W63660  26.860   6.867  14.856 -0.6149  0.3329  0.0236
88673W        W63661  11.086   2.711  10.926  0.0855  0.0634 -0.0129
88674W        W63662   2.526  22.358  24.696 -0.4162 -0.1062  0.0574
88675W        W63663  33.623  21.268   8.985  0.0846 -0.1731  0.0022
88676W        W63664  11.910  12.408  12.094 -0.1853 -0.1395 -0.3592
88677W        W63665  15.387  26.802  24.765 -0.1802 -0.0549  0.1118
88678W        W63666   3.099  31.569   5.740  0.0959 -0.3202  0.2538
88679W        W63667  31.912  15.144  23.338 -0.1460  0.3428  0.1585
88680W        W63668  11.715  26.363  14.279 -0.4188 -0.4627  0.1562
88681W        W63669  35.002   8.125   4.159  0.1659 -0.1846 -0.1752
88682W        W63670   4.993  28.754   4.441 -0.2738 -0.0778  0.0340
88683W        W63671   9.821  27.396   8.895  0.4280 -0.0278 -0.2048
88684W        W63672  14.949  20.798   8.466  0.2373  0.0762  0.0546
88685W        W63673  17.044  34.817   7.457 -0.2496 -0.0970  0.3154
88686W        W63674   0.843   4.292   2.299  0.2267  0.1393 -0.1173
88687W        W63675  18.647  21.962   3.156  0.0627  0.2353 -0.1028
88688W        W63676  11.265  11.785  24.936  0.2378 -0.0149 -0.5154
88689W        W63677  20.034  21.132   8.601  0.0672  0.0191 -0.1400
88690W        W63678  18.474  32.917  20.375  0.2366  0.2016  0.2773
88691W        W63679  31.004  31.992   4.913  0.0514  0.2274 -0.1869
88692W        W63680   8.577  14.511   7.183  0.1060 -0.0112  0.6530
88693W        W63681  22.339   9.904   5.503  0.0440  0.0031  0.1318
88694W        W63682   6.810  10.490  20.552  0.0861 -0.1999  0.3186
88695W        W63683  19.174  16.772  17.881 -0.0517  0.1305  0.0519
88696W        W63684  35.233   8.918  20.125 -0.0590 -0.1037  0.0801
88697W        W63685  29.850   1.630  18.779 -0.0454 -0.0628  0.0264
88698W        W63686  13.931  16.191   0.337 -0.0430  0.3233  0.0607
88699W        W63687   1.157  14.704  14.680 -0.5301 -0.1165  0.0782
88700W        W63688  32.170  34.935  22.610  0.0561 -0.2572 -0.0026
88701W        W63689  13.741  11.170   2.967  0.0962 -0.1251 -0.2758
88702W        W63690  28.657  24.193  15.032  0.0119  0.0277 -0.1210
88703W        W63691   2.405  25.967   0.791 -0.1597 -0.1470 -0.2277
88704W        W63692  23.880   8.949  18.544  0.0750  0.0069 -0.0398
88705W        W63693  19.342  22.244   1.569 -0.1389 -0.0443  0.1452
88706W        W63694  29.456  16.314  19.007  0.1324 -0.1767 -0.2543
88707W        W63695  22.785  18.965  18.225 -0.0292 -0.2851  0.2203
88708W        W63696   7.755   3.740  22.769 -0.2271  0.0221  0.0549
88709W        W63697  17.644  24.733   6.464 -0.1760  0.0326  0.3369
88710W        W63698  25.255   4.102   2.569 -0.2613  0.0390 -0.0726
88711W        W63699   9.951  28.130  12.145 -0.0380 -0.1453 -0.3263
88712W        W63700  31.403  13.622  24.292 -0.3192 -0.2686 -0.0621
88713W        W63701  30.733   4.620   3.043  0.2440  0.0225  0.0383
88714W        W63702  35.187  27.582  19.274  0.2441 -0.0195  0.0315
88715W        W63703  33.962  31.890   4.664 -0.0817  0.1409 -0.0727
88716W        W63704  25.454  21.198  17.232  0.1290  0.1424 -0.3049
88717W        W63705  28.619   7.489  20.119  0.0548  0.1288 -0.1561
88718W        W63706  33.508  25.454  10.806  0.2003 -0.1089 -0.0139
88719W        W63707  17.668  20.726  12.345 -0.1208 -0.4858 -0.1624
88720W        W63708   9.744  11.425   1.144  0.0933  0.1883 -0.0183
88721W        W63709   5.267  13.004   6.594  0.4240 -0.0447 -0.1147
88722W        W63710  31.486  30.946  24.598 -0.3210  0.0947 -0.1654
88723W        W63711  19.279   7.059   0.208  0.2714 -0.4913 -0.4184
88724W        W63712  34.083   6.648  22.431 -0.2093 -0.0324  0.1122
88725W        W63713  12.821   4.667  11.038 -0.2777  0.0596 -0.1387
88726W        W63714  10.705  34.990   3.876  0.2524  0.0813  0.4370
88727W        W63715  27.800  20.789   6.108 -0.2254 -0.0720  0.1899
88728W        W63716  23.672  17.203   0.775  0.1731  0.1126 -0.2278
88729W        W63717  18.739  12.763  20.753 -0.3078 -0.0075  0.4202
88730W        W63718  14.454  23.253   5.190  0.0465  0.0063 -0.4026
88731W        W63719  17.089  22.335   6.418  0.1682  0.1436  0.2821
88732W        W63720   3.982   5.319  17.091 -0.2523 -0.1557  0.0927
88733W        W63721  34.920  22.128  15.640  0.2654  0.2135 -0.0302
88734W        W63722  29.021  23.687  20.088  0.1177  0.0285 -0.1149
88735W        W63723   5.887  12.184   7.328 -0.2828  0.1510 -0.0343
88736W        W63724  13.721  33.115  22.873 -0.2325  0.1318  0.1016
88737W        W63725  22.269   7.282   4.432 -0.3238 -0.2080 -0.0736
88738W        W63726   1.582   4.980   1.863  0.0606 -0.3224 -0.1847
88739W        W63727   7.999  20.484   0.993 -0.5553  0.0849 -0.1373
88740W        W63728  12.978  19.989  25.220  0.1904  0.1349 -0.1853
88741W        W63729  29.376   6.127  12.578 -0.0156  0.0102 -0.0568
88742W        W63730  20.834  23.585  19.220 -0.2326  0.2836 -0.1646
88743W        W63731  32.510  25.029  22.428 -0.0928  0.1858 -0.0893
88744W        W63732   7.842  33.077  12.072  0.2618 -0.4155  0.0666
88745W        W63733  11.151  31.773  14.496 -0.0364 -0.0926  0.1065
88746W        W63734  11.622  33.273  13.136  0.2886 -0.0536 -0.0996
88747W        W63735  25.564  17.214  15.522 -0.0475  0.2468 -0.4326
88748W        W63736  12.874  32.704   2.723 -0.2009 -0.1489  0.1288
88749W        W63737  27.985  12.159  11.257  0.0333  0.1048  0.3012
88750W        W63738  21.916   4.330   0.862 -0.1498 -0.0767 -0.1529
88751W        W63739  23.003  35.324  19.172  0.3531 -0.1858  0.0831
88752W        W63740  13.752  30.921  21.658 -0.0215 -0.0258  0.0029
88753W        W63741   7.381  35.024   4.560 -0.1851  0.1165 -0.2521
88754W        W63742   3.852  19.176   0.822 -0.1310  0.1699  0.0777
88755W        W63743  19.394  29.557   0.740 -0.1004 -0.0068  0.1139
88756W        W63744  20.722  22.808   4.385  0.1472  0.3281 -0.1635
88757W        W63745  31.201  11.718  20.891 -0.3023  0.1555 -0.0187
88758W        W63746   1.702  11.129  18.224  0.2482 -0.3414 -0.0572
88759W        W63747  32.204  32.482   4.275  0.3394 -0.2977  0.1244
88760W        W63748  28.210  11.901  23.508 -0.1238  0.2503  0.1510
88761W        W63749   0.305   5.501   3.203 -0.2161 -0.0220 -0.0333
88762W        W63750   2.166   9.592  25.231  0.0820 -0.0078  0.0897
88763W        W63751   4.471  15.029  24.309 -0.2695  0.0981  0.1445
88764W        W63752  12.167  29.004  14.112 -0.2595 -0.1144 -0.1181
88765W        W63753  22.030  31.782   0.823 -0.3283  0.0727 -0.3830
88766W        W63754  10.511  11.962   7.959 -0.1623 -0.0579  0.1125
88767W        W63755  18.408  19.447  25.853 -0.0802 -0.2432  0.1170
88768W        W63756  29.992   6.725  21.568 -0.0314 -0.2417 -0.0669
88769W        W63757  32.892  10.203  22.316 -0.0081 -0.1737  0.0967
88770W        W63758  12.721  14.640   8.068  0.0466 -0.2820  0.1409
88771W        W63759  33.775   5.083   3.561  0.1022 -0.0790  0.2146
88772W        W63760  17.415  14.121   4.559  0.1350 -0.0785  0.1710
88773W        W63761  33.141  24.921  20.775  0.2092  0.2146  0.2699
88774W        W63762  31.884   4.136  15.532  0.1017  0.0997  0.1250
88775W        W63763   1.165  25.317  21.989  0.3030 -0.0537 -0.1870
88776W        W63764   9.769  17.988   9.938  0.0360 -0.0676 -0.1310
88777W        W63765  22.318   6.766  22.444 -0.0149  0.2013 -0.0172
88778W        W63766  24.007  18.640  23.665  0.3458  0.0594  0.0092
88779W        W63767  29.638  11.416  17.900 -0.3586 -0.2695  0.0691
88780W        W63768   4.080  10.335  15.760 -0.0432 -0.0564  0.1957
88781W        W63769   7.745  17.378   5.053 -0.1414  0.2706 -0.1250
88782W        W63770   9.777  23.379  17.355 -0.0493 -0.1063 -0.1633
88783W        W63771  10.763  29.497  11.258 -0.0304 -0.1965 -0.3678
88784W        W63772  26.911  33.444  20.756 -0.3655  0.0188 -0.0054
88785W        W63773  25.639  32.071  20.052 -0.0249  0.1314 -0.0154
88786W        W63774   3.485   8.239   4.466  0.0572 -0.1806 -0.4759
88787W        W63775  24.303  26.302  24.572  0.1507  0.1623  0.1383
88788W        W63776   8.693   8.070  13.247 -0.1626 -0.0817 -0.1337
88789W        W63777  20.875  33.579  14.027  0.2264 -0.2345 -0.0768
88790W        W63778  17.374   6.099   5.336 -0.0774  0.0128 -0.0554
88791W        W63779  29.461  28.218  24.411 -0.2450 -0.2566 -0.2207
88792W        W63780   8.505  32.473  11.709  0.1916 -0.0239 -0.0529
88793W        W63781  20.958  33.100  25.312 -0.2537  0.3794 -0.0337
88794W        W63782  27.259  32.554  24.940  0.0596 -0.1301 -0.0937
88795W        W63783  35.274  18.500  16.009  0.1000 -0.2214 -0.0920
88796W        W63784  22.475   3.417   1.933  0.0681  0.3430 -0.3309
88797W        W63785   1.362   3.900  19.111 -0.1491  0.2700 -0.0307
88798W        W63786   9.571  28.353  21.773 -0.0200 -0.3749  0.2089
88799W        W63787  33.575  29.946  23.698 -0.2872  0.1578 -0.1390
88800W        W63788  17.430   8.446   9.905 -0.0666  0.1906 -0.1287
88801W        W63789  27.927  34.695  26.240 -0.1212 -0.1609 -0.0202
88802W        W63790  33.437   8.748  11.082 -0.0945 -0.2544  0.0303
88803W        W63791   9.141  11.927   9.414  0.0134  0.1301 -0.0620
88804W        W63792  12.266  11.440  10.262 -0.0713  0.1420 -0.0798
88805W        W63793  27.590   6.353  25.558 -0.1703  0.1139 -0.0093
88806W        W63794  33.098  13.505   8.801  0.2200 -0.2381 -0.0161
88807W        W63795   9.234  29.775  22.010 -0.1117  0.3580  0.1883
88808W        W63796  15.059  21.494  12.964 -0.5517  0.1033 -0.0064
88809W        W63797  30.973   6.371   0.014 -0.2166  0.0633 -0.0602
88810W        W63798   5.235  30.577  25.430  0.0471  0.0500  0.0708
88811W        W63799  20.733  31.195  17.356 -0.1616  0.2129  0.0617
88812W        W63800  15.828   4.683  25.276  0.0281  0.1180  0.2650
88813W        W63801  25.383  34.944   5.722 -0.1100 -0.3547 -0.0884
88814W        W63802  27.189  28.243  25.016  0.1474 -0.2346  0.2014
88815W        W63803   5.976  15.429  17.512 -0.2891 -0.1874  0.1933
88816W        W63804  30.236  11.820   7.876  0.0955  0.0476  0.2382
88817W        W63805   5.133   5.770   0.523 -0.2180  0.2849 -0.5031
88818W        W63806  15.799  23.709   6.683 -0.4060  0.0547 -0.0821
88819W        W63807  20.688  24.767   4.744 -0.3766 -0.2431  0.2410
88820W        W63808  13.765  23.906  17.435 -0.0494 -0.1158  0.0612
88821W        W63809   3.189  27.408  20.028 -0.0249 -0.1497  0.0922
88822W        W63810  17.693  22.819   1.942 -0.1119  0.2033  0.3416
88823W        W63811   8.979  19.784  10.538  0.1590  0.1444 -0.4869
88824W        W63812  18.766   9.758  21.286 -0.0396 -0.2023  0.1956
88825W        W63813  30.299  31.246  21.538  0.0762  0.0793 -0.2095
88826W        W63814  29.011  26.089  12.237 -0.0554  0.1754 -0.0243
88827W        W63815  14.073  13.976  24.623  0.1304  0.1622 -0.2083
88828W        W63816  14.219   5.643   0.960  0.3641  0.2183 -0.2996
88829W        W63817  12.219  22.044   6.535  0.1664 -0.0999  0.1543
88830W        W63818  22.662   3.381  23.932  0.2907 -0.0968  0.2116
88831W        W63819   8.104  30.058  15.242  0.1032 -0.1841 -0.2688
88832W        W63820   2.027  12.471  21.921 -0.1337 -0.3362  0.2345
88833W        W63821   8.895  10.920   2.051  0.0261  0.2101 -0.2592
88834W        W63822   2.971  21.163  20.414 -0.3964 -0.0898  0.4139
88835W        W63823  12.503  18.707  12.758 -0.0017 -0.2347 -0.0192
88836W        W63824  26.535   6.447  12.443 -0.3477 -0.3801 -0.0526
88837W        W63825   7.215   5.196  14.145  0.0706  0.1070 -0.3033
88838W        W63826   7.194  23.926   2.909 -0.0443 -0.1372  0.0801
88839W        W63827   7.331  21.072   8.010  0.0646 -0.0680 -0.0197
88840W        W63828  21.243  15.494  17.869  0.0706 -0.3165 -0.0291
88841W        W63829  14.393   8.056   8.914 -0.0405 -0.0827 -0.1658
88842W        W63830  29.204  27.133   9.503  0.0680  0.0828  0.2653
88843W        W63831  19.422  18.732  23.302  0.3703 -0.2340  0.0661
88844W        W63832   8.388   6.590   2.018 -0.0664  0.1003  0.1984
88845W        W63833   3.625  17.700  23.891  0.0478 -0.1324 -0.1279
88846W        W63834   6.177   1.335  25.094 -0.1666  0.0240 -0.0187
88847W        W63835  23.164  28.775  16.765 -0.1663  0.1419 -0.2527
88848W        W63836  28.722   4.515   4.895  0.0152  0.2691  0.2778
88849W        W63837  16.169  27.757  13.112  0.1900 -0.0697 -0.1413
88850W        W63838   5.035  10.425  21.552  0.0352  0.0830 -0.1888
88851W        W63839   0.564  18.447  13.755 -0.1570  0.0145 -0.1187
88852W        W63840  34.947  24.499  15.257  0.3311 -0.3455 -0.0966
88853W        W63841   3.002   7.651  14.805  0.0658 -0.1521  0.4358
88854W        W63842  35.177  26.604  20.347  0.2489  0.4741 -0.2552
88855W        W63843  22.133  25.706  22.131  0.1882  0.3617  0.2774
88856W        W63844  26.548  13.348  11.517  0.1828  0.1000  0.0350
88857W        W63845   5.351   2.639   1.105 -0.1278 -0.0074 -0.0852
88858W        W63846   3.953  12.119  23.152  0.1005 -0.1470 -0.0109
88859W        W63847  25.034  24.126  21.306 -0.0721  0.1994  0.1875
88860W        W63848   4.846  21.333  26.076 -0.1318  0.1827  0.2437
88861W        W63849  31.080   8.369  15.746 -0.0080  0.0373  0.3436
88862W        W63850   4.022  11.732   8.097 -0.1035 -0.2897 -0.2000
88863W        W63851  12.778   9.625   3.929 -0.6152 -0.3148 -0.0575
88864W        W63852  33.820   4.631   4.565  0.0778 -0.1697  0.3854
88865W        W63853  24.269  28.645  20.610 -0.2717 -0.1436  0.1889
88866W        W63854   7.848  24.638   0.262  0.2448  0.0635 -0.1830
88867W        W63855  14.075  16.412  18.996  0.1420 -0.0527 -0.1913
88868W        W63856  29.991  14.023  19.640 -0.0420 -0.2239 -0.4748
88869W        W63857   4.327  10.900  17.766  0.2581 -0.2842  0.0643
88870W        W63858  22.329  23.823  22.308  0.2519  0.0349  0.1738
88871W        W63859  13.033  26.940  15.340  0.2213  0.0842  0.1343
88872W        W63860  20.043  17.611   9.416  0.0518  0.4114 -0.0819
88873W        W63861  17.339  29.965  10.090  0.1023 -0.2266  0.1433
88874W        W63862  12.829  12.028   1.239  0.1548 -0.2521 -0.0525
88875W        W63863  14.851   5.104   4.398  0.0219  0.1660  0.2985
88876W        W63864  22.051  31.287  17.239  0.1469 -0.0391  0.2202
88877W        W63865  18.500  19.020   6.492  0.0062  0.1013  0.0528
88878W        W63866   6.289  27.256  15.092  0.0214  0.0636  0.1433
88879W        W63867  12.562  25.330   1.910  0.1472 -0.1281 -0.0873
88880W        W63868   0.964  13.940  12.162  0.2149 -0.2976  0.1169
88881W        W63869   7.830  11.330   1.177 -0.1470 -0.2077 -0.1590
88882W        W63870   4.669  19.817   6.287 -0.0195  0.0454 -0.0773
88883W        W63871  26.956   5.707   1.269 -0.2445  0.4037  0.1196
88884W        W63872   9.860  34.482  15.209 -0.0565  0.0702 -0.0402
88885W        W63873  27.057  11.337  21.280 -0.0832  0.0953  0.0094
88886W        W63874   3.552   6.114  23.456  0.1592 -0.0268  0.2054
88887W        W63875   1.495  15.430  13.702 -0.1456 -0.1918 -0.2202
88888W        W63876   9.623  30.209  22.920  0.0647  0.0757  0.1044
88889W        W63877  20.303  28.406   2.255  0.0936  0.0477 -0.0854
88890W        W63878   8.012   6.153   9.329  0.1719  0.1361 -0.2291
88891W        W63879   1.310  11.682  11.761 -0.2092  0.1799 -0.1275
88892W        W63880  19.888   2.259  19.549 -0.0955  0.2785  0.2549
88893W        W63881   6.814   6.909  12.965 -0.0209 -0.0346 -0.1294
88894W        W63882  26.144  15.288  16.670  0.0361  0.0187 -0.3916
88895W        W63883  29.391  16.644  20.536 -0.0387 -0.0211  0.2115
88896W        W63884   5.362  29.158   8.927  0.0948  0.0742 -0.0550
88897W        W63885  35.254   5.790  14.282  0.0598  0.1340  0.1853
88898W        W63886   4.030   4.753   9.605 -0.0434  0.1328  0.1486
88899W        W63887  18.037  31.756  22.258  0.0985  0.1836  0.3383
88900W        W63888  21.923  31.365   1.065  0.4740 -0.1276  0.3298
88901W        W63889  32.207   2.609  14.569 -0.2789 -0.1781  0.0158
88902W        W63890  19.899   2.958  22.835 -0.1194  0.1221 -0.0084
88903W        W63891  18.408  28.520   5.162  0.0986 -0.1349 -0.0046
88904W        W63892  31.269   8.644  22.557  0.0709 -0.0248  0.0732
88905W        W63893  34.979   1.070  19.576 -0.0600  0.1173  0.1112
88906W        W63894  11.401  16.426   6.571 -0.1207  0.0673 -0.1749
88907W        W63895   5.545  26.574   7.493  0.0376  0.2212  0.3359
88908W        W63896   6.154   9.581  24.616 -0.0306  0.2404  0.2856
88909W        W63897   8.220  35.311  20.508  0.1897 -0.0258 -0.1206
88910W        W63898   7.026  10.088  20.242  0.3703  0.2396 -0.2226
88911W        W63899  35.187  33.114  23.111  0.2657 -0.1468  0.5072
88912W        W63900  27.257  18.507  14.361 -0.0447  0.1693  0.1328
88913W        W63901  12.887  12.200   2.134 -0.2874 -0.0143 -0.1509
88914W        W63902  26.087  26.276  19.838 -0.0939 -0.3984  0.4205
88915W        W63903   5.193  27.369   9.771 -0.0287  0.0543 -0.3208
88916W        W63904  26.850  22.024   8.620 -0.0894 -0.0146 -0.3231
88917W        W63905  23.832  27.795  20.320 -0.0752  0.1796  0.2782
88918W        W63906   3.050  30.364  25.189 -0.0716  0.0426  0.3075
88919W        W63907  16.085  18.218  11.152 -0.1197 -0.2193 -0.1210
88920W        W63908  22.781  34.395  21.417 -0.0059  0.0072  0.1943
88921W        W63909  14.820  24.733  25.278  0.0142 -0.0208 -0.0361
88922W        W63910  34.316   9.670  12.503  0.1077  0.1474  0.1552
88923W        W63911  29.877   2.031  13.786 -0.2320  0.2576 -0.0304
88924W        W63912  19.720  11.636   5.435 -0.0382 -0.1211 -0.0736
88925W        W63913  13.080  17.443   6.440 -0.0859  0.0350 -0.1601
88926W        W63914  27.832  13.934   8.311  0.0075 -0.0503 -0.2952
88927W        W63915   1.508  29.822   3.877  0.0840  0.0829  0.3263
88928W        W63916   5.486  16.760  16.730  0.1366  0.0223  0.0031
88929W        W63917   7.194   1.028  22.468  0.0426 -0.0257 -0.0190
88930W        W63918  15.589  18.585   3.023 -0.1915 -0.2326  0.1004
88931W        W63919  22.690   2.076   3.937  0.2837  0.1016  0.0563
88932W        W63920   8.939   4.350   8.021 -0.1829  0.0547 -0.0280
88933W        W63921  10.809  33.468  10.262 -0.1503 -0.0738  0.0383
88934W        W63922   9.596  31.774  24.297 -0.2990  0.0277  0.4134
88935W        W63923  10.688  29.510  25.735  0.1684  0.0349  0.4113
88936W        W63924  11.253  22.039   9.454 -0.0428  0.0752  0.3157
88937W        W63925  11.705   9.084   6.269 -0.0962 -0.0779  0.1362
88938W        W63926  34.065  13.221  10.096 -0.2165 -0.3890 -0.0306
88939W        W63927   8.043  11.741  21.167  0.4786  0.3439  0.1520
88940W        W63928  15.681  13.056  19.789 -0.2401  0.0133 -0.0069
88941W        W63929  29.515   9.389  11.865 -0.0047 -0.2896  0.1098
88942W        W63930   7.758  19.830  10.683  0.0686  0.1259  0.1020
88943W        W63931   4.869   3.467  21.816 -0.0558  0.5305  0.0984
88944W        W63932  25.385   1.616  19.322 -0.2333  0.2672  0.0885
88945W        W63933   7.255  25.922   2.448 -0.1866 -0.0433 -0.0874
88946W        W63934  12.572  31.168   7.261 -0.1423  0.0594  0.1049
88947W        W63935  12.462  19.480  22.597 -0.1595  0.0295  0.2216
88948W        W63936  21.657  32.264   3.635 -0.2649 -0.1085 -0.1187
88949W        W63937  26.796   1.476   5.445 -0.0012  0.0053  0.1606
88950W        W63938  25.178   5.281   4.741  0.1575  0.1112  0.1790
88951W        W63939  32.280  24.105   8.941 -0.1837 -0.0909  0.3984
88952W        W63940   3.467  21.285  19.382 -0.0660  0.2671  0.0184
88953W        W63941  11.783  22.140   6.906  0.2404  0.1677  0.0845
88954W        W63942  26.515  12.253  14.704  0.2966 -0.1017  0.1627
88955W        W63943  20.948  11.123  20.245  0.1684  0.1665  0.0550
88956W        W63944  16.592  35.055   9.148 -0.0049 -0.1080  0.2089
88957W        W63945  16.338  18.008  19.717  0.0089 -0.2829  0.3405
88958W        W63946  35.049  26.833  22.728  0.1879  0.0440  0.0093
88959W        W63947  27.777   2.553   6.005 -0.0044 -0.0509  0.0802
88960W        W63948  16.591  21.419   9.933 -0.0840 -0.0048 -0.2269
88961W        W63949  32.558  30.627   5.917  0.0940 -0.1717 -0.0793
88962W        W63950  25.019  35.090  23.419  0.0742 -0.1504 -0.1023
88963W        W63951   4.051   8.242   2.994  0.0088  0.0728 -0.1516
88964W        W63952  31.506   1.851  14.524 -0.0808 -0.0605  0.4827
88965W        W63953  34.032  23.106  12.697  0.1526 -0.1156 -0.1461
88966W        W63954  26.456   8.605  22.805  0.0310 -0.0389  0.0455
88967W        W63955  13.125  31.927   9.093 -0.1423 -0.1512 -0.1807
88968W        W63956  28.249  16.653   7.998 -0.0042 -0.1139  0.0684
88969W        W63957  33.268  27.355  14.510 -0.3975 -0.1569  0.1162
88970W        W63958  24.868  34.472   2.420 -0.2644 -0.0567 -0.1001
88971W        W63959  12.103  20.920  25.924  0.2254 -0.2521 -0.1724
88972W        W63960  33.325   1.263  17.317  0.0381  0.1098 -0.0077
88973W        W63961   1.584  23.347  24.146  0.2154 -0.0696  0.1484
88974W        W63962   6.288  27.795  12.143 -0.3164  0.5150 -0.0928
88975W        W63963  29.702  26.297   8.665  0.0473  0.4305 -0.1331
88976W        W63964  15.641  18.643   8.665 -0.2896 -0.1446 -0.1776
88977W        W63965  19.118  31.269  18.372  0.1989 -0.4950 -0.2099
88978W        W63966  30.868  22.158   7.903  0.2518  0.2625 -0.0304
88979W        W63967  19.490  21.833   9.635 -0.2395 -0.1071  0.1406
88980W        W63968  14.117  24.055  15.394 -0.0106 -0.3129 -0.2299
88981W        W63969   0.927  17.773  21.256  0.1747  0.1012 -0.1306
88982W        W63970   9.980   0.335  26.045  0.2709  0.0723 -0.1334
88983W        W63971  24.523  12.415  15.513  0.2150  0.3212  0.2901
88984W        W63972  32.138  25.604   0.490 -0.1770  0.0485 -0.1845
88985W        W63973  16.267  25.748  22.340  0.1226  0.0759  0.0451
88986W        W63974  28.403  16.608  14.021 -0.0454  0.0748  0.2077
88987W        W63975  24.372  22.939  16.735 -0.1053  0.2268 -0.2570
88988W        W63976  30.405   6.236  21.333 -0.0636 -0.0130  0.0233
88989W        W63977  22.637   5.198  24.719 -0.2926 -0.3776  0.0284
88990W        W63978  29.260  30.075  20.968  0.0808  0.1099 -0.2400
88991W        W63979  21.927  12.124  15.607 -0.0826  0.1272  0.2254
88992W        W63980   0.163  13.032   9.895  0.0141  0.0791  0.0729
88993W        W63981   2.006   2.739  20.957 -0.0040  0.3161  0.0293
88994W        W63982  26.675  20.247  23.407  0.1221  0.2692  0.0245
88995W        W63983  23.962  23.298  21.601  0.0318 -0.0822 -0.1404
88996W        W63984  13.081  21.472   1.920  0.0150 -0.2471 -0.2472
88997W        W63985   5.400   3.512   5.161 -0.0314 -0.2150  0.1018
88998W        W63986   2.241   4.269   5.371  0.1261 -0.1402 -0.0116
88999W        W63987   2.079  18.902  16.209  0.1250  0.1957 -0.1966
89000W        W63988  20.099  27.356   1.895  0.0029 -0.3674 -0.1057
89001W        W63989   3.441  27.159  21.362 -0.2436 -0.0334  0.3381
89002W        W63990  21.570  19.857   2.411 -0.0714  0.2629  0.0264
89003W        W63991  23.379  23.694  23.154 -0.2389  0.4571 -0.0096
89004W        W63992  32.265  30.947   0.689 -0.1855 -0.0824  0.3152
89005W        W63993  20.078  15.836   5.012 -0.0432  0.0864 -0.0133
89006W        W63994   9.516  21.829  11.915 -0.3026  0.1175  0.1473
89007W        W63995  34.567  34.233   2.200 -0.1708  0.0778  0.0729
89008W        W63996  30.205  19.577  11.935  0.3017  0.0565  0.2655
89009W        W63997  16.556   1.678  25.250  0.0634  0.1842 -0.2213
89010W        W63998  13.510  29.837   4.493  0.1988 -0.0310  0.0509
89011W        W63999  10.640   9.298  12.841 -0.3655 -0.0500  0.1420
89012W        W64000  25.846  22.754  25.465 -0.2999  0.0483 -0.2196
89013W        W64001  33.664  20.929  22.791  0.3205  0.1625 -0.0856
89014W        W64002  22.177   3.333  22.115  0.1393  0.1473  0.2121
89015W        W64003   9.113   5.400   4.650  0.0162  0.1783 -0.1262
89016W        W64004  25.687  32.670  11.695 -0.3811 -0.0843  0.0878
89017W        W64005  28.522  22.371  16.402  0.0149 -0.1299  0.1215
89018W        W64006   4.294  14.945   6.228 -0.2274 -0.3226 -0.0726
89019W        W64007  11.203  12.843   8.871 -0.1310 -0.1036  0.0986
89020W        W64008  30.038  28.985  16.071 -0.2172  0.0451  0.0808
89021W        W64009  21.024   1.527   1.735  0.2894  0.0599  0.0214
89022W        W64010  29.308  30.690   0.568 -0.3834 -0.2508 -0.1452
89023W        W64011  18.703  31.563  19.453  0.0590 -0.0630  0.3546
89024W        W64012  25.234  18.810  17.148  0.1029 -0.5164 -0.1063
89025W        W64013  22.289  25.430  15.372 -0.0860  0.0360 -0.0712
89026W        W64014  13.352  20.009   6.215 -0.4975  0.1309 -0.5186
89027W        W64015  10.356  26.111   9.124  0.0522  0.2057  0.4179
89028W        W64016  16.885  17.422   4.327 -0.0529 -0.2848  0.0723
89029W        W64017  32.277   3.882   3.444 -0.0412  0.1559  0.3273
89030W        W64018  33.391   9.771  22.424 -0.1734  0.1571 -0.1703
89031W        W64019  24.178  29.572   0.181 -0.0888  0.2768  0.0933
89032W        W64020  21.166  11.896  25.421  0.3543 -0.2655 -0.0690
89033W        W64021   7.979   0.767  13.503 -0.0694 -0.1388 -0.2513
89034W        W64022   0.454  32.059  26.069  0.0891 -0.0165  0.0119
89035W        W64023  10.244   0.081  20.938  0.0985 -0.0527  0.0466
89036W        W64024  24.621   2.557  25.703  0.0762  0.1425  0.0233
89037W        W64025  25.255  27.875  12.920 -0.2454  0.0241 -0.1821
89038W        W64026   5.524  10.360  19.870  0.1775  0.1751  0.0945
89039W        W64027  12.372  32.460  24.056  0.1580 -0.0264  0.1429
89040W        W64028  30.005   1.049   4.908  0.2262 -0.0990 -0.0532
89041W        W64029   7.681  14.977  23.094 -0.0195 -0.3335  0.4474
89042W        W64030   4.294  15.547   2.941 -0.2625 -0.1872 -0.1070
89043W        W64031  19.952   0.526   6.949 -0.1659 -0.0913  0.0047
89044W        W64032  13.658  25.807   6.128  0.0074 -0.3313  0.4457
89045W        W64033  17.796  12.804   5.791 -0.1210 -0.1125  0.1567
89046W        W64034  32.889  32.717   0.335 -0.0402  0.1037  0.1257
89047W        W64035  11.843  31.199  24.547  0.3321 -0.2708 -0.1333
89048W        W64036  13.900   2.186  24.898 -0.0568 -0.1968 -0.1244
89049W        W64037  22.874  35.179  20.431  0.0061  0.0640 -0.0640
89050W        W64038  16.662  20.186  10.339  0.1019 -0.1922 -0.2643
89051W        W64039  17.892  14.713   2.320  0.0494  0.0300 -0.4573
89052W        W64040  32.676  11.000   6.832  0.4368  0.0372 -0.3208
89053W        W64041  10.450   0.616  23.546 -0.0860 -0.0920 -0.3256
89054W        W64042  29.654   6.084  12.028  0.2544  0.1674 -0.2354
89055W        W64043  11.614   8.715  23.469  0.0267 -0.0424  0.3057
89056W        W64044  16.922  12.812   1.531  0.3661 -0.0141  0.2507
89057W        W64045  32.467  21.411   8.563 -0.2432  0.0747 -0.0803
89058W        W64046  11.337  21.168  22.793 -0.0533  0.0544  0.0238
89059W        W64047   8.400  22.994   8.845  0.0970  0.1936  0.1106
89060W        W64048  32.276  29.186  15.098 -0.1949 -0.0130 -0.1424
89061W        W64049  11.623  28.419   0.306 -0.1246  0.0466 -0.1811
89062W        W64050   0.304  23.431  24.139 -0.4847  0.1843  0.0330
89063W        W64051  12.381   6.753   2.753 -0.3201 -0.0540 -0.1791
89064W        W64052  24.412  25.014   2.047  0.0416  0.1046  0.0601
89065W        W64053   2.020  12.332  20.598 -0.1248 -0.3596  0.2241
89066W        W64054   4.206  33.247  10.950  0.1619  0.0876  0.2805
89067W        W64055  21.258  27.561   0.863 -0.1254  0.3161  0.3348
89068W        W64056  22.466  27.032  17.818  0.1295  0.1969  0.2473
89069W        W64057  28.194  10.117  25.901 -0.1335 -0.1308 -0.1655
89070W        W64058  24.072  35.173   5.007  0.0950 -0.3679  0.5766
89071W        W64059  23.539  19.455  12.010 -0.3042  0.1564  0.0312
89072W        W64060  11.252  24.383  11.383  0.2689  0.2592  0.2310
89073W        W64061  30.827  32.428  24.784  0.1758 -0.1434  0.1762
89074W        W64062   8.073  19.356  11.475 -0.1050 -0.0228  0.1439
89075W        W64063  32.247  20.861  15.631  0.0637 -0.1551 -0.0504
89076W        W64064   3.933  22.468  18.394 -0.4713  0.0004  0.0359
89077W        W64065  19.851  28.159  26.060  0.0243 -0.0796  0.1301
89078W        W64066  32.313  15.880  15.347 -0.0523  0.0408  0.1691
89079W        W64067  27.835  24.221  16.724  0.1136 -0.1538 -0.1029
89080W        W64068  19.825  12.230   4.061  0.1166 -0.1827  0.0094
89081W        W64069  35.067   1.092   2.096  0.2292  0.0072  0.0905
89082W        W64070   2.459  34.621  26.182  0.2482 -0.0138  0.2889
89083W        W64071  34.126  18.157  16.179  0.0707  0.0680  0.0688
89084W        W64072   1.641  27.658  21.210 -0.2848 -0.0963  0.2770
89085W        W64073  28.690   7.748  10.843 -0.1061 -0.2396  0.1626
89086W        W64074  13.956  20.017  14.835  0.0856  0.2495  0.2037
89087W        W64075  29.328   6.917  24.076 -0.0592 -0.1437 -0.0600
89088W        W64076   0.092  28.653  18.238  0.1975  0.0039 -0.0769
89089W        W64077   6.276  32.517  14.951 -0.0018 -0.1860 -0.0218
89090W        W64078  18.075  24.164   9.669 -0.2757 -0.3937 -0.0698
89091W        W64079  17.506  30.050   1.357 -0.0199  0.2033 -0.0984
89092W        W64080  24.926  31.148   0.724  0.1559 -0.0496 -0.3173
89093W        W64081  30.244  30.491  14.584 -0.2286  0.1955 -0.0038
89094W        W64082   3.239  25.977  21.623  0.2102 -0.2320  0.1091
89095W        W64083   7.548  25.048   4.752 -0.0849  0.0841 -0.0763
89096W        W64084  12.046   5.336   8.100  0.0133  0.3482 -0.1405
89097W        W64085  31.843  34.363   6.361  0.3559 -0.0475 -0.1418
89098W        W64086  20.823  23.972   3.090 -0.3208 -0.0261  0.0836
89099W        W64087  10.860  34.367  22.548  0.0725  0.1389 -0.0394
89100W        W64088  24.764   3.949   0.723  0.0601  0.2294  0.0527
89101W        W64089   4.746  27.548   3.396  0.0501  0.0432 -0.0593
89102W        W64090   0.426   3.043   0.284  0.0687  0.0426  0.1912
89103W        W64091   7.865  16.876  24.896 -0.1009  0.1056  0.0620
89104W        W64092  16.557  24.913   2.709 -0.0166  0.2089 -0.2809
89105W        W64093  12.574  32.799   4.593 -0.3783  0.2196 -0.4068
89106W        W64094  16.182  22.468  10.098  0.0594 -0.0119  0.1824
89107W        W64095  32.773  33.463  19.935 -0.2044 -0.0053 -0.0243
89108W        W64096   6.568  14.631  19.272  0.0855  0.1951  0.1586
89109W        W64097   2.904   8.123  25.200 -0.1267 -0.1847  0.0824
89110W        W64098  30.751  19.801  14.189 -0.1206  0.2924  0.0344
89111W        W64099  19.153  32.447   9.474 -0.2119  0.1976 -0.2752
89112W        W64100  12.760   1.840  23.958  0.0401  0.1227 -0.1779
89113W        W64101  19.792   2.664  15.620 -0.1659 -0.2940  0.3335
89114W        W64102  22.916  12.486   2.597  0.0245  0.0895 -0.2282
89115W        W64103   4.310   9.101   1.123 -0.1070  0.0456  0.0399
89116W        W64104  25.917   9.024   2.539 -0.0582  0.1626 -0.1332
89117W        W64105  34.579  22.793  18.056 -0.3825 -0.1097 -0.1560
89118W        W64106  17.653   8.631   8.250  0.5197 -0.4128 -0.0468
89119W        W64107  20.419  12.295   6.821  0.2181  0.1302 -0.0284
89120W        W64108  17.504   6.059   6.279 -0.0382 -0.0125  0.0779
89121W        W64109  14.254  12.343  10.636 -0.1222 -0.0460  0.0664
89122W        W64110  32.118   9.702  17.887 -0.0138 -0.0377  0.3795
89123W        W64111   9.387  20.064   8.612  0.0799 -0.0530 -0.0745
89124W        W64112  34.516  28.936   0.834  0.0443 -0.0420  0.3775
89125W        W64113   7.252  28.218  11.748  0.0966  0.1360  0.0713
89126W        W64114  20.207  24.499  25.428  0.3745  0.1134 -0.0223
89127W        W64115   1.346  33.867  18.734 -0.0036 -0.1255  0.0227
89128W        W64116  33.339  23.431  18.581 -0.2698 -0.0897  0.2112
89129W        W64117  18.067  31.576  19.272 -0.1031  0.2207 -0.0343
89130W        W64118  16.380   4.663   3.116  0.2255  0.0515 -0.0814
89131W        W64119   5.310  28.746  11.645  0.3376 -0.2977  0.0961
89132W        W64120  11.243  16.228  23.645 -0.0182 -0.1106 -0.0091
89133W        W64121  13.845  16.849  13.611 -0.2114  0.0598 -0.0223
89134W        W64122  14.009  29.093   4.601 -0.0650  0.0939 -0.0466
89135W        W64123   2.248   7.313   4.799 -0.1492  0.0175  0.1754
89136W        W64124  29.574   6.621  13.819 -0.3092 -0.1305  0.0842
89137W        W64125  17.946   9.012   8.166 -0.1522  0.1296 -0.0296
89138W        W64126  28.473   4.203   9.895 -0.2678 -0.1336 -0.1118
89139W        W64127  13.373  29.274   3.513 -0.0569  0.1073 -0.2817
89140W        W64128  10.202  34.557   4.234  0.2746  0.0572 -0.1030
89141W        W64129  23.258  17.196  15.064 -0.2109  0.3318 -0.0389
89142W        W64130  25.197   6.665  19.531  0.0610  0.5547 -0.1861
89143W        W64131  27.499   0.362  17.532 -0.1246  0.1165 -0.1085
89144W        W64132   4.647  22.585  24.727  0.0306 -0.1004 -0.3898
89145W        W64133  13.672  18.422   1.638  0.0037 -0.0271  0.0601
89146W        W64134  17.026  11.967   7.061  0.1900 -0.0860 -0.0182
89147W        W64135  19.519   5.735  23.957 -0.3385  0.1429 -0.1378
89148W        W64136  30.931  28.516  11.098 -0.0975 -0.0629  0.5933
89149W        W64137  18.670   1.396   4.964 -0.1977 -0.2048 -0.0078
89150W        W64138  27.556  19.972  21.390  0.0603  0.1013 -0.0263
89151W        W64139   5.477  19.244   3.614 -0.4547  0.0335 -0.0180
89152W        W64140  28.010  19.392  25.244 -0.1360  0.0373  0.0333
89153W        W64141  22.888  10.641  19.662  0.1007  0.3579 -0.2216
89154W        W64142   2.243  16.790  20.367  0.0161 -0.0039 -0.2918
89155W        W64143   5.216  14.806   1.731 -0.4043  0.1858  0.1338
89156W        W64144  16.003  21.870   8.542  0.0717 -0.0765 -0.0569
89157W        W64145  29.101  33.068   2.778 -0.2296  0.1185 -0.1471
89158W        W64146  33.098   5.056  24.123 -0.1093 -0.2891  0.0680
89159W        W64147  33.562   4.235  13.980 -0.0240 -0.0508 -0.1226
89160W        W64148   3.232  14.272   4.234  0.1972  0.0884 -0.3862
89161W        W64149  31.363  22.238  18.211 -0.0405  0.1616  0.0321
89162W        W64150  12.362  12.589  20.030  0.0756  0.1022 -0.0622
89163W        W64151   8.828  22.850   7.586  0.1967  0.2969  0.0347
89164W        W64152  33.142   0.601  19.437  0.0496  0.2278 -0.1050
89165W        W64153  27.054  28.241  13.685  0.0949 -0.0680 -0.0784
89166W        W64154  25.908  19.962  21.314  0.0703 -0.2599 -0.1720
89167W        W64155   2.337   2.527   8.931 -0.4355  0.0800 -0.0094
89168W        W64156   9.682  33.184  23.753 -0.2486  0.0574  0.1054
89169W        W64157  31.112  30.083  18.720 -0.2533  0.2216  0.1650
89170W        W64158  33.810  35.385   3.332  0.1930 -0.0386 -0.2513
89171W        W64159  12.993   1.402  11.669  0.0673  0.1728  0.4360
89172W        W64160  14.996  27.342  12.159  0.4422 -0.1664  0.3129
89173W        W64161  23.771   2.126   4.934  0.0088  0.1956 -0.1573
89174W        W64162   9.688   9.659  22.849  0.2359  0.0563  0.2620
89175W        W64163  21.511  22.467  21.022  0.0191 -0.0752 -0.0764
89176W        W64164  32.851  27.202   2.288  0.0858 -0.0568 -0.0208
89177W        W64165  10.240  18.385   0.748 -0.2614 -0.5321  0.0240
89178W        W64166   7.927  20.377  22.741 -0.1205  0.2344 -0.1462
89179W        W64167  22.694  31.088  20.775 -0.0739  0.1761 -0.1278
89180W        W64168  15.537   9.600   9.588 -0.0189 -0.0315  0.2677
89181W        W64169  22.175  32.241   4.585  0.0829 -0.1115 -0.0323
89182W        W64170  25.312  30.682   3.204  0.1513  0.0726  0.1334
89183W        W64171  20.756   1.114   6.447 -0.0757  0.0794 -0.0164
89184W        W64172  30.412  29.075  11.328  0.2725 -0.3658  0.0490
89185W        W64173  32.335  19.191   9.951  0.0922  0.3100  0.1538
89186W        W64174  13.451  29.244   0.286  0.1260 -0.1079 -0.0347
89187W        W64175  17.071  31.609   3.395  0.1569  0.0640 -0.0505
89188W        W64176  25.080  25.586  15.315  0.1262  0.0687 -0.0216
89189W        W64177  13.709   4.611  22.391 -0.3323  0.1897 -0.0062
89190W        W64178  10.631   4.980  13.629 -0.0292 -0.1279 -0.3826
89191W        W64179  33.436  15.936  14.445  0.1217  0.1857 -0.3745
89192W        W64180  15.169  33.395   5.682 -0.1285  0.3248  0.1179
89193W        W64181  26.906   4.870  24.845 -0.1523  0.2443 -0.1594
89194W        W64182  25.711  35.331   3.602  0.3297  0.2428 -0.0015
89195W        W64183  32.194  12.481  20.603 -0.0594 -0.1690 -0.1039
89196W        W64184   9.989  26.301  16.086 -0.2509 -0.0124 -0.0881
89197W        W64185   9.950  18.334   4.287 -0.1968 -0.1551 -0.4341
89198W        W64186  10.448  20.598  26.237 -0.2491  0.1755 -0.1684
89199W        W64187  19.776  35.336  16.695  0.2882 -0.2383  0.0090
89200W        W64188  17.981  10.671  12.107 -0.0304  0.1530 -0.4972
89201W        W64189   3.854  26.031   1.889 -0.2082 -0.1052 -0.2083
89202W        W64190  32.341   7.983  14.204  0.0907 -0.1151  0.2565
89203W        W64191   0.914  12.966   2.343 -0.0686  0.1588  0.4189
89204W        W64192   8.715  10.157   6.100  0.0841 -0.0367  0.0044
89205W        W64193  13.295  22.221   0.378  0.0989  0.1149 -0.0177
89206W        W64194  27.992  19.245  12.491  0.0740  0.1867 -0.2274
89207W        W64195  27.837  31.860  25.231 -0.2086  0.1276  0.0263
89208W        W64196   9.343  15.654   5.078  0.1259 -0.1723 -0.4463
89209W        W64197  21.165   8.480   0.522 -0.0909  0.0896 -0.3670
89210W        W64198  25.456  17.719  14.655 -0.0455 -0.0953  0.0106
89211W        W64199  10.392  15.190  26.165  0.2920  0.0534 -0.0693
89212W        W64200  16.502  14.354   6.997 -0.1563 -0.2866 -0.0482
89213W        W64201  28.914   0.363  11.349  0.2752  0.1189  0.0467
89214W        W64202  29.002  10.080   6.955 -0.1284  0.0998 -0.0798
89215W        W64203  21.112  16.667  24.204  0.0356 -0.2172 -0.5116
89216W        W64204   1.539  23.996   2.123 -0.0861  0.1997  0.0984
89217W        W64205  22.637  34.014  23.455 -0.2066  0.0363  0.0226
89218W        W64206   9.619   9.211   9.399  0.3417  0.0087 -0.0719
89219W        W64207  24.066  12.129  16.180  0.1160 -0.0615  0.2448
89220W        W64208   9.427  24.238   0.243 -0.1364 -0.1115 -0.1605
89221W        W64209  15.676  30.088   6.714 -0.2800 -0.3393 -0.0552
89222W        W64210  17.806  25.621   6.026 -0.2838  0.0803  0.1804
89223W        W64211  13.789  14.851   6.364  0.3860  0.0540  0.0659
89224W        W64212   6.727   7.520  10.743 -0.3662 -0.1008 -0.2215
89225W        W64213  17.620  20.272   8.796 -0.0294 -0.3462  0.2026
89226W        W64214  20.563  26.756  24.593  0.0111  0.3592 -0.0855
89227W        W64215  18.341  15.856  21.727  0.2127  0.1631  0.1850
89228W        W64216  31.096   6.531  13.577  0.0727 -0.1156  0.1591
89229W        W64217  13.236  34.834   7.285 -0.0004  0.1817 -0.4693
89230W        W64218  30.048  30.371  23.204 -0.2405  0.0616  0.0501
89231W        W64219  19.299  33.425   0.416  0.3250  0.2196  0.0113
89232W        W64220  34.839   7.747  19.055  0.4121 -0.3152  0.0586
89233W        W64221  31.362   0.154  20.524  0.0865 -0.3782  0.0917
89234W        W64222  12.314   9.429  21.929 -0.2218  0.1210 -0.0880
89235W        W64223   5.996  34.878   9.234  0.0614 -0.1756  0.1353
89236W        W64224   6.286  10.847   4.332  0.3081 -0.0273 -0.0219
89237W        W64225  18.198  11.259  18.967  0.0598 -0.0123  0.0333
89238W        W64226  28.742  23.570  10.680 -0.0878 -0.0753 -0.0814
89239W        W64227   6.982  31.883  20.810 -0.2015 -0.1564  0.0325
89240W        W64228  16.375  16.081   5.505 -0.2064  0.1835  0.3527
89241W        W64229  32.929   1.879  13.818 -0.1600 -0.0580 -0.1927
89242W        W64230   4.482  12.175  23.348  0.0574  0.1314  0.0155
89243W        W64231   9.895  20.912   5.449 -0.1162 -0.3307  0.0663
89244W        W64232   7.220  24.441   5.979 -0.0575 -0.0845 -0.3851
89245W        W64233   8.998  34.055   1.053  0.2372 -0.1652  0.4358
89246W        W64234  12.502   9.895   9.602  0.3113 -0.2050  0.0326
89247W        W64235  26.960  16.414  11.851 -0.1675 -0.0019  0.1304
89248W        W64236   2.270  26.386   2.862 -0.2840 -0.1343  0.5228
89249W        W64237  30.772  24.879  10.290 -0.0898 -0.1801  0.0704
89250W        W64238  19.309   9.860  23.472 -0.1333 -0.1034  0.1384
89251W        W64239  33.317  11.385   9.330  0.0565 -0.3287  0.0566
89252W        W64240  22.631  34.895   0.804  0.2675  0.0317  0.1239
89253W        W64241  20.571  24.681   8.093 -0.1965  0.0153  0.1145
89254W        W64242   9.399  32.694  12.455  0.0951  0.0273 -0.2306
89255W        W64243  19.887  24.930  25.516 -0.1507 -0.0804 -0.1566
89256W        W64244  13.018  13.160  12.302 -0.3377  0.0359  0.2221
89257W        W64245  11.852  20.674  24.951 -0.3346 -0.1863  0.1319
89258W        W64246  22.286  30.193   3.474  0.2217  0.1593 -0.0842
89259W        W64247  21.367  28.575  22.572 -0.1647 -0.2819  0.0202
89260W        W64248  18.890   5.575  11.747  0.0378 -0.1407 -0.1374
89261W        W64249  11.515  23.038   8.446 -0.1192 -0.0037 -0.0556
89262W        W64250  26.662  30.949  24.831  0.3473 -0.0688  0.2581
89263W        W64251   7.205  16.276   1.533  0.1645  0.0896 -0.0301
89264W        W64252  14.447  24.417   1.917 -0.2209 -0.2847  0.0190
89265W        W64253  31.130   1.025  13.695 -0.0496  0.2933 -0.0348
89266W        W64254   6.325  30.283  22.489  0.2013 -0.2482  0.1554
89267W        W64255  17.519  26.167  21.953 -0.1432 -0.1020  0.1451
89268W        W64256   6.100  30.240   2.753 -0.0921  0.1251  0.0243
89269W        W64257  19.487  23.847   5.899 -0.0055  0.0820 -0.2221
89270W        W64258  15.345  14.477  11.683 -0.0658  0.1853  0.0391
89271W        W64259   8.864  31.454   8.502 -0.0987  0.0629 -0.1226
89272W        W64260  33.758   9.474   0.916  0.0727  0.0482  0.1886
89273W        W64261  23.889  28.699  21.460  0.1208  0.0279  0.0458
89274W        W64262   5.000   5.403  19.993 -0.1137 -0.0828 -0.3421
89275W        W64263  13.637  34.887  10.557 -0.3090 -0.0058 -0.0568
89276W        W64264  19.508  16.552   2.474  0.0869 -0.1664 -0.2355
89277W        W64265  11.486   5.640  10.147 -0.2359  0.3125 -0.0580
89278W        W64266  12.330  30.036  15.043 -0.1101 -0.0112  0.2315
89279W        W64267  28.008  13.756  14.382 -0.3103 -0.0936  0.0723
89280W        W64268   8.382  20.238   1.911 -0.1542  0.0623 -0.1577
89281W        W64269   7.861  33.973   4.270 -0.2306 -0.2034  0.3684
89282W        W64270  29.763  21.742   6.981  0.0092 -0.0716  0.0029
89283W        W64271  22.045  25.888   3.337 -0.3187 -0.2303  0.2356
89284W        W64272   5.189  10.113  19.497 -0.0508  0.5451  0.1396
89285W        W64273  23.846  12.186  18.127  0.0590 -0.0026 -0.1764
89286W        W64274  20.589  31.293  15.038 -0.1988  0.0005 -0.2385
89287W        W64275  14.568  11.479   0.562  0.2092  0.0863 -0.1016
89288W        W64276   6.781  15.131  20.340  0.1013  0.1478  0.3064
89289W        W64277   6.672   2.667   7.973 -0.0820 -0.1429 -0.2331
89290W        W64278  25.930  28.105   3.098 -0.0122 -0.0401 -0.2883
89291W        W64279  18.805  28.676   7.182  0.2821  0.0507 -0.0361
89292W        W64280  14.407  17.051   1.667 -0.0403  0.0046 -0.1304
89293W        W64281   5.476   9.250   7.914  0.0028  0.1637  0.2197
89294W        W64282   8.673   3.454  10.531  0.0721 -0.1556 -0.0484
89295W        W64283   4.788  30.839   5.491  0.0401 -0.0948  0.1086
89296W        W64284  31.152   2.362   6.457 -0.1589 -0.0123 -0.1703
89297W        W64285  25.508  27.842  11.844  0.2114 -0.1925 -0.2685
89298W        W64286  28.111  27.260  12.647  0.1634  0.2124  0.1529
89299W        W64287   5.418  20.049   1.045  0.0993 -0.1999  0.0477
89300W        W64288   9.991   1.214   5.222 -0.1583  0.0380  0.2491
89301W        W64289   2.540  11.317  23.740  0.0307 -0.3038  0.0867
89302W        W64290  33.466  10.559  14.486 -0.0825  0.0812 -0.3351
89303W        W64291  21.572  23.615   2.487 -0.1551 -0.2293 -0.1706
89304W        W64292  34.149  19.144  20.473 -0.0628  0.0271  0.2448
89305W        W64293   0.411  20.184  12.476 -0.1195 -0.0722 -0.1816
89306W        W64294   2.869  15.553  25.076 -0.2958  0.1710 -0.0377
89307W        W64295  19.826  26.911   8.135 -0.2331  0.1268 -0.1213
89308W        W64296  33.323  20.607  25.976 -0.1947 -0.0498 -0.0465
89309W        W64297  26.648  31.173   0.925  0.2290  0.1189 -0.0485
89310W        W64298  15.724   3.838  11.865  0.0657 -0.0586 -0.1650
89311W        W64299  12.869   5.835  21.804  0.0558 -0.0234  0.0099
89312W        W64300  14.177   1.776  22.046  0.1254 -0.0065  0.0414
89313W        W64301  20.912   5.253  25.585 -0.1878 -0.0349 -0.1240
89314W        W64302  10.819   8.471  19.001  0.1749  0.3153 -0.1448
89315W        W64303  35.010  28.745   5.392 -0.2762  0.0479  0.1696
89316W        W64304  30.118  23.980  13.848 -0.2401 -0.0316 -0.1853
89317W        W64305  20.444  26.682   8.960  0.1023 -0.0034  0.0174
89318W        W64306  15.731  15.372   3.557  0.0051  0.2781 -0.0008
89319W        W64307   4.559   8.473  25.497 -0.0477 -0.1877  0.0065
89320W        W64308   7.358  25.560   9.885 -0.2155  0.2990  0.0206
89321W        W64309  13.894  32.574   7.493 -0.2343 -0.1787 -0.0125
89322W        W64310  11.730  11.382  13.581  0.1292 -0.2495  0.0759
89323W        W64311  33.133  28.720  13.602 -0.2854  0.1811 -0.1195
89324W        W64312  17.018   7.652  18.946  0.0541 -0.1245 -0.1022
89325W        W64313  15.192  12.097  24.121 -0.1440 -0.0944 -0.1432
89326W        W64314  24.516  28.933  24.134 -0.1063 -0.0304  0.1279
89327W        W64315   3.717  31.090  25.256  0.2079 -0.2032 -0.0720
89328W        W64316  28.203  11.102   8.229 -0.4314  0.1221  0.3026
89329W        W64317  12.357   0.669   4.405 -0.1450 -0.0993 -0.0978
89330W        W64318   6.258   0.118   5.835  0.0037 -0.0840  0.0548
89331W        W64319  29.775  16.545  15.528 -0.1381  0.3871 -0.0439
89332W        W64320  33.480  12.755  19.581  0.3107  0.2591  0.1952
89333W        W64321  32.986  15.430  15.508  0.2541 -0.2405  0.0550
89334W        W64322  23.795  18.087  11.607  0.4774 -0.1478  0.0051
89335W        W64323  14.577   5.353  11.423  0.2463 -0.1007 -0.1569
89336W        W64324  35.283  19.962  13.256  0.0710  0.0196 -0.0429
89337W        W64325  20.597   9.587   5.586 -0.1910 -0.3374 -0.0223
89338W        W64326  17.598  30.258   6.744 -0.2901  0.0559  0.0869
89339W        W64327  31.508  33.967   1.637 -0.0633 -0.0298  0.1166
89340W        W64328   0.768  14.777   2.495  0.2842 -0.1140  0.1562
89341W        W64329   3.721   8.966   2.036 -0.2741  0.0856 -0.4567
89342W        W64330  33.973  20.841  16.613 -0.1526  0.0366 -0.0206
89343W        W64331  16.188  15.614  20.001  0.0353  0.3586  0.1221
89344W        W64332  10.555  16.750   5.127 -0.1328 -0.1290  0.1852
89345W        W64333  14.639  10.608  24.511  0.0361  0.0330  0.1315
89346W        W64334  26.781  22.912  14.185  0.0284 -0.1470 -0.2112
89347W        W64335   5.343  27.600   5.986  0.0039  0.2004  0.1121
89348W        W64336   0.488  22.237  20.724 -0.2743  0.1856  0.1034
89349W        W64337   6.584  15.848   8.743  0.2801 -0.1482  0.0853
89350W        W64338  22.513  24.992  25.455  0.1637 -0.2598  0.5491
89351W        W64339   4.666  18.875   0.888 -0.0206  0.0248  0.1883
89352W        W64340   7.834   3.299   6.272 -0.1700 -0.0208 -0.1654
89353W        W64341  21.877   2.339  17.376 -0.1484  0.0443  0.1545
89354W        W64342  11.625   3.805   9.891  0.0482  0.4726 -0.0145
89355W        W64343   1.417  10.132  16.507 -0.0943 -0.0916 -0.3777
89356W        W64344  15.364   5.770  10.772  0.1560  0.0149 -0.0881
89357W        W64345   2.802   4.929  21.998 -0.2082 -0.1222  0.0004
89358W        W64346  23.867  12.999  13.157  0.1168  0.1251  0.0246
89359W        W64347   3.958  18.046  21.150  0.0235  0.0077  0.0441
89360W        W64348  19.102   8.303   8.301  0.0144  0.2880 -0.0408
89361W        W64349  24.213  31.454   2.059 -0.0686 -0.0729  0.0297
89362W        W64350  12.240  12.861   1.190 -0.2153  0.0862  0.1314
89363W        W64351  20.421   9.818   2.577  0.3090 -0.2825 -0.1439
89364W        W64352  27.613  28.809  26.132  0.1853 -0.1240 -0.0656
89365W        W64353  16.261  20.920   2.421 -0.0269  0.1426 -0.0354
89366W        W64354   9.315  33.025   2.707 -0.2200 -0.1456 -0.0099
89367W        W64355  27.642  30.071  11.522  0.2454  0.0514  0.3214
89368W        W64356   7.574   6.621  20.159  0.0307 -0.1874  0.0917
89369W        W64357  13.773   1.231   8.511 -0.1197  0.0882  0.1429
89370W        W64358  34.729  26.038  22.374 -0.2796  0.3580 -0.0732
89371W        W64359  28.193  23.933  24.480 -0.2139  0.2605  0.1453
89372W        W64360  14.878   3.772   4.629 -0.1040 -0.4165  0.0150
89373W        W64361  10.438   6.651  11.924 -0.1030  0.0343  0.1857
89374W        W64362  13.809  15.644  22.703  0.0233 -0.2151 -0.1385
89375W        W64363  22.229  16.247  16.693 -0.0504 -0.1475  0.1277
89376W        W64364  18.350   5.904  10.937 -0.0516 -0.1658  0.0371
89377W        W64365  16.931  11.240   1.035 -0.1300 -0.1386 -0.0227
89378W        W64366  15.380   3.657  10.756 -0.1882 -0.1491  0.0801
89379W        W64367   5.121  30.919  12.081  0.0149  0.0413  0.3294
89380W        W64368   0.225   4.914  24.172 -0.2245  0.1045 -0.1821
89381W        W64369   7.894   2.201   7.539  0.0071  0.0298  0.1465
89382W        W64370   3.604  30.105   6.671 -0.1018 -0.0092 -0.0963
89383W        W64371  20.147   4.236   3.021 -0.0635 -0.0257  0.2298
89384W        W64372  11.897  15.343  23.960  0.0311  0.2880  0.2591
89385W        W64373  32.443   0.261  12.233 -0.2456  0.2037  0.3416
89386W        W64374  12.038  28.600   4.060 -0.0939  0.1212  0.1581
89387W        W64375  19.473  34.625   4.299  0.0494 -0.0581  0.2871
89388W        W64376   8.604   0.446  10.004  0.2969  0.2368 -0.1042
89389W        W64377  24.479  20.712  25.175  0.0279  0.2109  0.1352
89390W        W64378  18.879  16.211  20.008 -0.1831  0.2328  0.0686
89391W        W64379  23.249  11.312  14.479  0.0692  0.2162  0.2898
89392W        W64380  20.978  35.294  22.492 -0.1834  0.0331  0.0203
89393W        W64381  18.481  19.937   5.858  0.0431  0.2285  0.1574
89394W        W64382  21.585   7.699   1.532 -0.0351 -0.0729 -0.2480
89395W        W64383   1.265  27.116  21.833 -0.2374  0.3412 -0.0530
89396W        W64384  28.476  23.884   7.623 -0.2025  0.3795  0.2032
89397W        W64385  16.451  10.969  23.496  0.3583  0.0561  0.2260
89398W        W64386  12.581   8.675  10.211  0.0862 -0.1950  0.1958
89399W        W64387  29.558  20.670  23.810 -0.1749  0.0345 -0.0681
89400W        W64388  14.136   0.245  10.483 -0.1273 -0.1383  0.3550
89401W        W64389  16.179   9.448   7.529  0.1181  0.0556 -0.0842
89402W        W64390  18.889   6.320   5.313 -0.3588  0.1184 -0.6566
89403W        W64391  21.698  19.770  18.708  0.0935  0.0100  0.3775
89404W        W64392  29.669  30.917  16.028 -0.2717  0.1595 -0.4932
89405W        W64393  33.093  28.981   4.169 -0.0993 -0.0438  0.3086
89406W        W64394   2.053  13.510  13.339  0.0127 -0.3484 -0.1220
89407W        W64395   3.474   1.107  20.807 -0.3321 -0.3057 -0.2154
89408W        W64396  19.183   0.215   3.810 -0.0036 -0.1908  0.0024
89409W        W64397   8.490   6.920  25.681 -0.1213 -0.1489  0.0457
89410W        W64398  15.184   3.753  21.278  0.0341 -0.1748 -0.0354
89411W        W64399  26.109  19.293  14.350 -0.0337 -0.3401 -0.2502
89412W        W64400  23.232  31.518  16.708 -0.2038  0.2447  0.0957
89413W        W64401   5.801   2.127  23.276 -0.0689 -0.3877  0.1129
89414W        W64402   1.201   9.617  26.109  0.3118  0.3557  0.1343
89415W        W64403  20.243  23.519  22.848 -0.1514  0.0777  0.1158
89416W        W64404  10.068  24.603   3.439 -0.2240  0.0620 -0.0619
89417W        W64405  31.287   4.255  11.488 -0.2329 -0.0156  0.2858
89418W        W64406   9.615  34.215  15.817  0.2763 -0.0386 -0.0116
89419W        W64407  21.272   1.744  25.904  0.0991 -0.3324  0.0775
89420W        W64408  26.515  32.828   2.700  0.2027  0.0034 -0.2078
89421W        W64409   6.258   0.845   9.360  0.0110 -0.1349  0.0099
89422W        W64410  15.447  31.712  24.156 -0.1892 -0.3623  0.1847
89423W        W64411   5.902  18.910   6.136  0.1598  0.1813  0.1406
89424W        W64412   8.119  17.633   1.886  0.0569 -0.0761 -0.2415
89425W        W64413  16.983  32.217   6.550 -0.1231 -0.1094 -0.0432
89426W        W64414  30.819  20.184  13.029  0.2894  0.1644  0.0714
89427W        W64415   8.210  25.075   0.124 -0.3272  0.1424  0.1247
89428W        W64416   8.350  20.755  14.023 -0.0979 -0.1634 -0.1605
89429W        W64417  19.913   1.186  17.367 -0.1178  0.2807  0.0944
89430W        W64418  34.385  15.923  18.395  0.2445  0.2169 -0.3333
89431W        W64419  32.362  29.608  16.683  0.0404 -0.3183  0.1289
89432W        W64420   7.749  11.399  11.395 -0.1339  0.0459 -0.1636
89433W        W64421   4.063  16.357   0.033  0.1342  0.1609  0.0242
89434W        W64422  15.557  23.169   4.997  0.1322  0.0267  0.0095
89435W        W64423  22.028   6.400  21.551 -0.2980 -0.3067 -0.1321
89436W        W64424  15.129  16.325  25.112 -0.0292 -0.0517 -0.2137
89437W        W64425   3.034  22.599  16.351  0.0604 -0.1790 -0.2914
89438W        W64426   8.622  23.100   1.006  0.1204 -0.0648  0.4301
89439W        W64427  34.328  16.765   7.170 -0.2122 -0.0861  0.1215
89440W        W64428   8.372  24.100  22.493 -0.0946  0.0875  0.1234
89441W        W64429  29.587  34.069  23.457 -0.4274  0.0656  0.1327
89442W        W64430  13.853  27.879  24.518  0.0010 -0.0215 -0.0646
89443W        W64431  24.213   4.220  23.599  0.3078 -0.0048  0.0867
89444W        W64432  25.531  11.367   0.054  0.1527 -0.1966  0.4089
89445W        W64433  10.706  11.580  23.603  0.0065  0.0161 -0.2822
89446W        W64434  18.440  22.756   9.370  0.1605 -0.1417 -0.2514
89447W        W64435  29.963   6.977  12.935 -0.0045 -0.2448 -0.4208
89448W        W64436  27.190  10.955  25.993  0.0381 -0.1540  0.1286
89449W        W64437   8.025  33.015  23.327 -0.0894 -0.2782  0.0936
89450W        W64438  16.216  28.656  26.243  0.3972  0.0560  0.2313
89451W        W64439  15.188  23.054  25.987 -0.0726  0.1316  0.2028
89452W        W64440   7.855  18.979   6.474 -0.1294 -0.0188  0.1767
89453W        W64441   6.945  11.918   6.745 -0.0170  0.3383 -0.0889
89454W        W64442  16.032  17.740  21.484 -0.2863 -0.0510 -0.2063
89455W        W64443  33.608  13.003  21.714 -0.0715  0.0260 -0.1777
89456W        W64444  19.727  14.006   4.355  0.1074 -0.0578 -0.2915
89457W        W64445  24.468  19.828  19.989  0.0111  0.0496  0.1673
89458W        W64446  17.303   8.805  23.420  0.3704 -0.0377  0.1572
89459W        W64447   7.827   3.527  10.741  0.0902  0.0839  0.0777
89460W        W64448  14.994   7.495  10.711  0.2371  0.2000  0.2380
89461W        W64449  14.066  30.242  23.837  0.0448 -0.4784  0.1725
89462W        W64450  16.959  24.987   8.572  0.2284  0.2029  0.1537
89463W        W64451   7.653  28.087   3.300 -0.2619  0.0842  0.0793
89464W        W64452   6.505  14.779   9.243  0.1446  0.0063  0.0310
89465W        W64453  24.296  14.794  24.239  0.1721 -0.1514  0.2331
89466W        W64454  22.019  22.610   5.498 -0.3351 -0.1717  0.0235
89467W        W64455  16.860  13.016   4.771  0.4792  0.0407 -0.1060
89468W        W64456  23.173  11.451  18.444  0.0697 -0.0166 -0.0070
89469W        W64457  34.087   2.731   4.184  0.2128 -0.1827 -0.0222
89470W        W64458  31.814   8.636  19.559  0.1060 -0.0543 -0.3643
89471W        W64459  20.782  24.593   5.210 -0.1830 -0.2131  0.2861
89472W        W64460  29.813   8.002   0.498 -0.3071  0.0060  0.3353
89473W        W64461   5.164  31.792  23.668  0.2387  0.3091 -0.0477
89474W        W64462  15.538  16.350  23.538  0.0069  0.0413 -0.1755
89475W        W64463  25.598  17.664  17.966  0.0067  0.1966 -0.1690
89476W        W64464  21.059   5.390  20.264  0.1234 -0.0763  0.2168
89477W        W64465   8.127  20.871   6.579 -0.2516  0.3033 -0.1636
89478W        W64466  27.717  10.025  19.094 -0.1900  0.1233  0.2130
89479W        W64467  18.210  22.218   3.208 -0.1927 -0.0333  0.2699
89480W        W64468  18.268   9.803  22.735 -0.4206 -0.1547  0.1839
89481W        W64469  23.999   2.055   1.632 -0.1835 -0.1631 -0.0583
89482W        W64470   0.812  24.025  22.587  0.2424  0.4468  0.0215
89483W        W64471  35.129  13.756   1.357 -0.0306 -0.0517  0.1064
89484W        W64472  31.396  31.570  19.971  0.1321 -0.2308  0.2842
89485W        W64473  12.479  15.405  24.620  0.2117  0.0452  0.2389
89486W        W64474   8.407  19.176  13.144  0.1321  0.1449 -0.0420
89487W        W64475  24.357  28.090   3.596 -0.0595  0.1513  0.3098
89488W        W64476   9.683   5.133  21.094  0.1098  0.0847  0.2660
89489W        W64477  15.970   4.950   8.222 -0.3091  0.0714 -0.1837
89490W        W64478  15.870   9.193   8.457 -0.0994 -0.2842 -0.0952
89491W        W64479  21.721  30.147  16.337 -0.0451 -0.2045  0.1865
89492W        W64480  27.869  25.764  14.879 -0.4296  0.0324  0.1965
89493W        W64481  27.159   3.158  17.058  0.1034  0.2205  0.0484
89494W        W64482  25.180   5.578  17.600  0.2234 -0.0135  0.0509
89495W        W64483   5.453  31.096   5.154  0.0168 -0.2086  0.0148
89496W        W64484  18.800  17.556  19.904 -0.0802  0.2779  0.1027
89497W        W64485  23.640   3.498   6.056 -0.3083  0.0591 -0.0372
89498W        W64486  19.741  26.796  19.591 -0.1123  0.1830 -0.0509
89499W        W64487  20.378  35.126  24.468  0.0222  0.1442 -0.1499
89500W        W64488   6.114  18.716  26.009  0.1701 -0.5454 -0.2579
89501W        W64489  18.759   1.435  25.053 -0.1078  0.0682 -0.1690
89502W        W64490  30.545  14.400  12.739 -0.1379  0.0205  0.1985
89503W        W64491  21.343  22.710  24.881  0.0550 -0.1350 -0.0761
89504W        W64492  10.117   5.386   1.107  0.1971 -0.2980 -0.1662
89505W        W64493   0.876   1.195   0.705 -0.1856  0.3403 -0.0391
89506W        W64494   0.861  26.789  22.963 -0.0357 -0.0216  0.0581
89507W        W64495   3.622  18.097   1.489 -0.0983 -0.1483 -0.1040
89508W        W64496   1.144  15.635   2.291  0.0994  0.1208  0.1161
89509W        W64497   8.808   1.434  13.120 -0.1378  0.1504  0.2093
89510W        W64498  21.763   1.679   6.291 -0.0006  0.0659  0.0071
89511W        W64499  31.419   8.136  14.491 -0.3572 -0.3405  0.1571
89512W        W64500  28.606  14.165  11.104 -0.4523 -0.2201  0.1628
89513W        W64501   9.290  34.762  12.835  0.1819 -0.0353 -0.1720
89514W        W64502  28.631  32.218   3.695  0.2139  0.1238 -0.0828
89515W        W64503  20.774   9.663  23.721 -0.1081  0.3808 -0.5457
89516W        W64504  21.674  34.067  26.133 -0.0004 -0.0019 -0.0721
89517W        W64505  10.184  32.805  21.741 -0.2210 -0.1895 -0.4803
89518W        W64506   7.824  27.997  12.890 -0.1519 -0.0396 -0.2139
89519W        W64507  34.993  10.865  19.034 -0.1241  0.1314  0.1368
89520W        W64508   7.464  18.727   0.152  0.1891  0.0788 -0.3729
89521W        W64509  12.983   9.292   0.833  0.1519 -0.1633  0.2556
89522W        W64510   4.952  27.352  20.913  0.1932 -0.1514 -0.2894
89523W        W64511  10.826  23.360  15.673 -0.1364  0.1001 -0.1583
89524W        W64512  30.348  31.516  22.814 -0.0808  0.3371  0.4937
89525W        W64513  12.872   7.972   8.484 -0.1092  0.3382  0.1299
89526W        W64514  23.102  10.299  20.056 -0.0308  0.3193 -0.1188
89527W        W64515  21.303   4.666  23.560  0.2477  0.1191  0.1722
89528W        W64516   2.769  34.757  24.861  0.1201  0.4013  0.1464
89529W        W64517   2.178   2.642  22.366  0.3284  0.1605  0.1233
89530W        W64518  19.473   0.565   1.513 -0.1945 -0.3761 -0.0294
89531W        W64519  13.178  27.119  16.296 -0.0998  0.1345  0.0249
89532W        W64520   7.867  24.690   2.240  0.1408  0.1591 -0.0891
89533W        W64521  20.170  31.130  18.633  0.1610  0.1076 -0.1756
89534W        W64522   3.680  23.594   6.028 -0.2260 -0.1336 -0.1599
89535W        W64523  27.930  30.203   3.554  0.0165  0.0073  0.1361
89536W        W64524  31.513  19.645   8.130  0.3875 -0.2357 -0.0956
89537W        W64525   0.948  16.637  13.604 -0.0055 -0.0786 -0.1231
89538W        W64526  27.314  17.288  12.064  0.0235  0.2636 -0.0950
89539W        W64527  28.907  23.132  21.379  0.0184 -0.1353  0.0390
89540W        W64528  33.155  31.707   1.858  0.0014  0.0294 -0.1086
89541W        W64529   0.691   7.683  25.297  0.0197 -0.2075 -0.2555
89542W        W64530  24.925  28.104  15.537  0.0272 -0.0763  0.1730
89543W        W64531  10.573  19.454   1.385  0.1481 -0.0807 -0.0027
89544W        W64532  34.124   7.877  16.788 -0.1896  0.2114  0.0952
89545W        W64533   5.582  28.884  23.044 -0.1819 -0.5332 -0.1263
89546W        W64534   3.547  11.881  22.670 -0.5089 -0.0409 -0.2756
89547W        W64535  19.039  21.349   3.294 -0.1005  0.2880  0.0027
89548W        W64536  16.575  16.315   9.420  0.2474 -0.0474 -0.0968
89549W        W64537  27.964  13.633  25.509  0.2324  0.1095 -0.0155
89550W        W64538  24.804  27.354   3.079  0.2961 -0.2618 -0.1140
89551W        W64539  30.333  35.375  24.058 -0.3343  0.0018  0.2240
89552W        W64540   7.820  31.246   5.280 -0.0164 -0.0672  0.1265
89553W        W64541   1.707  15.392  24.179  0.0815 -0.0307  0.1593
89554W        W64542  10.146  28.216  17.170  0.0863 -0.0922 -0.0458
89555W        W64543  15.836  18.189  20.017 -0.4096 -0.1670  0.0370
89556W        W64544  16.156  19.935  25.743 -0.0551 -0.0987 -0.0105
89557W        W64545  31.478   4.746  14.314  0.4505  0.1905 -0.1085
89558W        W64546   1.715  25.319  17.537  0.1291 -0.0713  0.1007
89559W        W64547   4.999   7.177  18.430  0.2428 -0.0763  0.0940
89560W        W64548  32.341   5.189  10.646  0.1666 -0.0670 -0.1670
89561W        W64549  12.686  12.917  12.040  0.1300 -0.0896  0.0061
89562W        W64550  29.429  34.645  25.709  0.0345  0.2198 -0.0806
89563W        W64551   9.437   6.413   7.249  0.1982 -0.5144 -0.2187
89564W        W64552  32.163  14.922  22.964 -0.1967  0.3368  0.2595
89565W        W64553  20.373   5.888  17.755 -0.0832  0.1615 -0.0289
89566W        W64554  22.750   1.683   7.266  0.0505 -0.3586  0.3911
89567W        W64555  20.957  22.966   5.253 -0.1747 -0.1046  0.0273
89568W        W64556   1.526  30.707   5.279  0.1104  0.1637  0.0090
89569W        W64557   8.388   9.454   6.213 -0.0222 -0.1488  0.0848
89570W        W64558   9.528   1.798   5.476 -0.1747  0.0677  0.0755
89571W        W64559   3.773  29.357   4.485  0.0253  0.0044 -0.0385
89572W        W64560  28.588   0.367   3.375  0.0736 -0.0509  0.1733
89573W        W64561   0.785   1.382   4.615 -0.0288  0.2014  0.0498
89574W        W64562   2.160   7.920  22.277 -0.0134  0.0053 -0.1151
89575W        W64563   0.921   9.125  19.069  0.0289 -0.4410  0.0793
89576W        W64564  24.662   0.366  21.793  0.3533 -0.1152  0.1656
89577W        W64565  22.929   4.637  14.670  0.0779 -0.0495  0.1347
89578W        W64566  22.841   0.265  15.189  0.3381 -0.0950 -0.2378
89579W        W64567  14.358  35.048   1.076 -0.2522  0.1286  0.2131
89580W        W64568  21.758   1.421   5.555 -0.1257  0.0899 -0.1616
89581W        W64569  29.778  33.471   2.078  0.0194  0.0580 -0.1003
89582W        W64570   4.639   4.417   6.681  0.3731  0.0361  0.1236
89583W        W64571  26.145  20.743  24.638 -0.3353 -0.2139 -0.0765
89584W        W64572   1.881  30.772  22.574 -0.0053  0.1249  0.0619
89585W        W64573  12.491   6.435  21.394  0.0941  0.0141  0.2315
89586W        W64574  25.124  30.731   3.690  0.1457  0.0777 -0.1118
89587W        W64575  35.004  25.133  13.474 -0.3223  0.1718  0.0533
89588W        W64576  15.792  11.876   2.387  0.1657  0.3251  0.4033
89589W        W64577   0.642   5.750   7.543 -0.1757 -0.0350 -0.1037
89590W        W64578   0.306  21.903  18.159 -0.2030  0.3714 -0.0690
89591W        W64579   8.407  20.430  12.255  0.1637  0.1177 -0.1983
89592W        W64580   1.461   0.409   8.127  0.0536  0.1871 -0.2868
89593W        W64581  14.906  22.852  25.304  0.0080 -0.0354 -0.0033
89594W        W64582  15.852  25.600  25.077  0.0089 -0.3987  0.1790
89595W        W64583   1.820  16.241  18.838  0.1474 -0.3536  0.1215
89596W        W64584  34.043  11.823   1.937 -0.0026 -0.0508 -0.1139
89597W        W64585  25.447  30.559  22.990 -0.1428 -0.2877  0.0053
89598W        W64586  19.032   0.290  15.903  0.2760 -0.1241 -0.0003
89599W        W64587  25.892   1.357  20.948 -0.0225  0.5649  0.0679
89600W        W64588  27.373  29.058   4.730  0.0654  0.2452 -0.0854
89601W        W64589  21.432   2.370  24.611 -0.1607 -0.1215  0.2621
89602W        W64590  11.023  11.275  19.639 -0.2166  0.4297 -0.0537
89603W        W64591   6.093  14.133  23.024  0.1495 -0.0791 -0.4101
89604W        W64592  32.145   9.976   8.289 -0.0409 -0.0881 -0.1910
89605W        W64593  23.145  17.519  18.714 -0.1701 -0.1260 -0.1645
89606W        W64594  30.852  14.830  13.570 -0.0761  0.1558  0.0045
89607W        W64595   8.815  20.739  14.276  0.0787 -0.1939  0.1079
89608W        W64596  23.641  16.201   1.006 -0.1965  0.1503  0.0768
89609W        W64597  25.896  33.670  18.325 -0.1197 -0.0641  0.1569
89610W        W64598  31.794  35.351   3.264 -0.1431  0.0163 -0.2490
89611W        W64599  25.976   7.819  21.574  0.2544 -0.0582  0.2792
89612W        W64600   8.193  18.952   2.112  0.3718 -0.0311 -0.1373
89613W        W64601  29.652  23.180  12.109 -0.0467  0.1460 -0.2890
89614W        W64602  24.588  19.653  17.304  0.0508  0.3456  0.2141
89615W        W64603  16.121  21.429   2.394 -0.1099  0.1567  0.2992
89616W        W64604  23.883   5.967   4.781 -0.0062 -0.2074 -0.0427
89617W        W64605  15.986  29.116   6.250  0.3599 -0.1710 -0.0158
89618W        W64606  16.363  23.190   8.822  0.3863  0.0018  0.2596
89619W        W64607  23.577   3.501  20.972  0.1732  0.2202 -0.1891
89620W        W64608  31.881   7.225  13.062 -0.0930  0.2331  0.0392
89621W        W64609  11.143  20.220  21.933  0.0581 -0.0652  0.1274
89622W        W64610  27.343   0.851   2.524 -0.3131  0.0857  0.1315
89623W        W64611  11.843  31.512  13.227  0.1469  0.0974 -0.2362
89624W        W64612  11.945   9.788  20.271 -0.0015  0.2051  0.0380
89625W        W64613  20.407  18.556  17.977  0.0366 -0.1123 -0.0503
89626W        W64614  26.620   8.844  15.513 -0.0694  0.0974  0.0849
89627W        W64615  25.623  10.060  15.993  0.0322  0.2806  0.2125
89628W        W64616  20.645  32.178  14.824 -0.0811 -0.2666  0.1269
89629W        W64617  17.107   4.023   6.155  0.0147  0.0494  0.3223
89630W        W64618  12.505   7.472  10.075  0.1147 -0.3649  0.1252
89631W        W64619  27.507  19.421  18.502 -0.1475  0.0694  0.0736
89632W        W64620   6.828  11.812  19.468 -0.2268 -0.0717 -0.0092
89633W        W64621  10.871   4.681   9.937 -0.1339  0.0381 -0.0851
89634W        W64622  35.307  30.649   3.450  0.2644  0.4182  0.0533
89635W        W64623  10.386  24.062   8.588  0.3301 -0.1064  0.2244
89636W        W64624  24.966   3.863  14.011  0.2785  0.1527 -0.0654
89637W        W64625  11.130  31.066  12.208 -0.1304 -0.0010 -0.0422
89638W        W64626  15.014   3.904  10.913  0.3745 -0.4684 -0.1958
89639W        W64627  11.213  15.600  21.071  0.1511 -0.0555 -0.0062
89640W        W64628  16.560  15.732  19.155  0.0240  0.0127 -0.0584
89641W        W64629   0.648  17.995  12.257  0.0933 -0.1068 -0.0869
89642W        W64630  17.697  20.427   7.907 -0.2528 -0.2025 -0.0890
89643W        W64631  16.538  19.635  14.076 -0.1942  0.1325 -0.1504
89644W        W64632  10.038   6.964  12.622  0.2081 -0.0936 -0.1629
89645W        W64633  19.834  34.608  23.259  0.1503 -0.1836  0.1324
89646W        W64634   7.830   2.858   0.003  0.1652  0.1103 -0.0582
89647W        W64635   5.789  28.046   4.451 -0.0064  0.3577  0.0495
89648W        W64636  23.650  32.093  20.663  0.0344 -0.1394  0.0591
89649W        W64637   3.930  32.218  22.828  0.0172 -0.1793 -0.2885
89650W        W64638  27.604   2.405  20.210 -0.0276 -0.1382 -0.1795
89651W        W64639  30.623   1.730  17.671  0.1330 -0.4421 -0.0564
89652W        W64640  13.704  18.715  24.356  0.2700  0.2235  0.1499
89653W        W64641  17.528  30.828  22.653 -0.1565 -0.3113  0.0425
89654W        W64642  19.636  21.478  23.343  0.2441 -0.1528 -0.1261
89655W        W64643  33.882  28.859  19.410  0.1442  0.2493  0.0104
89656W        W64644  20.296  10.349  21.013  0.0466  0.0237 -0.0716
89657W        W64645   5.945  31.540  22.620  0.0150  0.0679  0.0805
89658W        W64646  23.424  32.293   6.032 -0.0147  0.0277 -0.0270
89659W        W64647  29.101  18.832   7.280 -0.2077  0.0739 -0.3795
89660W        W64648  12.023  23.842  24.688  0.2331 -0.2726 -0.3824
89661W        W64649  29.393  18.651  13.544  0.2934 -0.1494  0.0770
89662W        W64650   5.092  16.400  20.381  0.0913  0.0593 -0.1515
89663W        W64651   9.180  34.776   4.140  0.0236  0.0933  0.1192
89664W        W64652  24.269  26.886  18.372  0.2058 -0.2266  0.0234
89665W        W64653  35.233  35.165   3.471 -0.0629 -0.2001 -0.2362
89666W        W64654   8.607  34.861  11.563  0.0132  0.1384  0.6096
89667W        W64655   1.183   0.339   6.256 -0.0598 -0.1291 -0.3248
89668W        W64656   9.988   0.887   6.710 -0.3459  0.0847  0.2330
89669W        W64657  14.063  31.987   7.837  0.0989  0.5627 -0.0410
89670W        W64658  10.660  27.165   6.099 -0.0948 -0.2615 -0.0597
89671W        W64659   9.891  14.265  11.797 -0.0529  0.1143  0.2539
89672W        W64660   9.922  34.856  22.585 -0.0648  0.1089 -0.1042
89673W        W64661  25.628  30.985  12.728 -0.2459 -0.0672 -0.2181
89674W        W64662  22.362  18.048  14.321  0.0733 -0.0868  0.1863
89675W        W64663   5.216   5.044   0.807 -0.1701 -0.0721  0.1848
89676W        W64664  29.315  20.202   6.833 -0.0515 -0.2187  0.1701
89677W        W64665  12.964   7.437  21.344  0.0044  0.1352  0.0124
89678W        W64666  29.777  10.636  21.399  0.1525  0.3633 -0.1410
89679W        W64667   3.848   0.707   4.109  0.1510  0.1554 -0.2658
89680W        W64668  14.215  29.294  10.435 -0.1166  0.4036  0.0218
89681W        W64669  26.171  27.872  23.237  0.3546 -0.1773 -0.3973
89682W        W64670  23.477  15.489  21.819  0.1161  0.3365  0.0930
89683W        W64671   4.587  16.603  25.699 -0.0138 -0.0135  0.1181
89684W        W64672   8.631   9.766   7.063  0.1628  0.0739  0.1378
89685W        W64673  29.574  17.082  19.750  0.0871 -0.1674 -0.2357
89686W        W64674  29.297   8.506  12.199  0.0264  0.3698 -0.0734
89687W        W64675   4.327   5.292   5.845 -0.0295  0.0493 -0.2483
89688W        W64676   7.338  14.134   3.898  0.2030 -0.0172 -0.2446
89689W        W64677  27.776  21.214  17.053 -0.1586 -0.3358 -0.2415
89690W        W64678  27.223  21.723  19.497  0.0547  0.0954  0.0989
89691W        W64679  25.152  12.629  13.192 -0.3609  0.0629 -0.1879
89692W        W64680  33.576  11.845   7.547  0.1890  0.3127  0.1112
89693W        W64681   7.112  16.392   0.953 -0.2509 -0.2200 -0.2472
89694W        W64682  15.163  35.142   7.527 -0.1491 -0.0250 -0.1585
89695W        W64683  29.042  19.702  11.653  0.0697  0.0019  0.2400
89696W        W64684   5.289  30.704  25.930 -0.3442  0.0093 -0.1217
89697W        W64685   1.757   1.293  21.188  0.1315  0.1033  0.1031
89698W        W64686  18.596  34.355  18.427  0.0452 -0.1766  0.0314
89699W        W64687  25.288  24.779  14.547  0.0243 -0.2328  0.2476
89700W        W64688  17.096  34.308   2.527 -0.0927 -0.1389 -0.0899
89701W        W64689  31.270  16.855   9.458  0.0662 -0.0680 -0.3230
89702W        W64690  33.393  30.179  16.841 -0.1860  0.2108  0.0758
89703W        W64691  12.029  24.208  12.747 -0.2937 -0.0068  0.2961
89704W        W64692  25.626  31.592  14.900  0.1576  0.0384 -0.0473
89705W        W64693  12.651  29.742   9.188 -0.0375 -0.0868  0.4075
89706W        W64694   3.740  18.598   2.400 -0.3492 -0.1406 -0.0228
89707W        W64695   4.508  14.971   3.116  0.0141 -0.0378 -0.3799
89708W        W64696  27.534  34.807   1.167  0.1175  0.2318  0.2641
89709W        W64697   6.815  26.807   3.490  0.0590 -0.2634  0.5317
89710W        W64698  32.525  32.120  19.331 -0.3737 -0.2176  0.2457
89711W        W64699  11.756  15.887   2.647 -0.2554 -0.0947  0.0460
89712W        W64700  12.681  14.528  21.374  0.4267  0.1027 -0.0492
89713W        W64701  26.405  21.952  21.264 -0.1181  0.2936 -0.0718
89714W        W64702  31.035   8.555  23.978  0.5112  0.4219 -0.1351
89715W        W64703  34.924   0.508  24.521  0.2180 -0.0227 -0.1533
89716W        W64704  28.821  28.736  19.861 -0.1282 -0.0911  0.0688
89717W        W64705   9.926   8.198  21.067  0.0109 -0.2395  0.1462
89718W        W64706  12.809  23.074  10.631 -0.2801  0.1201  0.2125
89719W        W64707  30.013   5.444  25.335  0.1626  0.1708  0.2127
89720W        W64708  26.466  22.128  15.146 -0.0995  0.0899 -0.0138
89721W        W64709   0.127  30.261   7.267 -0.1729 -0.2967 -0.0370
89722W        W64710   2.470  17.716  18.587 -0.1329  0.3639 -0.1100
89723W        W64711  26.308  32.995  18.226  0.1017 -0.1300  0.1365
89724W        W64712   1.347  21.395  17.144  0.0467  0.1885  0.2422
89725W        W64713   3.971   5.800   4.797  0.1646 -0.1000 -0.2334
89726W        W64714   0.112  11.645  19.516  0.1926  0.1493  0.0944
89727W        W64715   6.112  11.455  25.930  0.0931 -0.0953  0.2276
89728W        W64716  29.477  18.490  16.044 -0.1876  0.1204  0.0329
89729W        W64717  10.988   3.205  18.878  0.0139  0.1522  0.2247
89730W        W64718  13.053  32.605  16.443 -0.3322 -0.2036  0.4922
89731W        W64719  33.029  30.326   7.098 -0.1068 -0.4159  0.0344
89732W        W64720  17.396  20.423  19.489  0.1762  0.1892  0.0455
89733W        W64721  31.671  19.088  21.412 -0.2264  0.1712 -0.0570
89734W        W64722  30.726  12.182  25.256 -0.1971 -0.0715 -0.0765
89735W        W64723  21.006  24.461  22.178  0.2437 -0.4466  0.3059
89736W        W64724  13.088   8.195   9.756  0.1597  0.1299  0.0765
89737W        W64725  14.067   2.958   5.782  0.1502  0.1758 -0.1896
89738W        W64726  18.376  32.639  23.092 -0.0468  0.4547 -0.1178
89739W        W64727   3.228  15.290  25.422 -0.0448  0.0935  0.0531
89740W        W64728   3.360  16.541  21.720 -0.1374 -0.0061 -0.0566
89741W        W64729   7.435  17.786  13.672  0.0188  0.0576 -0.0287
89742W        W64730   3.538   4.350   5.399  0.0783  0.0486 -0.0763
89743W        W64731  20.648  25.601  25.277  0.1353  0.0502  0.2579
89744W        W64732  10.551  15.548   6.205  0.0786  0.2695 -0.0146
89745W        W64733   7.829   3.889   5.611 -0.4387 -0.0690  0.0124
89746W        W64734  15.058  16.991  13.106  0.3829 -0.3443 -0.0635
89747W        W64735  27.203  23.614  21.082  0.1674  0.0648 -0.0204
89748W        W64736   5.727  33.514  25.581  0.0317 -0.1222  0.0463
89749W        W64737  19.437  12.220   3.304 -0.2699 -0.4099  0.1226
89750W        W64738  24.428  13.380   9.746 -0.3778  0.0375 -0.0672
89751W        W64739  23.498  19.037  14.817  0.2079 -0.0899 -0.0008
89752W        W64740  30.684  11.873  21.992 -0.1971  0.0091  0.2021
89753W        W64741  20.173  33.375   7.155 -0.0918  0.1615 -0.1353
89754W        W64742  31.741  18.455   9.411  0.3242  0.1083 -0.0489
89755W        W64743   6.139   7.397  18.985  0.0811 -0.1993 -0.2236
89756W        W64744  10.414  17.144  11.986 -0.1439 -0.1827 -0.0510
89757W        W64745  19.295  27.914   0.405 -0.1247  0.0571  0.3023
89758W        W64746  30.101   4.654   3.549  0.1589  0.1674 -0.0767
89759W        W64747  26.528   5.666  24.025 -0.3887 -0.0384  0.0355
89760W        W64748  19.693   0.661   1.004  0.0502 -0.1776 -0.1550
89761W        W64749  14.609  33.668   7.491  0.1755  0.4329  0.0799
89762W        W64750  13.166  33.738  22.169 -0.0144 -0.0079 -0.0618
89763W        W64751  26.495  16.883  17.338  0.0429 -0.0034 -0.0698
89764W        W64752  26.759  11.521  16.647  0.0064 -0.4132 -0.0095
89765W        W64753  12.438  16.155   1.445 -0.0235  0.2806 -0.0306
89766W        W64754   2.945   3.351  18.903  0.1458  0.1503 -0.0792
89767W        W64755   7.785  15.127   2.996 -0.5279  0.0155  0.1539
89768W        W64756  23.862  24.277  14.557  0.1721  0.0417  0.0787
89769W        W64757  23.709  10.236  24.144 -0.1958  0.2226 -0.0560
89770W        W64758  12.638  34.456   4.295  0.0560  0.0230  0.0905
89771W        W64759  21.204  15.436  23.784 -0.2467  0.0622  0.0867
89772W        W64760   8.524   1.330   6.644 -0.1751  0.0091  0.0573
89773W        W64761  11.553   7.807  19.734  0.0283  0.0397 -0.0263
89774W        W64762  23.439  14.775  13.714 -0.0038 -0.0210 -0.0132
89775W        W64763  25.537  25.942  14.482  0.3160  0.0377  0.0755
89776W        W64764   2.283  24.673   1.957 -0.3019 -0.2884 -0.0887
89777W        W64765  22.925  13.193  25.601 -0.3996 -0.0675 -0.0887
89778W        W64766  20.360  19.275   6.330 -0.0879 -0.3105 -0.3800
89779W        W64767  12.098  24.230  24.262  0.2926  0.1814  0.1022
89780W        W64768  28.762  17.002  23.084  0.0216 -0.1880 -0.0795
89781W        W64769  22.294  33.088  21.914 -0.1170 -0.0714 -0.0321
89782W        W64770  16.846  31.116   4.390  0.0036 -0.1871 -0.1013
89783W        W64771  18.576   8.239   7.395  0.1376 -0.0046 -0.0412
89784W        W64772  23.125  31.295  20.905 -0.0736  0.0485  0.1124
89785W        W64773  22.276   0.352   1.943  0.0996 -0.0202  0.0704
89786W        W64774  17.544   0.456   8.941 -0.0529 -0.0034 -0.3130
89787W        W64775  30.980  33.167  19.219  0.3175 -0.2707  0.1717
89788W        W64776  22.342   4.941   4.040  0.2789  0.0499  0.0453
89789W        W64777  24.994  31.987   3.411 -0.1851  0.5831  0.0584
89790W        W64778   2.361  10.088   6.129 -0.0664 -0.2145 -0.2449
89791W        W64779  29.491  22.534  21.809 -0.4230  0.1088  0.0342
89792W        W64780   2.895   4.406  18.240 -0.2738  0.3579  0.3322
89793W        W64781  26.870  16.602   6.426  0.3402  0.0470 -0.1150
89794W        W64782  22.906  30.517  18.032 -0.3129  0.0043 -0.0232
89795W        W64783   0.577  30.152   6.289  0.2398 -0.2117 -0.0757
89796W        W64784  31.579  25.115  16.516 -0.0420  0.3010  0.3920
89797W        W64785  20.078  34.426  15.170 -0.0598  0.1991  0.2513
89798W        W64786  14.972  19.312   1.972  0.0026 -0.0030  0.0519
89799W        W64787  26.252  31.860  22.302  0.0574 -0.1542 -0.0767
89800W        W64788   6.841   7.457  10.055  0.0030  0.2646  0.1460
89801W        W64789  34.836  17.162  19.146 -0.2168  0.1331  0.2624
89802W        W64790  20.964  27.963   1.183 -0.3616 -0.1276 -0.0898
89803W        W64791  22.954  19.901  20.528  0.3816  0.3517  0.0409
89804W        W64792  34.692  34.598  14.847  0.1292 -0.2818 -0.1933
89805W        W64793  28.145  27.309   8.768  0.2490 -0.0366 -0.0401
89806W        W64794   8.433   1.078   5.189  0.0620  0.1229 -0.1306
89807W        W64795  16.492  11.705  10.295 -0.0100  0.2115 -0.0468
89808W        W64796  18.624  15.940  23.788  0.2025 -0.0263  0.3010
89809W        W64797  23.798  29.681   0.584 -0.1668  0.0032  0.0044
89810W        W64798  33.212  27.180  15.316  0.0535 -0.2579 -0.0407
89811W        W64799   2.911  18.485  23.561  0.0764  0.1674  0.3376
89812W        W64800  18.650  18.391  12.847  0.1803  0.1506 -0.2605
89813W        W64801  30.800  24.989  25.561  0.0059  0.0615 -0.1454
89814W        W64802   8.901  17.864   7.013  0.2700  0.1943  0.1771
89815W        W64803  29.707   1.534  21.815 -0.0578  0.0193 -0.0220
89816W        W64804  14.169   9.530  20.536  0.1584 -0.0967 -0.0824
89817W        W64805   4.395  17.723   4.927 -0.0098  0.0640  0.0920
89818W        W64806   3.271  26.957   5.831  0.2646  0.3086  0.2692
89819W        W64807  31.595  28.284  13.317  0.0068  0.1198  0.1853
89820W        W64808   4.359  23.246  24.630  0.1020 -0.1176  0.3199
89821W        W64809  23.326   7.927  23.885 -0.0079  0.0041 -0.0349
89822W        W64810  14.531  28.071   9.794 -0.1377 -0.1587 -0.1511
89823W        W64811  31.936  32.351  22.769 -0.1292 -0.0318  0.1179
89824W        W64812  25.451   3.720  20.812 -0.0152  0.3209 -0.1108
89825W        W64813  25.568   2.315  23.576 -0.2345 -0.0630  0.1540
89826W        W64814   5.659  22.569  21.395  0.3205  0.1421  0.0635
89827W        W64815  17.311  24.926   1.679 -0.1338 -0.1737 -0.1768
89828W        W64816   9.230   9.004  13.368  0.4229 -0.1905  0.0989
89829W        W64817   7.627  26.438   8.934  0.2435 -0.1560 -0.1173
89830W        W64818  22.154  35.267   4.261 -0.0085  0.1508  0.1747
89831W        W64819  16.577   4.617  10.466 -0.2238 -0.0779 -0.1531
89832W        W64820   9.590  24.080  24.549  0.2225 -0.3267  0.2984
89833W        W64821   3.296  30.264  20.914  0.1169  0.1282 -0.0928
89834W        W64822   7.442  25.977  13.398  0.0142  0.3313 -0.0599
89835W        W64823  24.582  34.503  18.386  0.0808 -0.2238  0.2552
89836W        W64824  22.425  33.976  20.449 -0.0854  0.0886 -0.1007
89837W        W64825   6.522  32.232   8.297  0.0852  0.0802  0.1503
89838W        W64826  15.109  23.064  12.772  0.1559 -0.2350 -0.1260
89839W        W64827  27.905   1.640  20.464  0.1634 -0.0647  0.2734
89840W        W64828  14.003  35.155  22.629  0.0728 -0.0865 -0.0629
89841W        W64829  23.657  22.913  13.433  0.3160 -0.3296 -0.0955
89842W        W64830   4.033  16.021   1.921 -0.4517  0.1113  0.2453
89843W        W64831   3.940  10.394  20.892  0.0294  0.0905 -0.0203
89844W        W64832  28.196  19.461   5.411  0.3673  0.1858  0.1779
89845W        W64833  24.846  10.443  15.074 -0.0365  0.0392 -0.0497
89846W        W64834   9.238  26.733   3.356 -0.0030 -0.1162 -0.3535
89847W        W64835  33.216  26.618  14.464 -0.0066  0.1494 -0.2335
89848W        W64836  23.077  12.484  24.225 -0.1891 -0.2096  0.4914
89849W        W64837   5.664   8.576  10.611 -0.3190 -0.0778 -0.1121
89850W        W64838  30.384  30.133  23.964  0.5067  0.1557 -0.0883
89851W        W64839  28.968   7.505  23.505 -0.2539 -0.0718 -0.1207
89852W        W64840  14.845  33.869   9.663  0.0942  0.0029 -0.0221
89853W        W64841  27.475  18.360  10.985  0.0354 -0.0931  0.0647
89854W        W64842  21.454  32.488   7.707  0.0190 -0.0011  0.3218
89855W        W64843  23.692   4.407  16.960 -0.3536  0.0748  0.1082
89856W        W64844  14.418  20.629  24.211 -0.3026  0.0632 -0.2271
89857W        W64845  28.510  32.582  12.528  0.1977 -0.1808  0.3492
89858W        W64846  34.198   5.910   2.400 -0.2224  0.0693 -0.1804
89859W        W64847   0.387  10.026   0.505  0.0402 -0.2159  0.0393
89860W        W64848   9.842  28.422  12.512 -0.4716  0.3413 -0.0058
89861W        W64849  25.951  28.462  12.597  0.0322  0.3266  0.1317
89862W        W64850   6.964   2.793   5.496  0.2237  0.3004  0.0047
89863W        W64851  13.743   3.591  22.572 -0.1382 -0.1737  0.0948
89864W        W64852   5.292  31.607   9.475 -0.0790  0.0710  0.1686
89865W        W64853  27.756  22.494  11.408  0.1785 -0.2131 -0.1277
89866W        W64854  32.325   4.285   2.956  0.1777 -0.1977  0.2726
89867W        W64855  21.983  12.592  21.584 -0.0400  0.1125 -0.2313
89868W        W64856  30.228  31.025  15.843  0.0872  0.0984  0.1015
89869W        W64857  20.060  24.768  21.874  0.1440  0.0170 -0.1219
89870W        W64858  22.089  27.751  14.007  0.2662  0.3411  0.2991
89871W        W64859   0.050   3.238  20.327 -0.1362 -0.3938 -0.2245
89872W        W64860  21.528   3.882  18.889 -0.1626  0.0065 -0.2688
89873W        W64861  33.833  22.779  13.894 -0.1631 -0.3013  0.3921
89874W        W64862  30.609  17.762  14.669  0.1997  0.2586  0.0451
89875W        W64863  12.301   9.932   3.289 -0.2956 -0.3467  0.2081
89876W        W64864   5.664   1.254   2.128  0.1807  0.0538  0.3417
89877W        W64865   6.479  34.352  11.925  0.0874 -0.1720  0.1401
89878W        W64866  20.708  11.995   4.543 -0.0049  0.0570  0.1270
89879W        W64867   1.365   6.893  18.259  0.0849  0.0117 -0.3291
89880W        W64868  16.169  28.180  23.995 -0.0469  0.2772 -0.2673
89881W        W64869  26.075  15.679  20.289 -0.1733 -0.0122  0.0663
89882W        W64870  25.555  29.278  25.634 -0.0102  0.1088 -0.4373
89883W        W64871  28.852  13.217  16.986  0.0081 -0.0639 -0.1569
89884W        W64872  13.905  11.021  20.211  0.1839  0.0063 -0.2030
89885W        W64873   7.643   6.056   0.817  0.3017 -0.2519 -0.0241
89886W        W64874  33.475   2.951  13.068  0.0543 -0.2790 -0.2288
89887W        W64875  10.891  15.424   7.948  0.2115 -0.2062  0.0349
89888W        W64876   1.955   3.540   4.111  0.1602 -0.2120 -0.0293
89889W        W64877  34.380   6.087   4.701  0.0428 -0.0387 -0.0527
89890W        W64878  24.695   1.454   4.180  0.1305 -0.0645 -0.3990
89891W        W64879   3.887  29.644   1.192  0.0198 -0.0047 -0.0616
89892W        W64880  19.338   5.696   0.238 -0.1906 -0.1503 -0.1779
89893W        W64881   8.699  32.627   2.295  0.1044 -0.1023  0.2673
89894W        W64882  24.333  23.408  12.840  0.0633 -0.0216 -0.2109
89895W        W64883  11.796  32.883   5.084 -0.1051  0.0221 -0.2529
89896W        W64884   1.211   7.092   1.663  0.0967  0.2038 -0.1090
89897W        W64885   9.813  11.177   6.356  0.1883 -0.1099 -0.1255
89898W        W64886  21.380  34.724  25.455 -0.5877  0.2462  0.1364
89899W        W64887   3.031  33.155  18.741  0.4217  0.0825 -0.1652
89900W        W64888   0.983  27.954  19.935  0.0256 -0.1077  0.1926
89901W        W64889   5.265   5.982  22.685 -0.0929 -0.1500  0.1234
89902W        W64890  19.109  14.723  23.378 -0.2876  0.0338  0.0982
89903W        W64891  27.891   4.377  18.540  0.0618 -0.2143  0.0540
89904W        W64892  14.018  12.295   7.934 -0.0043 -0.1439 -0.0042
89905W        W64893  13.265  18.411   2.657 -0.0238 -0.0845 -0.0188
89906W        W64894  13.290  35.052  20.838  0.1733  0.1114 -0.2427
89907W        W64895  34.158  19.600  14.080  0.0257  0.0428 -0.1023
89908W        W64896  19.665  23.713   9.396  0.1289  0.2414  0.2058
89909W        W64897   6.025  24.023  22.396 -0.1363  0.0882 -0.1730
89910W        W64898  19.677  20.280  22.212 -0.3130 -0.2089 -0.0864
89911W        W64899  29.696   1.471   2.215  0.4639  0.0325 -0.3455
89912W        W64900  18.628   5.653   8.224 -0.5544 -0.1361  0.2439
89913W        W64901  16.601  32.584   2.809 -0.0296  0.3571 -0.1956
89914W        W64902   7.310  17.470  17.797  0.0986  0.0942 -0.0847
89915W        W64903  11.342   6.520  12.315 -0.0094 -0.0359 -0.1315
89916W        W64904  32.089  14.798  17.334 -0.2922 -0.0704  0.0049
89917W        W64905  30.763  22.996  20.074 -0.2891  0.0886  0.0846
89918W        W64906   5.319  27.720  24.843  0.1044 -0.0361 -0.1159
89919W        W64907  22.911  16.305  19.008 -0.3856 -0.1809 -0.4097
89920W        W64908  27.005   9.848  13.482 -0.1111  0.1505  0.1086
89921W        W64909  17.349  24.298  22.289  0.0684  0.1754  0.0055
89922W        W64910  18.370  29.751  23.927  0.1561  0.1744 -0.1201
89923W        W64911  17.213  33.802   1.335 -0.3615  0.1039  0.1853
89924W        W64912   2.713  20.754  15.362  0.3086 -0.0859  0.0554
89925W        W64913  14.459  31.998   0.536  0.2275  0.1838  0.2911
89926W        W64914  10.062  32.458   1.088 -0.0944  0.0987  0.0221
89927W        W64915  16.644   9.152  17.779 -0.0989  0.1604  0.3076
89928W        W64916   8.266  17.877  21.361 -0.1714 -0.1905 -0.2744
89929W        W64917  31.070   4.559  25.044 -0.2192  0.2480 -0.2156
89930W        W64918  17.192  21.372  22.054 -0.2648  0.1267 -0.0975
89931W        W64919  27.806  26.631  17.549  0.3498 -0.2020  0.0116
89932W        W64920  32.292  10.205  17.927 -0.0407 -0.0977 -0.2522
89933W        W64921  27.677   6.932  13.801 -0.2328  0.2676  0.4368
89934W        W64922  14.735  32.716   5.843 -0.1558 -0.0388 -0.2838
89935W        W64923  20.046   2.145   5.887 -0.1087 -0.1372 -0.1007
89936W        W64924   1.884  23.613  22.897 -0.2500 -0.2135 -0.1482
89937W        W64925   5.837   1.068   4.887  0.1356  0.3958 -0.3139
89938W        W64926   2.684  27.978  19.617 -0.0193  0.1486 -0.0651
89939W        W64927   0.257   0.261   4.701  0.0309  0.1034  0.0527
89940W        W64928   2.370  29.280   7.975  0.0146 -0.0453 -0.0343
89941W        W64929   6.011  33.129  13.696 -0.0298 -0.0345 -0.2124
89942W        W64930  17.976  17.133  12.755  0.1710 -0.3704 -0.3464
89943W        W64931  10.956  30.678  23.257  0.2844 -0.1055  0.1555
89944W        W64932  23.051  11.271   0.039  0.0754  0.3726 -0.2798
89945W        W64933   8.474   7.924  25.099 -0.3033 -0.0288  0.2532
89946W        W64934  11.721   5.206   8.439 -0.2540 -0.3911 -0.1009
89947W        W64935   0.759  30.972   1.349  0.1608  0.0569 -0.1429
89948W        W64936  31.438  21.238  10.138  0.0638 -0.0756  0.0182
89949W        W64937   5.109  15.917   2.341 -0.0202 -0.1558  0.1253
89950W        W64938  17.491   1.430   1.262  0.2781  0.0880  0.0212
89951W        W64939  17.888  25.766   4.565  0.1380 -0.3217 -0.1351
89952W        W64940   3.370  11.400  19.714  0.0541 -0.0957  0.1482
89953W        W64941  21.990  24.431   2.488  0.1115 -0.1843 -0.2323
89954W        W64942   7.137  12.463   7.379 -0.0823  0.1367 -0.0531
89955W        W64943  13.104   3.806   4.387 -0.4411  0.0807  0.0769
89956W        W64944  17.584  27.617   9.424  0.0918 -0.0846  0.0410
89957W        W64945   7.460  13.216  19.915  0.3158  0.2374 -0.1643
89958W        W64946  26.675   0.961  21.401  0.1476  0.2403  0.3178
89959W        W64947  24.053  23.865  12.693  0.1592 -0.0662 -0.1768
89960W        W64948   4.322   1.587  24.608  0.0175  0.1735 -0.1429
89961W        W64949  19.025  33.505   3.465 -0.1049  0.1447 -0.1599
89962W        W64950  13.433  27.767   6.029 -0.0818  0.0448  0.3394
89963W        W64951   3.522  23.371  24.333  0.0922 -0.0322 -0.2070
89964W        W64952   7.311   6.649  22.002 -0.4445  0.1932 -0.0159
89965W        W64953  27.112  24.111  20.783 -0.2866  0.0912 -0.2207
89966W        W64954  21.809  12.841   2.985 -0.0358  0.0344  0.1080
89967W        W64955  34.910   8.897  22.559  0.0432  0.0816  0.1212
89968W        W64956  34.378  11.725  15.997  0.2211  0.1262 -0.0527
89969W        W64957  30.933  33.506   5.022  0.1653 -0.1080 -0.1100
89970W        W64958  33.835  15.109  15.491 -0.1999  0.1507 -0.0778
89971W        W64959   0.409  17.126  20.822  0.1432 -0.0070 -0.3843
89972W        W64960  30.482   1.930  19.911 -0.1226 -0.2787 -0.0051
89973W        W64961  32.001  26.365  21.801  0.3810 -0.0417  0.1311
89974W        W64962   8.455  31.385   3.993  0.1298  0.1414  0.1353
89975W        W64963  25.986   1.069  23.351  0.0263  0.0188 -0.0968
89976W        W64964  22.970  27.692   4.702  0.0638  0.0369  0.0589
89977W        W64965  16.858   1.772  22.324  0.2351 -0.1018 -0.1981
89978W        W64966  32.798   5.486  21.290  0.1015  0.1510  0.4389
89979W        W64967  17.674   4.487  18.702 -0.1390 -0.0206 -0.1937
89980W        W64968  18.346  23.836   5.696 -0.1452  0.4085 -0.0803
89981W        W64969   7.191   9.188   2.474  0.0864 -0.1594 -0.1478
89982W        W64970  16.397  23.480   3.311  0.0955 -0.0082 -0.2917
89983W        W64971  14.067  13.997  13.769  0.2251 -0.1477  0.0265
89984W        W64972  33.654  10.463   9.813 -0.0882 -0.0093 -0.3047
89985W        W64973  20.700  28.716  18.719  0.4062 -0.1153  0.3244
89986W        W64974   0.273   2.545  20.285 -0.1632  0.1617 -0.1477
89987W        W64975  23.758   0.374   1.850  0.2813  0.0639  0.1464
89988W        W64976   9.545   3.757   8.004  0.0111  0.1634 -0.1592
89989W        W64977   2.517  18.594  21.661  0.0728  0.0235 -0.2459
89990W        W64978  20.430  30.104   2.248  0.1961 -0.1989 -0.1497
89991W        W64979  19.151  23.943   6.212 -0.0906 -0.2054 -0.2292
89992W        W64980  23.891  33.944  13.901  0.1110 -0.1741  0.1354
89993W        W64981  35.155  18.327  12.194  0.1525  0.0284  0.1841
89994W        W64982   2.911  28.188   0.213 -0.1566  0.0028  0.1714
89995W        W64983  17.878  30.433  24.593 -0.1927 -0.1923 -0.4439
89996W        W64984  11.857  12.505  25.729  0.0765 -0.0718 -0.3165
89997W        W64985   8.551   2.291  21.453  0.2153 -0.2665 -0.0142
89998W        W64986  22.569   9.046   2.587 -0.2018  0.3803 -0.0669
89999W        W64987  21.677  35.021   5.410  0.2290  0.0661  0.0339
90000W        W64988  19.119   6.584  24.361 -0.1783 -0.0203 -0.1865
90001W        W64989   4.937  30.390   6.295  0.0409  0.2076 -0.1102
90002W        W64990   4.722   1.453  25.493 -0.1772 -0.0765 -0.2091
90003W        W64991  21.990  28.032   3.901  0.1543  0.2030  0.3194
90004W        W64992  11.973  32.506   1.334 -0.1747 -0.0181 -0.0656
90005W        W64993  11.408  22.557   8.665  0.0233 -0.0127 -0.1565
90006W        W64994   1.826   3.452   1.176 -0.0958 -0.0653  0.3541
90007W        W64995   3.573  26.681  21.143  0.3072  0.0154  0.0926
90008W        W64996  21.606  23.876   4.529  0.2131  0.3535  0.4684
90009W        W64997   6.708  12.081   0.649 -0.2527 -0.1909  0.2027
90010W        W64998   2.498  11.469  18.771  0.1503  0.1980 -0.3096
90011W        W64999  25.019   2.182  13.496 -0.0041  0.0480  0.0391
90012W        W65000  27.055  21.131   4.598  0.0526 -0.1008  0.1138
90013W        W65001  19.151   8.814  26.208  0.0223 -0.0230 -0.1225
90014W        W65002  27.613  33.817   1.174  0.1811 -0.1946  0.2847
90015W        W65003   2.306   7.067  15.610  0.2161  0.1472  0.2138
90016W        W65004   9.518  15.224   2.906  0.1486 -0.0918 -0.0542
90017W        W65005  14.359  18.931   6.282  0.0904  0.0054  0.1411
90018W        W65006  16.365  25.038  12.971  0.1456 -0.1577 -0.0376
90019W        W65007   1.552  29.270   9.129 -0.2098  0.1937 -0.0685
90020W        W65008  29.625   8.769  23.283  0.1824  0.3754  0.0988
90021W        W65009  21.053  22.491  20.706  0.3974  0.0657  0.3591
90022W        W65010   1.289  32.955   5.931  0.1643 -0.0008  0.0562
90023W        W65011  33.599  22.135  25.733 -0.2769 -0.2976  0.2015
90024W        W65012  17.322  28.177  23.586 -0.1102 -0.1830 -0.0545
90025W        W65013  18.413  29.353   6.441  0.1451 -0.1738 -0.1187
90026W        W65014   2.964   1.669   7.118 -0.3717  0.1539  0.2749
90027W        W65015  10.054  21.610   6.111  0.0574  0.2068  0.0875
90028W        W65016  34.727  15.563  22.743 -0.1488 -0.0411  0.1949
90029W        W65017  29.180  18.559  12.267 -0.0214 -0.1758 -0.1823
90030W        W65018  32.815   8.340   9.586  0.3023  0.1111 -0.0841
90031W        W65019   4.359  26.326   0.099  0.0629 -0.1638 -0.0529
90032W        W65020  17.067  17.159  26.091  0.1938  0.1180  0.2935
90033W        W65021   9.063  31.135   8.127  0.0688 -0.0292 -0.1153
90034W        W65022  27.966  16.040   8.442 -0.0101  0.1472  0.3271
90035W        W65023  12.254   5.944  10.882 -0.1828 -0.0576  0.0785
90036W        W65024  23.481  15.220   0.365 -0.1167  0.0070 -0.1453
90037W        W65025  34.516  11.562  24.271  0.0390  0.0016 -0.1450
90038W        W65026  23.100  11.949  20.157 -0.0692 -0.1565  0.1787
90039W        W65027   7.601  20.017   9.397 -0.3829  0.1272  0.2109
90040W        W65028  10.360   9.652  13.855  0.2938  0.0857 -0.1664
90041W        W65029   1.996  11.194  19.086  0.0317  0.2229 -0.1294
90042W        W65030   0.434  11.769  25.878  0.0034 -0.0157 -0.1478
90043W        W65031  18.262  33.756   0.427 -0.2056 -0.3120  0.0572
90044W        W65032  10.768  15.171  17.990 -0.1041  0.2244 -0.1773
90045W        W65033  25.056   9.649   0.352  0.2085  0.2607 -0.0554
90046W        W65034  19.783   6.644  19.012 -0.2836 -0.0849 -0.1530
90047W        W65035  32.103  29.075   5.167 -0.1995  0.1933 -0.0323
90048W        W65036  16.202  21.232   1.957 -0.1974 -0.1382  0.1024
90049W        W65037   5.346  19.826   1.497 -0.3278  0.1282 -0.1682
90050W        W65038  16.980  27.714  24.265 -0.2081 -0.0175 -0.1246
90051W        W65039  22.628   5.351  19.586  0.2786  0.4631  0.1799
90052W        W65040  19.106   0.421   3.383 -0.0699 -0.0851  0.2143
90053W        W65041  33.752  28.399  15.907 -0.1221 -0.0816  0.1208
90054W        W65042  28.391  17.241  12.753 -0.0751  0.3407  0.1147
90055W        W65043  20.375  28.681   7.090  0.0436  0.2450 -0.1488
90056W        W65044  12.100  34.760  20.515 -0.0849 -0.3621  0.2652
90057W        W65045   4.351  28.509   2.528  0.2010 -0.1429  0.0148
90058W        W65046  19.779   6.599  10.250 -0.1139  0.1895 -0.0607
90059W        W65047   5.956   0.906  10.266 -0.1614 -0.0275 -0.0661
90060W        W65048  22.193  17.392  22.418  0.0185 -0.3479 -0.2238
90061W        W65049  21.056  24.509  22.979  0.1421  0.2501 -0.1955
90062W        W65050  17.589  15.557   5.341  0.1277 -0.2309  0.0291
90063W        W65051  20.346   8.119  24.562 -0.0277  0.1531 -0.3629
90064W        W65052   1.150  34.141   5.085  0.2923  0.3244  0.1439
90065W        W65053   2.924  21.533  21.772  0.0843 -0.1857 -0.1089
90066W        W65054  32.973  27.556  19.149  0.1245  0.1908  0.1863
90067W        W65055  32.668  31.851   5.996 -0.0423  0.1397 -0.2196
90068W        W65056   2.021   2.032   0.843 -0.0033  0.2438 -0.1675
90069W        W65057  12.149  24.307   5.821 -0.0942 -0.1093  0.0735
90070W        W65058  29.426  20.496   3.596 -0.1262 -0.0825 -0.0460
90071W        W65059   4.346  20.839  25.467  0.0197 -0.1466 -0.0122
90072W        W65060  34.776   6.638  23.024 -0.1601  0.0842 -0.0826
90073W        W65061   3.438  33.204   9.559  0.0373  0.0949 -0.0049
90074W        W65062   4.568  18.796  16.960 -0.1208 -0.0675  0.0660
90075W        W65063  27.855  32.013  25.761  0.1802 -0.0715  0.1622
90076W        W65064  20.644  16.582  20.685  0.1064 -0.4463 -0.1068
90077W        W65065  26.007  13.327  19.575  0.0306  0.1561 -0.2356
90078W        W65066  33.659  19.318  15.519  0.1501 -0.0965 -0.0676
90079W        W65067  21.365  18.220  17.229  0.0336 -0.1739  0.1022
90080W        W65068  14.625   1.386  21.323  0.0908  0.0052  0.2705
90081W        W65069   3.581  15.529  23.149  0.1500  0.1248  0.0777
90082W        W65070  13.719   4.792   9.880  0.2857  0.0162  0.1415
90083W        W65071  22.506  29.854  21.543  0.1543 -0.0401  0.1978
90084W        W65072  15.071  10.117   3.721  0.0818 -0.1487 -0.4048
90085W        W65073  15.288  31.986   4.735 -0.3009  0.0703 -0.0445
90086W        W65074   9.722  17.785   2.955  0.1515  0.2666  0.0789
90087W        W65075   1.657   9.573   3.281 -0.2124  0.2500 -0.1487
90088W        W65076  20.484   5.097  20.189  0.0468  0.1832 -0.2392
90089W        W65077  10.576  27.537   0.102  0.0972  0.0651 -0.0504
90090W        W65078  30.748  12.791  22.056  0.0620 -0.3027  0.1384
90091W        W65079  15.139  29.177  24.081  0.1761  0.0273 -0.3603
90092W        W65080  17.954  14.122   9.946 -0.1427 -0.0827 -0.2803
90093W        W65081  15.635  13.573   8.475  0.2560  0.0520 -0.0806
90094W        W65082   0.144  32.984   3.082  0.1537  0.1892  0.1489
90095W        W65083  33.915  34.136  16.236 -0.0682 -0.2587  0.1558
90096W        W65084  10.022  33.912   6.165 -0.1016  0.2706 -0.1648
90097W        W65085   5.399  18.198  22.187  0.0547  0.1919 -0.0478
90098W        W65086  10.240  16.006   1.785 -0.0037  0.0209 -0.0754
90099W        W65087   1.265  23.697  17.384  0.0129 -0.2788 -0.0647
90100W        W65088  17.048  31.901   7.375 -0.0496  0.1477  0.2140
90101W        W65089  22.694   4.636   2.107 -0.2200 -0.3763 -0.1171
90102W        W65090   0.686  32.331   8.453 -0.1143 -0.1215  0.1671
90103W        W65091  33.288  30.072   5.738  0.0509 -0.0685  0.2454
90104W        W65092  31.123  28.418  22.046  0.1569 -0.1443 -0.3950
90105W        W65093  16.110   8.838   1.759  0.0273 -0.0350 -0.3214
90106W        W65094  23.469  21.782  21.907 -0.3763 -0.0883 -0.2277
90107W        W65095   8.917  20.278  12.321 -0.1829 -0.0056 -0.0955
90108W        W65096  27.717   3.122  11.911 -0.0508 -0.0488 -0.1126
90109W        W65097  18.638  30.658  19.391 -0.2051 -0.0315 -0.1183
90110W        W65098  28.658   8.257   1.131  0.1764  0.1680 -0.0795
90111W        W65099   6.856  11.958   3.848  0.0083  0.0811  0.1436
90112W        W65100  23.300   3.022  20.134 -0.2063 -0.3300 -0.1781
90113W        W65101  24.873   0.792  23.622  0.3076 -0.0371 -0.4065
90114W        W65102  33.175   8.005  17.941 -0.0414 -0.3036  0.3501
90115W        W65103  31.997  25.357  21.257  0.1245  0.1906  0.0757
90116W        W65104   7.145   1.631   4.518  0.2921  0.2688  0.1008
90117W        W65105  20.182  10.946   7.610 -0.2334  0.2872  0.0757
90118W        W65106  11.396  14.039   5.628 -0.2171  0.3770  0.1918
90119W        W65107   0.291  14.519  15.153 -0.0008  0.1090 -0.0778
90120W        W65108  20.654  14.792   1.215 -0.4658 -0.0599  0.3265
90121W        W65109  26.069  23.566  11.428  0.0811  0.1438 -0.3177
90122W        W65110  19.820  22.023  18.882 -0.0778  0.0261  0.2989
90123W        W65111  15.903  14.070  12.089  0.1229 -0.1664 -0.2022
90124W        W65112  14.897   7.148  24.423 -0.3691  0.0191 -0.0420
90125W        W65113  17.153  15.117   4.093 -0.0647 -0.3133 -0.1411
90126W        W65114   1.237  31.560   6.448 -0.4181 -0.1388 -0.1141
90127W        W65115  15.136   5.398  20.978  0.0711 -0.1336 -0.1830
90128W        W65116   8.478  16.119  18.486 -0.0986 -0.1294  0.0580
90129W        W65117   8.884  33.510   9.558 -0.0433 -0.1005 -0.1404
90130W        W65118   3.105   5.117   7.648 -0.2725  0.0971  0.2381
90131W        W65119  29.905  15.894  18.974 -0.0316  0.0182  0.1221
90132W        W65120   8.602  23.495   3.536 -0.0518 -0.0233  0.4457
90133W        W65121   9.526  26.819  20.882  0.0930 -0.0678 -0.2530
90134W        W65122  23.234  13.879  19.493 -0.1596  0.0655 -0.2569
90135W        W65123  27.922  15.918  24.768 -0.0512 -0.1555 -0.1506
90136W        W65124  24.933  29.922  20.027 -0.1125  0.1185  0.1150
90137W        W65125   8.020   0.049  11.429  0.3037  0.0239 -0.0193
90138W        W65126  18.326  13.305   3.048  0.2259  0.0297 -0.0031
90139W        W65127  28.625  19.581  15.891  0.0602 -0.2443 -0.1720
90140W        W65128   0.506  15.656   0.194 -0.0293  0.2453  0.2055
90141W        W65129  24.151  25.932  15.600 -0.5797 -0.0289 -0.1181
90142W        W65130  16.199  17.458   1.081 -0.0033  0.0980 -0.0670
90143W        W65131  19.856  21.318   4.000 -0.2979  0.0547  0.1517
90144W        W65132  21.901   9.697   6.399 -0.1502  0.0017  0.0089
90145W        W65133   8.926  14.429   7.504  0.0666 -0.0063  0.2095
90146W        W65134  16.166  27.858  10.276  0.1090  0.0766  0.1520
90147W        W65135  31.617  16.206  26.230 -0.1281  0.1882  0.0142
90148W        W65136  18.933  15.517  24.455  0.1649 -0.1050  0.1617
90149W        W65137  32.267  11.603  14.347  0.3373 -0.0782 -0.0568
90150W        W65138  14.917  30.314   7.640 -0.1472  0.1709 -0.2356
90151W        W65139  19.065  24.353   4.683  0.0580  0.0712  0.0693
90152W        W65140  14.963  18.044  19.615  0.2096  0.1100 -0.0831
90153W        W65141  15.588  21.801  21.913  0.3378  0.0983  0.0107
90154W        W65142  29.807  13.327  21.817 -0.0275 -0.2687  0.1335
90155W        W65143  23.688   9.976   2.169 -0.0054  0.3243  0.0307
90156W        W65144   0.901  34.782  16.717  0.1826 -0.2463  0.3182
90157W        W65145  18.399  16.396  11.745  0.0201  0.0374 -0.0737
90158W        W65146  10.392  23.458  13.573  0.0322  0.0717 -0.0098
90159W        W65147  19.287   0.751  19.349  0.1731  0.0390  0.1785
90160W        W65148  25.476  16.428  21.505  0.0122 -0.0636  0.0784
90161W        W65149  34.603  18.481  17.412  0.1532 -0.3593  0.0808
90162W        W65150  17.350  20.974  23.123  0.2257 -0.0857  0.1342
90163W        W65151   3.392  11.065  17.433 -0.2001  0.1491  0.2579
90164W        W65152   4.773  21.648  22.908 -0.0892 -0.1318  0.0384
90165W        W65153  13.444  16.803  10.841  0.2085 -0.1001  0.0189
90166W        W65154  12.166  28.158  24.377  0.1716 -0.1714  0.1050
90167W        W65155  13.662  28.476  13.096  0.0596  0.3797 -0.0617
90168W        W65156  32.908  18.324  21.885  0.0621  0.2627 -0.2562
90169W        W65157   3.018   6.809  19.442 -0.0192  0.1603 -0.2615
90170W        W65158  16.737  31.399   7.026 -0.2830  0.0614  0.0201
90171W        W65159  10.522  31.604  12.852  0.0711 -0.0643  0.0390
90172W        W65160  19.949  23.072  19.205 -0.0011  0.1029 -0.1402
90173W        W65161  16.904   0.203  20.164  0.1247  0.1384  0.2719
90174W        W65162  16.029  13.076  21.716 -0.1457 -0.0052 -0.2203
90175W        W65163  32.632  17.298  17.800 -0.0849 -0.0220 -0.1387
90176W        W65164  32.348  33.964  19.206  0.1487 -0.0717 -0.1344
90177W        W65165   1.810  30.455  24.742 -0.0746  0.1933 -0.1755
90178W        W65166  16.484  30.993   6.397 -0.0603  0.0195  0.0154
90179W        W65167   0.989   2.566   4.916  0.2070 -0.4529 -0.2654
90180W        W65168  35.325  27.583   0.189  0.0909  0.3617 -0.0463
90181W        W65169  22.544  23.082   0.909  0.0288 -0.1797  0.4364
90182W        W65170  22.378  25.136  14.593 -0.2070 -0.0891 -0.0133
90183W        W65171  14.593   4.149  24.693 -0.0919  0.1149 -0.0075
90184W        W65172  31.763  26.993  18.454 -0.1417 -0.3070 -0.1331
90185W        W65173  12.790  18.826  22.211  0.1530 -0.4865  0.1263
90186W        W65174  23.362   5.998   2.880  0.4742  0.1035  0.0081
90187W        W65175  23.832  17.036  23.868 -0.2017 -0.2199 -0.5192
90188W        W65176  11.964  18.915   9.121  0.1468  0.2072  0.0099
90189W        W65177   9.721   1.740  26.183  0.3500 -0.2248  0.2756
90190W        W65178  32.238  21.864  23.974 -0.0555  0.0040  0.1282
90191W        W65179  16.194  32.618  24.990  0.0247 -0.2616  0.2364
90192W        W65180  30.899   6.204  21.158 -0.3885  0.0181  0.2032
90193W        W65181  17.630  12.356   4.738  0.0104  0.0395 -0.0220
90194W        W65182  30.384  33.891  12.552 -0.5047 -0.3096  0.0893
90195W        W65183  31.872  27.685  25.273 -0.0569  0.0325  0.0886
90196W        W65184  33.333  16.386  12.782 -0.0164 -0.0225 -0.0409
90197W        W65185   6.400  26.615  11.593 -0.2074 -0.4270  0.5601
90198W        W65186   1.042  22.409  12.963  0.1718 -0.1609  0.2589
90199W        W65187  15.260  28.882   9.094 -0.4161 -0.1385  0.2586
90200W        W65188  14.703  18.762   2.148  0.4305 -0.0047 -0.1424
90201W        W65189   2.121  35.334  23.185  0.0986 -0.1135  0.1019
90202W        W65190  31.655  20.040  17.299  0.2218  0.1749  0.1393
90203W        W65191   8.284   4.156   5.384  0.5198 -0.0523  0.1085
90204W        W65192  32.396  20.388  10.441 -0.0668  0.1423 -0.1986
90205W        W65193  13.432  10.385   0.126 -0.1833 -0.1839 -0.2601
90206W        W65194  22.418   4.916  19.549 -0.1093  0.0766 -0.1881
90207W        W65195  13.151   9.130   8.668  0.0215  0.0342 -0.1015
90208W        W65196   8.052  13.136  25.042  0.2544 -0.0445 -0.0202
90209W        W65197   4.170  29.103  10.813  0.0921  0.0056 -0.0023
90210W        W65198  32.677  25.840  10.967 -0.1399 -0.1463 -0.0871
90211W        W65199   8.839  16.836   6.996 -0.1758 -0.0958  0.2001
90212W        W65200  11.720  20.958  14.531 -0.0249  0.2673 -0.0462
90213W        W65201   1.906  18.163  14.506 -0.3242 -0.0105  0.3699
90214W        W65202  32.314  10.255  20.397 -0.2638  0.1539  0.1208
90215W        W65203  22.047  27.215   5.783  0.0178 -0.0989 -0.3607
90216W        W65204  10.608   0.227   1.740 -0.0722  0.1748  0.0650
90217W        W65205   5.715  21.484   4.654 -0.0648  0.2115  0.2075
90218W        W65206   3.540  21.729  20.068  0.1053  0.2822 -0.0328
90219W        W65207  28.315  27.207  24.455  0.1335  0.1413  0.0025
90220W        W65208  28.766  22.159  21.543 -0.2216  0.2223  0.1381
90221W        W65209  10.588   9.851  11.370 -0.1295  0.0712 -0.1935
90222W        W65210  17.271   2.840   1.559  0.0422 -0.3391  0.1716
90223W        W65211  32.078  29.821   0.749 -0.1080  0.1117 -0.2569
90224W        W65212   1.567  17.220  20.660 -0.0045  0.1682 -0.1283
90225W        W65213  31.728   4.772   3.597  0.0043  0.0479  0.0671
90226W        W65214  11.781  27.794  15.653 -0.0277 -0.1761  0.0530
90227W        W65215  24.428   8.196   2.534 -0.2959  0.3921 -0.0575
90228W        W65216   5.751  11.899  18.467  0.1460 -0.0028 -0.0969
90229W        W65217   0.801  24.455  22.375 -0.1543 -0.0782 -0.1853
90230W        W65218   3.650  33.236  26.167  0.0681  0.1004  0.0698
90231W        W65219  25.605  12.306  20.016  0.3387  0.1176 -0.2009
90232W        W65220  17.380  17.501   0.064 -0.2131 -0.0405  0.0672
90233W        W65221  27.807  15.003   9.242 -0.1937  0.3345  0.1253
90234W        W65222  27.463  15.976   7.117  0.0554  0.3661  0.1190
90235W        W65223  33.645  12.083  14.267  0.0787 -0.0244  0.2781
90236W        W65224  16.819  15.362   7.289  0.3095  0.0331  0.0827
90237W        W65225  27.615  14.895  16.707  0.1602 -0.0676  0.0697
90238W        W65226   9.366  26.015   7.408 -0.0800  0.2183  0.2931
90239W        W65227  19.927  30.110  22.796  0.1211  0.0952 -0.1750
90240W        W65228   9.940   0.247   5.574  0.0127  0.2258 -0.0605
90241W        W65229   0.903  34.034   0.556 -0.0551  0.1510 -0.0194
90242W        W65230  11.624  28.122  23.077  0.1030 -0.2588 -0.1130
90243W        W65231  30.120  24.818   7.388 -0.2933  0.1035 -0.2442
90244W        W65232  12.946  28.682   6.066 -0.1330  0.2976 -0.0631
90245W        W65233  23.084   9.968  22.597 -0.3378  0.0555  0.2352
90246W        W65234  17.115  33.772  19.625 -0.1351  0.1717  0.1322
90247W        W65235   6.624  25.327  15.148  0.0684  0.1227  0.0248
90248W        W65236   5.061   7.195  20.485 -0.1073  0.1910 -0.0879
90249W        W65237  18.906   1.213  22.800  0.2382  0.2216  0.0144
90250W        W65238   0.065  23.170   2.439  0.1483  0.3457 -0.1698
90251W        W65239  23.933  29.898  24.139 -0.0086 -0.1381 -0.0292
90252W        W65240  23.046   0.888  12.926  0.2853 -0.0819  0.0513
90253W        W65241   5.562  17.971   1.318 -0.0300  0.1519 -0.1417
90254W        W65242  23.252  24.766  17.789  0.2153  0.0917  0.0402
90255W        W65243   1.352   5.554  21.651 -0.0477  0.0420 -0.0138
90256W        W65244  31.348  30.518  22.593  0.0644 -0.1603  0.0037
90257W        W65245   8.115  26.796   8.349  0.1380  0.0425  0.1875
90258W        W65246  29.759  32.947  23.678  0.0386 -0.1900 -0.1014
90259W        W65247   0.514  26.049  15.579  0.4019 -0.1572  0.0460
90260W        W65248  10.792   4.850  20.232 -0.0307 -0.0050 -0.1664
90261W        W65249  28.132   3.959  16.067  0.3125 -0.0234  0.1932
90262W        W65250  17.699  11.133  10.329 -0.1734  0.3873 -0.1632
90263W        W65251   1.191  30.988  19.925 -0.1035 -0.1724 -0.1003
90264W        W65252  31.123  25.714  21.450 -0.0946  0.1476 -0.0054
90265W        W65253  14.149   6.483   1.604 -0.2256  0.0985  0.3158
90266W        W65254  16.719  26.976   7.171  0.0583  0.2463  0.0474
90267W        W65255   9.856  16.843  21.117  0.0915  0.0360  0.2244
90268W        W65256  15.802  19.926   2.100 -0.0323  0.1771  0.2601
90269W        W65257  13.082  32.310  25.506  0.0270  0.2184  0.2732
90270W        W65258  11.426  28.000  13.337 -0.0820  0.2425 -0.0134
90271W        W65259  33.885   3.960  16.718  0.1510 -0.0933  0.0185
90272W        W65260   4.962  26.940   8.626  0.3521 -0.0712  0.1264
90273W        W65261  30.275  27.722  11.033  0.0873  0.2609  0.1808
90274W        W65262   2.934  19.163  24.624  0.3865  0.0068 -0.0804
90275W        W65263  10.842  13.024   3.735 -0.0073 -0.4755  0.1095
90276W        W65264   5.644  11.959  23.095  0.1417 -0.0870  0.0503
90277W        W65265  31.786  15.576  25.551 -0.2158 -0.2752 -0.0492
90278W        W65266  17.631   5.828  22.695  0.2072  0.0049  0.0633
90279W        W65267   6.427   0.771   1.158  0.3240  0.2410 -0.3582
90280W        W65268   9.210   6.569  18.766 -0.1949  0.2528  0.1847
90281W        W65269   2.391  27.001   8.268 -0.1619  0.0414  0.1401
90282W        W65270  19.849   6.974  10.667 -0.1896 -0.2647  0.3157
90283W        W65271  10.136  14.116  19.799  0.1793  0.2156  0.0560
90284W        W65272  19.739  20.337  18.742  0.2525 -0.0360 -0.2759
90285W        W65273  22.721   2.127  21.044 -0.0224  0.0679 -0.0891
90286W        W65274  26.406  17.186  25.181  0.0117  0.1038  0.1429
90287W        W65275  34.759  26.463  14.136 -0.4604 -0.0355  0.0150
90288W        W65276   2.730  11.475  15.064  0.1433  0.0710  0.0527
90289W        W65277  25.199   1.313   4.288  0.1094  0.1612 -0.0428
90290W        W65278  18.046   1.980  22.269  0.1096 -0.1395  0.0124
90291W        W65279   0.646  11.650  17.453  0.3012 -0.2393  0.1992
90292W        W65280   4.977  19.758  25.267  0.1191 -0.0605 -0.1383
90293W        W65281   2.157  28.802   0.011  0.0572  0.0528 -0.1394
90294W        W65282  18.640   7.641  23.026 -0.0530  0.0915  0.3995
90295W        W65283   5.456  29.064   7.965 -0.0539  0.2649  0.0473
90296W        W65284  33.668   1.526  16.921  0.0109 -0.0636 -0.0083
90297W        W65285  27.925  16.763  14.628  0.0920  0.0217 -0.2777
90298W        W65286  30.009  27.682  22.272  0.2469  0.1064  0.0464
90299W        W65287   6.210  27.154  13.800 -0.1281  0.0780 -0.1929
90300W        W65288  10.745   1.526   1.110 -0.1021 -0.0782 -0.1037
90301W        W65289   8.965   9.935   9.036 -0.0129  0.0286  0.1205
90302W        W65290   2.761  27.455   4.859  0.2865  0.0251  0.1462
90303W        W65291  10.311  34.329   5.966  0.1295  0.1639  0.1988
90304W        W65292  20.967   7.975   6.569 -0.1794 -0.0923  0.2036
90305W        W65293  16.934   1.288   6.768  0.0417  0.2308  0.1428
90306W        W65294   4.438  18.359  21.292  0.0430  0.1722 -0.1452
90307W        W65295   9.104  10.592   9.592  0.2452  0.2573  0.0485
90308W        W65296   7.820  10.060   5.299 -0.0806  0.0278  0.2297
90309W        W65297  10.731  27.001  22.704  0.0012 -0.0665 -0.1121
90310W        W65298  14.930  22.386  12.267 -0.1119 -0.1445  0.0053
90311W        W65299   2.613  35.286  20.828 -0.0164  0.4823  0.1570
90312W        W65300   8.714  31.751   4.082 -0.0996  0.2821  0.1843
90313W        W65301   0.367  11.493  22.003  0.0871  0.0173 -0.1918
90314W        W65302  32.994  28.397  15.133  0.0952 -0.0026  0.0578
90315W        W65303  24.115  30.838   1.243 -0.0534 -0.1820 -0.2415
90316W        W65304   4.878  27.174  11.272 -0.2487  0.1446 -0.0043
90317W        W65305  17.649  18.399  19.438  0.0244  0.4414  0.1282
90318W        W65306   7.576   6.537   3.502 -0.0041 -0.2194  0.0432
90319W        W65307   9.182  19.527  21.667  0.0584 -0.1027  0.2944
90320W        W65308   7.618  25.927   3.360  0.2981 -0.1132  0.2266
90321W        W65309  33.296   4.077  25.316 -0.1338 -0.0633  0.0199
90322W        W65310  33.531  29.290   0.547  0.0045  0.2088 -0.4062
90323W        W65311  19.035   9.446   3.524  0.0678  0.1768 -0.0947
90324W        W65312  24.973  31.596  20.645 -0.1095 -0.4145  0.4776
90325W        W65313  30.426  16.606  25.057  0.1688  0.0809  0.2872
90326W        W65314  20.932   8.169  20.244 -0.0552 -0.1395  0.1926
90327W        W65315  15.146  29.280  12.358 -0.1821  0.0676  0.1922
90328W        W65316  26.339  15.401  13.905 -0.1082  0.2758  0.3986
90329W        W65317  35.254  20.665  14.422 -0.1433  0.0207 -0.1461
90330W        W65318  27.603  11.170  24.284  0.1605  0.0134  0.1106
90331W        W65319  22.559  23.090  16.386 -0.1474 -0.0512  0.2277
90332W        W65320  24.299  17.940  11.584  0.0644 -0.1646 -0.0596
90333W        W65321  26.315  10.120   9.838  0.0040 -0.0110 -0.0059
90334W        W65322  26.068   5.556   0.077  0.1537  0.0432  0.2108
90335W        W65323  31.281  32.083  23.045 -0.3288 -0.2776  0.0425
90336W        W65324   0.580   7.781  20.556  0.0923 -0.0696  0.2149
90337W        W65325  30.779  13.605   8.607 -0.5018 -0.1802  0.2128
90338W        W65326  10.423  34.384   2.830 -0.0100  0.2792 -0.0121
90339W        W65327  28.425  16.587  12.043  0.0716 -0.1223 -0.1416
90340W        W65328  30.096  16.934  18.628  0.5483 -0.4427 -0.0750
90341W        W65329  24.283  11.556  24.770  0.0741 -0.1423 -0.1270
90342W        W65330  10.320   9.432   3.213 -0.0267  0.1356  0.1695
90343W        W65331  32.791  29.496   4.499 -0.1988  0.0552  0.1901
90344W        W65332   3.848  24.522  22.623  0.0931  0.3411  0.0032
90345W        W65333  31.896  15.848  17.949 -0.1551 -0.0435  0.1561
90346W        W65334  18.205  25.774  25.146  0.2722  0.1840 -0.0836
90347W        W65335  32.480   2.737  14.097 -0.3410  0.1368  0.1521
90348W        W65336  32.524  30.469  18.846  0.1084 -0.4292  0.0073
90349W        W65337  20.094  30.722   0.503  0.0312 -0.1490  0.0402
90350W        W65338  33.393   3.081   1.880  0.1213  0.0002 -0.1593
90351W        W65339   0.194  19.375  22.247 -0.0124 -0.0179  0.0168
90352W        W65340  26.885  29.385  14.148  0.0773 -0.2535 -0.0638
90353W        W65341  15.907  34.246  22.876 -0.2356  0.3685  0.1923
90354W        W65342  11.043   5.937  14.451  0.0509 -0.1459 -0.0209
90355W        W65343  22.950  27.143   0.800  0.0775 -0.0444 -0.1953
90356W        W65344   1.359   9.097  22.473  0.0999 -0.0876  0.0498
90357W        W65345  30.810  17.958  19.902  0.3298 -0.2048 -0.1105
90358W        W65346  12.065  26.820   8.665  0.0978 -0.1294 -0.1130
90359W        W65347  21.142  23.448  18.505 -0.1361  0.3646 -0.2636
90360W        W65348  26.891   9.176  23.359  0.0526 -0.2172 -0.0841
90361W        W65349  35.321  16.765  15.548  0.2151  0.2016 -0.0844
90362W        W65350   1.633   3.263  24.426  0.0822  0.1056 -0.1931
90363W        W65351   8.353  35.103   0.738 -0.1105 -0.0616 -0.0475
90364W        W65352  25.699  23.166   9.801  0.0488 -0.2597  0.1811
90365W        W65353   9.584  35.343   1.052 -0.1278  0.2629 -0.1785
90366W        W65354  32.553  17.970  24.746  0.1275  0.1465  0.0151
90367W        W65355  21.446   5.659  20.361 -0.1450  0.0912  0.1826
90368W        W65356  11.186  24.861   3.083  0.0749 -0.3717 -0.0331
90369W        W65357   3.379   0.016   4.198 -0.1019  0.0686  0.3304
90370W        W65358  26.568  27.617  19.290  0.2779  0.0661  0.1370
90371W        W65359  18.996  34.995  19.050 -0.2397  0.1350 -0.3083
90372W        W65360  10.292  32.885  12.201 -0.0590 -0.2697 -0.1692
90373W        W65361   9.182  29.664   9.046  0.1085 -0.0434 -0.0628
90374W        W65362  11.935   6.512   0.915  0.4146 -0.1943  0.2362
90375W        W65363   0.282  15.149  18.948  0.0861 -0.1860 -0.3319
90376W        W65364  15.804  31.149  22.442  0.0280 -0.0368  0.1536
90377W        W65365  11.702  13.838   9.729  0.1169 -0.0168 -0.2222
90378W        W65366  11.479   7.899  21.678  0.1628  0.1002  0.1723
90379W        W65367  11.442   7.316  25.981 -0.4216 -0.0024 -0.0698
90380W        W65368   4.597  34.061  24.143  0.1302  0.1488 -0.0509
90381W        W65369   4.282  26.568  22.340 -0.3232  0.0043  0.1399
90382W        W65370  33.899   7.173  21.582  0.0399  0.2060 -0.0224
90383W        W65371  33.529  34.802  17.959  0.0251 -0.0197  0.0534
90384W        W65372   5.574  20.835  20.134 -0.1274  0.2318  0.0794
90385W        W65373  31.322   0.922   3.519  0.3384 -0.2581 -0.1346
90386W        W65374   7.456  25.338  22.029  0.0973 -0.2122 -0.1391
90387W        W65375  26.363   3.530   0.332  0.2651  0.1558 -0.1928
90388W        W65376  28.793  23.618  14.925  0.0301 -0.0993 -0.0403
90389W        W65377  25.109   6.299  13.458 -0.0597  0.2899  0.0153
90390W        W65378  21.986  34.834  18.132 -0.2962 -0.1997 -0.0766
90391W        W65379  14.737  35.036  19.627 -0.4639  0.1975 -0.0616
90392W        W65380   1.986  15.738  13.779 -0.0394  0.3791 -0.1771
90393W        W65381  26.583  17.409  24.261  0.0134  0.0726 -0.1701
90394W        W65382  17.215  11.950   4.256  0.2184  0.2667  0.2821
90395W        W65383   3.829  24.440  23.514  0.0172  0.0588 -0.3132
90396W        W65384  12.001  34.178  13.863  0.2708  0.0282 -0.0695
90397W        W65385  21.391  16.892  20.542  0.1034  0.1382  0.1922
90398W        W65386  29.898  18.902  19.301  0.0456  0.1627 -0.0510
90399W        W65387  33.692  33.840  22.628 -0.5034 -0.1522  0.0719
90400W        W65388  31.677  18.483  23.731 -0.0998  0.0004  0.1065
90401W        W65389  20.703  25.197   7.457 -0.0150  0.3077  0.0813
90402W        W65390   0.538  27.481  22.404  0.4435 -0.2363 -0.1796
90403W        W65391  17.639   7.574   5.712  0.1142 -0.2436 -0.1987
90404W        W65392  17.898   9.277   4.984 -0.2433 -0.0961 -0.0356
90405W        W65393  15.686  31.055   2.436 -0.2534  0.1148  0.1519
90406W        W65394  22.869  13.530  23.961 -0.2561  0.0585  0.1272
90407W        W65395  18.834  31.850  25.146 -0.0378 -0.2410 -0.1979
90408W        W65396  33.289   5.342  13.036  0.1581  0.1200 -0.1396
90409W        W65397  34.741  13.823   8.049 -0.2169 -0.0250 -0.3015
90410W        W65398  33.450  19.627  22.884  0.0992 -0.2982 -0.0797
90411W        W65399  33.534  14.215   7.539  0.3396 -0.0068 -0.1900
90412W        W65400  33.806  29.760  21.146 -0.0579  0.1248  0.1383
90413W        W65401  20.917  35.304  14.292 -0.2109  0.0226  0.0008
90414W        W65402   4.128   9.090   2.396 -0.0080  0.0385  0.0664
90415W        W65403  26.644  32.260  24.842 -0.2052  0.1091 -0.0957
90416W        W65404  30.177  29.555   2.057 -0.0949 -0.2358 -0.1132
90417W        W65405   9.888  29.554   5.807  0.0658 -0.0043 -0.1841
90418W        W65406   6.916  22.803  24.296 -0.1514 -0.1885  0.4659
90419W        W65407  12.360  24.177  23.794  0.0699  0.0941 -0.1552
90420W        W65408  17.575  18.142   3.918 -0.0378 -0.0600 -0.0379
90421W        W65409  30.000   8.472   0.523 -0.0165 -0.1577 -0.1554
90422W        W65410   0.701  27.780  19.576 -0.0175  0.1543 -0.0249
90423W        W65411  21.419  10.980  16.388 -0.0816  0.1036 -0.2884
90424W        W65412   3.426  23.887  20.891  0.5149  0.1221  0.2129
90425W        W65413  12.583   8.427   7.096  0.2174  0.0464 -0.2520
90426W        W65414   3.150  26.100   4.032 -0.5245 -0.2509 -0.0116
90427W        W65415  13.432  33.765  11.195  0.0460 -0.0337 -0.1149
90428W        W65416   6.428  16.210  21.114 -0.0358 -0.3122  0.0009
90429W        W65417  27.375   7.156  20.898  0.0446 -0.2932 -0.0908
90430W        W65418  24.645  28.028  12.568  0.0004 -0.1022 -0.2232
90431W        W65419  28.877   7.213  20.772  0.4167  0.0932  0.3487
90432W        W65420  31.733   4.235   0.716  0.3921 -0.0970 -0.2497
90433W        W65421  34.344   8.823   0.304 -0.0516 -0.0150  0.1695
90434W        W65422  35.095   6.521   1.496  0.0560 -0.1186  0.0861
90435W        W65423  25.059  27.360  14.290 -0.0672 -0.0832 -0.1541
90436W        W65424  20.012   0.094   3.554  0.1641 -0.0926  0.3201
90437W        W65425  26.568  15.190  15.241 -0.2237 -0.2603  0.0541
90438W        W65426  23.644   0.560   5.328  0.4113 -0.0639  0.1469
90439W        W65427  23.714   3.215   2.623  0.0855 -0.0498  0.2613
90440W        W65428  34.131  26.231   1.715 -0.5195 -0.0905 -0.1330
90441W        W65429  21.614  13.513  16.234  0.2903  0.0405  0.1320
90442W        W65430  10.700   3.374  22.896  0.0841  0.0737  0.0020
90443W        W65431  18.210  14.322   2.172  0.1217 -0.0610  0.3463
90444W        W65432  10.274  26.453   0.627  0.1720 -0.0283  0.1154
90445W        W65433  28.538  23.587  19.216 -0.0705 -0.0242  0.0533
90446W        W65434  12.636  19.498   6.559  0.2258 -0.3683  0.3643
90447W        W65435   8.222  20.992   8.196 -0.0074 -0.1704 -0.1659
90448W        W65436   8.019   2.643   4.600 -0.0708  0.1348  0.0940
90449W        W65437  31.578  27.369  13.571 -0.1117 -0.1366 -0.0630
90450W        W65438   7.679  29.885  13.176 -0.0088 -0.0773 -0.2178
90451W        W65439  30.579  33.467  14.576 -0.0893 -0.4354 -0.1954
90452W        W65440   5.461  18.042  23.363  0.1390  0.0579  0.1984
90453W        W65441   1.253  15.504  11.064  0.1068 -0.3053  0.3226
90454W        W65442   5.139  26.183  12.284  0.0421  0.0776  0.2799
90455W        W65443  21.937  34.721  18.677  0.4901  0.1617 -0.2911
90456W        W65444  30.025  16.875  19.599 -0.2491  0.0812  0.0374
90457W        W65445   3.429   0.975  10.317 -0.0536 -0.2054  0.1556
90458W        W65446   7.481  33.933   9.837  0.5058 -0.1701 -0.2258
90459W        W65447  33.513  26.748  21.046 -0.0508  0.2828  0.1885
90460W        W65448  29.745  29.690  13.150 -0.0779  0.0476 -0.0543
90461W        W65449  18.966   1.822  26.031 -0.0561 -0.1443 -0.0842
90462W        W65450  15.004   8.944  26.146  0.0696  0.2289  0.1944
90463W        W65451  19.254  27.304   0.505 -0.0451  0.0681 -0.1973
90464W        W65452  35.135   2.938  24.033 -0.0702  0.1147  0.2683
90465W        W65453  34.462  12.170   1.181 -0.2590 -0.0610  0.0283
90466W        W65454  14.409   7.147  20.614 -0.1430  0.0189  0.1131
90467W        W65455  24.862   8.057  12.135 -0.2162  0.0090  0.1010
90468W        W65456  20.238  16.686   4.387 -0.0127  0.0679 -0.1127
90469W        W65457  34.970   6.377  19.080  0.0554  0.2898  0.2108
90470W        W65458  18.869  15.591   7.978  0.0281 -0.1687  0.0783
90471W        W65459   0.760   0.348  16.905  0.2795 -0.0712 -0.0416
90472W        W65460  10.791   0.151   5.298  0.2000  0.0381 -0.2853
90473W        W65461   4.361  33.771  23.645 -0.1473  0.0196 -0.1503
90474W        W65462  10.614  13.305   1.870 -0.3315  0.0204  0.0642
90475W        W65463  22.156  23.883  17.570 -0.0591 -0.2291  0.2302
90476W        W65464  13.384  18.970   8.669 -0.0256  0.1274 -0.0804
90477W        W65465  18.494  34.225   3.028 -0.0911 -0.2145 -0.0881
90478W        W65466  23.893   1.563  17.396  0.0526  0.2891  0.1431
90479W        W65467  22.603  28.493  21.810  0.1170 -0.0793 -0.0527
90480W        W65468   7.579  26.867   9.238  0.1943 -0.3151  0.0600
90481W        W65469  33.279  10.071   8.979  0.3162 -0.3054  0.0330
90482W        W65470   3.505  10.323  25.885  0.0018  0.0497 -0.1792
90483W        W65471   9.394  22.245   0.150 -0.0093 -0.0401 -0.0280
90484W        W65472  31.333   6.603  11.941 -0.2688 -0.0594 -0.0668
90485W        W65473  31.499   5.866  21.288 -0.2336 -0.3330  0.1302
90486W        W65474  24.578  11.792  18.283 -0.3820  0.2812 -0.1482
90487W        W65475  13.208  10.963  11.445  0.1622  0.0381 -0.2604
90488W        W65476  20.281  29.537   3.896 -0.3478  0.1347  0.2959
90489W        W65477  26.916  24.544  12.363 -0.4032  0.1706  0.1672
90490W        W65478  11.211   2.255  22.990 -0.3360  0.0002 -0.3942
90491W        W65479   5.216   1.817  21.795  0.0960  0.1121  0.2292
90492W        W65480   8.756   0.860   9.164 -0.0036 -0.1779  0.1048
90493W        W65481  21.054  13.338   2.953 -0.0368  0.0483  0.0029
90494W        W65482  27.493  26.289   0.546 -0.1058 -0.1932 -0.1584
90495W        W65483   2.970  10.674  18.923  0.0709  0.0531  0.1929
90496W        W65484  10.810  13.324   0.055  0.0126 -0.1297  0.3927
90497W        W65485   7.766  30.865  25.258  0.0048  0.0671  0.2607
90498W        W65486  21.598   6.320  18.994 -0.1360 -0.1727  0.1219
90499W        W65487   1.826   4.851  20.272 -0.1130 -0.1002 -0.0722
90500W        W65488   5.840  33.076  12.695 -0.0520  0.2408 -0.0018
90501W        W65489  30.955   4.297  25.559 -0.3162 -0.1023  0.1137
90502W        W65490  14.444  26.948   4.052  0.0960 -0.0153  0.1395
90503W        W65491   7.437  30.385   8.059  0.0152  0.0067  0.0302
90504W        W65492  25.482  15.805  16.072  0.1545 -0.1835  0.2104
90505W        W65493   3.135  32.612  22.849  0.2257 -0.0795 -0.0692
90506W        W65494  30.243  22.343  20.469  0.1678 -0.1621  0.1189
90507W        W65495  30.984  25.973  21.073  0.0466 -0.3082 -0.3335
90508W        W65496  17.336   5.464  25.690 -0.0244 -0.0585  0.0915
90509W        W65497   2.093  20.252  13.399 -0.1328  0.0431  0.1817
90510W        W65498  20.487  11.523  21.689  0.1613 -0.0687  0.0508
90511W        W65499   6.075  34.151   3.163  0.0908 -0.0415 -0.2372
90512W        W65500  22.458  32.673  17.660  0.1074  0.3168 -0.1349
90513W        W65501   0.441  11.695  15.862  0.0878  0.2718 -0.0243
90514W        W65502  15.252  19.720   3.678 -0.4005  0.1846  0.2389
90515W        W65503  14.466  25.498   2.084 -0.2518  0.1204  0.2369
90516W        W65504  20.223  10.301   4.922  0.1712 -0.5111 -0.2185
90517W        W65505  21.732  26.587   1.548  0.1321 -0.4114  0.0303
90518W        W65506  11.299  22.710   7.158 -0.0319  0.3303 -0.0415
90519W        W65507  22.013  29.941  23.346  0.4149  0.2166  0.1512
90520W        W65508  19.400  28.220   6.492 -0.1425 -0.0914 -0.0615
90521W        W65509  19.441   1.536  17.743 -0.0825 -0.0893 -0.1062
90522W        W65510  13.117   2.571  24.145 -0.0941  0.2866 -0.0843
90523W        W65511   2.835  26.244  21.698 -0.1283  0.1969  0.0134
90524W        W65512  17.885   8.193  18.898 -0.2447  0.0882 -0.1264
90525W        W65513  28.826  24.319  24.839  0.2679  0.1031  0.1419
90526W        W65514  10.347  14.140  24.576  0.3818 -0.1755 -0.4250
90527W        W65515  26.677  33.659  25.336 -0.3590 -0.1703 -0.0848
90528W        W65516  33.722  12.893  25.450  0.0021 -0.2374  0.1301
90529W        W65517   5.542   5.517   0.978  0.0305  0.0176 -0.3916
90530W        W65518  18.331   5.563  10.523 -0.0911 -0.0093  0.0195
90531W        W65519  19.940   2.356  15.192 -0.2301 -0.0219 -0.1249
90532W        W65520   5.969  32.285  22.757  0.2371 -0.1824  0.0957
90533W        W65521   4.162   7.415   4.127 -0.1675 -0.2907 -0.0845
90534W        W65522   9.843  34.794  14.663  0.2720  0.0856  0.0306
90535W        W65523  28.051  16.152  23.746 -0.3083  0.1340 -0.1852
90536W        W65524  20.400  14.443  23.236  0.0365 -0.1765  0.1729
90537W        W65525  15.747  18.218  10.292 -0.1510  0.1164  0.2741
90538W        W65526  33.784  27.127   3.319  0.0660  0.2011 -0.4565
90539W        W65527   8.624  18.852   6.971 -0.2376  0.2466 -0.1521
90540W        W65528  19.655  29.523   6.278  0.1449  0.1624  0.3421
90541W        W65529   2.792  18.883  19.466 -0.0463 -0.1306  0.0990
90542W        W65530  23.967  26.833  21.914  0.0546  0.1906 -0.2348
90543W        W65531  28.913  32.621  20.450  0.1139  0.0043  0.2229
90544W        W65532  10.793   8.467   5.530  0.2120 -0.2309 -0.1213
90545W        W65533  18.073  11.941  25.003 -0.2392 -0.1144  0.0334
90546W        W65534  29.095  33.531   1.580 -0.1305  0.1696 -0.1131
90547W        W65535  17.346  22.340   8.870  0.2882  0.0822 -0.0237
90548W        W65536  35.237  32.843  21.465  0.1096 -0.0702  0.1090
90549W        W65537   8.761   0.455   6.487 -0.2038 -0.2782 -0.0622
90550W        W65538   2.278  18.551  15.792  0.0887 -0.1769  0.1068
90551W        W65539  30.545  19.330  15.916  0.0159 -0.1981  0.0805
90552W        W65540   9.076  30.854  22.083  0.1812  0.0722  0.0199
90553W        W65541  12.169  15.583   6.373 -0.1951  0.2002  0.1991
90554W        W65542   7.106  30.054   4.996  0.1890 -0.3620  0.0848
90555W        W65543  14.899  35.266   6.545 -0.2880 -0.0782  0.2263
90556W        W65544  29.682   5.316   2.410 -0.4243 -0.0181  0.0503
90557W        W65545  22.485  30.100  22.038 -0.2048 -0.0376 -0.0485
90558W        W65546  30.352  22.380  18.656 -0.1073  0.0466 -0.3587
90559W        W65547   0.892   8.919  15.192  0.3435  0.0378  0.1278
90560W        W65548  31.225  25.417   8.632  0.1370 -0.1368  0.2227
90561W        W65549  15.579  22.698   2.691 -0.0984  0.1616 -0.0389
90562W        W65550  25.331   3.095  22.827  0.1985  0.1932 -0.0475
90563W        W65551  19.150  26.999   6.728  0.2528  0.3752 -0.2651
90564W        W65552  31.511   0.840  13.329 -0.1851 -0.1201  0.0909
90565W        W65553  31.475   1.365   2.068 -0.0705  0.0498  0.2070
90566W        W65554  14.647  33.484  21.999  0.3094 -0.0250 -0.2343
90567W        W65555   7.599  34.418  23.719  0.1371 -0.0987 -0.1438
90568W        W65556  34.462  14.886   0.291 -0.1701  0.1264  0.0250
90569W        W65557  24.601   2.258  13.281 -0.3568 -0.0078  0.2337
90570W        W65558  17.118  15.015  22.039 -0.0758  0.0122 -0.1118
90571W        W65559  34.011  17.006   9.621  0.0343  0.1059  0.3852
90572W        W65560  28.571  24.933  19.789  0.0272  0.2464 -0.2050
90573W        W65561  12.089  22.969   1.988  0.1875 -0.2757 -0.3256
90574W        W65562  13.539   4.463   5.520 -0.0438  0.1382  0.3323
90575W        W65563  17.085  11.310  21.326  0.1623 -0.2336  0.4110
90576W        W65564  25.150  16.189   9.388  0.1090  0.2524 -0.0614
90577W        W65565  17.279   4.647   0.133  0.1016  0.2274 -0.1596
90578W        W65566  10.043  10.654  10.498 -0.1061  0.0020  0.1404
90579W        W65567   2.104   9.085   1.114  0.0369  0.2585  0.1645
90580W        W65568   1.538   7.319   5.300  0.1734  0.1334  0.4468
90581W        W65569   9.359   7.570  22.874 -0.1678 -0.1574  0.3081
90582W        W65570  15.334  22.411   1.193  0.1900  0.3928  0.0929
90583W        W65571  17.256  20.809   4.189  0.0622 -0.2713 -0.0271
90584W        W65572   9.073   7.658  24.410 -0.0169  0.2894 -0.0634
90585W        W65573  32.143   6.876  21.804  0.0289 -0.1450 -0.1614
90586W        W65574  21.516  29.904   6.396 -0.2411 -0.2035 -0.2795
90587W        W65575   9.776  29.103  24.199 -0.1475 -0.1815 -0.0472
90588W        W65576   9.822   9.197  21.994  0.0273  0.0295 -0.2078
90589W        W65577  10.057  24.524  25.706  0.4013  0.1825  0.1007
90590W        W65578   9.463  28.664  13.008 -0.2583 -0.0587 -0.3693
90591W        W65579   5.710  18.085  18.105 -0.1449  0.2486 -0.3234
90592W        W65580  28.700  34.495  15.918  0.2824 -0.0281 -0.0736
90593W        W65581  18.442  21.142  21.687 -0.0087 -0.0687  0.1901
90594W        W65582  24.624  22.727   0.452 -0.3647 -0.0584  0.2688
90595W        W65583  13.656  29.217   4.966  0.3585  0.1228  0.2294
90596W        W65584  31.919  28.220  17.006  0.0432  0.1754  0.1415
90597W        W65585  30.660  11.363  10.711  0.1258  0.1267  0.0436
90598W        W65586  22.396  19.596  20.374 -0.0831 -0.2116  0.0184
90599W        W65587  15.215   7.010   3.778 -0.0366 -0.2213 -0.5060
90600W        W65588   2.314  20.349  25.293 -0.4246  0.0375  0.0642
90601W        W65589  20.582  24.324   1.498  0.0583 -0.2041  0.0472
90602W        W65590  18.569  27.971  24.605 -0.0713  0.1986  0.0409
90603W        W65591  29.818  27.546  18.171  0.4381 -0.2071 -0.1458
90604W        W65592   3.870  21.958  18.254 -0.2623 -0.1746 -0.0221
90605W        W65593   2.853  27.145  21.410 -0.0066  0.1779  0.4662
90606W        W65594  24.127  16.252  12.689 -0.1521  0.2131 -0.1306
90607W        W65595   6.848   6.969  23.231 -0.1933 -0.0348  0.0022
90608W        W65596  19.184  20.440   0.577 -0.1028  0.1994 -0.3112
90609W        W65597  26.278   7.743  15.106  0.3002 -0.0838  0.3085
90610W        W65598  13.477  20.033  25.087 -0.1363  0.1833 -0.0795
90611W        W65599   3.268  27.905  26.220 -0.0254 -0.1022  0.1539
90612W        W65600  21.322   0.498  25.840 -0.2106 -0.1121 -0.0606
90613W        W65601   4.056  18.678  15.664 -0.0911  0.1668 -0.1016
90614W        W65602  26.061  20.763  11.813 -0.1659  0.1724  0.0742
90615W        W65603  26.794   8.186  22.810  0.1615  0.2323 -0.0551
90616W        W65604  27.465  26.179  17.667 -0.1123 -0.2374 -0.1779
90617W        W65605  12.858  34.856  19.840  0.2213 -0.1427 -0.0397
90618W        W65606  20.127   0.482  21.632  0.0447  0.4249  0.0943
90619W        W65607  29.287  13.399   7.893 -0.0649 -0.2738 -0.0512
90620W        W65608  11.148  29.097  16.044  0.0523 -0.2573 -0.0440
90621W        W65609  20.820  16.504   3.100  0.0735 -0.0900 -0.0716
90622W        W65610   6.071  13.382  23.413 -0.3626 -0.5730 -0.2453
90623W        W65611  23.663  28.832   1.497 -0.0425 -0.0879  0.0418
90624W        W65612  24.722  18.439  15.340 -0.1061 -0.2449  0.0908
90625W        W65613  14.305  13.041  24.307 -0.0522  0.2849  0.2431
90626W        W65614  14.445  27.673   6.551  0.0153 -0.2068 -0.1838
90627W        W65615  14.870  18.952  21.455  0.0549  0.1954  0.0867
90628W        W65616  18.497   5.120   5.093 -0.3207  0.0787  0.3494
90629W        W65617   4.989   2.225  25.033  0.1450  0.0286 -0.0157
90630W        W65618   2.602  25.769   4.947  0.1227 -0.2355  0.1391
90631W        W65619  11.648   9.505   6.007 -0.3226 -0.1090 -0.0999
90632W        W65620  15.341  20.943   9.986  0.1808 -0.2689  0.0792
90633W        W65621   2.836  28.064   1.584  0.1630  0.1062 -0.0600
90634W        W65622  30.814   6.740  16.402 -0.0467 -0.1958  0.3622
90635W        W65623   3.454  31.463   8.365  0.0366 -0.2511 -0.1702
90636W        W65624   8.045  20.039  13.104  0.1442 -0.2188 -0.1730
90637W        W65625  31.812  33.882   1.164 -0.0894  0.2782 -0.2199
90638W        W65626  13.476  19.938  22.166 -0.1013 -0.0122  0.2200
90639W        W65627   0.721  16.861  20.154 -0.0952  0.1329  0.1431
90640W        W65628  14.445  20.674  11.753  0.0560  0.1382  0.1662
90641W        W65629   8.562  18.157   2.949  0.1011 -0.0274  0.2670
90642W        W65630  13.518  27.478   2.571 -0.0125  0.1202 -0.2408
90643W        W65631  29.137   2.095  15.755 -0.2281  0.1215 -0.1368
90644W        W65632  32.514   0.304  14.042  0.0825  0.0021  0.1050
90645W        W65633  25.370   0.121   4.014  0.3283  0.0531  0.2538
90646W        W65634  27.424  10.660  20.255  0.1143 -0.2110  0.1905
90647W        W65635  29.764  32.110  25.300 -0.1246  0.1219  0.0178
90648W        W65636  35.043   4.728  21.899 -0.3873 -0.0235  0.1486
90649W        W65637  10.099   3.966   4.600 -0.1655  0.1918  0.0007
90650W        W65638   1.569  15.168  12.624 -0.2413 -0.0454  0.0252
90651W        W65639  30.869  24.575  15.539 -0.0154  0.0295 -0.0989
90652W        W65640  27.354  13.430  13.220  0.3694 -0.3768  0.1070
90653W        W65641  30.321  27.814  10.489 -0.3188  0.1300 -0.4907
90654W        W65642  16.147  25.419   7.782  0.3354  0.1148 -0.0736
90655W        W65643  22.069   1.287  13.528 -0.2187 -0.0909 -0.0064
90656W        W65644  17.395  24.606  11.979 -0.1950 -0.1279  0.0037
90657W        W65645  13.389  12.181   5.580  0.3142 -0.1480 -0.1217
90658W        W65646  11.853  29.450  13.232  0.0312  0.2024  0.2124
90659W        W65647  16.831  23.110   4.500  0.1482 -0.2242 -0.0268
90660W        W65648  10.091  23.594   1.103  0.1347  0.0378  0.2037
90661W        W65649  17.406   4.260  19.610  0.2030 -0.1651 -0.2101
90662W        W65650  15.799   6.831   9.220  0.1622  0.0229 -0.5484
90663W        W65651   9.079  28.512  24.339  0.0005 -0.1689  0.1071
90664W        W65652   9.828   3.643  20.063  0.0883  0.1655 -0.1230
90665W        W65653  20.212   6.103   3.245 -0.1281  0.1977 -0.2704
90666W        W65654   2.926   8.945  20.717  0.1135  0.4674 -0.3409
90667W        W65655  10.158  20.055  16.177  0.1239 -0.1961 -0.0268
90668W        W65656  30.670  28.987  16.129 -0.2211  0.0890 -0.1405
90669W        W65657  26.635  30.760   1.258 -0.1580  0.1383  0.1337
90670W        W65658  19.547  26.594   6.152  0.1284  0.2022  0.0484
90671W        W65659   2.456  25.992   4.462 -0.0851  0.0903  0.1497
90672W        W65660   4.383   4.317   4.402 -0.0197  0.1536 -0.3098
90673W        W65661  26.152  15.072  26.166  0.1642 -0.0023  0.3030
90674W        W65662  17.697  30.963  18.410  0.0804  0.0756  0.0852
90675W        W65663  13.821  26.496   4.361 -0.0712 -0.3952  0.0228
90676W        W65664  11.455   7.796   5.934  0.0951  0.0603  0.0472
90677W        W65665  11.281  34.752   8.915  0.2103 -0.2143  0.0464
90678W        W65666  31.065  14.653  14.849 -0.0262 -0.1660  0.2206
90679W        W65667  13.517  19.581  12.101  0.0316 -0.0745  0.2484
90680W        W65668   4.456  30.855   0.863 -0.1805 -0.0327  0.0538
90681W        W65669  14.384  11.288  13.412  0.0427 -0.1200  0.1737
90682W        W65670   6.760  27.836  21.456 -0.2714 -0.1498  0.1380
90683W        W65671  14.207  24.266   4.124  0.0350  0.0672 -0.1768
90684W        W65672  20.644   3.533   3.364 -0.1897  0.1426 -0.0932
90685W        W65673   3.624  27.896   5.133  0.2179 -0.0827  0.0170
90686W        W65674  26.180  21.447   7.016  0.0267  0.0327 -0.0399
90687W        W65675  20.206  23.511  22.318 -0.2398  0.4458 -0.2220
90688W        W65676  30.942   9.313  16.167 -0.0458 -0.0437 -0.0255
90689W        W65677  16.845  10.243  19.930 -0.1443  0.0447 -0.2844
90690W        W65678  31.400  22.977  21.945  0.0712  0.0089 -0.0573
90691W        W65679  16.055   5.840  23.895  0.0604  0.0118 -0.4037
90692W        W65680  15.277  27.040   5.571  0.0381  0.1045 -0.1065
90693W        W65681  35.205  14.712  16.951  0.1288  0.1611  0.0241
90694W        W65682  23.132  21.255  13.952  0.2375  0.4269 -0.2112
90695W        W65683  18.360  31.978   4.442 -0.1024  0.2105  0.3522
90696W        W65684   7.564   6.155   8.532  0.2710  0.0185  0.3398
90697W        W65685  11.377   8.167   0.246  0.1760 -0.4407  0.2164
90698W        W65686  15.950  23.556   8.702 -0.0633  0.0342 -0.0494
90699W        W65687   3.038  25.452   6.081  0.1251 -0.1218 -0.0206
90700W        W65688  23.262   2.448  20.839 -0.1703 -0.1132  0.4139
90701W        W65689  26.541  15.636  20.771 -0.4607 -0.3343 -0.0249
90702W        W65690  20.155  13.729  18.796 -0.1618 -0.0204 -0.0983
90703W        W65691  24.321  26.037  17.627 -0.0776  0.0196  0.0712
90704W        W65692   0.284  16.021  11.318  0.1760  0.0145  0.1610
90705W        W65693  23.052   5.920   0.621 -0.1637 -0.1635 -0.2878
90706W        W65694   1.768  31.540   5.162  0.1504 -0.1068 -0.0538
90707W        W65695   2.490  12.040  18.789  0.3694  0.2332  0.2644
90708W        W65696  12.776  27.587  12.621 -0.2443  0.4943  0.1236
90709W        W65697   1.075  23.030  24.138 -0.0382  0.3281  0.0815
90710W        W65698  29.301  29.002   9.774 -0.1423  0.1676 -0.0922
90711W        W65699   5.758  28.555  22.293 -0.0566  0.1514 -0.3747
90712W        W65700  18.308  28.766   0.080  0.1359 -0.0430 -0.0620
90713W        W65701  35.325  23.624  18.236  0.0515 -0.0546 -0.1731
90714W        W65702   5.167  11.223  23.001 -0.2143  0.0346 -0.3658
90715W        W65703  34.515   6.468  12.184  0.1416  0.0439  0.1111
90716W        W65704  33.899   6.352  12.919  0.2090  0.0116  0.2485
90717W        W65705   9.306  13.140   0.098 -0.4330 -0.0449 -0.2025
90718W        W65706  15.629  31.008   6.582 -0.1313 -0.2920  0.1589
90719W        W65707   6.288  23.840  22.775  0.2862 -0.0288 -0.0659
90720W        W65708  33.561  10.109  17.543  0.1437 -0.2263 -0.3239
90721W        W65709  33.124  28.890  15.137 -0.0397 -0.0546  0.2006
90722W        W65710  10.458  10.550  19.836  0.0539  0.0416 -0.2074
90723W        W65711   9.085  24.636   0.163  0.0881  0.1075  0.3886
90724W        W65712   2.607  22.092  17.861  0.0322 -0.1251  0.1560
90725W        W65713  22.796  27.940  15.601  0.1201 -0.0396 -0.0470
90726W        W65714   2.023  35.163  20.455  0.0170  0.1833  0.0809
90727W        W65715  10.262   6.232   9.277 -0.0598 -0.1322  0.0658
90728W        W65716  33.457  14.694  25.759 -0.1755  0.2242 -0.0182
90729W        W65717  24.682  27.580  24.738 -0.0918  0.4935 -0.0482
90730W        W65718  10.126  13.406  11.031 -0.1090 -0.0814  0.0444
90731W        W65719  32.092  22.533   7.167  0.3151 -0.1053 -0.0807
90732W        W65720  12.151  14.932   6.166  0.1498 -0.2744 -0.0512
90733W        W65721   7.705  16.356   1.461 -0.1097 -0.1178  0.1971
90734W        W65722   9.568  13.372   3.309  0.0692  0.3430 -0.3943
90735W        W65723   9.596  29.921   7.209  0.1582  0.0191  0.2997
90736W        W65724  27.674   3.984   0.556  0.2793 -0.0032 -0.0639
90737W        W65725  29.430   4.192   3.944 -0.4375 -0.2405  0.4897
90738W        W65726  27.664   8.532   8.598  0.4857  0.1937  0.1683
90739W        W65727  11.879  34.053   5.536  0.0445  0.0792  0.0499
90740W        W65728  27.095  18.665  14.790  0.0096  0.0518  0.2059
90741W        W65729   7.466   5.886  18.979  0.0182 -0.2170 -0.1329
90742W        W65730  32.402   7.311  22.680  0.4880 -0.2819  0.0984
90743W        W65731  30.578  32.278  16.703 -0.0398 -0.1956 -0.0084
90744W        W65732  11.604  17.503   3.162  0.1539  0.2605 -0.1315
90745W        W65733  15.348   1.968  23.360  0.0793 -0.0267 -0.0094
90746W        W65734  34.677   1.943  20.038  0.4131 -0.0742  0.2263
90747W        W65735  11.493   0.640   8.410 -0.4414  0.0864  0.0714
90748W        W65736   5.274  24.321  22.983 -0.1260 -0.3305 -0.0500
90749W        W65737  16.916  22.169  20.708  0.3321  0.2446  0.0318
90750W        W65738  26.192  11.300  13.159 -0.1298 -0.1762  0.0064
90751W        W65739  12.861  21.068  21.395  0.1716  0.1080  0.1558
90752W        W65740  15.825  17.206   1.886 -0.0832  0.1636 -0.0787
90753W        W65741  21.891   5.357   5.070  0.0525 -0.1352  0.0557
90754W        W65742   8.496  25.985   4.795  0.0599 -0.0300  0.2946
90755W        W65743   0.354  14.328  20.289  0.2840 -0.1159  0.4140
90756W        W65744   1.982  14.547  17.779 -0.0911  0.0508 -0.3656
90757W        W65745  30.815  12.644  18.081 -0.2757  0.2596 -0.3329
90758W        W65746   5.470   1.280   3.390  0.0353 -0.1738 -0.2461
90759W        W65747  12.507   4.418   4.040  0.3274  0.1762 -0.1141
90760W        W65748  31.900   2.420  24.562 -0.1287 -0.0957 -0.2018
90761W        W65749  28.431  33.798  17.724  0.0700 -0.0467  0.1613
90762W        W65750  18.517  14.894  23.496  0.1082  0.0335 -0.2092
90763W        W65751  15.527   5.267   5.469  0.0166  0.0514 -0.1404
90764W        W65752  28.836  24.014  20.682 -0.0984  0.0699  0.3514
90765W        W65753   5.280  10.647  10.040  0.1502  0.1693 -0.2054
90766W        W65754  19.532  31.851  22.989  0.1630 -0.2234  0.1392
90767W        W65755  34.977  15.422  19.350 -0.2595  0.2486  0.1359
90768W        W65756   2.359  25.080   2.909  0.3438  0.0415  0.0730
90769W        W65757  11.213   8.841  20.727  0.1439  0.0936  0.1056
90770W        W65758  16.925  23.405   2.523 -0.0449 -0.2164  0.0502
90771W        W65759  27.397   7.200  10.855 -0.0015  0.0567  0.1690
90772W        W65760   1.404  18.653  20.984  0.1796  0.2600  0.1083
90773W        W65761  16.203   3.738  11.144 -0.1761  0.2652 -0.1604
90774W        W65762  11.741  35.385   0.923 -0.0687  0.2558  0.0311
90775W        W65763  28.236  32.847  10.441 -0.0480 -0.0857  0.1491
90776W        W65764   3.228  27.605   1.951 -0.0103  0.2265 -0.0628
90777W        W65765  23.983  13.457  17.017 -0.0340 -0.3357 -0.2211
90778W        W65766  34.725  20.795  23.599  0.1544 -0.1030  0.0322
90779W        W65767   4.343  22.906   0.304 -0.1579 -0.1012 -0.0101
90780W        W65768   5.204  12.524  23.102 -0.1675 -0.1178  0.0550
90781W        W65769  16.227  26.396  15.151  0.0693  0.0526  0.1540
90782W        W65770   1.136  19.849  23.081  0.2736  0.0417 -0.0206
90783W        W65771  33.802  15.970  13.778  0.0471  0.0855  0.1837
90784W        W65772  31.160   0.542  13.618  0.0870  0.2230 -0.1161
90785W        W65773  33.340   6.301  22.483 -0.0628 -0.1216 -0.1246
90786W        W65774   1.246  18.240  22.159 -0.2119  0.1278  0.0200
90787W        W65775   0.870  19.501  25.295 -0.0461 -0.1859 -0.1305
90788W        W65776  27.888   4.828  25.088 -0.0256  0.3074 -0.0520
90789W        W65777  29.910   4.306  13.312  0.0131 -0.0128  0.0236
90790W        W65778   9.259  19.142   4.742 -0.0523 -0.0684  0.0057
90791W        W65779  35.193  18.818  26.195  0.0279  0.0010 -0.5090
90792W        W65780  33.984  31.520   2.773 -0.5456 -0.0196  0.0512
90793W        W65781   9.168   8.096  13.353 -0.0281  0.1868 -0.0884
90794W        W65782  15.579   4.617   3.478  0.0540  0.1162  0.3410
90795W        W65783  18.566  26.913   7.715  0.2525 -0.2021  0.4059
90796W        W65784   1.117  24.904   0.709  0.0243 -0.3058  0.1575
90797W        W65785  22.160   1.141  25.222 -0.1257  0.0038 -0.2767
90798W        W65786   0.548   5.077  13.242 -0.1771 -0.0451  0.0732
90799W        W65787   9.656   1.501   4.987  0.0100 -0.1527 -0.1582
90800W        W65788  15.455  23.567  12.352  0.4209  0.2102 -0.1184
90801W        W65789  10.498   7.178   9.650 -0.0841 -0.2909 -0.2041
90802W        W65790  31.453  24.795   9.016 -0.1423  0.1906  0.0864
90803W        W65791   0.907  26.044  17.742 -0.0978  0.0913  0.0351
90804W        W65792  35.315  27.267  25.003 -0.2458 -0.0171 -0.1632
90805W        W65793  28.765  32.849  23.302 -0.0563  0.1675 -0.0831
90806W        W65794  10.719  32.819   1.811 -0.1649  0.1606  0.2702
90807W        W65795  11.508  32.401   2.038 -0.0885 -0.1756 -0.0365
90808W        W65796  11.797  20.989   2.929 -0.0889 -0.0434  0.2459
90809W        W65797  32.418  27.923  22.881  0.3187 -0.0072 -0.2767
90810W        W65798  17.345   9.773   1.780  0.2794  0.0023  0.0281
90811W        W65799  30.741  10.897  23.739 -0.2181 -0.2041 -0.2283
90812W        W65800  18.943  28.403   8.511 -0.1167 -0.0022  0.0226
90813W        W65801  14.145  23.658  25.020  0.0174 -0.0959 -0.4272
90814W        W65802  31.169  27.121  24.268 -0.3822 -0.0985 -0.0598
90815W        W65803   9.331  26.063   9.005 -0.0770  0.0034 -0.2164
90816W        W65804   9.605  10.472  10.745 -0.0147 -0.0902 -0.0381
90817W        W65805  28.122  33.625   4.098 -0.0378 -0.0037 -0.0395
90818W        W65806  32.168   2.749  11.848 -0.1320  0.0276  0.2055
90819W        W65807  29.202  13.869  10.536  0.0770  0.3121  0.0357
90820W        W65808  16.584  14.990  25.412  0.2671  0.0521  0.3000
90821W        W65809  23.355  25.668   2.740  0.2293 -0.0885  0.2463
90822W        W65810  24.283  28.480  14.786 -0.3803 -0.1307 -0.1404
90823W        W65811   8.774   5.495   0.725  0.4384  0.1629  0.3427
90824W        W65812  28.365  16.730  10.120  0.1997  0.0009 -0.0415
90825W        W65813  29.187  27.682   9.349 -0.4162  0.0915 -0.0213
90826W        W65814  20.320  32.364  23.001 -0.2938  0.2477 -0.3287
90827W        W65815  31.935  25.448  18.692  0.2436 -0.1315 -0.3812
90828W        W65816   2.715  18.178  15.182  0.0501  0.1606 -0.4846
90829W        W65817  11.250  28.546  11.091  0.0788 -0.0664  0.0759
90830W        W65818  25.935  32.038   0.257  0.0278 -0.2047  0.2326
90831W        W65819   6.250  18.109   5.499  0.2092  0.1960  0.1171
90832W        W65820   9.360  18.302  22.561  0.0185 -0.0101  0.0119
90833W        W65821  13.675   5.183   4.295 -0.0424  0.2389  0.0334
90834W        W65822   0.575   6.605  25.040  0.0887  0.0073 -0.1992
90835W        W65823  16.842  17.127  13.301 -0.1802  0.4747 -0.3364
90836W        W65824   5.450  19.488  22.755  0.2535 -0.1474  0.1769
90837W        W65825  28.129   8.860  15.579  0.1564  0.1747  0.2187
90838W        W65826  31.272  25.183  15.278 -0.0887 -0.1591  0.1459
90839W        W65827  18.948  32.932  20.503 -0.0964  0.1538 -0.1282
90840W        W65828  17.158   4.741  16.836  0.0445  0.2948  0.4368
90841W        W65829  19.888  15.711   2.890  0.0427 -0.0730  0.3538
90842W        W65830   3.146   1.540   4.224 -0.2160 -0.3079 -0.0563
90843W        W65831  28.006  18.152  18.237  0.1410  0.0175  0.2603
90844W        W65832   7.757  31.005   2.355  0.1871 -0.2770  0.1383
90845W        W65833  12.928   2.281   2.367 -0.0110  0.0995 -0.1328
90846W        W65834   8.614  28.173   4.391 -0.0017  0.0003  0.1980
90847W        W65835   1.277  12.352  18.711 -0.0028  0.2759  0.0073
90848W        W65836   0.390   4.289  26.061 -0.1535 -0.2389 -0.3626
90849W        W65837  10.314  13.962   0.377 -0.0846  0.0165 -0.1376
90850W        W65838  22.478   6.611  21.428 -0.2772  0.0450  0.1344
90851W        W65839  33.687  28.574  19.786 -0.1179  0.1002  0.0783
90852W        W65840  25.582  22.339  20.974  0.0362  0.0426  0.3452
90853W        W65841   0.538  32.589  19.115  0.1683 -0.3397  0.4365
90854W        W65842   7.259  10.746   3.574 -0.0838 -0.1341 -0.0043
90855W        W65843   7.910  29.659  15.476 -0.0871  0.0448  0.0630
90856W        W65844  30.554   1.897   4.930 -0.1498 -0.1457 -0.0664
90857W        W65845  31.188  22.975  13.800  0.0732 -0.0317  0.0663
90858W        W65846   4.727  13.185   0.622 -0.0235 -0.2776 -0.2432
90859W        W65847  27.205  34.924  20.480 -0.2785  0.1634 -0.0257
90860W        W65848  28.659   6.389  20.397  0.1626  0.2426 -0.2825
90861W        W65849  15.180  35.158   4.110 -0.1685 -0.2121 -0.2142
90862W        W65850  21.817  28.217   7.032 -0.0150 -0.0825  0.0499
90863W        W65851  13.170  14.937  23.669 -0.0508 -0.1299  0.0698
90864W        W65852  28.618  29.513   4.708  0.3612 -0.1907 -0.0253
90865W        W65853  10.877  27.348   7.605 -0.2679  0.2688  0.0424
90866W        W65854   1.104  23.663  20.097  0.1112 -0.0467 -0.2747
90867W        W65855  20.870  10.249   4.634 -0.0018  0.2308 -0.2160
90868W        W65856  14.080  29.835  11.545  0.0920 -0.0611  0.0161
90869W        W65857  11.095  12.300   3.420  0.1058 -0.1350  0.1395
90870W        W65858  22.392  32.812  24.887  0.0280  0.0392  0.0078
90871W        W65859  21.848   1.743  14.502 -0.1766  0.2521 -0.3120
90872W        W65860   2.118  19.142  13.503  0.3317 -0.0140 -0.0760
90873W        W65861  14.758  25.568   7.316 -0.0059 -0.2841 -0.0195
90874W        W65862   6.639  32.905   6.659 -0.0200 -0.0605  0.1906
90875W        W65863  35.272  19.062   8.882 -0.1933  0.0935 -0.2187
90876W        W65864   9.469  34.894  22.842 -0.1992  0.0831 -0.0352
90877W        W65865  26.350  15.196  18.594 -0.0610 -0.1894  0.0656
90878W        W65866  21.195  14.627   2.246  0.1675 -0.1507  0.1369
90879W        W65867   3.333  21.874  24.475  0.0925  0.0099 -0.2790
90880W        W65868  32.712   7.590  10.555 -0.0540 -0.2719  0.2430
90881W        W65869  34.041   0.456  21.486 -0.0081  0.0759 -0.2665
90882W        W65870  27.943  22.142   8.854 -0.1188  0.0057 -0.1837
90883W        W65871   2.606  17.050  19.304  0.2059  0.2842  0.1698
90884W        W65872  34.764  33.572   1.051 -0.0175  0.0391  0.1907
90885W        W65873  11.546  16.166   6.198 -0.0020 -0.2125 -0.1921
90886W        W65874  22.153   0.932  23.263 -0.1855 -0.0284 -0.2258
90887W        W65875  17.710  20.624  19.923  0.2613  0.0442 -0.1177
90888W        W65876  31.947  32.599   1.100 -0.2269 -0.2423  0.3894
90889W        W65877  34.397   0.261   4.443 -0.1834  0.2759  0.3336
90890W        W65878   9.294   9.665  23.748  0.2140  0.0199 -0.0418
90891W        W65879  29.111  12.054  22.338  0.0379 -0.0230 -0.0371
90892W        W65880   2.260  23.759  16.229 -0.0528 -0.1174  0.0569
90893W        W65881   9.076  12.732  11.425 -0.1045  0.2824 -0.3808
90894W        W65882  18.527   9.907  22.255 -0.0009 -0.1331  0.0294
90895W        W65883  15.327  13.658   7.738 -0.1777  0.1129  0.0774
90896W        W65884   2.098  21.272  21.664 -0.0796  0.0400  0.1810
90897W        W65885  17.736   5.183  20.373  0.2313  0.0789  0.0406
90898W        W65886  32.325  17.806  22.033 -0.0657  0.0667  0.0331
90899W        W65887   6.464  28.117  14.209 -0.0623  0.0413 -0.2825
90900W        W65888  14.913   3.080   3.934  0.0074 -0.0767 -0.0298
90901W        W65889  29.594  20.121  25.970  0.0964 -0.1856 -0.0437
90902W        W65890  32.706  22.654  19.452  0.1646 -0.2167  0.2362
90903W        W65891  21.022   3.190  15.299 -0.0603  0.5276  0.0539
90904W        W65892  35.338   8.525  13.760 -0.3488  0.2703  0.1858
90905W        W65893  10.408   4.086   4.166  0.1020 -0.1369  0.1556
90906W        W65894   0.860   6.429  15.567  0.0537 -0.1335  0.0944
90907W        W65895  11.115  16.991  13.742 -0.1548  0.2660  0.0272
90908W        W65896  11.645   6.376  20.706  0.0966  0.3281 -0.2073
90909W        W65897  11.916  11.860   0.028  0.0472 -0.0952 -0.0754
90910W        W65898  14.260  10.846  11.252  0.3852  0.1216 -0.2677
90911W        W65899  27.619  15.979   9.408  0.1970 -0.0162 -0.1398
90912W        W65900  19.788  17.378  10.267 -0.0378 -0.1314  0.0218
90913W        W65901   7.809   7.478   6.387  0.2684 -0.0692 -0.0089
90914W        W65902   1.474   2.780  15.938  0.1940  0.4161  0.1199
90915W        W65903  26.339  21.469  11.396  0.4886  0.0105 -0.0765
90916W        W65904   4.525  16.183  25.308  0.1002 -0.0995  0.1656
90917W        W65905  20.402   0.516  23.045 -0.2984  0.3088 -0.4304
90918W        W65906  30.896  10.468  14.203 -0.1376  0.1421 -0.1262
90919W        W65907  24.260  34.486  23.391 -0.2784  0.1190  0.2146
90920W        W65908  18.096   5.443   0.977 -0.4604  0.3813 -0.0156
90921W        W65909   3.028  30.483  25.739  0.2065 -0.1977 -0.4091
90922W        W65910  15.439   2.966   9.285 -0.1682  0.3343 -0.1413
90923W        W65911  27.715  34.080   2.000  0.2322 -0.2522 -0.1235
90924W        W65912  12.865   9.328   8.133 -0.1286  0.0732  0.3025
90925W        W65913  23.564  21.962  21.427  0.0038 -0.1027 -0.2448
90926W        W65914  29.936   0.920  15.798 -0.1923  0.5292  0.1859
90927W        W65915  18.109   5.648   7.283  0.4321 -0.0113  0.0036
90928W        W65916  15.688  13.709   2.027 -0.2765 -0.3400 -0.1352
90929W        W65917  12.167  13.010   7.506  0.2603 -0.3083  0.3207
90930W        W65918  30.767  24.983  20.546  0.3181 -0.2118 -0.0625
90931W        W65919  10.636  10.947   5.765  0.2814  0.1835  0.1391
90932W        W65920  24.239  17.381  13.475  0.2758 -0.2485 -0.1479
90933W        W65921  18.346   9.114  25.259  0.0647 -0.0220  0.1833
90934W        W65922  34.353  28.102  22.850 -0.5174  0.1633  0.0120
90935W        W65923  16.806  31.549  20.023 -0.2318  0.1544 -0.4300
90936W        W65924  32.170  26.380  14.250  0.0856  0.0545  0.0668
90937W        W65925  22.691   4.456  16.955  0.1763 -0.0399 -0.0645
90938W        W65926   8.220  22.389   3.511  0.0770 -0.4350  0.0280
90939W        W65927   7.187  29.151  11.344 -0.0361 -0.0215  0.2792
90940W        W65928  27.933  10.362   1.064 -0.1248  0.0534  0.0937
90941W        W65929  13.467  16.295  24.002 -0.1070  0.1861 -0.3260
90942W        W65930   7.009   7.496  11.173  0.1108  0.1015  0.3137
90943W        W65931  20.806  28.386  23.818 -0.3201 -0.1640  0.1410
90944W        W65932  10.370  30.383  22.392 -0.2079  0.2061  0.1245
90945W        W65933   9.039  26.876  14.627  0.1327 -0.1772 -0.0786
90946W        W65934   2.994   8.949   4.413  0.1272  0.0705 -0.1326
90947W        W65935  14.675   8.556  11.750  0.2220  0.1495  0.1327
90948W        W65936  23.059  32.287  25.152 -0.1967 -0.1377 -0.2958
90949W        W65937   9.544  33.859  10.062 -0.0789  0.1729  0.0720
90950W        W65938  30.526  33.091  13.596  0.2148  0.1884  0.2092
90951W        W65939   9.243  27.600  16.693  0.1768 -0.2561  0.0013
90952W        W65940   8.854  20.646  11.991  0.1487  0.1658  0.0191
90953W        W65941  34.844  34.048  21.352  0.3108  0.0004 -0.0835
90954W        W65942   7.108   6.929  12.378 -0.3617  0.1262 -0.2980
90955W        W65943  12.971  13.108  13.889  0.0624 -0.2329  0.5074
90956W        W65944   4.470  16.461  22.162 -0.0256  0.1623 -0.1325
90957W        W65945  23.689  20.645  15.666  0.1174 -0.2529 -0.3089
90958W        W65946   7.820  11.741   4.899 -0.1642 -0.1524  0.0146
90959W        W65947  29.619   8.262  16.062 -0.0653  0.3286  0.3402
90960W        W65948  35.150  27.157  23.089 -0.0245  0.1215 -0.1209
90961W        W65949  18.837  34.306   4.763 -0.1201  0.1261 -0.0023
90962W        W65950  30.676   3.532  22.828  0.1986  0.0553  0.1082
90963W        W65951  31.736  12.228   6.752 -0.1937  0.0052  0.0353
90964W        W65952  10.987   8.645  24.586  0.2274  0.0714 -0.2258
90965W        W65953  31.373  16.513  25.679 -0.1404  0.0117  0.0699
90966W        W65954  14.037  32.418   9.987  0.0048 -0.1872  0.1792
90967W        W65955  26.014   8.363  20.874  0.2612  0.0684  0.1317
90968W        W65956  18.596  22.051  20.190 -0.3586 -0.0264 -0.2527
90969W        W65957  34.849  18.521  11.885  0.1626 -0.1486 -0.2634
90970W        W65958  10.175  19.259  14.413  0.1268  0.2388  0.1860
90971W        W65959   1.450  12.396  24.780  0.1619 -0.3694  0.0386
90972W        W65960  24.370   7.687  21.227 -0.0399 -0.1315  0.0455
90973W        W65961  26.674   4.708  14.097  0.0949 -0.0364 -0.1691
90974W        W65962  28.832  12.200   7.573  0.3424 -0.0674 -0.1358
90975W        W65963  16.520   5.152  19.238  0.2847  0.1338  0.3160
90976W        W65964   1.468  14.884  16.417  0.1734 -0.0844  0.0572
90977W        W65965  33.155  32.314  17.136 -0.1329  0.2062  0.0914
90978W        W65966  33.351   7.565  17.298 -0.3144  0.0068 -0.2795
90979W        W65967  16.312  24.790  25.999 -0.0714 -0.1399  0.3290
90980W        W65968  23.911  27.747  24.269 -0.1116 -0.0807  0.0848
90981W        W65969  29.096   7.516  12.198 -0.3779 -0.0795 -0.1176
90982W        W65970   2.518   5.365   6.314 -0.0945  0.1123 -0.1782
90983W        W65971  27.552  24.414  22.499 -0.1299  0.1746  0.1040
90984W        W65972  21.809  21.410  15.193  0.0559 -0.0232  0.1894
90985W        W65973  13.576   5.929   1.647  0.0036 -0.0265  0.3587
90986W        W65974  27.370  14.159  19.994 -0.1676 -0.1221 -0.1913
90987W        W65975   8.857  31.662  11.777 -0.0928  0.3728  0.0936
90988W        W65976   1.896  17.584  25.499  0.0093  0.0562 -0.1011
90989W        W65977   4.185  13.692  23.809  0.0317 -0.1449  0.1336
90990W        W65978  29.888  18.589   7.516 -0.1336 -0.0296 -0.0659
90991W        W65979  34.037  32.029   7.177  0.3161  0.1379  0.1770
90992W        W65980  27.680   3.568  10.357 -0.2015  0.0299  0.1712
90993W        W65981   7.455  21.943   1.792  0.2912  0.0856  0.0344
90994W        W65982  24.595  26.559  23.989  0.1550 -0.0582  0.2007
90995W        W65983   0.978  14.030   0.474  0.2036 -0.3973  0.1615
90996W        W65984  29.535  15.105   4.800  0.5437 -0.0914  0.0336
90997W        W65985  18.888   1.732   5.506 -0.1960  0.0297  0.2630
90998W        W65986  26.744  33.490   5.452  0.1978  0.2664  0.1162
90999W        W65987   8.433  25.553   8.899 -0.2487  0.3551  0.1466
91000W        W65988  17.725  10.432   3.906 -0.1064  0.1887  0.1198
91001W        W65989  28.842  31.980  15.093  0.2632 -0.0306  0.2596
91002W        W65990   4.813  33.252  19.918  0.1388  0.0371 -0.1343
91003W        W65991  16.253   1.411   1.913 -0.0959 -0.2130 -0.2757
91004W        W65992  27.189  18.639  15.617 -0.0001  0.1930  0.1617
91005W        W65993  17.129  17.292  20.558 -0.1863  0.1447 -0.2771
91006W        W65994   5.871  31.918  25.425 -0.0641  0.0188  0.2104
91007W        W65995   2.867  27.970  24.764 -0.2416 -0.2321 -0.0897
91008W        W65996   8.445  14.692  22.058  0.0243  0.0203  0.0506
91009W        W65997  21.931  35.237   5.068 -0.3322  0.0665  0.0495
91010W        W65998   4.715   7.559  19.078 -0.2595 -0.1050  0.1929
91011W        W65999   9.010  17.786  12.271  0.1580  0.1688  0.2423
91012W        W66000  16.567  24.306  23.552 -0.0491  0.0837  0.2868
91013W        W66001   6.445  31.641  20.863  0.2592 -0.3562  0.0048
91014W        W66002  33.070   6.650  22.850  0.3519 -0.1172 -0.1703
91015W        W66003  34.135  14.760  24.843 -0.2121 -0.0703  0.0435
91016W        W66004  30.681   4.462  14.576 -0.1731 -0.3749  0.1287
91017W        W66005  33.826   3.237   4.023  0.2767 -0.1304  0.0553
91018W        W66006  18.000  18.560  24.152  0.2408  0.1818 -0.0595
91019W        W66007  24.834  17.445  19.992  0.0836  0.1044  0.1480
91020W        W66008  31.523  11.949   0.108  0.1807  0.0326  0.2492
91021W        W66009  15.978   8.714   4.748  0.1684  0.0766  0.0340
91022W        W66010  28.602  26.170  12.708  0.1087 -0.2620 -0.1970
91023W        W66011  31.621  19.781  13.981 -0.0283 -0.4067  0.0341
91024W        W66012   3.088  18.773  15.461  0.2362  0.1314  0.1553
91025W        W66013  11.162   0.434  22.996 -0.2639 -0.3601 -0.1068
91026W        W66014   9.416   9.091   5.396 -0.3793 -0.0755 -0.1557
91027W        W66015   9.953  21.044  10.114  0.1054 -0.0838  0.1761
91028W        W66016   0.416  24.419  24.839  0.3562 -0.0158 -0.0077
91029W        W66017   3.118  25.096  23.052  0.0974  0.0808 -0.0015
91030W        W66018   8.485  28.376   5.549  0.1223  0.0537  0.4313
91031W        W66019   7.181  24.773   5.560  0.0402 -0.1924  0.0608
91032W        W66020  20.491  12.375  24.962  0.4475  0.1429 -0.3818
91033W        W66021   7.757   1.426   0.047 -0.4942  0.2866  0.1478
91034W        W66022  12.122   1.365   3.679 -0.0332 -0.1129  0.3004
91035W        W66023  18.558  28.261   2.193 -0.1060  0.1661 -0.2935
91036W        W66024   5.924  30.326   6.354  0.0305 -0.0015 -0.1051
91037W        W66025  13.223  20.544   0.839  0.1168  0.1901 -0.0210
91038W        W66026  14.931  16.433  21.709 -0.1997  0.1832  0.1173
91039W        W66027   3.021  15.853  15.758 -0.0515  0.1857 -0.3058
91040W        W66028   3.393   3.144  20.380 -0.0826  0.2737 -0.2908
91041W        W66029  23.205  19.060  13.134  0.2170 -0.0975  0.1203
91042W        W66030  11.719   1.947  10.589 -0.0970 -0.2014  0.0158
91043W        W66031   7.307  17.503   6.737  0.2665 -0.0720 -0.3162
91044W        W66032  29.203  22.994  22.048  0.0231  0.2862  0.1678
91045W        W66033  33.742  12.657  14.724 -0.0417  0.0507 -0.0198
91046W        W66034   9.540   5.889   8.101 -0.2343  0.0920 -0.0397
91047W        W66035  12.847  10.308   2.301 -0.0973 -0.0087  0.1464
91048W        W66036  24.150  12.358  25.202  0.0523  0.0433  0.1585
91049W        W66037   9.526  17.094  20.450 -0.0809  0.0206  0.2414
91050W        W66038  32.184   1.781   7.161 -0.1647 -0.1659  0.1610
91051W        W66039  28.016  33.814  23.649  0.1084  0.1338 -0.1176
91052W        W66040  31.128  25.624  13.730  0.0238  0.2917  0.0110
91053W        W66041   7.639  24.769  25.688 -0.0030  0.0545  0.1571
91054W        W66042  24.778  23.936  14.756 -0.1034  0.0380  0.2032
91055W        W66043  14.157   7.848  10.446 -0.2177  0.0799 -0.0744
91056W        W66044  13.310  32.487   9.578  0.1701  0.0259  0.0121
91057W        W66045  11.474  17.524  14.401 -0.0536 -0.1296 -0.0005
91058W        W66046  33.777  18.245   7.610  0.4490  0.1201  0.0493
91059W        W66047  11.362   4.936  22.259 -0.0215  0.2476 -0.2699
91060W        W66048  27.960  30.999  24.903 -0.0035  0.4934 -0.1133
91061W        W66049  17.697  11.331  20.278  0.0034 -0.1826  0.1043
91062W        W66050  27.014  31.158  18.542  0.1834  0.0566  0.0512
91063W        W66051   1.118  35.263  16.843  0.2167  0.1254 -0.3798
91064W        W66052  33.918  28.805   2.602 -0.4007 -0.1473  0.0678
91065W        W66053  16.310  13.940  12.860 -0.2412 -0.0548 -0.3029
91066W        W66054  18.813  25.411   9.394 -0.1156  0.3824 -0.0114
91067W        W66055  24.245   9.262  24.895  0.1535  0.0169 -0.2986
91068W        W66056  11.946   7.814   2.014  0.0577 -0.0267 -0.0627
91069W        W66057   9.958  23.545  24.178 -0.0848  0.2664  0.0860
91070W        W66058  18.377  19.584   8.168  0.1962  0.2723  0.2397
91071W        W66059  34.821   9.648  25.427 -0.1466  0.1333 -0.0352
91072W        W66060  34.387  23.544  21.462  0.0782 -0.1510 -0.3754
91073W        W66061   7.196   6.348   1.604  0.1654 -0.0657 -0.0294
91074W        W66062  29.639   0.914  21.371  0.1552 -0.1705  0.0202
91075W        W66063  34.413  23.508  19.243  0.1499  0.3679 -0.0989
91076W        W66064  17.115  22.448  24.600 -0.2369 -0.1264 -0.1777
91077W        W66065  25.922  32.005  13.580  0.0224  0.2640  0.0480
91078W        W66066   0.837  25.213   3.068 -0.1586 -0.0944  0.4918
91079W        W66067  25.489  19.011   9.447  0.1025 -0.1464 -0.4051
91080W        W66068   6.729  32.476  25.038 -0.0563  0.0182 -0.1029
91081W        W66069  21.257   4.499  22.250  0.1919  0.1165 -0.1032
91082W        W66070  14.276  22.803  16.677  0.2196  0.0671 -0.0639
91083W        W66071  17.423  31.953   9.733 -0.0600  0.1346 -0.1333
91084W        W66072   0.502  29.523   3.727 -0.4067 -0.0762 -0.0287
91085W        W66073  19.207  28.435   0.142 -0.0700 -0.0577  0.0771
91086W        W66074   3.385   8.988   0.604 -0.2917  0.2988 -0.2290
91087W        W66075   7.847   4.602   7.108  0.0122 -0.4790  0.1982
91088W        W66076  16.955  21.667  25.102  0.1988 -0.0866 -0.0774
91089W        W66077   3.072  16.216   3.896 -0.1971 -0.2125 -0.2463
91090W        W66078  18.713  15.498   5.415 -0.2135  0.0188  0.1739
91091W        W66079  29.528  20.587  24.338 -0.0788  0.0893 -0.0441
91092W        W66080  29.118  14.746  21.847  0.2017  0.3181  0.0043
91093W        W66081   9.077  31.705   7.944 -0.2306 -0.1965 -0.0768
91094W        W66082  28.694  31.291   2.265  0.0307  0.0722  0.1655
91095W        W66083  24.291   0.937  16.034  0.2921  0.0997  0.0607
91096W        W66084   0.902  28.297  16.910  0.2599  0.0842 -0.0260
91097W        W66085  14.435  12.238  21.416  0.4611 -0.0761  0.0158
91098W        W66086  15.462  17.395   7.875 -0.3463 -0.0423  0.1746
91099W        W66087  33.763  19.264  12.228  0.1145 -0.2001 -0.1798
91100W        W66088  22.064   4.313   3.138  0.1392  0.1534  0.1357
91101W        W66089  15.084   2.669   2.416 -0.1118 -0.0720 -0.2385
91102W        W66090  23.795  27.062  22.373 -0.1512  0.0584 -0.1478
91103W        W66091  31.448  13.676  20.293  0.1056  0.1409 -0.2755
91104W        W66092  20.568   1.813  20.368  0.0089 -0.0657  0.0015
91105W        W66093  24.982  19.301  20.586 -0.1927  0.1054 -0.1013
91106W        W66094  24.248   2.660   3.287  0.2320  0.3698  0.2916
91107W        W66095  19.281  15.621   3.623  0.2133 -0.0218  0.1952
91108W        W66096  29.552   5.889  11.491  0.0291  0.0416 -0.1476
91109W        W66097  24.791  31.586  21.065  0.1087 -0.3070 -0.4688
91110W        W66098  16.611  18.020  11.241  0.1169 -0.0766 -0.0413
91111W        W66099   1.947  19.381  20.734 -0.1525 -0.2644 -0.2432
91112W        W66100  30.874  12.950  18.449 -0.2510 -0.3772 -0.1634
91113W        W66101  33.377  32.617   0.135  0.1714  0.0214  0.2373
91114W        W66102  34.750   9.817  10.807 -0.1875 -0.1489  0.1050
91115W        W66103  27.230  35.384   0.029  0.1567 -0.1208 -0.2505
91116W        W66104  13.732   6.774   8.231 -0.0623 -0.0627 -0.0579
91117W        W66105  11.993  28.837   2.687  0.2309  0.0549  0.2655
91118W        W66106   6.209  25.817   6.438 -0.2247 -0.1919 -0.1586
91119W        W66107  21.679  23.650  19.268  0.0277  0.0594 -0.2579
91120W        W66108  17.802  10.019   1.598  0.0951  0.0017  0.3930
91121W        W66109   9.375  31.713  11.544  0.1231 -0.0929  0.0037
91122W        W66110  19.299  26.979   1.268  0.0159 -0.0813  0.1454
91123W        W66111  27.816  28.812   0.891 -0.0393 -0.1276 -0.1738
91124W        W66112  12.982  17.483   8.972  0.1381 -0.3137  0.1331
91125W        W66113  20.011  27.216   1.093  0.2563  0.0334 -0.1177
91126W        W66114  21.253  30.420  16.048  0.0853 -0.0284 -0.0193
91127W        W66115  31.453  14.779   5.647  0.1882 -0.0208 -0.2068
91128W        W66116  27.995  13.214  19.055 -0.0790  0.3133 -0.0681
91129W        W66117  30.454  27.237   8.680 -0.3593 -0.0335  0.0780
91130W        W66118  22.243  14.400  14.745  0.0465  0.2727 -0.2705
91131W        W66119   5.828  30.574  21.802  0.0942  0.0487  0.1770
91132W        W66120  23.177  33.162  23.430  0.2567  0.0805  0.0910
91133W        W66121  20.351   4.151   3.476 -0.0762 -0.5152 -0.0228
91134W        W66122  27.724  10.659   9.496 -0.0311  0.1198 -0.0743
91135W        W66123  20.290  19.983  20.133 -0.0316  0.2082 -0.2736
91136W        W66124  12.674  32.362   1.341 -0.1686 -0.0630  0.2663
91137W        W66125  27.810   6.184  26.162  0.2505 -0.0502 -0.0601
91138W        W66126  20.156   2.197   2.361 -0.1342 -0.1031  0.0488
91139W        W66127  13.628  27.844   0.494 -0.3546  0.0365  0.2998
91140W        W66128  32.008  29.960   1.542 -0.2090  0.0526  0.0006
91141W        W66129   6.906   9.951   7.780  0.0367  0.0437 -0.1224
91142W        W66130  17.715  30.524  20.411 -0.1715 -0.1397 -0.1494
91143W        W66131  18.561  10.843  19.329  0.0848 -0.0523  0.0088
91144W        W66132  16.882   0.321   0.665 -0.3560 -0.0846  0.1921
91145W        W66133  11.540   4.424  11.489  0.1901 -0.1830  0.4829
91146W        W66134  18.687  20.377   6.014 -0.1682  0.1156  0.1655
91147W        W66135  24.792  17.451  10.869  0.4055 -0.1497  0.0785
91148W        W66136   8.524  14.952   4.586  0.2016  0.0024 -0.2808
91149W        W66137  11.869   9.285  10.338 -0.0188 -0.0019 -0.0317
91150W        W66138   9.030  14.426  25.717 -0.3217  0.1755 -0.0712
91151W        W66139   8.342  16.919   2.877 -0.0533 -0.2224  0.1275
91152W        W66140  33.162   0.706   6.264 -0.1753  0.3393  0.2053
91153W        W66141  14.182   6.517   6.001 -0.0450 -0.0766 -0.1313
91154W        W66142   4.457  26.626  13.003 -0.1198  0.1456  0.0012
91155W        W66143   8.754  24.560   4.780  0.2002 -0.0525 -0.0692
91156W        W66144   5.391   0.684   3.444 -0.3758 -0.1872  0.2675
91157W        W66145   7.725  22.698  23.638 -0.3188  0.0975 -0.0599
91158W        W66146  32.802  30.996  20.113  0.2228 -0.2224  0.0462
91159W        W66147   6.467   2.922  23.666  0.1426 -0.2296  0.2896
91160W        W66148  35.157   8.968  11.603  0.0299  0.1213  0.0967
91161W        W66149  12.217  26.442  22.535 -0.1308 -0.0359 -0.0226
91162W        W66150   4.814   7.063  21.470  0.2235 -0.0005  0.0860
91163W        W66151   0.534  18.744  15.106  0.1983 -0.2457  0.0121
91164W        W66152  10.336  10.075   6.778  0.2395  0.3678 -0.0783
91165W        W66153  16.173   2.354   3.961 -0.0854 -0.1198 -0.1188
91166W        W66154   8.853  19.806   3.530  0.0815 -0.0119 -0.1976
91167W        W66155  33.161   4.299  24.121 -0.3746 -0.2786 -0.1825
91168W        W66156  19.340  35.332   5.924  0.1557  0.3176 -0.1270
91169W        W66157  33.004  29.852   2.047  0.1610 -0.0418  0.1875
91170W        W66158  25.789  35.115   2.687 -0.0890  0.0751  0.4308
91171W        W66159   1.871  16.533  15.696  0.1099 -0.2834 -0.0966
91172W        W66160  31.159   3.224  12.957 -0.0710  0.3045  0.0941
91173W        W66161  13.768   1.449  19.964  0.1556  0.2734  0.2296
91174W        W66162   9.128  21.692   8.906  0.1804  0.3328  0.0059
91175W        W66163  18.462  16.573  11.315  0.2342 -0.0414  0.2346
91176W        W66164  28.829  25.087  25.288  0.2335 -0.0170 -0.0916
91177W        W66165   6.120  16.234  24.784 -0.1806  0.1170 -0.3808
91178W        W66166   4.852   9.314  17.166 -0.1047 -0.0921 -0.0723
91179W        W66167  34.130   9.705   0.156 -0.0532  0.0567  0.0887
91180W        W66168  19.556  35.307   3.696 -0.0314 -0.3009 -0.1435
91181W        W66169  22.404  26.262  25.669 -0.0237  0.0683 -0.2799
91182W        W66170  17.479  17.816   6.441  0.1109 -0.0406 -0.1835
91183W        W66171  23.230  10.835   0.219  0.2305 -0.1792 -0.2672
91184W        W66172  16.471   1.878   4.763 -0.0064 -0.2453  0.0922
91185W        W66173  27.613  17.366   5.360  0.0819  0.0902  0.0462
91186W        W66174  26.544  15.201  16.396  0.1721  0.0114  0.1335
91187W        W66175   1.187   8.211  15.843  0.1117  0.0965 -0.0639
91188W        W66176  32.634  23.457   9.333 -0.2758  0.2876  0.1442
91189W        W66177  24.141  34.996  12.887 -0.2487 -0.1523 -0.0431
91190W        W66178  12.813   0.098  24.566 -0.1581  0.1100  0.0391
91191W        W66179  33.711  20.719  10.444 -0.0228  0.0786 -0.3338
91192W        W66180  18.329  19.229   4.672 -0.0896 -0.0144 -0.0316
91193W        W66181   8.467  12.493   9.014  0.1840  0.0670  0.3022
91194W        W66182  23.188   3.419   6.232 -0.1060 -0.1249 -0.0290
91195W        W66183   6.872  19.163   7.793  0.0912  0.1435  0.0250
91196W        W66184  15.382   9.750  18.131 -0.0781  0.4817 -0.1105
91197W        W66185  34.149   2.538  22.141  0.3183 -0.3464  0.2304
91198W        W66186  22.851   5.516   5.343 -0.1730 -0.4021  0.1224
91199W        W66187   7.984  11.661  12.047 -0.1014 -0.2726  0.0577
91200W        W66188  14.788   0.729   7.005  0.3972  0.0555 -0.0008
91201W        W66189  20.533  34.509  24.439  0.0102  0.0202  0.0255
91202W        W66190  17.709  35.324  17.074  0.1100 -0.4350 -0.0552
91203W        W66191   6.483  24.935  21.253 -0.1131  0.1992  0.0372
91204W        W66192  32.098  19.504  19.750 -0.5920 -0.0999 -0.3393
91205W        W66193  23.319  33.828  18.952 -0.0349  0.1237 -0.1059
91206W        W66194  18.735  29.643   2.680  0.2144  0.2540  0.0611
91207W        W66195  11.172   7.198  20.390 -0.4738  0.0449  0.3057
91208W        W66196  32.666  14.063  24.761  0.1934  0.0616 -0.3479
91209W        W66197  31.421  12.527  21.447 -0.1355  0.2190  0.1458
91210W        W66198   2.958  29.321  20.469  0.0179 -0.0204 -0.1735
91211W        W66199  11.122   9.843   9.518 -0.1285  0.3684  0.3844
91212W        W66200   4.135   8.284  20.596 -0.0556 -0.0936  0.0568
91213W        W66201  25.060  28.199  10.935 -0.2398 -0.0743  0.3082
91214W        W66202   0.223  20.269  11.221  0.1877  0.2030 -0.1649
91215W        W66203  22.589  25.598  22.261  0.0858 -0.0477  0.0059
91216W        W66204   4.271  29.101   7.658  0.0706  0.4551 -0.0466
91217W        W66205  22.159  17.283  19.559  0.2742  0.0838  0.0100
91218W        W66206  29.405  19.335  24.325  0.1869  0.0878 -0.2917
91219W        W66207  32.630  29.232  20.757 -0.1150 -0.0137 -0.2866
91220W        W66208   0.859  31.409   3.057 -0.1958 -0.1020  0.0271
91221W        W66209  22.630  30.881  16.323  0.3872  0.1350 -0.1610
91222W        W66210  35.004  33.412  21.600 -0.2116  0.0870  0.3807
91223W        W66211  30.479  33.711  18.039  0.2500  0.0923 -0.1959
91224W        W66212  24.563  34.184  23.849  0.0605 -0.1420 -0.0880
91225W        W66213   5.825  28.095  14.944 -0.3356  0.2448  0.4203
91226W        W66214   3.704  16.217  20.867 -0.2308 -0.0817  0.3276
91227W        W66215   9.807  17.199   8.793 -0.0038 -0.4619 -0.0675
91228W        W66216  21.212   3.613   0.884 -0.2365  0.0197  0.0600
91229W        W66217  34.478  19.268   9.412 -0.1382  0.2550  0.0023
91230W        W66218  24.654  27.821   0.841 -0.0002 -0.0261  0.1975
91231W        W66219  11.211  12.462   6.298  0.2780 -0.2767  0.3763
91232W        W66220  12.582  26.066   2.138 -0.2494 -0.1423  0.0415
91233W        W66221  21.039   7.643   9.425  0.1930 -0.3075  0.2535
91234W        W66222  29.347  18.552  14.402  0.1012 -0.2850  0.3894
91235W        W66223  10.304  16.706  24.114  0.1894  0.2144 -0.1195
91236W        W66224  27.073  28.620  10.345  0.1773  0.2081 -0.1301
91237W        W66225  10.086   3.213   0.540  0.0340 -0.0885 -0.3926
91238W        W66226  12.766  15.726   0.745 -0.1163  0.0654  0.2545
91239W        W66227  29.120  14.322   8.561  0.1085  0.4234 -0.3193
91240W        W66228  22.743   4.205  14.897  0.0727  0.3335 -0.2499
91241W        W66229   4.666   8.009   0.143 -0.1859 -0.2054  0.1987
91242W        W66230  12.478  22.035   7.505  0.0169  0.1916 -0.3034
91243W        W66231   9.884  28.192  10.241 -0.0686 -0.0180  0.2653
91244W        W66232  13.862  26.598   8.262 -0.0397  0.0324  0.3016
91245W        W66233   7.083   0.952   5.434 -0.1668  0.2527 -0.0063
91246W        W66234  14.112   0.496  25.986 -0.5222  0.2444  0.2546
91247W        W66235   1.963  18.218  15.581 -0.2172  0.1447  0.0744
91248W        W66236  22.125  33.151  21.042  0.0412 -0.0735 -0.0328
91249W        W66237   3.307  28.558   7.682  0.0195 -0.0907  0.0621
91250W        W66238  33.196  10.001  13.893  0.2515  0.0862  0.3115
91251W        W66239   1.663  19.612  14.940 -0.0508 -0.3576  0.0487
91252W        W66240  16.778   0.860  21.771 -0.1393  0.2087  0.1803
91253W        W66241  32.557  10.797  25.192  0.0405  0.0344 -0.1094
91254W        W66242   3.911   0.434  12.304  0.0343  0.4979 -0.2422
91255W        W66243  19.488  31.610   6.081 -0.1358  0.2432  0.2057
91256W        W66244  28.282  24.892   9.838 -0.1495  0.0332 -0.2170
91257W        W66245   6.613  33.304  21.128  0.0047  0.0143  0.3193
91258W        W66246  14.232  23.665  14.399 -0.2381  0.2350 -0.2309
91259W        W66247   0.582   6.393  16.583 -0.1012  0.2415 -0.2193
91260W        W66248  12.388   5.673   9.003  0.0048 -0.3407 -0.0274
91261W        W66249  25.000  28.957  10.670  0.3309  0.2688  0.2277
91262W        W66250   5.274   4.642  19.270  0.1847  0.0968  0.1886
91263W        W66251   5.184  34.135   1.772  0.1417  0.2344  0.2226
91264W        W66252  19.444  12.344   5.853 -0.0588 -0.0130 -0.1311
91265W        W66253   0.975   4.889   1.673  0.0343 -0.0977 -0.0401
91266W        W66254  29.578   6.177  13.545  0.2023  0.1610 -0.1523
91267W        W66255   1.120   1.982   7.457  0.0458  0.0381 -0.1835
91268W        W66256   1.239  16.572  25.726  0.1658 -0.0234  0.3602
91269W        W66257  35.025  32.316  20.016  0.2169 -0.1503  0.1922
91270W        W66258  30.325  21.976  18.406 -0.0326  0.0229  0.5976
91271W        W66259  25.753   2.326  15.403 -0.1213  0.1165 -0.3293
91272W        W66260   4.872   9.980   1.872  0.3202  0.1034  0.0267
91273W        W66261   4.362   0.429   0.181 -0.0092  0.2602  0.3666
91274W        W66262  13.419   5.502  13.243 -0.0324 -0.1171 -0.0861
91275W        W66263  27.845  21.525  24.058 -0.2383 -0.0752  0.1914
91276W        W66264  18.027  17.583  25.740  0.4099 -0.2770 -0.0880
91277W        W66265   7.172   7.519   5.101 -0.0914  0.0819 -0.2182
91278W        W66266   5.570  27.380   3.770 -0.0940 -0.2624 -0.1455
91279W        W66267   8.652  31.505  15.524 -0.1793  0.0529  0.1152
91280W        W66268   4.946  34.958   3.818 -0.0957  0.1615  0.2891
91281W        W66269  25.802  34.082  17.917 -0.0473 -0.2268 -0.0627
91282W        W66270   0.557  12.445  11.106  0.1417  0.1928 -0.0791
91283W        W66271  30.277   8.609  18.300 -0.0475 -0.0097 -0.0583
91284W        W66272  22.286  16.965  23.845  0.0355 -0.0731 -0.0532
91285W        W66273   5.277  31.762   4.306 -0.0886 -0.1867 -0.2535
91286W        W66274  34.409  15.126  24.603  0.1749  0.3437 -0.1245
91287W        W66275  19.099  14.935  24.282 -0.1131 -0.0550 -0.2343
91288W        W66276  16.308  23.983   1.525  0.1096  0.0627 -0.1337
91289W        W66277  26.513  16.211  11.674 -0.0600  0.3196 -0.1755
91290W        W66278   6.857  10.189  18.082 -0.1302  0.0144 -0.0407
91291W        W66279  19.080  14.771  17.945  0.1272 -0.1831  0.0876
91292W        W66280  22.747  34.206  22.746 -0.0462  0.0296  0.2046
91293W        W66281   4.086  13.681   5.126  0.3221 -0.1747 -0.3206
91294W        W66282  31.273   2.746  24.236  0.0918 -0.0194  0.1304
91295W        W66283  10.789  22.380  22.537  0.4970  0.2355 -0.0446
91296W        W66284   7.377  34.358  23.221  0.2157 -0.0673 -0.0230
91297W        W66285  30.814  15.765   6.984 -0.0888  0.0251 -0.2222
91298W        W66286   2.643  10.742   4.384 -0.1454 -0.3114 -0.0411
91299W        W66287  30.240  20.307  11.373 -0.1236 -0.0985 -0.2890
91300W        W66288  28.622   8.169  16.815  0.2112  0.1461  0.0953
91301W        W66289  24.888  17.330  16.731 -0.0103 -0.3322 -0.0367
91302W        W66290   3.170  30.102   2.904  0.0064 -0.0181  0.0305
91303W        W66291   1.404  13.780  18.956  0.0095  0.0858  0.0679
91304W        W66292   9.871  19.980  14.523  0.0438  0.1072  0.2290
91305W        W66293  33.215  19.113  15.703  0.1967  0.4628  0.2574
91306W        W66294  30.728  21.953  11.596 -0.2635 -0.1204  0.1872
91307W        W66295   7.063   8.319  23.861 -0.0282 -0.2921  0.3128
91308W        W66296  27.624  19.828   4.850  0.3633  0.1900 -0.0465
91309W        W66297  10.738  18.071  12.954  0.1475 -0.0897 -0.2639
91310W        W66298   9.856  15.688   9.618  0.0210  0.2470  0.1346
91311W        W66299  22.405   0.295   1.378 -0.0458 -0.1365  0.2157
91312W        W66300  18.837   1.248  18.677 -0.0790  0.3265  0.2960
91313W        W66301   7.628  18.092  12.016 -0.1011 -0.0983 -0.0675
91314W        W66302  21.515   0.786   4.946  0.1108  0.0499 -0.0622
91315W        W66303  33.962   0.618  23.565  0.1398 -0.2317 -0.1677
91316W        W66304  15.034  25.395  23.340 -0.2076  0.0841 -0.2367
91317W        W66305  17.768   1.070   2.104  0.1731 -0.3377 -0.0188
91318W        W66306   3.651  18.518  24.555 -0.1895 -0.1013  0.0977
91319W        W66307   6.148  28.590   8.455 -0.0517  0.0676 -0.0760
91320W        W66308  29.366   0.683  18.265 -0.1355 -0.0476 -0.0925
91321W        W66309   7.356  17.404   7.698 -0.0497  0.4961 -0.3167
91322W        W66310  34.827   0.765   5.838  0.0472 -0.0162 -0.1540
91323W        W66311  22.541  30.828   1.661  0.0230 -0.0882  0.2748
91324W        W66312  34.068  34.339  22.096 -0.0530  0.5275 -0.0392
91325W        W66313  19.550  30.543  16.094 -0.3264 -0.2111 -0.1043
91326W        W66314  18.802   7.014  21.310 -0.0753  0.0144 -0.4758
91327W        W66315  34.379  11.670  25.053  0.0388  0.2429 -0.1358
91328W        W66316   9.158  32.716   2.218  0.1633 -0.1115 -0.0862
91329W        W66317  26.888  32.600  17.723  0.0574  0.0218  0.1779
91330W        W66318   5.419   4.272  24.480  0.2431 -0.0032 -0.1327
91331W        W66319  30.414  15.202  12.754  0.3584  0.2846 -0.2000
91332W        W66320  11.447   5.779  12.772 -0.2544  0.0782  0.0117
91333W        W66321  16.594   9.525  11.343 -0.2907  0.2391  0.3132
91334W        W66322  21.521  21.114  24.725 -0.0855 -0.0077 -0.1746
91335W        W66323  10.545   6.174  12.574 -0.1207  0.1211 -0.4333
91336W        W66324  31.254  27.794   3.798  0.1826 -0.0582  0.0254
91337W        W66325   4.766  11.139   1.044 -0.0779 -0.2112 -0.2642
91338W        W66326  34.767  28.387   1.386 -0.1601  0.0689 -0.4470
91339W        W66327  29.497  28.347  16.742 -0.3214  0.0182  0.3118
91340W        W66328  34.676  22.208  21.267 -0.0042  0.0693 -0.0490
91341W        W66329  23.251   0.339  25.011 -0.2158 -0.0618  0.1308
91342W        W66330  19.452  16.007   6.982 -0.0840  0.2902 -0.5876
91343W        W66331  27.862  23.421   8.907 -0.3149 -0.1348 -0.2872
91344W        W66332  19.499  25.073   6.284 -0.0808  0.2659  0.0816
91345W        W66333  19.168  21.422  10.358 -0.0837 -0.1077  0.1323
91346W        W66334   0.263  12.210  26.035 -0.0102  0.0628 -0.0875
91347W        W66335   4.981  23.820   1.268 -0.0535 -0.0425  0.0056
91348W        W66336  27.402  21.714  10.475  0.2240  0.1267  0.1101
91349W        W66337  10.669  28.057   0.052 -0.0334 -0.0143 -0.2086
91350W        W66338  30.147   2.147   1.551  0.1573  0.1051 -0.1030
91351W        W66339   9.715   4.755   0.065  0.0396  0.0566  0.1459
91352W        W66340  31.930  13.879  13.283 -0.0163 -0.0781 -0.3954
91353W        W66341  30.475  35.231  21.837  0.0981  0.0727 -0.2906
91354W        W66342  33.940   2.543   0.474 -0.0399  0.4084 -0.0017
91355W        W66343  33.141  10.803  18.030 -0.1644  0.4584  0.3678
91356W        W66344  32.284   3.582  23.236 -0.0295 -0.2374  0.4824
91357W        W66345   7.953   5.096  21.764 -0.2177  0.1680 -0.1634
91358W        W66346  30.854  19.946  25.511  0.2333  0.1195 -0.1482
91359W        W66347  34.456  31.462  17.225 -0.1689  0.1505 -0.1318
91360W        W66348  22.191   3.203  15.714  0.0118  0.0065 -0.0008
91361W        W66349   7.696  10.001  22.173 -0.0440  0.0470  0.1337
91362W        W66350  21.109  28.155  24.459 -0.0495  0.0806 -0.2237
91363W        W66351   7.847   4.448  22.022  0.1865 -0.3191  0.0905
91364W        W66352  30.985  20.767  19.808 -0.1397  0.5830 -0.1710
91365W        W66353  29.752  34.294  21.872 -0.3469  0.2941  0.1568
91366W        W66354  13.376  18.537  22.837 -0.2253  0.2612 -0.1146
91367W        W66355  13.631  24.567  11.156  0.0562  0.0691 -0.1914
91368W        W66356   3.537  20.358  24.303 -0.0470  0.1190  0.0450
91369W        W66357   3.496  20.471  17.679  0.0698 -0.2485 -0.1262
91370W        W66358   2.549  13.196  20.399  0.3311 -0.1402  0.1146
91371W        W66359  35.329  34.877   7.370  0.1661 -0.0606  0.1334
91372W        W66360  29.688  30.814  14.113  0.0478  0.2194  0.3049
91373W        W66361   2.782   5.559  20.459 -0.0410  0.3677 -0.4550
91374W        W66362   4.645  11.676  15.826  0.3327 -0.0918 -0.3437
91375W        W66363   1.654  12.666  21.199 -0.1027 -0.2194  0.1008
91376W        W66364  34.581   2.811  20.021  0.0295 -0.0667 -0.1079
91377W        W66365  25.824   2.170  13.419  0.0536  0.1975  0.0124
91378W        W66366  12.855  25.386  25.628 -0.1664  0.0705 -0.4094
91379W        W66367  32.638  33.671   3.086 -0.1611  0.1278 -0.1650
91380W        W66368   1.848   5.739  25.640  0.1189  0.2743  0.0146
91381W        W66369   0.264  24.972  23.054  0.4255 -0.0399 -0.2981
91382W        W66370  17.694  11.734   6.295 -0.0074 -0.3006  0.1513
91383W        W66371   3.355  21.701   4.323 -0.2412  0.1401 -0.2208
91384W        W66372  28.937  11.685  10.509 -0.3564 -0.0606 -0.0637
91385W        W66373  29.986  12.822  20.193 -0.2036 -0.1686 -0.1130
91386W        W66374   3.018   0.177   9.584 -0.1549  0.1861 -0.1391
91387W        W66375  12.417   6.161   8.620 -0.0705 -0.2334  0.1886
91388W        W66376  23.278  10.919  19.467  0.2486  0.2019 -0.0581
91389W        W66377  11.942  13.314   1.072 -0.1083  0.2748 -0.0153
91390W        W66378   7.709   8.226  22.801 -0.0961  0.1642  0.2123
91391W        W66379  27.537  23.389  17.870 -0.3192  0.0653  0.0166
91392W        W66380  22.054  35.305  22.803 -0.0393 -0.2081 -0.0074
91393W        W66381  21.284  28.882  17.055  0.1546 -0.0710  0.0758
91394W        W66382   0.231  34.064   6.758 -0.0625  0.0566  0.0600
91395W        W66383   8.038  32.777  15.609 -0.0110  0.0269  0.0644
91396W        W66384  26.784  11.206  11.488  0.1052  0.3762 -0.1113
91397W        W66385  15.639   2.728   9.827  0.1056 -0.0715  0.2763
91398W        W66386  19.847  32.891  14.583 -0.0059  0.1069 -0.2606
91399W        W66387  33.742  33.514  17.376 -0.2009 -0.0462 -0.4494
91400W        W66388  17.686  32.517   2.242 -0.1641  0.1943  0.1986
91401W        W66389   1.072  31.058  21.383 -0.1250  0.0466 -0.0351
91402W        W66390   8.112   0.926   8.588  0.0804  0.0404 -0.1580
91403W        W66391  12.943  26.511   1.207 -0.1977 -0.0613  0.1678
91404W        W66392   4.434  28.571  21.128 -0.0005  0.0780  0.1106
91405W        W66393   9.821  30.473  13.448 -0.0939 -0.0509 -0.1203
91406W        W66394   9.300  26.828  22.966  0.2518 -0.0334 -0.3261
91407W        W66395  20.236  34.248  24.739  0.3660  0.3027  0.0241
91408W        W66396   1.517   0.035  17.708 -0.1411  0.1860  0.1168
91409W        W66397  15.896  31.890   4.025 -0.1023  0.1429  0.0343
91410W        W66398  13.018  28.448  22.680 -0.2137  0.1969 -0.3733
91411W        W66399  12.659  30.789   6.978  0.2142 -0.0952 -0.2341
91412W        W66400   7.950  14.745   0.245  0.1429  0.0430  0.0300
91413W        W66401  10.014  23.787  14.303  0.1442 -0.0286  0.0499
91414W        W66402  33.539  19.225  13.740  0.0358 -0.2524 -0.2093
91415W        W66403   6.345   6.941  24.976  0.4007 -0.2360  0.1095
91416W        W66404  18.566  17.120  19.084 -0.1522  0.1978 -0.1069
91417W        W66405  23.492  26.761  12.110 -0.1978 -0.1854  0.0923
91418W        W66406   6.885   0.203  21.894 -0.2158  0.0993 -0.0556
91419W        W66407  23.411  21.611  18.344  0.1556 -0.1979  0.0698
91420W        W66408   4.391  11.024  19.251  0.2047  0.0365  0.3525
91421W        W66409  27.251   5.365  19.456  0.0153 -0.0205  0.0463
91422W        W66410  25.332  15.105   9.401  0.3683 -0.1252 -0.0151
91423W        W66411  29.580  12.418   5.015 -0.1789 -0.1944 -0.0211
91424W        W66412   5.765  27.800   1.572  0.3326  0.1879 -0.0725
91425W        W66413  22.976  32.569   6.014 -0.0044 -0.1407 -0.1172
91426W        W66414  29.613  17.621  10.272  0.0600  0.1682 -0.1321
91427W        W66415  17.277   1.736  25.228  0.0076  0.0661 -0.0337
91428W        W66416  17.029  14.493   3.450  0.0027 -0.1635 -0.0639
91429W        W66417   7.857  19.195  25.613  0.2027 -0.1980  0.0794
91430W        W66418  27.154   5.702   2.326  0.1300 -0.2084 -0.0097
91431W        W66419  15.256  24.297  11.813 -0.0397  0.0050 -0.0927
91432W        W66420  10.208   5.621  11.398  0.0763  0.2182 -0.0934
91433W        W66421  10.574  11.902   4.764  0.4247 -0.0774  0.1961
91434W        W66422  16.068  27.309   2.287 -0.0630 -0.4302  0.0848
91435W        W66423  30.541  27.168  19.319 -0.0922  0.2452  0.0645
91436W        W66424   3.557  26.704   4.126 -0.1002 -0.1825  0.3522
91437W        W66425  21.171  23.951   1.598 -0.1406  0.0735 -0.0248
91438W        W66426  15.107  16.060   4.036  0.1728 -0.1109  0.1667
91439W        W66427   5.750  25.706  23.806 -0.2285  0.1165  0.0501
91440W        W66428  22.305  33.930  18.794 -0.1053  0.3887  0.0710
91441W        W66429   5.724  11.190  25.850 -0.1855 -0.1644  0.3791
91442W        W66430  33.615   7.193   2.784 -0.1727  0.2796  0.0410
91443W        W66431  31.706   3.043  13.769  0.2431  0.0055 -0.1794
91444W        W66432  30.462  12.345   9.106 -0.0705  0.4235 -0.0676
91445W        W66433   9.109  27.433   9.513  0.1921  0.2587 -0.0842
91446W        W66434  27.260   5.922   2.789  0.1062 -0.0739  0.2332
91447W        W66435   6.081  18.818   5.243 -0.3279  0.1985 -0.0646
91448W        W66436   6.959  27.976   7.439  0.3125  0.3005 -0.0067
91449W        W66437  16.957  10.797   5.967 -0.0518  0.2201  0.0033
91450W        W66438  14.749   1.974   8.633  0.1640  0.0511 -0.1110
91451W        W66439   9.462  23.592  13.293 -0.3160  0.0677 -0.0995
91452W        W66440   4.264   7.966  24.093  0.0882 -0.0961 -0.0697
91453W        W66441  16.600  16.957  19.225  0.1000 -0.3459  0.1223
91454W        W66442  13.283  14.253  10.640 -0.0420 -0.0275  0.0012
91455W        W66443   6.583  21.567   5.632 -0.2034 -0.2743 -0.1510
91456W        W66444   3.033  29.084   9.405  0.2363  0.1359  0.1097
91457W        W66445  26.040   3.899  11.922 -0.0348 -0.2117  0.1999
91458W        W66446   0.006   9.304  17.895  0.1605  0.1397  0.1518
91459W        W66447  35.005  33.256  18.572 -0.0159  0.1943  0.0794
91460W        W66448   9.016   5.207   7.563  0.0072 -0.3356 -0.0407
91461W        W66449  30.644  13.889  14.446 -0.2234 -0.1677 -0.1335
91462W        W66450  32.277   1.129  23.372 -0.0158 -0.1393  0.1554
91463W        W66451  10.085   5.147   3.149 -0.2386  0.2040  0.0654
91464W        W66452  21.786   6.757   0.611 -0.2225 -0.0204  0.2769
91465W        W66453  12.136   3.143   2.972 -0.2444 -0.1992 -0.0223
91466W        W66454  32.432  15.447  24.580  0.0564  0.0499 -0.1929
91467W        W66455   8.634  32.275   2.699  0.0167 -0.5487  0.2303
91468W        W66456   3.270   5.915  16.078  0.0918  0.1176  0.1198
91469W        W66457  34.292   4.058  25.820  0.0187 -0.1704 -0.3663
91470W        W66458  15.568  12.064   5.500 -0.0835 -0.2969 -0.2861
91471W        W66459   5.249   3.431   2.786  0.1203 -0.1023  0.2068
91472W        W66460  12.476   5.588  25.935 -0.1705 -0.4422  0.2673
91473W        W66461  10.071  15.073  23.777  0.0026  0.0663  0.2279
91474W        W66462   0.203   3.781  18.370 -0.2462  0.0980 -0.3640
91475W        W66463   4.358  13.984  22.408 -0.5681 -0.1326 -0.2851
91476W        W66464   4.117  16.576  21.125  0.1735 -0.1010  0.1945
91477W        W66465  11.423   8.213   7.848  0.0059  0.1851 -0.0761
91478W        W66466  31.140   4.385   0.114  0.0002  0.0162 -0.4333
91479W        W66467  32.011  22.082  13.129  0.1274  0.0739 -0.1112
91480W        W66468   7.314   3.419   7.144  0.0541  0.1542  0.2981
91481W        W66469  33.018  21.008   6.412 -0.1411 -0.1596 -0.0594
91482W        W66470  23.219  34.719   3.939 -0.3440  0.0289 -0.2127
91483W        W66471  13.352  32.439  15.600  0.0612 -0.1079  0.1497
91484W        W66472  24.871  34.437  10.471 -0.2977 -0.1464  0.2517
91485W        W66473  21.541   7.696  21.328 -0.0018  0.0588  0.0433
91486W        W66474  19.299   2.110   3.999  0.3063 -0.0454 -0.0724
91487W        W66475  16.970  29.126  24.821 -0.0738 -0.0417 -0.0083
91488W        W66476  17.970  20.157  23.328  0.2313 -0.1760 -0.2611
91489W        W66477  15.780  13.099  25.764  0.1489 -0.0571  0.0679
91490W        W66478   3.194  21.994  21.779 -0.1212  0.0097 -0.0941
91491W        W66479  19.785  22.495   7.637 -0.0498  0.2204 -0.4058
91492W        W66480  14.953  27.125   4.834  0.2426 -0.0819 -0.2166
91493W        W66481  32.523  27.931  14.319 -0.1485  0.3196  0.0861
91494W        W66482   3.627  22.186  20.957  0.0996  0.0382  0.1110
91495W        W66483   6.416  19.259   4.770 -0.0731  0.0359  0.0348
91496W        W66484   3.066  22.996   1.108  0.3332  0.0057  0.2694
91497W        W66485  18.185   7.960   7.080  0.2396  0.2675  0.1511
91498W        W66486   6.307  34.384   9.094  0.0634 -0.2101 -0.1370
91499W        W66487  16.097  33.728   0.409 -0.0549  0.0292 -0.0370
91500W        W66488  30.617  33.721   2.853  0.3216 -0.2983 -0.1856
91501W        W66489  23.713  22.960  24.998  0.3193 -0.0597 -0.1413
91502W        W66490  23.608  35.336  24.960  0.2078 -0.1154  0.1342
91503W        W66491  31.162   9.026  18.677 -0.0287 -0.0360  0.1628
91504W        W66492  15.848  27.210  10.101  0.3830  0.0535  0.3410
91505W        W66493  29.546   3.990  20.720 -0.0898 -0.4188  0.0042
91506W        W66494  25.302   7.611  15.848 -0.3784 -0.2055  0.2845
91507W        W66495   7.711  10.911   7.821 -0.0633  0.0877  0.1899
91508W        W66496  13.793  17.006   2.932 -0.2851  0.2203 -0.2209
91509W        W66497  18.102   7.190   1.800  0.1199 -0.2565  0.2212
91510W        W66498  33.989  20.210  22.670 -0.1948  0.0976  0.1154
91511W        W66499  10.340  28.705   1.891  0.2207 -0.0299 -0.1777
91512W        W66500  30.771  20.302   9.232  0.0186  0.3237  0.1563
91513W        W66501   7.414  34.834   7.871  0.1136  0.1243  0.3392
91514W        W66502   2.072   9.012  16.230 -0.0242 -0.1718 -0.0196
91515W        W66503  26.805   0.129  23.447  0.0474 -0.0382 -0.2663
91516W        W66504   5.752  30.283   8.286 -0.1653 -0.2521  0.2433
91517W        W66505  26.077  19.751  13.583  0.1858 -0.0827  0.2348
91518W        W66506  18.664  11.364   9.942  0.0441 -0.0352 -0.2245
91519W        W66507  13.565   3.752   3.060  0.1988  0.1845  0.1789
91520W        W66508  22.687   4.310   6.697  0.2007  0.0634 -0.3245
91521W        W66509  31.551   3.741  21.522 -0.2311  0.2316 -0.2488
91522W        W66510   4.849   1.397   9.276 -0.2339 -0.3949 -0.1097
91523W        W66511  25.183  28.282   1.878  0.0733  0.3966  0.0574
91524W        W66512   7.077   1.347   9.232 -0.0412 -0.0265 -0.0093
91525W        W66513  14.839  27.789   0.091  0.0736 -0.0271  0.2212
91526W        W66514   9.380  13.533  26.033 -0.0469  0.0057 -0.0162
91527W        W66515  29.380   3.620  23.760 -0.2966 -0.0894  0.0452
91528W        W66516   4.183  20.011   0.671  0.1548  0.1942  0.3108
91529W        W66517  18.118   5.143   7.236 -0.0555  0.2826 -0.2401
91530W        W66518  31.350  21.736   6.261  0.1126  0.1762  0.0866
91531W        W66519  26.885   2.289  13.128  0.0737 -0.0451  0.3217
91532W        W66520  33.187  18.229  10.716 -0.2834 -0.0054 -0.0622
91533W        W66521  29.374  34.791  14.582  0.0598  0.3001  0.0168
91534W        W66522   0.412  21.570   0.958  0.0844 -0.0890  0.1000
91535W        W66523  20.186  21.660  24.386  0.0858  0.2474 -0.0668
91536W        W66524  12.431   2.094   3.551  0.1079 -0.1548  0.0796
91537W        W66525  18.300  32.015  26.040 -0.0463  0.1428  0.0184
91538W        W66526   2.429   7.488  15.339  0.3162  0.1280 -0.0235
91539W        W66527   5.389   3.437   2.161  0.1812  0.3335  0.4527
91540W        W66528   4.521  19.949  26.018 -0.1650  0.0597  0.0177
91541W        W66529   0.759  10.277  25.439  0.0386 -0.0076  0.1974
91542W        W66530  12.926  19.993   5.506 -0.0163  0.2834  0.1623
91543W        W66531  20.411  23.323  19.002 -0.0420 -0.2820  0.0472
91544W        W66532  11.970   4.256   5.919  0.1982 -0.0143 -0.0335
91545W        W66533  25.305  33.452   5.724  0.1874 -0.4084  0.0289
91546W        W66534   4.723  13.967  17.326 -0.1764 -0.0693 -0.1238
91547W        W66535  29.194  19.844  23.753  0.1550  0.0409 -0.1029
91548W        W66536  33.368   8.643  13.700 -0.0242 -0.0317 -0.3993
91549W        W66537  13.733   9.011   7.720  0.3972  0.2464  0.0724
91550W        W66538  26.410  30.156   4.354  0.2574  0.1700 -0.2895
91551W        W66539  12.879   3.415   2.941 -0.2364 -0.2256  0.2558
91552W        W66540   7.685  12.279   2.267 -0.1450 -0.3083 -0.0693
91553W        W66541   5.778  17.518   0.343 -0.0419 -0.1614  0.1092
91554W        W66542   4.572   8.869  25.193  0.1140 -0.1192 -0.0804
91555W        W66543  26.893   4.456   0.385 -0.0068  0.4072  0.1963
91556W        W66544  28.611  19.106  16.587 -0.0735 -0.0997  0.2259
91557W        W66545  28.523  18.320  13.599  0.2081 -0.1903  0.0901
91558W        W66546   9.652  30.511  10.219 -0.0856  0.0894 -0.1213
91559W        W66547   7.635   4.374   5.652  0.0493  0.1816  0.0239
91560W        W66548   9.358  26.205  15.254 -0.2440 -0.0216  0.2188
91561W        W66549   6.070  26.363   3.085  0.0634  0.1416 -0.2731
91562W        W66550  28.207  33.240  10.106  0.0106  0.1387  0.0747
91563W        W66551   4.521   6.338   4.992 -0.0498  0.0837  0.0658
91564W        W66552  32.551  17.524  21.655  0.0137  0.1482 -0.0496
91565W        W66553  23.496   4.513   3.627 -0.1277  0.0126 -0.0517
91566W        W66554  19.322   3.069  16.701  0.0397 -0.1792 -0.1250
91567W        W66555  26.629  31.876  15.746 -0.0746 -0.0553  0.1563
91568W        W66556  35.293  16.576  15.069  0.2569  0.0900  0.1770
91569W        W66557  34.798   3.226   1.655 -0.0876  0.2014 -0.1571
91570W        W66558   6.835  32.175   0.989 -0.2634 -0.3153  0.2225
91571W        W66559  17.039  25.585   3.329  0.1455 -0.1269 -0.1978
91572W        W66560  33.542  22.418  21.074 -0.0311 -0.0190  0.1003
91573W        W66561   0.419  16.637  16.391 -0.1319 -0.1502 -0.1434
91574W        W66562  31.860  30.526  25.580 -0.3102  0.1248 -0.0213
91575W        W66563   1.982   2.653  16.817 -0.2095  0.2728  0.1664
91576W        W66564  16.827  33.518   2.025 -0.1558 -0.0515 -0.0422
91577W        W66565   1.304  25.813   0.799  0.0746 -0.0241  0.0532
91578W        W66566  33.552  20.678  18.921  0.0023 -0.0836 -0.2889
91579W        W66567  19.231   4.299   5.211 -0.1049 -0.2192  0.1171
91580W        W66568   9.636  18.372  20.832 -0.0627  0.1335  0.0253
91581W        W66569  27.059   4.984   3.921 -0.0134  0.2021  0.0873
91582W        W66570  27.443  23.637  18.413  0.1416 -0.2067 -0.3366
91583W        W66571  27.882  32.867   1.600  0.0865  0.0231  0.0717
91584W        W66572   8.801  18.358   9.100  0.2254 -0.1412  0.0596
91585W        W66573  21.414  24.422   4.230  0.0570  0.1024  0.0441
91586W        W66574  28.363   9.345  13.458 -0.2846  0.0409  0.0778
91587W        W66575  19.004  23.755  19.988  0.1249 -0.2400  0.0698
91588W        W66576   5.844  11.485   6.028 -0.1732  0.0589 -0.3138
91589W        W66577  29.979  17.468  25.266 -0.0028  0.3161  0.0412
91590W        W66578  10.367  10.741  24.799  0.0246  0.0920 -0.3677
91591W        W66579  18.686  32.673  21.412 -0.3728  0.0053 -0.2076
91592W        W66580  13.799  22.891   6.000 -0.1284  0.3085 -0.0190
91593W        W66581  19.084  16.366   1.870  0.2611 -0.2106 -0.0357
91594W        W66582  14.338  24.402   5.821 -0.0494 -0.1186  0.1750
91595W        W66583  22.162  16.831  21.030  0.0428 -0.1141 -0.1318
91596W        W66584  11.516   8.801   2.988 -0.0444 -0.2238 -0.2053
91597W        W66585  15.302  21.975  14.181 -0.0783  0.0810  0.1599
91598W        W66586  14.820  22.297   7.621 -0.2172 -0.1131 -0.2347
91599W        W66587   0.023  22.064  15.534 -0.1260 -0.2258  0.0684
91600W        W66588   4.414  17.425   1.764  0.1253  0.4260  0.0667
91601W        W66589  27.666   8.649  19.595  0.0422  0.1084 -0.0326
91602W        W66590   9.969  20.086  10.298 -0.0537 -0.1728  0.0816
91603W        W66591  29.864  31.456  23.522  0.0902 -0.1327  0.0358
91604W        W66592   5.169  17.543  25.501 -0.1045  0.2048 -0.0260
91605W        W66593  30.879  31.687  18.000  0.1053 -0.0761  0.0400
91606W        W66594  16.071  16.845   4.252  0.2177  0.1589  0.0404
91607W        W66595  11.556  11.700   6.379 -0.2218 -0.0523  0.0128
91608W        W66596  34.440   6.930  14.414  0.0241 -0.1830  0.2237
91609W        W66597   3.792  25.437  22.923 -0.0332  0.1742  0.1692
91610W        W66598  20.742  21.069  24.190 -0.1390  0.2482 -0.1239
91611W        W66599  11.370  18.826   4.478 -0.3263  0.0673  0.3051
91612W        W66600  33.062  25.838  12.135  0.0151  0.0026  0.1867
91613W        W66601   5.900   5.897  21.473 -0.2404  0.0963 -0.5037
91614W        W66602  35.369  32.823  15.862  0.2448 -0.1585  0.1106
91615W        W66603  22.658  32.051  24.772  0.0703  0.0492 -0.3916
91616W        W66604  10.119  34.222   2.456 -0.1554  0.2646 -0.0113
91617W        W66605  14.931  26.490  23.799 -0.2468 -0.0497  0.1069
91618W        W66606  17.411  21.292   0.885 -0.0296  0.3442  0.0845
91619W        W66607  31.542  13.416  22.090  0.1895 -0.1416  0.0577
91620W        W66608   6.632  15.235  11.349  0.0636  0.1079 -0.2201
91621W        W66609   5.930   0.812   6.304 -0.4016  0.2952 -0.0468
91622W        W66610   9.491   5.665  12.921 -0.1955  0.1155 -0.1726
91623W        W66611  31.852  24.565  17.255 -0.0126  0.1934  0.1760
91624W        W66612   4.935  28.970   9.813 -0.3425  0.0612 -0.2729
91625W        W66613   7.565  22.221  11.015  0.4563 -0.1978 -0.2004
91626W        W66614  32.753  12.034  10.524 -0.2303 -0.0766 -0.0348
91627W        W66615  16.964  27.679   7.018 -0.2612  0.0892 -0.1352
91628W        W66616   5.810  34.939  13.375 -0.0186  0.0498 -0.2763
91629W        W66617  25.610   0.380   2.899 -0.0107 -0.6001 -0.0646
91630W        W66618  13.099  22.191   1.506 -0.1824  0.0770  0.1424
91631W        W66619  29.383   6.492   3.030 -0.3650  0.0293 -0.0025
91632W        W66620  11.318  11.668   5.240 -0.1344 -0.1317  0.1123
91633W        W66621   0.123   6.848   3.677 -0.2053 -0.4170 -0.3535
91634W        W66622  35.102  34.257  20.978  0.0227  0.1743  0.0334
91635W        W66623  33.058  31.055   5.044  0.0348 -0.1555 -0.1661
91636W        W66624  32.442  20.413  16.783 -0.0536 -0.1180 -0.2459
91637W        W66625  26.188  18.709   7.439  0.1806  0.1307  0.3251
91638W        W66626  29.407   3.525  11.339 -0.0342 -0.0453  0.1050
91639W        W66627  27.689   3.063  21.435  0.1002 -0.0925 -0.0612
91640W        W66628  20.078  30.245   0.287 -0.0242  0.1394 -0.0292
91641W        W66629  31.865   6.649  13.753  0.1295 -0.1373 -0.1228
91642W        W66630   1.105  14.192  12.577  0.2369  0.0370 -0.1546
91643W        W66631  27.177  25.718  14.269  0.3826  0.0652  0.3199
91644W        W66632   7.287   6.693  23.198 -0.0112  0.1607  0.0968
91645W        W66633  19.963  13.830  18.331 -0.0672  0.3751  0.0207
91646W        W66634  15.463  10.091   0.094 -0.0176  0.2395  0.1180
91647W        W66635  28.211   5.133  25.371 -0.1626  0.0191 -0.2154
91648W        W66636  10.788  27.925  15.586  0.1734  0.2014  0.0343
91649W        W66637  30.816  15.482   8.751 -0.0810  0.2136 -0.1343
91650W        W66638  23.647   4.446  18.376  0.1806  0.3073  0.0932
91651W        W66639  23.430   8.728  14.673  0.0617 -0.1591 -0.1979
91652W        W66640  18.252  11.902  25.969  0.1762 -0.0918 -0.3007
91653W        W66641  33.845  27.740   4.587  0.2316  0.1860  0.0006
91654W        W66642  28.281  30.385   4.524 -0.1638  0.1519  0.0854
91655W        W66643  31.491   7.555  14.469  0.2550  0.0515  0.1129
91656W        W66644  32.319  29.569  17.207 -0.2454 -0.3642  0.0831
91657W        W66645   8.635  25.310  22.222  0.3566  0.0214  0.2441
91658W        W66646   7.128  24.071   9.071 -0.3573  0.1111  0.2658
91659W        W66647   4.265  16.240  17.723 -0.4390 -0.1815 -0.0880
91660W        W66648   3.034   4.061  22.855  0.1217 -0.0588  0.0754
91661W        W66649  13.076  21.481  21.705  0.2022  0.0404 -0.1352
91662W        W66650  28.188   6.140  20.452  0.2286 -0.1435  0.0790
91663W        W66651   6.855  29.308   5.707  0.2239  0.0968  0.2559
91664W        W66652  31.060  27.901  11.225  0.2171 -0.1112 -0.1077
91665W        W66653   5.489   6.172  10.272 -0.0681  0.1759 -0.1514
91666W        W66654   7.838   6.034  13.485  0.0275  0.3426  0.1319
91667W        W66655  23.437  33.246  18.828 -0.1134  0.0221  0.0099
91668W        W66656   9.097   4.470  11.114 -0.1686 -0.0912  0.0730
91669W        W66657  11.610   4.705  13.036 -0.0438  0.1132 -0.2138
91670W        W66658   5.566  28.968   3.390 -0.0868 -0.1325  0.2798
91671W        W66659   8.934  29.998  11.411  0.0682 -0.1380  0.0686
91672W        W66660  34.026  17.698  23.755  0.0090 -0.0395 -0.0693
91673W        W66661  29.923  26.726  16.489  0.1302 -0.2116  0.0390
91674W        W66662  21.074   9.465  24.844  0.1592  0.0212  0.0034
91675W        W66663  30.235  15.435  10.950  0.1513 -0.2114  0.1080
91676W        W66664  26.164  23.116  21.531 -0.0371  0.0216  0.1074
91677W        W66665   9.138  17.901  24.804 -0.0105  0.0405 -0.0202
91678W        W66666  13.949  15.523  26.064 -0.0144  0.1013  0.1375
91679W        W66667   7.750  32.526   9.629 -0.2848 -0.0082  0.0515
91680W        W66668  23.631  23.915  12.979  0.0540  0.3807  0.2308
91681W        W66669  12.990  20.244   8.100  0.0332 -0.0253  0.3170
91682W        W66670  31.859   2.757  23.138 -0.3289  0.0160  0.3602
91683W        W66671  14.102  26.334   9.801  0.0423  0.1541 -0.0214
91684W        W66672  27.286   0.863  20.093  0.2718 -0.0301 -0.0052
91685W        W66673  21.097  12.369  21.470 -0.3650  0.1666 -0.1890
91686W        W66674  15.494  24.186   6.650 -0.0031  0.1001 -0.1795
91687W        W66675  24.039  29.912  15.955  0.2774 -0.0601  0.1394
91688W        W66676  31.783  21.979  17.338 -0.1303  0.1023  0.1133
91689W        W66677  24.092   8.847   3.321 -0.2588 -0.2418  0.1002
91690W        W66678   4.622   9.597   1.329  0.0886 -0.2697  0.2904
91691W        W66679  31.482  13.219  25.636  0.0617 -0.4320  0.0068
91692W        W66680  28.453  23.339   7.790 -0.1845 -0.0085 -0.2756
91693W        W66681  19.951   0.381   5.762 -0.3323  0.0697  0.0481
91694W        W66682  18.092  17.048  23.066 -0.0274  0.2273 -0.2784
91695W        W66683  18.573   1.647   1.458 -0.0448 -0.1335 -0.1612
91696W        W66684   8.479  29.239   4.176 -0.1168 -0.0308  0.0664
91697W        W66685  29.157   6.614  14.745 -0.1804  0.1157  0.2102
91698W        W66686  17.546   1.710  19.420 -0.1586  0.0660 -0.0114
91699W        W66687  27.550  30.115   5.302  0.0416  0.0493 -0.2267
91700W        W66688   7.144  28.881   2.379  0.0217 -0.1249  0.0780
91701W        W66689   9.100   9.417  10.267 -0.0820 -0.1726  0.0240
91702W        W66690  12.385  28.369  16.841 -0.0332 -0.1637  0.0686
91703W        W66691  32.974  31.271  13.084  0.2906 -0.1644 -0.0987
91704W        W66692  32.838   3.646  23.185 -0.1263  0.1664  0.1474
91705W        W66693   4.732   7.975  25.371 -0.0394 -0.1311 -0.0834
91706W        W66694  12.932   0.089   0.121  0.1765 -0.1759  0.3707
91707W        W66695  30.906  24.869  24.717 -0.1427  0.0871  0.4701
91708W        W66696  25.116  13.642  19.972  0.1081  0.0322 -0.0164
91709W        W66697   0.638  10.138   1.443 -0.0021 -0.1005  0.2082
91710W        W66698  16.151  27.163  22.114 -0.1343 -0.0121 -0.0202
91711W        W66699   0.755   7.546  21.470 -0.0225  0.0759 -0.0485
91712W        W66700   1.405   8.779  16.879 -0.0301  0.1020 -0.0139
91713W        W66701   9.002  13.926   5.576 -0.0136  0.1692 -0.1761
91714W        W66702   9.814  24.611  16.733  0.0152 -0.3368  0.2120
91715W        W66703  16.388  15.625  21.968 -0.4422  0.3904  0.0927
91716W        W66704  27.989   3.300  24.520 -0.0921  0.1768 -0.0449
91717W        W66705   6.806   7.603  21.795  0.2660 -0.0476 -0.0282
91718W        W66706   0.726   9.478  16.744  0.5879 -0.1460 -0.0485
91719W        W66707  19.351  11.309   6.145  0.2837  0.0799  0.0464
91720W        W66708  27.504   0.105  19.968 -0.0072  0.0825  0.0495
91721W        W66709  17.458  35.072  19.385  0.2815 -0.2649 -0.0668
91722W        W66710  34.035   8.941  18.321 -0.0228 -0.3560 -0.2190
91723W        W66711   1.576   7.851   4.108  0.1675 -0.0554  0.0797
91724W        W66712  30.517  20.639  24.135 -0.2035 -0.2231  0.0854
91725W        W66713  22.706  11.906  17.210 -0.1960  0.1773 -0.0104
91726W        W66714   2.352  21.096  13.109 -0.1807 -0.1572 -0.1565
91727W        W66715  29.505   9.406  19.064  0.3591  0.0440  0.1188
91728W        W66716  24.474   1.739  21.113  0.1650  0.2085  0.4588
91729W        W66717   4.080  13.136  20.136 -0.1727  0.1639 -0.0228
91730W        W66718  19.167   8.334  25.925 -0.0279  0.2266  0.1835
91731W        W66719  12.356  16.832  24.741  0.1116  0.0565 -0.2746
91732W        W66720  22.364  26.199  16.075  0.1154  0.2737  0.1040
91733W        W66721  14.487  10.357  12.481 -0.1175  0.0473  0.1301
91734W        W66722  11.270  17.971   9.329 -0.0590  0.1435  0.1573
91735W        W66723  23.341  34.052  20.710  0.0768  0.0144 -0.0044
91736W        W66724  11.388  27.400  23.886  0.3765 -0.0464  0.2384
91737W        W66725  14.543  20.006   6.909 -0.2395 -0.2991  0.2493
91738W        W66726  33.613  14.457  21.424 -0.0304 -0.2350 -0.1748
91739W        W66727  27.621   4.370  13.386  0.0374 -0.0628  0.0547
91740W        W66728   0.032   9.723   2.543 -0.0754  0.0284  0.0295
91741W        W66729   8.204  31.965   2.582  0.1793  0.2260  0.1134
91742W        W66730  17.403  16.935  21.377 -0.1117 -0.0948  0.2031
91743W        W66731  21.272   5.607   7.647 -0.0088  0.0935  0.1364
91744W        W66732   2.938  29.305   1.373  0.3018 -0.1717  0.1805
91745W        W66733  15.297   9.136  10.056  0.0234 -0.2121  0.0066
91746W        W66734  29.458  24.134  10.493 -0.1742 -0.0922  0.1073
91747W        W66735  13.345  30.232  14.694 -0.1602 -0.1380  0.2419
91748W        W66736  13.410  15.775  23.320 -0.0811 -0.2030 -0.2520
91749W        W66737  15.879   3.582  25.914 -0.2313 -0.3583  0.0053
91750W        W66738  33.800  19.657   9.585 -0.1427 -0.0985  0.0892
91751W        W66739  21.625  22.240  23.595  0.2495  0.2860 -0.1976
91752W        W66740   3.164   0.588  17.870  0.1044  0.2922  0.1074
91753W        W66741  29.096  30.086  21.448  0.0184 -0.1839 -0.0095
91754W        W66742  23.965   7.112   1.100  0.0694 -0.1837  0.1578
91755W        W66743   4.579  25.499  20.443 -0.0872  0.0063 -0.0673
91756W        W66744  17.160   4.723  19.721  0.0052  0.1019 -0.0247
91757W        W66745  30.107  24.899  14.167  0.2101  0.3153  0.1080
91758W        W66746   6.179  14.557   8.702 -0.2427 -0.0863  0.1507
91759W        W66747  29.640   4.017  21.582 -0.0027  0.0291 -0.1582
91760W        W66748  16.248  24.064   5.528 -0.3002  0.0093  0.0498
91761W        W66749  12.259  32.520  12.306  0.1400  0.0862  0.0253
91762W        W66750  13.483  23.077   1.015 -0.1877 -0.0497 -0.3150
91763W        W66751  21.271   0.817  22.699 -0.2992 -0.0158 -0.0820
91764W        W66752   4.518  31.569   6.673 -0.1039 -0.0968  0.0380
91765W        W66753  11.914  24.560  17.897 -0.0659  0.3219  0.0092
91766W        W66754  18.349  22.525   2.137 -0.0546  0.1657 -0.1492
91767W        W66755  10.706  22.714   2.223  0.1433  0.2283  0.0334
91768W        W66756  29.201   8.550   1.574 -0.5260 -0.0268  0.0006
91769W        W66757  28.391  12.703  11.204  0.6272  0.1226  0.2546
91770W        W66758  14.001   8.760   7.191 -0.2099 -0.1790  0.2275
91771W        W66759   2.394  22.289  19.547  0.0196  0.0138  0.3339
91772W        W66760  34.957  19.180  23.718  0.0078  0.0968 -0.0960
91773W        W66761   9.924   7.978   5.133 -0.2669 -0.0299 -0.4740
91774W        W66762  20.416   7.766   9.703 -0.1978 -0.2422  0.0199
91775W        W66763  31.618  19.923  25.003  0.0800 -0.2187 -0.2609
91776W        W66764   7.275  26.877   3.208 -0.0987 -0.0880  0.0307
91777W        W66765  30.364  16.537  16.474 -0.2274  0.3102  0.2228
91778W        W66766   0.913   5.314   0.525 -0.0835 -0.0891 -0.1748
91779W        W66767  13.866  17.150  19.557 -0.0302 -0.2115 -0.3800
91780W        W66768  27.691   7.093  11.858  0.1497  0.1368 -0.1794
91781W        W66769  28.790  19.684  24.889  0.1802 -0.2795 -0.2302
91782W        W66770  30.446  13.045  20.090 -0.1688  0.3540  0.0997
91783W        W66771  32.112  22.927  25.092 -0.0302 -0.3600  0.1752
91784W        W66772   4.242   6.631  17.929 -0.2331 -0.1087 -0.0597
91785W        W66773  13.868   5.689  21.577 -0.3114  0.1489  0.3211
91786W        W66774  24.769   0.242   0.772  0.1172  0.1194 -0.5243
91787W        W66775  31.366   8.511  19.755 -0.2650 -0.3678  0.0077
91788W        W66776   0.369  35.072  20.831  0.1279  0.2118  0.3325
91789W        W66777  10.657   7.059  19.518 -0.3164  0.0749  0.0195
91790W        W66778   0.554  28.393  18.386 -0.0325  0.0034 -0.0238
91791W        W66779  25.533  10.636  12.358 -0.0689 -0.1514  0.1590
91792W        W66780  15.532  17.870   5.595 -0.1501 -0.5506  0.3164
91793W        W66781   5.169  30.647  13.818 -0.0055  0.1961 -0.0298
91794W        W66782  22.877  30.780   2.081  0.1593  0.0149 -0.0655
91795W        W66783   7.846  16.696   3.656  0.3374 -0.1721  0.2460
91796W        W66784  25.018   1.377   5.658 -0.1959  0.1232 -0.0071
91797W        W66785  29.968  19.690  10.069  0.1265  0.1807 -0.2021
91798W        W66786  21.441  27.255  23.259  0.0662  0.0574 -0.1568
91799W        W66787  19.594  30.276  22.476 -0.1692  0.2945 -0.0766
91800W        W66788   6.503   1.261   8.406 -0.2319 -0.2610 -0.3592
91801W        W66789   3.969  26.880  24.609 -0.0869  0.0095 -0.3762
91802W        W66790  32.636  30.042  23.946  0.3376  0.0640 -0.3204
91803W        W66791  30.688  11.534  10.187 -0.2292 -0.1707  0.2810
91804W        W66792  15.260  34.289   9.623  0.0070  0.0383 -0.1036
91805W        W66793  10.494  34.847   5.364  0.2777 -0.0121 -0.1093
91806W        W66794   9.710  27.793  22.882 -0.1555 -0.2122  0.1751
91807W        W66795  19.082   3.794  17.861 -0.0451 -0.1162 -0.0206
91808W        W66796  32.972  29.160  24.684  0.2218  0.3598 -0.1651
91809W        W66797   2.442  30.095   6.083 -0.0058 -0.0986  0.0581
91810W        W66798   1.338  23.546  20.635 -0.0566  0.1161  0.1894
91811W        W66799  23.376  19.948   2.362  0.1578  0.1851  0.1513
91812W        W66800   6.052  14.618   3.545  0.0211  0.0229  0.0166
91813W        W66801  27.648  30.854  17.625  0.1182 -0.2091 -0.4452
91814W        W66802   1.646  31.641  26.088  0.2056 -0.2722 -0.0040
91815W        W66803  12.292   8.295   3.974  0.0014  0.1652  0.5785
91816W        W66804   5.406   8.846   9.616 -0.1189 -0.0913 -0.0517
91817W        W66805   7.506  10.608   6.460 -0.4150 -0.1592 -0.0169
91818W        W66806  10.139  31.768  14.830  0.2371  0.0927  0.2846
91819W        W66807   4.821  34.093   0.205  0.4209  0.5985  0.0251
91820W        W66808  29.209   0.447   3.434  0.0952 -0.3746 -0.1546
91821W        W66809   8.674   0.083  14.532 -0.1102 -0.2176 -0.1852
91822W        W66810   9.764  25.335   3.723  0.0534  0.0849 -0.1326
91823W        W66811  20.710   5.813   1.853  0.1687 -0.1321  0.1849
91824W        W66812  21.416  25.661  19.120 -0.1605 -0.0061  0.0445
91825W        W66813   7.161  28.781   6.831 -0.1086  0.0904  0.1516
91826W        W66814  20.826  25.854  18.593 -0.0253  0.1247  0.2149
91827W        W66815  25.013  15.075  11.377 -0.0510 -0.0330 -0.1356
91828W        W66816  25.169  12.767  15.785  0.0874  0.0585  0.0207
91829W        W66817   9.131  24.523  22.558  0.0848  0.1832 -0.0868
91830W        W66818   3.721  34.982   5.956 -0.2379 -0.3083  0.3483
91831W        W66819   8.588  23.905  15.744 -0.2619 -0.1750  0.4786
91832W        W66820  34.186  25.567  21.576  0.4265  0.0032 -0.0611
91833W        W66821  21.046  18.083  17.647 -0.2012 -0.1410  0.2469
91834W        W66822  29.490  20.997  14.272 -0.1620  0.2032 -0.0817
91835W        W66823  20.605  22.828  23.899 -0.1730 -0.3506  0.0156
91836W        W66824  19.721   2.360   5.098  0.1501 -0.1925  0.1321
91837W        W66825   1.915   2.000  15.368 -0.1021  0.0943 -0.0793
91838W        W66826  35.248   1.775   7.506  0.2972  0.0344  0.0232
91839W        W66827  33.333  34.062  21.286  0.2184  0.0510 -0.1080
91840W        W66828  12.418  22.981   8.467  0.3962 -0.0274  0.3568
91841W        W66829  30.509  20.640   7.331 -0.0844 -0.2635 -0.2417
91842W        W66830  29.463   8.798  17.796 -0.1233  0.1098  0.1828
91843W        W66831  23.740  11.102  22.653 -0.0768  0.1940  0.2440
91844W        W66832  29.543  20.872  25.186  0.4213 -0.2746 -0.1830
91845W        W66833  24.293  17.705   9.242  0.1639 -0.0218 -0.0597
91846W        W66834  32.034   7.962   0.286  0.2457  0.4707 -0.0633
91847W        W66835  21.232   6.643   5.935  0.1610  0.0420 -0.2499
91848W        W66836  29.883  14.179  10.741  0.2635 -0.1610 -0.0822
91849W        W66837  23.175   4.331  16.877  0.0601  0.1080 -0.1381
91850W        W66838  16.386  24.778  23.495 -0.0779 -0.0713  0.1022
91851W        W66839  35.119  20.976   0.824 -0.1850 -0.0791  0.1021
91852W        W66840   1.775  23.017   0.581 -0.1914  0.0199  0.1483
91853W        W66841  15.602   8.236  25.898 -0.4565  0.0844 -0.1255
91854W        W66842  16.026  34.701  19.266  0.5337 -0.0746  0.0961
91855W        W66843  33.449  26.994  22.774 -0.1081 -0.0232 -0.0391
91856W        W66844  23.618   1.374  19.341 -0.0532  0.1591  0.0623
91857W        W66845  18.299  10.208   8.559 -0.0731 -0.0192  0.2729
91858W        W66846   2.246   6.265   2.493  0.1493 -0.3905  0.1900
91859W        W66847   3.134   8.563  17.232  0.1789 -0.0603 -0.0407
91860W        W66848   6.358   4.787  11.181  0.3350 -0.1277 -0.0446
91861W        W66849  32.048  30.481  23.292  0.1929 -0.1487  0.4018
91862W        W66850  21.695  19.392  23.549  0.0997  0.1013  0.0030
91863W        W66851   2.760  32.317  24.282  0.2013  0.0699  0.1577
91864W        W66852  19.174  19.681   7.448 -0.1335  0.3273 -0.0468
91865W        W66853  22.830  34.531  18.804  0.3104  0.1063 -0.1935
91866W        W66854   3.766  22.339  18.866 -0.1783  0.0845  0.3718
91867W        W66855  30.998  13.797   8.974  0.0518  0.0772 -0.0138
91868W        W66856  11.970  25.530  13.586  0.1442 -0.2538 -0.3576
91869W        W66857  20.406   5.286  25.646 -0.4076 -0.0717  0.0771
91870W        W66858  32.985  10.838  17.092  0.0268 -0.1558  0.2555
91871W        W66859  25.926   2.641  19.493 -0.0241 -0.1027 -0.0167
91872W        W66860   9.696  23.681  23.714 -0.1841 -0.0204  0.2295
91873W        W66861  21.854  29.297   3.721 -0.0002  0.3654 -0.0059
91874W        W66862  34.571  10.483  21.298  0.0102 -0.4753 -0.0042
91875W        W66863  28.717  16.138   5.752  0.3677  0.2145 -0.0643
91876W        W66864  33.841   3.708   7.546  0.2773  0.2376  0.1040
91877W        W66865  33.932  20.058  17.702 -0.1838 -0.0797 -0.2584
91878W        W66866  29.990  22.313  16.628 -0.0001 -0.1560 -0.0868
91879W        W66867  20.951  23.497  20.172  0.0237 -0.1007 -0.1142
91880W        W66868  26.347  21.861  19.900 -0.0333  0.0520 -0.2339
91881W        W66869   6.147   8.770   0.101  0.0674  0.0838  0.1893
91882W        W66870  28.597   5.178   0.893 -0.0741 -0.3165 -0.0817
91883W        W66871   0.544  28.601  23.698  0.1856 -0.1084  0.0830
91884W        W66872  34.090  25.399  13.926  0.2388  0.1947  0.1122
91885W        W66873  14.247  16.687   3.588  0.0934  0.1848  0.0483
91886W        W66874   0.844  10.656  18.566 -0.0458 -0.1100 -0.1555
91887W        W66875   5.813   8.283  19.096  0.1847 -0.0869 -0.1777
91888W        W66876  25.396  23.586  11.421 -0.4230 -0.0853 -0.0256
91889W        W66877  29.259  18.961  25.196 -0.2122 -0.1463  0.2471
91890W        W66878  11.911   7.691   2.793  0.0824  0.1076 -0.2856
91891W        W66879   1.338  33.386   6.241  0.2015 -0.3339  0.3793
91892W        W66880   4.468   7.920  20.835  0.0787 -0.3610 -0.0912
91893W        W66881  32.541   0.487   0.961  0.2981  0.2136  0.0154
91894W        W66882  20.933   3.014   0.846  0.0600 -0.0679  0.1865
91895W        W66883  14.571   5.780  11.010 -0.2292  0.0031 -0.0134
91896W        W66884   7.403   0.919   9.440 -0.1808  0.3441  0.1887
91897W        W66885  10.889   6.222   5.160 -0.0594  0.1525  0.2985
91898W        W66886  16.456  34.250  17.995 -0.1173 -0.2251  0.2538
91899W        W66887  18.450   4.928  21.874  0.1280 -0.0438  0.0060
91900W        W66888  26.237   9.274   1.549  0.0045 -0.1670 -0.2513
91901W        W66889   7.538  18.556  10.188 -0.0821  0.2091 -0.0500
91902W        W66890  29.425  17.100   6.280 -0.1445 -0.2007  0.1225
91903W        W66891  24.475   3.645  24.368  0.0771  0.1612 -0.1181
91904W        W66892   9.878  29.326  21.310 -0.1977 -0.1259  0.0482
91905W        W66893  20.953  12.535   5.598  0.1286  0.3043  0.3742
91906W        W66894   7.104  14.970  26.134  0.2876 -0.3427 -0.1110
91907W        W66895  25.728  21.444  19.500 -0.0532  0.1147 -0.0591
91908W        W66896   5.293  20.970  21.448  0.1112 -0.2453 -0.0894
91909W        W66897   9.057  26.780   6.950  0.2087  0.1593 -0.1835
91910W        W66898  15.011   5.110   1.022 -0.1084  0.0644  0.2104
91911W        W66899  17.230  20.375   6.016  0.5666  0.1445  0.1579
91912W        W66900  12.813  23.376   2.392 -0.1653  0.0312 -0.2083
91913W        W66901  34.818  22.523  24.311  0.1910 -0.2234 -0.0624
91914W        W66902  28.820  29.241  11.919 -0.0438 -0.1214 -0.1468
91915W        W66903  22.399  24.378   4.302  0.1990 -0.1266  0.0568
91916W        W66904  14.714  15.125  14.058  0.0960 -0.1739  0.0528
91917W        W66905  12.291   1.588  11.972 -0.1106  0.1254 -0.0270
91918W        W66906  11.380   8.327   9.549  0.0677  0.1745  0.1563
91919W        W66907   6.827  35.057   2.377 -0.4008  0.1638  0.1017
91920W        W66908  13.131   3.930   5.797  0.3649  0.0430 -0.1121
91921W        W66909  15.241  32.854  11.259  0.1532 -0.1418 -0.1073
91922W        W66910  16.932   2.460  21.713 -0.2004 -0.3761  0.0703
91923W        W66911   1.856  26.983   0.645 -0.0260 -0.1335 -0.3173
91924W        W66912   3.473  27.700  23.331  0.1227  0.0993 -0.1897
91925W        W66913   0.902   7.159  24.053 -0.4262  0.2477 -0.0297
91926W        W66914  18.342  29.726  25.214  0.2919 -0.0271 -0.2580
91927W        W66915   9.741  25.825   5.343 -0.0443 -0.1340  0.0464
91928W        W66916   5.736   3.817  10.054  0.0516 -0.1843  0.3146
91929W        W66917  18.053  12.791  12.076 -0.1594  0.1835 -0.0281
91930W        W66918  10.537   7.056  12.249 -0.0515  0.0213  0.3665
91931W        W66919  32.642  14.580   7.532 -0.0637 -0.3746 -0.1408
91932W        W66920   6.167  16.401   7.483 -0.3344  0.1576  0.5346
91933W        W66921  11.282   2.621   8.038  0.1689 -0.0167  0.4349
91934W        W66922  16.670  10.477   9.774 -0.0268  0.3647 -0.0281
91935W        W66923  26.018  15.316  15.258 -0.1654 -0.1202 -0.0723
91936W        W66924  30.907  20.592  24.864 -0.0684 -0.0815  0.2500
91937W        W66925  21.999   2.242  19.215 -0.3613 -0.0214  0.1117
91938W        W66926  18.530  10.939   6.622  0.4780 -0.0206  0.2971
91939W        W66927  12.309  13.327   7.890 -0.2291  0.5774 -0.3036
91940W        W66928  33.578  14.058  24.537 -0.1986  0.0110 -0.3228
91941W        W66929  23.271  32.784  18.905 -0.1531  0.1418  0.1750
91942W        W66930  21.954   4.062  18.776  0.1874  0.2006  0.0501
91943W        W66931  20.469   4.211   6.635  0.1484 -0.1740 -0.0131
91944W        W66932  31.689   2.353  20.496 -0.0403 -0.2457  0.2832
91945W        W66933  12.527  27.287   5.730 -0.1130 -0.0080  0.0261
91946W        W66934  13.206  21.419  10.886 -0.1556  0.0079  0.0358
91947W        W66935  13.091  15.033  11.416  0.3160  0.0277  0.0477
91948W        W66936  23.870   9.646   2.500  0.0165  0.2318 -0.2434
91949W        W66937   5.345  31.012  20.562  0.0864  0.4055 -0.1565
91950W        W66938  10.523   7.569   0.008 -0.0206 -0.3827 -0.0005
91951W        W66939  10.321  27.865  16.843  0.0674  0.1817  0.0234
91952W        W66940  24.584  14.276  19.437 -0.2041  0.2512 -0.1301
91953W        W66941  18.343  15.400   3.608 -0.1867 -0.0854  0.0504
91954W        W66942  17.202  12.967   4.290  0.2398  0.2041 -0.1279
91955W        W66943  13.452  10.719  20.424 -0.3258  0.0835  0.1365
91956W        W66944  21.955  22.022  23.239 -0.0475 -0.3614  0.5225
91957W        W66945   8.605   0.742   3.789 -0.1540 -0.1125  0.2001
91958W        W66946  23.093  32.182  12.569 -0.2959  0.2347 -0.1576
91959W        W66947   8.203   2.487  23.563 -0.1414 -0.1538  0.0665
91960W        W66948  29.903   0.516  13.988 -0.2803 -0.0444 -0.1277
91961W        W66949  30.902  14.869  20.417 -0.0653  0.1837  0.1881
91962W        W66950  26.303   0.781  23.756 -0.0396  0.0000 -0.2382
91963W        W66951  26.153   1.108   3.247 -0.0544  0.5827 -0.0524
91964W        W66952  28.947  24.078  10.670 -0.0330  0.0202  0.0007
91965W        W66953   7.807  10.487   5.724 -0.2123  0.2447 -0.2504
91966W        W66954  22.549  27.736  19.982 -0.2777  0.0906 -0.0092
91967W        W66955  12.590   2.781  22.623  0.0044 -0.0837 -0.2671
91968W        W66956  23.056  21.452  13.499 -0.1550  0.2458  0.1497
91969W        W66957  22.914  34.713  22.773  0.3892  0.1454 -0.1365
91970W        W66958  14.967  20.946  22.022 -0.1399  0.0312 -0.0557
91971W        W66959   0.672  20.122  19.778  0.2061 -0.4531  0.3120
91972W        W66960  32.457   4.714   0.632 -0.0096  0.2042 -0.5492
91973W        W66961  14.907  12.352   4.374 -0.2172  0.2451 -0.2457
91974W        W66962  17.805  31.975   9.305  0.0248 -0.1098  0.2464
91975W        W66963  10.301  13.303   2.503  0.1003  0.1944  0.0477
91976W        W66964  29.279   8.498  15.668 -0.1327  0.0658 -0.3186
91977W        W66965   7.273  16.938   4.500  0.0749 -0.0468  0.0577
91978W        W66966   4.032   4.289  19.065 -0.3479 -0.0502 -0.1338
91979W        W66967  15.563   4.108  23.696  0.3191 -0.1913 -0.5832
91980W        W66968  33.562  34.224  22.281 -0.0127 -0.8026  0.0210
91981W        W66969  26.774  18.894  13.193  0.2187  0.1040 -0.3775
91982W        W66970  21.965  14.027   1.406  0.0674 -0.0406  0.0752
91983W        W66971  12.079   9.442   1.449 -0.0625 -0.1301 -0.0023
91984W        W66972  16.912   6.834  20.977  0.1096  0.0628 -0.0831
91985W        W66973  13.174  30.724  25.692  0.1044 -0.1548  0.0669
91986W        W66974  29.299  20.812  17.553 -0.1776  0.0470 -0.5374
91987W        W66975   6.644  22.403   5.264  0.2767  0.3393  0.0477
91988W        W66976  22.630   6.928   4.669  0.1137  0.1036 -0.1357
91989W        W66977   5.172  14.675   7.231  0.2068 -0.2146 -0.0751
91990W        W66978  29.991   9.647  21.427 -0.0471 -0.0251  0.0261
91991W        W66979  12.336  30.979  10.648 -0.1761  0.0379  0.4115
91992W        W66980   4.121   5.839   6.944  0.1059  0.1210 -0.1591
91993W        W66981   9.726   1.637   0.477  0.0160 -0.3287 -0.0713
91994W        W66982  15.552   1.762   0.493 -0.1208 -0.2181 -0.1808
91995W        W66983  31.645  29.596  21.750 -0.0488 -0.2100 -0.2982
91996W        W66984  14.770  23.424   6.595  0.0452 -0.0823 -0.2601
91997W        W66985  19.583  27.615  22.546 -0.1181  0.1738  0.0493
91998W        W66986  27.291   1.506  19.215 -0.3061  0.1161  0.3017
91999W        W66987  16.313  28.520   6.239  0.1319 -0.0154 -0.0489
92000W        W66988  17.472  21.484  24.693 -0.0030  0.0974 -0.0104
92001W        W66989  20.032  17.556   6.907 -0.1475  0.0888 -0.1816
92002W        W66990  34.118  11.238  14.881 -0.1144  0.1361  0.4901
92003W        W66991  17.978  15.443  23.504 -0.1952 -0.0752  0.2496
92004W        W66992   7.492  26.833  13.441  0.1017  0.1493  0.5807
92005W        W66993  17.833   2.868   9.234 -0.3360  0.0303  0.1535
92006W        W66994  22.762  17.199  18.720 -0.4244  0.0456 -0.4228
92007W        W66995  28.400   5.908   1.523  0.0909  0.0326 -0.1034
92008W        W66996  18.202  23.266  20.422 -0.0587 -0.0019 -0.3280
92009W        W66997  14.547   1.992   8.184 -0.1953 -0.0532  0.2931
92010W        W66998  24.410  32.669   2.972  0.2579 -0.1536  0.4923
92011W        W66999  33.992  13.055   9.109  0.0085 -0.0208 -0.0297
92012W        W67000   2.924  25.876   6.381 -0.2231  0.2779  0.0639
92013W        W67001  28.527  14.017   9.420 -0.3359 -0.0102 -0.2008
92014W        W67002  29.850   0.851  13.245  0.0362  0.1139  0.5015
92015W        W67003  33.919  19.720  10.548 -0.0156 -0.0523  0.1885
92016W        W67004  18.440  32.800   3.484  0.2614 -0.1788  0.0944
92017W        W67005   6.032  28.347   4.876  0.1064  0.1581 -0.2987
92018W        W67006   3.569  14.781  24.284  0.0991  0.3282  0.0249
92019W        W67007  12.920  13.973   8.994 -0.0195  0.1019 -0.0746
92020W        W67008  11.314  14.033   1.991 -0.0663  0.4091  0.2061
92021W        W67009  29.205  24.516   9.068 -0.2662 -0.0099  0.1590
92022W        W67010   8.075  29.280  14.667  0.4549  0.0011  0.1117
92023W        W67011  24.807  22.551  19.941 -0.0710  0.1519 -0.0821
92024W        W67012  23.966  34.123  22.230  0.3651  0.0057  0.0807
92025W        W67013  10.699   6.132   3.427  0.0540  0.0221 -0.3056
92026W        W67014  31.212  19.123  24.819 -0.0670  0.0631 -0.2128
92027W        W67015  10.332   9.553   9.158 -0.2448 -0.0516  0.1156
92028W        W67016  15.887  23.845   1.168  0.1467 -0.0804  0.4511
92029W        W67017  26.299   1.772  11.691  0.0885  0.2163 -0.1003
92030W        W67018  15.904   0.828  11.020  0.0713 -0.1602 -0.3287
92031W        W67019   5.017  30.704   3.363  0.1075 -0.0481 -0.2067
92032W        W67020  25.592  18.762  15.642 -0.2866  0.0907 -0.1366
92033W        W67021   8.928  25.538   8.037  0.1701 -0.2772 -0.1015
92034W        W67022  34.646  29.888   7.923  0.1383  0.1240 -0.2233
92035W        W67023  25.162  23.689  19.074  0.0500 -0.0614  0.1815
92036W        W67024   2.507  27.572  25.485  0.1502  0.1256  0.2007
92037W        W67025  15.131  27.589   4.731 -0.1298 -0.0857  0.1115
92038W        W67026   0.106  31.353  15.586  0.1305 -0.1220 -0.0960
92039W        W67027  27.918  24.376   0.165 -0.3919 -0.0715 -0.0577
92040W        W67028  23.931  32.385   5.054  0.1137  0.0783 -0.1744
92041W        W67029  34.037   5.127   4.511  0.0819  0.1085  0.1782
92042W        W67030  20.369  20.951  25.082  0.1575  0.1990 -0.0743
92043W        W67031   7.795  15.023  23.977 -0.0598 -0.2888  0.2494
92044W        W67032   8.649  23.367  16.426  0.3454  0.2699  0.0289
92045W        W67033  35.126  13.003   0.318  0.0369  0.1891  0.3025
92046W        W67034   7.046   7.269   4.694  0.2280  0.2333 -0.3523
92047W        W67035  11.317  26.307  13.251 -0.1730 -0.1126  0.0963
92048W        W67036  10.355  18.462  23.320 -0.0965  0.0232 -0.2595
92049W        W67037   3.263  25.389   4.406 -0.2915 -0.4511 -0.3483
92050W        W67038  11.886   1.913  24.924 -0.0540 -0.1344 -0.1099
92051W        W67039  12.526   7.790   9.336  0.0827 -0.0876 -0.3979
92052W        W67040   8.822  21.718  23.466  0.0603  0.3218 -0.1010
92053W        W67041   6.920  27.741  11.067  0.0420  0.2570  0.2149
92054W        W67042  14.628   5.848   1.884  0.2433 -0.3268  0.2148
92055W        W67043   3.258  11.413   6.532  0.3615  0.1409  0.0332
92056W        W67044  13.910  19.866  13.732 -0.1356  0.0853  0.2919
92057W        W67045   6.760  17.986  19.383 -0.0719  0.0388 -0.0866
92058W        W67046  28.708  11.844   9.404 -0.2748  0.1246  0.2701
92059W        W67047  23.712  27.742  21.808  0.0656 -0.1343 -0.0402
92060W        W67048   2.925  23.461  24.486  0.0557 -0.0543 -0.2000
92061W        W67049  21.254  15.198   1.034  0.1117  0.1411  0.2730
92062W        W67050  24.256   1.984   2.103 -0.1860 -0.3690 -0.1136
92063W        W67051  31.862  17.656  16.599 -0.3028  0.1178 -0.2419
92064W        W67052  10.167   6.826  10.663 -0.2246 -0.1416 -0.1612
92065W        W67053   3.175  13.237   0.110  0.1072 -0.2998 -0.1608
92066W        W67054   2.297  12.455  14.105  0.0817  0.2588  0.0374
92067W        W67055  18.257   7.417  18.643 -0.1561 -0.3512 -0.0456
92068W        W67056  35.319  11.519  15.932  0.2640  0.0426  0.2593
92069W        W67057  26.984  33.356  24.944 -0.2546  0.0183  0.3749
92070W        W67058  13.489  12.908  13.900  0.2810 -0.0222 -0.1864
92071W        W67059  28.716   5.459  22.107 -0.3167  0.3093 -0.0339
92072W        W67060  17.826  32.050  20.029 -0.3289 -0.1850 -0.1180
92073W        W67061  10.519   3.257  14.870 -0.1549 -0.2639  0.1871
92074W        W67062  16.884  11.064  11.492 -0.0341  0.0173  0.2002
92075W        W67063   0.183  20.044  20.477  0.2051 -0.1843 -0.1895
92076W        W67064  20.411  30.278  17.632  0.0099  0.0618 -0.0027
92077W        W67065   6.983  30.878   0.139 -0.0030  0.0699  0.0497
92078W        W67066  27.976  25.809  10.965 -0.0718  0.2055  0.0127
92079W        W67067  22.783   4.896   2.588 -0.2656 -0.0174  0.1239
92080W        W67068  28.223  13.776  17.494  0.0618 -0.2629 -0.0037
92081W        W67069  14.547  22.771  24.830 -0.1554  0.0806  0.0505
92082W        W67070  16.908  19.240  13.402  0.0416 -0.1934  0.1934
92083W        W67071   6.509  26.443   4.252 -0.0909 -0.2681 -0.3436
92084W        W67072  33.027   1.448  14.581 -0.1927  0.1550  0.2206
92085W        W67073   9.607   4.380  11.204 -0.1065 -0.1213 -0.2872
92086W        W67074   6.859   1.680   0.888 -0.1216  0.0471  0.3553
92087W        W67075  16.968   6.439  10.670 -0.0840  0.0434 -0.1600
92088W        W67076   2.577   2.072  25.663 -0.0702 -0.2525 -0.1356
92089W        W67077  17.125   8.903  24.472 -0.1908  0.0850  0.1283
92090W        W67078  20.355  27.932   6.101 -0.0564  0.0649 -0.1010
92091W        W67079  16.130  35.029   2.126 -0.0657 -0.1153  0.0332
92092W        W67080   6.379  13.986  26.075  0.3768  0.2422 -0.3142
92093W        W67081  15.293  15.703  19.901  0.1098  0.1518  0.1722
92094W        W67082   7.994   5.797   0.049  0.0675  0.1788 -0.0505
92095W        W67083  31.057  10.270  10.503  0.2012 -0.5026 -0.0358
92096W        W67084  34.812   9.033  10.522  0.0416  0.2636  0.0942
92097W        W67085  26.873  12.164  18.560 -0.1673 -0.0977 -0.1819
92098W        W67086  17.302  31.196   8.220 -0.0114  0.0501 -0.0997
92099W        W67087  11.685  18.863  12.618 -0.0967  0.1311  0.0861
92100W        W67088  11.390  24.706  10.100 -0.2079  0.0173  0.4602
92101W        W67089   5.679   5.036  22.474 -0.1195  0.1591 -0.2815
92102W        W67090  30.823   8.224  17.356 -0.0459  0.4190 -0.2871
92103W        W67091   1.088   4.002  14.585 -0.0518  0.0517 -0.1402
92104W        W67092  30.657  13.279   5.826  0.1179 -0.3531  0.1954
92105W        W67093  24.029  16.126  24.372 -0.0494  0.1003  0.2208
92106W        W67094  10.080  21.288   4.203  0.0174 -0.1528 -0.0290
92107W        W67095  27.631   5.551   0.510 -0.0476  0.3989 -0.2253
92108W        W67096  16.483  14.335  18.211  0.0547 -0.1138 -0.1056
92109W        W67097  19.734   3.436   0.213  0.1157 -0.0737 -0.2182
92110W        W67098  17.516  27.796   2.423  0.0350  0.0870  0.0718
92111W        W67099  14.414  13.561   3.786  0.0320  0.0855 -0.0165
92112W        W67100   7.388  10.680  12.605  0.3970 -0.2785 -0.1307
92113W        W67101  18.730  12.771  24.458 -0.1423  0.0494 -0.1553
92114W        W67102  11.919   2.463   9.690  0.0532  0.0397  0.1685
92115W        W67103  29.904  17.079   0.291 -0.3016 -0.0376 -0.1532
92116W        W67104  21.500  25.757  25.866 -0.3305  0.0566  0.1987
92117W        W67105  30.594  35.050   2.016  0.4742  0.3007  0.0691
92118W        W67106  18.507  30.699  18.903 -0.1123  0.0949 -0.1584
92119W        W67107  15.487  11.397  21.441 -0.1024 -0.2374  0.1943
92120W        W67108  11.293  20.249   9.050 -0.3454  0.0627 -0.2308
92121W        W67109   4.767  16.272  20.845 -0.1083 -0.3071 -0.0670
92122W        W67110  26.918  26.683  23.836 -0.0528 -0.0652 -0.0534
92123W        W67111  30.823  21.219   9.491 -0.1950 -0.1101 -0.1379
92124W        W67112  23.176  29.640  20.823 -0.0348  0.2989 -0.1081
92125W        W67113   1.505   0.298  21.719  0.0288  0.0211 -0.1254
92126W        W67114  11.437  24.828   8.691 -0.0599  0.0302 -0.0298
92127W        W67115  29.228  10.441   7.896 -0.4010  0.0943  0.0691
92128W        W67116  21.948  31.435   3.586 -0.2560  0.1564  0.0187
92129W        W67117  10.808   8.446   2.452  0.1563  0.0830  0.1693
92130W        W67118  25.888  21.910  17.740 -0.1567  0.3551  0.0519
92131W        W67119  18.945  13.888   2.541  0.0306  0.0265  0.2010
92132W        W67120  31.452  16.105  21.158 -0.3949  0.0338 -0.2384
92133W        W67121  11.468   7.313   2.536  0.2598 -0.2406  0.2247
92134W        W67122  29.688   7.900  13.390  0.2376 -0.0118  0.0372
92135W        W67123  16.282  31.389   7.353  0.0428  0.3984  0.0347
92136W        W67124   5.060   5.012   1.649 -0.2037  0.0036 -0.2804
92137W        W67125  33.869  20.523  22.238 -0.1043 -0.1493 -0.0427
92138W        W67126  17.142   3.072   8.359 -0.0220 -0.2589 -0.1215
92139W        W67127  10.472  30.314   7.089  0.1933  0.2663 -0.1031
92140W        W67128  15.585  33.589   2.437  0.1913 -0.1453  0.0185
92141W        W67129   7.997   1.953  15.262  0.1566  0.1318 -0.2511
92142W        W67130  21.867  30.888   4.508  0.1171 -0.1795 -0.0316
92143W        W67131   2.522  29.785   1.324 -0.0914 -0.0835 -0.1150
92144W        W67132  21.601  27.879  25.715 -0.1488 -0.0655 -0.1052
92145W        W67133  11.298  19.382  21.582 -0.1465  0.0647 -0.2107
92146W        W67134   6.605   4.149  12.290  0.0087  0.2333  0.0770
92147W        W67135  34.000  35.004   7.316  0.1322 -0.4738  0.3393
92148W        W67136  31.720  25.773   9.881  0.0197  0.1802 -0.0332
92149W        W67137   8.205  30.039  23.552  0.2955  0.3991 -0.0482
92150W        W67138  24.438  11.550  21.398 -0.0877 -0.2423  0.1210
92151W        W67139   5.921   8.878   8.684  0.2692 -0.3585 -0.1233
92152W        W67140  27.271  29.245   2.502 -0.2399 -0.0149  0.0090
92153W        W67141  12.951  21.923  23.194 -0.0484  0.1256  0.1570
92154W        W67142   3.498   6.371   1.416 -0.2202 -0.1612 -0.0909
92155W        W67143  21.293  26.964  23.750  0.0701  0.3413  0.0483
92156W        W67144  24.957  20.065  21.177 -0.0308 -0.0819 -0.0130
92157W        W67145  18.460   2.652  24.605 -0.0572  0.1257 -0.1677
92158W        W67146   0.868  33.270   5.823 -0.0101  0.0824 -0.0717
92159W        W67147  29.510  23.171  11.553 -0.2461  0.1478 -0.1367
92160W        W67148  12.209  23.651  13.632 -0.0250 -0.1138  0.3763
92161W        W67149  30.070  23.754  15.641  0.0402  0.0403 -0.2421
92162W        W67150  33.281   7.885  22.558 -0.0988  0.4388  0.2059
92163W        W67151   4.136  23.783  18.845  0.0847  0.0337 -0.0725
92164W        W67152   0.020  25.878  24.137  0.1014 -0.0964  0.1370
92165W        W67153  31.740   4.605  19.242 -0.1770  0.0479  0.3501
92166W        W67154  30.712  29.904  18.486  0.0066  0.2353  0.0789
92167W        W67155  14.816   5.432  22.319 -0.1867  0.3131  0.1238
92168W        W67156  22.622   6.656  20.160  0.0766 -0.2574  0.2140
92169W        W67157   2.338  19.457  18.945  0.2115 -0.2133 -0.0486
92170W        W67158   5.104  20.753   4.831  0.1490  0.0818  0.2298
92171W        W67159  34.295  17.612  13.960  0.0525  0.1947 -0.0228
92172W        W67160  15.613  25.931   5.263 -0.0560 -0.0186 -0.0831
92173W        W67161   8.382  33.369  21.538  0.0304 -0.1940 -0.0067
92174W        W67162  17.060  12.862   7.289  0.0200 -0.1578  0.0656
92175W        W67163   1.384  10.017   4.628 -0.0550  0.1742 -0.0573
92176W        W67164  33.108  10.213  10.905 -0.1341  0.1015 -0.0705
92177W        W67165  29.871   0.071  24.422 -0.2848 -0.0125 -0.0411
92178W        W67166  32.398  11.252  23.828 -0.0241  0.1717 -0.1577
92179W        W67167  26.206  32.267   1.813  0.1179 -0.1430  0.0539
92180W        W67168   7.046   2.281   5.535  0.0840  0.2063  0.1282
92181W        W67169  27.767   5.007  11.734 -0.1483  0.1939  0.2992
92182W        W67170  34.588  21.258  20.382 -0.0540  0.2428 -0.4626
92183W        W67171   1.935  31.926   3.789  0.1349  0.0982 -0.0091
92184W        W67172   3.615   6.573  16.671 -0.0208 -0.2053  0.1243
92185W        W67173   3.660  29.686   0.373 -0.1322  0.0853 -0.0413
92186W        W67174  17.720  29.638  10.913 -0.0283 -0.0670 -0.0102
92187W        W67175  33.245   4.872   3.829 -0.2234 -0.4405 -0.1159
92188W        W67176  27.517  34.985  20.019  0.2442  0.3468  0.3481
92189W        W67177  30.564  16.517  11.069 -0.1072 -0.3695  0.0845
92190W        W67178   7.296  22.986  13.954 -0.1248 -0.0225 -0.3249
92191W        W67179  21.632  22.302   3.354  0.1621  0.0343  0.0758
92192W        W67180  14.533  10.440  22.977 -0.0852  0.1859 -0.2223
92193W        W67181   9.641  26.408  22.994 -0.3079 -0.1908  0.1168
92194W        W67182  21.549   7.227   1.437 -0.2183  0.1751  0.3875
92195W        W67183   3.435  22.427  17.700  0.1261  0.0990 -0.1731
92196W        W67184   3.978   8.719   0.737 -0.0279 -0.1055  0.1852
92197W        W67185  10.408  32.228  24.575 -0.0355 -0.0866  0.0267
92198W        W67186  17.777  33.904   1.962  0.1041  0.1746 -0.2125
92199W        W67187  12.941   7.611  10.942 -0.2524  0.1839 -0.0063
92200W        W67188  20.020  10.833   0.103 -0.0323  0.3649 -0.0778
92201W        W67189  32.260  28.345  14.469  0.2669  0.2382 -0.4516
92202W        W67190  27.095  29.983  24.767 -0.2470 -0.0876 -0.0553
92203W        W67191  24.706   7.220  25.976  0.2474  0.0086  0.0326
92204W        W67192  23.518   2.170   6.543 -0.6170 -0.1901 -0.1849
92205W        W67193  23.995  32.119  24.796 -0.1094  0.0933 -0.0813
92206W        W67194  24.752  25.938  14.351  0.0530 -0.0911  0.1606
92207W        W67195  17.283  31.951   8.261 -0.0197 -0.0613  0.0418
92208W        W67196  18.812   9.380  20.420 -0.1517 -0.3774 -0.1932
92209W        W67197   8.407  11.562   0.899 -0.1542 -0.1042  0.2401
92210W        W67198  28.218  23.048   9.613  0.0237  0.0934 -0.1547
92211W        W67199  11.525  31.898   0.762  0.3512  0.3263  0.3536
92212W        W67200  10.025  20.298   9.834 -0.0148  0.0090  0.3454
92213W        W67201   2.833   5.819   4.072 -0.0218 -0.4355 -0.0793
92214W        W67202   8.259   0.209   0.835 -0.0945 -0.4886 -0.3078
92215W        W67203  21.174  22.716  25.404  0.0247  0.0736 -0.0401
92216W        W67204   4.060  35.320  22.063 -0.1211 -0.0039  0.1396
92217W        W67205  29.578  32.267  21.144 -0.2041 -0.4019 -0.1415
92218W        W67206   0.569   7.014  23.658 -0.1696 -0.2511  0.1350
92219W        W67207  30.816  32.356   1.054 -0.2699  0.3630 -0.2650
92220W        W67208   9.418  18.784  22.506 -0.0693 -0.3069  0.1423
92221W        W67209   4.237  31.904  21.596  0.1457 -0.2897  0.1747
92222W        W67210  15.539  24.832  11.640 -0.0495  0.0450 -0.2730
92223W        W67211  31.252  28.907  12.139 -0.1600 -0.1509  0.2052
92224W        W67212  12.156   5.446  14.535  0.0581 -0.1416 -0.1916
92225W        W67213   4.386  10.352  25.135  0.1824 -0.0911  0.2236
92226W        W67214  34.400   7.520  14.200 -0.1799 -0.0583 -0.0008
92227W        W67215   1.622  27.344   5.201 -0.0580 -0.0853 -0.0695
92228W        W67216  34.746  35.108  25.625  0.1641 -0.2440  0.1074
92229W        W67217  25.238   7.465  24.380 -0.0514  0.6597  0.0578
92230W        W67218  17.890   1.125  17.969  0.2128  0.2359 -0.3728
92231W        W67219  12.052  22.832  10.938  0.0129 -0.1338  0.1546
92232W        W67220  29.994  10.311   9.807 -0.3167  0.0221  0.0276
92233W        W67221   9.456  33.336  12.751 -0.3722  0.0492  0.0196
92234W        W67222  16.018  33.639   2.833 -0.4010  0.0616 -0.2762
92235W        W67223   7.180  25.513  11.866  0.1027  0.0269 -0.2309
92236W        W67224  17.459  22.602  10.215 -0.0969 -0.0094  0.0387
92237W        W67225   9.545  11.237   8.805  0.2165 -0.4375 -0.0952
92238W        W67226   9.077   8.941  26.084 -0.3540  0.1648  0.1124
92239W        W67227  17.698  19.417  18.735 -0.0051 -0.0840 -0.1812
92240W        W67228  26.721  27.473  15.933 -0.0159 -0.0698 -0.1818
92241W        W67229   1.262   9.575  17.487  0.1635  0.1729  0.0798
92242W        W67230  34.914   8.281  19.172  0.3335 -0.0454 -0.0198
92243W        W67231   2.158  13.826  14.375 -0.1496  0.0752 -0.0599
92244W        W67232   5.557   6.694  18.013  0.1751  0.0217  0.0462
92245W        W67233  16.960  23.277   0.043 -0.1958  0.0062 -0.0427
92246W        W67234  25.130  11.527  19.386  0.2635 -0.0099  0.3982
92247W        W67235  31.843  24.989   8.754  0.2947  0.0108 -0.1510
92248W        W67236  19.133  19.868  24.995  0.0142 -0.0120  0.1893
92249W        W67237  25.660  13.931  18.550 -0.1588  0.2212  0.0308
92250W        W67238  29.490  20.626  22.015 -0.3845 -0.0439  0.3708
92251W        W67239  27.902  19.260  19.016  0.1268  0.2822  0.5006
92252W        W67240  26.375  19.926   6.579  0.2606 -0.1676  0.0889
92253W        W67241   2.874  16.282  19.763  0.2903 -0.0182  0.0731
92254W        W67242  23.727  19.566  21.049 -0.1683  0.1395 -0.3092
92255W        W67243  18.252   6.580  20.417 -0.1442 -0.2252  0.4661
92256W        W67244  31.014  25.370  24.670  0.2885  0.1496 -0.0268
92257W        W67245  17.187   9.719  20.838  0.1246 -0.0234  0.0594
92258W        W67246  25.862  35.275  13.946 -0.3424 -0.2127 -0.2081
92259W        W67247  21.535  29.714   5.094  0.2754  0.0382  0.1504
92260W        W67248   8.561   9.613  24.727 -0.1051  0.0778  0.0041
92261W        W67249  14.768  12.830   8.554  0.0709  0.0646 -0.1997
92262W        W67250  25.517   9.734  24.254 -0.0141  0.0696 -0.0496
92263W        W67251  25.364   2.932   2.060  0.1677 -0.0469  0.0170
92264W        W67252  21.456  31.590  22.959 -0.0573  0.1889 -0.0670
92265W        W67253  10.494  12.719   1.520  0.0157  0.1198  0.2671
92266W        W67254  35.216  26.118  15.606  0.1094 -0.0645 -0.4021
92267W        W67255   7.982   6.434   3.284 -0.0293  0.4408 -0.1306
92268W        W67256  10.994   0.244  24.537  0.0608  0.2249  0.1888
92269W        W67257  25.492   3.255  25.581  0.0067  0.1035  0.0550
92270W        W67258   8.454  16.574   2.031  0.1460 -0.2282 -0.3526
92271W        W67259   4.353  15.672  16.375 -0.1567 -0.0742  0.1384
92272W        W67260  34.823  20.538  16.771  0.0328 -0.3153 -0.0062
92273W        W67261  18.768  30.865   2.068 -0.0256 -0.0485  0.5200
92274W        W67262  26.437  26.961  13.375 -0.1714  0.1485 -0.1268
92275W        W67263  15.923  25.981  13.931  0.0368  0.0889 -0.2145
92276W        W67264   7.343  34.859  21.289  0.0226  0.3849  0.1696
92277W        W67265  16.976   6.772  18.260 -0.3848 -0.1975  0.2194
92278W        W67266   9.300  15.675  13.237  0.3387 -0.1239 -0.1063
92279W        W67267   4.948  22.895   0.422 -0.1506  0.3274  0.2256
92280W        W67268  33.254  24.556  23.969 -0.0271 -0.0815  0.1193
92281W        W67269  31.863  13.116  12.790  0.3866 -0.2866 -0.0192
92282W        W67270  19.476   6.310   1.662  0.1453 -0.0223  0.2087
92283W        W67271   7.277   7.760   4.619  0.0281  0.0885  0.0335
92284W        W67272  27.612  11.011   8.329 -0.0207  0.1705 -0.2020
92285W        W67273  17.850   5.420  19.412  0.1175 -0.3678  0.0677
92286W        W67274   8.404  15.373   3.537 -0.2455  0.2090 -0.4152
92287W        W67275  30.788  16.315  20.539 -0.1052 -0.2073 -0.1491
92288W        W67276   8.810  26.777  12.793  0.0107 -0.0969 -0.0742
92289W        W67277  22.058   9.101   4.628  0.2847  0.1231  0.1374
92290W        W67278  22.135  17.507  16.138 -0.1537  0.0638  0.3363
92291W        W67279  16.363  20.652  11.393 -0.2250  0.0996 -0.3810
92292W        W67280  17.983   4.591   0.591 -0.0851  0.3066 -0.0121
92293W        W67281  17.964  10.405  26.233  0.0283 -0.1572  0.0132
92294W        W67282   6.860   0.990   7.028  0.0039 -0.0197 -0.0663
92295W        W67283   2.054   5.262  16.924  0.0807  0.2408 -0.2652
92296W        W67284  32.275   5.050  18.401 -0.0227  0.0544  0.2832
92297W        W67285  24.431   4.145   3.698  0.0517 -0.0628  0.0574
92298W        W67286  26.822  12.160   8.104 -0.0542  0.1704  0.0491
92299W        W67287  13.509  21.467  13.845 -0.3621 -0.1989  0.0060
92300W        W67288  27.128   3.779  13.975  0.1583 -0.0895 -0.4540
92301W        W67289  34.102   2.756  21.009  0.0880 -0.1342 -0.1002
92302W        W67290  16.479   9.145   0.897 -0.1366  0.3140  0.3264
92303W        W67291   5.276  19.169   6.807  0.0540 -0.1800 -0.0875
92304W        W67292  20.020  32.746  21.751 -0.0494 -0.3019  0.1136
92305W        W67293  12.141   4.248  25.186 -0.0627 -0.2119 -0.1008
92306W        W67294  33.540  27.259  25.477 -0.3085  0.0301 -0.0010
92307W        W67295  19.610  23.729  19.489  0.2271  0.1866  0.0297
92308W        W67296   5.739  20.133  25.886  0.0060  0.0121  0.1175
92309W        W67297  15.195   4.453  24.502 -0.1658 -0.0867 -0.0215
92310W        W67298  14.752   2.772   0.727 -0.2285 -0.0364 -0.0526
92311W        W67299  27.619  25.119  10.338 -0.1203 -0.1438 -0.3667
92312W        W67300  22.864   1.454  12.965  0.3892  0.2092  0.0604
92313W        W67301  32.766  18.609  14.045  0.1366  0.0510  0.0132
92314W        W67302   7.253   4.210   2.712 -0.3387 -0.0079  0.0478
92315W        W67303  12.748   9.517   1.815  0.1648  0.2153  0.0606
92316W        W67304  30.303   5.623  19.833 -0.2260 -0.3133 -0.2584
92317W        W67305   5.997   0.918   8.795 -0.4572  0.0003 -0.0150
92318W        W67306  17.340   0.992  23.674 -0.3553  0.2143 -0.0484
92319W        W67307   6.891  33.680   5.640 -0.1359 -0.0532 -0.2991
92320W        W67308  34.343  22.727  18.546  0.0145 -0.0866 -0.0798
92321W        W67309  33.814  11.347   9.899 -0.0067 -0.0495  0.1472
92322W        W67310  16.338  23.876  22.277  0.1021 -0.1298 -0.0872
92323W        W67311   0.584  21.848  22.931 -0.0149 -0.1337 -0.1496
92324W        W67312  24.372   5.448   6.008  0.0504  0.2485  0.1590
92325W        W67313  29.370   8.120  25.675 -0.2293  0.0576 -0.3743
92326W        W67314  35.021   8.171  17.645 -0.1522  0.1427 -0.4935
92327W        W67315  23.611   1.627   1.179  0.2916  0.0097  0.1663
92328W        W67316   3.081  30.046  23.188  0.5069 -0.0406 -0.1401
92329W        W67317  22.706  18.067   2.042  0.0314 -0.2013  0.1696
92330W        W67318   1.912  23.903  23.890 -0.1205  0.0468  0.0406
92331W        W67319   0.375  15.390  22.557 -0.1798 -0.0039 -0.2469
92332W        W67320  25.055  14.909  15.527 -0.0894 -0.1354  0.0271
92333W        W67321   9.184  16.997  24.833 -0.1429 -0.1227 -0.0517
92334W        W67322  23.189  19.532  18.048  0.0976  0.0684 -0.1055
92335W        W67323  34.638  20.119  18.456 -0.2676 -0.0408 -0.1610
92336W        W67324  29.669  28.402  20.127 -0.0023 -0.3642 -0.0725
92337W        W67325  33.645   3.216  24.150 -0.0025 -0.0633 -0.0593
92338W        W67326  21.975  30.592  23.575  0.1178 -0.1001  0.0470
92339W        W67327  31.311  11.859  19.563  0.1859  0.1069 -0.0600
92340W        W67328  16.786  27.568   1.345 -0.0947  0.1088 -0.0156
92341W        W67329  30.951  23.376  12.297  0.3708  0.2464  0.1353
92342W        W67330   0.481   4.330  15.528 -0.1382  0.1044  0.2017
92343W        W67331  12.777  18.068   3.166  0.4845  0.3502 -0.3492
92344W        W67332  25.164  22.383  13.389  0.0140  0.1209  0.0125
92345W        W67333  10.993   0.349  14.404  0.1358 -0.1199 -0.2329
92346W        W67334  32.731  20.530  21.768  0.2991 -0.1712 -0.0126
92347W        W67335   7.909  18.863   2.529  0.1644 -0.0201  0.0593
92348W        W67336  13.987  30.656  13.625 -0.2770 -0.1054 -0.1061
92349W        W67337  16.744  18.008  19.391 -0.2961 -0.0066 -0.2172
92350W        W67338  17.999  10.964  20.262  0.3282 -0.3742 -0.3008
92351W        W67339   7.948  31.621  22.777  0.3833  0.1632 -0.4014
92352W        W67340   7.884  30.367  25.271 -0.0091 -0.0317 -0.6073
92353W        W67341  25.066  24.528  18.213  0.3479 -0.0685  0.1248
92354W        W67342  25.424  21.811  19.535  0.1446 -0.1172 -0.3342
92355W        W67343   1.907  31.414   2.987 -0.0103 -0.0543  0.1298
92356W        W67344  21.854   1.957   5.646 -0.1924 -0.0765  0.0229
92357W        W67345  22.916   0.285   5.788  0.0261  0.1165 -0.2202
92358W        W67346   2.312  30.422   0.806 -0.0333 -0.0146 -0.2918
92359W        W67347  15.919  33.252   0.551  0.0881 -0.1117 -0.2662
92360W        W67348  21.043   1.460  15.347 -0.1283  0.0478  0.1114
92361W        W67349  15.366  11.741   8.715  0.1111 -0.2032  0.2948
92362W        W67350  24.220  26.829  22.329  0.0032 -0.1205 -0.0706
92363W        W67351   1.471  22.968   3.585 -0.1017  0.0539 -0.2090
92364W        W67352  32.214   2.530   1.590  0.1997  0.2750 -0.1353
92365W        W67353   7.507  25.050   9.765 -0.0436  0.2379 -0.0508
92366W        W67354  35.360  33.709   6.413 -0.0686  0.1798 -0.3080
92367W        W67355  29.854  21.262   5.590 -0.0249 -0.3001 -0.0597
92368W        W67356  18.033   9.373   9.896 -0.3148 -0.0445  0.2027
92369W        W67357  20.761  11.016  15.946  0.2150 -0.0752  0.0757
92370W        W67358  32.793  31.008  17.968 -0.0895  0.2085  0.0032
92371W        W67359   6.716  31.280  22.200 -0.2656  0.0679  0.1714
92372W        W67360  31.080   2.041  14.798  0.2748 -0.1319  0.1378
92373W        W67361  15.862   1.992   4.167  0.0460 -0.1232 -0.1717
92374W        W67362  12.411   0.404  21.698  0.2871  0.0349  0.1028
92375W        W67363  30.904  31.714   1.596  0.3633 -0.1234 -0.3961
92376W        W67364   8.961   3.757  12.948  0.1499  0.5180 -0.2549
92377W        W67365  29.847  18.064  22.179  0.0544  0.4897 -0.2760
92378W        W67366   4.029  33.711  21.252 -0.4745 -0.1269 -0.4023
92379W        W67367  22.463  16.624  23.538 -0.0353 -0.2126  0.0326
92380W        W67368  29.239  31.931   2.826  0.0083  0.2702  0.1922
92381W        W67369  27.978  21.252  12.801 -0.4910  0.3650 -0.0881
92382W        W67370  22.859  34.484   6.139  0.1779 -0.0913  0.1442
92383W        W67371  19.507   6.104  26.166 -0.1461 -0.0380  0.1295
92384W        W67372  12.017  33.979   3.651  0.3398 -0.1272  0.0910
92385W        W67373  13.907   6.695   9.039 -0.2655  0.0006 -0.0956
92386W        W67374  15.764   9.049  12.790 -0.2711 -0.0157 -0.2484
92387W        W67375  31.968  21.158  10.325 -0.1560  0.2230  0.4125
92388W        W67376  14.344  24.484  16.970  0.0223  0.3634  0.1121
92389W        W67377   6.861  20.758   3.533  0.2422  0.2562  0.0256
92390W        W67378  26.340   5.151  17.894 -0.1196 -0.0992  0.1040
92391W        W67379  13.274  15.644  24.707  0.0519 -0.0546  0.1775
92392W        W67380  13.049  20.757   8.156  0.1755  0.2407 -0.0799
92393W        W67381  24.877   4.007  19.716  0.0601  0.2792  0.0812
92394W        W67382   3.061  14.999  18.570 -0.3009 -0.2542  0.1709
92395W        W67383  25.608   0.447  22.029  0.0976 -0.1681 -0.0926
92396W        W67384  11.670  28.723  14.761  0.2622 -0.1905 -0.1354
92397W        W67385  35.133  24.896   1.215 -0.0578  0.0929 -0.0441
92398W        W67386  19.984  32.144  25.094 -0.0744 -0.0232 -0.2490
92399W        W67387  12.108   5.554   8.554  0.1364  0.0974  0.2529
92400W        W67388   8.400  28.154  22.369  0.2108  0.2808 -0.3083
92401W        W67389  20.226  21.516  20.961 -0.0890  0.1635 -0.1860
92402W        W67390  19.028   3.478  21.228  0.0599 -0.0219 -0.1592
92403W        W67391   5.901  27.065  13.376  0.0245  0.0850 -0.1331
92404W        W67392   7.144  22.318  21.054 -0.0519 -0.0137 -0.0295
92405W        W67393  19.699  25.349  22.577  0.1215  0.0614  0.3276
92406W        W67394  29.762  13.298  10.236 -0.0128  0.4941  0.1708
92407W        W67395   9.815  14.074   9.937  0.2190  0.1321  0.0919
92408W        W67396  23.862  13.318   0.337  0.4494  0.0816 -0.1916
92409W        W67397  32.337  15.601  16.330 -0.0468  0.1578 -0.0708
92410W        W67398   7.014  17.948  21.565 -0.2672 -0.1136 -0.1047
92411W        W67399  10.611  12.369   6.097  0.2118 -0.0991 -0.0792
92412W        W67400  16.792  16.385  20.721  0.0784 -0.2043 -0.1833
92413W        W67401  11.545  22.496  24.178 -0.2436 -0.0821  0.2135
92414W        W67402  11.936  17.153   9.712  0.2729 -0.2240 -0.0752
92415W        W67403  25.362  32.436  16.073 -0.2312  0.2654  0.2948
92416W        W67404  30.645  19.404  11.567  0.0782  0.0213  0.2813
92417W        W67405   6.191   5.154  19.299 -0.1514 -0.0520  0.0351
92418W        W67406  24.879  33.434   2.411  0.2601 -0.0414  0.2396
92419W        W67407  34.099  34.193  18.817  0.0173 -0.3273  0.0503
92420W        W67408   7.836  23.895  11.366 -0.1584 -0.0317  0.0947
92421W        W67409   9.837  28.918   3.629 -0.0252 -0.0962  0.2557
92422W        W67410  32.710  10.771   7.553 -0.0358 -0.0636  0.2160
92423W        W67411  11.875  22.142  12.041  0.1728 -0.4518  0.2012
92424W        W67412   2.337  26.390  23.289  0.0540  0.1571 -0.1366
92425W        W67413   7.156  11.881  10.864  0.1787 -0.3398  0.1427
92426W        W67414   0.402  14.501   9.384 -0.0895  0.0902  0.0590
92427W        W67415   5.994   1.350   3.432  0.1408 -0.3470 -0.1997
92428W        W67416  14.266  32.456   7.805  0.1019 -0.1556  0.1026
92429W        W67417  33.577  30.305   6.839 -0.0769 -0.0149  0.1108
92430W        W67418  17.170  26.592   9.712  0.4202 -0.4175 -0.4536
92431W        W67419  28.964  17.682   3.675  0.1337  0.1752 -0.2830
92432W        W67420  13.988   8.334  10.627 -0.4165 -0.1111  0.1173
92433W        W67421  35.172  21.217   0.176  0.0428  0.2016 -0.0898
92434W        W67422   6.346  16.106   5.340  0.0448 -0.0847  0.1339
92435W        W67423  15.097  13.629   9.007  0.1778  0.1228  0.1154
92436W        W67424  10.595  26.525   4.601  0.1286 -0.0412 -0.1734
92437W        W67425   6.153   0.387  25.132  0.3639 -0.1882  0.0062
92438W        W67426   5.899  20.201   0.905  0.0781  0.2797 -0.0327
92439W        W67427  25.820  34.399  15.287 -0.1779  0.0974  0.0671
92440W        W67428  15.485  22.463  14.981  0.0320  0.0969  0.0392
92441W        W67429   7.603  27.671   4.821  0.0407 -0.1368 -0.0674
92442W        W67430   5.255  13.840   0.159  0.0881  0.0939 -0.0265
92443W        W67431   1.301  26.921   5.282  0.0482 -0.0990 -0.0516
92444W        W67432   1.021  29.031  23.869 -0.0711  0.1810 -0.2309
92445W        W67433   3.674   2.095  22.076 -0.2210 -0.2352  0.1657
92446W        W67434  19.959  16.807   0.457 -0.0053  0.0640 -0.1183
92447W        W67435  27.880  29.729   0.031  0.2263 -0.0231 -0.1983
92448W        W67436  33.079  31.940  15.733  0.0369 -0.2709  0.1637
92449W        W67437  23.423  31.210   3.931  0.1398 -0.2790 -0.1465
92450W        W67438  11.626   7.519   0.555 -0.0225  0.2719 -0.0331
92451W        W67439   0.973  28.835   0.817 -0.0354 -0.0783 -0.1683
92452W        W67440  31.715   0.102  24.436 -0.0514 -0.0979  0.1183
92453W        W67441   7.326  34.752  23.998  0.0839 -0.2820 -0.3290
92454W        W67442  23.012   2.521  15.066 -0.0470 -0.0132  0.2587
92455W        W67443   4.741  10.419   6.310  0.0057  0.0838  0.0018
92456W        W67444  25.769  16.992   8.638  0.2430 -0.0555  0.1936
92457W        W67445  30.827   4.598  19.107 -0.0204  0.1184 -0.1011
92458W        W67446  33.881  14.874   7.006  0.1008  0.1733 -0.0180
92459W        W67447  22.370  34.228  16.151 -0.1384 -0.0967  0.0423
92460W        W67448  28.111   8.357  14.856 -0.0833  0.1656  0.0918
92461W        W67449   1.697  33.030  17.452  0.0661  0.0328  0.1134
92462W        W67450  22.205  11.771   0.191 -0.0054 -0.2155 -0.2108
92463W        W67451   4.783  16.849  24.126 -0.3790  0.0367  0.0145
92464W        W67452  23.082  25.392  22.900  0.2268 -0.1902 -0.2122
92465W        W67453  22.631  10.467  17.737 -0.0060  0.0117 -0.1152
92466W        W67454   7.702  30.821  22.288 -0.0693 -0.0829  0.0602
92467W        W67455  31.838  32.710  22.399 -0.1320 -0.2973 -0.1638
92468W        W67456  29.510  14.035  11.488  0.2498 -0.0394  0.0559
92469W        W67457   2.155   0.263  17.522 -0.0119  0.1103  0.3553
92470W        W67458   0.612  22.352   2.386 -0.2328  0.1746 -0.2925
92471W        W67459  15.743  11.663  24.521  0.2594  0.0559  0.1320
92472W        W67460  12.987   0.510  12.687 -0.3432  0.3223  0.4829
92473W        W67461  30.280  24.395   6.798 -0.1769  0.0172 -0.2526
92474W        W67462   3.236  28.070   4.688  0.0402  0.0228  0.0877
92475W        W67463   7.226   7.383   3.807  0.0514 -0.0023  0.1396
92476W        W67464   0.558  14.185  16.628  0.3755  0.1447 -0.1585
92477W        W67465  27.959  28.953  22.033 -0.4039  0.0043 -0.2158
92478W        W67466   3.432   0.908   3.851  0.0211  0.1335  0.2278
92479W        W67467   4.548   9.592  18.518 -0.2254 -0.0882  0.0996
92480W        W67468  26.083   4.856  16.185  0.2256 -0.3306 -0.1112
92481W        W67469   5.940  32.376   6.909 -0.2112 -0.0030  0.1244
92482W        W67470  31.254  18.205  24.939  0.1802 -0.3517 -0.2371
92483W        W67471   3.226  11.505  19.206  0.2227 -0.1423 -0.0118
92484W        W67472   8.901   7.018  21.992 -0.1397  0.0317 -0.1039
92485W        W67473  25.480   9.652  22.286 -0.2746 -0.1412 -0.0325
92486W        W67474   0.836  21.163  24.853  0.0157 -0.1488 -0.1352
92487W        W67475   1.588  26.416  25.505  0.1280 -0.1137  0.4247
92488W        W67476   2.787   1.003  24.927 -0.0719 -0.0275 -0.0282
92489W        W67477  31.270  34.871   0.200  0.1163 -0.1773 -0.1802
92490W        W67478  14.774  15.301  24.009  0.1711 -0.1488  0.1439
92491W        W67479  13.854  12.169   9.226 -0.1575 -0.0793  0.0378
92492W        W67480  35.325  26.641   1.897  0.0779 -0.1145 -0.1544
92493W        W67481  30.240  28.577  22.532 -0.4707  0.1698  0.2276
92494W        W67482  34.300   9.238  20.448  0.1072 -0.2394  0.1743
92495W        W67483  19.660  23.560   8.437  0.0363 -0.1685  0.1698
92496W        W67484  10.927  22.525  25.889  0.0413 -0.1344  0.0913
92497W        W67485  34.834   9.791  19.184 -0.3300  0.1116  0.2319
92498W        W67486   8.797  18.891   5.411  0.2935  0.1873 -0.0052
92499W        W67487  27.775  35.254  22.811 -0.0721 -0.2627  0.1990
92500W        W67488  19.773  22.904   3.663  0.0629  0.0479 -0.2039
92501W        W67489   6.246  17.494  21.610 -0.0751  0.3298  0.1373
92502W        W67490  10.759  24.347  16.521 -0.0881 -0.0836  0.0158
92503W        W67491  17.907  16.245   7.478  0.0697  0.0218 -0.0183
92504W        W67492   1.802  13.165  17.619 -0.2912 -0.1155 -0.0302
92505W        W67493  31.023  13.016  11.552  0.1400  0.2899 -0.1475
92506W        W67494   3.497  21.630  17.454  0.2898 -0.5066  0.2571
92507W        W67495  30.227  27.511   1.375  0.0640 -0.5322 -0.0833
92508W        W67496  33.453  28.974  22.943 -0.4152 -0.0441 -0.1695
92509W        W67497  21.490  21.148  23.790  0.1048  0.1198 -0.0902
92510W        W67498   9.395  13.236  23.085  0.1154  0.1803 -0.0225
92511W        W67499   4.831  21.715  18.788 -0.2844  0.0097 -0.1874
92512W        W67500  15.801  10.334   2.458  0.2110 -0.1032 -0.2598
92513W        W67501   9.312  31.787  23.119  0.3153 -0.0893  0.0782
92514W        W67502   0.682   5.844  14.436  0.0590 -0.3604  0.3723
92515W        W67503  24.958  33.059  11.691 -0.0063  0.2541  0.0120
92516W        W67504  11.769  10.418  22.835  0.0004 -0.1089  0.1496
92517W        W67505  20.819   3.996  16.347 -0.0148  0.0836 -0.2594
92518W        W67506   4.604  24.682  19.992  0.4075 -0.1320 -0.0713
92519W        W67507  27.444  31.990   2.376  0.1165 -0.0271  0.2435
92520W        W67508  31.836  17.793  22.915  0.1230  0.0565  0.3578
92521W        W67509  12.806  19.749   2.758  0.1852  0.2084 -0.2358
92522W        W67510  12.438  14.164   8.245 -0.0982  0.1757  0.0145
92523W        W67511  26.659  25.576   1.566  0.0787  0.1739 -0.3491
92524W        W67512  32.795  18.055   0.202  0.0412  0.2182  0.3730
92525W        W67513  34.005  11.963  24.772  0.2632 -0.0659 -0.1877
92526W        W67514  35.329  13.173  16.463  0.0703 -0.0670  0.0947
92527W        W67515  14.323  10.622   5.277  0.2375 -0.0824  0.2246
92528W        W67516  34.555  23.267  17.806  0.0232  0.1643  0.0584
92529W        W67517  28.956   8.184  10.069 -0.1838 -0.0079  0.0177
92530W        W67518   8.145   1.455  21.582 -0.1366 -0.3036 -0.0754
92531W        W67519   8.371  13.738  24.439  0.1592 -0.3189  0.0430
92532W        W67520   0.129   5.223   4.903  0.0169 -0.2183  0.1374
92533W        W67521  32.016  23.791  20.045 -0.0335  0.0855 -0.0548
92534W        W67522  30.114  27.395  25.844 -0.0769 -0.1490 -0.2637
92535W        W67523   6.841  30.317   1.402  0.0888 -0.1930 -0.1213
92536W        W67524  15.386  31.466   8.911  0.3166  0.2355  0.1650
92537W        W67525   2.551  33.005   8.325  0.1375 -0.0214 -0.0262
92538W        W67526  17.817  17.701  18.876  0.0121  0.0974 -0.1475
92539W        W67527  25.530  24.703  19.033 -0.2137 -0.0328 -0.1251
92540W        W67528   8.784   8.755   9.618 -0.1429 -0.0830  0.0241
92541W        W67529   2.759  19.892   3.036  0.1538  0.3408 -0.0128
92542W        W67530  34.539   0.633   7.407  0.0157 -0.3063  0.0158
92543W        W67531  30.800  22.937  13.424 -0.2464  0.1789  0.4519
92544W        W67532  15.689  17.090  20.243  0.2747  0.2667 -0.1243
92545W        W67533  22.518   4.033   3.079  0.0341  0.0504 -0.2165
92546W        W67534   4.903  12.337  18.602 -0.3225 -0.1948 -0.0749
92547W        W67535  23.362  23.625  22.142  0.1931 -0.1133  0.1705
92548W        W67536  25.638   4.812   1.616  0.0432  0.2517  0.3104
92549W        W67537   1.954  33.739  23.565 -0.4908 -0.2343  0.1052
92550W        W67538  33.442   6.697  11.707 -0.2254 -0.0161  0.0024
92551W        W67539  22.740  18.483  23.855  0.0718  0.3615 -0.0765
92552W        W67540  11.067   4.514   8.337 -0.0952  0.0461 -0.2448
92553W        W67541  23.096  29.316  16.824  0.1629 -0.1061  0.3992
92554W        W67542  20.671  20.172  21.726 -0.1020  0.0980 -0.0147
92555W        W67543  11.793  34.464   8.179  0.5762  0.2531 -0.1008
92556W        W67544  25.393  11.549   1.714 -0.0118  0.0999 -0.4532
92557W        W67545  16.611  10.504  20.782 -0.2561  0.1561  0.0799
92558W        W67546   1.122  14.750   2.110  0.0596  0.4800  0.1333
92559W        W67547  18.213   6.480   8.552 -0.1972 -0.3178 -0.0015
92560W        W67548  18.121  27.298   8.594 -0.0783  0.2076 -0.0142
92561W        W67549   2.905  17.878  15.643  0.0203  0.0071 -0.2381
92562W        W67550  11.790  12.252   2.862 -0.0863  0.1221 -0.2006
92563W        W67551  25.158  18.814  19.671  0.0129  0.1696 -0.1125
92564W        W67552  29.989  13.379  14.268 -0.3210 -0.0354  0.0677
92565W        W67553  14.482   7.724   5.585  0.3283 -0.0575 -0.0126
92566W        W67554   5.236  18.300  23.706 -0.0757 -0.2202  0.2190
92567W        W67555  19.935   7.308  24.638 -0.0205  0.3320 -0.1420
92568W        W67556  30.807  19.947   8.692 -0.0357 -0.1450 -0.2953
92569W        W67557  22.924   0.511  17.024  0.0142 -0.1249  0.0716
92570W        W67558   0.765  32.817  24.069 -0.1599  0.1975 -0.2199
92571W        W67559  13.762   5.288   9.117  0.4828 -0.0649 -0.0331
92572W        W67560  10.423  18.923  13.135 -0.0204 -0.2598 -0.0842
92573W        W67561   2.935  12.127  21.541 -0.1951  0.1177  0.1644
92574W        W67562   1.393   0.878  21.300  0.0158 -0.2025  0.1229
92575W        W67563  24.234   5.021   3.724  0.0663  0.0096 -0.1584
92576W        W67564   1.005  22.923  12.653  0.1063  0.1134 -0.0435
92577W        W67565  17.865   0.384   0.178 -0.0656 -0.1655  0.1168
92578W        W67566  14.286   3.357   2.116  0.1067 -0.0225 -0.2263
92579W        W67567  32.895   9.600  26.072  0.2601 -0.0053  0.0938
92580W        W67568  34.694  13.340   1.478 -0.0899 -0.1153  0.3979
92581W        W67569  15.795  14.938  13.453  0.0931 -0.1991  0.3160
92582W        W67570  24.869  12.348  25.490 -0.3485 -0.2411 -0.2588
92583W        W67571  23.362  11.375  19.459  0.2080 -0.0912 -0.1382
92584W        W67572  17.131  10.683  20.263  0.0737 -0.3695 -0.1205
92585W        W67573  20.034  21.648  23.697 -0.1481  0.0160 -0.2424
92586W        W67574  31.512  33.881  15.289  0.0765 -0.1421  0.1334
92587W        W67575  15.687  32.058   7.690  0.3201  0.1613 -0.1068
92588W        W67576  31.113   1.563  12.069 -0.0672  0.0099 -0.1779
92589W        W67577   3.949   4.145   7.656 -0.0324 -0.0138 -0.0581
92590W        W67578   8.619   7.073  22.993  0.0853  0.1935 -0.1876
92591W        W67579  30.517  32.378   2.661  0.0113 -0.2973  0.1617
92592W        W67580   2.478  22.191  22.517  0.1279 -0.2367  0.0340
92593W        W67581  17.310  20.877   7.192  0.1586 -0.1606  0.0577
92594W        W67582   1.793   8.134  21.508  0.3214  0.2637  0.1350
92595W        W67583   9.519  18.265   7.784  0.1355  0.1669 -0.2089
92596W        W67584  13.698  27.615   5.682  0.0033 -0.2474 -0.2866
92597W        W67585  32.597  19.317  14.651 -0.0081 -0.1534 -0.0560
92598W        W67586  15.075  13.731   1.849 -0.1152 -0.2340 -0.0328
92599W        W67587  26.260  19.605  17.985  0.1477  0.1215  0.0352
92600W        W67588  33.444  16.422  23.435  0.0033 -0.1705  0.0188
92601W        W67589  20.948  17.209  15.428  0.2114 -0.0275 -0.0649
92602W        W67590  32.138  14.702  24.731 -0.1009  0.1172 -0.0637
92603W        W67591  16.492  25.901   7.878  0.0299  0.0981 -0.3359
92604W        W67592  17.398  30.726  20.764  0.1354 -0.0952 -0.3715
92605W        W67593   0.668  17.853  19.062 -0.3403  0.0122 -0.0552
92606W        W67594   1.283   3.956  25.018  0.0791  0.2635 -0.0029
92607W        W67595  28.853  18.953   6.499 -0.3490 -0.1804  0.1824
92608W        W67596  24.351  27.831  22.030 -0.0061 -0.0655  0.1759
92609W        W67597  10.230   6.249  19.223  0.2992  0.1241  0.3527
92610W        W67598  28.396   0.812   4.440  0.1036  0.0714 -0.0616
92611W        W67599  29.969   2.545   5.278 -0.0036 -0.4014  0.0538
92612W        W67600  17.136  17.309  24.249  0.0206 -0.1494 -0.0815
92613W        W67601  26.165  24.731  10.283  0.2103 -0.0782 -0.2546
92614W        W67602   8.951  20.418  25.159  0.0382 -0.1004  0.1717
92615W        W67603  14.999  23.689  25.118 -0.0350 -0.2259  0.0109
92616W        W67604   1.367  20.375  17.393  0.1597  0.1226  0.2030
92617W        W67605  25.608   6.794  14.316 -0.1664 -0.0504 -0.0352
92618W        W67606   3.980  21.549  19.968 -0.0836  0.1783 -0.0749
92619W        W67607  23.120   7.066   2.741  0.3566 -0.1976 -0.0484
92620W        W67608  29.696   7.312  18.501 -0.2062 -0.1306 -0.0118
92621W        W67609  18.225  31.776  21.354  0.0833  0.4113  0.1043
92622W        W67610  14.648  34.494  11.878 -0.3449 -0.0099 -0.1712
92623W        W67611  33.728   8.468  10.845 -0.2134 -0.1322  0.0045
92624W        W67612  11.360  22.241  24.919 -0.0212  0.2924 -0.2100
92625W        W67613  31.230  15.063   5.286  0.3153  0.0017 -0.0077
92626W        W67614   4.009  10.097  19.798  0.0027  0.3712 -0.0213
92627W        W67615  30.611  12.241   7.069  0.2219 -0.0189  0.0562
92628W        W67616  34.584  32.574  18.915  0.1512 -0.0887  0.1657
92629W        W67617  10.023  29.550   1.393 -0.0471  0.0617  0.0393
92630W        W67618  13.991  18.457  10.486 -0.0795  0.0254  0.1385
92631W        W67619  33.071   6.321  14.084  0.1045  0.2038  0.3762
92632W        W67620  22.753   8.486  19.771 -0.3524  0.1649  0.1461
92633W        W67621  21.800  22.895  16.692  0.1041  0.1565  0.2418
92634W        W67622  20.599   0.994   5.464 -0.2973 -0.0663  0.1406
92635W        W67623  30.406   2.633  14.453  0.2252 -0.0286 -0.1662
92636W        W67624  26.667   5.922  11.470 -0.0010 -0.1775  0.0289
92637W        W67625  11.772  12.750  11.611 -0.0852  0.0890 -0.0316
92638W        W67626  10.530   2.982   3.410 -0.0291  0.1056  0.0882
92639W        W67627  24.012  24.673  14.909 -0.0450  0.3668 -0.1522
92640W        W67628  25.008  25.981   0.949  0.2018 -0.0898  0.1332
92641W        W67629  27.955  15.785   7.599 -0.0451 -0.0421 -0.2842
92642W        W67630  28.553   6.083  19.546  0.0186 -0.0468  0.2489
92643W        W67631   9.159   1.070  10.486  0.1332  0.1776  0.2610
92644W        W67632  31.711   1.222  25.250  0.0567  0.1048 -0.4070
92645W        W67633  12.213   1.509   7.821  0.2007 -0.0211  0.0323
92646W        W67634  23.381  10.356  22.536 -0.3014  0.0770  0.2593
92647W        W67635  21.675   6.299   1.763  0.0881 -0.4064  0.4109
92648W        W67636   5.477  12.887  16.740 -0.1117 -0.0988 -0.1039
92649W        W67637  27.845  33.569  17.626 -0.5618 -0.2389 -0.1982
92650W        W67638  21.231   1.143   2.525 -0.0093  0.1372 -0.2802
92651W        W67639  17.055  15.358  18.643 -0.0726  0.2435  0.1100
92652W        W67640  33.643  12.628   9.632 -0.3142  0.1402 -0.0413
92653W        W67641  12.102  18.016   0.301  0.1226  0.0530 -0.2321
92654W        W67642   8.371  13.841   9.054 -0.0949 -0.2609  0.1716
92655W        W67643   8.211  19.185  24.047  0.4417  0.0516 -0.1467
92656W        W67644  10.322  27.272  16.757 -0.3590 -0.2286 -0.0084
92657W        W67645  15.215  22.424   4.849  0.3319  0.1084 -0.3493
92658W        W67646   1.351  22.706  17.449 -0.1567 -0.1784 -0.4520
92659W        W67647  34.934  34.303  24.772  0.1150 -0.0919 -0.2320
92660W        W67648  10.718  24.766  18.151  0.3079  0.0009 -0.2270
92661W        W67649  25.226  29.691   3.743 -0.0685  0.5398 -0.1039
92662W        W67650  24.861  11.455  11.969  0.1606 -0.2119 -0.0569
92663W        W67651  13.757  18.998   8.390  0.0125 -0.1587 -0.5197
92664W        W67652  18.718  15.034  22.033 -0.1323  0.1087  0.1795
92665W        W67653  33.932   8.546  14.935  0.2893 -0.0111 -0.1307
92666W        W67654  25.677  15.687  23.107  0.0567 -0.1612  0.2683
92667W        W67655  21.880   8.188  23.115 -0.1685  0.0902 -0.0846
92668W        W67656  18.671  32.590   9.315  0.0271 -0.0665  0.2175
92669W        W67657  15.838   8.937  18.138 -0.2391  0.1088 -0.3201
92670W        W67658   5.692  32.918  24.281 -0.0638 -0.0606 -0.2602
92671W        W67659   9.101  14.542  12.156 -0.0576  0.2087 -0.1457
92672W        W67660  10.456  15.761  10.628  0.2379  0.0699 -0.3084
92673W        W67661  23.217  10.506  17.709 -0.1925  0.1797 -0.1280
92674W        W67662   2.851  29.679   7.851  0.0442  0.3248  0.0594
92675W        W67663   6.933   2.700   1.171 -0.2387  0.2513 -0.0298
92676W        W67664  13.850  14.246   9.087 -0.1861 -0.0100 -0.0114
92677W        W67665  13.826  16.245   3.890  0.3026 -0.2781 -0.0319
92678W        W67666  11.055  20.493  25.157 -0.5607  0.0724 -0.4021
92679W        W67667  16.158  22.085  23.694 -0.1128 -0.0964  0.0914
92680W        W67668  30.455  25.096  14.477 -0.1942  0.1049 -0.0349
92681W        W67669  17.627   3.219   1.710 -0.0020  0.1293  0.1122
92682W        W67670  27.306   3.879   1.139  0.1722  0.0927  0.1025
92683W        W67671  22.942   6.591  21.552  0.0934  0.0782  0.3593
92684W        W67672  12.469  31.966  24.080 -0.1000  0.1666 -0.1956
92685W        W67673   5.399   5.166   9.194 -0.2149 -0.2085  0.0283
92686W        W67674  15.434  22.813  16.599  0.0912  0.0327 -0.3075
92687W        W67675  18.107  33.500  24.996  0.0368 -0.0297 -0.1007
92688W        W67676  27.404  17.165  22.994 -0.2726  0.0055 -0.2447
92689W        W67677  17.351   9.694  12.598 -0.2587  0.1924  0.0554
92690W        W67678  21.234   2.110  20.468 -0.0815  0.2902 -0.2310
92691W        W67679   0.560  14.539  19.789  0.1455 -0.2197  0.3346
92692W        W67680  16.996  16.374   7.388 -0.0135  0.1497 -0.0637
92693W        W67681   3.883  30.245  24.138 -0.1264  0.1089 -0.1732
92694W        W67682   6.808  32.933  24.831 -0.1531  0.2867  0.0840
92695W        W67683  10.814  13.091  12.438 -0.2319 -0.4219  0.1218
92696W        W67684  16.452   0.105  22.782 -0.1995 -0.1621 -0.2748
92697W        W67685  19.294   9.735   6.283  0.0450 -0.1828  0.1855
92698W        W67686   7.471  18.521  24.391 -0.1817 -0.0310 -0.3080
92699W        W67687   5.546  28.100   7.244  0.1407 -0.0270 -0.1590
92700W        W67688  11.240  10.208   5.943  0.1593  0.0137  0.1239
92701W        W67689   4.349  32.911   4.550 -0.0570 -0.0468 -0.2836
92702W        W67690   1.037   6.567   1.950 -0.0726 -0.0737  0.0858
92703W        W67691  14.427   7.379   8.052  0.0500  0.1138 -0.0502
92704W        W67692  35.050  20.745  24.538 -0.0043  0.3375  0.2905
92705W        W67693  22.003  33.952  23.491 -0.1559 -0.0355  0.1091
92706W        W67694  24.111  33.222   1.988 -0.2142 -0.2599 -0.3024
92707W        W67695  32.360   6.770  11.892  0.0019  0.2205 -0.0830
92708W        W67696  20.549  22.667  23.209 -0.0663 -0.1897  0.0136
92709W        W67697  32.615   4.310   4.008  0.0858 -0.0248  0.2732
92710W        W67698   9.560  28.584   5.394 -0.0185 -0.1035  0.0612
92711W        W67699  22.073   4.392  19.468  0.2671 -0.0023  0.0621
92712W        W67700  34.440  25.942   2.147 -0.0171  0.1701  0.2340
92713W        W67701  19.694  23.721  10.734 -0.1056  0.1382  0.2534
92714W        W67702  33.559  19.548  24.509  0.5204  0.1157 -0.0353
92715W        W67703   4.768   9.437  24.378 -0.3436  0.0373  0.3745
92716W        W67704  15.078  31.952  10.928  0.1174 -0.1135  0.2106
92717W        W67705  11.716  25.319   6.362 -0.0054  0.3404 -0.1755
92718W        W67706  23.583  25.320  16.333 -0.2624 -0.1207  0.3460
92719W        W67707  17.570  27.556  10.358  0.0937 -0.0940 -0.0894
92720W        W67708  33.937  22.243  12.267  0.2926  0.0694 -0.1868
92721W        W67709  29.185  33.108  15.397  0.1995 -0.1932  0.0647
92722W        W67710   8.403   6.865   3.300  0.0311  0.0798  0.0882
92723W        W67711  34.714  29.037  24.687 -0.0504 -0.1474 -0.1927
92724W        W67712   4.731   2.830  24.380 -0.2088 -0.1131  0.0947
92725W        W67713  26.049  32.889  16.561 -0.1391 -0.0042 -0.0808
92726W        W67714  32.113  26.969   1.981 -0.0865 -0.2403 -0.3960
92727W        W67715  29.493  21.969  15.219  0.0116 -0.1868 -0.2530
92728W        W67716   3.016  33.160  23.087 -0.1533  0.1204 -0.1087
92729W        W67717  19.418   2.946   5.817  0.2404 -0.0618 -0.0379
92730W        W67718   5.658  20.262  24.616  0.0806  0.1610 -0.2985
92731W        W67719  17.059   0.889  24.642 -0.0297 -0.1625  0.1068
92732W        W67720  26.890  25.224   0.826 -0.1129 -0.1007  0.3167
92733W        W67721  12.474   2.414  21.161  0.3900 -0.0345  0.0961
92734W        W67722  13.872  22.957  10.271  0.0688 -0.1420  0.3188
92735W        W67723  12.460   4.866   6.667 -0.0245  0.1726  0.1051
92736W        W67724   9.808  26.672  22.537 -0.0265  0.0622 -0.1057
92737W        W67725  20.109  31.528  23.411 -0.1221 -0.0882  0.1535
92738W        W67726  21.305   3.184  21.254 -0.0682  0.4411 -0.0896
92739W        W67727  28.164   4.640  11.712  0.0680  0.3662  0.0467
92740W        W67728   3.535   5.052   7.935  0.0368  0.1781  0.1590
92741W        W67729   0.365   1.151   7.982  0.0539 -0.1982  0.0391
92742W        W67730   9.729  12.082   3.096 -0.2627  0.0140  0.1872
92743W        W67731  21.944  31.540  19.797 -0.0119 -0.1235 -0.0006
92744W        W67732  22.293  26.905   5.357  0.2554 -0.0800  0.0046
92745W        W67733  12.641  21.845  25.228 -0.1396 -0.0271 -0.0743
92746W        W67734   7.901  26.859  22.407  0.0056  0.0407  0.3217
92747W        W67735  16.736   4.444  25.636  0.1316  0.2171 -0.1183
92748W        W67736   9.128  11.997   3.049 -0.0726 -0.1143 -0.4072
92749W        W67737  16.954  14.677   2.192 -0.3829 -0.0904 -0.0550
92750W        W67738  30.149  13.537  25.244 -0.2576  0.0992 -0.1189
92751W        W67739  26.448   9.317  13.940 -0.1146 -0.0676 -0.0265
92752W        W67740   0.500  13.883  15.350  0.2312  0.1191  0.3574
92753W        W67741  30.137   5.758  22.968  0.0302 -0.1204 -0.1651
92754W        W67742  20.230  27.031  24.345 -0.0888 -0.1559 -0.6066
92755W        W67743   9.406  22.987  15.925  0.1955 -0.1192 -0.1123
92756W        W67744  33.909  16.976  12.269  0.0153 -0.1033  0.1007
92757W        W67745  26.924   8.297  18.677 -0.1766  0.1135  0.2142
92758W        W67746  16.033  30.108  22.913 -0.0230  0.1997  0.2047
92759W        W67747  28.147  14.580   8.891 -0.1750 -0.1263  0.0086
92760W        W67748   8.127  13.692  11.805 -0.1479 -0.0165  0.2121
92761W        W67749  25.566  23.855  14.181 -0.2946 -0.0086 -0.0789
92762W        W67750  28.826   8.116  21.622  0.0588  0.2199 -0.1151
92763W        W67751  29.298  22.917   9.518  0.1368  0.0093  0.1029
92764W        W67752  19.363  18.066  22.100  0.0970 -0.1105  0.3174
92765W        W67753  15.817  27.123   7.923  0.0578 -0.0006  0.0144
92766W        W67754   2.067   7.815  25.856  0.0088 -0.1598  0.5562
92767W        W67755  21.852  25.494  22.499 -0.1881 -0.3138  0.2072
92768W        W67756  10.733  27.433  14.241  0.1198 -0.1996 -0.2766
92769W        W67757   4.906   4.972   7.993 -0.3070  0.1355 -0.1883
92770W        W67758  33.153  23.521  21.347 -0.1209 -0.0322  0.2216
92771W        W67759  12.971   0.515  24.804 -0.2237  0.0808 -0.1859
92772W        W67760  34.379  15.995  11.942  0.2363  0.0168 -0.1774
92773W        W67761  10.940  15.345  24.120  0.1904 -0.1289  0.4150
92774W        W67762  26.368  11.390  20.066 -0.4125  0.1370  0.2087
92775W        W67763  14.406  16.757  12.564  0.0789 -0.2263 -0.0634
92776W        W67764  22.458   7.504   7.310 -0.1440 -0.2623 -0.4612
92777W        W67765  22.549   8.534  24.366  0.0331  0.1492  0.0450
92778W        W67766  23.361  13.974  18.535 -0.2984  0.0637  0.2600
92779W        W67767  26.362   3.446  10.149 -0.0703  0.0671 -0.1731
92780W        W67768  18.546  19.504   5.509  0.0838  0.2585 -0.1459
92781W        W67769  16.805   0.471   8.297 -0.0040  0.0912  0.0611
92782W        W67770   8.600  11.996   2.811 -0.0614 -0.0686  0.4455
92783W        W67771  18.538  21.992  22.969 -0.0623  0.1576  0.1769
92784W        W67772  31.414   5.491   0.187 -0.0788 -0.2378  0.4327
92785W        W67773   5.594  13.421  23.610  0.2918  0.0100  0.0878
92786W        W67774  15.715  16.037  23.057 -0.0378  0.1919 -0.1519
92787W        W67775  10.629  31.041  23.165 -0.2346 -0.4080 -0.3539
92788W        W67776   0.174  23.466  16.932 -0.3089 -0.2090  0.2305
92789W        W67777  31.712  21.529  19.498  0.0447  0.2357 -0.1671
92790W        W67778   7.196   1.604  12.432  0.1266  0.0314  0.1604
92791W        W67779  28.917   3.480  11.143 -0.0608 -0.1962 -0.2059
92792W        W67780  32.432  17.248  15.952  0.0231  0.0554  0.0195
92793W        W67781  20.356   5.624  18.915  0.0264  0.0868  0.3321
92794W        W67782  22.868  28.773   1.351 -0.1194  0.2203 -0.0082
92795W        W67783   6.296  17.280  24.086 -0.3256 -0.1046 -0.2549
92796W        W67784  11.783  24.258   2.399  0.0656  0.3525  0.0244
92797W        W67785  14.931   9.150   4.059  0.1894 -0.0562  0.1181
92798W        W67786   8.907  26.599  11.992  0.0352 -0.0282  0.1563
92799W        W67787  15.841   3.354   9.117  0.2482 -0.2226  0.0049
92800W        W67788  12.502   1.106   2.830 -0.2576  0.1870 -0.0154
92801W        W67789  35.126  23.054   0.685 -0.0109  0.0336  0.3523
92802W        W67790  31.214  28.456  24.717 -0.0703 -0.1477  0.0792
92803W        W67791   7.201  31.991  11.708  0.3522 -0.1893  0.0808
92804W        W67792   5.671  34.995  23.594  0.2081 -0.0724 -0.0103
92805W        W67793  26.688  27.929  16.841 -0.1513  0.0199  0.2579
92806W        W67794   0.986  15.199   1.023 -0.1820 -0.2354 -0.3317
92807W        W67795   9.712   5.652  18.722 -0.1614  0.2211 -0.1581
92808W        W67796  30.040  20.756   5.634  0.0327 -0.1535 -0.2011
92809W        W67797  15.004   8.433  14.199 -0.0115 -0.1205  0.0465
92810W        W67798  23.539   0.256   6.116  0.2657 -0.0144 -0.2764
92811W        W67799   7.769   1.831   1.932  0.3077 -0.1174  0.2487
92812W        W67800   9.666   6.294  20.644 -0.0073 -0.0432  0.0180
92813W        W67801  30.557  28.839  10.901  0.0096  0.0738  0.0228
92814W        W67802  15.448  14.665  19.201 -0.0070 -0.0024 -0.2819
92815W        W67803  11.701  18.424  23.100  0.0410 -0.2351 -0.2630
92816W        W67804  31.364  23.841  14.209  0.0134  0.0478  0.1078
92817W        W67805  11.134  22.593   3.783  0.1113  0.0808  0.1421
92818W        W67806  17.751  14.372  20.881 -0.3165 -0.2357  0.1467
92819W        W67807  20.198  22.027  20.920  0.1293  0.1002  0.1787
92820W        W67808  19.018  33.113  18.030  0.2658  0.2202  0.0975
92821W        W67809  15.301   4.346  18.762  0.1562  0.0635 -0.1976
92822W        W67810   7.895  27.495  12.748 -0.1595  0.1849 -0.0952
92823W        W67811   5.625  25.682  12.882  0.0893 -0.0536  0.1233
92824W        W67812  23.110   4.190  19.644 -0.0665 -0.1949  0.1252
92825W        W67813  11.111  24.231  13.128  0.0596 -0.2583  0.2741
92826W        W67814  12.653  28.924  10.440 -0.1017  0.1458 -0.2271
92827W        W67815  32.587   3.706  21.626 -0.2991 -0.0797 -0.0264
92828W        W67816  26.005  16.528  23.241  0.2837  0.1636 -0.5107
92829W        W67817  25.491  17.173  16.614 -0.5442  0.0994 -0.3003
92830W        W67818  11.121   4.846   9.060  0.0324  0.2038 -0.0080
92831W        W67819   5.550  18.201   2.746 -0.0584 -0.1914  0.0249
92832W        W67820  30.407   2.255  15.885 -0.0126  0.0423 -0.0520
92833W        W67821  12.932  25.119  25.167  0.1101  0.0795  0.1245
92834W        W67822   2.009  28.300   1.014  0.1936 -0.1940 -0.0679
92835W        W67823  20.107  13.411   3.291  0.0939 -0.0736  0.1422
92836W        W67824  27.574  17.043  17.308  0.2285 -0.0220 -0.1207
92837W        W67825   2.829  34.458   3.245  0.1058  0.2029  0.4711
92838W        W67826  22.775  25.146   4.558 -0.3587  0.1395  0.1085
92839W        W67827  32.251  25.770  20.306 -0.1686  0.0479 -0.0758
92840W        W67828   0.164  12.314  13.777 -0.2585  0.1544 -0.1168
92841W        W67829  16.990  25.491   9.933  0.1996  0.1126  0.0692
92842W        W67830  26.362   9.774  23.210 -0.3138  0.1195  0.2833
92843W        W67831   8.973   2.141   0.798 -0.0015 -0.0797 -0.1526
92844W        W67832  16.355  33.558  25.136  0.0058  0.1127 -0.0457
92845W        W67833  16.340   8.414   3.651 -0.0258 -0.3314  0.0788
92846W        W67834  29.951  23.369  13.370 -0.0843  0.1262  0.2234
92847W        W67835  19.704  30.642   6.617  0.1481 -0.2063 -0.0384
92848W        W67836  33.077   6.744  16.098 -0.1309  0.3192  0.0770
92849W        W67837  31.391  34.506  20.117  0.4993  0.0301  0.0278
92850W        W67838  18.301   7.075  24.311 -0.1095  0.3442 -0.1819
92851W        W67839  12.503  13.635   9.041 -0.4452 -0.1543 -0.2111
92852W        W67840   2.737   6.152   6.866 -0.1420  0.0902 -0.1645
92853W        W67841  17.792  12.576  21.577 -0.0842  0.1312 -0.0945
92854W        W67842  22.664  29.904   2.775  0.2099 -0.0387  0.0265
92855W        W67843  33.248  34.944  22.146  0.0382 -0.1600  0.3262
92856W        W67844   7.345  19.174   2.435 -0.0278  0.0394 -0.0528
92857W        W67845   8.324   7.155  23.527  0.0176  0.3815 -0.2654
92858W        W67846   9.918  32.608   8.791 -0.2707  0.0054  0.1404
92859W        W67847  26.601  11.955  25.125 -0.2583  0.0904  0.0221
92860W        W67848  30.069  26.522  21.435 -0.1380 -0.0933 -0.0698
92861W        W67849  10.108  30.774  25.030  0.2748  0.1719  0.0158
92862W        W67850  18.350   0.221   7.136 -0.1627  0.2270 -0.2299
92863W        W67851  16.311  20.566   4.010 -0.2137 -0.2360  0.0996
92864W        W67852  30.673   3.429  23.829 -0.3055 -0.2078  0.5058
92865W        W67853   5.060  16.896  25.592  0.4380 -0.1016  0.0104
92866W        W67854  15.502   6.188   5.527  0.3511 -0.2325 -0.2147
92867W        W67855   9.297   9.803   7.745 -0.0499 -0.1067  0.2367
92868W        W67856  29.333  25.834  20.021 -0.1175 -0.1151 -0.1008
92869W        W67857  24.318  23.757  25.061  0.0776  0.1666  0.2768
92870W        W67858  28.855  34.858   4.703 -0.1311  0.0402  0.1472
92871W        W67859  10.491  27.358  22.382 -0.3259 -0.0206  0.0681
92872W        W67860   5.591   1.413   2.952  0.0578 -0.2263  0.0657
92873W        W67861  24.286  29.047   1.562 -0.1720 -0.3992 -0.0285
92874W        W67862  15.313  27.233  14.371 -0.2844  0.0848 -0.0130
92875W        W67863  14.745  11.878   2.453  0.2079  0.0302  0.3794
92876W        W67864  11.020   7.691   3.904  0.0470  0.0127 -0.0921
92877W        W67865  29.714   2.348  14.951 -0.0320  0.2528  0.0628
92878W        W67866   0.259  33.672   8.803 -0.3465 -0.0162 -0.0281
92879W        W67867  14.784  13.574   6.341 -0.1204  0.0239  0.1853
92880W        W67868  26.805  16.601   5.945  0.1781  0.1569 -0.0398
92881W        W67869  27.460  23.262  19.770  0.1475  0.0149  0.0160
92882W        W67870  30.235   7.503  18.952 -0.0895 -0.0029  0.1433
92883W        W67871  12.708  16.942   4.570 -0.0490  0.3455 -0.2965
92884W        W67872   5.559   5.520   7.288  0.2563  0.1239 -0.1401
92885W        W67873   1.176  22.468   1.177 -0.0744 -0.2314  0.0368
92886W        W67874  11.242  29.543   1.201 -0.0940 -0.0878  0.0270
92887W        W67875   1.858  18.802  22.493 -0.2316  0.0747  0.2552
92888W        W67876  13.093  29.808  10.522 -0.2020  0.0563  0.0990
92889W        W67877   8.146  33.866  10.244 -0.2807  0.1161 -0.4019
92890W        W67878   3.184   0.261   1.775 -0.1792 -0.1390  0.0356
92891W        W67879  15.353   2.854  21.688  0.1454 -0.3591 -0.1175
92892W        W67880  32.066   2.049   3.727 -0.2165  0.0216 -0.3003
92893W        W67881  14.489  14.762  21.986  0.0493  0.0301 -0.1311
92894W        W67882   6.637  26.189   8.290 -0.2384 -0.0195 -0.2018
92895W        W67883  23.175  18.118  16.272  0.3608  0.2351 -0.2930
92896W        W67884  12.803  16.820  13.927  0.0320 -0.0291  0.0938
92897W        W67885  29.642  23.582  11.828 -0.2502 -0.1567  0.1117
92898W        W67886   3.340   0.651   5.007 -0.1795 -0.0938 -0.0771
92899W        W67887  18.207  29.091   9.244  0.0419  0.2118  0.0538
92900W        W67888  11.597   2.615  21.523  0.2599 -0.0960  0.1876
92901W        W67889   3.581   8.580   2.902  0.3767 -0.0285  0.0832
92902W        W67890   7.625   1.473   0.558  0.0414 -0.0411 -0.3268
92903W        W67891  17.755  16.114   7.911  0.0987  0.0106  0.0692
92904W        W67892   8.264   2.048   0.305 -0.1119  0.3174 -0.0442
92905W        W67893  11.464   2.411  10.839 -0.1100 -0.1796  0.1092
92906W        W67894  17.119  29.992   8.207  0.0218  0.1528 -0.0142
92907W        W67895  34.672  26.291  17.133 -0.0259  0.0166  0.2030
92908W        W67896   1.518  33.867  19.620  0.0254 -0.0817 -0.1285
92909W        W67897  29.319   9.668  13.434  0.2384 -0.2910 -0.0070
92910W        W67898  19.228  28.327  18.087  0.2131  0.3352 -0.2064
92911W        W67899  11.631   6.370   9.018  0.0304 -0.1964  0.3020
92912W        W67900  20.792   3.914  25.098 -0.0308  0.0050  0.1425
92913W        W67901  18.005  10.212  24.624 -0.1825 -0.3163 -0.0660
92914W        W67902  11.891  21.596   2.688  0.0518  0.2748  0.2563
92915W        W67903  17.255   4.257   3.283 -0.1179 -0.4496 -0.1112
92916W        W67904  33.426  10.912  12.515  0.1725  0.2162 -0.1292
92917W        W67905  30.364  20.447  10.706  0.2298 -0.2009  0.1388
92918W        W67906  10.629  22.212   9.956 -0.1319  0.0443  0.0486
92919W        W67907  33.264  28.383  21.606  0.1836  0.2109 -0.0664
92920W        W67908  29.324   6.857   1.779  0.4644 -0.1489  0.1861
92921W        W67909  22.919  32.253  14.895 -0.1137  0.0442  0.0695
92922W        W67910  11.981  26.770   3.286 -0.0401 -0.0642 -0.1443
92923W        W67911  23.772  34.103  12.753 -0.2260 -0.1165 -0.0242
92924W        W67912  33.355  17.084  10.931 -0.2236 -0.0392 -0.0907
92925W        W67913  13.217  27.382   5.631  0.1059  0.0626 -0.4068
92926W        W67914   4.017  16.656  16.204 -0.0649 -0.0636  0.2489
92927W        W67915   5.374  25.248   9.819  0.1244 -0.0468 -0.3629
92928W        W67916  13.229   4.867  21.667 -0.0093 -0.1589  0.1699
92929W        W67917   1.324  23.780   3.337  0.2779  0.1471 -0.1850
92930W        W67918  16.883  29.464   6.312  0.0074 -0.1004 -0.3945
92931W        W67919  16.198  23.387  12.481 -0.0123 -0.0194 -0.1346
92932W        W67920  10.280  19.051   1.441  0.2140 -0.2483  0.3666
92933W        W67921  22.031  34.163  19.577  0.2361  0.2274  0.0769
92934W        W67922  32.953  12.524  19.592  0.1110  0.2381  0.2857
92935W        W67923   0.353   8.562  21.971  0.3245  0.1328  0.0734
92936W        W67924  28.064  26.523  19.263  0.2198 -0.0557 -0.0356
92937W        W67925   8.290   4.084  10.284  0.0439  0.1028  0.1107
92938W        W67926  28.057   4.741  24.199  0.0095  0.2655  0.1025
92939W        W67927   6.384  13.472  22.166  0.2699  0.0253 -0.2595
92940W        W67928  29.986   0.496  15.505  0.3168  0.0701 -0.0194
92941W        W67929  11.041   0.139  13.027 -0.2197  0.2471  0.1834
92942W        W67930  12.930  31.843   5.008  0.0993  0.0251  0.0221
92943W        W67931   6.542  11.524  19.795  0.1286  0.0920 -0.3262
92944W        W67932  32.162  23.327  11.114 -0.0321  0.1149  0.3591
92945W        W67933   6.581  18.962   3.139  0.1212  0.0819  0.2219
92946W        W67934   1.881   0.519  24.380  0.1641 -0.1199  0.3205
92947W        W67935  18.600  24.544  26.023 -0.1310  0.0435  0.0934
92948W        W67936   9.574   4.900  22.927  0.0236  0.0776 -0.3033
92949W        W67937  31.943   9.571  24.439  0.2534 -0.1951  0.0601
92950W        W67938  17.612  24.975   2.206 -0.4351  0.5096 -0.0683
92951W        W67939   7.627  13.483  22.501  0.0700  0.0306  0.0999
92952W        W67940  16.060  22.540  13.365 -0.1315  0.0206 -0.2887
92953W        W67941  15.151  12.466  25.011 -0.1925 -0.1752 -0.3674
92954W        W67942  19.822  27.728  24.160  0.0110 -0.0159  0.1166
92955W        W67943   4.762  27.408   8.490  0.0390  0.1770  0.0135
92956W        W67944  10.067  29.066   8.530 -0.4430 -0.1803 -0.2850
92957W        W67945  33.962   5.463   2.693 -0.0550  0.0753 -0.0409
92958W        W67946  20.371   4.230  22.211  0.1620  0.1518 -0.1956
92959W        W67947  11.290  26.979  23.105 -0.3632 -0.0376  0.1436
92960W        W67948  29.542   7.086  10.121  0.2144 -0.0704  0.3052
92961W        W67949  25.449   9.358  17.691  0.2676 -0.0374 -0.2126
92962W        W67950  21.356  27.950  18.093  0.0878  0.2447 -0.0522
92963W        W67951   7.649  28.000   5.171 -0.2751  0.1475  0.2332
92964W        W67952  26.473   8.890  15.979 -0.0920 -0.0476 -0.0808
92965W        W67953   9.331  34.937  14.238  0.1544 -0.0927 -0.1335
92966W        W67954  19.305  25.122  20.778 -0.1531  0.1310 -0.2015
92967W        W67955  16.461   9.430  21.850  0.0763  0.2381  0.2182
92968W        W67956  16.248  30.471  25.200  0.2580  0.4160 -0.2966
92969W        W67957  18.820  12.222  10.618 -0.0084 -0.1909 -0.1045
92970W        W67958  16.692   6.042  19.498  0.4057  0.1066 -0.0254
92971W        W67959  30.204  27.780  18.295  0.0491  0.1114  0.2877
92972W        W67960  22.889  21.256   2.324  0.0681  0.1366 -0.1834
92973W        W67961  14.637  22.183  12.629  0.0479 -0.1448  0.3672
92974W        W67962   5.806  14.825   5.060  0.0414  0.1333  0.0545
92975W        W67963  24.747   2.357  23.976 -0.1425  0.2087 -0.0807
92976W        W67964  13.920  18.373  22.776 -0.0020  0.0596  0.0674
92977W        W67965  25.990   5.144  23.282 -0.1015 -0.1678 -0.0457
92978W        W67966  27.780  18.508  19.440 -0.0467  0.1312  0.1599
92979W        W67967  10.268   3.052  11.415  0.0085  0.0399  0.0847
92980W        W67968  31.543   6.043  18.126  0.2719  0.1353  0.4200
92981W        W67969  24.589  25.641  16.843 -0.0017 -0.4098 -0.0279
92982W        W67970  11.056   6.015  19.371 -0.0486 -0.0504  0.0040
92983W        W67971  27.415   8.169  10.709  0.3910 -0.0849 -0.2185
92984W        W67972   8.277   2.723  19.188 -0.2072 -0.0466 -0.0889
92985W        W67973   1.311  13.842  19.782  0.0198  0.1461 -0.1324
92986W        W67974  30.931  21.180  19.999 -0.1179 -0.1102  0.0053
92987W        W67975  12.809  17.102  12.639 -0.2453  0.0696  0.1797
92988W        W67976  19.541   6.615   7.680  0.0426 -0.0375  0.0523
92989W        W67977  14.861  11.183   2.025 -0.1389  0.3543  0.4431
92990W        W67978  20.286   5.954  23.613  0.0368  0.1205  0.2209
92991W        W67979  14.279   4.218   5.158  0.2899 -0.1589  0.0962
92992W        W67980   0.919  11.778  12.800 -0.0198  0.1146 -0.1231
92993W        W67981  14.200   2.318   0.182  0.0184 -0.3442  0.0174
92994W        W67982  32.455  19.896  20.035 -0.1995 -0.2213  0.1446
92995W        W67983  13.997  26.051   1.454  0.0607 -0.1793 -0.0537
92996W        W67984  12.960  13.571  21.896  0.1012 -0.2944  0.0203
92997W        W67985  26.980  16.172  16.702  0.2280  0.1907  0.1145
92998W        W67986  10.939  24.548  16.949  0.0670 -0.0793  0.0052
92999W        W67987  25.933  33.394   3.084 -0.1414 -0.0406  0.3462
93000W        W67988   4.455  32.855  12.871  0.0403  0.1614  0.0678
93001W        W67989  13.004  12.542   2.537  0.0672  0.2251 -0.0458
93002W        W67990   8.556  17.513  10.655 -0.0031  0.0558 -0.0899
93003W        W67991  14.757  14.977  13.501 -0.1908 -0.0841  0.1514
93004W        W67992  19.648  34.592   6.649 -0.1065 -0.0823  0.0954
93005W        W67993  22.813  33.040  25.112 -0.2828 -0.1745  0.0180
93006W        W67994  22.997  21.772  17.922  0.3294 -0.2059  0.0400
93007W        W67995  18.779  16.866  25.533 -0.0264  0.0191  0.0576
93008W        W67996  28.624  13.422   6.108  0.0438  0.1896  0.0200
93009W        W67997  31.566  30.620  25.190  0.1524 -0.1575 -0.2369
93010W        W67998   5.637  31.891   1.282  0.2718  0.1605  0.2400
93011W        W67999  24.361  33.091   5.267  0.0048 -0.2664  0.1508
93012W        W68000  10.919  23.510   2.506  0.0243  0.1785 -0.0991
93013W        W68001  15.761   7.829  20.240  0.0377  0.1365 -0.0156
93014W        W68002  22.692  29.947   3.294 -0.1763  0.0692  0.1519
93015W        W68003  28.803   8.411  15.493  0.1404  0.1430  0.1323
93016W        W68004   0.204  10.022   2.996 -0.1743 -0.1471 -0.0754
93017W        W68005  28.559   7.412  25.904 -0.0540 -0.2280 -0.1102
93018W        W68006   9.950  10.451   9.890  0.1842 -0.3757  0.0503
93019W        W68007  23.268   1.197  18.995  0.0828  0.1557 -0.1202
93020W        W68008  21.099  30.279   6.987  0.2243 -0.0737  0.2409
93021W        W68009   6.632  14.924  10.825 -0.1918 -0.0331 -0.1767
93022W        W68010  31.210   3.230  22.522  0.1920  0.0214  0.1698
93023W        W68011  27.339   5.376  12.680 -0.0484 -0.2441 -0.1710
93024W        W68012  21.509  17.673  21.066 -0.2158  0.0554 -0.3161
93025W        W68013  25.911  29.216  21.808  0.1154  0.0349 -0.1044
93026W        W68014  28.184  14.759  23.325  0.0207 -0.1816 -0.0324
93027W        W68015  16.770   9.764   7.206 -0.1978  0.1125  0.2270
93028W        W68016  23.836  26.149  22.772  0.1862 -0.0798 -0.0176
93029W        W68017   7.351  27.501   5.192  0.0097  0.0189 -0.3721
93030W        W68018   3.502  34.474   0.656 -0.2036 -0.1295  0.0322
93031W        W68019   2.759   4.058  17.953  0.0962  0.0044 -0.2989
93032W        W68020  12.315  11.054  13.067 -0.0360 -0.1897 -0.1105
93033W        W68021  16.891  28.987   6.084 -0.3352 -0.0715 -0.3717
93034W        W68022   9.622   7.067   4.692 -0.2775  0.0507 -0.2458
93035W        W68023  23.354  30.605  25.245 -0.1997  0.0372  0.3652
93036W        W68024  15.350   6.765   0.563  0.2798  0.2966 -0.1604
93037W        W68025  16.202  12.076   7.563  0.2007 -0.3506 -0.1749
93038W        W68026   2.241  14.325  22.238  0.4618 -0.0016 -0.1368
93039W        W68027  26.704  11.922  24.626 -0.0683 -0.1784  0.2004
93040W        W68028   1.595   1.806  20.015 -0.3037  0.3549 -0.0250
93041W        W68029  21.329  19.895  16.399 -0.2509 -0.2779 -0.3426
93042W        W68030  21.437  17.806   2.017 -0.2171 -0.0254 -0.1210
93043W        W68031  24.307  31.766  24.546  0.1355 -0.2868 -0.1052
93044W        W68032  31.111  32.889  16.955  0.1260 -0.0429 -0.1644
93045W        W68033  17.634  20.889  23.503 -0.1666  0.3701  0.1385
93046W        W68034  14.680   1.598  12.602 -0.2987  0.1176 -0.0980
93047W        W68035  25.883   1.457  18.599 -0.2531 -0.3436 -0.1219
93048W        W68036  33.973   0.317  20.960 -0.0017  0.2129  0.1192
93049W        W68037  17.278   4.684   1.638  0.0210  0.1368  0.2048
93050W        W68038   8.697  32.841  13.675 -0.1850  0.2189  0.0654
93051W        W68039  34.138  33.256   4.137  0.0460 -0.1903  0.2475
93052W        W68040  29.418  18.425  20.604 -0.0202 -0.2926 -0.0351
93053W        W68041  34.474   0.262  24.340 -0.2350  0.2216 -0.1437
93054W        W68042  11.629  10.053  14.028 -0.0128 -0.0798 -0.2292
93055W        W68043   8.742   2.788  12.179  0.2355 -0.1850 -0.0308
93056W        W68044  21.355  26.789   6.690  0.1842  0.3047  0.1945
93057W        W68045  23.075  32.175  23.780 -0.0633 -0.1398  0.2300
93058W        W68046   7.702  13.210   9.011  0.1280  0.0667  0.2676
93059W        W68047   5.769   3.925   3.960 -0.3382  0.1945  0.2403
93060W        W68048  29.081  27.239  18.904  0.1780  0.0277  0.0442
93061W        W68049   2.275   8.114   2.735  0.1001 -0.2238 -0.3396
93062W        W68050   7.703   4.225   6.726  0.1534  0.0387  0.0797
93063W        W68051  23.361  28.673  15.808 -0.0912  0.1405  0.2156
93064W        W68052   0.554  28.362  21.288  0.2575  0.0557 -0.0871
93065W        W68053   5.845   9.180  24.277  0.0750  0.0356  0.1393
93066W        W68054  11.250  30.966  22.953 -0.1561 -0.0939  0.1190
93067W        W68055  27.456  13.056  22.255 -0.0788  0.1055  0.0171
93068W        W68056   0.795  12.987  17.438  0.0064  0.0402  0.0823
93069W        W68057  14.738   7.520  10.229  0.1932 -0.0117  0.0891
93070W        W68058  31.277  11.415  15.004  0.2681 -0.1153  0.0566
93071W        W68059   2.265   9.856  18.526 -0.2756  0.1776 -0.0201
93072W        W68060  12.924  16.718  20.140  0.1086 -0.0326  0.1534
93073W        W68061  15.637  34.093  23.677 -0.2173  0.2305 -0.0802
93074W        W68062  28.026  28.247  25.337 -0.3951  0.4338 -0.0169
93075W        W68063   6.653   8.521  12.882 -0.0164  0.1688  0.2474
93076W        W68064  18.201  22.155   4.664 -0.0226 -0.0170 -0.1282
93077W        W68065  18.165   1.758  17.519  0.2679 -0.1791  0.2052
93078W        W68066  31.109  30.696  24.716  0.4856 -0.0671  0.0007
93079W        W68067  30.044  25.493  18.306 -0.1384  0.0528 -0.1741
93080W        W68068   7.157  27.793   8.796 -0.1231  0.0814 -0.1623
93081W        W68069  26.470  25.716  16.318 -0.0664  0.2798  0.1139
93082W        W68070  26.174  13.214  16.431 -0.2495 -0.1282  0.3348
93083W        W68071  21.350  29.258   2.559  0.3942 -0.2383  0.0844
93084W        W68072  24.526   2.211  18.527 -0.3698 -0.2651  0.1203
93085W        W68073   7.316  27.074  13.819 -0.1764 -0.1199 -0.1448
93086W        W68074   8.847  19.578   2.352 -0.1616  0.3379  0.1129
93087W        W68075  33.429  28.447  16.284 -0.1917  0.1522  0.0799
93088W        W68076   2.842   4.461   4.011 -0.1044  0.0935  0.2940
93089W        W68077  16.236   8.628  22.377  0.0087  0.0775 -0.1771
93090W        W68078  24.412  29.528   9.987  0.2611 -0.1628 -0.0874
93091W        W68079  28.710  31.342   0.669  0.1201 -0.0521  0.0426
93092W        W68080  14.216  10.751  22.681 -0.1769  0.1383  0.1149
93093W        W68081  26.093   9.600  17.490  0.0959 -0.2229 -0.0346
93094W        W68082  17.628   9.815   9.768 -0.2836 -0.1650  0.1072
93095W        W68083  16.323  10.409  11.677 -0.1117  0.0103 -0.3341
93096W        W68084  12.234  20.879  22.019 -0.1155  0.3597  0.4130
93097W        W68085  27.878   8.814   1.462  0.2177  0.1747 -0.0964
93098W        W68086  26.029   1.841   2.616  0.0677 -0.2714  0.0311
93099W        W68087   6.339  27.149  11.550 -0.1749 -0.3282  0.1455
93100W        W68088  22.395  15.491  22.702  0.1768  0.2895  0.0780
93101W        W68089  20.407  13.914   3.351 -0.1263  0.3461 -0.0978
93102W        W68090  34.472  10.302  13.444  0.0920  0.1808  0.1037
93103W        W68091   5.002  20.358  17.617  0.1300 -0.0011 -0.2137
93104W        W68092  17.174  25.408  13.136 -0.1508 -0.1068 -0.1257
93105W        W68093  28.219  17.877  21.458  0.1245 -0.1892 -0.0211
93106W        W68094  25.015   7.804   2.977 -0.1812 -0.2324 -0.1801
93107W        W68095  30.546   5.507   3.494 -0.0130  0.1193 -0.1367
93108W        W68096  29.897   2.822  21.703 -0.3041  0.1481  0.4185
93109W        W68097   0.508  26.248  16.278  0.4921 -0.0367 -0.1155
93110W        W68098   5.452   5.425  18.860  0.1360 -0.1154 -0.2130
93111W        W68099  27.335   1.733  20.108  0.3585  0.3176 -0.2139
93112W        W68100  32.907   2.337  15.980 -0.0858 -0.2089  0.3834
93113W        W68101   3.085  13.114  18.439 -0.0754  0.1408  0.0723
93114W        W68102  23.838  13.384  21.942 -0.0495  0.0861  0.2501
93115W        W68103  13.949  17.856   8.194 -0.1322  0.2107 -0.1604
93116W        W68104   1.877  18.528  22.955 -0.0784  0.1172  0.0858
93117W        W68105  25.688  26.030  25.410 -0.1627 -0.0632  0.1153
93118W        W68106  12.063  11.660  12.549  0.0442  0.3291  0.2584
93119W        W68107  13.719   8.857   2.674  0.3505 -0.0093 -0.2099
93120W        W68108   7.577   9.090  21.487  0.4768 -0.3567 -0.0972
93121W        W68109  10.997   2.779  12.127  0.2800 -0.1078 -0.0501
93122W        W68110  14.263   5.966  22.902  0.3343  0.1248  0.2727
93123W        W68111  12.360  17.556  23.834  0.2019 -0.1251 -0.0483
93124W        W68112  34.863  13.151  18.068 -0.1522 -0.0970  0.2468
93125W        W68113  23.146  26.881  13.485  0.2518 -0.1387 -0.0524
93126W        W68114  34.065   0.027  13.806  0.0642  0.3996  0.1239
93127W        W68115  23.115   7.778  17.640  0.0270 -0.0346 -0.0743
93128W        W68116   4.998   8.874  24.338  0.1010 -0.0568  0.3242
93129W        W68117  18.680  24.675  24.759  0.1426 -0.2785  0.0637
93130W        W68118   3.350   5.187   4.248 -0.0758  0.1493 -0.0200
93131W        W68119   7.078  28.538   3.946  0.2233 -0.0948  0.1071
93132W        W68120  15.074   4.795   0.130 -0.1488  0.0287  0.0928
93133W        W68121  30.085  28.456   2.561  0.0830 -0.1596  0.0518
93134W        W68122   0.920  29.826   5.963  0.3464  0.1782 -0.3395
93135W        W68123  10.941  24.917  10.016  0.1505 -0.0344  0.1329
93136W        W68124   8.165   9.114  12.107  0.0938  0.1982  0.0509
93137W        W68125  30.261  25.650  22.770  0.0969 -0.4486 -0.0032
93138W        W68126   0.139  30.881   5.764  0.1456 -0.1997 -0.2075
93139W        W68127   7.830  27.279   9.040  0.0265  0.0725  0.0306
93140W        W68128  18.784   7.803  19.204 -0.3375 -0.2613  0.3213
93141W        W68129  26.278  31.466   3.006 -0.0787 -0.0993  0.0505
93142W        W68130  20.728  26.010   1.064 -0.1865 -0.1405 -0.3878
93143W        W68131   1.786  11.765  12.159  0.3391 -0.0392 -0.1382
93144W        W68132   7.317  20.897   4.339 -0.2624 -0.1297 -0.0999
93145W        W68133   6.462  30.933   4.164 -0.0469  0.2940 -0.0839
93146W        W68134  28.045  23.875   7.863  0.1520  0.3886 -0.1274
93147W        W68135  32.893   1.464   3.857 -0.0437  0.1667 -0.1948
93148W        W68136  16.469  17.561  21.234  0.2021  0.1255  0.3580
93149W        W68137   5.191  30.675  10.019  0.0628  0.2427 -0.1062
93150W        W68138   8.611  14.861   0.919 -0.0026  0.0756  0.2038
93151W        W68139  15.984  33.534  10.082  0.2797 -0.3258  0.0544
93152W        W68140   7.203  29.548   3.421 -0.1900  0.0287  0.1133
93153W        W68141   6.210  16.383   6.970 -0.0570  0.1367  0.2201
93154W        W68142   1.494   0.693  17.048 -0.2829 -0.2296 -0.2449
93155W        W68143  14.076  12.662   0.191 -0.1956  0.2940  0.1406
93156W        W68144  24.343  20.310  22.216 -0.1633  0.0150 -0.0994
93157W        W68145  11.220  23.169  10.801  0.2520 -0.3132  0.1773
93158W        W68146  30.729  16.109  11.731  0.0838  0.2391  0.1533
93159W        W68147   4.927  27.686  23.554 -0.0691 -0.0240 -0.3462
93160W        W68148   5.977  25.453  24.736  0.1256  0.2263  0.1504
93161W        W68149  19.817   9.289   6.029  0.2127 -0.1062 -0.5394
93162W        W68150  15.997  30.726   2.613 -0.0841  0.0204  0.2994
93163W        W68151  29.317  10.861  16.843  0.0768 -0.1535 -0.1855
93164W        W68152  17.156  12.703   5.779 -0.1468 -0.1579 -0.2543
93165W        W68153  19.390   7.807   7.631  0.1075  0.1456  0.2060
93166W        W68154  21.595  17.509   3.386 -0.0808  0.3597  0.0168
93167W        W68155  21.355  30.096   4.849  0.0599  0.1078 -0.0148
93168W        W68156  30.276   4.150  12.746  0.0072  0.0047  0.0657
93169W        W68157  27.767  21.727  22.881 -0.3094  0.0174  0.1785
93170W        W68158  28.316  22.104  16.970 -0.2595 -0.1402  0.1810
93171W        W68159  23.902  32.446   2.720  0.1157 -0.1152  0.0235
93172W        W68160  35.071  15.919  20.995 -0.0289 -0.0032 -0.1953
93173W        W68161   4.125  26.606   7.761  0.2383 -0.0576  0.0243
93174W        W68162  25.548   5.647  11.343 -0.2335  0.1828  0.1418
93175W        W68163  14.927  19.013   2.542 -0.1459 -0.1964 -0.0967
93176W        W68164   3.334  24.595  18.168 -0.1024 -0.1004 -0.1356
93177W        W68165   9.752   3.235  12.676 -0.3088  0.1188 -0.0041
93178W        W68166  11.282   1.934  12.689  0.0952  0.0456  0.6430
93179W        W68167  24.861  32.824  25.739  0.1651 -0.1369  0.2092
93180W        W68168   4.414  22.470  20.089 -0.1134 -0.1450  0.1179
93181W        W68169  16.821  30.648   5.523 -0.1932  0.3705  0.0783
93182W        W68170  31.818  13.643  17.497  0.2105 -0.0768  0.1002
93183W        W68171   3.540  15.014  16.478 -0.0415  0.1473  0.0612
93184W        W68172   9.501  24.130  15.085  0.0378  0.0996 -0.0027
93185W        W68173  11.170  11.621  10.230 -0.1309 -0.3201  0.0162
93186W        W68174  19.269  17.733  19.754 -0.0019 -0.2824 -0.1028
93187W        W68175   5.884  28.473  22.867  0.3082 -0.0579  0.2662
93188W        W68176  34.289  30.613  25.118 -0.3417 -0.3175  0.0157
93189W        W68177   8.526  11.984  18.609 -0.7301  0.1603 -0.0032
93190W        W68178  21.167  31.694  16.832 -0.1648  0.1682  0.1898
93191W        W68179   0.897   1.235  17.941 -0.0449  0.0645 -0.0956
93192W        W68180  10.088  33.428  22.995 -0.1222  0.2392  0.0501
93193W        W68181  19.708  15.099   8.480 -0.2230 -0.0149 -0.0607
93194W        W68182  18.885   9.048  23.036  0.2292 -0.3237 -0.1817
93195W        W68183  11.617  23.579   7.205 -0.0121 -0.0727  0.1141
93196W        W68184   2.685  26.603  24.383  0.0533  0.1609  0.1710
93197W        W68185  23.976  33.706  24.621 -0.0714  0.1786  0.2082
93198W        W68186  32.516  33.553   0.341 -0.1125  0.1114 -0.1077
93199W        W68187  13.977  31.595   7.049  0.4088 -0.1527 -0.1422
93200W        W68188  22.097  21.929  24.457  0.0880  0.1267 -0.0142
93201W        W68189   1.929  13.763  11.999 -0.0122  0.0999 -0.0617
93202W        W68190  10.889  16.847  10.549 -0.1031  0.1963  0.2251
93203W        W68191   0.008  13.692   9.771 -0.1833  0.2108 -0.0841
93204W        W68192  21.558   2.287  15.518 -0.1092 -0.0087  0.3813
93205W        W68193   7.998  11.712  25.907  0.0674  0.0495  0.2710
93206W        W68194   0.675   7.040   1.755  0.1991  0.1816 -0.0960
93207W        W68195  24.941   9.878   1.221 -0.0681 -0.0112  0.1659
93208W        W68196  11.330  20.910   0.779 -0.2485 -0.0211 -0.1720
93209W        W68197  34.706   1.786  18.582 -0.2018 -0.4317 -0.1249
93210W        W68198  27.917  16.559  19.263 -0.0867 -0.3020  0.1804
93211W        W68199   0.383  11.596  24.457 -0.2222 -0.1239  0.2814
93212W        W68200  26.817  31.520  25.665 -0.0843  0.4933  0.3459
93213W        W68201   1.765   3.680   0.725 -0.0174 -0.0533  0.1429
93214W        W68202   7.632  31.317   3.737  0.0036  0.0886 -0.1304
93215W        W68203  23.670   9.911  14.331  0.0693 -0.0046  0.1140
93216W        W68204   9.782   2.239   3.617 -0.0435 -0.0216 -0.0119
93217W        W68205  21.774  16.387  14.746 -0.3655 -0.0669 -0.0481
93218W        W68206   9.606  30.841   7.621  0.1574 -0.0308  0.1384
93219W        W68207  21.525  30.644  25.020  0.1133  0.0904  0.5301
93220W        W68208  12.582  12.240  22.476 -0.1885  0.1211  0.0560
93221W        W68209   3.290  33.147  24.555 -0.0835 -0.0541 -0.1735
93222W        W68210  10.021  24.537   5.911 -0.2098 -0.1688  0.1275
93223W        W68211  18.549  10.735   9.191 -0.3747 -0.0307 -0.1647
93224W        W68212  20.402  26.031  22.366  0.0076 -0.0089 -0.0609
93225W        W68213  18.405  30.913   2.403 -0.0818  0.1200  0.0343
93226W        W68214  30.120  22.786  24.386 -0.2423  0.0869  0.1147
93227W        W68215  18.456  35.088   8.315 -0.0581 -0.0227  0.1247
93228W        W68216   4.700  29.512   0.694  0.0256 -0.3040  0.4753
93229W        W68217  15.343  21.207   1.252  0.2456  0.2231 -0.1055
93230W        W68218   2.917  12.906  16.227  0.1288  0.1543 -0.4824
93231W        W68219  24.696   4.672  22.799 -0.0033 -0.0848  0.0045
93232W        W68220  30.736   9.131  23.711 -0.2333 -0.1956 -0.1225
93233W        W68221  19.695  21.055   5.749 -0.0616 -0.0223 -0.0569
93234W        W68222   7.953   6.009  11.082 -0.2104 -0.0709 -0.0041
93235W        W68223  30.386  23.199  22.828 -0.0115  0.3534  0.1990
93236W        W68224  23.730  31.514  23.306 -0.0480  0.0628 -0.2141
93237W        W68225  33.842  32.411   7.958  0.0257  0.1289 -0.0705
93238W        W68226  28.781   4.639  16.253  0.0665  0.3257 -0.0139
93239W        W68227  28.304  19.188  18.472 -0.5640  0.1638  0.1194
93240W        W68228  19.806  31.582  22.448  0.0589  0.0904 -0.0595
93241W        W68229  34.620  30.706  21.101 -0.3906  0.1579 -0.0438
93242W        W68230  27.921  27.124  25.200 -0.1793 -0.1680 -0.1737
93243W        W68231   3.750  14.889  26.025 -0.1300  0.1305 -0.1240
93244W        W68232  28.791  22.243  12.611 -0.1729 -0.5375  0.1761
93245W        W68233  24.009  17.264  15.553  0.0101  0.1404 -0.0300
93246W        W68234  17.480   9.800   4.684  0.0886 -0.0532 -0.3751
93247W        W68235   3.842   2.246  22.881 -0.0068 -0.0307  0.1225
93248W        W68236  28.144   3.437  18.053  0.2383  0.2026 -0.0259
93249W        W68237  31.015  28.821  14.547 -0.0398 -0.0383  0.0392
93250W        W68238  28.360  24.249  12.681  0.1546 -0.1796  0.0095
93251W        W68239   8.882  14.414  21.817 -0.2000  0.0715  0.0782
93252W        W68240  29.138  29.075   2.259 -0.0463  0.1006 -0.2250
93253W        W68241   9.099  28.017  15.609  0.1226 -0.0628  0.1826
93254W        W68242   6.842   4.423   0.673  0.1778  0.0311 -0.1857
93255W        W68243  27.185  29.525  21.740  0.1381 -0.0595  0.1248
93256W        W68244  17.455  25.157   3.189  0.3270 -0.0261 -0.0727
93257W        W68245  19.652  21.291  23.877 -0.1682 -0.0379  0.0459
93258W        W68246  35.137  17.118  12.437 -0.2777  0.2785 -0.1149
93259W        W68247  21.746  16.653  18.550  0.0229  0.0094 -0.0687
93260W        W68248  32.163  32.641  13.632 -0.0357 -0.2413 -0.1313
93261W        W68249  30.373   2.381  25.475 -0.3770  0.0303  0.0659
93262W        W68250  24.577  11.474   1.655 -0.0188  0.3167 -0.3669
93263W        W68251   8.391  32.654   6.191  0.0278 -0.0358 -0.0773
93264W        W68252  14.909  13.601  25.345 -0.0063 -0.0780  0.2323
93265W        W68253   5.137  32.415   3.795  0.3423  0.2832  0.0588
93266W        W68254  23.001  16.514  25.793 -0.0720  0.1464 -0.2282
93267W        W68255   5.253  13.439  16.252  0.0245  0.1977  0.0740
93268W        W68256   6.261  10.916  25.025 -0.1867  0.2018  0.0192
93269W        W68257  20.101  33.947  26.156 -0.0039  0.0369  0.0356
93270W        W68258   0.978  30.682  16.976  0.1823 -0.0192  0.0925
93271W        W68259   3.275  30.596   8.045  0.1000 -0.0675  0.4664
93272W        W68260  27.584  11.166  16.452  0.2134 -0.0923 -0.2210
93273W        W68261  33.815   3.283   5.453  0.3169 -0.0068 -0.3776
93274W        W68262   7.187  22.444  12.734 -0.1676  0.0270  0.1966
93275W        W68263   2.088  20.546   3.553  0.0056  0.2147 -0.1661
93276W        W68264  10.915  33.870   5.188 -0.0994 -0.1704 -0.0902
93277W        W68265   6.070   1.172   2.862  0.3316 -0.1018  0.2974
93278W        W68266  31.403   2.999  25.150 -0.1215 -0.0427  0.1398
93279W        W68267  29.875   8.736  18.643  0.0026 -0.0601 -0.0554
93280W        W68268   8.280  23.835   3.243  0.0075  0.1140 -0.0872
93281W        W68269  17.686  30.100   7.443 -0.4884  0.6072  0.2667
93282W        W68270  17.961  25.111  24.820  0.2720 -0.0622 -0.0181
93283W        W68271   4.335  18.365  25.659  0.1136  0.0133 -0.0778
93284W        W68272  15.189   6.902  10.502 -0.1734  0.0990  0.1011
93285W        W68273   5.888  28.430  23.666  0.1373  0.1386  0.0287
93286W        W68274  28.885   6.767   3.204  0.0622 -0.0384  0.1854
93287W        W68275  14.528   9.640  24.365 -0.3156 -0.2288 -0.2238
93288W        W68276   6.152   1.945  13.565 -0.3312  0.1351 -0.0350
93289W        W68277  25.927  12.928   8.764  0.1106 -0.2559  0.1362
93290W        W68278  11.361  25.213   2.630  0.0063  0.1126  0.2887
93291W        W68279  13.575   7.119   1.143 -0.0434  0.0057 -0.0785
93292W        W68280  28.519   1.099   3.278 -0.2023  0.0870 -0.2289
93293W        W68281   8.496  28.678   8.844 -0.1285 -0.0281 -0.0291
93294W        W68282   1.453  12.307  21.968  0.1810 -0.1168 -0.0595
93295W        W68283  10.287  21.366  24.467 -0.1326  0.0957  0.0297
93296W        W68284   6.370  10.980   8.592  0.0918  0.0081 -0.2098
93297W        W68285  33.747  22.410  11.386 -0.0095 -0.3097  0.0553
93298W        W68286  34.177  17.266   7.082 -0.2102  0.2512 -0.0542
93299W        W68287   5.135  25.483  20.354 -0.3581 -0.1867 -0.0406
93300W        W68288  33.340   0.186  14.427  0.2919  0.3551  0.1665
93301W        W68289  28.239   0.880  23.279  0.1072  0.1249 -0.0206
93302W        W68290  29.206  16.520  18.669  0.1290  0.3012 -0.0678
93303W        W68291  17.667  19.388   5.815 -0.1667  0.0079  0.1501
93304W        W68292  33.103  18.201  24.754 -0.0429 -0.2987  0.2820
93305W        W68293  17.572  29.630   6.831 -0.3330  0.1108 -0.1305
93306W        W68294  18.628  18.149  20.489 -0.3902 -0.1783 -0.2041
93307W        W68295  28.994  22.201  14.546 -0.2514  0.1292 -0.3288
93308W        W68296  14.059  27.847  15.670 -0.0407 -0.0817 -0.1100
93309W        W68297   3.581  12.161  18.152  0.3296 -0.4226 -0.2975
93310W        W68298  12.774  29.932   3.219 -0.0274  0.1959 -0.4734
93311W        W68299  20.549  16.733   2.354  0.0431 -0.1132 -0.1179
93312W        W68300  17.406  27.083  10.020 -0.0006 -0.0766 -0.0958
93313W        W68301  21.760   1.475  14.058  0.0332 -0.1447  0.0188
93314W        W68302  22.973  29.626  21.611  0.2543 -0.2475  0.2866
93315W        W68303  12.265   3.144  24.385 -0.1668  0.2090  0.0377
93316W        W68304   9.672  25.672  12.603  0.2295 -0.3926 -0.0565
93317W        W68305   5.304  31.112   7.398  0.1083 -0.0523 -0.0833
93318W        W68306   3.055  13.001  23.620 -0.0566  0.1852  0.1628
93319W        W68307  25.098  33.247  20.650 -0.0972  0.0540  0.1854
93320W        W68308   5.704   2.281   3.389 -0.1125 -0.2738  0.0926
93321W        W68309  32.786  27.511  24.760 -0.0373 -0.1525 -0.2072
93322W        W68310  24.104  15.720  26.072  0.2933 -0.0350 -0.3564
93323W        W68311  30.290   8.656  13.206 -0.0230 -0.0332  0.2405
93324W        W68312  29.921   2.213  25.162  0.1686 -0.0843  0.1984
93325W        W68313  22.858   8.562  23.137  0.1879 -0.1079 -0.2115
93326W        W68314   0.357  22.836  22.028  0.2101 -0.0474  0.0854
93327W        W68315  31.116  33.637   0.074  0.2093  0.0444  0.2484
93328W        W68316   5.578  12.866   1.579  0.4458 -0.3999  0.2253
93329W        W68317  16.694  28.260   5.025 -0.1538  0.2231  0.0386
93330W        W68318  24.234   0.842  25.308  0.0296  0.0770 -0.0741
93331W        W68319   7.394  16.420   7.511 -0.2182  0.0053  0.0391
93332W        W68320  22.986   5.662  17.670 -0.3878 -0.1233  0.1466
93333W        W68321  24.163  34.878   4.612 -0.0202 -0.0135 -0.0145
93334W        W68322   4.477  32.275   7.728 -0.0217  0.0222 -0.2751
93335W        W68323  30.005  18.523  10.651  0.1516 -0.0929 -0.2462
93336W        W68324   6.310  13.867  23.463 -0.0309 -0.2140 -0.1825
93337W        W68325  14.320  16.262   7.755  0.0725 -0.4168 -0.2053
93338W        W68326  30.159   9.837  12.803  0.1574  0.2235  0.0520
93339W        W68327  31.922   1.720  13.268  0.1301  0.0609  0.2350
93340W        W68328  22.214  25.577  24.118 -0.1679 -0.0020  0.0323
93341W        W68329  15.476  30.679  21.641 -0.1295 -0.0041  0.0312
93342W        W68330  29.275  15.023  26.233 -0.2982  0.0080 -0.4184
93343W        W68331  14.883  27.695   2.039  0.1157  0.2284  0.3412
93344W        W68332  29.281  13.813  12.836  0.1242  0.3753  0.2607
93345W        W68333  33.355   5.286  21.300  0.0776  0.0182 -0.1910
93346W        W68334  13.387  35.070  21.468  0.1533 -0.0780  0.1878
93347W        W68335  10.374  24.490  11.655  0.2349 -0.3023 -0.4019
93348W        W68336   2.424  28.437   5.479 -0.1677  0.0980 -0.1514
93349W        W68337  11.037  16.701   8.271  0.0291  0.0624  0.0635
93350W        W68338   7.281   3.546  19.046 -0.3202 -0.2361  0.2342
93351W        W68339  34.747  17.017  22.688 -0.2615  0.1014  0.2094
93352W        W68340   1.303   0.960   3.843  0.1064 -0.0927 -0.2061
93353W        W68341  25.568  30.977   4.574 -0.0980  0.0622 -0.0648
93354W        W68342  32.292  18.426  14.233 -0.0675  0.1144  0.2018
93355W        W68343   2.076  30.831   8.479  0.1930 -0.0202 -0.0661
93356W        W68344  18.387  33.453   8.618  0.2199  0.1550 -0.3206
93357W        W68345   8.658  24.691  23.658  0.1172 -0.0276  0.1738
93358W        W68346  34.907   0.415  23.530 -0.0201  0.1955 -0.0087
93359W        W68347   3.938  15.570   1.178 -0.0912  0.2268  0.0209
93360W        W68348   0.874   0.673  22.004 -0.0023 -0.0745  0.2726
93361W        W68349  29.078  28.545   9.918 -0.3708  0.0323  0.0633
93362W        W68350  30.488  25.117   1.061  0.3006 -0.1068 -0.1468
93363W        W68351  18.719  34.819   6.657 -0.1717 -0.1564 -0.0813
93364W        W68352   6.891   5.995   5.639 -0.0467 -0.1440  0.2164
93365W        W68353  31.407  27.237   2.593 -0.0743  0.1550  0.2002
93366W        W68354  21.162  24.118   4.834  0.1035 -0.2326  0.0220
93367W        W68355  27.314  20.190   6.103  0.1561 -0.0421  0.0621
93368W        W68356  18.463   3.356  25.843  0.1576  0.4818 -0.0421
93369W        W68357  29.632  14.792  15.878  0.2434 -0.1365 -0.0962
93370W        W68358  19.336  33.626   7.520 -0.1761  0.2172 -0.1011
93371W        W68359  33.515  11.045  25.001  0.3154  0.2097 -0.2222
93372W        W68360  28.077  18.863   7.679  0.1773  0.1511 -0.0413
93373W        W68361  21.232   7.181  24.740  0.0916 -0.0963  0.2484
93374W        W68362  34.700  20.930   8.516  0.0377  0.2360  0.3285
93375W        W68363  27.852  12.188  11.714  0.2005  0.0504  0.1670
93376W        W68364  17.410   2.113   2.825 -0.0229  0.3155  0.0136
93377W        W68365   6.248  30.830  13.951  0.2412 -0.3095 -0.2411
93378W        W68366   8.825  24.636  16.104 -0.1604  0.4514 -0.0195
93379W        W68367  19.997  22.750   5.577 -0.1108 -0.0396 -0.1022
93380W        W68368  11.217  24.732   5.716  0.0248 -0.0329  0.1549
93381W        W68369  33.145  11.556   8.847  0.1360  0.0874 -0.0833
93382W        W68370  26.767  20.403  14.974  0.3909 -0.2281 -0.2027
93383W        W68371  30.040  17.401  13.331  0.0329 -0.0287 -0.2634
93384W        W68372  25.881  29.312   0.632  0.2744  0.2153 -0.2685
93385W        W68373  33.382  28.010   0.162 -0.0293  0.1873 -0.0211
93386W        W68374  27.619  17.417  25.779  0.3996  0.1692 -0.0516
93387W        W68375  10.095  18.224   7.822  0.2630 -0.1675  0.0588
93388W        W68376  23.388  12.345  19.980  0.0607 -0.0127 -0.0970
93389W        W68377  35.334  11.201  21.279  0.0726 -0.0864 -0.2221
93390W        W68378   0.725  25.945  19.099 -0.0967 -0.0432  0.3693
93391W        W68379  12.379  18.881  10.343 -0.0586 -0.4273 -0.2109
93392W        W68380  32.348  19.982  18.627  0.3965  0.1901  0.1732
93393W        W68381   5.021  19.998  19.618  0.5393 -0.2542  0.1402
93394W        W68382   9.579  14.458   6.819  0.2861  0.1961  0.3186
93395W        W68383   6.857  15.891  23.919  0.0612 -0.1686  0.1000
93396W        W68384  24.747  33.482  14.557  0.0067  0.4037 -0.1498
93397W        W68385  27.020  10.519  16.152  0.0772 -0.2432  0.0826
93398W        W68386  25.054  32.084  17.950 -0.2223  0.2169  0.1570
93399W        W68387  32.368   1.676  25.892  0.2466 -0.4584 -0.0669
93400W        W68388   5.510  19.863  18.046 -0.0008 -0.1280  0.2095
93401W        W68389   3.429  10.076  21.319  0.3413 -0.1948  0.0626
93402W        W68390  14.479  29.610   8.093  0.0287 -0.0460  0.0248
93403W        W68391  27.952  19.651   7.068 -0.1953 -0.2777  0.6153
93404W        W68392   2.809  11.688   4.277 -0.0455  0.1834  0.0208
93405W        W68393  18.812  22.270  11.010 -0.2736  0.3995  0.0595
93406W        W68394  32.250   3.390  21.895 -0.0358  0.1652  0.0382
93407W        W68395  26.327  24.898  18.452  0.0844  0.0882 -0.0247
93408W        W68396  32.389  28.481   4.601  0.0321  0.2133 -0.3098
93409W        W68397  15.938  23.501   0.842  0.0254 -0.2631 -0.2045
93410W        W68398  15.578  16.292  25.900  0.1118 -0.0440  0.1455
93411W        W68399  28.999   2.614  25.442  0.1596  0.2321  0.1152
93412W        W68400  14.356   1.549   2.919  0.1774  0.0231  0.1215
93413W        W68401   8.896  28.181  11.252 -0.2456  0.1773  0.2300
93414W        W68402  14.506  25.129   3.988  0.4541 -0.1889 -0.0566
93415W        W68403   2.529   5.702  18.708  0.1562  0.2081 -0.3467
93416W        W68404  20.813  31.807  23.651  0.0989 -0.4731 -0.2256
93417W        W68405  10.787   2.970   8.196 -0.0539  0.1877 -0.0615
93418W        W68406  17.094   3.848   9.046 -0.0336  0.0784 -0.2118
93419W        W68407  17.522   3.376   6.608 -0.1023 -0.1819  0.0408
93420W        W68408  26.706  12.462  21.594  0.1919 -0.2116  0.1589
93421W        W68409  32.762  21.535  13.595 -0.1530 -0.1018  0.1668
93422W        W68410  25.493  19.788  25.073  0.0665  0.0391  0.1818
93423W        W68411   8.055   8.326   1.656 -0.2664  0.2483 -0.1821
93424W        W68412  14.395  31.198  25.075  0.0560 -0.2038  0.0142
93425W        W68413  16.488   2.318   5.421  0.1104  0.0383 -0.4263
93426W        W68414  22.097  12.059   0.668  0.0489  0.0490  0.2591
93427W        W68415   0.982  11.638   2.845  0.1017 -0.0480  0.1159
93428W        W68416  24.568  33.982   5.239 -0.1406  0.0800 -0.0194
93429W        W68417  28.672  35.346  16.755 -0.0645 -0.0917  0.0384
93430W        W68418  19.967  12.349   8.242 -0.0069 -0.2133  0.0511
93431W        W68419   4.232  15.241  17.499 -0.0872 -0.0778  0.2282
93432W        W68420  17.317  23.586   3.552 -0.2879  0.1547 -0.0335
93433W        W68421   3.434  25.859  25.073 -0.0954 -0.0101 -0.2456
93434W        W68422  31.247  14.823  25.710 -0.0581  0.2957  0.1828
93435W        W68423  28.984  25.201  24.317 -0.2658 -0.1315  0.3299
93436W        W68424  21.656  26.297  19.703 -0.1468  0.2720  0.2715
93437W        W68425   9.591  23.252  16.292 -0.2788  0.0702 -0.1305
93438W        W68426  19.977  32.258  21.134 -0.0149  0.1825  0.1267
93439W        W68427  11.124  13.087  25.441 -0.2543  0.0733 -0.0283
93440W        W68428  10.782   0.960  23.646  0.4018 -0.0047  0.3207
93441W        W68429  35.356  27.749  18.507 -0.1377 -0.3286  0.3365
93442W        W68430  18.374  21.719   9.451  0.5182  0.0261  0.0454
93443W        W68431   8.557  13.145   7.102  0.0315  0.2882 -0.0234
93444W        W68432  27.141   4.379  25.729  0.0037  0.0088 -0.0369
93445W        W68433   6.014   0.238  21.174  0.0343  0.2805  0.2156
93446W        W68434  27.222   9.129  18.686 -0.3103  0.0114 -0.1810
93447W        W68435  17.846  23.619   2.441  0.1665 -0.1863 -0.0734
93448W        W68436   1.950  18.093  15.012  0.2269 -0.3208  0.1347
93449W        W68437  24.649  35.196   1.603  0.2178 -0.1644 -0.0757
93450W        W68438  26.205  21.478  12.559  0.1391  0.0006 -0.3561
93451W        W68439   3.601  12.178   3.049 -0.1465 -0.0344 -0.4831
93452W        W68440   6.431  31.876  21.929  0.0846  0.0449 -0.2766
93453W        W68441   1.284   1.839  24.490 -0.0575  0.1072  0.1630
93454W        W68442  27.800  18.224  21.856 -0.2054  0.1752 -0.2518
93455W        W68443   6.282  19.405   5.214 -0.1114 -0.0155  0.0856
93456W        W68444  22.518   8.109  19.460 -0.0338  0.1994 -0.0546
93457W        W68445  30.074  12.936  22.799 -0.1567 -0.3675  0.0164
93458W        W68446  32.926   9.572  17.113 -0.2409  0.3251 -0.2796
93459W        W68447  20.972   2.180  19.247  0.1304  0.0562 -0.0094
93460W        W68448  13.109  19.066   9.472  0.1626  0.0912  0.2744
93461W        W68449  26.875  11.779  12.086  0.0803 -0.0959  0.0600
93462W        W68450  12.232  27.559   4.834 -0.3656  0.0109  0.0008
93463W        W68451  28.199   9.077  21.536 -0.2228  0.1197 -0.1822
93464W        W68452  15.092   6.920  12.360 -0.2003 -0.1323  0.3629
93465W        W68453  19.623  21.286  18.373 -0.0256 -0.1162 -0.0272
93466W        W68454   2.052  17.725  16.449  0.1305  0.2003 -0.2034
93467W        W68455  24.350  13.134   1.003  0.1295  0.2130 -0.0226
93468W        W68456  26.354  16.467  14.767  0.2803 -0.0903 -0.0840
93469W        W68457  24.915  17.278  11.320  0.1073  0.0121 -0.0010
93470W        W68458  11.239  12.513   0.335  0.2185  0.0163 -0.2617
93471W        W68459  29.074  29.370   3.782  0.4684 -0.0467  0.2114
93472W        W68460   6.541   7.532   1.302  0.0728  0.1111 -0.2653
93473W        W68461  20.786  35.105   3.170 -0.3170  0.2312  0.4390
93474W        W68462   8.471  15.703  25.904 -0.1621  0.1544 -0.4496
93475W        W68463  23.840  15.714  15.460  0.0333 -0.4647  0.1918
93476W        W68464   7.999  34.386   6.355  0.0919  0.2679 -0.0738
93477W        W68465  11.384   7.176  11.144 -0.1468 -0.0192 -0.2649
93478W        W68466   4.159   0.883  20.315  0.0767 -0.2513  0.0207
93479W        W68467  23.653  18.771  23.318 -0.0573  0.2144 -0.0269
93480W        W68468  28.354  19.458   9.388 -0.0398  0.3742  0.0680
93481W        W68469   6.987  22.534   6.556  0.1026  0.0426 -0.0610
93482W        W68470  19.550  17.544  23.205  0.0518  0.2074 -0.0459
93483W        W68471  34.757  25.195   0.443 -0.1931 -0.0206  0.0806
93484W        W68472  33.915  22.449  20.731  0.0395  0.2099 -0.0457
93485W        W68473  26.899  29.134  10.906  0.3998  0.3679 -0.1356
93486W        W68474   1.545  32.351  22.586 -0.1882 -0.1897  0.1205
93487W        W68475  14.294  11.438  23.266 -0.1414  0.1547  0.0998
93488W        W68476   1.939   7.380   0.408  0.0746  0.0144  0.0622
93489W        W68477  13.635  18.927  22.288 -0.1859 -0.1654 -0.3926
93490W        W68478   2.677  28.840  22.909 -0.0154 -0.2901 -0.1705
93491W        W68479  25.101   6.418  22.431 -0.1105 -0.1061  0.3503
93492W        W68480  28.139  27.510  11.038 -0.1659 -0.1520 -0.0804
93493W        W68481  15.187  21.194  23.483  0.1755  0.0645  0.1576
93494W        W68482  16.229   5.855  23.393 -0.0256 -0.1445 -0.0220
93495W        W68483  10.373  23.185  13.086  0.3208  0.0400 -0.3270
93496W        W68484  29.219  34.649  20.355  0.4406  0.1391  0.2603
93497W        W68485   7.239  22.286  21.794  0.1012 -0.1699 -0.0317
93498W        W68486  10.761  12.183  12.093 -0.0110 -0.0447  0.2432
93499W        W68487  21.547   0.440  15.523 -0.4239  0.0827 -0.2828
93500W        W68488  28.556  18.041  16.445  0.2517 -0.1600 -0.1897
93501W        W68489   6.951  18.522  19.266  0.0892 -0.0399  0.0272
93502W        W68490   6.875  26.602   7.427 -0.1803 -0.1520  0.2110
93503W        W68491  28.937   6.221  15.862  0.0926 -0.0841 -0.1182
93504W        W68492  14.035  22.693  23.202 -0.0622 -0.2545 -0.4173
93505W        W68493   0.333  10.967  19.321  0.0777  0.3390  0.0331
93506W        W68494   7.445  25.287   1.995 -0.2869  0.0761  0.0895
93507W        W68495  32.548  34.264   2.204  0.1149  0.1783 -0.0376
93508W        W68496  13.214   9.748  21.261  0.0802  0.2891 -0.1594
93509W        W68497  27.074  32.075  15.574 -0.3268 -0.2230  0.2007
93510W        W68498  21.749   4.187   7.528  0.0287 -0.0210  0.0865
93511W        W68499   8.647  21.480  10.450  0.0870  0.2756  0.2422
93512W        W68500  31.824  16.569  13.584 -0.0220 -0.0661  0.0731
93513W        W68501  18.241  11.162   9.933 -0.0024 -0.1463 -0.1913
93514W        W68502  29.748  35.343  14.586  0.6120  0.3827  0.2666
93515W        W68503  25.444  29.488  20.965 -0.2652 -0.2376 -0.1235
93516W        W68504  14.544  10.617  21.870  0.4771  0.0218 -0.1039
93517W        W68505  28.752   1.693   2.306 -0.1501 -0.0345  0.0148
93518W        W68506   6.705  15.197  12.390 -0.4103 -0.1419  0.2465
93519W        W68507   5.676  27.387  11.328  0.3287  0.1615  0.0662
93520W        W68508   5.985   5.600  18.191  0.0001 -0.1727 -0.1407
93521W        W68509   5.394  11.506  21.554 -0.2670 -0.1116  0.2169
93522W        W68510   6.680  34.622  25.321 -0.1455 -0.0978  0.4036
93523W        W68511   1.959  26.640   1.534 -0.1337 -0.0857  0.0241
93524W        W68512  22.667   7.630   2.498 -0.1885 -0.3556  0.0626
93525W        W68513   0.308  33.428   2.172  0.1863  0.1143  0.1211
93526W        W68514  24.347  30.515  19.650 -0.3592 -0.1010  0.3261
93527W        W68515  20.887  17.575  20.427  0.0496  0.4235 -0.1235
93528W        W68516  10.113  31.869  13.091 -0.0691  0.0424 -0.0844
93529W        W68517   8.272  17.014   1.853 -0.0395 -0.0958  0.0819
93530W        W68518  15.070   7.177  12.826 -0.1478 -0.2322  0.1732
93531W        W68519  32.871   6.182  15.220  0.0478  0.1598 -0.3023
93532W        W68520  16.472   5.612   9.176  0.2010  0.0110  0.2255
93533W        W68521  17.465  14.146  25.185 -0.0951 -0.0852  0.0947
93534W        W68522  23.482  22.141  22.351 -0.2154  0.0111 -0.2444
93535W        W68523   6.194  21.495   7.768 -0.2918  0.2354  0.0014
93536W        W68524  13.375  27.760   9.388 -0.0867  0.0804 -0.1382
93537W        W68525  17.687  14.677   1.530 -0.2991 -0.1830 -0.1667
93538W        W68526   1.462  22.765  22.859  0.2320  0.0027  0.0299
93539W        W68527  35.336   1.037  21.035 -0.0340 -0.2220  0.2557
93540W        W68528   4.077   2.210   1.620  0.0366 -0.0264 -0.3491
93541W        W68529  17.984   6.396  18.265  0.1042  0.1139  0.0657
93542W        W68530  16.291  23.767  26.162  0.7865 -0.3286  0.1879
93543W        W68531  31.236  15.419  18.186 -0.2147  0.1578 -0.1234
93544W        W68532  24.753   8.277   3.355  0.1949 -0.1048 -0.1180
93545W        W68533  24.259  27.359  18.589  0.0167 -0.0147 -0.2220
93546W        W68534  20.609   1.444  22.620  0.0608 -0.2784 -0.2334
93547W        W68535  32.938  31.565  23.591  0.3664 -0.0700 -0.1719
93548W        W68536  11.045   3.959   3.017 -0.1381  0.0464 -0.0902
93549W        W68537  24.803   1.242   7.183 -0.1728 -0.2071 -0.1158
93550W        W68538  29.505  25.826   0.498 -0.2653  0.1316 -0.2300
93551W        W68539  11.114   6.189  19.847  0.1258 -0.2894 -0.1796
93552W        W68540  25.707  17.644  10.947  0.4306 -0.1361 -0.0832
93553W        W68541  12.154  20.777  23.564  0.0575  0.1022 -0.0683
93554W        W68542   7.467  34.126   5.001 -0.2841 -0.3013 -0.3525
93555W        W68543  31.115  29.603   2.407 -0.3516 -0.6549 -0.1695
93556W        W68544  27.307  18.690  23.710  0.2865 -0.1126  0.0609
93557W        W68545  19.083  14.577  23.861  0.2392  0.1321  0.2123
93558W        W68546  20.591  30.569   6.385 -0.1430  0.1082  0.2231
93559W        W68547  12.811   0.490  18.795  0.0692 -0.0365  0.0159
93560W        W68548   8.432  34.959  20.147  0.0155  0.0411 -0.0432
93561W        W68549  28.397  23.922  16.603  0.3162  0.3827  0.3491
93562W        W68550  11.311  13.618   9.366 -0.0385 -0.0345 -0.1577
93563W        W68551  20.004   0.680  26.054 -0.1151  0.2906  0.2096
93564W        W68552  15.079   5.818  12.377  0.1981  0.1829 -0.1491
93565W        W68553  12.293  17.765  23.239  0.3262 -0.0451 -0.1394
93566W        W68554   3.077  30.891  12.408  0.0464  0.1472 -0.0767
93567W        W68555  27.805  30.715  19.266 -0.0098 -0.0703 -0.2380
93568W        W68556  11.042   7.129  23.899  0.1571 -0.2570  0.1035
93569W        W68557   7.232  33.146   2.718  0.1723 -0.1165 -0.0830
93570W        W68558  33.673  26.085   3.331 -0.1996  0.2248 -0.3209
93571W        W68559  28.970  31.175  20.747  0.1408 -0.2765 -0.5391
93572W        W68560  13.297   6.840  11.168  0.1297 -0.0360  0.0660
93573W        W68561  16.088  28.516   9.056 -0.0544 -0.2998 -0.2669
93574W        W68562  20.708  30.319  17.032  0.2448 -0.0879  0.0889
93575W        W68563  32.391  23.345  15.606  0.0841 -0.0733 -0.0815
93576W        W68564  22.062   8.975  22.893  0.2117  0.0454 -0.1906
93577W        W68565  19.727   5.883   6.960 -0.0298  0.0519 -0.0257
93578W        W68566  29.779  14.363   9.256  0.2765 -0.1621 -0.1140
93579W        W68567  29.084  32.183   2.407  0.3711 -0.0194 -0.1686
93580W        W68568  29.281  22.408  23.109 -0.1413  0.0612 -0.0750
93581W        W68569  16.796  31.691  22.925  0.1597  0.1827  0.4657
93582W        W68570  19.891  28.324   1.892  0.1517 -0.0341 -0.2438
93583W        W68571  35.264  11.605  23.590  0.2113  0.0133  0.3042
93584W        W68572  18.683  35.306  20.127  0.1943  0.0572 -0.0601
93585W        W68573  11.358  24.491   7.947  0.1873  0.0220 -0.0771
93586W        W68574  32.135   7.138  25.711 -0.0170  0.2317 -0.3074
93587W        W68575  14.374  28.848  22.394  0.0715 -0.2239 -0.2129
93588W        W68576  33.135   1.044   6.624  0.0572 -0.0569 -0.1835
93589W        W68577  27.284  21.104  16.771 -0.0449 -0.2373 -0.0369
93590W        W68578  26.489  20.163  21.399  0.0698  0.2993 -0.0385
93591W        W68579  26.300  34.357   3.149  0.0967  0.0924 -0.1119
93592W        W68580  24.652  12.188  17.639  0.1480 -0.0424 -0.3003
93593W        W68581  12.648  19.873  11.856  0.0727  0.0279 -0.1912
93594W        W68582   9.704  18.136   8.601  0.0571 -0.1313 -0.0645
93595W        W68583  27.827  10.268  12.681 -0.1554  0.2785 -0.4089
93596W        W68584  34.254  31.732   2.380 -0.3238  0.0230 -0.1419
93597W        W68585  13.264   0.107  24.704  0.2340 -0.2536  0.1859
93598W        W68586  31.489  25.637  14.063  0.0815 -0.1339  0.2861
93599W        W68587   3.095  13.261  15.326  0.1431  0.1691  0.2767
93600W        W68588  19.343  20.854  10.172 -0.2891  0.0132 -0.3444
93601W        W68589  34.048  24.431  19.740  0.1943 -0.0145 -0.2939
93602W        W68590  12.070  16.138   6.805 -0.1323  0.1331 -0.1134
93603W        W68591  28.469   6.881  22.785 -0.4457  0.0599  0.0942
93604W        W68592   9.972  20.229   0.608  0.0151  0.0222  0.5313
93605W        W68593   0.219  31.639  17.211 -0.0351  0.2398 -0.2030
93606W        W68594  27.310  17.688  19.108  0.0786 -0.0402 -0.3357
93607W        W68595  23.196   8.139   0.001 -0.1321  0.2801  0.1021
93608W        W68596  19.753  20.928  23.028 -0.0484  0.1585 -0.0581
93609W        W68597  18.867  16.215   4.710 -0.1665 -0.2526 -0.3024
93610W        W68598  10.871  30.655  10.043 -0.0266  0.2291 -0.3629
93611W        W68599  15.268  14.686  21.753 -0.1066 -0.1441 -0.1457
93612W        W68600   4.404  17.279  21.586  0.0617  0.1862 -0.0796
93613W        W68601  18.307   8.737   5.235 -0.0511 -0.0890  0.1131
93614W        W68602  31.184  35.030  18.882 -0.1796  0.4165 -0.0151
93615W        W68603  25.343  25.077  22.469  0.2569 -0.1115 -0.2335
93616W        W68604  17.295  12.374   7.170 -0.1504  0.1873 -0.1827
93617W        W68605  32.655   1.857  22.234  0.0319  0.2072  0.2916
93618W        W68606  12.819  12.671  21.374 -0.2734  0.1274 -0.1846
93619W        W68607  23.259  34.010  15.174 -0.3880 -0.3469 -0.3182
93620W        W68608  26.662   6.875  10.554  0.4053 -0.2158  0.0066
93621W        W68609  27.725  25.872  20.825 -0.2955 -0.1029 -0.3868
93622W        W68610  27.568   1.941  19.315 -0.0423  0.2088 -0.0302
93623W        W68611  12.233  20.275   6.248 -0.0179  0.2930 -0.2167
93624W        W68612   8.788  25.817   7.179  0.0041 -0.1693 -0.3245
93625W        W68613  18.781  29.880  21.629  0.1503 -0.2232  0.0297
93626W        W68614  17.328   9.579   7.332 -0.0868 -0.0148 -0.0317
93627W        W68615   3.026  16.327  16.378 -0.2638  0.1495  0.2013
93628W        W68616  22.427  24.358   3.777  0.1202 -0.1483  0.0429
93629W        W68617   7.496  30.424  12.511  0.0504  0.1375  0.1648
93630W        W68618  25.185  24.005  16.347 -0.0354 -0.0788  0.0203
93631W        W68619  12.807  27.465   2.968  0.0704  0.2645 -0.0465
93632W        W68620  32.866  29.936  16.946  0.1187 -0.3134 -0.1938
93633W        W68621  17.940  33.237   0.916 -0.1995 -0.0983 -0.2880
93634W        W68622   8.489  11.086  25.444  0.4073 -0.2612  0.1805
93635W        W68623  13.155  26.255   9.102 -0.3102  0.1212  0.1636
93636W        W68624  11.292  30.224  21.357 -0.2260 -0.2381 -0.0437
93637W        W68625  14.423  30.717   5.434 -0.1114 -0.1180 -0.0723
93638W        W68626  32.828  21.319  18.685 -0.1899 -0.0041 -0.1487
93639W        W68627  20.804   8.125   0.635  0.0591 -0.1020 -0.1930
93640W        W68628   5.508  28.175  11.861 -0.0206 -0.0299 -0.2800
93641W        W68629   3.248  29.241   4.545  0.3225  0.1712  0.0189
93642W        W68630  15.685  33.990   8.305 -0.2002  0.0454  0.1568
93643W        W68631  30.777  13.361  12.103  0.1627  0.0359 -0.2238
93644W        W68632   5.672   5.842  19.538  0.5684 -0.1688 -0.0540
93645W        W68633  33.215  32.084  20.873  0.2495  0.2573  0.4354
93646W        W68634  23.922  25.039  15.701  0.1141  0.1701 -0.1146
93647W        W68635  35.257  18.918  11.124 -0.4603 -0.0396 -0.0463
93648W        W68636  29.120  12.873  17.253  0.0971 -0.0829 -0.1660
93649W        W68637  33.353   4.860  12.214  0.3052 -0.1588  0.0971
93650W        W68638   5.569  32.411  23.543 -0.0386 -0.0169 -0.0409
93651W        W68639   7.395  17.830   4.964  0.0174  0.3501  0.0960
93652W        W68640  28.159  27.162  21.266  0.2363 -0.0345 -0.0730
93653W        W68641   3.814   7.570  24.333 -0.4012  0.3783  0.0664
93654W        W68642   0.584  18.666   9.799  0.0719 -0.1911  0.2992
93655W        W68643  24.348   0.219  25.948 -0.0805  0.1550 -0.4689
93656W        W68644   1.121   8.171  12.546  0.1323 -0.0537 -0.0924
93657W        W68645  10.629  33.765  13.979 -0.0324  0.0554  0.1227
93658W        W68646   5.548   4.770  23.389  0.0863  0.0578 -0.0986
93659W        W68647   6.150  16.597  25.834  0.0871 -0.0739  0.1741
93660W        W68648  32.897  11.174  25.277 -0.1607  0.1083 -0.3181
93661W        W68649  23.266   3.701  16.325  0.1188 -0.1447  0.1717
93662W        W68650  31.414  11.685  18.054  0.0616  0.0484 -0.2775
93663W        W68651  25.842  26.384  10.370  0.0828  0.0285 -0.6467
93664W        W68652  12.573  19.643  13.678  0.2561 -0.0619 -0.0768
93665W        W68653  13.960  26.475  22.828  0.0084 -0.0594  0.1173
93666W        W68654  26.424  13.147  16.918 -0.0483  0.2341  0.1309
93667W        W68655  23.874   9.442  18.693 -0.3277  0.1658  0.1986
93668W        W68656  27.166  26.309   9.540  0.0076 -0.0882  0.3009
93669W        W68657  18.054  13.954   9.312  0.2816 -0.0221  0.0306
93670W        W68658   2.282  29.972  25.205 -0.0055  0.0066  0.1399
93671W        W68659   5.830  14.604  23.964  0.1876  0.2645 -0.0544
93672W        W68660  33.484  33.872  20.558  0.0927  0.2136 -0.1433
93673W        W68661   5.088   8.933   8.182 -0.1173 -0.0427 -0.2935
93674W        W68662   4.922  17.409   1.831  0.0344 -0.0164 -0.0976
93675W        W68663   3.774  18.678   0.979  0.2502 -0.0211  0.1913
93676W        W68664  11.426  21.889  12.125  0.0573 -0.0211 -0.2725
93677W        W68665  13.412  25.596  24.367  0.4466 -0.1159  0.1284
93678W        W68666   8.371   2.822  10.688 -0.1506  0.2607  0.3090
93679W        W68667  10.545  29.076   8.831 -0.1403 -0.2608  0.1322
93680W        W68668   0.475  18.615  17.416 -0.1203  0.1508 -0.0285
93681W        W68669  11.618  20.031  24.137 -0.1221 -0.0272 -0.0300
93682W        W68670   6.971   3.260   5.304  0.0598  0.2452 -0.1282
93683W        W68671   3.089  11.372   2.098 -0.1312  0.0131 -0.1960
93684W        W68672  25.668   8.626   9.398 -0.0143  0.5230  0.0525
93685W        W68673  33.963   6.085  11.807  0.3913  0.0739 -0.0572
93686W        W68674  25.544  18.372  16.993 -0.2902  0.1792 -0.0701
93687W        W68675  26.696  11.631  23.840  0.2395  0.1712  0.1746
93688W        W68676   9.195   6.263   1.453  0.1714  0.2646  0.2877
93689W        W68677   1.237  23.010   1.942 -0.1507 -0.2763 -0.1280
93690W        W68678  25.736  24.274  24.914 -0.1566  0.1792  0.0929
93691W        W68679  21.528   8.383   2.391 -0.0293  0.0309  0.0764
93692W        W68680  21.289  12.074  21.039  0.0806 -0.2414  0.0363
93693W        W68681   8.741  34.930  22.630  0.1045  0.2555 -0.0374
93694W        W68682  31.841   7.286  15.424  0.0395 -0.2262 -0.0866
93695W        W68683   8.882  29.004  11.631  0.3225  0.0011 -0.0805
93696W        W68684   9.175  21.174  15.876 -0.0824  0.1325 -0.0464
93697W        W68685  13.475  14.290  20.032 -0.1723 -0.3212  0.0445
93698W        W68686   6.889  35.314   3.771 -0.0670  0.0015 -0.0612
93699W        W68687  13.589   3.189  19.641 -0.0071 -0.1549 -0.0765
93700W        W68688  32.322  16.181  10.069 -0.1239 -0.0385 -0.2846
93701W        W68689  21.466  34.512  23.130 -0.0188 -0.0687 -0.3322
93702W        W68690  25.241  18.355  26.080  0.0034  0.1790 -0.0533
93703W        W68691  18.845  31.184   4.111 -0.1175  0.1317 -0.3607
93704W        W68692  25.800   4.282  25.995  0.3410 -0.0367 -0.0025
93705W        W68693  29.179   5.300  16.766  0.3685  0.2998 -0.1543
93706W        W68694  28.887   5.047  26.076  0.0022  0.1034 -0.2469
93707W        W68695  33.350  17.079  24.413 -0.2240 -0.1457 -0.0211
93708W        W68696   1.766   0.997  25.890  0.0076  0.0874 -0.0615
93709W        W68697   3.889  27.065   6.983 -0.3402  0.2294  0.1239
93710W        W68698  18.978  21.920   7.784 -0.0350  0.2239  0.1225
93711W        W68699  17.253   6.697   2.673 -0.0975  0.1713 -0.0523
93712W        W68700  24.759   4.128  20.806 -0.0640  0.0046  0.1239
93713W        W68701   1.712   5.658  19.470 -0.2148  0.0731 -0.1158
93714W        W68702  13.258  32.313  23.598 -0.2171 -0.0151  0.1337
93715W        W68703  30.773   8.981   1.229  0.1352 -0.0000 -0.1564
93716W        W68704   0.010  34.621  24.856 -0.0137  0.3554  0.1875
93717W        W68705  23.220  14.369  15.184  0.0142 -0.3281 -0.3545
93718W        W68706   1.595   6.028  20.653 -0.0031  0.2330 -0.1104
93719W        W68707   6.387  18.777  21.992 -0.0734 -0.1516 -0.1197
93720W        W68708   3.450   2.595   0.501  0.1201  0.3348  0.0612
93721W        W68709  29.039  22.156  11.201 -0.0218 -0.0731  0.3300
93722W        W68710  24.448  13.398   0.576  0.1658  0.0757  0.1210
93723W        W68711  28.181  32.166  22.392 -0.0701 -0.0479 -0.0038
93724W        W68712  21.904   2.328  14.087 -0.1366 -0.1489  0.0061
93725W        W68713   7.915  35.263   8.881  0.2122  0.1862  0.2032
93726W        W68714  23.007  33.481   4.597 -0.0609 -0.2073  0.1129
93727W        W68715   4.859  33.905   2.820  0.1902  0.2801 -0.3077
93728W        W68716   0.507  21.120   0.401  0.1192  0.3299 -0.0702
93729W        W68717   4.575   9.029  21.797 -0.1251 -0.2889  0.0651
93730W        W68718   9.222  27.040  12.833  0.3941  0.0328  0.0715
93731W        W68719  29.581   1.174  16.083  0.1496  0.2360  0.0937
93732W        W68720  15.649  29.687   2.226 -0.1583  0.2084  0.0362
93733W        W68721  12.809  35.278   4.514  0.0492  0.0166 -0.2657
93734W        W68722  31.032  29.295  12.384 -0.1532  0.2383 -0.4841
93735W        W68723  20.715   8.108  24.892 -0.0134  0.0419 -0.1224
93736W        W68724  22.310   7.598  19.733 -0.1008 -0.0164 -0.0278
93737W        W68725   0.125  17.077  14.191  0.0055  0.1368  0.1365
93738W        W68726  32.579  31.371  19.104 -0.0054 -0.0782  0.1646
93739W        W68727  28.179   3.121  12.569  0.0255 -0.0363 -0.2334
93740W        W68728   6.232   7.165   3.768 -0.1121  0.1606  0.1172
93741W        W68729  18.177  10.806   1.679 -0.6610  0.2677  0.2930
93742W        W68730  30.735  23.835   6.389 -0.1631  0.2480 -0.3210
93743W        W68731  26.993  27.237  23.501 -0.0323  0.1552  0.0846
93744W        W68732   6.215   2.602  23.358  0.1838  0.4174 -0.1928
93745W        W68733   8.039  15.223  24.422  0.1495  0.2309  0.4257
93746W        W68734  10.787  18.119  13.499  0.3348  0.3639 -0.1917
93747W        W68735  20.242  35.344   6.235 -0.0125  0.3208  0.2317
93748W        W68736  34.653  27.611  15.779 -0.0702 -0.0835  0.1638
93749W        W68737  29.943  16.085   5.599  0.0895 -0.1629  0.0477
93750W        W68738  21.903  22.264  22.259 -0.1226  0.1214  0.1073
93751W        W68739  30.825  11.413  15.679 -0.0061 -0.0508 -0.1747
93752W        W68740   7.264  21.212   2.076  0.3889  0.3206 -0.0958
93753W        W68741  16.835  26.230   1.174  0.0249  0.0251 -0.0366
93754W        W68742  34.494  34.628   6.157  0.0343  0.1925 -0.2282
93755W        W68743  33.132  17.006  17.757  0.0775  0.0492  0.0030
93756W        W68744   3.425   4.536   6.823 -0.1772  0.1755  0.0120
93757W        W68745   4.661  34.701   4.189 -0.1865  0.4033 -0.0639
93758W        W68746  14.419  26.162  11.292  0.2203  0.0493 -0.2056
93759W        W68747  17.611  21.133  12.771  0.2959  0.4598 -0.1183
93760W        W68748  31.083   1.887  16.853 -0.2546  0.0056  0.2301
93761W        W68749   0.242  20.150  11.710  0.1305  0.3501  0.2622
93762W        W68750  13.288   7.659  25.890  0.0646 -0.0604  0.2853
93763W        W68751   1.301  16.390  10.352 -0.2057  0.1304 -0.0790
93764W        W68752  27.854  10.949  25.140 -0.1812  0.0193  0.0075
93765W        W68753   7.413  30.799  21.852 -0.2903  0.0686 -0.1689
93766W        W68754  25.592   7.867  25.572  0.0033  0.1603  0.2431
93767W        W68755  12.325  29.972  16.632 -0.0612 -0.1161  0.2855
93768W        W68756  13.443  10.593  12.281 -0.2316  0.3541  0.0363
93769W        W68757   0.972   1.896  15.026  0.1196 -0.1455 -0.4520
93770W        W68758   0.618   6.210  12.542 -0.1532 -0.1837 -0.5468
93771W        W68759   3.562  21.380  18.875 -0.2448  0.0300  0.2985
93772W        W68760   8.812   2.499  24.314  0.1892  0.2922 -0.2624
93773W        W68761  21.745  16.553  19.668 -0.0031 -0.2269 -0.0968
93774W        W68762  26.371  28.167  15.363  0.0918  0.0507  0.0006
93775W        W68763  30.304   0.001  19.576 -0.1359  0.0719 -0.0415
93776W        W68764  19.079  25.268   3.192  0.0845 -0.2396 -0.2302
93777W        W68765   0.278  23.008  12.326 -0.1944 -0.0761 -0.0321
93778W        W68766   5.285  23.129   8.869 -0.0115  0.0470  0.3833
93779W        W68767  14.327   4.729  23.909  0.0787 -0.0769 -0.3293
93780W        W68768  31.612  34.592  20.590  0.3543 -0.0611  0.2435
93781W        W68769  13.198  18.187   5.825 -0.0202  0.1505 -0.1756
93782W        W68770  26.780  14.188  24.778  0.0109 -0.2309  0.0300
93783W        W68771  14.236  31.656   1.190  0.1177  0.0554 -0.0102
93784W        W68772  29.327   9.767  15.633 -0.2135 -0.2492  0.1839
93785W        W68773  23.576  23.900   2.258 -0.1844 -0.0299 -0.0383
93786W        W68774   5.325   4.683   9.310  0.1046 -0.1511  0.0423
93787W        W68775  23.467  13.785   1.832 -0.1511 -0.0122  0.0841
93788W        W68776   3.043  26.925  19.210 -0.1506 -0.3623  0.2219
93789W        W68777  18.801  19.827  10.787 -0.1950  0.1248 -0.2284
93790W        W68778   4.042   9.444  22.523 -0.0024  0.1563 -0.3261
93791W        W68779  14.308  19.575   3.299  0.2379 -0.1839  0.0145
93792W        W68780  24.878  19.281  16.161  0.3760 -0.2463 -0.3384
93793W        W68781  23.177  26.812   2.780  0.2880 -0.0109 -0.4510
93794W        W68782  27.576  23.695  20.723  0.1765 -0.2903 -0.3014
93795W        W68783  27.994  15.667  17.693 -0.2644  0.1006  0.2985
93796W        W68784  29.877  34.366   2.297  0.1229  0.1531  0.2709
93797W        W68785  29.877  17.209   7.646  0.0171 -0.2519  0.1198
93798W        W68786  16.916  13.064  20.992  0.0687  0.1011  0.3518
93799W        W68787  14.801  34.963   1.522 -0.0555  0.1793  0.1544
93800W        W68788  33.852  23.961  18.046 -0.1319  0.1032  0.0769
93801W        W68789   4.283  22.779  23.488 -0.0746 -0.0525  0.1421
93802W        W68790   8.737   7.062  20.121 -0.0831 -0.1005  0.1177
93803W        W68791  19.142  33.570  22.919 -0.0879 -0.0474 -0.1085
93804W        W68792  30.954   4.829   0.202  0.0052 -0.1123  0.1725
93805W        W68793  16.880  25.157  22.303 -0.0909  0.3187 -0.2005
93806W        W68794  26.152  22.393  13.541 -0.3630 -0.1625 -0.1463
93807W        W68795  11.817  27.057  22.545 -0.0230  0.1771  0.0356
93808W        W68796  29.254  14.445   9.422  0.0522 -0.0433  0.1374
93809W        W68797  30.405   4.772  23.925  0.0697 -0.1523 -0.0523
93810W        W68798   0.769   2.777  24.856  0.1354  0.1521  0.1553
93811W        W68799   0.268  32.091  18.252 -0.3797  0.3295 -0.1271
93812W        W68800  32.362  32.363   4.743 -0.1433 -0.0975  0.1616
93813W        W68801  13.066  14.456  12.464 -0.1758 -0.4645 -0.0689
93814W        W68802  26.810   1.963   5.479 -0.3657  0.0119 -0.0361
93815W        W68803  33.767  30.811  15.414  0.0284  0.4503 -0.2784
93816W        W68804  31.436  23.581  24.774 -0.3860  0.2956 -0.2029
93817W        W68805  21.347  11.880   3.863 -0.0613  0.2429  0.1872
93818W        W68806  18.642   6.431   0.069  0.2056 -0.0308  0.3527
93819W        W68807   5.617  18.437  17.437  0.1889 -0.1624  0.1025
93820W        W68808  21.409   3.038   0.008  0.0395  0.2648  0.0519
93821W        W68809  35.195   8.537   3.311 -0.2296  0.2943 -0.1211
93822W        W68810  23.491  13.853  20.240  0.1233  0.0356 -0.1139
93823W        W68811  22.218  30.797   2.378 -0.1995 -0.0146  0.0006
93824W        W68812  28.992  33.021  10.628  0.0123  0.2226  0.1102
93825W        W68813  18.849  11.976  18.731  0.0579  0.0846  0.3381
93826W        W68814   3.039  21.859  17.686  0.2681 -0.0373 -0.0427
93827W        W68815  16.531  14.106   4.255 -0.2512  0.2124 -0.0683
93828W        W68816   3.779  11.184  20.435  0.0202  0.1599 -0.2157
93829W        W68817  31.322   8.029  19.185  0.0509 -0.0846  0.0908
93830W        W68818  23.243  28.773  13.659  0.0079 -0.0991 -0.2630
93831W        W68819   3.417  31.702  24.711 -0.0007 -0.1390 -0.0727
93832W        W68820  35.124  16.379  14.595 -0.0109 -0.0809  0.0659
93833W        W68821  29.772   7.780  20.328  0.5436  0.1012 -0.2996
93834W        W68822  26.207  16.951  21.998  0.3919 -0.3297 -0.3832
93835W        W68823  12.848  21.591   8.442 -0.4164  0.0336  0.0571
93836W        W68824  16.058  25.239   7.246  0.2105  0.0265  0.0830
93837W        W68825  10.648  29.407  24.729 -0.2287  0.0006  0.2925
93838W        W68826  17.316   0.593  21.913 -0.5329 -0.2986  0.1591
93839W        W68827  35.350   2.720   2.992 -0.1169  0.0778  0.2031
93840W        W68828  26.829   2.798  19.554 -0.3629  0.1070  0.1759
93841W        W68829   5.989  21.398  24.143 -0.3514  0.3533 -0.0101
93842W        W68830   5.910  16.181   5.680  0.1271 -0.1268  0.1436
93843W        W68831  31.767   4.014  14.970  0.0748 -0.1139  0.2203
93844W        W68832  33.452  29.218  18.084  0.3413 -0.3594  0.3255
93845W        W68833  33.302   0.289  15.319  0.1754  0.0453  0.1931
93846W        W68834  29.296  30.870   5.324  0.2461  0.1150 -0.4232
93847W        W68835  11.510  19.839   7.278 -0.3283  0.0046 -0.2597
93848W        W68836  12.073  16.924  13.806 -0.3876 -0.3239  0.1269
93849W        W68837  28.100  12.866   9.076  0.1703 -0.1743 -0.2235
93850W        W68838   8.230  14.686   9.469  0.3067 -0.0427 -0.2153
93851W        W68839  25.050   2.439  26.032 -0.0377 -0.2572  0.0554
93852W        W68840  19.907  23.875  18.352 -0.0348  0.0859  0.0711
93853W        W68841  26.209  33.012   5.609 -0.0759  0.3061  0.0410
93854W        W68842  18.219   0.733   7.023  0.0671 -0.0411  0.1158
93855W        W68843  11.256  22.557   2.012 -0.0056 -0.3467  0.3625
93856W        W68844  14.487   1.132   5.768 -0.3665 -0.3874 -0.0114
93857W        W68845   7.300  10.207  18.327 -0.2039 -0.2832 -0.1451
93858W        W68846   4.154  28.339  12.029 -0.1569 -0.1858 -0.1248
93859W        W68847  13.595  17.451  12.182 -0.4716 -0.0780  0.1205
93860W        W68848  23.391  24.563  20.270 -0.0929 -0.2661 -0.0787
93861W        W68849  31.268  30.082  23.988  0.0533  0.2072  0.0369
93862W        W68850  30.236   8.439  20.663  0.1645 -0.1178  0.0844
93863W        W68851  15.884  35.269  20.115 -0.0208 -0.0427 -0.0429
93864W        W68852   7.436   3.845   0.066  0.1836  0.2221 -0.0233
93865W        W68853   5.394   6.219   4.645 -0.0936  0.0055 -0.0818
93866W        W68854  13.976  12.053  22.177 -0.0584 -0.3779 -0.1026
93867W        W68855   6.856   1.544   3.756 -0.0250  0.0039 -0.4448
93868W        W68856  21.296  32.695  23.881 -0.1173 -0.0215 -0.0929
93869W        W68857  19.281  22.107   4.508 -0.0277  0.3138  0.1316
93870W        W68858  16.718   3.209   0.988 -0.0109 -0.0015 -0.0667
93871W        W68859   3.970  25.874  24.690  0.2477  0.1236 -0.0230
93872W        W68860  13.710   3.688   6.373  0.0489  0.0412  0.1215
93873W        W68861  26.525  18.335  19.440 -0.1081  0.0368  0.2305
93874W        W68862   9.134   9.757   1.320 -0.0725  0.2988 -0.0889
93875W        W68863  21.704  35.226   1.894  0.1846  0.0507  0.2606
93876W        W68864   1.188  28.465   3.751  0.0478  0.0583 -0.2866
93877W        W68865  11.734  10.043  10.068  0.1715  0.0825  0.2298
93878W        W68866   1.195  10.639  26.089 -0.0209 -0.0192  0.0448
93879W        W68867   1.546  15.532  21.703 -0.0642 -0.0958 -0.1420
93880W        W68868   0.473  11.272  19.741  0.2316 -0.2553  0.3799
93881W        W68869   9.817   3.355   0.019 -0.2502  0.1746 -0.1134
93882W        W68870  31.213  22.806   7.437 -0.0858  0.2298  0.0516
93883W        W68871  11.898   4.333  23.468  0.1421  0.0750  0.1051
93884W        W68872   9.987  26.315   6.526  0.4342  0.1831  0.0409
93885W        W68873  31.759  25.432   8.563  0.1180 -0.1753 -0.2585
93886W        W68874   9.035  29.946   3.258  0.0802  0.0333  0.3476
93887W        W68875  14.999   1.255   8.678 -0.0611  0.1574 -0.0576
93888W        W68876  27.231  22.787  10.288  0.0863  0.0886  0.2290
93889W        W68877  20.681   1.254  14.874  0.1148 -0.0166 -0.0860
93890W        W68878   5.271   0.280   1.158  0.1854  0.0385 -0.0708
93891W        W68879  28.858  17.592  19.246  0.0695  0.3567  0.2430
93892W        W68880  16.822  26.872  13.314 -0.0948  0.1335  0.3061
93893W        W68881  29.318  29.411  25.357  0.1897  0.4198 -0.1154
93894W        W68882  20.033  26.991   8.919 -0.1079 -0.1724 -0.3226
93895W        W68883  32.410  28.931  12.367 -0.0716 -0.0387  0.2979
93896W        W68884  16.341  14.704  19.573  0.3621 -0.1095  0.0142
93897W        W68885  14.154  27.664  16.119 -0.3026 -0.2521  0.3605
93898W        W68886  12.577  25.007  16.682  0.0812  0.1021 -0.0899
93899W        W68887  12.879   8.998  11.661  0.1331 -0.1420  0.1830
93900W        W68888   1.265  16.778  18.900  0.2024 -0.0792  0.3272
93901W        W68889  22.586  31.728  13.181  0.0315 -0.1220 -0.2536
93902W        W68890  33.062   7.882  17.011  0.2694 -0.2499  0.2119
93903W        W68891  27.886  14.460   0.112  0.0617 -0.3887 -0.3541
93904W        W68892  34.221   7.895   4.486 -0.3547 -0.1422 -0.2055
93905W        W68893  20.565  30.711   5.821  0.0727  0.2611  0.2597
93906W        W68894   6.601   3.729   6.974 -0.0364 -0.1071 -0.1843
93907W        W68895  17.029  11.411   6.777  0.0383 -0.0430 -0.1554
93908W        W68896  32.856  14.624  15.313  0.1429 -0.0592 -0.0516
93909W        W68897  20.153   5.919   1.992 -0.1555 -0.0414  0.0960
93910W        W68898   3.143  33.558  18.100 -0.2188 -0.0217  0.0027
93911W        W68899  17.039  25.904   1.566  0.2025 -0.1026  0.1591
93912W        W68900   5.809   3.779   2.155  0.3157  0.1670 -0.1363
93913W        W68901  21.253   9.266  18.854 -0.1570 -0.2332  0.0924
93914W        W68902  31.787   7.480  17.775  0.2532 -0.0316  0.0277
93915W        W68903   6.507   7.377  12.155  0.3161 -0.0121 -0.0953
93916W        W68904   4.850  24.347  21.170  0.1556 -0.2480  0.1153
93917W        W68905  21.491  26.872   4.457  0.2481  0.4658  0.0578
93918W        W68906  17.391  12.535   6.205 -0.2660  0.2169 -0.1299
93919W        W68907  22.032  13.996   3.781  0.0770  0.0276  0.2711
93920W        W68908   4.223   7.479   6.504  0.2589  0.4651 -0.1684
93921W        W68909  25.151  12.528  22.354  0.0062 -0.0347 -0.2002
93922W        W68910  15.728   7.299  24.145  0.1765  0.0393  0.1207
93923W        W68911   6.700  34.693   0.231 -0.3395  0.2756  0.2319
93924W        W68912  21.765  27.867  21.404 -0.1202 -0.2904  0.0639
93925W        W68913  16.052  11.068  18.592 -0.1810 -0.2400 -0.0587
93926W        W68914  11.249   3.889   9.500 -0.2388 -0.4352 -0.1847
93927W        W68915  16.560  16.517   0.892  0.1153  0.0301  0.1890
93928W        W68916  21.095  32.998  13.858 -0.0230 -0.2010 -0.1861
93929W        W68917  13.970  22.398   8.069 -0.0524  0.2595 -0.2130
93930W        W68918  31.797  32.959  16.422  0.0178 -0.0139 -0.3964
93931W        W68919   3.834   9.983  16.028 -0.0873 -0.1070 -0.3565
93932W        W68920   0.760  23.859   4.013  0.0472 -0.1134 -0.3224
93933W        W68921  20.297   6.384  11.462 -0.1105  0.1082  0.1675
93934W        W68922  28.473  25.251   7.219 -0.0170 -0.0559  0.1731
93935W        W68923  33.139   2.878  23.978  0.1236 -0.1255 -0.0233
93936W        W68924  33.798  11.661  10.344 -0.0378 -0.1426 -0.1176
93937W        W68925   4.822   6.589  24.173 -0.0984 -0.0900 -0.5559
93938W        W68926  32.012  19.664  13.080  0.0112 -0.2142 -0.0753
93939W        W68927   1.188  22.937  25.195  0.0997 -0.3514  0.1839
93940W        W68928  23.696  12.258  15.235 -0.0767 -0.0900 -0.3359
93941W        W68929  17.128  18.811  13.340 -0.2297  0.0904  0.1406
93942W        W68930  10.715  32.389  12.368 -0.1242 -0.2594 -0.1213
93943W        W68931   7.969  22.636  15.582 -0.0691  0.0389  0.0764
93944W        W68932  24.756  10.132  23.949  0.0475  0.6725 -0.1135
93945W        W68933  32.967  12.952  23.720 -0.0780  0.1170  0.0104
93946W        W68934  30.832  30.404   6.131 -0.0893  0.2774  0.0815
93947W        W68935   2.300   5.486  22.591 -0.3021  0.1102  0.0280
93948W        W68936   1.033  19.748  24.840  0.1440 -0.3698 -0.0789
93949W        W68937  12.741   9.633   0.239  0.0544 -0.1249  0.1286
93950W        W68938  21.057  26.838  25.808 -0.0425 -0.0140 -0.1139
93951W        W68939  17.061  28.288   7.824  0.0605  0.1870 -0.4771
93952W        W68940  18.146   5.897   9.510 -0.1224  0.1214  0.1366
93953W        W68941  26.208  19.408  15.724  0.4005 -0.3722  0.0680
93954W        W68942  16.990  33.025   9.725 -0.0503 -0.1510 -0.0841
93955W        W68943  15.654   4.118  25.640 -0.1112 -0.0214 -0.0587
93956W        W68944  22.381   1.010  17.724  0.2882 -0.0851  0.0117
93957W        W68945  11.030  16.286   2.491  0.0532  0.0314  0.0683
93958W        W68946  12.027   6.795  21.388  0.3226 -0.1280  0.0397
93959W        W68947  18.259   2.679  21.840  0.1723  0.2416  0.1963
93960W        W68948  16.213  24.616   8.085 -0.3084  0.1088  0.1562
93961W        W68949  33.358  13.491  24.404  0.2496 -0.3367  0.0811
93962W        W68950   5.790  31.058  11.519 -0.4110 -0.1543  0.2804
93963W        W68951  13.306  18.107  23.558 -0.3838 -0.0990 -0.1259
93964W        W68952  14.065  32.223  20.501 -0.3265 -0.1155  0.0839
93965W        W68953  14.390  11.166  26.147 -0.0445 -0.1090  0.1386
93966W        W68954  20.821  27.892  24.133  0.0498 -0.2343 -0.1840
93967W        W68955  29.350  34.390   3.252 -0.0482 -0.0262 -0.1933
93968W        W68956   5.404  21.283   5.545  0.1141  0.1907  0.0017
93969W        W68957  18.055  34.817  22.319 -0.0883 -0.1180 -0.1301
93970W        W68958  18.859   0.186   9.007 -0.1922 -0.1365  0.2930
93971W        W68959   0.308  33.201  17.637  0.1500 -0.1360  0.0450
93972W        W68960  13.935  30.327  11.628 -0.1726  0.2030  0.0816
93973W        W68961   9.696  12.206   0.988  0.0066 -0.0581 -0.1977
93974W        W68962  25.064  22.812  24.965 -0.2008 -0.1237  0.1930
93975W        W68963   6.321   1.622  25.515 -0.0785  0.2450  0.2566
93976W        W68964  30.956  30.481   1.010 -0.1941 -0.0954  0.0652
93977W        W68965  22.614  32.829  20.976  0.0190  0.1359  0.1335
93978W        W68966  19.608  34.390   8.431  0.2245 -0.0821  0.1991
93979W        W68967   7.252  11.763  25.716 -0.1241  0.0074  0.1045
93980W        W68968   1.168   6.428  18.833  0.1066 -0.1698  0.1564
93981W        W68969  22.145  20.482  22.194  0.1503 -0.2111  0.1017
93982W        W68970  13.234  18.745   3.633  0.0270 -0.1087  0.0242
93983W        W68971   2.360   2.262  23.791 -0.0328  0.0378  0.0636
93984W        W68972   5.032  29.970   0.650  0.1157 -0.3565 -0.3000
93985W        W68973   1.436   6.587  20.712 -0.3375 -0.1943  0.0361
93986W        W68974  25.850  11.824  15.993 -0.1989  0.1235  0.3798
93987W        W68975   9.222  28.060  22.858  0.0534  0.0724  0.0793
93988W        W68976   8.052   9.710   7.158 -0.2931 -0.1350  0.1480
93989W        W68977  15.099   0.085   7.007  0.0790 -0.0140 -0.1378
93990W        W68978   6.990  10.343   3.689 -0.0858 -0.1822  0.0007
93991W        W68979  28.984  32.840  17.397  0.1279  0.0326 -0.1168
93992W        W68980   7.405   9.114  11.466 -0.0859  0.0305  0.0140
93993W        W68981  10.239   9.286   1.869  0.0526 -0.0405  0.0094
93994W        W68982  23.877   4.711   1.385 -0.1404 -0.2959  0.1804
93995W        W68983  29.556  20.836  19.019  0.2603  0.0020  0.5249
93996W        W68984  25.104  24.681  23.839  0.0759 -0.0448 -0.2084
93997W        W68985  25.220  34.682  23.160 -0.1092  0.1654 -0.2623
93998W        W68986   1.093  34.122  21.685 -0.4368  0.2740 -0.0005
93999W        W68987   7.421   2.242  19.050 -0.2022 -0.0713 -0.3473
94000W        W68988  18.676   6.539   3.368  0.1648 -0.1331  0.2876
94001W        W68989  26.842   5.832  20.668  0.2760 -0.0190  0.2545
94002W        W68990  31.669   2.696  19.813 -0.0805  0.0312  0.1254
94003W        W68991   0.906  33.603  18.270 -0.4570  0.0116  0.1068
94004W        W68992  23.370  10.731  20.798  0.0431 -0.0221 -0.2899
94005W        W68993  16.352  31.203   5.953  0.3601 -0.1559  0.3574
94006W        W68994  15.387  17.898  10.168  0.0360  0.0554  0.0980
94007W        W68995   1.605  17.286  17.355  0.0556 -0.0549  0.0141
94008W        W68996  15.820  35.333   4.581  0.2757  0.1766  0.2171
94009W        W68997  34.920   3.567   1.124 -0.0760 -0.0101  0.0992
94010W        W68998   4.221  31.137  25.239 -0.1658 -0.0407  0.0799
94011W        W68999   7.487  26.032  10.997  0.3756 -0.2409 -0.0404
94012W        W69000  14.012  10.948   7.923  0.2808  0.0100  0.0040
94013W        W69001  28.083  32.682  20.584 -0.1575 -0.0414 -0.3126
94014W        W69002  28.376  19.177  16.174 -0.0225 -0.1879 -0.1304
94015W        W69003  20.517  12.894   1.289  0.0539 -0.3695 -0.0208
94016W        W69004  20.342   2.797   6.575  0.0033  0.1529  0.0467
94017W        W69005  31.964   5.835  16.381 -0.1996 -0.1584  0.2079
94018W        W69006  23.932  16.345  13.937  0.1494  0.1677  0.2925
94019W        W69007  21.018  29.183  25.216  0.2895 -0.0515  0.0189
94020W        W69008   5.115   2.956   3.352  0.2561  0.1060 -0.0469
94021W        W69009  32.309  26.353  10.397  0.6247 -0.2590 -0.1867
94022W        W69010   8.910  13.684  20.747 -0.1831 -0.1103 -0.0897
94023W        W69011   7.793  32.079   3.064 -0.1167 -0.0241 -0.0920
94024W        W69012   7.913   7.159   0.062 -0.0292 -0.0332 -0.1430
94025W        W69013  35.026  11.247  25.044  0.2832 -0.2127 -0.0391
94026W        W69014  18.455  15.573   9.028 -0.1325  0.0543 -0.2601
94027W        W69015  20.901   5.942   5.859 -0.0282 -0.2629 -0.0035
94028W        W69016  11.412   3.381   5.828  0.1437 -0.3654  0.0908
94029W        W69017   5.852  13.832  24.276 -0.3748 -0.1665 -0.0065
94030W        W69018  19.098  32.037   6.445  0.1253  0.2235  0.1010
94031W        W69019   4.781  35.069  23.473 -0.2113  0.0067 -0.2434
94032W        W69020  11.711  25.775   3.632 -0.0026  0.0972 -0.0496
94033W        W69021  27.976  16.376   8.837  0.1067  0.3135  0.0210
94034W        W69022   7.667  35.122  22.812 -0.1400 -0.0647  0.0130
94035W        W69023   1.239  17.426  16.872  0.0389 -0.2346  0.2582
94036W        W69024  26.464   3.083   4.450 -0.1707  0.1198  0.2072
94037W        W69025  34.422  13.738  19.119  0.2576  0.0993  0.2714
94038W        W69026  31.088   9.845  11.198 -0.0186 -0.0185  0.2681
94039W        W69027  14.418  33.305  25.858 -0.0790  0.3887 -0.1497
94040W        W69028  23.260   0.651   1.224  0.1482 -0.0856 -0.2548
94041W        W69029   1.180   2.154  18.432  0.1516  0.5275  0.1328
94042W        W69030   0.053  17.061  21.165  0.3549  0.2536 -0.0560
94043W        W69031  13.318  29.752   3.619 -0.1115 -0.0993 -0.0413
94044W        W69032   4.022  17.917  18.562  0.3504  0.2006  0.1073
94045W        W69033  19.678  26.382  17.312  0.0403 -0.2080  0.1029
94046W        W69034   3.443   8.631  21.463 -0.1470  0.2493 -0.0662
94047W        W69035  12.672   3.427  11.390 -0.2409  0.0619  0.0423
94048W        W69036  24.755  22.454  11.085 -0.2446 -0.2668 -0.1885
94049W        W69037  19.358  27.740  21.136  0.1327 -0.2057 -0.0131
94050W        W69038  32.029   7.403  25.068 -0.1463  0.2461  0.2524
94051W        W69039  10.425  26.361   7.320  0.0990 -0.1199  0.0843
94052W        W69040  23.843  34.034  26.175 -0.0178  0.0894  0.1081
94053W        W69041  19.320  10.027   3.112 -0.1294  0.2171  0.0869
94054W        W69042  16.485  11.041   1.197 -0.2797 -0.0406 -0.3098
94055W        W69043   2.078  33.058   4.052 -0.1358  0.2267 -0.3928
94056W        W69044   6.291  16.391  11.175 -0.1979 -0.3818 -0.0538
94057W        W69045   5.204  16.136   6.855 -0.1359 -0.2555  0.1928
94058W        W69046  13.413  29.003  10.502  0.2216  0.0745  0.3216
94059W        W69047  28.769  16.944  11.102  0.1861 -0.1566  0.2750
94060W        W69048  34.771   6.774  12.612 -0.0553  0.2051 -0.4179
94061W        W69049   2.159   5.448  23.225 -0.0862 -0.1496 -0.3281
94062W        W69050   2.801  11.766   2.239  0.3639 -0.0951 -0.0982
94063W        W69051  12.784  22.097  10.275 -0.0838 -0.0547 -0.1410
94064W        W69052  32.579   8.208  22.574 -0.0586  0.2102 -0.0786
94065W        W69053  29.925  24.138  10.485 -0.0872 -0.2231  0.3378
94066W        W69054   7.836  33.818  13.356 -0.1527 -0.1054 -0.3098
94067W        W69055   2.780   6.288   7.679  0.2948  0.0721 -0.1980
94068W        W69056   3.495  20.954   4.641 -0.1867  0.1167 -0.0015
94069W        W69057   3.223  21.584  22.159 -0.1296  0.0732 -0.3484
94070W        W69058   9.477  32.340   7.826  0.1898  0.5083  0.2137
94071W        W69059  15.017   8.204  12.064  0.0331  0.0196  0.0308
94072W        W69060   8.738  20.831   7.319 -0.0803  0.0713  0.0916
94073W        W69061  26.673  10.316  26.118  0.2657  0.2951 -0.2915
94074W        W69062  21.287  25.901  17.078 -0.0431 -0.4212  0.0513
94075W        W69063  26.498   2.566  21.659  0.0318  0.2952  0.0785
94076W        W69064   6.476  27.456   2.091  0.0064 -0.2204 -0.0213
94077W        W69065   8.411  31.970   0.367  0.0247 -0.1948  0.3760
94078W        W69066  29.462   5.662  25.216 -0.0570  0.1157  0.0880
94079W        W69067  27.482  29.991  12.851 -0.0072 -0.3915 -0.0882
94080W        W69068  26.758  27.668  23.078  0.1647 -0.0073  0.1203
94081W        W69069   2.779  29.344   3.260 -0.0313 -0.2044 -0.0028
94082W        W69070  31.570  16.954  16.224 -0.4985 -0.1149 -0.1890
94083W        W69071  20.667  10.936  23.101  0.4361  0.1162 -0.0386
94084W        W69072  15.969  31.298   2.753 -0.0839 -0.1128 -0.2676
94085W        W69073   2.377  15.225   0.007 -0.4743  0.1372  0.2538
94086W        W69074   7.528  32.453   2.782  0.1263 -0.2064 -0.1094
94087W        W69075  25.170  24.813  17.335  0.5130 -0.0327  0.1136
94088W        W69076  30.918  14.805  17.833 -0.2234  0.2013  0.0176
94089W        W69077  13.923  32.175  24.038 -0.4013  0.2820 -0.0987
94090W        W69078  11.885  25.601  24.724 -0.0105  0.1406  0.4091
94091W        W69079  21.599  21.636   2.048  0.2123 -0.1411 -0.2054
94092W        W69080  28.405  34.637   3.077  0.1878  0.4197  0.3709
94093W        W69081  28.206   8.348  18.528  0.1213 -0.3386  0.3607
94094W        W69082   2.694   1.367   0.674 -0.0988  0.1834 -0.2559
94095W        W69083  30.127  35.334   4.208 -0.2137 -0.1372 -0.0328
94096W        W69084  22.645  23.939  14.800  0.2541  0.1172 -0.1009
94097W        W69085  29.680  33.523  18.049  0.1233 -0.3907  0.2138
94098W        W69086   7.659  21.548  22.359 -0.0780 -0.3978 -0.4331
94099W        W69087   8.920  24.048   2.067  0.1258  0.0513  0.1997
94100W        W69088  27.287  13.809   6.838 -0.1330  0.1317 -0.2155
94101W        W69089  11.036   7.123  14.061 -0.1626  0.0711 -0.0377
94102W        W69090  21.060  24.827  24.213  0.1501 -0.1045 -0.1083
94103W        W69091  14.857  29.044  13.205  0.1522 -0.0208 -0.2638
94104W        W69092  20.423  17.584   5.590  0.2032  0.1854  0.4593
94105W        W69093  25.392  30.921  11.457 -0.2331 -0.1129  0.0181
94106W        W69094  27.501   7.047   1.389  0.3366 -0.2996 -0.1525
94107W        W69095   1.543  28.106   3.817 -0.2204  0.0098 -0.1700
94108W        W69096   1.099  29.844  26.001 -0.1345  0.1514  0.0778
94109W        W69097  13.831  29.204   5.907  0.1085  0.2359 -0.1100
94110W        W69098  24.969   1.732   1.570 -0.0158 -0.1347  0.3617
94111W        W69099  32.565  12.455   9.210 -0.0152  0.0092  0.0336
94112W        W69100   4.245  18.691   1.249  0.0017  0.1339 -0.1409
94113W        W69101  12.164  19.910  26.211 -0.3979  0.4690  0.1509
94114W        W69102  27.400  14.681  21.735  0.1628  0.2780 -0.2879
94115W        W69103  17.334  12.422   4.306 -0.4032  0.3040 -0.3769
94116W        W69104  17.637  26.580  23.994  0.0263  0.0558  0.3611
94117W        W69105  12.603  34.943  20.311 -0.2610 -0.3193 -0.0881
94118W        W69106   6.024   2.710   1.926  0.0026  0.0130 -0.0106
94119W        W69107   0.185  29.628   3.291  0.1428 -0.1016 -0.1812
94120W        W69108  20.449   9.993   3.464  0.2642  0.1448 -0.0192
94121W        W69109   7.763  10.793  19.503  0.0871 -0.2740  0.0667
94122W        W69110  24.041  34.021  18.333  0.1422  0.1095 -0.0748
94123W        W69111  13.011   6.867   5.933 -0.1691 -0.0623  0.1593
94124W        W69112  11.177  28.851  16.494 -0.0788  0.2135  0.1211
94125W        W69113  28.123  30.579  24.561  0.2906  0.0395 -0.0597
94126W        W69114  23.150  23.754   2.044  0.0522 -0.0213  0.0158
94127W        W69115  12.498   7.145  12.734 -0.1202 -0.1717  0.1375
94128W        W69116  16.260  29.975   3.791  0.0189  0.1715  0.2393
94129W        W69117   9.644  24.441   5.277  0.0911 -0.1824 -0.2472
94130W        W69118  28.212  24.604  17.971 -0.0754  0.0146  0.1761
94131W        W69119  25.986  14.813  14.054 -0.1037  0.1302 -0.0898
94132W        W69120  12.460   5.146  13.328  0.0737  0.2836 -0.1097
94133W        W69121   1.227   8.443  16.306 -0.3284  0.1080  0.1332
94134W        W69122  12.298  18.029   8.026 -0.0562 -0.0147 -0.0108
94135W        W69123  16.551   8.646   0.005  0.0965 -0.0407 -0.2340
94136W        W69124   4.399  25.731  25.495  0.0028 -0.0933  0.0394
94137W        W69125  24.296  30.493  11.766  0.2459 -0.1520 -0.1971
94138W        W69126  17.203   2.611   2.679 -0.1057 -0.0165 -0.0413
94139W        W69127   9.853  33.895  14.733 -0.0843  0.1631 -0.1151
94140W        W69128  17.082   0.566  22.327  0.2610 -0.1378  0.1392
94141W        W69129  10.661  18.760  12.338  0.4497  0.1625 -0.2253
94142W        W69130   2.190   9.466  23.248 -0.0315 -0.0810 -0.3089
94143W        W69131  23.120   0.006  18.295  0.0441 -0.0385  0.0120
94144W        W69132   2.928  21.997   1.878  0.2715 -0.0791 -0.0348
94145W        W69133  16.607  14.966  23.673 -0.0569  0.0250  0.0280
94146W        W69134  23.955  31.214  19.173  0.2604 -0.3092  0.1439
94147W        W69135   5.939   3.409  26.001 -0.0304  0.1108 -0.3776
94148W        W69136   9.470  32.853   8.897 -0.0273 -0.0046 -0.0508
94149W        W69137   1.497  17.569  11.311 -0.2373  0.1479  0.1734
94150W        W69138   1.667   9.776  20.220 -0.1683  0.0414 -0.2364
94151W        W69139  23.182  14.388   0.559  0.1363  0.2786  0.1060
94152W        W69140   5.242  25.778  23.939  0.4224  0.0521 -0.2124
94153W        W69141   2.755   2.127  17.623  0.4078  0.1247 -0.0461
94154W        W69142   7.870  24.843  21.841 -0.0434  0.2154  0.2172
94155W        W69143  10.573  22.449  10.603 -0.3342  0.0345 -0.1084
94156W        W69144  15.692   9.921  20.874  0.1429  0.0064 -0.2780
94157W        W69145  20.340   2.698  25.798  0.0927  0.0786  0.0969
94158W        W69146  33.427  11.154   0.935 -0.1514  0.2093  0.1708
94159W        W69147  22.327  34.743  25.654 -0.0225  0.0642 -0.3171
94160W        W69148   9.231   3.802   9.065  0.3183  0.0385  0.0026
94161W        W69149  10.711  25.770  23.400 -0.1171 -0.2465 -0.1693
94162W        W69150  13.924  30.604   7.186 -0.4439  0.0187 -0.0933
94163W        W69151  18.102  33.306   7.281 -0.1436  0.4254 -0.1023
94164W        W69152  11.442  17.183   7.113 -0.2913 -0.0239 -0.2886
94165W        W69153  28.632  28.268  20.062 -0.0984  0.2318  0.2117
94166W        W69154  14.412  32.499   0.735  0.1027  0.0312 -0.0957
94167W        W69155   2.737  28.935   1.621 -0.0157 -0.0926 -0.3006
94168W        W69156  24.058   5.657  13.357  0.0530  0.0012  0.0439
94169W        W69157  27.279  14.180  24.520 -0.1124  0.0907 -0.2068
94170W        W69158  10.398  13.725  21.383  0.1956  0.0237  0.1007
94171W        W69159  21.563  30.027   0.653 -0.1549 -0.0720  0.1391
94172W        W69160   7.473   0.244   3.312 -0.0676  0.2340  0.0908
94173W        W69161   0.043   7.961  17.372  0.1194  0.1427  0.1985
94174W        W69162  25.778   3.493   0.936  0.0183  0.0561  0.0711
94175W        W69163  24.038   2.699   7.130  0.0320  0.0937 -0.1849
94176W        W69164  24.288   4.156  17.446 -0.0550 -0.2020  0.3458
94177W        W69165  33.858  24.544   8.925 -0.1892 -0.2720 -0.1845
94178W        W69166  17.832   8.442  20.310 -0.0454 -0.2077 -0.3705
94179W        W69167  34.795  29.170  15.924  0.0604  0.1452  0.0906
94180W        W69168   9.856  19.515  15.253 -0.0586 -0.0384  0.3143
94181W        W69169  12.396  27.193   5.144 -0.3117 -0.0013 -0.0722
94182W        W69170  12.070  16.584   0.702  0.3042  0.0541 -0.0879
94183W        W69171   8.635  23.933   6.946 -0.0233  0.1740 -0.2304
94184W        W69172  19.768   9.403   5.470  0.0285 -0.3384 -0.0836
94185W        W69173   8.669  15.330   2.739 -0.0487 -0.1813  0.1650
94186W        W69174  27.991  15.691  16.563 -0.0526 -0.0357  0.2492
94187W        W69175  29.182  26.438   2.062  0.1019 -0.1828 -0.0626
94188W        W69176  15.215  29.761  13.573 -0.2078 -0.2156 -0.0992
94189W        W69177  20.761   2.471  22.699 -0.0371  0.0163 -0.0484
94190W        W69178  21.049  16.525  20.334 -0.1028  0.0214 -0.0934
94191W        W69179  32.578  32.659  24.976 -0.1632  0.0651  0.1964
94192W        W69180  29.672   4.965  10.994 -0.1008  0.3445 -0.1696
94193W        W69181  19.191   3.845  15.537 -0.0541 -0.2454  0.0925
94194W        W69182  23.754  14.077   0.863 -0.3261 -0.3670 -0.4379
94195W        W69183   9.983  10.494  20.507 -0.0076  0.2482 -0.0491
94196W        W69184  19.482  20.897   0.400 -0.2741 -0.0289 -0.3014
94197W        W69185   0.735   9.648  20.231 -0.2297 -0.0283 -0.0854
94198W        W69186  33.414   0.525   5.844  0.1543  0.0611 -0.3072
94199W        W69187  34.897  34.060  15.946 -0.2633 -0.2199  0.0931
94200W        W69188  35.154   4.199  24.185 -0.0131  0.4003  0.3854
94201W        W69189  24.765  22.572  14.480 -0.1496 -0.0865 -0.0296
94202W        W69190  11.970   5.152   6.658  0.2823  0.2028 -0.2336
94203W        W69191  33.143  14.670  19.837  0.0211 -0.1685  0.0807
94204W        W69192  28.988  27.424  10.949 -0.1582  0.0958 -0.3791
94205W        W69193  10.277   1.156   7.026  0.3893  0.1446 -0.0354
94206W        W69194  29.506  23.229  15.601 -0.3481 -0.0367  0.1865
94207W        W69195  24.416  29.405  16.999  0.0171  0.0771 -0.2952
94208W        W69196  10.279  26.467  15.636  0.1295 -0.0496  0.1615
94209W        W69197   5.045  27.215  25.341  0.2208  0.1552 -0.2584
94210W        W69198  31.375  31.805   1.795  0.2664 -0.5088 -0.2214
94211W        W69199  18.562  22.141   9.088  0.0793  0.1539  0.1378
94212W        W69200  32.626  11.768  22.748  0.0836  0.1882 -0.0424
94213W        W69201   7.727  12.705   9.173  0.2040 -0.0063  0.0850
94214W        W69202  18.925  30.495  18.652 -0.3287 -0.0106  0.2518
94215W        W69203  17.737  15.042   8.291  0.5133  0.1219 -0.1514
94216W        W69204  34.738  30.521  15.785  0.0752  0.1235 -0.1490
94217W        W69205  15.516  13.950  24.512 -0.2862  0.2103  0.2117
94218W        W69206  15.355  18.764  24.308 -0.0318 -0.0442  0.3473
94219W        W69207  21.708  29.631  12.093  0.0497  0.2657  0.1423
94220W        W69208  35.359  32.834   0.854 -0.1365 -0.2557  0.1411
94221W        W69209  23.369   7.274   1.691 -0.0964 -0.1223  0.0006
94222W        W69210  34.761   8.588  21.725 -0.3327  0.2388  0.2328
94223W        W69211  13.872  32.811   6.928  0.1341  0.1686  0.0549
94224W        W69212  33.848   5.479  12.975 -0.4315  0.0377  0.2655
94225W        W69213  15.755  13.935  23.145  0.2334 -0.0653 -0.0062
94226W        W69214   8.923   8.318   9.464 -0.0799 -0.0517  0.1338
94227W        W69215  20.263  13.693  24.989 -0.1232 -0.2156  0.3004
94228W        W69216   8.956  18.123   0.542  0.0025  0.2778  0.2344
94229W        W69217  30.352  32.333  20.639  0.2566 -0.2175  0.2002
94230W        W69218  24.236  12.498   1.360  0.0069 -0.3497  0.3475
94231W        W69219   4.519  13.942   2.263 -0.1092  0.1603  0.1952
94232W        W69220  24.086  11.957  13.382 -0.2321 -0.0351 -0.1829
94233W        W69221  31.779   6.743  14.244 -0.0716 -0.0453 -0.2934
94234W        W69222  20.236  19.757   5.095  0.2638  0.0346  0.1204
94235W        W69223  32.685  35.262  13.778  0.1519 -0.1389 -0.1558
94236W        W69224  21.337  12.393   1.711 -0.0319  0.4455  0.1446
94237W        W69225   8.832   3.198  23.610  0.1756 -0.2557  0.0793
94238W        W69226   3.935  27.540   4.922  0.0351 -0.0627 -0.0682
94239W        W69227   0.822   1.713  21.590 -0.2051 -0.0827  0.0632
94240W        W69228  17.269   4.193  23.239 -0.0866  0.2267 -0.2454
94241W        W69229  12.945   0.802  25.312 -0.1861  0.0272  0.0508
94242W        W69230  15.224  13.623  20.698  0.0660  0.3470  0.3966
94243W        W69231   1.672   4.922  24.683 -0.2610  0.1805 -0.0989
94244W        W69232  30.593  16.858   7.064  0.0505 -0.2899 -0.0083
94245W        W69233  13.171  30.805   3.041 -0.3569  0.0384 -0.3022
94246W        W69234  23.310  17.289  15.954  0.3712 -0.0019  0.2083
94247W        W69235  14.610   2.148   7.664 -0.1057 -0.0633 -0.1592
94248W        W69236   1.826  29.427  23.591 -0.4904  0.0622  0.0218
94249W        W69237   0.541   8.321  13.320  0.0103  0.2644 -0.2468
94250W        W69238  12.531  11.102  11.869 -0.0050 -0.1072  0.4041
94251W        W69239  33.609   1.299   2.079 -0.0122  0.2923 -0.1820
94252W        W69240  15.081   8.557  22.821 -0.0880 -0.1141 -0.1645
94253W        W69241   1.903  28.927  21.569 -0.1752 -0.0710  0.2851
94254W        W69242   8.572   4.061   0.005  0.0415  0.3851  0.0697
94255W        W69243   5.701  25.873  22.933  0.0944  0.1987  0.2585
94256W        W69244  23.054  17.238  19.972  0.2227  0.1316 -0.2350
94257W        W69245  19.676   0.423  21.953 -0.2345 -0.0748 -0.0433
94258W        W69246  31.391   8.031  16.680 -0.0067  0.4220 -0.1031
94259W        W69247  16.080  30.503  12.000 -0.0086 -0.2370  0.3491
94260W        W69248  27.640  30.910   0.652 -0.1793  0.0395 -0.1779
94261W        W69249  18.601  29.334  24.927 -0.2379 -0.0289 -0.0212
94262W        W69250  32.954  27.109   1.707  0.0742  0.1568 -0.1271
94263W        W69251   4.063  16.382  25.076 -0.1007 -0.2139  0.0093
94264W        W69252  30.868   4.803   1.844  0.1262 -0.1344  0.0034
94265W        W69253  15.172  30.843   2.813  0.0137 -0.1263 -0.1142
94266W        W69254   3.229   4.506  23.543 -0.0846 -0.2265 -0.3066
94267W        W69255   6.335   9.492  22.219 -0.2458 -0.1026  0.2543
94268W        W69256  15.943  29.301   1.936 -0.2496  0.0725 -0.0030
94269W        W69257  34.046   0.858  20.658  0.0960  0.3350 -0.1576
94270W        W69258   5.846  33.770   7.220  0.1076  0.3831 -0.0851
94271W        W69259  18.375  32.007  15.989 -0.0786 -0.0330 -0.1475
94272W        W69260  15.875  23.266  15.174 -0.0632  0.0731  0.4652
94273W        W69261  28.645  13.932   4.875  0.0669 -0.0341 -0.1791
94274W        W69262  22.069   6.062   0.259 -0.1630 -0.1498 -0.4315
94275W        W69263  17.834   1.160   0.308 -0.1209  0.0812 -0.0238
94276W        W69264  14.111  16.635  25.696 -0.2659  0.0627  0.0288
94277W        W69265  35.140  34.470  21.451 -0.0952  0.1121  0.1401
94278W        W69266  33.800   0.102   5.530  0.0345 -0.2588  0.1168
94279W        W69267   1.421   7.816   5.453 -0.1252 -0.1125  0.2429
94280W        W69268  19.047  30.659  19.120 -0.3728  0.2351  0.0075
94281W        W69269  32.331  11.839  23.137  0.0561 -0.1935 -0.0620
94282W        W69270   9.210  22.730  24.090  0.0823 -0.0753  0.2448
94283W        W69271  12.365  16.564   9.561 -0.4431  0.2957 -0.1442
94284W        W69272  25.954  33.297  13.202  0.1059 -0.0719 -0.0625
94285W        W69273  18.453  31.554  25.377  0.2583  0.0230  0.0772
94286W        W69274   9.090   5.813  21.639 -0.2623 -0.0724 -0.2733
94287W        W69275  12.465  19.021  10.974 -0.1581  0.1975  0.0556
94288W        W69276  15.335  33.866  10.031  0.1555 -0.0412  0.2949
94289W        W69277  21.572  16.092  18.748 -0.2211 -0.0538 -0.1138
94290W        W69278  17.381  11.519   9.155 -0.0950 -0.0806  0.1000
94291W        W69279  12.087  12.627  13.014  0.0268 -0.0760 -0.1583
94292W        W69280  30.937  24.326  24.510  0.1952 -0.0166 -0.0818
94293W        W69281  26.396  30.325   1.245  0.0155  0.1872  0.0803
94294W        W69282  11.546   9.916   2.315  0.0545  0.2697  0.0421
94295W        W69283  12.611  20.336   3.730  0.0952  0.0857  0.3705
94296W        W69284  23.620   1.925  18.547 -0.0886  0.4196 -0.0274
94297W        W69285  13.350  32.208  14.375 -0.0476 -0.2012 -0.3527
94298W        W69286  14.157   9.055   0.643 -0.0147 -0.0059  0.2357
94299W        W69287  24.541   4.149   0.238 -0.1896 -0.0268 -0.0639
94300W        W69288  24.837  10.160  23.230  0.3221  0.2338 -0.2445
94301W        W69289  31.911   1.778  22.821 -0.2591 -0.1622  0.2018
94302W        W69290  24.439  29.241  12.660  0.2439  0.2608 -0.0138
94303W        W69291   4.887  16.824  21.865  0.0527  0.0566 -0.0472
94304W        W69292  15.159  13.387  24.569  0.2427 -0.3138  0.1051
94305W        W69293  32.503  14.149  25.577  0.0543  0.1746  0.1268
94306W        W69294   4.943  33.566  12.364 -0.0601  0.0366 -0.1450
94307W        W69295  25.247  26.685  23.996  0.1669 -0.3028 -0.1037
94308W        W69296  26.784  16.646   9.429 -0.0361  0.0437 -0.0358
94309W        W69297   8.397   4.208  11.810 -0.1460 -0.4568  0.2133
94310W        W69298  31.964   6.097  21.282  0.3162 -0.0727 -0.0607
94311W        W69299  27.154  21.629  14.520 -0.0219 -0.1854 -0.0585
94312W        W69300  14.739   3.991  21.361 -0.0193  0.0243  0.1580
94313W        W69301  15.095  30.453  22.513  0.0036  0.0155 -0.1754
94314W        W69302  27.217  12.748  18.531  0.0230 -0.0227 -0.0329
94315W        W69303   3.370  17.367  18.350  0.1362 -0.1649 -0.1302
94316W        W69304  31.087  34.885   1.981 -0.1293  0.0297  0.2536
94317W        W69305  35.036  15.673  18.627  0.2647  0.0262  0.2517
94318W        W69306  34.833  10.434  12.530  0.0498 -0.2881  0.1552
94319W        W69307  20.149  12.997   2.945  0.0352 -0.1329 -0.0532
94320W        W69308   5.943   1.681  21.275  0.3861 -0.1345 -0.1103
94321W        W69309  10.122   0.330   0.345  0.3869 -0.1611  0.0847
94322W        W69310  12.057  16.346   4.189 -0.0820  0.0872 -0.0187
94323W        W69311   7.361  15.264  25.191  0.2606  0.0700 -0.0622
94324W        W69312  29.586  16.587  15.974  0.2519 -0.0163 -0.1319
94325W        W69313  11.279  29.913   2.162  0.0418 -0.0985  0.0653
94326W        W69314  19.833  34.873  26.125 -0.3272 -0.0587 -0.0953
94327W        W69315  17.449   4.567  21.930 -0.1139 -0.1407  0.0366
94328W        W69316  26.869  34.848  18.683  0.1568  0.0626 -0.3205
94329W        W69317   6.866  14.165   3.502  0.0467 -0.1419 -0.0180
94330W        W69318   0.945  30.349   5.970  0.1436 -0.0711  0.0554
94331W        W69319  11.623  29.232   4.839  0.2788  0.0249 -0.1418
94332W        W69320  11.373   2.690   2.651 -0.0158 -0.0756 -0.2513
94333W        W69321  24.088  20.409   1.518  0.2335 -0.0020  0.1221
94334W        W69322  30.851  10.469  13.678 -0.0978 -0.2138  0.2218
94335W        W69323  18.842   7.506   2.952 -0.5563  0.4486 -0.0232
94336W        W69324   7.326  23.538  25.670  0.0011  0.2248  0.1564
94337W        W69325   5.623  17.781  21.894 -0.0319  0.1478 -0.2314
94338W        W69326  19.142   6.929   4.465 -0.1427 -0.4124 -0.0823
94339W        W69327   0.235  34.209  16.050  0.0286  0.2394 -0.0372
94340W        W69328  19.090  25.367   8.085 -0.2091  0.0055  0.1718
94341W        W69329  32.372  28.191   1.396 -0.0679  0.0444  0.3239
94342W        W69330   3.008  11.294  22.971 -0.0562 -0.0900 -0.0953
94343W        W69331  22.197  27.448  19.654  0.2117 -0.1032  0.1747
94344W        W69332  22.173   1.951  19.618 -0.0269  0.2217  0.1246
94345W        W69333   7.026  10.651  24.118 -0.0346 -0.3594  0.0344
94346W        W69334   1.307  20.263  25.110 -0.0279  0.2980  0.0305
94347W        W69335  28.731  31.349  10.410 -0.2434  0.0398 -0.0546
94348W        W69336   5.683  24.120   1.573 -0.1740  0.3059 -0.0286
94349W        W69337  23.544  24.670  13.724  0.0699  0.0367  0.0584
94350W        W69338  18.309  30.691  24.336 -0.3331  0.2080 -0.1967
94351W        W69339   1.302   4.564   3.247 -0.1085 -0.2139 -0.2439
94352W        W69340  25.689  21.216  13.837  0.4202  0.0129 -0.1383
94353W        W69341  33.625  11.982  17.323  0.0719 -0.0497  0.0430
94354W        W69342  30.742  17.344   9.914 -0.3133  0.0940 -0.0357
94355W        W69343  16.463  34.843  21.754  0.0650 -0.3566 -0.0187
94356W        W69344  26.302   9.103  18.586 -0.0059 -0.1915  0.4019
94357W        W69345   1.453  17.944  11.661 -0.0456  0.2005  0.2039
94358W        W69346   4.649  24.913  19.301 -0.3038 -0.0291  0.1939
94359W        W69347  28.217   3.586  24.838 -0.3658  0.1335  0.2611
94360W        W69348  10.215  34.809  15.895 -0.0308 -0.2157  0.0556
94361W        W69349  18.807  30.107   0.394  0.1897  0.2756 -0.1746
94362W        W69350  25.024  19.575  13.307  0.3067 -0.2434  0.0106
94363W        W69351  17.643  20.243   4.543 -0.2472  0.3799  0.0493
94364W        W69352  20.436   7.960   3.648  0.0974 -0.0095 -0.0764
94365W        W69353  11.921  11.861   6.029 -0.1890  0.1004 -0.0151
94366W        W69354  16.314  12.272   3.398 -0.0908  0.3361  0.0175
94367W        W69355   5.953   6.241   6.751  0.3032  0.2432  0.0552
94368W        W69356  22.681   1.765   1.828  0.0028  0.0424  0.0326
94369W        W69357   0.345  10.572  18.424  0.2134 -0.0882  0.0510
94370W        W69358  17.291  34.932   9.888  0.2780 -0.0560  0.1992
94371W        W69359  14.560  11.139  19.618  0.4514 -0.0486 -0.0648
94372W        W69360  25.600   8.493  17.311  0.0745  0.1225 -0.0904
94373W        W69361  20.080   9.198  18.279 -0.2321 -0.0234 -0.0757
94374W        W69362  17.784   6.909  17.372 -0.0917  0.0546  0.0095
94375W        W69363  20.906   4.626  17.059 -0.0476 -0.1287 -0.2041
94376W        W69364  11.856   3.608  18.853 -0.1217 -0.1016  0.1024
94377W        W69365  18.486  27.373   1.760  0.2036  0.0392  0.1342
94378W        W69366  12.996  31.392  15.482  0.0573  0.2321 -0.3656
94379W        W69367  29.269  24.720   8.400  0.3267  0.2708  0.3579
94380W        W69368   0.163  17.401  11.297  0.2650 -0.1195  0.1240
94381W        W69369  12.851   7.828   0.198 -0.0272 -0.1910 -0.1657
94382W        W69370  14.352  21.655  22.986  0.0610  0.1130  0.0166
94383W        W69371   0.162   8.084  13.961 -0.0824 -0.1812  0.0779
94384W        W69372  21.132  12.177  17.930 -0.1151 -0.0219 -0.3805
94385W        W69373  21.337  23.713   3.707  0.0062 -0.1558  0.0727
94386W        W69374  24.044  29.367  16.659  0.3025 -0.0847 -0.2030
94387W        W69375   5.258  32.760  12.117 -0.1120  0.1445 -0.1559
94388W        W69376   0.463  30.046  17.447 -0.2963  0.1255  0.0127
94389W        W69377   6.822  30.881  21.015 -0.0270  0.1703 -0.2742
94390W        W69378  16.178  22.348  25.436 -0.3665  0.2187  0.0058
94391W        W69379  11.869   9.750  22.041  0.0677 -0.1795 -0.1718
94392W        W69380  29.156  24.239  11.418  0.2220  0.1307 -0.1386
94393W        W69381   5.831  17.947  18.638 -0.0248  0.3402  0.2290
94394W        W69382  18.561  22.023  12.201 -0.1110 -0.0274  0.1803
94395W        W69383  26.958  24.432  11.373 -0.3264  0.2259  0.0405
94396W        W69384  25.817  16.625  18.402  0.0036 -0.0038 -0.0752
94397W        W69385  27.698   7.441  22.265 -0.1497  0.1272 -0.4197
94398W        W69386  29.098  21.968  16.568 -0.2854  0.1138 -0.0528
94399W        W69387  32.684   5.054   1.605 -0.1441  0.2649  0.3149
94400W        W69388  16.620  14.321   9.500 -0.0454 -0.2682 -0.0109
94401W        W69389   2.669   7.432  16.140  0.0784 -0.2313 -0.2147
94402W        W69390  10.776  23.642   9.476  0.0777  0.3563  0.2415
94403W        W69391   5.328  25.529   8.559  0.2418  0.3006 -0.1923
94404W        W69392  16.106  22.154  21.977 -0.0718 -0.0774  0.0466
94405W        W69393  33.840   9.644  25.544  0.1431  0.1074 -0.3244
94406W        W69394  27.131   6.737  16.419 -0.1763  0.2137 -0.0579
94407W        W69395  17.047  15.306  23.740  0.0681 -0.2757 -0.2916
94408W        W69396  29.157  27.765  24.309 -0.0938  0.1868 -0.1814
94409W        W69397  34.304  10.997   9.137  0.0675 -0.2360  0.6172
94410W        W69398   6.396   7.227   2.875  0.2686 -0.2418  0.0120
94411W        W69399   8.823  20.333  13.595 -0.1538  0.2792 -0.0334
94412W        W69400  32.774   7.488  16.759  0.0789 -0.0791 -0.2049
94413W        W69401   6.723   4.871   6.765  0.1508  0.4392 -0.0402
94414W        W69402   8.482   2.703   8.717  0.1479 -0.2651  0.1292
94415W        W69403  24.851   6.722   3.416  0.0118  0.2333  0.0186
94416W        W69404  13.887  10.345   3.298 -0.0969  0.1390 -0.0842
94417W        W69405  29.468  35.290  21.637  0.0429 -0.0810  0.4673
94418W        W69406  17.356  13.000   6.096 -0.1911 -0.2355 -0.1874
94419W        W69407  22.489   8.290   3.094  0.3357 -0.1628 -0.0111
94420W        W69408  20.337  29.012  23.462  0.1573 -0.0294 -0.0791
94421W        W69409  30.673  27.308  16.504 -0.0215 -0.1399  0.3101
94422W        W69410   2.180   6.864   2.205 -0.1005  0.1976  0.1892
94423W        W69411  32.056   2.794  15.092 -0.0851  0.0108 -0.1317
94424W        W69412  19.353   3.296  24.772  0.3842  0.1437  0.3792
94425W        W69413  27.657   6.261  17.327  0.1097 -0.1019 -0.0325
94426W        W69414  29.587   9.758  25.997  0.1603  0.2467  0.1451
94427W        W69415  20.780   0.960  19.221 -0.2253  0.1027 -0.1513
94428W        W69416  20.795   5.650   6.387  0.4209  0.1065 -0.1267
94429W        W69417   1.333  13.866   3.398  0.3399 -0.0472  0.1742
94430W        W69418  18.543   0.492   5.944 -0.2703  0.0366  0.0952
94431W        W69419  13.769   8.859  12.048  0.0212 -0.0356  0.0833
94432W        W69420  31.411   2.342  20.064 -0.0462 -0.0247 -0.1693
94433W        W69421  10.961   1.969   7.321  0.2530  0.1228 -0.1724
94434W        W69422   7.888  22.186  24.540  0.1171 -0.1911  0.1910
94435W        W69423  26.597  15.032  26.209 -0.2082  0.0147 -0.0936
94436W        W69424   0.132  29.300  24.612 -0.2525 -0.0363  0.2423
94437W        W69425  11.972   9.516  10.918 -0.2799  0.1789  0.1074
94438W        W69426  13.254  12.235  25.644  0.0014  0.1765  0.0540
94439W        W69427  26.745  15.647  10.778 -0.3749  0.1415  0.1602
94440W        W69428  11.107   9.704  20.968 -0.0217  0.0996  0.0811
94441W        W69429  15.286  17.963  13.547  0.0651  0.1352 -0.0290
94442W        W69430  34.800  32.917   4.942 -0.1609  0.2509  0.2716
94443W        W69431  27.971   3.111  13.196  0.3559  0.1067 -0.1567
94444W        W69432  13.616   2.322   9.195 -0.1054 -0.2704 -0.0433
94445W        W69433  19.216   6.098  24.696 -0.3888 -0.0207 -0.1282
94446W        W69434  27.763  15.211   7.603 -0.2739  0.2297 -0.0907
94447W        W69435  20.759  32.590   3.985  0.4474  0.1898  0.1615
94448W        W69436   2.759  31.720  25.570 -0.0701  0.0472 -0.0927
94449W        W69437  14.091  16.888   4.546  0.0535  0.0363 -0.1092
94450W        W69438  33.212  12.727  11.896 -0.1253 -0.3199  0.2021
94451W        W69439  21.583  25.864   5.321  0.0358 -0.3181 -0.0568
94452W        W69440  22.664   8.003  22.668  0.1426 -0.2428  0.0697
94453W        W69441  23.986   3.736  18.260  0.3403 -0.0277  0.1258
94454W        W69442  23.115  29.352  24.523 -0.0122  0.0116  0.0858
94455W        W69443  11.290  19.822   8.153 -0.1322 -0.1354 -0.1545
94456W        W69444  22.706  30.985   4.999 -0.2850 -0.1051 -0.2271
94457W        W69445  19.306  17.626  24.988  0.2871  0.1959  0.1006
94458W        W69446  31.671  16.142  23.060  0.0532 -0.0743  0.1133
94459W        W69447  10.119   5.606   4.482 -0.0681 -0.0360 -0.0666
94460W        W69448  14.380  19.003   2.514 -0.0466  0.0078  0.0954
94461W        W69449  14.208  35.356   3.123 -0.2426 -0.1574 -0.1856
94462W        W69450  24.273  31.685   2.586 -0.1715  0.1129  0.1530
94463W        W69451  26.246  12.759  11.109 -0.0165  0.0770 -0.2318
94464W        W69452  23.097   1.797  24.125 -0.3334 -0.0656 -0.0787
94465W        W69453  16.917  27.936   7.466 -0.0935 -0.0582 -0.0549
94466W        W69454   8.315  19.759   3.495  0.0192  0.1104  0.0497
94467W        W69455   6.837  32.020  13.738  0.1720 -0.1797  0.0170
94468W        W69456  14.496  25.675   0.124 -0.0092 -0.0107  0.0616
94469W        W69457  20.601   1.464   2.710 -0.0130 -0.2530 -0.1886
94470W        W69458   2.407   0.816  19.808 -0.2212  0.0160  0.0006
94471W        W69459   1.346  20.514  14.910 -0.0059  0.0234 -0.0117
94472W        W69460   8.652  10.023  22.432 -0.0737  0.2429  0.1124
94473W        W69461  26.767  24.968  20.695  0.3074 -0.0673 -0.2931
94474W        W69462   1.071   0.419   9.992 -0.1264  0.4594 -0.3030
94475W        W69463  34.902  20.969  14.673 -0.3108  0.3121  0.0823
94476W        W69464  11.705  29.855  21.646  0.0402  0.1991 -0.1936
94477W        W69465   9.582   5.641   0.688  0.0719 -0.0415  0.1254
94478W        W69466  15.090  35.344  19.311 -0.2548 -0.2189  0.0112
94479W        W69467  29.046   0.654   1.746 -0.3196  0.0307 -0.1210
94480W        W69468  11.947  14.217   9.433  0.1732 -0.2130 -0.1004
94481W        W69469  13.669  18.821  23.432 -0.1315  0.2802  0.0074
94482W        W69470  17.171  33.444  25.691  0.1876  0.2801  0.2134
94483W        W69471  11.461  23.059  11.255 -0.1634  0.0539  0.1338
94484W        W69472  25.870  29.408  16.513 -0.0749 -0.1491 -0.1107
94485W        W69473  17.678  22.407  25.747 -0.4130 -0.0065  0.1226
94486W        W69474  27.717  17.068  21.099  0.0329  0.0409  0.3016
94487W        W69475  30.840   1.299   5.614  0.0110  0.0151 -0.0760
94488W        W69476   6.954   2.751   8.349  0.3610  0.1873 -0.0772
94489W        W69477  32.946  29.137  23.631 -0.0127  0.0664 -0.1795
94490W        W69478  34.613   9.467   0.032  0.0978  0.1902  0.2611
94491W        W69479   6.725  14.949   0.799 -0.1114  0.1905 -0.2108
94492W        W69480  34.946  11.574  16.977  0.0696 -0.0270  0.4880
94493W        W69481   0.827   7.309  15.004  0.1387 -0.2598  0.1078
94494W        W69482   8.965  23.821  25.339  0.1215 -0.3464  0.1413
94495W        W69483   6.985  11.906  11.446 -0.0254  0.0854  0.0151
94496W        W69484  14.714  34.833   5.586  0.3036  0.1774 -0.0306
94497W        W69485   8.950  28.753  12.780 -0.0237  0.2780  0.1774
94498W        W69486  18.469  14.138   2.499 -0.0730 -0.0099 -0.1150
94499W        W69487  15.233   7.232  24.040 -0.1410  0.1369  0.1661
94500W        W69488   4.977   5.209   3.948 -0.0170  0.0857  0.0252
94501W        W69489  32.157  31.709   2.047  0.3899  0.0722 -0.2628
94502W        W69490  27.942  15.879  12.581  0.1184  0.0796 -0.0131
94503W        W69491  24.912   5.189  24.308 -0.2261 -0.3538  0.5909
94504W        W69492   8.545   8.583  18.962 -0.1914  0.0197  0.2107
94505W        W69493  11.229  17.815   0.671 -0.1390 -0.3602 -0.0640
94506W        W69494   2.152   9.945  17.387 -0.3515 -0.0063  0.1098
94507W        W69495  24.321  13.705  14.957 -0.2176 -0.3056  0.2288
94508W        W69496  26.104  29.733   0.748 -0.0980 -0.2072 -0.1936
94509W        W69497  34.700  22.030  10.156 -0.0713  0.0964 -0.5770
94510W        W69498   0.798  24.240  15.745  0.0482 -0.1121  0.0400
94511W        W69499  28.708  21.751  11.010 -0.0298  0.2383  0.1721
94512W        W69500   6.618   8.689   8.039 -0.0052  0.0763 -0.0371
94513W        W69501   0.128  18.329  13.095 -0.0123 -0.1688  0.1684
94514W        W69502  11.403  20.600   3.687 -0.3480 -0.1559 -0.3074
94515W        W69503  12.219  33.512   3.799 -0.2918 -0.0578  0.0537
94516W        W69504   7.475   9.623  22.369 -0.0522  0.0192 -0.1628
94517W        W69505   2.023  13.212  14.495  0.0031 -0.0618  0.1119
94518W        W69506   9.745  11.277  20.664 -0.1925 -0.0077  0.1657
94519W        W69507   5.015   5.902  25.697  0.1842  0.1959 -0.2593
94520W        W69508  17.600   7.514   8.566 -0.1527  0.0575 -0.0460
94521W        W69509   4.719  21.676   1.441  0.0537  0.0208  0.1699
94522W        W69510  32.934  21.673  21.996 -0.2617 -0.3850 -0.2944
94523W        W69511  22.340   0.417  15.106 -0.0471 -0.1108  0.4462
94524W        W69512  26.645   5.318  24.907  0.1033  0.1455 -0.2939
94525W        W69513  12.194  11.344   4.799 -0.0959 -0.2293  0.3364
94526W        W69514  23.473  15.675  18.407 -0.1337 -0.1078 -0.0656
94527W        W69515   9.282  35.106   1.917 -0.0640  0.1546  0.1409
94528W        W69516  13.861  29.323   7.503 -0.2412 -0.2414 -0.1087
94529W        W69517   6.261  28.218   8.805 -0.1396  0.0663  0.1322
94530W        W69518   7.003  13.712  18.424 -0.0635 -0.1091  0.1244
94531W        W69519  24.864  28.743  15.485 -0.1905  0.0035  0.0819
94532W        W69520  10.526   5.899   5.251  0.0974  0.0938  0.0621
94533W        W69521  19.285   7.608  19.999  0.0968 -0.1024 -0.0125
94534W        W69522  29.024  15.713   9.289  0.0637 -0.0782  0.2388
94535W        W69523  24.675   2.142  20.265 -0.0031 -0.1084  0.0145
94536W        W69524  30.062   2.327  17.614 -0.0756 -0.0278  0.0567
94537W        W69525   0.296  22.882  19.693  0.3448  0.2657 -0.2004
94538W        W69526  23.588   1.362   5.501  0.0048  0.0041  0.0245
94539W        W69527  20.951  10.538   4.213 -0.0989  0.3842  0.2657
94540W        W69528  22.329  16.362  14.713  0.1383  0.3117  0.1287
94541W        W69529  25.364  30.957  18.272 -0.4597  0.1502  0.2428
94542W        W69530  33.579  20.418   9.911  0.0693 -0.1207 -0.0824
94543W        W69531  14.657   1.936  19.506 -0.1932 -0.2600  0.0471
94544W        W69532  20.595  26.652   2.926  0.0130  0.2073  0.0471
94545W        W69533   7.054  25.747   5.153 -0.0283  0.0366  0.3606
94546W        W69534  18.735  11.455   0.466  0.1476  0.0110  0.2413
94547W        W69535  27.157  24.470  16.740 -0.2782 -0.0002 -0.0087
94548W        W69536  35.284   5.686   0.569  0.1289  0.1590  0.1502
94549W        W69537   6.844  22.823   3.100 -0.0523 -0.2312  0.2414
94550W        W69538  24.444   0.528  15.573 -0.1587  0.1156 -0.2578
94551W        W69539   7.420  20.064   4.410  0.1484 -0.0291 -0.2973
94552W        W69540  34.963  12.786  11.071  0.0693 -0.1984 -0.0445
94553W        W69541  24.205  29.577  14.009 -0.0656  0.0395  0.1138
94554W        W69542   1.755   2.627   0.444 -0.0958  0.2190 -0.0195
94555W        W69543   9.499  21.818  24.675 -0.0621 -0.1973  0.0877
94556W        W69544   0.334  17.901  25.141 -0.1962 -0.0132 -0.0152
94557W        W69545   8.647  19.403  12.247  0.1526  0.2225  0.0083
94558W        W69546  21.584  25.972   2.413 -0.1645  0.0970 -0.0246
94559W        W69547  34.834  11.049  15.643  0.2491 -0.0648  0.0790
94560W        W69548  10.402  25.866  26.118 -0.1624  0.2769 -0.0424
94561W        W69549   7.860  28.923   6.071 -0.0737  0.1125  0.0894
94562W        W69550  15.359  20.585   7.514  0.1172 -0.2939 -0.0851
94563W        W69551  11.894  17.166  21.270  0.1448  0.2480  0.2414
94564W        W69552  24.714   7.729   3.410 -0.1227  0.2335  0.0450
94565W        W69553  18.244  19.790   2.042 -0.1559 -0.1234 -0.0453
94566W        W69554  25.645  26.807  24.378  0.0772 -0.0629 -0.2785
94567W        W69555  24.840  12.178  14.303  0.1913  0.0834  0.2801
94568W        W69556  11.058  23.178  15.207  0.0668  0.2223  0.0941
94569W        W69557  21.564  34.627  14.357 -0.2521  0.0628 -0.1642
94570W        W69558  30.466  31.157   3.454  0.1203  0.1078 -0.1906
94571W        W69559   8.115  23.688   6.025  0.4870  0.7165  0.1194
94572W        W69560  28.521   7.837  21.082  0.1155 -0.2371  0.0117
94573W        W69561   7.984  12.252   4.963 -0.0997  0.1677  0.0328
94574W        W69562  29.944  25.822  23.760  0.1456  0.1318  0.0739
94575W        W69563   2.044  14.851   2.144  0.0344  0.2458  0.0086
94576W        W69564  23.066   1.330   5.562 -0.0656  0.2998  0.2208
94577W        W69565   2.074  22.336  12.827 -0.0058 -0.0518  0.1118
94578W        W69566  35.253  16.676  16.096  0.1185  0.3522 -0.0796
94579W        W69567  30.147  18.123   6.617 -0.0572  0.1741 -0.1667
94580W        W69568  35.052  15.299  23.974  0.2028  0.0530 -0.2008
94581W        W69569  11.162  30.589   4.755  0.0322 -0.2955  0.0729
94582W        W69570  15.223  21.869  16.199  0.1391  0.1531 -0.3500
94583W        W69571  20.891  32.458  17.519 -0.2809  0.1333  0.1555
94584W        W69572  10.481  13.155   4.936  0.2936 -0.0538 -0.0538
94585W        W69573   6.339  22.730  22.317 -0.0609  0.0748  0.1354
94586W        W69574  33.462  13.031   0.897  0.2021  0.2442 -0.2566
94587W        W69575  30.430  21.509  19.392  0.3614  0.0912 -0.2157
94588W        W69576  19.152   0.316  19.599 -0.0937 -0.1698 -0.4173
94589W        W69577  21.172  22.305  19.029  0.1339  0.0565 -0.1371
94590W        W69578  18.375  12.044   1.253 -0.0400 -0.5649  0.0554
94591W        W69579  27.510  16.990  21.557 -0.0026 -0.0050 -0.1591
94592W        W69580   8.286  26.974   5.374  0.4438  0.0719  0.3453
94593W        W69581   2.794  26.373  24.833 -0.4078  0.0030 -0.0389
94594W        W69582  31.682  13.138  18.201 -0.1467 -0.2573 -0.1201
94595W        W69583  24.364   1.736  25.382  0.0206  0.2411  0.2290
94596W        W69584  24.279   0.828  14.740 -0.2962 -0.0994  0.0645
94597W        W69585   5.518  13.286  21.715  0.0823 -0.0928 -0.0694
94598W        W69586  18.675  29.627  18.145 -0.0633  0.2014 -0.0344
94599W        W69587  29.281  20.225  22.771 -0.1208 -0.3122 -0.0929
94600W        W69588   6.594  28.808   4.218  0.0182 -0.0706  0.1903
94601W        W69589  24.108  31.575  18.679  0.0028 -0.0230 -0.0034
94602W        W69590  28.323  20.847  23.141  0.0329 -0.0132 -0.1215
94603W        W69591  12.346  28.071  14.850  0.0118  0.2666 -0.0251
94604W        W69592  14.095  17.489  10.825  0.1970  0.2364 -0.0072
94605W        W69593  29.277   2.280  13.991 -0.2835  0.0467  0.2484
94606W        W69594  12.690  34.377  22.646  0.1522 -0.0941  0.2791
94607W        W69595  11.876  19.752   3.889 -0.2709 -0.0253  0.2172
94608W        W69596  17.301   1.004  18.840 -0.0870 -0.1900 -0.1458
94609W        W69597  32.595  27.832  12.228  0.1822 -0.4751 -0.3460
94610W        W69598  17.636  20.009   7.687 -0.1050  0.1043  0.2897
94611W        W69599  31.107  26.747  23.821 -0.2741  0.0943 -0.0234
94612W        W69600  23.841   7.916  23.419 -0.0749 -0.0212 -0.1624
94613W        W69601   9.848  13.793  11.130  0.2736 -0.2474 -0.0265
94614W        W69602  21.645   0.931  23.068 -0.1571  0.2542 -0.3387
94615W        W69603   3.091  34.723  18.395 -0.0351 -0.0862 -0.0684
94616W        W69604  12.129  33.569  26.212 -0.2481  0.1697  0.0869
94617W        W69605   0.618   9.807  16.315 -0.2154 -0.0507 -0.2694
94618W        W69606  14.844   6.272   9.120 -0.0300 -0.2249  0.0874
94619W        W69607  21.833  31.882  18.636 -0.1012  0.4137  0.2738
94620W        W69608  31.272   9.115  17.747 -0.1553 -0.1105 -0.1504
94621W        W69609  16.265   3.631  24.021  0.1631 -0.0058  0.0696
94622W        W69610  14.764   8.671  24.053 -0.0112 -0.4084 -0.3035
94623W        W69611  15.556  16.556  21.140 -0.0291 -0.3150 -0.0977
94624W        W69612  24.097   5.966  23.038 -0.2236 -0.1227  0.1179
94625W        W69613  12.572   8.926  11.258  0.0406 -0.0356  0.0807
94626W        W69614   8.669   1.871   4.921 -0.2048 -0.1258 -0.1157
94627W        W69615   9.593   3.057  11.332  0.2019  0.1617  0.0159
94628W        W69616  26.918  27.639  18.596 -0.0252 -0.1682 -0.2335
94629W        W69617  13.866   9.628   0.986 -0.1479 -0.0252  0.8262
94630W        W69618  12.731  11.030  10.261 -0.0724 -0.2502  0.1504
94631W        W69619  15.473   1.128  21.145  0.1908  0.0225 -0.0136
94632W        W69620  31.538  29.547  22.627 -0.2331  0.0723 -0.3012
94633W        W69621   8.174   4.890  24.925  0.0113  0.2313 -0.3661
94634W        W69622  10.925  24.209   6.044 -0.1398  0.1207  0.1596
94635W        W69623  33.686   0.840   1.151  0.2364 -0.0265 -0.0979
94636W        W69624  15.528  31.445   4.925  0.1460  0.2356 -0.2004
94637W        W69625  16.769  10.805   2.325  0.1002  0.1107 -0.1980
94638W        W69626   0.161   2.417  23.476  0.3277 -0.0585 -0.2801
94639W        W69627  14.025  19.088  10.095 -0.3258 -0.0526  0.2253
94640W        W69628   6.989   2.437  24.071  0.1752 -0.1596 -0.1477
94641W        W69629  35.285  23.059  22.796  0.3137  0.2301  0.0123
94642W        W69630  29.655  16.275   7.786 -0.3710  0.0745 -0.4746
94643W        W69631  30.012  23.495  19.712  0.0406 -0.1757  0.0860
94644W        W69632   7.352  10.278   0.523  0.0471 -0.0414  0.1003
94645W        W69633  23.740  34.175  14.824  0.0771 -0.3515 -0.2335
94646W        W69634  24.960  16.300  24.675 -0.0932  0.1961  0.2037
94647W        W69635  28.378   7.248   0.664 -0.0836 -0.1352 -0.1035
94648W        W69636  19.327   7.342   3.690 -0.0956 -0.0195  0.3017
94649W        W69637  13.737  31.744   7.500  0.0654 -0.0758  0.4425
94650W        W69638   9.081  24.355  12.387 -0.0024 -0.1806  0.0208
94651W        W69639  25.503  19.472  25.484 -0.1757 -0.2446  0.1098
94652W        W69640   9.915  31.109  12.680  0.0756  0.0322 -0.1232
94653W        W69641   7.212  19.235   4.962  0.1944  0.1237  0.0938
94654W        W69642  19.342   6.225  20.070  0.1323  0.4690 -0.1600
94655W        W69643  29.967   2.585  18.409  0.0371  0.3322  0.0707
94656W        W69644   1.915  11.347  24.314 -0.1516  0.0037 -0.0692
94657W        W69645  30.132   3.255  15.330  0.0228 -0.0383  0.1834
94658W        W69646  21.096  32.960  18.815  0.0418  0.0251 -0.2301
94659W        W69647  16.962   6.152  19.899 -0.0232  0.0031 -0.0093
94660W        W69648  27.004  17.165  13.604 -0.0171  0.4033  0.1216
94661W        W69649  28.503  34.673  13.689 -0.1449  0.0641 -0.3744
94662W        W69650  10.219   7.932  11.848 -0.0568  0.0242 -0.1779
94663W        W69651  22.985  26.447   2.471 -0.1372  0.0685  0.0822
94664W        W69652  15.328   2.834   7.275  0.1102  0.0713 -0.0718
94665W        W69653   4.475  13.889   2.837  0.0396  0.1122  0.3241
94666W        W69654  21.259  18.961  17.404 -0.0701  0.1919 -0.0746
94667W        W69655  16.524   6.215  22.204 -0.1953 -0.1173 -0.0117
94668W        W69656   0.825  19.786  18.375 -0.1857  0.3017 -0.0768
94669W        W69657  17.683  16.211  24.885 -0.3448  0.2246 -0.0512
94670W        W69658  14.862  16.887   1.359  0.0176 -0.0284 -0.0407
94671W        W69659   4.320  15.197  21.149 -0.0910 -0.2061  0.2441
94672W        W69660  10.494   4.508  21.153 -0.0535  0.0340  0.1220
94673W        W69661  34.111  15.276  25.774  0.0532 -0.2380 -0.1209
94674W        W69662   2.193   8.666  21.633 -0.0455 -0.3781  0.1421
94675W        W69663  10.928  22.889   5.544  0.0720 -0.0084  0.0942
94676W        W69664  14.862  28.467   6.469 -0.1484 -0.4123  0.0131
94677W        W69665   1.230   2.815   1.613  0.2187  0.2553 -0.1341
94678W        W69666  30.398   3.235  11.411  0.1901 -0.1542 -0.0212
94679W        W69667  29.346  10.044  25.123 -0.1075  0.1270  0.0263
94680W        W69668   0.198  34.930  23.736 -0.0096 -0.1766 -0.1063
94681W        W69669  30.592  28.803  11.756  0.1203 -0.0669  0.2601
94682W        W69670   7.764  11.362  21.518 -0.3099 -0.1334  0.0369
94683W        W69671  17.515  20.975  24.920 -0.2382  0.3721  0.1409
94684W        W69672  26.296  29.564  24.786  0.2928 -0.0315 -0.2747
94685W        W69673  32.001  15.491  20.807  0.0680 -0.2024 -0.0220
94686W        W69674  14.527  14.640  19.511  0.1908 -0.2348  0.1109
94687W        W69675  30.721  15.223  17.193  0.0268  0.0961  0.0513
94688W        W69676  26.804   9.989   1.639 -0.1432 -0.0567  0.1751
94689W        W69677  24.815  14.473  21.992  0.2024 -0.1673  0.3427
94690W        W69678  29.925  13.655  12.569  0.0958  0.0064 -0.1489
94691W        W69679   2.900  10.156  18.831  0.0628 -0.0394 -0.0308
94692W        W69680   0.979  20.488  22.240  0.1551 -0.0832  0.0379
94693W        W69681  24.398   4.121  15.421  0.2484  0.0090 -0.0733
94694W        W69682  17.456  31.176  20.993  0.4336 -0.0654  0.1881
94695W        W69683  18.959  29.148  25.718  0.0269  0.0018 -0.1146
94696W        W69684  35.140  30.551  20.952  0.1663 -0.4566  0.1246
94697W        W69685  27.958  27.448  26.098 -0.0395 -0.1168 -0.2121
94698W        W69686  25.913  34.003  24.482  0.0184  0.2625  0.0192
94699W        W69687  31.395  19.479   6.797  0.3165 -0.0017 -0.2626
94700W        W69688  18.550  30.692  23.783  0.2523  0.3701 -0.1402
94701W        W69689   4.942  35.119  25.250  0.0739 -0.0612 -0.0888
94702W        W69690  29.703   2.223  21.240  0.1806 -0.1465  0.0397
94703W        W69691  11.239  17.202   0.638 -0.1103 -0.0861 -0.0643
94704W        W69692   0.117  16.583   1.181 -0.2713 -0.0005 -0.2741
94705W        W69693   8.112   7.012  22.995  0.0387 -0.3605  0.0752
94706W        W69694  26.666  27.202  12.208  0.0328  0.0737  0.2464
94707W        W69695  19.545  29.064   4.823  0.1323 -0.0222 -0.0153
94708W        W69696  25.137  21.961  13.731  0.0779 -0.2666 -0.1138
94709W        W69697  34.526  24.726  14.993  0.1213 -0.1394 -0.0148
94710W        W69698  15.603  33.427  24.493  0.0990  0.2189  0.0896
94711W        W69699   6.394  29.469   7.435  0.0431  0.1042  0.3939
94712W        W69700  26.979  32.425  15.194  0.0722  0.0336 -0.0712
94713W        W69701  29.218  26.683   9.735 -0.1571 -0.2479  0.0693
94714W        W69702  31.786  32.538   4.079  0.1654  0.1452  0.0414
94715W        W69703  10.731  34.376   1.353 -0.3520 -0.2291  0.0418
94716W        W69704   3.059  19.013  16.921  0.0863 -0.3844  0.3962
94717W        W69705   8.240   3.703   0.025 -0.0110 -0.0810  0.4778
94718W        W69706   1.449  27.608   0.991 -0.0891 -0.0233  0.3478
94719W        W69707  15.282  26.002  11.752  0.1302  0.1369  0.1277
94720W        W69708  12.799  26.284   3.027 -0.5473  0.1981  0.2388
94721W        W69709   9.537  11.392  11.867 -0.1933 -0.0553 -0.1881
94722W        W69710  29.934  27.455  10.740 -0.2483  0.1154 -0.0071
94723W        W69711  13.394   0.651  24.007 -0.1545 -0.0186 -0.1232
94724W        W69712   1.276  27.252  23.591 -0.0140  0.0444 -0.0715
94725W        W69713  24.775  25.607  21.876 -0.4238 -0.3490 -0.0181
94726W        W69714   5.137  15.869  19.023 -0.1549  0.0257  0.3836
94727W        W69715   2.894   1.610   3.296 -0.0585 -0.1596 -0.1197
94728W        W69716  22.658  20.765  17.821 -0.0024  0.2651 -0.0191
94729W        W69717   9.264  23.283   1.359 -0.3104  0.0368  0.2832
94730W        W69718  25.627   3.939  14.152  0.0152 -0.0999 -0.1044
94731W        W69719   6.848  11.049   7.850 -0.2201 -0.2996  0.2432
94732W        W69720  28.928  13.391  23.561  0.1234  0.2226  0.1277
94733W        W69721   1.924  28.424  21.941 -0.2577  0.2158 -0.4114
94734W        W69722  13.942   7.920   3.240  0.3361  0.2137  0.0371
94735W        W69723   1.213  35.197  25.849 -0.1478  0.1681  0.1196
94736W        W69724  29.906  28.273  22.806  0.0311 -0.0010  0.3780
94737W        W69725  13.650  10.825   1.498 -0.1987 -0.0391  0.1446
94738W        W69726  22.239  17.125   2.169  0.0974 -0.0702  0.0908
94739W        W69727   0.725  33.223  20.011  0.2244  0.0254  0.1686
94740W        W69728   0.132  26.782  17.597 -0.2056  0.0530  0.1326
94741W        W69729  32.933  17.252  12.830 -0.2755  0.2813  0.0238
94742W        W69730  27.602  31.666  18.677 -0.1397 -0.1981  0.1788
94743W        W69731   3.352   4.169   1.072 -0.0757  0.0256 -0.1615
94744W        W69732  20.263  19.670  16.731  0.1889 -0.3050  0.0270
94745W        W69733  25.162  23.407  21.829  0.1426 -0.1520 -0.0757
94746W        W69734  10.719  26.555  13.994  0.0144 -0.0155 -0.0247
94747W        W69735   5.729   4.946   7.982  0.1939  0.3326  0.0589
94748W        W69736  11.814   2.850  20.012 -0.2267 -0.1726  0.1646
94749W        W69737  25.438  16.734  22.391  0.0920  0.1123 -0.0562
94750W        W69738  20.450  29.278   2.865  0.0447 -0.2517  0.3033
94751W        W69739  30.250  27.007  15.635 -0.1000  0.2183  0.0926
94752W        W69740  19.786  24.192  21.109 -0.0572 -0.2350 -0.2428
94753W        W69741  20.106  18.728   3.987  0.1974  0.0298 -0.0108
94754W        W69742  16.671   8.129  12.722 -0.1441 -0.1352  0.0942
94755W        W69743   0.598  27.802   2.145 -0.1194 -0.0629  0.0132
94756W        W69744  15.018   8.838   9.763 -0.4058 -0.1530 -0.0771
94757W        W69745  18.310   7.067   6.677 -0.2797 -0.2345 -0.2646
94758W        W69746   9.111  12.043  20.581  0.1150  0.2502  0.4562
94759W        W69747  25.609   1.839   2.895  0.3146  0.0995 -0.0326
94760W        W69748  19.747  19.733   3.177  0.0733  0.0383 -0.1682
94761W        W69749  16.019  22.419  24.071  0.1113 -0.0299  0.2226
94762W        W69750  20.002   8.502  23.893 -0.1527 -0.0724  0.2774
94763W        W69751  32.075  25.991  15.021  0.1573 -0.0160  0.0236
94764W        W69752  12.968  15.712  10.708  0.3713  0.3010 -0.1935
94765W        W69753  10.361  30.404  12.252 -0.1718 -0.0256  0.2484
94766W        W69754  32.847  26.295  17.646 -0.3473  0.1420 -0.1029
94767W        W69755  29.612  23.624  10.769 -0.2245 -0.1456  0.2637
94768W        W69756  25.331   9.524  18.265 -0.0285 -0.2442 -0.0020
94769W        W69757   5.041  23.035   5.654  0.1564 -0.3201  0.0356
94770W        W69758  11.649   3.426   4.550 -0.0057 -0.1001  0.0068
94771W        W69759  34.284  16.217   8.503  0.1992 -0.3063 -0.0850
94772W        W69760   6.023  23.969  24.875  0.0483 -0.0487 -0.1510
94773W        W69761  24.542  31.349   2.947  0.0890 -0.2928 -0.3689
94774W        W69762   4.516  29.496   3.931 -0.4320 -0.3035 -0.2128
94775W        W69763  26.396  10.309   1.402 -0.1600  0.2291 -0.1440
94776W        W69764  33.679   0.188  19.569  0.0427 -0.4501  0.0159
94777W        W69765   8.111   1.624  14.916  0.1837  0.0900  0.1550
94778W        W69766   4.990  14.887  18.346  0.1678  0.0843 -0.1121
94779W        W69767  25.752  10.080  23.700  0.4499  0.0234  0.0379
94780W        W69768  19.550  27.345   6.850  0.0627 -0.0173  0.2897
94781W        W69769  33.172  12.705   6.970 -0.3244  0.1236  0.0444
94782W        W69770  19.874   0.614  20.346  0.4444 -0.1216  0.0029
94783W        W69771   7.943  16.065  21.991 -0.0088  0.3312 -0.1516
94784W        W69772   1.288  32.685  17.272  0.0773 -0.0341 -0.0481
94785W        W69773  15.024  22.174  13.846  0.2881 -0.3330  0.2134
94786W        W69774  33.411  35.032  16.382  0.1034  0.0448 -0.0187
94787W        W69775   8.946   1.389  11.680 -0.0938  0.0653 -0.1423
94788W        W69776   4.143  21.664  26.227  0.1102  0.0319 -0.1631
94789W        W69777  24.535  15.874  16.817 -0.0764 -0.5062 -0.1765
94790W        W69778   2.029   3.815   3.058  0.3152 -0.0270 -0.2243
94791W        W69779  13.529   5.143   2.642  0.2560 -0.0585  0.0010
94792W        W69780  27.806  16.982   6.330 -0.0595  0.0855 -0.0757
94793W        W69781   8.252  17.700   2.758 -0.3163 -0.0833  0.3767
94794W        W69782  33.647   1.228  22.327  0.3089  0.1297  0.1579
94795W        W69783   9.774  33.843   3.282 -0.0761 -0.0900 -0.1518
94796W        W69784  29.035  27.947   1.389 -0.3278  0.0495 -0.0491
94797W        W69785  11.488   4.422   7.212 -0.1830 -0.1504  0.0245
94798W        W69786  31.141   2.005  24.199  0.3868  0.0040  0.1101
94799W        W69787   1.587  14.838  11.404 -0.1477  0.0192 -0.0896
94800W        W69788   8.191  27.907   4.365  0.0481 -0.0594  0.2246
94801W        W69789  20.186  20.106  23.448 -0.2838 -0.2431  0.1491
94802W        W69790  31.375  34.434   1.700  0.0398 -0.0260 -0.0269
94803W        W69791   6.441  24.640  24.266  0.2477  0.0737  0.0142
94804W        W69792  31.487  13.646  25.969  0.4928 -0.0660 -0.0640
94805W        W69793  24.863  24.508  11.276  0.0623 -0.0863 -0.0061
94806W        W69794   0.351   0.662  15.740  0.1261  0.2437  0.1683
94807W        W69795   9.886  12.456   2.298 -0.1914  0.0356 -0.2025
94808W        W69796   7.369   4.082  13.038 -0.0658  0.0697 -0.3562
94809W        W69797  15.484   6.349  25.104 -0.1321  0.1135 -0.1342
94810W        W69798  28.517  21.122   5.649 -0.0554 -0.1198  0.4261
94811W        W69799  14.931   0.996  19.593  0.0543  0.2462 -0.4722
94812W        W69800  13.371  25.431  14.405  0.1447 -0.0384  0.1193
94813W        W69801  30.097  12.355  22.622  0.0728  0.1630 -0.0049
94814W        W69802  18.009   1.023   1.153 -0.1799  0.1993 -0.0552
94815W        W69803  35.169   7.128  21.575 -0.0991  0.1265  0.0048
94816W        W69804  32.277  19.126  10.573  0.1181  0.0108 -0.2373
94817W        W69805  33.492   0.832  25.889  0.3084 -0.0512 -0.1519
94818W        W69806  10.886   0.014  22.842 -0.3619 -0.2233  0.0354
94819W        W69807   9.036   0.628   0.660 -0.1772  0.1622  0.1165
94820W        W69808   9.638  33.598  20.865 -0.0183  0.3552 -0.3581
94821W        W69809  29.412  30.089   1.888  0.1954 -0.4268  0.1678
94822W        W69810  21.248   0.934   0.044 -0.2553  0.0861 -0.1883
94823W        W69811  27.398   0.726  21.438 -0.0189  0.1164 -0.1073
94824W        W69812  10.346  30.382  24.529 -0.2841 -0.2663  0.0424
94825W        W69813  16.347  28.508   4.782 -0.1881 -0.5987  0.0902
94826W        W69814  22.077  18.611  23.123  0.0891 -0.0175  0.0624
94827W        W69815  31.984  24.104  16.902  0.0171 -0.0888  0.3143
94828W        W69816  32.776  18.512  26.113 -0.1380  0.0861  0.1249
94829W        W69817  13.984  26.265   7.541 -0.0493 -0.2832 -0.2863
94830W        W69818  19.793   0.356  25.655 -0.1177 -0.0426 -0.4515
94831W        W69819  30.099  17.677   7.914 -0.1994  0.0270 -0.3075
94832W        W69820  13.479  27.031  25.757 -0.1085 -0.2153  0.3480
94833W        W69821  22.115  32.548   3.815  0.3709 -0.2368  0.3014
94834W        W69822  22.339  20.428  16.751 -0.2347  0.2635  0.0868
94835W        W69823   3.847   8.463   2.057  0.1774 -0.0337 -0.4328
94836W        W69824  31.523   6.949  12.222  0.2570 -0.0630  0.2078
94837W        W69825  15.560  25.386  15.755  0.1342 -0.2312  0.0016
94838W        W69826   8.253   9.515  20.150  0.1660 -0.5148  0.2005
94839W        W69827   1.548   8.396  23.528 -0.0456 -0.2621 -0.3332
94840W        W69828  12.345  31.575   4.376 -0.0850 -0.0584  0.0083
94841W        W69829  22.408   6.240   1.314 -0.1006  0.2844  0.2823
94842W        W69830  23.629  17.707  11.283  0.2345  0.2526  0.6679
94843W        W69831  27.244  16.500  24.771  0.2116 -0.2609  0.0301
94844W        W69832  32.428  34.092   5.626 -0.2243 -0.0136  0.1532
94845W        W69833  22.678  12.429   3.413  0.1523  0.1656  0.1361
94846W        W69834  19.506  30.988  17.101 -0.4349 -0.0902  0.3175
94847W        W69835  16.419  13.857   6.921 -0.5061 -0.1276 -0.2818
94848W        W69836  14.515   4.187  22.703 -0.1565  0.1651  0.0316
94849W        W69837  27.286  31.261  22.500  0.1063  0.2881  0.2093
94850W        W69838  18.666  35.246   4.450  0.0676  0.1513  0.1308
94851W        W69839  31.970  19.145  21.049  0.1124  0.2153 -0.0380
94852W        W69840  34.493   1.048   5.044 -0.1421  0.2900  0.0624
94853W        W69841  33.411   9.796  20.827  0.1216  0.0275 -0.2425
94854W        W69842  13.245  33.855  26.027 -0.0297  0.0063 -0.0766
94855W        W69843   6.528   5.381   8.007  0.3854 -0.1975 -0.3253
94856W        W69844  28.696  31.262  22.434  0.2496  0.1503 -0.0444
94857W        W69845  23.084  30.195  25.504 -0.1336  0.0536  0.4060
94858W        W69846  35.163  13.745  25.323 -0.0270 -0.0402 -0.1057
94859W        W69847  34.331  22.987  13.339 -0.0930 -0.2924 -0.2402
94860W        W69848  17.705  10.314   4.817  0.2503  0.0270 -0.1341
94861W        W69849   6.426  27.051   2.461 -0.2290  0.1851 -0.1279
94862W        W69850  13.639  32.674  25.038 -0.2192  0.0611  0.1605
94863W        W69851   0.432  32.443  24.997 -0.0265  0.0310 -0.0583
94864W        W69852  23.858  17.659  18.780 -0.0085 -0.3258 -0.3450
94865W        W69853  23.646  10.224  18.420  0.0520 -0.2116  0.2121
94866W        W69854  19.315  16.377  19.831 -0.0251 -0.1079 -0.0930
94867W        W69855  15.161  15.925  10.678  0.0191  0.0076  0.0473
94868W        W69856  13.832   2.695   6.318  0.2384 -0.0309  0.2039
94869W        W69857   9.447   7.312  24.366  0.0236 -0.2313  0.0963
94870W        W69858  10.387   5.563   4.931  0.3848 -0.3235  0.2013
94871W        W69859   5.698  29.806  24.916  0.0891  0.1755 -0.1539
94872W        W69860  15.827   0.925  22.545  0.2696  0.1590 -0.1740
94873W        W69861  13.542  33.040   5.822 -0.0707 -0.0902 -0.1352
94874W        W69862  33.006  21.856  25.624  0.1182 -0.0379  0.0074
94875W        W69863   8.021   1.201  20.931 -0.0721 -0.0974 -0.1970
94876W        W69864   8.358   5.101  21.380 -0.0634  0.3198  0.1085
94877W        W69865  34.966  21.489  13.248  0.0659  0.4149 -0.0700
94878W        W69866  29.614   9.722  21.011 -0.0937 -0.3659 -0.0089
94879W        W69867  16.925   4.523   1.068 -0.0081 -0.0489  0.2428
94880W        W69868  11.954  14.431  21.951  0.1656  0.0986  0.0020
94881W        W69869  28.326  24.755   8.877  0.0697 -0.0498  0.0021
94882W        W69870  32.783   1.014  20.880  0.0491  0.1999 -0.0912
94883W        W69871   1.116  33.178   4.002  0.0413 -0.1942  0.0699
94884W        W69872  18.659  10.277   4.437 -0.1983 -0.0203 -0.1094
94885W        W69873  12.010  12.772   1.592 -0.2161 -0.0453 -0.1415
94886W        W69874   7.755   2.628  13.639  0.1341 -0.0121 -0.0096
94887W        W69875  23.884  17.700  15.881 -0.3119 -0.4453 -0.0158
94888W        W69876  33.375  32.649  21.643 -0.1432  0.2736  0.1082
94889W        W69877  31.855  30.628   6.864  0.0829  0.0561 -0.0989
94890W        W69878   5.160  21.844  20.941  0.1990  0.1315 -0.2568
94891W        W69879  10.585   7.756  11.497  0.0028 -0.3280 -0.2863
94892W        W69880   2.809  14.978  23.066  0.1464  0.0156  0.0969
94893W        W69881  13.549  33.210  12.075 -0.1902 -0.3451  0.0144
94894W        W69882   6.344   9.304  25.534 -0.3790  0.0440 -0.0931
94895W        W69883  17.312   8.216   1.791 -0.0289 -0.0732  0.1074
94896W        W69884   1.221   0.899  23.620  0.0947 -0.0949 -0.2001
94897W        W69885   3.461   7.469   1.995  0.0632 -0.3253  0.0297
94898W        W69886  17.479  12.565  18.589 -0.4159 -0.3697  0.1733
94899W        W69887   2.163  11.917  24.969  0.1158  0.1511  0.2432
94900W        W69888  19.397   2.529  17.666 -0.1220 -0.1166 -0.1275
94901W        W69889   6.782   0.929   6.241  0.1478  0.0025 -0.0982
94902W        W69890   0.969  14.047  16.319 -0.2836 -0.0536  0.0544
94903W        W69891   1.531  17.727   0.829 -0.0873 -0.3474  0.0728
94904W        W69892  25.392   7.691  21.034 -0.1219 -0.1432 -0.2445
94905W        W69893   6.132  21.511  20.392  0.1914  0.1137 -0.0306
94906W        W69894  20.532  30.557  18.982 -0.1457  0.0913  0.0623
94907W        W69895  34.007   4.709   1.811 -0.1244  0.0318 -0.0012
94908W        W69896   6.868  13.197  26.004  0.0927  0.0079 -0.1998
94909W        W69897   5.971  33.391  21.882 -0.2688  0.2868 -0.2048
94910W        W69898  27.094  15.283  20.865  0.0121  0.2958 -0.0206
94911W        W69899  24.709  32.526  22.943  0.2038  0.1510 -0.0777
94912W        W69900  28.475  13.824  16.495 -0.0940  0.0296  0.0087
94913W        W69901   4.608  13.643  21.284 -0.0155  0.4091 -0.1723
94914W        W69902  35.133  31.893  14.889 -0.0435 -0.1412 -0.1509
94915W        W69903   1.509  35.021  18.021 -0.1136  0.0403  0.2494
94916W        W69904  30.579  21.206  23.621  0.1556  0.0742 -0.2024
94917W        W69905  13.440  31.141   5.214 -0.0833  0.3627  0.1368
94918W        W69906   2.392   7.465  17.817 -0.1802 -0.0964  0.0364
94919W        W69907  31.549  18.237  20.052  0.1942 -0.2173 -0.1676
94920W        W69908  24.435  33.572  20.611  0.1009 -0.1261  0.0830
94921W        W69909  12.373  21.293  16.866 -0.2597  0.0160  0.1229
94922W        W69910  29.936  32.762  18.043  0.2119  0.1609  0.0195
94923W        W69911  17.942  26.420   1.200  0.1307  0.1419  0.0179
94924W        W69912   5.414  22.629  21.983  0.0779  0.1267  0.1186
94925W        W69913  30.617  25.963   9.024 -0.0385 -0.1341  0.1022
94926W        W69914  11.142  26.995   9.028  0.1509 -0.2348  0.5097
94927W        W69915  25.824  11.087  12.498 -0.2055  0.0519  0.2943
94928W        W69916  20.366  15.427  24.691  0.0824 -0.1232  0.0184
94929W        W69917  34.070   2.904  13.255  0.0972 -0.2460  0.3356
94930W        W69918  24.157  15.151  11.949  0.1076 -0.1565 -0.1217
94931W        W69919   7.702  14.938   9.477 -0.0073  0.1082 -0.2626
94932W        W69920  11.978  29.075   1.378 -0.2064  0.1349 -0.2447
94933W        W69921   1.085   9.304  20.416 -0.2520 -0.0453 -0.1350
94934W        W69922  12.588  13.525  18.674  0.0039 -0.2383 -0.4837
94935W        W69923  15.156  20.338  25.325 -0.0850  0.0817  0.2263
94936W        W69924  21.009   5.388   3.564  0.2953 -0.0604  0.0852
94937W        W69925  23.653  25.012   1.042  0.0874  0.3274  0.0266
94938W        W69926  15.372  27.874  26.147  0.3388  0.1031 -0.2229
94939W        W69927  25.484  33.742   1.905  0.0773  0.0365  0.0847
94940W        W69928  13.765  19.837   0.433  0.2509 -0.3996 -0.0086
94941W        W69929  23.812  20.026  16.958 -0.0400 -0.0914 -0.1904
94942W        W69930   1.796  30.122  17.227  0.0823 -0.0182  0.2714
94943W        W69931   9.853  21.843  11.023 -0.4454  0.2097  0.0086
94944W        W69932  31.178  34.623   5.546 -0.1289 -0.0400 -0.0129
94945W        W69933  33.540  23.084  21.267  0.2968  0.0585  0.1025
94946W        W69934  30.629  19.541  21.593 -0.1062 -0.0948  0.0040
94947W        W69935  33.739  20.591  25.593 -0.0740  0.1271  0.0250
94948W        W69936  26.689   7.407  24.252 -0.0425 -0.2795 -0.0010
94949W        W69937  24.659  26.557  16.950 -0.0082 -0.1402 -0.0692
94950W        W69938  12.088   9.093  20.116 -0.0798  0.3914 -0.2034
94951W        W69939  30.149  25.549   0.431  0.2202  0.0632 -0.1062
94952W        W69940   7.668   3.677   9.639  0.0994 -0.1364  0.0351
94953W        W69941  20.713  17.851  18.229 -0.2374  0.0613  0.1268
94954W        W69942  16.651  22.589   7.410 -0.1400  0.4241 -0.0286
94955W        W69943  11.807  32.565   5.996 -0.2379 -0.2083 -0.2390
94956W        W69944  16.006   6.428  20.572  0.1997 -0.1700 -0.0510
94957W        W69945  27.275  13.360  14.563 -0.1732  0.0621  0.2511
94958W        W69946  26.020  31.938  15.749  0.3031 -0.5752 -0.1408
94959W        W69947   3.119  14.472  20.198  0.2308  0.0132  0.0702
94960W        W69948   2.575  28.508   9.773  0.3464  0.3625  0.0318
94961W        W69949  32.650  23.738   7.671  0.1674  0.0564 -0.1053
94962W        W69950   5.392   7.254  23.826  0.2744  0.2349 -0.0297
94963W        W69951  29.234  15.315  24.214  0.1806 -0.1320 -0.0928
94964W        W69952  14.469   9.726  10.877  0.0499  0.2965  0.0768
94965W        W69953  22.235   7.576  19.238  0.3802  0.2123  0.1958
94966W        W69954  20.659  22.657   7.069  0.2737  0.0701 -0.4130
94967W        W69955  30.666  17.360  22.925  0.0239  0.2894 -0.1634
94968W        W69956   1.142  11.985  11.340 -0.0425 -0.1236 -0.0152
94969W        W69957  31.153  30.891  19.295  0.1704 -0.0591 -0.1368
94970W        W69958  23.924  13.421  13.387  0.0944 -0.2839  0.1587
94971W        W69959  14.391  25.351  16.577  0.2495 -0.2057 -0.0221
94972W        W69960   5.694  22.481  26.136 -0.0624 -0.5140 -0.1397
94973W        W69961   9.599   3.609   1.439 -0.2246  0.1542  0.2352
94974W        W69962   3.845   7.808   6.755  0.1277  0.0520  0.2404
94975W        W69963  23.129   8.847   3.322  0.0283  0.3596 -0.1045
94976W        W69964  20.926  24.992   0.126 -0.0261 -0.2968  0.3191
94977W        W69965   5.313  12.800  18.515 -0.1462 -0.1360 -0.1500
94978W        W69966  34.988   0.874  23.624 -0.3410  0.1671 -0.0508
94979W        W69967  10.163  18.231   5.735  0.1610  0.2033  0.4605
94980W        W69968   8.736  17.685   3.027 -0.0114  0.1108  0.1077
94981W        W69969   9.821   1.201   3.969 -0.0612 -0.2515  0.1193
94982W        W69970   1.470  14.653  20.458 -0.0006  0.0908  0.0668
94983W        W69971   7.836  10.932   0.774  0.0051 -0.2530  0.3086
94984W        W69972   5.823  16.889  20.418 -0.0821  0.3614  0.2617
94985W        W69973  23.113  16.052  20.478 -0.1906 -0.2570  0.0608
94986W        W69974  33.476  16.098   8.324 -0.0933 -0.0179 -0.0183
94987W        W69975  10.120  28.375  15.578 -0.0054  0.1019 -0.0293
94988W        W69976  10.639  24.647   0.334  0.1105  0.4250  0.3947
94989W        W69977  17.165   4.642   4.448 -0.3416  0.0064  0.0818
94990W        W69978   7.287  18.386   7.217 -0.3326 -0.1093 -0.0163
94991W        W69979   5.167   9.572   5.106 -0.0013 -0.4407 -0.0037
94992W        W69980  21.293  31.246  21.689 -0.0830  0.1307 -0.0598
94993W        W69981  14.738   5.131   8.045 -0.1074  0.1415  0.2318
94994W        W69982  31.145  13.354   7.388  0.0148  0.1716  0.0587
94995W        W69983  18.047  19.298   3.644 -0.2008  0.0080  0.0826
94996W        W69984  17.143  21.907   5.251 -0.0264  0.0289 -0.1115
94997W        W69985  21.268  22.137  18.594 -0.3478 -0.1823  0.1686
94998W        W69986  30.711  14.602   8.527 -0.1044 -0.0458 -0.0616
94999W        W69987   9.310   2.195   7.125  0.0383 -0.1117  0.1150
95000W        W69988  23.108   2.415   6.045  0.4844  0.3558  0.1926
95001W        W69989   4.033  10.488   6.605  0.3283  0.0382 -0.1182
95002W        W69990  18.178  21.067   2.456 -0.4503 -0.1935 -0.2075
95003W        W69991  31.875   5.135  14.296 -0.1724  0.2147  0.1336
95004W        W69992  29.635  21.115  21.354 -0.3617 -0.0062  0.1300
95005W        W69993  27.088   2.738   0.646 -0.1288 -0.2553 -0.0591
95006W        W69994  24.610  25.570   2.267  0.0737 -0.0423  0.0655
95007W        W69995  11.377  22.260  10.119 -0.0791  0.0253  0.1431
95008W        W69996   4.183  16.945   1.349 -0.0679 -0.0256 -0.0443
95009W        W69997  30.640   9.676  12.902  0.0437 -0.3920 -0.1374
95010W        W69998   1.433  17.692  20.928  0.0269  0.0430 -0.0949
95011W        W69999  26.700  11.315  19.665 -0.0655 -0.0297  0.0543
95012W        W70000  23.456   9.823   1.648 -0.3770  0.1906  0.1726
95013W        W70001  26.089   7.355  19.787 -0.2647 -0.3521 -0.0967
95014W        W70002  27.483   7.349  20.417 -0.5010 -0.3498 -0.2227
95015W        W70003  25.623  35.284  24.929 -0.2341  0.0868  0.1176
95016W        W70004  19.706  19.425  18.078 -0.0805  0.2183  0.2435
95017W        W70005  27.688  13.678   6.022 -0.0961  0.1532 -0.0066
95018W        W70006  12.546  12.385   1.181  0.2131 -0.3904 -0.3222
95019W        W70007  16.520  18.922  19.964 -0.2981 -0.1195  0.0757
95020W        W70008   8.114  15.167  23.381 -0.2056 -0.1698  0.0348
95021W        W70009  16.203  14.612  19.038  0.1862  0.1694 -0.0286
95022W        W70010  11.853   0.397   7.270  0.1591 -0.2548  0.0798
95023W        W70011  30.385  33.174  20.036 -0.3674 -0.0655 -0.0235
95024W        W70012  16.462  11.426  12.159  0.2357 -0.1162 -0.2567
95025W        W70013   0.939  20.325  26.084  0.1386  0.0578 -0.1564
95026W        W70014  11.780   8.980  11.752  0.3985  0.3175 -0.0281
95027W        W70015  12.386  30.552  15.372  0.0835 -0.0835 -0.0456
95028W        W70016  34.680  16.804  12.178 -0.1102 -0.3997  0.1437
95029W        W70017  11.025  10.540  24.012 -0.1195  0.1162  0.0594
95030W        W70018  19.468  26.867  22.589 -0.5720 -0.0531  0.0780
95031W        W70019  21.293   0.011   5.302 -0.2458  0.0912  0.0657
95032W        W70020   9.389  11.904   1.991 -0.1104 -0.3612 -0.0973
95033W        W70021  20.362   8.957  22.078 -0.0004  0.1580  0.0581
95034W        W70022  25.146  25.078  22.942  0.4385 -0.0486  0.0303
95035W        W70023  29.307  20.553  14.516 -0.1692  0.3883  0.0108
95036W        W70024  25.189  18.054  17.346  0.4531  0.2266  0.0594
95037W        W70025  14.841  14.346  24.953 -0.0249 -0.1935  0.0026
95038W        W70026   5.342  35.346  23.853 -0.1788  0.3144 -0.0419
95039W        W70027   5.318  12.240  15.622  0.0330 -0.0502  0.0763
95040W        W70028   0.187  16.986   1.956 -0.1427  0.1171  0.1143
95041W        W70029  15.406  21.285  22.138  0.0600  0.0168  0.0891
95042W        W70030  17.827   8.512  20.830  0.1521 -0.1965  0.1263
95043W        W70031  31.767  11.662  18.973 -0.1991 -0.1068  0.0004
95044W        W70032   4.014  35.277  10.619 -0.2067  0.0744 -0.4024
95045W        W70033  34.773  19.267   0.612  0.1018  0.1931 -0.3025
95046W        W70034  14.397   1.148   2.332 -0.3027  0.0918  0.0896
95047W        W70035  23.887   1.515  20.693  0.0006 -0.1339 -0.4305
95048W        W70036  10.795  15.796   4.019  0.5012 -0.0875 -0.0630
95049W        W70037  17.923   0.659  18.212 -0.1554  0.3386  0.0224
95050W        W70038  15.353  15.970   8.510  0.0421  0.1381  0.0531
95051W        W70039  31.144  27.280  20.043 -0.0631  0.3729 -0.1899
95052W        W70040  13.502  20.608   6.191 -0.2445  0.1081 -0.1246
95053W        W70041  17.803  10.264   8.398  0.0639 -0.1055  0.5917
95054W        W70042  22.823  23.774  16.103 -0.0339 -0.4000 -0.1662
95055W        W70043   5.754  22.276  25.450  0.0894  0.2664  0.0089
95056W        W70044  24.046   3.266  15.791 -0.1719 -0.0646 -0.0916
95057W        W70045  23.839  14.015  15.599 -0.0276 -0.2826  0.1620
95058W        W70046  19.997  12.186   1.788 -0.3098  0.0838 -0.0839
95059W        W70047  26.053  18.288  11.425  0.0028 -0.0824  0.0173
95060W        W70048  34.953  28.926   7.737  0.0812  0.0402 -0.1725
95061W        W70049   3.446  25.692   3.424  0.0776 -0.1606 -0.1373
95062W        W70050  26.705   8.624  19.875 -0.1538  0.0714  0.0883
95063W        W70051  26.005  29.257   3.789 -0.1989 -0.1862  0.0624
95064W        W70052  12.773   0.967  12.484  0.1397 -0.0034 -0.2091
95065W        W70053  23.022   0.410  19.546 -0.2998  0.3689 -0.2416
95066W        W70054  34.620  24.744  23.984 -0.0877  0.2039  0.1391
95067W        W70055  32.927  21.932  21.471  0.2252  0.0124 -0.0034
95068W        W70056   1.975   8.155  23.907 -0.1962 -0.0315 -0.1125
95069W        W70057  10.449  22.570   2.651 -0.0842  0.1265  0.2607
95070W        W70058  11.076  14.372   2.343  0.1315 -0.1150 -0.0041
95071W        W70059   7.910  14.719  19.650  0.1116  0.0236  0.0017
95072W        W70060  33.349  11.800  16.928  0.1964 -0.1605  0.0576
95073W        W70061  20.972   3.445  23.447 -0.6599  0.3141 -0.0911
95074W        W70062  26.563   9.944  18.921 -0.1971 -0.1635 -0.4058
95075W        W70063  14.894   6.301   4.392 -0.1723  0.3497  0.2192
95076W        W70064  27.145  21.148  20.629 -0.0582 -0.4008  0.1370
95077W        W70065  34.024  19.202  16.638 -0.1555 -0.1681 -0.3082
95078W        W70066  24.574   6.189  19.552  0.0204  0.0524  0.0885
95079W        W70067  17.832   9.600  25.241  0.0716  0.3675 -0.1962
95080W        W70068  25.930  26.892  14.771  0.1504  0.2206 -0.3441
95081W        W70069   3.388  15.542  23.594 -0.0486 -0.1075 -0.1449
95082W        W70070  14.835   2.670   9.938 -0.0734 -0.2989  0.0818
95083W        W70071  11.558  35.247   9.403 -0.2235 -0.3439  0.0054
95084W        W70072  26.869  17.250  16.658  0.4042  0.0174 -0.0061
95085W        W70073  25.030  19.127   9.231 -0.1133 -0.1832 -0.1229
95086W        W70074  32.535   3.489  18.644 -0.3459  0.0605 -0.1404
95087W        W70075  12.278  25.507   2.745 -0.0213  0.2418  0.3409
95088W        W70076  13.029  21.084  11.206 -0.2846 -0.2694 -0.0010
95089W        W70077   2.416   5.307  14.593 -0.2129  0.0537  0.0330
95090W        W70078   3.701  20.776  19.864 -0.2578 -0.1202  0.1932
95091W        W70079  17.015  31.737   4.752 -0.1250 -0.1607  0.0788
95092W        W70080  13.012  11.476   4.140 -0.0888  0.3613  0.1509
95093W        W70081   6.582   4.330   0.278  0.0205  0.1032  0.0699
95094W        W70082  27.132   8.654  17.662 -0.0886 -0.0120 -0.3425
95095W        W70083  28.403  19.312  11.779  0.0817  0.3991 -0.3232
95096W        W70084  18.904  26.477  25.984 -0.1576 -0.0758 -0.1139
95097W        W70085  29.045  31.674  19.228  0.2977 -0.1532  0.1471
95098W        W70086  30.290  21.272  23.154 -0.2684 -0.0451  0.1016
95099W        W70087  26.844  18.377  24.430  0.1212  0.0853  0.3580
95100W        W70088   1.505  24.856  24.787  0.1229  0.0388 -0.1798
95101W        W70089  31.474  31.863  15.545 -0.2286  0.1246  0.1567
95102W        W70090  15.047  29.984   8.109 -0.1285  0.1766  0.0328
95103W        W70091  20.484  30.664   4.855 -0.1225  0.2570 -0.0692
95104W        W70092  12.647   2.741  12.038  0.1050 -0.2920 -0.2078
95105W        W70093   9.882  10.179  21.549 -0.3895 -0.2585  0.1498
95106W        W70094   4.593   2.487   7.276  0.2367  0.0384 -0.1890
95107W        W70095  28.593  32.317  11.740  0.0677 -0.2870 -0.0403
95108W        W70096  23.241  18.107  12.464  0.2510  0.0480  0.0530
95109W        W70097   4.887  15.029  25.845 -0.1281 -0.2123  0.0050
95110W        W70098  11.559  10.221   5.429 -0.2619  0.0331  0.2273
95111W        W70099   8.005   0.893  25.464 -0.1855  0.2128  0.3804
95112W        W70100  12.536   7.843  18.250 -0.0473 -0.1027  0.0119
95113W        W70101  15.457  23.091   9.050 -0.2108  0.0897 -0.0763
95114W        W70102  11.548  15.556  25.396  0.0781 -0.0201  0.0569
95115W        W70103  16.868  34.867  24.191  0.2200 -0.2031  0.1578
95116W        W70104  34.733   1.774   4.035 -0.1227 -0.0092  0.2629
95117W        W70105  24.924  27.594  24.181  0.1986  0.0674  0.1989
95118W        W70106   1.729  19.001  17.107 -0.0999 -0.1305 -0.3160
95119W        W70107  14.284  32.804  25.690  0.2567  0.3083 -0.0963
95120W        W70108   4.009  16.122  25.485 -0.1583 -0.0001 -0.2518
95121W        W70109  26.063  25.670  26.120  0.0414 -0.2933 -0.0175
95122W        W70110  13.756  13.880  14.201  0.0388  0.0026  0.2846
95123W        W70111  17.496  16.596  22.294 -0.2359  0.0671 -0.1894
95124W        W70112  30.299  26.360  22.220  0.0482  0.0153 -0.0990
95125W        W70113  23.789   9.409   0.832  0.0156 -0.0106  0.5395
95126W        W70114   9.717   6.620  12.460  0.3209  0.3490 -0.0009
95127W        W70115   8.800  31.166  21.810 -0.2859  0.4419 -0.0231
95128W        W70116  32.040   4.112   4.559  0.0808 -0.1861  0.2417
95129W        W70117   4.690   9.011  16.180  0.4444  0.0763  0.1015
95130W        W70118   2.901   3.291  20.551  0.2608 -0.2706  0.2462
95131W        W70119  26.944  30.297   3.860  0.1300  0.2416  0.3471
95132W        W70120  11.377   9.293   9.645 -0.0185  0.0218  0.1947
95133W        W70121   4.584  34.422   3.388  0.0032  0.2275 -0.1081
95134W        W70122  30.413   0.259  14.777 -0.2457  0.2310  0.1016
95135W        W70123  18.993  12.215  23.025  0.3601 -0.3101 -0.0499
95136W        W70124   7.501   7.592  10.305 -0.0115  0.1043  0.0513
95137W        W70125   9.271  15.082   7.497  0.0086 -0.0238 -0.0243
95138W        W70126  16.140  11.165   2.736 -0.0096  0.1993 -0.3193
95139W        W70127  30.998  30.291  17.824 -0.1178  0.1407  0.2114
95140W        W70128  31.681  12.342  20.648 -0.3062 -0.1824 -0.1128
95141W        W70129  26.075  21.206  15.309 -0.1302 -0.1362  0.0855
95142W        W70130  30.705  17.033  21.930  0.1726  0.1667  0.0255
95143W        W70131  28.764   2.349   1.703 -0.2065 -0.2397  0.2405
95144W        W70132  34.202  14.403  23.098  0.1359 -0.1831 -0.1890
95145W        W70133  24.026   3.376  14.959  0.0814 -0.1433 -0.2468
95146W        W70134  31.115  27.887   0.973  0.1421  0.1057 -0.0816
95147W        W70135   9.764   7.092  25.780  0.0873 -0.2318  0.1287
95148W        W70136   8.535  34.079  15.016 -0.2839  0.0860 -0.0222
95149W        W70137   0.285  22.672  13.658 -0.1120  0.2359 -0.0643
95150W        W70138   3.804  28.951  19.191  0.0177  0.1068  0.0794
95151W        W70139  23.384  29.169   3.705 -0.2122 -0.2613  0.2586
95152W        W70140   1.141  25.907  19.374 -0.0053  0.2830 -0.0263
95153W        W70141  29.834  28.476  13.590 -0.0741 -0.1451  0.2639
95154W        W70142  19.834  11.183  25.388 -0.1734  0.0581  0.0547
95155W        W70143   7.913  22.576   4.025  0.2705  0.1732 -0.0590
95156W        W70144   4.253  21.462  20.487  0.0166 -0.0385 -0.0769
95157W        W70145  16.680  14.582   0.039  0.0032 -0.3197  0.1802
95158W        W70146  10.509  35.039   7.665  0.4201  0.0365 -0.2215
95159W        W70147   8.309  21.340   9.922  0.2278  0.1024  0.1189
95160W        W70148  14.887   8.194   3.251  0.1462 -0.3207 -0.3882
95161W        W70149  31.561  23.462  19.084  0.2477 -0.1662 -0.0736
95162W        W70150   5.257   8.601   3.785  0.0431 -0.0905  0.1544
95163W        W70151  35.288  14.880  15.145 -0.0559 -0.1094  0.1691
95164W        W70152   0.381   0.172  15.949  0.2202  0.1397  0.0355
95165W        W70153  25.158  31.555  22.824  0.1162  0.0195  0.0959
95166W        W70154   9.029  10.448  24.858  0.0292 -0.1595  0.0996
95167W        W70155   9.458  34.528  21.958  0.0329 -0.0539  0.0185
95168W        W70156  24.152  28.118  25.689 -0.1912 -0.1223  0.2376
95169W        W70157   9.214  25.831   6.933 -0.2820 -0.0007 -0.2316
95170W        W70158  23.854  26.494  13.400 -0.0937  0.1076 -0.1834
95171W        W70159  11.155   7.981  19.471  0.4285  0.2115  0.0348
95172W        W70160  22.882  22.571  20.723 -0.1716 -0.1698  0.3733
95173W        W70161  17.668  13.955  20.509  0.0037 -0.1733  0.2476
95174W        W70162   8.325  12.609   7.936 -0.0143  0.0679  0.2998
95175W        W70163  24.516  32.660  13.806  0.1081  0.1598  0.0494
95176W        W70164  17.807   8.929   5.314  0.1900 -0.0962  0.1277
95177W        W70165  12.219   4.004   9.792 -0.0264  0.0908 -0.0169
95178W        W70166  30.282  34.915  23.756  0.0931  0.3226  0.1401
95179W        W70167   6.027   9.893  17.843 -0.2267 -0.3086  0.1650
95180W        W70168  26.190   6.807   0.559  0.3800 -0.0440  0.1518
95181W        W70169  15.149   1.648   0.798  0.0577 -0.1271  0.2257
95182W        W70170  25.677  14.170  14.884  0.1393 -0.1599 -0.5106
95183W        W70171   8.248  26.002   7.372  0.0497  0.2090 -0.1989
95184W        W70172   7.946  23.861  22.258  0.4957 -0.2873 -0.0355
95185W        W70173  26.540  24.688   9.192 -0.1369 -0.1566 -0.0669
95186W        W70174  25.510   0.013  12.624  0.4028  0.1619  0.1115
95187W        W70175  25.082  29.127  21.852  0.1821  0.1031 -0.1346
95188W        W70176  17.685  18.966  26.010 -0.1430 -0.0520  0.1288
95189W        W70177  11.674   5.069  13.475 -0.1245 -0.2176  0.2250
95190W        W70178  25.363  18.156   8.846 -0.1969 -0.0436  0.0871
95191W        W70179  10.163  13.739  20.188  0.1810  0.0526  0.3190
95192W        W70180  14.015   8.549  14.549 -0.0023  0.2453  0.2876
95193W        W70181   9.576   6.722   9.913 -0.0199  0.2564 -0.3509
95194W        W70182   5.648  13.633  24.681 -0.0052 -0.1150 -0.0271
95195W        W70183   7.160   6.505  19.823 -0.1353  0.0111 -0.1938
95196W        W70184   8.792   9.344   8.379  0.2009 -0.1162 -0.0800
95197W        W70185  15.920  23.266   9.096  0.3918 -0.0210  0.3671
95198W        W70186  20.820   4.505  16.488 -0.2692 -0.0063 -0.0235
95199W        W70187   2.453  23.565  21.959 -0.1308  0.0112 -0.0634
95200W        W70188  31.028  20.096  12.092  0.0310 -0.1425  0.0332
95201W        W70189   7.951  17.584  20.668 -0.1518 -0.0545  0.3659
95202W        W70190  30.709  19.481   0.049  0.0318 -0.0359  0.1315
95203W        W70191   4.456  28.335  20.397  0.2809  0.0802  0.1176
95204W        W70192   8.666   0.764  21.762 -0.0060  0.0881 -0.1281
95205W        W70193  34.717   0.376  21.664  0.2153  0.0894  0.2051
95206W        W70194  19.338  11.876  22.940  0.1681  0.1463 -0.1411
95207W        W70195  23.096  34.713  22.295  0.0177  0.2046  0.0472
95208W        W70196  19.680  19.603   2.704 -0.1916  0.0352 -0.1667
95209W        W70197   4.839   7.208   2.465 -0.0165 -0.4967 -0.3248
95210W        W70198  23.581   5.259  23.568  0.2911  0.1782  0.2514
95211W        W70199  35.175  32.467   6.182  0.2042 -0.0226  0.1884
95212W        W70200   5.955  18.532  24.505  0.0410 -0.1249 -0.0007
95213W        W70201  27.640  30.721   2.286 -0.1207 -0.1359 -0.1203
95214W        W70202   5.136   7.121   5.118  0.0511  0.4452  0.4317
95215W        W70203  18.319   6.912  10.612  0.0365  0.0348 -0.1379
95216W        W70204  32.439  16.300  10.887 -0.0341  0.0138  0.2138
95217W        W70205  26.489  25.732  25.442  0.0319  0.1457  0.0118
95218W        W70206   2.481   4.520  15.769  0.0596 -0.1044  0.2469
95219W        W70207   3.207  31.743   3.882  0.0211  0.0567 -0.1789
95220W        W70208  30.947  26.042  23.182 -0.4688  0.2632 -0.1241
95221W        W70209  32.785  33.913   5.899 -0.0978  0.0375 -0.0729
95222W        W70210   0.447   1.050   6.378  0.1788  0.4372  0.0272
95223W        W70211   4.523  11.896  14.983  0.1625 -0.0166  0.0886
95224W        W70212  33.831  27.022  15.709 -0.1050 -0.3072 -0.3449
95225W        W70213  12.623   5.675   3.919 -0.0938  0.0322  0.2239
95226W        W70214   4.493  17.929  18.825 -0.1102  0.4244 -0.1126
95227W        W70215  13.260  15.552   1.476  0.2644  0.0055 -0.1945
95228W        W70216  35.244  20.815  16.471  0.3816  0.2606  0.2444
95229W        W70217   2.870  19.302   0.485  0.3157  0.2399  0.0504
95230W        W70218  32.595  34.448  22.368  0.1191  0.2633 -0.0927
95231W        W70219  22.000  30.546  24.769  0.1429  0.0134 -0.0026
95232W        W70220   6.013   3.180   3.170  0.0439 -0.0738 -0.0570
95233W        W70221  10.607  28.216   1.870  0.0841 -0.1345  0.0964
95234W        W70222  16.224   9.692  20.926  0.1760  0.2886 -0.2324
95235W        W70223  16.276  29.190  21.751 -0.1792 -0.0465 -0.0093
95236W        W70224  26.336  15.961  18.951 -0.0274 -0.0623  0.2989
95237W        W70225  18.103  17.877   2.327 -0.2422  0.2538  0.0916
95238W        W70226  34.820  14.297  15.910  0.0670 -0.2174 -0.1176
95239W        W70227  27.812   8.892  22.263  0.1656  0.0645  0.0865
95240W        W70228  27.867   4.280  23.531 -0.2819 -0.1399 -0.0198
95241W        W70229  16.894   1.899  20.684  0.2484  0.2412  0.1649
95242W        W70230  29.571   0.227  20.771  0.2663  0.0337 -0.0922
95243W        W70231  26.402   5.463  14.123 -0.1457 -0.2266  0.1791
95244W        W70232  34.325  28.894  20.878 -0.0207  0.2037 -0.0111
95245W        W70233  11.070  15.126  20.139  0.0944  0.0859  0.0700
95246W        W70234   2.143  25.656   5.741 -0.1552  0.0264 -0.1379
95247W        W70235  22.777  25.720   5.042 -0.0966  0.0305 -0.1959
95248W        W70236   1.924   8.363   6.157 -0.1128  0.0335  0.0334
95249W        W70237   5.475  17.394   4.455 -0.2238 -0.0694 -0.0437
95250W        W70238  13.462  17.425   8.779 -0.1776  0.0639 -0.0547
95251W        W70239  33.022  16.164  20.219 -0.0065  0.0128  0.3261
95252W        W70240  20.443  32.364  17.692 -0.2587  0.0178  0.0603
95253W        W70241   9.732  34.327   5.061 -0.0250  0.0570 -0.0008
95254W        W70242  17.225  24.293   0.942 -0.1124 -0.2413  0.0699
95255W        W70243  10.778  22.107  24.341 -0.3048 -0.1208  0.1536
95256W        W70244  34.997  16.569  11.794  0.0372 -0.0006 -0.1726
95257W        W70245  14.803  24.041  22.930  0.0413 -0.1727 -0.0199
95258W        W70246  26.746   6.963  18.131  0.4533  0.2353 -0.1838
95259W        W70247  29.258  12.999  21.277 -0.0981 -0.2262 -0.0732
95260W        W70248  30.583  34.444   1.306  0.3341 -0.0634  0.2383
95261W        W70249  33.743   2.539  13.218 -0.0398  0.3307  0.1828
95262W        W70250   9.626  12.205   7.810 -0.1664  0.2773 -0.1165
95263W        W70251  25.010  11.280   2.002 -0.0037 -0.4739 -0.1197
95264W        W70252  15.738  26.401  13.591  0.1959  0.0671  0.0284
95265W        W70253  22.088  27.212  16.095  0.0914 -0.2206  0.0434
95266W        W70254  19.788  17.830   5.223  0.0453 -0.0994 -0.2909
95267W        W70255   4.131  31.777  20.643  0.0258 -0.2492  0.1805
95268W        W70256  16.822  16.140   3.142  0.2643 -0.0276  0.0514
95269W        W70257  33.301  21.436  13.532  0.0790  0.0452  0.0828
95270W        W70258  24.444   1.661  16.543 -0.1904  0.1401  0.3943
95271W        W70259  34.177  27.283  14.446  0.1488  0.1106 -0.2922
95272W        W70260  27.511   9.920  13.405 -0.0657  0.0060 -0.3482
95273W        W70261  17.945  34.145  25.859 -0.0580 -0.1910 -0.0368
95274W        W70262  27.641  32.236  14.092  0.0134  0.0211 -0.0030
95275W        W70263  18.863  30.447   8.827  0.0782 -0.4229 -0.3686
95276W        W70264   8.175  24.972   6.275  0.1881  0.0215  0.0291
95277W        W70265  19.909  13.629   8.136 -0.2188 -0.0667  0.2103
95278W        W70266   6.624   4.895   0.840  0.0747 -0.0351  0.3510
95279W        W70267  12.635  12.812   5.474 -0.2073 -0.2343  0.1439
95280W        W70268  27.869  13.345  13.357  0.0509 -0.2684 -0.5083
95281W        W70269   2.761  26.471   6.527 -0.0911 -0.0585  0.0726
95282W        W70270  19.821   0.914  18.555 -0.0508 -0.1482  0.3518
95283W        W70271  31.329  12.266   8.876  0.0561 -0.2401  0.1814
95284W        W70272   3.955   9.083   1.449 -0.1228 -0.0727 -0.2722
95285W        W70273  35.031  28.959  23.299  0.1423  0.1416 -0.1214
95286W        W70274  27.398   4.137   2.434  0.0112  0.2923  0.0757
95287W        W70275  15.320   2.550  24.125  0.0857  0.1573  0.1859
95288W        W70276  19.162   7.196  19.751  0.1031  0.0871 -0.1382
95289W        W70277  34.223  34.129  25.501 -0.2277 -0.0046  0.0178
95290W        W70278  11.419  22.602   2.602 -0.1870 -0.0502  0.2244
95291W        W70279  25.629  27.389   0.528 -0.3853 -0.0864 -0.0431
95292W        W70280  22.894  18.375   2.406 -0.4496  0.0767 -0.0038
95293W        W70281  27.196  17.724  16.018  0.1655 -0.0238  0.1810
95294W        W70282  19.104  20.834  25.633  0.1067  0.3389  0.0250
95295W        W70283  21.164   8.752   4.776  0.0186  0.6625  0.1258
95296W        W70284   7.180   7.542  12.720  0.0922 -0.1409 -0.1592
95297W        W70285  12.934  25.092  17.597 -0.0196  0.2961 -0.1330
95298W        W70286  34.959  12.895  23.689 -0.1049  0.1948 -0.1639
95299W        W70287  18.031  13.491  22.250  0.3227 -0.0532 -0.0824
95300W        W70288  31.558  24.081  12.384  0.0013 -0.1757  0.0417
95301W        W70289  13.436   3.712  26.005  0.1477  0.3458 -0.0915
95302W        W70290  12.428  27.835   4.443  0.2249  0.0156  0.2061
95303W        W70291  13.255  10.598   8.594  0.1323 -0.0828 -0.0458
95304W        W70292  20.334   8.325   1.545 -0.1891 -0.0643  0.2348
95305W        W70293  29.106  32.617   3.435 -0.1781 -0.0114 -0.0120
95306W        W70294  29.508  18.921  18.890  0.0875  0.3076 -0.2366
95307W        W70295  21.769  26.262  24.649  0.0593  0.2084  0.0636
95308W        W70296   7.328  13.691   3.779 -0.0442  0.4255  0.2340
95309W        W70297  14.901   1.886  19.945  0.1252  0.2828 -0.3212
95310W        W70298  16.437  20.675  24.012  0.0650  0.0278 -0.0531
95311W        W70299  25.495   1.805   3.636  0.1846 -0.1445  0.1411
95312W        W70300  25.788   3.352   6.564 -0.5777 -0.1907  0.1549
95313W        W70301  10.843   0.938  25.274  0.2954  0.1965  0.1632
95314W        W70302   0.232  18.207   7.882  0.0461 -0.0909  0.2159
95315W        W70303  10.960   6.910  11.072 -0.2968 -0.2872  0.3149
95316W        W70304  28.027  26.212  19.650 -0.0376 -0.1433 -0.0167
95317W        W70305  20.642   7.824   2.674 -0.2669  0.1422 -0.4350
95318W        W70306   1.490  12.175   1.158  0.0748  0.0880  0.1267
95319W        W70307  33.524  23.087  18.212  0.0315 -0.0465 -0.2881
95320W        W70308  17.377   0.565   2.275  0.1237 -0.0589  0.2594
95321W        W70309  32.974  26.221   1.129 -0.0578  0.1536  0.2701
95322W        W70310  14.045  27.396   2.700  0.3420  0.1225  0.1484
95323W        W70311  17.797  31.469   5.363  0.1253  0.2099 -0.4292
95324W        W70312  19.500   7.562  24.616  0.2006  0.1490  0.2579
95325W        W70313  13.547  32.104   6.002 -0.3667  0.0251 -0.2232
95326W        W70314   6.655  29.327   6.165  0.0921  0.0478  0.0839
95327W        W70315   2.047   8.461   1.099 -0.1406  0.0383 -0.3452
95328W        W70316   8.502  31.919   1.810  0.1519 -0.1512  0.1026
95329W        W70317   3.272  31.727  19.431  0.1435 -0.1639 -0.0712
95330W        W70318  18.128  28.927   4.963 -0.1928 -0.0921 -0.1148
95331W        W70319   6.526  10.714  21.825 -0.0181 -0.1935 -0.0435
95332W        W70320   9.084   0.312  14.339 -0.0813 -0.0627 -0.1214
95333W        W70321   8.688  21.018   3.483  0.0282  0.1060  0.0790
95334W        W70322  11.682   4.435   6.268  0.0265  0.0168  0.2004
95335W        W70323   9.700   7.398  23.316  0.1530  0.4468  0.1277
95336W        W70324   6.223   2.135   5.639 -0.2343  0.1460  0.0705
95337W        W70325  24.186  22.934  25.853 -0.0002  0.3136 -0.0192
95338W        W70326  30.454   0.999  21.455 -0.0281 -0.2288 -0.0222
95339W        W70327  16.164  16.416   7.610  0.0830  0.0736 -0.2608
95340W        W70328   3.343  29.928  12.304  0.0582  0.0898  0.0999
95341W        W70329  31.165  10.857  13.852  0.1980  0.3294  0.1274
95342W        W70330  10.767  12.575  11.763  0.0838  0.0238  0.0274
95343W        W70331   5.610  33.646   1.492 -0.1024  0.2075  0.4540
95344W        W70332   3.499   9.064   3.216 -0.0625 -0.1149  0.1455
95345W        W70333   5.372  26.823  20.840  0.2024  0.0282 -0.3346
95346W        W70334  12.088  11.227   5.262 -0.2773 -0.2362  0.2229
95347W        W70335  17.282  25.901   9.235 -0.2879 -0.0505  0.0694
95348W        W70336   2.290  30.216  17.102 -0.0216 -0.0043  0.2301
95349W        W70337   2.400  30.918   5.091 -0.2966 -0.2062  0.1397
95350W        W70338  18.200  12.491   1.379 -0.0979 -0.0867 -0.0929
95351W        W70339  19.842   2.842  19.535  0.0090 -0.0577  0.1156
95352W        W70340   8.933  15.590  13.597 -0.0518 -0.4410  0.0774
95353W        W70341  15.496   3.137   6.026 -0.4244 -0.0691 -0.4853
95354W        W70342  19.846  28.661   7.336 -0.0296  0.1491  0.3715
95355W        W70343  23.704  10.306  15.808  0.1191 -0.1008  0.2291
95356W        W70344  22.871  27.791   3.902  0.0710  0.1912 -0.0443
95357W        W70345  28.445  30.479  23.237 -0.3131 -0.1417  0.2165
95358W        W70346  15.142  33.091   9.597  0.2504 -0.2930 -0.2026
95359W        W70347   5.891  28.799  12.086  0.2875 -0.1763 -0.1203
95360W        W70348  18.984   1.641   8.798  0.0783 -0.0515  0.1132
95361W        W70349  19.055   3.694   7.434 -0.4140 -0.2487  0.2437
95362W        W70350  33.840  15.622  26.187 -0.0530 -0.0247 -0.1011
95363W        W70351  17.701  20.377   6.205 -0.1135 -0.1524 -0.2433
95364W        W70352   3.067   9.007   3.534 -0.0563  0.0021  0.0090
95365W        W70353  29.749  33.366  15.020  0.0213 -0.0976  0.0187
95366W        W70354  28.366  14.128   8.957 -0.1413 -0.2670  0.0347
95367W        W70355   9.010  18.319   1.402 -0.2107  0.2907  0.4351
95368W        W70356  28.128   8.533  12.916 -0.0074  0.2829  0.0252
95369W        W70357  31.243  29.195  24.088  0.0716 -0.0614  0.0822
95370W        W70358  10.073  30.086   7.312 -0.3792  0.1103  0.2492
95371W        W70359   0.503  19.801  13.374 -0.1097  0.0591  0.3692
95372W        W70360  23.041  25.731  24.442  0.0362  0.1875 -0.1062
95373W        W70361  24.437  28.304  21.098  0.0946  0.0286  0.0364
95374W        W70362  12.900  30.137  25.730 -0.0051  0.1547  0.0535
95375W        W70363   6.268   0.022  11.542  0.4149  0.1621 -0.1679
95376W        W70364   0.949  12.734  18.921 -0.0720 -0.0473 -0.1270
95377W        W70365  10.223  26.697  12.621 -0.3554  0.0210 -0.1186
95378W        W70366  28.926   8.059  25.065  0.3055  0.2590 -0.0857
95379W        W70367   6.027  10.096   1.563  0.0049 -0.0061  0.0645
95380W        W70368  18.447   5.277  21.488 -0.1760  0.1481 -0.0144
95381W        W70369  18.688  19.786  24.734 -0.1909  0.0047  0.0861
95382W        W70370  14.889   3.326   3.424 -0.0122  0.2692  0.0202
95383W        W70371  15.225  20.729   8.013  0.1124 -0.0463 -0.1870
95384W        W70372  18.464  18.209   7.992  0.3048 -0.4004 -0.1958
95385W        W70373   3.636  10.881  14.686  0.0346 -0.0654 -0.0038
95386W        W70374   7.970  18.269  21.365  0.0061  0.1971 -0.0487
95387W        W70375   9.174  30.194  12.122 -0.2384  0.0464  0.1582
95388W        W70376  16.528   3.643   8.240  0.0277  0.1497  0.1521
95389W        W70377   0.019  24.889   2.072  0.1991  0.2553 -0.0435
95390W        W70378  12.173  18.088   8.549 -0.1486 -0.0429  0.3549
95391W        W70379  18.581  30.282  17.669 -0.1714  0.5097 -0.0540
95392W        W70380  20.434   2.105   7.219 -0.2372 -0.1318  0.1735
95393W        W70381  25.609  30.161  20.077 -0.0474 -0.1376  0.4566
95394W        W70382  19.410  32.489   8.194 -0.0160  0.2365 -0.2023
95395W        W70383  30.587  10.596  17.399 -0.0967 -0.1180  0.1944
95396W        W70384   5.472  12.537  25.220 -0.1614 -0.0291  0.0595
95397W        W70385   8.740  25.804   3.544  0.2448  0.0520 -0.0580
95398W        W70386  10.919  28.457  12.827 -0.1046 -0.0738  0.1414
95399W        W70387  16.724  25.728   2.759  0.1309 -0.0481  0.2688
95400W        W70388  12.330   4.803  22.250 -0.2046  0.0575  0.0301
95401W        W70389   3.022   5.298  26.160 -0.0922  0.2602  0.2433
95402W        W70390  31.124  22.328  10.297  0.2486 -0.1260  0.0497
95403W        W70391   3.123  23.080   2.074 -0.0261  0.1612 -0.0590
95404W        W70392  21.416  17.587  24.547  0.0444 -0.0551  0.1837
95405W        W70393  10.485  10.517   3.418  0.0911 -0.3178 -0.1969
95406W        W70394   2.499   6.972  17.033  0.1137  0.2895 -0.2161
95407W        W70395   8.862   6.543  12.827  0.2474  0.0584 -0.3110
95408W        W70396  34.474  22.895  10.269  0.2008  0.0038  0.1318
95409W        W70397  14.605  23.228   3.399  0.0208 -0.0651  0.1341
95410W        W70398   8.361  31.832  15.192 -0.0856  0.3619  0.1690
95411W        W70399  32.474  12.665   9.813 -0.0940 -0.1188  0.0482
95412W        W70400  23.187  20.225  25.139  0.0012 -0.1156  0.0890
95413W        W70401  28.698  17.702  18.813  0.2105  0.2626 -0.2821
95414W        W70402  23.693  16.988  15.904  0.0188 -0.0684  0.2236
95415W        W70403  17.926  20.056   0.861 -0.0681  0.0672  0.1106
95416W        W70404   8.808   1.401  25.998  0.1912 -0.0924 -0.0202
95417W        W70405  16.704  31.688  18.724 -0.0341  0.3239 -0.1118
95418W        W70406  24.279  22.321  25.246  0.0832  0.0930  0.2925
95419W        W70407   8.193  28.638   6.726 -0.2050 -0.1743  0.2491
95420W        W70408  20.225  30.362  17.171 -0.1088  0.3538  0.0953
95421W        W70409  19.583  23.239   3.290  0.2098 -0.1464  0.3672
95422W        W70410   8.706  17.861   9.215 -0.1586 -0.1424  0.0429
95423W        W70411  21.737  27.634  23.349  0.5682  0.1113  0.0633
95424W        W70412  30.940  17.543  13.626  0.0808  0.4206 -0.0525
95425W        W70413  29.249  11.911   7.715 -0.0203  0.2362 -0.1456
95426W        W70414  33.276  17.065  15.691 -0.1279  0.1372  0.0692
95427W        W70415   7.733  19.722  11.295  0.1208 -0.1703 -0.1783
95428W        W70416  22.179  25.606   1.444  0.0922  0.0351 -0.0418
95429W        W70417  30.673  25.759   7.477 -0.2670 -0.2977  0.1270
95430W        W70418  22.196   6.771   3.427  0.0267  0.0600  0.0343
95431W        W70419  11.452   2.953   9.527 -0.1692 -0.2154 -0.0988
95432W        W70420   5.088  17.247   1.355  0.2349  0.0006 -0.1487
95433W        W70421  25.865  32.244  17.954  0.0540 -0.2213  0.0679
95434W        W70422  26.633  26.388   9.798 -0.1188 -0.1700  0.2448
95435W        W70423  31.462  24.464  25.716 -0.0299 -0.0510 -0.0845
95436W        W70424  27.510  23.636  26.112  0.2192  0.1121  0.4070
95437W        W70425  14.235   4.696  24.765 -0.2560  0.0781 -0.1152
95438W        W70426  14.969   3.322  25.185  0.0211  0.0397  0.2264
95439W        W70427   3.860  19.273  21.166  0.0504 -0.2840 -0.0591
95440W        W70428  18.080  26.858   3.538  0.2086  0.2132 -0.2977
95441W        W70429   1.058  30.824   5.040 -0.1143 -0.1960  0.1384
95442W        W70430  27.729  10.137  19.660  0.1039 -0.0702  0.1737
95443W        W70431   6.188  26.935   0.346  0.1269 -0.2004 -0.1006
95444W        W70432   9.771  11.070  22.791 -0.0254 -0.1078  0.1427
95445W        W70433  16.987  17.944   1.484 -0.0466  0.1462  0.0412
95446W        W70434  33.399  22.328   8.968  0.1865  0.3000  0.0998
95447W        W70435  13.134  15.032  14.152  0.4104  0.0877  0.2126
95448W        W70436   9.383   2.701   0.026 -0.0136  0.3354  0.2048
95449W        W70437  21.399  32.810   5.539 -0.0826 -0.0115 -0.0413
95450W        W70438  26.074  33.332   3.570  0.2852 -0.0587 -0.0219
95451W        W70439  19.947  33.187  21.866 -0.0750  0.0818  0.1430
95452W        W70440  13.852   7.607  21.344 -0.5345  0.3231  0.3112
95453W        W70441  16.433  15.899   8.470 -0.0896  0.1293 -0.1518
95454W        W70442  15.854  17.916  11.563  0.1346  0.0069 -0.0771
95455W        W70443   9.396   7.142   3.313  0.3707 -0.3639  0.1239
95456W        W70444  15.637  13.687  20.465 -0.0997 -0.0291 -0.0713
95457W        W70445  17.840  27.951  25.030 -0.2528 -0.0779  0.2389
95458W        W70446  31.037  34.880  11.205  0.0525  0.1498  0.0108
95459W        W70447  13.844  30.241  26.128 -0.3696  0.2414  0.2293
95460W        W70448  21.953  10.828  23.692 -0.3647  0.0321 -0.0676
95461W        W70449  31.709  12.523  24.245 -0.1018  0.0654  0.0449
95462W        W70450  14.756   3.444   1.842 -0.0131  0.0010 -0.0848
95463W        W70451  21.369   4.682  24.447 -0.1112 -0.2620 -0.1662
95464W        W70452   7.984   3.588  24.662  0.2426 -0.0601 -0.0433
95465W        W70453  16.964  16.317  24.429 -0.1791  0.0708  0.1529
95466W        W70454   5.569  16.053  18.213  0.2348 -0.0158  0.1761
95467W        W70455  10.589   2.764   6.370 -0.1175  0.0856 -0.4217
95468W        W70456  21.080  19.583   5.482  0.3307  0.2780 -0.0633
95469W        W70457   5.687   4.192   3.144  0.0260 -0.1458  0.2962
95470W        W70458  31.653   7.849  23.727 -0.1167  0.1375 -0.1067
95471W        W70459   7.070  15.689  18.183 -0.2141 -0.1148 -0.0078
95472W        W70460  22.996  26.375  16.859  0.0068  0.0724 -0.1216
95473W        W70461  35.354   8.729   1.542 -0.2773 -0.0248  0.0631
95474W        W70462   3.142   5.551  23.976  0.0681  0.0937 -0.1356
95475W        W70463  30.601  11.792  15.377  0.1075 -0.0227 -0.0374
95476W        W70464  16.126  19.323   3.227  0.0268  0.0194  0.1128
95477W        W70465   5.775  22.101   8.349 -0.1412  0.1401  0.0412
95478W        W70466  22.395  11.830   1.606 -0.3711 -0.1670  0.0114
95479W        W70467  17.163  10.082  12.946 -0.1036  0.3824  0.0555
95480W        W70468   4.782  11.320   4.776 -0.0855  0.0999 -0.2171
95481W        W70469  13.825   9.751   4.985  0.1453  0.2887  0.0973
95482W        W70470   9.591  23.100  26.150 -0.1556 -0.4017  0.2512
95483W        W70471   8.499  11.312  24.848 -0.0582  0.2951  0.4772
95484W        W70472   7.894  25.703  14.807 -0.1262  0.1057 -0.2921
95485W        W70473  15.430  32.144   3.685 -0.1803  0.1091 -0.0239
95486W        W70474  34.905  16.857  13.534  0.2544  0.1114  0.3728
95487W        W70475   6.849  32.388  15.417  0.1578  0.1147 -0.1970
95488W        W70476  20.357  20.740   2.257  0.0707 -0.2954 -0.0460
95489W        W70477  11.285   6.995   2.057  0.0801  0.0776 -0.0250
95490W        W70478  17.130  35.289   6.446 -0.2683 -0.0629  0.1814
95491W        W70479  16.800   9.691  13.332 -0.0343  0.0185  0.2289
95492W        W70480  18.248   2.352   6.010 -0.2057  0.2171  0.2551
95493W        W70481  30.302  25.224  25.716 -0.0562 -0.1424 -0.2775
95494W        W70482  14.874   8.985  23.297  0.0845 -0.3318 -0.0614
95495W        W70483  13.227  30.990  12.918 -0.3701 -0.3323  0.1195
95496W        W70484  26.055  11.927  25.232  0.1560 -0.4490  0.2738
95497W        W70485   1.162  17.597  22.753  0.0437  0.1813  0.1726
95498W        W70486  19.378  27.797   6.945 -0.2186 -0.2720 -0.1924
95499W        W70487   2.346  13.775  18.781  0.0707  0.0205  0.0648
95500W        W70488  33.251   5.929  21.137 -0.1336 -0.2547  0.0977
95501W        W70489  31.869  17.720  22.419  0.4568 -0.3503 -0.2187
95502W        W70490   9.277  20.003   5.560 -0.1265  0.2861 -0.0469
95503W        W70491  11.287   5.866  13.637  0.2384  0.1312  0.0675
95504W        W70492  13.966  11.661  22.502 -0.0360  0.2765  0.2208
95505W        W70493  10.983  20.482  11.464  0.2699  0.1559 -0.0146
95506W        W70494  23.815  21.976  12.934 -0.0754 -0.0442 -0.0181
95507W        W70495  20.266   9.822  18.356  0.0279 -0.1825 -0.1982
95508W        W70496  23.134  28.558  22.885  0.0957  0.1997 -0.2460
95509W        W70497  26.553   3.474   4.120  0.1128 -0.2966  0.2057
95510W        W70498  33.635  33.701  21.543 -0.3469 -0.0924 -0.0082
95511W        W70499   0.044  29.729  15.235 -0.0892 -0.2013  0.2624
95512W        W70500  22.748  21.013  21.066 -0.2515  0.0041 -0.4304
95513W        W70501  28.640  27.962  18.461 -0.3265 -0.0340  0.0226
95514W        W70502  25.208   6.720   2.693  0.0265  0.2395 -0.1864
95515W        W70503   3.866  13.107   3.723  0.0255 -0.2369  0.0033
95516W        W70504  32.437  30.440  16.137  0.2680  0.1624  0.0038
95517W        W70505  22.100  14.630  23.218 -0.1598  0.0824  0.2273
95518W        W70506  12.402   5.785  10.392 -0.2049  0.0203 -0.0651
95519W        W70507  22.178  35.094   6.296 -0.1161  0.3746 -0.1749
95520W        W70508  29.932  23.831  24.848 -0.2497 -0.1333 -0.0800
95521W        W70509  31.040  25.653   9.980  0.2305 -0.0721 -0.0333
95522W        W70510  32.793  22.807  18.173  0.1557  0.0191  0.1239
95523W        W70511   7.295  22.326   5.316 -0.0440  0.0566  0.0407
95524W        W70512  35.257  17.524   0.588  0.1292 -0.0355 -0.0929
95525W        W70513  15.252  27.028   3.846 -0.0071 -0.0419  0.5260
95526W        W70514  16.304  35.273  21.421 -0.0312 -0.0869 -0.2982
95527W        W70515  12.848  33.811  12.266  0.1846  0.1353 -0.2965
95528W        W70516  16.673  15.482  20.159  0.0796  0.0851  0.0224
95529W        W70517  26.457  21.133  15.863  0.2432 -0.1371 -0.1729
95530W        W70518  10.413  26.322  10.617  0.2326  0.1910 -0.4393
95531W        W70519  15.989  15.052  19.400 -0.2508  0.3794 -0.1587
95532W        W70520   9.067  35.037  11.636  0.1012  0.2911  0.3814
95533W        W70521  13.196  31.188   5.711  0.2775  0.0003  0.0675
95534W        W70522  30.673   1.340  20.859 -0.1037 -0.1267  0.0594
95535W        W70523  19.615  12.657  24.676  0.2240  0.0513 -0.1454
95536W        W70524   0.192  33.544  20.844  0.0692  0.3550  0.0119
95537W        W70525  12.461  12.027  10.318  0.3201 -0.2298 -0.1290
95538W        W70526   8.593  33.536  13.005 -0.0733 -0.1010 -0.2884
95539W        W70527  26.771   3.326  23.174 -0.0553  0.1286 -0.0265
95540W        W70528  16.834  27.288   6.681  0.1698  0.0725 -0.1452
95541W        W70529  31.264  19.342  19.334  0.2423 -0.0649 -0.1703
95542W        W70530  13.359  31.779   6.451 -0.1255 -0.1563  0.0460
95543W        W70531  27.196  20.498  17.082  0.0814 -0.3907  0.1021
95544W        W70532  14.913   3.210  22.061 -0.0919  0.1210  0.0006
95545W        W70533   3.673  27.417   5.905 -0.1892 -0.0133 -0.0546
95546W        W70534   7.658  22.953  14.414 -0.0197  0.4501  0.1670
95547W        W70535  33.019   6.808  11.539  0.0974  0.0320  0.2891
95548W        W70536  23.844   3.931  23.846 -0.0583 -0.1072 -0.0956
95549W        W70537   8.616  33.799  20.584  0.2486  0.0088 -0.2382
95550W        W70538  10.074  20.438   3.720  0.2110 -0.0637  0.0283
95551W        W70539  32.322   6.113  14.487  0.1754 -0.0636 -0.1510
95552W        W70540  21.768  11.300  23.255 -0.0590 -0.1247  0.0621
95553W        W70541  26.308   3.471  18.327 -0.3275  0.1304  0.1297
95554W        W70542  26.743  16.856  20.071  0.3348  0.3841  0.1019
95555W        W70543   2.518  27.206  10.067  0.0637  0.0553 -0.1592
95556W        W70544  20.896  11.023   9.147  0.1870  0.0358 -0.0940
95557W        W70545  11.015  22.579   6.616  0.1571  0.1294  0.0602
95558W        W70546   8.699  15.371  25.068  0.1003  0.3648 -0.0296
95559W        W70547  14.580   4.184   6.406 -0.1024  0.2878  0.1330
95560W        W70548  30.458  33.559  22.702  0.1360 -0.1260 -0.2620
95561W        W70549   7.759  18.869   1.199  0.1826 -0.1121  0.2286
95562W        W70550   0.014  24.673  13.779 -0.2976 -0.1822 -0.3563
95563W        W70551  32.048  17.203   8.867 -0.1185  0.1285  0.1552
95564W        W70552  23.334  21.000   0.477  0.0675  0.3813 -0.1740
95565W        W70553  24.086  31.155   2.868 -0.2190  0.1201 -0.1078
95566W        W70554  24.775  28.627  10.938  0.2514  0.2551  0.0851
95567W        W70555  22.615   6.154   2.728  0.0399 -0.1016 -0.1435
95568W        W70556  19.352  16.318   3.369 -0.0135 -0.3015  0.2983
95569W        W70557  15.030  26.278  21.274  0.2225 -0.1454  0.3038
95570W        W70558  31.596   9.845  14.093  0.2718  0.1136 -0.0179
95571W        W70559  13.627  20.786   1.720 -0.4064 -0.1216 -0.4832
95572W        W70560  34.328  22.057  11.355 -0.0150  0.2667 -0.0391
95573W        W70561  24.766   7.605  22.587 -0.1110 -0.3201  0.0541
95574W        W70562   7.660  16.188  21.220 -0.0130 -0.1034 -0.1078
95575W        W70563  18.245  31.917  22.733  0.0096 -0.3700  0.0703
95576W        W70564  13.217  27.930   1.460  0.1147 -0.1722  0.1123
95577W        W70565   6.025   9.228  23.417 -0.1079 -0.0885 -0.1870
95578W        W70566  12.297  32.058   0.456 -0.0166  0.3067 -0.2491
95579W        W70567   0.064  28.566  25.375  0.1302  0.0981  0.0008
95580W        W70568  29.147  26.580  21.939 -0.0195  0.2021 -0.0456
95581W        W70569   7.039  34.519   5.638 -0.1336  0.3989  0.1308
95582W        W70570   2.733  34.386   5.644 -0.1745 -0.4679  0.2425
95583W        W70571   2.883   8.394   6.541 -0.1191  0.0499  0.3046
95584W        W70572  27.967  29.549  25.636  0.0460  0.1072 -0.3133
95585W        W70573  18.637  26.387   6.367  0.2179 -0.4055  0.2440
95586W        W70574  17.326  30.433   0.326 -0.0222  0.1422  0.0144
95587W        W70575  23.428   1.294   5.969  0.0364  0.2158 -0.0028
95588W        W70576  13.026  21.387   0.450 -0.1939 -0.1534  0.2127
95589W        W70577  25.774   3.005  14.822  0.0145  0.2350 -0.1118
95590W        W70578   0.881  26.963   3.262  0.1627 -0.2315 -0.1482
95591W        W70579   6.319  21.139   6.505 -0.2303 -0.1322  0.0423
95592W        W70580   9.767  20.462   7.606 -0.2792 -0.1193  0.0293
95593W        W70581  26.084  31.625  13.316  0.1150 -0.1822  0.2335
95594W        W70582  12.244  17.265  11.318 -0.1203  0.1523 -0.1396
95595W        W70583   7.349  29.023   7.761 -0.0854 -0.0410  0.2270
95596W        W70584  32.718  33.187  24.070  0.0494 -0.1788  0.0279
95597W        W70585  32.017   7.988  17.961 -0.1227 -0.0301 -0.1967
95598W        W70586  25.807  15.904  19.028 -0.2966 -0.0391  0.0430
95599W        W70587   0.633  21.386  13.828  0.0776  0.0992  0.0400
95600W        W70588  17.354  15.807  12.358  0.0211 -0.1087 -0.0079
95601W        W70589  10.588   4.215  22.875 -0.0687 -0.3850 -0.2503
95602W        W70590   6.635  33.818   7.105  0.2267 -0.2487  0.2388
95603W        W70591  31.245  14.468   7.254  0.0102 -0.1039  0.2365
95604W        W70592  27.601  30.905   5.655  0.0711 -0.0803 -0.2320
95605W        W70593   4.501  31.308  11.319 -0.4332  0.3181 -0.0888
95606W        W70594  16.179   6.791  20.964  0.1395  0.0188  0.2234
95607W        W70595  22.051  18.331  18.885 -0.1829 -0.4026  0.1914
95608W        W70596  11.435  17.130  22.076  0.2425 -0.1042  0.4490
95609W        W70597   5.643   2.420   4.419  0.2416  0.1326 -0.1196
95610W        W70598  18.977  10.826  25.950 -0.1052  0.1270 -0.1207
95611W        W70599  10.732  28.760  12.427 -0.2954  0.0942 -0.0286
95612W        W70600  25.066  34.676   4.486  0.1368  0.1744  0.1860
95613W        W70601  29.830   6.469  24.240 -0.4369  0.0962 -0.1257
95614W        W70602  31.405   2.539  23.049  0.1031  0.0291  0.1532
95615W        W70603  22.393  34.761  24.006 -0.1087  0.1960 -0.2589
95616W        W70604   7.607  32.347   7.871  0.0010 -0.1317 -0.0103
95617W        W70605  15.854  32.061   9.794 -0.1105  0.0656  0.0809
95618W        W70606  28.228  27.567   9.292 -0.0447 -0.0774  0.0139
95619W        W70607  10.186  19.402   5.420  0.1362 -0.3565 -0.0472
95620W        W70608  20.483  23.660  17.741 -0.0919  0.0683  0.2516
95621W        W70609  14.071  28.257   9.611  0.0410  0.0045 -0.1455
95622W        W70610  21.461   2.799  24.293  0.1853  0.0380  0.1237
95623W        W70611  33.442  34.464  17.652  0.2928 -0.1021  0.1000
95624W        W70612   8.200  11.142   3.039 -0.3959 -0.4806 -0.1555
95625W        W70613  15.783  23.669  15.640 -0.2579 -0.1018  0.0589
95626W        W70614   9.418   6.675  25.672  0.1429 -0.0413  0.4847
95627W        W70615  33.374  26.986  14.142  0.1236  0.1232 -0.2332
95628W        W70616  34.610   8.862  17.614 -0.1894 -0.0191  0.0826
95629W        W70617  24.686  27.676  15.253  0.1421 -0.2917  0.3666
95630W        W70618  31.987  28.388   2.752 -0.0197  0.0553 -0.0692
95631W        W70619  32.445  10.899  21.177  0.0146  0.4066 -0.1785
95632W        W70620   5.508  22.163   3.226  0.0056  0.0451 -0.3420
95633W        W70621  25.643  20.786  13.462 -0.0711  0.0644  0.0231
95634W        W70622   9.711  28.450   6.652  0.2473  0.1416 -0.0150
95635W        W70623   8.759  13.721  13.199  0.0929  0.2534 -0.0927
95636W        W70624   1.410  21.268   2.133 -0.2303 -0.1611 -0.3032
95637W        W70625  27.388   3.528  12.047  0.0744 -0.1333  0.1770
95638W        W70626  17.361  11.819   3.352 -0.3291  0.0064 -0.2009
95639W        W70627   9.518   6.990  22.225  0.1377  0.1134 -0.1815
95640W        W70628  32.598  14.985  19.509  0.1757 -0.1160 -0.3356
95641W        W70629  34.248  14.060  21.982  0.2455  0.1786 -0.0008
95642W        W70630  14.127   4.882   6.770 -0.5322 -0.1596 -0.2329
95643W        W70631  17.832  21.327   8.778  0.0151  0.0364  0.0815
95644W        W70632   3.733  14.720  15.080 -0.0227  0.0438 -0.1366
95645W        W70633   5.120  16.995  18.592  0.0375  0.0387  0.1859
95646W        W70634  11.046   4.053  10.967 -0.0735 -0.1694  0.0932
95647W        W70635  12.382   1.724  25.664 -0.0664 -0.0031 -0.0458
95648W        W70636   9.138  15.446   4.006 -0.1199  0.2191 -0.1474
95649W        W70637  18.849  13.891  22.990 -0.1161 -0.1044 -0.0594
95650W        W70638  29.656  23.095  14.845 -0.1281  0.1313 -0.4107
95651W        W70639  10.739  16.629   7.083 -0.1294 -0.0833  0.1033
95652W        W70640  25.464  22.396   0.038  0.1735 -0.1246  0.0192
95653W        W70641  23.306  18.663  15.988 -0.1878 -0.2745 -0.2161
95654W        W70642  26.277  10.276  25.015 -0.1235  0.1110  0.1689
95655W        W70643   0.558   2.181  14.811 -0.3676 -0.4540  0.0356
95656W        W70644  10.192  18.745  11.248  0.1598  0.0680  0.0048
95657W        W70645  27.304   8.237  17.298 -0.4163 -0.0497 -0.1604
95658W        W70646  34.995  33.073  15.949 -0.1064 -0.2906 -0.0235
95659W        W70647  16.225   9.940  19.568  0.1671  0.2114 -0.1255
95660W        W70648  18.643   8.142   4.640  0.1463 -0.0943 -0.0469
95661W        W70649  14.428   2.757   5.101 -0.1748  0.1115 -0.0994
95662W        W70650  21.722  10.879  17.744 -0.0509 -0.0341  0.1563
95663W        W70651  17.087   8.775   5.708  0.1360 -0.1558 -0.1445
95664W        W70652   5.965  35.030   7.342 -0.2020  0.0484 -0.1962
95665W        W70653  28.378   6.145   0.447  0.3369 -0.3620  0.1047
95666W        W70654  13.971  10.329   5.755 -0.1845  0.0376  0.0603
95667W        W70655   9.883   8.878  12.368  0.1715  0.0523  0.1093
95668W        W70656  26.030  21.518  25.982  0.0668 -0.0924 -0.0020
95669W        W70657  32.836  16.776  12.046 -0.1265  0.0917  0.0928
95670W        W70658  27.623  22.464  10.454  0.0136  0.0422 -0.1466
95671W        W70659  20.702  27.203   7.021 -0.3980 -0.0071 -0.1280
95672W        W70660  21.047  12.061  25.855  0.2259 -0.0474  0.0299
95673W        W70661  12.967  27.440   0.748 -0.3967  0.4182 -0.0697
95674W        W70662  22.975  18.888  15.671 -0.2706  0.4151 -0.1771
95675W        W70663  23.391  13.331  17.769  0.0996 -0.2222 -0.2275
95676W        W70664  11.705  12.036  25.855  0.2801  0.2163  0.1004
95677W        W70665  21.659  29.602  17.573  0.2073  0.1911  0.0547
95678W        W70666  11.364  29.370  11.545 -0.2559  0.0377  0.1139
95679W        W70667  24.721  13.776   9.616  0.1817  0.0877 -0.1795
95680W        W70668  14.434   0.714   6.671 -0.2656 -0.0496 -0.0766
95681W        W70669  34.268   0.522  19.321  0.1140  0.0189  0.4760
95682W        W70670  34.416  29.532  16.410 -0.2219 -0.3350  0.2274
95683W        W70671  17.236  32.237   7.746 -0.0535  0.3140  0.1871
95684W        W70672   1.215  30.559   2.022 -0.1188 -0.1256 -0.2831
95685W        W70673  21.879  25.367   1.049  0.2270  0.0677 -0.2401
95686W        W70674   1.420   7.710  14.186 -0.1552  0.0315 -0.1748
95687W        W70675  20.789  26.745  20.556  0.2341 -0.2935 -0.2873
95688W        W70676  27.488  27.961   0.019 -0.2394 -0.0083  0.5524
95689W        W70677   1.387  22.795  11.689  0.2697 -0.0078 -0.0119
95690W        W70678  13.725  32.109   8.502  0.0038 -0.0115 -0.2213
95691W        W70679  24.682  13.528  22.391  0.0133  0.2305 -0.3042
95692W        W70680   9.401   2.619  25.753 -0.3637 -0.1806 -0.1461
95693W        W70681   3.929  11.809   3.824  0.0208 -0.0932  0.1353
95694W        W70682  18.060   9.736   4.787 -0.0479 -0.0526 -0.0995
95695W        W70683  14.650  10.232  13.539  0.2750  0.0828  0.1563
95696W        W70684  25.918  24.226  18.814  0.0353 -0.0544 -0.2043
95697W        W70685  23.749  28.270  24.163 -0.0969  0.2685  0.1544
95698W        W70686   0.684   7.380  18.153 -0.1980  0.0049  0.2157
95699W        W70687   9.776  19.139   7.738 -0.1108 -0.0048  0.1965
95700W        W70688  24.559   3.585  12.117 -0.0917 -0.0543 -0.1666
95701W        W70689  28.022   0.199  24.776 -0.0308  0.2039  0.3554
95702W        W70690  10.340   6.344  20.910 -0.1988  0.0925  0.1283
95703W        W70691  25.181  27.148  13.728 -0.0862 -0.1705 -0.2517
95704W        W70692  10.074  12.587  10.876  0.1215  0.0747  0.0710
95705W        W70693   1.224  10.137  22.403 -0.2041  0.0827 -0.0453
95706W        W70694  13.454   7.353  23.596  0.0939  0.3816 -0.1800
95707W        W70695   6.791  16.819   8.870 -0.0433 -0.0350  0.0806
95708W        W70696  20.212  16.257   5.249 -0.2090 -0.3143 -0.0630
95709W        W70697  35.279  30.617   0.799  0.0581  0.2588  0.3687
95710W        W70698  20.962  23.338  18.081  0.1313 -0.3400 -0.0209
95711W        W70699  26.246   8.658  19.559 -0.0832  0.3875  0.3038
95712W        W70700   5.443   3.417   0.232 -0.0096  0.1339  0.1811
95713W        W70701  17.995   0.032  21.056 -0.0721  0.0986  0.0319
95714W        W70702  12.355  21.000  13.636  0.1433  0.0963  0.2960
95715W        W70703  12.049  28.799   4.578 -0.2131  0.0540 -0.2659
95716W        W70704  12.972  28.606   4.228 -0.0055 -0.1122  0.0144
95717W        W70705  30.424   1.027  12.587 -0.2923  0.1831 -0.0364
95718W        W70706  28.522  14.925  15.137 -0.0542  0.0803  0.0454
95719W        W70707   3.553   5.609  20.043  0.4255  0.1075 -0.3217
95720W        W70708  26.953  23.323  14.470 -0.0805 -0.1317 -0.5391
95721W        W70709  24.672   5.283  24.697 -0.0856  0.0977  0.0816
95722W        W70710  15.089  22.698  24.834  0.0747 -0.0846  0.2116
95723W        W70711   6.419   5.226   2.086 -0.2685  0.1888  0.0394
95724W        W70712   3.554  10.269  19.504 -0.1763  0.2595  0.0890
95725W        W70713   7.227  35.383   5.486 -0.1651  0.0129 -0.3588
95726W        W70714  31.397  23.593  17.276  0.0534 -0.2845  0.1669
95727W        W70715  34.135  31.841  24.297  0.1639 -0.0246  0.0637
95728W        W70716  18.062   5.591   2.745 -0.0285 -0.2816 -0.0456
95729W        W70717  12.246  23.499  25.571 -0.1452  0.0889 -0.1916
95730W        W70718  30.220  10.071  11.832  0.2231  0.2042 -0.0792
95731W        W70719  10.521   5.329  11.791  0.3040  0.1321 -0.0617
95732W        W70720  16.665  15.873   5.162  0.2073 -0.1413 -0.0136
95733W        W70721  28.786  32.636  19.982 -0.0166  0.0375 -0.0038
95734W        W70722  11.947  27.609  16.851  0.1621 -0.0843 -0.3782
95735W        W70723  24.114  28.583  22.590  0.0610  0.2203 -0.1398
95736W        W70724  16.951  34.537   5.825 -0.1640  0.0456 -0.1196
95737W        W70725  34.401  29.671  18.208  0.3054 -0.2087  0.1780
95738W        W70726  12.848  14.286   5.760 -0.1185 -0.0485  0.3632
95739W        W70727  34.072  21.294  24.599  0.3272 -0.0269 -0.3516
95740W        W70728  11.295  12.337  22.490 -0.0661  0.0209  0.1766
95741W        W70729  33.448  23.835  16.298  0.1157  0.0199 -0.0089
95742W        W70730   8.687   2.266   1.658  0.1767  0.0026  0.0335
95743W        W70731  23.693  32.184  15.960  0.1051 -0.2266 -0.1498
95744W        W70732  28.183  26.299  15.230 -0.4258  0.0646 -0.6084
95745W        W70733  19.511   0.584  26.040 -0.0941 -0.1539  0.4078
95746W        W70734  34.555  26.767  21.938  0.0042  0.1187  0.1215
95747W        W70735  27.126  11.808  23.587 -0.0560  0.0752  0.1087
95748W        W70736  13.408  11.977  21.921  0.1729  0.2632 -0.2837
95749W        W70737  24.512  16.633  25.943  0.2870  0.2110 -0.0723
95750W        W70738  14.801   4.816  12.179 -0.2653  0.1265 -0.1102
95751W        W70739  11.191  26.082  26.017 -0.2159 -0.1706 -0.0128
95752W        W70740   8.970  22.494  14.159  0.1267 -0.0210 -0.0510
95753W        W70741  14.374   8.873  10.159 -0.0823 -0.0423 -0.1451
95754W        W70742  23.264  12.742  21.238 -0.3022 -0.1267  0.0584
95755W        W70743  12.801   1.163  21.538 -0.1553 -0.0121 -0.3306
95756W        W70744  10.224   0.964  20.963 -0.1348  0.0024 -0.2288
95757W        W70745  10.133   7.715  13.267  0.3000  0.1824 -0.0808
95758W        W70746  35.385   2.108  21.715  0.4410  0.1934 -0.3470
95759W        W70747  17.924   1.022  16.385 -0.1410 -0.1030  0.1114
95760W        W70748   9.760  32.675   4.108  0.2748  0.0826 -0.0399
95761W        W70749  22.269   8.195   4.134  0.0896  0.1661  0.2899
95762W        W70750  16.169  21.426   9.155  0.0024  0.1097  0.0445
95763W        W70751  12.178  24.325   0.887 -0.0004  0.1089  0.1142
95764W        W70752  27.831  16.323  14.202 -0.2922 -0.0222 -0.2034
95765W        W70753  11.614  20.007   5.025  0.2679  0.0490  0.0711
95766W        W70754  18.254  33.446  21.575  0.1847 -0.0976  0.0399
95767W        W70755  13.755   8.463   7.474  0.0182  0.0735 -0.0552
95768W        W70756  19.818  28.939  21.869  0.1306  0.2189 -0.0027
95769W        W70757   9.024   3.128  22.554 -0.2737 -0.0418  0.0969
95770W        W70758  22.868  35.116  15.326  0.3092  0.1590 -0.1921
95771W        W70759   5.539   7.731  23.631 -0.0554 -0.0581 -0.0054
95772W        W70760   1.137  27.822  26.249 -0.0473  0.0021  0.1444
95773W        W70761  13.413   7.602  21.628 -0.1093  0.4476 -0.1220
95774W        W70762  24.065   5.216  18.455  0.0014  0.0709  0.0701
95775W        W70763  16.329  30.932  21.825  0.1185  0.0742 -0.1903
95776W        W70764   9.850  13.415  20.430 -0.1726  0.0192  0.0954
95777W        W70765  24.679  31.225  18.157  0.0149  0.2908 -0.1048
95778W        W70766  33.234   9.222  10.295 -0.0416  0.0015  0.2912
95779W        W70767  17.172   7.489  25.000 -0.0544 -0.0072 -0.0904
95780W        W70768   4.907  16.771   2.888 -0.1091  0.0492  0.1471
95781W        W70769  34.878  22.266  20.737 -0.0147 -0.2591  0.2301
95782W        W70770   0.256  23.635  13.217 -0.1596 -0.2227  0.0569
95783W        W70771  26.132   6.817  22.441 -0.1625 -0.0252  0.0805
95784W        W70772  30.442  32.439  19.084 -0.2326  0.2373 -0.1189
95785W        W70773   8.789  19.368  10.270 -0.0670  0.0604  0.2967
95786W        W70774  12.514  28.162  11.422 -0.0636  0.1272 -0.0233
95787W        W70775   8.206  14.347  11.247 -0.0737  0.2232 -0.1224
95788W        W70776  12.650  15.770   7.559  0.0714 -0.0018 -0.4710
95789W        W70777   3.317  26.087  20.296  0.1814 -0.0712 -0.0208
95790W        W70778   9.168  29.816  11.775 -0.1873  0.0870  0.0539
95791W        W70779  31.709  27.857  18.213 -0.0801 -0.0899 -0.1165
95792W        W70780  28.476   3.441  23.391 -0.0204  0.0341  0.0319
95793W        W70781  28.982  12.043  13.999  0.3468  0.1243 -0.0302
95794W        W70782  25.594   4.189  23.693  0.1111 -0.1694 -0.2995
95795W        W70783  26.610  13.143  11.933  0.3780 -0.0959  0.0379
95796W        W70784   5.006  10.537  20.353  0.2491 -0.2470 -0.1053
95797W        W70785  15.380  26.899  10.075  0.0118  0.4758  0.1144
95798W        W70786  29.159  32.319  17.491 -0.2174  0.3708  0.5192
95799W        W70787  17.857  21.939  21.768 -0.0858  0.3354 -0.3937
95800W        W70788   0.517  13.926  14.450  0.2021 -0.0275  0.1193
95801W        W70789  20.832   2.482   8.858  0.1019  0.2799 -0.0414
95802W        W70790  33.532   8.926  13.187  0.1224 -0.2002 -0.0885
95803W        W70791  25.470  24.846  13.880 -0.1272  0.1343 -0.1037
95804W        W70792  30.554  25.664  15.828 -0.1158  0.0442 -0.2245
95805W        W70793   7.799   5.599  22.216  0.1849 -0.2316  0.2771
95806W        W70794   3.396  32.859   4.129 -0.0816  0.1737  0.1625
95807W        W70795  31.490   3.795  24.254  0.1288  0.1629  0.4071
95808W        W70796  31.345  33.606  18.358  0.3420  0.0204 -0.2620
95809W        W70797  10.888   9.299   1.993  0.2805  0.2120  0.2826
95810W        W70798   4.770   2.583   1.236  0.2110 -0.3139  0.0347
95811W        W70799  23.003  28.288  22.040  0.3011  0.2249  0.2002
95812W        W70800  27.345   0.795  25.872 -0.1995 -0.1055  0.2517
95813W        W70801  21.679  32.539  16.043 -0.0809 -0.2822 -0.2169
95814W        W70802  27.365   1.678   3.939 -0.1170  0.0809  0.1651
95815W        W70803  33.671   5.352  18.493 -0.0590 -0.1879 -0.0555
95816W        W70804  15.740  25.079  12.417 -0.1792  0.0794 -0.1819
95817W        W70805  32.031  33.248  17.773 -0.0447 -0.1731 -0.1746
95818W        W70806  11.271  24.076  17.639 -0.1954  0.1605  0.0987
95819W        W70807  15.547   3.266  23.699 -0.4409 -0.0230 -0.0902
95820W        W70808  16.275  34.910   0.319  0.0428  0.2036  0.1592
95821W        W70809  11.048   1.424  21.735 -0.0552 -0.2670 -0.1433
95822W        W70810  31.663  33.841   6.340  0.1375  0.0595  0.2823
95823W        W70811   4.687   7.226   9.141  0.0983 -0.0194 -0.2127
95824W        W70812   7.004  19.552  19.892  0.1365  0.0066 -0.0565
95825W        W70813   3.281   0.777   8.813  0.1035 -0.3131  0.1307
95826W        W70814  19.444  35.229  23.868  0.2959 -0.1581  0.1636
95827W        W70815  19.029  25.992   5.377 -0.3274 -0.0715  0.3216
95828W        W70816   1.826  20.454  15.704 -0.4139 -0.0427  0.1880
95829W        W70817  24.503   3.907   1.589  0.2734  0.0795 -0.2378
95830W        W70818   9.203  32.124   8.238 -0.1159  0.0440  0.0863
95831W        W70819  12.940  24.802  15.401 -0.0181 -0.0042 -0.2390
95832W        W70820  25.799  34.694   1.113  0.0933  0.0364 -0.3138
95833W        W70821  10.937  32.533   6.621  0.0307 -0.0723 -0.2088
95834W        W70822  15.544  27.559   0.688  0.0704 -0.0113  0.4251
95835W        W70823   2.006  24.449   4.078 -0.0880 -0.2128  0.0606
95836W        W70824  15.646  27.877  24.159  0.1159  0.1255 -0.1132
95837W        W70825  31.759  35.322  18.659 -0.1766 -0.1123  0.0028
95838W        W70826  27.587  22.122  10.803  0.1471  0.1301 -0.1247
95839W        W70827  12.206  17.289  23.376 -0.0120 -0.1520  0.1007
95840W        W70828  26.856  30.405  12.236 -0.2653 -0.0329 -0.0088
95841W        W70829   4.837  23.822   6.879  0.1345 -0.1715  0.3129
95842W        W70830   8.623  13.912   4.377  0.3324 -0.1395 -0.0731
95843W        W70831  25.467  33.606  26.130 -0.2023 -0.3503  0.3171
95844W        W70832  12.505  28.904   2.878  0.1730 -0.3789  0.0034
95845W        W70833  19.311   2.171  23.403  0.0294 -0.3601 -0.3454
95846W        W70834  24.182  28.279   3.170  0.1965 -0.3537 -0.2118
95847W        W70835   5.851   9.275  19.093  0.0710  0.0928 -0.4446
95848W        W70836  16.013  23.078  22.569 -0.0324  0.1438  0.3006
95849W        W70837  24.261  32.584  22.772 -0.2328 -0.1160  0.1464
95850W        W70838  35.114  33.026   5.866  0.3373  0.1931  0.1037
95851W        W70839  13.884   2.964  10.882  0.0702 -0.0835  0.0337
95852W        W70840   2.444  30.457  20.513  0.3413 -0.0362  0.0625
95853W        W70841   1.443  10.421   3.759  0.0758  0.0841  0.0073
95854W        W70842  31.807  33.379  20.406 -0.2930  0.1875  0.0587
95855W        W70843   3.878   2.797   6.428 -0.1745  0.2180 -0.1977
95856W        W70844  27.247  13.556  10.173  0.1036 -0.0158  0.0326
95857W        W70845  10.277  19.990   5.532 -0.0390  0.2713  0.0444
95858W        W70846  16.396  12.729   6.832  0.1762  0.1901 -0.0000
95859W        W70847   0.754  16.855   1.433  0.0370  0.0674 -0.0057
95860W        W70848   9.918  15.246   5.273  0.0872  0.0268 -0.2768
95861W        W70849  14.778  34.586  12.544 -0.0051  0.2173 -0.3434
95862W        W70850   4.743   9.429   6.454 -0.1837 -0.1493  0.0024
95863W        W70851  26.606   2.258  15.217 -0.0637  0.0652  0.0818
95864W        W70852   1.334  28.391  20.456  0.0892  0.2694  0.4768
95865W        W70853  34.817   6.737   2.887 -0.2341 -0.2376 -0.1437
95866W        W70854   6.744  18.064  25.892 -0.2992 -0.2340  0.0087
95867W        W70855   9.350  17.941   3.495  0.1303  0.1750  0.3598
95868W        W70856   3.823   2.643   1.767 -0.3293 -0.2165  0.1457
95869W        W70857   3.055  17.919  12.598  0.0276  0.0691  0.2606
95870W        W70858   2.623  15.512  20.913  0.4262 -0.0965 -0.0118
95871W        W70859   9.188  11.018  10.478  0.0944 -0.2337 -0.1080
95872W        W70860  10.378  14.506  18.992  0.1296  0.1175  0.2021
95873W        W70861  21.153  33.894  25.576  0.1818  0.1644  0.0289
95874W        W70862   4.435  18.282   5.420 -0.1738 -0.0557 -0.1028
95875W        W70863   6.777  18.549   4.371  0.1045  0.0423 -0.0587
95876W        W70864  22.599  28.184  12.369 -0.0751 -0.1913  0.0190
95877W        W70865  26.430   7.656   9.880 -0.0291 -0.3732 -0.1383
95878W        W70866  22.618   6.816   4.163  0.3296  0.1198  0.1688
95879W        W70867   4.262   2.235  24.865  0.1443  0.1026 -0.1264
95880W        W70868  27.228  13.366  21.586 -0.0355  0.1454  0.1764
95881W        W70869   9.878  11.538   7.392  0.0027  0.2936  0.1892
95882W        W70870  30.703  24.593   8.704 -0.1733  0.2438  0.3263
95883W        W70871   7.702  21.023   7.194 -0.1097 -0.5809 -0.1074
95884W        W70872  34.702  25.091   0.977  0.0888  0.2667 -0.1426
95885W        W70873   1.806  29.238  23.130  0.0103  0.1419  0.0460
95886W        W70874  17.157  10.743  11.786  0.0477 -0.0548 -0.1473
95887W        W70875  27.839  12.348  17.033  0.1193  0.0798 -0.2416
95888W        W70876   6.059  29.027  25.976 -0.0056  0.0089  0.1226
95889W        W70877  29.951  12.129  23.387  0.1439  0.0619 -0.0384
95890W        W70878  16.045  18.197  24.837  0.3675  0.1366 -0.3998
95891W        W70879   9.145  33.128   1.032 -0.2354  0.1209 -0.1237
95892W        W70880  23.130  10.377  24.211  0.4727  0.0509 -0.0447
95893W        W70881  12.298   1.003  20.165 -0.1716 -0.0646 -0.1064
95894W        W70882  12.695  20.012  16.616  0.1930  0.0706  0.1671
95895W        W70883   0.657   5.240  14.580  0.3308  0.1285  0.1210
95896W        W70884  13.260   8.747  22.540 -0.2751  0.2975 -0.1714
95897W        W70885  12.131  15.876   7.661 -0.0910 -0.0688  0.0425
95898W        W70886   2.658   5.806  15.335 -0.0823 -0.0353  0.1513
95899W        W70887  11.220  35.045  13.822  0.0123  0.3329  0.0321
95900W        W70888   0.579  16.870  13.300 -0.2160  0.1293 -0.1590
95901W        W70889  21.715  33.509  23.307  0.1004 -0.0764 -0.3509
95902W        W70890  17.945  18.674  10.829 -0.3566 -0.1330 -0.0551
95903W        W70891  10.159   1.450   4.787  0.3225  0.0516 -0.0987
95904W        W70892  31.981  20.797  22.354  0.1141  0.1066 -0.0680
95905W        W70893  33.292  10.473   8.177 -0.0974 -0.0254 -0.0860
95906W        W70894   0.516  27.274  25.278 -0.2150  0.0946  0.0455
95907W        W70895  24.648  30.759  10.378  0.0745  0.0301  0.1334
95908W        W70896  12.118  33.052  23.089 -0.1365 -0.1881 -0.1965
95909W        W70897  34.105  31.104  23.391 -0.0357  0.2554  0.2281
95910W        W70898   3.599   8.129   0.016  0.1977 -0.2790 -0.2436
95911W        W70899  25.027  33.733  10.986  0.0341 -0.0233 -0.1107
95912W        W70900  15.992   9.688  22.066 -0.0112 -0.0139 -0.1045
95913W        W70901   7.333  32.576   7.443 -0.1223  0.1215  0.0809
95914W        W70902  11.492  22.467  11.816 -0.1750  0.1238 -0.2998
95915W        W70903  24.121  30.556   1.690  0.0799  0.1417 -0.0342
95916W        W70904   4.858  12.989  24.501  0.0998 -0.0441  0.0050
95917W        W70905   8.277  35.065  13.049 -0.1351 -0.2382 -0.1532
95918W        W70906  17.486  31.891   1.473  0.1968  0.2081  0.0000
95919W        W70907   9.464  29.258  10.090  0.2392 -0.2384 -0.0317
95920W        W70908  21.604   0.776   3.880  0.1261 -0.0392  0.0578
95921W        W70909  29.330  24.128  25.392  0.2617 -0.0524 -0.0654
95922W        W70910  25.088   0.154  13.157 -0.2810 -0.1346 -0.3172
95923W        W70911  26.129   5.614  16.661  0.3511  0.1228 -0.0586
95924W        W70912  34.184  30.695  13.636 -0.1658 -0.4760 -0.0085
95925W        W70913  23.004   3.741  16.740  0.3441  0.0963 -0.2988
95926W        W70914   8.276  10.677  19.643 -0.0169  0.4026 -0.1425
95927W        W70915   8.525  31.351  13.387 -0.0841 -0.4076 -0.2501
95928W        W70916  31.661  17.254  22.783 -0.1749 -0.0528 -0.1835
95929W        W70917  32.885  25.871  21.685  0.1410  0.1627 -0.1713
95930W        W70918  23.687   1.718  14.117  0.0574 -0.3338  0.1997
95931W        W70919  15.287  31.136   9.747 -0.1159 -0.1485  0.0333
95932W        W70920  25.529  32.400   0.023 -0.0761 -0.2590  0.5995
95933W        W70921  12.579  26.395  11.573 -0.0196  0.2254  0.0522
95934W        W70922  30.709   7.332  20.604 -0.1197  0.0667 -0.1998
95935W        W70923  32.953  23.302  14.157 -0.1460  0.0886 -0.2068
95936W        W70924  17.819  25.030  21.471 -0.4613  0.3458  0.0022
95937W        W70925  26.529  14.550   9.409  0.3995  0.1054 -0.1659
95938W        W70926  23.316  14.182  24.993  0.2289 -0.2663 -0.0556
95939W        W70927  17.452   8.221  10.884  0.0773 -0.2072 -0.0242
95940W        W70928  11.769  29.720  12.387  0.2012 -0.0453 -0.1191
95941W        W70929   6.993  32.969   7.581 -0.0814  0.0544  0.2951
95942W        W70930   8.304  19.727  23.691 -0.2487 -0.0997  0.1149
95943W        W70931  18.462  17.393   5.709  0.1664  0.2730  0.0752
95944W        W70932  20.566  18.944  23.053  0.1004 -0.0896 -0.1632
95945W        W70933  10.125   4.636   9.261  0.1290  0.1159  0.0935
95946W        W70934  20.572  15.659   4.127 -0.0879  0.1438  0.1022
95947W        W70935  12.640  26.669  18.046  0.2188  0.3013 -0.1820
95948W        W70936  12.522  11.290   3.543 -0.1699  0.0504  0.1441
95949W        W70937  26.037   6.789  15.224  0.0275  0.1649 -0.2260
95950W        W70938   6.538  13.955   9.849 -0.0190  0.0722 -0.1932
95951W        W70939  30.765  20.742  17.679 -0.3670  0.0430 -0.1797
95952W        W70940  11.492   1.372  20.468  0.0484  0.1242  0.0554
95953W        W70941  17.240  35.081  18.379  0.1090  0.0680  0.2784
95954W        W70942   7.550  32.462  22.226  0.3166 -0.0685 -0.1792
95955W        W70943   4.640  29.884  14.061 -0.1585  0.2899  0.0739
95956W        W70944  21.645  12.587  17.329  0.3792  0.1397  0.2375
95957W        W70945   8.897  19.410  10.881 -0.2277 -0.0343 -0.0714
95958W        W70946  34.888  28.112  22.091 -0.1101 -0.1348  0.0118
95959W        W70947  12.800   9.646  23.464  0.0246 -0.1879 -0.0474
95960W        W70948   8.717  10.008  11.907 -0.1299  0.3190  0.0098
95961W        W70949   8.240   8.707   0.823  0.0437 -0.1887  0.0109
95962W        W70950  13.664  17.037  23.655 -0.0572  0.2067  0.0113
95963W        W70951   2.073  13.695  21.205 -0.4948 -0.2655  0.1523
95964W        W70952  26.399  33.656  20.263 -0.0709 -0.1082  0.1637
95965W        W70953  14.340  11.244  20.165 -0.0818 -0.0150  0.0919
95966W        W70954  20.349  11.453  20.349 -0.3248  0.1178  0.1569
95967W        W70955   7.508  17.266  11.547  0.3808  0.1339  0.0966
95968W        W70956  20.780  14.184   6.675  0.0988  0.2346 -0.0236
95969W        W70957   3.860  28.609   0.338 -0.0646 -0.2857 -0.0143
95970W        W70958  16.620   2.284   0.838 -0.0635  0.0519 -0.0002
95971W        W70959  34.877  23.306  26.192  0.0764  0.2039  0.2846
95972W        W70960   0.135  33.475  19.870 -0.0468  0.0691 -0.0682
95973W        W70961   3.697   8.880   0.242 -0.0939  0.2390 -0.2159
95974W        W70962  21.728  16.897  17.633 -0.0844  0.2014  0.0580
95975W        W70963  22.373   9.153   3.230  0.2855 -0.1932  0.0646
95976W        W70964  33.445  32.110  22.003 -0.2911  0.4054  0.2202
95977W        W70965  13.110  28.199   5.243  0.1299 -0.4164 -0.1111
95978W        W70966  17.526  10.579   2.931  0.2238  0.0406 -0.0924
95979W        W70967  16.412  21.450   5.657 -0.2398 -0.2899  0.0086
95980W        W70968  14.837  27.958  12.886  0.0390 -0.0301  0.0330
95981W        W70969  32.825  30.632  12.341 -0.1273  0.1526  0.0593
95982W        W70970  31.813  16.017   6.836  0.0042 -0.0709  0.1784
95983W        W70971  17.749   0.307   3.502  0.3203 -0.1579 -0.1924
95984W        W70972   6.026  10.709  21.977  0.0124  0.0771  0.0732
95985W        W70973  13.217   0.899  11.728 -0.1096 -0.0932 -0.2639
95986W        W70974  16.583  21.890  24.565 -0.1506  0.2170 -0.4069
95987W        W70975  13.539  10.044  26.035  0.1063  0.2436 -0.3583
95988W        W70976   9.769  31.082  15.244  0.1642  0.0856 -0.3760
95989W        W70977  16.178  21.767  12.307 -0.1681 -0.1110 -0.3599
95990W        W70978   9.614  10.439   0.372  0.0079 -0.0609 -0.0829
95991W        W70979   6.576  25.484  23.024  0.0073  0.3419  0.2383
95992W        W70980  20.583  32.456   1.261  0.2432  0.0875 -0.0528
95993W        W70981  21.422  31.427  20.342 -0.1475  0.2967  0.2285
95994W        W70982   3.950  34.033  11.323 -0.2157  0.1457  0.1157
95995W        W70983   1.908  15.070  17.638 -0.0301  0.0095  0.2114
95996W        W70984  17.789  25.553  21.392 -0.0334 -0.0441 -0.0068
95997W        W70985  32.467   0.705   4.148  0.0330 -0.3527 -0.1385
95998W        W70986  14.676  12.613   1.294  0.0609 -0.1005  0.1160
95999W        W70987  15.925   3.432  17.245  0.0332  0.2056 -0.0419
96000W        W70988  24.943  11.549  13.303 -0.0472  0.1469  0.0716
96001W        W70989  33.099  25.074  20.260  0.2139  0.0009  0.0651
96002W        W70990  26.434  11.906  20.824 -0.0132  0.0305 -0.1483
96003W        W70991  23.732   1.189   6.421 -0.3616  0.1476  0.0529
96004W        W70992  13.040   9.388  13.991  0.3856 -0.0871 -0.1952
96005W        W70993  18.356  11.291  23.678  0.1232  0.4079 -0.0757
96006W        W70994   6.863   9.003   1.628  0.2250 -0.0295 -0.1326
96007W        W70995   1.013  22.541  14.901 -0.1893 -0.2405 -0.1895
96008W        W70996   3.217  28.002  20.591  0.1004  0.2193 -0.3169
96009W        W70997  24.849  22.222  12.914 -0.1164  0.1680 -0.1531
96010W        W70998  16.721  20.848  21.195 -0.0671 -0.2201 -0.3809
96011W        W70999   6.803   9.565  10.713 -0.1158 -0.1274 -0.0018
96012W        W71000  23.280  20.580  21.829 -0.3048 -0.1039 -0.2198
96013W        W71001  32.743  30.765   1.653  0.2355  0.0482  0.0595
96014W        W71002   9.453  17.716   6.908  0.0903  0.1405 -0.2716
96015W        W71003   6.554  14.445   6.152 -0.0399  0.0698  0.2800
96016W        W71004   1.026  17.695  12.622 -0.0309  0.0398 -0.1324
96017W        W71005  31.398  10.375   0.208 -0.0185 -0.0065 -0.1859
96018W        W71006  17.766  27.985   9.860  0.1038 -0.1861  0.0886
96019W        W71007   8.161   0.785   9.910  0.0414  0.0260  0.1550
96020W        W71008  23.361  13.072  13.343 -0.2374  0.0158 -0.1102
96021W        W71009   5.507   3.224  25.959  0.1727  0.2764  0.0280
96022W        W71010  16.164   3.119  23.146  0.1280  0.0192  0.1700
96023W        W71011  11.692  18.714  22.636  0.1684  0.2589  0.2778
96024W        W71012  32.750   6.473  13.570 -0.0167  0.2174  0.1690
96025W        W71013  15.777  23.999  25.568 -0.2639 -0.0265 -0.4544
96026W        W71014  15.650  33.500  25.838 -0.1665 -0.0603 -0.2659
96027W        W71015   9.264  12.220  25.354 -0.0315  0.0210 -0.1618
96028W        W71016   1.123  10.578  13.979 -0.1132 -0.2294  0.1352
96029W        W71017  34.970  27.138  21.748 -0.0070 -0.4348 -0.0187
96030W        W71018  15.702  20.110   5.811 -0.2322  0.0083 -0.4643
96031W        W71019  11.326   8.684  22.898  0.1515 -0.1686 -0.1249
96032W        W71020  19.460  29.580  25.286  0.0960  0.0086  0.0680
96033W        W71021  28.791   8.283   0.601 -0.1552 -0.2232 -0.1368
96034W        W71022   2.224  20.871  14.457 -0.0736 -0.0347 -0.0027
96035W        W71023  28.133  18.713  14.813 -0.1337 -0.0193 -0.0446
96036W        W71024  21.711  28.392   2.484 -0.2873 -0.0106  0.0090
96037W        W71025  32.797   7.650  14.272  0.2088  0.4588  0.1566
96038W        W71026   2.958  12.567  21.768 -0.4218 -0.1460  0.1072
96039W        W71027   8.791  26.619  23.319 -0.1906  0.0903  0.2616
96040W        W71028  14.413  12.119  26.179  0.0568  0.2203 -0.1132
96041W        W71029   0.708   6.641  19.909  0.0307 -0.0271 -0.1339
96042W        W71030   6.194  31.396   4.080 -0.0948 -0.1386 -0.0666
96043W        W71031  34.242   1.859  23.709 -0.1994  0.3001 -0.0564
96044W        W71032   8.533   5.573  22.789  0.1639 -0.0184  0.0177
96045W        W71033   1.511  16.359  23.762 -0.0051 -0.0261  0.0000
96046W        W71034  20.987  23.382   3.735  0.0972  0.1658 -0.1850
96047W        W71035   1.786   2.416   3.670 -0.2612 -0.0247 -0.0445
96048W        W71036   6.698  35.108  20.035 -0.1746 -0.1021 -0.0907
96049W        W71037  20.012  15.765  17.738  0.1074 -0.0885  0.1576
96050W        W71038  18.874   4.352  22.026 -0.2592  0.2135 -0.1068
96051W        W71039  12.563  30.125  11.892  0.1936 -0.1094  0.0874
96052W        W71040  10.290   4.204  19.686 -0.2117 -0.1585 -0.1191
96053W        W71041   7.056  17.426  25.849 -0.1197  0.0073  0.1770
96054W        W71042  15.025   0.151   7.774 -0.2976 -0.0962  0.0231
96055W        W71043  12.539  12.150  20.903  0.1059  0.0499 -0.0922
96056W        W71044  16.477   2.405   6.946  0.1317 -0.0756  0.0780
96057W        W71045  29.179   0.282   2.374  0.0720 -0.4931  0.3084
96058W        W71046   8.731  10.593  13.410  0.1025 -0.2147  0.0009
96059W        W71047   8.507  17.685  13.599  0.4589 -0.2219 -0.2412
96060W        W71048   5.923  32.999   7.575  0.3123 -0.2289 -0.1544
96061W        W71049  19.311  29.291   4.267 -0.2661 -0.0328 -0.1395
96062W        W71050  14.844   1.531   3.033  0.1349 -0.0932  0.0636
96063W        W71051  22.033   5.132   3.663 -0.0560 -0.3114 -0.1849
96064W        W71052  16.029   3.925  22.876 -0.2355 -0.0377 -0.2066
96065W        W71053  29.491   4.288  17.317 -0.0006 -0.2994  0.0396
96066W        W71054   3.108   1.346  17.029  0.0347 -0.2506  0.1710
96067W        W71055  24.822  31.690   4.136 -0.0846  0.1824 -0.2196
96068W        W71056  14.855  13.457   2.705 -0.0839 -0.0997 -0.0917
96069W        W71057   9.727   9.319  12.170  0.0833 -0.0118  0.0156
96070W        W71058  24.993   3.451  20.682  0.0124  0.2308  0.1136
96071W        W71059  27.898  19.170   6.830  0.2941  0.1427  0.0798
96072W        W71060  12.037   6.475   4.817  0.0393 -0.1800  0.1299
96073W        W71061  11.562  34.154  11.150  0.1429  0.0148  0.1729
96074W        W71062  28.835  14.833  21.413 -0.1807  0.0553 -0.1324
96075W        W71063  30.682  17.358  24.734  0.0642  0.2577 -0.1248
96076W        W71064  17.349  11.947  13.070 -0.0518  0.0073  0.0265
96077W        W71065   9.262   0.436  15.484 -0.1019  0.2792 -0.0494
96078W        W71066   7.923   1.642  10.916  0.0401  0.0866  0.1018
96079W        W71067   4.330  14.108   5.654 -0.1286  0.2367 -0.2969
96080W        W71068  31.592  33.683  12.681 -0.1096  0.1973 -0.0179
96081W        W71069  11.693   7.149  20.372 -0.3335 -0.1585 -0.0261
96082W        W71070  28.487  34.123  11.558 -0.3360 -0.0218  0.0580
96083W        W71071  28.458  19.895  12.915 -0.0511  0.2067 -0.1506
96084W        W71072  14.206  33.845   0.921  0.0255 -0.0559 -0.0130
96085W        W71073  14.662  27.253   2.033 -0.1484 -0.1045  0.1162
96086W        W71074   1.196   5.822  19.463  0.2019  0.3288  0.2972
96087W        W71075  12.458   2.333   2.595 -0.1028  0.1303  0.1226
96088W        W71076  25.276  16.094  23.551 -0.2554 -0.0752  0.1292
96089W        W71077  17.077  13.488   9.283  0.3148 -0.0097 -0.0260
96090W        W71078   7.116  18.736  24.779  0.1212  0.1317  0.0865
96091W        W71079  26.157   5.110  18.400 -0.2648 -0.2231  0.0617
96092W        W71080   6.193  25.118   1.350 -0.0747 -0.0670 -0.2003
96093W        W71081  17.859  34.612   2.869  0.2690 -0.0419  0.1130
96094W        W71082  19.311  25.361  25.055 -0.0908  0.3036 -0.0080
96095W        W71083  15.106   7.843   8.210  0.2706 -0.1564  0.3658
96096W        W71084  28.519   7.738  20.573  0.1674  0.0007 -0.0169
96097W        W71085  10.599  33.785  24.581  0.1356 -0.0719 -0.0211
96098W        W71086  25.186  22.534  11.278 -0.1458 -0.3338 -0.0941
96099W        W71087  12.275  31.573   8.958  0.0372 -0.2600 -0.2249
96100W        W71088  24.479   7.542  15.314  0.1115 -0.0750 -0.0295
96101W        W71089   2.620   4.985   5.259 -0.1243  0.3452  0.3542
96102W        W71090   6.005  33.377  24.974  0.2449 -0.1277  0.1481
96103W        W71091  10.646   2.977   5.445 -0.1701 -0.3853 -0.2592
96104W        W71092  28.115   3.155  20.606  0.1207  0.3323  0.1601
96105W        W71093  31.503  28.866  24.428  0.1327 -0.0909  0.1098
96106W        W71094  21.005   7.278   5.481  0.1348  0.1563  0.0183
96107W        W71095   4.398  21.516  18.532  0.3102  0.1678  0.2401
96108W        W71096  15.053   4.644  19.772  0.0681  0.0653  0.3042
96109W        W71097  33.119   2.585   6.520 -0.4568 -0.3417 -0.1237
96110W        W71098  22.744  26.262  21.661  0.1770  0.1067  0.5250
96111W        W71099   5.080   7.066   7.049 -0.0945  0.0228 -0.0386
96112W        W71100  29.559  19.821  11.741 -0.1997 -0.1022  0.1129
96113W        W71101  18.920  16.428  18.653  0.2085 -0.1556  0.2192
96114W        W71102  17.500  24.219  12.633 -0.3084  0.1718  0.0447
96115W        W71103  33.199  29.804  18.682  0.5649 -0.0716  0.1178
96116W        W71104  33.651  20.209  19.384  0.3638 -0.2406 -0.0484
96117W        W71105   1.881  23.987  18.602  0.1306  0.1238  0.2734
96118W        W71106   1.700   4.263  14.055  0.1077  0.1596  0.0217
96119W        W71107  11.301  23.567   4.960 -0.0976  0.1186  0.4770
96120W        W71108   0.274  17.846  21.971 -0.0803  0.1742  0.2753
96121W        W71109  31.121  28.360  23.040  0.0031  0.2209 -0.0201
96122W        W71110  19.977  14.460  17.118 -0.3646 -0.1179  0.1790
96123W        W71111  12.205  12.283   4.280  0.1960  0.1194 -0.1650
96124W        W71112   9.640  25.672  22.367 -0.0684 -0.0584 -0.1457
96125W        W71113   7.512  31.722   6.779  0.2585 -0.4117 -0.0187
96126W        W71114  26.832   1.480  15.308 -0.0439  0.1579  0.0448
96127W        W71115  12.207  11.155   4.150 -0.0496  0.0719 -0.1553
96128W        W71116  32.291  23.501  23.066 -0.3255  0.1802  0.3258
96129W        W71117  31.569  18.248   9.828  0.1472 -0.0693 -0.4746
96130W        W71118   0.677  18.432  25.225  0.0237  0.1027 -0.2913
96131W        W71119   2.807  18.312  20.747 -0.0940  0.2533  0.0737
96132W        W71120  24.909  29.102  16.320  0.0677  0.1963  0.1664
96133W        W71121   5.389  19.202  18.884 -0.3295  0.0404 -0.2725
96134W        W71122   7.478   4.119  18.593 -0.0348  0.0549  0.2946
96135W        W71123   7.798  13.020  25.541 -0.2393 -0.2182 -0.1397
96136W        W71124  27.116  21.537  21.001 -0.0864 -0.0495  0.2754
96137W        W71125  21.399  21.613   0.896  0.0652 -0.0812  0.2788
96138W        W71126  16.780  23.699   3.003  0.1984 -0.1381  0.0171
96139W        W71127   1.234  31.416  26.206  0.0303  0.1300 -0.1783
96140W        W71128  13.161  27.495  23.924  0.3265  0.0220 -0.2268
96141W        W71129  20.649   1.256   7.906 -0.1323 -0.1317  0.0956
96142W        W71130  35.069  20.464  11.172  0.1352 -0.0674 -0.1294
96143W        W71131  27.992   6.834  15.623 -0.1303 -0.0030 -0.3093
96144W        W71132  29.624  25.983  13.211 -0.1699  0.1056 -0.1197
96145W        W71133  12.246  22.354  24.679 -0.2317  0.3307  0.3251
96146W        W71134  12.001  17.261  13.341  0.2064 -0.3360 -0.1738
96147W        W71135  35.000   0.341  14.304  0.0062  0.0290  0.0934
96148W        W71136  19.099  31.273   4.590  0.1267  0.1607 -0.0699
96149W        W71137   7.439   0.238   8.599  0.0393 -0.0158  0.0307
96150W        W71138   9.835  17.043   2.426  0.1802  0.0714 -0.1868
96151W        W71139  10.777   6.549  20.753 -0.0042 -0.1063 -0.1476
96152W        W71140   7.380  33.737   9.399 -0.1013 -0.3560  0.0920
96153W        W71141   0.148  32.776   6.354  0.1079 -0.0895 -0.0104
96154W        W71142  22.559   6.079  25.504 -0.0833 -0.0282 -0.4066
96155W        W71143  33.533  17.943  10.845 -0.1317 -0.3309  0.0680
96156W        W71144  23.166  10.091  18.516 -0.1026 -0.0223 -0.2021
96157W        W71145   8.438  29.707   1.073 -0.4311 -0.1208  0.3729
96158W        W71146  30.841   1.648  14.379  0.4178 -0.1769  0.1646
96159W        W71147  12.499  35.136  12.362 -0.0411 -0.5096 -0.0713
96160W        W71148  29.210  21.161  15.463 -0.1592 -0.1922  0.1524
96161W        W71149   8.003  16.670  18.512 -0.0109  0.0053  0.1802
96162W        W71150  23.445  33.478   4.246 -0.0323  0.0515  0.0073
96163W        W71151  27.358  23.790   9.500  0.2321  0.0392 -0.1233
96164W        W71152  16.521   9.435   5.228  0.0509 -0.3014  0.2526
96165W        W71153   8.486  13.385   7.516 -0.0155 -0.3813  0.0452
96166W        W71154   8.828  11.426  19.598  0.0732 -0.2706  0.0573
96167W        W71155  24.547  25.916  18.131 -0.1178 -0.0056 -0.0842
96168W        W71156   3.808  18.286   4.257 -0.1490  0.2905  0.1033
96169W        W71157  24.160  30.611  17.898  0.1370  0.0122  0.1677
96170W        W71158  34.220   8.289  18.277 -0.3136 -0.0033  0.0317
96171W        W71159  25.832  30.801  14.458 -0.1425  0.0578 -0.0491
96172W        W71160   3.384  25.316   2.696  0.0394  0.1529  0.1039
96173W        W71161  16.716  12.152  19.740  0.1612 -0.2222  0.0848
96174W        W71162  17.701  20.934   4.462  0.1056 -0.0721 -0.1428
96175W        W71163  29.143  13.272  24.663  0.3089 -0.1229 -0.0734
96176W        W71164  14.910  24.668   8.684 -0.1646  0.1751  0.1717
96177W        W71165  24.041   9.199  17.258 -0.0007 -0.1015 -0.3174
96178W        W71166  10.785   7.131  20.751  0.0488 -0.0325  0.1153
96179W        W71167  29.331  16.634  21.411 -0.1334 -0.0686  0.2153
96180W        W71168  33.696  27.607   2.370 -0.1585  0.0268 -0.0779
96181W        W71169  21.180   4.649  20.933 -0.0129  0.0499 -0.0869
96182W        W71170   0.518  14.733   9.973  0.0228  0.0052 -0.1206
96183W        W71171   6.555  14.228   2.652 -0.0655  0.1116 -0.1187
96184W        W71172   8.618  29.220   1.397 -0.0710  0.0989 -0.1185
96185W        W71173  21.515  27.763  15.930  0.1846 -0.1298  0.0305
96186W        W71174   5.081  17.411  18.915  0.0453  0.1545 -0.0544
96187W        W71175  11.682  33.539  23.099 -0.0771  0.1777  0.2123
96188W        W71176  28.042  32.366  22.829  0.1466 -0.3868 -0.2124
96189W        W71177  33.232   6.868  15.306 -0.2562 -0.1886  0.1171
96190W        W71178   6.265  14.501  21.502  0.1004  0.0284  0.0420
96191W        W71179  33.477  33.783  14.090  0.1829 -0.0020 -0.2904
96192W        W71180  25.629  30.397  25.430  0.1391 -0.0740  0.0266
96193W        W71181   4.560  11.478  18.602  0.1060  0.0548 -0.1482
96194W        W71182  23.862  14.351  13.074  0.1250 -0.2148 -0.1717
96195W        W71183  12.944  19.656  15.069  0.1351  0.1143 -0.1252
96196W        W71184  33.452  13.303  13.381  0.0955 -0.0042 -0.1591
96197W        W71185  34.356  15.129  17.577 -0.3166 -0.0820 -0.1124
96198W        W71186  16.697  19.118  24.078 -0.3171 -0.1311 -0.2313
96199W        W71187  10.134  23.792   3.566 -0.1278  0.4598 -0.0847
96200W        W71188  31.057  13.167  17.242 -0.1269 -0.1652 -0.2256
96201W        W71189  16.461  16.458  24.455 -0.1069 -0.1148 -0.0791
96202W        W71190  33.120  23.244  10.780  0.3099  0.0686  0.1431
96203W        W71191  34.239  23.432  15.261  0.0347 -0.1130  0.0227
96204W        W71192  29.554  33.395  16.354  0.0239 -0.2872  0.0969
96205W        W71193  17.644  18.119   5.501  0.3075  0.0429 -0.3044
96206W        W71194  29.650  26.683  24.773 -0.0395  0.1267  0.5924
96207W        W71195  13.733   9.122   9.414 -0.0479  0.0541  0.1399
96208W        W71196  16.941  11.718  24.181  0.1520  0.1270 -0.2206
96209W        W71197  19.090  25.379  23.589  0.2919  0.0402 -0.3671
96210W        W71198   6.783   4.851  11.511 -0.0531  0.0320  0.0815
96211W        W71199   2.990  29.458  24.872  0.1684  0.1333  0.1089
96212W        W71200  11.799  31.507   6.230 -0.1411  0.2704 -0.1258
96213W        W71201  29.070   2.280  13.129  0.4801  0.0989 -0.0520
96214W        W71202   3.026   1.855   1.289  0.3615  0.2555  0.1969
96215W        W71203   0.470   4.380  21.857  0.0947 -0.1599 -0.0549
96216W        W71204  31.624  11.383   6.556 -0.0966 -0.0762  0.2274
96217W        W71205  24.388  23.083  18.681 -0.1078 -0.0231  0.0455
96218W        W71206  11.178  30.229  10.276  0.0715 -0.3690  0.2674
96219W        W71207  20.949   1.972   1.883  0.1653 -0.0974 -0.0324
96220W        W71208  21.756   4.883  19.440 -0.1646  0.1366  0.2393
96221W        W71209  29.379  22.235  18.315 -0.0246  0.0605  0.0123
96222W        W71210  32.337  17.774  21.124 -0.1968 -0.2268  0.0956
96223W        W71211   2.912   7.114   8.039 -0.1753 -0.1829 -0.1165
96224W        W71212  13.335  16.387  21.059 -0.1404  0.1825  0.2114
96225W        W71213  19.973  27.392   7.770  0.2212  0.1199 -0.1309
96226W        W71214   6.192  16.366   2.338  0.0035 -0.2135 -0.0809
96227W        W71215  33.622  22.085  16.734 -0.0628  0.3634  0.1878
96228W        W71216   3.057  15.536  24.493 -0.0706  0.2619  0.2373
96229W        W71217  19.992   1.020   5.292 -0.0466  0.0691  0.0196
96230W        W71218  10.412  33.134   6.413  0.5171  0.1663  0.0258
96231W        W71219  12.084  28.774  24.193  0.1982  0.2615 -0.0386
96232W        W71220  23.437  18.079   1.673  0.1272  0.3477  0.1053
96233W        W71221  14.817   8.568   0.997  0.0387  0.1710  0.2274
96234W        W71222  28.295  19.431  22.068  0.0745 -0.3254  0.1101
96235W        W71223  25.413   5.127  19.968  0.0696 -0.4922  0.0539
96236W        W71224  32.093  33.137  13.167  0.1481  0.1602 -0.0306
96237W        W71225  28.499   0.204  13.431  0.1200 -0.2868  0.1465
96238W        W71226  27.909   4.388  24.839 -0.4138 -0.1079 -0.1063
96239W        W71227  10.065  17.824  25.267  0.2113 -0.1569 -0.0190
96240W        W71228   6.233  29.930   1.999  0.0592  0.0750  0.0850
96241W        W71229   3.988  32.422   2.941  0.0647  0.7399  0.1130
96242W        W71230  17.370   6.777   4.137  0.0388 -0.0861 -0.2045
96243W        W71231  30.353  19.218   8.042  0.0006 -0.1770  0.0571
96244W        W71232  22.142  29.085   1.877 -0.1923  0.2496  0.3025
96245W        W71233  30.734  30.357   1.740 -0.0316 -0.1521 -0.0740
96246W        W71234  25.941  33.646  11.528  0.0003 -0.1114 -0.0954
96247W        W71235  21.883  22.261   0.380  0.2118 -0.0295  0.1172
96248W        W71236  23.579  23.988   1.391  0.0106  0.0844 -0.2809
96249W        W71237   5.875  28.565   1.931 -0.1841  0.0948  0.0275
96250W        W71238   2.081  10.210   2.888  0.1894  0.0141 -0.2205
96251W        W71239  22.839  28.410  25.415  0.0581 -0.0460 -0.0455
96252W        W71240  16.131   1.229   6.155 -0.0835 -0.0486 -0.1578
96253W        W71241  30.082  23.723   5.938  0.2161  0.0399  0.1037
96254W        W71242  25.997  14.645  19.544 -0.0063  0.1632  0.1988
96255W        W71243  34.013  23.903  18.988 -0.2221 -0.0814  0.0973
96256W        W71244   2.319  32.226   3.683  0.4932 -0.0385  0.1759
96257W        W71245   8.978  35.132  12.579 -0.2538 -0.0229 -0.0975
96258W        W71246  21.723  31.248  17.681 -0.0924 -0.0204 -0.3015
96259W        W71247  31.035  13.895   7.137 -0.0606  0.1780  0.1655
96260W        W71248  11.932  16.196   5.644 -0.4205 -0.0563  0.2387
96261W        W71249   0.516   2.634  18.120  0.3276  0.1478  0.0982
96262W        W71250  13.221  28.232  13.051 -0.3642 -0.0303  0.1935
96263W        W71251   4.298   3.482   9.849  0.3351  0.1071  0.3792
96264W        W71252   2.057   3.285  16.057 -0.2361 -0.2111  0.0647
96265W        W71253  24.709   8.382  17.238 -0.2715 -0.1653 -0.0355
96266W        W71254  16.611  21.581   9.096  0.0850  0.1935 -0.1473
96267W        W71255  18.580  30.458   2.825  0.1801 -0.1676  0.0149
96268W        W71256   7.199  17.257   6.348 -0.0607  0.0705 -0.4436
96269W        W71257  29.066  13.079  16.303  0.3576  0.0616 -0.1223
96270W        W71258   3.731  10.860  25.797  0.0625  0.0884 -0.0586
96271W        W71259  34.314   5.256  16.345  0.3557 -0.1818  0.2274
96272W        W71260  31.107  33.753  22.157 -0.1272  0.6242  0.2305
96273W        W71261  11.989  17.396   1.665  0.0584 -0.0449  0.0037
96274W        W71262  11.243  30.063  22.196 -0.1475  0.0547 -0.1287
96275W        W71263  11.126  16.246  13.071  0.0363  0.1789  0.3286
96276W        W71264  32.961   8.628  23.219  0.0770 -0.1759 -0.1892
96277W        W71265  15.889  17.438  10.884  0.0161 -0.2168 -0.1021
96278W        W71266  21.523  25.256   1.998 -0.2085 -0.0180  0.1626
96279W        W71267  32.800  17.521  24.713  0.1777 -0.2347  0.0062
96280W        W71268  23.205  12.582  23.175 -0.4568  0.1963 -0.2512
96281W        W71269  28.283  18.184  10.652  0.1069  0.3631 -0.1001
96282W        W71270  35.027   5.145  13.652 -0.0409  0.0904 -0.0111
96283W        W71271   5.530   9.155   8.868 -0.2663 -0.3611  0.2065
96284W        W71272  10.100  10.092  24.548  0.0142 -0.1445 -0.2281
96285W        W71273  22.220   4.590   4.323 -0.3100  0.1281  0.2663
96286W        W71274   6.283   0.107   1.806  0.2088  0.3553  0.1607
96287W        W71275  16.907  22.684  21.597 -0.1474 -0.1509 -0.0386
96288W        W71276  22.060  33.112  18.639  0.0534  0.1322 -0.0482
96289W        W71277   0.935   3.703   7.648 -0.0457  0.1266 -0.0117
96290W        W71278   2.413  16.228   1.309  0.3770  0.1331  0.0415
96291W        W71279  30.610  31.741  20.226  0.1682  0.0995  0.0069
96292W        W71280  29.367  22.417  19.296 -0.2381  0.0468 -0.1918
96293W        W71281  33.553  20.246  12.331 -0.1050  0.0369  0.1323
96294W        W71282  10.139   1.898   7.524  0.0001 -0.0616  0.1010
96295W        W71283   6.494  10.741  24.101  0.3167  0.3225  0.1203
96296W        W71284  31.663  12.606   7.425 -0.0769  0.0731 -0.1777
96297W        W71285  13.299   2.105   3.693  0.0564 -0.2463  0.1443
96298W        W71286  32.209  27.958  12.642 -0.1131  0.1865  0.2472
96299W        W71287  29.301   2.554  21.156 -0.3521  0.0849 -0.2137
96300W        W71288  10.496  20.972   6.680  0.0004  0.5522  0.0357
96301W        W71289  18.955   5.441   5.775  0.1253 -0.1632 -0.1105
96302W        W71290  15.334   0.757   7.620  0.2941  0.0635  0.2724
96303W        W71291  25.539  11.369  24.108  0.0005  0.1038  0.1171
96304W        W71292  20.135   7.569   6.574  0.0842 -0.0635  0.0039
96305W        W71293  25.123  18.943  22.376  0.0902 -0.0163  0.0532
96306W        W71294  28.904  10.174  10.208  0.0411 -0.2635 -0.2155
96307W        W71295   0.442  23.890  16.843  0.2008 -0.1062 -0.0555
96308W        W71296  29.140  34.191  23.248 -0.1328 -0.1658  0.0977
96309W        W71297  15.417  14.227  22.608  0.0169  0.0904  0.2080
96310W        W71298  15.529   8.967   5.482  0.2370 -0.0692  0.0222
96311W        W71299   7.829  24.498   4.733  0.1866 -0.0151  0.1257
96312W        W71300  21.630  12.304  21.358  0.0769 -0.0069 -0.0939
96313W        W71301  27.299  15.321   5.761 -0.0737  0.1220 -0.1072
96314W        W71302  28.093  10.569  18.349  0.2831  0.0518  0.2080
96315W        W71303  18.649  20.036  18.006  0.3131 -0.1028 -0.0552
96316W        W71304  27.620   7.857  16.040 -0.3269  0.0483 -0.0109
96317W        W71305  13.799   6.815  21.765  0.0523  0.2296  0.0689
96318W        W71306   6.283  11.091   4.736 -0.2941 -0.0420 -0.1668
96319W        W71307   5.600   5.437  22.719 -0.2933  0.0101  0.0750
96320W        W71308  18.422  26.334   4.902 -0.0795  0.0595 -0.0296
96321W        W71309  18.088   6.519   6.055 -0.0313 -0.1636  0.0149
96322W        W71310   2.857  16.620  23.308  0.5072  0.0914 -0.2097
96323W        W71311  17.852  24.329   7.835 -0.0727  0.2068  0.1180
96324W        W71312  17.427  11.168  11.731 -0.0152  0.1914  0.1937
96325W        W71313  31.231  32.335  25.472  0.2394 -0.2868  0.0297
96326W        W71314   1.841  32.297  25.343  0.2280  0.0360  0.0689
96327W        W71315  26.543  15.280  24.108  0.3248  0.0681  0.0449
96328W        W71316  23.160  11.317  16.279  0.0242 -0.1578  0.1351
96329W        W71317   6.309  27.704  23.073  0.0438  0.0610 -0.1600
96330W        W71318   4.700  33.294  23.530 -0.2622 -0.0332  0.0759
96331W        W71319  32.457  30.658  20.737  0.2356 -0.1978 -0.2311
96332W        W71320  32.443  18.632   7.489 -0.1553  0.1941 -0.0505
96333W        W71321   1.078  13.073  23.917  0.2547  0.0123  0.3638
96334W        W71322  20.658   4.718   4.659  0.0486  0.0648 -0.0982
96335W        W71323  22.638  14.676  23.809 -0.1954  0.4501  0.1026
96336W        W71324   4.530   7.882   8.040 -0.0025 -0.3080 -0.2696
96337W        W71325   7.520  28.304   3.737  0.0900 -0.0538  0.0022
96338W        W71326   1.288  19.206  17.499 -0.2812  0.1715 -0.0473
96339W        W71327  19.925   9.188   7.104 -0.0683  0.1538  0.3778
96340W        W71328   3.745  22.013  26.074  0.2069 -0.0720 -0.0655
96341W        W71329  17.000   0.046  16.505 -0.2230 -0.0095  0.1280
96342W        W71330  29.936  31.159  16.426  0.2693 -0.0953  0.1534
96343W        W71331  34.721  28.150  23.701  0.2314  0.2254 -0.1165
96344W        W71332  16.454  23.715  11.378  0.0371 -0.0355 -0.0386
96345W        W71333   0.330   9.583  12.058  0.1090  0.0172 -0.2243
96346W        W71334   3.621   4.541  19.886  0.2530 -0.0522 -0.2045
96347W        W71335   2.654  11.390   1.658  0.2575  0.1446  0.0904
96348W        W71336  22.978  10.945  14.543  0.1532 -0.1902  0.0229
96349W        W71337   8.763  12.814  19.447  0.0632 -0.2235 -0.2598
96350W        W71338  21.375   7.659  24.507  0.1055 -0.1311 -0.0815
96351W        W71339  31.434   2.978  17.623 -0.0630  0.2199 -0.3334
96352W        W71340   6.922  32.629   8.372 -0.4281  0.3846  0.4230
96353W        W71341  21.671   7.690   9.082  0.2414 -0.2764  0.1590
96354W        W71342  18.427  17.441   1.529  0.0041 -0.1316  0.0085
96355W        W71343  21.030  25.902   5.270  0.1752  0.1563 -0.3049
96356W        W71344  24.745  26.895  17.327  0.0747  0.2751  0.1389
96357W        W71345  22.824   6.352   4.769 -0.1281  0.1439  0.1943
96358W        W71346  25.368   4.710  24.543 -0.3770 -0.3316  0.0518
96359W        W71347   8.598   7.173   8.554  0.0476 -0.0410 -0.0438
96360W        W71348  32.487   3.406  13.331  0.2779 -0.1111 -0.1322
96361W        W71349   6.308  19.377  21.494 -0.0259  0.0287  0.0963
96362W        W71350  14.840  30.295  10.476  0.0593 -0.0872 -0.0943
96363W        W71351   8.880  32.750   7.681  0.0342  0.2777 -0.0099
96364W        W71352  10.873  26.138  11.842  0.0527 -0.0466 -0.2380
96365W        W71353  33.142   0.539   3.117  0.2174  0.0065 -0.2092
96366W        W71354  13.319   0.793  20.140 -0.2584  0.0901  0.0526
96367W        W71355  19.583  21.704   0.836 -0.0560 -0.1237  0.0528
96368W        W71356  19.436  17.299  17.900 -0.1671 -0.4106  0.2198
96369W        W71357  25.057  34.883  16.463  0.2588  0.0918 -0.0563
96370W        W71358  15.986   6.859  12.607 -0.1487  0.0967 -0.0078
96371W        W71359  15.022   5.669  22.726 -0.3387  0.0032  0.1308
96372W        W71360  12.547  10.917   7.034  0.2698 -0.0657  0.0658
96373W        W71361  11.053  29.920   2.671  0.1290  0.2158 -0.1916
96374W        W71362  30.818  12.741  10.783  0.0719  0.1939 -0.2314
96375W        W71363  34.797   2.825   6.745  0.0687  0.2784  0.1571
96376W        W71364   1.898   4.592  23.705 -0.2758  0.0113  0.2382
96377W        W71365   0.338  12.263  11.577 -0.2710  0.0829 -0.2618
96378W        W71366  19.672  32.894   8.249  0.1682  0.1247  0.1045
96379W        W71367  29.813  23.296   5.857 -0.1232 -0.0012 -0.0013
96380W        W71368  30.593  13.642  21.499 -0.1125  0.0652  0.2765
96381W        W71369  31.077  23.911  12.316  0.5172 -0.0622  0.3391
96382W        W71370  33.510   3.159   0.873  0.2778 -0.0243  0.0469
96383W        W71371  15.883   7.844   1.620 -0.1359 -0.0784 -0.0673
96384W        W71372   7.292  12.637   2.212 -0.1027  0.0039  0.1772
96385W        W71373  11.585  15.132  20.380  0.1103  0.2551  0.1583
96386W        W71374  34.848  18.103  11.558 -0.2737  0.0073 -0.2229
96387W        W71375  27.973   0.450  15.007 -0.1804 -0.0416 -0.3275
96388W        W71376  29.125   6.364  23.212  0.2445  0.1994 -0.0633
96389W        W71377  13.081   9.796   9.039 -0.4334 -0.2082 -0.0744
96390W        W71378   3.832  23.518  25.203 -0.0465 -0.2110 -0.2264
96391W        W71379  28.580  29.763  14.753 -0.2309 -0.1174 -0.0421
96392W        W71380  17.071  12.590  22.265 -0.2464 -0.3322  0.0551
96393W        W71381   5.136   4.406   5.524  0.1241 -0.0298  0.0691
96394W        W71382   1.303  21.118  22.655 -0.2394 -0.0034 -0.0278
96395W        W71383  16.326  35.020  25.550  0.1980  0.1050 -0.2510
96396W        W71384   2.108  31.791   6.192  0.1132 -0.1381  0.0788
96397W        W71385  25.512  16.021   8.788  0.0937 -0.0596 -0.2802
96398W        W71386  14.863  28.161  25.405 -0.0168  0.0428 -0.1931
96399W        W71387  26.736  12.260  20.779  0.1034  0.2059 -0.0169
96400W        W71388  12.851   1.241  13.271  0.5285 -0.1363  0.0434
96401W        W71389  18.748  29.296   6.137 -0.1763  0.3180 -0.1976
96402W        W71390  21.657   3.992   5.408  0.0182 -0.0521  0.1356
96403W        W71391  29.206  24.693  11.642 -0.0832  0.0240 -0.0850
96404W        W71392   0.031  29.662   0.637 -0.0780 -0.2244 -0.1393
96405W        W71393   1.439  22.926  21.504  0.0769  0.1786 -0.0701
96406W        W71394   8.880   4.321   7.379 -0.1558  0.2077  0.0422
96407W        W71395  10.940  34.857   1.330 -0.0375 -0.0220  0.3001
96408W        W71396  27.233   8.920  20.160  0.3350 -0.1112 -0.0494
96409W        W71397   2.517  18.305  25.023  0.2463  0.1520  0.2097
96410W        W71398  13.467   0.154  22.454 -0.1131 -0.3057 -0.0801
96411W        W71399  14.621  11.483   5.015  0.0388  0.2130  0.0925
96412W        W71400  18.642  13.618  18.543 -0.3963  0.1451 -0.0953
96413W        W71401   6.717  34.424   3.894 -0.3753  0.0511  0.0235
96414W        W71402   4.563  29.797   1.855  0.1745  0.1922  0.1529
96415W        W71403  33.338  15.810  10.495  0.1991 -0.0209 -0.1567
96416W        W71404  19.062  16.643  20.150 -0.1250  0.0591 -0.1219
96417W        W71405   1.586  34.426   9.437 -0.2631 -0.3010 -0.1183
96418W        W71406   5.557  31.872   9.140  0.0448  0.0964  0.0213
96419W        W71407   7.646  16.580   4.124 -0.1255  0.3763 -0.1613
96420W        W71408  20.234  27.471  21.915  0.1635  0.2629  0.0154
96421W        W71409  28.129   3.744  19.108  0.0919  0.3578  0.3990
96422W        W71410  25.429  21.179  15.863 -0.1739  0.0357  0.2914
96423W        W71411  28.490  32.261  13.730  0.0635 -0.0128  0.1091
96424W        W71412  10.135  19.709  14.867 -0.0583 -0.0420  0.0928
96425W        W71413  17.598   2.896  10.536 -0.4074  0.1486 -0.0351
96426W        W71414  28.190  34.791   2.088  0.2303 -0.1027 -0.2214
96427W        W71415   3.418  15.353   3.618 -0.3381  0.2478 -0.0327
96428W        W71416   5.028  17.712   2.742  0.0685 -0.0383 -0.0264
96429W        W71417  34.620   8.092  19.535  0.2805  0.0242 -0.2008
96430W        W71418  10.392  17.326   5.803 -0.2476  0.2235 -0.0590
96431W        W71419  18.754  18.642  11.466  0.0709 -0.2080 -0.0155
96432W        W71420  19.350  30.887  23.289  0.1879  0.3437 -0.0482
96433W        W71421  15.508  26.677  22.035 -0.0939 -0.2986  0.2084
96434W        W71422  18.564   9.598   8.619  0.4053 -0.2142  0.3078
96435W        W71423  24.965   1.221   2.952  0.1333 -0.0726 -0.2515
96436W        W71424   7.192  27.048  14.608  0.2388 -0.0641  0.0012
96437W        W71425  19.790  17.494   6.188  0.0960  0.1550  0.1053
96438W        W71426  29.928  22.207  17.313 -0.1125 -0.4261  0.2078
96439W        W71427  13.921  14.982  23.019  0.1772 -0.0126  0.2187
96440W        W71428   6.389  28.993  16.067 -0.0663  0.0246 -0.1519
96441W        W71429  35.037  23.158   1.201 -0.1624 -0.2892 -0.3599
96442W        W71430  10.819   0.730   0.506 -0.1976  0.0441 -0.0434
96443W        W71431  29.351   8.261  16.490 -0.0769 -0.3351 -0.2170
96444W        W71432  22.714   9.653  16.115  0.0332  0.1051  0.0931
96445W        W71433  22.600  25.253  20.941  0.2500 -0.1332 -0.0728
96446W        W71434  13.624   0.995  19.189  0.1065 -0.0805 -0.0642
96447W        W71435   6.799  33.618  21.722 -0.1340  0.1533 -0.0238
96448W        W71436   2.019  21.324  14.410 -0.0147 -0.1466 -0.1194
96449W        W71437  10.295  32.332  12.091 -0.1248 -0.0803 -0.0645
96450W        W71438   9.614  35.266  14.529 -0.1090  0.3858 -0.2797
96451W        W71439  19.611   1.422  25.144  0.0069  0.0017  0.1884
96452W        W71440  27.109  24.549  17.263 -0.2305 -0.1349  0.0349
96453W        W71441   6.110  18.627  23.883  0.1607 -0.2303 -0.1398
96454W        W71442   3.525  27.410  21.872 -0.0631  0.0427  0.0250
96455W        W71443  23.032   1.551  25.968  0.2424  0.0818  0.1507
96456W        W71444   5.224  19.590  19.128  0.1207  0.0329 -0.0247
96457W        W71445  15.652  27.800   3.065  0.0452 -0.1527  0.0861
96458W        W71446   1.334  22.840   1.480  0.0175 -0.2673  0.1961
96459W        W71447  19.919  11.787  18.504  0.0907 -0.0695 -0.2020
96460W        W71448  31.958  19.448  20.663  0.1286 -0.1407  0.3016
96461W        W71449   2.340  14.672   4.067 -0.2428  0.3361 -0.0419
96462W        W71450  13.679   3.640   1.377 -0.0664  0.0150 -0.1610
96463W        W71451  18.909   0.214  15.431  0.1500  0.1765 -0.1423
96464W        W71452  19.599   9.261   2.722 -0.0370 -0.2473  0.3109
96465W        W71453  12.673  14.969  11.729 -0.1248 -0.0877 -0.1233
96466W        W71454  15.181   9.265  22.975 -0.4375  0.2353 -0.1332
96467W        W71455  24.494  34.835  16.673  0.1413 -0.2181  0.0716
96468W        W71456  32.379  11.898   9.507  0.1660  0.0288 -0.1999
96469W        W71457   8.189  17.713   0.920  0.0630 -0.0099  0.0044
96470W        W71458  29.483  33.145   3.565 -0.0583 -0.1019  0.2403
96471W        W71459   6.774  28.247  23.214  0.0537  0.0373  0.1774
96472W        W71460  23.807  11.051   2.528 -0.0546  0.1026  0.1557
96473W        W71461  25.978  29.039  10.739 -0.0923 -0.0604 -0.3665
96474W        W71462  22.507   0.597  13.835  0.1364 -0.2930  0.1598
96475W        W71463   7.829  15.498   4.826 -0.3828  0.0931  0.0012
96476W        W71464  33.039   8.122  25.035  0.3885 -0.3626  0.0313
96477W        W71465  15.502   8.969  22.158 -0.6269  0.1412 -0.1520
96478W        W71466  13.761  20.361   1.912 -0.1901  0.0837 -0.0814
96479W        W71467  13.474  17.039   5.718 -0.2002 -0.1925 -0.0373
96480W        W71468   5.532  29.964  11.415 -0.3944  0.1086  0.0604
96481W        W71469  22.953  16.466  13.371  0.1382 -0.2019  0.1216
96482W        W71470  28.638  31.539  22.867  0.1070  0.5237 -0.1437
96483W        W71471  11.471  13.997   4.163  0.3159  0.0513  0.0324
96484W        W71472   7.790   8.788   9.705  0.0996 -0.4306 -0.1431
96485W        W71473  28.926   1.661   1.028 -0.1791 -0.0006  0.1702
96486W        W71474  13.275   3.700   8.766 -0.3080 -0.0241 -0.1785
96487W        W71475  34.484  24.043  12.999  0.1282 -0.1625 -0.2280
96488W        W71476   8.892  26.166  15.007  0.0153  0.1118  0.2372
96489W        W71477  25.439  33.192  17.098  0.1212  0.2134  0.1190
96490W        W71478  30.210   9.721   1.570 -0.0215 -0.3584 -0.0745
96491W        W71479  29.108  18.248  15.634  0.1133  0.0725 -0.0314
96492W        W71480  13.183   6.397   1.373 -0.1769  0.0808  0.1416
96493W        W71481  32.193  13.581   6.121 -0.0966 -0.2518  0.1661
96494W        W71482  13.434  14.738  23.996 -0.3791  0.2996  0.0836
96495W        W71483  27.709  17.885  24.632 -0.2906  0.3417 -0.2886
96496W        W71484  11.423  30.127  15.532 -0.2714  0.1433  0.1427
96497W        W71485   4.751  22.936   4.756  0.2386  0.0523 -0.0396
96498W        W71486   5.665  30.069   4.858  0.1497 -0.1976 -0.1560
96499W        W71487  15.626  10.974  21.265 -0.0875  0.2641 -0.1794
96500W        W71488  16.434  32.361  24.211 -0.0417  0.4660  0.0153
96501W        W71489  22.584  31.629   0.107  0.0696 -0.0164  0.2605
96502W        W71490  16.188   0.143   1.784  0.0194 -0.0080 -0.1727
96503W        W71491  16.077  10.964  23.218 -0.0420 -0.3567  0.2245
96504W        W71492   9.837  34.015  13.255 -0.0022 -0.1672  0.2714
96505W        W71493   5.577  13.904  16.576 -0.0977  0.1088  0.1783
96506W        W71494  10.367   9.095  14.071 -0.1892 -0.0522 -0.0438
96507W        W71495  33.663   5.249  13.350 -0.0740  0.0871  0.0402
96508W        W71496  24.557  10.415  12.692  0.1799 -0.0164 -0.2051
96509W        W71497   9.214   1.450   1.773 -0.1610  0.0308  0.0142
96510W        W71498  17.648  23.204  21.274  0.0832  0.2141 -0.0832
96511W        W71499  30.824  33.174   4.655 -0.1371  0.1153  0.2685
96512W        W71500  31.323   8.051  10.083 -0.2694  0.0058  0.0160
96513W        W71501  18.453  21.358  18.970  0.3819 -0.2839 -0.0588
96514W        W71502   5.586   8.158  25.735  0.1654  0.1984 -0.0680
96515W        W71503  25.771  20.740  12.935 -0.1118 -0.0933 -0.0263
96516W        W71504   7.250   1.241   2.949 -0.0699 -0.0863 -0.0197
96517W        W71505  35.165  10.460  22.555  0.2315  0.2549  0.0703
96518W        W71506  31.864  13.946  17.063  0.1723  0.1059 -0.2824
96519W        W71507   3.982   0.160   4.938  0.3702 -0.1461 -0.1684
96520W        W71508  34.164   0.952   7.581 -0.1587  0.0602  0.1183
96521W        W71509  35.280   0.001  16.103 -0.2593  0.0388 -0.1982
96522W        W71510  21.825   6.344   7.180 -0.2030  0.0486  0.0224
96523W        W71511  26.664  16.701   8.011 -0.2903  0.3364  0.1270
96524W        W71512   2.944  18.208  26.077  0.2344  0.0208 -0.0546
96525W        W71513  25.385   6.984  24.246  0.3797  0.0545  0.0073
96526W        W71514  26.112  12.116  24.275  0.0327 -0.1028  0.1916
96527W        W71515  13.257  34.287  21.325 -0.2326 -0.1925  0.0407
96528W        W71516   3.505  32.617   9.713  0.1905 -0.0294 -0.0051
96529W        W71517  14.299  34.310   0.594 -0.0097 -0.1650  0.1355
96530W        W71518  10.155  26.951  22.295 -0.0550 -0.1020 -0.2208
96531W        W71519  25.228   0.014  26.112 -0.0382 -0.0578 -0.1475
96532W        W71520   2.605  30.868   3.215  0.4819 -0.1304  0.0173
96533W        W71521  16.308  35.300   5.137  0.1318 -0.0961  0.3017
96534W        W71522   5.694  12.497  23.255  0.0352  0.1362  0.0050
96535W        W71523   5.099   2.371  22.660  0.1166  0.1555 -0.0702
96536W        W71524   2.188  22.382  17.972 -0.0275  0.1254  0.0757
96537W        W71525  15.624   7.803  24.232 -0.1729  0.0649 -0.0735
96538W        W71526  17.299  17.800  21.676  0.0073 -0.2486 -0.0252
96539W        W71527  19.381   3.764  21.767  0.1808  0.0450 -0.1838
96540W        W71528   0.017   0.001   7.226 -0.1366 -0.0166 -0.0086
96541W        W71529  12.209  31.631   3.664 -0.0021  0.2386  0.1794
96542W        W71530   2.716  16.205   2.747 -0.0418 -0.1726 -0.1106
96543W        W71531  16.627   4.768   8.953 -0.1210  0.0480 -0.1735
96544W        W71532  13.079  23.984   0.788  0.2864  0.0875  0.2054
96545W        W71533  27.384  24.737  12.317  0.2107 -0.0902  0.0998
96546W        W71534  32.334   7.484  14.267 -0.0741 -0.0301 -0.2494
96547W        W71535  15.047   1.502   2.173 -0.4014  0.0893 -0.1397
96548W        W71536  14.693   6.626  10.447 -0.1118  0.0480 -0.4055
96549W        W71537  31.059   6.217  16.603  0.1550  0.1672  0.0765
96550W        W71538  20.754  34.628   0.223  0.3200 -0.3156  0.0737
96551W        W71539  10.455   8.655   8.083 -0.1130 -0.1824 -0.1495
96552W        W71540  28.498  33.073  16.103  0.1772  0.1614  0.0850
96553W        W71541  24.028   8.680   0.048 -0.3994 -0.2335  0.2977
96554W        W71542   0.592  33.858  20.700  0.1206 -0.0052  0.0460
96555W        W71543  28.543   4.609   2.582  0.1404 -0.2798 -0.0346
96556W        W71544  16.944  10.680   0.975  0.1704 -0.1642  0.1416
96557W        W71545  26.263  32.954  11.439  0.2031 -0.0150 -0.0770
96558W        W71546  24.338  13.412  16.692 -0.1872 -0.1017  0.1748
96559W        W71547  17.433  20.627  11.300  0.0312  0.0753 -0.0528
96560W        W71548  19.166   2.670   9.628 -0.0767  0.2899 -0.1544
96561W        W71549  12.610   1.407   8.108 -0.1293 -0.4002 -0.4048
96562W        W71550  31.402  22.155  21.816 -0.2007  0.1631 -0.0828
96563W        W71551   0.116  28.109  18.177  0.0322  0.0247 -0.2161
96564W        W71552  11.749  25.580  24.168  0.3982 -0.2144  0.0895
96565W        W71553  30.261  20.864  23.412 -0.1508  0.0330 -0.0517
96566W        W71554  28.148  21.813  21.319 -0.0163 -0.1775 -0.0702
96567W        W71555  14.607  14.760   5.597 -0.0957 -0.0552  0.0027
96568W        W71556  27.323   0.050  20.450 -0.2332 -0.0355 -0.1519
96569W        W71557  26.479  25.399  18.500  0.0160 -0.1796 -0.2272
96570W        W71558  25.346  22.325  17.364  0.1497  0.4124  0.1551
96571W        W71559  33.719  31.083   2.793 -0.0453 -0.1635  0.0978
96572W        W71560   3.920   5.697  22.306 -0.2015  0.2550 -0.1349
96573W        W71561  25.870  12.698  22.412 -0.2338  0.1163  0.1088
96574W        W71562  12.412  30.725   6.519 -0.1075 -0.2007  0.0929
96575W        W71563  10.665  18.143  22.063  0.1448  0.0136  0.3003
96576W        W71564  30.081  12.656  14.863 -0.2781 -0.0241  0.1845
96577W        W71565   7.598  30.228   1.835  0.1679  0.1798  0.0558
96578W        W71566  16.388  31.125   4.582  0.0789  0.0666  0.1276
96579W        W71567  25.296   4.654  19.728 -0.0231 -0.1870 -0.1691
96580W        W71568  11.670  33.085   4.563  0.1164 -0.0656  0.4188
96581W        W71569  17.988   7.137  12.865  0.3694  0.0461 -0.0523
96582W        W71570  30.201   7.890  25.921 -0.0642 -0.2033  0.2266
96583W        W71571   9.078   9.524  24.550  0.0485 -0.1525 -0.0179
96584W        W71572  17.898  11.531  19.884  0.3850 -0.0943 -0.0720
96585W        W71573  33.478  15.158   0.625 -0.0487 -0.0532  0.0166
96586W        W71574  27.465  13.951  16.530  0.0285  0.1687 -0.2865
96587W        W71575  18.555  12.232  24.165  0.0597 -0.3232  0.0106
96588W        W71576  32.699  21.705  12.705  0.4508 -0.0534 -0.0883
96589W        W71577  23.647  18.270  20.175 -0.4612  0.2167  0.0862
96590W        W71578   4.681   2.170  19.121 -0.1128 -0.0570 -0.0143
96591W        W71579   3.993   4.193   3.234 -0.0534 -0.1199  0.2437
96592W        W71580  11.661  15.289   4.424  0.1052 -0.3661  0.2550
96593W        W71581  12.324  30.370   1.031  0.2212 -0.0389 -0.1875
96594W        W71582  13.955  19.721  26.092  0.1048  0.0666  0.1256
96595W        W71583  24.112  25.719   0.476 -0.2854  0.1049 -0.3088
96596W        W71584   1.193   5.376   5.111 -0.0279  0.3241 -0.0872
96597W        W71585  25.378  18.706  21.238 -0.4269 -0.0441  0.2848
96598W        W71586  30.186   2.196  24.500  0.2446  0.2153 -0.1708
96599W        W71587   8.157  23.038  13.672 -0.1311  0.2928  0.1140
96600W        W71588  33.489  25.153  24.820 -0.0231  0.3179  0.2051
96601W        W71589   6.386  13.670  25.271  0.0138  0.1689 -0.2199
96602W        W71590  20.383  11.909  17.061 -0.0811 -0.2747 -0.0352
96603W        W71591   6.460  14.681  20.489 -0.2314 -0.0231  0.0564
96604W        W71592   8.791   7.448   0.260  0.2325 -0.0762  0.1249
96605W        W71593  14.918  29.772  25.370 -0.1437  0.1532  0.2292
96606W        W71594   9.104  19.809   1.625  0.2013  0.1013 -0.1054
96607W        W71595   4.948  20.794  24.202 -0.1363  0.6020 -0.2864
96608W        W71596  28.352  25.092  19.052 -0.2432 -0.0492 -0.1198
96609W        W71597  16.531  27.425  22.984  0.0255  0.1846  0.1404
96610W        W71598  23.964  19.356  13.941 -0.2344 -0.2372  0.2754
96611W        W71599  11.782  15.180  19.726  0.3164  0.3399  0.2057
96612W        W71600   5.810   9.619  17.487 -0.1700 -0.2935  0.0729
96613W        W71601  21.352  13.327  21.014 -0.1236 -0.2537  0.0514
96614W        W71602  12.939  25.187   6.140 -0.0274  0.0301 -0.0806
96615W        W71603  24.102  14.965  17.759 -0.1699  0.0612  0.2280
96616W        W71604  33.535  16.857   0.311 -0.1587  0.2668 -0.1860
96617W        W71605  28.967  20.661  11.906 -0.1791 -0.0691  0.2325
96618W        W71606  31.836  22.502  10.989 -0.2448 -0.1479 -0.0277
96619W        W71607  27.815  16.180  11.682  0.0931 -0.3088  0.1507
96620W        W71608   5.482  34.772  22.196  0.0182  0.1189 -0.3003
96621W        W71609   3.306  21.743  17.008 -0.2248  0.2250  0.2126
96622W        W71610  17.196  17.307   1.021  0.0981  0.2052  0.1646
96623W        W71611  21.305   1.761  16.209 -0.0316 -0.0106 -0.0992
96624W        W71612  17.412   6.417   8.886 -0.0468  0.0347 -0.0948
96625W        W71613  33.472  15.952  22.267 -0.0025 -0.1212 -0.0531
96626W        W71614  26.640  19.226  20.281 -0.0957 -0.2378  0.2452
96627W        W71615  32.148   8.141  25.202  0.2009 -0.3660  0.1288
96628W        W71616  18.304  19.102   2.574  0.1132 -0.0565  0.1352
96629W        W71617  24.111  21.923  12.078  0.1057 -0.0253 -0.1817
96630W        W71618   9.039  22.441   4.761 -0.1347  0.0493  0.0031
96631W        W71619  21.445  16.111  22.124 -0.0476  0.0458 -0.1503
96632W        W71620  20.293  16.322   5.841  0.1636 -0.1818 -0.4206
96633W        W71621  21.735   4.853  16.919 -0.1045 -0.3875 -0.1102
96634W        W71622   2.235  16.099  14.765  0.1111 -0.1887  0.0817
96635W        W71623  17.816  23.827  23.942  0.2700  0.0018  0.0083
96636W        W71624  33.717   6.406  16.509  0.1753 -0.3020  0.0312
96637W        W71625  21.643  22.946   0.008  0.1532 -0.5384  0.1533
96638W        W71626  14.344   3.824   8.400  0.1623  0.1070 -0.0705
96639W        W71627  15.890   8.570  20.995  0.0155 -0.2142 -0.1078
96640W        W71628  10.526  10.189  24.758  0.1536  0.0488 -0.0744
96641W        W71629  16.618  32.926   5.936  0.2082 -0.0269  0.1633
96642W        W71630   4.732  28.652   0.571 -0.2220 -0.2779  0.1682
96643W        W71631  26.931   6.658  19.181 -0.0116 -0.3850 -0.1392
96644W        W71632   7.795  10.813   9.736 -0.1490 -0.2693  0.0198
96645W        W71633  12.737  12.900  20.335 -0.1346  0.0895 -0.1454
96646W        W71634  11.337  13.944  12.257 -0.1815 -0.3317  0.2959
96647W        W71635   2.130  17.516   0.034  0.0289 -0.1764  0.1583
96648W        W71636   7.238  18.168   8.465 -0.2054  0.2909  0.2475
96649W        W71637  29.857  33.338  12.661  0.0275 -0.1240 -0.1076
96650W        W71638  26.076  35.314  20.786 -0.1792  0.0632  0.2888
96651W        W71639  10.280  18.740   5.300 -0.2709 -0.0598 -0.1498
96652W        W71640   5.376   6.666   8.803  0.1316 -0.1242 -0.1717
96653W        W71641  34.492  14.182   0.829  0.1110  0.3922  0.1457
96654W        W71642   6.321   0.828   5.063  0.1468 -0.2451 -0.0796
96655W        W71643  33.181  10.555  12.181  0.1448 -0.0671  0.0303
96656W        W71644  26.441   4.076   1.024  0.1166  0.1477  0.0454
96657W        W71645  21.064  34.693  18.281  0.1235 -0.0255  0.1036
96658W        W71646  26.131  34.508   2.065 -0.2336 -0.1343  0.0526
96659W        W71647  21.998  13.883  23.898  0.1624  0.0272  0.1214
96660W        W71648  19.018  22.583   1.871 -0.2034 -0.0125  0.3376
96661W        W71649   8.318  33.244   6.030  0.1265 -0.0265 -0.0674
96662W        W71650  24.770  20.137  17.388  0.2978 -0.0056  0.0837
96663W        W71651   0.658  23.337  16.088 -0.4020 -0.0597  0.0711
96664W        W71652  33.578   7.082  20.553  0.0108  0.0785  0.1378
96665W        W71653  22.204   6.669   0.973 -0.1794  0.2380 -0.1383
96666W        W71654  30.009  30.607  17.329  0.1260 -0.2090  0.0810
96667W        W71655  24.247   4.992  21.857 -0.1006 -0.1950  0.3207
96668W        W71656  11.193  30.580   5.766  0.1894  0.0975  0.2452
96669W        W71657  33.256  25.105  23.877 -0.0371  0.1998  0.3619
96670W        W71658   2.974  22.444   4.595  0.1024  0.2594 -0.3094
96671W        W71659  33.989   4.671  19.304  0.1033 -0.0571  0.0588
96672W        W71660   6.666   9.542   8.740  0.0063  0.0060  0.0521
96673W        W71661  12.743  13.321   2.923  0.3358 -0.0156 -0.0441
96674W        W71662   8.288  24.974   1.375 -0.0773 -0.3688  0.1118
96675W        W71663   7.373  20.241   3.941 -0.1407 -0.0080 -0.1112
96676W        W71664   3.319  31.624  23.104 -0.2216  0.2361 -0.0849
96677W        W71665  14.960   3.423  10.504 -0.1132 -0.0083  0.3149
96678W        W71666  35.205  31.846   4.134  0.2235 -0.1297 -0.1379
96679W        W71667  28.853   0.560  24.801  0.2196 -0.0434 -0.0619
96680W        W71668  24.176  27.727  16.420 -0.1673 -0.1380 -0.0539
96681W        W71669  10.362  19.274  12.468  0.4095 -0.0609  0.2910
96682W        W71670  32.545   4.166  24.308  0.0250  0.0421  0.1581
96683W        W71671  14.345  10.845  10.191 -0.2566  0.1350  0.1392
96684W        W71672  32.195  31.631  21.701 -0.1497 -0.0168 -0.1774
96685W        W71673  20.121  30.688  20.386  0.3838 -0.2364 -0.0620
96686W        W71674  20.990  15.199   2.387 -0.0904 -0.0904  0.1457
96687W        W71675  29.530  16.435  25.529 -0.0253  0.1333 -0.0404
96688W        W71676   0.147  12.409  15.526 -0.1771  0.0275 -0.3928
96689W        W71677  12.132  31.718   4.846  0.1044 -0.1049 -0.1656
96690W        W71678  12.832  35.175  21.224 -0.0585 -0.1529 -0.2101
96691W        W71679  24.189  26.809   1.697 -0.1258 -0.0879  0.4335
96692W        W71680   0.207  27.055  23.585  0.0205 -0.0189 -0.4062
96693W        W71681  12.022   0.198  21.949  0.1539 -0.0751  0.2241
96694W        W71682  11.448  14.609  18.718 -0.2052  0.1915  0.2883
96695W        W71683  21.274   3.897  25.197 -0.0236 -0.2271 -0.3881
96696W        W71684  19.369  13.457  24.455  0.0313 -0.0588 -0.0667
96697W        W71685  31.435  10.667  22.034 -0.0120  0.0256 -0.0521
96698W        W71686  31.122   1.078   5.185 -0.3476  0.1610  0.1643
96699W        W71687  25.360   0.657   2.565 -0.2824  0.0279 -0.0736
96700W        W71688   3.413   3.442   6.854 -0.0895  0.0731  0.0806
96701W        W71689  25.478  25.819   0.594 -0.2439 -0.3417  0.0841
96702W        W71690   5.930  28.961  25.454  0.0642 -0.1979 -0.0379
96703W        W71691  30.036  30.614  18.664  0.0607  0.1293  0.3733
96704W        W71692  16.702  11.469  11.680 -0.2343  0.0561  0.1982
96705W        W71693   7.925  21.019  14.308  0.0090 -0.1563  0.1398
96706W        W71694  19.813  18.896  20.860 -0.1564 -0.1773 -0.0796
96707W        W71695   9.081  11.141   8.770 -0.0969  0.3556  0.0187
96708W        W71696  17.454  19.318   1.600 -0.2838 -0.1732  0.1693
96709W        W71697  23.069   8.202  18.494  0.0423  0.1335 -0.1847
96710W        W71698  16.806   5.353   8.645  0.4831 -0.3394 -0.0528
96711W        W71699  25.836  15.263  18.571 -0.1800 -0.1518  0.2837
96712W        W71700  30.993  24.203  14.303  0.2106 -0.1385 -0.1136
96713W        W71701  28.227   0.566  18.619  0.2730 -0.2034  0.0596
96714W        W71702  27.582  31.855  19.802 -0.1715  0.0790 -0.0674
96715W        W71703  28.893   7.732  21.317 -0.1287  0.0429 -0.0545
96716W        W71704  24.222  11.806  25.195  0.4527  0.1010  0.2089
96717W        W71705  17.125  26.951  11.314 -0.0478 -0.1455  0.2841
96718W        W71706   2.650  30.245   1.136  0.0563  0.3806  0.1208
96719W        W71707  16.821   2.319  26.115  0.1690 -0.0030  0.0661
96720W        W71708  24.459  24.350  18.999 -0.2000 -0.1314 -0.2558
96721W        W71709  14.221  23.208   8.302  0.1860  0.2492  0.0897
96722W        W71710   5.306  15.186  22.896  0.2876  0.0828  0.0178
96723W        W71711   3.016  21.548  19.263  0.1431  0.0745  0.0419
96724W        W71712  19.411   3.137   4.102  0.0326  0.3538 -0.0178
96725W        W71713  21.275   2.089  19.872 -0.1448  0.2447  0.1425
96726W        W71714  20.100  18.722  20.443  0.0626 -0.2425 -0.1239
96727W        W71715  21.850   3.388   7.436  0.0495  0.0569 -0.0169
96728W        W71716  18.017   6.095  10.023  0.2486 -0.2306 -0.0379
96729W        W71717   9.182   8.605  25.454  0.3384  0.0020 -0.1198
96730W        W71718  27.897   8.078   0.815  0.0448  0.0892  0.0260
96731W        W71719  27.450  24.410  19.656 -0.0298 -0.1885 -0.1015
96732W        W71720   8.099   0.830  23.364  0.1990 -0.0063  0.0414
96733W        W71721  15.809  24.542   0.479  0.3480  0.1010  0.1013
96734W        W71722  23.428  22.518  20.536 -0.2719  0.0635  0.0141
96735W        W71723  21.717   0.800   3.355  0.2374 -0.0412  0.0248
96736W        W71724  10.940   5.513  11.969  0.1513 -0.1747  0.0065
96737W        W71725  34.665  20.679   0.176 -0.0511  0.0245 -0.3839
96738W        W71726  16.795  20.290  20.295 -0.0690 -0.1983  0.0396
96739W        W71727  28.918  29.984  21.990 -0.3046 -0.0446 -0.1815
96740W        W71728   6.560   8.688  20.536  0.0370  0.2230  0.0051
96741W        W71729   0.713  21.320   2.109  0.5304 -0.1998  0.0823
96742W        W71730  22.407  13.962  14.063 -0.1645  0.1310 -0.1599
96743W        W71731  10.093  28.049  13.632  0.1937 -0.4197 -0.0805
96744W        W71732  32.631  27.333  12.059 -0.0756  0.0776  0.1605
96745W        W71733  21.907  27.610   0.455  0.0862 -0.0977 -0.0686
96746W        W71734  23.656   6.988   0.410  0.1222  0.2231 -0.0177
96747W        W71735  19.334  23.775   1.439 -0.2621 -0.0974  0.5215
96748W        W71736  11.691  20.985  26.219  0.0173  0.2775  0.0689
96749W        W71737  26.168  29.338  21.274  0.3749  0.0951  0.1016
96750W        W71738  22.060  20.507  17.806 -0.4471 -0.1973 -0.3132
96751W        W71739  14.160   5.185  19.110  0.0864 -0.2304 -0.0769
96752W        W71740   8.859  33.126  15.489 -0.0152  0.2279  0.1164
96753W        W71741   8.136   0.673  22.517  0.1207  0.0033  0.2483
96754W        W71742  20.088  25.504   0.730  0.2794  0.3480 -0.1688
96755W        W71743  28.788  23.247  21.826 -0.0708  0.0394  0.1435
96756W        W71744   0.082  14.175  10.604 -0.0295  0.2897 -0.1536
96757W        W71745  21.954  14.860  18.981 -0.0413  0.0410 -0.0725
96758W        W71746   0.327   4.387   2.069 -0.0022  0.0998 -0.0386
96759W        W71747  14.060  26.442  12.987  0.0913 -0.0270  0.0911
96760W        W71748   5.090  31.491  25.522 -0.0434  0.3042  0.1890
96761W        W71749  18.184   3.062   7.461  0.0196 -0.0658 -0.2118
96762W        W71750  22.390  17.269  20.847 -0.1755  0.1298  0.0893
96763W        W71751   7.155  21.826  10.813 -0.2119 -0.1878 -0.1665
96764W        W71752   4.381   8.469   7.824 -0.0904 -0.1006  0.1018
96765W        W71753  27.394  35.161  13.078  0.0471  0.1507 -0.0473
96766W        W71754  33.130   4.118  17.516  0.2441 -0.3068  0.1730
96767W        W71755  25.871  29.345  23.790 -0.0254 -0.0321  0.0124
96768W        W71756  31.024  22.709  11.672 -0.3236  0.2786  0.2032
96769W        W71757  24.950  30.822  22.315 -0.2571 -0.1892  0.0328
96770W        W71758  11.246  32.802  22.677 -0.2891 -0.3525  0.4160
96771W        W71759  33.263   2.387  23.643 -0.4065 -0.0631  0.0403
96772W        W71760   5.225  33.370  20.186  0.3224  0.2329 -0.1294
96773W        W71761  30.277  24.591  16.902 -0.0825 -0.2691 -0.3970
96774W        W71762  17.580  24.298  23.648 -0.2042 -0.3479  0.4722
96775W        W71763  10.241  10.971  25.607 -0.2522  0.0092  0.2700
96776W        W71764  32.454  23.971  14.041 -0.3265 -0.1082 -0.0025
96777W        W71765   6.880  27.109   7.186 -0.1867  0.0221 -0.1957
96778W        W71766   9.424  31.616  25.922  0.1507  0.0556 -0.0557
96779W        W71767  19.594  11.364   0.834  0.3257  0.1021 -0.1123
96780W        W71768   2.299  22.538  18.983  0.1888 -0.2054 -0.1153
96781W        W71769  15.890   4.963  24.875 -0.1015 -0.1675  0.0823
96782W        W71770  30.425  17.911  23.128 -0.2648  0.0774 -0.1052
96783W        W71771  33.439   8.801  22.725 -0.3594  0.2491 -0.0681
96784W        W71772  20.849  28.584   7.317  0.0650  0.6006  0.0900
96785W        W71773   8.254  18.971   5.165 -0.0365  0.0328 -0.4911
96786W        W71774   1.671  30.637   8.681 -0.0013 -0.0203 -0.1840
96787W        W71775  23.786  10.945  19.586  0.4458 -0.1629  0.0756
96788W        W71776   4.385  13.606   5.661 -0.1263  0.0334 -0.3229
96789W        W71777  20.795  23.288  23.793  0.0481 -0.2673 -0.0296
96790W        W71778  32.278   1.094   6.343  0.0074 -0.2070  0.0723
96791W        W71779  23.025   7.476  15.663 -0.0915  0.0172 -0.1192
96792W        W71780  33.813  35.154  17.231 -0.3497  0.1647  0.1794
96793W        W71781  22.479  18.471  18.154  0.0664  0.3305 -0.0670
96794W        W71782  14.732   6.134  12.026  0.0461  0.1533 -0.3685
96795W        W71783  21.970  19.150  16.992  0.3975  0.2630 -0.0522
96796W        W71784   9.345  17.452  11.173 -0.0792  0.0844 -0.0571
96797W        W71785  30.491  34.134  23.103 -0.0485 -0.0072  0.3829
96798W        W71786   5.894  33.601  22.896 -0.1436  0.2272 -0.1657
96799W        W71787   6.683  12.119  10.962 -0.0189  0.1825 -0.0740
96800W        W71788  19.537   6.328   6.739  0.3141 -0.3618 -0.1080
96801W        W71789  10.683   0.034   2.232  0.0455  0.2868  0.1136
96802W        W71790  26.766  15.693  19.653  0.1173  0.1093  0.3536
96803W        W71791  11.601  24.361   2.901 -0.0193  0.0254 -0.1511
96804W        W71792   5.181   1.503   8.358 -0.0637 -0.2503 -0.1002
96805W        W71793  22.916   9.261  13.917  0.0718 -0.0050 -0.1034
96806W        W71794  25.433   4.346   3.924  0.0295  0.1839 -0.0999
96807W        W71795  12.499  24.955  23.363  0.2437 -0.1372 -0.0353
96808W        W71796  14.412  25.699   8.296  0.1720 -0.0484 -0.0286
96809W        W71797  15.142  11.596   3.860 -0.2191  0.0462 -0.3203
96810W        W71798  23.592   0.004  23.929  0.1011 -0.0326 -0.0833
96811W        W71799  30.154  19.397   7.466  0.0594 -0.1742 -0.2116
96812W        W71800  10.831  35.368   4.389  0.0014  0.1875  0.4214
96813W        W71801  16.510   9.767   1.933  0.0044  0.0328  0.1893
96814W        W71802  15.471  34.466  20.072  0.1393 -0.0335  0.0993
96815W        W71803  13.809  31.174   6.239 -0.0926 -0.1609  0.3266
96816W        W71804   3.780   3.989   4.162  0.1583 -0.0515  0.1558
96817W        W71805   1.082  21.476  19.492  0.4785  0.1771 -0.0938
96818W        W71806   3.229  20.105   1.966 -0.0555  0.3682 -0.0907
96819W        W71807  25.389   8.694  23.904  0.2829 -0.0570 -0.0121
96820W        W71808   9.804   2.397   9.318  0.0268 -0.2812 -0.0810
96821W        W71809   8.399   3.509  23.737 -0.0372  0.0971 -0.2015
96822W        W71810  17.562  23.958   3.794 -0.2934 -0.1903 -0.1417
96823W        W71811  32.445  19.838  14.813  0.0232 -0.3404  0.0451
96824W        W71812  33.479  20.848   0.146 -0.2371 -0.1690  0.0157
96825W        W71813  11.825  21.244   1.681  0.2649 -0.0507 -0.4236
96826W        W71814   8.754   7.592  10.567 -0.0010 -0.0307  0.0182
96827W        W71815   0.955  14.826  22.071 -0.1743  0.2196 -0.2551
96828W        W71816  31.581   6.095  23.923 -0.0783  0.1828  0.1950
96829W        W71817   6.761  31.625   6.324 -0.1441 -0.1523 -0.3223
96830W        W71818  24.995  11.276   0.088 -0.1028  0.2233 -0.1261
96831W        W71819   6.321  20.368   8.740  0.0110 -0.0187 -0.1491
96832W        W71820  15.823   2.712  22.349  0.0485 -0.3390 -0.1857
96833W        W71821  30.124   3.229  21.920  0.0262 -0.0966 -0.2196
96834W        W71822  18.245  31.121   4.172 -0.1431 -0.0548 -0.0639
96835W        W71823  32.869  28.226   2.266 -0.0136 -0.1375  0.0184
96836W        W71824  27.094  14.191   0.578  0.3230 -0.1355 -0.0643
96837W        W71825  28.256   5.865   2.002 -0.0220 -0.2526  0.1430
96838W        W71826  12.833  10.854   3.492  0.2097 -0.2553 -0.1379
96839W        W71827  10.346  32.038  15.720 -0.0747 -0.1943  0.0742
96840W        W71828  25.867  21.321  16.613 -0.0637  0.0553  0.0141
96841W        W71829  11.770   3.394  23.550 -0.1629  0.2930  0.3268
96842W        W71830  20.770  29.729  20.434 -0.1158  0.1235  0.3166
96843W        W71831  28.449  25.903   1.611 -0.0760  0.0395  0.0233
96844W        W71832   6.001   8.455   7.191 -0.1533 -0.0161  0.0234
96845W        W71833  17.352  21.075   0.345 -0.1070  0.0143 -0.0686
96846W        W71834  15.018   3.478  12.395 -0.3868  0.0816 -0.1838
96847W        W71835  31.666  25.353  15.617 -0.0628  0.2190 -0.0514
96848W        W71836  30.949  17.506  19.741 -0.0324  0.1594 -0.4318
96849W        W71837  24.562  14.393  23.893 -0.1491 -0.3300  0.0889
96850W        W71838  13.936  16.498  10.919 -0.1490  0.2636  0.1853
96851W        W71839   6.465   5.083  18.898 -0.2041 -0.1128 -0.1622
96852W        W71840  26.406  32.875  17.324 -0.2298 -0.0599 -0.2613
96853W        W71841  11.403   4.977  11.673 -0.1286 -0.0187  0.4642
96854W        W71842  28.477  14.914  22.968 -0.1948 -0.0715 -0.1182
96855W        W71843  29.584   5.247  12.061 -0.3390  0.1212  0.0061
96856W        W71844   3.063  27.635   4.508 -0.1051  0.2814  0.1377
96857W        W71845  33.820  17.641  13.945 -0.0519  0.2689  0.1263
96858W        W71846  13.746   8.671  13.070  0.1036  0.1929 -0.2343
96859W        W71847   9.660   7.100  19.790  0.0042 -0.0046 -0.0391
96860W        W71848  23.323  20.143  19.630 -0.0528 -0.0518  0.2110
96861W        W71849  21.757  24.359   1.246 -0.0567 -0.0155  0.0957
96862W        W71850  32.450  10.465   0.085 -0.0865 -0.0722  0.1358
96863W        W71851  20.968  17.101  20.683  0.0695 -0.1048  0.1419
96864W        W71852  33.792  18.196  21.725  0.1654  0.0022 -0.0933
96865W        W71853  23.545  16.752  20.697 -0.0215 -0.1309 -0.3255
96866W        W71854  21.712   5.186  23.250 -0.0983  0.2409 -0.3875
96867W        W71855   5.541  11.513  17.156 -0.2047 -0.3981  0.1305
96868W        W71856  32.806  30.180  16.400  0.2703  0.1013 -0.2251
96869W        W71857   6.251  34.761   5.362 -0.0176 -0.3292  0.1029
96870W        W71858   7.455  25.603  20.801 -0.1088  0.0899 -0.0270
96871W        W71859  19.757  34.464  23.889  0.1944  0.0440  0.1282
96872W        W71860  14.743  21.299   8.758 -0.0460 -0.1661  0.0280
96873W        W71861  15.015   0.894   8.296 -0.2338  0.0473  0.0264
96874W        W71862  15.657  18.001   0.400 -0.0701  0.1757 -0.1568
96875W        W71863   8.552  20.314  14.284 -0.3280  0.1175  0.2523
96876W        W71864  34.317  21.317   9.455 -0.0303  0.0605 -0.2882
96877W        W71865  12.037  25.799   6.748  0.0102 -0.2704 -0.2088
96878W        W71866  31.977  13.618  13.771 -0.0389 -0.0604 -0.1208
96879W        W71867  18.348  27.291   1.298  0.1210  0.1431  0.1555
96880W        W71868   3.609   4.605   0.939 -0.1374 -0.2595  0.0461
96881W        W71869  17.737  24.518   9.546  0.0181 -0.1731  0.0253
96882W        W71870  28.520   6.077  16.826 -0.0455  0.1186  0.1864
96883W        W71871   1.844   2.408   7.809  0.0994 -0.0315  0.2255
96884W        W71872  26.966  28.820  11.293 -0.2948 -0.3950 -0.0653
96885W        W71873   2.920   9.369   5.009  0.3248  0.5131  0.1650
96886W        W71874  33.631  26.738   0.536 -0.2496  0.1292 -0.1064
96887W        W71875  10.836  20.132   6.156  0.1078  0.1485  0.2574
96888W        W71876  16.834  10.508  11.490  0.3639  0.2491 -0.1886
96889W        W71877  31.937  34.951  18.964 -0.0013 -0.1613  0.0839
96890W        W71878  15.903  11.730   9.335 -0.1178  0.0192 -0.0569
96891W        W71879  14.731   8.065  26.167 -0.2095 -0.1803  0.2899
96892W        W71880   2.865   6.403  22.392 -0.3658  0.2258 -0.1968
96893W        W71881  32.777   2.634  14.537  0.2567  0.1161  0.1151
96894W        W71882  22.495   4.052  17.332 -0.3057 -0.0416 -0.3456
96895W        W71883  23.265  10.611  18.686  0.0757 -0.3327 -0.2721
96896W        W71884  27.548  10.604  24.323 -0.0422 -0.2554 -0.1078
96897W        W71885  13.807  17.073   9.803  0.2615 -0.2636  0.0596
96898W        W71886  27.827  17.286  12.160 -0.0732 -0.0128 -0.0789
96899W        W71887  34.769   2.667  25.583 -0.2936 -0.0998 -0.0035
96900W        W71888   4.509  22.622  21.286 -0.2720 -0.0190 -0.1940
96901W        W71889  15.688   2.589   2.335  0.2000 -0.1557 -0.0216
96902W        W71890  27.648   4.330  22.385 -0.2095 -0.1674  0.2741
96903W        W71891  26.404   4.158  18.337 -0.1475  0.0437 -0.3917
96904W        W71892  22.292  35.007  21.238 -0.1584  0.1783  0.0165
96905W        W71893  33.828  34.037  17.606 -0.0513 -0.1462  0.0000
96906W        W71894  31.817  10.729  19.880 -0.1409 -0.0750 -0.0273
96907W        W71895  28.043  12.516   8.665  0.2500 -0.1497 -0.0999
96908W        W71896   0.931  17.131  24.228  0.2054  0.0561 -0.2998
96909W        W71897   8.786  16.804  23.733 -0.1290  0.1575  0.2270
96910W        W71898  21.985   7.653  17.794  0.2197  0.0757 -0.2017
96911W        W71899  25.547  31.780   1.695 -0.0484  0.1752 -0.1878
96912W        W71900  10.267  34.973  24.411 -0.2217 -0.1770 -0.1127
96913W        W71901  11.258  35.341   7.858  0.0907 -0.2328  0.0311
96914W        W71902  16.694  10.879   6.460 -0.2161 -0.0831 -0.2236
96915W        W71903  22.183  13.704  19.404 -0.0701 -0.1657  0.2457
96916W        W71904  31.556   0.458  18.417 -0.0469 -0.3088  0.1102
96917W        W71905  23.448  16.951  16.368  0.2363 -0.0136  0.0502
96918W        W71906   2.138  15.321   2.013  0.0167  0.0532  0.2024
96919W        W71907  31.994   8.644  25.407  0.0121  0.2746  0.0128
96920W        W71908   6.408  31.654   2.394 -0.1550 -0.0647  0.3225
96921W        W71909  22.626   1.040  25.311 -0.2621 -0.0279  0.2054
96922W        W71910   5.853  20.064  19.590  0.0643 -0.0444  0.2261
96923W        W71911   5.181  16.276   4.625 -0.0426  0.3209 -0.1811
96924W        W71912  13.890   8.751   1.272 -0.1831 -0.2691  0.1269
96925W        W71913  28.662   9.136   9.413 -0.0992  0.1305  0.1662
96926W        W71914  29.470  28.685  12.380  0.7150 -0.1783 -0.2080
96927W        W71915  14.601  11.850  11.504 -0.3725  0.3038  0.1393
96928W        W71916  14.032  10.677  11.667 -0.0418 -0.0886 -0.0487
96929W        W71917  22.514   2.127  23.597 -0.1007  0.3683 -0.0014
96930W        W71918  16.960  11.254   5.822 -0.1369 -0.2538  0.1762
96931W        W71919  28.725  28.056  16.518 -0.1613 -0.0155  0.2022
96932W        W71920  11.194  28.795  11.617  0.0597 -0.3030  0.1400
96933W        W71921  26.690   4.767   1.693  0.0043  0.0396 -0.3769
96934W        W71922  35.287   3.584  15.909 -0.2443  0.1532  0.0745
96935W        W71923  33.637  12.444  22.797 -0.0159 -0.0914  0.0653
96936W        W71924  10.570  28.544   3.141  0.2156 -0.1432  0.1501
96937W        W71925  12.582  24.547   1.286  0.3255  0.1482  0.0267
96938W        W71926  21.464  10.170   1.612  0.0561 -0.2202  0.1037
96939W        W71927  14.528   2.783  22.695  0.1390  0.2114  0.3021
96940W        W71928   6.127  26.701   0.851  0.0806 -0.0413  0.0709
96941W        W71929  17.240  19.262   2.751 -0.0608  0.0072 -0.3539
96942W        W71930  20.458   3.286  20.916 -0.0554  0.3932  0.0356
96943W        W71931  30.817  14.312  16.359 -0.0698 -0.0273 -0.2068
96944W        W71932  34.259   7.592  22.441 -0.1116  0.2015  0.1303
96945W        W71933  14.240  25.548  25.761 -0.0562 -0.3183  0.0706
96946W        W71934  24.719  24.545  21.346  0.1281  0.0228 -0.0550
96947W        W71935   6.446  18.971   6.083  0.1353  0.0353  0.2461
96948W        W71936  25.540  21.252  22.092 -0.3786  0.0458 -0.0459
96949W        W71937  11.960  27.479  11.744  0.0495 -0.0256  0.3568
96950W        W71938  34.842  35.305  15.824 -0.0187  0.0146 -0.1984
96951W        W71939  26.564  34.010  13.232  0.0980  0.1484 -0.3097
96952W        W71940  12.785  16.803  24.948  0.0772  0.2410 -0.1859
96953W        W71941  15.027  21.556   1.077  0.0151 -0.1062 -0.1684
96954W        W71942  12.889  12.679   6.764 -0.0702  0.1430 -0.1429
96955W        W71943  30.287  13.498  17.849 -0.1757 -0.1940 -0.1118
96956W        W71944  14.254   6.641  11.284  0.0382 -0.1307  0.3206
96957W        W71945  11.175  20.448   2.147  0.0891  0.1974  0.4455
96958W        W71946  19.300   5.501  22.552  0.1724 -0.1508 -0.0933
96959W        W71947  11.558   6.637   8.024 -0.1883 -0.1549  0.1906
96960W        W71948  16.779  19.103  12.860 -0.2273 -0.0396 -0.0142
96961W        W71949   9.237  16.142   4.931  0.1498  0.0550  0.0696
96962W        W71950   5.364  22.914  23.850 -0.1611 -0.2201  0.1525
96963W        W71951  22.853  12.108   2.990  0.3066 -0.2126 -0.2670
96964W        W71952  34.679   0.114  17.379 -0.0401  0.0052  0.0362
96965W        W71953   6.284  16.162  21.619  0.0086  0.0473 -0.2081
96966W        W71954   1.133  29.969   5.058 -0.2483  0.1243  0.2835
96967W        W71955   6.361  21.840  19.610  0.0407 -0.3215 -0.1468
96968W        W71956  12.234   4.889  20.338  0.0584  0.2333 -0.1591
96969W        W71957  30.817  25.525  16.656 -0.0501 -0.1093  0.0768
96970W        W71958   1.156  13.307  26.083 -0.2090  0.0430 -0.4669
96971W        W71959  34.540  22.758  14.633  0.0317  0.0628 -0.1401
96972W        W71960   3.947   9.079  19.841 -0.0248 -0.1060  0.0180
96973W        W71961  28.147  34.161  20.684 -0.1230  0.1227 -0.0339
96974W        W71962  34.511   5.199   4.518 -0.3210 -0.1725  0.1062
96975W        W71963   3.840   2.397   5.792 -0.2576  0.1253  0.1305
96976W        W71964  29.838  15.347  26.187 -0.0004 -0.2124 -0.0343
96977W        W71965  31.063  26.011  11.878 -0.0029 -0.2664 -0.2644
96978W        W71966  12.869   2.006   2.803  0.3815  0.2089 -0.1466
96979W        W71967   7.029  30.621   9.308  0.0861  0.0570  0.2668
96980W        W71968   2.676   7.160   1.239 -0.1729 -0.1111 -0.0365
96981W        W71969  17.711   7.678  22.603 -0.3151  0.4108  0.2498
96982W        W71970  17.907  23.701   5.334 -0.1703  0.1156  0.1502
96983W        W71971  31.574  20.430  15.717 -0.0187  0.0877  0.0392
96984W        W71972  29.221  32.884  22.353 -0.0518  0.1020 -0.1039
96985W        W71973  20.107  33.590   5.549  0.2336  0.2183  0.1209
96986W        W71974   0.999  24.918  24.549 -0.0867  0.0940  0.0111
96987W        W71975   7.159  10.544   0.147  0.0201  0.2024  0.0652
96988W        W71976  17.017  23.258  14.187  0.3710 -0.0843  0.0117
96989W        W71977   0.990  19.073  15.369 -0.0131 -0.1285  0.0508
96990W        W71978  27.402  12.100  22.250  0.0487 -0.0942 -0.1702
96991W        W71979  23.194   0.354   2.391  0.2512  0.0139 -0.1225
96992W        W71980  28.733  26.314  10.396  0.0625 -0.1496  0.0288
96993W        W71981  10.021   4.498  21.468  0.0199 -0.1012 -0.0620
96994W        W71982  19.651  30.654   5.370  0.1625 -0.1402 -0.1283
96995W        W71983  10.778  29.203  23.899 -0.1919  0.0091 -0.0921
96996W        W71984  22.319  28.869  16.632 -0.4005  0.1836 -0.0501
96997W        W71985  24.625  11.898  15.308 -0.0555  0.0912 -0.2336
96998W        W71986   4.548   4.842   9.528 -0.3905 -0.0925 -0.0480
96999W        W71987  27.914  34.778   2.651 -0.4522 -0.2967 -0.0379
97000W        W71988  24.804  22.085  10.772  0.0339  0.0504 -0.1258
97001W        W71989  31.474   0.190  13.712 -0.0958 -0.0556 -0.2001
97002W        W71990  24.722  31.066  25.012  0.2447 -0.1156  0.1545
97003W        W71991   9.607  29.523  12.653 -0.1590  0.2697 -0.2397
97004W        W71992   3.656  15.384  18.175  0.2076 -0.0675 -0.0010
97005W        W71993  31.469  14.513   0.331 -0.1567  0.3060  0.0433
97006W        W71994  33.950   1.715   2.814 -0.0070  0.5484  0.1865
97007W        W71995  33.755  12.308  11.370 -0.2579 -0.0746 -0.0219
97008W        W71996  21.511  13.993  15.540 -0.3043 -0.0522  0.0438
97009W        W71997  11.801  21.355   5.604  0.1105 -0.0012  0.0741
97010W        W71998  32.135  15.948   9.454  0.1190  0.1631  0.1217
97011W        W71999   1.609  30.145  21.956 -0.0901  0.0162  0.2123
97012W        W72000  13.727  10.808   5.901 -0.3095 -0.0851  0.1717
97013W        W72001  10.567  19.749   6.326 -0.0731  0.0123  0.1195
97014W        W72002  27.441  14.307  10.652 -0.1828 -0.1159 -0.1581
97015W        W72003  29.742  26.207  16.501 -0.0689 -0.3234 -0.0196
97016W        W72004  29.687  20.521  12.763 -0.1506 -0.2775 -0.4954
97017W        W72005  30.795  17.562  22.067 -0.1645  0.0287  0.3285
97018W        W72006  19.217  12.011  10.504  0.1831  0.0960 -0.2485
97019W        W72007   9.146  10.299  20.282 -0.2274  0.0206  0.0916
97020W        W72008   6.090   3.184   3.707  0.2205  0.0143  0.0298
97021W        W72009  25.750  27.935   0.516 -0.0652  0.2193  0.0584
97022W        W72010  32.122  29.983   3.473  0.1883  0.1084  0.1394
97023W        W72011  14.603  16.550   6.750 -0.0046  0.1627 -0.5635
97024W        W72012  29.737  13.724  26.173 -0.0563  0.0960  0.1860
97025W        W72013  35.334  12.723  20.800 -0.2952  0.1364 -0.0428
97026W        W72014  26.046   6.573  16.546  0.0381  0.1264 -0.0465
97027W        W72015   8.843  19.385  23.357  0.2177  0.0279 -0.1671
97028W        W72016  29.253  31.911  25.124  0.1378  0.1310 -0.1229
97029W        W72017  22.200   1.872   1.979 -0.0307  0.2050  0.1356
97030W        W72018   1.242  28.111  21.818  0.2161 -0.1143 -0.1004
97031W        W72019  13.905  22.951   2.614 -0.0340  0.2342 -0.1167
97032W        W72020  15.804   4.310   8.917  0.1253  0.0518 -0.0349
97033W        W72021  30.328  28.573  13.477 -0.2342  0.0919  0.0300
97034W        W72022  24.285  11.752  16.368 -0.2706  0.0897  0.0969
97035W        W72023   0.650  26.493  15.717  0.1193  0.2011 -0.3020
97036W        W72024   8.562  17.362  11.200 -0.1801  0.0921  0.2516
97037W        W72025   1.671  22.181   3.145 -0.2610 -0.0970  0.3058
97038W        W72026  18.683   2.454  24.200 -0.0588  0.1803  0.1383
97039W        W72027  15.873  29.654  21.469 -0.1770  0.0346 -0.2906
97040W        W72028  16.994  10.364  11.054  0.2422 -0.1142  0.1171
97041W        W72029  31.538  24.239  18.151 -0.1742  0.0374 -0.1657
97042W        W72030  27.332   5.253  11.933  0.1444 -0.0694 -0.0082
97043W        W72031  10.963  24.929   8.612  0.3755 -0.1453 -0.2972
97044W        W72032  14.491  19.115  12.672  0.0481 -0.1997 -0.0314
97045W        W72033  11.009  27.782  13.264  0.1830 -0.0086 -0.1163
97046W        W72034   2.286   9.075  21.962  0.1383  0.1219 -0.1077
97047W        W72035  10.654  25.503  15.446  0.5939 -0.1187  0.2065
97048W        W72036   1.808   6.023  14.184 -0.1351 -0.0940 -0.2296
97049W        W72037  33.083  12.796  17.344 -0.2054  0.0138  0.0188
97050W        W72038  24.515   4.720   2.393  0.1043 -0.2088  0.1693
97051W        W72039   0.879  20.034  15.073  0.0931 -0.2090 -0.0105
97052W        W72040  19.280  31.796  16.544 -0.2109  0.3209 -0.1204
97053W        W72041  32.759  33.152  14.132 -0.1726  0.1552  0.0481
97054W        W72042  30.560  11.084   9.342 -0.3965  0.0848 -0.2605
97055W        W72043  17.264  31.270   4.680 -0.2219  0.0039 -0.2200
97056W        W72044   3.995  18.269   1.871  0.1529 -0.0118 -0.2665
97057W        W72045  29.351  22.308   7.063  0.1182 -0.0892 -0.5782
97058W        W72046  33.972  32.257  23.316 -0.1654 -0.4125 -0.0953
97059W        W72047   4.603   7.532  23.764 -0.0008 -0.2996  0.0913
97060W        W72048   6.442  29.853  22.195 -0.1786  0.0172 -0.0014
97061W        W72049  13.309  22.832  15.813  0.0817  0.1629  0.1849
97062W        W72050  31.723  15.773  22.614  0.1032 -0.3008 -0.2730
97063W        W72051  20.438  11.201  23.606 -0.2435 -0.3884 -0.3309
97064W        W72052  33.222  27.573  16.370  0.0953 -0.0789  0.0003
97065W        W72053   5.657  12.225   6.327 -0.3647  0.2419  0.1550
97066W        W72054  14.803  24.502   0.795 -0.5792 -0.0712 -0.0153
97067W        W72055  24.898  27.850  21.819  0.0112  0.2822  0.1371
97068W        W72056   7.044  27.385  23.446 -0.0783 -0.1652  0.0383
97069W        W72057  33.395  24.058  18.354 -0.0417 -0.3156  0.0612
97070W        W72058  21.317  29.081  15.256 -0.1663  0.0110  0.2540
97071W        W72059   9.717  14.998  22.074 -0.2419 -0.0563 -0.0153
97072W        W72060  27.728  19.350  12.894 -0.0061  0.0681  0.2348
97073W        W72061   3.795  31.261   3.413 -0.0082 -0.1280 -0.0454
97074W        W72062  34.141  15.878  16.769 -0.1749 -0.5040 -0.0022
97075W        W72063  14.800  18.117  14.055 -0.1056  0.0470 -0.0079
97076W        W72064  30.823   0.043   0.754  0.0254 -0.0461 -0.2333
97077W        W72065  34.441  30.546   3.037 -0.2205  0.3051 -0.0583
97078W        W72066  27.543  24.746  12.936 -0.0675  0.0656 -0.0929
97079W        W72067  23.164  34.211  24.547 -0.2297  0.1324  0.0973
97080W        W72068  28.548  17.204  25.070  0.1903  0.2576 -0.0767
97081W        W72069  18.370  32.172  22.295  0.2058 -0.1757  0.2088
97082W        W72070  32.108  14.563  14.058  0.2256  0.0016 -0.2283
97083W        W72071  14.785  14.405  23.690 -0.0046 -0.0284 -0.0326
97084W        W72072   7.554  33.520   0.621 -0.0473  0.2242  0.0115
97085W        W72073   9.235  10.017  25.702  0.2592 -0.0165  0.3796
97086W        W72074  31.123  29.360  20.834 -0.1642  0.1156  0.3659
97087W        W72075   0.191  25.124   3.302  0.0450  0.0061  0.1965
97088W        W72076  15.965  20.563  24.183  0.2118  0.0546 -0.0912
97089W        W72077   8.703  32.542   7.224  0.0033  0.0205 -0.1549
97090W        W72078   0.518   3.902   0.684  0.1170 -0.0225  0.2430
97091W        W72079   0.992   9.874  22.747 -0.1490  0.0781  0.0849
97092W        W72080  33.973   1.842   6.338  0.0242 -0.2353 -0.1198
97093W        W72081   0.417  13.556  21.345  0.0056  0.1279  0.3056
97094W        W72082   4.037  22.010   5.160 -0.0030  0.0627 -0.1115
97095W        W72083  21.570  30.840  12.664  0.0800  0.0938  0.0854
97096W        W72084  18.979  17.762  25.509  0.0302 -0.2807 -0.1935
97097W        W72085   6.400   3.763  19.249 -0.2028  0.1130  0.1061
97098W        W72086  17.341  25.653   3.840 -0.0196 -0.2582 -0.2742
97099W        W72087   6.740   9.381   6.520  0.1972 -0.5791  0.0896
97100W        W72088  12.160  29.587   8.959  0.2548 -0.1655 -0.0601
97101W        W72089  21.607  28.382  18.494 -0.1805  0.0536  0.3268
97102W        W72090   7.500   5.744  23.575 -0.1833  0.3014  0.3560
97103W        W72091  11.635  30.949   4.066 -0.1432 -0.1156 -0.5074
97104W        W72092  10.746  10.139  10.966 -0.0245  0.0702 -0.1530
97105W        W72093  15.616  13.956  25.977  0.2591 -0.2028 -0.1586
97106W        W72094   9.644  28.277   3.433 -0.0232  0.0061  0.0296
97107W        W72095  26.353  35.133  11.129 -0.0885  0.2470  0.1066
97108W        W72096  32.492  31.870  22.115 -0.0406 -0.1364  0.0742
97109W        W72097  23.207  20.720  15.877  0.1298  0.1732 -0.0874
97110W        W72098  22.132   1.382  12.827  0.1209 -0.2052  0.0866
97111W        W72099  27.939   6.353  15.498 -0.1537  0.1623 -0.2434
97112W        W72100  16.936  14.457  12.931 -0.1927  0.5504 -0.2741
97113W        W72101  18.365   6.292  18.606  0.2268 -0.1884 -0.0846
97114W        W72102  11.726  18.122   9.106 -0.0269 -0.2291  0.3228
97115W        W72103  16.886   5.890  21.250  0.4165  0.1124 -0.2402
97116W        W72104  24.303  20.677   0.243  0.3727  0.0777 -0.2414
97117W        W72105  12.067   0.821  13.574 -0.2889 -0.1756  0.1260
97118W        W72106  11.119   4.619  21.891 -0.3170 -0.1084  0.1419
97119W        W72107  24.263  26.975  19.187  0.1078  0.2291 -0.1251
97120W        W72108   0.213  29.413  23.525  0.3082 -0.0904  0.0892
97121W        W72109   9.693   6.281  11.480  0.0566  0.1191 -0.2994
97122W        W72110  15.618   5.041  25.626  0.0520 -0.1831 -0.1381
97123W        W72111  10.731   7.378   8.895 -0.2701  0.0576  0.0935
97124W        W72112  30.952  23.023  16.952 -0.2170 -0.0897  0.2736
97125W        W72113  20.311  34.222  22.376  0.1544 -0.0501 -0.0574
97126W        W72114  17.117   0.561  23.958 -0.1816 -0.2558 -0.2017
97127W        W72115  10.821  30.783   6.830 -0.1384  0.0657 -0.1495
97128W        W72116  18.607   2.570   3.681  0.1828  0.1683  0.0347
97129W        W72117  15.967  14.106   3.604 -0.3077  0.2384  0.0021
97130W        W72118  17.404  14.485   2.189 -0.0642 -0.2218  0.5128
97131W        W72119  11.195  31.757  26.048 -0.1508  0.1245 -0.1409
97132W        W72120  10.079  14.304   3.166 -0.0679 -0.0067 -0.3436
97133W        W72121  24.140  30.476   5.044 -0.0187 -0.0487  0.0229
97134W        W72122   1.060  21.562  24.646  0.0069 -0.0157  0.3668
97135W        W72123  26.104   6.210  15.176  0.0655  0.0302  0.4991
97136W        W72124   8.436  28.880  10.125  0.0323  0.1681  0.4043
97137W        W72125  16.393   9.490  12.168 -0.1038  0.1616  0.2540
97138W        W72126  31.572  14.987  18.368 -0.0164  0.1878 -0.0369
97139W        W72127  34.806  11.544  25.341  0.4169  0.1007  0.0626
97140W        W72128   8.201   0.616   4.069  0.2108 -0.0790  0.3505
97141W        W72129  11.353  25.119  14.295 -0.0575 -0.1390 -0.1453
97142W        W72130  12.484   5.157   1.267 -0.0556  0.1480  0.2316
97143W        W72131  13.815  10.438  19.405  0.1167  0.2158  0.0084
97144W        W72132  30.337  10.587  10.021 -0.1034  0.0644 -0.3911
97145W        W72133  34.189  31.366  15.976  0.2983  0.0705  0.0125
97146W        W72134  12.526  14.372  20.839  0.0377  0.2887 -0.0846
97147W        W72135   5.704  18.795   8.352 -0.0907 -0.0002 -0.0400
97148W        W72136   0.146  17.607  16.209  0.1940  0.1238  0.0172
97149W        W72137  27.211  35.034   2.052 -0.0109  0.0004 -0.0373
97150W        W72138  20.038  30.340   4.237  0.1867  0.3371 -0.0522
97151W        W72139   6.671  16.706  24.109 -0.1057 -0.1116  0.2365
97152W        W72140  29.120  33.936  14.787  0.0366 -0.0014  0.0742
97153W        W72141   0.533  23.863  23.747  0.3981 -0.3557  0.0493
97154W        W72142  28.770  22.282  19.187 -0.0722 -0.1475  0.2319
97155W        W72143  27.892  24.951  24.344  0.0620  0.0779  0.0946
97156W        W72144  28.121   8.966  20.315 -0.0459 -0.0252 -0.1694
97157W        W72145  17.386  35.187   7.399 -0.0797  0.1408  0.2603
97158W        W72146  11.424  29.276   0.103  0.2771 -0.2832  0.1579
97159W        W72147  26.837  34.357   5.976  0.1431  0.2732  0.2039
97160W        W72148  19.177  19.625   8.749  0.2545  0.0246  0.2897
97161W        W72149  12.957   9.837  10.479 -0.1576  0.1530  0.0865
97162W        W72150   9.071   1.526   2.743  0.1085 -0.2105 -0.2246
97163W        W72151   4.983   9.790  18.382  0.2752 -0.1810  0.0204
97164W        W72152   2.380   9.964  25.027 -0.1244 -0.1168  0.0252
97165W        W72153  28.081  27.179  16.844 -0.1450  0.0131 -0.0333
97166W        W72154  22.376  26.386  22.466 -0.0864  0.2422 -0.2438
97167W        W72155   0.027  11.175  14.097  0.1066  0.0534 -0.1046
97168W        W72156  23.416  25.042  18.937  0.1834 -0.0434  0.0188
97169W        W72157  19.327  20.847   2.039  0.0779 -0.1757 -0.2214
97170W        W72158  20.944   2.980  20.924  0.0414  0.1177  0.1062
97171W        W72159  30.420  10.148  17.746  0.1521 -0.2656 -0.1508
97172W        W72160  14.552  23.695  16.410 -0.1114  0.0753 -0.0764
97173W        W72161  16.828   5.974  10.486 -0.0116 -0.3461  0.2030
97174W        W72162  20.040  21.802  20.045  0.1824  0.3374 -0.0162
97175W        W72163  14.552  24.550  22.066  0.1962  0.3579  0.1308
97176W        W72164  32.305  21.858   9.334 -0.1445 -0.2703  0.1846
97177W        W72165   6.988  28.729  13.650 -0.0240  0.0403  0.0719
97178W        W72166  12.442   0.488   6.694  0.0150  0.2032 -0.0745
97179W        W72167  13.020  25.273  11.359  0.1776 -0.4103 -0.3646
97180W        W72168  10.941  30.812  13.004 -0.1321  0.0701  0.2712
97181W        W72169   0.156  19.116  12.629  0.0842  0.0945  0.0567
97182W        W72170   3.930   8.763   5.969  0.0733  0.3191  0.5014
97183W        W72171   5.410  28.466   3.442  0.0644  0.0634  0.3609
97184W        W72172  30.313  23.811  15.150  0.1035 -0.3402  0.4421
97185W        W72173  13.679   9.664   2.042  0.2293  0.1054  0.0475
97186W        W72174   9.901   8.463   5.124 -0.1551  0.0660  0.2680
97187W        W72175   7.535   8.737  21.126  0.0902 -0.1007 -0.3096
97188W        W72176   4.986   9.824  19.910  0.0554  0.0136 -0.2398
97189W        W72177  29.677   0.689  11.899 -0.1321 -0.1207  0.0851
97190W        W72178  16.661  18.729   2.865 -0.0464 -0.2644 -0.4432
97191W        W72179   0.203  22.778  15.317  0.0417  0.1801  0.0626
97192W        W72180  31.927  18.556  13.758 -0.2725 -0.3584  0.2464
97193W        W72181   2.918   5.548  24.883 -0.1779  0.0047  0.1904
97194W        W72182  19.732  23.367  24.527  0.1852 -0.1796 -0.1139
97195W        W72183   5.457   9.829   4.759 -0.4620  0.1173  0.2972
97196W        W72184  15.781  12.713   6.935  0.1537  0.2291  0.6102
97197W        W72185  23.643  14.810  24.844  0.2841  0.0670  0.1045
97198W        W72186  15.881  25.328   8.571  0.2044  0.2496 -0.2582
97199W        W72187  32.795   6.535   1.896  0.0994  0.1434 -0.0708
97200W        W72188   8.631   7.674  20.415  0.2901  0.0903 -0.1547
97201W        W72189  29.935   4.918   3.099  0.2907 -0.0312 -0.0141
97202W        W72190   3.015  29.187   5.737  0.1369 -0.0975 -0.2098
97203W        W72191  21.823  20.849   2.433  0.2411  0.2004  0.1525
97204W        W72192   3.199  35.164  26.208 -0.3087  0.1052 -0.0339
97205W        W72193  25.770  25.541  18.814 -0.2688  0.1030 -0.1598
97206W        W72194  13.393   2.453   8.359  0.0738  0.2670  0.0926
97207W        W72195   1.689  13.501  16.741 -0.0423  0.2939 -0.0760
97208W        W72196  10.664   5.558   4.392 -0.2836  0.2860 -0.2695
97209W        W72197  16.085  30.081   5.872 -0.1642 -0.0088 -0.1450
97210W        W72198  27.584  28.120  14.764 -0.2909 -0.0167 -0.3606
97211W        W72199  19.387  26.522  18.032 -0.0942  0.4217 -0.0353
97212W        W72200   4.154  20.218   3.110  0.0257  0.0726 -0.0762
97213W        W72201  17.312  17.003   5.256  0.2830  0.0813  0.0060
97214W        W72202  33.793  26.181  17.904  0.0425 -0.0723  0.1293
97215W        W72203  17.330  14.445   0.721  0.0865  0.0506  0.0195
97216W        W72204  29.618  27.567   9.014 -0.0244 -0.0563  0.2523
97217W        W72205  32.336  25.080  17.953 -0.0945 -0.2384 -0.1668
97218W        W72206  34.527  33.460  18.722 -0.0962 -0.0714 -0.2426
97219W        W72207  10.558  24.420  10.259 -0.1147  0.2978 -0.2885
97220W        W72208  10.171   2.647  11.061 -0.0561 -0.3420  0.0113
97221W        W72209  33.773   3.560  20.992  0.4415 -0.1493 -0.0769
97222W        W72210  31.033  24.689  24.171  0.0672 -0.0671 -0.0740
97223W        W72211  16.662  24.103   4.208  0.1509  0.2544  0.1747
97224W        W72212  31.284  19.067  10.457  0.0204 -0.1021  0.2011
97225W        W72213  27.118  31.301  16.772 -0.2595  0.1187  0.0690
97226W        W72214   2.877  25.393  19.097  0.2402 -0.0492  0.0620
97227W        W72215   9.400  26.568  14.384 -0.1066 -0.2043  0.4357
97228W        W72216   0.299  25.681   1.078 -0.1962  0.1644  0.0526
97229W        W72217   6.442  19.423   3.350 -0.0692 -0.0260  0.0494
97230W        W72218   5.072  27.963  24.432 -0.1497 -0.2110  0.1916
97231W        W72219  30.452  24.498  24.771 -0.4784 -0.0490  0.0693
97232W        W72220  29.532  31.604  10.631  0.2699  0.0362  0.3098
97233W        W72221  17.279  26.324   8.890 -0.3766  0.1083 -0.0383
97234W        W72222   8.158   3.426  22.695  0.1006  0.3318 -0.0517
97235W        W72223   1.908  20.202  12.912 -0.0585 -0.0196  0.0656
97236W        W72224  34.566  31.934   7.195 -0.4297 -0.1060 -0.0302
97237W        W72225  35.263  13.577  11.267  0.0528 -0.1068 -0.4108
97238W        W72226   4.975   8.870  26.231 -0.2074 -0.2463 -0.0631
97239W        W72227   8.105  14.699   5.320  0.2011  0.0809  0.0178
97240W        W72228  29.171  10.030   9.331 -0.0623  0.1192  0.3045
97241W        W72229  19.784  18.005   7.027 -0.2088 -0.0378 -0.0655
97242W        W72230  19.413  26.165   7.723  0.2281  0.2037 -0.2655
97243W        W72231  22.738  15.313  25.334 -0.2309 -0.0389 -0.0179
97244W        W72232   5.179  14.153   7.157 -0.4567  0.0589 -0.1493
97245W        W72233  10.864  11.075   7.478  0.1774 -0.0244 -0.0680
97246W        W72234   3.156  18.659  26.074  0.1421  0.0640  0.1342
97247W        W72235  27.650   5.120  23.099  0.0111 -0.0741 -0.3269
97248W        W72236  18.470   7.312  19.114 -0.1780  0.1295 -0.0632
97249W        W72237  14.388  28.341  24.233 -0.4257  0.1138 -0.1443
97250W        W72238   0.495  34.328  25.219  0.2401 -0.1039  0.0887
97251W        W72239  17.593  28.970  25.621  0.4235 -0.1245  0.1312
97252W        W72240  26.308   1.086   2.744 -0.0209 -0.1550  0.0870
97253W        W72241  10.391   8.310  20.383 -0.0164 -0.3072 -0.0940
97254W        W72242   8.678   4.495  19.925  0.0152  0.1729  0.1757
97255W        W72243  17.551  31.303   6.407  0.3759 -0.2098  0.1361
97256W        W72244  15.803  28.666  22.669  0.2034  0.2195 -0.0810
97257W        W72245  17.294   1.389   4.165  0.2289 -0.0352 -0.0387
97258W        W72246   7.309  17.059  10.204  0.0764  0.0321  0.3434
97259W        W72247  28.194  34.896   3.469 -0.0842 -0.0647  0.1231
97260W        W72248  29.290  13.556  16.293  0.0962 -0.2093  0.0887
97261W        W72249  13.117  10.021   3.922  0.2647 -0.1079  0.1744
97262W        W72250  27.003  13.268  21.018 -0.0732 -0.0995 -0.0348
97263W        W72251  20.264  23.391  24.432 -0.0888  0.1605 -0.3021
97264W        W72252  35.176  13.877  16.094  0.1935 -0.0455  0.3488
97265W        W72253   8.327  15.088  10.843 -0.1577 -0.2873  0.1584
97266W        W72254   6.702   3.975   0.572 -0.0208 -0.0368  0.0496
97267W        W72255  26.696   1.230  24.855  0.1415 -0.0450 -0.3436
97268W        W72256  19.782  24.744   5.961 -0.0703 -0.0946 -0.0405
97269W        W72257   7.142  35.054  24.426 -0.1272 -0.3673  0.0443
97270W        W72258  18.418   7.557  21.879  0.0036 -0.0079 -0.2357
97271W        W72259  23.883  17.550  24.743  0.4199 -0.0217  0.1412
97272W        W72260  26.652  33.889  19.056  0.1263 -0.0441  0.2226
97273W        W72261  35.168   4.680   2.880 -0.2072 -0.0233  0.0080
97274W        W72262  11.992   7.105   2.650  0.5299 -0.1082 -0.1154
97275W        W72263  16.918   4.649   4.905 -0.0692  0.0049  0.1032
97276W        W72264   4.581   6.293  23.882 -0.1734  0.1671  0.0917
97277W        W72265  16.798  13.951   7.214 -0.2935 -0.0577 -0.2528
97278W        W72266  27.688  27.777  19.760  0.0157  0.0926 -0.0442
97279W        W72267  32.894  19.461  22.308 -0.0916  0.0588 -0.1842
97280W        W72268   8.719  17.820   6.585  0.1468 -0.2714  0.1862
97281W        W72269   8.414  28.743  22.257 -0.1407 -0.4933 -0.0429
97282W        W72270  24.426  17.057  21.673  0.0031  0.0548 -0.1888
97283W        W72271  34.407   9.843  22.822 -0.0648  0.2062 -0.0309
97284W        W72272  16.027   9.579  24.508  0.0916  0.2424  0.0043
97285W        W72273  12.903  16.305  25.641  0.1518 -0.0285  0.2894
97286W        W72274  31.730  13.042  21.819  0.1688 -0.0308  0.2371
97287W        W72275  19.947   1.659  24.352 -0.2570 -0.1888 -0.0490
97288W        W72276  26.279  14.083   7.822  0.0501 -0.0481 -0.0682
97289W        W72277  18.469  22.400  12.526 -0.1605  0.0156 -0.2134
97290W        W72278   3.200  16.824  19.222 -0.0106 -0.1574 -0.2007
97291W        W72279   5.272  31.792  22.466 -0.2727 -0.1187 -0.0091
97292W        W72280  31.418   6.348   2.387 -0.0736  0.0125 -0.2110
97293W        W72281   5.546   9.544   1.107  0.1591 -0.2522 -0.2118
97294W        W72282   3.666  34.852   5.479  0.1682  0.2095 -0.1523
97295W        W72283  33.635   2.484   4.758  0.1403  0.0394  0.0434
97296W        W72284   3.662  18.661  16.149 -0.0027  0.2405 -0.2612
97297W        W72285   5.826   1.257   3.929  0.1607  0.1751 -0.1731
97298W        W72286   3.253  16.050  14.028 -0.0050  0.2772  0.2033
97299W        W72287  13.034   7.326  25.470  0.0387 -0.0473  0.1510
97300W        W72288  28.219  26.211  11.099 -0.0400 -0.0745 -0.1138
97301W        W72289   9.799  30.188   4.778 -0.1963 -0.1010 -0.0358
97302W        W72290   2.728   6.277   1.508 -0.0462  0.2144  0.1917
97303W        W72291   3.434  28.830  11.534 -0.3637  0.1834 -0.0149
97304W        W72292  14.560  29.810  15.476 -0.1795  0.1123  0.0173
97305W        W72293  27.564  32.639   2.651  0.1953  0.0764  0.1486
97306W        W72294  33.587   6.440   2.841  0.0003  0.2365  0.1563
97307W        W72295  30.895  24.270   7.515 -0.0023 -0.1141  0.1557
97308W        W72296   1.788  15.529  26.119 -0.1662  0.0691  0.0624
97309W        W72297   3.847  17.893  16.910  0.0956  0.0074 -0.4164
97310W        W72298   5.718   8.833   5.048  0.0314 -0.1204 -0.2358
97311W        W72299  31.083  28.536  21.505 -0.0510 -0.0954 -0.2641
97312W        W72300  23.193  11.800  21.728  0.1173  0.3000 -0.2686
97313W        W72301   6.375  18.491   0.641  0.1027  0.1192 -0.0351
97314W        W72302  31.052  21.322  23.481  0.1156  0.1677 -0.1939
97315W        W72303  32.734  26.363   3.424  0.0182  0.0586  0.1497
97316W        W72304   0.805   5.071  22.599  0.0960  0.1771 -0.4666
97317W        W72305   4.221  33.707  20.561 -0.0675  0.0697 -0.0036
97318W        W72306  35.187  29.555  23.213 -0.1029  0.4894 -0.4332
97319W        W72307  16.012  24.432  22.345 -0.3205 -0.2886 -0.1869
97320W        W72308  19.321   7.665   5.587  0.1288 -0.0639  0.3245
97321W        W72309   7.978  14.731  12.417 -0.2388 -0.0388  0.4299
97322W        W72310   3.355  30.777   1.802 -0.1035 -0.0973 -0.1921
97323W        W72311  22.110  27.679  16.981 -0.0160 -0.0823  0.0275
97324W        W72312  17.889  24.428   5.438 -0.2288  0.1338  0.0505
97325W        W72313  11.643   8.525   7.537  0.2230  0.1170  0.3308
97326W        W72314  32.059   7.000  20.899  0.0143 -0.2132 -0.1324
97327W        W72315  24.357  18.740  20.219  0.4824 -0.2031  0.0829
97328W        W72316  20.674  13.709   1.133 -0.0487 -0.4226  0.2753
97329W        W72317  18.503  12.805  17.841 -0.1231 -0.0064 -0.1117
97330W        W72318  27.854  29.975  12.460  0.1528  0.0589  0.0890
97331W        W72319  14.473  19.369   6.102 -0.1709 -0.2179  0.4514
97332W        W72320  15.999  29.638  20.912 -0.2261  0.2219 -0.0321
97333W        W72321   5.077   4.657  24.352  0.1689  0.1039  0.1193
97334W        W72322  13.005  22.377  25.697  0.0973  0.1155  0.3035
97335W        W72323  24.530   7.031  17.009 -0.0468  0.2235  0.3380
97336W        W72324   3.813  11.353  14.813 -0.0248 -0.3022  0.3790
97337W        W72325  18.088  25.489  25.951 -0.1163 -0.2032 -0.0198
97338W        W72326   3.870  22.939   0.376  0.0242  0.2093  0.0848
97339W        W72327  23.370   6.429  23.974 -0.0396  0.0113  0.2477
97340W        W72328  32.310  31.815   5.502 -0.2116 -0.2666 -0.0693
97341W        W72329  10.136  31.288  11.260 -0.0840 -0.1081  0.3246
97342W        W72330  24.545   3.046  22.960  0.2512 -0.2249 -0.2276
97343W        W72331  21.675  31.355  24.422  0.1808 -0.4545 -0.0428
97344W        W72332  27.613  12.331   0.763 -0.1390  0.2198 -0.0238
97345W        W72333  22.724  22.838   0.031  0.0889 -0.2554  0.0242
97346W        W72334   6.788  23.986   2.602  0.1587 -0.2322 -0.0745
97347W        W72335  16.656   8.278   3.265 -0.2891  0.0629 -0.2573
97348W        W72336  19.797   8.675   7.314 -0.2793  0.1585  0.1580
97349W        W72337  20.383   7.030  16.713  0.0045  0.0211 -0.2735
97350W        W72338  31.980  16.462  15.799 -0.1465 -0.0243  0.2329
97351W        W72339   9.964   2.447  25.040  0.0681  0.2229  0.3163
97352W        W72340  30.772   2.513  22.183  0.0563 -0.2936  0.1934
97353W        W72341   1.251  18.299  16.174 -0.4388  0.3419  0.4542
97354W        W72342  13.381  24.187  10.084  0.1848 -0.0612 -0.0291
97355W        W72343  13.450  11.696   8.832 -0.2096  0.2761 -0.1235
97356W        W72344   3.876  34.307  24.683 -0.0029  0.0320  0.0071
97357W        W72345  19.750   0.041   3.071  0.2080 -0.0335 -0.0470
97358W        W72346  12.122   2.883  22.908 -0.1106  0.1624 -0.0885
97359W        W72347  26.994  20.907  15.847  0.2176 -0.0596 -0.1783
97360W        W72348   5.408   7.446  19.411 -0.0263 -0.0178 -0.1526
97361W        W72349   1.099  18.779  19.996 -0.1470 -0.3081  0.1122
97362W        W72350  14.026   3.590  10.287  0.0396 -0.1076 -0.0800
97363W        W72351   9.126  22.954  14.001  0.2695  0.1122  0.1023
97364W        W72352  34.821  15.964  18.276  0.2179  0.0377 -0.1105
97365W        W72353  20.767   1.546  22.143 -0.2083 -0.0828  0.0865
97366W        W72354  26.244  18.984  12.818 -0.0559  0.0885 -0.0710
97367W        W72355  10.163  26.747   4.489  0.1611  0.0580  0.1239
97368W        W72356  34.517  16.953  14.968 -0.0878  0.0732 -0.0203
97369W        W72357   4.808   7.286   7.409 -0.1254 -0.1100  0.4442
97370W        W72358  27.945  15.104  10.275  0.0804 -0.0508  0.0401
97371W        W72359   8.670  13.041  25.498 -0.0696  0.1361  0.0875
97372W        W72360  23.812  34.628   5.189  0.3089 -0.1676 -0.4185
97373W        W72361   6.214  32.094  20.683 -0.1775 -0.0829  0.0091
97374W        W72362  28.854  26.626  24.196  0.1698 -0.1659 -0.0362
97375W        W72363  29.312  19.068  13.873 -0.2215  0.1227 -0.1545
97376W        W72364  24.931  13.742  14.363 -0.1020 -0.1898 -0.1904
97377W        W72365  21.438  13.095   2.231 -0.0123 -0.2039  0.2304
97378W        W72366   7.139  24.628  23.073 -0.2349  0.0478 -0.0713
97379W        W72367  28.898  17.496   7.777  0.0681 -0.4072  0.3896
97380W        W72368   5.130  30.639   5.168 -0.0751 -0.2009  0.1240
97381W        W72369  29.323  16.474  15.114  0.0353 -0.0931  0.0271
97382W        W72370  18.868  20.789  25.197  0.4599 -0.2758  0.0484
97383W        W72371  24.009  28.570  19.155  0.2615  0.0497  0.1456
97384W        W72372  16.414  19.654   2.919 -0.2697 -0.0253 -0.3544
97385W        W72373  18.913   0.506  16.659 -0.0725  0.1035 -0.0239
97386W        W72374  34.573   5.416   3.999  0.3799 -0.0209  0.0987
97387W        W72375  33.292  14.209  23.584 -0.2174 -0.1130  0.0297
97388W        W72376   6.809  24.622   1.999 -0.2664 -0.0289  0.3641
97389W        W72377  12.846  14.394   2.497  0.1425 -0.3660 -0.3122
97390W        W72378  28.937   7.586  26.248 -0.3368  0.1971 -0.0236
97391W        W72379  20.971  13.783  23.445 -0.3247 -0.0999 -0.0288
97392W        W72380  12.846  24.955  13.672 -0.0710 -0.1639 -0.1809
97393W        W72381  31.376  12.059  21.850 -0.0074 -0.0293 -0.0224
97394W        W72382  32.441  32.693   2.667 -0.0862 -0.0419 -0.3971
97395W        W72383  24.877  34.786  14.695 -0.2560  0.2473 -0.0875
97396W        W72384  32.259   0.402  14.865 -0.0027 -0.1003 -0.0288
97397W        W72385   1.965  29.004   4.908  0.2919 -0.0633  0.1000
97398W        W72386   3.466  32.547   5.654  0.0411  0.0911 -0.0327
97399W        W72387  29.235   0.550  18.741  0.1353  0.4371  0.3312
97400W        W72388   5.444  16.417   6.504 -0.3215 -0.1072 -0.0967
97401W        W72389  19.162  25.910  23.635 -0.2757  0.0868  0.1811
97402W        W72390  32.557  15.444  19.863 -0.3478 -0.0446 -0.1076
97403W        W72391  17.766  27.576   7.729 -0.0909  0.0953 -0.3683
97404W        W72392  32.152  23.826  20.540  0.1326 -0.0934  0.3374
97405W        W72393   4.573   3.162  21.021 -0.1485  0.1586 -0.2018
97406W        W72394   5.550  27.291   5.421 -0.1326 -0.0728 -0.0180
97407W        W72395  10.256   0.528  14.512  0.1260  0.3450  0.1261
97408W        W72396  33.985   6.876   2.553  0.0669  0.1377  0.0278
97409W        W72397  20.056  22.141   2.699  0.3241 -0.2706 -0.3464
97410W        W72398   1.739  25.604  16.196 -0.2452  0.0531 -0.0809
97411W        W72399   8.804  29.298  23.574 -0.2340 -0.0095  0.1835
97412W        W72400   8.944  12.127  12.175 -0.1641  0.3627  0.0870
97413W        W72401   2.256  31.678  10.030 -0.2302 -0.1070 -0.1234
97414W        W72402  28.800   8.688  15.965  0.3740  0.0651  0.0144
97415W        W72403  13.515  10.879  10.764  0.4037  0.2929 -0.0795
97416W        W72404  28.511  16.484  20.871  0.0795 -0.2112 -0.3450
97417W        W72405   4.487  17.051  18.244 -0.0402  0.1008  0.0220
97418W        W72406  30.398  16.800  12.583 -0.0528  0.1563 -0.2792
97419W        W72407  23.169  27.169  17.853 -0.5381  0.2023 -0.0809
97420W        W72408  20.820  10.392  22.187  0.1984 -0.1819  0.1931
97421W        W72409  29.142  25.472   0.423  0.0668 -0.0252 -0.1168
97422W        W72410  18.216  31.758   8.133  0.1342 -0.0171  0.2925
97423W        W72411  24.190  11.311  17.720  0.2265 -0.0362  0.0557
97424W        W72412  32.498   3.443   3.274  0.2258  0.5355  0.0942
97425W        W72413  32.701  17.911  16.088  0.1582 -0.5173 -0.3366
97426W        W72414  28.356   2.579  16.904 -0.2592 -0.1097  0.0019
97427W        W72415  11.182  10.284  10.772 -0.1510 -0.1844 -0.3130
97428W        W72416  14.377  23.272  11.184  0.0041 -0.0124 -0.0024
97429W        W72417  17.915  34.553  17.738  0.3012  0.1079 -0.3735
97430W        W72418   6.676   5.802   9.345 -0.0803 -0.1528  0.2035
97431W        W72419   2.513  11.194  23.104 -0.0899 -0.2569  0.1731
97432W        W72420  22.193  27.749   3.073 -0.0674 -0.3002  0.1596
97433W        W72421  28.467   5.154  14.434  0.1418 -0.1658 -0.1213
97434W        W72422  28.104   5.425  17.935 -0.0091  0.1571 -0.2055
97435W        W72423  28.719  23.887  11.109 -0.0337  0.2017 -0.5417
97436W        W72424   7.885  21.051  25.198  0.0515 -0.1254 -0.1537
97437W        W72425  19.523  20.230  10.091 -0.0607 -0.0504  0.1048
97438W        W72426  26.927   9.378  14.500  0.4477  0.3091 -0.1504
97439W        W72427  30.707  13.986  19.016 -0.0188 -0.2098 -0.0345
97440W        W72428   2.681   3.930  21.577  0.1206  0.2576 -0.1354
97441W        W72429  26.759  31.987  22.131  0.0845  0.3097 -0.0378
97442W        W72430   2.723   0.617  25.648 -0.1643  0.1661 -0.1563
97443W        W72431  23.328   3.409   5.157 -0.0579  0.0229 -0.0548
97444W        W72432  27.558   1.886   1.574 -0.1181  0.0284  0.2343
97445W        W72433   3.013  33.626  10.318 -0.0796 -0.1245  0.0192
97446W        W72434   2.408  17.065  14.370 -0.2703 -0.5287  0.1552
97447W        W72435  18.774  14.060   7.633  0.3072  0.0816 -0.1009
97448W        W72436  14.738   4.578   0.482 -0.0375 -0.0320  0.2162
97449W        W72437   6.713  29.370   1.867  0.0140 -0.2458  0.1929
97450W        W72438  30.285  32.974  16.374  0.1385 -0.0660 -0.1999
97451W        W72439  31.167   5.897   3.666  0.0732  0.2394 -0.1224
97452W        W72440  13.555   2.775   5.815 -0.0605  0.0365  0.0371
97453W        W72441   0.429  25.991   0.717 -0.0134 -0.2204  0.0224
97454W        W72442  30.925  13.625  25.925  0.2371  0.0110 -0.3342
97455W        W72443  25.666   1.534  14.178 -0.2920 -0.2040  0.1270
97456W        W72444  32.209   9.985  24.134 -0.0467  0.2417 -0.0247
97457W        W72445  11.449  32.298   4.384  0.3323  0.0534 -0.1414
97458W        W72446  14.311  32.876  23.394 -0.2293 -0.2106 -0.0806
97459W        W72447   2.533   6.511  18.946 -0.3421  0.0491 -0.0532
97460W        W72448  12.344   7.517   5.655 -0.0874 -0.0260  0.0369
97461W        W72449  33.224   3.262   2.751  0.0257  0.0420  0.2511
97462W        W72450   2.373  15.107  22.109 -0.0637  0.1366  0.2787
97463W        W72451  20.234  19.584  18.147 -0.0020  0.1063  0.0082
97464W        W72452  14.179  20.594  22.572  0.0985 -0.0537  0.2814
97465W        W72453  19.715   6.791  17.509  0.0516  0.0372 -0.0553
97466W        W72454  13.676  11.606  23.513  0.0377  0.1425 -0.1421
97467W        W72455  12.327  14.101  10.496  0.0490 -0.4040  0.0739
97468W        W72456  16.282   5.148   9.066 -0.1115  0.0513 -0.2294
97469W        W72457  29.787   5.894  14.878 -0.1290 -0.2887  0.1837
97470W        W72458  21.027   4.199  23.185 -0.0019  0.0288  0.3104
97471W        W72459   1.963  18.977  20.333  0.0992 -0.1325 -0.2627
97472W        W72460   2.087  23.836   0.699  0.0831  0.2879  0.1207
97473W        W72461  18.097   2.800   4.953 -0.0954  0.3246 -0.0571
97474W        W72462  18.417  19.426  24.993  0.3642 -0.0687 -0.0563
97475W        W72463  20.878  25.062  16.582  0.0630  0.1097 -0.0062
97476W        W72464  12.156  26.142  13.565 -0.0380  0.0187 -0.0181
97477W        W72465  20.318  10.097  21.415 -0.2556  0.0943 -0.4083
97478W        W72466  30.719  33.773  16.666 -0.0524  0.0353  0.1462
97479W        W72467  11.449  18.037  11.305 -0.0267 -0.1289  0.0865
97480W        W72468  15.638  14.241  24.957  0.0786  0.0489 -0.0516
97481W        W72469  24.283  13.015  25.434 -0.1009 -0.2390 -0.2517
97482W        W72470   8.070   9.826   9.876 -0.2173 -0.2154 -0.3474
97483W        W72471  13.768  12.835  23.642 -0.1303 -0.1514 -0.0248
97484W        W72472  17.128   9.023   2.364 -0.0219  0.0565 -0.1473
97485W        W72473  30.104  17.313  11.284 -0.1280 -0.0560 -0.2594
97486W        W72474   7.058  20.592   1.925 -0.0221  0.0188 -0.1698
97487W        W72475  28.703  21.428   9.921  0.1380  0.0670  0.3520
97488W        W72476  12.749   3.485   3.579 -0.1655  0.2583 -0.0035
97489W        W72477   8.233   7.223  25.307  0.2614  0.0286  0.0711
97490W        W72478  34.940  29.360   4.175 -0.2081  0.1460  0.1934
97491W        W72479  31.862   5.053   0.448  0.1948  0.2709 -0.1509
97492W        W72480  15.131  34.000  11.222 -0.0312 -0.0165  0.2572
97493W        W72481   9.186   7.891  10.753  0.1711  0.1185  0.0629
97494W        W72482  35.070  16.117  23.051  0.1336 -0.3156 -0.0121
97495W        W72483   3.721  10.561   3.840 -0.1943  0.3080  0.1546
97496W        W72484  35.349  12.217  10.320  0.2548 -0.1697  0.0858
97497W        W72485  10.008  12.040  13.164 -0.0733 -0.1896  0.1806
97498W        W72486  15.631   6.426   4.225 -0.1711  0.0655  0.0704
97499W        W72487  29.007  18.453   7.555 -0.0180 -0.1350 -0.1925
97500W        W72488   9.571  29.012  16.224  0.0823  0.1393 -0.1760
97501W        W72489  13.639  18.334   3.676 -0.5320  0.0345 -0.3172
97502W        W72490  30.061   2.011  24.082 -0.0262 -0.1070 -0.0699
97503W        W72491  12.378   8.661  24.751  0.1761  0.1439  0.2163
97504W        W72492  21.254  31.825  24.565 -0.1450  0.0338 -0.0155
97505W        W72493   6.217   5.177   8.737 -0.1898 -0.3535  0.2134
97506W        W72494   3.215  22.121  15.485 -0.0626  0.0135 -0.1290
97507W        W72495  13.719   0.448   1.624 -0.2974 -0.0993  0.4941
97508W        W72496   9.293  12.499   0.685 -0.0505 -0.1102 -0.0238
97509W        W72497   7.473   2.261  13.219  0.1485 -0.1544 -0.1729
97510W        W72498  15.591  32.279   6.596 -0.1568  0.1005 -0.1459
97511W        W72499   2.477   3.503  18.855  0.2029  0.2815  0.0941
97512W        W72500  19.821  19.409   6.400  0.0367 -0.0979  0.0206
97513W        W72501  29.974  29.024  10.295  0.1002  0.1548  0.2492
97514W        W72502  34.643  11.531   9.850 -0.3656  0.0126  0.0118
97515W        W72503  30.512  26.800  24.420 -0.0311 -0.5269 -0.0583
97516W        W72504  14.994   7.135   6.912 -0.3314  0.2733  0.3270
97517W        W72505   9.170   0.582   9.277 -0.1417 -0.1462  0.0696
97518W        W72506   9.443  18.013  12.469  0.1359  0.0973 -0.4183
97519W        W72507   1.852  34.895  17.186 -0.0731  0.2092 -0.0232
97520W        W72508   4.844  13.609   2.071  0.1404 -0.2029  0.2450
97521W        W72509  31.122   0.408  16.700 -0.0455 -0.0896 -0.1783
97522W        W72510  25.823  30.585  23.293 -0.1924  0.1606  0.3401
97523W        W72511  30.026  28.969  23.410  0.1411 -0.2241 -0.1989
97524W        W72512  34.915  20.460  12.109 -0.1829 -0.0630  0.1030
97525W        W72513  24.428  12.092  22.236  0.0930 -0.3560  0.1405
97526W        W72514  25.075  20.850  14.441 -0.0044  0.2242  0.2396
97527W        W72515  21.434  14.489  15.406 -0.1506 -0.1854 -0.2787
97528W        W72516  27.738   3.148   1.163  0.0821  0.2363  0.1168
97529W        W72517  34.825  18.280  14.555 -0.1220  0.1070  0.0622
97530W        W72518  10.524  13.774  20.560  0.0844  0.0922  0.1993
97531W        W72519   9.084  21.788   1.973  0.1510 -0.3047 -0.1466
97532W        W72520   1.688  17.516  12.267 -0.0065  0.1937  0.0069
97533W        W72521   6.074  11.583  17.208  0.0834  0.0576 -0.1704
97534W        W72522  16.508  26.093  10.853 -0.2599 -0.0889 -0.1887
97535W        W72523  25.867  16.623  21.301  0.0733 -0.1640  0.1283
97536W        W72524  11.701  27.711  10.875 -0.0925 -0.3601 -0.3073
97537W        W72525   4.040  10.501  25.993 -0.3068 -0.0336 -0.3035
97538W        W72526   1.989  29.623   3.125  0.3693 -0.0746 -0.0259
97539W        W72527  28.217  19.715  18.088  0.0564 -0.0320  0.0920
97540W        W72528  33.907  25.669  21.169  0.1602  0.0397  0.0250
97541W        W72529  30.436   7.479  16.923 -0.0639 -0.0141  0.3351
97542W        W72530   3.856  21.503   2.746  0.3085 -0.1149 -0.0464
97543W        W72531  28.974   4.773  15.071  0.1469 -0.2979 -0.0754
97544W        W72532  14.897  34.738  22.708 -0.1979  0.0311  0.3891
97545W        W72533  14.752  10.985   7.728 -0.0149 -0.0960 -0.0466
97546W        W72534   8.004  19.463  20.799  0.1016 -0.1746 -0.0375
97547W        W72535  32.218   4.024  18.011 -0.5117 -0.1930  0.1241
97548W        W72536  17.916   5.257   4.802 -0.0408  0.1242 -0.0961
97549W        W72537  31.211  16.632   6.341 -0.0770  0.3965  0.1482
97550W        W72538  19.090   8.978  24.012  0.1103  0.0414 -0.0475
97551W        W72539   1.460  21.778  19.729 -0.1434  0.2792  0.3085
97552W        W72540  16.815  18.380   7.427 -0.1246 -0.1886  0.1295
97553W        W72541  10.100  29.208   7.592  0.1315 -0.2824 -0.1519
97554W        W72542  28.905  15.103  13.403  0.0739 -0.1974  0.1943
97555W        W72543  22.057  17.903  22.444 -0.0082 -0.1566  0.0234
97556W        W72544  34.882  16.026  12.619  0.0287  0.1936 -0.0710
97557W        W72545  12.327   0.974   4.827 -0.0043  0.2456 -0.0040
97558W        W72546  22.647  20.224  20.173 -0.1167  0.1479 -0.0532
97559W        W72547  13.542   8.319   0.245 -0.2241  0.3941 -0.2573
97560W        W72548  11.233  32.703   4.198 -0.3520 -0.0795 -0.2755
97561W        W72549  33.859  13.119  14.574  0.3058 -0.0083 -0.0818
97562W        W72550  32.912  28.808   1.590 -0.0184  0.1499  0.0311
97563W        W72551  33.010  28.401  11.911  0.2339 -0.1495  0.1796
97564W        W72552  25.269  15.651  17.738  0.1187  0.0451  0.2252
97565W        W72553  30.603  26.147  17.806  0.3505 -0.0295 -0.0234
97566W        W72554  31.183   0.556   5.172 -0.2070  0.4099 -0.0165
97567W        W72555   3.524   6.489   6.623  0.4035 -0.2310  0.2620
97568W        W72556   9.557   7.504  10.514  0.0869  0.0298 -0.3123
97569W        W72557  29.772  10.661  13.304 -0.1480  0.4208  0.0091
97570W        W72558  28.182   5.087  24.630 -0.0707 -0.0702 -0.0298
97571W        W72559  28.778   6.357   0.766 -0.0263  0.3276 -0.0106
97572W        W72560  33.841  21.519  22.844  0.2030  0.0524 -0.2414
97573W        W72561  25.977   5.961  18.686 -0.1425  0.1358  0.2098
97574W        W72562  23.915  20.166  15.796 -0.0486 -0.0221  0.1007
97575W        W72563  15.217  10.193  22.454 -0.4760 -0.0677  0.2818
97576W        W72564  28.161  17.110  24.745  0.0022 -0.0474  0.0509
97577W        W72565  14.603  26.898  15.785 -0.1514 -0.0740 -0.0369
97578W        W72566  28.684  23.818  12.722 -0.0860  0.0638 -0.3616
97579W        W72567  33.620  12.169  20.284  0.1042  0.4064  0.1371
97580W        W72568  28.126  31.874   1.157  0.1177  0.1698  0.3182
97581W        W72569  30.503   3.211  17.599 -0.2139  0.1515 -0.0778
97582W        W72570  32.424   0.392   3.585  0.1679 -0.3434  0.1825
97583W        W72571  22.452   6.710  16.223 -0.3415  0.4353  0.0256
97584W        W72572  16.980  31.440  25.262  0.2473  0.0236  0.1965
97585W        W72573  18.583  16.907  24.446  0.0145  0.1026 -0.2218
97586W        W72574   6.581  23.045   3.547 -0.1225 -0.3758  0.0317
97587W        W72575   3.941  12.495   3.908  0.1705  0.0438  0.2957
97588W        W72576  21.943   4.987   7.610 -0.1872  0.1265 -0.0222
97589W        W72577  29.196  16.726  15.630  0.0358 -0.0029  0.2797
97590W        W72578   3.937   7.126  25.268  0.2501  0.2295  0.0096
97591W        W72579   2.219  20.067  17.260 -0.0286 -0.0871  0.0081
97592W        W72580  28.701  27.431  22.594  0.0036 -0.0187  0.0190
97593W        W72581  16.959  25.957   4.175  0.1132 -0.1672 -0.0977
97594W        W72582  24.195   6.902   5.176  0.0698 -0.2943  0.0696
97595W        W72583  24.309   9.010  26.009  0.1068  0.1355  0.1437
97596W        W72584  29.132   4.296  15.269  0.0599 -0.0864  0.0040
97597W        W72585  16.474   3.429   6.362  0.1267 -0.2310 -0.0954
97598W        W72586  30.645  16.383  15.217 -0.1199  0.1070 -0.2349
97599W        W72587  24.743  23.252  22.055  0.2025  0.0710 -0.0446
97600W        W72588  22.616   2.772  14.207  0.0037 -0.1802 -0.2056
97601W        W72589   9.921  21.075   6.248 -0.1542 -0.2286 -0.0122
97602W        W72590  18.741  13.577   7.462  0.1884  0.4916  0.3430
97603W        W72591  23.406  33.656  15.891 -0.0553  0.1944 -0.3385
97604W        W72592  27.894   6.624  17.075  0.0544  0.0379 -0.1456
97605W        W72593   5.853  27.412   8.427  0.1382 -0.2184 -0.1396
97606W        W72594  29.936  14.289  22.846  0.0075  0.2935  0.3269
97607W        W72595   5.170  26.053  24.424  0.0807  0.0888 -0.2629
97608W        W72596  16.682  12.271  26.191 -0.3652 -0.0189 -0.3568
97609W        W72597  34.770  30.335  21.809  0.4123  0.0067 -0.0598
97610W        W72598   1.620  20.977  11.899 -0.2368 -0.0834 -0.0048
97611W        W72599  15.228  26.977  25.772 -0.2296 -0.0972  0.0483
97612W        W72600  28.355   7.753  13.411 -0.0950 -0.1174 -0.2068
97613W        W72601   0.800  17.773  15.028 -0.2201 -0.1416  0.0338
97614W        W72602  17.623   7.935   8.907 -0.1073 -0.0317 -0.1479
97615W        W72603  31.583   0.730  17.374  0.0345 -0.1133  0.1791
97616W        W72604   9.913  34.346  21.802  0.0146 -0.2126 -0.3757
97617W        W72605  25.091  25.374  22.215 -0.0226  0.1008  0.3781
97618W        W72606  27.186   6.640  24.678 -0.0741 -0.4350  0.0976
97619W        W72607  17.910  25.961  11.765  0.0891 -0.0221  0.1873
97620W        W72608  17.933   1.391   2.525 -0.1750 -0.1858  0.0316
97621W        W72609   9.122   0.900  21.022 -0.0184  0.2075 -0.2396
97622W        W72610  14.679   9.949  21.880  0.0592 -0.1438 -0.3393
97623W        W72611  13.905  18.674   6.992 -0.1009 -0.4582  0.2747
97624W        W72612   9.947  13.332  23.089  0.0392  0.1585 -0.2464
97625W        W72613  26.565  17.156   9.004 -0.0852  0.0102 -0.1953
97626W        W72614  33.989  12.017   9.415  0.2494 -0.2273  0.0258
97627W        W72615   5.140  18.423   3.591  0.0088  0.1691  0.2392
97628W        W72616   4.060   4.731   2.096  0.0865  0.3978 -0.2044
97629W        W72617  28.559  34.681  17.556 -0.1536 -0.0642 -0.0123
97630W        W72618  16.984  23.522   5.385  0.0898  0.2299  0.1685
97631W        W72619  25.398  19.979  11.063  0.0488 -0.0727  0.0118
97632W        W72620  11.564  23.023  24.123 -0.2045  0.4269 -0.3508
97633W        W72621  25.054  23.772  25.092 -0.2032  0.1250 -0.0006
97634W        W72622  18.991  30.548  24.427  0.2077 -0.1734  0.2556
97635W        W72623  17.085   8.953  19.716 -0.2039 -0.1610  0.0102
97636W        W72624   9.260  11.011   7.015  0.0958 -0.0004  0.0405
97637W        W72625  24.370   7.553   3.719 -0.0574 -0.1365  0.4342
97638W        W72626  30.590   2.406   5.102 -0.3167 -0.0206 -0.0221
97639W        W72627  35.144   7.958  19.520 -0.2709 -0.0357 -0.0851
97640W        W72628   3.265  12.235  18.607  0.1276  0.1358  0.2680
97641W        W72629   0.747  10.509  19.058  0.1341  0.1571 -0.2091
97642W        W72630  11.551   5.225  24.682  0.2927 -0.2200  0.1262
97643W        W72631  22.458  29.318  24.537  0.0003  0.0930 -0.0060
97644W        W72632  22.574   6.149  15.058  0.0094 -0.0157 -0.0185
97645W        W72633  13.367  30.855  23.503 -0.0961 -0.2255 -0.0301
97646W        W72634   4.877  15.394   4.640  0.1311 -0.2127  0.1624
97647W        W72635  18.158  26.697   4.625 -0.0777  0.3529  0.1580
97648W        W72636  18.377   5.742   1.864  0.0223  0.4989  0.1457
97649W        W72637  19.724  24.800  19.606  0.0875 -0.0605  0.0243
97650W        W72638  12.375   8.579  13.446  0.1010 -0.1376  0.1664
97651W        W72639  10.585  33.105  21.742 -0.0910 -0.6608 -0.0451
97652W        W72640  15.912  35.353   8.057 -0.0694 -0.0462 -0.0580
97653W        W72641  17.572  32.562   4.199  0.2585 -0.0138  0.0125
97654W        W72642  34.596  33.153  19.472  0.1379 -0.2256 -0.2086
97655W        W72643  27.836  32.401  25.364  0.1629 -0.2333  0.0149
97656W        W72644  27.464  31.314  14.132  0.1741 -0.1385 -0.0195
97657W        W72645  12.995  11.735   9.404  0.1431 -0.0763  0.0544
97658W        W72646  20.495  20.369   5.489 -0.1658 -0.2704  0.0458
97659W        W72647  28.509  33.174  22.709  0.0735  0.5524  0.2644
97660W        W72648   9.148  29.203  21.953  0.0242 -0.0575 -0.1892
97661W        W72649  25.943  18.855   8.567  0.0712  0.0862 -0.2822
97662W        W72650  23.124  30.238  19.464 -0.1144 -0.1206 -0.1114
97663W        W72651  16.680  17.523  19.744  0.1378  0.0316  0.0304
97664W        W72652  31.137  19.462  14.161  0.1353 -0.1908 -0.1086
97665W        W72653   5.815   3.002  12.244 -0.0207 -0.1648  0.1647
97666W        W72654  32.416   8.968   1.652  0.0253 -0.0824 -0.0162
97667W        W72655   4.905  10.457   1.664  0.3753 -0.3255 -0.1153
97668W        W72656  21.333  11.967  23.406  0.0814  0.1145  0.0154
97669W        W72657  26.039   2.952  19.099 -0.0318  0.3573 -0.0089
97670W        W72658  28.461  29.394   0.756  0.0400 -0.1787 -0.0606
97671W        W72659  17.821  20.193   1.334 -0.0510  0.0643  0.0304
97672W        W72660  22.503  31.499  21.018  0.0003  0.0305 -0.2243
97673W        W72661   8.686  24.113   3.024  0.0926 -0.1867  0.0480
97674W        W72662  12.189  14.851  22.101  0.2798  0.1868 -0.0429
97675W        W72663  26.747  32.747  11.646  0.2379 -0.1483  0.0883
97676W        W72664  19.088  13.909  21.500 -0.0542  0.0237 -0.2127
97677W        W72665  27.372  33.271  24.497  0.1157 -0.0299  0.1396
97678W        W72666  27.053  35.288  20.884 -0.2191  0.1635  0.1493
97679W        W72667  13.104  24.000  22.574 -0.0655 -0.1570 -0.2643
97680W        W72668  16.143   7.763  26.092 -0.2076 -0.2805  0.0700
97681W        W72669   3.764  24.384   5.527  0.1754  0.2622  0.0812
97682W        W72670  20.054  24.167  19.420 -0.0590 -0.1959  0.0767
97683W        W72671  10.076  25.658  15.558 -0.0233  0.0207  0.2449
97684W        W72672  26.000   1.810  25.927 -0.2905  0.1425  0.2939
97685W        W72673  17.396  32.472  26.216 -0.1989  0.2721 -0.3154
97686W        W72674  15.748  31.189   7.501  0.0457  0.0682 -0.1664
97687W        W72675  13.433   1.404   9.469 -0.1055 -0.3585 -0.2227
97688W        W72676  21.808  14.628  20.638 -0.3119  0.2992  0.1373
97689W        W72677  14.578  30.031   0.214 -0.1823  0.1543  0.1910
97690W        W72678  34.253   6.290  18.319 -0.3283 -0.2340 -0.3142
97691W        W72679   0.767  15.062  18.169  0.0707 -0.0325  0.0823
97692W        W72680  33.142  14.976   0.272  0.0165  0.0036 -0.0867
97693W        W72681  20.816  21.613   2.640 -0.0040 -0.1861 -0.0881
97694W        W72682   9.864   4.033   9.715 -0.0684  0.0051  0.0615
97695W        W72683  14.525  13.492  14.385  0.2201 -0.0080 -0.2502
97696W        W72684  18.928  10.174  23.138 -0.1839 -0.3613 -0.1931
97697W        W72685  27.060  14.562  11.500  0.2893 -0.0691 -0.0771
97698W        W72686  21.310   2.551   8.416 -0.0759 -0.2760 -0.1809
97699W        W72687   7.214  33.286  11.243 -0.1566 -0.2131  0.1070
97700W        W72688   9.727  23.382   8.979  0.1860  0.1852 -0.1890
97701W        W72689  25.344   4.843  23.976  0.3238  0.0870  0.0829
97702W        W72690  16.840  19.512  25.117 -0.2700  0.2274  0.0557
97703W        W72691   5.310  11.559  23.377  0.1928 -0.1035  0.0668
97704W        W72692   6.816  27.138  13.895  0.1174 -0.1122  0.0301
97705W        W72693  30.516  31.277   5.447  0.0040 -0.1109 -0.0876
97706W        W72694   5.499  26.644  12.424 -0.2787 -0.2717 -0.1963
97707W        W72695  22.986   4.286   5.161  0.1726 -0.3595 -0.2000
97708W        W72696   6.391  30.969   3.179 -0.1439  0.2760  0.1000
97709W        W72697  10.794  12.825   6.988 -0.0623  0.0431 -0.2685
97710W        W72698   7.957  32.148  11.311 -0.0549  0.4475 -0.0045
97711W        W72699  21.367  15.038  15.716 -0.1993  0.0089  0.2090
97712W        W72700   3.686  30.654  26.181  0.1194  0.0675  0.0027
97713W        W72701  14.442   1.353   1.470 -0.1498 -0.1492 -0.1004
97714W        W72702  34.633   6.402   1.951 -0.0376  0.0951  0.0475
97715W        W72703   9.481  33.106   3.978 -0.0080  0.1064  0.1449
97716W        W72704  13.797  22.011  22.053 -0.4021 -0.1187  0.0620
97717W        W72705  17.473  27.649  23.924  0.2494  0.0247 -0.0029
97718W        W72706   4.668  31.865  13.559 -0.3066 -0.0637 -0.1822
97719W        W72707  21.322  29.602   2.970  0.4929 -0.1325  0.0120
97720W        W72708  33.867  28.969   3.753 -0.0268  0.2096 -0.1772
97721W        W72709  11.452  17.698  22.703  0.2658  0.0811  0.0688
97722W        W72710  25.035   2.578  22.890 -0.0635  0.0681  0.1459
97723W        W72711   2.563  17.513  19.493  0.0438 -0.2667 -0.1663
97724W        W72712   3.536  14.769  19.887  0.1644 -0.1956 -0.0316
97725W        W72713  13.307  13.538   1.715 -0.1024  0.0915 -0.2001
97726W        W72714  26.228  27.387  10.115 -0.1030  0.3516  0.0009
97727W        W72715   5.012   0.141   9.785 -0.2618  0.2665  0.2132
97728W        W72716  21.251  26.983  22.729  0.1369  0.0912 -0.2187
97729W        W72717  17.105   1.085   1.544  0.0852 -0.2784  0.0161
97730W        W72718  32.088   6.334  19.445  0.1666 -0.3202  0.0665
97731W        W72719   4.373   0.447  23.105  0.3812 -0.3950 -0.0116
97732W        W72720  12.575  10.022  20.034 -0.0157  0.2313 -0.0724
97733W        W72721   9.807  22.117  23.176  0.2534  0.1443  0.3135
97734W        W72722   4.220   3.856   1.372 -0.3038 -0.0772 -0.1086
97735W        W72723  34.850   8.209   3.178 -0.2744  0.1856 -0.4450
97736W        W72724  32.715  29.186  14.937  0.0119 -0.0493 -0.0770
97737W        W72725  25.603   4.498  14.748  0.1250 -0.0447 -0.2139
97738W        W72726  22.259  24.490   1.090  0.0170 -0.0830 -0.1030
97739W        W72727   3.387  23.988   6.613  0.1800  0.1198  0.0189
97740W        W72728  25.808  30.673  13.649 -0.2338 -0.0604 -0.2057
97741W        W72729  24.554  31.532  17.752 -0.0849 -0.1376  0.2236
97742W        W72730   3.983  32.864   9.566  0.0623 -0.4073 -0.0161
97743W        W72731  33.420   9.992  11.445  0.2090 -0.1276 -0.4016
97744W        W72732   2.092   0.745  17.712  0.0566  0.0784  0.2405
97745W        W72733  23.506  16.222  13.456 -0.0882  0.0497  0.2353
97746W        W72734  30.053   3.300  15.936 -0.2751 -0.1030 -0.0753
97747W        W72735  16.387  27.214   8.813 -0.0145  0.0644 -0.3310
97748W        W72736  12.626  21.387  14.434 -0.0906 -0.3222 -0.2892
97749W        W72737   3.436  28.440  25.354  0.2173 -0.2637  0.0635
97750W        W72738  20.458   6.667   4.643  0.0331  0.0158 -0.1191
97751W        W72739  25.634  32.350   0.523  0.2662 -0.1999 -0.2526
97752W        W72740  30.173  30.136  13.152 -0.0141 -0.3127  0.5325
97753W        W72741  30.631  30.394  25.371 -0.1787 -0.1018  0.1230
97754W        W72742  30.307   3.546  16.767 -0.2390  0.0962 -0.0907
97755W        W72743  24.055   8.066  25.009  0.1228 -0.0325 -0.2060
97756W        W72744   6.412  20.842  22.871 -0.0323  0.1777 -0.0158
97757W        W72745  19.296  33.758  16.341  0.3363  0.1731  0.2247
97758W        W72746   0.812  29.634   2.127 -0.1371  0.4820 -0.0233
97759W        W72747  30.736  21.886   8.910  0.1135 -0.0504  0.1646
97760W        W72748  26.420  26.521  16.054  0.0353 -0.3207 -0.1164
97761W        W72749  35.073   5.220   0.615 -0.1372 -0.0621 -0.0795
97762W        W72750  13.214  34.284   6.304  0.1546  0.1634 -0.1815
97763W        W72751   7.037  16.408  17.633  0.0112  0.1461 -0.0295
97764W        W72752  13.440  32.458   3.075  0.0684  0.0840  0.0460
97765W        W72753  18.707  35.164  25.990  0.1516 -0.2694  0.1282
97766W        W72754  33.263  31.288  24.946  0.0531  0.1652 -0.3081
97767W        W72755  16.020   3.850  17.547  0.0127  0.0678 -0.1434
97768W        W72756   5.943  10.210  22.128 -0.0242  0.0347  0.2263
97769W        W72757   9.496   3.872   9.451  0.0197  0.0392 -0.0875
97770W        W72758  14.228  15.370   4.980 -0.2916 -0.2055 -0.1560
97771W        W72759  16.391   8.206   2.853  0.4014  0.1002  0.0673
97772W        W72760  14.803  26.685   5.911 -0.0027  0.1948 -0.0924
97773W        W72761  32.554   3.222  12.856 -0.2162 -0.3312 -0.3977
97774W        W72762  29.008   3.877   4.279 -0.0875 -0.0129  0.1394
97775W        W72763  32.598   2.058  12.866 -0.1619  0.3481  0.3090
97776W        W72764   6.862  17.847   4.888 -0.1893 -0.2142 -0.0675
97777W        W72765  22.192  28.665  20.947 -0.0910  0.3224 -0.1892
97778W        W72766  31.694  34.202   4.883  0.0238 -0.0885  0.1323
97779W        W72767   9.483   0.202  10.464 -0.0848  0.1329 -0.0520
97780W        W72768  13.137  28.473   8.558  0.1208 -0.1468  0.1767
97781W        W72769  20.534   6.934   2.926  0.0132 -0.0973 -0.0375
97782W        W72770  18.486   8.580  11.731 -0.0683 -0.1986  0.1018
97783W        W72771  16.882  11.883   1.327 -0.1989  0.1525 -0.0716
97784W        W72772   1.943  17.664  13.125 -0.0888  0.3136  0.0866
97785W        W72773  18.383  13.365   8.600 -0.3258  0.2460  0.3280
97786W        W72774  34.393  14.893  22.083  0.1523  0.1553 -0.0295
97787W        W72775  19.712  35.066   4.065 -0.0239  0.1521 -0.0305
97788W        W72776   1.547  16.930  16.840 -0.1586 -0.0405 -0.0887
97789W        W72777  33.871   9.910  21.604 -0.2003  0.0826  0.3710
97790W        W72778  14.266   8.083  22.112  0.1572  0.2223 -0.1119
97791W        W72779   9.275  13.240  21.074  0.0068 -0.1386  0.0074
97792W        W72780  20.262  33.509   1.268  0.0269  0.1126 -0.1367
97793W        W72781  15.114  11.773   3.055 -0.2038  0.0956  0.2224
97794W        W72782   6.649  19.228   2.135  0.1271  0.0546 -0.0192
97795W        W72783  27.982   1.270  12.704 -0.0306  0.0864 -0.1712
97796W        W72784  16.316  12.158  12.679 -0.0627 -0.0916  0.1101
97797W        W72785  16.769  27.278  11.388  0.0006  0.1800 -0.0228
97798W        W72786  16.805   0.246  16.902  0.2819 -0.1509  0.2926
97799W        W72787   4.640   3.263   1.839  0.3241  0.0621  0.3365
97800W        W72788  23.968  33.195  16.506  0.1755 -0.0786  0.0015
97801W        W72789  23.870  13.493  20.412  0.2263  0.0528 -0.0326
97802W        W72790  15.581  10.678  13.411 -0.0745 -0.2484 -0.2113
97803W        W72791  33.873   3.741  25.784 -0.1855  0.0742  0.2407
97804W        W72792  30.117  21.230   6.705  0.2018 -0.1862  0.0321
97805W        W72793  10.025   3.755  26.009  0.2925  0.2546  0.2081
97806W        W72794   7.526  25.572   0.603  0.1277  0.0005  0.1554
97807W        W72795  32.355   9.157  10.132 -0.0288 -0.3447 -0.0372
97808W        W72796  35.215  28.223  19.822 -0.0784 -0.0693 -0.1472
97809W        W72797  16.701  30.545   1.153  0.0169  0.0180 -0.0344
97810W        W72798  32.362   8.699  10.416 -0.2051  0.4683  0.0584
97811W        W72799  26.477  12.468  12.811 -0.2881  0.0456  0.1197
97812W        W72800  13.780  22.114  13.257 -0.1829  0.4668  0.2073
97813W        W72801  12.375  15.452  11.961  0.0548  0.1303  0.1899
97814W        W72802  33.997   6.974  17.772 -0.2784 -0.3236  0.3601
97815W        W72803  26.698   4.129  21.968 -0.0043  0.0484 -0.2266
97816W        W72804   5.104   4.203   7.404 -0.3091 -0.3898  0.0115
97817W        W72805  16.019  15.369   9.536 -0.1106  0.2085  0.4229
97818W        W72806   8.397   0.885   2.052 -0.2387  0.0281 -0.1040
97819W        W72807  17.932   6.702  17.832  0.0317 -0.2211  0.2718
97820W        W72808  25.604   9.614  25.803  0.3990 -0.1192  0.0455
97821W        W72809  21.320  10.407  23.245  0.1184 -0.0421 -0.1088
97822W        W72810   4.370   1.661   3.169 -0.0575  0.0657  0.1347
97823W        W72811  25.525  33.877  19.959 -0.1248  0.1929  0.0886
97824W        W72812  32.802  12.400   7.461  0.2127 -0.1153  0.0544
97825W        W72813  14.209  10.418  21.068 -0.0185  0.0429  0.3093
97826W        W72814  29.625  27.424  21.893 -0.0894  0.1127 -0.1207
97827W        W72815  32.105   6.333   3.540 -0.2926 -0.2105  0.2064
97828W        W72816   5.490  14.627   5.366  0.2672 -0.0288  0.0642
97829W        W72817  13.986  27.387  13.113 -0.3273  0.0409  0.0804
97830W        W72818   3.042  25.872  18.921 -0.3331 -0.0079  0.0621
97831W        W72819  34.184  19.825  10.916  0.0839 -0.1004  0.0267
97832W        W72820   8.304  19.143  11.936 -0.2089  0.0190 -0.1706
97833W        W72821   8.253   9.937  24.503 -0.2675  0.1586  0.0460
97834W        W72822   6.630   9.888   8.300  0.0465 -0.1454 -0.2115
97835W        W72823  25.718  10.270   1.397 -0.0267  0.0590 -0.1161
97836W        W72824   9.442   2.484   5.164  0.2543  0.1010 -0.0724
97837W        W72825  21.010   0.133   0.198  0.0919 -0.2935 -0.2270
97838W        W72826  23.061  22.952  19.505  0.0665 -0.2791 -0.1092
97839W        W72827  28.115  31.956  11.784 -0.0497  0.0418 -0.1702
97840W        W72828  15.410   8.068  12.993  0.3874 -0.0276  0.1214
97841W        W72829  31.494  20.595  10.813  0.1907  0.0321 -0.2719
97842W        W72830  29.694  19.423  17.631  0.1168  0.0863 -0.1329
97843W        W72831   7.119  33.705  10.163  0.0580 -0.0258 -0.1270
97844W        W72832   2.854  32.929  21.503  0.1785 -0.2126 -0.1085
97845W        W72833  14.569  31.555  20.236 -0.0249  0.2540  0.0805
97846W        W72834  20.510   0.589  19.719  0.0328 -0.2953 -0.0797
97847W        W72835  13.877   9.736   4.191  0.1818 -0.0041 -0.0469
97848W        W72836   8.982  25.400   4.376 -0.3254 -0.3029 -0.0791
97849W        W72837   9.788   8.288   9.212 -0.1785 -0.0474 -0.2206
97850W        W72838  29.487  23.081   7.906 -0.0201 -0.0116  0.1647
97851W        W72839  28.199   9.359  12.973 -0.2997  0.0025 -0.3602
97852W        W72840  26.021   0.249  25.102 -0.2573 -0.0844 -0.0256
97853W        W72841  14.864  13.151   3.580  0.2286  0.2858  0.1210
97854W        W72842  33.809  33.255  24.709 -0.4208 -0.1418  0.2192
97855W        W72843  12.845  13.261   7.844 -0.1265  0.0329 -0.0789
97856W        W72844  17.994  16.303  24.438 -0.0342 -0.3829 -0.0872
97857W        W72845  29.473  33.079  26.168 -0.2649 -0.0006 -0.1618
97858W        W72846   2.993  32.835   4.446  0.5173  0.3998  0.4911
97859W        W72847   4.928   6.808   2.688 -0.4313  0.1258 -0.3859
97860W        W72848  20.071   3.262   0.527  0.2910 -0.0460 -0.2137
97861W        W72849  20.086   3.160  17.462  0.0294  0.0610  0.3027
97862W        W72850  32.405  16.768   8.811 -0.0571 -0.1475 -0.1036
97863W        W72851   7.921  18.408  24.646 -0.1387  0.0487  0.2122
97864W        W72852  11.814   5.094  10.733  0.1039  0.0114 -0.0532
97865W        W72853  16.267  11.646   8.240  0.2842 -0.1325  0.1687
97866W        W72854   6.491   3.927   7.421 -0.0209 -0.0859  0.0744
97867W        W72855  26.008  31.240  24.981  0.1658  0.0615  0.2206
97868W        W72856  29.830  27.963  24.655 -0.3304  0.0800 -0.0665
97869W        W72857  15.627   9.433   4.662 -0.1665  0.0814  0.0994
97870W        W72858  32.821  33.448   1.670  0.0409  0.4817  0.3225
97871W        W72859  15.574   6.808  22.871  0.2484 -0.0661 -0.1486
97872W        W72860  25.082  21.930  22.947  0.0538 -0.0638  0.0968
97873W        W72861  19.855   0.166  23.699  0.1225 -0.0438  0.0999
97874W        W72862   9.179  35.232  24.528  0.0298  0.0934 -0.4016
97875W        W72863  17.171   7.108   0.612  0.2176  0.1390 -0.0091
97876W        W72864  18.186   5.589  22.821 -0.1573 -0.2138 -0.0201
97877W        W72865  23.953  29.936   3.973  0.0562  0.5157  0.2966
97878W        W72866  28.612  30.935  11.340  0.1881  0.3782 -0.0616
97879W        W72867   8.307  19.442   4.170 -0.0688  0.1511 -0.2678
97880W        W72868  31.972   4.724  20.898  0.2649  0.2516  0.1611
97881W        W72869  13.458  22.435  13.545  0.1539 -0.0364 -0.0386
97882W        W72870  24.405   9.766  25.843 -0.1119 -0.0883  0.2426
97883W        W72871  27.082  14.561  22.520  0.0022 -0.0477  0.0079
97884W        W72872   4.122  23.804  21.989 -0.3200 -0.0972 -0.2703
97885W        W72873  28.390  17.357  17.285 -0.1291 -0.3682 -0.1618
97886W        W72874   7.812  19.195   9.995 -0.0040 -0.0060  0.1360
97887W        W72875   8.741  17.332   4.470 -0.0203 -0.1301  0.3008
97888W        W72876  32.956  18.037  11.153  0.2942  0.1126 -0.3372
97889W        W72877   4.485  29.195  11.240  0.6613  0.1701  0.1508
97890W        W72878  14.114  21.220   7.262 -0.0978  0.2704  0.3818
97891W        W72879  25.976  32.173  13.121  0.3591 -0.2463 -0.2013
97892W        W72880  21.671  20.553  20.854 -0.1964  0.1720  0.2035
97893W        W72881   2.138   6.816  23.395 -0.2320  0.2519  0.1425
97894W        W72882  26.144   0.296   3.687 -0.0227  0.1544 -0.0724
97895W        W72883  15.205  28.308  23.510 -0.2551  0.1485 -0.0042
97896W        W72884  20.068   4.343  18.496 -0.0794 -0.0102 -0.1686
97897W        W72885  11.545  24.364   8.880  0.0299  0.2303 -0.0513
97898W        W72886  12.777  27.799  14.862 -0.1394  0.0421 -0.3730
97899W        W72887  13.509   1.934  23.627 -0.0766  0.1127  0.1329
97900W        W72888  31.149  13.648  14.579 -0.1041  0.1063 -0.2837
97901W        W72889  15.725   6.986  20.864  0.3513  0.2798  0.3185
97902W        W72890  19.857  16.497  24.916  0.2114 -0.0642 -0.0496
97903W        W72891   7.530   2.870  12.593  0.1325 -0.0849  0.2584
97904W        W72892  33.168   6.872   2.752 -0.0035  0.1793 -0.0172
97905W        W72893  34.310   1.084  16.618  0.1138  0.2337  0.2145
97906W        W72894  11.660  28.211  10.890  0.1200  0.1847 -0.2065
97907W        W72895  26.296   4.183  21.050 -0.0772 -0.1490 -0.1676
97908W        W72896  27.581  25.507  16.360 -0.0640 -0.1815  0.0857
97909W        W72897  28.289   3.063  17.657 -0.1930 -0.0937  0.1251
97910W        W72898   2.668  19.139   4.070 -0.1872  0.0788 -0.1589
97911W        W72899  14.270   7.561   8.613  0.2934 -0.0151  0.1332
97912W        W72900  13.049   0.362   3.045 -0.2367  0.1733 -0.3899
97913W        W72901   3.734   1.420  24.474  0.0272 -0.2883 -0.3205
97914W        W72902   3.809  34.069  19.162 -0.0525  0.0598 -0.1527
97915W        W72903  19.845  16.418  20.619 -0.1325 -0.0521  0.0320
97916W        W72904   0.316  14.803  24.573  0.2257 -0.0008  0.0752
97917W        W72905  26.912  14.330  18.392  0.0341 -0.3670 -0.0103
97918W        W72906  11.679  17.538  21.805  0.0941 -0.1435  0.0207
97919W        W72907  28.291  32.377   0.206  0.3392 -0.1973  0.1321
97920W        W72908  17.484  32.925  25.415 -0.0245  0.4695  0.1940
97921W        W72909  10.461  10.832   9.838  0.2773  0.1874 -0.0764
97922W        W72910  10.793  27.364  17.544 -0.1081 -0.0230 -0.0066
97923W        W72911  16.024   0.321   4.978 -0.2131  0.2425 -0.2037
97924W        W72912  33.334   3.492  13.728 -0.1193 -0.2582  0.1431
97925W        W72913  26.477  34.279  22.905  0.0334 -0.2266 -0.6034
97926W        W72914  11.854  33.371   5.612 -0.1410  0.0992 -0.2331
97927W        W72915  28.981  25.930  10.482  0.3043  0.0140 -0.0839
97928W        W72916  13.483   2.665   2.011 -0.0977 -0.2191 -0.3759
97929W        W72917  32.220  16.249  17.060 -0.0902  0.0721 -0.1006
97930W        W72918  15.528  21.641   7.676  0.2445  0.1618  0.0934
97931W        W72919  21.286  13.835  15.964 -0.0451 -0.2333  0.1422
97932W        W72920   3.565  12.803   4.733 -0.0611  0.0802  0.4444
97933W        W72921   9.964  18.069  24.359  0.4072 -0.0882  0.1161
97934W        W72922  17.931  29.106   1.645 -0.0296 -0.0395  0.2681
97935W        W72923  17.544  34.656  21.454  0.3473 -0.0203 -0.0403
97936W        W72924  21.295   3.861   7.601 -0.1425  0.1782  0.1257
97937W        W72925  20.697   3.158  21.377 -0.0823  0.0273  0.1529
97938W        W72926   1.211  35.366   5.832 -0.1945 -0.0799  0.1150
97939W        W72927  27.770  18.966   9.779 -0.1703 -0.3345 -0.0182
97940W        W72928  17.341   7.756   7.364  0.1670  0.1763 -0.0766
97941W        W72929  28.278  25.674  17.040 -0.2085  0.3239 -0.0236
97942W        W72930   6.455   8.988  23.578  0.3064  0.0377  0.3052
97943W        W72931  33.263  21.123  18.991 -0.1776  0.3845  0.1653
97944W        W72932  23.534  32.974  21.751  0.1531 -0.0575  0.3589
97945W        W72933  25.145   4.667  12.567  0.0219 -0.2525 -0.0233
97946W        W72934  14.072  28.180   2.307 -0.2093  0.0502 -0.1923
97947W        W72935   0.255  17.679   7.898 -0.1741  0.0844  0.2637
97948W        W72936  27.604  17.657   7.087  0.1969  0.0626 -0.2418
97949W        W72937  16.305   2.205  19.776 -0.1836  0.1488 -0.3817
97950W        W72938   9.213   5.079  10.178  0.1031  0.1682  0.1138
97951W        W72939  31.169  23.373  14.690  0.1889 -0.1980 -0.1496
97952W        W72940   2.877   9.066  24.893 -0.0568  0.1180  0.0818
97953W        W72941  26.519  33.204   1.607  0.0627  0.3542 -0.1291
97954W        W72942  27.151  27.741  14.749 -0.0525  0.0333  0.0470
97955W        W72943  15.867   6.072  21.813  0.0497  0.3640  0.3036
97956W        W72944  24.440  14.352  14.980 -0.0387  0.0349 -0.0378
97957W        W72945  14.033  15.305   3.889  0.1131 -0.1635  0.3141
97958W        W72946  10.530  10.042   8.872 -0.2235 -0.0565  0.0389
97959W        W72947  24.708  22.095  14.629  0.2706 -0.1001  0.0455
97960W        W72948  28.407  20.899   6.701  0.2525  0.1037  0.0424
97961W        W72949   5.820  32.439  23.998 -0.3486  0.1638 -0.0248
97962W        W72950  34.306   8.210   0.175  0.3649 -0.0356  0.2234
97963W        W72951   9.787  12.196   0.449 -0.1419 -0.1614 -0.1947
97964W        W72952  15.851  35.286   9.436  0.2275  0.0106 -0.0531
97965W        W72953  35.174   6.023  20.768 -0.0983 -0.0025 -0.0599
97966W        W72954  13.043   7.346   3.446 -0.1919 -0.2220  0.1352
97967W        W72955  33.852  32.956  14.750 -0.1561  0.1708  0.0120
97968W        W72956  15.916  19.425  12.641 -0.4221  0.1527  0.0943
97969W        W72957  33.343  17.754  24.914  0.1195  0.0619 -0.1846
97970W        W72958  29.379   2.749  10.615 -0.1800  0.0912  0.1207
97971W        W72959  21.376   3.709  17.876  0.0831 -0.2170 -0.2815
97972W        W72960   0.152   4.317   6.675 -0.1724  0.2227 -0.1323
97973W        W72961  34.258  20.124  11.326  0.2185 -0.0795 -0.0522
97974W        W72962  13.807   5.544  10.081  0.2014  0.1528  0.1345
97975W        W72963   9.607  16.877  10.422  0.0432 -0.0279 -0.3745
97976W        W72964  26.768  27.807  22.438  0.1775  0.1325  0.0445
97977W        W72965  26.152   4.557   4.580 -0.1071 -0.3029 -0.2842
97978W        W72966   6.908   2.000  10.035 -0.0336  0.2880  0.1534
97979W        W72967  16.345  15.421  21.519  0.1978 -0.1408  0.3128
97980W        W72968   3.775  12.481   3.440 -0.1311  0.0118  0.0666
97981W        W72969  35.319  32.549  25.030  0.1767 -0.0489 -0.3114
97982W        W72970  19.711  24.653   8.833 -0.2222  0.1174  0.1891
97983W        W72971  11.034  17.225  24.371  0.0639  0.2907  0.0765
97984W        W72972  24.496   1.528  15.773 -0.2518 -0.1613 -0.1664
97985W        W72973  13.459  13.065   9.848  0.0418  0.0792 -0.0081
97986W        W72974   3.826   6.016   8.471  0.1530  0.1498  0.2325
97987W        W72975  24.025  14.934  22.790  0.0998 -0.0334  0.3260
97988W        W72976  24.965  14.209  13.348  0.2281  0.1207 -0.1401
97989W        W72977  21.105   0.501  17.351 -0.2949 -0.1462 -0.2205
97990W        W72978  19.293  27.142  22.168 -0.1772  0.2388  0.0065
97991W        W72979  31.871  10.978  20.396  0.3693  0.1217 -0.0533
97992W        W72980  19.726  31.786   4.190  0.1133  0.0158  0.2474
97993W        W72981  24.029  20.250  10.996  0.2652  0.0311  0.0809
97994W        W72982  33.679  28.101  16.707 -0.3208 -0.2190  0.2901
97995W        W72983  19.986   4.143  10.148 -0.0781  0.1022  0.0025
97996W        W72984  25.757   0.467  11.307  0.0325 -0.0713  0.0246
97997W        W72985   6.806  26.916   9.972  0.3392  0.2492  0.1251
97998W        W72986  26.895  15.968   6.958 -0.0114  0.0435 -0.0426
97999W        W72987  32.460  32.923  14.489  0.0144  0.2400  0.0172
98000W        W72988   7.315  11.833  11.829 -0.0336 -0.0671 -0.1575
98001W        W72989   7.292   4.375  18.997  0.0923  0.0034  0.1516
98002W        W72990   2.144  34.045   4.533 -0.0898  0.1008  0.0478
98003W        W72991  26.679  32.514  21.040 -0.1534  0.2348 -0.0208
98004W        W72992  29.738  25.267  23.164  0.0069  0.0392  0.3700
98005W        W72993  33.146  19.381  25.492 -0.1197  0.0718  0.1468
98006W        W72994  21.714   3.905  20.537 -0.0876  0.0246  0.1553
98007W        W72995  29.079  16.026   6.120 -0.0848 -0.0152  0.0336
98008W        W72996   2.453  16.909   2.381 -0.0492 -0.0757  0.2247
98009W        W72997   9.144  29.683   7.447 -0.1250 -0.1995 -0.1651
98010W        W72998  28.640  32.646  16.338  0.0716 -0.0378 -0.2705
98011W        W72999  29.941   7.130  16.081 -0.0394  0.2304  0.0217
98012W        W73000   0.568  18.723   9.312  0.0734  0.3114  0.0136
98013W        W73001  25.311  10.966  23.296  0.0876 -0.2189  0.1793
98014W        W73002  11.280  33.061   2.577 -0.2252  0.3383  0.1687
98015W        W73003  11.379  12.415  20.637 -0.1708 -0.0248 -0.1785
98016W        W73004  25.446   7.452  25.861  0.1766 -0.2163 -0.4331
98017W        W73005  30.268   5.661  10.225 -0.1323 -0.0050  0.0181
98018W        W73006  13.052   5.460  23.342 -0.1345  0.0910 -0.1170
98019W        W73007  28.363   3.087  24.271 -0.1410  0.1099  0.1080
98020W        W73008  14.126   3.361   8.394 -0.0584  0.2442  0.0986
98021W        W73009  31.701  27.195  14.165  0.0356 -0.2074  0.0601
98022W        W73010  19.609   0.400   3.428  0.3260  0.1222 -0.2785
98023W        W73011   9.793  11.398  25.606  0.1401  0.2015 -0.3794
98024W        W73012   9.039   9.594  11.768 -0.3736  0.0310  0.1240
98025W        W73013   7.639   9.505   4.064 -0.3946  0.0150 -0.3385
98026W        W73014  11.039   4.403   5.662  0.2106  0.1495  0.1320
98027W        W73015  20.150   7.748   5.871 -0.3334 -0.0595 -0.2145
98028W        W73016  14.676  30.526  22.271 -0.1091 -0.3417 -0.0126
98029W        W73017  10.444  22.794  10.239  0.1365  0.0795  0.0913
98030W        W73018  24.634  10.474   1.418  0.2288  0.0400  0.2933
98031W        W73019  23.995  10.643  19.931  0.1186 -0.2560  0.0235
98032W        W73020  30.978   1.912   6.774  0.2242  0.1474  0.4038
98033W        W73021  19.348  15.386   1.747  0.2220  0.2463 -0.2716
98034W        W73022  35.349  31.601   7.574  0.2320 -0.1475  0.1156
98035W        W73023  26.877  21.227  10.284 -0.0038  0.1686  0.0778
98036W        W73024   9.762  25.481  13.371  0.2653  0.0959 -0.0922
98037W        W73025   9.069  23.960   4.449 -0.0061 -0.0861 -0.0243
98038W        W73026   3.349  26.655   0.471  0.3742 -0.0181 -0.1793
98039W        W73027  25.853  27.862  21.562 -0.0000  0.2353 -0.3019
98040W        W73028  27.123   6.966   1.722 -0.0960  0.0299 -0.0146
98041W        W73029  18.766  15.456   8.483 -0.1632 -0.2729 -0.4138
98042W        W73030  18.966  15.928   5.708  0.0567 -0.2633 -0.0114
98043W        W73031  18.498  29.318  18.489  0.3318 -0.1135 -0.2919
98044W        W73032  30.785  28.839  22.385 -0.3206 -0.1921  0.1357
98045W        W73033  14.632  26.816  22.438  0.1024  0.1821 -0.1376
98046W        W73034  21.988  15.541  15.199 -0.0448 -0.2367 -0.2934
98047W        W73035  31.139   1.878  15.793 -0.2824  0.0530  0.3214
98048W        W73036   7.481   3.639   6.509  0.1931 -0.2098 -0.2503
98049W        W73037  20.337   1.422  24.089  0.3971 -0.0627  0.1703
98050W        W73038   4.401   6.227   0.016  0.0533  0.0818 -0.0514
98051W        W73039  26.634  31.242  16.581  0.0819  0.3960  0.0787
98052W        W73040  28.774  20.443  13.742  0.0698 -0.2525  0.2494
98053W        W73041  15.259  10.470   0.402 -0.1792 -0.1040 -0.0399
98054W        W73042  20.272  19.930  21.409 -0.0517  0.0724  0.2943
98055W        W73043  21.972   6.822  25.047  0.0481  0.0987  0.0520
98056W        W73044   7.730   5.892  23.055 -0.1644 -0.1993 -0.3931
98057W        W73045  10.214  34.002   1.320 -0.0708  0.4448 -0.0221
98058W        W73046  24.169   3.812   3.211 -0.0019  0.0969 -0.1037
98059W        W73047  26.967   3.760   2.401  0.2212  0.2766  0.1004
98060W        W73048  26.169   5.353  15.749 -0.1959  0.1587 -0.2135
98061W        W73049  32.808  14.937  24.801  0.2231  0.1671  0.2255
98062W        W73050   5.980  25.473   6.693 -0.0020 -0.3735 -0.0237
98063W        W73051   4.164  33.249  23.309 -0.0704  0.0495 -0.1284
98064W        W73052  25.714  24.515  10.688  0.2217 -0.2822  0.1446
98065W        W73053   3.893  32.192  21.401  0.0177  0.1082 -0.0087
98066W        W73054  16.263  24.668   4.838 -0.0951 -0.1266  0.1879
98067W        W73055   5.358   3.211   7.520 -0.0406  0.0378 -0.0192
98068W        W73056  23.633  18.363  14.030  0.0242  0.1322  0.2168
98069W        W73057  20.925  13.111  19.773 -0.1758  0.0362  0.4662
98070W        W73058  22.053  30.230  14.080 -0.3224 -0.2334  0.2643
98071W        W73059   8.702  29.567  21.499  0.0755  0.1759 -0.3261
98072W        W73060  28.745  13.943  20.812  0.3060 -0.4449 -0.0282
98073W        W73061  20.118   0.263  16.726  0.4294 -0.1398 -0.1140
98074W        W73062  25.059  12.427  12.516  0.2017  0.0315 -0.1143
98075W        W73063  19.699   2.509  18.781  0.1233 -0.1519 -0.1084
98076W        W73064  10.935  30.178  23.069 -0.1219 -0.1916 -0.2234
98077W        W73065   8.234  13.602   1.664 -0.0314 -0.3342 -0.3256
98078W        W73066  18.954   5.835   7.674 -0.0372  0.2037 -0.0875
98079W        W73067  27.082   5.499  13.371  0.2034  0.0040  0.4820
98080W        W73068   2.151   6.473   3.985  0.2349  0.0861  0.0656
98081W        W73069  11.080  22.770  22.754  0.2149  0.0166 -0.5544
98082W        W73070   8.627   7.363  25.780 -0.4438 -0.1318 -0.0221
98083W        W73071  33.996   9.579  20.239 -0.1169  0.0948 -0.0993
98084W        W73072  27.839  22.807  22.214  0.0675 -0.0329 -0.2384
98085W        W73073   3.675  11.907  24.874 -0.1022 -0.0013  0.0658
98086W        W73074  19.162  23.979   9.205  0.5131 -0.1391 -0.2477
98087W        W73075  10.860  23.343  16.155  0.1182 -0.1893  0.1771
98088W        W73076  33.789  14.031  18.068 -0.2147  0.2763  0.0593
98089W        W73077   0.193  17.615  13.281 -0.2881 -0.0377 -0.2075
98090W        W73078  25.977   3.093  17.684  0.0752  0.0208  0.1314
98091W        W73079  22.041   7.414  25.885  0.2339  0.2801  0.0844
98092W        W73080   2.386   0.930   4.562 -0.0980  0.0909  0.1238
98093W        W73081  19.921   1.132  20.366  0.1427  0.0449 -0.0281
98094W        W73082   5.358  17.622  23.074 -0.0385 -0.0705 -0.0005
98095W        W73083   9.575  29.832  16.567  0.2327  0.2303 -0.0311
98096W        W73084  10.650  10.970  11.274  0.1416 -0.2680 -0.0958
98097W        W73085   8.890  27.360   0.801 -0.3199 -0.4075  0.1370
98098W        W73086   9.462  24.700   8.139  0.0436  0.1414  0.1646
98099W        W73087   2.627  31.119  17.913 -0.0360  0.0096 -0.0499
98100W        W73088  24.389  35.219   3.542 -0.0064 -0.0263  0.0941
98101W        W73089  14.109  21.179   7.911  0.0750 -0.1326 -0.3353
98102W        W73090   8.854  32.484   6.287  0.0498 -0.1926 -0.0962
98103W        W73091  33.647   7.483  15.905 -0.2454 -0.1548 -0.2663
98104W        W73092   1.236   3.688  16.391 -0.0944  0.0974 -0.0026
98105W        W73093   8.836  32.757   4.433  0.2320 -0.0884  0.3307
98106W        W73094  14.267  35.222  22.086  0.0481  0.1163 -0.3947
98107W        W73095  11.344  27.547  17.621  0.0459  0.0595 -0.0170
98108W        W73096   6.271  12.565  21.784 -0.3352 -0.0034 -0.2688
98109W        W73097   4.836   5.882   1.475 -0.4574  0.1768 -0.1984
98110W        W73098   7.560   0.860   8.579  0.0388 -0.0727 -0.1009
98111W        W73099   6.565  33.176  23.365 -0.1911  0.1947  0.0403
98112W        W73100  26.956  31.929   2.732  0.1521  0.2654  0.0190
98113W        W73101  32.190   0.292   2.528 -0.0896 -0.0176  0.1036
98114W        W73102  32.063  26.298  12.486 -0.2252  0.2702 -0.4804
98115W        W73103  21.774  17.269  21.317  0.3441 -0.2610 -0.3211
98116W        W73104  29.205  33.746  15.574  0.0536  0.1114 -0.1422
98117W        W73105  15.030  23.412   3.080  0.1344  0.0177  0.1568
98118W        W73106  14.705   0.637   0.190 -0.1608  0.0987  0.0833
98119W        W73107  28.646  22.931  20.341 -0.0360 -0.0451 -0.3059
98120W        W73108  11.440  26.757   9.812  0.2062  0.1580  0.1556
98121W        W73109  10.027   0.936  15.460 -0.0840  0.0548  0.1129
98122W        W73110  16.858  16.878  25.777 -0.2410 -0.2505  0.1108
98123W        W73111  34.062  21.050  20.391 -0.0702 -0.0848 -0.1544
98124W        W73112  33.640  31.336  23.140  0.0984  0.2812 -0.3310
98125W        W73113   6.125  25.224   5.809 -0.2440  0.0023  0.2917
98126W        W73114  22.026  32.328   3.226 -0.3168 -0.1468  0.1621
98127W        W73115   6.230  35.348   8.317 -0.0165 -0.0977  0.1585
98128W        W73116   5.680  30.341  23.710  0.1819  0.0469 -0.2571
98129W        W73117  26.462  22.978  10.042 -0.3993  0.2325 -0.2398
98130W        W73118  31.694  20.985  12.153  0.0344  0.0474 -0.1059
98131W        W73119  17.987   9.140  18.412  0.0646 -0.0008  0.2245
98132W        W73120  17.647  18.544  22.220 -0.0565 -0.1660  0.0127
98133W        W73121  25.806  17.289  12.228 -0.1500 -0.2376 -0.0739
98134W        W73122  13.930  35.168   5.493  0.1262  0.1332  0.1985
98135W        W73123  14.077  28.374   5.194  0.1274  0.0110 -0.0227
98136W        W73124   3.981  23.236  19.595 -0.3206  0.0445  0.4510
98137W        W73125  19.313  12.909  17.450 -0.2252 -0.3742  0.2574
98138W        W73126  26.558  28.289  19.230 -0.0353 -0.0201 -0.1510
98139W        W73127  24.813  28.124   3.829  0.1530 -0.1846  0.4084
98140W        W73128  19.207  20.422  10.445  0.0055 -0.0421  0.0248
98141W        W73129   1.035  20.790  12.570  0.0139 -0.0020  0.2079
98142W        W73130  28.533   5.912  20.099 -0.1609 -0.0979  0.0914
98143W        W73131  25.656  24.922   1.257  0.3672 -0.0957 -0.0031
98144W        W73132  33.374  24.266  17.222 -0.1072  0.1212  0.3311
98145W        W73133  26.311   9.796  24.925  0.0236 -0.1066 -0.0110
98146W        W73134  19.392  13.913   6.085 -0.1884 -0.0797 -0.0058
98147W        W73135  31.776  26.232  12.901 -0.1583  0.2465 -0.0780
98148W        W73136  23.851  25.010  24.914 -0.0034  0.1022  0.1212
98149W        W73137  13.620   5.002   6.809  0.2145 -0.0142  0.1115
98150W        W73138   2.469   1.619  16.466  0.0292 -0.0460  0.4549
98151W        W73139  15.722  32.349  10.195  0.0847  0.0461  0.0679
98152W        W73140  20.886   8.611  19.319 -0.0011 -0.3127  0.1296
98153W        W73141  20.269  31.174   5.049  0.1416 -0.1275  0.1270
98154W        W73142  30.599  33.501   3.803 -0.0223  0.1822 -0.3009
98155W        W73143  34.872  12.246  24.767 -0.0188  0.0891  0.1890
98156W        W73144  11.015  12.206  10.506  0.0397  0.1718  0.2450
98157W        W73145   5.288   0.520  24.673  0.1835  0.4480 -0.0847
98158W        W73146  22.726  14.787  22.426 -0.2355 -0.1743  0.0747
98159W        W73147  15.555  17.704   1.535 -0.1577  0.1260  0.2171
98160W        W73148  21.629   3.264   1.760  0.3330  0.1294  0.0838
98161W        W73149   3.359  12.368   2.048  0.1036  0.0464  0.1376
98162W        W73150  14.394  13.352   4.676 -0.0753  0.1122 -0.0337
98163W        W73151  22.686  30.688   0.285 -0.0056  0.3239  0.0601
98164W        W73152  17.605  28.556   8.288  0.1378  0.2580  0.2002
98165W        W73153   1.427  20.859  13.495 -0.1225  0.3033 -0.0627
98166W        W73154   3.019   8.350  15.282 -0.0012 -0.1166 -0.0008
98167W        W73155   9.306  30.474  13.453  0.1189 -0.0288 -0.0623
98168W        W73156   8.628   7.638  10.023 -0.1179  0.1536 -0.4781
98169W        W73157   5.991  16.236   2.769  0.0125 -0.0793 -0.2580
98170W        W73158  30.841  15.731   8.314 -0.0577  0.1018 -0.0941
98171W        W73159  32.387  34.316  24.950  0.2977 -0.0374  0.2499
98172W        W73160  14.911   0.691  17.124  0.1254  0.1342  0.0555
98173W        W73161  10.312   6.867   1.953  0.2877  0.1406  0.0500
98174W        W73162  11.980  33.647   3.329  0.0300 -0.1292  0.3288
98175W        W73163  14.877  17.655  23.872  0.0215  0.0727  0.0086
98176W        W73164  28.668  17.497  14.119  0.1326  0.0124 -0.1562
98177W        W73165  22.208  16.091  23.946  0.0271 -0.0282  0.2100
98178W        W73166  19.312  34.163  17.978 -0.2706  0.2862  0.3127
98179W        W73167  29.533   0.860  12.860 -0.1225  0.0461  0.1734
98180W        W73168  13.836  20.795   8.934 -0.0034  0.4144 -0.2073
98181W        W73169  33.529  18.759  12.358 -0.1717  0.0672  0.0421
98182W        W73170  24.518  32.842  26.084 -0.4294 -0.0506 -0.1415
98183W        W73171  21.740  23.939  25.014  0.1777 -0.2520  0.1147
98184W        W73172  32.160  30.931   5.967  0.3424 -0.1826 -0.2598
98185W        W73173  30.235  29.242   3.542  0.1944  0.0014 -0.2625
98186W        W73174   9.844   9.087  10.838 -0.2124 -0.2716 -0.2428
98187W        W73175  26.022  15.481  17.578 -0.0126  0.1208  0.0852
98188W        W73176  23.316  35.353  17.862 -0.1174 -0.1212 -0.0298
98189W        W73177  26.198  13.917  23.826  0.0777 -0.2660  0.0687
98190W        W73178  15.571   5.740   3.258  0.0562  0.0906 -0.1521
98191W        W73179   0.027  20.628  23.363 -0.2241 -0.1415 -0.1727
98192W        W73180  33.469  12.291   7.819 -0.0186 -0.0822 -0.2221
98193W        W73181  27.228  17.739  12.690  0.0753  0.0851 -0.1540
98194W        W73182  31.463  20.329   6.518  0.0380  0.0192 -0.1065
98195W        W73183   6.854  27.418   1.733  0.1480 -0.0025 -0.4598
98196W        W73184  31.870  19.702   7.366  0.0229  0.1116  0.0417
98197W        W73185  30.972  17.197   8.652 -0.1667 -0.0245 -0.0479
98198W        W73186   6.154  28.523  13.870 -0.0969 -0.0370  0.5290
98199W        W73187   9.667  34.932  13.223 -0.1046 -0.1380 -0.1467
98200W        W73188  28.352   4.210   2.857 -0.0582 -0.0005  0.0544
98201W        W73189   1.868   2.562  19.419 -0.1386  0.0585 -0.1849
98202W        W73190  26.144  10.016  16.579  0.0151  0.0695  0.1988
98203W        W73191  28.720  23.659  12.189  0.0699 -0.0527  0.2719
98204W        W73192  30.194   1.520  19.262  0.0090  0.1242  0.0122
98205W        W73193  22.498   6.252   5.451 -0.1161 -0.1143  0.0506
98206W        W73194   9.333  26.175  21.560 -0.2717  0.0441 -0.1456
98207W        W73195  12.007  12.417  24.733  0.5058  0.2402  0.2863
98208W        W73196   5.391  20.443  22.439  0.1472  0.1659  0.0973
98209W        W73197  29.741  22.363   7.464  0.1661  0.3562  0.0550
98210W        W73198   7.981  33.205  24.181 -0.0696  0.0541 -0.3060
98211W        W73199   1.983   7.494   3.547  0.0168 -0.2532  0.2561
98212W        W73200  30.514  17.711  17.296 -0.0495 -0.1183 -0.0023
98213W        W73201   7.250  22.164   7.895  0.0711 -0.4118  0.0061
98214W        W73202   8.846  34.491   0.280  0.1980  0.2969  0.2787
98215W        W73203  15.298   2.962  24.554 -0.6364 -0.0643  0.2080
98216W        W73204   8.579   6.805  22.450 -0.3736 -0.0663 -0.2773
98217W        W73205   9.209  28.435  25.260  0.2338 -0.1463  0.0746
98218W        W73206   1.732  29.358   6.258 -0.2214  0.2368  0.0752
98219W        W73207   5.334  18.380   5.363  0.1650 -0.1344 -0.0684
98220W        W73208  31.845   7.698  25.497 -0.2054  0.0421 -0.0415
98221W        W73209  26.486   8.414  21.110 -0.0501 -0.0134  0.2124
98222W        W73210   3.757  31.268   5.144 -0.0813  0.1664  0.1941
98223W        W73211  34.884  29.381  20.438  0.2866 -0.0479  0.3540
98224W        W73212  13.729   7.603  10.640 -0.0432  0.0111  0.0762
98225W        W73213   3.065  11.789   1.798  0.1529 -0.1705 -0.1494
98226W        W73214  27.107  31.093  23.877 -0.0720 -0.0406 -0.0662
98227W        W73215   2.267  25.465  20.806 -0.1525 -0.1352  0.0451
98228W        W73216  23.397  13.100  19.698 -0.4970 -0.3665 -0.2009
98229W        W73217   8.665   4.856  21.095 -0.1784  0.0736 -0.1272
98230W        W73218   2.717   4.930   2.595  0.4614 -0.0095  0.2542
98231W        W73219  26.179  30.003  16.930  0.0180  0.0413 -0.0904
98232W        W73220   9.447   0.284   9.583 -0.0385 -0.1620 -0.0242
98233W        W73221  33.454  12.669  10.456  0.3751  0.1243 -0.0622
98234W        W73222  10.588  15.124  20.447  0.2044 -0.1190  0.1947
98235W        W73223  29.779  30.517  13.084 -0.1652  0.0703 -0.2905
98236W        W73224  32.993  34.786  25.928  0.2304  0.4362  0.3538
98237W        W73225  10.478  11.118  10.841  0.1444 -0.1426 -0.1009
98238W        W73226   8.247   6.582  11.430  0.0540 -0.3383  0.3294
98239W        W73227  12.202   0.677   7.094 -0.4214  0.0746 -0.1885
98240W        W73228  11.201  26.105   7.719 -0.3209 -0.0900  0.1536
98241W        W73229  24.794  12.013  18.919 -0.1376 -0.2292  0.1452
98242W        W73230   4.349  23.562  20.937  0.0504 -0.4367  0.1259
98243W        W73231  31.125  16.306  26.059  0.1636 -0.1209 -0.2177
98244W        W73232   9.558  17.229   6.726 -0.1315 -0.3803  0.0462
98245W        W73233  10.590  32.205   5.900 -0.2905  0.1542  0.2400
98246W        W73234   8.288  13.520   6.137 -0.3063 -0.2257 -0.2825
98247W        W73235   7.582  34.861   3.804 -0.2002 -0.0817 -0.2583
98248W        W73236  13.439  13.159  19.459 -0.0392 -0.0791 -0.1273
98249W        W73237  34.944   0.408  16.154  0.2531 -0.1314  0.0752
98250W        W73238   7.415  14.127   1.953 -0.0721  0.3133  0.0867
98251W        W73239  14.465  10.126  19.442 -0.1014  0.3265 -0.1822
98252W        W73240   3.865   9.887   3.378  0.1229  0.1596  0.0512
98253W        W73241   9.092  33.072  12.375 -0.0502 -0.2253  0.1511
98254W        W73242  29.109  21.015  25.803  0.1562  0.0686 -0.0654
98255W        W73243  29.396  28.764   3.266  0.0738 -0.1151  0.2965
98256W        W73244  29.679  14.254   6.762 -0.0205  0.0829 -0.0366
98257W        W73245  31.456  31.548   4.931 -0.4164  0.1869  0.1319
98258W        W73246  23.364   7.609   4.365  0.1161  0.2134 -0.1192
98259W        W73247  10.725  21.915  23.668  0.3005 -0.0092  0.0206
98260W        W73248  23.439  27.179  14.663  0.0810 -0.1267  0.0173
98261W        W73249  29.644  15.651   7.023 -0.1596 -0.2526 -0.0453
98262W        W73250   9.599  29.371  23.316  0.2439  0.0692  0.1660
98263W        W73251  28.562   2.883   2.860 -0.0942  0.0048 -0.5342
98264W        W73252  21.211   1.490   2.201  0.2957 -0.3608  0.0416
98265W        W73253  15.055  32.706  12.373  0.1847  0.3088 -0.0371
98266W        W73254   9.944  12.387  11.330 -0.2138 -0.2058  0.1102
98267W        W73255  20.277  10.316  18.416 -0.3329 -0.0163  0.2109
98268W        W73256  31.977   8.319  10.335 -0.2810 -0.1928  0.2200
98269W        W73257  26.019  34.473  25.580 -0.3841  0.1245 -0.2076
98270W        W73258  28.898   5.394  11.856  0.2293 -0.0770 -0.0761
98271W        W73259   0.126   7.282   3.257  0.0226 -0.1091 -0.1235
98272W        W73260  32.102  23.327  20.383 -0.1448 -0.0384 -0.1559
98273W        W73261   1.314  16.679  20.303  0.3898  0.1625  0.0734
98274W        W73262  25.251  12.556  19.716  0.2469  0.0519  0.3326
98275W        W73263  14.317   6.629  24.678 -0.0443 -0.1629 -0.1469
98276W        W73264   5.539   9.511   1.997  0.1506 -0.0070 -0.0459
98277W        W73265   5.966  12.369  25.158  0.2553  0.3306  0.1970
98278W        W73266  24.505   2.129   3.677 -0.1559  0.2397  0.0013
98279W        W73267   8.328  19.458   7.594  0.2570  0.0749 -0.0363
98280W        W73268  21.276  27.517  20.518 -0.1497  0.2632 -0.0247
98281W        W73269  22.386  24.235  23.825  0.1125 -0.2842  0.1289
98282W        W73270  23.127  31.639   0.807  0.1055 -0.2274  0.0544
98283W        W73271  14.193  22.113   4.128  0.0818 -0.1082 -0.3290
98284W        W73272  26.400   7.672   0.713  0.0373 -0.1103  0.1408
98285W        W73273  13.460  25.121  14.804 -0.1994 -0.1620  0.1316
98286W        W73274   6.888  19.638  25.029 -0.2219  0.0455 -0.2181
98287W        W73275  34.160  20.973  13.191 -0.1561 -0.1138  0.0581
98288W        W73276  27.200  21.904  22.250  0.0154 -0.2354  0.0678
98289W        W73277  15.718  29.796   0.720  0.1973 -0.1765  0.1937
98290W        W73278  28.354  10.251  17.423 -0.0634  0.1541  0.0531
98291W        W73279  21.092  15.991   6.171  0.1533 -0.3743 -0.0589
98292W        W73280  34.783  24.452  17.388  0.0432  0.2662  0.0126
98293W        W73281   5.490  10.131   8.104 -0.1867  0.1599 -0.0955
98294W        W73282  32.618  30.213  14.124 -0.0556  0.0559 -0.0241
98295W        W73283  21.208  33.486   6.818 -0.3893 -0.1236 -0.0484
98296W        W73284  31.893   5.139   3.213 -0.1813 -0.0342  0.1588
98297W        W73285  23.231   7.579   0.576  0.2142 -0.2617 -0.1033
98298W        W73286   9.944  31.506  26.234 -0.0522 -0.5045 -0.1695
98299W        W73287   1.459   4.523  20.068  0.1959  0.2269 -0.0588
98300W        W73288   5.039  23.677   6.430 -0.1029  0.2012 -0.0010
98301W        W73289  27.592  33.444  20.593 -0.0682  0.0624  0.1200
98302W        W73290  14.609  20.813  13.599 -0.4111  0.0725 -0.0017
98303W        W73291  11.535   3.842  24.635 -0.3580  0.0726  0.3742
98304W        W73292  16.662   4.746   6.694 -0.0275 -0.0722  0.1406
98305W        W73293  32.380  32.235   5.740  0.1672  0.0770 -0.0853
98306W        W73294  27.220   4.498  24.732  0.2278 -0.0076 -0.0510
98307W        W73295  13.119  17.845   6.880 -0.0028 -0.0454  0.2356
98308W        W73296  35.200  30.870   1.205 -0.2178 -0.1247 -0.3095
98309W        W73297  28.851  23.496  18.751  0.2150  0.0005  0.0217
98310W        W73298  18.469  22.129  24.747 -0.1070  0.0932 -0.3067
98311W        W73299  22.643  28.302  25.835 -0.0958 -0.0940  0.0074
98312W        W73300   7.985  31.219  10.080 -0.1190 -0.0046  0.2173
98313W        W73301  28.466  34.186  16.783  0.2053 -0.0183  0.2590
98314W        W73302  25.276   1.130  26.227 -0.1129  0.0716  0.0978
98315W        W73303  15.318  33.618   1.196  0.1734 -0.0645 -0.0933
98316W        W73304   6.392  18.309   8.072 -0.3152 -0.3654 -0.3364
98317W        W73305  33.763   4.687  14.103 -0.1336  0.3037  0.2609
98318W        W73306  12.428  25.141  11.198  0.0305  0.1060 -0.1895
98319W        W73307  25.492  28.307  23.701  0.0254 -0.3930 -0.2840
98320W        W73308  23.418   8.432  24.927 -0.0949 -0.1659  0.1175
98321W        W73309  19.002   5.690   1.182 -0.1939 -0.2753  0.2802
98322W        W73310  17.712  24.473  21.558  0.1341  0.2421 -0.2505
98323W        W73311  22.699  15.398   1.430 -0.1007 -0.0108  0.0052
98324W        W73312   3.409  32.145  24.961  0.0218 -0.0280  0.1871
98325W        W73313  23.975  28.206  16.425  0.1326 -0.1882 -0.1792
98326W        W73314  27.141  20.733  18.494 -0.1207 -0.1787 -0.0471
98327W        W73315  20.215  33.926   0.835  0.0071 -0.0771 -0.0143
98328W        W73316  11.598  23.320  11.649 -0.1185  0.1164 -0.0551
98329W        W73317  35.196  32.189  18.458 -0.0653  0.1372 -0.0940
98330W        W73318  33.985  17.437  19.711 -0.0458  0.1745 -0.0807
98331W        W73319  12.440  16.192  20.317  0.0124 -0.2815 -0.3017
98332W        W73320  34.154  25.573   0.041 -0.0437 -0.2254 -0.1404
98333W        W73321  24.558  27.621  14.139 -0.3298  0.1329  0.2875
98334W        W73322  32.152  29.176   0.188 -0.1015 -0.0510 -0.0664
98335W        W73323  20.286   1.358  23.505 -0.3397 -0.0898 -0.0607
98336W        W73324  32.541  34.182   3.850 -0.0974  0.0113 -0.2706
98337W        W73325   5.610  26.893   9.617 -0.0223  0.1906  0.0615
98338W        W73326  29.755  12.572   8.479  0.1255  0.2416  0.2026
98339W        W73327  27.273  20.751  21.784 -0.1975 -0.1559 -0.1076
98340W        W73328   5.070  28.068  12.104 -0.0334  0.1385  0.0784
98341W        W73329   2.460  35.309  21.335  0.3497  0.1548 -0.0151
98342W        W73330  17.363  18.627   8.270  0.3277 -0.0491 -0.4627
98343W        W73331  33.000  17.797  11.592  0.2047 -0.0118 -0.0144
98344W        W73332  14.135   0.985  19.922  0.0620  0.0987  0.3009
98345W        W73333  27.696  32.537   0.087  0.2004  0.1060  0.1861
98346W        W73334   5.182  16.483  17.087 -0.0405 -0.1600 -0.0266
98347W        W73335  28.511   5.492  20.996  0.0202  0.2275 -0.0625
98348W        W73336  14.483  19.023  22.066  0.0952  0.1015  0.1784
98349W        W73337  34.972   9.857  21.753  0.3112 -0.1409 -0.0292
98350W        W73338  35.196   9.604  23.469  0.1642 -0.3436  0.0692
98351W        W73339   0.006  27.903   1.035 -0.3490 -0.3010  0.2556
98352W        W73340  10.279  25.903  24.606 -0.6599  0.0822  0.0435
98353W        W73341  19.951   2.773   2.449  0.0529 -0.0298 -0.1442
98354W        W73342  33.744   0.101   6.565 -0.1975 -0.1375 -0.1574
98355W        W73343  32.844  18.475  17.963 -0.0303 -0.1261  0.0489
98356W        W73344   5.558  11.392   3.081  0.0301  0.1778 -0.0886
98357W        W73345   5.100  28.347  13.767  0.3584 -0.1101  0.2421
98358W        W73346  30.800  24.539  20.930  0.1644  0.1326  0.3010
98359W        W73347  24.510  22.371   1.271 -0.1035 -0.1136  0.0598
98360W        W73348  22.556  15.685  17.419  0.0590 -0.1695 -0.2198
98361W        W73349  17.945  20.102   5.850 -0.0280 -0.0158 -0.0806
98362W        W73350  17.008  17.171  19.447 -0.1825  0.0432 -0.0144
98363W        W73351   2.505  21.318  23.551  0.2331 -0.3118  0.0592
98364W        W73352   9.799  27.981   7.348  0.0267 -0.3614  0.0674
98365W        W73353   0.240  33.088   7.237  0.3226  0.2950 -0.2463
98366W        W73354   9.333  28.898   5.909  0.3210  0.1710  0.0108
98367W        W73355  16.991  25.298   5.690  0.2806  0.0441  0.2004
98368W        W73356   2.528  22.371  21.445 -0.3836  0.1214  0.0400
98369W        W73357  23.833   7.201  24.227  0.1950  0.4495  0.4281
98370W        W73358  11.773  29.180   4.358 -0.0824 -0.0410 -0.0507
98371W        W73359  23.609  34.852   2.408 -0.1799 -0.1323 -0.0117
98372W        W73360  20.505  23.761  24.838  0.2026  0.0233  0.1582
98373W        W73361  17.916  12.850  25.175 -0.1832  0.2343 -0.1236
98374W        W73362  30.820  33.683  19.017 -0.0393  0.0914 -0.1307
98375W        W73363  16.251  24.488  23.883  0.0446 -0.1272 -0.0795
98376W        W73364  25.910  19.088  24.643  0.0880  0.0589 -0.3402
98377W        W73365   5.685  15.747   7.114  0.2018  0.1652 -0.0437
98378W        W73366  24.809   1.728   6.014  0.0644 -0.0883 -0.1359
98379W        W73367  13.865   3.258  25.932  0.0896  0.1328 -0.3952
98380W        W73368  15.961  22.186  11.260 -0.0913 -0.3543  0.0930
98381W        W73369  30.606   7.133  23.828  0.4057  0.0531 -0.0559
98382W        W73370  32.438  27.646   1.365  0.2819  0.1936 -0.1012
98383W        W73371   4.546  27.073   8.954  0.0395 -0.0726 -0.1791
98384W        W73372   1.629   2.303  15.619  0.5445 -0.4486  0.0015
98385W        W73373   5.985  11.059   3.966 -0.0041  0.1922 -0.0032
98386W        W73374  25.327  32.314  12.163 -0.0983 -0.0366 -0.1369
98387W        W73375  18.591  17.208  18.588 -0.1960  0.2187 -0.1179
98388W        W73376  31.667  25.275  25.306 -0.1085 -0.1144 -0.0355
98389W        W73377  18.062  24.100   2.233 -0.0145  0.3446  0.0099
98390W        W73378   0.694  12.903  24.172 -0.3132  0.2134 -0.4172
98391W        W73379   2.064  24.389  18.837 -0.0079  0.4764  0.1537
98392W        W73380  10.063  12.909  12.117  0.2969 -0.0670 -0.0113
98393W        W73381  29.381  14.553  25.857 -0.0286 -0.0507 -0.1677
98394W        W73382  14.877  22.481  14.221 -0.2708 -0.1774  0.1202
98395W        W73383   1.136  31.294   4.673 -0.0790 -0.1715  0.1229
98396W        W73384  21.779  24.161   3.253  0.0158 -0.2033 -0.0582
98397W        W73385  17.921  26.138   6.117 -0.3784  0.0960 -0.0056
98398W        W73386  29.280   2.763   3.951  0.0547 -0.0222  0.0527
98399W        W73387   6.725  20.822  22.435  0.1701  0.1603  0.2567
98400W        W73388  17.264   5.752   5.700  0.0949  0.2432  0.1954
98401W        W73389  24.450   8.885  12.795 -0.0027  0.0464  0.0334
98402W        W73390   4.481  26.773   4.101 -0.1555  0.3142  0.3345
98403W        W73391   4.231   5.073   7.065  0.0399 -0.2070  0.1879
98404W        W73392   9.016   8.398  10.575  0.1994  0.3441 -0.0373
98405W        W73393  14.983  10.451  12.763 -0.2605  0.1893 -0.1250
98406W        W73394  12.455  31.669  13.830  0.0342 -0.0896  0.1454
98407W        W73395   8.256  33.983   7.171  0.1302  0.0995 -0.3539
98408W        W73396  11.942   6.721   7.459  0.1614 -0.0196  0.4012
98409W        W73397   0.887  27.685  18.458 -0.0759  0.4142 -0.0143
98410W        W73398  15.678   3.829   9.755 -0.0126 -0.2732  0.1371
98411W        W73399  14.626  27.115   7.185 -0.0949 -0.0577 -0.3419
98412W        W73400  21.853   8.243   4.652  0.2464 -0.1392 -0.0407
98413W        W73401  27.847   6.585  12.904  0.0363 -0.2378  0.2472
98414W        W73402  16.498  14.557  22.729 -0.1773  0.0614 -0.1568
98415W        W73403   4.243  34.096   0.836 -0.2392 -0.1540  0.0207
98416W        W73404  25.303   4.276  14.025 -0.2444  0.5255  0.0004
98417W        W73405  13.132  27.873   6.880  0.1872  0.0501  0.1926
98418W        W73406   7.928   2.949   0.684 -0.3025 -0.1649 -0.0374
98419W        W73407  28.818  31.053  20.290 -0.2429 -0.1463 -0.0504
98420W        W73408   0.106  22.352  21.717  0.1292 -0.1418  0.1184
98421W        W73409  32.234  21.402   6.676  0.1663 -0.2095 -0.0043
98422W        W73410  23.376  21.004  18.653  0.1668  0.0842 -0.1884
98423W        W73411   3.281   2.479  24.115  0.0590  0.1904 -0.0191
98424W        W73412  34.787  33.290  17.109 -0.1042 -0.3492 -0.2825
98425W        W73413   4.107  17.721  16.458  0.1116  0.0112  0.1229
98426W        W73414  11.188  18.108   1.641  0.0771  0.1751 -0.2015
98427W        W73415  24.918   0.677   4.960 -0.1579 -0.0944 -0.1130
98428W        W73416   8.627  12.044   5.208  0.0803 -0.0009 -0.0930
98429W        W73417  20.447  27.130   1.304  0.1498 -0.0079 -0.1017
98430W        W73418   9.078  20.397   8.195  0.0910 -0.1764  0.1263
98431W        W73419   8.635  24.176   8.314 -0.0061 -0.1269  0.0712
98432W        W73420  27.969   7.080  12.958 -0.1222 -0.2049 -0.2479
98433W        W73421  16.195  15.271  20.374 -0.3158  0.1594  0.2541
98434W        W73422   0.213  34.983   5.820 -0.0162 -0.0614 -0.1805
98435W        W73423  28.504   6.351  15.384 -0.0602 -0.5564 -0.2140
98436W        W73424  18.671   0.637  21.691 -0.1532  0.0713 -0.1672
98437W        W73425  35.295  21.740  13.618  0.0626  0.0921  0.3925
98438W        W73426  27.367   4.854  12.380 -0.0933  0.2441  0.0990
98439W        W73427   2.013  10.898  26.032 -0.1564  0.2108  0.1933
98440W        W73428  19.793  27.654   2.751 -0.0917 -0.0290 -0.2296
98441W        W73429  35.167  10.421  12.042  0.3409  0.0066  0.0746
98442W        W73430  16.092  20.083   1.687  0.2726  0.0625  0.1425
98443W        W73431  11.298   0.593  11.531  0.1227 -0.2052  0.2967
98444W        W73432   6.831   9.906  17.672  0.3036  0.2846 -0.1369
98445W        W73433  31.847   8.207   1.222  0.0672 -0.2042  0.2068
98446W        W73434   1.672   4.863  22.674 -0.0462  0.0359 -0.0678
98447W        W73435   2.369  26.073  21.930 -0.1605 -0.3106 -0.0971
98448W        W73436   5.471  21.931  23.323 -0.1934 -0.3946  0.0506
98449W        W73437  29.611  10.123  21.331  0.4770  0.0936 -0.0815
98450W        W73438  28.384  27.117  18.924 -0.0113 -0.3769  0.1148
98451W        W73439  20.678   8.397   6.393  0.0861  0.0668  0.0057
98452W        W73440   8.632  12.473   6.175 -0.1150  0.2796 -0.2779
98453W        W73441  23.566  30.001  14.639  0.0035  0.1249 -0.0274
98454W        W73442  25.170  20.797  24.737 -0.0559 -0.2994 -0.2162
98455W        W73443  24.310   1.561  15.319  0.2889  0.1397 -0.0922
98456W        W73444  12.781  33.185  21.734  0.1745  0.1108 -0.2437
98457W        W73445  32.387  11.635  10.024 -0.1971 -0.0704  0.0590
98458W        W73446  23.704  27.587  11.717  0.0428 -0.0696 -0.1640
98459W        W73447  25.433  19.568  26.201 -0.0974  0.1208 -0.0509
98460W        W73448  17.440  19.203  10.174 -0.2121  0.1537 -0.0755
98461W        W73449   9.122  25.935  16.470  0.1361  0.2030  0.0875
98462W        W73450   7.283  23.272  23.706  0.1159  0.1280  0.2105
98463W        W73451  26.775  18.006  25.425  0.2315  0.2106  0.1267
98464W        W73452  16.355  18.728   4.614  0.2752  0.2703 -0.0226
98465W        W73453  31.605  33.068  12.156  0.0485  0.0227  0.3664
98466W        W73454  33.491   0.428   5.141  0.0904  0.2388 -0.0598
98467W        W73455  28.427  30.732  22.334 -0.1584  0.0651 -0.1028
98468W        W73456  23.364   3.296   7.259  0.1398  0.1088  0.2919
98469W        W73457  10.014   8.004   3.704  0.0034  0.0765  0.0986
98470W        W73458  21.370  16.605  17.839 -0.4305  0.3160 -0.1588
98471W        W73459  23.600   7.362  19.715 -0.1650 -0.0891 -0.0370
98472W        W73460  27.512  13.460  23.359  0.1811  0.0763  0.3683
98473W        W73461  10.006  29.902  13.545  0.5215 -0.2725 -0.1378
98474W        W73462  15.267  17.045  20.014  0.0698  0.1323  0.2542
98475W        W73463  27.314  17.678  25.466 -0.3358  0.0534  0.0525
98476W        W73464  20.956  24.272  19.809 -0.0598  0.0600 -0.1174
98477W        W73465  25.001  17.361   9.675 -0.2316  0.0414  0.0217
98478W        W73466   2.422   5.889  20.235  0.3994  0.2601  0.1528
98479W        W73467  17.050   4.304  24.785  0.0067 -0.1416 -0.1466
98480W        W73468   6.231   0.315   2.642  0.2134  0.0030 -0.1893
98481W        W73469  11.635   0.776  23.639 -0.3214  0.3488  0.2387
98482W        W73470   1.276  19.671  11.949 -0.0322 -0.3602  0.1932
98483W        W73471  20.643  34.570   3.547  0.2289 -0.0989  0.1876
98484W        W73472  27.057   2.732   4.121 -0.1797 -0.2549 -0.4212
98485W        W73473  19.741  15.727   4.682 -0.0540  0.0151  0.1936
98486W        W73474  35.268   0.475  16.739  0.2142  0.1083  0.1484
98487W        W73475  28.496   4.829  13.690 -0.1235  0.2402  0.1061
98488W        W73476   9.432  23.215   8.656  0.3333  0.2175  0.5447
98489W        W73477  29.663  27.629  25.820  0.0123 -0.0274  0.0983
98490W        W73478  18.565  18.185   0.996 -0.0819  0.1552  0.0924
98491W        W73479  21.967  34.738   1.038  0.1809  0.1173 -0.0731
98492W        W73480  35.367  18.863  16.846 -0.5076  0.0824  0.1271
98493W        W73481  11.738  19.538  11.785  0.2073  0.1799 -0.1235
98494W        W73482  16.041   6.580  10.146 -0.0383 -0.0612  0.0657
98495W        W73483   7.336  23.192  24.354  0.1279  0.0337  0.1852
98496W        W73484   1.044  31.762   6.006  0.0788  0.1043 -0.2936
98497W        W73485  23.046  30.552   3.365  0.3357  0.0274 -0.1584
98498W        W73486  10.510  14.740   6.781 -0.1172  0.4525  0.1428
98499W        W73487   8.615  25.800  25.106  0.2711 -0.2783  0.0116
98500W        W73488   4.764  30.001  24.011  0.0674  0.0364 -0.1278
98501W        W73489  15.151  35.271  21.505  0.2104  0.2132  0.0632
98502W        W73490  33.154   8.182   2.379 -0.1940 -0.0746 -0.0369
98503W        W73491   4.090   0.502   8.705  0.1561 -0.1702  0.1560
98504W        W73492  16.930  13.943   4.573 -0.1543  0.1295 -0.1630
98505W        W73493  28.480  10.224  20.522 -0.0728 -0.4153  0.0710
98506W        W73494  27.836   4.679  22.643 -0.0939 -0.2642 -0.0253
98507W        W73495  15.295  16.980   5.007  0.0829  0.1796 -0.2601
98508W        W73496  17.423   0.822   0.075  0.1235  0.0373 -0.0641
98509W        W73497  22.259  15.155  25.514 -0.1513  0.2340  0.2955
98510W        W73498  16.213   0.422   5.979 -0.2124  0.2373  0.0841
98511W        W73499   4.504   5.631   1.109  0.2160 -0.2486 -0.1276
98512W        W73500  12.149  13.043  10.397  0.0150  0.3494  0.1604
98513W        W73501  21.785  20.572  25.045 -0.2017 -0.1534  0.1372
98514W        W73502  34.261  29.602   4.349 -0.3124  0.1174 -0.0099
98515W        W73503  14.346  31.879  20.758 -0.1426  0.1403  0.0482
98516W        W73504  17.539   2.244   9.153 -0.0953  0.5227  0.1675
98517W        W73505  18.732  15.186  19.666 -0.4386  0.0178 -0.2015
98518W        W73506   1.679  18.921  11.658 -0.0276  0.0051  0.0664
98519W        W73507  32.956   8.147  22.928 -0.0643  0.3383 -0.2863
98520W        W73508   7.172   3.246  13.632  0.3091  0.0385 -0.0086
98521W        W73509  32.383  11.785  21.681 -0.2109 -0.1185  0.3408
98522W        W73510  32.799  30.812  22.938 -0.1150 -0.4756  0.0900
98523W        W73511  34.797   5.596  24.115 -0.1445 -0.1413  0.2724
98524W        W73512  12.097  13.550  12.666  0.1375  0.2059 -0.2288
98525W        W73513  31.448  11.605  10.445 -0.1700  0.1486  0.0974
98526W        W73514  13.206   2.032  10.191  0.0635 -0.3748  0.0547
98527W        W73515  28.465  14.446  21.494 -0.1089 -0.2258 -0.0163
98528W        W73516  10.853   0.982  21.752  0.3919 -0.0341  0.0292
98529W        W73517  25.431  27.593  16.862  0.1337 -0.0532  0.0904
98530W        W73518  15.607  34.128  20.531 -0.2303 -0.0887 -0.0220
98531W        W73519  12.917  25.972  10.172 -0.3305 -0.1514 -0.0091
98532W        W73520  23.443   5.545  25.068 -0.3038 -0.3303 -0.1136
98533W        W73521   3.090   9.890  16.740 -0.0117 -0.2047  0.1669
98534W        W73522  32.012   2.207  21.904 -0.3406  0.1853 -0.0275
98535W        W73523  12.807   7.019  24.066  0.1159 -0.3460  0.0041
98536W        W73524  27.087   1.758   0.591  0.3661 -0.0842 -0.0774
98537W        W73525  13.397  28.049  16.588 -0.1667 -0.3445 -0.1330
98538W        W73526  19.726  28.255   4.840 -0.0791  0.0100  0.1043
98539W        W73527   6.719  15.903   0.871 -0.0687 -0.1048  0.3631
98540W        W73528   3.721  24.178   6.947 -0.2155  0.2440  0.1668
98541W        W73529   5.009  16.376   7.380  0.0305  0.3527  0.1543
98542W        W73530  20.647  23.827  20.982  0.2030  0.1043 -0.2121
98543W        W73531  18.853  12.873   6.484  0.0949  0.2739  0.0869
98544W        W73532  18.213  27.191  22.099  0.0965 -0.0539 -0.0369
98545W        W73533  32.126  19.544  23.843  0.5565  0.0978  0.1712
98546W        W73534  31.980  18.076  19.134  0.0831 -0.1050  0.2896
98547W        W73535  21.408  26.602  24.777  0.0930  0.2356  0.1301
98548W        W73536   3.939   3.764   2.962  0.2730  0.2689  0.2807
98549W        W73537  23.007  18.753  25.718 -0.0761 -0.0130  0.3966
98550W        W73538   1.402  13.406  19.455 -0.2274  0.1107 -0.0753
98551W        W73539   1.190  30.159   3.541  0.1574 -0.0972 -0.4325
98552W        W73540  26.421  27.760  13.860 -0.0653 -0.0202 -0.3014
98553W        W73541   8.813  19.821   7.092 -0.3757 -0.2618  0.4025
98554W        W73542  15.256   6.188   3.435 -0.4072 -0.0474 -0.0843
98555W        W73543  27.301  14.351   6.094  0.1836 -0.3133 -0.1583
98556W        W73544   3.260   0.521   9.193 -0.0393 -0.1929  0.1763
98557W        W73545  25.371  14.258  14.209  0.2677 -0.2404  0.0493
98558W        W73546   0.902   4.951   4.838  0.2127  0.1996  0.1490
98559W        W73547  33.505  22.870   0.669  0.0817  0.2789  0.2938
98560W        W73548   2.139  31.492   2.526  0.0025  0.0269 -0.1631
98561W        W73549  26.802  17.417  19.224 -0.0547  0.3772 -0.1698
98562W        W73550  20.390  33.346  21.665 -0.1223 -0.1854  0.0939
98563W        W73551   9.207   3.819   2.432 -0.0251  0.1161 -0.3442
98564W        W73552  25.880  34.867  14.681  0.2883  0.3710  0.2066
98565W        W73553  31.390  12.663  20.957  0.1407  0.0903 -0.0888
98566W        W73554  18.224  22.560  19.580 -0.1017 -0.0062 -0.2049
98567W        W73555  28.147   1.156  26.106 -0.0988 -0.1122 -0.1299
98568W        W73556  19.253  14.177   9.905  0.0546 -0.1983 -0.0750
98569W        W73557  10.429   4.741  21.600  0.0101  0.0363 -0.2728
98570W        W73558  17.147  18.286   7.897  0.0824 -0.0256 -0.0352
98571W        W73559  17.836   0.412  19.705  0.1563 -0.0938  0.0844
98572W        W73560  22.994  25.139  18.048 -0.3620  0.1292  0.0717
98573W        W73561  30.334  25.400  22.090 -0.2646  0.0286 -0.1022
98574W        W73562  12.756   7.475   2.083  0.2889 -0.2308 -0.0411
98575W        W73563  10.637  21.590  24.048  0.0933  0.3262  0.0317
98576W        W73564  19.415  33.614   2.753 -0.0768  0.1525 -0.4391
98577W        W73565  17.890   4.305  17.389 -0.0612  0.2801 -0.3545
98578W        W73566  18.555   4.419  21.559  0.1139  0.4034  0.2421
98579W        W73567   3.035  33.555   8.789 -0.1023 -0.0771  0.1642
98580W        W73568  13.719   2.861  20.136 -0.3312 -0.0021 -0.0535
98581W        W73569  22.402   5.935  25.087 -0.1270  0.2889  0.1841
98582W        W73570  22.923  30.549  13.966 -0.0924  0.0918 -0.0017
98583W        W73571  15.186   1.464  21.954 -0.0957 -0.0544 -0.0623
98584W        W73572   9.154  33.499   2.556 -0.1007  0.1915 -0.2098
98585W        W73573   2.015  32.090  24.340  0.0694  0.0435 -0.0151
98586W        W73574  32.494  16.169  13.391  0.0211 -0.1220 -0.1004
98587W        W73575  17.862  24.480   8.767 -0.0460  0.0992 -0.3721
98588W        W73576  13.485   8.858   6.184  0.0011 -0.0849 -0.0122
98589W        W73577  12.207  27.501  15.132 -0.0932  0.1316  0.2579
98590W        W73578   5.700  34.638  20.884 -0.1855 -0.0372 -0.3609
98591W        W73579  31.302   0.707  16.208 -0.0286 -0.1271  0.0155
98592W        W73580  17.632   1.178   0.769 -0.0717  0.0137  0.0069
98593W        W73581   7.844   0.410   1.375  0.0518  0.1091  0.0371
98594W        W73582  24.808  17.581  25.596 -0.3150  0.2227 -0.1994
98595W        W73583  16.145  17.071   9.479  0.0595  0.2745  0.0903
98596W        W73584  28.912  25.046  20.191 -0.1063  0.3137 -0.1287
98597W        W73585  17.428  34.443   3.143 -0.1417 -0.5004  0.0635
98598W        W73586  30.607  28.020  11.293  0.2357  0.0553 -0.0750
98599W        W73587   8.684  13.211   5.438 -0.3443 -0.4379  0.1000
98600W        W73588   7.373   1.690   1.069  0.1329 -0.3137 -0.0220
98601W        W73589  18.382   0.476   0.032  0.1336  0.1308  0.2871
98602W        W73590  35.108   7.527  24.872  0.2360  0.2097  0.2458
98603W        W73591  24.269  10.649  16.013  0.0952 -0.1116 -0.0732
98604W        W73592  26.274  21.016  11.401  0.1871 -0.2441  0.1344
98605W        W73593  23.141  18.322  25.414 -0.3288 -0.1332 -0.3312
98606W        W73594  25.727  33.426  16.394  0.1349  0.3336 -0.2128
98607W        W73595  34.240  13.938   8.168 -0.4822 -0.1040 -0.1101
98608W        W73596  23.281  16.693   1.388  0.0685 -0.2623 -0.0953
98609W        W73597  29.618   7.447  17.364 -0.3209  0.0239 -0.1147
98610W        W73598  29.024   9.044  26.143 -0.1979 -0.2301 -0.0130
98611W        W73599  27.912   0.637   5.555 -0.0789 -0.1553 -0.0786
98612W        W73600   5.703   2.411   5.579 -0.2462  0.0760 -0.1252
98613W        W73601  34.492  22.180  18.480 -0.1431  0.0076  0.1962
98614W        W73602  15.464   4.261  22.665 -0.1572 -0.2174 -0.2577
98615W        W73603  29.916  12.594  17.846  0.0545  0.0207 -0.1191
98616W        W73604  10.906  24.179   5.538 -0.0455  0.0091  0.2059
98617W        W73605   1.272  26.302  22.466  0.2751 -0.0313 -0.1925
98618W        W73606  24.546  21.994  12.352  0.0253  0.0766  0.0452
98619W        W73607   4.502  10.666   8.829 -0.0038  0.0663  0.1575
98620W        W73608  28.001  18.162  12.615 -0.2279  0.1806  0.0143
98621W        W73609  22.911   6.921  14.108 -0.2401 -0.2231 -0.2087
98622W        W73610  31.521   6.886  17.691  0.1085  0.0864  0.1094
98623W        W73611   4.545   6.234   0.684  0.0052 -0.1978 -0.2702
98624W        W73612  33.299  30.602  15.446 -0.2234  0.0784  0.2976
98625W        W73613  23.266  19.304  21.328 -0.1076 -0.1424 -0.1568
98626W        W73614   3.035  24.099  21.695  0.0893  0.0612 -0.0024
98627W        W73615  24.000  15.720  24.655  0.3261 -0.1413 -0.2757
98628W        W73616  19.050  17.963  18.994  0.1212  0.0165 -0.1874
98629W        W73617  15.664  25.644  10.359  0.0364 -0.3512 -0.1684
98630W        W73618   4.528   4.882  18.336 -0.1961  0.0110 -0.1643
98631W        W73619  28.213  11.851  15.332 -0.1076 -0.0539 -0.0611
98632W        W73620  10.701   0.270   0.467  0.1877 -0.2970 -0.2323
98633W        W73621  16.603  20.175  11.362 -0.1223 -0.2627 -0.1448
98634W        W73622  11.073  15.445   0.020  0.2525  0.2786 -0.1284
98635W        W73623  11.674  31.713  14.040  0.0501 -0.0322 -0.1689
98636W        W73624  24.916  12.371   1.643 -0.0745 -0.0347  0.2376
98637W        W73625  31.428  14.666   8.290 -0.2235 -0.2730  0.3513
98638W        W73626   2.256  15.462   3.003 -0.0506  0.0568  0.0607
98639W        W73627  21.894   9.603   1.395 -0.0694 -0.2473  0.0621
98640W        W73628  11.163  15.958   9.613 -0.4223 -0.0629 -0.0681
98641W        W73629  28.686  33.597  19.137 -0.2699  0.3718  0.2909
98642W        W73630  16.660  27.994  23.164 -0.1076  0.2349  0.0865
98643W        W73631  13.652  26.777  22.592  0.3719  0.2064 -0.1134
98644W        W73632  20.242  16.494  25.317  0.0428  0.0128 -0.1256
98645W        W73633   3.785  28.094   6.465  0.0597  0.1865 -0.1772
98646W        W73634  10.815  25.974   5.821  0.0455  0.2158  0.2257
98647W        W73635  35.066  17.968  13.224  0.2422 -0.1052 -0.0886
98648W        W73636   5.469  12.579   0.981  0.0447  0.0013 -0.1489
98649W        W73637  23.640  28.705   0.480 -0.0883  0.3516  0.0056
98650W        W73638  10.839  25.338  23.237  0.0498  0.2187 -0.0983
98651W        W73639  15.945  17.214  12.711 -0.0014 -0.0338 -0.1400
98652W        W73640  18.773   3.475  18.208 -0.1475 -0.4127  0.0270
98653W        W73641  24.155   4.541   2.693 -0.2213 -0.1047  0.3304
98654W        W73642  31.191  23.317  16.432 -0.1338  0.1693  0.2373
98655W        W73643   5.838  34.504   1.060  0.1041  0.1375 -0.3631
98656W        W73644   3.401  28.592  19.967 -0.0125 -0.1537  0.0866
98657W        W73645   8.202  10.599  24.105  0.1473  0.2359 -0.1490
98658W        W73646   3.327  34.463   6.387  0.0041 -0.3245 -0.1214
98659W        W73647  20.084  34.304   6.666 -0.2986 -0.2037 -0.1421
98660W        W73648  31.149   4.335  20.127  0.1900  0.0123  0.1538
98661W        W73649  14.970  25.137   2.874 -0.1028 -0.2658  0.0295
98662W        W73650  12.758  19.283  11.299 -0.2174  0.0268  0.0268
98663W        W73651   7.533  23.423  23.046  0.1562  0.3870  0.2108
98664W        W73652  29.868  24.144  21.987 -0.3697 -0.1604 -0.1616
98665W        W73653  25.893  27.639   0.042 -0.0924 -0.3859 -0.1460
98666W        W73654  30.088  12.854   7.654 -0.0046 -0.0450 -0.3620
98667W        W73655  25.118  22.562  10.712  0.0883  0.0964 -0.0232
98668W        W73656  17.757  18.857  23.793 -0.1546 -0.0059 -0.1384
98669W        W73657  13.490  24.999   3.247  0.2402 -0.1136  0.0544
98670W        W73658   9.010  30.088   6.743 -0.2469  0.1046  0.2091
98671W        W73659  23.537  34.476  15.289 -0.1120  0.0923 -0.1081
98672W        W73660   3.942   2.490   1.145 -0.1052  0.0075  0.1049
98673W        W73661  23.708  17.701  13.093 -0.0252 -0.0070  0.2804
98674W        W73662  27.273  15.610  24.966 -0.0090 -0.0318 -0.0397
98675W        W73663  16.414  25.474   3.633  0.0339  0.1535 -0.0719
98676W        W73664  34.100   2.433  17.351 -0.1210 -0.0377 -0.2581
98677W        W73665  17.085  10.087  21.448  0.1079  0.0670 -0.1943
98678W        W73666  28.126  29.737  11.426 -0.4571 -0.2942 -0.3093
98679W        W73667   4.428   8.084   2.735 -0.0709  0.0841  0.0504
98680W        W73668  14.019  20.061   7.770 -0.2052  0.0740  0.1648
98681W        W73669   1.224  23.190  21.853 -0.4757  0.2770  0.0675
98682W        W73670  17.401  11.456  13.298  0.2459 -0.2748 -0.1367
98683W        W73671  22.667  19.481  16.559  0.1567 -0.0757  0.2581
98684W        W73672  20.779  17.016  16.536  0.0106 -0.0382 -0.2833
98685W        W73673  31.014  24.505  10.846  0.2668 -0.2898 -0.1216
98686W        W73674  14.976  13.255   1.744  0.2001 -0.2028 -0.1982
98687W        W73675  20.503  18.137   6.422 -0.1049 -0.0637  0.0485
98688W        W73676   2.649   7.322  25.234  0.1619  0.2831 -0.2509
98689W        W73677  35.205  23.645  22.461  0.0433  0.0936 -0.0555
98690W        W73678  32.242  19.970  22.465 -0.0750 -0.1297  0.0561
98691W        W73679  19.038   4.763  25.015 -0.1031 -0.3523  0.2241
98692W        W73680  11.028  29.806   8.775  0.1217 -0.3108  0.0760
98693W        W73681  17.598   7.930  22.136  0.0363  0.2063 -0.2688
98694W        W73682  23.740   9.145   1.560  0.4072 -0.1178  0.0144
98695W        W73683  30.230  20.275  19.479  0.0274 -0.0388  0.4329
98696W        W73684   7.309  27.449  23.011 -0.2273  0.1716 -0.3350
98697W        W73685  32.144  14.065   7.476  0.2417 -0.1523 -0.1590
98698W        W73686   9.533   7.177   9.030 -0.2395 -0.3981 -0.3128
98699W        W73687  22.757  34.216  16.506  0.0804 -0.0063 -0.1065
98700W        W73688  33.681   5.694  24.323 -0.4387  0.1080  0.0350
98701W        W73689  12.141  21.149  14.510 -0.1936  0.0455 -0.1379
98702W        W73690  25.803   3.616   1.997 -0.0893  0.1331  0.3325
98703W        W73691  29.656  18.179  21.556 -0.0577 -0.1805  0.1977
98704W        W73692  11.864  10.362   4.779 -0.0199 -0.0761 -0.4241
98705W        W73693   3.387   1.505   3.705 -0.2630 -0.0477  0.1918
98706W        W73694  12.358  16.809  14.160 -0.1668 -0.0818 -0.5037
98707W        W73695  10.381  26.432  11.515 -0.0821  0.2444 -0.1703
98708W        W73696  27.132  24.675  25.778 -0.1525  0.1377 -0.1140
98709W        W73697  13.444  26.032  17.124 -0.0781 -0.1268  0.1643
98710W        W73698   2.631  18.066  21.163  0.2821 -0.0796  0.2760
98711W        W73699  16.099  27.384  10.642  0.0265 -0.2190 -0.0295
98712W        W73700   9.535  29.188   8.890  0.5076 -0.0236  0.1375
98713W        W73701  15.521   8.982  22.781 -0.0118 -0.0203  0.3021
98714W        W73702  25.881  29.528  17.025  0.2117  0.4590  0.1505
98715W        W73703  18.781   7.865  24.043  0.1174  0.2122  0.0212
98716W        W73704  26.380   6.279  24.786 -0.0684 -0.2614 -0.0827
98717W        W73705   6.561   3.315  11.553 -0.0871 -0.0744  0.0931
98718W        W73706  31.432   2.355   0.155 -0.3884 -0.2163  0.0882
98719W        W73707  18.589  32.402  19.516  0.3690 -0.1523  0.1196
98720W        W73708  12.351   4.008   7.338 -0.2952 -0.0564  0.0311
98721W        W73709  19.817  13.785  22.708 -0.4381 -0.1510  0.4649
98722W        W73710  19.439   4.764   2.223 -0.1305 -0.0071 -0.1001
98723W        W73711   0.087  22.326  18.030  0.0262 -0.0690 -0.0474
98724W        W73712   8.866  15.427   9.664  0.1819 -0.0869  0.3995
98725W        W73713   1.006  15.562  13.843 -0.2817 -0.2878  0.2098
98726W        W73714  11.361   9.021  24.528  0.0971  0.1297  0.0254
98727W        W73715  17.481  25.347  24.647 -0.0944  0.3483 -0.1973
98728W        W73716  19.910   1.811  25.958 -0.2534  0.1764 -0.0316
98729W        W73717  25.662  12.966  12.309  0.0209 -0.2074 -0.0277
98730W        W73718  11.799  23.108   5.749  0.2094  0.1703 -0.1656
98731W        W73719  24.255  26.664  10.263 -0.1344  0.1812 -0.2917
98732W        W73720  32.772  29.809  21.496 -0.0227 -0.4323 -0.2245
98733W        W73721  11.407   5.294   1.257 -0.3485 -0.0319 -0.1194
98734W        W73722   2.979  28.045   6.978 -0.0164  0.2010  0.2651
98735W        W73723  10.083   4.368   8.810 -0.2594 -0.0036  0.1580
98736W        W73724  13.204   5.714  25.638 -0.2937 -0.1329  0.0782
98737W        W73725   7.798   9.538  21.389  0.0399 -0.0031 -0.0385
98738W        W73726  33.101  26.338  19.506  0.0863 -0.2496 -0.2372
98739W        W73727   2.903  25.087   2.179  0.1421 -0.0857  0.2441
98740W        W73728  20.313  17.740   7.876 -0.0186  0.1124  0.1736
98741W        W73729  26.241   4.223  12.302 -0.0171  0.0766 -0.0865
98742W        W73730   3.989  31.655   3.686  0.3102 -0.0401 -0.0848
98743W        W73731  31.359  22.071  22.316 -0.1459  0.1982 -0.2543
98744W        W73732  15.002   0.924   4.062  0.0173  0.2902  0.2752
98745W        W73733  35.036  32.335   5.643  0.1181 -0.0196 -0.4035
98746W        W73734  12.847  14.396   0.729  0.3946  0.0761 -0.1483
98747W        W73735  12.462  24.683  25.754  0.4306  0.2508  0.2213
98748W        W73736  19.546  13.550  19.878 -0.0956  0.1015  0.1234
98749W        W73737  16.135  31.300  24.826  0.0828 -0.3648  0.1030
98750W        W73738   9.408  11.207  11.394  0.3201  0.3169  0.0314
98751W        W73739  17.944  20.420  24.235  0.3102 -0.1211  0.0745
98752W        W73740   6.701   3.873  24.016 -0.3386 -0.2042 -0.2706
98753W        W73741  24.114  17.255  14.042  0.1534 -0.1043 -0.1757
98754W        W73742   7.574  22.994   3.952 -0.0840  0.0704  0.1012
98755W        W73743  26.691  23.145  18.045 -0.0591  0.2523 -0.1753
98756W        W73744   1.304   7.839   5.982  0.0382 -0.3552 -0.1971
98757W        W73745  23.267   2.660  22.566 -0.2808  0.0702 -0.1486
98758W        W73746  10.770   0.565  23.915  0.0635  0.1127  0.0360
98759W        W73747  23.280  27.643  18.249 -0.0050 -0.0795  0.2384
98760W        W73748  10.321  28.644  25.285  0.0574 -0.1351 -0.0576
98761W        W73749  28.647  33.220  16.573 -0.3208  0.1493  0.0331
98762W        W73750  12.766  19.333  15.416 -0.0573  0.0717 -0.1042
98763W        W73751  25.462  23.580  16.166  0.0723 -0.2739  0.1890
98764W        W73752  21.110  26.931  25.216 -0.1743  0.3029 -0.3333
98765W        W73753   7.476   6.036  21.143  0.0001 -0.1870 -0.0410
98766W        W73754  26.915   5.010  16.379  0.1163  0.1609  0.1996
98767W        W73755   3.658   9.764   4.362 -0.1049 -0.1758 -0.1921
98768W        W73756   2.836  33.407  22.337  0.1045 -0.1168 -0.0087
98769W        W73757   9.569  35.307  21.671  0.2938  0.2741 -0.2744
98770W        W73758  28.012  26.575  11.472 -0.1006  0.2601 -0.1484
98771W        W73759  20.257  25.471  20.424 -0.2148  0.0415 -0.2260
98772W        W73760   7.044  19.160   9.266  0.1660 -0.0374 -0.4605
98773W        W73761   8.539   2.355   0.675  0.0399  0.1353 -0.3857
98774W        W73762  34.136  24.288  22.976 -0.0143  0.0667  0.2377
98775W        W73763  15.452  10.467   5.974 -0.0953 -0.4202  0.0029
98776W        W73764   6.408   0.569   4.059 -0.0983 -0.3543 -0.1572
98777W        W73765  14.179  18.470  12.125 -0.0946  0.0012  0.1144
98778W        W73766  17.535  25.695   3.246 -0.0106  0.1309 -0.0410
98779W        W73767   6.449  15.803  10.487 -0.0182  0.0276  0.3474
98780W        W73768  32.413  17.004  19.375  0.0971 -0.2408 -0.4411
98781W        W73769  30.903  21.758  19.176  0.1705 -0.0060  0.0484
98782W        W73770  12.132  11.711  24.121 -0.0795  0.3657  0.0136
98783W        W73771  29.087  34.472  18.075  0.1758  0.3054 -0.0983
98784W        W73772   2.853  14.792  17.904 -0.1703 -0.0262 -0.1980
98785W        W73773  29.638  32.446  14.911  0.0900 -0.0225 -0.0287
98786W        W73774  14.251   4.628  12.088  0.1440  0.0858 -0.3316
98787W        W73775  20.781   7.365  16.771 -0.0634  0.1964  0.1056
98788W        W73776  27.965  30.459  11.750  0.0786 -0.0640  0.1866
98789W        W73777  18.025   2.098  15.838 -0.1179  0.1887 -0.2751
98790W        W73778   5.854   0.036  25.006  0.1456 -0.1691  0.1388
98791W        W73779   6.420  34.832  22.167 -0.2270 -0.0174  0.5228
98792W        W73780  31.507  35.141  11.456 -0.0498  0.0464  0.0610
98793W        W73781  28.511   3.171  11.923 -0.2020 -0.0370 -0.1258
98794W        W73782  21.546  31.268  15.700  0.3723  0.0387  0.0566
98795W        W73783  28.478   8.718   1.131 -0.1615  0.0289 -0.1212
98796W        W73784  11.331  20.002  13.463  0.0296 -0.2605 -0.2387
98797W        W73785  14.306  10.923  24.454  0.0995 -0.0530  0.1557
98798W        W73786  26.736  27.536  11.842  0.3146 -0.0860  0.1690
98799W        W73787   6.251   1.409  12.300  0.2486 -0.0417 -0.0142
98800W        W73788  30.086  18.256  15.372 -0.1424 -0.2961 -0.1007
98801W        W73789  27.833  20.957  17.469 -0.0266  0.1253 -0.2880
98802W        W73790  17.953  17.064   7.669  0.1234 -0.0784 -0.1174
98803W        W73791  29.922  13.556   5.767 -0.2297  0.0856  0.0069
98804W        W73792  19.811   5.789   3.669  0.0526  0.1020 -0.0226
98805W        W73793  20.630  11.924   0.606 -0.1856  0.2366  0.0217
98806W        W73794  23.322  31.947  18.288 -0.0822 -0.3202  0.1586
98807W        W73795  12.568  11.690  25.880 -0.0392  0.1687 -0.0876
98808W        W73796  21.244  10.989   8.393  0.0501  0.2754  0.0205
98809W        W73797   6.936   1.452  23.129  0.1864  0.1055 -0.2021
98810W        W73798  16.491  33.542  19.591 -0.1476 -0.4380  0.0462
98811W        W73799  12.159  30.948   0.142 -0.0534 -0.2680 -0.2580
98812W        W73800  12.165  25.364   6.625  0.1255  0.3117 -0.2632
98813W        W73801   9.106   1.811  26.137 -0.0959  0.3843 -0.0787
98814W        W73802  31.565  20.891   8.885 -0.0507  0.0536 -0.1836
98815W        W73803  13.887   8.983  19.374  0.1991  0.1056  0.2502
98816W        W73804  31.473   4.220  25.357  0.2396  0.0932  0.1485
98817W        W73805  33.355   9.752  24.390  0.0353  0.1755 -0.1249
98818W        W73806   7.835  22.931  13.084 -0.2248 -0.0590  0.1296
98819W        W73807   6.293  29.067  25.045  0.0002 -0.1442  0.0030
98820W        W73808  17.607  10.683   7.272  0.2460 -0.1853 -0.0050
98821W        W73809  25.836  27.246   9.963  0.1070 -0.3908 -0.0674
98822W        W73810  23.724  25.200  11.748 -0.1201  0.0121  0.0298
98823W        W73811  34.316   3.505  17.100 -0.1643  0.0458  0.0249
98824W        W73812   3.479  18.062  24.799 -0.0852 -0.2337  0.0910
98825W        W73813  15.888   0.944  23.701 -0.4566 -0.1839 -0.2626
98826W        W73814  24.929  32.212   5.524  0.0500 -0.4106  0.0248
98827W        W73815   4.934  11.725  25.949  0.2481 -0.0747 -0.0895
98828W        W73816  15.633  33.314  10.840  0.0094 -0.1628 -0.0855
98829W        W73817   8.825  11.653   1.268  0.1509  0.0798 -0.1364
98830W        W73818   6.502  20.670   1.814  0.1199  0.1094  0.0415
98831W        W73819  26.148  13.615  19.161 -0.1715 -0.0035 -0.3035
98832W        W73820   4.859   8.849   4.413  0.1988 -0.1967  0.1073
98833W        W73821   8.756   0.714   7.341 -0.0811 -0.1542 -0.0921
98834W        W73822   1.389  23.396  16.102 -0.3509  0.1079 -0.0086
98835W        W73823  15.903  28.002  13.964  0.1520  0.0185  0.1425
98836W        W73824   6.704  17.009   3.817 -0.0666 -0.0828  0.0478
98837W        W73825  19.606  17.090  18.394  0.2084 -0.2349 -0.1038
98838W        W73826  23.320   0.630  20.151 -0.0698 -0.1552  0.1211
98839W        W73827  10.933  10.732   8.440  0.2768  0.0268  0.0041
98840W        W73828   5.242  11.998   6.623 -0.1606 -0.3318 -0.0217
98841W        W73829  24.172  10.039  20.863 -0.1736  0.1246 -0.0428
98842W        W73830   1.654  21.777  13.571 -0.1478  0.3392  0.0482
98843W        W73831  23.118  15.740  22.158 -0.0975  0.1119  0.0180
98844W        W73832   2.742   7.604   3.186 -0.0454 -0.2783  0.1272
98845W        W73833  31.248  13.246   6.398  0.1528 -0.0573 -0.0427
98846W        W73834   9.405  29.388  24.159  0.1873 -0.1020  0.1030
98847W        W73835   4.684  20.791  19.808 -0.1625  0.2128 -0.3047
98848W        W73836  15.289  19.360  26.153 -0.0206 -0.0857  0.3908
98849W        W73837  34.669  34.147   7.439 -0.0269  0.4178  0.0708
98850W        W73838   9.480   5.807   4.616 -0.0163 -0.1800  0.2846
98851W        W73839  27.302  13.199  12.542 -0.0094 -0.3696  0.2809
98852W        W73840  25.035  34.620   2.850 -0.0884  0.2647 -0.0368
98853W        W73841  18.861  10.875   7.928 -0.0495 -0.0425  0.0984
98854W        W73842  14.055  29.891  12.062 -0.4221 -0.0506 -0.2153
98855W        W73843  32.127  28.395   5.096  0.0003 -0.1750 -0.0130
98856W        W73844  29.809  10.418  15.056  0.1908  0.1777 -0.0906
98857W        W73845   7.493   6.717  18.302  0.0143  0.0691 -0.0120
98858W        W73846  11.513  17.997   3.146 -0.0128 -0.0872 -0.1567
98859W        W73847  13.935  21.121   1.436  0.1214  0.0048 -0.0186
98860W        W73848  20.416   7.660  18.050 -0.0925 -0.0995  0.0300
98861W        W73849   4.060  28.593  20.242  0.0745  0.3572 -0.1601
98862W        W73850  28.559  15.021  23.519 -0.0099 -0.2618  0.1766
98863W        W73851  16.031   7.391   2.225 -0.3633 -0.1026 -0.0940
98864W        W73852   6.396  30.995  12.162 -0.1692 -0.3272 -0.2820
98865W        W73853  14.184  31.769  24.218  0.0140 -0.2839 -0.1028
98866W        W73854  16.035  11.153   9.364 -0.1003  0.0833  0.1115
98867W        W73855  18.061  34.329  24.338  0.2044  0.0661  0.3172
98868W        W73856   4.389   9.819  21.484 -0.0532 -0.1321  0.1318
98869W        W73857  17.148  27.368  25.700  0.0430  0.1576  0.1667
98870W        W73858  31.674   5.145  21.863 -0.0671  0.1079  0.0551
98871W        W73859  21.277  24.870   1.763  0.4107  0.2114 -0.3276
98872W        W73860  18.129   5.950  19.560 -0.1129  0.1012  0.2048
98873W        W73861   4.343   6.094  19.122 -0.1713 -0.0836  0.2441
98874W        W73862  22.966  19.442  23.987 -0.0028  0.1214 -0.2124
98875W        W73863  22.178   4.635   3.573  0.0440 -0.3072 -0.2401
98876W        W73864  25.690  14.783  24.011  0.0288 -0.1485  0.0470
98877W        W73865   6.679  11.896  22.542  0.1918  0.1958 -0.0147
98878W        W73866  21.460  20.248  24.762 -0.2429 -0.1841 -0.2972
98879W        W73867   2.472  16.043  19.926 -0.1326 -0.0544  0.0639
98880W        W73868  23.100  32.541   0.925  0.2829 -0.0579  0.1366
98881W        W73869   0.744  28.761   1.270  0.0224  0.0044 -0.1217
98882W        W73870   5.499  35.097  10.551  0.2249 -0.1333  0.2339
98883W        W73871  22.774   0.173  24.419  0.1046 -0.3657 -0.0314
98884W        W73872   2.326  16.193  14.298  0.1349 -0.0048  0.3553
98885W        W73873   5.062   8.431  19.516 -0.0161  0.1161  0.3908
98886W        W73874  17.237  17.771   2.055 -0.0274  0.0015  0.0005
98887W        W73875  26.054  20.271   0.258 -0.0363 -0.0784 -0.3532
98888W        W73876  23.156  16.934  26.095 -0.0829 -0.0700  0.1601
98889W        W73877  27.225  29.011  25.788 -0.2226 -0.0885  0.1578
98890W        W73878  22.164   4.766  22.409 -0.2233 -0.1324  0.2398
98891W        W73879   0.971   7.663  22.446  0.0527 -0.0830 -0.0794
98892W        W73880  34.741  33.319  24.494 -0.1473 -0.0018  0.2944
98893W        W73881  16.689   9.266   4.749  0.0033  0.1023 -0.1825
98894W        W73882  19.283  30.664   6.187 -0.2030  0.0364 -0.2868
98895W        W73883  26.708   8.675  25.536 -0.1403 -0.1526  0.3205
98896W        W73884  27.968  11.481  16.846  0.0244  0.0342  0.0834
98897W        W73885   5.182  19.571  20.799  0.0059  0.0281 -0.3566
98898W        W73886   8.560  21.002   4.849  0.1494 -0.2925 -0.0837
98899W        W73887  17.322  15.483   7.412 -0.1520  0.1391 -0.0947
98900W        W73888   8.999  24.278   2.558 -0.0820  0.0391  0.1672
98901W        W73889  33.191   6.783  24.521  0.1317  0.1161 -0.0632
98902W        W73890  28.715   6.542  23.483 -0.2563  0.0484 -0.0407
98903W        W73891  23.317  27.113  15.720  0.3413  0.1547  0.0188
98904W        W73892  26.144   7.199  24.583  0.1705  0.2280  0.5672
98905W        W73893  25.357  22.245   8.453 -0.1751 -0.1277 -0.1576
98906W        W73894   5.442  31.926  12.594  0.0468  0.0980 -0.0280
98907W        W73895  13.305  20.797   8.739 -0.2377  0.1760 -0.1977
98908W        W73896  28.723  26.825  15.681 -0.3728 -0.1369  0.3447
98909W        W73897   6.271  35.249   5.045  0.0709 -0.0689 -0.0905
98910W        W73898   9.221  27.585   6.262 -0.2408  0.2740  0.1217
98911W        W73899   1.469  31.447  21.199  0.0122 -0.2098 -0.0667
98912W        W73900  23.074  10.568   3.426  0.2934 -0.0468 -0.1414
98913W        W73901  23.938   8.417   5.331  0.1942  0.2506  0.0670
98914W        W73902  14.070  27.177   3.797  0.0152 -0.1440 -0.4155
98915W        W73903  18.810  32.597   4.960 -0.0784  0.1012 -0.3892
98916W        W73904  34.554   5.189  14.112 -0.1534  0.0893  0.2312
98917W        W73905  28.292  11.193  16.590  0.0011 -0.1129 -0.0134
98918W        W73906   9.323  18.352   1.964 -0.3685 -0.1404 -0.0024
98919W        W73907   4.779  10.595  15.287 -0.0084 -0.3649 -0.0979
98920W        W73908   3.293   2.691   1.933  0.1000 -0.0510  0.1852
98921W        W73909   7.618   4.331  10.865 -0.1859  0.2196  0.2347
98922W        W73910   2.006  14.345  14.649  0.2050  0.0004 -0.1798
98923W        W73911  27.043   0.816  15.999  0.3692 -0.0156  0.2127
98924W        W73912  24.403  33.814  21.546  0.0043 -0.0653 -0.4303
98925W        W73913   8.323  32.427  20.422  0.2332 -0.0171  0.1549
98926W        W73914  27.492  22.309  14.031  0.1021 -0.0856  0.0442
98927W        W73915  21.618  21.301  22.581  0.0502 -0.4208  0.1605
98928W        W73916  24.740  34.245   4.257 -0.0490  0.1874  0.1887
98929W        W73917  11.864  11.880  13.366 -0.0359 -0.0554 -0.0539
98930W        W73918  18.498  21.255   4.829 -0.2024 -0.2786 -0.1643
98931W        W73919   0.870  19.459  19.350  0.0610  0.5100 -0.1491
98932W        W73920  20.986  11.148  23.410 -0.0522  0.1905 -0.0045
98933W        W73921  11.530   5.381  11.170 -0.0531 -0.0480  0.0816
98934W        W73922   7.992  22.746  16.091  0.0150 -0.0507  0.2014
98935W        W73923  26.194   9.086  24.453  0.1534 -0.1365 -0.1354
98936W        W73924  33.955  25.774  16.173  0.1585 -0.0895  0.2664
98937W        W73925   1.749  15.068  25.527 -0.0278  0.1710  0.0433
98938W        W73926  18.039   9.025   8.940 -0.0087  0.0467  0.0512
98939W        W73927   7.581   8.145  21.110  0.1752 -0.1388 -0.0943
98940W        W73928  16.624  33.041   4.598 -0.0041  0.1511 -0.1204
98941W        W73929  25.245  16.535  18.387  0.0861 -0.6811  0.4028
98942W        W73930  26.918   2.869  17.968 -0.2353 -0.0420 -0.0164
98943W        W73931  23.892  20.995  14.178 -0.2341 -0.1118 -0.1421
98944W        W73932  33.163  20.488  15.855  0.0086  0.1754 -0.0150
98945W        W73933   2.408   9.821  25.637 -0.0951 -0.2118  0.1249
98946W        W73934   5.732  30.850  25.743  0.0627  0.0910  0.0572
98947W        W73935   3.512   3.278   4.420 -0.1051  0.2419 -0.0514
98948W        W73936  33.551  33.378  25.196  0.0076  0.0636 -0.0559
98949W        W73937  13.566   2.168   5.640  0.2048  0.1841  0.0086
98950W        W73938   7.286  29.529  13.171 -0.1434  0.1603 -0.2454
98951W        W73939  28.547   9.314  11.859 -0.0587  0.0324 -0.0711
98952W        W73940   9.495  30.550  22.348 -0.0860 -0.1553  0.0005
98953W        W73941  29.481   2.662  13.590  0.0786 -0.0412  0.2497
98954W        W73942  16.920  11.571   4.399  0.0145  0.3489  0.3178
98955W        W73943  11.954  11.944   1.868  0.0929 -0.1393  0.2363
98956W        W73944  14.612   4.578  20.946  0.0253  0.2744 -0.0014
98957W        W73945  21.383  11.014  18.087 -0.3111 -0.2343  0.2041
98958W        W73946  26.874  23.850  21.986  0.0595 -0.3529 -0.0627
98959W        W73947  32.661   2.275   6.599  0.1149  0.1555 -0.2230
98960W        W73948   7.818   0.160  10.429 -0.0554 -0.2463  0.2588
98961W        W73949  15.471   8.967   1.357  0.1005 -0.0125  0.2361
98962W        W73950  17.610  16.504   0.986 -0.2277  0.0262 -0.0547
98963W        W73951  15.207  24.207   9.170 -0.0131 -0.0614  0.2877
98964W        W73952  11.072   8.220   1.068  0.0126 -0.0719 -0.0445
98965W        W73953  23.792   7.555  26.016  0.2227 -0.2101  0.0664
98966W        W73954  18.641  11.702  23.734 -0.1582  0.3548  0.0251
98967W        W73955   0.626  10.712  25.390  0.2182  0.1720  0.0359
98968W        W73956   9.138  11.058  12.079  0.3405 -0.1390  0.1193
98969W        W73957  12.847  16.005   7.117 -0.1679  0.2060  0.0009
98970W        W73958  29.824  30.727  10.780  0.0618  0.0707  0.1124
98971W        W73959   6.536  13.406   6.780 -0.0686  0.0658 -0.0780
98972W        W73960   8.806  32.997   8.699  0.0605 -0.2908 -0.2705
98973W        W73961  13.182   3.539   1.692 -0.4754  0.1484  0.3137
98974W        W73962  32.255   2.474  19.379 -0.1495 -0.1615  0.1574
98975W        W73963   4.869  33.265   5.409  0.1465  0.0163  0.0857
98976W        W73964  11.505   4.341  10.510 -0.0061 -0.3632 -0.0275
98977W        W73965   7.750  27.846   7.049  0.0149 -0.0589 -0.0332
98978W        W73966  31.086  25.251  14.859  0.4127 -0.2041 -0.0266
98979W        W73967  31.496  31.663  14.935  0.0759  0.0433  0.6313
98980W        W73968  10.188  19.104  10.761 -0.1629  0.0974  0.0713
98981W        W73969   0.959  24.722   3.653  0.0975 -0.0542 -0.1828
98982W        W73970  18.056  30.456  21.371  0.0846  0.2559 -0.1999
98983W        W73971  32.005   7.971   9.287 -0.0278  0.0167  0.1259
98984W        W73972  18.408  27.252   3.753 -0.2452  0.1575  0.0690
98985W        W73973  12.231   1.273  25.371 -0.2956 -0.2847  0.1155
98986W        W73974   6.042  26.471  11.251 -0.1587  0.4195  0.2079
98987W        W73975  11.499  20.524   1.115  0.0705 -0.2115  0.1956
98988W        W73976   4.858   3.356  21.362  0.0813 -0.0719 -0.0539
98989W        W73977   3.914  13.060  21.194 -0.2204 -0.1664  0.3023
98990W        W73978  12.386   2.034   3.056 -0.2354  0.1574  0.0775
98991W        W73979  23.603   4.919  17.028 -0.1507  0.0610  0.0270
98992W        W73980   7.228   1.971  23.809 -0.1933  0.2895 -0.3610
98993W        W73981  10.958   2.544   0.110 -0.3241 -0.2621  0.0448
98994W        W73982   2.138   3.385   2.671  0.2830 -0.1219 -0.3903
98995W        W73983   3.453   6.285   6.141 -0.0642  0.1765 -0.3116
98996W        W73984   6.133  30.589  25.434 -0.0070  0.0260  0.3679
98997W        W73985  33.674  30.519   1.943  0.0350 -0.0868  0.1798
98998W        W73986   1.174   8.763   4.655 -0.0075 -0.0664  0.2533
98999W        W73987  15.814  21.816   3.981 -0.1389  0.1840  0.0846
99000W        W73988  13.942   2.944   0.925  0.1317  0.0310 -0.2559
99001W        W73989  32.098  14.737   7.558 -0.0178  0.0394 -0.1348
99002W        W73990   0.785   4.262  13.307 -0.0805  0.1735 -0.2393
99003W        W73991   8.483  17.657   7.446 -0.0220  0.0516  0.2031
99004W        W73992   1.495  28.460   6.576 -0.2156 -0.1331  0.0095
99005W        W73993   3.847  32.040  18.152 -0.2133 -0.0042  0.0190
99006W        W73994  29.948  28.415  25.680  0.2242 -0.0626  0.0458
99007W        W73995  25.987  19.661  16.061  0.2197  0.2838  0.0938
99008W        W73996  20.217  23.257  26.057  0.0912  0.1351 -0.3418
99009W        W73997  25.552  20.250   0.438  0.0050  0.1150  0.1372
99010W        W73998   7.209  13.588   8.818 -0.0861  0.0018  0.1051
99011W        W73999   0.885  19.127  14.789  0.0189  0.1673 -0.1888
99012W        W74000   0.523  13.179   0.685 -0.0858  0.1594  0.2926
99013W        W74001   7.242  15.312  20.228  0.0573 -0.2009 -0.2171
99014W        W74002   4.225  28.768  11.208  0.2069  0.1100 -0.4580
99015W        W74003  18.610   2.572  10.261 -0.0022 -0.2184 -0.1899
99016W        W74004   1.355   4.106   2.476 -0.1465 -0.2462  0.0838
99017W        W74005   3.579  27.287   9.681  0.1947  0.4539 -0.0382
99018W        W74006  25.949   3.205   5.995 -0.1948 -0.1879  0.0611
99019W        W74007  33.291  19.009  16.304  0.1337  0.1767  0.1237
99020W        W74008   4.151  33.753  21.856  0.0297  0.0976  0.0237
99021W        W74009  35.002  34.425   5.104  0.2851  0.1346 -0.0798
99022W        W74010  13.892  33.798   4.710 -0.3279 -0.0589 -0.0510
99023W        W74011  20.665  29.750  25.315  0.0050 -0.1474 -0.2731
99024W        W74012   6.727  28.302  14.562 -0.3311  0.2027 -0.0671
99025W        W74013  19.006   2.339  17.361 -0.0215  0.3048 -0.2963
99026W        W74014  34.374  21.232   8.224 -0.0723 -0.2502  0.1101
99027W        W74015  16.366  28.290  10.579 -0.1918  0.3118  0.0887
99028W        W74016  23.369   9.782   2.552  0.0638  0.2088 -0.1083
99029W        W74017  27.738   7.932  24.682  0.3183 -0.2552  0.1863
99030W        W74018   2.803  32.390   3.600  0.0857 -0.1490  0.0197
99031W        W74019  16.310  29.735   0.017  0.0559 -0.2656  0.1559
99032W        W74020   8.537   0.994   8.709 -0.0496 -0.3631  0.0128
99033W        W74021  15.236  11.833   9.698 -0.0766  0.2425 -0.0502
99034W        W74022   8.406  23.939  24.878  0.1854  0.0774 -0.0389
99035W        W74023   3.001   7.636  17.506  0.2323 -0.0966  0.3496
99036W        W74024  26.311   5.663  22.726 -0.0573 -0.1237 -0.1920
99037W        W74025  14.378  32.359   5.954 -0.3580  0.2192  0.1832
99038W        W74026   7.743  28.393   1.796  0.2576 -0.1807 -0.2096
99039W        W74027  19.863  32.597  17.046 -0.2692  0.0921 -0.0780
99040W        W74028  24.977  26.671   9.176 -0.1699  0.1443  0.2276
99041W        W74029  18.645   1.153  21.667  0.0443  0.3617 -0.0894
99042W        W74030   9.487  23.075   9.333 -0.0158 -0.2473  0.2492
99043W        W74031  19.049   3.503   4.095  0.1417  0.3388  0.0517
99044W        W74032  24.221  33.904  16.291 -0.4706  0.2498  0.0300
99045W        W74033   8.285  10.087   8.522  0.0425  0.3010  0.1184
99046W        W74034  34.442  19.233   7.983 -0.1019  0.0698 -0.0545
99047W        W74035  32.590  13.112  21.496 -0.2712 -0.0702  0.2440
99048W        W74036  11.241   3.499   0.876 -0.4652 -0.1409 -0.1787
99049W        W74037   7.906  29.151  15.704 -0.1793 -0.1766 -0.1563
99050W        W74038  11.962  19.349   8.002  0.4249  0.0100  0.0948
99051W        W74039  24.577   4.262  25.349 -0.4008 -0.2142 -0.2894
99052W        W74040  13.347  20.263  22.491  0.0249  0.2793 -0.0764
99053W        W74041  16.092  24.129   6.674  0.1522 -0.0783  0.1493
99054W        W74042  20.532   2.241   2.026  0.0091 -0.0178  0.0182
99055W        W74043  29.678   4.385  19.798  0.2043 -0.2889  0.0578
99056W        W74044   8.975  27.317  16.364  0.0245 -0.0293  0.3789
99057W        W74045  12.486   8.439   4.406  0.0860  0.0084 -0.1502
99058W        W74046  13.404  12.948   6.682  0.1138  0.0910  0.2133
99059W        W74047  27.040   2.549  24.048 -0.2609  0.2555 -0.1924
99060W        W74048  16.225  31.908   1.460  0.2229  0.1514 -0.3073
99061W        W74049   3.890  27.597   3.927 -0.1987  0.1667 -0.1446
99062W        W74050  33.079  22.740  12.672  0.2284  0.1983 -0.0362
99063W        W74051  25.163  25.561  14.465  0.1000  0.0692 -0.0743
99064W        W74052  16.335  12.491  10.684  0.0153  0.1363 -0.2726
99065W        W74053   1.533  34.948   9.512 -0.0876 -0.3992  0.0314
99066W        W74054  35.365   9.340  21.319  0.0261 -0.2581  0.1863
99067W        W74055  19.692  17.883   4.022 -0.1326  0.0759 -0.2687
99068W        W74056  12.567   2.635  19.368 -0.1649  0.0452 -0.0931
99069W        W74057  13.624  11.445   5.448 -0.1251  0.2776  0.0442
99070W        W74058  12.452  15.270  20.618 -0.0096  0.1085  0.5227
99071W        W74059  34.046   0.896  19.035  0.2268 -0.0662  0.4959
99072W        W74060   9.493  13.726   8.070 -0.0634  0.0056 -0.3198
99073W        W74061  30.378  33.507  20.396 -0.2682 -0.2318  0.3212
99074W        W74062   8.064   9.484   3.628  0.2080 -0.1258 -0.0113
99075W        W74063  25.399  31.215   2.929  0.1636 -0.1228 -0.1499
99076W        W74064  17.992  27.444  22.512  0.1885  0.1548  0.1773
99077W        W74065  25.761   7.087   2.423  0.1713  0.1297  0.3991
99078W        W74066  26.374  24.078  17.031  0.1538  0.1681 -0.4803
99079W        W74067  11.999  16.046   1.132 -0.1318 -0.1405  0.1411
99080W        W74068   9.689   5.028  13.363 -0.0370 -0.0511  0.0633
99081W        W74069   3.744  14.029   4.285 -0.0327  0.1344  0.1036
99082W        W74070   5.282   4.797   0.291 -0.2461  0.0844  0.0970
99083W        W74071  21.934  28.506  23.020 -0.0496  0.3553  0.0170
99084W        W74072  31.859   7.119   0.993  0.0458  0.1128  0.0486
99085W        W74073   4.374   0.252  11.713 -0.3077  0.1639 -0.1219
99086W        W74074   2.060  18.496  20.122 -0.0906  0.0494 -0.1642
99087W        W74075  19.782  16.893   4.383  0.2545 -0.0401 -0.1708
99088W        W74076  33.726  13.382  25.250  0.0631 -0.1204  0.0533
99089W        W74077  30.783  25.064  15.208  0.0588 -0.0336 -0.0980
99090W        W74078   0.797  14.767  13.628 -0.0887 -0.2831 -0.0496
99091W        W74079  19.358  23.120   2.793 -0.0636 -0.2588 -0.1671
99092W        W74080   5.520  19.208   1.154  0.0246  0.1294 -0.0970
99093W        W74081  17.920   7.296  23.531 -0.0212  0.0209  0.0805
99094W        W74082   5.748   3.876  10.632 -0.0224 -0.2904  0.2716
99095W        W74083  17.173  31.713   9.108  0.0551  0.2876  0.1436
99096W        W74084  11.461  19.398  24.608  0.1512 -0.0370  0.1729
99097W        W74085   8.565  18.063   8.763  0.1752 -0.1653  0.4216
99098W        W74086  34.376   4.298  22.803  0.0614  0.0495 -0.0770
99099W        W74087  16.505   0.884  22.208 -0.2041  0.2417  0.2793
99100W        W74088  29.154  21.236   7.872 -0.2105  0.1664  0.2558
99101W        W74089  28.712  29.801  13.649 -0.0933 -0.0074  0.0067
99102W        W74090   3.416  26.205   2.736 -0.1745 -0.0830 -0.1476
99103W        W74091  34.008  17.660  19.239 -0.0817 -0.0608  0.0645
99104W        W74092  20.333  30.540   5.363 -0.3113  0.3360 -0.0302
99105W        W74093  13.740   0.507  18.429  0.2538  0.3492 -0.0834
99106W        W74094  26.787   7.132  17.567 -0.0511  0.4007 -0.1674
99107W        W74095   6.480  12.601  11.966  0.1008  0.4507 -0.1223
99108W        W74096  18.356  14.174   0.403 -0.0630  0.3450  0.1885
99109W        W74097  31.692  10.976  24.541 -0.2379  0.6271 -0.0519
99110W        W74098  20.731  31.644  22.358 -0.3686 -0.1319 -0.1520
99111W        W74099   6.314  18.119   6.092 -0.0870  0.3887 -0.1219
99112W        W74100  28.061   8.377  15.375  0.0840  0.0954 -0.1481
99113W        W74101  14.195  24.990  14.006  0.1875  0.0095 -0.0908
99114W        W74102  16.905  19.682  21.988  0.0206  0.1306  0.2582
99115W        W74103  25.980  30.038  17.485 -0.1056  0.2440 -0.3199
99116W        W74104   0.155  14.371   1.850 -0.1486  0.3114 -0.0996
99117W        W74105  19.977  19.513  21.650  0.1438  0.2229 -0.0376
99118W        W74106  15.559   4.249   7.588  0.1175  0.0479 -0.0474
99119W        W74107  18.765   3.125   3.957  0.1374 -0.0821  0.0810
99120W        W74108  14.050   4.785  22.039  0.4897 -0.0914  0.0579
99121W        W74109  19.322  26.630  21.518  0.2112  0.0350  0.3774
99122W        W74110  33.446  22.556  26.067  0.2812  0.0665  0.4683
99123W        W74111  28.266  26.562  15.706 -0.2011  0.0842  0.1348
99124W        W74112   0.767  27.158  21.008  0.1626 -0.1056  0.3228
99125W        W74113  17.286   3.191  19.203 -0.2407 -0.2950  0.0722
99126W        W74114  28.227  12.418   6.343  0.0285 -0.0701  0.1445
99127W        W74115  26.632  31.607  23.116  0.3374  0.5270 -0.2686
99128W        W74116  12.546  33.719   9.914 -0.0485 -0.1746 -0.1524
99129W        W74117  17.708  12.228  20.389 -0.1437  0.0873 -0.1587
99130W        W74118  26.779  31.561  19.690  0.0273  0.0271  0.0597
99131W        W74119   0.606   5.033   1.356 -0.0565 -0.1079 -0.0757
99132W        W74120   3.904   1.001   1.209 -0.2874 -0.2121 -0.1316
99133W        W74121  14.698  17.765  20.701 -0.0113 -0.1128  0.3453
99134W        W74122  17.340  33.940   5.135 -0.2617 -0.1674  0.0396
99135W        W74123   3.652  18.885   1.950  0.1081 -0.0813 -0.0824
99136W        W74124  35.070  30.985  15.629  0.0377  0.0086 -0.0163
99137W        W74125  12.955  23.615  26.098 -0.0260  0.4089 -0.0056
99138W        W74126  15.754  35.043  23.177  0.1776  0.6087 -0.3114
99139W        W74127  21.580  28.279   5.667  0.0057  0.5060  0.4342
99140W        W74128  24.189  13.472  18.394  0.3070  0.2272  0.1821
99141W        W74129  20.699  14.245  22.878  0.1070  0.2115  0.1659
99142W        W74130  29.341  16.208  11.414  0.0038  0.0546 -0.0447
99143W        W74131  21.259  15.550  16.728 -0.1426  0.0859  0.1686
99144W        W74132  27.787  12.521   9.926  0.1691  0.3339 -0.0737
99145W        W74133  19.290  24.821   5.727 -0.2980 -0.0467  0.0560
99146W        W74134  13.812  27.592  14.189 -0.0676  0.0659  0.1763
99147W        W74135  30.455  11.722  12.915  0.1526 -0.1104 -0.0034
99148W        W74136  19.065  22.978   8.163  0.1956 -0.0989  0.2341
99149W        W74137   5.234   3.736  18.920  0.0695 -0.4522  0.1019
99150W        W74138   1.945   0.109   4.176 -0.0207  0.1571  0.1906
99151W        W74139  29.774  23.716  18.499 -0.0026  0.2235 -0.0687
99152W        W74140   1.593   7.238  20.977 -0.0163 -0.2612 -0.1224
99153W        W74141   0.964  20.943  11.244  0.1952 -0.0965 -0.5005
99154W        W74142  26.243  18.182  15.810  0.0934 -0.2095 -0.1784
99155W        W74143  10.378  27.611   1.085 -0.3250 -0.1981  0.1383
99156W        W74144  26.176   9.305   0.671  0.1521  0.0394 -0.0510
99157W        W74145  15.856  10.771  25.228 -0.0780 -0.1330 -0.3106
99158W        W74146   9.619  11.713   7.937  0.1708 -0.0604  0.0999
99159W        W74147  28.759  25.561  14.912  0.0582  0.5013  0.1350
99160W        W74148  14.879   7.359  14.223 -0.2914 -0.1055 -0.0648
99161W        W74149   8.563  22.812  15.576  0.2101  0.1921  0.0517
99162W        W74150  29.676  11.274  24.632 -0.2591  0.2976  0.0069
99163W        W74151  26.585  20.531  18.268  0.3888  0.0840  0.0559
99164W        W74152  16.364  21.181  11.249 -0.0414  0.1894  0.5199
99165W        W74153  14.228   8.474  26.111 -0.1075 -0.1293 -0.2447
99166W        W74154   9.580   9.713   8.578  0.0380 -0.2858  0.3183
99167W        W74155  11.172  18.318   2.213 -0.0040  0.1985  0.3430
99168W        W74156   9.549  29.649   2.472  0.0649 -0.3353  0.0255
99169W        W74157   5.779  28.286   0.194 -0.2286  0.0383 -0.3783
99170W        W74158  10.398  23.841   5.478  0.1255  0.3874  0.1310
99171W        W74159   6.401  15.765  23.826 -0.0684  0.2333  0.0573
99172W        W74160  23.325  16.093   1.442 -0.1462  0.0013  0.1679
99173W        W74161  16.915   5.444  19.138  0.0244  0.0953  0.1159
99174W        W74162  14.534  26.314  21.564 -0.2482  0.1486 -0.1725
99175W        W74163  14.513   2.760   2.097  0.0529  0.1059 -0.0696
99176W        W74164  28.119   9.063  22.572 -0.1792 -0.1474  0.0065
99177W        W74165  28.126   4.645  21.297 -0.2999  0.1735  0.2012
99178W        W74166   2.455  28.221  23.715 -0.1790 -0.2518 -0.1495
99179W        W74167  12.165  15.445   8.867 -0.1816 -0.1279 -0.0170
99180W        W74168   8.772  16.958  13.077  0.0884  0.0722 -0.2365
99181W        W74169  19.445  35.272   8.307 -0.1094  0.0512  0.1323
99182W        W74170   2.165  18.444  20.698 -0.4330  0.1216 -0.2868
99183W        W74171  24.805   8.312  13.984 -0.0407  0.1817 -0.0890
99184W        W74172  16.034  19.143   4.105 -0.1046  0.0644 -0.0755
99185W        W74173  17.479   0.186   1.907  0.2164  0.0057  0.1516
99186W        W74174  14.993  17.194   9.425  0.0267  0.3437  0.0370
99187W        W74175   1.176  10.676  25.326  0.1928 -0.0701 -0.1743
99188W        W74176  13.956  29.566   4.434  0.1165  0.0710  0.1585
99189W        W74177   0.438  25.343  19.352 -0.1636  0.2901  0.1779
99190W        W74178  25.810   7.062  16.610 -0.3195 -0.3215  0.0023
99191W        W74179   6.364   9.153   8.770  0.2619  0.1744 -0.0676
99192W        W74180  19.185  10.362  22.805 -0.0690 -0.1409  0.0017
99193W        W74181  27.992   0.363  16.094  0.3272 -0.0200  0.6113
99194W        W74182  12.516  33.542  21.333  0.1180 -0.1908  0.1832
99195W        W74183   7.986  27.767  16.522  0.0634  0.0208  0.1517
99196W        W74184  29.422  10.398  23.783 -0.0096  0.0941 -0.0676
99197W        W74185  32.990  21.944   8.212  0.3455  0.1630  0.1344
99198W        W74186   0.746   4.122   6.675 -0.0872 -0.1124 -0.0066
99199W        W74187  34.979  34.576   1.719  0.1898 -0.2365 -0.2367
99200W        W74188  15.498  28.768  24.154  0.1225 -0.5261  0.2130
99201W        W74189  17.872  25.161  23.339  0.3199 -0.1790  0.3198
99202W        W74190   7.946   2.325  24.268  0.0316  0.0085  0.3444
99203W        W74191  24.627  30.917   4.952 -0.1308  0.0580  0.0285
99204W        W74192   4.695   9.365   5.160  0.1518 -0.1820  0.1308
99205W        W74193   4.713   8.198   3.960  0.1227  0.1954 -0.1037
99206W        W74194   9.677  23.282   5.856  0.0091  0.2324  0.1323
99207W        W74195  13.415   7.104  21.512  0.4284 -0.2036  0.1856
99208W        W74196   5.342   9.572   6.552 -0.0908  0.1253 -0.1580
99209W        W74197  23.783  29.985  23.696  0.3154  0.0735 -0.2936
99210W        W74198  28.006  21.103  11.644 -0.2685 -0.2168 -0.0437
99211W        W74199   6.699  16.157  24.269 -0.0507 -0.2540  0.1775
99212W        W74200   2.970  10.088  21.588  0.0734 -0.1760  0.2276
99213W        W74201  14.496  13.989  22.331 -0.2835 -0.1937 -0.2590
99214W        W74202   3.334  15.981  14.495  0.2030  0.2349  0.2099
99215W        W74203  19.902  18.171   6.433 -0.0162  0.1527  0.2124
99216W        W74204  20.099  12.774   8.454  0.1707  0.2719 -0.2077
99217W        W74205  29.898   3.479  20.041  0.0837 -0.0204  0.1897
99218W        W74206  33.215  15.922  12.861  0.1889  0.2623 -0.3964
99219W        W74207  32.512  21.952  12.016  0.0822 -0.1219  0.1984
99220W        W74208   9.512  22.439  24.427  0.0208 -0.1609 -0.0765
99221W        W74209  12.405  24.983   4.232 -0.0962 -0.0845 -0.1081
99222W        W74210   1.907  34.488  21.709 -0.2692 -0.2529 -0.2347
99223W        W74211  21.978  28.489  16.530  0.0267 -0.2608  0.1905
99224W        W74212  28.963   7.092  14.431 -0.1178 -0.0915 -0.0614
99225W        W74213  34.573  31.701  20.800  0.0607  0.3986 -0.0828
99226W        W74214  26.422  14.954  19.513  0.0617  0.1960 -0.2662
99227W        W74215  16.142  22.340   9.275  0.1475  0.0670  0.0827
99228W        W74216  29.601  19.514   6.720  0.3230  0.1714 -0.3145
99229W        W74217  13.795   4.829  10.581  0.0152  0.2767  0.1043
99230W        W74218  22.933  19.069  17.796  0.0593  0.3853 -0.1119
99231W        W74219   8.859  10.139  20.668  0.0402 -0.0689 -0.0067
99232W        W74220  31.106  11.033  15.439 -0.1672  0.2176 -0.2544
99233W        W74221  22.464  30.115   4.015 -0.0399 -0.0149  0.2319
99234W        W74222  19.111   7.954  20.903 -0.1486 -0.0160  0.0741
99235W        W74223  35.211   0.479   0.587  0.0369  0.0202 -0.2247
99236W        W74224  33.832  29.441  18.664 -0.0560 -0.0386  0.2099
99237W        W74225  34.003  32.217   1.761 -0.0029 -0.0842 -0.1802
99238W        W74226  12.511  14.761   4.787 -0.1771  0.1464 -0.1140
99239W        W74227  10.898  34.417   3.111 -0.0983 -0.0471  0.1128
99240W        W74228  13.230  31.001   4.718  0.1022  0.0287  0.2112
99241W        W74229   5.480  24.572  10.230  0.1644  0.2558 -0.1575
99242W        W74230  12.938   0.735  25.956  0.2166  0.0473 -0.0951
99243W        W74231  14.159  35.153  21.428  0.2471  0.0890 -0.1568
99244W        W74232  32.567  35.130  16.282  0.0136  0.0748  0.1371
99245W        W74233   5.609  33.516   4.511 -0.0369  0.1426 -0.3597
99246W        W74234  30.482  30.215  20.737 -0.3176  0.2063 -0.1083
99247W        W74235   8.552   8.797  24.697  0.3408 -0.0014  0.2603
99248W        W74236  35.330  30.497  25.554  0.0625 -0.1040  0.1233
99249W        W74237  13.975  13.488  24.428 -0.0678  0.1968  0.1249
99250W        W74238  25.805  24.755  19.483  0.1873  0.1431 -0.2692
99251W        W74239  30.066  14.616  24.776 -0.1827 -0.0210  0.3042
99252W        W74240   4.649  11.886  23.712 -0.0460  0.2017  0.0853
99253W        W74241  30.077  33.134   0.935  0.2677 -0.0586  0.0226
99254W        W74242   3.833  14.701  19.299 -0.0468  0.2403  0.0456
99255W        W74243   2.389  27.951   0.066 -0.0272  0.1669  0.0311
99256W        W74244  10.102  22.536  12.845 -0.0722 -0.1248 -0.0701
99257W        W74245  16.676  11.027   4.425 -0.1692 -0.1261 -0.2255
99258W        W74246  24.907  28.063  22.271 -0.0390 -0.1699  0.0043
99259W        W74247  26.764  32.089  26.242 -0.0554 -0.2504  0.0567
99260W        W74248  21.248  31.290   0.386 -0.4656 -0.1880  0.4017
99261W        W74249   9.875  24.873  15.290 -0.3609 -0.2100 -0.0133
99262W        W74250  23.022  12.310  15.202  0.0387  0.0208  0.1384
99263W        W74251   3.871  31.918   0.234 -0.1223 -0.0478  0.4538
99264W        W74252  25.548  15.462  13.000  0.3353  0.2214 -0.2288
99265W        W74253  17.305  32.016   0.252  0.1657 -0.1903 -0.3472
99266W        W74254  33.135  25.687  14.861 -0.1971 -0.0243  0.1387
99267W        W74255   2.239   1.977  18.720 -0.2397 -0.0015  0.0278
99268W        W74256  15.943  21.063  13.169  0.1018  0.4133  0.1488
99269W        W74257   4.155   1.858  26.164 -0.0597  0.1532  0.2250
99270W        W74258  21.293  24.081  21.486  0.1397  0.2319 -0.2945
99271W        W74259   6.406   7.266  23.083 -0.4554  0.2190  0.0694
99272W        W74260  25.508   0.003  22.626  0.2067  0.2128 -0.0651
99273W        W74261   9.370   2.688  21.837  0.0213 -0.0070  0.5764
99274W        W74262  19.871  31.059  26.162  0.0278 -0.1335 -0.0248
99275W        W74263   9.832  11.415   5.251 -0.0242  0.2575  0.0696
99276W        W74264   9.878   2.026   1.406  0.0911  0.1054  0.1132
99277W        W74265  20.725   2.163   7.676  0.1780 -0.2835  0.0858
99278W        W74266  34.387  17.806  19.611  0.1621  0.1388  0.0918
99279W        W74267  17.299   4.021  21.420  0.0560  0.0317 -0.1007
99280W        W74268  22.245   8.073  22.180 -0.0702 -0.2495  0.1287
99281W        W74269  28.687  28.347   2.123 -0.0246  0.2045 -0.0249
99282W        W74270  13.392  15.829  23.861 -0.3714  0.1889 -0.0742
99283W        W74271   3.423  10.016  15.244  0.0387  0.2652 -0.2017
99284W        W74272  22.364   8.627  19.983 -0.1198  0.0989 -0.1747
99285W        W74273  17.263  25.566  23.097 -0.0677 -0.0627  0.1331
99286W        W74274  32.357  12.297  16.774 -0.0215 -0.3450 -0.1675
99287W        W74275  33.566   5.882  18.654  0.0703 -0.0138  0.1711
99288W        W74276   9.069  22.118  10.681  0.1635 -0.0552 -0.0180
99289W        W74277  28.987  32.908   3.770  0.1551  0.0263 -0.2442
99290W        W74278  27.986  12.155   8.195 -0.0435  0.3896 -0.0905
99291W        W74279  32.231  30.124  22.430 -0.1315  0.0531  0.0070
99292W        W74280   9.827  21.111  13.325  0.0678  0.1085  0.3038
99293W        W74281  26.820   6.725  20.271  0.2176 -0.3112 -0.0160
99294W        W74282   5.162  11.343   7.483  0.0382  0.3713  0.0322
99295W        W74283  34.811   8.686  16.792  0.5224 -0.2215 -0.1269
99296W        W74284   9.723  12.479   6.254 -0.1697  0.0593 -0.0570
99297W        W74285  34.154  33.534   1.144 -0.3034  0.1366 -0.3210
99298W        W74286   8.431  30.272   6.725  0.2256  0.0667  0.1943
99299W        W74287   1.808  33.391  25.676 -0.0026  0.0356  0.1790
99300W        W74288   6.988  12.545   4.315  0.3000 -0.2045 -0.2263
99301W        W74289  26.563  14.432  13.963 -0.0679 -0.3145  0.0206
99302W        W74290   5.535   4.414   0.022  0.1225  0.0461 -0.1455
99303W        W74291   9.691   5.632   5.525  0.1876 -0.0246 -0.3488
99304W        W74292  16.487  25.087   5.856 -0.1924 -0.1487 -0.2643
99305W        W74293  25.704  13.713  11.107 -0.0767 -0.0102 -0.1360
99306W        W74294  13.049  18.141  22.088 -0.0565  0.1028 -0.2094
99307W        W74295   1.336  10.171  20.274 -0.2911  0.3421  0.0762
99308W        W74296  27.130   1.376  18.712 -0.0252  0.0780  0.2732
99309W        W74297   2.017   2.043   2.640 -0.2396 -0.2800  0.1136
99310W        W74298  32.301  12.282  22.723 -0.1926  0.2254  0.0402
99311W        W74299  33.325  16.249  11.494 -0.1245 -0.0424  0.4978
99312W        W74300  15.443   5.640  24.319  0.0440  0.0582 -0.1549
99313W        W74301  19.275  24.091  20.969  0.3434  0.0864 -0.0674
99314W        W74302  20.680  10.576   1.555  0.1085  0.0800  0.3423
99315W        W74303  20.588  14.076   7.127 -0.2998  0.3234 -0.1717
99316W        W74304  30.929  21.400  12.340 -0.1141 -0.1204 -0.3005
99317W        W74305  28.526   8.194  13.361  0.2253 -0.0344  0.2944
99318W        W74306  16.011  18.338   8.471  0.2635  0.2980 -0.2027
99319W        W74307  25.082   3.805  14.845  0.1153  0.2045  0.1096
99320W        W74308   9.292  17.008  12.837  0.0348 -0.2157  0.2049
99321W        W74309  32.406  31.464  11.956  0.1296  0.3678 -0.1848
99322W        W74310  13.805  11.681  26.189  0.0403 -0.0469 -0.0294
99323W        W74311  34.270  15.247  14.668 -0.1419  0.1969 -0.2864
99324W        W74312  35.126  32.121  15.673 -0.1552 -0.1518 -0.2129
99325W        W74313  31.820  18.404  15.494 -0.0380  0.1324  0.2713
99326W        W74314  14.804  13.469   4.915  0.2534  0.0334  0.2748
99327W        W74315  25.996  25.248   2.287 -0.0696  0.0700 -0.0330
99328W        W74316   3.746   2.142   7.140 -0.0602  0.2945 -0.0556
99329W        W74317  31.015   8.224  22.334  0.1369  0.0980 -0.2903
99330W        W74318   1.759   8.418  15.181  0.2274  0.0907 -0.1756
99331W        W74319  28.288   0.804   0.193  0.3333 -0.1145  0.2083
99332W        W74320  11.323   0.395   3.790  0.0681 -0.2119 -0.2445
99333W        W74321   3.393  15.928  24.489  0.1372  0.2079  0.0534
99334W        W74322  17.180   4.992  22.225 -0.0822 -0.3014 -0.0962
99335W        W74323  34.788  32.899  22.350 -0.3016  0.0248 -0.1908
99336W        W74324  10.883  20.781   3.600 -0.0051  0.3196  0.0522
99337W        W74325   6.459   6.586  23.107 -0.1099 -0.2830 -0.0991
99338W        W74326  26.354  28.814  12.090  0.2070 -0.0385  0.0147
99339W        W74327   0.387   9.445  25.843  0.0807 -0.4320  0.1477
99340W        W74328  32.451   4.268   2.039  0.1626  0.2242 -0.0026
99341W        W74329  25.126  27.582   0.095  0.4561 -0.1227 -0.0461
99342W        W74330  15.270   8.060  21.139  0.3079  0.1160 -0.0368
99343W        W74331   5.219   8.533  18.631  0.0274  0.1786  0.0429
99344W        W74332  27.218   4.075  19.516  0.0758  0.1278 -0.0506
99345W        W74333  23.399   0.550   5.738 -0.0810 -0.0240  0.2482
99346W        W74334  15.182  16.311   7.386  0.1890  0.0827 -0.1926
99347W        W74335  21.223   5.615   3.915 -0.1897  0.1539 -0.3519
99348W        W74336   6.165   4.690   5.693 -0.0302 -0.1318 -0.0826
99349W        W74337   3.569   7.932   1.983  0.1578 -0.1135 -0.1064
99350W        W74338  11.031   2.315   6.810  0.0183 -0.0317 -0.0860
99351W        W74339  29.185  21.727   5.339  0.1518 -0.2155 -0.2572
99352W        W74340  24.310   8.527  14.268  0.0124 -0.1601  0.0228
99353W        W74341   5.087  26.358  25.090  0.0293 -0.0179  0.1048
99354W        W74342  27.532   9.187   0.293  0.3134  0.1918 -0.1101
99355W        W74343  33.211  30.741  23.849  0.1486  0.0998 -0.2074
99356W        W74344  13.619   9.295   5.024  0.0355 -0.2376 -0.3477
99357W        W74345   3.299   9.476  18.465 -0.1814  0.3876  0.0669
99358W        W74346  22.688  25.946  12.743  0.3411  0.0954  0.0146
99359W        W74347  27.664  30.926  22.601  0.2529 -0.1978  0.0694
99360W        W74348  18.284  13.267  18.454 -0.2751  0.2073 -0.0557
99361W        W74349  11.856   5.965  11.998 -0.2763 -0.0793  0.3015
99362W        W74350  31.891  21.072   8.009  0.0849  0.3931  0.0448
99363W        W74351  14.816  31.336   9.010 -0.3393  0.1967  0.2567
99364W        W74352  18.949  31.631   6.110 -0.2348 -0.1675  0.0957
99365W        W74353  27.915  19.709  12.319  0.0154  0.0484  0.1646
99366W        W74354  18.619  33.980  21.859 -0.0656 -0.0225  0.0159
99367W        W74355  29.880   7.699  21.818 -0.0675  0.2525  0.0430
99368W        W74356  30.744  20.327  14.203  0.0381  0.1188 -0.1102
99369W        W74357   7.171  31.613  22.097 -0.0713  0.0060 -0.0538
99370W        W74358  15.463  26.671   3.521  0.3844  0.0040  0.1480
99371W        W74359   2.584  35.379  17.939  0.0680 -0.1097 -0.0661
99372W        W74360  28.949   6.039  17.697 -0.1161  0.1798  0.2132
99373W        W74361  21.986  30.916  20.429 -0.0317 -0.0534 -0.0704
99374W        W74362   9.260  11.938  22.109  0.2595  0.2378  0.0943
99375W        W74363  21.527  31.294   2.749 -0.1832 -0.1883 -0.2505
99376W        W74364  27.921  21.549  20.026 -0.0729 -0.0971 -0.1446
99377W        W74365   1.815  26.449   4.049  0.0684 -0.0953 -0.2698
99378W        W74366  27.445  11.418  14.876  0.0175 -0.0030  0.2786
99379W        W74367  23.622  10.255   3.550  0.2391 -0.0877  0.0634
99380W        W74368   0.404  33.995  22.090 -0.3908 -0.0267 -0.0188
99381W        W74369  34.827  34.830  18.051 -0.1690 -0.2829  0.0815
99382W        W74370  26.802  33.127   5.766  0.1153 -0.0309  0.0908
99383W        W74371  18.171   3.236   4.090 -0.0256  0.0288  0.2607
99384W        W74372   4.557   4.222   1.449  0.2120  0.1767 -0.0947
99385W        W74373  14.626  31.385  14.715  0.1011 -0.1164 -0.0760
99386W        W74374  25.347  22.940  23.808 -0.4269  0.1434  0.3246
99387W        W74375   4.091   0.337  10.803  0.1565 -0.2610 -0.2872
99388W        W74376  17.166  18.281   1.914 -0.2959 -0.0357  0.1797
99389W        W74377  33.174   4.907   1.879 -0.0363 -0.0027 -0.1042
99390W        W74378  17.057  16.184   9.991  0.0705  0.3231 -0.0076
99391W        W74379  23.345  30.658  18.252 -0.1728 -0.5192 -0.1170
99392W        W74380  30.468  17.173  13.499 -0.5930  0.1214 -0.1356
99393W        W74381   3.938  10.749  19.344  0.0536 -0.1497 -0.0190
99394W        W74382  33.156  11.500  10.839 -0.5011  0.0319 -0.1851
99395W        W74383  11.037   7.856   5.710  0.2174 -0.2175 -0.1574
99396W        W74384  24.846  25.325   0.143  0.1591  0.1074  0.2055
99397W        W74385  22.792  20.194  15.421 -0.1499 -0.2234 -0.1208
99398W        W74386  31.783  14.861  21.750  0.0505  0.2228  0.1128
99399W        W74387   4.212   3.925   4.756  0.3334 -0.2177  0.0578
99400W        W74388  27.905  31.957  19.002  0.3162 -0.0241  0.0050
99401W        W74389  21.727  27.787   1.899 -0.3321  0.0640 -0.2402
99402W        W74390  34.495  12.571  14.414 -0.2775 -0.2107  0.0906
99403W        W74391  13.525  20.860  11.962  0.2303  0.1013 -0.0795
99404W        W74392  14.898  19.536  13.635  0.2649 -0.0677 -0.1785
99405W        W74393   0.212  10.148  16.098 -0.0260 -0.0186  0.3662
99406W        W74394   6.373   7.283  19.839  0.3568 -0.2671  0.0293
99407W        W74395  12.699  16.389   7.474 -0.1603  0.0855  0.0600
99408W        W74396  18.208  25.210   3.920 -0.0045  0.2854  0.0399
99409W        W74397  16.042   0.907  19.644  0.2802 -0.1569  0.0031
99410W        W74398  34.014  25.175  21.805  0.2170 -0.1503  0.0071
99411W        W74399  33.955  34.729  17.002  0.2309  0.0413  0.0940
99412W        W74400  17.155  11.201  25.630  0.0296  0.1378 -0.0187
99413W        W74401  34.289   1.010  24.327  0.1828  0.1965  0.3273
99414W        W74402   5.961  22.231  21.237  0.0734  0.3512  0.0173
99415W        W74403  14.571   5.257  10.107 -0.0443 -0.0486  0.2128
99416W        W74404  15.723   5.742  17.775 -0.0528 -0.3452  0.1332
99417W        W74405  31.250  22.648  22.849 -0.1388 -0.0606 -0.2077
99418W        W74406  30.395  24.273  13.144  0.0887 -0.1410  0.3933
99419W        W74407  18.294   7.422  26.030 -0.2633  0.1010  0.0680
99420W        W74408  33.855  29.174   3.089  0.1568  0.1524  0.0439
99421W        W74409   5.937   3.002  20.167  0.0756 -0.1827 -0.2109
99422W        W74410   2.578  29.462  25.889 -0.2318  0.0092  0.1008
99423W        W74411  23.941  13.964  13.701  0.0889 -0.0536  0.0201
99424W        W74412   0.091  30.101   6.304 -0.1453  0.2042  0.2740
99425W        W74413  11.670  28.144  10.387  0.1126 -0.3265 -0.4360
99426W        W74414   7.124  12.457  23.344  0.1071  0.3012 -0.0186
99427W        W74415  14.924  17.376  20.296  0.0766 -0.1564 -0.2240
99428W        W74416  14.118   5.219  21.641 -0.0342  0.1616 -0.1818
99429W        W74417   1.790  29.931   5.605  0.2185  0.2126 -0.2348
99430W        W74418  24.069   4.809  25.036 -0.0222 -0.1758  0.1051
99431W        W74419  14.389   6.210   3.210  0.0347 -0.4078 -0.2389
99432W        W74420  24.025  31.208  20.957 -0.1317 -0.3088  0.0925
99433W        W74421   1.903  23.250  20.633  0.2213 -0.0196 -0.2144
99434W        W74422  14.803  28.090  10.314  0.1341 -0.1910 -0.1132
99435W        W74423  14.295  12.189   3.942 -0.1161 -0.0262  0.0273
99436W        W74424  13.796  11.487   4.292 -0.0905 -0.3939 -0.1165
99437W        W74425   2.750  12.316   3.576 -0.0886 -0.0227 -0.0802
99438W        W74426   3.451  19.045  15.308 -0.1293 -0.2569  0.1978
99439W        W74427  12.429  25.819   7.275 -0.1275  0.0752 -0.1778
99440W        W74428   3.409  13.416  23.419 -0.2089  0.1708  0.2103
99441W        W74429  25.882  33.183  25.728 -0.0712 -0.1237  0.0189
99442W        W74430  29.856  27.590  16.328 -0.2390  0.0887  0.0927
99443W        W74431  32.349  19.474  13.407 -0.2227 -0.0959  0.0915
99444W        W74432   2.263  24.987  23.175 -0.1437  0.0917  0.3327
99445W        W74433  12.976  30.703  21.905  0.1313  0.2065 -0.0877
99446W        W74434  25.733  21.418   0.311  0.1903 -0.2110 -0.0073
99447W        W74435  13.408   7.138   8.399 -0.1555 -0.2220 -0.0457
99448W        W74436  14.435  27.215   0.600  0.0989  0.1711 -0.2053
99449W        W74437  21.641  25.528  18.269 -0.2626 -0.0866 -0.0873
99450W        W74438  23.145   5.359  15.920 -0.1116 -0.1756  0.1273
99451W        W74439  23.515  21.724  25.944  0.1521 -0.1859  0.1642
99452W        W74440  20.368   3.739   0.503 -0.2382  0.0620  0.1943
99453W        W74441  18.782  25.973   9.412  0.3688 -0.0748 -0.0552
99454W        W74442  34.267   1.165   4.059 -0.2631  0.1703  0.1512
99455W        W74443   9.146  14.654   8.470  0.1585  0.2309  0.4103
99456W        W74444  26.147  11.979  14.096  0.2441 -0.2760  0.1858
99457W        W74445  12.589  34.662  10.611  0.1141 -0.0139 -0.1193
99458W        W74446  17.059  12.371  25.279  0.2017  0.2171 -0.2025
99459W        W74447   8.474  21.742   0.373  0.0653 -0.1793 -0.0316
99460W        W74448  29.614   2.117   1.317  0.3535 -0.1069 -0.3260
99461W        W74449  11.091  25.231   1.837  0.0696 -0.3234  0.1423
99462W        W74450  18.801  21.037  22.980  0.0902  0.1676 -0.2664
99463W        W74451  31.933   6.703  25.464 -0.1271  0.3048  0.0805
99464W        W74452   7.189  12.954  18.305  0.0364  0.1401 -0.0180
99465W        W74453  20.040  11.759   4.175 -0.0242  0.1242  0.0502
99466W        W74454  24.628  29.778  26.180 -0.2572 -0.1922 -0.1451
99467W        W74455   0.619  15.184  24.683 -0.0514  0.0463 -0.0268
99468W        W74456  13.630  21.903  15.741  0.2801  0.2129  0.2415
99469W        W74457  27.177  31.463  18.946 -0.0670 -0.0455 -0.2190
99470W        W74458  23.832  10.727   0.462 -0.2812  0.0923 -0.2744
99471W        W74459  10.912   6.276   6.029  0.0240 -0.1963  0.0567
99472W        W74460  31.278  16.883  12.081 -0.0506  0.0900 -0.0099
99473W        W74461  28.895  16.684  20.533 -0.3001  0.0240 -0.1698
99474W        W74462  15.500  24.136  23.573 -0.0843 -0.2576 -0.3027
99475W        W74463  15.070  14.179  21.364 -0.0809  0.4006 -0.2368
99476W        W74464  11.778  30.764   7.203  0.1036 -0.1378  0.2884
99477W        W74465  12.669  10.312   0.851 -0.3547  0.0199 -0.0986
99478W        W74466   6.720  12.000  23.657 -0.0309  0.2858  0.1084
99479W        W74467   4.694  27.618  24.265  0.1075 -0.0695  0.2799
99480W        W74468   7.864  30.747   1.881  0.0509  0.2756 -0.0102
99481W        W74469  30.106  16.564  10.721 -0.2585 -0.4775 -0.0625
99482W        W74470  33.005  27.477  20.502 -0.1457 -0.3585 -0.3098
99483W        W74471  15.573  34.399  25.239  0.3146  0.2055 -0.3195
99484W        W74472  23.401  27.973   1.011  0.0312 -0.0001  0.2909
99485W        W74473  18.161   2.641   6.418  0.2768 -0.1327 -0.1219
99486W        W74474  10.592   4.129  22.375 -0.2033 -0.0919 -0.0407
99487W        W74475   3.603   0.544   7.212  0.0121  0.0844  0.1109
99488W        W74476  29.805  34.033   1.339 -0.1350  0.3263  0.1692
99489W        W74477  14.334  25.822   1.759 -0.1810  0.2245  0.0462
99490W        W74478   4.991  27.972   7.294  0.1261  0.1160 -0.1934
99491W        W74479  21.259   4.142  16.449 -0.3715  0.0455  0.0066
99492W        W74480   4.810  29.152   9.261 -0.0013 -0.0424 -0.0000
99493W        W74481  16.428  13.711  25.985 -0.1320 -0.1002 -0.0895
99494W        W74482  34.290  10.842  16.416  0.0475 -0.1685 -0.1449
99495W        W74483  20.956  23.845   0.179  0.2922  0.0943 -0.0191
99496W        W74484  10.412  29.598  16.393 -0.2504  0.1601 -0.1166
99497W        W74485  28.263  33.833  12.573 -0.0498 -0.0195 -0.6632
99498W        W74486  27.554  33.214   5.441 -0.0814 -0.0580 -0.1330
99499W        W74487  32.705   2.901  24.706  0.0574  0.0885 -0.1281
99500W        W74488   9.154  33.375  14.546 -0.4238  0.2706 -0.0638
99501W        W74489  21.595   4.941   5.207 -0.1727  0.1859 -0.1626
99502W        W74490  21.937  19.281  14.555 -0.1557 -0.0453 -0.2242
99503W        W74491  33.097  29.504  17.726 -0.1282 -0.2769 -0.3127
99504W        W74492   3.480  12.280   1.008  0.0146 -0.0162  0.1633
99505W        W74493  11.170  10.040  10.022  0.2071 -0.1479  0.0146
99506W        W74494  33.673   1.858   4.299  0.3129 -0.2495 -0.2370
99507W        W74495   6.812  21.681   4.625  0.1309 -0.1912 -0.0079
99508W        W74496  30.298   6.790   2.773 -0.2818 -0.0287 -0.1894
99509W        W74497   3.368   5.457   0.252  0.1519  0.0995  0.0649
99510W        W74498  26.707  35.065   3.698  0.0134 -0.4347 -0.4671
99511W        W74499   0.521  28.905   0.463  0.0529 -0.2092 -0.2398
99512W        W74500  33.674  33.954  18.953 -0.3210  0.1637  0.2259
99513W        W74501  22.516   9.303  17.117 -0.1024 -0.2322 -0.2681
99514W        W74502  30.009  18.083  21.190 -0.4789  0.0565 -0.1169
99515W        W74503  34.980  16.818   7.077 -0.3304  0.3976 -0.4261
99516W        W74504  30.204  26.879  17.708  0.3881 -0.3617  0.1346
99517W        W74505  25.633  35.082  20.924  0.0709  0.1353 -0.0483
99518W        W74506  33.053  21.233   7.335 -0.1904 -0.2889  0.0014
99519W        W74507   9.594  20.883   0.629 -0.0671 -0.1986 -0.1029
99520W        W74508   9.824  31.097   7.244  0.1098 -0.1754 -0.2563
99521W        W74509  10.362   2.982  10.707 -0.1705 -0.0222  0.4890
99522W        W74510  12.629   0.477   8.639 -0.2171 -0.3816 -0.0143
99523W        W74511  27.047  31.742  26.055 -0.0201  0.1331 -0.1485
99524W        W74512   1.596   5.805  26.145  0.1346 -0.1832 -0.1157
99525W        W74513  31.019   5.584  16.092 -0.2073  0.0354 -0.1599
99526W        W74514  32.272  25.750  21.990 -0.1326  0.0283  0.0992
99527W        W74515  23.671  27.553  25.059  0.3048 -0.2934  0.0897
99528W        W74516  24.753  26.417  24.792  0.1461  0.0547  0.2239
99529W        W74517  18.042  19.520  21.143 -0.1531  0.3047  0.1878
99530W        W74518   3.840   6.765   5.347 -0.1185 -0.0921  0.0109
99531W        W74519  33.118   1.306   7.416 -0.0907  0.2327 -0.3128
99532W        W74520  32.235  33.481   2.767 -0.1415  0.1168  0.0214
99533W        W74521   9.772  13.620   5.855  0.0467 -0.0960  0.3474
99534W        W74522  16.661   2.985  17.695 -0.3209 -0.2596 -0.0624
99535W        W74523   3.901   1.967   3.070 -0.2349  0.0007  0.1429
99536W        W74524  14.799  29.113  23.684  0.0253 -0.0574 -0.0070
99537W        W74525  29.121  31.087  15.058  0.2173  0.0540  0.3120
99538W        W74526   8.172   4.786   4.530 -0.2473 -0.3662 -0.0684
99539W        W74527  13.664   8.659  21.996 -0.0014  0.2248  0.0896
99540W        W74528   2.857  33.705  23.352  0.0978 -0.0135 -0.1169
99541W        W74529   5.874  32.083  21.864  0.2793 -0.0440  0.0787
99542W        W74530  12.515  15.578   5.203 -0.2814 -0.1221  0.3907
99543W        W74531  22.701  18.532  15.360  0.1337  0.1312  0.2440
99544W        W74532   7.121   3.968  22.228  0.2217  0.1314 -0.0141
99545W        W74533   9.156   8.143  24.255 -0.3583  0.2944  0.2131
99546W        W74534  34.511  26.814  24.496 -0.2791 -0.0714 -0.3728
99547W        W74535   8.293  21.137   0.602  0.0694  0.3208  0.3618
99548W        W74536  15.546   5.770   0.746  0.0261  0.1456 -0.0353
99549W        W74537   5.019  12.683   9.843 -0.0888  0.2185  0.0196
99550W        W74538   5.961  22.320   0.773 -0.0320 -0.0708 -0.0910
99551W        W74539  17.728   0.963  19.700  0.2462  0.1877 -0.4170
99552W        W74540   2.414  24.680   3.475  0.0409  0.0455  0.0336
99553W        W74541  18.941  16.131   6.517 -0.0929 -0.0642  0.1237
99554W        W74542   3.693  14.027   3.413  0.2214  0.0034  0.0362
99555W        W74543  16.572  34.072   0.528 -0.2014  0.2489  0.2450
99556W        W74544  29.964   9.205  16.654 -0.0635  0.2755  0.3338
99557W        W74545  34.811   5.835  16.041  0.1273 -0.4068  0.1602
99558W        W74546  30.735   6.158   2.430 -0.2503 -0.1893 -0.0154
99559W        W74547  18.099  19.297  10.367 -0.0296  0.0066  0.0891
99560W        W74548  27.184  17.607  21.882  0.0290  0.1993 -0.0143
99561W        W74549  13.463  27.892  24.204 -0.3577 -0.2023  0.0085
99562W        W74550  14.217   2.649  11.190  0.1435  0.0385  0.0320
99563W        W74551  26.839  20.957   8.972 -0.2237  0.1725  0.0535
99564W        W74552  13.398  20.204  23.669 -0.1500  0.2042 -0.1861
99565W        W74553  31.553  19.890   9.751 -0.1297 -0.1417 -0.0437
99566W        W74554   5.739  27.044   0.885 -0.0537  0.5660  0.3358
99567W        W74555   9.517   9.656  22.233 -0.0151 -0.1028  0.1749
99568W        W74556   7.722   5.048  21.296 -0.2154  0.1658  0.1372
99569W        W74557  15.573  10.362   8.630  0.0472  0.0870 -0.1586
99570W        W74558  12.763   5.144  21.580  0.0029  0.0908  0.2066
99571W        W74559  34.926   6.174   0.513  0.0929 -0.4673 -0.0277
99572W        W74560  30.328  28.596  13.985  0.0905  0.2698  0.2832
99573W        W74561  35.302  35.188  25.675 -0.1731 -0.0037 -0.2488
99574W        W74562  26.117  26.734  10.640  0.0010 -0.1153 -0.2057
99575W        W74563   3.288  15.196   0.207 -0.0345 -0.0821  0.0259
99576W        W74564  25.764  26.713  10.040 -0.0992 -0.0526  0.2066
99577W        W74565  13.933  29.337  13.367  0.0055 -0.0720 -0.0175
99578W        W74566   2.790  33.050   1.761 -0.3475 -0.0672 -0.1234
99579W        W74567  23.375   9.111   0.679 -0.2633 -0.3005 -0.1939
99580W        W74568  11.764  17.302   8.597  0.2740 -0.2277  0.3053
99581W        W74569  26.656  32.336  16.753 -0.1378 -0.1323  0.2043
99582W        W74570   7.410   6.116   7.613  0.0770 -0.1520  0.1270
99583W        W74571  24.147   6.194  15.113 -0.1464  0.0488 -0.1290
99584W        W74572  30.069  21.116  13.413  0.0954 -0.0416  0.2402
99585W        W74573   9.380   6.055  18.625  0.1086  0.0525  0.1230
99586W        W74574  32.561  24.149  10.745 -0.2967  0.0280 -0.2055
99587W        W74575  32.847  32.618  19.901  0.0069  0.2242  0.1553
99588W        W74576  17.928  34.914   6.595  0.0631  0.1262  0.0310
99589W        W74577  24.456  11.231   0.985  0.2113 -0.3682  0.0222
99590W        W74578  35.261  29.235  18.190  0.0037 -0.1092 -0.0393
99591W        W74579   5.414  22.668   0.357  0.1085 -0.2010  0.1083
99592W        W74580   1.906  11.470  21.791  0.1169 -0.0482  0.0966
99593W        W74581  20.471   1.215  20.354 -0.0282 -0.2943  0.1189
99594W        W74582  34.897   5.645   3.651  0.0707  0.1308 -0.0883
99595W        W74583  28.473   4.197  17.010 -0.1047 -0.3383 -0.0817
99596W        W74584  18.844  23.901  20.712 -0.1034 -0.1472 -0.0672
99597W        W74585  14.952   0.649  10.986 -0.1445  0.0887 -0.2056
99598W        W74586  15.541   7.603   3.144 -0.0979  0.0755  0.0750
99599W        W74587  23.150   2.658  24.484 -0.1564 -0.1084 -0.0893
99600W        W74588  19.455  23.085   8.478 -0.0243 -0.1517 -0.5155
99601W        W74589  21.357   0.413  20.180 -0.0234 -0.0499 -0.2291
99602W        W74590  31.465  33.260  13.655  0.2605 -0.1899 -0.0213
99603W        W74591  33.983  24.622  15.174 -0.1190  0.2029 -0.1299
99604W        W74592  20.787  33.698   2.977 -0.1817  0.0608  0.0938
99605W        W74593  29.981  25.590  13.253  0.1599 -0.0456  0.1557
99606W        W74594  28.973  28.525  12.402 -0.3551 -0.2832 -0.2040
99607W        W74595  11.097  25.790  14.888 -0.0298  0.0109 -0.0343
99608W        W74596  21.172  25.402  17.430 -0.0379  0.1216 -0.0317
99609W        W74597   2.903  10.492  26.178  0.0438 -0.0219  0.3679
99610W        W74598   3.920  22.926   5.333  0.1266  0.1021  0.1742
99611W        W74599   7.186  32.661  13.023 -0.1039  0.0978 -0.2674
99612W        W74600  19.360  25.043  23.337  0.2093 -0.0603 -0.2992
99613W        W74601  27.096  16.584  24.118  0.1697  0.0618  0.0292
99614W        W74602  34.768  34.840  17.547 -0.2107  0.1957 -0.0758
99615W        W74603  14.226  21.197  24.952  0.1006 -0.2971 -0.2552
99616W        W74604  21.392  23.032  18.462  0.0984  0.0998  0.0688
99617W        W74605  34.381  34.188  21.610 -0.1723  0.2122  0.2854
99618W        W74606  20.796  22.786  25.716  0.0966 -0.2319 -0.0609
99619W        W74607  29.764  27.840  18.625  0.0525 -0.2525  0.0840
99620W        W74608  26.353  16.139  10.409  0.1938  0.1344 -0.0667
99621W        W74609  12.852   7.713   8.957  0.0821  0.0838 -0.0102
99622W        W74610   5.977  34.864  25.832 -0.2202  0.0793 -0.0086
99623W        W74611  33.306  35.021  19.427 -0.3393  0.0876  0.1412
99624W        W74612   8.188   4.788   0.893  0.0565  0.0733 -0.4778
99625W        W74613  31.336  31.710   0.085  0.0168 -0.1129 -0.0591
99626W        W74614  15.991  14.636  24.991 -0.0924 -0.2501 -0.0562
99627W        W74615  34.864  26.024  23.235 -0.0085 -0.0322  0.0499
99628W        W74616   8.676  29.813  10.038 -0.1620 -0.0166  0.0064
99629W        W74617   8.007  33.371   6.373  0.0378  0.1941  0.0654
99630W        W74618   7.285  13.259  26.195 -0.0833  0.2666  0.2350
99631W        W74619  15.868  32.796   6.577 -0.1070 -0.3317 -0.1164
99632W        W74620  26.605  16.569  10.805 -0.0430 -0.0929  0.1542
99633W        W74621   2.914   1.699   3.780 -0.1121 -0.2348 -0.2463
99634W        W74622  24.261  21.190  25.293  0.2715 -0.0631 -0.1776
99635W        W74623  32.147  20.742  11.564  0.2069 -0.6604  0.1419
99636W        W74624  32.192  27.457  12.265  0.1718 -0.4630  0.0929
99637W        W74625  33.701  21.082  25.982 -0.1838  0.1822  0.1701
99638W        W74626  19.842   1.802  20.510 -0.2117 -0.0927  0.1151
99639W        W74627  33.075  19.779  19.859 -0.1941  0.1898  0.0947
99640W        W74628  25.320  13.750  19.532 -0.0570  0.3929  0.0661
99641W        W74629   6.129  33.323   7.232 -0.1747 -0.2911  0.0183
99642W        W74630  30.062  18.204  24.551 -0.1696 -0.1514  0.0852
99643W        W74631  24.767  13.090  11.042  0.1153  0.0452 -0.1408
99644W        W74632  10.780   7.087  11.796 -0.1015  0.0091  0.1301
99645W        W74633  23.773  21.198   2.306 -0.1675  0.0501  0.2385
99646W        W74634   4.969   4.240   7.944 -0.1246 -0.1265  0.1603
99647W        W74635  30.737  31.160   2.095 -0.2098 -0.1138 -0.0731
99648W        W74636   5.881   9.385  18.545  0.0106  0.3930  0.1323
99649W        W74637  28.522  15.523   7.490 -0.0550 -0.3188 -0.1982
99650W        W74638  28.308   7.532  12.956  0.1758  0.0496  0.0081
99651W        W74639  17.739  21.046  25.386 -0.0086 -0.0286  0.0942
99652W        W74640  18.500  14.844   6.674 -0.0850 -0.0415 -0.2162
99653W        W74641  10.471  29.405   5.004 -0.1501  0.2216 -0.2298
99654W        W74642  21.550  19.864  25.969 -0.0166  0.0495 -0.0498
99655W        W74643  25.061  26.757   0.734  0.1544 -0.3170  0.3092
99656W        W74644   0.457   2.472  22.596  0.3399  0.1785  0.0564
99657W        W74645  16.502   6.847  26.080 -0.2561  0.0031 -0.0062
99658W        W74646   4.918   2.736   5.078 -0.0280  0.1426  0.1507
99659W        W74647  11.502  22.632   8.178 -0.0733 -0.0930  0.1360
99660W        W74648  15.835  17.790   0.778 -0.1664 -0.1683  0.0750
99661W        W74649   7.904   4.398   2.892 -0.0038  0.1257 -0.0989
99662W        W74650  12.163  29.361   6.684 -0.2008 -0.2879 -0.1553
99663W        W74651  34.893   7.300  19.951  0.1325 -0.0190 -0.1803
99664W        W74652  33.335  34.659   4.604  0.0200 -0.1154  0.1015
99665W        W74653  27.080  35.220  20.014  0.0286 -0.1336  0.0380
99666W        W74654  32.841  20.645  24.186  0.1933 -0.2382  0.1045
99667W        W74655   1.557  15.894  25.525 -0.0184 -0.2240 -0.1953
99668W        W74656  23.635  31.733   5.091  0.1255  0.1786  0.1176
99669W        W74657  12.763  17.247  22.566 -0.2201 -0.5302 -0.2509
99670W        W74658  18.611  25.584   8.192 -0.0020  0.0292  0.0274
99671W        W74659  26.012   0.007  14.766 -0.0566 -0.1364  0.0760
99672W        W74660  11.106  32.163  10.979 -0.0602 -0.1856 -0.1438
99673W        W74661   3.732   8.852   4.955  0.2840 -0.0380 -0.1009
99674W        W74662   7.850  34.711   8.004 -0.2641  0.2506  0.2409
99675W        W74663  26.972  33.647  24.395  0.2878 -0.1151 -0.0316
99676W        W74664   1.904   4.865  21.160 -0.2419  0.1060 -0.4622
99677W        W74665  12.554   0.930  10.173  0.0619  0.0989  0.0821
99678W        W74666  31.213  17.098   6.087  0.0393 -0.0815  0.0122
99679W        W74667  26.881  15.796  22.756  0.0417 -0.2812  0.0574
99680W        W74668  10.745  31.580   4.180  0.2042 -0.0429  0.0430
99681W        W74669  31.119  18.065  12.700 -0.2546 -0.0217  0.0759
99682W        W74670   6.106  27.635   2.414  0.3677 -0.0700 -0.0272
99683W        W74671  12.682   1.164   9.253 -0.1030  0.1085 -0.1034
99684W        W74672  22.262  28.639   2.472 -0.0090 -0.3371 -0.1403
99685W        W74673  19.359  29.911  17.399  0.0751  0.1220 -0.2192
99686W        W74674   1.599   7.585  25.266  0.0116 -0.0557 -0.0850
99687W        W74675  22.431  21.385  15.881 -0.2405  0.0528  0.2399
99688W        W74676  34.182  10.321  10.908 -0.2368 -0.1988  0.2612
99689W        W74677  19.932  30.685  22.816 -0.1497 -0.1340  0.0169
99690W        W74678  10.619   9.172   8.242  0.1476  0.2338 -0.3705
99691W        W74679  18.922  11.631  24.350  0.0628  0.0403 -0.2469
99692W        W74680  14.647   8.130  12.996  0.1477 -0.1189  0.0177
99693W        W74681   5.905  34.196   6.840 -0.0358  0.2261 -0.2851
99694W        W74682  18.077   6.545  25.195 -0.1841  0.3614  0.0670
99695W        W74683   5.859   9.507   8.610 -0.2355 -0.0037 -0.3503
99696W        W74684  16.761  22.253   0.442  0.0401 -0.1852  0.0765
99697W        W74685  24.019  31.970  19.422  0.2360  0.1906 -0.1750
99698W        W74686  13.746  14.066  12.331  0.0719 -0.0960 -0.0318
99699W        W74687  30.172  26.185   8.898 -0.1702  0.0697  0.0514
99700W        W74688  20.672  16.820  24.693  0.2379 -0.1093  0.0432
99701W        W74689   8.070  30.192  16.213  0.0976 -0.0795 -0.1252
99702W        W74690  24.149  27.679  11.954  0.1338  0.0995  0.1041
99703W        W74691  20.732   0.566  15.799 -0.3398  0.0638 -0.2259
99704W        W74692   2.140  17.258  18.094  0.1982  0.0901 -0.1806
99705W        W74693   2.759   7.223  19.519  0.1219  0.1766  0.0996
99706W        W74694   6.879  23.834  25.767 -0.4195 -0.1213  0.1706
99707W        W74695   4.325  31.116   9.605 -0.1166  0.2789  0.0155
99708W        W74696  23.159  10.092   4.571 -0.5214  0.0649 -0.1687
99709W        W74697  16.261  10.602   5.999 -0.1071 -0.0579 -0.0661
99710W        W74698  18.750  22.865   6.513 -0.1074 -0.0955  0.0984
99711W        W74699   0.542   5.933   3.230  0.0378 -0.0925 -0.0419
99712W        W74700  14.117   0.886  22.586  0.0255 -0.1684  0.1620
99713W        W74701  31.219  18.132  23.796 -0.2559 -0.0206 -0.2358
99714W        W74702  20.971  25.131   3.777  0.2242  0.1427 -0.0717
99715W        W74703   9.842  25.925   0.896 -0.0192  0.0725  0.0684
99716W        W74704   4.788  32.581   5.845 -0.2693  0.0430 -0.0230
99717W        W74705   3.841   7.233   4.425 -0.0168 -0.0937  0.1748
99718W        W74706  14.460   4.790   2.596 -0.3463 -0.1966 -0.1750
99719W        W74707  23.424   1.754  16.505  0.1878  0.0165 -0.2805
99720W        W74708  16.709   6.412   6.215 -0.3472  0.0189 -0.0910
99721W        W74709   9.539  19.232   2.087  0.1047  0.3473  0.0539
99722W        W74710  14.583  15.309   0.646  0.0988 -0.0866  0.0595
99723W        W74711  16.786   7.838  23.380  0.1376  0.0362  0.0869
99724W        W74712  33.777  22.893  23.596 -0.0655 -0.0545  0.1100
99725W        W74713   4.847  32.670  24.467  0.1091 -0.0657  0.1645
99726W        W74714   3.390  20.779   3.055 -0.0527 -0.1779 -0.0478
99727W        W74715  18.862  18.513  20.273  0.1486 -0.1200 -0.0403
99728W        W74716  16.341   0.292   8.603  0.1565  0.0277  0.0132
99729W        W74717  11.301   6.667  20.545 -0.1858  0.0835 -0.0629
99730W        W74718  28.747  34.900  15.093 -0.1056 -0.0090 -0.1673
99731W        W74719   1.842   3.737   0.052 -0.1173 -0.2146  0.3150
99732W        W74720  24.958   6.195  20.807 -0.0080  0.1060  0.0806
99733W        W74721   8.835   9.363  11.221 -0.1120  0.0796 -0.0516
99734W        W74722  28.542  20.971  11.932  0.1484  0.0304 -0.2538
99735W        W74723  12.567   6.515   9.228 -0.3818  0.0207  0.1590
99736W        W74724   4.813   4.831  18.800 -0.0421  0.2891  0.1290
99737W        W74725  17.127   5.796  19.490  0.1351  0.0684  0.0027
99738W        W74726   0.378  11.326   1.074 -0.0895 -0.2611 -0.2182
99739W        W74727  10.125  18.465  23.742  0.2112 -0.2114  0.0799
99740W        W74728  19.069   5.172  19.831 -0.1518  0.1371 -0.2747
99741W        W74729  11.812  31.000  10.413 -0.0509  0.2397 -0.0260
99742W        W74730  35.153  20.801  13.078  0.3882  0.0930  0.0388
99743W        W74731   0.478   2.753  25.585 -0.0703 -0.0632  0.3053
99744W        W74732  11.642  18.038   1.817 -0.1198  0.1748 -0.3125
99745W        W74733   9.243  14.146   8.960 -0.0289 -0.0025 -0.1007
99746W        W74734  28.855  21.462   4.813 -0.0684 -0.0758  0.0578
99747W        W74735  20.370  24.784  23.025 -0.2008 -0.3945  0.2145
99748W        W74736  12.925  26.164   9.683  0.4533 -0.1896 -0.2345
99749W        W74737   1.405  18.854   0.132 -0.0369  0.1134  0.4797
99750W        W74738  26.694  34.859  13.722  0.2972  0.0769  0.3033
99751W        W74739  15.311  23.755  13.604  0.0770 -0.3912  0.0357
99752W        W74740  30.451  17.716  10.518  0.1828  0.4271 -0.0418
99753W        W74741   4.773   5.268   9.692  0.1475 -0.2668  0.0148
99754W        W74742  13.808  11.907   2.461 -0.0051 -0.1365 -0.4383
99755W        W74743   3.463  23.364  25.644 -0.2018 -0.1156  0.1581
99756W        W74744  28.579   8.193  18.208  0.4780 -0.0085 -0.0413
99757W        W74745  15.470  26.632  23.278  0.0684  0.0947  0.1699
99758W        W74746   2.487  17.303  11.130 -0.3618 -0.2154  0.0874
99759W        W74747  19.334   9.555  21.562 -0.0491 -0.1623 -0.1326
99760W        W74748   2.622  27.796  20.638 -0.0949  0.1292  0.1844
99761W        W74749  15.229  24.651   5.912 -0.0225  0.2350 -0.0191
99762W        W74750  31.180  21.547  15.403 -0.4410  0.1341 -0.2606
99763W        W74751  14.547  22.723  17.112  0.0601  0.1281 -0.0729
99764W        W74752  11.710  29.927   7.536  0.0783 -0.0147 -0.2416
99765W        W74753  10.572  10.990   1.038  0.3569  0.0412  0.0265
99766W        W74754  34.293  27.976   4.765  0.0656  0.0544 -0.0463
99767W        W74755  23.308  10.266   1.856  0.0303 -0.4847  0.0470
99768W        W74756  19.452  29.864  26.045  0.2216  0.1192  0.1489
99769W        W74757  29.891  25.057  24.164 -0.0376 -0.3403  0.2311
99770W        W74758  12.739  19.484   0.609  0.1947  0.2000  0.1472
99771W        W74759  34.851  13.994   0.549 -0.1451  0.2871 -0.3678
99772W        W74760  15.875   3.269  20.786  0.0141  0.0007 -0.0444
99773W        W74761  32.693  13.405  15.304  0.0919  0.2032 -0.0746
99774W        W74762   3.488  29.352   7.228 -0.0674  0.0641 -0.3130
99775W        W74763  15.829  14.577   1.545  0.1974  0.6542 -0.1113
99776W        W74764   4.561  32.528   9.499 -0.0938 -0.0951  0.3216
99777W        W74765   5.520  21.350  25.407 -0.2370  0.1398 -0.0085
99778W        W74766  19.857   1.173   5.926 -0.0151 -0.2619 -0.0794
99779W        W74767  34.397  10.893  16.973 -0.0567 -0.4385 -0.1171
99780W        W74768  26.733   3.453  15.789 -0.1424  0.1856  0.2345
99781W        W74769  27.711  15.862  10.875 -0.2129  0.2884  0.0664
99782W        W74770   6.606  17.031  23.177 -0.1740 -0.1063  0.0467
99783W        W74771   4.107  30.058   0.313 -0.0308 -0.0474  0.0282
99784W        W74772   2.615  23.770  21.122  0.2099 -0.0383  0.0356
99785W        W74773   7.321  21.870   8.668  0.0365 -0.2360 -0.1585
99786W        W74774   9.331   0.314   8.232 -0.2264  0.0939  0.1798
99787W        W74775   5.679  34.071   9.107 -0.0391 -0.0177 -0.3140
99788W        W74776  28.477   6.188   2.391 -0.0036  0.0129  0.0906
99789W        W74777  20.856  12.175   1.913 -0.3540 -0.3707 -0.1769
99790W        W74778  15.042  13.606   3.939  0.0969  0.3079  0.2902
99791W        W74779  25.041  34.706  13.670  0.2139  0.0650  0.1573
99792W        W74780   3.272  33.177   3.481  0.1166  0.4215 -0.1592
99793W        W74781  10.981  20.808   8.582  0.2321 -0.3566  0.0633
99794W        W74782   3.884  19.232  25.740  0.0976  0.2583  0.1933
99795W        W74783   8.965  33.980   8.667 -0.3074  0.0961  0.1030
99796W        W74784   8.571  28.109   8.089 -0.0691 -0.0760 -0.0125
99797W        W74785   5.091  24.187   0.465  0.1450 -0.2019  0.0855
99798W        W74786  22.058   9.085  16.303 -0.0225 -0.0941  0.0928
99799W        W74787   2.646   7.281   4.565 -0.0993  0.0685  0.2571
99800W        W74788  32.560  25.088  16.074  0.1695 -0.2012  0.0376
99801W        W74789  34.001  11.523  19.531  0.0613 -0.1704  0.3168
99802W        W74790  28.440  30.633  10.955  0.0996 -0.0516 -0.1318
99803W        W74791   3.042   8.291  21.248 -0.1579  0.0052  0.1483
99804W        W74792  13.901   8.841   4.746  0.1830 -0.2062 -0.0760
99805W        W74793  23.346  27.818   0.273  0.2764  0.0880  0.0111
99806W        W74794  28.472  33.290  23.212 -0.0461 -0.1052  0.2224
99807W        W74795  31.466  21.673  21.787 -0.1596  0.0962 -0.0986
99808W        W74796   2.423  28.228   6.847 -0.0341 -0.0009 -0.1238
99809W        W74797   3.875  26.681   4.796  0.0621 -0.3351 -0.0426
99810W        W74798  16.813   3.439   8.567  0.0654 -0.0166  0.0837
99811W        W74799  21.796   4.974   7.123  0.2823 -0.1696  0.3378
99812W        W74800  20.252  33.289  18.267 -0.0292  0.0074  0.1381
99813W        W74801   3.180  17.454   0.357  0.0272  0.0288 -0.0843
99814W        W74802  30.592  35.166  25.803  0.1420  0.1565  0.1134
99815W        W74803  18.713  29.288  20.848 -0.0098  0.0732 -0.3296
99816W        W74804   4.650   2.496  25.275  0.0572  0.1243  0.0244
99817W        W74805   1.805  15.275  15.529  0.0766  0.6148 -0.2270
99818W        W74806   9.819   0.817   2.212 -0.0214  0.0849  0.2269
99819W        W74807   4.274  13.000   0.566  0.2765  0.1830 -0.2859
99820W        W74808   5.983   8.501  25.939 -0.0690  0.0025  0.0837
99821W        W74809  21.390   7.354  10.469 -0.0546  0.1149  0.0725
99822W        W74810   2.239   3.844  16.591 -0.1842  0.0886  0.2561
99823W        W74811   1.007   4.207  16.622 -0.0167 -0.2428 -0.2968
99824W        W74812  27.871   5.372  20.639 -0.0331  0.0551 -0.1854
99825W        W74813  28.840   0.078   0.253  0.0877  0.0936 -0.0184
99826W        W74814  27.287   2.307  14.430 -0.3641 -0.0212 -0.1256
99827W        W74815  26.336   4.646  22.069  0.1656 -0.1037 -0.0600
99828W        W74816  11.712  15.168   2.802 -0.1313 -0.1837 -0.1150
99829W        W74817  13.565   4.926   7.759 -0.0543  0.2943  0.1478
99830W        W74818  30.579   0.425  14.079 -0.1866 -0.0504 -0.1384
99831W        W74819   0.526  14.450  23.771 -0.0884  0.0625 -0.2137
99832W        W74820  13.416  24.197   1.126 -0.2755  0.0905  0.1754
99833W        W74821  16.681  27.618  25.594  0.0772 -0.1753 -0.0796
99834W        W74822  14.947  29.622  21.294 -0.2593 -0.0870 -0.1586
99835W        W74823  33.483  15.839  17.480 -0.2762  0.1520  0.1309
99836W        W74824  11.864   1.112   0.507  0.1423  0.3320  0.1860
99837W        W74825  27.769   3.898  16.699 -0.0963 -0.1950 -0.2849
99838W        W74826   6.133   7.251   3.266  0.2141 -0.0012  0.5474
99839W        W74827   8.443  24.117  25.923 -0.1307  0.0913  0.1388
99840W        W74828  30.059  20.527  17.087  0.2619 -0.0856  0.2010
99841W        W74829  26.340  25.815   1.876  0.2990  0.1501 -0.0958
99842W        W74830  18.244  27.311  22.988  0.2883  0.1944  0.1260
99843W        W74831  33.211  26.695  10.791  0.1630  0.0213  0.3243
99844W        W74832  31.322   4.994  19.860 -0.2020 -0.2395  0.1843
99845W        W74833  17.065  21.128  21.662 -0.0197 -0.0490 -0.0828
99846W        W74834  14.323   9.019   4.112 -0.3932 -0.0199 -0.3649
99847W        W74835   8.688  34.804  24.344 -0.0915  0.1617  0.3296
99848W        W74836   3.477  14.475   0.807  0.3076  0.2073 -0.0741
99849W        W74837  29.015   7.129  25.964  0.0865 -0.2108 -0.1954
99850W        W74838   7.034  16.606  21.818 -0.0274 -0.2879  0.5016
99851W        W74839  27.018   9.159  19.148 -0.2030  0.0762 -0.2547
99852W        W74840  12.189  28.105   3.253  0.0189 -0.2718  0.2181
99853W        W74841  21.401  26.024   4.015  0.0640  0.0428 -0.0299
99854W        W74842  18.449  30.671   7.768 -0.5547  0.0514 -0.0193
99855W        W74843  32.622  18.942  16.760  0.3269 -0.2352  0.0326
99856W        W74844  11.497  20.035   9.984  0.0860  0.0117 -0.3273
99857W        W74845  25.247  17.573  21.166  0.2808 -0.2109  0.3249
99858W        W74846  31.840  18.100  12.973  0.1706  0.2106  0.0001
99859W        W74847  33.499   8.818  10.567 -0.1633 -0.0542  0.1884
99860W        W74848  12.127  15.588   4.733  0.6012 -0.1112 -0.2197
99861W        W74849  21.016  32.903  17.844  0.1378  0.0781  0.3482
99862W        W74850  16.393   3.211   4.381 -0.0162  0.3132  0.1266
99863W        W74851  31.473  29.401  12.155 -0.1675  0.0591  0.1620
99864W        W74852  22.173  31.382   0.582 -0.1677 -0.1216  0.0306
99865W        W74853  28.027  12.715  19.739  0.4362 -0.0605  0.0881
99866W        W74854  15.470   0.702   4.029 -0.0408 -0.0528 -0.1184
99867W        W74855  26.824  31.437  11.856 -0.0922  0.2314 -0.1099
99868W        W74856  28.240  25.001  14.219 -0.1518  0.0661  0.2433
99869W        W74857  35.305  17.803  15.687 -0.1322  0.1666 -0.5098
99870W        W74858  19.559   0.175  20.726  0.0994 -0.1645 -0.2454
99871W        W74859  34.101  17.103   7.516 -0.0695  0.0250 -0.0056
99872W        W74860   0.752  23.839  15.470  0.0070 -0.0234  0.4457
99873W        W74861  25.334  24.578  22.441  0.0241  0.0391 -0.0706
99874W        W74862  30.536  31.232  11.614 -0.1101  0.1524  0.0476
99875W        W74863   2.473   9.706   6.454  0.1174  0.0494  0.4967
99876W        W74864  25.529  29.561  14.731  0.2435 -0.0772 -0.0113
99877W        W74865   5.556  33.688  12.139 -0.1324 -0.1041 -0.1752
99878W        W74866  14.862   6.852   5.436  0.2501 -0.1117 -0.1560
99879W        W74867  22.751  30.163  16.473 -0.0265 -0.0841 -0.0004
99880W        W74868  12.119  10.435   1.062 -0.1599 -0.2871  0.2967
99881W        W74869   3.109  27.150   1.272 -0.0432 -0.2107 -0.0600
99882W        W74870  31.016  16.413  22.606  0.1500  0.0722 -0.2458
99883W        W74871  28.418  20.617  18.491 -0.0083 -0.2170  0.0365
99884W        W74872   4.945  21.834  23.448 -0.1116 -0.4198  0.1490
99885W        W74873  23.109  14.529  16.875  0.2079  0.0138 -0.3685
99886W        W74874  33.093  33.770  14.795  0.1555 -0.0973 -0.2740
99887W        W74875   1.418  34.083   9.121 -0.2412 -0.1254  0.0996
99888W        W74876  25.533  15.198   7.955 -0.3345  0.0813  0.3360
99889W        W74877  32.341  31.936  12.826  0.4229 -0.0300  0.2510
99890W        W74878  13.050   3.977  25.058 -0.0832  0.1464  0.1228
99891W        W74879   1.987  12.356  24.014 -0.1846 -0.0759  0.1430
99892W        W74880   8.782  16.628  20.517  0.0267 -0.1057 -0.0450
99893W        W74881  12.871   2.021   0.601 -0.1063  0.0734 -0.1766
99894W        W74882  24.061  20.441  25.378  0.1903 -0.0959 -0.3459
99895W        W74883  17.982  15.392   7.970 -0.0727 -0.0839 -0.0733
99896W        W74884  15.657  20.833  15.362 -0.2380 -0.1509  0.1690
99897W        W74885  22.755  33.394   2.183 -0.0626  0.2075 -0.0540
99898W        W74886  20.753   3.666  17.042 -0.0942  0.2431 -0.0359
99899W        W74887  21.526  12.134  15.897  0.0153  0.6174  0.0283
99900W        W74888   3.829  30.356   4.729 -0.1952 -0.0292 -0.1793
99901W        W74889  23.494  33.769  24.684  0.1636 -0.0734  0.3538
99902W        W74890  27.256   2.652   2.329  0.2011 -0.1366  0.1293
99903W        W74891  22.376  29.157  20.918 -0.0822 -0.3044 -0.0363
99904W        W74892  23.663  14.934  25.551  0.1596 -0.1466 -0.1336
99905W        W74893   3.027   4.202  17.562 -0.2660 -0.0232 -0.2530
99906W        W74894  18.349  24.162   0.625 -0.0922 -0.1355  0.0963
99907W        W74895  16.555  10.081   2.708  0.1467  0.0941 -0.1496
99908W        W74896  21.368  27.087   3.197 -0.1645 -0.0265  0.0269
99909W        W74897  14.480  11.770  19.660 -0.0789  0.2356  0.0647
99910W        W74898  22.715  25.329   1.184  0.0427 -0.0407  0.1603
99911W        W74899  29.583  17.029  22.443  0.2079  0.0011  0.0616
99912W        W74900  17.818   9.007   1.430 -0.1087  0.2101  0.0023
99913W        W74901  13.504  33.137   8.573  0.0263 -0.2488  0.3798
99914W        W74902  22.407  34.248   0.271  0.0529 -0.0502  0.1179
99915W        W74903  13.669   0.953   8.888 -0.0413 -0.1576  0.2064
99916W        W74904   6.144   3.346  23.664 -0.1925  0.1297  0.1197
99917W        W74905   8.145  34.115  14.679  0.1328  0.0032  0.2016
99918W        W74906  13.062  33.892   3.726 -0.0383  0.0494  0.3134
99919W        W74907  13.945  16.081  23.986 -0.1525  0.3170 -0.1138
99920W        W74908  12.648  17.290  13.161  0.0278  0.0120 -0.0464
99921W        W74909  16.675  10.099  12.968 -0.0401  0.1262  0.3995
99922W        W74910  32.386  23.872   9.465  0.1909  0.2244 -0.2272
99923W        W74911  10.310   4.639   2.766  0.0116  0.1922 -0.2666
99924W        W74912  23.277  31.005   3.457  0.3220  0.2449 -0.1277
99925W        W74913  27.689   2.500  11.288 -0.0550 -0.1606  0.0061
99926W        W74914  27.861   4.039   5.003 -0.0719  0.1216 -0.1944
99927W        W74915  13.981  14.968  24.382 -0.0196  0.0274 -0.2278
99928W        W74916   0.556  34.185  23.566  0.0255  0.3365  0.0446
99929W        W74917  26.051  26.953  17.686  0.1170  0.1241 -0.1972
99930W        W74918  16.150  22.492   5.633 -0.0577  0.3921 -0.0143
99931W        W74919  10.509  22.745  11.016 -0.1206  0.1015 -0.1542
99932W        W74920  16.096   9.569   8.845  0.1244 -0.2391 -0.0069
99933W        W74921  11.583   3.785   9.027  0.2531 -0.0071  0.0276
99934W        W74922   0.236  30.911  25.729 -0.1562  0.0395  0.4140
99935W        W74923  33.845  15.038  13.149  0.1766  0.1682  0.1505
99936W        W74924  19.536  31.350  24.567  0.0087 -0.0611 -0.0045
99937W        W74925  16.603  29.879   0.571  0.1819 -0.1547 -0.0829
99938W        W74926   4.843  23.487   4.442 -0.0316 -0.0862  0.1395
99939W        W74927  12.586  32.758  22.985 -0.1250  0.1230  0.3498
99940W        W74928  11.027   0.845   8.302  0.1510 -0.2663 -0.1567
99941W        W74929   8.535   9.396   3.648  0.2517 -0.2378 -0.1346
99942W        W74930  34.463   9.982  26.090  0.1533 -0.0174 -0.1301
99943W        W74931  34.336  27.825  19.743  0.1352 -0.2307 -0.1830
99944W        W74932  11.431  28.337   6.807  0.1308  0.0783  0.3941
99945W        W74933  31.426   3.971  13.414  0.0737 -0.1606  0.1951
99946W        W74934  16.088   8.994  10.750  0.0887  0.3279 -0.2185
99947W        W74935  16.330   8.625  20.741  0.0724  0.0113 -0.1160
99948W        W74936   0.022  15.903  17.212  0.0304 -0.2110  0.1711
99949W        W74937  15.963  17.604   2.779 -0.1249 -0.1948  0.0097
99950W        W74938  19.127  24.908   1.935 -0.0018 -0.0957 -0.0995
99951W        W74939  28.262  11.356  15.543  0.0638 -0.0098  0.1162
99952W        W74940   7.667  10.942  22.446 -0.1962  0.0293  0.1035
99953W        W74941  26.184   2.622   1.809 -0.2049  0.4058 -0.0860
99954W        W74942  24.186  15.432  18.890  0.0152 -0.1242  0.0269
99955W        W74943  23.336  29.198  15.842 -0.1911 -0.2088 -0.1193
99956W        W74944  13.154  11.404  20.127  0.0832  0.0157  0.1911
99957W        W74945   7.787  25.254  25.443 -0.1185 -0.3342 -0.0388
99958W        W74946   7.781  34.022  11.580  0.0006  0.0295  0.0561
99959W        W74947  22.767   1.415   5.184 -0.0414  0.1196 -0.4603
99960W        W74948  22.928  23.242  16.036  0.1694  0.0224  0.1367
99961W        W74949  29.902  23.473  25.592  0.0165 -0.0865 -0.0397
99962W        W74950  35.152  27.194  15.906 -0.0382 -0.2559  0.0935
99963W        W74951  23.606  17.298  18.924 -0.0626 -0.1962 -0.0398
99964W        W74952  28.681  28.700  10.328 -0.2542 -0.0737 -0.3983
99965W        W74953   4.751  15.985   5.826  0.0218  0.0181 -0.1439
99966W        W74954   3.139   0.458   2.683  0.1700  0.1056  0.1829
99967W        W74955  22.981  22.358  19.698  0.1424  0.0558 -0.0414
99968W        W74956   9.211  25.484  11.208 -0.0197  0.0018 -0.2162
99969W        W74957   8.114  22.599   7.995  0.3624  0.0724 -0.1923
99970W        W74958  27.923   9.350  20.683 -0.3175 -0.0296 -0.0396
99971W        W74959  28.620  14.208  22.438 -0.0001 -0.0345  0.2061
99972W        W74960  15.115  23.263   5.172  0.3778 -0.0390 -0.0367
99973W        W74961   7.368  28.576   0.979 -0.2007  0.1505  0.1504
99974W        W74962   9.030  31.707  13.780 -0.3063 -0.1552 -0.0799
99975W        W74963   9.765   2.493  10.488 -0.0415  0.1159 -0.0057
99976W        W74964   5.619   6.407   9.843 -0.2679 -0.1182 -0.0768
99977W        W74965  28.786  23.365   8.560 -0.1137 -0.0984 -0.1306
99978W        W74966  35.171  21.695  10.038  0.0302  0.0033  0.1061
99979W        W74967  29.883  21.016  11.177 -0.0048 -0.0959 -0.1056
99980W        W74968   4.419   9.795   6.294  0.3547  0.2645 -0.0363
99981W        W74969   9.922  16.507  10.244  0.3854 -0.1878 -0.0035
99982W        W74970  14.269  10.214  10.921  0.0304 -0.0172 -0.2818
99983W        W74971  33.944  30.346   4.276 -0.0941  0.1656  0.3699
99984W        W74972  34.730  21.661  22.722 -0.2983 -0.3416 -0.1210
99985W        W74973  22.115  20.809  19.407  0.0899  0.1886  0.1925
99986W        W74974  33.157   6.794  21.633 -0.1438 -0.0384 -0.1929
99987W        W74975  17.042  30.385   3.077  0.0652 -0.0271 -0.0819
99988W        W74976  16.410   6.167  24.136  0.1584 -0.2190 -0.0664
99989W        W74977  13.315  29.745   8.353  0.1985  0.2284 -0.2070
99990W        W74978  22.750  14.580  21.513 -0.1758 -0.1411  0.0563
99991W        W74979  11.721  20.459   7.064 -0.0432  0.1358  0.1157
99992W        W74980  20.449  34.575  17.504  0.1300 -0.2432 -0.0291
99993W        W74981  25.800   2.522  13.029 -0.1806  0.1899 -0.0422
99994W        W74982  21.035   4.816  21.948  0.0386 -0.1363  0.2338
99995W        W74983  19.667  24.964  10.278  0.1752 -0.0982 -0.1399
99996W        W74984   4.352  13.376  16.612 -0.4744 -0.0646  0.1786
99997W        W74985   5.095  12.526  21.465  0.1543  0.2857 -0.0074
99998W        W74986  25.510  23.927  13.147 -0.1609  0.0526  0.0046
99999W        W74987   1.456  25.115  25.211  0.3762 -0.1893 -0.1570
    0W        W74988  34.563  31.324  26.071 -0.1452 -0.1976  0.2863
    1W        W74989  10.769   2.550  13.156 -0.0637  0.2712  0.1529
    2W        W74990   8.807  23.726   6.501 -0.1323 -0.1724  0.1419
    3W        W74991   4.075   2.696   3.556 -0.1358 -0.1569 -0.2088
    4W        W74992  24.648   1.547  24.819 -0.1119  0.0911 -0.4158
    5W        W74993   2.551  20.869  20.574  0.2876  0.0157  0.2022
    6W        W74994  22.511  28.385  24.943 -0.0761  0.2061 -0.2448
    7W        W74995  20.092  30.718  17.580 -0.0404 -0.0337 -0.0199
    8W        W74996  30.604   9.306  22.178  0.1612  0.1005 -0.2987
    9W        W74997  13.630  29.995  11.343 -0.1325 -0.1301 -0.1497
   10W        W74998   3.506  14.708  22.557 -0.0623 -0.2577 -0.1986
   11W        W74999  21.131   7.856   3.014  0.0443 -0.1289 -0.3510
   12W        W75000  28.041  28.564   1.566 -0.0366  0.0818 -0.0872
   13W        W75001  16.357  33.192   7.347 -0.1083  0.0221 -0.1311
   14W        W75002   7.411   8.733   5.577 -0.0151 -0.1430 -0.1231
   15W        W75003  20.469  35.025  19.605 -0.1064  0.0235 -0.0241
   16W        W75004  34.664   1.718   7.302 -0.0146 -0.2990  0.0137
   17W        W75005  13.871  23.245   9.453 -0.0089  0.0629 -0.2425
   18W        W75006   3.183  21.603  20.402 -0.0705 -0.1686 -0.3561
   19W        W75007  23.345  31.930  15.343 -0.0026  0.3206 -0.2766
   20W        W75008  31.703   6.442  12.479 -0.2754  0.4117  0.2054
   21W        W75009  20.806  30.621   5.315 -0.0972 -0.3227  0.2367
   22W        W75010   8.157  23.689  25.520  0.1244 -0.0647  0.1410
   23W        W75011   7.603   2.463  22.899  0.0998 -0.1135  0.0665
   24W        W75012  30.896   8.587  19.860  0.0425  0.0794  0.3398
   25W        W75013  15.269  24.448   3.108 -0.0090  0.1237 -0.1170
   26W        W75014  16.831   3.034   7.648 -0.0212  0.2755  0.0212
   27W        W75015  33.524  18.411  25.219  0.0049  0.0379  0.1244
   28W        W75016  14.558   4.207  12.073 -0.2109 -0.1371 -0.2635
   29W        W75017  22.167   9.521   0.592 -0.0928 -0.1726  0.0258
   30W        W75018  17.929  12.376  25.421  0.0809  0.0701 -0.1652
   31W        W75019  31.433  10.123   0.692 -0.3370  0.1885 -0.0879
   32W        W75020  22.626  13.751   0.324  0.0359  0.1441 -0.1979
   33W        W75021   1.016  10.251  23.088 -0.1656  0.2282 -0.5015
   34W        W75022  17.762   3.361  10.177 -0.0349 -0.3380  0.1882
   35W        W75023  30.479  23.851  23.381 -0.1212 -0.0564  0.2094
   36W        W75024  33.864  21.386   7.216  0.2691  0.2923  0.2109
   37W        W75025   4.569  32.723   1.642 -0.2810 -0.1137 -0.0651
   38W        W75026  33.236   4.803  15.461 -0.2141 -0.1737 -0.1477
   39W        W75027  27.292  19.917  25.939 -0.1475 -0.1233  0.1517
   40W        W75028   6.211  30.079   6.660  0.2070  0.1717  0.2421
   41W        W75029   5.114  13.438   7.954  0.3363 -0.2611  0.1713
   42W        W75030  27.423  34.616  17.961 -0.1711 -0.3432  0.4867
   43W        W75031   8.426   5.528   0.317 -0.2284  0.1788 -0.1146
   44W        W75032  33.714  33.828   3.581 -0.3637 -0.3186  0.1051
   45W        W75033   9.238  22.183  25.397  0.0580 -0.0039 -0.1120
   46W        W75034  28.275  33.056  12.481  0.1021 -0.1893  0.2323
   47W        W75035  10.736  29.998  21.962 -0.1212  0.0200 -0.2956
   48W        W75036   5.185  14.814  18.822 -0.0411 -0.1723  0.2164
   49W        W75037   5.256  29.497  25.109  0.2600  0.0858  0.2510
   50W        W75038  26.300  29.393  23.062  0.0566  0.2600 -0.0575
   51W        W75039  22.724   8.743  14.069  0.1523 -0.2147  0.1429
   52W        W75040  20.242  12.848   1.976 -0.0034  0.0708  0.0963
   53W        W75041  11.330  23.208  23.666 -0.1090  0.0732 -0.0227
   54W        W75042  26.643  11.911   0.783  0.0569 -0.4565  0.1284
   55W        W75043  34.737  10.014  18.747 -0.2157 -0.0233  0.1184
   56W        W75044  31.345   9.610  13.222  0.1043 -0.2163  0.2534
   57W        W75045   0.520   6.382  22.526 -0.0344 -0.3601 -0.0268
   58W        W75046   6.192  16.910  22.323  0.0396  0.2495  0.2270
   59W        W75047  29.426   6.200  20.377  0.1966  0.0089  0.0312
   60W        W75048  23.047  33.742   1.099  0.1375  0.1701 -0.4134
   61W        W75049  18.822  24.557   0.674 -0.2746 -0.4128  0.1028
   62W        W75050   4.974  29.879   7.957  0.2806 -0.1382 -0.1322
   63W        W75051  18.376  18.840   9.221 -0.2323  0.2037 -0.1589
   64W        W75052   7.881   6.840   7.291 -0.2122  0.0180  0.2532
   65W        W75053   3.193   6.895  18.281 -0.2277  0.0285  0.1145
   66W        W75054  29.605   9.934  19.078 -0.0901 -0.1538 -0.0861
   67W        W75055   8.397  15.480  17.899 -0.3978 -0.2237 -0.3692
   68W        W75056  24.713  10.976  10.893 -0.0071 -0.3005 -0.1110
   69W        W75057  31.754  12.190   8.320 -0.2086  0.2291 -0.0796
   70W        W75058  22.057  35.112  13.212  0.1335 -0.0337  0.3651
   71W        W75059   4.086   8.791  22.467  0.0242  0.2869  0.1740
   72W        W75060   4.161  32.598  21.081  0.0267 -0.1167  0.2002
   73W        W75061  15.781  33.782  25.200  0.1431 -0.1468  0.0505
   74W        W75062   9.113  32.302   9.959 -0.3350 -0.1247  0.0843
   75W        W75063   3.358  32.946   8.137  0.0077  0.0361 -0.3595
   76W        W75064  34.638   9.754  15.683  0.1288  0.0842  0.0897
   77W        W75065   7.492  21.658   5.730  0.2057  0.0127 -0.1323
   78W        W75066  30.058  12.129  18.187  0.3844  0.2661 -0.2331
   79W        W75067  11.132   3.865  23.938  0.1564  0.1154 -0.1688
   80W        W75068  11.266  11.185   7.793  0.0962 -0.3155  0.2099
   81W        W75069  12.633  28.265  14.063 -0.1033  0.0755  0.0106
   82W        W75070   3.389   9.850   2.845 -0.0171 -0.3188  0.3644
   83W        W75071  31.098   1.687   6.025 -0.0697  0.0592  0.5899
   84W        W75072  35.199   4.040  18.661 -0.2047 -0.1216  0.2302
   85W        W75073  14.664  29.379   2.123  0.1328 -0.1422  0.0541
   86W        W75074  19.050  23.904  24.476 -0.1497  0.0222  0.0188
   87W        W75075   6.652   0.743   8.348  0.1809  0.0881 -0.1518
   88W        W75076   9.011  11.051  24.530 -0.1429 -0.1755  0.0306
   89W        W75077  13.682  17.579   4.285 -0.0684 -0.0036  0.0235
   90W        W75078   9.236  32.606  22.674 -0.1637 -0.0045  0.1777
   91W        W75079   0.112  34.405   0.317  0.0699  0.0372 -0.1008
   92W        W75080   8.144  29.217   4.610  0.2229 -0.1049  0.2929
   93W        W75081  30.067  19.312   9.773  0.3655  0.1033 -0.0691
   94W        W75082  30.151   5.381   3.204  0.1131 -0.0700  0.1354
   95W        W75083  33.267   3.384  23.692  0.3262 -0.4311  0.0464
   96W        W75084  32.244  30.800  15.785 -0.0374 -0.3462  0.0391
   97W        W75085   3.489   9.990   2.049 -0.4462 -0.1487 -0.0409
   98W        W75086  31.378  11.485  13.408 -0.0948  0.0288 -0.1330
   99W        W75087   1.749  11.696  21.185  0.0554 -0.0884  0.3710
  100W        W75088  21.739  21.403   5.720  0.1251  0.2662  0.1321
  101W        W75089  29.156  24.150   7.431 -0.0314 -0.1041  0.2344
  102W        W75090  10.219  26.283  25.685 -0.2511 -0.0978  0.1139
  103W        W75091  18.124  22.120  25.092  0.0771  0.0227 -0.0267
  104W        W75092   2.851  22.313  25.769 -0.0603 -0.0006 -0.1592
  105W        W75093  34.392  25.154  16.149  0.0030  0.2012  0.0745
  106W        W75094  10.767  27.497   5.696  0.0220  0.0910  0.2128
  107W        W75095  30.604   4.508   1.546  0.2358 -0.0874  0.0571
  108W        W75096  34.455  13.557  19.994 -0.0577 -0.0826 -0.2359
  109W        W75097   1.624   8.170  12.592 -0.1631  0.2938 -0.1008
  110W        W75098  19.130   2.016  21.002 -0.2720  0.0188 -0.0557
  111W        W75099  25.293  27.231  21.290 -0.1389 -0.0535  0.2170
  112W        W75100   8.011   0.226   7.730  0.0992  0.1594  0.0726
  113W        W75101  10.475  24.576  12.145 -0.1265  0.0170 -0.0968
  114W        W75102  14.652  25.804   5.473  0.0052  0.0853  0.3502
  115W        W75103  29.088  33.633  25.452  0.2611  0.1923  0.1781
  116W        W75104  14.348   5.819  12.890 -0.1122 -0.1930 -0.1559
  117W        W75105  34.841  21.418  18.455 -0.3242 -0.2647  0.1517
  118W        W75106  10.443  27.476  11.080  0.0374  0.0098 -0.1871
  119W        W75107  21.164   8.037  24.774  0.3259 -0.1118 -0.1386
  120W        W75108  24.392  33.607   2.122 -0.0482  0.1594 -0.4020
  121W        W75109  16.133  31.042  10.775  0.0521  0.0190  0.2491
  122W        W75110   5.735  16.781  23.191 -0.0215  0.0102  0.0544
  123W        W75111   0.852   8.924  13.880 -0.2354 -0.0263 -0.1362
  124W        W75112   6.181   4.747   4.195 -0.1617 -0.0502 -0.1143
  125W        W75113  10.621  25.415   1.838  0.0461 -0.1294 -0.3754
  126W        W75114   3.533  27.079   2.613  0.1584 -0.0408 -0.2136
  127W        W75115  18.879   9.732  26.235 -0.0239 -0.1025 -0.0501
  128W        W75116  24.209  33.434  17.283 -0.3362 -0.1439 -0.2244
  129W        W75117   6.290  15.278  24.501 -0.1064 -0.0723  0.1457
  130W        W75118   7.405   3.923  19.896 -0.0209 -0.0943  0.1423
  131W        W75119  11.502   7.915  10.915 -0.0859  0.0490 -0.0868
  132W        W75120  24.189   5.230   0.579  0.0926 -0.0262 -0.2484
  133W        W75121  12.413  23.846   7.294  0.1326 -0.0286 -0.3016
  134W        W75122   6.690  28.387  25.381  0.0412 -0.1808 -0.2950
  135W        W75123   4.731  18.679   2.501 -0.3158 -0.2132  0.0077
  136W        W75124  29.432   3.607  23.228  0.1091 -0.1467 -0.3484
  137W        W75125  34.787  19.199  12.166 -0.3772 -0.3914  0.0550
  138W        W75126  11.912  23.946   1.151 -0.0439 -0.0718  0.1531
  139W        W75127  21.071  11.997   1.434 -0.2585  0.1564 -0.0054
  140W        W75128  27.184  11.444  12.315  0.0731 -0.1537 -0.3950
  141W        W75129  19.958  24.638  19.238 -0.4023  0.0996 -0.0451
  142W        W75130   7.988  30.019   7.963 -0.1910 -0.0183 -0.0238
  143W        W75131   1.858   7.519  22.304  0.0138  0.1492 -0.2653
  144W        W75132  12.649  30.376  23.104 -0.0207  0.0514  0.0940
  145W        W75133  14.475   6.590  13.811 -0.1761 -0.1404 -0.0234
  146W        W75134   8.428   8.694  17.967  0.0878 -0.0989  0.2096
  147W        W75135  24.550  33.609  15.204  0.2891 -0.1027 -0.0795
  148W        W75136  33.285   8.197  16.618 -0.0033  0.0875 -0.2206
  149W        W75137  13.494  19.676  25.815 -0.1362 -0.0010 -0.3137
  150W        W75138  28.058  24.503   6.134  0.0021 -0.4041  0.1937
  151W        W75139  28.657  11.488  23.838  0.1298 -0.0172  0.0663
  152W        W75140  20.216   1.786  15.822 -0.0640  0.2780  0.1238
  153W        W75141  33.538  31.372   4.005  0.3381  0.5206  0.5739
  154W        W75142  18.800  27.670   1.408  0.1234 -0.1221 -0.0560
  155W        W75143  13.776  26.368  16.921  0.2572  0.0573  0.4178
  156W        W75144   8.277  28.170   1.154  0.1589 -0.0919 -0.0482
  157W        W75145  13.345  29.419   5.707 -0.1213  0.1682  0.2245
  158W        W75146   7.671  19.494  20.050  0.0748 -0.0636 -0.1362
  159W        W75147  24.113   8.057   1.074  0.0373  0.0164  0.2860
  160W        W75148   1.848   7.089  20.505 -0.0370  0.0788  0.0403
  161W        W75149  26.954  15.928   7.454 -0.1134  0.0270  0.2657
  162W        W75150  11.048  24.023  13.908  0.1611 -0.1474  0.0323
  163W        W75151  12.856  25.989   5.900 -0.1816 -0.1941 -0.0830
  164W        W75152  26.415   4.710   0.306 -0.1500  0.0639  0.3616
  165W        W75153  23.730   1.979  15.122  0.0844  0.2411  0.0614
  166W        W75154  29.052  34.071  22.743  0.0290 -0.1719  0.0887
  167W        W75155  13.135  13.372   8.227  0.2147 -0.2958 -0.2634
  168W        W75156   4.618   2.532  10.452 -0.0592  0.3659 -0.0248
  169W        W75157  34.459  23.178  14.264  0.2737 -0.3551  0.3239
  170W        W75158  26.340   2.604   2.364 -0.0613  0.2405 -0.4339
  171W        W75159  10.241  31.393   2.465  0.1342  0.2170 -0.4287
  172W        W75160   0.981  18.312  20.362  0.2693  0.4050 -0.1054
  173W        W75161  23.677   0.576  23.069 -0.0144 -0.2209 -0.1201
  174W        W75162  18.110  15.640  19.686 -0.3362  0.3933  0.1978
  175W        W75163  31.748  28.978   2.331  0.1419 -0.0281  0.1286
  176W        W75164   6.315  26.556  25.980 -0.2206  0.0848 -0.0145
  177W        W75165  10.220   5.316  20.977 -0.0954 -0.2600 -0.0159
  178W        W75166   2.648  33.441   2.042  0.0678  0.0869 -0.1210
  179W        W75167  31.688  24.866  25.008  0.1887  0.2431  0.0297
  180W        W75168  12.973   6.924   0.140  0.2729 -0.1642  0.2729
  181W        W75169  26.938  34.183  12.918 -0.1988 -0.3213 -0.1452
  182W        W75170  24.647  11.653  26.043 -0.1022  0.0507 -0.0774
  183W        W75171  29.069  15.258  21.464  0.0685  0.0229  0.1333
  184W        W75172   5.728   9.074   4.542 -0.2339  0.1490  0.0620
  185W        W75173  34.626  21.023   9.101  0.0563  0.0151  0.2591
  186W        W75174   0.770  17.485  25.132  0.0774 -0.4467  0.2358
  187W        W75175  14.420  18.953   0.166  0.0539 -0.0089 -0.0172
  188W        W75176  12.724  10.205  22.754 -0.1953 -0.1365 -0.0357
  189W        W75177  16.536  32.644  25.885 -0.3473 -0.2596 -0.1054
  190W        W75178  32.823   0.936   1.519  0.1952  0.3743 -0.0016
  191W        W75179   6.609  19.358   6.451 -0.0939 -0.0450 -0.2018
  192W        W75180   5.903  17.301   5.759 -0.3295  0.1328  0.1151
  193W        W75181  24.375   5.150  17.985 -0.1833 -0.1868 -0.1248
  194W        W75182  31.815  11.396   7.899  0.2593 -0.2916  0.2088
  195W        W75183  19.151  12.744   7.894 -0.1600  0.0952 -0.0287
  196W        W75184   6.855   5.923   1.458 -0.5544  0.2197  0.0304
  197W        W75185  17.913   6.990  24.855  0.3819  0.1207  0.1770
  198W        W75186   2.947  18.099  17.595  0.0856  0.0837  0.0047
  199W        W75187  29.364  11.286  13.988  0.1249  0.0399 -0.0252
  200W        W75188   8.315   2.656  11.934  0.0678  0.1770  0.1493
  201W        W75189  13.224   7.034   5.503 -0.3356  0.1038 -0.0370
  202W        W75190  13.567  26.368   7.314  0.1128 -0.1806  0.2250
  203W        W75191  10.368  12.554   2.479 -0.0628 -0.1552 -0.0510
  204W        W75192   5.979   2.551  21.810  0.0800  0.0676  0.0020
  205W        W75193  21.329   6.178   5.898  0.0110 -0.0983  0.0750
  206W        W75194   0.443  20.708  18.974 -0.0378 -0.1880  0.1944
  207W        W75195  29.190  31.521  14.808  0.0473 -0.1811 -0.0866
  208W        W75196  17.728   7.436   1.607 -0.0344 -0.4453 -0.0225
  209W        W75197  11.549  32.313   3.332 -0.1421 -0.0792  0.0794
  210W        W75198   6.343  27.603   8.222  0.0991  0.1848 -0.1959
  211W        W75199  24.046   7.282  13.959 -0.1424 -0.1441 -0.0918
  212W        W75200  23.477   3.888  19.593  0.2520  0.1465 -0.2497
  213W        W75201  13.732   1.246   0.794 -0.1424 -0.1208  0.0513
  214W        W75202  35.009  16.481  13.781  0.1185  0.0331  0.0218
  215W        W75203   1.568  20.856  15.856 -0.1932 -0.2077 -0.1935
  216W        W75204   7.285  11.534  22.061  0.0645 -0.3075  0.3310
  217W        W75205  11.903   2.169  21.692 -0.0718 -0.1333  0.0253
  218W        W75206  35.358   4.860   2.049  0.0208 -0.1648 -0.0361
  219W        W75207  28.778  23.671  23.443 -0.1239 -0.0302 -0.1780
  220W        W75208  26.165  24.056  11.746  0.0895  0.1029  0.1031
  221W        W75209  11.788   6.646  13.693  0.0641  0.0486 -0.2161
  222W        W75210   8.738  32.183   0.718 -0.1239 -0.1303  0.2273
  223W        W75211   1.755  29.040   6.664  0.1209  0.0455  0.0457
  224W        W75212   4.199  26.540  24.888  0.2638 -0.1917  0.0449
  225W        W75213  10.471  16.490  22.982 -0.1364 -0.2245  0.0005
  226W        W75214  11.568  26.873   6.694 -0.2465 -0.0863  0.2130
  227W        W75215  28.937  22.315  21.987 -0.0515 -0.1785  0.1558
  228W        W75216  26.514  23.334  15.727  0.0801  0.0391  0.3951
  229W        W75217  24.939  29.107  15.129  0.1844 -0.2750 -0.1654
  230W        W75218   8.564  30.000   1.532  0.0880  0.0359 -0.2061
  231W        W75219   1.205  14.673  23.532 -0.3535 -0.3079 -0.0257
  232W        W75220  30.883   3.758  24.276 -0.0822 -0.1903 -0.3801
  233W        W75221  12.048  24.612   2.704 -0.2807 -0.0571  0.0724
  234W        W75222  17.368  27.295   0.553  0.0809 -0.1593 -0.1007
  235W        W75223  17.278  13.637   9.813  0.0160  0.0484  0.2543
  236W        W75224   5.227  21.391   6.760  0.0290  0.1668 -0.0008
  237W        W75225   6.345   8.401  19.105 -0.0335  0.0918 -0.2950
  238W        W75226  19.565   8.198  20.812  0.1065  0.2218  0.1473
  239W        W75227  26.843  30.477  23.447  0.2314 -0.0652  0.2466
  240W        W75228   7.753  33.606  23.260 -0.1220  0.0397 -0.0604
  241W        W75229  15.726  15.504  22.771  0.0421  0.1492 -0.0680
  242W        W75230  21.137   4.725  17.995  0.2083 -0.0566  0.0969
  243W        W75231  15.954  29.311   5.211 -0.0051  0.0777 -0.0142
  244W        W75232   5.271  10.893   6.525 -0.0018 -0.1087  0.1715
  245W        W75233  20.307  22.005  19.131 -0.0214  0.0634  0.0697
  246W        W75234  29.691   6.645  21.075  0.1723  0.0946 -0.1379
  247W        W75235  23.073  11.526  23.925  0.0119 -0.0235 -0.2764
  248W        W75236  11.630   5.825   5.281 -0.1977  0.2117  0.0197
  249W        W75237  31.554  24.049  22.715 -0.1525  0.2860  0.3033
  250W        W75238   1.246  19.022   1.175 -0.0600 -0.0660  0.2203
  251W        W75239  31.569  32.779  16.820 -0.4690  0.0836  0.1197
  252W        W75240   7.422  26.431   1.233 -0.2432 -0.1490  0.1158
  253W        W75241  20.449  33.804  20.205  0.0455 -0.4534  0.2553
  254W        W75242  28.381  20.995  15.439 -0.0529  0.0349  0.0967
  255W        W75243   0.294   0.425  17.830 -0.0220  0.0036 -0.4972
  256W        W75244   8.806  23.697  22.522 -0.0050 -0.2683 -0.1388
  257W        W75245  13.892   0.107   7.054 -0.4349  0.2673  0.1707
  258W        W75246  18.711   0.219   5.417  0.1997 -0.0207  0.2443
  259W        W75247  23.050  24.792  16.154  0.3097 -0.1777  0.0126
  260W        W75248  23.148   9.282  15.589  0.1436  0.0369 -0.1050
  261W        W75249  13.159  22.794   7.681  0.0849  0.0846  0.0087
  262W        W75250   0.495  23.468  14.336  0.1034 -0.0424 -0.3132
  263W        W75251   0.944  17.408  20.878  0.0323  0.2488 -0.2488
  264W        W75252  21.322   6.060  24.261  0.1204  0.0961 -0.0266
  265W        W75253  10.160  24.593   9.477 -0.1788 -0.1411 -0.0737
  266W        W75254  20.327  22.897   1.047 -0.0840 -0.1891 -0.0681
  267W        W75255  13.429   2.934  12.381 -0.4444 -0.0867 -0.0881
  268W        W75256  19.357  11.083  18.586  0.4219 -0.2713  0.6858
  269W        W75257  32.124  26.336  21.284 -0.2997 -0.2128  0.1219
  270W        W75258  22.776  15.909  21.233  0.0832 -0.3373 -0.1267
  271W        W75259  25.062   4.667  20.929  0.1678  0.1344 -0.0486
  272W        W75260  22.534  32.622  21.752 -0.2442 -0.0995 -0.3512
  273W        W75261  10.927  13.779  22.282  0.1256  0.2748 -0.1193
  274W        W75262  11.698   0.472   1.625 -0.0725  0.1729  0.3095
  275W        W75263   3.148  13.629  17.804  0.3055  0.1463 -0.3576
  276W        W75264  30.639  20.212  19.156 -0.0008  0.0149  0.1336
  277W        W75265  18.276  23.353   3.896  0.0149  0.0481  0.0862
  278W        W75266  12.433   7.996   8.240  0.1722 -0.2864 -0.1670
  279W        W75267  13.472   6.892  22.205  0.1169 -0.0248 -0.1170
  280W        W75268  10.149  33.277   8.092 -0.0649  0.1475  0.1261
  281W        W75269  20.214  29.080  18.777 -0.0089  0.0621  0.0940
  282W        W75270  28.916  16.408  10.285  0.2883 -0.3258 -0.1472
  283W        W75271  27.513  18.231   8.022 -0.0375 -0.1140 -0.0716
  284W        W75272  11.434  22.875  15.453  0.3100 -0.1167  0.2178
  285W        W75273   7.963  31.719   0.688 -0.1798 -0.0149  0.1759
  286W        W75274  17.948   9.418  26.193 -0.3809 -0.0146 -0.0186
  287W        W75275  33.021  20.721  11.710  0.0888 -0.1254  0.0813
  288W        W75276  16.558  18.089  21.297 -0.2404  0.0953  0.2819
  289W        W75277   2.321  22.820  13.375  0.1094  0.2941 -0.0312
  290W        W75278   1.819   9.231  22.909  0.0487  0.0689  0.0314
  291W        W75279  33.968  28.298  22.441  0.1216 -0.1304  0.0860
  292W        W75280  14.385  25.222   1.653  0.1582  0.2104  0.1005
  293W        W75281   2.117   1.319  26.009 -0.0079 -0.0993 -0.2425
  294W        W75282  33.473  20.056  24.621  0.0941 -0.0297 -0.0311
  295W        W75283   0.967  33.579  15.495  0.0300  0.0552  0.3375
  296W        W75284  17.018  19.339   1.924 -0.2500 -0.3403 -0.0475
  297W        W75285  19.921   8.735   1.704 -0.3027  0.3073 -0.0057
  298W        W75286  30.545  21.133  11.530 -0.2864  0.0183  0.1414
  299W        W75287  12.557  17.464  19.148  0.0730  0.1829  0.1820
  300W        W75288  12.352  35.203   7.565 -0.1548  0.0213 -0.1928
  301W        W75289   4.336  34.041  18.459  0.2787 -0.1736  0.1163
  302W        W75290   4.270   5.220  24.276 -0.0766  0.1030 -0.0114
  303W        W75291   4.311  25.706   6.652 -0.0082 -0.0985 -0.3949
  304W        W75292  19.377  25.085   1.457  0.0543  0.0356 -0.0356
  305W        W75293  16.623  31.449  19.570  0.0816  0.0400  0.0245
  306W        W75294  11.750  19.420   2.939 -0.1796 -0.1666 -0.0516
  307W        W75295  35.255  21.704  20.014  0.0336  0.1845  0.3033
  308W        W75296  13.960  30.731   4.057 -0.1558  0.0526 -0.1236
  309W        W75297  16.793  19.692  20.254 -0.0239  0.0357 -0.1492
  310W        W75298  20.468  11.120  22.052 -0.2061  0.0061  0.2854
  311W        W75299   0.310  29.859  24.014  0.0335  0.2324  0.0953
  312W        W75300  28.573   0.731  25.456 -0.0464 -0.2024  0.2376
  313W        W75301  13.247  29.756  14.478  0.0924  0.1487 -0.1585
  314W        W75302   2.945  33.824  22.570  0.1429 -0.0562  0.1692
  315W        W75303   6.673   4.715   5.981 -0.0425 -0.1107  0.2796
  316W        W75304  23.528  26.953  24.390  0.2418  0.2568 -0.1862
  317W        W75305   8.281  30.648  25.806 -0.0934 -0.3187 -0.2849
  318W        W75306   1.394  14.899  24.713  0.0001 -0.0310 -0.1519
  319W        W75307   5.312  30.522  21.877 -0.3574 -0.1111  0.2079
  320W        W75308  32.306  29.002  18.640 -0.2917  0.2798  0.2111
  321W        W75309  34.695  11.931  25.711 -0.1115  0.1020  0.1465
  322W        W75310  12.327  34.746   2.183  0.0665  0.0933 -0.3028
  323W        W75311  30.283  26.169  14.481 -0.0179 -0.4977  0.0726
  324W        W75312  29.543  25.133   7.745 -0.3725  0.0317  0.1880
  325W        W75313  34.596  29.421   1.215  0.0465  0.0635  0.0691
  326W        W75314  24.675   1.022  25.283  0.1301 -0.0559 -0.2971
  327W        W75315  15.350  24.804  25.912 -0.2463  0.3382  0.1618
  328W        W75316  24.757   1.052  11.910  0.1517  0.0346  0.0479
  329W        W75317  22.968  33.793  14.103  0.1331  0.2098  0.0826
  330W        W75318  31.121  20.515  13.407 -0.0445  0.1329 -0.0955
  331W        W75319   2.952  17.490  18.856 -0.2395 -0.2108  0.0290
  332W        W75320  33.135  21.477   8.056 -0.1753  0.3181 -0.0868
  333W        W75321  13.524   0.228  11.028 -0.3990 -0.1330 -0.2200
  334W        W75322  30.439  21.418   9.836 -0.1903 -0.0271  0.1807
  335W        W75323  21.473  17.500  23.530  0.1482  0.0382  0.0711
  336W        W75324   6.533  12.042   9.551 -0.1462 -0.0468  0.0088
  337W        W75325   5.691   6.209   4.232 -0.0234  0.1771  0.1159
  338W        W75326  25.936   4.739  13.730  0.0517  0.0194  0.1647
  339W        W75327  14.098   8.625   9.672  0.2747 -0.2851  0.1043
  340W        W75328   9.818   1.579  23.898 -0.1125 -0.1028 -0.1223
  341W        W75329   1.294  32.325   8.644 -0.1127 -0.1709 -0.3456
  342W        W75330  16.316  15.478  11.633  0.1071  0.1197 -0.1699
  343W        W75331  20.151  24.991  20.608 -0.3451  0.1180 -0.1956
  344W        W75332  35.368   5.236  22.553 -0.0723  0.1817 -0.1091
  345W        W75333   4.367  27.417   9.356 -0.1892  0.0681 -0.0023
  346W        W75334  18.297  27.997   4.992 -0.0268  0.0162  0.4432
  347W        W75335   1.361  15.436  25.711 -0.0787  0.0622  0.0184
  348W        W75336  22.151   5.074  24.637 -0.2411  0.2419 -0.0171
  349W        W75337  32.199   5.224  13.902  0.1722  0.0454  0.0116
  350W        W75338  11.375  14.729  23.263 -0.1189  0.1873  0.1401
  351W        W75339  26.212  33.702  22.801  0.0849 -0.2240 -0.1014
  352W        W75340   4.084  19.470   2.020 -0.1389  0.2958  0.0529
  353W        W75341  32.795  13.878  13.028 -0.3087  0.2247 -0.0225
  354W        W75342  15.188  20.239   4.482  0.2168 -0.0235 -0.1020
  355W        W75343  23.390  17.791  22.496  0.1886 -0.2670  0.1180
  356W        W75344  24.488   2.608  23.235  0.0227 -0.2276  0.2432
  357W        W75345  27.212  15.311   5.259 -0.1310 -0.1842  0.0001
  358W        W75346  29.363  31.281  12.402  0.0461 -0.2282  0.0178
  359W        W75347  28.541  14.243  19.144  0.1519 -0.0522 -0.0359
  360W        W75348   6.472  32.097  10.286  0.2369  0.1816  0.2703
  361W        W75349   8.132  29.822   8.889  0.0175  0.1182 -0.1006
  362W        W75350  25.101  32.787   5.723 -0.1529 -0.2636  0.0970
  363W        W75351  25.491  31.475  25.587 -0.0529  0.2548  0.1135
  364W        W75352  23.845  29.019   2.407  0.0840  0.0183 -0.3701
  365W        W75353  34.267  17.198  23.906 -0.0150 -0.0980  0.0524
  366W        W75354  16.742  25.621  25.293 -0.1368  0.2639  0.0940
  367W        W75355  28.573  26.213   0.019 -0.1843 -0.0449 -0.2433
  368W        W75356  10.155   9.481   4.733 -0.0104 -0.1494  0.3529
  369W        W75357  17.972  14.172  17.841  0.0535 -0.0436 -0.2621
  370W        W75358   3.033  16.411  18.882 -0.1420 -0.1980 -0.3038
  371W        W75359  19.040  11.597  10.772 -0.0116 -0.1260 -0.2632
  372W        W75360  23.753  30.075   0.224  0.1316  0.1099 -0.1567
  373W        W75361  24.262   9.115   1.242 -0.3007  0.1559  0.0574
  374W        W75362  28.177  30.179   0.908 -0.0133  0.0972 -0.2899
  375W        W75363  17.639  29.438   8.061 -0.0111 -0.3407 -0.1019
  376W        W75364   0.375   7.047  14.972  0.1725 -0.0837 -0.0084
  377W        W75365  33.123   6.834  20.730  0.1086  0.2590  0.1809
  378W        W75366  33.227  30.619  13.445  0.0069 -0.1048 -0.0784
  379W        W75367  30.902  21.178  23.000 -0.3462 -0.0425 -0.0645
  380W        W75368  30.279  15.853  20.336  0.0338  0.2858 -0.1941
  381W        W75369  26.048   8.990   1.053 -0.0233  0.0468 -0.3411
  382W        W75370  23.025  19.518   1.924 -0.0748  0.1502 -0.1866
  383W        W75371   8.698   4.672   7.738 -0.2696  0.3121 -0.1799
  384W        W75372  13.538  18.455  13.280 -0.2403 -0.2709 -0.1875
  385W        W75373  22.803   6.623  16.920  0.0561  0.0998  0.0399
  386W        W75374  25.878  24.241  16.978  0.1712 -0.0116  0.1775
  387W        W75375  25.319   0.926   3.047 -0.3015  0.0379  0.0525
  388W        W75376  24.251  16.853  10.369 -0.1629 -0.0658  0.2664
  389W        W75377   2.328  20.769  19.724 -0.1057  0.0247 -0.2852
  390W        W75378  20.140  21.133   0.792  0.2642  0.0042 -0.0281
  391W        W75379  27.771  34.253  24.590 -0.1138  0.0961  0.0858
  392W        W75380  26.120   4.127  20.143 -0.3470  0.1034  0.3827
  393W        W75381   2.824  31.953  26.194 -0.4197  0.3061 -0.2440
  394W        W75382  34.984  18.481  17.794 -0.1075 -0.0020 -0.2131
  395W        W75383   7.787  28.289  23.355  0.3064  0.2443  0.0548
  396W        W75384  19.402   4.976   2.696 -0.0850  0.3383 -0.0290
  397W        W75385   7.537  24.635   2.624  0.0060 -0.0100  0.2704
  398W        W75386   9.334   6.696  23.751  0.0952 -0.1516  0.2008
  399W        W75387  27.298   8.390   0.169  0.1436 -0.2003  0.3559
  400W        W75388  30.221  29.912  16.989  0.0973  0.0422  0.2396
  401W        W75389   8.743  19.970   5.611  0.1694  0.1633 -0.1327
  402W        W75390   6.727   3.905  25.093  0.0687  0.0083  0.0740
  403W        W75391  14.795   3.827   9.778 -0.3638  0.0918 -0.0229
  404W        W75392  11.623  22.837  23.479 -0.0729  0.1240 -0.1255
  405W        W75393   3.012   4.005  19.849  0.0204 -0.3226 -0.0405
  406W        W75394   9.940  31.766  10.127 -0.4176 -0.0539 -0.1238
  407W        W75395  29.258  27.778  25.552  0.0829  0.0607 -0.0828
  408W        W75396  32.887   7.002  19.778  0.0986 -0.1745 -0.0171
  409W        W75397  31.119   9.502  23.596 -0.0401 -0.2125  0.0437
  410W        W75398   7.434   2.671   0.888 -0.1687 -0.2411  0.0512
  411W        W75399   6.081  32.029  19.826 -0.0270  0.0632 -0.0856
  412W        W75400  20.418  15.189  22.648  0.0422  0.0725 -0.1771
  413W        W75401   7.920  11.709   9.164  0.4527  0.0853  0.5311
  414W        W75402   3.570   1.138   0.720 -0.1167 -0.0393 -0.2848
  415W        W75403  13.524  17.093   4.099  0.2716  0.1304  0.0044
  416W        W75404  33.700  27.693  23.213  0.1520  0.0618  0.2921
  417W        W75405  19.487  27.992   3.378  0.0285 -0.1806 -0.0673
  418W        W75406  20.009  14.780   6.030 -0.3462  0.0210  0.1956
  419W        W75407   4.707   1.380  23.697  0.0613 -0.1137  0.1707
  420W        W75408  24.089  24.634  20.049  0.2370  0.2491 -0.2442
  421W        W75409   7.810   8.257   9.955  0.3207  0.1496  0.0081
  422W        W75410   7.560  34.290  13.274 -0.1426 -0.0376  0.2350
  423W        W75411  34.486   5.193  24.799  0.2244  0.1571 -0.1513
  424W        W75412  28.423  11.965   9.832 -0.3887 -0.4412 -0.0002
  425W        W75413   8.307  19.058  25.377 -0.1090 -0.0545 -0.0392
  426W        W75414  25.046   7.318  11.470  0.0446  0.0152  0.3930
  427W        W75415  19.961  30.911  21.230 -0.1688 -0.0775 -0.3543
  428W        W75416   9.631   1.011   6.086  0.3142 -0.4245 -0.1345
  429W        W75417  29.580  35.263  23.194 -0.2974 -0.1399  0.3715
  430W        W75418  16.806   2.085  19.829  0.3653  0.1626 -0.0619
  431W        W75419   4.108  28.888   2.713  0.1446  0.0171 -0.0405
  432W        W75420  27.422   7.194  15.584  0.3242  0.1857 -0.0711
  433W        W75421  20.763   2.150  23.848  0.2592  0.2685  0.2628
  434W        W75422  12.546  34.613  12.986 -0.2964 -0.3237 -0.1864
  435W        W75423  27.437  27.387  19.941 -0.1171 -0.1458  0.1410
  436W        W75424  17.618  29.987   0.323 -0.0465 -0.0414  0.1185
  437W        W75425  21.188  32.579  23.316  0.0880  0.0792  0.3008
  438W        W75426  10.947  27.677   9.624 -0.0095 -0.1470  0.0814
  439W        W75427  30.364  21.601   8.545  0.1380  0.1212  0.1258
  440W        W75428  12.625  34.688  20.889 -0.2969  0.0311  0.3301
  441W        W75429  20.987  33.544  20.489 -0.2668 -0.0820  0.2330
  442W        W75430  27.805   9.287   9.042 -0.1042  0.3332  0.1367
  443W        W75431   3.472   4.794  23.003  0.1061  0.0919  0.0435
  444W        W75432  10.914  29.081  13.873  0.0419  0.0500 -0.0571
  445W        W75433   8.667  31.893  24.195 -0.3258  0.1887 -0.2569
  446W        W75434  14.800  14.686  14.213  0.1842 -0.2137 -0.0967
  447W        W75435  12.871  12.681  23.370 -0.1890 -0.2846 -0.3212
  448W        W75436  19.740  21.410  19.323 -0.0096 -0.0851 -0.1928
  449W        W75437  15.258  27.686  11.132 -0.1655  0.0599  0.4473
  450W        W75438   7.400  15.822   2.008 -0.3819 -0.1277  0.1087
  451W        W75439   8.941  10.249   9.981  0.2014  0.0193  0.0444
  452W        W75440   7.403  10.065   2.414  0.2663  0.0462  0.0610
  453W        W75441   7.001  29.960   0.637  0.0559 -0.0006  0.2656
  454W        W75442  28.336  26.015  15.773 -0.2374  0.1115 -0.0538
  455W        W75443  34.098   7.908  14.203 -0.0855 -0.0092 -0.1030
  456W        W75444  31.610   2.051  24.833  0.0247  0.2119 -0.0179
  457W        W75445  17.195  13.930   6.646 -0.0231  0.1333 -0.1864
  458W        W75446   0.673  17.310   1.204  0.1395 -0.0168  0.0590
  459W        W75447  17.457  25.498  10.193  0.1013 -0.0625 -0.0694
  460W        W75448  11.734  34.874   2.261  0.1749 -0.2038  0.2093
  461W        W75449   2.592  23.606  25.673 -0.0017 -0.1023 -0.0524
  462W        W75450  23.253  34.701  18.466 -0.0496 -0.0685 -0.0625
  463W        W75451   3.371   6.737  19.792 -0.3343 -0.1187 -0.0763
  464W        W75452  19.933  18.526  26.215 -0.1285  0.3706  0.0385
  465W        W75453  26.792  27.304   2.460 -0.4285 -0.0616  0.2317
  466W        W75454  15.920  24.332   8.430  0.0899 -0.1423  0.0164
  467W        W75455   2.817  12.809  20.225 -0.2283  0.0694 -0.0971
  468W        W75456  13.298  34.130  12.079  0.1483 -0.0428 -0.2798
  469W        W75457  18.048  27.167  23.438 -0.0471 -0.2190 -0.1767
  470W        W75458   8.206  26.466  11.949  0.0680 -0.1808 -0.0794
  471W        W75459  13.186   3.684   3.383 -0.1564  0.0442 -0.2309
  472W        W75460   0.587   5.187   5.835  0.0308  0.1919  0.1747
  473W        W75461  22.085  27.743  16.099  0.0088 -0.2650  0.0162
  474W        W75462  25.825   3.337   2.854  0.4056  0.1263 -0.1770
  475W        W75463   0.524   4.176  19.804 -0.0707  0.2323  0.3078
  476W        W75464  21.673  32.804   0.087  0.2039  0.0497 -0.1469
  477W        W75465  22.524  25.339   1.669  0.0055 -0.0008  0.0197
  478W        W75466  29.086   0.223  21.491  0.1551 -0.2969  0.0257
  479W        W75467  35.322  12.059  20.302 -0.2763  0.0276  0.1092
  480W        W75468  11.968  23.707   8.562 -0.0042  0.0032  0.0877
  481W        W75469  27.863  12.259  23.049 -0.0932 -0.2536 -0.3732
  482W        W75470   6.331  10.987  10.324 -0.0802 -0.1013  0.2873
  483W        W75471   8.116  21.757   6.822  0.0526 -0.2947 -0.0217
  484W        W75472  10.031  30.938   2.221 -0.1159 -0.1432  0.1569
  485W        W75473  25.774  31.140  22.127 -0.0112 -0.1313  0.0123
  486W        W75474  25.593  15.688  17.371 -0.0253  0.0865 -0.1426
  487W        W75475  14.936  31.364  11.544  0.2754  0.0590  0.0990
  488W        W75476  25.048  15.060  16.913 -0.0095 -0.0678  0.0354
  489W        W75477  34.725  29.015  18.251 -0.0415 -0.0429  0.1784
  490W        W75478  25.154  31.947  16.298  0.0006 -0.0752  0.0152
  491W        W75479  22.234   4.956  18.701 -0.1813  0.0915 -0.3453
  492W        W75480  12.153  13.512  24.564 -0.0191  0.1600 -0.0740
  493W        W75481  28.562  21.616  17.123  0.0154 -0.2437  0.5015
  494W        W75482  13.794  24.284  17.092  0.2813 -0.0724 -0.0887
  495W        W75483  26.358   5.186  19.101  0.2676  0.1193  0.1818
  496W        W75484   8.981  18.273  12.415 -0.0229  0.1129 -0.2923
  497W        W75485  18.922   1.548  17.902  0.2698 -0.1100  0.1903
  498W        W75486  21.168   6.852   4.131 -0.1427 -0.1052  0.0367
  499W        W75487   4.435  13.401  20.493  0.0056 -0.0255  0.4112
  500W        W75488  24.483  28.485  17.093  0.0968  0.0885  0.0687
  501W        W75489  35.142  14.153  20.164 -0.2749  0.1323  0.0237
  502W        W75490  33.194  28.791   3.705 -0.2671  0.2019  0.0264
  503W        W75491  24.388  28.731  22.196 -0.1344  0.0501  0.1026
  504W        W75492  22.339  13.248  19.365  0.2019 -0.1206  0.2321
  505W        W75493  31.603  11.166  19.551  0.0673  0.1617 -0.0421
  506W        W75494  34.271  19.284  12.237 -0.0767 -0.1743 -0.0729
  507W        W75495  12.340  25.618   2.279  0.1161 -0.2865  0.0182
  508W        W75496  24.950  16.913  22.507 -0.2612 -0.0398  0.0288
  509W        W75497  10.279   7.745   3.324 -0.0259 -0.1574 -0.0398
  510W        W75498   2.924   3.132  16.316  0.3107 -0.1415  0.0027
  511W        W75499  32.894  18.751  13.278 -0.0604  0.3105 -0.0302
  512W        W75500  11.824  34.902  11.597  0.1862 -0.0950  0.0970
  513W        W75501  33.914  30.551  25.404  0.3347 -0.1502  0.0680
  514W        W75502  21.882  32.287   4.221 -0.1482  0.4117  0.1693
  515W        W75503  10.599  30.113  16.403  0.2400  0.3192 -0.0160
  516W        W75504  32.814   3.213  21.984 -0.3685  0.0784 -0.0472
  517W        W75505  13.721  24.568   9.951  0.1786  0.1164  0.0994
  518W        W75506  33.398  17.893  12.226 -0.1446  0.0794 -0.0037
  519W        W75507  12.422  16.590  13.723 -0.2050  0.1423  0.3223
  520W        W75508  11.584   7.186   4.316  0.2352  0.1156 -0.1204
  521W        W75509   1.337  29.429  23.009  0.4256  0.0991  0.0660
  522W        W75510   5.435  30.397   4.545 -0.1125  0.0080  0.1222
  523W        W75511  15.872  31.660   5.295 -0.2399  0.5673 -0.3106
  524W        W75512  16.037  13.130   8.094  0.1600 -0.2917  0.0188
  525W        W75513  32.779  11.329  16.230 -0.0376  0.2800 -0.0728
  526W        W75514  33.564   6.869  16.300  0.1422 -0.0434 -0.2599
  527W        W75515  15.429  11.391   5.806 -0.2103  0.1056  0.0889
  528W        W75516  16.422   8.422   6.484  0.2178 -0.3473  0.1059
  529W        W75517  11.168   0.015   2.325  0.1208 -0.1885 -0.0623
  530W        W75518  17.451  30.197  25.772 -0.0074  0.3583  0.1241
  531W        W75519  34.789   4.034  15.576 -0.2078 -0.0272 -0.2047
  532W        W75520  32.807   5.730   3.483  0.0265 -0.3106 -0.1194
  533W        W75521  22.132  34.169  26.008 -0.3482  0.0933 -0.0180
  534W        W75522   3.236  22.985  16.918 -0.3306 -0.5530 -0.0341
  535W        W75523   8.677   5.300   3.086  0.1710  0.1223 -0.0796
  536W        W75524  17.388  29.153  25.156  0.2634  0.0014 -0.1209
  537W        W75525  31.874  24.295   7.598 -0.1722  0.3055 -0.2343
  538W        W75526  20.824   2.152  21.247  0.1023 -0.1222  0.0744
  539W        W75527   9.185   0.334   1.068 -0.2046  0.0407 -0.0393
  540W        W75528  28.483  19.622  24.464  0.1306 -0.3387  0.1049
  541W        W75529  14.779  13.639   5.556 -0.3275 -0.0156 -0.1422
  542W        W75530  16.360  12.479   0.847  0.0476 -0.0753 -0.4235
  543W        W75531   9.544  25.824  10.924  0.0335  0.0076 -0.0650
  544W        W75532  26.056  13.995  15.762  0.0155 -0.0221  0.0594
  545W        W75533  12.565  18.027  21.919  0.1877  0.0697 -0.1739
  546W        W75534  21.490   1.494  25.471  0.2998  0.1928 -0.2266
  547W        W75535  21.219  25.128   5.481  0.2196  0.0466  0.0276
  548W        W75536  12.943  14.565  20.502 -0.0552 -0.0544 -0.4106
  549W        W75537  21.014   3.925  19.761  0.2753  0.0668  0.1493
  550W        W75538  17.298   4.910  20.490  0.2581  0.0014 -0.1789
  551W        W75539  26.880  13.890  16.420 -0.2672 -0.0370 -0.2234
  552W        W75540  30.403  18.415   8.304 -0.3140  0.1423 -0.0627
  553W        W75541  29.778   6.799  13.383 -0.0263 -0.1585  0.1373
  554W        W75542  34.043  17.681  18.329  0.0320 -0.0385 -0.1022
  555W        W75543  24.450  25.040  14.087 -0.0411 -0.0674  0.1626
  556W        W75544  32.312  17.114   7.418 -0.0603 -0.1240  0.1477
  557W        W75545  23.311  20.860   3.204 -0.0694 -0.1879  0.1615
  558W        W75546   5.992  30.070   0.297 -0.1623 -0.0544  0.1779
  559W        W75547  25.742   0.414  18.199 -0.0193  0.1058  0.0882
  560W        W75548  10.410   7.475  22.339 -0.0765  0.0154 -0.0711
  561W        W75549   5.233   0.497  12.283 -0.2122 -0.0567 -0.1474
  562W        W75550   5.016   8.771  21.862  0.3512  0.1425 -0.2225
  563W        W75551  21.624  11.560   4.154 -0.1876  0.2175  0.2953
  564W        W75552  25.672   7.675  22.595 -0.0397  0.1001  0.3226
  565W        W75553   1.232  27.856   4.086 -0.0953  0.1707 -0.0457
  566W        W75554   8.929  32.025   1.623 -0.1006  0.0933  0.4048
  567W        W75555  21.571  30.349  16.805  0.1124  0.0096  0.2348
  568W        W75556   3.405  19.477  20.914 -0.0227  0.0391  0.1769
  569W        W75557  25.797  35.105  19.490  0.1197  0.3114  0.0172
  570W        W75558  21.640  34.456  19.918  0.0919  0.2249 -0.0307
  571W        W75559   6.899  30.455   0.962 -0.2324 -0.1437 -0.0164
  572W        W75560  11.727   9.268   3.196  0.0564  0.2936 -0.1029
  573W        W75561  19.523  34.184   2.896  0.3829  0.0332  0.2992
  574W        W75562  14.736  27.112  22.825  0.1644  0.4266  0.0592
  575W        W75563  13.297  12.164   1.870 -0.1304  0.3260  0.1750
  576W        W75564   3.206   4.659   7.789 -0.1085 -0.2090 -0.2594
  577W        W75565  30.660  33.221  13.074 -0.4062 -0.3002  0.1047
  578W        W75566  14.178   9.330   3.310 -0.0998  0.0089 -0.0689
  579W        W75567   5.578  26.321  23.200  0.0545  0.1390  0.2147
  580W        W75568  18.736  33.419  18.341  0.3202 -0.1738 -0.0455
  581W        W75569  11.995  16.305  10.762  0.1879  0.0368 -0.0231
  582W        W75570  30.662  19.227  14.256  0.1252 -0.0047 -0.0310
  583W        W75571  34.781  26.420  18.975  0.4707 -0.0444  0.1625
  584W        W75572  12.341  17.382   3.540 -0.0169 -0.2791  0.0376
  585W        W75573   7.637   3.400   4.275 -0.0083 -0.1195 -0.1287
  586W        W75574  25.433  31.720   4.160 -0.2000 -0.0150  0.2378
  587W        W75575  22.118  25.721  17.036 -0.2635 -0.3086 -0.0043
  588W        W75576  10.926   7.221  22.782  0.0317 -0.0091  0.0509
  589W        W75577  23.500  33.771  14.233  0.2122 -0.0565  0.0997
  590W        W75578  25.496   9.806   0.031  0.1673  0.0504  0.4722
  591W        W75579  34.925  28.049  18.031 -0.1707 -0.3206 -0.0723
  592W        W75580  26.409  21.563  13.432 -0.0100 -0.1081 -0.0513
  593W        W75581  28.396  20.956  11.031  0.0620  0.0651 -0.0732
  594W        W75582  16.158   7.926   8.473  0.1250 -0.2333 -0.0557
  595W        W75583  23.157   0.485   1.786 -0.1081  0.0482 -0.0388
  596W        W75584   8.217  14.542   5.844  0.3124 -0.2292  0.0433
  597W        W75585  30.531  34.654  13.877  0.2203 -0.0681  0.2316
  598W        W75586  31.497  13.815  21.145  0.0545 -0.2011  0.1307
  599W        W75587  29.188  22.675  25.771  0.3410 -0.2538  0.2877
  600W        W75588  34.320  29.887  22.960  0.2251  0.0497 -0.4206
  601W        W75589  26.981  33.783  13.237 -0.0474 -0.0689 -0.1235
  602W        W75590   5.053  18.954  21.556  0.1176 -0.0022 -0.0869
  603W        W75591  10.641  29.165   1.886 -0.2979 -0.1224 -0.0040
  604W        W75592  18.140  28.420  25.011  0.0948  0.5266  0.1910
  605W        W75593   7.513   0.322   8.055  0.1429  0.3557 -0.0076
  606W        W75594   1.493   3.180  22.355 -0.0024 -0.1274 -0.0607
  607W        W75595  10.337  10.252   2.347 -0.0968  0.1102  0.0773
  608W        W75596  23.391  25.559  19.199  0.1462 -0.2602  0.0679
  609W        W75597   4.481  10.363   2.004 -0.3039 -0.1464 -0.1107
  610W        W75598   0.976  12.022  14.835 -0.3048  0.1785 -0.0698
  611W        W75599  32.435  11.126  11.819 -0.0562 -0.3634 -0.1641
  612W        W75600   2.277  31.093  24.144  0.1146  0.1225  0.2272
  613W        W75601  15.379  21.724  24.996  0.0338 -0.1884 -0.1782
  614W        W75602  30.778  20.552  12.010 -0.0914 -0.0901  0.2755
  615W        W75603  11.529   7.180  13.826 -0.1875  0.1318  0.1261
  616W        W75604  27.332  19.012  15.936 -0.0374  0.3445  0.3903
  617W        W75605  28.231  31.594  17.656  0.0760  0.1344  0.3170
  618W        W75606  24.620  23.027  19.724 -0.0835 -0.0926  0.1501
  619W        W75607   7.539  20.091   5.192  0.0980  0.1433 -0.1187
  620W        W75608  18.903  34.489  23.148 -0.3717  0.0943  0.1477
  621W        W75609   0.339   8.311  11.923 -0.1155  0.0980  0.1551
  622W        W75610   3.479   9.024  21.919  0.3418  0.2639 -0.1073
  623W        W75611  11.179  33.808  23.290 -0.2983 -0.1561 -0.0167
  624W        W75612  31.296   2.504   3.313 -0.1426  0.0674  0.0156
  625W        W75613  18.137  33.651   7.689  0.2884  0.1312 -0.0601
  626W        W75614   8.787  20.615   1.176 -0.1369 -0.0551 -0.0484
  627W        W75615  25.578  29.782  13.792 -0.0815 -0.3817  0.0756
  628W        W75616  23.603  28.445   4.713  0.0176 -0.1045 -0.3332
  629W        W75617  33.135  24.279   8.873 -0.0544  0.1053  0.3231
  630W        W75618   2.318   3.299   5.012 -0.3220 -0.5029 -0.0480
  631W        W75619  22.958  14.696  13.949 -0.2277 -0.0589  0.2048
  632W        W75620  22.418  11.939  22.367  0.1585 -0.2764 -0.1016
  633W        W75621  29.377   7.554  19.680 -0.0961 -0.1391  0.0061
  634W        W75622  30.431  16.525  14.362  0.2182  0.1298 -0.1783
  635W        W75623   2.649  17.443  22.528 -0.2180  0.0217 -0.1939
  636W        W75624  31.223  28.422  19.225 -0.3554  0.1393 -0.1356
  637W        W75625  33.349   8.242  24.087 -0.1219 -0.0935 -0.2015
  638W        W75626   3.009   3.235  23.937 -0.1315 -0.0768  0.0030
  639W        W75627  31.094  34.241  13.032 -0.3731  0.1227 -0.0662
  640W        W75628   9.193  25.272  13.868 -0.0058  0.1933 -0.2757
  641W        W75629   2.460   9.611  26.117  0.2698  0.2523 -0.0111
  642W        W75630   5.867   4.885   3.847  0.4426 -0.2299 -0.2906
  643W        W75631  15.781  23.694  10.785 -0.2000 -0.0579  0.1894
  644W        W75632   3.897  22.623  20.978 -0.0348  0.2480 -0.1973
  645W        W75633  20.611  20.355   3.239  0.1811 -0.1943  0.0107
  646W        W75634   8.789  19.444  13.503  0.3250  0.0705 -0.3010
  647W        W75635  19.192  35.353  18.672 -0.0204 -0.0406 -0.1943
  648W        W75636  21.201   7.579   6.788  0.0146 -0.1692 -0.1370
  649W        W75637  31.323  28.351  11.342  0.1358  0.0792  0.0116
  650W        W75638  13.916  23.480  25.443  0.1940 -0.0468  0.1470
  651W        W75639  16.373  17.418  12.259 -0.0130  0.0008 -0.0748
  652W        W75640   8.821   5.441  21.086 -0.1816 -0.0829 -0.0023
  653W        W75641   1.090  12.491  13.420  0.0747  0.1478 -0.2303
  654W        W75642   4.340  28.327  23.670  0.0901  0.2362  0.0784
  655W        W75643  29.651  33.396  18.930  0.0170 -0.1051 -0.2725
  656W        W75644   3.398  29.132   5.980 -0.0748 -0.2688  0.3243
  657W        W75645  11.010   9.816  13.352 -0.1456 -0.1886  0.3949
  658W        W75646  11.549  32.558  25.369  0.0848  0.0592 -0.1165
  659W        W75647  14.821  29.784   4.374 -0.0044 -0.1246  0.1518
  660W        W75648  18.017  14.079   8.234 -0.1347  0.3062  0.1314
  661W        W75649  13.533  14.859  25.969  0.3742 -0.0186  0.0459
  662W        W75650  33.457   6.513  20.430 -0.5157  0.1090 -0.3291
  663W        W75651   0.407  16.399  12.867 -0.1282 -0.0219 -0.0029
  664W        W75652   2.227  33.430   2.491  0.0362  0.0190  0.0590
  665W        W75653  25.222  24.408  21.648 -0.1752  0.1879  0.2168
  666W        W75654  10.656   6.224  14.248  0.1460  0.0402  0.0008
  667W        W75655  28.411  33.641   0.338 -0.4150  0.1519  0.0761
  668W        W75656  34.199  10.961   8.679 -0.0154 -0.0759  0.2414
  669W        W75657  19.280  25.023   5.184  0.1036 -0.3262 -0.3014
  670W        W75658  10.905  24.761  24.732 -0.1385  0.0017 -0.1554
  671W        W75659   2.218  10.652   0.602 -0.0154 -0.1042 -0.0451
  672W        W75660  26.324   8.733   0.010  0.1328 -0.1567 -0.1536
  673W        W75661   6.421   1.978  25.185 -0.0544 -0.0873  0.1346
  674W        W75662  10.689   0.598   5.091  0.2840  0.3196  0.2984
  675W        W75663   3.123  23.164   2.588  0.0846 -0.1307 -0.2298
  676W        W75664  30.182  23.321   6.180  0.0076 -0.2103 -0.1756
  677W        W75665  31.916  28.147  21.549 -0.3195 -0.3064  0.1909
  678W        W75666   0.432   0.777  17.090  0.2266 -0.2033  0.2221
  679W        W75667   0.518  32.768  21.320 -0.1832  0.1490 -0.0275
  680W        W75668  33.345   6.238   1.603  0.0145 -0.3122 -0.0837
  681W        W75669  10.509   7.185   5.035 -0.1007 -0.2160 -0.1704
  682W        W75670  16.791  17.961  10.567  0.0136 -0.0672 -0.3660
  683W        W75671  10.008  25.315  23.963  0.1778 -0.1230 -0.1848
  684W        W75672   3.848   8.090  22.048 -0.0443  0.3969 -0.1665
  685W        W75673  32.973  20.738  10.637 -0.1548 -0.0808 -0.0988
  686W        W75674  32.905  31.450  21.982  0.0708 -0.0467  0.0454
  687W        W75675  11.104  27.780   5.884 -0.0890 -0.0125  0.0754
  688W        W75676  10.232  27.537   5.949 -0.2794 -0.1219  0.0045
  689W        W75677  17.713  25.383   8.594 -0.2505  0.2168  0.0628
  690W        W75678  10.756  32.387  24.166 -0.2375  0.3148  0.0285
  691W        W75679  14.915  15.833   5.135 -0.1609  0.2012  0.0648
  692W        W75680  15.815  16.130  25.075  0.1917 -0.1290  0.0521
  693W        W75681   6.163   2.945   6.300 -0.2598 -0.0870 -0.1257
  694W        W75682  30.947  24.513  13.759  0.1231  0.2945 -0.1661
  695W        W75683   0.869  34.651  19.011  0.1234  0.5088 -0.2057
  696W        W75684  24.122  22.352  18.215  0.1142  0.0137 -0.0566
  697W        W75685   6.349  33.489  21.552 -0.0010 -0.2656  0.0270
  698W        W75686  30.550  23.919   7.534 -0.0866 -0.3478  0.2247
  699W        W75687   5.185  29.810  13.566  0.2376  0.1896 -0.1032
  700W        W75688   6.030  19.292  21.098 -0.0011  0.5185 -0.5273
  701W        W75689  32.955  17.616  23.635  0.0694  0.2159 -0.2847
  702W        W75690  14.003   0.377   4.807  0.1446  0.0374  0.1023
  703W        W75691  14.030  27.156  24.627 -0.1495  0.0425 -0.0339
  704W        W75692  14.297  22.140  15.383  0.1232  0.2072 -0.1186
  705W        W75693   2.177   8.642  18.745 -0.3732  0.1830 -0.1330
  706W        W75694   7.911  33.334  23.695  0.1676 -0.0327 -0.2353
  707W        W75695  29.528  32.983   2.319 -0.2977  0.0405 -0.1490
  708W        W75696  32.752   8.321  10.293  0.0716  0.3720  0.1771
  709W        W75697  35.334   8.832  17.878  0.0187  0.0415  0.0668
  710W        W75698  18.408   6.414  11.318  0.2025 -0.0091  0.1047
  711W        W75699  14.067  18.243  12.598 -0.0409  0.4769  0.4196
  712W        W75700   0.283  12.870  25.906  0.0140  0.2143 -0.1706
  713W        W75701  30.417   7.168  22.685 -0.1131 -0.4223  0.1911
  714W        W75702   7.535  12.083   7.344 -0.3013  0.0544  0.0520
  715W        W75703   8.197  14.003  24.001  0.3529 -0.0617 -0.2300
  716W        W75704  18.635  16.850  23.070  0.1036  0.1580  0.0125
  717W        W75705  10.890  21.857  12.318  0.0959 -0.0522  0.0934
  718W        W75706  31.009  25.146  12.760 -0.1363  0.2480 -0.1520
  719W        W75707  34.549   9.773   0.947  0.1189  0.0901  0.3975
  720W        W75708  10.612  12.876   2.777  0.1066 -0.1004 -0.2496
  721W        W75709   8.363   0.555  25.607  0.0353 -0.0553 -0.3833
  722W        W75710   3.433  27.387  12.162  0.2786 -0.1728 -0.1877
  723W        W75711  32.288  14.447  19.271  0.2108 -0.0567 -0.0080
  724W        W75712   6.433  23.287  22.413  0.0295  0.0053 -0.0322
  725W        W75713  31.284  13.149  11.944 -0.0891  0.2836 -0.1961
  726W        W75714  20.064  13.181  25.462  0.1659  0.2298 -0.1204
  727W        W75715  25.772   9.277   2.083 -0.0340 -0.0885  0.1551
  728W        W75716  27.005  26.865   2.324  0.1724  0.1222  0.1065
  729W        W75717  27.907   2.339  25.921  0.3154  0.2927  0.1475
  730W        W75718   7.853  19.459   3.301  0.0857  0.0228  0.2311
  731W        W75719  11.349  15.963  21.401  0.1215 -0.0560 -0.1977
  732W        W75720  24.979  10.595  15.670 -0.3262  0.1290  0.2723
  733W        W75721   2.463   4.078  17.445  0.1062  0.1255 -0.0694
  734W        W75722  30.257  13.699   4.207  0.1779 -0.1432 -0.1542
  735W        W75723  15.470  26.502  15.599 -0.0172  0.2325 -0.0381
  736W        W75724  13.082  11.644  22.505 -0.4156  0.0325  0.2726
  737W        W75725  34.764  34.930  18.525  0.1636 -0.2861 -0.1418
  738W        W75726   8.924   7.839   9.359  0.1527 -0.0766 -0.0936
  739W        W75727  30.847  17.385  12.160 -0.0046 -0.2633 -0.4440
  740W        W75728  25.074   1.781  13.064 -0.1397 -0.0673  0.1365
  741W        W75729  32.201  24.442  26.117 -0.0554 -0.1552 -0.4341
  742W        W75730  34.344   5.662  13.186  0.3273  0.1545  0.2437
  743W        W75731  25.595   0.354  24.688  0.2693 -0.2010 -0.0277
  744W        W75732   5.279  22.559  18.787 -0.0820 -0.0136 -0.1452
  745W        W75733  18.292   3.190   1.042  0.3147 -0.1197 -0.0096
  746W        W75734  19.015  31.045  17.279  0.1375  0.0076  0.4319
  747W        W75735  31.727   7.930  17.522 -0.0404  0.0413 -0.0262
  748W        W75736   9.228  17.542   3.021 -0.0415  0.1692  0.2320
  749W        W75737  29.522  31.374  19.968 -0.1158  0.3125  0.2702
  750W        W75738  12.463  33.603   3.067 -0.1888  0.0510 -0.0271
  751W        W75739   8.518  24.317  21.925 -0.4147 -0.0552  0.2480
  752W        W75740  34.110  22.229  16.676  0.1148  0.0375  0.0565
  753W        W75741  16.824   4.119  12.579 -0.0480 -0.0125 -0.1105
  754W        W75742  16.939  17.224   0.366  0.2797  0.1911  0.0211
  755W        W75743  35.255  14.601  20.335 -0.0394 -0.4040 -0.1520
  756W        W75744   2.737   5.063   7.256 -0.1492  0.2890 -0.0331
  757W        W75745   8.077  27.622   6.693 -0.2630 -0.2723  0.1532
  758W        W75746  33.364   5.149  20.781  0.3486  0.3708  0.0100
  759W        W75747  24.020  15.950  13.678 -0.3370 -0.0322 -0.1408
  760W        W75748  28.975  24.017  13.202 -0.4021 -0.0061 -0.2295
  761W        W75749  14.915  13.849  10.998 -0.0519 -0.3997  0.0089
  762W        W75750  17.732  25.513  11.569  0.1855  0.4236  0.0789
  763W        W75751   5.434  14.777  22.597 -0.1244  0.0642 -0.1066
  764W        W75752  27.966   2.538  10.866  0.0841  0.1832 -0.4664
  765W        W75753  13.620  24.761   8.370 -0.0483  0.0785 -0.0710
  766W        W75754  23.965   5.797  18.536 -0.3142 -0.4608  0.1006
  767W        W75755   4.274   6.657   3.622 -0.1674  0.0807  0.0779
  768W        W75756  23.705   5.892  22.774 -0.0755  0.3732  0.1100
  769W        W75757   3.687  29.613   3.468 -0.0785 -0.0881 -0.2071
  770W        W75758   9.311  28.151  24.740 -0.0352 -0.0734 -0.1613
  771W        W75759   6.361  10.058   3.061 -0.3757 -0.2235 -0.0157
  772W        W75760  11.823   8.263   6.267 -0.0623 -0.2627 -0.0539
  773W        W75761  23.111  26.228  20.569  0.0494 -0.0862  0.1631
  774W        W75762  34.319  24.283  14.933 -0.2935 -0.0978 -0.2148
  775W        W75763  35.228  24.040  17.509 -0.1212  0.3141 -0.2771
  776W        W75764  25.539  22.537   8.833  0.2520  0.3164  0.0500
  777W        W75765  32.809  10.554  10.415  0.0872  0.3312  0.0391
  778W        W75766  34.197   2.742  16.891 -0.2115 -0.0202  0.2722
  779W        W75767   0.959  20.859  14.999  0.0819 -0.0514  0.1294
  780W        W75768   3.465   1.938  21.614 -0.0176 -0.3628 -0.0638
  781W        W75769  13.546  16.608   6.652  0.2485  0.0642  0.2114
  782W        W75770  31.875  24.971  10.227 -0.3910  0.3486 -0.1518
  783W        W75771  28.341   1.462   1.406  0.0747 -0.0745 -0.0133
  784W        W75772   7.042   3.894   4.309  0.1783  0.2391  0.1092
  785W        W75773   1.674  26.258   1.699 -0.2441 -0.0116  0.1257
  786W        W75774  10.515  29.923   8.682  0.1000 -0.2250  0.1728
  787W        W75775   9.777  18.773  10.908  0.0484 -0.3429  0.1812
  788W        W75776  24.798  24.201  11.658  0.0614  0.0489  0.0982
  789W        W75777  20.889   8.616  21.194 -0.1378  0.0366 -0.0995
  790W        W75778  11.088  34.172   1.623  0.2622 -0.0940  0.0630
  791W        W75779  15.940  34.243   2.541  0.3225  0.1287  0.1668
  792W        W75780  13.691  34.515   6.275 -0.0146 -0.0399 -0.2726
  793W        W75781  35.067  13.530  21.838  0.1250 -0.1324  0.2511
  794W        W75782   4.410  35.054   6.712 -0.1705  0.3220  0.3132
  795W        W75783   6.558   7.066   6.932 -0.0533 -0.0689  0.1048
  796W        W75784   1.546  31.287  20.702  0.0433 -0.0702 -0.3447
  797W        W75785   2.509  11.163  17.924 -0.6266  0.2251 -0.3168
  798W        W75786  29.568  31.055  11.501  0.0938 -0.1044  0.0540
  799W        W75787  22.161  33.297  14.683 -0.0218  0.0591  0.3041
  800W        W75788  22.811  32.301  16.931  0.1158 -0.0368 -0.0538
  801W        W75789  13.868  30.572   6.210  0.0194  0.2957 -0.1719
  802W        W75790   1.550  17.309   1.155  0.2152  0.2159 -0.4232
  803W        W75791  34.834   4.348  16.209 -0.1377 -0.1309  0.0533
  804W        W75792   2.344  34.855  18.602 -0.3267 -0.1973 -0.1424
  805W        W75793  16.332  10.558   7.060 -0.1184 -0.2189 -0.0010
  806W        W75794  26.778   6.691  21.309 -0.1707  0.1234  0.0855
  807W        W75795   2.860  14.876   1.601 -0.2940  0.0632 -0.3343
  808W        W75796   8.526  13.025  10.825  0.1224 -0.1396  0.0416
  809W        W75797   8.416   9.961   0.714 -0.0377  0.1747 -0.4585
  810W        W75798  25.913  25.801   8.812  0.2234  0.0108  0.2878
  811W        W75799  25.123  35.236   4.663  0.2704  0.2117 -0.2184
  812W        W75800   6.959  34.076   1.453  0.4578 -0.3142 -0.0174
  813W        W75801  23.463  31.046  19.065  0.2316  0.0333  0.0781
  814W        W75802  21.181  35.118  16.022  0.0030 -0.1649 -0.0837
  815W        W75803  10.418  30.600  14.188 -0.0127 -0.0826  0.1774
  816W        W75804   8.968  17.268   0.854 -0.1225  0.0802 -0.3398
  817W        W75805  19.200  15.983  25.387  0.0359  0.1547  0.0277
  818W        W75806  31.961  18.572  15.919  0.1091  0.0954 -0.1676
  819W        W75807  11.678   3.958  11.516  0.1951 -0.0069  0.1866
  820W        W75808  10.324  33.876   8.371 -0.1550 -0.0808  0.2056
  821W        W75809  13.555  27.542  23.267  0.1608  0.2514 -0.3787
  822W        W75810   6.258  11.405   8.370  0.1536 -0.0188  0.2431
  823W        W75811  20.830  24.938  18.102  0.3727  0.3266 -0.0132
  824W        W75812  25.611  16.558  17.045 -0.0235  0.0213  0.2984
  825W        W75813   0.472  24.961  24.591  0.1484  0.0435 -0.2823
  826W        W75814  24.524   3.286  26.169 -0.1596  0.1547  0.2243
  827W        W75815  26.861   9.679  12.474  0.3458  0.1839 -0.1075
  828W        W75816  27.693  35.017  20.628  0.1504  0.1552 -0.1937
  829W        W75817  33.773  32.120   1.327 -0.0133 -0.1200 -0.0468
  830W        W75818  33.667   8.920  23.677  0.0753  0.2472 -0.1546
  831W        W75819  34.762  23.813  24.419 -0.2143 -0.0675  0.1937
  832W        W75820  19.901   5.393   5.837 -0.0142  0.0016 -0.3289
  833W        W75821  32.942   4.146  19.140 -0.0805  0.0188  0.1288
  834W        W75822  14.368  10.783  20.400 -0.0949 -0.0621  0.3305
  835W        W75823  25.159  21.557  15.736  0.0026 -0.0801 -0.1038
  836W        W75824  32.463   9.791  13.240 -0.2314 -0.0784 -0.0313
  837W        W75825   0.781   2.177   5.714 -0.0931  0.0253 -0.0690
  838W        W75826   6.851  31.937   3.783 -0.1475 -0.0634  0.1514
  839W        W75827   5.050  11.169   1.902  0.0350  0.1004 -0.1645
  840W        W75828  26.250  13.132  14.406  0.1101 -0.1910 -0.1257
  841W        W75829  18.748   6.916  17.388 -0.3964 -0.3218  0.3436
  842W        W75830  10.265  21.380   9.764 -0.3073 -0.0994  0.0625
  843W        W75831  11.474  16.321   0.074 -0.3845  0.1307 -0.2803
  844W        W75832  23.661   9.937   0.058  0.1044  0.0706  0.0796
  845W        W75833  22.564  30.492   2.607  0.1526 -0.0511  0.1936
  846W        W75834  31.520  22.704   8.366 -0.2259 -0.2061  0.3563
  847W        W75835   3.215  34.083   9.079  0.3927  0.0090 -0.0239
  848W        W75836  27.437  23.189  25.823  0.0489 -0.0968  0.0828
  849W        W75837  23.509  10.914  14.232  0.0359  0.1063 -0.0759
  850W        W75838   0.795  28.045   0.267  0.3363 -0.0697 -0.4103
  851W        W75839  10.498  32.535   0.219 -0.1369 -0.1680  0.1791
  852W        W75840   2.301  12.596   0.542 -0.4161  0.3417  0.1614
  853W        W75841   9.819   8.753   9.442 -0.1689 -0.1420 -0.2910
  854W        W75842  13.482  31.164  11.053 -0.1785 -0.1377 -0.0802
  855W        W75843  28.839   1.346  24.756  0.1128  0.3175 -0.2492
  856W        W75844   9.946  33.601  12.749 -0.0001 -0.1618  0.3103
  857W        W75845  11.253  29.361  10.993 -0.2654  0.1316 -0.5074
  858W        W75846   3.436   2.824  23.747 -0.2092  0.1207 -0.0045
  859W        W75847  14.552   9.874   0.506 -0.1499 -0.1822  0.2822
  860W        W75848   7.466  20.996   6.306  0.1785  0.5187  0.2586
  861W        W75849  14.818  29.141  23.186  0.2120 -0.0465  0.2193
  862W        W75850   7.302  31.855  20.452 -0.4232 -0.1502  0.2762
  863W        W75851  11.853  21.157   7.444  0.1707  0.1302 -0.1354
  864W        W75852  30.838  34.838  21.718 -0.2529 -0.0465 -0.1773
  865W        W75853  14.096   6.124   3.687  0.1352 -0.1570 -0.2014
  866W        W75854  31.263  11.577  23.125  0.0006 -0.0493 -0.0751
  867W        W75855  19.344  21.219  19.697  0.0167  0.0148 -0.0379
  868W        W75856  19.555   7.080  23.701 -0.0576  0.6093 -0.2992
  869W        W75857  29.969  15.171  18.358  0.2182 -0.0212  0.0575
  870W        W75858  25.888  28.340  21.050  0.3307  0.0114  0.3279
  871W        W75859   7.116  26.280  15.793 -0.1204  0.1611  0.0043
  872W        W75860  14.938  14.599   1.237  0.1008  0.1773 -0.1261
  873W        W75861  18.407  15.837   9.490  0.1139  0.0952 -0.0188
  874W        W75862  20.116  31.311  25.279  0.2505 -0.0599  0.3958
  875W        W75863  29.682  22.909  22.328 -0.0888  0.4266 -0.3363
  876W        W75864   4.552  32.687  12.346  0.1381  0.0284 -0.1632
  877W        W75865  19.470  29.526  21.147  0.1451 -0.2073 -0.0016
  878W        W75866  34.100   3.023  24.065  0.0929  0.0866  0.3376
  879W        W75867  19.637  16.680  20.154 -0.0204  0.3266  0.1507
  880W        W75868  26.113   7.973  24.769  0.2120 -0.1088  0.1475
  881W        W75869  21.669  26.509   3.080  0.4121 -0.1835  0.0482
  882W        W75870  32.142   3.115   1.287  0.0493  0.0107 -0.4030
  883W        W75871  24.431   3.719  16.993 -0.2108  0.2483 -0.0455
  884W        W75872  11.300   0.064  12.398  0.0509 -0.2095  0.1627
  885W        W75873  17.015   0.918   7.254 -0.2359  0.0193  0.1796
  886W        W75874   9.854  23.419   8.035  0.3657  0.0294  0.0921
  887W        W75875  13.061   1.526   0.083 -0.2198 -0.0683  0.0177
  888W        W75876  14.398  21.473  23.467 -0.2799  0.1352 -0.0597
  889W        W75877   7.053   2.070  10.648  0.2285  0.3101  0.2843
  890W        W75878  19.550  25.985   8.298 -0.4248  0.0139  0.0908
  891W        W75879   3.308  24.368   2.349 -0.1969  0.0312  0.0646
  892W        W75880  25.867  12.832  11.452 -0.0199  0.0805  0.0608
  893W        W75881  21.334  12.153  22.282  0.0490 -0.2600 -0.0610
  894W        W75882  21.406   9.147  17.577  0.2805 -0.1850 -0.1088
  895W        W75883  29.245  24.162  17.750 -0.0119 -0.0425 -0.0745
  896W        W75884  15.486  15.569   6.333 -0.0093 -0.0121  0.2729
  897W        W75885   0.370  24.820  21.707 -0.2346  0.2999  0.1578
  898W        W75886  24.363   9.395   2.487  0.0649  0.1625  0.0630
  899W        W75887   8.806   1.894  13.388 -0.3087 -0.0335  0.2874
  900W        W75888  20.255  18.024   3.613  0.3619 -0.1566  0.0226
  901W        W75889  11.908  19.843  10.243 -0.0444 -0.0443  0.0318
  902W        W75890  15.232  29.559  12.842  0.2607  0.2407 -0.3680
  903W        W75891  33.486  32.614  16.844 -0.0714 -0.3924  0.1150
  904W        W75892  12.284  28.275  13.647  0.2191  0.1204 -0.0975
  905W        W75893  10.204   7.188  25.622  0.0577 -0.0331  0.0120
  906W        W75894  30.887  27.832  11.733  0.0389  0.1189 -0.0155
  907W        W75895   1.306  19.334  25.095  0.1082  0.0029  0.1166
  908W        W75896  30.030  21.516  14.408 -0.0200 -0.1276  0.0782
  909W        W75897  24.473  34.026  17.568  0.0293 -0.0570  0.1925
  910W        W75898   6.695  32.646  13.669 -0.0891 -0.0896 -0.0381
  911W        W75899  30.256  12.542   8.547 -0.2203 -0.1761 -0.1079
  912W        W75900  18.887   5.401  21.232  0.2980 -0.2714 -0.1829
  913W        W75901   8.883   3.020  21.049 -0.0795  0.1099 -0.0815
  914W        W75902   3.032  18.758  15.974 -0.0737 -0.0036 -0.0040
  915W        W75903  12.899   3.019   7.063 -0.1630 -0.2066  0.1049
  916W        W75904  29.672  24.959   9.309 -0.1296  0.0690 -0.1949
  917W        W75905  10.311  26.504   3.014  0.0934 -0.2130 -0.1286
  918W        W75906  17.806  21.984   3.450 -0.1564  0.1601 -0.0405
  919W        W75907   7.102   5.561   0.250 -0.0465 -0.4515  0.2692
  920W        W75908  14.920  21.849   9.895  0.1350 -0.3302  0.1166
  921W        W75909   8.289  17.739  13.022 -0.3265  0.1229 -0.0727
  922W        W75910   7.870   0.612  21.518 -0.1273  0.1619  0.1153
  923W        W75911  30.048  29.007   1.643  0.2281 -0.0047  0.1327
  924W        W75912  18.708  20.662  24.667  0.0928  0.0724  0.0043
  925W        W75913  13.267  17.450  20.463 -0.0281  0.2367 -0.0592
  926W        W75914   1.502  28.295  18.959  0.4806  0.0298  0.0754
  927W        W75915  26.830  12.653  14.823 -0.0902  0.1297 -0.0542
  928W        W75916   2.455   2.695   1.962 -0.0925 -0.2605 -0.0849
  929W        W75917  34.978   3.686   2.378  0.0006  0.0066  0.1672
  930W        W75918  35.146  25.802  16.531 -0.2380  0.0647  0.0165
  931W        W75919  22.816   0.005  17.045 -0.0746  0.3996  0.4486
  932W        W75920  23.037   3.731   4.861  0.0372  0.0727  0.4195
  933W        W75921  25.504   9.368  16.716 -0.2125 -0.1263 -0.0866
  934W        W75922   1.996  22.875  24.592  0.2577  0.1855  0.2777
  935W        W75923  11.008  22.372   9.744  0.0793  0.0479 -0.0106
  936W        W75924  16.461  25.593  13.727  0.1296  0.3509  0.0266
  937W        W75925  14.213  30.656   9.038  0.1269  0.1717  0.0775
  938W        W75926  26.822  32.852  18.544  0.4280  0.1979 -0.1437
  939W        W75927  29.929  27.932   0.288 -0.3492 -0.2280 -0.1761
  940W        W75928  24.749  10.940  12.874 -0.0214  0.0290  0.0299
  941W        W75929  20.835  25.420   0.364 -0.0429  0.0113 -0.2059
  942W        W75930  34.688  30.388  15.103  0.1368 -0.1597  0.2749
  943W        W75931  10.699  32.446   2.496 -0.1042  0.1965  0.2499
  944W        W75932  25.551  27.682  17.874  0.1223  0.1232 -0.0264
  945W        W75933  25.378   7.827   2.111 -0.1627 -0.1365 -0.0504
  946W        W75934   7.440  25.996   2.916 -0.1439 -0.3704  0.3957
  947W        W75935  19.215  16.653  18.375  0.0980  0.2905  0.2960
  948W        W75936  31.743  28.532  24.819 -0.1860  0.3683 -0.1321
  949W        W75937   3.742  32.014  25.635  0.2164  0.0493  0.1422
  950W        W75938  32.860  11.722  12.542  0.2096  0.0607 -0.1619
  951W        W75939   4.155  21.096  21.132 -0.0181 -0.0338 -0.0781
  952W        W75940  31.427  19.341  18.878  0.0405  0.1352 -0.2940
  953W        W75941   9.171  32.558   5.431  0.1970 -0.1705  0.0365
  954W        W75942  16.350   1.609  10.844 -0.0258 -0.1579  0.0972
  955W        W75943  21.515  16.795  20.039 -0.1905 -0.2145  0.4133
  956W        W75944  14.323   7.830   4.046 -0.2610 -0.1216 -0.0205
  957W        W75945   7.373  25.052  23.993  0.3039 -0.0089  0.1386
  958W        W75946   9.595  27.339  12.707 -0.1508 -0.0526 -0.2135
  959W        W75947  15.917   9.843   0.271 -0.1382  0.0067 -0.1306
  960W        W75948  17.709  20.961  11.515 -0.3353 -0.0569 -0.3137
  961W        W75949  14.476  16.180  21.690 -0.1134 -0.1398  0.0169
  962W        W75950  28.224   5.714  21.356  0.0305 -0.1392 -0.3476
  963W        W75951  21.098  19.775  20.656 -0.1025 -0.3512  0.1557
  964W        W75952  26.961  15.596  12.664 -0.0374 -0.0670  0.0906
  965W        W75953  14.591  30.824   6.730 -0.3575 -0.0697 -0.3942
  966W        W75954   1.414  19.688  22.582  0.0592  0.0671  0.3038
  967W        W75955  31.226   7.394  15.043 -0.1332  0.1153 -0.0052
  968W        W75956  30.614  19.172  12.026  0.0255  0.3858 -0.1689
  969W        W75957   7.776   5.360  11.031 -0.0981  0.0986 -0.1010
  970W        W75958   4.142  28.203  26.072  0.1740 -0.1134 -0.0872
  971W        W75959  28.860  21.521  19.549  0.0356  0.2613  0.2120
  972W        W75960  18.314  23.728  24.011  0.1523  0.1626  0.0217
  973W        W75961  31.531  22.927   8.828 -0.2899 -0.1694  0.1317
  974W        W75962  17.679  26.194  25.263  0.4471 -0.0819  0.0793
  975W        W75963   3.960  26.164   2.810  0.2090 -0.3229  0.1878
  976W        W75964  31.871  11.358  10.630 -0.1628 -0.0482  0.0904
  977W        W75965  13.081   5.103  21.120 -0.4285 -0.0639 -0.2423
  978W        W75966  10.006  15.205   4.255  0.2903  0.1293 -0.0337
  979W        W75967   1.845   6.060   4.833  0.1224 -0.0952 -0.2901
  980W        W75968  31.589   3.141  19.574  0.3225 -0.0442  0.2864
  981W        W75969  18.235  10.327   9.092 -0.0356  0.1438 -0.1165
  982W        W75970  31.729  19.509  20.149 -0.0760  0.1267  0.0817
  983W        W75971  19.077  20.605  20.455  0.1992  0.3645  0.1102
  984W        W75972   9.114   2.449   3.766 -0.0473 -0.4872  0.1533
  985W        W75973   7.032  16.927   0.747  0.4505  0.4241 -0.0099
  986W        W75974   4.605  30.363  12.980 -0.1305 -0.0187 -0.0575
  987W        W75975  26.035  28.379  12.092 -0.0547 -0.0335  0.3061
  988W        W75976  30.872   6.347  11.406 -0.0884 -0.0293  0.1495
  989W        W75977  21.481   1.806  20.804  0.0610 -0.0401 -0.1343
  990W        W75978  27.204  30.804   1.402 -0.2967 -0.2219 -0.0433
  991W        W75979  30.402  16.571  18.407  0.1300 -0.0903  0.1888
  992W        W75980  33.290   3.041   3.714  0.1058  0.0619 -0.1727
  993W        W75981  17.532  17.048   0.224  0.1415  0.1834 -0.0207
  994W        W75982   1.635  11.271  22.203 -0.1042 -0.0822  0.3689
  995W        W75983   8.481  11.372  22.477 -0.1212  0.0294 -0.0168
  996W        W75984  28.810  14.324   7.126  0.2189  0.0128 -0.1808
  997W        W75985  20.727  10.827   5.709 -0.1743  0.1417  0.2031
  998W        W75986   2.935   5.144  19.256 -0.3538  0.1492 -0.0282
  999W        W75987  22.204   1.313  22.236 -0.0705  0.0221  0.1359
 1000W        W75988  10.576  16.473   2.031  0.0660 -0.0161 -0.0735
 1001W        W75989  22.766  35.385   0.507  0.3058  0.1296  0.2531
 1002W        W75990  22.816  16.212   1.780 -0.0587  0.0727 -0.2603
 1003W        W75991  18.619  17.244   0.042  0.2781  0.0174  0.3491
 1004W        W75992  19.429  17.078  25.037  0.1262  0.0357 -0.0540
 1005W        W75993   6.434  28.817   8.116  0.1178 -0.1402 -0.0438
 1006W        W75994   9.014  33.026  25.989  0.3574  0.1061  0.2061
 1007W        W75995  32.496  20.069  24.969 -0.1815 -0.1944 -0.0679
 1008W        W75996   4.296   7.032   6.221  0.2154  0.1557  0.0319
 1009W        W75997  28.062  25.692  13.104  0.0871 -0.3436 -0.3499
 1010W        W75998  28.005   8.298  24.827 -0.0440  0.1263 -0.1137
 1011W        W75999  27.341  34.597  25.434 -0.1670  0.2633 -0.1995
 1012W        W76000   7.947   6.389   2.826 -0.3440  0.0512 -0.0041
 1013W        W76001  22.001  19.009  21.028  0.0593 -0.0093  0.0509
 1014W        W76002  21.658   0.138  20.990  0.1982  0.1510  0.4888
 1015W        W76003  21.703  32.995  20.817 -0.1421 -0.2388  0.0544
 1016W        W76004  26.069  20.851  13.310  0.0283  0.0625  0.0505
 1017W        W76005  18.176  24.305   9.182 -0.0790  0.2982 -0.0869
 1018W        W76006  34.323  31.830  16.097 -0.2502  0.2746 -0.3765
 1019W        W76007  24.361  27.363   1.734  0.2030  0.3366  0.1004
 1020W        W76008   2.145  34.608   1.342 -0.0158 -0.1620  0.0575
 1021W        W76009  32.533  22.323  23.930 -0.0269 -0.0701  0.3597
 1022W        W76010  16.861  10.930  21.687 -0.1676  0.3428 -0.0731
 1023W        W76011  20.326  12.526  18.175 -0.0642 -0.0461  0.1777
 1024W        W76012   4.964  28.944  14.448  0.0348  0.1413 -0.0837
 1025W        W76013  14.598  28.127   8.928 -0.1346  0.2651  0.0569
 1026W        W76014  12.937  17.153   3.983  0.1744 -0.0688  0.0692
 1027W        W76015  20.366   8.606   6.681 -0.1320  0.0297 -0.0048
 1028W        W76016   3.349  13.865  16.111  0.0513 -0.1933  0.0827
 1029W        W76017  26.261  12.329  19.576 -0.0985  0.1357  0.2232
 1030W        W76018   1.385   3.719  15.912  0.1448  0.1531  0.1529
 1031W        W76019  17.287   7.891  11.642  0.0766  0.0808  0.0651
 1032W        W76020  25.967   6.133  16.783  0.0525  0.1996 -0.2119
 1033W        W76021  29.242  32.830  19.131 -0.1662 -0.3883  0.1510
 1034W        W76022  12.408  24.334  24.685  0.1164  0.0169  0.1905
 1035W        W76023  29.854   6.699  20.609 -0.3931 -0.2685  0.1581
 1036W        W76024  27.638  30.927  12.871  0.2295  0.2264  0.1418
 1037W        W76025  14.095   5.688   9.040 -0.0230 -0.1833 -0.1320
 1038W        W76026  32.915  21.345  25.464  0.1290 -0.0034  0.1963
 1039W        W76027  18.854  15.218  23.295  0.0721 -0.0582  0.0753
 1040W        W76028  30.447  18.647  11.945 -0.1641 -0.1588  0.0818
 1041W        W76029   4.550   3.548  10.250  0.2375 -0.1266 -0.3913
 1042W        W76030  10.006  29.554   4.107 -0.1857 -0.0806  0.0542
 1043W        W76031  27.980   1.130  16.484  0.0736 -0.0796 -0.1534
 1044W        W76032   6.450   1.385  20.351 -0.1541  0.2610  0.4473
 1045W        W76033   4.840  24.352  22.689  0.1721  0.1775  0.1580
 1046W        W76034   2.739  29.123   7.706  0.1262 -0.0434  0.3260
 1047W        W76035   4.904  15.976   1.038 -0.1898  0.2101 -0.1240
 1048W        W76036  26.545  12.144   7.172 -0.0907 -0.2294  0.0120
 1049W        W76037   6.035  19.259   7.200 -0.4040 -0.6546 -0.0998
 1050W        W76038   9.973  32.975  24.690 -0.1328 -0.1661 -0.1590
 1051W        W76039  17.840  20.896   8.021 -0.3065 -0.1379 -0.0471
 1052W        W76040  15.889  11.469   4.475 -0.1961 -0.1334 -0.0868
 1053W        W76041  32.016  22.631   8.638 -0.0902 -0.1235  0.1886
 1054W        W76042  10.900   2.320  12.336  0.1223  0.2992 -0.0600
 1055W        W76043  24.343  11.023  22.183 -0.0463  0.1279  0.0363
 1056W        W76044  15.032   8.214   8.577  0.1547 -0.1454  0.1635
 1057W        W76045  15.309  24.511  15.969 -0.1277 -0.1562  0.0404
 1058W        W76046   8.084  15.230   9.357 -0.0711 -0.0380  0.1570
 1059W        W76047  12.659   4.666  24.828 -0.0111  0.0911  0.0863
 1060W        W76048  21.615  16.980  23.281 -0.3686 -0.1603  0.0849
 1061W        W76049  24.372  12.865  13.084 -0.3247 -0.2331 -0.0435
 1062W        W76050  18.752   3.530   0.927 -0.0296  0.1893 -0.1542
 1063W        W76051  21.059  18.562  19.793 -0.0679  0.1838 -0.3797
 1064W        W76052  25.810  23.167   1.151 -0.0480 -0.0312 -0.0308
 1065W        W76053  28.476  22.547  21.848  0.0280 -0.0933 -0.3543
 1066W        W76054  20.357  24.292   2.894 -0.0582  0.0734  0.0148
 1067W        W76055   2.658   0.740  26.163 -0.0700  0.1613 -0.2393
 1068W        W76056  31.498  29.002  17.704  0.0725  0.1532 -0.0913
 1069W        W76057  35.325  21.179  13.404 -0.0851  0.0906 -0.1959
 1070W        W76058  21.274  18.371   2.269  0.0156 -0.3086  0.0070
 1071W        W76059   8.899   1.593  11.107  0.1722  0.1475 -0.2118
 1072W        W76060   1.588  15.303  19.265 -0.0528 -0.4125  0.0295
 1073W        W76061  25.936  17.555   9.456  0.1354  0.0612  0.0333
 1074W        W76062  18.365  12.402   8.030 -0.1562 -0.3979 -0.1304
 1075W        W76063  15.288  33.200   4.434 -0.1815  0.2507 -0.3886
 1076W        W76064  32.487  27.039   2.999 -0.2000 -0.3424  0.1692
 1077W        W76065  13.615   5.776   9.080  0.2184 -0.0941  0.0783
 1078W        W76066  12.199   5.410  19.494  0.0023  0.0970 -0.1606
 1079W        W76067   6.421  14.765  24.674  0.1629  0.0553 -0.1521
 1080W        W76068  27.029   2.678  16.858 -0.1637  0.2167 -0.2228
 1081W        W76069  19.961  31.422   6.899  0.1599  0.2358 -0.2625
 1082W        W76070  22.382  11.183   0.146  0.0044 -0.1974 -0.3078
 1083W        W76071   4.819  30.863  22.866  0.0230  0.2002  0.1084
 1084W        W76072  20.400   8.839  19.049 -0.0269  0.2659  0.0899
 1085W        W76073   0.001  22.067  25.952  0.2497  0.0273 -0.0354
 1086W        W76074  20.113  10.139  22.071 -0.1444 -0.2413 -0.1355
 1087W        W76075  14.724  13.961   3.809 -0.0462 -0.0759  0.1020
 1088W        W76076  35.229  14.974  19.069  0.2027 -0.1405 -0.0187
 1089W        W76077   7.949  33.821   0.365  0.0268  0.1341  0.0195
 1090W        W76078   1.465  33.121  25.355  0.1088 -0.2591 -0.0348
 1091W        W76079  27.176   7.838  16.969 -0.0603  0.1411  0.0878
 1092W        W76080  12.240  32.417   7.611 -0.3544 -0.0345 -0.2071
 1093W        W76081  28.689   3.098  21.282 -0.0934 -0.5182  0.0427
 1094W        W76082  16.411  13.671  13.337  0.1057  0.1055  0.0127
 1095W        W76083   9.920  32.393   3.728  0.0854 -0.1960 -0.0843
 1096W        W76084  16.526   3.939  19.637  0.1067  0.2250 -0.2643
 1097W        W76085  30.746  14.459  18.171  0.0305  0.1041 -0.1100
 1098W        W76086   0.884  34.675   7.446  0.0497 -0.0741  0.0344
 1099W        W76087  24.262  20.060  20.426 -0.0827 -0.1912 -0.4476
 1100W        W76088  19.105  15.433   2.391  0.3387  0.1863 -0.1160
 1101W        W76089   0.980   9.573  21.387  0.0995  0.2486 -0.2163
 1102W        W76090   8.426  21.712   7.265 -0.0832 -0.1423 -0.0943
 1103W        W76091  31.941  31.817  22.082 -0.0106  0.0676 -0.2167
 1104W        W76092  29.280  32.968  23.669  0.2324 -0.0161  0.1278
 1105W        W76093  34.293  25.302  17.522  0.3343 -0.1283  0.1993
 1106W        W76094   7.087  18.368  21.893  0.3219 -0.2312  0.1384
 1107W        W76095   4.568   3.572  25.275 -0.0906  0.2461 -0.2941
 1108W        W76096  23.294   0.220  25.517 -0.2190  0.0449  0.0892
 1109W        W76097  26.056  18.248  20.179  0.0955  0.0253 -0.0737
 1110W        W76098  24.825   6.828   1.210 -0.2269  0.0392  0.0768
 1111W        W76099   5.590  24.139  19.727  0.3450 -0.2448  0.4152
 1112W        W76100   1.809   0.079  18.200  0.2535 -0.0683 -0.1972
 1113W        W76101  31.052   5.948  23.286 -0.1557  0.1270 -0.0315
 1114W        W76102   8.197   1.124  10.920 -0.2879  0.0364  0.3178
 1115W        W76103   8.805   6.624  10.609 -0.1758  0.0875  0.3206
 1116W        W76104  27.349  17.214  10.496 -0.0447 -0.0929 -0.1772
 1117W        W76105  17.572   0.510  22.626 -0.0100  0.1231 -0.2116
 1118W        W76106   3.317  26.443  21.946 -0.0513 -0.0821 -0.1458
 1119W        W76107  12.688   1.089   6.007 -0.0770 -0.0875  0.1381
 1120W        W76108  25.786   8.384  13.259  0.0970  0.0113 -0.2089
 1121W        W76109  16.179  14.765   0.084  0.0254  0.0860 -0.0191
 1122W        W76110  13.763  34.612  10.130 -0.1092  0.1153 -0.1715
 1123W        W76111  29.061   0.779   2.364 -0.3118 -0.0446  0.2241
 1124W        W76112   7.120  16.608  18.482 -0.1640  0.2754  0.0718
 1125W        W76113  20.364   4.233  21.676  0.0434  0.0615  0.1270
 1126W        W76114  22.024   1.219   3.153 -0.1421 -0.4524 -0.2462
 1127W        W76115  22.798   4.526  21.011  0.0659  0.1080  0.0621
 1128W        W76116  14.114  21.269  12.514  0.2654 -0.1178  0.0208
 1129W        W76117  26.654  34.920  16.962 -0.3844 -0.1966  0.0853
 1130W        W76118  12.188  10.392   2.979  0.0766  0.0788 -0.3089
 1131W        W76119  28.202   4.925  22.309 -0.0120  0.3508 -0.1123
 1132W        W76120  25.884  23.151  25.143 -0.0015  0.3330 -0.1638
 1133W        W76121  34.211   5.100  23.241 -0.0411  0.1138 -0.1188
 1134W        W76122  14.745  33.087   5.503 -0.0609  0.3586 -0.3664
 1135W        W76123  23.757   2.967   4.419 -0.0861  0.2254 -0.0253
 1136W        W76124  12.806   7.223   7.647 -0.4114 -0.1114 -0.1582
 1137W        W76125  22.256  32.277  20.828 -0.1443 -0.2897 -0.0315
 1138W        W76126  28.000  33.217  20.558 -0.1946 -0.0413  0.0530
 1139W        W76127  33.211  30.642  18.093 -0.0208  0.3826  0.0469
 1140W        W76128  26.059   2.381   4.396  0.0447 -0.1189  0.0033
 1141W        W76129   0.801  17.091  12.337  0.1253 -0.0971  0.1837
 1142W        W76130  18.202  27.451  19.917 -0.1096  0.4003  0.4885
 1143W        W76131  27.877  23.942   9.577  0.0081  0.4966 -0.2160
 1144W        W76132  34.465   2.101  17.463 -0.1149  0.2779  0.0744
 1145W        W76133  29.610  24.285  22.999 -0.2445 -0.3117 -0.0381
 1146W        W76134  11.683   8.469   1.042 -0.0108 -0.1751  0.0352
 1147W        W76135  21.254  18.903  24.900  0.1076 -0.1386  0.0913
 1148W        W76136  29.827  33.105  24.181 -0.2074  0.1714 -0.1495
 1149W        W76137  12.878  31.956  14.135 -0.2272 -0.1119 -0.1177
 1150W        W76138  29.361   7.891  18.702 -0.3080 -0.1129 -0.0243
 1151W        W76139  23.198  33.632   5.968 -0.1197  0.0032 -0.0886
 1152W        W76140  28.404  15.847  20.500 -0.1765  0.1691  0.1033
 1153W        W76141  31.069  35.057  15.992 -0.0567  0.3874  0.1624
 1154W        W76142   2.024  29.052  20.607 -0.2774  0.1282  0.0603
 1155W        W76143  17.463  17.862   1.586 -0.0522 -0.2234 -0.0654
 1156W        W76144  25.608   1.065   4.226 -0.1728  0.2033 -0.0621
 1157W        W76145  32.882  21.280  10.461  0.0778 -0.2521 -0.0759
 1158W        W76146   8.420  27.222   8.172  0.3860  0.0554 -0.0650
 1159W        W76147   3.345  33.211  10.282  0.0500 -0.1020  0.2949
 1160W        W76148  16.237  34.179   0.158  0.1228 -0.2014  0.1227
 1161W        W76149  11.940  16.037  21.255 -0.1213 -0.0761 -0.2340
 1162W        W76150   9.352  12.382   2.256  0.0074  0.1711  0.2407
 1163W        W76151  13.417  28.521  16.378  0.3029 -0.0692 -0.5825
 1164W        W76152  19.883   5.515  18.153  0.0417 -0.1073  0.1329
 1165W        W76153   9.756  16.648  20.616  0.2981 -0.1626 -0.0439
 1166W        W76154  11.130  12.815   2.869 -0.1510  0.0065  0.3763
 1167W        W76155  17.886  16.072  22.997  0.1467 -0.2783 -0.1686
 1168W        W76156  10.474  13.243  12.068  0.0660  0.0529  0.1516
 1169W        W76157  21.496   1.191  18.688  0.0693  0.1311 -0.3616
 1170W        W76158  11.837  31.531   0.660  0.1235  0.2600 -0.0231
 1171W        W76159   0.989   0.747  17.059 -0.2404  0.1803 -0.1427
 1172W        W76160  31.161  22.130  14.757 -0.2043  0.2406 -0.0499
 1173W        W76161  16.501  14.994   5.327 -0.0146 -0.0923  0.0093
 1174W        W76162   1.502  34.496  23.229 -0.2212 -0.1768 -0.1632
 1175W        W76163   3.286  13.727   5.465  0.2894  0.0456 -0.0725
 1176W        W76164  29.409   8.357  24.748 -0.0971 -0.1227  0.3969
 1177W        W76165  30.117   5.255  16.744  0.1542 -0.1464  0.1511
 1178W        W76166   6.790   3.963   1.091 -0.0848 -0.0536 -0.3017
 1179W        W76167  14.958  15.528  12.686  0.1099 -0.0481 -0.0310
 1180W        W76168  28.339  13.685  10.933  0.2514  0.0417 -0.0161
 1181W        W76169  22.438  18.982  20.842 -0.1295  0.0808  0.0597
 1182W        W76170  25.332  10.959  25.636 -0.0871 -0.1984  0.3078
 1183W        W76171  16.597  34.430   6.432  0.0673 -0.5025 -0.0065
 1184W        W76172  12.292   5.002   5.234  0.0566  0.0882  0.2964
 1185W        W76173  20.257  35.097  18.760  0.1396 -0.0644 -0.3914
 1186W        W76174   0.270  18.680  14.628  0.0489 -0.1560  0.2390
 1187W        W76175  33.425  17.997  10.341 -0.0248 -0.3074  0.2191
 1188W        W76176  24.961  22.252  22.129 -0.1716  0.3211  0.1896
 1189W        W76177  17.936  32.283  21.555 -0.0290  0.1724  0.3411
 1190W        W76178  14.708  26.175   6.396  0.3076 -0.2394 -0.2173
 1191W        W76179   3.167  34.970  20.045 -0.1720  0.0491  0.1185
 1192W        W76180  10.113   4.877  19.107 -0.2034 -0.0927  0.2309
 1193W        W76181  23.433  21.523  19.940  0.1528 -0.2733 -0.0368
 1194W        W76182  16.555  34.958   7.309  0.1696  0.2334  0.1537
 1195W        W76183  10.826  27.781   4.185 -0.2619  0.1979  0.2444
 1196W        W76184  34.137   6.739  13.450 -0.1698 -0.0415 -0.0819
 1197W        W76185   4.421  20.018   2.636 -0.1776  0.0932 -0.3690
 1198W        W76186  30.411  32.468  25.856 -0.3358 -0.0501  0.0017
 1199W        W76187   5.759  19.345   5.899 -0.0818  0.3038  0.0886
 1200W        W76188  21.223  33.627  18.271 -0.0341 -0.2346  0.2066
 1201W        W76189   1.610   8.636  26.007 -0.1471  0.1592 -0.0501
 1202W        W76190  25.533   7.985  15.606  0.2904  0.2280  0.3193
 1203W        W76191  32.027  27.954  15.326  0.1678 -0.0457  0.1798
 1204W        W76192   9.802   3.354   7.167  0.0112 -0.2590 -0.1577
 1205W        W76193  13.652  24.440  23.380  0.0685  0.0652  0.0874
 1206W        W76194   4.399  25.786   4.381 -0.1697 -0.2449 -0.3037
 1207W        W76195   0.541  18.746  23.940 -0.1391  0.0242  0.0594
 1208W        W76196   6.880  33.306  22.539  0.4005  0.0244 -0.0319
 1209W        W76197  21.056  30.274   6.270 -0.1055  0.3715  0.2165
 1210W        W76198  14.044   7.718   8.004  0.0433 -0.2372  0.1053
 1211W        W76199  32.037  13.177   8.331 -0.0725 -0.1869  0.2090
 1212W        W76200  10.286   1.663   5.911  0.0423 -0.1917 -0.0268
 1213W        W76201  11.068  28.571  24.441 -0.0089 -0.0020 -0.1138
 1214W        W76202  26.248  12.920  19.711  0.0673  0.0690  0.1444
 1215W        W76203  22.282  22.042  25.718 -0.0067 -0.1653  0.2761
 1216W        W76204   8.985  17.512   3.444  0.0377  0.0836 -0.0620
 1217W        W76205  29.747  11.179  10.355  0.2333 -0.0778 -0.1399
 1218W        W76206  32.665   4.649  13.394 -0.0645 -0.1018 -0.2528
 1219W        W76207   2.714   8.817   6.303  0.0852  0.1948 -0.1258
 1220W        W76208  18.669  12.823   5.992  0.1210 -0.2046 -0.2961
 1221W        W76209  30.194  21.947  23.914  0.1609  0.0434 -0.0061
 1222W        W76210  28.207  20.464  22.294 -0.0713 -0.1181  0.2564
 1223W        W76211  24.943  19.791  15.998  0.0574  0.0200  0.1249
 1224W        W76212  27.113   4.161  17.249 -0.0222  0.0169 -0.1756
 1225W        W76213  15.200   0.820  18.861 -0.1336  0.3511 -0.1245
 1226W        W76214   1.915  19.638  13.440 -0.1034 -0.0735  0.2673
 1227W        W76215  20.163   2.085  16.639  0.2093 -0.1813  0.1744
 1228W        W76216   2.557   2.282  22.036  0.2640 -0.1146 -0.1943
 1229W        W76217  22.624  26.005   4.574  0.3006 -0.0459 -0.0181
 1230W        W76218  12.755  24.801   7.064 -0.1288  0.0208 -0.0176
 1231W        W76219   3.507  26.692   6.160 -0.2247  0.0869  0.0846
 1232W        W76220   2.486  19.470  21.520  0.0917  0.1016 -0.3547
 1233W        W76221   9.418   9.223   1.251  0.1507  0.1596  0.2082
 1234W        W76222   2.881  34.989   3.171 -0.0468 -0.2434 -0.2241
 1235W        W76223  32.616  30.139  23.439  0.2278 -0.1296 -0.2069
 1236W        W76224  14.832  21.724  13.966  0.0037  0.1259  0.1662
 1237W        W76225  14.905  23.865  25.686 -0.2746  0.0629 -0.1239
 1238W        W76226   1.072  33.067  22.598 -0.0991  0.1486 -0.1061
 1239W        W76227  23.269  26.482  24.676 -0.1449 -0.0164 -0.3260
 1240W        W76228  34.857   9.462  15.170  0.2397 -0.3264  0.1922
 1241W        W76229   6.345  28.400   2.704 -0.1518 -0.2844  0.5140
 1242W        W76230  20.184  31.966   4.468  0.2999  0.2109  0.0862
 1243W        W76231  10.895  12.109   3.985 -0.2585  0.1467  0.0718
 1244W        W76232   8.194  26.031  12.272  0.0235  0.2104  0.1843
 1245W        W76233  33.120   3.286   1.245 -0.0225 -0.0722  0.2250
 1246W        W76234   6.563  23.426   8.379 -0.1256  0.1200 -0.1363
 1247W        W76235  29.609  25.088  12.650  0.0913 -0.3082 -0.0430
 1248W        W76236  26.658  27.352  13.583 -0.1400  0.1544  0.0519
 1249W        W76237  12.479  10.064  13.130  0.1464 -0.2108  0.2022
 1250W        W76238  32.377   5.961  23.464  0.1666 -0.0790 -0.0089
 1251W        W76239  28.946   5.487  13.168 -0.0424  0.0834  0.2504
 1252W        W76240   5.108  29.881   0.179  0.0730  0.2160 -0.1461
 1253W        W76241  17.142   1.126   4.997  0.0254 -0.3067 -0.0334
 1254W        W76242  17.553  33.524   6.035 -0.1005  0.1282 -0.0575
 1255W        W76243   6.199  31.967  10.693  0.0395 -0.4494  0.1683
 1256W        W76244  32.822   0.899   1.018  0.2358  0.1862 -0.3758
 1257W        W76245   1.062   1.849   8.148 -0.2573 -0.0768  0.3439
 1258W        W76246  32.695  22.460   9.006  0.1431 -0.2088 -0.0799
 1259W        W76247  28.250  31.213  22.619  0.2048 -0.2689 -0.1958
 1260W        W76248  30.270  23.014  25.876  0.0495  0.3585  0.1078
 1261W        W76249   0.592  33.418   6.413  0.2605  0.1062  0.1410
 1262W        W76250  27.652   3.509  18.330 -0.1139  0.3111 -0.1690
 1263W        W76251  32.366  33.117   0.971  0.0893  0.0231  0.0148
 1264W        W76252   7.478  22.070  12.524  0.2830  0.0736 -0.2931
 1265W        W76253  12.604   3.163   0.835  0.1751 -0.1642  0.0441
 1266W        W76254  19.837  35.298  16.211 -0.0113 -0.1832 -0.1344
 1267W        W76255  29.456  15.149  12.844 -0.1067  0.0104  0.1509
 1268W        W76256   4.542   6.380   1.869  0.2545  0.0223  0.0719
 1269W        W76257   0.670   8.829   0.857  0.1592  0.0270 -0.0864
 1270W        W76258  15.074  10.985  12.614 -0.1455  0.1275 -0.2730
 1271W        W76259   8.798   8.851   3.798 -0.2636  0.0011 -0.0186
 1272W        W76260  27.755  17.868  13.417 -0.2589  0.1004  0.2675
 1273W        W76261   3.838   8.043   4.828 -0.0499  0.1147 -0.0299
 1274W        W76262  32.398  33.458  14.270  0.0426 -0.2207  0.0283
 1275W        W76263  19.811  32.243  16.699 -0.2757  0.1405 -0.0368
 1276W        W76264  30.734  26.553  14.037 -0.0067 -0.0298 -0.0121
 1277W        W76265  24.430   2.658  22.708 -0.1272 -0.0868  0.0004
 1278W        W76266  34.830  22.797  12.725  0.1389 -0.1485 -0.0956
 1279W        W76267  12.484  34.181   3.135  0.1302 -0.3774 -0.0340
 1280W        W76268  32.759  21.636   7.070 -0.0091  0.0087 -0.2047
 1281W        W76269  16.264  23.516  10.664 -0.1813  0.0455 -0.0223
 1282W        W76270  23.821   1.070  19.006 -0.0574 -0.0364  0.2175
 1283W        W76271  30.185  17.299  19.486 -0.0059 -0.0247  0.3948
 1284W        W76272   3.670  22.677   0.794 -0.0833 -0.3182  0.4920
 1285W        W76273  21.998  26.246  23.793 -0.1081 -0.0818 -0.0176
 1286W        W76274  31.374  20.425  24.759 -0.0426 -0.1281 -0.2515
 1287W        W76275  26.412  21.615  16.014 -0.1779 -0.0348 -0.1135
 1288W        W76276  12.234   5.535  24.569  0.0746 -0.3172  0.3127
 1289W        W76277   7.772  17.765  25.880  0.0886  0.0392  0.2043
 1290W        W76278   7.539  32.629   6.503 -0.1419 -0.1916 -0.3156
 1291W        W76279  20.663  11.314   5.641  0.4518  0.0164  0.0707
 1292W        W76280  31.285  19.983  21.449  0.0026  0.1630 -0.0965
 1293W        W76281  10.074  26.725   8.443  0.1660 -0.1496  0.2029
 1294W        W76282  22.065  11.170  18.673  0.0959  0.1343 -0.3236
 1295W        W76283   9.382  15.542  25.885 -0.2239 -0.0419  0.0763
 1296W        W76284  16.995  30.074   5.365  0.4912  0.1176 -0.0490
 1297W        W76285  21.816  18.307  22.845  0.2162  0.0719  0.0149
 1298W        W76286  28.936  27.086  18.272  0.1563 -0.0749  0.3103
 1299W        W76287  20.229  11.227   9.251  0.3258 -0.3723  0.0073
 1300W        W76288  16.275  22.150   8.287 -0.1730  0.0126  0.1086
 1301W        W76289  13.135  22.971   4.550 -0.2896  0.0922  0.0716
 1302W        W76290   9.094  13.758   4.217  0.0791  0.2627 -0.3019
 1303W        W76291   6.306  11.030  17.201 -0.0914 -0.2088  0.0165
 1304W        W76292  12.011   6.090   5.074 -0.0389  0.0932  0.0412
 1305W        W76293  19.275  13.969  25.907 -0.3150 -0.1519  0.3305
 1306W        W76294   9.898   8.004   6.982  0.2597 -0.3920 -0.4695
 1307W        W76295  24.446  19.095   0.659 -0.0985 -0.2455 -0.1655
 1308W        W76296   0.876  28.535   0.393 -0.0438  0.1674 -0.1407
 1309W        W76297   7.474   6.838   6.930 -0.1414 -0.0703  0.0942
 1310W        W76298  27.230   9.898  15.995  0.2794  0.1128  0.1136
 1311W        W76299  11.090   2.725  21.792  0.2376 -0.1099 -0.1002
 1312W        W76300  27.823  22.059  24.241 -0.0062 -0.2523  0.2041
 1313W        W76301  11.043  26.281   4.583 -0.1891 -0.2028  0.0040
 1314W        W76302   6.461  23.528   5.875 -0.0066  0.3050  0.2498
 1315W        W76303  35.332   6.519  18.379 -0.0797 -0.0006 -0.1932
 1316W        W76304  17.769   8.668   6.213 -0.1758  0.1408  0.1476
 1317W        W76305  10.321  15.099  13.851  0.2188 -0.0562 -0.2473
 1318W        W76306  18.743  15.970   0.693 -0.4235 -0.4335  0.1721
 1319W        W76307  15.572   1.442  20.748  0.3633  0.0727 -0.2940
 1320W        W76308  21.599  29.204   5.038 -0.0915 -0.0568 -0.0140
 1321W        W76309   9.710  14.720  25.327 -0.0401  0.0441 -0.1974
 1322W        W76310  28.124  17.831  19.404 -0.1365  0.0794 -0.1388
 1323W        W76311  10.506  26.126  24.282  0.0312 -0.1177  0.1895
 1324W        W76312   4.066   0.570  21.207  0.0392 -0.3001 -0.0620
 1325W        W76313  21.594  22.775   1.256 -0.2169  0.2183 -0.0864
 1326W        W76314   1.384  34.373   5.795 -0.3813 -0.0481 -0.0418
 1327W        W76315  24.498  34.308  21.253 -0.0130  0.2255 -0.1658
 1328W        W76316  31.734   3.320  17.435  0.2104  0.2119 -0.0252
 1329W        W76317   7.594  14.890  24.422  0.0947  0.1214 -0.1456
 1330W        W76318  13.433  29.765  12.555 -0.1956 -0.1479 -0.0818
 1331W        W76319  10.173   9.136   9.628  0.2238  0.0441 -0.0175
 1332W        W76320  11.438  29.745   0.388  0.2628  0.1971 -0.2737
 1333W        W76321  13.458  27.295  13.259 -0.0996  0.0639  0.0694
 1334W        W76322   9.925  27.981   6.659 -0.2570  0.0108 -0.1251
 1335W        W76323   7.758  11.803  22.342 -0.1221  0.1725 -0.0629
 1336W        W76324   1.184  10.317  25.661 -0.0946  0.3593  0.1129
 1337W        W76325  16.005   7.285  25.930  0.0743 -0.2218 -0.0075
 1338W        W76326  17.380  30.924  20.074  0.2290  0.1081  0.0521
 1339W        W76327  11.346  26.548   2.568 -0.1466  0.0218 -0.1407
 1340W        W76328   8.691  30.178  12.410  0.0351 -0.0280 -0.1000
 1341W        W76329  19.000  30.122  24.657 -0.0171  0.1870 -0.1240
 1342W        W76330  16.134  29.192   9.792 -0.0813  0.2020 -0.0238
 1343W        W76331   9.255   0.772  14.447 -0.0503  0.0388 -0.0004
 1344W        W76332  12.008  27.323   3.206  0.2034 -0.0161 -0.1686
 1345W        W76333  18.191  16.033   3.065  0.3733 -0.4866 -0.4577
 1346W        W76334   8.644  18.554  14.477 -0.0133 -0.3248  0.0930
 1347W        W76335  18.939   9.675   7.354  0.1574 -0.0525  0.0889
 1348W        W76336  29.665   4.054  14.480 -0.2046 -0.0746 -0.0034
 1349W        W76337   5.556  16.552  25.590  0.0373  0.1782 -0.2252
 1350W        W76338   4.495  25.566  25.023 -0.0794  0.4963  0.0963
 1351W        W76339  13.578  15.183   8.166  0.0581  0.1274 -0.2606
 1352W        W76340  14.274  21.243   6.383 -0.0093 -0.0747 -0.0093
 1353W        W76341  29.070  15.028   7.888 -0.0364  0.0884 -0.0957
 1354W        W76342   1.402   4.968   1.404 -0.0890  0.0479 -0.0918
 1355W        W76343   7.870  10.355  25.835 -0.1408  0.0537  0.4276
 1356W        W76344  14.666  32.325   7.530  0.0530  0.1823 -0.2934
 1357W        W76345  24.064  16.206  12.127 -0.0231 -0.1879 -0.2886
 1358W        W76346  33.734   5.699  15.170 -0.2049 -0.1843 -0.2215
 1359W        W76347  13.907  35.217   6.020  0.3755  0.3229  0.1954
 1360W        W76348  27.799  34.523  18.453 -0.1527 -0.1550 -0.0160
 1361W        W76349  22.052  15.772   1.199 -0.0832  0.1449  0.3650
 1362W        W76350  34.671   4.982  26.148  0.2543  0.2132 -0.4851
 1363W        W76351   8.257   1.596  20.629 -0.0444  0.1193 -0.2999
 1364W        W76352  12.087   1.925  20.045  0.0799  0.1189 -0.1201
 1365W        W76353  20.709  20.310  23.588 -0.0242  0.0220  0.1788
 1366W        W76354  34.565  13.877  21.644 -0.1047  0.1786 -0.0416
 1367W        W76355  15.829  35.126   0.294 -0.2164 -0.0137  0.0639
 1368W        W76356  15.126   9.841  26.065  0.1871  0.2184  0.0653
 1369W        W76357  13.991   3.417  11.871 -0.0484  0.0678  0.3123
 1370W        W76358  27.801  28.059   1.960 -0.0012  0.1267 -0.1376
 1371W        W76359   1.203  16.368  17.748 -0.1098  0.1411 -0.0917
 1372W        W76360  16.161  35.196  24.348  0.2237 -0.1390  0.3959
 1373W        W76361  17.605  34.492   8.364  0.1723 -0.1023 -0.1589
 1374W        W76362  30.032   0.919  14.455  0.0800 -0.0414  0.1439
 1375W        W76363  17.635  27.103   8.699  0.0365 -0.2545 -0.0493
 1376W        W76364   9.824   6.933   7.325 -0.2646 -0.0839  0.1094
 1377W        W76365   8.509  24.771   2.444 -0.3586  0.1679 -0.0655
 1378W        W76366  12.875  12.512  11.712  0.3118 -0.0315  0.0019
 1379W        W76367  33.232   2.367  17.335 -0.1917  0.1358 -0.1010
 1380W        W76368  21.212   3.031  17.328  0.0434 -0.3324 -0.1660
 1381W        W76369  24.015  31.150  16.033  0.2440  0.3014 -0.1223
 1382W        W76370  32.082  14.389   8.874 -0.0130  0.0907 -0.0059
 1383W        W76371  33.872  28.044  13.655  0.0915  0.2666 -0.0266
 1384W        W76372   3.011  10.372  19.393 -0.0094  0.1809 -0.0918
 1385W        W76373   5.987  17.700  22.702  0.0976  0.1403 -0.1976
 1386W        W76374  25.715  21.929  12.660 -0.0272 -0.0243  0.2657
 1387W        W76375   9.363  33.307  10.589 -0.0414  0.2489 -0.0491
 1388W        W76376   9.773  26.787  11.887 -0.0414 -0.2106 -0.2028
 1389W        W76377  15.305  25.900   4.108  0.0684 -0.2817  0.0814
 1390W        W76378  27.232   1.062  22.282 -0.0043 -0.0029  0.1474
 1391W        W76379  26.971  28.307   3.703  0.0336 -0.1331 -0.3486
 1392W        W76380  13.164   6.877   7.378 -0.0726  0.1043 -0.0031
 1393W        W76381  24.905  19.351  10.640 -0.0066 -0.0602  0.1823
 1394W        W76382   1.466  29.888  17.548  0.0297  0.0624 -0.1642
 1395W        W76383  28.108   2.860  12.117 -0.1828  0.3087 -0.1475
 1396W        W76384   5.767  20.971  19.295  0.0263  0.0558  0.1169
 1397W        W76385   5.132  16.840   7.446 -0.1199  0.1598 -0.0625
 1398W        W76386   5.224  14.585   3.538 -0.3558  0.0073 -0.0195
 1399W        W76387   2.779  14.077  20.959  0.2173 -0.3136  0.0500
 1400W        W76388  31.770  24.468  24.736  0.1086 -0.0264 -0.0345
 1401W        W76389  29.770  34.464  19.128 -0.1134 -0.3159  0.3005
 1402W        W76390  35.179   4.497   5.775  0.2332  0.0026 -0.0441
 1403W        W76391  26.007  11.622   8.501 -0.0805 -0.1511  0.1242
 1404W        W76392   8.784  27.657  14.080 -0.4770 -0.2144 -0.2234
 1405W        W76393  11.639   6.243  24.736 -0.1602 -0.1132 -0.0421
 1406W        W76394  13.273  24.174  10.938 -0.1079  0.0146 -0.3237
 1407W        W76395  26.993  23.670  22.450 -0.2003  0.0371 -0.1313
 1408W        W76396   9.796  32.495  15.464  0.0464 -0.2352 -0.1980
 1409W        W76397  33.445  33.327  19.603  0.1178 -0.1550  0.0811
 1410W        W76398  29.584  29.177  24.722 -0.1238 -0.0430 -0.0050
 1411W        W76399  12.478  29.689  22.532  0.2326  0.0343  0.1551
 1412W        W76400  25.893   1.143  14.987 -0.0372  0.2420 -0.1638
 1413W        W76401  12.612  27.534   1.243 -0.0896  0.0404  0.0338
 1414W        W76402  13.721  31.478  25.572  0.2176 -0.1928  0.1218
 1415W        W76403  27.954  17.585  22.384 -0.0451 -0.1563 -0.0446
 1416W        W76404  24.308  16.950  13.234 -0.1683  0.0886  0.1417
 1417W        W76405  10.314   8.328  26.245  0.0961  0.1809 -0.0332
 1418W        W76406  18.162  30.021   7.400 -0.1328 -0.2451  0.1309
 1419W        W76407   5.155  12.384  22.619 -0.0570  0.3220 -0.0644
 1420W        W76408  13.560   7.716   3.507 -0.3840  0.2320 -0.1275
 1421W        W76409  26.243  22.236  21.702 -0.1730 -0.1843  0.1946
 1422W        W76410  23.801  32.435  14.239 -0.1463  0.0018 -0.2963
 1423W        W76411   8.360  14.855   6.195 -0.1725 -0.0011  0.2142
 1424W        W76412   2.858  30.746   8.446  0.0132 -0.0435  0.3056
 1425W        W76413  13.850  27.494  22.363  0.0615  0.2344 -0.0422
 1426W        W76414  33.810  26.187  23.448  0.1681  0.0900  0.0455
 1427W        W76415  17.954  25.430   4.917 -0.0601  0.0595 -0.0232
 1428W        W76416  18.385   6.653  23.377 -0.1362 -0.0907  0.0869
 1429W        W76417  27.974   7.138  16.002 -0.2151  0.0337 -0.3286
 1430W        W76418  24.287   8.101   3.649  0.0124 -0.1557  0.0245
 1431W        W76419  23.310  19.473  14.768  0.0883  0.3330 -0.1722
 1432W        W76420  16.158  26.394  12.070 -0.1752 -0.0169 -0.0253
 1433W        W76421  11.233  13.364  12.687 -0.0169 -0.0679  0.0729
 1434W        W76422   2.294   6.643   0.535  0.2340 -0.3865  0.1812
 1435W        W76423  28.453  31.551  16.204 -0.0544 -0.2099  0.0640
 1436W        W76424  24.336  30.495  14.372  0.1321 -0.0860 -0.0460
 1437W        W76425   1.622  17.820  23.482 -0.0044  0.2480 -0.2222
 1438W        W76426  31.191  23.911  16.969 -0.2373  0.3128  0.0339
 1439W        W76427  18.508   1.191  19.552 -0.2986 -0.1752 -0.0019
 1440W        W76428  34.012  26.939   0.005 -0.3091 -0.2772  0.1544
 1441W        W76429  32.375   8.495  13.378  0.0333 -0.3717  0.2642
 1442W        W76430  22.461  27.548  14.446  0.0853  0.1298  0.3148
 1443W        W76431   4.782  10.425   5.332 -0.0333 -0.0111 -0.1698
 1444W        W76432  26.411  30.794   4.601 -0.0810  0.1657  0.2649
 1445W        W76433  19.123   7.889   2.258  0.1716 -0.3350  0.0416
 1446W        W76434  21.567  33.450   5.907  0.1358  0.2613  0.1548
 1447W        W76435  10.678   9.427  19.880 -0.3799  0.0701 -0.2517
 1448W        W76436   9.277  14.556   2.438  0.1543 -0.0368  0.0309
 1449W        W76437   7.169  32.418   4.530 -0.1384  0.4032  0.1203
 1450W        W76438   9.328  31.573   8.386 -0.0503  0.2325  0.2660
 1451W        W76439  14.283  27.823  25.727 -0.1662 -0.2491  0.0834
 1452W        W76440   4.734  31.025   3.120  0.0965  0.0461 -0.2038
 1453W        W76441   9.394  27.072   6.172 -0.2115  0.0262 -0.0095
 1454W        W76442   9.054  22.469   7.288 -0.1311  0.1213 -0.0004
 1455W        W76443  35.098  21.405   1.600 -0.0037  0.0181  0.1419
 1456W        W76444   3.511   9.789  17.269  0.1395 -0.0803  0.1710
 1457W        W76445   5.906  34.866  11.291 -0.1824 -0.1628 -0.1276
 1458W        W76446  31.992  24.102  18.031  0.2431 -0.1780  0.0406
 1459W        W76447  32.937  16.655  19.355  0.3490  0.0500 -0.0243
 1460W        W76448  11.680  24.234  12.328 -0.1084 -0.2558  0.1753
 1461W        W76449   3.976  34.528  18.924 -0.3698 -0.1748 -0.0361
 1462W        W76450  33.385  28.060  22.983 -0.2828 -0.3520  0.2039
 1463W        W76451  26.194  19.202  16.187 -0.1719  0.3167 -0.1412
 1464W        W76452  18.787  30.212   3.303  0.1422  0.2185  0.1846
 1465W        W76453  10.580   8.693   3.751 -0.2993 -0.1393 -0.1878
 1466W        W76454  14.227  33.802  22.236  0.2880  0.0166 -0.2097
 1467W        W76455  15.765  28.361   3.038 -0.1087  0.0547 -0.2031
 1468W        W76456  30.537  32.174   4.867  0.2107 -0.2121 -0.0475
 1469W        W76457  12.692   6.183   8.022  0.0724  0.0080 -0.0888
 1470W        W76458  17.506  12.098  18.934 -0.1163  0.0463 -0.3480
 1471W        W76459   5.252  15.854  16.565  0.0198 -0.0406 -0.1182
 1472W        W76460  32.957   0.169  12.541 -0.1224  0.4351  0.0843
 1473W        W76461  27.550   1.989  23.325  0.2799  0.1323  0.0634
 1474W        W76462   0.785  30.458  17.416  0.1760 -0.0730  0.0448
 1475W        W76463   1.472  12.703  15.882 -0.2118 -0.0647 -0.1410
 1476W        W76464  29.037  25.610  17.125 -0.4276  0.0468 -0.0331
 1477W        W76465  28.240  22.641  12.383  0.4813 -0.0491  0.1215
 1478W        W76466   4.136   1.874   0.775  0.1267  0.1305 -0.0482
 1479W        W76467  28.426   5.834  15.413  0.1498 -0.0342 -0.2257
 1480W        W76468  11.387   5.002  23.606 -0.0181 -0.1643  0.4681
 1481W        W76469  14.468  10.657  14.086 -0.3880  0.0320  0.1330
 1482W        W76470  22.591  26.684  22.917 -0.2033  0.1389  0.2929
 1483W        W76471  23.282  34.641  14.402 -0.1561 -0.0280  0.0113
 1484W        W76472  26.054   3.452  16.292  0.1180 -0.0347  0.0699
 1485W        W76473  13.462   1.779   1.782  0.1544  0.0703  0.3407
 1486W        W76474  12.349  31.183   9.260  0.0263  0.0730  0.0943
 1487W        W76475  29.911  11.799  22.533 -0.1084 -0.1902  0.0866
 1488W        W76476  15.512  33.462  21.437  0.2810  0.0903  0.3500
 1489W        W76477   7.772   5.918   9.918 -0.1942  0.2440  0.0502
 1490W        W76478   9.357  14.911   5.679  0.1151  0.2104  0.3725
 1491W        W76479  25.088   0.485   1.093 -0.2534 -0.0388 -0.2244
 1492W        W76480   2.091   5.524  26.076  0.0769 -0.2349  0.3207
 1493W        W76481  32.614  19.128  20.357  0.3094 -0.3271  0.2184
 1494W        W76482  19.552  27.406   4.440 -0.0315  0.0081 -0.0555
 1495W        W76483  10.824  13.406   9.500  0.2693  0.1476 -0.2821
 1496W        W76484  34.885   1.554   1.923 -0.0268 -0.1120 -0.2481
 1497W        W76485  28.463   3.599  19.931 -0.0373  0.2795 -0.0711
 1498W        W76486  12.921  17.749   0.556 -0.0301  0.1745  0.2450
 1499W        W76487  34.578  25.734  17.798  0.0119 -0.0429  0.1357
 1500W        W76488  23.725  33.961  13.457  0.1468  0.1309 -0.0810
 1501W        W76489  11.670   1.675   9.943  0.0375  0.0020  0.0840
 1502W        W76490  27.114  30.546  11.854  0.0733  0.1784  0.0730
 1503W        W76491  19.445   7.353  10.306 -0.1058  0.1260 -0.1016
 1504W        W76492  25.730   6.895   0.231  0.0028 -0.0924  0.0921
 1505W        W76493  13.164  25.470  17.870  0.1130  0.0672  0.0131
 1506W        W76494   7.433  35.237  13.272  0.1445  0.0448  0.0973
 1507W        W76495   5.032  25.299   8.229 -0.0933  0.1419 -0.1820
 1508W        W76496   8.065  11.439  19.927 -0.0659  0.0219  0.1873
 1509W        W76497  33.605  20.148   6.888 -0.1750  0.0772 -0.1487
 1510W        W76498  13.447  28.737  24.479  0.0952 -0.0583 -0.2372
 1511W        W76499  20.584  27.533   2.570 -0.1778 -0.3428 -0.0115
 1512W        W76500  30.542  11.195  11.986  0.2495 -0.0781 -0.0562
 1513W        W76501   6.753   5.103  26.126 -0.0795 -0.1004 -0.1401
 1514W        W76502  13.017  11.971   8.946  0.1869  0.0176 -0.0646
 1515W        W76503  15.589   4.424   4.904  0.0980 -0.0603  0.1022
 1516W        W76504  13.005   6.721  10.284 -0.0990  0.3586  0.1480
 1517W        W76505  34.626   5.289  19.743 -0.2000  0.1534  0.1490
 1518W        W76506  30.467   1.165   0.789 -0.0138 -0.1576 -0.4430
 1519W        W76507  31.008  13.982  11.784 -0.3036 -0.1471  0.2001
 1520W        W76508   6.217  21.666  20.928 -0.1377  0.2433  0.1142
 1521W        W76509  12.036   7.847   0.641  0.0820  0.2174  0.0750
 1522W        W76510  15.401  15.199   4.477  0.0475 -0.0461 -0.1781
 1523W        W76511  13.201  30.928  12.006 -0.1223 -0.4726  0.2894
 1524W        W76512  24.096  16.670  25.706 -0.2647 -0.1181 -0.0567
 1525W        W76513  15.957  12.237   0.730  0.2445 -0.1630 -0.0091
 1526W        W76514  31.027  18.091   7.048 -0.1182 -0.0201  0.0837
 1527W        W76515  11.575  26.233   4.452  0.0790 -0.0835  0.0580
 1528W        W76516   3.956  15.373  23.567  0.2788  0.0073  0.1317
 1529W        W76517  13.498   8.687   3.131 -0.0694 -0.2970 -0.0114
 1530W        W76518  24.865  13.076  16.631 -0.0955 -0.4011  0.3025
 1531W        W76519  15.260  27.234  21.193  0.2497  0.3245  0.0693
 1532W        W76520  13.833  25.995  13.975 -0.0505 -0.0442  0.2633
 1533W        W76521   7.128  18.198  25.187 -0.3477  0.3512  0.0098
 1534W        W76522  18.204  10.549  19.704  0.0160 -0.0176  0.0353
 1535W        W76523  27.601  27.337   0.242 -0.0003  0.0781 -0.3986
 1536W        W76524   7.893  21.214  23.414 -0.0065 -0.1250  0.2900
 1537W        W76525  17.156  34.189  10.502  0.0154  0.0225  0.0961
 1538W        W76526  32.979  24.935  22.637  0.0976  0.0425  0.0248
 1539W        W76527  34.106  19.595  20.723  0.1714  0.0017 -0.0055
 1540W        W76528   7.395  11.606  17.987 -0.3598 -0.1764 -0.2688
 1541W        W76529   9.438  33.683  12.392 -0.3463 -0.1989  0.2376
 1542W        W76530  29.450   3.210   0.790  0.2270 -0.0184  0.0048
 1543W        W76531  26.898   0.527  13.208  0.4321 -0.0956 -0.1967
 1544W        W76532  17.284  30.775   4.672  0.1886 -0.2633 -0.1544
 1545W        W76533   9.554  14.321   9.564  0.1342  0.2292  0.0402
 1546W        W76534  34.765   6.103  20.464  0.0560  0.2220 -0.0199
 1547W        W76535   6.736   0.586   9.683  0.0095  0.3094 -0.1974
 1548W        W76536  12.238  16.296  10.289  0.1521 -0.0018 -0.3692
 1549W        W76537  21.693  12.330  26.135  0.0088 -0.1028 -0.1109
 1550W        W76538   8.014   6.640   9.123 -0.4024 -0.1225 -0.0693
 1551W        W76539   1.499   8.415  21.834  0.0843 -0.2077 -0.4140
 1552W        W76540  32.333   5.130   3.009  0.0481  0.1953 -0.0939
 1553W        W76541   7.597  30.406  10.462 -0.3495 -0.0010  0.0958
 1554W        W76542   7.521  22.691   1.423  0.0148 -0.0887 -0.0192
 1555W        W76543   9.514  21.732   1.148 -0.3712 -0.0916 -0.1272
 1556W        W76544  14.309  21.747  14.993  0.3817  0.0385 -0.2639
 1557W        W76545  18.777  11.534  17.030  0.2307 -0.3453  0.2017
 1558W        W76546  11.296   4.125   4.152 -0.1527 -0.0164 -0.0119
 1559W        W76547  11.083  31.470  22.923  0.0149  0.1468 -0.1649
 1560W        W76548  31.109  26.451  21.213 -0.1104 -0.3421  0.0239
 1561W        W76549  21.381   0.113  18.162  0.0296 -0.0985 -0.2991
 1562W        W76550  24.736  11.635  20.958 -0.0278  0.0135  0.0013
 1563W        W76551  26.511  19.547  10.301  0.4702 -0.1411  0.2491
 1564W        W76552  11.443   8.662  10.951 -0.1915 -0.0822  0.0110
 1565W        W76553  26.492  17.563  25.525 -0.2037  0.0159 -0.3369
 1566W        W76554  19.408  23.639   1.933 -0.1253  0.2636  0.0119
 1567W        W76555  22.626   5.889   4.039 -0.3502  0.1500  0.0310
 1568W        W76556  11.425  10.492   7.676  0.1932 -0.3591 -0.0049
 1569W        W76557  21.859   4.470  22.177  0.1500 -0.2842 -0.1413
 1570W        W76558  16.260  29.677   7.656 -0.2295 -0.0849  0.0097
 1571W        W76559  26.121   7.329  12.391 -0.0693 -0.0785  0.0889
 1572W        W76560  31.028  10.091  13.413  0.2318  0.1597 -0.1931
 1573W        W76561  14.307   6.976  10.848 -0.0438  0.1440  0.4010
 1574W        W76562  16.091  30.077   0.594  0.1974 -0.0694 -0.0151
 1575W        W76563  17.591  25.087  13.785  0.2141 -0.0235 -0.3294
 1576W        W76564  13.081  34.613   4.512  0.1012  0.2328  0.0278
 1577W        W76565   2.874  16.862  24.880  0.2304 -0.1890  0.0602
 1578W        W76566  15.800  22.987   8.622 -0.0821  0.4550 -0.1340
 1579W        W76567  11.275  15.937   4.321  0.0904 -0.2529  0.1380
 1580W        W76568   4.760  25.678   0.725  0.0254 -0.0991 -0.0948
 1581W        W76569  31.642  14.700  12.025 -0.1968 -0.0222 -0.1647
 1582W        W76570  31.223  31.396  23.309 -0.0720  0.0835 -0.2125
 1583W        W76571  34.853  26.865   4.922  0.0821 -0.2144  0.2502
 1584W        W76572   1.333   9.031   3.269  0.1873 -0.0770 -0.2339
 1585W        W76573  11.347  18.879   3.944  0.1848 -0.3300 -0.2794
 1586W        W76574   2.455   8.750  18.295  0.1456 -0.2666 -0.1398
 1587W        W76575  26.935  27.875   3.383  0.2713 -0.2386 -0.0838
 1588W        W76576   7.204  31.106   1.626 -0.0749 -0.3361  0.0829
 1589W        W76577  13.625  28.401  22.170  0.0946 -0.1501  0.1486
 1590W        W76578   9.750  17.200   7.863  0.1940  0.1625 -0.2062
 1591W        W76579  32.624   4.152  15.914  0.2774  0.0322  0.1829
 1592W        W76580   2.817   0.282  23.842  0.3038  0.1469  0.1626
 1593W        W76581  22.482   7.881   6.953 -0.0244  0.1603 -0.0487
 1594W        W76582  24.263  30.098  12.855 -0.0079 -0.0205 -0.1069
 1595W        W76583  23.870  29.832  20.167  0.3656 -0.0656 -0.2208
 1596W        W76584  20.537  24.236  24.726 -0.0061 -0.1668 -0.1467
 1597W        W76585   5.427   4.359  18.268 -0.6020  0.0728  0.0787
 1598W        W76586  19.672  23.767  23.709 -0.0710 -0.2074 -0.0009
 1599W        W76587  31.414  13.305  22.609 -0.0811 -0.2828 -0.1414
 1600W        W76588  13.135  12.226  22.208  0.0857  0.1842 -0.1520
 1601W        W76589   8.584  19.814   8.831  0.0965  0.1199 -0.2234
 1602W        W76590  30.091  33.249  19.132 -0.0845 -0.2071  0.1305
 1603W        W76591  19.557  32.528  18.218  0.0499  0.0167  0.4056
 1604W        W76592  13.338  16.003  21.994  0.0075  0.1141  0.0995
 1605W        W76593  20.729  32.436  21.465 -0.1271 -0.0837  0.1401
 1606W        W76594  15.230  30.273   6.795  0.0127  0.0179 -0.0270
 1607W        W76595  16.003  22.826   4.677 -0.1967  0.0690  0.1928
 1608W        W76596  20.019  18.098  22.279  0.2019  0.2562  0.3057
 1609W        W76597  15.931  24.608  22.855  0.3774 -0.1358  0.2176
 1610W        W76598   3.840  11.032  24.695 -0.0562  0.0513  0.0434
 1611W        W76599  11.604   5.464  23.781 -0.1608  0.1500 -0.2999
 1612W        W76600   7.969  16.056   8.213 -0.1346  0.0017 -0.1798
 1613W        W76601  31.077  26.601  17.911 -0.2315  0.0753  0.0999
 1614W        W76602   0.333  11.971  15.469 -0.1079  0.2278  0.1663
 1615W        W76603  32.922  14.687   8.468 -0.2311  0.0190 -0.3763
 1616W        W76604  18.330  22.580  25.011 -0.1881  0.0156 -0.1091
 1617W        W76605  28.120  34.843  16.047 -0.2149  0.1519  0.0782
 1618W        W76606  22.483   6.031  15.942  0.1327 -0.1625 -0.0835
 1619W        W76607  14.176   5.063  11.185  0.2165 -0.0620  0.0801
 1620W        W76608  22.485  30.627   1.179 -0.1741 -0.2371  0.1669
 1621W        W76609  28.854  10.123  15.226  0.2203 -0.1859 -0.0140
 1622W        W76610   5.520  17.941   0.490  0.0067  0.2139 -0.0241
 1623W        W76611  11.209   5.616   8.748 -0.0238  0.1528  0.1661
 1624W        W76612  19.410  10.612  18.910  0.1984 -0.0380 -0.1222
 1625W        W76613  34.970   2.705  24.529  0.1227  0.3400 -0.0700
 1626W        W76614  32.326  17.368  16.505  0.1038 -0.2471  0.1858
 1627W        W76615  35.030  23.470  23.096 -0.0559 -0.1077  0.0195
 1628W        W76616  33.105  34.814  21.659  0.2450  0.1844  0.0100
 1629W        W76617   5.022   3.339  25.548  0.0108  0.2121  0.0635
 1630W        W76618   6.826  31.021   3.404 -0.0329 -0.0794  0.2648
 1631W        W76619   2.234  15.045  25.517  0.0595 -0.0431 -0.3134
 1632W        W76620  16.550  18.334  22.534  0.0393  0.1025  0.0494
 1633W        W76621  33.456   6.629   4.979 -0.1385  0.0753  0.0787
 1634W        W76622  27.303  11.332  23.471 -0.0430  0.3833  0.0400
 1635W        W76623  20.327  26.676  19.697 -0.2729  0.1135  0.0232
 1636W        W76624  31.284  13.149  20.334  0.4532  0.3402 -0.0482
 1637W        W76625   5.730  31.420   1.184  0.0990 -0.2281  0.2777
 1638W        W76626   8.083  28.546  24.307  0.1442 -0.1878  0.0232
 1639W        W76627   8.350   7.346  12.526  0.2244  0.0638 -0.1619
 1640W        W76628  14.776   7.129  25.704 -0.1029  0.2085 -0.3164
 1641W        W76629  13.757  16.562   5.818  0.2243  0.0218 -0.0852
 1642W        W76630   9.352  12.294   4.308  0.2050 -0.0034  0.0468
 1643W        W76631  17.221   9.981  25.230  0.0882 -0.2408 -0.3312
 1644W        W76632  29.880   2.073  23.511 -0.1150  0.1019  0.0172
 1645W        W76633  31.423  17.857  11.872 -0.0311  0.1016  0.3412
 1646W        W76634  33.224  12.343  20.573  0.1811 -0.0078 -0.0495
 1647W        W76635  14.030  24.711  16.172  0.2422  0.2116 -0.2971
 1648W        W76636  32.687   5.864  20.412  0.1065  0.1412  0.0151
 1649W        W76637  20.048  19.395  17.694 -0.2453 -0.1880 -0.1641
 1650W        W76638  19.234   9.891  22.878 -0.1208  0.5749 -0.0036
 1651W        W76639  11.355  11.563  21.426  0.2366  0.2844  0.2987
 1652W        W76640  31.475  21.469  17.174  0.0030 -0.0258  0.2770
 1653W        W76641  22.630   5.395  22.068 -0.0406  0.2175 -0.0505
 1654W        W76642   4.942  22.603  22.736 -0.2360  0.1577  0.0898
 1655W        W76643  17.714   8.172   8.435  0.0454 -0.0667 -0.0820
 1656W        W76644  19.322  31.821  15.253 -0.1024 -0.0959 -0.0718
 1657W        W76645   4.198  17.034   1.983  0.0745  0.2387 -0.1594
 1658W        W76646  21.982  33.647  26.062  0.3183  0.1504 -0.0387
 1659W        W76647  34.562  32.607   3.569  0.3380  0.1674  0.0568
 1660W        W76648  13.465  21.729   6.093  0.4462 -0.0516 -0.0070
 1661W        W76649  13.005   1.473   6.647 -0.1590  0.4808 -0.2035
 1662W        W76650   5.744  27.458  10.859  0.1320 -0.1166 -0.0237
 1663W        W76651  21.949  31.072  19.913 -0.0107  0.5037 -0.0710
 1664W        W76652  19.554   5.881  22.346 -0.0960 -0.2230 -0.0291
 1665W        W76653  32.108  14.900  19.526 -0.0382 -0.0832  0.1914
 1666W        W76654   0.505  15.148   1.083  0.2079 -0.2891 -0.2294
 1667W        W76655  19.016  33.848  15.909  0.1476 -0.1589  0.2151
 1668W        W76656  18.585  11.782   9.677 -0.5515  0.0973 -0.0098
 1669W        W76657  12.490  24.649   6.034 -0.3607 -0.4053  0.2990
 1670W        W76658   5.466   1.491   5.419  0.1459 -0.2216 -0.3122
 1671W        W76659  17.822   4.579  26.208 -0.0179  0.1305  0.0592
 1672W        W76660  16.358  27.641   2.501 -0.2408 -0.0374  0.2225
 1673W        W76661  30.958  19.433   4.923  0.3500 -0.1525  0.3111
 1674W        W76662   4.742   5.286  18.495 -0.0590 -0.2040 -0.1062
 1675W        W76663  17.878  14.937   3.186 -0.1000 -0.1091  0.0966
 1676W        W76664  30.030   1.394   3.909  0.0238 -0.2325 -0.2751
 1677W        W76665   1.477  30.415  24.351  0.0946 -0.0785 -0.1756
 1678W        W76666  28.897  34.099  15.374  0.1962  0.0106  0.2668
 1679W        W76667   4.201  20.407  22.173  0.2308  0.0424  0.1082
 1680W        W76668  34.560   4.862   4.963  0.1556  0.3675  0.0133
 1681W        W76669  22.113   1.013   8.566 -0.4562  0.3388  0.2439
 1682W        W76670   4.845  13.125  19.105 -0.0363  0.1662  0.0498
 1683W        W76671   6.247  10.551  24.459 -0.2385  0.1914 -0.0698
 1684W        W76672   7.708  15.569   3.420  0.0546 -0.0490  0.1320
 1685W        W76673  22.906  12.419  17.066 -0.2650 -0.1565 -0.3188
 1686W        W76674  31.739  10.365  17.306  0.0580  0.0205 -0.0249
 1687W        W76675   4.092   6.528   7.382  0.0927 -0.0461  0.2875
 1688W        W76676  29.289  11.471  25.494  0.1323 -0.2248  0.0093
 1689W        W76677  10.805   8.520   1.866  0.3103 -0.3042 -0.0133
 1690W        W76678  20.099  30.011  23.243  0.0020 -0.2488  0.1192
 1691W        W76679  13.404  34.432   0.038  0.0807 -0.0674 -0.2172
 1692W        W76680  32.481   2.265  21.762  0.0713 -0.0019  0.0836
 1693W        W76681  34.412  30.427  21.458  0.1658 -0.2285  0.2288
 1694W        W76682   0.815  20.814  21.379 -0.0998  0.1895 -0.1077
 1695W        W76683  30.346  30.299  24.593  0.2401 -0.1015  0.1693
 1696W        W76684  29.286  26.790  20.933  0.2014  0.2044 -0.0865
 1697W        W76685  20.205  28.608  24.572  0.1699  0.1508  0.1578
 1698W        W76686  28.314  20.534  25.284  0.1582  0.2460 -0.2343
 1699W        W76687  15.033  17.809  20.091 -0.0638 -0.0614 -0.1084
 1700W        W76688   1.828   2.907  18.196 -0.1657  0.3081 -0.0311
 1701W        W76689  19.726   2.728   0.953  0.4497  0.1674 -0.2152
 1702W        W76690  12.658  29.976   5.608  0.0446  0.1412  0.0484
 1703W        W76691  29.283  34.945   3.063 -0.2924 -0.3280 -0.1418
 1704W        W76692  21.155  13.723  18.791  0.0454  0.0242 -0.1149
 1705W        W76693  26.645  30.060  17.199 -0.1141  0.0698 -0.3695
 1706W        W76694  33.627  33.048  14.294  0.2409  0.0165  0.1515
 1707W        W76695   4.031   1.318  10.749  0.0462  0.0769 -0.1584
 1708W        W76696   4.355  16.853   4.688  0.2806 -0.2411  0.0747
 1709W        W76697  10.500  26.150   0.281  0.3447  0.0032  0.1662
 1710W        W76698  29.516   4.934  21.347 -0.2490  0.1493 -0.1456
 1711W        W76699   9.884  32.672  16.301  0.2602  0.2272  0.0259
 1712W        W76700  13.822  32.004  13.727  0.1684 -0.0761  0.1918
 1713W        W76701  27.983  18.208  20.369 -0.1573 -0.2716 -0.0453
 1714W        W76702  13.157  22.106  10.726 -0.0587  0.1214 -0.0598
 1715W        W76703  29.939   0.775   4.363  0.0910  0.4868  0.0766
 1716W        W76704  30.796  25.996  13.782 -0.3176 -0.1811 -0.2926
 1717W        W76705   1.370   3.007  18.415  0.0267 -0.1489  0.2551
 1718W        W76706  24.860  18.078  25.625  0.0506 -0.2449  0.2156
 1719W        W76707  29.569  12.540   6.447  0.0533 -0.0432 -0.3108
 1720W        W76708  26.339  15.181   9.403 -0.0696  0.0894  0.0479
 1721W        W76709  20.948   0.230  25.574 -0.0930 -0.1092 -0.0933
 1722W        W76710  27.268  16.149   8.151 -0.1493  0.1366  0.1562
 1723W        W76711   9.138  28.110   6.031  0.0026 -0.0095 -0.0713
 1724W        W76712  12.195  32.741   0.533 -0.1617  0.1472  0.0728
 1725W        W76713  25.359  18.089  16.596  0.1077 -0.1056 -0.0298
 1726W        W76714   0.474  22.681  24.569  0.1258 -0.1036 -0.1360
 1727W        W76715  25.704   4.830   3.978 -0.1269  0.3647 -0.1703
 1728W        W76716  35.270   5.519   1.005 -0.1313  0.1281  0.0936
 1729W        W76717  15.180   0.016  25.400  0.0276 -0.0211 -0.1143
 1730W        W76718  32.878  33.394  18.231 -0.0512 -0.0912 -0.0890
 1731W        W76719  17.675   4.855  22.266  0.3113  0.0974 -0.0783
 1732W        W76720   4.828  10.119   3.650 -0.7495 -0.3259  0.1131
 1733W        W76721  12.727  18.267   6.194 -0.2063  0.1896 -0.3155
 1734W        W76722  35.004   8.157  12.246 -0.3111 -0.1079 -0.2194
 1735W        W76723   3.703   1.971   8.061  0.0342 -0.1189 -0.1762
 1736W        W76724  31.879   3.343  16.131  0.4061 -0.1377  0.0141
 1737W        W76725  23.072  22.214   4.023 -0.2851  0.0304  0.1733
 1738W        W76726  31.247   7.396  24.001  0.0792  0.0969  0.0025
 1739W        W76727  15.448  19.038  21.360 -0.0435  0.0857 -0.0920
 1740W        W76728  16.240  31.876   7.687 -0.0344 -0.2956  0.0854
 1741W        W76729  13.899   9.082   9.913  0.0359 -0.0088 -0.4770
 1742W        W76730  22.405  16.658   0.899  0.0565 -0.4016 -0.1717
 1743W        W76731  22.415  17.025  19.090  0.0489  0.2104 -0.0772
 1744W        W76732  12.818   9.049   3.398 -0.2837  0.0989 -0.0149
 1745W        W76733   3.844  28.212   1.038 -0.1363  0.2793  0.0554
 1746W        W76734   4.216  11.560   3.473 -0.0264 -0.3339 -0.6290
 1747W        W76735   4.923   9.241   7.756  0.0141 -0.0010  0.1133
 1748W        W76736  21.156   6.687   3.613  0.0505  0.1408 -0.0602
 1749W        W76737  28.550   1.945  25.328  0.0540  0.3320  0.3351
 1750W        W76738  10.904   3.217  12.570 -0.1547 -0.0358  0.0614
 1751W        W76739  34.562  19.343  17.456  0.1823  0.0043  0.0563
 1752W        W76740  13.174  20.099  13.653  0.0590  0.2214  0.1730
 1753W        W76741   2.875  24.944   5.962  0.1818 -0.2645  0.1184
 1754W        W76742   9.418  24.426   1.272  0.0844  0.3845  0.1640
 1755W        W76743   3.257  15.560  14.186  0.2682  0.2072  0.1366
 1756W        W76744  19.922  12.989  18.462  0.1460 -0.0572  0.1604
 1757W        W76745  11.651  29.743   0.928 -0.1754  0.1446 -0.2403
 1758W        W76746   1.600  16.213   9.570  0.0859  0.0082  0.1311
 1759W        W76747   7.067  10.569  19.149 -0.0052  0.0392 -0.0373
 1760W        W76748  32.697  12.211   8.245 -0.1457 -0.0498  0.1333
 1761W        W76749  18.536  11.830  25.186 -0.1180  0.0231  0.0233
 1762W        W76750  31.392  19.088  16.010  0.2925 -0.0353 -0.2704
 1763W        W76751  23.810  14.426  12.572  0.1882 -0.2105  0.2853
 1764W        W76752   4.881   2.775  18.253 -0.1424 -0.0661 -0.0459
 1765W        W76753  30.898  17.898  11.275 -0.1352  0.0638  0.4420
 1766W        W76754  34.236  29.207   3.399  0.4759  0.2911 -0.1286
 1767W        W76755  19.937  17.721   1.751  0.0757  0.2263  0.1799
 1768W        W76756  17.715  27.545  22.918  0.4008  0.0470 -0.0901
 1769W        W76757  23.658  18.070  15.474  0.2967 -0.1297  0.0477
 1770W        W76758  32.461  11.432  19.672 -0.3478 -0.0238 -0.2031
 1771W        W76759  12.061  26.847  17.435 -0.0833  0.1571  0.0609
 1772W        W76760  35.234  17.998   0.915 -0.2547 -0.7600 -0.0305
 1773W        W76761  29.354   1.261  20.539  0.3615 -0.0784 -0.0273
 1774W        W76762  18.870  32.645   6.102  0.0002 -0.1943  0.2197
 1775W        W76763  12.932  18.575   9.625 -0.0984  0.2543 -0.1625
 1776W        W76764  32.452  16.630  11.807 -0.0808 -0.0560  0.1122
 1777W        W76765  20.188  20.999  20.041 -0.0869  0.0095  0.0972
 1778W        W76766  25.036  28.701   1.774  0.1542 -0.1985 -0.2630
 1779W        W76767  22.616  24.800  17.689  0.2498 -0.0804 -0.1648
 1780W        W76768  16.045  13.839   7.203 -0.0744  0.1156  0.1630
 1781W        W76769   5.850  19.694  25.207 -0.1527 -0.0597  0.0160
 1782W        W76770  34.523   0.962   1.839  0.4031  0.1049 -0.4432
 1783W        W76771   1.568  13.872  21.090 -0.0891  0.1977  0.0001
 1784W        W76772  27.134   4.436  13.253 -0.2583 -0.1209 -0.2531
 1785W        W76773  32.338   7.737  22.931  0.2952  0.0700 -0.0481
 1786W        W76774  25.421  26.671  10.447 -0.1660  0.2276 -0.2108
 1787W        W76775  14.101  17.792  10.456  0.0484  0.1103  0.4789
 1788W        W76776  35.015  19.226  16.656 -0.0869 -0.4130  0.0945
 1789W        W76777  34.601  10.188  11.143  0.4958  0.0997 -0.1777
 1790W        W76778  10.921   6.257  11.286 -0.2515  0.1330  0.2417
 1791W        W76779   9.902  14.714   4.463  0.0693 -0.0081 -0.0712
 1792W        W76780   8.642   9.211  24.398  0.0204 -0.0043 -0.3012
 1793W        W76781  21.951  26.617   5.512  0.0921  0.0059 -0.1292
 1794W        W76782  11.145   0.401   8.661  0.1340  0.2122 -0.0808
 1795W        W76783  30.584  27.759  23.380 -0.4159  0.0726 -0.3133
 1796W        W76784   8.166   8.348   7.598  0.0767 -0.0181 -0.1294
 1797W        W76785  17.965  15.001   1.836  0.1011 -0.0884 -0.1763
 1798W        W76786  26.041   7.324   9.912  0.0129 -0.2761  0.5681
 1799W        W76787  13.146  22.912  16.857  0.1897 -0.0021  0.3754
 1800W        W76788  12.536  16.612   0.545 -0.1599  0.1230  0.2368
 1801W        W76789  10.282  21.314   5.278  0.5391 -0.0230  0.0542
 1802W        W76790   0.076   3.837   2.624 -0.0623  0.0917 -0.1765
 1803W        W76791  20.997  32.106  20.143  0.0019 -0.0830 -0.1670
 1804W        W76792   7.077   3.688  23.478  0.0875 -0.0625 -0.1462
 1805W        W76793   5.385   0.034   2.030  0.2589  0.1236 -0.1885
 1806W        W76794  31.539   5.472   3.050 -0.2056 -0.2147 -0.0970
 1807W        W76795  25.861   8.208  19.702 -0.0933 -0.1781  0.1225
 1808W        W76796  15.117  27.864   4.288  0.3281  0.1505 -0.0747
 1809W        W76797  12.818  21.608  12.280  0.0709  0.3042 -0.0620
 1810W        W76798   0.003  29.006   7.539 -0.0811 -0.0804  0.2178
 1811W        W76799   8.817  18.830   1.586 -0.2944  0.0287 -0.2475
 1812W        W76800   0.687  32.947  16.047  0.0582  0.1635 -0.1769
 1813W        W76801   2.733  15.604  23.605 -0.0041  0.1675 -0.1003
 1814W        W76802   8.032   8.253  21.881  0.0406  0.1434 -0.0406
 1815W        W76803   3.383  18.506  23.998  0.1017  0.1351 -0.0623
 1816W        W76804   6.727   5.789  21.564 -0.0135  0.1773 -0.0429
 1817W        W76805  30.365   9.824  20.441  0.2354 -0.3954  0.3802
 1818W        W76806  34.507  29.859  19.198  0.0279  0.1483 -0.0450
 1819W        W76807  10.468   2.221  21.889 -0.1661 -0.2078  0.1473
 1820W        W76808  14.062  23.575  12.127  0.0456  0.0470 -0.1544
 1821W        W76809   0.180  10.613  23.792  0.2764 -0.0455 -0.0892
 1822W        W76810  10.728   0.959  20.800 -0.0496 -0.1142 -0.1968
 1823W        W76811   8.245  25.804  11.747 -0.0076  0.1922  0.0660
 1824W        W76812   9.117  13.723   9.481  0.0707 -0.0647 -0.2511
 1825W        W76813  29.165   1.035  21.088 -0.0979 -0.2090 -0.0901
 1826W        W76814  21.550  16.895   5.170  0.0587  0.0610  0.1921
 1827W        W76815  19.236   8.410   3.105  0.1916 -0.1040 -0.0429
 1828W        W76816  31.772   5.005  24.852 -0.0114 -0.1238  0.1171
 1829W        W76817  13.406  11.621   9.670 -0.0766 -0.2377  0.0408
 1830W        W76818   3.540   5.275   3.774  0.1182 -0.2581 -0.0472
 1831W        W76819   1.852  32.325  19.113 -0.2386 -0.0735 -0.1522
 1832W        W76820   0.307  29.596  18.953  0.1690  0.2426  0.4214
 1833W        W76821  22.084   1.525   5.927  0.1647 -0.2099 -0.0823
 1834W        W76822  17.427  32.040  23.013  0.0702  0.0549  0.1860
 1835W        W76823  16.603  31.447   9.423 -0.2957  0.2116  0.1034
 1836W        W76824   9.555   0.002   3.072 -0.2029 -0.1618 -0.0791
 1837W        W76825  11.775  20.265   3.607  0.0662  0.2783 -0.0088
 1838W        W76826  33.128   5.563  20.812 -0.2481 -0.3928 -0.2647
 1839W        W76827   6.591   5.999  22.956  0.1260 -0.1676 -0.1048
 1840W        W76828  33.609  25.036   1.526 -0.2838 -0.1378  0.0454
 1841W        W76829  16.846  15.437  11.580 -0.1025  0.0595 -0.2320
 1842W        W76830  19.539  34.959   2.474  0.0676 -0.0592 -0.1111
 1843W        W76831  30.189  35.158  14.658 -0.0125 -0.3376  0.0858
 1844W        W76832  12.048   5.472   5.177  0.0043 -0.0135  0.0668
 1845W        W76833  13.188   7.313   9.061 -0.1263  0.1224  0.0496
 1846W        W76834  18.201  21.099  23.141 -0.1775 -0.0112  0.0627
 1847W        W76835  12.260   6.697  12.643  0.0373  0.2363  0.1679
 1848W        W76836   7.376   9.125   5.927 -0.0723  0.0797 -0.0139
 1849W        W76837  28.867  12.516  11.093 -0.2360 -0.2322  0.1674
 1850W        W76838   3.242  26.470   5.771 -0.2327  0.1146 -0.0882
 1851W        W76839  28.487  12.688  18.271  0.2119  0.4124 -0.0356
 1852W        W76840   7.495  10.065   5.719  0.0265 -0.0539 -0.0596
 1853W        W76841  17.906  28.006   6.564  0.0288  0.2938  0.3002
 1854W        W76842  12.975  16.260  10.598 -0.0227  0.3274  0.1105
 1855W        W76843   2.188  21.586   2.274  0.0201  0.1641  0.0541
 1856W        W76844  29.901  13.763  19.050  0.1368  0.0116 -0.0912
 1857W        W76845   1.465  29.009   8.111 -0.5316  0.2667 -0.1494
 1858W        W76846  17.709  14.452   4.738 -0.0090 -0.1126  0.0347
 1859W        W76847  33.451  13.724   0.229 -0.3533 -0.0777 -0.0339
 1860W        W76848  16.878  10.321   3.632 -0.2796 -0.1155  0.0849
 1861W        W76849  24.250  17.967   8.355  0.0576 -0.0705  0.2011
 1862W        W76850  11.869  21.483   3.804  0.3805 -0.0848 -0.0066
 1863W        W76851   7.444  28.845   6.430 -0.2050  0.1796 -0.1501
 1864W        W76852  27.595  34.218  25.107  0.0627 -0.3491  0.1413
 1865W        W76853   7.048   0.193  11.540 -0.1765  0.0163  0.0904
 1866W        W76854  25.983  12.561  17.536 -0.2202 -0.2495  0.2954
 1867W        W76855  17.932   4.001  11.092 -0.1304 -0.1185  0.2177
 1868W        W76856  11.491   3.387  24.872  0.2388  0.0170  0.0445
 1869W        W76857  19.497  13.209  25.540 -0.1329 -0.3120 -0.0208
 1870W        W76858  10.291  13.538  24.790  0.1443 -0.0136  0.0708
 1871W        W76859   9.809  21.656   7.662  0.1213 -0.0672 -0.1046
 1872W        W76860   7.863  23.003   1.285 -0.3722  0.0634  0.2437
 1873W        W76861  33.478   9.550  17.670  0.0698  0.2132  0.2097
 1874W        W76862   5.513  18.860   5.192  0.0911  0.0959  0.3208
 1875W        W76863  19.420  21.725  19.697 -0.1006 -0.3981  0.0213
 1876W        W76864  19.713   4.709   7.955  0.0118  0.1358  0.1642
 1877W        W76865  21.073  28.553  18.358 -0.0925 -0.0944  0.1196
 1878W        W76866  17.750  29.056   6.089  0.2475  0.1424 -0.2427
 1879W        W76867  10.938   4.848  11.421  0.1859 -0.0500 -0.3138
 1880W        W76868   9.441   8.969  20.839  0.0051 -0.2294  0.0019
 1881W        W76869  29.020  34.220   5.587 -0.3308 -0.2968  0.2473
 1882W        W76870  10.584  24.462  17.324 -0.2029 -0.1087  0.2316
 1883W        W76871  25.570   1.854  12.800  0.2174  0.1305  0.2519
 1884W        W76872  20.430  13.104  19.371  0.1005 -0.0134  0.1033
 1885W        W76873   9.324  35.364  13.988  0.1862  0.0633  0.1363
 1886W        W76874   5.865  20.215   2.328  0.1661 -0.0131  0.1269
 1887W        W76875  16.401  17.774  22.172 -0.2648  0.0724 -0.2133
 1888W        W76876  34.547  31.456   6.099 -0.2451 -0.3449  0.1512
 1889W        W76877   9.196  25.833   8.373  0.3207  0.0253 -0.0342
 1890W        W76878  31.997  24.090  14.467 -0.3352  0.1608  0.0122
 1891W        W76879  16.376  35.143  20.945  0.1163 -0.0291  0.1364
 1892W        W76880   1.532   3.195  17.395  0.0714 -0.0354  0.0295
 1893W        W76881  28.479  12.033  13.969  0.0631 -0.0391  0.1980
 1894W        W76882  30.417  13.549  10.962 -0.0368  0.1313 -0.0031
 1895W        W76883  23.593  11.496  12.606 -0.1176 -0.0839 -0.1955
 1896W        W76884  12.167  19.926   5.818 -0.3125  0.0533 -0.2419
 1897W        W76885   6.862  10.648  20.078 -0.1676 -0.1958  0.4197
 1898W        W76886   3.101  32.506  19.716  0.0552 -0.1078  0.0875
 1899W        W76887   1.534  27.396  24.282 -0.2343 -0.2942  0.0457
 1900W        W76888  13.474  13.434  24.343 -0.1719 -0.0152 -0.0431
 1901W        W76889  17.322  19.754  21.502 -0.1614 -0.1025  0.3351
 1902W        W76890   6.954  11.447   2.519  0.0104  0.0026 -0.2854
 1903W        W76891   4.676  27.989   8.406  0.3544 -0.0223 -0.0646
 1904W        W76892  23.829  14.985  24.373  0.2844 -0.0047 -0.0687
 1905W        W76893  18.125   5.986  21.152  0.0656  0.0731  0.2281
 1906W        W76894   7.885   4.074   7.665 -0.0361 -0.2846  0.0812
 1907W        W76895  24.202  21.907  25.864 -0.0908  0.2419  0.0024
 1908W        W76896   7.506  27.940  24.808  0.3828 -0.0623  0.0508
 1909W        W76897  14.309  11.196  12.280  0.3719 -0.0992 -0.1483
 1910W        W76898   7.901  11.341  22.128 -0.0615 -0.2538  0.3212
 1911W        W76899   5.588  29.637  24.457 -0.2888  0.0169 -0.1676
 1912W        W76900   6.563  15.312   1.736 -0.3240  0.1263  0.0868
 1913W        W76901  27.723  26.924  16.506 -0.1228 -0.2320 -0.1798
 1914W        W76902   6.826  31.451  21.134  0.0112  0.2022 -0.0734
 1915W        W76903  34.354   0.919   5.509  0.3838  0.0828 -0.0471
 1916W        W76904  25.005  22.937  20.862  0.0869 -0.3222 -0.0263
 1917W        W76905  11.056  30.848  25.556 -0.2298 -0.1284 -0.1654
 1918W        W76906  11.651  18.436  25.924 -0.0746  0.3992  0.0189
 1919W        W76907   7.330  30.740  22.791  0.1343 -0.0152 -0.3062
 1920W        W76908  23.414  24.137   1.821 -0.3103 -0.2631  0.1920
 1921W        W76909  18.683  35.101   1.953  0.0191  0.1586 -0.0140
 1922W        W76910  11.498   1.744   9.433 -0.1570  0.1275 -0.0067
 1923W        W76911  21.300  26.269  17.807  0.1080 -0.0530  0.0408
 1924W        W76912   4.415   2.957  23.072  0.0900  0.0822 -0.0347
 1925W        W76913  12.078  15.034   3.881  0.0323  0.4735 -0.0196
 1926W        W76914  12.287   5.349   4.713 -0.1859  0.1045  0.1682
 1927W        W76915  32.186  31.386  15.452  0.0992  0.0916 -0.0391
 1928W        W76916   6.401  20.846   1.243  0.4247 -0.0930 -0.1685
 1929W        W76917  29.781   3.043  13.744 -0.0614  0.0452  0.0839
 1930W        W76918  26.976   0.196   1.990 -0.2562 -0.1590  0.0979
 1931W        W76919   3.932  19.009  23.737 -0.0049  0.1472 -0.0535
 1932W        W76920  31.969   3.907  23.710 -0.2177 -0.0221 -0.0091
 1933W        W76921  32.074  12.459  24.567 -0.0674  0.5046  0.0136
 1934W        W76922   2.877   8.584   4.780 -0.1501  0.1570  0.1310
 1935W        W76923  28.464  17.861  23.665  0.2441 -0.3517 -0.1523
 1936W        W76924  29.063  27.758   2.128 -0.0439  0.4680  0.0294
 1937W        W76925  15.797  16.986   9.923 -0.3352 -0.0548 -0.4388
 1938W        W76926  22.396  26.793   1.190  0.0054 -0.0041  0.1502
 1939W        W76927  15.588   3.808  10.301 -0.2505  0.3133  0.2703
 1940W        W76928  14.392  16.223  20.729  0.1678 -0.0083  0.2882
 1941W        W76929  22.495  26.829  16.814  0.1218  0.0480 -0.1054
 1942W        W76930  11.298  11.401   4.645  0.3049 -0.2954 -0.3653
 1943W        W76931  11.068  22.199  16.959  0.1613  0.3978 -0.3153
 1944W        W76932  21.947   0.053   2.242 -0.1274  0.1687  0.1729
 1945W        W76933  19.690  18.966   2.661 -0.1747  0.0218 -0.3041
 1946W        W76934   7.016  13.256   1.714 -0.2552 -0.4484 -0.0057
 1947W        W76935   2.125  32.477  24.689  0.0354 -0.1250  0.2094
 1948W        W76936  16.792  14.787   9.730  0.1221  0.0377  0.0087
 1949W        W76937  13.755  28.827  12.467  0.3523 -0.1249 -0.0019
 1950W        W76938  23.783   6.029  21.553  0.1933 -0.0833 -0.0444
 1951W        W76939  21.312   0.562  21.572  0.0909 -0.1490  0.0873
 1952W        W76940  31.048   9.256  21.956  0.2545 -0.2425 -0.0668
 1953W        W76941  17.307  24.575   0.469  0.1646  0.1156 -0.0787
 1954W        W76942  29.873  26.112  15.984  0.0170 -0.1440  0.0282
 1955W        W76943  23.721  20.995   2.816 -0.1075  0.0057  0.2947
 1956W        W76944  15.931  11.824  26.166 -0.0185  0.1265  0.1511
 1957W        W76945   0.492  19.100  11.963  0.1809  0.0104  0.0203
 1958W        W76946  22.133  23.844  24.699 -0.0857  0.0015 -0.2344
 1959W        W76947  17.054  21.395   0.156 -0.0290 -0.0057  0.0547
 1960W        W76948   5.725  10.661   8.046 -0.0394  0.2245  0.1833
 1961W        W76949  21.634  23.614  17.450 -0.0976  0.2421 -0.0219
 1962W        W76950   6.251  15.679   9.596 -0.0031 -0.0467 -0.0671
 1963W        W76951   9.176   4.087   5.592  0.2037  0.2007 -0.0862
 1964W        W76952   1.957  34.945  18.171  0.1198 -0.1350 -0.2405
 1965W        W76953  18.590  14.966   2.665 -0.0855 -0.3034 -0.1111
 1966W        W76954  10.953  30.916   8.023 -0.0677 -0.0184 -0.0686
 1967W        W76955   2.825  29.832   3.267  0.3318 -0.0148  0.0173
 1968W        W76956   2.905  27.013  20.015 -0.3503  0.0728  0.0506
 1969W        W76957  33.352  25.425  16.193 -0.0933  0.1500  0.2580
 1970W        W76958  33.251  12.116  12.659  0.0848  0.0786  0.0863
 1971W        W76959   5.488   8.063  18.792 -0.0710  0.1720  0.5143
 1972W        W76960  13.856  17.417   2.464  0.0451  0.1663 -0.3739
 1973W        W76961   1.002  25.705  25.154  0.1000  0.1928 -0.0965
 1974W        W76962  29.447  16.029  25.777  0.1061  0.0727  0.4431
 1975W        W76963   8.391  29.535   3.780  0.0410  0.1591  0.0995
 1976W        W76964   6.944   2.088   7.827  0.0358 -0.0547  0.0039
 1977W        W76965   2.935  29.185   5.101  0.1509  0.0067 -0.1611
 1978W        W76966   4.191   7.934   7.170 -0.1207 -0.0024  0.0541
 1979W        W76967  15.128  15.278  11.034 -0.0684  0.2038 -0.5265
 1980W        W76968  14.497  12.146  11.886 -0.2692 -0.0460  0.2007
 1981W        W76969  16.804  27.812  20.513 -0.2837  0.1725  0.1214
 1982W        W76970  25.524   1.602  11.108  0.0980  0.1408 -0.0844
 1983W        W76971  19.913   7.948   6.289  0.1542  0.1947  0.0138
 1984W        W76972   4.971  22.042   0.983  0.0685 -0.0068  0.0571
 1985W        W76973   2.538  32.014   6.394  0.1950  0.0121  0.0283
 1986W        W76974  33.956  30.425  24.775 -0.1566 -0.0718 -0.0252
 1987W        W76975  29.026  17.781  20.290 -0.0403  0.0349  0.3089
 1988W        W76976  34.355  16.589  21.667 -0.3731 -0.2454 -0.2291
 1989W        W76977   7.192  33.060   1.343  0.0164 -0.0546 -0.1079
 1990W        W76978  28.528  21.901  19.839  0.0995  0.2822 -0.1055
 1991W        W76979   0.623  15.192  14.509  0.0850  0.0625 -0.1365
 1992W        W76980  31.376  29.710  14.474  0.3824  0.0422 -0.0846
 1993W        W76981  18.987  23.301  25.076 -0.0521 -0.1854  0.1436
 1994W        W76982   1.322   8.319  22.784 -0.2681  0.1953 -0.0796
 1995W        W76983  12.583  10.025   4.275 -0.0738 -0.1011  0.3474
 1996W        W76984  31.182   6.938   9.263  0.1764 -0.1729 -0.1453
 1997W        W76985   3.853  20.699  21.123 -0.1336  0.3229 -0.0792
 1998W        W76986  28.416   9.837  15.190 -0.1379 -0.1179 -0.2805
 1999W        W76987  31.823  32.526  15.918 -0.2782  0.2982  0.1761
 2000W        W76988  34.376  15.361  12.254  0.4856 -0.3008  0.0740
 2001W        W76989  34.042  25.008  23.550 -0.0466 -0.1350  0.0987
 2002W        W76990  14.845   3.313  21.125  0.1094 -0.1215  0.0572
 2003W        W76991  29.607  11.941  19.685  0.2035  0.1436 -0.0251
 2004W        W76992   4.172  22.176   3.167 -0.1127  0.0786  0.5861
 2005W        W76993  14.068  30.690   3.054  0.2613 -0.1771  0.0672
 2006W        W76994  32.036  28.857   4.726 -0.1687 -0.0990  0.2155
 2007W        W76995  22.084   1.544  24.958  0.0830 -0.0017 -0.2533
 2008W        W76996  32.248  21.446   7.179  0.0828  0.0989  0.1057
 2009W        W76997   3.799  12.449  17.103  0.3353 -0.3403  0.1880
 2010W        W76998  30.864   5.021  17.304 -0.0924  0.2219 -0.4120
 2011W        W76999  32.174  24.417  10.967 -0.0093  0.1004 -0.1498
 2012W        W77000   5.942  10.745  23.548 -0.0533 -0.1983 -0.3296
 2013W        W77001   8.696  27.735  13.092  0.2357 -0.2971  0.0601
 2014W        W77002   0.971   0.578   0.191 -0.1407 -0.2032  0.0180
 2015W        W77003   8.713   8.794   6.027  0.1250  0.3384 -0.3572
 2016W        W77004  14.168   6.944   7.990  0.2047 -0.1281  0.1938
 2017W        W77005   8.731  26.585   1.166 -0.0970  0.5081  0.1064
 2018W        W77006   8.800  33.420   7.282 -0.0357  0.0945 -0.2422
 2019W        W77007  13.412  20.690  22.729  0.3848  0.1218 -0.0084
 2020W        W77008   8.115  18.479   0.549 -0.0715  0.0164  0.0003
 2021W        W77009   9.887  28.732   8.848 -0.0576  0.0837  0.0048
 2022W        W77010  17.262  22.629  23.679 -0.2892 -0.1978  0.0100
 2023W        W77011  11.262   2.804   9.071  0.1875 -0.1041 -0.1080
 2024W        W77012   8.864  26.314  12.680 -0.3008 -0.0418 -0.0624
 2025W        W77013  29.561  20.822  19.728  0.1809 -0.2410 -0.0721
 2026W        W77014  31.596  13.808  19.801  0.1459 -0.0749  0.1031
 2027W        W77015   9.443  12.987  24.888 -0.2616 -0.0446  0.0611
 2028W        W77016  16.617  27.145   3.830  0.0267 -0.0755 -0.1124
 2029W        W77017   2.121  20.365  10.571 -0.1200 -0.0231 -0.1099
 2030W        W77018  10.987  35.153   8.637  0.0350 -0.2422 -0.0634
 2031W        W77019   5.372  32.082   1.776 -0.1313 -0.0500  0.2279
 2032W        W77020   1.598  17.591  16.570 -0.0125 -0.0522 -0.1179
 2033W        W77021  28.051   1.410  13.836  0.3588  0.1960  0.0666
 2034W        W77022  20.254  16.999  16.652  0.1300 -0.2756  0.0798
 2035W        W77023  25.605  23.884   9.232 -0.1994 -0.0149 -0.0596
 2036W        W77024  10.383  32.514   1.497 -0.1370 -0.2104 -0.0034
 2037W        W77025  27.661  19.120  14.247  0.1084 -0.0805  0.3804
 2038W        W77026  34.766  34.571   3.129  0.2175 -0.5627  0.0619
 2039W        W77027   5.369  29.204   1.850 -0.0656 -0.1900  0.0786
 2040W        W77028   7.769  20.830  12.841 -0.1993 -0.0065 -0.0618
 2041W        W77029   2.072   7.129  22.115 -0.2751  0.1558 -0.2683
 2042W        W77030  22.272  22.661  14.040 -0.0706 -0.4432  0.0883
 2043W        W77031  14.749  27.326   4.382 -0.0094  0.1458  0.0039
 2044W        W77032  11.919   9.766  10.481 -0.0375  0.1069 -0.0180
 2045W        W77033  11.663  16.723   9.877  0.1075  0.1900  0.1360
 2046W        W77034   7.525  10.617  24.169 -0.1328  0.1596  0.1575
 2047W        W77035   3.623  35.381  10.361 -0.4074  0.0847 -0.0761
 2048W        W77036  13.990  13.134  25.309 -0.0774 -0.1150  0.1300
 2049W        W77037  12.571  33.394   6.592 -0.3362  0.0960  0.0652
 2050W        W77038   2.547  22.592  16.398 -0.0325  0.0515 -0.3316
 2051W        W77039   8.137  26.704  13.695 -0.2971  0.0583  0.3648
 2052W        W77040  20.626  12.934   8.337 -0.3779 -0.1788 -0.0767
 2053W        W77041  11.635  24.857  23.204 -0.0122  0.1389  0.1652
 2054W        W77042  15.514  26.777   7.633 -0.0746  0.0027 -0.0128
 2055W        W77043  22.393  20.273  21.195 -0.0106 -0.0899  0.0649
 2056W        W77044  27.304  12.706   7.771  0.0800 -0.0926 -0.0843
 2057W        W77045  20.698  13.931  15.276  0.0039 -0.0151 -0.1223
 2058W        W77046  11.323  27.365  23.377  0.0241 -0.3374  0.3869
 2059W        W77047  12.567  29.139   7.524 -0.0945  0.1840 -0.1566
 2060W        W77048  27.602  30.322  21.339 -0.2701  0.0393  0.0002
 2061W        W77049  27.521  29.120  14.591 -0.1605  0.0888 -0.0938
 2062W        W77050   6.565  31.197  13.862 -0.0090  0.1323  0.1217
 2063W        W77051   9.425  13.470   1.402 -0.2461 -0.0729 -0.1089
 2064W        W77052  19.547  28.681   5.655  0.1366 -0.1841  0.1237
 2065W        W77053   5.357   3.632   3.927 -0.2501  0.2225  0.0374
 2066W        W77054  18.533  25.030  26.119 -0.2493  0.1092 -0.0907
 2067W        W77055  34.967  22.743  16.726 -0.2241  0.0578  0.0551
 2068W        W77056  20.524   2.894   7.732  0.0556 -0.0523  0.2173
 2069W        W77057   6.130  29.852   5.734 -0.0818 -0.0232 -0.0592
 2070W        W77058  21.837  12.705   1.512  0.2364  0.1018  0.1727
 2071W        W77059  34.928   0.172  19.969  0.0055  0.2062 -0.1848
 2072W        W77060  34.316  27.233  23.333  0.0410  0.3998 -0.2435
 2073W        W77061   0.723  16.528  23.307 -0.0927  0.1681  0.1662
 2074W        W77062  24.163  14.733  21.640 -0.3010  0.1519  0.2033
 2075W        W77063  30.000  14.454   5.482 -0.0220  0.2251 -0.3829
 2076W        W77064  27.453   7.863  13.660 -0.1298  0.0832 -0.0124
 2077W        W77065  22.606  24.009  24.744 -0.2085  0.3646 -0.1454
 2078W        W77066  17.934   3.360   6.226 -0.0720 -0.0753  0.1471
 2079W        W77067  13.222  17.620  11.881 -0.0377  0.1122  0.1510
 2080W        W77068   8.770  10.285  21.113 -0.0627 -0.1489  0.0296
 2081W        W77069   8.865  28.893   8.522 -0.3140 -0.1966 -0.0333
 2082W        W77070   9.452  11.958  20.232  0.1185 -0.0289 -0.0246
 2083W        W77071  14.265  28.529   7.229  0.3117  0.0316  0.3495
 2084W        W77072  31.331   1.554  25.903  0.1253 -0.0202 -0.1829
 2085W        W77073   2.215   0.349  18.063 -0.2133  0.0917  0.2488
 2086W        W77074  27.696   1.544  15.768 -0.1629  0.2060 -0.1232
 2087W        W77075  21.571  11.180  16.810  0.3178 -0.3576  0.2107
 2088W        W77076  15.178  23.185   4.106  0.1312 -0.3385  0.1133
 2089W        W77077   2.812   2.844  26.175 -0.0218 -0.2836  0.0512
 2090W        W77078  14.698  17.255  19.322  0.1689  0.0655 -0.2716
 2091W        W77079   8.459  13.666  20.112 -0.1971  0.2697 -0.0226
 2092W        W77080  26.378  33.955  24.703  0.1637 -0.0501 -0.0783
 2093W        W77081  17.500  19.731  11.190  0.0148 -0.2623  0.0520
 2094W        W77082  24.024  24.793  14.440 -0.1573  0.1132 -0.2620
 2095W        W77083  25.426  24.797   0.591  0.1611 -0.0093  0.1068
 2096W        W77084  13.321  25.966  26.200 -0.0221 -0.1474  0.1994
 2097W        W77085  16.807  12.789   6.123 -0.2529 -0.1806 -0.3259
 2098W        W77086  32.661   6.776   0.711 -0.0136  0.1907 -0.2253
 2099W        W77087  27.754   0.821  23.991  0.2572 -0.1316 -0.0652
 2100W        W77088   2.073  11.192  16.495  0.1771  0.2275 -0.0103
 2101W        W77089  13.940  12.669  24.056  0.1201  0.3156  0.1441
 2102W        W77090   8.833  19.084  12.701  0.1055  0.2774  0.1368
 2103W        W77091   3.804   3.690  16.183  0.1645 -0.2982 -0.1300
 2104W        W77092   3.191   3.349   1.735  0.0248  0.2132  0.3527
 2105W        W77093  11.550  20.028   6.725 -0.2731 -0.3066  0.0734
 2106W        W77094  25.749  12.064  19.590  0.0022 -0.0211 -0.2273
 2107W        W77095  10.782  24.873  23.326 -0.0694 -0.1630 -0.0001
 2108W        W77096   4.450  19.534   3.726 -0.0469 -0.0279  0.0744
 2109W        W77097   2.479  19.995  11.696  0.0160 -0.1410 -0.2527
 2110W        W77098  11.850   0.331   9.787 -0.0580  0.2490  0.1842
 2111W        W77099  21.219   0.976  25.347  0.1963  0.2702  0.0953
 2112W        W77100   1.095  17.272  15.918 -0.3350 -0.4862 -0.4427
 2113W        W77101  15.879   9.750  20.121 -0.1072 -0.1216  0.1300
 2114W        W77102  13.836  20.085   7.011 -0.0813  0.1066  0.0858
 2115W        W77103  26.158  16.011  11.367 -0.0630 -0.0027 -0.1977
 2116W        W77104   7.940  24.656  12.932  0.1173 -0.0126  0.1369
 2117W        W77105   0.251   5.141   1.752  0.2035  0.2957 -0.2832
 2118W        W77106  15.546  13.966   8.124 -0.1517 -0.1808  0.1743
 2119W        W77107  33.831  17.974  17.947 -0.1311  0.0909  0.0219
 2120W        W77108   2.357  11.337  14.752  0.1204  0.3555  0.0313
 2121W        W77109  34.870   6.814  16.689 -0.4219  0.0086 -0.0274
 2122W        W77110  19.998   5.869   0.150 -0.0186  0.1431  0.1007
 2123W        W77111   7.025   4.284  12.056  0.1672 -0.1340 -0.1300
 2124W        W77112   4.139   0.048  19.157 -0.1193 -0.1330  0.4616
 2125W        W77113  34.228  28.995  25.366 -0.0662  0.3498 -0.1398
 2126W        W77114  35.322  32.304   3.871  0.0076  0.0564  0.2330
 2127W        W77115   1.687   3.376  18.332  0.0387  0.2931  0.1964
 2128W        W77116  27.762  34.452  13.072 -0.2522 -0.2363  0.1561
 2129W        W77117  17.233   7.611   4.254 -0.2699 -0.1849  0.2428
 2130W        W77118  14.701   7.195  18.992  0.1140  0.3869  0.0153
 2131W        W77119  18.869  25.764   2.707 -0.4954  0.2959 -0.0119
 2132W        W77120  12.801  27.884  12.181  0.0673  0.2184 -0.3104
 2133W        W77121  13.878  31.336  21.944  0.2902 -0.1232  0.2631
 2134W        W77122  10.328  25.168   6.765  0.2588 -0.1304  0.1678
 2135W        W77123  32.393  15.554  18.845  0.0053 -0.1221  0.0327
 2136W        W77124  20.943  30.234  17.810 -0.3306  0.0672  0.2326
 2137W        W77125  18.628  11.459   4.713 -0.2458  0.1245 -0.0400
 2138W        W77126   2.478   0.887   1.814  0.2456  0.0494  0.0836
 2139W        W77127  34.525  13.199  15.097  0.0645  0.0014  0.2159
 2140W        W77128   5.719  23.254   8.318  0.0434  0.0697  0.2300
 2141W        W77129  13.885  20.971   6.020  0.0418 -0.1330 -0.0489
 2142W        W77130   6.249  18.482  22.428 -0.1897 -0.1813  0.2749
 2143W        W77131  32.269  22.808  24.041  0.1946 -0.1695  0.1051
 2144W        W77132  29.709  24.041  16.914 -0.2485 -0.1310 -0.3288
 2145W        W77133  25.758   3.144  11.762 -0.0848 -0.3161  0.3499
 2146W        W77134  30.118  18.489   6.177 -0.3552 -0.0819  0.0536
 2147W        W77135  18.684  11.147   8.969 -0.0262  0.0039 -0.2693
 2148W        W77136  26.811   7.335  11.741  0.0972  0.2262 -0.1955
 2149W        W77137  26.658   6.832   1.860 -0.4421 -0.2860  0.0673
 2150W        W77138   1.033  34.261   2.043 -0.0462  0.1922 -0.0805
 2151W        W77139  17.281  32.862   0.369 -0.0205  0.2111  0.1905
 2152W        W77140   8.043   0.463   5.696 -0.2039 -0.1053 -0.2200
 2153W        W77141  32.508  12.280  14.016  0.0559  0.1023  0.0888
 2154W        W77142   1.849  33.506  23.129 -0.2009 -0.0747  0.1654
 2155W        W77143   9.954  20.379  23.326 -0.0562 -0.2737 -0.0629
 2156W        W77144  11.624   0.367   2.943  0.1828 -0.0840 -0.0420
 2157W        W77145  14.149  29.616   0.856 -0.2618 -0.1283 -0.0868
 2158W        W77146  26.864  18.772  19.143 -0.2732 -0.1817 -0.3360
 2159W        W77147  17.734  26.124  22.391 -0.0944 -0.3860 -0.1155
 2160W        W77148  21.890   9.533   4.257 -0.0744 -0.0638 -0.0284
 2161W        W77149   1.284   6.395  15.910  0.0240  0.0798  0.0761
 2162W        W77150  29.443  24.121  13.325  0.0610  0.1205  0.6218
 2163W        W77151  30.042  33.185  19.643  0.1927 -0.0783 -0.1506
 2164W        W77152  16.742  25.883  24.025  0.0075  0.0201 -0.1689
 2165W        W77153  13.653   5.025  11.491  0.1430  0.0280  0.0965
 2166W        W77154  24.741   1.780  24.054  0.0637  0.2888  0.1205
 2167W        W77155  11.737  12.345  19.675  0.3157  0.0887 -0.1432
 2168W        W77156  32.649  18.101   9.123 -0.1931  0.4972  0.1970
 2169W        W77157  29.839  16.037  10.087 -0.1979 -0.1020 -0.0133
 2170W        W77158  33.801  12.739   8.706 -0.0240 -0.0703 -0.0649
 2171W        W77159  24.720  10.053  13.339 -0.0736 -0.1658 -0.3721
 2172W        W77160   9.395  20.518   3.806  0.0347 -0.0372  0.0071
 2173W        W77161   7.707  16.430  22.224  0.1507  0.1706  0.0632
 2174W        W77162  24.860   4.746  16.107 -0.4614  0.0004 -0.0172
 2175W        W77163  13.351  13.813  24.037  0.3811  0.0117  0.2345
 2176W        W77164  27.409   1.246  23.309  0.0459  0.1786 -0.0087
 2177W        W77165  10.732   5.647  21.324  0.2016  0.0061  0.2549
 2178W        W77166   3.740  30.839   8.774 -0.0273  0.1577 -0.4157
 2179W        W77167   4.786  21.156  21.834  0.1752 -0.0251 -0.2019
 2180W        W77168  15.332  16.514   4.133  0.0098 -0.1280 -0.4156
 2181W        W77169  34.083  26.692   0.923 -0.2505 -0.0033 -0.0321
 2182W        W77170  27.061   7.966  14.490 -0.0046  0.1067 -0.2981
 2183W        W77171  17.884  14.766  23.573  0.1146  0.0538 -0.1386
 2184W        W77172  28.694  12.985  21.563 -0.1257  0.0039  0.1177
 2185W        W77173  27.098  21.273  10.980  0.1347 -0.0427  0.0446
 2186W        W77174  29.674  33.786   4.315 -0.1165  0.0636 -0.2768
 2187W        W77175  17.172  24.775   7.241  0.0933  0.0658 -0.0860
 2188W        W77176  23.389   7.779   5.029  0.0379 -0.2194  0.0352
 2189W        W77177  19.801   9.831  25.669 -0.1499  0.1089  0.1670
 2190W        W77178   5.104  12.600   7.638  0.2836  0.0429 -0.2898
 2191W        W77179  16.961  10.918  22.282  0.0046 -0.1614 -0.1313
 2192W        W77180  20.578  33.127  21.229  0.0654  0.2028 -0.2075
 2193W        W77181  23.172  33.237  21.933  0.1605 -0.2946  0.0293
 2194W        W77182  13.408  19.366  10.781 -0.0931  0.0347  0.0951
 2195W        W77183  23.452   9.081  24.103  0.0882  0.3536  0.0347
 2196W        W77184   3.765  24.981  24.284 -0.0712 -0.2809  0.2664
 2197W        W77185  14.747   2.515  24.911 -0.7619  0.0762 -0.2740
 2198W        W77186   1.651  15.372  16.459 -0.2398  0.0999  0.2700
 2199W        W77187  26.228   9.013  19.931 -0.2530  0.1514  0.1327
 2200W        W77188  33.017   2.173  14.653  0.2141 -0.0934  0.3759
 2201W        W77189   7.936   5.481  25.839  0.0615 -0.0777  0.0464
 2202W        W77190   6.835  23.871   5.564 -0.0906 -0.0163  0.3218
 2203W        W77191   1.035  33.371  20.336 -0.0468  0.0634  0.1946
 2204W        W77192  18.976   1.337   6.756 -0.1967 -0.1284 -0.0291
 2205W        W77193  30.906   5.828  17.748 -0.0054 -0.2234 -0.1640
 2206W        W77194  32.300  20.525  18.449  0.0767 -0.3934  0.1589
 2207W        W77195  22.064  12.722  20.534  0.1864  0.1344  0.0940
 2208W        W77196  13.970  35.376  26.156 -0.0378 -0.0205  0.0239
 2209W        W77197   7.167  23.735  22.736 -0.0488  0.2999  0.0884
 2210W        W77198   6.574  25.302   6.739 -0.0501 -0.1077  0.3248
 2211W        W77199  14.191   1.339  25.592  0.0149 -0.0343  0.2225
 2212W        W77200  19.830  27.143   5.476  0.0327 -0.0651  0.0178
 2213W        W77201  20.191   8.919   5.005 -0.0910 -0.1915 -0.2787
 2214W        W77202   1.322  19.498  24.481  0.3678  0.2061 -0.0903
 2215W        W77203   9.375  13.598  17.978 -0.1928 -0.2137 -0.1690
 2216W        W77204  20.731   4.888  15.522  0.0371  0.1165  0.3170
 2217W        W77205  30.187   9.899  22.873  0.0189  0.0660 -0.1858
 2218W        W77206   9.998  32.905   1.388  0.1303  0.0982 -0.3015
 2219W        W77207  24.962  13.280  18.871 -0.0099  0.0331  0.0753
 2220W        W77208  19.229  30.314  17.642 -0.0510  0.0194 -0.0240
 2221W        W77209   3.979  15.783  14.863  0.1798 -0.0568  0.0900
 2222W        W77210   9.698   4.927  15.250 -0.0239 -0.2893 -0.2122
 2223W        W77211  20.612  20.016   0.081 -0.0600 -0.4766 -0.2237
 2224W        W77212   4.054  24.429  23.116 -0.0154 -0.0921  0.1317
 2225W        W77213  12.020   4.346  23.960 -0.1948 -0.1592  0.2468
 2226W        W77214  13.214  33.655   4.682  0.0266  0.0229  0.3898
 2227W        W77215   7.475  13.858  18.397 -0.0293  0.1663 -0.0536
 2228W        W77216  29.607  10.909  15.058 -0.3258 -0.0478  0.0423
 2229W        W77217  19.610   7.755  10.549 -0.2427  0.0072 -0.1099
 2230W        W77218   6.347  30.184   3.364  0.4213  0.1424 -0.2878
 2231W        W77219  13.170   4.815  25.500  0.4063 -0.0343 -0.1619
 2232W        W77220  32.506   1.664  12.067 -0.1384 -0.1131 -0.0682
 2233W        W77221  10.522  22.713  25.005 -0.0211  0.1225  0.2435
 2234W        W77222  13.285  26.051  24.223 -0.0036  0.1934  0.1746
 2235W        W77223  11.029  10.762  21.028  0.1124  0.3729 -0.2517
 2236W        W77224   9.596  27.450   9.375 -0.0396  0.1107  0.1162
 2237W        W77225  33.919  31.272   2.319  0.0459 -0.1095  0.1887
 2238W        W77226   3.288   9.386   1.994 -0.0914  0.1127  0.0519
 2239W        W77227  32.906  14.270  10.983  0.0192  0.0065  0.3123
 2240W        W77228  11.600  32.461  23.402  0.5263  0.0850  0.3053
 2241W        W77229  31.166   4.926  18.880 -0.1316  0.1079  0.0803
 2242W        W77230   7.639  24.725   6.032  0.1091 -0.0349 -0.1292
 2243W        W77231  26.577   6.860  23.060 -0.1506  0.3067 -0.0935
 2244W        W77232  21.751  29.930  17.160 -0.1887  0.0319  0.0717
 2245W        W77233  19.499  10.300   5.755 -0.1221  0.0553 -0.0217
 2246W        W77234   2.506  30.595  23.523  0.1884 -0.1588  0.5811
 2247W        W77235  30.826   0.620  26.084 -0.0838  0.0779 -0.1620
 2248W        W77236  15.935  27.918   5.526 -0.0773 -0.0709 -0.1167
 2249W        W77237   2.529  22.738  21.795  0.1987  0.2020  0.1452
 2250W        W77238  33.726  19.150  25.478  0.3426 -0.0566  0.1873
 2251W        W77239  15.692  23.736  13.285  0.3737  0.1561  0.0717
 2252W        W77240  10.477  13.708   0.872 -0.1282 -0.1119 -0.0187
 2253W        W77241  27.304   6.998  23.764  0.1678  0.1337 -0.2146
 2254W        W77242  15.194  32.660   8.299 -0.3808  0.0308 -0.0535
 2255W        W77243  31.150  22.153  16.728  0.0223 -0.0388 -0.0111
 2256W        W77244  15.307   7.345   8.107 -0.2403 -0.1246  0.3119
 2257W        W77245  21.895  15.683  23.540  0.1125  0.2734 -0.0209
 2258W        W77246  10.801  27.657  24.739 -0.1707 -0.2120  0.0136
 2259W        W77247  14.104  32.578  24.855 -0.0034 -0.1120 -0.1818
 2260W        W77248  16.842  11.532  12.493  0.0627  0.1265  0.3369
 2261W        W77249  15.025  10.624  11.504  0.2223  0.0224 -0.0511
 2262W        W77250   5.649  31.948  22.746 -0.1177  0.1167  0.0994
 2263W        W77251  20.730   2.095   2.497  0.0443 -0.1631  0.3279
 2264W        W77252  12.762   9.134  22.749  0.1454  0.1442  0.0201
 2265W        W77253  33.101  34.098   3.826 -0.0593 -0.0218 -0.2934
 2266W        W77254  24.488  26.714  17.783 -0.3522 -0.2345 -0.0991
 2267W        W77255  27.242  13.857   7.694 -0.2350  0.1768  0.1408
 2268W        W77256  12.304  13.820  19.497  0.0987 -0.1419 -0.1048
 2269W        W77257  14.625  17.191  20.644 -0.5476 -0.0279  0.1857
 2270W        W77258  16.173  25.154  21.581  0.3690  0.1415 -0.1356
 2271W        W77259  14.719  21.696  24.229  0.0793  0.4613 -0.1672
 2272W        W77260  29.702  22.164  22.038  0.2109  0.2831 -0.0305
 2273W        W77261  19.890   5.745  22.657  0.4175  0.2453  0.1783
 2274W        W77262  26.448  13.407   7.848 -0.0509  0.0734  0.1279
 2275W        W77263  18.511  14.926   4.426 -0.1095  0.1871  0.3485
 2276W        W77264  31.685  34.559  23.885  0.2850 -0.1250 -0.0808
 2277W        W77265   8.614  21.234   9.026 -0.0201  0.1423 -0.1428
 2278W        W77266   9.743  21.154  14.350 -0.1354 -0.0140  0.1038
 2279W        W77267  15.332  23.872  23.145 -0.1679  0.0720 -0.1076
 2280W        W77268  34.263   0.107   3.997  0.3349 -0.4084  0.1936
 2281W        W77269  25.408  19.125  13.467  0.1937 -0.0061  0.0403
 2282W        W77270  17.264   2.116  21.921  0.4575 -0.1469 -0.0921
 2283W        W77271  15.082  34.977   7.034  0.3091 -0.0680  0.0171
 2284W        W77272  26.844  18.923  21.228 -0.2393 -0.0602 -0.0305
 2285W        W77273  18.260  32.422   2.957  0.2614  0.1410 -0.3614
 2286W        W77274   0.163  25.631  25.401 -0.3090  0.0817  0.0895
 2287W        W77275  10.091   4.066   6.713 -0.0114 -0.0677 -0.0010
 2288W        W77276   7.911   0.644   7.023  0.4656  0.4189  0.0677
 2289W        W77277  18.758  30.833   3.760  0.0318 -0.2811 -0.1046
 2290W        W77278  18.760   5.315  19.388 -0.1674  0.1181 -0.0337
 2291W        W77279  32.249   8.209  12.102  0.0268 -0.0672 -0.0457
 2292W        W77280   5.100   1.239  18.248 -0.1160  0.0111  0.0274
 2293W        W77281  34.153  26.998  23.730 -0.2306  0.2848 -0.0080
 2294W        W77282   7.313  32.427  23.382  0.0929  0.0534  0.2401
 2295W        W77283  27.146   8.303  13.360  0.0897 -0.1181 -0.0239
 2296W        W77284  28.817   7.765  24.321 -0.1214  0.0534 -0.0703
 2297W        W77285  30.832  19.554   6.691 -0.2099  0.2907  0.0425
 2298W        W77286  13.611   4.610  25.683 -0.2265  0.3235 -0.4457
 2299W        W77287  32.246  32.717  16.611  0.2433 -0.0857 -0.0489
 2300W        W77288  28.930  13.785   9.204  0.3628  0.0729 -0.0173
 2301W        W77289  29.398  28.907  22.794  0.1731 -0.3157 -0.2649
 2302W        W77290  20.151  10.926  25.756  0.0251 -0.2924 -0.0417
 2303W        W77291  21.531   2.353   7.913  0.0515  0.0795  0.1326
 2304W        W77292  10.863  29.064   9.620 -0.0132 -0.4117 -0.2167
 2305W        W77293  15.205   4.174   1.649  0.2513 -0.2836 -0.1257
 2306W        W77294  31.373  15.299   0.659 -0.0288 -0.1553  0.0809
 2307W        W77295   2.946   7.691  26.078 -0.1199  0.1966  0.2480
 2308W        W77296  33.806   9.126  16.098 -0.2434 -0.0173  0.2801
 2309W        W77297  24.267   2.868  14.958  0.0938 -0.1306 -0.1772
 2310W        W77298  26.024  25.497  25.570 -0.1788 -0.0618 -0.1070
 2311W        W77299  33.751  32.015  13.622  0.0773 -0.1028  0.1351
 2312W        W77300  23.142  18.576  19.546 -0.0948  0.0516  0.0088
 2313W        W77301  16.714  14.948  10.277  0.2325  0.0378 -0.1314
 2314W        W77302  19.867  17.861   3.014 -0.0703  0.1273  0.3030
 2315W        W77303   2.881   4.331  26.003  0.0471  0.0364  0.0716
 2316W        W77304  21.641  12.734  22.921  0.1189 -0.0924  0.0911
 2317W        W77305  30.213  21.632  21.315  0.1070 -0.1109  0.0984
 2318W        W77306  15.085   0.571   2.612 -0.1346 -0.2714 -0.2770
 2319W        W77307  14.801   6.823   3.920 -0.2075  0.1823  0.4399
 2320W        W77308  24.877   4.642   5.125  0.0199  0.1029  0.0682
 2321W        W77309  27.378   5.905  12.354  0.0382  0.0410 -0.0576
 2322W        W77310  32.259   2.818  16.679  0.3711  0.3243  0.4028
 2323W        W77311  30.613  33.614  15.168 -0.0055  0.2285  0.0225
 2324W        W77312   2.287  12.802  12.882  0.0542  0.3127 -0.0864
 2325W        W77313   9.046  19.797   7.599  0.1829 -0.1699 -0.1665
 2326W        W77314  26.513  25.731  14.869  0.0425 -0.3136 -0.0251
 2327W        W77315   6.610   3.456   9.382  0.1900  0.2679 -0.1151
 2328W        W77316  32.273   5.428  17.545  0.0879  0.1095  0.0487
 2329W        W77317  10.157  16.520   4.222  0.0635 -0.1384 -0.2046
 2330W        W77318  32.212  31.539  17.921 -0.1126  0.0454  0.0047
 2331W        W77319   2.694  15.047  23.970  0.0281 -0.0957 -0.1559
 2332W        W77320   6.724  33.501  12.854  0.2611 -0.1315 -0.2859
 2333W        W77321  30.244   9.183  24.044 -0.1167  0.4897  0.3011
 2334W        W77322  26.133  33.207  23.676 -0.4924  0.1882  0.1920
 2335W        W77323  15.618   7.377  25.028 -0.4591  0.0546  0.1073
 2336W        W77324  33.204  31.731  23.116  0.1015  0.2670  0.2235
 2337W        W77325  28.282  15.632  10.058  0.0603  0.1468 -0.0467
 2338W        W77326  27.933  24.194   8.728  0.0469  0.0113  0.0513
 2339W        W77327   2.002  14.359   3.743 -0.1527 -0.0326  0.0567
 2340W        W77328  26.199  34.072  19.091 -0.1565 -0.0934 -0.0608
 2341W        W77329   5.556  23.394   1.859  0.0223  0.0300  0.0007
 2342W        W77330  34.613  20.369  13.856  0.1141 -0.0732  0.1288
 2343W        W77331  18.829  27.805  25.073  0.3395  0.0057 -0.1034
 2344W        W77332   4.690  19.292  21.457 -0.4189  0.1744  0.0972
 2345W        W77333  10.916   7.638  13.988  0.3764 -0.3985 -0.0969
 2346W        W77334   5.026  20.245   1.474 -0.3886 -0.1831  0.0284
 2347W        W77335   3.964  26.710   5.316  0.0326  0.0696 -0.1897
 2348W        W77336  28.073   6.765  13.326  0.0437 -0.0600 -0.1560
 2349W        W77337  10.466  25.616   3.226 -0.0414  0.1688 -0.1727
 2350W        W77338   9.132   4.624  22.396  0.2919  0.0836  0.3541
 2351W        W77339  16.671   0.569   6.224 -0.1617  0.0083 -0.0601
 2352W        W77340  19.711   9.900   5.434  0.1381  0.2227 -0.0333
 2353W        W77341  13.779   2.878   6.823  0.0472  0.1343  0.1892
 2354W        W77342  12.559  24.555   4.949 -0.3291 -0.1261 -0.3175
 2355W        W77343  33.111  12.365   0.397 -0.1532 -0.2505 -0.4177
 2356W        W77344  30.539  18.458  23.000 -0.2070  0.1582 -0.2056
 2357W        W77345  27.953  20.151  17.773  0.1833  0.1566  0.0678
 2358W        W77346  27.122  16.448  19.073 -0.2450  0.4912 -0.1987
 2359W        W77347  24.313  29.519  25.951  0.0919  0.0679  0.0644
 2360W        W77348  28.804  23.405  23.007 -0.1470  0.0859  0.0026
 2361W        W77349  30.033  29.151   4.972 -0.0928  0.2557 -0.0754
 2362W        W77350  15.884  24.480   6.362 -0.2826 -0.1451  0.4241
 2363W        W77351  24.900   7.633  15.064 -0.1044  0.1426 -0.1831
 2364W        W77352  24.579  19.498  21.834  0.3193 -0.0204  0.1584
 2365W        W77353  32.144  22.128  10.813  0.1453 -0.2617  0.0955
 2366W        W77354  30.379  31.321  15.399  0.0404 -0.0996 -0.0703
 2367W        W77355   0.061   0.470  24.414  0.3806  0.1393 -0.1096
 2368W        W77356  30.510   5.738  21.180  0.2224  0.0775  0.1909
 2369W        W77357  25.005  23.144  14.021  0.0026 -0.1417 -0.1038
 2370W        W77358   9.355   6.449   1.913  0.1004  0.0992  0.2371
 2371W        W77359  22.769  33.223  23.684  0.3439  0.0731  0.1856
 2372W        W77360  25.258   3.356  24.196  0.1573 -0.2491  0.2183
 2373W        W77361  24.920  20.589  17.066 -0.0582 -0.3605 -0.1391
 2374W        W77362   4.186  19.469  17.632  0.2452  0.3232  0.0615
 2375W        W77363  14.289  14.063   6.139 -0.0017 -0.1998  0.0765
 2376W        W77364  24.077  23.865  18.236  0.0832 -0.0912  0.1485
 2377W        W77365   2.312   9.129   2.787 -0.0444  0.0246 -0.1839
 2378W        W77366   2.209  29.756   7.290 -0.1362 -0.4076 -0.1731
 2379W        W77367   1.718  18.818  21.898 -0.1862  0.0292  0.0577
 2380W        W77368  23.828   2.641   0.973  0.1715  0.0763  0.0269
 2381W        W77369   9.887  30.771  23.230 -0.2009  0.0394  0.0920
 2382W        W77370  13.941  26.186   5.939 -0.0790 -0.4025 -0.1707
 2383W        W77371   3.977  11.478   6.640  0.1447  0.3354 -0.0255
 2384W        W77372  18.214  29.346   8.265 -0.1368 -0.4163  0.0279
 2385W        W77373   3.987  19.322   4.085  0.2036  0.1363 -0.0215
 2386W        W77374  12.320  11.269  24.027  0.2563 -0.0970 -0.0080
 2387W        W77375  25.248  23.879  10.192 -0.1227  0.0721 -0.3957
 2388W        W77376  14.590   8.713  23.590 -0.0310  0.0406  0.1683
 2389W        W77377  35.262  14.814  11.974  0.0151 -0.0859 -0.0634
 2390W        W77378  35.376  18.559  18.141  0.2074  0.1677  0.0461
 2391W        W77379   3.446  31.323  21.631 -0.0095  0.1052  0.0722
 2392W        W77380   8.765  26.460   6.682 -0.1332  0.1790  0.2002
 2393W        W77381  28.370  33.507  12.141 -0.0346 -0.0682 -0.1768
 2394W        W77382   8.027  15.945   3.364 -0.1403 -0.0946  0.0594
 2395W        W77383   4.703  25.394   7.890 -0.0357  0.0671  0.0916
 2396W        W77384  24.094   3.546   7.593 -0.1569  0.0032 -0.1884
 2397W        W77385  18.311  31.140   0.261  0.0252  0.2528 -0.2848
 2398W        W77386   8.588  25.927  24.574 -0.2850 -0.0490  0.3523
 2399W        W77387   4.224   2.756   7.999  0.2500 -0.3209  0.4113
 2400W        W77388  27.041   8.924  19.669  0.0622  0.0179 -0.1279
 2401W        W77389  34.593  12.853  16.486 -0.0571  0.2917  0.0219
 2402W        W77390  10.229  31.016   7.588  0.3448  0.1649 -0.2559
 2403W        W77391  28.904   8.431  16.485  0.0461  0.3029  0.0396
 2404W        W77392  13.390  32.597   9.109 -0.0034 -0.1846  0.0514
 2405W        W77393  34.597  31.114  15.753 -0.1555 -0.1471  0.1575
 2406W        W77394   4.647  33.193   8.377  0.0693 -0.1227  0.1267
 2407W        W77395  11.512   3.586  11.964  0.3577  0.2919 -0.0706
 2408W        W77396  20.168  23.417   4.985  0.1204 -0.0677 -0.2052
 2409W        W77397  35.343  34.244  21.932  0.0805  0.1898 -0.1755
 2410W        W77398  15.337   8.229  23.264  0.2562  0.0062 -0.1594
 2411W        W77399  19.860  16.021   5.531 -0.3153  0.2274  0.1171
 2412W        W77400   4.217  10.090   2.400  0.0143  0.4209 -0.3206
 2413W        W77401   2.805  29.711   0.054 -0.2668 -0.0065  0.0330
 2414W        W77402  16.864  31.091  23.333 -0.0906 -0.0923  0.0042
 2415W        W77403  20.340  24.832   1.445 -0.2535  0.4466  0.0127
 2416W        W77404   8.325   5.129  26.238  0.0586 -0.1197  0.1092
 2417W        W77405  30.257  17.476   7.394 -0.3091 -0.0872 -0.0577
 2418W        W77406  34.219   6.828  21.552  0.1301 -0.1433  0.0352
 2419W        W77407  23.986   6.209   1.627  0.3485  0.1576  0.0016
 2420W        W77408  32.258  22.656  11.887 -0.2556  0.0705  0.0212
 2421W        W77409   6.747  11.146   4.903 -0.0668 -0.0288  0.2526
 2422W        W77410  28.952  34.474  20.032 -0.0702  0.0933  0.2975
 2423W        W77411  19.175   7.346  25.470  0.0349  0.1144 -0.0276
 2424W        W77412   2.551  11.422   2.653  0.1226 -0.1871  0.0503
 2425W        W77413   8.624  29.946  10.573 -0.1428 -0.1542 -0.0919
 2426W        W77414   0.891  15.963  12.234  0.3009 -0.0860  0.1240
 2427W        W77415  22.349  17.069   3.527 -0.0510  0.1683  0.2266
 2428W        W77416  11.868   9.138   4.183 -0.0088 -0.3902 -0.1824
 2429W        W77417  31.658   3.624   3.122  0.0274  0.1312 -0.0613
 2430W        W77418  34.034  29.909  14.264 -0.2588  0.2982  0.0879
 2431W        W77419   3.776  21.560   0.450  0.0842 -0.2810 -0.2204
 2432W        W77420   6.922   9.183   0.570  0.0563  0.0812  0.2855
 2433W        W77421  32.532  33.434  25.837 -0.0783  0.1938  0.1764
 2434W        W77422  29.144   8.436   0.971  0.2600 -0.2343 -0.0724
 2435W        W77423  21.934  34.797  19.444  0.0829  0.1327  0.1218
 2436W        W77424  31.926  22.749   7.702  0.2163 -0.1712 -0.0845
 2437W        W77425  15.226  19.713   2.085 -0.0494  0.1243 -0.3514
 2438W        W77426  31.280  16.595  22.191  0.0437 -0.1644 -0.5478
 2439W        W77427  16.957  29.187   2.824  0.0621 -0.1659  0.0680
 2440W        W77428   3.664  15.736  25.457 -0.0190 -0.1843 -0.2182
 2441W        W77429  21.293  18.635  25.348 -0.4046 -0.0428 -0.2351
 2442W        W77430  25.839   4.043  18.556 -0.1145 -0.0497  0.0400
 2443W        W77431  16.298   7.589  19.774  0.0063 -0.0544 -0.0608
 2444W        W77432  22.439  19.045  23.383  0.1207  0.0213 -0.1823
 2445W        W77433  10.814  33.061  15.723 -0.0450  0.2317  0.0466
 2446W        W77434  31.338   5.591  22.521  0.1372  0.4068  0.0198
 2447W        W77435  26.278  24.296  10.910 -0.0949 -0.1715 -0.2652
 2448W        W77436   0.729  10.199   1.964  0.1272  0.0974  0.1024
 2449W        W77437  26.651   1.427   2.933 -0.0323  0.1618 -0.0465
 2450W        W77438  23.743   0.575  26.096  0.1923  0.3627  0.3931
 2451W        W77439   7.753  32.493   0.916 -0.0776 -0.0499 -0.0620
 2452W        W77440  22.977  23.618  21.703 -0.0279  0.0236 -0.1574
 2453W        W77441   6.817  32.448  23.162 -0.3685  0.0947  0.3114
 2454W        W77442  21.096   4.190   4.586 -0.1858 -0.0585 -0.0690
 2455W        W77443  15.220  34.499   2.397  0.3000 -0.0278  0.1015
 2456W        W77444  33.259  27.790   2.229  0.1820  0.2333 -0.0723
 2457W        W77445   2.354  20.488  20.283  0.1583  0.0346 -0.2211
 2458W        W77446  24.911  32.891   2.305 -0.2261  0.0612  0.0905
 2459W        W77447  18.592  12.497   4.233  0.0004 -0.0073  0.1409
 2460W        W77448  28.587  28.806   2.368  0.2058  0.0114  0.3694
 2461W        W77449   3.182   7.831  17.929 -0.1163 -0.3034 -0.1892
 2462W        W77450  31.763  25.032  17.450 -0.1810  0.1324 -0.0809
 2463W        W77451   4.691  27.570   6.816 -0.2702  0.2552  0.3710
 2464W        W77452  24.855   6.725  24.883  0.1922  0.4172 -0.1267
 2465W        W77453  12.856  32.687  11.476 -0.0629  0.0667 -0.5004
 2466W        W77454  32.955   3.889  24.376 -0.0724 -0.2531  0.2841
 2467W        W77455  24.280   9.263  18.479  0.0734 -0.0728  0.0153
 2468W        W77456  27.447   5.737  25.497  0.0174 -0.1190  0.0184
 2469W        W77457  26.351   5.718   2.473 -0.1501  0.1736  0.0326
 2470W        W77458   7.594   1.245   1.024  0.0756 -0.3196 -0.0752
 2471W        W77459  35.082  18.168  19.287 -0.1327  0.1546  0.1226
 2472W        W77460  13.198  15.022  20.690  0.1885 -0.0186 -0.0283
 2473W        W77461   9.779   8.550   4.026 -0.1263 -0.0130  0.1601
 2474W        W77462   1.180  30.061  23.634 -0.0308 -0.2259 -0.0238
 2475W        W77463  32.997   1.950   0.233 -0.0060  0.0976 -0.0707
 2476W        W77464  28.069   8.960  12.624 -0.1531  0.1794  0.2810
 2477W        W77465  11.124  20.918  23.478 -0.1735 -0.0880  0.0543
 2478W        W77466  22.323   9.694  24.992  0.3145  0.0596  0.1944
 2479W        W77467  16.497  27.005  23.300  0.0316 -0.2178 -0.0747
 2480W        W77468  13.048  29.028  21.145 -0.0839  0.1333 -0.0515
 2481W        W77469  31.678   5.545  10.901  0.0228  0.1682 -0.1147
 2482W        W77470   9.749  15.145  22.803 -0.1614 -0.0355  0.2145
 2483W        W77471  10.106  10.979   6.819  0.4337 -0.1612 -0.0194
 2484W        W77472   5.020  23.200   2.283  0.1519 -0.0918  0.2750
 2485W        W77473  15.827  27.554  25.855 -0.0495  0.2115 -0.0260
 2486W        W77474   2.964  14.288  23.158 -0.1524  0.2167  0.1215
 2487W        W77475  10.891  20.936  23.052  0.1246  0.0123 -0.2917
 2488W        W77476  16.903  28.553  20.358  0.0267 -0.1446 -0.0065
 2489W        W77477   7.283   9.202  24.747  0.3819 -0.0539 -0.0596
 2490W        W77478  19.002  13.106   7.587 -0.2474  0.0784  0.2877
 2491W        W77479  16.102  11.579   0.332  0.1398 -0.0998  0.2791
 2492W        W77480  14.040   9.859   1.732 -0.0406 -0.2290  0.2407
 2493W        W77481  13.558   7.345  12.936  0.1292  0.1788 -0.3430
 2494W        W77482   5.140   8.160   4.294 -0.2476 -0.0968 -0.2197
 2495W        W77483  33.191  23.322  25.374  0.3236 -0.1012  0.0386
 2496W        W77484   9.262  15.728  21.731 -0.0478  0.0922 -0.1287
 2497W        W77485  10.282   6.142  10.107 -0.0859  0.1799  0.3451
 2498W        W77486  19.203  13.981  20.076 -0.2390  0.0505 -0.0347
 2499W        W77487  34.965   8.025  11.681 -0.1912 -0.1507 -0.0833
 2500W        W77488  34.981   3.027  19.666 -0.0605  0.0944 -0.1917
 2501W        W77489  34.934   9.774  12.117 -0.0391  0.0345 -0.2632
 2502W        W77490  29.528  16.983  23.735  0.3693 -0.1383 -0.0897
 2503W        W77491  25.271   8.259  24.605 -0.2431 -0.2162  0.0522
 2504W        W77492   9.472  33.814   7.635  0.3258 -0.1064  0.1737
 2505W        W77493  11.198  15.948  21.908  0.0038 -0.0367 -0.4002
 2506W        W77494  19.869  31.189  17.522  0.0149  0.0065  0.0563
 2507W        W77495  13.361  12.524  21.234 -0.1572  0.1881  0.1128
 2508W        W77496  22.619  23.438  25.059  0.0324  0.1036 -0.1482
 2509W        W77497  24.273  27.418   0.006  0.3380 -0.0104 -0.0863
 2510W        W77498   4.057   4.784  19.914 -0.0520 -0.2286  0.0707
 2511W        W77499   3.129   6.109   6.485  0.3264  0.2599 -0.1718
 2512W        W77500  34.008  15.941   0.523 -0.2127 -0.0621  0.2539
 2513W        W77501  27.124  28.112  24.513  0.3056 -0.1558  0.0683
 2514W        W77502  14.566  20.132   2.555  0.1508 -0.2045 -0.2837
 2515W        W77503  29.681  27.267  24.941  0.0764  0.1326  0.2090
 2516W        W77504  32.496   0.067  24.622 -0.0309 -0.0845  0.4241
 2517W        W77505  23.636   9.139  15.425  0.0763  0.0008 -0.1260
 2518W        W77506  24.897  21.647  11.119 -0.1604  0.1425  0.3661
 2519W        W77507   2.818   7.861   7.064 -0.0760 -0.0126  0.0513
 2520W        W77508  19.162  22.052   0.699  0.0996 -0.2652  0.6195
 2521W        W77509  32.512   7.801  18.828  0.2495  0.1233 -0.1396
 2522W        W77510  16.937  30.823   6.442  0.0222 -0.1397  0.2672
 2523W        W77511  32.072  31.479   5.136  0.1169  0.0768  0.3086
 2524W        W77512   2.152  13.830   0.735  0.2407  0.1623 -0.4195
 2525W        W77513   8.415   2.477  23.051 -0.2567  0.0592  0.0547
 2526W        W77514  19.977  32.399  23.901 -0.0047  0.1142  0.1908
 2527W        W77515  21.668  33.544  16.469  0.1187 -0.0693 -0.0862
 2528W        W77516  20.373  23.788   2.702  0.0205 -0.0482 -0.2570
 2529W        W77517  27.106  12.638  16.570 -0.2178  0.0563 -0.3354
 2530W        W77518  31.851  14.205   8.361  0.2139 -0.0499  0.2744
 2531W        W77519   4.424  33.729  12.269  0.1977  0.2764  0.0969
 2532W        W77520  29.910  21.390   7.250 -0.1115  0.2264  0.0375
 2533W        W77521   3.163  27.031  11.952  0.1809  0.2740 -0.1674
 2534W        W77522   3.734   7.865  20.165  0.1039 -0.3532 -0.3505
 2535W        W77523  19.289   5.956  18.605 -0.1581 -0.0424  0.2004
 2536W        W77524  24.818  11.072  12.335 -0.0207  0.1364 -0.0454
 2537W        W77525  34.042  26.080  16.614  0.1325  0.0747  0.1903
 2538W        W77526   0.202   5.930  24.481  0.1218 -0.0838 -0.3821
 2539W        W77527  19.475  10.333  19.739  0.3415 -0.1779  0.2081
 2540W        W77528  28.369   7.016  13.698  0.2456 -0.2290 -0.1664
 2541W        W77529   8.430   0.184   8.060  0.1045 -0.1063 -0.0623
 2542W        W77530  14.914  22.602   9.928 -0.3437 -0.0866 -0.4382
 2543W        W77531   1.044   7.505   1.387  0.0723 -0.0960  0.2851
 2544W        W77532  21.013   6.795  20.284  0.2908 -0.2209  0.0356
 2545W        W77533   2.108  20.589  25.747 -0.1945  0.2575 -0.3901
 2546W        W77534   9.248  27.781   3.119 -0.1507  0.0271 -0.1008
 2547W        W77535  33.423   0.079  16.676 -0.0463  0.1005 -0.0238
 2548W        W77536  17.218  26.607  10.897  0.0506  0.0235  0.0963
 2549W        W77537  34.034  11.421  10.887 -0.1102 -0.1044 -0.1181
 2550W        W77538  16.911  27.577   0.520  0.2010 -0.4315 -0.4789
 2551W        W77539  12.457  13.982  25.536  0.0428  0.1788  0.1608
 2552W        W77540  17.501  11.053   8.815 -0.1752 -0.0769  0.0105
 2553W        W77541  29.933   8.468   9.227  0.1028 -0.0600 -0.2208
 2554W        W77542   9.113  34.863  21.333  0.2034  0.0773  0.1106
 2555W        W77543  28.787  27.506  24.506 -0.0104  0.3032  0.1668
 2556W        W77544  12.208   5.796   6.092 -0.2058  0.0858  0.0082
 2557W        W77545  15.296   9.524  18.665 -0.0705  0.1036  0.0878
 2558W        W77546  33.736  11.033  16.313  0.0539  0.1192  0.2723
 2559W        W77547  25.852   5.905  21.038 -0.1619  0.0273  0.2139
 2560W        W77548  35.181   1.144   5.944 -0.2138 -0.0530 -0.1404
 2561W        W77549   8.188  34.517  21.187 -0.0709  0.1010  0.2600
 2562W        W77550   7.914  16.449   8.659 -0.0249 -0.3291 -0.0434
 2563W        W77551  20.705  32.262  25.770 -0.3588  0.2170 -0.0098
 2564W        W77552  11.825  24.405  23.079  0.0870 -0.1203 -0.1974
 2565W        W77553   0.076  18.530   2.023  0.1567 -0.0843 -0.1347
 2566W        W77554  11.380  25.928   0.331  0.0084 -0.0834  0.0368
 2567W        W77555  12.855  13.230   9.333 -0.0545 -0.0947  0.1617
 2568W        W77556  31.424   5.888  25.035  0.0963 -0.3330  0.1009
 2569W        W77557  12.839   6.266   6.534  0.1130  0.1607 -0.3055
 2570W        W77558  13.825  25.269   4.375  0.1723 -0.0710 -0.1789
 2571W        W77559   8.019  18.321  23.442 -0.3832  0.0434  0.0115
 2572W        W77560  17.973   6.545   9.736  0.4365 -0.0428 -0.1434
 2573W        W77561  18.976  25.309   7.471 -0.2815  0.0113  0.2333
 2574W        W77562  14.269  14.277   8.128 -0.1234  0.0795  0.1423
 2575W        W77563  12.790  21.287  13.834 -0.2117 -0.0836  0.0192
 2576W        W77564  12.898  18.921   7.893  0.0133 -0.0600 -0.0497
 2577W        W77565  13.186  15.408   7.854 -0.1135 -0.0717 -0.0891
 2578W        W77566  20.747   8.480   0.163 -0.2414 -0.1416  0.0422
 2579W        W77567   8.263  34.665  12.027 -0.3722  0.0175 -0.0675
 2580W        W77568  32.265   8.649  22.743  0.0649 -0.0504  0.1378
 2581W        W77569   9.693  33.441   9.016  0.1312  0.3893 -0.2427
 2582W        W77570  27.299   9.851  11.212 -0.1035  0.2025 -0.3202
 2583W        W77571   8.868   7.788  25.552  0.0953  0.3716  0.1705
 2584W        W77572  15.690  27.033   2.245 -0.2176 -0.1689 -0.1695
 2585W        W77573  15.830  14.566   1.003  0.2708  0.2399  0.2506
 2586W        W77574  31.682   8.854  11.969  0.2546 -0.2858 -0.1735
 2587W        W77575  23.258  18.975  20.252  0.2144 -0.0778  0.0611
 2588W        W77576  17.141   1.181  18.320  0.0867 -0.1401 -0.1202
 2589W        W77577  13.370  32.780  23.384 -0.3445 -0.2403  0.1702
 2590W        W77578  20.559  31.832  20.070  0.0765  0.1465 -0.1883
 2591W        W77579  10.334  29.464   2.778 -0.1523  0.3231  0.0808
 2592W        W77580  19.254  15.038  18.384 -0.1548  0.0845 -0.0119
 2593W        W77581  33.911  10.221  23.532 -0.0549 -0.1138 -0.1608
 2594W        W77582  23.965  16.994  12.858  0.0484  0.2731  0.2517
 2595W        W77583  12.521  17.190  12.197 -0.0919  0.2409 -0.2085
 2596W        W77584   1.802   6.603   6.591  0.1533  0.1611  0.3021
 2597W        W77585  23.449  14.977  16.982 -0.0638  0.2657  0.0012
 2598W        W77586  25.755  12.834   7.895  0.0087 -0.2992  0.3077
 2599W        W77587  20.001  19.893   2.433  0.1089  0.2309  0.1130
 2600W        W77588   2.738   6.698   0.287  0.3192 -0.0392 -0.1782
 2601W        W77589  26.942  20.156  18.325 -0.2820 -0.5445 -0.2007
 2602W        W77590   7.703  22.867  25.886  0.0975  0.3495 -0.0607
 2603W        W77591  19.838  31.879  20.839  0.0202  0.2419 -0.0895
 2604W        W77592  30.135   5.181  16.012  0.2039  0.0790  0.0238
 2605W        W77593  35.094  30.297   7.614 -0.0084 -0.0962  0.0077
 2606W        W77594  16.785  33.041  21.264 -0.4626 -0.2140 -0.0673
 2607W        W77595  10.954   7.987   2.698  0.1198  0.2145 -0.1575
 2608W        W77596  24.835  27.598   2.562  0.1821 -0.0101  0.0706
 2609W        W77597  19.550   4.538  24.961  0.1333 -0.1337  0.1709
 2610W        W77598  30.908  10.617   0.011 -0.2116  0.1877 -0.1063
 2611W        W77599   2.910   0.829   4.702 -0.1102  0.1255 -0.3095
 2612W        W77600  14.930  11.993  22.451  0.0957 -0.2666  0.3041
 2613W        W77601  10.881  20.051  23.536 -0.1580  0.0881  0.1540
 2614W        W77602  18.550  23.562  23.265  0.1216  0.2740 -0.1218
 2615W        W77603  10.262  21.649  15.398 -0.0981  0.2071  0.0891
 2616W        W77604  23.354   8.501  22.150 -0.2461  0.0144 -0.0182
 2617W        W77605   5.553   1.924   8.747  0.1856 -0.1206  0.0625
 2618W        W77606  18.307  16.879   0.140 -0.1164 -0.1818  0.1141
 2619W        W77607  12.728  16.351  21.699  0.1948 -0.1530  0.2271
 2620W        W77608   8.791   8.450   7.568 -0.1911  0.1250 -0.1560
 2621W        W77609  33.216  32.756  24.622 -0.4084 -0.2876  0.0233
 2622W        W77610   9.798  24.786  23.977 -0.0528  0.1220 -0.1082
 2623W        W77611   5.243  12.364   8.745  0.0330 -0.0043 -0.2864
 2624W        W77612  13.584  29.440  25.900 -0.0865 -0.3350  0.2189
 2625W        W77613  32.660   6.640  21.385  0.0030 -0.0526  0.0190
 2626W        W77614   5.732   5.266  18.450  0.0880 -0.0806 -0.0246
 2627W        W77615   8.286  17.485   5.371  0.1334 -0.1008 -0.0090
 2628W        W77616  32.072   5.265  22.135  0.2176 -0.0676  0.1806
 2629W        W77617  24.849  29.207  19.603 -0.0097  0.2222 -0.0695
 2630W        W77618   9.314  24.961  16.016  0.1109 -0.3111 -0.1248
 2631W        W77619  32.720  18.715  24.808  0.0727  0.1900 -0.0768
 2632W        W77620  13.863  35.140   4.902 -0.1294 -0.1028 -0.0091
 2633W        W77621   3.276  27.455   3.459 -0.0896 -0.0626 -0.0370
 2634W        W77622  21.513  14.007  24.004 -0.0421  0.3504 -0.0253
 2635W        W77623   7.213   0.772  20.700 -0.0895  0.1891 -0.3805
 2636W        W77624  20.813  28.361   3.276 -0.3065  0.0172  0.0771
 2637W        W77625  26.663  28.018  24.725  0.0450  0.1172 -0.3202
 2638W        W77626  24.767  23.458   1.005 -0.3046 -0.0412 -0.1649
 2639W        W77627  25.576   4.911  12.696  0.0383 -0.5913  0.0467
 2640W        W77628   3.016  30.833  11.449  0.0256 -0.1442  0.4537
 2641W        W77629  27.163  30.170   5.592 -0.3316  0.2010  0.0650
 2642W        W77630  25.279  17.121   0.836  0.1022 -0.1224 -0.1493
 2643W        W77631   3.151   0.025  20.266 -0.2571  0.0208  0.0792
 2644W        W77632  28.885  29.698  21.205 -0.0463  0.4495 -0.2290
 2645W        W77633  15.549  11.663  23.537  0.0527  0.0203  0.0357
 2646W        W77634  11.385  10.853  13.011 -0.0678 -0.0719 -0.2811
 2647W        W77635   9.317   0.668  12.600 -0.5157  0.2171 -0.2751
 2648W        W77636  20.170  15.569  20.116 -0.1647  0.0659  0.3636
 2649W        W77637  34.325  31.152  16.773  0.2044 -0.0294 -0.4727
 2650W        W77638  28.321  16.245   6.873  0.2018 -0.0411 -0.1567
 2651W        W77639  31.886  27.022  11.413  0.0403 -0.1008  0.2294
 2652W        W77640  11.270  19.581  13.160  0.0979  0.1801 -0.1827
 2653W        W77641  34.297  16.975  17.412 -0.3504  0.2217 -0.0343
 2654W        W77642  30.380  24.294  21.996 -0.1260  0.0715  0.0307
 2655W        W77643  31.898  11.458  11.102  0.0759 -0.0602  0.0231
 2656W        W77644  28.948   2.235  17.984 -0.1393 -0.2720 -0.0686
 2657W        W77645  22.741  16.089  14.313  0.1680  0.0569 -0.3130
 2658W        W77646  25.682  33.216   1.053 -0.0907  0.0477  0.2215
 2659W        W77647   9.128  24.928   1.657 -0.4171  0.1191 -0.0398
 2660W        W77648  32.695   3.421  18.132 -0.1845 -0.1431 -0.0900
 2661W        W77649   1.081  34.362   8.814  0.1241 -0.0540 -0.1339
 2662W        W77650  24.809   4.781  19.656  0.0993 -0.1418  0.0278
 2663W        W77651   6.534  34.999   3.126 -0.0534  0.0478  0.2751
 2664W        W77652  12.132   0.450  12.682 -0.0993  0.0489  0.2523
 2665W        W77653  24.532  26.224  14.733 -0.1483  0.1643 -0.3642
 2666W        W77654  16.757  33.431   2.567 -0.1857  0.2898  0.0224
 2667W        W77655  23.278  32.309  17.440  0.3186  0.1162  0.1660
 2668W        W77656   7.176  32.422  21.221  0.0641  0.1449 -0.0585
 2669W        W77657  26.316   1.051  18.589 -0.2328  0.1864 -0.1730
 2670W        W77658  27.683  21.790   9.816  0.0639  0.2329 -0.2274
 2671W        W77659  21.872   8.341  19.067  0.0068 -0.1960 -0.5156
 2672W        W77660   8.038   1.971  25.381 -0.1581  0.0168 -0.2134
 2673W        W77661   3.609  27.659  25.104 -0.2409 -0.2673 -0.0192
 2674W        W77662  30.098  27.649  19.021 -0.0438  0.3408  0.1100
 2675W        W77663  17.253  18.035   3.005 -0.2938  0.4075  0.0685
 2676W        W77664  14.050  25.073   6.962 -0.0473 -0.1273 -0.3775
 2677W        W77665  33.357   4.431  18.482  0.0211  0.1532 -0.2839
 2678W        W77666   3.520  27.096   3.807  0.0452 -0.1628  0.1015
 2679W        W77667   3.478  24.126   4.045 -0.0132 -0.2454  0.3048
 2680W        W77668  25.185  17.557  11.584  0.0083  0.0196  0.1806
 2681W        W77669  17.549  24.667   3.071 -0.1202  0.0254  0.1964
 2682W        W77670  17.321   5.343   0.962  0.2407  0.1338 -0.1909
 2683W        W77671   0.392  11.899  18.543  0.1768  0.1781 -0.0346
 2684W        W77672  28.247   5.657  22.826 -0.0117  0.0082  0.1194
 2685W        W77673  20.297  20.429  18.517  0.0553  0.2417  0.4027
 2686W        W77674  18.570   7.785   3.653  0.1844 -0.2323  0.2687
 2687W        W77675   4.606   7.974  16.345  0.2296 -0.0334 -0.0209
 2688W        W77676  19.551  29.986  22.042 -0.4027 -0.0749 -0.0438
 2689W        W77677   6.795  10.517  25.002 -0.1371  0.1112 -0.2361
 2690W        W77678   0.969  28.921  24.793 -0.0368 -0.3300  0.0202
 2691W        W77679  25.351  20.789  19.740 -0.1238 -0.0868  0.1545
 2692W        W77680  21.397   4.899  17.248 -0.0858  0.2475  0.0025
 2693W        W77681   6.052  22.766   7.271  0.0094 -0.1714  0.0638
 2694W        W77682   9.287  23.263   4.310  0.0347 -0.1521 -0.0220
 2695W        W77683   1.805  30.972  21.320 -0.1737 -0.0336 -0.1371
 2696W        W77684  33.574  10.000  12.345 -0.2317  0.0012  0.0005
 2697W        W77685   1.929  25.157  24.570  0.1824 -0.0619  0.3742
 2698W        W77686  10.225  10.116  25.570 -0.2182  0.0304 -0.1426
 2699W        W77687   4.010  31.888  20.184  0.2340  0.0080 -0.3221
 2700W        W77688  13.584  31.809   8.856 -0.0505 -0.1115 -0.0672
 2701W        W77689  16.074  22.114   3.001 -0.0936 -0.0193 -0.1636
 2702W        W77690  28.943  11.824   6.405  0.0402 -0.0407  0.1133
 2703W        W77691  18.347   2.174  21.544 -0.1272 -0.0386  0.0511
 2704W        W77692   2.614  34.667  23.485  0.0220 -0.0330  0.0238
 2705W        W77693  16.853  24.864   3.875 -0.1492 -0.1585 -0.1153
 2706W        W77694   9.859  33.312  12.349  0.2791 -0.4037 -0.2283
 2707W        W77695  24.347   5.171   4.281  0.1602 -0.1491 -0.0627
 2708W        W77696  17.533  25.999   5.822  0.2146  0.2894 -0.0982
 2709W        W77697  20.079  27.160   0.612  0.1222  0.2391  0.1983
 2710W        W77698   3.014  32.613   8.434  0.0543  0.1926  0.1643
 2711W        W77699  12.793  15.182  22.808 -0.0366  0.0023  0.0634
 2712W        W77700  18.283  22.385   0.789 -0.2522  0.1034 -0.3398
 2713W        W77701  20.152   6.977  22.076  0.3615  0.0207 -0.0127
 2714W        W77702  11.711   7.119   9.841  0.0899  0.1334  0.0917
 2715W        W77703  11.784  33.352  11.418 -0.2914  0.3074  0.1987
 2716W        W77704  30.839  23.598  15.506  0.2186 -0.0340  0.0106
 2717W        W77705  31.486  33.343  21.940  0.1359  0.0149  0.2036
 2718W        W77706   1.032  35.204   0.157 -0.1801  0.0641  0.2457
 2719W        W77707  11.622   4.609  11.972  0.1121  0.1737 -0.0810
 2720W        W77708   6.773  14.376   5.340 -0.1562  0.0431 -0.0324
 2721W        W77709  15.175  26.340   7.560 -0.0388  0.0666 -0.0322
 2722W        W77710  12.577  27.257   9.336 -0.2061 -0.0530 -0.1158
 2723W        W77711   8.058  35.149  13.791  0.1493 -0.1997  0.0740
 2724W        W77712   8.658   2.448   6.877 -0.0030  0.0419 -0.0567
 2725W        W77713  12.503  12.505  12.739  0.0193  0.0219 -0.1152
 2726W        W77714  21.233  33.970  20.074  0.0614  0.2858  0.0419
 2727W        W77715  26.813   2.288  17.920  0.1845 -0.2002 -0.1462
 2728W        W77716  12.447  34.152  19.845  0.2074 -0.2607  0.2196
 2729W        W77717  33.696  21.629  14.319  0.1433  0.0530 -0.1728
 2730W        W77718  14.744   8.529   0.101  0.0787  0.3680 -0.2202
 2731W        W77719  11.377   6.695   0.771  0.1164  0.0091 -0.2182
 2732W        W77720  19.157  30.883  16.291  0.0443  0.2429  0.0472
 2733W        W77721  15.716  11.751  14.398  0.1934 -0.0127 -0.0385
 2734W        W77722  32.564  12.956  13.547  0.0998 -0.2577  0.2490
 2735W        W77723  13.563   7.499   0.080  0.4217 -0.0302 -0.0910
 2736W        W77724  31.310  18.972  21.859  0.1288 -0.2466 -0.0266
 2737W        W77725  30.559  13.894  16.729 -0.0546 -0.3306  0.0635
 2738W        W77726  32.547   8.157  22.079 -0.0934 -0.0179 -0.3329
 2739W        W77727  34.067  11.278  14.340  0.0744 -0.1003  0.0787
 2740W        W77728  29.617  29.355  17.658 -0.0007 -0.2746 -0.3160
 2741W        W77729  29.568  24.873  25.944  0.2111  0.1405 -0.1753
 2742W        W77730  11.584  20.030  11.823 -0.0461 -0.5114  0.3844
 2743W        W77731   7.450  17.083  25.102 -0.0856 -0.0091  0.0657
 2744W        W77732   8.028  34.217  11.110  0.1728 -0.1674  0.1532
 2745W        W77733   8.469   9.196  17.807  0.0214  0.0502  0.0864
 2746W        W77734  18.260   6.365   3.629 -0.6242  0.1214 -0.2547
 2747W        W77735  20.293  30.874  24.567 -0.0017 -0.2135  0.1149
 2748W        W77736  25.595  12.970   1.866 -0.1707  0.0033  0.0319
 2749W        W77737  10.936  29.085  10.681  0.3203 -0.1153  0.0387
 2750W        W77738  13.513  10.358  25.582  0.2193  0.2186  0.0915
 2751W        W77739   7.339  20.030  21.817 -0.0675  0.0861  0.1119
 2752W        W77740  20.474  12.569   2.880 -0.3367  0.3507 -0.0774
 2753W        W77741  10.926  21.283   5.374 -0.1962 -0.0732  0.1746
 2754W        W77742  33.225  28.113  20.836  0.1800  0.1471 -0.1887
 2755W        W77743   1.540   9.754  25.230 -0.0803  0.0584 -0.1154
 2756W        W77744   0.161  10.122  15.418  0.1301  0.0700 -0.0040
 2757W        W77745  31.935  27.579  22.059  0.2717 -0.1283 -0.0216
 2758W        W77746  31.707   8.288  20.591  0.4221 -0.0315 -0.3087
 2759W        W77747  22.539  34.411   1.751 -0.1752 -0.3636 -0.1827
 2760W        W77748  22.472  26.972  19.041  0.3006 -0.5134 -0.0706
 2761W        W77749  26.689  29.235  16.244 -0.0188 -0.0907  0.2881
 2762W        W77750   6.126  12.831  17.669  0.2124 -0.1179  0.0568
 2763W        W77751  30.091  16.873   8.258  0.2828 -0.2240 -0.1380
 2764W        W77752  26.295  10.374  22.011  0.0246 -0.2146  0.1001
 2765W        W77753  25.488  16.053  16.912 -0.4568 -0.1338 -0.1290
 2766W        W77754   4.576  28.809  24.291 -0.2407  0.2059 -0.2919
 2767W        W77755   2.353  20.397  21.144  0.0407  0.2869  0.0949
 2768W        W77756   1.162  28.470  20.016 -0.0671  0.1826 -0.1497
 2769W        W77757  24.731  12.516   2.151  0.1345  0.1459  0.0056
 2770W        W77758   4.379   1.824  18.294  0.2683 -0.0098 -0.1408
 2771W        W77759  22.636  27.293  17.083 -0.1206 -0.2767  0.1713
 2772W        W77760  27.878  28.159  17.519 -0.2684  0.2651 -0.1221
 2773W        W77761   9.180  14.452   9.316  0.1512  0.0490  0.1865
 2774W        W77762  22.148   5.944  16.318 -0.0062  0.1058 -0.0228
 2775W        W77763   0.966   2.356   0.839 -0.0089 -0.4583  0.5510
 2776W        W77764   9.469  24.113   2.174 -0.2337  0.1961  0.3144
 2777W        W77765  12.024  22.336   3.893  0.1039 -0.1937  0.0788
 2778W        W77766   0.485  34.825  22.440  0.2910  0.0631  0.0952
 2779W        W77767  10.463  19.355   2.300  0.1548  0.1180 -0.0087
 2780W        W77768  27.617  12.852  17.295 -0.1193  0.0686  0.1263
 2781W        W77769   5.853  35.350  19.110 -0.4132 -0.1618  0.1295
 2782W        W77770  19.174  14.405   8.330  0.0182 -0.1589  0.0374
 2783W        W77771   4.306  24.993   1.064 -0.0707 -0.1446 -0.2735
 2784W        W77772  19.989  12.340   2.786  0.2076  0.0108 -0.0328
 2785W        W77773  13.316  23.786   9.159  0.1514 -0.1380 -0.2205
 2786W        W77774   1.326  33.012   7.554 -0.0437 -0.0381  0.0464
 2787W        W77775  30.984   9.300  15.561 -0.0598  0.3375  0.3752
 2788W        W77776   2.443   8.642   0.370 -0.1518  0.0065 -0.0458
 2789W        W77777   0.412  12.879  21.843  0.1503 -0.0694  0.0203
 2790W        W77778  12.331   6.024  21.670  0.1480 -0.1301  0.1249
 2791W        W77779  29.366   6.967  19.219 -0.3509 -0.0674  0.0138
 2792W        W77780  29.127  26.522  11.538  0.2156  0.0490  0.0607
 2793W        W77781  28.234  29.478  14.395  0.1630  0.0468 -0.2481
 2794W        W77782   7.563  27.590  23.428 -0.0404 -0.3735 -0.0427
 2795W        W77783   2.301  17.500  17.717  0.0240 -0.2979  0.1537
 2796W        W77784  29.765  17.394   7.185 -0.1091  0.0082 -0.3381
 2797W        W77785  16.264  30.790   8.994  0.0433 -0.3101  0.1227
 2798W        W77786  28.847  16.123   8.886 -0.4194  0.0600 -0.0137
 2799W        W77787   8.678  25.506  24.295 -0.0214 -0.1041  0.2156
 2800W        W77788  15.895   5.646  19.052 -0.0041  0.0430 -0.1819
 2801W        W77789  12.821  34.086  23.058 -0.0262  0.1632 -0.0818
 2802W        W77790   8.193   9.825   6.618  0.1483  0.0381  0.1866
 2803W        W77791  29.088  26.499  26.199  0.1198  0.0868  0.1477
 2804W        W77792  30.580  24.773  23.338 -0.0522 -0.0603 -0.0530
 2805W        W77793  18.291  15.137  26.177 -0.0013  0.0549 -0.1436
 2806W        W77794   7.150  10.201   9.908 -0.1041  0.2959  0.1949
 2807W        W77795  27.816  19.699   4.410 -0.1291  0.2695  0.0974
 2808W        W77796  29.431   8.489  19.502 -0.0571  0.0588  0.0112
 2809W        W77797  23.935  33.718  16.631  0.0794  0.0838 -0.1906
 2810W        W77798  25.644  22.153  24.807 -0.1053 -0.0965 -0.0922
 2811W        W77799  32.092  18.369   8.249  0.0162  0.2279  0.3819
 2812W        W77800  11.880  33.677   6.065 -0.1425  0.0130  0.0111
 2813W        W77801   2.125  16.112  25.193  0.0864  0.1688  0.1979
 2814W        W77802  12.153   6.663   2.173  0.0936 -0.0741  0.2083
 2815W        W77803  20.042  26.425   1.466  0.2007 -0.0281  0.2649
 2816W        W77804  11.625  31.986   6.228  0.0947 -0.0833  0.1154
 2817W        W77805  19.188   4.439   8.348  0.0408  0.0881  0.1630
 2818W        W77806   6.632   4.979  22.291  0.1432 -0.1275 -0.0953
 2819W        W77807  33.592   0.348   2.317  0.2831  0.1851 -0.0254
 2820W        W77808  19.963  11.770  17.382 -0.2702 -0.1798 -0.1990
 2821W        W77809  23.045  30.197  25.978 -0.0955 -0.1928  0.1466
 2822W        W77810   8.955   1.203  24.065  0.0549 -0.1177 -0.0171
 2823W        W77811  26.260  27.485  19.716  0.2477  0.1503 -0.3536
 2824W        W77812  13.157   0.560  20.897  0.2189 -0.1174  0.2664
 2825W        W77813  13.816  12.546  12.198  0.4474 -0.0947  0.4245
 2826W        W77814  24.187   4.023  12.178 -0.0064  0.0703  0.1979
 2827W        W77815   5.511  34.654  25.951 -0.3764  0.2570 -0.2357
 2828W        W77816  10.430  15.260   5.376  0.2882 -0.0698 -0.1772
 2829W        W77817   0.045   0.606   3.185  0.1181  0.0663 -0.3615
 2830W        W77818   7.802  29.820  15.937  0.0119 -0.1039  0.0531
 2831W        W77819  20.670   1.779  14.817 -0.3007 -0.3251  0.0171
 2832W        W77820   2.606  21.248   4.768  0.0398 -0.0967 -0.1444
 2833W        W77821   7.582   7.577  26.021 -0.1362  0.0398  0.1824
 2834W        W77822  21.939   0.956   8.105 -0.0840  0.0256  0.1163
 2835W        W77823  26.191  20.528   7.086 -0.0993  0.3374  0.2310
 2836W        W77824   8.817  21.609  11.854  0.0626 -0.0072  0.1216
 2837W        W77825   0.173  33.025  17.207  0.1269 -0.1555  0.0760
 2838W        W77826   3.927   0.217   9.098  0.0542 -0.3095  0.1054
 2839W        W77827  33.105  31.967   4.060  0.0403  0.4118  0.0397
 2840W        W77828  27.602   6.901  25.593 -0.0103 -0.1576 -0.5336
 2841W        W77829  27.273   2.272  15.580  0.1079 -0.0744 -0.1831
 2842W        W77830  11.287  25.132  22.974  0.1616 -0.1931 -0.1216
 2843W        W77831  17.420  27.828   7.348  0.0155 -0.0053  0.3179
 2844W        W77832  16.428  20.931  14.847  0.3173  0.1649 -0.3947
 2845W        W77833  21.993   7.335   5.888  0.4898  0.0965  0.0514
 2846W        W77834  23.485  19.933  19.154  0.1429 -0.3140  0.0500
 2847W        W77835  16.230   6.002   4.477  0.2742  0.0699  0.2278
 2848W        W77836   6.318   7.083  21.165  0.0658  0.0681 -0.1810
 2849W        W77837  14.416  20.498  25.361  0.0791  0.0811 -0.2033
 2850W        W77838  16.390  14.525   3.347  0.0600 -0.2448 -0.1163
 2851W        W77839  32.029  24.080  22.436  0.1785 -0.0825  0.2177
 2852W        W77840  10.663  15.551  12.484  0.1076 -0.3274 -0.0288
 2853W        W77841  34.305  27.075  15.571 -0.0571 -0.1915 -0.0334
 2854W        W77842   7.205  26.572  21.611 -0.0148 -0.2868  0.1055
 2855W        W77843  24.582   1.750  13.096  0.1642  0.0948  0.2538
 2856W        W77844  15.933  20.044   9.801 -0.1711 -0.2746 -0.0299
 2857W        W77845  10.970   3.479   3.087 -0.1261 -0.1379 -0.1982
 2858W        W77846  28.680  28.193  17.061  0.1898 -0.4261 -0.1844
 2859W        W77847  28.303   8.046   1.475  0.0902 -0.0770 -0.0314
 2860W        W77848  20.264   6.572   7.443  0.2360 -0.1508 -0.3001
 2861W        W77849  20.193  16.279   0.056 -0.1469  0.0435  0.1131
 2862W        W77850  28.746  32.529  21.636 -0.1378 -0.0904 -0.1141
 2863W        W77851  21.566   4.417  19.693  0.1596  0.1266  0.1955
 2864W        W77852  14.305  23.425   7.714 -0.3551 -0.1777  0.0705
 2865W        W77853  32.188  32.215  13.370 -0.2393  0.2573  0.1849
 2866W        W77854   2.717   5.425  22.166  0.2266  0.0845  0.1936
 2867W        W77855  33.833  24.756   0.652 -0.1689 -0.0494 -0.1500
 2868W        W77856   6.670  18.146   6.445 -0.4344  0.2588 -0.0163
 2869W        W77857   1.898  29.117   8.259  0.1379 -0.5844 -0.2787
 2870W        W77858  25.963  19.619   9.949  0.3571 -0.0715  0.0783
 2871W        W77859   5.749  30.325  14.655  0.1839  0.0680  0.2208
 2872W        W77860  32.153  21.893  18.782  0.2058  0.0090  0.1957
 2873W        W77861  22.132   8.269   6.922 -0.0357 -0.0887 -0.2745
 2874W        W77862  14.958   9.468   6.156  0.1806  0.2528  0.0563
 2875W        W77863  31.101   7.284  15.582 -0.1016  0.1645  0.2693
 2876W        W77864  28.426  11.501  21.702 -0.1810  0.3415  0.1179
 2877W        W77865  25.692  30.458  24.940  0.2374 -0.3292  0.1751
 2878W        W77866  30.413  26.098   0.005  0.0396 -0.1641 -0.0977
 2879W        W77867  34.895   8.324  15.878  0.0681  0.0132  0.1464
 2880W        W77868  15.558  14.695   4.682 -0.0800  0.2158  0.0757
 2881W        W77869   9.574  19.795  21.408 -0.1727  0.2007  0.1506
 2882W        W77870  27.110   6.302   3.696  0.0521  0.1022  0.1354
 2883W        W77871   2.556  27.847   3.179 -0.1327 -0.0176 -0.3167
 2884W        W77872  29.053  30.738   4.381 -0.2506  0.1278  0.1120
 2885W        W77873   9.738  20.616  14.443  0.2851  0.1312  0.2841
 2886W        W77874   8.387  35.300   6.299  0.3396  0.0953 -0.3482
 2887W        W77875   0.769  15.718  23.280  0.1244 -0.0071 -0.1931
 2888W        W77876   5.245  32.545   6.148 -0.2901 -0.4216 -0.0203
 2889W        W77877  17.454   9.706  22.149 -0.0840  0.0676 -0.1987
 2890W        W77878  12.040  14.605   1.911  0.2680  0.3045 -0.2134
 2891W        W77879   5.654  30.059   2.800  0.3324  0.1583  0.0268
 2892W        W77880   3.114  10.593  24.670 -0.1696  0.0431 -0.0286
 2893W        W77881  12.527  29.299  11.988 -0.0679  0.0100 -0.2971
 2894W        W77882   7.177   5.877  23.040 -0.1164 -0.1168  0.0787
 2895W        W77883  32.214  12.851  24.923 -0.1246  0.2353  0.0253
 2896W        W77884  34.095   3.083   1.022  0.0023  0.1405 -0.1911
 2897W        W77885  25.505  12.472  23.135  0.0304 -0.5492 -0.0575
 2898W        W77886  14.495   1.298  22.705  0.0727 -0.2226  0.2440
 2899W        W77887  15.325  19.662  11.607  0.0576  0.0010  0.4402
 2900W        W77888  13.385  16.395  22.484 -0.3628  0.1928  0.0487
 2901W        W77889  28.472  34.016  12.020  0.0511 -0.1085 -0.0587
 2902W        W77890  23.753  32.172  23.965  0.0087  0.2689  0.0247
 2903W        W77891  31.297  19.077  22.989 -0.0145 -0.2519  0.0035
 2904W        W77892  13.041   8.638  25.201 -0.2429 -0.0389  0.0711
 2905W        W77893  18.523  17.819  10.795 -0.2423 -0.0373 -0.2731
 2906W        W77894  18.324  29.685  19.981 -0.3246 -0.1889  0.1911
 2907W        W77895  11.118   3.914  19.577  0.2229  0.1015  0.0225
 2908W        W77896  14.098  21.902  11.086 -0.0083 -0.1756  0.0018
 2909W        W77897  24.059  34.675  23.930 -0.3451  0.0036  0.0973
 2910W        W77898   6.988  13.343  20.768 -0.2549 -0.4275 -0.0064
 2911W        W77899  15.635  13.431   5.887 -0.1926  0.1494  0.0171
 2912W        W77900   2.200   1.876   1.794 -0.0964 -0.0494 -0.0968
 2913W        W77901   9.773  22.393  13.790  0.0572 -0.2091 -0.0175
 2914W        W77902  13.924  18.278  11.724  0.1141 -0.1929 -0.1027
 2915W        W77903  17.305  21.870  22.013  0.0353  0.0728  0.0806
 2916W        W77904   0.727  22.661   1.551 -0.4341  0.0059  0.0798
 2917W        W77905  10.581   2.352  14.523 -0.1051 -0.0080 -0.0556
 2918W        W77906  34.722  24.089  18.281  0.1737 -0.1836 -0.1633
 2919W        W77907  20.161   3.918   4.682 -0.1711  0.2098  0.2754
 2920W        W77908  16.537  23.246   6.215 -0.0791  0.0579 -0.0161
 2921W        W77909  33.732  21.864  12.642  0.0602  0.3375  0.1538
 2922W        W77910  17.483  32.482   8.089  0.2178  0.5006 -0.0289
 2923W        W77911  34.778  31.483  22.111 -0.2275 -0.6150  0.0101
 2924W        W77912  29.998  33.490   4.057 -0.0332  0.0642  0.1168
 2925W        W77913  32.352  15.063  16.048 -0.2306  0.0481 -0.2745
 2926W        W77914   3.330  24.250  21.299 -0.1086  0.0600  0.0039
 2927W        W77915   5.164   2.998  21.127 -0.1848  0.0193 -0.0539
 2928W        W77916  14.881   7.687   2.263  0.2206  0.4287  0.0771
 2929W        W77917   3.053  32.956  10.720  0.2938  0.1534  0.1372
 2930W        W77918  15.562   8.425  22.059  0.1368 -0.3315  0.1212
 2931W        W77919  12.772  24.050   3.694  0.0590  0.3043 -0.0638
 2932W        W77920  27.561  34.550  14.242  0.0345 -0.0455  0.1625
 2933W        W77921  19.693   5.301   3.711 -0.2666  0.0782 -0.0527
 2934W        W77922  21.432  12.620  24.156  0.0185  0.1394 -0.2310
 2935W        W77923  26.045   1.576  12.855 -0.0034 -0.1878  0.3777
 2936W        W77924  31.287  28.505  26.197  0.2319 -0.0917  0.0078
 2937W        W77925  13.307  11.732  10.735  0.1611 -0.3018  0.1496
 2938W        W77926   8.721   4.230   6.479 -0.1966  0.2533 -0.1355
 2939W        W77927   5.405   0.185   3.497 -0.0704  0.2173 -0.1436
 2940W        W77928  10.129  11.797   2.869 -0.0262  0.2642  0.1569
 2941W        W77929  19.693  10.014  11.786  0.0949  0.1578  0.2344
 2942W        W77930  14.248  22.420  23.701 -0.1415 -0.0337  0.0351
 2943W        W77931  26.177  13.375  23.749 -0.1717 -0.1254 -0.1470
 2944W        W77932  13.293   6.625  20.652  0.0023 -0.0266 -0.0207
 2945W        W77933  19.176  11.344  22.433  0.0685 -0.1912  0.0272
 2946W        W77934   7.265  19.589  11.107  0.3353 -0.1211  0.0404
 2947W        W77935  34.769  35.194   5.601  0.1379 -0.1580 -0.0795
 2948W        W77936  13.906  26.361  25.729 -0.2541  0.2141 -0.0979
 2949W        W77937   4.449  17.771   2.707 -0.2210 -0.0133 -0.0946
 2950W        W77938   8.697  25.265  12.389 -0.0208 -0.0362 -0.1112
 2951W        W77939  31.000  11.878  19.994 -0.2665 -0.1425 -0.1468
 2952W        W77940   9.267  27.516  25.001 -0.0263  0.1322 -0.2658
 2953W        W77941  20.650  21.413  23.558  0.2547 -0.2736 -0.1482
 2954W        W77942  31.162  10.951  19.789 -0.1140  0.0457 -0.0670
 2955W        W77943  33.997  26.156   2.961 -0.2923 -0.1730  0.1046
 2956W        W77944  17.189  25.414  14.463 -0.1481  0.0820 -0.1496
 2957W        W77945  28.445  24.499  13.170 -0.1934  0.0386  0.0276
 2958W        W77946  15.951  10.548  22.053  0.2030  0.1984 -0.0675
 2959W        W77947  17.594  11.870   4.600  0.2634  0.2069 -0.3184
 2960W        W77948  17.267  12.768   1.105  0.1125 -0.0209 -0.0945
 2961W        W77949  21.497  28.866  17.532  0.1767  0.0811  0.2026
 2962W        W77950  19.798   2.599  18.184  0.2432  0.0569  0.2079
 2963W        W77951   8.753  18.300   5.326 -0.0865 -0.2249 -0.0009
 2964W        W77952   8.124  17.164   3.938  0.0033  0.2467  0.2043
 2965W        W77953  26.573  22.163  24.653 -0.1312  0.1373 -0.0365
 2966W        W77954   6.381   5.193  12.926 -0.2961  0.0567 -0.3114
 2967W        W77955  29.891  34.152  16.840  0.1221  0.4268 -0.1109
 2968W        W77956  25.434  34.991   0.099  0.1348 -0.0490  0.1184
 2969W        W77957  10.690   5.417  24.763 -0.0300  0.3965  0.1667
 2970W        W77958  30.114   6.890  13.745  0.1812  0.3095  0.1111
 2971W        W77959  12.805   8.578  14.486 -0.1625  0.1128 -0.0332
 2972W        W77960  26.242  13.113   7.405  0.1599 -0.2846 -0.0353
 2973W        W77961   9.312  19.400  23.115  0.2371 -0.1998 -0.3813
 2974W        W77962   2.130  30.212  21.410  0.0374  0.5505 -0.0725
 2975W        W77963   7.083   6.061  21.722 -0.2069  0.2648  0.0555
 2976W        W77964  24.948  34.485  25.559  0.3403  0.1953  0.2083
 2977W        W77965  20.312  30.757   7.827  0.0364 -0.1015 -0.1849
 2978W        W77966  20.332  14.358   0.209 -0.1100  0.1137  0.0124
 2979W        W77967  25.359  25.572  17.617  0.2459 -0.2329  0.3541
 2980W        W77968  10.001  22.258   3.606  0.0402 -0.4081 -0.0102
 2981W        W77969  22.176  33.407  21.529  0.1232  0.0590 -0.0166
 2982W        W77970  32.332  27.959   3.746  0.1615 -0.0039  0.0135
 2983W        W77971  15.919  22.225  21.410  0.0505  0.0704  0.2500
 2984W        W77972  22.677   0.560   1.681 -0.1197  0.2553 -0.1414
 2985W        W77973   0.153   0.851   0.759  0.1591  0.0328 -0.1112
 2986W        W77974  14.498  12.267   1.668  0.0694  0.1217 -0.1844
 2987W        W77975   1.023  32.611  18.171  0.3699 -0.0089 -0.0281
 2988W        W77976  14.094   7.577   0.948 -0.3563 -0.2177 -0.0114
 2989W        W77977  22.915  17.077  17.707 -0.0175 -0.0622  0.0129
 2990W        W77978  10.841  21.571   6.136  0.0829  0.1135  0.2122
 2991W        W77979   5.534  17.841   8.582  0.0368 -0.2114  0.1338
 2992W        W77980  22.361  14.716  25.856  0.0682 -0.2409 -0.2551
 2993W        W77981  28.633  21.120  24.529 -0.3299 -0.1977 -0.4638
 2994W        W77982   5.459  32.432   2.196 -0.3265  0.0778 -0.1332
 2995W        W77983  12.692  27.784   4.004  0.2047  0.3311 -0.0918
 2996W        W77984  13.234  32.905  12.381  0.2604  0.0884  0.3464
 2997W        W77985  18.232  19.126   0.948 -0.0517  0.2648 -0.0120
 2998W        W77986  25.849  15.604  11.370  0.0999  0.2747  0.0391
 2999W        W77987   9.647   0.126  15.381  0.1738  0.0861 -0.0816
 3000W        W77988   5.987   4.201  25.380 -0.1892  0.1841 -0.1051
 3001W        W77989  10.699  28.620   9.726 -0.0403 -0.1467  0.1123
 3002W        W77990  34.931  14.759  15.895 -0.1451 -0.1606  0.2472
 3003W        W77991  29.339  23.531  19.493  0.2270 -0.4602  0.0063
 3004W        W77992  11.945  22.862  23.032  0.3159  0.1578  0.1057
 3005W        W77993  16.395  17.884   0.838 -0.1550 -0.0312 -0.3418
 3006W        W77994   6.336  29.575  21.100  0.2930  0.0675 -0.0405
 3007W        W77995   3.517  32.844   8.672  0.0652 -0.1911  0.2134
 3008W        W77996  11.595  25.241   1.702 -0.1025 -0.1597  0.2635
 3009W        W77997  22.847  23.204  13.233  0.2348  0.2427 -0.0371
 3010W        W77998  34.244  28.502  19.883  0.1649  0.0025 -0.4627
 3011W        W77999  26.947  20.645  26.251  0.3968  0.0697 -0.2150
 3012W        W78000   2.328  10.481  20.589  0.0634  0.0349  0.0895
 3013W        W78001  18.114  27.719   9.594  0.1138 -0.0260  0.1421
 3014W        W78002   7.666  31.580   2.301  0.2893  0.4163  0.0413
 3015W        W78003  35.181   5.684  24.448 -0.0970 -0.2618  0.1523
 3016W        W78004   2.519   6.223  17.790  0.1281 -0.0379 -0.0513
 3017W        W78005  27.070  16.245  13.815  0.0756 -0.1954 -0.0990
 3018W        W78006  31.061  27.897  23.593  0.1938 -0.1380 -0.1674
 3019W        W78007   8.754   5.888  22.368  0.4084  0.3390  0.3679
 3020W        W78008  22.026  21.410   2.451  0.1196 -0.0663  0.2872
 3021W        W78009   1.397  32.390  21.559 -0.6845  0.0759 -0.0632
 3022W        W78010   9.669  22.862  17.248  0.2326  0.1192  0.2516
 3023W        W78011  10.892  10.099  25.420 -0.4444 -0.1328 -0.1493
 3024W        W78012   0.484  32.327   7.363  0.0014 -0.0219  0.2311
 3025W        W78013  20.133  30.446  20.992  0.0590  0.1131  0.1911
 3026W        W78014   0.474  19.350  10.247 -0.1418  0.1943 -0.1372
 3027W        W78015   2.662  30.099  23.439  0.1898  0.1482 -0.3506
 3028W        W78016  33.587  15.106  12.593 -0.1409  0.1086 -0.0236
 3029W        W78017  26.333  19.066   0.188  0.1399 -0.1751  0.0958
 3030W        W78018  27.079  25.136   0.334  0.0912 -0.0553 -0.0791
 3031W        W78019  33.380  20.531   7.118  0.0872  0.2557 -0.2474
 3032W        W78020   9.693  18.736  11.537  0.0256 -0.0074 -0.2261
 3033W        W78021   7.964  29.492  23.444 -0.4040 -0.0621 -0.0490
 3034W        W78022  20.915  18.716  21.776 -0.0360  0.1729 -0.0962
 3035W        W78023  10.821   5.044  14.481  0.1455  0.0878 -0.1186
 3036W        W78024   3.252  14.809   4.333  0.0115  0.0360 -0.0885
 3037W        W78025   3.698   4.906   1.808 -0.0686  0.2048 -0.1688
 3038W        W78026   8.629   3.228  13.700 -0.1120 -0.0089  0.2604
 3039W        W78027   7.587  15.150   3.701  0.0071  0.6392 -0.0385
 3040W        W78028  24.673  16.747   8.586  0.1997  0.1107  0.0000
 3041W        W78029  28.499   2.386   1.263  0.1433  0.1874  0.1722
 3042W        W78030   6.364  12.244   1.047 -0.0919 -0.2647  0.1828
 3043W        W78031   7.012  23.567  23.987  0.2211  0.0066  0.1910
 3044W        W78032  23.757  27.511  22.986  0.1805  0.2271 -0.1107
 3045W        W78033   5.831  16.498  19.214 -0.0527  0.2355  0.0256
 3046W        W78034  32.116  13.750  11.178  0.0874  0.2325 -0.2881
 3047W        W78035  20.655   9.806   6.525 -0.0017  0.0892 -0.0244
 3048W        W78036  14.701   5.246   9.265  0.0412  0.1625 -0.0802
 3049W        W78037  21.162   8.702  21.630  0.1769  0.0284  0.0659
 3050W        W78038  22.143  31.923  14.733  0.2157  0.0919 -0.1010
 3051W        W78039  32.592  21.957   8.899 -0.2576 -0.0082 -0.0652
 3052W        W78040  31.840  20.954  12.637  0.2612 -0.3377  0.1492
 3053W        W78041  27.271   5.302   2.067  0.1020 -0.0297 -0.1114
 3054W        W78042  29.610  14.838  21.938 -0.1267 -0.2408  0.1724
 3055W        W78043  31.526  25.313  22.964 -0.0592  0.1762  0.1011
 3056W        W78044   6.618  24.198   8.334  0.3018 -0.2445  0.3924
 3057W        W78045  32.371  27.200  19.742 -0.3091 -0.1022 -0.1626
 3058W        W78046  23.617   6.364   3.049 -0.2702 -0.0290 -0.0177
 3059W        W78047  30.783  28.621  10.486 -0.2551 -0.0724  0.1468
 3060W        W78048   0.451   0.281  18.316  0.1566 -0.2318  0.0382
 3061W        W78049  29.224   7.624  13.533  0.1647  0.1160  0.0943
 3062W        W78050  27.444   9.710  19.416 -0.1640  0.1449 -0.0590
 3063W        W78051  33.818  31.014   1.871  0.0908  0.0701  0.0208
 3064W        W78052  33.372  20.621  23.074 -0.1305  0.1519  0.0234
 3065W        W78053  27.924   9.596  13.319  0.1838 -0.0038  0.2671
 3066W        W78054  19.378   9.348   4.852 -0.1777  0.0147 -0.0737
 3067W        W78055  12.182  32.312  21.609  0.0686 -0.1806  0.1826
 3068W        W78056  34.955  20.152   8.831 -0.2315  0.0368  0.2509
 3069W        W78057  29.040   1.294  24.154  0.0270 -0.0106  0.0002
 3070W        W78058  26.161  21.786  16.844 -0.1192  0.0702  0.2180
 3071W        W78059   2.159  33.053  18.107 -0.0054  0.1427 -0.0430
 3072W        W78060  27.186  21.391  14.006 -0.1144 -0.2339  0.0481
 3073W        W78061  29.636  22.959  17.038 -0.0041  0.1249  0.0995
 3074W        W78062   7.754  23.397  22.291  0.2182  0.1324 -0.2197
 3075W        W78063   0.946  10.525   1.103  0.1588  0.1552  0.1845
 3076W        W78064  30.798   2.804   3.077 -0.1417 -0.0075  0.0584
 3077W        W78065  23.934   4.696   6.469  0.1294 -0.0795 -0.1676
 3078W        W78066  30.348   2.771   4.909 -0.1709  0.1017  0.3805
 3079W        W78067  33.447  12.904  10.041  0.1566 -0.0550  0.1862
 3080W        W78068  21.725   7.990   1.030  0.0341  0.1874 -0.0289
 3081W        W78069  33.936  32.091   6.665  0.4111  0.1584  0.0754
 3082W        W78070  29.185  31.003  14.024 -0.0092 -0.3442 -0.0481
 3083W        W78071   3.311  23.725   0.182  0.1944 -0.4913 -0.2565
 3084W        W78072  19.826  22.869  26.220 -0.1905 -0.1622  0.0082
 3085W        W78073  20.681  14.562  16.345  0.1187 -0.2759  0.0063
 3086W        W78074  33.205  32.829   4.821  0.1470 -0.0323 -0.1957
 3087W        W78075  29.273  10.766  22.588  0.3592  0.1228 -0.2503
 3088W        W78076  25.408  12.677  23.815 -0.0932 -0.1926  0.1829
 3089W        W78077  25.135  26.761  19.590 -0.1838  0.2266 -0.0364
 3090W        W78078  10.252  24.199  14.563  0.0323  0.2530 -0.2450
 3091W        W78079  13.006   0.278   4.799 -0.5018 -0.1533 -0.0110
 3092W        W78080  34.839   9.264  14.703  0.0867  0.4376  0.1519
 3093W        W78081   7.109  32.901   4.756 -0.3149  0.0463  0.2188
 3094W        W78082   7.015  21.811   2.761 -0.1656  0.0712 -0.1924
 3095W        W78083  15.437  19.986   3.288 -0.0249 -0.0293 -0.2774
 3096W        W78084  27.950  19.821  12.907 -0.3494  0.3701  0.0494
 3097W        W78085   9.208  29.615  16.845  0.0077  0.2068 -0.0923
 3098W        W78086  30.472  28.321  16.708  0.0471  0.2299  0.3219
 3099W        W78087   1.528  30.902   0.652  0.0008  0.1963 -0.1004
 3100W        W78088  27.504  26.159  25.764  0.1121 -0.0037  0.1787
 3101W        W78089  19.952   5.819   0.680 -0.0144 -0.0868 -0.3731
 3102W        W78090  11.751  11.998   8.760 -0.0097  0.1741 -0.1947
 3103W        W78091   7.734   9.435   7.733 -0.2235  0.0207 -0.0499
 3104W        W78092  19.639  21.404   2.125  0.3701 -0.1743 -0.2455
 3105W        W78093  10.526   8.979  20.059  0.3170  0.0223  0.4417
 3106W        W78094  33.109  15.082  25.739  0.0636  0.0342 -0.2778
 3107W        W78095  33.947  21.269  17.354  0.1193 -0.0555 -0.1527
 3108W        W78096  16.607  14.798  23.178  0.0977  0.0941  0.0028
 3109W        W78097  31.005  24.271  16.347 -0.1610  0.0356 -0.2449
 3110W        W78098  20.109   8.867  20.811 -0.0048 -0.1859 -0.0483
 3111W        W78099  29.892  27.831  15.869 -0.1093  0.1311  0.0370
 3112W        W78100   3.852  28.626   6.565 -0.3206  0.0868  0.2556
 3113W        W78101  35.114   6.910  15.152 -0.0426  0.0756  0.3743
 3114W        W78102  28.164  10.119  18.206  0.0489 -0.0807 -0.0104
 3115W        W78103   6.754   7.637  25.258  0.1528  0.1405  0.0140
 3116W        W78104  10.285  17.821   2.253 -0.0812  0.2313  0.0507
 3117W        W78105  12.245   2.393   7.236  0.1026  0.1142 -0.0979
 3118W        W78106  23.876  26.489  19.840  0.2773 -0.1971 -0.1695
 3119W        W78107  29.859  18.188  15.810 -0.2063 -0.1427  0.0275
 3120W        W78108  19.325  17.402  25.823  0.1634 -0.0125  0.3778
 3121W        W78109  25.623  20.219  22.884 -0.0231  0.0798  0.1752
 3122W        W78110   4.559  28.975   5.790  0.0138  0.0784  0.0665
 3123W        W78111  26.992  31.505  10.732 -0.1158  0.1933  0.1152
 3124W        W78112   5.928  16.991   8.325  0.0425  0.1759  0.0283
 3125W        W78113   6.386  16.493   5.000  0.2565 -0.0727 -0.1224
 3126W        W78114   3.090  31.516  10.556 -0.1464  0.1155  0.0032
 3127W        W78115  14.104  25.408   7.324 -0.2955 -0.0998 -0.0059
 3128W        W78116  11.643   6.170  13.384  0.2236  0.1416 -0.0556
 3129W        W78117   9.055  28.074  22.418  0.2149  0.2584  0.1057
 3130W        W78118  12.876  19.382  23.355 -0.4652 -0.3583 -0.1153
 3131W        W78119  14.743  20.845   0.142 -0.1958 -0.1727 -0.0596
 3132W        W78120  19.092  26.899   0.284 -0.2201 -0.1238 -0.0965
 3133W        W78121  25.197   6.176  20.324  0.2055  0.0326  0.2768
 3134W        W78122  34.924   3.700  18.322  0.1749  0.0537 -0.0571
 3135W        W78123  20.970  27.538   5.765  0.1340 -0.1151  0.0369
 3136W        W78124   9.169  32.355  23.100  0.2500 -0.5071 -0.0606
 3137W        W78125  17.226  27.837  23.219 -0.2279 -0.4558  0.0017
 3138W        W78126  27.872  20.256  15.097 -0.0766  0.1965 -0.2100
 3139W        W78127  20.937  32.190   7.032  0.1194 -0.0500  0.0342
 3140W        W78128   0.229  19.531  24.513  0.1011 -0.0709 -0.1157
 3141W        W78129  29.019  25.960  25.021 -0.2887  0.0184 -0.1710
 3142W        W78130   9.216  12.480   8.050  0.0670 -0.3164 -0.0431
 3143W        W78131  18.649   8.174   8.041 -0.2226 -0.3495 -0.1110
 3144W        W78132  22.835  34.397  18.304 -0.3852  0.4265 -0.1367
 3145W        W78133  26.978   9.133   9.359 -0.1034  0.0086 -0.0237
 3146W        W78134  12.202  19.595  21.207  0.1485 -0.0087 -0.2886
 3147W        W78135   8.887  27.270  14.902 -0.2935  0.1735 -0.1171
 3148W        W78136   1.566   4.035   6.114  0.1080  0.1548 -0.0390
 3149W        W78137  30.338  11.099  21.754  0.0887  0.1273  0.0740
 3150W        W78138   2.371  29.120   8.436  0.1738  0.1744  0.0544
 3151W        W78139  24.876  34.011  12.716  0.2144 -0.0444 -0.5281
 3152W        W78140  14.193  12.083  25.420 -0.2725 -0.0383 -0.0214
 3153W        W78141  18.150   8.075  23.003  0.0864 -0.2262  0.2304
 3154W        W78142   6.593  22.140  24.712 -0.1101 -0.1083  0.4230
 3155W        W78143  14.335  35.014   1.582 -0.1393 -0.5687 -0.4118
 3156W        W78144   1.057  17.532   0.999  0.1041 -0.2310 -0.1288
 3157W        W78145  21.953  23.895  24.008 -0.0530  0.1964 -0.1242
 3158W        W78146  31.110  14.098  25.894 -0.0953  0.0650 -0.0862
 3159W        W78147  17.153  33.805   5.617  0.2517  0.1955 -0.0330
 3160W        W78148   1.263  14.580  19.305 -0.2278 -0.0432  0.2039
 3161W        W78149   6.144   9.377  21.608  0.0198  0.0898 -0.0030
 3162W        W78150  13.926  32.141  25.076  0.2487  0.3082 -0.0721
 3163W        W78151  34.738   0.211  14.957 -0.2607  0.3577  0.1971
 3164W        W78152   3.474  23.312   0.351 -0.0978  0.0663 -0.0668
 3165W        W78153  24.408   5.477  16.367 -0.2171  0.1357 -0.0403
 3166W        W78154  26.980  29.279  25.389 -0.0896 -0.2250  0.2549
 3167W        W78155  23.827   3.860  26.004 -0.0784  0.0750  0.0052
 3168W        W78156  32.270   4.867  14.543  0.0826  0.1554 -0.1024
 3169W        W78157   5.175  27.522  13.842  0.0109 -0.0367  0.1747
 3170W        W78158  11.561  19.919  13.979 -0.0407 -0.0384 -0.1246
 3171W        W78159  30.931  16.397  24.185 -0.1123 -0.3187 -0.3006
 3172W        W78160   7.257   3.353  23.181  0.0041 -0.1678  0.1581
 3173W        W78161  19.631  17.106   5.803 -0.3220 -0.1653 -0.0317
 3174W        W78162  28.443  16.285  19.771  0.2877  0.1855  0.0247
 3175W        W78163   2.114  10.573  25.023 -0.1670  0.2729  0.1612
 3176W        W78164  21.506   8.099   0.054 -0.0697  0.1953  0.1169
 3177W        W78165   1.389   3.961   0.554 -0.1240 -0.0206 -0.2844
 3178W        W78166   8.528  33.421  14.043  0.0583 -0.0434 -0.0638
 3179W        W78167  22.603  34.281  25.713  0.0800 -0.1193  0.0747
 3180W        W78168  35.355  18.490  20.455 -0.0838  0.3194  0.0480
 3181W        W78169  19.468  29.946   2.708  0.1217  0.2568  0.0795
 3182W        W78170   2.633  26.924   4.982 -0.0864  0.2664 -0.0808
 3183W        W78171   3.549  28.174   7.953 -0.3452 -0.1313  0.0519
 3184W        W78172   2.487   1.460  25.136  0.0486 -0.1362 -0.0073
 3185W        W78173  23.552  20.272  22.207 -0.0426 -0.4242 -0.0394
 3186W        W78174  32.149   1.109  14.143 -0.1983  0.0609  0.2210
 3187W        W78175  13.106   7.108  22.531  0.0122 -0.0013 -0.3951
 3188W        W78176  10.969  21.776   4.517  0.1454  0.0460 -0.2233
 3189W        W78177  30.908   4.479   0.565 -0.0314  0.0431  0.2035
 3190W        W78178  25.024  22.872  25.552 -0.2730 -0.3147 -0.0164
 3191W        W78179  26.974  24.686  22.522 -0.3384  0.1018 -0.4034
 3192W        W78180  28.184   1.861   3.762  0.1075 -0.1017 -0.0338
 3193W        W78181   4.351  27.777  11.115 -0.1135 -0.3419 -0.2041
 3194W        W78182  15.816  32.990   4.410 -0.0911  0.0933 -0.2415
 3195W        W78183  32.899  34.421   2.508  0.1085 -0.2820 -0.1521
 3196W        W78184  10.784  18.919  12.802 -0.0563 -0.0893  0.1631
 3197W        W78185  33.630  27.062  18.704 -0.0165 -0.0534 -0.3073
 3198W        W78186  33.415  10.758   2.503 -0.1733 -0.1433 -0.2067
 3199W        W78187   7.936  12.184   9.923  0.0367  0.0580  0.0943
 3200W        W78188  17.618   4.387   0.403 -0.0054  0.0144  0.0615
 3201W        W78189  17.312  28.939  26.064 -0.1425  0.1553 -0.1115
 3202W        W78190  16.206  25.859  10.058  0.1328  0.2982 -0.0627
 3203W        W78191   6.634  19.604   0.823 -0.0957  0.1136 -0.1178
 3204W        W78192  22.777   6.183  21.261 -0.2738  0.1372  0.1214
 3205W        W78193  21.150  12.804   1.964  0.0299  0.0626 -0.0750
 3206W        W78194   7.574   7.366  19.041  0.4017 -0.1956 -0.0587
 3207W        W78195  29.658   8.516   7.823  0.1451  0.3208 -0.3939
 3208W        W78196   9.946  32.705  23.401  0.2550 -0.2534  0.1659
 3209W        W78197   3.890  32.940   8.265 -0.3506 -0.1491  0.1688
 3210W        W78198  15.162  26.600   0.435 -0.0474 -0.1010 -0.2922
 3211W        W78199  27.963   8.384  20.401  0.1846 -0.0005  0.0650
 3212W        W78200  28.965  34.725   3.372  0.1099  0.2101 -0.1154
 3213W        W78201   4.367   7.837  18.759 -0.2840 -0.1320 -0.0983
 3214W        W78202  27.180   7.951  23.864 -0.0136 -0.0366  0.0149
 3215W        W78203  11.983   3.908  19.828 -0.1237 -0.0639 -0.2351
 3216W        W78204  35.031  11.434  11.070  0.0386 -0.1654 -0.0002
 3217W        W78205  19.722  12.310   0.830  0.0946  0.0385 -0.0090
 3218W        W78206   8.080   3.518   8.288  0.1602 -0.1319  0.2791
 3219W        W78207   3.642  15.496  22.015  0.2641 -0.0107  0.0488
 3220W        W78208   3.572  28.636  25.829 -0.0149 -0.2024 -0.1827
 3221W        W78209  26.369  30.866  20.276 -0.0881 -0.1231 -0.1841
 3222W        W78210   5.171  35.018   5.447  0.0892  0.0874 -0.2101
 3223W        W78211  23.243   0.216  15.508 -0.0062 -0.3427  0.0509
 3224W        W78212   0.958   8.205   4.124  0.3097 -0.2892 -0.3815
 3225W        W78213   1.177  23.276  11.788 -0.1691 -0.1188 -0.1133
 3226W        W78214   3.809  12.888  22.105 -0.0190  0.1557  0.1433
 3227W        W78215  15.082  35.044  26.168 -0.1319 -0.0453  0.0323
 3228W        W78216   8.515  23.066  10.580  0.0925 -0.3615  0.1077
 3229W        W78217   8.015   3.399   9.197  0.3072 -0.0016  0.2181
 3230W        W78218   7.015  20.020   4.683 -0.2102 -0.1108  0.1481
 3231W        W78219   5.556   4.664   5.597 -0.1843  0.0731 -0.3090
 3232W        W78220  32.438   5.676  25.130 -0.4640 -0.0612 -0.1846
 3233W        W78221  30.351  22.801  10.915 -0.2224  0.1037  0.2396
 3234W        W78222  31.592   7.707  24.550  0.0974 -0.0412  0.2106
 3235W        W78223  27.790  30.344  18.002 -0.3476  0.1345 -0.0852
 3236W        W78224  20.139  11.525  22.680  0.1115  0.0201  0.0134
 3237W        W78225  10.031  10.287  19.691 -0.1380  0.0387  0.1325
 3238W        W78226  23.027   6.877  24.801  0.1060 -0.1793 -0.0272
 3239W        W78227   5.260   3.439   3.340 -0.0443  0.1261 -0.1078
 3240W        W78228  34.647   4.606  17.136  0.1095  0.2465  0.1734
 3241W        W78229  33.014  29.928  14.028  0.1824 -0.3730  0.4051
 3242W        W78230  29.430  18.881  20.873  0.0583 -0.1713  0.0268
 3243W        W78231  29.010  19.586  19.734 -0.1292  0.1688 -0.0016
 3244W        W78232   3.612  29.226   1.106  0.2404  0.1235  0.4664
 3245W        W78233  16.223  24.149   4.653 -0.0600 -0.2065 -0.3936
 3246W        W78234  33.562  20.431  20.421  0.1176 -0.3052  0.6217
 3247W        W78235  14.146   3.966  10.624  0.2715  0.3202 -0.2183
 3248W        W78236  16.183  10.853   5.540  0.0048  0.0596 -0.2162
 3249W        W78237  20.431  29.756   0.878  0.1794  0.1071 -0.1466
 3250W        W78238  15.765   1.985   6.407  0.0541 -0.1337 -0.0435
 3251W        W78239  33.516  35.151  23.903  0.0749 -0.1041  0.1754
 3252W        W78240   7.520  25.492  11.061 -0.0744 -0.1258 -0.0936
 3253W        W78241  30.075  12.680  16.203 -0.1444 -0.2665  0.1085
 3254W        W78242  27.365  23.350  18.838 -0.0445 -0.1722 -0.0966
 3255W        W78243   2.385  28.018  16.984 -0.0203 -0.0667  0.1329
 3256W        W78244   9.963  26.634  11.410 -0.0397  0.0998  0.1944
 3257W        W78245  18.528   4.456  24.182  0.0298  0.0963  0.1232
 3258W        W78246   6.316  25.268   5.071 -0.0450  0.1086 -0.0475
 3259W        W78247  24.699  11.375   0.561 -0.3298 -0.1489 -0.2287
 3260W        W78248  30.554  13.045  19.423 -0.1607  0.0716 -0.2831
 3261W        W78249  21.157   0.934  16.734  0.1479 -0.1687 -0.0536
 3262W        W78250   9.477  22.960  10.192 -0.4026  0.4882 -0.0539
 3263W        W78251   1.391  10.579  22.253  0.1548  0.3060 -0.0688
 3264W        W78252  24.037   2.333  14.878 -0.2240 -0.2436 -0.1528
 3265W        W78253  25.810  22.747  21.229 -0.0148 -0.0465 -0.1672
 3266W        W78254  20.219  10.090   0.722 -0.2428 -0.4132  0.2682
 3267W        W78255  14.426  26.011   9.559 -0.2096 -0.0633 -0.1219
 3268W        W78256  17.013  25.781  10.375  0.1364 -0.0326  0.0049
 3269W        W78257  32.909  28.315  20.250 -0.1966  0.1758 -0.0745
 3270W        W78258  22.000  27.247  18.000  0.2008 -0.1861 -0.1148
 3271W        W78259   9.330   3.376   7.133 -0.0858 -0.1165  0.0325
 3272W        W78260  20.667   7.320   9.675  0.2644 -0.1463  0.0768
 3273W        W78261   6.815  11.545   6.472  0.2361 -0.1031 -0.0157
 3274W        W78262  25.792  27.851  19.099 -0.3317  0.2095 -0.0457
 3275W        W78263  11.064  18.118   8.419  0.0361 -0.1280 -0.1406
 3276W        W78264   1.725  20.888   1.762 -0.1357 -0.2337  0.0666
 3277W        W78265  15.671  33.918  21.139 -0.1883 -0.0324 -0.0594
 3278W        W78266   7.460  17.532  26.172 -0.0027  0.0032  0.1020
 3279W        W78267  13.206  11.613   5.661 -0.3268 -0.0965  0.0164
 3280W        W78268   6.385  31.437  10.927 -0.0595 -0.0775  0.0959
 3281W        W78269  10.553   0.673   6.140  0.1493 -0.1461 -0.4527
 3282W        W78270  33.235  19.554   8.674 -0.0326  0.1185  0.3129
 3283W        W78271  24.557  25.821   1.401  0.2297 -0.0765  0.1957
 3284W        W78272  33.885  18.031  15.381  0.1599 -0.0552 -0.0909
 3285W        W78273  26.962  17.394  18.734 -0.0348 -0.2063  0.0457
 3286W        W78274   6.214  23.138   7.608 -0.2563 -0.0210  0.1796
 3287W        W78275  31.121   9.599  10.067 -0.2793 -0.0575 -0.0244
 3288W        W78276  16.848  25.358   3.772  0.2492  0.0565 -0.3607
 3289W        W78277  15.584  26.046  22.833  0.3240  0.1529 -0.2030
 3290W        W78278  34.779   7.554  22.474  0.2460  0.0031 -0.3201
 3291W        W78279  18.627  22.505   2.915 -0.0512 -0.5595 -0.1141
 3292W        W78280  27.205  21.777  11.027 -0.0451 -0.2433 -0.3095
 3293W        W78281  30.618  32.848  12.748 -0.1097  0.1505  0.1216
 3294W        W78282   2.773  32.484   5.993 -0.4524 -0.2388  0.3150
 3295W        W78283  13.192   1.938  25.499 -0.2947 -0.1761 -0.0462
 3296W        W78284   9.998   0.051   8.349  0.0804  0.0541  0.1641
 3297W        W78285   1.577   0.634   2.556  0.0105  0.1039 -0.4004
 3298W        W78286   8.914   8.003  21.380  0.0876 -0.0757  0.2326
 3299W        W78287  13.854   5.388   5.909 -0.2227 -0.0700  0.2212
 3300W        W78288  28.310  20.766  12.781  0.1879 -0.0971  0.2935
 3301W        W78289   0.999  23.587   1.983  0.2439  0.1253 -0.2084
 3302W        W78290  32.346  15.895  24.338  0.2451 -0.1227 -0.4362
 3303W        W78291   6.385  26.768  11.087  0.1825 -0.2830 -0.1300
 3304W        W78292  34.486   7.377  22.848 -0.2009 -0.1125 -0.0040
 3305W        W78293  23.098  30.064  15.706 -0.3911  0.1118  0.1361
 3306W        W78294  12.503  11.317  10.724  0.0694 -0.0513 -0.2932
 3307W        W78295   2.639  20.795  23.697 -0.0427 -0.3980 -0.0901
 3308W        W78296   2.108  35.227   7.821  0.1478 -0.0739  0.1863
 3309W        W78297  19.501  31.629  18.368  0.0146  0.2765  0.1195
 3310W        W78298  23.209  11.916  15.830  0.0157  0.3920 -0.0707
 3311W        W78299   3.926  33.542  24.725  0.0441 -0.0860  0.2073
 3312W        W78300   8.358   2.472   6.015  0.2313 -0.3204 -0.0836
 3313W        W78301   2.300  24.990   1.473  0.1533 -0.0811  0.0565
 3314W        W78302   2.295  14.522  15.815 -0.0492  0.0987  0.0433
 3315W        W78303   5.511  26.390  22.130  0.1145 -0.1906 -0.1381
 3316W        W78304  23.464  13.160  17.249 -0.0788  0.3080  0.2024
 3317W        W78305  18.233   5.243  18.442  0.0132  0.0094 -0.3851
 3318W        W78306   8.773   6.149  11.949  0.0985  0.3699 -0.1048
 3319W        W78307   8.496  31.226   3.212  0.0250 -0.1213  0.1672
 3320W        W78308  34.209  19.807  12.464  0.0405 -0.0661  0.0204
 3321W        W78309   5.360  31.343  20.177  0.0445  0.2027 -0.0286
 3322W        W78310  34.171  15.057  10.966  0.0106  0.2276 -0.0447
 3323W        W78311  10.812   6.781  24.748  0.0574 -0.2708  0.0045
 3324W        W78312  19.738  25.381  20.706  0.2057  0.0218 -0.0056
 3325W        W78313  33.904   3.870  18.150 -0.2367 -0.0103 -0.0843
 3326W        W78314  23.732  27.702  23.639  0.1001 -0.0539 -0.3163
 3327W        W78315  12.061   3.774  10.246  0.3337 -0.3644 -0.0134
 3328W        W78316   6.453   7.516   7.211  0.2216  0.0738  0.0870
 3329W        W78317   5.846  23.338   5.340  0.0602 -0.1283  0.2966
 3330W        W78318   6.331  15.412  21.264 -0.3807 -0.0431  0.0944
 3331W        W78319  14.396  26.828   0.162 -0.0733 -0.1512  0.1131
 3332W        W78320  27.570  15.222  13.347 -0.0951 -0.1372 -0.1162
 3333W        W78321   1.025   1.865  18.856  0.1509 -0.0014  0.2281
 3334W        W78322   5.559  33.255   5.781  0.0192  0.0276  0.0609
 3335W        W78323   7.111   3.096  13.157 -0.0815 -0.1991 -0.0753
 3336W        W78324  20.308  25.300  21.303  0.0465  0.3028  0.1115
 3337W        W78325  18.702  22.988   1.543 -0.1106  0.5074 -0.2366
 3338W        W78326  30.378  14.276  15.956  0.3866 -0.2460  0.1444
 3339W        W78327  20.745  17.380   4.077 -0.1839 -0.1503 -0.2418
 3340W        W78328   8.477  30.012  25.921 -0.2231 -0.2830 -0.1274
 3341W        W78329  22.572  27.266   4.540  0.1817  0.3185  0.0290
 3342W        W78330  17.431  32.242  25.789 -0.1344 -0.0516  0.1992
 3343W        W78331  14.542  10.337   6.956 -0.0242  0.0057 -0.0206
 3344W        W78332   0.627   6.013  15.362 -0.0601  0.0864 -0.0973
 3345W        W78333  14.409  27.218   3.023 -0.0618  0.0016 -0.0398
 3346W        W78334   0.634  15.497  25.100  0.1650  0.2355  0.2103
 3347W        W78335  21.663  31.900   4.547 -0.2366 -0.1557 -0.2885
 3348W        W78336  35.046  21.244  23.881  0.1350 -0.0639 -0.0297
 3349W        W78337   0.966  20.886  23.480  0.0445 -0.1889 -0.0303
 3350W        W78338   8.540  23.400  15.546  0.2981 -0.0767 -0.2028
 3351W        W78339  20.746  30.125  22.928  0.1942  0.1649  0.0656
 3352W        W78340  26.343  11.630  24.438  0.1942 -0.0010 -0.2392
 3353W        W78341   2.776  32.735   7.944  0.0531 -0.1733  0.2413
 3354W        W78342   0.580  34.629  24.837  0.2081  0.0215  0.0902
 3355W        W78343   4.113  33.026   7.243 -0.0082  0.0411  0.0190
 3356W        W78344  16.123   9.159   2.333 -0.2548  0.0821 -0.0358
 3357W        W78345  14.912  15.671   5.707 -0.3465 -0.0309  0.1184
 3358W        W78346  17.577  15.573  19.601  0.0139 -0.0174 -0.1191
 3359W        W78347  10.999  21.466  22.339 -0.1009 -0.0714 -0.2250
 3360W        W78348  21.185  18.708   0.972 -0.1171  0.0252  0.0807
 3361W        W78349  17.557   0.364   5.017 -0.2595 -0.0565  0.0051
 3362W        W78350  17.701  17.242  19.611  0.2326  0.1306  0.0546
 3363W        W78351  18.756  20.403   2.757 -0.1436 -0.2370  0.0119
 3364W        W78352  32.057  32.121  19.604 -0.0467 -0.1398  0.0771
 3365W        W78353  21.857   5.473   7.441 -0.2497  0.1081 -0.1628
 3366W        W78354   6.569  25.450  22.484  0.0682 -0.0786  0.1891
 3367W        W78355  12.284   0.229  26.239 -0.1159  0.1223  0.0709
 3368W        W78356  21.072   5.654   1.515  0.0864  0.4016 -0.2515
 3369W        W78357  20.846   0.562   6.402 -0.4047 -0.1163  0.0638
 3370W        W78358  21.788   3.876   6.290 -0.2547 -0.3894  0.0502
 3371W        W78359  26.827   5.500  23.534 -0.0374 -0.0615 -0.1392
 3372W        W78360   4.373   2.047   3.973 -0.1078 -0.3374 -0.0465
 3373W        W78361   9.106  23.527   4.746  0.2014 -0.0542 -0.0237
 3374W        W78362  21.224  26.592   4.829  0.2708 -0.1099  0.3481
 3375W        W78363   2.941   9.863  19.346 -0.0700 -0.2908 -0.2033
 3376W        W78364   1.686  11.738  18.236  0.2962 -0.0038 -0.1875
 3377W        W78365  16.837  32.394  10.277  0.1321  0.1309  0.0045
 3378W        W78366   4.523  13.141  25.902  0.0379  0.1783 -0.0062
 3379W        W78367   5.675  17.548  25.773 -0.0861 -0.0200 -0.1252
 3380W        W78368  33.229   5.339  19.843 -0.0635  0.0500  0.1535
 3381W        W78369  17.430  18.451  13.500  0.0470 -0.1352 -0.2939
 3382W        W78370  23.731  21.074  20.643 -0.0342 -0.1709 -0.1709
 3383W        W78371  15.381   2.723  11.079 -0.0171 -0.1860 -0.0138
 3384W        W78372  30.231  15.365  12.266 -0.0083  0.2793  0.0898
 3385W        W78373   5.831  13.325   5.016  0.3734  0.1639 -0.4567
 3386W        W78374  10.565   5.889  20.058  0.0165 -0.3360  0.0384
 3387W        W78375   4.432  13.262   6.567 -0.3823 -0.0166 -0.2041
 3388W        W78376  21.015  16.925  19.130  0.0448  0.0776 -0.1119
 3389W        W78377  33.063  10.993  10.292  0.2490  0.0188 -0.0365
 3390W        W78378  34.904  22.359  25.939  0.0198  0.1468  0.0048
 3391W        W78379  34.117  17.107   5.211  0.0035  0.1261 -0.0004
 3392W        W78380   7.013  33.612   5.129 -0.1166 -0.2708 -0.1440
 3393W        W78381  27.141   9.963  19.775  0.1176  0.3007  0.2085
 3394W        W78382   9.563   6.064  12.626  0.0268  0.3318 -0.0474
 3395W        W78383   7.938  30.516  15.269 -0.1684 -0.2540  0.1316
 3396W        W78384  34.994   9.252  17.667  0.1792  0.0561 -0.1865
 3397W        W78385  34.273  20.427  13.443 -0.2764  0.2475 -0.1693
 3398W        W78386  21.165   4.085   6.081  0.0753 -0.1314 -0.1106
 3399W        W78387  27.820  11.303   5.906  0.2818  0.0710 -0.1021
 3400W        W78388  32.136  11.356  25.726 -0.1865  0.1315  0.2980
 3401W        W78389  25.761  19.227  12.792 -0.1238  0.3225 -0.0734
 3402W        W78390  24.959  25.409  15.767  0.3240  0.1646 -0.0593
 3403W        W78391  32.433  32.953  15.557 -0.0380  0.0249 -0.1315
 3404W        W78392  24.104   4.844   3.160 -0.0893  0.1816  0.0152
 3405W        W78393  31.897   2.629   1.262  0.2293 -0.1619 -0.0669
 3406W        W78394  23.591   0.468  19.721 -0.0718  0.3752 -0.2581
 3407W        W78395  26.484  22.441  15.624 -0.0430  0.2500  0.3747
 3408W        W78396  23.744   8.726  25.912 -0.2910 -0.0124  0.0329
 3409W        W78397  18.486  13.537  25.793 -0.2496 -0.3545 -0.3437
 3410W        W78398  31.379  27.423   0.216  0.0060 -0.0466  0.3418
 3411W        W78399   6.749  12.762   7.326 -0.1098 -0.0468 -0.0506
 3412W        W78400   2.591  11.342  19.939  0.1016  0.0147 -0.1489
 3413W        W78401  22.353  29.301  22.379 -0.0251  0.1044  0.0454
 3414W        W78402   0.335  27.837   5.300 -0.0862  0.1800  0.0739
 3415W        W78403   7.479   3.811   4.596  0.2371  0.0565 -0.0675
 3416W        W78404  31.142  23.791  24.373  0.0792 -0.1229 -0.1812
 3417W        W78405  18.501   9.056  24.779 -0.1223 -0.0953 -0.4233
 3418W        W78406  34.684  20.240   7.350  0.2077  0.0018  0.0219
 3419W        W78407  27.614  23.408  10.280  0.2622 -0.2324 -0.5317
 3420W        W78408  25.033  30.629   5.300 -0.0568 -0.2462 -0.3724
 3421W        W78409  19.733   1.099   1.598 -0.0321 -0.1948  0.2984
 3422W        W78410   2.890   1.528  17.522  0.2799  0.0961 -0.3092
 3423W        W78411   8.485  25.352   9.316  0.1762 -0.3124 -0.0090
 3424W        W78412  32.864   6.050  14.575  0.0951 -0.2138 -0.1701
 3425W        W78413  12.660  14.232   7.598 -0.0926  0.2744 -0.1022
 3426W        W78414  21.375  24.398   1.669 -0.0401  0.3361 -0.3493
 3427W        W78415  19.417  11.959  18.567  0.0075 -0.2935 -0.1328
 3428W        W78416   6.792   5.279  20.050 -0.0343  0.0644 -0.0892
 3429W        W78417  16.527  28.650   5.281 -0.1133 -0.2470 -0.0568
 3430W        W78418  20.968  32.203   7.544 -0.2869 -0.0663 -0.1823
 3431W        W78419  28.104  14.629  10.478  0.3005  0.1394 -0.3832
 3432W        W78420   2.225   3.743   7.141  0.3761  0.1649  0.1665
 3433W        W78421   1.241   7.256  19.477 -0.0085 -0.1387  0.1023
 3434W        W78422   5.895  26.406   1.253  0.0806 -0.2461  0.0744
 3435W        W78423   6.264  29.389   5.804  0.2361  0.1018  0.2118
 3436W        W78424  32.342  35.067  21.916 -0.1301  0.0311 -0.0123
 3437W        W78425  30.940  10.738   9.169 -0.0204 -0.1042  0.1463
 3438W        W78426   0.818  13.902  10.159 -0.1661  0.1791 -0.1682
 3439W        W78427  10.508   7.123  23.230 -0.1214 -0.3266  0.2368
 3440W        W78428  12.015  23.327  14.176 -0.0422  0.0056  0.1564
 3441W        W78429  30.340  27.555  15.619  0.0505 -0.0646 -0.1113
 3442W        W78430  22.640   2.785  15.996 -0.2902 -0.0833  0.1164
 3443W        W78431  21.311   0.981   1.559 -0.0665  0.3193  0.0385
 3444W        W78432  12.409  20.867  10.285  0.0344 -0.2179 -0.3189
 3445W        W78433  15.086  26.986  10.495  0.3131  0.3999  0.1467
 3446W        W78434  15.943  31.234  21.011  0.1508 -0.0311 -0.2116
 3447W        W78435   7.397  29.906   3.069  0.0736  0.0341  0.0867
 3448W        W78436   0.076  13.998  14.291 -0.3301  0.0234  0.1382
 3449W        W78437  19.377  20.824  26.099 -0.1446 -0.1196  0.0856
 3450W        W78438   5.490  19.000  17.684  0.1774  0.1649  0.1514
 3451W        W78439  27.323   6.488  11.545  0.1417  0.0226 -0.2704
 3452W        W78440   1.461  18.290  21.701  0.1358  0.2515 -0.3047
 3453W        W78441  14.405   8.383   1.201  0.2145 -0.0456  0.2086
 3454W        W78442   8.056  17.924   8.973 -0.1218  0.1743  0.2462
 3455W        W78443  10.644  12.281   6.875 -0.0538  0.0570  0.3091
 3456W        W78444   3.438  33.279   6.027  0.1466  0.0595 -0.0203
 3457W        W78445  25.584  10.868  22.819 -0.2099  0.3219  0.0346
 3458W        W78446   4.709   7.482   2.064  0.0311  0.2602 -0.4711
 3459W        W78447  23.514  23.172  15.607  0.2288 -0.0359 -0.3323
 3460W        W78448  16.167  22.263   7.362 -0.0912 -0.4754  0.1099
 3461W        W78449  18.246  31.223   9.641 -0.1409  0.2599 -0.4272
 3462W        W78450  32.739  10.255  16.937 -0.2273 -0.1282 -0.1884
 3463W        W78451  11.213  22.270  24.446 -0.0916  0.2322  0.0142
 3464W        W78452  30.877  20.692   9.496  0.0677  0.0198  0.0656
 3465W        W78453  14.788  18.660  21.928 -0.1345 -0.1277  0.3029
 3466W        W78454  21.664  29.928  19.378  0.1410  0.1491  0.1455
 3467W        W78455   0.978  21.705  13.583  0.0563 -0.0350 -0.0777
 3468W        W78456   1.344  33.010   2.430  0.2371 -0.1971  0.0878
 3469W        W78457   6.695  21.582   2.229  0.0228 -0.1023 -0.0338
 3470W        W78458  29.249   1.136   1.511 -0.2624 -0.1908 -0.0039
 3471W        W78459  13.751  28.485  13.836  0.0056 -0.2699  0.0309
 3472W        W78460  10.816  25.343  16.206 -0.0309 -0.1711 -0.2755
 3473W        W78461  32.754  25.463  17.947 -0.0904 -0.0476  0.1482
 3474W        W78462  28.112  21.849  22.198 -0.1174 -0.1914 -0.2302
 3475W        W78463   7.274  13.204   6.243 -0.0798 -0.1705 -0.0432
 3476W        W78464   0.526  17.036   9.571  0.2655  0.2929  0.0296
 3477W        W78465  27.449  21.042  10.658 -0.0363  0.0829 -0.2218
 3478W        W78466  12.122  35.192   3.911 -0.1752 -0.0822  0.1777
 3479W        W78467  14.829  23.316   3.812  0.0148 -0.1053 -0.0797
 3480W        W78468   7.572  31.226  24.415 -0.0680 -0.1213  0.0486
 3481W        W78469  34.667  21.519  24.046  0.1142 -0.0268  0.3044
 3482W        W78470   1.548  29.936  18.545  0.0613  0.1696 -0.0475
 3483W        W78471  28.582  33.165  10.359  0.0299  0.2199 -0.0671
 3484W        W78472  19.148  20.593   4.936 -0.2208  0.2930  0.2926
 3485W        W78473  19.380  15.933   0.154 -0.1794 -0.0400  0.0110
 3486W        W78474  17.454  21.533  23.642 -0.3002 -0.1589 -0.3252
 3487W        W78475   4.369  16.746  24.844  0.0743  0.1203  0.0355
 3488W        W78476   3.220  34.259   7.728 -0.1526 -0.0268  0.2158
 3489W        W78477  29.504  21.214  22.996 -0.2684 -0.1222 -0.3153
 3490W        W78478   3.439  15.551  24.823 -0.2046 -0.0801  0.0937
 3491W        W78479  30.401  11.558  16.744 -0.2653  0.0706 -0.0348
 3492W        W78480  14.489  28.636  11.298 -0.0431 -0.1706 -0.1034
 3493W        W78481   4.124  11.820  23.488 -0.2408  0.0259 -0.2989
 3494W        W78482  26.125  25.629  23.783 -0.0986 -0.1659  0.3000
 3495W        W78483  20.836  12.955  23.892  0.0719  0.0056  0.2718
 3496W        W78484   8.833  13.260   1.132 -0.0748 -0.0730  0.3843
 3497W        W78485  10.925  24.511  11.814 -0.0155 -0.3757 -0.3326
 3498W        W78486  31.346  18.761  25.748  0.1621  0.1862  0.2243
 3499W        W78487   4.567   0.283   2.901 -0.2209  0.0325  0.1596
 3500W        W78488   6.074  27.020   8.255 -0.3285 -0.1723 -0.1050
 3501W        W78489  31.743  23.340  19.921 -0.1993 -0.1020  0.0621
 3502W        W78490  26.261  35.347  16.149  0.2184  0.2603  0.1215
 3503W        W78491  16.760  20.516   9.609  0.2032 -0.0531  0.2524
 3504W        W78492   5.657  20.801  25.833  0.0045 -0.0436  0.0511
 3505W        W78493  29.896   7.268  14.740  0.2173 -0.4352 -0.1262
 3506W        W78494   0.843  12.458  17.100  0.0924 -0.1642 -0.0637
 3507W        W78495   6.814   2.153   8.774  0.1201 -0.0429  0.0286
 3508W        W78496  32.707  35.200   5.709  0.1585  0.0973 -0.0500
 3509W        W78497  23.695  16.049  17.549 -0.1132 -0.2042 -0.2543
 3510W        W78498  26.344  20.972  25.045  0.0300 -0.2547  0.1080
 3511W        W78499  31.232  26.135  12.871 -0.2795  0.1953  0.1011
 3512W        W78500  13.843  19.516  21.319  0.2194 -0.0632  0.0578
 3513W        W78501   3.674  12.624  20.647 -0.2888 -0.1466  0.1428
 3514W        W78502  15.320  13.252   1.359 -0.1224  0.1584  0.0109
 3515W        W78503   0.146  33.072  26.092 -0.1322 -0.1104 -0.0682
 3516W        W78504  11.813  33.138   0.535  0.0554 -0.0172 -0.1811
 3517W        W78505  30.827   2.543   4.676  0.2624 -0.1102  0.0572
 3518W        W78506  29.505   4.892  22.400  0.4096  0.2013 -0.4035
 3519W        W78507  19.783  17.432   3.831  0.0104 -0.3238 -0.2166
 3520W        W78508   6.980  13.469   3.022 -0.0136  0.1619  0.0396
 3521W        W78509  28.091  24.244  11.696  0.0315  0.2085 -0.1879
 3522W        W78510  29.691  24.323  25.823  0.0160 -0.0559  0.0849
 3523W        W78511   3.710  11.461  20.011  0.1485  0.3138  0.2230
 3524W        W78512  31.866  12.488  21.099 -0.5313  0.1119  0.0727
 3525W        W78513  15.638   4.608   2.306 -0.2408 -0.2392  0.0600
 3526W        W78514  29.702  26.112  20.207 -0.1061  0.0600 -0.0281
 3527W        W78515  29.737  12.260  24.538 -0.0051 -0.1025  0.3578
 3528W        W78516  22.009  28.485  19.891  0.2262 -0.1695  0.0061
 3529W        W78517   2.239  23.628  23.241  0.0281 -0.0344 -0.2802
 3530W        W78518  26.799   9.900  16.283 -0.1992  0.2349  0.0802
 3531W        W78519  16.172  22.040  10.303 -0.0620 -0.1155 -0.2298
 3532W        W78520  31.844  28.732  23.082 -0.1668  0.2960 -0.3587
 3533W        W78521  15.958  24.056   2.804  0.2254  0.1598 -0.2166
 3534W        W78522   7.653  10.126   7.205  0.1107 -0.2192 -0.0473
 3535W        W78523   6.139  34.322   8.538 -0.0786 -0.1428  0.1196
 3536W        W78524   5.590   1.851  18.854 -0.0970  0.0334  0.1256
 3537W        W78525  19.066  15.878  18.005  0.0143  0.1050 -0.0498
 3538W        W78526  16.483  18.287  12.916 -0.0459  0.0260 -0.1525
 3539W        W78527  24.597  31.519  24.132  0.2883  0.2336  0.1016
 3540W        W78528  17.626   2.108  24.385 -0.1645  0.1767 -0.4644
 3541W        W78529   7.693  21.616   3.013 -0.0676  0.1353 -0.0306
 3542W        W78530  18.719  28.960   4.115  0.0359  0.2591  0.0653
 3543W        W78531  18.109  19.606   5.817 -0.0972  0.2378 -0.1504
 3544W        W78532   8.444  11.401  10.255  0.2421 -0.0698  0.2222
 3545W        W78533  33.207  14.582   9.706 -0.0882  0.2423 -0.0387
 3546W        W78534  14.039  11.094   6.202 -0.2584  0.3539 -0.0408
 3547W        W78535  28.109  32.352  14.036  0.1572 -0.1366  0.3138
 3548W        W78536  20.262  32.090  16.540  0.2840 -0.0478  0.2849
 3549W        W78537  15.893  33.687   4.881 -0.0231 -0.0188 -0.1463
 3550W        W78538  16.957  25.145   6.165  0.3723  0.0935  0.0849
 3551W        W78539  21.366   9.531   9.334 -0.0471 -0.0767 -0.1909
 3552W        W78540  17.202   5.071   9.496 -0.1125 -0.3397 -0.0800
 3553W        W78541   0.074  26.560  22.543 -0.0295  0.0326  0.1365
 3554W        W78542  21.089  26.023  22.010 -0.1202 -0.0760  0.2296
 3555W        W78543  13.423  22.826  23.932 -0.1029  0.1781  0.5138
 3556W        W78544   0.079  16.803   8.727 -0.1461  0.2067 -0.2447
 3557W        W78545   7.542  21.921   7.571  0.0770 -0.3178 -0.1364
 3558W        W78546  10.953  28.960  11.199  0.1509  0.2870  0.2428
 3559W        W78547  33.770  12.093  21.858  0.0446 -0.0002  0.3026
 3560W        W78548  19.446   2.691   4.365 -0.0624 -0.1231  0.1172
 3561W        W78549  10.939  22.194   4.844 -0.1981 -0.0677  0.3487
 3562W        W78550  14.451   7.222  24.588 -0.4995  0.0699  0.4683
 3563W        W78551  10.840   1.809  12.482 -0.0778  0.2146 -0.0418
 3564W        W78552  24.667  20.904   2.195  0.1434  0.1691 -0.0226
 3565W        W78553  34.658  19.328  21.290 -0.2366 -0.3749  0.0430
 3566W        W78554  20.410   0.183  24.237 -0.0275  0.1687 -0.0714
 3567W        W78555  14.115  33.172  10.835  0.0928  0.4015 -0.2378
 3568W        W78556  32.877   8.217  13.445 -0.0281 -0.2295 -0.2112
 3569W        W78557  13.654  15.013  13.159 -0.0290 -0.1616 -0.1440
 3570W        W78558  22.131  29.483  19.857 -0.4572  0.2016 -0.0943
 3571W        W78559   8.637  30.182   3.101 -0.2009 -0.0298  0.0374
 3572W        W78560  34.246  33.233   7.475  0.1899 -0.1223  0.1887
 3573W        W78561  33.521  16.896  16.106  0.1228  0.3158  0.0180
 3574W        W78562   8.240  29.217  21.878 -0.1051 -0.1518 -0.0646
 3575W        W78563  28.238   2.861  18.610  0.4540  0.0208 -0.0493
 3576W        W78564  24.925  25.591  13.560 -0.1984 -0.0526  0.1618
 3577W        W78565   4.065  24.779  20.964  0.0064  0.2569 -0.1257
 3578W        W78566  32.236   6.313  13.629 -0.0252  0.0318  0.0038
 3579W        W78567  30.411  28.985  22.036  0.1040  0.1107  0.0985
 3580W        W78568  27.648   7.197  24.133 -0.1322  0.1302  0.0092
 3581W        W78569  25.602  11.037  15.923  0.2399  0.0046  0.1518
 3582W        W78570   2.639   2.785   0.990 -0.0989  0.2227 -0.2489
 3583W        W78571  32.730  17.163  15.523 -0.0230 -0.0004  0.1611
 3584W        W78572   8.828  10.263   7.339 -0.5400  0.0104 -0.0192
 3585W        W78573  14.435  29.413  24.027 -0.2031  0.1260  0.0805
 3586W        W78574  32.242   7.951  18.409  0.3809  0.1014  0.1174
 3587W        W78575   2.488  25.972   3.159 -0.1759 -0.0117  0.2752
 3588W        W78576  32.321   2.945   3.236 -0.0906  0.0739 -0.0416
 3589W        W78577  32.379  30.509   3.770 -0.1363  0.3547 -0.1191
 3590W        W78578  16.743  25.127  13.273 -0.0735  0.0901 -0.0654
 3591W        W78579   4.561   6.584   3.032 -0.1236 -0.1918  0.1726
 3592W        W78580   7.373  32.072  13.742 -0.1974 -0.1473 -0.1661
 3593W        W78581  16.091  14.699  18.441  0.0330 -0.0672 -0.0461
 3594W        W78582  29.989   1.797  24.889 -0.2642 -0.0110  0.2032
 3595W        W78583  12.631  22.419  14.902  0.1582 -0.0489 -0.3438
 3596W        W78584   9.348   2.782  19.870  0.1886  0.0673 -0.1213
 3597W        W78585   9.088   7.423  20.342 -0.0612  0.1080 -0.0726
 3598W        W78586  33.977  26.869  18.292  0.0893 -0.0128 -0.1672
 3599W        W78587  34.104  24.697  14.701  0.1274  0.4140 -0.3837
 3600W        W78588  29.319  19.311  23.820 -0.1251 -0.4463 -0.2269
 3601W        W78589  30.743  22.172  13.965  0.2287  0.1499  0.2742
 3602W        W78590  33.134  10.478   9.601 -0.1415  0.0099 -0.4003
 3603W        W78591  15.588   2.529  10.693 -0.3089  0.2372  0.0524
 3604W        W78592  29.857   7.596  24.530 -0.3770 -0.2114  0.0279
 3605W        W78593  28.808  20.988  20.012  0.1574 -0.0298  0.3164
 3606W        W78594  12.323   4.823  23.700 -0.1691 -0.4239  0.2613
 3607W        W78595  18.424   9.984   0.352 -0.1794  0.2554  0.3671
 3608W        W78596  25.570  35.125  14.977  0.0478 -0.1257  0.2977
 3609W        W78597  16.807  30.654  20.971  0.4558  0.4086  0.1548
 3610W        W78598   8.026  31.579   5.653  0.3265 -0.0190  0.3326
 3611W        W78599  34.940  11.945  11.116  0.1104 -0.4060 -0.1508
 3612W        W78600  28.100  13.916  13.444  0.0083 -0.3322  0.0541
 3613W        W78601  26.936  25.390  18.565  0.1460  0.0714 -0.2447
 3614W        W78602  27.701  32.989  12.420  0.0233 -0.0072  0.1542
 3615W        W78603   3.713  22.135  23.264 -0.2975 -0.2486 -0.0559
 3616W        W78604   0.217   0.019  17.541  0.0879  0.1542 -0.2352
 3617W        W78605  21.681  24.142  20.104 -0.1861 -0.1802 -0.0757
 3618W        W78606   7.782   1.697   9.706 -0.2920  0.0992 -0.0428
 3619W        W78607  25.609  32.781  16.840  0.1312  0.0529  0.1885
 3620W        W78608  30.248  28.691  12.141  0.1907 -0.2554 -0.0544
 3621W        W78609  34.000   3.979  23.921 -0.0932  0.2998 -0.1300
 3622W        W78610  21.133   0.945  15.768 -0.0175 -0.1005 -0.1523
 3623W        W78611  32.554  34.237  24.172  0.0379 -0.1820 -0.0425
 3624W        W78612  32.780  26.895  20.811 -0.2760  0.0801  0.4792
 3625W        W78613   7.137  22.199   9.693 -0.4425 -0.1667 -0.0674
 3626W        W78614   8.519   5.793  18.968  0.2790  0.2658 -0.2057
 3627W        W78615  27.503  16.339  13.738 -0.3130 -0.1291 -0.0044
 3628W        W78616   9.672   8.973   2.575  0.1865  0.0260  0.0159
 3629W        W78617  25.557  13.057  10.544 -0.1167 -0.0382  0.2292
 3630W        W78618   4.632  13.680  23.544  0.0325  0.1253 -0.0707
 3631W        W78619  18.460  15.145   3.173 -0.2248 -0.1246 -0.1041
 3632W        W78620  18.989  16.599  25.913  0.0018  0.2078 -0.1387
 3633W        W78621   4.231  30.732  12.948  0.0514  0.0851 -0.1817
 3634W        W78622  19.438  27.005   3.704  0.2740  0.2113 -0.2872
 3635W        W78623   0.070  23.484  24.593 -0.1708 -0.0864 -0.2935
 3636W        W78624   7.912  26.035  13.093 -0.3665  0.0298  0.1700
 3637W        W78625   3.901   6.350   2.963  0.3798 -0.2477 -0.0734
 3638W        W78626  18.400   8.940   1.197 -0.3451 -0.1020  0.0986
 3639W        W78627   9.773   4.509  19.165  0.5544 -0.0444  0.0141
 3640W        W78628   1.851   0.684  21.853 -0.0906  0.1773  0.0482
 3641W        W78629   5.710  24.659  25.520 -0.2952 -0.2815 -0.0741
 3642W        W78630   0.544  32.394  22.160 -0.0451  0.1474  0.1979
 3643W        W78631   0.345   2.235  17.148  0.3614 -0.1278  0.0456
 3644W        W78632   5.893   8.023   1.809  0.0287  0.1912 -0.2708
 3645W        W78633  30.068   5.414  21.328  0.0465 -0.1264  0.1686
 3646W        W78634   4.427   7.477  23.306  0.1299  0.0188  0.0579
 3647W        W78635   4.341   5.135   7.708  0.0154 -0.0127 -0.0591
 3648W        W78636  20.879   6.191   8.123 -0.1677  0.0126  0.2142
 3649W        W78637   6.978  35.151   7.389  0.2012 -0.2611  0.0301
 3650W        W78638  29.315  14.220  13.129 -0.3296  0.0881  0.0264
 3651W        W78639  34.270  20.244   9.371 -0.0842  0.2793  0.4288
 3652W        W78640  32.037   5.200  26.166  0.0443  0.2278 -0.2907
 3653W        W78641  17.889  17.735  24.510  0.1877  0.0529  0.3957
 3654W        W78642  18.805  23.642  10.001  0.3559 -0.0159 -0.0880
 3655W        W78643  19.671  31.176   1.755  0.2266  0.1303 -0.1290
 3656W        W78644  32.552  14.884  14.091  0.1507 -0.0228 -0.0565
 3657W        W78645   3.621   4.721  18.988  0.0995  0.2178  0.0935
 3658W        W78646  18.557  27.224   7.334  0.0283 -0.0256  0.3007
 3659W        W78647  21.320   7.026  18.646 -0.2532 -0.3019 -0.1377
 3660W        W78648   5.719  13.243  18.441  0.1531 -0.0646 -0.0464
 3661W        W78649   8.162  11.801  10.667  0.3066  0.1667  0.3796
 3662W        W78650  35.087   8.695  26.160  0.3050 -0.1812 -0.0386
 3663W        W78651  18.339  22.329  21.101  0.1282 -0.0864 -0.1728
 3664W        W78652  15.422  28.557  22.175  0.1044  0.1419  0.1743
 3665W        W78653  10.281   7.585   8.869  0.0443 -0.3107 -0.2491
 3666W        W78654  35.314  32.494   4.347  0.4073  0.1822  0.4984
 3667W        W78655  24.313  14.060  15.397  0.2788  0.4302 -0.1365
 3668W        W78656  28.168  27.087   2.905  0.0569 -0.0660  0.0719
 3669W        W78657   9.022   7.020  22.544  0.0208  0.0136  0.0003
 3670W        W78658  11.370  27.818  24.476 -0.3180 -0.0423  0.1050
 3671W        W78659   1.806  28.918  19.663  0.0770  0.0716  0.1296
 3672W        W78660  17.040   9.667  18.196  0.0289  0.1874  0.2855
 3673W        W78661   8.957   3.188   5.493  0.0231  0.3150 -0.1015
 3674W        W78662  30.900  29.600  21.226  0.3554 -0.1490  0.1395
 3675W        W78663   7.365   8.804   1.437  0.0574 -0.2788  0.2389
 3676W        W78664  21.123  17.088   4.918 -0.3092 -0.2636  0.1041
 3677W        W78665  30.774   7.294  14.783  0.2059 -0.1076  0.1931
 3678W        W78666   3.362  30.863  25.792 -0.1483 -0.0909  0.0821
 3679W        W78667  28.287  25.116  11.424 -0.0580 -0.1890 -0.3617
 3680W        W78668   0.955   8.377  19.621 -0.3427  0.1625 -0.0822
 3681W        W78669   6.125  27.319   0.701 -0.0917  0.1115 -0.2594
 3682W        W78670  16.336   7.757  12.581  0.0078 -0.1804  0.1035
 3683W        W78671  20.178  15.605  22.822 -0.3159  0.1713 -0.0259
 3684W        W78672  22.203   1.903  15.854  0.1209 -0.1850 -0.2276
 3685W        W78673  25.054  15.102  25.596  0.0171 -0.0900  0.0234
 3686W        W78674  11.349   6.478  22.499  0.1990  0.1942 -0.2964
 3687W        W78675  34.109  17.217  15.191 -0.0767  0.1414  0.1537
 3688W        W78676  14.113  27.042  24.110  0.0379 -0.0812 -0.2402
 3689W        W78677   2.011   5.009  25.052  0.1414 -0.0695  0.1397
 3690W        W78678   6.500  22.907   5.392  0.0371  0.0630  0.0156
 3691W        W78679  23.820   0.591  13.328 -0.0707  0.0748  0.1067
 3692W        W78680  32.836   1.705   0.620 -0.2762 -0.1903 -0.0507
 3693W        W78681   6.337   2.285   7.834  0.3407  0.0021 -0.3366
 3694W        W78682  14.770  11.315   1.465  0.0617 -0.1832 -0.2316
 3695W        W78683   5.082  10.031  17.981 -0.0230  0.3942 -0.0440
 3696W        W78684  10.501  11.094  25.192  0.2640 -0.1603  0.0027
 3697W        W78685  28.234  21.350  13.653 -0.0711  0.3906  0.5061
 3698W        W78686  29.571   3.285  16.132  0.0231 -0.3879  0.2635
 3699W        W78687  18.143  16.718  24.200 -0.0281 -0.1546 -0.0830
 3700W        W78688  21.897  33.415  15.987 -0.0879 -0.0381 -0.1471
 3701W        W78689  28.006  20.538  15.898 -0.1371 -0.2812  0.1114
 3702W        W78690  27.008  10.055  15.004  0.1579  0.2508  0.3481
 3703W        W78691  21.212   5.453   9.338 -0.2433  0.3029  0.2603
 3704W        W78692  19.276  13.360  20.661  0.1993  0.0439  0.2565
 3705W        W78693   9.065   3.612   6.324  0.1278  0.3398 -0.0794
 3706W        W78694   7.486   3.121  22.050 -0.0390  0.1847  0.0336
 3707W        W78695  27.015   0.746  15.359 -0.0221 -0.1114  0.0076
 3708W        W78696  32.592  21.641  14.710  0.1415  0.1900  0.0948
 3709W        W78697  25.935  19.075   7.716  0.1331 -0.1655  0.0480
 3710W        W78698  19.595   0.226   5.506  0.3566 -0.1996  0.1059
 3711W        W78699  33.050  31.506  19.874 -0.1099  0.1300  0.0648
 3712W        W78700  20.769   4.314  17.999 -0.3769  0.0231 -0.2322
 3713W        W78701  28.575   4.527  23.528 -0.0652  0.2141 -0.1877
 3714W        W78702  11.458   8.547   3.863  0.2313 -0.2515  0.1657
 3715W        W78703   6.034  24.929  20.969  0.1500 -0.0891 -0.2310
 3716W        W78704   4.994   9.422  18.661  0.0483 -0.0969 -0.1915
 3717W        W78705  33.191  17.157  19.461 -0.2125 -0.1384 -0.1332
 3718W        W78706  18.595  20.816   7.657  0.0491  0.0625  0.1191
 3719W        W78707   1.261   7.057  20.368  0.2202  0.0903  0.0857
 3720W        W78708  22.444  28.788  15.681  0.0703 -0.0165  0.3203
 3721W        W78709   3.719  22.094   3.030 -0.0557 -0.6418 -0.3259
 3722W        W78710   2.550  20.211  20.684  0.3131 -0.2283  0.0316
 3723W        W78711  14.085   3.998  22.110  0.0651  0.2063  0.0798
 3724W        W78712  20.583  14.681   6.094  0.0435  0.3942  0.1082
 3725W        W78713   2.026   4.191   7.195  0.0215  0.2329 -0.1095
 3726W        W78714  22.952   3.224  21.812 -0.2650 -0.0300  0.0930
 3727W        W78715   2.192  21.965  21.593 -0.0582 -0.0181  0.1024
 3728W        W78716   6.853  12.232  21.701 -0.1189  0.1452  0.1779
 3729W        W78717  34.962  17.907  18.860  0.0222  0.4062 -0.0427
 3730W        W78718  14.877  18.673   0.476  0.2046  0.1490  0.1829
 3731W        W78719  32.035  24.764  21.114 -0.0482 -0.0173  0.0726
 3732W        W78720  22.599  27.864  16.894 -0.1208 -0.0679 -0.0969
 3733W        W78721   7.274  25.641  23.924  0.0579  0.0596 -0.1861
 3734W        W78722  14.380  32.871   8.155  0.0561 -0.4075  0.1623
 3735W        W78723  23.946  30.686  19.400  0.1590 -0.3919  0.0003
 3736W        W78724  19.388  23.374   4.730 -0.0428  0.0006  0.0411
 3737W        W78725   5.165   5.480   1.382 -0.1384 -0.0190  0.3058
 3738W        W78726   4.355  24.721   8.437  0.2277  0.0631  0.0482
 3739W        W78727  28.935  11.011   8.974 -0.1531 -0.2157  0.2125
 3740W        W78728  29.733  13.164  20.531  0.1395  0.1635 -0.3957
 3741W        W78729   3.703  18.384  18.507  0.1556  0.1546  0.0333
 3742W        W78730  18.533   7.151   5.783 -0.1293 -0.2413  0.2124
 3743W        W78731   4.190   7.361   5.496  0.0226 -0.3094  0.0865
 3744W        W78732  16.387  10.013   8.899 -0.1990 -0.0806  0.1541
 3745W        W78733  21.467   7.953   6.634 -0.2056  0.1289  0.1581
 3746W        W78734  26.674  18.045   6.745 -0.0878 -0.1365  0.3292
 3747W        W78735  12.306  26.070  16.246  0.1441  0.0868 -0.0313
 3748W        W78736  30.832  21.803   6.180 -0.3180  0.0323 -0.1471
 3749W        W78737  28.491   4.337  12.987 -0.1268 -0.1815  0.0783
 3750W        W78738  14.925  12.930  25.408  0.1010  0.1736  0.0352
 3751W        W78739  26.264   2.954  14.927 -0.0559 -0.0050  0.1126
 3752W        W78740  18.085  18.388   0.693 -0.2158 -0.0577  0.0445
 3753W        W78741  35.170   1.866   1.471 -0.1608 -0.1010  0.0834
 3754W        W78742  20.545   4.581   3.318  0.3042  0.3130 -0.0421
 3755W        W78743   4.320   3.883   8.530 -0.1146 -0.1452 -0.4122
 3756W        W78744   8.428   7.708   8.839  0.0267 -0.1628 -0.1719
 3757W        W78745  27.262   4.863  14.477  0.2483  0.1769  0.1722
 3758W        W78746  25.811  21.454  14.362  0.1236  0.3059  0.4085
 3759W        W78747  18.425  27.989   0.737 -0.2644 -0.0463 -0.0315
 3760W        W78748  32.106  15.267   8.572  0.1335 -0.0188  0.1528
 3761W        W78749   2.043  14.542  13.571 -0.0137 -0.0802 -0.0394
 3762W        W78750  33.765  24.971  18.218  0.1902  0.2550  0.2242
 3763W        W78751  28.889  28.394   1.554  0.1086 -0.1288  0.1122
 3764W        W78752   4.984  34.408  24.562  0.0921 -0.0118  0.2022
 3765W        W78753  11.864  17.529  10.838 -0.0277 -0.1621  0.0470
 3766W        W78754  21.055   1.478  22.879  0.0131 -0.1944  0.1376
 3767W        W78755   8.981  22.844   8.586 -0.0555  0.2742 -0.0571
 3768W        W78756  14.440  21.628  11.484  0.0574  0.4534  0.5642
 3769W        W78757  13.582   4.248   7.931  0.3682 -0.0543  0.0218
 3770W        W78758  29.521  13.128   9.766 -0.2090 -0.0249  0.0754
 3771W        W78759   5.063  10.990  20.970 -0.1822  0.0727 -0.1105
 3772W        W78760  17.080  33.864  22.933  0.1118  0.1213  0.2081
 3773W        W78761  16.436  19.643   2.390  0.0072  0.0722  0.0793
 3774W        W78762   4.453  10.126   5.589 -0.0359 -0.1087 -0.1170
 3775W        W78763   6.458  17.078   5.652 -0.0264 -0.2450 -0.0027
 3776W        W78764  25.257  27.688  23.692 -0.1319  0.2158 -0.3279
 3777W        W78765  29.121   8.096  16.069 -0.0126  0.1385 -0.3367
 3778W        W78766  34.078  25.872   2.515 -0.0001 -0.1077 -0.2652
 3779W        W78767   4.264  12.056   4.136 -0.2105 -0.0921  0.1757
 3780W        W78768  31.665  11.237  20.005 -0.0769 -0.1360 -0.3598
 3781W        W78769  13.400  23.657  12.827  0.0611  0.1044  0.0832
 3782W        W78770  21.812  30.066  20.339  0.0352  0.1118  0.3370
 3783W        W78771  16.461  22.064  22.370 -0.3354 -0.0362 -0.0665
 3784W        W78772  35.218  15.538  11.606 -0.2068  0.0483  0.2547
 3785W        W78773   4.326   6.903  18.949 -0.0026  0.4144 -0.2831
 3786W        W78774  19.938  13.814  21.286  0.4295  0.4883  0.3904
 3787W        W78775   3.600  26.667  22.462  0.0354  0.1173 -0.0111
 3788W        W78776  11.854  14.771   3.056  0.5840 -0.0598  0.2291
 3789W        W78777  12.218  12.593   1.980 -0.0136  0.0490  0.2361
 3790W        W78778  11.854   8.527  22.330 -0.0562  0.2434 -0.0187
 3791W        W78779   0.878   0.784   8.543  0.2914 -0.2545  0.6516
 3792W        W78780  31.629  29.599   1.656  0.1671 -0.0144  0.2495
 3793W        W78781  18.331  32.906   2.197  0.1136  0.0331 -0.3584
 3794W        W78782   4.655  26.698  22.627  0.1162 -0.1226  0.3131
 3795W        W78783  28.154  33.950   5.250 -0.1527  0.1241  0.3050
 3796W        W78784  20.271  24.442   3.830  0.1601 -0.2873  0.1095
 3797W        W78785  30.270   2.751  18.882  0.1012 -0.2816 -0.0315
 3798W        W78786   1.585  15.296  21.277  0.1183 -0.0340 -0.0812
 3799W        W78787  14.032   1.905   4.097 -0.0754 -0.0216 -0.2350
 3800W        W78788   9.055  14.668   6.634 -0.0946 -0.0995  0.1622
 3801W        W78789  16.238   0.711   4.720  0.1178 -0.0140  0.0185
 3802W        W78790   2.729   0.728  21.588 -0.0493 -0.2817  0.0202
 3803W        W78791  34.490  26.870  13.543  0.0245 -0.2097  0.0418
 3804W        W78792  14.850   9.208   7.682 -0.2984 -0.2392 -0.4367
 3805W        W78793  18.871   4.838   3.400 -0.3079 -0.0489 -0.0988
 3806W        W78794  29.312   1.487  21.556  0.1698  0.0464 -0.1707
 3807W        W78795   3.817  29.490  20.506  0.2390 -0.2873  0.2011
 3808W        W78796  13.325  31.227   4.307 -0.1099  0.0959 -0.0300
 3809W        W78797  27.744  11.343   7.994  0.1040 -0.2715  0.0969
 3810W        W78798   5.515   9.267  17.644  0.1394 -0.0310 -0.0875
 3811W        W78799   2.610   4.499  17.743  0.3809 -0.0447 -0.1080
 3812W        W78800  33.991  29.549  22.750  0.2118 -0.3380 -0.2873
 3813W        W78801  10.966  20.484   9.342  0.0549 -0.0573 -0.0098
 3814W        W78802  21.197  17.892  19.754  0.1217  0.1582  0.1199
 3815W        W78803   8.551   2.251   9.799  0.0906  0.0790 -0.0835
 3816W        W78804   0.840   8.613   2.565  0.1694  0.1732 -0.1098
 3817W        W78805  23.515   5.514  17.837 -0.3401 -0.1199  0.0684
 3818W        W78806  10.945  33.751   3.395 -0.1697  0.2430 -0.0339
 3819W        W78807  29.618  24.607  12.642  0.0385  0.2214 -0.0380
 3820W        W78808  33.403   2.056  16.089 -0.4551  0.0190  0.3614
 3821W        W78809  27.536   3.424  15.416 -0.0270  0.0459 -0.0978
 3822W        W78810  13.034  30.244  13.251 -0.0694 -0.3954 -0.2722
 3823W        W78811  29.254  23.438  11.125  0.1663  0.0145 -0.1196
 3824W        W78812   5.562   6.675   3.010 -0.0065 -0.3385  0.2433
 3825W        W78813  10.374  19.438  25.180 -0.2548  0.1750  0.0013
 3826W        W78814  11.550  11.925  20.415 -0.1403  0.1734  0.2161
 3827W        W78815  29.058  10.573   9.611 -0.2645  0.0307 -0.0548
 3828W        W78816  28.521   6.750  25.121 -0.0201  0.1744  0.0545
 3829W        W78817   9.185  15.484   0.165  0.2145  0.1130  0.0939
 3830W        W78818  14.534   5.779   9.262 -0.0966  0.0001 -0.2285
 3831W        W78819  11.554  16.815  26.064  0.0096  0.0314 -0.1258
 3832W        W78820  20.653  21.865   8.745 -0.1522 -0.4109 -0.0371
 3833W        W78821   4.053  22.318  16.941  0.3804 -0.0031 -0.0475
 3834W        W78822  26.680  23.388  10.728  0.5525  0.0412 -0.4453
 3835W        W78823   8.403   6.410   4.927  0.0425 -0.2365  0.3012
 3836W        W78824  23.234  32.184   0.102 -0.0196  0.0537  0.1045
 3837W        W78825   5.604  28.485   5.668 -0.0606  0.2436 -0.0929
 3838W        W78826  12.548  32.554   3.628  0.0905  0.0314 -0.1758
 3839W        W78827  31.500   3.065   3.124  0.2182 -0.2664 -0.1746
 3840W        W78828  31.437  33.377   5.108 -0.4003  0.1232 -0.2022
 3841W        W78829  31.912  11.713  10.237  0.5622  0.1158 -0.3221
 3842W        W78830   2.175  28.675   2.897 -0.4283  0.1376  0.0159
 3843W        W78831   6.377  14.791  23.037 -0.4622 -0.2087  0.0107
 3844W        W78832   6.351   6.211   9.666 -0.1692 -0.0536  0.2855
 3845W        W78833  30.364  21.271  11.054  0.2983 -0.0703 -0.0702
 3846W        W78834  20.315   0.297   4.208 -0.1276 -0.0570 -0.3327
 3847W        W78835  30.552  11.163  18.670  0.0547  0.0413 -0.0890
 3848W        W78836  22.157   2.261  23.299  0.2377 -0.1543 -0.0677
 3849W        W78837  20.338   4.476  18.071  0.0157  0.2731 -0.1122
 3850W        W78838  22.473  23.423   0.005 -0.1992 -0.0980  0.3585
 3851W        W78839  32.662  24.723  25.822 -0.1009  0.0764  0.2747
 3852W        W78840   6.026  34.129  11.040  0.2401  0.1935 -0.2440
 3853W        W78841  20.315  21.397  19.574  0.2291 -0.0579  0.2336
 3854W        W78842  35.369   6.999  17.956 -0.0396  0.3119 -0.0371
 3855W        W78843  20.176   2.335   3.710 -0.1557  0.1908 -0.0174
 3856W        W78844  34.140  12.064  19.674  0.2357 -0.0504 -0.3176
 3857W        W78845  15.353   7.854   2.774 -0.2468 -0.1479  0.2070
 3858W        W78846  18.532  33.735  16.144  0.1642 -0.0782 -0.3335
 3859W        W78847   6.292   5.934  23.883 -0.1018 -0.1064 -0.0834
 3860W        W78848  22.716  21.454  24.041 -0.1513  0.0002 -0.4434
 3861W        W78849  18.799  19.058   7.033 -0.1307 -0.1633  0.3189
 3862W        W78850  33.376  23.626  22.917  0.2976  0.0945 -0.0408
 3863W        W78851  25.690   3.806  17.098 -0.0706 -0.0978  0.2446
 3864W        W78852  20.780  26.460   1.725 -0.1634  0.0715 -0.0698
 3865W        W78853  18.461  10.792  18.271 -0.2152  0.4187 -0.0217
 3866W        W78854  15.004  18.497  10.731  0.2688 -0.0984 -0.0149
 3867W        W78855  23.012  30.174   2.531  0.3030 -0.2503  0.1355
 3868W        W78856   6.272   6.909   4.324  0.0613  0.2642 -0.0475
 3869W        W78857  26.218  33.436  19.633 -0.0080  0.1437 -0.2023
 3870W        W78858   2.756  15.464  25.629 -0.1055 -0.1874  0.2622
 3871W        W78859  26.111   4.096  16.874 -0.1651  0.2203  0.3948
 3872W        W78860  26.978  31.211  19.364  0.3128 -0.0536  0.0099
 3873W        W78861  26.808  28.410  22.293  0.0404 -0.3201 -0.1056
 3874W        W78862  24.923  10.216  22.743  0.2504 -0.0401 -0.0243
 3875W        W78863  12.359   3.264   4.244  0.1742 -0.2040 -0.0737
 3876W        W78864   0.542  15.791  23.834  0.0648  0.0348  0.1162
 3877W        W78865   5.062  18.202  20.553 -0.2132  0.2377  0.1072
 3878W        W78866  12.894  24.729   4.324  0.2359  0.1282  0.0989
 3879W        W78867  13.140  31.540   4.644 -0.1648  0.2212  0.3645
 3880W        W78868   4.385  12.615   2.802  0.2671  0.3540 -0.2643
 3881W        W78869  18.494   5.262  16.468  0.0604  0.4027 -0.2308
 3882W        W78870   6.847   9.357  23.594  0.0355 -0.0826  0.1341
 3883W        W78871  22.808  28.853   0.789 -0.0733  0.0120 -0.1421
 3884W        W78872  32.985  12.105   7.771  0.0703 -0.0693 -0.0702
 3885W        W78873  26.657  22.990   0.140 -0.0362 -0.4720 -0.0068
 3886W        W78874   4.826   5.958  23.505 -0.1100  0.1421 -0.2040
 3887W        W78875   3.673  33.072  23.433  0.1115 -0.1392 -0.0279
 3888W        W78876  26.386  13.116   0.004  0.1399 -0.0752 -0.3357
 3889W        W78877  32.292  25.767  18.521  0.2261 -0.0391 -0.3638
 3890W        W78878  29.192  35.293  14.845 -0.0112 -0.3811 -0.1792
 3891W        W78879   9.874  16.530   6.097  0.0821  0.1873 -0.1003
 3892W        W78880   5.558  24.368  12.259  0.1697  0.2536  0.1191
 3893W        W78881  13.332  11.892   1.428  0.2011 -0.1491  0.4355
 3894W        W78882  10.789  11.258   5.344  0.0322  0.0529  0.0074
 3895W        W78883   4.325   3.424  24.852  0.2880  0.1853 -0.1360
 3896W        W78884  16.108  16.550  24.114 -0.4195 -0.1674 -0.0296
 3897W        W78885   7.081   8.811   8.313 -0.0992 -0.3392  0.2837
 3898W        W78886  14.987  21.061   3.790  0.2583  0.0129  0.1812
 3899W        W78887  22.883  27.240  25.435  0.0679 -0.3468 -0.1162
 3900W        W78888   3.773  21.440  17.055 -0.0885 -0.0224  0.1227
 3901W        W78889  19.563  10.891  23.290  0.1770  0.0597  0.1548
 3902W        W78890  26.669  21.764  23.805 -0.2552 -0.1409  0.0900
 3903W        W78891   6.700   3.668   1.739 -0.2879 -0.0019 -0.0102
 3904W        W78892   6.175  17.057  21.843 -0.2201  0.2167 -0.1301
 3905W        W78893   5.630   8.579   7.497 -0.0858 -0.3865 -0.0877
 3906W        W78894  21.449  25.076   0.917  0.0154  0.0741  0.0329
 3907W        W78895  31.119   1.687   2.579  0.1028 -0.2167  0.2435
 3908W        W78896   3.522   8.902  19.018 -0.2013 -0.0410 -0.2690
 3909W        W78897  16.189   4.407  23.655 -0.1677 -0.1823  0.1740
 3910W        W78898   4.987   2.923   7.207 -0.0640 -0.4798 -0.3752
 3911W        W78899   8.963  26.963  23.700 -0.4636  0.0395  0.2938
 3912W        W78900  20.102   4.622   1.890  0.0150 -0.1028  0.2313
 3913W        W78901  32.502   2.473  12.096  0.0139  0.1283 -0.0914
 3914W        W78902  33.786  19.619  25.386 -0.0789 -0.0692 -0.1886
 3915W        W78903  26.980  29.754  12.504 -0.2261 -0.1126 -0.2066
 3916W        W78904  11.705  24.002  11.338  0.2619 -0.1732  0.0007
 3917W        W78905  30.249  14.219  14.932 -0.1251  0.1144 -0.0088
 3918W        W78906   6.834   6.886  25.813 -0.4345  0.1671  0.1139
 3919W        W78907  17.063  33.463   7.795 -0.0147  0.1323  0.0734
 3920W        W78908  21.023  31.399   6.637 -0.0932 -0.1002 -0.1013
 3921W        W78909  16.753  29.659   1.896  0.2526  0.0645  0.1808
 3922W        W78910  24.589  23.709  15.138  0.0940  0.0362  0.0175
 3923W        W78911   5.228  31.543  19.683 -0.0465  0.1930 -0.1182
 3924W        W78912  25.176  29.863  23.493  0.1757  0.2265 -0.1707
 3925W        W78913  12.873   2.627  21.829 -0.1171  0.0485 -0.0059
 3926W        W78914  26.060  29.715   2.319 -0.0745  0.2253  0.3798
 3927W        W78915  35.194  16.009  21.549  0.0270 -0.1007 -0.1923
 3928W        W78916   5.228  27.606  22.094  0.4004  0.1648  0.0011
 3929W        W78917  18.855  26.558   6.803  0.0786  0.1293  0.2290
 3930W        W78918  19.282  15.983  24.619 -0.2903  0.1208 -0.0038
 3931W        W78919   3.880   8.264  17.282 -0.0244  0.1279 -0.0634
 3932W        W78920  13.759  28.847   3.594  0.2349  0.2792  0.0567
 3933W        W78921  33.965   6.494  23.340 -0.0559 -0.1575  0.2296
 3934W        W78922  30.871  16.580  25.492 -0.0076 -0.0764 -0.1865
 3935W        W78923  13.974  18.795  26.149  0.1488 -0.0821  0.3153
 3936W        W78924   9.894  32.604   5.176 -0.2782 -0.0836  0.3725
 3937W        W78925   0.874  28.096  25.403  0.1257 -0.3029  0.1632
 3938W        W78926  30.158  11.745  16.027 -0.1610 -0.0399  0.1154
 3939W        W78927   8.173  20.282  21.662 -0.0819 -0.4583  0.3123
 3940W        W78928   8.894  12.085   4.078  0.0200  0.3670  0.0423
 3941W        W78929  11.194  33.342  24.025  0.0189 -0.0627 -0.0090
 3942W        W78930  24.771  34.621  23.292 -0.2057 -0.2511 -0.1194
 3943W        W78931  19.129  15.070   4.768  0.1711  0.0874  0.1464
 3944W        W78932  17.322  19.145  13.681  0.1094 -0.2250 -0.0365
 3945W        W78933  28.429   5.195  18.181 -0.0237 -0.0353 -0.0261
 3946W        W78934  28.982  11.797  14.882  0.1009  0.1050  0.2172
 3947W        W78935   6.935   9.916   0.301  0.1613 -0.1002 -0.1198
 3948W        W78936   4.176  24.795  23.547  0.1152 -0.0458 -0.1273
 3949W        W78937   5.408  34.469  11.809 -0.5622  0.0524 -0.2524
 3950W        W78938  13.923  19.264   7.110  0.1383 -0.0230 -0.5268
 3951W        W78939  32.577  18.195  22.261 -0.1608 -0.3717 -0.3570
 3952W        W78940  11.714   0.922  14.604 -0.0556  0.3470  0.1806
 3953W        W78941  15.511  16.519   0.135  0.0783 -0.0315 -0.3323
 3954W        W78942   4.185  19.126  22.629 -0.2137 -0.0151 -0.0554
 3955W        W78943  17.646  22.224  25.318 -0.2496 -0.1962 -0.0450
 3956W        W78944  10.307  12.656  10.375 -0.0588 -0.1515  0.1603
 3957W        W78945  30.758   5.225  12.927  0.3121 -0.1909 -0.1068
 3958W        W78946  29.545  33.135  23.273  0.1929 -0.0016  0.0289
 3959W        W78947  29.832  23.824  15.205 -0.0125 -0.1263  0.4284
 3960W        W78948  26.256  13.714  25.563  0.1441  0.4452 -0.3506
 3961W        W78949  10.539  13.609  13.501 -0.2094  0.1263  0.0225
 3962W        W78950  28.020  32.419  19.939  0.3030  0.1465  0.1308
 3963W        W78951   8.630  15.270  21.452 -0.0071  0.2239  0.0654
 3964W        W78952  24.304  21.906  15.938 -0.0067  0.3405  0.2771
 3965W        W78953  12.913  34.469  26.165  0.2058  0.0348  0.0499
 3966W        W78954  21.798  31.324  12.679 -0.1118  0.1839  0.0230
 3967W        W78955   3.147  34.624   9.254 -0.2356  0.4224 -0.3217
 3968W        W78956   8.392   3.273   5.422 -0.2983 -0.1508 -0.2048
 3969W        W78957  31.738  30.116  25.912  0.2560 -0.0271 -0.1132
 3970W        W78958   4.778   2.574   6.314 -0.0475  0.0714 -0.0424
 3971W        W78959  10.095  22.629  13.352 -0.1324 -0.2617  0.2469
 3972W        W78960  25.812   7.739  25.096  0.0541  0.4685  0.1818
 3973W        W78961  24.386  21.985  23.889  0.0924 -0.0650 -0.2729
 3974W        W78962  31.259  12.743  18.204 -0.0615  0.3209 -0.0184
 3975W        W78963  30.611  17.765  18.283 -0.1789  0.3641  0.0503
 3976W        W78964   0.097  10.316  21.174 -0.0288 -0.2657 -0.4081
 3977W        W78965  25.262  25.856  25.572  0.0572  0.1764 -0.3160
 3978W        W78966   8.293  16.821  21.745 -0.1233 -0.1625 -0.0820
 3979W        W78967   6.613   5.857   8.154 -0.5181  0.0866  0.0343
 3980W        W78968  33.976  11.935  23.573 -0.1850 -0.2428  0.0111
 3981W        W78969   1.097  17.533  13.072 -0.1031 -0.2723 -0.1333
 3982W        W78970   9.594  13.496   4.240  0.1299 -0.2825  0.0030
 3983W        W78971  30.796  27.371  15.111 -0.0391 -0.1645 -0.2408
 3984W        W78972   6.509  23.413   9.963 -0.1121  0.2087 -0.2323
 3985W        W78973  12.475  24.485   1.773  0.2435 -0.2205  0.0846
 3986W        W78974  25.234   2.582  24.748  0.1273  0.0040 -0.2154
 3987W        W78975   3.235   2.014   0.499  0.1146 -0.1377  0.1236
 3988W        W78976  17.609   7.237   3.953  0.1006 -0.1617 -0.0679
 3989W        W78977  20.877   6.160  17.793  0.1248 -0.0517 -0.2190
 3990W        W78978   5.649  29.271   7.564 -0.0181  0.0939 -0.1877
 3991W        W78979   7.928  30.655  21.676 -0.0300  0.0815 -0.1933
 3992W        W78980  22.915  21.431  22.466  0.2421 -0.1216  0.2604
 3993W        W78981  22.896  22.310   4.485 -0.0045  0.4168 -0.0871
 3994W        W78982   2.278  11.819  24.323 -0.3609  0.0379 -0.2138
 3995W        W78983   8.302  20.362   0.510  0.3907  0.3300  0.1225
 3996W        W78984  10.770  26.345   5.477 -0.2215  0.0711 -0.1276
 3997W        W78985   2.605  13.970   0.484 -0.0238  0.1052  0.1686
 3998W        W78986  14.020   5.850  25.471 -0.5020 -0.0481 -0.1968
 3999W        W78987  13.413  25.448  11.118  0.0909 -0.3311  0.3461
 4000W        W78988  27.176  17.107  21.133 -0.4520  0.0068 -0.0041
 4001W        W78989   4.153  11.705   6.208  0.1785  0.1810  0.0870
 4002W        W78990  28.932  14.131  21.998  0.0171 -0.0400 -0.0714
 4003W        W78991  15.457  19.119   5.680 -0.2818  0.1443 -0.0500
 4004W        W78992  23.556  23.376  15.117 -0.1533 -0.0206 -0.0794
 4005W        W78993   2.867   8.467   0.584  0.3390  0.2145 -0.3147
 4006W        W78994  24.252  21.400   1.336  0.0896  0.0926 -0.0312
 4007W        W78995  32.258  15.520  10.708  0.2126 -0.2335  0.0064
 4008W        W78996   6.190  19.392   6.165 -0.0955 -0.0427 -0.0622
 4009W        W78997  24.260  30.846  23.666  0.0602  0.1582 -0.2570
 4010W        W78998  25.278  28.222  16.786 -0.0146 -0.3542  0.0196
 4011W        W78999   0.246  19.306  20.264 -0.1839 -0.0157 -0.3191
 4012W        W79000  25.648   8.988  20.713  0.0150  0.0870 -0.2656
 4013W        W79001  28.993  29.001  12.312 -0.0348  0.0630  0.0822
 4014W        W79002  11.397  31.495   8.890  0.2375  0.1350  0.1306
 4015W        W79003  31.150  22.763  15.627  0.0603  0.3630 -0.1736
 4016W        W79004   5.535  31.751  25.822  0.0661 -0.0333 -0.2711
 4017W        W79005  32.296   2.701  24.962 -0.1832  0.1398 -0.1582
 4018W        W79006   6.325  11.981   3.887  0.1421  0.0522 -0.0868
 4019W        W79007  16.685  33.037   6.738  0.1844  0.2252 -0.4049
 4020W        W79008  26.619  22.789  25.584  0.2640  0.1762  0.1992
 4021W        W79009   7.585  21.145   9.331 -0.2201 -0.0055  0.0438
 4022W        W79010  16.649   7.814  21.925 -0.0525 -0.2782 -0.1864
 4023W        W79011  33.104  31.776  15.237  0.0314 -0.2235 -0.0345
 4024W        W79012  20.941   7.338   4.860 -0.0919  0.3131 -0.1524
 4025W        W79013   2.921  31.827  24.547 -0.3415 -0.6099 -0.4744
 4026W        W79014  11.074  31.766   5.159 -0.5613  0.1096  0.2050
 4027W        W79015  24.640   6.823   2.273  0.0313  0.1481 -0.0183
 4028W        W79016   8.579  21.857  24.404  0.1931 -0.2617 -0.2119
 4029W        W79017  30.765  33.925  25.188  0.0760  0.1924  0.2183
 4030W        W79018  14.549   6.768   0.833 -0.0023  0.0893 -0.1087
 4031W        W79019  25.946   6.534  14.792 -0.1989 -0.0613  0.1331
 4032W        W79020  21.146   3.303   3.291  0.5803 -0.0781 -0.0714
 4033W        W79021  25.571  28.917  15.934 -0.1345  0.2761  0.0662
 4034W        W79022   3.800  11.840   4.971  0.3379  0.0065 -0.1598
 4035W        W79023  15.727  21.960  25.854  0.1594  0.2529  0.0832
 4036W        W79024  27.702  23.423   7.845  0.0846 -0.2128  0.1319
 4037W        W79025  27.188  30.869  23.439 -0.0258 -0.1469 -0.3322
 4038W        W79026  10.543  29.222  12.584 -0.1061 -0.0641 -0.1435
 4039W        W79027   5.527   9.358   4.942  0.0964  0.2275  0.4153
 4040W        W79028   5.527  14.776  23.085  0.2891 -0.1537 -0.0975
 4041W        W79029  29.621  34.504   1.440 -0.1596 -0.0586 -0.4608
 4042W        W79030  34.455  10.157  12.684 -0.4228  0.2129  0.0745
 4043W        W79031  29.222  32.583  15.651 -0.0922  0.2058  0.0022
 4044W        W79032  24.422   7.221  23.311  0.0100 -0.0171  0.2590
 4045W        W79033  23.778  33.684  25.858 -0.0343 -0.0937 -0.0501
 4046W        W79034  17.738  19.789   5.416 -0.1482  0.1516  0.1657
 4047W        W79035  32.279  33.132  26.170 -0.1773 -0.0689 -0.5388
 4048W        W79036   2.706  34.899   9.362  0.0335  0.1262 -0.0722
 4049W        W79037   3.019   6.496  21.529  0.0049  0.0442  0.0300
 4050W        W79038  13.924  21.551   4.975  0.0238  0.0637  0.0421
 4051W        W79039  22.246  31.920  14.234 -0.1492 -0.1145  0.0579
 4052W        W79040   3.043  21.862  16.033 -0.1008 -0.0131  0.2940
 4053W        W79041  27.543  32.325   4.778 -0.0359 -0.0967 -0.0073
 4054W        W79042  21.822  28.768   2.116  0.1543  0.1802 -0.2430
 4055W        W79043  25.687  24.780  14.288 -0.1701 -0.3037  0.1556
 4056W        W79044   8.279   3.309  23.259  0.0416  0.0599 -0.0886
 4057W        W79045  32.303  12.381  15.213  0.3703  0.0895  0.0643
 4058W        W79046  11.616   0.038   0.210  0.1476  0.6351  0.1454
 4059W        W79047  30.073  13.156  14.759  0.0775  0.1867  0.0411
 4060W        W79048  24.535  11.448  18.664  0.1116 -0.1281 -0.1502
 4061W        W79049  31.257   9.742  20.294 -0.1158 -0.2124  0.0087
 4062W        W79050  30.856   3.891  18.314 -0.1552  0.3294 -0.1621
 4063W        W79051   6.594   2.936  21.349  0.0657 -0.2895 -0.4814
 4064W        W79052  21.494  33.085  24.810 -0.3669 -0.3478  0.0670
 4065W        W79053  10.249   4.119   7.817 -0.0236 -0.0402 -0.2187
 4066W        W79054  19.784  33.931  19.525  0.2564 -0.1750 -0.0772
 4067W        W79055   8.036   0.617  23.803  0.2814 -0.0730  0.0757
 4068W        W79056  22.068  28.470  15.446  0.0207 -0.0637 -0.0620
 4069W        W79057  31.453  18.455  21.803 -0.1102  0.0702  0.0805
 4070W        W79058  18.277  30.756  26.158  0.0188 -0.0299 -0.3973
 4071W        W79059  19.549  29.677   3.244  0.0539  0.4196 -0.2049
 4072W        W79060   6.304   3.398  25.606 -0.2598  0.0740  0.1348
 4073W        W79061  14.947   4.901   7.255 -0.5508  0.0969  0.2860
 4074W        W79062   3.538  23.333   1.832  0.1101  0.0641  0.1299
 4075W        W79063  27.913  14.590  17.075 -0.0749  0.1723  0.0659
 4076W        W79064   8.036  11.001  13.127  0.0245 -0.1018 -0.0511
 4077W        W79065  13.584   0.064   4.686 -0.0774  0.0698  0.3818
 4078W        W79066  23.030   5.883  25.168  0.0257  0.3497  0.2519
 4079W        W79067  12.814  10.115   8.158 -0.0772 -0.1104  0.1594
 4080W        W79068  30.696  11.033  16.713  0.1737 -0.2885  0.0250
 4081W        W79069  26.255  10.085  24.467 -0.0940  0.0530 -0.0188
 4082W        W79070  33.429  18.959  17.187 -0.1775  0.1604  0.0751
 4083W        W79071  22.417  29.848  15.598 -0.1158 -0.0912 -0.4125
 4084W        W79072  20.713  15.560  22.830  0.0510  0.1291 -0.1880
 4085W        W79073   8.985  33.514  12.605  0.0716  0.2330  0.4541
 4086W        W79074  21.910  32.377  15.581 -0.4771 -0.0268  0.3181
 4087W        W79075   1.892  18.468  12.481  0.1252  0.1484  0.0865
 4088W        W79076  11.197  20.068  12.437  0.3830 -0.1775 -0.1961
 4089W        W79077  15.945   2.479  21.754  0.2383 -0.2792 -0.2706
 4090W        W79078  18.163  26.340  23.761 -0.0094  0.0816  0.0559
 4091W        W79079  24.968  21.675  12.152 -0.1562  0.1443 -0.1712
 4092W        W79080  34.366  10.215  11.676  0.1711  0.0181 -0.0368
 4093W        W79081   1.569  32.674   3.299  0.1326  0.2694  0.1022
 4094W        W79082  21.041  16.547  18.647 -0.1690 -0.0794 -0.0255
 4095W        W79083  30.419   5.070   1.639  0.1494  0.0256  0.1442
 4096W        W79084  19.132  29.325   2.368  0.2035  0.3724 -0.0904
 4097W        W79085  20.205  34.252   3.000  0.1021  0.0459 -0.0171
 4098W        W79086   7.359  14.845   5.961 -0.4018  0.2180 -0.3001
 4099W        W79087   3.421   1.800  26.147  0.0179 -0.0360  0.0887
 4100W        W79088  25.077   1.216  14.847 -0.1012 -0.0085 -0.4988
 4101W        W79089   5.149  19.115   0.768  0.2923 -0.1229 -0.0058
 4102W        W79090  13.704   6.773   5.246 -0.1074  0.1283  0.0981
 4103W        W79091  27.401  15.686  24.355  0.1315 -0.1106  0.1163
 4104W        W79092  16.957  33.554  17.749 -0.0065  0.0225 -0.0045
 4105W        W79093  34.740  10.595  11.742 -0.2707  0.0817  0.1129
 4106W        W79094  19.564   6.175   7.342  0.1276 -0.4060 -0.2079
 4107W        W79095  28.191   2.812  24.653  0.0195  0.1704  0.1113
 4108W        W79096  20.484   1.169  21.006  0.1135  0.3934  0.1772
 4109W        W79097   8.785   7.218   1.441 -0.1778 -0.1868 -0.1297
 4110W        W79098  10.550  28.559   6.977 -0.2320  0.0816 -0.0378
 4111W        W79099  14.058   8.448   0.351 -0.1406  0.3302 -0.0422
 4112W        W79100  34.734  32.956   7.655  0.1234 -0.1016 -0.2656
 4113W        W79101  18.048  10.226  22.607 -0.2736 -0.0087 -0.1663
 4114W        W79102  12.962   8.489   4.660 -0.0589  0.0202 -0.1372
 4115W        W79103   0.272   3.138   6.923 -0.2749  0.2530  0.1898
 4116W        W79104   9.226  13.673   2.242  0.3851 -0.1416 -0.0982
 4117W        W79105  15.141  18.706   8.609  0.2976 -0.4450  0.1459
 4118W        W79106  21.123   3.805   3.067 -0.1630  0.2085  0.3104
 4119W        W79107  14.544  16.818  13.114 -0.3079 -0.1329  0.0440
 4120W        W79108  24.563   2.076  24.516 -0.1693  0.1495 -0.2211
 4121W        W79109   6.027  30.153  11.195  0.2223 -0.2173  0.0361
 4122W        W79110  14.063  26.176   8.909  0.0857 -0.1708  0.0859
 4123W        W79111  16.283  10.530   6.513 -0.3674  0.2341 -0.2375
 4124W        W79112   3.670  10.773  18.458 -0.0753  0.0512 -0.1062
 4125W        W79113  15.715  34.930   4.257 -0.2325  0.1400  0.0696
 4126W        W79114  16.064  27.739  24.928 -0.2085  0.2967 -0.1539
 4127W        W79115   4.595   6.998  19.393  0.1549  0.1049  0.0871
 4128W        W79116  15.028  24.955   5.221 -0.4406 -0.0783 -0.0925
 4129W        W79117  16.005  10.476  24.770 -0.1592  0.1600  0.0550
 4130W        W79118  28.876  29.248  15.184 -0.1152 -0.2072 -0.2132
 4131W        W79119  34.115   4.210  14.048 -0.1244  0.0714 -0.2538
 4132W        W79120  20.430  10.863  18.256  0.1215 -0.1411 -0.0653
 4133W        W79121  34.308  18.711  20.638  0.0002  0.0101  0.0223
 4134W        W79122  22.180  32.041   3.729 -0.4327  0.3543 -0.2677
 4135W        W79123  14.287  31.662  21.965  0.1283 -0.1209  0.1869
 4136W        W79124   7.638   3.224   7.619 -0.1118  0.0806 -0.1544
 4137W        W79125   1.570  32.941   5.540 -0.1895 -0.1122 -0.1195
 4138W        W79126   8.000   3.884   2.118  0.1428  0.2564  0.0264
 4139W        W79127  13.857  24.361   5.017 -0.3124 -0.0756 -0.1590
 4140W        W79128   0.144  12.497  20.368 -0.3812  0.2278  0.2907
 4141W        W79129  18.044  28.838   2.690 -0.1312  0.1471 -0.1183
 4142W        W79130   4.411   2.267   1.040 -0.1765 -0.2535 -0.1749
 4143W        W79131   9.467  23.383   7.667 -0.0295  0.1552 -0.1976
 4144W        W79132   7.755  22.175   5.155  0.2435 -0.1583  0.0622
 4145W        W79133  19.935  23.019   1.362 -0.1569 -0.0469  0.1464
 4146W        W79134   0.360  17.828  11.635 -0.1002 -0.1581 -0.2425
 4147W        W79135   5.293   3.355   4.398  0.0025  0.2065 -0.0407
 4148W        W79136   2.467  16.612  22.921 -0.1548  0.2181  0.1299
 4149W        W79137  16.215  28.342  21.680  0.1479  0.1224 -0.0485
 4150W        W79138  30.182  28.159  16.149  0.1244  0.1108 -0.3623
 4151W        W79139   0.157   1.607  15.999  0.0854  0.0193  0.1593
 4152W        W79140  16.780  19.946   8.859  0.1061  0.0921  0.0956
 4153W        W79141   1.824   4.683   7.190  0.2165  0.2145 -0.1804
 4154W        W79142  14.323  34.072   1.804  0.2925 -0.1930  0.0540
 4155W        W79143   1.365   6.356  17.293  0.3230 -0.2598 -0.4240
 4156W        W79144  15.605  35.093  19.233  0.1250  0.0041  0.1229
 4157W        W79145  26.475  17.279  11.484 -0.0320 -0.1877  0.0766
 4158W        W79146  24.242  12.332  15.071  0.3225 -0.3321  0.3168
 4159W        W79147   2.997  30.077   1.999  0.1921  0.0577  0.1122
 4160W        W79148   0.523   6.634  24.089 -0.3313 -0.2038  0.0550
 4161W        W79149  11.201  22.070  14.391 -0.0330  0.3382  0.0066
 4162W        W79150  17.810  32.131  22.535 -0.1446 -0.0954 -0.4648
 4163W        W79151  16.162  33.831  25.544  0.1421 -0.0218 -0.1288
 4164W        W79152  29.910  10.935   8.327 -0.1063 -0.2781  0.1213
 4165W        W79153  20.997  21.047  23.544  0.1311 -0.2057  0.1326
 4166W        W79154  12.280  18.771   9.871  0.1071  0.2982  0.0741
 4167W        W79155  24.622   2.704  21.622 -0.4513 -0.0903 -0.2679
 4168W        W79156  30.126   8.147   0.901 -0.0622 -0.0408 -0.3685
 4169W        W79157   6.062  13.032  20.910  0.0399 -0.0018  0.0234
 4170W        W79158  32.799  27.312   1.284 -0.0157  0.0287 -0.2762
 4171W        W79159  31.887  26.928  14.545  0.1036 -0.0699  0.0160
 4172W        W79160  17.840  17.310   4.968  0.1591 -0.0371 -0.3271
 4173W        W79161  31.510  21.487  26.136  0.4084  0.0499  0.3517
 4174W        W79162  17.553  16.213  18.674  0.1821  0.1406 -0.3172
 4175W        W79163   8.990  12.648  23.787  0.0544 -0.0337 -0.1526
 4176W        W79164   1.444  15.322  15.162 -0.0669 -0.0072  0.3268
 4177W        W79165  10.151  31.455  13.568 -0.3759 -0.1363  0.0191
 4178W        W79166  35.166   0.885  16.519 -0.1105 -0.0192  0.1901
 4179W        W79167  16.114  18.706   2.826  0.1550  0.1880 -0.3208
 4180W        W79168  14.415   3.336   7.242  0.0057 -0.2986  0.1342
 4181W        W79169  27.698  25.527  11.322 -0.0481 -0.3272 -0.0895
 4182W        W79170  20.188  22.781   7.821 -0.1436  0.2278 -0.2127
 4183W        W79171   1.420   9.278  16.124 -0.0962 -0.1253  0.0356
 4184W        W79172  27.156   4.398  14.180  0.0211 -0.3619 -0.1485
 4185W        W79173  32.440  13.571  19.190 -0.0397  0.0424 -0.2445
 4186W        W79174  32.837   9.832  25.270 -0.0385  0.0017  0.0688
 4187W        W79175  18.705   7.639  24.821  0.0167 -0.1107  0.5792
 4188W        W79176   6.832  35.120  22.134 -0.1213  0.2046  0.1830
 4189W        W79177   6.037  19.103  22.552  0.1235 -0.3854 -0.2292
 4190W        W79178  34.614   9.327  20.047  0.2034  0.0132  0.0565
 4191W        W79179  26.431   2.189   0.684 -0.0162  0.2073  0.5490
 4192W        W79180  17.927  31.996   3.152  0.2520 -0.2028 -0.1143
 4193W        W79181  30.655  31.061   5.001 -0.0624 -0.0204  0.0095
 4194W        W79182   7.549   9.591   5.437 -0.1862 -0.1925 -0.3409
 4195W        W79183  11.168   7.914   9.772  0.1355 -0.1175  0.0961
 4196W        W79184  34.969   0.105   7.586  0.2768 -0.0388  0.2300
 4197W        W79185  26.823  30.927   2.683 -0.0932 -0.1505  0.2085
 4198W        W79186  27.410   2.438  22.149  0.0475 -0.0679  0.1467
 4199W        W79187  34.951  30.428  14.685 -0.0942 -0.1725  0.3329
 4200W        W79188  27.908  14.680  11.979  0.0798 -0.1806 -0.0367
 4201W        W79189  29.259  18.760   6.241 -0.0198  0.1150 -0.2751
 4202W        W79190  34.977  26.934  13.793 -0.1942  0.1423 -0.1399
 4203W        W79191  18.792  13.766   8.761 -0.1895  0.0247 -0.0208
 4204W        W79192   1.703  10.692   1.592  0.0543 -0.0446  0.1524
 4205W        W79193   8.156  14.885  22.905 -0.0868 -0.2080 -0.2355
 4206W        W79194  30.583  14.888  10.854 -0.1479  0.0411 -0.1779
 4207W        W79195   8.641  30.323  23.300  0.0861  0.1157  0.0298
 4208W        W79196  12.855  26.423   6.194 -0.2734 -0.1568  0.3605
 4209W        W79197   5.166  12.838   7.038  0.2404  0.0622  0.0335
 4210W        W79198  17.505  23.219  14.265  0.1456 -0.1430  0.1661
 4211W        W79199  14.418   2.791   2.848  0.2774 -0.0197 -0.1207
 4212W        W79200  28.167   6.126  12.946  0.0745 -0.0691 -0.1302
 4213W        W79201  11.330  28.153   6.267  0.0427 -0.0637 -0.0420
 4214W        W79202  22.954  35.013  25.597 -0.0522  0.0410  0.1589
 4215W        W79203  13.858  24.473   5.580  0.0198 -0.0283  0.0688
 4216W        W79204  26.382   7.554   2.880  0.0652 -0.4002  0.1470
 4217W        W79205  32.497   2.965  13.553 -0.1424  0.3513  0.0810
 4218W        W79206  11.406   1.206   4.827 -0.3701 -0.2857  0.0675
 4219W        W79207  27.413  25.349  18.186 -0.2972 -0.0293 -0.0977
 4220W        W79208   2.680   8.627   3.426 -0.1533 -0.4313 -0.4578
 4221W        W79209  26.117   0.847   1.678  0.1148  0.0905  0.0591
 4222W        W79210  28.373   2.582  24.208  0.0366 -0.0112 -0.1264
 4223W        W79211  33.400   6.862  21.193 -0.1160 -0.0420 -0.0325
 4224W        W79212  21.264   3.043  24.772 -0.1131  0.0698 -0.1145
 4225W        W79213  23.920  11.320   1.712  0.0351 -0.1298  0.0099
 4226W        W79214  30.196   1.252   4.491 -0.1491  0.1561 -0.0604
 4227W        W79215  28.963  18.373  16.706 -0.0541  0.2689 -0.0708
 4228W        W79216  26.840  33.977   4.659  0.2330  0.0175 -0.0894
 4229W        W79217  13.640  20.706   5.632 -0.0061  0.1817 -0.2538
 4230W        W79218  30.388   0.541   6.509  0.0881 -0.0533  0.1452
 4231W        W79219  31.617  31.981  16.121  0.1748 -0.0658 -0.1207
 4232W        W79220   6.882  32.937  14.078 -0.1749 -0.0063  0.0257
 4233W        W79221  16.194  21.848  13.736  0.0817 -0.0696 -0.0052
 4234W        W79222  18.096  15.490  25.877 -0.2150  0.1327  0.3635
 4235W        W79223   3.367  10.384  20.927 -0.0227 -0.1677 -0.5008
 4236W        W79224  23.325   9.063  22.062  0.1118 -0.0323 -0.1619
 4237W        W79225  22.205  32.184  24.311  0.1344  0.1530 -0.3096
 4238W        W79226   5.723  20.076  20.346 -0.0468  0.0791 -0.2101
 4239W        W79227  32.590  18.181   5.459  0.0596  0.1486  0.0122
 4240W        W79228  19.345  32.825  16.930 -0.1900  0.0962 -0.0071
 4241W        W79229  25.765   4.338  22.773 -0.0499 -0.0517  0.2763
 4242W        W79230  21.406  16.546   2.250  0.1905 -0.2406 -0.1086
 4243W        W79231  16.787   2.047  22.740 -0.1169  0.0907  0.2783
 4244W        W79232   7.494  11.336   5.091  0.0193 -0.0068 -0.0124
 4245W        W79233  23.430  10.228   0.872 -0.0324 -0.0096  0.0408
 4246W        W79234  17.723  14.744  22.812 -0.1585 -0.0779  0.0072
 4247W        W79235  28.482   3.463  10.924  0.0855  0.0851  0.0429
 4248W        W79236   2.072  28.457  21.469 -0.1254  0.2467 -0.0213
 4249W        W79237  16.945  20.333  21.232  0.0432 -0.1108 -0.1423
 4250W        W79238  10.547  16.387   0.416 -0.1560 -0.2416 -0.2376
 4251W        W79239   0.761  19.219  23.038 -0.0636  0.1509  0.3727
 4252W        W79240  16.597  12.397  24.488  0.2070 -0.1750 -0.0448
 4253W        W79241  20.089  12.876  19.741 -0.0707 -0.0835  0.0471
 4254W        W79242   8.084   7.807   1.608  0.0273 -0.2561  0.0534
 4255W        W79243  29.850  11.737   7.430 -0.2402 -0.0155 -0.0525
 4256W        W79244   9.755  17.917  12.022 -0.1549 -0.0713 -0.2625
 4257W        W79245  26.314  31.228  25.833 -0.2588  0.0716  0.0286
 4258W        W79246  30.420  33.373  16.727 -0.2217 -0.1608  0.1120
 4259W        W79247  34.404  23.108  21.276  0.0295 -0.0294 -0.1182
 4260W        W79248   9.944   1.495  22.111  0.1463  0.1996  0.2243
 4261W        W79249   3.553   2.602   6.914 -0.2010  0.4713  0.0678
 4262W        W79250   8.135  23.023  22.273 -0.2001 -0.0855  0.2453
 4263W        W79251   0.421  24.725  22.169 -0.2553  0.2049  0.2286
 4264W        W79252  18.686   9.877  25.085 -0.1557 -0.1828 -0.2656
 4265W        W79253  27.182  26.511   2.706  0.0785  0.2302  0.1677
 4266W        W79254  34.630  15.390  14.990 -0.3044  0.0958 -0.1233
 4267W        W79255  20.560  33.978   6.622  0.1903  0.2397 -0.2846
 4268W        W79256  25.985   4.448  17.465 -0.0103  0.0422 -0.1771
 4269W        W79257   5.546  29.977   7.785 -0.0151  0.1486 -0.0969
 4270W        W79258   3.608  29.836  10.993 -0.0803  0.2300 -0.1120
 4271W        W79259  28.225  14.988   7.889  0.0077  0.3186 -0.0760
 4272W        W79260  33.537  26.277  14.529  0.1053 -0.0264 -0.0956
 4273W        W79261  30.184  22.921   5.758  0.0139  0.2701  0.0248
 4274W        W79262  29.265  10.434  24.262 -0.1577 -0.5109 -0.0218
 4275W        W79263  30.328  11.850   7.307 -0.1582 -0.1352 -0.1730
 4276W        W79264  32.360  11.552  18.196  0.2014 -0.0393 -0.2599
 4277W        W79265  12.764  25.572   3.614 -0.1202  0.0211 -0.2074
 4278W        W79266  29.786  26.575  25.675 -0.0555  0.1473 -0.1149
 4279W        W79267  16.698   1.244  25.914  0.1805 -0.3351 -0.0098
 4280W        W79268   6.528   2.004  22.434  0.0403 -0.2970 -0.1011
 4281W        W79269  20.693   8.960  19.606 -0.0828 -0.0527 -0.1684
 4282W        W79270   1.158  23.898   1.562  0.3103  0.0623  0.0918
 4283W        W79271  34.905  28.001  24.941 -0.2143  0.0104 -0.0190
 4284W        W79272  10.266  28.770  22.220  0.0212  0.1201 -0.1119
 4285W        W79273  18.974   4.406   4.669  0.0423  0.3066  0.0123
 4286W        W79274   5.392  21.034  20.959  0.2193  0.1141  0.0798
 4287W        W79275  17.775   5.485  24.616  0.1813 -0.2797  0.0070
 4288W        W79276  30.903   8.359  17.910 -0.1213  0.0252  0.0693
 4289W        W79277  25.600  26.654  25.206  0.3531 -0.2260  0.1454
 4290W        W79278  32.674   9.021  16.243  0.2200 -0.1343 -0.1914
 4291W        W79279  32.342  17.634  14.085  0.1078 -0.1325  0.1618
 4292W        W79280   4.811  29.978   2.250 -0.1736 -0.0508  0.0197
 4293W        W79281  32.322  14.378  21.163 -0.0291  0.2927 -0.2638
 4294W        W79282   4.525   4.680   4.711  0.0620 -0.2951 -0.0460
 4295W        W79283  33.038  17.430   5.573 -0.1105 -0.1948 -0.1821
 4296W        W79284  26.281  24.315   1.383 -0.0480  0.2256 -0.0320
 4297W        W79285   4.823  27.115   0.821  0.3223  0.0185 -0.2691
 4298W        W79286  11.139  29.463  24.754 -0.1298 -0.5415  0.0064
 4299W        W79287  31.460   3.656  12.994 -0.1446  0.1794  0.0434
 4300W        W79288   9.952  24.932   1.993  0.2315 -0.1934 -0.1806
 4301W        W79289  28.239  29.286  10.394 -0.0615 -0.1352 -0.1506
 4302W        W79290  29.243   3.153  14.624 -0.0687 -0.0718  0.1058
 4303W        W79291   7.277   5.679   6.530 -0.2862 -0.1020 -0.1784
 4304W        W79292  19.944  22.777   3.200 -0.2116  0.3840 -0.1391
 4305W        W79293  30.667  25.921  15.293 -0.1258  0.0075  0.0390
 4306W        W79294   9.936   8.425  20.495 -0.0999 -0.1398  0.1471
 4307W        W79295  28.191  13.335  15.634  0.0406  0.1545 -0.1080
 4308W        W79296   9.591  21.569  15.802  0.1064 -0.0077  0.1673
 4309W        W79297  16.146  25.966   0.503  0.1505  0.0881 -0.1946
 4310W        W79298  13.464  18.528   9.759  0.0366  0.0837 -0.0568
 4311W        W79299  25.397  10.961  17.100  0.1479 -0.2493  0.0360
 4312W        W79300  13.490  27.839  15.577 -0.0387  0.1692 -0.0566
 4313W        W79301  30.089  23.428  26.166 -0.0925 -0.1342  0.3031
 4314W        W79302  33.266  22.594   8.586 -0.3298  0.0740  0.0708
 4315W        W79303  32.174   6.712  12.748  0.0259 -0.3070  0.0690
 4316W        W79304   5.619  28.021  22.855 -0.2041  0.1784  0.0884
 4317W        W79305  30.162  12.459   5.657 -0.1212 -0.0702 -0.0495
 4318W        W79306  20.741  16.342  21.134 -0.0164  0.0474 -0.2555
 4319W        W79307   5.222  16.008  20.085  0.0299 -0.1655  0.0618
 4320W        W79308  21.766  20.458  16.377  0.1040  0.0549  0.0835
 4321W        W79309  10.232   0.809  25.119 -0.0592 -0.0004  0.2126
 4322W        W79310   9.891  10.803  13.120  0.0009 -0.0225 -0.1836
 4323W        W79311   3.912  10.026  25.925  0.2802  0.0387  0.0254
 4324W        W79312  32.039  16.852  25.089 -0.1842 -0.1943  0.0725
 4325W        W79313  24.176  27.513  14.549 -0.1814  0.3928 -0.7203
 4326W        W79314  17.826   6.990  24.302 -0.0017  0.1204 -0.1198
 4327W        W79315  13.568  32.620   8.629 -0.0978 -0.0111 -0.0969
 4328W        W79316  29.192  19.188  19.332  0.2445  0.1197  0.0816
 4329W        W79317   6.418   0.312   0.001  0.2346 -0.2459 -0.0718
 4330W        W79318  16.502  28.762   4.187  0.0796 -0.2886  0.2249
 4331W        W79319  23.425  29.379   5.721  0.1672 -0.0738  0.4126
 4332W        W79320  34.036   8.261  20.715  0.2271 -0.2895 -0.2608
 4333W        W79321  17.441  15.881  24.572 -0.0416 -0.2484 -0.0084
 4334W        W79322  20.867   0.797   1.348 -0.0344  0.3600 -0.2661
 4335W        W79323  10.229  31.722  22.572  0.1193  0.0267  0.0626
 4336W        W79324  15.641  23.473  21.939 -0.2917  0.0628 -0.3801
 4337W        W79325  30.724   9.715   9.241 -0.1100 -0.1858 -0.2355
 4338W        W79326  31.497  24.963   0.118  0.0652 -0.0643 -0.0466
 4339W        W79327  16.916  13.335   3.201 -0.1511 -0.3026  0.2496
 4340W        W79328  24.721  35.278   4.309  0.2967  0.4676  0.1410
 4341W        W79329   2.081   1.818   3.155 -0.0259  0.1763  0.1074
 4342W        W79330   9.624   7.699  10.952 -0.2479  0.2629 -0.0709
 4343W        W79331  35.099  22.998  11.105  0.1696  0.3236 -0.1966
 4344W        W79332   3.492   7.998  18.767 -0.1047 -0.0194  0.3209
 4345W        W79333   4.011   3.791  22.958 -0.0199 -0.1620  0.0454
 4346W        W79334   0.327   8.742  19.229  0.1447 -0.1129 -0.1001
 4347W        W79335  32.063   3.794   0.800  0.0579 -0.0520  0.4551
 4348W        W79336  30.263  34.650   5.871  0.1861 -0.0883  0.0179
 4349W        W79337  17.205  22.205  14.452 -0.2459 -0.0420 -0.0614
 4350W        W79338  21.179  28.954   5.293  0.1090 -0.1215 -0.2949
 4351W        W79339  11.746  31.128  23.625  0.1842 -0.1335  0.2659
 4352W        W79340  22.057  32.555  18.693 -0.0254  0.2622 -0.0326
 4353W        W79341   4.262  25.655  21.446  0.1392  0.2433 -0.2990
 4354W        W79342  32.012  10.928  20.917  0.2691  0.2662 -0.1871
 4355W        W79343   2.088   9.398   0.695  0.0141 -0.0362  0.1226
 4356W        W79344   0.430   5.466  17.650 -0.0274 -0.0809 -0.0422
 4357W        W79345  13.110  23.919  21.705  0.3926 -0.1648 -0.0650
 4358W        W79346  18.242  18.461   8.319 -0.0944  0.2914 -0.1143
 4359W        W79347  10.898  23.969  24.134 -0.0528 -0.2471  0.1424
 4360W        W79348   7.703  32.369  20.490 -0.0921  0.1777 -0.1497
 4361W        W79349  19.239  16.912   4.248  0.0349  0.0693  0.0294
 4362W        W79350  17.714   8.905  20.488  0.1017 -0.1460  0.1752
 4363W        W79351   3.812  34.262  22.556 -0.1631  0.1737  0.3075
 4364W        W79352  32.986   3.420  24.647 -0.0530 -0.0016  0.0437
 4365W        W79353  32.608  34.632  20.731 -0.3841  0.1044 -0.0228
 4366W        W79354  25.952  11.536  21.644  0.4445  0.0755  0.0942
 4367W        W79355   4.781  26.518   8.369 -0.2707 -0.0188  0.1006
 4368W        W79356   0.852  31.804  19.534 -0.1007 -0.0428 -0.0658
 4369W        W79357  16.600  20.431  11.913  0.1784  0.0651 -0.0890
 4370W        W79358  24.948   1.571  20.898  0.0921  0.3169  0.1199
 4371W        W79359   9.252   8.976   9.916 -0.1359 -0.2758 -0.3085
 4372W        W79360   9.330  24.954  22.668 -0.0199 -0.0671 -0.0001
 4373W        W79361  20.044  27.549  22.356 -0.3440  0.1454  0.2142
 4374W        W79362  13.408   8.931  19.527 -0.0303  0.4350 -0.0620
 4375W        W79363  31.553  30.276   4.367  0.2272  0.1371  0.0455
 4376W        W79364  13.645  12.271  21.582 -0.1521  0.0386 -0.2018
 4377W        W79365  21.360  11.524   2.814  0.1595  0.0374 -0.1122
 4378W        W79366  27.289  26.364  11.967 -0.2081  0.0684 -0.1457
 4379W        W79367   5.320  23.346  20.250  0.0866 -0.0117  0.1587
 4380W        W79368   2.929   8.894   0.664  0.0005 -0.0219  0.0931
 4381W        W79369   8.718   2.065   7.144  0.4146  0.1344 -0.0983
 4382W        W79370  18.087  34.380   8.008 -0.1152 -0.0188 -0.2538
 4383W        W79371  19.194  15.660  22.577  0.1511 -0.1406  0.0618
 4384W        W79372  28.208  10.140  12.365  0.0947  0.3854 -0.0635
 4385W        W79373   3.484   6.277   8.122  0.1805 -0.0095  0.1677
 4386W        W79374  20.375   5.531  21.294 -0.0358  0.4094 -0.0388
 4387W        W79375  27.901  21.470  13.277 -0.0764 -0.0032 -0.0170
 4388W        W79376   6.734  23.915  22.609  0.0350 -0.3814 -0.1581
 4389W        W79377  18.000   7.244   5.756  0.0665 -0.2336 -0.1034
 4390W        W79378   8.487  28.917  11.960 -0.0081 -0.1971 -0.0260
 4391W        W79379  33.891  16.791   7.943  0.2155 -0.2813 -0.2918
 4392W        W79380  23.275  28.168  25.194 -0.2429 -0.0996 -0.0181
 4393W        W79381   3.314  26.652  24.070 -0.0471  0.0642  0.2488
 4394W        W79382   6.192   0.877  19.794  0.2196  0.0482  0.0050
 4395W        W79383   8.798   6.674   8.848 -0.1663  0.1414 -0.1444
 4396W        W79384  22.716  27.233  16.576 -0.3571 -0.3215  0.0830
 4397W        W79385  11.712   7.373   5.725  0.4876  0.0726 -0.3164
 4398W        W79386  33.146  32.809   4.321  0.1559 -0.2594  0.1091
 4399W        W79387   8.694  30.711   7.288  0.3088 -0.1123 -0.0123
 4400W        W79388  23.917  25.817   0.970 -0.0364 -0.0713 -0.3616
 4401W        W79389  34.825  19.652  21.624  0.0200 -0.0220  0.1525
 4402W        W79390  17.854  32.469   3.345  0.1903  0.1305  0.0898
 4403W        W79391  18.413   1.874   9.588 -0.1194 -0.3617 -0.0608
 4404W        W79392  14.999  25.357  22.178  0.1997 -0.2072 -0.3495
 4405W        W79393  34.282  11.729  26.189  0.1044  0.1082 -0.1803
 4406W        W79394  18.921   3.175  24.556  0.0694  0.0927 -0.0327
 4407W        W79395   8.835  26.562  24.603  0.1737  0.0975 -0.1425
 4408W        W79396   5.831  18.252  21.213  0.1319  0.1973 -0.0840
 4409W        W79397  31.428  18.890  18.031 -0.4352 -0.0471 -0.0152
 4410W        W79398  34.084  30.505  18.657 -0.1052 -0.3173  0.0509
 4411W        W79399  14.259  12.445  22.383 -0.0334  0.1191  0.2407
 4412W        W79400  34.849  19.812  25.700  0.0634 -0.0971  0.1496
 4413W        W79401  27.306  27.859  18.317 -0.1184  0.0155 -0.2585
 4414W        W79402  12.456  17.399  22.967 -0.2053  0.2576 -0.0132
 4415W        W79403  31.761   5.481  13.969 -0.2969 -0.4443 -0.1720
 4416W        W79404   4.575  29.383  21.194 -0.1216 -0.0144 -0.3754
 4417W        W79405  16.809  24.943  11.044 -0.0871 -0.3151  0.1254
 4418W        W79406  19.032  33.537  24.967  0.2573 -0.3541  0.0464
 4419W        W79407  17.943   2.445  24.645  0.0935  0.2735  0.0193
 4420W        W79408  28.341  11.617   6.770  0.0645 -0.0906  0.1721
 4421W        W79409   8.425  16.627  22.698  0.1049  0.1002  0.1434
 4422W        W79410  27.868  19.429   3.977  0.1093  0.2167 -0.3783
 4423W        W79411  30.830  25.846   9.456  0.2483 -0.2140 -0.0190
 4424W        W79412  22.425   4.607  20.722  0.0997 -0.1553 -0.2240
 4425W        W79413   1.510  26.068  24.033 -0.3292  0.1538  0.1526
 4426W        W79414  22.784  32.895   2.604 -0.1084  0.1978 -0.4349
 4427W        W79415   4.835  30.965   2.619  0.1552  0.0209 -0.0563
 4428W        W79416  26.534   8.390  25.970  0.0870  0.0021 -0.0516
 4429W        W79417  22.616  28.970  23.271 -0.3411  0.0346  0.0276
 4430W        W79418   3.974   1.512  20.826  0.0317  0.1291 -0.0828
 4431W        W79419   5.202  19.345  25.584 -0.0010 -0.0238  0.3531
 4432W        W79420  30.204  10.380   0.680  0.0041  0.0293  0.1062
 4433W        W79421  32.896  19.484  15.914  0.1865 -0.3517  0.1852
 4434W        W79422  31.749  18.646  16.815 -0.0491  0.4326 -0.2629
 4435W        W79423  29.110  13.287  15.313 -0.2673 -0.1818 -0.2718
 4436W        W79424  30.062  19.717  24.074  0.3550  0.3195 -0.0958
 4437W        W79425  28.973  29.096  25.108 -0.2636  0.0636 -0.1219
 4438W        W79426  27.460  25.132  12.609 -0.1081 -0.0536  0.3077
 4439W        W79427   7.859   3.771  20.072 -0.2543 -0.0957 -0.0894
 4440W        W79428  18.852  10.893   6.960 -0.4300  0.1782 -0.1067
 4441W        W79429  16.658   3.899   6.420  0.4241 -0.0297 -0.0171
 4442W        W79430   2.664  27.682  22.836  0.0145  0.1395 -0.0380
 4443W        W79431  25.642   7.446   0.101 -0.0757 -0.0224 -0.0268
 4444W        W79432  30.108  20.063  16.922  0.0321  0.1269 -0.4371
 4445W        W79433  25.356   0.563  21.532  0.1196 -0.0368 -0.0743
 4446W        W79434  14.475  14.277  23.297 -0.0290  0.1762 -0.0150
 4447W        W79435  32.327  10.213  23.679  0.5892 -0.0647  0.1823
 4448W        W79436   9.527  21.443   6.937  0.1008 -0.1411 -0.2824
 4449W        W79437  28.270   8.627  10.842 -0.3832 -0.4199  0.1324
 4450W        W79438  19.652   5.515  20.458 -0.2650 -0.6065 -0.0100
 4451W        W79439  28.774  14.013   8.631 -0.3569  0.1006 -0.2080
 4452W        W79440   8.782   7.643  18.400 -0.1426 -0.1887 -0.1354
 4453W        W79441  26.640   2.314  18.850 -0.1133 -0.1166  0.2235
 4454W        W79442  29.187  10.058  21.672 -0.1237 -0.1186 -0.0175
 4455W        W79443   6.477   9.817   2.250 -0.3965 -0.1790  0.3548
 4456W        W79444  23.645  24.069   2.727  0.2296 -0.0040 -0.0665
 4457W        W79445  33.776  27.552  13.748 -0.0028 -0.1547 -0.1203
 4458W        W79446   7.177   7.131   5.618 -0.0985 -0.0210 -0.1052
 4459W        W79447  19.510   1.886  22.996  0.2816  0.4585 -0.2362
 4460W        W79448  11.532   3.233   1.377  0.1946  0.1039 -0.1901
 4461W        W79449  17.615  24.717  23.364  0.2364 -0.1404  0.0382
 4462W        W79450  26.692  32.746   3.190  0.0493  0.0077  0.2857
 4463W        W79451   3.359  12.787  21.960 -0.0788  0.1298 -0.0701
 4464W        W79452  11.924  20.756   4.351 -0.1400  0.0959  0.0882
 4465W        W79453  13.150  10.654  14.244  0.3929 -0.0127  0.0702
 4466W        W79454  16.966  34.025  20.773  0.1812 -0.1076  0.1224
 4467W        W79455  23.905   8.627  20.411 -0.0940  0.2025  0.2842
 4468W        W79456  32.574  24.172  17.069 -0.0865  0.0417  0.0757
 4469W        W79457   8.342  29.017   7.050 -0.1532 -0.2347  0.1350
 4470W        W79458  12.887   8.764   7.912 -0.1371  0.4800  0.2925
 4471W        W79459  15.676   3.998  20.215 -0.2339 -0.1640  0.2090
 4472W        W79460  17.914  29.619  24.126  0.0057 -0.3639  0.1959
 4473W        W79461  24.428  17.014  18.454  0.0164 -0.1034 -0.4680
 4474W        W79462   3.262   0.287   3.662  0.1306  0.2839  0.0001
 4475W        W79463   2.089   5.184   0.608  0.2618 -0.0582  0.0023
 4476W        W79464   3.778  22.423  17.345  0.3162  0.0124  0.1837
 4477W        W79465   2.975  31.569  22.042  0.2479  0.2119 -0.0918
 4478W        W79466   2.758  17.739  14.443 -0.0830 -0.1759  0.2510
 4479W        W79467  32.678   5.387  11.493 -0.2535 -0.0302  0.0400
 4480W        W79468  21.995   6.503   2.065  0.0457 -0.0409 -0.2346
 4481W        W79469  17.757  10.080   7.841 -0.2942 -0.0911 -0.2621
 4482W        W79470  25.842  13.858  19.547 -0.1765  0.1815 -0.2495
 4483W        W79471  18.039  15.378   5.188  0.0040 -0.0705  0.4207
 4484W        W79472  34.015  24.192  10.411  0.0890  0.0119 -0.4463
 4485W        W79473  17.181  18.137  22.561 -0.1811 -0.1033  0.1160
 4486W        W79474  14.014  24.973   3.050 -0.2065 -0.2257 -0.0014
 4487W        W79475  13.443   5.268  23.067 -0.1975 -0.1411  0.1977
 4488W        W79476  16.277   3.719   0.926 -0.0214 -0.0013  0.1952
 4489W        W79477  26.005  11.653  10.697 -0.1194  0.2293 -0.2274
 4490W        W79478  35.358  15.653   0.961 -0.1057 -0.2164  0.1390
 4491W        W79479  10.075   9.621   2.828 -0.1166  0.0655 -0.0133
 4492W        W79480   7.887  25.864  10.304 -0.0039 -0.2000 -0.0299
 4493W        W79481  22.337  28.500   5.114  0.1036  0.1076 -0.1073
 4494W        W79482  33.393   8.359  15.735  0.2050 -0.0538 -0.2700
 4495W        W79483  25.622  15.271  17.791 -0.0228 -0.0575 -0.1883
 4496W        W79484  28.837  35.122  26.161  0.2266  0.1159  0.3259
 4497W        W79485   5.787  29.773   9.135 -0.1646  0.3637 -0.0711
 4498W        W79486  27.487  34.803   5.737  0.2709 -0.0027 -0.3858
 4499W        W79487  34.850   2.357  17.381 -0.1016 -0.0381  0.0088
 4500W        W79488  25.448   4.143  21.515 -0.2665 -0.0637  0.1019
 4501W        W79489   6.164  18.723   2.885 -0.0192  0.0137 -0.1711
 4502W        W79490   8.052  18.638   8.249  0.3047  0.0716 -0.2785
 4503W        W79491  10.345   1.590  12.068  0.1887 -0.2556 -0.0395
 4504W        W79492   4.370  27.590  10.654 -0.0428 -0.2100  0.1130
 4505W        W79493  17.674  31.704   1.084  0.0384  0.1083  0.1357
 4506W        W79494  28.742  19.354  19.284  0.2344 -0.0161 -0.0496
 4507W        W79495   3.348  10.432  18.599  0.1763  0.1824 -0.0164
 4508W        W79496  23.785  17.800  10.159  0.1824  0.5135 -0.0742
 4509W        W79497  28.759  16.568  19.558  0.0483 -0.2522  0.1192
 4510W        W79498   5.503   1.265  22.553 -0.1420  0.1935  0.2531
 4511W        W79499  33.979  16.657  13.713 -0.0011  0.0187  0.0177
 4512W        W79500  26.268  34.932  10.667 -0.0508  0.1974 -0.2358
 4513W        W79501  21.380  13.396  22.167  0.2470 -0.1353  0.2505
 4514W        W79502   6.430   1.167  10.316 -0.2018  0.0562  0.0126
 4515W        W79503  12.019  10.613  20.798 -0.0685  0.2628 -0.2382
 4516W        W79504   4.307  12.810   5.646 -0.1790 -0.1808  0.1770
 4517W        W79505  26.200   2.865  15.454 -0.1547 -0.1619 -0.0592
 4518W        W79506  10.772  32.230   0.487  0.0862 -0.0406 -0.1004
 4519W        W79507  11.394  14.236  23.267  0.1864  0.0402  0.0985
 4520W        W79508  26.577  31.287   6.421  0.0552 -0.1126  0.1420
 4521W        W79509   8.563  14.609  19.401  0.0868  0.0467  0.4888
 4522W        W79510  13.468  24.339   1.607  0.0321 -0.0731  0.0497
 4523W        W79511   1.949  33.510  18.203  0.0800 -0.0338  0.0035
 4524W        W79512   7.619  29.137  12.348 -0.1009 -0.2078  0.0833
 4525W        W79513  34.808   9.059  25.254 -0.1858 -0.1418  0.2489
 4526W        W79514  16.119  20.597   4.513  0.0090  0.0185 -0.0583
 4527W        W79515  10.632  27.428  14.729  0.1329 -0.1406  0.1421
 4528W        W79516   0.687  28.884  16.246  0.0310 -0.0610 -0.1310
 4529W        W79517  16.221  34.203   6.106  0.1642  0.1854 -0.0855
 4530W        W79518  17.867  16.500  11.415  0.1716  0.2002  0.0450
 4531W        W79519   3.018  19.641  24.481 -0.0543  0.1915 -0.2242
 4532W        W79520  24.554  22.801   9.650 -0.0910  0.0212 -0.1356
 4533W        W79521  24.792  20.674  19.477 -0.0425  0.0545 -0.0839
 4534W        W79522  31.804  13.983  23.668  0.0098 -0.1590 -0.1310
 4535W        W79523  19.123  24.206  20.330 -0.3280 -0.1378 -0.2295
 4536W        W79524   2.429   2.820  17.159  0.0589 -0.0122 -0.2872
 4537W        W79525   0.610  15.814  13.649  0.1561 -0.3142  0.2164
 4538W        W79526   3.859   4.995  24.207 -0.0099  0.4506 -0.0074
 4539W        W79527  28.066  14.588   7.030  0.2079 -0.1668  0.3055
 4540W        W79528  32.610  34.242   6.307 -0.0566 -0.1828 -0.0987
 4541W        W79529  28.187  12.414  16.124  0.1362  0.4164 -0.1368
 4542W        W79530  30.824  20.676  12.893  0.0248 -0.1117  0.1917
 4543W        W79531  34.027  11.817  16.374  0.1095 -0.0354 -0.0455
 4544W        W79532  16.696  20.328   7.206  0.1325 -0.1065 -0.2367
 4545W        W79533   4.405   1.573   4.068  0.1518  0.0809 -0.1628
 4546W        W79534  31.566  23.195  18.208 -0.0405  0.0332 -0.0153
 4547W        W79535  17.437  18.722  23.501 -0.0974  0.1154 -0.1062
 4548W        W79536  17.655  23.313   5.934  0.0524  0.3607 -0.0870
 4549W        W79537  23.187  10.467   1.335 -0.0869  0.0377  0.0249
 4550W        W79538  30.212  31.206  17.673 -0.1183  0.1493 -0.1543
 4551W        W79539  10.651  16.118  12.980  0.0115  0.2560 -0.1369
 4552W        W79540  32.598   7.124   4.557  0.0301  0.0052  0.1766
 4553W        W79541  17.990  25.120   7.158 -0.2471 -0.4025  0.1863
 4554W        W79542   2.962  23.945  18.705 -0.2913 -0.1737  0.2090
 4555W        W79543  21.650  32.745  23.110 -0.2330 -0.1312  0.0384
 4556W        W79544  30.676  24.910  22.478 -0.1745  0.0782  0.1378
 4557W        W79545   5.919   4.102  11.614  0.2249  0.0512  0.1250
 4558W        W79546  12.651  30.231   9.185  0.3710 -0.1983  0.0852
 4559W        W79547   7.439  10.791   2.398 -0.1221 -0.1118  0.1175
 4560W        W79548   1.002   0.008   9.261  0.0761 -0.0326  0.1781
 4561W        W79549  26.006  16.091   8.653 -0.0305 -0.0503 -0.2131
 4562W        W79550   1.695   5.213   3.605 -0.1656  0.1753 -0.0223
 4563W        W79551   8.219  21.772   4.544 -0.0111  0.2459 -0.2497
 4564W        W79552   4.393  13.175  18.709 -0.2341 -0.2010  0.0352
 4565W        W79553  15.753   3.875   9.273  0.1116 -0.0905  0.0759
 4566W        W79554  32.823  34.214  25.125  0.0533  0.2320 -0.0190
 4567W        W79555  14.813  27.171   9.947 -0.0683 -0.0050  0.3864
 4568W        W79556  21.914  17.355  26.070  0.0807 -0.3858  0.2589
 4569W        W79557  14.942  24.650  13.468  0.0383 -0.2635  0.1126
 4570W        W79558   1.148  20.686  24.847  0.2599 -0.1662  0.1596
 4571W        W79559  27.672  11.669   8.716  0.1564  0.0914 -0.1224
 4572W        W79560  29.956  31.341  23.030  0.4019  0.3019 -0.1566
 4573W        W79561  14.295  34.431  21.166 -0.0683  0.1183 -0.1735
 4574W        W79562  14.902  17.471   2.634 -0.0496  0.0743 -0.3262
 4575W        W79563   7.677  20.588   1.394  0.1160  0.3685  0.2794
 4576W        W79564  26.187  30.114  24.813 -0.2691 -0.1371  0.2332
 4577W        W79565  25.460  27.983   1.107  0.0062 -0.3432 -0.0165
 4578W        W79566  20.101  33.731  22.398 -0.0763  0.0747  0.2103
 4579W        W79567   5.323  15.579  24.569  0.2065 -0.0432 -0.0413
 4580W        W79568   2.440  30.324  24.460 -0.0749 -0.1294 -0.1007
 4581W        W79569  22.843  30.567  25.707 -0.0879  0.0497 -0.4876
 4582W        W79570  13.183   0.961   6.776 -0.0343  0.0595  0.0412
 4583W        W79571  33.313  19.611  17.706  0.4952  0.2260  0.1284
 4584W        W79572  28.961  27.693  22.217  0.2624 -0.0620 -0.3082
 4585W        W79573  14.889   4.083  19.620 -0.1113  0.2986  0.0556
 4586W        W79574   5.736  25.046  11.634  0.0655  0.3161 -0.2208
 4587W        W79575  22.280  17.237  21.330  0.3765  0.0269 -0.0297
 4588W        W79576   9.578   0.976  23.468 -0.1691 -0.0091 -0.0109
 4589W        W79577   9.901   9.925   6.504  0.1171 -0.1114 -0.1107
 4590W        W79578   1.653   1.961   8.428  0.2520  0.1267  0.1656
 4591W        W79579  10.126  33.309  21.617  0.0616 -0.0463 -0.0275
 4592W        W79580  34.078  23.170  24.926  0.2297 -0.1969 -0.1572
 4593W        W79581   0.657   9.085   3.672  0.2093 -0.0248  0.0389
 4594W        W79582   7.274  21.422  21.823  0.0605  0.0549  0.0215
 4595W        W79583  19.081  30.010  25.595 -0.1238  0.4615 -0.3558
 4596W        W79584   0.923  11.904  13.274  0.0535  0.0625  0.2385
 4597W        W79585  13.898  11.081   4.654 -0.0508 -0.0033  0.1391
 4598W        W79586   2.526  32.711  18.040 -0.2572 -0.1059 -0.1092
 4599W        W79587  35.216   4.425   1.867 -0.1266  0.1368 -0.2493
 4600W        W79588   5.573   9.149  21.434  0.0112 -0.1441 -0.1457
 4601W        W79589  27.873   3.766   2.537 -0.0597 -0.1710  0.0067
 4602W        W79590  22.468   1.801  21.384  0.1962 -0.1403 -0.0579
 4603W        W79591   6.327  35.180   2.341  0.0655  0.2000 -0.0185
 4604W        W79592   9.592  34.333   2.665 -0.0233 -0.1971 -0.0738
 4605W        W79593   3.916  23.896  20.609  0.2340  0.2926  0.0107
 4606W        W79594  29.510  19.027   9.086 -0.0018 -0.4645 -0.0395
 4607W        W79595   9.927   3.187   6.665  0.0591  0.2241  0.0972
 4608W        W79596  16.326   0.259  21.739  0.1961 -0.1223 -0.0178
 4609W        W79597   0.499  19.986  14.534 -0.2325 -0.1645  0.0580
 4610W        W79598  25.893   9.787  24.533  0.0704  0.0241  0.3821
 4611W        W79599   3.258  30.881   5.870 -0.1199 -0.1279 -0.0317
 4612W        W79600  23.003  14.093  16.691  0.1542 -0.1378  0.1068
 4613W        W79601  26.533  20.254   7.407 -0.0407  0.1268 -0.1102
 4614W        W79602   3.282  34.004  23.426 -0.4233 -0.0673  0.3156
 4615W        W79603  26.808  18.622  23.163 -0.2550 -0.0198  0.3645
 4616W        W79604  23.097  18.861  21.080  0.3396 -0.3160  0.0898
 4617W        W79605  26.019  28.645  21.880  0.1522 -0.2646  0.0489
 4618W        W79606  33.411  15.824  24.568  0.2598  0.1035 -0.2985
 4619W        W79607  24.951  10.240  17.414 -0.0100 -0.3679 -0.2629
 4620W        W79608  28.559  20.140  15.938 -0.1835  0.1531 -0.0875
 4621W        W79609   9.004   7.787  24.894  0.3358  0.1895 -0.1629
 4622W        W79610  12.844  11.839   3.055 -0.1678  0.5691  0.0291
 4623W        W79611  19.327   8.847   9.401 -0.1120  0.1727 -0.0356
 4624W        W79612  18.617  35.177  23.656 -0.3811 -0.0265 -0.3389
 4625W        W79613  27.522  13.936  14.534  0.0462 -0.1400 -0.1524
 4626W        W79614   4.820  15.005   2.255  0.2420  0.1591  0.1079
 4627W        W79615  19.608  23.699  20.817 -0.3273 -0.0537  0.3062
 4628W        W79616  10.461  35.361   1.298 -0.0255  0.0096 -0.3853
 4629W        W79617  19.530  34.741  21.051 -0.0802  0.2735  0.0649
 4630W        W79618  34.714  33.271   2.423 -0.2986 -0.1522  0.0674
 4631W        W79619   5.099  14.061   2.217 -0.2125 -0.4681  0.1665
 4632W        W79620  28.148  14.798   9.572  0.1955  0.0013 -0.3310
 4633W        W79621  29.640  24.528  11.443 -0.0581  0.0347  0.3121
 4634W        W79622  14.938  11.897   4.864  0.1201 -0.0266  0.2913
 4635W        W79623  10.949   0.854   8.810  0.1607 -0.3443 -0.1038
 4636W        W79624  26.439  32.383   0.185 -0.0832  0.2099  0.2477
 4637W        W79625   7.002   8.025  23.325  0.0507 -0.1637 -0.1799
 4638W        W79626  29.030  31.470   1.052  0.0604 -0.0436  0.1757
 4639W        W79627  21.389   6.685  17.697  0.1088  0.1325  0.1178
 4640W        W79628  28.640  10.598  11.542  0.1826  0.0333 -0.0698
 4641W        W79629  19.069   3.906   6.438  0.0275 -0.3238  0.1596
 4642W        W79630   0.969  15.692  18.471 -0.3912 -0.0514  0.3098
 4643W        W79631  15.320  13.124  14.067 -0.0048  0.0135 -0.0158
 4644W        W79632  31.726   8.245  12.102 -0.1776  0.0662 -0.2580
 4645W        W79633  22.798  14.801   0.421 -0.0650 -0.2801  0.2326
 4646W        W79634  17.483  12.364   7.709  0.0916  0.0163  0.2814
 4647W        W79635   9.447   6.118   0.276  0.1813  0.3318 -0.0474
 4648W        W79636  35.232  32.887  16.371  0.3674 -0.2320  0.1869
 4649W        W79637  11.599  34.230   0.364  0.5308  0.1953  0.0589
 4650W        W79638  28.667  34.973  12.002  0.1569  0.0700 -0.0185
 4651W        W79639  25.744   4.845  18.142 -0.0978 -0.3519  0.1232
 4652W        W79640  14.462  25.609  22.992 -0.0817 -0.1155  0.0872
 4653W        W79641  14.559  19.047  14.136  0.2159  0.0137 -0.2111
 4654W        W79642   7.053  21.551   5.456 -0.3028 -0.0988 -0.0070
 4655W        W79643  16.380  29.578   1.515  0.1988  0.1227  0.0544
 4656W        W79644  21.174  28.167  21.767 -0.0881  0.2581  0.0677
 4657W        W79645  33.812   0.491  16.973 -0.3336 -0.0481 -0.1419
 4658W        W79646  13.096  30.343   5.743 -0.0468  0.0147 -0.2504
 4659W        W79647   4.593  12.486  22.540  0.0832 -0.0753 -0.3490
 4660W        W79648  25.852  31.491  21.099 -0.2113  0.3955 -0.0272
 4661W        W79649   7.776  13.412  11.345 -0.0809  0.0029 -0.0372
 4662W        W79650  24.638  32.054  16.935  0.0510  0.0127 -0.1323
 4663W        W79651   1.827  20.460  13.750 -0.1479  0.2082 -0.4331
 4664W        W79652  27.096   0.262   4.353  0.2417 -0.1078 -0.1626
 4665W        W79653  29.572  12.203  22.478  0.1096 -0.0665 -0.1855
 4666W        W79654   6.483  26.032   4.582  0.0646  0.0535  0.1937
 4667W        W79655  29.718   4.336  25.187 -0.1050 -0.0408  0.1016
 4668W        W79656  25.679  29.432  11.424  0.2252  0.1336 -0.0102
 4669W        W79657  30.450  13.524  13.453 -0.2355 -0.0482 -0.1152
 4670W        W79658   1.017  29.122   4.519  0.3732 -0.2489  0.2161
 4671W        W79659  12.719  27.907   2.825  0.0126  0.3575  0.3706
 4672W        W79660  13.425  18.723   5.834  0.0157  0.1408  0.1182
 4673W        W79661  28.681  16.862  12.915 -0.0012  0.1332  0.2791
 4674W        W79662   6.495  27.265  22.456  0.2057 -0.0746 -0.1390
 4675W        W79663   4.554  31.791  19.519  0.0936 -0.0804  0.0244
 4676W        W79664   5.634  12.357   6.843  0.1449  0.2186 -0.2179
 4677W        W79665  27.914  18.563   8.113  0.0133 -0.1006 -0.1202
 4678W        W79666  31.558   3.368  14.221 -0.0444 -0.0781  0.2463
 4679W        W79667  30.970  21.373  20.989  0.1462  0.2171  0.3237
 4680W        W79668  25.189  30.467  11.337  0.0873  0.1043 -0.2455
 4681W        W79669   5.487  34.804   7.514 -0.0550  0.0507 -0.2055
 4682W        W79670  16.941  13.263   0.368 -0.2538 -0.2413  0.2298
 4683W        W79671  30.314  25.888  21.833  0.0644  0.0271  0.3285
 4684W        W79672  30.240  14.090  20.317  0.0357  0.4744  0.0784
 4685W        W79673  24.100  18.308  15.351 -0.1583  0.2334  0.1006
 4686W        W79674  21.952  28.066  15.079 -0.1988 -0.0349  0.4333
 4687W        W79675  20.253  33.803  24.376 -0.1277 -0.0401 -0.1390
 4688W        W79676  17.391  16.117  22.308 -0.1804  0.0209 -0.1537
 4689W        W79677  18.306  26.552   9.667  0.0343  0.1235  0.0132
 4690W        W79678  23.724  33.007   4.179  0.2783 -0.0478  0.0413
 4691W        W79679  31.403   7.615  20.022 -0.1851 -0.0230 -0.1009
 4692W        W79680  21.762  32.266  24.577  0.0871 -0.0501  0.0490
 4693W        W79681  22.520   2.503  18.277  0.2750 -0.1294  0.2398
 4694W        W79682  28.676  20.997   7.537 -0.2444  0.0015  0.0820
 4695W        W79683  26.394  31.157   2.471  0.0361 -0.0451 -0.0968
 4696W        W79684   3.994  14.031  20.119  0.2508  0.2693  0.0418
 4697W        W79685  27.708  16.653  16.982 -0.1266  0.1982  0.1806
 4698W        W79686  25.931  31.915  15.188 -0.1113 -0.1868  0.2684
 4699W        W79687  29.519  16.066   5.328 -0.1980  0.3853 -0.3700
 4700W        W79688  19.149  34.529  17.561  0.0328  0.0736 -0.7188
 4701W        W79689   6.059  10.930  20.985 -0.0067 -0.0081 -0.4043
 4702W        W79690  31.831   6.610  18.437 -0.0919 -0.3840 -0.0918
 4703W        W79691  33.782  11.195   8.234  0.0899 -0.0560 -0.2040
 4704W        W79692  26.932   4.034  15.542  0.4400 -0.1823  0.0551
 4705W        W79693  32.184  17.393  11.686  0.3748 -0.1900 -0.3848
 4706W        W79694  10.901  14.134  20.455  0.2779  0.0692 -0.2087
 4707W        W79695  16.526  17.316   4.696 -0.2331  0.2500  0.0122
 4708W        W79696  32.287  34.622  15.352  0.3334 -0.0727  0.3587
 4709W        W79697  16.404  24.488   9.708 -0.5632 -0.3842 -0.0260
 4710W        W79698  34.864  11.156  24.471 -0.3584  0.3979 -0.0340
 4711W        W79699  15.517  26.226  15.092 -0.0841 -0.1743 -0.1076
 4712W        W79700  20.935  19.388  25.821 -0.3296 -0.3190  0.0552
 4713W        W79701   9.301  21.606  16.277  0.2975 -0.0989  0.0398
 4714W        W79702  22.312   4.741   5.606 -0.0488 -0.0964 -0.4250
 4715W        W79703  27.053  12.041  12.571 -0.1371 -0.2509 -0.3396
 4716W        W79704  26.606  29.840  24.581  0.2465  0.0066 -0.0078
 4717W        W79705  32.568  33.560  16.434 -0.2723 -0.1014 -0.1192
 4718W        W79706   9.910  12.497   7.485  0.0093  0.0148 -0.0996
 4719W        W79707  11.568  29.973   2.568  0.0577  0.1329 -0.1541
 4720W        W79708  15.704  18.819  12.095 -0.3388  0.3056 -0.0152
 4721W        W79709  31.358   4.571  18.355 -0.0823  0.0903 -0.1153
 4722W        W79710  10.315   5.438   0.175  0.0168  0.0295  0.4812
 4723W        W79711  33.727  12.278  16.220 -0.2821  0.0965  0.2864
 4724W        W79712  35.103  34.404  16.913  0.2800 -0.3380  0.0077
 4725W        W79713   8.170  26.605   3.238  0.0686 -0.0753 -0.0695
 4726W        W79714  10.197  16.212   0.717 -0.0855  0.1211 -0.0074
 4727W        W79715   7.316  18.094  18.113  0.0482 -0.2729 -0.1949
 4728W        W79716  22.653   1.018  18.156 -0.0762  0.0380  0.0116
 4729W        W79717  12.111  34.146   5.057 -0.1330  0.1207  0.1252
 4730W        W79718   0.047   6.230  23.671  0.1798 -0.1493 -0.1838
 4731W        W79719   1.361   2.978   2.574 -0.0400  0.0563  0.1693
 4732W        W79720   4.521  27.794   7.317  0.3006 -0.0252  0.1956
 4733W        W79721  32.544  28.277  24.858 -0.0186  0.3335  0.2533
 4734W        W79722   6.003  29.921  21.854 -0.1179  0.1176  0.1854
 4735W        W79723  24.765  16.971  20.114 -0.2057 -0.0441  0.0802
 4736W        W79724  17.132  15.209  10.422  0.1019 -0.2901  0.0146
 4737W        W79725   5.642  17.571  18.261 -0.2611  0.0830  0.1149
 4738W        W79726  24.674  11.673  16.695 -0.1381  0.1771 -0.0823
 4739W        W79727   6.350  20.956   4.705 -0.1159 -0.0856 -0.0329
 4740W        W79728   0.499   0.943   7.190  0.3365  0.0391  0.3623
 4741W        W79729  12.581  20.669  21.666 -0.0207  0.1473 -0.3227
 4742W        W79730  29.473  17.250  10.588 -0.0691 -0.0011 -0.1534
 4743W        W79731  18.205   2.004   0.059  0.0489 -0.1808  0.3320
 4744W        W79732   8.766   6.030  24.946  0.2720  0.2259 -0.0819
 4745W        W79733   2.551   9.102  20.310  0.2196 -0.2830 -0.2567
 4746W        W79734  13.167  12.616  22.982  0.2682 -0.2365  0.1558
 4747W        W79735  22.158  19.620  24.887 -0.0405 -0.1170  0.2286
 4748W        W79736  11.937  30.517  23.591  0.3729 -0.0386  0.1908
 4749W        W79737  21.133  29.984  23.366  0.0363 -0.1270 -0.0081
 4750W        W79738  25.035  18.799  12.226  0.3383  0.0156  0.2249
 4751W        W79739  18.125   3.484   8.854  0.0260 -0.0789 -0.2139
 4752W        W79740  26.835   4.559  17.193 -0.2111 -0.0201 -0.1174
 4753W        W79741   8.174  17.834  12.533 -0.2158  0.0695  0.0194
 4754W        W79742  34.165  18.207  23.036  0.3346 -0.3257  0.1930
 4755W        W79743  13.892   5.015  24.621 -0.1565  0.0986  0.3781
 4756W        W79744   8.612   2.146   1.162 -0.0354  0.0509  0.1149
 4757W        W79745  15.274  27.504   1.132  0.0339 -0.0414  0.1080
 4758W        W79746  22.720  19.037  19.378  0.2435  0.0296 -0.0966
 4759W        W79747  21.757  29.027  20.182 -0.1480  0.1381 -0.3488
 4760W        W79748  19.292   0.366   7.303 -0.0203 -0.3704 -0.1436
 4761W        W79749   3.916  29.316  19.521  0.0712 -0.1209 -0.1108
 4762W        W79750  26.648  16.505  11.289  0.0510 -0.2002  0.2378
 4763W        W79751   0.356  21.603  11.242  0.0623  0.0099  0.0487
 4764W        W79752   2.854   7.482  21.711  0.1167  0.1171  0.0470
 4765W        W79753   5.485  19.274  19.781  0.1317 -0.2068  0.0179
 4766W        W79754   5.606  10.601  18.324  0.1906 -0.1916 -0.2978
 4767W        W79755  14.070  27.237   7.389  0.0295 -0.1672  0.0543
 4768W        W79756   6.417   1.514   6.458  0.2113  0.4899  0.1544
 4769W        W79757  12.465  18.816   9.375 -0.2138  0.1754  0.0823
 4770W        W79758  25.501  27.401  14.059  0.1980  0.2797 -0.0396
 4771W        W79759   4.125   7.406  18.710  0.0596  0.1575  0.0170
 4772W        W79760  26.819  26.179  18.548  0.0089 -0.0231  0.0979
 4773W        W79761  25.868  32.959  25.180 -0.3691  0.1025  0.3191
 4774W        W79762  31.396  17.537  20.614  0.0717  0.0811  0.1096
 4775W        W79763  33.313   0.054  21.006  0.0684 -0.4653 -0.1091
 4776W        W79764  15.722   9.668   0.750  0.0224  0.1342  0.0713
 4777W        W79765  10.911   8.761   8.307  0.0226 -0.0752 -0.2499
 4778W        W79766  33.608  13.857  12.845 -0.1613  0.0482  0.2468
 4779W        W79767  13.676   2.613   4.387  0.3551  0.2693  0.2001
 4780W        W79768  26.892  24.210  24.232 -0.0289 -0.0304 -0.0070
 4781W        W79769  34.346  16.693  22.793  0.2693  0.0439  0.3746
 4782W        W79770   3.097  35.304  19.295  0.2835  0.3769  0.0742
 4783W        W79771  18.518   5.943   2.749  0.1138 -0.0305  0.0997
 4784W        W79772  22.857  26.880  15.570 -0.0070  0.3698  0.3322
 4785W        W79773  13.588   3.304  24.157  0.0196 -0.2089 -0.2793
 4786W        W79774  27.668   6.376  10.516  0.0828  0.0947 -0.1760
 4787W        W79775  33.235  22.514   7.309  0.0207  0.0278 -0.0712
 4788W        W79776  14.102  32.668   2.572  0.0494  0.0134  0.1480
 4789W        W79777   4.623  34.009  20.856  0.2998  0.0910 -0.1201
 4790W        W79778  29.902   7.329  22.778 -0.1886 -0.1951 -0.1170
 4791W        W79779  26.433  19.809  22.570  0.0638  0.2720  0.0905
 4792W        W79780  14.993   9.026   3.588 -0.1139 -0.1297  0.0947
 4793W        W79781  20.983  11.663  21.079  0.0029  0.0013  0.0435
 4794W        W79782  18.293   8.532   0.853 -0.3604  0.0194 -0.1823
 4795W        W79783   5.451  18.679  20.891  0.1605 -0.0646 -0.0055
 4796W        W79784  28.647   8.948  13.883 -0.1349  0.1102 -0.3634
 4797W        W79785  10.048  32.816  15.798 -0.1080 -0.1758 -0.0906
 4798W        W79786  27.889  22.398   6.860 -0.0736 -0.3233  0.0719
 4799W        W79787  18.835  23.408  11.795  0.2305 -0.0257  0.2627
 4800W        W79788  35.210  14.877  24.423  0.0644  0.1707  0.1106
 4801W        W79789  18.748  25.828  24.815 -0.0911 -0.5448 -0.2209
 4802W        W79790  34.026   1.545  22.507  0.0549  0.0716  0.0388
 4803W        W79791  24.912   4.453  20.500  0.1824 -0.2249 -0.1323
 4804W        W79792  12.967  19.938  15.580  0.1250  0.0192 -0.1224
 4805W        W79793   8.895  25.061   8.270  0.0659 -0.3659  0.0014
 4806W        W79794  28.134  31.007  13.058 -0.0511 -0.0292  0.1055
 4807W        W79795  20.209  25.038   4.266  0.2573  0.2266  0.0089
 4808W        W79796   2.922  27.842  20.194  0.1946 -0.1165 -0.2479
 4809W        W79797   0.132   0.882  17.533  0.0068 -0.2157 -0.1069
 4810W        W79798  11.394   1.890  12.069  0.2741  0.0606 -0.3782
 4811W        W79799  11.978  28.192  25.497 -0.0681  0.0276 -0.0815
 4812W        W79800   0.455  17.042  13.760 -0.2738 -0.1235  0.4952
 4813W        W79801  25.884  27.804  14.124  0.1227  0.5800  0.2813
 4814W        W79802  23.839  32.962   6.063  0.0538 -0.0327  0.1402
 4815W        W79803  16.194   5.077  10.523  0.0960  0.0812 -0.0564
 4816W        W79804  19.676   8.249  16.967  0.0003  0.1551  0.0585
 4817W        W79805  27.543  18.384  21.454 -0.5709 -0.0179  0.0183
 4818W        W79806  24.708  31.709   5.322 -0.2177  0.0108  0.1573
 4819W        W79807   8.271  27.470   9.087 -0.0469 -0.4867 -0.5780
 4820W        W79808   3.045   7.946   5.336 -0.2311 -0.0206 -0.2093
 4821W        W79809  27.071  15.785  23.660  0.3200 -0.0350 -0.0966
 4822W        W79810  27.976  13.808   9.342  0.0469 -0.1785 -0.0176
 4823W        W79811   9.113   8.796   1.354  0.4305  0.1854 -0.0587
 4824W        W79812  32.494  20.182   5.340  0.1540 -0.0457 -0.3346
 4825W        W79813  27.119  25.390   1.902 -0.1272  0.2015  0.1944
 4826W        W79814  26.463   6.425  21.631 -0.0026  0.1116  0.2034
 4827W        W79815  28.466  31.184   1.594  0.0389  0.1495  0.2709
 4828W        W79816  10.596  33.641  16.119 -0.0443 -0.0286 -0.0804
 4829W        W79817  34.771  35.118   5.061  0.2631  0.0869 -0.0227
 4830W        W79818   5.154   2.761  10.498 -0.1950 -0.0470  0.0127
 4831W        W79819  27.235   7.184  24.430  0.1622 -0.5492 -0.2240
 4832W        W79820   0.476  14.588   0.097  0.1267  0.2118 -0.1904
 4833W        W79821  26.438  17.742  19.193  0.0492  0.4774 -0.2191
 4834W        W79822  30.198  28.762  18.053  0.1564  0.0959 -0.1020
 4835W        W79823  31.572  16.583  21.272  0.1106  0.1818 -0.2525
 4836W        W79824  22.895  25.101  19.109  0.1972 -0.0543  0.0437
 4837W        W79825   0.268  15.198  22.119 -0.2791  0.2420 -0.3105
 4838W        W79826  23.343  33.448  14.906 -0.2438  0.1872 -0.2529
 4839W        W79827  16.127  15.010  21.360  0.2050 -0.0430 -0.1427
 4840W        W79828  19.390   6.831  10.654 -0.0631  0.2268 -0.4822
 4841W        W79829  17.179  34.853   4.305  0.1825 -0.0975 -0.1143
 4842W        W79830   3.749   0.129   3.810  0.2503  0.1359  0.2267
 4843W        W79831  31.405  25.753   0.793 -0.0054 -0.1254 -0.1412
 4844W        W79832  11.438   5.404   7.350 -0.1743  0.3695  0.1764
 4845W        W79833   4.929  10.400  22.573  0.3556  0.1122  0.2054
 4846W        W79834  15.161  14.727   6.923 -0.1267  0.0932 -0.1563
 4847W        W79835  29.948   5.835  21.592  0.0808 -0.0165  0.0947
 4848W        W79836  17.862   5.200  23.959 -0.0047  0.1048  0.0595
 4849W        W79837  27.503   3.635  12.512  0.1547 -0.0199  0.0260
 4850W        W79838   8.983  21.005  15.376 -0.1889 -0.0320 -0.1764
 4851W        W79839  23.246   8.752  18.539 -0.0145 -0.1937  0.0389
 4852W        W79840  32.794  28.047  19.785  0.0243  0.4621  0.0333
 4853W        W79841  14.008   5.159   0.746 -0.2492 -0.4296 -0.1049
 4854W        W79842  17.441  16.188  22.797  0.0594  0.1368 -0.3831
 4855W        W79843  16.367  21.316   7.406  0.0242  0.3514 -0.1310
 4856W        W79844  15.138  30.041  22.876 -0.2352 -0.0924  0.0365
 4857W        W79845  28.443  34.023   0.040  0.0074  0.1975 -0.3269
 4858W        W79846  16.828  25.587   9.472  0.0159  0.3245  0.0321
 4859W        W79847  18.423   4.593   9.436 -0.0196 -0.0922 -0.0458
 4860W        W79848  30.024  21.548  10.172  0.1275  0.1749 -0.1555
 4861W        W79849  35.105   8.229  14.023 -0.2003 -0.0878  0.0600
 4862W        W79850   7.722  31.867  13.424 -0.2404  0.0434 -0.3467
 4863W        W79851  18.050  28.665   7.374 -0.3634 -0.1180  0.1281
 4864W        W79852  29.568  32.432  17.285  0.3879  0.0758 -0.0586
 4865W        W79853  14.455  31.113   7.746  0.0276  0.1714 -0.3870
 4866W        W79854   6.164   0.505   2.146 -0.2257 -0.2260 -0.0503
 4867W        W79855   5.502  27.760   3.048  0.0881  0.1772 -0.6435
 4868W        W79856  25.486   3.817  13.027 -0.1579 -0.1997 -0.1271
 4869W        W79857   9.422  25.750   5.714 -0.1920 -0.1672  0.0051
 4870W        W79858  22.087   6.285  23.333 -0.0525  0.2180  0.3698
 4871W        W79859   7.165  14.196  11.260  0.3027  0.0563  0.0731
 4872W        W79860  15.269   6.171   7.137  0.2532  0.2823 -0.0782
 4873W        W79861  19.590  10.619   1.234 -0.4266  0.3300 -0.3077
 4874W        W79862  14.955  33.149   7.669 -0.2889 -0.1585 -0.0124
 4875W        W79863   2.527  12.926  16.546 -0.0658 -0.2490  0.0912
 4876W        W79864  15.831  20.432  12.852  0.1516 -0.1091  0.0285
 4877W        W79865   4.048  28.603  23.321 -0.1036  0.1583 -0.2403
 4878W        W79866  17.045  16.032  21.554 -0.2674  0.1425 -0.0168
 4879W        W79867  34.763   6.111  21.906 -0.1993 -0.0047 -0.0259
 4880W        W79868  12.081  29.790  24.488  0.0028 -0.3072  0.3488
 4881W        W79869   5.021  25.311  25.979 -0.1979 -0.0143  0.0315
 4882W        W79870  29.481  12.729  20.061 -0.1242 -0.3700 -0.0211
 4883W        W79871  22.652  27.695   4.320 -0.2618 -0.2664  0.0809
 4884W        W79872  21.210   0.032  25.980  0.0441  0.3189 -0.0928
 4885W        W79873  13.690  28.350  24.277  0.2419  0.0548 -0.1675
 4886W        W79874  13.625  17.047  10.462  0.1680 -0.2748  0.0104
 4887W        W79875  23.372   0.149  22.697  0.0143 -0.3889  0.1212
 4888W        W79876  26.107  12.972  15.216 -0.2746 -0.0485 -0.2706
 4889W        W79877   6.869  16.123  19.895  0.0319 -0.1255 -0.4412
 4890W        W79878  28.649  21.767  12.704  0.0928  0.1041  0.0768
 4891W        W79879   0.988   5.949  23.159 -0.2804  0.1800 -0.2211
 4892W        W79880  17.907   9.727  19.907  0.0038 -0.0374  0.0438
 4893W        W79881  11.549   5.204   2.644  0.0444 -0.1036 -0.4739
 4894W        W79882   9.475  31.531   1.174  0.1448  0.0191  0.0249
 4895W        W79883  23.690  14.905  14.821 -0.2175 -0.0167  0.2213
 4896W        W79884   3.179  18.829  24.394 -0.2389 -0.0356  0.1945
 4897W        W79885  32.411   9.909  11.863 -0.2859 -0.3161 -0.4812
 4898W        W79886  12.503  14.037   0.650  0.2896  0.0330 -0.0964
 4899W        W79887  18.083  28.402   8.279 -0.2036 -0.2107 -0.2350
 4900W        W79888   6.650  27.124   8.252 -0.2299  0.0220  0.0672
 4901W        W79889  14.977  12.182   6.500  0.0458  0.2559 -0.3657
 4902W        W79890   2.982  22.909  23.011 -0.2747 -0.0607  0.2429
 4903W        W79891  28.842  33.904   3.707  0.1580 -0.1527 -0.4170
 4904W        W79892  12.635  33.274   9.687  0.0903 -0.1926 -0.0726
 4905W        W79893  15.039   2.946   5.187 -0.0378 -0.0211 -0.0782
 4906W        W79894  29.692  27.091  24.379  0.3662  0.0522  0.2470
 4907W        W79895  16.995   8.415  13.044 -0.0086 -0.1375  0.1364
 4908W        W79896  25.686  24.628  21.462 -0.1049 -0.1847  0.0500
 4909W        W79897   0.058  26.090  20.363 -0.0103  0.0998  0.1082
 4910W        W79898   6.717  31.809  10.724  0.1439  0.1425 -0.1011
 4911W        W79899  34.814   1.062  22.820 -0.2266 -0.1512  0.1919
 4912W        W79900  30.864  16.443  14.132  0.0533  0.0252 -0.0841
 4913W        W79901  17.696  27.772   1.939  0.0238 -0.1042  0.1106
 4914W        W79902   2.818  32.464  17.458 -0.4459  0.0835  0.2508
 4915W        W79903  16.052  18.597  22.625  0.1126 -0.0859  0.3485
 4916W        W79904  14.023  20.830  15.665  0.0375  0.3061  0.1927
 4917W        W79905  16.201  31.145   2.379 -0.1600  0.4665 -0.2066
 4918W        W79906  34.041   6.210  25.559  0.0975 -0.0861 -0.1443
 4919W        W79907  30.460   9.091  15.788 -0.0281  0.2552 -0.0040
 4920W        W79908  15.957   0.352  20.245 -0.2142 -0.0588 -0.0994
 4921W        W79909  12.295  33.928   2.713  0.1648 -0.1149  0.0564
 4922W        W79910   9.949   4.878  14.299  0.1811 -0.3627 -0.1482
 4923W        W79911  17.092  27.498   3.748  0.0157  0.0421 -0.2350
 4924W        W79912   3.747  31.929  10.344 -0.0399  0.0716  0.1337
 4925W        W79913  24.559   8.423  12.902 -0.0449  0.1833  0.0262
 4926W        W79914   9.512  26.236   1.745  0.1545  0.1349 -0.0733
 4927W        W79915   6.020   8.778  20.674  0.5101  0.0659 -0.1621
 4928W        W79916  18.033  26.082  19.962 -0.0670  0.0054  0.2061
 4929W        W79917   1.934  20.560  14.768 -0.1028  0.0071 -0.2081
 4930W        W79918  30.282  23.748  25.415 -0.1228  0.0803 -0.2125
 4931W        W79919  25.742  23.227  25.675 -0.2106 -0.5307 -0.2778
 4932W        W79920  28.040   6.920   9.595 -0.0410  0.4731 -0.2384
 4933W        W79921  35.016  29.563  15.535 -0.2086 -0.1747 -0.1738
 4934W        W79922  32.419   8.674  15.006  0.0195  0.0165  0.0395
 4935W        W79923  10.759  32.734   3.461  0.1781 -0.0079  0.0887
 4936W        W79924  30.601  21.691  18.754 -0.2125  0.4427  0.0165
 4937W        W79925  25.276  29.638  24.822  0.4265  0.2370  0.2271
 4938W        W79926  19.458  22.054   7.640  0.3973 -0.0701  0.0983
 4939W        W79927   9.858   2.121   5.179 -0.1740  0.0998 -0.1165
 4940W        W79928   2.881  17.159  25.281  0.0290  0.0398  0.1618
 4941W        W79929  17.901  25.337   9.376  0.0701 -0.1651 -0.4197
 4942W        W79930  26.353  13.831  19.554  0.0692  0.0672  0.0204
 4943W        W79931  13.127  33.855   8.349  0.1291  0.2467 -0.0650
 4944W        W79932  31.452  10.110  11.443  0.0190 -0.1865  0.1620
 4945W        W79933  19.055  20.128   8.818  0.2592  0.1817  0.0250
 4946W        W79934   1.645  19.889  19.997 -0.2186  0.3059  0.0782
 4947W        W79935   6.412   9.984  18.226  0.2377  0.0743 -0.0637
 4948W        W79936  29.324  34.193  13.478  0.3172  0.0390  0.1091
 4949W        W79937  26.147   7.245  15.108  0.1383  0.0084  0.4789
 4950W        W79938  11.596  19.611   0.383 -0.2682  0.1111 -0.0084
 4951W        W79939  24.616  18.642  13.686 -0.0819  0.2049  0.0632
 4952W        W79940  28.223  12.487   0.918  0.1975 -0.1195 -0.0587
 4953W        W79941  17.735  18.401   7.419 -0.1329  0.2328  0.0295
 4954W        W79942  22.885  34.243  13.793 -0.2285 -0.3926  0.0996
 4955W        W79943  18.463  22.613  25.676 -0.0437  0.0796 -0.0565
 4956W        W79944   9.179  30.984  22.749 -0.0261 -0.4923 -0.0290
 4957W        W79945  21.859   7.737  18.895 -0.0628  0.1809 -0.0089
 4958W        W79946  31.906  31.114  23.850  0.3736 -0.0879  0.1066
 4959W        W79947  30.929  18.943  17.981  0.1419  0.3905  0.2402
 4960W        W79948  32.042  11.433   9.688 -0.3392 -0.1577 -0.0139
 4961W        W79949  12.109  35.258   2.894 -0.1930 -0.0152  0.1656
 4962W        W79950   8.663  22.294   9.399  0.3868  0.1320  0.2463
 4963W        W79951   1.331  26.636   6.241  0.0427  0.0253  0.0939
 4964W        W79952  29.360  29.178   0.700 -0.2426 -0.0718 -0.1566
 4965W        W79953  26.862  26.156  21.654  0.0148 -0.2229 -0.2024
 4966W        W79954  34.308  28.166  23.390 -0.1213 -0.0873  0.0551
 4967W        W79955  20.556  11.423   0.744  0.0080 -0.2932 -0.0667
 4968W        W79956   7.924  33.924  15.075  0.0992 -0.3224  0.0715
 4969W        W79957  32.974  12.622   8.954 -0.0699 -0.0726  0.0204
 4970W        W79958  35.321  22.659  21.349  0.0702 -0.0202  0.1897
 4971W        W79959  21.268  28.148   6.073  0.1247  0.1248  0.0246
 4972W        W79960  29.833   7.721  18.761  0.0942  0.0898 -0.0165
 4973W        W79961  20.275  35.187   3.181  0.2079 -0.0257  0.0263
 4974W        W79962   3.752   0.493   5.259 -0.4040  0.1082  0.1482
 4975W        W79963  13.480  18.458  14.650 -0.0141  0.1137 -0.0032
 4976W        W79964   6.958  27.553  15.651  0.1804 -0.1635  0.0816
 4977W        W79965  32.310  19.520  17.245 -0.1157 -0.1724  0.1568
 4978W        W79966   1.686  18.579  20.538 -0.0193  0.2872 -0.0198
 4979W        W79967   2.082  23.772   3.547 -0.0217  0.0073  0.1567
 4980W        W79968  18.233  21.342   1.017 -0.0708  0.0537  0.2379
 4981W        W79969   9.446  28.807   1.271 -0.1344  0.1510 -0.0480
 4982W        W79970  25.115   5.150  15.808  0.0101  0.0633  0.2881
 4983W        W79971  20.001  32.293  24.541 -0.1639  0.1496  0.1303
 4984W        W79972   1.123   7.470  13.802  0.0042  0.1036  0.0747
 4985W        W79973   3.050   5.045   2.979  0.2733  0.2347 -0.0613
 4986W        W79974  20.724  14.907  24.799  0.1237 -0.0476 -0.1844
 4987W        W79975  31.889  27.106  21.248 -0.0751  0.2937 -0.0718
 4988W        W79976  33.005   3.801  23.857 -0.0304 -0.0577  0.1534
 4989W        W79977  12.544   4.630  11.846 -0.2837  0.2390  0.0834
 4990W        W79978   2.297   8.187  21.826 -0.3661  0.1185 -0.1695
 4991W        W79979  27.619  13.735   8.763 -0.1768  0.2916 -0.0530
 4992W        W79980  18.154  29.748   6.058 -0.0904  0.1567  0.3039
 4993W        W79981  14.824   5.442   1.587 -0.0899 -0.2661  0.1310
 4994W        W79982   7.554   5.552   6.974  0.2212  0.0380 -0.0917
 4995W        W79983   6.888  16.460  24.662  0.0379  0.0935 -0.0411
 4996W        W79984   8.168  12.687  21.952  0.1945 -0.0019  0.1818
 4997W        W79985  27.164  33.411   0.168  0.1728  0.0977  0.0431
 4998W        W79986  12.337   8.333  10.570 -0.2945 -0.4900 -0.0354
 4999W        W79987   9.734  33.344  10.189 -0.0915 -0.1486  0.1371
 5000W        W79988  11.487  29.246   3.218 -0.1532 -0.0746 -0.0676
 5001W        W79989  30.986  27.257  16.064  0.1606  0.0602  0.1724
 5002W        W79990   2.792   3.362   8.260 -0.0384  0.1029  0.0167
 5003W        W79991  23.195   6.698   3.002  0.1651  0.1696  0.0881
 5004W        W79992   8.684  27.178   1.378 -0.1058  0.0556  0.2426
 5005W        W79993  31.570  31.518   7.065  0.1273  0.1694  0.0041
 5006W        W79994  31.214  11.013   6.941  0.1819  0.2648  0.0354
 5007W        W79995  21.371  22.212   4.744 -0.2250  0.1717  0.1874
 5008W        W79996   9.198  25.060  25.512  0.0320 -0.1005  0.0484
 5009W        W79997   5.817  21.441   5.248  0.1508  0.0784 -0.0368
 5010W        W79998  16.842  17.889   4.414  0.2414 -0.5713 -0.1306
 5011W        W79999   8.580  18.165   7.886 -0.0481 -0.1834  0.1740
 5012W        W80000  30.948   9.857  17.792  0.1145 -0.1053 -0.2545
 5013W        W80001  15.106  19.735   0.846 -0.2554 -0.0738  0.0019
 5014W        W80002  19.271  15.054   8.752 -0.0131  0.0540  0.1633
 5015W        W80003  33.727   1.964   3.210 -0.3259  0.1243  0.1880
 5016W        W80004  12.517   9.960   8.672 -0.2618 -0.2612  0.0255
 5017W        W80005  26.806  11.442  24.332  0.1450 -0.2104 -0.2643
 5018W        W80006  14.053  22.125  16.199 -0.1155  0.2134 -0.1917
 5019W        W80007  26.329  19.501  12.642 -0.1478 -0.1311  0.1581
 5020W        W80008  23.016   0.239   4.334 -0.2198  0.0683  0.0753
 5021W        W80009  33.831  25.815  10.656  0.3148 -0.3617 -0.1995
 5022W        W80010  18.907  11.210  11.413  0.0311 -0.1154 -0.0046
 5023W        W80011  12.439  17.132   3.096  0.2085  0.0779  0.1552
 5024W        W80012   0.379   2.687   0.711  0.1847  0.2984  0.0235
 5025W        W80013  33.395   2.261   3.991  0.2257  0.1973 -0.1959
 5026W        W80014  27.639  28.237  24.242  0.2564 -0.0409 -0.2409
 5027W        W80015  10.983  28.392  14.072 -0.5754  0.2100  0.1127
 5028W        W80016  28.543  16.374   9.861  0.1953  0.0422  0.1973
 5029W        W80017  28.644  12.585  19.672 -0.1003  0.1150  0.2078
 5030W        W80018  16.924   7.570  25.705 -0.1537  0.0025 -0.1661
 5031W        W80019   1.437  30.572   3.276  0.1250  0.1440 -0.0632
 5032W        W80020  16.709   6.684   5.763 -0.0133  0.3014 -0.2226
 5033W        W80021  15.580   1.603  18.450 -0.8528 -0.0090 -0.1713
 5034W        W80022  13.047  24.652   3.854 -0.2239 -0.1108 -0.0355
 5035W        W80023  22.049   6.032  25.508  0.1716 -0.3694  0.0636
 5036W        W80024  25.209   6.746   3.739  0.0968 -0.0718 -0.0118
 5037W        W80025   1.843   8.622  12.384 -0.1502  0.0824 -0.1656
 5038W        W80026  12.944  28.823  16.859  0.3159  0.3312  0.2365
 5039W        W80027   2.569  22.351  12.736 -0.0456 -0.3509  0.5812
 5040W        W80028  21.436   2.577   3.553 -0.0434 -0.5537 -0.3523
 5041W        W80029  10.154  13.985   2.352  0.1219  0.1715  0.4100
 5042W        W80030  30.807  31.082  24.685 -0.0815  0.1378 -0.1353
 5043W        W80031  20.205  22.656  17.909  0.0926  0.0938 -0.3033
 5044W        W80032  18.906  19.511  11.189  0.2258 -0.0318  0.1881
 5045W        W80033  34.886  16.851  15.291 -0.0453 -0.1494  0.1629
 5046W        W80034  21.531   2.838   8.758 -0.3871  0.2537  0.2460
 5047W        W80035  27.058  22.509  13.808 -0.1397 -0.0312  0.0532
 5048W        W80036  17.410  15.443  19.018  0.0223  0.2844 -0.3778
 5049W        W80037  21.933   6.926  16.097  0.1301  0.0814 -0.0042
 5050W        W80038  29.148  27.872  19.288  0.1015 -0.1774 -0.1658
 5051W        W80039  22.409   6.803  24.375 -0.0581  0.2892 -0.1313
 5052W        W80040  19.314  11.998  20.750  0.2266 -0.5758 -0.1345
 5053W        W80041  14.883  23.724  11.103 -0.0583 -0.3211 -0.1768
 5054W        W80042   7.813  13.666  19.910  0.0497 -0.0515 -0.0731
 5055W        W80043   9.433   3.713  25.400  0.0611  0.2960  0.2047
 5056W        W80044   3.148   8.568  19.943  0.0474  0.0800  0.0338
 5057W        W80045  18.416  21.844   0.111  0.2948 -0.1524  0.3450
 5058W        W80046  10.114  26.205  24.970  0.4822  0.2709  0.1486
 5059W        W80047   3.678  10.910   2.023 -0.0451  0.2934 -0.2798
 5060W        W80048  31.742  21.689  20.369  0.0602  0.0384  0.0534
 5061W        W80049   0.112  34.768   7.961  0.0255  0.1263 -0.0864
 5062W        W80050   6.210  25.552  20.750  0.0528 -0.1793  0.0657
 5063W        W80051   0.170  27.310   4.354 -0.1095  0.1865  0.0946
 5064W        W80052  18.346  23.273   3.337 -0.0788  0.1648  0.3079
 5065W        W80053  34.264  32.682  21.608  0.0705 -0.1786  0.1525
 5066W        W80054   3.672  18.202   0.314  0.0130 -0.4791  0.1791
 5067W        W80055  18.194   3.033  22.461 -0.0314 -0.2698 -0.0347
 5068W        W80056   3.770  11.824   1.097  0.1406 -0.1190  0.2643
 5069W        W80057   6.121   3.699   8.078 -0.1028  0.1475  0.0227
 5070W        W80058  12.550   1.335  19.636  0.0884  0.1292 -0.0103
 5071W        W80059   0.378  29.834  19.813  0.2059  0.1632 -0.1661
 5072W        W80060  17.474   3.301   5.271 -0.1601 -0.2196 -0.2694
 5073W        W80061  18.362  35.335   0.963 -0.0047  0.2904  0.2184
 5074W        W80062  10.932   3.525  21.768 -0.1904  0.0512  0.1196
 5075W        W80063  15.133  16.902  25.321 -0.2508  0.0927  0.2062
 5076W        W80064  24.622  19.225  25.984 -0.0119 -0.0258  0.0557
 5077W        W80065  12.525  11.303  25.415  0.2266  0.0247 -0.0759
 5078W        W80066  14.868   6.475  20.646 -0.0646  0.0619  0.1089
 5079W        W80067   3.198  17.545  22.918 -0.1016  0.0273 -0.1146
 5080W        W80068  31.856  34.242  24.846 -0.0816 -0.1620 -0.2865
 5081W        W80069  22.497  14.955  18.879  0.0441  0.1726 -0.1417
 5082W        W80070  22.319   9.975  25.393 -0.3745 -0.1109 -0.2793
 5083W        W80071  31.067  22.615  20.154  0.3697 -0.0529 -0.2884
 5084W        W80072  19.335  17.004  11.657 -0.1388 -0.5571  0.0320
 5085W        W80073  15.637  30.330  23.713  0.2809 -0.1009  0.0678
 5086W        W80074   7.153  13.338  22.586  0.0923  0.0802 -0.2193
 5087W        W80075  30.175  35.367  21.463 -0.0326  0.0279 -0.4917
 5088W        W80076  11.552  12.922  23.000  0.1934  0.0912  0.0249
 5089W        W80077  17.065  33.042   9.157 -0.1613  0.0183  0.1609
 5090W        W80078   7.038  32.225  12.891  0.1558  0.1509  0.1780
 5091W        W80079  33.179  19.875  22.099 -0.0205  0.0730  0.2369
 5092W        W80080   7.420  33.326  22.632 -0.1059 -0.0140  0.0646
 5093W        W80081  32.377   9.880  18.989  0.1017  0.1660  0.1171
 5094W        W80082  23.012   4.256   5.674 -0.2963  0.0418 -0.0480
 5095W        W80083   5.726  21.252  22.285 -0.2567  0.0773 -0.1101
 5096W        W80084  29.400   1.328  17.031 -0.0196  0.0904  0.0340
 5097W        W80085   5.538  35.182   9.556 -0.1210  0.1101  0.0561
 5098W        W80086  14.340   3.262   0.811  0.1156 -0.2037  0.0465
 5099W        W80087  28.959   2.167  19.169  0.1353  0.2395  0.0983
 5100W        W80088   7.442   7.338  13.183 -0.0746  0.1622 -0.0472
 5101W        W80089  24.767   6.525  22.968 -0.0397  0.0636  0.0607
 5102W        W80090  25.297  20.928  22.940  0.1637  0.1339  0.2759
 5103W        W80091   6.526   9.511  22.654 -0.0585 -0.1933  0.0559
 5104W        W80092   5.391   5.111  10.317  0.1183 -0.2031 -0.1625
 5105W        W80093  13.305  17.516  23.619 -0.1270  0.1017 -0.2432
 5106W        W80094  14.937   5.567   8.935  0.1251 -0.2033  0.2606
 5107W        W80095   6.079  15.078   0.743  0.0347  0.0707 -0.0422
 5108W        W80096   3.114   7.444   5.229 -0.2951  0.2940 -0.0542
 5109W        W80097   0.787  32.415  23.544 -0.2529  0.0133 -0.3725
 5110W        W80098  17.791   7.892  12.704  0.1915  0.1556 -0.1596
 5111W        W80099   9.915  32.240  11.069 -0.0923  0.0487  0.0314
 5112W        W80100   2.980  31.559   4.981 -0.0896  0.3400 -0.0295
 5113W        W80101   9.772  16.098  10.462  0.0228  0.0523 -0.1017
 5114W        W80102   6.344  31.981   1.975 -0.2495 -0.4641 -0.0546
 5115W        W80103  15.246   7.374   1.110  0.0659  0.3230 -0.1383
 5116W        W80104  34.060  27.031   2.893 -0.1119  0.1373 -0.2993
 5117W        W80105  12.769  28.111   1.432  0.5524 -0.2261  0.2399
 5118W        W80106   3.067  15.807  19.764  0.1395 -0.1747  0.3731
 5119W        W80107  26.064   6.461  19.229  0.3426 -0.2353 -0.0164
 5120W        W80108  33.580   2.211  24.946 -0.2086  0.0062  0.0299
 5121W        W80109  26.529   5.602  10.727 -0.2082 -0.1615  0.2253
 5122W        W80110  21.172   7.404  21.734  0.1145 -0.2046 -0.3203
 5123W        W80111  32.290  34.403  18.864  0.0281 -0.2427  0.0090
 5124W        W80112   6.572  33.766  20.770  0.3488  0.1504 -0.1022
 5125W        W80113   9.978  28.222   8.720  0.2780  0.0197  0.0268
 5126W        W80114  20.308   7.538  16.817 -0.1472 -0.2984 -0.1514
 5127W        W80115  13.688  25.852   4.318 -0.0739  0.0689  0.3292
 5128W        W80116   2.526   9.717   3.564  0.0660 -0.0543  0.0141
 5129W        W80117  23.592   5.072   4.490  0.1350 -0.1508  0.4140
 5130W        W80118  21.475  34.172  14.082 -0.1748  0.0330 -0.1176
 5131W        W80119  34.718  11.696  17.433  0.4484  0.1794  0.0504
 5132W        W80120  16.152  30.698   4.620 -0.0296 -0.1086  0.0123
 5133W        W80121   9.674  25.651   0.407  0.1527  0.1048  0.2154
 5134W        W80122   7.481  34.977   7.391 -0.2912 -0.0749 -0.0831
 5135W        W80123  31.628   6.627   1.613 -0.0691  0.1611 -0.0762
 5136W        W80124   5.938   8.699   7.885 -0.0375 -0.1247 -0.0452
 5137W        W80125  28.039  23.119  10.123  0.1828 -0.2486  0.2421
 5138W        W80126  31.867  29.811  24.016 -0.0597 -0.1465 -0.0783
 5139W        W80127   6.886   6.793  22.816  0.0714  0.1215  0.1134
 5140W        W80128  19.709  15.060   7.306  0.2012  0.1239  0.1684
 5141W        W80129  33.644  30.984  17.943 -0.1503 -0.0733  0.0481
 5142W        W80130   9.016   2.300  19.290  0.0370 -0.1738 -0.1878
 5143W        W80131  32.659  31.334  22.875  0.1554  0.2009 -0.1564
 5144W        W80132  34.915   1.312  26.139  0.1103 -0.0358  0.2970
 5145W        W80133   6.903  11.477  22.430 -0.0651 -0.2712  0.1657
 5146W        W80134  23.157  14.018   0.198 -0.1578 -0.1095  0.0740
 5147W        W80135  23.276  34.373  16.208  0.3444 -0.0179 -0.1302
 5148W        W80136  13.121  19.708  13.321 -0.1089  0.1621  0.1528
 5149W        W80137  33.759  10.514  20.462  0.0908  0.1404 -0.1704
 5150W        W80138  34.562  27.495  16.303 -0.0062 -0.2061  0.0266
 5151W        W80139  20.685  32.960  15.422  0.1555 -0.1258 -0.2858
 5152W        W80140   5.683  33.656   2.004 -0.3717  0.2980 -0.2981
 5153W        W80141  26.054  16.391  11.764 -0.2842 -0.0383 -0.4811
 5154W        W80142  29.085  16.368  25.651 -0.1334 -0.1300  0.0697
 5155W        W80143  23.189  32.756  15.442  0.0796 -0.1426 -0.3176
 5156W        W80144  30.664   6.757  23.452  0.0864 -0.3903 -0.1863
 5157W        W80145   7.670  22.391  25.744  0.3010  0.0530 -0.1319
 5158W        W80146  19.713   8.248  10.287 -0.0470 -0.1250 -0.1195
 5159W        W80147   6.429   9.312   4.392 -0.2531 -0.1405  0.0741
 5160W        W80148  33.883   0.918  22.706  0.2269 -0.3404  0.2573
 5161W        W80149  22.364  18.695  24.248  0.0509  0.3217  0.0164
 5162W        W80150  25.689  23.682  23.838 -0.1101 -0.2386  0.2150
 5163W        W80151  18.265  31.577   0.557 -0.0695 -0.0338 -0.2828
 5164W        W80152  34.463   1.888  19.330  0.2235 -0.1410 -0.4416
 5165W        W80153  28.361  22.001  15.135  0.1640 -0.0251  0.0034
 5166W        W80154   1.252  11.174  25.347  0.2235  0.2110 -0.1047
 5167W        W80155  17.610  34.603   9.938  0.0355 -0.0741  0.0401
 5168W        W80156  19.978   2.097  22.845  0.3130  0.2428  0.1383
 5169W        W80157  24.486  30.591  22.458  0.4912  0.0518 -0.0760
 5170W        W80158  26.077  29.936  13.981 -0.2491  0.2378  0.1170
 5171W        W80159   8.492   1.880  21.171  0.0034 -0.0573  0.1446
 5172W        W80160   0.043  14.647   0.513 -0.0324  0.0509  0.2125
 5173W        W80161   8.777  13.946   9.855 -0.0572 -0.2197 -0.0034
 5174W        W80162  22.724  23.646   2.793 -0.6210  0.0494  0.2229
 5175W        W80163  19.756  22.464  25.843 -0.0616  0.0860  0.0762
 5176W        W80164  15.454  24.685  10.067 -0.2000 -0.1714 -0.1785
 5177W        W80165  31.340   4.495  16.753  0.0618 -0.2062  0.1478
 5178W        W80166  22.897  22.438  21.707 -0.2880  0.5332  0.1890
 5179W        W80167  30.205   2.181  23.151  0.0707 -0.1352 -0.0260
 5180W        W80168   9.535  21.342   0.324 -0.2384 -0.0515  0.1105
 5181W        W80169  23.422   6.330  15.652 -0.4534  0.1933 -0.1291
 5182W        W80170  34.207  26.972   2.343  0.0495  0.0789  0.0614
 5183W        W80171   6.565   3.060  18.874 -0.3433  0.1973  0.2373
 5184W        W80172  10.626   2.616  20.488 -0.2658 -0.2447  0.1833
 5185W        W80173  26.383  15.191  12.103  0.2263  0.1974  0.0427
 5186W        W80174  27.985  13.575  13.795 -0.1814 -0.2257  0.1338
 5187W        W80175  11.046  23.747   3.002 -0.2866 -0.1150 -0.0303
 5188W        W80176  31.951  32.204   5.398 -0.0933  0.1725  0.1248
 5189W        W80177  12.047  26.932  25.781  0.1206  0.0702  0.3035
 5190W        W80178   3.651  22.093  21.544 -0.0286 -0.3923 -0.1180
 5191W        W80179   6.220  31.587  25.173  0.0789 -0.0424  0.2076
 5192W        W80180  33.195  18.354  13.316 -0.1899  0.1673 -0.1546
 5193W        W80181   8.443   6.741  19.865 -0.0139 -0.0507 -0.1284
 5194W        W80182   3.256  33.882   7.311  0.0100 -0.4337 -0.0607
 5195W        W80183   8.006  25.945  16.620  0.3625 -0.4246  0.1243
 5196W        W80184  14.923  27.315   2.917  0.0969 -0.4357  0.1956
 5197W        W80185  15.540  32.025  24.615 -0.2185 -0.1046 -0.2624
 5198W        W80186  14.112   7.623   3.640  0.0325  0.3027 -0.0399
 5199W        W80187  34.482  14.777  20.115 -0.0192 -0.1383 -0.0903
 5200W        W80188   5.585   3.746  11.506  0.0335  0.2964  0.1219
 5201W        W80189   3.319  16.324   2.934 -0.2404 -0.1668 -0.0501
 5202W        W80190  15.314  26.939  21.596  0.4686  0.2516  0.1209
 5203W        W80191  13.957  31.249   7.991  0.0489 -0.1957  0.0921
 5204W        W80192  12.927  15.487  13.025  0.2402 -0.3330  0.1512
 5205W        W80193  17.404  28.044   9.480  0.2963  0.0419 -0.1670
 5206W        W80194   3.289  34.961   8.849  0.2777  0.2109 -0.1733
 5207W        W80195  28.478   7.890  25.942  0.0045  0.1169 -0.1556
 5208W        W80196  33.800   6.841  18.225 -0.1852 -0.3620 -0.0095
 5209W        W80197   6.476  34.293  22.052 -0.0723  0.1927 -0.0252
 5210W        W80198   4.227  20.116  21.685 -0.0585  0.0656  0.0308
 5211W        W80199  20.014  31.929  16.140 -0.2434  0.0141  0.1475
 5212W        W80200   1.983  29.103  17.991 -0.1227  0.1877  0.3231
 5213W        W80201   4.004  13.737  22.691 -0.1635 -0.0617 -0.0969
 5214W        W80202  14.416   0.329  18.036  0.1265  0.0156 -0.1658
 5215W        W80203   3.270  32.375   7.948 -0.1254 -0.1715 -0.1739
 5216W        W80204   8.119  21.797  13.741  0.1679 -0.0480 -0.0578
 5217W        W80205  19.479  15.130   1.261 -0.2079 -0.1936 -0.0018
 5218W        W80206  25.197   2.256  15.644 -0.1073 -0.0746 -0.0339
 5219W        W80207  32.995  25.383  10.910 -0.0309 -0.0312  0.1043
 5220W        W80208  13.638  21.683  25.482  0.0942  0.2382 -0.3768
 5221W        W80209  13.564  10.814  22.831 -0.0179  0.0910  0.1797
 5222W        W80210  12.544  34.457   5.013  0.1864 -0.2751  0.0236
 5223W        W80211   6.476  23.620   3.598  0.3999 -0.1760  0.0107
 5224W        W80212   0.803  35.156  15.433 -0.0969  0.1012  0.2231
 5225W        W80213  21.381   1.768   9.037 -0.1260 -0.1388 -0.2049
 5226W        W80214  13.984   5.954   1.270 -0.3081  0.0398  0.0697
 5227W        W80215  20.236  24.569  25.898  0.1283 -0.0393  0.0411
 5228W        W80216  25.731  34.927  21.947  0.0883 -0.0714  0.3959
 5229W        W80217  34.126  22.087  23.341  0.2325  0.2991  0.1084
 5230W        W80218  18.983  13.131   4.431  0.1136 -0.1501  0.3049
 5231W        W80219  12.967   5.133   6.604  0.0242  0.1656  0.2666
 5232W        W80220   9.796  30.823   8.524 -0.1750  0.2843  0.4864
 5233W        W80221   2.864  20.197  18.814 -0.0832  0.3189  0.0071
 5234W        W80222  17.078  27.197  10.875 -0.0118  0.0305  0.1198
 5235W        W80223  34.544  10.148  17.121  0.0627  0.2566 -0.2708
 5236W        W80224  26.095   7.976   3.102  0.1425  0.0760  0.3767
 5237W        W80225  11.337  31.170  23.885  0.0396  0.1747 -0.0987
 5238W        W80226  14.688   5.895   1.012 -0.1475 -0.0101 -0.2800
 5239W        W80227   1.160   1.852   0.726  0.1620 -0.0420 -0.1893
 5240W        W80228  14.005  16.435  26.140  0.1361 -0.1797  0.1789
 5241W        W80229  17.096  21.900  24.730 -0.2666  0.0756  0.1589
 5242W        W80230  34.572   8.001  17.330 -0.1105  0.1807 -0.1501
 5243W        W80231  31.862  29.526  23.455 -0.2015 -0.0713  0.1206
 5244W        W80232  10.132  34.596   7.707 -0.2395  0.2804  0.0823
 5245W        W80233  33.600  23.576  21.873 -0.2070  0.2317 -0.0775
 5246W        W80234  13.205  21.724   1.383  0.0023  0.3709 -0.1205
 5247W        W80235   7.974  22.193  22.940  0.1081  0.1285 -0.3787
 5248W        W80236  16.435  25.140   4.010 -0.2657  0.0449  0.0227
 5249W        W80237  27.811  28.947  22.969  0.6793  0.0410 -0.0016
 5250W        W80238   2.358   9.141   5.117 -0.2184 -0.3857 -0.2082
 5251W        W80239  12.341  16.560   4.615 -0.1209  0.2504 -0.2180
 5252W        W80240  18.812   8.273  19.284  0.2364 -0.1223  0.2021
 5253W        W80241  25.033  25.318   2.670  0.0984 -0.2659 -0.0819
 5254W        W80242   7.572  24.084  10.568 -0.1460  0.0152 -0.0479
 5255W        W80243  26.318  24.838  24.171  0.2983 -0.1600 -0.4029
 5256W        W80244   6.488  27.377   6.393 -0.0930  0.1391 -0.1222
 5257W        W80245   8.882  18.987   6.397  0.6564 -0.0767 -0.0433
 5258W        W80246  29.023  35.150  25.045 -0.1143 -0.2392 -0.1719
 5259W        W80247  11.033  26.947   9.514 -0.1869  0.1584  0.0043
 5260W        W80248   6.961   1.166  12.741 -0.1765  0.0118 -0.0559
 5261W        W80249  13.855  27.697   2.184  0.2113  0.2948 -0.2317
 5262W        W80250   4.428  10.022   4.663  0.0009  0.0007  0.0683
 5263W        W80251  33.728   3.724  22.790  0.1430  0.0724 -0.1365
 5264W        W80252  33.338  21.920  25.212 -0.2794  0.0342  0.0744
 5265W        W80253  19.943  21.990  25.896 -0.3172 -0.2803 -0.0639
 5266W        W80254   6.709  32.602   7.412  0.0757 -0.1706 -0.0423
 5267W        W80255  28.288  27.352  22.309  0.0243  0.3334  0.0851
 5268W        W80256   5.316  26.302   0.576 -0.0055  0.4917  0.2564
 5269W        W80257  11.887  24.754   2.178  0.1079 -0.1877  0.0916
 5270W        W80258  34.012  14.219  24.952  0.2974 -0.0208  0.1072
 5271W        W80259  17.183  18.479   6.919 -0.2550 -0.0955 -0.2827
 5272W        W80260  16.079  14.729   4.761 -0.0952  0.1484  0.1733
 5273W        W80261  34.893  30.497  20.364  0.2388 -0.3914  0.3502
 5274W        W80262   1.268  27.932   5.119  0.2274 -0.4280 -0.1298
 5275W        W80263   2.648  28.886   5.633  0.1137  0.0937  0.4453
 5276W        W80264  15.085  34.922   0.396 -0.1321  0.0597  0.1443
 5277W        W80265   6.721   4.597  10.793  0.0905  0.2155 -0.1158
 5278W        W80266  32.989  17.444   8.601 -0.0615  0.1000 -0.1245
 5279W        W80267  31.201  15.715  21.345  0.3631  0.0304 -0.1037
 5280W        W80268  10.399  10.169   1.726  0.3431  0.0330  0.0917
 5281W        W80269  34.407  28.516  17.817 -0.0836  0.0192  0.0799
 5282W        W80270   1.618  21.370  18.638 -0.2361  0.0556 -0.2604
 5283W        W80271  16.966  11.036  24.113 -0.1094 -0.1891  0.0605
 5284W        W80272   5.826  19.765   6.155  0.2072  0.3391  0.0650
 5285W        W80273   0.773  32.869   0.856 -0.0989 -0.0481  0.2308
 5286W        W80274   3.216   4.669   2.676  0.1784 -0.0059  0.0620
 5287W        W80275  29.396  13.681  12.376  0.4369 -0.1098 -0.1941
 5288W        W80276  29.936   2.423  25.796 -0.2456 -0.1256 -0.1343
 5289W        W80277  34.000  20.957  21.646  0.0079  0.2642  0.3347
 5290W        W80278  17.047  25.867   0.206 -0.0666 -0.0020  0.4971
 5291W        W80279  22.001  25.491  21.150 -0.1080  0.0474  0.1437
 5292W        W80280   6.995  12.331  23.980  0.3422 -0.6089  0.0918
 5293W        W80281  31.155  16.338  15.041 -0.2405 -0.0197  0.1327
 5294W        W80282  30.464   0.964   3.076  0.0731  0.1040 -0.1376
 5295W        W80283  13.199  31.697   7.344 -0.1581 -0.0586 -0.2220
 5296W        W80284   4.318  19.461   1.507  0.0814 -0.0833  0.0120
 5297W        W80285  24.959  20.351   9.581 -0.1047 -0.0719 -0.1767
 5298W        W80286  32.912   4.107   4.914 -0.0615 -0.0510 -0.0430
 5299W        W80287  16.669  21.993   2.247  0.0612  0.2098 -0.0280
 5300W        W80288  33.013  24.445  20.558  0.3004  0.3624  0.1770
 5301W        W80289  10.948  15.956  12.650  0.0937  0.1698 -0.3156
 5302W        W80290  24.726  20.059  13.279  0.1574 -0.0277 -0.1428
 5303W        W80291  11.110  28.917  25.368 -0.0097 -0.0949  0.0958
 5304W        W80292  29.154  28.154  18.814  0.2081 -0.0321 -0.1073
 5305W        W80293  26.098  25.102  17.000  0.2159 -0.2842 -0.2073
 5306W        W80294  14.193  14.081  12.055 -0.0214  0.1254 -0.0479
 5307W        W80295   0.920  13.072   1.833 -0.0946 -0.0585  0.1082
 5308W        W80296  18.998  23.240   6.194  0.2165  0.3642  0.1654
 5309W        W80297  25.658  23.371  24.753 -0.4276  0.1131 -0.0415
 5310W        W80298  14.993  34.653   1.922  0.0713 -0.0464  0.1879
 5311W        W80299  16.230  34.229   9.391 -0.0217 -0.0783 -0.3044
 5312W        W80300  12.731  30.518  11.443  0.0433  0.0365 -0.2766
 5313W        W80301  18.436   7.812   9.704 -0.0246  0.0009  0.2980
 5314W        W80302   8.935   2.229  23.009 -0.3181  0.2203 -0.0539
 5315W        W80303  20.909  14.525   4.931  0.0735  0.1953  0.1768
 5316W        W80304  23.859  30.762  17.397  0.1731  0.0062 -0.0193
 5317W        W80305  19.640   2.211   1.081  0.0392 -0.1582 -0.1546
 5318W        W80306  13.536   8.204  19.886  0.0451  0.0905  0.3460
 5319W        W80307  34.543  19.224  17.989  0.3429 -0.2338 -0.0399
 5320W        W80308  19.524  34.500   6.146  0.1649  0.0228 -0.4697
 5321W        W80309  32.450   3.001  15.863  0.3971 -0.0202  0.1848
 5322W        W80310  16.171   1.301  26.031  0.1973 -0.0656 -0.0619
 5323W        W80311  15.049   5.098  19.606  0.1106 -0.1965 -0.0869
 5324W        W80312  11.412  12.941   4.693 -0.3363 -0.2213  0.0469
 5325W        W80313  21.375  20.751  20.025  0.1150 -0.2823  0.1218
 5326W        W80314  25.957  26.674  26.144 -0.3916  0.2100 -0.1270
 5327W        W80315  12.179  28.350   0.288  0.1614  0.3547  0.1888
 5328W        W80316  11.991  27.847   8.867 -0.1436  0.2676 -0.1417
 5329W        W80317  14.817  33.892   5.635  0.0396 -0.0811 -0.0548
 5330W        W80318  27.265   7.983  15.239 -0.1142  0.0611  0.2119
 5331W        W80319  18.100  29.805   9.134 -0.0527  0.0113 -0.0828
 5332W        W80320  18.427   1.482  25.484 -0.0130 -0.1841 -0.1007
 5333W        W80321  15.701  10.904  19.452  0.1902 -0.2115 -0.0057
 5334W        W80322  16.199  28.377   5.758  0.2666  0.1775  0.0895
 5335W        W80323   8.900   0.562  14.776  0.0725 -0.4384  0.2579
 5336W        W80324   9.729   4.058  25.588  0.1061  0.1046 -0.0986
 5337W        W80325  31.176  14.244  13.647 -0.3765  0.2105  0.0608
 5338W        W80326  30.038  26.260   9.792  0.2794  0.0447 -0.1551
 5339W        W80327  33.811  15.636  19.316  0.1164 -0.1925 -0.2348
 5340W        W80328  12.079  26.133  14.492 -0.1114  0.0213 -0.0589
 5341W        W80329  20.839  19.391  22.353 -0.0760  0.0790  0.1733
 5342W        W80330  10.991  22.737  15.570  0.0165 -0.0828  0.2468
 5343W        W80331   2.327  22.624  19.942  0.0107 -0.1337  0.2223
 5344W        W80332   3.104   7.275  21.113 -0.2450  0.2756 -0.2005
 5345W        W80333  32.631  14.356  21.813  0.1779  0.1382 -0.0531
 5346W        W80334  21.132  20.803   4.942  0.0742  0.1910 -0.0121
 5347W        W80335   5.744  15.913   3.902 -0.0591 -0.3035 -0.1822
 5348W        W80336  27.712  14.068   6.802 -0.0376  0.0970  0.1863
 5349W        W80337  27.873   0.691  13.547 -0.2819 -0.4011 -0.0520
 5350W        W80338  10.861  25.218   1.012 -0.2678  0.2238 -0.0678
 5351W        W80339  34.605  32.453   5.377  0.0639  0.0943  0.0127
 5352W        W80340  35.123   0.520  23.979  0.2318 -0.0010  0.2747
 5353W        W80341  32.110  20.106   0.313  0.2492 -0.0122 -0.1739
 5354W        W80342  29.168  33.407   0.153  0.0804 -0.1490  0.0302
 5355W        W80343  28.917  14.863  25.935 -0.1258  0.2236  0.0919
 5356W        W80344  14.029  23.085  16.323 -0.1273 -0.1187 -0.0040
 5357W        W80345  24.790  13.946  22.674 -0.1956 -0.0154 -0.1593
 5358W        W80346  20.839  16.963  23.376  0.4303 -0.0782 -0.1402
 5359W        W80347  26.489   7.731  22.778  0.0657  0.0103 -0.0334
 5360W        W80348  14.828  33.963  10.235 -0.1264 -0.1133 -0.0245
 5361W        W80349  14.357  27.950  24.524  0.1478  0.0562  0.2587
 5362W        W80350   2.768  29.651   8.523  0.0026 -0.1398 -0.1947
 5363W        W80351  23.888  21.907  22.302 -0.1878 -0.1759  0.0322
 5364W        W80352  19.282  14.426  10.660  0.0557  0.0011  0.1699
 5365W        W80353   1.796  32.131   9.089 -0.1920 -0.0217  0.0303
 5366W        W80354   7.359  31.621  24.239 -0.2284  0.1131 -0.1462
 5367W        W80355  16.517   4.497   8.540  0.2636  0.5934  0.3173
 5368W        W80356   3.519  21.992   0.458 -0.2826  0.0613 -0.1222
 5369W        W80357  20.216   8.920  25.059 -0.1383  0.2781  0.1902
 5370W        W80358  12.837  23.376  22.861  0.1439 -0.0589 -0.2078
 5371W        W80359  12.789   0.763  11.468  0.3742  0.3018  0.1604
 5372W        W80360   2.809  18.217  17.100 -0.0828  0.0371 -0.2539
 5373W        W80361  26.859  25.664   1.108  0.1553  0.0400  0.0697
 5374W        W80362  27.457  14.645  17.207 -0.1926  0.2551  0.1422
 5375W        W80363   0.622  19.109  20.713 -0.0046 -0.1819 -0.0474
 5376W        W80364  29.934  33.150  15.447 -0.1071  0.2774  0.0236
 5377W        W80365  31.919   5.684   1.844  0.0154  0.3217 -0.1329
 5378W        W80366   3.456  19.099  15.891 -0.1243  0.2065  0.0220
 5379W        W80367  11.417  33.331  21.994  0.1162  0.5992 -0.0045
 5380W        W80368  22.025   9.635  24.545 -0.1786 -0.1483  0.2163
 5381W        W80369  29.005  20.397  15.685 -0.2270 -0.3123 -0.2779
 5382W        W80370   7.263  33.974   0.242  0.2905 -0.2805  0.0369
 5383W        W80371  32.579  29.580  21.141  0.2400  0.0552  0.1294
 5384W        W80372  28.240  14.213  10.691 -0.1046 -0.0106  0.1861
 5385W        W80373  16.440  21.435  21.868 -0.0478 -0.1425 -0.1081
 5386W        W80374  27.925   3.724   3.510 -0.1950 -0.2440  0.1043
 5387W        W80375  11.767  26.940   2.406 -0.0508  0.0238 -0.0652
 5388W        W80376  18.335  15.870   8.584 -0.1897 -0.1268  0.2060
 5389W        W80377  18.438  24.802  11.910  0.1247  0.1965 -0.0458
 5390W        W80378  22.765  32.944   1.895 -0.1554  0.1600 -0.0890
 5391W        W80379   5.355  29.925   9.416 -0.2260 -0.1329 -0.2932
 5392W        W80380  15.038  10.291   5.677 -0.0513 -0.0565 -0.1352
 5393W        W80381  14.096  12.310  20.150 -0.5334  0.1465  0.0928
 5394W        W80382  31.225  28.424  20.086  0.0608 -0.1203  0.0191
 5395W        W80383  18.640   1.958  24.201  0.1856  0.3385  0.1771
 5396W        W80384   9.227  27.138  22.163 -0.0336  0.3838 -0.1199
 5397W        W80385   0.462  19.444  12.369  0.1473  0.1923  0.2365
 5398W        W80386  28.917  10.582  21.717  0.1127 -0.1307  0.0494
 5399W        W80387   3.254  14.323  24.860  0.0644  0.0123  0.1627
 5400W        W80388  28.270  14.988  25.144  0.1854 -0.1861  0.2218
 5401W        W80389   9.266  22.538  13.764 -0.0300  0.0109  0.1845
 5402W        W80390  22.333   3.460   0.276 -0.1250  0.1365 -0.0305
 5403W        W80391  25.646   7.125  15.232  0.1828  0.1853 -0.2328
 5404W        W80392   4.225  28.592  10.739  0.2026  0.2517  0.1639
 5405W        W80393  11.645  18.572  13.408  0.1027 -0.0244  0.2273
 5406W        W80394  31.747   6.813   4.394  0.0427  0.1290 -0.2556
 5407W        W80395  26.959   1.067   5.613 -0.1626 -0.4773  0.1206
 5408W        W80396  22.809  22.187  23.227 -0.1163 -0.1173  0.0113
 5409W        W80397   6.931  23.532   2.804 -0.2397 -0.0296  0.2537
 5410W        W80398   1.579   1.829  14.830 -0.1366  0.2324  0.2885
 5411W        W80399   7.771   8.742   1.021  0.3098 -0.0848  0.0474
 5412W        W80400  12.656   4.111   2.129  0.2596 -0.1181 -0.1662
 5413W        W80401  21.929  10.961   0.728 -0.1621  0.1724 -0.2421
 5414W        W80402  26.891  25.599  25.703 -0.2624  0.0281  0.1506
 5415W        W80403   4.557  11.107   3.832 -0.0112 -0.0622 -0.1834
 5416W        W80404  29.437  14.156   9.794 -0.0981 -0.0184  0.1738
 5417W        W80405   9.488   8.474   3.636 -0.2735 -0.2055  0.1882
 5418W        W80406  34.287  26.067  22.198  0.1025 -0.5764 -0.2713
 5419W        W80407   8.155   3.062  10.204  0.2256  0.2137 -0.3396
 5420W        W80408  28.538  34.095  19.196  0.3573  0.1076  0.0877
 5421W        W80409  21.070  10.918  20.727 -0.0216 -0.1348 -0.0877
 5422W        W80410  22.259  32.025   1.953 -0.0257 -0.0474 -0.3218
 5423W        W80411   5.425  26.560   0.088 -0.1523 -0.2581 -0.3581
 5424W        W80412  17.134  32.911  20.822 -0.2587 -0.3884 -0.1366
 5425W        W80413  34.305  32.286  17.767 -0.0195 -0.2607 -0.2367
 5426W        W80414   8.873  18.245   8.408 -0.0473  0.3255  0.0920
 5427W        W80415  18.724   7.815   7.663 -0.2797  0.1083  0.4589
 5428W        W80416  11.892   4.847  23.445 -0.0409 -0.3287  0.1045
 5429W        W80417  13.594  34.726   8.821  0.2392  0.1181  0.2130
 5430W        W80418  23.276  20.127  21.701 -0.0001 -0.1227  0.0066
 5431W        W80419  34.967   5.673  22.331 -0.0189 -0.0545  0.1963
 5432W        W80420   7.385  23.533  14.054 -0.1074 -0.0578  0.0748
 5433W        W80421   9.267  11.614  24.394 -0.0895  0.2844  0.3408
 5434W        W80422  20.883   1.338  21.226 -0.0180  0.1973 -0.2637
 5435W        W80423  25.247   2.417   1.632 -0.0808 -0.0949  0.0404
 5436W        W80424  29.803  28.999  21.904 -0.3682 -0.0199  0.1280
 5437W        W80425   2.426   3.518  23.818 -0.0329 -0.0227  0.2872
 5438W        W80426  12.669  28.261  11.882 -0.2226 -0.3212  0.4132
 5439W        W80427   2.860  29.044  22.497 -0.0389  0.2379  0.0470
 5440W        W80428   6.627   8.475   4.308  0.0507  0.1913  0.0912
 5441W        W80429  34.569  22.392  16.718  0.2212 -0.2932 -0.1660
 5442W        W80430  28.546  10.543  20.912  0.1786 -0.2530 -0.0896
 5443W        W80431  17.530  28.935   1.380  0.1825  0.1774  0.0953
 5444W        W80432  33.111  33.323  12.983  0.0365 -0.3894 -0.0337
 5445W        W80433  24.158  24.124   0.665 -0.1057  0.1951  0.1719
 5446W        W80434   8.860   7.986   2.134 -0.0448 -0.0444 -0.2228
 5447W        W80435  34.572  21.588  17.732  0.0231  0.3787  0.1053
 5448W        W80436  28.772   4.407  21.763 -0.0950 -0.3526 -0.1742
 5449W        W80437  31.060  26.186   9.197  0.2654  0.0669  0.1259
 5450W        W80438  24.497  20.705   1.385  0.1535  0.0010  0.2823
 5451W        W80439  25.706  17.208   7.770 -0.2056 -0.1207  0.0113
 5452W        W80440   5.362  15.787   1.070 -0.1754 -0.2689 -0.3734
 5453W        W80441   2.140  26.849   1.138  0.0095  0.1823 -0.1800
 5454W        W80442   6.359  33.914  20.336 -0.2311  0.2441  0.0126
 5455W        W80443  30.670   7.436  18.761 -0.1547  0.0516 -0.5346
 5456W        W80444   6.883  19.368  22.829  0.3453 -0.3836  0.2850
 5457W        W80445   1.035  26.927  20.072 -0.0140 -0.1067  0.2369
 5458W        W80446   1.492   8.060   2.201  0.1018 -0.2169  0.0891
 5459W        W80447   5.366  27.214  14.208 -0.2858 -0.1234 -0.0597
 5460W        W80448  12.218  14.804   4.308  0.0230  0.2072  0.0008
 5461W        W80449  28.962   1.427  10.530 -0.1538 -0.2122  0.2645
 5462W        W80450  15.339   7.137  19.682  0.0729  0.1927 -0.1764
 5463W        W80451   5.299  18.366   0.319 -0.0655 -0.1650  0.0130
 5464W        W80452  17.392  16.088  20.125  0.0321  0.1030  0.0674
 5465W        W80453  29.999   3.634  12.621 -0.2287  0.1752 -0.0392
 5466W        W80454   4.382   8.584   4.190 -0.0679  0.2045 -0.1114
 5467W        W80455  33.362  21.336  12.280 -0.1556 -0.4572  0.0669
 5468W        W80456   9.948   6.437   7.113 -0.1050  0.3562  0.1164
 5469W        W80457   3.000  17.664  18.330 -0.2375 -0.2493  0.1612
 5470W        W80458  14.344  28.726   4.370 -0.3388  0.0266  0.0309
 5471W        W80459  13.482   2.188  25.869 -0.1711  0.1159  0.1361
 5472W        W80460  22.827  12.701  24.658  0.1616 -0.0679 -0.2556
 5473W        W80461  19.608  35.021  19.208  0.1373  0.3468  0.3561
 5474W        W80462  14.509  16.126  11.412 -0.2778  0.3105  0.1707
 5475W        W80463  10.005   4.095  12.821 -0.0058 -0.1240  0.2016
 5476W        W80464   6.693  13.581  22.548 -0.1497  0.2112 -0.1958
 5477W        W80465  13.951   5.403  20.583  0.3682 -0.0328  0.1358
 5478W        W80466   7.985  16.160  19.871 -0.2604  0.2578 -0.2319
 5479W        W80467  14.891  34.677   8.977 -0.0264 -0.0965 -0.1123
 5480W        W80468  31.938  29.760  22.824 -0.3674  0.0785 -0.4634
 5481W        W80469  13.223  19.502  15.457  0.1718  0.4014 -0.0056
 5482W        W80470  16.566   8.712  10.747 -0.1444 -0.0307 -0.2149
 5483W        W80471  27.322  15.524   9.336 -0.0395  0.1871 -0.1358
 5484W        W80472   2.662  12.018  16.617 -0.1026  0.2356  0.1606
 5485W        W80473  32.189   4.393   3.668 -0.2017 -0.1236 -0.2191
 5486W        W80474  26.758  35.367   5.004  0.0488  0.3123 -0.1743
 5487W        W80475  15.300  20.819  21.117 -0.2039  0.2004  0.0408
 5488W        W80476  33.177  18.371  13.832 -0.0409  0.1067 -0.1060
 5489W        W80477  33.329   7.951   0.481 -0.3573  0.1928  0.0895
 5490W        W80478   0.425   6.045   5.490  0.1271  0.3249 -0.2760
 5491W        W80479  31.764   1.426  20.770  0.0779  0.0325  0.0474
 5492W        W80480   7.397   7.253   7.246 -0.2724 -0.0244 -0.0741
 5493W        W80481  12.694  27.401   7.881 -0.0286 -0.1199  0.1293
 5494W        W80482  14.062  27.510   3.289  0.0875  0.0479  0.0256
 5495W        W80483  34.653   4.000  17.149 -0.2925 -0.0010 -0.3576
 5496W        W80484  22.653  26.919  23.975  0.0261 -0.1078 -0.1878
 5497W        W80485   1.988  28.253   1.836 -0.0596 -0.3680  0.0105
 5498W        W80486  14.114   8.269  25.684  0.1787 -0.4601 -0.1557
 5499W        W80487  27.359   8.293  16.819 -0.1366  0.0547  0.0402
 5500W        W80488  12.727  32.076   8.883  0.0015 -0.0944  0.0528
 5501W        W80489   1.614   8.122   0.337  0.0769  0.0409 -0.1325
 5502W        W80490  30.671  27.759  16.680  0.0737 -0.1588  0.0721
 5503W        W80491  14.242  34.185   4.046 -0.1808 -0.0506  0.0269
 5504W        W80492  17.445  29.844  10.565  0.1157 -0.0607  0.1039
 5505W        W80493   3.423  19.934  14.402  0.0609  0.0893 -0.0055
 5506W        W80494  10.963  22.577  14.584 -0.1288  0.1883 -0.0648
 5507W        W80495  10.890  21.262  14.192  0.0110  0.3687  0.1343
 5508W        W80496  12.466  21.673  23.503  0.0232 -0.0244  0.1196
 5509W        W80497  12.350  30.689  14.533 -0.2096  0.0000 -0.2385
 5510W        W80498   1.145  35.270  18.246 -0.0496  0.1331  0.0945
 5511W        W80499   6.056  12.415  26.170  0.1512  0.0175 -0.0078
 5512W        W80500  33.473  14.340   0.959  0.4188  0.3793 -0.1947
 5513W        W80501  32.844  33.306  20.437  0.0473  0.0311  0.4996
 5514W        W80502  33.673  33.346  24.111  0.0407  0.1767  0.1412
 5515W        W80503  10.699  12.977  20.412  0.1716  0.3653  0.0695
 5516W        W80504  10.041  10.779  19.562 -0.1372  0.2286  0.0416
 5517W        W80505  12.386  18.545  14.493  0.1791  0.2079 -0.1506
 5518W        W80506  33.019  19.778  10.124  0.3008 -0.2073 -0.2439
 5519W        W80507  13.862   2.077  23.918  0.0508 -0.2235 -0.0884
 5520W        W80508   6.994   7.443  22.319 -0.0019 -0.3696  0.0703
 5521W        W80509  10.034   5.812  20.148  0.0988  0.2801  0.0211
 5522W        W80510   5.475   7.185  21.737 -0.3364  0.0189  0.0138
 5523W        W80511  13.653  22.256  10.508 -0.0185  0.0019  0.0347
 5524W        W80512  26.187  12.866   0.399 -0.0991  0.0935 -0.2259
 5525W        W80513   3.554  28.466   4.787  0.0361 -0.2222 -0.2082
 5526W        W80514   9.667  21.792   9.050  0.0738  0.1548  0.0876
 5527W        W80515  30.095  11.710  15.215  0.1576 -0.0845 -0.0385
 5528W        W80516  28.908  20.244  24.578  0.1198  0.2742  0.3208
 5529W        W80517   5.933   1.413  25.763  0.0737  0.1329  0.1069
 5530W        W80518  25.739  28.732  15.404 -0.1429  0.1131 -0.1813
 5531W        W80519  21.794   6.301   5.636 -0.0338 -0.0412  0.1351
 5532W        W80520   0.833  16.260  20.598  0.1833  0.0596  0.2801
 5533W        W80521  21.842  11.551  19.492 -0.1338  0.3655  0.1297
 5534W        W80522  31.529  21.003  24.778 -0.1177  0.1494  0.4144
 5535W        W80523  27.317  12.274  12.953 -0.1848  0.2738  0.2932
 5536W        W80524  13.451  17.112  12.527 -0.0589  0.2374  0.2512
 5537W        W80525  13.753  33.981   1.178  0.2377 -0.3744  0.0750
 5538W        W80526  11.029   7.315  13.553  0.2064  0.0365 -0.1995
 5539W        W80527  17.903   6.580   1.208  0.0191 -0.2428  0.1023
 5540W        W80528  17.376  34.276  21.179 -0.0259  0.1948  0.1774
 5541W        W80529  34.331  12.752  13.925  0.1333  0.4595  0.1751
 5542W        W80530  10.958   4.300   2.075 -0.0936  0.0691  0.1424
 5543W        W80531  34.835  10.539  24.442  0.3436 -0.0005  0.0060
 5544W        W80532  31.221  30.861  25.997  0.0289  0.1694  0.0552
 5545W        W80533   6.092   9.009   3.910 -0.0969  0.0189  0.2947
 5546W        W80534  29.601   1.292   3.644 -0.3080 -0.1486  0.0615
 5547W        W80535  13.103   8.558   6.978 -0.3411  0.1518  0.1272
 5548W        W80536  14.432   9.057   7.437 -0.1463  0.3835  0.2824
 5549W        W80537  12.618  19.582   3.274 -0.0405  0.1547 -0.0336
 5550W        W80538  30.940  27.858  14.276 -0.2566 -0.0356 -0.1509
 5551W        W80539  18.806  20.692  19.772 -0.3430 -0.2086 -0.0928
 5552W        W80540  10.930  15.752   9.128  0.1600  0.0511 -0.3961
 5553W        W80541  26.833  15.732  13.144  0.1382  0.2272  0.1675
 5554W        W80542  18.961  27.168  23.219 -0.4214  0.0632 -0.0972
 5555W        W80543   2.835   6.308   0.591 -0.0808  0.0135 -0.1494
 5556W        W80544  15.455  13.591  24.884 -0.2773 -0.2497 -0.1630
 5557W        W80545  22.727   1.918   1.359  0.0533  0.2584 -0.0502
 5558W        W80546  33.285  14.686  22.307 -0.2133 -0.2205 -0.1207
 5559W        W80547  33.111   2.673   2.066  0.1508  0.1230  0.1185
 5560W        W80548  16.640  13.878  10.438  0.4661  0.0812 -0.0465
 5561W        W80549   8.811  33.990  23.800  0.0715  0.1323  0.0699
 5562W        W80550  14.115  18.093  10.839  0.0303 -0.1021  0.1684
 5563W        W80551  19.052  27.203   8.766 -0.0717  0.3379  0.0238
 5564W        W80552  16.916   1.931  25.566 -0.2476 -0.5223  0.2721
 5565W        W80553  18.045  21.632  23.066 -0.0695 -0.2542  0.2114
 5566W        W80554  21.124  28.833  14.134 -0.1002  0.0622 -0.0043
 5567W        W80555   1.977   6.169   6.232  0.2833 -0.2059 -0.2173
 5568W        W80556  21.683   2.664  19.257  0.1279 -0.2281 -0.0025
 5569W        W80557  22.016  18.768  20.225  0.3543 -0.2197  0.1672
 5570W        W80558   6.356   7.485  21.454  0.0463  0.0966 -0.0425
 5571W        W80559  23.121  12.377  16.029 -0.1339 -0.2363 -0.1729
 5572W        W80560  21.467  29.472  24.089  0.0304 -0.0811  0.1079
 5573W        W80561   3.198  24.085  26.072 -0.0144  0.0501 -0.3143
 5574W        W80562  18.336  15.880   9.984  0.1612  0.1818  0.3608
 5575W        W80563   6.783  35.363  21.424 -0.0636  0.0226 -0.0297
 5576W        W80564  23.645   4.537  25.138 -0.2268 -0.2788  0.1030
 5577W        W80565   2.827  11.557  16.747 -0.1817  0.1223 -0.0986
 5578W        W80566  10.978  23.448  22.838  0.0076 -0.3117 -0.0036
 5579W        W80567  14.014   5.125   5.518 -0.1727 -0.1902  0.0864
 5580W        W80568  35.057  32.474  21.160 -0.3038  0.0223 -0.1581
 5581W        W80569  16.293  31.626   4.274 -0.1131 -0.1004 -0.1146
 5582W        W80570  13.781  16.776   0.815  0.1483  0.2419 -0.0507
 5583W        W80571  23.437  25.146  13.913 -0.1852 -0.0137 -0.0421
 5584W        W80572   1.762   2.293  23.693 -0.0549  0.1500 -0.0549
 5585W        W80573  26.887  16.571  12.580  0.2426  0.0753  0.1670
 5586W        W80574  29.456  27.358  14.074 -0.1592  0.0811  0.0635
 5587W        W80575  22.155   6.823  16.606 -0.0060  0.2262 -0.1197
 5588W        W80576  24.530  20.039  16.534 -0.4639 -0.2970  0.2215
 5589W        W80577   3.748   9.652  23.011 -0.1282 -0.2218 -0.2631
 5590W        W80578  16.575  27.553   3.620  0.1998 -0.0361 -0.0005
 5591W        W80579   3.215   8.042  25.886  0.0141 -0.1510  0.4451
 5592W        W80580   3.478  25.528  22.487 -0.1569 -0.3368 -0.1403
 5593W        W80581  24.982  28.197  13.686  0.1531  0.1676  0.1238
 5594W        W80582  15.467   0.962   8.606  0.2832  0.3626  0.3434
 5595W        W80583  21.890  13.664  20.315  0.0692 -0.1279  0.1009
 5596W        W80584  15.340  26.062   3.008 -0.0898 -0.1910  0.0212
 5597W        W80585   0.924  19.794  14.174 -0.0286  0.2698  0.0190
 5598W        W80586  30.118  32.246  18.158  0.0563 -0.0609 -0.0337
 5599W        W80587   4.859  17.087  21.417 -0.2269  0.0571  0.0417
 5600W        W80588  27.299  27.379  17.695 -0.3228 -0.0849 -0.0588
 5601W        W80589   4.284  21.701  22.041 -0.1551  0.0417  0.3848
 5602W        W80590   2.848  24.132   1.526 -0.1505  0.1050 -0.0065
 5603W        W80591  17.252  30.800   3.816 -0.1460  0.1566  0.1111
 5604W        W80592  12.470  21.628  15.931 -0.1481  0.1298 -0.6375
 5605W        W80593  32.207  30.473  12.914  0.2102 -0.6165  0.0894
 5606W        W80594  11.046  34.265  14.387 -0.1347 -0.2174  0.0325
 5607W        W80595   3.818   7.962  24.882  0.0534 -0.0697 -0.0886
 5608W        W80596  19.046  16.727   2.454  0.1366  0.0453 -0.0043
 5609W        W80597   6.203  16.933   7.408 -0.0594 -0.1042  0.2278
 5610W        W80598  27.055  28.263   1.073 -0.0101  0.2782 -0.1524
 5611W        W80599  25.520  26.637  13.607 -0.2514  0.0387  0.2189
 5612W        W80600   6.015  32.761   9.884 -0.0732 -0.2558 -0.0280
 5613W        W80601   8.939   9.656   0.785 -0.1762 -0.1499  0.0427
 5614W        W80602  29.772  21.129  10.360 -0.1559  0.1061  0.0168
 5615W        W80603  34.548  11.976  19.224  0.0547  0.0164 -0.1635
 5616W        W80604  20.676  23.450  25.168 -0.0842  0.1680  0.0741
 5617W        W80605  22.069  15.028   2.432  0.1615  0.0497 -0.2645
 5618W        W80606   7.562  23.119   5.247  0.3689  0.0723  0.1981
 5619W        W80607  30.517  27.833  24.331 -0.1005 -0.1979  0.0672
 5620W        W80608   6.018  34.848   8.245  0.1349 -0.0490 -0.0430
 5621W        W80609  21.765   0.057  15.867 -0.0728 -0.0547  0.3436
 5622W        W80610  30.071  32.854  13.763  0.2244 -0.0528  0.0872
 5623W        W80611   9.981  14.394  23.122  0.2314  0.0175 -0.1561
 5624W        W80612   6.988  24.574  23.970 -0.1919 -0.0090 -0.0691
 5625W        W80613   7.547  23.957  11.798  0.2711  0.0958 -0.0260
 5626W        W80614  32.000  31.974  18.219 -0.1545  0.0316  0.0687
 5627W        W80615  17.153  26.677  10.378 -0.1754 -0.0108 -0.3117
 5628W        W80616  29.510   6.256  10.521 -0.0697  0.1436  0.2760
 5629W        W80617  30.253   6.684  13.280 -0.0360  0.0125 -0.1501
 5630W        W80618  26.791  35.215  15.723  0.0089 -0.0259  0.5035
 5631W        W80619   1.345  10.396  16.102 -0.2157  0.0807  0.0553
 5632W        W80620  29.960  32.899  25.689 -0.0318  0.4430 -0.1984
 5633W        W80621  32.206   1.384  20.368 -0.2103  0.0594  0.0574
 5634W        W80622  29.879  35.040   3.696 -0.0919  0.2255  0.0991
 5635W        W80623  21.198  26.386   4.383  0.2319 -0.1358  0.2018
 5636W        W80624  16.526  13.431  19.178 -0.1892  0.0088  0.0622
 5637W        W80625  18.718  15.362   4.430 -0.0324 -0.3117 -0.0350
 5638W        W80626  27.435  17.335  18.713 -0.2173  0.0996 -0.0162
 5639W        W80627   8.469   8.472  26.111  0.0496 -0.0101 -0.0478
 5640W        W80628   9.695  16.050  23.119  0.0683 -0.0534 -0.1249
 5641W        W80629   8.134  28.518   3.815  0.1435  0.0545 -0.3114
 5642W        W80630  14.423  27.097   4.771  0.0187  0.0035  0.0204
 5643W        W80631  14.571  32.015  24.726  0.5186 -0.0949  0.0270
 5644W        W80632  17.395  26.972  23.738  0.1796 -0.1154 -0.0707
 5645W        W80633  20.838  29.779   1.197 -0.1206 -0.0349  0.2093
 5646W        W80634   6.718  34.126  19.996 -0.1669  0.0300  0.1888
 5647W        W80635   8.913  31.051  24.582 -0.0375 -0.0485 -0.2140
 5648W        W80636  27.481  10.220  20.082  0.2785  0.1717  0.2807
 5649W        W80637   9.112  13.060  20.544 -0.1456 -0.1287 -0.0027
 5650W        W80638  27.386   3.690   2.813  0.0281 -0.4530 -0.1159
 5651W        W80639   2.984   0.456  19.968 -0.1608 -0.2678  0.3834
 5652W        W80640  31.145  16.262  18.217 -0.0586  0.0550 -0.0770
 5653W        W80641  28.600  31.319  15.776 -0.2430  0.1690 -0.1808
 5654W        W80642  32.584  25.491  21.653  0.1175  0.0282 -0.0092
 5655W        W80643  12.060  15.757  23.486  0.1277  0.1851 -0.0915
 5656W        W80644  30.505  23.734   9.128 -0.2816 -0.1546 -0.0922
 5657W        W80645  12.936  15.081   1.996 -0.2448 -0.3501 -0.2050
 5658W        W80646  19.945   2.165  16.141 -0.0941 -0.1550 -0.2354
 5659W        W80647  18.072  11.044  19.735 -0.1470 -0.1047 -0.1887
 5660W        W80648   7.971  21.161   5.532  0.2426  0.1277 -0.0395
 5661W        W80649  18.169   7.973   4.470 -0.0920 -0.2610  0.2296
 5662W        W80650   7.828   5.549  11.942  0.1430  0.0676 -0.0721
 5663W        W80651  31.748   6.526   0.545  0.2064  0.2478  0.3286
 5664W        W80652   9.380  10.119   2.615  0.2769  0.1611 -0.0571
 5665W        W80653   4.379  24.557   4.395 -0.0373  0.3600 -0.0585
 5666W        W80654  14.784   7.718   5.132 -0.1668 -0.1422 -0.0629
 5667W        W80655  19.497  25.725  25.952 -0.1029 -0.2300 -0.1210
 5668W        W80656  16.819   2.274  22.235  0.1640  0.1169 -0.0890
 5669W        W80657  18.073  18.104  19.324  0.0087 -0.0855 -0.0705
 5670W        W80658   0.982   3.712   6.852  0.1584  0.2343  0.1054
 5671W        W80659  23.995   6.187   5.263 -0.0417 -0.0714 -0.1298
 5672W        W80660  14.456  20.275   7.485  0.2575 -0.2079 -0.2406
 5673W        W80661   8.314  10.089  10.772  0.1993 -0.0141  0.2894
 5674W        W80662  10.443   8.038   0.356  0.0443  0.0782 -0.0256
 5675W        W80663  24.180  22.794  20.687 -0.1544 -0.0868 -0.0740
 5676W        W80664  31.405  33.960  14.256  0.1225 -0.2212 -0.1753
 5677W        W80665  20.221  17.883   5.970 -0.2392 -0.1200 -0.0482
 5678W        W80666  12.611  27.718   7.556  0.0655  0.0634 -0.1466
 5679W        W80667   0.162   7.867   1.684 -0.0271  0.0012 -0.0468
 5680W        W80668  30.237  22.053  11.910 -0.2621 -0.2469  0.0671
 5681W        W80669  14.314  16.779  10.619 -0.2585 -0.2137 -0.1646
 5682W        W80670  25.670  12.182  22.467  0.2492  0.3986 -0.1003
 5683W        W80671  14.608  26.350   7.442  0.0310  0.1430  0.2608
 5684W        W80672  20.802  11.460   3.087 -0.0511  0.0945 -0.1449
 5685W        W80673  23.078  12.096  18.861  0.3518  0.2686  0.0697
 5686W        W80674  25.459  35.292   5.211  0.2896  0.3080  0.0710
 5687W        W80675   7.325   0.275   1.609  0.2035  0.0254  0.1409
 5688W        W80676  14.961  10.440  14.142  0.3025 -0.1334  0.1706
 5689W        W80677  30.303  35.186  16.513  0.2269 -0.0594 -0.1516
 5690W        W80678   5.311   9.053   6.413  0.1970 -0.1613 -0.1085
 5691W        W80679   9.319  23.685  22.460 -0.3208  0.1457 -0.0198
 5692W        W80680  12.649  21.510  25.601 -0.0895 -0.0189  0.2082
 5693W        W80681  25.658  20.669  14.473  0.3325  0.1589  0.1528
 5694W        W80682   7.555  16.295  23.078  0.0127  0.0023  0.2230
 5695W        W80683  18.126  24.028  25.491  0.1129 -0.1216 -0.4123
 5696W        W80684   7.374   8.130  11.272  0.2580  0.2067  0.2043
 5697W        W80685   0.878  29.670   6.488 -0.1848 -0.2231  0.2310
 5698W        W80686  31.405  10.493  20.100 -0.0100 -0.0534 -0.1525
 5699W        W80687  15.199  31.599   9.331  0.0171 -0.1536  0.3568
 5700W        W80688  22.933  10.387   5.086  0.0857  0.4137  0.2799
 5701W        W80689  17.693  15.140  19.367 -0.0123 -0.0186  0.4624
 5702W        W80690  25.566   6.280  19.179  0.1659 -0.2107 -0.2437
 5703W        W80691   4.872  34.863   0.751 -0.2274  0.1568  0.1154
 5704W        W80692  23.804  15.344  17.007 -0.1212 -0.0739 -0.2077
 5705W        W80693  26.188  34.168  22.184  0.1793 -0.1129 -0.2106
 5706W        W80694  21.631  13.014  19.654 -0.1612  0.0965 -0.0457
 5707W        W80695   1.056  30.352   4.542 -0.0739 -0.0772 -0.1598
 5708W        W80696  11.796  20.198   4.594  0.1556 -0.1866 -0.2849
 5709W        W80697  22.328  18.011  25.453  0.3191 -0.1871  0.0141
 5710W        W80698  18.823  15.453   2.844  0.1623 -0.0273  0.4002
 5711W        W80699  19.346  19.696  17.797  0.1631  0.2157  0.0541
 5712W        W80700   4.374  16.783  21.587  0.0462  0.0082 -0.2049
 5713W        W80701   2.653   3.438  25.884 -0.1642  0.0362 -0.0612
 5714W        W80702  33.451  15.334  19.130 -0.3495  0.0028 -0.0653
 5715W        W80703  20.220  22.643  25.137 -0.0583 -0.3588  0.0394
 5716W        W80704  14.147  22.845   5.611 -0.2746 -0.0649  0.0877
 5717W        W80705  27.431  22.603  12.169  0.2129  0.1159  0.0926
 5718W        W80706  15.106  22.471   3.169  0.3936 -0.1421  0.0668
 5719W        W80707  23.591  33.088   1.455  0.2792  0.2371  0.0624
 5720W        W80708   9.906   0.088  21.326  0.3376 -0.2781 -0.0376
 5721W        W80709  30.623  33.004  23.494 -0.0966  0.0567  0.0841
 5722W        W80710  14.446   3.463   9.928  0.3332 -0.2408 -0.1594
 5723W        W80711  26.178   5.986  12.995  0.3062 -0.0156 -0.3367
 5724W        W80712   9.592  30.003  13.258  0.4670 -0.0304  0.0428
 5725W        W80713  30.746  11.409  21.603 -0.1819  0.0239 -0.3878
 5726W        W80714   1.574   0.800   9.313 -0.0440 -0.0452  0.0178
 5727W        W80715   0.359  32.467   3.031 -0.1971 -0.0968 -0.0288
 5728W        W80716  31.249  28.245  11.851  0.0199 -0.0502 -0.2003
 5729W        W80717  25.053   3.619  20.140 -0.1628  0.2824 -0.0704
 5730W        W80718   0.811  34.059  18.019  0.1629  0.0748  0.0275
 5731W        W80719   6.729  29.909  22.697 -0.0596  0.1677  0.2079
 5732W        W80720  33.743   8.570  20.955 -0.1515  0.0769 -0.3640
 5733W        W80721   8.633  11.442  23.553  0.2123 -0.0229  0.1279
 5734W        W80722  17.748   5.800   0.198  0.0293  0.2181  0.0653
 5735W        W80723   1.498  28.463  25.787 -0.0975  0.2871 -0.0170
 5736W        W80724  29.031  28.432  16.698  0.0058  0.0972  0.1321
 5737W        W80725   9.514   9.862   2.140 -0.0751  0.2460 -0.3137
 5738W        W80726  13.397   0.554  22.889  0.1667  0.2006  0.0904
 5739W        W80727  28.772   1.819  11.954 -0.2008 -0.1447  0.1274
 5740W        W80728  30.090  28.206  11.299  0.2391 -0.2842 -0.0085
 5741W        W80729   6.170  29.552   8.245  0.1130 -0.1360 -0.2204
 5742W        W80730   3.170  23.211   3.189 -0.0139  0.1622 -0.0491
 5743W        W80731   3.552  30.088  21.950 -0.0002 -0.0395 -0.1452
 5744W        W80732   0.942  21.947  13.069 -0.1313  0.1403  0.1892
 5745W        W80733   8.176  14.444   2.151 -0.0988 -0.0952  0.2786
 5746W        W80734   9.559  11.787  23.427  0.0044  0.1322  0.1349
 5747W        W80735  25.124   8.530  21.659  0.0164  0.1107 -0.1265
 5748W        W80736  23.334  25.780  18.583 -0.2922 -0.3889  0.3422
 5749W        W80737  21.825  28.508  17.320  0.2707  0.1006 -0.3267
 5750W        W80738  14.593  18.890  25.824 -0.1920 -0.2014 -0.0628
 5751W        W80739  18.786  20.184  25.732 -0.2034 -0.1302  0.3749
 5752W        W80740  32.039   7.632  12.061 -0.0464 -0.3892  0.0191
 5753W        W80741   6.687  24.085   1.832  0.1413 -0.3490  0.1796
 5754W        W80742  27.397  18.488  19.135 -0.2647 -0.2016  0.4709
 5755W        W80743   5.781  16.827  21.538 -0.0268  0.0708  0.1724
 5756W        W80744  10.852  26.877  13.539  0.0700  0.0110  0.1604
 5757W        W80745  19.363  29.973  20.724 -0.2459  0.1833  0.0630
 5758W        W80746   2.584  12.973  15.241  0.1748  0.2089  0.2777
 5759W        W80747   9.521  28.209   7.639  0.3696 -0.0973 -0.1299
 5760W        W80748  22.266   1.449   5.240  0.1405 -0.1787  0.3658
 5761W        W80749  23.839  16.042  21.143  0.0659 -0.1217 -0.0304
 5762W        W80750  28.255  29.665  19.362  0.3141  0.0252 -0.0173
 5763W        W80751   1.830   6.775   6.091 -0.3112 -0.1143 -0.0926
 5764W        W80752  12.644  14.404  22.524 -0.3454  0.3762 -0.1200
 5765W        W80753   3.883  24.008  22.840  0.1328  0.0425 -0.0113
 5766W        W80754  11.339  14.597   9.627 -0.1673  0.2952 -0.1791
 5767W        W80755  10.653  26.129  15.522 -0.1452 -0.1055  0.1453
 5768W        W80756  18.737  31.140   1.314  0.0424 -0.1321 -0.0431
 5769W        W80757   0.711  25.679   0.482 -0.1242  0.1812 -0.2587
 5770W        W80758  26.908  14.869   6.057 -0.1324 -0.0527 -0.2150
 5771W        W80759  23.744  28.007   1.803  0.4435 -0.1504 -0.1427
 5772W        W80760   7.494  34.680  11.222 -0.3971  0.0131  0.1366
 5773W        W80761   2.018  17.086  14.695 -0.0036 -0.1820 -0.1630
 5774W        W80762   9.313   2.795   4.101  0.0003  0.0163 -0.3295
 5775W        W80763  31.939  32.631  13.205  0.2030  0.0063 -0.1449
 5776W        W80764  29.805  13.858   6.326 -0.0105  0.0656  0.1480
 5777W        W80765   8.306   9.317   9.017  0.0032 -0.1645 -0.0353
 5778W        W80766  18.731   9.637   3.096 -0.1741 -0.2540  0.0716
 5779W        W80767  31.409  33.770  13.402 -0.2508  0.0898 -0.3197
 5780W        W80768  34.337  12.804  10.080  0.0138  0.0614 -0.0700
 5781W        W80769   9.404  18.851   3.533 -0.1138  0.0419 -0.0409
 5782W        W80770  26.325  35.324  26.121 -0.2891 -0.0636  0.0296
 5783W        W80771   6.193  34.231   5.257 -0.1487  0.2160  0.2079
 5784W        W80772   9.458  29.284   5.672  0.1955 -0.3426 -0.0161
 5785W        W80773  24.727  30.170   2.488  0.0437 -0.1198  0.0286
 5786W        W80774  27.176   7.662  20.105 -0.0386 -0.2068  0.0081
 5787W        W80775  19.764   3.201  22.371  0.1360  0.2764  0.1715
 5788W        W80776   3.391  17.928  26.239 -0.0320  0.2270  0.1095
 5789W        W80777   1.439   3.725   7.729 -0.1626  0.2063  0.1731
 5790W        W80778   7.657  10.269   0.073  0.2478  0.2431 -0.3112
 5791W        W80779   0.059  23.243  25.204 -0.1434  0.0533  0.1459
 5792W        W80780  16.960  14.011   9.477 -0.0476 -0.0839 -0.0306
 5793W        W80781  30.094   0.569  18.134  0.2443 -0.3300  0.0241
 5794W        W80782   6.707  22.289   7.770 -0.1756  0.1543 -0.0196
 5795W        W80783  28.621   2.494  18.919  0.0485  0.2149  0.0565
 5796W        W80784   2.100  31.466  17.232 -0.2105  0.1891  0.2404
 5797W        W80785  24.108  30.767   3.361 -0.2050  0.0360  0.1400
 5798W        W80786   4.607   0.344  18.628  0.0226 -0.0217 -0.0928
 5799W        W80787  10.177  27.770  23.104  0.2935  0.2381 -0.2034
 5800W        W80788  32.018   5.964  22.728  0.2270 -0.1369  0.0606
 5801W        W80789  22.228   5.198   7.040 -0.1724  0.1296 -0.0556
 5802W        W80790  26.433  16.082  18.469  0.0599 -0.1284 -0.0135
 5803W        W80791   9.655  21.579   3.013 -0.0704  0.1683 -0.1888
 5804W        W80792  34.868  30.205   5.966 -0.1254  0.0115 -0.0212
 5805W        W80793  32.434   9.643  24.516  0.2262 -0.1463  0.1266
 5806W        W80794  27.863  14.024  13.927 -0.0447 -0.0140 -0.0257
 5807W        W80795  31.247  19.982  10.659 -0.0482 -0.0035 -0.3501
 5808W        W80796  28.349  22.313  23.983 -0.0132  0.2494  0.2246
 5809W        W80797  29.474   1.815   5.945  0.1181  0.0016  0.0319
 5810W        W80798  33.630   6.343  14.442  0.0751 -0.3077 -0.1894
 5811W        W80799  33.759  34.802  18.422 -0.0965  0.3062 -0.3632
 5812W        W80800  25.380  33.870   4.795  0.2078 -0.1938  0.3743
 5813W        W80801  11.419  21.216   6.608 -0.3576 -0.0113 -0.0831
 5814W        W80802  30.087  13.718  25.801 -0.0131  0.0074 -0.0037
 5815W        W80803  20.702  11.904   9.094 -0.4457  0.5093  0.0606
 5816W        W80804  18.110   4.040  24.424  0.2106 -0.0524 -0.0962
 5817W        W80805  12.594  15.449   2.084  0.0402 -0.0403  0.0724
 5818W        W80806   1.777   0.482   8.494  0.1068 -0.3063 -0.0847
 5819W        W80807  28.331  22.754  19.386 -0.0784  0.1436 -0.1941
 5820W        W80808  15.957  32.899  20.939 -0.1054  0.0222  0.3531
 5821W        W80809  31.832   1.444  18.561 -0.0648  0.2017 -0.2786
 5822W        W80810   8.229  34.969  21.032 -0.1244  0.2219  0.4862
 5823W        W80811  10.234  31.125   3.377  0.2596  0.1320  0.3541
 5824W        W80812   1.891   7.015   5.591 -0.0181  0.0503  0.0734
 5825W        W80813  16.530  23.802  23.801  0.0405  0.1348 -0.1941
 5826W        W80814   0.279  11.328  14.503  0.0676 -0.1000 -0.0900
 5827W        W80815   8.619  23.296  22.140  0.1818 -0.1418  0.1177
 5828W        W80816   2.713  16.080  17.661 -0.1100 -0.1863 -0.1098
 5829W        W80817  24.217  28.255   1.717 -0.0591 -0.2121  0.2160
 5830W        W80818  29.302  17.693   8.089  0.0222 -0.2487  0.0493
 5831W        W80819  24.175  34.281   5.326 -0.3277  0.0986 -0.2505
 5832W        W80820   1.503  35.375  24.039  0.1768 -0.2523 -0.2175
 5833W        W80821   6.710  32.700   7.924  0.1113 -0.1451 -0.3466
 5834W        W80822   3.700  27.029  10.835 -0.0600  0.1559 -0.2132
 5835W        W80823  20.053   0.501  19.886  0.0129 -0.0522 -0.2109
 5836W        W80824  17.537  27.954   6.172 -0.0766  0.0790  0.1228
 5837W        W80825   0.486  31.859   4.651 -0.0740 -0.1022  0.1121
 5838W        W80826  20.865  31.930  17.668 -0.0801 -0.0883 -0.0737
 5839W        W80827   7.682  33.494   6.051  0.0111  0.1911 -0.4449
 5840W        W80828   3.980   8.657   2.627 -0.0763 -0.0634 -0.2357
 5841W        W80829   6.150  28.505  21.011 -0.1354  0.1625  0.0388
 5842W        W80830   1.882   0.912   4.353  0.0124 -0.1523 -0.3577
 5843W        W80831   2.762  19.712  13.917 -0.0056 -0.2170 -0.1719
 5844W        W80832   1.857  10.757   2.359  0.1291 -0.1976  0.0600
 5845W        W80833  29.804  18.704   4.395  0.0648  0.0060 -0.3020
 5846W        W80834  23.110   6.805   3.775 -0.0784  0.1386  0.3602
 5847W        W80835  18.155  20.785  25.486  0.0914 -0.0747 -0.3676
 5848W        W80836  19.325  25.557  23.056  0.1279 -0.1072 -0.0635
 5849W        W80837   2.985  35.085   9.883  0.2101 -0.3018 -0.2003
 5850W        W80838  25.254  17.247  24.314 -0.0268 -0.2583  0.2945
 5851W        W80839   8.621   8.899   2.314 -0.0660  0.2898  0.5420
 5852W        W80840  27.842  22.701   9.986 -0.0187 -0.1568  0.2695
 5853W        W80841  16.530  35.202   4.142  0.0597 -0.1169  0.4358
 5854W        W80842   7.726   3.854   0.876 -0.0306 -0.1162  0.0531
 5855W        W80843  28.951  15.821   8.408  0.0355  0.2410 -0.0785
 5856W        W80844   0.863  30.012   2.515  0.1540 -0.0173  0.0340
 5857W        W80845  35.265  13.429  19.370 -0.1521  0.1075 -0.0330
 5858W        W80846  28.429   4.885  19.284  0.1474 -0.2947  0.1258
 5859W        W80847   6.906  28.755  23.081 -0.0892  0.2979  0.0770
 5860W        W80848   2.491  18.058  26.224 -0.1124  0.0709 -0.0080
 5861W        W80849  17.798   1.418   6.851  0.1639 -0.0073 -0.0259
 5862W        W80850  26.706  25.073  19.568  0.2562  0.0461  0.1831
 5863W        W80851  29.180  14.814  14.529 -0.5504  0.1319 -0.0246
 5864W        W80852  20.494  14.828  23.965  0.3215  0.0218  0.0118
 5865W        W80853   5.849   3.228  19.738  0.1728  0.1405 -0.0984
 5866W        W80854   6.476  27.774  23.868  0.1635  0.2402 -0.2418
 5867W        W80855   2.757   5.685  22.615  0.1384  0.1037 -0.0644
 5868W        W80856  34.182  12.538   7.221 -0.3762 -0.0692  0.0698
 5869W        W80857  25.864  15.866   6.366  0.1628 -0.0083 -0.0350
 5870W        W80858  24.366  32.872  16.404 -0.2178  0.3576  0.1451
 5871W        W80859   1.452  13.277   2.049  0.0972 -0.0251 -0.2084
 5872W        W80860  35.306   5.361  21.385 -0.1717  0.0178 -0.1134
 5873W        W80861   3.599  25.484   0.096  0.2279 -0.0830  0.1191
 5874W        W80862  21.322  29.695  13.681  0.1795 -0.3245  0.0842
 5875W        W80863  30.441   0.625   4.569 -0.1001  0.1641  0.0529
 5876W        W80864   3.336   6.728   1.779  0.0231  0.1418  0.1990
 5877W        W80865  32.993   0.496  16.156  0.0317 -0.0049 -0.1517
 5878W        W80866  17.781  11.642   2.752 -0.1497  0.0717  0.0368
 5879W        W80867  24.516  15.439  21.658 -0.0029 -0.1559  0.4510
 5880W        W80868  17.734  18.303   9.120 -0.4109  0.0317 -0.0731
 5881W        W80869  22.571   5.419  16.808  0.2128 -0.0474  0.1551
 5882W        W80870  16.715  10.710  19.962  0.0151 -0.0234 -0.1404
 5883W        W80871  24.459  28.349  25.991  0.0704 -0.2420 -0.0110
 5884W        W80872  26.869   2.105  23.956 -0.0702  0.1539 -0.3001
 5885W        W80873  22.376   2.815  22.514  0.0945  0.4245 -0.1628
 5886W        W80874  25.219   9.840   2.692 -0.1028 -0.2628  0.3673
 5887W        W80875  27.812   4.548   0.537 -0.0983 -0.2425 -0.1496
 5888W        W80876  15.522  14.561  25.381  0.0070 -0.1610  0.1988
 5889W        W80877  34.288  30.057   4.550 -0.2312 -0.1022 -0.0056
 5890W        W80878   7.545  32.522  21.733 -0.0650 -0.4112 -0.2005
 5891W        W80879  16.525  15.047  26.121 -0.1928  0.0608 -0.2774
 5892W        W80880  30.270  12.538  16.694  0.1955  0.3299  0.2299
 5893W        W80881  17.744  13.203   7.146 -0.1704  0.0180 -0.1098
 5894W        W80882  34.373  35.033  17.353 -0.0557  0.1958  0.1791
 5895W        W80883  10.223  23.780  25.092  0.0260 -0.2561 -0.1066
 5896W        W80884   6.220  33.517  21.026  0.1062  0.0597  0.0500
 5897W        W80885  14.127   2.947   7.684  0.0124  0.1433 -0.1236
 5898W        W80886   5.240  18.724  24.906  0.2008  0.1537  0.1184
 5899W        W80887  11.762  30.433   5.336  0.0648 -0.2101 -0.0009
 5900W        W80888  13.314  26.543  25.027 -0.0600  0.0854 -0.1728
 5901W        W80889   6.474  23.070  21.110  0.1963  0.3602  0.0966
 5902W        W80890   7.528  25.835   9.379 -0.0860  0.1767 -0.0330
 5903W        W80891  32.545  24.652   1.934  0.0807  0.0098 -0.0338
 5904W        W80892  33.822  30.420   1.035  0.0753 -0.0930 -0.5307
 5905W        W80893   1.383  11.196   0.682  0.3837 -0.0669  0.0939
 5906W        W80894   1.982   6.989  23.828  0.1908  0.0588  0.0400
 5907W        W80895  20.533   1.820   0.637  0.0512  0.1217 -0.1670
 5908W        W80896  31.936  15.095  12.035  0.2575 -0.0936 -0.0415
 5909W        W80897  18.622   5.764  19.527  0.2731 -0.2417 -0.0184
 5910W        W80898   1.099  12.533   3.345 -0.1621  0.2153 -0.0746
 5911W        W80899   6.101  13.557  26.098  0.2129 -0.1312 -0.1561
 5912W        W80900   8.244  24.311   6.852  0.0211 -0.0924  0.0494
 5913W        W80901  32.380  26.071   1.812  0.3891  0.1178 -0.0873
 5914W        W80902  13.149   9.197  24.141 -0.2419 -0.1077 -0.4325
 5915W        W80903  33.091  23.724   9.401  0.0477  0.0428 -0.0353
 5916W        W80904  23.059  15.269   0.566  0.1006 -0.0449 -0.1726
 5917W        W80905   6.270  26.181  21.983 -0.0246  0.2886 -0.0885
 5918W        W80906   7.463  24.610  24.127  0.0022 -0.0412 -0.0522
 5919W        W80907   4.903  17.916  24.502  0.2846  0.3971 -0.0901
 5920W        W80908  25.922  34.966  15.264  0.0529 -0.2447 -0.0864
 5921W        W80909   8.907   1.361  20.986  0.2957  0.3500  0.0594
 5922W        W80910   2.503  33.193   7.160  0.0787  0.0719 -0.2402
 5923W        W80911  28.251  17.494   8.026 -0.1148 -0.0807 -0.0324
 5924W        W80912   8.902   9.934   5.213  0.2817  0.0813  0.3259
 5925W        W80913   4.308   1.354  23.305 -0.1537 -0.1782 -0.1984
 5926W        W80914  23.356  28.657   0.999 -0.1641  0.1252  0.0473
 5927W        W80915  29.952  19.906   3.976  0.1660  0.1060 -0.0807
 5928W        W80916  22.098  10.803  21.162  0.0716  0.1468  0.2899
 5929W        W80917   8.297  16.679   3.829  0.3645 -0.0711 -0.3096
 5930W        W80918  12.229  22.956  17.734 -0.1425  0.4183 -0.0677
 5931W        W80919  18.638  26.406   2.828  0.0567 -0.2085  0.0802
 5932W        W80920  27.728   4.976   2.705 -0.0686 -0.1432  0.0716
 5933W        W80921  21.244  14.182  23.612 -0.2475 -0.2648 -0.0454
 5934W        W80922  18.501  17.124  23.950  0.0191 -0.2988 -0.3239
 5935W        W80923  22.561   0.596  22.494  0.2045 -0.1071 -0.2079
 5936W        W80924  32.264  31.510  24.640  0.1092  0.0392  0.2668
 5937W        W80925   5.226   3.654  11.218  0.0476 -0.0621  0.3241
 5938W        W80926  34.430  23.626  24.794  0.2304 -0.3362  0.0613
 5939W        W80927  21.009  20.300  22.863  0.3168  0.1729  0.1758
 5940W        W80928  34.232  10.656  19.233  0.1815  0.3676  0.0787
 5941W        W80929   5.890  20.528   5.802 -0.2166 -0.1870 -0.1118
 5942W        W80930  32.171  18.745  21.360 -0.3305  0.0623  0.1947
 5943W        W80931  14.266  12.682   8.559  0.0580 -0.2107 -0.0008
 5944W        W80932   6.227  15.587  18.158  0.1093 -0.0176 -0.2494
 5945W        W80933   5.158  26.349  22.979  0.3259 -0.1407  0.1437
 5946W        W80934  25.041  23.806  16.788 -0.3035  0.0410 -0.1102
 5947W        W80935  22.803  15.056  21.449  0.1368 -0.0394  0.0696
 5948W        W80936  16.108  21.839   5.580  0.0711 -0.0247 -0.1146
 5949W        W80937  16.372  31.668  20.638  0.2636 -0.0279  0.2037
 5950W        W80938  16.445  10.433  13.246  0.0615  0.1599  0.1351
 5951W        W80939   9.066  32.007  25.040 -0.0188 -0.0340 -0.1470
 5952W        W80940   1.103  32.190  24.453  0.0469 -0.0655 -0.0785
 5953W        W80941  29.976  11.417   8.162 -0.2065  0.0428 -0.0554
 5954W        W80942  13.461  23.375   4.147 -0.2248 -0.2247 -0.2903
 5955W        W80943  31.917  11.929  23.515 -0.0420 -0.0221 -0.0885
 5956W        W80944   8.296  10.940  25.987  0.0836 -0.1356  0.2118
 5957W        W80945  16.762  10.262   4.215  0.1322  0.0736 -0.2706
 5958W        W80946  10.746   1.445   5.523 -0.0881  0.1461 -0.1035
 5959W        W80947  19.894  15.249   9.864 -0.2292  0.0345  0.3261
 5960W        W80948  15.939   9.862   1.146  0.0199  0.1012  0.2343
 5961W        W80949  31.273  17.405   7.678  0.2288 -0.2353  0.1308
 5962W        W80950  25.958   0.156  24.317 -0.0587  0.1859  0.2150
 5963W        W80951  16.973  29.472   8.330 -0.1352 -0.0108 -0.2720
 5964W        W80952   4.675   6.925  18.039  0.2021  0.3052  0.1671
 5965W        W80953   6.463  11.370   7.907  0.0391  0.1879  0.0504
 5966W        W80954  34.648  23.486   1.365  0.2634 -0.1159 -0.0392
 5967W        W80955  20.116  14.543   3.596  0.0389 -0.1613  0.0797
 5968W        W80956  16.473   9.056  23.805 -0.3154 -0.2318  0.0743
 5969W        W80957  15.811  16.778   6.797  0.1050  0.0535 -0.1387
 5970W        W80958   7.838   2.416   3.402  0.2924 -0.0948 -0.0970
 5971W        W80959   9.797  22.076   0.960  0.0099 -0.2867  0.1448
 5972W        W80960  28.899  32.535  22.108  0.4252 -0.0611  0.1394
 5973W        W80961  18.661  10.385   5.794  0.2169  0.0193 -0.2520
 5974W        W80962  26.827   8.567  22.478  0.1005  0.2037  0.1306
 5975W        W80963  25.833   2.784  11.406 -0.1012 -0.0616  0.0513
 5976W        W80964   7.235  29.707   9.254 -0.1754 -0.1418  0.1867
 5977W        W80965  32.400  12.125  18.882  0.3957  0.3099  0.0799
 5978W        W80966  14.137  17.084   7.038  0.0596 -0.0023  0.0593
 5979W        W80967  16.138  14.620   6.785 -0.1923 -0.0712 -0.0039
 5980W        W80968  22.899  32.416   7.071  0.2464 -0.1733 -0.1199
 5981W        W80969  30.331  27.991  20.359 -0.1040  0.0357  0.0363
 5982W        W80970   0.187  34.970   4.231  0.0202 -0.2597  0.1768
 5983W        W80971  14.675  23.828  24.821 -0.0600  0.0864  0.1778
 5984W        W80972  30.048  27.572   2.784 -0.0621  0.0067 -0.1087
 5985W        W80973  26.981   5.880  20.178 -0.1416  0.1206  0.3481
 5986W        W80974  27.130   0.080  17.601  0.1761  0.2041  0.0590
 5987W        W80975  15.978  24.606   1.915  0.0706 -0.0023  0.1331
 5988W        W80976   6.632  34.578   7.715 -0.2222 -0.2695 -0.2161
 5989W        W80977  22.330  34.354  13.704 -0.1130 -0.0229  0.0695
 5990W        W80978   0.868  29.863  17.851  0.1497 -0.2381 -0.0713
 5991W        W80979  21.766  16.629  16.677 -0.0278 -0.0450 -0.0046
 5992W        W80980   1.698  30.467   2.778 -0.0965  0.1626  0.0730
 5993W        W80981  10.311  13.183  21.267  0.0085  0.0856  0.2623
 5994W        W80982  24.916  15.264   1.155 -0.0693  0.1637  0.1337
 5995W        W80983  11.560  13.077  10.676  0.3704 -0.2402 -0.0955
 5996W        W80984  34.503   5.940  25.857  0.1322  0.0686  0.3954
 5997W        W80985  34.094  35.341  22.387 -0.2111  0.0205  0.1448
 5998W        W80986   1.419   5.446  15.910  0.0940 -0.3191  0.2963
 5999W        W80987  28.310  32.243  25.436  0.0594 -0.3087  0.1207
 6000W        W80988  32.259  17.448  13.257  0.3780 -0.1723  0.0366
 6001W        W80989  14.331  23.054   9.353  0.1372  0.1217 -0.0744
 6002W        W80990  11.065  28.261   7.569  0.0495  0.1934 -0.2973
 6003W        W80991   7.559  18.489  21.206  0.1400 -0.0550 -0.1634
 6004W        W80992   1.033  19.176  18.424  0.1222 -0.0898  0.0372
 6005W        W80993  27.917   1.263   4.719  0.2643 -0.1164 -0.0740
 6006W        W80994   1.593   9.124  13.617  0.1009 -0.0195 -0.0883
 6007W        W80995  29.185  10.942  15.337  0.0992 -0.2364 -0.0474
 6008W        W80996   7.568  32.047   0.506  0.1023  0.2615 -0.1721
 6009W        W80997  13.168  18.449   1.721  0.0388 -0.0869 -0.0120
 6010W        W80998   5.453  19.590  23.939 -0.2434 -0.1899 -0.1853
 6011W        W80999  12.207  34.393  21.531  0.1567 -0.0474  0.0599
 6012W        W81000  22.437   7.630  20.262 -0.1068  0.2943 -0.2326
 6013W        W81001  14.432   4.067  26.055  0.0154  0.0977 -0.2431
 6014W        W81002  21.567  34.323  24.574 -0.2210  0.1811 -0.1713
 6015W        W81003  34.808  29.274   3.613 -0.1760  0.1265  0.0327
 6016W        W81004  25.180  16.516  16.120  0.1121  0.1577  0.2318
 6017W        W81005   5.509   1.594   5.897  0.0568  0.2463 -0.0050
 6018W        W81006  25.257   2.247  25.616  0.2025  0.0841  0.1340
 6019W        W81007  28.279  25.099  17.014  0.0953 -0.0573 -0.0384
 6020W        W81008   4.698  18.367  23.748 -0.1080 -0.0491 -0.1161
 6021W        W81009  30.410   4.984  17.091  0.1578 -0.2127  0.2179
 6022W        W81010   3.870  12.249  22.652 -0.1173 -0.3633  0.0008
 6023W        W81011   1.946  27.543   0.009 -0.1549  0.0060  0.0855
 6024W        W81012  35.155  21.671  24.171  0.1382  0.0582  0.3023
 6025W        W81013  15.912  20.679  14.463 -0.0577 -0.0033 -0.1646
 6026W        W81014  11.603  12.741   3.734  0.1964 -0.0592  0.1071
 6027W        W81015   5.852  13.474   6.799  0.1236  0.3687 -0.2130
 6028W        W81016  32.498   4.012  25.299 -0.1453 -0.1399  0.5384
 6029W        W81017  27.618   8.965  11.508  0.2624  0.0287  0.0783
 6030W        W81018  12.708  15.733   3.445 -0.3159  0.4780 -0.0242
 6031W        W81019   1.751  24.452  19.714  0.3206 -0.0166 -0.1615
 6032W        W81020  28.354   3.075  15.158  0.1087  0.0987 -0.0189
 6033W        W81021  31.583   3.252   2.003 -0.1501 -0.0807  0.0193
 6034W        W81022   5.343  35.346   2.539  0.0012 -0.0956 -0.0817
 6035W        W81023  19.533  34.259  20.850  0.1465  0.4251 -0.2537
 6036W        W81024   7.511   1.481  11.852  0.0203 -0.2084  0.0786
 6037W        W81025   1.583  18.930  10.253  0.0210  0.0797 -0.2010
 6038W        W81026  16.943  30.802  24.191 -0.2231  0.0758  0.2304
 6039W        W81027  34.961  35.074  19.007  0.0579  0.0179  0.2010
 6040W        W81028  30.766  23.434  19.692  0.0817 -0.3488 -0.3570
 6041W        W81029   4.167   3.848   0.850  0.2037 -0.0216  0.1872
 6042W        W81030   9.165  30.726  14.991  0.2286 -0.0856  0.3166
 6043W        W81031  23.091  23.236  21.984  0.1164 -0.0663  0.0146
 6044W        W81032  23.375  12.542  26.239  0.1178 -0.2194  0.0493
 6045W        W81033  10.213   1.415   3.749  0.3499 -0.0301  0.4185
 6046W        W81034   6.023   2.704  23.913  0.0863 -0.1052 -0.2696
 6047W        W81035  26.474  30.172  14.193  0.4301 -0.4297 -0.0257
 6048W        W81036  10.693  15.112   9.869 -0.2478 -0.0656  0.2076
 6049W        W81037  14.157   1.873  19.695  0.2176  0.0549  0.3177
 6050W        W81038   6.597  32.747   0.249 -0.3190  0.2660  0.1230
 6051W        W81039  30.283   5.182  14.886 -0.1768 -0.0055 -0.7436
 6052W        W81040   2.664  19.824  15.719 -0.0485 -0.2888  0.2499
 6053W        W81041  33.184  34.192  16.766  0.2188 -0.0503 -0.0562
 6054W        W81042  34.238  13.409   9.433 -0.0147 -0.0569 -0.1725
 6055W        W81043   3.506  33.586  21.240  0.0238  0.0788  0.2501
 6056W        W81044  26.319  30.936  15.184 -0.2248  0.0159  0.0576
 6057W        W81045  14.738   4.637   5.963 -0.3330  0.0037  0.1365
 6058W        W81046  20.705  13.038   2.771  0.4090  0.0268  0.2506
 6059W        W81047  30.720  32.977  18.461 -0.2160 -0.1648 -0.2332
 6060W        W81048  32.690  22.599  12.167 -0.0248 -0.1648  0.1979
 6061W        W81049   3.373   0.810   2.957 -0.0022 -0.0527  0.1383
 6062W        W81050  17.651  17.759   5.169 -0.2638  0.0760 -0.0400
 6063W        W81051  13.223  30.597  11.624 -0.4733  0.0076  0.0359
 6064W        W81052  10.427  10.213   0.423  0.1460  0.3969 -0.0460
 6065W        W81053   1.234  18.893  14.485  0.1630  0.2035 -0.0268
 6066W        W81054  32.166  17.920  21.567  0.3872 -0.0299  0.2681
 6067W        W81055  10.133   6.518   5.638  0.0193  0.3767  0.1317
 6068W        W81056   7.140  26.262   0.883  0.3646 -0.2272 -0.3654
 6069W        W81057   7.778  20.796  11.137  0.2553  0.0392  0.1628
 6070W        W81058  31.215  31.446  24.601 -0.2002  0.1448  0.1652
 6071W        W81059  20.253  16.848  24.992 -0.2741  0.1228 -0.0053
 6072W        W81060  30.943   5.892  11.309 -0.2135  0.2404 -0.1675
 6073W        W81061   2.015   5.214  16.273  0.2078 -0.1140 -0.2104
 6074W        W81062  34.352   6.645   5.620  0.2445 -0.0340 -0.1051
 6075W        W81063  27.924  19.673  17.639  0.2816  0.0122 -0.0535
 6076W        W81064  34.355   2.020  14.211  0.1817  0.0112  0.1499
 6077W        W81065  32.886  30.687  13.884 -0.3079  0.3294  0.0912
 6078W        W81066  12.591  24.378  17.223 -0.0644 -0.1643  0.1014
 6079W        W81067  10.248  13.860  25.525 -0.0959 -0.3100 -0.0269
 6080W        W81068  20.492   1.331   3.350  0.1079  0.0082 -0.0377
 6081W        W81069   0.049  17.877   9.248  0.0409  0.0280 -0.4452
 6082W        W81070  30.374  12.875   5.875 -0.4400  0.2261  0.2397
 6083W        W81071   5.842   4.769  19.412 -0.0011  0.0734 -0.0018
 6084W        W81072  10.512  25.266   7.189  0.0482  0.0561 -0.1041
 6085W        W81073   3.806   2.775   4.418  0.0371  0.0674  0.0796
 6086W        W81074   1.464  21.126   0.504 -0.0858 -0.4173 -0.1029
 6087W        W81075  14.912   8.268  19.473  0.2734  0.0124 -0.0378
 6088W        W81076  24.688   2.670  15.368  0.1250 -0.1863  0.0958
 6089W        W81077  25.501  22.970  12.250  0.2815 -0.2060  0.0377
 6090W        W81078  28.717   3.373  16.771 -0.4114  0.3092  0.3120
 6091W        W81079  16.133  26.330   1.884  0.1807  0.0922  0.0246
 6092W        W81080   6.476  28.929  11.519  0.2796 -0.0542  0.2557
 6093W        W81081   5.758  35.306   5.911 -0.0645 -0.0586  0.1459
 6094W        W81082   1.215  10.377  19.839 -0.1167  0.0253  0.0153
 6095W        W81083  10.652  31.269   6.877 -0.0629  0.1156  0.1656
 6096W        W81084  23.383  24.107  25.883 -0.3910 -0.3661 -0.2654
 6097W        W81085  30.727   8.732  18.541  0.1076 -0.0381  0.0233
 6098W        W81086  10.588   2.380   1.289 -0.0588 -0.1559 -0.4158
 6099W        W81087  24.317  17.856   0.737 -0.0965 -0.0761 -0.0991
 6100W        W81088  18.209   2.553  17.278  0.2094 -0.1389  0.1568
 6101W        W81089  13.775   9.870   5.620  0.2484  0.3166 -0.0876
 6102W        W81090   6.582  17.982  10.394  0.2940 -0.0563  0.3227
 6103W        W81091  26.674   6.941  22.268  0.1963  0.4113  0.2266
 6104W        W81092  11.304   5.273   6.217  0.0971 -0.1726  0.0062
 6105W        W81093   5.758  13.831  23.413  0.1909  0.1250 -0.0947
 6106W        W81094  23.336  30.494  20.747 -0.0114 -0.4814  0.2779
 6107W        W81095   0.839   2.658  22.971 -0.0927  0.2077 -0.2642
 6108W        W81096  23.766   7.748  25.499  0.0558  0.0472 -0.1659
 6109W        W81097  18.539   6.666   2.052 -0.0761  0.1394  0.2507
 6110W        W81098  31.959   0.757  21.151 -0.3479 -0.0294 -0.0673
 6111W        W81099  10.891  21.355   4.238 -0.2766 -0.0522  0.3218
 6112W        W81100  14.015   9.535  14.304 -0.0355 -0.2843 -0.0168
 6113W        W81101  27.346   3.554  17.688 -0.0468 -0.0996 -0.0264
 6114W        W81102  26.507  32.716   5.802 -0.1334  0.1369 -0.2035
 6115W        W81103  14.449   9.582   1.611  0.2199  0.1397  0.1951
 6116W        W81104  26.426  26.617   0.056 -0.3662  0.0905  0.0313
 6117W        W81105   8.204  33.171   1.622  0.1277  0.1723 -0.1355
 6118W        W81106  13.620   8.081  11.521 -0.2235 -0.3939 -0.1816
 6119W        W81107  19.543  11.853  17.714  0.1200 -0.1903 -0.0916
 6120W        W81108  19.875   1.036   7.030 -0.0052 -0.0702 -0.1697
 6121W        W81109   1.628  11.954  24.981  0.0161  0.1573  0.0411
 6122W        W81110  24.926  27.897  14.850 -0.0607 -0.0096  0.0660
 6123W        W81111  13.999  31.305  15.310  0.2612 -0.3382  0.3607
 6124W        W81112   5.837  25.927  24.318  0.0029 -0.2048 -0.0611
 6125W        W81113  24.226  28.864  21.107  0.0824 -0.1088 -0.6031
 6126W        W81114   6.507  24.298  22.425 -0.1465  0.2577 -0.5962
 6127W        W81115  32.927  17.580  20.789  0.2325 -0.5335  0.0075
 6128W        W81116  11.693  13.180  13.525 -0.1757 -0.3007  0.3676
 6129W        W81117   3.204   6.458  17.887 -0.1942  0.1358  0.2803
 6130W        W81118  28.458  19.980  19.350 -0.1591 -0.2909 -0.2827
 6131W        W81119  27.586   7.650  21.030  0.1120  0.1095  0.2781
 6132W        W81120  24.281   5.334   4.871 -0.1631  0.1611 -0.1150
 6133W        W81121  14.896   2.613  12.250  0.0863  0.2149  0.2645
 6134W        W81122  27.213  13.927  24.042 -0.1117 -0.0861  0.1374
 6135W        W81123   2.242  20.950  26.226 -0.0927 -0.1133 -0.1701
 6136W        W81124   5.356   7.883  25.330  0.0976 -0.1342 -0.0657
 6137W        W81125  29.356  28.438   1.551  0.1809 -0.2955 -0.1293
 6138W        W81126  28.287  18.872  23.557 -0.0324  0.0248 -0.0218
 6139W        W81127  20.496  21.579  20.114  0.4471  0.0284 -0.3864
 6140W        W81128   4.883  26.891  11.825 -0.1564  0.1705 -0.1055
 6141W        W81129   0.006   9.227  26.104 -0.3607  0.2855  0.0905
 6142W        W81130  26.506  18.189  17.623  0.1441 -0.3285 -0.1119
 6143W        W81131  28.885   7.780  17.058 -0.0962 -0.0201 -0.2146
 6144W        W81132  35.146  12.786  15.542  0.2045 -0.0749 -0.2814
 6145W        W81133   6.661  29.629  12.756 -0.0288  0.1273 -0.0568
 6146W        W81134  11.574  24.603   3.392  0.0503 -0.0906  0.1934
 6147W        W81135  26.660  31.060  21.203 -0.2862 -0.3787  0.0326
 6148W        W81136  17.560   5.876  25.550 -0.2138 -0.0585  0.0403
 6149W        W81137   8.738  27.821   0.761  0.1017  0.2504  0.1698
 6150W        W81138  15.437  20.773  10.806  0.0938 -0.1208 -0.4200
 6151W        W81139   4.551   3.770   5.732  0.3704 -0.1637  0.0556
 6152W        W81140   1.415  28.916   8.675  0.0604 -0.1572  0.3946
 6153W        W81141  22.918  32.320  23.357  0.3365  0.1563  0.1405
 6154W        W81142  32.214   6.754  22.820  0.2010 -0.0158 -0.3286
 6155W        W81143   1.197  13.318  18.955  0.0701  0.2480  0.0537
 6156W        W81144  31.792  27.830  11.848 -0.2380  0.2409 -0.1070
 6157W        W81145   5.648   5.453   3.608  0.0250 -0.0585  0.0796
 6158W        W81146  31.186  18.200   8.704  0.3578 -0.3554 -0.0790
 6159W        W81147  27.834  20.209  14.181  0.1817 -0.6643  0.3026
 6160W        W81148  21.715  11.149  17.351  0.0378  0.2625  0.2368
 6161W        W81149   3.547  27.985   7.056 -0.0952  0.0136  0.0875
 6162W        W81150  28.049  35.144  23.298  0.1618 -0.0721 -0.0864
 6163W        W81151  23.300  27.857  15.555  0.0651 -0.3333 -0.1908
 6164W        W81152  25.884  17.500   5.326  0.2717  0.0549  0.0494
 6165W        W81153  12.093  19.521  22.931 -0.0270 -0.1774 -0.0016
 6166W        W81154  23.460  32.460  23.276  0.1340 -0.2418  0.0445
 6167W        W81155   1.544  16.687  15.312 -0.1372  0.0525 -0.0196
 6168W        W81156  27.428  20.299  17.431 -0.0611  0.0476 -0.2548
 6169W        W81157  22.913  26.724  13.068 -0.0440 -0.1135  0.2149
 6170W        W81158   6.254  28.950  14.194  0.2646  0.1206  0.1137
 6171W        W81159   6.333  24.749   4.281 -0.0751 -0.0529 -0.2829
 6172W        W81160   9.257   3.147  10.996  0.0488  0.2444  0.0194
 6173W        W81161  28.960   3.326  22.685 -0.1472 -0.4083  0.2202
 6174W        W81162  28.706   6.765  24.563 -0.1532 -0.0590  0.2573
 6175W        W81163  34.416   3.674  26.209 -0.0004  0.3458 -0.1789
 6176W        W81164  14.650  29.778  14.449  0.0558 -0.0956 -0.2821
 6177W        W81165  26.712   0.401  12.750 -0.0464 -0.1628  0.2105
 6178W        W81166  13.552  23.818   4.374 -0.0060 -0.0351  0.2477
 6179W        W81167   2.730  15.211  18.237  0.0352 -0.1300 -0.2467
 6180W        W81168  20.528  21.568  19.126  0.1769 -0.0606  0.0168
 6181W        W81169  34.836  25.992  25.571 -0.2667  0.1081  0.1427
 6182W        W81170   8.276  14.910  23.771  0.0926 -0.4522 -0.2142
 6183W        W81171   5.673   0.685  23.469  0.0232  0.0085  0.3372
 6184W        W81172  30.668  33.284  18.051 -0.0493  0.0439 -0.0789
 6185W        W81173  25.056  15.604   6.673 -0.0290 -0.1486 -0.1931
 6186W        W81174  16.845  31.185   7.819  0.1096 -0.2851  0.1739
 6187W        W81175  14.616  15.863  22.464  0.1234 -0.0329 -0.2688
 6188W        W81176  24.719   2.102   1.927 -0.0611 -0.0082 -0.0697
 6189W        W81177   0.946   3.878  25.444  0.1416 -0.2875  0.2211
 6190W        W81178  17.202  21.996   8.484  0.0462 -0.1654  0.0532
 6191W        W81179  30.277  16.845  10.360  0.1333 -0.3293  0.2083
 6192W        W81180  27.390  25.469  25.436 -0.0622 -0.1349 -0.3736
 6193W        W81181   0.691  10.378  19.774  0.0466  0.2505 -0.2076
 6194W        W81182  29.578   9.149  21.579  0.0834 -0.0810 -0.3730
 6195W        W81183  16.052  32.904   1.820  0.1790  0.0581 -0.1601
 6196W        W81184   6.723  35.178   9.824  0.0363 -0.0606  0.2663
 6197W        W81185  23.568  18.174  26.052 -0.0947 -0.0496  0.3581
 6198W        W81186  28.673  33.212   4.828 -0.0965 -0.1969 -0.1115
 6199W        W81187  28.046   3.190   1.616 -0.1337 -0.2393  0.0450
 6200W        W81188   5.454   5.989   5.334  0.2392  0.3115  0.0060
 6201W        W81189  12.238  29.762   5.695 -0.3066  0.0433 -0.4941
 6202W        W81190  32.632  23.957  21.413 -0.2256 -0.2856  0.0316
 6203W        W81191  31.330  11.000  20.290 -0.0402 -0.1014 -0.1220
 6204W        W81192  13.769  27.206   4.786 -0.1297  0.1678 -0.2700
 6205W        W81193  30.686  22.895  12.260 -0.1501  0.2185  0.0165
 6206W        W81194   4.121   3.807  18.148 -0.0917 -0.1148  0.3246
 6207W        W81195  32.461  23.898  14.742 -0.2058  0.3248  0.0057
 6208W        W81196   8.763  22.199   1.766  0.0571 -0.1810 -0.1289
 6209W        W81197   7.999  14.209  19.352  0.3860  0.0698  0.1041
 6210W        W81198  11.579  30.825  10.810 -0.1622 -0.1850 -0.0397
 6211W        W81199  22.609  35.316  20.976  0.4108 -0.0244  0.2316
 6212W        W81200  30.115  32.244  26.150 -0.2939 -0.1270 -0.1771
 6213W        W81201  19.497  26.281   3.820  0.1383 -0.0131  0.1696
 6214W        W81202  10.981   9.991  23.323 -0.0357  0.0527  0.0831
 6215W        W81203  20.823  21.998  20.281 -0.1459  0.1060  0.1123
 6216W        W81204  28.833  19.190  11.532  0.0803 -0.3128 -0.0291
 6217W        W81205  26.506  17.270  22.178 -0.1362 -0.1326 -0.3161
 6218W        W81206  15.475  26.053   2.085  0.2612 -0.1308 -0.2912
 6219W        W81207  21.889  29.340   5.447  0.1780  0.1216  0.1719
 6220W        W81208  23.508  30.026  25.970  0.0497  0.1558  0.1262
 6221W        W81209  18.763  25.109   8.986 -0.0177 -0.0847 -0.0565
 6222W        W81210   1.125   1.543  14.640 -0.0928 -0.0678  0.0290
 6223W        W81211   2.593  27.467  18.405  0.1733  0.3331  0.1459
 6224W        W81212   2.781   4.940  17.926  0.0348  0.0492 -0.2498
 6225W        W81213   1.342  29.472   1.943  0.1365 -0.0723 -0.1627
 6226W        W81214   9.789  16.361  25.687  0.2562 -0.1132  0.0565
 6227W        W81215  26.085  15.439   6.788 -0.1934 -0.1719 -0.0523
 6228W        W81216  12.100  12.196  20.700  0.0758  0.0102  0.1272
 6229W        W81217  13.504  12.215  26.154 -0.1812 -0.1024  0.2994
 6230W        W81218  21.558   3.331  24.259 -0.3128  0.0380  0.0480
 6231W        W81219  10.811  31.284  22.476 -0.0537  0.2840  0.0192
 6232W        W81220  12.903  19.301   4.800  0.1714  0.0310 -0.0612
 6233W        W81221  25.171   0.453  23.859 -0.0201  0.2350  0.1250
 6234W        W81222  27.355  13.613  15.005  0.0132  0.3819 -0.0287
 6235W        W81223  29.253  32.981  18.583  0.1186 -0.1790 -0.1852
 6236W        W81224  15.400  14.876  12.585  0.2996 -0.0417  0.1410
 6237W        W81225  12.248  21.941  13.390 -0.2037 -0.3134  0.0713
 6238W        W81226  34.551  28.312  15.658 -0.0808 -0.3065  0.2302
 6239W        W81227  21.551   7.518   0.895  0.1530 -0.1120 -0.0628
 6240W        W81228  30.867   0.216  12.828  0.2305 -0.1529 -0.1770
 6241W        W81229  12.538  24.491   9.134 -0.2936 -0.0881  0.0605
 6242W        W81230   4.596   1.762  19.970  0.1045  0.0671  0.1770
 6243W        W81231  24.289  21.220   0.246  0.0089 -0.0663  0.0059
 6244W        W81232  16.049   0.252   6.452 -0.0572  0.0654  0.3820
 6245W        W81233   1.348  27.302   5.678 -0.1221  0.4757 -0.2166
 6246W        W81234  22.444  12.094  26.049  0.0234 -0.0480 -0.0064
 6247W        W81235  28.044  34.653  13.459 -0.0505 -0.1700 -0.0990
 6248W        W81236   0.366  33.132   8.561  0.0422 -0.0943  0.1754
 6249W        W81237  32.626  13.937  10.518  0.0919  0.3514  0.1940
 6250W        W81238   3.042  24.133   3.495  0.0355 -0.0452 -0.2687
 6251W        W81239  31.762  16.687  24.708 -0.0332  0.1196 -0.0752
 6252W        W81240  22.777  34.867   5.241 -0.3470 -0.0464  0.1996
 6253W        W81241   7.377   8.413   1.876  0.0540 -0.1445  0.2777
 6254W        W81242   5.141   4.683   7.553  0.0841  0.2570  0.2168
 6255W        W81243   2.700  25.090  25.366 -0.2628 -0.0394  0.0102
 6256W        W81244  24.901   8.846  23.716 -0.0183  0.0838 -0.2229
 6257W        W81245  17.045  30.805  19.067 -0.3958 -0.0545  0.2994
 6258W        W81246  19.737  21.617   7.752  0.2550 -0.1176  0.3030
 6259W        W81247  26.577  21.017  14.616 -0.0270 -0.2098 -0.1184
 6260W        W81248  12.439  21.685   2.031 -0.0144  0.0777  0.3563
 6261W        W81249   5.153  30.061  22.144  0.0538 -0.1186 -0.2926
 6262W        W81250  14.856  30.558  14.502 -0.0377  0.0490  0.3901
 6263W        W81251  31.956   0.040  15.732  0.1267 -0.2250 -0.2230
 6264W        W81252  10.882  17.022   9.353  0.2560 -0.2516 -0.1754
 6265W        W81253  30.176  31.846   5.022  0.0260 -0.1005  0.1529
 6266W        W81254  23.020  18.454   0.690 -0.0048 -0.1196 -0.0538
 6267W        W81255  26.804   0.844  20.392  0.1990  0.1418 -0.2642
 6268W        W81256  33.858  30.193  15.455  0.3122  0.1156  0.1017
 6269W        W81257  29.163  18.693  22.068  0.0350  0.0515  0.1397
 6270W        W81258  32.794  20.737   9.643 -0.2043  0.1796  0.1778
 6271W        W81259  33.630   4.326   0.130 -0.2403 -0.1426  0.1130
 6272W        W81260  24.971  13.580   8.815  0.1554 -0.1246  0.1421
 6273W        W81261   5.118  20.448  19.021  0.0639 -0.1150  0.1456
 6274W        W81262  11.408  30.027   1.250  0.3131  0.0497 -0.0784
 6275W        W81263   9.432  21.754   7.349 -0.1115  0.2872 -0.2161
 6276W        W81264  16.094   1.079  22.012  0.0519 -0.2812 -0.2733
 6277W        W81265  22.047  32.011  19.936  0.1104 -0.1173  0.0136
 6278W        W81266   5.378  19.827   4.723 -0.1780  0.1529  0.0668
 6279W        W81267  32.469  27.116  12.955  0.0496  0.1759  0.0582
 6280W        W81268  23.507  28.638   3.888 -0.2678  0.0032 -0.0096
 6281W        W81269  27.244   1.879  14.118 -0.0103  0.1359 -0.1565
 6282W        W81270  33.609  26.020  10.201 -0.1420 -0.1207  0.0285
 6283W        W81271  14.558  16.816  19.069 -0.0032  0.0582 -0.0086
 6284W        W81272  13.508  22.847  17.351 -0.0550  0.0751  0.1054
 6285W        W81273   7.679  15.617   6.982  0.1950 -0.1115  0.0117
 6286W        W81274  13.563  11.538  20.779  0.0035 -0.1595 -0.0394
 6287W        W81275   8.028   8.121  21.423  0.0049 -0.0247  0.1968
 6288W        W81276  13.149  32.918   1.866 -0.0216 -0.1081  0.1480
 6289W        W81277   7.760   0.493  11.061 -0.1513 -0.5175  0.0239
 6290W        W81278  19.961  26.566  25.962  0.3660 -0.0066 -0.1319
 6291W        W81279  32.622   9.090   0.760  0.0566 -0.1768 -0.3121
 6292W        W81280  18.688   4.688   0.880 -0.0286  0.2242 -0.2351
 6293W        W81281  35.180  31.137  18.746  0.1457 -0.0882  0.2465
 6294W        W81282  28.737  18.318   9.210 -0.2113  0.3462 -0.1738
 6295W        W81283  12.511  17.813   2.846 -0.2505 -0.2605 -0.0536
 6296W        W81284  33.323  28.202  18.927 -0.1536  0.0989 -0.0269
 6297W        W81285   1.924  15.290  25.115 -0.1114  0.1800  0.2704
 6298W        W81286   0.145  18.612   8.842 -0.2700  0.0372  0.0811
 6299W        W81287   8.009  24.583   2.695 -0.2257  0.0284  0.2738
 6300W        W81288   0.755  23.951  20.262 -0.1613 -0.1306 -0.3487
 6301W        W81289  30.237   5.989  12.061 -0.1633  0.0599 -0.1302
 6302W        W81290   3.276  34.013   0.853  0.0218 -0.2078  0.0097
 6303W        W81291  32.614  14.355   8.880 -0.1696  0.1427  0.1356
 6304W        W81292  21.859  25.365  15.981 -0.0450 -0.1852  0.1975
 6305W        W81293  18.872  25.322   5.406 -0.0502  0.1493 -0.3928
 6306W        W81294  33.764  18.163   6.623  0.0220 -0.2134  0.0682
 6307W        W81295  27.980  32.292  16.983 -0.1660  0.3181 -0.1260
 6308W        W81296   4.560  11.680  20.151 -0.2023 -0.1650  0.1939
 6309W        W81297   2.096   4.287  13.682 -0.1412  0.5104 -0.2904
 6310W        W81298  27.184  27.034  26.183 -0.1451 -0.0851  0.0950
 6311W        W81299  13.047  21.836  11.114 -0.0738 -0.0626  0.1777
 6312W        W81300  34.237  17.900  20.705  0.2104  0.0144  0.3880
 6313W        W81301   3.605  34.990  20.772  0.2396 -0.1886 -0.0716
 6314W        W81302   9.794  34.806  12.676  0.1239  0.2327  0.1067
 6315W        W81303  10.383  12.784  23.779  0.1109 -0.2082  0.1156
 6316W        W81304   0.512   2.794  14.445 -0.0049  0.1861 -0.0185
 6317W        W81305  21.785   6.431   9.602 -0.0404 -0.2127 -0.4354
 6318W        W81306  34.542   5.754  18.459  0.1421  0.1948  0.4372
 6319W        W81307  28.069  28.357  14.095  0.3338  0.0194  0.2549
 6320W        W81308  21.158   1.039  23.202 -0.3166 -0.1112 -0.0871
 6321W        W81309  32.390  25.418  11.009  0.2410 -0.0790  0.0650
 6322W        W81310   0.989  15.160   0.468 -0.2155  0.3165  0.2876
 6323W        W81311  14.211  15.408   3.354 -0.1245  0.1440  0.2834
 6324W        W81312   9.716   9.324   3.027 -0.2444 -0.0299 -0.0007
 6325W        W81313  33.743  28.217   4.666  0.2270 -0.0951 -0.1717
 6326W        W81314  19.784  14.617   5.624  0.0580 -0.2171  0.2392
 6327W        W81315  21.680  15.275  23.274 -0.0428  0.1868  0.0114
 6328W        W81316   4.434  27.445   5.412 -0.0176 -0.2184 -0.0113
 6329W        W81317  10.440   8.869  12.157 -0.1319 -0.2757  0.2132
 6330W        W81318  25.141  27.415   2.227  0.1566 -0.1352  0.2171
 6331W        W81319  28.726   3.265   0.238  0.4756  0.0064  0.1378
 6332W        W81320   1.200  33.878  25.021  0.3002 -0.1878  0.0116
 6333W        W81321   2.768   1.598  23.379  0.0955  0.0537  0.0506
 6334W        W81322  27.464   4.190  17.795  0.1031  0.2008 -0.2453
 6335W        W81323  31.755  13.980  18.532 -0.1552 -0.0495 -0.1022
 6336W        W81324  12.497  12.275   5.169 -0.2858  0.1088  0.0794
 6337W        W81325  15.216  15.996  23.717  0.0139 -0.1980  0.0140
 6338W        W81326  28.257   1.044   2.866 -0.1976  0.2562 -0.0508
 6339W        W81327  10.960  32.714  14.184 -0.1878 -0.1924 -0.1732
 6340W        W81328   1.655  27.930  17.731 -0.0917 -0.1896  0.2673
 6341W        W81329   7.313  11.128  23.352  0.0162  0.1903  0.3074
 6342W        W81330   0.238   4.527  17.572 -0.0695 -0.3292 -0.2087
 6343W        W81331  27.108   3.364  22.231  0.0701 -0.0746  0.0417
 6344W        W81332   5.795  28.628  11.481 -0.1443 -0.1151 -0.2440
 6345W        W81333  33.166  25.114  17.108  0.0788 -0.2471  0.1263
 6346W        W81334  12.547   7.958  24.046 -0.2876  0.2530 -0.2785
 6347W        W81335   0.877  19.633  17.416  0.4185 -0.0726  0.0139
 6348W        W81336  10.262  13.517   8.591  0.2000 -0.1529  0.3503
 6349W        W81337  19.502  33.481   3.265 -0.0330  0.0221  0.0627
 6350W        W81338  28.443  31.114  22.038 -0.0159 -0.0146 -0.0778
 6351W        W81339  33.593  22.796  15.602 -0.2408  0.0155  0.0204
 6352W        W81340   0.148  17.560  13.828 -0.3006  0.0113 -0.0358
 6353W        W81341  28.613   9.525  14.133  0.3518  0.2071  0.0447
 6354W        W81342   0.013  10.087  12.296 -0.0123 -0.3375  0.0313
 6355W        W81343   8.080   0.875  14.256 -0.2082  0.0435 -0.0806
 6356W        W81344  27.520  16.323  10.872  0.0271  0.0996  0.1200
 6357W        W81345  17.858   6.766  12.466  0.2223 -0.0632 -0.2179
 6358W        W81346   3.398  10.767   1.317  0.1069  0.1383  0.1644
 6359W        W81347  26.248  30.942  13.745  0.0818  0.1094 -0.0442
 6360W        W81348  28.502  34.305   1.525  0.2053  0.1945 -0.0942
 6361W        W81349  19.295   1.306   2.949 -0.0423  0.1144  0.2518
 6362W        W81350   5.278   2.965   0.560  0.3006  0.0218  0.0581
 6363W        W81351   4.914  26.306  10.482 -0.0835  0.1528  0.4416
 6364W        W81352  21.306  10.672   8.792 -0.0854  0.0605  0.2194
 6365W        W81353  21.094  33.731  23.439  0.2259  0.0526  0.4011
 6366W        W81354  10.155  26.017  14.716 -0.3391  0.0072  0.0385
 6367W        W81355  16.345  21.777  25.126  0.1413 -0.1286 -0.1652
 6368W        W81356  30.326  31.603  17.304 -0.1899 -0.0077 -0.1234
 6369W        W81357  15.515  34.315   7.593 -0.1568  0.0082  0.1035
 6370W        W81358   4.987   0.104   5.131 -0.1113 -0.1005  0.3917
 6371W        W81359  12.811   3.052   4.477  0.1123  0.1449 -0.2169
 6372W        W81360  16.393  18.887   6.607 -0.0235 -0.1431 -0.4129
 6373W        W81361   0.836  32.207  23.007  0.1366 -0.0594  0.2162
 6374W        W81362   9.714  35.116  10.280 -0.1581  0.0212 -0.0765
 6375W        W81363  32.538   7.322   0.818 -0.1456 -0.1050  0.1558
 6376W        W81364   0.679  10.637  15.279 -0.0547 -0.2734  0.2811
 6377W        W81365   8.020  16.051   6.998 -0.0118  0.0976 -0.0953
 6378W        W81366   7.165  19.665   1.325  0.0261 -0.1449  0.0608
 6379W        W81367   8.053  28.540   1.442  0.0355 -0.0714 -0.0561
 6380W        W81368  10.522  33.004   1.342 -0.0277  0.0175 -0.0878
 6381W        W81369  27.074  10.825  21.480  0.0566  0.3441 -0.1111
 6382W        W81370  15.040  21.036   7.431 -0.0228 -0.0284  0.0756
 6383W        W81371  21.407  33.887   3.946  0.0888  0.2105 -0.3055
 6384W        W81372   2.540   2.276   1.718 -0.0366 -0.0490 -0.0166
 6385W        W81373  30.515  11.840  23.739  0.0798 -0.0829  0.1239
 6386W        W81374   0.230  12.369  10.684 -0.0214  0.0348 -0.1472
 6387W        W81375  33.711  18.311  17.480 -0.0481  0.1512  0.3182
 6388W        W81376  25.771  12.907  22.904  0.2031 -0.0727  0.0022
 6389W        W81377  18.055  30.824   9.856 -0.3548 -0.0874  0.2162
 6390W        W81378   5.342  16.103  21.894 -0.3061  0.1583 -0.2392
 6391W        W81379  18.013  32.252   8.280 -0.0864  0.0220  0.4534
 6392W        W81380  19.674  21.195   4.555 -0.2257  0.0437  0.2211
 6393W        W81381  24.391  28.786  17.867  0.0056  0.1849  0.1981
 6394W        W81382  19.900  26.687   1.035 -0.0180 -0.2866  0.3564
 6395W        W81383   0.483   8.387  19.554  0.2469 -0.1453 -0.0376
 6396W        W81384  30.738  26.719  20.582  0.2838 -0.1790 -0.2760
 6397W        W81385  24.870  20.755  17.565 -0.1500  0.0009  0.0701
 6398W        W81386   4.898  11.013   6.187 -0.0779  0.1620 -0.0137
 6399W        W81387  18.922  11.304   6.494 -0.0836  0.1015 -0.0321
 6400W        W81388   8.229  13.616   3.707 -0.1933  0.0052 -0.1298
 6401W        W81389  20.182  17.296   0.453 -0.1187 -0.0756 -0.0455
 6402W        W81390  17.581  15.970  19.156 -0.2368 -0.2708 -0.2082
 6403W        W81391  14.032  15.012  25.980 -0.0648  0.0424  0.0099
 6404W        W81392  19.310  33.452   1.525 -0.4103  0.1738  0.1654
 6405W        W81393  25.122   2.078  23.790  0.1474 -0.0615 -0.1449
 6406W        W81394  17.263  22.277  12.686  0.0340 -0.0987 -0.0174
 6407W        W81395  15.229  33.936   5.944 -0.1844 -0.0311  0.2410
 6408W        W81396   7.380  19.850   8.676 -0.0809 -0.0005  0.1950
 6409W        W81397  15.677  12.745  20.841  0.3593 -0.0409 -0.0394
 6410W        W81398  10.275  32.105  11.656 -0.2338  0.0751 -0.1566
 6411W        W81399  22.635  30.950  18.865  0.2773  0.2489 -0.0228
 6412W        W81400  34.695  19.812  10.206  0.0489 -0.0421 -0.3195
 6413W        W81401   8.375   0.055  11.839  0.1126  0.2207 -0.3556
 6414W        W81402  10.068  34.511  13.373  0.2748  0.0565 -0.4189
 6415W        W81403  26.992  17.791  21.450 -0.1222 -0.5505 -0.1165
 6416W        W81404  18.581   5.620  17.182  0.1634 -0.2037  0.0192
 6417W        W81405   7.440  12.140   3.250  0.2094  0.1669 -0.1811
 6418W        W81406   3.764  22.084  22.628  0.0224 -0.3233 -0.1085
 6419W        W81407   8.095   7.617   2.171  0.0246  0.1954 -0.2436
 6420W        W81408   6.766  33.343   6.373 -0.0387 -0.3379 -0.1327
 6421W        W81409  28.662  18.247   5.040  0.1611  0.3176  0.2358
 6422W        W81410   7.457  18.809  25.856 -0.1979 -0.3938 -0.0082
 6423W        W81411  19.996  31.137   7.535 -0.4015  0.0003 -0.0225
 6424W        W81412  18.562  26.741  20.181 -0.0825  0.2114  0.0945
 6425W        W81413  24.649  25.225  10.995 -0.0650 -0.1844  0.4023
 6426W        W81414  25.220  32.029  23.936  0.1668  0.0165 -0.0223
 6427W        W81415  16.549   5.736  22.453  0.0794  0.1041 -0.0092
 6428W        W81416  17.730   1.882  20.193  0.0202  0.0366  0.2154
 6429W        W81417  26.148  33.210   0.233 -0.2516  0.0268 -0.1116
 6430W        W81418  30.916  17.757  11.733  0.0215  0.1900 -0.0912
 6431W        W81419   2.479  18.087  21.658 -0.1609  0.2388 -0.2793
 6432W        W81420  20.053  33.767  24.984  0.0786  0.0999 -0.1656
 6433W        W81421  10.045  17.620   1.285 -0.2425 -0.1083 -0.0536
 6434W        W81422   7.279   0.005  11.924  0.3478  0.2154  0.2199
 6435W        W81423  25.001   7.994  19.046  0.0377 -0.2763 -0.0839
 6436W        W81424  12.053  28.280  12.660 -0.1422  0.0125  0.4165
 6437W        W81425   0.632  10.346  11.450  0.0114  0.0588  0.0567
 6438W        W81426   2.081  10.416  21.504  0.2534 -0.0165 -0.3656
 6439W        W81427  24.427  28.729   2.485 -0.0035 -0.1487 -0.2054
 6440W        W81428   2.370  18.866   3.283  0.0361 -0.0985 -0.0766
 6441W        W81429  28.638   7.907  15.638 -0.0132 -0.1398  0.1664
 6442W        W81430  29.903  21.510  22.834 -0.0137  0.1383  0.0955
 6443W        W81431  17.854   9.567  24.691  0.3207 -0.0219 -0.1044
 6444W        W81432   3.254   2.615   2.794  0.1425 -0.1142 -0.2930
 6445W        W81433   1.378  22.418  19.587 -0.1353 -0.0092 -0.1020
 6446W        W81434   1.175  28.606   2.949 -0.0730  0.0722 -0.4615
 6447W        W81435   8.927  34.548  20.921  0.3118  0.0600  0.1738
 6448W        W81436  17.119  22.097  21.623  0.3077 -0.1987  0.1641
 6449W        W81437  20.408  15.542  17.740 -0.1042 -0.1148 -0.0479
 6450W        W81438  26.601  10.507  22.774 -0.3931  0.0414  0.0439
 6451W        W81439  32.642   2.744  20.043  0.2439  0.3351 -0.4092
 6452W        W81440  21.395   5.081  19.749  0.0571 -0.0814 -0.0275
 6453W        W81441  19.011   0.709   4.052 -0.1573 -0.0366  0.2883
 6454W        W81442  19.157  22.855  25.313 -0.1513  0.2873  0.0763
 6455W        W81443  24.689  12.292  23.146  0.0124 -0.0017 -0.0865
 6456W        W81444   1.689  29.235   2.259  0.0610  0.0704 -0.3169
 6457W        W81445  23.267  27.396  19.618  0.0240  0.2733 -0.0539
 6458W        W81446  33.027   5.165   4.161 -0.1008 -0.0605  0.3692
 6459W        W81447  25.040  23.453  10.902  0.2093  0.1169 -0.1667
 6460W        W81448  19.509  29.629   9.005  0.4729 -0.0412 -0.2438
 6461W        W81449  10.143  21.762   9.391  0.0406  0.3492  0.0181
 6462W        W81450  32.663  31.499  24.155 -0.0987 -0.1059  0.2816
 6463W        W81451  10.148  26.052   3.079  0.0364  0.0058 -0.1383
 6464W        W81452  19.262  11.376  23.059  0.0257  0.3275 -0.0010
 6465W        W81453   4.018  10.316   1.859 -0.2038  0.0082 -0.0492
 6466W        W81454  27.838   0.363  22.089 -0.0704 -0.3583  0.2415
 6467W        W81455  14.512  33.240   3.790  0.2937 -0.1106  0.2431
 6468W        W81456  22.724  12.430  14.309 -0.3456  0.0369 -0.1701
 6469W        W81457  24.540  15.420  18.569  0.1691  0.1565  0.0377
 6470W        W81458   8.786  35.081  22.106 -0.1867 -0.1102 -0.3052
 6471W        W81459  31.329   2.528  25.529  0.0720 -0.1810  0.3540
 6472W        W81460  24.037  17.912   1.176 -0.1296  0.1344  0.0081
 6473W        W81461   7.367   3.566   5.451 -0.0628 -0.0007 -0.2083
 6474W        W81462  24.045  22.112  15.566  0.2810  0.3047 -0.3073
 6475W        W81463  14.270  14.895   6.521  0.4240  0.2295  0.1221
 6476W        W81464  33.535  10.332  24.217  0.2594  0.2283 -0.2135
 6477W        W81465  18.527  26.610  10.159 -0.0942  0.1962 -0.0145
 6478W        W81466   8.605  29.428  14.453  0.0450  0.2200  0.0119
 6479W        W81467   7.251   0.659   9.889  0.0940 -0.1934  0.2359
 6480W        W81468  26.715  21.717  19.513  0.2938 -0.1023  0.0379
 6481W        W81469  33.892  19.279  10.737 -0.3172 -0.3519 -0.1943
 6482W        W81470  16.342  24.183   3.177 -0.0326 -0.2778 -0.0482
 6483W        W81471  15.723   5.936  25.934 -0.0484  0.0518  0.0131
 6484W        W81472  26.149   8.840   2.147  0.0698 -0.1901 -0.0334
 6485W        W81473  12.295   3.530  20.910  0.3137 -0.3111  0.0778
 6486W        W81474  27.774  30.448   5.655  0.3319  0.1957  0.2314
 6487W        W81475  16.099  13.674  19.081  0.4366 -0.0635 -0.3706
 6488W        W81476  12.462  33.063  23.791 -0.1469 -0.2501 -0.1035
 6489W        W81477  26.432  16.196  24.676 -0.1519  0.1848  0.2317
 6490W        W81478   2.942  30.795   1.419  0.0513  0.4794  0.1145
 6491W        W81479   8.019   4.015   7.083  0.1728  0.1175 -0.2272
 6492W        W81480  11.098  16.956  24.818  0.3467 -0.1532  0.4026
 6493W        W81481  32.696  27.184  16.493  0.1155 -0.0861  0.1612
 6494W        W81482   4.139   9.905  22.790  0.2728 -0.1432 -0.0689
 6495W        W81483   7.019  25.465   8.786 -0.3119 -0.2538  0.0439
 6496W        W81484  30.030  29.167  17.787 -0.4589  0.0505  0.1541
 6497W        W81485   0.388  27.804   6.224  0.0251 -0.0526  0.1786
 6498W        W81486  30.897   9.794  10.612 -0.2144 -0.1834  0.0834
 6499W        W81487  19.842   9.210   2.276 -0.1697 -0.1884  0.0005
 6500W        W81488  30.291   8.347  19.854 -0.1228 -0.0276 -0.2481
 6501W        W81489   6.952   1.355  19.546  0.5321 -0.1967 -0.1384
 6502W        W81490   5.728   5.959   2.321  0.1346 -0.1571 -0.0846
 6503W        W81491  17.759  14.252   2.454 -0.1112 -0.2076 -0.0296
 6504W        W81492  16.435   8.231   4.662  0.0562  0.2070  0.0511
 6505W        W81493  18.467  32.283  16.415 -0.2395 -0.0372 -0.2860
 6506W        W81494   1.643  22.711  23.324  0.1344  0.0276 -0.2008
 6507W        W81495  10.241   1.724   8.524  0.0964 -0.1565  0.0858
 6508W        W81496   2.813  34.072   2.368  0.1319  0.1512 -0.0507
 6509W        W81497  27.569   6.605   2.828  0.2263 -0.1466 -0.1407
 6510W        W81498  10.769  21.608  25.133 -0.1072 -0.2288  0.2014
 6511W        W81499  22.318  21.137  17.124  0.1456 -0.1269 -0.0977
 6512W        W81500  17.991  24.664  26.197  0.1607  0.0014 -0.2939
 6513W        W81501   7.670  18.930   2.117 -0.0124  0.1286 -0.0793
 6514W        W81502  19.184  24.343   0.389  0.0132  0.2078 -0.0932
 6515W        W81503   4.986   8.995  18.943  0.3010  0.0398 -0.0545
 6516W        W81504  33.469   5.511  14.346 -0.2464 -0.1552  0.3384
 6517W        W81505  22.260  30.170   2.854  0.1128 -0.0488 -0.0198
 6518W        W81506  26.271  27.217  12.925 -0.0060  0.0932 -0.3549
 6519W        W81507  21.437   6.451   6.840  0.0678  0.2314  0.1973
 6520W        W81508  13.907  31.145  13.713  0.0289 -0.4077 -0.0900
 6521W        W81509  15.738  34.035   2.950  0.2708 -0.1705  0.1681
 6522W        W81510  22.403  14.910  22.841 -0.0073 -0.0540 -0.2067
 6523W        W81511  10.571  25.923   4.047  0.2388 -0.0396  0.0632
 6524W        W81512   9.932  18.974  22.664  0.3063  0.2030  0.0283
 6525W        W81513   4.357  19.029  23.322 -0.0207 -0.2744  0.1944
 6526W        W81514  28.989  15.336  20.902  0.0790  0.1658 -0.0872
 6527W        W81515  30.785  33.868   1.084 -0.1392 -0.0917 -0.0549
 6528W        W81516  11.489  19.963   1.806  0.3404  0.0622  0.0903
 6529W        W81517  18.953   3.727   3.648  0.2479  0.2493  0.0832
 6530W        W81518  26.991  32.203  19.257 -0.0337  0.0805 -0.2236
 6531W        W81519   7.033  22.879   1.467  0.0235  0.0606  0.0761
 6532W        W81520  27.628  34.799  23.493 -0.0383  0.1006 -0.3096
 6533W        W81521  12.978  16.214   3.309  0.1120  0.0967  0.2452
 6534W        W81522  27.467  25.935  23.920 -0.1239 -0.0437  0.1620
 6535W        W81523  25.021  22.517   8.816 -0.0946  0.3785  0.3370
 6536W        W81524  35.279  34.484  20.118 -0.2771  0.1815 -0.0012
 6537W        W81525  22.184  28.095  20.224 -0.2708  0.0767  0.1810
 6538W        W81526   2.928  34.956   5.915  0.1891 -0.4189  0.2889
 6539W        W81527  27.811   1.050  23.538 -0.1709 -0.1448 -0.1334
 6540W        W81528   5.176  33.254   4.527  0.1646  0.0234  0.0993
 6541W        W81529   5.933  28.962  22.594 -0.0890  0.0953 -0.0985
 6542W        W81530  22.651  13.465  17.259  0.1065 -0.4366 -0.1313
 6543W        W81531  27.898  16.931  13.428  0.0396  0.2037 -0.0143
 6544W        W81532  20.937  25.441  23.211  0.0139  0.1615  0.1616
 6545W        W81533   0.391  18.098   0.218  0.0744  0.1690 -0.1113
 6546W        W81534   8.117  24.281   8.443  0.0714  0.1447  0.1284
 6547W        W81535  25.580  17.402   9.897  0.0518 -0.1274  0.3207
 6548W        W81536  17.230  23.147   7.551 -0.0226  0.0953 -0.2063
 6549W        W81537  10.880  35.171  23.872  0.0211  0.3140 -0.0845
 6550W        W81538  28.831  12.884  11.420  0.3168  0.1739 -0.0528
 6551W        W81539  11.845  34.390  11.629  0.0791 -0.0777 -0.0206
 6552W        W81540  21.564  11.314   0.655 -0.0473 -0.2436  0.0355
 6553W        W81541  29.106   2.406  19.571  0.4075  0.1890  0.0580
 6554W        W81542  18.689   8.765  25.193 -0.0605 -0.2027 -0.1279
 6555W        W81543  25.242   9.295  20.452 -0.1675 -0.0335 -0.3019
 6556W        W81544  31.668  29.500  17.532  0.0983 -0.1478 -0.1016
 6557W        W81545  15.435  20.556   1.152 -0.1503 -0.1374 -0.0818
 6558W        W81546   6.484   4.020   3.447  0.2665  0.1755  0.2369
 6559W        W81547  17.710  28.426  20.192 -0.2753  0.0135  0.0555
 6560W        W81548  24.063  31.394  24.294  0.0749 -0.0120 -0.0958
 6561W        W81549  15.089   0.470  22.292  0.0466  0.1755 -0.1067
 6562W        W81550  29.005   3.782  18.699 -0.0331  0.0507  0.1735
 6563W        W81551  12.747   4.926   8.306 -0.0515  0.0614  0.0798
 6564W        W81552  16.490  15.073  22.721 -0.2458 -0.0780 -0.0835
 6565W        W81553   8.322  28.975  25.055 -0.2419  0.1704  0.0125
 6566W        W81554   0.295  15.475   9.608  0.1206 -0.0304 -0.2773
 6567W        W81555  35.090  11.775   0.371 -0.0440 -0.0451  0.1234
 6568W        W81556  16.003  31.682  24.481 -0.1065 -0.0610  0.0829
 6569W        W81557  22.756   1.589  22.281 -0.1081 -0.0475 -0.0413
 6570W        W81558  27.659   2.208  14.067 -0.0386 -0.0967 -0.0782
 6571W        W81559   8.752  22.350   7.784 -0.2472 -0.2458  0.1123
 6572W        W81560   4.464  32.976   5.434  0.1916 -0.1093  0.1655
 6573W        W81561  18.007  24.017   6.265  0.1522  0.2135 -0.0781
 6574W        W81562  18.139  32.542  24.483 -0.0816  0.0707  0.3688
 6575W        W81563  24.474   7.184  18.617 -0.1608  0.1256 -0.0749
 6576W        W81564  21.473   1.092  21.671 -0.1615 -0.1436 -0.1355
 6577W        W81565  31.148  25.662  22.861  0.2076 -0.0198 -0.1861
 6578W        W81566  31.625  20.664   5.109  0.0312 -0.0007 -0.4041
 6579W        W81567  18.748  21.519  22.833 -0.2220  0.1765 -0.2089
 6580W        W81568  28.692  19.977  20.694  0.0387 -0.3038  0.2300
 6581W        W81569  20.991   1.971   5.641  0.1990  0.2226  0.0834
 6582W        W81570  27.282   7.283  22.998 -0.0787  0.0411 -0.1556
 6583W        W81571  14.413  28.092  21.821 -0.2504 -0.4417 -0.1648
 6584W        W81572  26.557  19.500  11.126 -0.1258 -0.2986 -0.0056
 6585W        W81573  26.782   6.702  24.972 -0.2342 -0.0155 -0.1513
 6586W        W81574  33.971  15.504  11.220  0.2734 -0.1765  0.1166
 6587W        W81575  15.992   9.308  11.868  0.2807  0.1781 -0.1297
 6588W        W81576  10.579  23.426  15.082 -0.1181  0.0327 -0.2803
 6589W        W81577  22.721  27.205  14.251 -0.1908 -0.0843 -0.2223
 6590W        W81578  17.303  19.035  14.247  0.0546 -0.1229  0.5750
 6591W        W81579  33.308  21.520  19.372 -0.1535 -0.5118  0.0733
 6592W        W81580  33.463   3.570  18.207  0.2246  0.0549  0.1520
 6593W        W81581  16.693   9.657  13.826 -0.4146  0.0664  0.2931
 6594W        W81582   0.457   3.697  21.502 -0.1686  0.0039  0.0695
 6595W        W81583  23.851  23.519  19.653 -0.1467 -0.1699  0.3501
 6596W        W81584   2.413  31.760   7.272 -0.5224  0.0253 -0.1627
 6597W        W81585  23.995  14.321  24.904 -0.0666 -0.2470 -0.1832
 6598W        W81586  33.761  26.763  17.328 -0.1415  0.2731  0.2820
 6599W        W81587  27.621  20.614  23.144  0.0047 -0.0689  0.0452
 6600W        W81588   3.837   2.535  24.747  0.0582 -0.0159 -0.1185
 6601W        W81589  32.503  11.004  15.116  0.2253  0.1358  0.0722
 6602W        W81590  28.651  24.341  11.400  0.0501  0.0148 -0.0676
 6603W        W81591  33.279   6.195  19.704 -0.0711 -0.2225 -0.0424
 6604W        W81592   4.711  13.764   6.500 -0.0659  0.1775  0.2781
 6605W        W81593   1.624   9.280  20.221  0.0063 -0.0759  0.1870
 6606W        W81594  17.856   2.300   3.555  0.0067  0.2365  0.1558
 6607W        W81595  18.149  21.284  25.559 -0.0231 -0.1083 -0.1812
 6608W        W81596  32.813  10.355   0.525 -0.1110 -0.0413  0.1110
 6609W        W81597  25.381  30.443  22.464  0.0690  0.0255  0.2197
 6610W        W81598  30.429   4.114  19.502  0.0820  0.4901  0.2891
 6611W        W81599  14.359  20.610  24.865 -0.1128  0.0799 -0.0350
 6612W        W81600  26.340  19.779  10.799  0.0567  0.1202  0.0295
 6613W        W81601  20.828  23.869  24.418  0.0477 -0.0192  0.1765
 6614W        W81602  10.445   3.874   6.413  0.0726  0.0925  0.0441
 6615W        W81603  13.850  21.746   8.641  0.3889  0.2311  0.1481
 6616W        W81604   2.382  14.991   2.530 -0.0539  0.0926 -0.1365
 6617W        W81605  32.185  11.769  24.894  0.2957 -0.0035 -0.1922
 6618W        W81606  34.929  14.993  16.765 -0.3085 -0.1408  0.0616
 6619W        W81607  33.422  28.547  14.866 -0.0411 -0.2427  0.5480
 6620W        W81608   7.505  20.894  20.846  0.0664  0.1916  0.1238
 6621W        W81609   5.707  33.370  24.019 -0.1212 -0.0390 -0.0074
 6622W        W81610   3.742   7.280   2.620  0.2335 -0.1031 -0.1902
 6623W        W81611  22.321   0.810   0.108  0.2890 -0.0155 -0.1470
 6624W        W81612   6.596  24.418   6.828 -0.0745  0.0579 -0.1632
 6625W        W81613  10.180  32.419  23.069  0.0950  0.3589 -0.4132
 6626W        W81614  14.493   1.065  11.390  0.1122  0.0252 -0.0801
 6627W        W81615  17.666  33.878   7.547  0.1541  0.0386 -0.2388
 6628W        W81616  19.712  33.334   5.760 -0.1062  0.1149 -0.0702
 6629W        W81617  27.977   6.767  12.265  0.1349 -0.0929  0.0413
 6630W        W81618  28.168   4.446  12.404  0.2561 -0.3799  0.2671
 6631W        W81619  31.340  20.423  17.124 -0.0372  0.0963 -0.1064
 6632W        W81620  26.058  19.784  18.510 -0.2916 -0.1464  0.2857
 6633W        W81621  35.171  35.194  18.195  0.1134 -0.0832 -0.1313
 6634W        W81622  16.024  32.234   0.248 -0.1213  0.0171  0.2589
 6635W        W81623  32.685   0.435  22.879 -0.0649  0.0449  0.0593
 6636W        W81624   3.757  18.680   4.726  0.0148 -0.0254  0.1532
 6637W        W81625  22.394  34.346  14.612 -0.0707 -0.1754 -0.0365
 6638W        W81626  34.099   6.136   1.953  0.1707 -0.0821 -0.3107
 6639W        W81627   1.684  31.526   4.643 -0.1692 -0.0125 -0.3109
 6640W        W81628  32.970  24.141  16.738 -0.0251 -0.0627  0.3780
 6641W        W81629  28.110  33.151   3.315  0.0824  0.0392  0.0503
 6642W        W81630  23.313  12.895   0.344  0.2240  0.1235 -0.1207
 6643W        W81631  18.899  23.514   4.874  0.2124  0.0288 -0.1493
 6644W        W81632  19.722  19.260   8.570  0.1731 -0.2081  0.1001
 6645W        W81633   1.454  24.374  19.339  0.1353  0.2371 -0.1536
 6646W        W81634  10.090   2.170  22.715 -0.0463 -0.1182  0.1959
 6647W        W81635   4.202  25.942   0.591 -0.0532  0.0985 -0.1240
 6648W        W81636  30.850   8.194   9.751  0.2926 -0.2176  0.1901
 6649W        W81637   7.625  18.989  24.245  0.1487  0.3848  0.2059
 6650W        W81638   5.182  13.939   0.692  0.4378 -0.2871 -0.2160
 6651W        W81639  32.574   8.255  18.634  0.0529 -0.5157  0.3149
 6652W        W81640   4.544  30.056   9.710  0.2582 -0.1088  0.4209
 6653W        W81641  10.842   6.871  21.924  0.4671  0.1214  0.0433
 6654W        W81642  29.219  14.350   6.758  0.1110  0.3809  0.0272
 6655W        W81643  21.242  17.052  17.572 -0.2030 -0.1771 -0.0801
 6656W        W81644   7.416   7.394   4.286 -0.2346 -0.1479 -0.1089
 6657W        W81645  27.885  27.442  15.115 -0.0743 -0.1951 -0.1653
 6658W        W81646  34.784  14.003  10.428 -0.0025  0.0268  0.0789
 6659W        W81647   6.231  19.902  23.507 -0.0027 -0.1183 -0.0623
 6660W        W81648   3.389  31.767   0.755 -0.5461 -0.1780 -0.0927
 6661W        W81649  34.346  12.361  13.585 -0.1025  0.1505  0.1591
 6662W        W81650  26.343   5.001  20.075 -0.2890 -0.0237 -0.0643
 6663W        W81651  23.329  30.236  24.455  0.1364 -0.0402  0.0214
 6664W        W81652  27.412  18.438   5.040 -0.1967  0.2152 -0.0490
 6665W        W81653  33.779  21.049  18.642  0.2030  0.0980 -0.0989
 6666W        W81654  26.837   6.474  11.884  0.5692 -0.1145  0.0848
 6667W        W81655   4.643   6.998  24.464 -0.0557  0.1530 -0.0773
 6668W        W81656   8.773   9.527  12.865  0.1210 -0.3065 -0.1048
 6669W        W81657  18.556  29.184   0.444 -0.2924  0.2288  0.1916
 6670W        W81658   3.119  22.921  22.454  0.0107  0.1925 -0.2880
 6671W        W81659  14.017  27.015  11.865  0.0544 -0.0397 -0.0631
 6672W        W81660   1.105  14.201  26.193  0.2771 -0.1804  0.0605
 6673W        W81661   8.568  35.258   7.111  0.1215 -0.1232  0.4151
 6674W        W81662   8.201  31.044   4.977  0.2910  0.3492 -0.0095
 6675W        W81663   5.704  29.441   3.316  0.1166  0.1708  0.1529
 6676W        W81664   7.566  31.176  22.640  0.0598  0.1138  0.1216
 6677W        W81665   1.755  11.407  15.200 -0.1095 -0.0037 -0.0639
 6678W        W81666  35.370  28.175  25.029 -0.1081 -0.0965 -0.2169
 6679W        W81667   7.587  12.661  18.511 -0.1791 -0.0727  0.2712
 6680W        W81668  26.974  22.886   6.765  0.2037 -0.1258 -0.1821
 6681W        W81669   1.171  10.612  15.136 -0.1191 -0.0234 -0.0500
 6682W        W81670  14.561  25.695  13.379  0.0453  0.1071  0.0338
 6683W        W81671  24.519  15.926  18.027  0.3382 -0.2782 -0.2798
 6684W        W81672  32.280   8.691  21.902 -0.2422  0.0424  0.1716
 6685W        W81673  15.055  29.119   5.219 -0.3039 -0.2925  0.2072
 6686W        W81674  20.003  27.964  16.877  0.1617 -0.3688  0.2021
 6687W        W81675   7.437  17.080  25.902  0.1210 -0.0621 -0.5530
 6688W        W81676  18.976   2.441  21.205 -0.1278  0.0334 -0.2328
 6689W        W81677  34.033   6.863  16.592  0.1897 -0.1593 -0.2555
 6690W        W81678  18.997  29.603  17.255  0.0084  0.1676 -0.3508
 6691W        W81679  35.224  30.484  15.887  0.0465 -0.1343  0.0132
 6692W        W81680  11.720  24.119  14.745 -0.0041 -0.0140  0.1858
 6693W        W81681  22.126  11.483   0.601  0.0802  0.2668  0.1708
 6694W        W81682  34.380   1.510   6.469 -0.0482  0.0012 -0.1103
 6695W        W81683  25.280  18.248  13.022 -0.0100 -0.3651  0.1503
 6696W        W81684  12.088  30.654   2.858 -0.1955 -0.0751  0.2155
 6697W        W81685  34.447  31.847   5.905  0.2773 -0.1153  0.0495
 6698W        W81686  32.374   2.462   0.396  0.1621 -0.1117 -0.2321
 6699W        W81687  13.079  20.055   3.869  0.1457  0.2449  0.1066
 6700W        W81688  23.814   5.356   2.574 -0.3295 -0.1209 -0.1501
 6701W        W81689  18.281  21.164  24.690  0.1302 -0.0123  0.1847
 6702W        W81690  27.571   8.655   9.758  0.0706  0.0817  0.1795
 6703W        W81691   0.674  12.741   0.341  0.1000 -0.1168 -0.0305
 6704W        W81692   0.002  11.724  21.063 -0.0960 -0.1339 -0.0705
 6705W        W81693  33.690   0.144   6.026 -0.0391 -0.2051  0.1430
 6706W        W81694  19.988  33.294  17.221 -0.2129  0.2237  0.1599
 6707W        W81695   8.472  33.527   5.599 -0.0710 -0.2000  0.2430
 6708W        W81696  19.366  18.685   1.294 -0.1028  0.0777 -0.0076
 6709W        W81697  28.953  30.358  23.141 -0.2134 -0.0554 -0.1102
 6710W        W81698  11.574  29.123  16.375  0.1420 -0.2577  0.0602
 6711W        W81699  20.603  28.962  17.782 -0.1583  0.0087  0.0781
 6712W        W81700  28.619  33.218  21.360 -0.0015  0.0463 -0.2872
 6713W        W81701  30.716  11.676   7.659  0.0196 -0.0929  0.0816
 6714W        W81702  22.241  32.477  25.620 -0.0885  0.0555 -0.3208
 6715W        W81703   6.367  31.634   3.694 -0.1185 -0.3048  0.3735
 6716W        W81704  29.003   3.823  21.582 -0.3274 -0.1031 -0.2539
 6717W        W81705   7.625  24.998   9.111 -0.0448  0.1136 -0.0779
 6718W        W81706  27.917   7.367  25.557  0.2297 -0.1482 -0.1385
 6719W        W81707   1.911   8.272  24.405  0.1550 -0.0538  0.0914
 6720W        W81708  20.209   4.590   6.882 -0.1541  0.0484 -0.1916
 6721W        W81709  19.836  16.234  19.651 -0.2629  0.1379 -0.2693
 6722W        W81710  25.802   8.179  14.208 -0.0890  0.0223 -0.0099
 6723W        W81711  18.923  35.145  25.519 -0.1802  0.0284 -0.3372
 6724W        W81712  20.852  13.647  16.647 -0.1159 -0.0710 -0.1057
 6725W        W81713  13.056  20.346   5.859  0.0255  0.1556  0.0055
 6726W        W81714   6.651  33.772   6.578  0.3860  0.0565  0.3695
 6727W        W81715  19.261   2.761  17.166  0.1558  0.1659 -0.5245
 6728W        W81716  34.138  12.410   9.684 -0.2069  0.1843  0.1463
 6729W        W81717   7.795   2.537  24.743 -0.1044 -0.4353  0.2104
 6730W        W81718   3.141  31.461  24.256 -0.0979 -0.1928  0.3633
 6731W        W81719   9.950  11.118  20.217  0.1159 -0.0544  0.1203
 6732W        W81720  15.359   0.613  21.570  0.2605 -0.2119  0.1023
 6733W        W81721  16.889  16.680   7.934 -0.3047  0.0512 -0.2805
 6734W        W81722  29.033  17.242  21.167 -0.0124  0.3775 -0.0787
 6735W        W81723  28.378   2.976  10.927  0.3035 -0.3936  0.1110
 6736W        W81724  11.023  27.847   3.205  0.0883  0.1577 -0.0160
 6737W        W81725   5.941  31.018  21.488  0.0889  0.0291 -0.0337
 6738W        W81726  26.812  34.695  11.891  0.0120  0.1087 -0.0960
 6739W        W81727  13.604  29.152  23.024  0.0242 -0.0876 -0.0593
 6740W        W81728  34.227  33.060  21.138  0.1109  0.1808  0.0037
 6741W        W81729  34.999  29.413  24.442  0.3843 -0.3456 -0.1435
 6742W        W81730  26.964  11.418   0.103  0.1085 -0.2113 -0.2396
 6743W        W81731  30.109   0.746   5.920 -0.0154  0.1396  0.0948
 6744W        W81732  19.189  11.500  18.839 -0.1201 -0.2271  0.0194
 6745W        W81733  29.854   2.483  24.076  0.0789  0.2291  0.1218
 6746W        W81734   5.620  33.699  25.014  0.0129 -0.1293  0.0269
 6747W        W81735  17.170   7.939  26.006 -0.2298  0.1825 -0.3848
 6748W        W81736  17.290   2.009  23.611 -0.1178 -0.0567 -0.1912
 6749W        W81737  35.205  12.840  24.178  0.2259 -0.1905 -0.0937
 6750W        W81738   7.406  22.825  24.016  0.0093 -0.2460 -0.1262
 6751W        W81739  22.791  31.216  22.796 -0.3100 -0.1846  0.1570
 6752W        W81740  18.865  19.624  25.788 -0.3204 -0.1221  0.0548
 6753W        W81741  17.085  31.862   5.736  0.1226 -0.1841 -0.2097
 6754W        W81742   6.511  24.503   2.682 -0.2533  0.1316 -0.0629
 6755W        W81743   5.898  28.645   5.241 -0.4313 -0.5711 -0.1449
 6756W        W81744  12.110  11.325   3.216  0.0986 -0.0349 -0.1198
 6757W        W81745   1.581  26.897  22.260 -0.2424 -0.3448  0.4720
 6758W        W81746  26.509  23.002  22.232 -0.2281  0.1074  0.4283
 6759W        W81747   0.432  33.375   3.226  0.1148 -0.0839  0.3767
 6760W        W81748   7.437   5.946   1.694  0.3596  0.1472  0.0999
 6761W        W81749  11.868  18.610   7.301 -0.1886 -0.1865 -0.4076
 6762W        W81750   4.870  11.817   4.944  0.0267 -0.0190  0.3524
 6763W        W81751   0.675   9.575   0.543 -0.4073  0.0495 -0.4568
 6764W        W81752  11.156  24.001  22.681 -0.0666 -0.0354 -0.0509
 6765W        W81753   8.492   6.656   3.758 -0.2292 -0.1702 -0.0343
 6766W        W81754  14.153   6.388  20.286 -0.2370  0.2035 -0.3560
 6767W        W81755   8.885  17.055  25.254 -0.1399  0.2159  0.5458
 6768W        W81756  17.864   6.226  11.485 -0.1532  0.1070  0.2061
 6769W        W81757   7.058  35.028   0.421 -0.0211  0.2139  0.0929
 6770W        W81758  34.559  14.770  23.275 -0.1206  0.0562  0.0132
 6771W        W81759  27.887  16.641  22.883 -0.0469 -0.0755  0.3628
 6772W        W81760  35.180  29.591  18.585  0.4301 -0.0088  0.1604
 6773W        W81761   5.870  26.643   3.466 -0.0353 -0.3103  0.3630
 6774W        W81762  32.298  32.297  18.483  0.2197  0.0774 -0.0712
 6775W        W81763   8.799  23.272   0.154 -0.1987  0.1800 -0.1678
 6776W        W81764  28.350  24.692   1.613  0.0102  0.0154 -0.2609
 6777W        W81765   5.520   2.237   3.918  0.1175 -0.3170 -0.2156
 6778W        W81766  15.991  11.326  13.694 -0.0763  0.0409  0.2424
 6779W        W81767  19.611  35.311  23.295 -0.0451  0.4784 -0.1356
 6780W        W81768   8.716   6.124  24.114  0.2547 -0.2227 -0.0154
 6781W        W81769   3.116  29.972  24.915  0.0299 -0.3112  0.2171
 6782W        W81770   2.254  25.554   2.931  0.1374  0.0031  0.0379
 6783W        W81771  30.658  32.705  23.050  0.2479 -0.2734 -0.3202
 6784W        W81772  32.619  23.497  20.720  0.1225  0.1209 -0.1825
 6785W        W81773  22.131   2.492   3.575 -0.0455  0.0485 -0.4768
 6786W        W81774   5.545  17.063   0.313  0.6542 -0.0435 -0.1197
 6787W        W81775  15.191  19.025   1.540 -0.0975 -0.0343  0.2698
 6788W        W81776  11.117  20.413  10.839  0.2471 -0.1221 -0.1785
 6789W        W81777  22.826  18.137  15.064 -0.0071  0.1108  0.2742
 6790W        W81778  13.096  24.733  23.468 -0.1973  0.1911 -0.4097
 6791W        W81779   4.625   6.569   6.302  0.0771  0.1054 -0.0995
 6792W        W81780  18.261  33.113  18.651 -0.1248 -0.1693 -0.3896
 6793W        W81781  16.498  19.672  11.261  0.0141  0.0303  0.0861
 6794W        W81782  33.505  24.631  14.431  0.1033 -0.1605 -0.0243
 6795W        W81783  11.303  27.201  12.934 -0.2545 -0.0038 -0.0678
 6796W        W81784  32.273   5.927  25.631  0.0870 -0.0533  0.2669
 6797W        W81785   2.830  25.818  23.085 -0.0932 -0.2328 -0.1145
 6798W        W81786  12.364  10.910   3.215 -0.1746 -0.1487 -0.1042
 6799W        W81787  32.272  31.911  17.599 -0.1841  0.1289 -0.1156
 6800W        W81788   0.128  23.235   0.952 -0.0420  0.1172 -0.0570
 6801W        W81789  20.686  24.123   6.906 -0.0047  0.1597  0.0143
 6802W        W81790  18.767   4.603   5.233 -0.0529  0.0483  0.2673
 6803W        W81791  33.578  13.565  18.128  0.0966  0.0187 -0.0360
 6804W        W81792  10.660  16.610  21.714  0.0626 -0.0974 -0.1764
 6805W        W81793  22.696   8.220  14.945 -0.0153 -0.2890 -0.0699
 6806W        W81794  19.538  20.592  10.816  0.2289 -0.2119 -0.2627
 6807W        W81795  16.008   2.100  23.277  0.2710 -0.0646  0.0300
 6808W        W81796  12.353   7.591  14.308 -0.1061 -0.0844  0.3235
 6809W        W81797   2.169  30.644  21.628 -0.1161 -0.1015 -0.0495
 6810W        W81798  35.058  34.810   0.148 -0.0819 -0.0845  0.4477
 6811W        W81799  19.561   8.502   8.086  0.0627  0.1704 -0.1482
 6812W        W81800  24.106  22.986  13.194  0.0965 -0.2430  0.0771
 6813W        W81801  23.098  27.018  15.087 -0.3792 -0.0752  0.3748
 6814W        W81802  29.041  34.702  13.765  0.2294  0.0868 -0.1489
 6815W        W81803  30.031  13.854   0.348 -0.0910  0.0263 -0.0514
 6816W        W81804  20.522  11.665  18.528 -0.2051  0.4618  0.0988
 6817W        W81805   1.766   9.973  18.333 -0.1638  0.1112  0.0664
 6818W        W81806  35.309  11.569   2.142  0.1730  0.3913  0.2462
 6819W        W81807  23.557  20.585  20.865  0.0775 -0.0768 -0.0886
 6820W        W81808  13.604  29.311   8.623 -0.1762  0.1179  0.0442
 6821W        W81809  18.272  13.477   1.535 -0.1618 -0.3300  0.0841
 6822W        W81810  26.225   2.522  20.650  0.0697  0.0330  0.0865
 6823W        W81811   9.790   6.973  24.338  0.2709  0.2773 -0.5483
 6824W        W81812  24.624  22.961  24.569 -0.0588  0.0994 -0.1463
 6825W        W81813  26.861  13.470  18.269  0.1351  0.0171  0.2024
 6826W        W81814  12.327  28.463  25.032  0.0196 -0.0062  0.0803
 6827W        W81815   8.040  12.205  25.372  0.0357  0.2071  0.0926
 6828W        W81816  23.166  29.547  17.860 -0.1176 -0.1312 -0.0557
 6829W        W81817  14.720  11.221  11.963  0.0361 -0.1270 -0.1056
 6830W        W81818   4.265  27.662   5.834  0.0869  0.2412 -0.1402
 6831W        W81819   9.383   8.050  13.803 -0.0996  0.0666  0.2126
 6832W        W81820  28.825  33.957  18.047 -0.0884  0.1078  0.4246
 6833W        W81821  34.692  26.845   2.213 -0.1397  0.1166 -0.0085
 6834W        W81822   3.124  35.286  20.791  0.0973  0.1442 -0.3682
 6835W        W81823  14.839   2.867  10.515 -0.0925 -0.1297  0.0048
 6836W        W81824  12.003  23.615   0.295  0.0637  0.1721  0.2235
 6837W        W81825  13.184  27.040   1.671  0.0179 -0.1330  0.2395
 6838W        W81826  22.653   7.023  16.613 -0.1282  0.1971 -0.4246
 6839W        W81827  20.603  25.173  24.992 -0.2382 -0.3017  0.1730
 6840W        W81828  12.585  14.712  22.901 -0.0598  0.0740  0.0925
 6841W        W81829   2.348  27.899   1.506  0.0276  0.1622  0.1368
 6842W        W81830  31.959  20.378  16.476  0.1757 -0.0244 -0.0160
 6843W        W81831  15.037   7.752   3.422 -0.0238 -0.0317 -0.3431
 6844W        W81832  31.941  22.004   9.753  0.0168  0.0311  0.2067
 6845W        W81833  17.646  29.259   1.020  0.0281  0.0827 -0.2044
 6846W        W81834  16.194  34.172  23.931  0.1295  0.1022  0.0020
 6847W        W81835  17.214  11.429   0.617 -0.0253 -0.0825 -0.2325
 6848W        W81836  17.051  13.006   9.667  0.0092  0.0116 -0.1611
 6849W        W81837  23.839   7.962   5.248  0.0380  0.4490  0.1958
 6850W        W81838  16.940   8.372  20.624  0.0935 -0.2226 -0.1670
 6851W        W81839   3.688   6.188  16.919  0.1571 -0.0994 -0.0230
 6852W        W81840  34.086  12.620  16.260 -0.1122 -0.1181  0.1822
 6853W        W81841  24.655   9.810  17.453  0.0478  0.0393 -0.0421
 6854W        W81842   0.172  19.542  20.722 -0.0008 -0.3093  0.2079
 6855W        W81843  11.053  13.515  21.906 -0.0246 -0.0070  0.3962
 6856W        W81844   7.358  10.321  17.749 -0.2692 -0.0306 -0.0933
 6857W        W81845  11.176   7.613   8.797 -0.2479 -0.2705  0.2016
 6858W        W81846  24.974  30.791  21.631 -0.1523 -0.0470  0.1616
 6859W        W81847  27.547  19.489  15.264 -0.1339  0.2855 -0.0276
 6860W        W81848   1.093  25.779   4.205 -0.1799 -0.0652  0.4283
 6861W        W81849  23.784  23.381  14.688 -0.2159  0.1650 -0.0622
 6862W        W81850  17.775   5.088   0.901  0.2050  0.0444 -0.0849
 6863W        W81851  26.365  28.801   0.582  0.0980 -0.0038 -0.1549
 6864W        W81852  19.245  31.775  22.321  0.0704 -0.5710 -0.0363
 6865W        W81853  34.269  19.887  15.512  0.2036 -0.0195 -0.1241
 6866W        W81854  18.327  14.846  12.404 -0.0092  0.2401  0.1202
 6867W        W81855  29.912   3.659  18.354 -0.0899 -0.0338  0.0444
 6868W        W81856  27.342  22.145   8.829  0.0848  0.3284 -0.2302
 6869W        W81857  34.652   4.367   5.198  0.2105 -0.3608 -0.2461
 6870W        W81858  30.754  17.014  24.364 -0.1092  0.1068 -0.0108
 6871W        W81859   1.839  29.949   7.061  0.0571 -0.1140 -0.0570
 6872W        W81860  21.449  30.066  21.514 -0.2278  0.1431  0.1009
 6873W        W81861   9.536  14.858   9.430 -0.2130 -0.1147 -0.0888
 6874W        W81862  32.400   9.703  23.758  0.1863  0.3533 -0.0775
 6875W        W81863   9.091  24.021  15.342 -0.2952 -0.0865  0.0691
 6876W        W81864  23.519  25.332   3.569  0.0734  0.2561 -0.1180
 6877W        W81865  26.455   6.512  22.694 -0.1804  0.3743  0.2609
 6878W        W81866   2.491  29.643  22.024  0.1084  0.1774 -0.1819
 6879W        W81867  23.979  16.054   0.191  0.0013  0.2468  0.1307
 6880W        W81868  22.805  16.814   2.766 -0.1608  0.0296  0.2107
 6881W        W81869   1.215   5.244  23.366  0.4896 -0.2747 -0.2046
 6882W        W81870  13.473  20.826  23.216 -0.0926 -0.1220  0.0042
 6883W        W81871  13.276   5.290  18.771  0.3270 -0.1109  0.1940
 6884W        W81872  21.727  24.338  23.849  0.3648 -0.2317 -0.2670
 6885W        W81873  21.405   8.556   0.103  0.0582  0.2219  0.1241
 6886W        W81874  17.993   4.459  20.234 -0.0315  0.1469 -0.2003
 6887W        W81875   0.218  25.466   0.620  0.2074  0.0485 -0.0001
 6888W        W81876  25.512  21.413   9.498 -0.2828  0.0064 -0.1362
 6889W        W81877  34.596  13.067  19.849  0.3136  0.2419  0.0464
 6890W        W81878   5.577  23.086   5.747 -0.0130  0.3912  0.1206
 6891W        W81879  29.453  11.791  14.620 -0.1549  0.2011 -0.2958
 6892W        W81880   0.100  31.564  15.139  0.2782 -0.0574 -0.1761
 6893W        W81881  18.071  31.959   0.844 -0.1787 -0.0551 -0.1725
 6894W        W81882   0.399   6.717  16.301 -0.2876  0.0575 -0.0661
 6895W        W81883  34.074  31.899  18.507  0.3182  0.0358  0.1406
 6896W        W81884  19.090  14.445   2.020  0.0788  0.1141  0.2491
 6897W        W81885  33.050  19.919  18.545 -0.3747  0.2699  0.1038
 6898W        W81886   7.937  27.385   1.935  0.1617 -0.2346 -0.2641
 6899W        W81887  19.872  29.059   6.432 -0.0131  0.0362  0.2349
 6900W        W81888   1.416   1.422  17.698 -0.2076  0.3477 -0.1627
 6901W        W81889   5.476  13.649  23.016 -0.4156  0.0404  0.1329
 6902W        W81890   9.733  14.105  19.481 -0.2741  0.0796  0.1338
 6903W        W81891   4.930  32.498  21.887  0.0130 -0.2002 -0.0508
 6904W        W81892  33.706   5.496  16.786  0.0497  0.3407  0.0559
 6905W        W81893   9.411   1.527  24.253  0.0150  0.3221  0.1316
 6906W        W81894  32.393  29.589  15.460 -0.0616  0.3769  0.2172
 6907W        W81895   0.783  13.513   2.519 -0.1111  0.0332 -0.1725
 6908W        W81896  25.754  34.525   2.426  0.2466  0.0785 -0.1153
 6909W        W81897   2.553  20.185  16.870 -0.1347 -0.0600 -0.1245
 6910W        W81898  23.095   6.924  23.576 -0.0836  0.0797  0.1038
 6911W        W81899  11.052   1.237  24.940 -0.3028  0.1126 -0.2998
 6912W        W81900  33.214  12.729   0.105  0.4594 -0.0131  0.2511
 6913W        W81901  23.107   2.905   4.322  0.0544  0.0324 -0.1977
 6914W        W81902  14.882   8.551  13.161  0.2867  0.1593 -0.0797
 6915W        W81903  23.860  19.581  19.143  0.0209 -0.0169 -0.0088
 6916W        W81904  20.548  22.840  18.863  0.2538 -0.3555 -0.0330
 6917W        W81905   8.947  34.842   7.180  0.0842  0.0365 -0.1486
 6918W        W81906  15.553   1.142  10.727  0.1436  0.1891  0.4009
 6919W        W81907  20.544   3.582  19.071 -0.2464  0.1242 -0.0156
 6920W        W81908  19.506  14.984   5.424  0.0974 -0.1218  0.1504
 6921W        W81909   2.260  32.990  22.599  0.1772 -0.0590 -0.3417
 6922W        W81910  34.012  13.247  21.431  0.1176  0.2330 -0.2717
 6923W        W81911  13.587  14.980  19.850 -0.0741 -0.1119  0.0963
 6924W        W81912  10.513  10.093   7.218  0.2046 -0.2655 -0.2552
 6925W        W81913  21.476   1.217   3.078 -0.4577  0.0141 -0.2498
 6926W        W81914   2.296  22.971  17.225 -0.0345  0.1607  0.3257
 6927W        W81915   5.341  34.174  13.071 -0.0853  0.0132  0.0007
 6928W        W81916  32.308  33.212  23.189 -0.1602  0.0857 -0.2286
 6929W        W81917  25.719  35.267  20.420  0.2410  0.1747 -0.0396
 6930W        W81918  14.354  12.684   7.349  0.0804  0.1109  0.1868
 6931W        W81919  24.324  18.918  14.022 -0.0193 -0.2939  0.0473
 6932W        W81920  33.344   7.711  11.608 -0.2046 -0.3318  0.2316
 6933W        W81921  12.979  32.526   6.975 -0.0947 -0.1960 -0.3017
 6934W        W81922  11.741  10.888   4.979  0.1421 -0.1921  0.0951
 6935W        W81923  24.784  27.161  18.626 -0.0321  0.0803 -0.0410
 6936W        W81924  28.981  24.475  16.271 -0.0866  0.1754 -0.1257
 6937W        W81925  33.525   6.832  14.506  0.0788  0.0017 -0.0081
 6938W        W81926   3.345  35.242   0.476 -0.0289 -0.0304 -0.1209
 6939W        W81927  13.577  14.995   2.350 -0.1675 -0.0630 -0.1006
 6940W        W81928  16.600  22.530  26.206 -0.0027  0.2626  0.1769
 6941W        W81929  16.165   8.241  12.552  0.1680  0.2554  0.2364
 6942W        W81930   0.471   2.187  16.046 -0.0412 -0.0396 -0.2691
 6943W        W81931  24.633  33.314  22.005 -0.1536  0.2051  0.0759
 6944W        W81932  29.808   6.524  20.106  0.0707 -0.1067  0.0304
 6945W        W81933  29.975   6.600   1.889 -0.1707  0.1455 -0.0414
 6946W        W81934   8.184  24.896  24.848  0.0699  0.4062 -0.0593
 6947W        W81935  10.856   8.075  20.344 -0.0989 -0.0421  0.0319
 6948W        W81936  17.631  28.400  21.902  0.1665 -0.0096 -0.3209
 6949W        W81937   1.427  24.503  22.251 -0.1356  0.3218  0.1805
 6950W        W81938  32.364  17.051  26.083 -0.2113 -0.0343  0.5456
 6951W        W81939   7.938   7.865   6.087  0.1622 -0.3838 -0.1089
 6952W        W81940  18.248   5.910   8.499 -0.3107 -0.0268  0.1395
 6953W        W81941  20.209  16.305   0.644 -0.2303 -0.3308 -0.0037
 6954W        W81942  29.949  32.300  11.865 -0.0539  0.1673  0.1675
 6955W        W81943   0.379  10.512  15.638  0.0709 -0.1029 -0.2190
 6956W        W81944  17.350   9.084   4.094  0.2603 -0.0746  0.1524
 6957W        W81945  20.167  13.796   5.430  0.0000  0.1145 -0.0326
 6958W        W81946  15.381   8.293   5.532  0.0140  0.0537  0.0379
 6959W        W81947   0.266   1.046   1.972 -0.2911  0.1851 -0.0377
 6960W        W81948  13.039  16.663  21.467 -0.0660  0.1210 -0.2208
 6961W        W81949  15.333  13.532   3.501 -0.1213 -0.0401  0.0001
 6962W        W81950  10.704  11.883  10.255 -0.2444 -0.0925  0.0370
 6963W        W81951  24.912   8.992  12.168  0.0774 -0.0542  0.0201
 6964W        W81952   8.822  21.221  23.624 -0.0071  0.0680  0.0468
 6965W        W81953  18.355   6.367   4.500 -0.0998  0.1489 -0.2290
 6966W        W81954  26.245  35.076  12.233  0.1149  0.0077  0.3475
 6967W        W81955  10.420  22.795  24.331  0.1626 -0.1959  0.0064
 6968W        W81956   2.601  23.603  22.430  0.0896 -0.2814  0.2243
 6969W        W81957  17.432   8.440  11.865 -0.1431 -0.0845 -0.0983
 6970W        W81958  33.826  34.503   7.315  0.0390  0.1303 -0.0248
 6971W        W81959   3.464   5.690   6.236 -0.1509  0.5056 -0.5005
 6972W        W81960   3.984  33.212  21.407 -0.0510  0.1473 -0.2132
 6973W        W81961  23.389  18.800  19.100  0.0257 -0.1312  0.0639
 6974W        W81962  22.327  11.296   3.598  0.0566 -0.1969  0.1278
 6975W        W81963   6.599   8.840   5.425 -0.0932  0.1460 -0.3080
 6976W        W81964  34.730  26.345   0.182 -0.0238 -0.1127 -0.3389
 6977W        W81965  26.930  21.946   7.607 -0.0622  0.0996 -0.0541
 6978W        W81966  33.530  13.120   0.038  0.0602 -0.2185 -0.0132
 6979W        W81967  20.872   4.403  21.763  0.0549  0.0232  0.3486
 6980W        W81968   9.929   2.323  25.867 -0.3728 -0.0250  0.1592
 6981W        W81969  34.838  28.324  17.639 -0.0730 -0.1284  0.1373
 6982W        W81970  34.476  35.333  25.225 -0.0247  0.3288 -0.1838
 6983W        W81971   5.619   2.219   1.116 -0.0486  0.0558  0.3297
 6984W        W81972  31.931   5.182   2.242 -0.0381 -0.0565  0.0691
 6985W        W81973  11.800  22.412  26.038 -0.4691  0.3732  0.0026
 6986W        W81974   1.882  29.713   0.280 -0.0686 -0.0677 -0.5472
 6987W        W81975   6.407   2.312   7.030  0.1006  0.3325  0.0811
 6988W        W81976  27.076  20.219  16.626 -0.2792  0.0972 -0.0004
 6989W        W81977  25.289   4.195  19.985  0.0142 -0.1542 -0.0511
 6990W        W81978  10.537  14.832  11.144 -0.4733 -0.0958  0.0192
 6991W        W81979  18.264   8.102  18.530 -0.1032  0.0798  0.0277
 6992W        W81980   9.602  14.348  10.416 -0.0698 -0.0443  0.0978
 6993W        W81981   8.931  13.528  18.259  0.0064 -0.1545 -0.1108
 6994W        W81982  32.705  24.298  21.029 -0.0073  0.1530  0.0466
 6995W        W81983  18.682   4.201  21.113  0.0856  0.0299  0.2471
 6996W        W81984  15.782  28.986   7.356 -0.0904  0.1840 -0.0661
 6997W        W81985   3.665   5.928   2.729 -0.2103  0.1584 -0.1232
 6998W        W81986  11.426  28.946  22.655 -0.1034  0.2730  0.1479
 6999W        W81987  27.045  31.204  18.068  0.1664  0.0510  0.1212
 7000W        W81988  31.955  18.554  20.114  0.1717 -0.0502 -0.4246
 7001W        W81989   9.459  12.067  22.696 -0.2128  0.1492 -0.0080
 7002W        W81990  21.288  27.267  17.094  0.1463 -0.1497  0.0667
 7003W        W81991   5.454   1.606   7.495 -0.2690 -0.2461 -0.2398
 7004W        W81992   6.303  23.235   3.183 -0.0665  0.1364 -0.1201
 7005W        W81993   6.700  14.773   9.769  0.0260  0.1716  0.1842
 7006W        W81994   2.715  22.970  16.145  0.2188 -0.1884  0.2007
 7007W        W81995  33.067  29.483  22.569 -0.1569 -0.2329 -0.1414
 7008W        W81996  10.483  10.920   8.567  0.2879 -0.2457 -0.1926
 7009W        W81997  20.773  11.882  18.938 -0.2168 -0.1308  0.1247
 7010W        W81998  32.974  34.172   5.460 -0.0294  0.2381  0.0270
 7011W        W81999  20.595  30.661  17.377  0.4544  0.1604  0.2086
 7012W        W82000  18.796  14.596  10.578  0.0552  0.0076 -0.3392
 7013W        W82001   1.193  18.078  22.678 -0.2480  0.1255 -0.2931
 7014W        W82002  29.326   3.462  18.928  0.0616  0.3163  0.3814
 7015W        W82003  10.356  17.412   0.459 -0.2952 -0.0600  0.1629
 7016W        W82004  21.122  31.307   5.391 -0.2039 -0.1303  0.1277
 7017W        W82005   6.354  26.282   7.288 -0.1082 -0.0167 -0.3986
 7018W        W82006   6.287   9.849   4.304 -0.1996  0.0503 -0.0252
 7019W        W82007  27.059   0.353  25.081  0.0084 -0.0176  0.1347
 7020W        W82008  31.535   3.547  16.499 -0.4415  0.1102  0.2010
 7021W        W82009  10.524   8.753  13.232 -0.1299 -0.1142  0.0742
 7022W        W82010  23.719  30.834   3.732 -0.1794 -0.1092 -0.0337
 7023W        W82011   9.251  30.192   1.502  0.2383 -0.0202 -0.3389
 7024W        W82012  26.542  10.834  17.523 -0.3068 -0.1631  0.0382
 7025W        W82013  18.519  15.582   0.214  0.2327 -0.0401  0.2585
 7026W        W82014  29.697  11.543  18.873 -0.0537  0.1459 -0.0718
 7027W        W82015  35.170   3.727  14.368  0.0335  0.2217  0.0031
 7028W        W82016  30.325  11.417   7.635 -0.2470  0.3404 -0.0820
 7029W        W82017  25.529  23.199   0.152 -0.0485  0.0735  0.0440
 7030W        W82018  16.589  23.164  24.555 -0.0491  0.0700  0.0759
 7031W        W82019  25.626  21.812  13.258 -0.2914  0.2462 -0.1433
 7032W        W82020  14.929  14.983   0.881  0.0338  0.0664  0.0583
 7033W        W82021   7.091  17.010  23.361  0.0759  0.2852 -0.0993
 7034W        W82022   9.843  27.644   4.948 -0.1392  0.3062 -0.0904
 7035W        W82023   5.362  25.239  22.954  0.0250 -0.1106 -0.2791
 7036W        W82024  28.665  26.487  12.323 -0.3307  0.0691 -0.0012
 7037W        W82025   6.067  17.904  20.567 -0.2484 -0.2704 -0.0350
 7038W        W82026   3.816  30.363   7.048  0.0111 -0.0885 -0.0786
 7039W        W82027  32.630   2.920  17.494  0.0353 -0.0816 -0.2082
 7040W        W82028  31.742   2.461  13.344  0.3353 -0.2372  0.0511
 7041W        W82029  15.404  33.991  22.257 -0.2975  0.1126 -0.3025
 7042W        W82030  23.081  16.067  19.868  0.2217 -0.0696 -0.1713
 7043W        W82031  33.153  20.660   5.889 -0.1455  0.0878 -0.1075
 7044W        W82032   9.646  29.268  24.762 -0.1608 -0.0865  0.0888
 7045W        W82033  29.667  23.749  25.998 -0.1996  0.0661  0.0005
 7046W        W82034  31.730  30.902  20.009 -0.0015 -0.1911 -0.0833
 7047W        W82035  10.408   6.905  14.040  0.3240 -0.1137 -0.1082
 7048W        W82036  17.352   3.597   6.059 -0.1575 -0.0631 -0.2595
 7049W        W82037   3.788  20.440   4.615 -0.0972 -0.2465 -0.0024
 7050W        W82038   8.674  32.051  24.685 -0.4153  0.1513  0.2453
 7051W        W82039  31.484  35.055   3.546  0.0623  0.0583  0.1730
 7052W        W82040  13.044  29.793   5.253  0.4199  0.1945  0.1300
 7053W        W82041  31.402   5.459   3.606 -0.1562  0.2929  0.0169
 7054W        W82042  21.966   6.769   6.993  0.0662  0.1448 -0.0962
 7055W        W82043   1.250  25.088  18.880 -0.0411  0.4221 -0.2334
 7056W        W82044  22.946   5.846   3.599  0.3190 -0.0067  0.0583
 7057W        W82045  29.144  34.948  23.212 -0.4325  0.3232 -0.2836
 7058W        W82046  12.652  10.650  13.163 -0.1361  0.2582  0.1486
 7059W        W82047   9.482   9.882  21.719 -0.2982  0.0039 -0.1787
 7060W        W82048  20.090  10.859  20.806 -0.1853  0.2385 -0.0595
 7061W        W82049  26.760  14.869  17.192  0.2043 -0.1870 -0.1147
 7062W        W82050  33.297   4.788   0.300 -0.2844 -0.3554  0.1882
 7063W        W82051  18.454  11.884   4.851  0.0046 -0.0920 -0.0820
 7064W        W82052  16.541  24.943  12.102  0.1255 -0.3389 -0.0135
 7065W        W82053  33.949  25.427  12.338  0.0289 -0.1878 -0.0608
 7066W        W82054  21.889   8.366  25.451  0.0170 -0.0572  0.0040
 7067W        W82055  21.362  33.943  18.707 -0.0295 -0.1041  0.0518
 7068W        W82056  20.758  21.304   0.948 -0.3162  0.2333  0.2737
 7069W        W82057  33.396   6.241  12.902 -0.0826 -0.0695  0.2005
 7070W        W82058   1.443  33.337  24.278  0.1543  0.0006  0.0283
 7071W        W82059  12.815  16.840  23.757  0.1296 -0.0643  0.2746
 7072W        W82060   4.135   9.094  20.815  0.0962 -0.0600 -0.2112
 7073W        W82061  26.144   2.821  13.359  0.3599  0.3896 -0.0794
 7074W        W82062   3.139   6.003  23.810 -0.0345  0.0587 -0.1706
 7075W        W82063  15.472   7.022   6.071 -0.2757  0.1215 -0.1479
 7076W        W82064  28.848  19.940   6.930 -0.0746  0.1145 -0.1261
 7077W        W82065  13.155  35.232   1.550  0.0781 -0.1722  0.2408
 7078W        W82066   2.888  22.941  20.929  0.1344 -0.0840  0.0799
 7079W        W82067   1.111  29.838   7.905  0.1619  0.0718 -0.1910
 7080W        W82068  26.480  16.972  20.547 -0.3557 -0.2379 -0.2874
 7081W        W82069   0.944  25.171  25.144  0.0758 -0.0438 -0.0409
 7082W        W82070  29.284  29.012   0.053  0.0528  0.1572  0.0163
 7083W        W82071   6.198   8.223   9.744  0.0154 -0.0336 -0.0566
 7084W        W82072  28.390   1.694  22.357 -0.1147  0.4497  0.5009
 7085W        W82073  16.140  30.999  25.312 -0.0384 -0.1235  0.1563
 7086W        W82074   5.571   5.717  18.488  0.0292 -0.3819  0.2517
 7087W        W82075   8.745  25.717  23.638 -0.1251  0.0185 -0.1387
 7088W        W82076  25.916   3.469  22.007 -0.0006 -0.3195  0.0643
 7089W        W82077  30.622   0.062   4.168 -0.1560  0.0995 -0.1375
 7090W        W82078  23.319   6.208   6.858 -0.0400 -0.1296  0.1224
 7091W        W82079  14.719  21.738  10.363  0.0181  0.0838  0.1035
 7092W        W82080   3.934   4.137   8.166 -0.4818  0.1600  0.0151
 7093W        W82081   0.563  27.045  20.156 -0.2685 -0.2107  0.2277
 7094W        W82082  29.310  17.674   6.610  0.1675  0.0756 -0.0102
 7095W        W82083   6.738  33.456   7.539  0.0155  0.0088  0.0501
 7096W        W82084   8.430  24.738   6.633  0.1454  0.0511  0.2261
 7097W        W82085  13.811  22.387   6.201  0.0209 -0.1031  0.2995
 7098W        W82086  13.242  34.820  10.202 -0.0807  0.5319 -0.1116
 7099W        W82087   0.930  34.814   8.855 -0.3033  0.0087 -0.1406
 7100W        W82088  26.336  11.618  17.037 -0.1444  0.2619  0.1178
 7101W        W82089  14.205  12.952   1.074  0.1211 -0.0213 -0.2561
 7102W        W82090  21.509   4.166  25.997  0.0303 -0.0472  0.2384
 7103W        W82091   4.393   7.824  19.511  0.0440  0.2703 -0.0016
 7104W        W82092  31.365   3.440  24.959 -0.4711 -0.0660 -0.2452
 7105W        W82093  34.418   0.410   1.791  0.1931  0.1920  0.0762
 7106W        W82094   0.784  19.833   0.759 -0.3378  0.1056 -0.0913
 7107W        W82095  14.631  34.974   4.743  0.0983 -0.1132 -0.0780
 7108W        W82096  21.475  20.570  23.016  0.2207 -0.1535 -0.1669
 7109W        W82097  19.926   4.885   6.094  0.0572  0.2450 -0.1057
 7110W        W82098  33.202  28.007   2.681  0.3300  0.2686 -0.1217
 7111W        W82099  14.287   3.148   9.440  0.1087  0.0684 -0.1124
 7112W        W82100  10.762  22.531  25.425  0.0247 -0.3353  0.1365
 7113W        W82101  28.984  23.215  25.628 -0.1382 -0.0524  0.2854
 7114W        W82102   1.408  18.377  12.758  0.0397  0.0582  0.2476
 7115W        W82103  20.379   0.059  25.381 -0.1215  0.2646  0.2872
 7116W        W82104  30.895  32.533  20.489 -0.2560  0.0292 -0.1076
 7117W        W82105  14.479   9.027  12.386 -0.1494  0.2797 -0.1171
 7118W        W82106  30.349  33.430   1.981  0.0273  0.1580  0.2617
 7119W        W82107  31.193  33.770  24.384 -0.0985 -0.2786  0.0307
 7120W        W82108  27.836   2.048  18.311  0.2417  0.1292 -0.0012
 7121W        W82109  32.623  21.404  11.285  0.2731  0.2689 -0.1450
 7122W        W82110  30.981  24.663  17.505 -0.0366  0.0235 -0.0783
 7123W        W82111   7.885   5.715   4.928 -0.2777 -0.3271  0.1671
 7124W        W82112  33.233   3.938   3.123  0.2496 -0.0847 -0.0037
 7125W        W82113  11.376  10.655  11.470  0.1809 -0.1776 -0.1438
 7126W        W82114  28.696   2.037  17.091 -0.0270 -0.1438  0.2204
 7127W        W82115  31.613  16.530  23.477 -0.0366 -0.1361  0.1847
 7128W        W82116  24.929  26.119  23.781  0.2698  0.3187  0.0426
 7129W        W82117  13.682   0.167  10.132  0.3152  0.2967 -0.1697
 7130W        W82118  11.699  31.757   1.971 -0.0863 -0.1336 -0.0302
 7131W        W82119  19.421   6.198   5.314  0.4418 -0.0712 -0.0653
 7132W        W82120   3.075  24.753   0.123  0.1195 -0.0785  0.1627
 7133W        W82121   1.579  24.766  17.428  0.1687  0.3390  0.1246
 7134W        W82122   6.668   7.063  11.280  0.0485  0.1301  0.0578
 7135W        W82123  17.619  32.081   2.009 -0.1610  0.3044  0.1289
 7136W        W82124   0.182  20.576  14.847  0.0521 -0.0298  0.0675
 7137W        W82125  27.779   4.792  13.264 -0.1668 -0.0987  0.3541
 7138W        W82126  30.597  15.255  15.652  0.1745 -0.3068  0.1769
 7139W        W82127  11.184  15.548  19.210 -0.1711 -0.0917 -0.2560
 7140W        W82128   1.659  13.694  22.665  0.0062  0.1000 -0.0367
 7141W        W82129  17.101   2.852  11.391 -0.3119  0.1917 -0.4321
 7142W        W82130  29.627  28.801  15.263  0.3962 -0.1937 -0.2945
 7143W        W82131   1.373  30.030   9.747 -0.0662  0.1329  0.0547
 7144W        W82132  34.329   5.880  17.480  0.3314 -0.1283  0.1562
 7145W        W82133   0.089  19.716   1.224  0.1106 -0.0064 -0.0002
 7146W        W82134  29.563  17.400  18.302  0.1414  0.0234 -0.0561
 7147W        W82135   1.068   6.606  13.327  0.1387 -0.1121 -0.0483
 7148W        W82136  12.899  21.917   0.619 -0.0506 -0.1456 -0.1634
 7149W        W82137  17.475   1.507   9.361  0.3786 -0.1838  0.0054
 7150W        W82138   2.983   6.177  15.737 -0.0655 -0.0689 -0.1466
 7151W        W82139  12.751  11.913  19.581 -0.0326 -0.0642  0.2089
 7152W        W82140  14.679   9.716  11.729  0.2904 -0.1322  0.0359
 7153W        W82141  19.562  28.864   7.792 -0.0174  0.1788 -0.4623
 7154W        W82142   2.900  21.220  16.645  0.1582  0.2123 -0.3832
 7155W        W82143  28.801  30.674  25.972  0.0202  0.0389  0.4276
 7156W        W82144  16.002   1.986  21.095 -0.0028 -0.2382 -0.2561
 7157W        W82145  14.115  35.011  10.654 -0.1698  0.0102  0.0643
 7158W        W82146  20.133   0.281  24.599 -0.0073 -0.2018  0.2803
 7159W        W82147   3.548  14.758   2.769  0.1994  0.1087 -0.1254
 7160W        W82148  30.347  22.179  15.784  0.1386  0.4898 -0.1812
 7161W        W82149   1.682  10.590  25.289 -0.4835 -0.2504  0.1418
 7162W        W82150  30.870  13.353   7.788 -0.1745 -0.0782 -0.3053
 7163W        W82151   6.910  28.357   2.005 -0.0069 -0.0357 -0.0371
 7164W        W82152  20.045   5.186   5.143  0.0504  0.0492  0.4654
 7165W        W82153  32.032  12.106  19.322  0.1376 -0.0985 -0.1033
 7166W        W82154   4.194  11.995   0.994 -0.1971  0.2458  0.1220
 7167W        W82155  13.043   3.334  26.202 -0.2177 -0.1158  0.0285
 7168W        W82156  14.975  18.640  20.857 -0.2385  0.0022 -0.0467
 7169W        W82157   0.775  25.542  17.650  0.1041  0.0673  0.2580
 7170W        W82158  10.295  24.887   6.223  0.1245 -0.2534  0.4505
 7171W        W82159  29.012  31.131  21.980  0.2879 -0.0678 -0.0668
 7172W        W82160  20.761  28.040  17.338 -0.2628  0.2778  0.0452
 7173W        W82161   9.187  31.726  22.374 -0.0838 -0.1003 -0.0641
 7174W        W82162  34.134  32.782   3.127 -0.3544  0.0443 -0.2096
 7175W        W82163  32.274  23.752   8.597 -0.0778  0.0605  0.0544
 7176W        W82164  34.509  10.459  16.687  0.1196  0.2955  0.2406
 7177W        W82165  25.443  33.989  21.816  0.3107 -0.0458  0.0483
 7178W        W82166  18.268   5.089  25.809  0.0842 -0.0946 -0.1004
 7179W        W82167  20.605  32.624  20.979  0.2357 -0.1812  0.3528
 7180W        W82168   1.550  20.391  14.174 -0.0452 -0.1557 -0.2117
 7181W        W82169  18.500  32.121  25.576  0.1191 -0.1345  0.1978
 7182W        W82170  18.904  25.322  20.966 -0.0072  0.0862 -0.1917
 7183W        W82171  20.657  29.679   6.010 -0.1836  0.1995  0.3040
 7184W        W82172  22.965   4.058  21.223  0.2185  0.0933  0.1176
 7185W        W82173  13.303  33.004  21.721 -0.1681  0.0920  0.1015
 7186W        W82174  29.346  25.152  16.247 -0.3137 -0.2556  0.2944
 7187W        W82175   9.156   4.048   3.488 -0.1131 -0.1608  0.1276
 7188W        W82176   3.362  16.307  18.065  0.0284  0.0474  0.3133
 7189W        W82177   0.834  27.615   7.595 -0.0545 -0.1378 -0.0117
 7190W        W82178  27.547  26.689  24.687 -0.2873  0.2279  0.1839
 7191W        W82179  11.051  30.026   0.166 -0.3435  0.2352 -0.0610
 7192W        W82180   5.195  18.886   4.423 -0.1714  0.2304 -0.0596
 7193W        W82181  11.408  21.936   4.361 -0.0410 -0.0849 -0.0444
 7194W        W82182  11.568   2.525   0.888  0.0098  0.0491 -0.3297
 7195W        W82183  22.789  12.092  15.661  0.0812 -0.1760 -0.0495
 7196W        W82184   0.591  19.996   9.699 -0.3344  0.0681  0.0475
 7197W        W82185   3.421  34.778   8.417 -0.0840  0.1631  0.0557
 7198W        W82186  15.946  20.334  20.485 -0.0150  0.0123  0.1264
 7199W        W82187   1.873   0.892  24.738  0.1458 -0.3500  0.0686
 7200W        W82188  10.835   7.091   5.498  0.0334 -0.1110  0.0701
 7201W        W82189  16.214  15.432  12.658 -0.0274  0.1818 -0.0765
 7202W        W82190  28.607  30.787  21.720 -0.1963  0.0046  0.2199
 7203W        W82191  21.874   6.317  19.908 -0.1141 -0.0544 -0.0698
 7204W        W82192  24.309  30.038   0.372  0.3688 -0.3800  0.2174
 7205W        W82193  34.841  21.385  11.576  0.1067 -0.0389  0.1942
 7206W        W82194  18.497  12.739  23.644  0.0027  0.2400  0.1808
 7207W        W82195  30.226  30.585  24.207  0.3763 -0.1133  0.1097
 7208W        W82196   7.947  14.665  18.956 -0.2832 -0.3356  0.0030
 7209W        W82197   6.681  18.142  18.937 -0.0324  0.1072  0.2413
 7210W        W82198  27.956  17.980   7.975 -0.0826 -0.0739  0.0494
 7211W        W82199  11.030  15.320   2.548  0.0199  0.0454  0.3551
 7212W        W82200   7.544   4.308  13.818 -0.1096 -0.0555 -0.0979
 7213W        W82201   3.584  14.712   0.341  0.1682  0.2718 -0.0554
 7214W        W82202  18.790  33.498   1.005  0.0448  0.0161 -0.0945
 7215W        W82203   4.034   9.422  20.163  0.3536  0.0071  0.0911
 7216W        W82204  20.053  21.755   1.488 -0.0916  0.2186  0.4976
 7217W        W82205  17.021  16.811  22.309  0.2754 -0.1060  0.1222
 7218W        W82206   3.863  18.942  23.156 -0.1332 -0.1304  0.0116
 7219W        W82207  21.864   0.879  17.743  0.2573  0.2044 -0.1855
 7220W        W82208  15.045  20.545  22.858 -0.0855 -0.0717  0.0648
 7221W        W82209  12.141  30.195  10.997  0.2195  0.0786  0.0945
 7222W        W82210  26.657  13.323   7.394 -0.0465  0.2154 -0.0800
 7223W        W82211  19.036  25.719  22.581  0.0161 -0.0380  0.1025
 7224W        W82212  14.486  35.102  20.167  0.2583 -0.0447 -0.0349
 7225W        W82213   8.152  33.945  26.165  0.4136  0.1667 -0.3032
 7226W        W82214  30.365  24.735   0.058  0.3923  0.3193  0.1007
 7227W        W82215  21.402  12.034  16.406  0.0965 -0.0899 -0.0157
 7228W        W82216  21.454  11.252   3.774 -0.0097 -0.2525 -0.0904
 7229W        W82217   7.112   9.683   8.959  0.4439  0.0478 -0.2881
 7230W        W82218   5.127  26.876   1.672  0.1948  0.0209  0.0290
 7231W        W82219  27.414   2.578  10.685  0.1453 -0.0598  0.2439
 7232W        W82220  17.819  19.306  12.136 -0.1585 -0.0221  0.0958
 7233W        W82221   6.160  24.294  10.515 -0.0537  0.3551 -0.1159
 7234W        W82222  12.662   8.025   3.615 -0.0789  0.0437  0.0656
 7235W        W82223   7.236  16.227   9.943 -0.0367 -0.1638 -0.1222
 7236W        W82224  16.569   6.553  20.730  0.0238  0.1879  0.1073
 7237W        W82225   1.496  16.708  25.226 -0.0142 -0.1067  0.1443
 7238W        W82226   9.585  13.245  23.557 -0.0264 -0.1893  0.1249
 7239W        W82227  22.574  29.824   5.104 -0.1278 -0.0399 -0.0529
 7240W        W82228  25.011  30.924  13.406  0.1618 -0.0706  0.0316
 7241W        W82229  33.059  12.011  13.670  0.0410 -0.2341 -0.0806
 7242W        W82230  33.519  16.964  20.332 -0.0300 -0.1720 -0.4530
 7243W        W82231  27.574  25.766  11.844  0.4062 -0.2604  0.1326
 7244W        W82232  23.913  20.981  17.937 -0.1339  0.0633 -0.0654
 7245W        W82233  32.533  31.766  23.294 -0.3089  0.0247  0.2205
 7246W        W82234   2.443  31.400  19.949  0.3101 -0.1254  0.4107
 7247W        W82235  14.968   1.265  11.272  0.1156  0.1746  0.1227
 7248W        W82236  34.849  23.665  18.079  0.2252  0.1371  0.0284
 7249W        W82237   5.777  16.839   8.833 -0.2237 -0.0101 -0.0524
 7250W        W82238   3.168  18.451   3.475  0.0273  0.1141 -0.2837
 7251W        W82239  34.835  25.284  24.655 -0.0864 -0.0283 -0.0002
 7252W        W82240  30.383   7.549  21.952 -0.0395 -0.0620 -0.3586
 7253W        W82241  15.340  23.823   7.076  0.4197  0.4384 -0.2391
 7254W        W82242  24.450  30.789  11.362 -0.0339 -0.2155  0.1477
 7255W        W82243   2.740  15.858  21.925 -0.0394  0.0487 -0.3271
 7256W        W82244  12.065  35.369  12.325 -0.0088 -0.1428  0.2278
 7257W        W82245  33.906   2.239  21.832  0.2334 -0.1962 -0.1656
 7258W        W82246  12.257  17.464  13.953  0.1216 -0.1399 -0.1340
 7259W        W82247   5.574  28.176   0.692 -0.0323 -0.4378 -0.2500
 7260W        W82248   0.371   9.542  22.270 -0.1540  0.0291  0.0116
 7261W        W82249  31.146  33.145  21.408  0.3004  0.3407  0.1117
 7262W        W82250  29.649   5.461  15.989 -0.2823 -0.0910 -0.2436
 7263W        W82251  34.788  32.716   1.867 -0.2278  0.1245 -0.0648
 7264W        W82252  12.959   6.335  25.814 -0.1304 -0.2023 -0.1701
 7265W        W82253   9.006  28.387   1.338 -0.0491  0.1890 -0.1381
 7266W        W82254   7.761  11.746  21.839  0.1913  0.0522  0.1586
 7267W        W82255  28.683  31.851  13.966 -0.0456  0.1578 -0.1422
 7268W        W82256  21.205   8.404  22.828 -0.0665 -0.1506  0.1918
 7269W        W82257  26.169   0.621   4.026  0.2567 -0.0844 -0.1468
 7270W        W82258  32.487  21.395  12.183 -0.0786  0.0885  0.0317
 7271W        W82259   5.947  11.795   9.066  0.0512  0.0683 -0.1132
 7272W        W82260   0.984  12.690  12.388  0.3691  0.0906 -0.1113
 7273W        W82261  33.368   5.787  13.184 -0.1291 -0.0954 -0.0479
 7274W        W82262   1.172  15.189  11.536 -0.1088  0.1363  0.1092
 7275W        W82263  20.550  31.315  16.920  0.2371 -0.0017  0.1372
 7276W        W82264   2.124  24.786  19.821  0.2318 -0.2791 -0.1729
 7277W        W82265  12.272  10.123  22.778  0.0039 -0.1204 -0.1193
 7278W        W82266   6.014  19.700   3.055  0.1748 -0.2038 -0.0738
 7279W        W82267   7.572  30.855   8.260  0.1464 -0.2274  0.1196
 7280W        W82268  14.684  20.403  11.347 -0.1397  0.1674 -0.0507
 7281W        W82269  29.095  21.120  21.395 -0.0337 -0.2633 -0.0522
 7282W        W82270  25.112   3.506  12.209 -0.3404 -0.3824 -0.0070
 7283W        W82271  11.610   6.274  14.393 -0.2346 -0.3477  0.3688
 7284W        W82272  22.619   3.262   3.584  0.0309  0.0362 -0.3095
 7285W        W82273  30.200  20.620  21.374 -0.0469 -0.0003  0.1295
 7286W        W82274  11.355  31.072   0.905  0.0851 -0.1360 -0.0396
 7287W        W82275   6.277   7.342  10.788  0.1367 -0.2734  0.1709
 7288W        W82276  16.500  17.934  24.684  0.1160 -0.2028  0.1351
 7289W        W82277  15.936  22.325   3.454 -0.2229 -0.2359  0.0176
 7290W        W82278  11.854   8.886  23.029  0.0450 -0.3283 -0.2053
 7291W        W82279   1.628   7.534  25.830  0.1305  0.2540 -0.0662
 7292W        W82280  32.457  12.181  15.829  0.0873  0.2151  0.1080
 7293W        W82281  25.019  18.231   9.341  0.1186  0.1265 -0.0460
 7294W        W82282  22.567  30.426   0.714 -0.1203  0.2208 -0.0362
 7295W        W82283  26.570  29.152  18.986 -0.0303 -0.3444  0.0812
 7296W        W82284  28.369   3.491   4.552 -0.0514  0.1953  0.2229
 7297W        W82285   0.626   1.856   5.342 -0.2641 -0.2037  0.2220
 7298W        W82286  31.030   1.918  17.428  0.1476 -0.1375  0.0999
 7299W        W82287  10.891  10.801  12.785 -0.2568  0.0947  0.1082
 7300W        W82288   7.769  20.662  26.180  0.0176 -0.1741  0.2253
 7301W        W82289  26.592  29.026  10.338  0.0310 -0.0354 -0.3352
 7302W        W82290  32.685  25.187  22.992 -0.0377  0.1920  0.3058
 7303W        W82291  30.083  17.962   6.138  0.1035  0.2300  0.2580
 7304W        W82292   1.969  30.663  22.088  0.0795 -0.1338  0.2368
 7305W        W82293  34.570  18.297   6.296 -0.2103 -0.0768  0.0536
 7306W        W82294   2.675  33.510  20.403  0.1245  0.0112 -0.2083
 7307W        W82295   4.404  19.080  15.696  0.3402  0.0559  0.0221
 7308W        W82296   2.389  31.255   7.208 -0.2865 -0.2829  0.3768
 7309W        W82297  13.172   4.006  20.559  0.1453  0.1501  0.1783
 7310W        W82298   5.827  27.384  10.355  0.0622  0.0205  0.0889
 7311W        W82299  17.132  14.441  22.177  0.1290  0.0997  0.1389
 7312W        W82300  30.324  32.146   0.874 -0.0860 -0.2610 -0.1263
 7313W        W82301   3.692  20.107  14.789  0.2016 -0.0386  0.2465
 7314W        W82302  17.120  24.921  12.899 -0.2729 -0.1232  0.0684
 7315W        W82303  24.777  27.022  24.904  0.1725  0.1355  0.0498
 7316W        W82304  26.902  24.089  12.198 -0.1885 -0.0217 -0.0971
 7317W        W82305  25.269  11.665  16.683 -0.4699 -0.1416 -0.1413
 7318W        W82306  21.505   6.646  22.536  0.1336  0.2104  0.0657
 7319W        W82307  31.531  19.762   8.642 -0.0944  0.1264 -0.0329
 7320W        W82308   8.075  26.635   2.666 -0.1608 -0.1019  0.2971
 7321W        W82309  31.589   4.987   4.723 -0.0309 -0.0463 -0.1379
 7322W        W82310   8.342  25.430  14.945  0.1675  0.2121 -0.1348
 7323W        W82311  32.285  27.224  25.051 -0.2465 -0.0101  0.0488
 7324W        W82312  15.751  17.308  24.349  0.2014 -0.2051  0.1781
 7325W        W82313  25.795   7.298  21.093 -0.0865  0.1203 -0.1373
 7326W        W82314  24.152   3.374  17.976  0.0026  0.0805  0.0861
 7327W        W82315  35.230  22.496  20.496  0.3494  0.0302 -0.0059
 7328W        W82316  29.905  29.571  20.436 -0.1134  0.0096 -0.1558
 7329W        W82317  11.208  29.277  22.316 -0.0922 -0.1404 -0.0963
 7330W        W82318   2.508  14.467  17.635  0.0300  0.0514  0.0212
 7331W        W82319  19.978  12.337   7.129  0.1754  0.1643 -0.1419
 7332W        W82320  33.993  22.682  18.884  0.1160  0.1878  0.0080
 7333W        W82321  32.547  11.027  10.390 -0.0665 -0.0357  0.1205
 7334W        W82322  32.809  29.296  20.305  0.1399  0.2006  0.0511
 7335W        W82323  20.931  10.149   3.438  0.0604 -0.3829  0.2708
 7336W        W82324  18.958  23.094   4.462  0.1144 -0.0973 -0.1432
 7337W        W82325  13.201  11.533  21.840  0.0830 -0.2615 -0.4642
 7338W        W82326  20.648   4.936   0.441  0.1256  0.1712 -0.2973
 7339W        W82327  22.128   1.029  18.177  0.1037 -0.1001  0.3178
 7340W        W82328  24.582  16.231  12.206  0.5023  0.0339  0.1533
 7341W        W82329   4.443  30.476  10.504  0.3145  0.1160  0.0063
 7342W        W82330  33.031  17.137  14.050  0.1880 -0.3202  0.1817
 7343W        W82331  34.765  18.238   8.586  0.0311 -0.2521  0.1856
 7344W        W82332  11.573  26.340   7.355 -0.1258  0.1060 -0.1937
 7345W        W82333  17.460  15.010  23.801 -0.2174  0.0770 -0.1992
 7346W        W82334  32.158  21.549  17.891  0.0330  0.0218  0.0195
 7347W        W82335  18.121  19.327   4.177 -0.1564  0.1064  0.0498
 7348W        W82336  21.972  27.428  21.129  0.0179 -0.1863  0.0981
 7349W        W82337   0.756  16.656  21.625  0.0956  0.1363 -0.1005
 7350W        W82338  19.487  19.866  25.743  0.2341  0.2019  0.2041
 7351W        W82339  29.058   5.418  10.612 -0.0277  0.0787 -0.2123
 7352W        W82340  16.393  30.731   7.025  0.2378  0.0351 -0.0654
 7353W        W82341   3.659  26.191   6.558  0.3537 -0.0982 -0.2677
 7354W        W82342  13.594   9.857   0.646 -0.1952  0.1591 -0.1618
 7355W        W82343   8.039  16.733   9.023 -0.1407  0.1083  0.0899
 7356W        W82344  15.050   1.529   7.287  0.2769  0.0291  0.1603
 7357W        W82345  28.966   0.085  20.973  0.2144  0.0045  0.0923
 7358W        W82346  15.053  21.104  14.711  0.3467 -0.0483  0.3120
 7359W        W82347  29.738  32.373  14.439  0.2395  0.1516 -0.1180
 7360W        W82348  25.561  14.746  18.603 -0.1841 -0.2498 -0.0265
 7361W        W82349  12.839  14.517   8.985  0.0764 -0.1336  0.3599
 7362W        W82350  15.987  11.330   5.833 -0.2387 -0.0457  0.0985
 7363W        W82351  32.727  35.049  20.480  0.3243 -0.1321  0.5265
 7364W        W82352   1.715   2.436  15.148 -0.2531 -0.0065  0.2209
 7365W        W82353   9.449   9.161   0.549  0.0602 -0.1330 -0.0968
 7366W        W82354   1.560  10.854  14.323  0.0813 -0.1430  0.0413
 7367W        W82355   9.857  12.559   3.320  0.0524 -0.2275  0.1162
 7368W        W82356   2.731   5.717  23.906  0.1631  0.2922 -0.1389
 7369W        W82357  24.092   9.666  16.058  0.1364 -0.0773  0.1002
 7370W        W82358  11.561  13.707   6.658  0.0058  0.0371 -0.0784
 7371W        W82359  16.850   9.634  25.031  0.0296 -0.1162 -0.0239
 7372W        W82360  19.220   4.466  26.097 -0.0005 -0.2770 -0.1270
 7373W        W82361  14.054   9.331   1.841 -0.1700 -0.1075 -0.2727
 7374W        W82362   4.513   2.864   7.641 -0.1232  0.2262 -0.0602
 7375W        W82363   0.416  29.334  16.172  0.2037  0.1244  0.0351
 7376W        W82364  18.145  20.709   9.084 -0.5552  0.0534 -0.2738
 7377W        W82365  17.775  33.696  19.143 -0.2622 -0.1439  0.0282
 7378W        W82366  29.763  18.252  12.862  0.3047 -0.0660  0.3099
 7379W        W82367  22.173   1.243  24.546  0.2793  0.1614 -0.0116
 7380W        W82368  17.829  27.689   7.115  0.1060 -0.0249  0.2325
 7381W        W82369  31.036   2.160   5.020 -0.0421 -0.0215  0.3001
 7382W        W82370  24.396  27.829  26.041 -0.1845 -0.2248  0.1683
 7383W        W82371  18.033   7.758  10.272 -0.3104 -0.1386 -0.0323
 7384W        W82372   2.043  21.387  24.921  0.1458  0.0637  0.0585
 7385W        W82373   7.322   8.426  20.686  0.4994  0.0757  0.3857
 7386W        W82374  32.399   5.610  19.943  0.0966 -0.2907 -0.1829
 7387W        W82375  31.253  28.609   1.584 -0.0074 -0.0278 -0.1111
 7388W        W82376  11.499  22.063  23.054  0.0999  0.4183  0.1969
 7389W        W82377   7.506   8.854  21.953 -0.0742  0.3187 -0.3368
 7390W        W82378  27.123  18.743  25.016 -0.3042 -0.4081 -0.0587
 7391W        W82379   9.695  32.780   9.892  0.0790 -0.0389 -0.2242
 7392W        W82380   2.676  26.654   5.796  0.2257 -0.2797 -0.0205
 7393W        W82381   6.986  29.484  14.325 -0.3955 -0.2572  0.1556
 7394W        W82382  20.233  11.714   8.999 -0.1222  0.0623 -0.1334
 7395W        W82383  25.118  33.574  25.617 -0.0513  0.0755 -0.0613
 7396W        W82384   6.990  28.880  23.578  0.0549  0.4120 -0.1671
 7397W        W82385  31.730  23.861  10.334  0.4895 -0.0750  0.1344
 7398W        W82386   7.826   2.879  22.696 -0.0782 -0.1181  0.0302
 7399W        W82387  22.930   2.418  15.965 -0.3431 -0.0030 -0.2994
 7400W        W82388  15.831  32.846  20.406  0.0920  0.2467  0.2156
 7401W        W82389  11.773  31.937  11.682  0.1972 -0.1475  0.0570
 7402W        W82390  19.404  29.801  19.690  0.1935  0.2150 -0.0933
 7403W        W82391  25.374   7.476  25.355 -0.4079  0.1641  0.0906
 7404W        W82392  26.373   8.078  18.404  0.4517 -0.1123  0.3541
 7405W        W82393  18.118  28.950   1.128 -0.0590 -0.2923  0.0651
 7406W        W82394  29.825   6.811   3.033  0.3502  0.0309  0.0089
 7407W        W82395   7.171  19.313  10.613 -0.0133 -0.0414  0.0401
 7408W        W82396   6.640  28.415   5.990  0.0195 -0.1522  0.0761
 7409W        W82397   0.742  22.196   1.281  0.0069  0.1711  0.1556
 7410W        W82398  27.812   6.231  22.177  0.2121 -0.2270  0.0926
 7411W        W82399  15.920  34.511  23.629 -0.0952 -0.1302 -0.1552
 7412W        W82400  32.985  34.789  15.640 -0.0400  0.2364  0.2735
 7413W        W82401   2.999  34.760   4.732  0.1724 -0.1362  0.0943
 7414W        W82402  16.113  21.475   3.101 -0.1733  0.1235 -0.0256
 7415W        W82403  17.366  15.873   4.238  0.0991 -0.3254 -0.0588
 7416W        W82404  15.730   6.774   0.913  0.2000 -0.0482  0.1005
 7417W        W82405  19.039  23.478   7.057 -0.2025  0.2814  0.0919
 7418W        W82406   9.330  14.645   3.853  0.0550  0.3215  0.0260
 7419W        W82407  33.981  11.778  14.054 -0.1658  0.4954  0.2941
 7420W        W82408   8.681   8.298   4.703 -0.3151  0.4151 -0.0779
 7421W        W82409  27.387  25.790  19.205  0.4625  0.0273 -0.0791
 7422W        W82410  13.711  17.210  20.502  0.0153 -0.1982 -0.1367
 7423W        W82411   5.104   0.296  18.800 -0.0219  0.1786 -0.2518
 7424W        W82412   5.850   9.190   8.222  0.0964 -0.0995 -0.0791
 7425W        W82413   8.895   2.930   0.771  0.3706  0.1131  0.1479
 7426W        W82414   4.467  31.527   4.728  0.3250  0.0182  0.4014
 7427W        W82415  12.662  12.347   4.060 -0.2930  0.3237 -0.3164
 7428W        W82416  11.703   1.603  19.489 -0.0651 -0.0016  0.0323
 7429W        W82417  28.122   0.623   2.576 -0.0572 -0.0260  0.0551
 7430W        W82418   4.785  10.299   4.766 -0.1268 -0.0290  0.0518
 7431W        W82419  23.302  15.074  16.474  0.4750  0.0377  0.2489
 7432W        W82420  27.693   3.779  22.862  0.2750  0.2598  0.1541
 7433W        W82421  21.797  15.083   0.954  0.5443  0.0678 -0.2258
 7434W        W82422   5.151   8.053  24.892  0.1890  0.3198 -0.2798
 7435W        W82423  17.253   4.078   1.750 -0.1005 -0.2196  0.1071
 7436W        W82424  33.568  31.414  24.195  0.1218 -0.0450 -0.1267
 7437W        W82425  31.112   3.550  21.381  0.1661 -0.0295 -0.1595
 7438W        W82426  21.479  20.746  21.306 -0.0283  0.2583 -0.1695
 7439W        W82427  15.089  26.371   4.373 -0.0889  0.0707  0.2403
 7440W        W82428   9.249  14.453   1.508  0.3067 -0.0044 -0.0661
 7441W        W82429   8.324  15.048  19.488 -0.1581 -0.0693 -0.1719
 7442W        W82430  27.366  28.580  24.721 -0.1788 -0.2289 -0.2842
 7443W        W82431  34.129  27.776   3.962  0.2471  0.1693 -0.1583
 7444W        W82432  24.308  22.849  19.258 -0.0368 -0.1124 -0.2184
 7445W        W82433  13.035  31.387   0.669  0.0835  0.0468  0.0823
 7446W        W82434   0.795  15.388  11.888 -0.2066  0.3816  0.1423
 7447W        W82435   3.632   8.023   8.188  0.2882 -0.1241  0.2021
 7448W        W82436  27.688  20.581  24.747 -0.4610 -0.0253  0.1216
 7449W        W82437   9.427   5.532   5.060 -0.0875  0.2777  0.1558
 7450W        W82438  22.667  20.328  18.934 -0.0675  0.1985  0.0537
 7451W        W82439   1.661  21.399   2.597 -0.0893 -0.2512 -0.2639
 7452W        W82440   1.976   5.279  15.761 -0.1472  0.0894 -0.0957
 7453W        W82441   6.643   0.437  23.959 -0.1322 -0.2932  0.0402
 7454W        W82442   6.537  31.588  24.691 -0.0439 -0.3805  0.0458
 7455W        W82443  31.952  27.665  19.034 -0.1451 -0.1047 -0.2381
 7456W        W82444  18.836   8.077  10.924  0.0526  0.0369 -0.2238
 7457W        W82445  30.056   7.156   1.122  0.0697 -0.3100  0.1568
 7458W        W82446  23.026  19.498  13.700 -0.0554  0.0603 -0.1216
 7459W        W82447   9.917   3.048  10.892  0.3070  0.1767  0.1139
 7460W        W82448  16.532  12.162   7.061 -0.0297  0.4073  0.1014
 7461W        W82449  20.588  10.453   3.210  0.0349  0.0101 -0.1109
 7462W        W82450  19.320  20.654  18.893 -0.0574  0.3440  0.1327
 7463W        W82451  30.083   2.446  21.442  0.2052  0.0160 -0.1496
 7464W        W82452  29.773  10.095  21.829 -0.0683 -0.0926  0.0226
 7465W        W82453  24.474   8.992  15.123  0.2140 -0.1830  0.1237
 7466W        W82454  13.980   3.222   1.319  0.2746  0.1453 -0.3593
 7467W        W82455   9.160   9.338  10.764 -0.1812  0.1780 -0.1385
 7468W        W82456  16.768  28.753  25.121  0.0862  0.1480 -0.1367
 7469W        W82457   0.762  22.839  18.060 -0.1294  0.0466  0.2194
 7470W        W82458  27.602  18.645  15.051  0.1200 -0.4110 -0.1473
 7471W        W82459  28.316   0.257   2.870 -0.0552  0.0941 -0.1079
 7472W        W82460  18.054  23.046  22.694 -0.0790 -0.4891 -0.2011
 7473W        W82461  13.738  30.212   8.381 -0.4080  0.0375  0.3891
 7474W        W82462  30.764  31.228  19.418 -0.0641 -0.1649  0.4716
 7475W        W82463   4.241  19.280  19.226 -0.0472  0.2019 -0.2656
 7476W        W82464  22.310   9.651  18.781 -0.0072 -0.2565 -0.1045
 7477W        W82465  14.705   0.095   8.690  0.2243  0.0167 -0.2518
 7478W        W82466  15.056  11.024  10.294 -0.1514 -0.0802  0.0281
 7479W        W82467  13.807  26.604   8.781 -0.0128 -0.0697 -0.1519
 7480W        W82468  16.157   0.619  22.864 -0.2763  0.2407  0.0855
 7481W        W82469   8.831  25.051   4.066 -0.1955  0.0967 -0.0708
 7482W        W82470  16.413  16.793  23.759 -0.0946  0.0436  0.2241
 7483W        W82471  10.880  34.184   2.613  0.0977 -0.0521 -0.3378
 7484W        W82472  27.304  22.075  23.305 -0.1286  0.0018 -0.1122
 7485W        W82473   3.568   9.411  18.943 -0.0940  0.0103 -0.0467
 7486W        W82474   1.129  33.847  21.014 -0.1721  0.1695 -0.0639
 7487W        W82475  15.088  15.455  10.550  0.4184  0.1399 -0.1598
 7488W        W82476   7.102  11.020   5.798 -0.1050 -0.2709 -0.1966
 7489W        W82477  14.833   5.462   8.474 -0.0859  0.0596 -0.0451
 7490W        W82478  32.450   8.164  21.580 -0.1076  0.0111 -0.0362
 7491W        W82479  23.703  33.555  22.096 -0.3104 -0.2031 -0.3378
 7492W        W82480   6.023  29.526   4.070 -0.0890  0.0350 -0.1272
 7493W        W82481  12.607   8.566   5.999  0.0664  0.3615  0.1132
 7494W        W82482  28.309  28.193  25.822  0.0928  0.2948 -0.0003
 7495W        W82483  10.991  35.299   1.855 -0.3272  0.0525  0.0736
 7496W        W82484  29.059  26.091  11.084 -0.0317  0.1885 -0.0548
 7497W        W82485  27.806  20.168  10.750  0.0417 -0.0061  0.0305
 7498W        W82486   2.275  23.342  22.750  0.0330 -0.1230 -0.3435
 7499W        W82487  18.082  25.766  22.593 -0.0824  0.2298 -0.2307
 7500W        W82488  24.784  32.666  12.145  0.1216 -0.0951 -0.2462
 7501W        W82489   8.070  29.039  25.965  0.0489  0.1619 -0.1429
 7502W        W82490  29.177  15.339  13.843  0.0745 -0.0048  0.3387
 7503W        W82491   4.814   8.725   7.759 -0.0521  0.2383 -0.0153
 7504W        W82492  33.148  18.957  20.613 -0.2010  0.1727  0.1371
 7505W        W82493   3.916   1.430   1.386 -0.2370  0.1223 -0.0595
 7506W        W82494   6.636  33.884  13.196 -0.0201  0.1298 -0.3324
 7507W        W82495  11.425  23.541   2.198  0.1757  0.0046 -0.2315
 7508W        W82496  23.516  23.287  21.789  0.0887  0.3214  0.2833
 7509W        W82497  22.469  24.100  25.930 -0.3123 -0.1418 -0.1021
 7510W        W82498   7.134  12.046   7.669  0.2393 -0.3283  0.0342
 7511W        W82499  21.911  17.191   4.283 -0.0445 -0.0230  0.2143
 7512W        W82500   1.677  28.965  25.863  0.1997 -0.0775 -0.3657
 7513W        W82501  21.715  27.942  20.956  0.1496  0.1594  0.0358
 7514W        W82502  19.557   6.034   4.109 -0.2116  0.0353  0.1775
 7515W        W82503  28.683  17.457   4.480 -0.1511 -0.0782  0.4141
 7516W        W82504  24.694  11.659  22.550  0.3159 -0.0906  0.0102
 7517W        W82505  10.199  26.064   5.431 -0.0448 -0.2149  0.1235
 7518W        W82506  28.280  23.417  24.164 -0.1337  0.1112 -0.1688
 7519W        W82507  12.414   5.051   9.839  0.0343  0.0106  0.1950
 7520W        W82508  17.282  23.741   6.309 -0.0300  0.2718 -0.1082
 7521W        W82509  11.900  19.946  23.107  0.1881  0.0718  0.2231
 7522W        W82510  22.769   5.749  21.646  0.1411  0.2080  0.1615
 7523W        W82511  21.823   5.941   4.778 -0.0940  0.3189  0.1270
 7524W        W82512   5.596  32.928   4.802 -0.2916  0.0477  0.2062
 7525W        W82513   7.269  15.163  22.201  0.1092  0.0777 -0.1809
 7526W        W82514  34.695  34.583  20.899  0.1257  0.1211 -0.0191
 7527W        W82515  31.488  28.102  24.004 -0.0800  0.1807  0.2001
 7528W        W82516  31.481  26.456   9.188 -0.2236 -0.1274 -0.1104
 7529W        W82517  10.056  24.270  12.283  0.0456  0.1613  0.0013
 7530W        W82518  27.561  29.867  24.126 -0.2951 -0.0139  0.0163
 7531W        W82519  31.838  21.732   5.002  0.1433  0.1816 -0.1363
 7532W        W82520   6.050  23.692   3.032  0.0159  0.0114  0.2012
 7533W        W82521  34.646  21.709  25.332  0.0926  0.0168 -0.0079
 7534W        W82522  22.809  26.614   1.483 -0.1053 -0.1080  0.2487
 7535W        W82523  18.876  12.579   9.820 -0.0552  0.3009 -0.0278
 7536W        W82524  18.084  34.102  17.539  0.4371 -0.1008  0.0286
 7537W        W82525  24.519  22.976  23.936 -0.0358 -0.4165  0.1649
 7538W        W82526   6.127  28.654   0.072 -0.3705 -0.0723 -0.3438
 7539W        W82527  35.003  17.043  24.106 -0.0380 -0.4311  0.1204
 7540W        W82528  16.727  11.016  21.003 -0.1182  0.2617 -0.0079
 7541W        W82529   5.724  12.716  20.722  0.5612 -0.2641 -0.3051
 7542W        W82530   8.900  34.843   7.961  0.1391 -0.1097  0.0273
 7543W        W82531  16.925  20.937   4.665  0.0737  0.1359 -0.0823
 7544W        W82532  29.946  12.200  22.157 -0.0099 -0.1395  0.0078
 7545W        W82533  19.821  33.797  15.624  0.0134  0.0880  0.2958
 7546W        W82534   8.311  24.685  16.330  0.0282 -0.1291  0.3038
 7547W        W82535  11.077  20.886  13.898 -0.1432 -0.0133  0.2404
 7548W        W82536   8.938   4.458   5.409 -0.1620 -0.0894  0.0878
 7549W        W82537  11.933  13.598  21.992 -0.2452 -0.1471 -0.3424
 7550W        W82538   0.165  21.336  21.675 -0.0820 -0.1319  0.2465
 7551W        W82539  20.831   8.946  24.378 -0.1692  0.0482 -0.1386
 7552W        W82540   6.494  35.082   7.166  0.1356  0.1590  0.4148
 7553W        W82541  32.345   5.902   3.643 -0.0092 -0.1059  0.0232
 7554W        W82542  25.327   7.928  25.027  0.1005  0.0727 -0.0785
 7555W        W82543   6.674   7.342   1.735 -0.0259  0.2956  0.0443
 7556W        W82544  24.555  28.248  13.444 -0.0788 -0.0573  0.0908
 7557W        W82545  31.487   2.328  12.238 -0.0247  0.2642 -0.1180
 7558W        W82546   2.100  21.956   3.460  0.0889 -0.0475  0.1450
 7559W        W82547  19.053  29.799   4.368  0.1448  0.1428 -0.0844
 7560W        W82548   0.773   6.246   2.310  0.1354 -0.1886 -0.1859
 7561W        W82549  34.606  19.677  12.266 -0.0733  0.2143 -0.0410
 7562W        W82550  27.950  11.187   8.694 -0.1786 -0.0723  0.3700
 7563W        W82551   2.585  23.750   0.830 -0.1424  0.0531  0.0955
 7564W        W82552   6.522  18.140  18.093 -0.1821 -0.1036 -0.1237
 7565W        W82553   0.533   2.719  23.415  0.1723  0.2727 -0.0232
 7566W        W82554  27.159   1.788   2.503  0.0958 -0.1322 -0.3068
 7567W        W82555  20.344  22.998  17.209  0.0668  0.0658  0.0587
 7568W        W82556   1.884  21.633  15.276  0.0390 -0.0939  0.0345
 7569W        W82557  11.236   0.364   0.293 -0.0472  0.2165  0.0336
 7570W        W82558  27.666   9.189  13.496 -0.1518 -0.0439 -0.1346
 7571W        W82559  31.843   4.235   3.261  0.1772  0.0908  0.2081
 7572W        W82560  19.943   4.511   8.378  0.0726  0.2574 -0.2222
 7573W        W82561  13.109  12.467   3.737  0.1275 -0.2954 -0.0511
 7574W        W82562  31.451  29.563   4.760 -0.3174 -0.0063  0.0146
 7575W        W82563  35.019  12.439  20.522 -0.0517  0.1460  0.0327
 7576W        W82564  30.242  16.930  25.410  0.3956  0.1392 -0.1815
 7577W        W82565   9.019  23.259  25.005  0.2539 -0.2680  0.2384
 7578W        W82566  16.679  35.188  18.185 -0.3695 -0.0367  0.2256
 7579W        W82567  29.341  14.545   6.086 -0.1747 -0.0154  0.2132
 7580W        W82568  33.021  30.271  18.598  0.0248 -0.0579  0.0673
 7581W        W82569   8.446   7.943   2.402 -0.0318  0.1269  0.0324
 7582W        W82570  25.650   8.259  16.118  0.1954  0.2911 -0.1443
 7583W        W82571  21.962  21.778  17.513 -0.0112  0.4693 -0.2146
 7584W        W82572  22.187  30.592  25.717  0.2058 -0.0682  0.0749
 7585W        W82573  30.338  19.358  24.422 -0.3053 -0.4217 -0.1632
 7586W        W82574  17.853  28.522   1.246  0.0619 -0.1440 -0.2104
 7587W        W82575   0.218  19.902   2.189  0.1111  0.1180  0.0963
 7588W        W82576   1.292  16.018  10.952  0.1822 -0.0188 -0.3012
 7589W        W82577  15.356  31.273  10.237 -0.0771 -0.2703  0.1214
 7590W        W82578  21.481  16.277  25.590  0.1679  0.1204 -0.1416
 7591W        W82579  24.315  11.803  22.887  0.0593  0.0728 -0.2075
 7592W        W82580  32.850   1.834  22.782  0.2514 -0.4146  0.0585
 7593W        W82581  25.905  33.780   4.853 -0.3344 -0.0167 -0.2450
 7594W        W82582  33.482  27.658  10.827  0.0174 -0.2506 -0.0489
 7595W        W82583   4.492  15.696   6.429 -0.0455  0.0537 -0.1246
 7596W        W82584  24.460  33.878  14.168  0.3375  0.0618  0.1510
 7597W        W82585  10.040   5.145   4.916  0.0228  0.0219 -0.2100
 7598W        W82586   7.641  30.920  10.507 -0.0183 -0.1851  0.5030
 7599W        W82587  34.014  27.475  21.538  0.1422 -0.1729 -0.0819
 7600W        W82588  29.707   4.219  24.252  0.3469 -0.0467  0.0639
 7601W        W82589  33.948  29.319  18.189 -0.2193  0.1779 -0.0562
 7602W        W82590  14.310  27.869   9.387 -0.2749 -0.2579  0.1329
 7603W        W82591  28.173  27.280  13.947  0.2844 -0.0272  0.1335
 7604W        W82592  13.376  28.752   1.996  0.2820 -0.2005  0.0490
 7605W        W82593  22.616  26.739  14.379  0.1294  0.0173 -0.2199
 7606W        W82594  17.602  33.221  18.044  0.0112  0.0062 -0.0346
 7607W        W82595  11.097   7.177  25.622  0.2188 -0.0628  0.0262
 7608W        W82596  31.772  34.616  15.510 -0.2456  0.2050  0.1528
 7609W        W82597  13.082  29.415   6.722 -0.0963 -0.1813 -0.2701
 7610W        W82598  32.385   6.879  15.501  0.1922 -0.0139 -0.1081
 7611W        W82599   2.298   3.735   8.266  0.0651  0.1391 -0.0656
 7612W        W82600   8.746  22.792  24.100 -0.0121  0.0651 -0.1136
 7613W        W82601  25.867   5.776   1.720 -0.1547  0.1978  0.2182
 7614W        W82602  32.696  17.182  25.661 -0.1605  0.0906 -0.3515
 7615W        W82603   0.498  19.725  25.537 -0.0257 -0.0872  0.3250
 7616W        W82604  30.209   6.939   2.183 -0.1235 -0.1079  0.0317
 7617W        W82605  31.412  27.149  23.817  0.2306  0.1676 -0.0896
 7618W        W82606   0.656   3.676   3.316 -0.1543  0.1319 -0.0613
 7619W        W82607  18.395  17.636  11.450 -0.1595  0.2320 -0.0855
 7620W        W82608  28.326  19.210  14.241 -0.2636 -0.0565 -0.1999
 7621W        W82609  18.383  31.982   7.275  0.1063  0.0760  0.0020
 7622W        W82610  30.479  30.317   1.149 -0.0858  0.3343  0.3933
 7623W        W82611  30.040  34.810   4.148  0.1470 -0.0118  0.1359
 7624W        W82612  23.150  27.035  12.435  0.0154  0.2286 -0.0955
 7625W        W82613  14.608  35.303   2.122  0.1849 -0.1080  0.4042
 7626W        W82614  10.288  31.847  23.071 -0.2499  0.1990  0.0363
 7627W        W82615  31.921  31.604  20.799  0.3052 -0.1154  0.2802
 7628W        W82616  15.868  29.749   6.333 -0.3561 -0.1863  0.1008
 7629W        W82617  21.156   3.665   6.412 -0.3295 -0.1477 -0.0890
 7630W        W82618   6.731  16.146   1.335 -0.1445  0.0858 -0.0143
 7631W        W82619  27.985  32.196  12.610  0.2696  0.0187 -0.0844
 7632W        W82620  28.914  30.658  11.891  0.1231 -0.1832  0.0911
 7633W        W82621  18.101  14.079  19.824 -0.1606 -0.0557  0.1840
 7634W        W82622   6.526  33.853  25.787 -0.2549  0.0696  0.2451
 7635W        W82623  12.408  18.932   6.954 -0.0548  0.1448  0.0265
 7636W        W82624   3.049  32.599   1.997  0.2226  0.3993 -0.0634
 7637W        W82625  12.264  26.640  13.549  0.1985  0.1983 -0.2026
 7638W        W82626  19.969  29.563  16.274  0.2622  0.0469  0.0117
 7639W        W82627  31.294  20.307  12.851  0.0065 -0.0314 -0.0380
 7640W        W82628   6.493  31.648  23.238  0.0862  0.0172  0.1561
 7641W        W82629   3.599  16.557  19.524  0.4392 -0.0027  0.0946
 7642W        W82630  14.320  17.970   9.031 -0.2999 -0.0026  0.0420
 7643W        W82631  23.169  16.815  18.081  0.0182 -0.4997  0.1001
 7644W        W82632  18.778  12.730   2.631 -0.2642 -0.1234  0.0232
 7645W        W82633  31.976   5.538  11.810 -0.0474  0.0132 -0.1877
 7646W        W82634   7.141  30.813   1.224 -0.2176 -0.0316 -0.0897
 7647W        W82635  10.265  29.053  12.986 -0.0542 -0.3250 -0.3201
 7648W        W82636  25.357  12.543  13.702  0.1429 -0.1565 -0.0311
 7649W        W82637  12.567  17.518   9.220  0.0429 -0.1947 -0.0435
 7650W        W82638  13.938  25.743   9.919  0.0584 -0.1661 -0.0111
 7651W        W82639   9.324  33.291   6.455 -0.1368 -0.0751 -0.0835
 7652W        W82640   5.880  33.812   5.334 -0.0867  0.1747  0.0261
 7653W        W82641  10.222  13.423   6.624  0.0886  0.2724 -0.0012
 7654W        W82642   0.291  33.739  23.536 -0.1503 -0.3690  0.1166
 7655W        W82643  20.108  13.921   2.019  0.4716 -0.0456 -0.4571
 7656W        W82644  10.079   5.266  20.154  0.0174  0.0160  0.2801
 7657W        W82645  13.375   5.038   0.148 -0.1820  0.0028 -0.3222
 7658W        W82646  29.095  29.448   1.757  0.2022  0.1149  0.0498
 7659W        W82647   9.664  24.424  13.174  0.0133  0.1154  0.1367
 7660W        W82648  27.704   3.883  15.723  0.2873  0.2122 -0.0472
 7661W        W82649  19.745  34.435   0.152  0.2179 -0.4190  0.2483
 7662W        W82650  33.554  15.596   7.537 -0.1966 -0.1837 -0.0201
 7663W        W82651  12.672  14.080  25.110 -0.2256 -0.3479 -0.3448
 7664W        W82652   9.665  19.677  11.239 -0.1476 -0.1031 -0.2096
 7665W        W82653  27.893  14.175   8.794 -0.2247 -0.1128 -0.2246
 7666W        W82654   5.851  34.664   1.894  0.0899 -0.0344 -0.2528
 7667W        W82655  31.309  16.879  22.613  0.2541 -0.0128 -0.1372
 7668W        W82656  20.562   6.024   6.666  0.0038 -0.0970  0.1001
 7669W        W82657  33.787   1.431  22.911 -0.1173 -0.3945  0.0870
 7670W        W82658  15.416  14.786  22.401 -0.0067  0.1102 -0.0355
 7671W        W82659  11.505  11.264   6.006 -0.0806 -0.0584 -0.0213
 7672W        W82660  13.218  13.562   5.166 -0.0129  0.0031  0.3245
 7673W        W82661  23.369  12.480  15.582  0.2151  0.0213 -0.5925
 7674W        W82662  10.879  15.240   4.770  0.0103  0.0688  0.3510
 7675W        W82663  16.319  26.457  10.127 -0.3374  0.3682  0.0990
 7676W        W82664   8.852  28.673  21.385  0.0467  0.1449  0.1096
 7677W        W82665  23.655  20.574  16.679  0.0241  0.2747  0.0749
 7678W        W82666  25.128  35.180  25.041  0.0454 -0.0874  0.1542
 7679W        W82667  27.468   0.133  22.258  0.0252  0.0125  0.0901
 7680W        W82668  32.958   3.081  23.168 -0.2168 -0.1090 -0.0638
 7681W        W82669   0.996   7.761  16.806  0.0592 -0.2067  0.2395
 7682W        W82670  20.705  32.464   2.539  0.1566 -0.0991 -0.2217
 7683W        W82671  25.416  17.302  14.966  0.0651  0.0557  0.1004
 7684W        W82672  29.164  21.838  12.776  0.0588 -0.4533  0.1877
 7685W        W82673  10.726  14.567   6.180 -0.1768  0.4233 -0.0280
 7686W        W82674  25.350   7.418   0.483 -0.0119 -0.0840  0.1628
 7687W        W82675  21.577   8.833  21.983  0.0712 -0.2020  0.0547
 7688W        W82676  29.521  18.238  23.270 -0.2377  0.0071 -0.2268
 7689W        W82677  23.344   1.164  22.843  0.0009  0.2233 -0.0510
 7690W        W82678  27.098   5.462  13.933  0.0539  0.0422  0.0635
 7691W        W82679   3.151  29.264   9.872 -0.1140  0.1066 -0.0785
 7692W        W82680   8.944   3.511  13.380 -0.1463  0.0785 -0.1456
 7693W        W82681  28.324  31.378   1.145  0.3593  0.5456  0.2208
 7694W        W82682  10.908  20.590   5.435  0.1787  0.3043  0.2082
 7695W        W82683  18.883   3.642  15.952  0.2226  0.2026  0.0592
 7696W        W82684  11.095  16.385   6.175  0.1655 -0.0434 -0.4989
 7697W        W82685  22.003  35.018  21.802  0.2044 -0.1310  0.2726
 7698W        W82686  18.638  14.297  24.763 -0.0011  0.2598  0.3282
 7699W        W82687  26.511  28.965  22.161 -0.3777 -0.0622  0.0510
 7700W        W82688  26.492  15.609  12.793 -0.2260 -0.2768 -0.1091
 7701W        W82689   9.937  20.981  23.697  0.2778 -0.1490 -0.2620
 7702W        W82690  18.268   9.152  23.873 -0.2125 -0.1577  0.2220
 7703W        W82691  30.222  19.723   7.035  0.1599 -0.2056  0.0608
 7704W        W82692  28.099  29.388  22.921  0.0901 -0.0992  0.1268
 7705W        W82693  17.103   1.810   4.981  0.2013  0.2827 -0.2412
 7706W        W82694   4.253  19.532  21.715  0.0793  0.2539  0.4523
 7707W        W82695   1.861  21.849  20.117 -0.1317 -0.0322  0.0229
 7708W        W82696   3.902  31.598   5.568  0.1130  0.0321 -0.0967
 7709W        W82697   9.880  26.853   2.180 -0.1165  0.1785  0.3266
 7710W        W82698  10.352  17.016  13.087 -0.2613  0.0954  0.0479
 7711W        W82699   9.818   4.954  20.526 -0.0733  0.0748  0.0967
 7712W        W82700  27.963  14.211  10.232 -0.4206  0.0683  0.3253
 7713W        W82701  12.141  26.966  24.019  0.2129 -0.0493  0.0652
 7714W        W82702  23.944   1.555  19.790  0.1482 -0.3070  0.1267
 7715W        W82703  30.956  35.267   2.330 -0.4052 -0.1136  0.2842
 7716W        W82704   2.180   4.980  19.114  0.0768 -0.2885 -0.0595
 7717W        W82705  21.634  14.128  20.041  0.0458  0.1091  0.0491
 7718W        W82706  34.825  24.588   0.215  0.1251 -0.1439  0.0458
 7719W        W82707  26.677  30.415   0.306 -0.2912 -0.0974 -0.0924
 7720W        W82708   9.551  23.362   3.898 -0.2603  0.1438 -0.3533
 7721W        W82709  24.546  10.087  18.864 -0.0074  0.3533 -0.0740
 7722W        W82710  11.825   1.629   3.038 -0.0744  0.1597  0.4994
 7723W        W82711   8.375  26.804  24.690  0.0799  0.0659 -0.0064
 7724W        W82712  13.177   0.331  25.584 -0.1263  0.1420  0.0730
 7725W        W82713  18.201  25.045   6.647 -0.0050  0.2768 -0.0525
 7726W        W82714  16.371  28.228   8.732 -0.0028  0.0618  0.1842
 7727W        W82715  31.506   0.399  22.550 -0.1483 -0.1447  0.0603
 7728W        W82716  18.892  13.914   3.402  0.0694 -0.2093  0.2859
 7729W        W82717   5.858  25.035   2.243  0.1004  0.1275 -0.1784
 7730W        W82718  13.473   6.133  25.611 -0.0622  0.0851 -0.0004
 7731W        W82719  13.817  34.806  23.593  0.2135  0.0308  0.3064
 7732W        W82720   2.314   5.188   2.382  0.3226  0.2496 -0.2074
 7733W        W82721  19.768   7.103   0.125 -0.0615 -0.0190  0.0827
 7734W        W82722  30.610  32.163  13.540  0.1730  0.1657 -0.1361
 7735W        W82723  13.856  20.345  24.967 -0.1334 -0.2032  0.0052
 7736W        W82724  19.218  19.528  19.569 -0.2908 -0.1805  0.2075
 7737W        W82725  14.509   1.811   1.311 -0.0340  0.0319 -0.3201
 7738W        W82726  21.928   5.814  18.058 -0.0450  0.1242 -0.2604
 7739W        W82727  31.456  34.015  19.243  0.0603  0.0025 -0.1191
 7740W        W82728  26.257   7.688  24.293  0.1919 -0.2400 -0.0831
 7741W        W82729  31.623  29.746  24.956 -0.1629  0.1464  0.3876
 7742W        W82730  32.714  19.808  16.527 -0.2300 -0.3092  0.1856
 7743W        W82731  24.084   9.260  24.002 -0.0610  0.1262  0.4324
 7744W        W82732  22.233  27.761  22.432 -0.0748 -0.0566  0.1121
 7745W        W82733  20.294  33.618  21.130 -0.1238  0.2795 -0.3167
 7746W        W82734  13.786   4.053  24.789  0.1368  0.0347  0.0007
 7747W        W82735  25.386   5.022  14.667 -0.1783  0.1213 -0.2027
 7748W        W82736  25.734   3.528   3.791 -0.1979  0.2245  0.2124
 7749W        W82737  16.493  14.856   8.455 -0.1674 -0.0791 -0.0492
 7750W        W82738  10.129  31.634   0.388  0.0713  0.0299 -0.3339
 7751W        W82739  16.126   0.739  26.195  0.1665 -0.2941  0.0646
 7752W        W82740  33.976  16.681  19.052  0.0901  0.0852 -0.1544
 7753W        W82741   6.733  13.406   1.075  0.0697 -0.2296 -0.1272
 7754W        W82742   9.404   3.027   8.622 -0.0519 -0.0920  0.4692
 7755W        W82743  17.498  23.387   2.774  0.0394 -0.0180 -0.0268
 7756W        W82744  35.177  10.146  15.894  0.1894 -0.0717  0.0099
 7757W        W82745  11.911   4.286   3.051  0.2343 -0.1853 -0.0968
 7758W        W82746  28.650  20.314  23.060 -0.2357  0.3238  0.0739
 7759W        W82747  28.390  16.890  20.510  0.1760 -0.5309  0.0137
 7760W        W82748  13.734  34.152   6.689  0.1112 -0.4901  0.0655
 7761W        W82749  31.969   6.894   2.470 -0.1397  0.1103 -0.3761
 7762W        W82750   2.244  22.845  20.892  0.0501  0.0129  0.1444
 7763W        W82751  21.398  27.217  16.074  0.1919 -0.0592 -0.0103
 7764W        W82752  24.019  32.236  14.641  0.3802  0.1819  0.0598
 7765W        W82753  32.274   4.353  16.400  0.1429  0.2651  0.3749
 7766W        W82754   0.756  21.276   9.344  0.1160 -0.3448  0.0137
 7767W        W82755  16.604   9.689  22.717 -0.2471 -0.3843 -0.2388
 7768W        W82756  29.401   6.963  25.087 -0.0584 -0.1653 -0.0632
 7769W        W82757  28.741   4.715   4.276  0.1804  0.2978  0.0196
 7770W        W82758  28.873  24.967  18.925 -0.0537  0.3831  0.2666
 7771W        W82759  17.797  35.008  17.458  0.0396  0.0593  0.1604
 7772W        W82760  20.785  11.708  25.713 -0.2502 -0.1449  0.2187
 7773W        W82761  15.688   8.659   9.215  0.0939 -0.0478  0.2025
 7774W        W82762  12.493  16.484  26.229  0.0557 -0.1055 -0.0621
 7775W        W82763  30.198  12.481  18.679  0.0228 -0.0629 -0.3372
 7776W        W82764  13.106  34.174  20.360  0.1314 -0.2174  0.3007
 7777W        W82765   9.090  13.639   0.966 -0.0376 -0.1760 -0.2916
 7778W        W82766  10.322   5.878   7.223  0.0398  0.3321  0.1325
 7779W        W82767   7.847  24.023   6.736 -0.0315  0.2313 -0.0848
 7780W        W82768  13.522  27.698   6.552 -0.3401  0.1483 -0.0566
 7781W        W82769  35.295  11.136  23.735 -0.0068 -0.2004  0.2119
 7782W        W82770  29.122  12.125  17.696  0.0508  0.1181  0.3199
 7783W        W82771  15.302  18.122  21.479 -0.2823  0.3635  0.1699
 7784W        W82772   2.362  14.335  17.174 -0.4627 -0.1270  0.0251
 7785W        W82773  22.012  26.919  15.487 -0.0302  0.3004 -0.0766
 7786W        W82774  26.187  10.707  17.918 -0.1274  0.1718 -0.0388
 7787W        W82775  22.316   8.992  21.014 -0.1930 -0.0776 -0.3456
 7788W        W82776  28.153  28.154  15.707  0.1617 -0.3031 -0.0469
 7789W        W82777  15.112  19.697  12.237 -0.0786  0.2515  0.0387
 7790W        W82778  24.677   2.226  22.973 -0.0946  0.1904 -0.1042
 7791W        W82779  12.095  21.473   9.582 -0.1110 -0.1372  0.1502
 7792W        W82780  20.329  25.108  22.165  0.0397 -0.0419 -0.0157
 7793W        W82781   2.270  29.153  19.096  0.0027  0.1100 -0.0330
 7794W        W82782  33.296  12.186   7.324  0.0429  0.0974 -0.0627
 7795W        W82783   9.040  19.057   7.213  0.0889  0.0711 -0.1974
 7796W        W82784  17.246  30.482  25.240  0.0876  0.0493 -0.0073
 7797W        W82785  18.052   9.603  18.212 -0.0438 -0.1513  0.0056
 7798W        W82786   0.626   0.948  24.917  0.1395 -0.1267 -0.0773
 7799W        W82787  26.421  28.855  20.455  0.0837  0.3636 -0.2992
 7800W        W82788  31.771  27.703  12.697  0.4147 -0.0651 -0.0420
 7801W        W82789  27.466  17.559  17.145 -0.0858  0.5375 -0.0609
 7802W        W82790  20.863  19.788  23.695  0.1294  0.2962  0.2497
 7803W        W82791  27.249  29.372  24.129 -0.1707 -0.0098 -0.1300
 7804W        W82792  32.235  18.405   9.243  0.1135  0.1465 -0.0849
 7805W        W82793  14.811   3.762  24.273 -0.3876  0.2297 -0.1876
 7806W        W82794  21.317  24.509  20.014  0.2247  0.3246 -0.1470
 7807W        W82795  27.656  14.792  25.069  0.0709 -0.3225 -0.0094
 7808W        W82796  15.801   1.883   6.951  0.1892 -0.1275  0.1139
 7809W        W82797  16.795   4.265  17.701  0.1902  0.1511  0.0864
 7810W        W82798  13.509  13.743   7.350 -0.0309  0.3990 -0.2975
 7811W        W82799   1.625  11.749  19.424  0.0752  0.2504 -0.0703
 7812W        W82800   9.309  13.460  10.475 -0.0865 -0.2222  0.1688
 7813W        W82801   8.226  17.923  23.089 -0.0712 -0.0389  0.0818
 7814W        W82802  35.284  10.863  16.623 -0.0036  0.0732  0.1524
 7815W        W82803  13.088  14.312  12.984  0.2042 -0.0176  0.2839
 7816W        W82804  33.709  18.888  14.969  0.1997 -0.1780  0.0148
 7817W        W82805  31.891  35.306  23.866 -0.2693  0.2168 -0.2869
 7818W        W82806  14.630  16.460  23.239 -0.0914 -0.2672 -0.1207
 7819W        W82807  28.265  19.440  12.908  0.0662 -0.0140  0.0168
 7820W        W82808   4.440  23.802   2.222 -0.1988  0.0793  0.0921
 7821W        W82809  24.919  19.197  11.492 -0.1319  0.0767  0.0398
 7822W        W82810   9.678  30.908  25.388  0.0505 -0.0128 -0.0169
 7823W        W82811  11.378  34.139   9.247 -0.1527  0.1305  0.2142
 7824W        W82812  28.320  26.620   0.384 -0.1757 -0.1627 -0.3596
 7825W        W82813  25.815  21.157  25.442 -0.1405  0.0344 -0.0632
 7826W        W82814   9.604  14.275   3.535  0.0361  0.2773  0.0831
 7827W        W82815   2.781  13.160  19.493 -0.2341  0.0627  0.0003
 7828W        W82816  34.933   6.239  15.754  0.0291  0.0952  0.0989
 7829W        W82817  18.810  25.816   0.242  0.1985 -0.0882  0.2988
 7830W        W82818  24.182  23.929   2.942  0.0058  0.2450 -0.2666
 7831W        W82819  32.505  27.474  23.049  0.3288  0.3189  0.0805
 7832W        W82820  17.508  28.274   7.521  0.1761 -0.2123  0.5767
 7833W        W82821  30.001   7.355   2.156 -0.0977  0.0193  0.1846
 7834W        W82822   6.362  35.345  25.281 -0.1789 -0.1194 -0.0594
 7835W        W82823   0.054  10.287  24.771  0.1510  0.2604 -0.0091
 7836W        W82824   8.929  28.892  22.279  0.1083 -0.3526 -0.0072
 7837W        W82825  27.651  24.903  22.365 -0.0024 -0.0293  0.1641
 7838W        W82826  34.977  17.210  21.632 -0.0487 -0.1073 -0.0476
 7839W        W82827  19.476  28.607  22.129 -0.1335  0.0912  0.3248
 7840W        W82828  17.527  26.530  10.025 -0.0020 -0.0826  0.0565
 7841W        W82829   4.303  11.762  16.815 -0.2500  0.2702  0.2663
 7842W        W82830  17.800  25.276   8.060  0.0252  0.4399  0.0880
 7843W        W82831   4.045  23.729  25.955  0.1354  0.3283 -0.0121
 7844W        W82832  16.243  29.004   1.555  0.1356 -0.2069  0.2305
 7845W        W82833  29.330  17.163   5.218 -0.2068  0.3823 -0.0578
 7846W        W82834  27.908   9.720  14.776 -0.0748 -0.0263 -0.2898
 7847W        W82835  28.770   7.096  19.795  0.1565  0.2459  0.1294
 7848W        W82836  25.165   0.926  16.377 -0.1980  0.0249  0.0349
 7849W        W82837  31.694   5.451  25.092  0.0079  0.2414  0.0408
 7850W        W82838  25.339  11.772  19.821  0.0348 -0.1260  0.4002
 7851W        W82839  14.640   5.280   2.403  0.0070  0.2452 -0.2791
 7852W        W82840  17.022   8.866   3.689  0.1617 -0.2247 -0.1111
 7853W        W82841  25.240  14.695  22.232 -0.0290  0.0431 -0.1216
 7854W        W82842  26.824   0.877  16.497 -0.2948 -0.0095  0.0921
 7855W        W82843  22.025  32.397   6.912 -0.1828  0.0150  0.0991
 7856W        W82844   2.334  28.292   7.484 -0.2457  0.1992  0.0500
 7857W        W82845   0.308  19.926  24.196 -0.0914 -0.2111  0.1223
 7858W        W82846  26.480  12.124  16.016 -0.3511 -0.1141  0.1524
 7859W        W82847  26.574  13.740  22.981  0.1606  0.0971  0.0535
 7860W        W82848  23.213  30.964  19.911  0.2709 -0.2624 -0.4131
 7861W        W82849  28.336  29.163   4.385 -0.1206 -0.1500  0.0818
 7862W        W82850  11.139  22.376   5.630 -0.1220 -0.3095  0.0852
 7863W        W82851  14.296  17.133   3.328  0.0093  0.2247 -0.2009
 7864W        W82852  12.329  11.781  21.651 -0.1192 -0.0844 -0.5942
 7865W        W82853  14.560   4.590  25.097  0.0377 -0.0130  0.0142
 7866W        W82854  19.363  10.082   8.450  0.2207 -0.0321  0.0572
 7867W        W82855  25.294  11.704  23.812  0.2591 -0.1698 -0.0476
 7868W        W82856  22.948  19.935   0.990  0.1359  0.1268 -0.0198
 7869W        W82857  15.167   9.989   5.275  0.2976  0.0808 -0.0227
 7870W        W82858   3.695  13.160   5.009  0.3683 -0.1154  0.0655
 7871W        W82859  10.569  32.004   4.361 -0.3179 -0.3970 -0.0895
 7872W        W82860   4.440  34.000   3.180  0.4182  0.1234 -0.2711
 7873W        W82861  33.618  19.444  10.215  0.3577 -0.3671  0.0977
 7874W        W82862   5.464  10.245  20.698 -0.0525  0.1489 -0.2015
 7875W        W82863   0.720  32.842   8.711 -0.1982 -0.2007  0.1612
 7876W        W82864   0.818   4.259  25.094  0.3068  0.0216 -0.0883
 7877W        W82865  12.009  29.249  15.989 -0.2299  0.2318 -0.1571
 7878W        W82866  33.135  22.423   6.738  0.1464  0.5088  0.0296
 7879W        W82867  25.644  27.252  14.589 -0.1335 -0.1981 -0.1675
 7880W        W82868  19.863  18.227  23.628  0.0715  0.3832  0.1850
 7881W        W82869  11.251  14.992   4.540 -0.0659 -0.0525 -0.0164
 7882W        W82870  15.891  16.625   3.803 -0.0930 -0.1980 -0.1364
 7883W        W82871  11.156  24.451  23.895 -0.0231  0.6147  0.0989
 7884W        W82872  16.341  22.595  22.073 -0.0186 -0.2406  0.1610
 7885W        W82873   0.129  21.930  24.912  0.0055  0.0040  0.3369
 7886W        W82874  34.025  27.337  18.077 -0.2311 -0.0479  0.3043
 7887W        W82875  13.558  14.794  23.326 -0.0142  0.2242  0.0828
 7888W        W82876  20.508   1.191  25.600 -0.1201 -0.0228  0.1263
 7889W        W82877  21.989  26.802   4.473  0.3021 -0.2155  0.0443
 7890W        W82878  32.125  17.428   7.921  0.2630 -0.2043  0.0942
 7891W        W82879  25.012  33.170  12.826 -0.0789 -0.3031 -0.1396
 7892W        W82880  15.499   7.051  12.583  0.0186 -0.0958 -0.2338
 7893W        W82881   3.944  28.356   8.773 -0.4445  0.1532  0.3738
 7894W        W82882   5.898  21.753   7.064 -0.2999  0.0682  0.1721
 7895W        W82883  14.129  11.779  11.587 -0.0365 -0.2655  0.2478
 7896W        W82884  30.413  12.161  23.371 -0.2365  0.1788  0.1283
 7897W        W82885  35.071  17.839  24.380  0.0668  0.1069  0.2198
 7898W        W82886  11.426  32.675  15.850  0.3050 -0.3021  0.0926
 7899W        W82887  24.192  19.865  24.362  0.0656  0.0346 -0.0954
 7900W        W82888  30.097  14.325  13.898  0.2084 -0.1375 -0.2154
 7901W        W82889  13.330   9.124  22.927  0.1901  0.2106 -0.1745
 7902W        W82890  12.665  25.710   8.637  0.0452  0.0675  0.0800
 7903W        W82891   2.241  25.882   0.238 -0.1196 -0.0288 -0.0891
 7904W        W82892  23.914   9.138  13.023 -0.2034  0.0050 -0.0165
 7905W        W82893   4.663  22.433  23.629  0.1544  0.2992 -0.1478
 7906W        W82894  28.577  11.130  16.126  0.1413 -0.0710  0.0453
 7907W        W82895   9.748  33.576  16.900  0.0965 -0.0060  0.0566
 7908W        W82896  21.917   0.482  19.654  0.1172 -0.0477 -0.1446
 7909W        W82897  10.781  20.553   6.933 -0.0480 -0.1129 -0.2042
 7910W        W82898  11.310  13.337   1.379  0.0221 -0.2901  0.2244
 7911W        W82899  23.882  16.167  24.863 -0.0613 -0.3357  0.1056
 7912W        W82900  26.108  16.572  17.008 -0.0834 -0.0905  0.3635
 7913W        W82901  34.439  25.820  23.153 -0.1432 -0.2886  0.0209
 7914W        W82902  11.886  10.578   1.856 -0.0539  0.0025 -0.0982
 7915W        W82903  18.245  33.101  16.874  0.1276 -0.3731  0.1344
 7916W        W82904  17.755   5.554   4.450 -0.1716  0.2381  0.2491
 7917W        W82905  33.659  18.762   6.614 -0.1387 -0.0707 -0.0291
 7918W        W82906  30.612  28.045  16.291 -0.1396  0.1629  0.2066
 7919W        W82907  30.418  29.800  21.136  0.1979 -0.0476 -0.0043
 7920W        W82908  19.720  31.734   5.339  0.1490 -0.0551  0.0758
 7921W        W82909  13.863  13.547   1.192 -0.0645  0.0197 -0.0195
 7922W        W82910  31.152  22.931  12.293  0.0427  0.2161  0.0668
 7923W        W82911   4.599   2.218  23.604  0.0809 -0.0411 -0.1029
 7924W        W82912   4.875  26.605   4.327  0.0685 -0.1480  0.0305
 7925W        W82913  23.821  11.244  23.478 -0.0076 -0.2905  0.0050
 7926W        W82914  22.569  28.263  20.724  0.1693  0.2024 -0.0405
 7927W        W82915   5.987   5.664   8.868 -0.1327  0.3995  0.2803
 7928W        W82916  16.866  14.099  20.826 -0.2303 -0.1073  0.1836
 7929W        W82917  34.653  10.699  24.013  0.1624 -0.0621  0.0027
 7930W        W82918  15.828  34.837  21.822  0.2402 -0.0205  0.1057
 7931W        W82919   7.433  19.979  24.004 -0.1562 -0.0281 -0.1310
 7932W        W82920  26.977  22.462   8.312 -0.1122  0.0002  0.1111
 7933W        W82921  27.748  20.034  18.637  0.0309 -0.0153 -0.1017
 7934W        W82922  24.890  30.249   2.981 -0.1504 -0.2167 -0.0006
 7935W        W82923  14.233   1.106  21.283  0.0216 -0.3020  0.4349
 7936W        W82924   1.958  23.617  22.152 -0.3600  0.0096  0.3369
 7937W        W82925  31.508  16.312   6.582  0.1614 -0.1027 -0.0466
 7938W        W82926  14.353   4.372  19.615 -0.0338 -0.0436  0.1457
 7939W        W82927  15.392   9.475   1.267  0.0650  0.1072  0.0038
 7940W        W82928  21.625  17.916  24.888  0.0565  0.2075  0.0716
 7941W        W82929  12.157  21.629  10.103  0.1727  0.1990 -0.0914
 7942W        W82930  30.366   8.477  12.733  0.3722  0.0623  0.4014
 7943W        W82931   4.612  35.352   9.520 -0.1261  0.0257 -0.0068
 7944W        W82932  30.530  13.165  25.268  0.1183 -0.3243  0.0799
 7945W        W82933  29.876  17.078   9.417 -0.2938 -0.2010 -0.1236
 7946W        W82934   0.196  20.397  16.488  0.1993  0.0272  0.0980
 7947W        W82935  22.528   6.018  24.222 -0.0106 -0.3207 -0.1663
 7948W        W82936  29.828  34.657  16.884 -0.2094 -0.2608 -0.2895
 7949W        W82937  17.902   6.526  22.039 -0.1512 -0.0084 -0.2717
 7950W        W82938  28.578   0.287  22.659  0.0846 -0.2899 -0.2478
 7951W        W82939  17.727  16.770  10.353  0.0380  0.1799  0.1282
 7952W        W82940  23.240  25.032  20.281  0.4689 -0.0297 -0.0954
 7953W        W82941  20.588  31.433  20.375  0.2782  0.0525  0.3107
 7954W        W82942   0.738  15.560  15.068 -0.2981 -0.0595 -0.0850
 7955W        W82943   0.593  27.972  22.698  0.3488  0.1644 -0.1781
 7956W        W82944  18.171  19.121  10.921 -0.0430  0.1372 -0.0210
 7957W        W82945   6.843  25.865  14.065  0.0166 -0.0380  0.3926
 7958W        W82946   7.124  28.749   9.044 -0.0375 -0.3295 -0.0513
 7959W        W82947  26.089  13.716  19.982 -0.0252 -0.1122 -0.1933
 7960W        W82948  10.602  30.083   4.433 -0.3023 -0.0442  0.1038
 7961W        W82949  11.374  30.204  16.881  0.0126  0.0186 -0.0187
 7962W        W82950   1.953  22.753   3.080 -0.3196 -0.0563  0.0552
 7963W        W82951  14.296  33.559  20.998 -0.1792 -0.0935  0.0212
 7964W        W82952  16.129  32.715   6.112 -0.1084 -0.2116  0.0531
 7965W        W82953  12.010  22.909   5.303 -0.2349  0.0371  0.3611
 7966W        W82954  22.479  12.044  15.251  0.0304  0.1458 -0.0083
 7967W        W82955  24.881   1.385  23.683 -0.2396  0.2417  0.3816
 7968W        W82956  30.375  26.496  12.990  0.1294 -0.3097  0.2339
 7969W        W82957   0.065   3.465   6.626  0.0976  0.1248 -0.3656
 7970W        W82958  12.063  22.782  24.934 -0.0087 -0.0952  0.1748
 7971W        W82959   2.863  13.088  23.181 -0.0086  0.0644 -0.0745
 7972W        W82960  16.484  28.066   1.464  0.1270  0.1410 -0.2956
 7973W        W82961  21.679  26.559  17.869  0.1383  0.0183  0.0438
 7974W        W82962   2.974   6.034   8.123  0.0520 -0.3207 -0.0379
 7975W        W82963  11.740   0.919   3.164 -0.4961  0.0037  0.3674
 7976W        W82964  33.323  15.004  24.808 -0.0922  0.1787  0.0793
 7977W        W82965   1.340  31.727   1.152  0.0178  0.3722  0.3273
 7978W        W82966  10.511   2.309   0.092 -0.0878 -0.1697 -0.1851
 7979W        W82967  33.994  26.356  23.005 -0.1296  0.2956 -0.1904
 7980W        W82968  10.523   6.087   2.127 -0.0677 -0.2190  0.0535
 7981W        W82969  11.264  13.826   3.351  0.2193 -0.0243 -0.0414
 7982W        W82970  31.418   0.018  21.618 -0.1828 -0.2739  0.0760
 7983W        W82971  18.691  10.262   8.932 -0.0294 -0.2989  0.2094
 7984W        W82972  30.602  10.143  10.225  0.0713 -0.1617 -0.2805
 7985W        W82973  13.429  19.202   4.734  0.1524  0.1142  0.0628
 7986W        W82974   0.743   2.044  21.066 -0.2292 -0.0875 -0.1872
 7987W        W82975  24.547   0.236  18.614 -0.1300 -0.0294  0.0366
 7988W        W82976  14.312  14.945   5.271  0.0474  0.0742  0.2417
 7989W        W82977   8.596   6.984  25.143  0.0289 -0.1920 -0.2231
 7990W        W82978  20.943  26.950   1.441  0.1271  0.1307  0.0778
 7991W        W82979  21.075   9.956  23.510  0.0160 -0.4244  0.1601
 7992W        W82980  23.099  20.791  15.376  0.0676 -0.0978 -0.0750
 7993W        W82981  30.168  26.528  14.056  0.1977  0.1635  0.0784
 7994W        W82982  19.922  30.687   1.019 -0.1545 -0.0989  0.0413
 7995W        W82983   0.204  24.767  24.156  0.1555 -0.1007  0.0392
 7996W        W82984  13.968   5.348   8.580 -0.1244  0.1615 -0.2732
 7997W        W82985  20.232   8.959   8.142  0.2633  0.1269 -0.0740
 7998W        W82986  27.848  22.272  25.399 -0.2112  0.0205  0.1552
 7999W        W82987   9.171   7.415  21.861 -0.0631  0.1481 -0.0932
 8000W        W82988  16.066   6.533  25.096  0.1649  0.0629  0.2708
 8001W        W82989  26.235  18.408  10.973 -0.0727 -0.0690 -0.1559
 8002W        W82990  12.868   2.317   3.811 -0.1148 -0.0219  0.2077
 8003W        W82991   2.821  34.752   1.975 -0.0614  0.1256  0.0001
 8004W        W82992  25.768  32.696  21.237 -0.0949  0.0250  0.0094
 8005W        W82993   6.072  34.444  10.088 -0.0330  0.1970  0.1101
 8006W        W82994   8.693  22.777   5.173  0.1175  0.2365  0.1654
 8007W        W82995  20.115  29.628  18.781  0.0954 -0.2227  0.2956
 8008W        W82996  34.983   3.874  16.196 -0.0571  0.1980  0.1779
 8009W        W82997   2.336   5.789  25.653  0.3607 -0.1909  0.0148
 8010W        W82998  23.276  23.970  12.628 -0.4315  0.1485  0.2072
 8011W        W82999  22.253  19.349  25.968 -0.0908  0.2616 -0.2776
 8012W        W83000   6.055  29.155   4.997 -0.2382  0.0581  0.1457
 8013W        W83001  20.153  19.381  20.977  0.1634  0.0636 -0.2401
 8014W        W83002  27.955   0.676  24.769  0.1329 -0.0172  0.1621
 8015W        W83003  32.390   8.522   9.451 -0.0682  0.1060  0.1951
 8016W        W83004  13.719   8.201   0.663  0.2987 -0.0507 -0.2318
 8017W        W83005  10.316   9.846  18.950  0.6881  0.2155 -0.0950
 8018W        W83006  34.478  35.104  23.821  0.0184 -0.1453 -0.0060
 8019W        W83007  18.652   5.342   7.364  0.0377 -0.0853 -0.3693
 8020W        W83008   1.416  14.474   1.642 -0.0048  0.2878  0.1208
 8021W        W83009  16.238  10.127   5.832  0.1397 -0.2916  0.0082
 8022W        W83010  10.844  31.094  10.827  0.0956  0.1026  0.0150
 8023W        W83011   3.711  30.030   6.153 -0.2559  0.0429  0.0333
 8024W        W83012  26.409  11.141  20.602  0.0562  0.1386  0.0360
 8025W        W83013  29.537  14.617   8.438  0.1059 -0.0213  0.2482
 8026W        W83014  17.450  31.019  19.300 -0.1443 -0.0764 -0.1355
 8027W        W83015  11.400   6.946  13.405 -0.2108 -0.0529 -0.2141
 8028W        W83016  19.718   0.413  19.471 -0.0686  0.1212 -0.0470
 8029W        W83017  31.964  28.631   0.040  0.0337  0.1036 -0.0856
 8030W        W83018   0.731  25.044  19.071 -0.2035  0.1134  0.0727
 8031W        W83019  30.878  14.905  15.728 -0.0490  0.0925 -0.1670
 8032W        W83020  17.485  25.639  11.150 -0.0908  0.2562  0.2146
 8033W        W83021   2.052   6.027   5.297  0.0051  0.3436  0.1480
 8034W        W83022  23.244  15.520  20.260 -0.0531 -0.0147 -0.2779
 8035W        W83023  28.202  15.043  20.665 -0.1809 -0.1132 -0.0387
 8036W        W83024   7.747  12.910   3.354 -0.1449 -0.0185 -0.2970
 8037W        W83025  29.245  32.791  20.129 -0.0736  0.2240 -0.0151
 8038W        W83026  24.519  34.419  14.906 -0.1576 -0.0686  0.0334
 8039W        W83027  23.536   3.547  22.419 -0.0418  0.3381  0.2851
 8040W        W83028  15.354   9.928   4.645 -0.0556  0.1075 -0.2500
 8041W        W83029  20.268  20.106   2.837 -0.0067 -0.2704 -0.0103
 8042W        W83030  34.893  30.122  23.891  0.2749  0.2137 -0.0244
 8043W        W83031  33.285   6.539  13.659 -0.6109 -0.1560 -0.0841
 8044W        W83032  18.416   5.594  20.989  0.0533 -0.2385 -0.2472
 8045W        W83033  29.770  22.334  10.008 -0.4489 -0.0814  0.1420
 8046W        W83034  26.729  17.102   5.268 -0.0282  0.1903 -0.2489
 8047W        W83035   7.528  16.833  18.722  0.2378 -0.0669 -0.0324
 8048W        W83036  28.643  28.288  17.591  0.1564  0.1798 -0.0249
 8049W        W83037  32.335  20.720  24.524  0.1196  0.0724 -0.0177
 8050W        W83038  33.879   4.387   5.822  0.0758  0.2341 -0.0667
 8051W        W83039   7.753  35.131  21.078 -0.0362 -0.1420  0.2342
 8052W        W83040  30.975  30.590   3.974  0.1683  0.2198 -0.1872
 8053W        W83041  23.026  13.167  12.863 -0.0553  0.2776 -0.1740
 8054W        W83042  16.133   8.634  24.507 -0.1108  0.0270  0.0978
 8055W        W83043  18.127  26.151  25.461 -0.3207  0.3289  0.2095
 8056W        W83044   4.861   0.803  11.219  0.3681  0.0048 -0.1165
 8057W        W83045  33.928  29.766  17.963 -0.0853 -0.2306 -0.0678
 8058W        W83046   9.105  17.900  12.840 -0.1761 -0.1453 -0.1655
 8059W        W83047   6.591  33.408   3.035  0.1134 -0.1846 -0.2506
 8060W        W83048   5.966   2.486  24.550 -0.2532  0.0969 -0.2317
 8061W        W83049  22.327  21.128   3.661  0.0687  0.1848 -0.0424
 8062W        W83050   7.781   6.298   8.123  0.3546  0.1149 -0.1417
 8063W        W83051  17.946  14.824   4.391  0.2871 -0.3037 -0.0945
 8064W        W83052  25.630   0.812   2.157  0.1718 -0.2501  0.3036
 8065W        W83053   7.600   7.585   1.932 -0.1130 -0.0749 -0.0094
 8066W        W83054  17.443  12.240  24.959 -0.0219 -0.0784 -0.2871
 8067W        W83055  19.901  15.917  23.243 -0.0423 -0.1555 -0.3247
 8068W        W83056   7.244  25.403   4.709 -0.0588  0.1439 -0.5987
 8069W        W83057  21.331  31.015   3.607  0.2963  0.2366 -0.1411
 8070W        W83058  27.093  30.260  16.994 -0.0638  0.0367 -0.2128
 8071W        W83059  34.468  20.966  20.841  0.1435  0.0992  0.0991
 8072W        W83060  32.695   2.192   5.686  0.4675 -0.0630  0.2558
 8073W        W83061   7.480  31.996  25.284 -0.0828  0.1081 -0.2375
 8074W        W83062   6.921  12.885   1.320 -0.1144  0.2160 -0.0973
 8075W        W83063  24.478  22.567  17.902  0.0286 -0.3799 -0.2151
 8076W        W83064  22.488  33.172   3.042 -0.0284  0.1876  0.3139
 8077W        W83065  30.230  26.297  19.023 -0.0449 -0.0423 -0.0017
 8078W        W83066   3.744  12.910   4.222  0.1289 -0.1246 -0.2790
 8079W        W83067  23.338  26.514  20.163  0.1203 -0.1659 -0.4086
 8080W        W83068  33.903  20.887  11.754  0.0462 -0.0302 -0.1524
 8081W        W83069   0.044  21.757  19.536  0.1492  0.2093  0.1065
 8082W        W83070  12.488  17.394   5.297  0.1012 -0.0542  0.0968
 8083W        W83071  29.917   7.219  17.030  0.2367  0.1532 -0.1075
 8084W        W83072  18.649  27.692   4.697  0.0053  0.1016 -0.0899
 8085W        W83073  23.727  12.580  24.415 -0.0992 -0.0717 -0.2024
 8086W        W83074  34.115   5.648  12.069  0.1319 -0.1562 -0.0305
 8087W        W83075   1.805  17.801   1.231 -0.1392 -0.5197  0.1935
 8088W        W83076  17.850  14.143   3.869 -0.3453  0.1113 -0.0027
 8089W        W83077  20.096   9.657   5.749  0.2087  0.0986 -0.3807
 8090W        W83078  12.947  16.094  14.817 -0.2871  0.0068  0.1588
 8091W        W83079   0.842  22.267  14.450 -0.0986  0.2316  0.0557
 8092W        W83080  31.444  28.149  19.615  0.2994  0.1695  0.0546
 8093W        W83081  26.968  15.489  12.152 -0.2005  0.0941 -0.3769
 8094W        W83082   1.293   0.379   0.627 -0.0648  0.0007 -0.0296
 8095W        W83083  19.635   8.383  11.656  0.0022  0.1464 -0.0272
 8096W        W83084  16.351  33.634  23.976 -0.1277  0.1481  0.0656
 8097W        W83085  28.429  19.551  12.260  0.4525 -0.1324  0.1737
 8098W        W83086   4.782  31.715   5.117  0.0830  0.0972  0.0142
 8099W        W83087   8.448  26.371  14.635  0.2009  0.1853 -0.3095
 8100W        W83088  16.321  35.174  26.134 -0.1143 -0.0165  0.1235
 8101W        W83089  31.671   9.764  16.343 -0.0937  0.3112 -0.0642
 8102W        W83090  30.187  20.216   7.992  0.0602  0.3732  0.1605
 8103W        W83091  22.908  34.467  19.316 -0.3869 -0.0051  0.2197
 8104W        W83092  28.105  20.294  14.634 -0.0599  0.0343 -0.0488
 8105W        W83093  18.421   6.524   1.243 -0.0039 -0.1578  0.0669
 8106W        W83094  27.998  21.079  16.557  0.0227 -0.3512 -0.0212
 8107W        W83095   6.000  11.668  18.062  0.0298  0.1509  0.2604
 8108W        W83096   1.099   8.469  23.783  0.3160 -0.1717  0.1556
 8109W        W83097  25.617  25.646  15.309 -0.1118 -0.3030 -0.2092
 8110W        W83098  21.548  22.629   0.414 -0.1500  0.1923 -0.2065
 8111W        W83099  33.172   6.308  11.451  0.0692 -0.2090 -0.1582
 8112W        W83100   9.441   9.307  26.106 -0.2646 -0.2941  0.2651
 8113W        W83101  33.996  14.060  26.206  0.0538  0.0705 -0.3651
 8114W        W83102  31.833  15.338  18.892 -0.0710  0.0164 -0.1321
 8115W        W83103  19.145  11.118  24.955  0.0300 -0.0095  0.1670
 8116W        W83104  33.588  24.224  19.958  0.1403 -0.0611 -0.0166
 8117W        W83105  12.683  30.537  25.508  0.0800 -0.1701 -0.2176
 8118W        W83106  35.107  12.108  22.641  0.1418  0.1423 -0.3154
 8119W        W83107  21.066  27.778  22.249 -0.1084  0.4355 -0.0247
 8120W        W83108  32.644  16.282  17.867 -0.2080 -0.1231 -0.1757
 8121W        W83109  34.922   1.688  16.772 -0.3262  0.2925 -0.0893
 8122W        W83110   9.474  11.438  22.991  0.2884 -0.4861  0.3645
 8123W        W83111  17.743   9.216  19.977 -0.2267  0.1147 -0.0152
 8124W        W83112  31.378  24.806  17.113  0.1634  0.0919  0.1890
 8125W        W83113  24.879   3.361  14.066  0.2703  0.1773  0.0162
 8126W        W83114  27.825  19.137  22.133  0.2599  0.0356 -0.0487
 8127W        W83115   8.535   9.572  23.270 -0.2262 -0.1083 -0.0305
 8128W        W83116   0.141   6.037  22.586  0.1900  0.0277 -0.0920
 8129W        W83117  18.385  32.753  16.492 -0.4058 -0.4188 -0.4866
 8130W        W83118  16.760   3.526   7.832  0.2886 -0.0607  0.1992
 8131W        W83119  19.217   6.896  18.721 -0.2214  0.2552  0.0932
 8132W        W83120  23.446   4.354   4.929 -0.0840 -0.1986  0.1056
 8133W        W83121  27.655  30.963  25.328 -0.1116 -0.0957 -0.3566
 8134W        W83122  10.165   1.213  12.936 -0.1358 -0.2010  0.0069
 8135W        W83123  30.003  13.519  10.624 -0.0647 -0.0382 -0.1257
 8136W        W83124  32.993   1.008  16.468  0.1628  0.0521 -0.1178
 8137W        W83125  20.086  16.468  18.340  0.0009 -0.0612 -0.0889
 8138W        W83126  24.473  12.824  14.682 -0.0109 -0.2546  0.0119
 8139W        W83127  29.592  29.378  22.616  0.1537  0.0390 -0.0364
 8140W        W83128  31.875  19.025   6.917  0.1746  0.2508  0.4407
 8141W        W83129  33.554   4.198  25.887 -0.0249 -0.2856 -0.2510
 8142W        W83130   3.186  23.876  20.392 -0.2827 -0.0942  0.2550
 8143W        W83131  17.179  34.876   5.447  0.3809  0.0122 -0.0145
 8144W        W83132  14.885  27.888   1.451  0.0463 -0.0756  0.1166
 8145W        W83133   4.842  32.934   0.756  0.2607  0.1586  0.3084
 8146W        W83134   9.876  27.457  10.208  0.0426  0.1671  0.4078
 8147W        W83135  29.274   8.354  23.367  0.0789  0.2883 -0.0177
 8148W        W83136   8.169  19.863   7.900  0.0346  0.2504 -0.0929
 8149W        W83137   1.910  30.194  25.512 -0.1607 -0.2273  0.1015
 8150W        W83138  35.264   7.682  25.500  0.0761  0.1996 -0.2577
 8151W        W83139  33.273   5.840  20.075 -0.0869  0.0464  0.0883
 8152W        W83140  29.552   2.514  19.827 -0.1584  0.2001 -0.3344
 8153W        W83141  25.855  15.200  17.234  0.0581 -0.4666  0.0564
 8154W        W83142   6.987   0.367  20.976 -0.0810  0.0449 -0.1081
 8155W        W83143  34.627  26.008   1.712  0.0979  0.0136 -0.2651
 8156W        W83144  17.743   7.025   8.587  0.0128  0.0497  0.2888
 8157W        W83145   2.508  33.479   9.487  0.3142  0.5076 -0.2214
 8158W        W83146   1.179  33.086  17.546  0.0748 -0.0471 -0.0787
 8159W        W83147   8.669   3.315  11.764 -0.0789 -0.4469  0.2003
 8160W        W83148  20.173  26.562   3.831  0.0962  0.1188  0.1202
 8161W        W83149  24.690  32.209  18.890  0.2996 -0.0255 -0.2588
 8162W        W83150  15.030  19.087  13.445 -0.1066  0.1459  0.2780
 8163W        W83151   7.725  13.823  25.688  0.1685  0.3721 -0.4621
 8164W        W83152  20.715  34.832  19.133 -0.1184  0.1964 -0.0424
 8165W        W83153  33.409  12.489   0.814  0.1650  0.0365  0.0548
 8166W        W83154  18.873  16.806   1.966 -0.1864  0.0199  0.0356
 8167W        W83155  31.222  24.014  25.808 -0.0248 -0.0378 -0.0519
 8168W        W83156  31.830  33.553  12.276 -0.0798 -0.3869 -0.4471
 8169W        W83157   3.049   4.310   4.467 -0.4465  0.2377  0.4788
 8170W        W83158  15.051  16.579   5.160 -0.2252  0.2804  0.2804
 8171W        W83159  17.030   0.200   2.205 -0.0528 -0.0261  0.2908
 8172W        W83160  29.581   7.356  20.096  0.0686  0.4827 -0.2534
 8173W        W83161  29.655   8.254  11.937 -0.0398 -0.2260  0.1283
 8174W        W83162  31.218  17.688  12.308  0.1945 -0.1489 -0.2497
 8175W        W83163   4.493  29.023   2.186  0.1893 -0.1246  0.1063
 8176W        W83164  33.350  23.757  14.255 -0.0932 -0.0942 -0.0489
 8177W        W83165  20.952  29.031  22.207  0.2181  0.2700 -0.0515
 8178W        W83166   0.966  26.070  16.796  0.2261 -0.1566 -0.1282
 8179W        W83167  32.799   7.270   2.123 -0.0605 -0.3293  0.0592
 8180W        W83168  11.411  31.661  10.755  0.2991  0.1182  0.0216
 8181W        W83169  34.023  13.825  14.547  0.0090 -0.1789  0.1605
 8182W        W83170   7.946   4.456  11.961 -0.0254  0.1013 -0.1276
 8183W        W83171  30.040  28.561  14.364 -0.2480 -0.0454 -0.0351
 8184W        W83172  15.888   0.452   5.548  0.0041  0.0909 -0.0705
 8185W        W83173   9.936  31.786  21.783 -0.1932 -0.0344  0.1759
 8186W        W83174  14.170  25.739  12.952 -0.1916  0.1035  0.3565
 8187W        W83175  33.658  27.187  15.122 -0.1406  0.4084  0.2469
 8188W        W83176  29.908  18.173  12.391  0.2658  0.3431 -0.2135
 8189W        W83177   7.609  26.270  14.373 -0.0669 -0.0156 -0.3333
 8190W        W83178  31.846  30.220  24.930  0.1846  0.2919 -0.0009
 8191W        W83179  19.278  21.644   4.749 -0.1530 -0.0420  0.0444
 8192W        W83180  23.867  17.803  21.709  0.0813  0.4240  0.0151
 8193W        W83181  30.011  12.577  15.626  0.0555 -0.0402 -0.2248
 8194W        W83182  23.446  11.745  19.763 -0.1431 -0.0729  0.2056
 8195W        W83183  21.567  17.663  25.830 -0.0775 -0.0836 -0.0310
 8196W        W83184  22.575  11.379  20.009 -0.0083 -0.0274  0.1509
 8197W        W83185  29.232  28.292  13.619 -0.0893  0.0948  0.2153
 8198W        W83186  17.984  24.879   2.966  0.0888 -0.0450 -0.1987
 8199W        W83187  10.470  21.204  22.385 -0.1222 -0.2724  0.0984
 8200W        W83188  33.299  18.017  21.755 -0.0231  0.0020 -0.0111
 8201W        W83189  25.575  35.103   3.193 -0.1508  0.2647 -0.1838
 8202W        W83190  26.860  12.444   1.157  0.4094  0.0138 -0.3085
 8203W        W83191  29.734  20.218  23.932  0.2882  0.0895  0.0262
 8204W        W83192  25.939   8.867  18.889 -0.1473 -0.0770 -0.2795
 8205W        W83193  27.467   5.062  20.136 -0.1075 -0.0715 -0.2261
 8206W        W83194  33.530  24.268   8.457 -0.1709 -0.2811 -0.0045
 8207W        W83195  15.003  20.860  14.176  0.4234  0.2252 -0.0376
 8208W        W83196  34.194  21.525  25.522  0.2458  0.0121 -0.4952
 8209W        W83197  20.143  24.161   1.258 -0.2949  0.1481 -0.1090
 8210W        W83198  27.678   3.211  26.153 -0.2267  0.4783 -0.0280
 8211W        W83199  15.822  33.206   2.756 -0.2372 -0.0761 -0.1098
 8212W        W83200   5.884  10.470   9.212 -0.4162  0.1235 -0.0062
 8213W        W83201  23.416  10.806   2.698 -0.0889 -0.0636  0.2072
 8214W        W83202  34.650  28.030   0.502 -0.0182  0.2116  0.0175
 8215W        W83203  24.797  28.696   4.226 -0.2267 -0.0092 -0.2236
 8216W        W83204  31.130  27.367  17.448 -0.2498 -0.0108 -0.1024
 8217W        W83205  29.665  28.228  14.973 -0.0711  0.0012  0.0107
 8218W        W83206  30.312   6.460  20.423 -0.1016  0.1339  0.0751
 8219W        W83207  24.473  29.226  23.623  0.3284  0.1188  0.0067
 8220W        W83208  29.658  11.204   9.866 -0.0207 -0.1068 -0.2451
 8221W        W83209  14.787  10.439   3.477 -0.1372  0.0577  0.0691
 8222W        W83210   3.993  28.610  12.483 -0.1906  0.1760 -0.0459
 8223W        W83211  28.567  13.464  21.698 -0.2319 -0.0212  0.0025
 8224W        W83212  15.405   8.980   4.492 -0.4239  0.1812  0.3446
 8225W        W83213   2.781   7.998   1.356  0.2146  0.1795  0.1124
 8226W        W83214   5.559  31.749  21.998  0.1986  0.1860  0.0076
 8227W        W83215  25.195  19.606   9.185  0.0818  0.2907  0.1349
 8228W        W83216  14.252  16.160  22.212 -0.0895  0.0602 -0.0837
 8229W        W83217  11.802   2.030  11.154 -0.3451 -0.2993  0.2087
 8230W        W83218   5.395  28.072   2.251  0.1746  0.1261  0.0673
 8231W        W83219  22.575  13.730  23.202  0.1740  0.1615 -0.1138
 8232W        W83220  10.296  17.929  25.865  0.2868  0.1378 -0.1225
 8233W        W83221  11.643   9.888  11.475  0.1853 -0.1897 -0.0845
 8234W        W83222   9.660  27.143   6.627  0.2188 -0.1541 -0.1190
 8235W        W83223  33.577  34.829   7.603 -0.1721  0.1112 -0.0705
 8236W        W83224  17.305  21.075  24.378  0.3165  0.0991  0.1220
 8237W        W83225  27.675  29.278   1.075 -0.0175  0.0925  0.0869
 8238W        W83226   9.253   7.817  23.910 -0.0556  0.0299  0.4136
 8239W        W83227   0.550  23.306   1.201  0.0679  0.3724  0.0979
 8240W        W83228  23.337  16.951  23.839 -0.2661  0.3915 -0.0681
 8241W        W83229   7.168  33.791  23.943  0.1375  0.1952 -0.1840
 8242W        W83230  33.975  14.616  19.258  0.0999  0.0818  0.0290
 8243W        W83231  34.019  25.293  10.630  0.0916  0.2559 -0.2022
 8244W        W83232  34.361   0.660  22.033 -0.0784  0.1114 -0.0728
 8245W        W83233  33.897  15.420  21.803  0.3063 -0.0040  0.0546
 8246W        W83234  32.753  17.797  23.053 -0.1499 -0.0889 -0.0203
 8247W        W83235   2.785  22.481  22.817  0.3353 -0.0733 -0.1736
 8248W        W83236  32.798  32.024   7.092 -0.5239 -0.0544 -0.0967
 8249W        W83237  23.612  26.894  22.931 -0.0933  0.1362  0.1466
 8250W        W83238   6.580  18.832  19.352  0.1886  0.2601 -0.0594
 8251W        W83239  33.021   6.302   4.884  0.0541 -0.1163  0.0989
 8252W        W83240  22.010   5.504   2.306 -0.1945 -0.2895 -0.0586
 8253W        W83241   9.005  29.047  26.078  0.2334 -0.3589 -0.2384
 8254W        W83242  33.875  23.269  20.523 -0.1751 -0.0769 -0.2569
 8255W        W83243  29.435   1.078   4.033  0.3602  0.0368 -0.1041
 8256W        W83244  27.070  34.650  15.209  0.2154 -0.0803  0.3332
 8257W        W83245  14.727   5.270   7.013  0.1285 -0.0934  0.2508
 8258W        W83246  10.075   0.658   5.289 -0.1912  0.3940  0.1094
 8259W        W83247  32.822   9.456  23.509  0.2079  0.1152  0.2348
 8260W        W83248  21.520  14.330   3.509  0.2795  0.3374 -0.2996
 8261W        W83249  13.695   2.674  21.779 -0.1743 -0.2558 -0.0925
 8262W        W83250  25.295  31.794  24.792  0.0270  0.4579  0.1497
 8263W        W83251   3.278   9.601  21.186  0.0935 -0.1686 -0.2857
 8264W        W83252  22.190  17.445  18.629 -0.0009 -0.2383 -0.4345
 8265W        W83253   8.820   2.080   3.532  0.2180 -0.0450  0.0283
 8266W        W83254  34.127  17.652  22.907 -0.0279  0.2959 -0.1857
 8267W        W83255  17.945  18.078  10.217 -0.2161 -0.3653 -0.1580
 8268W        W83256  18.694   6.157   8.652 -0.0351 -0.1739 -0.0062
 8269W        W83257  18.195   1.959   4.582  0.1561  0.4239  0.0093
 8270W        W83258  16.349  23.377  15.071  0.1398  0.1027 -0.1338
 8271W        W83259   1.600  30.604   5.737 -0.2678  0.0659  0.2972
 8272W        W83260  18.508  18.166   0.453  0.0722  0.2788  0.3204
 8273W        W83261  25.366  31.105   0.951  0.2311  0.1900 -0.1128
 8274W        W83262  19.103  10.084  21.235 -0.0931 -0.2377 -0.2436
 8275W        W83263  21.408  10.201   3.422  0.1639 -0.0218  0.0626
 8276W        W83264  13.673  34.896  26.237 -0.0956  0.1780 -0.0500
 8277W        W83265  19.702  28.769  24.715 -0.0562 -0.0399 -0.1734
 8278W        W83266  32.689  15.418   8.059  0.0445  0.0029 -0.0343
 8279W        W83267   4.557  20.703  21.969  0.0198  0.0779 -0.1862
 8280W        W83268  32.178  34.693  25.280 -0.4104 -0.1050  0.3293
 8281W        W83269  23.203  10.383   2.510  0.0202  0.0062  0.1369
 8282W        W83270  17.232  29.800   6.095  0.2132  0.3374  0.1016
 8283W        W83271  33.826  34.981   4.693 -0.1649 -0.0734  0.1730
 8284W        W83272  18.582  21.000  23.887  0.4384 -0.0207 -0.0016
 8285W        W83273  19.106   1.998  18.306  0.0266 -0.0815  0.2911
 8286W        W83274  15.888  23.482  25.585  0.2114 -0.0396  0.3148
 8287W        W83275  22.412  27.678   0.477  0.0981 -0.2869 -0.1455
 8288W        W83276  30.715  25.615  17.549  0.0747  0.1217 -0.0094
 8289W        W83277   9.406  10.322  24.308 -0.3052  0.1743 -0.2548
 8290W        W83278  17.939   2.529  19.465  0.0825  0.0576  0.0871
 8291W        W83279  20.931  11.322   7.122 -0.1504 -0.1766 -0.0763
 8292W        W83280   6.688   2.412  20.410 -0.1763 -0.1829  0.0977
 8293W        W83281   5.359  20.938   6.497  0.1067  0.0931  0.0510
 8294W        W83282  15.740   9.287   7.314 -0.2772 -0.1565 -0.1295
 8295W        W83283   1.932  26.714  17.551  0.0094  0.0280 -0.1264
 8296W        W83284   9.761   6.415  10.629 -0.2037  0.1110  0.0353
 8297W        W83285   5.634  27.730  11.701  0.0934  0.0436  0.2343
 8298W        W83286  27.600  13.334  21.063  0.1966  0.1935  0.2435
 8299W        W83287  26.352  33.932  11.429  0.0473 -0.0281  0.0436
 8300W        W83288   5.126  30.436   8.546  0.1396  0.3928  0.0004
 8301W        W83289  28.325  26.016  21.495 -0.2137  0.1320  0.0337
 8302W        W83290  14.110   9.537  19.167  0.2720  0.0178 -0.4814
 8303W        W83291   8.185  23.658  10.072  0.3074  0.1334  0.2564
 8304W        W83292   4.048  10.093  14.775  0.0948 -0.2687 -0.1677
 8305W        W83293  14.898  30.343   0.758 -0.0516  0.0200  0.0119
 8306W        W83294  31.620  12.571  10.484  0.0729 -0.0607 -0.2297
 8307W        W83295  25.959  17.684  25.378  0.0725  0.0576 -0.3275
 8308W        W83296  26.370   7.534  18.318 -0.3225  0.0843  0.1853
 8309W        W83297  21.792  26.606  23.300 -0.1402  0.1536  0.0464
 8310W        W83298  28.560  20.608  15.053 -0.3505  0.0913 -0.0988
 8311W        W83299  17.681   5.306  18.409  0.2062 -0.0112  0.0767
 8312W        W83300  27.567   1.331  11.402  0.1623  0.0012 -0.0611
 8313W        W83301  23.561   0.817   4.162 -0.0544  0.2820  0.0096
 8314W        W83302  17.045  31.925  25.538  0.2909  0.0707 -0.1971
 8315W        W83303  35.182  34.791  25.950  0.0895 -0.1247  0.1997
 8316W        W83304  34.677  12.530  15.626 -0.1675 -0.1366  0.0748
 8317W        W83305  30.924   5.620  15.150 -0.0964  0.0502  0.0211
 8318W        W83306  13.157  35.098   8.883  0.1146  0.1122  0.1822
 8319W        W83307  15.096   3.199   6.370 -0.1365  0.1775  0.2791
 8320W        W83308  19.782  15.770   6.269  0.1321 -0.0544  0.1094
 8321W        W83309  27.255  16.731  10.091 -0.0161  0.0278  0.1979
 8322W        W83310  27.138  35.072  11.832 -0.1223  0.1489 -0.2049
 8323W        W83311  13.250  24.885   7.098  0.0462  0.1276 -0.0186
 8324W        W83312   6.290  23.139   7.098 -0.2938 -0.0049  0.0355
 8325W        W83313  29.477  21.289  23.645 -0.2706  0.0493 -0.1350
 8326W        W83314   4.896  11.412  19.442 -0.0216  0.0351 -0.2772
 8327W        W83315  15.224  34.641   5.457 -0.0745 -0.0077 -0.0310
 8328W        W83316  25.941   6.363  14.314 -0.0372 -0.1198 -0.2137
 8329W        W83317  29.375   6.356  24.016  0.3061 -0.2911  0.0702
 8330W        W83318   8.114  15.209   8.816  0.0111 -0.3154 -0.0742
 8331W        W83319   7.874  20.012  21.952 -0.1345 -0.2191 -0.1142
 8332W        W83320  27.334  15.048  25.762 -0.0370  0.0430  0.2359
 8333W        W83321  33.084  14.662  11.254 -0.1074  0.0431  0.1759
 8334W        W83322   5.050  20.567  21.228  0.0387  0.0442  0.0509
 8335W        W83323  26.988  28.385  21.796 -0.2556  0.1831 -0.0832
 8336W        W83324   5.712   4.477  22.937  0.0311  0.0883 -0.0203
 8337W        W83325   1.849   3.754  15.108 -0.2453 -0.2931  0.0246
 8338W        W83326   0.148  12.717   8.613  0.1856  0.0437  0.0755
 8339W        W83327  22.638  33.843   4.495 -0.1616 -0.2044 -0.0453
 8340W        W83328  18.198  30.733  20.540  0.0640 -0.4790 -0.0642
 8341W        W83329  33.250  12.754  23.367 -0.0936 -0.0682 -0.1345
 8342W        W83330   3.866  26.316   2.301 -0.0408 -0.0437  0.0148
 8343W        W83331  12.600  29.177  22.286 -0.2358 -0.2285 -0.1119
 8344W        W83332  33.866  28.671   5.984  0.4420 -0.2192  0.1275
 8345W        W83333  25.110  33.272   3.213 -0.1087  0.2607 -0.0849
 8346W        W83334  28.918  25.453   9.190  0.0417  0.1342 -0.3185
 8347W        W83335  13.101  11.259   2.295 -0.2522  0.2130  0.0286
 8348W        W83336  15.301  11.980  24.631 -0.0847 -0.0297 -0.0629
 8349W        W83337  30.919  33.286   2.991 -0.1703  0.0974  0.1567
 8350W        W83338  12.430   4.429   0.283 -0.2782 -0.2282  0.1463
 8351W        W83339   3.561   9.822   5.292  0.1185 -0.1071 -0.1157
 8352W        W83340  15.006  24.885  23.455 -0.1884  0.0994 -0.2319
 8353W        W83341   1.105   5.035   3.342 -0.0186 -0.2983 -0.0245
 8354W        W83342  17.773   8.026  11.813 -0.0717  0.0034 -0.0126
 8355W        W83343  10.273  12.247  25.828  0.0175 -0.0013 -0.2148
 8356W        W83344  22.333  27.399  25.664  0.0384 -0.4756 -0.0551
 8357W        W83345  18.633  24.407   7.313  0.0258 -0.1212 -0.0422
 8358W        W83346  28.726  19.169   9.741  0.2103  0.0819  0.0597
 8359W        W83347  17.624  19.906   6.656 -0.0214 -0.0770 -0.0701
 8360W        W83348  18.537   0.963   4.742  0.0283 -0.1227 -0.3226
 8361W        W83349  13.458  12.628  11.135  0.3045 -0.2732 -0.1838
 8362W        W83350  20.015   6.588   6.541 -0.0162 -0.0293  0.1643
 8363W        W83351   4.045  16.997  19.724 -0.2322 -0.0630 -0.1129
 8364W        W83352  21.240  30.163  22.901  0.0490 -0.1035 -0.0877
 8365W        W83353  13.738  13.694  10.530 -0.1557  0.1452  0.0183
 8366W        W83354  28.158  14.500  19.481  0.4242 -0.0776  0.0010
 8367W        W83355  28.219  11.394  11.166 -0.1583 -0.0257 -0.2665
 8368W        W83356  23.140  21.510  19.480 -0.2486  0.2260  0.0982
 8369W        W83357  11.854   6.688  13.163  0.0410  0.2798  0.2851
 8370W        W83358  25.134  28.449  20.981 -0.1382  0.0420  0.0906
 8371W        W83359   7.770  11.631   2.729  0.1928  0.0089 -0.2239
 8372W        W83360  31.799   7.851  23.124 -0.0067 -0.0884 -0.1411
 8373W        W83361  13.848   0.322   5.714 -0.2440 -0.0447  0.3524
 8374W        W83362  31.456   2.771   5.790 -0.2134 -0.0529  0.0428
 8375W        W83363  15.908  27.863  21.170 -0.0571 -0.0171  0.3207
 8376W        W83364   0.963  23.905  16.703 -0.0050  0.0844  0.0118
 8377W        W83365  18.318  14.894   2.180  0.1662 -0.0860  0.1953
 8378W        W83366  22.420   1.576   6.243  0.0824  0.0299 -0.2712
 8379W        W83367  14.346   5.272  22.354  0.1479  0.2286  0.0233
 8380W        W83368  13.182   7.854   1.456 -0.0976  0.1024 -0.1993
 8381W        W83369   1.743  15.922  12.239  0.0735 -0.3316 -0.2201
 8382W        W83370   7.481   5.910  11.770 -0.3136  0.2827  0.0382
 8383W        W83371  26.407   2.681  12.176  0.2374  0.1700  0.0369
 8384W        W83372  27.118   7.181   0.050 -0.0776  0.2694 -0.0947
 8385W        W83373  19.811  23.496  21.279 -0.0117 -0.2176  0.2514
 8386W        W83374  12.713   6.148  11.326 -0.2529  0.1019  0.2856
 8387W        W83375  11.768  15.733  11.209  0.1835  0.2168  0.2482
 8388W        W83376   9.270  33.471   4.245 -0.2813  0.1899 -0.2060
 8389W        W83377   3.192  30.898  21.027 -0.0987 -0.1894 -0.1647
 8390W        W83378  35.172  12.353  24.358 -0.2371 -0.1556  0.0707
 8391W        W83379   5.825  32.294  21.383 -0.1767  0.2420  0.0771
 8392W        W83380  19.563   8.505  24.146  0.1893 -0.1420  0.4008
 8393W        W83381  20.555  23.224  20.407 -0.0929 -0.0788 -0.2656
 8394W        W83382  34.286  19.593   7.706  0.0861  0.1493  0.1536
 8395W        W83383   3.931  12.776  22.580 -0.1535 -0.0781 -0.1054
 8396W        W83384  15.617  16.913   1.066 -0.0062 -0.1322  0.0186
 8397W        W83385   4.690  23.771  19.934 -0.2876 -0.0078  0.2287
 8398W        W83386   6.842  27.935   4.469  0.2269 -0.0050  0.2225
 8399W        W83387  31.781   5.071  20.043  0.0176 -0.3894 -0.0160
 8400W        W83388  19.884  15.424  20.588 -0.2635  0.0610 -0.0209
 8401W        W83389   5.261  30.835   1.265  0.0145 -0.3157 -0.2385
 8402W        W83390  28.390   5.459  13.024  0.3046  0.1153 -0.0143
 8403W        W83391  18.621   4.723  23.695  0.4076  0.0006 -0.1888
 8404W        W83392  12.485  24.076  14.888 -0.2595 -0.1411 -0.4136
 8405W        W83393  33.902  35.183  16.640  0.2594 -0.0116  0.1699
 8406W        W83394  21.868  33.873   1.999 -0.1783 -0.2153 -0.0602
 8407W        W83395   3.771   1.541   9.404  0.1313 -0.0415 -0.1438
 8408W        W83396  16.512  12.711  20.831  0.0910  0.2166  0.0821
 8409W        W83397  23.872  21.751   1.388  0.0790  0.0621  0.0182
 8410W        W83398   1.334  18.430  17.967  0.1205  0.0400 -0.1390
 8411W        W83399   1.834  10.284  17.830 -0.0982 -0.0182 -0.2321
 8412W        W83400  28.424   0.157   6.530 -0.0141 -0.0862 -0.0731
 8413W        W83401   2.379  24.030  23.565  0.3977  0.0802  0.2480
 8414W        W83402   8.973  31.423   6.225  0.3095  0.1811 -0.3159
 8415W        W83403   7.607  12.672   8.678 -0.0961 -0.3538 -0.1095
 8416W        W83404  29.534   8.586  21.879  0.2502  0.1091  0.0478
 8417W        W83405  22.403  33.516  20.730 -0.1713 -0.1883 -0.0206
 8418W        W83406  12.788  28.354  23.632 -0.0610  0.0086  0.2384
 8419W        W83407  13.943  27.036   7.793 -0.1559 -0.2818 -0.0191
 8420W        W83408   9.590   6.658  11.028 -0.2003 -0.0716 -0.0753
 8421W        W83409  28.599   6.887  15.383 -0.3275 -0.0408  0.0997
 8422W        W83410   0.539   8.114  14.289  0.0992  0.0108 -0.1933
 8423W        W83411  18.040  23.788  25.955 -0.3354  0.0586 -0.0635
 8424W        W83412  25.368  34.066   4.315 -0.2994  0.3532 -0.4099
 8425W        W83413   9.784   6.632   2.144  0.1816  0.1262 -0.0831
 8426W        W83414   4.424  21.729  23.329 -0.3037  0.2843  0.0055
 8427W        W83415  32.105  19.562  10.360  0.2004  0.0563 -0.2102
 8428W        W83416  20.726   1.218   8.709  0.0560  0.1435 -0.0418
 8429W        W83417  23.271   9.118  20.954  0.0446  0.0476  0.2024
 8430W        W83418   0.987  31.073   9.217  0.0870  0.2038 -0.0374
 8431W        W83419  20.501  19.615  23.412  0.1541  0.0645 -0.0084
 8432W        W83420   3.871  19.987  21.989 -0.1203  0.1648 -0.2078
 8433W        W83421  12.324  22.576   4.249 -0.0731 -0.0240  0.1929
 8434W        W83422  12.569  23.032   1.972 -0.0143  0.1821  0.1873
 8435W        W83423  19.808  29.553  24.102  0.2179 -0.2300  0.0300
 8436W        W83424  15.477  15.705  25.104  0.2519  0.2191 -0.0894
 8437W        W83425  10.131  31.566   9.620  0.1183 -0.1833  0.1388
 8438W        W83426   7.544   1.782  26.043 -0.0227 -0.2569 -0.0597
 8439W        W83427  30.159  18.353  21.718  0.1526  0.1531  0.1778
 8440W        W83428  16.546  15.457  23.712  0.0829 -0.1280  0.2258
 8441W        W83429  14.703  28.413  23.767  0.1906 -0.1721  0.4205
 8442W        W83430  25.429  18.016  25.510 -0.0871 -0.0773 -0.1572
 8443W        W83431  12.078   0.889  20.825 -0.0155  0.1843 -0.1786
 8444W        W83432   1.582  14.949  23.152 -0.0619 -0.0538 -0.0707
 8445W        W83433  26.794   2.674  22.773 -0.0887 -0.0347  0.1162
 8446W        W83434   1.762  29.100   1.112  0.3681  0.0054  0.0413
 8447W        W83435   5.654  29.114  22.108  0.0311 -0.0617 -0.0390
 8448W        W83436   7.799   8.645   4.693  0.1302 -0.0900  0.1942
 8449W        W83437  27.506  30.651  16.972  0.2822 -0.1856 -0.2543
 8450W        W83438  31.144  20.920  17.943  0.0360  0.0089 -0.1349
 8451W        W83439  26.280  33.268  23.177 -0.1593 -0.2524  0.0836
 8452W        W83440  30.045  30.424  21.414  0.1166 -0.1362 -0.0054
 8453W        W83441  29.775   3.750  21.106  0.1393  0.2354  0.1327
 8454W        W83442  21.874   9.294   0.194  0.1039 -0.0950 -0.1335
 8455W        W83443  30.231  31.158  12.567 -0.2007 -0.4441  0.4013
 8456W        W83444   5.313  20.018  18.803  0.1828  0.0806 -0.0357
 8457W        W83445  15.473  25.558  25.383  0.0121 -0.0709 -0.0032
 8458W        W83446   2.899  33.348   9.865 -0.1867  0.0232  0.0494
 8459W        W83447  12.625  17.463   7.412 -0.0175 -0.1443  0.1359
 8460W        W83448  24.199  25.123  19.501  0.0577 -0.0766 -0.1553
 8461W        W83449  19.469  12.920  18.719 -0.0328 -0.1495 -0.1382
 8462W        W83450  17.871   5.686  24.157 -0.0306  0.2217 -0.1768
 8463W        W83451  19.575  34.420  25.477 -0.1410  0.0812 -0.0414
 8464W        W83452  25.033  34.328  23.609 -0.0281  0.1678 -0.0449
 8465W        W83453  34.629  30.767  16.677  0.0548  0.4778 -0.2861
 8466W        W83454  14.050  11.542  14.000  0.0565  0.2447 -0.0363
 8467W        W83455   9.417   4.305  25.990  0.1040 -0.0427  0.0787
 8468W        W83456  19.045   9.900  22.332 -0.0343 -0.3464 -0.2616
 8469W        W83457   2.001   1.538  22.569  0.0613  0.1028 -0.1886
 8470W        W83458   6.336  30.860   4.717 -0.1664 -0.0687  0.0297
 8471W        W83459  34.793   7.568  23.622  0.2262  0.2837 -0.3649
 8472W        W83460   0.131  31.233  23.533  0.0626 -0.1734  0.0636
 8473W        W83461  16.008  30.791  23.715  0.1362  0.3597  0.1238
 8474W        W83462  30.852   2.200  17.944  0.2628  0.1197  0.0492
 8475W        W83463  21.978  14.524  21.795 -0.2573  0.1571  0.1442
 8476W        W83464  18.655  33.156  22.202  0.0455  0.1329  0.0024
 8477W        W83465  29.608  26.369   9.544  0.2020 -0.1487 -0.3219
 8478W        W83466  29.798  29.442  21.682  0.5392  0.0410 -0.0640
 8479W        W83467  24.049  25.678  24.022  0.0885 -0.0718  0.0770
 8480W        W83468  20.458  26.716  25.897  0.1926  0.0323  0.2469
 8481W        W83469  25.908  26.282  15.377 -0.1929  0.4244  0.3827
 8482W        W83470  15.069   4.262   0.132 -0.1811 -0.0272  0.0554
 8483W        W83471  14.501   0.297  24.895 -0.0956  0.1015 -0.0791
 8484W        W83472  10.662  21.645  24.571 -0.2090  0.2905 -0.2328
 8485W        W83473   0.561  17.054  23.353  0.3627  0.0969  0.0595
 8486W        W83474  14.710  30.330  12.809 -0.0378 -0.0014 -0.1690
 8487W        W83475   6.888  19.098   0.663  0.0228 -0.2667 -0.0557
 8488W        W83476  19.542  13.045  19.725 -0.2440 -0.1313  0.0705
 8489W        W83477  15.782   4.226  18.577 -0.3865  0.3617  0.1268
 8490W        W83478   0.447  25.339  24.957  0.0288  0.0681  0.0820
 8491W        W83479   7.400  32.259  24.835 -0.0111  0.1743  0.2178
 8492W        W83480  32.718  31.455  18.633 -0.1630 -0.2406  0.3249
 8493W        W83481   7.844  17.151  18.503  0.0892 -0.1962  0.4322
 8494W        W83482   1.738  14.762   1.390 -0.0600  0.1294 -0.0206
 8495W        W83483  13.167  20.709   3.150  0.0086  0.1862 -0.0533
 8496W        W83484  34.083   7.746  19.564 -0.0439 -0.4539 -0.0088
 8497W        W83485  34.704  25.318  15.160  0.6190 -0.0007  0.0342
 8498W        W83486  31.162  22.867  18.296  0.1138  0.2372 -0.0720
 8499W        W83487  21.400  26.988   1.489  0.0624 -0.0754 -0.1485
 8500W        W83488  13.240  12.422  20.661  0.1183 -0.1434 -0.0520
 8501W        W83489   0.353   6.726  21.111  0.0850 -0.1009  0.3098
 8502W        W83490  22.663  13.736  16.840 -0.1161  0.0224  0.2898
 8503W        W83491  33.945  20.045  19.785 -0.0030  0.0653  0.0047
 8504W        W83492  10.175  24.014  13.560  0.0780  0.0713 -0.0442
 8505W        W83493  31.594   7.203  19.787 -0.2717  0.0653  0.0555
 8506W        W83494  24.850   2.154  14.482 -0.3322  0.1606 -0.1598
 8507W        W83495  14.116  32.125  24.594  0.0834  0.0798 -0.0209
 8508W        W83496  17.451   4.469  25.889 -0.0459 -0.1316  0.0776
 8509W        W83497  13.199   7.566  24.967 -0.1031 -0.3330  0.4145
 8510W        W83498   2.860   3.900   4.710  0.0491 -0.0910 -0.1909
 8511W        W83499  17.021   8.901  12.400 -0.0166  0.1542 -0.3778
 8512W        W83500  30.646  28.827  13.112 -0.2240  0.1405 -0.2338
 8513W        W83501   1.505  15.129  10.972 -0.0174 -0.0623  0.2099
 8514W        W83502   6.650  17.185  25.558 -0.3054 -0.2244 -0.1229
 8515W        W83503  34.779   1.215  24.545  0.0152 -0.0788  0.0008
 8516W        W83504  30.526  30.843  11.286 -0.1651 -0.0243  0.0086
 8517W        W83505  10.325  24.122   0.380  0.0848 -0.1594  0.0729
 8518W        W83506   0.187  35.086  14.667  0.0830 -0.0624  0.1438
 8519W        W83507  33.341   6.184   3.725  0.0735 -0.2471  0.0800
 8520W        W83508  28.004   0.401   1.360  0.0140 -0.0958 -0.0397
 8521W        W83509  29.707   5.259  20.689 -0.1470 -0.0262  0.2123
 8522W        W83510  32.999   9.376  19.130 -0.0094  0.0661  0.0400
 8523W        W83511  21.194  31.421   1.292 -0.0216 -0.2696  0.1101
 8524W        W83512  23.838  30.186  24.576  0.3451 -0.3364 -0.0036
 8525W        W83513  34.424   8.125  10.797 -0.0169  0.0904 -0.3165
 8526W        W83514   8.950  16.716  22.620 -0.1864  0.0948  0.2715
 8527W        W83515   9.435  34.778  15.182 -0.1532  0.0664  0.3056
 8528W        W83516  30.300   7.591  14.811 -0.1465 -0.1080 -0.0977
 8529W        W83517   1.365  15.427   0.706 -0.1589 -0.0014  0.1331
 8530W        W83518  10.608  16.649   9.551 -0.3484  0.2133  0.1940
 8531W        W83519  28.940  12.023  10.958  0.0396 -0.1576  0.0961
 8532W        W83520  29.119   8.956   9.585 -0.0007 -0.0355  0.4255
 8533W        W83521  30.427  15.993  14.351 -0.0565 -0.3462 -0.0370
 8534W        W83522  10.318  21.617  17.156 -0.2253 -0.2305 -0.0966
 8535W        W83523  33.981  22.547  17.490 -0.3764 -0.3100  0.2563
 8536W        W83524   0.373  30.309   8.109  0.1371  0.0908  0.0257
 8537W        W83525  23.328  24.129  18.586 -0.0159 -0.1224  0.1047
 8538W        W83526   8.308   5.122  25.333  0.1041 -0.0783  0.1240
 8539W        W83527  14.771  29.854  12.712 -0.0540  0.2163 -0.0017
 8540W        W83528  28.791  24.716  24.428 -0.0259 -0.0741  0.2875
 8541W        W83529  27.744  28.583  21.462 -0.2626  0.2020 -0.1370
 8542W        W83530   5.361  31.072   1.698 -0.3569 -0.2693  0.0826
 8543W        W83531  18.098  27.725   2.944 -0.0765  0.3160  0.1324
 8544W        W83532  30.483   9.108  10.037 -0.0482 -0.4233  0.1668
 8545W        W83533   0.553   5.063  25.291  0.0205 -0.0396  0.0984
 8546W        W83534  11.640  11.778   2.459  0.0277  0.2242 -0.1464
 8547W        W83535  12.091   2.720   7.633 -0.1621 -0.0861 -0.0419
 8548W        W83536  24.599   4.610  21.183  0.2586 -0.2109 -0.0894
 8549W        W83537  32.745  31.129   3.285  0.0789 -0.0922  0.1021
 8550W        W83538   0.439  26.969   5.208  0.0805 -0.1408 -0.2484
 8551W        W83539  32.301   1.710   3.188 -0.1929  0.1178  0.3047
 8552W        W83540  31.965   9.952  20.945  0.2188 -0.1816 -0.1066
 8553W        W83541  14.359  13.677  10.185 -0.1701 -0.0131 -0.1989
 8554W        W83542  34.562   5.331  11.926 -0.0735  0.1643  0.0656
 8555W        W83543  31.670   9.680   0.667 -0.0199 -0.2013 -0.1574
 8556W        W83544  14.714  32.702   6.866  0.3051  0.1575 -0.6292
 8557W        W83545  34.473  14.648  21.165  0.0425  0.2342 -0.0578
 8558W        W83546  18.935  31.766   5.227  0.1113 -0.1433 -0.0746
 8559W        W83547  34.281  34.188  15.222  0.1456 -0.0506  0.2863
 8560W        W83548  18.092  16.401  18.737  0.0848  0.0026  0.2163
 8561W        W83549  18.044   3.276   9.425 -0.3420 -0.0072 -0.1401
 8562W        W83550   4.222   7.648   3.714  0.1865 -0.0149  0.0963
 8563W        W83551  32.037   1.963  24.651  0.1358  0.1867  0.0097
 8564W        W83552  32.669   2.736  21.901 -0.1055 -0.0576  0.2828
 8565W        W83553  30.822   2.778  19.373  0.0406 -0.1047 -0.2501
 8566W        W83554   5.319  35.328   3.076 -0.1322  0.2442 -0.1950
 8567W        W83555  18.627  33.516  22.700  0.0855  0.0361  0.1469
 8568W        W83556   0.599  34.661   5.405  0.2763 -0.1490 -0.0408
 8569W        W83557  19.294   3.698  18.324  0.0393 -0.1097  0.0334
 8570W        W83558  16.562   1.331  23.285 -0.0967  0.0402  0.1768
 8571W        W83559   7.239  11.071  24.282  0.3724  0.1405  0.0036
 8572W        W83560  26.343  34.631  14.545 -0.1051  0.0040  0.2184
 8573W        W83561  19.389  20.162  20.391 -0.0887  0.2374  0.2894
 8574W        W83562  30.298   8.414  25.806 -0.1907  0.2293 -0.0682
 8575W        W83563  16.387  22.747   0.703 -0.2145 -0.0290  0.1158
 8576W        W83564  19.425  32.952  20.340 -0.1427 -0.1756  0.2440
 8577W        W83565  31.582  29.290   3.544 -0.1401 -0.1432  0.1387
 8578W        W83566  22.929   8.394  18.966  0.1055  0.0444  0.2166
 8579W        W83567  35.097  27.937  18.911  0.1586  0.0515 -0.0861
 8580W        W83568  12.307   9.383   0.420 -0.0564 -0.0117 -0.0973
 8581W        W83569   7.847  18.108  24.211  0.0479 -0.0127 -0.3167
 8582W        W83570   6.969  17.120   6.899 -0.3427 -0.0694 -0.2016
 8583W        W83571  17.028  29.592  10.404 -0.0832  0.1622 -0.0964
 8584W        W83572  14.181  16.754   7.786 -0.0829  0.0297  0.3711
 8585W        W83573  26.831   5.512   1.799 -0.0563 -0.2878  0.0142
 8586W        W83574   1.968  31.581  23.230 -0.1526  0.0188  0.0494
 8587W        W83575  33.871  29.566  14.562 -0.0068  0.1034  0.2781
 8588W        W83576  27.689  12.401  19.291  0.2454 -0.0609 -0.0095
 8589W        W83577  34.467   0.629   2.762  0.1083  0.0014 -0.1966
 8590W        W83578  11.543  14.040   0.465  0.0187 -0.0412  0.2472
 8591W        W83579   1.089  25.373   3.877  0.1550  0.2239  0.2723
 8592W        W83580  20.523  14.986   5.692 -0.1947  0.1123  0.0777
 8593W        W83581   1.835  16.228  14.463  0.0450  0.0249  0.4568
 8594W        W83582   7.640  29.214   4.837  0.0688 -0.0005  0.0911
 8595W        W83583   0.369  27.768   0.014  0.0665  0.0485 -0.0404
 8596W        W83584  10.409  16.561  12.322 -0.2960  0.0240 -0.0012
 8597W        W83585  27.009  28.594  23.298 -0.1128  0.1517 -0.1147
 8598W        W83586  10.558  12.101  20.551  0.0685 -0.2725  0.0319
 8599W        W83587  14.824  33.755   1.141 -0.0179 -0.0274  0.3832
 8600W        W83588   7.366  23.680  14.913  0.3111  0.2255 -0.1405
 8601W        W83589   0.714  22.768  14.292 -0.1202  0.1317  0.3675
 8602W        W83590   7.536   6.477  24.126  0.4878 -0.0919 -0.1985
 8603W        W83591  11.958  34.386  23.435  0.1405  0.0346  0.1246
 8604W        W83592   6.980  14.679  20.016 -0.0572  0.1453 -0.0642
 8605W        W83593  18.044   1.061  23.065 -0.0468  0.2759 -0.0528
 8606W        W83594  35.297  29.167  15.558 -0.0414  0.0649  0.0536
 8607W        W83595  12.366   3.003   5.581 -0.1771  0.0197 -0.1830
 8608W        W83596  19.741   4.458   9.816  0.1539  0.0649 -0.0221
 8609W        W83597  21.579   7.516   4.090  0.1812 -0.1371 -0.0804
 8610W        W83598  22.412   9.098  25.040  0.2603 -0.1934 -0.3417
 8611W        W83599  27.471   7.036   8.666  0.2321 -0.0359  0.0310
 8612W        W83600   6.445  14.977   8.802  0.2641  0.0626 -0.1220
 8613W        W83601  15.591  23.154  10.436 -0.1410 -0.0067 -0.2729
 8614W        W83602  25.610   9.108  18.118  0.1650 -0.2144 -0.0596
 8615W        W83603  15.872  23.820  24.942 -0.0467 -0.6888 -0.0255
 8616W        W83604   6.945  15.450   0.858  0.2223  0.0665 -0.0292
 8617W        W83605  30.209  23.091   9.620 -0.1279  0.0605 -0.0169
 8618W        W83606  27.643  11.183   7.327  0.1324  0.1716 -0.0564
 8619W        W83607  11.559  12.377   4.515  0.0737 -0.3910 -0.2533
 8620W        W83608  29.649   9.003  22.688  0.2933 -0.3640  0.2018
 8621W        W83609  21.172  30.646  18.851  0.0594 -0.2051  0.0566
 8622W        W83610  20.779   5.832  17.448  0.1900 -0.0404  0.2678
 8623W        W83611  23.846  27.972  21.210  0.1169 -0.0337 -0.0847
 8624W        W83612   3.928   7.317   8.647 -0.0691 -0.2057 -0.0562
 8625W        W83613  30.301  32.638   5.073 -0.1349  0.2393 -0.2198
 8626W        W83614  33.560  25.899  11.581  0.0469  0.1880 -0.1305
 8627W        W83615   3.237  17.201   2.952 -0.4690  0.1563  0.0746
 8628W        W83616  18.120  13.313   9.880 -0.1611 -0.1308 -0.0870
 8629W        W83617  25.027   3.535  16.105  0.1492  0.1530 -0.3487
 8630W        W83618   6.407  13.023  23.650  0.2172 -0.0207  0.0139
 8631W        W83619   0.690  17.518   9.624  0.3039  0.1256 -0.0917
 8632W        W83620   3.810  29.351   2.804 -0.3195  0.0635 -0.1723
 8633W        W83621  24.253   3.852   7.013 -0.1558  0.1896 -0.2586
 8634W        W83622  10.025  20.716   0.826 -0.0527  0.0401 -0.2874
 8635W        W83623  15.252  22.382   5.783  0.0646 -0.0295 -0.1552
 8636W        W83624  30.964   5.327  19.563  0.1331 -0.1133 -0.0541
 8637W        W83625  32.436  34.057  12.913 -0.1309  0.0521  0.5031
 8638W        W83626  22.889  25.665   1.860  0.3922 -0.1749  0.1523
 8639W        W83627  19.569   6.811   6.753 -0.0941 -0.0537 -0.1709
 8640W        W83628  25.181  10.353   3.101 -0.1389 -0.0735  0.0719
 8641W        W83629  23.192  16.835  24.757  0.1413  0.1394 -0.0872
 8642W        W83630  18.202   0.759  19.498 -0.1900  0.0112 -0.1404
 8643W        W83631  11.175  31.621  22.384  0.0161 -0.1853 -0.0537
 8644W        W83632  13.815  29.653   2.588 -0.1527 -0.2017 -0.1936
 8645W        W83633  17.265  17.170   6.021  0.0860  0.2083 -0.0029
 8646W        W83634   1.845   1.166  25.142  0.2963  0.3809 -0.2382
 8647W        W83635   8.186  10.589   0.539  0.3696 -0.1511  0.2067
 8648W        W83636  21.573   9.187   6.933 -0.0504 -0.1481 -0.0901
 8649W        W83637  13.204   2.154   5.263  0.2514 -0.2122 -0.0323
 8650W        W83638  25.961  15.876  18.504  0.1952 -0.1421 -0.2269
 8651W        W83639  22.990  16.919  21.680  0.3297 -0.2470  0.0549
 8652W        W83640  19.383  28.561  22.908 -0.0852  0.1817 -0.1654
 8653W        W83641  33.724  28.325  20.880  0.0805  0.2064  0.1202
 8654W        W83642  10.488  14.668   9.946  0.0306  0.1868 -0.1098
 8655W        W83643  11.973  25.295  25.284  0.2170 -0.2723 -0.2477
 8656W        W83644  32.822   0.289  23.833 -0.1087  0.3969 -0.2232
 8657W        W83645   7.588  26.574  22.043 -0.5621  0.2371  0.0007
 8658W        W83646  29.815  17.763  12.014 -0.1223  0.0085 -0.2778
 8659W        W83647  28.552  18.122  16.965 -0.2758  0.0780  0.1104
 8660W        W83648   4.886  13.986  23.915 -0.0634 -0.3682 -0.2000
 8661W        W83649  15.154  26.260  11.351 -0.1082 -0.4471 -0.0422
 8662W        W83650  29.189  21.395  24.913 -0.1365  0.1371 -0.3400
 8663W        W83651  17.262  17.230  11.511  0.1221 -0.1849 -0.0321
 8664W        W83652   2.100  22.340  20.827  0.0226  0.3129 -0.1901
 8665W        W83653  33.513  31.622  15.555  0.1002 -0.2376  0.0649
 8666W        W83654  25.481  19.215  17.435 -0.1415  0.1644 -0.0063
 8667W        W83655  18.972  12.294  19.888  0.1513 -0.1255  0.1715
 8668W        W83656  31.897  14.670  17.833  0.0942  0.2987  0.0738
 8669W        W83657  30.196  16.361  22.522  0.0270 -0.0048  0.1228
 8670W        W83658  25.527  28.104  19.511  0.0278  0.0017 -0.2913
 8671W        W83659   5.384  13.576   5.169  0.0009  0.4255  0.1838
 8672W        W83660  15.880   4.565  24.508 -0.1633  0.1616 -0.2177
 8673W        W83661  29.298   9.311  17.443  0.0877  0.0918 -0.2290
 8674W        W83662  22.614  14.531  16.578  0.2153  0.0345  0.0356
 8675W        W83663  22.574  28.045   3.171  0.0912 -0.0947  0.2238
 8676W        W83664  32.047   1.706  12.326  0.1491 -0.2139  0.0388
 8677W        W83665   1.414   8.841  15.215  0.1986 -0.1616  0.0906
 8678W        W83666  28.587  19.106  22.847  0.1254 -0.2431 -0.0923
 8679W        W83667   5.559  22.157  24.532  0.0803 -0.1083  0.0954
 8680W        W83668  22.783  25.267  24.593  0.2580 -0.3700 -0.1793
 8681W        W83669   4.386   0.555   2.536  0.1578  0.1240  0.0983
 8682W        W83670  29.795  24.695  22.747 -0.3292  0.1167 -0.0155
 8683W        W83671  22.323   3.019  23.671 -0.0540 -0.0479 -0.2927
 8684W        W83672  16.762  20.937  11.425 -0.2574 -0.1873 -0.0308
 8685W        W83673  14.516  18.196   2.783  0.0909 -0.0815  0.0335
 8686W        W83674   5.373   4.928   3.484  0.1342  0.0280 -0.0325
 8687W        W83675  28.754  14.900  12.455  0.1491 -0.2718 -0.3436
 8688W        W83676  19.876   4.910  20.195  0.1340 -0.4167 -0.5171
 8689W        W83677   3.796  21.134  21.784  0.3493 -0.0024  0.1154
 8690W        W83678  19.409   2.692   8.664  0.2749 -0.0871 -0.0912
 8691W        W83679  29.094  21.704   8.047  0.1027  0.0554 -0.2626
 8692W        W83680   9.353   5.409  20.665  0.0524  0.1394  0.0154
 8693W        W83681  27.836  14.628  24.166  0.2283 -0.2577 -0.2588
 8694W        W83682  13.788  12.974   2.060  0.2673  0.0303 -0.0752
 8695W        W83683  28.172   5.526  23.728  0.1322  0.4549  0.2181
 8696W        W83684   6.791  10.885   3.472  0.3406 -0.2387 -0.5720
 8697W        W83685   6.112  27.277   7.201 -0.1990  0.0452 -0.1724
 8698W        W83686  29.814  19.748   5.321 -0.1094  0.1007 -0.2713
 8699W        W83687  22.255  12.969  23.583  0.0400 -0.2638  0.2548
 8700W        W83688   1.158   1.451  21.315  0.3660  0.0543 -0.1810
 8701W        W83689  13.086  26.093   1.934 -0.1141  0.1500 -0.1083
 8702W        W83690  34.183   7.876   0.703  0.0569  0.0559 -0.1148
 8703W        W83691   8.923  23.021   6.982  0.0067 -0.0683 -0.0268
 8704W        W83692  31.677   2.212  19.545 -0.0520  0.3691 -0.0667
 8705W        W83693  16.992  23.567   7.579  0.0806 -0.0561  0.2592
 8706W        W83694   3.494   9.625  26.152 -0.0050  0.1006  0.0564
 8707W        W83695  30.691  31.353   0.592 -0.0253 -0.2651  0.0272
 8708W        W83696  22.677  25.489  17.945  0.0636  0.2921  0.1078
 8709W        W83697  24.558   5.213  14.264  0.1323 -0.1255  0.0874
 8710W        W83698  25.950   7.634  14.238 -0.2220  0.1937 -0.1873
 8711W        W83699  33.304   6.461  22.023  0.1891 -0.1708 -0.0384
 8712W        W83700  15.552  12.462   4.347 -0.1516  0.1249  0.2589
 8713W        W83701  28.923  25.869  23.574  0.1743  0.3532 -0.0077
 8714W        W83702  34.868   7.830  14.365 -0.1754  0.1037 -0.4061
 8715W        W83703  13.673  24.410  10.546 -0.0332 -0.0875  0.3892
 8716W        W83704   9.096  29.989  10.432  0.2653 -0.3263  0.0785
 8717W        W83705  11.503  23.441  15.387  0.0420  0.1301  0.0894
 8718W        W83706  10.309  24.902   0.030 -0.1423 -0.0334  0.2901
 8719W        W83707  30.612  14.705  16.123 -0.1811 -0.1525  0.0708
 8720W        W83708  12.199  31.976  12.400  0.0077 -0.1021 -0.2223
 8721W        W83709  31.688   6.693  10.597  0.1104  0.1499 -0.2087
 8722W        W83710   4.628  28.907  24.875 -0.2060 -0.0928  0.2680
 8723W        W83711  29.374  34.496  17.660  0.1622 -0.0205  0.2682
 8724W        W83712  25.410  18.113  15.677  0.3538 -0.1630 -0.1006
 8725W        W83713  33.116  16.386  13.265 -0.0895 -0.2061 -0.0329
 8726W        W83714   9.688  23.972  13.462  0.0954 -0.1912 -0.3319
 8727W        W83715  10.044   5.149  13.802  0.1138 -0.2427 -0.0481
 8728W        W83716  23.424  34.780  23.166 -0.0419  0.4025  0.1019
 8729W        W83717  28.325  23.609  16.197 -0.0107  0.0093 -0.2197
 8730W        W83718   8.875  20.849   3.062 -0.0000  0.1051 -0.1881
 8731W        W83719  32.866  27.330   3.266 -0.1025  0.0005 -0.0404
 8732W        W83720  24.028  20.745  20.837 -0.0958 -0.0510  0.0862
 8733W        W83721  33.293   2.042  16.867 -0.0996  0.0356 -0.0947
 8734W        W83722  14.216   7.678   1.779  0.1467 -0.2378  0.1324
 8735W        W83723  22.681   7.440   3.435  0.3966  0.1355 -0.1198
 8736W        W83724  21.647   2.371  17.817 -0.1702  0.1539 -0.1110
 8737W        W83725   8.156  31.858   6.674  0.0353 -0.0499  0.1646
 8738W        W83726   2.307  12.074   1.686  0.1224  0.0618  0.0020
 8739W        W83727  32.062   4.531  19.921  0.1101  0.1078  0.2013
 8740W        W83728   9.481  33.210  11.624 -0.2170  0.3128 -0.0162
 8741W        W83729  24.982  30.708  10.732 -0.2716 -0.1587  0.0439
 8742W        W83730  28.223  17.258  22.075 -0.1582 -0.0786  0.1746
 8743W        W83731   5.619   8.053   8.553  0.0337  0.1718 -0.0513
 8744W        W83732  14.322  20.172   9.449  0.0291  0.2173 -0.1605
 8745W        W83733  34.864   8.507   2.300 -0.1381  0.5334 -0.0302
 8746W        W83734   8.987  13.089  22.874  0.1319  0.1065  0.0886
 8747W        W83735  23.551  33.266  25.504  0.2485 -0.0099 -0.2166
 8748W        W83736  17.314  16.851   1.200  0.2772 -0.1514 -0.1698
 8749W        W83737  21.899  32.457  21.176  0.0480  0.3034 -0.1627
 8750W        W83738  26.674   0.979  12.977 -0.0804  0.2152  0.0867
 8751W        W83739  19.049  33.921  20.238  0.1445  0.0888 -0.0046
 8752W        W83740  19.661  31.430  25.053 -0.1158  0.0172 -0.2785
 8753W        W83741   8.073  33.514   2.067 -0.0353  0.1037 -0.2349
 8754W        W83742  31.332   3.056  18.173 -0.0491 -0.0636 -0.2298
 8755W        W83743  24.701  23.973  16.035 -0.3717  0.0135  0.2019
 8756W        W83744  16.654   4.376   9.643  0.1403 -0.0640 -0.0362
 8757W        W83745  28.105  34.298   2.357 -0.2616 -0.0903 -0.0541
 8758W        W83746  11.535  19.122  12.023  0.0674 -0.2475 -0.0849
 8759W        W83747  12.515  29.861   8.736 -0.0417 -0.1699 -0.0502
 8760W        W83748  19.253   2.561   1.161 -0.1935 -0.0738  0.2916
 8761W        W83749   1.788  24.338  16.943 -0.0313  0.3602 -0.3315
 8762W        W83750  29.992  24.406  20.134 -0.0999 -0.0004  0.0730
 8763W        W83751  14.655  19.804   8.653  0.0594  0.0977  0.1866
 8764W        W83752   2.361  33.429  24.692 -0.1679 -0.2056 -0.3424
 8765W        W83753   9.088  33.622  23.694 -0.0448  0.1303  0.0833
 8766W        W83754  34.191   9.635   1.936 -0.5583 -0.5880  0.2109
 8767W        W83755   4.399   2.030  24.410 -0.1231  0.3036  0.0496
 8768W        W83756  23.936   4.937  19.398  0.1674  0.3731  0.0035
 8769W        W83757   8.915  10.760  21.737 -0.0712  0.2533 -0.2202
 8770W        W83758   2.896  28.537  22.295 -0.3194  0.1382 -0.0241
 8771W        W83759  34.464  22.370  14.271  0.0632 -0.1814 -0.0088
 8772W        W83760  31.821  31.379   5.774 -0.0625 -0.0328 -0.2036
 8773W        W83761  28.400   7.785  14.726 -0.0825 -0.2217  0.3406
 8774W        W83762  17.103   1.129   0.945 -0.0984  0.1997  0.0910
 8775W        W83763   9.296  24.215   0.858  0.1907  0.2512  0.2605
 8776W        W83764  16.506  10.097  10.181 -0.2393 -0.1685 -0.0608
 8777W        W83765  20.683  10.312   8.077 -0.0904 -0.2790  0.0888
 8778W        W83766  10.880  26.075   9.872 -0.1468  0.2823 -0.0845
 8779W        W83767  14.776   2.065  25.179  0.0390  0.0905 -0.1873
 8780W        W83768  23.665  34.627   6.185 -0.2335 -0.3983 -0.0345
 8781W        W83769  10.988  34.152  11.231 -0.1412  0.3155  0.2441
 8782W        W83770  16.721  26.695  10.062  0.1948  0.1339 -0.0815
 8783W        W83771   5.206  28.205  21.925 -0.0696  0.0166 -0.1925
 8784W        W83772   4.282  14.615  16.777  0.0607  0.1213 -0.1906
 8785W        W83773  19.111  12.229   7.639  0.4751  0.1440 -0.1568
 8786W        W83774   1.209  25.356  18.410  0.3367  0.0338  0.0642
 8787W        W83775  33.762   4.226   4.102  0.1647 -0.2262  0.0708
 8788W        W83776   3.524  21.012   1.941  0.3146 -0.1550  0.1809
 8789W        W83777  17.128  19.206  19.368 -0.1631 -0.2344 -0.4124
 8790W        W83778  31.720   0.803  22.632 -0.0531  0.3202 -0.3569
 8791W        W83779  26.829  24.282  14.993  0.0314  0.2049  0.0035
 8792W        W83780  31.112  26.991  18.330  0.3063 -0.3071  0.0812
 8793W        W83781   3.448  33.904  11.491  0.0234 -0.1996 -0.0920
 8794W        W83782  12.232  34.622  20.015 -0.1106 -0.0691 -0.1116
 8795W        W83783  24.978  15.987  16.620  0.1072 -0.0474  0.1054
 8796W        W83784   3.026  13.914  18.211 -0.0017  0.0234  0.1461
 8797W        W83785   3.180  24.341   5.387  0.2134 -0.0114  0.3249
 8798W        W83786  14.866   3.202  10.061 -0.0863  0.0230  0.3855
 8799W        W83787  11.694  12.481  23.591 -0.2286 -0.0382  0.5152
 8800W        W83788   4.520   2.506   5.322 -0.1279 -0.0990  0.2634
 8801W        W83789   1.356   0.806  15.549 -0.0029  0.0117  0.3364
 8802W        W83790  31.554  18.136  22.183 -0.1173 -0.1348  0.3405
 8803W        W83791  23.512   4.223   4.052  0.0575 -0.0715 -0.1127
 8804W        W83792   5.775   6.655   1.019  0.3101 -0.1353  0.3045
 8805W        W83793  29.183  30.997  13.496  0.0104  0.1352 -0.1290
 8806W        W83794  22.067  20.107  16.220  0.2790  0.3061 -0.1919
 8807W        W83795  11.153   6.715   9.110  0.1593 -0.2936  0.0588
 8808W        W83796  31.350   7.258  21.682 -0.3026  0.1469  0.1489
 8809W        W83797  34.514  26.898   1.330 -0.1319  0.2375 -0.2977
 8810W        W83798   6.918  17.949  20.640 -0.0239  0.2920 -0.1236
 8811W        W83799  18.369  19.309  21.706 -0.2393  0.0974 -0.1055
 8812W        W83800  33.967  12.930  19.640  0.1439 -0.0856  0.0187
 8813W        W83801  22.799  21.451   2.831 -0.1308 -0.2519 -0.2507
 8814W        W83802   9.534  22.070  15.586  0.1228 -0.3261  0.2094
 8815W        W83803   2.393  32.632  20.686  0.1422  0.1438  0.1687
 8816W        W83804   6.046  17.782  21.154  0.0157 -0.1299  0.0670
 8817W        W83805  31.257   3.887  17.924 -0.0090 -0.1039 -0.4595
 8818W        W83806  31.100   0.014  11.292  0.0735  0.0419  0.2377
 8819W        W83807  14.979  32.932   0.367 -0.3823 -0.2066 -0.2261
 8820W        W83808  32.328  29.110  11.858 -0.2885 -0.2039 -0.2248
 8821W        W83809  11.746  27.194  23.021  0.1915 -0.0621  0.0622
 8822W        W83810  30.458  19.416  11.010  0.1342  0.0625 -0.1667
 8823W        W83811  15.745   9.448  24.099 -0.0214 -0.0218 -0.0138
 8824W        W83812  34.307  12.652   8.831 -0.0370 -0.2664 -0.0885
 8825W        W83813  28.947   4.571  25.785  0.0915 -0.0288 -0.1758
 8826W        W83814  34.903  11.840  11.910  0.1524 -0.1236  0.1430
 8827W        W83815  12.309  25.115   2.387 -0.3119  0.0657 -0.0498
 8828W        W83816  32.487  33.824  20.121 -0.3250  0.1298  0.1302
 8829W        W83817   2.854   6.171  20.126  0.0781  0.2853 -0.0473
 8830W        W83818  12.181   5.515  22.087  0.1783  0.1264 -0.4648
 8831W        W83819  19.479  23.336  22.901 -0.0481  0.0194 -0.0572
 8832W        W83820  34.743  16.588   7.475 -0.0267  0.2334 -0.1567
 8833W        W83821  18.394   3.787   4.967  0.1794  0.0352 -0.0290
 8834W        W83822   2.083   7.446   5.336 -0.0616  0.0075 -0.1535
 8835W        W83823  20.079  23.999   3.707  0.0673  0.0998 -0.1703
 8836W        W83824  14.339  23.888  12.491  0.0961  0.3400  0.2377
 8837W        W83825  12.967   1.282   5.569  0.0197  0.0701  0.3713
 8838W        W83826  25.985  21.246  22.970 -0.1466  0.2348 -0.0044
 8839W        W83827  19.165  19.171   1.071  0.3527 -0.2383 -0.2777
 8840W        W83828  19.955  17.039  20.515 -0.3729  0.1596 -0.1274
 8841W        W83829  16.434  16.317  23.090  0.1036 -0.0490 -0.2072
 8842W        W83830  17.306  12.376   6.669  0.0071  0.0764 -0.2884
 8843W        W83831  24.392  33.339   1.109  0.1694 -0.2284 -0.0356
 8844W        W83832   4.773  11.520  17.630 -0.1366  0.2089  0.1766
 8845W        W83833  34.867   7.320  17.286 -0.0225 -0.1712  0.0876
 8846W        W83834  11.267   5.054  14.136  0.0228  0.0673 -0.2074
 8847W        W83835   9.302  16.303  22.369  0.1835 -0.2502 -0.1732
 8848W        W83836  20.578  29.819   3.513  0.0319  0.4166 -0.1103
 8849W        W83837  17.170  28.572  23.853  0.1578  0.0517 -0.1005
 8850W        W83838  33.631  29.588  16.288  0.1694 -0.2185 -0.2909
 8851W        W83839  35.008  31.492   6.300  0.0121 -0.2392 -0.1900
 8852W        W83840  33.652  26.514  25.434  0.0907  0.1553 -0.1919
 8853W        W83841   7.770  25.134   5.199 -0.0436 -0.0082 -0.1440
 8854W        W83842  13.935  15.670  18.675 -0.3124 -0.2496 -0.1722
 8855W        W83843  20.679  13.486   3.593  0.0485  0.2607  0.0107
 8856W        W83844  27.677  33.128   2.482  0.2670  0.0292  0.1807
 8857W        W83845   0.867  16.264  10.651 -0.1121  0.2200 -0.3283
 8858W        W83846  32.255  33.185   5.697 -0.0525 -0.1650 -0.0108
 8859W        W83847   9.975   3.940   3.592  0.1155 -0.0494  0.2075
 8860W        W83848  17.014  30.588   9.022  0.0985 -0.2745 -0.0197
 8861W        W83849   7.923   0.992  10.285 -0.2336 -0.2554  0.0865
 8862W        W83850  25.604  15.908  20.100  0.4532 -0.1605  0.3238
 8863W        W83851   5.981  23.498   4.845  0.2183  0.3804  0.0520
 8864W        W83852  25.002  16.572  14.485 -0.0477  0.2131 -0.1538
 8865W        W83853   8.341  21.372  14.894 -0.2077  0.0427 -0.1422
 8866W        W83854  15.850   2.335  22.755 -0.0763 -0.5071 -0.2484
 8867W        W83855  20.256   2.035  21.858 -0.1267 -0.0680  0.2108
 8868W        W83856  19.719   9.826   0.739  0.0239  0.2743 -0.0738
 8869W        W83857  31.375  20.320  18.147 -0.1199 -0.2854  0.1050
 8870W        W83858  16.813   3.731   3.193 -0.0915 -0.0759 -0.1838
 8871W        W83859  18.168  14.912   3.582  0.0157 -0.1282 -0.1576
 8872W        W83860  17.743  29.842  19.676 -0.2119 -0.0708 -0.2313
 8873W        W83861  13.107   5.738   3.811  0.0511 -0.2922 -0.2632
 8874W        W83862  35.065  32.924  23.594 -0.1079  0.0568  0.0929
 8875W        W83863   2.282  28.761  18.391 -0.0015 -0.0903 -0.2421
 8876W        W83864  29.738   5.492  24.165 -0.1486 -0.1854 -0.0820
 8877W        W83865   5.761  24.141  24.457  0.5967  0.0935  0.0703
 8878W        W83866   9.716  19.748   1.827 -0.2733 -0.0135  0.2676
 8879W        W83867  18.157  16.360   6.293  0.2379 -0.2256  0.0559
 8880W        W83868  32.124  23.035   7.250  0.1729 -0.1721  0.0204
 8881W        W83869  34.926  11.500  16.388 -0.0036  0.2146  0.0517
 8882W        W83870  11.256  28.610   1.572  0.0042 -0.3033  0.0080
 8883W        W83871  28.882  11.237  19.538  0.0251  0.2556  0.0673
 8884W        W83872  22.426  17.921  14.865 -0.1074 -0.0180 -0.0317
 8885W        W83873   5.029  28.940  22.941 -0.3118 -0.0739 -0.1821
 8886W        W83874  11.630  26.202   8.988 -0.0657 -0.1192  0.1393
 8887W        W83875  10.776  31.738   1.395  0.1385 -0.0252  0.2371
 8888W        W83876   1.479  18.571   9.833 -0.2852 -0.1741 -0.0812
 8889W        W83877  32.770   9.598  14.816  0.2481 -0.4115 -0.2090
 8890W        W83878   5.990   8.716  17.926 -0.2244  0.3058 -0.1786
 8891W        W83879  15.148  24.363   1.327 -0.0811 -0.0795  0.2868
 8892W        W83880  30.363   2.085  26.244  0.2117 -0.1165  0.1065
 8893W        W83881   7.132   9.917   8.460 -0.2383 -0.0460  0.0522
 8894W        W83882  17.631  18.294  25.955 -0.1174  0.0927 -0.0992
 8895W        W83883   4.137  12.748  17.433  0.3220 -0.4017 -0.2672
 8896W        W83884  33.028  19.805  12.141  0.0283  0.0021 -0.0450
 8897W        W83885  19.317   1.945   3.532  0.0703  0.1600  0.0178
 8898W        W83886  27.106  20.146   7.060  0.2312  0.0343  0.3523
 8899W        W83887  14.384  27.270  22.435 -0.0165  0.1398 -0.1241
 8900W        W83888  34.782   9.418  12.414 -0.0439 -0.2183  0.0576
 8901W        W83889   4.537  11.832   9.146  0.5580  0.0198  0.3059
 8902W        W83890  19.797  11.628  23.056  0.2252 -0.0061  0.0303
 8903W        W83891  26.758   2.964  23.745 -0.1243  0.2413  0.1916
 8904W        W83892   4.534  32.913  23.038  0.0815 -0.3600 -0.3378
 8905W        W83893  27.265   6.946   2.649 -0.3570 -0.2686  0.3072
 8906W        W83894   3.634   4.944   4.600  0.0860  0.1420 -0.0652
 8907W        W83895  29.493  28.047   8.892 -0.2376  0.0747  0.1290
 8908W        W83896  29.247  28.013  15.080  0.1444 -0.2729 -0.1963
 8909W        W83897  30.018  23.189   7.990  0.0518  0.1844  0.1050
 8910W        W83898  14.720  13.066  19.337  0.2127 -0.0478  0.0488
 8911W        W83899  22.912   4.304  24.720 -0.0955  0.0473  0.0137
 8912W        W83900   0.591  28.652   5.092  0.1195  0.1489  0.1231
 8913W        W83901   6.935  16.288  25.975 -0.1377 -0.1144 -0.0601
 8914W        W83902  28.334  23.784  20.544 -0.3266  0.0165  0.0981
 8915W        W83903   7.494  34.748   0.491 -0.2411 -0.1049 -0.0765
 8916W        W83904   1.135   6.043  15.376  0.3137 -0.0827  0.1960
 8917W        W83905   6.058  23.042  22.600 -0.1291 -0.0298 -0.1749
 8918W        W83906  24.577  32.814  23.780 -0.1358 -0.1879  0.1295
 8919W        W83907  28.352  18.089  22.495 -0.0671  0.1048  0.0688
 8920W        W83908  25.063  19.648  11.684 -0.0992  0.1570  0.0346
 8921W        W83909  24.070  35.115  24.708 -0.3750  0.2614 -0.0650
 8922W        W83910  18.009  12.295  21.044  0.1647  0.3117 -0.1173
 8923W        W83911  32.927   3.175  25.093  0.1712  0.0558 -0.0111
 8924W        W83912  22.351   8.174  23.567 -0.2057  0.1030 -0.1465
 8925W        W83913   0.839   6.762  25.782 -0.2693  0.1741 -0.1217
 8926W        W83914  12.128  23.372  10.678 -0.3868 -0.2592 -0.0778
 8927W        W83915   9.110   5.733  22.709  0.2489  0.3023  0.2084
 8928W        W83916  30.328  27.379  13.871 -0.2388  0.0395 -0.2077
 8929W        W83917  35.176  27.548   3.477 -0.1382  0.0334 -0.1609
 8930W        W83918  12.281  24.239  17.573 -0.0289  0.3001  0.2795
 8931W        W83919  31.202   0.228  18.119  0.4138 -0.3866 -0.0432
 8932W        W83920  33.038  23.208  12.683 -0.1344 -0.3684 -0.1997
 8933W        W83921  23.476   7.036  22.294  0.0552 -0.1447  0.0553
 8934W        W83922  16.852   9.722  12.785 -0.0559 -0.2275 -0.1415
 8935W        W83923  15.987  25.286  22.409  0.0115  0.0907 -0.3004
 8936W        W83924   4.424  30.047   7.817  0.6177  0.3607 -0.1747
 8937W        W83925  34.725  20.480  10.196  0.0112 -0.0112  0.3140
 8938W        W83926   4.769   8.852   2.903  0.0663 -0.2259  0.0472
 8939W        W83927  11.351   1.787   4.230  0.2816 -0.0626  0.2163
 8940W        W83928  12.590  26.109  21.925  0.1817 -0.1386  0.0220
 8941W        W83929  27.328  25.640  12.495 -0.1375 -0.1142 -0.2845
 8942W        W83930  14.698  35.226   9.135  0.1732 -0.5227 -0.0655
 8943W        W83931   2.980   5.734  21.842  0.4349 -0.1030  0.1162
 8944W        W83932  31.433  32.155  14.077 -0.1991  0.0214 -0.1260
 8945W        W83933  17.041   8.599   7.097  0.6002  0.1003  0.2701
 8946W        W83934   2.361   2.698  18.246 -0.3269 -0.2195 -0.1724
 8947W        W83935  13.368  14.105  20.492  0.1036  0.1658  0.2580
 8948W        W83936   0.762  23.557  24.043 -0.0962 -0.3325 -0.1848
 8949W        W83937  33.410  29.915  14.298  0.0453 -0.0160 -0.4075
 8950W        W83938  13.976  21.652  24.725  0.0404  0.2271  0.1360
 8951W        W83939   4.343   2.082   2.810 -0.0964  0.1047 -0.3038
 8952W        W83940  16.537  30.501  21.605  0.0407 -0.2178 -0.1944
 8953W        W83941  15.793   4.261  17.640  0.1639  0.0758  0.1356
 8954W        W83942  14.314  35.296  19.502  0.0640  0.0687 -0.0241
 8955W        W83943  27.220  29.978  11.119  0.0175  0.1724  0.2980
 8956W        W83944   5.001  33.132  12.907  0.0976 -0.1145  0.0494
 8957W        W83945  27.704  29.439  22.569  0.0632  0.1524 -0.2821
 8958W        W83946  11.013  26.478   9.673  0.0631 -0.0889  0.0827
 8959W        W83947  10.628   7.125   1.351  0.0676 -0.1184 -0.2301
 8960W        W83948   2.265  22.422  15.982 -0.2172 -0.0640  0.2280
 8961W        W83949  28.354   5.301  11.053 -0.2621  0.0709  0.0053
 8962W        W83950  19.537  23.536  21.862 -0.2182  0.1827 -0.0569
 8963W        W83951   1.573  26.092  20.625  0.0594 -0.3110  0.0189
 8964W        W83952  15.244  31.859  11.388  0.1032 -0.0019 -0.0814
 8965W        W83953  23.908   5.440   3.535  0.2340 -0.1891  0.2264
 8966W        W83954  15.619  10.143   0.613 -0.1393  0.1511  0.0715
 8967W        W83955  24.700  22.872  12.699  0.1000  0.3526 -0.0337
 8968W        W83956   0.029  17.557  21.025  0.2710  0.2522  0.0072
 8969W        W83957   9.131  32.673  15.448  0.1219  0.2281  0.1895
 8970W        W83958  24.845  32.474  13.473 -0.1281 -0.0434 -0.3035
 8971W        W83959  21.419  28.071   1.011  0.2307 -0.3630 -0.1546
 8972W        W83960  20.198  12.740  20.704 -0.3413  0.1108  0.3279
 8973W        W83961  17.012  10.321   2.541 -0.2437  0.1908 -0.0450
 8974W        W83962   6.478  34.709  20.794  0.1961  0.1467 -0.1141
 8975W        W83963  18.334  29.997  18.179 -0.3183  0.3372  0.1267
 8976W        W83964  20.765  31.503   7.683 -0.0071 -0.1443 -0.1100
 8977W        W83965  23.061   5.814  16.173 -0.0597 -0.0219 -0.1268
 8978W        W83966  18.736  16.823   4.144 -0.3366  0.0735 -0.0572
 8979W        W83967  32.877  25.733  17.448  0.1500 -0.0569  0.1041
 8980W        W83968  16.410   7.028   0.386  0.0265 -0.3029  0.1826
 8981W        W83969   0.858  16.328  22.814  0.3818 -0.0600 -0.0524
 8982W        W83970  19.246  22.905  12.344 -0.1009 -0.0585  0.2309
 8983W        W83971  26.400  20.079  14.773  0.2746  0.1614 -0.0658
 8984W        W83972  22.237  31.610  24.465  0.2380 -0.1518 -0.1974
 8985W        W83973  29.606  11.770  24.619 -0.0460  0.0215 -0.1678
 8986W        W83974  34.260   8.530  25.677  0.0305  0.3485  0.3369
 8987W        W83975  19.254  23.098  20.011  0.2002  0.1194 -0.0212
 8988W        W83976  34.081  16.061  17.314  0.1922  0.3094 -0.0535
 8989W        W83977   6.411  31.710  24.238  0.1822 -0.1706 -0.0759
 8990W        W83978  20.792   8.189   8.910 -0.0581  0.0016  0.1343
 8991W        W83979   8.039  34.928  25.691  0.0598  0.0495  0.2004
 8992W        W83980  17.051  13.418   8.744  0.0131 -0.0984 -0.0152
 8993W        W83981   2.672  25.122  20.784 -0.1713 -0.2276 -0.1333
 8994W        W83982   1.831  26.202  18.252  0.0072 -0.0685 -0.1319
 8995W        W83983  16.186  27.330  26.149  0.0606  0.0112 -0.2604
 8996W        W83984  19.747  25.906   6.848 -0.2633 -0.3917 -0.1131
 8997W        W83985   7.923   1.126  24.968 -0.0167 -0.2176  0.4082
 8998W        W83986  28.676   9.339  24.083  0.3638  0.0048 -0.2793
 8999W        W83987  18.589  27.247   9.059 -0.1905  0.2195 -0.0718
 9000W        W83988  23.367   3.158  22.077 -0.3495 -0.1254  0.1016
 9001W        W83989  19.367  16.273  18.023  0.2456 -0.0324 -0.1693
 9002W        W83990   0.641   5.429   7.148 -0.1831 -0.0932 -0.0308
 9003W        W83991   9.405   5.378  13.870 -0.1944  0.0529  0.0493
 9004W        W83992  18.189  20.552   5.928  0.4676 -0.2062  0.1025
 9005W        W83993   1.140  17.945  17.924 -0.0233 -0.5009  0.1259
 9006W        W83994  27.939   1.191  10.821 -0.1014  0.1026 -0.0321
 9007W        W83995  28.368  21.832  20.346 -0.0412 -0.0603  0.1999
 9008W        W83996   8.462  29.396   8.533  0.1120 -0.0622  0.1175
 9009W        W83997  25.466  21.321  24.389 -0.3369 -0.1069  0.0814
 9010W        W83998  18.956  14.244  18.004  0.2031  0.1968 -0.1090
 9011W        W83999  21.208  26.804   5.287  0.2163 -0.2874  0.1886
 9012W        W84000  22.486  15.446  18.258 -0.2374  0.0011  0.1819
 9013W        W84001  11.172   7.403   5.865 -0.0665 -0.1532  0.0454
 9014W        W84002  26.983   3.440  20.895  0.0101 -0.2554  0.1293
 9015W        W84003  16.402  10.648  23.005 -0.0336  0.0811  0.1970
 9016W        W84004  29.268  28.943  14.903  0.0926 -0.0252 -0.2827
 9017W        W84005  13.027   9.409   5.740  0.3563 -0.1137  0.1486
 9018W        W84006  18.875  19.014   8.289  0.1257  0.0460 -0.0623
 9019W        W84007  24.087   0.140  18.382 -0.1037 -0.0063 -0.0517
 9020W        W84008  26.238   5.356  15.205 -0.1635  0.1123  0.0727
 9021W        W84009  34.898   2.466  15.077  0.1264  0.0096  0.0570
 9022W        W84010   8.573  13.198   2.383  0.1199 -0.2896  0.1461
 9023W        W84011  19.719  20.744  19.196  0.0168  0.2259  0.1652
 9024W        W84012  26.438   0.712   3.586  0.0376  0.0558  0.2362
 9025W        W84013   2.210  28.935  23.133  0.0898  0.3849  0.0161
 9026W        W84014  14.253  17.055  23.646 -0.1549  0.3858  0.1216
 9027W        W84015  10.291  14.380  22.086 -0.0112 -0.4160 -0.3817
 9028W        W84016  33.831  29.556   4.511 -0.1324  0.0645  0.2231
 9029W        W84017  27.993  18.536  11.603 -0.1483  0.2611 -0.1755
 9030W        W84018  18.798   7.291  18.013 -0.0405 -0.1981 -0.2287
 9031W        W84019  33.145  15.333  12.677  0.1049  0.2303 -0.1929
 9032W        W84020   7.382  27.136  16.673 -0.0915  0.1239  0.0624
 9033W        W84021  13.618   3.597  19.391  0.1970  0.1949 -0.0781
 9034W        W84022  15.013   3.682   1.366  0.1104 -0.0500  0.3949
 9035W        W84023  31.483  33.695   5.483 -0.0302  0.0859  0.3027
 9036W        W84024  23.362  30.548  25.740 -0.1879  0.0580 -0.0046
 9037W        W84025  18.637  12.565  17.093  0.1004  0.0221 -0.2131
 9038W        W84026  25.377  16.703  19.305 -0.0573 -0.2883 -0.0127
 9039W        W84027  26.357  33.527  13.341  0.0676 -0.1523 -0.4060
 9040W        W84028  24.177  18.636  13.266  0.1441  0.0461  0.4232
 9041W        W84029  18.241   3.146  18.871  0.1365 -0.1108  0.2732
 9042W        W84030   0.818  14.328  22.262  0.0153  0.2363  0.0765
 9043W        W84031  26.708   9.266   8.893 -0.1026  0.1114  0.0638
 9044W        W84032  20.459  18.389   1.349 -0.1277 -0.0774 -0.0580
 9045W        W84033  12.880   6.531   0.467 -0.0690 -0.0424  0.1034
 9046W        W84034  25.915  27.436  15.936 -0.1224  0.0472 -0.0727
 9047W        W84035  21.576  33.148  19.018  0.2318 -0.0939  0.0660
 9048W        W84036  34.875  24.217  17.807  0.3584 -0.2686  0.1623
 9049W        W84037  23.837  25.500  17.573  0.0082  0.0521 -0.2151
 9050W        W84038  12.616  11.128  18.930 -0.3833 -0.2871  0.1367
 9051W        W84039   0.266  22.350  25.299 -0.0407 -0.0083  0.4617
 9052W        W84040  22.865   8.433  15.450 -0.1919 -0.0713  0.4374
 9053W        W84041   5.221  18.056  17.961  0.0915 -0.1636  0.0533
 9054W        W84042  13.782  15.665  24.922 -0.1021 -0.0117 -0.0328
 9055W        W84043  11.336  34.481   2.834  0.2040 -0.1579 -0.4544
 9056W        W84044   1.653  24.075  22.053 -0.0812 -0.0579 -0.0155
 9057W        W84045   2.243  19.483   1.747 -0.0921  0.1324 -0.0238
 9058W        W84046  28.796  28.819  25.531 -0.2122  0.1680  0.0155
 9059W        W84047  15.669   4.819   1.852  0.0663  0.1316 -0.1061
 9060W        W84048  16.026  25.318  21.074  0.0153  0.0591 -0.0708
 9061W        W84049  25.046  14.505  24.669  0.4302  0.0346 -0.1321
 9062W        W84050  33.822  16.929  17.091 -0.1914  0.1822 -0.0299
 9063W        W84051  22.461  21.029  14.123 -0.1029 -0.0823 -0.1933
 9064W        W84052  27.934   1.076   2.468  0.3049  0.0027  0.0032
 9065W        W84053  33.308  20.857  18.526  0.0803 -0.1192  0.0474
 9066W        W84054  34.344  30.225  25.411  0.0337  0.2627 -0.2747
 9067W        W84055   4.957  34.583  18.772 -0.0558 -0.0460 -0.3878
 9068W        W84056  16.936  21.413  25.932  0.0758 -0.1649  0.0789
 9069W        W84057  18.927  16.400   5.631 -0.0049 -0.1593 -0.1468
 9070W        W84058  15.633  15.799   7.712  0.0783 -0.1326  0.1138
 9071W        W84059  31.240  14.548  16.767 -0.0480  0.0205 -0.2399
 9072W        W84060  14.925  16.774  12.680 -0.1661  0.0771  0.1066
 9073W        W84061  21.151   7.928  21.899 -0.1168  0.2168  0.0178
 9074W        W84062  19.082   5.779  24.349  0.1531 -0.0512  0.0480
 9075W        W84063  29.777   9.376  17.681  0.1531  0.0962  0.0006
 9076W        W84064  25.619   9.219  14.011  0.0079  0.1082 -0.0193
 9077W        W84065  11.970  30.933  25.935  0.2690 -0.0089 -0.1091
 9078W        W84066   6.946  25.418   3.448 -0.1352 -0.0252 -0.1970
 9079W        W84067  22.487   1.983   6.950  0.2694 -0.0974 -0.1061
 9080W        W84068  14.347  13.514   5.255  0.2130 -0.0239  0.0974
 9081W        W84069   7.809   4.283   5.198  0.2516  0.0123  0.3472
 9082W        W84070   0.678  20.399  14.757  0.1258 -0.0611 -0.1818
 9083W        W84071   2.525  15.360  23.198  0.2150  0.0108 -0.3069
 9084W        W84072  21.895  28.827  25.617  0.0479  0.2347  0.0631
 9085W        W84073  26.735  19.774  18.147  0.0916 -0.1133  0.1604
 9086W        W84074  13.643  11.581  24.549 -0.1701 -0.0504 -0.2344
 9087W        W84075  10.735  31.127   3.353 -0.3153 -0.0324  0.0333
 9088W        W84076  18.211  23.702   1.676  0.3491  0.2394 -0.1286
 9089W        W84077  25.852   8.941  11.920 -0.0545 -0.3248 -0.0550
 9090W        W84078   0.512   9.405  24.234 -0.0304 -0.0619  0.0874
 9091W        W84079  22.851  19.040  23.049 -0.0662  0.1717  0.0005
 9092W        W84080  20.711  15.985  18.064 -0.1149  0.0505  0.0569
 9093W        W84081  22.972  32.093   5.887 -0.0764 -0.0659  0.1793
 9094W        W84082  25.258  10.336  24.929 -0.1548  0.0250 -0.1549
 9095W        W84083  14.549   1.375  10.938 -0.0416  0.1096 -0.0469
 9096W        W84084   3.330   1.784  25.021  0.2847 -0.0774  0.0988
 9097W        W84085  13.853   2.316  17.096 -0.0376 -0.0966 -0.1578
 9098W        W84086  11.185   3.851  11.412 -0.0827 -0.0700  0.2716
 9099W        W84087  34.615  13.264  18.508 -0.2014 -0.2243  0.1683
 9100W        W84088  32.004   8.865  17.549  0.1799 -0.0270  0.3060
 9101W        W84089  30.621  20.057  16.498  0.0270  0.1719 -0.3521
 9102W        W84090  15.236   6.857   7.817  0.1164 -0.0922  0.0165
 9103W        W84091   0.880  27.257  17.109 -0.0537 -0.0062  0.0291
 9104W        W84092   1.433  28.941  22.919 -0.3168  0.0846  0.3483
 9105W        W84093  15.590  15.489  14.181 -0.0407 -0.0263 -0.3154
 9106W        W84094   8.765  18.615  13.968  0.1689  0.0134  0.1551
 9107W        W84095  34.450  15.415  23.228 -0.0927  0.2546 -0.0883
 9108W        W84096  19.081   9.886  11.413  0.2196 -0.1542 -0.1364
 9109W        W84097  17.603  13.218   0.300 -0.3558  0.1185  0.3763
 9110W        W84098  29.158   1.401  25.870 -0.0725 -0.1056 -0.1378
 9111W        W84099  13.456  13.168  25.242 -0.1838 -0.1234 -0.3159
 9112W        W84100   1.485  11.146  19.178  0.3046 -0.0489 -0.0101
 9113W        W84101  27.675  19.851  19.955  0.2268 -0.0002  0.0383
 9114W        W84102  15.515   7.348   9.121  0.1771  0.1667  0.1329
 9115W        W84103  27.490  11.312  22.787 -0.0436 -0.1031 -0.1037
 9116W        W84104  31.642  34.395  25.275  0.1410  0.1215  0.0477
 9117W        W84105  33.610  18.474  19.977  0.0808  0.0067 -0.2766
 9118W        W84106  23.117  13.679  22.954 -0.1945 -0.4419  0.0770
 9119W        W84107  21.748   2.210  23.528  0.3975  0.2429 -0.3044
 9120W        W84108  17.040  16.461  23.904 -0.2590  0.0053 -0.1453
 9121W        W84109  24.849   2.291  15.063 -0.0811 -0.2425  0.2003
 9122W        W84110  26.003   4.788   0.663  0.0109  0.1091  0.0210
 9123W        W84111  14.888   5.660  21.321 -0.0652 -0.1297 -0.0814
 9124W        W84112  18.828  31.710  16.273 -0.0537  0.1721 -0.0454
 9125W        W84113  15.036  19.299   5.980  0.0281 -0.1384 -0.1815
 9126W        W84114   2.207  33.843  25.024 -0.0838  0.2189  0.4147
 9127W        W84115   8.954  14.342  24.876  0.1007 -0.1850  0.1055
 9128W        W84116  14.894  32.167  23.049 -0.1807 -0.1234  0.1558
 9129W        W84117  11.460  17.120   5.805  0.0981 -0.2728  0.1577
 9130W        W84118  20.951   2.771  24.499 -0.0672 -0.1295  0.1730
 9131W        W84119  24.788  20.524  21.319  0.0641  0.4162  0.0538
 9132W        W84120  10.411   2.711   2.545  0.1343  0.1784 -0.3028
 9133W        W84121  25.761   0.484  15.663  0.1071 -0.2067 -0.1087
 9134W        W84122   1.600   0.108  19.674  0.0864  0.1303  0.1851
 9135W        W84123  15.536  14.145   0.783  0.1085 -0.0928 -0.1406
 9136W        W84124  30.082  32.052  11.151  0.1169  0.1819  0.4028
 9137W        W84125   5.414  28.730   9.734 -0.0076 -0.1822 -0.1633
 9138W        W84126  22.701   3.921  25.763  0.3742  0.2068 -0.0172
 9139W        W84127  15.717  25.274  11.983 -0.4667  0.1206 -0.1113
 9140W        W84128   3.237  13.631   1.123 -0.0581  0.2660 -0.0647
 9141W        W84129  24.108  12.271   2.163 -0.2031  0.3525 -0.0633
 9142W        W84130   0.794  31.753  24.207 -0.0994  0.0065 -0.1606
 9143W        W84131   1.446  13.052  16.754  0.0263  0.0701  0.0081
 9144W        W84132   0.152  19.274  11.513 -0.1517 -0.1630  0.0724
 9145W        W84133  25.024   4.232   4.255 -0.0829  0.2025  0.0922
 9146W        W84134  21.668  33.961  19.083 -0.0673 -0.0295  0.0462
 9147W        W84135  30.389  34.943  21.427  0.1164  0.0500  0.1220
 9148W        W84136   8.512  32.869   1.845  0.0279 -0.1033 -0.0286
 9149W        W84137  31.591  11.085  21.305 -0.2289  0.2312  0.0758
 9150W        W84138   0.605  18.638  11.716  0.3956 -0.1698  0.2651
 9151W        W84139  28.996   7.343  21.595  0.1121 -0.2945  0.1403
 9152W        W84140  35.309  12.078  13.173 -0.0334  0.7186  0.2720
 9153W        W84141  28.003  11.933  20.305 -0.2137  0.1976  0.0579
 9154W        W84142  21.952  34.135  14.301  0.1964  0.1246 -0.1202
 9155W        W84143   4.334   0.219   6.929  0.0789  0.0071  0.0319
 9156W        W84144  34.273  13.369  22.958 -0.0843  0.1263  0.0502
 9157W        W84145   0.722  26.520   3.131 -0.2213  0.0306  0.0563
 9158W        W84146  12.574  15.261  22.096 -0.0599  0.0311 -0.1496
 9159W        W84147   5.629  25.578   2.937  0.0310  0.1676  0.1920
 9160W        W84148  33.229   3.366  26.180  0.0274  0.0420  0.2354
 9161W        W84149  21.017  27.749  15.568 -0.0046 -0.0306 -0.0158
 9162W        W84150  30.555  24.773  21.350  0.0250  0.0330 -0.1710
 9163W        W84151   7.498   1.047   4.267 -0.0818 -0.0507  0.0432
 9164W        W84152  30.703  35.136   4.811  0.1858  0.4106 -0.1042
 9165W        W84153  18.428   6.524  20.913 -0.1449  0.0469 -0.0087
 9166W        W84154  23.325   9.974   5.025  0.0792  0.1664  0.0507
 9167W        W84155  21.236  30.789  21.925  0.0610  0.1434  0.3908
 9168W        W84156  34.540   9.202  15.449 -0.0264 -0.1645 -0.2115
 9169W        W84157  28.820  34.907  19.199  0.0606 -0.0281 -0.1136
 9170W        W84158   7.392  25.792   8.023 -0.1514  0.1359 -0.0062
 9171W        W84159  29.967  10.354  17.975  0.1578 -0.3903 -0.2338
 9172W        W84160  29.280  34.469  17.030 -0.0885 -0.1291  0.1175
 9173W        W84161  29.621  17.752   7.714  0.0276 -0.0808 -0.1502
 9174W        W84162   9.372  20.864  15.141 -0.2118 -0.0217 -0.0466
 9175W        W84163  23.901  27.181  17.208 -0.0052  0.0297  0.0262
 9176W        W84164   7.533   2.268  19.583  0.0526 -0.0041 -0.2345
 9177W        W84165  33.259  18.138   6.950  0.2186 -0.0262 -0.3027
 9178W        W84166   9.421   9.229  24.738 -0.0426 -0.0256 -0.0024
 9179W        W84167   4.114   9.344   5.131 -0.1453  0.0336  0.0737
 9180W        W84168  20.941   7.415   8.745  0.0246 -0.3220  0.0826
 9181W        W84169   7.614  32.542   2.276 -0.0037 -0.1934  0.0522
 9182W        W84170  31.722   4.249  24.101  0.1957  0.0417  0.3076
 9183W        W84171  33.522  17.460  20.158 -0.1325 -0.2479  0.2012
 9184W        W84172  34.552  27.699   2.777  0.1680 -0.4729 -0.1054
 9185W        W84173  27.619  34.513   1.662  0.1953  0.0773  0.2773
 9186W        W84174   0.333  23.101  21.620  0.0958  0.1149 -0.0065
 9187W        W84175  32.043  13.269  25.082  0.0630 -0.3028  0.0763
 9188W        W84176  32.584  12.460  18.174  0.2260 -0.0183 -0.1540
 9189W        W84177  29.766  23.535  11.293 -0.0024  0.0541  0.2532
 9190W        W84178  29.735   9.522  21.924 -0.0549 -0.2196  0.0033
 9191W        W84179   2.124   2.870  17.820  0.2217  0.1082 -0.0685
 9192W        W84180   3.509  33.612   2.269  0.0834 -0.0405  0.1497
 9193W        W84181  23.665   1.013  19.954  0.1630  0.0654  0.1167
 9194W        W84182  12.269   0.959  12.640 -0.1247 -0.0664  0.0892
 9195W        W84183  29.649  20.925  17.970  0.1949  0.2241  0.0772
 9196W        W84184   0.583  29.711  20.337  0.0075 -0.1237 -0.0425
 9197W        W84185   5.948  18.989  24.298 -0.3456 -0.2844  0.2145
 9198W        W84186   7.520   1.705   4.193  0.1804  0.1254  0.1712
 9199W        W84187   9.789   1.797  11.570  0.2138 -0.1905 -0.1836
 9200W        W84188  15.053   1.598   9.689  0.1866 -0.2238 -0.0709
 9201W        W84189   0.432  20.764  17.954 -0.0925 -0.0338 -0.3421
 9202W        W84190   4.852  27.946  20.118 -0.3782 -0.0750 -0.2743
 9203W        W84191  34.053  15.125  15.945  0.3268  0.2436 -0.2050
 9204W        W84192  26.189  15.569  21.867  0.1503 -0.2241  0.0748
 9205W        W84193   7.502  32.422   3.378  0.3862 -0.0923 -0.1140
 9206W        W84194   5.790   4.125  23.430  0.0022  0.0965 -0.3687
 9207W        W84195  10.049  19.992  21.225  0.0847 -0.5354 -0.1274
 9208W        W84196  18.273  23.350  13.011 -0.0137 -0.2090  0.1966
 9209W        W84197  19.360   0.387  23.818 -0.1684  0.0661 -0.2265
 9210W        W84198  10.163   1.811  21.107  0.0268 -0.2480 -0.1132
 9211W        W84199   0.289   5.861  25.362 -0.2647 -0.1417 -0.0864
 9212W        W84200  14.083  11.419  22.054  0.1427 -0.2989 -0.0732
 9213W        W84201  23.428  34.301  23.023 -0.1152 -0.2043 -0.0921
 9214W        W84202  28.054   9.846  20.585 -0.1840 -0.0568 -0.4028
 9215W        W84203   2.850   3.309   7.754  0.1307 -0.0386  0.1706
 9216W        W84204  17.904  10.613  20.940  0.0851  0.2418  0.2843
 9217W        W84205  32.610  35.108  12.899  0.0635  0.0258  0.1517
 9218W        W84206  31.361  25.607  16.642  0.2480  0.0260 -0.3640
 9219W        W84207  13.809   6.973  25.858  0.2267 -0.1243 -0.3089
 9220W        W84208   9.206   9.066  22.806 -0.0640  0.2532 -0.0413
 9221W        W84209  30.397  34.956  24.291 -0.1410  0.0760 -0.0710
 9222W        W84210   6.064  14.612  20.230  0.1006 -0.1359 -0.0739
 9223W        W84211   3.243  33.362  25.257 -0.0291 -0.0723 -0.0568
 9224W        W84212  34.015   4.408  13.566 -0.1061 -0.0453  0.0985
 9225W        W84213  28.201   6.284  19.957  0.3879  0.1710  0.1335
 9226W        W84214  17.509  14.862   3.548  0.0297 -0.0016 -0.1051
 9227W        W84215  11.488  24.146  14.057  0.2775  0.2257  0.3054
 9228W        W84216   2.865   9.276   3.978 -0.1419  0.1077 -0.0476
 9229W        W84217   4.815  27.057  20.083  0.1599  0.0375  0.1946
 9230W        W84218   6.738   2.340  18.668  0.0520 -0.0598  0.0858
 9231W        W84219   1.155   5.249  20.020 -0.3148 -0.4294  0.1960
 9232W        W84220   0.731  33.440  22.711 -0.3326  0.0527  0.0636
 9233W        W84221  30.577   6.183  18.476  0.1356  0.2355  0.1748
 9234W        W84222   9.188  13.895  22.030  0.0112  0.2099  0.2718
 9235W        W84223  23.487   5.671   4.632  0.2590 -0.0188  0.1908
 9236W        W84224   9.923   3.059  24.050  0.1457 -0.0943 -0.2114
 9237W        W84225   7.699  14.786   8.589  0.1309 -0.1190  0.2870
 9238W        W84226   8.467  16.842  24.168  0.2963  0.1407 -0.0725
 9239W        W84227   5.799   3.571  18.798 -0.3325  0.1099 -0.0877
 9240W        W84228  28.293  32.396  17.352  0.2148  0.5303  0.1689
 9241W        W84229  17.516  14.435   3.138  0.3319 -0.0074 -0.3411
 9242W        W84230  19.286  27.680   2.996  0.0860  0.1234  0.1394
 9243W        W84231  19.742  11.348   3.074  0.0038  0.0100 -0.0173
 9244W        W84232  28.520  24.936   8.442 -0.0486  0.1435  0.1388
 9245W        W84233  30.339  21.149  10.270 -0.1127  0.2510  0.1854
 9246W        W84234   8.108  32.542  22.724  0.1341  0.0953 -0.2309
 9247W        W84235  15.061   7.314   1.598 -0.0678  0.1040  0.0797
 9248W        W84236   6.517  19.385   8.575  0.1654 -0.0399 -0.3811
 9249W        W84237  29.824   1.050   6.401 -0.0629 -0.1981  0.1130
 9250W        W84238  32.290  23.035  19.419  0.1829  0.1225  0.0507
 9251W        W84239   7.683  21.188   8.827  0.2254 -0.0069 -0.3840
 9252W        W84240  13.882  26.700  25.411 -0.3083  0.3009 -0.2057
 9253W        W84241  14.832  21.303  11.275  0.3187  0.0499 -0.4164
 9254W        W84242  12.562  32.751  11.921 -0.1659  0.3026 -0.2386
 9255W        W84243   3.173  23.166  25.243  0.1899 -0.0687 -0.1422
 9256W        W84244  13.993  34.633  22.061 -0.3342 -0.1097 -0.1003
 9257W        W84245  30.797   1.888  12.349  0.1307  0.0571  0.1289
 9258W        W84246   9.521  30.789  13.747 -0.1441  0.1136  0.2294
 9259W        W84247  31.013  14.868   6.587 -0.1921  0.2335 -0.0434
 9260W        W84248  34.043  12.833  17.430 -0.0724  0.0659 -0.0532
 9261W        W84249  29.780  27.438  24.038 -0.2176  0.2275 -0.0934
 9262W        W84250  10.241  22.041   2.658 -0.0810 -0.3171 -0.0945
 9263W        W84251   6.216  14.662  16.834  0.0601  0.0576 -0.0465
 9264W        W84252  13.228   0.345  26.056  0.1123 -0.3898 -0.0893
 9265W        W84253  33.246  22.017  21.109  0.0873 -0.0846 -0.0429
 9266W        W84254   7.733   1.192   4.708 -0.2292  0.1668  0.0336
 9267W        W84255  29.934   6.538   2.427  0.2099  0.0641  0.1702
 9268W        W84256  14.864  13.426  12.166 -0.4258  0.0500  0.0714
 9269W        W84257  19.785  29.305  16.674  0.0179  0.3180  0.0185
 9270W        W84258   8.224  33.695   1.640 -0.1488 -0.0119  0.0063
 9271W        W84259  11.586  19.230   8.775  0.1101  0.5452  0.4046
 9272W        W84260  33.821  15.222  14.407 -0.1742  0.0253  0.1223
 9273W        W84261  16.652  21.439   2.219 -0.0846 -0.0014 -0.1172
 9274W        W84262   7.211  27.915   5.529  0.0791  0.1177  0.3147
 9275W        W84263   3.083  30.873   4.397  0.0253  0.0025 -0.0001
 9276W        W84264   3.909   6.994  17.469  0.2613 -0.0754  0.0752
 9277W        W84265   1.000   6.019  17.227  0.0105 -0.0757  0.0089
 9278W        W84266  25.991  12.496  24.676 -0.0487 -0.1349 -0.0162
 9279W        W84267  21.917   8.810  25.185 -0.2777  0.1422  0.0658
 9280W        W84268   1.708  27.109  26.039  0.1063  0.0812 -0.1964
 9281W        W84269  28.605   4.235   3.428  0.0234  0.3283 -0.3772
 9282W        W84270  25.168   4.081  21.936  0.3242 -0.0325 -0.1116
 9283W        W84271   8.556  12.855   7.566  0.1846 -0.0213  0.1233
 9284W        W84272  31.261  15.231   8.978 -0.3206  0.3217 -0.0476
 9285W        W84273  28.311  10.953  11.945 -0.2475 -0.2188 -0.1353
 9286W        W84274  12.050   0.614  10.837  0.2827  0.0399  0.0236
 9287W        W84275  19.516  22.724   1.397  0.0760 -0.1310 -0.1958
 9288W        W84276  19.524  25.121  25.966  0.2470  0.2298 -0.1657
 9289W        W84277  30.919  32.166  24.205 -0.1826 -0.1974 -0.0843
 9290W        W84278  23.801  34.427  13.795 -0.1233 -0.1464 -0.3241
 9291W        W84279   0.699   3.155  23.672 -0.1512  0.2955  0.0430
 9292W        W84280   9.673  18.541  23.406  0.0044 -0.0953  0.0622
 9293W        W84281   7.490  29.978  21.149  0.2008  0.0674  0.2918
 9294W        W84282  13.360  11.237  10.041 -0.0925  0.1833  0.1923
 9295W        W84283   9.418  17.652   7.830 -0.1820 -0.4502 -0.0364
 9296W        W84284   7.169  31.777  10.909  0.0750 -0.1709 -0.0909
 9297W        W84285  28.492  17.554  22.625  0.0738 -0.2433 -0.1267
 9298W        W84286  29.052  16.791   3.992 -0.2222  0.0273  0.0396
 9299W        W84287   0.972   7.888  14.126 -0.1319  0.2243 -0.0149
 9300W        W84288  12.464  26.831  15.286  0.0068  0.2276 -0.1641
 9301W        W84289   3.953   6.313   4.818 -0.1128 -0.2629 -0.0104
 9302W        W84290   9.017  20.280  22.264 -0.1162 -0.2256 -0.1879
 9303W        W84291   4.504  34.998  18.744 -0.0020 -0.1494 -0.3026
 9304W        W84292  17.036  15.863   7.748 -0.2293  0.0160  0.3525
 9305W        W84293   6.101   3.259   7.072 -0.0172 -0.2779 -0.0244
 9306W        W84294   4.808   0.390  11.497  0.0628  0.2388 -0.0866
 9307W        W84295  27.510   7.810   0.290  0.1832  0.1253  0.0918
 9308W        W84296  20.002  10.606   1.001 -0.0125  0.0355 -0.0459
 9309W        W84297  25.119  32.348  14.910  0.0238 -0.0956  0.4187
 9310W        W84298  24.052  23.404  20.105  0.0093 -0.3519  0.3909
 9311W        W84299   2.882   9.561  23.773 -0.0902 -0.0361  0.0045
 9312W        W84300  32.048  27.793  20.192 -0.4053  0.0077  0.2220
 9313W        W84301  23.644  16.774  24.994 -0.3886 -0.2758 -0.1521
 9314W        W84302  10.117  33.481   9.870 -0.4699 -0.0094 -0.0827
 9315W        W84303  14.371  23.954  10.024 -0.1230 -0.2535  0.0045
 9316W        W84304  26.610  20.884  12.643  0.5454 -0.2274 -0.0334
 9317W        W84305  28.193  35.030  17.425 -0.0961  0.2465 -0.4410
 9318W        W84306  19.078  26.178   1.446 -0.3442 -0.1989 -0.0478
 9319W        W84307  25.699   4.500  19.982 -0.2895  0.0681  0.1303
 9320W        W84308  34.196  25.255  11.196  0.0851  0.2887  0.0312
 9321W        W84309  34.041  28.198  17.920 -0.1240  0.0996  0.3224
 9322W        W84310  18.030   6.210  25.592 -0.0382  0.1146 -0.0562
 9323W        W84311  14.830  11.738  10.051 -0.1330 -0.3214 -0.3015
 9324W        W84312  27.260  16.501  12.897  0.2038 -0.0467  0.0500
 9325W        W84313  29.110  20.978  18.015 -0.2973 -0.0656  0.0047
 9326W        W84314   3.667  16.390  20.370  0.2037 -0.0064 -0.1832
 9327W        W84315   4.860  25.087  20.151 -0.1915 -0.4339  0.3012
 9328W        W84316   4.581  13.599  17.006 -0.3113  0.2252 -0.0654
 9329W        W84317  28.450  30.364   3.655  0.0577 -0.0967 -0.0930
 9330W        W84318  12.640  12.626   0.137 -0.0607 -0.1758  0.2382
 9331W        W84319  29.892  34.052  15.671  0.2784  0.1992 -0.1165
 9332W        W84320   4.247  22.103  26.079 -0.0658 -0.0221 -0.0584
 9333W        W84321  27.821   2.754  20.438  0.1871 -0.3330 -0.0358
 9334W        W84322   2.336  17.540  14.192  0.0758 -0.0061 -0.0100
 9335W        W84323  28.680  32.887  25.382 -0.4440 -0.1783 -0.0913
 9336W        W84324  14.512  27.504  12.356  0.2275  0.1724 -0.3799
 9337W        W84325  17.394  16.876   9.669  0.0121  0.0705 -0.0339
 9338W        W84326  33.207   8.516  20.875 -0.0684 -0.1406  0.0260
 9339W        W84327  31.748  32.507  24.092  0.1305  0.1079  0.1938
 9340W        W84328  30.823  12.794  23.788  0.0233 -0.1261 -0.0416
 9341W        W84329  29.481  30.570  22.464 -0.0385 -0.3148 -0.2542
 9342W        W84330  31.293  34.614  22.654 -0.0373 -0.0693  0.1381
 9343W        W84331  14.736  26.900  15.222  0.0337  0.0895  0.0800
 9344W        W84332  33.444  23.783  18.940  0.2366 -0.0475  0.0059
 9345W        W84333  33.848  10.036  22.087 -0.0850  0.1640 -0.0632
 9346W        W84334  19.532   0.023   2.248 -0.0435  0.0895  0.1606
 9347W        W84335  10.607   1.019  13.304 -0.0762  0.0932  0.0860
 9348W        W84336  29.838  11.760  12.034  0.0758 -0.0286  0.0185
 9349W        W84337   4.482   4.047  26.236 -0.1987 -0.2859 -0.0659
 9350W        W84338  25.195  20.352  19.462 -0.0058 -0.0091  0.5121
 9351W        W84339  30.790  34.069  17.787  0.1267 -0.1829  0.2095
 9352W        W84340   7.163   3.426   7.773  0.0203  0.2154 -0.2563
 9353W        W84341   5.098  24.462   5.714 -0.0777 -0.0365  0.1655
 9354W        W84342  29.384  11.773  22.728 -0.0949  0.1328  0.0445
 9355W        W84343  10.140  15.527   2.509  0.0627 -0.3629  0.1093
 9356W        W84344  18.903  26.710   5.974 -0.1394 -0.0846  0.1604
 9357W        W84345  31.242  22.816  23.637  0.1959 -0.1683 -0.0677
 9358W        W84346   2.931  31.258   3.420 -0.1526 -0.4148  0.1019
 9359W        W84347  29.118   0.980  16.020  0.2496 -0.1228 -0.0337
 9360W        W84348  16.605   3.608  20.463 -0.1655 -0.4576  0.0259
 9361W        W84349  23.630  19.656  20.023  0.0714 -0.0674  0.0076
 9362W        W84350  35.066  12.893   0.870 -0.1216 -0.1430  0.1354
 9363W        W84351   4.459  12.859  20.611  0.2910  0.2338 -0.2382
 9364W        W84352   5.781  20.000   3.427  0.3560  0.2361 -0.0249
 9365W        W84353  30.242  25.893  15.062  0.3553 -0.0413  0.2674
 9366W        W84354  30.482  20.020  20.515  0.0437 -0.1600  0.2831
 9367W        W84355  31.710   0.662  12.024  0.0709 -0.0410 -0.0345
 9368W        W84356  19.194  24.747  10.351 -0.1268  0.3554 -0.1334
 9369W        W84357  25.735  24.219  17.843 -0.1018 -0.0642  0.1258
 9370W        W84358   8.190  27.107   3.289  0.3030  0.2045 -0.2499
 9371W        W84359  22.251  12.029  24.266 -0.1476 -0.0600 -0.1434
 9372W        W84360  26.835  12.812  21.205  0.0847  0.2477  0.0640
 9373W        W84361  27.576  11.367   9.589  0.2439 -0.0779  0.0365
 9374W        W84362   3.995  11.903  17.903 -0.2264 -0.1754  0.2931
 9375W        W84363   8.208  26.866  14.637  0.2296 -0.4029 -0.1205
 9376W        W84364  32.094  21.467  20.654  0.2553  0.0218 -0.3790
 9377W        W84365   9.907  29.680  24.008  0.0743 -0.2816 -0.1012
 9378W        W84366  13.570  10.618  26.002  0.2042  0.4523 -0.0087
 9379W        W84367  24.410   3.300  20.971 -0.3316  0.0718  0.2199
 9380W        W84368  29.486  22.983  12.710  0.2375  0.1334 -0.1761
 9381W        W84369  24.761  28.654   9.831  0.1397  0.1642 -0.2116
 9382W        W84370  11.001  19.253   1.026  0.2001  0.0377  0.1212
 9383W        W84371  32.690  13.472  20.146 -0.1416 -0.0874 -0.0211
 9384W        W84372  24.437  32.157   1.417 -0.1652  0.0178  0.0477
 9385W        W84373   5.902  34.095  13.144  0.3350 -0.3614  0.1238
 9386W        W84374  25.464  34.393   1.878 -0.1203  0.1491 -0.1021
 9387W        W84375  33.177  15.506  20.526  0.0993  0.2405 -0.1898
 9388W        W84376  32.680  14.796  16.346 -0.3896  0.0885  0.3562
 9389W        W84377  26.699  13.626   5.965  0.0455  0.2210  0.3651
 9390W        W84378  29.879   6.110  19.089  0.1250  0.1289  0.2093
 9391W        W84379  28.072   3.547   0.703 -0.2145 -0.2243 -0.1428
 9392W        W84380   0.448   0.127   2.502  0.0785  0.0110 -0.0007
 9393W        W84381  10.211  24.678  13.923  0.1687 -0.2281 -0.1239
 9394W        W84382  18.253   1.414   9.737 -0.0069 -0.1972 -0.3024
 9395W        W84383  17.222   5.189  24.203 -0.1609  0.0138  0.3663
 9396W        W84384   6.143  16.353  18.592 -0.1064 -0.0927 -0.1004
 9397W        W84385  22.467  12.853  21.216  0.0741 -0.0290  0.0201
 9398W        W84386  15.315  19.132   5.164 -0.3627  0.1999 -0.3021
 9399W        W84387  18.091  31.688  20.279  0.2445 -0.0158 -0.0423
 9400W        W84388  24.931  25.206   2.185 -0.0416 -0.1496 -0.0225
 9401W        W84389  16.741  30.508  20.314 -0.0337  0.1700 -0.1573
 9402W        W84390  10.535  19.611  25.614 -0.1066 -0.1066 -0.0229
 9403W        W84391   1.468  11.560  17.798  0.1486  0.2038 -0.2724
 9404W        W84392  26.673  10.039  21.094 -0.3603  0.1638  0.3349
 9405W        W84393   6.992  17.695  10.456  0.0588 -0.0618  0.4652
 9406W        W84394  35.315   0.882   7.197  0.2391  0.2488 -0.2268
 9407W        W84395  29.144  21.099  10.055  0.2542 -0.0107 -0.0069
 9408W        W84396  28.372  29.510  21.374 -0.0420  0.2337  0.2935
 9409W        W84397  33.586  26.692  24.672 -0.1163 -0.1753 -0.0517
 9410W        W84398  22.809  16.584   0.100  0.1344 -0.1021  0.0559
 9411W        W84399  27.518  32.645  12.022 -0.0606 -0.1026  0.1911
 9412W        W84400   5.329  34.389   7.825 -0.3013  0.1475  0.2852
 9413W        W84401  24.547  28.664  23.697 -0.0901 -0.2433  0.0454
 9414W        W84402  20.901  33.783  17.886 -0.2410 -0.0648 -0.3001
 9415W        W84403  26.809  18.985   8.049 -0.1478 -0.1951 -0.0389
 9416W        W84404  30.210  16.377  17.877 -0.1549  0.1601 -0.4132
 9417W        W84405  28.345  13.757  20.012  0.3346 -0.2143  0.0163
 9418W        W84406  32.252  12.836  13.187  0.0721  0.3355  0.1758
 9419W        W84407  15.886  33.322  25.445 -0.1961  0.0421  0.1904
 9420W        W84408  33.665  18.884   7.289 -0.0412  0.4727  0.6532
 9421W        W84409   6.779  26.981  21.780  0.1942 -0.2055  0.0715
 9422W        W84410  32.515   1.556  25.356  0.0986  0.3578  0.6602
 9423W        W84411  11.909  29.106  10.656  0.2590  0.1203 -0.1057
 9424W        W84412  24.046   9.794  25.426  0.1321  0.0052  0.2668
 9425W        W84413  22.939  22.494  25.963 -0.3108 -0.0066  0.0336
 9426W        W84414  25.833  20.397  20.194 -0.3188 -0.1110  0.0358
 9427W        W84415   6.490   5.539  24.666  0.1017 -0.0479 -0.4968
 9428W        W84416   5.424  15.203  25.841  0.2729  0.1189 -0.0933
 9429W        W84417  23.305  30.210  13.203  0.0313  0.0252  0.1694
 9430W        W84418  17.500  25.479  24.144  0.0966 -0.2813  0.1259
 9431W        W84419  34.656   1.663  16.278  0.0499  0.0134  0.1428
 9432W        W84420   0.563  31.646   1.693 -0.1990 -0.0752  0.0098
 9433W        W84421  15.747  11.431   9.030  0.0538  0.1867 -0.1209
 9434W        W84422  28.385   8.099  12.425 -0.3177  0.1138  0.3026
 9435W        W84423  24.480  22.901  14.859 -0.2631  0.1349 -0.2136
 9436W        W84424  31.434   7.375  16.851  0.1001  0.1367  0.3182
 9437W        W84425  10.298  26.074  22.738 -0.2302 -0.0942  0.0735
 9438W        W84426   1.430  20.976  14.832 -0.1945 -0.2653  0.0119
 9439W        W84427  31.964  16.869  10.153  0.1860 -0.1053 -0.2238
 9440W        W84428  22.265  29.293  20.402 -0.2742  0.0115  0.0446
 9441W        W84429  24.365  32.026   0.918  0.2239 -0.1127 -0.1438
 9442W        W84430  32.884   7.978  20.160  0.1177  0.1301 -0.2514
 9443W        W84431  11.986  19.857  13.752  0.2594  0.2552  0.0526
 9444W        W84432  30.348   4.248   1.094  0.1906 -0.1983 -0.2471
 9445W        W84433   7.976  34.334  13.486  0.5939  0.0498 -0.2073
 9446W        W84434  14.254  20.307  13.608  0.0210 -0.0431 -0.0833
 9447W        W84435  21.201  30.689   2.697  0.0221 -0.3170 -0.2340
 9448W        W84436   3.224  12.985  13.994 -0.2347 -0.0256  0.0779
 9449W        W84437  31.382  11.282  18.412  0.1670 -0.1376 -0.2013
 9450W        W84438  11.186  35.091  12.868 -0.5759 -0.3748 -0.0729
 9451W        W84439   1.592  32.764   2.082  0.0152  0.1706  0.2244
 9452W        W84440   2.005   7.444   2.300  0.2933  0.0358 -0.0893
 9453W        W84441  24.908  21.265  23.097 -0.0016  0.0776  0.1481
 9454W        W84442   5.421   6.625   4.995 -0.0237 -0.2975 -0.2062
 9455W        W84443  12.523  23.858   8.209  0.2799 -0.1229 -0.0430
 9456W        W84444   9.463  25.951  22.784  0.1831  0.1724  0.0584
 9457W        W84445  10.425   7.531  24.895 -0.3550 -0.0788  0.2819
 9458W        W84446  21.947  22.133  25.377 -0.2465 -0.1970  0.2134
 9459W        W84447   9.815  20.203  12.178  0.0641  0.0829 -0.1927
 9460W        W84448  26.985   9.677  20.223 -0.0676 -0.0117 -0.4641
 9461W        W84449  15.736  20.717  21.392  0.0384  0.0881  0.3057
 9462W        W84450   4.004  18.716  21.896  0.4639 -0.0233  0.2366
 9463W        W84451  29.097  35.278   2.708 -0.1119 -0.0795  0.0541
 9464W        W84452  12.386  32.468  25.060  0.3273  0.1465  0.0206
 9465W        W84453   7.983  22.655  21.964 -0.5145  0.2809 -0.0591
 9466W        W84454   9.562  22.511  24.923  0.0030 -0.1270 -0.0471
 9467W        W84455  18.902  25.130  22.544 -0.1673 -0.0162 -0.1682
 9468W        W84456  19.247  33.814  20.685 -0.1350 -0.0211 -0.1273
 9469W        W84457   0.582   8.452  24.687  0.2704 -0.2726  0.0422
 9470W        W84458  31.980  27.874   1.501 -0.2130  0.1686  0.4178
 9471W        W84459   9.565  28.702   3.160 -0.4262 -0.0454  0.2223
 9472W        W84460   9.661   3.725   3.288 -0.1711 -0.0067  0.1368
 9473W        W84461   9.359  15.859   6.402  0.0522  0.3986  0.2112
 9474W        W84462  25.002  31.560   0.459  0.0021 -0.0812  0.3021
 9475W        W84463   3.036   3.691  25.014 -0.1127  0.3394  0.1565
 9476W        W84464  34.582  35.321  21.444 -0.0507  0.2238  0.2260
 9477W        W84465  10.503  14.697   0.002  0.0244 -0.1088  0.0183
 9478W        W84466  26.775  19.535  21.058 -0.2537 -0.2959  0.1124
 9479W        W84467   4.753  34.560  12.642  0.0427  0.2651  0.1303
 9480W        W84468   0.813  25.783   0.937 -0.0285  0.0808  0.1277
 9481W        W84469  14.600  13.979   5.187 -0.1057 -0.3466  0.3125
 9482W        W84470   7.483  28.016   5.882 -0.1833  0.1146 -0.1025
 9483W        W84471  11.956  28.477   4.984  0.1196  0.1337  0.3371
 9484W        W84472  33.110  30.583   0.904  0.1695 -0.0002 -0.2319
 9485W        W84473  31.832  19.813  18.737 -0.0264  0.3838 -0.1621
 9486W        W84474   9.576  22.880  12.007 -0.1177  0.1051  0.2298
 9487W        W84475  12.728   5.865  25.589 -0.2436 -0.1142  0.1078
 9488W        W84476  13.065  22.297  13.910  0.1793 -0.0046  0.3438
 9489W        W84477  28.924   7.355  23.982 -0.0626  0.0159 -0.0171
 9490W        W84478   0.870  13.925  21.452 -0.3106 -0.2511 -0.2970
 9491W        W84479  23.713  12.084  15.769  0.1013  0.2117  0.3584
 9492W        W84480   5.025  29.379   8.304  0.1934  0.3266  0.1926
 9493W        W84481  12.684  20.841   9.783 -0.1216 -0.0207  0.0236
 9494W        W84482  11.139   8.195  13.916 -0.3228 -0.1141 -0.0919
 9495W        W84483  16.984  24.573   1.823 -0.0415 -0.0113  0.1692
 9496W        W84484   1.237  22.003  13.978  0.0047  0.2207  0.0686
 9497W        W84485  16.508  26.463   4.978 -0.0678  0.1415  0.0117
 9498W        W84486  17.484  24.601   9.095  0.0652  0.0675 -0.1375
 9499W        W84487   3.334  26.941   8.984 -0.0531 -0.1993  0.1659
 9500W        W84488  20.614  16.930   1.149 -0.1154  0.0391  0.2425
 9501W        W84489  24.437  34.078  16.733  0.3099  0.2876  0.0932
 9502W        W84490   8.695   9.792   3.103  0.4583  0.2084  0.4188
 9503W        W84491  11.230   5.039   9.889 -0.0671 -0.0447 -0.0169
 9504W        W84492  22.780   4.411   2.861 -0.2338 -0.2106 -0.2122
 9505W        W84493  18.651  22.160   2.057 -0.0523 -0.3200 -0.3535
 9506W        W84494   9.457   8.560   2.740  0.2610 -0.1485 -0.3246
 9507W        W84495   7.759  12.656   5.318 -0.0271  0.4859 -0.0751
 9508W        W84496  19.360  32.875  26.121 -0.2411 -0.1224  0.2769
 9509W        W84497  13.740  23.721  15.386  0.1057  0.0849 -0.1152
 9510W        W84498   2.167  18.047  24.630  0.0796 -0.0176 -0.0532
 9511W        W84499  15.016  16.943   7.992 -0.2078 -0.1695 -0.1047
 9512W        W84500   6.737  11.973   4.389 -0.0747 -0.2189  0.1166
 9513W        W84501  21.877  28.508  23.983 -0.3079 -0.1485  0.0773
 9514W        W84502  31.505  19.665  15.965 -0.3068 -0.0396 -0.2100
 9515W        W84503  10.142  17.773   6.402 -0.2054 -0.2977 -0.0390
 9516W        W84504  14.024  22.603  13.632  0.1587 -0.0691 -0.0353
 9517W        W84505  15.852  30.051  10.016 -0.2525 -0.1526  0.4060
 9518W        W84506  28.823   1.362  15.033  0.0538 -0.0787 -0.0533
 9519W        W84507  18.283  27.382   7.788 -0.1581  0.3003 -0.2212
 9520W        W84508   0.464  28.384   4.148 -0.2787 -0.0836  0.1311
 9521W        W84509   0.076  27.441   1.324  0.2934 -0.1125 -0.0137
 9522W        W84510  33.104  20.278  13.115  0.3297 -0.2144 -0.1550
 9523W        W84511   4.717  26.521  23.719 -0.1760 -0.0282 -0.0681
 9524W        W84512  31.639  12.569   8.650  0.2671 -0.4219 -0.1779
 9525W        W84513   1.516  20.037  16.481  0.0996 -0.0741  0.1822
 9526W        W84514   5.839   3.875  12.101 -0.0824 -0.1986  0.1190
 9527W        W84515  29.525  12.308  17.388 -0.1292 -0.1626  0.0857
 9528W        W84516  15.064   2.613   3.745  0.0628 -0.0806  0.0205
 9529W        W84517  33.950   7.524  15.019  0.1441  0.0926 -0.0133
 9530W        W84518  31.269   8.353  20.860  0.0577  0.2325  0.1763
 9531W        W84519  26.655  10.010  21.943  0.1729 -0.2527  0.1398
 9532W        W84520  11.282   6.512  13.074  0.0315 -0.0825  0.1614
 9533W        W84521  19.439  34.010  18.474 -0.3394  0.3065 -0.0514
 9534W        W84522  21.687  17.354  18.400  0.1096  0.1296 -0.0766
 9535W        W84523  23.846  17.020  10.626 -0.0584 -0.0305  0.0693
 9536W        W84524   7.635  32.966  15.376  0.3140 -0.1610 -0.2802
 9537W        W84525   0.387  17.374  19.843 -0.0218 -0.3091  0.2059
 9538W        W84526  13.898  16.472   6.295  0.2165 -0.0041  0.0859
 9539W        W84527  10.726  21.414   0.378  0.3132 -0.0903  0.1614
 9540W        W84528  23.615  11.598  23.715  0.0483  0.0569 -0.0911
 9541W        W84529  23.725  17.068  16.791 -0.2831 -0.4141  0.0103
 9542W        W84530  27.620  19.013  20.028  0.1035 -0.0999 -0.1631
 9543W        W84531  23.700  24.628  24.053  0.0405 -0.1751  0.3026
 9544W        W84532  10.211  23.751   9.787 -0.0447  0.0043  0.1914
 9545W        W84533  28.358  10.053  16.791  0.1609  0.2767 -0.1899
 9546W        W84534  32.013  17.000  18.409 -0.2691  0.1094  0.4422
 9547W        W84535  20.375  28.095   3.523  0.0827 -0.1284  0.2770
 9548W        W84536  32.967   6.129  16.845  0.3267 -0.2357  0.4297
 9549W        W84537  33.817  33.492  20.412 -0.0945 -0.5485  0.1691
 9550W        W84538  10.085  22.089  11.894  0.0536 -0.0908  0.0162
 9551W        W84539   7.898  28.313  26.037 -0.0836  0.1078 -0.1898
 9552W        W84540  31.941   8.804  14.252 -0.0685  0.1261  0.1023
 9553W        W84541  22.388  12.743  25.594  0.2492  0.1860  0.4182
 9554W        W84542  35.130  27.914   4.321  0.1086 -0.0120 -0.1822
 9555W        W84543  10.528  13.956   6.084  0.0565 -0.4045 -0.2188
 9556W        W84544   9.759  23.356   2.644  0.1381 -0.0912  0.1061
 9557W        W84545  16.438  22.719  25.255  0.0389 -0.0246 -0.2395
 9558W        W84546  31.218   2.191   2.601 -0.1338 -0.0666 -0.2545
 9559W        W84547   7.784  33.899   6.298 -0.2097  0.2265 -0.2546
 9560W        W84548  32.597  34.491  14.768 -0.2345  0.1975  0.0715
 9561W        W84549  20.650  23.327  22.414  0.1384 -0.2520  0.0011
 9562W        W84550  11.642  25.100  24.949  0.0364  0.1002 -0.0878
 9563W        W84551  10.668  22.461   5.688  0.1437 -0.0284  0.1600
 9564W        W84552   8.940  27.194  13.221  0.3737 -0.3166  0.3124
 9565W        W84553  33.056  17.643  20.286  0.1786 -0.0436  0.1971
 9566W        W84554  19.922  11.302  17.197  0.1181  0.1105  0.1228
 9567W        W84555  22.007  18.701  22.076  0.3312  0.1052  0.3426
 9568W        W84556  21.924   0.541   8.390  0.2879 -0.2086 -0.3372
 9569W        W84557   6.445  14.117   6.638 -0.1456 -0.0356  0.0261
 9570W        W84558  21.795  26.704  23.794 -0.0642  0.2937  0.0604
 9571W        W84559   2.625  14.457  24.403  0.2362  0.0583  0.0349
 9572W        W84560  27.888  10.542  20.106  0.1004 -0.0702  0.0285
 9573W        W84561   3.734  21.768  22.124  0.0818 -0.1230  0.1717
 9574W        W84562  31.578  21.162  13.098 -0.0326 -0.1664  0.0655
 9575W        W84563   7.571  33.684   3.963 -0.1648 -0.4216  0.1115
 9576W        W84564  26.505   1.115  13.942 -0.2913  0.0358  0.1964
 9577W        W84565   8.167  13.839   4.177  0.1350  0.1975  0.3058
 9578W        W84566   8.338  31.374   9.024  0.0262  0.0014 -0.1589
 9579W        W84567   0.732   5.700  14.910  0.0378 -0.1456  0.1503
 9580W        W84568  32.531  26.307  18.347  0.2012 -0.2405  0.1476
 9581W        W84569  16.180  11.985  10.634 -0.1703  0.2008  0.4397
 9582W        W84570  15.271  31.080   6.222  0.2850 -0.0407  0.1980
 9583W        W84571  28.339   0.476  15.769 -0.0324  0.3445  0.0955
 9584W        W84572   9.596  15.851   5.591 -0.0867  0.0625 -0.0935
 9585W        W84573   4.546  31.447   8.417 -0.1212 -0.0341 -0.2326
 9586W        W84574  27.300  33.504   2.695  0.0243  0.1147 -0.3398
 9587W        W84575  15.923   9.110   2.998 -0.0640 -0.3597 -0.2448
 9588W        W84576  14.333  32.896  11.220  0.0117 -0.0207  0.2916
 9589W        W84577  31.997   0.438   4.102 -0.1183  0.1162  0.0606
 9590W        W84578  12.573   2.976  18.647  0.0638 -0.0452  0.1622
 9591W        W84579  33.992  31.715  21.078 -0.2055 -0.1370  0.1140
 9592W        W84580  14.664  19.259  14.632  0.0769 -0.1597  0.3823
 9593W        W84581  20.776  33.579   6.464 -0.1436 -0.0512 -0.1738
 9594W        W84582  34.142   5.268  12.362  0.1268  0.0844 -0.1151
 9595W        W84583  30.684  27.288  17.052  0.5629  0.0888 -0.1412
 9596W        W84584   5.844  24.700   8.591 -0.1730  0.0899 -0.4577
 9597W        W84585   0.678   9.689  13.355 -0.4039 -0.0608  0.0861
 9598W        W84586   3.775   9.868   8.324  0.0498  0.1956 -0.0166
 9599W        W84587   1.000  23.662   0.258  0.3442  0.0974  0.2109
 9600W        W84588  30.551  15.654  12.547 -0.1411  0.0828  0.0278
 9601W        W84589  10.264   1.133  12.298  0.1371  0.1434 -0.1022
 9602W        W84590  27.747   5.182  25.634 -0.1038  0.0555 -0.0147
 9603W        W84591  27.329  22.293  21.560 -0.5852  0.2636 -0.1324
 9604W        W84592  20.606  23.380   0.212  0.2121  0.2416 -0.0042
 9605W        W84593   4.836   2.025  22.887 -0.0627  0.1438  0.0651
 9606W        W84594   3.179   7.058  15.532  0.0638 -0.0404  0.0201
 9607W        W84595  16.270   6.374  11.194 -0.1392  0.0690 -0.2555
 9608W        W84596   8.514  10.719  21.323  0.3669 -0.1376 -0.1251
 9609W        W84597  11.651  12.176   0.437  0.0865 -0.3837  0.1050
 9610W        W84598  19.498   1.426  23.128  0.0959  0.1735 -0.0537
 9611W        W84599  31.606  18.514  11.509  0.0636  0.0883  0.0778
 9612W        W84600  13.097  34.539  11.881  0.1343  0.1775  0.0029
 9613W        W84601  28.740  33.741  22.869 -0.2702  0.3103  0.0789
 9614W        W84602  29.393  27.863  15.902 -0.1123 -0.0136  0.0104
 9615W        W84603  20.028  29.129  17.515  0.3860  0.1132 -0.0634
 9616W        W84604  32.474   6.041   3.156  0.1091  0.1810  0.0627
 9617W        W84605  22.075  29.771   4.273  0.2034  0.0694 -0.1195
 9618W        W84606  12.169  13.519  20.100 -0.1249 -0.0370 -0.0302
 9619W        W84607   1.228  10.218   2.005 -0.0119  0.1331  0.1220
 9620W        W84608  12.017  23.328  26.080  0.4420  0.0464  0.1039
 9621W        W84609  24.168  33.891   0.318 -0.0462 -0.0956 -0.0611
 9622W        W84610  11.685  16.045  23.766  0.1000 -0.1670 -0.0913
 9623W        W84611  34.646  13.123  24.791  0.0565 -0.3166 -0.2739
 9624W        W84612  20.134   1.802  21.471 -0.0615  0.1856  0.1736
 9625W        W84613  18.902   6.521  22.127  0.0840  0.0112  0.1220
 9626W        W84614  15.644  32.273  21.762  0.0177 -0.4891 -0.0305
 9627W        W84615   7.057  24.048  24.812 -0.1638 -0.2347 -0.1872
 9628W        W84616  29.275  16.767   8.771 -0.0180  0.0262 -0.0193
 9629W        W84617   7.125  34.056  14.586  0.2611 -0.2160 -0.1639
 9630W        W84618  10.057  14.155   1.913  0.4361  0.0735  0.1037
 9631W        W84619  33.545  10.860  15.880 -0.3139  0.1809 -0.0832
 9632W        W84620   5.559  30.086  20.645 -0.0960  0.6010  0.1758
 9633W        W84621   0.586   0.669   4.895 -0.0553  0.0918 -0.1945
 9634W        W84622   3.305  34.804  21.159  0.0164 -0.1145  0.1933
 9635W        W84623  28.000  26.769  16.090 -0.0012 -0.0679 -0.1198
 9636W        W84624  28.781  29.035  13.889  0.1478  0.1858 -0.0161
 9637W        W84625  11.907   8.465  11.911 -0.3293 -0.2649 -0.0038
 9638W        W84626  33.096  19.668   6.291 -0.1866  0.1091 -0.0123
 9639W        W84627  12.551  33.468  11.989 -0.1500  0.6315 -0.0303
 9640W        W84628   0.409   4.948  16.428 -0.0595 -0.0133 -0.2998
 9641W        W84629  24.760  13.297  13.515  0.0134 -0.1534  0.0806
 9642W        W84630   8.647  28.909  14.531  0.1568  0.1748  0.0772
 9643W        W84631  25.679  18.206  19.341  0.1417  0.2248  0.2543
 9644W        W84632  22.500  32.172  22.119  0.1107 -0.2961  0.0824
 9645W        W84633  17.040   8.726   0.056 -0.1175  0.0844 -0.2416
 9646W        W84634  20.366  12.724   7.191 -0.0775 -0.0665  0.3965
 9647W        W84635   7.531  14.036   8.516  0.0369  0.1866 -0.2411
 9648W        W84636  26.396   6.224  16.497  0.1231  0.0601  0.0588
 9649W        W84637  10.292  22.141   1.032 -0.1299  0.1779  0.1227
 9650W        W84638   6.592   9.443   6.963 -0.0976 -0.2598  0.0068
 9651W        W84639  21.125   9.685  19.370  0.0750 -0.0005  0.0200
 9652W        W84640  30.460   1.527   5.421  0.0092 -0.0731 -0.1172
 9653W        W84641  14.503  13.631  21.997  0.6406 -0.0241  0.1159
 9654W        W84642   8.934  29.344   8.739  0.1678 -0.1799  0.2936
 9655W        W84643   9.007  27.709  26.065 -0.0877  0.0898 -0.1719
 9656W        W84644  10.012  32.293  25.593  0.0718  0.0236  0.0366
 9657W        W84645   0.682  18.947  25.070  0.4034 -0.1465 -0.3651
 9658W        W84646  27.806   6.037   0.465  0.0092  0.2392  0.1748
 9659W        W84647  13.176   4.625   3.166 -0.0388 -0.1579  0.1904
 9660W        W84648  13.894  15.530   9.081 -0.0647 -0.1972  0.1249
 9661W        W84649  31.184  30.412  26.225  0.1059  0.2085  0.0360
 9662W        W84650   1.529   2.756  25.475  0.0095 -0.2034  0.0489
 9663W        W84651   0.798   1.880  14.520 -0.1196 -0.2248  0.0019
 9664W        W84652  30.962  32.379  12.685  0.1950 -0.0792 -0.1801
 9665W        W84653   0.079  21.197  12.342 -0.1443  0.3856  0.3401
 9666W        W84654   7.695   9.419  10.912  0.0891  0.0191 -0.3106
 9667W        W84655  10.177  12.724  22.755  0.2002 -0.4987  0.0887
 9668W        W84656   9.615  10.413   9.531  0.0756 -0.3712  0.1497
 9669W        W84657   1.032   6.465  21.708  0.0307  0.0714 -0.4071
 9670W        W84658  27.664  22.927  18.743  0.1384 -0.0940  0.2074
 9671W        W84659  27.185  13.412  25.254 -0.2827  0.3329  0.0562
 9672W        W84660  11.407  32.180  26.231 -0.1126  0.1259  0.1291
 9673W        W84661  28.434  28.064   0.826 -0.3579  0.0741 -0.0869
 9674W        W84662  30.893  20.099  15.097  0.0861  0.0055  0.0583
 9675W        W84663   1.841   3.943   1.247  0.0494 -0.3268  0.4839
 9676W        W84664   5.501  14.689  26.234  0.0414 -0.0069 -0.2060
 9677W        W84665   8.372  34.840   2.934  0.3553  0.3456 -0.1207
 9678W        W84666  32.638  33.797   3.608 -0.0140  0.0917 -0.2060
 9679W        W84667  34.421   7.587   2.463  0.0767 -0.4874 -0.1299
 9680W        W84668  20.403  33.834  20.682  0.1229  0.2623  0.4001
 9681W        W84669   7.454   2.585  21.450 -0.2147 -0.1850 -0.4409
 9682W        W84670   5.647  17.497   3.269  0.1043  0.3896  0.3060
 9683W        W84671  15.537  18.489   0.381  0.0470  0.1358 -0.1555
 9684W        W84672  34.057  30.222  23.177 -0.0597 -0.0637  0.2126
 9685W        W84673   2.562   2.419   0.017  0.0188  0.2773 -0.2392
 9686W        W84674  32.414  20.397  20.010 -0.1504 -0.2926  0.2085
 9687W        W84675  33.594   6.369   0.702 -0.0110  0.1191 -0.1779
 9688W        W84676  19.695  25.465   4.116  0.1839 -0.0456 -0.1672
 9689W        W84677  19.010   2.521  19.402  0.0586  0.0482  0.1736
 9690W        W84678   5.556  17.095  20.027 -0.2843 -0.1667 -0.0505
 9691W        W84679  24.331  31.063  19.581  0.0210  0.0690 -0.1352
 9692W        W84680  34.261   4.689  14.098  0.1418 -0.2437 -0.1056
 9693W        W84681  30.189   2.311  20.018  0.0724  0.2888 -0.1122
 9694W        W84682  10.505   4.567   2.211 -0.2396 -0.0857 -0.4166
 9695W        W84683  32.709  14.957  23.017 -0.1700  0.0104 -0.1122
 9696W        W84684  27.812   9.218  14.448  0.1866 -0.1027  0.0415
 9697W        W84685  29.845  14.822  11.475 -0.4878  0.0222 -0.1030
 9698W        W84686  27.419  28.159  16.256  0.1745 -0.2442 -0.1877
 9699W        W84687  31.977  21.486  17.415  0.0875 -0.3818 -0.0589
 9700W        W84688  29.367  26.316  25.768  0.2760  0.1006 -0.0464
 9701W        W84689  33.307   3.224  19.824 -0.0336 -0.1163  0.2250
 9702W        W84690  23.103   9.950   0.181 -0.2727  0.0453 -0.2058
 9703W        W84691   9.273  18.196   6.935 -0.1941  0.1496 -0.0918
 9704W        W84692  32.270  26.598  25.518  0.0059  0.2264  0.5640
 9705W        W84693   3.959  15.578  25.112  0.0417 -0.0965 -0.1434
 9706W        W84694  19.204  22.378   0.323 -0.2969  0.4877  0.1702
 9707W        W84695  20.880  29.398  25.695  0.0825  0.1254 -0.1194
 9708W        W84696   8.445  18.994   2.550 -0.0714 -0.1316 -0.2483
 9709W        W84697   0.551   3.023  20.188  0.0839  0.1508  0.1527
 9710W        W84698   8.620  17.457  21.353  0.0881  0.1367 -0.1247
 9711W        W84699  10.272  29.732  10.454 -0.2027 -0.1965 -0.0516
 9712W        W84700  26.666  33.789   4.102  0.2138  0.0514 -0.1175
 9713W        W84701  28.617  13.210  13.112  0.0170 -0.5105  0.0514
 9714W        W84702  19.776   5.687  11.125  0.1657  0.0548 -0.1029
 9715W        W84703   7.614  26.116   5.888 -0.2478 -0.0363  0.2656
 9716W        W84704  12.041  23.694  12.867 -0.1732  0.1392 -0.0464
 9717W        W84705  11.070   9.208   7.067 -0.2191 -0.0376 -0.0880
 9718W        W84706  28.876  33.209  14.945  0.2710 -0.2200 -0.1814
 9719W        W84707  11.877  32.815  11.438 -0.1115  0.0304 -0.0912
 9720W        W84708  25.366  27.469  13.162  0.3304 -0.2159  0.0243
 9721W        W84709  25.880   3.856   2.453  0.0747  0.0987 -0.1992
 9722W        W84710  23.437   0.863  24.424 -0.0383  0.0875 -0.1062
 9723W        W84711   4.225  28.146   7.246  0.0876 -0.0761  0.2742
 9724W        W84712  33.545  23.453   0.830  0.1208 -0.0384 -0.0591
 9725W        W84713   3.647   3.943   2.300  0.0283  0.1870  0.3829
 9726W        W84714  32.093  30.832   2.427  0.0660  0.1581  0.0080
 9727W        W84715  13.806  33.324  13.126  0.1634 -0.1263 -0.0012
 9728W        W84716  21.808   2.318  19.700 -0.0470 -0.1276  0.1317
 9729W        W84717  17.615   3.333   9.155  0.1321 -0.1972  0.0853
 9730W        W84718  29.198  16.243   5.660  0.3007  0.0510 -0.3347
 9731W        W84719  30.726   9.952   7.607 -0.2056  0.3093  0.3130
 9732W        W84720  12.138  22.252  15.560 -0.2604 -0.0865 -0.1086
 9733W        W84721  30.506   6.587   0.003 -0.2217  0.1654  0.1148
 9734W        W84722   5.920   6.736  10.095  0.0065 -0.0534  0.0235
 9735W        W84723  13.789  26.492   1.640  0.0607  0.1357 -0.0284
 9736W        W84724   4.268   2.412  19.369 -0.3389  0.2197  0.0118
 9737W        W84725   4.221   5.119  18.713  0.0942 -0.1062  0.0583
 9738W        W84726  30.724  29.166   0.266  0.1544  0.0244  0.0052
 9739W        W84727  15.036   5.554  11.123  0.0186  0.0576 -0.1376
 9740W        W84728  27.527  16.959  12.970 -0.1553  0.1944 -0.3504
 9741W        W84729   5.767  25.028   2.732 -0.2357  0.0273  0.2076
 9742W        W84730  27.107  17.692  22.845 -0.0982  0.2387  0.1108
 9743W        W84731  16.410  32.730   3.283 -0.2266 -0.3703 -0.0670
 9744W        W84732  18.045  13.683   8.821 -0.0876  0.1419 -0.1858
 9745W        W84733  10.524  10.425  20.927  0.1692  0.1616 -0.0063
 9746W        W84734  29.358  13.843  17.296 -0.1412  0.0928 -0.4654
 9747W        W84735  32.201   0.075   2.963 -0.1216 -0.1282  0.0972
 9748W        W84736  21.219  33.187   1.518  0.2371  0.6844  0.0256
 9749W        W84737  19.392   7.570   8.617  0.3884 -0.0056 -0.0765
 9750W        W84738   0.286  33.935   8.411  0.1669 -0.0990  0.3318
 9751W        W84739   0.538  26.843  18.253 -0.1711  0.1703 -0.2835
 9752W        W84740  13.426   0.988  10.517  0.0919  0.1741 -0.1536
 9753W        W84741  20.695  25.579   2.038 -0.3587  0.0310 -0.3243
 9754W        W84742  25.905   7.333  13.883  0.2469  0.4874  0.1623
 9755W        W84743  33.777  28.818  17.403  0.1248 -0.3362  0.0027
 9756W        W84744  19.620  10.759   0.450  0.0011  0.1872  0.0049
 9757W        W84745  10.219   1.721  10.766 -0.0041  0.0644 -0.2561
 9758W        W84746  25.519  15.694  18.667 -0.0018  0.1074 -0.3050
 9759W        W84747  27.216  17.724  13.665  0.0505  0.0815  0.0431
 9760W        W84748   7.439  11.913   0.510  0.2237 -0.1497  0.0075
 9761W        W84749   7.267  12.605  21.623 -0.1135 -0.0556  0.0181
 9762W        W84750   8.633  33.681  21.301 -0.0986  0.0469  0.1660
 9763W        W84751  34.401  35.284  24.718 -0.1035  0.0470 -0.2029
 9764W        W84752  18.349  35.292  24.649  0.1226 -0.0508 -0.0365
 9765W        W84753  17.313   5.281   2.763  0.0134 -0.1025  0.0586
 9766W        W84754  17.442   5.587  10.557  0.0717  0.1532  0.0691
 9767W        W84755   4.289  32.086   8.690  0.0877 -0.2250  0.1363
 9768W        W84756  26.371  29.738  20.030 -0.1629 -0.0073  0.2006
 9769W        W84757  15.658  11.633  20.146 -0.0574  0.0293 -0.1464
 9770W        W84758  28.332  22.667  13.336  0.1789 -0.1261 -0.3369
 9771W        W84759   0.269   1.502  18.676  0.1247  0.1037  0.1365
 9772W        W84760  26.906   9.268  23.917 -0.0416  0.2548  0.1237
 9773W        W84761  18.802  26.268   5.701 -0.2643 -0.1300  0.1117
 9774W        W84762  18.600  27.865   5.895 -0.2355  0.0180 -0.3667
 9775W        W84763  24.881   8.771  19.595  0.0870  0.0992 -0.1796
 9776W        W84764  25.133   1.995  19.562  0.0077  0.0020 -0.2728
 9777W        W84765  19.218  15.539   8.750 -0.0213  0.3294  0.1839
 9778W        W84766  24.202  23.645  25.531 -0.0760  0.1097 -0.0705
 9779W        W84767  18.272  25.342   6.279  0.0434  0.0462 -0.1277
 9780W        W84768  19.008  19.582   2.117 -0.1824  0.0061  0.2553
 9781W        W84769  17.951  25.600   9.909  0.4661  0.3641 -0.2696
 9782W        W84770  27.107   4.138  18.637 -0.0930 -0.1022  0.0095
 9783W        W84771  10.581   0.176   9.970  0.1709 -0.3950  0.2112
 9784W        W84772   7.082  22.329  24.539 -0.1434  0.0541 -0.0234
 9785W        W84773  30.523  12.021   6.441 -0.0245 -0.1750 -0.0672
 9786W        W84774  28.717   9.004  15.614  0.1236  0.3437  0.1264
 9787W        W84775  34.354  24.432  25.052  0.1139 -0.1543  0.5069
 9788W        W84776  10.603   4.620   4.408  0.0483 -0.3825 -0.0884
 9789W        W84777   3.597   8.608  24.203 -0.0629 -0.1365  0.2074
 9790W        W84778   9.956  20.998  10.609 -0.0566 -0.1468 -0.0624
 9791W        W84779   1.304  30.934  19.193 -0.3735  0.1990 -0.2500
 9792W        W84780  13.986  25.417  25.268  0.0175  0.1837 -0.2635
 9793W        W84781  22.750   0.651   1.198 -0.0311 -0.2978  0.3678
 9794W        W84782  34.839  22.200  13.412  0.3674 -0.0551 -0.0464
 9795W        W84783  16.914  27.509   3.296  0.2256 -0.0624  0.1988
 9796W        W84784  27.590  17.756   9.121  0.1187  0.2364  0.1351
 9797W        W84785  34.266  33.045  22.064 -0.3485 -0.2112  0.1055
 9798W        W84786  24.492   4.623  13.708  0.1706 -0.4679  0.0374
 9799W        W84787   6.869  28.868  20.298  0.0570 -0.0093  0.0996
 9800W        W84788  28.230  34.311  12.301  0.4046 -0.0164 -0.0738
 9801W        W84789  17.821   9.658  22.922 -0.1125  0.0466  0.1005
 9802W        W84790  14.677  33.566  24.405  0.1474  0.0567 -0.3361
 9803W        W84791  26.220   3.673   3.762 -0.3719  0.0622  0.0705
 9804W        W84792  17.934  17.081  23.947 -0.1087  0.1824  0.0246
 9805W        W84793  10.401   9.996   2.890  0.0051 -0.3160 -0.0417
 9806W        W84794  27.473  24.212  12.980 -0.0518 -0.2107 -0.2873
 9807W        W84795   1.059  23.167  20.301 -0.0639  0.1393 -0.2841
 9808W        W84796  23.557  10.059  22.850 -0.2665 -0.3131 -0.0959
 9809W        W84797  11.933   8.128  11.446  0.1353  0.1026  0.0840
 9810W        W84798  17.509  22.808   1.463  0.0033  0.0477  0.1223
 9811W        W84799  23.678  15.075   0.845 -0.3014 -0.0311  0.2098
 9812W        W84800  24.421  18.177  13.102  0.2623  0.1051 -0.0718
 9813W        W84801  31.462  32.906  19.783 -0.1954 -0.0118 -0.0945
 9814W        W84802   0.485  17.953  15.386  0.2229  0.2252 -0.0307
 9815W        W84803  27.352  24.189  11.090  0.0523 -0.0417 -0.1835
 9816W        W84804  24.450  24.569  17.860  0.3126 -0.2708  0.0563
 9817W        W84805  20.970  31.378  24.874 -0.1952 -0.0300  0.1287
 9818W        W84806   7.341  31.236   2.540  0.1947 -0.2102 -0.1994
 9819W        W84807  15.713  17.230  23.789  0.1496 -0.0300  0.0865
 9820W        W84808  34.596  11.088  14.025  0.1402  0.0880 -0.0796
 9821W        W84809  28.375  34.341   4.289  0.0679 -0.0257 -0.0818
 9822W        W84810  15.877  15.861   6.171 -0.0682 -0.0864 -0.2555
 9823W        W84811   7.542  20.444   0.309  0.3906  0.2399  0.0105
 9824W        W84812  16.475   8.147  23.184  0.1127 -0.2699 -0.2005
 9825W        W84813  18.098  15.489   3.169 -0.0012  0.2048  0.1397
 9826W        W84814   9.452  14.591  24.809 -0.0596  0.3231 -0.2127
 9827W        W84815  31.867  34.843  21.956  0.0135 -0.1343  0.1380
 9828W        W84816   9.762   2.326   6.179  0.1991  0.2514  0.0868
 9829W        W84817   2.968  19.825   1.325  0.2660  0.1006 -0.1371
 9830W        W84818  27.476  13.771   9.721  0.0399  0.3530 -0.0249
 9831W        W84819  34.214   2.050  20.922 -0.2101 -0.0190 -0.1538
 9832W        W84820  11.587  12.054  24.491  0.0831  0.1921 -0.1753
 9833W        W84821   8.330  11.001  12.690 -0.1171 -0.0025 -0.2197
 9834W        W84822  20.537  33.888  25.104  0.0140  0.2154  0.2415
 9835W        W84823  17.672  28.870  10.514  0.2292 -0.1673  0.2550
 9836W        W84824  27.453  11.323  20.914 -0.0029  0.2240  0.1249
 9837W        W84825  33.126   6.506  24.093 -0.0409 -0.2184 -0.0265
 9838W        W84826  13.131   3.085  25.540 -0.0108  0.0945 -0.3016
 9839W        W84827   9.373   0.416  14.933  0.1612 -0.1329  0.0858
 9840W        W84828   2.084   2.118  15.915 -0.2941  0.1622  0.1345
 9841W        W84829  18.112   3.729   4.001  0.0948 -0.0383 -0.3027
 9842W        W84830  22.824  11.338  25.354 -0.1983  0.1203  0.1730
 9843W        W84831   4.299  21.686  18.997 -0.1819  0.2114  0.0698
 9844W        W84832  34.418  21.874   9.570 -0.1608  0.1344  0.1282
 9845W        W84833  28.370  24.159  25.577  0.1720  0.1537 -0.1161
 9846W        W84834  35.361  27.688   1.782 -0.2651 -0.0658 -0.1786
 9847W        W84835  19.651  23.702   5.021 -0.1318  0.0033 -0.1332
 9848W        W84836  22.473  27.238   2.181  0.2483 -0.1911  0.1119
 9849W        W84837  28.467   3.330  18.416  0.1563 -0.0127 -0.2674
 9850W        W84838  14.914  16.139  19.741  0.0663  0.2818 -0.1531
 9851W        W84839   2.065  15.906  16.045  0.3324  0.1491 -0.1091
 9852W        W84840  27.757   3.436  25.183  0.2009 -0.2378  0.1056
 9853W        W84841  22.933  35.063  14.322 -0.2023 -0.0161  0.1479
 9854W        W84842  16.875   0.747   1.837  0.2036  0.1270 -0.3267
 9855W        W84843   8.146   9.723   2.966 -0.1089 -0.0481 -0.2509
 9856W        W84844   6.069   9.039  11.444  0.3630 -0.0591 -0.0264
 9857W        W84845  15.938  23.656   1.842 -0.1668 -0.1251 -0.3012
 9858W        W84846  29.739  28.548  23.359  0.2640  0.0603  0.2520
 9859W        W84847   8.906  34.854   2.804 -0.1020 -0.2131 -0.0462
 9860W        W84848  25.326  15.899  10.387 -0.2024 -0.0957 -0.0376
 9861W        W84849   1.273  34.338   0.206 -0.0067 -0.0110  0.0151
 9862W        W84850  10.996  11.692   1.714  0.0491 -0.0356  0.1362
 9863W        W84851   0.244   3.628   1.730 -0.1467 -0.2382 -0.1321
 9864W        W84852   8.706  26.760  25.105 -0.0020  0.2210  0.0689
 9865W        W84853  26.758  15.399  18.148 -0.0487 -0.0299  0.3137
 9866W        W84854  30.704  23.375  11.526  0.1835 -0.1724  0.2703
 9867W        W84855   6.757  23.889   6.072  0.3405 -0.2270  0.2394
 9868W        W84856  25.019   7.713  16.527 -0.3942  0.2077  0.2733
 9869W        W84857  31.424  17.830  24.169  0.0843  0.2764  0.1505
 9870W        W84858  25.599  18.765  21.893 -0.0338  0.0620 -0.0566
 9871W        W84859   2.061  17.425  22.310 -0.3014  0.3015  0.0242
 9872W        W84860  16.364   1.824   2.618 -0.1356  0.0934  0.2661
 9873W        W84861  28.764  30.831  12.303 -0.1650  0.2113 -0.0005
 9874W        W84862   7.951  30.977   6.386 -0.1642 -0.1605 -0.2468
 9875W        W84863   2.487  13.700  19.724 -0.2218 -0.2411 -0.1293
 9876W        W84864  30.204   5.468  18.494  0.1125  0.0843  0.0389
 9877W        W84865  20.828  12.398  19.008 -0.2240  0.1000  0.0311
 9878W        W84866  30.840   5.515   3.894 -0.0117  0.3207 -0.0170
 9879W        W84867  15.445  27.983  13.757  0.1791 -0.0640  0.0121
 9880W        W84868  12.819  34.828  24.318 -0.0349  0.2508 -0.1075
 9881W        W84869  14.238  12.827   5.992 -0.0412 -0.1034 -0.2736
 9882W        W84870  33.209   8.128  20.522 -0.1145  0.0928 -0.2202
 9883W        W84871  35.118   1.603   3.151 -0.0708 -0.2622 -0.1913
 9884W        W84872  12.988  35.289   3.942 -0.0615  0.0456  0.0392
 9885W        W84873   1.839  14.894  16.019  0.0130 -0.0620  0.0944
 9886W        W84874  23.304   1.272  16.675 -0.0930 -0.1726  0.0052
 9887W        W84875   2.673  12.037  26.232  0.0613 -0.2131  0.1866
 9888W        W84876  26.750  20.232  22.958  0.4638  0.0242  0.3738
 9889W        W84877  33.318  25.548  11.255  0.0659 -0.1950 -0.1239
 9890W        W84878   1.966  27.110   3.218 -0.2750  0.1876 -0.2362
 9891W        W84879  25.618  10.545  11.892 -0.0867  0.2489 -0.2998
 9892W        W84880  24.562  11.502  22.100  0.0028  0.0634 -0.2184
 9893W        W84881  28.554  29.790   2.711 -0.1496 -0.1554 -0.0270
 9894W        W84882  25.067  21.737  14.737  0.1903  0.0229 -0.1599
 9895W        W84883   1.442  23.705  16.515 -0.1448 -0.1369 -0.0697
 9896W        W84884  13.960   7.354  14.295  0.3567 -0.2367  0.0131
 9897W        W84885  23.806  28.919  15.722  0.1858  0.2065  0.3115
 9898W        W84886  10.285  17.886   0.559  0.0102  0.0257 -0.1284
 9899W        W84887  11.800  32.501   2.446  0.1155  0.1355 -0.0627
 9900W        W84888  16.439  26.354   9.049 -0.0837 -0.0067  0.2829
 9901W        W84889  21.353   7.127  22.181 -0.0189  0.0043 -0.0023
 9902W        W84890   5.804   4.786  10.372 -0.1958  0.1898  0.4533
 9903W        W84891  30.945  14.100  22.626  0.0914  0.1637  0.1637
 9904W        W84892  17.081  10.618   0.464 -0.2765 -0.0803 -0.0097
 9905W        W84893  19.992  24.277  22.008  0.1249  0.1153  0.3004
 9906W        W84894  19.456   5.490  18.572  0.2392  0.2560 -0.2009
 9907W        W84895  12.709  34.431   2.033  0.2997 -0.0946 -0.0915
 9908W        W84896   4.141  14.961   4.843 -0.1029 -0.1362  0.0722
 9909W        W84897   7.788  26.008  11.349 -0.2753  0.2981 -0.1081
 9910W        W84898  24.094  23.366  11.505 -0.0759  0.0530 -0.0473
 9911W        W84899  17.700  17.541   6.008  0.1780 -0.0147 -0.0675
 9912W        W84900  14.443   9.831  12.538  0.1311 -0.2145 -0.1107
 9913W        W84901  18.310  12.049   0.694 -0.1412 -0.0651  0.2441
 9914W        W84902   2.380  20.432  14.581  0.0084 -0.0852  0.1101
 9915W        W84903  21.615   4.545  24.006  0.1768  0.0463 -0.2320
 9916W        W84904  23.649   8.827   4.056  0.2631  0.3289  0.3200
 9917W        W84905  35.358  18.309  10.020  0.2652 -0.1522  0.0970
 9918W        W84906  31.621  20.609  15.074  0.3124 -0.4132  0.1146
 9919W        W84907   3.908  29.438  19.995 -0.0154 -0.2417 -0.0547
 9920W        W84908  10.541  23.602  17.173 -0.4134  0.0231  0.0954
 9921W        W84909  35.118  33.057  15.446 -0.2104  0.0182 -0.0669
 9922W        W84910   6.010  22.344   4.514  0.1975 -0.0880 -0.0351
 9923W        W84911  10.293   5.009  12.798  0.1385  0.0741  0.0886
 9924W        W84912  22.079  21.768   4.557  0.1127 -0.3237 -0.0837
 9925W        W84913  28.859  19.846  12.418 -0.1634  0.1165 -0.0089
 9926W        W84914   9.043  28.426   4.288 -0.1990  0.1371 -0.1125
 9927W        W84915  24.660  16.337  17.071 -0.1493 -0.0698  0.0322
 9928W        W84916  27.165  18.747  22.775 -0.1399 -0.0716 -0.0512
 9929W        W84917   6.530  32.593   8.672 -0.0337  0.0250 -0.1644
 9930W        W84918   4.321  10.930  19.750  0.2413  0.0966 -0.2179
 9931W        W84919  22.098  22.754  19.164 -0.2428  0.1003 -0.0090
 9932W        W84920   0.166  25.854  19.907  0.1817 -0.0632  0.1896
 9933W        W84921   9.411  16.025   0.015  0.1138 -0.2497 -0.1279
 9934W        W84922   9.099   6.829   0.674 -0.2084 -0.0679 -0.0937
 9935W        W84923  28.463  10.921  12.870  0.0522 -0.0383  0.2495
 9936W        W84924  28.477   2.755  13.922 -0.0350 -0.2084  0.1981
 9937W        W84925  31.730  31.455  21.707 -0.1746  0.1149  0.2108
 9938W        W84926  26.614   3.136  13.640 -0.0064  0.1353  0.0754
 9939W        W84927  33.076   9.200   9.484 -0.1259 -0.1949  0.2618
 9940W        W84928  14.962   9.923  23.644  0.1391 -0.0242  0.1537
 9941W        W84929  20.130  30.265   8.004 -0.2634 -0.0619 -0.1087
 9942W        W84930   1.275  17.564  19.139  0.1487 -0.0782 -0.0411
 9943W        W84931  14.034   0.836   5.865 -0.2829 -0.0522 -0.4201
 9944W        W84932  14.020  25.222   3.886 -0.1618  0.0411 -0.1870
 9945W        W84933  21.107  27.980   3.472 -0.2982  0.1634 -0.1018
 9946W        W84934  26.299  11.501   1.332  0.2175 -0.2077  0.1049
 9947W        W84935   7.893  33.067  12.677 -0.1184 -0.1785  0.0189
 9948W        W84936  35.086   7.711   1.112 -0.0618 -0.1378 -0.0362
 9949W        W84937  21.238  29.783  17.468 -0.1805  0.1875  0.0695
 9950W        W84938  31.381  25.760  15.612 -0.1197 -0.1809  0.0322
 9951W        W84939  19.677   4.287   2.017  0.2002 -0.3677 -0.1091
 9952W        W84940   0.689  33.112  25.329  0.0178 -0.0986  0.1776
 9953W        W84941  20.564  30.629   3.937  0.0938  0.1406 -0.1598
 9954W        W84942  23.383  22.043   2.077 -0.2242 -0.1852 -0.1596
 9955W        W84943  32.897  16.642  10.731 -0.0973 -0.1934  0.0537
 9956W        W84944  13.464  26.092   2.808  0.2386  0.1634 -0.4727
 9957W        W84945   3.587  13.823  16.976 -0.1456  0.1185  0.1396
 9958W        W84946  19.663  31.787   6.644 -0.0509  0.0204 -0.1202
 9959W        W84947  22.270  30.708  15.348 -0.2491  0.3048 -0.2888
 9960W        W84948  22.098  17.585  15.641 -0.0965 -0.1936 -0.0188
 9961W        W84949  31.916  10.071  13.293  0.3111  0.1596 -0.1124
 9962W        W84950  27.507   2.175   4.976  0.0595  0.1973 -0.0415
 9963W        W84951   7.455   1.991  23.329  0.0587 -0.2728 -0.0680
 9964W        W84952   5.991  30.638  10.389 -0.0171 -0.1464 -0.0817
 9965W        W84953  13.180  22.891   9.006  0.2593 -0.2655  0.1115
 9966W        W84954   4.034  17.005   4.246  0.0745  0.0556  0.3992
 9967W        W84955   2.204  12.084  20.173  0.0710 -0.1040  0.0893
 9968W        W84956  32.036  25.391  22.822  0.0806 -0.3252  0.0400
 9969W        W84957   5.399  17.059   4.029  0.1621 -0.0166 -0.0213
 9970W        W84958  18.507  11.438   6.708 -0.1000  0.3541 -0.1157
 9971W        W84959  16.947  32.277   8.819 -0.2136 -0.2212  0.1441
 9972W        W84960   4.508   3.047   6.982 -0.4843  0.5370 -0.2349
 9973W        W84961  32.700   0.603  21.667  0.1657  0.2249  0.2524
 9974W        W84962   0.694  30.108  24.382  0.1660  0.0670  0.1818
 9975W        W84963  22.497  35.190   0.056  0.0894  0.1141 -0.0007
 9976W        W84964  26.118  26.997  25.798  0.0510 -0.1192 -0.0227
 9977W        W84965  27.796  22.325  21.331  0.1364 -0.1203 -0.0223
 9978W        W84966  15.394  17.066  13.517 -0.1270  0.1874 -0.0025
 9979W        W84967  22.080   8.312   5.094 -0.1937  0.0542  0.0990
 9980W        W84968   0.206  23.719  14.679 -0.1959 -0.1269 -0.0860
 9981W        W84969  19.116  28.425   7.748 -0.0737 -0.0784  0.2620
 9982W        W84970  20.525  33.123  23.658  0.1257  0.1917  0.0631
 9983W        W84971  23.074  16.024  13.143 -0.2991  0.1048  0.1569
 9984W        W84972  14.387  18.174  22.949 -0.3608  0.1843  0.0064
 9985W        W84973  25.765  22.871  19.910  0.0324 -0.0787  0.0820
 9986W        W84974  12.875   9.772  13.347 -0.0829  0.0491 -0.0081
 9987W        W84975   6.162  32.762  26.247  0.0004  0.3301 -0.4234
 9988W        W84976   8.235  21.378   6.459 -0.0164  0.2601  0.0195
 9989W        W84977  26.004  27.885  12.069 -0.0428 -0.1768  0.1878
 9990W        W84978   5.676  21.681   5.803 -0.1168  0.1273  0.0388
 9991W        W84979   2.847  21.438   0.111  0.0255  0.0434 -0.2437
 9992W        W84980  16.815  29.441   4.780  0.1020  0.0290  0.2618
 9993W        W84981  10.767  27.582   3.705  0.2544  0.1072  0.2893
 9994W        W84982   7.600  12.077  26.029  0.2317  0.1317 -0.0823
 9995W        W84983   7.591  17.406   8.374 -0.0470 -0.5324 -0.2302
 9996W        W84984  10.989   6.171  22.723  0.1009 -0.0228 -0.3127
 9997W        W84985  35.315  16.282  20.096 -0.2434 -0.0523 -0.0571
 9998W        W84986  25.267  14.816  21.259 -0.0814 -0.2187  0.2236
 9999W        W84987  31.601   9.813  22.139 -0.0549  0.1212 -0.1352
10000W        W84988   3.942  33.484  11.320 -0.1930  0.0998 -0.0492
10001W        W84989   6.797  24.533  13.843  0.0767  0.2064  0.3026
10002W        W84990   0.014  27.506  16.525 -0.2965 -0.2929 -0.1641
10003W        W84991  20.357  15.400   5.388 -0.0268 -0.1108  0.0425
10004W        W84992  17.572  19.223   9.294 -0.0104  0.1190  0.0872
10005W        W84993  14.710  24.527  14.712  0.0010 -0.2099  0.4736
10006W        W84994   1.374   5.656  17.694  0.0102 -0.0416  0.3233
10007W        W84995  23.595   9.380   3.840 -0.0716  0.0485 -0.2325
10008W        W84996  27.613   3.888  12.895  0.1374  0.1038  0.1827
10009W        W84997   6.167  19.089  19.382 -0.0208  0.3821 -0.0206
10010W        W84998  28.425  12.832   8.472  0.1691  0.1155  0.1085
10011W        W84999  10.946  20.976  22.559 -0.1023 -0.0999  0.0117
10012W        W85000  13.289  26.285   0.370  0.1189  0.0514 -0.0774
10013W        W85001  32.478  17.123  12.025  0.1462  0.1648  0.0079
10014W        W85002   1.118  11.054  24.895  0.0582 -0.1227 -0.1287
10015W        W85003   4.930  22.478  25.670  0.2674 -0.0678  0.0377
10016W        W85004  10.204   9.176  12.558 -0.1825 -0.1571  0.3823
10017W        W85005  20.879   6.321   8.903  0.3592  0.3529 -0.1700
10018W        W85006  25.111  34.212  13.713 -0.0500 -0.1891  0.1927
10019W        W85007   9.430  11.830  11.486 -0.0824  0.0609  0.0868
10020W        W85008  33.909  20.154  10.221  0.0679 -0.1253  0.1272
10021W        W85009  19.022  21.689  23.193  0.1039 -0.0672 -0.0893
10022W        W85010  34.136   4.237  13.139  0.1225  0.1440  0.2761
10023W        W85011  17.761  16.993  21.040  0.0172 -0.2008  0.0215
10024W        W85012  17.179   4.963   9.990  0.0494  0.0481 -0.0015
10025W        W85013  24.771   9.871   0.723 -0.2937  0.1482  0.0048
10026W        W85014  14.977  13.292  25.036 -0.0986 -0.1347 -0.1106
10027W        W85015  23.462  16.822  19.990 -0.0706 -0.1941  0.1478
10028W        W85016  29.406  32.676  19.549 -0.2995 -0.2149  0.2056
10029W        W85017  18.602  30.309  22.630  0.2339 -0.0628  0.0136
10030W        W85018   8.963  16.170   5.900  0.2191  0.0695  0.0967
10031W        W85019   3.475   0.389  21.957 -0.2616  0.1436  0.1324
10032W        W85020  24.009  15.043  25.208 -0.3052 -0.0979 -0.0480
10033W        W85021   5.852  20.684   1.880  0.1993 -0.0957 -0.0954
10034W        W85022  30.463  27.202   2.880 -0.1755 -0.0011 -0.1156
10035W        W85023  25.315  17.751  24.117  0.0793 -0.0339  0.1091
10036W        W85024  25.899   6.535  22.804 -0.0017 -0.0758  0.0349
10037W        W85025   9.877  23.880   7.016  0.1607  0.0252 -0.1994
10038W        W85026   1.572   8.073   3.076 -0.1861 -0.3216 -0.2141
10039W        W85027   8.088  16.270  25.958  0.2356  0.1260  0.1919
10040W        W85028  33.863  17.555  12.278  0.0832  0.0194 -0.1313
10041W        W85029  10.396  13.292   9.733  0.1322  0.0466 -0.0291
10042W        W85030   0.310   9.869  24.991  0.0300 -0.1341  0.2384
10043W        W85031  14.800  23.413  14.438  0.2109 -0.3379 -0.2410
10044W        W85032  24.620   0.474   2.834  0.3170  0.2013 -0.0086
10045W        W85033  26.969   3.472  11.278  0.0768  0.3973 -0.0264
10046W        W85034   8.455  21.240  24.989 -0.0649 -0.0257 -0.0317
10047W        W85035   8.159  17.563  24.501  0.0030  0.0104 -0.0019
10048W        W85036  17.650   9.887  13.023  0.0097 -0.0411  0.1479
10049W        W85037  13.968  18.452  20.449  0.2449  0.0747  0.0715
10050W        W85038   5.088   7.565   2.880  0.3006 -0.3275  0.1932
10051W        W85039   7.301   4.038   9.560  0.0110 -0.3244 -0.4659
10052W        W85040  21.402  34.474  24.122 -0.1464 -0.3350 -0.1359
10053W        W85041  23.306  29.731   3.855  0.0558 -0.1512 -0.0980
10054W        W85042  33.193   1.355  24.624 -0.0775  0.2554 -0.1055
10055W        W85043  22.404  28.687  19.551 -0.1798  0.0401 -0.0079
10056W        W85044  17.525  24.220  10.927  0.0567 -0.0732 -0.2007
10057W        W85045  13.550  26.539   4.791  0.1443  0.3098 -0.0063
10058W        W85046  25.617  13.653  14.781 -0.1686 -0.0798  0.2251
10059W        W85047  23.850   3.888  17.445 -0.1470 -0.2573  0.0496
10060W        W85048  24.257   0.419   6.681  0.2419  0.3999 -0.2401
10061W        W85049  33.777  22.784   8.765  0.1693 -0.1037  0.1257
10062W        W85050   9.113  34.365   3.481 -0.1909  0.0778  0.0134
10063W        W85051   1.156  25.463   5.519 -0.0851  0.0998 -0.0059
10064W        W85052  23.202  28.345  20.512 -0.1285  0.0730 -0.3223
10065W        W85053   2.515  20.833  18.021 -0.0336 -0.0857  0.1098
10066W        W85054   0.152  13.441   1.269  0.2261 -0.1154  0.1711
10067W        W85055  25.438  17.432  26.214 -0.1433  0.0959  0.3025
10068W        W85056  20.698   0.245  15.088  0.2130  0.1488 -0.3415
10069W        W85057  25.772  28.275   2.062 -0.1620  0.2459  0.1242
10070W        W85058  33.891  14.744   8.962  0.0606  0.0607 -0.1078
10071W        W85059  18.403  11.926   5.851 -0.3326  0.2337 -0.2463
10072W        W85060  28.045  30.431  19.676 -0.1492  0.5317 -0.1631
10073W        W85061   6.963  22.281  25.060  0.0613 -0.0774  0.0563
10074W        W85062  30.801  28.337  23.807 -0.2000  0.0602 -0.2247
10075W        W85063  17.057   7.071   8.106 -0.0593  0.0491  0.2626
10076W        W85064  35.087  29.309  21.337  0.2186  0.0700  0.2002
10077W        W85065  29.282  24.083   6.168  0.2237 -0.1390  0.0061
10078W        W85066   3.119  28.978  22.065 -0.0908 -0.1265  0.0141
10079W        W85067  19.435   5.284   7.827 -0.0300 -0.1725  0.1754
10080W        W85068   3.856   2.989   9.353  0.3532 -0.3135 -0.2118
10081W        W85069  26.077  29.688  20.851 -0.1611 -0.2863  0.0552
10082W        W85070  16.690  23.884   3.516  0.0637 -0.1620 -0.0429
10083W        W85071  29.590  30.018  26.223  0.1276 -0.3995  0.3112
10084W        W85072   5.745  12.590  23.827  0.3304  0.1076 -0.2341
10085W        W85073   1.515  17.365  13.270  0.3285  0.1497  0.1226
10086W        W85074   9.107  16.431  23.736 -0.0932 -0.2079 -0.1245
10087W        W85075   1.346   0.324   1.298 -0.0179 -0.0265 -0.0302
10088W        W85076  14.486   6.168   1.359  0.0120 -0.0016 -0.0447
10089W        W85077  22.340  25.147  23.841 -0.1203  0.0434  0.2490
10090W        W85078  11.705  21.064   0.466 -0.2227  0.3000  0.1069
10091W        W85079  32.963  31.223  16.822 -0.1239  0.1389 -0.2633
10092W        W85080  22.855  25.010   4.025 -0.1685  0.2497 -0.2007
10093W        W85081  29.079   6.955  21.986 -0.0044  0.2739 -0.0546
10094W        W85082  20.147  28.884   3.052 -0.1954 -0.1507 -0.2537
10095W        W85083  17.124  22.908  12.120  0.1511 -0.0063 -0.5518
10096W        W85084  27.892   3.811  17.912 -0.1756 -0.1004 -0.0282
10097W        W85085   1.646   3.616  18.794  0.1563  0.1463  0.0157
10098W        W85086   2.654  14.041   2.169 -0.0296 -0.0883 -0.1533
10099W        W85087  26.986  27.445  21.723  0.0613 -0.1060 -0.0416
10100W        W85088   2.242  31.553   7.695 -0.0516  0.1713  0.1285
10101W        W85089  19.034   8.681  20.266 -0.3277  0.5049  0.1134
10102W        W85090   1.067   1.192  21.741  0.1901 -0.0130  0.2502
10103W        W85091  18.183   1.103   0.677  0.1334 -0.0886 -0.2180
10104W        W85092  13.191  15.026   3.820  0.1629 -0.0720  0.0361
10105W        W85093   9.620  14.401  20.786 -0.2480 -0.1658  0.1008
10106W        W85094   7.797  15.466   5.656  0.0945  0.0308  0.2792
10107W        W85095  25.988  20.827  19.429 -0.0654  0.1048 -0.0080
10108W        W85096  17.814  26.019   6.934  0.1269 -0.4169 -0.0542
10109W        W85097  12.339  10.429   9.447  0.0911  0.2366  0.2139
10110W        W85098   2.987  23.639  21.747  0.0194  0.1197  0.0221
10111W        W85099  22.737  28.258  24.059  0.2102 -0.1658  0.1528
10112W        W85100   6.864  20.897   7.787  0.0645  0.0491  0.0685
10113W        W85101  23.928  24.835   0.606 -0.0901 -0.1092 -0.4550
10114W        W85102   7.661   8.149  12.289 -0.1237 -0.2107 -0.1661
10115W        W85103  17.956   4.852  17.710  0.2289 -0.0587  0.0558
10116W        W85104   6.554   9.014   2.559  0.1858 -0.0268  0.0560
10117W        W85105  28.891  27.092  20.969  0.0109  0.2520 -0.0698
10118W        W85106   2.509   3.478  20.900 -0.1201  0.0157  0.2847
10119W        W85107  19.402  12.409  22.679 -0.3069  0.0213 -0.0886
10120W        W85108  18.179  32.158  24.009 -0.1873  0.1198  0.0405
10121W        W85109  15.410  15.128  19.211 -0.3611 -0.3300  0.0016
10122W        W85110  23.185   6.513  25.139  0.1012 -0.1557  0.0616
10123W        W85111  21.725  24.596  19.226 -0.1027  0.0913  0.0169
10124W        W85112  13.963   1.331  26.036 -0.2412 -0.1278  0.1060
10125W        W85113   0.121  16.203  23.495 -0.2229 -0.0133  0.2807
10126W        W85114  27.775  18.299  18.710 -0.3348 -0.0867  0.2663
10127W        W85115  12.732  34.080   8.150 -0.0063 -0.1080  0.0226
10128W        W85116  15.038  21.330   7.870  0.0598 -0.1469 -0.2577
10129W        W85117   6.450  25.249  23.800 -0.0068  0.1098 -0.0736
10130W        W85118  16.734   3.028  21.768  0.2293  0.0868  0.2856
10131W        W85119   9.611   8.293   9.791 -0.3738  0.1649 -0.2710
10132W        W85120  24.988  15.435   9.057 -0.2343  0.0334  0.0743
10133W        W85121   5.346   0.481   0.194  0.1171 -0.0209 -0.1141
10134W        W85122  26.164   2.115  17.743  0.0017  0.0175 -0.1141
10135W        W85123  15.455  22.158   6.753  0.0907 -0.1356 -0.1540
10136W        W85124  32.069  17.414  23.655  0.2323  0.0348 -0.3935
10137W        W85125   6.799  25.306   4.945  0.0778  0.0754 -0.1968
10138W        W85126  14.415  11.320  24.021  0.0595 -0.0002  0.1906
10139W        W85127  32.211  18.535  24.089  0.1787  0.1034  0.1050
10140W        W85128   0.151  13.792  12.139 -0.2982 -0.1305  0.2343
10141W        W85129  25.015  10.619  25.850 -0.0701 -0.0578  0.0329
10142W        W85130   1.191  17.121  15.441  0.0781  0.1458  0.0711
10143W        W85131   0.930  32.397  24.917  0.3912 -0.0464 -0.1593
10144W        W85132  29.381  10.894  10.144  0.0500 -0.1525 -0.1544
10145W        W85133  15.412  21.040  12.279 -0.1163  0.0148  0.2775
10146W        W85134   1.939  15.997   1.422 -0.4715 -0.0978  0.2461
10147W        W85135  22.359   2.899   1.836 -0.1130  0.3018  0.0640
10148W        W85136  19.994  17.341  23.192  0.0381 -0.1688  0.1145
10149W        W85137   1.781  19.703  12.916 -0.0147  0.1404 -0.2403
10150W        W85138  25.796  12.854  23.387 -0.1823  0.1962  0.1163
10151W        W85139  10.565  14.104  18.333 -0.0886  0.0988  0.0341
10152W        W85140   0.249  22.625  10.898  0.1740 -0.1929  0.4949
10153W        W85141  22.697  24.920  24.176  0.0533 -0.0704 -0.1380
10154W        W85142  11.851  11.578  21.091  0.1986  0.1173 -0.0624
10155W        W85143  24.677  17.276  21.208  0.0454 -0.0767  0.1034
10156W        W85144  22.219  31.587  19.357 -0.2405 -0.1305 -0.0170
10157W        W85145  19.038  10.261  23.688 -0.2922 -0.0141 -0.0187
10158W        W85146  29.899  15.790  19.726  0.0178 -0.2173  0.1262
10159W        W85147   5.834   2.450  20.061 -0.0803  0.2920 -0.2573
10160W        W85148  20.613  34.003  14.562  0.0570  0.0961 -0.0366
10161W        W85149  21.030   3.308  19.858  0.0425  0.0948 -0.0976
10162W        W85150  17.054  20.717  24.025  0.2612  0.5291 -0.1541
10163W        W85151  11.147  13.194  22.803  0.3758 -0.2054  0.1969
10164W        W85152  16.556   3.514   4.760  0.0142  0.1795  0.1368
10165W        W85153  24.031  20.952  26.168 -0.3318 -0.0104 -0.1315
10166W        W85154  28.156  25.511  10.103 -0.1873  0.2972 -0.2826
10167W        W85155   9.029  31.897  26.188 -0.0138  0.0587 -0.0996
10168W        W85156  32.685  19.661  17.879 -0.3204 -0.0531  0.1194
10169W        W85157  27.367  26.478  17.284  0.2500 -0.2162 -0.2215
10170W        W85158  16.139  31.828   0.453  0.2844  0.0438  0.1643
10171W        W85159   5.574   2.785  18.192 -0.1402  0.2010  0.1523
10172W        W85160  17.841   1.029   5.968  0.2023 -0.0851 -0.1581
10173W        W85161  15.441  12.949  12.886 -0.1511  0.0564  0.1417
10174W        W85162  13.992  25.166   2.059 -0.0152 -0.1348  0.2456
10175W        W85163  30.981  12.268  19.653  0.1214 -0.1256 -0.1303
10176W        W85164   8.543   0.981   1.192 -0.1059  0.0812  0.1015
10177W        W85165  27.630   0.018  19.165 -0.0379  0.3610 -0.2589
10178W        W85166   6.217  21.843   0.027  0.0117  0.2826  0.1947
10179W        W85167   7.074  11.786  20.983 -0.1583 -0.0611  0.3081
10180W        W85168  34.067  10.219  24.028  0.1834  0.3842  0.1021
10181W        W85169  34.682  24.475  22.219 -0.0888 -0.1400 -0.1359
10182W        W85170   2.996   8.822   5.865  0.1507 -0.1017 -0.1178
10183W        W85171   5.052   9.898  26.033 -0.2061 -0.0857 -0.2094
10184W        W85172   0.887   7.251   3.901  0.0242  0.1587  0.2556
10185W        W85173  16.276   8.003   3.422 -0.2094  0.1712 -0.0871
10186W        W85174  15.945  30.824  25.729  0.0837  0.0592 -0.3939
10187W        W85175   6.484  26.311  14.253 -0.3274 -0.0464 -0.2428
10188W        W85176  22.843  27.146   1.265  0.0606 -0.2935  0.0648
10189W        W85177  30.445  11.811  14.808  0.0501  0.1231  0.1716
10190W        W85178  12.197   5.425   1.642  0.1166  0.3290 -0.1022
10191W        W85179   0.326  13.141  12.091  0.1781  0.2223  0.1048
10192W        W85180  13.041  18.825   4.360  0.1552 -0.0351 -0.0010
10193W        W85181   1.870   7.084   5.029 -0.0789 -0.0522 -0.1073
10194W        W85182  26.714  19.859  16.593  0.1455  0.2995  0.0260
10195W        W85183  10.474   3.371   3.121  0.1512 -0.1907  0.0132
10196W        W85184  32.913  13.403  12.793  0.2031 -0.0655  0.1752
10197W        W85185  31.275   6.648  12.676 -0.1930  0.1557  0.3537
10198W        W85186   6.367   9.473  23.659 -0.1629 -0.0176 -0.1487
10199W        W85187   8.270   2.874   5.711 -0.5177  0.3514 -0.1959
10200W        W85188  17.067  12.871   6.562  0.1115  0.2077 -0.3343
10201W        W85189   7.955  34.628   9.564  0.0714 -0.0504  0.2800
10202W        W85190  19.657  14.388   4.696 -0.3677 -0.1315 -0.0588
10203W        W85191  29.065  17.147   4.425  0.1591 -0.0513  0.1415
10204W        W85192   5.772   8.770  23.299  0.1868  0.0714 -0.4284
10205W        W85193   8.817   9.904  19.402  0.3459  0.0448  0.0311
10206W        W85194   6.101  34.337  20.698 -0.2359 -0.0160 -0.2839
10207W        W85195  13.297  33.278  25.932  0.2080  0.2461 -0.2392
10208W        W85196   9.885   9.647   0.453 -0.1052 -0.0738  0.1440
10209W        W85197  28.524  21.358  11.321 -0.0398  0.2611  0.2469
10210W        W85198   4.546  28.664  25.335 -0.0025 -0.1588 -0.0952
10211W        W85199  32.494  32.431  20.462 -0.3240 -0.2764  0.0344
10212W        W85200  20.051   7.270   2.557  0.3797  0.2190 -0.0044
10213W        W85201  17.763  15.843   8.796  0.1016  0.2887  0.1140
10214W        W85202  18.114   3.718  10.334 -0.0993 -0.2660  0.0113
10215W        W85203  10.972  27.562   2.391 -0.3296 -0.1148  0.1739
10216W        W85204  28.065   8.924   9.217  0.0257  0.1641 -0.0289
10217W        W85205  16.489  25.697   2.339 -0.3806 -0.1164  0.1219
10218W        W85206  32.861   0.737  17.800 -0.1260  0.1103 -0.1251
10219W        W85207  14.304   3.486   1.585 -0.4321 -0.2540 -0.2813
10220W        W85208  31.807  24.759  14.257  0.2035 -0.2985  0.1555
10221W        W85209  32.222  14.040  17.348 -0.0128  0.1033  0.0471
10222W        W85210  18.471  12.790  25.516  0.2252  0.1139  0.2020
10223W        W85211  15.244  18.089   4.339 -0.0582 -0.4076  0.0226
10224W        W85212  33.153   8.649   2.072 -0.0026 -0.2949 -0.0714
10225W        W85213  25.681   0.144  23.102 -0.0571  0.1630  0.0416
10226W        W85214  23.862  10.630   2.802  0.1183 -0.3425  0.2011
10227W        W85215  25.756   9.328   1.507  0.1236  0.3404  0.1857
10228W        W85216  28.831   1.764   5.168 -0.1853  0.3149  0.3467
10229W        W85217  12.914   4.498   4.959 -0.1280  0.2751 -0.0430
10230W        W85218   3.390   0.276   1.296  0.2426 -0.0096  0.1770
10231W        W85219  23.675   2.879  26.072  0.1950 -0.1769 -0.1808
10232W        W85220  27.458   3.697  25.498 -0.2972 -0.2598  0.3403
10233W        W85221  33.335  27.463  22.065  0.1144 -0.3887 -0.1746
10234W        W85222  30.333  19.151   8.939  0.2475 -0.1967 -0.3480
10235W        W85223  33.682  30.689  16.912 -0.0613 -0.0107  0.2384
10236W        W85224  31.002  24.031  12.862 -0.0803  0.2803 -0.1151
10237W        W85225  25.905  32.942  17.215  0.0977  0.1607  0.3732
10238W        W85226  17.957  20.729  21.882 -0.1194  0.0358  0.0182
10239W        W85227   0.594  32.665  18.432  0.0948 -0.1811 -0.0751
10240W        W85228  31.548  21.698   9.829 -0.1196  0.1524  0.3156
10241W        W85229  31.639   6.054  19.617 -0.1144  0.0965 -0.3506
10242W        W85230   6.327  25.716  11.442 -0.0497  0.1521  0.1332
10243W        W85231   3.802  14.358  24.392  0.4631  0.0043  0.0033
10244W        W85232  29.222  20.389  25.440  0.1698  0.0096 -0.1706
10245W        W85233  33.589  24.642  19.080  0.0389 -0.1192 -0.0260
10246W        W85234   4.746   7.739   8.838 -0.2365  0.1384 -0.3561
10247W        W85235  34.135   4.337  25.082  0.2163  0.0609 -0.2133
10248W        W85236  24.958   6.073   2.050 -0.5379  0.3112  0.0003
10249W        W85237  16.291  10.476  12.224 -0.1241 -0.0285 -0.1625
10250W        W85238  10.290  26.261   3.506 -0.0172  0.1470 -0.1192
10251W        W85239  21.892  21.115   2.035  0.0356 -0.3192  0.1479
10252W        W85240  14.584  14.166   3.353  0.1001  0.3417 -0.2699
10253W        W85241   9.253  11.948   2.533 -0.1353 -0.2007 -0.2304
10254W        W85242  32.318  20.549  19.492 -0.0127  0.0859 -0.0880
10255W        W85243   7.019  18.052  12.764 -0.3138 -0.2366 -0.0586
10256W        W85244  22.775   6.940   6.590  0.0233 -0.0719 -0.2067
10257W        W85245  25.948  22.607   0.233  0.1539  0.0125  0.1681
10258W        W85246  27.972   6.045  21.677  0.0341 -0.0814 -0.0330
10259W        W85247  12.191  12.669  11.297  0.0362 -0.2331  0.0582
10260W        W85248  33.385   4.491  18.963  0.1359  0.0788 -0.2526
10261W        W85249   6.719   4.342  19.528  0.2852 -0.1886  0.2148
10262W        W85250  10.059  32.875  15.219 -0.2861 -0.1055  0.0180
10263W        W85251  34.074  29.763  20.500  0.1780  0.0950 -0.1592
10264W        W85252  21.723  16.500   0.745  0.0552 -0.2678  0.0281
10265W        W85253  26.181  29.608   3.434  0.1294 -0.2218  0.0831
10266W        W85254  30.719  34.325   3.300  0.0015 -0.0962  0.2425
10267W        W85255   5.149   0.409  10.167  0.0895 -0.1213  0.0170
10268W        W85256  19.241  31.760  21.403  0.1572  0.2541 -0.1191
10269W        W85257   6.733  11.211   4.394  0.2583  0.2220 -0.0211
10270W        W85258  21.824  14.298  15.700  0.1047  0.2745  0.1295
10271W        W85259  28.143   7.441  14.537 -0.0711  0.0724 -0.0387
10272W        W85260  31.973  27.540  15.068 -0.0920  0.0560  0.0164
10273W        W85261   3.362   8.819  16.062  0.1162  0.1026 -0.1959
10274W        W85262   2.751  10.094  25.326  0.2050  0.0033  0.2303
10275W        W85263   2.694  34.229  21.139 -0.1121  0.0629 -0.2326
10276W        W85264  23.435  27.465  20.109  0.0950  0.1361  0.1396
10277W        W85265  28.396   8.324  23.212  0.0955 -0.1549 -0.0953
10278W        W85266  17.178  34.986   7.900  0.0583  0.0213 -0.1384
10279W        W85267  14.964  26.249   2.203 -0.2250 -0.3083 -0.1065
10280W        W85268   8.527  27.316   9.509 -0.0080  0.1724  0.2072
10281W        W85269  32.821  21.044   7.812 -0.0130 -0.0768 -0.0838
10282W        W85270   6.875  27.870   0.572 -0.0932  0.2253 -0.1037
10283W        W85271  24.450  10.533   3.695  0.2448 -0.1140 -0.4495
10284W        W85272  29.473  26.033  17.820 -0.0606  0.0560  0.2141
10285W        W85273  30.500   3.327   6.491  0.1929 -0.0036 -0.4850
10286W        W85274  20.778  17.339  18.958  0.1134 -0.1312 -0.0604
10287W        W85275   8.647  13.318  19.314 -0.1440 -0.0356  0.0188
10288W        W85276  30.234  19.701  13.741  0.0071 -0.0081  0.0663
10289W        W85277  23.760  20.032   2.700  0.1314  0.2197 -0.0513
10290W        W85278   7.343  14.610  12.183  0.0023  0.0213  0.0259
10291W        W85279  24.820   8.759  18.261  0.1880 -0.1719 -0.3468
10292W        W85280   7.530  25.801  15.408 -0.2117  0.4835 -0.0894
10293W        W85281  20.120  30.624   6.171  0.0069  0.1551  0.3077
10294W        W85282  18.368  25.699  10.697  0.0220  0.0929  0.1793
10295W        W85283   7.654   0.113  15.517  0.2620  0.1686  0.0833
10296W        W85284   4.598  17.636  23.060 -0.0828  0.1046  0.0301
10297W        W85285  14.270   2.969  21.134 -0.2171 -0.0557 -0.1015
10298W        W85286  25.055  14.292  16.016  0.1626  0.1013 -0.1337
10299W        W85287   1.773  31.752   4.200  0.2010  0.3103 -0.1768
10300W        W85288  19.619   3.147  25.972  0.2111 -0.1294 -0.2715
10301W        W85289  18.550  19.131  11.279  0.0037 -0.2590 -0.1253
10302W        W85290  12.233  34.070  12.854  0.1685  0.1777 -0.1499
10303W        W85291   1.702   5.978   0.857  0.4653  0.0914 -0.1831
10304W        W85292   7.254   5.039   9.757  0.0238  0.2072 -0.0182
10305W        W85293  27.319  17.843  13.187 -0.1367 -0.3229  0.0763
10306W        W85294  16.135  15.597  19.446 -0.2422 -0.0233  0.2348
10307W        W85295  29.033  18.361  13.949 -0.1877  0.3512 -0.2063
10308W        W85296  26.588  28.281  13.825 -0.0742 -0.0682  0.1196
10309W        W85297  30.803  22.299  19.418  0.0272 -0.0357 -0.0483
10310W        W85298  13.773  27.455  15.870 -0.2065 -0.2088  0.0444
10311W        W85299   2.813  10.636   3.162  0.0124  0.0651 -0.0221
10312W        W85300  14.988  29.566   8.438 -0.0132 -0.4175  0.1476
10313W        W85301  13.104  17.662   8.512 -0.1471 -0.0620 -0.0848
10314W        W85302  16.979  19.224  10.475  0.0624  0.0961 -0.1029
10315W        W85303  27.331  24.716  14.180 -0.1611 -0.0838 -0.1146
10316W        W85304  33.176   6.504  19.210 -0.0026 -0.3179  0.0234
10317W        W85305  30.108  24.587   8.052  0.3290 -0.2389  0.1949
10318W        W85306  28.596  24.111  12.285  0.0865  0.1503  0.0495
10319W        W85307  18.373  11.791  21.323 -0.1979 -0.3686  0.0864
10320W        W85308  23.712   5.366  13.660  0.1595 -0.2913  0.2354
10321W        W85309  16.126  10.880  13.408 -0.1355  0.0534  0.2211
10322W        W85310  34.432  34.898   7.582 -0.0768  0.2884 -0.1427
10323W        W85311  23.724  24.548  23.535  0.2081  0.2223  0.0098
10324W        W85312   9.281  24.091  24.986  0.1870 -0.1310 -0.1249
10325W        W85313  33.957  19.570  11.316  0.1803 -0.1706  0.0550
10326W        W85314   1.070  34.855   2.122 -0.1769  0.2015  0.0152
10327W        W85315  11.180  14.301  25.504  0.0567  0.0394  0.0677
10328W        W85316  15.764  14.860   5.834  0.1929 -0.0408  0.0792
10329W        W85317   7.926  13.483  25.360  0.0539 -0.0375 -0.0583
10330W        W85318   3.868   5.068   7.522  0.2811  0.2218 -0.1367
10331W        W85319  21.816  21.635   1.262  0.1793  0.2421  0.1889
10332W        W85320  15.013  26.676   9.149 -0.1411 -0.0182 -0.2924
10333W        W85321  12.325  21.892  16.361 -0.2175  0.3461  0.1937
10334W        W85322  27.506  25.707  23.496  0.0615  0.2996 -0.0005
10335W        W85323  10.268  31.568   7.715 -0.2619  0.1046 -0.2008
10336W        W85324  28.139   7.579  22.568  0.0034  0.1523 -0.0665
10337W        W85325   3.192  10.095   1.582  0.1083  0.2375  0.0021
10338W        W85326   8.750  28.619  10.877  0.2273 -0.0092  0.0257
10339W        W85327   8.742  14.231   0.381  0.0268  0.0933 -0.1346
10340W        W85328  15.301   2.128  23.922  0.1972  0.0195  0.1727
10341W        W85329  24.025  16.142  20.540  0.3479  0.4622  0.2637
10342W        W85330  20.163   2.937  24.248 -0.0411 -0.0641  0.0179
10343W        W85331  17.651  16.429  13.436  0.2573  0.2905  0.0130
10344W        W85332  17.054  15.201   0.500 -0.0307 -0.0406 -0.5287
10345W        W85333   7.643  21.284  11.297 -0.2622  0.0213 -0.1448
10346W        W85334  15.466   1.116  21.625 -0.0588  0.1912 -0.0167
10347W        W85335   1.930  23.384  19.023 -0.0435  0.0546 -0.0336
10348W        W85336  21.096  34.244  20.779  0.0520  0.0953 -0.0501
10349W        W85337  23.212  17.353  23.501 -0.0842  0.1633  0.0563
10350W        W85338  22.752  13.503  22.210 -0.1313 -0.1210  0.0599
10351W        W85339   5.082  19.060  16.894  0.2900  0.2118  0.1370
10352W        W85340  32.460  29.464  25.496 -0.0390  0.0547  0.0307
10353W        W85341  11.296  22.664  23.802 -0.1159 -0.2629 -0.1575
10354W        W85342   7.412   8.440  25.191  0.2452 -0.1110  0.1382
10355W        W85343  27.026  23.053  24.751  0.2827 -0.0249  0.1572
10356W        W85344  34.106   2.498   4.628 -0.1635  0.1401 -0.1887
10357W        W85345  29.222  30.372   3.394  0.0438  0.0922  0.3224
10358W        W85346  11.155  23.583   0.118  0.0353  0.1773 -0.0587
10359W        W85347  18.612  17.139  19.794 -0.1203  0.3972 -0.0299
10360W        W85348  23.220   0.882  19.747 -0.0727  0.1409 -0.2247
10361W        W85349   8.197   5.904   4.012 -0.0825  0.2555 -0.0095
10362W        W85350  13.443  12.947   8.800  0.0084 -0.0561  0.1101
10363W        W85351  15.908   5.475  25.684  0.3871 -0.3483  0.3091
10364W        W85352  27.280   8.378   8.885  0.0512  0.0348  0.0699
10365W        W85353   9.852  27.478  16.816  0.0217 -0.5758 -0.0596
10366W        W85354  35.313  14.104  13.435 -0.1645  0.4043  0.2091
10367W        W85355  16.559  26.254   3.417 -0.4297 -0.2425  0.1523
10368W        W85356  29.580   4.383  21.214 -0.1185  0.0319 -0.0044
10369W        W85357   7.215   2.551  12.334  0.3693  0.0028 -0.2218
10370W        W85358  31.289  30.094   1.107 -0.0923  0.0276  0.0927
10371W        W85359  29.976  33.753   2.830  0.2084 -0.2866 -0.1558
10372W        W85360  17.300  29.889  19.985 -0.1335 -0.0123  0.1564
10373W        W85361   4.822  19.634  23.939 -0.1327  0.1933 -0.0087
10374W        W85362   2.499  29.932  20.229  0.0418 -0.0835  0.3850
10375W        W85363   5.844   2.338   8.629 -0.0075 -0.2381  0.1059
10376W        W85364   0.531   8.487  22.522  0.1372 -0.0629  0.2267
10377W        W85365   5.682  19.811   8.222  0.0700  0.2766  0.1027
10378W        W85366  13.988  13.346   3.118 -0.3709 -0.1400  0.0434
10379W        W85367  19.333   8.511  21.096 -0.0512  0.3014 -0.1506
10380W        W85368  18.299  33.074  23.553  0.1522 -0.0348 -0.1287
10381W        W85369  25.005   0.641  19.165  0.1350  0.0048  0.0767
10382W        W85370  14.521  17.998  12.241  0.0545 -0.1351 -0.2762
10383W        W85371  21.136  10.117  20.827  0.0106 -0.0546 -0.0948
10384W        W85372   0.945  22.554  26.026  0.0458  0.0580  0.2392
10385W        W85373  35.335   9.309  16.045 -0.0310  0.1986 -0.1262
10386W        W85374  29.373   7.826  23.394  0.2322 -0.0274  0.2578
10387W        W85375   5.610  12.948   5.906 -0.1133  0.1333  0.0605
10388W        W85376  10.179  34.204   8.004 -0.3531  0.0309  0.2538
10389W        W85377   8.136  27.627   2.556  0.0837 -0.0453 -0.2493
10390W        W85378  27.501  31.108  14.600  0.2004 -0.2176 -0.0381
10391W        W85379  12.130   8.018   1.447 -0.3863  0.2883 -0.5163
10392W        W85380  13.386  19.782   9.731  0.1597 -0.3418  0.1724
10393W        W85381  16.720   6.429   3.247 -0.1800 -0.1446 -0.0810
10394W        W85382  27.527   4.044  25.909 -0.1910  0.0561  0.1441
10395W        W85383   7.248  25.722  25.938 -0.0537  0.0602 -0.0916
10396W        W85384  16.360  13.232  11.708  0.3188 -0.2431 -0.1947
10397W        W85385  17.699  33.327  24.684  0.4620  0.0976 -0.0556
10398W        W85386  27.580  24.662  17.001  0.1811 -0.0955 -0.1197
10399W        W85387  29.160  17.387  23.968 -0.1097 -0.0362  0.0574
10400W        W85388  10.957  15.839  10.549 -0.2971  0.1306 -0.2328
10401W        W85389  24.497   3.838  22.549  0.0048  0.1963 -0.0798
10402W        W85390   6.744   8.476  24.339  0.0603  0.1905  0.1833
10403W        W85391   9.652  15.206  25.495  0.2329  0.1387 -0.2283
10404W        W85392   9.627  10.927  21.453 -0.1304 -0.0216 -0.0408
10405W        W85393  25.264  16.795  24.563 -0.0735 -0.0479 -0.0318
10406W        W85394  24.155   2.474  24.781 -0.0616 -0.2428 -0.2259
10407W        W85395  33.176   1.630   1.402 -0.2717  0.2595 -0.0483
10408W        W85396  10.923  30.219  24.469 -0.2242 -0.0661 -0.0479
10409W        W85397   8.221  20.870   9.493 -0.0281 -0.3053 -0.1208
10410W        W85398  31.631  15.998   9.491  0.1900 -0.3366 -0.0242
10411W        W85399  19.439  12.407   4.309 -0.1209  0.0039 -0.1229
10412W        W85400  18.964  25.393  25.938 -0.2174 -0.1371 -0.2488
10413W        W85401  27.226   5.924   9.761 -0.1013 -0.0015 -0.3737
10414W        W85402  14.651   1.127  12.366 -0.1118  0.0313  0.2292
10415W        W85403   6.345  17.285  11.433  0.1645  0.2014  0.1467
10416W        W85404   9.964   7.700  24.658 -0.4120 -0.0088  0.4182
10417W        W85405  22.232   8.882  24.233 -0.0150 -0.1402 -0.2448
10418W        W85406  25.380  27.087  17.085  0.3903 -0.2297 -0.0298
10419W        W85407   7.190  24.199   8.040 -0.1546  0.2030 -0.0573
10420W        W85408  19.827   9.297   3.193  0.1405 -0.1383 -0.3736
10421W        W85409  27.542  30.704  24.724  0.0253  0.2522 -0.2927
10422W        W85410   3.849  31.926   1.195 -0.1430 -0.3026  0.1092
10423W        W85411   1.975  17.026  25.488  0.2297  0.0893 -0.0381
10424W        W85412   7.150   2.433   3.987 -0.1108  0.1140  0.2518
10425W        W85413  16.524   5.446  11.568 -0.0147  0.1580 -0.0485
10426W        W85414   5.232  27.365  10.901 -0.0462  0.1703  0.1896
10427W        W85415  23.821   1.355   7.574  0.1315 -0.1656  0.4233
10428W        W85416  30.871  23.354  22.128 -0.0150  0.1317  0.2343
10429W        W85417  12.842  30.009  14.175 -0.1797  0.1808  0.1722
10430W        W85418   1.738  10.909  15.316  0.0805 -0.0233  0.1229
10431W        W85419   9.399  31.257   6.359 -0.0779 -0.1058  0.1347
10432W        W85420   2.829   6.786   0.794 -0.0766  0.0196 -0.0631
10433W        W85421  12.116  28.304  22.231 -0.3343  0.1022  0.3834
10434W        W85422  22.836  25.849  23.297 -0.0714 -0.0135 -0.1268
10435W        W85423  13.586  22.046   5.170  0.1545 -0.1423 -0.0680
10436W        W85424  16.026  15.290  10.717  0.0824  0.2878  0.0886
10437W        W85425  11.058  24.018   4.920  0.1140 -0.2485 -0.2597
10438W        W85426  28.386  34.887  25.831  0.1378  0.0533  0.0083
10439W        W85427  27.881  11.048  14.698  0.0807  0.3446 -0.2305
10440W        W85428  26.770  24.704  24.282  0.1372  0.3397  0.0833
10441W        W85429  16.994  13.748  11.901  0.2717  0.1965  0.1216
10442W        W85430   9.244   4.746  21.725  0.2771  0.0252 -0.0130
10443W        W85431   5.667  15.480   1.335  0.0392 -0.0318  0.0364
10444W        W85432  35.339  25.139  24.582  0.2070  0.1725 -0.0459
10445W        W85433  14.898   4.466   2.749 -0.2599 -0.0935 -0.0043
10446W        W85434  11.227  24.978   5.154  0.2808  0.0043 -0.1200
10447W        W85435  13.115   7.394   0.292 -0.2102  0.0132 -0.5028
10448W        W85436  24.737   2.591   3.131  0.0553  0.3162  0.1441
10449W        W85437   1.969   7.158   3.188 -0.0496  0.0497 -0.3638
10450W        W85438   8.104  13.334  24.555 -0.0259 -0.4231 -0.2090
10451W        W85439  31.496  10.945  10.451  0.2246 -0.0442  0.0256
10452W        W85440   1.423  12.142   3.483  0.2709 -0.1098  0.0401
10453W        W85441  19.874  31.424  19.018 -0.2488  0.1971  0.0973
10454W        W85442   3.254  11.313  20.601  0.0428 -0.0144  0.0212
10455W        W85443  17.263  28.707  20.007  0.1745 -0.0111 -0.3465
10456W        W85444  33.684   2.790  25.726  0.0251  0.0784  0.0542
10457W        W85445   7.198   3.778  20.872  0.0508 -0.2968  0.2009
10458W        W85446  31.746  11.388   0.728  0.1233 -0.1774 -0.3834
10459W        W85447  34.428  14.612  19.045 -0.0632 -0.3048 -0.0436
10460W        W85448  15.940  34.452   7.972  0.0612  0.0448 -0.0536
10461W        W85449  22.588  21.093  13.614  0.1988 -0.1176  0.0427
10462W        W85450  33.027  16.656  23.344  0.0927 -0.2656  0.0839
10463W        W85451   4.612   1.578   9.690  0.0216  0.2270 -0.0063
10464W        W85452  31.700  30.737   4.943 -0.0099  0.1164 -0.1290
10465W        W85453  28.851  19.838  14.374 -0.1565 -0.1636  0.2916
10466W        W85454  33.092  19.107  12.772  0.2504  0.2502 -0.4117
10467W        W85455  13.820   9.466   8.623  0.0059  0.0270  0.0982
10468W        W85456  12.402  25.161   3.755  0.1003  0.0616  0.0972
10469W        W85457   1.391  31.918  19.886 -0.1625  0.1756  0.1850
10470W        W85458   2.041  32.865  18.944  0.1525 -0.0155  0.1072
10471W        W85459  27.456   0.921   3.367  0.4011 -0.1193 -0.2128
10472W        W85460  16.391  32.116  25.907  0.0747  0.2586 -0.4916
10473W        W85461  17.841  32.839  18.794  0.1496  0.1423  0.0708
10474W        W85462   4.313  24.365   6.354 -0.0628  0.1440 -0.2718
10475W        W85463  34.403  12.865   7.911 -0.0050 -0.2193  0.2086
10476W        W85464  29.299   1.574   1.790  0.3586  0.0844 -0.0611
10477W        W85465  31.371  32.906   0.432  0.0913 -0.3761  0.2162
10478W        W85466  17.534  30.389   6.274 -0.2566 -0.2208  0.2744
10479W        W85467  14.293   6.640  11.975  0.0645  0.0616 -0.0362
10480W        W85468  14.478   0.685   2.028  0.1439  0.1224 -0.1773
10481W        W85469  33.466  30.691   4.367 -0.1580  0.5159 -0.0919
10482W        W85470   0.509  19.309   9.205  0.0026  0.0076 -0.2415
10483W        W85471   9.930  33.406   6.377 -0.0782  0.0238 -0.0758
10484W        W85472  13.969   1.342  18.049 -0.1878 -0.4933 -0.1147
10485W        W85473  22.514  30.216  18.174  0.1221  0.0496  0.2408
10486W        W85474  18.769  17.132  22.112 -0.2388 -0.0221 -0.1280
10487W        W85475  10.476   8.465  19.513  0.0433 -0.0245  0.2762
10488W        W85476  31.726  13.357  11.177  0.2799  0.2127  0.2187
10489W        W85477  19.076   6.653   4.930 -0.0437 -0.2221 -0.1921
10490W        W85478  31.806  31.730   5.416  0.1837  0.1819 -0.0790
10491W        W85479  23.633   2.564  14.432  0.2277 -0.0465  0.1587
10492W        W85480  23.407  32.252   3.081 -0.0091  0.1866  0.1156
10493W        W85481  15.198  28.386   0.076 -0.0930  0.2368 -0.0678
10494W        W85482  32.177  13.613   8.332  0.1263 -0.0504 -0.0358
10495W        W85483  26.999  12.261  23.821  0.1391  0.0699 -0.3064
10496W        W85484  30.912   1.344  14.011 -0.1011  0.2410  0.3771
10497W        W85485  19.303   6.536   4.068 -0.2105  0.1096 -0.0401
10498W        W85486  28.087  11.381  11.929  0.2273 -0.2251 -0.2090
10499W        W85487   0.239   9.622  20.426  0.0135  0.3817 -0.3131
10500W        W85488  29.893   6.292   0.631 -0.2571  0.0580 -0.0937
10501W        W85489   1.460  14.870   0.951  0.2389 -0.1787  0.0508
10502W        W85490  11.837  22.739  24.467  0.2355 -0.1246  0.0226
10503W        W85491  26.434  13.190  18.040  0.2158 -0.1386 -0.2534
10504W        W85492  30.644   9.578  10.183 -0.2441 -0.3706  0.2051
10505W        W85493  24.399   0.209  21.394  0.1090  0.2350  0.0504
10506W        W85494  16.556   8.206  10.923 -0.0983  0.0622 -0.0102
10507W        W85495  10.469  34.597  15.478  0.3107  0.1237  0.0661
10508W        W85496   0.813   4.526  15.211 -0.1638 -0.1093  0.0586
10509W        W85497   0.168  15.896  25.647  0.0799  0.1903  0.2087
10510W        W85498  34.907   9.342  24.793  0.1115 -0.2771  0.1321
10511W        W85499  32.610  20.028   0.251  0.2796  0.2952 -0.2493
10512W        W85500  33.505  26.468  22.526 -0.0784  0.1847  0.3304
10513W        W85501  26.374   0.635  13.214  0.2085 -0.0730  0.2072
10514W        W85502  13.111  16.943  24.460  0.1130  0.1581 -0.2003
10515W        W85503   5.885  13.043   9.584 -0.0316  0.0445  0.1922
10516W        W85504  19.896   7.146   8.080  0.1185  0.0908  0.2536
10517W        W85505  17.200   6.761   5.634  0.0316 -0.0613  0.0463
10518W        W85506  17.346  34.445  20.647  0.2926  0.1797 -0.3904
10519W        W85507  19.459  30.151  16.525  0.0242  0.1839  0.0869
10520W        W85508  22.904  34.888   3.143 -0.1916  0.1088 -0.1338
10521W        W85509  15.045   5.608   9.972  0.3764 -0.2016  0.0094
10522W        W85510  24.060  17.623  17.895  0.2984 -0.2763  0.4294
10523W        W85511  27.915  10.436  25.062  0.1039 -0.2277  0.4323
10524W        W85512   6.195   9.489  17.156  0.1522 -0.2868 -0.1227
10525W        W85513  24.645   5.000  16.987  0.2410  0.2195 -0.1424
10526W        W85514  23.547  28.396  21.320 -0.0671  0.1459  0.1052
10527W        W85515  17.839  26.456   3.262 -0.0320 -0.3372  0.1785
10528W        W85516  26.316  23.602  25.075 -0.1137 -0.1924 -0.0753
10529W        W85517  19.322  11.481  20.469  0.0818  0.2531 -0.3271
10530W        W85518  23.203   3.875   0.335  0.5062  0.1018 -0.1473
10531W        W85519  12.542  30.017  21.886 -0.1643  0.1278  0.4966
10532W        W85520  24.036   4.244   4.197 -0.1044  0.0343 -0.0824
10533W        W85521  22.739  11.815  25.145  0.0751 -0.0516  0.1653
10534W        W85522  19.358   3.939  20.434  0.0261 -0.1989  0.0846
10535W        W85523  29.287  14.414   8.086  0.0162  0.0441 -0.0300
10536W        W85524  12.785   4.331  20.873  0.2145 -0.1548 -0.0322
10537W        W85525  27.778  18.043  25.070 -0.0825 -0.4246  0.0853
10538W        W85526  27.514  16.060  11.281 -0.0083  0.0364  0.0285
10539W        W85527  19.239  25.539   6.272 -0.2525  0.0690  0.0207
10540W        W85528  30.412  35.016  24.813  0.0709 -0.1680 -0.0572
10541W        W85529  18.109  34.945  17.083 -0.0231  0.1111 -0.0462
10542W        W85530  30.031  24.742   9.558 -0.2999 -0.1176  0.2429
10543W        W85531  30.596  21.220   5.994  0.0211  0.0228 -0.0316
10544W        W85532   4.429  24.365  23.507  0.5327  0.1662  0.1367
10545W        W85533  11.120  24.417   2.878  0.4454  0.1579  0.0710
10546W        W85534  31.730  21.612  11.976  0.2362 -0.0618  0.0128
10547W        W85535  31.406  28.307  16.064  0.0290  0.1175 -0.3296
10548W        W85536   6.213  10.468   0.613  0.0696  0.1576  0.3175
10549W        W85537  30.626  25.896   9.922 -0.1700  0.0580 -0.4085
10550W        W85538  23.383  29.022  14.144  0.0075  0.1253 -0.0976
10551W        W85539   9.689  18.931  13.640  0.2138 -0.0536  0.0731
10552W        W85540  19.811  13.640   7.594  0.0371 -0.0626 -0.1243
10553W        W85541  17.781   5.279  17.497 -0.0668  0.3403 -0.1060
10554W        W85542  25.456   3.340  20.396  0.1209 -0.0701  0.0084
10555W        W85543  17.171  31.412   3.876  0.5000  0.3242 -0.2006
10556W        W85544  29.421  20.752  10.996  0.1740  0.1671  0.0929
10557W        W85545   9.648  29.812   4.474 -0.1073 -0.1859  0.2013
10558W        W85546  35.339  21.092  17.314  0.0465 -0.0711  0.3428
10559W        W85547  31.366  28.055   3.229 -0.1246  0.0388  0.1426
10560W        W85548  11.361  20.539  12.746 -0.3497 -0.1719  0.2601
10561W        W85549   3.587  18.987  18.641  0.1328  0.1116 -0.1865
10562W        W85550   8.811  27.136   9.132  0.3324 -0.2993 -0.1424
10563W        W85551  25.275  28.191  14.532 -0.2088 -0.0682 -0.0096
10564W        W85552  11.696   8.868   3.570  0.2401  0.0239 -0.1331
10565W        W85553  11.110  22.746  13.146  0.2787 -0.0893 -0.1236
10566W        W85554   8.703   1.960  12.416 -0.0880  0.1555  0.3422
10567W        W85555   0.834   7.116  25.409 -0.0999  0.2931 -0.1060
10568W        W85556  20.063   6.718  25.568 -0.0382 -0.0488 -0.1528
10569W        W85557   7.570  13.050  20.878 -0.1633  0.0228  0.1314
10570W        W85558  26.552  23.687   8.884  0.3065  0.0731  0.1794
10571W        W85559   5.478  29.651   8.740 -0.0771  0.2165  0.0576
10572W        W85560  29.633  33.489   0.188 -0.5060  0.3102  0.0334
10573W        W85561  13.703   2.468   3.424  0.0879  0.1653  0.0885
10574W        W85562   6.143   6.143   8.950  0.1264 -0.0502 -0.1148
10575W        W85563   7.446  33.627   7.085  0.0087  0.2281 -0.2296
10576W        W85564  23.915  23.761  20.459  0.0471 -0.2897 -0.0201
10577W        W85565  21.649   3.011  16.999  0.1224 -0.2504  0.0095
10578W        W85566  33.953  13.504  19.936  0.0927 -0.2998 -0.0934
10579W        W85567  29.784  22.050  24.872 -0.1781  0.0095  0.2150
10580W        W85568  23.021  27.395  20.821  0.1682  0.0146  0.0763
10581W        W85569   5.372  31.479  22.911  0.0225 -0.0348  0.0188
10582W        W85570   8.956  28.346   4.733 -0.2451  0.2126 -0.4126
10583W        W85571  16.934  15.970   0.266 -0.0100  0.0381  0.2790
10584W        W85572   6.412  31.443   1.765  0.1874 -0.0855  0.0869
10585W        W85573  24.901  31.170  22.003  0.1709  0.0339  0.1275
10586W        W85574   4.831   5.850  17.746 -0.1113  0.0955 -0.0721
10587W        W85575  30.363  22.890  21.713 -0.2809 -0.1954  0.1550
10588W        W85576  11.109  18.289  22.322 -0.0603  0.2255 -0.2816
10589W        W85577  15.560  25.022   3.685  0.1709 -0.2216 -0.2639
10590W        W85578   0.585  14.386  20.713  0.0507  0.0637 -0.2263
10591W        W85579  33.115  12.366   1.192  0.1779  0.3654 -0.1638
10592W        W85580  23.962  13.772  16.588  0.1361  0.0988 -0.0826
10593W        W85581  27.560  18.981  13.175 -0.0985  0.1789  0.1886
10594W        W85582   0.836   6.703  18.033 -0.1342  0.1658  0.0786
10595W        W85583  10.953  33.295   7.200  0.1599 -0.0838  0.2423
10596W        W85584  19.708  20.773  18.536  0.0686  0.1993  0.1885
10597W        W85585  24.168  12.160  21.530 -0.2302  0.0545 -0.0537
10598W        W85586  25.395   4.190  13.338  0.1603  0.3730  0.1201
10599W        W85587  18.174  32.849   9.064 -0.2578  0.2981 -0.1081
10600W        W85588  20.121  25.127  19.565 -0.0064 -0.3799 -0.2490
10601W        W85589   8.623  26.663   1.674  0.2633  0.2240 -0.0600
10602W        W85590  22.376  35.046  14.356 -0.0480 -0.2631  0.1050
10603W        W85591   3.315  25.341  24.104 -0.0720  0.1422  0.1534
10604W        W85592  15.852  15.898  25.855 -0.0233 -0.1979 -0.1466
10605W        W85593  18.849  16.610   7.471  0.0300 -0.0023 -0.1106
10606W        W85594  24.055   2.040  21.876  0.3601 -0.2901  0.1120
10607W        W85595  12.531  16.184   0.879  0.3084 -0.1899 -0.1568
10608W        W85596  35.004   5.450  24.963 -0.2600 -0.0787  0.3625
10609W        W85597  20.053  12.163  22.113  0.1644  0.2921  0.5003
10610W        W85598  20.619  21.287   2.005  0.0473 -0.2107  0.1797
10611W        W85599   4.385  17.725  24.543  0.2884 -0.0309 -0.1879
10612W        W85600  19.998  16.339   1.798 -0.1317 -0.0002  0.3825
10613W        W85601  12.417  18.595  23.553  0.0166 -0.0287 -0.2402
10614W        W85602   0.631  13.952  12.527  0.2270 -0.1094 -0.1804
10615W        W85603  32.628   5.420  20.750  0.1782  0.2368  0.0185
10616W        W85604  22.344   5.787  18.354 -0.0802 -0.1779 -0.2170
10617W        W85605  10.010  25.672   5.775 -0.0789  0.0981 -0.0293
10618W        W85606  31.730  35.323  20.076 -0.1987 -0.1533  0.1033
10619W        W85607   8.891   8.041  23.556  0.3771  0.0836  0.1812
10620W        W85608  32.591  16.493  23.679 -0.2008  0.1948  0.0592
10621W        W85609  16.778  23.528  12.404  0.1127 -0.0171  0.0472
10622W        W85610  30.097  27.068  24.096 -0.4928  0.2719 -0.0811
10623W        W85611  14.377   2.173   2.057 -0.3961 -0.1494 -0.3269
10624W        W85612   2.897  28.427  24.000 -0.1640  0.0653 -0.0465
10625W        W85613  13.635   6.790   7.017 -0.0700 -0.1950  0.1192
10626W        W85614   2.861  17.641   0.687 -0.4098  0.3695 -0.0822
10627W        W85615  15.673  29.125  10.098 -0.0061  0.3325  0.2890
10628W        W85616   6.974   6.713  23.700  0.3310 -0.1131 -0.0161
10629W        W85617   9.307  20.444   9.234 -0.1886  0.0156 -0.0843
10630W        W85618  21.002  27.619  16.122  0.2011  0.0379  0.0799
10631W        W85619  31.267  34.164   6.515 -0.2691  0.0447 -0.1636
10632W        W85620  23.160  11.878   3.957  0.0524  0.3297 -0.0029
10633W        W85621  22.330  33.567   4.206  0.1549 -0.2869  0.0318
10634W        W85622   4.306  31.694   1.385 -0.4038 -0.2204 -0.2511
10635W        W85623  27.540   8.749  13.412  0.2088  0.3531  0.0386
10636W        W85624  20.192  11.956  20.058 -0.2085 -0.0507  0.2157
10637W        W85625  22.356  24.007  25.214  0.1610  0.1507 -0.2206
10638W        W85626   3.053  18.625  21.104  0.1029 -0.0022  0.1517
10639W        W85627  26.856  21.625  22.473 -0.0587  0.0492 -0.2822
10640W        W85628  30.836  30.955  19.825 -0.1636 -0.0269 -0.3613
10641W        W85629  33.077   2.762   0.876  0.2611  0.0382 -0.1107
10642W        W85630  25.176   6.776  12.274  0.0299  0.3318  0.2603
10643W        W85631  20.072  17.334  21.581 -0.4401  0.0754 -0.1443
10644W        W85632   3.523  11.971  17.372  0.0577 -0.0197  0.2282
10645W        W85633   5.784  17.907   3.105  0.1952 -0.0580 -0.3965
10646W        W85634  16.352   4.017   2.834 -0.4953  0.4823 -0.2864
10647W        W85635  32.382  28.625   2.388  0.4659  0.1617  0.1476
10648W        W85636  32.867  17.249  24.302  0.2125 -0.1134 -0.1861
10649W        W85637   7.375  25.080  14.018  0.1389  0.1412 -0.1088
10650W        W85638  21.846  15.893   3.949  0.0156 -0.1854  0.0396
10651W        W85639  21.240   7.119   8.421 -0.1153  0.2371 -0.1222
10652W        W85640  30.662  27.574  19.969 -0.0078  0.0678  0.3165
10653W        W85641   3.768  12.140   2.363 -0.1227 -0.0090  0.2307
10654W        W85642  20.647  35.232   7.549  0.0304  0.0964  0.1772
10655W        W85643  22.303  35.205   0.558 -0.3923 -0.2163  0.0233
10656W        W85644  14.860  14.959  26.160  0.2328 -0.1408 -0.2786
10657W        W85645  31.815  12.454   6.201 -0.1153 -0.3430  0.0074
10658W        W85646  22.156  23.052  25.067 -0.5209 -0.1159 -0.0143
10659W        W85647  28.037  33.125   0.686  0.1091  0.2662 -0.0520
10660W        W85648  11.779  12.835   1.139  0.1995 -0.0468 -0.1352
10661W        W85649  27.723   7.310  12.346 -0.0752 -0.1246 -0.1930
10662W        W85650  13.013  33.931  13.557  0.1994  0.0180 -0.2278
10663W        W85651  18.695   5.122   0.014  0.4555 -0.1841  0.2410
10664W        W85652  13.178  31.711   5.492  0.2758  0.1170  0.0588
10665W        W85653  15.876   1.590   1.351  0.0894 -0.1381  0.0410
10666W        W85654  32.591   3.800   4.050 -0.3466  0.3338  0.0568
10667W        W85655  14.055  23.603  10.191  0.3439 -0.1460 -0.7085
10668W        W85656   9.892  21.207  21.915  0.0576 -0.3912 -0.1396
10669W        W85657   8.687  25.257  13.721 -0.1074  0.0902 -0.2596
10670W        W85658   0.677  34.165   7.652  0.6143 -0.2444  0.2940
10671W        W85659  14.357  24.696  12.687  0.0204  0.0597 -0.2093
10672W        W85660  15.498  10.252  19.607 -0.0778  0.0283 -0.0537
10673W        W85661  33.190  16.611  20.342  0.3825  0.0949 -0.1048
10674W        W85662  17.977  32.771   2.657 -0.1064  0.0358 -0.0954
10675W        W85663  34.039  32.077   2.776 -0.0577 -0.0459  0.0239
10676W        W85664  29.559  21.063  15.939  0.2288 -0.2220  0.1185
10677W        W85665  20.031   4.606   3.444 -0.0989 -0.2318  0.1447
10678W        W85666  23.635  15.663  22.995  0.3232  0.0087 -0.1619
10679W        W85667  34.407  11.320   8.373  0.2364 -0.1322  0.1501
10680W        W85668  20.065  33.455   3.420  0.0126 -0.1446  0.0678
10681W        W85669  15.133   8.681   5.261  0.0408 -0.2552  0.1832
10682W        W85670   6.610  27.684  13.771  0.0272  0.0299  0.0154
10683W        W85671   1.474   9.205  21.190 -0.0090  0.1482 -0.0117
10684W        W85672  24.728   4.379   4.674  0.1610 -0.1408  0.4079
10685W        W85673  24.991  11.751  22.957 -0.0287  0.5911  0.2197
10686W        W85674  24.155  32.056  20.584 -0.0226 -0.2115 -0.0989
10687W        W85675   9.592  27.800  16.452 -0.0173  0.2943  0.1262
10688W        W85676  24.997   1.842   0.561  0.1117 -0.2982 -0.3885
10689W        W85677  25.187   0.934  22.991  0.0819 -0.0053  0.2011
10690W        W85678  34.838  11.752  23.846  0.4489  0.3626  0.2818
10691W        W85679   9.962   7.502   1.659 -0.1372  0.1253 -0.1894
10692W        W85680  27.357  30.825   3.935  0.2360 -0.1335  0.4113
10693W        W85681  17.796  10.697   3.392 -0.1049  0.2057  0.2238
10694W        W85682  30.522   2.441   1.198  0.1091  0.2767  0.1454
10695W        W85683  16.973  16.572   6.910 -0.0283 -0.1947 -0.1207
10696W        W85684  10.647   6.549   7.737 -0.1286  0.1193 -0.0956
10697W        W85685  15.433  11.387   7.510  0.1800 -0.2010  0.1956
10698W        W85686  11.065  31.541  13.592 -0.2986  0.0927 -0.4472
10699W        W85687   0.926   5.015  21.202  0.1602 -0.1835 -0.3550
10700W        W85688  25.300  18.821  20.175  0.0475 -0.1640 -0.1600
10701W        W85689   6.120  17.640  22.149  0.0224 -0.1230  0.1872
10702W        W85690  22.960  11.226  24.456 -0.1867  0.1004 -0.0078
10703W        W85691  24.980  30.129  18.152 -0.2201 -0.1312 -0.1289
10704W        W85692  10.618  12.217  25.044  0.1553 -0.0667  0.0924
10705W        W85693  13.966   3.661   3.708  0.3235  0.0969 -0.4058
10706W        W85694  34.568  15.916  17.313 -0.0052  0.0020  0.2326
10707W        W85695  20.138  20.019  25.019 -0.2013  0.2548  0.0192
10708W        W85696  34.904  19.183  19.423 -0.0221  0.0233 -0.0396
10709W        W85697  33.545  21.249   9.940  0.3425 -0.0112 -0.0412
10710W        W85698   5.688  23.430  25.528 -0.1607 -0.1547  0.1886
10711W        W85699   6.581   8.951   3.966 -0.0397  0.1033 -0.1323
10712W        W85700  25.141  27.816  20.498 -0.3043 -0.1343 -0.3302
10713W        W85701  20.019  13.483   6.169  0.0029 -0.1614  0.2159
10714W        W85702   9.857  12.893  22.384 -0.2036  0.0701  0.0963
10715W        W85703  22.395  24.149   2.468 -0.0924  0.3572  0.3773
10716W        W85704  30.314  29.111  14.133  0.2695 -0.0990 -0.1999
10717W        W85705  22.331  12.404  15.722 -0.0991 -0.1286 -0.0836
10718W        W85706  17.249  14.426  18.785 -0.2495  0.2899 -0.0229
10719W        W85707   7.908   8.149   4.329 -0.0609  0.2145  0.1306
10720W        W85708  17.174  13.355   6.450  0.0414  0.0863  0.1024
10721W        W85709  10.485   3.284   8.481 -0.1720  0.4445  0.1188
10722W        W85710  12.046  15.155  10.996 -0.0874  0.1315  0.0449
10723W        W85711  30.243  24.417  21.535 -0.0938 -0.1182 -0.1763
10724W        W85712  19.288   5.123  17.632  0.5285  0.1728 -0.1467
10725W        W85713  18.580   3.219  21.185  0.1319 -0.3655  0.1711
10726W        W85714  16.425  14.618   0.725 -0.1916  0.0186  0.2273
10727W        W85715  10.313  15.497   9.827  0.2785  0.3555 -0.2130
10728W        W85716   4.281   2.164  10.502 -0.0048 -0.1433 -0.2986
10729W        W85717  30.940  32.519   3.580 -0.0882 -0.2248 -0.0886
10730W        W85718   0.824  11.578  14.930 -0.2117 -0.3426 -0.0053
10731W        W85719  30.809  12.141  14.006  0.0789  0.1910  0.0135
10732W        W85720  17.133   4.782   3.054 -0.0419 -0.4546  0.0471
10733W        W85721  14.433  22.582  22.911 -0.0983  0.1161  0.1327
10734W        W85722   6.682  23.574   1.780 -0.0711 -0.1960 -0.1866
10735W        W85723  32.284  34.898  23.450  0.1227 -0.0673  0.2142
10736W        W85724  31.005  28.255  13.211  0.0875 -0.3947  0.0870
10737W        W85725  17.597  34.158  17.796  0.3027 -0.5076 -0.1256
10738W        W85726  17.687  23.725   4.499  0.0561 -0.0632 -0.1511
10739W        W85727   2.031  30.969   2.708  0.1221 -0.1998  0.3506
10740W        W85728   0.759  32.565   2.124 -0.2374  0.1870 -0.2239
10741W        W85729   6.374  21.509   8.326 -0.0123 -0.1934 -0.1557
10742W        W85730   2.264   3.654  17.625 -0.0788 -0.2026 -0.0807
10743W        W85731  28.553  24.974  12.118 -0.4248  0.0349  0.0823
10744W        W85732  26.655  11.209   1.116  0.1965  0.1781  0.0223
10745W        W85733   3.194  18.082  23.771 -0.0248 -0.1900 -0.0454
10746W        W85734   4.270   5.991   2.764 -0.0927  0.1046  0.1495
10747W        W85735   4.472  27.956   0.131  0.2729  0.2063  0.0780
10748W        W85736  12.647  25.156   0.137 -0.0701 -0.0908 -0.1848
10749W        W85737   3.748  15.981  18.702  0.0711 -0.0548 -0.0732
10750W        W85738  11.510   6.301   6.719  0.1230 -0.0525  0.1996
10751W        W85739   2.141   9.902  17.867  0.1124 -0.0509  0.1707
10752W        W85740  23.541  31.925  22.955  0.2509 -0.2382  0.0191
10753W        W85741  21.052  30.134  15.301  0.1639  0.1288 -0.1153
10754W        W85742  14.489  18.636  23.833  0.0372  0.0334 -0.0185
10755W        W85743  26.469   5.970  21.951  0.1624  0.2200 -0.2232
10756W        W85744  33.373   8.359  23.004 -0.1412 -0.1023  0.1885
10757W        W85745  31.404  21.281  12.582 -0.1872  0.0119  0.3389
10758W        W85746  29.313  13.091   9.316  0.1752 -0.0217  0.4605
10759W        W85747  31.366  30.164  16.338 -0.1555 -0.2486  0.1345
10760W        W85748   2.108  14.209   0.302  0.2454 -0.2380 -0.1881
10761W        W85749  34.855  21.637  10.682  0.0029  0.0382  0.1375
10762W        W85750   0.727  34.819   0.248  0.1291 -0.1541 -0.2214
10763W        W85751  24.760  12.878  25.936 -0.0601  0.1330  0.0824
10764W        W85752  32.339  13.621  10.040 -0.1069  0.0448  0.0840
10765W        W85753   8.686  30.423   5.383 -0.1568 -0.3737 -0.1636
10766W        W85754   6.746  31.266   2.970  0.0288 -0.1843  0.1536
10767W        W85755   9.990  10.964   1.192  0.0947 -0.2381 -0.0610
10768W        W85756  23.962  15.501  19.352 -0.0414  0.1052 -0.1812
10769W        W85757   7.030  15.203  18.660  0.0343 -0.0003  0.0321
10770W        W85758  27.777  19.173   7.939  0.1064 -0.1285 -0.0674
10771W        W85759   6.577  18.874   8.371 -0.0284 -0.1710  0.2414
10772W        W85760   7.778   9.393   5.826 -0.1418 -0.0258  0.1019
10773W        W85761   3.685   9.217  21.486 -0.1379 -0.3993 -0.0806
10774W        W85762   5.580  13.330  22.646 -0.0756 -0.3041 -0.0649
10775W        W85763  16.602   0.425  23.655  0.0035  0.1368  0.0235
10776W        W85764  24.503  28.637  14.235  0.0998 -0.0425  0.0701
10777W        W85765  22.885  22.034  22.703  0.1471 -0.2893  0.4315
10778W        W85766   2.311  18.492   0.337 -0.0920 -0.4563  0.3319
10779W        W85767   0.961  29.934   0.660 -0.1930 -0.0671 -0.0688
10780W        W85768   9.624  24.743   1.701 -0.0844 -0.0734 -0.1289
10781W        W85769  27.799  14.788  19.189  0.1553  0.0765 -0.2139
10782W        W85770  15.632   5.715  10.169 -0.0353  0.2146 -0.0740
10783W        W85771  12.584  27.835   1.878  0.0960 -0.0498 -0.1074
10784W        W85772  24.779  28.244   0.532  0.3044  0.1421 -0.0954
10785W        W85773  25.354  32.035  25.307 -0.2203  0.2356  0.0046
10786W        W85774  16.777  20.800  12.858  0.1927  0.0894 -0.2169
10787W        W85775  13.675  32.132  11.421 -0.1805 -0.0075 -0.0479
10788W        W85776   9.331  11.344  25.813  0.0718 -0.0945  0.1060
10789W        W85777  26.767  10.269   1.127  0.0638 -0.3188  0.2887
10790W        W85778  21.288  26.638  19.764 -0.2183  0.2873  0.0906
10791W        W85779  11.696  16.947  23.012  0.0031 -0.0014 -0.0480
10792W        W85780  14.890   7.939   6.350 -0.0511  0.1313  0.0024
10793W        W85781  16.968   4.211  10.519  0.0843 -0.3765  0.2677
10794W        W85782  23.272  19.870  23.970 -0.2448 -0.0675 -0.1825
10795W        W85783   3.140   9.681  20.249 -0.4287  0.2913  0.0696
10796W        W85784  11.288  27.420   9.294 -0.2754 -0.2291 -0.0104
10797W        W85785  28.156  31.449   3.138  0.0281 -0.1228  0.0943
10798W        W85786  28.808  17.892  12.865  0.1353  0.3299  0.0369
10799W        W85787   4.102  33.802  12.697 -0.3025  0.0730 -0.2311
10800W        W85788  14.837  10.791   1.197  0.0349 -0.0841 -0.1143
10801W        W85789   9.322  28.925   6.399 -0.3397  0.1928 -0.4503
10802W        W85790   3.246  29.567  22.979  0.3803  0.1328  0.0499
10803W        W85791  13.024  27.554  15.245  0.0760 -0.0144  0.0482
10804W        W85792   7.720  14.851  22.044 -0.0368  0.0501  0.1688
10805W        W85793  13.438  20.419   1.443 -0.4660  0.0903  0.2095
10806W        W85794  26.079  10.643  19.158 -0.2532 -0.1790  0.0800
10807W        W85795  18.869  20.475  23.848  0.0067 -0.2295  0.1713
10808W        W85796   4.907  10.386  19.795  0.1618  0.0908 -0.0091
10809W        W85797  12.494  24.684   0.805  0.0659  0.0511  0.5183
10810W        W85798  32.737   8.891  25.688 -0.0657  0.0518  0.2153
10811W        W85799  16.986  34.411  23.923 -0.0596 -0.1092 -0.1513
10812W        W85800  28.723  21.540  18.479  0.2655  0.2025 -0.3189
10813W        W85801  32.355  19.190  11.698  0.1996  0.1389  0.5446
10814W        W85802  19.752  19.685  19.546 -0.1891 -0.1689  0.0791
10815W        W85803  32.287  32.606  19.891 -0.3029 -0.0639  0.3614
10816W        W85804  24.535  25.291  24.718  0.1115 -0.1621 -0.1507
10817W        W85805  25.984  31.870  21.417  0.0608  0.2113 -0.1133
10818W        W85806  25.556  24.035  21.506 -0.1464  0.0816 -0.5465
10819W        W85807  30.215  17.140  14.582 -0.1392  0.1279  0.0766
10820W        W85808  11.836  19.861   7.932 -0.0408 -0.2593  0.3336
10821W        W85809  32.973  12.277  25.195  0.1721 -0.0048  0.0993
10822W        W85810  30.981  20.788   6.532 -0.3161  0.0667 -0.1054
10823W        W85811  33.198  29.823  23.343  0.1271  0.0591 -0.2596
10824W        W85812  35.124   5.632   6.885 -0.1264  0.1992  0.1542
10825W        W85813  23.503  17.266  20.257  0.0039 -0.2873  0.0653
10826W        W85814  24.036  15.364  21.811 -0.3258 -0.0649  0.0269
10827W        W85815  20.723   3.262  23.036 -0.0636  0.1047  0.2620
10828W        W85816   0.203  16.655  21.478  0.0510  0.4044 -0.0271
10829W        W85817   0.164  16.318  15.507  0.0585 -0.2185  0.0419
10830W        W85818  19.521  20.328   1.905  0.0275 -0.1736  0.1402
10831W        W85819  27.509  13.982  15.428  0.0118  0.1171 -0.3553
10832W        W85820   5.633  15.051   4.626  0.0989  0.0068  0.1584
10833W        W85821  34.385  16.824  20.444 -0.3178  0.1176 -0.0995
10834W        W85822  16.588  11.921   8.479  0.1238  0.2920  0.0217
10835W        W85823  29.118  24.191   0.467  0.0167 -0.3742  0.0745
10836W        W85824  10.222  12.441   7.060 -0.0566 -0.3180 -0.3283
10837W        W85825  19.197  29.091   0.379 -0.0086 -0.4754 -0.0609
10838W        W85826  34.075   1.404  25.981 -0.0922 -0.0297 -0.2598
10839W        W85827  30.394  12.692  25.130  0.2562 -0.1276 -0.1600
10840W        W85828  10.913  31.542  10.428 -0.1464  0.0860 -0.0876
10841W        W85829  10.557   7.191  13.353  0.0678 -0.1976  0.0426
10842W        W85830   0.952  35.215  24.812  0.1971 -0.0237  0.2240
10843W        W85831  34.342  11.227  18.226  0.0935 -0.0084 -0.1545
10844W        W85832  22.101  29.168  14.281 -0.2511 -0.0240 -0.0601
10845W        W85833   9.717  30.781  21.920  0.2556 -0.1682  0.0769
10846W        W85834  27.269   5.696   1.780  0.1601 -0.2266 -0.1998
10847W        W85835   1.597  33.196   4.193  0.0575  0.3509 -0.0054
10848W        W85836  11.647   5.762   6.496 -0.3641 -0.0989  0.1798
10849W        W85837   9.133  24.215  24.239 -0.2214 -0.4405  0.0218
10850W        W85838  27.129  15.768   6.011 -0.0221  0.2207 -0.1197
10851W        W85839  21.405  30.302  17.394  0.0466  0.3551  0.1348
10852W        W85840  13.825  12.066  19.401  0.1876 -0.0454 -0.1533
10853W        W85841  10.430   5.942  24.919 -0.4268 -0.1379 -0.0043
10854W        W85842  16.850  18.598   6.602  0.2729 -0.2214 -0.1886
10855W        W85843  15.777   9.544   3.190 -0.2541  0.0829 -0.1964
10856W        W85844  33.149  35.146  23.142 -0.1495  0.4382 -0.2046
10857W        W85845  30.991  14.475  19.019  0.3447  0.3275 -0.1744
10858W        W85846   1.291  19.216  19.207 -0.0887 -0.1476 -0.2668
10859W        W85847  19.808  28.643  17.479  0.0293 -0.3979  0.0591
10860W        W85848   2.954  14.597  21.640  0.2786 -0.1564  0.0850
10861W        W85849   6.771  31.150   4.923  0.0004  0.1132 -0.2273
10862W        W85850  33.554   1.394  14.467  0.0344  0.0104  0.0887
10863W        W85851  14.378  15.009  23.337  0.0524 -0.1423  0.1968
10864W        W85852   5.386  27.203   2.410  0.1286  0.0949 -0.1600
10865W        W85853  15.411  10.944  25.121  0.2743 -0.1272  0.0782
10866W        W85854   7.109  21.545  22.950  0.0532 -0.0570  0.0496
10867W        W85855   5.724   9.360  19.906  0.0121 -0.1279 -0.1755
10868W        W85856   1.337  26.071  18.889 -0.1864  0.0188 -0.1971
10869W        W85857   9.130  31.859   0.642  0.3799  0.1704  0.0188
10870W        W85858  11.766   5.440  18.730 -0.0580 -0.1003  0.1296
10871W        W85859  23.317  31.472   5.425  0.1569 -0.1421 -0.2023
10872W        W85860  12.947  20.646  15.524  0.0262 -0.1937  0.1670
10873W        W85861  12.912  13.821  13.076 -0.0915 -0.0139 -0.1439
10874W        W85862  26.040  25.790  25.189 -0.0784 -0.1311 -0.2037
10875W        W85863  14.061  29.071  23.925  0.3853 -0.0746  0.0144
10876W        W85864  12.942  13.786   7.841 -0.0416 -0.5564 -0.0540
10877W        W85865  33.723  24.689   9.771  0.0644 -0.2182 -0.0269
10878W        W85866   2.229  17.156  24.346  0.2238  0.1134  0.1298
10879W        W85867  31.411   1.161  14.061  0.0283 -0.1121 -0.1366
10880W        W85868   1.152  31.188   8.225 -0.0787 -0.0137 -0.0676
10881W        W85869  19.007  18.820  24.333 -0.0725 -0.1251  0.4588
10882W        W85870  28.106  16.364  12.452 -0.1816 -0.2640  0.4404
10883W        W85871  26.913  11.175  19.201 -0.3135  0.0872  0.1403
10884W        W85872  10.198   7.066   7.923  0.0804  0.4844 -0.1118
10885W        W85873   8.978   5.307  21.560 -0.0561  0.1307 -0.1759
10886W        W85874  24.938  21.280  16.287  0.1455 -0.0925  0.1399
10887W        W85875  11.656  27.366  18.013  0.0002  0.2090 -0.2203
10888W        W85876  28.064  19.409  13.715  0.1772 -0.0584 -0.0359
10889W        W85877  10.017   1.335  13.875  0.2096 -0.0883  0.1074
10890W        W85878  33.032   8.716   0.855  0.1368  0.3385  0.0474
10891W        W85879   7.389   6.344  13.315  0.1911  0.0456  0.0301
10892W        W85880  11.305  16.097  13.825  0.0808  0.2012  0.2712
10893W        W85881   6.537  23.891   0.423 -0.2357 -0.2558 -0.1540
10894W        W85882  32.331  19.275  12.810 -0.2501  0.0391 -0.0386
10895W        W85883  12.622  23.430   6.830 -0.1526 -0.2137  0.0455
10896W        W85884   9.859   8.153  22.090 -0.1994  0.0793 -0.2272
10897W        W85885  11.794   8.985  24.326 -0.2047  0.2560  0.3942
10898W        W85886   1.960  35.232   1.965 -0.2422 -0.2896  0.1292
10899W        W85887  12.150  31.400  10.492 -0.1879  0.1023  0.0986
10900W        W85888  27.151  15.133  24.275  0.0358 -0.0371  0.1563
10901W        W85889  21.670   8.651   1.374 -0.0137  0.1964 -0.1628
10902W        W85890  19.402  22.067  22.373  0.1325  0.0356  0.0052
10903W        W85891  19.425  34.678   1.467  0.1229  0.1195  0.0815
10904W        W85892   6.743  34.118  21.716 -0.1275 -0.0199  0.2658
10905W        W85893  26.866   7.768  11.431  0.4648 -0.1140  0.3086
10906W        W85894  29.834   9.410  25.319 -0.0038 -0.3930  0.2465
10907W        W85895   1.715  22.784   1.009 -0.0011  0.0997  0.2047
10908W        W85896  20.425  10.445   1.126  0.1162  0.0912 -0.1171
10909W        W85897   2.839  29.282  23.871  0.1157 -0.0944  0.3197
10910W        W85898  21.757   8.348   6.475  0.3539 -0.2728 -0.2944
10911W        W85899   0.321   7.495  11.666 -0.0004 -0.2357  0.1069
10912W        W85900  11.466  20.015  23.530 -0.0505 -0.0072  0.1632
10913W        W85901  15.153  35.191   5.487 -0.1971 -0.0619 -0.1860
10914W        W85902  14.103  10.765  26.153 -0.0652 -0.2142  0.0962
10915W        W85903   7.727  26.581  25.971 -0.3323 -0.0181  0.0754
10916W        W85904  26.183   2.305   3.891  0.0426  0.0155 -0.0309
10917W        W85905  17.525  33.408   8.763  0.1504 -0.4228 -0.0370
10918W        W85906  14.714  31.820   8.302  0.3473 -0.2051  0.0789
10919W        W85907  34.036  25.200  21.296  0.3438  0.0033  0.2022
10920W        W85908  19.213  12.202  11.441 -0.1318  0.1616  0.1136
10921W        W85909   0.176   8.940  12.984 -0.0649  0.0818 -0.2093
10922W        W85910  13.059   8.949   4.904 -0.0653 -0.1191 -0.0179
10923W        W85911  17.881   9.795   3.798 -0.0186 -0.2142 -0.0704
10924W        W85912   1.557   7.820  24.010 -0.0114  0.1124 -0.2020
10925W        W85913  24.612  10.629  22.573  0.1871  0.1781 -0.0280
10926W        W85914  10.831  15.346  24.762 -0.4034  0.2491  0.0368
10927W        W85915  33.246   2.386  17.843 -0.0559 -0.1168 -0.2806
10928W        W85916  18.996   0.897   5.076 -0.0309 -0.1121  0.0983
10929W        W85917  35.293  28.201   5.394  0.2563  0.0853  0.1422
10930W        W85918  21.706   7.233   1.915  0.0953 -0.0284  0.1068
10931W        W85919  16.790  17.177  24.539  0.1897  0.0413  0.1404
10932W        W85920   7.663   5.653   8.623  0.1334 -0.3714  0.2356
10933W        W85921  14.344   4.112   1.878  0.2491 -0.2318 -0.1820
10934W        W85922   2.310  33.831  17.741  0.1878  0.1977 -0.0094
10935W        W85923  24.629  34.126  20.749  0.1165 -0.0693  0.2623
10936W        W85924  32.335  21.692  15.196 -0.2638  0.0428  0.0717
10937W        W85925   2.411   7.573   4.006  0.0971 -0.2072 -0.1950
10938W        W85926   3.769  17.940   3.219 -0.1098  0.1173  0.1417
10939W        W85927  18.983   4.994  11.770 -0.0209 -0.1729 -0.0025
10940W        W85928   3.638   4.021  16.603  0.2267 -0.0772 -0.0280
10941W        W85929   7.124  15.905  17.739 -0.1740  0.0393  0.0578
10942W        W85930   9.692  18.709   3.118 -0.2144  0.0351  0.0204
10943W        W85931  16.480  13.882   1.301 -0.0929 -0.0123  0.1365
10944W        W85932  17.536  12.586  20.759  0.0328 -0.3647 -0.0721
10945W        W85933  16.095   9.965   2.628  0.0832 -0.4385  0.1678
10946W        W85934  13.997  11.321   7.493  0.1095 -0.0204 -0.2243
10947W        W85935  35.011   1.632  20.311  0.0343  0.2541  0.3083
10948W        W85936  21.595   4.820  15.930 -0.0909 -0.0214 -0.0243
10949W        W85937  26.805  16.452  23.686  0.1670  0.4750 -0.0456
10950W        W85938  13.356  16.209   1.443 -0.2926  0.1234 -0.0990
10951W        W85939  14.055   5.241  10.491  0.0422  0.2488  0.2142
10952W        W85940  23.396   7.540  22.641  0.2958  0.2649  0.2252
10953W        W85941  15.447  18.708   9.488  0.1064  0.0730 -0.1215
10954W        W85942  18.605  26.005  22.494  0.0617 -0.0110  0.0385
10955W        W85943  17.588  20.024  23.993 -0.0566  0.0434  0.0497
10956W        W85944   9.924   6.369  14.620 -0.4080 -0.1225  0.0305
10957W        W85945   4.873   0.729  11.848 -0.2654  0.1578  0.3230
10958W        W85946  31.069   8.717   1.524 -0.2391 -0.3054 -0.1915
10959W        W85947  15.926  18.570   9.839  0.2299 -0.0389 -0.2083
10960W        W85948   6.553   2.736   0.316  0.0348  0.0785  0.0805
10961W        W85949  24.404  31.798   5.718 -0.2310 -0.2752  0.0246
10962W        W85950  13.038  28.232   0.107 -0.0681  0.0517 -0.0370
10963W        W85951  10.336   8.111   5.521 -0.2245  0.0523 -0.0759
10964W        W85952   6.024   8.358   8.571  0.1622 -0.1175  0.2203
10965W        W85953  24.905  15.996  17.708  0.0107 -0.1709 -0.0139
10966W        W85954   9.118  10.875  13.887 -0.2372 -0.0633 -0.2420
10967W        W85955   2.717  30.329   3.053  0.1906  0.0771  0.3217
10968W        W85956  22.852   4.371  15.878  0.1795 -0.1821 -0.0305
10969W        W85957  14.315  32.267   9.332 -0.0855 -0.2119  0.0462
10970W        W85958  32.823  11.287   7.995  0.2730 -0.1986  0.1958
10971W        W85959  34.654  15.056  25.021 -0.1258 -0.1701  0.0724
10972W        W85960  31.582  12.545  17.107  0.0535 -0.0035  0.1223
10973W        W85961   1.134   3.054   4.714 -0.1951  0.1087  0.1600
10974W        W85962  17.042  17.133   4.711  0.0044 -0.0087  0.0597
10975W        W85963  22.048  16.744  14.523 -0.2273 -0.1490 -0.4683
10976W        W85964   1.016  10.374  24.929  0.0831 -0.0780  0.4721
10977W        W85965  35.027  29.674   2.406 -0.0110  0.1395  0.1186
10978W        W85966   5.763  19.658   3.839  0.1032  0.0917  0.2897
10979W        W85967  30.166  33.211  14.487 -0.2857 -0.2155  0.1081
10980W        W85968  13.580  23.568  14.191  0.1700  0.0242  0.2986
10981W        W85969  24.711   5.070   3.874 -0.0500 -0.2933 -0.2262
10982W        W85970   1.688   6.099  13.699 -0.2793 -0.1625 -0.0948
10983W        W85971  12.914  16.553  23.335  0.2887 -0.2697  0.0544
10984W        W85972  25.984   7.329  11.506 -0.2634  0.1741 -0.1620
10985W        W85973  25.342  31.240  14.156 -0.0240  0.0381  0.2784
10986W        W85974  28.168   9.798  10.533 -0.0172 -0.2453  0.1455
10987W        W85975  12.158   8.550   1.277  0.3636  0.0599 -0.1646
10988W        W85976  13.977  20.859  25.710  0.1963 -0.0466 -0.1702
10989W        W85977  31.745   4.233  17.222 -0.1808  0.0560  0.1630
10990W        W85978  31.758  13.304   6.414 -0.0688 -0.3047  0.1304
10991W        W85979   6.286  23.549  24.782  0.0899  0.4111 -0.3891
10992W        W85980  32.412  10.768  24.450 -0.6639 -0.1004 -0.1846
10993W        W85981  24.939  17.491  23.949 -0.2068 -0.1032 -0.0503
10994W        W85982   5.384  31.621   0.899  0.0213 -0.0780  0.1745
10995W        W85983  21.091   5.579   0.234 -0.0102  0.0775  0.0750
10996W        W85984  13.154  29.649   9.276 -0.2805  0.1813 -0.2584
10997W        W85985  32.386  23.488  11.534 -0.2357  0.0184  0.0608
10998W        W85986  20.142  18.209  25.581  0.0921 -0.0741  0.0990
10999W        W85987  30.009  25.303  23.689  0.1474 -0.0756 -0.0044
11000W        W85988   1.257  33.592   0.540  0.1104 -0.4001  0.1185
11001W        W85989  14.652   6.607   3.201 -0.3524  0.3205  0.6966
11002W        W85990  32.990   6.211  15.950  0.0316  0.4706  0.2274
11003W        W85991   5.559  31.961   2.714  0.1872 -0.1018 -0.0939
11004W        W85992  23.965  15.095  15.208 -0.0734  0.1938 -0.2029
11005W        W85993   8.909  12.394   2.736 -0.1161  0.2671  0.3076
11006W        W85994   2.500  35.172  22.163 -0.0767 -0.0557 -0.2006
11007W        W85995  30.127   9.037  13.775 -0.2146  0.1127 -0.2596
11008W        W85996   6.567  35.199  25.945  0.0128 -0.1598  0.1518
11009W        W85997  13.480  11.282  12.824 -0.1694  0.4266 -0.2976
11010W        W85998   5.410  21.465  24.000  0.1412  0.0645 -0.1090
11011W        W85999   8.543  13.265   0.716 -0.0968  0.2174  0.3963
11012W        W86000  13.655  30.807  14.215 -0.2171 -0.0477 -0.0242
11013W        W86001  35.321  30.489  17.496 -0.0537  0.2781 -0.2326
11014W        W86002  27.734  28.226  24.819  0.2154 -0.0933  0.1553
11015W        W86003   9.238  14.192   2.102 -0.2305  0.4320 -0.3949
11016W        W86004   9.615  26.253  16.534 -0.2619  0.3260  0.3721
11017W        W86005  34.917  30.907  20.736  0.0857 -0.0902  0.0665
11018W        W86006   8.834  22.422   5.869 -0.1856  0.2095 -0.1524
11019W        W86007   2.833  13.259  17.981 -0.2005 -0.1169 -0.1579
11020W        W86008  20.877   8.428   0.975 -0.2226  0.2158  0.5496
11021W        W86009   6.382  13.670  21.676 -0.1011  0.1387 -0.1513
11022W        W86010  21.331  35.123   6.881  0.0642 -0.0254  0.0068
11023W        W86011  22.820  17.925  20.813 -0.2101 -0.2496  0.1220
11024W        W86012   9.488  19.385   5.991  0.0934  0.0161 -0.0208
11025W        W86013  15.414  24.277   2.595 -0.0781  0.2371  0.2566
11026W        W86014  10.595  22.163  11.628 -0.1301  0.0168 -0.0528
11027W        W86015  26.140   3.931  17.339 -0.1919 -0.2525 -0.0048
11028W        W86016   7.640  22.421   8.013  0.2439 -0.1732  0.1144
11029W        W86017  21.789   6.640  17.307  0.0582  0.3396 -0.0222
11030W        W86018  19.592   7.094  21.238 -0.1138  0.1019 -0.1200
11031W        W86019   1.111  31.099  16.143 -0.2664 -0.0330 -0.0021
11032W        W86020  29.130  17.706  16.253  0.1767  0.0551 -0.1918
11033W        W86021  31.511  34.678   5.992 -0.0147  0.1450  0.0333
11034W        W86022  21.415   3.113  16.137  0.1158 -0.0193 -0.0344
11035W        W86023  23.618  13.416   2.721 -0.1797 -0.0211  0.1406
11036W        W86024   7.942  27.375   4.477 -0.0017 -0.0460 -0.1164
11037W        W86025  28.071  34.857   0.418  0.1567 -0.0168 -0.0451
11038W        W86026  12.980  10.422   3.679  0.0207  0.1069  0.0171
11039W        W86027  27.265  20.341  21.207 -0.2957  0.2375 -0.3696
11040W        W86028  29.750  33.461  23.713  0.2258  0.4002 -0.1091
11041W        W86029  24.661  27.007  22.000  0.1187 -0.0743  0.4314
11042W        W86030  30.166  27.021  18.936  0.0578 -0.1080 -0.1212
11043W        W86031  18.340  32.618   5.757  0.1116 -0.2344 -0.2143
11044W        W86032  35.182  32.117  23.301 -0.1580 -0.0479  0.3918
11045W        W86033  11.032  20.477  10.362  0.2850 -0.1650 -0.0825
11046W        W86034  22.275  14.265   0.887 -0.1104  0.4276  0.2806
11047W        W86035  29.353  34.469  22.634 -0.3634  0.1809  0.0616
11048W        W86036  18.902   5.959  20.417 -0.1881 -0.0138  0.2277
11049W        W86037  32.776  21.352  22.846  0.0673 -0.1446 -0.3378
11050W        W86038  13.649  30.611  24.658  0.1366 -0.0233  0.0765
11051W        W86039  22.269  20.564   0.628 -0.0312  0.0621 -0.4052
11052W        W86040  17.947   1.799  24.643  0.1700  0.0120 -0.3760
11053W        W86041  10.542  11.076   7.818 -0.4008  0.1512 -0.0999
11054W        W86042  25.058  19.672  20.933 -0.0014  0.1361 -0.1045
11055W        W86043  12.603  16.600   4.073 -0.1748 -0.1357  0.1547
11056W        W86044  25.283   4.989   5.195 -0.1878  0.3098 -0.1986
11057W        W86045  28.626  28.841  15.662 -0.0396 -0.0459 -0.0769
11058W        W86046  12.711  21.331   0.837 -0.0881  0.0951 -0.1986
11059W        W86047  15.699   3.800   2.408  0.1383  0.2274 -0.2942
11060W        W86048  27.768  22.923  16.526  0.1617 -0.1712  0.0612
11061W        W86049  10.905  16.788  11.120 -0.3156  0.1905 -0.1498
11062W        W86050  35.219   2.817   7.303  0.0632 -0.0193  0.1207
11063W        W86051  27.460   2.979   2.899  0.0659 -0.2286  0.0191
11064W        W86052  25.019  27.446  12.272  0.2006 -0.1093 -0.0365
11065W        W86053  14.446   9.496  25.222 -0.1150 -0.1626 -0.2919
11066W        W86054  31.247  30.805  22.212  0.0632  0.0083 -0.2063
11067W        W86055  11.314  33.526   4.849 -0.0461 -0.2004 -0.0775
11068W        W86056   9.418  15.971   1.678  0.1594 -0.0910  0.0640
11069W        W86057  20.598   8.620   4.999 -0.0457  0.0986 -0.3694
11070W        W86058   1.217   9.170  16.639  0.1790 -0.0975  0.0427
11071W        W86059  11.476  29.294   7.159 -0.0059  0.3237 -0.1520
11072W        W86060   3.936   1.882   6.679 -0.0996 -0.1595  0.1597
11073W        W86061  28.036   3.445  21.199 -0.0657 -0.0208  0.0973
11074W        W86062   0.191  33.003  18.569 -0.2675 -0.0628 -0.3092
11075W        W86063   7.091  25.059   1.408 -0.0046  0.1288 -0.0021
11076W        W86064   6.224  20.977   0.284  0.1477 -0.1047  0.1530
11077W        W86065  23.489  33.093  17.318 -0.1172 -0.0457 -0.2908
11078W        W86066  28.768  25.025  21.971  0.1220 -0.0814 -0.0435
11079W        W86067  21.680  22.156  24.415 -0.2344  0.2671 -0.0384
11080W        W86068  18.577  34.626   7.685 -0.2122  0.0049 -0.1176
11081W        W86069  10.303  21.602   8.261  0.1996  0.2098  0.2005
11082W        W86070  19.543  33.593   5.391 -0.3192 -0.1472  0.0964
11083W        W86071   7.544  27.202   9.594 -0.0599  0.1848 -0.0707
11084W        W86072   0.562  21.921  22.262 -0.1920 -0.2935 -0.3007
11085W        W86073  25.440  23.545  10.551 -0.0567  0.0656 -0.0378
11086W        W86074   8.897  33.475  26.201 -0.2757 -0.4317  0.1527
11087W        W86075  26.322  21.497   9.538 -0.2248 -0.1697  0.2155
11088W        W86076  25.426   3.902   5.126 -0.0276 -0.0713 -0.0556
11089W        W86077  24.549  16.290  20.393  0.0441 -0.1970 -0.2161
11090W        W86078  15.372   1.869  21.715  0.1707 -0.1070 -0.3867
11091W        W86079  28.561   8.678  18.400 -0.1598  0.1869 -0.1720
11092W        W86080   9.744   5.834  11.267 -0.1300  0.1496  0.0642
11093W        W86081  32.344   9.528  10.967 -0.0661  0.2786  0.0715
11094W        W86082   8.435  20.128   7.050  0.0337 -0.0158  0.1472
11095W        W86083  23.307  15.121  24.577  0.2021 -0.0856  0.1854
11096W        W86084  11.058  32.007  10.471 -0.1743 -0.1075 -0.0581
11097W        W86085  15.958  32.628  21.737  0.3368 -0.0343 -0.2342
11098W        W86086   9.793  20.955   7.245  0.0807  0.2514 -0.0496
11099W        W86087  15.268  23.255  16.817  0.0558 -0.0543  0.2386
11100W        W86088  28.520  22.850  14.795  0.2276  0.0757  0.0064
11101W        W86089  15.739   9.128  25.683  0.1000  0.1239  0.1976
11102W        W86090  11.123  31.603   7.614  0.2263 -0.4324 -0.0031
11103W        W86091  14.152  33.129   7.465  0.0217  0.1197  0.2244
11104W        W86092  30.103   4.675  15.658 -0.1044  0.1110 -0.0718
11105W        W86093  29.752  34.350  17.299 -0.3006  0.0622 -0.4693
11106W        W86094  32.194   9.134  26.238 -0.0587 -0.0658 -0.1705
11107W        W86095  27.502  10.327  16.773  0.0434 -0.2099 -0.2013
11108W        W86096  18.324  27.430   5.672  0.1768 -0.2259  0.1383
11109W        W86097  13.136  31.252   9.470 -0.1714  0.0260 -0.0007
11110W        W86098  31.310  13.594  15.058 -0.0655 -0.2724 -0.1949
11111W        W86099  34.460  27.245   1.979 -0.1948 -0.3806  0.3337
11112W        W86100  15.064  13.127  10.074  0.1306 -0.0095  0.1100
11113W        W86101  10.518  28.092   6.918  0.2209  0.1546  0.0578
11114W        W86102   7.932  19.261   8.136 -0.3328 -0.0495 -0.3080
11115W        W86103  20.789   8.784  21.953  0.1043  0.2310 -0.1674
11116W        W86104  19.071  11.039  25.431 -0.1018 -0.1443  0.1715
11117W        W86105  11.559  14.531  25.346 -0.0611 -0.1294 -0.1519
11118W        W86106  34.064  10.098  25.708 -0.0529  0.3857 -0.6254
11119W        W86107   5.950  28.268  24.976  0.2047 -0.2332  0.0137
11120W        W86108   4.017  27.409   0.071  0.2257  0.0055 -0.0950
11121W        W86109  18.765   3.919   4.650  0.1661  0.3995  0.0168
11122W        W86110  15.070  30.770   6.613 -0.1052  0.0123  0.0145
11123W        W86111   9.283   4.832   5.435 -0.1422 -0.1060  0.1489
11124W        W86112  20.972  17.228  21.579  0.1829 -0.0145  0.0874
11125W        W86113  22.131   8.600   3.344 -0.4025  0.3118 -0.0108
11126W        W86114  34.326   2.212   4.224 -0.2453 -0.1636 -0.0174
11127W        W86115  21.315   2.952  22.575 -0.1365  0.3551  0.2921
11128W        W86116  25.580  15.530  15.574  0.1158  0.1465  0.1746
11129W        W86117  34.076  26.329  25.240  0.1895  0.0678 -0.0944
11130W        W86118  13.658   5.837   2.207 -0.1940 -0.0673  0.0073
11131W        W86119  28.006  34.098  17.737  0.1473 -0.1698  0.1999
11132W        W86120   8.717  18.597  13.380 -0.1723 -0.2973 -0.1838
11133W        W86121   0.230   7.341  21.960  0.1731 -0.1238  0.2082
11134W        W86122  11.571  20.592   4.909 -0.0227  0.2454  0.0985
11135W        W86123  26.132  28.184  18.953 -0.0788 -0.0523  0.0217
11136W        W86124  25.232   0.719  13.715  0.1192 -0.0301  0.0956
11137W        W86125  11.279   8.767   6.273 -0.2250  0.2729 -0.1654
11138W        W86126   2.376  31.323   6.249 -0.1926 -0.3596  0.1028
11139W        W86127  20.326  15.075   0.174  0.0176  0.1281  0.0517
11140W        W86128  24.434   8.888  24.042 -0.3631 -0.1080  0.3553
11141W        W86129   7.963  32.951  25.100  0.1382  0.0961 -0.1225
11142W        W86130  23.692   6.429  18.133 -0.3027 -0.0902  0.0207
11143W        W86131  18.231  10.953  24.695 -0.1092 -0.0113  0.0917
11144W        W86132   9.860  24.334  15.361  0.1723  0.0495  0.2272
11145W        W86133   9.783  25.752   7.628 -0.1325 -0.1504 -0.1431
11146W        W86134  19.831  21.675  18.061 -0.1076  0.1516 -0.0835
11147W        W86135  27.443  26.215  10.969 -0.0057 -0.1673  0.0179
11148W        W86136  13.151  11.689  12.993  0.1039 -0.2347  0.1697
11149W        W86137  34.593  29.182   5.343  0.0265  0.1962 -0.3148
11150W        W86138   6.364  23.945  20.636 -0.1403 -0.1924 -0.1549
11151W        W86139  33.926   7.003  15.785  0.1433 -0.0935 -0.1633
11152W        W86140  10.775   0.020  12.672 -0.0953  0.0030 -0.1499
11153W        W86141  34.320   0.271   1.223  0.1192  0.1765  0.2408
11154W        W86142  19.904  19.167  18.991  0.1575  0.0729 -0.0674
11155W        W86143  22.140  15.196  18.680 -0.0400  0.0346 -0.0087
11156W        W86144  18.206  19.064   6.937  0.2792  0.0114  0.2287
11157W        W86145   5.688  11.124  19.141  0.1629  0.0725  0.0810
11158W        W86146  20.925  17.390  25.443  0.0038  0.4904 -0.1931
11159W        W86147  18.160  23.148  25.159  0.0452 -0.0376 -0.3690
11160W        W86148   2.100  20.058  14.585  0.0603  0.1106  0.0700
11161W        W86149   7.595  19.145   6.949 -0.0931  0.2350  0.2811
11162W        W86150  20.607  24.202   2.256  0.2340  0.2399 -0.4235
11163W        W86151  21.818  15.138  20.854 -0.2271 -0.2747  0.2831
11164W        W86152   7.239  12.803  11.220 -0.1191  0.0351 -0.2124
11165W        W86153  32.305  27.337  24.526  0.0581  0.3141 -0.3623
11166W        W86154  19.751   0.112   7.249 -0.1981 -0.2135  0.0489
11167W        W86155   9.941  31.522  24.640 -0.0321  0.3449  0.3143
11168W        W86156  18.656   3.001   6.490 -0.1219 -0.1662 -0.0996
11169W        W86157  32.578  17.906  23.530 -0.2546 -0.0841  0.1836
11170W        W86158   9.955  29.871  11.033 -0.3691 -0.2340 -0.2433
11171W        W86159   7.293   1.607   8.635 -0.0320 -0.1439  0.1674
11172W        W86160  24.396  32.357  23.854 -0.2268 -0.1333  0.0261
11173W        W86161  34.516  21.544  11.231 -0.1330 -0.0843  0.2821
11174W        W86162   9.096  13.138  25.717  0.2475 -0.2191 -0.1088
11175W        W86163  18.970  25.904  22.101 -0.0771  0.0521 -0.2498
11176W        W86164  32.279  11.250  20.613 -0.3245 -0.3160 -0.4600
11177W        W86165   0.035   5.392  25.250 -0.1395  0.3053 -0.2197
11178W        W86166  12.090  17.564  19.347  0.1615 -0.2313 -0.1626
11179W        W86167  23.474  25.995  24.694 -0.1291  0.2649 -0.0209
11180W        W86168  27.108  31.033  19.819 -0.1204  0.2685  0.3388
11181W        W86169   3.634   5.479   4.540 -0.1154 -0.2534  0.0427
11182W        W86170  31.746  22.142  18.500 -0.0044 -0.0112 -0.1117
11183W        W86171   9.407   3.876  10.443 -0.3293 -0.0236 -0.0360
11184W        W86172   4.556  21.239  16.714 -0.2489  0.3691  0.0934
11185W        W86173  13.052   9.668  24.004  0.2575 -0.0378  0.0181
11186W        W86174   6.999  13.878  10.440  0.1824  0.0828 -0.1118
11187W        W86175   8.816  13.155  11.255  0.2133 -0.1638 -0.3417
11188W        W86176  23.394  29.979  20.053  0.1227  0.0970 -0.0644
11189W        W86177  11.379  19.741  25.491 -0.0635 -0.1327  0.0595
11190W        W86178  19.381  32.610  22.574 -0.1128 -0.2671 -0.5103
11191W        W86179  33.479  14.837  18.442  0.3509 -0.0352 -0.0671
11192W        W86180  11.604   0.899   9.419  0.0267 -0.2990 -0.0412
11193W        W86181   3.432   8.058   7.699 -0.2111  0.2925  0.3730
11194W        W86182   7.563  26.502   3.351 -0.0427  0.0179  0.0639
11195W        W86183   2.531  31.443  22.266  0.0696  0.1632 -0.0732
11196W        W86184  16.072   9.388  11.318  0.1531 -0.1218  0.0704
11197W        W86185  17.393  22.006  13.175  0.0312 -0.1249  0.3621
11198W        W86186   6.039   0.360   6.488  0.0947 -0.4202 -0.1592
11199W        W86187   2.280  28.781   1.141 -0.0452 -0.1798 -0.0891
11200W        W86188  28.220  34.860  15.568 -0.1396  0.1103  0.2793
11201W        W86189  13.593  17.920  23.952  0.2360 -0.3626  0.0168
11202W        W86190  27.060  23.588  19.728  0.2032 -0.0726 -0.3080
11203W        W86191  12.432   8.193  22.852 -0.1085  0.0144 -0.2134
11204W        W86192   3.536   6.626  23.803  0.0029 -0.1247 -0.1178
11205W        W86193   7.290  26.888   6.160  0.2299 -0.2660 -0.0381
11206W        W86194  26.966  27.026  17.829  0.3048  0.3420  0.2843
11207W        W86195  14.716  28.276   9.402 -0.2906 -0.2833  0.0767
11208W        W86196  29.462   9.454  10.286 -0.1107  0.0127 -0.2604
11209W        W86197  13.650  30.253  20.862  0.0604 -0.1543  0.2915
11210W        W86198   1.485   4.415  15.732 -0.2976 -0.2190 -0.0805
11211W        W86199   6.646  31.686   8.466  0.1222 -0.0024 -0.0646
11212W        W86200  12.557   1.012   1.939 -0.3831 -0.2424 -0.1306
11213W        W86201  21.502   6.807   2.738 -0.2344 -0.2276 -0.3076
11214W        W86202  19.724  18.051  18.268 -0.2423  0.0637  0.1266
11215W        W86203  27.303  28.138   2.026 -0.0143  0.1263 -0.0256
11216W        W86204  20.627  22.506  19.712 -0.2471  0.3474 -0.3901
11217W        W86205  27.043   1.750   1.632 -0.1643 -0.0441  0.0703
11218W        W86206  16.525  29.194   6.921  0.1660  0.0968  0.2572
11219W        W86207  19.460  25.667  18.397  0.0985 -0.0031  0.1310
11220W        W86208  21.654  14.052   2.008 -0.2042 -0.0450  0.2674
11221W        W86209  17.968   8.543   1.312 -0.1255  0.0543 -0.1716
11222W        W86210  14.127  19.789  13.253 -0.0621 -0.0914  0.2549
11223W        W86211  12.282  10.061  24.040  0.1272 -0.0642 -0.1271
11224W        W86212   4.876  28.617  13.457 -0.0333 -0.0620  0.3420
11225W        W86213  15.844   6.464   0.359  0.0037 -0.3097 -0.1019
11226W        W86214  21.395  27.694  21.905 -0.0708 -0.2218 -0.1864
11227W        W86215  17.398  16.001   5.215  0.3635 -0.0902  0.0656
11228W        W86216  18.350  18.243   6.188 -0.0198 -0.2155  0.1369
11229W        W86217  16.473   3.083   2.517  0.0226 -0.0879 -0.1896
11230W        W86218  29.557  31.859  13.468 -0.0093  0.1419 -0.2121
11231W        W86219  13.949  28.828  13.456  0.3063 -0.0372  0.0876
11232W        W86220   7.517  24.680   5.124 -0.1098 -0.2540  0.3463
11233W        W86221  14.015  34.644  21.503  0.1576  0.2304  0.0568
11234W        W86222  12.086  20.716   6.209  0.0506  0.0822  0.3184
11235W        W86223  25.134  21.891  13.243  0.0234 -0.2369 -0.0376
11236W        W86224  15.737  22.057  23.976  0.0768  0.1096 -0.0984
11237W        W86225   9.947  17.393  22.330 -0.2884  0.1932  0.2072
11238W        W86226  26.410   8.781  18.973  0.1112 -0.0202  0.3799
11239W        W86227  30.311  10.081  24.325  0.0793  0.2237  0.1598
11240W        W86228   4.566  25.217  22.251 -0.0340 -0.1831  0.0099
11241W        W86229  33.093  11.362  17.978  0.0172 -0.2224 -0.1025
11242W        W86230  10.074   3.613   2.992 -0.2483 -0.3113  0.3835
11243W        W86231  29.782  12.007  13.817 -0.2108 -0.2001 -0.1903
11244W        W86232   0.836   5.947  21.023 -0.0226 -0.1414 -0.1078
11245W        W86233  31.424   8.516  19.237  0.1356 -0.0162  0.1762
11246W        W86234   7.098  17.693   5.885 -0.0781  0.0865  0.0717
11247W        W86235   4.165  21.361   1.755 -0.1809 -0.1227  0.2465
11248W        W86236  11.020  14.504  24.576  0.2012  0.2265  0.1115
11249W        W86237  33.306   2.848  23.516  0.1725 -0.1270 -0.0785
11250W        W86238  33.853   2.478  15.742  0.1620 -0.1733  0.1458
11251W        W86239  27.517  27.900   2.902  0.0348 -0.2526 -0.2654
11252W        W86240  24.942  27.398  13.388 -0.0265 -0.0246 -0.0158
11253W        W86241  17.289   3.850   6.697  0.0339  0.0607 -0.2273
11254W        W86242  16.324   3.431  19.505  0.1195  0.1274  0.2023
11255W        W86243  23.703  11.204  19.029  0.0526 -0.1228 -0.0030
11256W        W86244   8.146  28.395  10.132 -0.0884  0.1143  0.0122
11257W        W86245  11.915  31.614  22.913  0.1111 -0.1073 -0.0121
11258W        W86246  27.923  17.418   4.077 -0.0815  0.0606  0.1241
11259W        W86247  13.112  18.283   3.502 -0.0261  0.0820  0.0756
11260W        W86248  30.862  15.118  24.368  0.1783  0.1364  0.1918
11261W        W86249   8.365  18.858   6.191  0.0852 -0.2268  0.1332
11262W        W86250  28.628  26.109  21.078  0.2892 -0.3305 -0.0133
11263W        W86251  31.014   5.029   3.955  0.4172 -0.0298  0.2443
11264W        W86252  28.204  23.546  13.521  0.2145  0.1830 -0.3652
11265W        W86253   2.040   8.091   0.042  0.0494 -0.4531 -0.0338
11266W        W86254   7.654  30.250  13.710  0.0961 -0.1052  0.0053
11267W        W86255  29.593  33.202   1.367  0.1603 -0.3837 -0.1064
11268W        W86256  23.359   6.144  20.148 -0.0762  0.1961  0.0934
11269W        W86257  31.336  16.077  19.219  0.0435  0.1064  0.0691
11270W        W86258  29.723  24.119  20.392 -0.0262  0.0410  0.2192
11271W        W86259   2.908  35.185   6.900  0.0892  0.1924 -0.0163
11272W        W86260   0.845  21.398  11.350 -0.0061 -0.1547  0.3382
11273W        W86261  15.694  13.875   9.869 -0.0272  0.2950  0.4386
11274W        W86262   7.929  27.050  24.807 -0.1170  0.0530  0.0023
11275W        W86263   6.893   4.497   8.544 -0.0422 -0.0591 -0.2142
11276W        W86264  33.666  33.516   2.136 -0.2757  0.1383  0.1115
11277W        W86265  19.381   0.587  24.309  0.0736  0.2444 -0.0107
11278W        W86266  18.910  34.161   4.240  0.0753 -0.1433  0.3105
11279W        W86267  32.718  33.975   0.574  0.0566 -0.0457  0.0699
11280W        W86268  13.582  11.339  19.835  0.1311  0.2271  0.0753
11281W        W86269  14.352   3.784   7.862  0.1670  0.2684 -0.0672
11282W        W86270   2.022  28.030   5.182 -0.0247  0.1412  0.2896
11283W        W86271  24.414  20.943  11.748  0.2536  0.0190  0.1263
11284W        W86272   6.219  15.851   7.234  0.1827  0.1048 -0.1021
11285W        W86273  12.629   0.262   5.998  0.2642  0.1863  0.2788
11286W        W86274   6.330  14.295  18.380 -0.0751  0.4865  0.2139
11287W        W86275  28.458   1.835  11.370  0.2322 -0.1887  0.0209
11288W        W86276  12.015  14.687  25.034  0.4860 -0.0675  0.0480
11289W        W86277  10.569  22.283  22.986 -0.1708 -0.2811 -0.1561
11290W        W86278  14.718   3.087   8.091 -0.0825 -0.1123  0.1578
11291W        W86279  23.925  14.816  23.298 -0.2346 -0.0798 -0.0778
11292W        W86280  19.418  17.253   4.562  0.1507 -0.1777 -0.0468
11293W        W86281  16.141  16.635  10.164  0.1329 -0.2549  0.1703
11294W        W86282  31.167  10.585   7.593 -0.0566 -0.2112  0.1559
11295W        W86283   8.822  24.816  13.823  0.3587  0.0738 -0.2130
11296W        W86284  12.424  30.774  13.720  0.1931  0.2334 -0.2049
11297W        W86285  29.032   3.571   6.159  0.1354 -0.0605 -0.2196
11298W        W86286   5.052   1.281  24.034 -0.2416  0.0511 -0.0479
11299W        W86287  22.022   2.096  20.059  0.1433  0.1249  0.0916
11300W        W86288  20.179  20.621  25.631 -0.2105  0.1800 -0.0827
11301W        W86289  31.957   9.449  16.033 -0.1858 -0.2548 -0.2779
11302W        W86290  23.146  21.919  19.873 -0.1490  0.0191  0.1973
11303W        W86291  25.046  27.868  18.366  0.1552 -0.0157  0.1967
11304W        W86292  10.578   4.135  20.705  0.0147  0.0032  0.2231
11305W        W86293  33.575  21.756  16.290  0.0197  0.0299  0.0836
11306W        W86294  28.906   9.825  25.352 -0.0435 -0.2111 -0.1455
11307W        W86295   3.100  24.680  25.335 -0.2411  0.0570 -0.0772
11308W        W86296  14.706  29.092  11.241  0.2877 -0.2699 -0.2450
11309W        W86297   4.397   1.312   1.420  0.2368 -0.2265 -0.1588
11310W        W86298  23.910  19.018  25.798  0.0560  0.0564 -0.1124
11311W        W86299  30.215   2.706  15.707 -0.1751 -0.2848  0.1058
11312W        W86300  11.588  10.298  11.746 -0.1625  0.1176 -0.0679
11313W        W86301   2.524  34.979   2.271  0.2264  0.0834 -0.1590
11314W        W86302  14.174  15.993   9.673 -0.0910 -0.0181  0.1404
11315W        W86303   5.352  10.741   3.589  0.1147 -0.2672 -0.1863
11316W        W86304  32.029  22.018  23.131 -0.1976 -0.0017 -0.2691
11317W        W86305  25.831  24.608   0.890 -0.0899  0.2985  0.0011
11318W        W86306  25.313  11.084  12.637 -0.2550  0.1416 -0.3693
11319W        W86307  13.955  19.909  14.346  0.0154  0.2232  0.2204
11320W        W86308  15.274   4.864   7.832  0.0386 -0.1782  0.1419
11321W        W86309  24.913   9.833  26.136  0.0456 -0.1976  0.1052
11322W        W86310  20.500  15.019   8.423  0.1898 -0.0932 -0.1072
11323W        W86311  15.691  18.059  23.418  0.0865  0.0370 -0.2685
11324W        W86312   9.475  27.037  14.188  0.1638  0.2921 -0.0565
11325W        W86313  34.822   8.097  23.833 -0.2028  0.1253 -0.1347
11326W        W86314  32.275   8.338  20.736  0.1582 -0.0542 -0.1718
11327W        W86315  29.953  20.946  22.913  0.0814 -0.2054 -0.2773
11328W        W86316   9.371  28.648  12.480  0.2681 -0.2187 -0.0768
11329W        W86317  13.796  29.310   0.655  0.0124  0.1136  0.1694
11330W        W86318  26.756  35.126  12.181 -0.0142 -0.1699  0.1576
11331W        W86319  28.644   2.401   3.278 -0.1238 -0.2167  0.2719
11332W        W86320  33.439  15.162  22.678 -0.3089  0.0213  0.2025
11333W        W86321  11.833   2.064   0.174 -0.0202  0.1765 -0.1999
11334W        W86322  22.961  15.427  16.657  0.2404  0.0660 -0.0448
11335W        W86323  21.465   8.862   0.533  0.0267 -0.1632  0.0311
11336W        W86324  17.486  34.010  23.962 -0.0574 -0.0564 -0.1972
11337W        W86325   9.851  22.741   4.709  0.1112 -0.0086  0.2027
11338W        W86326  11.105   0.616   6.914 -0.2718  0.2200  0.2133
11339W        W86327  34.698  26.758  24.019 -0.1529 -0.0047  0.3426
11340W        W86328   0.405  24.276  21.952 -0.5612 -0.0504 -0.0030
11341W        W86329  33.630  17.434  13.532  0.0002  0.3079 -0.1335
11342W        W86330  19.870   8.951  10.762  0.0218  0.2619 -0.1629
11343W        W86331  28.388  20.024  12.384 -0.3401  0.1938  0.4610
11344W        W86332   9.204  10.891  25.738  0.0569 -0.0715 -0.0664
11345W        W86333   2.980   1.039   1.172 -0.0434 -0.0634  0.2170
11346W        W86334   9.682  10.523   2.375 -0.0819  0.0267 -0.1630
11347W        W86335  26.420  25.069  16.655  0.2657 -0.0298  0.2061
11348W        W86336  15.486  23.637  23.529  0.0163 -0.1495 -0.3808
11349W        W86337   2.174  25.499  17.685  0.0776  0.1610 -0.1285
11350W        W86338  13.045  17.772   7.392  0.0972 -0.0184 -0.3076
11351W        W86339   6.730  31.293   5.489 -0.1506  0.2721  0.1216
11352W        W86340  22.752  10.344  17.208 -0.1472 -0.3254  0.1054
11353W        W86341  26.697  34.521   4.501 -0.0289  0.1569  0.0685
11354W        W86342  10.152   5.561  22.337  0.0817  0.0802  0.1078
11355W        W86343  14.726  15.538  25.017  0.1766 -0.0619  0.1977
11356W        W86344  23.192   1.863  22.333 -0.0503  0.0615 -0.1991
11357W        W86345  25.958   3.876  20.558  0.1586 -0.0345  0.0467
11358W        W86346  22.308  13.655   2.392  0.1601 -0.3336 -0.0320
11359W        W86347  34.771  24.338  16.187 -0.0766  0.2381 -0.3325
11360W        W86348  22.609  23.562  21.397  0.0127  0.1674 -0.1512
11361W        W86349   9.863  29.728  22.983  0.0508 -0.0885 -0.2006
11362W        W86350  11.594   7.959  23.755  0.1342  0.2208 -0.1458
11363W        W86351   8.107  10.931   4.452  0.0357  0.0508 -0.1671
11364W        W86352   6.392   7.302  18.495  0.0452  0.0862 -0.0838
11365W        W86353  10.982  21.034  12.818 -0.0898 -0.2174 -0.1866
11366W        W86354  24.120  27.363  13.957 -0.1544  0.2336  0.1150
11367W        W86355   2.187  13.528   2.209 -0.0086 -0.1335  0.4153
11368W        W86356  19.122  17.156  18.238  0.0109  0.0067 -0.1519
11369W        W86357  31.225   9.242   1.470  0.0031  0.1545  0.2950
11370W        W86358  31.756  25.084  10.828 -0.0781 -0.4397 -0.0582
11371W        W86359  18.016   2.127  23.001 -0.2169 -0.0853  0.0765
11372W        W86360  34.384   1.861   3.093  0.0508  0.1466  0.0377
11373W        W86361  21.981   7.400  15.846  0.0231 -0.1803  0.0667
11374W        W86362  32.096  22.433  17.026  0.2373 -0.3362  0.4473
11375W        W86363   2.175  15.806   2.142 -0.1340  0.2666  0.0423
11376W        W86364  14.328  20.957   1.106 -0.2758 -0.0114 -0.1719
11377W        W86365  19.459  13.804   6.568 -0.0195 -0.1815 -0.2445
11378W        W86366   7.440  29.440  14.053 -0.0916 -0.3017  0.1392
11379W        W86367   2.531  22.291  18.303  0.3706  0.2997 -0.2217
11380W        W86368   0.663  13.317  11.695  0.0276 -0.0925 -0.1063
11381W        W86369  19.666  23.828   4.548 -0.0880  0.1370 -0.2492
11382W        W86370  23.577  11.593  15.888 -0.0197  0.0966  0.1792
11383W        W86371  21.429  27.710  17.434 -0.1130  0.0690 -0.4877
11384W        W86372  14.290  19.718   5.810 -0.0555 -0.2842 -0.0398
11385W        W86373  17.026  17.533   3.844 -0.0983  0.0051  0.1272
11386W        W86374   5.812  30.028  15.080 -0.0006  0.0219 -0.0327
11387W        W86375  13.840   6.994  24.153 -0.0052  0.1041 -0.0296
11388W        W86376   2.710  17.901  11.822 -0.0633  0.0861 -0.0482
11389W        W86377   7.540  20.245   1.708 -0.0672  0.4176 -0.0258
11390W        W86378  19.034  13.526   7.889  0.4302 -0.1517  0.0610
11391W        W86379  10.355   5.278   8.396  0.1554 -0.4681 -0.0090
11392W        W86380  26.072  13.231  13.778  0.2558  0.2349 -0.0229
11393W        W86381   4.861   4.037  20.574  0.2371 -0.1164 -0.0790
11394W        W86382   4.392  12.704   5.129 -0.2068  0.1298  0.2026
11395W        W86383  12.079   3.149  18.600  0.0305 -0.0363 -0.1315
11396W        W86384   9.040   4.867  25.361 -0.2226 -0.0058 -0.0715
11397W        W86385   8.819   5.893  11.515 -0.0676 -0.0814 -0.0693
11398W        W86386  20.091   2.789   2.928  0.0242 -0.0283  0.4161
11399W        W86387  26.486  15.757  23.089  0.3623  0.3338 -0.1180
11400W        W86388   1.344  32.143  22.990  0.3455 -0.3657  0.2981
11401W        W86389  30.032  31.465  24.643 -0.0596 -0.0793 -0.1562
11402W        W86390  17.277  12.922  12.674 -0.1939  0.1941 -0.0425
11403W        W86391   2.969   5.706  18.434 -0.3095 -0.2599 -0.1803
11404W        W86392  24.239   4.521   6.165  0.2617 -0.0591 -0.1511
11405W        W86393  25.804   6.812  18.426 -0.2385 -0.0751 -0.0730
11406W        W86394   9.625  16.752   3.006 -0.2458  0.0949  0.0388
11407W        W86395  32.258  29.962  16.285 -0.0963 -0.1117  0.1514
11408W        W86396  13.778   1.059   7.991  0.0992 -0.1273  0.1663
11409W        W86397   7.118   8.414  21.145  0.0483 -0.1333  0.0505
11410W        W86398   8.559  23.182   7.318  0.2564  0.0029 -0.4838
11411W        W86399   8.888  11.219  22.078 -0.0818 -0.0482 -0.0134
11412W        W86400   1.976  33.095   7.840 -0.3707  0.2962 -0.3731
11413W        W86401   8.965  21.850   5.992 -0.3423  0.1608 -0.3220
11414W        W86402  16.127  23.259  13.807  0.2313  0.1885 -0.1296
11415W        W86403   9.263   8.659   6.333  0.3547 -0.0006 -0.1859
11416W        W86404  29.604  22.966  19.095 -0.0183  0.0591  0.1263
11417W        W86405  19.432   2.550   7.812 -0.0596  0.0358  0.0123
11418W        W86406   9.348  34.549  12.386  0.0678  0.1553 -0.2981
11419W        W86407  12.641   9.550   4.385 -0.0317  0.0286 -0.1584
11420W        W86408  20.823   4.874  25.270  0.0391 -0.4059 -0.0855
11421W        W86409  11.144  26.384  17.169 -0.0293  0.0409  0.2964
11422W        W86410  18.685  34.712   2.953 -0.1292  0.0935 -0.0488
11423W        W86411  33.940  12.634  10.668 -0.3738 -0.0233 -0.0111
11424W        W86412  33.433   6.146  24.032  0.2147  0.0587 -0.2382
11425W        W86413   5.376   3.448  24.286  0.2397 -0.0471  0.0511
11426W        W86414  12.216   1.346   1.680  0.0112  0.1231  0.2462
11427W        W86415   8.671  14.761   8.540  0.0523  0.0882 -0.3540
11428W        W86416  10.458   2.439  12.582 -0.0273  0.0843  0.1464
11429W        W86417   0.066   5.945   2.979 -0.1858 -0.1801  0.0250
11430W        W86418  26.731   8.414   1.348 -0.0044 -0.1126 -0.2155
11431W        W86419  15.703  11.909   0.483  0.1907  0.1851 -0.3146
11432W        W86420   8.612   8.249  25.568  0.4656  0.1130 -0.0275
11433W        W86421  32.598   9.121  17.496 -0.2194 -0.1423  0.0543
11434W        W86422  10.152  12.322  23.711 -0.0752  0.0355 -0.1026
11435W        W86423  16.671  34.058   8.547 -0.0926 -0.0821  0.0676
11436W        W86424  16.783  25.286   2.424  0.1985 -0.0271 -0.4718
11437W        W86425   0.791  30.467  23.498  0.0446  0.2151  0.0084
11438W        W86426  26.867  24.615  14.640  0.0719 -0.0834  0.0059
11439W        W86427   8.397   4.460  21.066 -0.3179 -0.0850  0.2332
11440W        W86428  12.871   6.968  11.641 -0.0100  0.2066 -0.0622
11441W        W86429  27.475   6.343   0.777 -0.3022  0.1903  0.4798
11442W        W86430  18.360  25.473  24.768 -0.1239  0.3067 -0.0449
11443W        W86431  15.008   6.878  25.317  0.0997  0.2009 -0.0334
11444W        W86432  28.199  19.324  21.420  0.1511  0.1821  0.0589
11445W        W86433  34.258  32.134  19.432  0.0510  0.0119 -0.0652
11446W        W86434  19.798   3.698  19.002  0.0385  0.2442 -0.2956
11447W        W86435   0.365  18.186   9.002 -0.1121  0.0948 -0.0182
11448W        W86436   6.104  25.425  10.058 -0.2841  0.3779  0.2947
11449W        W86437  19.386  17.787   3.142  0.0274 -0.1959  0.0238
11450W        W86438  19.154  21.757   3.003  0.4882 -0.2503  0.0904
11451W        W86439  21.209  25.567  18.675  0.0696  0.2815  0.0184
11452W        W86440  13.697  17.443  25.550 -0.0881  0.0814  0.2524
11453W        W86441  30.082  22.683   7.975  0.1549  0.1092  0.0135
11454W        W86442  30.750  34.860   3.425 -0.3328 -0.3448 -0.0331
11455W        W86443  34.666   7.462   3.649  0.1650  0.0178  0.2315
11456W        W86444  31.007   1.680  19.998 -0.1864  0.0333  0.0189
11457W        W86445  29.399   8.820   7.501  0.0110  0.3298 -0.2367
11458W        W86446  19.217   3.335   8.322  0.0407  0.5029 -0.0004
11459W        W86447  32.561   5.676   1.094  0.2250  0.1294  0.1298
11460W        W86448  12.092  31.092   0.658 -0.1530 -0.1766  0.2449
11461W        W86449  26.254  11.703  15.656 -0.0293  0.3133  0.0269
11462W        W86450  27.971  22.342  13.100  0.0999 -0.4465 -0.0532
11463W        W86451  25.722   0.024   0.382  0.1690 -0.0416 -0.3735
11464W        W86452  10.919  11.220  10.682  0.0314 -0.1870 -0.1045
11465W        W86453  15.596  22.503  11.341  0.1154  0.1550  0.0728
11466W        W86454  29.626   9.849  13.739  0.0545 -0.1393 -0.0660
11467W        W86455  21.828  12.552  15.815 -0.1062  0.1836 -0.0644
11468W        W86456  32.184  27.044  18.098  0.0351 -0.2173 -0.3154
11469W        W86457  25.178  21.847   1.142  0.0437 -0.0484  0.0276
11470W        W86458  31.584  34.120   0.754 -0.2861 -0.1726 -0.1673
11471W        W86459  17.476  18.272   2.481 -0.5573 -0.1885  0.0045
11472W        W86460  16.104   6.686  22.977  0.0811  0.2857 -0.0219
11473W        W86461   6.937  25.952  13.571  0.1913  0.0866 -0.1021
11474W        W86462  23.495  19.356  13.983  0.1111  0.1021  0.1453
11475W        W86463  10.869  33.697   1.957 -0.2155 -0.1645  0.0079
11476W        W86464  35.045  24.159  19.043 -0.0662 -0.0169  0.0117
11477W        W86465   9.195  10.023  24.607 -0.0611  0.0330  0.1490
11478W        W86466   8.091  27.290  21.606 -0.0024 -0.1779  0.0289
11479W        W86467  16.837  20.320   0.802 -0.0123 -0.3257 -0.0786
11480W        W86468   7.281  33.730   1.855 -0.2447  0.0311 -0.0297
11481W        W86469   4.897   1.542   7.532 -0.1209  0.2415  0.1524
11482W        W86470   9.792  34.742  24.374  0.1286 -0.2543  0.0987
11483W        W86471   4.463  10.655  15.825  0.1405 -0.0992 -0.2869
11484W        W86472  16.232  19.098  12.195 -0.0939  0.1392  0.0600
11485W        W86473  20.799  27.345   1.682  0.5760  0.1007 -0.0971
11486W        W86474  33.910  20.601  23.174  0.2931 -0.2115 -0.2102
11487W        W86475  12.261  17.944  25.531 -0.1924  0.0677  0.0934
11488W        W86476  16.272  29.973  25.209  0.0595 -0.3725  0.0891
11489W        W86477  27.870  22.500  16.798 -0.2175  0.2394  0.1175
11490W        W86478   9.488  17.050  24.388 -0.1005  0.0222  0.1674
11491W        W86479   3.904  25.513   0.541  0.4658 -0.0151  0.0307
11492W        W86480  28.437  32.787   9.998 -0.0849 -0.1464 -0.0117
11493W        W86481   8.001   8.912  19.747 -0.2354  0.3284  0.2016
11494W        W86482  24.412  15.261  24.892 -0.5485 -0.2746  0.0017
11495W        W86483  26.103   3.416  11.905  0.0964  0.2194 -0.0941
11496W        W86484   3.353   4.436  22.550  0.0691 -0.2133 -0.0200
11497W        W86485   8.041   5.035   6.293 -0.2601  0.0035  0.2717
11498W        W86486  34.581  30.829  15.329 -0.0691  0.1102  0.0335
11499W        W86487  32.501   1.556  19.969  0.1809 -0.4284  0.1630
11500W        W86488  23.906  28.262  13.969 -0.1740 -0.1367  0.1297
11501W        W86489  24.628   8.725   1.706  0.3144  0.0861 -0.1636
11502W        W86490  17.212  18.618  12.278  0.0206  0.1589 -0.1601
11503W        W86491  24.611  12.062  13.384 -0.0596 -0.4290  0.1464
11504W        W86492  18.955  33.249  16.759 -0.0050 -0.0238  0.0927
11505W        W86493  35.006   0.660  15.535  0.1760 -0.3770  0.3206
11506W        W86494  19.408  13.211   3.983  0.1891 -0.0034  0.0440
11507W        W86495   4.798  12.889  18.583 -0.0755 -0.1762  0.0717
11508W        W86496   5.525   2.851  10.030 -0.2836 -0.0000  0.2154
11509W        W86497  29.699  23.138   9.330 -0.0148 -0.1810  0.0951
11510W        W86498  19.957  14.281   0.810  0.1537 -0.0603 -0.3245
11511W        W86499  35.273  17.046  21.980  0.2560 -0.0451  0.1896
11512W        W86500  15.411  15.645  25.949 -0.2939  0.3317 -0.1312
11513W        W86501  27.193   3.885  11.089 -0.3188  0.1564  0.2063
11514W        W86502   1.535  10.745  20.026  0.0305 -0.0273 -0.1292
11515W        W86503  11.027  14.935   8.984 -0.1826 -0.2432 -0.1442
11516W        W86504  31.303  33.873   4.991 -0.3322 -0.4530  0.2142
11517W        W86505   2.290   8.764  20.595  0.0449 -0.0695  0.0527
11518W        W86506   1.563  28.617   0.788  0.1285  0.2325  0.1222
11519W        W86507  19.899   3.700   4.214 -0.0434 -0.3046  0.1078
11520W        W86508   5.128   5.447   1.912 -0.3414  0.1340  0.0404
11521W        W86509  14.258  11.108   3.951  0.1070 -0.1173 -0.1567
11522W        W86510  30.304   3.031   3.975 -0.2859  0.1362  0.2330
11523W        W86511   8.404  22.719   3.146  0.1862  0.0439 -0.0933
11524W        W86512  10.107  17.123   7.518  0.1614 -0.1076 -0.3937
11525W        W86513  34.465  19.527  14.843 -0.0634 -0.2060 -0.1365
11526W        W86514  16.290  24.134   7.971 -0.1544 -0.2807  0.1874
11527W        W86515  20.186   0.844   5.804 -0.1109 -0.1130  0.1104
11528W        W86516  24.015   4.257  25.452  0.0585  0.0822  0.0616
11529W        W86517  24.494   8.283  24.721  0.3153  0.0138 -0.2009
11530W        W86518  14.955  10.136  11.718 -0.1090  0.4088  0.0521
11531W        W86519   3.476  10.654   4.832  0.0392 -0.1307  0.0657
11532W        W86520  34.463  29.921  23.975  0.1797  0.2433 -0.1958
11533W        W86521   8.171  27.939  17.017  0.0687 -0.0782  0.0217
11534W        W86522  30.853  16.220  14.644  0.1117 -0.2150  0.0070
11535W        W86523  35.192   5.446  15.845  0.0620  0.0506  0.0758
11536W        W86524  23.464   8.424   3.742 -0.1214  0.0629 -0.3956
11537W        W86525  18.326  11.441   4.094 -0.1467 -0.0511 -0.1692
11538W        W86526  26.518  14.433  21.411 -0.1093  0.2050 -0.0934
11539W        W86527   2.468  27.021  24.351  0.1217  0.0842  0.1138
11540W        W86528  21.551  28.140  25.212  0.1087  0.0311 -0.2295
11541W        W86529  23.628   0.282   0.251 -0.2595  0.0195 -0.1049
11542W        W86530  19.748  29.659  20.714  0.2214 -0.0443  0.2245
11543W        W86531  27.977  26.065  25.943  0.3101 -0.0977  0.0569
11544W        W86532   8.651  27.502  22.905  0.1319 -0.0467  0.1298
11545W        W86533  13.670  12.618  13.051 -0.1085 -0.0151  0.0435
11546W        W86534  17.831   7.733  19.532  0.0074 -0.0689  0.1991
11547W        W86535  25.366  18.428  11.363  0.1940  0.2675  0.1662
11548W        W86536   1.142  23.449  25.310  0.2482 -0.2568  0.1210
11549W        W86537  13.532   9.597  24.261 -0.1323 -0.1519 -0.0886
11550W        W86538  13.973  32.488  12.371  0.0965 -0.0369  0.0582
11551W        W86539  19.681   4.139   5.054 -0.2024 -0.1995  0.2943
11552W        W86540  14.295  23.224   2.577  0.2553 -0.2597 -0.1400
11553W        W86541   9.447  32.048  12.482  0.2138 -0.3583 -0.0109
11554W        W86542   6.180  26.297  23.866  0.0133  0.0483 -0.0235
11555W        W86543  14.786  11.166   9.171  0.1542  0.2522  0.2290
11556W        W86544  34.933  25.319  20.399 -0.0191  0.1750  0.2137
11557W        W86545   5.074  21.827  21.444 -0.0446 -0.0215  0.2318
11558W        W86546  18.491   1.657  23.752  0.0447 -0.2386  0.0888
11559W        W86547  33.453  24.269  23.602  0.2372 -0.0217  0.1089
11560W        W86548   9.012  22.024   3.559  0.0250  0.0825  0.1918
11561W        W86549  11.422  18.304   4.469 -0.2207 -0.1256  0.2055
11562W        W86550  28.220  12.971  10.799 -0.1626 -0.0531 -0.1774
11563W        W86551   0.778  21.620   0.449  0.1316 -0.1492  0.2269
11564W        W86552  27.094   8.636  10.690  0.0353 -0.0953 -0.1579
11565W        W86553  17.016  20.501  25.103 -0.1240  0.1133  0.0463
11566W        W86554   8.303   4.517   2.609 -0.0050  0.1580 -0.1699
11567W        W86555   0.586   7.587  12.739  0.3537  0.1007 -0.0940
11568W        W86556   5.953   2.440  13.567 -0.0204  0.1397  0.0356
11569W        W86557  12.334   4.959   7.912  0.1213 -0.1060 -0.2252
11570W        W86558  15.784  32.399  20.737  0.3403 -0.1709 -0.1522
11571W        W86559  20.057  32.438   1.317  0.1861  0.2582 -0.0715
11572W        W86560   6.930  31.725  12.783 -0.2613  0.1954 -0.0982
11573W        W86561  13.058   3.219   1.024  0.0578 -0.1379  0.1736
11574W        W86562  14.843  10.669  13.358  0.1663 -0.2591  0.0741
11575W        W86563   9.331  28.226   3.976  0.0285  0.1060 -0.0369
11576W        W86564  16.374   8.520   1.390 -0.1964  0.0881  0.1709
11577W        W86565  23.577  30.815   4.735  0.2072 -0.1088  0.0031
11578W        W86566  22.489   2.359  17.352  0.0262 -0.0598 -0.2620
11579W        W86567  14.465   4.733  17.508  0.1039  0.0072 -0.0668
11580W        W86568  12.610   3.980   0.120 -0.0135  0.1275 -0.3182
11581W        W86569   0.803   1.118  24.426  0.4751 -0.5508  0.0276
11582W        W86570   5.890  16.893  26.232 -0.3431 -0.3721 -0.0961
11583W        W86571   2.762  21.599  17.102 -0.1756  0.1347 -0.0779
11584W        W86572   6.466  31.665  22.407 -0.1748  0.2272  0.1103
11585W        W86573  12.042   2.415   6.624  0.0455  0.2684  0.0577
11586W        W86574   5.192  30.914   4.731 -0.2259 -0.0306  0.1699
11587W        W86575  26.777  31.504  21.020  0.0638  0.0590  0.0382
11588W        W86576   0.105   8.198  12.433  0.0065  0.1274 -0.0223
11589W        W86577  20.760  26.362  21.479 -0.2287  0.1535 -0.1685
11590W        W86578   8.787  11.694   9.692 -0.3657  0.0927 -0.0335
11591W        W86579   9.303   8.134   0.019  0.1115  0.0958  0.0798
11592W        W86580  21.133   2.211  22.380  0.2602  0.0428 -0.0361
11593W        W86581  17.607  16.866   6.894  0.1920 -0.0221  0.2499
11594W        W86582  34.400  23.880  25.306  0.0568 -0.0260  0.0381
11595W        W86583   5.333  29.782   4.684  0.0975 -0.0849  0.5244
11596W        W86584  27.236   2.899  24.867  0.1248 -0.3193  0.1702
11597W        W86585  16.905  15.518   1.652  0.1669  0.2202 -0.2271
11598W        W86586  17.498  22.099  10.826 -0.1091 -0.0530  0.1666
11599W        W86587  17.074   6.020   0.882 -0.0052  0.1736  0.1123
11600W        W86588  27.705  34.995   3.150 -0.0780  0.1455  0.2661
11601W        W86589  26.292   1.722   3.574  0.0325  0.0376  0.2454
11602W        W86590  11.399  23.197   7.908  0.0230  0.0615  0.1496
11603W        W86591  26.946  23.974  22.987 -0.1492 -0.1838 -0.1095
11604W        W86592   8.046   1.671   6.725 -0.0547 -0.0811 -0.0897
11605W        W86593  17.958  32.902  25.542  0.0942 -0.0439  0.1849
11606W        W86594  16.470  28.956  23.280 -0.3893  0.1153 -0.3118
11607W        W86595  14.046   1.679   3.687  0.0466 -0.4753  0.2480
11608W        W86596  23.871  22.151   1.027  0.4725 -0.0344 -0.1031
11609W        W86597  32.081  23.247  16.068  0.0363  0.2932  0.2415
11610W        W86598   7.380   3.557  13.274 -0.0997 -0.0191  0.0636
11611W        W86599   9.550  19.679   8.318  0.2966 -0.0517 -0.0813
11612W        W86600  16.255   5.150   2.913  0.2353  0.3593  0.2280
11613W        W86601  18.570  16.317  19.010  0.1119  0.3812 -0.2285
11614W        W86602   4.821  15.130  23.072  0.1546 -0.2199 -0.1074
11615W        W86603  19.034  14.381  22.794  0.2274 -0.2642 -0.0392
11616W        W86604  10.977  10.799   3.586 -0.2197  0.0298  0.0564
11617W        W86605  18.068   5.178  22.105  0.1733  0.0459 -0.2362
11618W        W86606   1.240  32.011   6.822 -0.0937  0.4925  0.0039
11619W        W86607  26.039   1.831  14.246  0.1078 -0.0156 -0.2079
11620W        W86608  11.348  13.975  24.599 -0.1180 -0.1515 -0.1374
11621W        W86609  18.815  17.666  17.177  0.1335 -0.2994 -0.1944
11622W        W86610  29.256  18.084  21.340 -0.0073  0.0051 -0.2417
11623W        W86611  19.503  16.730   4.822  0.0168 -0.0238 -0.3731
11624W        W86612  28.146  25.192   8.220  0.1273 -0.2571 -0.1999
11625W        W86613   6.986  23.041  21.622  0.1506 -0.0745 -0.3396
11626W        W86614  27.882   7.597  10.087  0.0035 -0.0491  0.0962
11627W        W86615  18.107   1.518  16.629 -0.1195  0.0879  0.1281
11628W        W86616  31.346  15.803   6.839 -0.0029  0.2838  0.0430
11629W        W86617   1.158  14.386  17.327  0.0123 -0.1582 -0.0280
11630W        W86618  29.220   0.265  14.435 -0.0478 -0.2216  0.2283
11631W        W86619  10.094  11.732   4.436 -0.0200  0.4664  0.0018
11632W        W86620  13.497  21.305   0.577 -0.4639  0.1718  0.1587
11633W        W86621  11.985  13.337   8.887  0.2386  0.0559  0.0194
11634W        W86622   2.995  19.090  18.399  0.0032 -0.0669  0.0564
11635W        W86623  14.975   8.603   5.746 -0.1129 -0.2691  0.0569
11636W        W86624  21.862  10.294  19.056  0.2826  0.3334 -0.0349
11637W        W86625   5.970  32.212   4.381  0.1463  0.1304  0.0908
11638W        W86626  25.593  25.464  14.875  0.6226  0.6853 -0.1708
11639W        W86627  25.359  29.501  17.183 -0.3718  0.1361  0.0081
11640W        W86628  13.662  25.679  22.581 -0.1695 -0.0694  0.1466
11641W        W86629  25.808  16.566  20.746 -0.1098  0.3902  0.0101
11642W        W86630  27.350  33.500  17.865  0.0538 -0.0397 -0.0589
11643W        W86631   9.266  12.967   0.967  0.1384  0.0492  0.1037
11644W        W86632  20.903  21.733   1.141 -0.2328 -0.1370  0.1335
11645W        W86633  14.752  23.989   4.631  0.1357 -0.1440  0.2133
11646W        W86634  16.941  14.860  10.789  0.2621  0.2163  0.0762
11647W        W86635  14.904   6.268   2.859 -0.0835 -0.0259 -0.1160
11648W        W86636  31.981  20.705   8.348 -0.0267  0.2768  0.0041
11649W        W86637  10.725   0.195  19.732 -0.2686 -0.0092  0.0057
11650W        W86638   9.309  30.202  16.624 -0.1094  0.3412 -0.0124
11651W        W86639  29.737  20.324  21.677 -0.0944  0.1214 -0.2099
11652W        W86640  31.657  32.342  17.355  0.1069 -0.1548  0.0036
11653W        W86641  23.210   4.422  21.425 -0.1729  0.0621  0.0821
11654W        W86642   4.966  21.847  22.459  0.0377  0.0709  0.1310
11655W        W86643  14.057   6.522  22.972  0.3211  0.4637 -0.0654
11656W        W86644  11.941   2.006   9.558 -0.3987 -0.1740  0.1468
11657W        W86645   9.964  25.356  21.527 -0.1805 -0.0886  0.0123
11658W        W86646   8.697  23.537  21.674  0.0272 -0.0294 -0.1223
11659W        W86647  21.250  20.003  20.239  0.1558  0.1610  0.0887
11660W        W86648  20.816  21.813  18.316 -0.0800  0.0721 -0.3255
11661W        W86649   1.479  22.127  19.170  0.2037  0.4527  0.4497
11662W        W86650  29.826  35.114   1.089 -0.0164  0.1477 -0.0108
11663W        W86651  20.498  25.416  22.486  0.1067 -0.1456 -0.0136
11664W        W86652  32.029  18.133  20.989 -0.1266  0.0924 -0.2492
11665W        W86653   7.051  34.516   8.008  0.0210  0.1938 -0.0501
11666W        W86654   7.879  21.116   7.799  0.3049 -0.0998 -0.2713
11667W        W86655   8.475   5.205  21.832 -0.3339 -0.0979  0.0891
11668W        W86656   1.269  11.935  18.966 -0.0441 -0.2286 -0.1876
11669W        W86657   9.753  16.481   8.034  0.0457  0.0448 -0.3072
11670W        W86658  30.220   8.750  11.279  0.0823 -0.2593 -0.2503
11671W        W86659   5.209   0.742  25.082  0.2191 -0.0644 -0.0906
11672W        W86660  20.818  31.433  16.513 -0.1653 -0.0079  0.1588
11673W        W86661   5.762  29.935   6.127  0.3158  0.0316 -0.5447
11674W        W86662  12.695  28.231   6.171 -0.0853  0.0794  0.0997
11675W        W86663  10.822  21.588   3.567 -0.2197  0.1692  0.3443
11676W        W86664   4.202   6.495   0.974  0.0896  0.2181 -0.0351
11677W        W86665  17.058  31.466  22.396 -0.0253 -0.1750  0.0422
11678W        W86666  18.026  10.201  20.101  0.2407 -0.2841 -0.1763
11679W        W86667  15.326   6.780  17.824  0.0228  0.0839 -0.0199
11680W        W86668   8.574  11.854  12.327 -0.1288 -0.1759 -0.3307
11681W        W86669  22.985  23.184  21.392 -0.1238 -0.3860  0.2346
11682W        W86670  33.319  30.352   6.171  0.0403  0.0675  0.1535
11683W        W86671  24.786  34.422   0.990 -0.2838  0.0243  0.1345
11684W        W86672  33.593  23.752  20.524 -0.1285  0.0016  0.0288
11685W        W86673  10.035  20.991  22.340  0.0602 -0.1293  0.2796
11686W        W86674  29.972   8.876   0.803  0.1314  0.2411 -0.0109
11687W        W86675  10.168  16.854  24.560  0.1649  0.0368 -0.0814
11688W        W86676  12.073  21.413  16.174  0.1438  0.3106  0.0035
11689W        W86677  24.465  27.284  22.518 -0.1048  0.1051  0.0219
11690W        W86678  25.021  23.978   2.949 -0.1008  0.3632  0.0381
11691W        W86679  27.581   7.453  17.120  0.2426  0.3907  0.1818
11692W        W86680  24.380  11.560  11.784 -0.1330  0.1689 -0.0372
11693W        W86681  32.810  26.779   1.129 -0.0759  0.3940  0.0304
11694W        W86682  30.242   6.095  17.013 -0.1022  0.2075 -0.1075
11695W        W86683  15.585   4.235  24.990 -0.0809 -0.2002  0.1865
11696W        W86684   7.814  29.682   0.334 -0.0051  0.2851  0.0902
11697W        W86685  24.216   2.279  20.396  0.0116 -0.2440 -0.1938
11698W        W86686  13.806  25.705  14.442  0.0952 -0.3718 -0.0815
11699W        W86687  30.605  11.432  12.470  0.2013  0.0933  0.4109
11700W        W86688  14.921  29.204  24.986 -0.3561  0.1817 -0.2066
11701W        W86689  32.631  33.069  12.775  0.0461  0.0870  0.1801
11702W        W86690   8.259  13.692  22.295  0.2201 -0.2714 -0.1757
11703W        W86691  16.521   0.352   6.670 -0.0554  0.1097  0.0545
11704W        W86692   6.386  22.913   4.073  0.0577  0.0267 -0.0920
11705W        W86693  12.763  17.605  13.758  0.0104 -0.2752 -0.1562
11706W        W86694  11.115   1.162  22.153 -0.3301  0.0307 -0.0246
11707W        W86695   1.450   6.750  23.504 -0.3235 -0.2949  0.3648
11708W        W86696   5.498  34.968  22.697 -0.0423  0.1467  0.0155
11709W        W86697  13.232  15.958   1.048  0.0287  0.0933 -0.2674
11710W        W86698  19.989  11.032   0.568 -0.2118 -0.0428  0.2931
11711W        W86699  14.672  14.438   9.146 -0.0845 -0.1776 -0.1483
11712W        W86700  10.893   7.366   7.216  0.3500 -0.0496 -0.0267
11713W        W86701   4.327  19.176   2.840 -0.1414  0.2243 -0.1873
11714W        W86702   3.667  22.521  25.309  0.0954 -0.3443  0.0889
11715W        W86703  19.076  17.835  22.380  0.1191  0.2768 -0.1465
11716W        W86704  35.004   6.146  12.928 -0.3561  0.2490  0.0533
11717W        W86705  35.049   6.458  25.126 -0.1307  0.1342 -0.2160
11718W        W86706  21.247  17.788  19.225 -0.1284 -0.2100 -0.2088
11719W        W86707  11.260  15.289   6.531 -0.2727 -0.1681 -0.3052
11720W        W86708   3.986  35.075   2.928  0.2056  0.2483  0.1537
11721W        W86709  27.449  12.129   6.216  0.0146  0.0523 -0.3666
11722W        W86710  25.382   4.588  16.741 -0.2399 -0.0057 -0.0983
11723W        W86711  24.523  11.663  24.210  0.2118 -0.1754  0.0088
11724W        W86712   8.221  32.579   8.925  0.1636 -0.0897 -0.1494
11725W        W86713  24.655  11.569   2.708  0.2382 -0.0823  0.1631
11726W        W86714  26.720  33.128  10.545  0.2997 -0.1638 -0.0301
11727W        W86715   1.721  32.295   1.905  0.3192 -0.0060  0.0859
11728W        W86716   5.199   0.803  19.007  0.0039  0.1071  0.1029
11729W        W86717   0.468  19.824  19.404 -0.0958  0.0117 -0.2998
11730W        W86718  16.825   9.835   1.463 -0.1740  0.0669  0.1310
11731W        W86719  30.018  29.366  16.381 -0.2188 -0.2002  0.0989
11732W        W86720  18.853  23.884   8.683 -0.3641  0.1682 -0.1684
11733W        W86721  23.236  27.827   4.258 -0.2563  0.1051  0.0759
11734W        W86722   8.362  10.244   3.033  0.1971 -0.1967  0.1042
11735W        W86723   9.529  25.425  22.808 -0.0772 -0.1458 -0.0295
11736W        W86724   9.789   8.508   1.807  0.0169 -0.0127  0.2476
11737W        W86725  31.391  24.160  22.230  0.3763 -0.0397 -0.5685
11738W        W86726  32.213  28.702  19.183  0.2167 -0.1402  0.4940
11739W        W86727   2.293  15.932   3.138 -0.2573 -0.1328 -0.1225
11740W        W86728  10.969   1.888  23.245  0.3751  0.1308 -0.5060
11741W        W86729  13.801  32.304   8.921  0.2831  0.0280  0.0229
11742W        W86730  25.135  26.811   3.586 -0.0827  0.0329 -0.0972
11743W        W86731  19.375   8.602  19.281 -0.1334 -0.0428 -0.0961
11744W        W86732  15.311  15.007  13.412 -0.3029 -0.0669  0.4658
11745W        W86733  32.608  32.314   3.923 -0.3944  0.0572 -0.3262
11746W        W86734  17.941  10.562  25.018  0.3248 -0.1466  0.0843
11747W        W86735  32.134  14.071  21.912  0.1187  0.1985 -0.0467
11748W        W86736  18.611   8.125  23.167 -0.1163  0.0539 -0.0804
11749W        W86737  15.300  32.715   5.761 -0.0470  0.0999  0.2918
11750W        W86738   4.724  14.585   3.391 -0.2039 -0.0809 -0.0898
11751W        W86739   8.883   2.543   1.125  0.0765  0.0775 -0.3296
11752W        W86740   2.761  14.188   2.699 -0.0734 -0.0670 -0.0340
11753W        W86741  23.289  12.282   3.275 -0.4834 -0.2213  0.1309
11754W        W86742  29.690   3.413   3.484 -0.0387 -0.0175  0.0845
11755W        W86743  34.197   8.220  12.398  0.2135 -0.1539 -0.2261
11756W        W86744   7.905  22.564  11.709 -0.0861  0.0692 -0.1749
11757W        W86745  13.061   7.915  23.090  0.0744  0.0439 -0.1845
11758W        W86746   4.442  27.294  24.659 -0.1455 -0.0067 -0.0875
11759W        W86747   5.593  32.927   5.282 -0.3664 -0.1744  0.1926
11760W        W86748  19.789  29.416  24.906  0.1814 -0.0010 -0.0188
11761W        W86749   2.632  30.601   2.674  0.2501 -0.1105  0.0734
11762W        W86750  33.035   7.362   3.499  0.1931 -0.0451 -0.0264
11763W        W86751  10.417  25.528  15.924  0.1274 -0.1329 -0.0672
11764W        W86752  28.022  32.651   2.480  0.2720 -0.1627  0.2610
11765W        W86753   3.626  29.127  21.176 -0.2520  0.0801  0.0717
11766W        W86754  12.488   0.544  19.224  0.0005 -0.2415  0.0583
11767W        W86755   3.410   6.555  22.524  0.0237  0.2400  0.0785
11768W        W86756  13.871  31.402  12.434 -0.0274  0.0334 -0.2299
11769W        W86757  12.620  22.941  12.447 -0.3183 -0.0189 -0.0613
11770W        W86758  30.937  30.851  15.603  0.0274 -0.3190 -0.2198
11771W        W86759  18.392   3.403  16.749  0.0407 -0.1234 -0.0153
11772W        W86760  15.577   6.137   7.545  0.1833  0.0118  0.1565
11773W        W86761  32.278   0.340  23.892  0.3010 -0.1602  0.4582
11774W        W86762  30.195  29.494   1.541 -0.1084 -0.1574  0.0529
11775W        W86763  15.625  11.348  25.331 -0.2934  0.0346 -0.1649
11776W        W86764   5.724  20.668  20.996 -0.0843  0.1177 -0.1949
11777W        W86765   0.350  10.529  20.358  0.0480 -0.0853  0.1172
11778W        W86766   6.559   1.808   5.792  0.1533 -0.2142  0.2976
11779W        W86767  19.421   4.393   0.300 -0.2755 -0.1381 -0.0658
11780W        W86768  31.157  35.104  15.470 -0.1203 -0.0910 -0.1848
11781W        W86769  31.541  10.427  24.459 -0.0078  0.1449  0.0430
11782W        W86770  13.424  19.664   3.856  0.0391 -0.0969 -0.0947
11783W        W86771  25.057   0.631  21.112  0.2207 -0.0807 -0.0389
11784W        W86772   6.235   6.095   8.449 -0.1644 -0.1027  0.0784
11785W        W86773   7.320  29.030  21.543 -0.1265 -0.0689  0.2077
11786W        W86774   7.206  23.110   5.710  0.1117 -0.0475 -0.1011
11787W        W86775   5.679   7.044  11.125  0.1265  0.1511 -0.0646
11788W        W86776  15.567  18.663   5.525  0.4755 -0.0173  0.0653
11789W        W86777  17.558  21.709  12.482  0.1692  0.0013 -0.2491
11790W        W86778  20.325  14.579   5.573 -0.0049 -0.0537  0.0191
11791W        W86779  22.773  28.066  22.484 -0.0170 -0.2108 -0.2223
11792W        W86780  32.716  26.007  20.373  0.1552  0.2030 -0.0883
11793W        W86781   4.126  26.807   7.295 -0.0726 -0.0751 -0.3520
11794W        W86782   2.877  21.226   3.660  0.1273  0.1322 -0.1808
11795W        W86783  31.664  20.885  16.459 -0.2393  0.2573 -0.2721
11796W        W86784  14.280  24.485  24.053 -0.5323 -0.5074  0.0692
11797W        W86785   7.035  19.601  10.145  0.2505  0.0134  0.0289
11798W        W86786  20.695  26.785  19.280  0.0272  0.0350  0.1923
11799W        W86787  33.441   0.144  16.164  0.0517  0.0908 -0.2001
11800W        W86788  18.256  21.717   3.364 -0.0795  0.0379  0.1017
11801W        W86789  14.573  25.433   5.805  0.2592 -0.1074 -0.1829
11802W        W86790  28.219  19.543  15.182  0.1005  0.0076  0.0402
11803W        W86791   9.673  30.950   9.133  0.1831 -0.0191 -0.2432
11804W        W86792  10.590  19.461  22.448  0.2210 -0.3102 -0.0017
11805W        W86793  34.598   8.254  11.432 -0.2040 -0.1537 -0.3441
11806W        W86794  10.838  13.614  24.713  0.2937 -0.1288 -0.0746
11807W        W86795  18.598  25.093  21.983  0.0729  0.3540  0.4191
11808W        W86796   8.524  13.247  20.400 -0.3238  0.0578 -0.1418
11809W        W86797  34.882   1.164  15.321 -0.0518  0.1968 -0.2754
11810W        W86798  14.273  13.807  23.311  0.0687 -0.3401 -0.0195
11811W        W86799   1.110  19.597  14.873  0.4596  0.1571 -0.1153
11812W        W86800  30.046   7.645  18.258  0.0212 -0.0033 -0.2509
11813W        W86801   2.735  23.016   4.193 -0.1969  0.1353 -0.2985
11814W        W86802  17.711  10.429   1.925 -0.2225 -0.0169 -0.3086
11815W        W86803  28.144   5.629  17.414 -0.3879 -0.3391 -0.2218
11816W        W86804   4.989   1.191   0.208 -0.1886  0.1726 -0.0306
11817W        W86805   7.749   9.485   4.540  0.0886  0.0555 -0.0140
11818W        W86806  20.589  30.106   1.570 -0.0794  0.0657  0.3371
11819W        W86807  28.378   9.916  14.674  0.1529 -0.2669  0.1292
11820W        W86808   8.534  13.739   8.572  0.0162 -0.0265 -0.0463
11821W        W86809   0.302  22.862  19.194 -0.2004 -0.1437  0.0908
11822W        W86810  30.356  17.002  10.795 -0.1558  0.0313  0.3221
11823W        W86811   8.125  28.045  11.950 -0.0147 -0.1448 -0.1219
11824W        W86812   9.763   8.495  12.704 -0.6682 -0.0992  0.2332
11825W        W86813  22.297   8.710   5.347 -0.0446 -0.0364  0.0408
11826W        W86814  25.583   0.473  18.690 -0.0275  0.0766 -0.1497
11827W        W86815  10.257   5.895   1.066  0.2386 -0.0101  0.2311
11828W        W86816  22.768   9.668  17.338  0.1718  0.0943 -0.2144
11829W        W86817  33.136  28.326  14.567 -0.1860  0.1541  0.1043
11830W        W86818   0.337  21.587   1.915 -0.0153 -0.3250  0.0145
11831W        W86819  32.864   1.010   7.022 -0.3226 -0.2044 -0.2447
11832W        W86820  17.973  23.493   8.658 -0.1690 -0.2812  0.0580
11833W        W86821   3.939  31.213  10.303 -0.2643 -0.1802  0.0253
11834W        W86822  32.988  32.218  14.947 -0.1179 -0.0777 -0.3834
11835W        W86823  12.970  20.875  22.969 -0.0362  0.0176 -0.1282
11836W        W86824  26.593  13.236   6.272  0.0812  0.0137 -0.1656
11837W        W86825  26.030  14.376  12.946 -0.2511 -0.0334 -0.0977
11838W        W86826   0.163  24.936  17.540  0.0484  0.1398  0.0557
11839W        W86827  28.435   9.933  11.859 -0.1344 -0.1910  0.0881
11840W        W86828   3.632  34.325  25.144  0.0571 -0.0164 -0.2767
11841W        W86829  28.697  32.478   0.466  0.0717 -0.3335 -0.0695
11842W        W86830  22.023  33.719  20.402  0.0052  0.0175 -0.2788
11843W        W86831  18.379  12.188  19.052  0.0015  0.3109 -0.0330
11844W        W86832  16.085   7.937   0.366  0.1717  0.0597 -0.0531
11845W        W86833  14.281  16.702   3.028  0.0248  0.1875  0.1419
11846W        W86834  21.621  29.520  15.009  0.0233  0.1425  0.0745
11847W        W86835   0.092  35.191  23.310 -0.0298  0.0398 -0.2635
11848W        W86836  24.357  23.548  26.118 -0.0852  0.0779 -0.3322
11849W        W86837  14.325  27.976  23.065 -0.4375 -0.0199 -0.1137
11850W        W86838   1.532   6.221  15.033  0.1384 -0.0708 -0.2898
11851W        W86839  17.044  28.110  24.616  0.2603 -0.2225 -0.0975
11852W        W86840  19.009   5.185   9.739  0.0229  0.0384 -0.1776
11853W        W86841  13.603  18.886   1.921 -0.0461 -0.1356 -0.2386
11854W        W86842  18.594  28.231   4.674 -0.1039 -0.0540  0.0983
11855W        W86843   4.644  31.173  21.837 -0.3049  0.1501 -0.1696
11856W        W86844   7.801  30.593  14.750  0.2611 -0.0592  0.2204
11857W        W86845   8.355  25.351  23.861 -0.2158  0.0099  0.1907
11858W        W86846  10.205  15.894  19.574 -0.0478  0.1006  0.0552
11859W        W86847  17.640  21.949  23.251  0.1250  0.0263 -0.1806
11860W        W86848  19.114  11.629  23.884 -0.1042  0.1928 -0.2713
11861W        W86849   6.667  32.384   2.958 -0.2178  0.2197  0.2074
11862W        W86850  27.786  11.977   1.061 -0.0433 -0.0174  0.1469
11863W        W86851  20.667  21.307  20.570 -0.2734  0.1356 -0.1578
11864W        W86852  21.766   1.153   0.713 -0.1528  0.1353 -0.0448
11865W        W86853  26.685  26.980  24.789  0.0928 -0.2298 -0.0362
11866W        W86854  23.208   7.113   0.350 -0.0110  0.2584  0.0138
11867W        W86855  35.214  27.138   2.401 -0.3235 -0.0638  0.1617
11868W        W86856  16.177  18.170   0.533 -0.0492 -0.0619  0.0930
11869W        W86857  31.673  32.224  17.860  0.0540  0.2663 -0.0618
11870W        W86858   3.370   8.462   4.916 -0.0283  0.0841  0.1215
11871W        W86859  26.280   7.323  17.800  0.0712 -0.1779  0.0517
11872W        W86860  11.764  15.621   3.071 -0.0427 -0.0568 -0.2527
11873W        W86861  15.799  12.167  24.829  0.0546 -0.1926  0.0236
11874W        W86862   8.740  25.852  12.430  0.0890  0.2545  0.2048
11875W        W86863  28.912   5.755  12.259 -0.0590  0.1846 -0.2383
11876W        W86864  31.306  33.589  19.039  0.1451 -0.0512  0.0516
11877W        W86865  27.280   8.925  20.750 -0.3536  0.0638 -0.0319
11878W        W86866  13.853  13.093   8.562  0.0697 -0.0523  0.2869
11879W        W86867   7.424  29.631  15.584 -0.0095  0.2153 -0.0158
11880W        W86868   8.322   9.588  25.783  0.4647  0.1620 -0.0537
11881W        W86869  19.523  28.135   5.595  0.0904 -0.0276 -0.0394
11882W        W86870   5.929  32.230   4.951  0.4150  0.4729  0.0081
11883W        W86871   3.472  30.421  12.453  0.1219 -0.3065  0.3228
11884W        W86872  14.723  29.002  14.895 -0.0814  0.1188  0.4232
11885W        W86873  20.774   8.107   1.796 -0.3078 -0.1351 -0.1215
11886W        W86874  19.230  34.953  25.973 -0.1065  0.2729 -0.1670
11887W        W86875  23.489  26.413  26.230 -0.1056 -0.2081  0.2639
11888W        W86876   4.104  27.583   2.219 -0.0927  0.1468 -0.0286
11889W        W86877   8.155  10.247   7.727 -0.2604 -0.5635 -0.1084
11890W        W86878  20.732  25.289   3.281  0.3802 -0.0512 -0.2812
11891W        W86879  14.953   5.859  19.830 -0.3339 -0.2520 -0.0742
11892W        W86880  17.448  11.436   5.840 -0.2277  0.0204  0.2137
11893W        W86881  10.857  33.364   5.346  0.0597  0.2864 -0.2339
11894W        W86882  13.766  27.462  15.335 -0.2929 -0.4469  0.1060
11895W        W86883  15.443  14.204  19.403  0.0496  0.0440  0.0914
11896W        W86884  26.363  33.955   0.126 -0.0941  0.1369  0.0594
11897W        W86885  21.613   6.209   6.349  0.0620  0.3584 -0.0972
11898W        W86886   1.349   0.520  22.192  0.0524  0.2560  0.0247
11899W        W86887   3.516   6.479  18.443 -0.3336  0.1890 -0.1145
11900W        W86888   6.659   8.253   7.784 -0.2305  0.2620  0.0206
11901W        W86889  29.643  28.439   2.302  0.0662  0.0427 -0.2175
11902W        W86890  17.953  22.047  26.121  0.0248 -0.0649 -0.0434
11903W        W86891  32.353   7.692  22.296 -0.0518  0.0229  0.1101
11904W        W86892  12.248  17.942   3.275 -0.0836  0.1238 -0.2205
11905W        W86893  23.120  31.550  17.524  0.0123 -0.2650 -0.2127
11906W        W86894  19.578   5.452   7.211 -0.0352 -0.2887  0.0640
11907W        W86895   6.572  16.611  21.667  0.0262 -0.2007 -0.2725
11908W        W86896   9.595  13.156   2.426 -0.0096  0.2144  0.0078
11909W        W86897  24.370  33.344  16.176 -0.3716 -0.0917 -0.0980
11910W        W86898  11.923  23.469  16.114  0.0429  0.1238  0.1093
11911W        W86899   6.084   1.883   3.456  0.0863  0.4703  0.3003
11912W        W86900  22.019  26.050  24.279 -0.0156  0.4223 -0.2572
11913W        W86901  18.491  33.327   3.290 -0.1184 -0.2441 -0.0372
11914W        W86902   4.349   2.085  11.538  0.3113  0.2483 -0.0684
11915W        W86903  12.152  22.260   3.338 -0.0814 -0.1093  0.0793
11916W        W86904   4.883  14.990   6.944  0.0663 -0.2713 -0.0702
11917W        W86905  22.762   1.518  17.198 -0.1269  0.0236  0.0708
11918W        W86906  13.057  34.592  23.294  0.1001  0.0312 -0.2775
11919W        W86907  25.947   9.046  23.489  0.1074 -0.0450  0.2695
11920W        W86908  27.902  33.606   3.348 -0.2559 -0.0147  0.0081
11921W        W86909  24.224   7.285  22.825  0.1659 -0.4337 -0.1582
11922W        W86910  26.346  30.850   2.084 -0.1684 -0.0684  0.1947
11923W        W86911  24.311   2.951  25.872 -0.0561  0.2726  0.1818
11924W        W86912   0.875  18.804  22.107 -0.1242  0.0967 -0.2076
11925W        W86913  18.924  17.745   5.711 -0.0572  0.0690 -0.2305
11926W        W86914  14.847   9.481   2.576  0.1283 -0.1304 -0.0809
11927W        W86915   5.355  18.826   3.767 -0.0225 -0.2008 -0.1166
11928W        W86916  19.366  30.596  22.080 -0.2676  0.0915 -0.1560
11929W        W86917  27.312  27.523  25.999  0.0718 -0.0925  0.1226
11930W        W86918  25.122  11.794  13.824  0.1804  0.2185 -0.1409
11931W        W86919  14.242  21.609   4.157  0.0857  0.0898  0.1668
11932W        W86920  27.107   6.933   3.137  0.1246 -0.0566 -0.0084
11933W        W86921  12.445  17.827  22.417  0.3542 -0.0811  0.1908
11934W        W86922  10.588   7.298  14.274  0.1635 -0.0810 -0.0918
11935W        W86923  33.143  28.017  17.772  0.0480 -0.0433  0.3096
11936W        W86924  13.428   9.958  14.581 -0.0446  0.1623 -0.1121
11937W        W86925  24.769  15.111   8.703 -0.1605  0.1827  0.1349
11938W        W86926  19.952   1.096  20.889 -0.0474  0.2826 -0.1498
11939W        W86927   3.791   0.572  25.718  0.0062  0.1102 -0.1198
11940W        W86928  34.016  33.912  22.268 -0.0136 -0.0318  0.3109
11941W        W86929  21.402  21.170  18.800 -0.1490  0.0713  0.0211
11942W        W86930  14.648  16.051  23.520  0.1913 -0.3450 -0.0120
11943W        W86931  23.097  10.459  15.263  0.2296  0.2383 -0.1091
11944W        W86932   2.454  19.683  17.011  0.0637  0.1230 -0.1040
11945W        W86933  25.073  12.859   1.688  0.0303  0.5237  0.1522
11946W        W86934  15.798  21.655  13.458 -0.3791 -0.0854 -0.0169
11947W        W86935  11.748  16.086  14.164  0.2439 -0.1683 -0.0818
11948W        W86936  34.063  15.860  19.641  0.2716 -0.2121  0.0052
11949W        W86937   8.884   0.469   7.966 -0.0581  0.0665 -0.0430
11950W        W86938  30.925  10.907  14.554 -0.0647 -0.1986 -0.2971
11951W        W86939  31.035  18.945  24.050 -0.2386  0.1751 -0.2390
11952W        W86940  10.022  34.493   0.186 -0.0469 -0.1922 -0.0724
11953W        W86941  31.919  34.950  20.886  0.0218  0.1144  0.0613
11954W        W86942  22.985  31.769  21.055  0.0547 -0.0158  0.0952
11955W        W86943  34.325  12.452   0.466  0.1218 -0.1035  0.3767
11956W        W86944  14.430  32.520  10.269 -0.2551  0.1685 -0.0139
11957W        W86945  28.547  11.154   8.638  0.1135  0.0465  0.1161
11958W        W86946   3.073  16.333   3.419  0.1731  0.1536 -0.0652
11959W        W86947  16.840  33.584  18.215  0.0481 -0.1224 -0.0210
11960W        W86948   8.698  34.359   9.824 -0.0998 -0.1087  0.0699
11961W        W86949  15.428   3.066  20.676  0.1531 -0.1923 -0.0068
11962W        W86950   4.588   4.208   4.908 -0.3958 -0.1347 -0.0156
11963W        W86951  30.991   6.034  24.646  0.0371 -0.1548  0.0304
11964W        W86952   8.344  21.036  24.240 -0.1472 -0.1667 -0.1969
11965W        W86953  29.929   2.988  11.901 -0.2314  0.1056  0.1115
11966W        W86954  25.056   5.473   0.395 -0.2182 -0.2192 -0.0670
11967W        W86955  25.321   8.437  13.412 -0.0120 -0.1031 -0.2264
11968W        W86956  23.343   6.271  22.772  0.0768 -0.3075 -0.0218
11969W        W86957  29.270  16.580   5.314  0.0550  0.1136  0.0486
11970W        W86958  31.412  31.881  21.981 -0.0494  0.0613 -0.0053
11971W        W86959  19.097   1.046   0.944  0.0838 -0.2951  0.0104
11972W        W86960   7.861  35.198  23.411  0.3876  0.0460 -0.0053
11973W        W86961   8.022  29.753   9.709  0.0606  0.1279 -0.0303
11974W        W86962   0.037  32.389   1.317 -0.0608  0.2577  0.1066
11975W        W86963  23.439  31.279   4.682 -0.0093  0.1293 -0.0122
11976W        W86964   3.166  10.102  19.813  0.0672  0.2265 -0.3537
11977W        W86965  14.899   2.263  24.234 -0.1400  0.0475  0.2672
11978W        W86966  16.649   1.090   5.343  0.2197 -0.1613 -0.3154
11979W        W86967  12.411   6.981   5.434  0.1297 -0.1148  0.2049
11980W        W86968   3.874   5.828   3.139  0.2607 -0.1162 -0.4656
11981W        W86969  10.617  13.973  24.979  0.3273 -0.0797  0.1823
11982W        W86970   6.743  25.168  11.766  0.3232  0.1698  0.1280
11983W        W86971   7.560   1.023  21.797  0.4677  0.0040  0.0772
11984W        W86972   6.170   1.942   6.605 -0.3232  0.0506 -0.2582
11985W        W86973  14.053   1.465   2.041  0.1439  0.1651  0.3044
11986W        W86974  22.261  10.972  16.079 -0.1496  0.1170  0.0368
11987W        W86975  31.274  11.336   8.679 -0.0944  0.2065  0.2844
11988W        W86976  23.180  11.248  21.791 -0.1585 -0.2501 -0.0061
11989W        W86977  13.888  30.324  15.444 -0.2932  0.1366  0.1965
11990W        W86978  21.469  33.164   2.694  0.1234  0.0480  0.1969
11991W        W86979  11.242  21.621  25.162  0.4564 -0.1249 -0.0801
11992W        W86980  12.276  29.691  16.003 -0.0674 -0.1537  0.4349
11993W        W86981  22.538  25.452  18.633  0.0930 -0.0310 -0.0135
11994W        W86982  14.832  15.156   5.237  0.2785  0.0350 -0.0212
11995W        W86983  24.180  25.932  16.785 -0.0056  0.0204 -0.1692
11996W        W86984   5.574  23.720  24.136 -0.3905 -0.2069 -0.3326
11997W        W86985  32.667   9.793  14.202 -0.0790  0.3199 -0.0830
11998W        W86986  19.943   7.404  18.346 -0.3455 -0.0525  0.2579
11999W        W86987  15.982  34.682   4.569  0.0533 -0.0168 -0.0731
12000W        W86988  30.064  11.004  10.042  0.0286  0.1627 -0.1278
12001W        W86989   9.007  10.126   4.453 -0.0587  0.1789  0.1780
12002W        W86990  28.210   1.810  14.691  0.0308  0.0359 -0.1079
12003W        W86991   7.980   6.034   8.791  0.0718 -0.0490 -0.0052
12004W        W86992  33.130  18.344  24.242  0.0768  0.1116  0.1184
12005W        W86993  22.191   5.324   1.223  0.1484 -0.3852  0.1028
12006W        W86994  20.888  13.341  20.274  0.0719 -0.1187 -0.0234
12007W        W86995  27.238  10.366  15.726  0.1081  0.3120 -0.1631
12008W        W86996  25.790   2.626  23.880  0.1427  0.0196 -0.0703
12009W        W86997  13.534  34.808   1.552 -0.1566 -0.0122  0.0772
12010W        W86998  16.098  23.724   2.322  0.0504 -0.0539 -0.0347
12011W        W86999  13.738  32.671   3.949 -0.0194 -0.2164  0.0575
12012W        W87000  31.059  21.687  16.916 -0.2018  0.2557  0.2589
12013W        W87001  32.717  24.973  14.060  0.1401 -0.0818  0.3142
12014W        W87002  33.868   7.531   0.421 -0.1281 -0.2192 -0.0090
12015W        W87003  20.053  14.588  26.090  0.1424  0.1180  0.4195
12016W        W87004   8.688  17.650  12.624  0.1638 -0.1187 -0.2748
12017W        W87005  24.173  29.994  26.137  0.1015 -0.0742  0.1047
12018W        W87006  20.939   8.872  20.053  0.0493  0.0474 -0.1302
12019W        W87007  26.644  34.458  15.001 -0.0861  0.0545 -0.1120
12020W        W87008  19.196   8.678   0.606 -0.1954 -0.2197  0.3281
12021W        W87009   9.117  21.757  24.996 -0.0608  0.1547 -0.0965
12022W        W87010  12.090  25.569   4.896  0.1119  0.2196  0.0154
12023W        W87011  20.606   5.604  20.378  0.0344 -0.0156  0.0728
12024W        W87012  14.699  34.294   2.075 -0.1879  0.0241 -0.2637
12025W        W87013   5.431   1.594   6.445  0.1855  0.0949  0.2898
12026W        W87014  25.960  31.268  17.068  0.0446  0.0934  0.0238
12027W        W87015   0.651  29.980   4.114  0.2602  0.0923 -0.2715
12028W        W87016  16.414  28.073   2.787 -0.0249 -0.0873  0.0259
12029W        W87017  29.370  31.261  24.871 -0.3595 -0.2351  0.1620
12030W        W87018  18.770  23.177  12.564  0.3192  0.0680 -0.1797
12031W        W87019  30.011   9.688  17.349 -0.0085  0.0021  0.1067
12032W        W87020  25.921   8.927  12.418  0.0729  0.0845  0.1451
12033W        W87021  30.353  34.771  21.936 -0.4160 -0.2780  0.1163
12034W        W87022  12.065  25.498   4.388  0.3536  0.2527 -0.1876
12035W        W87023   1.980   2.173  17.061  0.1017  0.1027 -0.1248
12036W        W87024  14.312  27.092   9.764 -0.0983 -0.1348  0.1388
12037W        W87025  31.335  35.160   5.491 -0.0431  0.1467  0.0400
12038W        W87026  10.137  10.542  12.810 -0.2758 -0.0395 -0.1181
12039W        W87027   6.610   1.978  11.926 -0.1066 -0.2127 -0.0520
12040W        W87028   9.600  18.768   5.857  0.3718 -0.2381  0.0238
12041W        W87029  22.843  30.619  19.803 -0.2384  0.0346  0.1682
12042W        W87030  24.048  22.096   0.073 -0.0661  0.2427  0.0697
12043W        W87031  29.865  34.444  12.317 -0.0581 -0.4483  0.4671
12044W        W87032   6.953  15.919   9.152  0.0079 -0.0038  0.0197
12045W        W87033  24.721  26.682   1.146 -0.0974  0.0002 -0.1553
12046W        W87034  31.365  14.069  22.394 -0.0250 -0.0233  0.1813
12047W        W87035  22.758  13.186  24.852 -0.0662  0.1868 -0.1628
12048W        W87036   0.566  20.013  16.610  0.5377  0.1635  0.2411
12049W        W87037   2.240  18.034  20.895  0.0100  0.4020  0.0200
12050W        W87038  23.597  26.430  20.584 -0.2591 -0.0057 -0.2616
12051W        W87039   1.722  14.393  24.867 -0.0161  0.1724 -0.0909
12052W        W87040  26.809   1.755  20.261 -0.0517 -0.1255 -0.0623
12053W        W87041  18.698   7.628   4.704 -0.1875  0.1011 -0.0664
12054W        W87042  12.690   1.872  22.855 -0.1042 -0.1180  0.2871
12055W        W87043  26.019  24.818  12.291  0.0934 -0.0067 -0.0112
12056W        W87044  23.102  12.219  25.966 -0.0256  0.2054  0.1709
12057W        W87045  30.065  21.081   6.056  0.1813  0.1101 -0.1566
12058W        W87046  17.674   4.947   1.796 -0.0079 -0.1670  0.3054
12059W        W87047  22.429  32.483   6.034 -0.0989 -0.1916 -0.1308
12060W        W87048  34.462  17.397   9.599 -0.0156  0.0025  0.2707
12061W        W87049  33.767  31.493  25.648 -0.0205  0.1348  0.2906
12062W        W87050   8.718  33.100  21.240  0.2014 -0.0456 -0.1345
12063W        W87051  27.626  24.924  19.404 -0.0550 -0.0286  0.1381
12064W        W87052   7.634  20.720   5.291 -0.2026  0.3388 -0.1697
12065W        W87053  25.680   0.514   4.320  0.1003  0.4479  0.1395
12066W        W87054  20.702   3.415  21.854 -0.2038 -0.1963  0.0550
12067W        W87055  28.868  15.262  17.515 -0.0751 -0.0366 -0.0581
12068W        W87056  21.942   7.086  20.728 -0.0302  0.0967 -0.2908
12069W        W87057  29.081  21.876  19.161  0.0069  0.2657 -0.1764
12070W        W87058  26.944   7.202  15.484  0.0401 -0.1757 -0.3870
12071W        W87059  21.558  21.892  22.050  0.1586 -0.2313 -0.1673
12072W        W87060   3.945  20.435  23.345  0.2961  0.3169  0.1292
12073W        W87061  28.890   0.116  16.176 -0.2581  0.1659 -0.1471
12074W        W87062   8.351  31.208   0.319 -0.2502  0.1003  0.3550
12075W        W87063  12.647  32.211   2.691  0.1796  0.2740 -0.0782
12076W        W87064  13.018  29.242   5.264  0.0018 -0.3808  0.1474
12077W        W87065  17.411   8.552  10.497 -0.0282  0.0209 -0.2281
12078W        W87066  26.767  13.133  13.559  0.2869  0.1490  0.2765
12079W        W87067  22.230  14.807   1.002  0.0470 -0.0866  0.0070
12080W        W87068  25.525  16.936  13.565 -0.0087 -0.3766 -0.0520
12081W        W87069   2.572  18.713  16.961  0.2006  0.2292  0.0258
12082W        W87070  27.375  25.589  21.976  0.0341  0.2017 -0.2864
12083W        W87071  27.647   9.529  25.021  0.2248 -0.0478 -0.0858
12084W        W87072   0.536  22.037  18.614 -0.2389  0.2152  0.1996
12085W        W87073  30.010  19.762  11.139  0.1066  0.2399  0.4874
12086W        W87074  18.159   9.640   6.716  0.1000  0.5352 -0.1701
12087W        W87075   3.681  34.471  23.427  0.4109  0.4374  0.2040
12088W        W87076  19.612  26.479   8.039 -0.0053  0.2259 -0.2950
12089W        W87077  27.625  15.533   0.652 -0.2796 -0.0677 -0.4002
12090W        W87078  33.455   8.970   2.794  0.1122  0.2870 -0.2043
12091W        W87079  30.622  25.402   0.232  0.3856  0.0476 -0.0983
12092W        W87080  12.427  13.233  13.070  0.1904  0.0695 -0.2550
12093W        W87081  18.365  24.382  24.548 -0.0488  0.2683  0.2275
12094W        W87082  19.021   9.928  20.366 -0.4172 -0.5541 -0.0410
12095W        W87083   8.934   7.860  22.560 -0.2922  0.0881 -0.0063
12096W        W87084  24.359  22.913  20.173  0.0998 -0.1938  0.1147
12097W        W87085   4.928   8.827  21.363  0.1171  0.3009  0.0080
12098W        W87086  28.083  20.050  25.484 -0.0369 -0.1904 -0.2828
12099W        W87087  30.389  24.347  23.600 -0.0232 -0.1547  0.1773
12100W        W87088  15.573   9.735  19.611 -0.0744  0.0158 -0.1533
12101W        W87089  22.113  15.800   3.155 -0.3216 -0.2755 -0.1367
12102W        W87090  17.877  10.395   5.258  0.1833 -0.1134  0.0579
12103W        W87091  22.237  13.901  20.679 -0.1338  0.0689  0.3673
12104W        W87092  24.533  11.851   0.274  0.1605 -0.3805  0.0632
12105W        W87093  11.829  32.122   9.542 -0.1556 -0.0568  0.0452
12106W        W87094  11.269   0.945   0.482 -0.1720  0.4408  0.3197
12107W        W87095  12.579   8.506  25.729  0.1925 -0.0633  0.5207
12108W        W87096  24.736   6.543  12.594 -0.0053 -0.0662  0.0038
12109W        W87097   5.184  32.289  13.979  0.1150 -0.1190 -0.1236
12110W        W87098  34.009  18.111  10.500 -0.0864  0.2007 -0.1966
12111W        W87099  27.445  32.746  23.671  0.0267 -0.1324  0.0714
12112W        W87100  32.283   7.459  17.145 -0.4643 -0.1021  0.0185
12113W        W87101  32.159  21.874  17.011  0.1471  0.0910  0.3105
12114W        W87102  26.295  13.419   9.981 -0.1062 -0.0186  0.2159
12115W        W87103  13.699  10.163  24.517 -0.1323 -0.0045 -0.0763
12116W        W87104  29.899  34.082   3.343 -0.0618  0.2524 -0.0940
12117W        W87105  25.992   6.436   0.002  0.0353  0.0872  0.3310
12118W        W87106  30.443  17.674  24.988 -0.0694 -0.1628 -0.1728
12119W        W87107  25.024  34.436   1.473 -0.1730 -0.1450 -0.0111
12120W        W87108   9.322  15.891   2.515 -0.0305 -0.0073  0.2944
12121W        W87109  21.973  13.038   1.892 -0.1741 -0.2328 -0.0965
12122W        W87110   0.306   7.074  19.942 -0.1672  0.1192 -0.1228
12123W        W87111  34.911  18.903  17.542  0.3619  0.0599 -0.2072
12124W        W87112  26.667  23.659  18.879  0.2847  0.0378  0.2339
12125W        W87113   5.563  18.935   6.451 -0.1379  0.1656  0.0951
12126W        W87114  27.121  34.784  14.209 -0.0313  0.1834 -0.1473
12127W        W87115   8.626  28.388  12.801 -0.0772 -0.2364 -0.0315
12128W        W87116   3.987  32.554   7.966 -0.0049  0.1186  0.0717
12129W        W87117   1.288   1.138  16.751 -0.0634 -0.3559  0.1686
12130W        W87118  16.802  24.160  21.652  0.2147  0.0871 -0.1055
12131W        W87119  22.767  27.593   3.049  0.0051  0.2485  0.1155
12132W        W87120  22.116   5.784  20.210  0.0793 -0.0742  0.1308
12133W        W87121  28.835  20.213  10.640 -0.0700 -0.3279 -0.0371
12134W        W87122  23.049   4.986   2.147 -0.2612 -0.0889 -0.2114
12135W        W87123   4.424   3.641  18.507  0.2589  0.1624 -0.1108
12136W        W87124  35.248  17.190   7.326  0.0435  0.1647  0.2031
12137W        W87125  22.946   4.790  23.615 -0.1880 -0.1670  0.1572
12138W        W87126  26.706   8.872  18.478 -0.0264  0.2470  0.3309
12139W        W87127  13.439  22.822   4.008  0.1759 -0.2307  0.0344
12140W        W87128  25.261  12.883   9.438 -0.1712  0.1093 -0.2532
12141W        W87129  35.167   6.394   5.497  0.0490  0.1080  0.1569
12142W        W87130  20.687  12.478   4.493  0.4506  0.0334 -0.1833
12143W        W87131   2.319   4.998   7.688  0.0087 -0.0300  0.0143
12144W        W87132   2.463  11.289  21.618  0.2093  0.3025 -0.0062
12145W        W87133   4.336  29.995   6.061  0.0739 -0.2816 -0.0338
12146W        W87134  11.160  19.897  11.664  0.1471  0.4969  0.2749
12147W        W87135   1.736  17.264  22.882 -0.2736  0.2983  0.2131
12148W        W87136  32.491   6.724  17.719  0.0739  0.0118  0.0301
12149W        W87137  10.652  32.550  14.486 -0.1534 -0.3455 -0.0945
12150W        W87138  24.954  22.491  25.893 -0.0960 -0.0021  0.2174
12151W        W87139   5.307  31.258  23.526  0.1862  0.0043  0.0532
12152W        W87140  12.576  13.137  13.562 -0.2260 -0.1340 -0.0688
12153W        W87141  18.279   2.218  18.779 -0.0172  0.0341  0.0144
12154W        W87142  21.416  25.582   2.832 -0.0399 -0.1456 -0.0872
12155W        W87143  22.799  32.920  22.589  0.0759 -0.0889 -0.1889
12156W        W87144   3.592   9.677  20.422 -0.1885 -0.1456  0.1812
12157W        W87145   6.466   8.880  11.061 -0.1535  0.0255  0.2044
12158W        W87146   6.110   5.909   4.252 -0.1623 -0.0972 -0.2862
12159W        W87147   1.382  26.160  17.905 -0.0656  0.0787  0.1881
12160W        W87148  29.783  28.564  26.236  0.0009 -0.0134  0.1967
12161W        W87149  11.373  29.917  24.581  0.4581 -0.1057 -0.0839
12162W        W87150  19.415  11.732  24.328 -0.1306 -0.2674 -0.3196
12163W        W87151   1.308  26.936  18.130  0.1148  0.0369 -0.0759
12164W        W87152  17.894  19.622  23.180  0.1386  0.1267 -0.1881
12165W        W87153  31.888   9.076  19.932 -0.3207 -0.0954  0.3677
12166W        W87154  12.946  23.325   4.197 -0.4411  0.1303 -0.1720
12167W        W87155   9.999  27.898   1.240 -0.1224 -0.0665 -0.1429
12168W        W87156  31.537  13.428  21.543 -0.1076 -0.2675 -0.1174
12169W        W87157   1.735  32.676  20.794  0.0426 -0.2433 -0.0907
12170W        W87158   4.820  28.159  23.585  0.0167  0.1297 -0.1296
12171W        W87159  31.828   1.667   1.323  0.1978  0.5464  0.0668
12172W        W87160  14.979  12.249   1.527  0.0601 -0.1872 -0.0948
12173W        W87161   5.092  31.372   2.485  0.0655 -0.2657 -0.0507
12174W        W87162  24.025  21.385  13.897 -0.2566  0.1309 -0.1346
12175W        W87163  19.584  27.414  18.015  0.1575  0.1563 -0.0621
12176W        W87164  14.013  21.924   3.090 -0.0867  0.2604  0.1252
12177W        W87165  21.545  12.892   4.306  0.1879 -0.1924 -0.2943
12178W        W87166  15.900  26.715  10.074  0.2144 -0.1839 -0.2970
12179W        W87167  32.949  13.506  10.719 -0.0170 -0.1495 -0.1120
12180W        W87168  19.003  23.137  22.358  0.3831 -0.1936  0.0915
12181W        W87169  14.519  14.425  20.439  0.2177  0.0303  0.2157
12182W        W87170  29.874   0.997  20.509 -0.1095  0.1546 -0.0744
12183W        W87171  31.804   2.251  25.641  0.0954 -0.0936 -0.0781
12184W        W87172  33.694  31.032   7.573 -0.1543 -0.1588  0.3264
12185W        W87173  24.715  18.334   0.917 -0.2203 -0.3030  0.2908
12186W        W87174   3.164  31.213  20.635 -0.3147 -0.2894 -0.2487
12187W        W87175  17.902   9.921   3.076  0.2806 -0.2422  0.2066
12188W        W87176  20.283  15.025  25.002 -0.2725 -0.1141 -0.2156
12189W        W87177  28.181   4.442  22.416  0.1136 -0.0304 -0.5604
12190W        W87178  18.374  25.440   7.398 -0.5911  0.0116  0.0233
12191W        W87179   6.833   1.241  14.293 -0.2640 -0.2459  0.0581
12192W        W87180  27.327  20.183  11.048 -0.1711 -0.0083  0.1639
12193W        W87181  10.010  32.442   7.803 -0.1106 -0.0050  0.5188
12194W        W87182  35.265  22.430  10.605 -0.1322  0.0918  0.3879
12195W        W87183  26.372  20.129  13.817 -0.1001 -0.1675 -0.1204
12196W        W87184   3.607   2.277   1.423  0.1281  0.1178  0.0543
12197W        W87185   4.660  23.415  21.388 -0.0107 -0.1647 -0.0516
12198W        W87186  11.997   3.387   9.227  0.0856 -0.1207  0.2067
12199W        W87187   8.833  24.746  22.987  0.1011  0.1424 -0.0972
12200W        W87188  22.261  20.496  25.322  0.1778 -0.1753  0.1744
12201W        W87189  27.752  12.540   8.020  0.0803  0.1407 -0.1815
12202W        W87190  20.787   1.275   2.250  0.1941 -0.1457  0.5442
12203W        W87191  11.436   3.694   7.198 -0.3187 -0.0118 -0.0173
12204W        W87192  25.099   1.690  25.034  0.1347  0.1154 -0.0939
12205W        W87193  26.182  27.373  23.345  0.0549 -0.0547  0.2970
12206W        W87194  28.106  20.694  22.752 -0.1158  0.2701  0.1863
12207W        W87195  12.804   6.754  10.798 -0.0110 -0.2667  0.4633
12208W        W87196  31.373  18.643  21.383 -0.1236  0.0006  0.1346
12209W        W87197   8.160  27.659  11.389 -0.2987 -0.2012  0.0903
12210W        W87198  12.985  11.329   5.231  0.2584 -0.0070  0.2349
12211W        W87199  18.013  24.350  21.971  0.2139  0.2669 -0.0467
12212W        W87200  20.679  31.628   5.379 -0.2744 -0.0120  0.2589
12213W        W87201   8.538  18.806  21.611  0.0926 -0.1635 -0.0104
12214W        W87202  27.257   5.172  24.017  0.1223 -0.0223  0.1450
12215W        W87203  27.427  21.634  23.181 -0.0046 -0.4885 -0.2151
12216W        W87204  16.686  15.538  22.788 -0.1043  0.1977 -0.0348
12217W        W87205  25.754   4.917  18.738  0.2588 -0.0348  0.3765
12218W        W87206   7.226   9.317   1.410 -0.4639 -0.0806  0.0122
12219W        W87207  27.492  32.734  25.423  0.0783  0.3211  0.0826
12220W        W87208  26.642   2.381  23.619 -0.3529 -0.0155  0.1623
12221W        W87209  20.842  32.177  15.829  0.0846  0.2445 -0.3308
12222W        W87210  34.033  29.874  16.277 -0.1039 -0.1263 -0.0822
12223W        W87211  11.188   7.017  10.560  0.1025  0.0325 -0.0206
12224W        W87212   3.793  27.504   2.647  0.1752  0.3623  0.0311
12225W        W87213   3.140  11.639  24.771 -0.0181  0.1576  0.2215
12226W        W87214  31.460  32.415   0.518 -0.0747  0.2223  0.0825
12227W        W87215  21.971  11.128  25.957 -0.1866 -0.1750 -0.1004
12228W        W87216  11.505   0.231  14.284  0.2628 -0.0254  0.1664
12229W        W87217  10.602   9.650  10.743  0.1734 -0.0203 -0.4792
12230W        W87218  10.840  27.410  25.192  0.2472  0.2305  0.3717
12231W        W87219  13.134  19.790   4.863  0.1619 -0.0239  0.4638
12232W        W87220  24.877  26.180   0.087  0.2205 -0.0146  0.2189
12233W        W87221  11.939  10.498  18.828  0.1620  0.0107 -0.0062
12234W        W87222   8.756  34.056   4.225 -0.0249  0.0175  0.1068
12235W        W87223   4.811   2.237  18.283 -0.0405 -0.0563 -0.1693
12236W        W87224  19.551  30.703  16.558  0.1515  0.3678  0.1930
12237W        W87225  31.007  10.638  25.612 -0.2896 -0.2115  0.0877
12238W        W87226  12.101   0.533   4.785 -0.1333 -0.0248  0.2269
12239W        W87227  13.961  24.042   2.890  0.1878 -0.2471  0.1488
12240W        W87228   7.598  29.431  23.111  0.1222  0.1789  0.2611
12241W        W87229   0.719   0.046   3.331  0.2313  0.0698  0.0749
12242W        W87230   2.465  34.380   3.635 -0.1706 -0.3297  0.1028
12243W        W87231   8.201  14.778  24.287  0.1274 -0.1566 -0.1526
12244W        W87232  25.799   6.121   0.876 -0.0001 -0.1087  0.3924
12245W        W87233  13.445  35.379   0.514  0.0409 -0.2891 -0.0163
12246W        W87234  27.937   4.725   0.047  0.2001 -0.1612 -0.2259
12247W        W87235   5.288   8.445   6.484 -0.0325  0.0986 -0.1760
12248W        W87236  14.815   2.967  21.531 -0.0168  0.3027  0.2971
12249W        W87237  31.814   2.868  18.242 -0.0621  0.0390  0.0282
12250W        W87238  13.457  24.286  25.803 -0.0870  0.0563 -0.0830
12251W        W87239  32.230  20.953  12.180 -0.0947 -0.0498 -0.1760
12252W        W87240   7.667   6.561   7.680 -0.2612  0.0638  0.4868
12253W        W87241  26.869  30.400  22.312  0.0159 -0.2358  0.0811
12254W        W87242  12.395  32.998   9.271  0.0085 -0.0945 -0.3050
12255W        W87243  20.138   8.492   2.955 -0.0582 -0.2724  0.3994
12256W        W87244  28.501  27.200   1.119 -0.3289  0.1440 -0.1232
12257W        W87245  11.708  13.914   4.560  0.0427  0.1882 -0.2491
12258W        W87246  25.122   2.746  25.657  0.1231  0.1542  0.4533
12259W        W87247  29.272  33.005  11.548  0.2561  0.0492 -0.2515
12260W        W87248   3.483   7.162   5.069  0.1581 -0.2398  0.2232
12261W        W87249  18.081   4.399  18.369  0.0191 -0.0843  0.1744
12262W        W87250   7.019  33.834   3.245 -0.0771 -0.1150  0.1381
12263W        W87251  20.326  34.013   4.304 -0.0423  0.0043 -0.0301
12264W        W87252  34.707  25.915  14.336 -0.2611  0.1027  0.0162
12265W        W87253  10.748   7.879   0.899  0.0237  0.0122 -0.0420
12266W        W87254  10.520  22.739  23.342 -0.1498 -0.0613 -0.0142
12267W        W87255   2.850   7.025  21.519 -0.3119  0.3099  0.0484
12268W        W87256   9.238   8.208  21.022  0.3421 -0.1101  0.2986
12269W        W87257   5.805   3.540   3.564  0.0147  0.2167  0.2137
12270W        W87258   2.223  17.869  10.191  0.1051  0.1327  0.0498
12271W        W87259  25.137   0.044  23.022  0.1632 -0.0977  0.2188
12272W        W87260  20.130  12.971  21.513 -0.0020 -0.3666 -0.2603
12273W        W87261  21.516  11.766  16.907 -0.1399  0.3715  0.1189
12274W        W87262   7.922  19.549  13.482 -0.1661 -0.1720 -0.1687
12275W        W87263  15.100   3.111  17.333  0.7401  0.3262  0.0426
12276W        W87264   3.955  31.969   2.145 -0.2556 -0.0352  0.1288
12277W        W87265  16.363  30.662   2.252 -0.2904  0.2015  0.0973
12278W        W87266  14.312  11.414  11.227 -0.0017 -0.0467  0.0272
12279W        W87267  12.606  31.208   6.738  0.1919  0.3527 -0.0289
12280W        W87268  13.669   7.747  24.947  0.0706  0.0846 -0.2213
12281W        W87269  13.712  20.724   0.431 -0.1409 -0.1864 -0.3562
12282W        W87270  15.649  31.701   4.446  0.1840 -0.0451 -0.1930
12283W        W87271   3.500  28.323  21.085  0.0916  0.6706  0.3552
12284W        W87272  32.178  35.150  15.329  0.0306  0.1409  0.1568
12285W        W87273  25.614  15.980   9.493 -0.1108  0.3047 -0.1545
12286W        W87274  34.778  10.166  22.656  0.2233  0.0143  0.0825
12287W        W87275  10.731  22.497  23.689 -0.1246  0.2731  0.1343
12288W        W87276  27.488  27.285  22.492  0.1529  0.0518  0.0933
12289W        W87277  10.243  12.974  23.268 -0.0626 -0.0653  0.0634
12290W        W87278  31.158  25.241  11.687  0.1816 -0.0532 -0.1983
12291W        W87279   4.338   6.552  19.360 -0.1084  0.2878  0.0590
12292W        W87280   3.839   6.723  21.587  0.2202  0.1683 -0.2559
12293W        W87281  27.795   6.766  22.134 -0.0149  0.0288  0.3284
12294W        W87282  24.147   7.982  16.046 -0.0361  0.0109 -0.3634
12295W        W87283   5.995  35.302   1.378  0.0499 -0.3253  0.1728
12296W        W87284  12.301   4.792   1.567 -0.4628  0.0091  0.0377
12297W        W87285   1.659   9.698   0.656 -0.2394 -0.1224  0.1829
12298W        W87286   4.572  12.185   1.220 -0.0922 -0.0139 -0.0006
12299W        W87287  28.254   6.800  11.825  0.1737  0.2274  0.1498
12300W        W87288  16.920  12.865   0.669  0.0972  0.0280  0.0420
12301W        W87289  28.285  10.477   6.781  0.1947  0.1998  0.0865
12302W        W87290   8.634  34.046  15.753  0.0105  0.1177 -0.3355
12303W        W87291  20.965   9.032  18.265 -0.0276  0.0599 -0.1487
12304W        W87292   2.093   5.137  20.625  0.1676  0.0582  0.0361
12305W        W87293   5.890  19.885   7.744  0.1183 -0.0443 -0.1377
12306W        W87294   8.016  27.629   0.614  0.1589  0.0366 -0.0272
12307W        W87295  15.823  33.446   6.576 -0.1618  0.0148 -0.1364
12308W        W87296  11.621  28.822   9.352  0.3589 -0.1143  0.1989
12309W        W87297  32.916  16.246  25.565  0.3298 -0.1869 -0.3405
12310W        W87298   6.819  12.040  25.774 -0.1776 -0.2127  0.1322
12311W        W87299  25.082  30.470  15.295 -0.1764 -0.0286 -0.1176
12312W        W87300   4.555  10.833  16.320 -0.1571 -0.1000  0.1632
12313W        W87301  10.518  30.660  10.526  0.1108  0.1595 -0.2499
12314W        W87302  32.688  21.675  21.077  0.0041  0.1076 -0.2311
12315W        W87303  21.786  32.883  14.208  0.0030  0.0267 -0.0724
12316W        W87304  24.616  19.401  20.934 -0.1678 -0.3860 -0.1736
12317W        W87305  25.250   5.440  14.920  0.0442 -0.0431 -0.0888
12318W        W87306   2.044  12.778  16.116  0.0545 -0.0155 -0.1538
12319W        W87307  33.430   5.566  25.287  0.3500  0.0267 -0.1300
12320W        W87308  21.084   8.291  25.983 -0.0513 -0.3745 -0.3291
12321W        W87309  10.196   0.519  24.710  0.0607  0.2525  0.2952
12322W        W87310   6.326  11.981  26.077  0.1167  0.0763  0.1751
12323W        W87311  32.796   6.899  17.315 -0.1918  0.0785 -0.1501
12324W        W87312   4.305  19.199   1.019 -0.5281  0.1937 -0.1577
12325W        W87313  14.873  26.591   1.668 -0.0925 -0.1198  0.2546
12326W        W87314  31.346  17.713  19.896 -0.0470  0.2118 -0.3588
12327W        W87315  18.819   7.970  26.102 -0.2607 -0.1609  0.3279
12328W        W87316  16.910  16.065   4.317 -0.0525  0.0298  0.0221
12329W        W87317  16.438   1.850  20.934 -0.2002 -0.1799  0.0103
12330W        W87318  30.041  32.681  20.786  0.1356  0.2515  0.1888
12331W        W87319  10.811  26.851  23.584 -0.0992  0.0439  0.0524
12332W        W87320  31.907  12.627   7.008  0.3430  0.0217  0.2925
12333W        W87321  13.245   1.759   5.622 -0.0893 -0.3124 -0.1753
12334W        W87322  32.475   3.216   6.908  0.2831 -0.1544 -0.2185
12335W        W87323  21.250  14.618  17.239 -0.2135 -0.0014  0.3821
12336W        W87324  22.443  33.468  18.762  0.1830 -0.1116  0.0639
12337W        W87325  24.332  13.932  13.247  0.2967 -0.2264 -0.0254
12338W        W87326  13.872  21.626  16.063  0.0057  0.2963  0.2454
12339W        W87327  29.774  19.681   9.528 -0.0340  0.2217  0.1187
12340W        W87328  19.126  33.209  21.274  0.0170 -0.1293  0.0221
12341W        W87329  11.239  22.244   6.960 -0.0377 -0.1450 -0.0773
12342W        W87330  14.401  10.405  25.482 -0.0427 -0.0509 -0.3469
12343W        W87331  10.444  27.639   6.689  0.0817  0.0720  0.0777
12344W        W87332  24.527  35.170   5.214 -0.2984  0.0296  0.1981
12345W        W87333  18.410  34.222  15.311 -0.0725  0.0745 -0.0107
12346W        W87334  14.896   8.463  23.282  0.0678  0.1241  0.1272
12347W        W87335  28.810  26.491   9.098  0.3347  0.0812  0.2607
12348W        W87336  27.430  16.432  16.595  0.1351  0.1723 -0.0391
12349W        W87337   9.359  24.427   8.740  0.1259 -0.3456 -0.2849
12350W        W87338  18.480  12.434  20.246 -0.1645 -0.1724  0.0896
12351W        W87339  25.705  24.735   9.756 -0.1108 -0.1581  0.0334
12352W        W87340  21.161  30.693  17.610  0.1590  0.1330 -0.1054
12353W        W87341  26.623  15.621   8.577  0.0749 -0.1659 -0.0303
12354W        W87342   7.406  12.625  20.650  0.2341 -0.2215 -0.4970
12355W        W87343  13.002  34.785   3.819  0.2004  0.3110 -0.0115
12356W        W87344  19.224  10.771  20.617  0.0028  0.0007  0.1965
12357W        W87345  26.527   5.163   1.976  0.0821 -0.4079  0.2106
12358W        W87346  23.474  20.055  13.105 -0.1692  0.0543 -0.0196
12359W        W87347  34.129   1.663  21.252 -0.2050  0.1669 -0.2712
12360W        W87348  19.572  28.126  19.433 -0.1066 -0.0531 -0.0224
12361W        W87349  19.184   3.981   8.576 -0.0557 -0.0047  0.1275
12362W        W87350   7.359  29.701  10.376  0.2032  0.1257 -0.0379
12363W        W87351  25.531  30.520  24.315 -0.2013 -0.3445  0.1995
12364W        W87352   9.244  19.090   8.612  0.1753  0.0939 -0.1366
12365W        W87353   5.837  29.790  22.880 -0.4244 -0.1498 -0.0481
12366W        W87354   7.817  33.040   4.937 -0.1258 -0.2881 -0.1275
12367W        W87355  34.346   9.020  25.996  0.0029  0.0074  0.0590
12368W        W87356  25.198  30.863  24.627  0.2420  0.0740 -0.1139
12369W        W87357  26.707   3.160   0.130  0.0868  0.0587 -0.1140
12370W        W87358   0.957   1.913  25.052  0.1081 -0.5685 -0.0353
12371W        W87359  34.182   3.907  21.000  0.1161  0.0363  0.0686
12372W        W87360  25.263  33.990  22.702 -0.1489 -0.1545  0.3305
12373W        W87361  32.714   7.204  16.354 -0.3644  0.1910 -0.0410
12374W        W87362  17.031  10.673   4.222 -0.2255  0.2449 -0.0398
12375W        W87363  24.986   1.726   4.470  0.3100  0.2272 -0.0220
12376W        W87364  25.519  27.162  20.758  0.0824 -0.1872  0.0259
12377W        W87365   7.277   9.171   4.193  0.1062 -0.1291 -0.1093
12378W        W87366   3.829  26.510   0.280 -0.3707 -0.1367  0.0833
12379W        W87367  18.036  33.370  16.088  0.0178 -0.1684 -0.1552
12380W        W87368  23.445  18.992  22.138 -0.0129 -0.1348 -0.1166
12381W        W87369  15.348  19.885   9.206 -0.0874  0.3864 -0.1170
12382W        W87370  11.399  13.851   1.560 -0.1398  0.0628  0.4058
12383W        W87371  12.652   4.640  20.373  0.1362  0.2332 -0.4317
12384W        W87372  15.803  21.865  12.625  0.1077  0.3410 -0.0479
12385W        W87373  32.382  29.487   3.541  0.0533  0.1208  0.0343
12386W        W87374  26.350  25.108  10.685 -0.0258 -0.0146 -0.1763
12387W        W87375  32.104   8.488  13.837  0.4588 -0.1775  0.0260
12388W        W87376  26.979  12.013  14.329 -0.0357  0.0176  0.1793
12389W        W87377  12.092   9.494  19.771  0.0333  0.0445  0.1635
12390W        W87378  32.779   2.852  18.018  0.0897 -0.1520 -0.0639
12391W        W87379  20.671  25.787   3.450  0.1242  0.1280 -0.1468
12392W        W87380  20.678  14.984   0.537 -0.0463 -0.0457  0.2235
12393W        W87381  25.061   2.574  21.360 -0.1714 -0.0177 -0.2635
12394W        W87382   4.241   7.847  22.217  0.1444  0.2847 -0.0392
12395W        W87383  17.047  14.172  23.835 -0.0250 -0.0751  0.2072
12396W        W87384  14.108   8.775  24.416 -0.0613  0.3968  0.0895
12397W        W87385   2.311  34.066   8.779 -0.1002  0.2409 -0.1006
12398W        W87386  22.261  12.917   3.828 -0.2915 -0.0865 -0.3473
12399W        W87387  24.067  30.314  20.033 -0.0235 -0.0331 -0.1277
12400W        W87388  20.117   0.796   4.107  0.0012  0.0560  0.0998
12401W        W87389  12.174   2.188  12.779  0.1464  0.3504 -0.0468
12402W        W87390  29.928  33.264  21.887  0.1710 -0.1022 -0.0416
12403W        W87391  23.678   2.288  17.774 -0.1272  0.2122  0.0835
12404W        W87392  22.297  19.798   0.066  0.2302 -0.0588  0.3129
12405W        W87393   8.424   2.407  11.140 -0.0252  0.5681 -0.2378
12406W        W87394  14.179  21.355  15.766 -0.4194 -0.0675 -0.0752
12407W        W87395  14.288   9.565   8.346 -0.0604  0.1829  0.2013
12408W        W87396  14.302  28.921   9.997  0.4065  0.1257 -0.2219
12409W        W87397  10.406  18.574  22.299  0.0889 -0.0563 -0.1016
12410W        W87398  11.874  31.481   7.748  0.0383  0.0567  0.0092
12411W        W87399  32.314  26.794  13.348 -0.0244 -0.0168 -0.0304
12412W        W87400  15.298  28.323  10.334 -0.0145  0.1655 -0.1510
12413W        W87401   8.252  19.981  10.552  0.0256 -0.1242 -0.4179
12414W        W87402  32.917  13.997  11.500 -0.0750 -0.2043  0.0295
12415W        W87403  21.490   2.381   0.198  0.0517 -0.0039  0.1323
12416W        W87404  12.704  11.261  20.399 -0.1106 -0.1596  0.1002
12417W        W87405  34.057   0.217  18.380  0.1766 -0.1450  0.0382
12418W        W87406  14.370   9.200  23.436 -0.1504  0.0731 -0.0483
12419W        W87407  11.371   1.915  21.807 -0.1152  0.1231 -0.2419
12420W        W87408   5.252   1.469  10.156 -0.0204 -0.1463 -0.0485
12421W        W87409  29.884  16.983  15.012  0.1210 -0.3476  0.0471
12422W        W87410  25.512  29.074  16.975  0.3074  0.0897  0.2550
12423W        W87411  24.460   2.965   3.793 -0.0561 -0.3593  0.1685
12424W        W87412   0.655   2.611  24.374 -0.1401 -0.0858  0.1827
12425W        W87413  20.248   0.950  20.024  0.1067  0.2777 -0.1261
12426W        W87414  11.991   9.205   2.694  0.0195 -0.2882  0.2003
12427W        W87415   0.585  19.351  24.793  0.3569  0.2782 -0.1137
12428W        W87416  33.013  13.173  19.243 -0.2529 -0.2285  0.1111
12429W        W87417  29.050  26.202  22.583 -0.0123  0.2783  0.1433
12430W        W87418  15.330  18.459  12.776 -0.2701 -0.1100  0.2887
12431W        W87419   6.673  14.024  20.387 -0.1947  0.0979  0.2078
12432W        W87420  24.942  27.368  17.148  0.1966 -0.0798  0.1886
12433W        W87421  32.408  19.765   8.151  0.0513  0.0269  0.1530
12434W        W87422  22.888  16.328  14.715  0.3140 -0.0782  0.1052
12435W        W87423  32.714  17.184  13.279  0.0541 -0.0283  0.2141
12436W        W87424  34.980   3.833  13.652  0.1788 -0.1692  0.2483
12437W        W87425  28.276  26.564  17.437 -0.1282 -0.3183 -0.0575
12438W        W87426  18.425  25.128   5.368 -0.2165 -0.3008 -0.0945
12439W        W87427   6.757  28.419  22.579  0.1059 -0.1108 -0.1296
12440W        W87428  14.090  33.360  12.642  0.0146  0.1800 -0.0418
12441W        W87429  18.278  23.489  19.925  0.3075  0.1975  0.3044
12442W        W87430  17.194   5.252  19.532 -0.1881  0.2270 -0.0779
12443W        W87431  29.602  25.734  15.781  0.0753 -0.0224  0.4689
12444W        W87432  28.870   0.797  22.799  0.0920  0.0683 -0.1612
12445W        W87433  16.850   7.630  19.892 -0.0827  0.3437  0.1471
12446W        W87434  33.274  18.661  12.914  0.4332 -0.0352  0.0530
12447W        W87435  10.734   4.917   3.922  0.0973 -0.0788 -0.0028
12448W        W87436   6.397   3.155  20.052 -0.0559 -0.1398 -0.2563
12449W        W87437  24.066  14.608  25.387  0.2353  0.2726  0.0416
12450W        W87438  20.786  13.366  20.877 -0.1350  0.4698 -0.4583
12451W        W87439  22.446  18.493  16.773 -0.2376 -0.2945  0.1091
12452W        W87440   7.390  19.695   3.859  0.2055  0.0515  0.1263
12453W        W87441  16.611  29.832  11.702  0.0091 -0.0613  0.1180
12454W        W87442  31.658   6.490  15.406  0.0722  0.1618 -0.1885
12455W        W87443   3.354  24.247   0.294 -0.2481 -0.1043  0.0728
12456W        W87444  27.251   0.191  12.842 -0.0742 -0.1441 -0.1189
12457W        W87445   5.239  14.487  18.281 -0.0208  0.0202 -0.1805
12458W        W87446  17.996   3.690  20.056 -0.2393  0.3419  0.2789
12459W        W87447   4.095  12.841  15.532  0.3374 -0.2524 -0.2544
12460W        W87448  20.828  18.769   0.456  0.1978  0.0509 -0.1661
12461W        W87449  28.581   0.036  23.754  0.5105 -0.2355  0.2501
12462W        W87450  28.481  33.777  24.852  0.0197 -0.0891  0.2544
12463W        W87451  19.035  13.404  23.614 -0.0354 -0.1022  0.1521
12464W        W87452   8.723  32.319   9.051 -0.3565  0.0188  0.3534
12465W        W87453  27.934  14.203   7.313 -0.0403  0.0435 -0.0572
12466W        W87454  24.132   5.066  16.222  0.2848 -0.1747  0.1745
12467W        W87455   0.657  11.664   1.359 -0.2264  0.1352 -0.0917
12468W        W87456  28.475  14.708  26.175 -0.3113 -0.0962  0.2377
12469W        W87457   2.062   0.809   6.501 -0.1734 -0.0566 -0.0401
12470W        W87458   8.509  12.517  18.726 -0.1934  0.0849  0.1182
12471W        W87459   7.281  16.835  22.247 -0.1658  0.3140 -0.0365
12472W        W87460  23.041  32.060   1.100 -0.1308 -0.1826 -0.0973
12473W        W87461  18.170  14.105  11.193 -0.0581  0.5004 -0.1157
12474W        W87462  11.669  27.715   8.482  0.4061  0.1714 -0.1409
12475W        W87463   0.080  15.241  12.582 -0.1821  0.2892 -0.0888
12476W        W87464  30.839  15.678   5.854 -0.0025  0.2774 -0.3156
12477W        W87465  23.759  18.221  23.349  0.1129  0.1034  0.0324
12478W        W87466   8.073  22.908   3.670 -0.0119  0.0948 -0.1016
12479W        W87467  11.087  18.766  24.997  0.1066  0.1196 -0.1414
12480W        W87468   4.601  30.478   5.958 -0.2347 -0.1533  0.1410
12481W        W87469  18.364  22.266  11.176  0.0504  0.4298  0.0169
12482W        W87470   1.122  33.798   1.912  0.0200 -0.1032 -0.4346
12483W        W87471  10.406  23.376   7.605 -0.2154 -0.0279  0.1066
12484W        W87472   3.271   2.776  25.796  0.1265  0.0123  0.3431
12485W        W87473  25.551  19.100  24.222  0.1390  0.1396  0.0832
12486W        W87474  15.517  34.454   5.772 -0.0888  0.4171 -0.4579
12487W        W87475  14.877  22.382  16.990  0.1787 -0.0076  0.1109
12488W        W87476  12.061   9.807   6.331 -0.0252  0.3754 -0.1944
12489W        W87477   1.937   7.636  18.671  0.3230  0.0444 -0.0583
12490W        W87478   9.839  22.037  22.274  0.0189  0.1113  0.1109
12491W        W87479   0.568  20.845   8.106 -0.0662 -0.2715 -0.1067
12492W        W87480   9.435  13.733  10.924 -0.1083  0.2114 -0.1945
12493W        W87481   8.569  12.853   6.570  0.1067 -0.3674 -0.1784
12494W        W87482   4.663  16.095  16.492 -0.1322  0.0917  0.0295
12495W        W87483  24.595  26.146   3.703  0.0777  0.1781 -0.1382
12496W        W87484   5.354  27.447  24.417  0.0492 -0.2141 -0.2772
12497W        W87485  19.487   5.335   8.416 -0.2340 -0.0278  0.1126
12498W        W87486   4.499  15.849   2.031  0.3077 -0.0019 -0.1578
12499W        W87487   0.452   2.420  24.722  0.1200 -0.0726  0.1054
12500W        W87488  31.282   3.763  18.817  0.1270  0.1488  0.1770
12501W        W87489   3.873   6.300   6.926  0.3036  0.0330  0.1431
12502W        W87490   4.232   2.120   7.100  0.0333  0.0116 -0.0641
12503W        W87491   8.812   0.163   7.527 -0.1724 -0.0507  0.1132
12504W        W87492  35.098   7.427  19.419 -0.0440  0.1888 -0.0139
12505W        W87493   8.158   2.064   1.050 -0.2093 -0.4085  0.0080
12506W        W87494  35.182  19.829   9.368 -0.3756  0.3136 -0.3437
12507W        W87495   3.455  27.942  10.826  0.0930 -0.0528 -0.1713
12508W        W87496   8.753   3.845   3.751 -0.1625 -0.1133  0.1641
12509W        W87497  26.213   3.048  20.552  0.1838  0.0888  0.1082
12510W        W87498  33.557  35.171  17.690  0.0912 -0.3604 -0.1815
12511W        W87499   9.864  33.761   9.488 -0.1719 -0.0094  0.0056
12512W        W87500  23.914  16.482  11.698  0.1644 -0.1910 -0.3070
12513W        W87501  31.370  13.133  20.887  0.4311 -0.0772  0.1275
12514W        W87502   8.813   8.378   6.285  0.0503  0.1907 -0.0844
12515W        W87503  21.082  23.301   6.538 -0.1603 -0.2483 -0.2417
12516W        W87504  31.561   4.897  12.423  0.0714  0.1957 -0.0610
12517W        W87505  18.598  29.461   2.194  0.1971  0.4171  0.0470
12518W        W87506  35.058  30.390  22.788 -0.1444  0.1171 -0.2795
12519W        W87507  11.295  17.724   9.772 -0.0172 -0.3147  0.1357
12520W        W87508  21.397  13.670  22.610 -0.2164  0.1708 -0.3546
12521W        W87509  27.899  26.889  14.311 -0.1374 -0.0901  0.0564
12522W        W87510   4.319   9.159  24.756 -0.1152  0.1813  0.1998
12523W        W87511  17.015  10.101   0.937 -0.1917  0.3666 -0.1050
12524W        W87512  27.622   6.013  15.824 -0.0610  0.2240 -0.0999
12525W        W87513   2.513  19.229   2.111 -0.1537  0.1084  0.1661
12526W        W87514  20.764  29.040  13.546  0.0942  0.0119  0.1839
12527W        W87515  24.089  22.252  15.118  0.2197  0.1219  0.1701
12528W        W87516   8.718  18.137   1.010  0.2629  0.1564 -0.1409
12529W        W87517  20.918   6.441  24.153 -0.1767 -0.0500  0.0074
12530W        W87518  11.772   3.129  12.791 -0.1095 -0.4881  0.1411
12531W        W87519  18.773   2.072  23.510 -0.0017  0.4110 -0.1710
12532W        W87520  22.414  14.400   1.374  0.0926 -0.2088 -0.3683
12533W        W87521   9.213  35.001   8.346 -0.2269  0.0201  0.1722
12534W        W87522  13.177   3.043  24.211 -0.3562  0.3079 -0.0451
12535W        W87523  14.675  14.304  24.125 -0.0491 -0.0066  0.0944
12536W        W87524   4.433  31.993  12.665  0.3146 -0.0539  0.1192
12537W        W87525  31.802   3.732  24.739  0.3977  0.1603 -0.0531
12538W        W87526  24.133  24.840  23.806  0.0632 -0.2705  0.3709
12539W        W87527   3.157   2.674  21.696 -0.4664  0.2099  0.0222
12540W        W87528  29.605  14.763  23.610 -0.2993  0.0603 -0.0187
12541W        W87529  10.823  26.364  13.463 -0.0537 -0.1148  0.1606
12542W        W87530  18.997  25.674   1.461  0.2167  0.1838  0.2155
12543W        W87531  32.738  30.982  21.795 -0.0689  0.1470  0.3441
12544W        W87532   9.827  31.186  21.606  0.0897  0.3584  0.0269
12545W        W87533  19.847   9.682  24.044 -0.1404  0.0941  0.2560
12546W        W87534  11.173  10.385  12.973 -0.1163  0.0499 -0.0049
12547W        W87535  12.637  11.093  12.344  0.0799 -0.2044  0.0841
12548W        W87536  11.519  25.938   2.183 -0.1869  0.0671  0.0450
12549W        W87537  24.614  30.447  16.373 -0.0605  0.1133  0.0634
12550W        W87538  23.948   4.859  23.697  0.0069  0.2441 -0.3597
12551W        W87539   3.834  17.295  19.263  0.1986 -0.1017 -0.1017
12552W        W87540   6.985  23.215  25.274  0.2594 -0.3524 -0.1997
12553W        W87541  14.533  18.748   9.307  0.0063  0.0488  0.1255
12554W        W87542  25.497  13.465   0.385  0.0112 -0.0094 -0.1108
12555W        W87543   3.866   9.413   7.602  0.3590 -0.1442 -0.1486
12556W        W87544  33.752  11.001  21.260  0.3527 -0.0179 -0.0017
12557W        W87545   7.500  10.031  24.017 -0.4602  0.0549  0.4400
12558W        W87546  20.589  28.424  19.143  0.1079  0.1292 -0.0054
12559W        W87547  11.589  31.521  11.854 -0.2098 -0.0417  0.1914
12560W        W87548  14.931   5.396  25.079 -0.3240  0.0166 -0.0478
12561W        W87549  25.566  28.901   2.247  0.2741  0.3582 -0.0804
12562W        W87550  33.368  20.147  15.550 -0.1222  0.2306  0.0926
12563W        W87551   7.760  29.078   8.034 -0.1599  0.0941  0.0374
12564W        W87552   4.719  21.686  19.307 -0.0528 -0.0140 -0.0837
12565W        W87553  31.793   6.429  24.589 -0.2549  0.3832 -0.0149
12566W        W87554  17.221  11.788  23.667  0.0254 -0.0924 -0.0424
12567W        W87555  22.952   9.248   5.546  0.3364  0.2512 -0.3644
12568W        W87556  13.274   6.868  24.965 -0.0184  0.0562 -0.2660
12569W        W87557  16.808  12.033  25.726  0.0986 -0.0569  0.3269
12570W        W87558  25.527  30.622  20.263 -0.0037 -0.1236 -0.1737
12571W        W87559  19.812  15.866   9.352  0.1653  0.1527  0.3692
12572W        W87560   8.662   9.563   7.945  0.0819 -0.2939  0.0307
12573W        W87561  27.989  18.610  22.291 -0.2238 -0.1912 -0.5244
12574W        W87562  33.961  12.927  20.647 -0.0321  0.0778 -0.0689
12575W        W87563   7.117   7.744   6.590  0.0895  0.0532 -0.2165
12576W        W87564   1.138  32.419   3.319 -0.1615 -0.2845  0.1512
12577W        W87565  17.120  27.835  25.471 -0.4722  0.1384  0.0827
12578W        W87566  13.784  32.948  21.931  0.2313 -0.4281  0.1422
12579W        W87567  16.290   6.472   1.815 -0.2279 -0.0041 -0.0013
12580W        W87568  10.028  27.373   9.724 -0.0625  0.1327 -0.2538
12581W        W87569   1.959   9.204   1.636 -0.1458  0.0205  0.0234
12582W        W87570  13.019  15.629  12.487 -0.2506  0.0026  0.0426
12583W        W87571  15.490  29.730   8.158 -0.0461 -0.0366  0.0915
12584W        W87572  23.475  27.930  24.593 -0.4701 -0.1240 -0.1418
12585W        W87573   8.331   4.835   1.405  0.1578 -0.0407 -0.2620
12586W        W87574  20.459  14.720  25.368 -0.1782  0.0136 -0.0893
12587W        W87575   4.724  15.871  20.252  0.1320 -0.0682  0.1628
12588W        W87576  22.755  20.084   0.259  0.1600 -0.4992  0.0891
12589W        W87577  25.103   0.415   2.925  0.0972  0.1285  0.2198
12590W        W87578  12.385  24.167  13.660 -0.0753 -0.0053  0.1160
12591W        W87579  32.284  24.801  10.542 -0.0916  0.3894 -0.0978
12592W        W87580  32.361  30.602  13.929  0.0696  0.0868  0.0975
12593W        W87581  28.981  28.876   3.560  0.3852 -0.1631 -0.3237
12594W        W87582  18.637  34.802   8.742 -0.2437  0.0918 -0.1292
12595W        W87583  27.989  23.043  16.971  0.2290  0.1057 -0.1239
12596W        W87584   1.388  26.435   0.272  0.1126 -0.1888 -0.0073
12597W        W87585   1.355  18.535  16.680 -0.1494 -0.0605  0.0312
12598W        W87586  24.623  28.955  16.811  0.0158  0.0798  0.1901
12599W        W87587  20.635   7.992  23.500 -0.0442 -0.1610 -0.0487
12600W        W87588  12.285  11.964   6.974 -0.0493 -0.3294  0.0543
12601W        W87589   9.550  33.044  20.999  0.4074  0.2277  0.2959
12602W        W87590   3.727   1.795   5.312  0.1532  0.1643 -0.0794
12603W        W87591  18.511  16.599   8.236 -0.3004  0.0416 -0.2176
12604W        W87592  22.175   5.049  21.930 -0.0374  0.1118  0.0667
12605W        W87593  33.896   7.927   3.653  0.0340 -0.0220 -0.4804
12606W        W87594  22.651  32.137  15.692  0.1595 -0.0520 -0.4098
12607W        W87595  27.256   5.944  18.895  0.2154  0.0202  0.1076
12608W        W87596  24.682   7.901   0.124  0.0659  0.0064  0.0220
12609W        W87597  30.656   3.087  26.193  0.0042 -0.0310  0.0448
12610W        W87598   7.864   1.203   9.800  0.1852  0.2912  0.0145
12611W        W87599  11.639  20.729   2.511  0.0772  0.2394 -0.0031
12612W        W87600  15.634   8.721  24.999 -0.0143  0.0712 -0.1274
12613W        W87601  12.606  11.643  24.384 -0.3628  0.1284  0.1060
12614W        W87602  18.392   4.096  10.771 -0.1197  0.1146 -0.0989
12615W        W87603  25.373  11.672  14.201  0.1519  0.2323 -0.3252
12616W        W87604  30.066   0.466  19.311  0.2176  0.3899 -0.0749
12617W        W87605  26.676  10.155  17.318 -0.0947 -0.0902  0.3378
12618W        W87606  11.024  28.870   8.870  0.2099  0.0777 -0.1448
12619W        W87607  23.255   5.885   4.027  0.0878  0.1689 -0.1153
12620W        W87608   6.735  33.451   1.066  0.1081 -0.1895  0.2329
12621W        W87609  10.064  18.618   4.841 -0.2082  0.1696  0.2246
12622W        W87610  28.944  15.016   4.023  0.0076  0.0523 -0.0444
12623W        W87611  27.987   8.891   8.708 -0.0456 -0.0343  0.1546
12624W        W87612  15.689   8.063   5.896 -0.2191 -0.0298  0.1016
12625W        W87613   6.050   2.507  18.242  0.5240 -0.0550  0.1533
12626W        W87614  11.347  11.449  11.271 -0.0682  0.2566 -0.3381
12627W        W87615  20.992   2.208  17.172  0.2604 -0.0100 -0.2598
12628W        W87616  16.869  14.783  25.859 -0.1026  0.0490 -0.0045
12629W        W87617  10.308   5.349   9.801 -0.0073 -0.1689 -0.1272
12630W        W87618   0.364  13.461  10.817  0.1014 -0.2256 -0.1176
12631W        W87619  26.909  18.841  10.068 -0.0676 -0.0493  0.1051
12632W        W87620  31.129  24.288  25.382  0.0299 -0.1099  0.1167
12633W        W87621   7.050  27.201   0.138  0.2769 -0.2720  0.1536
12634W        W87622  28.731  25.816  19.358 -0.1770  0.1918 -0.2122
12635W        W87623   7.213  25.148   5.206 -0.0178  0.1806  0.0122
12636W        W87624  17.864  15.301  20.852 -0.1555 -0.1829 -0.0548
12637W        W87625  12.583  22.156  11.261  0.1903  0.0930  0.2106
12638W        W87626  23.432  22.114  23.576 -0.3541  0.3318  0.1953
12639W        W87627   9.004  10.260  22.090 -0.0302  0.0935  0.1217
12640W        W87628  33.594  35.366  15.660  0.1464  0.1577  0.4161
12641W        W87629  12.371  27.362   4.287  0.0634  0.1092 -0.0003
12642W        W87630  34.442  13.656  15.430 -0.0144  0.0148 -0.0826
12643W        W87631  20.797  10.490  19.230 -0.0173 -0.0262 -0.1581
12644W        W87632  25.014   3.383  15.162  0.2831 -0.0581 -0.1662
12645W        W87633  34.775  32.984   6.816  0.3891  0.1329 -0.4277
12646W        W87634   2.757  19.945  17.312  0.0100 -0.1000  0.2290
12647W        W87635  10.054  19.328   1.872  0.1996  0.1442  0.0384
12648W        W87636  31.151  34.860  17.561  0.1434  0.0466  0.1269
12649W        W87637  17.428  24.252   6.441  0.0200  0.3405  0.1182
12650W        W87638  10.450  29.215  26.111 -0.0826  0.1386  0.2622
12651W        W87639  28.206  15.777  23.073  0.1454  0.0759 -0.1940
12652W        W87640  28.082  13.093  17.553  0.0894 -0.3044  0.0681
12653W        W87641   0.589  11.036  23.661 -0.1565 -0.0371  0.3350
12654W        W87642  15.202  26.645   0.962 -0.0595  0.2856 -0.0857
12655W        W87643  10.416  33.552  11.587 -0.2021  0.1567  0.2568
12656W        W87644   6.844  15.475  25.313 -0.0110 -0.0333 -0.1301
12657W        W87645  20.974  27.471   5.121 -0.0725  0.0107  0.1662
12658W        W87646  18.164  19.170  11.694  0.2007  0.0480 -0.2588
12659W        W87647  14.837  29.379   4.005 -0.1732 -0.2062 -0.4729
12660W        W87648  14.710  15.835  11.726  0.0053 -0.2562 -0.2517
12661W        W87649   8.773  26.747   8.466  0.0869  0.0524 -0.5129
12662W        W87650  31.203   3.394  15.393 -0.0849 -0.2467  0.1016
12663W        W87651   5.644   2.883  10.702  0.0318  0.3525 -0.0169
12664W        W87652  31.272  14.551   7.800 -0.0096  0.0006  0.0470
12665W        W87653   9.109  17.079   4.726  0.3470 -0.1019  0.3867
12666W        W87654  10.135  12.616   4.226 -0.2555  0.1435 -0.0312
12667W        W87655   3.340  34.723  20.508  0.1163 -0.0690 -0.3212
12668W        W87656   6.290  20.391  23.142 -0.1689  0.3019  0.4893
12669W        W87657  33.416  13.823  23.319  0.2108 -0.2485  0.3829
12670W        W87658   5.550  27.180   7.310 -0.0492  0.1274 -0.2280
12671W        W87659  15.721   0.742  22.048 -0.2271  0.0911 -0.0769
12672W        W87660  17.801  23.991  22.360  0.0356  0.1153 -0.0502
12673W        W87661  11.011  26.697  26.170  0.2297  0.1869 -0.0414
12674W        W87662  34.151  12.393  23.622 -0.0015  0.0128  0.3444
12675W        W87663  11.449  19.624   5.817  0.1121 -0.0415  0.1864
12676W        W87664   1.229   0.140   4.173 -0.2626  0.0031  0.0190
12677W        W87665  19.108  19.939   0.395  0.1065 -0.1491 -0.2477
12678W        W87666  25.858  17.885  19.839 -0.0559 -0.0992 -0.2326
12679W        W87667  10.305  33.104  22.579 -0.0150  0.0486  0.1108
12680W        W87668   1.359  34.839   3.669  0.0172 -0.0501 -0.0602
12681W        W87669  18.130  29.232   5.811 -0.2367 -0.2326 -0.0114
12682W        W87670  14.860  12.339  19.794 -0.2071  0.1997  0.1347
12683W        W87671  21.132  23.661  21.666 -0.0616  0.2175 -0.0838
12684W        W87672   9.384  20.924   9.426 -0.2085  0.1561  0.0136
12685W        W87673  15.600   9.701  11.192 -0.0330 -0.1598 -0.0377
12686W        W87674  24.346  33.960   4.050  0.1860  0.0909 -0.0893
12687W        W87675  11.263  26.649   8.231  0.1214 -0.2494 -0.1313
12688W        W87676  34.899   4.634  25.391 -0.0070  0.1566 -0.0648
12689W        W87677  33.158  13.527  16.144 -0.1917  0.1524  0.1938
12690W        W87678  19.797  30.118   6.794 -0.2744 -0.0859  0.1282
12691W        W87679  14.120   2.074   5.610 -0.0279  0.0613 -0.0017
12692W        W87680  29.187   0.411  12.797 -0.0195  0.1750  0.3547
12693W        W87681  34.174   1.059   0.879  0.0702  0.1964  0.0919
12694W        W87682   5.191  16.406   1.978 -0.0293  0.2227  0.1935
12695W        W87683   6.210   1.338  21.626  0.2947  0.0007  0.1820
12696W        W87684  11.397  21.059  11.574  0.2130 -0.1471 -0.0541
12697W        W87685   4.557  21.844   3.144 -0.1822  0.0652 -0.2914
12698W        W87686  28.554  22.258  10.872 -0.2095 -0.0047 -0.3592
12699W        W87687   6.919   8.585  25.161  0.2018 -0.4142  0.1596
12700W        W87688  23.120  25.648   1.293 -0.0127  0.0031 -0.0827
12701W        W87689   1.146  18.834  18.823  0.1264  0.1113  0.1040
12702W        W87690  14.455  34.171   1.257  0.2957  0.2107 -0.1180
12703W        W87691   9.705   6.419  21.463 -0.0517 -0.0497 -0.1603
12704W        W87692  29.929  26.873   0.663 -0.0982  0.0097  0.0820
12705W        W87693  34.876   7.224   4.513  0.1746  0.2208  0.1094
12706W        W87694  34.583  24.878  20.242  0.2812 -0.2283 -0.0210
12707W        W87695  20.344   4.978  16.328  0.1554  0.3331  0.3121
12708W        W87696  22.698  15.566  14.084 -0.4486 -0.2432 -0.1460
12709W        W87697   8.004   9.922  20.020 -0.1593  0.1288 -0.3378
12710W        W87698   6.824  11.316   8.408  0.2255  0.0937  0.2746
12711W        W87699   6.550   5.530  20.468 -0.1648 -0.2061 -0.0476
12712W        W87700  11.342   4.284   1.458  0.0971 -0.0499  0.1253
12713W        W87701  26.264   3.935  22.003 -0.4185 -0.1307 -0.2111
12714W        W87702  12.253  19.507   4.177 -0.2495  0.1475 -0.3334
12715W        W87703  28.219   8.541  14.126  0.1410  0.0533 -0.1219
12716W        W87704   1.932  20.142  21.197 -0.1701  0.1851  0.2098
12717W        W87705  11.239  29.753  23.133 -0.1358 -0.0439 -0.0752
12718W        W87706   8.912   3.164   4.094 -0.0477  0.1322  0.1381
12719W        W87707  26.391   5.763  11.915  0.0458  0.1642  0.3212
12720W        W87708  24.395   1.410  22.993 -0.1578  0.3087  0.1275
12721W        W87709  16.945   2.501   6.257  0.1254  0.1185 -0.0464
12722W        W87710  17.983  30.197  23.168  0.0551 -0.1698 -0.0757
12723W        W87711  30.730   5.172  15.779  0.1140  0.2504 -0.0375
12724W        W87712  28.067  33.244  14.450 -0.3258  0.0591  0.0260
12725W        W87713   3.711   7.170  21.829 -0.1567 -0.2633 -0.0325
12726W        W87714  32.646  22.105  16.372  0.1510  0.2981  0.0836
12727W        W87715  11.758  12.851   2.030 -0.1584 -0.0285  0.0108
12728W        W87716   7.125  13.103  17.805 -0.0457 -0.1027  0.1565
12729W        W87717   0.435  16.515  25.122 -0.1670  0.1082  0.2103
12730W        W87718  12.153  31.830  22.500  0.2305 -0.1746  0.0196
12731W        W87719   2.226   4.651  21.766  0.2923 -0.0010 -0.0713
12732W        W87720  21.446  10.553  20.788  0.0489 -0.0757  0.0782
12733W        W87721  27.134  20.577   6.835  0.0098  0.1293  0.1582
12734W        W87722  35.015  20.149  10.463 -0.0057 -0.0360  0.2795
12735W        W87723   8.223  31.724  13.191 -0.2730 -0.1401  0.2327
12736W        W87724  13.888  11.166  25.206  0.2346  0.0932 -0.2186
12737W        W87725  20.405  13.537   9.257 -0.2865  0.0846  0.1089
12738W        W87726   7.719  14.017  11.987  0.2958  0.0038  0.1404
12739W        W87727  30.254  20.650  13.712  0.1810  0.0552 -0.1933
12740W        W87728   0.894  15.714  16.505 -0.1824 -0.0743  0.1522
12741W        W87729  10.627  14.072  13.387  0.1209 -0.2520  0.2552
12742W        W87730  30.606  34.803  11.530  0.3383 -0.0895 -0.4215
12743W        W87731  32.821  17.310   7.337  0.0221 -0.1769  0.0723
12744W        W87732   1.840  20.217  26.010 -0.0042 -0.2701  0.0775
12745W        W87733  28.332  11.086  24.714 -0.0000 -0.3073  0.2202
12746W        W87734  10.357  13.057   6.317 -0.0666  0.3157  0.2390
12747W        W87735  31.521   0.700  19.359 -0.0139  0.1464 -0.1294
12748W        W87736  12.183  20.647  14.316  0.0415  0.0167 -0.3904
12749W        W87737  14.808  16.636  12.211 -0.0209  0.0417 -0.1779
12750W        W87738  21.285  22.225  25.142  0.0442 -0.0094 -0.2611
12751W        W87739  21.602  32.678   1.101 -0.4251 -0.0376  0.0587
12752W        W87740  15.288  34.428   9.164  0.0758  0.1562 -0.2710
12753W        W87741  29.924  27.842  14.636  0.4635  0.3378  0.0049
12754W        W87742  26.288  34.973   0.539  0.0866 -0.0993 -0.1284
12755W        W87743  26.058  27.167   2.298 -0.4163 -0.0870 -0.0650
12756W        W87744  31.691  23.922  25.554  0.3107  0.4912  0.1180
12757W        W87745   2.401  21.336   1.898  0.4871 -0.1153 -0.3560
12758W        W87746   3.625  22.088  24.821  0.2475 -0.2421 -0.4003
12759W        W87747  11.320   6.728  14.040  0.0750 -0.1016  0.2652
12760W        W87748  17.534  33.337   1.359 -0.0309  0.1989 -0.1754
12761W        W87749   8.095   0.865   6.015 -0.1449 -0.2820 -0.0679
12762W        W87750  29.409  21.457  10.344  0.2200  0.2624  0.2886
12763W        W87751   8.953  16.731   0.646  0.0282  0.3526  0.1199
12764W        W87752   9.458  10.024   0.650 -0.0166  0.0443 -0.1140
12765W        W87753  24.552   7.153  23.812  0.1157  0.0838 -0.2040
12766W        W87754  29.572   8.260  14.630  0.1068 -0.0599  0.3565
12767W        W87755  29.705  25.556  16.401 -0.4996 -0.0291  0.1058
12768W        W87756  25.579  13.903   9.449 -0.1292  0.3179  0.1856
12769W        W87757  24.366  10.363  24.789 -0.0248  0.3033 -0.2018
12770W        W87758  25.941  21.775  19.088 -0.0149 -0.1997  0.1543
12771W        W87759  10.325  19.080   0.520 -0.2780  0.2705 -0.0798
12772W        W87760  28.929  19.483  20.491  0.1297  0.1317 -0.0199
12773W        W87761  24.441  29.743   1.822 -0.2282 -0.1153  0.1628
12774W        W87762  12.472   2.819  20.812  0.1610  0.0022 -0.0284
12775W        W87763  23.606   3.307  14.564  0.2434 -0.0935  0.0627
12776W        W87764  19.529  11.531   8.736  0.0942 -0.2284 -0.0455
12777W        W87765  26.738  10.629  13.672  0.0358 -0.0870 -0.0358
12778W        W87766  12.118  28.545   1.177  0.3389  0.2041  0.3760
12779W        W87767  34.758  19.135  18.431  0.1852  0.3688 -0.1561
12780W        W87768  15.346   8.585   8.646 -0.0120  0.2459  0.1280
12781W        W87769  15.388  13.777  10.303 -0.0070  0.1148 -0.0324
12782W        W87770  11.769  24.288   7.666  0.0990 -0.0380 -0.3644
12783W        W87771  18.229  18.142  25.943 -0.0579  0.0415 -0.1918
12784W        W87772   0.072  21.130   1.159 -0.2388 -0.4131 -0.3735
12785W        W87773  15.241   1.030   9.187  0.1122  0.2471  0.2423
12786W        W87774  18.011  15.346  12.997  0.0270 -0.2435  0.0527
12787W        W87775  32.442  24.878  11.010 -0.1525 -0.2671  0.2879
12788W        W87776  13.974  16.945  22.349 -0.0090 -0.3270 -0.1257
12789W        W87777   3.161  33.987   1.433 -0.2764 -0.1847 -0.0012
12790W        W87778  20.079  12.954  22.658  0.0999 -0.2327 -0.1167
12791W        W87779  25.409  14.823  11.263 -0.3847 -0.1793  0.2635
12792W        W87780  29.944  23.923  19.996  0.2175  0.1351 -0.1117
12793W        W87781  28.008   6.543   2.448  0.0077 -0.2332 -0.0748
12794W        W87782  35.060   6.339  22.728 -0.1238  0.2031  0.0037
12795W        W87783  10.698  12.700   1.968 -0.0640  0.1181  0.1232
12796W        W87784   9.188  20.028  15.124 -0.1044  0.0132 -0.1803
12797W        W87785  11.329  28.579  13.063 -0.3294  0.3922 -0.1780
12798W        W87786  27.479  31.750   3.601  0.0927 -0.0907 -0.0654
12799W        W87787  28.700  22.303   6.303 -0.0013  0.0311  0.1480
12800W        W87788  25.197   2.168   3.684  0.1539 -0.1416  0.1851
12801W        W87789  18.453  32.121   8.446 -0.1041  0.2659 -0.4243
12802W        W87790  24.863   6.605  13.103 -0.2449  0.0333  0.2051
12803W        W87791   1.046   8.608  14.736 -0.2998 -0.0010  0.0672
12804W        W87792  18.236  19.967  25.961 -0.1048 -0.2203 -0.2609
12805W        W87793  21.786  33.186  21.902 -0.2409  0.2102  0.0245
12806W        W87794  30.269  13.650   8.620  0.2687 -0.4351  0.1478
12807W        W87795  14.538  31.050  14.409 -0.0272  0.2027  0.0556
12808W        W87796  12.483   2.585  24.351  0.2916  0.2494  0.2675
12809W        W87797   6.081  27.462   8.913  0.0569 -0.2637  0.3832
12810W        W87798  11.436  14.213  12.705  0.4030 -0.1917 -0.1967
12811W        W87799  13.810   7.627  12.571 -0.4880  0.1009  0.1706
12812W        W87800   2.731   3.369  18.408  0.2300 -0.2618  0.1236
12813W        W87801  15.324  20.450   5.740  0.1641 -0.6371 -0.0725
12814W        W87802   7.517  10.486   8.948  0.3176  0.2125 -0.2859
12815W        W87803  14.923   0.890   5.978  0.0155 -0.4183 -0.1228
12816W        W87804  10.123   2.991   6.286 -0.1178  0.0610 -0.0859
12817W        W87805  24.023  34.650  16.692 -0.0769  0.1077 -0.3480
12818W        W87806  26.246  20.678  20.363 -0.0643  0.1954  0.3445
12819W        W87807   0.706   6.400  20.896  0.1271  0.2031 -0.0799
12820W        W87808  30.550  18.058  15.176  0.1190  0.1859 -0.1474
12821W        W87809   4.428  14.198   1.163  0.0802  0.0998  0.0490
12822W        W87810   9.239  33.948  12.955  0.3764 -0.1481 -0.1096
12823W        W87811  24.130  28.240  15.910  0.0166 -0.0564  0.2204
12824W        W87812   9.173  33.552  11.971 -0.1355 -0.1471  0.2048
12825W        W87813  11.037  22.680  10.851 -0.0305 -0.0809 -0.1964
12826W        W87814  13.028  18.246  10.717 -0.0786 -0.0128 -0.0083
12827W        W87815   1.538  34.900   5.503 -0.1766 -0.4276  0.0902
12828W        W87816  12.340   6.708   3.948 -0.2099  0.3720 -0.1442
12829W        W87817  10.015  17.013  10.175  0.4219 -0.0304  0.2226
12830W        W87818  26.903  26.542   3.204  0.1092  0.0546  0.1460
12831W        W87819  10.416   4.710  12.168  0.0699  0.1018  0.1665
12832W        W87820   9.977   6.770  22.029 -0.1745  0.3723 -0.3213
12833W        W87821  22.897  34.437   0.643 -0.0298 -0.2988  0.0468
12834W        W87822   3.728   6.199   0.668  0.1354  0.0263 -0.1645
12835W        W87823  20.127  34.870  18.337  0.0285 -0.2622 -0.4474
12836W        W87824  20.450   6.510  25.853  0.1894  0.1995  0.2338
12837W        W87825   1.193  24.596   4.270  0.0718  0.0899  0.3298
12838W        W87826  27.175   7.446  24.049 -0.4113 -0.0548  0.1969
12839W        W87827  15.555  19.563  25.146 -0.1805 -0.0338 -0.3295
12840W        W87828   4.854  13.724  18.214 -0.0777  0.1689 -0.1083
12841W        W87829  29.082  18.493  23.346  0.1233 -0.1650  0.3083
12842W        W87830  16.489  31.411  24.471 -0.0366  0.1977 -0.0901
12843W        W87831  12.156  15.890  24.027  0.1449  0.1798 -0.1976
12844W        W87832   5.718  22.441   7.062  0.0235  0.2306 -0.0756
12845W        W87833   4.600  30.669   0.377  0.0047  0.2308  0.0060
12846W        W87834  11.906  29.896   3.618 -0.0312 -0.2006  0.1271
12847W        W87835   5.236   8.196  23.658  0.1344 -0.0154 -0.1186
12848W        W87836  22.623  27.613   0.968 -0.2331 -0.0139 -0.0793
12849W        W87837  30.397  10.265  13.907  0.2674 -0.0970 -0.0073
12850W        W87838   3.206   5.996   7.495 -0.1062 -0.3139  0.0704
12851W        W87839  24.673  16.116  19.969  0.0218 -0.1310 -0.2874
12852W        W87840  20.810  23.545  25.993  0.1080 -0.3248 -0.0058
12853W        W87841   1.025  26.220   2.290  0.0577  0.5549 -0.3699
12854W        W87842  19.479  29.120  20.479  0.3903 -0.0993  0.1868
12855W        W87843   2.848  30.286   6.939 -0.0862  0.0336 -0.0255
12856W        W87844  32.624  29.474   2.668  0.0841 -0.0712 -0.0070
12857W        W87845   7.520  11.427  19.191 -0.2245 -0.0065 -0.1601
12858W        W87846  14.044   3.474   7.576  0.3675 -0.1151  0.0298
12859W        W87847   0.536  19.675  17.910 -0.0749  0.0768 -0.2952
12860W        W87848  21.501  13.512  17.310  0.0160  0.0064 -0.0891
12861W        W87849   8.495   0.664  23.604  0.1849  0.0514  0.0172
12862W        W87850  10.262   2.969  22.191  0.1372  0.1918 -0.1553
12863W        W87851  19.619   7.695  19.069  0.3703 -0.1493 -0.0049
12864W        W87852  13.262   4.770  23.289 -0.0701  0.0052  0.0885
12865W        W87853  24.436  29.868  14.718 -0.1741 -0.1072 -0.0377
12866W        W87854  17.733  17.805  22.584  0.3436  0.1104 -0.1731
12867W        W87855   2.064  24.597  19.272  0.0917  0.2391 -0.0150
12868W        W87856  17.487  23.115   7.040 -0.5194  0.1647  0.1790
12869W        W87857  33.163   0.940  15.802 -0.3853 -0.0312  0.1365
12870W        W87858   8.968   1.890   1.480  0.1216 -0.1789 -0.0253
12871W        W87859  19.535  15.823   0.604  0.0950  0.1746  0.0345
12872W        W87860  33.898   6.272  17.430  0.1461 -0.0364  0.0311
12873W        W87861  10.910  12.801  23.661  0.1343  0.2316 -0.2208
12874W        W87862  18.300  14.523  23.729  0.1157 -0.1394  0.2107
12875W        W87863  26.245   6.345  19.779 -0.3769 -0.0300 -0.2657
12876W        W87864  13.498  34.374  10.491  0.1038 -0.0634  0.1133
12877W        W87865  29.822  15.871   6.036 -0.4393  0.0569  0.0889
12878W        W87866  10.947  27.431  15.661  0.0483 -0.2258  0.1267
12879W        W87867  27.179  35.237  14.860  0.2071 -0.1775  0.0132
12880W        W87868   1.231   4.028  23.251 -0.0596  0.1783 -0.1452
12881W        W87869  27.714  26.896  24.243 -0.2676  0.0054  0.0533
12882W        W87870   1.404   4.126   5.588  0.1193 -0.1538 -0.0566
12883W        W87871  12.172  34.584  24.262  0.1531  0.1965  0.0304
12884W        W87872  19.298  22.384  19.113 -0.1136  0.1140 -0.2188
12885W        W87873   7.330  35.350   7.031 -0.2633  0.4614  0.0243
12886W        W87874  27.119  14.686  10.474 -0.0855  0.2806 -0.2307
12887W        W87875  18.370  24.194   6.884 -0.0106 -0.4252  0.0813
12888W        W87876   4.249   7.433  19.222  0.3095  0.1326 -0.0974
12889W        W87877  32.747  16.960   8.405  0.0708  0.2742  0.1418
12890W        W87878  20.951  30.078  25.997  0.1063  0.0016 -0.4267
12891W        W87879  24.248   0.907  19.814  0.3206  0.1510  0.1580
12892W        W87880  30.034   2.055  13.338 -0.0959 -0.0622  0.0986
12893W        W87881  24.296  17.492  25.558  0.0216  0.0746 -0.1128
12894W        W87882  15.480   1.205   0.401  0.0073 -0.2537  0.0557
12895W        W87883  21.675  14.799  14.754  0.0222 -0.2552  0.0280
12896W        W87884  20.811  23.818   3.553 -0.1165 -0.1255 -0.3932
12897W        W87885  10.053  25.021  10.988 -0.2104  0.2398  0.0601
12898W        W87886  15.663  14.057   8.579  0.0449 -0.0449  0.1935
12899W        W87887   9.164   3.997   5.124 -0.0663 -0.3365  0.2787
12900W        W87888  25.819  31.523   0.068 -0.0730  0.0231  0.4035
12901W        W87889  11.568  32.932   5.607  0.1400 -0.1326  0.2586
12902W        W87890   9.736  32.084   0.939 -0.2344  0.3403  0.0633
12903W        W87891  29.280  32.693  23.248  0.1206  0.0709 -0.0120
12904W        W87892  12.947  25.811   4.556  0.0243  0.0419  0.0355
12905W        W87893   8.472   4.007  24.513 -0.1902  0.1923 -0.0680
12906W        W87894  35.371  14.902   9.237  0.0977  0.1532  0.1239
12907W        W87895  24.357  17.495  12.053 -0.1245 -0.0657 -0.1833
12908W        W87896  33.753   0.994   4.384 -0.0089  0.2126 -0.1340
12909W        W87897  24.711  20.959  13.613  0.1648  0.0222 -0.1881
12910W        W87898  16.205  10.320   5.277 -0.1041 -0.0343 -0.2016
12911W        W87899  28.388   5.891  18.625  0.1592  0.1468 -0.1379
12912W        W87900  18.102  34.958  22.831  0.1223 -0.1465 -0.1559
12913W        W87901  21.061   1.909   0.570 -0.1937 -0.0905 -0.4167
12914W        W87902  10.246   4.930   7.961  0.0647  0.0337  0.0053
12915W        W87903   8.591  15.488  10.715 -0.0109  0.2275 -0.2960
12916W        W87904  24.234   0.821  17.861  0.0049  0.0531  0.1931
12917W        W87905  15.682  30.691   5.009 -0.2613  0.1008 -0.2404
12918W        W87906  27.814   8.723  14.595 -0.3048  0.2402  0.1591
12919W        W87907  28.427  10.615  10.796 -0.0962 -0.0070 -0.2019
12920W        W87908  19.124   2.975  25.102  0.1080  0.2848 -0.0475
12921W        W87909  22.367   6.812  15.217  0.1910  0.0616  0.3057
12922W        W87910   0.336  17.772  25.982 -0.0596  0.3121  0.1462
12923W        W87911  14.835  22.332  23.607  0.1408  0.4711  0.0290
12924W        W87912  26.158  13.422  22.027 -0.2840  0.2169  0.2726
12925W        W87913  17.563  11.080   7.592 -0.2194 -0.0324 -0.0077
12926W        W87914   4.135   9.475  23.838 -0.0303  0.0008  0.0059
12927W        W87915   2.758  29.903  24.528  0.2094  0.1657 -0.2318
12928W        W87916   8.977  20.840   9.133  0.2660  0.0806 -0.0824
12929W        W87917   8.725  19.330   8.946  0.0104  0.0009  0.3251
12930W        W87918   1.210  14.484  24.935  0.4284  0.0239  0.0544
12931W        W87919  10.524  14.098   1.175 -0.0241  0.0450 -0.0490
12932W        W87920  27.163   1.320  25.214  0.1914 -0.0345 -0.3447
12933W        W87921   9.755   2.803   5.533  0.2015 -0.1514  0.2594
12934W        W87922  18.709   3.388   2.798  0.0642 -0.3168 -0.0931
12935W        W87923  34.523  21.797  19.237  0.0168 -0.0643  0.1804
12936W        W87924   6.776   7.730  19.597  0.0661 -0.1183 -0.1428
12937W        W87925  17.975  21.379  24.988 -0.1916 -0.1276 -0.1636
12938W        W87926   1.563  22.912  16.064 -0.0974 -0.1222  0.2188
12939W        W87927  34.373  35.138   4.489 -0.1555  0.1090 -0.0290
12940W        W87928  10.213  28.767  26.099 -0.0070 -0.1647 -0.0185
12941W        W87929  18.385  16.012  10.635 -0.1232 -0.2192 -0.1055
12942W        W87930  18.789  13.075  19.330  0.1477 -0.2129  0.0379
12943W        W87931  18.423  30.781   6.446  0.4053  0.1489  0.0717
12944W        W87932  18.057  16.135   2.261  0.1293  0.2645  0.1457
12945W        W87933   9.483  31.655  10.699  0.0443 -0.0104 -0.2839
12946W        W87934  30.950  27.643  20.330  0.0537  0.1092 -0.1474
12947W        W87935  28.864  19.209  25.144 -0.1423 -0.2316 -0.1303
12948W        W87936  30.901  27.223   8.845 -0.3441  0.2754 -0.1751
12949W        W87937  30.305  34.148  25.235  0.1464  0.1033  0.0403
12950W        W87938  12.904  30.471   2.211  0.0519 -0.4500 -0.0104
12951W        W87939   7.493  16.569   5.709  0.1375  0.1716 -0.1625
12952W        W87940  16.715  16.690  22.846 -0.0786  0.2825 -0.0253
12953W        W87941  16.607  13.346   3.955 -0.1534 -0.0409 -0.1267
12954W        W87942  16.401  33.474  18.753 -0.0856 -0.0649 -0.0362
12955W        W87943  24.962  22.217  24.819 -0.1305  0.2855  0.2212
12956W        W87944  15.539   0.568   2.934 -0.0075 -0.1330  0.0503
12957W        W87945   0.687   4.180   3.531 -0.1783  0.2245 -0.1124
12958W        W87946  22.973  33.845  16.733  0.2325  0.5604  0.0279
12959W        W87947   1.744  27.978  21.747 -0.2436  0.1605 -0.1262
12960W        W87948  29.354  34.028  22.085 -0.0431 -0.3436  0.0158
12961W        W87949  18.850  25.971  24.019 -0.1121 -0.1933  0.1258
12962W        W87950  34.037   6.209  10.835 -0.0993 -0.2079 -0.1672
12963W        W87951   2.543   0.770   0.455 -0.1907  0.2840 -0.1494
12964W        W87952  31.980   3.655  22.282  0.2132 -0.0413 -0.2126
12965W        W87953  26.349  19.165  21.681  0.0736  0.0212 -0.3042
12966W        W87954  34.714  30.805  21.606  0.0748  0.1607  0.0216
12967W        W87955  32.334  16.394   6.276  0.1626  0.0641 -0.0790
12968W        W87956  11.180  30.306  12.175  0.2425  0.0116 -0.1464
12969W        W87957  13.861  27.965  13.834  0.2370 -0.1285 -0.1449
12970W        W87958  16.354  11.833  23.836 -0.1028  0.1624  0.2458
12971W        W87959   5.960  31.001   8.273  0.1856 -0.1627  0.0540
12972W        W87960  27.222  21.835  22.769 -0.0490  0.2249 -0.1916
12973W        W87961  13.730  15.269   3.196  0.1200  0.0443  0.0108
12974W        W87962   6.845  16.772  10.497 -0.1825 -0.1939  0.1875
12975W        W87963  25.524  20.923  21.176 -0.0352  0.0692  0.0125
12976W        W87964  17.491  27.302   3.375  0.0279  0.0479 -0.0289
12977W        W87965  16.838   3.671  21.061 -0.1130  0.0802  0.0211
12978W        W87966  31.547  19.337  17.841  0.3967  0.2909 -0.1068
12979W        W87967  22.967  25.723  17.577 -0.0816  0.2682 -0.0260
12980W        W87968  25.564  19.653  22.356 -0.0797 -0.0063  0.0338
12981W        W87969  28.044   7.352  20.273 -0.0125 -0.3276 -0.1373
12982W        W87970  12.803   3.154  22.231  0.3875  0.0898  0.1477
12983W        W87971   3.896  34.934  10.310  0.0208 -0.4467 -0.2274
12984W        W87972   2.512  33.809   3.671  0.1131 -0.0997  0.2814
12985W        W87973   6.170  20.984  23.810  0.1870 -0.1370  0.3126
12986W        W87974  30.945   6.757  14.087 -0.1886 -0.4070  0.1672
12987W        W87975   9.495  20.225   6.683 -0.0393  0.2293  0.2615
12988W        W87976  28.293   8.150   9.705  0.0788 -0.0653  0.1222
12989W        W87977  25.589  18.582   8.388  0.1231 -0.0303  0.1890
12990W        W87978  15.547   2.561   8.057  0.1062 -0.0050 -0.2210
12991W        W87979   4.902  12.076  25.561 -0.0799  0.1388  0.2506
12992W        W87980   4.189  32.197  11.741  0.0466 -0.0104  0.1249
12993W        W87981  10.753  16.920   1.220 -0.0198  0.0105 -0.2469
12994W        W87982  29.539  33.439  16.945 -0.0545  0.0406 -0.1937
12995W        W87983   2.785  30.713  22.481  0.0523 -0.0196  0.0706
12996W        W87984  29.980   4.428  21.636  0.2668 -0.0431 -0.0080
12997W        W87985   2.134  30.110  21.948  0.2009  0.1387 -0.0275
12998W        W87986  30.872  30.958  14.236 -0.2951 -0.1544  0.0772
12999W        W87987  12.904  33.051  22.662 -0.0441 -0.2634 -0.0152
13000W        W87988  18.970  23.252  10.335  0.1380 -0.3753  0.1750
13001W        W87989  15.653  19.941  22.953 -0.0121  0.0857 -0.2259
13002W        W87990  21.676  33.282  21.290  0.4437 -0.0903 -0.2569
13003W        W87991  16.097   7.160  17.965 -0.0819  0.0242 -0.1527
13004W        W87992  21.969  22.389  25.834  0.1305 -0.0003 -0.2303
13005W        W87993  16.086  26.803   0.939 -0.0368  0.2326 -0.0748
13006W        W87994  16.797  22.891  23.805  0.1494  0.0253  0.3167
13007W        W87995  32.402  15.066  25.068 -0.1489 -0.0191  0.1026
13008W        W87996  15.775  26.278  11.760  0.1734  0.0171  0.0831
13009W        W87997  11.313  25.750  12.083 -0.1680 -0.4357  0.0115
13010W        W87998  24.030   0.558  12.591 -0.2366 -0.0160  0.0641
13011W        W87999  21.212  23.021  19.820  0.0700 -0.1570 -0.1068
13012W        W88000  25.090   8.556  19.217  0.2143  0.2734 -0.1329
13013W        W88001   0.304  29.470   9.175 -0.1525 -0.2303  0.0753
13014W        W88002  22.925  32.192   4.328 -0.1596  0.0864 -0.0513
13015W        W88003  15.177   3.069  11.930  0.0041 -0.0076  0.0384
13016W        W88004  16.766   8.213  18.457  0.0833 -0.0773 -0.0433
13017W        W88005   1.961  12.122  14.332  0.0263  0.0963 -0.1279
13018W        W88006  32.905  30.193  12.144 -0.0864 -0.0610 -0.1553
13019W        W88007  28.082   2.362  22.725  0.1083  0.1956 -0.2877
13020W        W88008  25.212  11.281  13.840 -0.0220 -0.0155  0.1965
13021W        W88009  29.226  17.227  14.826  0.0284  0.1578  0.0531
13022W        W88010  14.495  19.750  25.849 -0.0077  0.1415  0.1312
13023W        W88011  31.322  17.890   7.392 -0.1364  0.1367 -0.1289
13024W        W88012  24.668   9.367  12.466 -0.2594  0.1323 -0.0213
13025W        W88013  10.284   5.762   9.387 -0.2426 -0.1055  0.2537
13026W        W88014  26.021   4.687  24.645 -0.1206  0.1895  0.0842
13027W        W88015   5.324  28.191  21.279  0.1720  0.0679  0.1327
13028W        W88016   0.644  13.008  23.657  0.0794  0.3076 -0.1012
13029W        W88017  14.767  25.362   4.847  0.0446  0.1100  0.1698
13030W        W88018  26.072  34.741  23.569  0.2027 -0.0866  0.1628
13031W        W88019  25.477  29.157   0.961 -0.0876  0.1971 -0.0123
13032W        W88020  30.779  32.772  21.634  0.0477  0.1735 -0.1240
13033W        W88021  17.234   2.045  10.914 -0.1024  0.0501  0.1280
13034W        W88022  16.299  19.200  10.726 -0.1132  0.1199  0.0188
13035W        W88023   7.724   4.709   9.496  0.2346 -0.1343 -0.1773
13036W        W88024  19.209  25.670   2.319  0.1104  0.0477 -0.1902
13037W        W88025  22.711  24.818   1.765 -0.1577  0.1074 -0.0485
13038W        W88026  24.944   9.040   0.258  0.0848 -0.1176  0.2275
13039W        W88027  15.420  33.931  24.257 -0.0638 -0.1898 -0.0311
13040W        W88028  25.933   2.751  26.169 -0.1764  0.1136 -0.3106
13041W        W88029  11.478  32.084  21.955 -0.1555 -0.0604 -0.0791
13042W        W88030   0.567   4.635  17.206  0.0772 -0.1755 -0.0409
13043W        W88031   2.413  13.468   4.627 -0.3163  0.3188 -0.1570
13044W        W88032  23.858   8.414   2.885 -0.0988 -0.3559  0.0134
13045W        W88033   9.960  25.486  24.581  0.2525  0.0307  0.1591
13046W        W88034  17.934  12.013  24.391 -0.1244  0.0849 -0.0741
13047W        W88035   1.224  22.552   2.320 -0.1669 -0.2244 -0.1557
13048W        W88036  16.046  28.065  13.458 -0.1280  0.0632 -0.1362
13049W        W88037   9.345  26.435   8.592  0.4020 -0.0872 -0.2653
13050W        W88038  23.948  27.627  25.875  0.1352 -0.1364 -0.2132
13051W        W88039  21.406  33.687  13.986  0.2200 -0.0372 -0.0844
13052W        W88040   4.222  28.129   0.559  0.0197 -0.0777 -0.2682
13053W        W88041  32.960  19.513  22.773 -0.1161  0.2548  0.2184
13054W        W88042  31.745  17.722  14.011 -0.2540 -0.0785  0.0669
13055W        W88043  33.332  13.010   8.653  0.0615 -0.0285  0.1662
13056W        W88044  17.785   6.617  20.235 -0.1068 -0.1916 -0.1713
13057W        W88045   9.612  21.643  12.700 -0.2842 -0.1300 -0.3026
13058W        W88046  31.635  21.103  24.306 -0.1554 -0.1187 -0.2573
13059W        W88047  10.846  29.854  15.232  0.0911  0.0859  0.0611
13060W        W88048  21.965   3.342  20.620 -0.1918 -0.0270 -0.3714
13061W        W88049  12.631   8.201   1.384 -0.2176 -0.2531  0.2808
13062W        W88050  18.683   7.200  18.529  0.1343 -0.0294  0.0955
13063W        W88051  29.748  13.588  22.276 -0.4950  0.1656 -0.1283
13064W        W88052  23.319  29.344  21.311  0.1625  0.1301  0.0179
13065W        W88053   4.952   5.167   7.530  0.2043  0.0569 -0.0770
13066W        W88054  11.732  30.532  11.782 -0.2582  0.4552 -0.0407
13067W        W88055  29.973   6.903  22.488 -0.1014 -0.0123 -0.2162
13068W        W88056  13.822   8.215   7.967  0.0252 -0.0954  0.3631
13069W        W88057  30.498  14.095  23.197 -0.2719  0.0391 -0.2488
13070W        W88058  35.174   4.427  25.055  0.1217 -0.1383  0.1821
13071W        W88059  19.019  27.310   7.045 -0.1006  0.1158 -0.0073
13072W        W88060   0.894  31.690  22.848  0.0700 -0.3240  0.1127
13073W        W88061  29.174   7.796  15.641  0.0391  0.0672 -0.0013
13074W        W88062   4.556  23.595   5.537 -0.2747  0.2119  0.1405
13075W        W88063  16.103  30.524   7.815 -0.2032 -0.0480 -0.3686
13076W        W88064  15.103  23.586  12.818  0.2353 -0.2377 -0.2364
13077W        W88065  32.326   4.493  22.952 -0.2996 -0.1882  0.3121
13078W        W88066   6.593   8.147   8.379  0.0701 -0.0984  0.0139
13079W        W88067  26.042  31.030  19.115 -0.1362 -0.1076 -0.0772
13080W        W88068  21.237   3.174   5.313 -0.0963 -0.2715  0.0139
13081W        W88069  29.069  11.903  13.376 -0.1008 -0.0179  0.2288
13082W        W88070  10.809  12.194  12.658 -0.1609  0.0500 -0.1438
13083W        W88071  12.918   3.747  21.617 -0.1212  0.1622 -0.2569
13084W        W88072  32.729  13.517  16.859 -0.0834 -0.1572 -0.0652
13085W        W88073   7.020  20.791   5.944 -0.2139 -0.2063 -0.2780
13086W        W88074  17.630  15.048  24.777  0.2225  0.2091  0.1977
13087W        W88075  16.166  30.893   7.498 -0.1622  0.1699 -0.1417
13088W        W88076  13.672  14.447  19.552  0.1646  0.1101  0.3309
13089W        W88077  16.823  14.235   8.991  0.0565  0.1148 -0.0515
13090W        W88078   4.574  31.055   6.703 -0.0404  0.0765  0.2015
13091W        W88079  26.341  31.008  18.707  0.2401  0.3504 -0.0093
13092W        W88080   6.888  10.959   2.674 -0.2521  0.0756 -0.0068
13093W        W88081  31.336  13.160  13.408 -0.0367  0.0852 -0.1282
13094W        W88082   7.576  15.968  11.003 -0.2280  0.1509  0.0464
13095W        W88083  17.494   8.638   1.546  0.0822  0.1129 -0.0164
13096W        W88084  23.058  10.874   1.117  0.2289  0.2500 -0.2300
13097W        W88085   0.843   8.395   4.667  0.2875  0.3275  0.0461
13098W        W88086  30.851   7.016  12.720  0.0365 -0.2781 -0.1958
13099W        W88087  14.025  12.169  24.224 -0.0018  0.4077  0.1097
13100W        W88088  25.734  30.063  22.540  0.0527  0.0824  0.3921
13101W        W88089  21.092  34.771  18.807  0.2020 -0.0307 -0.2720
13102W        W88090  17.392  23.483  23.222  0.0810 -0.0290  0.2657
13103W        W88091  24.115  12.429  15.740 -0.0722 -0.2219  0.2292
13104W        W88092  12.364  17.646  13.325 -0.1636  0.0156 -0.1489
13105W        W88093  34.365  16.257  21.309 -0.1078  0.1801 -0.1698
13106W        W88094   1.386  18.797  16.249 -0.1432 -0.1789  0.1608
13107W        W88095  23.895  19.085  23.033  0.1440  0.2448  0.4511
13108W        W88096  14.728  21.947   5.480  0.1604 -0.0927 -0.1374
13109W        W88097   5.114  26.822   9.626 -0.0794  0.1192  0.0327
13110W        W88098  26.743  17.073   6.271  0.0376  0.0197  0.2108
13111W        W88099  11.690   7.456   5.011  0.0016  0.0981 -0.0236
13112W        W88100   4.018  16.876  24.468  0.0293  0.2165 -0.0676
13113W        W88101   9.706  15.351   5.781 -0.2734  0.0162 -0.3459
13114W        W88102  10.447  29.584  21.760  0.0679 -0.0135 -0.1519
13115W        W88103  28.826  19.238  22.163 -0.2558 -0.3674 -0.1436
13116W        W88104  28.269   3.525  22.062 -0.0431 -0.0685 -0.0199
13117W        W88105  17.732  17.932   2.712  0.0621  0.1650 -0.0657
13118W        W88106  17.420  30.769   6.671 -0.1716  0.0027 -0.2089
13119W        W88107   0.093   6.467   4.010  0.4132  0.0623 -0.1409
13120W        W88108  26.836  10.828  10.189 -0.1361 -0.1971 -0.1367
13121W        W88109  23.723  21.363  15.048  0.1023 -0.2294  0.0509
13122W        W88110  15.686   0.845   0.733 -0.0662 -0.4148  0.0912
13123W        W88111  22.277  34.599  16.496 -0.2355 -0.1975  0.3383
13124W        W88112   8.482   0.467   2.484 -0.1380  0.2084 -0.2194
13125W        W88113  33.476   5.357   3.907  0.1065  0.1750 -0.1010
13126W        W88114  16.631  27.484   6.225 -0.0348  0.0946  0.1168
13127W        W88115  12.625   1.937  24.756  0.0031  0.1468 -0.1495
13128W        W88116   0.516  25.401   2.230 -0.1436  0.3378 -0.1851
13129W        W88117   3.171  34.258  10.568 -0.3251  0.1557  0.2081
13130W        W88118  26.947   1.086  25.770  0.1857 -0.0935 -0.0428
13131W        W88119  13.730  26.460  12.591 -0.0014 -0.1070  0.3320
13132W        W88120  31.319  16.049   9.867  0.0084 -0.0811  0.2981
13133W        W88121  32.092  22.797  25.868 -0.0482  0.1554 -0.2737
13134W        W88122  16.849  19.234   6.428 -0.1945  0.0184  0.3075
13135W        W88123   4.290  33.984  10.348  0.0013 -0.0942  0.2588
13136W        W88124   2.012  29.470   2.562  0.2038 -0.0320 -0.2726
13137W        W88125  20.474   2.116  16.217 -0.0714 -0.0689 -0.1482
13138W        W88126   4.514  30.514   3.180  0.0486  0.1565 -0.1333
13139W        W88127  34.648  17.562  11.707  0.3866 -0.0187  0.2018
13140W        W88128  18.670  11.925  25.682  0.2335 -0.3338  0.1485
13141W        W88129  23.904  28.757  24.396 -0.1088  0.1345  0.3099
13142W        W88130  14.386  15.355  26.119  0.0616  0.0113 -0.2274
13143W        W88131   0.843   2.159   7.799 -0.2403  0.0499 -0.1772
13144W        W88132  19.214  20.961   9.146  0.0725 -0.2261 -0.0387
13145W        W88133  17.289   6.479   3.175 -0.0378 -0.0837 -0.0249
13146W        W88134  25.773  34.210   4.607 -0.1073  0.2939 -0.0219
13147W        W88135  15.687  26.743  11.986 -0.1882  0.1816 -0.2056
13148W        W88136  25.839  14.331  11.751 -0.0464 -0.0282 -0.0654
13149W        W88137  13.469  28.312  22.643 -0.0401 -0.4807 -0.0626
13150W        W88138  19.703  22.080  19.786  0.1219  0.0046 -0.1793
13151W        W88139  12.421  30.519  23.522 -0.0516 -0.1465 -0.0744
13152W        W88140   8.965  23.944  21.612  0.1527 -0.1079  0.1953
13153W        W88141   0.781  28.481  24.610 -0.0657 -0.2776  0.0024
13154W        W88142  10.387   9.201   7.450  0.2877  0.0575 -0.1637
13155W        W88143   2.464  19.820  22.417  0.1727 -0.0377 -0.0798
13156W        W88144  11.811  22.245  14.821 -0.1231 -0.0756  0.1804
13157W        W88145  18.826  17.002   8.196 -0.0421  0.0128 -0.0104
13158W        W88146  27.221  12.722  20.761 -0.1486 -0.0549 -0.1632
13159W        W88147   7.503   7.960   5.014  0.0306  0.3041  0.1213
13160W        W88148  26.336  19.433  24.600  0.2117 -0.1015  0.0867
13161W        W88149  31.854  10.851   0.571 -0.2071 -0.0170 -0.1571
13162W        W88150  17.231  11.192   4.104 -0.2185 -0.2187 -0.1954
13163W        W88151   0.152  28.344  19.115  0.0995 -0.1051  0.1761
13164W        W88152  35.194  16.714  20.877 -0.1254  0.1876  0.1070
13165W        W88153  22.171  10.265  20.177 -0.0158  0.0894  0.0727
13166W        W88154  34.542  17.817  13.516 -0.0065  0.0850  0.6586
13167W        W88155   9.337  12.015   0.695 -0.1543  0.0010  0.2981
13168W        W88156   3.377   6.919  17.682 -0.1057 -0.0083 -0.1618
13169W        W88157  29.409  23.545  23.496  0.0279 -0.0717 -0.2223
13170W        W88158   4.602  27.560   2.278 -0.1859  0.0756 -0.2947
13171W        W88159  31.819  34.243  19.543  0.1196 -0.0418 -0.0013
13172W        W88160  12.741  30.376  24.004 -0.4512 -0.2279  0.1143
13173W        W88161  16.023   4.211  25.267 -0.3769 -0.0529 -0.1927
13174W        W88162  16.726  34.731   9.603  0.0570 -0.0367  0.3016
13175W        W88163  27.480   4.842   0.791 -0.0867 -0.2948 -0.2260
13176W        W88164  34.442   4.851   5.450  0.1596  0.2508 -0.2584
13177W        W88165  31.758  15.879  22.086  0.0295  0.0393  0.0933
13178W        W88166  10.653   3.530   9.064 -0.0688 -0.3748  0.0515
13179W        W88167  19.604  13.921   4.878  0.2316 -0.3260 -0.0459
13180W        W88168  31.909   6.018  10.842 -0.0287  0.1543 -0.3324
13181W        W88169  11.690  17.048  10.907 -0.1922 -0.1569  0.2298
13182W        W88170   8.042  16.274  24.122 -0.0332  0.1861  0.0074
13183W        W88171   9.991   1.714   2.803  0.0156  0.0218  0.1382
13184W        W88172  29.116   3.952  13.374 -0.1512  0.1520  0.0028
13185W        W88173  24.242  28.664  16.143  0.0367 -0.2297 -0.1162
13186W        W88174   3.086  35.061  23.232 -0.0982  0.0769  0.0446
13187W        W88175  15.342  12.623   3.367 -0.0146  0.1664 -0.0836
13188W        W88176  13.467   5.569   7.692  0.1530  0.0938 -0.2011
13189W        W88177  28.527  14.061  13.163  0.0273  0.0109  0.0872
13190W        W88178  18.618  33.899  23.737  0.0521 -0.0869  0.2354
13191W        W88179  17.718   9.655   2.661 -0.0458 -0.1148  0.2157
13192W        W88180  21.153  30.545  23.270  0.0602 -0.3575 -0.3332
13193W        W88181  27.647   5.155  22.475  0.2332 -0.0989  0.0331
13194W        W88182  10.164  12.597  25.403 -0.0649 -0.2281 -0.2441
13195W        W88183  30.407  12.816  24.067 -0.0595 -0.2988  0.1021
13196W        W88184  25.515  33.119   2.936 -0.2898 -0.0851 -0.0727
13197W        W88185   1.437   5.291  18.780  0.0201 -0.1715  0.2135
13198W        W88186  31.109   2.066  12.011  0.1121 -0.2395  0.0953
13199W        W88187  16.004   1.417  22.866  0.3133 -0.0884 -0.2193
13200W        W88188  21.895  21.222  15.711 -0.0224 -0.0545 -0.1839
13201W        W88189  16.229  23.195   1.946  0.1450 -0.0157  0.2002
13202W        W88190  34.156  27.026  22.256 -0.0419  0.0579  0.0326
13203W        W88191   0.026  30.507   6.856 -0.1453 -0.1011 -0.0083
13204W        W88192   6.040  34.063   6.341 -0.2408 -0.0010 -0.0139
13205W        W88193  24.509  12.481  20.101 -0.0923  0.1587  0.2082
13206W        W88194  22.627  23.327   3.978 -0.0612 -0.3310  0.2137
13207W        W88195   5.401  22.135   1.628 -0.1057 -0.1393 -0.0294
13208W        W88196  19.670  23.143   5.633 -0.0658  0.0412  0.2239
13209W        W88197  10.100   6.175   3.802  0.0816 -0.3236 -0.0851
13210W        W88198   8.766  13.570   1.521  0.1208  0.0972 -0.0665
13211W        W88199  17.816  23.343  25.913 -0.0576  0.0055  0.3364
13212W        W88200  12.979  17.966  24.561  0.0235  0.0818 -0.0128
13213W        W88201  32.069  20.479  20.904  0.1991  0.1584 -0.0191
13214W        W88202  19.638  13.032   0.175  0.2040  0.1388 -0.2787
13215W        W88203  15.639  22.282  12.706 -0.2198 -0.4208  0.0020
13216W        W88204  16.927  21.852   2.634  0.2215 -0.2508  0.0598
13217W        W88205  21.778   1.620  24.183  0.0905  0.0075 -0.5699
13218W        W88206  19.669   9.169  26.015 -0.0324  0.2520  0.1039
13219W        W88207  21.155  14.305  20.127  0.3035  0.0013  0.0872
13220W        W88208   0.342  15.469  17.993 -0.4684 -0.1088  0.0026
13221W        W88209   7.255   6.945  24.118  0.1044  0.1507  0.1989
13222W        W88210  23.705  19.686  18.224 -0.2004 -0.0053  0.0640
13223W        W88211   6.622  11.306   2.203 -0.1622 -0.1343  0.0661
13224W        W88212   2.792  33.282   6.210 -0.0028 -0.1541  0.0580
13225W        W88213  34.778  32.954  25.594 -0.0799 -0.3120 -0.1888
13226W        W88214  29.126   0.633  11.883  0.3567 -0.2011  0.1099
13227W        W88215   0.204  10.995   1.516  0.1401  0.0654 -0.0399
13228W        W88216   2.618  34.690   9.912 -0.1882  0.0627  0.1051
13229W        W88217   3.600  24.644   6.053  0.0823  0.1924  0.2086
13230W        W88218  29.276   0.143  11.122  0.1548 -0.0591  0.0814
13231W        W88219   7.237  34.246  22.651  0.0128 -0.0513  0.0878
13232W        W88220   8.854  12.812   2.174  0.1272 -0.2251  0.1643
13233W        W88221   1.468   9.038  24.541 -0.2137  0.2997 -0.3631
13234W        W88222  11.712  26.211   3.951 -0.3542  0.1967 -0.0989
13235W        W88223  31.110   3.552  16.969 -0.0398  0.2733 -0.0540
13236W        W88224   6.064  27.442   1.815  0.1022 -0.1656  0.0251
13237W        W88225   9.261  32.828  25.215 -0.2341  0.0251  0.1372
13238W        W88226  32.624   2.705   3.995 -0.1241 -0.2837 -0.0261
13239W        W88227  16.467  17.326  10.606 -0.4335  0.0948  0.0312
13240W        W88228  10.634  28.537   7.492  0.0257  0.2721  0.2971
13241W        W88229  34.186  20.599  14.265  0.0842 -0.1575 -0.0018
13242W        W88230  27.529   5.639  13.564 -0.0592  0.0399  0.0182
13243W        W88231  33.802   6.096   0.284  0.0347  0.3419  0.3220
13244W        W88232  16.164  19.465  21.611  0.1169  0.1069  0.1377
13245W        W88233  16.524   5.650  11.093 -0.4208  0.1479 -0.1678
13246W        W88234  14.028   3.253   0.366 -0.1738 -0.2580  0.0307
13247W        W88235  11.539  27.720  13.777  0.0710  0.2900 -0.0941
13248W        W88236  20.866  14.659   6.642  0.1141 -0.1519  0.0770
13249W        W88237  15.268  22.515   0.682 -0.0001  0.0754 -0.1135
13250W        W88238  26.088  31.205  20.452  0.0027 -0.1942 -0.1983
13251W        W88239  23.263  14.422  16.371  0.1213 -0.2164  0.1940
13252W        W88240  30.256   9.938   9.975 -0.1912  0.0316 -0.0626
13253W        W88241  25.853  25.571  10.684 -0.0305  0.2182 -0.1442
13254W        W88242  11.997  31.808  23.929  0.0635 -0.0144  0.2880
13255W        W88243  30.961  13.129   8.748  0.0168  0.1113  0.3473
13256W        W88244  32.445  11.344  14.727 -0.0261  0.0229 -0.4138
13257W        W88245  34.560  29.810  17.214 -0.0917 -0.1700 -0.2252
13258W        W88246  25.254  12.015  17.205  0.0290  0.2248  0.0958
13259W        W88247  19.687  31.898  24.729 -0.1310 -0.4128  0.1353
13260W        W88248  16.009  10.773  22.555 -0.1901 -0.1203  0.2450
13261W        W88249  13.276   4.089  12.786 -0.0980  0.0903  0.1447
13262W        W88250   4.624  22.868   0.777  0.0454 -0.1512 -0.0308
13263W        W88251  17.320   4.569  22.460  0.1280 -0.0079 -0.0048
13264W        W88252  19.533  30.009   2.041 -0.2201  0.2293 -0.2518
13265W        W88253   9.611  29.509   6.777  0.2306 -0.3659  0.0584
13266W        W88254   2.486   7.137   6.463  0.0967  0.2256  0.1310
13267W        W88255  18.556  16.644  19.919 -0.1385  0.2557  0.0061
13268W        W88256  31.383  26.369  10.935  0.0156 -0.0659 -0.4618
13269W        W88257  30.239  22.556  23.566 -0.0541  0.0993 -0.3664
13270W        W88258   8.010  16.532   2.348  0.1376 -0.3068  0.1773
13271W        W88259  13.814   7.275   7.889  0.1617  0.0337  0.1076
13272W        W88260  14.193  34.009   3.240 -0.4969 -0.0018  0.2396
13273W        W88261  22.579  26.930   6.281  0.0732 -0.0216  0.4001
13274W        W88262  10.066  16.136   5.697  0.0339  0.0694 -0.0643
13275W        W88263  17.526   5.610  25.036  0.2016 -0.0290 -0.0313
13276W        W88264  27.110  28.937   0.051 -0.2570  0.0724  0.0285
13277W        W88265  11.428  27.578   3.448 -0.2162  0.2539 -0.0067
13278W        W88266  12.797  23.627  21.946  0.2656  0.3972 -0.0137
13279W        W88267  19.002  17.285  17.565  0.2233 -0.0196 -0.2414
13280W        W88268   3.704   2.612   4.932  0.1367 -0.1889 -0.1397
13281W        W88269  32.577  33.835  22.323 -0.1249 -0.0727 -0.1856
13282W        W88270   4.906  11.405  23.824  0.1218 -0.2574  0.4217
13283W        W88271  21.313  27.331   5.457  0.1607  0.0966  0.1320
13284W        W88272  10.256   4.660   3.429  0.0855 -0.1592  0.2147
13285W        W88273   3.663  28.229  26.217  0.1035  0.0282  0.2199
13286W        W88274  15.608  30.325   0.013  0.3130 -0.0656 -0.1533
13287W        W88275  22.464  34.380  15.564 -0.2272 -0.0197 -0.0379
13288W        W88276  25.126  33.755   3.297 -0.1220  0.1873  0.0792
13289W        W88277  14.294  16.157   3.621  0.3025 -0.1417  0.0202
13290W        W88278  23.934  22.295  24.084  0.2109  0.0152  0.0673
13291W        W88279   0.873  10.978  10.426 -0.4156 -0.0640 -0.1204
13292W        W88280  31.844   1.467   3.126  0.1364 -0.1212 -0.1268
13293W        W88281  11.266  29.158   9.276  0.0683  0.0617  0.1672
13294W        W88282   2.111   8.688  14.745  0.1280 -0.4279 -0.2800
13295W        W88283  32.050   4.078  25.630  0.1218 -0.3244  0.0312
13296W        W88284   4.767  27.135  25.797  0.2308 -0.1764  0.1609
13297W        W88285   4.888   2.791   3.762  0.0213 -0.0109  0.2753
13298W        W88286  24.715  15.436  20.074  0.2016 -0.0865 -0.0017
13299W        W88287  28.074  17.560  14.257  0.2929 -0.1987 -0.0703
13300W        W88288  17.440   8.594  24.276 -0.0308 -0.1154 -0.0436
13301W        W88289  34.061   0.700   3.471  0.0327  0.0102 -0.3175
13302W        W88290   7.034  32.942  11.548  0.0031 -0.2082  0.4177
13303W        W88291  35.108  21.708  15.315  0.1900  0.0921 -0.0872
13304W        W88292  15.947  14.497  24.021  0.0238 -0.0832  0.1565
13305W        W88293  35.343  30.027  17.547  0.3261 -0.0276 -0.1792
13306W        W88294  28.347   3.919  18.150  0.1440  0.0094 -0.2032
13307W        W88295  24.090  32.472  26.067  0.1223 -0.1587  0.1956
13308W        W88296  19.427  20.304  19.267 -0.3338 -0.1771 -0.2794
13309W        W88297  14.428  24.698   3.759  0.0667 -0.0104  0.0431
13310W        W88298  12.985  29.151   4.374 -0.1827 -0.0570  0.0941
13311W        W88299  30.127   9.499  20.179 -0.0147 -0.0260 -0.0027
13312W        W88300  21.796  35.263  19.613  0.0378 -0.3236  0.2865
13313W        W88301   5.948  14.313   5.321 -0.0835  0.1834 -0.2300
13314W        W88302  11.458  13.643  18.479 -0.0315 -0.0593 -0.3463
13315W        W88303  27.409   0.202  21.315 -0.0230  0.3346  0.4054
13316W        W88304   9.447   9.668   7.140 -0.0879  0.1814 -0.1556
13317W        W88305  16.601   5.861  23.787 -0.0489  0.0407 -0.0411
13318W        W88306   7.153   8.441   2.345 -0.1186  0.1579 -0.1438
13319W        W88307   6.927  20.365   3.121  0.0375  0.2607 -0.4307
13320W        W88308  10.757   1.318  20.057 -0.4813 -0.2336 -0.1368
13321W        W88309   0.262  29.712   4.607  0.1397  0.3622  0.2840
13322W        W88310  33.534   4.662  20.887 -0.1377  0.0085  0.1352
13323W        W88311   6.971  34.807  10.228 -0.1919  0.2298  0.0652
13324W        W88312   3.876   5.096  23.438 -0.0542  0.2060 -0.0519
13325W        W88313  15.905  34.549   7.376 -0.1572  0.0948 -0.0749
13326W        W88314   1.495  12.005  25.972  0.0655 -0.0251  0.0139
13327W        W88315  32.258   8.262  19.054  0.1861  0.0427 -0.2588
13328W        W88316   5.740   5.759   7.900  0.1430 -0.4377  0.0127
13329W        W88317  26.180   4.303   2.265  0.1967 -0.0571 -0.0889
13330W        W88318  32.413  22.879  14.277 -0.0256 -0.0847 -0.1805
13331W        W88319  14.369   6.139   9.567 -0.3789 -0.1919 -0.0807
13332W        W88320  16.857  11.394   9.347  0.2957  0.0939  0.2386
13333W        W88321  16.050  30.535  10.902  0.0993 -0.3376 -0.1665
13334W        W88322  20.205  21.037   9.127 -0.1752 -0.0405 -0.1841
13335W        W88323  11.012   6.989  13.120  0.0628 -0.0998 -0.3459
13336W        W88324   5.638  24.372   3.989 -0.1912  0.1350  0.0539
13337W        W88325  26.752  30.729   4.088  0.1114  0.3055  0.1919
13338W        W88326  19.373   4.311  19.742  0.2073  0.0795  0.0712
13339W        W88327   8.709  11.378   7.802 -0.3904 -0.1178  0.0294
13340W        W88328  27.729   3.414  11.308 -0.0245  0.1441  0.1460
13341W        W88329   5.662  25.027  10.658 -0.0863  0.1219  0.1071
13342W        W88330   8.637   8.591  10.171 -0.0092  0.1336 -0.1031
13343W        W88331   8.361  17.087   9.010 -0.0454 -0.0004 -0.3894
13344W        W88332  17.559  15.366  24.402 -0.2375 -0.0658  0.1362
13345W        W88333  17.405   1.896   1.360 -0.0332 -0.1026  0.0707
13346W        W88334  22.404  16.022  13.936  0.3316 -0.1518  0.0228
13347W        W88335  26.568  27.249  25.258  0.2579 -0.1919  0.0935
13348W        W88336  21.553  13.459  15.424 -0.2526  0.2493  0.2512
13349W        W88337  10.183  15.303  25.549 -0.0800  0.0830  0.1738
13350W        W88338  11.233  20.905   9.606 -0.0276 -0.0898  0.2344
13351W        W88339  34.992   5.949  23.774 -0.2822 -0.0445 -0.1010
13352W        W88340  14.527  25.812  24.497  0.0774 -0.0830  0.0402
13353W        W88341  22.769   8.091  22.139  0.3240 -0.1583 -0.0579
13354W        W88342  17.701  12.691   0.008 -0.3223  0.1583 -0.0725
13355W        W88343  14.962   4.429  11.816 -0.1381 -0.1002 -0.1101
13356W        W88344  26.514  27.965  20.608 -0.1251  0.0594 -0.3262
13357W        W88345  14.621  30.868   1.476  0.2182  0.0610  0.4218
13358W        W88346  11.071  11.490  19.172 -0.2117  0.0653  0.1072
13359W        W88347  31.475   6.687  23.709 -0.1381 -0.0431  0.2677
13360W        W88348  21.787   5.032  16.314  0.1219 -0.0525 -0.1997
13361W        W88349  23.135   1.873   1.031  0.3773 -0.0163  0.1269
13362W        W88350  17.677  34.013  20.934 -0.0965  0.0255  0.0163
13363W        W88351  20.783   5.602   5.510  0.1218 -0.2932 -0.1192
13364W        W88352  20.249  18.262   4.054  0.1156  0.2458 -0.1208
13365W        W88353  25.438   1.795  19.873  0.0892 -0.3617 -0.0921
13366W        W88354  33.141  24.246  10.124 -0.1210 -0.1749 -0.1261
13367W        W88355  33.965  27.462  12.228  0.1655 -0.1899 -0.0815
13368W        W88356  34.660  33.808  24.548  0.0073  0.1410  0.3169
13369W        W88357  24.814  29.063   1.507  0.0288  0.2688  0.0065
13370W        W88358  21.461  32.222   1.480  0.3605  0.0276  0.1617
13371W        W88359  32.348   2.393  25.446  0.1034 -0.0178  0.0535
13372W        W88360   1.471   1.266  23.109  0.2999 -0.3394 -0.1733
13373W        W88361  12.158  10.822  24.117  0.1909 -0.0626 -0.1498
13374W        W88362  29.043   2.330  20.097  0.0814  0.0496 -0.0209
13375W        W88363  28.943  25.717   8.347 -0.2984  0.1908 -0.1026
13376W        W88364  21.424  19.324  26.071  0.0925  0.1473  0.2396
13377W        W88365   9.539  28.489   4.386 -0.0840 -0.0374  0.2861
13378W        W88366  10.398  23.272  10.501 -0.1319  0.0870  0.2305
13379W        W88367  32.090   1.199  19.844 -0.0726  0.0581  0.1290
13380W        W88368  29.750  27.311   1.543  0.0946  0.4295  0.0236
13381W        W88369  15.760   6.525  24.680 -0.0278  0.1347 -0.0123
13382W        W88370   2.402  12.238   3.214 -0.1417 -0.1465 -0.2561
13383W        W88371  16.035  27.295   8.390 -0.1041  0.1572 -0.1600
13384W        W88372   1.274  12.900  19.282 -0.3406  0.1265 -0.0006
13385W        W88373  20.909  14.671  22.513 -0.1115  0.3373 -0.1113
13386W        W88374  30.512   5.509  16.130  0.2255  0.0646  0.4565
13387W        W88375  24.939   4.197  22.604  0.1322  0.1547  0.0215
13388W        W88376  34.138  13.295  15.456  0.3040  0.1560  0.2082
13389W        W88377  16.076   7.574  25.510  0.2081  0.1980  0.0113
13390W        W88378  33.407   1.242   7.001 -0.0549  0.1471 -0.0865
13391W        W88379  34.671  21.761  13.601 -0.0764 -0.2351  0.4541
13392W        W88380  24.012   3.199  17.519  0.2358  0.0606  0.0480
13393W        W88381  17.743   1.472  24.936 -0.0701  0.1199 -0.0646
13394W        W88382  13.191  21.124   0.924 -0.0808 -0.2470 -0.1244
13395W        W88383   0.924   1.007  17.492  0.1078 -0.0356  0.0129
13396W        W88384  11.877   9.277   2.162 -0.0188  0.1323 -0.1660
13397W        W88385   9.796   2.323  13.858  0.0248  0.3782 -0.0238
13398W        W88386  24.888  21.279  23.723  0.0384  0.0471 -0.0069
13399W        W88387  30.435  30.184  23.468  0.0452  0.1011  0.0110
13400W        W88388   6.237  13.209  19.240  0.2336  0.1668 -0.1555
13401W        W88389  21.141  27.287   4.081  0.0006  0.0072 -0.1686
13402W        W88390  29.409   4.100   3.354 -0.2008 -0.1685  0.0996
13403W        W88391  12.902   9.348   2.728 -0.2598 -0.3536 -0.2400
13404W        W88392  34.779   8.736  25.701  0.0534  0.0726 -0.3958
13405W        W88393  26.819  34.790  26.168  0.0750 -0.3733 -0.0358
13406W        W88394   8.183  24.011   4.294 -0.0831 -0.3037  0.1651
13407W        W88395   2.283  27.480   3.454 -0.0645  0.2123  0.0606
13408W        W88396  11.715  17.941  25.472 -0.0655 -0.0562 -0.3100
13409W        W88397  10.408  31.104  21.807 -0.0623  0.2022  0.0040
13410W        W88398  29.352   3.066   3.534  0.1972  0.0946  0.2524
13411W        W88399  35.158  15.124  17.252  0.0386  0.1276  0.2450
13412W        W88400  14.188  18.488   1.487 -0.3312 -0.1562 -0.2363
13413W        W88401   6.041  31.824   1.628  0.3760 -0.1577 -0.0487
13414W        W88402  18.198  21.574  21.827 -0.0043 -0.0556  0.0537
13415W        W88403   4.959  21.226   4.819  0.1496 -0.0223 -0.0569
13416W        W88404  12.967  13.981  21.221 -0.3864  0.4860  0.2224
13417W        W88405  15.665  24.593  21.980 -0.1713 -0.0822 -0.0584
13418W        W88406  17.606  12.588  19.057 -0.0614 -0.2768 -0.2514
13419W        W88407  19.127  14.058   3.013 -0.1691  0.0304  0.3643
13420W        W88408  27.564   3.565  18.819 -0.3265 -0.0138 -0.1543
13421W        W88409  16.793  25.520  12.340  0.0990  0.1934 -0.1239
13422W        W88410   3.285   1.217   3.301 -0.2898  0.2644 -0.1957
13423W        W88411   9.166  33.843   5.860  0.2859  0.0424  0.2223
13424W        W88412  30.339  34.628  22.928 -0.0582 -0.1876 -0.0367
13425W        W88413   0.671  34.783   4.407 -0.1880 -0.2588  0.1167
13426W        W88414   8.941  14.679  10.217 -0.2237 -0.0949 -0.1483
13427W        W88415  20.474  24.312   8.476  0.1649 -0.2227  0.3094
13428W        W88416  13.842  10.989  19.576 -0.0883 -0.0240 -0.2191
13429W        W88417  15.265  34.404  19.223 -0.5283  0.2481  0.1927
13430W        W88418  32.313  33.104   5.072 -0.1577 -0.0627  0.0899
13431W        W88419  17.752  26.618  22.606 -0.1447  0.0181  0.4001
13432W        W88420   3.939  14.168  19.114 -0.2154 -0.0973 -0.3475
13433W        W88421  11.703  13.305  20.109 -0.1668 -0.3638  0.1045
13434W        W88422  30.533  35.356   3.083  0.0800  0.0179 -0.0614
13435W        W88423  23.344  10.073  23.844  0.2146  0.2302  0.0597
13436W        W88424   2.225  22.160  18.640 -0.2341 -0.0580 -0.0385
13437W        W88425   4.001  21.766  25.689  0.0464 -0.1141 -0.0569
13438W        W88426  20.857  18.324  22.682 -0.0650  0.2949  0.2538
13439W        W88427   9.459   6.084   5.756 -0.0309  0.1546  0.0656
13440W        W88428  29.901  33.556   1.126  0.1794 -0.0788  0.0307
13441W        W88429   5.475  11.235   7.029 -0.0262  0.1162  0.1920
13442W        W88430  33.108   2.176   2.045 -0.0378 -0.0125  0.3013
13443W        W88431  13.231  23.741   5.888  0.2511  0.6312 -0.1847
13444W        W88432  16.872   4.575   3.506  0.1469 -0.1202  0.0053
13445W        W88433  20.661   7.580   9.093 -0.2350 -0.3094 -0.0501
13446W        W88434  21.805  19.295  18.419 -0.0866 -0.2481 -0.3124
13447W        W88435  28.806  24.813  17.459 -0.1748 -0.2734 -0.0428
13448W        W88436  21.517  34.072   6.554  0.0243  0.0958  0.1135
13449W        W88437  26.175  30.919  22.390  0.1477 -0.0157 -0.2182
13450W        W88438  23.766   9.781   3.476  0.2420  0.0818 -0.0666
13451W        W88439  17.711  15.962  11.378 -0.3053  0.0219  0.2827
13452W        W88440  14.654  17.722   0.371 -0.0555 -0.0809 -0.1253
13453W        W88441  21.248   0.815   2.927  0.2681  0.1291  0.1856
13454W        W88442  11.943   5.041  11.877  0.5374 -0.3062 -0.0558
13455W        W88443  28.663   2.230   5.665  0.0214 -0.0551 -0.0129
13456W        W88444  13.681  19.894  23.441 -0.2864 -0.5467 -0.0415
13457W        W88445   5.599  18.543  25.513 -0.0515 -0.1684  0.1107
13458W        W88446  28.450   8.947  21.120  0.1866 -0.1662 -0.0291
13459W        W88447  24.029  27.811   3.033 -0.1319  0.0417 -0.1818
13460W        W88448  21.527   8.312  25.087  0.1167  0.1759 -0.1846
13461W        W88449  22.730   9.711  22.367  0.3399  0.4534  0.0703
13462W        W88450  13.815  35.059   0.410 -0.1308 -0.1403  0.2172
13463W        W88451   0.730  18.325  16.011 -0.0241 -0.1652  0.1403
13464W        W88452  12.423  15.481   3.779 -0.0193  0.1448  0.0534
13465W        W88453  21.679  34.084  24.145  0.1814 -0.2911  0.1560
13466W        W88454  12.651   5.398  12.928  0.0528  0.1716 -0.0383
13467W        W88455  29.237  27.806  10.320 -0.5731  0.1216 -0.0233
13468W        W88456   7.684   1.374  12.312  0.1483 -0.0689 -0.2082
13469W        W88457  30.519   8.796  23.442 -0.2930  0.3770  0.2673
13470W        W88458  32.170  34.006   6.203 -0.0683 -0.1911 -0.2055
13471W        W88459  24.043  32.847   2.354 -0.3176  0.0677  0.0390
13472W        W88460   9.398  24.672  15.174 -0.0984 -0.3483 -0.1942
13473W        W88461   6.250  31.745   4.490 -0.1364 -0.1332  0.0725
13474W        W88462  28.653  18.224  20.237 -0.2571 -0.1334 -0.0243
13475W        W88463  31.037  19.752  21.099  0.0533 -0.3109  0.0117
13476W        W88464  26.529  13.080  14.906  0.1064  0.0873 -0.1886
13477W        W88465  26.630  16.537  16.561 -0.1369 -0.0033 -0.1668
13478W        W88466  29.310  33.868  26.238 -0.2443 -0.3092  0.1268
13479W        W88467   6.373  15.316  22.267  0.1029  0.0528  0.2370
13480W        W88468  24.449  21.800   0.544  0.4307  0.4572  0.0160
13481W        W88469  31.847  20.965  10.980 -0.0507  0.0185  0.1351
13482W        W88470  27.532  28.841  23.378 -0.0721 -0.2870  0.0464
13483W        W88471  16.656  14.177  23.020  0.3530  0.0308 -0.0285
13484W        W88472  22.730  33.430  24.760 -0.0197  0.0676 -0.0195
13485W        W88473  32.765   3.231  19.937 -0.3323 -0.1107 -0.0423
13486W        W88474  28.310  32.301  13.009 -0.2472 -0.1902  0.1181
13487W        W88475   2.884  28.122  18.454 -0.2149  0.3037 -0.0893
13488W        W88476   5.204  15.613  25.657 -0.2411  0.0531 -0.1672
13489W        W88477   5.955  25.011  22.349  0.0482  0.1848 -0.0260
13490W        W88478   2.096   9.454   3.497 -0.2475  0.2021  0.1274
13491W        W88479   4.634  29.349  20.448 -0.1681 -0.2366  0.3711
13492W        W88480   4.091  18.688  20.054  0.2587 -0.0877 -0.1134
13493W        W88481   4.057  10.542   2.758  0.0117  0.1712  0.3368
13494W        W88482  13.881  23.089   1.685  0.2924 -0.3334  0.2052
13495W        W88483   3.074  18.717  17.292  0.0524 -0.0716  0.1022
13496W        W88484   2.405  35.081  17.493  0.0836 -0.0270 -0.0169
13497W        W88485  17.350  21.695   2.889 -0.0264 -0.1190 -0.0063
13498W        W88486   5.808   6.525  18.459  0.4242  0.0526 -0.0475
13499W        W88487   7.671   3.990  13.430  0.1035 -0.1010 -0.2932
13500W        W88488   3.361  24.995   0.914 -0.2402  0.1567 -0.4321
13501W        W88489  20.849  29.013  24.149  0.0693  0.0909  0.1124
13502W        W88490   2.390  29.170  22.670  0.0074  0.2582 -0.1137
13503W        W88491  32.207  29.241  23.817 -0.0631  0.0246  0.0706
13504W        W88492  18.425   3.506   0.107  0.0419  0.0181  0.1971
13505W        W88493  25.723   3.579  25.865  0.0223  0.1602  0.2283
13506W        W88494   5.033   6.513   9.757 -0.0406  0.3544 -0.1585
13507W        W88495  33.443  21.540  23.403 -0.0561  0.0892  0.3268
13508W        W88496  30.704  22.673  18.901 -0.3020 -0.2213  0.0171
13509W        W88497   1.814  33.533  22.264 -0.0224 -0.0772  0.0527
13510W        W88498   1.850  16.775   1.108 -0.0501 -0.1383 -0.1009
13511W        W88499  29.990  32.413   3.378 -0.0312  0.1441 -0.1394
13512W        W88500  33.060  12.798  14.095 -0.1593 -0.2917 -0.2490
13513W        W88501   2.900  29.950  11.602  0.0063 -0.0095 -0.0750
13514W        W88502   3.399   4.930  23.475  0.0042  0.0517 -0.3522
13515W        W88503  19.433  11.368  10.553  0.0833 -0.0733  0.1061
13516W        W88504  10.439  16.493   4.659 -0.0586  0.3889 -0.1844
13517W        W88505   5.864  27.798  10.095 -0.1742  0.0367  0.3453
13518W        W88506  23.407  31.258   1.507  0.2368  0.2267 -0.1551
13519W        W88507  18.637  20.738   8.195 -0.1631 -0.1313 -0.0900
13520W        W88508  11.977   3.456  24.806  0.0749  0.0080 -0.0366
13521W        W88509  11.187   2.160   9.038 -0.0988 -0.0649 -0.0753
13522W        W88510   9.769   1.500  12.927 -0.1376  0.1233 -0.0992
13523W        W88511  34.604  11.220  17.381 -0.1160  0.2383 -0.1154
13524W        W88512  10.979  14.051   5.972 -0.1109  0.1406  0.2579
13525W        W88513  32.392  11.681   6.683  0.3213 -0.1054 -0.0551
13526W        W88514   6.697  35.320   0.186  0.5285  0.2389  0.1258
13527W        W88515  34.869  32.804   4.411  0.1476  0.0390  0.2547
13528W        W88516   2.805   9.467   4.435  0.3959 -0.0157 -0.0557
13529W        W88517  26.886  22.117  25.048  0.1011  0.2753  0.0952
13530W        W88518  18.653   3.310   7.541 -0.0481 -0.1528  0.0403
13531W        W88519  21.261  21.551  22.909  0.1906 -0.0375 -0.0453
13532W        W88520  18.038   7.443   9.868  0.1909  0.0855  0.5160
13533W        W88521   2.486   7.415  24.775 -0.4129  0.0196 -0.0129
13534W        W88522  25.633  17.791   7.228  0.1464 -0.2199 -0.2115
13535W        W88523  12.280  23.830   5.603 -0.1522 -0.1777 -0.3205
13536W        W88524  12.947   8.017  25.969 -0.1166  0.1051 -0.0882
13537W        W88525  25.499  26.015  15.579  0.0850 -0.0561  0.1291
13538W        W88526  18.015   8.193  25.724 -0.0059 -0.0570 -0.0702
13539W        W88527  17.671  28.916  24.221 -0.1070  0.1500 -0.2980
13540W        W88528  19.262   6.210   9.423  0.2493 -0.3502 -0.0466
13541W        W88529  10.884  26.639  10.592  0.1363 -0.2517 -0.1988
13542W        W88530   7.065  22.036  23.071  0.0296 -0.4303 -0.0169
13543W        W88531  29.155  26.865  14.866  0.2846  0.0859  0.2824
13544W        W88532  17.754  16.489   2.516  0.1002  0.0308  0.0029
13545W        W88533  23.921  30.926  12.009  0.2937  0.3781  0.4670
13546W        W88534  10.774  26.243  22.305 -0.0602  0.0591 -0.2448
13547W        W88535   6.704  18.108   5.266 -0.0909 -0.0378  0.0761
13548W        W88536  27.883  30.712   3.562 -0.0998  0.3524 -0.0859
13549W        W88537  23.219  16.390  19.422  0.1751  0.1749  0.3218
13550W        W88538  30.432  27.942  24.875 -0.2545  0.1213 -0.1940
13551W        W88539  15.834   6.079  18.749  0.3045 -0.1534  0.1640
13552W        W88540  18.024   7.103   1.312  0.0599  0.2447 -0.2467
13553W        W88541   3.434  23.479  21.408 -0.3084  0.0910  0.0808
13554W        W88542  14.290   1.437  19.993 -0.0428 -0.0524 -0.2190
13555W        W88543  28.724  17.079   8.468 -0.0491  0.2280 -0.0671
13556W        W88544  15.625  17.880   7.620  0.0219  0.2212 -0.0027
13557W        W88545  23.680  33.433  21.578 -0.4482  0.0803 -0.1968
13558W        W88546  15.118  23.207  15.882  0.2624  0.0438 -0.0666
13559W        W88547  18.010   9.707  21.932 -0.0260 -0.0615  0.0450
13560W        W88548   9.900  23.197   2.163 -0.2997  0.0384 -0.0642
13561W        W88549  35.194  22.017  10.403 -0.1172  0.4139  0.0619
13562W        W88550  23.720   2.373  21.659  0.3052  0.0577  0.0684
13563W        W88551  30.057  16.461  15.051  0.1449  0.3106 -0.2553
13564W        W88552  26.799  31.285  21.644  0.3554  0.0513 -0.1799
13565W        W88553  18.971  29.742  21.095  0.1756  0.0282  0.3886
13566W        W88554   7.431   8.989   4.653  0.1089  0.0676 -0.1417
13567W        W88555   0.079  15.081   0.786 -0.0552  0.2100 -0.2798
13568W        W88556  27.341  11.483  22.262  0.2259  0.2527 -0.1863
13569W        W88557  27.443  25.991  17.256  0.2374  0.2537  0.1663
13570W        W88558  14.668  28.606  25.210 -0.1378 -0.0359  0.0773
13571W        W88559  14.437  27.517   3.636 -0.2635  0.2595  0.0365
13572W        W88560   3.450  31.497   9.471  0.1802 -0.0635 -0.1739
13573W        W88561  30.654  29.873   1.909  0.0606 -0.1620 -0.1786
13574W        W88562  33.348   1.670   6.063  0.1360  0.0705 -0.0888
13575W        W88563  25.495  31.164   4.056 -0.1755 -0.0791 -0.0240
13576W        W88564  35.038  25.855  22.001  0.1260  0.2764  0.0922
13577W        W88565  14.786  28.296   3.665 -0.1003  0.3165  0.0140
13578W        W88566  28.506   6.866  10.802 -0.2842 -0.3469 -0.1686
13579W        W88567  22.230  14.567   2.203 -0.3394  0.0565 -0.1060
13580W        W88568  23.988  14.667  13.777  0.0251 -0.1125  0.1985
13581W        W88569  26.662  28.298  13.306  0.1399 -0.2249 -0.0482
13582W        W88570  17.039  24.459   7.589  0.0550  0.0002 -0.1071
13583W        W88571  30.151  21.575  13.714  0.0456 -0.1147 -0.1988
13584W        W88572  15.407  32.088   9.979 -0.2956 -0.0854 -0.0769
13585W        W88573   4.398  24.037  20.694 -0.2372 -0.2033 -0.3071
13586W        W88574   8.599   8.887  23.966  0.0897  0.2857 -0.2047
13587W        W88575   9.757   0.626  22.340  0.1838  0.1552  0.1503
13588W        W88576   9.326  26.752  24.555 -0.5883 -0.1785 -0.0743
13589W        W88577   5.961  26.149   8.122 -0.0521  0.1558 -0.0336
13590W        W88578   0.158  24.544  21.297  0.1423  0.1765  0.1607
13591W        W88579   7.317  25.857   0.203  0.1316  0.3062  0.1080
13592W        W88580  28.475  23.169  10.739  0.1845 -0.1022  0.2059
13593W        W88581  33.128  25.445  21.732 -0.1234  0.1448 -0.0371
13594W        W88582  31.300  16.271   7.070 -0.1528  0.1019  0.0021
13595W        W88583  33.238   0.751  24.931 -0.0051 -0.0663  0.2789
13596W        W88584  11.915  22.699   5.980  0.3213  0.3504  0.1160
13597W        W88585  22.840  19.460  18.535  0.2038 -0.1318 -0.3413
13598W        W88586   7.206  31.169   9.568 -0.3245  0.1994 -0.0319
13599W        W88587   9.510  29.108   2.105  0.2037 -0.1346  0.0228
13600W        W88588   4.540  11.501   2.366  0.2255  0.1812  0.0304
13601W        W88589  25.106  16.994   6.896 -0.0949  0.1866 -0.3607
13602W        W88590  29.987   6.183  22.338 -0.0096 -0.0375  0.3883
13603W        W88591  31.274   1.864  22.493 -0.1985 -0.3576 -0.1272
13604W        W88592   0.676   5.411  20.989 -0.0246 -0.0532  0.0378
13605W        W88593  23.847   6.811  25.858  0.0738  0.0118 -0.0987
13606W        W88594   7.021  17.290   3.480 -0.0602  0.1574 -0.1720
13607W        W88595  19.643  15.346  19.894 -0.1042 -0.1520 -0.0224
13608W        W88596  10.764  12.925   9.387  0.0680 -0.2624 -0.0535
13609W        W88597  26.355  22.244   6.177 -0.1681  0.2114 -0.0534
13610W        W88598   3.836  16.786  16.662  0.0017  0.0037 -0.1011
13611W        W88599  34.283  31.199   4.653 -0.3065  0.0429 -0.1725
13612W        W88600  11.046  15.368   7.427 -0.1568  0.2539  0.1447
13613W        W88601  32.450  13.147   9.903  0.1537 -0.0391 -0.0532
13614W        W88602  34.915  19.066  20.933 -0.1071  0.1381  0.2630
13615W        W88603   9.525  19.716  12.461  0.0628 -0.1636 -0.0320
13616W        W88604  18.934  23.431   2.781 -0.4429 -0.2819  0.1696
13617W        W88605  26.908  28.549  22.812  0.0463 -0.1123  0.2868
13618W        W88606  26.340  26.488  25.832  0.2055 -0.2598  0.1020
13619W        W88607  11.693  19.087  14.289  0.2101 -0.1804  0.0529
13620W        W88608  33.252  33.039  26.080  0.1107 -0.0886 -0.1595
13621W        W88609  24.639  24.840  16.655  0.3199  0.1904  0.1539
13622W        W88610   7.878  25.032  14.105 -0.3865  0.1165 -0.0110
13623W        W88611  27.529  32.550  12.552 -0.0449  0.1774 -0.1657
13624W        W88612  30.946  11.796  24.152  0.0646 -0.0876  0.3005
13625W        W88613  14.948  16.923   8.525  0.2478  0.2296  0.6085
13626W        W88614  32.809  25.207   0.231  0.0152 -0.1676  0.2274
13627W        W88615  33.163  33.022  18.456  0.0107 -0.1062 -0.0023
13628W        W88616  23.941  32.247   3.363  0.0316 -0.1115  0.0498
13629W        W88617  28.673   8.763   8.761 -0.0227  0.1870  0.1297
13630W        W88618  23.344  26.018  19.046  0.2176 -0.0811 -0.1210
13631W        W88619  10.927  31.850  11.441 -0.1543 -0.0816  0.0652
13632W        W88620  19.693  31.836   7.864 -0.1841 -0.0681  0.2618
13633W        W88621  31.287   2.432  24.987 -0.4223  0.1327  0.0965
13634W        W88622  34.960  24.779   0.708 -0.0540 -0.2311  0.0408
13635W        W88623  28.488  32.953   0.460 -0.1967 -0.1049 -0.1584
13636W        W88624  23.709  28.516  16.138 -0.0210 -0.3307 -0.1491
13637W        W88625   5.954  27.804   1.013 -0.1181  0.2566 -0.0660
13638W        W88626   1.187  29.370   2.447 -0.3285 -0.1654 -0.1895
13639W        W88627   4.767  10.870   1.456 -0.3770 -0.1156 -0.3484
13640W        W88628   8.648   4.071   6.990  0.1059 -0.3351 -0.0185
13641W        W88629  31.519  10.101  15.188  0.2848 -0.3742  0.1216
13642W        W88630   5.263  22.623   7.526 -0.2988  0.0206 -0.2204
13643W        W88631  10.444  26.554  23.546  0.2322  0.3706  0.0385
13644W        W88632  26.287  21.412  21.376  0.0132 -0.2594 -0.4762
13645W        W88633  28.093  12.368  21.171  0.1759  0.0262  0.1000
13646W        W88634   7.992  30.785  11.778 -0.0046  0.0757  0.2286
13647W        W88635  19.517  11.190   4.934  0.1013 -0.1655 -0.1247
13648W        W88636   2.859   7.444  15.660  0.0282  0.0776 -0.2945
13649W        W88637   5.192   1.990   9.411 -0.0263  0.0774  0.2318
13650W        W88638  25.876  15.138  19.980  0.1338  0.1638  0.2248
13651W        W88639  15.933  19.258  21.206  0.2082 -0.1548  0.0248
13652W        W88640  28.249  12.256  13.132  0.2812  0.1199 -0.1513
13653W        W88641   2.049  24.037   4.520  0.2397  0.1974 -0.0519
13654W        W88642   0.183   7.575  25.072 -0.6952 -0.1212  0.1462
13655W        W88643  15.511   8.853  14.183  0.1319  0.0640  0.3806
13656W        W88644   2.898  11.679   5.207  0.3968 -0.0598  0.0297
13657W        W88645  31.819  23.464  13.978  0.2951  0.0577 -0.5155
13658W        W88646  29.403  17.638   5.378  0.1401  0.1850 -0.0508
13659W        W88647  23.020   5.484  24.851 -0.0764  0.3596  0.0362
13660W        W88648  19.614   6.447  25.594  0.0529  0.1539  0.1050
13661W        W88649  19.925  25.988   7.850 -0.1897 -0.2985 -0.1865
13662W        W88650  30.317  32.607  17.812  0.0261  0.1168  0.0326
13663W        W88651   7.459  28.651  23.686 -0.1104 -0.1053 -0.1065
13664W        W88652  22.876  27.070  22.689  0.3102  0.0887 -0.2019
13665W        W88653  10.205  23.061   9.851  0.1293 -0.2345  0.2759
13666W        W88654   7.824  23.605  14.997  0.2018  0.0497 -0.0815
13667W        W88655  16.846  28.271  23.581  0.1691  0.0880  0.3410
13668W        W88656   6.059   8.044   6.847  0.2400  0.0439 -0.0613
13669W        W88657  15.122  27.248  24.701 -0.1170 -0.2831  0.3500
13670W        W88658  24.559  11.976  21.765  0.1033  0.0848 -0.0846
13671W        W88659  30.738  14.344  26.126  0.2152  0.3137 -0.1201
13672W        W88660  23.156   6.004   5.922 -0.2828  0.2017  0.0953
13673W        W88661   6.257   6.251  11.047 -0.1436  0.0352 -0.0430
13674W        W88662  32.927   5.573  13.314 -0.0395 -0.0083 -0.3141
13675W        W88663  28.127  27.239  20.740 -0.0773 -0.0721  0.1470
13676W        W88664  17.540   1.587  24.461  0.3993  0.1218 -0.2072
13677W        W88665  25.407   9.164  24.691  0.1763 -0.3809 -0.1370
13678W        W88666   7.577  19.616   4.683 -0.1167  0.0521  0.1316
13679W        W88667  35.200   2.086  20.163 -0.3372 -0.1293 -0.1658
13680W        W88668   8.737  23.367  14.010 -0.1162  0.3921 -0.2569
13681W        W88669   9.081   1.962  23.409 -0.1161 -0.1906 -0.0386
13682W        W88670  32.731  32.558  14.655 -0.0533 -0.1941 -0.0399
13683W        W88671   1.903  23.944  19.088 -0.1588 -0.0764 -0.0080
13684W        W88672  18.409  34.413  24.020 -0.1842  0.1162  0.1441
13685W        W88673   8.050  32.863   9.282  0.1066  0.0297  0.0581
13686W        W88674  10.162   4.733  20.156 -0.1270  0.1671  0.0752
13687W        W88675  30.771  18.758  19.362 -0.1844 -0.3139  0.2423
13688W        W88676   4.373  31.376   3.846  0.1242  0.1474 -0.1382
13689W        W88677  21.680   1.825  19.682 -0.1317  0.3693 -0.1296
13690W        W88678  16.805  14.813  24.441 -0.0535  0.2761  0.0076
13691W        W88679   6.151  26.076  25.839 -0.2279 -0.3008  0.0684
13692W        W88680   2.903  25.224   2.662  0.0553 -0.1373  0.0972
13693W        W88681   7.473  23.318   6.033 -0.2530 -0.1173 -0.2311
13694W        W88682   5.428  26.426  24.351  0.1670 -0.2230 -0.1115
13695W        W88683   7.672  17.183  12.502 -0.0449  0.2159 -0.2212
13696W        W88684  25.858   0.407   2.500  0.0265 -0.1998 -0.1584
13697W        W88685  14.404  26.648  13.379  0.3220 -0.0513  0.1594
13698W        W88686  16.894   9.998   8.112  0.2742 -0.0157 -0.2192
13699W        W88687  34.738  33.206  14.665  0.2108  0.0445  0.0659
13700W        W88688  27.122  21.039  17.212  0.0619 -0.2558 -0.2954
13701W        W88689  13.746  25.512  12.081 -0.0000 -0.0322 -0.0119
13702W        W88690  19.251  29.680  18.296 -0.1545  0.1250 -0.1094
13703W        W88691  10.894  12.898  11.088  0.1560 -0.2861  0.0017
13704W        W88692  20.529   8.909  23.198  0.0240  0.0507  0.1616
13705W        W88693  27.273  14.887   8.396 -0.1647 -0.0725 -0.1581
13706W        W88694  16.898  28.394   3.888 -0.0172  0.1855  0.0934
13707W        W88695   7.642   5.947  25.893 -0.2655  0.1193  0.0192
13708W        W88696  28.984   2.137  22.839  0.0011 -0.5088  0.0913
13709W        W88697   8.618   3.215  25.507  0.0026  0.0604  0.1519
13710W        W88698   6.132   0.733  19.100 -0.2238  0.0536  0.1053
13711W        W88699  18.255  24.488  12.278 -0.0510  0.0185  0.1328
13712W        W88700   0.423  26.795   1.636 -0.1625  0.2463 -0.3439
13713W        W88701   0.383  30.655   3.561  0.1628  0.0747  0.0842
13714W        W88702   8.075   7.268   8.899 -0.0472  0.2496 -0.0919
13715W        W88703  20.543  13.377  22.397 -0.4644  0.2926 -0.2236
13716W        W88704  18.669  31.477   3.258 -0.1488  0.2426 -0.0726
13717W        W88705  24.302  19.670  18.840  0.1266  0.1199 -0.1959
13718W        W88706   1.512  31.349  23.155 -0.2553  0.1901 -0.1668
13719W        W88707   2.572  14.867  23.468 -0.1560  0.0481  0.1003
13720W        W88708   6.828  10.512  10.848  0.1202 -0.0172  0.1223
13721W        W88709  23.783  26.540  22.338  0.0172 -0.1463  0.3987
13722W        W88710   0.134  30.648  18.750 -0.0182 -0.2452  0.2887
13723W        W88711  12.696  13.288  10.248  0.1006 -0.1000 -0.0329
13724W        W88712  24.867  21.946  10.225  0.1948 -0.2231 -0.1459
13725W        W88713  25.799  18.421   8.834  0.0717  0.1743 -0.2416
13726W        W88714  25.197   5.231  24.707  0.1750  0.0184 -0.2120
13727W        W88715  22.990  27.771  18.835  0.5143  0.1081 -0.1821
13728W        W88716  17.872   4.076  17.942  0.1904  0.2177  0.0077
13729W        W88717  10.823  31.364  24.305  0.2962 -0.0721 -0.3165
13730W        W88718  23.049  12.981   1.013 -0.0386 -0.0298  0.4303
13731W        W88719  29.500  17.481   8.782 -0.0834  0.1791  0.0613
13732W        W88720   5.350  24.159  24.100 -0.1464 -0.1401 -0.1368
13733W        W88721  28.517   7.166  14.969 -0.3635  0.3484 -0.0028
13734W        W88722  17.925   5.283  11.410  0.0038  0.2794  0.0353
13735W        W88723  11.459  28.865   0.431  0.1180  0.3040 -0.1774
13736W        W88724  11.465  12.548   2.547  0.2652 -0.2167  0.2071
13737W        W88725  13.187  18.580  10.152  0.4137  0.0029 -0.1102
13738W        W88726  30.569   9.035  13.398 -0.0754  0.1769 -0.1904
13739W        W88727   8.058   0.301  26.216  0.1094  0.0548  0.1660
13740W        W88728   9.008   1.190  14.223 -0.0620 -0.0892 -0.0456
13741W        W88729  11.852   2.865  25.695  0.3164  0.2082 -0.1888
13742W        W88730   7.554  32.829  15.886 -0.1644  0.2103  0.0597
13743W        W88731  21.213  22.431  18.160 -0.2128  0.2809 -0.1641
13744W        W88732  19.010   5.881  23.732 -0.0299 -0.0771  0.2115
13745W        W88733  11.004   5.059   5.834  0.2334  0.1558  0.0390
13746W        W88734  30.680  23.596  10.209  0.4313  0.0881 -0.3526
13747W        W88735  34.912  10.468  18.017 -0.0411 -0.2421  0.0261
13748W        W88736   1.089  32.037   3.629 -0.1332  0.1572  0.2795
13749W        W88737   4.527  31.095  19.958 -0.0127  0.0606  0.0008
13750W        W88738  20.297  14.975  24.411  0.2894  0.0766 -0.1436
13751W        W88739   3.580  33.666   2.919  0.0335 -0.0088  0.0699
13752W        W88740  29.215  17.404  22.413  0.1612  0.0047 -0.2618
13753W        W88741  13.911  15.315   6.344 -0.2204 -0.1333  0.0177
13754W        W88742   7.295  14.379   5.501  0.0616 -0.1116  0.2579
13755W        W88743  22.244  21.336   4.429  0.2476  0.0946 -0.0236
13756W        W88744   3.318  34.851  19.086  0.1927  0.2000  0.1136
13757W        W88745   6.543  14.314  17.914  0.2236  0.0596  0.1650
13758W        W88746  23.241  31.382  15.303 -0.0664  0.3643 -0.2237
13759W        W88747  21.215  33.932  24.301 -0.0289 -0.1121 -0.1490
13760W        W88748   2.999  26.434   0.709  0.1864 -0.1347  0.1268
13761W        W88749   5.039  29.632  23.626 -0.0505  0.0662 -0.2101
13762W        W88750  30.985  27.454   2.540  0.2300 -0.0211 -0.0716
13763W        W88751  17.571  25.755  22.695 -0.0470 -0.2287 -0.2739
13764W        W88752  23.066  12.171   0.264  0.6582 -0.2667  0.0868
13765W        W88753  24.037   2.863  19.615 -0.1363  0.0742  0.0409
13766W        W88754   3.936  11.593   5.830  0.2163 -0.0663  0.1406
13767W        W88755  31.868  21.059   7.120  0.1023  0.2926 -0.0313
13768W        W88756   6.779   7.310  23.531  0.1155  0.1267 -0.0254
13769W        W88757  12.714  12.889   3.401 -0.0374 -0.1763 -0.2670
13770W        W88758   8.447  15.503   7.630  0.2685  0.0713 -0.0550
13771W        W88759  15.210  31.988  21.588  0.1055 -0.1196  0.1677
13772W        W88760  23.877   7.769  21.188  0.0411  0.2446  0.0428
13773W        W88761  23.862   4.485   1.851  0.0957 -0.0160 -0.0396
13774W        W88762  22.054  33.663  25.308 -0.1642 -0.1853 -0.0652
13775W        W88763  15.754  10.628   6.416  0.0199  0.0535 -0.1829
13776W        W88764  22.638  22.724  18.177 -0.0260  0.1568 -0.1792
13777W        W88765  13.995  13.750   2.663  0.1458  0.0078  0.0206
13778W        W88766  26.768  25.439  16.690  0.0603  0.1223 -0.0113
13779W        W88767  31.628  26.086  21.880  0.0450  0.0434  0.1443
13780W        W88768   8.610  26.492   0.647 -0.0052 -0.2739 -0.0459
13781W        W88769  22.862   9.427  20.419  0.0245  0.0251  0.2425
13782W        W88770  17.300  26.493  11.407 -0.0469 -0.1457 -0.1370
13783W        W88771  13.396  24.620   5.822 -0.0052  0.1406  0.1574
13784W        W88772  13.047  13.268   6.841 -0.0275 -0.0604 -0.2268
13785W        W88773  22.073  20.085  14.899 -0.3526  0.0827  0.1283
13786W        W88774  33.705  18.381  18.863 -0.2778 -0.0576  0.1162
13787W        W88775  29.965  10.607  14.160 -0.0205 -0.2523  0.3659
13788W        W88776  14.712  11.715  20.543 -0.1142 -0.0993 -0.0820
13789W        W88777   1.495  24.991   3.250  0.1077  0.1519  0.1464
13790W        W88778   6.326  30.044   7.466  0.0616 -0.0694 -0.0885
13791W        W88779   1.879  33.177  22.000  0.4479  0.1511 -0.2626
13792W        W88780  27.449  31.660  16.719 -0.0479  0.0650  0.1175
13793W        W88781  27.886   9.775  12.516  0.3051 -0.1635 -0.2711
13794W        W88782  26.737   9.286  18.797 -0.0493 -0.2811 -0.1857
13795W        W88783  12.523  27.265   9.820  0.2662 -0.0642  0.1272
13796W        W88784  33.824  20.962  24.208  0.0104  0.0684  0.1288
13797W        W88785  26.140   8.055  25.307  0.2748  0.0625  0.3244
13798W        W88786  14.777   9.573  23.958 -0.0365  0.0108 -0.1184
13799W        W88787  30.628  12.250  13.124 -0.0258 -0.2598 -0.0964
13800W        W88788  24.362  17.664  21.115 -0.1177 -0.3808  0.2450
13801W        W88789   1.978  30.262   8.771  0.1337 -0.0990 -0.0313
13802W        W88790   1.153  10.372  11.575  0.0661  0.3193  0.1838
13803W        W88791   8.975   8.965  12.936  0.0952  0.1112  0.0135
13804W        W88792  15.947  34.937   3.657 -0.4798 -0.1138 -0.0683
13805W        W88793  16.419  26.268  24.032  0.1340 -0.3439  0.2692
13806W        W88794  21.737  34.786   4.176  0.0165 -0.0533  0.4762
13807W        W88795  14.621  14.342  21.294 -0.0533 -0.1899  0.1187
13808W        W88796  28.108   5.119  21.881 -0.1021 -0.1239  0.3875
13809W        W88797  22.905  25.926  19.804  0.2479  0.1274 -0.2006
13810W        W88798  32.589  32.300   2.946 -0.0274  0.3899  0.2276
13811W        W88799  24.220  31.927  19.011  0.4130  0.0308  0.0325
13812W        W88800  14.889   7.472  23.721 -0.1232 -0.0554  0.2067
13813W        W88801   9.778  30.904  14.747  0.0672 -0.1164 -0.1353
13814W        W88802  35.072  20.930  20.488 -0.2633 -0.0667 -0.0339
13815W        W88803  24.565  26.093   3.183 -0.3176  0.1276 -0.1481
13816W        W88804  22.852   6.236  20.078  0.3598 -0.1097 -0.0005
13817W        W88805  27.782   0.326  12.354  0.3558 -0.0797  0.1426
13818W        W88806  19.213   5.347  11.389  0.2261 -0.0933 -0.2441
13819W        W88807  31.881  34.583  12.326  0.0687 -0.2303  0.0812
13820W        W88808  24.613  32.553  18.463  0.1081  0.1505  0.1391
13821W        W88809   5.614  12.751   8.562 -0.2455  0.1673  0.0258
13822W        W88810  35.178  29.373  25.448 -0.0276  0.1206 -0.0783
13823W        W88811  14.987   0.404   6.621 -0.2479 -0.2240 -0.0125
13824W        W88812  19.930   8.788  22.384  0.4006 -0.1282 -0.0889
13825W        W88813  18.809   9.550  10.429  0.0658 -0.3307 -0.0928
13826W        W88814  16.894  35.044   8.530  0.4748  0.1699 -0.1216
13827W        W88815  31.353  14.232  16.311 -0.2581 -0.3264  0.1072
13828W        W88816  16.734  32.168   2.066  0.2374  0.0335 -0.0458
13829W        W88817  33.244  16.598   8.431  0.1628 -0.1336  0.0052
13830W        W88818  32.243  16.603  18.175  0.0991 -0.0783  0.3536
13831W        W88819  30.453   4.073  15.520 -0.2353 -0.1143  0.1155
13832W        W88820   5.717  25.018  10.095 -0.0781  0.1421  0.1654
13833W        W88821  23.980  31.610   1.661 -0.0180 -0.1167 -0.0215
13834W        W88822  34.405  29.352  16.998 -0.1326 -0.0391  0.0648
13835W        W88823  33.527   6.635   2.410 -0.1705 -0.0778 -0.0810
13836W        W88824  27.347   1.710   2.031 -0.0578  0.3405  0.1809
13837W        W88825  22.576   5.403   1.511 -0.0852  0.0777  0.0691
13838W        W88826  20.518  10.384  19.627  0.3888  0.1331 -0.1239
13839W        W88827   3.889   4.691   0.380  0.0472  0.0748 -0.0299
13840W        W88828  14.886  24.787   4.111 -0.1620  0.0078 -0.0154
13841W        W88829   1.178  18.483  15.664 -0.3715 -0.0719  0.1095
13842W        W88830   7.655  24.398  21.594  0.4718 -0.1502  0.0424
13843W        W88831   3.790  31.432   6.914 -0.0421  0.2366 -0.1598
13844W        W88832   0.269  20.995  11.894 -0.0038 -0.0540  0.0766
13845W        W88833  30.316  21.057   9.410  0.1044  0.1163  0.1485
13846W        W88834   5.583  34.529  19.942 -0.1474  0.0011  0.1960
13847W        W88835  19.085  26.659   3.740 -0.1642 -0.1320 -0.0681
13848W        W88836  32.123  15.827  23.884 -0.0603 -0.0806 -0.0319
13849W        W88837  12.189   3.070  21.810  0.0008 -0.1441  0.3317
13850W        W88838   6.607  29.758   5.855 -0.4659 -0.2736  0.0896
13851W        W88839  24.347  34.816  22.953 -0.0568 -0.0989  0.1719
13852W        W88840  15.768  20.803   0.275 -0.1772  0.0466  0.0434
13853W        W88841  14.175   2.124   9.479 -0.2005  0.1299  0.1463
13854W        W88842  18.334  29.909  21.848 -0.0500 -0.1100 -0.0497
13855W        W88843  26.785  32.828   6.227  0.0489  0.2334  0.1577
13856W        W88844   2.282  23.142   2.288  0.2496  0.0023  0.4011
13857W        W88845  29.663  27.061  25.657  0.0045  0.0047  0.2913
13858W        W88846   2.198  23.373  24.439 -0.2153 -0.0446 -0.0570
13859W        W88847  14.761  20.084  24.330 -0.0321  0.1995  0.0693
13860W        W88848  13.620  22.452  16.020  0.2327  0.0183 -0.0245
13861W        W88849  14.717   0.223   1.759  0.0787 -0.1044 -0.0023
13862W        W88850  30.540  20.897  12.395  0.2725  0.0240  0.0577
13863W        W88851  10.792  29.853  25.357  0.0584  0.0560 -0.1085
13864W        W88852  24.851   8.041  24.446 -0.0559  0.1031  0.0788
13865W        W88853  15.242  30.150  25.536  0.1450 -0.0333  0.0845
13866W        W88854  17.024  23.444  21.076 -0.0258  0.1856  0.3363
13867W        W88855   6.011  15.028   1.277  0.0447  0.0206  0.0030
13868W        W88856  25.977  19.608  10.496 -0.0099  0.2257  0.2156
13869W        W88857  26.307  15.703  11.795 -0.2363 -0.2867 -0.2252
13870W        W88858  21.958  28.629  22.556 -0.0699 -0.1318  0.0371
13871W        W88859  18.374  19.013   8.268 -0.0390 -0.1968  0.0016
13872W        W88860   0.239   8.268  16.285  0.1166 -0.1170  0.2024
13873W        W88861   3.834  18.235  19.442  0.0210  0.2103 -0.1274
13874W        W88862  28.842  16.875   7.070  0.2342  0.0681  0.0722
13875W        W88863  32.585  10.449   9.622 -0.0778 -0.0312  0.0039
13876W        W88864  35.246  33.869   4.975  0.0610  0.0227  0.0850
13877W        W88865  31.823   1.480  19.127 -0.0135 -0.0165  0.1464
13878W        W88866  14.971  17.344   0.485 -0.2544  0.1136  0.0860
13879W        W88867   5.626   8.823   9.173  0.0392  0.3806 -0.2463
13880W        W88868  10.484  16.493  13.278  0.1177  0.0425  0.1273
13881W        W88869  18.882  18.435  20.822 -0.0201 -0.0614 -0.1359
13882W        W88870   5.179  21.473  21.799 -0.1904 -0.0969 -0.2070
13883W        W88871  16.004   9.066  22.439  0.0666 -0.1204  0.1193
13884W        W88872  28.395   4.841  17.136 -0.0989 -0.0372  0.4415
13885W        W88873  30.521  17.231  10.386  0.1210  0.2558 -0.0682
13886W        W88874  16.857  19.190  13.864 -0.0721 -0.0733  0.0204
13887W        W88875   6.935   0.755   4.761 -0.3064  0.0948 -0.0575
13888W        W88876  18.303   3.823   1.225 -0.0194  0.0866  0.0628
13889W        W88877   4.783  21.124   1.112  0.1395  0.0802  0.3017
13890W        W88878  25.860  28.723  13.995 -0.4026 -0.1648  0.0600
13891W        W88879  33.826  11.652   0.473 -0.1121 -0.1051  0.3035
13892W        W88880   0.541   0.520  24.493  0.1226 -0.2698 -0.0643
13893W        W88881  14.381  18.531  25.475 -0.0921  0.1108 -0.0106
13894W        W88882  24.976  23.466  16.054  0.0069 -0.0688  0.0717
13895W        W88883   4.443  14.422   2.096  0.0225 -0.0833 -0.0901
13896W        W88884   8.951  13.049   8.851 -0.0868 -0.0762  0.1770
13897W        W88885   2.127  33.450   7.512 -0.1212  0.1623  0.0012
13898W        W88886  10.553  27.394   7.128 -0.1373  0.1837  0.0438
13899W        W88887  10.939  20.288   1.214 -0.0254  0.0196  0.1077
13900W        W88888  29.187   2.119  24.631  0.2274 -0.1184 -0.0013
13901W        W88889   9.695   3.256   2.754  0.1688  0.0359 -0.0318
13902W        W88890  14.304  13.527  21.569  0.1371 -0.1773 -0.4732
13903W        W88891   6.453  30.429   8.786  0.0958  0.2369  0.0567
13904W        W88892  17.737  27.776   5.766 -0.2114  0.0114 -0.0685
13905W        W88893  32.608  16.599  18.508 -0.0092  0.2306  0.0957
13906W        W88894  19.969  25.464  19.904 -0.2707  0.3354 -0.3427
13907W        W88895  25.711  15.335  22.747 -0.0541  0.0105 -0.0904
13908W        W88896  13.946  22.122   1.847  0.0937 -0.0252 -0.2928
13909W        W88897  15.603  24.240   5.914  0.0320 -0.0082 -0.2411
13910W        W88898   6.725   3.424  24.361  0.0095 -0.0711  0.1197
13911W        W88899   2.464  27.180  22.637  0.0173  0.2574  0.1616
13912W        W88900  33.394  30.050  20.905  0.2977 -0.0871 -0.2286
13913W        W88901   8.603  34.393  22.627  0.1865 -0.0687 -0.2478
13914W        W88902  11.309  19.281   3.224 -0.0444  0.1627  0.2868
13915W        W88903   4.202  29.119  13.837 -0.3654 -0.0983  0.1276
13916W        W88904  28.922  29.476  21.700  0.1884 -0.2238  0.1596
13917W        W88905   9.534   7.388   9.975  0.0086  0.1405  0.0289
13918W        W88906  14.314  14.214   9.753  0.0538 -0.0511 -0.0893
13919W        W88907   9.039  20.876   8.240 -0.2790 -0.0012  0.1118
13920W        W88908  18.435   7.548   6.662  0.0377  0.0919  0.0594
13921W        W88909  18.984  24.287  12.567 -0.1610 -0.2111 -0.0774
13922W        W88910  12.481   4.022  18.742 -0.1139  0.2432 -0.0283
13923W        W88911   8.266   0.271  11.019 -0.3243  0.1943  0.3805
13924W        W88912  23.466  20.289  22.717  0.0257 -0.0259  0.0766
13925W        W88913  10.102  15.125   1.687  0.2564  0.2494 -0.1054
13926W        W88914   4.758  14.316  19.609 -0.1804 -0.2260  0.1593
13927W        W88915  11.700   3.668  25.694  0.0987 -0.1280  0.1244
13928W        W88916  32.092  29.433  19.853  0.3018 -0.3105 -0.1771
13929W        W88917  31.343  23.363  21.645 -0.2143  0.2247 -0.0224
13930W        W88918  34.032  10.814  15.934  0.0141 -0.2055 -0.1236
13931W        W88919   5.904  26.260  25.351 -0.0940  0.1377 -0.1097
13932W        W88920   0.303  28.544   3.489  0.2632  0.0249  0.3430
13933W        W88921  30.434  26.967  21.554 -0.3365  0.3566  0.0359
13934W        W88922  21.854  29.932  15.704  0.0117 -0.2255  0.0073
13935W        W88923  31.198   9.114  14.012  0.1276  0.1774 -0.3746
13936W        W88924  17.904   1.947  19.694  0.1324 -0.0686 -0.0550
13937W        W88925   8.470  25.829  16.657  0.1244  0.4415  0.2240
13938W        W88926  27.487  31.344  20.520  0.2455 -0.2859 -0.1765
13939W        W88927  24.176   0.787   4.009 -0.0827 -0.4698 -0.0241
13940W        W88928  10.348  18.925  23.581  0.1986  0.1809  0.0391
13941W        W88929  33.934   1.128   4.886  0.0659 -0.0016 -0.0793
13942W        W88930   3.910   5.098   6.543 -0.1521  0.1097  0.2512
13943W        W88931  24.898  15.039  20.334 -0.1583  0.0342  0.2289
13944W        W88932  29.501  26.635  12.460 -0.0993 -0.0708 -0.1169
13945W        W88933  21.185  18.063  18.137 -0.2624  0.1500  0.2098
13946W        W88934   7.771   8.612  20.092 -0.1243 -0.0957  0.0862
13947W        W88935  18.352   3.812   5.815 -0.1948  0.0762 -0.1644
13948W        W88936  21.437   9.704  20.236 -0.1677  0.0764 -0.0115
13949W        W88937   5.929  23.429   5.940  0.0683  0.1680 -0.1133
13950W        W88938  12.425   1.922   9.402 -0.3431  0.0299 -0.2192
13951W        W88939   1.425  28.249   4.367 -0.2640  0.1185  0.2582
13952W        W88940   0.670  23.593  22.943  0.1802 -0.0185  0.1874
13953W        W88941  22.181  12.430  23.550 -0.1154 -0.0505  0.0839
13954W        W88942  17.054  31.959  22.556  0.4652  0.2918  0.5190
13955W        W88943   2.665  21.695   2.202 -0.2904  0.2661 -0.1777
13956W        W88944  25.335  29.977  11.231 -0.2387 -0.1811  0.1098
13957W        W88945  21.821  11.896   1.973 -0.0040  0.1341 -0.1551
13958W        W88946  25.356  27.878  16.337 -0.1671 -0.1115 -0.1089
13959W        W88947  29.296   2.014   0.947  0.2386 -0.1829 -0.1059
13960W        W88948  17.221  16.321  19.018  0.0127  0.2551 -0.2146
13961W        W88949  15.001  20.985  12.739  0.0249 -0.1748 -0.0804
13962W        W88950   5.446   5.978  23.943 -0.0310 -0.0776  0.2437
13963W        W88951  33.760  17.063  15.717  0.2873 -0.2707 -0.2146
13964W        W88952  23.902  12.725   1.676  0.1490  0.0957  0.0976
13965W        W88953  24.312  11.256  23.328  0.0062 -0.0719  0.0895
13966W        W88954  31.500  23.574  26.017 -0.1882  0.4700 -0.0784
13967W        W88955   0.653  27.470   5.051  0.2066 -0.2733  0.1505
13968W        W88956   7.956  24.597   8.040 -0.3209 -0.1967 -0.1384
13969W        W88957  32.774   5.908  20.901 -0.0672 -0.0696  0.1907
13970W        W88958  33.929  32.417  24.235  0.0145  0.1116  0.1735
13971W        W88959   7.714   4.879  14.042  0.1401 -0.2398 -0.0622
13972W        W88960  29.962  31.157   3.206  0.1060 -0.3884 -0.0606
13973W        W88961   7.428  13.106   2.084 -0.1495 -0.3210  0.1857
13974W        W88962  10.896  19.067  11.379 -0.1507 -0.0073  0.1107
13975W        W88963  20.735   4.669  18.949 -0.0709  0.0609  0.0747
13976W        W88964   6.347  21.288  21.395  0.3823 -0.3863 -0.2862
13977W        W88965  15.610  34.886  21.318  0.0206 -0.1060  0.1058
13978W        W88966  20.689   7.634  25.351 -0.2113 -0.2219  0.0195
13979W        W88967  29.923  21.084  13.991  0.0762  0.0974  0.0141
13980W        W88968  20.511  25.200   7.889  0.2684  0.2623 -0.0372
13981W        W88969   8.766  17.869  23.232 -0.2483  0.1419  0.0245
13982W        W88970  16.906  33.372   5.858 -0.3402  0.0027 -0.0138
13983W        W88971   5.065  30.078  20.604  0.0220 -0.0192 -0.0136
13984W        W88972  31.064  21.238  11.517  0.0423 -0.3304  0.1363
13985W        W88973   7.676  28.364   5.493  0.0191 -0.1442  0.0788
13986W        W88974  21.092  35.155  18.456  0.0029 -0.0173  0.0412
13987W        W88975  25.188  29.094  24.827  0.6116 -0.0804  0.2968
13988W        W88976  23.299   2.462   6.891 -0.1875 -0.1263 -0.0461
13989W        W88977  32.712  10.928  22.124 -0.0007 -0.0498 -0.0578
13990W        W88978  12.485  26.693  25.176 -0.0256  0.2509 -0.0033
13991W        W88979  10.148  19.517   4.884  0.1351 -0.0883  0.0902
13992W        W88980  20.364  35.088  26.242  0.2694 -0.0356  0.1849
13993W        W88981   1.415  31.235   6.027 -0.1735 -0.3896  0.1570
13994W        W88982  23.203  10.165  24.685 -0.1870 -0.0323 -0.0043
13995W        W88983   8.438   4.968   8.772 -0.1315  0.1603  0.0932
13996W        W88984   2.089  34.950   5.695  0.5001 -0.1088 -0.1209
13997W        W88985  29.323  17.678  24.828  0.1584  0.2770  0.0595
13998W        W88986  29.920   0.483  16.043  0.3254  0.0062 -0.0008
13999W        W88987   4.510  25.051   4.388 -0.2311 -0.2764  0.1758
14000W        W88988  32.695   5.202  19.913 -0.3676 -0.1873 -0.0070
14001W        W88989  33.263  31.404  16.015 -0.4561 -0.0269  0.1660
14002W        W88990   8.113  31.533   5.016 -0.1072 -0.0249  0.1576
14003W        W88991  11.880  11.641  22.858  0.1049  0.1917 -0.1471
14004W        W88992  28.179   3.656  22.983 -0.4853 -0.2452 -0.0481
14005W        W88993  32.619  22.394  11.707 -0.0824 -0.1989  0.0678
14006W        W88994   3.745   5.991  21.400 -0.0316  0.0576  0.0132
14007W        W88995  23.486  18.247  18.210 -0.1076  0.1577  0.3338
14008W        W88996  12.821  13.941  19.571 -0.1783 -0.0280  0.1931
14009W        W88997  11.104   5.898  11.607  0.0834  0.0155  0.1208
14010W        W88998  15.075  28.311  23.005  0.0630  0.0836 -0.0355
14011W        W88999  13.824  12.814   9.448  0.1724 -0.0389 -0.0173
14012W        W89000  17.000  16.536   9.639  0.0060 -0.1943  0.0504
14013W        W89001   1.571  14.950   2.173  0.1670  0.1180  0.2194
14014W        W89002  28.011   6.683  25.723  0.2107 -0.0295 -0.1657
14015W        W89003  23.967  11.721  21.362  0.1200 -0.1092  0.1574
14016W        W89004   0.358   1.784  20.117  0.1917  0.2935  0.1159
14017W        W89005  16.651  18.173   5.353 -0.3152 -0.2358 -0.1889
14018W        W89006   2.764  12.180   1.839 -0.2623 -0.1372 -0.0558
14019W        W89007  13.769  22.521   1.019 -0.0017 -0.2665 -0.0280
14020W        W89008  20.376  19.626  22.540 -0.2505 -0.0959 -0.2078
14021W        W89009  20.655   5.721   7.977 -0.2719 -0.3898  0.0920
14022W        W89010  24.913  32.502  23.540  0.1273 -0.1344 -0.2213
14023W        W89011  28.605  27.318  14.257  0.1317  0.1877  0.2909
14024W        W89012  29.725  25.472  19.131 -0.4801 -0.1324 -0.2684
14025W        W89013  30.921   6.830  11.720  0.2069 -0.3286 -0.3613
14026W        W89014  19.229  31.497  25.409  0.2793 -0.2589  0.0980
14027W        W89015   3.552  27.926   4.113 -0.0718  0.2134  0.1221
14028W        W89016  31.949  26.070  22.227  0.0352 -0.0382  0.0572
14029W        W89017  27.890   6.984  11.026  0.0058 -0.1559  0.0528
14030W        W89018   9.345  28.453  22.295  0.1591 -0.1719  0.0251
14031W        W89019  19.510  25.984   5.400  0.0996 -0.3708  0.1202
14032W        W89020   8.357  34.331  13.853 -0.0980 -0.2621  0.0960
14033W        W89021  33.689  11.466  17.185  0.0267  0.0156  0.2802
14034W        W89022   7.694   7.629  18.622 -0.0341 -0.0225 -0.0605
14035W        W89023  17.616  23.380  23.658  0.2985  0.2344 -0.2320
14036W        W89024  19.164  18.072   1.156  0.5611 -0.0972 -0.1700
14037W        W89025   1.362  19.973  15.021 -0.0632  0.1694 -0.2678
14038W        W89026  33.309   1.295  21.421 -0.0444  0.2461 -0.1584
14039W        W89027  15.984  12.405  13.662 -0.1508 -0.2068  0.0835
14040W        W89028  20.564  16.402  18.500  0.1491  0.1141 -0.1791
14041W        W89029  25.902   8.922   9.804  0.2204 -0.2914 -0.0747
14042W        W89030   4.760  14.147  22.125 -0.0327  0.3091  0.4626
14043W        W89031  32.161   6.679  21.326  0.0684 -0.0133  0.0532
14044W        W89032   5.353   5.510  24.265  0.1319 -0.3473 -0.0285
14045W        W89033  10.841  33.322  14.086  0.1098 -0.1260  0.0906
14046W        W89034   9.176  26.190   9.961 -0.3604 -0.1707  0.1602
14047W        W89035  12.909  22.784   4.097 -0.0931 -0.1064  0.0445
14048W        W89036  31.482  15.363  10.346 -0.1230 -0.0925 -0.1914
14049W        W89037  32.487  35.313  14.627 -0.0543 -0.1373 -0.0223
14050W        W89038  24.614  27.234   1.207 -0.3605 -0.1018  0.2673
14051W        W89039  33.422  13.294  19.607 -0.0761  0.0222  0.1596
14052W        W89040  31.070   2.976   0.913  0.4308 -0.2667  0.1060
14053W        W89041   4.630  10.158  26.081  0.1211  0.0593 -0.1100
14054W        W89042  22.936   9.892  23.582 -0.0698 -0.0987  0.0024
14055W        W89043  34.853  22.612  13.660  0.0410  0.2519 -0.4088
14056W        W89044  32.558   1.413  13.954  0.0187  0.1019  0.3124
14057W        W89045   7.217  34.170  13.653  0.1836 -0.2047  0.0965
14058W        W89046  26.576  30.252  11.869 -0.0262  0.1050  0.0913
14059W        W89047   1.172  18.298  21.259 -0.1219  0.0474 -0.0551
14060W        W89048   6.018   7.728  24.451  0.1061  0.1305  0.0162
14061W        W89049  13.001  23.269   1.151  0.0377  0.1304  0.1808
14062W        W89050  11.398  14.686   1.124  0.0747 -0.0500  0.1539
14063W        W89051  15.189   3.588   0.918  0.2961  0.0398 -0.1430
14064W        W89052  32.921  31.324   2.232 -0.1036  0.0944  0.2231
14065W        W89053  12.467  19.859  23.953 -0.1775  0.3266 -0.2206
14066W        W89054   4.233   6.305  25.833 -0.3048 -0.0403 -0.0530
14067W        W89055  25.987  24.192  25.341  0.1410  0.1913 -0.0774
14068W        W89056  32.029   3.640  17.172 -0.1098 -0.0316  0.1400
14069W        W89057   9.101  34.015  11.788 -0.2956  0.3719 -0.0017
14070W        W89058  14.711  33.385   0.520 -0.2904  0.0873 -0.2832
14071W        W89059   0.421  19.171   1.217  0.0730 -0.0382  0.2769
14072W        W89060  21.491   7.596   2.753 -0.0495 -0.0182  0.0422
14073W        W89061  15.760  10.854   5.936  0.1204  0.2913 -0.0654
14074W        W89062  14.203  15.160   0.300  0.1439  0.3803 -0.0538
14075W        W89063  31.067  24.742  14.959  0.1015 -0.1456  0.2694
14076W        W89064  20.217  25.624   8.009 -0.2261 -0.1899 -0.2776
14077W        W89065  29.131  23.650  20.980 -0.1102 -0.0865 -0.0315
14078W        W89066  19.640  15.805   2.446  0.3052  0.0774 -0.1299
14079W        W89067  11.382  34.113  11.639  0.3860 -0.2880  0.0919
14080W        W89068   9.963  30.616  11.521 -0.0335  0.5621  0.1455
14081W        W89069   7.228   3.369  10.086 -0.1570 -0.1171 -0.0879
14082W        W89070  21.940   3.670  20.066  0.0380 -0.1013 -0.2282
14083W        W89071  21.423  11.156  15.904  0.0524  0.1311 -0.2653
14084W        W89072   5.750  11.160   3.531 -0.0634  0.2465 -0.0664
14085W        W89073   8.584  23.511  25.228 -0.2499 -0.1584 -0.0639
14086W        W89074  25.923  26.815   3.156 -0.0478  0.1281  0.2602
14087W        W89075  15.104  30.972  23.933  0.0183 -0.2977 -0.2224
14088W        W89076  13.973   4.551   8.984  0.0060  0.3160  0.2083
14089W        W89077  13.288   3.672  18.521  0.0253 -0.1689 -0.2006
14090W        W89078  25.581  30.175  25.987 -0.0483 -0.0054 -0.0917
14091W        W89079  14.917  17.831   3.254 -0.0731 -0.0996  0.0234
14092W        W89080  13.897   0.337  11.441 -0.0647  0.3607  0.0824
14093W        W89081  27.092   5.091   0.008  0.3377 -0.0965  0.2531
14094W        W89082  18.025  33.091  17.808  0.0435 -0.2742 -0.2892
14095W        W89083   9.456  17.512  12.146 -0.0816  0.2024 -0.3280
14096W        W89084  15.596   7.270  22.192 -0.1744  0.3356  0.0861
14097W        W89085  31.707   5.886  20.105  0.1929 -0.1870  0.3369
14098W        W89086  21.982  25.067  19.097 -0.0480 -0.2233  0.1109
14099W        W89087  25.491   1.490   5.939  0.2495 -0.0117 -0.3791
14100W        W89088  21.128   5.619  19.083 -0.0637  0.1152  0.3811
14101W        W89089  23.606   7.719  17.360 -0.3093 -0.0824  0.0360
14102W        W89090  10.927  18.517   8.117  0.1191  0.0154 -0.1063
14103W        W89091  14.535  18.345   8.762  0.2165  0.1721 -0.2827
14104W        W89092  22.658  25.395  23.229 -0.1416 -0.0390  0.0723
14105W        W89093  28.671  18.255  25.020  0.3194 -0.0309 -0.3427
14106W        W89094  34.760  20.253  22.070 -0.1559  0.1610 -0.0324
14107W        W89095  28.199  17.574  25.893 -0.2410 -0.2997 -0.2229
14108W        W89096  32.959  21.317  14.899 -0.1106  0.0200 -0.2901
14109W        W89097  25.518   1.349   3.837  0.2858 -0.0384 -0.4183
14110W        W89098  20.367  34.310  20.258 -0.1801 -0.1083  0.0543
14111W        W89099   8.501  15.504  11.561 -0.1871  0.2170 -0.0321
14112W        W89100  10.018  25.227  25.413  0.0216 -0.0545 -0.1790
14113W        W89101   5.292   7.150   9.431  0.1272  0.0082  0.0821
14114W        W89102   5.048   4.589  17.652  0.2781 -0.0009 -0.1622
14115W        W89103  24.272  34.304  18.720 -0.1690 -0.0377 -0.4159
14116W        W89104   4.060   8.433  24.168  0.0429 -0.1965  0.0087
14117W        W89105  28.140  33.096  21.430  0.0929 -0.1759 -0.0068
14118W        W89106   7.122  27.225  20.958  0.1267 -0.2987  0.0580
14119W        W89107   8.483  31.370  22.148  0.0895  0.0771 -0.1966
14120W        W89108  30.718   4.090  19.993  0.0812  0.1060 -0.0239
14121W        W89109  25.364  16.265  25.933 -0.0447  0.0202  0.0257
14122W        W89110  19.520  22.542   3.231 -0.0246 -0.0370 -0.0527
14123W        W89111  33.127   5.056  12.642  0.2106  0.0321 -0.0151
14124W        W89112  27.298  30.113   2.942 -0.3180  0.1161 -0.0596
14125W        W89113   7.686  28.229  14.164  0.0316 -0.0414 -0.1030
14126W        W89114  34.661   2.709  26.137  0.1804  0.0795 -0.2452
14127W        W89115  26.286  27.636  18.281 -0.3384 -0.1901  0.2014
14128W        W89116  16.767   9.459   6.178  0.0399  0.0845  0.1905
14129W        W89117   8.128   4.562  13.909 -0.2516 -0.0502  0.0669
14130W        W89118  20.715  26.660   2.187 -0.0234 -0.0914 -0.0453
14131W        W89119  18.035  16.966  19.989 -0.0949  0.1864 -0.2494
14132W        W89120  27.568  33.265  22.942  0.2288  0.0613 -0.2826
14133W        W89121  16.086  35.050  17.926  0.0397 -0.2536  0.0604
14134W        W89122   7.539  35.067   0.120  0.2367  0.1076 -0.0226
14135W        W89123  10.829  23.064  13.429 -0.4470 -0.3662  0.1478
14136W        W89124   5.703  29.427   8.081 -0.1082 -0.0692  0.3059
14137W        W89125   3.749  10.137   6.188 -0.1589 -0.1555 -0.1819
14138W        W89126  16.293  10.887  12.882  0.1345  0.2127 -0.3091
14139W        W89127  25.870  20.631  22.388  0.3417 -0.0668  0.0831
14140W        W89128  15.139  10.621  18.884 -0.0266 -0.0860 -0.1097
14141W        W89129  14.150  21.180  16.424 -0.2090 -0.0850  0.1923
14142W        W89130  18.762  25.898   6.324 -0.0733  0.0825  0.1026
14143W        W89131  20.456   1.366   3.909  0.1022 -0.1140  0.1198
14144W        W89132   2.783  18.512   3.114  0.0887  0.1695  0.0303
14145W        W89133  23.621  14.875  20.817  0.0010  0.1254  0.1687
14146W        W89134   2.981  12.850   3.740  0.2803 -0.0931 -0.1484
14147W        W89135  30.812  21.690  23.715 -0.0529 -0.0406 -0.0587
14148W        W89136   6.561   8.866   5.957 -0.1869 -0.0674  0.2835
14149W        W89137  34.988   4.190  22.671 -0.2997 -0.0909  0.0573
14150W        W89138  14.284  33.584   9.299  0.0088  0.2627  0.1967
14151W        W89139  27.958  26.285  18.837 -0.1615 -0.1932  0.0782
14152W        W89140  17.647   4.959   9.315 -0.2869 -0.3220 -0.1306
14153W        W89141  22.923   7.084   1.396 -0.1839  0.4291  0.0236
14154W        W89142   2.204  12.324  15.660  0.2146  0.1034 -0.1430
14155W        W89143  17.454  22.632  11.204  0.0564  0.1107 -0.0062
14156W        W89144  31.968  10.801  18.727  0.1392 -0.0268  0.0794
14157W        W89145  16.577  24.974   5.404 -0.2976 -0.0273 -0.0057
14158W        W89146  24.923  32.407  13.979  0.0632  0.3286  0.0707
14159W        W89147  12.572  28.240  22.625 -0.1601 -0.0148  0.1116
14160W        W89148  22.680  28.234  12.940  0.1592 -0.0990 -0.0735
14161W        W89149  29.497  26.671  15.262  0.3079  0.1132 -0.2122
14162W        W89150   9.126   8.836  24.907  0.0679  0.0370 -0.2935
14163W        W89151  21.052  25.106   4.506 -0.0113 -0.3688 -0.3153
14164W        W89152  20.302  31.254  24.212  0.0673 -0.2168  0.1111
14165W        W89153  32.245  24.485  14.146 -0.1252  0.2102  0.0276
14166W        W89154  15.283   7.608   4.930  0.2806 -0.3823  0.4889
14167W        W89155   5.544   0.632   9.962 -0.4154 -0.0143  0.1237
14168W        W89156  17.921  19.266  22.804 -0.2506 -0.0883 -0.0818
14169W        W89157   2.933  15.543   3.799  0.0606  0.1155 -0.3135
14170W        W89158   2.986  12.404  23.724 -0.0010  0.3084 -0.0280
14171W        W89159  11.395  10.868   4.563 -0.0495  0.0896 -0.0720
14172W        W89160   0.787  17.951  22.111 -0.3328  0.0346 -0.0421
14173W        W89161  13.457  12.473   1.415  0.1457  0.0361  0.2426
14174W        W89162   7.828  20.939  23.855  0.0774  0.0765  0.0964
14175W        W89163  28.992  25.887  16.679 -0.0418  0.0818 -0.2987
14176W        W89164  29.585  27.175   0.456  0.0070  0.1644  0.0750
14177W        W89165  22.680   4.694  25.037  0.1738 -0.0018  0.0955
14178W        W89166  23.236  20.893   1.408  0.2475  0.1020  0.0648
14179W        W89167  18.849   5.568   0.129  0.1380  0.0278 -0.1892
14180W        W89168  26.800  13.996  21.303 -0.0475 -0.2366  0.1642
14181W        W89169  19.074  26.390   0.726  0.0677  0.0860 -0.4335
14182W        W89170   9.734  25.991  13.915 -0.0985 -0.2030  0.1661
14183W        W89171  14.668  10.037  11.321 -0.2010 -0.0681 -0.1298
14184W        W89172  28.221  27.183   1.985  0.1864 -0.0345 -0.3618
14185W        W89173  28.323  15.038  18.246 -0.1937  0.1370  0.1380
14186W        W89174   7.957   1.654  11.435 -0.1095 -0.3414 -0.0796
14187W        W89175   4.465  24.831   3.885 -0.0347 -0.3051 -0.5650
14188W        W89176  31.890  18.544   4.998  0.2230 -0.0230  0.3822
14189W        W89177  11.767   1.401   1.995  0.0342  0.1260 -0.3380
14190W        W89178  33.298   4.430  23.083 -0.2581  0.0193 -0.0320
14191W        W89179  34.821  18.254   9.076 -0.1863  0.0626  0.0790
14192W        W89180  32.730  21.859  24.087 -0.4482 -0.1492  0.0438
14193W        W89181  14.528  18.399  12.513  0.3947  0.1021 -0.0700
14194W        W89182  15.158  11.189   1.138  0.1733  0.1556 -0.0550
14195W        W89183   6.241  33.400   0.877 -0.2062 -0.3475  0.6542
14196W        W89184   9.459   4.868   6.951 -0.0495  0.1907  0.3624
14197W        W89185  21.018   6.920  22.501  0.0747  0.0081  0.1799
14198W        W89186  31.960  19.208  17.438  0.2049 -0.2365 -0.0158
14199W        W89187   9.973  33.960  22.551 -0.0064 -0.3208  0.3412
14200W        W89188  25.679  17.467  10.410 -0.0354  0.2415 -0.2856
14201W        W89189   8.356  23.483  16.016 -0.1269  0.0976 -0.3890
14202W        W89190  33.094  29.781  15.996 -0.2960 -0.0462 -0.0575
14203W        W89191  22.585   9.239   0.796  0.0956 -0.1342  0.0828
14204W        W89192  24.932   0.440  20.311  0.1638 -0.4511  0.1660
14205W        W89193   2.350  18.432   2.810 -0.1044 -0.1702  0.2981
14206W        W89194  32.188  25.962   0.085  0.1931  0.1313  0.0506
14207W        W89195   0.310  20.033  25.939 -0.1152 -0.2910  0.1339
14208W        W89196  14.322   3.122  26.127 -0.2730  0.1575 -0.0214
14209W        W89197  26.126   9.638  15.295  0.0234 -0.2509  0.1480
14210W        W89198  19.145  14.248   6.930  0.1207  0.1372  0.3007
14211W        W89199   1.782  30.410   6.935  0.0235  0.1388  0.0080
14212W        W89200  33.987   4.708  15.988  0.0453 -0.0892 -0.0497
14213W        W89201  11.218   8.952   1.819 -0.1052  0.2071  0.0965
14214W        W89202  17.375  25.987   6.292  0.0603 -0.0079 -0.1494
14215W        W89203  16.569   4.355   3.863 -0.2206  0.2002  0.2386
14216W        W89204  25.247  28.913  12.238  0.1565 -0.0918  0.1063
14217W        W89205   4.495   7.011   2.779 -0.1346 -0.1628  0.2999
14218W        W89206  25.053   3.710  21.125 -0.2571 -0.2345 -0.3287
14219W        W89207   6.910  16.996  17.525 -0.1225  0.1526 -0.1433
14220W        W89208   5.925  31.713  26.139  0.1473  0.1298 -0.6105
14221W        W89209  24.121  20.163  11.633  0.1673 -0.2627 -0.0290
14222W        W89210   7.422   0.981   2.248 -0.1832  0.1569 -0.0894
14223W        W89211  12.738  20.445   0.980  0.2449 -0.0898 -0.0153
14224W        W89212  14.410   0.136  24.436 -0.1853  0.1774 -0.4261
14225W        W89213   4.102  11.937  16.352 -0.3943  0.0542  0.2100
14226W        W89214  14.575  19.390  11.020 -0.1468  0.0530  0.2594
14227W        W89215  12.803   8.104   4.186 -0.1365  0.1203  0.2878
14228W        W89216   2.141  29.741  19.915  0.0553 -0.2511 -0.0639
14229W        W89217  29.593  15.580  13.080 -0.1599 -0.0106 -0.1357
14230W        W89218   2.183  27.987   6.009  0.1667  0.1381 -0.3422
14231W        W89219  34.736  29.898   1.396 -0.4590  0.0552  0.0442
14232W        W89220  16.318  28.745  11.388  0.0516  0.4357  0.0590
14233W        W89221   5.587  23.219   2.351 -0.0134 -0.1721  0.3065
14234W        W89222   1.177   3.776  21.374 -0.0313 -0.0300  0.1493
14235W        W89223  11.944  11.457   5.734  0.0813 -0.1345 -0.1380
14236W        W89224  26.771  24.393  25.624 -0.1379  0.0895 -0.0207
14237W        W89225   5.065  16.034   7.772 -0.0101  0.1351  0.0666
14238W        W89226   6.192   1.935   9.392 -0.4194 -0.4392 -0.2341
14239W        W89227  24.402   7.461  18.186  0.0100  0.0991  0.0144
14240W        W89228  10.818  14.338  11.203 -0.1090  0.3531 -0.0148
14241W        W89229  32.528  24.753  21.098  0.2974 -0.1481 -0.0721
14242W        W89230  18.530  15.942  17.075 -0.1935 -0.0385  0.0815
14243W        W89231  18.011  24.684  23.645  0.1403  0.0780 -0.0946
14244W        W89232  25.443   2.609   1.114  0.0257 -0.0397 -0.0722
14245W        W89233   9.782  32.428  21.855 -0.1128  0.2312  0.0456
14246W        W89234  25.577  28.267  17.183  0.0127 -0.0239  0.0106
14247W        W89235   5.018  29.077  25.441 -0.0685 -0.0668 -0.1080
14248W        W89236  25.687   8.476   0.386  0.1588 -0.1998  0.0585
14249W        W89237  18.411  10.558   5.373 -0.2300  0.2697 -0.2314
14250W        W89238  15.593  27.439  23.821 -0.1728 -0.1411 -0.1739
14251W        W89239   2.418   2.704  25.873 -0.1368 -0.0641  0.1905
14252W        W89240  10.542   2.932   2.093  0.4615 -0.0822  0.1124
14253W        W89241  31.227  11.247  10.719  0.3892  0.2489  0.1432
14254W        W89242  30.846  28.927   2.264 -0.2093 -0.0831  0.0242
14255W        W89243   2.467  10.414  18.798 -0.2089 -0.1089 -0.1589
14256W        W89244  31.002  34.512  18.971  0.0099  0.0435 -0.0712
14257W        W89245   8.867  15.339   4.398 -0.2125 -0.2059  0.0169
14258W        W89246  14.870  32.248  12.007  0.2816 -0.0095  0.1344
14259W        W89247  32.103  14.217  25.903  0.0355  0.0178  0.1258
14260W        W89248  29.834   7.129  26.008  0.1038 -0.0567  0.3895
14261W        W89249  18.319   6.521  10.216  0.4217 -0.0938  0.0424
14262W        W89250  13.555  19.033  21.210 -0.3758  0.0945  0.2631
14263W        W89251  17.406  22.488   7.712 -0.1352  0.1568  0.2354
14264W        W89252   5.187  13.523  19.278 -0.0538 -0.0477  0.0275
14265W        W89253  20.906  10.969  22.464 -0.0442  0.0761 -0.1988
14266W        W89254  33.511  25.241  20.567 -0.2926  0.1107  0.0214
14267W        W89255   4.172  23.636  22.729 -0.3028 -0.1317 -0.3106
14268W        W89256   0.652  25.682  15.920 -0.3300 -0.5219  0.1294
14269W        W89257  10.415  26.875   2.175  0.1635  0.1548  0.1048
14270W        W89258  15.610  34.358   2.126 -0.2218  0.0980  0.0949
14271W        W89259  34.489  14.039  24.265 -0.2182  0.1563 -0.2431
14272W        W89260  10.924  13.499  10.408  0.0526  0.2269  0.2142
14273W        W89261  33.471   2.808  12.223 -0.2658 -0.0699 -0.0401
14274W        W89262   9.629  13.629   8.980  0.0272  0.1820 -0.1431
14275W        W89263  34.576  20.272  15.142 -0.0993 -0.1279 -0.3382
14276W        W89264   4.037   5.278  19.147 -0.1991  0.0571  0.0174
14277W        W89265   9.622  13.591  13.349  0.1580 -0.1134 -0.3135
14278W        W89266  20.083  31.401  20.906  0.3679 -0.1468 -0.0631
14279W        W89267   4.196  26.465  10.641  0.0740 -0.2119 -0.2441
14280W        W89268  14.883  24.886  14.408  0.1961  0.1223 -0.2398
14281W        W89269   6.887  13.676   7.527 -0.1964 -0.0429  0.1173
14282W        W89270  23.671  26.636   2.905 -0.1061  0.2219  0.4631
14283W        W89271  22.161  10.616   3.400 -0.2450 -0.3220  0.2376
14284W        W89272  15.615  32.718   2.640  0.1629 -0.0542 -0.1201
14285W        W89273   8.237  23.516  22.499 -0.3430  0.1808 -0.1315
14286W        W89274  27.568   0.692  16.229 -0.0637  0.3363 -0.0189
14287W        W89275  26.102  30.646  14.832 -0.0894 -0.1410 -0.1520
14288W        W89276  18.519  10.930   2.777  0.1599  0.1495  0.1195
14289W        W89277   7.459  26.659  10.707  0.2236  0.0133 -0.2307
14290W        W89278  15.915  31.271   0.986  0.0498 -0.3257  0.0831
14291W        W89279  32.031  17.903  19.961  0.0269 -0.0368 -0.0491
14292W        W89280  23.990  24.788  22.818  0.0253 -0.0992  0.1105
14293W        W89281  21.884   1.648   1.642  0.3852  0.0276 -0.3904
14294W        W89282  14.954   9.092   1.266  0.0557  0.3151 -0.1082
14295W        W89283  10.666  16.716   8.565  0.1064  0.1877 -0.1468
14296W        W89284  17.018  31.626   9.564  0.0494 -0.0553 -0.1129
14297W        W89285  31.509  28.118  21.297  0.3193 -0.0529  0.2295
14298W        W89286  13.178  17.737  20.901 -0.1067 -0.1449  0.2608
14299W        W89287  27.273   8.107  18.374  0.1418  0.1399  0.0118
14300W        W89288  33.755   9.258  26.107 -0.1348 -0.5422 -0.1151
14301W        W89289  24.262  17.083  25.279 -0.0489 -0.0842  0.1125
14302W        W89290  32.208  15.066  25.574 -0.1837  0.0221  0.3540
14303W        W89291  20.134  30.144   1.752  0.4196  0.1253 -0.0454
14304W        W89292  15.296   1.540   2.748 -0.1075 -0.2054  0.0443
14305W        W89293  27.234   6.898  10.501 -0.0355 -0.1057  0.2189
14306W        W89294  21.515  31.327  16.629 -0.1277  0.1234 -0.0912
14307W        W89295  27.775  15.116  11.704  0.2519  0.0945  0.0807
14308W        W89296  31.340  14.221  12.818 -0.1856 -0.0172 -0.0266
14309W        W89297  20.674   5.229   9.637  0.2729 -0.0886 -0.1058
14310W        W89298  26.296  32.308  22.888 -0.0101  0.3322 -0.2604
14311W        W89299  23.240   1.342   6.563  0.3592  0.0081 -0.1351
14312W        W89300   9.214  24.442   4.603  0.1878  0.0975  0.3769
14313W        W89301   0.690   2.368   2.977 -0.0565  0.1538 -0.0125
14314W        W89302  17.001  18.765   8.771 -0.0670  0.1082  0.1315
14315W        W89303   1.174  24.427   0.706  0.2955 -0.3158 -0.0117
14316W        W89304   1.033  18.152  12.527  0.0243 -0.1774 -0.4179
14317W        W89305  32.277  24.442   9.477 -0.0255 -0.2920 -0.3489
14318W        W89306  20.276  29.442   1.240  0.0697 -0.0440  0.0392
14319W        W89307  32.930  20.216  21.165 -0.0421  0.1804 -0.3298
14320W        W89308  21.327  33.555  16.040 -0.0375  0.2156 -0.1522
14321W        W89309  32.497  26.597  17.934 -0.0719 -0.1191  0.0713
14322W        W89310  18.119  25.304  22.021  0.0965 -0.1395  0.0311
14323W        W89311  35.195  23.642  20.287  0.2432  0.2004  0.1259
14324W        W89312  15.266  23.577   2.536  0.0588 -0.1071 -0.1846
14325W        W89313  23.323  33.551  20.641 -0.0033 -0.0975  0.2593
14326W        W89314  11.129   4.553  12.838 -0.1800 -0.3188  0.3091
14327W        W89315  17.067  31.155  22.784 -0.0125  0.1939 -0.1136
14328W        W89316   6.243  10.638   0.110  0.0929  0.0135 -0.0115
14329W        W89317   5.554  11.142  21.043  0.1577 -0.2469  0.0243
14330W        W89318  31.646  29.360  20.865  0.0927  0.2040  0.0100
14331W        W89319  29.893  27.685  12.660  0.2632 -0.4508  0.0968
14332W        W89320  23.820  26.012  20.620  0.1554  0.1312 -0.0454
14333W        W89321  20.293  10.233  24.283 -0.0969  0.1519  0.1858
14334W        W89322  29.259  13.231  19.422  0.0965  0.3555 -0.0778
14335W        W89323   7.778   0.624   7.547 -0.0411 -0.2721 -0.0592
14336W        W89324  16.780  26.728   7.636  0.2711 -0.1255  0.1128
14337W        W89325  22.672   1.516   3.669  0.0021 -0.1485  0.1391
14338W        W89326  21.246  30.997  18.472  0.1151 -0.4511 -0.1059
14339W        W89327  11.150  33.997   0.047 -0.2650  0.0745  0.2029
14340W        W89328  31.610  28.848  17.239 -0.1977  0.1192 -0.0289
14341W        W89329  22.180  21.480   1.778 -0.1406 -0.0863 -0.2175
14342W        W89330   2.428   3.728  18.299 -0.2326 -0.2267 -0.2025
14343W        W89331  19.193  14.959  19.829  0.2535 -0.3000 -0.0609
14344W        W89332  14.215   1.986   3.295 -0.2024 -0.2015 -0.0777
14345W        W89333  25.046  10.309  22.094 -0.0093  0.2576 -0.2116
14346W        W89334  19.133   8.324   1.112  0.1162  0.2372 -0.1922
14347W        W89335  24.111  10.863  19.110  0.2505 -0.1369  0.2668
14348W        W89336  26.775  12.187  22.811 -0.4619 -0.1967 -0.1062
14349W        W89337   3.935  25.102   6.967  0.0663 -0.0476  0.0290
14350W        W89338  18.594  15.043   3.902  0.1262  0.3693  0.1548
14351W        W89339  24.173  30.141  20.458  0.0308  0.3275  0.2700
14352W        W89340  28.191  10.110  13.389  0.1455 -0.2245  0.2315
14353W        W89341   5.091  15.150  23.872  0.2256  0.3593 -0.2738
14354W        W89342  31.032   5.245  10.685  0.0103 -0.1834  0.3814
14355W        W89343   8.745  26.397  13.172  0.0723  0.3358 -0.0813
14356W        W89344   8.107  30.021   3.906 -0.3072 -0.1769 -0.2819
14357W        W89345   1.390  10.634   3.237  0.0258 -0.1948 -0.2271
14358W        W89346  19.577   4.272   8.694  0.0528  0.1377  0.0487
14359W        W89347   1.305  13.362  20.004  0.2707  0.0738  0.3336
14360W        W89348   1.981   9.540  24.032  0.3624 -0.0866  0.0221
14361W        W89349   9.978  16.975   4.121 -0.1441 -0.1372 -0.1173
14362W        W89350  19.421  10.700   6.483  0.0244 -0.0765 -0.0144
14363W        W89351  34.151  14.421   1.183  0.0077 -0.0190  0.1144
14364W        W89352  17.809   7.202   9.119 -0.3437  0.0599 -0.1695
14365W        W89353  30.488  20.933  22.812 -0.0264 -0.0517 -0.0869
14366W        W89354   0.095  16.496  11.582 -0.1497  0.1111 -0.0062
14367W        W89355  34.677   7.349  26.233  0.0207  0.2585  0.0693
14368W        W89356   1.532  14.607  16.922  0.2183  0.1298 -0.1838
14369W        W89357  21.370  29.480  25.479  0.1130 -0.0824 -0.1479
14370W        W89358  30.667  18.567   7.816 -0.1538 -0.1766  0.3575
14371W        W89359  14.868  15.917  21.571 -0.0825  0.1099  0.0272
14372W        W89360  18.839  11.237  24.014 -0.1256 -0.0279 -0.2363
14373W        W89361   9.636  22.601  26.107 -0.0708  0.2560 -0.2300
14374W        W89362  30.294  18.356  12.679 -0.0693  0.0621  0.4006
14375W        W89363  14.844  17.129  11.248 -0.2175 -0.0317 -0.2337
14376W        W89364  19.523   3.013  10.255  0.2688  0.0139 -0.2526
14377W        W89365  10.928  35.199   9.979  0.3884 -0.0639  0.2399
14378W        W89366  11.491  33.889   9.852 -0.2711  0.1900  0.3610
14379W        W89367   9.351  17.207   9.737  0.0915  0.0966  0.2321
14380W        W89368  12.060  18.676  13.006  0.1839 -0.2978  0.0110
14381W        W89369  24.673   4.317  16.279 -0.1926 -0.0438 -0.2227
14382W        W89370  13.529  19.528   0.119  0.1933 -0.3106  0.2117
14383W        W89371  15.662   7.059   7.877  0.0146 -0.0924 -0.2365
14384W        W89372  23.457  34.950   1.290 -0.1105  0.0377  0.3623
14385W        W89373   4.424   1.038  12.409  0.0183 -0.0073 -0.2965
14386W        W89374   6.861  14.314   4.795  0.2713  0.0399 -0.1979
14387W        W89375  14.517  13.094  22.069  0.0187  0.3251  0.2399
14388W        W89376   0.018  22.928  11.848  0.2048  0.1144 -0.1673
14389W        W89377   2.720  23.431  20.711  0.1851 -0.0129 -0.1340
14390W        W89378   8.417  24.998  24.325 -0.1332  0.0334  0.1470
14391W        W89379  27.633  31.235  21.789  0.4115  0.0720  0.2016
14392W        W89380  19.394   3.027  22.726 -0.1718 -0.2996  0.0354
14393W        W89381  23.558  31.393  16.172 -0.0102 -0.0673 -0.0454
14394W        W89382   8.210  22.891  14.508  0.0794 -0.1268  0.1457
14395W        W89383  30.211  11.602  14.343  0.0557 -0.1548  0.0813
14396W        W89384   9.506  14.415  25.670  0.4129  0.1590 -0.0561
14397W        W89385   0.867  29.262  19.384 -0.2955 -0.1979 -0.2850
14398W        W89386  28.643  17.072  17.977  0.1025  0.1846 -0.0916
14399W        W89387  13.429   4.284   4.541  0.0565 -0.0351 -0.0389
14400W        W89388   2.635  19.247  18.015 -0.2975 -0.1932 -0.1407
14401W        W89389  23.279  16.181  16.791  0.1314 -0.0003  0.1957
14402W        W89390  16.226  12.861  13.631 -0.0825 -0.2320 -0.0498
14403W        W89391  22.319  27.672  21.423 -0.0638  0.1633  0.1675
14404W        W89392   9.943  22.342  23.754 -0.0072  0.2822 -0.2899
14405W        W89393  15.314   2.225   2.310  0.2019 -0.0813  0.0596
14406W        W89394  24.684   9.285   1.005 -0.0456  0.1433  0.1462
14407W        W89395   4.042  22.682  24.962 -0.0248 -0.0581  0.0350
14408W        W89396  20.967   1.220   0.514  0.4214  0.0836 -0.0991
14409W        W89397  16.404  29.249   5.299  0.0373 -0.0993 -0.0368
14410W        W89398  30.883   7.292  10.521 -0.0156  0.0249  0.4141
14411W        W89399  11.888  14.356  24.470  0.0315  0.0176 -0.0116
14412W        W89400   4.048  32.963   0.003 -0.4096  0.4899  0.2296
14413W        W89401   9.876  11.848  11.968  0.2640  0.2228 -0.3183
14414W        W89402  17.250  30.440  20.285 -0.1973 -0.1409  0.2524
14415W        W89403   5.613  34.642   3.301  0.1629 -0.0557 -0.0959
14416W        W89404   5.379  34.166  24.188 -0.1413  0.1336 -0.2390
14417W        W89405  17.922   6.811  19.242  0.0972 -0.1647  0.4361
14418W        W89406  23.690  19.527  24.887 -0.1149 -0.0810  0.0416
14419W        W89407  28.817   2.379  26.231 -0.0470  0.0340 -0.2389
14420W        W89408   0.439   8.392  23.010 -0.1582 -0.1256  0.0277
14421W        W89409  34.333  14.906  14.312  0.1237 -0.0440 -0.0105
14422W        W89410   0.611  16.860  14.861  0.3018 -0.4016  0.1142
14423W        W89411   9.198  12.977  12.522  0.0356  0.0230  0.2156
14424W        W89412  34.255   3.183   4.423  0.0990 -0.0887 -0.2202
14425W        W89413  34.607   1.569  15.465 -0.1313  0.0534  0.2008
14426W        W89414  30.098  35.238   1.860 -0.0182  0.3005 -0.1351
14427W        W89415   6.002  12.227  18.966  0.4076  0.2690 -0.0259
14428W        W89416  26.749  10.735  19.542 -0.0735  0.1588  0.2676
14429W        W89417  29.655   2.974   3.153 -0.0079 -0.0048  0.0289
14430W        W89418   8.780   6.681   2.823 -0.0467 -0.3701  0.2956
14431W        W89419  30.469  11.256  13.811  0.0492 -0.2894  0.2613
14432W        W89420   4.459  24.427   4.914  0.1376  0.2360 -0.2052
14433W        W89421  12.467  30.851  23.030 -0.2045  0.1685  0.2482
14434W        W89422   8.708  22.394  22.839  0.0586 -0.1191 -0.0203
14435W        W89423   5.106   1.805  25.585 -0.3587  0.2680  0.0645
14436W        W89424  17.381   8.526  20.535  0.0981  0.0254  0.1395
14437W        W89425   8.949  24.165  26.215  0.1077 -0.1140 -0.1812
14438W        W89426  13.969   2.211  25.971  0.2644  0.3631 -0.2382
14439W        W89427  18.602  14.331  24.255 -0.1638 -0.3173 -0.1053
14440W        W89428  32.184  30.761  14.805  0.0422  0.0142 -0.0430
14441W        W89429  29.030  15.299  18.773  0.0618  0.2370 -0.0452
14442W        W89430   3.184   3.110   2.262  0.0577  0.1067  0.0837
14443W        W89431  24.616  25.195  11.504  0.4099 -0.1425 -0.1934
14444W        W89432   4.667  31.143  12.265 -0.0825 -0.2695 -0.3693
14445W        W89433  25.212   7.412  22.516  0.2626  0.1952 -0.1780
14446W        W89434  17.603  34.346   0.523 -0.2174  0.0162 -0.1430
14447W        W89435   6.867  34.933  14.017 -0.1367 -0.0457 -0.0460
14448W        W89436  20.106  22.449   2.079 -0.0529  0.2919  0.0739
14449W        W89437   8.731  12.060   7.114  0.1823 -0.0367 -0.0821
14450W        W89438  21.254   1.251  20.831  0.1924  0.0973  0.1032
14451W        W89439  27.391  31.554  23.879 -0.1792 -0.2730 -0.2310
14452W        W89440  14.165  32.525   5.105  0.1824  0.0354  0.0032
14453W        W89441   8.733  28.905   6.238  0.1408  0.1186 -0.0443
14454W        W89442  32.192  19.777   5.278 -0.1110 -0.1725  0.1080
14455W        W89443  34.283  33.603  25.595 -0.1426 -0.3088  0.2160
14456W        W89444  22.221  11.460  15.918 -0.0859  0.1267  0.3438
14457W        W89445  13.212  28.941   6.465  0.2641 -0.2030  0.0175
14458W        W89446   9.068  21.072   6.879  0.4224 -0.0892  0.0433
14459W        W89447  21.388   4.966   6.896  0.0740 -0.0286 -0.1460
14460W        W89448  20.832  12.529  20.538 -0.0906  0.1213  0.2014
14461W        W89449  24.777  27.833  13.203  0.1257 -0.1946 -0.0184
14462W        W89450  20.711  19.511   4.286 -0.4378  0.1783 -0.1958
14463W        W89451  32.626   9.935  16.121 -0.2060 -0.1351  0.1246
14464W        W89452  11.571  27.533   7.984  0.0441  0.2469  0.2580
14465W        W89453   7.987   5.613  11.376  0.3558 -0.2254 -0.2786
14466W        W89454  24.174  23.312  11.006 -0.0636  0.1782 -0.3393
14467W        W89455  35.347  22.416  16.662 -0.2242  0.0135  0.1750
14468W        W89456   1.692  10.061  24.505 -0.2954 -0.1619 -0.1938
14469W        W89457   5.389  19.469  25.171 -0.1925 -0.1882  0.2317
14470W        W89458   9.444   0.225   3.938  0.0763 -0.0448  0.0837
14471W        W89459  19.199  21.370   6.954 -0.1391  0.2617  0.0661
14472W        W89460  23.982  28.404  16.948  0.2081 -0.0078 -0.0533
14473W        W89461  25.283  29.056   1.446  0.1567  0.1668 -0.1156
14474W        W89462  13.081   4.839   4.687 -0.0274  0.0778  0.3230
14475W        W89463  12.983  19.745   5.991 -0.0631  0.3371  0.2786
14476W        W89464  26.096  20.490  11.238  0.0723  0.1241 -0.0369
14477W        W89465  32.627  19.562  13.850 -0.2467  0.1074 -0.0416
14478W        W89466  28.153   9.036   7.959  0.0268 -0.1719 -0.0835
14479W        W89467  12.450  29.583  12.395  0.0720 -0.2737  0.0670
14480W        W89468   1.749   5.754  21.422 -0.0495  0.1566 -0.5444
14481W        W89469  32.986  24.405  12.473  0.2792  0.0355  0.0165
14482W        W89470  26.148  14.298  22.499 -0.0675 -0.0876  0.0170
14483W        W89471  26.110  33.804   0.922  0.0601  0.0761  0.2049
14484W        W89472  29.652   4.563   3.350 -0.1619 -0.3130  0.0914
14485W        W89473   7.446  32.954  21.958 -0.1461  0.0116 -0.1014
14486W        W89474  19.489  24.232  24.234 -0.1413  0.1288  0.2917
14487W        W89475  14.051  33.744  26.000 -0.0636  0.1789  0.0229
14488W        W89476  13.875  11.777  12.957 -0.0338 -0.0817 -0.0378
14489W        W89477  16.970   7.890   3.415  0.2040 -0.0876  0.1077
14490W        W89478   4.397   4.913  25.596  0.2525  0.1958  0.0465
14491W        W89479  13.318  16.889  13.455  0.0756  0.2049  0.3155
14492W        W89480   9.406  29.289  25.753  0.2549 -0.0590 -0.0366
14493W        W89481  11.761   3.370  11.617 -0.0743 -0.1697  0.0278
14494W        W89482   4.192  13.437   6.962 -0.1375 -0.0701  0.0167
14495W        W89483   9.656   7.048  23.859 -0.1981  0.1133  0.0835
14496W        W89484  16.391   3.987  20.108 -0.2741  0.1141  0.0214
14497W        W89485   0.609   3.775  14.785 -0.0980 -0.0216  0.2230
14498W        W89486   6.375  14.542   5.017  0.3437 -0.3693 -0.1068
14499W        W89487  24.483  16.659  21.380 -0.0525  0.1548 -0.0282
14500W        W89488  30.454   4.720   0.639  0.1407  0.3209 -0.2354
14501W        W89489   0.793   3.174  23.136  0.1444 -0.0829 -0.0478
14502W        W89490   5.766   1.996  10.422 -0.0196 -0.1547  0.2343
14503W        W89491  23.035   2.916   0.618 -0.0402  0.2227 -0.2183
14504W        W89492   0.769   9.692  24.564 -0.0025 -0.4045 -0.2932
14505W        W89493  22.066  32.462  19.393  0.0406  0.2379  0.1255
14506W        W89494  25.240  17.671   8.567  0.0513 -0.1281  0.1212
14507W        W89495  20.659   3.593  25.940  0.3310  0.1776 -0.2315
14508W        W89496  15.520  31.696   1.027  0.3214 -0.1202  0.3346
14509W        W89497  10.077  17.062   2.864  0.0884  0.0738  0.0641
14510W        W89498  13.465  12.864  24.067 -0.0267 -0.1454 -0.0008
14511W        W89499  26.088   4.409  20.658  0.0853 -0.2881  0.0761
14512W        W89500  31.835  25.304  19.608  0.0496 -0.0700 -0.1590
14513W        W89501   7.193  31.050  22.317  0.0605 -0.0512 -0.1545
14514W        W89502   7.086  12.458   2.767  0.4302 -0.1992 -0.1856
14515W        W89503  20.839  21.001   0.298 -0.3186 -0.0049 -0.1293
14516W        W89504  32.604  24.005  17.833  0.3674 -0.0655 -0.2229
14517W        W89505  19.622  11.495  22.653  0.0728 -0.0348 -0.2761
14518W        W89506  33.517  25.952   0.851 -0.3862 -0.1285 -0.0925
14519W        W89507  35.221  20.633  21.800 -0.0072  0.1178 -0.2462
14520W        W89508  21.346   4.480  21.718  0.1032 -0.0593 -0.2688
14521W        W89509  29.235   6.419  21.931  0.2127  0.1761  0.0136
14522W        W89510  14.069  19.530  10.960 -0.2174 -0.1560 -0.1973
14523W        W89511  25.695  17.007  24.217  0.3045 -0.1259 -0.1373
14524W        W89512  32.009   2.871  23.642 -0.3297 -0.2297 -0.3088
14525W        W89513  28.875  29.194  19.076  0.0482 -0.3828  0.1778
14526W        W89514   1.774  26.298  20.183  0.0397 -0.1294 -0.0124
14527W        W89515   2.465   8.770  24.970  0.1015  0.1352 -0.1364
14528W        W89516   8.624  10.620  25.730  0.1627 -0.2518  0.1935
14529W        W89517  31.496   8.570  15.898  0.1144  0.0293 -0.1197
14530W        W89518   2.191  31.585  22.636 -0.0783  0.2758 -0.6035
14531W        W89519  34.917  11.042  17.052 -0.0490 -0.2590  0.0992
14532W        W89520  29.759  12.510  14.020  0.0994  0.0945  0.2376
14533W        W89521   7.616   1.368   2.583  0.1727  0.0632  0.3958
14534W        W89522  32.487  32.180  14.857  0.2879 -0.2048 -0.3428
14535W        W89523   5.483  14.561  23.567  0.0216  0.1953  0.1767
14536W        W89524  14.980  25.270  11.330  0.0413 -0.0045 -0.1128
14537W        W89525  18.437   9.837  23.235 -0.0403 -0.1075  0.1014
14538W        W89526   4.786  15.312  21.016  0.0270  0.3035  0.0997
14539W        W89527  32.166   7.982  17.209 -0.1032 -0.1712  0.1099
14540W        W89528   3.045   4.941   8.973  0.0475  0.4348 -0.0233
14541W        W89529  25.959  34.749  13.653 -0.1826  0.0817 -0.0183
14542W        W89530  14.564   0.338   2.402 -0.0679 -0.2701 -0.3136
14543W        W89531   1.506  26.235   0.743  0.1290 -0.0662 -0.0104
14544W        W89532   0.993  26.898  19.545  0.1709 -0.0291 -0.1469
14545W        W89533  32.343  17.493  25.003  0.1030  0.4289 -0.1919
14546W        W89534  33.931  23.534  25.277  0.0995  0.1799  0.3003
14547W        W89535  15.309  26.635   1.508 -0.1849  0.1640 -0.0119
14548W        W89536  23.208   8.416  15.859 -0.1151  0.1527 -0.1675
14549W        W89537   7.966  16.299  21.543 -0.4067  0.4349 -0.0524
14550W        W89538   7.236  13.295   2.515 -0.2741  0.3094  0.0249
14551W        W89539  18.124  25.114   7.680 -0.0648  0.2574  0.2678
14552W        W89540  29.601  26.679  11.771  0.2720  0.1620 -0.2611
14553W        W89541  26.637  18.053  16.187  0.1458 -0.2943  0.0830
14554W        W89542  26.959  18.288  19.161 -0.0919 -0.1142  0.0673
14555W        W89543   9.886  26.124  24.398 -0.0616 -0.0997  0.0408
14556W        W89544   0.951  33.049   6.318  0.0333 -0.0655 -0.0533
14557W        W89545  19.925  18.584   6.759  0.1750 -0.0221  0.1263
14558W        W89546  20.025  20.051   8.427  0.1143  0.1912  0.0297
14559W        W89547  14.622  14.403  12.091 -0.1615 -0.1106 -0.3275
14560W        W89548  12.873   7.489  24.185  0.1788  0.4489 -0.0688
14561W        W89549   8.028  24.254   9.626  0.1887  0.1604  0.2093
14562W        W89550   9.646  26.861   5.793 -0.3375 -0.2529 -0.2087
14563W        W89551  17.571  31.255   0.851  0.0640 -0.1533  0.2542
14564W        W89552  16.923   5.329   0.514 -0.0958 -0.3280  0.3876
14565W        W89553  29.214   7.455  24.911  0.4238 -0.0111  0.0436
14566W        W89554   4.179  18.419  18.711  0.3654 -0.1982 -0.0754
14567W        W89555  16.709  20.400  23.752 -0.5022  0.0416 -0.0865
14568W        W89556   1.690  31.739  16.524  0.1566  0.1549  0.0718
14569W        W89557  33.880  20.629  20.112  0.0998  0.1074  0.3757
14570W        W89558  29.693  16.857  17.050  0.1373  0.0282  0.1869
14571W        W89559   2.725  32.115   8.689  0.1194  0.1787  0.1055
14572W        W89560   6.481  24.843   6.382 -0.0272  0.0004  0.0026
14573W        W89561   2.024  23.260   4.154 -0.0430  0.4170 -0.0285
14574W        W89562  31.102  35.166  25.031 -0.1293  0.2277 -0.1192
14575W        W89563  34.699  31.144   6.472  0.0884 -0.0766 -0.2910
14576W        W89564   9.726  30.364  25.456 -0.0054 -0.0500 -0.0355
14577W        W89565  18.550  14.964  19.172 -0.1817  0.0583  0.2140
14578W        W89566   0.947  31.186  18.658 -0.0673 -0.1207 -0.0278
14579W        W89567  15.473  15.585  11.205  0.1625  0.2473 -0.0907
14580W        W89568  27.142  23.130   9.422  0.0301  0.1146  0.2961
14581W        W89569   1.655   4.632   7.755 -0.1116 -0.3041 -0.1625
14582W        W89570  11.591  13.692   3.697  0.3427 -0.2190  0.1281
14583W        W89571  14.586   2.144  26.170  0.1585  0.3195 -0.0370
14584W        W89572   5.785   1.189  12.448 -0.0677 -0.2538 -0.1589
14585W        W89573   0.581   5.822  20.527  0.1004 -0.2357  0.0713
14586W        W89574  23.029  10.016  23.116  0.2421 -0.1287  0.1926
14587W        W89575  28.792  20.207  23.720 -0.0185 -0.2750  0.1051
14588W        W89576   1.274   5.894  16.733 -0.3219 -0.1475 -0.1689
14589W        W89577  21.812  34.619   5.786 -0.0308 -0.0031 -0.1085
14590W        W89578  14.504  14.862  12.001 -0.2022 -0.1250  0.1522
14591W        W89579  34.971  17.670  17.103 -0.1293 -0.2820 -0.1723
14592W        W89580   8.999  21.759  13.378  0.1189  0.2456  0.4369
14593W        W89581  33.466  29.484   1.228 -0.2817  0.0837 -0.0745
14594W        W89582   0.592  31.208  24.125  0.0921 -0.2094  0.0768
14595W        W89583  11.627  11.570  25.644  0.1957  0.1479  0.2085
14596W        W89584  34.606  19.068  20.305 -0.0578  0.0629  0.0204
14597W        W89585  13.063  25.332   3.092 -0.1469  0.0140  0.0597
14598W        W89586  10.837  14.192  12.936 -0.0443  0.0117  0.1180
14599W        W89587   2.037  19.118   1.440 -0.0416  0.2203 -0.3804
14600W        W89588  32.067  22.093  20.404 -0.0156  0.3914 -0.0994
14601W        W89589  17.350   2.133   6.387 -0.0885  0.0869  0.2132
14602W        W89590  17.529   8.169   7.936  0.2816 -0.2737 -0.1493
14603W        W89591  26.135   9.411   8.380 -0.2798 -0.1805 -0.2496
14604W        W89592  14.787   2.018  25.727 -0.2980  0.0215 -0.0160
14605W        W89593   2.075  30.772  23.698 -0.0174  0.3957 -0.0454
14606W        W89594  15.145  10.606  21.178 -0.1974  0.4802  0.1405
14607W        W89595  17.167  23.821  23.029 -0.2868  0.0997 -0.4817
14608W        W89596   8.155  10.772   7.715  0.2486 -0.0894  0.2145
14609W        W89597  31.790  20.438   8.705 -0.1592  0.3057  0.0880
14610W        W89598  16.086  28.927   4.881  0.1286 -0.0972 -0.2045
14611W        W89599  30.342  16.686  13.459  0.0413  0.0921 -0.0872
14612W        W89600   5.406  13.034   0.006 -0.0410 -0.2501 -0.0564
14613W        W89601   4.298   3.110  24.406  0.2424 -0.4157  0.2404
14614W        W89602   1.253  13.756  12.708 -0.0952  0.2047 -0.2834
14615W        W89603   9.175  25.789  23.154  0.0230 -0.0027  0.0639
14616W        W89604  17.977   6.913  20.832  0.1347  0.0843 -0.0134
14617W        W89605  24.097  18.597  21.467  0.0398  0.0048  0.0726
14618W        W89606  23.631  11.119  16.325 -0.2001  0.1875  0.0941
14619W        W89607  11.165  18.381  21.196 -0.1614 -0.2960  0.0860
14620W        W89608   9.201  18.554  11.747  0.0276  0.0540  0.2518
14621W        W89609  14.979  18.223  20.454 -0.1330 -0.2747  0.0936
14622W        W89610  20.398  16.016  23.161 -0.0522  0.0313  0.2841
14623W        W89611  16.461  16.729   3.888 -0.2756 -0.2220 -0.2182
14624W        W89612   4.316   5.898   5.088  0.2178  0.0104 -0.1721
14625W        W89613  15.906  34.869  20.911  0.1757 -0.1672 -0.0716
14626W        W89614   6.411  11.722   1.866 -0.1406 -0.0242 -0.0282
14627W        W89615  31.234   4.214  24.107 -0.1076  0.0640 -0.0239
14628W        W89616  19.611   2.054  20.038 -0.2171 -0.0270 -0.5982
14629W        W89617   5.876  21.667   8.124  0.1293 -0.2008  0.2312
14630W        W89618   3.432  13.933  18.493  0.3936  0.2891 -0.1124
14631W        W89619  35.340  12.055  11.836 -0.0440 -0.0596 -0.0356
14632W        W89620   2.102  27.240   7.737 -0.2741  0.3640 -0.0438
14633W        W89621  16.308  13.133  13.223 -0.3169  0.6136  0.4384
14634W        W89622  27.902   7.427   9.583  0.0716  0.1235 -0.0752
14635W        W89623  13.869  25.592   1.684 -0.0001 -0.2455  0.0199
14636W        W89624   6.803  23.286   4.647 -0.4876  0.2176 -0.3019
14637W        W89625  24.178  18.611  23.196  0.0293  0.5758 -0.2258
14638W        W89626  27.278  29.256  17.060  0.1885 -0.2697 -0.3013
14639W        W89627  10.275  23.367   4.499 -0.0180  0.2479  0.1466
14640W        W89628   9.130  24.916  23.403  0.1969  0.0549 -0.2532
14641W        W89629  33.408  15.091  17.337  0.1978  0.1175  0.2443
14642W        W89630  10.553  19.766   1.929 -0.0351 -0.0348 -0.0245
14643W        W89631  24.315  22.291  23.448  0.3757 -0.2274 -0.3888
14644W        W89632   6.547  15.230   2.497  0.0117  0.0776  0.1018
14645W        W89633  23.182  29.109  25.004  0.3338  0.1214  0.2142
14646W        W89634  23.327  10.946  16.693  0.1189 -0.0284  0.3689
14647W        W89635  29.867   8.437  24.077 -0.2611 -0.1208  0.1486
14648W        W89636  12.200  29.528   1.000 -0.0069  0.1138 -0.1639
14649W        W89637   9.285  15.348   6.610  0.1647  0.2639 -0.1859
14650W        W89638  15.390   2.426   1.837 -0.4316 -0.0163 -0.2779
14651W        W89639  15.785   1.577  24.543  0.1280 -0.3092 -0.1614
14652W        W89640  15.188   9.373  22.396 -0.4211  0.3699 -0.0414
14653W        W89641  14.239   9.091   5.627 -0.2273 -0.1329  0.1781
14654W        W89642  34.970  12.181  23.575 -0.0695  0.0706  0.2206
14655W        W89643  29.082  28.334   3.592 -0.2603 -0.0309  0.0267
14656W        W89644  23.392  10.352  20.424  0.0319 -0.0407  0.3717
14657W        W89645  16.299  33.550   8.750 -0.1689  0.1009 -0.0173
14658W        W89646  10.539  16.013   5.830 -0.0789  0.1278 -0.3512
14659W        W89647  35.365  11.071  15.691  0.2072 -0.1208 -0.1505
14660W        W89648   4.059  11.156   3.816 -0.1395  0.4122  0.1681
14661W        W89649   1.001  10.800  23.496  0.0129  0.0728 -0.2826
14662W        W89650  20.773  33.892   5.103  0.0453 -0.2493 -0.5012
14663W        W89651   5.898  14.041  18.882  0.1634  0.1986  0.2589
14664W        W89652  34.841   3.563  15.785 -0.0085  0.2976 -0.1617
14665W        W89653  21.147   3.754  20.562 -0.3469  0.1858 -0.1687
14666W        W89654  15.184  28.369   9.360  0.0553 -0.1953  0.1995
14667W        W89655  20.005  29.787   2.111 -0.0546 -0.0033 -0.0511
14668W        W89656  23.405  31.429  21.678 -0.1373  0.4124  0.0179
14669W        W89657   0.961  17.230  11.046  0.3028 -0.1963 -0.1271
14670W        W89658  29.732  29.926   3.470 -0.2355 -0.2553  0.1162
14671W        W89659  25.150  14.283   8.332  0.4266 -0.1990  0.1632
14672W        W89660   5.311  11.438  19.033 -0.0258  0.0636 -0.1751
14673W        W89661  31.414  11.152  22.273  0.3514 -0.1717 -0.0049
14674W        W89662  24.225   7.939  18.378  0.2781 -0.0783  0.3234
14675W        W89663   7.667  20.493   4.326 -0.1837 -0.0346  0.0657
14676W        W89664  30.737  30.748   1.392 -0.0891 -0.0502 -0.0881
14677W        W89665  34.052  32.733   7.590 -0.3467  0.2064 -0.0130
14678W        W89666  13.126  16.267  10.071  0.1825 -0.0191 -0.1689
14679W        W89667   9.155  15.238  17.913  0.2178 -0.0495 -0.0465
14680W        W89668  25.954  23.374  15.855  0.1891 -0.2032  0.2576
14681W        W89669  30.681  24.577  19.397 -0.3181 -0.0536 -0.3539
14682W        W89670  12.660  28.225  24.182  0.5301 -0.1368 -0.0642
14683W        W89671  18.628  12.469   6.689 -0.1878 -0.2773  0.0053
14684W        W89672  22.837  12.404  22.888 -0.1636 -0.1125 -0.0960
14685W        W89673  25.964  18.046  24.946 -0.0425 -0.0185 -0.0874
14686W        W89674  10.258  31.716   8.688  0.1411  0.0944  0.0974
14687W        W89675  13.922  32.760   9.041  0.0957 -0.0297  0.0572
14688W        W89676  34.606  14.612  12.231 -0.2893  0.1856  0.2205
14689W        W89677   8.025  15.950  25.454  0.0901  0.3741 -0.0789
14690W        W89678  10.898  32.572  15.026  0.4151  0.0487 -0.2334
14691W        W89679  26.553   4.039  11.990 -0.0515  0.0016  0.0828
14692W        W89680  14.604  24.892   4.499  0.1407  0.0120  0.1414
14693W        W89681  31.571  32.246   1.078 -0.1052  0.0247  0.4024
14694W        W89682  28.132   1.110   1.827  0.0121 -0.2998 -0.0491
14695W        W89683  30.052   1.140  23.569 -0.0007  0.1651 -0.0997
14696W        W89684  22.578  17.964  17.842  0.0291  0.0539  0.2389
14697W        W89685  22.695   4.830   5.957 -0.1584 -0.0307 -0.0983
14698W        W89686  32.710  22.041  22.353 -0.0105 -0.0522 -0.0007
14699W        W89687  17.979  10.767  18.451 -0.2423 -0.0993  0.3085
14700W        W89688  23.550  19.888   1.295  0.0208  0.1502 -0.0048
14701W        W89689  32.826   0.071   3.740 -0.3082 -0.0079 -0.2655
14702W        W89690  11.172  13.328  24.452  0.1001 -0.1812 -0.0037
14703W        W89691   7.194  26.910  25.326 -0.0583  0.0575  0.0907
14704W        W89692  31.657  32.935  20.833 -0.1724  0.1857  0.1958
14705W        W89693  19.997  22.112  18.430  0.1332  0.1707 -0.2158
14706W        W89694  33.783  26.160  22.205 -0.0199  0.0909  0.1310
14707W        W89695  20.113  25.058   1.029  0.1796  0.2224  0.1258
14708W        W89696  20.270  27.040   2.986 -0.0286  0.2985  0.0818
14709W        W89697  32.219  16.226  11.329  0.1132  0.2761  0.4376
14710W        W89698  31.891  20.497  25.897  0.0989  0.0547 -0.0140
14711W        W89699  18.327   8.284   1.979  0.4393  0.1080  0.1687
14712W        W89700  32.075  13.466  21.952  0.0785 -0.4427 -0.0107
14713W        W89701  34.569  25.921  23.683  0.2189  0.0452  0.0815
14714W        W89702   0.399  33.356   4.285  0.1111  0.2438  0.1334
14715W        W89703  29.170  26.993   2.819  0.0054  0.1493 -0.0342
14716W        W89704   7.083  26.921   4.499  0.0975  0.2343 -0.1883
14717W        W89705  21.626   0.528  14.256  0.0471  0.2548 -0.2056
14718W        W89706  12.931   7.130  23.556  0.1045  0.1185 -0.0614
14719W        W89707   0.052   5.059  25.586  0.0199 -0.2410 -0.1136
14720W        W89708  11.151   2.620  10.082  0.0839 -0.0261  0.3082
14721W        W89709  17.166  32.254   3.479 -0.1792  0.3894 -0.0489
14722W        W89710   7.646   2.705   6.743  0.1337 -0.1444  0.0340
14723W        W89711   8.714  33.471  13.525 -0.4481 -0.0419 -0.1771
14724W        W89712  17.072  20.126   2.433 -0.0398  0.0157 -0.1436
14725W        W89713  15.011   7.646  11.187  0.1046 -0.0633 -0.1836
14726W        W89714  31.184   8.164  13.495 -0.0463  0.2726 -0.1078
14727W        W89715  12.724  19.758  11.360 -0.1436 -0.0502  0.1106
14728W        W89716  24.140   3.795  15.747  0.1752  0.3024  0.2277
14729W        W89717   1.709   5.934  23.782 -0.0873 -0.0434  0.1178
14730W        W89718   0.869   4.712  15.664  0.4073 -0.0696 -0.0293
14731W        W89719   9.928   3.767   2.014 -0.3409 -0.0673 -0.0354
14732W        W89720  24.285   2.401   1.825  0.0336 -0.0694  0.1315
14733W        W89721  27.962  14.212   4.175 -0.4267 -0.0962 -0.0134
14734W        W89722   1.955   0.578   9.589  0.2156 -0.1379  0.2669
14735W        W89723  28.203  12.710  24.433  0.0888  0.1300  0.0948
14736W        W89724  26.225  28.830   3.947  0.0108  0.1859 -0.0945
14737W        W89725  21.764   9.276   5.073  0.1257 -0.1550  0.1731
14738W        W89726  12.395  29.071  16.907  0.1389 -0.1249  0.2065
14739W        W89727  26.353  19.976  11.223  0.1655  0.2365 -0.1033
14740W        W89728  33.646  23.362  25.653  0.1867  0.3142 -0.0759
14741W        W89729  22.869  10.192  18.141 -0.1554  0.0370 -0.1280
14742W        W89730  22.811   7.662  21.006  0.3463  0.1607 -0.1320
14743W        W89731  15.519   5.357   6.928  0.0720  0.2627  0.1096
14744W        W89732   3.303  30.127  11.284  0.2057 -0.4302  0.2660
14745W        W89733  18.901  31.659  18.968 -0.1379  0.1152 -0.1891
14746W        W89734  10.765  17.829  11.451  0.0098 -0.2962  0.1976
14747W        W89735  26.538  23.667  16.711 -0.0090 -0.0980  0.0619
14748W        W89736  27.750   1.433   1.228  0.0688  0.2269  0.0737
14749W        W89737  19.046   8.958  22.490  0.1843  0.2867  0.0579
14750W        W89738   0.399   3.275  21.201 -0.2104  0.1940 -0.3021
14751W        W89739  31.309   9.075  23.767  0.0098  0.1030 -0.0689
14752W        W89740  20.408  30.805  23.861  0.2323 -0.3479  0.0823
14753W        W89741  15.023   1.724   4.638  0.0266  0.0686 -0.0850
14754W        W89742   3.792  34.716  12.745  0.0523 -0.3360  0.1120
14755W        W89743  32.957  35.331  16.590  0.0677  0.2442  0.0324
14756W        W89744  15.496   9.916   3.486 -0.5026  0.3367  0.2069
14757W        W89745  35.263   8.625  21.339  0.5323 -0.0210 -0.0214
14758W        W89746  24.571  23.910  19.943  0.2554 -0.0666 -0.3098
14759W        W89747   9.063  12.864   9.482  0.1771 -0.1142  0.2283
14760W        W89748  15.597  21.355  24.726 -0.2716  0.1326 -0.1701
14761W        W89749   2.645   7.531   6.241 -0.1549 -0.3699  0.0382
14762W        W89750   8.057  30.875   0.029 -0.1234 -0.0197 -0.2558
14763W        W89751  34.232  21.657  13.868  0.0665  0.0597  0.0383
14764W        W89752  31.286  17.051  17.286 -0.1110  0.2004  0.3231
14765W        W89753  17.627  10.390  23.613 -0.0798  0.0947 -0.0091
14766W        W89754  20.008  34.602   0.535 -0.1568  0.0319 -0.0199
14767W        W89755  17.475   4.010   8.301 -0.1917  0.2740 -0.2723
14768W        W89756  27.357   1.730  10.624  0.0430  0.0465 -0.0888
14769W        W89757  27.989   5.418   2.676  0.4267 -0.0710 -0.1041
14770W        W89758   3.801  15.265   5.062 -0.0424 -0.1227  0.1308
14771W        W89759  30.184  15.086   9.940 -0.3691  0.0373  0.1862
14772W        W89760   6.187  29.425   2.167 -0.2752 -0.0389 -0.3169
14773W        W89761  35.042  35.326   0.736 -0.4711  0.2458  0.1871
14774W        W89762  24.827  35.267  22.098 -0.1338  0.1219 -0.3424
14775W        W89763   3.031  31.910   1.316  0.0834  0.1518  0.3734
14776W        W89764   3.897  32.430  11.108  0.1964 -0.2318 -0.2363
14777W        W89765  11.110  17.062   1.567  0.0251  0.0513 -0.0025
14778W        W89766  31.076   2.457  19.043 -0.0763 -0.2527 -0.0048
14779W        W89767  34.565  15.357   1.210  0.0878 -0.0238  0.0173
14780W        W89768  18.281  13.020   7.912 -0.2276 -0.0817 -0.1790
14781W        W89769  26.413   7.649  25.738  0.2407  0.2092  0.2231
14782W        W89770  26.727  17.787   8.773 -0.0005  0.0665  0.0043
14783W        W89771   7.694  27.529  24.483 -0.1038 -0.1665 -0.1694
14784W        W89772  25.268  21.910  19.985 -0.1749  0.3048 -0.2201
14785W        W89773   6.438  24.244  23.516  0.1938  0.0939 -0.0106
14786W        W89774  20.745   6.051  25.938  0.1628  0.0298 -0.3537
14787W        W89775  26.932  25.752  19.470 -0.3134 -0.0709 -0.0550
14788W        W89776  21.415  11.770  19.723  0.2035 -0.1980  0.0725
14789W        W89777   5.389   4.094   1.505  0.0184  0.1565  0.2372
14790W        W89778   8.919   9.735  25.110 -0.1332 -0.2069 -0.3859
14791W        W89779   2.374  15.972  13.591 -0.0546 -0.3342 -0.0432
14792W        W89780  22.044  17.704  25.724 -0.0423 -0.0336  0.0283
14793W        W89781   8.174  30.377   3.021  0.2456  0.0383  0.0459
14794W        W89782   2.425  17.919  12.979  0.2239  0.1491  0.1336
14795W        W89783  16.468  15.449  13.158  0.0929 -0.1205  0.0130
14796W        W89784  35.123  24.051   0.635  0.2897  0.2043  0.1376
14797W        W89785   8.323   8.839   7.433  0.4138  0.2424 -0.0472
14798W        W89786  31.567   8.079  15.601  0.0738  0.0221 -0.0767
14799W        W89787  32.155  28.806   1.929  0.1586  0.1526 -0.2293
14800W        W89788  14.703  34.165   0.845 -0.0617  0.4698  0.0595
14801W        W89789  34.904  15.768  11.329 -0.1289 -0.0669  0.4369
14802W        W89790   7.912  23.351  13.390  0.0516  0.1195  0.0116
14803W        W89791  30.483  23.260  12.004 -0.1059 -0.0661  0.1823
14804W        W89792  15.742  15.473  25.515 -0.0811  0.1611  0.1852
14805W        W89793   8.865   7.788  21.907  0.1882 -0.0299  0.1471
14806W        W89794   8.516  26.345   0.147 -0.2467 -0.0821  0.0384
14807W        W89795  15.254   0.545   9.431 -0.0095  0.1886  0.1346
14808W        W89796  32.840  18.755   8.419  0.1168  0.0792  0.2513
14809W        W89797   4.130  27.003   9.350  0.2508  0.1110 -0.2930
14810W        W89798   1.530   1.856   5.055  0.0069  0.0491 -0.2407
14811W        W89799  18.890   9.099  24.433  0.2592 -0.3853  0.0865
14812W        W89800   9.986  10.280   6.159  0.1107  0.3288  0.1510
14813W        W89801  34.755  14.794   1.891 -0.0159  0.2512  0.0113
14814W        W89802   4.490  30.597   7.833  0.1280 -0.2091 -0.1576
14815W        W89803   7.060   2.609  12.809  0.1527 -0.1870 -0.3166
14816W        W89804  20.938  32.256  24.548  0.0531 -0.0800 -0.2131
14817W        W89805   4.278  27.041   0.859  0.1522  0.1714 -0.0705
14818W        W89806  18.114  17.918   4.895  0.3498  0.1655  0.0621
14819W        W89807  19.862  16.353   1.201 -0.3641  0.2475 -0.1213
14820W        W89808   4.845  11.079   5.175  0.1705  0.0708  0.3455
14821W        W89809  29.288  31.638   1.566 -0.1492  0.1989 -0.1310
14822W        W89810   9.198  24.872  13.473  0.0726  0.1033 -0.0181
14823W        W89811  32.680  32.563  15.152  0.2297 -0.3186 -0.2271
14824W        W89812  11.110  19.022  21.876  0.1335  0.6630 -0.1596
14825W        W89813  25.894   5.697   2.773 -0.0037 -0.1900  0.2151
14826W        W89814  11.237   8.256  22.010 -0.0211  0.4122 -0.0265
14827W        W89815  13.449  25.358  23.787  0.0948  0.1713  0.0801
14828W        W89816  14.130  19.865   8.731  0.1483 -0.1113  0.0471
14829W        W89817  34.544  14.902  25.506 -0.0318 -0.1201  0.2359
14830W        W89818  26.293   3.671  20.241  0.0624 -0.3558  0.0640
14831W        W89819   1.345  29.885  17.026 -0.0460 -0.2456  0.0651
14832W        W89820  19.944  15.401  23.274  0.1171 -0.3005 -0.2402
14833W        W89821  18.996  15.667   1.164 -0.0425 -0.0239  0.0949
14834W        W89822   4.072  22.775  25.450  0.0076 -0.1625  0.1362
14835W        W89823  28.319  20.130  20.352  0.1139  0.1394 -0.3028
14836W        W89824  32.339  22.868  10.176 -0.0141  0.0967  0.2359
14837W        W89825  15.535  24.509  12.159  0.2088  0.3104 -0.4135
14838W        W89826  21.914  13.589   3.443  0.0054 -0.1822  0.1732
14839W        W89827  20.239  29.800  24.087 -0.2434  0.1743  0.0171
14840W        W89828   3.235  17.230  22.115  0.0156  0.0020  0.3116
14841W        W89829   4.880   7.827   5.984 -0.0329 -0.3403  0.0127
14842W        W89830  26.673   5.059  18.723  0.3205 -0.1386  0.0124
14843W        W89831  19.410  17.465   4.121 -0.0606 -0.0950  0.1272
14844W        W89832   9.954  18.557  22.421  0.3721 -0.2939  0.0446
14845W        W89833   8.572  28.551  24.161  0.1099  0.2069  0.1189
14846W        W89834  25.646   5.070   3.532  0.0291 -0.1959  0.2833
14847W        W89835  17.099   3.617   2.296 -0.1009  0.2672 -0.1999
14848W        W89836   5.316  30.081  23.503  0.1040  0.0619  0.2782
14849W        W89837   1.889   6.096   7.615  0.3280 -0.2055  0.0735
14850W        W89838  13.396  24.477   8.063 -0.0121 -0.0562  0.2167
14851W        W89839   5.666  15.763   4.855  0.1459 -0.0890 -0.0901
14852W        W89840  19.817   7.737  10.117 -0.0154  0.2068  0.0854
14853W        W89841   2.059  25.817   6.558 -0.1349 -0.1616 -0.1240
14854W        W89842   4.162  11.485   7.587  0.1399  0.0178  0.3128
14855W        W89843  23.566  11.924  16.226  0.0531  0.0557 -0.1634
14856W        W89844  15.597   6.768  21.294 -0.2228  0.0242  0.1316
14857W        W89845  13.164  27.297  24.346  0.0113  0.1105  0.0512
14858W        W89846  25.939  15.272   9.003 -0.0065  0.2437  0.0913
14859W        W89847  21.203   4.185   0.155  0.1524 -0.0217  0.0990
14860W        W89848  25.815  23.887  10.217 -0.0944 -0.0138 -0.2463
14861W        W89849  25.127   0.402  19.861  0.1494 -0.1798 -0.1452
14862W        W89850  23.107  24.075  14.924 -0.1224  0.0676 -0.1624
14863W        W89851   0.610   0.682  14.898 -0.2070 -0.1668  0.0717
14864W        W89852  24.439   6.678  23.278 -0.0725 -0.2799  0.2601
14865W        W89853  29.739   5.632  12.310  0.1593  0.1227  0.1317
14866W        W89854  29.250   0.208  12.381  0.2891 -0.1741 -0.2828
14867W        W89855  12.714   0.191   5.493  0.2317 -0.0959 -0.0460
14868W        W89856  17.274   0.924  22.886 -0.2508  0.1441  0.1761
14869W        W89857  30.138  30.895  23.494 -0.0971 -0.1014 -0.2752
14870W        W89858   1.096  16.932   1.023  0.0746 -0.2211  0.1862
14871W        W89859  27.807  12.825  16.860 -0.2510 -0.0585  0.3559
14872W        W89860   1.720  22.407  24.604 -0.0478 -0.1195  0.2029
14873W        W89861   9.687  23.608  14.692  0.1139 -0.0261 -0.1363
14874W        W89862   5.326  27.308  21.248 -0.1543  0.0053  0.0492
14875W        W89863  16.259  21.390  14.857  0.4207  0.1453 -0.0138
14876W        W89864   6.705  28.560  15.914  0.0654  0.4560 -0.0733
14877W        W89865  15.600  32.826  10.577 -0.1658 -0.2549  0.0868
14878W        W89866   8.819   2.021  22.508  0.5877 -0.1791  0.1406
14879W        W89867   8.103  30.114   4.438  0.0095 -0.1831 -0.0312
14880W        W89868   4.368  33.946  11.565  0.0296 -0.1396  0.2359
14881W        W89869  21.966  13.263  20.591  0.1178 -0.3208  0.0695
14882W        W89870  11.147  27.086  25.774  0.0980  0.1092 -0.1014
14883W        W89871   5.968  15.736  21.829 -0.2040  0.2565 -0.1034
14884W        W89872   9.243   0.657   3.173 -0.1004 -0.3626 -0.1628
14885W        W89873   1.892  32.668   0.104 -0.1229 -0.0364 -0.1107
14886W        W89874  25.381  30.470  10.575 -0.0744 -0.1444  0.1618
14887W        W89875  18.585   7.861   5.161  0.2271  0.1766 -0.0103
14888W        W89876  17.015   1.510   5.379  0.0787  0.0470  0.0283
14889W        W89877  14.833   2.109  23.692  0.0599  0.0580 -0.1206
14890W        W89878   3.034  33.424  23.978 -0.0927 -0.0214 -0.1113
14891W        W89879   3.086  10.780   2.717 -0.0741  0.0530 -0.2245
14892W        W89880  34.200  26.801  20.562  0.2624 -0.0852  0.0386
14893W        W89881   9.233  25.489  24.050  0.1634  0.0962 -0.2910
14894W        W89882  28.864  33.440  13.684  0.0571  0.0670  0.1154
14895W        W89883  34.880  16.424  21.169  0.0917 -0.1290  0.3374
14896W        W89884   8.845   6.728  24.772 -0.3096 -0.0839  0.0340
14897W        W89885  12.125   3.948  25.655 -0.3322  0.1724 -0.1191
14898W        W89886  13.061  14.258  23.169 -0.0308  0.3171 -0.0898
14899W        W89887  28.951   6.100  22.245 -0.0581  0.0173 -0.1947
14900W        W89888   2.049  31.618   9.533 -0.2681  0.0964 -0.0240
14901W        W89889   7.114   7.530   6.149  0.1872 -0.2123 -0.0481
14902W        W89890  13.923  30.687   0.760 -0.2236  0.2574 -0.0951
14903W        W89891   9.554  17.490   2.255  0.2914 -0.0205 -0.2798
14904W        W89892   4.218  34.206  21.180  0.2165 -0.3750  0.1542
14905W        W89893  17.941   8.400   4.308  0.2771  0.0766  0.2724
14906W        W89894  29.070   2.036   3.351 -0.1196  0.0165 -0.0115
14907W        W89895  18.239  10.113   5.050 -0.0271  0.2903  0.5150
14908W        W89896   1.980  29.079  18.702 -0.3335  0.1692  0.1711
14909W        W89897   4.737  11.016  25.364 -0.3742 -0.3493 -0.2141
14910W        W89898  21.720  16.781   3.013  0.0906  0.0969  0.1201
14911W        W89899  28.149  11.888  25.504  0.3072 -0.1269  0.0728
14912W        W89900  29.456  12.597   9.174 -0.0620 -0.1977  0.2849
14913W        W89901   0.070  24.832  24.947 -0.1862 -0.3504  0.1387
14914W        W89902  27.334  28.802  15.389 -0.2892 -0.1583 -0.2161
14915W        W89903   9.033  21.409  24.095 -0.0465  0.1025  0.1507
14916W        W89904  21.321  19.573  19.251 -0.1586  0.2031  0.0055
14917W        W89905  29.702   3.968  20.132 -0.2807  0.0265 -0.6654
14918W        W89906   6.735  23.977   7.481  0.1898  0.4949 -0.2660
14919W        W89907  27.170   2.443  23.553  0.0024 -0.1386 -0.0922
14920W        W89908   8.170   0.015  24.435  0.1126 -0.1061  0.1882
14921W        W89909  16.328  12.216   4.804  0.4429  0.1632 -0.1588
14922W        W89910   2.654  16.187  23.441  0.2232 -0.2569  0.1726
14923W        W89911   6.799  16.354   0.539  0.0547 -0.1077 -0.1569
14924W        W89912  10.396  34.317  12.000 -0.0938  0.1583  0.1849
14925W        W89913  18.674   7.514   9.373 -0.2454  0.0124 -0.0851
14926W        W89914  20.348   8.532   4.453  0.0539 -0.0285  0.0500
14927W        W89915   4.596  31.301   9.165 -0.0021  0.0858 -0.0693
14928W        W89916  23.002   7.920  24.811 -0.0411 -0.0717  0.1327
14929W        W89917  15.897  33.114  11.758  0.1819 -0.3063  0.1780
14930W        W89918   6.006  26.253   3.740  0.4125  0.1438 -0.0445
14931W        W89919   6.819   2.440  24.915  0.0522  0.2363  0.1539
14932W        W89920  33.445  12.701   8.270 -0.0983 -0.2894  0.0103
14933W        W89921  28.722  30.291  11.205 -0.0417  0.1181  0.2175
14934W        W89922   8.250  23.330  14.137  0.0542  0.0908  0.2477
14935W        W89923   9.039  19.370   1.216  0.0223  0.0776  0.1734
14936W        W89924  20.717  22.477   3.939 -0.0145  0.0303 -0.1261
14937W        W89925  33.716  16.315  20.895 -0.0405  0.0963 -0.1761
14938W        W89926   8.462  13.321   6.594  0.3252 -0.0400 -0.1618
14939W        W89927  27.253  30.148  16.538 -0.0329 -0.0232  0.2570
14940W        W89928  15.389  18.273   8.316 -0.3237  0.2134 -0.0332
14941W        W89929  32.934  25.517   1.627  0.1751  0.0799 -0.1161
14942W        W89930  28.942  24.042  21.800 -0.0864  0.3507  0.2530
14943W        W89931  27.008  34.554   1.716  0.0959 -0.1527 -0.5839
14944W        W89932  33.338  32.913  22.174 -0.0355 -0.2060 -0.0518
14945W        W89933  12.536   1.707  13.317 -0.0683 -0.2749 -0.0224
14946W        W89934  12.360   5.722   7.704  0.0883 -0.1036  0.0154
14947W        W89935   8.786  29.998  20.962  0.1122 -0.1204  0.0862
14948W        W89936  18.201   9.802  20.874 -0.1565 -0.2061 -0.1181
14949W        W89937  35.051  35.256  14.040  0.2285  0.0743 -0.1571
14950W        W89938  11.153  16.105  11.890 -0.0882 -0.1043  0.1116
14951W        W89939  32.256   1.591  18.409  0.2409  0.1672 -0.0586
14952W        W89940  26.222  27.891   9.889 -0.1644 -0.3161  0.3365
14953W        W89941  24.079  30.720  22.192  0.0623  0.0381 -0.1300
14954W        W89942   4.181  25.136  24.794  0.1276 -0.0511 -0.0569
14955W        W89943  27.163  26.248   8.992 -0.2646 -0.1438 -0.1067
14956W        W89944  22.245  15.199  24.514  0.0365  0.0591 -0.1871
14957W        W89945  12.441   9.065   7.960  0.0947 -0.1798 -0.0240
14958W        W89946  25.300  17.290  19.916  0.1248  0.1624  0.2504
14959W        W89947  16.643  24.831   7.137 -0.4612  0.0811  0.0270
14960W        W89948  25.304  34.658   3.347  0.0744  0.0938 -0.2362
14961W        W89949  25.263  19.935  12.043 -0.0497  0.2209  0.2050
14962W        W89950  13.707  34.073   0.058 -0.0317  0.2605  0.0894
14963W        W89951  13.795   8.384  24.220 -0.0714  0.0718 -0.2969
14964W        W89952  13.687  12.104  13.704  0.1862  0.3468  0.5423
14965W        W89953  26.097  33.614  25.513  0.1059 -0.0608  0.1010
14966W        W89954   4.442   4.421   2.565  0.2335  0.1906  0.0572
14967W        W89955  21.900  32.713  24.763  0.1045  0.1368 -0.0659
14968W        W89956  21.656  21.369   5.177  0.2512 -0.1726 -0.5588
14969W        W89957  33.170  28.625   2.006  0.0990 -0.1124 -0.4456
14970W        W89958  16.635  15.502   8.734  0.4800  0.2822 -0.1356
14971W        W89959  16.695  32.584  23.204  0.2347 -0.1597  0.1275
14972W        W89960  30.648   4.715  15.416  0.2030 -0.2439 -0.1039
14973W        W89961  24.933  31.332  12.461 -0.0726 -0.2138 -0.3714
14974W        W89962  10.475   2.864   9.055 -0.0767 -0.1084  0.0679
14975W        W89963   1.688   3.280   2.210 -0.0859 -0.1694  0.0858
14976W        W89964  14.335  30.773   3.534 -0.0267 -0.4129 -0.0522
14977W        W89965  18.197  26.640  10.501  0.1359 -0.1557  0.1897
14978W        W89966  29.532  24.584  23.718  0.4015 -0.1602 -0.2063
14979W        W89967   4.554  13.045  17.512  0.4133  0.1996  0.2799
14980W        W89968  13.987  14.538   7.427 -0.3062 -0.1750  0.2118
14981W        W89969  17.432   0.621  17.532 -0.2327 -0.3417 -0.0167
14982W        W89970  24.007  10.326  23.168 -0.3395  0.2187 -0.1395
14983W        W89971  35.070   3.157   6.470  0.1609  0.2498 -0.1554
14984W        W89972  30.432   3.979  23.050 -0.0916  0.0855  0.1406
14985W        W89973   9.247  20.997  23.771  0.0225  0.0722  0.2868
14986W        W89974  14.438  24.529  15.407  0.1935  0.1915  0.1147
14987W        W89975  13.344  33.750  21.211  0.1801  0.0064 -0.0099
14988W        W89976  13.653  27.137   5.693  0.5601  0.0721  0.2830
14989W        W89977  32.062   4.892  12.546  0.1830 -0.0955 -0.0090
14990W        W89978  24.500   4.867  18.619  0.0581  0.1748  0.0481
14991W        W89979  21.135  21.747   4.636  0.0958  0.2090  0.1361
14992W        W89980  20.423  22.632  24.634  0.1027 -0.0583 -0.0736
14993W        W89981   4.634   8.768  18.627 -0.0047  0.0117  0.0742
14994W        W89982   3.621  19.308   1.726 -0.1059 -0.2424 -0.1243
14995W        W89983   9.689   9.891  19.697 -0.0316  0.0513  0.0181
14996W        W89984  16.408  20.081  26.178  0.0469  0.2374 -0.2170
14997W        W89985  32.284  18.406  12.818 -0.2459 -0.2640  0.1607
14998W        W89986  19.567  31.701  20.109  0.2364  0.2072 -0.2062
14999W        W89987  33.179   4.927   5.506 -0.2158  0.0630  0.1950
15000W        W89988  15.820  28.541  25.549 -0.0440  0.1501 -0.0076
15001W        W89989  22.795  19.277  21.153  0.0824 -0.1645 -0.2182
15002W        W89990   5.079  32.835   2.108  0.3276  0.1218  0.0940
15003W        W89991  27.248  34.598  16.195  0.0855 -0.2287 -0.0335
15004W        W89992  20.971   2.101   7.180 -0.3336 -0.1877 -0.0727
15005W        W89993  21.482  12.483   6.180  0.0217 -0.0757 -0.3311
15006W        W89994  12.887   1.175   5.002 -0.2230 -0.0541  0.2144
15007W        W89995  20.578  20.807   9.927  0.1824 -0.2270  0.2308
15008W        W89996   1.364  28.642  19.507 -0.2452 -0.0905 -0.5084
15009W        W89997  25.270   7.235   2.011 -0.2064  0.0696  0.1384
15010W        W89998  11.493  11.588   1.815 -0.0753 -0.2993 -0.5830
15011W        W89999   1.900   4.533   1.960 -0.1956  0.0204  0.2758
15012W        W90000  29.972   3.952  11.810 -0.0051  0.0990 -0.0638
15013W        W90001  33.095   3.744   5.250 -0.0339  0.1373 -0.0034
15014W        W90002   6.825  31.630   8.014 -0.2977 -0.0609  0.0388
15015W        W90003  32.733  33.866  18.203 -0.0196  0.2438  0.0306
15016W        W90004   7.454  19.082  20.248  0.0038  0.2340 -0.0943
15017W        W90005  15.784   1.928  18.091 -0.0789  0.1744 -0.0412
15018W        W90006   2.033  28.366   8.642 -0.2024  0.0823  0.2074
15019W        W90007  14.499  32.921   0.464 -0.0242  0.0304  0.0072
15020W        W90008   7.555  27.086   4.356  0.1781  0.1196 -0.5674
15021W        W90009   2.668  29.075   8.838 -0.0480 -0.0042  0.0836
15022W        W90010  34.296  29.645   4.858  0.2753 -0.1760 -0.0296
15023W        W90011   3.501  18.388   1.872 -0.0956  0.0453 -0.4067
15024W        W90012   3.664  22.952  19.815  0.1006 -0.1753 -0.0981
15025W        W90013  16.341   7.952  18.308 -0.2424  0.0903 -0.2006
15026W        W90014  21.187  21.577   5.581 -0.0539 -0.0391 -0.1007
15027W        W90015  29.211  20.577  24.910 -0.1958 -0.2524 -0.6921
15028W        W90016  12.192  30.914   2.018 -0.0798 -0.0064 -0.1113
15029W        W90017  11.668  34.085  23.793  0.0731  0.0583  0.1172
15030W        W90018  27.061  30.977  17.610  0.5624 -0.0934 -0.1330
15031W        W90019   4.519   4.208   8.883  0.0150 -0.1211 -0.1408
15032W        W90020  24.001  18.969  17.043  0.0560 -0.1009 -0.0124
15033W        W90021  15.575   2.012   9.038 -0.0236 -0.0406  0.2458
15034W        W90022  19.270  31.174   3.830  0.1719  0.1119 -0.4140
15035W        W90023  35.244   3.519  16.467  0.0728  0.3286  0.0302
15036W        W90024   8.541   1.288   4.165 -0.2985 -0.2535  0.0716
15037W        W90025  25.874   0.455  22.469  0.0199 -0.0538  0.1916
15038W        W90026  17.468   0.886  16.898 -0.1079 -0.1157  0.2680
15039W        W90027   4.403  22.358   2.071  0.1312  0.0574 -0.2071
15040W        W90028  12.532  26.664  14.054  0.0397  0.2054  0.2735
15041W        W90029  19.891  13.185   0.974 -0.3020  0.1632  0.1500
15042W        W90030  26.082  20.652  25.965 -0.0883  0.2417 -0.0231
15043W        W90031  19.769  20.790   2.157  0.0993  0.0522 -0.0972
15044W        W90032  14.855   6.829   0.317  0.0465 -0.1396  0.3764
15045W        W90033   0.856   2.787   3.888  0.2308  0.1742  0.1277
15046W        W90034  27.650  24.947  15.496 -0.3515 -0.0110  0.3190
15047W        W90035   3.448   5.024  19.352  0.1104 -0.1290 -0.1896
15048W        W90036  28.991   1.617  21.214 -0.2456 -0.1116  0.2547
15049W        W90037  11.230  13.856   4.998  0.0653 -0.1444  0.0278
15050W        W90038  13.161  14.657   7.122 -0.0108 -0.0452  0.0855
15051W        W90039  29.136  16.273  17.518  0.0223 -0.2553  0.1464
15052W        W90040  17.094   4.289   9.413 -0.3404  0.0022  0.0594
15053W        W90041  25.532  22.273  17.849 -0.0651 -0.2969 -0.2777
15054W        W90042  27.111  25.280  24.647  0.1427  0.0116  0.1497
15055W        W90043  11.747   1.937   6.533 -0.0641 -0.0438  0.2511
15056W        W90044  19.719   4.515   7.413 -0.2906 -0.2217  0.2919
15057W        W90045  12.089   4.737  26.220 -0.1851 -0.0374 -0.0801
15058W        W90046  24.611  31.904   3.723  0.2623 -0.3022 -0.3001
15059W        W90047  23.215  25.575  25.495 -0.3267 -0.0231  0.0271
15060W        W90048  23.941  16.792  16.450  0.2883 -0.2341 -0.0117
15061W        W90049   0.542  33.757  20.129 -0.0758 -0.2566  0.3225
15062W        W90050  18.007  33.396   4.775  0.0556 -0.1431  0.0548
15063W        W90051  26.345  11.642  14.918 -0.0450 -0.1028  0.3637
15064W        W90052   5.065  13.518   8.480  0.0058  0.1559 -0.1296
15065W        W90053  34.056   4.416  26.064  0.1382  0.0371 -0.1058
15066W        W90054  23.977  26.725   2.140  0.0774  0.1582 -0.0492
15067W        W90055  11.015  34.636   4.034 -0.2560 -0.1365 -0.0468
15068W        W90056   3.883  14.311   1.268  0.2230 -0.1813  0.2354
15069W        W90057  10.869   1.169   0.221 -0.0701 -0.2577 -0.2048
15070W        W90058  19.806   2.306   7.565 -0.0870  0.0503  0.2908
15071W        W90059  15.576  16.555   2.062 -0.1282  0.0746 -0.0904
15072W        W90060  12.861  30.530  25.995  0.2415  0.4577 -0.1540
15073W        W90061  13.106  19.180  21.083 -0.2294  0.1491 -0.0769
15074W        W90062  26.017  33.038  15.520  0.3924 -0.0828  0.0272
15075W        W90063   0.344  15.045  14.049  0.0066  0.4732  0.0739
15076W        W90064   5.457  33.879   0.385  0.3451 -0.0276 -0.1222
15077W        W90065  26.177  29.277  12.274 -0.0404  0.2533 -0.2380
15078W        W90066   9.096  28.679  21.805  0.1774  0.0303 -0.1206
15079W        W90067  28.101   8.036  18.984  0.3158  0.3191 -0.1536
15080W        W90068  28.900  35.245   6.431 -0.0128 -0.1248  0.1047
15081W        W90069  14.603  14.021   1.456  0.0340 -0.1723 -0.0586
15082W        W90070  26.955  27.499   0.720 -0.1953  0.0040  0.2277
15083W        W90071  21.304  10.131  17.223 -0.0652  0.3649 -0.0617
15084W        W90072   5.425  20.195  19.839  0.1208 -0.1248  0.0622
15085W        W90073  29.392   6.393  22.743 -0.0329  0.1613 -0.0396
15086W        W90074  16.179  15.381   2.886 -0.1442 -0.0958  0.0191
15087W        W90075  28.269  12.708  15.020 -0.0473  0.0931  0.2123
15088W        W90076  22.362   4.898  15.391  0.0870  0.0934 -0.2124
15089W        W90077   5.153  33.819   7.848 -0.1252  0.0616  0.1198
15090W        W90078  29.734   8.795  12.035  0.1790 -0.3085 -0.0317
15091W        W90079  28.605  20.714   5.866 -0.1172 -0.0433 -0.2742
15092W        W90080  10.773   8.443   3.381 -0.3195 -0.0847  0.1717
15093W        W90081  28.409   3.374   5.017  0.0720 -0.0879 -0.0462
15094W        W90082   8.463  16.158  19.752  0.4730  0.1795 -0.1265
15095W        W90083  35.045  16.826   0.999 -0.2370  0.2236 -0.0657
15096W        W90084   8.307  21.116  23.690 -0.0906  0.0403 -0.3792
15097W        W90085  11.371  34.839   5.237 -0.0012 -0.1837 -0.1496
15098W        W90086  10.044  24.199   4.959  0.2369 -0.1230 -0.0591
15099W        W90087  22.518  26.192  23.704  0.3777  0.1020  0.1243
15100W        W90088  31.517  29.454  13.631  0.2600  0.0703 -0.1633
15101W        W90089   7.339   2.292   6.674  0.2394  0.0559 -0.1139
15102W        W90090  18.086  26.337  10.095  0.1247 -0.1716 -0.1357
15103W        W90091  31.778  13.677  22.835 -0.1908  0.0731  0.2946
15104W        W90092   9.131  16.969   3.689  0.2260 -0.0275  0.0068
15105W        W90093  24.075   7.759  17.307  0.0835  0.0632  0.1266
15106W        W90094  15.865  12.994  19.074 -0.2969 -0.0363  0.0170
15107W        W90095  15.500  11.194   2.166  0.2222  0.1932  0.0320
15108W        W90096  27.205   5.949  13.771  0.1893 -0.4430  0.2012
15109W        W90097  22.241   9.634   0.091  0.0707 -0.0267  0.1784
15110W        W90098  34.100  27.302  25.883  0.1191  0.2671  0.0398
15111W        W90099  10.833  29.938   6.915 -0.3444  0.0470  0.1746
15112W        W90100   3.096  11.501  23.779 -0.2731  0.0857 -0.0569
15113W        W90101  21.765  22.447   0.867 -0.1571 -0.1157  0.0952
15114W        W90102  18.015  32.801   4.317 -0.3164  0.2169 -0.0204
15115W        W90103  11.330  24.906  21.685  0.0530  0.2331  0.0617
15116W        W90104   5.571   1.022  25.722  0.1716 -0.0155  0.1056
15117W        W90105  12.368  13.865   7.248  0.3650 -0.2358  0.2233
15118W        W90106   1.787  20.669   0.502 -0.1013  0.1335 -0.2562
15119W        W90107  31.957  33.646  23.668 -0.2865  0.1492 -0.1777
15120W        W90108   5.021   8.746  25.426 -0.0443 -0.0809 -0.1106
15121W        W90109  25.572  34.080   5.186 -0.0160  0.0945  0.2451
15122W        W90110  22.081  27.030  20.388 -0.1122 -0.0658 -0.0895
15123W        W90111   0.659  13.324  21.740  0.2174 -0.1824  0.1868
15124W        W90112   9.795   7.488  25.460 -0.2133  0.1232  0.0868
15125W        W90113  16.623   1.889   1.450  0.2507  0.0907  0.0027
15126W        W90114  29.303  13.658   7.423  0.0876  0.0945  0.0690
15127W        W90115   7.577  25.484  17.091  0.1361 -0.0365  0.0286
15128W        W90116   9.696  20.242   0.162  0.3861 -0.3652  0.2905
15129W        W90117  31.575  22.178   8.447 -0.2437 -0.1851 -0.1950
15130W        W90118   3.121  10.124   5.579 -0.0406 -0.1173 -0.1736
15131W        W90119  29.255  21.177   6.203 -0.1117  0.0916 -0.1311
15132W        W90120  34.628   9.595  12.889 -0.1197 -0.4661 -0.0312
15133W        W90121  23.992  31.916   6.023 -0.5226 -0.1327  0.0183
15134W        W90122   8.941  16.608   2.138  0.0732 -0.0264  0.1728
15135W        W90123  20.502  31.314  19.783 -0.1611  0.0525  0.1109
15136W        W90124  31.334   0.379   4.716 -0.0201  0.4300  0.2020
15137W        W90125   9.684  27.820  10.998 -0.1251 -0.1483 -0.2632
15138W        W90126   6.559  30.340   9.290  0.1306  0.0147 -0.2838
15139W        W90127  32.847  29.671  22.096 -0.4211  0.0742  0.2808
15140W        W90128  15.896   2.484   0.390 -0.0441  0.2520  0.0288
15141W        W90129   2.379  10.102   0.554 -0.2039 -0.2698  0.2968
15142W        W90130  31.252  18.961  11.447  0.0877 -0.1874 -0.1580
15143W        W90131  30.546   8.954  17.986 -0.0173 -0.2631  0.1144
15144W        W90132   3.367   5.881   8.462 -0.0399 -0.1478 -0.1766
15145W        W90133   6.284   3.248   2.020 -0.1195 -0.7028  0.1150
15146W        W90134  24.962  24.233  25.386  0.2156  0.1609  0.1566
15147W        W90135  27.202   5.636  10.580 -0.0151 -0.2718  0.0061
15148W        W90136  27.690   2.509  15.787  0.0909  0.3240  0.3008
15149W        W90137  12.722   1.472  24.355  0.2279 -0.0585  0.0218
15150W        W90138  17.157  24.494   1.394  0.1920  0.1738  0.0172
15151W        W90139  19.078  25.210   9.794  0.0259  0.1835 -0.0490
15152W        W90140  27.996   1.100   3.292 -0.0979  0.1137 -0.1990
15153W        W90141  17.053  23.582  11.343  0.0182  0.1038  0.4239
15154W        W90142   1.687  27.165   1.591  0.2620 -0.2195 -0.2288
15155W        W90143  29.558   2.799  22.037  0.0227 -0.0690 -0.0587
15156W        W90144  22.582  29.436  13.042  0.1174 -0.0938 -0.0230
15157W        W90145  10.769   9.261  19.294  0.0284 -0.1022  0.0713
15158W        W90146  20.584   9.759  16.977  0.0367 -0.0028  0.0696
15159W        W90147  20.889  21.133  18.926 -0.0638  0.1005  0.3561
15160W        W90148  21.742  26.345   4.306  0.1465 -0.2198  0.3232
15161W        W90149   2.738   2.977  21.596  0.1202  0.0187 -0.1557
15162W        W90150  15.192   3.269   1.646 -0.0743 -0.4038  0.1089
15163W        W90151   4.516  33.241  12.099  0.0379  0.1673  0.1479
15164W        W90152   3.041  19.551   3.796 -0.0565 -0.1022 -0.3187
15165W        W90153   0.776  17.921  23.595  0.2796 -0.1983  0.0378
15166W        W90154   9.994   6.035  21.176  0.1542  0.4891 -0.0726
15167W        W90155  16.254   3.367  18.999 -0.0457 -0.0356  0.3663
15168W        W90156   8.473  34.783   1.529  0.2408  0.0577 -0.0551
15169W        W90157  31.004  28.731   0.291 -0.1010  0.1664  0.0672
15170W        W90158  13.662  28.795  23.946 -0.1185  0.0214  0.0523
15171W        W90159  10.084  34.580   4.730 -0.0754  0.1865  0.0557
15172W        W90160  28.853  33.868   2.828 -0.0613 -0.0523 -0.0409
15173W        W90161  26.827  10.308  14.094  0.2039 -0.0209  0.2335
15174W        W90162   6.957  11.348   0.237  0.0127 -0.3958  0.2120
15175W        W90163   9.911   1.422  25.117  0.0924 -0.0776 -0.0284
15176W        W90164   9.867   9.568   6.858  0.0113 -0.0112  0.1112
15177W        W90165  15.141   9.261   9.541  0.0899 -0.0149 -0.3603
15178W        W90166   9.904  14.149  19.018 -0.0861 -0.0914 -0.0419
15179W        W90167  17.380   3.128  21.015 -0.0045 -0.4692 -0.0454
15180W        W90168   0.707  18.976  14.303  0.1485 -0.0513  0.0201
15181W        W90169  26.768  14.579   8.468 -0.1805  0.1518  0.2372
15182W        W90170  26.551  27.894  12.175 -0.0620  0.0575  0.0130
15183W        W90171   7.165   7.447   8.526  0.2224  0.0653  0.0327
15184W        W90172  27.018   3.981  23.819 -0.0828  0.3079 -0.1265
15185W        W90173  24.231  33.805  18.917 -0.0833  0.1190  0.1609
15186W        W90174  14.451  21.114  25.595  0.0098  0.2541 -0.3108
15187W        W90175  22.059  33.931  18.091 -0.0582 -0.4934  0.1603
15188W        W90176  14.255   1.730  10.791  0.0448  0.2284 -0.2588
15189W        W90177  33.643   7.344  16.942  0.0922  0.3187 -0.1144
15190W        W90178   2.179  10.416   4.349  0.3009 -0.1621 -0.0671
15191W        W90179   8.198  30.176  13.938 -0.3043  0.2255 -0.1682
15192W        W90180  12.900  10.323  23.372  0.2573 -0.0188  0.1442
15193W        W90181   7.850  24.999  22.791 -0.0877  0.2921  0.1261
15194W        W90182   3.287   9.520   1.507 -0.0180  0.0116 -0.0131
15195W        W90183   5.524  35.326   7.457 -0.0462 -0.0767 -0.3053
15196W        W90184   3.871  26.503  22.026 -0.0653 -0.3719  0.3566
15197W        W90185  33.870  33.815   4.989  0.1725  0.1012  0.1362
15198W        W90186   6.258  19.764   7.354 -0.1356  0.2167  0.1570
15199W        W90187  31.810  20.655  24.510 -0.0125 -0.1074 -0.1904
15200W        W90188  13.354  14.681  13.553 -0.0631 -0.0001 -0.0771
15201W        W90189  18.216  14.999  18.110 -0.2805 -0.0748 -0.2475
15202W        W90190  23.987  28.985   3.846 -0.0585 -0.1765  0.2864
15203W        W90191   5.265  15.348   6.489  0.3523 -0.0201  0.2916
15204W        W90192  32.279  26.660  20.893  0.0241  0.3081  0.1241
15205W        W90193  24.762  27.806  19.285 -0.0015 -0.1168  0.2779
15206W        W90194  32.163  24.149  15.025  0.2803 -0.0914  0.1088
15207W        W90195  32.811  21.254  17.169 -0.0293  0.1083 -0.1459
15208W        W90196   2.093  10.059  20.434  0.1755  0.1181  0.2520
15209W        W90197  26.582  17.643  11.999  0.0733 -0.0870 -0.0959
15210W        W90198  31.577  28.426  22.279 -0.0238  0.0659  0.1452
15211W        W90199  32.679  25.450  15.586  0.0210 -0.1861  0.2491
15212W        W90200   6.847   0.636   0.885  0.0466 -0.2275  0.1534
15213W        W90201  27.339  18.064  19.529 -0.0334  0.2950  0.2627
15214W        W90202  26.852  29.807  21.995  0.0740 -0.1843 -0.1624
15215W        W90203  12.714  17.526  24.260 -0.0261  0.1795 -0.3060
15216W        W90204  30.949   2.188  11.549  0.0123  0.1292  0.0449
15217W        W90205  22.385   3.418  19.885 -0.0418 -0.1529  0.0783
15218W        W90206  28.071   5.517  14.301 -0.3424 -0.0439 -0.0670
15219W        W90207  12.683  27.151  24.100 -0.2525  0.0990  0.1623
15220W        W90208  22.289  26.078  21.633 -0.1545 -0.1477 -0.0707
15221W        W90209  34.242   6.680  23.779 -0.3202  0.2265  0.0123
15222W        W90210  28.221  34.601  17.052 -0.2984 -0.2744  0.1159
15223W        W90211  19.819  25.165  24.417 -0.2298  0.1981 -0.0892
15224W        W90212  30.073  14.506  20.490 -0.0347  0.1862 -0.1919
15225W        W90213   9.070  31.518  14.225 -0.1925  0.0135 -0.2365
15226W        W90214  27.644  31.735  12.840  0.0779 -0.1177  0.2267
15227W        W90215  34.006  18.881  13.624  0.1856 -0.0550 -0.0215
15228W        W90216  32.460   3.088  21.563 -0.0126 -0.0226 -0.3987
15229W        W90217  29.649  11.827  11.510 -0.1851  0.0858 -0.4877
15230W        W90218  24.048  30.843  25.050  0.2737 -0.0053 -0.1602
15231W        W90219   9.575  22.900   5.340  0.2870  0.0497  0.1705
15232W        W90220  16.535   2.576   6.510 -0.3492 -0.0142  0.2157
15233W        W90221  22.530  23.755   3.717 -0.0657 -0.0263  0.1630
15234W        W90222  22.887  12.694   0.472  0.2751  0.2258  0.1096
15235W        W90223  35.306   7.786  19.108 -0.4837  0.0012  0.0764
15236W        W90224   6.029   5.398  18.904 -0.0504  0.2010  0.0489
15237W        W90225   7.609  16.275  26.192 -0.1871  0.1087 -0.2219
15238W        W90226  19.506  14.508  23.055 -0.3977  0.0169  0.2502
15239W        W90227  11.671   9.886  24.230 -0.2016  0.2096  0.1563
15240W        W90228  10.921   8.634  22.017 -0.1296  0.1602  0.1383
15241W        W90229   6.137   9.075   5.338  0.0237 -0.2091 -0.1578
15242W        W90230  22.981  20.937  23.760  0.0664  0.0411 -0.0403
15243W        W90231  35.163  30.116   0.697 -0.0523 -0.0121 -0.1900
15244W        W90232  34.938  31.942   7.604 -0.0832 -0.1123  0.0642
15245W        W90233  30.333   0.752  24.429 -0.0750  0.5449  0.3293
15246W        W90234  28.002  17.645  11.088 -0.0433 -0.0379  0.2473
15247W        W90235   6.127  12.837   5.871  0.1306  0.0601  0.0768
15248W        W90236  31.942   7.005   1.479  0.1028  0.2042  0.0212
15249W        W90237  28.440  33.371  20.355  0.1724  0.2281  0.0764
15250W        W90238  34.308  27.661  15.463  0.0636 -0.0442  0.3274
15251W        W90239  19.382   4.668   7.059 -0.2602 -0.3446 -0.0023
15252W        W90240  29.107   3.627  12.567 -0.1565  0.0605  0.1276
15253W        W90241  34.838  13.202  13.727  0.2073  0.3564  0.1163
15254W        W90242  15.574   5.039  12.530 -0.1720 -0.2090 -0.2777
15255W        W90243  14.182   2.657  24.930 -0.2568 -0.2166 -0.0844
15256W        W90244  14.012  31.913  25.502  0.0022  0.1752  0.1855
15257W        W90245   9.699  24.722  15.744 -0.0421  0.1272 -0.2528
15258W        W90246  17.102  14.112  10.380  0.2663 -0.1364 -0.1238
15259W        W90247  11.224  18.306  13.325 -0.0178 -0.0658 -0.0579
15260W        W90248  31.882   5.737   3.461  0.0047 -0.1851  0.0070
15261W        W90249  20.431   9.342   4.703  0.1915  0.3532  0.1432
15262W        W90250  23.579  30.079  25.426 -0.1741 -0.0817  0.0121
15263W        W90251  11.001  30.437  21.726  0.1165  0.1052  0.1083
15264W        W90252  25.615  31.389  10.772 -0.1322 -0.4693 -0.2895
15265W        W90253  30.065  31.156  11.690  0.0424 -0.1247  0.0506
15266W        W90254  24.811  32.915   0.962  0.0381  0.2247 -0.3884
15267W        W90255  18.845  19.199   2.365 -0.0205 -0.0301  0.1731
15268W        W90256   5.862   8.447   2.663 -0.0705 -0.1379  0.0526
15269W        W90257  21.901  11.137  19.174 -0.2642  0.2133 -0.0404
15270W        W90258  19.405  34.739  18.812 -0.1485 -0.1165 -0.2789
15271W        W90259  31.965   3.151  14.600  0.0927  0.1887 -0.1853
15272W        W90260  10.254  17.468  12.523 -0.0720 -0.2562  0.0189
15273W        W90261  17.196   9.686   0.725  0.1112  0.3957  0.4311
15274W        W90262  26.319  25.895   1.269  0.1351  0.1635 -0.2043
15275W        W90263  10.261  17.421  25.632  0.1061  0.1170 -0.0891
15276W        W90264   1.796  13.480  15.340 -0.1076  0.4239 -0.3415
15277W        W90265  10.563  30.094  26.249 -0.1860  0.1034 -0.2225
15278W        W90266   1.984   3.552  20.882 -0.0028 -0.1369 -0.0501
15279W        W90267   7.826   9.172  20.777 -0.3269  0.0037 -0.2167
15280W        W90268  24.821   2.254  19.067  0.3556 -0.1458 -0.0021
15281W        W90269  18.403  34.903   0.133  0.5188  0.3211  0.2006
15282W        W90270  24.839  14.474  22.487 -0.0507 -0.2589 -0.1019
15283W        W90271  21.466  27.567   3.224  0.0338  0.1314  0.0207
15284W        W90272   8.863  28.765   1.778  0.2456 -0.2526 -0.2129
15285W        W90273  33.383   8.398  14.136  0.3751 -0.0722  0.0789
15286W        W90274  25.340  34.833  24.287  0.1557  0.1519 -0.1525
15287W        W90275  12.791  31.690   0.972  0.0195 -0.1213 -0.2194
15288W        W90276  32.290   0.203   2.040 -0.0675 -0.2932 -0.0494
15289W        W90277  20.422  26.128   1.561 -0.0098  0.2304 -0.1179
15290W        W90278  17.758  11.209   3.296 -0.1810 -0.1976 -0.0767
15291W        W90279   5.606   1.295  11.569  0.1945  0.0866  0.1768
15292W        W90280  29.521   9.531   8.072 -0.1210 -0.1138  0.2284
15293W        W90281  20.023  24.004  20.653 -0.0225  0.0638  0.1069
15294W        W90282   3.363  34.072  24.694 -0.1218 -0.1067  0.4169
15295W        W90283  15.723  16.097   1.909  0.2205  0.2704 -0.2623
15296W        W90284   3.961  26.225  21.277 -0.0322 -0.1975 -0.0417
15297W        W90285  27.314  31.822  11.015 -0.3788  0.1167 -0.0544
15298W        W90286  15.519  13.743  22.207 -0.1118 -0.1134  0.0478
15299W        W90287  12.504  22.180  15.955 -0.0368 -0.2806 -0.1689
15300W        W90288  28.474   3.252  14.050  0.1029 -0.2503 -0.4038
15301W        W90289   0.032  19.238  25.745 -0.2174 -0.3634 -0.0339
15302W        W90290  22.167  17.768  24.048  0.1972 -0.1269  0.0918
15303W        W90291   0.722  23.098  22.324  0.0399 -0.0608 -0.4381
15304W        W90292   8.955  22.001   2.381  0.0809 -0.1904  0.0820
15305W        W90293  21.294  30.516  13.547  0.0034 -0.0122  0.0199
15306W        W90294   4.572  11.660  21.516 -0.0484  0.0807 -0.2179
15307W        W90295  25.524  17.178  11.763 -0.1960  0.3707 -0.2644
15308W        W90296  35.088  28.842  25.531 -0.0134  0.0387 -0.0979
15309W        W90297   7.181   5.003   6.703 -0.2561  0.0795  0.1088
15310W        W90298  13.118  14.278   7.442  0.0106 -0.1278  0.0221
15311W        W90299  10.741  15.455  18.879  0.1104  0.3136 -0.1220
15312W        W90300  30.441  20.464  13.298  0.1300  0.1565 -0.1056
15313W        W90301  32.525   4.805  12.908 -0.2344 -0.1318 -0.2959
15314W        W90302  30.277  21.725   9.014  0.3438 -0.0065  0.0202
15315W        W90303  19.216   5.781   8.453 -0.1119 -0.1781 -0.1393
15316W        W90304  27.495  16.753   6.647 -0.1079  0.0329  0.3180
15317W        W90305  13.308  22.502  21.620  0.2663 -0.0980  0.3948
15318W        W90306  12.014  30.069   1.302  0.1591 -0.3900 -0.1600
15319W        W90307  25.338   2.244  13.129 -0.1309 -0.0393 -0.2793
15320W        W90308  14.150  27.729  13.479  0.1787 -0.1587 -0.1122
15321W        W90309  12.179   4.265  26.158 -0.1889 -0.0998  0.1087
15322W        W90310  10.510  13.755  19.689  0.0030 -0.0517 -0.2094
15323W        W90311  15.914  30.983   7.996  0.2751 -0.3429 -0.0577
15324W        W90312  20.311  18.276   7.720 -0.0420  0.3358  0.1028
15325W        W90313  11.140  26.468  25.649  0.4405 -0.1992 -0.1734
15326W        W90314  24.676   8.895   0.648 -0.2633  0.0240 -0.2195
15327W        W90315   7.943   9.481  19.781  0.0364 -0.0269  0.0857
15328W        W90316  19.891  33.372   1.662 -0.1348 -0.1367 -0.1127
15329W        W90317  29.179   0.680  14.738  0.2465 -0.2834 -0.1114
15330W        W90318  32.044  15.557  12.558 -0.0325 -0.0326 -0.1779
15331W        W90319   0.729  16.835  19.091  0.3440 -0.0264 -0.1520
15332W        W90320  24.325   6.726  21.937 -0.3800 -0.0261  0.0974
15333W        W90321  16.036   6.702   5.023  0.3051  0.1667  0.0947
15334W        W90322   3.011  16.123  13.481 -0.1833  0.0455 -0.0939
15335W        W90323   5.315  34.896   1.085 -0.2262 -0.3752 -0.1037
15336W        W90324  19.271  17.391   6.429 -0.3782  0.3319  0.3693
15337W        W90325  23.691   0.859   0.632 -0.3527  0.1639 -0.2154
15338W        W90326  19.693   0.794   5.630  0.0097 -0.1824 -0.0361
15339W        W90327  27.424  16.804  15.576 -0.3090  0.2736  0.1905
15340W        W90328  33.928   3.401  12.999  0.2312  0.1519 -0.1808
15341W        W90329   8.947  18.755  26.151 -0.3348 -0.1444 -0.1654
15342W        W90330  14.184   1.439   4.128 -0.2342  0.1300 -0.1015
15343W        W90331   8.074  28.003  14.778 -0.5639  0.2362  0.3360
15344W        W90332  10.086   9.504  23.245 -0.2298 -0.0281 -0.2188
15345W        W90333   6.941  31.739  12.252 -0.3158  0.1084  0.0530
15346W        W90334   2.780   3.816  24.099 -0.2590  0.5440  0.1074
15347W        W90335  29.904   7.171  21.884 -0.1017  0.1558  0.0472
15348W        W90336  14.018  18.387   2.020 -0.0596  0.0913  0.0962
15349W        W90337  16.129  26.144  12.485 -0.2487 -0.1776 -0.1360
15350W        W90338  20.538  17.423   2.756 -0.0456 -0.0805 -0.1164
15351W        W90339  22.401   5.744  26.047  0.0557 -0.0445 -0.1024
15352W        W90340   2.711   9.230   1.015  0.2833 -0.2256 -0.1370
15353W        W90341  29.614  35.277  25.823 -0.0445 -0.0260  0.2563
15354W        W90342  14.274  10.738   5.771 -0.1861  0.1635 -0.1078
15355W        W90343  25.483  26.057   2.130  0.0158 -0.2250  0.2713
15356W        W90344  12.098  18.459  21.367 -0.0718  0.2413 -0.1963
15357W        W90345   0.670   4.061   4.688 -0.2999  0.0742 -0.4447
15358W        W90346   1.357  15.317  22.902  0.1327  0.2476 -0.0572
15359W        W90347   1.492  24.884  24.268 -0.2084 -0.0944  0.0679
15360W        W90348  14.302   2.741   6.108  0.3015 -0.0051 -0.0603
15361W        W90349  20.978  12.308   6.088 -0.0867  0.3493 -0.0276
15362W        W90350  10.136  30.501   4.609  0.0690  0.1947 -0.0309
15363W        W90351  30.056  10.653  17.517  0.1414  0.2569  0.0246
15364W        W90352   6.508  17.899  21.432  0.1459 -0.3356 -0.3376
15365W        W90353   6.543   9.628  24.231  0.0110  0.0352 -0.3164
15366W        W90354  15.937  24.931  25.772  0.0315 -0.1433 -0.1103
15367W        W90355  10.481  30.862  11.336 -0.5778  0.2647  0.1238
15368W        W90356  17.436  25.686   8.295  0.3527 -0.1008 -0.0016
15369W        W90357  24.669  16.865  16.833 -0.3444  0.1894 -0.0572
15370W        W90358   1.298  22.547  12.554  0.2493  0.0290  0.1254
15371W        W90359   6.175  13.799  10.628  0.0078  0.2449 -0.0176
15372W        W90360  16.542  17.808  23.924  0.0745  0.1625  0.1598
15373W        W90361  15.778  34.742   2.449  0.1685 -0.1178  0.0477
15374W        W90362  26.540   5.373  14.789 -0.3226  0.1663 -0.0751
15375W        W90363  21.110  22.438  22.602  0.2816 -0.0838 -0.1998
15376W        W90364   5.855  11.683  22.431 -0.0831 -0.0695  0.0180
15377W        W90365   0.255  24.787  16.998  0.0881 -0.2323 -0.0459
15378W        W90366  15.382  17.954  11.624 -0.1910  0.2665 -0.0558
15379W        W90367   1.274   1.771   2.144  0.0873 -0.3037  0.0413
15380W        W90368  25.229  11.634  24.951 -0.4629  0.0608 -0.1591
15381W        W90369  17.868  26.699  23.576  0.0418  0.1760 -0.0353
15382W        W90370  16.250  13.540  21.726 -0.3182 -0.3729 -0.3012
15383W        W90371  19.660  34.059  21.602  0.0679 -0.0513 -0.2499
15384W        W90372   9.052  23.443   1.990  0.2913 -0.2874 -0.4027
15385W        W90373   3.818  10.551  20.409 -0.3691 -0.0105  0.4638
15386W        W90374  27.440  21.032  13.713  0.1998 -0.0158 -0.1776
15387W        W90375  31.983  28.388   3.958 -0.2055  0.1780  0.1787
15388W        W90376  27.666  27.143   8.773 -0.1911 -0.0132 -0.1540
15389W        W90377  12.927  31.962  11.553  0.1140  0.1130  0.2822
15390W        W90378  34.296   4.415  24.256  0.1027  0.1227 -0.1400
15391W        W90379  10.024   0.353  12.945 -0.0066 -0.0064 -0.0399
15392W        W90380  13.893  18.376   7.731 -0.2220 -0.2526  0.3166
15393W        W90381   1.200  16.206  26.206 -0.1218 -0.2726 -0.3116
15394W        W90382  14.646   7.922  23.381  0.0773 -0.1751 -0.0141
15395W        W90383   2.083  19.082  22.935  0.1262 -0.0387  0.0602
15396W        W90384  25.457   6.137  18.590  0.0476  0.0998 -0.1142
15397W        W90385  30.537  19.678   4.747  0.1074 -0.0270 -0.0441
15398W        W90386   6.132  24.204   0.405 -0.1029 -0.0518 -0.1360
15399W        W90387   6.710   4.138   3.918 -0.0628  0.1379 -0.0688
15400W        W90388  22.159  24.915  18.564 -0.0973  0.0017 -0.2541
15401W        W90389  34.174   0.813  21.152 -0.0809  0.0780  0.1632
15402W        W90390  18.284  35.335  22.489  0.4706  0.2293  0.0643
15403W        W90391  32.272  14.287   6.160  0.1600 -0.0043 -0.2689
15404W        W90392   3.710  35.148  19.392  0.1581  0.0579 -0.1497
15405W        W90393  14.209  29.717   6.139 -0.0698 -0.0277 -0.0919
15406W        W90394  17.123  24.194  10.637 -0.4263  0.1521 -0.2126
15407W        W90395   3.925   2.355   6.673 -0.1523  0.1235  0.2192
15408W        W90396  12.157   7.159  20.732 -0.2476 -0.0127 -0.1883
15409W        W90397  12.612   2.684   1.940  0.0714  0.2695  0.0335
15410W        W90398  30.081  27.253   8.374 -0.1434 -0.0057  0.1721
15411W        W90399  26.068  12.653  14.825  0.1229  0.0411  0.2729
15412W        W90400  27.571  18.255  20.827  0.0871  0.0744  0.1909
15413W        W90401   3.681  29.990   8.210  0.0918 -0.0354 -0.0948
15414W        W90402   7.047  24.552  26.079  0.3332  0.2238  0.1388
15415W        W90403  27.469  10.694  24.900 -0.0909 -0.2160 -0.1010
15416W        W90404  33.054  27.452  17.714 -0.1857  0.3668  0.0128
15417W        W90405   5.700  28.319  13.097 -0.1196  0.4342 -0.3109
15418W        W90406  23.969  25.637  19.247 -0.0954  0.0435 -0.0200
15419W        W90407   3.278  29.150   3.109 -0.1866 -0.0076 -0.0618
15420W        W90408  16.525   3.003   8.719  0.2269  0.0569  0.0775
15421W        W90409  18.687   6.698   7.242  0.1511 -0.1568  0.0336
15422W        W90410   2.643  11.836  20.954  0.2425  0.2325 -0.0138
15423W        W90411  32.330   3.043  18.142 -0.0150 -0.1752 -0.2364
15424W        W90412  26.497   9.430  22.165  0.0602 -0.0510  0.2873
15425W        W90413  18.178  14.171   8.819 -0.0572 -0.1397  0.2577
15426W        W90414  28.119  12.794  16.432 -0.1032  0.0684 -0.3009
15427W        W90415   8.925  30.516   4.705  0.1931 -0.0906 -0.1434
15428W        W90416  15.631  11.284   8.585 -0.0151 -0.2178 -0.2694
15429W        W90417  34.354  28.316   5.196  0.3242  0.2116 -0.2705
15430W        W90418  32.282  14.310  19.795 -0.4702  0.1280  0.1629
15431W        W90419  10.594   9.426   8.686  0.0369 -0.2630  0.3027
15432W        W90420   5.937  16.200  24.074 -0.3128 -0.0390  0.0368
15433W        W90421  21.686   2.894  17.576 -0.0216  0.2487 -0.1158
15434W        W90422  30.856   7.404  13.267 -0.0631 -0.1206  0.0413
15435W        W90423  22.937   9.674  18.143 -0.2510  0.2292 -0.0064
15436W        W90424  17.366  13.904   3.915  0.3523 -0.1522 -0.0436
15437W        W90425  15.706  19.863  10.272  0.2111  0.2571  0.3445
15438W        W90426  24.764  26.918  13.546 -0.0437  0.1855  0.1071
15439W        W90427  10.898  15.575   1.211 -0.2003  0.2972  0.1509
15440W        W90428   0.492   5.940  21.864 -0.0444  0.2355  0.2978
15441W        W90429  11.898   1.302  11.809 -0.3472 -0.4221  0.1977
15442W        W90430   5.525   9.299   2.444  0.0095 -0.0569 -0.0618
15443W        W90431  19.749  30.555  17.192  0.2171  0.1624 -0.1685
15444W        W90432  27.165  12.266  14.721  0.2873  0.1970  0.3672
15445W        W90433   3.676  14.325  17.067  0.2739 -0.1497 -0.1091
15446W        W90434  30.077  26.934  10.838 -0.0900 -0.2125 -0.1766
15447W        W90435  26.825  28.764  16.456  0.0879  0.2509 -0.1303
15448W        W90436  13.611   6.633  18.906  0.0077 -0.5006 -0.3877
15449W        W90437  25.174  11.462  11.154  0.2459  0.0811 -0.0581
15450W        W90438  16.077  13.184   0.692  0.0445 -0.1239  0.0142
15451W        W90439  31.772  14.161   5.198 -0.0431 -0.0312  0.2475
15452W        W90440   1.656   8.643   3.418  0.1614  0.1682 -0.1830
15453W        W90441  31.261  12.968  11.106 -0.0581 -0.0807 -0.2564
15454W        W90442  30.734  15.640  10.889 -0.1597  0.1660 -0.1253
15455W        W90443  20.924  35.276  14.791 -0.1153  0.0329  0.1669
15456W        W90444   5.954  16.035   8.126 -0.1645  0.1831  0.2742
15457W        W90445  22.917  21.280  20.726  0.0510 -0.0080 -0.1324
15458W        W90446  32.706   5.409  22.848  0.1495  0.1269  0.0397
15459W        W90447  11.596  30.546   2.697 -0.4446 -0.3336 -0.1671
15460W        W90448  18.301   4.663  26.081  0.0110 -0.4704  0.1469
15461W        W90449  26.742  27.471  12.707  0.1477 -0.0684 -0.0183
15462W        W90450  26.250  28.345  12.994  0.0679  0.0170 -0.0246
15463W        W90451  14.711  28.960   5.675  0.1881 -0.0531 -0.1782
15464W        W90452  29.490  25.729  24.972  0.0914  0.2261 -0.3975
15465W        W90453  24.477  25.410  22.281  0.2561  0.0415 -0.1522
15466W        W90454  26.511  34.206  25.627 -0.1272 -0.0493 -0.1587
15467W        W90455  14.084  25.196   5.098  0.1281  0.1530 -0.0290
15468W        W90456  28.013  17.280  25.485  0.4143  0.0334 -0.0583
15469W        W90457  32.463   7.532   0.257 -0.0400 -0.0049 -0.0342
15470W        W90458   9.075   9.510   6.636 -0.1451 -0.0715 -0.2692
15471W        W90459  33.062  15.608   9.329 -0.2566 -0.0788  0.1986
15472W        W90460   7.246  33.374  26.100 -0.1241  0.2561 -0.0041
15473W        W90461  21.325   2.522  19.610  0.0787 -0.1599  0.0247
15474W        W90462  20.610  33.049  17.568  0.1146  0.1328 -0.1376
15475W        W90463  18.893  15.019   0.556  0.2450 -0.1238  0.0937
15476W        W90464  20.605  21.679   1.530 -0.7007  0.1478  0.3216
15477W        W90465   8.659  15.270  18.245 -0.1588  0.1178  0.1063
15478W        W90466   7.927  17.581   9.343  0.4608 -0.1403 -0.2419
15479W        W90467  10.096   0.729  14.960  0.0086 -0.1553 -0.0874
15480W        W90468  20.765  22.065  18.865  0.3076 -0.0755  0.0068
15481W        W90469  10.965   2.931   2.460 -0.3793  0.2574 -0.1021
15482W        W90470  21.429  32.598  20.854 -0.1383  0.0508 -0.0541
15483W        W90471  14.741   2.421  19.194 -0.0953 -0.2458 -0.3091
15484W        W90472  22.737  33.040  15.608  0.2842  0.1466  0.2806
15485W        W90473   7.087  14.221   0.455 -0.1668 -0.0289  0.0982
15486W        W90474  26.420  18.709  21.408 -0.1357 -0.1180  0.1848
15487W        W90475  26.599  13.287   1.278 -0.1178 -0.3781  0.0601
15488W        W90476   8.417  27.760   0.167 -0.0762  0.0720 -0.3017
15489W        W90477   6.930  19.262   1.728 -0.1902 -0.1917  0.1451
15490W        W90478  34.472   9.092  19.637 -0.0489 -0.1886 -0.2601
15491W        W90479   5.251   7.474   2.396 -0.0185 -0.0179 -0.0444
15492W        W90480  29.461  11.017   8.755  0.1276 -0.1972 -0.0163
15493W        W90481  16.364   5.118  20.158  0.0819 -0.2278  0.1530
15494W        W90482  20.377   6.629   6.992 -0.2489  0.0608 -0.0336
15495W        W90483   0.274  14.237   0.408  0.1933  0.2092  0.0445
15496W        W90484   0.447   3.312   2.235 -0.0745  0.0292  0.2787
15497W        W90485  25.419  24.592  17.798 -0.0223  0.2293  0.0835
15498W        W90486  20.327  16.324  19.407  0.1247  0.1191 -0.3637
15499W        W90487   1.366  11.572  18.573  0.0019 -0.1179  0.2342
15500W        W90488   3.726   2.977  18.075  0.2110  0.1163  0.2440
15501W        W90489  32.094  21.169  24.533  0.3550  0.0298  0.0207
15502W        W90490  11.999  15.152  20.761  0.1995  0.1863 -0.0379
15503W        W90491   9.041  23.308   3.690 -0.0175  0.0622 -0.0611
15504W        W90492  15.448  35.138   6.556 -0.2057  0.0398  0.0113
15505W        W90493  33.637  15.632   6.521  0.1668 -0.0741 -0.1549
15506W        W90494  21.339  32.981  22.461  0.2608 -0.2091 -0.0487
15507W        W90495  21.168  21.440  22.396 -0.0863 -0.1575  0.2505
15508W        W90496  34.908   4.844  17.531 -0.0166 -0.0427  0.3724
15509W        W90497   4.735  14.242  18.207 -0.1229 -0.0329  0.0928
15510W        W90498   8.660  28.533   3.373 -0.2107  0.1640  0.0005
15511W        W90499   9.262  19.293   7.616  0.0666 -0.0206  0.3758
15512W        W90500   8.007  20.673  23.437 -0.3960  0.4096 -0.0673
15513W        W90501   0.833  24.059  24.146 -0.5064 -0.0534 -0.2283
15514W        W90502  10.581  33.264  20.835 -0.0512 -0.0256  0.1750
15515W        W90503  21.260  28.770  21.098  0.3633 -0.1214  0.1514
15516W        W90504   9.197  30.158   8.121  0.1812 -0.1937  0.1203
15517W        W90505  24.394   4.486  20.712  0.4756  0.2185  0.0106
15518W        W90506   3.298  30.689  10.647 -0.1285 -0.0881  0.2915
15519W        W90507   7.372  30.379  14.514  0.1363  0.3389  0.0948
15520W        W90508  23.284   2.497  12.544 -0.2264 -0.1188  0.0731
15521W        W90509   2.149  32.808   7.474  0.2012  0.1224  0.2448
15522W        W90510   0.322  23.314  25.664  0.2327 -0.1109 -0.1271
15523W        W90511  11.176  32.035   3.604 -0.0564 -0.3126 -0.1882
15524W        W90512  18.512   0.737   2.824 -0.1281 -0.0338  0.3636
15525W        W90513   3.555   7.065  24.667  0.0776 -0.2175 -0.0793
15526W        W90514  10.070  27.792  22.316 -0.1720 -0.1610  0.3221
15527W        W90515  22.473  30.543  24.855 -0.1552 -0.2859 -0.4764
15528W        W90516  20.247   1.366  17.846  0.2861  0.0699 -0.1531
15529W        W90517   5.486  34.406   9.936  0.1245  0.1392 -0.3140
15530W        W90518   5.914  26.219   5.794 -0.1279  0.0536 -0.0850
15531W        W90519  26.173  21.370  10.005  0.2287 -0.1543 -0.1659
15532W        W90520  31.760  22.253  15.981 -0.0470  0.2310 -0.1335
15533W        W90521  12.720  34.578  10.021  0.1002 -0.1143  0.0888
15534W        W90522   1.401  24.082  19.983  0.0743 -0.0480 -0.0470
15535W        W90523  34.263  25.986  21.264 -0.2883  0.0958 -0.4421
15536W        W90524  25.473   1.591  20.684 -0.1012  0.0293  0.0541
15537W        W90525  31.514   8.775  17.399 -0.2678  0.1931  0.2034
15538W        W90526  20.803  28.143   0.249 -0.1144  0.0702  0.0951
15539W        W90527  18.670  18.857   0.141  0.3737  0.0928 -0.1878
15540W        W90528  17.546  24.106   2.402 -0.1246  0.0347  0.0953
15541W        W90529  27.307   5.967  22.787 -0.1870 -0.0378 -0.2835
15542W        W90530   4.869  32.878   2.692 -0.0208 -0.1522  0.2250
15543W        W90531   7.797  17.601  20.197 -0.1896 -0.2513 -0.2234
15544W        W90532  35.136   7.329  18.220  0.0151  0.1925  0.1979
15545W        W90533   6.191  11.156  19.450 -0.0305  0.5427 -0.3747
15546W        W90534  19.401   4.443  20.595  0.0463  0.2051  0.1351
15547W        W90535  24.520  30.507  24.004 -0.0245 -0.1211 -0.1323
15548W        W90536   4.202  27.182   1.960 -0.3160 -0.2157 -0.1403
15549W        W90537  17.288  26.472  23.622  0.0051  0.1337  0.3907
15550W        W90538  22.541  17.133  17.432 -0.0854  0.0400  0.1842
15551W        W90539  22.124  13.396   3.056  0.1160 -0.1624 -0.2461
15552W        W90540  11.687   3.179   8.865  0.0810  0.1997  0.2524
15553W        W90541  12.532  28.152  17.374  0.2840  0.0104 -0.4451
15554W        W90542  18.158  12.330   8.451  0.1000  0.1151  0.1141
15555W        W90543  24.836   0.599  18.363 -0.0558 -0.1576 -0.2968
15556W        W90544  19.730  13.418   5.721 -0.2198 -0.2349 -0.0595
15557W        W90545   7.672  12.796  23.448 -0.0536  0.0554  0.3945
15558W        W90546   9.925  34.675   1.259 -0.2602 -0.3259 -0.0328
15559W        W90547   3.339  12.882  22.474  0.1440  0.1309  0.2779
15560W        W90548  32.091   1.335  25.534 -0.1350 -0.1606  0.0627
15561W        W90549  29.973  16.533  18.972 -0.1429 -0.0249  0.0351
15562W        W90550  27.014  33.370  17.524  0.3091 -0.0747  0.4554
15563W        W90551  25.760  14.839  10.885  0.2728 -0.1622 -0.0651
15564W        W90552  16.305   6.637   5.445  0.0745  0.2458  0.0674
15565W        W90553  17.373  12.575   2.909  0.1868 -0.0806 -0.1461
15566W        W90554   3.603  24.623   1.153  0.1255 -0.1303 -0.0123
15567W        W90555  27.890  35.217  19.705  0.1696  0.1132 -0.0671
15568W        W90556  15.440  15.832   4.299  0.0341  0.2022  0.3352
15569W        W90557  14.493  18.228  10.529  0.0325  0.1447  0.1786
15570W        W90558   2.575  34.894   5.517 -0.0421  0.0137  0.0146
15571W        W90559  13.211  25.582  25.205 -0.2243 -0.2927 -0.2360
15572W        W90560   3.898  29.516  21.315  0.0558 -0.0219  0.0093
15573W        W90561   0.014   1.105   2.503 -0.0865  0.3037  0.0213
15574W        W90562  13.134   2.461   5.754 -0.0210  0.1392 -0.2044
15575W        W90563  25.987  28.333   3.655 -0.0125  0.0326  0.0318
15576W        W90564  31.195  31.794  12.605 -0.2026 -0.2983 -0.0006
15577W        W90565  27.090  10.731  13.360  0.0848  0.2833 -0.0623
15578W        W90566  11.452  34.667   0.253  0.0589  0.0990  0.0848
15579W        W90567   2.460   2.290  22.893 -0.2079 -0.0648  0.2153
15580W        W90568  28.703  14.865  11.265  0.3958  0.0949 -0.1606
15581W        W90569   0.479  31.765   7.720 -0.0770 -0.0949 -0.1749
15582W        W90570  12.820  32.679   8.147  0.2155  0.1976  0.1780
15583W        W90571   5.450   7.018  24.625  0.5193 -0.0424  0.0800
15584W        W90572  24.603  10.172  13.934 -0.1079  0.0634  0.2781
15585W        W90573  32.825  14.472  22.745  0.1241  0.0430  0.0172
15586W        W90574   9.950  25.768  21.839  0.0001 -0.1099  0.0815
15587W        W90575  27.339   9.631   0.200  0.1508  0.1102  0.1586
15588W        W90576   7.078  17.609   8.591  0.0578 -0.2711  0.1353
15589W        W90577  11.211  35.001   3.144  0.2203 -0.2926 -0.2496
15590W        W90578   4.329  13.305   4.838 -0.1611  0.0120 -0.2520
15591W        W90579   1.313  10.306  18.069 -0.2164  0.2179 -0.3158
15592W        W90580  11.606  33.554  23.681  0.0994  0.5461  0.3088
15593W        W90581   6.157  35.293  23.444  0.0613  0.0268 -0.3535
15594W        W90582  26.836  13.775   9.797  0.1402  0.0955 -0.2139
15595W        W90583  22.685  15.250  16.223 -0.3068 -0.1941 -0.0566
15596W        W90584   5.196  12.412  23.939 -0.0023 -0.2308 -0.0150
15597W        W90585  20.575   3.221   8.603  0.2316  0.0061 -0.0430
15598W        W90586  34.595  18.800  23.586  0.3026  0.2245  0.2131
15599W        W90587  14.102  28.251   6.170 -0.0636  0.0681 -0.0893
15600W        W90588   2.843   0.907   2.860 -0.1932 -0.1472 -0.0347
15601W        W90589   5.261  30.269  24.075 -0.2569  0.0132 -0.1568
15602W        W90590  17.067  20.812   9.876 -0.0049 -0.0197  0.2651
15603W        W90591   0.331   3.473  20.040  0.0705  0.1712 -0.2645
15604W        W90592  18.498  28.732  24.153  0.1880 -0.3364 -0.1927
15605W        W90593   9.078  26.498  10.324 -0.1906  0.0400  0.2983
15606W        W90594  23.366  33.075  24.000  0.2207  0.0822 -0.0974
15607W        W90595  25.323   3.530   4.800 -0.3293 -0.3154  0.1932
15608W        W90596  34.487   8.978  21.893  0.0417 -0.1807 -0.1299
15609W        W90597   0.658  21.255  10.891 -0.2558 -0.3600 -0.0283
15610W        W90598   6.181  12.452   4.910 -0.5484  0.1671  0.1074
15611W        W90599   5.059   6.368  20.039  0.0474 -0.1341  0.2201
15612W        W90600   3.694   2.382  21.638 -0.1932  0.4042 -0.2454
15613W        W90601  26.138  10.692  12.289 -0.0158  0.0013  0.3117
15614W        W90602   8.171  10.513   5.323 -0.1031 -0.2882  0.0988
15615W        W90603  11.410  34.833  24.990 -0.1146  0.2477 -0.0638
15616W        W90604  14.494  14.038   0.387  0.2051  0.1032  0.0099
15617W        W90605   3.437  13.455  24.942 -0.3105 -0.2968  0.0232
15618W        W90606  33.739  31.305  14.782 -0.0252  0.0320 -0.0050
15619W        W90607  35.326  17.052  11.045 -0.3189  0.2583  0.2251
15620W        W90608  16.181  15.669   3.328 -0.0676 -0.1832  0.0327
15621W        W90609  25.593  11.465  23.486  0.2090  0.0536 -0.2955
15622W        W90610  29.023  15.896  17.976 -0.1286 -0.1466 -0.1593
15623W        W90611  19.240  25.812   3.934  0.1095 -0.3231  0.0756
15624W        W90612  25.893  14.893  16.816  0.0655  0.0518 -0.2554
15625W        W90613  18.961  17.023   6.475  0.2676  0.2372  0.3025
15626W        W90614  28.838  22.503  12.180 -0.1104 -0.3745 -0.1924
15627W        W90615  17.303  14.315   5.180  0.0625 -0.3001 -0.0971
15628W        W90616  34.103   5.160  19.673 -0.1647  0.2892  0.1887
15629W        W90617  27.988   2.846   3.032  0.2997  0.2337 -0.2483
15630W        W90618  17.976   2.479  23.396 -0.0919  0.2033  0.0032
15631W        W90619  29.374  30.590  16.254 -0.2085 -0.0029  0.0072
15632W        W90620  14.434  14.453   5.191  0.3327 -0.1792  0.0647
15633W        W90621  32.722  12.194   9.610 -0.1735  0.0842  0.1227
15634W        W90622  16.370   9.611   2.393  0.0011  0.0854  0.0117
15635W        W90623   9.154  25.590  10.739 -0.0979 -0.0953 -0.2020
15636W        W90624   1.063  28.687  17.217  0.1454  0.1445  0.0193
15637W        W90625  26.381  19.720  25.003  0.0599 -0.1786 -0.1406
15638W        W90626  14.432   6.381  24.138 -0.2062  0.4080  0.0061
15639W        W90627   7.532  26.678  15.578  0.2263  0.1691 -0.1494
15640W        W90628  21.667   0.348  18.489 -0.2738  0.0904  0.0573
15641W        W90629  31.970  32.835  23.180  0.2743 -0.2479 -0.0499
15642W        W90630   2.829  24.172   0.922  0.4236 -0.0434  0.0635
15643W        W90631   8.817  19.935   4.926  0.6099  0.4731 -0.1072
15644W        W90632  15.906  11.669  22.508  0.0444  0.0136 -0.0961
15645W        W90633  28.562  16.720  26.009 -0.1900  0.1481 -0.0447
15646W        W90634  10.538  11.658  10.652  0.0139 -0.0985  0.0846
15647W        W90635  12.436  31.373   6.054  0.0110 -0.0325  0.2408
15648W        W90636   9.157  29.060  13.808 -0.0940  0.1486  0.0344
15649W        W90637  19.725   2.913  19.087 -0.0309  0.0628  0.4239
15650W        W90638  31.563   4.983  15.583 -0.2403 -0.1902 -0.0268
15651W        W90639  19.240  17.637   4.974  0.4343  0.0386 -0.3089
15652W        W90640   9.896  25.476   1.238  0.2467 -0.2353 -0.0079
15653W        W90641  28.122  25.027  13.090 -0.2322 -0.1943 -0.1801
15654W        W90642  33.874   8.459  22.956  0.0253 -0.1920  0.0262
15655W        W90643   0.447   2.759   3.166 -0.1096 -0.0911 -0.1484
15656W        W90644   6.515  24.161  12.605  0.0392 -0.0523  0.0428
15657W        W90645  24.983  32.044  22.950  0.1984  0.2766  0.1315
15658W        W90646   4.848   0.712   5.167  0.0715  0.0116 -0.1096
15659W        W90647  12.603   7.038  26.074  0.0811  0.0550  0.3130
15660W        W90648  14.053  24.008   5.707 -0.3965 -0.2340 -0.1754
15661W        W90649   2.410  26.897   7.738 -0.0859 -0.2044 -0.1488
15662W        W90650  15.315  34.500  22.059  0.1318 -0.1532 -0.2004
15663W        W90651   7.542  25.133   5.638  0.2264 -0.0180  0.4048
15664W        W90652  27.778  14.644  21.393 -0.0020 -0.2917  0.1040
15665W        W90653  11.440   3.545   8.618  0.0735  0.2303  0.0267
15666W        W90654  26.652  20.829  17.166 -0.0138  0.1862 -0.0024
15667W        W90655  21.023   6.992  19.049  0.0752  0.0778 -0.2456
15668W        W90656  26.001  15.048  20.500  0.2420  0.3068  0.0076
15669W        W90657  20.273  17.807   0.532  0.1689 -0.1667 -0.1096
15670W        W90658  29.220  29.664  18.018  0.2591  0.0149  0.0479
15671W        W90659  22.680  29.112  19.012 -0.1180  0.2607  0.0342
15672W        W90660   4.611  25.297   2.083  0.1925  0.0667 -0.3712
15673W        W90661  13.293   2.596  10.849 -0.1025  0.2863 -0.0224
15674W        W90662  34.850  11.642   0.879 -0.2482 -0.1951 -0.0186
15675W        W90663  31.470   7.223   9.623  0.2594  0.0580  0.0638
15676W        W90664  32.754   4.532  26.075 -0.1922 -0.0004  0.0808
15677W        W90665  33.485  19.552  23.760 -0.0101  0.0911  0.0497
15678W        W90666  13.365  13.909   9.146 -0.0844 -0.2076  0.2066
15679W        W90667   4.324  32.875  21.578 -0.2502  0.1534  0.0072
15680W        W90668   3.468  17.337  21.043  0.3077  0.2438  0.4672
15681W        W90669   8.777   3.793  11.609  0.1569  0.0363 -0.0429
15682W        W90670   0.030  12.181  15.063  0.0559  0.1787  0.0356
15683W        W90671   2.322   7.084   0.854  0.1449  0.0878 -0.0402
15684W        W90672   8.014  18.282  25.205 -0.1660  0.1157 -0.0700
15685W        W90673  31.437  31.012  13.971  0.0814 -0.3804  0.3400
15686W        W90674  14.214  22.836   3.439 -0.1073 -0.2455  0.0686
15687W        W90675  29.861  23.345  12.650 -0.2085  0.0468 -0.1020
15688W        W90676  13.323  22.585  12.602 -0.0380  0.2839 -0.3409
15689W        W90677  14.995  14.147  20.406  0.0216 -0.3506  0.2323
15690W        W90678  32.456  31.611   0.109 -0.0544  0.0484  0.3248
15691W        W90679   0.895  29.744  16.773  0.2890 -0.3887 -0.2768
15692W        W90680   6.127  32.198  24.316 -0.0290  0.0688  0.2833
15693W        W90681  33.276  34.481   7.360 -0.1604 -0.2599  0.1924
15694W        W90682  20.858  21.263  23.130  0.1348 -0.2952 -0.3194
15695W        W90683   2.002  11.278  15.656  0.0148  0.3084 -0.0874
15696W        W90684  17.124  20.794   9.300 -0.1107 -0.1757  0.0233
15697W        W90685  20.792   1.513  24.316  0.3079  0.2018 -0.1408
15698W        W90686  15.430  25.875   8.909 -0.1109  0.1270  0.2284
15699W        W90687  32.921  27.297  16.085  0.1232 -0.0513  0.0430
15700W        W90688  32.212  17.499  20.267 -0.0876  0.0994 -0.0910
15701W        W90689   0.307  25.212  15.445  0.1712  0.1115  0.1771
15702W        W90690   3.461   8.526  16.872  0.2244 -0.1750  0.1604
15703W        W90691  13.931  30.936  10.940  0.0083  0.2497  0.2042
15704W        W90692   5.093   4.242   5.004 -0.2108  0.2446  0.0934
15705W        W90693  22.601  22.655  13.033 -0.0173 -0.1872 -0.2465
15706W        W90694  29.012  34.711  24.546 -0.2231  0.1832 -0.1601
15707W        W90695  10.020  19.225  11.804  0.2381  0.0859  0.3122
15708W        W90696   9.090   1.393   6.706  0.2741  0.0638  0.1822
15709W        W90697  21.232   1.762  17.419 -0.1886 -0.4056  0.0866
15710W        W90698  32.564  10.802  11.479  0.1997  0.0480  0.0132
15711W        W90699  25.305  10.236  13.222  0.1740  0.5062  0.0471
15712W        W90700  20.730   1.309  19.901  0.3904  0.0783  0.1080
15713W        W90701  12.450  16.196   7.896  0.2421 -0.0187  0.1130
15714W        W90702  11.806  25.644  12.392 -0.3176 -0.1528 -0.5011
15715W        W90703  13.470   1.250  22.129  0.0075  0.1331 -0.1082
15716W        W90704  25.924  18.655  14.628  0.3022  0.1930  0.1505
15717W        W90705  22.991  15.372  15.591 -0.0278 -0.0241  0.1708
15718W        W90706  11.789  17.311  20.730  0.0793  0.2532  0.4438
15719W        W90707  19.748  25.633  17.622  0.0506  0.1922  0.0462
15720W        W90708   2.338  14.181  21.369  0.1925  0.2176  0.1148
15721W        W90709  25.122  23.091  24.524 -0.0932 -0.2238 -0.0828
15722W        W90710  11.361  33.968  21.238  0.0291  0.1160 -0.0247
15723W        W90711  12.236  16.907   0.223 -0.0916  0.0302  0.3323
15724W        W90712  32.807  28.745   1.086  0.1622  0.0874 -0.0954
15725W        W90713   0.732   9.139  20.048 -0.1330  0.2760  0.2521
15726W        W90714   0.181  21.589  22.143  0.0684 -0.2101 -0.1259
15727W        W90715  26.460  13.861  22.482  0.2290 -0.1848  0.0056
15728W        W90716   2.077   7.469  25.485 -0.1538 -0.3778 -0.1620
15729W        W90717  29.065  20.572  18.789 -0.1258 -0.3363  0.0837
15730W        W90718  35.246  35.229   5.035  0.1716 -0.2872 -0.2827
15731W        W90719   0.411   5.579  15.268  0.0816  0.0779 -0.0302
15732W        W90720   0.864  14.703  17.725 -0.1727 -0.1226 -0.0234
15733W        W90721   3.750   4.309   9.603 -0.2063  0.1670 -0.1703
15734W        W90722  15.725  22.805  15.231 -0.2453 -0.0450 -0.0439
15735W        W90723   3.472  30.462  24.349  0.1512  0.1514  0.4054
15736W        W90724   8.408   5.375  12.122  0.1298  0.1108 -0.3668
15737W        W90725  11.338   7.947  21.152  0.1733  0.0436  0.1227
15738W        W90726  31.547  15.071  11.670 -0.1324  0.0432 -0.0862
15739W        W90727  27.792  14.637  14.877  0.1541  0.0258  0.0254
15740W        W90728  29.410  14.054  12.061 -0.4357 -0.0859  0.0831
15741W        W90729  25.394  10.538  20.283 -0.1663  0.0784  0.0917
15742W        W90730  10.106  17.213  21.718 -0.0084  0.3091 -0.0710
15743W        W90731  13.572  23.113   3.569 -0.1081  0.1557  0.0319
15744W        W90732  29.650  20.332  11.986  0.0379  0.0068  0.1038
15745W        W90733  19.633  32.815  18.653 -0.1401  0.1870  0.1953
15746W        W90734   2.144  14.447   3.272  0.2252  0.1432  0.3142
15747W        W90735   3.596  22.480   1.269 -0.1323  0.1262 -0.2844
15748W        W90736   5.836  20.164   4.991 -0.0530 -0.2722 -0.0253
15749W        W90737   1.822  15.107   1.736  0.1735 -0.1027  0.0260
15750W        W90738   9.448   5.234   1.449  0.2334  0.0010  0.2009
15751W        W90739  17.704   0.828  23.934 -0.3409  0.0673 -0.0781
15752W        W90740   9.894  34.336  11.846  0.0429 -0.0664  0.1187
15753W        W90741  15.552   0.304   3.498 -0.0985  0.2652 -0.1971
15754W        W90742  35.173   4.967   1.064 -0.1822 -0.3454  0.0907
15755W        W90743   5.490   5.106   1.754 -0.0354 -0.0183 -0.0122
15756W        W90744  15.717  33.985  25.726 -0.0492  0.2114 -0.1148
15757W        W90745   4.870   4.954  22.166  0.0608 -0.0894 -0.2610
15758W        W90746  14.395   5.560  25.722  0.1346 -0.1956 -0.1874
15759W        W90747   7.842  22.242   6.671  0.1307  0.0280  0.1023
15760W        W90748   7.770  16.371  12.577 -0.0785 -0.2719 -0.2106
15761W        W90749  25.039  27.966  11.349  0.1984 -0.3093  0.2127
15762W        W90750   2.470  28.344   4.407  0.1345 -0.2006  0.2320
15763W        W90751  18.452  15.232   4.963 -0.0477  0.2780 -0.1915
15764W        W90752   6.326   5.070   2.554 -0.1831 -0.2632 -0.0668
15765W        W90753  20.301  23.982  24.339  0.0034 -0.1835  0.0002
15766W        W90754  33.439  24.710  26.136 -0.0512 -0.4230 -0.1202
15767W        W90755  26.517  16.787   7.121  0.0833 -0.1937 -0.1749
15768W        W90756  18.167   9.205  24.407  0.1615  0.0007  0.1149
15769W        W90757  13.074   5.707   9.747  0.6526  0.0480  0.2866
15770W        W90758   7.482  21.801  11.405  0.1856  0.0544  0.0746
15771W        W90759   5.240  28.263   8.412 -0.0613 -0.3074 -0.1676
15772W        W90760   1.653  16.203  22.624  0.0266  0.0889 -0.0793
15773W        W90761  32.087  16.062  14.831  0.2031 -0.2418  0.0072
15774W        W90762   5.908   4.761   9.010 -0.0230 -0.2838 -0.0006
15775W        W90763  13.525  15.784   4.459  0.0927 -0.2166 -0.5552
15776W        W90764  26.649  20.995  20.277 -0.2464 -0.0526  0.1304
15777W        W90765  11.624  34.485   4.466 -0.2970  0.1178  0.1420
15778W        W90766  13.696  20.595  12.392 -0.3247  0.0307  0.3473
15779W        W90767  23.538  20.952  24.960 -0.0699 -0.1929 -0.0537
15780W        W90768  18.657  28.462   3.947  0.0767  0.0154  0.1057
15781W        W90769  29.120  20.137   7.838 -0.2038  0.0433 -0.1775
15782W        W90770   6.726  33.234   4.770  0.0147 -0.3502 -0.0076
15783W        W90771   0.057   3.041  16.533 -0.1996 -0.1670 -0.0721
15784W        W90772  22.083   6.998   8.671 -0.0056  0.2979  0.1515
15785W        W90773  18.453  32.538   4.574 -0.1028  0.0322 -0.0988
15786W        W90774  10.005  18.026  20.937  0.1271 -0.1001  0.1058
15787W        W90775  16.003   5.337  22.762 -0.3224 -0.0703  0.1484
15788W        W90776  21.911  31.869  13.859 -0.2634 -0.2650  0.3610
15789W        W90777  24.593  10.046  20.225  0.0826  0.0634 -0.2762
15790W        W90778  27.332   4.820  23.347  0.2418  0.0109  0.1627
15791W        W90779   7.695  31.353   0.906  0.0835 -0.2112 -0.1147
15792W        W90780  31.484  26.621  15.407 -0.1010 -0.1076 -0.1585
15793W        W90781   5.951  29.358   1.205 -0.0620  0.1517  0.2412
15794W        W90782  31.759  17.966  26.235 -0.2472  0.0166  0.1972
15795W        W90783  18.728   2.378  16.487 -0.1284  0.0412  0.1567
15796W        W90784   2.946   0.174  22.889 -0.0355 -0.1056  0.0435
15797W        W90785   8.797   3.421  25.006  0.0510  0.1187 -0.1693
15798W        W90786  30.473  28.240  10.762 -0.1335 -0.0202 -0.2524
15799W        W90787  11.463   4.560   3.792 -0.2243 -0.2077 -0.0347
15800W        W90788  34.587   1.031   6.656 -0.3815  0.1168 -0.0974
15801W        W90789  17.352  32.973  25.975  0.2431 -0.3233 -0.3191
15802W        W90790   1.081  10.084  23.577  0.0814 -0.1276  0.2683
15803W        W90791  22.267   7.059  17.510  0.1229 -0.0903  0.1837
15804W        W90792  33.620  13.156  16.781  0.2906  0.2704 -0.1050
15805W        W90793  34.392  30.169   1.609  0.0514 -0.0249 -0.0331
15806W        W90794  12.065  25.451   8.915  0.1330  0.1858 -0.2182
15807W        W90795  32.744   1.089  24.903  0.1371  0.1352 -0.1397
15808W        W90796   9.149  24.155   5.292 -0.0631 -0.1601 -0.0901
15809W        W90797  10.039  14.070  24.133  0.2320  0.0470  0.2078
15810W        W90798  23.466   6.037   4.981 -0.1337  0.1467 -0.1718
15811W        W90799   1.282   0.083  23.479  0.2440  0.2182  0.0845
15812W        W90800  16.510   4.700  19.008  0.0927  0.3446 -0.1250
15813W        W90801  23.183  32.412   5.583 -0.2525  0.1367  0.3627
15814W        W90802  16.754  30.956  21.414  0.0733 -0.1327  0.0615
15815W        W90803  33.115   5.171  19.304  0.0902 -0.0219 -0.0112
15816W        W90804   7.251   7.945   7.031 -0.0739  0.2145 -0.2239
15817W        W90805   8.429   2.715   2.944 -0.0187  0.1627 -0.0217
15818W        W90806   9.606  21.084   8.884 -0.0774  0.2150 -0.1098
15819W        W90807  11.979   1.108  26.222 -0.0720 -0.1186  0.1894
15820W        W90808  15.559  23.872   1.598  0.0143  0.1780  0.0087
15821W        W90809  24.051  23.783   1.456 -0.2130  0.2707  0.0243
15822W        W90810   0.074   1.261  21.566  0.2741  0.2801 -0.3386
15823W        W90811  24.631   4.959   4.707 -0.3992  0.1397  0.1609
15824W        W90812  11.879  23.957   8.977  0.2491 -0.1336 -0.0328
15825W        W90813   9.127  33.748  10.897  0.2010 -0.1833 -0.0552
15826W        W90814   2.044  25.882  20.825 -0.3777  0.1613  0.0237
15827W        W90815  33.014   4.780  20.744 -0.1415 -0.4164 -0.1152
15828W        W90816  18.188  25.313   8.842  0.0444  0.2474  0.3770
15829W        W90817  34.629   5.660   4.853  0.0797  0.1308  0.0119
15830W        W90818  17.924   1.151   4.551 -0.0044 -0.2093 -0.2487
15831W        W90819  29.420   3.534   5.792 -0.1816  0.2198 -0.0284
15832W        W90820   9.565   1.579   9.758 -0.0811  0.1444  0.0534
15833W        W90821  19.232  12.965   2.872 -0.1517  0.1853 -0.1083
15834W        W90822  14.958   9.458  23.423 -0.2474 -0.3573 -0.1526
15835W        W90823  25.750  12.330  26.002 -0.0434 -0.2806 -0.1094
15836W        W90824   3.131  20.692  18.021  0.2181 -0.0612  0.0525
15837W        W90825  28.188   6.817  14.636  0.0097  0.2834 -0.0375
15838W        W90826   4.692   6.970   4.830 -0.0367 -0.1000  0.2919
15839W        W90827  26.684  21.795  17.040  0.1923 -0.1076 -0.0801
15840W        W90828   3.144  10.019  26.101  0.3222 -0.0053 -0.2439
15841W        W90829  10.841  11.695  11.995  0.0702 -0.1205  0.0260
15842W        W90830   3.412   1.936   3.946 -0.0976  0.2889 -0.0852
15843W        W90831  32.243   5.025  23.448  0.1053  0.0730 -0.0265
15844W        W90832  26.279  34.716  18.104  0.2473 -0.0697 -0.4095
15845W        W90833  23.954   5.146   1.785  0.1399  0.1050  0.2297
15846W        W90834  23.072  30.719   4.744 -0.1579 -0.2684 -0.2436
15847W        W90835  11.107  32.121  22.372  0.0947 -0.1841 -0.1071
15848W        W90836  12.200  33.695  15.870 -0.0648 -0.0409 -0.2541
15849W        W90837  12.034   9.563  21.526 -0.1769  0.1703  0.0939
15850W        W90838  33.547  29.407  16.734  0.0234  0.1928  0.1910
15851W        W90839   2.572  30.144  11.989 -0.3429  0.2394  0.0786
15852W        W90840  24.246   6.984   2.014  0.3597 -0.0686  0.1157
15853W        W90841  27.400   6.731  24.185 -0.3851 -0.1681 -0.1607
15854W        W90842  21.987  23.885   1.150 -0.0208 -0.1121 -0.2770
15855W        W90843  26.638  27.537   0.333  0.1521 -0.0213 -0.4942
15856W        W90844  26.215  12.693  21.549 -0.1531  0.0931  0.0936
15857W        W90845  17.475  22.911  22.100  0.0812 -0.0889 -0.1201
15858W        W90846  19.944  29.535  22.800  0.0388 -0.1996  0.1031
15859W        W90847  25.408  20.069  21.349 -0.2454  0.0319 -0.1221
15860W        W90848  12.401  33.238   1.349  0.0071 -0.1617  0.4027
15861W        W90849  15.679   8.355   7.058 -0.2786 -0.0029 -0.2899
15862W        W90850   7.657   0.529  20.507  0.2338  0.1818  0.1486
15863W        W90851  16.379  24.461   1.510  0.1480  0.0953 -0.1899
15864W        W90852   8.735  19.518   9.782 -0.1516  0.1420  0.4721
15865W        W90853  21.095  14.733  23.059  0.3726 -0.0694 -0.1791
15866W        W90854  15.347   9.478  10.458  0.1960  0.0590 -0.0941
15867W        W90855   1.938  34.267   4.939 -0.0163 -0.1125  0.1353
15868W        W90856  21.573  23.007  21.108 -0.1229  0.3582  0.0012
15869W        W90857   2.841  18.352  22.561  0.0097  0.2580 -0.0492
15870W        W90858  24.345  34.704  13.799  0.0441  0.1248 -0.1523
15871W        W90859  27.093  34.907   3.009 -0.1707  0.2478 -0.0303
15872W        W90860   6.056   9.491   4.086 -0.0341  0.1067  0.3152
15873W        W90861  27.787  18.845  23.475  0.1302  0.0344  0.1023
15874W        W90862  21.865  29.815   2.337  0.2277  0.0335 -0.0256
15875W        W90863   4.917  31.671   8.118 -0.1354 -0.1524  0.0682
15876W        W90864   5.912   7.020  17.794 -0.0321  0.0444  0.1244
15877W        W90865  16.621  19.377   7.452  0.1038 -0.0463  0.2177
15878W        W90866  14.466  18.657   5.480 -0.2809  0.1184  0.1742
15879W        W90867  30.115  35.107   6.151  0.0648  0.0516  0.3195
15880W        W90868  11.766  14.682  19.658  0.1471 -0.1376 -0.1399
15881W        W90869  18.812  31.311  25.048 -0.1438  0.0571 -0.1273
15882W        W90870  25.139  34.983  12.859  0.0834  0.2881 -0.0442
15883W        W90871   6.972  29.692   3.038  0.2435 -0.0723 -0.3200
15884W        W90872  28.361  31.989  20.586 -0.1527  0.3980 -0.0269
15885W        W90873  22.086  25.899  24.780 -0.0548 -0.0204  0.1488
15886W        W90874   2.664  15.859   2.352  0.1535  0.1028  0.1576
15887W        W90875  10.889  29.683  13.913  0.0129  0.1107 -0.1707
15888W        W90876   2.423  25.998   6.325  0.0333  0.3445 -0.0961
15889W        W90877  10.409   1.838  23.103  0.0310  0.0510 -0.2624
15890W        W90878  20.609  12.224   9.507 -0.1069 -0.3152  0.0008
15891W        W90879  26.969  21.415  22.963  0.2671  0.2693  0.0887
15892W        W90880   9.059  13.011   9.996 -0.0551 -0.2437  0.0615
15893W        W90881   0.765  28.975  18.833  0.0072  0.0188  0.1984
15894W        W90882  23.855   7.701  23.899 -0.1443 -0.1844 -0.0774
15895W        W90883   6.412  12.048  24.800 -0.1030  0.1338  0.0474
15896W        W90884  14.220  35.302   0.331  0.0394 -0.0926  0.1078
15897W        W90885   6.330  22.938  10.582 -0.0509 -0.1052  0.1168
15898W        W90886   3.031  28.467   8.187  0.3508  0.2304 -0.3553
15899W        W90887  10.222   1.291  13.445 -0.2218  0.1058 -0.0949
15900W        W90888  14.083  13.564  19.925  0.3414  0.1285 -0.0877
15901W        W90889  20.390  34.828   7.470  0.2121  0.0922  0.1104
15902W        W90890   7.366   8.249   0.985 -0.0037 -0.0343  0.0374
15903W        W90891  26.497  31.901   5.264 -0.0702  0.0013 -0.1860
15904W        W90892  11.245  27.165   0.157  0.0643  0.1834  0.1324
15905W        W90893  22.991  23.901  15.429 -0.2558 -0.0701  0.1169
15906W        W90894  24.870  27.947  17.899  0.0430 -0.0496  0.0226
15907W        W90895  13.057  28.291   2.678 -0.1677 -0.1959  0.0113
15908W        W90896  33.303   9.292   1.527  0.2101 -0.1483 -0.2211
15909W        W90897  11.728  34.594  20.733  0.2322 -0.1203  0.0486
15910W        W90898  27.043   8.130   9.259  0.4651 -0.1650 -0.1588
15911W        W90899   9.611  22.270  22.717 -0.3669 -0.0744 -0.0375
15912W        W90900   3.831  13.716  24.613  0.0468  0.1371  0.1346
15913W        W90901  33.914   7.223  18.891 -0.2930 -0.1118 -0.2000
15914W        W90902  28.614   4.145  11.240 -0.0986  0.2854  0.0642
15915W        W90903  16.435   8.584  18.438 -0.0991 -0.1564  0.1202
15916W        W90904   8.364  11.558   7.405 -0.3394  0.1564  0.1745
15917W        W90905  32.223  21.620  12.845  0.1130 -0.2140  0.1655
15918W        W90906  26.871  24.282  12.771  0.0436 -0.0050 -0.2051
15919W        W90907  24.746   7.681  19.407 -0.0990 -0.1133 -0.1183
15920W        W90908  13.814  14.861  13.634  0.0574  0.1953  0.2260
15921W        W90909   1.319  25.847   3.686  0.1571  0.0182 -0.1634
15922W        W90910  30.044   1.392   6.707  0.0579 -0.2643  0.2346
15923W        W90911  12.350  16.254  25.760 -0.1298  0.1485 -0.0837
15924W        W90912  17.624   5.959   3.595 -0.0848  0.3742  0.0730
15925W        W90913  12.577   7.023  22.596  0.3221  0.0202 -0.2001
15926W        W90914  15.853   5.353  19.967  0.0239  0.0636 -0.0802
15927W        W90915  29.562  26.622  20.508 -0.0334 -0.1455 -0.1244
15928W        W90916  22.172  22.555   3.383  0.0013 -0.0161  0.1552
15929W        W90917  19.095  34.847   6.983  0.0265 -0.0099  0.3291
15930W        W90918  14.333   6.175  11.580  0.3095 -0.2944 -0.1594
15931W        W90919   8.199  21.865   8.461 -0.0606  0.1763 -0.0772
15932W        W90920  34.080  10.146  19.542  0.0574  0.1255 -0.2493
15933W        W90921   0.546  14.580  22.965 -0.1001 -0.2410  0.1584
15934W        W90922  11.431  24.834   7.083 -0.1857  0.1777 -0.3112
15935W        W90923  12.304  10.550   8.027  0.1442 -0.1120  0.0751
15936W        W90924  12.125  30.003   0.747 -0.0699  0.0615  0.3234
15937W        W90925   1.453  21.752  22.484 -0.2323  0.0736 -0.0831
15938W        W90926  14.533  34.582  24.081  0.3336 -0.3690  0.0475
15939W        W90927  23.651  33.871  17.323  0.1030  0.0814  0.0518
15940W        W90928  24.857  30.811  17.050  0.0240  0.0925  0.1936
15941W        W90929  20.301  24.045   7.281 -0.3505  0.0971  0.1709
15942W        W90930  14.305  28.002   3.861 -0.1517  0.1621  0.1654
15943W        W90931  17.275  31.500  20.252  0.0922 -0.1720  0.0121
15944W        W90932  31.998  15.343  23.787  0.2681 -0.3128  0.0815
15945W        W90933  12.309   9.445   5.496  0.0494 -0.1574  0.2044
15946W        W90934   6.551   0.550  21.137  0.2062  0.0238 -0.1062
15947W        W90935  20.799  27.795   3.847 -0.1433  0.2645  0.0457
15948W        W90936  29.316  13.388  10.637 -0.0068  0.0127 -0.0236
15949W        W90937  12.127  26.282   9.273 -0.1027 -0.0721  0.2358
15950W        W90938  17.170  25.300  12.611 -0.1408  0.0253 -0.2333
15951W        W90939  28.891   6.536  24.044 -0.0754 -0.0570  0.2435
15952W        W90940   9.535  11.152  23.713  0.0138  0.1921 -0.0903
15953W        W90941  24.114  28.625   1.328  0.1729 -0.3527 -0.0212
15954W        W90942   9.655  27.856  21.974 -0.4880 -0.1498  0.1374
15955W        W90943  12.699  16.779   1.010 -0.1886  0.1165  0.0214
15956W        W90944  34.112   6.573  14.466  0.1107 -0.1796 -0.1360
15957W        W90945  21.554  34.349   0.996  0.2303  0.2212 -0.0495
15958W        W90946  30.950  13.581  23.968  0.1377 -0.1027  0.2896
15959W        W90947   1.079  24.229   1.953 -0.0673  0.0551  0.1475
15960W        W90948  33.939  11.955  15.872 -0.1831  0.1584  0.2074
15961W        W90949  11.902  16.169  25.964  0.0930 -0.0157 -0.1641
15962W        W90950  34.935  20.516   8.432 -0.0368 -0.2544  0.0929
15963W        W90951   6.660  20.810   2.306  0.0327 -0.3067  0.1399
15964W        W90952   4.157   2.482   4.765  0.2039 -0.2328 -0.0549
15965W        W90953  27.310   5.326  14.939 -0.0520 -0.0002  0.1287
15966W        W90954   6.799  11.568   2.993  0.1176 -0.1090 -0.0394
15967W        W90955  15.864   7.111  12.089  0.0294 -0.2076 -0.1010
15968W        W90956  10.463  14.340   1.688 -0.0308  0.0383  0.1354
15969W        W90957   1.537  25.378   3.554  0.2135 -0.0977  0.3877
15970W        W90958   4.269  25.312  22.741  0.1891  0.1028 -0.0524
15971W        W90959  21.850   8.610  24.435  0.1071 -0.1472 -0.3068
15972W        W90960  27.207  32.297  23.331  0.0402  0.1596  0.0119
15973W        W90961   3.278  25.406  19.935 -0.1675  0.2372  0.0384
15974W        W90962  16.015   6.224   5.281  0.1435 -0.1051 -0.2682
15975W        W90963  22.466   4.085  18.528  0.0317 -0.1059  0.3643
15976W        W90964  23.794  26.341  15.521  0.0316  0.1815  0.0227
15977W        W90965  14.673   6.510   8.721 -0.0857  0.3169  0.2093
15978W        W90966  31.239  25.726  19.210 -0.0859  0.0424 -0.1105
15979W        W90967   5.941  17.050   3.365 -0.4256  0.0412  0.0839
15980W        W90968  10.357  22.080  13.691  0.1234 -0.0746 -0.0503
15981W        W90969  12.131  13.575   1.767 -0.3395 -0.0218  0.1322
15982W        W90970   9.375  20.989   3.878  0.0782  0.0407  0.0178
15983W        W90971   3.165   1.390  10.477  0.0070  0.1248 -0.1013
15984W        W90972  13.104  29.100  11.749  0.1661 -0.3131  0.1459
15985W        W90973   6.766   3.962  20.991 -0.2120 -0.0698  0.1268
15986W        W90974  11.334  10.278   9.217 -0.1240 -0.1906  0.2857
15987W        W90975   8.407  19.753   5.328 -0.2412 -0.0221  0.1868
15988W        W90976  28.105   5.022  17.526  0.1231 -0.3128 -0.0411
15989W        W90977  33.640  25.823  14.728  0.0920  0.0552  0.1889
15990W        W90978   1.320   8.332   3.703 -0.0234 -0.0482  0.0882
15991W        W90979  16.278   6.166   6.290 -0.1388 -0.0383 -0.1085
15992W        W90980  34.291  21.537  14.424 -0.0080 -0.2450  0.1847
15993W        W90981   7.133  13.287  10.263 -0.0533 -0.0693  0.0029
15994W        W90982  20.902   1.657   0.158  0.3698 -0.1400  0.0191
15995W        W90983  11.267  15.084  23.584 -0.0643 -0.2356 -0.0626
15996W        W90984   8.314  17.463  20.166 -0.0609  0.2108 -0.1538
15997W        W90985  28.593  24.412   9.873  0.1418 -0.2064  0.3020
15998W        W90986   4.403  15.661  23.639  0.0587 -0.1143  0.0450
15999W        W90987   5.106  23.151  21.470 -0.0115  0.0356  0.1617
16000W        W90988  18.002  23.482   0.288 -0.1049 -0.0488 -0.0315
16001W        W90989  18.195  16.180   8.150 -0.2519  0.1929  0.1366
16002W        W90990  27.043   7.385   2.492 -0.0003 -0.1165  0.1593
16003W        W90991   6.801  23.575   9.507  0.0671  0.2662  0.0157
16004W        W90992  32.342  28.315  15.186  0.0462  0.2256  0.1231
16005W        W90993   6.022  31.344   7.467  0.0944 -0.0371 -0.4664
16006W        W90994  22.744   1.912  17.528 -0.0308  0.1886  0.0153
16007W        W90995  35.092  33.022   2.208 -0.1194  0.0267 -0.2017
16008W        W90996  14.400  33.593   7.004 -0.1356 -0.0458  0.3399
16009W        W90997  31.747  35.072   4.487 -0.0268 -0.5526 -0.0499
16010W        W90998  21.787   3.750  24.330  0.1656  0.0159  0.2630
16011W        W90999  20.444   6.533   4.114  0.1205 -0.2476  0.1150
16012W        W91000  26.858   1.574   3.707 -0.0096  0.2451 -0.1353
16013W        W91001  27.224  17.265   6.122 -0.0686 -0.0192 -0.3078
16014W        W91002  15.557  17.274  19.141 -0.0467  0.0205  0.0397
16015W        W91003  14.500   4.846   0.937  0.1008 -0.1706 -0.3410
16016W        W91004  29.227  33.932  12.209  0.3193  0.0613  0.3186
16017W        W91005  23.719  15.438  15.026 -0.0030 -0.0123  0.2440
16018W        W91006  19.606  15.546   6.675  0.2381 -0.0248  0.2728
16019W        W91007   8.071  14.150  12.329 -0.0737 -0.0494  0.1598
16020W        W91008  28.655  35.161  17.824 -0.3972  0.2183  0.1364
16021W        W91009   4.169  34.183   2.386  0.1141  0.0841 -0.0215
16022W        W91010  23.733  13.710  19.468  0.0809  0.2614  0.0801
16023W        W91011   8.803   6.289  14.603 -0.0275 -0.1015  0.2030
16024W        W91012  28.061  18.389  17.120  0.0958  0.0548 -0.2363
16025W        W91013  27.724   0.051  17.930  0.2441 -0.4078  0.1083
16026W        W91014  33.247  14.006  10.696  0.0877  0.1010 -0.1962
16027W        W91015  20.037  15.011   5.464  0.0502  0.0560  0.1795
16028W        W91016  33.077   3.619   6.587 -0.0653  0.0129  0.0662
16029W        W91017   3.057   4.972   8.150 -0.1741 -0.0178 -0.1324
16030W        W91018  29.051  25.967  15.110  0.0560 -0.0240  0.0460
16031W        W91019   1.957  24.816  24.097 -0.0388 -0.2022  0.0979
16032W        W91020  14.783  10.978   5.118 -0.0818  0.1301  0.1127
16033W        W91021  10.183  18.649   8.709 -0.0284  0.3277 -0.1471
16034W        W91022  28.073  34.062   5.757  0.0494  0.2902  0.1259
16035W        W91023   6.856  31.339  10.642  0.1763  0.0123  0.1550
16036W        W91024  22.670  33.175  17.761  0.2302  0.0459 -0.1719
16037W        W91025  31.036   4.614  16.290 -0.1372 -0.0227  0.0458
16038W        W91026  26.387   6.878  11.553  0.3904  0.0950 -0.2128
16039W        W91027   3.596   6.660   2.663 -0.0427  0.1046  0.0846
16040W        W91028   0.310   2.118   1.372 -0.2731  0.1395 -0.2026
16041W        W91029  23.401   8.386   5.014 -0.0646  0.4002  0.3469
16042W        W91030   8.909   8.995  19.018  0.5029 -0.3917 -0.0232
16043W        W91031  11.706  16.377  10.326 -0.1669  0.1613 -0.1730
16044W        W91032  15.367   7.757   1.420  0.1169  0.0716 -0.0728
16045W        W91033  12.096  31.914  14.132 -0.1342 -0.0844 -0.1882
16046W        W91034  11.291  14.397   1.512 -0.1758  0.3730  0.0304
16047W        W91035  23.980  29.674  12.806  0.0915 -0.2394 -0.0065
16048W        W91036  21.814  23.125  22.769 -0.0979 -0.0645 -0.0364
16049W        W91037  17.183   7.634   5.165 -0.3190 -0.0619 -0.1839
16050W        W91038  15.524  29.473   1.106  0.1004  0.0861 -0.1946
16051W        W91039  10.241  14.830  10.625  0.0161  0.1962  0.0187
16052W        W91040   9.232  21.484  23.567 -0.2182 -0.0756 -0.0279
16053W        W91041   7.240  23.224  10.891  0.2278  0.1140  0.1798
16054W        W91042  21.659  26.264   2.019  0.1518  0.0844 -0.0845
16055W        W91043  16.451  16.255   2.811 -0.2175 -0.1009 -0.1216
16056W        W91044   7.683  26.702  13.978 -0.0208 -0.1392 -0.1560
16057W        W91045  34.486   3.290  12.409  0.0791  0.0555  0.0711
16058W        W91046  30.495  10.300  12.272 -0.3183  0.3188  0.0205
16059W        W91047   3.685  27.358   6.649 -0.1711 -0.2013  0.0852
16060W        W91048  29.282   9.652   8.902  0.1934  0.0743  0.2171
16061W        W91049   5.603   1.787   3.379 -0.1763  0.2292  0.3651
16062W        W91050   7.834  13.440  22.067 -0.0904 -0.0980 -0.0984
16063W        W91051  10.579  10.316   6.352 -0.1464  0.0449  0.1614
16064W        W91052   9.677  13.276  19.498 -0.1795  0.1040 -0.0686
16065W        W91053   3.715  31.890  23.308 -0.1819  0.1239  0.2670
16066W        W91054  12.605  21.102  12.223  0.1084 -0.3568 -0.2203
16067W        W91055   4.559  33.019   1.144 -0.0394  0.1639  0.0003
16068W        W91056  12.764  30.446   3.263  0.1378 -0.1187 -0.2161
16069W        W91057   9.962  24.622  25.217 -0.1826 -0.1331 -0.0380
16070W        W91058  30.656  18.781  14.064  0.3169 -0.0040 -0.1682
16071W        W91059  16.915  10.772  10.668 -0.1325 -0.2731  0.1936
16072W        W91060   8.999  15.036  18.696  0.0423  0.3326 -0.0081
16073W        W91061  17.370   4.734   7.912  0.0532 -0.1110 -0.0881
16074W        W91062   7.951   8.270   0.971  0.3756  0.1587  0.2392
16075W        W91063  24.936   7.662  25.908  0.2740 -0.1354  0.4818
16076W        W91064  15.860   7.058  21.830 -0.2493 -0.0490 -0.1679
16077W        W91065  12.050  13.255   2.206 -0.1039  0.0644  0.1099
16078W        W91066  27.485   4.550   2.709 -0.1937  0.0445 -0.0098
16079W        W91067  10.747  24.484  11.359 -0.1177  0.0174  0.2929
16080W        W91068   0.325  14.764  12.292  0.2076 -0.0901 -0.2162
16081W        W91069  34.428  25.703   2.836  0.2240 -0.0130 -0.2983
16082W        W91070   9.077  13.205   2.443 -0.2329  0.0703  0.2195
16083W        W91071  18.517  12.506   5.640 -0.2073  0.0153  0.0365
16084W        W91072  24.121  31.437  14.343 -0.3853  0.3131  0.0213
16085W        W91073  14.003   9.464  25.569 -0.0171  0.0861  0.1288
16086W        W91074  16.742   6.761   0.642 -0.1170  0.0967 -0.2779
16087W        W91075  20.535  35.272   0.894 -0.0007  0.1407 -0.2353
16088W        W91076  13.279  35.354  10.218  0.0233 -0.0754  0.1687
16089W        W91077  18.277  23.767  13.892  0.2446 -0.1005  0.3140
16090W        W91078   8.213  25.157   5.404  0.0088 -0.1294 -0.2926
16091W        W91079  17.561  25.996  23.181 -0.0764  0.1962 -0.3671
16092W        W91080  34.134  28.779  24.060 -0.0828  0.1528  0.0551
16093W        W91081  30.444  13.741  24.435  0.0691  0.1655 -0.1167
16094W        W91082  23.513  17.386  15.496 -0.1059 -0.0216  0.0939
16095W        W91083   1.233   2.339  16.039  0.3692  0.4908  0.0719
16096W        W91084   3.343  25.975  24.206 -0.1812  0.0901 -0.0495
16097W        W91085  22.444   0.586  18.020 -0.0492 -0.1630 -0.0624
16098W        W91086  11.858  14.498  22.951  0.3195  0.2397  0.0943
16099W        W91087  35.000   5.329   5.680  0.1351  0.1771 -0.1060
16100W        W91088  16.258  23.223   4.925  0.2665 -0.0504  0.2239
16101W        W91089   6.563  29.966   2.852 -0.1943 -0.3972 -0.0724
16102W        W91090   6.993  32.001  23.445  0.0202 -0.1904  0.2617
16103W        W91091   8.221  25.535   7.112  0.2853 -0.0453  0.1557
16104W        W91092   1.735  35.294  23.551  0.4219  0.1159 -0.1915
16105W        W91093  18.337  13.451  10.716  0.0536  0.0532  0.1644
16106W        W91094  29.151  31.995  10.860  0.2839 -0.3468 -0.1665
16107W        W91095  21.528  13.507  18.351  0.0393 -0.0644  0.0282
16108W        W91096  26.479  33.469  26.221 -0.0843  0.4024  0.1076
16109W        W91097  29.304   6.798  25.699 -0.0143  0.2858 -0.0682
16110W        W91098   7.763  31.244  26.032 -0.1490  0.1908  0.0448
16111W        W91099  26.535   3.003  25.932 -0.0579  0.2315  0.1406
16112W        W91100  34.857  32.314   4.225 -0.0993  0.0637 -0.3203
16113W        W91101   6.661   1.778  13.341 -0.0455 -0.2007  0.1428
16114W        W91102  34.708  15.246  14.364 -0.2170 -0.2142  0.2668
16115W        W91103  29.550  10.081  15.998 -0.2027 -0.1587  0.2964
16116W        W91104   6.973  17.136   5.539 -0.0034  0.1500 -0.1471
16117W        W91105   7.138  11.955   6.259 -0.1363 -0.0425 -0.2275
16118W        W91106  24.390  22.880  13.586  0.0503 -0.0570  0.0333
16119W        W91107   3.953  29.766   2.508  0.2734  0.0530 -0.5072
16120W        W91108  11.710  27.828   2.436  0.0310 -0.2715 -0.0319
16121W        W91109  15.727   5.988   4.442 -0.0051  0.2673 -0.1841
16122W        W91110  25.174  13.779  11.039  0.0472 -0.3114 -0.2494
16123W        W91111   7.768  18.453  21.886 -0.2205 -0.0383 -0.1187
16124W        W91112  15.078  13.203  23.327 -0.3588  0.0389  0.0949
16125W        W91113  14.117  32.089  15.795 -0.0264  0.1852  0.1550
16126W        W91114   9.483   2.320  23.602 -0.1053 -0.0026  0.1519
16127W        W91115  18.911  25.213  21.529 -0.1152  0.0854  0.0515
16128W        W91116  17.481  26.724   7.729  0.2409 -0.0056  0.1283
16129W        W91117  30.225  25.645  20.888 -0.1160  0.1102 -0.0999
16130W        W91118   9.302  32.064  23.508  0.6517  0.4634 -0.2238
16131W        W91119   1.613   4.287   4.491 -0.1695 -0.1049 -0.1023
16132W        W91120   5.433   6.516  23.256  0.3114  0.1936  0.0148
16133W        W91121  27.374  33.639  14.391  0.2201  0.0237  0.0376
16134W        W91122   3.501   5.186   5.912 -0.2939 -0.2583  0.0710
16135W        W91123  30.373   2.117   6.024 -0.1002 -0.0346  0.0527
16136W        W91124  28.724   0.742  18.855  0.0909  0.1519 -0.1309
16137W        W91125  20.071   6.196  18.178  0.0258  0.2408  0.2913
16138W        W91126  26.114   3.887  25.686 -0.0402  0.0516  0.3037
16139W        W91127   0.030   5.147  15.468  0.1839  0.0403  0.0239
16140W        W91128  30.388   7.746  23.880  0.4236 -0.3380  0.0253
16141W        W91129  18.739   4.103   5.114 -0.3053 -0.0040  0.0687
16142W        W91130  31.296  25.621  23.328  0.3002  0.0307  0.1272
16143W        W91131  12.441  23.991   6.088  0.1199  0.1064 -0.1794
16144W        W91132  28.230  10.777  15.128  0.0716 -0.0680  0.2086
16145W        W91133  26.112   0.869  14.166  0.1858 -0.1227  0.0307
16146W        W91134  30.630  20.928  20.781  0.2673 -0.1001  0.3161
16147W        W91135  26.869   8.121  10.580 -0.0300 -0.4138 -0.2091
16148W        W91136  23.006  34.142  22.305  0.0659  0.2044  0.4338
16149W        W91137  15.364  15.751  10.247 -0.0307 -0.1838  0.0721
16150W        W91138  22.903   9.971  16.768 -0.1561  0.0790  0.0804
16151W        W91139  28.563   3.239   2.412  0.2464  0.0424  0.1742
16152W        W91140  32.954   6.641   5.840  0.0344 -0.0673 -0.5349
16153W        W91141  26.231   7.630  15.779  0.3546  0.1688  0.0971
16154W        W91142  12.511  18.200  10.869 -0.1351  0.0827 -0.0432
16155W        W91143  27.108  30.459  19.833  0.1235  0.2076 -0.2566
16156W        W91144   6.615   8.264  22.978 -0.0232  0.0012  0.2503
16157W        W91145  12.769  23.741   5.672  0.0544 -0.0497  0.2895
16158W        W91146  28.966   3.687  19.207 -0.1503 -0.2586 -0.1654
16159W        W91147  30.904  29.017   1.737 -0.1691  0.1111  0.0447
16160W        W91148  18.619  34.065   3.856  0.1492  0.1541  0.0347
16161W        W91149  13.199  17.942  23.070 -0.3332 -0.0734 -0.5620
16162W        W91150   0.903   3.769  22.432 -0.3003  0.1116 -0.0336
16163W        W91151   9.319  14.951   6.974 -0.0027 -0.0196 -0.1063
16164W        W91152   6.736  25.905  22.775  0.1369 -0.3756 -0.1095
16165W        W91153  26.235  13.516  18.404 -0.3045  0.1168 -0.5335
16166W        W91154   8.505  16.892   4.718 -0.1528 -0.2368  0.2661
16167W        W91155  17.606  32.052  11.041 -0.1931  0.0622  0.0961
16168W        W91156  29.526  28.238  24.898  0.3847 -0.0920  0.1582
16169W        W91157  15.567   1.734  20.305 -0.2493 -0.0680 -0.1241
16170W        W91158  21.967  22.299   2.452  0.0112 -0.0365 -0.0562
16171W        W91159  35.010  20.216   8.045  0.2080 -0.0010 -0.1099
16172W        W91160  30.156  10.834  13.721 -0.0614 -0.1178 -0.6746
16173W        W91161  28.780  32.685  13.496  0.1110 -0.4571  0.4221
16174W        W91162  22.351   1.059  22.665 -0.3532 -0.3041 -0.0153
16175W        W91163  12.495  33.294  20.887  0.1937  0.2651 -0.0468
16176W        W91164  18.100  24.201  23.826  0.0499 -0.2529 -0.1681
16177W        W91165  25.029  16.202  21.647 -0.1580  0.1651 -0.0203
16178W        W91166  30.387  12.778  20.544 -0.3318  0.1272 -0.0362
16179W        W91167  26.867  21.850   8.174  0.0190  0.1880  0.0433
16180W        W91168  21.683  30.895   5.869 -0.0191  0.3478  0.1178
16181W        W91169  26.839  27.914   2.896  0.0611  0.0072  0.2156
16182W        W91170  33.720   9.410  19.789 -0.2563 -0.1614  0.2417
16183W        W91171  34.485  35.243  15.443 -0.0706  0.2927 -0.0019
16184W        W91172  23.456   8.010  16.861 -0.1654  0.2593 -0.0763
16185W        W91173   3.081   1.189  22.375 -0.2060 -0.4288  0.1230
16186W        W91174  19.725   1.954   4.312 -0.0751  0.0588  0.0596
16187W        W91175  10.241  12.339  22.468 -0.0974 -0.3371  0.0096
16188W        W91176  15.231  13.715  21.676  0.3138  0.1064  0.1903
16189W        W91177  10.304   7.040  11.595 -0.0396  0.0949 -0.1439
16190W        W91178  33.755   2.733   7.365 -0.2548  0.0667  0.0398
16191W        W91179  33.681   6.906   4.057  0.0935 -0.2641 -0.0403
16192W        W91180  31.252  31.319  15.696  0.2378 -0.2233  0.2752
16193W        W91181   4.767  26.789  10.370  0.4116 -0.0372  0.1752
16194W        W91182  16.665  15.194  11.971 -0.0551  0.0716  0.0378
16195W        W91183  13.933   1.671   1.484 -0.1848  0.0817 -0.1161
16196W        W91184  31.138  20.769  22.015 -0.1522  0.0177 -0.0247
16197W        W91185   0.725  22.876  17.514  0.0978 -0.1022  0.0426
16198W        W91186  33.823  21.267  10.376 -0.1420  0.2358 -0.3645
16199W        W91187  29.903  25.039  18.879  0.2984 -0.6515 -0.0922
16200W        W91188   1.386   7.474   6.402  0.0679  0.1055  0.4173
16201W        W91189  18.629   3.834   8.687 -0.3603 -0.0804 -0.2893
16202W        W91190   3.341  31.224   0.591  0.2399  0.1385  0.1269
16203W        W91191   7.493  22.164   1.283 -0.1463  0.0366 -0.2820
16204W        W91192   5.638   5.538   1.964 -0.0504  0.0980 -0.1940
16205W        W91193  32.123   1.300   5.566  0.0225 -0.2388 -0.0190
16206W        W91194   2.784   2.806  18.449  0.0829 -0.0077  0.0791
16207W        W91195  18.445   3.770  24.087 -0.1136 -0.0375 -0.2650
16208W        W91196   2.613  20.615  25.009 -0.0803  0.2518 -0.2058
16209W        W91197   9.433  21.682   5.930 -0.0022  0.1039  0.4677
16210W        W91198  32.720  16.277   7.436  0.0575  0.1327  0.3106
16211W        W91199  18.384  29.800   6.507 -0.5386 -0.0364 -0.0604
16212W        W91200  22.006  27.829   1.438  0.0978  0.0045 -0.0383
16213W        W91201  18.425  10.110   1.246 -0.0490  0.0464  0.3671
16214W        W91202   6.657  11.586   4.686 -0.2464  0.3332 -0.3784
16215W        W91203   0.513  20.823  17.098 -0.0673 -0.2408 -0.0530
16216W        W91204  32.869  13.946  22.604 -0.0301 -0.0024 -0.2040
16217W        W91205   7.996  28.801  25.538  0.1625 -0.1541  0.0640
16218W        W91206   3.663   1.459   4.819  0.2692 -0.0114 -0.1543
16219W        W91207  15.392  30.870   7.292  0.1646  0.2347 -0.1904
16220W        W91208   6.121  10.569   7.785  0.0146  0.1245  0.0648
16221W        W91209  31.049  29.028  21.317 -0.2808 -0.0952 -0.0484
16222W        W91210  25.124  14.280   1.195  0.0259  0.0708 -0.0185
16223W        W91211  30.253  12.335  11.346  0.1240 -0.1856 -0.1368
16224W        W91212  30.422   1.116  22.438 -0.1161  0.3663 -0.0887
16225W        W91213  30.972  21.329  13.967  0.0987  0.1206 -0.4270
16226W        W91214  11.292   2.729   7.479  0.0267  0.1414  0.3340
16227W        W91215   0.517   8.528  23.914  0.1451  0.0357 -0.1951
16228W        W91216  24.702   9.615  13.779 -0.0361  0.1673 -0.1106
16229W        W91217  33.177  16.893   7.386 -0.1534  0.2419 -0.1437
16230W        W91218  26.446  22.301  11.367 -0.0714  0.0632  0.1953
16231W        W91219  25.248  25.246  23.525  0.1201 -0.1282 -0.1128
16232W        W91220  32.926  15.259   0.922 -0.1263  0.3586 -0.0254
16233W        W91221  31.042  15.894   7.422  0.1205  0.1877 -0.2538
16234W        W91222   9.849  33.163   5.019  0.1525 -0.0318 -0.3103
16235W        W91223  31.445  25.694  21.072 -0.3247 -0.2855  0.0656
16236W        W91224  23.337   1.906  18.145 -0.0778  0.0915  0.0627
16237W        W91225  13.924  17.250  25.994  0.3047 -0.0087  0.1452
16238W        W91226  29.949  19.139   6.876  0.0079 -0.1915  0.2754
16239W        W91227  22.996  33.236  25.519 -0.0280 -0.0966  0.1116
16240W        W91228  16.440  26.038  22.678 -0.1739  0.1899  0.0699
16241W        W91229   1.129  19.391  14.393  0.4505  0.1217  0.1059
16242W        W91230  17.538  24.543  24.551 -0.0088  0.0692 -0.2319
16243W        W91231  22.435  16.105  25.676  0.1691 -0.1610 -0.1208
16244W        W91232  13.348  34.895  12.696 -0.0051 -0.0783  0.0338
16245W        W91233   1.998   8.610  22.098 -0.0033 -0.0199 -0.2146
16246W        W91234  21.284  25.384  16.737 -0.0399  0.0661  0.0668
16247W        W91235  15.597   9.985  24.145 -0.2834  0.0204  0.3514
16248W        W91236  26.560  20.235  14.300  0.2381 -0.0511 -0.2369
16249W        W91237  11.541  29.635  22.082  0.3848 -0.0666 -0.0555
16250W        W91238  15.372  17.705  18.895 -0.2869  0.1921  0.3119
16251W        W91239   3.995  34.538  12.311  0.2237 -0.2957  0.4012
16252W        W91240   6.575   2.483  10.651 -0.3172  0.2456 -0.0797
16253W        W91241  29.352  30.043   0.366  0.1060 -0.0949 -0.2203
16254W        W91242  15.351  24.537  12.623 -0.3993 -0.0804 -0.0405
16255W        W91243  19.180  16.458   2.843  0.2454 -0.0577 -0.1417
16256W        W91244  12.784  12.365   2.997 -0.1617 -0.0770  0.0574
16257W        W91245   1.122  21.186  21.753 -0.1806 -0.2791  0.4230
16258W        W91246  19.071  23.592   5.775 -0.0368  0.0341 -0.0701
16259W        W91247  25.554  22.178  13.638  0.2469 -0.0716 -0.0363
16260W        W91248  12.051  18.218   7.653 -0.0388  0.1164 -0.0743
16261W        W91249  25.362  20.518  26.007 -0.1773  0.1485  0.3365
16262W        W91250  15.890   0.640   8.721  0.1185  0.1732  0.3973
16263W        W91251  25.071  18.683  21.857 -0.4561  0.0011  0.1276
16264W        W91252   7.581   2.374   0.431  0.0233  0.0080  0.3378
16265W        W91253   4.512  20.433  19.213  0.0139 -0.2311 -0.1643
16266W        W91254  13.363   1.308   8.127  0.0676 -0.1293  0.1407
16267W        W91255  18.035  20.737   9.645 -0.0129 -0.2762  0.0522
16268W        W91256   9.329  14.971  19.108 -0.0811  0.0354 -0.2658
16269W        W91257  19.133  34.263   0.903 -0.1410 -0.1501  0.0538
16270W        W91258   3.561  12.355  26.018  0.1676 -0.0260  0.0284
16271W        W91259  16.984   1.583   1.326 -0.3793 -0.0382  0.6219
16272W        W91260  19.751  11.496   4.546  0.0168  0.3013 -0.1109
16273W        W91261  20.442  23.147  25.665  0.2207 -0.1118  0.1517
16274W        W91262  19.661   2.177  17.966 -0.1342  0.1910  0.4765
16275W        W91263   6.950   4.586   7.433 -0.1310  0.1337  0.0535
16276W        W91264  26.818  16.722  18.062  0.0193  0.0443 -0.0497
16277W        W91265  33.280   5.702  19.428  0.1405 -0.1369 -0.1035
16278W        W91266  31.438  17.996  17.013  0.0251 -0.3221 -0.0604
16279W        W91267   6.106  17.331   5.002 -0.0235  0.0076 -0.0006
16280W        W91268  14.844   5.615  25.901 -0.0542  0.2673  0.6341
16281W        W91269  10.941  28.690  22.686 -0.2540  0.1399  0.1000
16282W        W91270  27.094   2.867  14.720 -0.1812  0.0421  0.2325
16283W        W91271   1.402  32.888   5.054 -0.1103  0.1052  0.3177
16284W        W91272   1.593   0.687  18.828  0.0101 -0.1847 -0.2787
16285W        W91273  23.704  22.141  19.134 -0.1041  0.2440  0.1452
16286W        W91274  31.259  31.047   4.798 -0.0236  0.2874 -0.2426
16287W        W91275  10.783  33.100  23.292  0.0959 -0.1783 -0.1811
16288W        W91276  30.534  25.958  24.032 -0.3262  0.0317  0.0273
16289W        W91277  19.449   3.985   6.762  0.1376 -0.3007 -0.1435
16290W        W91278  31.803  23.357  17.062  0.0056 -0.1068  0.0154
16291W        W91279  24.711  24.632  23.477  0.1629  0.0127  0.0198
16292W        W91280  25.073  12.931  21.826  0.0299  0.2400  0.4065
16293W        W91281  28.972   1.073  18.506  0.0704  0.0208 -0.0832
16294W        W91282  21.084   7.143  17.758 -0.0262  0.1149 -0.1530
16295W        W91283  16.166   5.312   4.831 -0.2539 -0.1999 -0.1967
16296W        W91284  31.278  18.246   9.467 -0.4270 -0.1939 -0.5702
16297W        W91285  31.573  10.987  12.599 -0.0585  0.2586 -0.0910
16298W        W91286   7.165  11.670   3.453  0.0161  0.1876 -0.1341
16299W        W91287  29.059  11.730  16.347  0.2629 -0.2439 -0.0521
16300W        W91288  16.866  34.047  21.270 -0.0873  0.1522  0.1563
16301W        W91289  24.984  34.180   0.486 -0.0782  0.0826 -0.0713
16302W        W91290  22.815  21.249   3.396  0.1410 -0.1137 -0.0961
16303W        W91291   9.604  26.512  13.128  0.4740  0.0788 -0.1823
16304W        W91292  35.272  22.378  24.458  0.1329 -0.0018  0.1030
16305W        W91293   9.272  17.175   8.640 -0.1975  0.0120 -0.3005
16306W        W91294   3.081  12.220  20.864 -0.0813  0.0450  0.0297
16307W        W91295   5.286  17.617   2.300  0.3042  0.2827  0.0172
16308W        W91296  17.250   2.780   3.955  0.0695  0.2212 -0.0753
16309W        W91297  18.156   2.300   4.180 -0.0091 -0.4049  0.3358
16310W        W91298  16.561   0.194  18.759 -0.1892  0.0228  0.0435
16311W        W91299   1.492   5.718  25.265 -0.0000 -0.3336 -0.0298
16312W        W91300   5.217  10.952  19.041 -0.1360  0.5170  0.0244
16313W        W91301   4.713  26.916  21.936 -0.0309 -0.3860  0.0846
16314W        W91302  16.988  19.580   4.821 -0.1966  0.1648 -0.0292
16315W        W91303  23.274   6.886  25.733  0.1903  0.1091 -0.0931
16316W        W91304  11.225   7.123   8.782 -0.0714  0.1716 -0.0499
16317W        W91305  18.064  12.008  23.025 -0.1193 -0.1420  0.1533
16318W        W91306  14.590  11.382   6.441  0.0080 -0.0075  0.1360
16319W        W91307  28.794  21.063  24.090 -0.1621  0.1484  0.0387
16320W        W91308  19.616   1.930   9.032 -0.4725 -0.0341 -0.2835
16321W        W91309  33.896  31.731  23.424  0.1836  0.0910  0.3397
16322W        W91310  19.137  30.976   7.706  0.0924 -0.0703 -0.1457
16323W        W91311   5.785  27.143  12.530 -0.1683 -0.1633  0.1300
16324W        W91312  10.065  14.185   0.865  0.1784 -0.2957 -0.0422
16325W        W91313  27.477   8.231   9.477  0.0927  0.1258 -0.1849
16326W        W91314  13.447   3.627   9.264  0.1802  0.3000 -0.0327
16327W        W91315  27.957   4.005  13.610  0.0879  0.1441 -0.1648
16328W        W91316  34.200  22.501  11.532 -0.0121  0.0065 -0.1518
16329W        W91317   1.595  27.993  26.171 -0.0510 -0.3930  0.2403
16330W        W91318  15.658  34.918   5.489  0.1698 -0.1089 -0.3967
16331W        W91319   1.965  31.025   2.201  0.0615  0.0373  0.2059
16332W        W91320   1.488  20.671   1.369  0.0687  0.2359  0.2050
16333W        W91321   1.999   8.130  23.432  0.2807 -0.1117  0.1809
16334W        W91322  22.270  10.277  18.041 -0.0030 -0.0246 -0.1218
16335W        W91323   8.054   9.626   1.252 -0.1677 -0.1426 -0.1190
16336W        W91324  23.823  27.591  16.032 -0.1542 -0.3332 -0.1698
16337W        W91325  16.287  17.206  11.184  0.0957 -0.0058  0.0195
16338W        W91326  21.287  34.427  22.021 -0.0260 -0.4747 -0.0061
16339W        W91327  31.630   5.901  14.306  0.0067 -0.1199  0.2560
16340W        W91328  12.545   4.028   0.688  0.4824  0.0966 -0.1689
16341W        W91329  26.289   1.499   5.251 -0.0462 -0.2945 -0.0068
16342W        W91330  12.537  31.863  11.965  0.3998 -0.1149 -0.1149
16343W        W91331  34.633   2.502  14.473 -0.0922  0.1394 -0.0371
16344W        W91332  22.168  26.753  18.693 -0.4476  0.2840 -0.0183
16345W        W91333  32.068  18.056  24.581  0.2426  0.0842  0.1650
16346W        W91334   5.371   2.723   5.345 -0.0778 -0.0649  0.0478
16347W        W91335  10.618  15.846  12.060  0.4223 -0.1522  0.0890
16348W        W91336  33.551  27.219  21.366 -0.0770  0.0884  0.0796
16349W        W91337  16.047  15.000   9.110 -0.0012  0.0430  0.1599
16350W        W91338   5.163   0.368  12.751  0.1688 -0.2653 -0.2512
16351W        W91339  21.610  17.893   2.961 -0.0243 -0.1699 -0.1460
16352W        W91340  22.369  25.003   0.267  0.2562  0.1228 -0.0073
16353W        W91341  15.401  14.865   9.727  0.2073  0.0102  0.0955
16354W        W91342  33.024  34.912  13.871 -0.0477 -0.1117 -0.1206
16355W        W91343  24.134  14.429  16.563  0.1333 -0.3910 -0.0610
16356W        W91344   9.871   4.136   9.205 -0.2271  0.0199  0.0234
16357W        W91345  33.719  21.670  26.042  0.1245  0.1123 -0.1211
16358W        W91346  11.514  31.982  24.134 -0.1156  0.3168 -0.2109
16359W        W91347  24.384  13.948  16.614  0.1672  0.0104  0.0995
16360W        W91348  19.696  18.255   1.047 -0.1560 -0.1658  0.2143
16361W        W91349  20.879  14.553  25.159  0.0271  0.2432  0.1899
16362W        W91350  19.512  10.413   5.260  0.1051  0.2671  0.1775
16363W        W91351   8.064   9.321  18.957  0.2999  0.0623  0.1441
16364W        W91352  17.281  12.899  11.802  0.1177 -0.1010  0.0319
16365W        W91353   0.738  20.831  20.735  0.0175  0.2000  0.0500
16366W        W91354  10.474   3.369  11.095  0.1825 -0.1369  0.0785
16367W        W91355  17.125  26.235   7.746 -0.0022 -0.0514 -0.2346
16368W        W91356   6.127  34.171   4.377  0.0405 -0.1746 -0.0613
16369W        W91357  14.517  32.697  24.029 -0.1027  0.2809  0.0260
16370W        W91358   5.146  20.311  24.461  0.1534  0.0010  0.2320
16371W        W91359  31.529  34.584  21.107  0.3485 -0.1521 -0.0520
16372W        W91360  14.413  25.907  15.751  0.2198  0.1486 -0.2826
16373W        W91361  23.461  33.698   5.095  0.0779  0.0837  0.0510
16374W        W91362  33.929   7.403   2.481  0.1217 -0.0587 -0.0116
16375W        W91363  29.409  18.016  19.753  0.2230 -0.2445 -0.2000
16376W        W91364   3.832  10.375  23.612  0.0375  0.1985 -0.0410
16377W        W91365   1.591   7.155  16.325  0.0865  0.2230  0.1079
16378W        W91366   2.117   3.295  20.030  0.1093  0.2924  0.2097
16379W        W91367   6.333  33.004   2.962  0.0757  0.2183  0.1622
16380W        W91368   8.504  23.016  13.250 -0.0991  0.2453  0.0726
16381W        W91369  29.390  26.710  22.679  0.0755  0.0032 -0.0668
16382W        W91370  14.805  14.408   6.861  0.0568  0.0782  0.0439
16383W        W91371   8.863   3.548  19.405  0.0910 -0.2302  0.0335
16384W        W91372   0.462   9.864  19.891 -0.0819 -0.2902  0.0967
16385W        W91373  31.925   4.083   2.758  0.1017 -0.0259  0.0879
16386W        W91374  16.268  19.249  20.822  0.1028  0.2663 -0.1413
16387W        W91375  20.274  29.515  23.211  0.0174 -0.3135 -0.0626
16388W        W91376   4.755  16.250   6.445 -0.0120  0.0029  0.1796
16389W        W91377  25.289  29.967  24.418  0.1017 -0.2933 -0.0945
16390W        W91378  13.604  16.024   5.675  0.3356 -0.0154  0.2159
16391W        W91379  27.009   1.520  23.228 -0.1084  0.2639  0.0550
16392W        W91380   7.121  17.580  11.223 -0.1653 -0.2884 -0.2702
16393W        W91381   0.569  16.914  14.332 -0.0108 -0.1142 -0.0505
16394W        W91382  27.817  32.169  13.121 -0.4975 -0.0981 -0.1625
16395W        W91383  32.166  27.461   3.830  0.0283  0.2068 -0.4441
16396W        W91384  21.954  31.349  15.335 -0.1341 -0.2699  0.1124
16397W        W91385  30.869   9.866  20.662  0.3169 -0.0268 -0.0287
16398W        W91386   7.816  12.880   1.326 -0.1349  0.0148 -0.0587
16399W        W91387  35.361   9.017  11.171 -0.2150 -0.0241  0.1182
16400W        W91388  25.493  19.248  14.026  0.2513 -0.0464 -0.0479
16401W        W91389  13.150  30.816  14.118  0.2096 -0.0964 -0.1327
16402W        W91390  16.123  31.536  10.889 -0.2470  0.0303  0.2984
16403W        W91391  15.093  31.219   5.750 -0.0918 -0.2524  0.1707
16404W        W91392   5.190  30.519  24.913 -0.0170  0.4708 -0.0862
16405W        W91393  23.746  14.814  13.330 -0.1129  0.1745  0.0673
16406W        W91394  23.862  34.880  13.518  0.0565 -0.1145 -0.1295
16407W        W91395  31.765  23.255   7.703 -0.4409 -0.0037 -0.0609
16408W        W91396  33.232  18.798  18.203 -0.0544  0.0700  0.4744
16409W        W91397  15.696  30.734  12.212 -0.1394  0.0781  0.3160
16410W        W91398  15.061  11.335   9.548  0.2964  0.1388 -0.1317
16411W        W91399  30.185   5.900  18.187  0.0722 -0.0434 -0.1344
16412W        W91400  34.377   7.843   3.782  0.0874  0.2826  0.0810
16413W        W91401  22.887  22.215   3.528 -0.0199  0.3579  0.1380
16414W        W91402  21.866  12.116  21.832  0.1586 -0.2158 -0.3869
16415W        W91403  31.672   7.435  12.383 -0.5406 -0.0715  0.1887
16416W        W91404  29.963  34.926  12.168 -0.2180 -0.1932  0.1362
16417W        W91405  34.336   7.827  11.278  0.0329 -0.1435  0.1785
16418W        W91406  16.966  11.410   3.366  0.0344  0.2901 -0.0485
16419W        W91407  32.024  35.312  14.891  0.0495 -0.0292 -0.0646
16420W        W91408  26.301  17.664  23.927  0.2758 -0.1525 -0.0533
16421W        W91409  17.367  26.460   5.606  0.0424 -0.0525 -0.1782
16422W        W91410  29.285  24.294  14.223  0.4121  0.0438  0.2533
16423W        W91411  33.801   6.953  19.374  0.0220  0.0595  0.1980
16424W        W91412   7.472  25.515   9.011  0.2881  0.0332  0.1567
16425W        W91413  10.709  30.667   3.810 -0.0193  0.1318  0.0617
16426W        W91414  28.415  15.855   5.474 -0.1403 -0.0309 -0.0856
16427W        W91415   0.192  10.023   2.155  0.0553  0.1116  0.2082
16428W        W91416  17.757   4.595   1.354 -0.1771  0.0449  0.0375
16429W        W91417  28.395  22.385  11.917  0.1749 -0.0586 -0.1580
16430W        W91418  19.954  29.152  25.577 -0.1820  0.0818 -0.0536
16431W        W91419  10.528   2.830   5.010  0.0320 -0.1797  0.2004
16432W        W91420  26.646  34.505  18.345 -0.1863 -0.1997  0.3784
16433W        W91421  11.983  34.792   7.758 -0.1491 -0.1443 -0.3370
16434W        W91422   5.006  25.048   5.312 -0.1921 -0.2285  0.0455
16435W        W91423  31.788   3.657  19.594 -0.0454  0.0457 -0.0247
16436W        W91424  17.232   6.308   2.373 -0.0709 -0.0747  0.3211
16437W        W91425  12.588  13.883  22.615  0.3329 -0.3100 -0.0434
16438W        W91426  33.828  20.490  11.444  0.3013  0.2192 -0.1362
16439W        W91427  31.764  28.731   1.620 -0.0323 -0.2930  0.0074
16440W        W91428  26.035   8.092  15.710  0.0124  0.3653 -0.0880
16441W        W91429  24.538  27.105  24.047  0.1867 -0.1107 -0.1946
16442W        W91430   7.414  18.870   7.314 -0.0006  0.0185  0.1361
16443W        W91431  15.435  34.129   8.732  0.0356 -0.0016  0.4942
16444W        W91432  33.644  22.194  18.111  0.3068 -0.2452 -0.0340
16445W        W91433  32.054   6.495  20.110 -0.2901 -0.0583 -0.1634
16446W        W91434   7.634   4.891  20.717  0.1579 -0.1352 -0.4276
16447W        W91435  11.265  25.009  13.803  0.0527 -0.2966  0.4011
16448W        W91436  31.767  18.757   8.354  0.0764 -0.0054  0.1896
16449W        W91437  30.743  28.542   1.556 -0.0711  0.1128 -0.0994
16450W        W91438  31.748  30.606  26.113  0.1691  0.0516  0.3070
16451W        W91439   7.959  26.780   8.795 -0.1571 -0.1309  0.4473
16452W        W91440   9.143  25.952   1.625  0.0580  0.0198 -0.1027
16453W        W91441  11.728  32.280   9.083 -0.1089  0.0837 -0.3239
16454W        W91442  26.519   9.850  25.991  0.1122 -0.0806  0.1436
16455W        W91443  12.571  21.226  14.898  0.3984 -0.2329  0.2528
16456W        W91444  25.823   3.865   2.980  0.0216 -0.2435  0.1711
16457W        W91445   5.545   7.159   0.925 -0.2067 -0.1991 -0.1385
16458W        W91446  18.049   4.274   9.404  0.3426  0.2190 -0.0413
16459W        W91447  20.554   9.887  23.370  0.2009 -0.0890 -0.1494
16460W        W91448  26.821  22.045   7.115  0.1746 -0.2053 -0.1460
16461W        W91449   4.016  27.477  22.078 -0.3526  0.0211 -0.0905
16462W        W91450  23.824   2.042  20.706 -0.1748 -0.0122  0.0138
16463W        W91451   9.278   9.921  20.587  0.0836  0.2176 -0.0044
16464W        W91452  33.335  10.848   9.215 -0.2541  0.1481  0.1780
16465W        W91453  17.991   4.129  22.943 -0.2613 -0.0220 -0.3652
16466W        W91454   4.405   9.354   7.784 -0.1231  0.0818  0.0499
16467W        W91455  34.014  33.395   5.247 -0.5028 -0.0912  0.0033
16468W        W91456  17.873  13.405   2.871  0.3882 -0.1519 -0.0581
16469W        W91457   1.276   3.036  24.110 -0.1363  0.0820 -0.2843
16470W        W91458  23.467   9.480  20.062 -0.0270  0.3227  0.2385
16471W        W91459  23.937  12.896  11.320 -0.0012  0.0876  0.2321
16472W        W91460   8.644   1.877  25.332  0.2347  0.0056  0.0025
16473W        W91461   2.473   1.784  15.998 -0.2203 -0.1804  0.2760
16474W        W91462   8.829  10.468  18.799 -0.0220  0.1770 -0.2472
16475W        W91463  34.875  35.105  19.495  0.3761  0.2764 -0.1535
16476W        W91464   6.006  27.185   6.169 -0.0146  0.1615  0.1545
16477W        W91465  19.272  30.753   0.468 -0.1216 -0.1838  0.0496
16478W        W91466  31.947  10.638   9.140  0.1122 -0.2396 -0.1492
16479W        W91467   6.428   8.263   8.872  0.0848 -0.0453 -0.0118
16480W        W91468  26.885  15.603   9.657 -0.3551  0.0503  0.0671
16481W        W91469  29.412   3.565  25.204  0.0285 -0.0807  0.1107
16482W        W91470   5.390  13.897  20.244  0.3462  0.0402 -0.1590
16483W        W91471  10.165   8.487  12.944 -0.0753 -0.3007 -0.0225
16484W        W91472   1.614  21.308  16.029 -0.1054 -0.2123 -0.0403
16485W        W91473   5.714   9.920  25.613  0.0885 -0.1107  0.2017
16486W        W91474  33.443  31.724   1.375 -0.3034 -0.3014  0.1430
16487W        W91475  16.176  28.409   0.536 -0.0858 -0.1958 -0.0829
16488W        W91476   3.794  32.689  21.492  0.0477  0.1256  0.1636
16489W        W91477  32.097   0.898  20.306  0.1678 -0.1561 -0.0654
16490W        W91478  11.436  34.154  20.675  0.1991  0.1039 -0.1857
16491W        W91479  10.640   0.899  10.776  0.0981  0.0500  0.0635
16492W        W91480  22.061  19.886   2.357 -0.2702  0.1117  0.0310
16493W        W91481   2.074   8.362   5.122 -0.1251 -0.1724 -0.0062
16494W        W91482   6.512   8.101   3.573  0.2224 -0.2067 -0.0857
16495W        W91483  28.090  17.349   5.645 -0.3902  0.2315 -0.0762
16496W        W91484   6.874  30.744  15.393  0.2602 -0.3775 -0.1327
16497W        W91485   7.063   4.426  22.478 -0.5297  0.0857  0.0813
16498W        W91486  28.168  13.353  23.697 -0.1284  0.1873  0.1296
16499W        W91487  28.226  28.614  17.615 -0.0924  0.2684  0.0934
16500W        W91488   3.258  32.766   6.117 -0.1049 -0.0657 -0.2589
16501W        W91489  32.682  23.895  13.313 -0.2729  0.3563 -0.1437
16502W        W91490  31.455  29.640  23.730  0.3706 -0.0402  0.1733
16503W        W91491   6.298  26.340  21.456  0.1001  0.0499  0.0117
16504W        W91492  15.169  12.991  11.006 -0.0143  0.1193  0.3827
16505W        W91493  25.919  11.776  10.178 -0.3695  0.0438  0.0043
16506W        W91494   7.052  17.119  11.547  0.3026 -0.0987  0.0211
16507W        W91495  28.794   0.839   5.647  0.2231  0.1724 -0.3365
16508W        W91496  31.403   3.070   3.937  0.1448 -0.0112  0.1468
16509W        W91497  23.012   3.260   7.684 -0.0846  0.2563  0.0800
16510W        W91498   2.388  34.139  24.667 -0.3208  0.1999  0.0057
16511W        W91499  27.477   6.938  11.353  0.1350  0.2835 -0.3469
16512W        W91500   6.213   0.134   3.086  0.3250 -0.3390  0.1701
16513W        W91501  34.711  28.878  21.368 -0.0275 -0.3276 -0.4683
16514W        W91502  20.278  27.543   4.020  0.2862  0.0976 -0.3668
16515W        W91503  28.201  32.431   4.057 -0.0606 -0.0115 -0.2466
16516W        W91504  16.040   1.568   6.511  0.0978 -0.1386 -0.3001
16517W        W91505   3.336   4.436   4.917  0.1470  0.3428  0.1328
16518W        W91506  28.759  34.606  14.248  0.0535  0.2802  0.0964
16519W        W91507  22.653   2.106  19.625 -0.1645  0.0342  0.1292
16520W        W91508  24.184   2.473   2.752  0.0910 -0.0812  0.1716
16521W        W91509  32.685  25.579  10.524  0.0885  0.2659 -0.1633
16522W        W91510  21.229  35.309   3.000 -0.1448  0.1174  0.3328
16523W        W91511   0.996   3.446   4.456 -0.0204 -0.0690  0.0046
16524W        W91512   6.739  27.786  24.696 -0.2003  0.2959 -0.1372
16525W        W91513   2.579   6.734   7.415 -0.1738  0.0016 -0.0307
16526W        W91514   2.319   8.480  16.722 -0.0953 -0.0069  0.0800
16527W        W91515  15.222  14.807  11.330 -0.2084 -0.1133  0.1164
16528W        W91516  25.103  33.564   3.797 -0.3309  0.2094 -0.1662
16529W        W91517  28.632  30.840  15.115  0.0399 -0.2386  0.1506
16530W        W91518  23.586  18.843  23.906  0.1179 -0.3644 -0.1216
16531W        W91519   0.906   3.793  15.742  0.0483 -0.2061 -0.2134
16532W        W91520  26.353  26.913  22.451 -0.3317 -0.0334  0.1510
16533W        W91521  27.126   4.249  21.499 -0.2095  0.1638  0.1389
16534W        W91522  27.070  10.002   7.648 -0.2309  0.0662  0.3150
16535W        W91523  23.278  31.201   2.577 -0.1088  0.1446 -0.0551
16536W        W91524  26.865  13.072  25.949  0.2232 -0.0527  0.4357
16537W        W91525  31.586  10.244  18.510  0.2464  0.1458  0.1642
16538W        W91526  29.967  22.667  18.924 -0.1561 -0.3253  0.3480
16539W        W91527   9.443   5.049   3.888 -0.2133  0.2326  0.2522
16540W        W91528   9.786  17.981  21.386  0.0709 -0.0380 -0.0391
16541W        W91529  18.862   6.004  17.260 -0.0138  0.1893  0.2474
16542W        W91530  19.966  18.903   2.244 -0.0487 -0.2250  0.2210
16543W        W91531   0.654  30.736   7.930  0.1749  0.2757  0.3156
16544W        W91532   8.625   7.824  24.537  0.1794  0.0878  0.2861
16545W        W91533  20.262  11.714  19.500  0.2580  0.0261  0.0422
16546W        W91534  22.249  25.445  22.893  0.2029  0.0310  0.2727
16547W        W91535  10.399   0.099   0.006  0.0617  0.0512 -0.2392
16548W        W91536  11.147  30.694  16.042 -0.0534 -0.1497  0.2854
16549W        W91537  31.337   4.470  17.432  0.0496  0.1628 -0.1057
16550W        W91538   0.491   6.482  12.134  0.3656 -0.5844 -0.1618
16551W        W91539  24.835  16.453  16.456 -0.0632  0.0404 -0.0200
16552W        W91540   4.442  13.910  20.344  0.1312  0.2761 -0.0560
16553W        W91541   6.513   6.101   2.794 -0.0755  0.1664 -0.0073
16554W        W91542  28.567  20.116  13.417 -0.0355 -0.0695 -0.2077
16555W        W91543   9.646   4.979  19.417  0.3110 -0.0267 -0.0137
16556W        W91544   4.160  30.884  10.616  0.0269  0.0627  0.0902
16557W        W91545  29.393  17.244  23.246  0.0140 -0.0234 -0.2103
16558W        W91546  24.437  20.375  19.984  0.2729 -0.0723  0.1677
16559W        W91547  12.826  14.839  19.765 -0.0716  0.1435 -0.4344
16560W        W91548  19.119  26.943   0.818 -0.0119 -0.2436 -0.0819
16561W        W91549   7.579  25.730  25.495 -0.0544  0.2563 -0.0010
16562W        W91550   6.905  20.864   1.037  0.0465 -0.3021 -0.0859
16563W        W91551  23.605  20.243  23.999  0.0496 -0.3943  0.1840
16564W        W91552  28.122  27.023  17.529 -0.1916  0.0165 -0.0360
16565W        W91553  34.037  27.827   1.866 -0.0327  0.5181  0.1371
16566W        W91554  33.922  28.603  24.535  0.3401  0.1655  0.0355
16567W        W91555   8.934  14.866  11.399  0.3686  0.2104  0.1583
16568W        W91556   7.327  17.510   5.427  0.0862  0.1861 -0.1005
16569W        W91557  17.172  31.667  23.972 -0.1282 -0.1251  0.1895
16570W        W91558   3.783  10.535  17.875  0.1534  0.0409  0.0144
16571W        W91559  33.673  26.849  22.292 -0.0416  0.1949 -0.2278
16572W        W91560  24.495  34.707  21.670  0.2663 -0.0084 -0.1745
16573W        W91561  17.216  11.017   7.168  0.0011 -0.0398 -0.0271
16574W        W91562  34.551  27.614   1.677 -0.1700 -0.2151 -0.1213
16575W        W91563  11.153   5.368  19.946  0.2458 -0.0543 -0.1208
16576W        W91564  30.966  16.285   8.234 -0.1730  0.1118  0.1184
16577W        W91565  14.500  28.879  14.374 -0.0509 -0.1908 -0.2134
16578W        W91566   1.410  18.179  14.337  0.0573 -0.0028 -0.0084
16579W        W91567  18.879  12.373   8.908  0.2153  0.2507  0.1500
16580W        W91568  20.860   9.305  26.240 -0.1499  0.0983 -0.1116
16581W        W91569  33.762   6.176  20.126  0.1174  0.0971  0.1142
16582W        W91570  10.191  17.519   2.980 -0.0433  0.0556 -0.1693
16583W        W91571  17.417   0.991  16.448 -0.1404  0.0599 -0.3649
16584W        W91572   9.151  20.878   9.985  0.2058 -0.0733 -0.2699
16585W        W91573  31.472  16.304   8.112  0.0443 -0.1123  0.3639
16586W        W91574  32.788   6.873  21.977  0.3308 -0.0255  0.0426
16587W        W91575  10.503   4.498   7.990  0.0469 -0.1410 -0.2383
16588W        W91576  13.678  14.485  24.378  0.0579 -0.0223 -0.4173
16589W        W91577  30.539   6.164  22.289 -0.1854  0.2075  0.3422
16590W        W91578   5.871   4.252  24.220  0.1388  0.0948  0.1818
16591W        W91579  14.281  24.533   7.884 -0.2755 -0.2336 -0.1852
16592W        W91580  30.690  20.636  21.240  0.5130  0.1323  0.0974
16593W        W91581  28.386  31.219  18.561 -0.0805  0.1782  0.7353
16594W        W91582  31.566  12.291  19.403  0.0058 -0.1170 -0.2879
16595W        W91583  19.061  23.588  23.163  0.0379  0.0055  0.0994
16596W        W91584  28.963  19.663   9.830 -0.1702 -0.2558 -0.1139
16597W        W91585   8.236   6.375  20.703  0.3011  0.1826  0.2676
16598W        W91586  25.390  34.033  15.159  0.1708  0.0870  0.3545
16599W        W91587  33.958  15.329  18.051  0.2575 -0.1963  0.1231
16600W        W91588  30.558  21.273  22.241  0.0999 -0.0242  0.1442
16601W        W91589  31.603  26.170  16.671  0.2345 -0.1331  0.0016
16602W        W91590  16.129  23.529  23.721 -0.2910 -0.1871  0.1962
16603W        W91591  20.456  29.696  25.780 -0.4135 -0.1381 -0.1732
16604W        W91592  19.708  24.242   0.647  0.1352 -0.0256  0.0819
16605W        W91593  26.628  10.980  15.249 -0.0581  0.1230  0.0225
16606W        W91594  23.367  27.944  11.487 -0.2542  0.2901  0.0790
16607W        W91595   2.936  20.698  21.458  0.0626  0.0815  0.0389
16608W        W91596  26.170  25.010  17.483 -0.1316  0.0871  0.2649
16609W        W91597  29.386  12.518  24.339  0.0299 -0.1376 -0.0843
16610W        W91598  24.130  33.195   3.755 -0.1287 -0.0873  0.0418
16611W        W91599  12.886  29.041  26.193  0.2906  0.0104  0.3300
16612W        W91600  29.012  11.495   0.098  0.1494  0.0683  0.0675
16613W        W91601  33.503  29.686  19.149 -0.2237  0.0803  0.1537
16614W        W91602  28.802  34.632   4.281 -0.2706  0.3909  0.3384
16615W        W91603   8.800  21.773   5.219 -0.3306 -0.1320  0.0134
16616W        W91604  31.393  12.146  21.109 -0.2270 -0.1498  0.1926
16617W        W91605  29.986   6.429  12.109  0.0818  0.1522  0.4512
16618W        W91606  27.316  26.258   7.686 -0.1782 -0.1359 -0.0369
16619W        W91607  29.327  27.221   2.359 -0.2902  0.0010  0.2085
16620W        W91608   8.322   3.581   7.031  0.0268 -0.0448 -0.1071
16621W        W91609   1.637   5.638  18.505  0.1821 -0.1813  0.0453
16622W        W91610  34.908  18.250  24.625 -0.5030 -0.1104 -0.3717
16623W        W91611  31.031   0.259  22.916  0.0069  0.3385  0.2094
16624W        W91612  18.888  27.845   2.385 -0.1494 -0.2434  0.3525
16625W        W91613  14.677  29.901   6.247  0.0422 -0.2294  0.0100
16626W        W91614  27.329  20.297  18.716  0.1149  0.0839  0.0598
16627W        W91615  11.673   6.903  20.794 -0.2722  0.0713  0.1355
16628W        W91616  15.708  11.900  10.889  0.3405  0.1381 -0.5042
16629W        W91617  17.612   1.800  24.000  0.1957 -0.0399  0.2024
16630W        W91618  10.067  28.396   3.056 -0.0777 -0.1894  0.0450
16631W        W91619  14.530  27.171  16.208  0.0580  0.0316 -0.0401
16632W        W91620  16.531   5.506  10.617  0.0716  0.1968  0.0693
16633W        W91621  31.351   6.308   1.889  0.0136  0.0182  0.0937
16634W        W91622   6.915  17.181  21.036  0.1641  0.1782  0.2071
16635W        W91623  22.775   4.305  18.186  0.3764 -0.3362  0.3458
16636W        W91624  28.266  31.412  23.142 -0.0549 -0.2955  0.0543
16637W        W91625  10.427  34.212  24.409  0.3586 -0.0369  0.0980
16638W        W91626  33.326   6.359  18.687 -0.1597 -0.0311 -0.0902
16639W        W91627   9.044  24.892   5.869 -0.0662  0.1026  0.0071
16640W        W91628  18.304   1.119   4.212  0.0564  0.0012 -0.2478
16641W        W91629  21.284   1.205   8.854  0.0560  0.1431 -0.2152
16642W        W91630  19.555  22.039  23.354  0.0869  0.1524  0.1174
16643W        W91631  27.129  28.713  10.856 -0.0418 -0.0876  0.0362
16644W        W91632  28.829  14.960  12.925 -0.0466  0.0585  0.0721
16645W        W91633   0.439  33.059   6.752 -0.0475  0.3476  0.1336
16646W        W91634  11.533   3.092  11.948 -0.2770 -0.3937 -0.3605
16647W        W91635  23.419  12.898   1.373 -0.1849 -0.1238  0.3202
16648W        W91636  18.321  25.230  10.528 -0.0297  0.2952  0.0540
16649W        W91637  32.501  33.154  22.734 -0.0989  0.0523 -0.0904
16650W        W91638  19.747  21.304   9.024  0.1663 -0.2179 -0.2185
16651W        W91639  12.159  33.406   9.980 -0.1077  0.3091 -0.1098
16652W        W91640  10.309   8.761   3.281  0.1163 -0.0880  0.3431
16653W        W91641  31.537  10.682  15.308 -0.1397  0.0882 -0.2079
16654W        W91642  21.855  19.982   0.120  0.3561  0.0571  0.0035
16655W        W91643  25.463  31.877  17.229  0.0482  0.1553 -0.0449
16656W        W91644   5.323  33.072   0.579  0.0464 -0.0376  0.0125
16657W        W91645   7.447  22.914   9.717 -0.3032 -0.0868  0.2274
16658W        W91646   0.005  14.611  25.657 -0.2789 -0.3124  0.0639
16659W        W91647  18.939   3.094  22.548  0.0231 -0.2443  0.1270
16660W        W91648  20.600  25.141   1.763  0.3200 -0.0573  0.2612
16661W        W91649  25.269  27.303  18.601 -0.1537  0.0425 -0.0310
16662W        W91650  21.415   9.093   0.028 -0.1075  0.0852  0.2709
16663W        W91651  29.076   3.159  12.341  0.0929  0.0978  0.4576
16664W        W91652  26.610   7.612   2.363 -0.1243 -0.0482  0.0048
16665W        W91653   5.978   9.179   9.206  0.0801 -0.2497  0.2074
16666W        W91654  23.953  20.299   2.255  0.1219  0.1786 -0.4057
16667W        W91655  31.895  30.640  13.711  0.3101 -0.0316  0.2307
16668W        W91656  32.458  23.807  12.027 -0.1266 -0.2322  0.1029
16669W        W91657  21.957  34.146  25.022  0.2083  0.1624  0.0683
16670W        W91658  35.364   9.782  17.416 -0.1792  0.0516 -0.2373
16671W        W91659  20.751  31.815  24.622 -0.0401 -0.4252  0.1651
16672W        W91660   5.372  29.746  21.481  0.3231  0.0415  0.1694
16673W        W91661  15.015  23.152  10.252 -0.0964 -0.0639  0.1483
16674W        W91662  16.772  19.088  24.749  0.0803  0.3966  0.3087
16675W        W91663  20.453  11.759   1.787 -0.1630  0.1398 -0.1777
16676W        W91664  11.712   9.158   1.653 -0.0118 -0.1336 -0.1521
16677W        W91665  34.204  18.577  25.795  0.1503  0.6098  0.0051
16678W        W91666  26.201  26.200   9.989  0.1760  0.1828 -0.0731
16679W        W91667  11.315  21.560  11.697  0.1180 -0.1017 -0.1258
16680W        W91668   8.312  20.449  13.500 -0.1272  0.1437 -0.2672
16681W        W91669  19.807  22.923   8.830  0.1010 -0.4556  0.2695
16682W        W91670  19.565  28.725   9.315  0.5869  0.0176  0.0379
16683W        W91671  11.482  26.252   8.477 -0.2182  0.1348  0.0269
16684W        W91672  18.981  16.755  19.635 -0.0890  0.2517  0.0868
16685W        W91673  25.029  25.799  18.323  0.0305  0.0949  0.0567
16686W        W91674  14.173   2.239   3.735  0.2322 -0.0382  0.1699
16687W        W91675  33.801   6.252   3.297 -0.1093  0.0801  0.0962
16688W        W91676  32.545  24.301  12.156 -0.2242 -0.0366 -0.2233
16689W        W91677  29.938  19.255  11.135 -0.1469  0.3407 -0.1459
16690W        W91678   5.970  19.581  18.159  0.0146  0.1616  0.1634
16691W        W91679  10.190  26.426  23.989 -0.1520  0.3104  0.1553
16692W        W91680   1.044  33.677   1.059 -0.2302  0.1527 -0.3099
16693W        W91681   6.119  10.602   4.757  0.2530  0.2138 -0.0536
16694W        W91682  16.732   8.930   7.375 -0.0777  0.1877  0.0150
16695W        W91683   4.513  11.290   6.358 -0.2934 -0.2654 -0.0089
16696W        W91684  20.686  16.363   5.485  0.1842  0.2537 -0.0102
16697W        W91685  29.631  20.287   7.857  0.0724 -0.1357 -0.0150
16698W        W91686  12.073  21.687  23.983  0.1014  0.2920 -0.1100
16699W        W91687  11.658  26.955  24.132  0.0000  0.2111  0.1445
16700W        W91688   4.000   0.180   4.190 -0.1288 -0.1041  0.0386
16701W        W91689   0.020  32.082  25.167 -0.0789 -0.0051 -0.1820
16702W        W91690  29.699  31.007  13.333  0.0898  0.0037 -0.0136
16703W        W91691  13.964  26.686  15.009 -0.1535 -0.2252  0.1044
16704W        W91692   7.443  15.836  22.013 -0.1439 -0.1287 -0.0646
16705W        W91693   1.372  21.348  19.989 -0.0533  0.0464 -0.1709
16706W        W91694  10.853  31.519  21.976 -0.2345 -0.1123  0.1623
16707W        W91695  14.594  23.728   3.624 -0.0528 -0.1601  0.2061
16708W        W91696   1.009  23.418  24.831 -0.1468 -0.2003 -0.6073
16709W        W91697  34.682  31.195  23.399  0.0192 -0.2763 -0.0428
16710W        W91698  29.473  12.390  23.267  0.2022 -0.0878 -0.0142
16711W        W91699  22.810   5.347   0.313  0.2287  0.0949 -0.2576
16712W        W91700  13.898  24.991  22.762  0.0036  0.1865  0.2395
16713W        W91701   4.775   4.783   5.653 -0.0777 -0.1193  0.3315
16714W        W91702  16.303  25.479   5.473  0.2957 -0.0283 -0.0016
16715W        W91703   4.371  17.129   3.805 -0.0161 -0.0669  0.3654
16716W        W91704  30.976  29.036  20.424  0.1483  0.2288  0.0635
16717W        W91705   2.719   7.023  22.009 -0.0571  0.0202 -0.1279
16718W        W91706  24.923   7.691   1.930 -0.2232 -0.1374 -0.0115
16719W        W91707  10.813   2.953  23.137 -0.1288 -0.0657 -0.0018
16720W        W91708  15.756  15.941   3.425 -0.0251 -0.1974  0.1359
16721W        W91709   8.391  21.945  23.725 -0.1488  0.0670  0.3772
16722W        W91710  26.738   6.090   9.974  0.0721  0.1427  0.1870
16723W        W91711   4.592   1.035   9.445  0.3307  0.3530 -0.1629
16724W        W91712  20.185  33.258   2.978 -0.0007 -0.3761  0.1062
16725W        W91713  21.184  19.857  24.688 -0.1504 -0.2406  0.1765
16726W        W91714  10.698  13.719  18.742  0.1969  0.0666 -0.5655
16727W        W91715  13.306  10.236  10.541 -0.3315 -0.2107 -0.2271
16728W        W91716   7.197  25.770  14.636  0.3183  0.2766 -0.3931
16729W        W91717  27.834  26.716  13.526 -0.1334  0.3799 -0.1959
16730W        W91718   2.647  32.666   8.827  0.1034  0.1555  0.0209
16731W        W91719  32.749  29.229  22.297  0.0195 -0.0288 -0.1257
16732W        W91720  11.387  14.490  22.816 -0.2274 -0.2021  0.1500
16733W        W91721  26.619   1.333  11.026 -0.0690  0.0354 -0.0660
16734W        W91722  11.946   2.211  20.431 -0.1071  0.0174 -0.5277
16735W        W91723  28.071  15.541  21.998 -0.0545  0.2468  0.1451
16736W        W91724   6.554   4.836   0.350  0.1180  0.0656  0.1235
16737W        W91725   0.199  31.790   0.534  0.1493  0.1686 -0.1313
16738W        W91726  21.335   0.544   6.673 -0.1877 -0.0435 -0.0526
16739W        W91727  18.948  31.192  20.278  0.2566 -0.0883  0.2614
16740W        W91728  12.495  10.838  12.676  0.1827  0.0293 -0.2246
16741W        W91729   2.840  14.622  18.407  0.1937  0.0164 -0.2478
16742W        W91730  22.537  17.844  16.852  0.1722 -0.2323 -0.0490
16743W        W91731  12.463  33.283  15.134  0.0316 -0.2966 -0.1365
16744W        W91732  32.540  33.053  25.249  0.1131 -0.1615 -0.3521
16745W        W91733  24.254  17.701  13.862 -0.2165  0.0173 -0.1728
16746W        W91734  29.778   4.454   4.787  0.0421  0.1613  0.0856
16747W        W91735  16.609  21.628  20.871  0.2235 -0.0966  0.1603
16748W        W91736  12.131   9.855   1.143  0.0042 -0.2158  0.1152
16749W        W91737  20.337  12.863  23.072 -0.0086  0.0587 -0.0302
16750W        W91738   7.663  11.354   5.798 -0.0663  0.0922  0.1742
16751W        W91739  34.984  10.400  14.341  0.3265  0.0776 -0.0487
16752W        W91740  18.028  31.729  25.665 -0.1261 -0.2170  0.0618
16753W        W91741  15.628  26.518  22.774 -0.0391 -0.1337 -0.1299
16754W        W91742   1.683  29.974  10.153 -0.0712 -0.0599  0.0996
16755W        W91743  26.158  15.991  23.912 -0.0464  0.0488 -0.3748
16756W        W91744  28.084   6.774  24.737 -0.0875  0.0841  0.2496
16757W        W91745  12.864  19.368   8.115  0.0556 -0.1006  0.0595
16758W        W91746  33.305  29.028  17.666  0.1525 -0.2357  0.0445
16759W        W91747   9.748  13.189   5.594  0.1842 -0.0496 -0.1464
16760W        W91748  32.975   1.233  15.480 -0.1964  0.2083  0.2346
16761W        W91749   2.465   4.524   8.123  0.0678 -0.0280 -0.1499
16762W        W91750   4.876  21.236  18.901 -0.1964  0.1103  0.0596
16763W        W91751  13.635  17.616   1.876 -0.1663  0.1954 -0.0999
16764W        W91752  15.950  14.032   2.628 -0.0395  0.0666 -0.0938
16765W        W91753  25.119   9.935  18.452  0.0911 -0.2391 -0.0368
16766W        W91754  12.522  27.336  12.973 -0.1238 -0.3052  0.2876
16767W        W91755  22.755  30.667  21.562  0.0854 -0.0345 -0.0276
16768W        W91756   9.893  21.127  11.688  0.0769 -0.0476  0.1047
16769W        W91757   5.756   5.921  24.915  0.0798  0.3540 -0.1674
16770W        W91758  30.925  30.446   2.889  0.1543  0.1245  0.1695
16771W        W91759   8.313  34.408   1.217  0.1456  0.1888  0.1709
16772W        W91760   5.178  12.878   0.619 -0.0613  0.0317 -0.0181
16773W        W91761  13.841  20.063   9.245  0.0581 -0.1238  0.2959
16774W        W91762  25.329  33.192  24.321  0.4133  0.4839 -0.0209
16775W        W91763  19.869  16.266   4.826  0.1066 -0.3206  0.2971
16776W        W91764  33.034  30.857   0.036  0.0570 -0.2358  0.1586
16777W        W91765   2.177   5.675  15.483  0.2145 -0.0185  0.0537
16778W        W91766  18.165   0.688   0.418  0.2188  0.1857  0.1160
16779W        W91767  19.252   0.347   6.408 -0.2873 -0.1490 -0.3323
16780W        W91768  34.425   9.115  12.761  0.1210 -0.3251 -0.4006
16781W        W91769  22.469  12.203   2.561 -0.0656 -0.0546 -0.1302
16782W        W91770  30.255   9.029  18.581 -0.1837 -0.3493 -0.0826
16783W        W91771  32.907   8.980  11.340  0.3838 -0.0685 -0.1237
16784W        W91772  22.264   5.110   2.293 -0.1252  0.0272 -0.2335
16785W        W91773   9.324  23.369   2.884 -0.1670  0.2409  0.0767
16786W        W91774  33.198   7.713   0.958 -0.2838  0.0792  0.3013
16787W        W91775  13.625  27.253  11.962  0.0723  0.0895 -0.4271
16788W        W91776   1.451  28.683  22.518 -0.0651  0.0110  0.0197
16789W        W91777  15.313  32.597   2.084 -0.0653  0.4611 -0.2336
16790W        W91778  17.318  16.684  18.606 -0.4260 -0.2872  0.3584
16791W        W91779  13.410  14.690   5.121  0.0988  0.0834 -0.0703
16792W        W91780  28.167  34.187  25.327  0.2733  0.1504 -0.0434
16793W        W91781  13.508  35.031   9.221 -0.1716  0.0092  0.2780
16794W        W91782  15.171  20.956  22.488 -0.1572  0.2926  0.0855
16795W        W91783  26.795  11.728   9.960  0.1486 -0.0790 -0.1524
16796W        W91784  34.914  11.873  10.179  0.2652  0.1426 -0.2838
16797W        W91785   0.318  27.400  18.373  0.0138 -0.0776 -0.0231
16798W        W91786   7.886  23.054   7.789 -0.0647 -0.2876  0.1621
16799W        W91787   6.277  34.890  11.657 -0.1807  0.1319  0.1399
16800W        W91788  35.366  34.344  25.658 -0.2025 -0.2321  0.1554
16801W        W91789  19.210  20.028   5.263  0.0983  0.3418 -0.0639
16802W        W91790  10.091  23.401   7.134 -0.1269 -0.3937  0.0372
16803W        W91791  31.639   9.282  17.386 -0.1204  0.4215 -0.2410
16804W        W91792  33.486  18.863  24.175 -0.0173  0.2494  0.0906
16805W        W91793  15.696  10.946  11.034  0.2149 -0.0839  0.0905
16806W        W91794  26.994  24.213   0.223 -0.1659 -0.0946  0.0895
16807W        W91795  34.539  29.899  14.049 -0.3353 -0.3838 -0.0616
16808W        W91796  11.858  10.502  26.233 -0.0127  0.0440 -0.0774
16809W        W91797   5.873  21.444   3.914 -0.0734  0.1366 -0.0686
16810W        W91798   9.289  15.693  20.732  0.4460 -0.4408 -0.7451
16811W        W91799  14.658  19.294  21.721 -0.2026  0.1819  0.1407
16812W        W91800  28.297  15.136  22.203  0.0485 -0.0786 -0.2623
16813W        W91801  13.132   9.251   7.024 -0.1197 -0.0384 -0.0030
16814W        W91802  35.275  30.353  19.457  0.0318 -0.0766  0.2302
16815W        W91803  28.836   8.383  23.008 -0.2150 -0.0332 -0.1114
16816W        W91804  20.303   1.544  21.978  0.1069  0.1026 -0.0553
16817W        W91805  30.895   3.250   1.773 -0.1605  0.1680  0.2306
16818W        W91806  20.809  30.292   3.678  0.0663  0.1687  0.2634
16819W        W91807   2.155  33.782  11.379  0.0444  0.2461 -0.0757
16820W        W91808   7.986  14.844  11.045  0.0766 -0.3371 -0.0523
16821W        W91809  14.518  27.323   0.099 -0.0670 -0.0486 -0.0256
16822W        W91810  32.769  33.058  24.565  0.5058 -0.2395  0.0303
16823W        W91811   7.213  16.734   5.342  0.1137  0.1347  0.0216
16824W        W91812  13.233  14.059   3.924  0.0476 -0.2305  0.2820
16825W        W91813  32.901  29.999  20.979  0.1106  0.1263 -0.0522
16826W        W91814  35.334  20.110   8.417  0.0137 -0.2524  0.1020
16827W        W91815   0.421   1.456   2.249 -0.1243 -0.0866 -0.1035
16828W        W91816  17.028   6.396  22.127 -0.3749  0.0534 -0.1279
16829W        W91817  28.537  23.193  17.974 -0.1853  0.3364  0.1676
16830W        W91818  11.672  26.755  24.891  0.1480 -0.1813  0.1197
16831W        W91819  21.093  28.740  20.078  0.1906  0.1132 -0.1145
16832W        W91820   9.786  31.856   4.100  0.0568  0.0508  0.4755
16833W        W91821  33.760  10.955  11.558  0.0594 -0.0806 -0.0965
16834W        W91822  20.603  30.223  25.601  0.0979  0.0753 -0.2373
16835W        W91823  29.250  29.881  16.815  0.0684  0.0737 -0.2489
16836W        W91824  15.330   8.785  23.195  0.0494 -0.1564 -0.0128
16837W        W91825  22.289   5.260  20.960  0.2113  0.1421 -0.1462
16838W        W91826  33.443  17.530   8.834 -0.2331  0.2067  0.0827
16839W        W91827  35.029  17.093   8.872 -0.1517 -0.0307  0.0182
16840W        W91828   6.617  14.212  21.726 -0.2073 -0.2418 -0.1460
16841W        W91829  32.485   9.617   0.058 -0.3832 -0.1243  0.2336
16842W        W91830  21.458  31.149  21.204  0.1686 -0.2064 -0.0790
16843W        W91831   1.658  34.459   3.428  0.1380 -0.4563 -0.1036
16844W        W91832  10.726  31.830   7.802 -0.2948 -0.2350  0.2900
16845W        W91833  10.553  18.367   8.532  0.2758  0.1739 -0.0599
16846W        W91834  24.870   9.748  22.902 -0.0200 -0.0901  0.0922
16847W        W91835   6.247  23.408   3.958  0.0738  0.2637  0.0441
16848W        W91836  12.458  18.919   6.108  0.0686  0.0206  0.1295
16849W        W91837   7.255  31.029   7.861  0.0880 -0.2908 -0.0583
16850W        W91838  13.542  12.840   3.323 -0.2961  0.0227 -0.2092
16851W        W91839   7.658  33.636  25.898  0.3079  0.0271  0.1770
16852W        W91840  30.427  17.872  19.004  0.1629 -0.0329 -0.0646
16853W        W91841  19.482  19.070   3.272 -0.0303 -0.1829 -0.1904
16854W        W91842  14.719  35.314   3.313  0.0090  0.1121  0.0975
16855W        W91843  15.416  12.436   2.339  0.0895 -0.0568  0.0685
16856W        W91844  34.208  33.123  25.728  0.1474  0.0541 -0.0637
16857W        W91845  34.903   8.327  24.828  0.2770 -0.0515 -0.3121
16858W        W91846   4.492  23.536   0.112 -0.0377  0.0713  0.0269
16859W        W91847  28.268  24.932  14.724  0.1033  0.1072  0.0123
16860W        W91848  21.348  25.423  20.472  0.0963 -0.3294  0.0183
16861W        W91849  25.109  28.942  14.119  0.0684  0.1226 -0.0431
16862W        W91850   4.043  25.429  24.424  0.4062  0.0500 -0.1148
16863W        W91851  33.051   4.439  15.787  0.0857  0.0730  0.2195
16864W        W91852  33.967  16.067  14.548  0.0548  0.0820  0.2036
16865W        W91853  15.222  34.661  24.911  0.6290  0.0114 -0.1494
16866W        W91854  12.817  31.637   4.114  0.3390 -0.3609 -0.0800
16867W        W91855   2.217  23.135  21.795  0.1809 -0.1638  0.1626
16868W        W91856  34.303  14.207   0.356 -0.0643 -0.0711 -0.1608
16869W        W91857  12.421  21.168   9.382 -0.2884 -0.1484  0.0190
16870W        W91858  14.592  20.787   4.397  0.1557  0.1251 -0.0274
16871W        W91859  22.109  22.839  21.011 -0.0295  0.0168 -0.1437
16872W        W91860  15.163   1.840  22.903 -0.3131 -0.0765 -0.2764
16873W        W91861  26.033  28.782  17.828  0.4054 -0.1853  0.3050
16874W        W91862   6.476  26.205  11.303 -0.3085 -0.3440 -0.1075
16875W        W91863  29.808  31.358   0.277  0.2059  0.2256 -0.2118
16876W        W91864  21.848  15.487  24.548  0.1949 -0.0804 -0.1726
16877W        W91865  30.725  10.045  19.449 -0.1709 -0.3163 -0.0629
16878W        W91866  35.220   9.789  21.258  0.1715 -0.2148  0.0237
16879W        W91867  10.853  33.744   2.906  0.2155 -0.1956 -0.1419
16880W        W91868   6.391   5.520   3.544 -0.2600  0.2057  0.2339
16881W        W91869  21.659   7.115  17.446  0.0655  0.1981 -0.1205
16882W        W91870  32.421  31.705  21.153  0.2079  0.1911  0.0813
16883W        W91871  25.853   6.434  17.763 -0.0503 -0.0205 -0.1474
16884W        W91872  28.752  32.792   3.071  0.2307  0.0818 -0.2703
16885W        W91873  17.532   2.768   3.577  0.3277  0.2367  0.2591
16886W        W91874  24.750  17.808  11.856  0.0221 -0.0246 -0.0418
16887W        W91875  25.483  15.274  16.873 -0.0502  0.2866 -0.3218
16888W        W91876   5.766   4.539  22.449  0.0652  0.1419  0.0193
16889W        W91877  31.779  21.766   7.406  0.1002  0.2881  0.0108
16890W        W91878   9.775   7.625  12.722 -0.1285  0.0110 -0.0471
16891W        W91879  15.054  23.075   8.755 -0.0944  0.1172  0.4546
16892W        W91880   6.509  13.996  10.304  0.0288  0.2289  0.0214
16893W        W91881  33.507  34.900   4.026  0.0938  0.0071  0.0472
16894W        W91882  17.073   5.795   8.050  0.1452  0.2961  0.0858
16895W        W91883  21.741  27.167  15.167  0.1144 -0.2490  0.0367
16896W        W91884  12.391  35.369   8.704  0.0737 -0.2975  0.1624
16897W        W91885  30.680  12.698   9.381 -0.0036 -0.0250  0.0894
16898W        W91886  11.337  13.015   0.185 -0.0786  0.2647  0.0160
16899W        W91887  13.968  21.927  14.189  0.0968 -0.1994  0.4616
16900W        W91888   7.697  28.799   2.466  0.0820  0.1426  0.1918
16901W        W91889  11.173  25.197   9.353 -0.2596 -0.1507 -0.1192
16902W        W91890   2.240   0.669   6.055  0.0809 -0.0711  0.1141
16903W        W91891  14.937  27.492  12.673 -0.2468  0.2169  0.3398
16904W        W91892  20.793   9.068   5.026  0.0761 -0.0806  0.0226
16905W        W91893  29.382  33.771   2.091  0.1189 -0.0706 -0.0458
16906W        W91894  27.575  13.816  20.336 -0.0028 -0.0011  0.0572
16907W        W91895  16.832  26.431   6.973  0.2235 -0.1110  0.0767
16908W        W91896   9.688  28.338  13.648 -0.0181 -0.0558  0.3017
16909W        W91897  13.948  30.305  23.336 -0.3094 -0.0355 -0.0584
16910W        W91898  27.073   3.488  22.723 -0.1871  0.0017  0.2748
16911W        W91899  33.399  22.889  16.070  0.3532  0.0780 -0.0268
16912W        W91900  14.191   9.700   2.220  0.0559  0.0033  0.3470
16913W        W91901  30.300   9.054  20.388  0.2837  0.2717  0.2210
16914W        W91902  34.581  26.545  22.392 -0.0791 -0.0230 -0.0437
16915W        W91903   6.773  35.371   5.167 -0.2274 -0.0539  0.1086
16916W        W91904  13.449   8.612  23.008  0.2781  0.0076 -0.0925
16917W        W91905  12.316  14.722   2.834  0.1957  0.0364  0.1722
16918W        W91906   5.042  29.986   9.907  0.0428  0.0611  0.0965
16919W        W91907  15.912  12.433  12.184 -0.0770  0.3049 -0.6175
16920W        W91908  29.817  23.313  23.656  0.1235  0.2177 -0.1749
16921W        W91909  34.239  11.249  17.746 -0.0851  0.1688 -0.0666
16922W        W91910  31.208  11.544   9.977  0.0554  0.1578  0.1384
16923W        W91911  21.056  23.018   1.446 -0.1683 -0.1027 -0.2328
16924W        W91912  21.600  33.165  13.837  0.1442  0.0182 -0.1486
16925W        W91913  25.435  25.898  12.904 -0.0171 -0.0874 -0.0858
16926W        W91914  33.306  13.400   9.859  0.2076  0.1123 -0.0259
16927W        W91915  34.157  26.800  19.484 -0.1181  0.2182  0.1374
16928W        W91916  25.111   3.674  17.048  0.2962  0.1029 -0.1169
16929W        W91917  12.985  16.847   0.532 -0.0681 -0.1292 -0.1175
16930W        W91918  21.539   0.399  22.902  0.0522 -0.1926  0.1973
16931W        W91919   1.544   0.572  25.814 -0.0806  0.1779 -0.1844
16932W        W91920  14.339  33.405  20.183  0.0266  0.3746 -0.0379
16933W        W91921  30.019  15.838  13.347  0.1649 -0.0890  0.2651
16934W        W91922  27.044  13.081  21.949 -0.3762  0.3688 -0.0360
16935W        W91923  21.460   5.123   5.746 -0.2907 -0.1190 -0.0339
16936W        W91924  33.355  11.039  13.468  0.1899  0.2540  0.1247
16937W        W91925  12.500  21.907   8.349 -0.1572  0.0823  0.0754
16938W        W91926  13.142   4.884   3.701  0.2385  0.0311 -0.1064
16939W        W91927  15.596  14.240   1.254  0.2118 -0.0912 -0.0964
16940W        W91928  19.255  28.127   2.543  0.2736  0.0909  0.0389
16941W        W91929   5.754  12.487   5.920  0.1507  0.1906  0.2725
16942W        W91930  17.099  32.987   4.171 -0.1635  0.0273 -0.1041
16943W        W91931   5.831   7.966  21.988  0.2131  0.0149 -0.1021
16944W        W91932  17.951  11.570  25.774  0.4052  0.0515  0.1086
16945W        W91933  10.024  25.100   7.976 -0.0579  0.0001 -0.2066
16946W        W91934  17.352  16.930  19.760  0.3083 -0.2478 -0.3582
16947W        W91935  14.182   3.904  11.950 -0.0767  0.1799  0.2644
16948W        W91936  21.349  25.944   0.181 -0.3600 -0.1129  0.2487
16949W        W91937  32.085  24.305  20.754  0.1603 -0.2198  0.3175
16950W        W91938  21.207   4.116  19.324 -0.2063  0.0162 -0.1833
16951W        W91939  24.598   4.264  14.155 -0.2901  0.1710  0.4059
16952W        W91940  18.009  30.364  24.126 -0.1644  0.1811 -0.0744
16953W        W91941  19.343   1.350   7.684  0.0121 -0.0563 -0.0177
16954W        W91942  22.983  25.356  19.888  0.0476  0.2184 -0.0124
16955W        W91943   3.886   0.214  17.497 -0.1276 -0.0019 -0.1617
16956W        W91944  35.188  12.831  14.558  0.1936  0.0230 -0.0833
16957W        W91945   1.737  21.328  23.431 -0.0105 -0.0758 -0.0364
16958W        W91946  21.996  10.756   2.962 -0.0280  0.0777 -0.4132
16959W        W91947  20.114  32.064  20.002 -0.0550 -0.0739 -0.3477
16960W        W91948  11.002  35.047   8.146  0.0264 -0.0461  0.1971
16961W        W91949   4.881   6.327  23.155 -0.1639 -0.2445  0.0834
16962W        W91950  32.585  25.391  22.095  0.2777  0.1696 -0.0769
16963W        W91951  21.614  18.537  23.293  0.0405  0.1327  0.0112
16964W        W91952  19.955   2.534   0.190  0.1188  0.2450  0.0335
16965W        W91953   9.803   7.492   4.894 -0.1478  0.1355  0.0683
16966W        W91954   3.193  19.095   1.882 -0.2643 -0.0516 -0.2842
16967W        W91955  12.986  28.999   3.653 -0.3956  0.2647 -0.1101
16968W        W91956  26.890  19.866  10.071  0.1139 -0.0794 -0.0355
16969W        W91957  11.344  34.097  12.401 -0.3963 -0.1713 -0.1439
16970W        W91958  28.875  25.651  21.373 -0.4650  0.4287  0.2037
16971W        W91959  14.613  14.549  13.733 -0.0395  0.0094  0.2577
16972W        W91960  29.528  31.709   5.675  0.2609 -0.1495  0.0353
16973W        W91961  11.851  26.608   6.998 -0.1341  0.2047 -0.1427
16974W        W91962   3.416  14.131  16.554 -0.1106 -0.0922  0.3353
16975W        W91963  16.565   8.428  11.391  0.1457 -0.0016  0.2202
16976W        W91964   9.224  21.151  25.546  0.0504 -0.1618 -0.2313
16977W        W91965   4.791  17.923  24.039 -0.2155  0.1137 -0.0531
16978W        W91966   5.409  15.401  21.802 -0.3092  0.0851 -0.1494
16979W        W91967  27.272  12.933  19.197 -0.3284 -0.0709  0.2491
16980W        W91968   0.539   0.982   2.403 -0.2628 -0.1415 -0.0172
16981W        W91969  24.637   0.967  13.961 -0.1315  0.0283  0.1449
16982W        W91970  34.661  32.628  20.276 -0.1899 -0.1815 -0.2035
16983W        W91971  14.546   1.488  22.250 -0.0307 -0.3917  0.3128
16984W        W91972  25.337  28.745  17.900 -0.2400  0.2081  0.2435
16985W        W91973  15.068   7.633   0.659 -0.0478 -0.3182 -0.1888
16986W        W91974  23.657  31.504  11.598 -0.0536 -0.1594 -0.2192
16987W        W91975  26.644   2.927   3.952 -0.0075 -0.0842 -0.0777
16988W        W91976  32.824   6.945   1.142  0.3510  0.3386 -0.0900
16989W        W91977   4.361  27.475  12.370  0.0156 -0.0201  0.0505
16990W        W91978  20.568  15.438  21.266 -0.1755 -0.0008 -0.1090
16991W        W91979   2.455  16.589  15.322  0.0469 -0.4322 -0.2674
16992W        W91980  15.434  16.565   6.450  0.0289  0.2568  0.1874
16993W        W91981  10.529   2.173   7.267  0.3128 -0.3935 -0.1088
16994W        W91982  21.185   0.567  24.013 -0.0136 -0.0558 -0.2217
16995W        W91983   9.656  32.220   5.452  0.0528 -0.1532  0.2967
16996W        W91984  30.890   8.883  17.659  0.0190  0.1667  0.7431
16997W        W91985  28.968   5.488  13.666 -0.2358 -0.2974  0.1044
16998W        W91986  18.029  22.988   4.165 -0.1611  0.0920  0.2780
16999W        W91987  12.595  10.962   5.354  0.0402  0.4380  0.1113
17000W        W91988  25.902  24.248  13.091  0.0256  0.0530 -0.0185
17001W        W91989   2.442  32.754  19.841  0.1236  0.2098  0.0128
17002W        W91990  12.713  29.707  16.364  0.0902 -0.1082 -0.0235
17003W        W91991   6.160   8.057  10.357  0.1444  0.1414 -0.0500
17004W        W91992  11.528  22.394  12.362  0.0157  0.0782  0.0996
17005W        W91993   2.821  22.476   0.111  0.3992 -0.0402 -0.2097
17006W        W91994   2.751  35.141  20.333 -0.0285  0.4045 -0.2403
17007W        W91995  14.355  29.870   9.102  0.1281  0.2137  0.0838
17008W        W91996  18.100   7.432   7.085  0.0387 -0.0327 -0.0996
17009W        W91997  25.752   3.079   3.425  0.1504  0.2314  0.4349
17010W        W91998  27.971  28.990  17.983 -0.3300  0.0652 -0.3246
17011W        W91999  23.919   8.451  17.737 -0.1594  0.0371  0.0182
17012W        W92000   1.458   9.124  19.424  0.1385  0.1600  0.0225
17013W        W92001  10.760  21.328   9.655  0.1345 -0.1678  0.1451
17014W        W92002  33.463  16.602  10.859 -0.4371  0.1228 -0.2863
17015W        W92003  16.783  16.662  23.401 -0.1722  0.0419 -0.0846
17016W        W92004   5.235  16.747   8.600 -0.0306  0.1439  0.1460
17017W        W92005  16.767  29.387  23.521 -0.0292  0.0353  0.1846
17018W        W92006  19.543   0.185   1.087  0.0231  0.0444 -0.0242
17019W        W92007   8.905   5.099  20.729 -0.1170  0.2724  0.1838
17020W        W92008  17.232   6.759   6.124  0.1586 -0.1012 -0.2216
17021W        W92009  21.493  33.825  24.725 -0.0104  0.0446 -0.3255
17022W        W92010  28.333   5.217  21.377 -0.0558 -0.0119  0.0665
17023W        W92011   0.235  30.976   0.742 -0.0541  0.2933  0.0160
17024W        W92012  13.489  16.069  24.888  0.0219 -0.0783 -0.1036
17025W        W92013  19.196  16.892   7.741 -0.1923  0.0170 -0.2354
17026W        W92014  26.455  20.740  14.185 -0.1807 -0.3263  0.1684
17027W        W92015  16.223   6.387   1.076 -0.0324  0.0991  0.5423
17028W        W92016  33.773   2.899  24.753  0.1228  0.1432 -0.2186
17029W        W92017  29.049  15.382  17.984 -0.4843 -0.0415  0.2910
17030W        W92018   6.819  22.750   4.415 -0.3315 -0.2366  0.1990
17031W        W92019  13.859   3.231  21.503 -0.0268  0.1923  0.0560
17032W        W92020   4.561  15.979   2.735 -0.1936  0.0878  0.2219
17033W        W92021  14.543  30.082  11.681 -0.1001  0.2470 -0.1820
17034W        W92022  27.280  30.427   0.518 -0.1281 -0.3260 -0.1282
17035W        W92023  14.923  19.125   8.915  0.1563 -0.2865  0.2552
17036W        W92024  26.820  22.832   7.947 -0.0620 -0.0273  0.2252
17037W        W92025   0.944  31.930  22.016  0.3190 -0.0188  0.0259
17038W        W92026  16.384  10.485   3.451  0.1319  0.1467  0.1173
17039W        W92027  35.297  21.299  19.577  0.0539 -0.1894  0.0253
17040W        W92028  21.745  26.704   4.978 -0.1738  0.2216  0.2552
17041W        W92029  14.898  18.870  11.836 -0.0855 -0.2507  0.1405
17042W        W92030  26.349   9.337  11.019 -0.0846 -0.0065 -0.3317
17043W        W92031  30.820  16.602  24.633 -0.0613 -0.2137 -0.2252
17044W        W92032  26.404  12.769  25.787 -0.0107  0.3409 -0.0271
17045W        W92033  27.508  10.156  22.673  0.4123 -0.3523  0.2237
17046W        W92034  30.494   0.932  15.026 -0.1971  0.3909  0.0029
17047W        W92035  20.123  14.243   1.658  0.1091 -0.0505 -0.1190
17048W        W92036  32.865   3.960  22.014  0.2041  0.3107 -0.0895
17049W        W92037  21.303  27.807  24.058 -0.2513  0.0079 -0.1301
17050W        W92038  20.553  29.236   1.772 -0.3316 -0.3953 -0.0459
17051W        W92039  25.595  30.577   5.039  0.0113 -0.0776  0.0284
17052W        W92040  35.047  26.976  23.583 -0.0021 -0.2181 -0.0699
17053W        W92041  12.715   0.836  19.617 -0.1905 -0.0620  0.1185
17054W        W92042  33.775  16.481  25.607 -0.0361  0.3285  0.1299
17055W        W92043   9.676   7.308   7.660  0.0655  0.0746  0.0982
17056W        W92044  10.900  12.508  20.712 -0.2070 -0.4237  0.1102
17057W        W92045   2.760  25.062   3.642  0.0634 -0.4526 -0.1103
17058W        W92046  23.562  11.256  13.162  0.1611 -0.0186 -0.1195
17059W        W92047  17.835  11.134   7.063  0.0025 -0.1106  0.3712
17060W        W92048  25.228  35.352  16.975 -0.3202  0.5556 -0.2347
17061W        W92049  34.380  10.940  12.081 -0.1558  0.1810  0.0277
17062W        W92050  22.080  27.336   4.382  0.1539  0.1304  0.0838
17063W        W92051   8.158  24.472   1.474 -0.0796 -0.2486 -0.0847
17064W        W92052  32.700   6.697  24.331  0.0852 -0.0569 -0.2017
17065W        W92053  11.866  24.528  10.086 -0.4698 -0.1172  0.0077
17066W        W92054  32.201  15.290  17.239  0.2033  0.1614 -0.0343
17067W        W92055   2.181   2.344  23.342 -0.1578 -0.1688  0.3774
17068W        W92056   2.932  13.666  22.036 -0.0718  0.3465  0.0668
17069W        W92057  23.913  31.968  18.003 -0.2077 -0.3774  0.3480
17070W        W92058  21.269   5.062  18.422 -0.0666 -0.5030 -0.2251
17071W        W92059  12.411  19.104  14.528 -0.0463  0.0610  0.1572
17072W        W92060   4.640  11.890  22.006  0.3377 -0.0049  0.1540
17073W        W92061  10.696  32.635   1.090 -0.3495 -0.1653 -0.2514
17074W        W92062   1.833   5.718  16.935  0.1003 -0.2953  0.1967
17075W        W92063   5.203  19.057   2.097 -0.0991 -0.1561  0.2836
17076W        W92064  32.320   5.987  15.503 -0.0273 -0.2842 -0.0325
17077W        W92065  12.868   8.020  19.686 -0.0980  0.1368 -0.1263
17078W        W92066  19.546  16.596  17.059  0.1249  0.1709  0.0120
17079W        W92067  14.245   6.377  21.057  0.1221  0.0331  0.0010
17080W        W92068  24.746  29.865  25.346 -0.2074 -0.0968  0.1751
17081W        W92069  25.908  25.530   1.888  0.1480  0.1788 -0.1573
17082W        W92070  22.101  20.662  18.312  0.0217  0.2183  0.1929
17083W        W92071  28.844  31.272  24.580  0.0281 -0.2348 -0.1516
17084W        W92072  25.580   0.774  20.985  0.1307  0.3339 -0.0481
17085W        W92073  32.658  11.043   1.339 -0.1801 -0.2361  0.0632
17086W        W92074  31.827   8.632  24.525 -0.0427 -0.0037 -0.0630
17087W        W92075  13.403  19.897  14.588  0.1612 -0.1649  0.1965
17088W        W92076   9.925  19.246  12.302 -0.0400  0.2894 -0.0194
17089W        W92077  31.170  22.030  20.173 -0.2113 -0.2427 -0.1241
17090W        W92078  28.445  19.761  21.229  0.4933 -0.1583  0.2303
17091W        W92079  31.351  28.062  22.689  0.0704  0.3155 -0.1384
17092W        W92080  24.581  34.630   6.471 -0.1870 -0.1839 -0.0611
17093W        W92081  19.438  34.976  14.958 -0.0809 -0.0033 -0.3046
17094W        W92082  33.157  29.939   0.343  0.2349  0.0436 -0.1755
17095W        W92083  25.355   3.060  24.579  0.2908 -0.0064  0.2656
17096W        W92084   8.711   5.139  24.175  0.0621  0.0516 -0.1589
17097W        W92085   6.715  12.869  18.401  0.0768  0.1801  0.0152
17098W        W92086  20.277   3.043  25.265 -0.2192  0.2334 -0.1759
17099W        W92087  10.629  25.288   8.027 -0.2143 -0.1255  0.1781
17100W        W92088  27.945  14.729   6.177  0.0316  0.1681  0.1325
17101W        W92089  10.606   1.503  13.068 -0.1092  0.1493 -0.0945
17102W        W92090  31.801   5.538  13.448  0.2867 -0.3641 -0.0334
17103W        W92091  15.804   4.382   9.421 -0.4051 -0.0171  0.0114
17104W        W92092  28.209  18.004   4.918  0.0412  0.3074 -0.3446
17105W        W92093  12.250   8.099   7.448  0.0635 -0.0018  0.0695
17106W        W92094  27.515  33.742  17.361  0.0219  0.1141 -0.0892
17107W        W92095  21.276   7.174  16.685 -0.0792  0.1313  0.2703
17108W        W92096   9.654  27.516   7.465  0.1073 -0.1338 -0.3411
17109W        W92097  13.541   2.509  12.078 -0.0143  0.0341  0.0031
17110W        W92098  21.466  11.487  16.328  0.1208  0.1161 -0.1087
17111W        W92099  30.593  11.856  11.038  0.0897  0.0725 -0.1494
17112W        W92100  14.212  13.204   1.527 -0.1983  0.1924  0.0164
17113W        W92101  26.933  21.524  17.830  0.0494 -0.0979  0.2649
17114W        W92102  15.829  19.462   7.190 -0.1761 -0.0314 -0.0088
17115W        W92103  12.664  18.845   1.709  0.0908 -0.0816  0.0052
17116W        W92104   8.469   7.771  22.731 -0.0826 -0.1381  0.0842
17117W        W92105  24.416   6.379  20.070  0.0310 -0.0629 -0.1004
17118W        W92106  30.342  32.128  11.587 -0.2705 -0.4949  0.2749
17119W        W92107  20.700   3.737  18.605 -0.0536 -0.0964  0.1249
17120W        W92108  27.259   7.949  19.227 -0.2000  0.0968  0.0754
17121W        W92109  21.414  30.237  15.632  0.3530  0.1632  0.1187
17122W        W92110  21.994  34.083   3.711 -0.1516 -0.1672  0.2865
17123W        W92111  33.953  15.020  16.444 -0.1117  0.0084 -0.0079
17124W        W92112   0.497  24.675  12.540 -0.2364  0.2054 -0.3153
17125W        W92113  22.994  22.642  17.406  0.3284  0.1961  0.1090
17126W        W92114   3.812  15.189  19.354 -0.1638 -0.2380  0.1345
17127W        W92115  27.624  12.346  26.047  0.2463  0.1297 -0.1101
17128W        W92116   5.845   4.924   2.770 -0.0315  0.0317 -0.0328
17129W        W92117  16.718   4.981   3.335  0.3905 -0.0130  0.1693
17130W        W92118  13.060   5.191   8.002 -0.4096 -0.3312  0.1460
17131W        W92119  21.992  20.730  23.060  0.0945  0.1464 -0.0843
17132W        W92120  12.381  16.608  19.997 -0.3484 -0.0200 -0.1992
17133W        W92121  33.177  33.772  19.729 -0.2254 -0.0553  0.0044
17134W        W92122  33.648  19.217  11.289  0.1374  0.2020  0.2279
17135W        W92123   8.063   8.571  13.549  0.0361 -0.0405 -0.0700
17136W        W92124  23.391  15.050  21.609  0.1119  0.1997  0.3163
17137W        W92125  30.355   8.866  19.051 -0.1588  0.0461 -0.3012
17138W        W92126  28.964  24.506  10.960 -0.3215 -0.0727  0.0144
17139W        W92127  29.914  22.343  19.418 -0.0208 -0.3048 -0.2148
17140W        W92128  23.052   5.543  21.290  0.1126  0.0227  0.1307
17141W        W92129  17.097   6.271  24.831  0.3372  0.0945 -0.0893
17142W        W92130  10.155  31.286  13.066  0.1982 -0.0087 -0.1175
17143W        W92131  10.080  16.450   9.460 -0.1552 -0.0544  0.1822
17144W        W92132  15.697  29.045   6.806  0.0596 -0.2204  0.1394
17145W        W92133   2.325   2.686  24.095 -0.1985  0.0651  0.0069
17146W        W92134  15.032   7.126  26.170 -0.0790 -0.1179 -0.0019
17147W        W92135  25.724  18.993  20.950  0.3703  0.1685 -0.0146
17148W        W92136  31.859  17.897  11.587  0.1857 -0.0064 -0.3238
17149W        W92137  12.009  26.271  16.641 -0.1683 -0.2222  0.2242
17150W        W92138  35.031   5.534   2.271 -0.0484  0.0530 -0.2855
17151W        W92139  32.686  24.340   8.684  0.1031  0.1802 -0.1330
17152W        W92140   1.535   2.509  22.360 -0.0195 -0.0318  0.3640
17153W        W92141  29.278  11.221  10.546  0.0983  0.3656 -0.2032
17154W        W92142   5.666  27.890   4.900 -0.0409 -0.0250  0.0042
17155W        W92143  34.839  21.868  16.099  0.0293 -0.0886 -0.0581
17156W        W92144  20.145  17.784  25.285 -0.0177  0.0685  0.0777
17157W        W92145  12.399   9.004  24.370  0.2417  0.0722 -0.3133
17158W        W92146  13.003  35.175   0.542  0.0197  0.1314  0.1217
17159W        W92147   0.248  13.742  14.856 -0.0793  0.1252 -0.2461
17160W        W92148   9.404  28.820  24.038 -0.0249 -0.0864  0.1675
17161W        W92149  13.545  26.431  21.818  0.3209  0.3729 -0.1435
17162W        W92150  29.882  30.156  18.403  0.1354  0.1135  0.1722
17163W        W92151  13.518  33.272   6.681 -0.0185 -0.0676  0.3885
17164W        W92152   9.647   9.052   3.918  0.1051  0.2234  0.0712
17165W        W92153  11.718  30.747  23.976 -0.3481 -0.0520  0.0568
17166W        W92154  27.716  18.652   9.416 -0.0002  0.0760 -0.3992
17167W        W92155  17.123  30.419   6.759 -0.1399  0.0174  0.0844
17168W        W92156   0.678  29.412  18.655  0.1981 -0.2992  0.2471
17169W        W92157   6.893  14.444  10.924 -0.1325  0.0678  0.5198
17170W        W92158   4.794   6.420  19.168  0.0993 -0.1099  0.1286
17171W        W92159  29.832   9.352  14.061  0.1373  0.0309  0.0458
17172W        W92160   7.286  28.046   4.658 -0.1098  0.0217 -0.1269
17173W        W92161  13.434  26.967  15.070  0.1707 -0.2294 -0.1294
17174W        W92162   8.593  22.288  10.003 -0.1105  0.1159 -0.2826
17175W        W92163   0.147  12.984  20.104  0.0495 -0.1837 -0.2402
17176W        W92164  26.627  18.209   8.329 -0.0495 -0.0841  0.2392
17177W        W92165   0.427  16.753  26.057  0.0976 -0.0019  0.2941
17178W        W92166  10.923  14.014   1.423  0.1584  0.2051 -0.3155
17179W        W92167  31.648   2.103  23.198 -0.0809  0.1093 -0.5755
17180W        W92168   5.866  12.227  10.126 -0.0658  0.1633  0.1499
17181W        W92169  33.243  24.160  23.161 -0.1696 -0.0707 -0.1907
17182W        W92170  22.553   6.378  24.614 -0.0282 -0.1107 -0.1409
17183W        W92171  20.263   0.616  17.117 -0.1005  0.4708 -0.3370
17184W        W92172   0.362  12.685  19.724  0.1538  0.1335  0.0628
17185W        W92173   8.879  14.454  21.241  0.0918 -0.1348  0.2133
17186W        W92174   9.719  34.731   4.211  0.3892  0.0279  0.0425
17187W        W92175  13.375  16.844  11.745 -0.1304 -0.1618  0.1583
17188W        W92176  13.647   9.139  25.705 -0.0177  0.0958  0.0143
17189W        W92177  16.732  10.616  12.738 -0.0882  0.1448 -0.4771
17190W        W92178  15.143  10.847  12.100 -0.1976  0.1576  0.1139
17191W        W92179  19.880  25.152  17.877  0.1347 -0.0599 -0.2401
17192W        W92180  11.057   6.560   5.504  0.0231 -0.2209  0.3333
17193W        W92181  11.358  20.000   8.604 -0.0497 -0.1641  0.0575
17194W        W92182  15.751  25.460  21.512  0.0254 -0.2496  0.1967
17195W        W92183  34.092   4.230   4.482  0.1414  0.1047  0.0033
17196W        W92184   5.453  28.728   2.959  0.0902 -0.0167 -0.3147
17197W        W92185   2.533  16.775  25.270  0.0623 -0.1592  0.0140
17198W        W92186  34.125  27.674   3.014  0.0542 -0.0838 -0.0348
17199W        W92187  22.160  19.432   1.355  0.0199 -0.0471 -0.1379
17200W        W92188  16.117   1.476  23.388  0.2445 -0.0791  0.3826
17201W        W92189   7.670  27.427  11.456  0.2367 -0.2409 -0.0874
17202W        W92190  10.913   5.731  19.728  0.0921 -0.1207 -0.2864
17203W        W92191   7.915  23.940  25.851  0.2302 -0.1406 -0.1310
17204W        W92192  16.307  24.250   3.722 -0.1466  0.1044 -0.4719
17205W        W92193  18.501   1.572   4.510  0.1564 -0.0014 -0.0539
17206W        W92194  30.172  23.736   8.309  0.0024 -0.1936 -0.1007
17207W        W92195  24.414  16.375  20.918 -0.0875 -0.2647  0.1678
17208W        W92196  29.452  19.898  19.083 -0.0018  0.0687 -0.1169
17209W        W92197  20.362  23.994  18.576 -0.1998 -0.3800  0.0465
17210W        W92198   1.146  26.438   1.830  0.1393  0.0178  0.1866
17211W        W92199  12.501   6.768   5.855 -0.1659 -0.0145 -0.1227
17212W        W92200  29.745  29.017  18.495 -0.1543  0.1421  0.2225
17213W        W92201  32.947   7.467  12.403 -0.0277  0.2514  0.0592
17214W        W92202  19.088   8.066   4.916 -0.1436  0.1290  0.2418
17215W        W92203  31.092  30.608  18.862  0.1325  0.1491 -0.2422
17216W        W92204  12.573   9.683   7.949  0.0453 -0.0507  0.0626
17217W        W92205  12.299  20.954  12.604 -0.1198 -0.3662  0.1199
17218W        W92206  20.291  17.865  21.639 -0.0768 -0.0536  0.1827
17219W        W92207  22.936   8.087  16.849 -0.0412 -0.0805  0.0305
17220W        W92208  28.616  16.547  12.535 -0.1975 -0.0001  0.1800
17221W        W92209   3.597   4.857  22.079 -0.0455  0.0700  0.2635
17222W        W92210  10.231   0.680  12.609 -0.2678  0.0277 -0.0199
17223W        W92211   8.623  34.283  11.994  0.1055  0.0421  0.2635
17224W        W92212  28.250   0.605  21.857  0.1948 -0.1934  0.2887
17225W        W92213   7.662  28.568   6.807  0.1749  0.1939  0.2192
17226W        W92214  27.568  22.064  25.891  0.0580 -0.1147  0.0456
17227W        W92215  13.370  34.338   0.546  0.2603 -0.0814  0.1917
17228W        W92216  25.476  26.358  22.518 -0.0134 -0.3513 -0.0531
17229W        W92217  33.150  32.813  17.588 -0.2646 -0.2541 -0.2154
17230W        W92218  29.206  13.932  21.222 -0.0190  0.0059 -0.0427
17231W        W92219   8.919   9.178   3.293 -0.0868 -0.2748 -0.4216
17232W        W92220  25.084   1.248   6.185  0.0783  0.3369  0.1577
17233W        W92221  10.028  34.104   4.526  0.0152  0.0001 -0.1202
17234W        W92222  13.777   4.933   7.284  0.1891  0.2337  0.1578
17235W        W92223  10.911  26.277  23.727 -0.2555  0.2996 -0.2749
17236W        W92224  26.542   7.551  17.301 -0.1496 -0.1047 -0.4060
17237W        W92225  27.114  25.985  26.007 -0.0261  0.4875  0.0874
17238W        W92226   7.973   9.354   9.918  0.0885 -0.1898 -0.1088
17239W        W92227  31.564  10.272  19.075 -0.0703  0.2624  0.0962
17240W        W92228  30.036  16.551  17.384 -0.0821 -0.0301  0.0873
17241W        W92229  27.867  18.048  15.678 -0.1262  0.1113  0.2826
17242W        W92230  21.158  29.281   1.212 -0.1411  0.0036 -0.0397
17243W        W92231  29.878   9.999  24.668 -0.0177  0.0616 -0.0860
17244W        W92232  34.545  26.302  24.458 -0.3535  0.2458 -0.2429
17245W        W92233  13.373  32.173   5.542  0.0531  0.3025 -0.0848
17246W        W92234   8.963  30.184  24.519 -0.3644  0.2971  0.3394
17247W        W92235  19.826   8.643   3.692 -0.0297  0.2841  0.0807
17248W        W92236  31.582  19.668  12.027  0.0867  0.0630 -0.1025
17249W        W92237  23.128  14.620  17.820  0.2296 -0.0285  0.1111
17250W        W92238  19.395   7.729   6.449  0.1154  0.3636 -0.0352
17251W        W92239  16.021  25.071  14.854 -0.0747 -0.2272  0.2363
17252W        W92240  14.790  16.889   7.076 -0.0367 -0.0758 -0.1894
17253W        W92241  29.926  19.339  15.330  0.0396  0.2445 -0.5542
17254W        W92242  26.944   2.164  20.561  0.3657 -0.2196  0.0383
17255W        W92243  14.343  21.915  15.818 -0.0446 -0.1832 -0.1253
17256W        W92244  26.847  29.603  17.137 -0.0217 -0.2502  0.1402
17257W        W92245  14.887   6.444   5.817 -0.0760 -0.3703 -0.0077
17258W        W92246  17.837  32.038  20.594 -0.1241 -0.1445 -0.1918
17259W        W92247  29.734   4.122   2.645  0.0051  0.0945 -0.1366
17260W        W92248  16.264   6.818  10.849  0.2451 -0.0321  0.2709
17261W        W92249  10.880  32.382   3.761 -0.0886  0.3583  0.4955
17262W        W92250  11.907  28.099   7.055  0.2504  0.0631  0.2797
17263W        W92251   9.508   0.886   2.617  0.0692  0.4364  0.0454
17264W        W92252  14.637  17.478   9.753 -0.3394  0.2120 -0.1062
17265W        W92253  32.705  20.831  22.815 -0.1632  0.2231 -0.0770
17266W        W92254   4.249  12.872   3.456  0.0293 -0.0834  0.2350
17267W        W92255   5.521   0.410  22.533 -0.0006 -0.1860 -0.1129
17268W        W92256  24.292  33.866   1.182  0.0097 -0.1407 -0.2323
17269W        W92257   0.067  27.026  16.349  0.0686  0.1272  0.0681
17270W        W92258   1.416  32.718  19.653  0.0790 -0.1899  0.2398
17271W        W92259   7.695  13.487   2.420  0.2680 -0.0916 -0.0851
17272W        W92260  10.207  26.903   7.230 -0.2164 -0.0721  0.0146
17273W        W92261  13.691   4.347   5.005  0.0709  0.0714  0.0936
17274W        W92262   4.398  10.011  16.083  0.0078 -0.0501 -0.1192
17275W        W92263  11.969  34.952  10.681 -0.0848 -0.1357  0.1841
17276W        W92264  12.474  32.222  13.347  0.1200 -0.0244 -0.0400
17277W        W92265  25.816  17.232  14.633 -0.2024  0.2794 -0.2547
17278W        W92266  11.110   0.997  12.414  0.1703  0.1010  0.0874
17279W        W92267   1.716  34.219  23.577  0.0305 -0.2278  0.0613
17280W        W92268  31.906  19.424  25.035 -0.1744 -0.0029  0.0058
17281W        W92269  20.311   1.345  26.041 -0.3215 -0.1731 -0.0809
17282W        W92270  29.789  31.269   2.145 -0.1012  0.0762 -0.0427
17283W        W92271  11.072  14.592   0.078 -0.1944 -0.0893 -0.2136
17284W        W92272  32.480  20.497  21.264  0.1247  0.4116 -0.2433
17285W        W92273   9.072  10.453  25.869  0.0085 -0.0031 -0.1726
17286W        W92274  28.225   9.356  17.337  0.2403  0.2440  0.0005
17287W        W92275  11.320  17.770  10.721  0.0855  0.0826  0.0976
17288W        W92276   3.310  33.670  25.654 -0.0222 -0.2467 -0.1766
17289W        W92277  34.448  33.083   1.935  0.0890  0.0578  0.1216
17290W        W92278   9.349   6.240   8.606  0.1494 -0.2663  0.3535
17291W        W92279  20.503  22.068   3.417  0.0345  0.3359 -0.1317
17292W        W92280  27.813  30.928  12.042 -0.1560  0.1309 -0.2297
17293W        W92281   1.213   8.243  18.025  0.1225  0.1201  0.3208
17294W        W92282  21.028  19.099  19.458  0.0518  0.1938  0.0936
17295W        W92283   5.500   1.654   0.906  0.1334  0.0257  0.4312
17296W        W92284  33.353   8.340  11.831  0.2263 -0.0131  0.0037
17297W        W92285  11.419  34.912   8.466 -0.1621  0.0844 -0.1820
17298W        W92286  27.066   8.135  11.113  0.1253 -0.0518 -0.2497
17299W        W92287  12.767   8.283   8.088  0.1126  0.0444  0.0881
17300W        W92288   7.971  23.116  10.165 -0.1479  0.0181  0.0389
17301W        W92289  34.542  20.627  14.783  0.0258  0.1039  0.1684
17302W        W92290  14.862  32.190  10.157  0.1586 -0.0423  0.2320
17303W        W92291  27.433  19.199  23.637  0.2079 -0.1307 -0.0627
17304W        W92292   1.857  11.977  21.998 -0.1501 -0.0754 -0.0488
17305W        W92293  26.368  24.706  20.883  0.1522  0.0489 -0.0332
17306W        W92294  27.093   3.284   4.000  0.2395 -0.1944 -0.0038
17307W        W92295   0.743  10.060  18.488  0.2189  0.0465  0.0947
17308W        W92296  30.545  30.527  21.184  0.1304 -0.1304  0.1586
17309W        W92297  18.589  11.939  23.140 -0.0405 -0.4801  0.2081
17310W        W92298  24.357  10.529  19.577 -0.0036 -0.2552  0.3565
17311W        W92299  13.616  23.758   0.544 -0.0231  0.0095  0.1100
17312W        W92300  19.576   1.396   4.846  0.0876 -0.1441  0.0305
17313W        W92301  20.302  14.514  17.633 -0.0115 -0.2415 -0.1816
17314W        W92302  34.257  28.208   4.285  0.0893  0.0072  0.4372
17315W        W92303  24.012  30.670   2.871  0.2071 -0.0632 -0.4349
17316W        W92304   6.126  23.061   9.939  0.0159  0.0869 -0.3282
17317W        W92305  18.378   3.683  25.298 -0.1347  0.3394 -0.2511
17318W        W92306  30.209  29.917  10.319 -0.2266  0.0658  0.4194
17319W        W92307   7.066  28.727   6.005  0.1224  0.2911  0.0736
17320W        W92308  26.696  13.553  13.173 -0.0067  0.0486 -0.0211
17321W        W92309  13.958  32.622   9.516 -0.4280  0.1654 -0.0497
17322W        W92310  15.615   8.203   6.507  0.1141  0.0863 -0.2010
17323W        W92311  29.040  33.239  17.669 -0.2303 -0.0007 -0.2238
17324W        W92312  17.608   0.365  17.930  0.3464 -0.0021  0.0198
17325W        W92313   9.843  31.638  21.199  0.0286 -0.0704  0.2574
17326W        W92314  13.056  34.408  23.850 -0.1953  0.0473 -0.0861
17327W        W92315  30.907   3.738  15.707  0.0475 -0.0866 -0.5080
17328W        W92316  13.446  32.610   7.769  0.0664  0.2174 -0.1348
17329W        W92317  31.840  28.691  17.972  0.0351 -0.0509  0.0592
17330W        W92318  23.737  23.097  12.587 -0.0337  0.0646  0.0771
17331W        W92319  18.355  30.253   8.592  0.0222 -0.0679  0.0397
17332W        W92320  14.773  15.891  10.236 -0.1777 -0.0268  0.0295
17333W        W92321  12.067  20.141   6.751 -0.0422 -0.1215 -0.1879
17334W        W92322   9.723  33.588   5.839 -0.0457  0.1931  0.1087
17335W        W92323  10.709  15.594  25.333  0.3626 -0.3197  0.1605
17336W        W92324   7.257  22.752  25.128  0.2292 -0.0977 -0.5921
17337W        W92325   2.715  31.933  21.614 -0.1102 -0.0746 -0.1131
17338W        W92326  13.137  31.787  13.350 -0.1514  0.0571 -0.1121
17339W        W92327  31.040  20.376  23.587  0.3269  0.1776 -0.0948
17340W        W92328  15.475  19.302  22.273 -0.1292 -0.0272 -0.1497
17341W        W92329  15.455  16.987  24.116 -0.0462 -0.0582  0.2062
17342W        W92330   6.788  28.268  13.487  0.0491 -0.0146 -0.0015
17343W        W92331   4.748   5.564   6.120  0.1400  0.0526  0.1245
17344W        W92332  33.898  25.030  11.603 -0.2940  0.1212  0.4329
17345W        W92333   3.759  32.663   3.490 -0.2209 -0.1030 -0.0469
17346W        W92334  19.462  12.111   1.569  0.3153  0.2359  0.1411
17347W        W92335  16.426  10.419  22.037 -0.1161  0.0167 -0.2279
17348W        W92336  26.598  13.080   9.230  0.0831 -0.0774  0.0665
17349W        W92337  10.076   1.280   2.601  0.1220  0.1033  0.0757
17350W        W92338  30.764   2.267  19.547 -0.1335 -0.0729 -0.0494
17351W        W92339  23.430   7.970   3.386 -0.0441 -0.1067  0.0892
17352W        W92340  11.667  25.741   5.207  0.2655  0.0853  0.0298
17353W        W92341   3.971  23.292  25.662  0.1753  0.0112 -0.2489
17354W        W92342   1.614  10.149  15.710  0.0217  0.1375  0.0884
17355W        W92343  26.471  20.450   5.073  0.0658 -0.2173  0.1069
17356W        W92344  25.496  29.710   2.712  0.0635  0.0905  0.0040
17357W        W92345  25.972   3.988  16.365 -0.3379 -0.0507 -0.0933
17358W        W92346   1.033   1.638   6.546  0.1485  0.2155  0.0004
17359W        W92347   9.963  31.807   4.553  0.1990 -0.3085 -0.2608
17360W        W92348  32.038  17.086  23.244  0.2015  0.1569  0.1205
17361W        W92349  21.586  17.736   2.469 -0.2339  0.1883  0.0550
17362W        W92350  21.371  33.597   6.350 -0.1222  0.0273 -0.3143
17363W        W92351  31.393  10.556   9.083 -0.0373  0.1556  0.0300
17364W        W92352   8.660  13.835  24.090 -0.2450 -0.0997  0.2768
17365W        W92353   7.347  10.111   2.890 -0.2786 -0.2052  0.0275
17366W        W92354  29.241   0.187   1.866 -0.0071 -0.1498  0.0923
17367W        W92355   8.765  18.171  24.467 -0.1336  0.0244  0.0352
17368W        W92356  11.949   2.427  12.007 -0.1604  0.2296  0.1350
17369W        W92357   1.144  29.122  23.282  0.2316 -0.1724  0.0895
17370W        W92358   4.981  26.414   3.896  0.4107  0.3269 -0.0249
17371W        W92359   0.985   8.843  12.185  0.0201 -0.0633  0.2467
17372W        W92360   0.927   3.896  13.862 -0.0773 -0.0323 -0.0569
17373W        W92361  28.210  33.392  12.815 -0.0385 -0.0137 -0.0720
17374W        W92362   7.581   9.236   9.592  0.1429  0.1325 -0.2400
17375W        W92363  10.305  10.569   1.418  0.1511  0.0504  0.0772
17376W        W92364  13.567  31.438  13.545  0.0121  0.1734 -0.0910
17377W        W92365   6.586   1.464  20.830  0.1044 -0.0747  0.3215
17378W        W92366   5.731  28.342   9.907 -0.1350 -0.3440 -0.3926
17379W        W92367  21.667  24.953   3.269  0.0354 -0.2923  0.4171
17380W        W92368  10.952   5.894  22.202 -0.2352  0.0250 -0.1164
17381W        W92369   0.559  31.793  15.326 -0.2367 -0.2723 -0.3038
17382W        W92370  14.355  31.267  10.289  0.3112  0.0381 -0.0196
17383W        W92371  22.755  28.960  24.765 -0.1079  0.3209 -0.0884
17384W        W92372  33.202   3.257   5.185  0.1494  0.0221  0.2138
17385W        W92373  10.348  20.434   8.729  0.0432 -0.0931 -0.2223
17386W        W92374  27.888  33.451   0.318  0.1039 -0.0735  0.0744
17387W        W92375  22.136  32.081  19.108  0.1749 -0.0805  0.5066
17388W        W92376   4.418  10.364  22.658  0.2814  0.1429 -0.0873
17389W        W92377   5.373  29.628   7.285  0.2232 -0.1232 -0.2440
17390W        W92378  17.511   8.555   7.203 -0.0640  0.0685  0.1937
17391W        W92379  20.368  34.024  18.760 -0.3905 -0.1592 -0.1677
17392W        W92380  26.936  20.187  15.391  0.1653 -0.1068 -0.2044
17393W        W92381   9.552  34.941  13.752  0.1221 -0.0382 -0.0427
17394W        W92382   9.174  19.157   2.930 -0.0597  0.1310 -0.1050
17395W        W92383  10.101  10.785  13.778 -0.0784 -0.2965  0.2831
17396W        W92384   4.128   0.801  23.975  0.0275  0.2998 -0.2869
17397W        W92385  13.061  29.854  25.354  0.0439 -0.5192  0.0840
17398W        W92386  33.155   3.809  15.085  0.2037 -0.3996 -0.1315
17399W        W92387  18.016  34.209   8.474 -0.4324 -0.1658  0.1278
17400W        W92388   9.002  33.390   6.837 -0.0300  0.2380 -0.1482
17401W        W92389   3.527   3.964  25.075 -0.0262 -0.1497  0.1613
17402W        W92390   4.366  28.565   7.995 -0.0546  0.0014 -0.1083
17403W        W92391  17.550  13.002   5.347  0.2585  0.3934  0.0481
17404W        W92392  29.838  15.075  16.926  0.0735 -0.1836  0.0210
17405W        W92393  31.761  28.363   1.255  0.0817  0.0101 -0.0070
17406W        W92394   5.591  29.078   0.954 -0.1403 -0.0052 -0.1524
17407W        W92395  20.220  22.864   6.409 -0.3126  0.2480  0.0909
17408W        W92396   6.555  30.633   7.496 -0.0018 -0.0378 -0.1392
17409W        W92397   8.812  27.854  20.941 -0.0107 -0.2082  0.0107
17410W        W92398  11.369  27.307  15.413  0.1985 -0.0053 -0.0259
17411W        W92399  29.362  35.093  25.470  0.3278  0.2136  0.1674
17412W        W92400   0.409   1.292  16.754 -0.3772 -0.3333 -0.1760
17413W        W92401  30.528   0.335  21.511  0.0699 -0.0959  0.2439
17414W        W92402   2.026  24.495  17.382 -0.1543 -0.4928  0.0820
17415W        W92403  19.425  29.327   7.598  0.0749  0.2425  0.3095
17416W        W92404   0.627  27.439   2.992  0.1207 -0.2629 -0.2171
17417W        W92405   2.091   5.203  18.230 -0.1219  0.0609  0.0854
17418W        W92406  35.350  15.794  19.581 -0.1057  0.0484 -0.2403
17419W        W92407  11.587  10.736   9.225 -0.1037  0.1610 -0.0660
17420W        W92408  21.663  30.032  18.897  0.0245 -0.1141 -0.1343
17421W        W92409  16.483  27.850  22.634  0.0467  0.1726  0.1523
17422W        W92410   6.365  29.483  13.611 -0.1042  0.1898  0.0346
17423W        W92411   0.119  17.616   0.186  0.3247  0.0777  0.0835
17424W        W92412  18.865  20.341  12.155  0.0260  0.0827  0.3106
17425W        W92413   4.337  33.737   2.752 -0.1647 -0.1004  0.1349
17426W        W92414  11.887  17.862  20.799  0.0962 -0.0916  0.2265
17427W        W92415  24.005  20.003  13.214  0.1680  0.0037  0.0644
17428W        W92416  32.343  33.193  24.791  0.2588 -0.1762  0.0035
17429W        W92417   3.865  31.909  24.986 -0.1483 -0.0816 -0.1468
17430W        W92418   4.450  17.914  19.465  0.2945 -0.3204 -0.1647
17431W        W92419  15.175  27.775   2.997 -0.1360  0.1637 -0.2339
17432W        W92420  33.604  25.969  12.091 -0.1157  0.1617 -0.2658
17433W        W92421  28.032  10.737  25.625  0.0148  0.1513 -0.4364
17434W        W92422  26.442  33.276  15.654  0.0240  0.2659 -0.1581
17435W        W92423   0.139  21.312  15.219 -0.4058 -0.0130 -0.1303
17436W        W92424  31.394  24.981  10.471  0.1109 -0.1528  0.2333
17437W        W92425  32.458  30.232   1.542 -0.1159 -0.1822  0.0429
17438W        W92426  33.244  32.653  23.702  0.3967 -0.2537 -0.1369
17439W        W92427  35.163  20.593  17.372 -0.2530 -0.0672 -0.5913
17440W        W92428  19.341   8.498   1.515 -0.1295  0.1349 -0.2800
17441W        W92429  11.485  26.487  23.782 -0.2801 -0.0554 -0.1124
17442W        W92430  16.899  25.129   9.281  0.2270  0.3912 -0.1356
17443W        W92431  22.562  20.425  13.908  0.0942  0.2843 -0.0935
17444W        W92432  18.855  13.713  18.012 -0.1532 -0.3459  0.2462
17445W        W92433  28.654   4.418   0.395 -0.1502  0.0533  0.0383
17446W        W92434  34.604  12.199  26.239 -0.0208 -0.2573 -0.4016
17447W        W92435  13.503   5.867   7.264 -0.0174  0.2727 -0.0139
17448W        W92436   5.349  33.295   6.622  0.0848  0.1456  0.0583
17449W        W92437  30.874  20.479   8.618 -0.1411 -0.0187 -0.0610
17450W        W92438  25.879  34.897  17.382  0.0408 -0.0171 -0.0949
17451W        W92439  23.462  31.070  25.037  0.2552 -0.0665 -0.2763
17452W        W92440  16.840   6.303   0.315 -0.1469  0.2145  0.3428
17453W        W92441   0.637  24.201  16.464  0.1465  0.0966 -0.0442
17454W        W92442   7.666  29.048   0.920 -0.0279 -0.2017 -0.2826
17455W        W92443  32.189  13.322  13.358  0.1123 -0.1898 -0.0359
17456W        W92444   9.030  20.015   3.078  0.1687 -0.1386  0.0627
17457W        W92445  13.475  26.724   9.181  0.1730  0.2738  0.1931
17458W        W92446  14.770   1.277   3.754 -0.2266  0.0315 -0.3997
17459W        W92447  13.768  31.884  10.814  0.3399  0.2381 -0.2228
17460W        W92448  28.740  14.422  18.723 -0.0273  0.0627 -0.3179
17461W        W92449  13.671  24.860   2.306  0.1984 -0.3927 -0.2664
17462W        W92450  23.904   4.269   0.636  0.0506  0.0515  0.3172
17463W        W92451  14.453  18.138  13.256 -0.0912 -0.1286  0.4447
17464W        W92452  17.683   6.658   5.239 -0.1154  0.3043  0.0246
17465W        W92453  25.988   1.700   0.585 -0.1076 -0.0219 -0.1590
17466W        W92454  32.441  13.071  12.290  0.0364  0.0365 -0.1687
17467W        W92455  12.957  22.002   7.993 -0.1594  0.0755  0.2469
17468W        W92456  22.194  25.085  15.787  0.1379 -0.2242  0.1799
17469W        W92457  23.863  22.732  15.868  0.0595 -0.0603 -0.2612
17470W        W92458   5.148  13.172   3.013 -0.2961  0.3819  0.1682
17471W        W92459  19.989  32.223   5.105  0.3413 -0.0745 -0.0440
17472W        W92460  32.068  28.895   2.704  0.0096  0.1982 -0.1778
17473W        W92461   6.544  27.455  21.792 -0.1959 -0.2125  0.3442
17474W        W92462  29.879   4.154   3.279 -0.1973 -0.0219  0.0586
17475W        W92463  15.201   3.552  17.551 -0.0790 -0.0166 -0.0058
17476W        W92464  14.217  12.153   5.410 -0.0698  0.3199  0.1717
17477W        W92465   1.213  15.795  17.224 -0.1894  0.2484 -0.2902
17478W        W92466  18.381  28.395   7.189 -0.0977 -0.0375 -0.1632
17479W        W92467   7.334  27.976  12.922  0.2370  0.2853  0.0104
17480W        W92468   3.809  35.168  22.498 -0.4169 -0.1598  0.2673
17481W        W92469  15.935  18.471  23.176  0.2316 -0.2161 -0.1394
17482W        W92470  13.578  33.273  25.204 -0.3589 -0.0083 -0.1310
17483W        W92471  27.626   4.648  19.968  0.0811  0.1604  0.2286
17484W        W92472  34.227  18.454  21.984  0.1853 -0.0019 -0.1036
17485W        W92473  10.998   9.563  20.362  0.1839 -0.0418 -0.1340
17486W        W92474  32.140   4.283  20.956  0.0123  0.2070  0.2260
17487W        W92475   6.207   9.161   1.180  0.0210  0.2688 -0.1690
17488W        W92476  13.503  14.499  19.044  0.2484  0.1264 -0.2965
17489W        W92477   9.978  24.534  23.281 -0.1234 -0.0113 -0.2130
17490W        W92478  12.012   6.238  23.367 -0.1983 -0.2198 -0.0683
17491W        W92479  32.000   2.071  19.198  0.1564 -0.1840  0.1263
17492W        W92480  29.302  15.991  25.260  0.1761 -0.1589  0.4314
17493W        W92481  34.803  17.031  25.877 -0.2046  0.0229 -0.3130
17494W        W92482   2.334  32.983   1.463 -0.2374  0.2370  0.1031
17495W        W92483  12.123  13.152  22.217  0.0517 -0.2835 -0.0214
17496W        W92484  16.195  18.775   8.641 -0.0058 -0.1349  0.0255
17497W        W92485  17.105  34.903  17.869  0.2852 -0.0040  0.2444
17498W        W92486  30.984  28.950   1.214 -0.0729 -0.0062 -0.0164
17499W        W92487  12.093   9.692  23.209 -0.1934  0.0582  0.0996
17500W        W92488   5.878   8.894   2.475 -0.0298 -0.0724 -0.0730
17501W        W92489   8.944  11.784   3.684  0.2566 -0.0612  0.1863
17502W        W92490  24.230  15.808  19.973 -0.0080 -0.0885 -0.0160
17503W        W92491   1.092  11.786  19.391 -0.0731  0.1154 -0.3361
17504W        W92492   7.225   2.704  24.462 -0.0682 -0.0427 -0.0815
17505W        W92493   0.754  29.230  26.235  0.3173 -0.1976 -0.2950
17506W        W92494  12.435   9.911  13.616 -0.0292  0.1422  0.2461
17507W        W92495  15.548  17.488   0.466  0.3143 -0.0313  0.2533
17508W        W92496  11.408  33.256   7.295 -0.0549 -0.0225 -0.0944
17509W        W92497  15.077  21.658   8.820  0.0902  0.1449 -0.2853
17510W        W92498  15.716  30.101   7.747 -0.1405  0.1021  0.3533
17511W        W92499  16.231  28.466   2.985 -0.1269 -0.0796 -0.2872
17512W        W92500  13.321  19.400  24.418 -0.3287 -0.1109  0.1646
17513W        W92501  19.957   2.773   8.890  0.1776  0.1745 -0.0202
17514W        W92502   8.259  18.180  23.900 -0.1103  0.2431  0.1405
17515W        W92503  21.220  18.791  17.880 -0.0380 -0.1331  0.4975
17516W        W92504  34.110  25.464  24.096  0.4717  0.1087 -0.0910
17517W        W92505  22.052  11.706  18.966 -0.0850 -0.2494  0.1347
17518W        W92506   4.163  11.461   4.733  0.2256  0.0885  0.2533
17519W        W92507  15.489  23.819  14.723 -0.0013  0.0699  0.0377
17520W        W92508  20.224   7.497  20.882  0.0124 -0.2289  0.0831
17521W        W92509  21.142   7.722  23.443 -0.0836 -0.0504  0.3389
17522W        W92510  12.132   6.465   1.383  0.1174  0.0231  0.1004
17523W        W92511  16.692  11.712   2.026  0.2094  0.1979  0.1841
17524W        W92512  26.286   2.115  21.985  0.0119  0.3050 -0.3593
17525W        W92513  32.661  31.302   0.947 -0.0873 -0.0931 -0.1170
17526W        W92514   4.622  28.905   0.034  0.2102  0.1673  0.2182
17527W        W92515  29.298  33.768  24.449  0.3727 -0.3131 -0.3796
17528W        W92516  23.171  18.429  20.067  0.2360  0.0962  0.0517
17529W        W92517   3.154  35.118   5.078 -0.0334 -0.1353 -0.2029
17530W        W92518  14.705  31.750  22.866 -0.1270  0.4151 -0.1406
17531W        W92519   5.694  35.338   8.321 -0.1858 -0.2592  0.0395
17532W        W92520  12.801  25.443  16.594  0.1140  0.1360 -0.4458
17533W        W92521  22.852   7.965   2.817  0.4892  0.0954 -0.1375
17534W        W92522  18.065   3.879   1.752  0.1294  0.0307 -0.0650
17535W        W92523  28.443  19.080   5.119 -0.0323  0.1690  0.0962
17536W        W92524  31.675  12.888  23.323  0.0459 -0.2563 -0.0373
17537W        W92525   7.203  11.269   4.673 -0.3261  0.2223 -0.2023
17538W        W92526  13.868   4.363   9.626 -0.4509 -0.1666  0.1738
17539W        W92527  34.398  18.475  10.583 -0.0851 -0.1562 -0.0468
17540W        W92528  19.208  10.784   4.388  0.0722 -0.0081  0.0500
17541W        W92529  21.822  27.211   2.032  0.2296  0.1777 -0.0467
17542W        W92530  27.935  22.519   0.221 -0.0000 -0.2935 -0.2062
17543W        W92531  29.148   3.726   1.406  0.2064 -0.4361 -0.0874
17544W        W92532  16.221  24.355  14.426 -0.0475  0.1945  0.1948
17545W        W92533  29.537  28.953  11.599 -0.1993  0.3500 -0.1826
17546W        W92534   5.934  14.598  21.828  0.1218  0.1678 -0.2677
17547W        W92535  30.282  19.730  22.408 -0.0377 -0.3652  0.2140
17548W        W92536  32.026  30.044  15.344 -0.2350 -0.2490 -0.3910
17549W        W92537   9.717  33.999  14.216  0.1188 -0.2049  0.3205
17550W        W92538  27.915  21.333  18.475 -0.0176 -0.1491  0.1135
17551W        W92539  26.819  33.874  11.268  0.2523 -0.1349 -0.4693
17552W        W92540   5.430  21.763   5.338  0.1317 -0.1644  0.1717
17553W        W92541  28.517   2.847  23.422 -0.0940 -0.3342 -0.2570
17554W        W92542  32.702  23.299  19.662  0.0173 -0.0145  0.3201
17555W        W92543  17.758  33.908   9.812  0.0727 -0.2927  0.1317
17556W        W92544  31.880  30.432  22.701  0.0872 -0.0185 -0.2564
17557W        W92545  14.126  19.325   9.645  0.1115 -0.1516 -0.0104
17558W        W92546  32.763   6.185  25.627  0.0621  0.0209  0.0133
17559W        W92547  31.294  15.250  18.637 -0.3670  0.3184 -0.2469
17560W        W92548   0.381  26.073   2.772  0.4530  0.0161 -0.4002
17561W        W92549  10.642  28.513   4.513  0.2018  0.0374 -0.4867
17562W        W92550  28.423  13.577  25.708  0.2449  0.0266 -0.0908
17563W        W92551  21.582  18.725  15.893  0.0593 -0.1312 -0.1429
17564W        W92552   2.905   8.695  14.869 -0.1564 -0.1805 -0.0752
17565W        W92553  15.914   0.328   2.693  0.2441  0.1540 -0.2882
17566W        W92554  32.177  26.040  20.691  0.1337 -0.0468  0.2196
17567W        W92555  27.101  12.081  18.095 -0.2375 -0.2087 -0.2694
17568W        W92556  16.511  11.060   1.699  0.2758 -0.2274  0.2027
17569W        W92557  32.317   6.898   1.103  0.1228  0.1989 -0.1754
17570W        W92558   3.300  16.240   4.964 -0.4718  0.1213  0.1623
17571W        W92559   7.886  25.942   7.823  0.2738  0.2694 -0.3123
17572W        W92560  32.865  28.839  12.194 -0.1760  0.0958 -0.1607
17573W        W92561   3.862  35.104   2.422 -0.1532  0.0500  0.1002
17574W        W92562  15.476  10.518  25.384  0.3152  0.2245 -0.2399
17575W        W92563  19.416   2.818  21.218  0.0205 -0.0098  0.0305
17576W        W92564  10.319  16.049  20.610 -0.3693 -0.1285 -0.2421
17577W        W92565   6.557  21.825   7.960  0.1001  0.0400 -0.2713
17578W        W92566  13.340  20.280  23.133  0.0501  0.0042 -0.1630
17579W        W92567  14.562  15.299   4.090  0.1570  0.0899 -0.1671
17580W        W92568  17.182  17.640   0.570 -0.0204 -0.0550 -0.0527
17581W        W92569  12.635  20.949   6.883  0.3450  0.0848  0.3082
17582W        W92570  30.198  19.921  19.899  0.0307  0.0784 -0.1160
17583W        W92571  33.519   0.931  24.596 -0.0910 -0.0274  0.1884
17584W        W92572   0.343   5.839  14.032  0.1813 -0.1320  0.2039
17585W        W92573  13.390  12.549  23.432 -0.2342 -0.0505  0.0534
17586W        W92574  17.726  14.412  24.823  0.1162 -0.2714 -0.0720
17587W        W92575  22.506  32.500  26.092 -0.5908 -0.1566  0.2902
17588W        W92576   1.754   9.529  13.879 -0.0960  0.2798 -0.3180
17589W        W92577  30.256  15.634   4.069  0.1331 -0.0769  0.0646
17590W        W92578  34.558   7.141  16.895 -0.0630 -0.2718 -0.0744
17591W        W92579   2.619  32.362   5.515  0.0821  0.3334 -0.1254
17592W        W92580   5.109  28.914   0.053 -0.0914  0.0073  0.0495
17593W        W92581  13.013   4.960   7.507  0.1796 -0.1881 -0.1273
17594W        W92582   0.731  17.087  19.549 -0.2557  0.1866  0.0547
17595W        W92583  17.475  34.636   7.532  0.0558  0.3953 -0.0725
17596W        W92584  16.278  20.652  20.675  0.2765  0.3233  0.2075
17597W        W92585   8.813  19.536  12.991  0.4014  0.1466  0.0627
17598W        W92586  24.179  23.984  25.995 -0.1234 -0.1512  0.2286
17599W        W92587   1.994  18.981  19.820  0.3079  0.3664 -0.0860
17600W        W92588  17.799  31.945   0.401 -0.0530 -0.2553  0.1024
17601W        W92589  24.643  18.962  22.050 -0.1062 -0.1641  0.0626
17602W        W92590  27.714  27.568   0.691 -0.1083  0.2186 -0.2873
17603W        W92591  18.201   3.422  17.423  0.1316 -0.2509  0.3257
17604W        W92592  15.957  10.140  22.299  0.1299 -0.0342 -0.0177
17605W        W92593  24.118  23.867  23.770 -0.2957 -0.0067 -0.2090
17606W        W92594   8.623  31.840  13.487  0.1906 -0.1065  0.1646
17607W        W92595   1.558   3.306  23.687  0.0063 -0.0003 -0.2237
17608W        W92596  31.396  15.988  16.420 -0.3725  0.0975 -0.1339
17609W        W92597  19.758   4.784   0.737  0.0851  0.2664  0.0188
17610W        W92598  34.098  28.880  17.836  0.0292  0.0340  0.0443
17611W        W92599  18.718  11.069  20.929 -0.0621  0.1508  0.1252
17612W        W92600  34.295   2.629   0.799 -0.1033 -0.0047 -0.0518
17613W        W92601  30.838  18.276  16.848 -0.2437  0.2760 -0.2654
17614W        W92602   2.267  33.410  21.721 -0.0709  0.2058 -0.1716
17615W        W92603   7.108  18.785  10.622  0.1758  0.3432 -0.0496
17616W        W92604  21.630  12.270  19.734 -0.0961 -0.4638 -0.0296
17617W        W92605  29.225  17.580  12.611 -0.2888 -0.4809 -0.0625
17618W        W92606  12.617  21.763  16.842 -0.3716 -0.0945  0.1136
17619W        W92607  22.731  33.491  23.230 -0.0456 -0.1313  0.0189
17620W        W92608  25.281  14.740  20.702 -0.2036 -0.1798  0.1505
17621W        W92609   1.107  16.124   9.520 -0.4051  0.2315 -0.2952
17622W        W92610  34.782   3.187  17.214 -0.0693 -0.1056 -0.3005
17623W        W92611  21.893  13.774  15.797 -0.0676 -0.3500  0.1419
17624W        W92612  15.820   8.456  13.634  0.2278 -0.2080  0.1470
17625W        W92613   7.696  19.527  26.053 -0.0051  0.1772  0.1620
17626W        W92614  16.490   2.221   3.558  0.0860  0.2707 -0.1199
17627W        W92615  21.582  33.894   4.761 -0.3327  0.1520  0.1042
17628W        W92616  26.573  31.361   4.708 -0.2586 -0.1104  0.0536
17629W        W92617  19.154  17.900   9.250 -0.2944  0.0832 -0.0675
17630W        W92618   3.488  22.806   2.336  0.3062 -0.0912  0.0029
17631W        W92619  24.127  16.610   0.172  0.1923  0.1138 -0.2015
17632W        W92620  16.649  26.026   4.550 -0.2357  0.1190 -0.2358
17633W        W92621  11.167   9.709   5.891 -0.1670 -0.2390  0.1528
17634W        W92622   5.734  27.541   9.255  0.0592 -0.0584  0.2451
17635W        W92623  15.316  16.155  13.012 -0.0540 -0.1537 -0.1286
17636W        W92624  33.274   9.504  16.785 -0.0162 -0.0147  0.1702
17637W        W92625  34.957   5.170   4.810  0.1124  0.1492  0.3034
17638W        W92626  12.180  19.326   0.544 -0.2176  0.1201  0.3402
17639W        W92627  13.804  23.426  15.853  0.0746  0.0611 -0.1452
17640W        W92628  32.084   2.236  25.068 -0.0111  0.1894 -0.0364
17641W        W92629   4.378  30.703  23.122 -0.1551  0.1123 -0.1180
17642W        W92630  22.477  21.967   1.879 -0.2105 -0.0219  0.1321
17643W        W92631  16.146   2.636   2.698  0.0198 -0.3945  0.2527
17644W        W92632  21.456  20.874   1.711  0.2416  0.1557 -0.2139
17645W        W92633  24.605  29.677  15.254  0.1898  0.1581 -0.2023
17646W        W92634   5.296  26.067  25.448 -0.1831  0.1616  0.0666
17647W        W92635  28.246  21.823  15.616  0.0199 -0.1022  0.0618
17648W        W92636  33.640  32.887  19.959 -0.0976  0.0562 -0.0306
17649W        W92637  29.588  14.070  14.940  0.2148 -0.6634  0.2321
17650W        W92638  29.372  15.532  26.028  0.4779  0.2382  0.2215
17651W        W92639   1.713  31.785  24.707 -0.5037 -0.2789 -0.2052
17652W        W92640   7.874  33.745   5.671  0.0048  0.0881 -0.0795
17653W        W92641  28.796  29.031   1.026  0.0224 -0.5108 -0.2199
17654W        W92642  27.225  26.869  15.778  0.2206  0.1323  0.0776
17655W        W92643   5.357  35.331   9.144  0.1706 -0.1378 -0.0682
17656W        W92644  28.185  21.452  14.357 -0.1211 -0.2552 -0.1003
17657W        W92645   8.597  31.704  25.055  0.1389 -0.3234 -0.3463
17658W        W92646  34.564  21.885  24.873  0.0810 -0.0804 -0.0402
17659W        W92647  11.028   4.355  11.366 -0.1055 -0.0337  0.1451
17660W        W92648  20.915  29.924   5.147 -0.0458  0.0509  0.1876
17661W        W92649   3.381  10.204  17.039  0.1336 -0.1444  0.0674
17662W        W92650  21.072  26.596  24.324  0.2717  0.2353 -0.1434
17663W        W92651   3.064   6.790  24.852 -0.0163 -0.3823 -0.2429
17664W        W92652   9.405  10.774   2.052 -0.1303 -0.0989  0.0500
17665W        W92653  24.582  19.439  11.973 -0.0683 -0.1070 -0.2028
17666W        W92654  10.377  31.997   9.749  0.1658  0.1741  0.2424
17667W        W92655  12.941  29.760  23.554  0.0762  0.2408  0.0579
17668W        W92656  13.674  23.495  11.887 -0.1621  0.1259 -0.0474
17669W        W92657  23.226  15.404   2.068  0.0586 -0.0015  0.0152
17670W        W92658  27.266   5.653  23.209  0.3594  0.2329 -0.0133
17671W        W92659  34.103  24.517  13.370 -0.0083  0.1698  0.0877
17672W        W92660  14.647  31.177   8.232  0.0286  0.0025 -0.0427
17673W        W92661  34.680  18.021  20.890 -0.1883 -0.0206  0.2137
17674W        W92662   6.495  27.966   2.402 -0.0908 -0.3178  0.0227
17675W        W92663   8.088  27.339  10.424  0.0677 -0.0509 -0.0856
17676W        W92664   8.189  23.251   0.793 -0.3635 -0.0059 -0.0106
17677W        W92665  14.361  33.670   2.829  0.0644 -0.0931  0.0818
17678W        W92666  10.636   4.610  22.042 -0.0024 -0.0110 -0.0599
17679W        W92667   4.431  10.444   1.484  0.1119  0.2825 -0.1028
17680W        W92668  21.459  32.627   3.960 -0.0094 -0.0551  0.3020
17681W        W92669  34.317  34.896  19.447  0.1072  0.4571  0.0363
17682W        W92670  18.134   9.526  23.541  0.0288  0.1744  0.0601
17683W        W92671  32.250  27.338  14.646 -0.0513  0.2166 -0.2367
17684W        W92672  13.244  21.317   6.920 -0.1465 -0.0563 -0.0429
17685W        W92673  30.341   8.129  25.336  0.1532 -0.1052  0.3632
17686W        W92674  15.986  27.278  22.614 -0.0550  0.0691  0.2647
17687W        W92675  20.896  18.803   6.527  0.0635 -0.1896  0.0985
17688W        W92676   3.063  34.761  10.712 -0.0159 -0.1759  0.1111
17689W        W92677  32.960  14.226  17.495 -0.1341 -0.0141  0.0378
17690W        W92678  20.449  27.661   7.773  0.4054 -0.1863  0.3820
17691W        W92679   7.286  30.091  23.508 -0.0337  0.0310 -0.1436
17692W        W92680  20.280  28.038   0.524  0.0470  0.0087  0.1397
17693W        W92681  10.757  28.827  22.215 -0.3232  0.0463 -0.3032
17694W        W92682  13.579  25.612  14.848 -0.2072 -0.1296 -0.0467
17695W        W92683  18.760   9.744  22.824 -0.3079 -0.0086  0.1693
17696W        W92684  23.578  26.693  15.772  0.0809  0.0710  0.2242
17697W        W92685  26.296  13.417  22.715 -0.1071 -0.3170 -0.3046
17698W        W92686  15.954  31.927  23.500  0.0212  0.1671  0.2792
17699W        W92687  16.700   2.862  20.855  0.1091  0.1971 -0.2754
17700W        W92688  30.721  28.334  21.055  0.0180 -0.3919  0.6242
17701W        W92689  29.091  32.666  25.530 -0.0198  0.0946 -0.1688
17702W        W92690   1.179  16.656  21.331 -0.0535  0.2248 -0.1422
17703W        W92691  30.492   4.199  21.769 -0.1927 -0.0423 -0.0480
17704W        W92692  29.196  19.570  21.445  0.1822  0.2492 -0.1896
17705W        W92693   9.567  31.426   9.276  0.0331  0.2304 -0.1102
17706W        W92694  28.590  27.512  17.622 -0.3138  0.2464 -0.2984
17707W        W92695  31.169  31.124   0.629  0.0443 -0.3265 -0.0228
17708W        W92696  15.648  22.929  14.750 -0.0732 -0.1420  0.2698
17709W        W92697   2.088  24.764   5.263  0.0827 -0.2574 -0.0230
17710W        W92698  22.713   7.543  16.640 -0.3540  0.4660 -0.0245
17711W        W92699  31.891  33.515  14.865  0.0086  0.0609 -0.0065
17712W        W92700  26.407   9.814  12.652  0.0194 -0.0242 -0.1288
17713W        W92701  29.407   4.962   2.138 -0.1005 -0.0655 -0.0965
17714W        W92702  10.730  29.861  24.825 -0.1056  0.0348  0.2730
17715W        W92703   4.676  18.400  19.487 -0.0196  0.2389  0.3397
17716W        W92704  29.567  34.616  23.306 -0.1658 -0.1624 -0.1844
17717W        W92705  27.848  13.055  10.363 -0.1273  0.0073 -0.2593
17718W        W92706   7.065  15.452   1.988 -0.0962 -0.0288  0.2613
17719W        W92707  13.551  29.300  14.282  0.4223 -0.2941  0.3578
17720W        W92708   4.792  10.514  23.069 -0.1238  0.0766 -0.1395
17721W        W92709  32.532  12.757  23.583 -0.3993 -0.1229  0.1764
17722W        W92710   2.622  35.087   6.382 -0.1471  0.0892 -0.1621
17723W        W92711   1.298   4.549   1.812  0.3538 -0.0224 -0.0202
17724W        W92712  21.777  22.727  20.630  0.1551 -0.1521 -0.1087
17725W        W92713  12.019   8.937   5.605 -0.1684 -0.2597 -0.1867
17726W        W92714  28.960  30.793  16.533 -0.0075 -0.2803  0.0224
17727W        W92715  24.454  17.820  10.629 -0.2478 -0.3131  0.1752
17728W        W92716  33.708  14.751  19.846  0.1548 -0.3401 -0.1588
17729W        W92717   8.382   3.929   7.393  0.0167 -0.2512  0.1460
17730W        W92718  31.855  15.263  22.825 -0.4978 -0.1419  0.1775
17731W        W92719   6.369  18.609   0.173  0.1130 -0.0314 -0.0495
17732W        W92720  13.049  17.263  25.099 -0.0703 -0.0975 -0.2307
17733W        W92721   8.761  25.441  10.382  0.1430 -0.0213  0.2572
17734W        W92722  17.040  33.467   9.355  0.0127 -0.3611  0.0466
17735W        W92723  13.089  31.195  24.283 -0.1125 -0.3338  0.3767
17736W        W92724   5.652  17.863   7.834 -0.2536 -0.0417 -0.1144
17737W        W92725  13.660  16.771  20.860 -0.2441  0.0705  0.2683
17738W        W92726  10.241   8.010  13.629  0.1737 -0.1561 -0.0212
17739W        W92727   8.554  30.993   9.285 -0.2214 -0.0701  0.2163
17740W        W92728   5.351  22.629   3.393  0.0235  0.0843  0.0739
17741W        W92729   8.815  12.654   8.638  0.0688  0.0585 -0.0988
17742W        W92730  14.446   8.510  10.532  0.0183 -0.0586 -0.1642
17743W        W92731  28.440  31.982   4.904  0.1093 -0.1247  0.0193
17744W        W92732   3.543  27.332   4.267  0.0455  0.1719 -0.1310
17745W        W92733  14.523   2.857  23.968  0.2285 -0.2003 -0.0066
17746W        W92734  12.514   1.580  20.634 -0.1485 -0.3497  0.2974
17747W        W92735  12.266  20.408  10.084  0.0701  0.0875  0.0745
17748W        W92736   4.542  34.176  25.813  0.2468  0.1485  0.1831
17749W        W92737   1.795  13.939  15.604  0.2971  0.1307  0.1531
17750W        W92738  23.447  23.965  19.598 -0.3018  0.0893 -0.0900
17751W        W92739   3.613  24.997   5.656  0.1939  0.0248 -0.2074
17752W        W92740   4.873  28.413  21.549 -0.1864 -0.1090 -0.1246
17753W        W92741   7.666  20.996  22.143 -0.3489  0.0261  0.4417
17754W        W92742   9.008  26.031  24.850  0.0960 -0.2908 -0.1683
17755W        W92743  16.140  16.215   5.910 -0.0610  0.0109  0.0548
17756W        W92744  30.699   3.243  14.634 -0.1154  0.0223  0.0019
17757W        W92745  35.352  14.793  13.696 -0.0814  0.1068 -0.2442
17758W        W92746  29.587   4.366  12.042 -0.0665 -0.0065  0.2474
17759W        W92747  18.877  19.563  24.248 -0.2088 -0.2229 -0.4259
17760W        W92748  20.438  22.921   3.098  0.1512 -0.0535 -0.1316
17761W        W92749   9.615  30.728   5.518  0.1041  0.1783  0.2540
17762W        W92750  22.777  33.693  22.745  0.1040 -0.0395 -0.3767
17763W        W92751  28.410   6.572  17.169  0.0812 -0.1930  0.0359
17764W        W92752  16.123   5.554   7.886  0.1275 -0.1385  0.1460
17765W        W92753  26.075  29.560   0.257 -0.1351 -0.0455 -0.2203
17766W        W92754  29.995  31.434  18.151  0.0745  0.2038 -0.0102
17767W        W92755  23.839  19.015  21.331 -0.1669 -0.2082  0.2435
17768W        W92756   0.868   1.804  22.061  0.1725 -0.3103  0.0573
17769W        W92757  26.958   3.239   4.491 -0.1350  0.0002  0.0324
17770W        W92758  26.982   3.882  17.749 -0.1314  0.1471  0.0725
17771W        W92759  33.452  31.669  25.244 -0.1990  0.3756  0.1162
17772W        W92760  34.202  32.726   2.213 -0.3629 -0.2635  0.0792
17773W        W92761  18.436  15.920  26.077  0.1377  0.2789  0.0935
17774W        W92762   9.286   8.469   1.670  0.1394  0.0969  0.0508
17775W        W92763  14.684  20.415   1.382  0.0586 -0.3150 -0.1827
17776W        W92764  17.153  20.875  22.302  0.2207 -0.2347 -0.2208
17777W        W92765  16.047  11.652  20.477 -0.3167 -0.0643 -0.1708
17778W        W92766  24.340  22.590  19.749 -0.0326 -0.4315  0.0733
17779W        W92767  13.068  16.572   6.417  0.0082  0.1661 -0.2198
17780W        W92768  26.764   6.355  13.162  0.3369 -0.1773 -0.3055
17781W        W92769   8.651  17.798   5.207 -0.0680 -0.2904  0.2094
17782W        W92770  27.631  16.316  22.647  0.1009 -0.1132  0.0211
17783W        W92771  11.424  14.165  13.662 -0.1993  0.0082  0.2435
17784W        W92772  19.640  25.716   5.775  0.3376  0.0351 -0.1737
17785W        W92773  33.380  30.429   1.317  0.0978  0.1978 -0.1180
17786W        W92774   1.220  26.705   0.611 -0.1187 -0.0144  0.0051
17787W        W92775  32.699   2.646   2.409 -0.0592 -0.3247 -0.0547
17788W        W92776  33.481   4.981   0.768 -0.0614  0.0856 -0.1937
17789W        W92777  25.309  16.805  23.952 -0.0733  0.0878  0.0669
17790W        W92778  21.996   8.613  16.902 -0.0646 -0.2723  0.0288
17791W        W92779   8.530  20.683   2.113 -0.1725  0.0779 -0.2013
17792W        W92780  28.690  16.528  24.351  0.1063 -0.2086 -0.2965
17793W        W92781  20.898   3.637   5.954  0.0995  0.0853 -0.2888
17794W        W92782  29.978  28.071  19.712 -0.3343  0.1932 -0.0104
17795W        W92783   0.077  24.995  23.657 -0.2948 -0.1064 -0.0717
17796W        W92784   4.951  25.623   8.835 -0.2151  0.0264  0.1640
17797W        W92785   7.638   7.959   1.620  0.1944  0.0189 -0.0684
17798W        W92786  19.624   3.069  15.955 -0.0557  0.0658 -0.1018
17799W        W92787  13.900   2.460  11.683  0.3266  0.0014 -0.1235
17800W        W92788  32.779  14.446  14.721  0.2037 -0.0307 -0.2347
17801W        W92789  28.286  23.877  14.894 -0.0975 -0.0029  0.0923
17802W        W92790  13.718   6.318  19.336  0.2151  0.0044  0.0970
17803W        W92791  30.629  13.261  23.773  0.3447 -0.0257  0.0236
17804W        W92792  16.079  16.587  21.845  0.2104  0.2059 -0.1107
17805W        W92793   5.067  10.767   5.555  0.0120  0.2237 -0.0870
17806W        W92794  11.346  17.875  13.694 -0.1836 -0.1735 -0.0311
17807W        W92795   7.441   8.366  18.745 -0.0906 -0.2731  0.1449
17808W        W92796   9.633  24.948  14.772  0.0563 -0.4511 -0.0440
17809W        W92797  30.878  26.338  12.425  0.1220  0.1215 -0.0115
17810W        W92798  28.718  20.203  16.565  0.1286  0.0843 -0.2211
17811W        W92799  30.157  13.946   5.550 -0.1505  0.0880  0.0938
17812W        W92800  16.656  13.835   8.476 -0.1592 -0.2865  0.1967
17813W        W92801   7.252  31.434   2.019 -0.0021  0.0479  0.1517
17814W        W92802  11.215   1.429  11.724  0.4804 -0.1078  0.0079
17815W        W92803  16.089  32.391   6.916 -0.2255 -0.0161  0.0150
17816W        W92804  20.174  12.119   0.790 -0.0944 -0.1348  0.0760
17817W        W92805  27.289   9.137   8.044  0.0297  0.4172 -0.1194
17818W        W92806  14.490  13.707  22.753  0.2828  0.0421 -0.3984
17819W        W92807  27.180  28.616  18.602 -0.0354  0.1334 -0.1651
17820W        W92808  23.085  29.723  26.188 -0.2836  0.0087  0.2370
17821W        W92809  29.164  13.757  24.429  0.3417  0.1716 -0.1716
17822W        W92810  30.323  25.316  18.782 -0.3816  0.1477 -0.0428
17823W        W92811  32.821   5.748  22.423  0.0744  0.0529 -0.0828
17824W        W92812  13.080   3.776   0.299  0.2841  0.0248 -0.0434
17825W        W92813  21.136   5.634  18.337 -0.0915  0.1081 -0.1111
17826W        W92814  30.907  32.324   4.538 -0.0957 -0.2250  0.2850
17827W        W92815   4.169  25.834   3.914  0.2041 -0.0070 -0.5077
17828W        W92816  16.387  29.907   9.070 -0.0287  0.1789  0.1545
17829W        W92817  29.514  24.960  10.662  0.0646 -0.1199 -0.2176
17830W        W92818   5.351  27.506   4.890 -0.0940 -0.2587 -0.1131
17831W        W92819  34.469  31.816   8.450 -0.1194 -0.1068 -0.2576
17832W        W92820  11.420  16.297  25.805  0.2555  0.3920 -0.1607
17833W        W92821   4.534   8.786   7.096  0.1869 -0.0245 -0.0883
17834W        W92822   2.412  15.071  24.983  0.0545  0.2131  0.0539
17835W        W92823  28.452  27.909  14.330  0.3251 -0.2068 -0.0437
17836W        W92824  13.998  33.732   5.250  0.1794 -0.0725 -0.0228
17837W        W92825   8.786   4.858  26.179 -0.0289  0.0370 -0.0341
17838W        W92826  18.226  30.112   3.290  0.0958  0.1591 -0.0948
17839W        W92827  20.943   4.246   3.738 -0.1115  0.0449  0.2879
17840W        W92828   3.230   2.372  23.654 -0.1411 -0.2557  0.0338
17841W        W92829  26.356  17.174  12.089  0.4032 -0.1023 -0.3487
17842W        W92830  18.128   8.098   8.777 -0.2503  0.0049  0.1368
17843W        W92831  29.035  11.269  16.558 -0.0713  0.1425  0.0802
17844W        W92832   9.786  35.162  24.674 -0.0168  0.0239 -0.0791
17845W        W92833  29.960   9.089  23.642  0.0165  0.0008  0.0636
17846W        W92834  25.020  32.079   1.616  0.2389  0.1262  0.0450
17847W        W92835  20.512   0.849   2.168 -0.0108 -0.0969 -0.2543
17848W        W92836   2.952   9.111  15.146  0.0993 -0.2681  0.2278
17849W        W92837  34.634  25.701  21.383  0.0088  0.0407 -0.1792
17850W        W92838  12.778   8.362   5.112  0.1655 -0.0939 -0.0893
17851W        W92839  21.990  35.081  25.468 -0.2065  0.2489  0.2232
17852W        W92840   0.904   9.460   2.779 -0.2787  0.2018 -0.3364
17853W        W92841  13.524   4.403  20.685 -0.1736  0.0429  0.1737
17854W        W92842   1.345  30.690   9.938 -0.2878  0.0665  0.0026
17855W        W92843  28.979  31.168   4.635  0.3049  0.0379  0.1336
17856W        W92844  18.183   6.103   7.066  0.3523  0.2311  0.1015
17857W        W92845  27.167  32.978  11.813  0.1179  0.1826  0.1076
17858W        W92846   6.424  17.424  21.093 -0.3589 -0.4935  0.1702
17859W        W92847  20.822   8.458   4.442 -0.1156  0.0636  0.1205
17860W        W92848  32.544  32.181  19.822 -0.0199 -0.0543  0.1841
17861W        W92849  12.628   2.734  12.896  0.1621  0.1113 -0.2441
17862W        W92850   2.873   4.051  17.090  0.1097  0.0100  0.2201
17863W        W92851  30.738  31.905   4.387  0.3943 -0.2102 -0.0533
17864W        W92852  19.331  31.712   0.913  0.2882 -0.0845 -0.3898
17865W        W92853   9.762  27.569  25.195  0.0566 -0.0829 -0.1443
17866W        W92854   5.133   3.725   5.536 -0.0332 -0.1103 -0.2858
17867W        W92855  18.572  18.351  22.830 -0.0593  0.3413  0.3216
17868W        W92856  10.656  14.260   0.138 -0.1240  0.1872  0.2909
17869W        W92857   2.673   0.104  21.805  0.1326 -0.0745  0.0730
17870W        W92858  26.254   7.071   2.867  0.0506 -0.1242 -0.0556
17871W        W92859  20.312  13.195   7.383 -0.1761  0.1834 -0.0354
17872W        W92860  26.549  23.023  17.565 -0.2944  0.1626 -0.0479
17873W        W92861  21.457  12.568   2.749 -0.1671  0.0258 -0.3204
17874W        W92862  27.624   8.082  26.037  0.1044 -0.0943 -0.0800
17875W        W92863  15.260  23.468   3.513  0.2874  0.1414  0.1273
17876W        W92864  12.193  33.515   9.410 -0.2072 -0.0001 -0.1668
17877W        W92865  28.807  28.708  14.732  0.2052  0.2685 -0.3042
17878W        W92866   0.282  31.417   5.112  0.3250 -0.0910 -0.0656
17879W        W92867  13.195  35.079  22.093 -0.3002 -0.0581  0.0446
17880W        W92868  15.747  21.260  10.219 -0.1102  0.1763  0.3075
17881W        W92869  18.286  25.975  24.418 -0.3260  0.1455 -0.2657
17882W        W92870  12.505   7.219   6.107 -0.2410 -0.0029  0.1391
17883W        W92871  20.227   7.025   1.002 -0.1646 -0.0412  0.3404
17884W        W92872   0.954  12.383   1.160 -0.2281  0.0913 -0.0318
17885W        W92873   5.954  18.455   2.482 -0.2517 -0.0608  0.2678
17886W        W92874  22.572  23.926  18.819 -0.0449 -0.0362 -0.3239
17887W        W92875   6.587  24.321   1.325  0.0964 -0.0585  0.0089
17888W        W92876  16.719  19.144   2.331 -0.2336  0.0236 -0.1327
17889W        W92877   7.565  34.266   7.973 -0.0719 -0.2101 -0.1671
17890W        W92878  18.754  23.324  20.520 -0.0259  0.2377  0.0765
17891W        W92879   3.599   5.412   1.959 -0.0382 -0.0262  0.2579
17892W        W92880   6.551   0.305  23.382 -0.0622 -0.1924 -0.1706
17893W        W92881  18.250   2.435   1.492  0.0115  0.2111  0.0030
17894W        W92882  25.809   8.720  18.375 -0.0671  0.2497 -0.0777
17895W        W92883  16.975  22.939  22.902  0.0588 -0.0926  0.1158
17896W        W92884   4.584  26.094   6.766 -0.0337  0.1195 -0.1294
17897W        W92885   2.709  33.648  11.102 -0.2587 -0.1089  0.1024
17898W        W92886  29.341   9.690  23.455 -0.0560 -0.1691  0.2512
17899W        W92887  24.492  23.526  23.915 -0.1567 -0.2426  0.1116
17900W        W92888  11.888   4.178   8.970  0.1869  0.3620 -0.0330
17901W        W92889  35.010  34.483  25.261  0.2733 -0.2565  0.0230
17902W        W92890  14.000  22.284   9.826 -0.0095  0.3293  0.1582
17903W        W92891  16.038  29.543   0.427 -0.1289 -0.0247 -0.2535
17904W        W92892  29.481  31.703  24.031  0.1555  0.2692  0.4137
17905W        W92893  25.004  21.239  12.908 -0.0839 -0.0576 -0.0335
17906W        W92894   6.710  30.642  24.453  0.0068 -0.1330 -0.0590
17907W        W92895   3.969  24.898  22.989  0.0473 -0.2248  0.3862
17908W        W92896  31.058  20.923  12.410 -0.1127 -0.2629  0.0348
17909W        W92897  16.291  21.461  15.629  0.3311  0.0429  0.2475
17910W        W92898  15.370  11.359   9.934  0.0205  0.0413  0.0653
17911W        W92899  24.601  31.955  20.735  0.0777 -0.1930  0.0328
17912W        W92900  20.266  27.510  23.989  0.1448 -0.0491  0.0536
17913W        W92901  15.054  16.524   9.921  0.3230  0.2586  0.0196
17914W        W92902  23.547   3.520  24.142  0.1705 -0.3235  0.1287
17915W        W92903   3.495   7.396   0.524 -0.0965  0.0220  0.0876
17916W        W92904  12.062  29.610  10.818  0.2786  0.5890 -0.0956
17917W        W92905  30.253  20.732  17.882  0.0246  0.0495  0.0667
17918W        W92906  31.552   8.221  22.844  0.0154 -0.1120  0.1121
17919W        W92907  24.214  21.610   2.344 -0.1163 -0.2398  0.0064
17920W        W92908  29.640   5.429  25.702 -0.1376  0.3320 -0.1904
17921W        W92909  23.372  32.377  16.520 -0.3411  0.0968  0.1811
17922W        W92910  10.276  10.007   1.103  0.0442  0.2041 -0.0455
17923W        W92911  10.696   7.774   4.818 -0.3437 -0.3007  0.0242
17924W        W92912  16.726   8.281   5.121 -0.0812 -0.1054 -0.1360
17925W        W92913   9.210  16.588   8.056  0.0247  0.1255  0.1755
17926W        W92914  10.700  23.002   6.858 -0.1779  0.0817 -0.4380
17927W        W92915  24.806  18.320  25.135  0.1503  0.1112 -0.2687
17928W        W92916  27.593   1.311  20.111 -0.2740 -0.0532 -0.0009
17929W        W92917  29.720  12.010  18.582 -0.2476  0.2701 -0.2142
17930W        W92918  24.505   1.714   0.052  0.2095  0.2568  0.0077
17931W        W92919  33.415  25.088  22.937 -0.2160 -0.0156  0.0013
17932W        W92920  13.878  26.815  26.119 -0.1072 -0.2015  0.0642
17933W        W92921  32.815   5.079  18.346 -0.0938 -0.0084  0.1933
17934W        W92922  16.218  33.895  21.419  0.1999 -0.1957 -0.3839
17935W        W92923   5.771  31.185  20.540  0.3036 -0.5406  0.5368
17936W        W92924  30.577  26.941  18.055 -0.0359 -0.0501 -0.0361
17937W        W92925  26.273  27.545   2.524  0.1697 -0.0512 -0.2989
17938W        W92926  17.443  32.249  23.894 -0.1253 -0.0877  0.1631
17939W        W92927  11.028   4.846   7.837 -0.3001  0.1954 -0.2105
17940W        W92928  12.613   0.506  12.344 -0.2808 -0.0570 -0.1693
17941W        W92929  26.115   5.603  21.987  0.0899  0.1939 -0.1101
17942W        W92930   1.985  17.569  17.019  0.1266  0.1351 -0.2513
17943W        W92931  10.635  17.161  21.552  0.0320  0.0419  0.1251
17944W        W92932  27.914  33.125  23.787 -0.1575  0.0163  0.1503
17945W        W92933   9.469  31.766  24.802 -0.1749  0.3078  0.0512
17946W        W92934  20.827  13.362   0.038  0.1448  0.4658  0.4467
17947W        W92935  10.405  10.363  10.145  0.1471  0.0303  0.0678
17948W        W92936   3.263  32.572  17.248  0.0224 -0.0478  0.2952
17949W        W92937   4.952  34.191   9.207 -0.1646  0.1026  0.2453
17950W        W92938  24.813  32.595  19.651 -0.2881  0.3321 -0.1786
17951W        W92939  35.108  28.445   1.837 -0.1743 -0.0253 -0.1125
17952W        W92940  31.091  19.849  17.330 -0.1581 -0.0505 -0.2310
17953W        W92941   2.716  21.325   3.159  0.2170 -0.0709 -0.2189
17954W        W92942  14.561  23.379  22.761 -0.0507  0.1264 -0.4557
17955W        W92943  19.304   0.601  21.198 -0.1438  0.0097 -0.2620
17956W        W92944  26.831   1.971  12.024 -0.1958 -0.0440 -0.2082
17957W        W92945  34.939  19.915  13.587  0.2001  0.3365 -0.1259
17958W        W92946  23.697  25.510   0.009 -0.1725  0.0124  0.2079
17959W        W92947  20.692  26.077   2.141 -0.3047  0.2931  0.0251
17960W        W92948  35.370  19.559   9.708  0.0845 -0.0965 -0.0438
17961W        W92949  15.184  20.629   6.653  0.1357  0.2200  0.0803
17962W        W92950  27.388  17.573   5.746 -0.3695  0.0522  0.1046
17963W        W92951  13.966  25.930   0.135  0.2313 -0.1586  0.0346
17964W        W92952  16.338   4.188  17.355 -0.0057 -0.0375 -0.0706
17965W        W92953  30.960  17.866   5.708  0.0629 -0.1725  0.0747
17966W        W92954  18.181  17.632  24.958  0.1910  0.1721  0.0303
17967W        W92955   7.367   3.193  19.398  0.2029  0.1821  0.3487
17968W        W92956  19.451  14.675   9.196  0.2175  0.1454 -0.2462
17969W        W92957   9.781  24.527  14.108  0.1396 -0.1730 -0.3615
17970W        W92958  17.611   7.906   5.321 -0.0443 -0.0978  0.2436
17971W        W92959  12.952   9.758  14.348 -0.3113 -0.0835  0.0831
17972W        W92960   6.149  30.819  14.759 -0.0029 -0.2582 -0.0046
17973W        W92961  31.398  22.531  25.327 -0.0546  0.0601  0.0414
17974W        W92962  17.998  11.637  21.026 -0.0520 -0.3646  0.0742
17975W        W92963   5.218  29.694  15.267  0.0456 -0.0789  0.4346
17976W        W92964  23.034  22.274   0.322 -0.0636  0.1664 -0.0410
17977W        W92965  22.255  28.185  22.678 -0.0575 -0.0309 -0.2115
17978W        W92966   9.105  27.083   8.666  0.0570  0.0116 -0.1266
17979W        W92967  33.627   0.622  14.394 -0.0130 -0.1325  0.0175
17980W        W92968  33.956  15.471  25.290 -0.0335  0.1898 -0.0291
17981W        W92969  14.014  11.779   0.829 -0.3721  0.0688  0.0456
17982W        W92970  30.444   4.309  13.257 -0.0917  0.4133  0.0689
17983W        W92971  15.554  28.343  25.899 -0.2817 -0.3362 -0.4173
17984W        W92972   1.860  12.773  24.416  0.2761 -0.0320 -0.0566
17985W        W92973  28.189  31.649   0.449 -0.5224 -0.0447  0.0773
17986W        W92974  18.179  33.082  24.665 -0.1251  0.0627  0.0789
17987W        W92975   0.130  19.490  21.208 -0.0597 -0.5697 -0.0740
17988W        W92976  33.106  22.590   0.570 -0.1780  0.1021  0.4065
17989W        W92977  28.338   9.634  18.266 -0.1814 -0.0225  0.1152
17990W        W92978   3.033  17.492   2.583  0.0242 -0.2586  0.3792
17991W        W92979  13.387   2.714  19.755 -0.2080 -0.0026  0.3660
17992W        W92980   2.016  16.919  22.069  0.1528  0.0648 -0.1437
17993W        W92981  11.109  15.268  20.698 -0.0742 -0.3058  0.0974
17994W        W92982  10.055  31.212   6.823  0.1185 -0.1291 -0.0617
17995W        W92983  14.669  32.341   8.110  0.1089 -0.0749  0.0030
17996W        W92984  28.911  30.299  14.867 -0.2179 -0.0597 -0.0727
17997W        W92985  18.265   8.394  23.410  0.3490 -0.1768  0.0231
17998W        W92986  32.654  22.173  21.851 -0.0751  0.1022 -0.1757
17999W        W92987  12.620   2.464   0.412 -0.0257  0.2639  0.0255
18000W        W92988  11.149  28.619   9.281 -0.1133  0.0666  0.0984
18001W        W92989  30.384  11.097  20.749  0.1133 -0.2209 -0.1094
18002W        W92990   4.025  23.306  20.582  0.2330 -0.4084  0.2414
18003W        W92991  34.933  33.737  25.983 -0.2346 -0.2804  0.1391
18004W        W92992  19.231   7.946  24.870 -0.1462  0.2822 -0.1962
18005W        W92993   9.498   6.032  25.161 -0.0981  0.1530  0.0858
18006W        W92994  22.553  24.426   1.531  0.0872 -0.1685  0.3954
18007W        W92995  14.093  14.577   5.596  0.1109 -0.0928 -0.0281
18008W        W92996  17.125  15.635   8.837 -0.1449  0.1476 -0.0115
18009W        W92997  21.960  25.140  17.108  0.1332 -0.0012 -0.2134
18010W        W92998  22.911  12.381  19.253  0.3259  0.0164 -0.0458
18011W        W92999  33.295  13.233  14.243  0.0396  0.2631 -0.0290
18012W        W93000  22.223  14.205  16.557 -0.0561  0.0104 -0.1250
18013W        W93001  26.143  26.207  26.217 -0.1768  0.5029  0.0155
18014W        W93002   2.138  30.116   1.207 -0.1856 -0.2245 -0.0538
18015W        W93003  10.310   0.837  23.000 -0.3486  0.1197  0.0658
18016W        W93004  31.509  32.929   7.002 -0.1157  0.2262  0.3439
18017W        W93005  17.604  27.051  23.253  0.1037 -0.0924  0.0388
18018W        W93006   9.082  28.704   7.726  0.0236  0.1591  0.1644
18019W        W93007  25.372  29.636  10.729  0.2625  0.0025  0.0431
18020W        W93008   5.836  12.907   3.954 -0.0660  0.0008  0.0664
18021W        W93009  17.488  23.186   6.500  0.0818 -0.0078  0.2855
18022W        W93010  10.985  34.139   8.571  0.1054 -0.1253  0.1066
18023W        W93011  18.978  22.796   4.012 -0.1283 -0.2060 -0.2404
18024W        W93012  30.958  34.207  13.947 -0.1683 -0.0081 -0.3818
18025W        W93013  28.708   1.074   0.239  0.1203  0.1094  0.0165
18026W        W93014  25.871  23.706  19.172 -0.0479  0.2483  0.3133
18027W        W93015  19.587  12.235  22.172  0.2174 -0.0017  0.2149
18028W        W93016   3.092  12.352   3.939 -0.1236 -0.4330 -0.0445
18029W        W93017  24.614  10.167  22.239  0.1414 -0.1136 -0.0977
18030W        W93018  19.136  15.635  26.111  0.4393  0.1392 -0.0804
18031W        W93019  29.692  21.118   7.976 -0.1440  0.0385  0.0698
18032W        W93020  14.692  13.217   5.929 -0.0183  0.4323 -0.1125
18033W        W93021  21.377  25.735  21.644 -0.4107  0.0591  0.3438
18034W        W93022  11.972  26.278  25.287  0.0730 -0.0421 -0.0183
18035W        W93023  16.354   0.266  24.278  0.0625 -0.0160  0.1006
18036W        W93024  16.464  16.375  11.554  0.4019  0.1606  0.5287
18037W        W93025   9.566  23.824   7.971 -0.0525 -0.2241 -0.1508
18038W        W93026  34.311   9.545  19.286 -0.0642  0.0311 -0.1858
18039W        W93027   0.702  13.552  13.591 -0.3015  0.3288 -0.2029
18040W        W93028  22.424  20.971   3.198 -0.2003  0.0468 -0.1883
18041W        W93029  34.300  12.195  12.245 -0.0852  0.2444 -0.0587
18042W        W93030  21.884  28.970  19.560  0.0577 -0.1969  0.0874
18043W        W93031  11.591   1.031  10.465 -0.1358  0.1375  0.1311
18044W        W93032   7.021   7.697   9.610  0.0729  0.0613 -0.2061
18045W        W93033  22.790  22.308  25.118  0.2393 -0.0109 -0.5659
18046W        W93034  22.748  29.882  25.272 -0.2618  0.4116  0.0821
18047W        W93035  32.692  35.203  15.188 -0.1785  0.1119  0.1096
18048W        W93036  27.714  11.763  11.916  0.0855 -0.0820  0.0027
18049W        W93037  16.902   8.454   2.259  0.0048 -0.1365 -0.0992
18050W        W93038  15.595   1.155  22.947  0.2276 -0.1515  0.1829
18051W        W93039  15.988  11.656   2.851  0.1642 -0.2705  0.0151
18052W        W93040   1.876  25.386  19.956  0.2410 -0.2351 -0.0693
18053W        W93041  19.791  24.368  25.104  0.0773 -0.1790 -0.2476
18054W        W93042  34.335  12.337  24.985  0.1798  0.0138  0.0812
18055W        W93043  20.085  14.445  24.403 -0.2301  0.1941  0.0310
18056W        W93044  21.670   8.842   6.536 -0.0261 -0.2143 -0.2851
18057W        W93045  28.768  10.306  24.504  0.0426  0.0912 -0.1947
18058W        W93046  14.426  10.585  10.688 -0.2456 -0.2891 -0.1058
18059W        W93047  13.822   3.132  22.081  0.2689 -0.1561 -0.0515
18060W        W93048   6.611  13.526  18.660  0.3681  0.2626 -0.0221
18061W        W93049  14.495  29.034  25.492  0.3008  0.1275  0.0929
18062W        W93050  33.960  34.845  22.051 -0.0575  0.1613  0.2353
18063W        W93051  20.109   3.784  22.428 -0.1914 -0.2981 -0.0089
18064W        W93052   7.761  14.185  18.639  0.0832 -0.1299  0.1446
18065W        W93053   4.180  12.833   6.501  0.2851 -0.1617 -0.1775
18066W        W93054  34.756   1.760  14.004 -0.1544  0.0094 -0.2882
18067W        W93055  12.453  12.718   4.384 -0.3202 -0.1766 -0.0568
18068W        W93056  10.907  28.039  10.411 -0.0862 -0.2779 -0.0978
18069W        W93057  27.842   4.912  12.489 -0.1369 -0.3486  0.0514
18070W        W93058  13.633  14.197  26.240  0.0756 -0.0657  0.4075
18071W        W93059   2.400   2.504  25.410 -0.3202 -0.1194 -0.0734
18072W        W93060   0.150  21.343  13.868 -0.0527  0.2398  0.0944
18073W        W93061   9.373  26.330   5.760  0.0380 -0.0941 -0.1529
18074W        W93062   0.142   2.519  20.954  0.0363 -0.1374  0.0734
18075W        W93063  14.568   8.130  21.693  0.2123 -0.1372  0.3149
18076W        W93064   5.573  15.359   7.728  0.0468  0.2893 -0.3903
18077W        W93065  23.679  31.481  13.351  0.0640 -0.1249 -0.0594
18078W        W93066  24.051  19.499  19.721 -0.2467 -0.1030  0.1908
18079W        W93067  20.267   3.503   0.909  0.1508 -0.2273 -0.0164
18080W        W93068  28.213  28.273  19.821 -0.2539  0.2212  0.0895
18081W        W93069  14.621  13.856  12.260  0.0929  0.1970 -0.3424
18082W        W93070  27.087   5.187  21.025  0.1861  0.0953 -0.3451
18083W        W93071  21.651  19.559  23.077  0.2525 -0.2227 -0.0248
18084W        W93072  12.689  19.663   5.062  0.2492 -0.0936  0.1078
18085W        W93073  12.743   4.413   1.643  0.0146 -0.0190 -0.2106
18086W        W93074  15.078   7.486  25.837  0.0012  0.0430 -0.1682
18087W        W93075   9.288  23.469  10.358  0.3659  0.4565  0.2562
18088W        W93076  28.281   1.651   6.493 -0.2284 -0.2605 -0.1069
18089W        W93077  15.779  30.466   1.394 -0.1023 -0.1285  0.1132
18090W        W93078   0.229  17.885  21.443 -0.1260  0.0346 -0.1776
18091W        W93079  25.795  27.994   2.524 -0.0225  0.1069  0.0716
18092W        W93080  14.354   2.048   0.824  0.3997  0.1282 -0.0430
18093W        W93081  24.783  11.372  13.744 -0.0544 -0.0161  0.1284
18094W        W93082   2.905  20.517   4.173 -0.1865 -0.0370 -0.1128
18095W        W93083  24.314  34.828  14.771 -0.2568  0.0488 -0.1786
18096W        W93084   0.884   0.632   1.264 -0.2098 -0.2102 -0.0375
18097W        W93085  29.408   5.774  10.648  0.2781 -0.0580  0.0294
18098W        W93086   4.757  15.379  20.178  0.2064  0.0550  0.1008
18099W        W93087   0.656   7.247  17.360 -0.0122 -0.1085  0.0523
18100W        W93088  12.405  25.755  23.087 -0.2488 -0.0083 -0.1162
18101W        W93089  23.789  29.167   0.430 -0.1199 -0.1847  0.4300
18102W        W93090  33.799  11.066  17.599 -0.1221  0.1880  0.1244
18103W        W93091  14.995  22.442  15.918 -0.1688  0.3621 -0.2326
18104W        W93092  30.716   5.152  15.205 -0.0629 -0.0411 -0.0595
18105W        W93093   8.960  28.782  12.093  0.2339 -0.1383  0.0446
18106W        W93094   9.019   6.092   7.408  0.1508 -0.1891 -0.0233
18107W        W93095  28.326  23.495  21.868 -0.0810  0.2330 -0.0598
18108W        W93096  10.625  21.716  10.068 -0.0001 -0.2626 -0.0794
18109W        W93097   7.892  15.163  25.257 -0.1875 -0.0616 -0.0396
18110W        W93098  27.593  34.918   4.699 -0.0920  0.0465  0.0792
18111W        W93099  29.896   5.769  16.763 -0.1081  0.2348  0.3929
18112W        W93100   6.259   0.978   1.882  0.2603 -0.1447  0.1098
18113W        W93101  15.231  15.510  25.528  0.0595  0.0281 -0.1332
18114W        W93102  30.346  24.542  12.166 -0.1657  0.0812 -0.4159
18115W        W93103  16.503  31.655  25.040  0.2444  0.0337  0.0500
18116W        W93104  33.830  25.602  11.204  0.2299 -0.1537 -0.3342
18117W        W93105   4.559   1.627   7.177 -0.0671  0.2559  0.2051
18118W        W93106  14.262   4.667   8.572 -0.0619  0.3917  0.5755
18119W        W93107   8.103   1.893  24.067  0.1030 -0.0558 -0.1423
18120W        W93108  26.325  33.001  14.947 -0.0765 -0.0267 -0.1648
18121W        W93109  26.320  31.913  23.317  0.2019 -0.2026 -0.1664
18122W        W93110   7.005   2.908   4.782 -0.5155 -0.1362 -0.1609
18123W        W93111  12.228   3.142   8.877 -0.5265 -0.2020  0.1741
18124W        W93112  13.078  28.111  11.668 -0.0215 -0.3156  0.1960
18125W        W93113  33.094  33.585  15.949 -0.0372 -0.1965  0.0884
18126W        W93114  15.268  17.971  14.071 -0.0888  0.0501 -0.2663
18127W        W93115  22.755   1.533  13.742 -0.0814  0.1545  0.2325
18128W        W93116  34.967   2.112  14.396  0.2887  0.2182  0.0192
18129W        W93117  23.235   9.497  23.948  0.1585 -0.1268  0.0209
18130W        W93118  20.887  27.704   4.674  0.0289 -0.1320  0.1751
18131W        W93119   8.866   5.943   1.106  0.2129 -0.0034 -0.0302
18132W        W93120  21.271  18.989   3.541 -0.0831 -0.1563  0.0411
18133W        W93121  12.156   2.727  18.919 -0.0779  0.2878 -0.1037
18134W        W93122   7.807  30.911  14.305 -0.2279  0.2330  0.0882
18135W        W93123   8.582  27.229  15.912  0.5082 -0.0723  0.4409
18136W        W93124  19.657  22.443   4.606 -0.2634 -0.1045 -0.2813
18137W        W93125  20.266   0.112  16.033  0.1340  0.0784 -0.1116
18138W        W93126   0.353  28.399   2.604  0.1725  0.2353 -0.2389
18139W        W93127   1.280  29.735   5.490 -0.0739  0.0582 -0.1905
18140W        W93128  15.523  28.333   8.420 -0.2970 -0.0597 -0.1941
18141W        W93129  18.526  22.512  23.344 -0.0916 -0.1145  0.1751
18142W        W93130   2.380  10.181   3.687  0.0194 -0.2092 -0.0564
18143W        W93131  11.262  10.161  12.191  0.1019  0.0699  0.0697
18144W        W93132  20.380  25.497  24.286 -0.3351 -0.0164 -0.2278
18145W        W93133  14.765  14.802  24.064 -0.0493 -0.1145  0.3205
18146W        W93134  15.213   2.101  19.363 -0.1155 -0.1066 -0.2266
18147W        W93135   9.575  32.430  25.987  0.0368 -0.3890  0.1999
18148W        W93136   8.105  30.165  24.095 -0.0899  0.0941 -0.1772
18149W        W93137  14.758   7.461   3.854  0.4946  0.1945  0.3330
18150W        W93138  27.852  35.135   2.155 -0.2102 -0.0672  0.0764
18151W        W93139  22.393  12.853  16.643 -0.1032 -0.1892 -0.0361
18152W        W93140   6.710  33.626  10.589  0.0441 -0.1207  0.0807
18153W        W93141  26.817   2.913  21.486  0.2914  0.2061 -0.0792
18154W        W93142  11.344   7.692   2.910  0.0570 -0.1211  0.0524
18155W        W93143  32.863  10.222  18.162  0.1045 -0.1893 -0.0292
18156W        W93144  19.999  15.294   6.872 -0.2366  0.3472 -0.0440
18157W        W93145  21.424  16.423  15.245  0.1308  0.0271  0.0599
18158W        W93146  12.325   4.054  24.224  0.3857  0.0838  0.0979
18159W        W93147  28.417   2.504  16.333  0.5841  0.1475  0.3469
18160W        W93148   3.476  10.218  24.693  0.3623 -0.1297 -0.0804
18161W        W93149  26.451  33.895  19.534  0.0869  0.1880 -0.0403
18162W        W93150  19.867   4.445  24.026  0.2036 -0.1741  0.1560
18163W        W93151  21.572   4.555  21.245 -0.0241  0.0032  0.1750
18164W        W93152  32.818  26.752  19.027 -0.0240  0.0818 -0.4205
18165W        W93153  34.119   1.695  17.908 -0.2581  0.0547 -0.1103
18166W        W93154   1.671  11.622  18.979 -0.0115  0.1530 -0.1871
18167W        W93155   9.740  21.179   5.020  0.0972 -0.0584 -0.2335
18168W        W93156  12.320  27.561  14.622  0.0077 -0.0861 -0.2688
18169W        W93157  14.106  12.282  10.003  0.1382 -0.4152  0.1320
18170W        W93158   0.982   7.002   3.485  0.0947  0.1910 -0.3157
18171W        W93159  12.455  32.372   2.246 -0.1253 -0.0954 -0.0588
18172W        W93160  17.927  21.785  13.171  0.2207  0.1813 -0.2282
18173W        W93161  10.537  13.458  10.762 -0.0787 -0.1430  0.2726
18174W        W93162   0.828   6.331  14.431  0.1591 -0.0861  0.0532
18175W        W93163  31.039   4.173  12.416  0.2279 -0.1395 -0.1662
18176W        W93164  28.257  18.696  24.059  0.3777 -0.1779  0.1133
18177W        W93165  25.850  14.147  24.782  0.0866  0.1691  0.0019
18178W        W93166  25.901  10.291  19.571  0.0710  0.1161 -0.0140
18179W        W93167  20.247  26.309   7.280 -0.1007  0.1023 -0.0781
18180W        W93168   9.656  13.697  22.004  0.1536 -0.1639 -0.2877
18181W        W93169  28.473   9.550  18.860  0.1626  0.0787  0.1401
18182W        W93170  20.043  33.123  25.041 -0.2272  0.0623  0.0207
18183W        W93171  27.937  15.108  21.259  0.2016 -0.0735 -0.0240
18184W        W93172  10.243  16.046  22.928  0.1495 -0.1190 -0.1145
18185W        W93173   0.860  23.773  21.918 -0.0916  0.0495 -0.2655
18186W        W93174   7.770  30.045  23.727 -0.1799 -0.0934  0.2117
18187W        W93175  26.964  18.387  15.242  0.1057  0.1189 -0.2849
18188W        W93176  18.851  20.504  22.926 -0.0985  0.0873  0.1163
18189W        W93177  23.216   8.559  23.536 -0.1425 -0.0461 -0.1120
18190W        W93178  25.129  31.434  13.322 -0.0745 -0.1052 -0.2038
18191W        W93179   9.382  29.921  14.694  0.2146 -0.2886  0.3348
18192W        W93180  26.216  26.848  25.270  0.1740  0.3674  0.1841
18193W        W93181  32.015  31.333  14.976 -0.1684  0.0085 -0.0816
18194W        W93182  25.542   9.504  23.794  0.3781  0.1048 -0.1850
18195W        W93183  35.351  17.069  24.506 -0.0227  0.2680  0.2311
18196W        W93184   4.286  24.503   5.368  0.1082 -0.0387  0.0602
18197W        W93185   6.959   5.809  19.129  0.0693  0.1727  0.2275
18198W        W93186  22.256  20.444  23.352  0.0462  0.1148 -0.0603
18199W        W93187  15.786  30.312  12.642  0.4410  0.1794 -0.2065
18200W        W93188  28.771  29.685  10.218  0.1120  0.2611 -0.0660
18201W        W93189  26.068  13.657   8.128 -0.0703 -0.2324  0.3566
18202W        W93190  14.083   6.290  12.856  0.1332  0.1783 -0.1290
18203W        W93191   8.440  26.025  17.185  0.1175  0.1659 -0.2174
18204W        W93192  16.032  10.296   1.362 -0.5197  0.4364 -0.3445
18205W        W93193  30.505  29.133  24.635 -0.0641  0.1858  0.0326
18206W        W93194   0.799  27.889   4.929  0.2904 -0.2173  0.3464
18207W        W93195  21.197  19.993  19.002 -0.3121 -0.1123 -0.0596
18208W        W93196  29.390  11.392  20.473  0.3988  0.3347 -0.0402
18209W        W93197   3.443  28.180   8.538  0.0526  0.1846 -0.3516
18210W        W93198  15.688  27.513   0.123 -0.0546  0.0705 -0.4719
18211W        W93199   1.087   8.456  15.235 -0.4380 -0.0176 -0.1004
18212W        W93200  24.804  35.071  11.989  0.1358 -0.2381  0.2969
18213W        W93201  11.478  27.139   4.534 -0.1027  0.1360 -0.0815
18214W        W93202  18.247  17.422  10.997 -0.3331 -0.3341  0.0453
18215W        W93203  13.233   0.911   0.157  0.1687  0.0134  0.2218
18216W        W93204  15.865   0.689   6.739  0.2495  0.2173 -0.0929
18217W        W93205  28.751  31.137  24.106 -0.1450  0.1623  0.0562
18218W        W93206   3.387  16.118  26.104 -0.1564  0.1892 -0.0248
18219W        W93207  10.201  11.616  21.767  0.0120 -0.1499 -0.1331
18220W        W93208   5.769  17.979  24.578 -0.0488 -0.0443 -0.2549
18221W        W93209  10.315  27.186  10.155 -0.1854  0.1587 -0.1473
18222W        W93210  12.321  27.755   0.058  0.0272 -0.0131 -0.1347
18223W        W93211   8.096  14.869  25.702 -0.0070  0.0666 -0.1806
18224W        W93212   6.396  10.636   3.860 -0.1085  0.0765 -0.0224
18225W        W93213  30.156  25.551  23.241 -0.0440  0.0909 -0.0952
18226W        W93214  29.804  28.421   1.746  0.3013 -0.0060  0.0700
18227W        W93215   8.861  19.947  24.956 -0.4610 -0.0641 -0.1317
18228W        W93216  21.938  31.722   6.385 -0.3660  0.1859 -0.0885
18229W        W93217  34.113  23.021  17.155 -0.1874  0.3806 -0.1898
18230W        W93218  22.998   2.271   5.134  0.2613 -0.3350 -0.0762
18231W        W93219  34.196  34.346  24.522 -0.2544 -0.0842 -0.1837
18232W        W93220  30.026   4.392   4.030 -0.1064  0.1269 -0.0377
18233W        W93221  24.876  28.102   2.594  0.1891 -0.4203 -0.0418
18234W        W93222  19.865  33.086  16.817  0.2930 -0.0333 -0.3328
18235W        W93223  29.761  22.649  14.694 -0.0317  0.1935  0.1950
18236W        W93224   2.722  13.895   3.420 -0.1015 -0.2363 -0.1413
18237W        W93225  20.101   8.991   4.472 -0.0872  0.2381 -0.2049
18238W        W93226  19.543  26.253  23.762  0.0759 -0.1922 -0.1267
18239W        W93227  14.464  17.133   8.639 -0.0901  0.0596  0.1929
18240W        W93228   0.381   3.327   4.021 -0.1970  0.2365 -0.0393
18241W        W93229  23.088  28.881   4.113  0.0658 -0.3297  0.0256
18242W        W93230  29.319   7.335   9.767 -0.0260  0.3897  0.0649
18243W        W93231  18.756   0.680   5.511 -0.2091  0.1153  0.3102
18244W        W93232  32.719  10.057  15.165  0.0922  0.1008  0.1062
18245W        W93233   9.325  19.194   6.802  0.3339  0.1214 -0.1164
18246W        W93234   3.192  17.843  15.212 -0.3760 -0.0245  0.5461
18247W        W93235   9.008  14.376   9.769 -0.1192  0.0647 -0.1962
18248W        W93236  25.174  17.775  22.194 -0.0583  0.3006  0.0218
18249W        W93237   2.042  24.972  17.950 -0.0873  0.3215 -0.2469
18250W        W93238  13.894  30.391   2.026  0.0944 -0.3181  0.3774
18251W        W93239  31.304   7.891  22.535 -0.0762  0.3468  0.2056
18252W        W93240   5.071   7.702  23.971  0.0007 -0.3563  0.0975
18253W        W93241  20.745  29.913  16.804 -0.0172 -0.2151  0.1200
18254W        W93242  34.567   6.193   2.574  0.2426 -0.0053  0.0869
18255W        W93243   6.314  28.332   9.944  0.1687 -0.2242  0.3760
18256W        W93244   2.103  22.906  23.517 -0.1493 -0.2063 -0.1181
18257W        W93245   0.329  28.179  20.357  0.3155 -0.0216 -0.0847
18258W        W93246  16.654   8.077   9.947 -0.3296  0.0349 -0.1364
18259W        W93247  12.943  28.380  11.239  0.1269  0.0103  0.1745
18260W        W93248  11.263   6.682   6.925 -0.2599  0.1487  0.2121
18261W        W93249  32.181  12.598  15.693  0.0210  0.0010 -0.0474
18262W        W93250  31.954   3.108  12.202 -0.1638  0.0487  0.0370
18263W        W93251   9.996  28.067   4.721  0.5074 -0.4276  0.1317
18264W        W93252  17.398  19.994   3.987  0.0028 -0.0925 -0.0775
18265W        W93253  19.714  32.471   0.395  0.0252 -0.0503 -0.0399
18266W        W93254   0.413   6.099  14.913  0.1332  0.2025 -0.1027
18267W        W93255   2.353  13.014  22.451 -0.1959  0.1537  0.1092
18268W        W93256  30.607  10.833  22.702  0.0555 -0.1576  0.0525
18269W        W93257  28.978  19.797   8.863  0.0846 -0.1710 -0.0994
18270W        W93258  15.621  24.236  13.595 -0.0960  0.1903  0.3595
18271W        W93259  31.219   8.404  25.556  0.1409 -0.4977  0.1356
18272W        W93260  34.019   3.518   2.920 -0.1058  0.1309  0.0729
18273W        W93261   9.592  23.088  14.921  0.1475 -0.0745 -0.0851
18274W        W93262  23.895  26.740  24.688  0.0824 -0.0876  0.0532
18275W        W93263  34.545   1.555  14.610  0.0486  0.2293 -0.0014
18276W        W93264  33.013   1.542   6.964 -0.1840  0.0694  0.1472
18277W        W93265  18.077   8.997  20.789 -0.1888  0.1022  0.0692
18278W        W93266  12.850   2.419   9.819 -0.1866  0.0538 -0.3245
18279W        W93267   3.882   9.686  21.360 -0.0685 -0.3010  0.1949
18280W        W93268   4.178  31.983   5.394 -0.3629 -0.3554  0.3654
18281W        W93269  21.836  25.390   6.128 -0.2765 -0.4181 -0.2712
18282W        W93270  33.809  10.467  25.947 -0.0543 -0.1627  0.0086
18283W        W93271   4.931  28.572   7.174 -0.0895 -0.1046 -0.2495
18284W        W93272  29.896  23.990  10.960 -0.1898  0.0624  0.1547
18285W        W93273  22.630  21.128  18.707 -0.0578 -0.2053 -0.1895
18286W        W93274  23.217   1.127   2.460  0.0033  0.0751 -0.1684
18287W        W93275   1.789  33.163   8.783  0.0780  0.2381 -0.1632
18288W        W93276  12.598   7.867  21.653 -0.2702  0.1494  0.1216
18289W        W93277  27.829  28.753  15.090 -0.2327 -0.0079  0.0547
18290W        W93278  10.015  29.987   8.918 -0.0525 -0.2046 -0.2063
18291W        W93279   6.926   3.295  21.453  0.1363  0.0955  0.1073
18292W        W93280  19.535  25.224   6.772  0.0722 -0.2961  0.3755
18293W        W93281  30.333   8.016  17.347 -0.1809  0.2650  0.1283
18294W        W93282  29.416  10.243  16.433  0.0174  0.0261  0.0321
18295W        W93283  15.526   8.664   5.888  0.1622  0.0310  0.0228
18296W        W93284  32.875  10.957  23.513  0.0694  0.1087 -0.0427
18297W        W93285  32.815  31.961   5.492 -0.0523  0.0411  0.0426
18298W        W93286   6.871   1.693  22.193 -0.1296 -0.1810 -0.0404
18299W        W93287  11.850   1.133   7.872 -0.3652  0.3460  0.1942
18300W        W93288  31.010   7.028  24.375 -0.1555 -0.2187  0.0382
18301W        W93289  33.447  29.342   3.867  0.0670  0.1365 -0.0227
18302W        W93290  31.654  32.117   0.048  0.5806 -0.1112  0.0915
18303W        W93291  34.754  33.475   5.635  0.0734  0.2145 -0.2679
18304W        W93292  18.931   7.830  25.223 -0.0739 -0.1174  0.0491
18305W        W93293  30.311  29.570  16.026 -0.2122 -0.1818  0.5019
18306W        W93294  32.968  16.179  18.239 -0.0059 -0.0059  0.1721
18307W        W93295  26.363  35.153  19.445  0.0527 -0.0998 -0.0539
18308W        W93296  27.955  16.162  16.766  0.3336 -0.0850  0.0514
18309W        W93297  30.085  13.742  13.782 -0.1676  0.0184 -0.1860
18310W        W93298  13.514  11.467  22.685 -0.2333 -0.2159  0.1715
18311W        W93299  16.906   0.651  18.788 -0.1602  0.0997 -0.0345
18312W        W93300  13.950   0.409   1.156  0.1330 -0.0466 -0.1042
18313W        W93301  28.383   2.420  22.350  0.0702 -0.2232  0.2602
18314W        W93302   3.457   2.138  19.391  0.0942 -0.2433  0.1765
18315W        W93303  18.822  34.195  25.555 -0.0515  0.1050  0.3040
18316W        W93304   4.501  23.579  24.977 -0.2073  0.0421 -0.2416
18317W        W93305  30.613  19.361   9.666  0.1862  0.1471 -0.1659
18318W        W93306  12.734   0.348  19.646 -0.1068  0.0800  0.2165
18319W        W93307  31.813  15.351  15.948 -0.0418 -0.2118  0.1062
18320W        W93308  34.859   7.827  16.944 -0.0604 -0.0608 -0.2294
18321W        W93309  10.241  13.000   3.121 -0.2313  0.4049 -0.0023
18322W        W93310  25.048   4.152  17.025  0.3062 -0.0982 -0.0498
18323W        W93311   1.424  20.999   0.992 -0.1382 -0.0049 -0.0525
18324W        W93312  22.758  16.360  18.106  0.0764  0.3817  0.1226
18325W        W93313  29.293  18.133  17.689  0.0165  0.0062  0.1708
18326W        W93314  29.395   4.622  15.976 -0.1110  0.1832  0.1635
18327W        W93315  35.139  12.365  15.801 -0.5330 -0.1593  0.3016
18328W        W93316  13.687  31.729   5.562 -0.2823  0.2323 -0.2180
18329W        W93317   7.109  28.849  25.713  0.0073  0.1395 -0.0769
18330W        W93318   1.339  20.223  22.828  0.1312  0.0251 -0.1447
18331W        W93319   3.785  19.819  15.900  0.1482  0.0587  0.1698
18332W        W93320  28.452  14.219  25.981 -0.3185  0.2407 -0.0145
18333W        W93321   6.735   7.771   8.776  0.2291 -0.3374 -0.1844
18334W        W93322   5.582  12.231   8.421 -0.2846  0.2750  0.3700
18335W        W93323   7.490  13.500  12.509  0.5228  0.0433 -0.0864
18336W        W93324  24.550  18.968  16.949  0.2624 -0.2323 -0.3416
18337W        W93325  33.377  12.453  13.644  0.2398 -0.3197  0.0691
18338W        W93326   2.503  20.522   1.577 -0.2872  0.1319 -0.2726
18339W        W93327  24.557  28.712  12.809  0.3208 -0.0847  0.1669
18340W        W93328  25.634   0.562   1.732 -0.1447  0.2163 -0.1576
18341W        W93329  33.510   3.063  20.251 -0.1493 -0.1538  0.3034
18342W        W93330   9.877   4.615  13.609  0.3191  0.0364 -0.2212
18343W        W93331   6.311  23.069  23.808  0.1302  0.1247  0.1119
18344W        W93332  15.846  21.707   2.720 -0.0902  0.0710  0.0629
18345W        W93333  28.471  19.101  26.055  0.1572  0.1392  0.2271
18346W        W93334  30.107  21.267  19.805 -0.1115  0.0640  0.0440
18347W        W93335   7.179   7.925  25.171  0.1510  0.1025  0.2995
18348W        W93336   9.336  14.997   1.380  0.0922 -0.1079 -0.4869
18349W        W93337  24.726  23.357  24.884  0.1872 -0.4109  0.2050
18350W        W93338   9.276  25.642   3.827  0.0552  0.2080  0.1730
18351W        W93339   6.153  35.122   4.067 -0.1059  0.1777 -0.0081
18352W        W93340  30.162  10.525  23.039 -0.3415 -0.3922 -0.0458
18353W        W93341  21.943  18.707  24.504 -0.0401  0.0485 -0.1003
18354W        W93342  15.566  12.159  20.413  0.0603 -0.0104  0.1137
18355W        W93343  17.499  30.958   1.483  0.0341  0.1946 -0.2908
18356W        W93344  33.221  12.026  15.363  0.1905 -0.2107 -0.0866
18357W        W93345  23.266  27.069  12.986 -0.0476 -0.0707  0.2586
18358W        W93346  33.510  18.090  11.652  0.0874  0.1868 -0.3406
18359W        W93347  31.735  12.535  25.962 -0.2803  0.3103 -0.2730
18360W        W93348  12.068   0.132  23.928  0.1240 -0.0046  0.1427
18361W        W93349  25.866  30.308   4.306 -0.3205  0.2434  0.0489
18362W        W93350  13.946  23.288   6.363  0.1114  0.3206 -0.2207
18363W        W93351   2.980  14.479  19.517 -0.1269 -0.1540 -0.1138
18364W        W93352   7.981  23.781  12.962  0.3279  0.1992 -0.5943
18365W        W93353   7.821  14.351  21.125  0.0112  0.3008 -0.1538
18366W        W93354   1.411  14.279  11.303  0.2335 -0.1906  0.4485
18367W        W93355  22.224   8.328  20.472  0.0788 -0.0390 -0.0955
18368W        W93356  15.354  24.518  22.506 -0.0186  0.2801  0.5843
18369W        W93357  24.295  23.449  24.684 -0.1249 -0.2589 -0.1793
18370W        W93358   0.589   1.323  16.235  0.0564 -0.2736  0.3081
18371W        W93359  14.614  21.357   0.917 -0.0976  0.1465 -0.2124
18372W        W93360   9.129   0.243  10.057  0.1617 -0.0203  0.1381
18373W        W93361   7.015  15.352   9.954 -0.3266  0.0690 -0.1295
18374W        W93362  14.801   3.597   4.093 -0.0355  0.1122 -0.2124
18375W        W93363   2.032  23.134  19.893  0.1530 -0.1628 -0.0196
18376W        W93364  14.363   7.003   0.448 -0.2629 -0.2422 -0.2368
18377W        W93365  33.430   9.905  12.794  0.1589  0.1118  0.0596
18378W        W93366   6.907  32.993  12.021  0.0559 -0.0394  0.1506
18379W        W93367  13.272  24.114  26.235 -0.0202  0.0687 -0.0146
18380W        W93368  28.534  20.507  19.503  0.0704 -0.1025  0.2249
18381W        W93369  22.277  35.377   3.487 -0.0501  0.0498  0.0642
18382W        W93370  21.332   2.131   3.255  0.1167  0.1394  0.2926
18383W        W93371  26.248  23.205  25.507 -0.0378  0.1773  0.0101
18384W        W93372  24.737  28.248  16.730  0.3051 -0.2276 -0.0901
18385W        W93373   4.959  21.505   4.381 -0.2561  0.1247  0.0605
18386W        W93374   9.763  35.116  20.775  0.2378  0.1085 -0.1002
18387W        W93375   2.585   2.036   3.137 -0.0133  0.3528  0.1324
18388W        W93376  18.592  26.302  19.932 -0.3482 -0.1983  0.0441
18389W        W93377   5.960   3.084  12.818 -0.2682  0.1251  0.0747
18390W        W93378  26.739  28.704  13.576  0.0978  0.0595  0.0823
18391W        W93379  27.416  24.882  17.538  0.1296  0.2479 -0.0481
18392W        W93380  10.941   2.196  22.583  0.1656 -0.4298 -0.1590
18393W        W93381  26.611   0.590  15.523 -0.2546 -0.0292 -0.3074
18394W        W93382  12.946   7.900   7.608  0.0491  0.0477  0.1140
18395W        W93383  31.199   2.700   2.837  0.1084  0.0745  0.0237
18396W        W93384  11.916  10.993   3.681  0.2717  0.1704  0.2223
18397W        W93385   4.405   5.728  22.461  0.2176 -0.1270 -0.2148
18398W        W93386  11.148   7.535  14.466 -0.0992  0.0047 -0.0779
18399W        W93387  10.174  31.964   5.808 -0.0487 -0.3396 -0.1236
18400W        W93388  24.429  30.998  24.104  0.2229 -0.4112 -0.2613
18401W        W93389   4.645   9.060  19.369 -0.3102 -0.1838  0.0281
18402W        W93390  24.876  20.251  12.244 -0.3918  0.1279 -0.0546
18403W        W93391  28.060  24.918  22.135 -0.0608 -0.4900  0.1781
18404W        W93392  35.335  13.560  17.031 -0.3342 -0.2885 -0.0898
18405W        W93393  23.414   1.524  13.629  0.1998  0.0713 -0.0664
18406W        W93394  12.934  11.872   4.501  0.0061  0.0838 -0.0256
18407W        W93395   6.829  16.271   5.288  0.0561 -0.2217 -0.2111
18408W        W93396  11.618  23.540   9.398  0.0143 -0.0454 -0.1171
18409W        W93397   9.281   3.150   6.482 -0.2541  0.0915 -0.0346
18410W        W93398  19.136   5.848  11.384  0.5624 -0.1050 -0.0125
18411W        W93399   1.531  15.908  23.940 -0.2227  0.1604  0.0864
18412W        W93400   9.093   6.799  24.264  0.1007  0.4721  0.4162
18413W        W93401  34.097  25.485  18.575 -0.1696  0.0888  0.0236
18414W        W93402  30.920  34.732   1.510  0.0676 -0.0750 -0.0982
18415W        W93403  32.998  27.767  11.928 -0.3610 -0.1860  0.4367
18416W        W93404  13.951  18.381  23.520  0.5223  0.0698 -0.1134
18417W        W93405   9.753  31.397  22.081 -0.0325  0.0786  0.1679
18418W        W93406   7.442   2.416  20.638  0.0348  0.3078  0.3004
18419W        W93407   1.080  31.182  20.878 -0.1650 -0.3335  0.0259
18420W        W93408  34.451   4.649  13.155 -0.0388 -0.4614  0.0928
18421W        W93409  20.837   8.373  25.544  0.0985  0.0219 -0.1224
18422W        W93410   9.082  15.461  10.528  0.1252 -0.3058 -0.0297
18423W        W93411  22.617   2.336  15.225 -0.0240  0.1183  0.0480
18424W        W93412   4.131   2.147  22.293 -0.3258  0.1743 -0.0470
18425W        W93413  28.576  24.321  10.365 -0.1421  0.3063  0.0663
18426W        W93414  34.601  13.490  14.332  0.4854  0.3525 -0.0557
18427W        W93415   7.940   9.016   9.270 -0.1157  0.0351 -0.0099
18428W        W93416   8.684  10.337   8.480 -0.1390  0.0512  0.0293
18429W        W93417  29.993  21.414  15.091 -0.0695  0.0057  0.2571
18430W        W93418  21.404  26.283  23.265 -0.2111 -0.1613 -0.0082
18431W        W93419  18.597  22.499   3.402  0.0862 -0.0716  0.1721
18432W        W93420   1.417   2.754   0.803 -0.2180 -0.0513  0.2396
18433W        W93421  15.611  26.406   5.074  0.5784  0.2733  0.2882
18434W        W93422  34.990  19.343  17.123  0.1947  0.0440  0.1265
18435W        W93423  25.107  16.408  12.292 -0.3590  0.1234  0.1316
18436W        W93424  31.630  27.318  21.738  0.0475  0.0681  0.3695
18437W        W93425  18.132  20.810  21.406  0.2152  0.1229  0.1910
18438W        W93426  22.914   4.380  24.180  0.1499  0.2303  0.1036
18439W        W93427  27.014  33.357  25.631 -0.2173 -0.0612  0.0701
18440W        W93428  17.443   8.683   9.484 -0.0201 -0.2822  0.0297
18441W        W93429  21.725  22.043  20.876 -0.1113 -0.4094 -0.2132
18442W        W93430  13.849  22.450   2.787  0.1522  0.1086 -0.0029
18443W        W93431   5.964  22.567  21.757  0.0616 -0.2910 -0.0484
18444W        W93432  30.338  31.458   0.008  0.1195 -0.1971  0.0461
18445W        W93433   7.640   2.017  10.734  0.0219  0.0040  0.1503
18446W        W93434  26.245  19.143  11.845  0.1986 -0.1045  0.2065
18447W        W93435  20.946   9.418  25.407  0.3867 -0.0701 -0.2687
18448W        W93436  32.910  14.668   1.464 -0.0388 -0.1887  0.3893
18449W        W93437  13.437  14.029   4.356  0.1193 -0.0000 -0.0633
18450W        W93438  17.063   3.853   9.699  0.0392 -0.3448  0.0824
18451W        W93439  26.727  18.057   9.263  0.1973 -0.2027  0.2177
18452W        W93440   7.289   1.430   6.484  0.2947  0.1576 -0.0616
18453W        W93441  10.550  16.807  21.158  0.0301  0.0309 -0.0536
18454W        W93442  27.833  12.622   6.075  0.0929  0.1838  0.1416
18455W        W93443  20.699   5.924  22.685 -0.3875  0.3998  0.0407
18456W        W93444   6.752   7.983  22.178 -0.1469  0.1394  0.0354
18457W        W93445   1.565  18.310  14.769  0.3457  0.1301  0.0360
18458W        W93446  19.713   4.936  21.748  0.3074 -0.4532  0.1182
18459W        W93447  21.675  28.582   0.205 -0.1105  0.0605 -0.1259
18460W        W93448  16.440  31.947  24.634  0.0738  0.2200 -0.1815
18461W        W93449  25.196  19.218  18.562  0.1151 -0.1069 -0.3792
18462W        W93450  33.880  24.207  11.548 -0.1757 -0.2209  0.1147
18463W        W93451  21.103  31.564  25.988 -0.0649  0.0610 -0.0182
18464W        W93452   0.716   1.646  15.833  0.0479  0.0053 -0.1980
18465W        W93453  22.283   1.607   3.313  0.0880  0.0668  0.0389
18466W        W93454  29.142   9.646  24.923 -0.0450 -0.2035 -0.4667
18467W        W93455  14.036  21.257  13.051 -0.4581 -0.3617 -0.2288
18468W        W93456  25.176  11.467  14.746 -0.2575  0.2695 -0.4731
18469W        W93457  26.222   9.172  17.297  0.2584  0.1806 -0.2948
18470W        W93458  18.232  31.669   6.424  0.1709 -0.0269 -0.1789
18471W        W93459  22.624  14.159  18.583  0.0171 -0.1174 -0.3026
18472W        W93460  26.344  17.713   9.071  0.3518 -0.1980 -0.1396
18473W        W93461   1.606  27.619  19.913  0.0072 -0.0427 -0.0266
18474W        W93462  32.955  30.865  19.628  0.1448  0.0529 -0.1319
18475W        W93463  20.391  26.299  19.328  0.1533 -0.0670 -0.2790
18476W        W93464  22.722  24.167   2.802  0.0500  0.2741 -0.0312
18477W        W93465  18.291   8.955  10.879 -0.3218  0.0719  0.1163
18478W        W93466  28.540  31.707   1.521 -0.2268  0.1265 -0.2026
18479W        W93467   8.472  12.392   4.896  0.1015  0.0201  0.0381
18480W        W93468  29.112   7.592   2.145 -0.0462 -0.2671 -0.0294
18481W        W93469   6.056   9.738   5.929 -0.2663  0.0310  0.0146
18482W        W93470  17.094  23.045  22.392  0.2874 -0.2396 -0.2446
18483W        W93471  32.887   8.217  15.706 -0.0124 -0.0506 -0.1122
18484W        W93472  17.324   5.183   6.577 -0.0939 -0.0325  0.1293
18485W        W93473   4.010  35.165  21.007 -0.1222  0.0993  0.1330
18486W        W93474  22.689  24.551   2.355 -0.1518 -0.1511 -0.0628
18487W        W93475  32.703  15.478   7.472 -0.0352  0.0031 -0.2320
18488W        W93476   1.186   2.177   6.537 -0.1262 -0.4309 -0.2185
18489W        W93477   0.683  18.688  15.615 -0.0569  0.1252 -0.1525
18490W        W93478  13.400   6.058  26.125 -0.0087  0.0963  0.0059
18491W        W93479  28.290   5.427  16.507  0.1956 -0.0094  0.0293
18492W        W93480  10.290   0.180  13.610 -0.0112 -0.1300  0.1819
18493W        W93481  32.476  31.861  18.885 -0.0257  0.0283  0.2304
18494W        W93482  28.522   4.725  23.958  0.0367 -0.0381 -0.2627
18495W        W93483  10.929   3.271  12.045 -0.2100  0.2639 -0.2195
18496W        W93484   6.646  29.392   4.312 -0.0405 -0.0496  0.1449
18497W        W93485   9.593  34.255  23.462 -0.3271  0.2014  0.1336
18498W        W93486  32.584  21.185  18.214 -0.1220  0.2535 -0.0387
18499W        W93487  32.216  24.201  13.619 -0.0513  0.1624  0.1569
18500W        W93488   0.713  28.621   3.761 -0.1598  0.2278 -0.0029
18501W        W93489  15.052  32.489   0.115  0.0133  0.0050  0.0049
18502W        W93490  23.337  13.364   1.046  0.3193 -0.3810 -0.2355
18503W        W93491  16.270  18.798  12.796  0.1130  0.0371  0.2103
18504W        W93492  16.717   2.137  23.683  0.0223  0.0144 -0.2783
18505W        W93493  10.619  23.492  23.380 -0.0503 -0.1471  0.2722
18506W        W93494  16.456  15.024   3.097  0.1829  0.2021 -0.0748
18507W        W93495  33.770  11.289   9.072  0.0038 -0.2553 -0.0651
18508W        W93496  29.310  12.745  13.679  0.0744 -0.0156  0.1398
18509W        W93497  15.049  26.322   3.814  0.0272  0.1736 -0.0206
18510W        W93498   8.390   3.333   2.822 -0.0707 -0.1225  0.0018
18511W        W93499  17.593  17.450   1.891  0.0527  0.0589  0.1180
18512W        W93500  33.120   7.929  15.250  0.1478 -0.0781 -0.0181
18513W        W93501   4.834  12.943   7.367  0.1275  0.0284  0.0505
18514W        W93502  11.266   3.527   0.360 -0.0089  0.1124 -0.2342
18515W        W93503  11.475  13.419  25.475 -0.0332 -0.3000 -0.1249
18516W        W93504  18.690   4.741   2.744 -0.1262  0.1788 -0.0204
18517W        W93505   4.952  27.027  22.309 -0.1000  0.1773 -0.1232
18518W        W93506  31.460   8.028  13.950  0.2287 -0.2356 -0.0866
18519W        W93507  26.507  22.228   0.176  0.0048 -0.2006 -0.0324
18520W        W93508  26.883   7.745  15.446 -0.0895  0.0060 -0.1412
18521W        W93509   2.612  29.445   5.497  0.1410 -0.0841  0.3157
18522W        W93510  21.188  27.878   5.458 -0.2746 -0.1424 -0.1758
18523W        W93511   6.900   3.253   8.163 -0.0174 -0.4187 -0.0359
18524W        W93512  12.360  27.936  14.341  0.1236 -0.1454 -0.0950
18525W        W93513  30.108  25.916  17.001 -0.2404 -0.1730 -0.0335
18526W        W93514  24.890  19.363  22.203 -0.2137 -0.0140 -0.2259
18527W        W93515  33.062  28.936  19.092 -0.1631  0.0460  0.1093
18528W        W93516  32.452  35.091   3.937  0.0154 -0.1742 -0.0640
18529W        W93517  15.773   8.206   0.698 -0.2460  0.0974  0.0751
18530W        W93518  30.581   2.294  14.920 -0.2184 -0.1802  0.1459
18531W        W93519  26.758  26.893  16.020  0.2468  0.0840  0.0953
18532W        W93520  16.572   8.469  11.934 -0.0170 -0.1722  0.0858
18533W        W93521  21.810  19.992   2.861 -0.2461 -0.3079  0.0078
18534W        W93522  29.566   5.278  10.637 -0.1913 -0.0508  0.2250
18535W        W93523  30.472   8.632   0.969 -0.0503 -0.0837  0.0246
18536W        W93524  30.603  31.083  22.594 -0.2704  0.3366  0.0817
18537W        W93525  26.209  30.239  13.119 -0.0297  0.0514  0.1440
18538W        W93526  27.776  27.410   8.365  0.1812 -0.1026 -0.2066
18539W        W93527  15.273  18.584   4.215 -0.0380  0.1387 -0.1704
18540W        W93528  26.769   2.660   5.122  0.0857 -0.0820  0.0948
18541W        W93529  24.506   8.025  15.201 -0.3312 -0.1109 -0.0394
18542W        W93530  25.796  12.799  13.745 -0.0037 -0.1294  0.1147
18543W        W93531  14.377  13.602  25.796  0.0354  0.1246  0.3607
18544W        W93532  29.932  13.576   5.270  0.3762 -0.0300  0.0816
18545W        W93533   3.276  18.729   3.061  0.2692 -0.1059 -0.2070
18546W        W93534  19.367  16.849  26.174  0.3528 -0.1694 -0.0895
18547W        W93535   7.564  19.826  12.202  0.2337 -0.2860 -0.1012
18548W        W93536  29.466  14.501   5.635 -0.0892 -0.2833  0.0044
18549W        W93537  29.478  26.676   0.231 -0.4688  0.2714  0.2355
18550W        W93538  11.378  20.463  24.785 -0.1273 -0.3641 -0.0467
18551W        W93539  32.342  35.317  17.284  0.1576  0.0056 -0.0732
18552W        W93540  20.845  21.716   3.262 -0.0217 -0.0661  0.4145
18553W        W93541  29.011   5.851  19.440  0.0829 -0.0920 -0.0131
18554W        W93542  18.781  32.103  22.551  0.1354  0.0634  0.0276
18555W        W93543  25.945   7.693   0.868  0.1690 -0.0495 -0.3050
18556W        W93544   5.950  12.711  21.322  0.6513 -0.1647 -0.2426
18557W        W93545   4.526  25.853   8.047  0.0965  0.3546  0.0095
18558W        W93546   9.166   9.266  25.195  0.2450 -0.3576 -0.1354
18559W        W93547   7.980  33.337   0.428 -0.0958 -0.2424 -0.2480
18560W        W93548  31.110  17.003  16.518  0.1900  0.0229 -0.1584
18561W        W93549  18.026  11.581  21.564 -0.0210  0.1055 -0.1197
18562W        W93550   3.088  26.095  19.363 -0.1719 -0.0118  0.0719
18563W        W93551  20.383   9.374  19.927 -0.0615 -0.0217 -0.0825
18564W        W93552  33.898  25.848   2.028  0.3964  0.0406  0.0516
18565W        W93553  22.854   7.478   4.588  0.1419 -0.1793 -0.1703
18566W        W93554  29.331  12.779   8.252 -0.2566 -0.2721  0.2629
18567W        W93555  20.132  15.333  16.986  0.1786 -0.1100  0.2335
18568W        W93556  27.863  24.712  10.131 -0.0942  0.1312  0.2360
18569W        W93557  29.700   3.161   2.628  0.1175  0.1176  0.1809
18570W        W93558  21.026  11.064   0.823 -0.0176  0.0051  0.0099
18571W        W93559   8.799  19.507  23.859  0.1719 -0.0219 -0.2096
18572W        W93560  21.094   9.183  16.868 -0.0638  0.2652  0.1054
18573W        W93561  28.779   5.367  23.992 -0.0157  0.0192 -0.2259
18574W        W93562   2.533  34.796   4.459 -0.2118  0.1344 -0.1520
18575W        W93563  13.692  21.120  15.986 -0.0331  0.0571  0.2218
18576W        W93564  30.261  26.915   2.423 -0.2072 -0.1191  0.2198
18577W        W93565  15.639  22.756  23.991  0.3723  0.1578  0.0079
18578W        W93566  35.332   0.863   7.935 -0.4772  0.0993  0.3787
18579W        W93567  22.228   1.917   7.755  0.1598  0.1443 -0.0696
18580W        W93568   6.216   9.153  25.972  0.0625 -0.1566  0.1082
18581W        W93569  29.062  27.471   3.155  0.0717  0.2343  0.2532
18582W        W93570   1.917   3.520   6.138  0.3108 -0.2922  0.0362
18583W        W93571  31.010  29.861  18.106 -0.2560  0.2464  0.0058
18584W        W93572  29.035   2.824   0.071 -0.2673  0.0731 -0.0554
18585W        W93573  14.102  24.223   2.396  0.0346 -0.2755  0.1612
18586W        W93574  21.810  30.486  15.961  0.1820 -0.2198  0.0010
18587W        W93575  28.145  11.214   7.574  0.1156 -0.0316 -0.5482
18588W        W93576  20.967   7.100   0.834  0.1658  0.1490 -0.4205
18589W        W93577  30.101   0.105   3.609 -0.1132  0.1543  0.0628
18590W        W93578  27.986  11.932  10.201  0.3044 -0.3629 -0.2809
18591W        W93579   5.152   5.112  23.505 -0.4121 -0.2355 -0.0440
18592W        W93580  31.359   4.058   3.129  0.0781 -0.0291 -0.0959
18593W        W93581  16.725  16.254   3.930  0.2126  0.0453 -0.0195
18594W        W93582  15.779   7.161   8.382 -0.1509  0.0660  0.0442
18595W        W93583  19.318   1.274  23.570  0.0476 -0.2018  0.0157
18596W        W93584   9.773   2.909   0.306  0.2145 -0.2459  0.1357
18597W        W93585  16.462  15.825  18.371 -0.1382 -0.0585 -0.0979
18598W        W93586  18.637  28.909  20.465  0.0169  0.0841 -0.0518
18599W        W93587  21.670  28.294   1.958  0.1775  0.0890  0.3137
18600W        W93588  21.606  16.747  25.585  0.3220 -0.1398 -0.1195
18601W        W93589  16.010  30.079  10.516  0.0597 -0.0704  0.1008
18602W        W93590  16.175  29.390   8.865 -0.5533 -0.1830  0.3496
18603W        W93591  22.268  27.281   1.346 -0.0324  0.2434 -0.1691
18604W        W93592   2.617  35.220  23.342  0.0395 -0.2402  0.3666
18605W        W93593   4.420  11.357  17.184 -0.1040 -0.1155 -0.0168
18606W        W93594  32.261   6.758  16.679 -0.0521  0.3072  0.3909
18607W        W93595  23.147   2.663   1.938  0.2607 -0.0533  0.0361
18608W        W93596  10.908  20.035   7.333  0.0887 -0.2365 -0.4279
18609W        W93597  16.192   2.664  11.296  0.0715 -0.0058 -0.1353
18610W        W93598  18.475  11.475  25.598  0.3936  0.2883  0.1644
18611W        W93599   7.517  32.943   3.070 -0.2964 -0.2601  0.0860
18612W        W93600   4.142   9.574   1.438 -0.1421 -0.0030 -0.0725
18613W        W93601  15.685  15.314  12.509  0.0386  0.1955 -0.0149
18614W        W93602  20.931   0.267  19.991  0.1550  0.2471 -0.3187
18615W        W93603  24.466   0.591  24.362  0.0518 -0.0703  0.2434
18616W        W93604   6.177  33.607  10.203 -0.0092 -0.0338  0.3810
18617W        W93605  18.707   7.338  20.971  0.0776 -0.4302  0.0108
18618W        W93606  31.707   3.818  18.143 -0.3975 -0.0060 -0.0282
18619W        W93607  31.880  33.530   4.237 -0.0736 -0.2701 -0.0276
18620W        W93608  26.805  10.989  25.572  0.0610  0.0270 -0.2408
18621W        W93609  20.816  17.820   0.236 -0.3177 -0.1092 -0.1542
18622W        W93610  14.127   2.564   4.198  0.0152  0.2724  0.0290
18623W        W93611  19.522   0.578  19.936  0.0329 -0.1768  0.0667
18624W        W93612   2.775   1.526   5.160 -0.2576 -0.0567  0.2616
18625W        W93613  30.689  22.248   6.012  0.0212  0.1989  0.0500
18626W        W93614  23.203  17.361  17.367  0.2435  0.1959  0.0324
18627W        W93615  24.930   2.644  12.785 -0.3643 -0.1212 -0.0564
18628W        W93616  15.568   6.419  20.103 -0.1417 -0.0951 -0.0329
18629W        W93617   6.448  26.861  16.409  0.1615  0.1554 -0.0098
18630W        W93618   6.850  26.700  11.265  0.0321  0.0165 -0.0189
18631W        W93619  18.526   4.874  25.007  0.1669 -0.0469 -0.1357
18632W        W93620  23.012   9.412  19.898 -0.1997  0.1949  0.1075
18633W        W93621  28.846  16.308  11.680 -0.2750 -0.1953  0.0241
18634W        W93622  23.946  27.581   1.560 -0.4963  0.1815  0.1019
18635W        W93623  14.059   7.215   4.455  0.1097 -0.0047 -0.4366
18636W        W93624  19.531  13.745   3.188  0.2458 -0.0176  0.4285
18637W        W93625  13.720  16.753  25.390 -0.2005 -0.1348  0.0846
18638W        W93626  17.295   8.516   0.453  0.4992  0.2537 -0.1416
18639W        W93627  25.887  29.315  17.979 -0.3535  0.0754 -0.2830
18640W        W93628  17.131  21.795  12.714 -0.0724 -0.0304  0.1422
18641W        W93629   7.553  12.406  12.640 -0.2798 -0.3295  0.0772
18642W        W93630  15.255  17.891   7.985  0.2794  0.1555  0.1141
18643W        W93631   9.361  27.649   4.130 -0.0469 -0.0691  0.0259
18644W        W93632  24.846  13.678  13.225 -0.0735  0.0308  0.2405
18645W        W93633   7.902   1.007   2.046  0.0665  0.1253 -0.0899
18646W        W93634  29.960  24.538   6.428  0.1765  0.1721  0.2107
18647W        W93635  24.464   4.366  18.664  0.1787  0.0539 -0.1232
18648W        W93636   1.492   5.111  16.282  0.0448 -0.2433  0.0500
18649W        W93637  23.654  22.372  24.496 -0.0991  0.0364  0.3720
18650W        W93638  14.922  22.786   1.000 -0.2603 -0.1668  0.1546
18651W        W93639   8.977   8.364   0.585  0.0120 -0.0138 -0.3997
18652W        W93640  31.513   3.810  17.384 -0.0035 -0.2885 -0.0216
18653W        W93641  20.281  13.543   7.787  0.1764 -0.1068  0.2805
18654W        W93642  35.256  14.394  16.161  0.1460  0.3529  0.0919
18655W        W93643  24.954  31.191   3.960  0.1299 -0.1173  0.0883
18656W        W93644  18.835   9.480   4.060  0.0474  0.2345  0.0962
18657W        W93645  17.308  12.034   6.199 -0.1696  0.3632  0.1645
18658W        W93646   9.473  29.803  11.319 -0.0488  0.4849 -0.0510
18659W        W93647  19.333  22.284  12.062  0.0097 -0.1882 -0.1969
18660W        W93648  31.888  15.210  11.328 -0.0436  0.1249  0.0326
18661W        W93649  33.946   0.363  25.996  0.1000 -0.5096 -0.0622
18662W        W93650  35.035  31.632  23.399 -0.1711 -0.1688 -0.0369
18663W        W93651  18.581  28.012   8.448 -0.0301 -0.2477  0.1190
18664W        W93652  29.041  32.371   5.234  0.1995 -0.1731  0.0959
18665W        W93653  32.850  15.227  11.303  0.0616 -0.1538  0.1207
18666W        W93654  11.458  30.842   8.127 -0.0144 -0.1412  0.0824
18667W        W93655  28.993  26.848  13.499  0.1718 -0.0118 -0.2632
18668W        W93656   2.952  27.273   9.870 -0.0686 -0.2800 -0.0084
18669W        W93657  30.819  20.147  24.002 -0.0905 -0.1183  0.0206
18670W        W93658  21.949  11.572  25.029 -0.2387  0.3462 -0.0178
18671W        W93659  10.136  28.749   9.418 -0.2212  0.0083 -0.0162
18672W        W93660  13.082  33.917   9.278 -0.0226  0.5048  0.1399
18673W        W93661  30.572  12.783   7.490  0.4436  0.3103  0.0941
18674W        W93662  18.364  19.231  12.768 -0.0479 -0.1254  0.1043
18675W        W93663  30.042   5.608  16.277 -0.0123  0.0151 -0.1870
18676W        W93664  18.629  31.572  20.506  0.0553  0.1199  0.1163
18677W        W93665   1.589   1.231   4.760 -0.0595 -0.1143 -0.0442
18678W        W93666   8.674   2.377  24.909 -0.1141  0.0308 -0.1851
18679W        W93667   0.460  12.084  12.040 -0.2756  0.1496  0.0402
18680W        W93668  12.552   7.528   3.565 -0.1963  0.0733  0.0242
18681W        W93669  11.416  29.812  25.092 -0.0669 -0.1752  0.0718
18682W        W93670  21.565   6.148   5.159 -0.1934  0.2201 -0.0342
18683W        W93671   3.786   5.284   5.033 -0.0192  0.0890  0.2031
18684W        W93672  25.259  28.929  19.744 -0.3728 -0.0059 -0.1867
18685W        W93673   1.129  24.853  16.412  0.0553 -0.1647 -0.2328
18686W        W93674   0.882   5.171   6.371 -0.0702 -0.0382 -0.2262
18687W        W93675   4.149  30.409  11.773 -0.1412  0.0398  0.0796
18688W        W93676  29.220  11.980  23.262  0.0727 -0.2641  0.2817
18689W        W93677   3.167   3.264  18.052 -0.1280  0.2337  0.3164
18690W        W93678   0.537   6.841  15.825  0.1816 -0.1135 -0.1690
18691W        W93679  24.688  30.768  11.935 -0.0421 -0.0348  0.3635
18692W        W93680   9.430   5.123   7.929  0.0440  0.2179  0.0331
18693W        W93681  22.619   1.816  26.167 -0.0716  0.1853  0.0923
18694W        W93682   2.042  20.764  24.302 -0.0803  0.0969 -0.1537
18695W        W93683   7.735  32.762   8.084 -0.1731  0.1121  0.2548
18696W        W93684  12.472   6.774  13.922 -0.0800 -0.0976  0.0296
18697W        W93685   5.423  33.434   4.061 -0.0557 -0.2765  0.0967
18698W        W93686   5.742  15.265  22.646 -0.0152 -0.0342 -0.0548
18699W        W93687  19.268  16.249  21.429  0.2203  0.1414 -0.1639
18700W        W93688  22.736   2.128  18.702 -0.0379 -0.0535  0.0585
18701W        W93689   2.585  22.079  20.476 -0.1248  0.0768 -0.4718
18702W        W93690   2.852  34.078   8.577 -0.0779 -0.0032  0.1753
18703W        W93691  17.076   2.255  23.203 -0.1261 -0.0291  0.0317
18704W        W93692  22.475   1.534  25.314  0.0428 -0.1252 -0.1308
18705W        W93693   3.328  30.223  10.391  0.3860  0.0636  0.0003
18706W        W93694  31.097  24.436  16.846  0.1365 -0.1947 -0.4222
18707W        W93695  11.128  28.404  12.365  0.0728 -0.0695  0.1835
18708W        W93696   9.693  10.054  24.849 -0.0543 -0.3482  0.0510
18709W        W93697  21.461  12.146   5.309  0.3001  0.1798  0.3427
18710W        W93698  10.418   6.569  22.236 -0.3150  0.2269 -0.1770
18711W        W93699   6.238  14.922   1.676  0.3695  0.0346 -0.2085
18712W        W93700  20.832  33.511  22.236  0.0050 -0.0073  0.2916
18713W        W93701  16.278  24.202   7.202  0.2873  0.1278  0.0820
18714W        W93702   0.229  17.115   1.292 -0.1934 -0.2585 -0.0769
18715W        W93703  12.661  28.890   5.384 -0.0091  0.2079 -0.1577
18716W        W93704  10.747  32.673  23.029 -0.2574  0.3221 -0.2504
18717W        W93705   7.184  23.076  10.411  0.4519  0.1117  0.2508
18718W        W93706  29.940  23.491  20.308  0.1087  0.1431  0.1144
18719W        W93707   8.338  12.864  20.133 -0.4007  0.0446  0.3530
18720W        W93708  35.131   4.398   5.199  0.1140 -0.1229  0.0659
18721W        W93709  29.379  28.873  19.902 -0.2064 -0.0495  0.0634
18722W        W93710  23.212  19.117  19.470 -0.1509 -0.3299 -0.0028
18723W        W93711  19.515  24.842   7.141  0.0043 -0.0610  0.1259
18724W        W93712   4.954   7.123  24.892 -0.2937  0.0421  0.0648
18725W        W93713  24.085  24.374   2.755  0.2850 -0.1783  0.0737
18726W        W93714  11.971  33.769  12.554 -0.0184  0.3039  0.0603
18727W        W93715  33.966  25.151  19.872 -0.0579 -0.1696  0.1807
18728W        W93716  27.684  28.492  16.629  0.2977 -0.1479 -0.1935
18729W        W93717  12.823  18.989   2.592  0.3275 -0.0518 -0.0607
18730W        W93718  20.426  28.870   6.496  0.1850  0.0911  0.2321
18731W        W93719  23.290  26.773  16.160 -0.0097  0.2819 -0.1084
18732W        W93720  19.903  32.319  18.990 -0.0669 -0.0939 -0.2142
18733W        W93721   2.590   6.001   6.454  0.0073  0.4594  0.1814
18734W        W93722  29.933  14.062  11.263 -0.2159 -0.1423  0.0510
18735W        W93723  30.215  17.613  20.385 -0.0751  0.2292 -0.1803
18736W        W93724   4.914   9.626   3.595 -0.0358 -0.3077 -0.0938
18737W        W93725   5.752   9.846  20.385 -0.1252  0.3242  0.2033
18738W        W93726  11.894  11.193   0.577  0.0173  0.1779 -0.1693
18739W        W93727  24.485  30.436  23.430 -0.0043 -0.2330  0.0776
18740W        W93728  22.119   7.060  19.378 -0.0543 -0.1539 -0.0566
18741W        W93729  34.221   1.204  22.856  0.1468  0.0409  0.0069
18742W        W93730  28.503  17.808  11.196  0.0006  0.2583  0.3666
18743W        W93731  25.250   4.572  22.737  0.5199  0.2746 -0.1297
18744W        W93732  24.839   4.353  20.000  0.1719  0.0478  0.1859
18745W        W93733  25.876  16.767  13.054  0.0504 -0.1754 -0.0072
18746W        W93734  33.545   5.205  24.387  0.1156 -0.0089  0.2279
18747W        W93735  25.755   8.701  12.863 -0.3131  0.1684  0.1175
18748W        W93736  13.136  22.665  14.253  0.1796 -0.0338 -0.2168
18749W        W93737   9.599   0.123   9.115 -0.3358 -0.1726 -0.1884
18750W        W93738  21.197  34.966  24.164  0.0421  0.2194  0.1007
18751W        W93739  28.579  31.613   4.237 -0.1932 -0.0719 -0.3769
18752W        W93740  33.084  22.677  13.157 -0.0474 -0.0818  0.0422
18753W        W93741  19.713  30.729  22.393  0.4084 -0.2369 -0.1863
18754W        W93742   2.194   6.139   0.564 -0.0253 -0.2528 -0.2843
18755W        W93743  12.022  23.054  12.662 -0.1253 -0.0037 -0.0561
18756W        W93744  11.423  16.664  21.887 -0.0015 -0.0807  0.1641
18757W        W93745  21.995  33.256  15.219  0.1660 -0.3347  0.2675
18758W        W93746  20.431  21.931   7.353  0.0989  0.1604 -0.1194
18759W        W93747  11.347   0.863  23.257 -0.1905 -0.2377 -0.0922
18760W        W93748  14.546   9.592  21.500  0.4214 -0.1735 -0.2772
18761W        W93749  10.735  16.764   2.420 -0.0365  0.0055  0.2296
18762W        W93750  17.409  18.482  11.733  0.2508 -0.3210 -0.1320
18763W        W93751  21.645  15.809  17.745  0.1543  0.1901 -0.3698
18764W        W93752   8.736  29.768   2.337 -0.0562 -0.0946  0.1633
18765W        W93753  25.098  21.409  21.812  0.2308  0.0408  0.2424
18766W        W93754  20.569   0.562  24.553 -0.3040  0.0846 -0.4503
18767W        W93755  27.162  18.658  21.895 -0.0961 -0.2721  0.0271
18768W        W93756   8.815  21.437   5.701 -0.0383  0.0359  0.2155
18769W        W93757  21.007  14.211   5.293  0.1734  0.0854  0.1507
18770W        W93758   8.917   3.373  20.582 -0.0129  0.1949 -0.2895
18771W        W93759  33.099   8.144  16.163 -0.1102  0.1710  0.1241
18772W        W93760   7.175  30.525   4.905 -0.0125 -0.0561 -0.2464
18773W        W93761  26.794  12.513  20.363  0.0449  0.3330 -0.0993
18774W        W93762  11.669   9.873   8.013  0.2829 -0.0646 -0.0405
18775W        W93763  34.804  26.626  21.525  0.0167 -0.0930 -0.3221
18776W        W93764  21.301   0.889  17.806  0.0071  0.1708  0.0570
18777W        W93765  28.431  24.291   8.917  0.0946  0.2337 -0.0121
18778W        W93766   2.560  30.117   4.697  0.0055 -0.1076  0.5345
18779W        W93767   6.908  16.128  19.161 -0.0909 -0.0819 -0.4084
18780W        W93768  11.239   7.982  10.294  0.2164  0.0065  0.1545
18781W        W93769  24.427  29.988  17.084  0.0218 -0.1578  0.1721
18782W        W93770  32.622  26.277  20.826 -0.1267  0.0130 -0.1541
18783W        W93771  10.661  29.810   5.196 -0.0246 -0.0986  0.1388
18784W        W93772  18.936   1.461  25.638 -0.3187 -0.0497 -0.3774
18785W        W93773  11.042  28.470  10.625 -0.2164  0.0340 -0.1852
18786W        W93774  11.666  15.465  23.498  0.4247 -0.1208  0.3954
18787W        W93775   9.433  25.118  14.312 -0.3176  0.0070  0.1163
18788W        W93776  32.780   1.363  21.357 -0.1850  0.1654  0.2015
18789W        W93777  11.098   5.983   6.612 -0.0065  0.0691 -0.1330
18790W        W93778  14.662  25.068  10.963 -0.1063  0.0360  0.0731
18791W        W93779  22.243  17.972  24.977  0.4142  0.1053 -0.0161
18792W        W93780  17.488  12.693   9.560 -0.3018  0.1657  0.0573
18793W        W93781  12.843  18.785   4.836  0.1652 -0.0597 -0.0276
18794W        W93782  33.474  15.851  13.289  0.1215 -0.1613  0.0201
18795W        W93783  30.485  17.201  22.298  0.1864  0.1169  0.0668
18796W        W93784  26.089  24.787  10.942  0.2180 -0.1867 -0.2783
18797W        W93785   2.704  27.866   3.663 -0.3370  0.0710 -0.1780
18798W        W93786  29.787  26.688   9.967  0.1006  0.0532 -0.1290
18799W        W93787  20.023  32.197   6.675 -0.0147  0.1972 -0.0882
18800W        W93788   5.860   6.881  21.968 -0.2767  0.0093  0.1969
18801W        W93789  29.911   1.649   3.413  0.1755 -0.2601 -0.1336
18802W        W93790   1.337   8.688  19.705  0.2614 -0.0807 -0.1691
18803W        W93791  26.132   4.735  22.637  0.0368 -0.0144  0.2128
18804W        W93792  17.821  24.653   6.960  0.3833 -0.1310 -0.2987
18805W        W93793  25.980  28.331  15.072 -0.3588 -0.1262 -0.0909
18806W        W93794  20.187  22.250   5.517 -0.2108 -0.0004  0.1496
18807W        W93795  10.815  26.778   8.078  0.1210  0.5429 -0.0796
18808W        W93796  21.139  11.299  24.449 -0.0977 -0.0421 -0.4234
18809W        W93797  17.765   1.155  20.248 -0.4079 -0.3339 -0.0271
18810W        W93798  13.945   5.598   4.121  0.2904  0.1924 -0.1922
18811W        W93799   0.521  31.561  22.092  0.4923 -0.0006  0.0154
18812W        W93800  31.880   5.647  24.667  0.2338  0.3217 -0.7122
18813W        W93801  13.285   5.290  25.249  0.0026  0.2435  0.1088
18814W        W93802  32.812   4.539  23.280 -0.0843  0.3433 -0.2351
18815W        W93803  29.181  12.752  21.774 -0.0160 -0.0923 -0.4103
18816W        W93804  35.170  20.391  24.206 -0.1029  0.2713  0.0457
18817W        W93805  23.163  12.889  24.939  0.0836  0.1023 -0.1302
18818W        W93806  20.840  24.560   5.715 -0.0972 -0.0612 -0.1150
18819W        W93807  27.973  28.456   9.901 -0.3321 -0.2356 -0.1641
18820W        W93808  32.353  20.980   9.467  0.0964  0.1236  0.1660
18821W        W93809  18.244  24.815   5.732 -0.0144  0.0516  0.0096
18822W        W93810  31.165  26.308  19.233 -0.0726 -0.2159 -0.0324
18823W        W93811  30.467  32.188  21.389 -0.1272  0.2415  0.1570
18824W        W93812  14.152  30.246  22.128 -0.0741 -0.0403  0.0915
18825W        W93813   3.273  16.832   1.067  0.1004  0.2984 -0.0897
18826W        W93814  26.446  21.615  20.340 -0.0583  0.1020 -0.1480
18827W        W93815   0.822  31.037   8.731 -0.0338  0.1725 -0.1315
18828W        W93816  14.893  21.069  25.944 -0.1690 -0.2612 -0.0006
18829W        W93817   2.751  19.284  22.403  0.1412 -0.1511  0.2482
18830W        W93818  34.395   2.749   3.364 -0.1434 -0.1099 -0.0214
18831W        W93819   2.186  21.059   3.244 -0.2189  0.3100  0.0010
18832W        W93820   3.175  22.494  25.105 -0.3789 -0.0607  0.0768
18833W        W93821  29.205  32.063  24.358  0.1412  0.1353 -0.1145
18834W        W93822  11.862  28.297   8.938  0.1355 -0.0143 -0.1444
18835W        W93823  26.034   8.330  16.930 -0.2484  0.1612 -0.2827
18836W        W93824  15.316  23.540   6.608 -0.0362 -0.0946 -0.1693
18837W        W93825  13.388  21.136   8.387 -0.1744  0.0239  0.3062
18838W        W93826  19.367   4.793  21.404  0.0112  0.1942 -0.0134
18839W        W93827  28.042  26.019  18.355  0.0419 -0.1685  0.0684
18840W        W93828  33.117  27.055  24.775  0.0133  0.2934 -0.3356
18841W        W93829  19.130   4.392   6.674  0.1482  0.1577 -0.2722
18842W        W93830  18.075  21.780   4.356  0.0835  0.3609  0.1454
18843W        W93831  18.083   0.953  22.478 -0.0372  0.0862  0.0212
18844W        W93832   2.734  26.265  19.121  0.2015  0.3553 -0.1694
18845W        W93833  31.901  19.084  15.973 -0.1006 -0.0662  0.1530
18846W        W93834  32.030  17.569  14.879 -0.1595 -0.0004  0.2729
18847W        W93835  13.175  15.009   1.499 -0.2350 -0.1292  0.0672
18848W        W93836  12.687  33.984   5.043 -0.1660 -0.0739 -0.1305
18849W        W93837   6.836   4.743  25.171 -0.2919  0.1565  0.1938
18850W        W93838  31.692  28.594  19.211 -0.1844 -0.0697 -0.0793
18851W        W93839   2.198  28.003   3.544  0.0525  0.0872  0.1091
18852W        W93840  28.144  27.414  14.467 -0.1051  0.2190 -0.0358
18853W        W93841   0.404  30.757  24.164  0.2549  0.3213  0.0984
18854W        W93842  13.382  11.381   1.388  0.4874  0.0266  0.1748
18855W        W93843  28.388  16.944  23.414  0.0285 -0.0682  0.0535
18856W        W93844   6.880  10.404  11.592  0.3306  0.1783 -0.0344
18857W        W93845   6.225   2.589   4.357  0.0024 -0.0473 -0.0167
18858W        W93846  26.041  18.677   8.061 -0.1318 -0.2577 -0.0415
18859W        W93847  23.774   8.766  21.188  0.0157  0.1318  0.0804
18860W        W93848  23.650  31.223  17.547  0.0803  0.0085  0.0701
18861W        W93849  32.731  15.440  25.278 -0.0562 -0.3005 -0.0434
18862W        W93850  29.315   1.848   2.222 -0.0838 -0.2048  0.1238
18863W        W93851   7.457   2.009   3.231 -0.3022  0.2736  0.1879
18864W        W93852   9.939  17.641   8.590 -0.1034  0.0770  0.0426
18865W        W93853   8.215  11.538  21.664 -0.0059 -0.0700  0.1365
18866W        W93854  15.323  31.198   4.516  0.3410 -0.0752  0.1204
18867W        W93855   9.704   1.732   8.642  0.3559  0.0910  0.2690
18868W        W93856  26.751  19.662   6.390  0.0813  0.0608 -0.3911
18869W        W93857  30.313  21.978  24.810  0.1069 -0.2540 -0.1641
18870W        W93858  13.933  13.701   6.465  0.2543  0.2626 -0.3072
18871W        W93859   0.310  12.986  12.964 -0.0667  0.0348 -0.2227
18872W        W93860  16.658  33.903  23.647  0.1582  0.0519 -0.0252
18873W        W93861  10.509  24.129   1.748  0.2591 -0.0912  0.2167
18874W        W93862  26.523  26.019   0.812  0.1258  0.0680  0.2617
18875W        W93863  22.312  29.960  17.777 -0.2251 -0.2919 -0.1700
18876W        W93864   6.137  13.926  22.103  0.0021 -0.1124 -0.1720
18877W        W93865  18.948  31.974  24.559  0.0070 -0.3994 -0.2647
18878W        W93866  33.330   9.143  11.704  0.1809  0.1367 -0.1026
18879W        W93867  10.205  31.256  14.905 -0.2428  0.0470  0.1944
18880W        W93868  11.012  17.940  20.422 -0.3181  0.2992 -0.1117
18881W        W93869   5.825   0.784   8.303 -0.0277 -0.0102 -0.2360
18882W        W93870   4.709  33.510  13.249  0.2272 -0.2323 -0.1909
18883W        W93871  26.844  27.153   9.384  0.0582 -0.1004  0.0898
18884W        W93872  26.576  23.330  21.178 -0.3247  0.0299  0.3007
18885W        W93873  26.855  20.634  21.516 -0.1179 -0.0284 -0.2380
18886W        W93874  14.791  32.984  23.527  0.0840 -0.1269  0.0342
18887W        W93875  13.340  13.540   1.160  0.0502 -0.0834  0.0602
18888W        W93876  33.604   3.939  17.148  0.0826 -0.0263 -0.0085
18889W        W93877  11.080  33.811  14.035  0.0782 -0.0327 -0.1991
18890W        W93878  18.887  16.526  24.576  0.0825 -0.0527  0.0366
18891W        W93879  34.389  11.316  23.214  0.1489 -0.1618 -0.2609
18892W        W93880   4.530   9.972   3.278  0.1237  0.0895  0.1168
18893W        W93881  24.808   2.449  17.472 -0.1271  0.0019  0.1745
18894W        W93882  29.276  19.073  14.437  0.1882 -0.1109  0.1267
18895W        W93883  31.815  20.460  11.248  0.0699 -0.1486  0.3334
18896W        W93884  34.075  34.614   0.072  0.0611  0.0593  0.0884
18897W        W93885  13.612   3.440   3.453  0.1840 -0.1906 -0.1356
18898W        W93886  28.271  17.850  20.454  0.2130 -0.2837 -0.0491
18899W        W93887  29.744  26.644   1.068 -0.2220  0.6247  0.3730
18900W        W93888  15.939   4.313  12.083 -0.0612  0.1588  0.2395
18901W        W93889  13.799  18.906   2.804  0.2215 -0.2198 -0.0320
18902W        W93890  28.356  26.379  16.203 -0.1620  0.2408  0.2052
18903W        W93891   6.934  17.570   2.788  0.3666  0.0917 -0.2251
18904W        W93892  27.758  24.239  19.322 -0.0127 -0.0714 -0.2179
18905W        W93893  15.898  16.976  13.384  0.0279 -0.5225  0.0492
18906W        W93894  20.133  29.082  25.079 -0.2755 -0.1858  0.0166
18907W        W93895   0.879  28.290  24.098 -0.2771 -0.0711  0.0249
18908W        W93896  15.885  14.068  11.446  0.0426 -0.0151 -0.0965
18909W        W93897  26.827   2.699  11.944  0.1310 -0.2110 -0.4109
18910W        W93898  18.774  14.628   5.876  0.0072 -0.1446 -0.1544
18911W        W93899  32.701  30.073  19.578  0.0921  0.0228 -0.1836
18912W        W93900  27.154  30.576  11.201 -0.0881  0.1487  0.3009
18913W        W93901  10.041  29.714  26.159  0.0287  0.3364  0.0824
18914W        W93902  19.655  23.054   7.563  0.0029  0.0041 -0.3363
18915W        W93903  20.174   4.071   9.066  0.2288  0.3292 -0.1403
18916W        W93904  35.069  12.736  18.950 -0.0786 -0.2750  0.0509
18917W        W93905  30.645   8.431  21.481 -0.0310 -0.2931 -0.1104
18918W        W93906  20.827  18.184  16.486 -0.2152  0.3226 -0.0261
18919W        W93907   0.948   7.964  13.580  0.0403  0.1319 -0.2507
18920W        W93908  13.689  24.460  15.811  0.0997 -0.1092  0.0406
18921W        W93909   8.095  34.387  15.076 -0.2287  0.2733  0.1736
18922W        W93910  20.963  32.998   4.789 -0.2968 -0.0785  0.0640
18923W        W93911  26.654   4.775  16.744  0.1332  0.1496  0.0176
18924W        W93912  28.161   5.067   3.007 -0.0274 -0.0004  0.1340
18925W        W93913  34.716  22.884   0.238 -0.1727 -0.1322  0.2121
18926W        W93914   2.292  26.661  20.929 -0.1656 -0.2537 -0.2106
18927W        W93915  21.134   7.828   8.969 -0.0546 -0.1934 -0.1540
18928W        W93916  18.707  16.529  17.727  0.0697 -0.5363  0.0167
18929W        W93917   9.119  11.777  10.827  0.1681  0.2696 -0.1114
18930W        W93918   2.729  23.328   4.593 -0.0498 -0.2740 -0.2044
18931W        W93919  10.109   7.609  10.887  0.0336 -0.1829  0.1652
18932W        W93920  31.561  16.125  24.776  0.1495 -0.1115  0.4957
18933W        W93921   5.167  13.825  24.831  0.1095  0.3666 -0.0351
18934W        W93922   3.104  15.395  23.973 -0.2835 -0.2364 -0.1876
18935W        W93923   0.016  16.524  11.071 -0.1667  0.0551  0.0888
18936W        W93924  33.306  21.173  15.221 -0.1240  0.0125  0.2082
18937W        W93925  10.378   3.922  10.376 -0.0759  0.1112  0.1488
18938W        W93926   6.536  15.397   6.080 -0.1307  0.0100 -0.0388
18939W        W93927  10.010  20.364   6.675 -0.2021  0.4417  0.2970
18940W        W93928  23.335  25.751   3.197  0.1923 -0.2424  0.3184
18941W        W93929  12.356  32.041   1.207  0.4915 -0.0675  0.1086
18942W        W93930  11.372   5.689  24.349 -0.3247 -0.3051 -0.1426
18943W        W93931   6.702   1.511  25.106  0.0995 -0.1117 -0.1828
18944W        W93932  31.728  18.586  21.010  0.0139  0.0829  0.2489
18945W        W93933  30.369  34.721  25.933 -0.1882  0.1845 -0.0654
18946W        W93934  15.705  29.602   6.803  0.2870 -0.1624 -0.1814
18947W        W93935   6.264  10.576  21.345  0.1536 -0.2646 -0.2046
18948W        W93936  14.267  14.328  19.866 -0.1337  0.0077 -0.0984
18949W        W93937  14.483   9.041  21.249 -0.1796 -0.0038 -0.0044
18950W        W93938  24.476  22.234   0.301 -0.1339  0.0832 -0.0376
18951W        W93939  17.446  26.655  25.059  0.0104  0.0573 -0.0138
18952W        W93940  10.247  15.087  10.165  0.2208  0.0672 -0.2002
18953W        W93941  34.092  10.179  17.456  0.0148 -0.0393  0.0716
18954W        W93942   2.314  13.716  12.954 -0.1388 -0.0363 -0.0112
18955W        W93943  33.088   6.041  11.011 -0.0798 -0.0771  0.0717
18956W        W93944  27.455  26.265  22.553 -0.1134 -0.0743  0.2108
18957W        W93945   1.658  17.682  18.543 -0.0225 -0.0927  0.0470
18958W        W93946  21.418  20.350   2.604 -0.1699  0.1658  0.1718
18959W        W93947   9.743  22.483   4.110  0.2506 -0.1546  0.3004
18960W        W93948   4.651  24.154   5.408  0.1267  0.0781  0.2168
18961W        W93949  19.292  15.722   6.372 -0.1820 -0.0894 -0.1426
18962W        W93950  33.912   5.920   0.785 -0.1454 -0.2817 -0.2775
18963W        W93951  14.362  28.505   3.897  0.1670  0.1919 -0.0753
18964W        W93952   4.046  30.255   1.775  0.0365  0.0206  0.3300
18965W        W93953  34.072   1.290  20.299 -0.1761  0.2278  0.0693
18966W        W93954  18.306  27.027   8.119  0.2328 -0.0727  0.0460
18967W        W93955   1.018  21.642  21.015  0.1691 -0.1436 -0.1604
18968W        W93956  28.928   4.855  12.045  0.2104  0.1292 -0.2036
18969W        W93957  34.456  33.659  14.839  0.1338 -0.2077  0.0771
18970W        W93958  29.983   4.920  20.459 -0.1453  0.0203  0.2240
18971W        W93959   8.547  10.820   4.755  0.0534 -0.2074  0.2208
18972W        W93960  13.796  18.833  14.427  0.0838  0.1664 -0.0473
18973W        W93961  26.239   7.608  13.633 -0.1324  0.1244 -0.4312
18974W        W93962  14.839  30.155   8.512 -0.3163  0.1370  0.3104
18975W        W93963   5.573   3.606   7.774 -0.1395  0.2586  0.1084
18976W        W93964  34.955  14.701  25.796  0.2500  0.2607 -0.0273
18977W        W93965   8.339   7.406   0.459  0.3431  0.1173  0.2562
18978W        W93966  20.328  24.701   6.612  0.0316  0.0348 -0.1457
18979W        W93967   3.028  14.200  26.101  0.2087  0.1621  0.0329
18980W        W93968  15.367   2.526   8.935 -0.0688  0.0098  0.2894
18981W        W93969  27.189  34.044  19.922 -0.0409  0.0243 -0.3900
18982W        W93970  33.411  20.540  14.486 -0.1088  0.0900 -0.2347
18983W        W93971  21.837  22.852  24.796 -0.1083 -0.1134  0.3356
18984W        W93972  30.315  15.434   8.636 -0.1311  0.0899  0.1697
18985W        W93973  32.067  33.916   2.854  0.0227 -0.0236  0.1061
18986W        W93974  32.412  13.591   0.845 -0.1740  0.0146  0.0545
18987W        W93975  33.296  15.169  23.655  0.1616 -0.2050  0.2135
18988W        W93976  11.801  34.913  25.605  0.1113 -0.3353  0.1177
18989W        W93977  26.460  24.564  20.064  0.0042 -0.1054 -0.0205
18990W        W93978   7.354   5.299  13.183 -0.1849  0.0578 -0.0403
18991W        W93979  28.082  22.348  22.353 -0.2468  0.0492 -0.3510
18992W        W93980   5.247  11.623  25.485 -0.0822  0.0206 -0.0359
18993W        W93981  21.093  19.358   6.736  0.0129  0.1479  0.0473
18994W        W93982  20.799  13.778  21.748 -0.1172 -0.0265 -0.0059
18995W        W93983  32.603  27.453   0.383 -0.1543  0.3814  0.2166
18996W        W93984  30.722  18.199  13.424  0.2083 -0.1561  0.0596
18997W        W93985  24.412   8.224  22.651 -0.1474  0.3841  0.3364
18998W        W93986  18.671  14.306  11.241  0.1839  0.4368 -0.2588
18999W        W93987   4.897  33.432   2.679  0.2783 -0.0399 -0.1243
19000W        W93988  27.560  31.291  13.211 -0.2377  0.0638  0.3112
19001W        W93989  12.051  24.019  15.092  0.2099  0.1277  0.0463
19002W        W93990   9.564  15.242  12.066 -0.1628  0.1169 -0.0748
19003W        W93991  12.557  14.947  24.911 -0.0015  0.0413 -0.2049
19004W        W93992  23.866   3.120  20.185  0.1700 -0.1629 -0.1793
19005W        W93993   7.701  33.618  10.323 -0.0368 -0.0907 -0.1639
19006W        W93994  14.941  18.361   2.427  0.0121 -0.0091 -0.1193
19007W        W93995  19.096  17.760   2.289  0.1089 -0.1252 -0.0468
19008W        W93996  30.483  23.323  10.601  0.2549 -0.3856 -0.1105
19009W        W93997  26.453  15.330  19.167  0.1792 -0.0642  0.1942
19010W        W93998  20.931   1.170   7.088 -0.0146  0.1583 -0.0885
19011W        W93999  11.257  27.460  17.157  0.2225  0.1404  0.0609
19012W        W94000  14.525  23.672  12.002  0.1097 -0.0356  0.2216
19013W        W94001  22.331  34.505  18.040  0.1569  0.5552  0.0282
19014W        W94002  13.830  19.519   1.420  0.0064 -0.2356  0.0438
19015W        W94003  12.728  30.268   4.165  0.1498  0.1729  0.5963
19016W        W94004  17.786   2.350   5.202  0.0085 -0.0460  0.4230
19017W        W94005  26.193  29.724  24.310  0.1170  0.1929  0.1637
19018W        W94006  11.866  24.475   0.451 -0.1813 -0.1976 -0.0015
19019W        W94007  30.031  26.629  20.422  0.0688 -0.1222 -0.1808
19020W        W94008  29.540  34.016  22.844  0.2000 -0.0135  0.0238
19021W        W94009  22.170  11.525   2.025 -0.2866  0.1694  0.0858
19022W        W94010   3.925  14.665  22.316  0.2711  0.2095  0.2333
19023W        W94011  24.636  15.095  19.567 -0.3702 -0.3794  0.0578
19024W        W94012  21.626   2.333  20.792 -0.0962 -0.1133  0.0232
19025W        W94013  33.373   1.101  22.778  0.1321 -0.0471 -0.0839
19026W        W94014   2.604  31.999  17.268 -0.0357 -0.1406  0.2552
19027W        W94015  13.227  29.564   4.819  0.2364 -0.0531 -0.2296
19028W        W94016  16.606   4.556  23.981 -0.1148 -0.1571  0.2647
19029W        W94017   6.699  28.848  24.436  0.0576 -0.1348  0.0842
19030W        W94018   2.449  10.016  21.426 -0.1133 -0.0426  0.2156
19031W        W94019   6.715  28.464   8.194 -0.3838  0.2633  0.1389
19032W        W94020  10.947  17.037   2.065 -0.0020  0.1009  0.1048
19033W        W94021  33.609  15.439   6.035  0.2053 -0.2192 -0.0908
19034W        W94022  21.887  24.518  18.318  0.3257 -0.0836  0.1586
19035W        W94023  35.237  15.999   8.289 -0.0475  0.1354  0.2976
19036W        W94024   2.489   4.189  22.603  0.1353 -0.2422  0.2139
19037W        W94025  25.603  11.938  13.810  0.1205  0.1844  0.2902
19038W        W94026   9.016   6.191   9.031  0.2612  0.1306  0.2008
19039W        W94027  17.911  18.996  23.221 -0.0489 -0.0244  0.0831
19040W        W94028  32.948  29.364   3.076  0.0800 -0.2950 -0.3785
19041W        W94029  16.197  32.616   4.557 -0.1466 -0.0473  0.1536
19042W        W94030   2.932   9.709   1.788  0.0142 -0.0225  0.2183
19043W        W94031  30.497  13.250   4.991  0.2231  0.0019  0.1296
19044W        W94032  11.872  16.976  12.951  0.1338 -0.3605 -0.0764
19045W        W94033   9.092   9.294   3.820 -0.1183 -0.1808  0.0150
19046W        W94034   1.417   7.006  24.612 -0.0371  0.4159  0.0039
19047W        W94035   3.140  11.760  15.105 -0.0743 -0.2823 -0.1947
19048W        W94036  24.621   1.500   1.317  0.0260 -0.1984 -0.1087
19049W        W94037   0.017   3.919   0.479  0.1977  0.1585  0.2022
19050W        W94038   6.780  11.169  19.540  0.0734 -0.3011  0.2901
19051W        W94039   3.640  33.176  20.539 -0.2189 -0.0650 -0.0414
19052W        W94040   7.601   6.345  19.226 -0.0374 -0.4519  0.2356
19053W        W94041  20.951  20.673   2.438  0.1282 -0.0483  0.0636
19054W        W94042   2.371  23.337  20.967  0.1399 -0.0574  0.2007
19055W        W94043  25.954  26.341  21.835 -0.2109 -0.5705 -0.1511
19056W        W94044  10.880   1.497   4.145 -0.0927  0.0327  0.0259
19057W        W94045  32.410  34.818  14.421 -0.0088 -0.0506  0.1088
19058W        W94046  35.100   1.515  19.405  0.0353  0.1764 -0.0496
19059W        W94047   9.454   7.869  23.431  0.0512 -0.2286  0.1389
19060W        W94048  20.230  25.443  21.793 -0.3083 -0.1044 -0.1587
19061W        W94049   0.966   7.963  20.860 -0.0198 -0.2113 -0.1692
19062W        W94050   3.592   7.515  20.985 -0.1909  0.0175 -0.2171
19063W        W94051  13.695  20.465   4.322 -0.0477 -0.1422  0.2362
19064W        W94052   9.069  22.492  10.054 -0.0797 -0.1881  0.2892
19065W        W94053  30.034   4.922  21.520 -0.1163 -0.3500 -0.1024
19066W        W94054  12.871  21.208   1.552  0.3165 -0.0506 -0.2277
19067W        W94055  23.952  22.736  18.527  0.0176 -0.0560 -0.1420
19068W        W94056   6.872  26.097   7.461  0.1630  0.0381  0.0456
19069W        W94057  32.525  30.521  19.750 -0.2857  0.1951 -0.0088
19070W        W94058  17.301  33.296  25.112  0.0355  0.3261  0.0799
19071W        W94059  24.423  27.957  24.450 -0.2236  0.1120 -0.0880
19072W        W94060   6.508  15.982  19.434  0.1865 -0.1979  0.3508
19073W        W94061   9.807  25.033   3.311  0.2220  0.1380 -0.0119
19074W        W94062  14.392   8.702   6.431 -0.1494  0.2361 -0.2125
19075W        W94063  14.933   2.762  24.268  0.1633 -0.0092 -0.3332
19076W        W94064  30.042  34.504  11.778  0.1883 -0.0091  0.1721
19077W        W94065  33.531   5.605   0.728  0.0914 -0.1567 -0.2164
19078W        W94066  13.443  25.640   3.090  0.0554  0.0632 -0.2460
19079W        W94067  13.391  33.595  13.370 -0.1721 -0.0842 -0.0996
19080W        W94068  35.131   9.663  13.108  0.0590  0.0950 -0.0707
19081W        W94069  12.763   3.871  10.435 -0.2375 -0.0570 -0.1301
19082W        W94070   8.767  23.381   5.625 -0.2015 -0.0929  0.0333
19083W        W94071  13.896  23.923  22.703 -0.0836  0.0615  0.1010
19084W        W94072  11.472  21.704  10.805  0.2832  0.0726  0.0574
19085W        W94073   3.223   6.545  23.428  0.2107 -0.2224 -0.1180
19086W        W94074  17.169  20.336   9.086  0.0475 -0.0612  0.1397
19087W        W94075  17.000   1.370  24.472 -0.2265  0.2727 -0.1863
19088W        W94076  13.394  15.550  18.937  0.1396 -0.0920 -0.2309
19089W        W94077  34.503   9.629  16.943 -0.2893 -0.1064 -0.1224
19090W        W94078   1.677  26.336   4.636  0.1565 -0.0000  0.2444
19091W        W94079   9.679   7.038   3.773 -0.0615  0.0732  0.3506
19092W        W94080   0.268   5.640  14.604 -0.0366 -0.2447 -0.2365
19093W        W94081  23.355   4.600   4.500 -0.3275  0.0838 -0.1139
19094W        W94082  16.973  19.041   9.270 -0.0477  0.3377  0.1048
19095W        W94083  23.121  32.357   3.860  0.1524  0.0225  0.2748
19096W        W94084  15.992  15.055  12.188 -0.0678 -0.2058 -0.0592
19097W        W94085   7.684  24.006  14.757 -0.0956  0.1959  0.1996
19098W        W94086   9.400  13.770  23.032 -0.2545 -0.1277 -0.2437
19099W        W94087  26.445   7.182  22.671  0.5076  0.0738  0.1485
19100W        W94088  34.369   9.401  13.276 -0.2079 -0.2653 -0.0723
19101W        W94089   5.092  18.596   2.832  0.1502 -0.0050 -0.0934
19102W        W94090  30.432  12.059  17.794 -0.0162  0.0406 -0.4432
19103W        W94091  17.366  33.493  16.879 -0.0397 -0.2430 -0.0185
19104W        W94092  34.068  25.124  25.629  0.1762  0.3283 -0.0070
19105W        W94093  31.276  20.752  15.434 -0.2486  0.1818  0.0519
19106W        W94094  19.272  13.750  25.378 -0.2738 -0.1839 -0.0090
19107W        W94095  26.985  32.878  16.326 -0.1243 -0.0371 -0.1375
19108W        W94096  16.825  21.919   4.830 -0.4431  0.2027  0.0744
19109W        W94097  15.136  28.812   8.621 -0.0969 -0.5099  0.1086
19110W        W94098  16.135  11.054   6.268  0.1713  0.3824 -0.1632
19111W        W94099  31.767  28.231  12.611  0.0342 -0.0595  0.2259
19112W        W94100   0.579  31.039  21.285  0.0873 -0.2223  0.0737
19113W        W94101  22.435  31.684  15.657 -0.0993  0.3020 -0.1334
19114W        W94102  11.252  20.217  25.762 -0.0527  0.1589  0.2972
19115W        W94103  12.615  22.701  25.815 -0.1853 -0.1416 -0.2277
19116W        W94104   4.030  22.586  16.555 -0.4067  0.0509  0.1937
19117W        W94105  21.966  15.784   1.860  0.1675 -0.1501  0.1451
19118W        W94106  23.793  10.479   0.032  0.1723  0.0011 -0.2525
19119W        W94107  16.145   1.865   1.724  0.2708  0.0391 -0.0130
19120W        W94108  28.511  35.260   5.649 -0.3557  0.1454 -0.0245
19121W        W94109   8.865  13.693   5.080  0.1856 -0.1765  0.2459
19122W        W94110  17.593   5.417   9.576  0.2261 -0.1198  0.0282
19123W        W94111  12.484  16.265  12.462  0.1668 -0.1656 -0.0103
19124W        W94112  16.762   6.327  10.126 -0.3406 -0.1900 -0.3481
19125W        W94113  19.866  11.213   5.286  0.2911  0.3276 -0.3852
19126W        W94114  18.159  16.141  23.922  0.2358  0.3196 -0.2116
19127W        W94115  29.522  24.493   9.424 -0.0559  0.0178 -0.2055
19128W        W94116   7.574  13.265   7.751 -0.2364 -0.2643 -0.0329
19129W        W94117   0.065  29.099   5.422 -0.1864 -0.1224 -0.1435
19130W        W94118  32.737  33.088  17.490 -0.2018 -0.1046 -0.1536
19131W        W94119   6.565   4.305  12.849 -0.0741 -0.0114  0.0398
19132W        W94120  18.278  34.036   6.380 -0.2359 -0.1849 -0.0307
19133W        W94121  13.320  22.968  11.861  0.0423 -0.4345  0.1244
19134W        W94122  32.206  15.573  22.641  0.3115 -0.4601 -0.0410
19135W        W94123   8.490   4.821  20.620  0.1327  0.0809  0.2301
19136W        W94124  35.311  30.706  25.007  0.2080 -0.0221  0.0819
19137W        W94125  24.103   4.480   1.016 -0.2479 -0.2853  0.1556
19138W        W94126  33.322  28.507   1.554 -0.0756  0.0334  0.1086
19139W        W94127  34.132  18.694   7.938 -0.0282 -0.0704 -0.1400
19140W        W94128  30.216  17.337   8.290 -0.2497 -0.1686  0.0360
19141W        W94129  20.494  18.634   0.002 -0.0228  0.1318 -0.1015
19142W        W94130  35.313  19.528  13.013  0.1363  0.1502 -0.1866
19143W        W94131   2.071   7.884  19.600 -0.1163  0.2259 -0.1060
19144W        W94132   8.219  27.489  14.106 -0.3112  0.1591  0.1735
19145W        W94133  16.427  29.100   0.198  0.3483 -0.3254  0.0529
19146W        W94134  13.807   0.854   2.683 -0.0291 -0.0825 -0.1081
19147W        W94135   1.395   1.666   1.666 -0.1482  0.1164 -0.1192
19148W        W94136   9.581  35.190  16.095  0.1578  0.3748 -0.3395
19149W        W94137  11.515  31.047   1.424  0.4022  0.3295  0.0456
19150W        W94138  28.768  23.021  18.625 -0.3718  0.0071  0.1466
19151W        W94139   1.135  27.542  24.671  0.1755  0.0423  0.1510
19152W        W94140  24.113  27.101   4.726  0.4300 -0.1412  0.1215
19153W        W94141  20.658   4.655   0.831 -0.0171  0.1284  0.1381
19154W        W94142  23.578  12.060  24.480  0.1194 -0.2276 -0.2764
19155W        W94143   5.478  13.739  25.581  0.1915 -0.0483  0.1286
19156W        W94144  10.536  34.882   8.453 -0.0861  0.1289 -0.4404
19157W        W94145  21.094  16.988  22.344  0.0732 -0.1343  0.1055
19158W        W94146   1.811  25.084   2.873  0.0959 -0.0082 -0.0653
19159W        W94147  19.400   2.875   5.344 -0.2774 -0.0638  0.0950
19160W        W94148   8.239  22.514  24.446 -0.1321 -0.0059  0.0828
19161W        W94149  14.038  25.726   2.188 -0.0757 -0.0532 -0.0683
19162W        W94150  26.349  10.974  11.854 -0.1163  0.2312  0.1474
19163W        W94151   1.279  31.723  24.355  0.1162  0.3063 -0.0006
19164W        W94152  11.255   1.242   9.702 -0.0343  0.2368  0.0740
19165W        W94153  28.947  19.371  23.539 -0.0191 -0.4404 -0.0621
19166W        W94154  27.469  29.761   2.196 -0.2344 -0.0495 -0.0364
19167W        W94155  19.731  20.714   6.957 -0.2040  0.1737  0.0620
19168W        W94156   0.820  33.757  16.626 -0.0402  0.1434  0.0784
19169W        W94157  13.797  34.884  24.573 -0.1103 -0.4867  0.3726
19170W        W94158  20.063  21.732   4.258 -0.1016  0.1233 -0.1810
19171W        W94159  12.514  13.864   6.400 -0.1083  0.0399  0.2828
19172W        W94160   1.469   8.671  21.067 -0.0246 -0.0351  0.0962
19173W        W94161  13.324  32.967  10.737 -0.0138 -0.1092  0.0352
19174W        W94162  18.121  15.183  20.402 -0.1101  0.2180 -0.1743
19175W        W94163   9.836  31.294   7.683 -0.1277 -0.0698 -0.0656
19176W        W94164   8.458  30.766   6.778 -0.0992 -0.0915  0.0211
19177W        W94165  25.177  19.999  22.518  0.1056  0.1490  0.0626
19178W        W94166  27.524  20.717  12.195  0.1879  0.0761 -0.1632
19179W        W94167  24.679  20.307  15.745  0.0987  0.0971  0.3229
19180W        W94168   4.914   6.606  21.390  0.4502 -0.0838 -0.3890
19181W        W94169  25.253  33.083  13.926  0.2077 -0.0286 -0.1516
19182W        W94170   2.583   7.805  15.801  0.0257  0.2912 -0.1084
19183W        W94171  32.292  18.042  14.909 -0.0582 -0.1350 -0.3350
19184W        W94172  28.746  25.533  15.394 -0.3204  0.1419  0.0647
19185W        W94173   3.648  34.926  23.127 -0.0922  0.1593  0.1531
19186W        W94174  20.877  26.424  25.045  0.2556 -0.2863 -0.0433
19187W        W94175   7.797  15.743  12.166 -0.1029  0.1116  0.1235
19188W        W94176   0.808  14.164  22.863  0.0739 -0.1132  0.0216
19189W        W94177   6.430  20.149  21.416  0.2372  0.2215 -0.0085
19190W        W94178  26.603   9.362  21.708 -0.2665 -0.1970 -0.2819
19191W        W94179   2.742   4.872  25.783 -0.0770  0.1091 -0.0877
19192W        W94180   1.494  23.895  19.516  0.0233 -0.1763  0.0493
19193W        W94181  30.399  13.992  17.316  0.0761 -0.3026 -0.4884
19194W        W94182  32.354  25.864  10.139 -0.1158  0.0561  0.2456
19195W        W94183  26.440  24.950  23.245  0.0683  0.0260  0.2036
19196W        W94184  33.489  32.670   6.779 -0.2303  0.0052  0.0105
19197W        W94185  16.318  17.470   3.669 -0.0158  0.1079 -0.2408
19198W        W94186   1.694  15.717   1.031  0.0700  0.1161  0.1467
19199W        W94187  33.685  29.131  20.449  0.0919  0.0543 -0.1166
19200W        W94188   2.751  15.418   0.412  0.1003  0.1904 -0.0802
19201W        W94189  30.905  29.396   4.961 -0.0295  0.1969  0.1515
19202W        W94190   2.206  30.855   0.490  0.2904 -0.0801  0.1017
19203W        W94191   6.839  22.602   0.339 -0.0476  0.1054 -0.0738
19204W        W94192  21.893  10.048   5.147  0.0142  0.0958 -0.0213
19205W        W94193   1.215  11.097  22.458  0.0896  0.0223  0.0472
19206W        W94194  12.040   2.534   4.422  0.0818  0.0436 -0.1682
19207W        W94195  12.805  13.237   4.949 -0.0008 -0.0832 -0.3116
19208W        W94196   3.801  16.745  14.766  0.1575  0.0831 -0.3200
19209W        W94197  23.939  31.303  21.435 -0.1456  0.1428 -0.1070
19210W        W94198   9.803  24.901  11.542 -0.1582 -0.3140 -0.3586
19211W        W94199  21.114  30.328  16.576 -0.1021 -0.2406  0.0382
19212W        W94200  16.720  12.621  21.827 -0.3053  0.1660 -0.0184
19213W        W94201  31.022  31.927  18.460  0.1824 -0.3488 -0.2265
19214W        W94202   8.128  32.030  12.305  0.4318 -0.2073 -0.1791
19215W        W94203  19.484  17.853   8.108  0.1588  0.1414 -0.2364
19216W        W94204  23.765  29.436   4.429 -0.2353 -0.0264 -0.5229
19217W        W94205   2.642  20.710   0.269 -0.0437 -0.1032 -0.3903
19218W        W94206  24.838   2.083   4.026  0.3137  0.1206 -0.0923
19219W        W94207  21.732  25.794  18.769 -0.0638  0.0273  0.0753
19220W        W94208  15.415   3.981  20.888  0.0351  0.1326 -0.1870
19221W        W94209  19.249  29.568  21.890 -0.1875 -0.1760  0.1420
19222W        W94210  20.784  31.744  19.103 -0.0553  0.4972 -0.1368
19223W        W94211  16.486  33.092   8.611 -0.0609 -0.1374  0.0294
19224W        W94212  14.771   5.746  25.431  0.2374  0.0103  0.1527
19225W        W94213  23.200  12.120  14.074 -0.2683  0.1993 -0.1829
19226W        W94214  25.858  30.965  15.810 -0.1257 -0.0930  0.0728
19227W        W94215  27.283  15.583  21.450 -0.3502  0.2835  0.0735
19228W        W94216  13.424   1.495   5.100 -0.3422 -0.0348 -0.0547
19229W        W94217  16.062  30.335   8.329  0.2235 -0.2728  0.1059
19230W        W94218  21.881   2.272   4.161 -0.1343  0.3403  0.1400
19231W        W94219  29.817  17.678   6.647 -0.1355 -0.0828 -0.0067
19232W        W94220  10.526  23.822  13.929 -0.2946  0.3817  0.3878
19233W        W94221   1.953  14.946  20.564 -0.1099  0.3029  0.5357
19234W        W94222  25.339  30.814  12.301  0.0411 -0.5401  0.0242
19235W        W94223  22.016   6.588  19.372 -0.1819  0.1767 -0.2188
19236W        W94224  29.488   9.085  25.432  0.1299  0.0924  0.1155
19237W        W94225   7.355  12.825  22.989 -0.0931  0.1970 -0.1319
19238W        W94226  16.679   5.833  20.226  0.3620  0.2085 -0.0687
19239W        W94227  29.592   2.287   2.169  0.1654 -0.4241  0.3140
19240W        W94228   9.958  25.166  10.368 -0.2919 -0.2561  0.2244
19241W        W94229  22.166  34.594   0.632 -0.1625  0.2717  0.4298
19242W        W94230   4.005  10.483  23.099  0.1845  0.0052  0.2462
19243W        W94231  29.149  33.840  11.358  0.1308 -0.2848  0.1998
19244W        W94232  10.517  20.245  22.044  0.1158  0.1870 -0.0232
19245W        W94233  18.963  13.175  17.857 -0.2336 -0.0668  0.0447
19246W        W94234   9.857  28.582  14.752 -0.1358 -0.1786 -0.2186
19247W        W94235  11.085  10.813  19.251 -0.0017  0.0136 -0.3536
19248W        W94236  30.317   3.722  13.945  0.0081 -0.1135  0.1763
19249W        W94237  29.627   4.758  20.864  0.0209 -0.0507  0.2315
19250W        W94238  34.133  29.706   5.392  0.0603  0.0645  0.1388
19251W        W94239   8.946  17.364   9.997 -0.0251 -0.0232 -0.0383
19252W        W94240   1.936  15.088  21.076  0.1259  0.2143 -0.0723
19253W        W94241   4.754  15.951  23.821 -0.1226  0.0078 -0.2544
19254W        W94242  32.442  29.987  12.965 -0.4523  0.0208 -0.0612
19255W        W94243  12.191  26.100  11.075  0.1929  0.2764 -0.1054
19256W        W94244  14.856   7.403   5.635 -0.1459 -0.0926 -0.2010
19257W        W94245  34.647   9.709  13.848  0.5570 -0.0594 -0.1551
19258W        W94246  19.445   4.802  19.804 -0.1634  0.2732 -0.0848
19259W        W94247   6.924   6.813  10.467 -0.2519 -0.1317  0.2344
19260W        W94248   2.698  14.858  15.517  0.4196  0.1267 -0.0046
19261W        W94249  28.940   3.857  15.795  0.0613  0.1372  0.1777
19262W        W94250   8.285  16.867   8.050  0.0765  0.3645 -0.2943
19263W        W94251   5.694  17.035  23.603 -0.0103  0.0487  0.0874
19264W        W94252  18.387  24.934  25.050 -0.2566  0.0007 -0.2253
19265W        W94253  25.187  13.445  22.285 -0.1158  0.0859 -0.0240
19266W        W94254  25.772   8.695  26.061 -0.2906  0.0901 -0.2824
19267W        W94255  30.686   5.188  18.297  0.2930 -0.1420 -0.1210
19268W        W94256  12.858  17.929   4.514 -0.1298  0.1441  0.1234
19269W        W94257  23.807  32.910  25.312  0.0513  0.1010  0.0163
19270W        W94258   7.673   3.593  11.431 -0.1769 -0.0458 -0.1116
19271W        W94259  23.565  33.608   0.740 -0.0821 -0.2590 -0.2836
19272W        W94260  12.091  15.713  14.022  0.5064  0.0475  0.2420
19273W        W94261   0.999  13.242  24.425  0.0556 -0.2253 -0.0623
19274W        W94262  33.474   9.214  17.122  0.1957  0.0794  0.2935
19275W        W94263  11.367  34.107   5.432 -0.3056  0.0654  0.1216
19276W        W94264  24.458  11.996  15.875 -0.2557  0.0022  0.0398
19277W        W94265   7.049   8.395  10.419 -0.0216 -0.0775 -0.1333
19278W        W94266   8.844  25.227   1.355 -0.1764  0.2349  0.0660
19279W        W94267  17.859  34.399   6.314  0.2977  0.4160 -0.1126
19280W        W94268   0.329  20.393  24.379 -0.4364  0.0997  0.3094
19281W        W94269  28.349  24.093  26.195  0.0338  0.0948  0.0938
19282W        W94270  28.276  33.195  25.124 -0.1866 -0.0829 -0.2741
19283W        W94271   7.309  14.146   9.684  0.4140  0.1805 -0.1226
19284W        W94272  16.751  34.263   4.029 -0.1279 -0.1415 -0.2935
19285W        W94273  30.383  18.381   7.462 -0.0816  0.0796 -0.1730
19286W        W94274  16.637   0.489  20.943  0.1305 -0.3617 -0.2313
19287W        W94275   8.930   4.583  20.666 -0.0291 -0.2446 -0.0468
19288W        W94276  25.296   0.089  20.254  0.2286  0.4428  0.1375
19289W        W94277  23.164   0.615  23.017  0.1356  0.2776 -0.0382
19290W        W94278  27.090   2.350  19.547 -0.2294  0.1764  0.0332
19291W        W94279   0.892  13.860  22.423 -0.1415 -0.0356  0.2850
19292W        W94280  10.242  21.445   0.383 -0.2290 -0.2369 -0.0523
19293W        W94281  18.904  23.531  19.179 -0.0723  0.1531  0.2195
19294W        W94282  18.534  25.573  26.180  0.2517  0.3661 -0.1553
19295W        W94283  19.146  12.772  20.006 -0.5414 -0.1715 -0.0704
19296W        W94284   1.089  12.330  19.287  0.0416  0.3157  0.1757
19297W        W94285  20.605   6.410  20.115 -0.1527 -0.2158  0.2318
19298W        W94286   5.442   3.632  22.598 -0.1668 -0.0798  0.1278
19299W        W94287  15.468  23.136  25.608  0.1790  0.0180  0.1832
19300W        W94288   8.783   3.660  12.125  0.0290  0.1259  0.2687
19301W        W94289  25.530  11.404  15.174  0.0589  0.0099 -0.1720
19302W        W94290  32.654  14.710   0.375  0.1122  0.2947  0.2132
19303W        W94291   7.570  28.450   4.277  0.0639  0.3469 -0.2701
19304W        W94292  12.906  29.480  23.080 -0.3621  0.1260 -0.0108
19305W        W94293  13.187  35.283   6.804 -0.0172  0.1936 -0.2877
19306W        W94294  32.005  18.552   8.781 -0.0023 -0.1034 -0.0054
19307W        W94295  16.925  29.380   3.399 -0.0374  0.1593 -0.0956
19308W        W94296  28.069   5.947  12.313  0.2735 -0.0719  0.4205
19309W        W94297   0.670   2.203   8.769  0.1284  0.2365 -0.0326
19310W        W94298  24.285  29.662  13.431  0.0579  0.2245  0.0793
19311W        W94299   7.584   8.348  22.004  0.0994  0.1634 -0.0807
19312W        W94300   0.561  31.524  15.730 -0.3373 -0.2341 -0.2461
19313W        W94301   7.527   9.755   8.139  0.0418  0.1132  0.2179
19314W        W94302   0.699  23.242   1.766 -0.0182  0.0706 -0.0456
19315W        W94303   8.634   2.983  10.258  0.3930  0.2009 -0.1413
19316W        W94304  34.743  32.246   6.241 -0.3080 -0.0654  0.3432
19317W        W94305  18.751  26.084  10.130  0.0562 -0.0901  0.0653
19318W        W94306   6.062  12.249  24.230  0.1923 -0.2283 -0.1620
19319W        W94307  31.856  31.738  19.936 -0.0305  0.2602  0.1164
19320W        W94308  31.459  30.397  17.620 -0.0536 -0.1205 -0.0837
19321W        W94309  10.705  11.287   0.667 -0.3182 -0.1465  0.0846
19322W        W94310   4.003   8.010   7.633  0.1469  0.3943 -0.0523
19323W        W94311   2.628  31.421   9.711  0.0070  0.2891 -0.1170
19324W        W94312   5.254  10.052  24.303 -0.0065  0.0221  0.2409
19325W        W94313   6.116  24.606   0.051  0.0817 -0.1159  0.1886
19326W        W94314   7.402  34.568   4.707  0.2928  0.1594  0.0080
19327W        W94315   8.277  15.443   9.800  0.2069 -0.1956  0.0491
19328W        W94316  16.700  23.243   9.668 -0.2171 -0.5257  0.1353
19329W        W94317  30.822  19.160   6.378 -0.2964 -0.3514  0.0081
19330W        W94318   0.053  35.220  25.150 -0.1440 -0.1333 -0.0162
19331W        W94319   0.870  33.819  24.671  0.0619  0.1374  0.2857
19332W        W94320  19.323  25.501   5.294 -0.1376 -0.0066  0.4384
19333W        W94321  30.811  23.386  22.641  0.0486 -0.1747 -0.1364
19334W        W94322  13.519  13.061   7.772 -0.4133  0.0835 -0.2395
19335W        W94323   7.451   5.891  12.659  0.1816 -0.3147  0.1064
19336W        W94324  33.067  18.056  23.785  0.0048  0.0005 -0.2251
19337W        W94325   0.122   3.239   2.986  0.1184 -0.1974  0.1387
19338W        W94326  34.321  23.850  10.881 -0.3748  0.2155  0.3546
19339W        W94327  21.370  10.857  19.946 -0.3655 -0.1592  0.0636
19340W        W94328  19.308  23.586   2.427  0.4302  0.0093  0.0312
19341W        W94329  13.093   6.119   1.744 -0.1960  0.1511  0.2983
19342W        W94330   4.146  18.126   3.563  0.2143 -0.0235 -0.1562
19343W        W94331   9.015  17.342   1.344 -0.0971 -0.2462 -0.2870
19344W        W94332   9.221  10.365  21.668 -0.3472 -0.1240  0.0852
19345W        W94333  22.397   4.553   2.524 -0.3075  0.3030 -0.3655
19346W        W94334  11.061  21.904  24.744  0.2790  0.1594  0.0769
19347W        W94335  23.034   6.291   3.959 -0.0661  0.2976  0.0543
19348W        W94336  29.850  15.795  24.031 -0.1435 -0.1464 -0.1553
19349W        W94337  14.157   6.582   7.097 -0.0441  0.1677 -0.1919
19350W        W94338  16.412  14.784  21.017 -0.0850 -0.1270  0.0439
19351W        W94339   1.575  18.234   1.045 -0.1739 -0.0025  0.1171
19352W        W94340  26.130  25.172  13.578  0.1460  0.2811 -0.1223
19353W        W94341  18.364  30.676  16.922  0.3106 -0.2067  0.0597
19354W        W94342  34.934  22.531  10.257 -0.1863  0.2714 -0.3916
19355W        W94343  31.194  20.099  15.872  0.0223 -0.1376  0.0170
19356W        W94344  10.494  25.539   5.837  0.0711 -0.2499  0.1791
19357W        W94345  10.809   8.210   4.044  0.0487 -0.2428  0.1528
19358W        W94346  11.450  22.195   1.702  0.0871  0.0245 -0.0685
19359W        W94347  27.910  31.374   4.309 -0.0044 -0.1261 -0.0475
19360W        W94348  27.016  10.621  15.070  0.1587 -0.1580 -0.2649
19361W        W94349   8.060  12.668  17.878 -0.2661  0.1628  0.0406
19362W        W94350  18.842  15.488   3.948  0.0136  0.1944 -0.0547
19363W        W94351  10.119  24.567   1.635  0.2187  0.2299  0.4738
19364W        W94352  21.875  30.882  15.596 -0.2005  0.4149  0.3456
19365W        W94353  15.135   9.951  19.473  0.0722 -0.1694  0.1046
19366W        W94354   6.860  23.921  12.100 -0.1501  0.1208  0.0984
19367W        W94355   7.602  19.248   3.816  0.0359 -0.0493  0.0915
19368W        W94356  15.023  27.405   1.665  0.0055  0.0545 -0.1011
19369W        W94357  30.695  27.077  17.579 -0.0105  0.0724  0.1017
19370W        W94358  31.239   2.623  21.402  0.0407  0.2956  0.0781
19371W        W94359  30.990  27.550  24.549 -0.0263  0.1126 -0.0193
19372W        W94360  34.748  24.094  15.783 -0.1374  0.1768  0.1762
19373W        W94361   0.544  12.555  20.669 -0.2887  0.3124  0.0866
19374W        W94362  19.482   6.811  25.246  0.3102  0.0925  0.0026
19375W        W94363  20.961  22.508   8.034  0.4608  0.1871 -0.0410
19376W        W94364  22.214  29.744   3.210  0.0877 -0.4717  0.0375
19377W        W94365  18.785  22.624   0.080 -0.0977  0.0808  0.4389
19378W        W94366   4.643  34.172   2.168 -0.1734 -0.1723 -0.0541
19379W        W94367   9.498  10.511  25.038  0.0698 -0.3089 -0.2303
19380W        W94368   1.118   9.828  22.053  0.0910  0.3405  0.1281
19381W        W94369  30.181  25.820  18.740 -0.0172  0.1651 -0.3018
19382W        W94370   0.201  26.507  21.241  0.1136  0.0095  0.0657
19383W        W94371  16.342  22.738   2.050  0.2000  0.3986 -0.3560
19384W        W94372   3.076  28.259  19.407 -0.1354 -0.0172  0.0544
19385W        W94373  22.036   1.037  20.395  0.0965 -0.3371 -0.0197
19386W        W94374  20.836   8.329  17.521 -0.1841 -0.1484  0.1947
19387W        W94375  19.286  14.876   0.843 -0.2613 -0.0401 -0.0894
19388W        W94376   1.969  24.236  21.669 -0.1072 -0.0396 -0.0810
19389W        W94377  10.675   3.329  11.564  0.1075 -0.0864  0.0396
19390W        W94378  23.365  17.791  15.776  0.2842  0.1100 -0.3431
19391W        W94379  14.624  10.620   4.856  0.3612 -0.1308  0.0377
19392W        W94380  24.594  35.103  17.546 -0.2373 -0.2224 -0.0834
19393W        W94381   9.431  31.567   5.207  0.0154  0.1056 -0.0400
19394W        W94382  28.252  21.795  24.131 -0.3320 -0.0504  0.1175
19395W        W94383  25.884   5.642  23.204  0.0511  0.0978  0.0626
19396W        W94384  16.273  17.458  21.762  0.0113 -0.2831  0.2673
19397W        W94385  16.363  20.603   8.664  0.1001  0.1835  0.0504
19398W        W94386  11.491   5.352  20.323  0.1791  0.1286 -0.2501
19399W        W94387   7.681   0.821   0.744  0.3609 -0.0564  0.1552
19400W        W94388  22.237  34.088  16.672 -0.2636  0.2646 -0.1936
19401W        W94389  14.379  14.440  11.651 -0.2272  0.0369 -0.1611
19402W        W94390  12.227  21.474   9.000 -0.0989  0.2017 -0.3497
19403W        W94391   5.303  19.108  20.600  0.0303  0.1992 -0.0797
19404W        W94392  25.300  30.472  17.155  0.0935 -0.1112 -0.1734
19405W        W94393   4.235  30.248  20.358 -0.2384 -0.0351  0.1170
19406W        W94394  30.441  15.945  20.782  0.0192  0.1273 -0.0159
19407W        W94395  18.380  10.060   6.597 -0.0236  0.1663 -0.3081
19408W        W94396   7.377  14.064  24.795 -0.2167 -0.2507  0.0765
19409W        W94397  27.882   3.186   4.349 -0.4036  0.0137  0.0625
19410W        W94398  29.667   3.645  17.842 -0.0572  0.1451  0.2982
19411W        W94399  21.305  16.862  22.836 -0.2318 -0.4442  0.0218
19412W        W94400  17.195  28.179   4.769  0.1586  0.1656 -0.1590
19413W        W94401   2.858  22.146  23.218  0.0021 -0.0171  0.0104
19414W        W94402   6.887  26.268  22.299 -0.0052 -0.0316 -0.0143
19415W        W94403  15.555  30.763   8.275  0.0774  0.3677 -0.1135
19416W        W94404  20.256  14.341  22.538  0.2569 -0.0201  0.0577
19417W        W94405   0.355  14.572  14.216 -0.0027  0.1953  0.0641
19418W        W94406  30.710  16.900  14.335 -0.1866 -0.1289 -0.1135
19419W        W94407   0.397  34.154   5.263  0.1278 -0.0944 -0.1098
19420W        W94408  31.441  17.011  11.595 -0.2212 -0.0511 -0.1138
19421W        W94409  14.053  17.619   7.331 -0.1236  0.2661  0.1445
19422W        W94410  14.901   8.082  11.009 -0.2054  0.0744 -0.1144
19423W        W94411   7.565  21.276  10.379  0.0651 -0.2719  0.0778
19424W        W94412   1.696  34.004   0.435 -0.3027  0.1155  0.3203
19425W        W94413   7.073   8.258   6.573 -0.1946 -0.0106  0.0500
19426W        W94414  20.622  21.662   7.732 -0.0896  0.0143  0.0353
19427W        W94415  17.625  18.849  25.185 -0.2750  0.0939  0.0748
19428W        W94416  20.124  24.625   7.847  0.1066  0.4160  0.0007
19429W        W94417   0.903  18.568  20.859  0.0619 -0.1281  0.0811
19430W        W94418  13.722  13.593   9.927 -0.0320  0.3382 -0.2245
19431W        W94419   8.923  10.627  11.826  0.0590  0.0823  0.2678
19432W        W94420  18.553  29.342  23.007  0.2614 -0.3375  0.0085
19433W        W94421   7.130  29.591   1.699  0.0355  0.0299 -0.5228
19434W        W94422  24.717   0.869  21.720  0.1063 -0.1968  0.0597
19435W        W94423  24.485  32.859  21.283  0.1001 -0.0271  0.0696
19436W        W94424  22.037  10.049   2.174  0.1315  0.0708 -0.1971
19437W        W94425  11.037  33.819  24.371  0.1208 -0.0817 -0.0965
19438W        W94426   4.083  12.067  25.189  0.1447 -0.0881  0.0278
19439W        W94427   4.612  30.213   0.775 -0.1111 -0.0357  0.1990
19440W        W94428  33.036   5.452  11.817 -0.0117  0.0372 -0.0490
19441W        W94429  29.761  19.630   4.750 -0.0614 -0.0726 -0.0465
19442W        W94430  30.927  10.180  11.536  0.2541  0.1090 -0.0681
19443W        W94431   4.314  35.135  21.639 -0.0104  0.0133 -0.4666
19444W        W94432  15.299  17.358  26.010 -0.1135  0.1725 -0.3354
19445W        W94433  16.464   7.277  11.153 -0.2039  0.0130 -0.0351
19446W        W94434  14.771   0.404  18.821 -0.2550 -0.1847 -0.1957
19447W        W94435   6.585  11.410  26.043  0.2582 -0.0560  0.1017
19448W        W94436  11.402  27.484  25.993  0.1239  0.0002 -0.1355
19449W        W94437  17.913   2.945  20.819  0.0051  0.0732 -0.1511
19450W        W94438  19.900  35.192  14.720 -0.1255  0.1888  0.3189
19451W        W94439  19.839   6.174  17.391 -0.2367  0.2278  0.1251
19452W        W94440   4.977  23.267   0.953  0.2475  0.2297  0.0431
19453W        W94441   7.333   4.509   6.073 -0.0138  0.3460  0.0737
19454W        W94442  18.850  32.836  23.287 -0.1910  0.2576 -0.0336
19455W        W94443  10.635  29.424   8.509 -0.0682  0.0256  0.1854
19456W        W94444  32.595  23.403  16.064 -0.3106 -0.0084  0.1367
19457W        W94445  25.082  33.396  22.646 -0.0064  0.1203 -0.0944
19458W        W94446  32.339   2.741   2.754  0.0004 -0.0723  0.1043
19459W        W94447  13.449  15.920  22.871 -0.1482 -0.0380  0.2864
19460W        W94448  30.010  24.230  17.723  0.2096 -0.0206 -0.3939
19461W        W94449  33.454  25.052  15.758  0.2100 -0.0156  0.0385
19462W        W94450  13.159  15.615  11.976  0.4208 -0.0194  0.2577
19463W        W94451  19.150  23.056  11.056 -0.0104 -0.0575 -0.0695
19464W        W94452   4.711   5.356   1.598  0.2894  0.1317  0.0371
19465W        W94453  25.201  23.806  25.639 -0.0709  0.3183 -0.0332
19466W        W94454  30.765  21.526  11.834 -0.1427  0.1449 -0.3348
19467W        W94455  18.572   2.083  16.095  0.2143  0.1939  0.2031
19468W        W94456  24.090  25.405  24.523  0.0616 -0.0155 -0.3800
19469W        W94457  25.545   6.677  15.391 -0.2122 -0.0478 -0.3119
19470W        W94458  20.333   6.433   2.118 -0.0783  0.3299  0.0611
19471W        W94459  10.594   7.475   3.804 -0.2153 -0.5478 -0.1886
19472W        W94460  30.369  20.533  12.770  0.0754  0.1107 -0.1229
19473W        W94461  18.693  28.812  25.925  0.0685  0.1213 -0.0489
19474W        W94462  15.432  28.554  11.763 -0.0935  0.1890 -0.0851
19475W        W94463  26.814  21.832  18.743  0.1460 -0.2607  0.0531
19476W        W94464  12.576   6.740   8.696  0.0457 -0.1570  0.2510
19477W        W94465   4.276  29.452   4.358 -0.0849 -0.0118 -0.0336
19478W        W94466   9.210  26.212  13.075 -0.0203 -0.1396  0.4585
19479W        W94467  20.745  17.419  23.070  0.2233  0.2081 -0.0190
19480W        W94468  10.328   0.090   0.805  0.0954 -0.2781 -0.0359
19481W        W94469  25.314   6.472   0.201 -0.1993 -0.1120  0.0669
19482W        W94470  16.488  29.531  12.265  0.1859  0.2636  0.3089
19483W        W94471  20.646   8.586   7.384  0.0741  0.3414  0.0192
19484W        W94472  22.687  34.954  22.173 -0.0358  0.0284 -0.1678
19485W        W94473  25.603  25.116  23.212  0.0321  0.0324 -0.1739
19486W        W94474  25.957   7.294  22.432  0.1149 -0.0532  0.1338
19487W        W94475  12.118   9.288  21.017  0.0140 -0.1596  0.0421
19488W        W94476   8.573  31.463   1.538 -0.3950  0.1118  0.1955
19489W        W94477  32.128  16.738  13.944 -0.1795  0.1175 -0.0814
19490W        W94478  29.048   2.221  23.843  0.2612  0.0822  0.2037
19491W        W94479  13.269  27.357   2.972 -0.0495 -0.0900  0.2378
19492W        W94480  18.345  32.853  19.150  0.5352 -0.4211  0.0425
19493W        W94481  33.689  26.668  24.173  0.2209 -0.2565 -0.1069
19494W        W94482  23.551  28.795  24.002 -0.2606 -0.1158  0.2175
19495W        W94483  32.748   0.674  25.707 -0.0441 -0.0937 -0.0659
19496W        W94484  30.005  30.807   2.143  0.1996 -0.1796 -0.0850
19497W        W94485   4.757  30.989   4.016 -0.0193 -0.0845 -0.1024
19498W        W94486  27.042   5.567   0.176 -0.2680  0.2239  0.2191
19499W        W94487  13.975  29.743   8.342  0.1933 -0.0060 -0.0919
19500W        W94488  23.241  34.391  14.841  0.0699  0.0842 -0.0149
19501W        W94489  22.821   6.750  22.167  0.1539  0.1085 -0.0331
19502W        W94490   3.031   5.042  17.120 -0.2016  0.1695  0.0776
19503W        W94491  20.339  28.245  22.333 -0.0166 -0.3275 -0.0071
19504W        W94492  17.068  35.222  19.073 -0.0657 -0.1784  0.0842
19505W        W94493  11.824  28.580   0.737  0.1162  0.1507  0.7095
19506W        W94494  23.259  10.460  16.747  0.0981  0.0746 -0.3299
19507W        W94495  18.353  35.292  17.399  0.1119  0.0344  0.2524
19508W        W94496  17.763   7.011  21.331  0.1412  0.1010  0.0497
19509W        W94497   3.470  26.025   4.857 -0.2540  0.1178  0.0964
19510W        W94498  11.535  21.235   7.988  0.0069  0.1367  0.1474
19511W        W94499   7.358   4.320  20.215 -0.1643  0.0176 -0.0593
19512W        W94500  28.393  31.915  13.294  0.1186  0.0127  0.1064
19513W        W94501  28.993   8.331  25.557 -0.0531  0.0376  0.1117
19514W        W94502   3.496  13.456  15.627  0.4019 -0.0596 -0.1846
19515W        W94503  25.424   6.513  24.843  0.1365  0.4098 -0.0279
19516W        W94504  15.409  26.336  16.137  0.0987 -0.1821 -0.1885
19517W        W94505   8.633  20.808  22.478 -0.0791  0.2475  0.0671
19518W        W94506   1.584  18.675   0.703  0.0133  0.3399 -0.0698
19519W        W94507  15.147  10.274  13.309 -0.0914 -0.0321  0.1052
19520W        W94508  12.853  11.206   9.216 -0.0082  0.2066  0.0857
19521W        W94509  32.977  20.825  25.205 -0.0517  0.1969  0.0770
19522W        W94510  22.362  21.658  16.901 -0.2422  0.3342  0.1750
19523W        W94511  14.119  31.059   4.604 -0.3650  0.3429 -0.2175
19524W        W94512  19.874  22.580  18.789  0.3956  0.0197 -0.0592
19525W        W94513  19.503  22.859  19.018 -0.0171 -0.1052  0.1686
19526W        W94514  25.319   0.788   4.572 -0.0923  0.1320  0.0036
19527W        W94515  29.103   2.313   0.527  0.2300  0.2298 -0.0022
19528W        W94516  17.347  34.561  22.516  0.1992  0.3170  0.0920
19529W        W94517  24.368  30.882  16.880  0.2713  0.0624 -0.0947
19530W        W94518  29.458  31.079   4.409  0.1033  0.1606  0.0019
19531W        W94519  12.619  22.442   7.222 -0.3984 -0.0570  0.1079
19532W        W94520  14.585  29.128  22.042  0.1536 -0.2009 -0.0660
19533W        W94521  14.824  17.306  22.748  0.2432  0.0579 -0.0926
19534W        W94522  17.468  16.036  10.852  0.1096  0.0131  0.2944
19535W        W94523  12.063  31.461  23.359 -0.4058  0.3656  0.1744
19536W        W94524  13.503  34.703   9.668  0.2278 -0.2535  0.0824
19537W        W94525  13.534  10.003  19.896  0.1612 -0.1469 -0.5139
19538W        W94526  18.889   2.349   7.540 -0.0356  0.2187  0.0493
19539W        W94527  12.226  10.386   8.580 -0.0986  0.0662 -0.1102
19540W        W94528  31.617  35.134  17.750  0.1021 -0.1848  0.0247
19541W        W94529  18.877  29.317   0.093 -0.3759 -0.0819 -0.2867
19542W        W94530  29.199  12.528  18.787 -0.1424 -0.2939  0.1773
19543W        W94531  34.155  16.502   9.659  0.1203 -0.0609  0.2098
19544W        W94532  17.816  13.086  11.789  0.1317  0.0802  0.1167
19545W        W94533  16.219   7.566   6.564 -0.1078  0.1832  0.0274
19546W        W94534   2.587   5.360  21.061  0.0063  0.3068  0.1250
19547W        W94535  17.336  12.744  23.963 -0.1312  0.0953  0.3594
19548W        W94536   9.946  12.127  18.209  0.2815  0.2690  0.0963
19549W        W94537   6.552  14.237   4.363 -0.0876 -0.0577 -0.1059
19550W        W94538  31.214   0.812  22.602 -0.4291  0.1074  0.0011
19551W        W94539  12.685   2.530  11.160 -0.1432  0.3333  0.0193
19552W        W94540  26.949  18.842  24.507  0.2103 -0.2789  0.1610
19553W        W94541  29.764  22.999  24.611  0.1732 -0.1385  0.1505
19554W        W94542  24.616  27.380  11.949  0.1644  0.2209  0.2845
19555W        W94543  31.131  23.394  18.289 -0.0406  0.0217  0.3191
19556W        W94544  34.737   1.124  16.380  0.1570  0.0315 -0.1374
19557W        W94545  35.154  13.170  22.652  0.3397  0.0667 -0.0776
19558W        W94546   7.530  12.985  22.514 -0.0288  0.0974  0.0211
19559W        W94547   1.354  16.738  13.311 -0.0594 -0.0180 -0.0360
19560W        W94548  20.984  26.738  18.865  0.2564  0.0398 -0.4419
19561W        W94549   8.917  31.442  12.536 -0.0305  0.0633 -0.2969
19562W        W94550  17.036   0.418   6.615  0.3903 -0.0390 -0.0270
19563W        W94551   7.307  16.442  10.947  0.1573  0.0726  0.1616
19564W        W94552  14.636  33.128   7.287  0.0165 -0.2505 -0.2986
19565W        W94553  11.660  27.487   4.844  0.1209 -0.3044 -0.0205
19566W        W94554  18.506   1.729  23.213 -0.2520  0.2285 -0.0100
19567W        W94555   8.165  33.815  10.862  0.1248  0.0081 -0.0750
19568W        W94556  16.787  33.796   8.944  0.1646  0.0049  0.2829
19569W        W94557  19.805  18.363  19.489 -0.2431  0.0453 -0.0123
19570W        W94558   9.296   8.165   6.359  0.0010  0.0218  0.0418
19571W        W94559  34.353  18.025  11.700 -0.0283 -0.1262 -0.2702
19572W        W94560  19.329  10.853   5.596 -0.0051  0.4021  0.0164
19573W        W94561  18.288  28.837   8.211  0.2119 -0.1389  0.2674
19574W        W94562  18.523  26.891  23.102 -0.0689 -0.1534  0.0963
19575W        W94563   8.362  16.960   6.822 -0.1177 -0.0127  0.1212
19576W        W94564  32.836  20.689  20.866 -0.0992  0.2570  0.1789
19577W        W94565  25.240   7.832   0.041 -0.0603 -0.0580 -0.5142
19578W        W94566  24.719  33.646  16.307 -0.1095 -0.0983  0.0262
19579W        W94567   9.722  30.466   6.456  0.1560 -0.2583  0.2322
19580W        W94568  11.765  11.889  22.459 -0.0520 -0.4446 -0.0860
19581W        W94569  32.737   9.897  10.937  0.0766  0.3717 -0.1556
19582W        W94570  15.829   8.331   8.426 -0.1782 -0.4501 -0.1518
19583W        W94571  13.270  10.051  13.620  0.0845 -0.0356  0.0214
19584W        W94572   4.019  20.400  23.972 -0.3625  0.0415  0.1128
19585W        W94573   9.320  33.032   4.455 -0.2464  0.0443 -0.2004
19586W        W94574  29.865   9.777  10.592 -0.1499 -0.5247 -0.0230
19587W        W94575  34.899   7.768   2.192  0.0600  0.0143  0.2090
19588W        W94576   6.918  26.176   6.543 -0.0571  0.1976 -0.0524
19589W        W94577  24.103  30.495   0.219  0.1118 -0.2150  0.1812
19590W        W94578  20.348  25.301   8.371 -0.2654  0.2100  0.0299
19591W        W94579  26.104  13.236  20.115 -0.0664 -0.1609 -0.0468
19592W        W94580   5.518  27.868   8.298  0.3244  0.1219 -0.2540
19593W        W94581  12.462  22.688   7.935 -0.0499  0.1926 -0.4373
19594W        W94582  12.775   8.838  23.551 -0.2482 -0.1436  0.3285
19595W        W94583  15.166  24.561   4.465 -0.2228  0.0417 -0.2622
19596W        W94584  17.091  22.270  13.996  0.0236 -0.0664  0.1379
19597W        W94585  31.005  31.406  25.595 -0.0594  0.1271 -0.0651
19598W        W94586  28.471  25.909   7.513  0.0133 -0.0261  0.1321
19599W        W94587  25.420  24.722  11.038  0.2767  0.1599 -0.1225
19600W        W94588  34.341  28.887  16.749 -0.0577  0.0080  0.0465
19601W        W94589  10.895   6.622   4.224 -0.4149 -0.1368  0.0451
19602W        W94590  21.445  21.321   3.802 -0.0944  0.0203  0.1352
19603W        W94591  21.000  11.892  15.641  0.0372  0.4274 -0.2032
19604W        W94592  15.424  12.392  13.714 -0.0610  0.1254  0.1207
19605W        W94593  14.672   9.934   0.995 -0.2176  0.2632  0.1442
19606W        W94594  12.442  20.306   7.618  0.1496  0.0102  0.2688
19607W        W94595   8.321   5.110  22.772 -0.4171 -0.1775  0.1486
19608W        W94596  11.338  31.748   8.501 -0.1502 -0.0192  0.1494
19609W        W94597  14.595  12.951   5.069 -0.0706 -0.1040  0.2513
19610W        W94598  20.892  15.876  17.585  0.4046  0.0217 -0.0509
19611W        W94599  33.352  10.852  24.153  0.0828  0.1486  0.0785
19612W        W94600   2.639   8.291  22.791 -0.3444 -0.2210 -0.2289
19613W        W94601  21.539   4.890  21.970 -0.4441  0.0529 -0.3462
19614W        W94602  34.293  16.882  18.102  0.1550 -0.4489  0.1114
19615W        W94603  21.824  16.621   2.566  0.1896  0.1550  0.0121
19616W        W94604   8.290  10.307   6.362  0.1711  0.0242 -0.0251
19617W        W94605  29.003  14.442  17.752  0.0542  0.1605 -0.0103
19618W        W94606  23.191  12.189  17.617 -0.0347 -0.0792 -0.1986
19619W        W94607  25.846  34.057  25.377 -0.2100 -0.3942 -0.1652
19620W        W94608  30.183  20.444   8.471  0.1407  0.3439  0.2243
19621W        W94609  31.183   0.201  16.211  0.1140 -0.1208  0.1058
19622W        W94610  22.298  23.014   4.215  0.2362 -0.1845  0.2766
19623W        W94611  32.219  13.930  14.651 -0.1185  0.4893  0.0472
19624W        W94612  13.632  11.944   8.006 -0.2281  0.1031  0.2127
19625W        W94613  27.291  28.992   3.057 -0.2031 -0.0765  0.2251
19626W        W94614   0.015   2.082  24.645 -0.3758  0.2405  0.0250
19627W        W94615   4.537  12.640  18.920  0.0658 -0.1115 -0.0722
19628W        W94616   9.182   4.480   8.510 -0.0059  0.0447  0.0833
19629W        W94617   0.310  19.070   9.804  0.1642  0.1671 -0.0791
19630W        W94618  16.014  28.603  23.180 -0.0170 -0.1607  0.0125
19631W        W94619  23.123  22.974  20.921 -0.6154 -0.2750  0.2663
19632W        W94620   7.418  23.690  10.976  0.0925  0.0980 -0.1153
19633W        W94621   8.827  27.312   0.172 -0.0599  0.0584 -0.2131
19634W        W94622   4.128   6.618  18.385  0.4563  0.1956  0.1584
19635W        W94623  23.316   2.792  15.458  0.0447  0.1586 -0.1653
19636W        W94624  12.249  12.106   8.519 -0.0672  0.0299 -0.0842
19637W        W94625   1.986  19.145  12.224 -0.0445  0.2194 -0.3138
19638W        W94626  13.627   7.313   6.276 -0.2028 -0.1568  0.2388
19639W        W94627  18.213   3.375   6.686  0.0674 -0.2928 -0.0900
19640W        W94628  24.649  33.484  10.710  0.0315 -0.0047  0.1934
19641W        W94629  13.815   6.963   3.030 -0.1140  0.1869 -0.2417
19642W        W94630  27.981  14.824   4.727 -0.2979  0.1077 -0.0657
19643W        W94631   7.460  30.684   3.906  0.1048 -0.1837 -0.0307
19644W        W94632  32.141  20.022  11.127  0.3842  0.2343 -0.0652
19645W        W94633   4.653   2.774  22.660  0.1466 -0.1126  0.2028
19646W        W94634  12.539  33.140  12.877  0.2538  0.4074  0.1693
19647W        W94635  10.414  29.654   1.911 -0.3102  0.2041  0.1085
19648W        W94636  12.397  27.952   7.124 -0.0715 -0.1306  0.4355
19649W        W94637  32.002   8.465  11.720 -0.2810  0.0194 -0.2643
19650W        W94638  20.810  17.842  18.852 -0.2025 -0.0207  0.0924
19651W        W94639   7.723  17.991   5.312 -0.1155  0.0993  0.1294
19652W        W94640  21.287  27.049  20.502  0.0736 -0.0112  0.0172
19653W        W94641  27.231  14.589  25.441 -0.0204 -0.0874 -0.2429
19654W        W94642  34.422  22.848  25.145  0.1824 -0.2000 -0.0631
19655W        W94643   6.598  24.940  22.407  0.0914 -0.1439 -0.2894
19656W        W94644  20.644   7.972   5.811  0.0184 -0.3020 -0.2008
19657W        W94645  31.708  18.071   8.629 -0.0578  0.1246 -0.1750
19658W        W94646  26.464  20.824  26.238  0.0970 -0.0303 -0.1038
19659W        W94647   8.066   4.966  11.261  0.0699  0.0639 -0.3939
19660W        W94648  11.981  26.404   5.593 -0.2726  0.0025  0.0258
19661W        W94649   4.791   3.838   7.117 -0.0413  0.0269  0.2310
19662W        W94650   5.911  24.814   3.882  0.1603 -0.0266  0.1518
19663W        W94651  27.141  31.157  21.031 -0.3146 -0.4698 -0.3341
19664W        W94652  24.724   5.039  13.817 -0.1059 -0.0245  0.2102
19665W        W94653  20.503   2.487  24.882 -0.1347 -0.1836  0.0760
19666W        W94654  32.349  33.419  20.447  0.0167 -0.0358  0.2614
19667W        W94655  25.554  27.991  25.086 -0.0029  0.0592  0.0083
19668W        W94656  28.154  21.117  20.200  0.2510  0.0272 -0.0426
19669W        W94657  25.032   2.930  23.247 -0.3623 -0.1628  0.1576
19670W        W94658   4.010  31.248   6.020  0.1263 -0.0451  0.1174
19671W        W94659  21.286  16.249   1.307 -0.2603 -0.1257 -0.4220
19672W        W94660  17.584  33.042   4.477  0.2040  0.0052  0.2779
19673W        W94661  21.010  25.699   3.056 -0.0092  0.0349 -0.0913
19674W        W94662  12.470  19.435   7.745  0.2517  0.1444  0.3205
19675W        W94663  22.646   0.406   4.860 -0.1586  0.3010  0.0939
19676W        W94664   4.237   1.109   5.971 -0.1144 -0.3123 -0.1410
19677W        W94665  26.714   2.377  21.064 -0.1148  0.2954  0.1666
19678W        W94666  34.527  23.716   0.823 -0.2016 -0.0453 -0.0854
19679W        W94667  34.720  23.297  16.649 -0.1676  0.2307 -0.0436
19680W        W94668  27.147  32.125   0.776  0.0214  0.2384 -0.0085
19681W        W94669  14.333  22.007   8.763  0.1728  0.1273  0.0856
19682W        W94670  11.563  31.193   6.925  0.1438 -0.0200 -0.0281
19683W        W94671   8.657   8.368  12.255  0.0941  0.0491  0.3103
19684W        W94672  25.259  27.416  25.552 -0.3600  0.0448 -0.2439
19685W        W94673  15.876  24.211   1.614  0.1545 -0.1467  0.1373
19686W        W94674  27.331  11.063  20.474 -0.3068 -0.0238 -0.2015
19687W        W94675  24.490  23.506  14.540 -0.2045 -0.0017 -0.3387
19688W        W94676   9.324   4.965   6.117 -0.2477  0.2101  0.0042
19689W        W94677   7.083  13.821  20.952  0.1763  0.0554  0.2525
19690W        W94678  19.822  20.381  23.714  0.2175 -0.0356  0.1944
19691W        W94679  26.871  30.018  19.664 -0.0295  0.0258 -0.0873
19692W        W94680  27.825  25.564  18.369  0.2921 -0.0305 -0.0508
19693W        W94681  29.436   0.607  23.715 -0.2351  0.3054  0.1478
19694W        W94682   0.123  11.819  13.553  0.1603 -0.0724 -0.1074
19695W        W94683  23.126  29.859  14.406  0.0067  0.3970 -0.2081
19696W        W94684  30.143  32.434   0.392 -0.0375  0.0125 -0.1044
19697W        W94685   4.952  31.238   3.534  0.2685  0.0040  0.0352
19698W        W94686   3.270   4.569  19.389  0.1490  0.2230  0.0631
19699W        W94687  24.286  11.286  20.889  0.0652 -0.2547  0.1559
19700W        W94688  10.801  22.340   9.340 -0.2740 -0.1133 -0.3214
19701W        W94689  32.524  32.968  19.638  0.1639  0.0466  0.3489
19702W        W94690  22.795  25.387  25.679 -0.0242  0.4236 -0.3893
19703W        W94691   6.737  27.835  25.470  0.0073 -0.0501  0.2159
19704W        W94692  32.969  25.399   9.292  0.1267  0.1386  0.0379
19705W        W94693  31.846  12.214  23.891 -0.0908 -0.0598  0.2294
19706W        W94694  31.821  25.867  15.810  0.1031  0.3601  0.1313
19707W        W94695  22.013   1.430  19.354  0.1954 -0.1362  0.1060
19708W        W94696  34.332  11.353   7.807  0.5022  0.2845 -0.0233
19709W        W94697  15.818  28.950  24.484  0.2002  0.1483 -0.0701
19710W        W94698  29.259   9.758  19.479 -0.1702 -0.0561  0.0352
19711W        W94699  33.617  33.115  15.879  0.2048 -0.0102  0.2321
19712W        W94700  21.145   7.229   2.947 -0.1784 -0.2775  0.3728
19713W        W94701  17.863  24.094  13.222  0.0421 -0.2978  0.2900
19714W        W94702   0.509  23.818  24.476 -0.0460  0.7547  0.0040
19715W        W94703  17.815   5.686   8.565  0.0256  0.5016  0.0774
19716W        W94704  34.398  22.427   9.984 -0.2051 -0.0867  0.0738
19717W        W94705  20.777  31.285  25.472 -0.0906  0.2919  0.1486
19718W        W94706  32.717  15.789  20.191 -0.2142 -0.2584  0.0139
19719W        W94707  32.230  28.966  18.106 -0.1754 -0.1606  0.2155
19720W        W94708  23.987  32.871  14.360 -0.5730  0.0303 -0.0738
19721W        W94709  10.141   8.537   2.152  0.0027 -0.0495  0.1037
19722W        W94710   1.989  17.986  22.022  0.0083 -0.0685  0.0850
19723W        W94711  23.305  16.982  14.247  0.3079  0.1902  0.3734
19724W        W94712  22.802  19.927  13.831 -0.0503 -0.1470  0.2149
19725W        W94713   2.707  15.787  20.360  0.1429  0.0692 -0.2171
19726W        W94714   7.963  28.598   0.933 -0.1740 -0.1345  0.0396
19727W        W94715  31.669  23.312  23.624  0.1451  0.1281 -0.0562
19728W        W94716   9.866  10.442  23.266 -0.1342  0.2465 -0.0917
19729W        W94717  19.848  27.215  24.043  0.0359 -0.0146 -0.0570
19730W        W94718   1.855  22.916  18.824  0.5891  0.2884  0.2327
19731W        W94719  13.129   9.204  22.367  0.2335  0.1899 -0.0531
19732W        W94720  34.804   4.427   1.595 -0.0306  0.0514  0.1578
19733W        W94721  18.332  30.069  23.486 -0.3264 -0.0710 -0.0141
19734W        W94722  21.133  13.462  17.675  0.0201 -0.2059  0.0743
19735W        W94723  14.696   5.341  21.705  0.3314 -0.1408 -0.3312
19736W        W94724  18.058  16.928   7.162 -0.5539 -0.0046  0.2014
19737W        W94725  10.224  28.324   3.573 -0.1284 -0.0304  0.3937
19738W        W94726   4.033   9.580  26.219 -0.3269 -0.1460 -0.1488
19739W        W94727  16.483   1.888  25.938 -0.0731 -0.0138  0.1526
19740W        W94728   9.461  31.374  12.535  0.3102  0.0405 -0.1621
19741W        W94729  27.587  24.787  24.721  0.1946 -0.3150 -0.0581
19742W        W94730  12.988  11.976  10.440  0.0447 -0.0027 -0.2310
19743W        W94731  18.618   6.278  22.433  0.2974  0.1552 -0.3166
19744W        W94732  13.390  14.491   2.634 -0.1256 -0.1448  0.4124
19745W        W94733  22.879  35.066   1.372 -0.1011 -0.0113 -0.1095
19746W        W94734  17.661  13.921   2.018  0.0680  0.0590  0.1506
19747W        W94735   2.604  27.003   1.132  0.1953 -0.1890 -0.2061
19748W        W94736  18.641   8.652  10.256  0.1983 -0.2549  0.1743
19749W        W94737   2.634   5.334  23.045  0.0921  0.0642 -0.1815
19750W        W94738  11.314  16.320  11.418  0.1113 -0.0228  0.1368
19751W        W94739  21.864   3.695  25.063 -0.4314  0.0322 -0.1585
19752W        W94740  17.096   7.598   0.939  0.0972 -0.0492  0.1497
19753W        W94741   9.100  28.642  16.937 -0.2568  0.0242  0.0798
19754W        W94742  11.925  13.367  25.083 -0.1620 -0.3814 -0.1129
19755W        W94743   3.790  14.170  15.417 -0.2231 -0.1964 -0.4365
19756W        W94744  10.106   6.697   2.940 -0.0309 -0.4112 -0.0199
19757W        W94745  21.057   1.543  25.048  0.2044 -0.3125  0.0063
19758W        W94746  17.963   5.973   4.493 -0.0177 -0.0631  0.0466
19759W        W94747  28.659   3.410   0.936  0.0768 -0.0595 -0.2657
19760W        W94748  20.058  24.030   0.258 -0.1895 -0.0345 -0.0878
19761W        W94749  33.808  34.337  19.290 -0.1540  0.0159 -0.1406
19762W        W94750   9.837  18.045  23.504 -0.0007  0.0634 -0.1656
19763W        W94751  11.359   7.789  22.712  0.2207 -0.0194  0.0542
19764W        W94752  19.478  24.740  19.130 -0.0387  0.0911  0.1234
19765W        W94753  27.479  14.296  14.891 -0.2142  0.1484  0.0358
19766W        W94754  25.379  32.369   4.755  0.0204  0.0360  0.2640
19767W        W94755  23.778   1.913   2.063  0.0630 -0.0842 -0.0928
19768W        W94756   9.357  20.072   0.511 -0.1029  0.2334 -0.2024
19769W        W94757  19.844   1.570   6.853 -0.2203 -0.0915 -0.0824
19770W        W94758   5.642  10.429   3.302  0.0583  0.1805  0.0843
19771W        W94759  21.469   8.435   0.917 -0.0403 -0.0095 -0.2749
19772ION    NA+94760  19.197  32.143  20.077  0.2622 -0.0145  0.3846
19773ION    NA+94761  13.372  23.645   7.712  0.1647  0.0762 -0.1966
19774ION    NA+94762  33.619  30.071  20.444 -0.2319  0.2341  0.0479
19775ION    NA+94763  19.199  15.751  21.619  0.1346  0.3836 -0.0033
19776ION    NA+94764  12.575  20.861  22.377  0.3341  0.0864 -0.0281
19777ION    NA+94765  33.183  23.075  24.013  0.1076 -0.1054 -0.0081
19778ION    NA+94766  11.046  13.191   8.513 -0.2269  0.0409  0.0065
19779ION    NA+94767  26.229  11.497  12.712  0.0170  0.3040 -0.0954
19780ION    NA+94768  34.693  12.280   9.449  0.0051  0.1846  0.0819
19781ION    NA+94769  30.023  27.950  12.267 -0.2377  0.3474 -0.0085
19782ION    NA+94770  26.909  23.824  18.509 -0.2724 -0.1211  0.3976
19783ION    NA+94771  22.433  32.438   1.710  0.1009  0.1402 -0.2029
19784ION    NA+94772  31.863   8.074  10.758 -0.1929  0.3257 -0.0668
19785ION    NA+94773   3.841   5.799   5.312 -0.0989 -0.2216 -0.0269
19786ION    NA+94774  20.749  26.637   4.617  0.1046 -0.3027 -0.0022
19787ION    NA+94775  31.617  24.891   0.593  0.0260  0.3019 -0.0657
19788ION    NA+94776  15.808   7.119  23.212 -0.0965  0.0283 -0.3345
19789ION    NA+94777  23.345   2.218   5.558  0.2212  0.1635  0.0997
19790ION    NA+94778  13.402   6.150  13.904  0.1429  0.1354 -0.1961
19791ION    NA+94779  32.297  19.191   0.199  0.2280  0.2358 -0.0210
19792ION    NA+94780   6.995  32.956  21.039  0.1516 -0.0999 -0.0432
19793ION    NA+94781   6.604  30.925  16.250 -0.0168 -0.2159 -0.0011
19794ION    NA+94782   8.454   5.797  23.267 -0.2568 -0.2165 -0.3263
19795ION    NA+94783   5.041  29.572   5.020 -0.1033  0.3061  0.2363
19796ION    NA+94784  10.217  30.060  11.828  0.1532 -0.3152 -0.0111
19797ION    NA+94785  24.766  17.232   7.725 -0.1347  0.0069  0.2809
19798ION    NA+94786  23.393   8.915  22.589 -0.4095  0.0988 -0.0969
19799ION    NA+94787  18.216  20.814   4.669 -0.0179  0.4203 -0.0012
19800ION    NA+94788  20.164  30.127  18.541 -0.1011  0.0302  0.3064
19801ION    NA+94789   9.120  18.017   3.063  0.0822 -0.1900 -0.2285
19802ION    NA+94790   9.185  14.055  26.016 -0.0735  0.1512 -0.0753
19803ION    NA+94791  19.880  10.789  16.385  0.2265 -0.1094 -0.0414
19804ION    NA+94792  25.811  14.584  20.072 -0.2617  0.1588 -0.0726
19805ION    NA+94793  14.027  34.493  24.782 -0.0546 -0.4445 -0.1720
19806ION    NA+94794  11.372   0.212  21.856 -0.3177  0.0533  0.6223
19807ION    NA+94795  18.336  31.160  25.076 -0.0822 -0.0183 -0.0580
19808ION    NA+94796  23.163  14.379  12.718  0.0426 -0.1655 -0.0429
19809ION    NA+94797   4.219  28.189  14.083 -0.1154 -0.1892  0.0918
19810ION    NA+94798   5.851  10.689  25.145 -0.0625 -0.2208 -0.1090
19811ION    NA+94799   3.380  21.931  14.398 -0.0565  0.1921 -0.0025
19812ION    NA+94800  30.624   4.081   5.815  0.3005 -0.3072 -0.2329
19813ION    NA+94801   8.538  26.353  21.515  0.0933 -0.0797 -0.1502
19814ION    NA+94802  21.105   4.110   0.742 -0.2344  0.1202  0.1522
19815ION    NA+94803  27.624  18.600   0.121 -0.1925  0.2011  0.0543
19816ION    NA+94804  28.406  28.872  18.831 -0.1767  0.2259 -0.0619
19817ION    NA+94805  16.992   2.821   8.779 -0.1054 -0.1925  0.0152
19818ION    NA+94806  21.360  16.390  16.529  0.4067  0.1449  0.0718
19819ION    NA+94807  16.627  30.416  24.568  0.3227  0.1929  0.1090
19820ION    NA+94808  17.396   5.113  17.126  0.3912 -0.0104 -0.0201
19821ION    NA+94809  29.648   4.178  18.233 -0.0765 -0.0826 -0.1759
19822ION    NA+94810  10.198  25.580   7.879  0.2236  0.1035  0.1498
19823ION    NA+94811  30.005   4.446  25.641 -0.1131  0.1020 -0.3408
19824ION    NA+94812  10.209  20.248  14.779  0.1611 -0.0510  0.0555
19825ION    NA+94813  22.084  34.237  21.859  0.2381 -0.0806  0.0859
19826ION    NA+94814  27.370  18.972  19.122  0.2309 -0.1107 -0.4214
19827ION    NA+94815  17.862  32.647   6.437  0.0026 -0.0118  0.0190
19828ION    NA+94816  13.208  19.383   8.533  0.1116 -0.0194 -0.0459
19829ION    NA+94817  28.343   4.334   5.139  0.0744  0.0990 -0.0825
19830ION    NA+94818  28.850   9.776  24.517 -0.1385  0.0305 -0.1089
19831ION    NA+94819  12.007  16.161  22.245  0.0073  0.1084  0.0267
19832ION    NA+94820  23.802  15.034  15.898 -0.0133 -0.0815 -0.0617
19833ION    NA+94821  30.291   3.079  23.588  0.4698 -0.1016 -0.0476
19834ION    NA+94822  25.522  17.645  16.853 -0.0845 -0.0026 -0.2291
19835ION    NA+94823  15.783   0.422  20.804  0.0885  0.0862 -0.2794
19836ION    NA+94824   7.041  27.461  21.697  0.2748  0.1310 -0.0300
19837ION    NA+94825  33.923  20.712   6.471 -0.1741  0.3598  0.0213
19838ION    NA+94826   5.545  20.962  24.027 -0.0182 -0.1859  0.0935
19839ION    NA+94827  16.273  28.935   3.489  0.1492  0.2264  0.1152
19840ION    NA+94828   6.581  14.082  23.039  0.0693 -0.0406 -0.0255
19841ION    NA+94829  34.408  12.749  17.069 -0.0485  0.0376 -0.0922
19842ION    NA+94830  22.978   0.192  18.705 -0.3394 -0.1120  0.0247
19843ION    NA+94831  20.723  14.070  22.258 -0.0535 -0.0546 -0.1787
19844ION    NA+94832  12.355  12.718   4.984  0.0645  0.3148 -0.3562
19845ION    NA+94833   1.156  19.535   2.346  0.1979 -0.0373 -0.1295
19846ION    NA+94834  26.934   0.537   3.986 -0.2809 -0.2783 -0.2147
19847ION    NA+94835  31.677  20.665  18.376 -0.0255 -0.0028 -0.0696
19848ION    NA+94836  15.386   0.465  11.345  0.1163 -0.1689 -0.3035
19849ION    NA+94837  16.779   9.866  23.149 -0.0357 -0.3225  0.0575
19850ION    NA+94838  26.078   7.786  18.035  0.0738 -0.1652  0.0415
19851ION    NA+94839   9.898  12.742  23.534  0.1433 -0.4495  0.0742
19852ION    NA+94840   8.170  30.971  14.784 -0.2122  0.0443  0.3198
19853ION    NA+94841  17.136  25.539   0.614 -0.2060 -0.2263 -0.0877
19854ION    NA+94842  11.609  33.687  20.865  0.0148 -0.2109 -0.0493
19855ION    NA+94843   6.194  24.587  25.127 -0.2862  0.3398  0.3625
19856ION    NA+94844  26.718  26.596  23.039 -0.1233  0.0737 -0.2184
19857ION    NA+94845   1.096  12.796  25.689  0.0395 -0.0809 -0.3214
19858ION    NA+94846   7.867  34.847  13.351  0.3490 -0.0911  0.0546
19859ION    NA+94847  32.399  27.308  13.417 -0.2263  0.2568 -0.1143
19860ION    NA+94848  25.283  18.763  13.018  0.0175  0.1676  0.0077
19861ION    NA+94849   1.739   6.588   7.596 -0.0844  0.0668  0.1093
19862ION    NA+94850   6.038   1.899   1.062  0.1388 -0.0405  0.0556
19863ION    NA+94851  10.655  23.427   7.174  0.0051 -0.1016  0.3721
19864ION    NA+94852  20.258  29.946   8.472  0.0823  0.0936  0.1806
19865ION    NA+94853   0.692   8.677  15.581 -0.1697 -0.1063  0.0097
19866ION    NA+94854  33.677  16.582  11.466 -0.0359  0.0881  0.2613
19867ION    NA+94855   3.528  20.139  19.326  0.0446 -0.1849 -0.2136
19868ION    NA+94856  26.392   5.378   1.504 -0.1287  0.0265  0.0421
19869ION    NA+94857  29.494   2.746  23.257  0.0487  0.1292  0.0195
19870ION    NA+94858  23.461   7.778  15.528  0.1868  0.1414  0.1951
19871ION    NA+94859  34.218  22.657  12.087 -0.1576 -0.2221 -0.2784
19872ION    NA+94860  26.188  34.185  18.328  0.1895  0.0509  0.0616
19873ION    NA+94861  15.461  29.990   3.141 -0.1536  0.0385 -0.0543
19874ION    NA+94862  21.264  12.605   5.116  0.2005 -0.2299  0.1754
19875ION    NA+94863  13.462   7.845  14.342  0.1786 -0.2989  0.0984
19876ION    NA+94864   7.407  26.637  22.532  0.0134 -0.1119  0.0214
19877ION    NA+94865  17.145   0.206   9.177 -0.1685  0.1192 -0.0692
19878ION    NA+94866  25.949  30.520  21.393 -0.0770  0.1723  0.0660
19879ION    NA+94867   9.014  34.462  23.984  0.2414 -0.1765  0.1356
19880ION    NA+94868  30.883   2.682   5.742  0.0525 -0.1857  0.1801
19881ION    NA+94869  20.741  31.192   5.851 -0.0340  0.0510 -0.0313
19882ION    NA+94870   2.276  20.542  10.983 -0.2129 -0.2795  0.0988
19883ION    NA+94871  11.257  13.396  19.295  0.0603  0.0849  0.2239
19884ION    NA+94872  14.708  35.074  22.447 -0.1082  0.2021 -0.1378
19885ION    NA+94873  26.912  11.853   7.374 -0.1755 -0.1109  0.0755
19886ION    NA+94874   0.949  30.339  25.891  0.1355 -0.0654  0.0475
19887ION    NA+94875  29.264  11.288  25.009  0.1327  0.0340  0.0594
19888ION    NA+94876  20.962  30.618   1.004 -0.0111 -0.3831 -0.0220
19889ION    NA+94877   6.882  17.266   1.217  0.2813 -0.1581 -0.1669
19890ION    NA+94878  10.876   2.141   0.403  0.1255  0.0658  0.0280
19891ION    NA+94879  29.729  28.821  10.683 -0.1935  0.3064 -0.1154
19892ION    NA+94880  23.477  23.471   3.657  0.1314 -0.0380  0.0921
19893ION    NA+94881  10.570   1.415  12.574  0.3498  0.1061 -0.0968
19894ION    NA+94882  34.034  15.532   7.678  0.1275 -0.2789 -0.1019
19895ION    NA+94883  10.850  24.056  11.644  0.6058  0.0433  0.0391
19896ION    NA+94884  23.293   8.057  25.412 -0.0350 -0.0085 -0.0478
19897ION    NA+94885   1.511   1.829  24.914  0.0177  0.1432 -0.0473
19898ION    NA+94886  20.406  25.744   8.646 -0.0279 -0.0825  0.3741
19899ION    NA+94887  10.236  12.704   1.083 -0.0582 -0.2364 -0.0847
19900ION    NA+94888  20.603  33.743   4.661 -0.1005 -0.0716  0.1978
19901ION    NA+94889  12.963   0.004   2.442  0.2600  0.0113 -0.0817
19902ION    NA+94890  22.641  34.558  12.555 -0.0328 -0.1039 -0.1178
19903ION    NA+94891   2.211   8.100   4.283  0.0945  0.0638  0.0788
19904ION    NA+94892   3.948   0.020   6.000 -0.0591 -0.1749  0.1392
19905ION    NA+94893   2.493  12.466   4.633  0.0060 -0.0163  0.0174
19906ION    NA+94894   0.102  13.359  20.950 -0.5736 -0.0568  0.0156
19907ION    NA+94895  19.021  18.589  11.920 -0.0783 -0.0036  0.1766
19908ION    NA+94896  26.003  11.501  22.169  0.1899 -0.0099  0.2482
19909ION    NA+94897   2.265  32.538  23.069  0.1650 -0.0591 -0.4727
19910ION    NA+94898  12.848  31.722   2.710 -0.0794  0.2397 -0.3196
19911ION    NA+94899  25.866  32.556  16.064  0.0236 -0.3397 -0.0549
19912ION    NA+94900  18.060  33.918  25.307  0.0568 -0.1935 -0.2142
19913ION    NA+94901  17.201  32.256   4.197 -0.1804  0.0918 -0.3466
19914ION    NA+94902  10.464  15.680  11.451 -0.0908  0.2259  0.0692
19915ION    NA+94903  35.149  17.817   8.329 -0.2543 -0.0866 -0.0613
19916ION    NA+94904   9.711  31.990  23.831  0.0977 -0.2199  0.3881
19917ION    NA+94905   3.036  15.141  23.531 -0.1982 -0.3117 -0.3009
19918ION    NA+94906  29.952  18.731  13.645 -0.0300 -0.2068  0.1057
19919ION    NA+94907   8.313  21.944  16.413 -0.2867  0.0186  0.0632
19920ION    NA+94908  14.896  21.078  10.163  0.2747 -0.0562 -0.4608
19921ION    NA+94909  26.109   1.086  11.219  0.0297  0.2505  0.0797
19922ION    NA+94910  23.197  21.164  20.245  0.2332  0.0218 -0.0647
19923ION    NA+94911  14.702   1.502  18.693 -0.1171 -0.1520 -0.0950
19924ION    NA+94912   1.913  26.754   8.567 -0.2285 -0.0349  0.0163
19925ION    NA+94913   5.246  32.220   9.318 -0.3001  0.0761  0.2293
19926ION    NA+94914  13.340  24.508   9.512  0.0136 -0.1498  0.2342
19927ION    NA+94915  15.322  30.412   8.627 -0.2833 -0.0815 -0.0320
19928ION    NA+94916  16.545  27.979   4.002 -0.1764  0.0952  0.1144
19929ION    NA+94917  31.550  25.224  11.991 -0.2294  0.0202  0.1115
19930ION    NA+94918  12.518  24.631  11.303 -0.1659  0.1848 -0.1128
19931ION    NA+94919   6.721  18.081   2.859  0.2599  0.0487 -0.0866
19932ION    NA+94920  32.565  28.797  16.737  0.0482  0.1409  0.0535
19933ION    NA+94921  24.491  31.236  25.828  0.0673  0.1691 -0.0980
19934ION    NA+94922  24.604  15.124   8.135 -0.0796 -0.0069 -0.0209
19935ION    NA+94923  20.796   8.297  10.814 -0.0409 -0.1686 -0.2685
19936ION    NA+94924  30.604  34.498  18.595  0.2997  0.1567  0.0370
19937ION    NA+94925  11.632  15.949  10.003  0.0456  0.0594  0.0947
19938ION    NA+94926  32.649   8.699   2.152  0.1132  0.2948  0.1611
19939ION    NA+94927  13.280  18.907  24.437  0.0904  0.1121  0.1607
19940ION    NA+94928  33.142  15.508   6.777  0.1331  0.0369  0.2570
19941ION    NA+94929  26.647  23.336   8.495 -0.0585 -0.3581 -0.0888
19942ION    NA+94930   0.541   9.195  13.385 -0.2653 -0.1708  0.1669
19943ION    NA+94931  26.596  11.330  14.475 -0.4747  0.1458 -0.2229
19944ION    NA+94932  34.918  29.172   5.727 -0.3655  0.0856 -0.1088
19945ION    NA+94933   7.677  28.017  20.844  0.1361  0.1040  0.0213
19946ION    NA+94934  28.316  30.736  19.375 -0.1205  0.1797  0.0713
19947ION    NA+94935  19.305  16.620  21.060  0.0683 -0.0142 -0.0270
19948ION    NA+94936  11.178  22.165  18.294 -0.0865  0.4355  0.0901
19949ION    NA+94937  16.097   3.901  17.019 -0.1325  0.0363  0.1342
19950ION    NA+94938  11.932  16.251  23.337 -0.0852 -0.0679 -0.2473
19951ION    NA+94939  30.814   7.212  19.266  0.0116 -0.0979  0.2443
19952ION    NA+94940  29.228  27.333  25.783 -0.0893 -0.0692  0.6367
19953ION    NA+94941  28.766   6.016  18.242  0.0778 -0.1410 -0.3888
19954ION    NA+94942  15.550  10.907  24.617  0.0760 -0.1102 -0.0069
19955ION    NA+94943   0.834  12.721  21.175  0.1993  0.2476  0.3722
19956ION    NA+94944  17.056   6.720  20.395  0.1325  0.1057  0.1337
19957ION    NA+94945  34.953  34.147  14.812  0.4547 -0.1530  0.1727
19958ION    NA+94946  27.684   9.187  15.362 -0.1329 -0.0123  0.0444
19959ION    NA+94947  32.191  26.889   3.890  0.1342 -0.0903 -0.3148
19960ION    NA+94948   2.863  24.299  25.010 -0.0095  0.0121  0.2822
19961ION    NA+94949  13.390  17.065   0.645 -0.2143  0.4054  0.1943
19962ION    NA+94950  15.169  23.385  15.371 -0.1304 -0.3553 -0.1365
19963ION    NA+94951   0.580   7.946   3.823  0.2720 -0.1444  0.0951
19964ION    NA+94952   4.830  33.169  10.506 -0.0010  0.1795 -0.0570
19965ION    NA+94953  28.188  15.609   6.018  0.2474  0.1295  0.2051
19966ION    NA+94954  10.118  15.726  12.306 -0.1146  0.1131  0.2572
19967ION    NA+94955  10.813  29.101  12.983 -0.2753 -0.0992  0.1431
19968ION    NA+94956   2.272  34.978  11.245 -0.0105  0.0255 -0.2458
19969ION    NA+94957  24.766  21.223   9.065 -0.2801  0.1694 -0.0308
19970ION    NA+94958   7.856   9.783  19.401  0.0948  0.1550 -0.4101
19971ION    NA+94959   7.527   6.250  18.103  0.0700  0.1353 -0.0229
19972ION    NA+94960  30.691  27.746   9.484 -0.1015  0.0554  0.4977
19973ION    NA+94961  18.105  19.396   5.296 -0.0442 -0.2270 -0.1716
19974ION    NA+94962   1.129  16.992   9.563  0.1120 -0.2340  0.2286
19975ION    NA+94963   1.175   5.179   3.844 -0.2301 -0.4424 -0.2056
19976ION    NA+94964  15.143  26.561   5.333 -0.0683 -0.1645 -0.0437
19977ION    NA+94965   4.988   9.202  23.918  0.1817 -0.0939  0.1522
19978ION    NA+94966   5.480  25.306  12.049 -0.0475  0.1023 -0.2854
19979ION    NA+94967   5.190  34.748  19.295 -0.2788  0.2855 -0.3290
19980ION    NA+94968  17.695  23.327   4.122 -0.0308 -0.2169 -0.3030
19981ION    NA+94969  21.631   6.010  15.578 -0.1149  0.0094  0.4684
19982ION    NA+94970  25.831  29.044   4.200 -0.0564 -0.0424  0.2849
19983ION    NA+94971  32.303   9.662   1.981 -0.0636  0.0075  0.0187
19984ION    NA+94972   2.903  21.335  16.153 -0.1140  0.3027  0.2877
19985ION    NA+94973  19.143   5.044  18.556 -0.1469 -0.0583 -0.2097
19986ION    NA+94974  18.289  13.077  11.655 -0.0013  0.0629  0.1493
19987ION    NA+94975  21.217   9.121  25.749  0.2504  0.0620  0.3136
19988ION    NA+94976  12.859  33.700  12.799  0.0459 -0.1561  0.2047
19989ION    NA+94977  17.593  34.250   0.011  0.0908 -0.1048  0.0556
19990ION    NA+94978  32.496   7.449   4.134 -0.0475 -0.1572 -0.1170
19991ION    NA+94979  29.414   7.090  21.410  0.0149  0.1399 -0.0506
19992ION    NA+94980  20.520  12.697  24.478  0.0815 -0.0415  0.3440
19993ION    NA+94981  28.846  26.040  13.569  0.1385 -0.0537 -0.1005
19994ION    NA+94982   9.809  15.573   0.612 -0.2493  0.1760  0.1158
19995ION    NA+94983   2.986   1.271  19.113  0.2360  0.1308  0.2479
19996ION    NA+94984  17.676  23.390  10.615 -0.1661 -0.2388  0.1491
19997ION    NA+94985  13.976   2.562  10.600 -0.1839 -0.0918 -0.0733
19998ION    NA+94986  24.107   8.932  15.485 -0.1046 -0.3991  0.1691
19999ION    NA+94987   8.289  16.488  13.615 -0.0976  0.2436 -0.1552
20000ION    NA+94988   0.806  21.559  11.864  0.0341  0.0269 -0.1740
20001ION    NA+94989  23.922  11.564   3.810 -0.0376  0.0469  0.2992
20002ION    NA+94990   2.466  21.474  12.300  0.2894 -0.1206 -0.2758
20003ION    NA+94991   6.636  22.004   9.660  0.1099  0.4434 -0.0463
20004ION    NA+94992   1.214   2.302  17.642  0.1476  0.2311 -0.0682
20005ION    NA+94993  13.785  19.993   8.321 -0.1364  0.2267 -0.1198
20006ION    NA+94994   8.077   0.587  10.644 -0.1570 -0.1611 -0.1610
20007ION    NA+94995  18.664  24.768  21.605  0.2020 -0.0295 -0.2003
20008ION    NA+94996  17.247  32.695   5.130 -0.3412  0.2563 -0.0688
20009ION    NA+94997  31.600   4.151   6.093  0.0098  0.4091  0.3788
20010ION    NA+94998  19.090  34.697  19.757  0.1106 -0.1276  0.0538
20011ION    NA+94999   5.150   1.093  25.458  0.0822 -0.2138 -0.1362
20012ION    NA+95000  18.630   4.601   6.604  0.1155 -0.3751  0.1142
20013ION    NA+95001  13.101  21.765  13.962  0.0283 -0.0277  0.0847
20014ION    NA+95002  26.999  24.546   7.797 -0.0992 -0.2499 -0.1006
20015ION    NA+95003   1.981  15.303  10.978  0.1657 -0.0645 -0.1450
20016ION    NA+95004  23.528  28.024  14.300 -0.0699 -0.1384  0.1802
20017ION    NA+95005  12.353  14.937  10.217 -0.1297  0.0012 -0.2032
20018ION    NA+95006  22.799  23.510  14.114 -0.1281  0.0062  0.2749
20019ION    NA+95007  22.772  26.419  23.391  0.0947 -0.0298  0.2774
20020ION    NA+95008  33.531  28.060   0.961 -0.0094  0.1427  0.2082
20021ION    NA+95009  19.451   5.456  21.049  0.0205 -0.0660 -0.0537
20022ION    NA+95010  28.041  29.042  14.571 -0.1242 -0.5614 -0.0689
20023ION    NA+95011  20.036  30.619  24.234 -0.0765  0.3099  0.3586
20024ION    NA+95012   8.120   6.395   5.326 -0.0961  0.4604  0.2940
20025ION    NA+95013  27.429  26.723   8.945 -0.2480  0.2507  0.0028
20026ION    NA+95014  11.008   8.600  25.304 -0.2747 -0.1761 -0.1316
20027ION    NA+95015   8.434   9.339   7.245  0.0411 -0.1513 -0.0545
20028ION    NA+95016  22.298   6.111   7.964 -0.0074 -0.0161  0.0267
20029ION    NA+95017   1.208  16.349  15.665  0.4495 -0.1919 -0.5409
20030ION    NA+95018  34.883   4.572  15.759 -0.1484 -0.2939  0.4731
20031ION    NA+95019  12.325   1.497   7.080  0.0837 -0.3613 -0.2189
20032ION    NA+95020  24.199  34.838   0.312 -0.0699 -0.0071 -0.1148
20033ION    NA+95021  14.159   7.932  24.040  0.1559 -0.1840  0.3723
20034ION    NA+95022   5.641  10.031  23.994 -0.1993 -0.1177 -0.1081
20035ION    NA+95023  29.414   7.694   9.052  0.4051 -0.1240  0.2326
20036ION    NA+95024   5.022  16.807  16.621  0.2827 -0.1574  0.0280
20037ION    NA+95025  16.087   6.402  22.351  0.1479  0.2207 -0.1389
20038ION    NA+95026  23.436   5.881  22.314 -0.0421  0.4051 -0.0036
20039ION    NA+95027  22.647  31.935   4.716 -0.0831  0.0768  0.1186
20040ION    NA+95028  26.502  20.288  15.656  0.0523 -0.0393 -0.0289
20041ION    NA+95029  18.836   2.031  22.013 -0.0621  0.1271 -0.2208
20042ION    NA+95030  33.888  15.042   5.909 -0.0750 -0.1368 -0.2754
20043ION    NA+95031  13.801  33.056  11.681  0.1139 -0.1587  0.1139
20044ION    NA+95032  34.283  18.668  25.283  0.2868 -0.0990 -0.2655
20045ION    NA+95033  18.488   2.967   1.477  0.0544  0.1442  0.0308
20046ION    NA+95034   0.832   0.332  14.608 -0.0371  0.0512  0.4376
20047ION    NA+95035   4.449  21.806  22.529  0.0085  0.2978  0.2230
20048ION    NA+95036  34.069  29.071   7.202  0.0318  0.1164  0.2897
20049ION    NA+95037  21.738  27.068  13.298 -0.3726 -0.0438  0.0185
20050ION    NA+95038   9.960  25.855   9.578 -0.0104  0.1229  0.1540
20051ION    NA+95039  29.348   2.729   2.662  0.2708  0.0764  0.1528
20052ION    NA+95040  20.700  35.149  16.278 -0.1488 -0.0210  0.0581
20053ION    NA+95041   6.109  12.962  10.458 -0.0750  0.0498  0.0036
20054ION    NA+95042  24.589   5.869   5.664 -0.1243  0.0918  0.1185
20055ION    NA+95043  26.543  12.573   7.978  0.2170 -0.3233  0.1421
20056ION    NA+95044   0.877   3.581  17.501 -0.0469 -0.0714  0.0330
20057ION    NA+95045  30.616  34.259  12.850  0.0802  0.0112  0.1043
20058ION    NA+95046  26.351  27.199  16.701 -0.0794 -0.1352  0.2070
20059ION    NA+95047  30.587  27.668  25.812 -0.2016  0.2710  0.0928
20060ION    NA+95048  20.571   2.640  16.950 -0.0695  0.0302 -0.3520
20061ION    NA+95049  20.831   7.720  20.687  0.0565 -0.1076  0.3371
20062ION    NA+95050   1.872   4.491  17.817 -0.0794  0.0159 -0.0489
20063ION    NA+95051  24.631  10.174  12.226  0.0466 -0.1019  0.0989
20064ION    NA+95052  20.234  28.750   8.450 -0.0823  0.1110  0.1696
20065ION    NA+95053   4.800  10.063  23.746  0.0779 -0.1861 -0.3030
20066ION    NA+95054  29.318  24.437   7.970  0.0050 -0.0530 -0.1601
20067ION    NA+95055  34.942   0.634  18.512  0.0001  0.1789 -0.0535
20068ION    NA+95056  33.246  28.484  17.590 -0.4574  0.1782  0.0572
20069ION    NA+95057  21.287  14.132  25.732 -0.1988  0.1362 -0.0488
20070ION    NA+95058  29.221  11.056   7.176 -0.2630  0.2951  0.2400
20071ION    NA+95059  24.844  28.645  17.727 -0.0212 -0.0706 -0.1872
20072ION    NA+95060  26.146  18.678  16.296  0.0810 -0.1596  0.1123
20073ION    NA+95061  28.070   1.350  10.218  0.0145 -0.1776  0.2224
20074ION    NA+95062  31.345  18.531  12.328  0.4288 -0.1675  0.3692
20075ION    NA+95063  15.164   1.159  12.680  0.3999 -0.0309 -0.0420
20076ION    NA+95064  17.674  23.218  20.425 -0.3045 -0.1429 -0.0601
20077ION    NA+95065  14.391  33.064  13.722  0.1615  0.1424 -0.3040
20078ION    NA+95066  19.801  18.026   8.451  0.3233  0.1582 -0.0882
20079ION    NA+95067   3.129   2.325  17.315  0.0762 -0.0253 -0.0400
20080ION    NA+95068  20.663  24.631   3.062  0.1472 -0.0570  0.0872
20081ION    NA+95069  22.261  32.662  12.356  0.2554  0.1925  0.0010
20082ION    NA+95070   1.574  15.923  22.111 -0.2906 -0.0132 -0.0929
20083ION    NA+95071   0.495   9.646   3.050  0.1110 -0.0851 -0.0714
20084ION    NA+95072   1.467  22.715  26.013 -0.0653  0.2877 -0.2570
20085ION    NA+95073  15.427  13.452   9.927  0.0318 -0.0289 -0.1975
20086ION    NA+95074   2.620  18.925  24.969  0.1526  0.0329 -0.1435
20087ION    NA+95075  23.956  12.309  19.232 -0.1017  0.0269  0.3823
20088ION    NA+95076  20.442  22.122   9.880 -0.1708 -0.1081  0.2157
20089ION    NA+95077  11.334  20.936  24.997  0.0113 -0.2200  0.0228
20090ION    NA+95078  10.350   8.161   4.977 -0.1466  0.2859 -0.2357
20091ION    NA+95079  27.001  26.586  24.701 -0.0110 -0.0232 -0.0235
20092ION    NA+95080  28.371  33.027  18.693 -0.0394 -0.0675  0.0410
20093ION    NA+95081  14.738  11.135  24.416 -0.0839  0.0964  0.2777
20094ION    NA+95082  17.549  34.605   4.490 -0.0510  0.1217 -0.2080
20095ION    NA+95083  19.120  33.787   0.741  0.1554  0.3655  0.2415
20096ION    NA+95084  32.519   3.440  17.308 -0.0139  0.0355 -0.0347
20097ION    NA+95085  25.710  17.957  16.146 -0.2325 -0.1060 -0.0831
20098ION    NA+95086  30.466  30.220  19.433 -0.2915  0.0306  0.1137
20099ION    NA+95087  32.709  34.881   4.817  0.0468  0.0913  0.0847
20100ION    NA+95088  18.002  23.039  22.196  0.0044 -0.1058  0.0013
20101ION    NA+95089  30.654  21.532  17.755  0.0731  0.4352  0.2767
20102ION    NA+95090  31.776   5.993  15.433  0.3169  0.0120  0.0228
20103ION    NA+95091   7.808   2.656   8.066  0.0841 -0.1888 -0.1213
20104ION    NA+95092  16.718   7.843   3.010  0.1857 -0.0286 -0.1366
20105ION    NA+95093  22.205   5.972   5.780 -0.0355  0.1099 -0.2793
20106ION    NA+95094  22.880  12.241  12.893 -0.1403  0.0456  0.0853
20107ION    NA+95095  13.935  29.237  11.790 -0.0713 -0.3900  0.0126
20108ION    NA+95096  31.135  16.607   7.838  0.1785  0.1089  0.0358
20109ION    NA+95097  13.947   6.803  25.303  0.3614 -0.0042 -0.0420
20110ION    NA+95098  19.993  18.537  25.107 -0.0796 -0.0295 -0.1956
20111ION    NA+95099  26.896   9.737  20.705  0.0001 -0.0301 -0.3035
20112ION    NA+95100   7.685  22.885  13.586  0.0881 -0.0593 -0.0741
20113ION    NA+95101  30.186   0.637   3.420  0.1846  0.2046 -0.1380
20114ION    NA+95102  26.312   9.879   8.119  0.1330  0.1081  0.0065
20115ION    NA+95103   4.604  25.346   4.826 -0.4034 -0.0449 -0.0430
20116ION    NA+95104   7.937  13.474  20.852 -0.0772 -0.1020 -0.2866
20117ION    NA+95105  30.287  25.158   7.016  0.0776  0.1324 -0.1205
20118ION    NA+95106  27.023  29.937  22.556  0.1942  0.0560  0.3275
20119ION    NA+95107  13.040  23.766  10.021 -0.2277  0.0118  0.2299
20120ION    NA+95108  18.969  10.332  17.343 -0.0208 -0.1734 -0.0602
20121ION    NA+95109   1.041  29.616   2.920 -0.0542  0.2526  0.3181
20122ION    NA+95110  27.739  28.714  10.874 -0.0835  0.1877 -0.0754
20123ION    NA+95111  31.030  11.248  20.685 -0.0894 -0.2468  0.2883
20124ION    NA+95112  11.076  31.440  11.027 -0.3800  0.1541  0.0064
20125ION    NA+95113  33.020  29.325  23.142 -0.0769  0.1071 -0.1636
20126ION    NA+95114  25.472  22.438  23.528 -0.0514 -0.0026  0.3184
20127ION    NA+95115  31.731  23.974   6.046  0.3417 -0.0125 -0.1509
20128ION    NA+95116   4.145   5.747   9.896  0.0414 -0.5419  0.1644
20129ION    NA+95117  11.993  27.346   2.573 -0.0792  0.3242 -0.1089
20130ION    NA+95118   5.739  27.437   6.915 -0.0841 -0.0324 -0.0763
20131ION    NA+95119  25.176   8.060  23.174 -0.0502 -0.0489  0.1204
20132ION    NA+95120   9.499   4.228  14.990  0.1597 -0.1164 -0.5096
20133ION    NA+95121   7.729  33.751  15.537  0.4125  0.1744 -0.1218
20134ION    NA+95122  33.930  24.536  25.358 -0.1547  0.3275  0.0790
20135ION    NA+95123  28.566  20.517  18.980  0.0654 -0.0175  0.0038
20136ION    NA+95124   0.769   4.564   5.139  0.1437  0.0784 -0.1863
20137ION    NA+95125  32.791  30.591  11.882  0.0208  0.0241  0.0786
20138ION    NA+95126  21.219  25.189   7.412 -0.1263 -0.1725 -0.0674
20139ION    NA+95127   6.445  25.116   3.251 -0.0879 -0.0065  0.1685
20140ION    NA+95128   4.110  25.576   7.144 -0.1559  0.0988 -0.0797
20141ION    NA+95129  12.055  21.865   3.068 -0.2603  0.0326  0.0428
20142ION    NA+95130   7.594  11.357  25.710 -0.1111 -0.1386 -0.1585
20143ION    NA+95131  21.158   6.733  20.746  0.1446  0.3297  0.1874
20144ION    NA+95132   3.498  10.206   3.425 -0.1829  0.2620  0.1384
20145ION    NA+95133  32.933   5.483   5.588  0.3572 -0.1262  0.6230
20146ION    NA+95134  26.006  22.914  13.519  0.0843 -0.2920 -0.4995
20147ION    NA+95135  24.718  34.273   6.118  0.3286 -0.2711 -0.0590
20148ION    NA+95136  32.638  30.164  20.078 -0.0568 -0.1349  0.0200
20149ION    NA+95137  30.429  13.133   8.490  0.0285  0.0446  0.3845
20150ION    NA+95138  26.022  22.335  12.574 -0.0335 -0.0620 -0.0059
20151ION    NA+95139  22.394   7.746  16.981  0.1224 -0.0760  0.0641
20152ION    NA+95140   9.501  15.332  18.787  0.0142 -0.0224 -0.0281
20153ION    NA+95141  14.900  27.897  13.793 -0.3065 -0.1444 -0.0813
20154ION    NA+95142  30.381  34.572   5.341  0.0550 -0.0956  0.1043
20155ION    NA+95143  15.486  31.754   5.623 -0.1268  0.2233  0.3926
20156ION    NA+95144   6.292  25.495   0.482 -0.3828  0.0496 -0.0538
20157ION    NA+95145  18.265  32.878  15.997 -0.1536  0.2035  0.1076
20158ION    NA+95146  33.825   3.236  13.975 -0.0846  0.2377  0.0507
20159ION    NA+95147   2.011  23.221  15.375 -0.0256  0.0071 -0.2726
20160ION    NA+95148  10.803  31.318  15.296 -0.2169  0.0430 -0.0225
20161ION    NA+95149  11.775  11.835  18.418 -0.0180  0.1413  0.1476
20162ION    NA+95150   7.308  13.369  21.221  0.1171 -0.0631 -0.0779
20163ION    NA+95151   6.921  13.286  24.335  0.0164 -0.3367 -0.1457
20164ION    NA+95152  33.908  15.268  24.840 -0.2995 -0.0610 -0.0807
20165ION    NA+95153   4.655   7.155  25.668  0.2442 -0.0249  0.0698
20166ION    NA+95154  25.843  30.980  22.963 -0.2721 -0.2188  0.0960
20167ION    NA+95155   4.175   3.631  26.164  0.1060 -0.0426 -0.3064
20168ION    NA+95156  34.781   4.688   7.412 -0.1509 -0.1932  0.0821
20169ION    NA+95157   9.663  26.525  13.960 -0.0687  0.1563  0.0012
20170ION    NA+95158  14.591   2.038  10.257 -0.2027 -0.1929  0.3103
20171ION    NA+95159  26.367  19.612  22.091 -0.0315 -0.3938  0.1201
20172ION    NA+95160  10.666  18.232  22.609  0.3710  0.3669  0.0374
20173ION    NA+95161   0.753   4.449   1.793  0.0974  0.2267  0.0402
20174ION    NA+95162  33.750  10.725   8.433  0.0650 -0.1682  0.0661
20175ION    NA+95163  35.088  14.098   1.759  0.2867 -0.0760 -0.0424
20176ION    NA+95164  33.939  24.279   0.359  0.2026  0.4111 -0.0047
20177ION    NA+95165  34.869   8.800  15.889  0.0648  0.3178  0.1096
20178ION    NA+95166  18.966  22.218  22.138 -0.0023  0.3049 -0.1466
20179ION    NA+95167  19.739  12.296   6.670 -0.1477 -0.0745  0.1960
20180ION    NA+95168   7.310  22.105  14.041 -0.0904  0.1525  0.2962
20181ION    NA+95169  25.795  15.402  14.030 -0.0742 -0.1126  0.0794
20182ION    NA+95170  14.678  12.817  24.817 -0.0144  0.1829 -0.0422
20183ION    NA+95171  10.201  25.930   1.294  0.1692 -0.2730  0.0573
20184ION    NA+95172  26.841  18.037  16.745 -0.0056  0.4392  0.1601
20185ION    NA+95173  20.781  25.654  22.176 -0.2419 -0.0708  0.1173
20186ION    NA+95174  33.455  24.851   0.990  0.2680  0.1331 -0.1022
20187ION    NA+95175   4.184  10.882   9.357  0.3660  0.2119  0.4012
20188ION    NA+95176  16.512  11.460  20.320  0.4087 -0.1339  0.0521
20189ION    NA+95177  13.542  11.259   6.042 -0.0261  0.1905  0.0348
20190ION    NA+95178  14.289  35.191   8.875  0.4992  0.0053 -0.0592
20191ION    NA+95179   0.867  29.450  15.880 -0.1181 -0.5074  0.2381
20192ION    NA+95180  24.530   5.792  22.274 -0.5526  0.1601  0.0572
20193ION    NA+95181  34.434  25.669  15.973  0.0500 -0.0186  0.0080
20194ION    NA+95182  23.444   1.499  12.208 -0.1655 -0.0929 -0.1412
20195ION    NA+95183  27.167  23.557   0.869 -0.2500  0.1637  0.0521
20196ION    NA+95184   1.629  20.750  24.960 -0.2255  0.0265  0.1795
20197ION    NA+95185  30.552  26.408   1.240 -0.2122 -0.0156  0.3454
20198ION    NA+95186   6.877  10.201  23.419  0.0931  0.1401  0.0097
20199ION    NA+95187   7.672  10.687  17.746 -0.2420 -0.3687  0.0196
20200ION    NA+95188  11.111  28.392  23.120 -0.0507  0.0654  0.2531
20201ION    NA+95189   8.916  17.415  12.987 -0.1786  0.0324  0.2553
20202ION    NA+95190   6.372  30.722  11.625 -0.1284 -0.1594  0.2929
20203ION    NA+95191  33.817  12.348  21.370  0.2703 -0.1985  0.2413
20204ION    NA+95192  24.662  26.519  22.213 -0.0499 -0.3973  0.1953
20205ION    NA+95193  17.149   9.253   0.292  0.1799  0.1150  0.4185
20206ION    NA+95194  11.327   9.574  19.105  0.0914 -0.1645 -0.2171
20207ION    NA+95195   6.608   7.623   8.330 -0.0681  0.2014 -0.1768
20208ION    NA+95196  27.647  33.408   0.743  0.0717 -0.0953 -0.0944
20209ION    NA+95197  28.781   5.224  10.247 -0.0607  0.4918  0.1054
20210ION    NA+95198  26.857  29.605   2.435 -0.1063  0.1754 -0.1388
20211ION    NA+95199  32.243  33.197  15.067  0.1369  0.2038  0.2339
20212ION    NA+95200  11.896  22.601  17.944 -0.2147  0.1433 -0.0571
20213ION    NA+95201   8.354  16.879  25.119  0.0376 -0.6544 -0.0096
20214ION    NA+95202  33.146  10.913  14.494  0.0314 -0.2540  0.0362
20215ION    NA+95203   8.052  23.451   4.721 -0.2882 -0.3363  0.0775
20216ION    NA+95204   7.603  16.075   4.172 -0.1220  0.4847 -0.2105
20217ION    NA+95205  17.585   0.219  21.284  0.1139 -0.0447 -0.1428
20218ION    NA+95206  12.894  32.043  23.248 -0.0065 -0.0601  0.3167
20219ION    NA+95207  14.203  30.743  21.939  0.0703 -0.4568 -0.2808
20220ION    NA+95208  21.833   2.458  24.402 -0.3364  0.0635  0.0168
20221ION    NA+95209  16.219  19.499   0.010 -0.0301  0.0160  0.1548
20222ION    NA+95210  33.302  13.970   7.094  0.3646 -0.0657  0.1840
20223ION    NA+95211  31.196   5.958  19.884  0.0417  0.1549 -0.0761
20224ION    NA+95212  31.098  11.505   6.855 -0.3656 -0.0109  0.1128
20225ION    NA+95213  33.521  19.917  23.465  0.1041 -0.2247  0.1559
20226ION    NA+95214  12.816  13.977  12.586  0.2074 -0.1481  0.5727
20227ION    NA+95215  33.552  18.111  24.297  0.0618 -0.1307 -0.1867
20228ION    NA+95216  32.669  22.618   6.642  0.0303  0.2826  0.3278
20229ION    NA+95217  34.331  16.966  13.520  0.1196  0.2715  0.1876
20230ION    NA+95218  12.291   5.812   2.069  0.0773  0.0672 -0.0723
20231ION    NA+95219  29.236  28.700  11.053  0.0932  0.3219 -0.0188
20232ION    NA+95220  13.312  12.035  14.221 -0.1770 -0.0145 -0.0229
20233ION    NA+95221  14.650  34.088  12.177  0.1057 -0.0746 -0.1781
20234ION    NA+95222  28.029  25.558  24.230  0.2628 -0.0560 -0.2164
20235ION    NA+95223  23.804  30.433   4.228  0.0264  0.1911 -0.3501
20236ION    NA+95224  16.863   1.272  19.570 -0.2650  0.0417  0.2025
20237ION    NA+95225  16.144   8.557  23.275 -0.0404 -0.1616 -0.0474
20238ION    NA+95226  13.341  21.963  24.607  0.1312 -0.0980 -0.0584
20239ION    NA+95227  11.727  25.327  23.129 -0.0961 -0.1664  0.0461
20240ION    NA+95228   8.946  12.842   7.262  0.1062  0.0836 -0.0650
20241ION    NA+95229  34.237   6.280  19.601 -0.0637  0.2227  0.0497
20242ION    NA+95230  19.316   9.107   3.288 -0.0661  0.0643  0.2193
20243ION    NA+95231  27.089   9.862  12.122  0.2311  0.3175  0.0591
20244ION    NA+95232  31.493  29.159  12.585 -0.0952  0.0829 -0.0815
20245ION    NA+95233  26.757   3.241  14.144 -0.2553  0.1653  0.0698
20246ION    NA+95234  24.793  32.363  16.277  0.0312 -0.1543  0.1958
20247ION    NA+95235   5.424   3.259   8.121  0.1879 -0.1249 -0.4089
20248ION    NA+95236  17.385  15.262  20.992  0.1709  0.1848  0.0461
20249ION    NA+95237  16.369  23.697   4.430 -0.3527  0.0256  0.0226
20250ION    NA+95238  22.298  25.491   4.834  0.0099 -0.0108 -0.1530
20251ION    NA+95239  11.553  14.722   6.456 -0.0312 -0.2860  0.4973
20252ION    NA+95240  27.450   5.220   3.509 -0.0058 -0.0287 -0.1958
20253ION    NA+95241  20.604  20.073   5.031 -0.1094  0.0596 -0.1461
20254ION    NA+95242   7.862  22.176   3.787 -0.2213  0.0941 -0.1110
20255ION    NA+95243   5.235  20.808   0.128  0.0196 -0.1669  0.1331
20256ION    NA+95244  34.701   4.651  22.633 -0.1128 -0.2752 -0.4340
20257ION    NA+95245  32.944  21.633  18.343 -0.0443  0.3418  0.2260
20258ION    NA+95246  29.729  12.524  25.314 -0.0013  0.0394 -0.0059
20259ION    NA+95247  16.423  25.996  14.101 -0.1194 -0.1650  0.0734
20260ION    NA+95248  28.859  28.355   1.015  0.1605  0.2307 -0.0371
20261ION    NA+95249  16.056  28.523   7.528 -0.0338 -0.3586  0.0288
20262ION    NA+95250   7.675  26.647   0.281  0.3464 -0.1188 -0.0262
20263ION    NA+95251   7.273   7.124  23.541 -0.0125 -0.0418 -0.1327
20264ION    NA+95252   1.092   9.276   1.420 -0.3456  0.2238 -0.4139
20265ION    NA+95253  25.925   9.744  15.801  0.4649  0.2051 -0.0196
20266ION    NA+95254  30.168  28.962  19.400  0.0267 -0.1622  0.1676
20267ION    NA+95255   9.717  18.776  24.518  0.1419 -0.0328  0.0979
20268ION    NA+95256   0.927   0.439  23.584 -0.1190 -0.2628 -0.0574
20269ION    NA+95257   4.550   4.534  26.001  0.0781 -0.1516  0.1461
20270ION    NA+95258  29.776  31.097   5.748 -0.1951 -0.0686  0.0817
20271ION    NA+95259  26.334  11.033   7.840  0.0026 -0.0293  0.0567
20272ION    NA+95260  18.279   7.849  24.652  0.3398  0.1810  0.0624
20273ION    NA+95261  27.469  26.680  16.801 -0.1114  0.0506  0.0242
20274ION    NA+95262  11.575  23.341   8.876 -0.2540  0.1603  0.1359
20275ION    NA+95263  13.800  25.375   3.342  0.2110  0.2852  0.1359
20276ION    NA+95264   3.745  23.614  23.399  0.2432 -0.0764  0.0754
20277ION    NA+95265  20.167  22.866  24.271  0.2508 -0.0936  0.2519
20278ION    NA+95266  15.560   0.240  20.017  0.0185  0.0973 -0.1059
20279ION    NA+95267  11.570  34.369   5.857  0.0113 -0.0373  0.0027
20280ION    NA+95268  21.580  14.184  22.530  0.0033  0.1934  0.1866
20281ION    NA+95269  19.175   9.973  11.907 -0.6857 -0.1283  0.1301
20282ION    NA+95270  18.417  29.882   9.990  0.0113  0.1277  0.2075
20283ION    NA+95271  21.593  31.483  13.812  0.0596 -0.0002 -0.2394
20284ION    NA+95272   9.335  25.185  15.144 -0.0778 -0.0501  0.4019
20285ION    NA+95273  20.289  21.209   9.892  0.0533 -0.0214 -0.0395
20286ION    NA+95274   2.929  22.062  24.785  0.3161  0.2212  0.3302
20287ION    NA+95275  31.277  22.102   9.864  0.2560 -0.0833 -0.2065
20288ION    NA+95276   0.579   4.224  12.802  0.1813 -0.0586  0.3288
20289ION    NA+95277   0.509   4.564  23.167 -0.2153 -0.0363  0.2661
20290ION    NA+95278  24.863  35.005  22.914  0.1025 -0.0477 -0.6221
20291ION    NA+95279   2.074  23.794   4.025 -0.0007  0.1272 -0.2073
20292ION    NA+95280  33.487  14.157  11.180  0.0704 -0.1519 -0.0485
20293ION    NA+95281  28.677  17.383  25.889 -0.1071 -0.3328 -0.0210
20294ION    NA+95282   5.852  21.228   7.947  0.0663  0.0306  0.1096
20295ION    NA+95283  10.132  25.349  22.642  0.5259  0.0575 -0.2387
20296ION    NA+95284   2.183  20.680   2.006 -0.0761 -0.0104  0.0868
20297ION    NA+95285  29.627  33.673  10.885 -0.1117  0.0990  0.1546
20298ION    NA+95286  34.273   0.022   0.304  0.0120  0.2131  0.2360
20299ION    NA+95287  28.604  27.348   8.873 -0.0811 -0.2214  0.3894
20300ION    NA+95288  22.746  34.958  19.770 -0.0949 -0.2413  0.0519
20301ION    NA+95289  28.571  23.402   7.269  0.1575  0.0172 -0.1795
20302ION    NA+95290  29.865  22.209  14.430  0.2486 -0.1869  0.1774
20303ION    NA+95291   6.876   0.557   7.271 -0.2678 -0.0028  0.1315
20304ION    NA+95292   8.132  19.406  26.237  0.2419 -0.1711  0.0211
20305ION    NA+95293  19.880  33.656   6.117  0.2850  0.2645  0.0900
20306ION    NA+95294   4.901   3.884  25.530 -0.1222  0.1312 -0.1201
20307ION    NA+95295   6.165  13.146   2.513 -0.0181 -0.2485  0.0308
20308ION    NA+95296  32.887   2.955  16.523 -0.1336  0.0485  0.1577
20309ION    NA+95297   6.673   4.868   9.693  0.0780  0.0770  0.1401
20310ION    NA+95298   3.012  29.410  11.646 -0.0321  0.3627  0.1306
20311ION    NA+95299  31.695  15.426   7.049  0.0697  0.1538  0.2664
20312ION    NA+95300   1.525  15.063  14.754  0.1042  0.1178 -0.0292
20313ION    NA+95301  19.892   4.301  23.462 -0.0418  0.2391  0.1722
20314ION    NA+95302   4.334   2.221   8.951 -0.2558 -0.0745  0.0158
20315ION    NA+95303  25.043   8.429  16.269 -0.0409 -0.1514 -0.0364
20316ION    NA+95304   5.112  28.351   0.927  0.0280 -0.1853 -0.0227
20317ION    NA+95305  29.730   1.891  10.938 -0.2101  0.3331 -0.0060
20318ION    NA+95306  21.706  26.804  19.486 -0.1324  0.0995  0.2141
20319ION    NA+95307   3.532  10.809  20.734 -0.1123  0.2474 -0.0001
20320ION    NA+95308  10.601  20.864  13.126  0.2879 -0.0883  0.0848
20321ION    NA+95309  15.368  17.015   1.939 -0.2264  0.5058  0.0812
20322ION    NA+95310   8.386  14.867  18.914 -0.2397  0.0200 -0.0706
20323ION    NA+95311  34.488  17.565   5.711 -0.2444  0.1569  0.1525
20324ION    NA+95312   3.731  11.217  24.125  0.0139 -0.0555 -0.1191
20325ION    NA+95313  22.631   9.174   3.752 -0.3248  0.1966 -0.1922
20326ION    NA+95314  10.990  21.845  21.933 -0.1202 -0.2728  0.0731
20327ION    NA+95315  18.185   4.776  18.744 -0.0299 -0.0455  0.0373
20328ION    NA+95316  16.173  25.888   4.471 -0.1966  0.1995  0.1172
20329ION    NA+95317  32.496  16.028  14.456 -0.0001  0.0542 -0.2894
20330ION    NA+95318  20.021  27.187  23.545  0.1971 -0.1565  0.1737
20331ION    NA+95319  19.359  20.072   3.196 -0.0097 -0.0217 -0.0534
20332ION    NA+95320   9.243  26.317   4.434 -0.0578  0.0778 -0.3041
20333ION    NA+95321  19.641  10.673   8.759 -0.0020 -0.0974  0.0573
20334ION    NA+95322  17.496  26.059   2.371 -0.2131  0.0514 -0.1030
20335ION    NA+95323  24.878  18.248   7.744 -0.3199  0.0129 -0.0499
20336ION    NA+95324  34.805  12.332  18.498  0.1349  0.0542  0.0927
20337ION    NA+95325   7.628  29.012   4.362 -0.0043 -0.1212 -0.1038
20338ION    NA+95326  14.288   6.327  14.194 -0.0168  0.2829  0.0681
20339ION    NA+95327  13.245  33.451  14.508  0.1111  0.0993 -0.1648
20340ION    NA+95328  13.732   2.122   4.401 -0.0812  0.1203  0.0284
20341ION    NA+95329  32.933  34.151  15.119  0.2820  0.1042 -0.0639
20342ION    NA+95330  31.254   3.464  23.476  0.0734 -0.3492  0.0257
20343ION    NA+95331   0.310  15.577   1.351  0.1687  0.2692  0.0283
20344ION    NA+95332   4.847  34.003  13.255 -0.0997  0.1537  0.1956
20345ION    NA+95333   8.043  21.124   1.962 -0.3862 -0.0108  0.1496
20346ION    NA+95334   8.029  31.136  16.502 -0.1554  0.0151  0.1703
20347ION    NA+95335   3.727  14.199   5.295 -0.0911 -0.2954 -0.1079
20348ION    NA+95336   7.064   3.617   6.755  0.0672  0.0316  0.3093
20349ION    NA+95337   1.268  13.723   1.231  0.1614  0.1761  0.1456
20350ION    NA+95338   0.253  17.662  22.414 -0.1033  0.1421  0.1032
20351ION    NA+95339  34.520  34.284   4.438 -0.1936  0.1632  0.1535
20352ION    NA+95340  32.869   2.943   7.191 -0.1434  0.0368 -0.0809
20353ION    NA+95341  12.720  20.784   4.994 -0.0213  0.0373 -0.1514
20354ION    NA+95342  26.105   4.977  26.156  0.0870  0.1527  0.1434
20355ION    NA+95343  23.678  17.606   1.144  0.1742  0.4456 -0.3685
20356ION    NA+95344  15.357  17.824   6.052  0.2297  0.3722  0.0867
20357ION    NA+95345   4.471   4.503   2.000 -0.1714  0.1360  0.0818
20358ION    NA+95346  32.709  22.652  17.079  0.0202 -0.0347  0.0126
20359ION    NA+95347  29.532  10.158   6.856 -0.0023  0.1762  0.2928
20360ION    NA+95348  23.106  25.019   3.590  0.1148 -0.0102  0.2687
20361ION    NA+95349   8.719   4.402  24.793  0.0363  0.1124  0.5196
20362ION    NA+95350  30.330  14.124   4.522 -0.1410  0.2643  0.2404
20363ION    NA+95351   1.052   0.983   4.884  0.1121  0.2644 -0.0350
20364ION    NA+95352  35.305  16.301  16.921 -0.3377  0.2911  0.2070
20365ION    NA+95353  25.241   6.071  25.545 -0.2945  0.2903  0.1548
20366ION    NA+95354  19.744  32.669  24.266  0.0348 -0.2375  0.1325
20367ION    NA+95355  11.149  30.213  23.485 -0.2000  0.0972 -0.1130
20368ION    NA+95356  27.657  22.825  17.936 -0.0048 -0.3620 -0.1399
20369ION    NA+95357  24.854   8.899  23.217 -0.1123 -0.1162 -0.0838
20370ION    NA+95358  31.502  10.537  23.041  0.0939 -0.2114 -0.2000
20371ION    NA+95359  24.965   5.255   4.284 -0.2020  0.0422  0.4867
20372ION    NA+95360   8.095  25.897  15.315  0.2193  0.0599 -0.0111
20373ION    NA+95361  16.075  32.771  24.022 -0.1926  0.1766 -0.0454
20374ION    NA+95362  31.145  19.967  16.466  0.0906  0.2600 -0.0563
20375ION    NA+95363  11.912  34.508  15.317  0.2425  0.3159 -0.2746
20376ION    NA+95364   9.878   6.348   0.298  0.0308 -0.1955  0.1420
20377ION    NA+95365  12.137   7.469   1.378 -0.0752 -0.1222  0.3107
20378ION    NA+95366  19.929  26.910   1.535 -0.1727 -0.4078 -0.1405
20379ION    NA+95367  10.799  27.127  10.397 -0.2583  0.0368 -0.0765
20380ION    NA+95368   7.116  29.611  16.038 -0.1208  0.1473 -0.0847
20381ION    NA+95369   6.767   0.441   0.374 -0.1248  0.2821  0.2583
20382ION    NA+95370  18.178  14.721   1.179 -0.1366  0.0370 -0.2416
20383ION    NA+95371   1.667  32.754  21.772 -0.3615 -0.1800 -0.0074
20384ION    NA+95372  29.057  12.014  20.607  0.0257  0.2518 -0.0833
20385ION    NA+95373  25.969  10.852  15.533 -0.0405 -0.2084 -0.1825
20386ION    NA+95374  13.840   1.707   9.526  0.2967 -0.0327 -0.3030
20387ION    NA+95375   0.825  19.792   7.968 -0.0412 -0.1221  0.0784
20388ION    NA+95376   8.967  29.833  24.962 -0.2301  0.0668  0.1442
20389ION    NA+95377  17.990  24.567  20.136 -0.0121 -0.2052 -0.0159
20390ION    NA+95378  22.591  18.108   3.278 -0.1724 -0.4269  0.0635
20391ION    NA+95379  11.958  22.685  22.345 -0.0675  0.1516  0.1471
20392ION    NA+95380  11.614  17.137   3.646 -0.0266 -0.2237 -0.0795
20393ION    NA+95381  35.252  27.415  23.479 -0.0113 -0.0439 -0.5652
20394ION    NA+95382  32.852   4.078   6.671  0.1624  0.1119 -0.3435
20395ION    NA+95383   0.841  24.423  26.093 -0.4094  0.2940  0.0531
20396ION    NA+95384   2.355  33.827   2.184  0.1874 -0.0056  0.0398
20397ION    NA+95385  23.494  15.347  25.794  0.1942  0.2679 -0.2916
20398ION    NA+95386   0.508  26.017   5.323  0.2020  0.5834  0.0402
20399ION    NA+95387  18.684  14.752   4.857  0.0342  0.2455  0.1840
20400ION    NA+95388  33.106  17.113  16.419  0.1383 -0.3179 -0.0628
20401ION    NA+95389  12.376  19.648  23.433  0.4064  0.2924 -0.0690
20402ION    NA+95390  19.918  14.508   9.124  0.1826  0.0227  0.1537
20403ION    NA+95391  35.151  10.164  23.405  0.0462 -0.1350 -0.4837
20404ION    NA+95392  30.350  22.442  19.178 -0.2179  0.2248  0.0786
20405ION    NA+95393   9.196   5.788   8.728  0.0874 -0.3726  0.1053
20406ION    NA+95394  18.247   5.094  11.857 -0.2441 -0.1409  0.3198
20407ION    NA+95395  19.239   6.343  20.543 -0.0785 -0.2093 -0.2161
20408ION    NA+95396  25.766  20.927   0.514 -0.0131  0.1620  0.2412
20409ION    NA+95397  32.277  23.828  10.470  0.1755  0.1407 -0.0356
20410ION    NA+95398  20.511  10.871   0.650  0.0916 -0.1266 -0.2254
20411ION    NA+95399  20.252  17.375   7.423 -0.3452  0.1042  0.0427
20412ION    NA+95400  26.698  31.883  10.062  0.0016  0.0856 -0.1164
20413ION    NA+95401  30.933  15.737  17.503  0.0619 -0.0223 -0.1866
20414ION    NA+95402  16.151  34.117  17.590 -0.1105  0.0487 -0.1908
20415ION    NA+95403  10.952  28.304  13.297 -0.1674 -0.0256  0.0740
20416ION    NA+95404  21.045   6.233  16.168  0.0451 -0.1475 -0.1466
20417ION    NA+95405  32.010  14.737  15.367  0.0206 -0.1075  0.3717
20418ION    NA+95406  16.430  21.059   8.753 -0.0396  0.0062 -0.1674
20419ION    NA+95407   7.437  24.861   6.467  0.2430 -0.3052  0.0269
20420ION    NA+95408  10.150   7.159   4.658  0.0324  0.1919 -0.3684
20421ION    NA+95409  17.314  30.883  23.452 -0.1130 -0.0979 -0.4928
20422ION    NA+95410   7.896  22.466   0.480  0.2097 -0.1561  0.2765
20423ION    NA+95411  16.479   1.999  10.514  0.0963  0.3087  0.2671
20424ION    NA+95412  31.012  17.794  16.755  0.0172  0.2376  0.0614
20425ION    NA+95413  24.745   4.351  12.655 -0.1847  0.3173  0.2102
20426ION    NA+95414  10.954  16.661  19.697  0.1723  0.1675 -0.0329
20427ION    NA+95415  29.332  19.721   7.110  0.2766 -0.1081  0.2596
20428ION    NA+95416  21.586   1.501  14.931  0.1968  0.3484 -0.1485
20429ION    NA+95417  18.511  21.898   4.915 -0.1411 -0.2822  0.0325
20430ION    NA+95418  21.464  23.191   3.598 -0.2274  0.0549 -0.0717
20431ION    NA+95419  24.475   6.906   0.168 -0.0346 -0.1195 -0.2281
20432ION    NA+95420   5.327  14.313  18.768 -0.0536  0.0200  0.2502
20433ION    NA+95421  11.044  18.022  14.807 -0.2746  0.0718  0.1052
20434ION    NA+95422  29.882  26.369  18.472 -0.1853  0.0960 -0.1627
20435ION    NA+95423   0.230  25.404  18.337  0.3425  0.2990 -0.0903
20436ION    NA+95424  16.276   2.243  16.504  0.3173 -0.0588  0.1937
20437ION    NA+95425  17.306   5.035   7.531 -0.2392  0.3371 -0.0712
20438ION    NA+95426   6.235   4.307  24.591  0.3008  0.3593  0.0952
20439ION    NA+95427  19.098   3.381   9.213  0.3004  0.0841  0.0109
20440ION    NA+95428  30.584   4.654  25.357 -0.1653  0.0072 -0.1379
20441ION    NA+95429   8.182  16.758   6.424  0.1671  0.0512  0.1321
20442ION    NA+95430  21.610  23.250   4.790  0.2998 -0.0020  0.2966
20443ION    NA+95431  16.845   0.615  20.477  0.1735  0.2387 -0.2898
20444ION    CL-95432  31.871   8.708  20.874  0.0041  0.0564 -0.0145
20445ION    CL-95433  29.504  26.426  19.302  0.1929  0.1441 -0.1113
20446ION    CL-95434  30.041  11.434  16.384 -0.0163  0.3604 -0.1140
20447ION    CL-95435  19.843   8.904  21.927  0.0982 -0.2351  0.4567
20448ION    CL-95436   8.519  10.275   8.947 -0.1240  0.3568  0.2311
20449ION    CL-95437  26.736  27.421  16.933  0.1171  0.0777 -0.2084
20450ION    CL-95438  32.102  34.444  22.645 -0.0564 -0.3527 -0.2270
20451ION    CL-95439  35.086  27.558  15.552  0.4699 -0.1233  0.2619
20452ION    CL-95440   8.011  19.522  13.008  0.0706  0.0643 -0.3371
20453ION    CL-95441   5.045  15.899  17.375 -0.0561  0.2108 -0.2968
20454ION    CL-95442  31.894  19.990  20.060 -0.1450  0.3551 -0.2250
20455ION    CL-95443   3.368  11.086  23.744  0.0169  0.4155 -0.1140
20456ION    CL-95444  21.904   3.728   3.958  0.1531 -0.0551  0.1031
20457ION    CL-95445  28.342   9.582  24.641  0.2503  0.0283 -0.0600
20458ION    CL-95446  20.091  15.907   3.938 -0.2000 -0.1233  0.0076
20459ION    CL-95447  10.461  32.681  11.777  0.0341  0.0172 -0.0170
20460ION    CL-95448   2.283  30.583   5.985 -0.1246  0.2793  0.0275
20461ION    CL-95449  11.569  27.862   9.478 -0.0838  0.2409  0.1225
20462ION    CL-95450   5.341  25.724  21.199 -0.1614 -0.2292  0.2753
20463ION    CL-95451  28.437  13.806  11.478 -0.2626  0.2737  0.1174
20464ION    CL-95452  29.738  14.512  17.696 -0.0849  0.1423 -0.1175
20465ION    CL-95453   3.149  15.425  16.413  0.2527  0.2361  0.3991
20466ION    CL-95454  14.292  28.781   1.020  0.1043 -0.3974 -0.1054
20467ION    CL-95455  31.605   2.120  15.900  0.0895 -0.0146  0.0971
20468ION    CL-95456   4.742   6.763  23.636 -0.3513 -0.0957 -0.1891
20469ION    CL-95457  11.816  13.122   3.458  0.2715  0.1783  0.2741
20470ION    CL-95458   4.048  15.802   6.687  0.2080  0.1110  0.2113
20471ION    CL-95459  24.359  26.953   4.223 -0.2936 -0.0643 -0.1268
20472ION    CL-95460   9.526  13.996   1.586  0.2157 -0.0584  0.3043
20473ION    CL-95461  11.042  12.981  12.010 -0.0537 -0.0898  0.0400
20474ION    CL-95462  29.189  11.819   9.184 -0.1308 -0.1386 -0.2994
20475ION    CL-95463   7.984   7.874  25.861 -0.2034 -0.0735  0.1438
20476ION    CL-95464  31.328  28.679   2.075  0.1059 -0.0150 -0.1351
20477ION    CL-95465   4.852  27.423   5.985  0.0671  0.0072 -0.3499
20478ION    CL-95466  23.759   8.482  16.734 -0.0008 -0.0043  0.0349
20479ION    CL-95467  23.073   0.299  17.457 -0.1517  0.0347 -0.1352
20480ION    CL-95468  13.075  27.959  13.445 -0.0312 -0.0577 -0.0050
20481ION    CL-95469   2.944  17.941  19.143 -0.1804  0.0686 -0.2374
20482ION    CL-95470  24.119  33.701   3.643 -0.0900  0.0314  0.2007
20483ION    CL-95471   3.741   8.720  23.653  0.2188  0.2523  0.1936
20484ION    CL-95472   4.857  18.246  25.833  0.1031  0.1740 -0.0807
20485ION    CL-95473  10.877  33.260   2.708 -0.1900  0.1474 -0.0434
20486ION    CL-95474  22.372  27.139  21.358  0.1183 -0.3212  0.2214
20487ION    CL-95475  16.595   1.199   6.346 -0.0727  0.0308  0.0446
20488ION    CL-95476  11.974  19.411  14.677 -0.2440  0.0762 -0.1853
20489ION    CL-95477   9.826  27.118  16.011 -0.1912  0.1137 -0.2854
20490ION    CL-95478   3.065   9.370   5.836 -0.0296 -0.0677 -0.2204
20491ION    CL-95479  11.229  16.978  23.246 -0.1388  0.0291  0.4515
20492ION    CL-95480   3.767  18.978  20.285 -0.0502  0.0334  0.1983
20493ION    CL-95481  34.227   9.443  11.232  0.3907 -0.0031  0.1856
20494ION    CL-95482  14.687  28.918   3.426 -0.1079  0.0388  0.1305
20495ION    CL-95483  28.676  30.438  16.793  0.0343  0.0054  0.2329
20496ION    CL-95484  25.211   0.806   3.530  0.5203 -0.2005 -0.2814
20497ION    CL-95485   3.425  21.465  16.054  0.0724  0.2268  0.0160
20498ION    CL-95486  29.627  25.361  24.498 -0.0052  0.1647 -0.3941
20499ION    CL-95487  32.169  20.801  17.183 -0.1395  0.1467 -0.1579
20500ION    CL-95488   9.728  31.034   4.657  0.2314 -0.3922  0.2500
20501ION    CL-95489  18.798  27.206   0.612  0.0281  0.4256 -0.4798
20502ION    CL-95490   2.103   3.006  24.455 -0.1746 -0.0499 -0.2706
20503ION    CL-95491   7.001  24.822   6.239  0.2573  0.1352 -0.1094
20504ION    CL-95492  15.958  19.012   7.736  0.0202  0.1347 -0.3161
20505ION    CL-95493  19.911   0.971   0.245  0.0673 -0.0974 -0.1132
20506ION    CL-95494  20.115   6.549   9.314  0.1549 -0.2957 -0.0570
20507ION    CL-95495   4.483  22.714  25.224  0.4654  0.0819 -0.0481
20508ION    CL-95496  20.583  25.124   6.539  0.1602  0.2553  0.0792
20509ION    CL-95497   0.958   1.379  20.447  0.0484 -0.2898 -0.1995
20510ION    CL-95498  20.072   0.018  21.927  0.2274  0.1918  0.1050
20511ION    CL-95499  13.004  23.781   0.321  0.3159 -0.1829  0.1295
20512ION    CL-95500   2.279  33.833  20.318  0.0937  0.0335  0.2608
20513ION    CL-95501   4.526   4.111  25.723 -0.0579 -0.1552 -0.1429
20514ION    CL-95502   7.178  16.805   1.304 -0.1699 -0.0858 -0.1514
20515ION    CL-95503  20.858   9.542  18.380  0.0780  0.0175 -0.0132
20516ION    CL-95504   0.370  18.804  18.953  0.0544  0.3384  0.1783
20517ION    CL-95505  13.277  34.217  22.137 -0.3913  0.0140  0.3299
20518ION    CL-95506  34.217   3.351  16.046 -0.2484  0.1521  0.1300
20519ION    CL-95507  22.971   0.370  20.414 -0.0821  0.0234  0.0973
20520ION    CL-95508  10.251  20.084  10.712  0.1633 -0.1153  0.1643
20521ION    CL-95509  22.947  34.442   4.848  0.3225  0.3243  0.3591
20522ION    CL-95510  34.735   3.868  12.851  0.3050 -0.1030 -0.0771
20523ION    CL-95511   7.347   2.675  19.797 -0.0116  0.0643 -0.0563
20524ION    CL-95512  34.659  18.579  21.733  0.1142  0.0536  0.3031
20525ION    CL-95513  10.666   2.439   4.016 -0.3581 -0.4346 -0.0383
20526ION    CL-95514  12.820   7.592   8.021 -0.1670 -0.2144  0.2823
20527ION    CL-95515  25.712  12.028   0.320 -0.4188 -0.1425 -0.0603
20528ION    CL-95516   3.965   5.546  21.811  0.0358 -0.0202  0.1189
20529ION    CL-95517  31.358   5.835  16.480 -0.0436  0.2687 -0.0157
20530ION    CL-95518   7.255   1.317   3.939  0.1045 -0.0181  0.0602
20531ION    CL-95519  32.605  19.222  25.498  0.1665 -0.1155  0.1461
20532ION    CL-95520  32.137   3.526  20.075  0.1482  0.4471 -0.2511
20533ION    CL-95521  12.356  33.534  11.501  0.1856  0.0085  0.1632
20534ION    CL-95522  34.266  23.738   0.412 -0.2732  0.3353 -0.1502
20535ION    CL-95523  23.844   4.947  24.594  0.0812 -0.2906 -0.1082
20536ION    CL-95524  29.868  19.767  14.444  0.0486 -0.2531 -0.1917
20537ION    CL-95525   6.207  14.610   6.523 -0.1737  0.2592 -0.2279
20538ION    CL-95526  15.416  23.112  12.060 -0.1106 -0.0887 -0.1299
20539ION    CL-95527  11.387  35.262  24.765 -0.0692  0.0837 -0.0052
20540ION    CL-95528  30.304  22.805  15.711  0.0595  0.2067  0.0366
20541ION    CL-95529  12.888   0.705  20.506  0.2220 -0.2169 -0.3053
20542ION    CL-95530  30.174  16.577  21.126  0.1291 -0.2002 -0.1133
20543ION    CL-95531   3.645  19.543  17.670 -0.1976  0.1847  0.0028
20544ION    CL-95532   5.900   9.361  20.374  0.1220 -0.0558 -0.1746
20545ION    CL-95533   6.510  13.233  24.582 -0.2466 -0.1380  0.0141
20546ION    CL-95534  22.023   6.616   5.308  0.1494  0.3625  0.0803
20547ION    CL-95535  23.810  30.370   1.309 -0.0577 -0.3382 -0.0084
20548ION    CL-95536  25.514  26.831   2.773  0.4393  0.1772  0.1486
20549ION    CL-95537   8.414   7.382  19.230  0.2484 -0.1599  0.3203
20550ION    CL-95538   0.168  26.778   4.424  0.3154 -0.0775 -0.0419
20551ION    CL-95539  19.470  33.439   6.241 -0.1617  0.0799 -0.3451
20552ION    CL-95540  33.680   0.962  13.722  0.0201  0.3382 -0.3346
20553ION    CL-95541  12.200  32.813  22.680 -0.0536  0.3375  0.2948
20554ION    CL-95542  19.550  32.144  22.513  0.1289 -0.3557 -0.1130
20555ION    CL-95543  26.609  24.331  16.326  0.0362  0.0813 -0.1211
20556ION    CL-95544  33.687  22.310   8.542  0.0416  0.2068  0.0300
20557ION    CL-95545  26.174   8.877  25.763  0.1574  0.1864  0.0720
20558ION    CL-95546   6.818  25.493  14.727 -0.3816 -0.0565 -0.0619
20559ION    CL-95547  28.087  25.410  17.433  0.1296  0.1657  0.0574
20560ION    CL-95548   5.789  11.445  18.706 -0.1758 -0.1683 -0.3120
20561ION    CL-95549  14.147   2.122  10.460  0.2266 -0.3345  0.0435
20562ION    CL-95550  14.633  31.459   5.761  0.1970  0.3747  0.3175
20563ION    CL-95551  12.223  11.815   5.029  0.0792 -0.0753 -0.0058
20564ION    CL-95552  25.158   1.738  14.219 -0.1828 -0.2257 -0.3092
20565ION    CL-95553  20.440  20.459   0.242 -0.1721 -0.4035  0.0654
20566ION    CL-95554  19.272  12.609   9.453  0.1803  0.0273  0.3049
20567ION    CL-95555   9.932   8.137  19.354  0.3468 -0.2778 -0.0699
20568ION    CL-95556   5.109  23.937  21.143  0.0966  0.2213  0.0619
20569ION    CL-95557   7.888  27.574   8.159  0.0511 -0.0197 -0.0354
20570ION    CL-95558   7.450  13.532  20.771  0.1564  0.0592 -0.3690
20571ION    CL-95559  10.845   3.299   6.323 -0.1049 -0.0725  0.2185
20572ION    CL-95560  15.252  10.681   2.961  0.0125  0.0215  0.0029
20573ION    CL-95561   2.899  17.696  16.563 -0.0587  0.0552 -0.0558
20574ION    CL-95562  12.852  24.215  10.134  0.0119 -0.1105  0.0509
20575ION    CL-95563  15.271  12.000  14.047 -0.0508  0.2561  0.2176
20576ION    CL-95564  11.726  19.059   6.404  0.1608 -0.1023 -0.1433
20577ION    CL-95565   1.975   1.649  24.854  0.0689  0.0317  0.4259
20578ION    CL-95566   9.457  10.080  19.292  0.3564 -0.0493 -0.3779
20579ION    CL-95567   6.725   8.000   6.878 -0.1083 -0.3022  0.0168
20580ION    CL-95568   7.467  24.416   2.095 -0.0365 -0.0464  0.0455
20581ION    CL-95569  20.501  25.841  18.995  0.0192 -0.0155 -0.0584
20582ION    CL-95570  17.875   9.750  21.412 -0.1235  0.2314 -0.0914
20583ION    CL-95571   7.470  20.977  21.671  0.0839  0.0974 -0.1574
20584ION    CL-95572  25.605  12.507  14.592 -0.0405  0.1363 -0.0360
20585ION    CL-95573  10.040   0.893   7.860 -0.5197  0.2118 -0.0707
20586ION    CL-95574   3.271   3.098   5.733  0.0287  0.1539 -0.0113
20587ION    CL-95575  10.894   1.434  23.371  0.1060  0.1218  0.3835
20588ION    CL-95576  10.639  30.586   1.696  0.1880 -0.0886  0.3243
20589ION    CL-95577  30.389  24.773  18.877 -0.1354  0.0923 -0.1651
20590ION    CL-95578  32.626  33.026   5.431  0.0932 -0.1816  0.0959
20591ION    CL-95579   2.678  34.758  24.301 -0.0150  0.0499  0.0214
20592ION    CL-95580  15.671  13.619   9.046 -0.1988  0.5394  0.3046
20593ION    CL-95581  19.828  10.254   8.562  0.1569  0.1107  0.2074
20594ION    CL-95582  28.325  29.668  15.970 -0.1920 -0.3548  0.0228
20595ION    CL-95583  13.492  13.598   4.742  0.1992 -0.0155  0.0782
20596ION    CL-95584  17.096  23.269   6.149  0.2854  0.2213 -0.0736
20597ION    CL-95585  14.086  12.332  21.797 -0.1979 -0.2260 -0.0938
20598ION    CL-95586  32.864  23.279  24.353 -0.0946 -0.1885 -0.0519
20599ION    CL-95587  11.093   6.484  23.259  0.1553 -0.1911  0.1806
20600ION    CL-95588  12.785  25.742  22.298 -0.0100  0.1032  0.0291
20601ION    CL-95589   9.067   2.879   1.831  0.1530  0.1078  0.0492
20602ION    CL-95590  33.184  32.442  16.471 -0.1399  0.0222  0.0919
20603ION    CL-95591  10.582  29.203  25.254 -0.2218  0.0206  0.3450
20604ION    CL-95592  29.982  13.132  22.361 -0.2172 -0.0156 -0.1148
20605ION    CL-95593  16.888   4.099  16.807  0.1628 -0.2814  0.0355
20606ION    CL-95594   0.899   4.808   4.122 -0.2504  0.2342 -0.0196
20607ION    CL-95595  22.834  14.135  23.880 -0.1936 -0.1601  0.0171
20608ION    CL-95596  32.501  19.759  12.973  0.0001 -0.1009  0.2671
20609ION    CL-95597  22.765  23.521  16.505  0.0184  0.0540  0.2606
20610ION    CL-95598  32.262  30.568  12.243  0.1198  0.0945 -0.1492
20611ION    CL-95599  17.891  30.992  25.307  0.1127 -0.1538  0.0822
20612ION    CL-95600  16.258   7.659   2.669 -0.2620  0.1779 -0.1396
20613ION    CL-95601   1.582  18.743  19.066 -0.0881  0.2532  0.3124
20614ION    CL-95602   5.639  27.458   6.431  0.2263  0.1460 -0.2615
20615ION    CL-95603   2.073  20.591  24.754 -0.0117 -0.2375  0.0548
20616ION    CL-95604  29.206  20.115  10.106 -0.1977 -0.1186  0.0620
20617ION    CL-95605   6.310   7.423   8.659  0.1833  0.1414  0.2028
20618ION    CL-95606  11.572  32.396  21.333  0.2636  0.0162 -0.4439
20619ION    CL-95607  22.642  12.765  20.414 -0.2296 -0.0489  0.0018
20620ION    CL-95608  14.065  35.354  20.032 -0.2311 -0.3760 -0.0515
20621ION    CL-95609  31.367  28.620  14.206  0.1635  0.1698 -0.3450
20622ION    CL-95610  21.282   9.849  21.897 -0.2196 -0.1198 -0.5444
20623ION    CL-95611  19.087  20.648  24.343  0.1497  0.1052  0.0191
20624ION    CL-95612  30.813  29.365  20.017  0.2559 -0.0234  0.0891
20625ION    CL-95613   1.990   4.819   3.766  0.4439 -0.0427 -0.3387
20626ION    CL-95614   3.161  26.458   4.452 -0.0275  0.0641  0.1892
20627ION    CL-95615  30.218  34.350  12.636 -0.0968  0.0757  0.0978
20628ION    CL-95616  25.922  11.951  21.920  0.0963 -0.2595  0.2045
20629ION    CL-95617   4.288  29.841  11.881 -0.0413 -0.3103 -0.1792
20630ION    CL-95618   0.462  16.128  23.088  0.2390  0.1040  0.2731
20631ION    CL-95619  12.046  21.657   8.463 -0.3135 -0.0063 -0.0148
20632ION    CL-95620  26.340  23.851  10.391 -0.1042  0.1228 -0.0412
20633ION    CL-95621  13.407   8.496  21.291  0.1802  0.5187  0.3880
20634ION    CL-95622  12.037  25.737   6.133  0.3246 -0.2091 -0.0193
20635ION    CL-95623  30.303   8.306  24.656  0.0365  0.0479  0.1046
20636ION    CL-95624  23.897  27.452   0.477  0.0625 -0.2405  0.1968
20637ION    CL-95625   7.613  31.668  26.250 -0.0900 -0.1999 -0.2393
20638ION    CL-95626  14.275   1.631   9.306 -0.0016 -0.0689  0.0168
20639ION    CL-95627  13.039  20.303  10.729  0.2711 -0.0959 -0.3378
20640ION    CL-95628  26.902  24.512  18.361  0.2654  0.1206 -0.1570
20641ION    CL-95629   9.809   3.434  14.237 -0.3744  0.3610 -0.1476
20642ION    CL-95630   3.047  15.407  23.068 -0.0234 -0.0159  0.1236
20643ION    CL-95631  21.180   2.868  19.208 -0.0866 -0.2844  0.1984
20644ION    CL-95632  20.079  32.160   8.018 -0.2791  0.2326 -0.1459
20645ION    CL-95633   1.480  11.315  24.079  0.0924 -0.1086  0.1297
20646ION    CL-95634  16.204  13.784  20.750  0.1393  0.1497 -0.4048
20647ION    CL-95635  30.691  24.415  15.994  0.2194  0.0798 -0.3019
20648ION    CL-95636  17.541  17.760  25.782  0.0537 -0.2220  0.1525
20649ION    CL-95637  10.912  17.163   4.117 -0.0596 -0.0564 -0.4120
20650ION    CL-95638   7.597  34.736  12.973 -0.0703  0.0685 -0.0030
20651ION    CL-95639   5.766  29.905   1.286  0.0679  0.0012  0.3459
20652ION    CL-95640  23.218  34.107  21.369  0.0238  0.4461  0.3799
20653ION    CL-95641  29.592  23.738  10.217  0.2125  0.0011 -0.1619
20654ION    CL-95642  24.058  18.364  20.437 -0.3501 -0.2075  0.1048
20655ION    CL-95643   2.744   6.682  17.885  0.0318  0.2134  0.1488
20656ION    CL-95644  18.960   5.251   2.539  0.2631 -0.0114 -0.1275
20657ION    CL-95645  24.655  27.691  10.213 -0.1477 -0.2040 -0.1530
20658ION    CL-95646  27.160  10.095  17.143  0.1267  0.0493 -0.2283
20659ION    CL-95647   9.830   6.266  20.190  0.1498 -0.1203  0.0308
20660ION    CL-95648  14.413  31.388  22.664 -0.0704  0.1606  0.0875
20661ION    CL-95649  19.514  18.073  22.579 -0.0407 -0.0657 -0.3704
20662ION    CL-95650  21.240  25.738  22.377 -0.2017  0.0926 -0.1355
20663ION    CL-95651   3.861   0.436   0.176  0.2385  0.2509  0.0164
20664ION    CL-95652  24.050   9.346  22.811  0.1619 -0.2067  0.1348
20665ION    CL-95653  16.369  25.109  10.523  0.1939 -0.2422 -0.1234
20666ION    CL-95654  31.800   0.446  13.426 -0.2647  0.3394 -0.0265
20667ION    CL-95655   9.820   1.531  10.417  0.0359  0.1748 -0.1738
20668ION    CL-95656  13.508   5.481  10.699 -0.2460  0.0721  0.1995
20669ION    CL-95657  25.483  31.274  11.782 -0.2213 -0.2506 -0.4133
20670ION    CL-95658  12.062  24.752  11.156  0.3247  0.3323  0.0085
20671ION    CL-95659  12.554   8.993   6.239 -0.2743  0.2168  0.1500
20672ION    CL-95660  19.933  29.262  18.408  0.0981  0.0566  0.1806
20673ION    CL-95661  27.338   5.848   3.675  0.0118 -0.1082  0.0513
20674ION    CL-95662  27.875  30.518  20.501  0.5361  0.0424  0.6134
20675ION    CL-95663  11.903  10.680   3.313 -0.0750 -0.1786  0.1486
20676ION    CL-95664  28.250  28.754  13.449  0.4219 -0.2252  0.2065
20677ION    CL-95665  30.609  34.909  16.122  0.0304  0.0029 -0.0761
20678ION    CL-95666   6.345   6.270  18.389 -0.1037 -0.1039 -0.0437
20679ION    CL-95667  31.831  28.503  20.913  0.1689  0.2331  0.0615
20680ION    CL-95668  18.482   8.481   2.544  0.3782  0.1009  0.2724
20681ION    CL-95669  26.790  29.109   2.423  0.1257 -0.2432  0.3419
20682ION    CL-95670  12.988  24.575  11.842  0.3092  0.3007  0.0140
20683ION    CL-95671   2.866  23.898  23.823 -0.1211  0.1604  0.1035
20684ION    CL-95672  14.346  34.723  22.486 -0.3131 -0.1206  0.3995
20685ION    CL-95673  23.915   6.215  25.136  0.0401 -0.1184  0.0132
20686ION    CL-95674  12.606  29.593  14.318 -0.0514  0.0526  0.2362
20687ION    CL-95675  25.322  24.953  18.233  0.2139 -0.1955 -0.0596
20688ION    CL-95676  11.769  18.158  20.404 -0.0389 -0.1331  0.0756
20689ION    CL-95677  25.325  25.863  23.422  0.0847 -0.2648  0.2523
20690ION    CL-95678  32.875  19.369  16.948 -0.3985 -0.1468  0.2678
20691ION    CL-95679  24.616  18.530  12.298 -0.2010  0.1146 -0.0911
20692ION    CL-95680  31.501   0.861  24.021 -0.3219 -0.2357  0.0783
20693ION    CL-95681  12.905  33.286  12.542  0.3470 -0.1700 -0.0018
20694ION    CL-95682   7.150   3.941  13.580  0.0430  0.0818 -0.1951
20695ION    CL-95683  19.392   3.710   8.984  0.0228 -0.2573  0.0685
20696ION    CL-95684  13.710  25.986  15.168 -0.1634 -0.0992 -0.0411
20697ION    CL-95685  22.812  13.457   2.297  0.0287 -0.0792 -0.4653
20698ION    CL-95686  15.610  29.434  24.534 -0.0603  0.1038  0.0599
20699ION    CL-95687  16.796  11.942  13.348  0.1760  0.1302 -0.0361
20700ION    CL-95688  12.565   5.966  24.383 -0.3492 -0.1861  0.0121
20701ION    CL-95689  13.991  22.582  16.353 -0.2160  0.1648  0.1519
20702ION    CL-95690   1.551  22.830   2.748 -0.2555 -0.1133  0.3047
20703ION    CL-95691  10.427  14.457  22.825 -0.1277  0.0607  0.0693
20704ION    CL-95692  26.971   3.701   4.380  0.2826 -0.0259 -0.0261
20705ION    CL-95693  24.001  31.929  22.618 -0.3220 -0.0721  0.2292
20706ION    CL-95694  19.695   5.764   8.773  0.2789  0.3942 -0.0867
20707ION    CL-95695  25.012  23.334  25.366  0.1298 -0.3032  0.0619
20708ION    CL-95696  31.269  24.925  12.364 -0.1916 -0.0873  0.1656
20709ION    CL-95697   5.146  16.340   5.603 -0.0465  0.0988 -0.2319
20710ION    CL-95698   5.603  29.208  20.570 -0.1178  0.0992  0.0451
20711ION    CL-95699  24.834   9.418  23.259 -0.1112 -0.1630  0.1530
20712ION    CL-95700  19.630  18.918   3.926  0.2513  0.1522 -0.1607
20713ION    CL-95701  22.800  16.946  16.758  0.0674  0.0548 -0.1632
20714ION    CL-95702  31.235   2.442   5.509 -0.5427  0.0267 -0.0811
20715ION    CL-95703  18.133  31.489   4.904 -0.1257  0.0866 -0.0773
20716ION    CL-95704   6.990  18.231  19.758  0.0723  0.0085  0.2248
20717ION    CL-95705   7.881  30.992   8.780 -0.0981  0.1130  0.0533
20718ION    CL-95706  25.049   6.957  19.952  0.0812  0.4083  0.0224
20719ION    CL-95707  11.152  30.666  23.773 -0.0153  0.0528  0.2520
20720ION    CL-95708   2.558  15.164  18.738  0.0314 -0.0652 -0.0661
20721ION    CL-95709  17.461  21.055  20.108  0.1664  0.1197  0.2988
20722ION    CL-95710  28.842  22.976  16.693  0.0350 -0.0194  0.0743
20723ION    CL-95711   4.853   2.386   1.962  0.0254 -0.1059  0.3484
20724ION    CL-95712  29.897  28.020  11.727 -0.0758  0.2694 -0.1593
20725ION    CL-95713  27.607  22.099   9.293 -0.0169  0.1066  0.2516
20726ION    CL-95714  11.041  34.061  24.863 -0.3210  0.0293  0.1019
20727ION    CL-95715  11.031   8.092   1.686  0.0333 -0.1175  0.1855
20728ION    CL-95716  27.754   4.293  22.968  0.1068 -0.0898  0.1447
20729ION    CL-95717  29.695  13.311  25.675 -0.0295  0.2941  0.2038
20730ION    CL-95718   9.796   3.352  20.562 -0.2215 -0.3299 -0.1336
20731ION    CL-95719  30.270  10.612  23.655 -0.1552 -0.2001 -0.0429
20732ION    CL-95720  30.125  14.977  23.306  0.0270  0.4459 -0.0347
20733ION    CL-95721  21.790  19.828  20.472 -0.0504 -0.0923  0.0289
20734ION    CL-95722  26.371  16.738  17.827  0.3182 -0.2664 -0.3103
20735ION    CL-95723   6.141   1.387   7.861  0.5396  0.0349  0.3058
20736ION    CL-95724  16.140   4.757   6.880 -0.2137 -0.0451 -0.0034
20737ION    CL-95725  18.719  33.615   2.914  0.0208  0.3834 -0.0392
20738ION    CL-95726   8.416  28.682   4.997  0.1577  0.2633 -0.0286
20739ION    CL-95727  12.995  23.276   7.616  0.1019 -0.0438 -0.0693
20740ION    CL-95728  16.200  17.595   7.948  0.3666  0.1143 -0.0226
20741ION    CL-95729   2.273  11.758  23.502 -0.0445 -0.3742 -0.0773
20742ION    CL-95730  30.406  29.753  24.307  0.0342  0.2948 -0.0438
20743ION    CL-95731   1.332   8.796  24.127  0.0125  0.1321 -0.0766
20744ION    CL-95732  30.001  25.233   0.810 -0.0210 -0.2825 -0.1144
20745ION    CL-95733  19.410  32.793  20.860 -0.1129 -0.1423  0.1811
20746ION    CL-95734  21.536  27.399  21.488 -0.0439  0.0571  0.2159
20747ION    CL-95735  15.699  19.195  21.831  0.1452 -0.2159  0.0957
20748ION    CL-95736  33.556  35.286  24.422 -0.2455  0.1116 -0.0654
20749ION    CL-95737  22.539  27.458  18.759 -0.2358 -0.0996  0.1060
20750ION    CL-95738   7.969  26.270   0.043  0.0604 -0.1011  0.1749
20751ION    CL-95739  11.407   1.612  20.958 -0.1221 -0.1368  0.5214
20752ION    CL-95740   1.371   9.692   1.491 -0.1025  0.1937  0.5354
20753ION    CL-95741  30.196  26.906   1.114 -0.1190  0.0710  0.1855
20754ION    CL-95742  21.885  33.819  21.598  0.0681 -0.0912  0.0839
20755ION    CL-95743  22.880  11.259  19.339  0.1547  0.1352  0.2349
20756ION    CL-95744  26.235   9.194  12.081  0.1993 -0.1652 -0.1988
20757ION    CL-95745   0.356  29.096  19.027 -0.0181 -0.1396 -0.0665
20758ION    CL-95746  27.357   9.459  15.582 -0.1785 -0.0340  0.2760
20759ION    CL-95747   5.981   4.299  10.183 -0.1444 -0.1688  0.0876
20760ION    CL-95748  25.503  13.142   9.869  0.0719 -0.0912 -0.1677
20761ION    CL-95749  29.432  15.554  17.638  0.0700  0.4033 -0.1254
20762ION    CL-95750   8.143  27.258   3.795  0.2278  0.0915 -0.1398
20763ION    CL-95751   2.981  17.001  18.374  0.0030  0.0453  0.2815
20764ION    CL-95752  14.085  33.431   8.377  0.1617 -0.1301 -0.1971
20765ION    CL-95753  15.629  13.083   3.400  0.0110 -0.0322  0.2102
20766ION    CL-95754   1.477  20.322  21.327  0.3245  0.3466  0.3310
20767ION    CL-95755  25.597   3.172   1.328 -0.0806  0.4336  0.0866
20768ION    CL-95756   8.550  13.452  21.714  0.2079  0.2012 -0.0856
20769ION    CL-95757  12.087  12.281  11.574 -0.0363 -0.0186 -0.0564
20770ION    CL-95758   8.667   5.988   7.844 -0.5067  0.2810 -0.1027
20771ION    CL-95759  21.792   2.775  23.452  0.0724  0.1740  0.1569
20772ION    CL-95760  20.104  17.203   2.990  0.1100  0.0556 -0.0616
20773ION    CL-95761  21.335  26.712   1.079  0.0822  0.2263  0.3592
20774ION    CL-95762  30.747  34.281   5.316  0.1363 -0.1364  0.0713
20775ION    CL-95763   0.107  34.124   8.888 -0.0655 -0.0958  0.0012
20776ION    CL-95764  11.839   4.686  22.566  0.1813  0.0485  0.2740
20777ION    CL-95765  20.834  15.470   4.507 -0.0406 -0.0441  0.1508
20778ION    CL-95766  34.377   1.103  19.923  0.2406 -0.1505 -0.0853
20779ION    CL-95767  35.355  27.451   0.784 -0.1879 -0.1789  0.1660
20780ION    CL-95768  34.928   4.362   3.640  0.0189 -0.1059 -0.2291
20781ION    CL-95769  12.113   3.691  22.611  0.1667 -0.0241 -0.0313
20782ION    CL-95770   0.538  14.160  14.937  0.4377  0.0825 -0.1709
20783ION    CL-95771  33.395   9.250  11.189  0.2753  0.1102 -0.0498
20784ION    CL-95772  14.324  19.985   5.374  0.2247 -0.0220 -0.0317
20785ION    CL-95773  22.188  17.725  21.624 -0.3686  0.3211 -0.0168
20786ION    CL-95774  18.575  19.254  25.423  0.1065  0.0310  0.2672
20787ION    CL-95775  34.977  33.482  17.976 -0.0361  0.0145 -0.0830
20788ION    CL-95776  19.851  33.500  21.391 -0.0987  0.1144  0.3957
20789ION    CL-95777  16.389  26.495   1.220  0.2649 -0.4651 -0.2906
20790ION    CL-95778  15.907  22.042   0.058 -0.2232 -0.0904 -0.0798
20791ION    CL-95779   0.687  25.183  15.060 -0.1846 -0.3240  0.3259
20792ION    CL-95780   6.335  32.824  13.390 -0.1644  0.3293 -0.1515
20793ION    CL-95781  26.361  13.799  15.273 -0.0863  0.1996  0.0948
20794ION    CL-95782  14.056  15.074   1.250 -0.3995 -0.1089  0.0383
20795ION    CL-95783  21.352  23.951  19.595  0.0712  0.0993  0.2474
20796ION    CL-95784  15.912  19.459   9.969  0.3681 -0.1064  0.2838
20797ION    CL-95785   4.610  22.242  22.672  0.1064 -0.0454 -0.0197
20798ION    CL-95786   7.770  32.035  21.926  0.1371  0.1086 -0.2386
20799ION    CL-95787  17.566  32.084   4.683 -0.1350  0.3232  0.3426
20800ION    CL-95788  33.432  28.336   0.595 -0.3499  0.0926  0.1257
20801ION    CL-95789  21.814  11.781  17.895 -0.2667  0.0541  0.2775
20802ION    CL-95790  20.376  12.406  20.303  0.2302 -0.2078 -0.0355
20803ION    CL-95791   8.371   7.112   1.998  0.1159 -0.2898 -0.0494
20804ION    CL-95792   9.150  15.466   2.690  0.0846  0.0681 -0.0372
20805ION    CL-95793   1.769  34.614  18.500  0.2121 -0.0539 -0.2087
20806ION    CL-95794  30.390  12.562   9.969 -0.2733  0.1312  0.3876
20807ION    CL-95795  33.647  24.513  10.284 -0.4240 -0.0348 -0.1551
20808ION    CL-95796  26.575   1.526   1.817  0.1196 -0.1183  0.1882
20809ION    CL-95797  11.522  13.630  21.706  0.1484  0.0897  0.3337
20810ION    CL-95798  33.123  30.033  25.281  0.0196  0.2231 -0.0145
20811ION    CL-95799  23.929  12.922  16.067 -0.0117  0.2134  0.2722
20812ION    CL-95800  34.784   9.323  15.961  0.3306 -0.0847 -0.1316
20813ION    CL-95801  15.204   8.990  10.678 -0.0708  0.0619  0.1626
20814ION    CL-95802   3.998   1.910   9.098 -0.2537 -0.1136 -0.1076
20815ION    CL-95803  21.035   7.688  20.161 -0.1650 -0.2529  0.0264
20816ION    CL-95804  30.028  24.825  13.694  0.1207 -0.1546  0.1363
20817ION    CL-95805  19.122  11.696  17.829  0.0640  0.1279  0.0661
20818ION    CL-95806  12.299  35.218  25.492  0.1828 -0.2317 -0.0931
20819ION    CL-95807  31.716  16.519  14.141  0.0748 -0.0671 -0.0206
20820ION    CL-95808  11.183  10.960  23.060  0.0569 -0.0771  0.0824
20821ION    CL-95809   2.145  10.757  17.850  0.0438 -0.1381 -0.1376
20822ION    CL-95810  16.736   8.646   4.011  0.0170 -0.0170 -0.0966
20823ION    CL-95811  20.302   0.968  19.537 -0.1726  0.2297  0.0896
20824ION    CL-95812  24.008  24.274   3.216 -0.1026  0.2993 -0.1609
20825ION    CL-95813  21.143  19.318  17.731  0.0837 -0.1273  0.1007
20826ION    CL-95814  19.223  19.934   8.364 -0.0124 -0.0965  0.0569
20827ION    CL-95815   3.287  31.792   7.017  0.0352  0.0307 -0.1871
20828ION    CL-95816   7.497  23.923   4.418  0.2140  0.0143  0.0021
20829ION    CL-95817   2.398  21.936  16.922  0.4250  0.2179  0.1533
20830ION    CL-95818   8.812   4.435  25.270  0.0284 -0.0660  0.2054
20831ION    CL-95819  22.266  34.981   7.072 -0.0754 -0.0177  0.1431
20832ION    CL-95820   6.582  32.978   8.292  0.3147  0.1011 -0.0687
20833ION    CL-95821  18.614  11.972   8.797 -0.0596 -0.2386 -0.1253
20834ION    CL-95822   8.788  32.198   5.116  0.0094  0.0120  0.1578
20835ION    CL-95823  32.524  25.185  12.657  0.1638 -0.0324  0.0307
20836ION    CL-95824  16.052   8.785  22.841 -0.1939 -0.2126  0.0978
20837ION    CL-95825  23.592  14.804  17.983  0.0422 -0.2309  0.0055
20838ION    CL-95826  22.996  29.727  13.277  0.2218  0.0395  0.3378
20839ION    CL-95827   4.963   2.437   0.724 -0.0941 -0.1269 -0.1186
20840ION    CL-95828  19.316   2.843  18.128 -0.0069 -0.0200 -0.0723
20841ION    CL-95829  33.161  24.622  15.536  0.2285  0.0764  0.1876
20842ION    CL-95830  30.130  28.712  17.505 -0.0699 -0.0269 -0.2355
20843ION    CL-95831  24.055  13.060  17.959 -0.3901 -0.3284 -0.0273
20844ION    CL-95832  10.548  24.336   4.038 -0.0803 -0.2083 -0.0557
20845ION    CL-95833   7.171  12.784   0.774  0.0491 -0.2280  0.1666
20846ION    CL-95834   3.449  14.537   3.328  0.2196  0.0866  0.1640
20847ION    CL-95835   7.719   6.482   5.638  0.0855  0.2394 -0.2285
20848ION    CL-95836  30.076  18.594  22.822  0.0013  0.0827 -0.2004
20849ION    CL-95837  22.517  29.474  25.846 -0.0909  0.1651 -0.0212
20850ION    CL-95838   8.270  32.334   9.360 -0.2838 -0.0587 -0.0243
20851ION    CL-95839  13.306  25.185  25.564 -0.1404 -0.0481  0.2010
20852ION    CL-95840  30.790  16.216   7.782  0.1745 -0.0611  0.0051
20853ION    CL-95841  18.216  10.395  10.734  0.3159  0.2249 -0.0153
20854ION    CL-95842  20.797  26.943   5.051 -0.1358 -0.0896  0.1595
20855ION    CL-95843  12.762  24.463  13.775  0.1974 -0.0239  0.1263
20856ION    CL-95844  14.348   8.373  21.010  0.1826 -0.0023  0.1247
20857ION    CL-95845  11.159   7.863  13.507 -0.0741 -0.2690  0.2465
20858ION    CL-95846   6.137  32.405   2.134 -0.0067  0.1925 -0.1393
20859ION    CL-95847   1.998   7.879   3.903  0.0877  0.0189  0.1512
20860ION    CL-95848   8.212  23.836  14.800 -0.3595  0.0798  0.2584
20861ION    CL-95849   4.145  11.548  24.361 -0.1173  0.0193 -0.1101
20862ION    CL-95850  20.426   5.079  23.193 -0.1906 -0.1391  0.1239
20863ION    CL-95851  21.783  16.359  15.601  0.0317  0.0039  0.0059
20864ION    CL-95852  26.254   6.491  17.363  0.1368  0.0747  0.1373
20865ION    CL-95853   4.675  29.193  12.887 -0.1484  0.0677 -0.0335
20866ION    CL-95854  23.051  17.734  21.275 -0.2355  0.0132  0.2894
20867ION    CL-95855  14.436   1.421   0.230 -0.0978 -0.0617  0.2664
20868ION    CL-95856   6.621  20.361  26.236  0.4573 -0.0896  0.1455
20869ION    CL-95857  26.336   5.174   2.464 -0.0115  0.0643  0.0229
20870ION    CL-95858  21.053  31.592  17.335  0.1063  0.1403  0.0895
20871ION    CL-95859  15.083  28.236  14.265  0.1470  0.1355 -0.0062
20872ION    CL-95860  14.305  29.393  11.422  0.2242  0.1559  0.1857
20873ION    CL-95861  13.377   0.117   3.343 -0.0637  0.0290  0.2367
20874ION    CL-95862  23.945  32.147   1.599 -0.0608  0.2431  0.4813
20875ION    CL-95863  13.258  16.124   6.624  0.1429 -0.1832  0.0471
20876ION    CL-95864  32.217  33.609   3.328  0.2994  0.0080 -0.0976
20877ION    CL-95865  33.818  24.359  17.036  0.1080 -0.0764  0.1657
20878ION    CL-95866  24.719  27.174  22.901  0.1329  0.0718 -0.2842
20879ION    CL-95867  31.364  34.076  21.274  0.0499  0.0166  0.0795
20880ION    CL-95868  23.172  18.635  18.099  0.0385  0.3047  0.0472
20881ION    CL-95869   0.139   8.878  13.479  0.1429 -0.1346  0.1314
20882ION    CL-95870  11.813  33.837   9.250  0.2052 -0.0438  0.0377
20883ION    CL-95871   6.687  23.800  23.638 -0.0475  0.0692  0.0394
20884ION    CL-95872  35.381   2.615  19.667  0.1737 -0.3080 -0.0965
20885ION    CL-95873   6.413  22.828   0.148  0.1120  0.1058  0.3324
20886ION    CL-95874   3.395  20.334  19.795 -0.0127  0.0605  0.0946
20887ION    CL-95875  16.072  19.820   0.376 -0.3319 -0.3503 -0.0879
20888ION    CL-95876  31.415   9.776  23.198 -0.0405  0.0411  0.1646
20889ION    CL-95877  19.020  15.624  23.616  0.1548  0.2426 -0.1456
20890ION    CL-95878  31.271  24.476  26.247  0.0148  0.1591  0.0990
20891ION    CL-95879   5.545  21.591   1.797 -0.0142 -0.1054  0.2945
20892ION    CL-95880  32.072  25.145  11.316  0.3247 -0.2155  0.1715
20893ION    CL-95881  11.826  21.168   4.902 -0.0366 -0.2350  0.1033
20894ION    CL-95882  14.495  17.376  11.541 -0.0146 -0.2513  0.1527
20895ION    CL-95883  19.880   1.890   2.746 -0.1904 -0.0266  0.2217
20896ION    CL-95884  25.471  10.550  15.596  0.1042 -0.3242 -0.3047
20897ION    CL-95885  23.620  14.661  21.339 -0.0871 -0.2750 -0.0152
20898ION    CL-95886  29.501   4.583  17.980  0.1148 -0.2836 -0.2284
20899ION    CL-95887  32.149  23.755  24.311  0.1313  0.1563  0.0277
20900ION    CL-95888   8.710   0.361  21.318  0.1824 -0.2676 -0.0095
20901ION    CL-95889  11.346  29.955  12.627 -0.1421  0.0179  0.0026
20902ION    CL-95890   5.268   4.855   8.837 -0.0817 -0.2306  0.3163
20903ION    CL-95891  34.919   3.610  19.376 -0.3308 -0.1168  0.0496
20904ION    CL-95892  18.166   0.088   6.184 -0.0369 -0.0306  0.1144
20905ION    CL-95893  21.407   6.159  23.161 -0.0012 -0.2680 -0.1859
20906ION    CL-95894  32.986  26.623  11.594  0.2133 -0.1877 -0.0852
20907ION    CL-95895  26.469  14.290  10.492  0.0067  0.1104  0.0297
20908ION    CL-95896  22.932   4.393  18.866  0.2126 -0.0775 -0.1657
20909ION    CL-95897  15.720  32.505  24.292  0.2179 -0.2244 -0.2917
20910ION    CL-95898  34.991  26.952  20.905 -0.0710 -0.0756 -0.1255
20911ION    CL-95899  11.474  20.942   7.138  0.0372 -0.0444  0.0216
20912ION    CL-95900  12.335  20.343  25.095 -0.4088  0.1962 -0.2634
20913ION    CL-95901  33.042   6.797   3.551 -0.1910  0.0908  0.4051
20914ION    CL-95902  15.888  24.085  21.999  0.4560  0.0356 -0.1387
20915ION    CL-95903   5.108  15.043   6.112 -0.3428  0.0417  0.2036
20916ION    CL-95904  31.944  22.937  17.444 -0.0184  0.1702 -0.3908
20917ION    CL-95905  23.394  15.855  21.265  0.0038  0.0264 -0.2661
20918ION    CL-95906  15.499  31.289   8.422 -0.3540  0.2377 -0.0616
20919ION    CL-95907  22.964   2.914  16.761  0.2286 -0.2626 -0.2613
20920ION    CL-95908   8.922  20.461  10.891  0.0684  0.1355 -0.0599
  35.38534  35.38534  26.25203
